cancer0
299762
    1DOPC   NC3    1   2.178   8.971  15.740  0.0609  0.0923 -0.0956
    1DOPC   PO4    2   2.407   8.845  15.414  0.0863 -0.1066  0.0445
    1DOPC   GL1    3   2.092   9.031  15.304  0.4514  0.0394 -0.0249
    1DOPC   GL2    4   2.220   9.300  15.258 -0.1019  0.0544  0.1280
    1DOPC   C1A    5   1.853   8.984  14.875 -0.0581 -0.0277 -0.0538
    1DOPC   D2A    6   1.912   9.278  14.497 -0.0517 -0.0870  0.0209
    1DOPC   C3A    7   1.701   9.444  14.149  0.1152  0.0147 -0.1806
    1DOPC   C4A    8   1.305   9.236  13.942 -0.0418  0.0182  0.1156
    1DOPC   C1B    9   2.333   9.500  14.866 -0.1977  0.2314 -0.2290
    1DOPC   D2B   10   2.500   9.360  14.510 -0.1826 -0.2246  0.0625
    1DOPC   C3B   11   2.733   8.931  14.433 -0.1212  0.0167  0.1780
    1DOPC   C4B   12   3.006   8.533  14.280 -0.0066 -0.1789 -0.0192
    2DOPC   NC3   13   8.466   4.367  14.032  0.3189  0.1808 -0.2066
    2DOPC   PO4   14   8.714   4.123  14.231 -0.1386 -0.0086  0.1831
    2DOPC   GL1   15   8.643   3.938  13.862  0.1776 -0.2037  0.1252
    2DOPC   GL2   16   8.762   4.163  13.708  0.0496  0.2058 -0.3034
    2DOPC   C1A   17   8.351   4.160  13.473  0.0826 -0.3750  0.0028
    2DOPC   D2A   18   8.130   4.281  13.118  0.1415  0.0304 -0.0271
    2DOPC   C3A   19   8.218   4.612  12.757  0.1278 -0.3947  0.0298
    2DOPC   C4A   20   8.524   4.905  12.897  0.0295  0.0646  0.1879
    2DOPC   C1B   21   8.893   4.139  13.255 -0.0968 -0.0934 -0.1187
    2DOPC   D2B   22   8.919   3.753  13.086 -0.1064 -0.0592 -0.0505
    2DOPC   C3B   23   8.545   3.377  13.049 -0.2402  0.3694  0.2074
    2DOPC   C4B   24   8.500   3.090  12.676 -0.2150 -0.1153 -0.2701
    3DOPE   NH3   25  11.046  10.925  14.995  0.2016  0.0781 -0.2131
    3DOPE   PO4   26  11.349  11.034  15.127  0.2064  0.1336 -0.1357
    3DOPE   GL1   27  11.392  11.134  14.658 -0.2986  0.4293  0.1170
    3DOPE   GL2   28  11.353  11.349  14.566  0.0000  0.2202 -0.1858
    3DOPE   C1A   29  11.034  10.999  14.412  0.0468 -0.1216  0.0079
    3DOPE   D2A   30  10.638  11.117  14.195  0.0913  0.1928 -0.1009
    3DOPE   C3A   31  10.452  10.787  14.017  0.5017  0.0269 -0.2882
    3DOPE   C4A   32  10.111  10.802  13.736  0.1047 -0.0013  0.1586
    3DOPE   C1B   33  11.466  11.193  14.137 -0.1889  0.1703  0.0539
    3DOPE   D2B   34  11.441  10.798  13.855  0.0324  0.0338  0.0375
    3DOPE   C3B   35  11.906  10.720  13.836  0.1456  0.0264 -0.0159
    3DOPE   C4B   36  12.076  10.957  13.422 -0.0209  0.3919  0.1578
    4DOPE   NH3   37   0.887  10.251  15.583  0.1590 -0.0672 -0.2165
    4DOPE   PO4   38   0.840  10.168  15.223 -0.0715 -0.1606 -0.0686
    4DOPE   GL1   39   1.014  10.138  14.864  0.1422  0.1948  0.2254
    4DOPE   GL2   40   1.252  10.347  14.860  0.0986 -0.0518 -0.0718
    4DOPE   C1A   41   0.911  10.177  14.403  0.3906  0.0300  0.1447
    4DOPE   D2A   42   0.918  10.212  13.973 -0.3337  0.1009 -0.0286
    4DOPE   C3A   43   0.617  10.030  13.706 -0.2085  0.1826 -0.1031
    4DOPE   C4A   44   0.323   9.986  13.397 -0.1383 -0.1153 -0.3561
    4DOPE   C1B   45   1.416  10.373  14.471  0.0942 -0.1808  0.2823
    4DOPE   D2B   46   1.447  10.450  14.025 -0.0525 -0.3093  0.0833
    4DOPE   C3B   47   1.857  10.341  13.983  0.2296  0.0495  0.0331
    4DOPE   C4B   48   2.129  10.182  13.692 -0.1836 -0.2768  0.3670
    5DOPC   NC3   49   9.567   8.211  15.275  0.3286 -0.1447  0.2047
    5DOPC   PO4   50   9.597   8.583  15.164  0.2060 -0.1852 -0.1122
    5DOPC   GL1   51   9.615   8.390  14.769  0.4926 -0.0206 -0.4150
    5DOPC   GL2   52   9.496   8.545  14.531 -0.2222  0.2570  0.1890
    5DOPC   C1A   53   9.852   8.144  14.479  0.0047  0.1448  0.0966
    5DOPC   D2A   54   9.855   8.151  14.003 -0.1323 -0.1007  0.1441
    5DOPC   C3A   55   9.986   8.054  13.614  0.1533  0.0465 -0.1479
    5DOPC   C4A   56  10.281   8.095  13.251 -0.0970 -0.2090  0.0516
    5DOPC   C1B   57   9.423   8.617  14.075  0.2940 -0.1248  0.1148
    5DOPC   D2B   58   9.243   8.831  13.645  0.1628 -0.0289 -0.0039
    5DOPC   C3B   59   9.545   8.828  13.335 -0.1134 -0.2316 -0.1391
    5DOPC   C4B   60   9.917   9.107  13.343 -0.2589  0.1614  0.1951
    6DOPC   NC3   61  12.241   9.130  15.172  0.1020 -0.0818 -0.2356
    6DOPC   PO4   62  12.125   8.825  15.073 -0.0592 -0.3682  0.4029
    6DOPC   GL1   63  12.114   8.857  14.700 -0.1547 -0.2624 -0.2829
    6DOPC   GL2   64  12.317   9.028  14.655  0.0813  0.1550  0.1624
    6DOPC   C1A   65  12.221   8.737  14.261  0.1720  0.0115  0.2329
    6DOPC   D2A   66  12.278   8.674  13.822 -0.1174 -0.2763 -0.0057
    6DOPC   C3A   67  11.867   8.651  13.537  0.0233  0.0509  0.0274
    6DOPC   C4A   68  11.772   8.716  13.105  0.0551 -0.2679 -0.1949
    6DOPC   C1B   69  12.486   9.272  14.305  0.1620  0.2407  0.1991
    6DOPC   D2B   70  12.600   9.326  13.853 -0.0981 -0.0927  0.0588
    6DOPC   C3B   71  12.364   9.551  13.530  0.0802 -0.4074 -0.1895
    6DOPC   C4B   72  12.476   9.617  13.092  0.1103 -0.0819 -0.0853
    7POSM   NC3   73   2.257   1.286  14.631  0.0473 -0.0368 -0.1019
    7POSM   PO4   74   1.895   1.455  14.619  0.1413  0.0073  0.3283
    7POSM   AM1   75   1.923   1.454  14.293  0.2972  0.0894 -0.0576
    7POSM   AM2   76   1.938   1.315  14.037 -0.1062 -0.4074 -0.2121
    7POSM   T1A   77   2.103   1.758  13.942  0.1724 -0.2489 -0.1071
    7POSM   C2A   78   2.044   2.234  13.777  0.1488 -0.0800 -0.0912
    7POSM   C3A   79   2.217   2.566  13.495  0.1831 -0.1812 -0.1820
    7POSM   C1B   80   1.915   1.318  13.721 -0.3381  0.0326 -0.0039
    7POSM   D2B   81   1.729   1.382  13.283 -0.0009  0.1487 -0.3789
    7POSM   C3B   82   1.975   1.212  12.900 -0.1649 -0.1133 -0.0073
    7POSM   C4B   83   2.218   1.139  12.471 -0.1891 -0.0860 -0.2925
    8DOPS   CNO   84  10.472  11.471  15.232 -0.0805 -0.4550 -0.0333
    8DOPS   PO4   85  10.723  11.435  14.922  0.0140 -0.1350  0.1614
    8DOPS   GL1   86  10.935  11.580  14.559  0.1580 -0.3707 -0.1272
    8DOPS   GL2   87  11.149  11.776  14.574  0.2023 -0.0140 -0.0397
    8DOPS   C1A   88  11.018  11.395  14.084  0.1761 -0.3366 -0.1058
    8DOPS   D2A   89  11.254  11.240  13.713  0.0390  0.0896  0.2377
    8DOPS   C3A   90  11.149  11.211  13.248 -0.0638  0.0832  0.2805
    8DOPS   C4A   91  11.442  11.259  12.905  0.0144  0.2505 -0.1110
    8DOPS   C1B   92  11.369  11.716  14.173  0.0103 -0.0856  0.2143
    8DOPS   D2B   93  11.627  11.717  13.854  0.0029  0.0398 -0.1481
    8DOPS   C3B   94  11.341  11.836  13.547  0.1821 -0.1086  0.0895
    8DOPS   C4B   95  11.244  11.686  13.114 -0.2110 -0.1084  0.6289
    9DOPC   NC3   96   5.992   2.704  14.985  0.1615 -0.0280 -0.0740
    9DOPC   PO4   97   5.855   3.064  15.118  0.0920  0.0030 -0.0854
    9DOPC   GL1   98   5.903   3.256  14.770  0.0079  0.3531 -0.1557
    9DOPC   GL2   99   5.649   3.246  14.699  0.3012  0.1801  0.2181
    9DOPC   C1A  100   6.172   3.354  14.424  0.1515  0.0579  0.0297
    9DOPC   D2A  101   6.486   3.566  14.195  0.0496 -0.2544 -0.0873
    9DOPC   C3A  102   6.277   3.480  13.728  0.0509  0.1017 -0.2087
    9DOPC   C4A  103   5.826   3.334  13.612  0.1521 -0.1813 -0.3450
    9DOPC   C1B  104   5.762   3.011  14.367 -0.2433  0.0297  0.3845
    9DOPC   D2B  105   5.630   3.087  13.929  0.2199 -0.0108 -0.0164
    9DOPC   C3B  106   5.344   3.504  13.815  0.4161  0.0854 -0.0178
    9DOPC   C4B  107   5.317   3.954  13.647  0.0975  0.2235 -0.2648
   10DOPE   NH3  108   1.242   7.342  15.299  0.1091 -0.0702  0.0646
   10DOPE   PO4  109   1.515   7.448  15.138  0.2314  0.3742  0.0090
   10DOPE   GL1  110   1.584   7.776  14.831 -0.3551 -0.1233 -0.1675
   10DOPE   GL2  111   1.921   7.679  14.877 -0.2590  0.1230  0.2295
   10DOPE   C1A  112   1.681   7.768  14.382 -0.2069 -0.0705 -0.2224
   10DOPE   D2A  113   1.877   7.958  14.006  0.2284  0.0391  0.3582
   10DOPE   C3A  114   2.312   7.983  13.865 -0.0876  0.0106 -0.0239
   10DOPE   C4A  115   2.692   7.802  13.675  0.0542 -0.0550 -0.2403
   10DOPE   C1B  116   2.067   7.477  14.487 -0.1765  0.0233 -0.0243
   10DOPE   D2B  117   2.216   7.510  14.022  0.0965 -0.0143  0.0113
   10DOPE   C3B  118   2.528   7.319  13.755  0.2843  0.1339  0.2446
   10DOPE   C4B  119   2.684   7.100  13.368 -0.0238  0.2017 -0.0490
   11POSM   NC3  120  10.817   8.777  15.333  0.1613  0.0225  0.2486
   11POSM   PO4  121  10.442   8.643  15.189 -0.0204 -0.1388  0.3555
   11POSM   AM1  122  10.275   8.684  14.921 -0.0628 -0.0126 -0.4117
   11POSM   AM2  123   9.998   8.732  14.817  0.1946 -0.1699  0.2326
   11POSM   T1A  124  10.355   9.004  14.527 -0.3261 -0.0729 -0.1899
   11POSM   C2A  125  10.773   9.081  14.337  0.2967 -0.0421  0.1908
   11POSM   C3A  126  11.014   8.867  13.998 -0.1232  0.0700 -0.0957
   11POSM   C1B  127   9.993   8.652  14.476  0.1862 -0.2965 -0.1890
   11POSM   D2B  128  10.066   8.690  14.045  0.1235 -0.4454 -0.3650
   11POSM   C3B  129  10.331   8.464  13.711  0.0484 -0.0723 -0.2123
   11POSM   C4B  130  10.585   8.503  13.348 -0.1278  0.2185 -0.1383
   12DOPS   CNO  131   3.961  11.249  15.583 -0.1280  0.2336 -0.8391
   12DOPS   PO4  132   4.064  11.325  15.227 -0.0029  0.0821  0.0090
   12DOPS   GL1  133   3.920  11.352  14.840 -0.2442  0.4121  0.3379
   12DOPS   GL2  134   3.722  11.144  14.893  0.1619  0.0905 -0.0419
   12DOPS   C1A  135   4.013  11.407  14.408  0.2186 -0.1351 -0.1387
   12DOPS   D2A  136   4.039  11.252  13.941 -0.1158  0.0173 -0.0255
   12DOPS   C3A  137   3.760  11.338  13.622 -0.1103  0.3105 -0.0189
   12DOPS   C4A  138   3.386  11.126  13.516 -0.0485  0.2124  0.0723
   12DOPS   C1B  139   3.664  11.021  14.472  0.1639  0.1497  0.1478
   12DOPS   D2B  140   3.594  10.901  14.052 -0.1099  0.0541  0.2857
   12DOPS   C3B  141   3.093  10.795  13.824 -0.3006  0.0431 -0.3308
   12DOPS   C4B  142   2.748  10.669  13.544 -0.2142  0.1530 -0.0576
   13DOPC   NC3  143  10.719   3.136  14.505  0.0453  0.1848 -0.1536
   13DOPC   PO4  144  10.865   3.456  14.755  0.2005 -0.0601 -0.1100
   13DOPC   GL1  145  11.071   3.586  14.333 -0.1973  0.0086 -0.2674
   13DOPC   GL2  146  11.006   3.340  14.193 -0.0426 -0.3932  0.2176
   13DOPC   C1A  147  11.348   3.685  13.918  0.1641  0.2326  0.1168
   13DOPC   D2A  148  11.469   3.932  13.577 -0.3263  0.1381  0.0757
   13DOPC   C3A  149  11.828   3.762  13.341  0.1262  0.1368  0.1780
   13DOPC   C4A  150  12.210   3.854  13.118 -0.0794 -0.1931 -0.0730
   13DOPC   C1B  151  10.949   2.883  14.029 -0.0942  0.0734 -0.2468
   13DOPC   D2B  152  10.762   2.719  13.600  0.1245 -0.0386 -0.0778
   13DOPC   C3B  153  10.825   2.854  13.137 -0.4272 -0.1174  0.0321
   13DOPC   C4B  154  11.115   3.114  12.817 -0.2486 -0.2939 -0.0313
   14DOPE   NH3  155  11.138   3.906  14.822  0.1573  0.0905  0.3768
   14DOPE   PO4  156  11.273   3.973  14.562  0.2461  0.1102  0.2948
   14DOPE   GL1  157  11.179   4.224  14.285  0.2183  0.2710 -0.1333
   14DOPE   GL2  158  11.045   4.037  14.071  0.0934 -0.0850  0.1199
   14DOPE   C1A  159  11.435   4.611  14.243 -0.2910 -0.2965  0.1708
   14DOPE   D2A  160  11.835   4.743  13.991 -0.1254  0.1117 -0.0023
   14DOPE   C3A  161  11.678   5.066  13.639 -0.0897  0.1380  0.2514
   14DOPE   C4A  162  11.634   5.258  13.233  0.0139 -0.0639 -0.0941
   14DOPE   C1B  163  11.118   4.276  13.706  0.1373 -0.1658 -0.1390
   14DOPE   D2B  164  11.181   4.405  13.308 -0.0216  0.1463 -0.1138
   14DOPE   C3B  165  10.887   4.321  12.968 -0.0320 -0.1873  0.2361
   14DOPE   C4B  166  10.394   4.164  12.920  0.0154 -0.2830 -0.2591
   15DOPE   NH3  167   6.220   4.019  15.122 -0.0229 -0.2962 -0.2969
   15DOPE   PO4  168   6.494   4.020  15.064 -0.1578  0.0489 -0.1066
   15DOPE   GL1  169   6.649   4.071  14.638 -0.0498  0.2806 -0.3463
   15DOPE   GL2  170   6.407   4.210  14.573 -0.0617  0.2284  0.1092
   15DOPE   C1A  171   6.813   4.200  14.182 -0.1834  0.1911 -0.0545
   15DOPE   D2A  172   6.743   4.511  13.815  0.1064 -0.0805  0.0916
   15DOPE   C3A  173   6.839   4.244  13.445 -0.0061 -0.3345 -0.1364
   15DOPE   C4A  174   6.949   3.942  13.123 -0.1083 -0.1458  0.0617
   15DOPE   C1B  175   6.240   4.552  14.422  0.3721 -0.0390 -0.0352
   15DOPE   D2B  176   5.793   4.497  14.294  0.0360 -0.3172 -0.0370
   15DOPE   C3B  177   5.682   4.294  13.943  0.0752  0.0402  0.0140
   15DOPE   C4B  178   5.595   4.289  13.493 -0.0864  0.1886  0.0507
   16DOPC   NC3  179   8.785   9.123  15.229 -0.1915  0.1837  0.1383
   16DOPC   PO4  180   8.764   8.758  15.144 -0.0887 -0.0423  0.1144
   16DOPC   GL1  181   8.879   9.009  14.746  0.3733 -0.0350 -0.0570
   16DOPC   GL2  182   8.766   8.975  14.503  0.3203  0.0895 -0.1564
   16DOPC   C1A  183   9.236   8.914  14.423  0.1383  0.2281  0.1955
   16DOPC   D2A  184   9.422   9.112  14.069 -0.1036  0.2216  0.3511
   16DOPC   C3A  185   9.699   8.962  13.769  0.0386  0.0713 -0.0991
   16DOPC   C4A  186   9.827   8.515  13.648 -0.2306 -0.4135  0.0260
   16DOPC   C1B  187   8.367   8.928  14.301 -0.0237  0.0548 -0.1512
   16DOPC   D2B  188   8.054   8.759  14.027  0.0644 -0.0667  0.4128
   16DOPC   C3B  189   8.001   8.895  13.643 -0.1518  0.2165  0.0412
   16DOPC   C4B  190   7.801   9.278  13.405 -0.0648  0.0382  0.1332
   17POSM   NC3  191  12.300   8.077  15.099 -0.1290 -0.0619 -0.2346
   17POSM   PO4  192  11.996   8.336  15.041 -0.0428  0.1273 -0.0812
   17POSM   AM1  193  11.830   8.166  14.797 -0.1999  0.0579 -0.1617
   17POSM   AM2  194  11.575   8.113  14.683  0.3714  0.0704  0.1098
   17POSM   T1A  195  11.939   7.921  14.380 -0.1304  0.4890 -0.3631
   17POSM   C2A  196  12.281   8.113  14.051  0.2000 -0.4216  0.0211
   17POSM   C3A  197  12.273   8.167  13.590  0.0838 -0.4645  0.2871
   17POSM   C1B  198  11.355   8.212  14.399  0.0691  0.2407 -0.2291
   17POSM   D2B  199  11.390   8.511  14.006 -0.2599  0.0128  0.2522
   17POSM   C3B  200  11.357   8.439  13.558 -0.1726  0.0905 -0.1727
   17POSM   C4B  201  11.161   8.166  13.277  0.2721  0.1793  0.0460
   18DOPE   NH3  202   1.430   8.984  15.273 -0.0051 -0.0792 -0.1617
   18DOPE   PO4  203   1.267   9.244  15.337 -0.5430 -0.4863 -0.0727
   18DOPE   GL1  204   1.379   9.396  14.917  0.1112  0.5606  0.1483
   18DOPE   GL2  205   1.402   9.289  14.692  0.0513  0.1410  0.0397
   18DOPE   C1A  206   1.697   9.634  14.720  0.0862 -0.3596  0.1530
   18DOPE   D2A  207   2.032   9.715  14.374  0.1607  0.0687  0.1076
   18DOPE   C3A  208   2.132   9.552  13.954 -0.2541 -0.0576 -0.1110
   18DOPE   C4A  209   2.245   9.767  13.535 -0.2043 -0.3238 -0.1781
   18DOPE   C1B  210   1.551   9.007  14.358 -0.4946  0.2290  0.0112
   18DOPE   D2B  211   1.691   8.919  13.964  0.1523 -0.0657  0.1763
   18DOPE   C3B  212   1.716   8.822  13.470 -0.0528 -0.0203 -0.1351
   18DOPE   C4B  213   1.995   8.741  13.087  0.2732  0.1015 -0.1080
   19DOPS   CNO  214   4.254   3.056  15.206  0.0364 -0.2617 -0.1569
   19DOPS   PO4  215   4.119   3.353  15.047  0.4249  0.0247 -0.0165
   19DOPS   GL1  216   4.087   3.532  14.682 -0.0337 -0.4872  0.0542
   19DOPS   GL2  217   4.123   3.786  14.745  0.0550 -0.0437 -0.2267
   19DOPS   C1A  218   4.357   3.636  14.294  0.1276  0.0657  0.1449
   19DOPS   D2A  219   4.431   3.539  13.833  0.0587  0.0020  0.1535
   19DOPS   C3A  220   4.448   3.371  13.435 -0.0795  0.4128 -0.2278
   19DOPS   C4A  221   4.197   3.132  13.186  0.3518  0.2060  0.1261
   19DOPS   C1B  222   3.907   3.972  14.372 -0.0360 -0.3637 -0.0428
   19DOPS   D2B  223   3.633   4.007  14.037 -0.0434 -0.0137  0.0581
   19DOPS   C3B  224   3.175   3.846  13.931 -0.2790  0.3118  0.0459
   19DOPS   C4B  225   2.861   3.529  14.023  0.2583 -0.0671 -0.1004
   20POSM   NC3  226   7.494   7.391  14.889 -0.0234  0.0296 -0.1354
   20POSM   PO4  227   7.768   7.564  14.725 -0.1654 -0.2338  0.0922
   20POSM   AM1  228   7.804   7.618  14.396 -0.1625  0.1620 -0.0286
   20POSM   AM2  229   7.954   7.811  14.275  0.1540 -0.0332 -0.0904
   20POSM   T1A  230   7.676   7.395  13.959  0.0060  0.0419 -0.1268
   20POSM   C2A  231   7.779   7.666  13.615 -0.2160 -0.2562  0.0655
   20POSM   C3A  232   7.654   7.689  13.171  0.1416  0.1746 -0.2488
   20POSM   C1B  233   8.118   7.695  14.016 -0.1009  0.0084  0.1113
   20POSM   D2B  234   8.459   7.626  13.724  0.1893 -0.1306 -0.1452
   20POSM   C3B  235   8.659   7.945  13.510  0.2654 -0.0974 -0.1545
   20POSM   C4B  236   8.993   7.982  13.258  0.3193 -0.1918 -0.1537
   21POSM   NC3  237   3.836   6.887  15.069 -0.3258 -0.1957 -0.2501
   21POSM   PO4  238   3.982   7.224  15.270  0.0192 -0.1218  0.3593
   21POSM   AM1  239   4.084   7.425  15.009  0.0478  0.0358 -0.2026
   21POSM   AM2  240   4.312   7.616  14.982  0.2650 -0.0215  0.2550
   21POSM   T1A  241   4.025   7.651  14.537 -0.0013 -0.2092 -0.1374
   21POSM   C2A  242   3.689   7.751  14.233 -0.2528 -0.0134 -0.1932
   21POSM   C3A  243   3.671   7.602  13.816  0.0490  0.1836  0.0225
   21POSM   C1B  244   4.483   7.476  14.670 -0.0680  0.2494 -0.2827
   21POSM   D2B  245   4.559   7.143  14.405 -0.1647 -0.0355 -0.3274
   21POSM   C3B  246   4.834   7.048  14.050  0.2974 -0.0800 -0.0300
   21POSM   C4B  247   5.204   6.813  13.926  0.0768  0.3011 -0.5417
   22DOPC   NC3  248   1.756   0.084  13.751  0.0504 -0.1869 -0.0405
   22DOPC   PO4  249   2.102  -0.071  13.967  0.2521 -0.0443  0.0653
   22DOPC   GL1  250   2.185   0.058  13.599  0.1959  0.0994 -0.0932
   22DOPC   GL2  251   2.134   0.353  13.661  0.3115 -0.0169  0.0921
   22DOPC   C1A  252   1.987   0.181  13.222 -0.0233 -0.0591 -0.1195
   22DOPC   D2A  253   1.722   0.362  12.872  0.0634  0.1291 -0.0086
   22DOPC   C3A  254   1.332   0.673  12.835 -0.0900  0.2869  0.3174
   22DOPC   C4A  255   1.062   0.877  12.498  0.0719 -0.0131  0.5876
   22DOPC   C1B  256   2.449   0.263  13.328  0.2333 -0.1902  0.2433
   22DOPC   D2B  257   2.426   0.337  12.869  0.4218 -0.0467  0.1849
   22DOPC   C3B  258   2.639   0.695  12.730 -0.1606  0.2665  0.0313
   22DOPC   C4B  259   2.685   1.075  12.404  0.0936 -0.1174  0.0386
   23DOPS   CNO  260   8.535   2.791  14.494 -0.1164  0.2730 -0.0003
   23DOPS   PO4  261   8.419   2.476  14.671 -0.4511  0.2913  0.1635
   23DOPS   GL1  262   8.355   2.506  14.185 -0.0104 -0.2362  0.0278
   23DOPS   GL2  263   8.555   2.402  14.041 -0.3337 -0.0248 -0.2305
   23DOPS   C1A  264   8.116   2.409  13.798 -0.1714 -0.2556 -0.3245
   23DOPS   D2A  265   8.311   2.186  13.406  0.1283 -0.0040 -0.0646
   23DOPS   C3A  266   8.693   2.054  13.539  0.1015 -0.0349 -0.5207
   23DOPS   C4A  267   8.777   1.677  13.344  0.1150  0.2542 -0.3483
   23DOPS   C1B  268   8.591   2.517  13.640  0.1394 -0.1715 -0.0533
   23DOPS   D2B  269   8.896   2.428  13.303 -0.0900 -0.0604  0.0504
   23DOPS   C3B  270   8.650   2.341  12.882  0.0627  0.1794 -0.2805
   23DOPS   C4B  271   8.620   1.947  12.650  0.1078  0.0776 -0.0174
   24DOPE   NH3  272  10.731  10.129  15.060 -0.2583 -0.2257  0.3090
   24DOPE   PO4  273  10.890  10.431  15.039  0.0399  0.0787 -0.1042
   24DOPE   GL1  274  11.061  10.508  14.687  0.4767  0.4921 -0.2185
   24DOPE   GL2  275  11.355  10.664  14.739 -0.0556  0.1159 -0.0887
   24DOPE   C1A  276  11.316  10.362  14.327 -0.0575 -0.0752  0.0315
   24DOPE   D2A  277  11.601  10.299  13.937 -0.1245  0.1429 -0.3218
   24DOPE   C3A  278  11.570  10.504  13.494 -0.0412  0.0037  0.1371
   24DOPE   C4A  279  11.573  10.927  13.296 -0.1398 -0.1224  0.0147
   24DOPE   C1B  280  11.649  10.726  14.378 -0.1226  0.2078  0.1483
   24DOPE   D2B  281  11.945  11.053  14.238  0.0786  0.0405  0.1881
   24DOPE   C3B  282  11.757  11.174  13.765  0.0868 -0.0128 -0.2385
   24DOPE   C4B  283  11.613  11.406  13.383  0.1609  0.0626 -0.0079
   25POSM   NC3  284  13.660   7.159  15.142 -0.0106  0.1451 -0.3244
   25POSM   PO4  285  13.293   7.286  15.174  0.1211  0.0334 -0.0721
   25POSM   AM1  286  13.336   7.326  14.851 -0.4591 -0.0133 -0.0646
   25POSM   AM2  287  13.231   7.460  14.645 -0.0689 -0.2835  0.0466
   25POSM   T1A  288  13.356   7.046  14.444  0.0041  0.0488 -0.0772
   25POSM   C2A  289  13.582   6.671  14.365 -0.0710 -0.1218 -0.2767
   25POSM   C3A  290  13.874   6.640  13.974  0.0645  0.0909 -0.0291
   25POSM   C1B  291  13.429   7.491  14.351  0.2355 -0.1329  0.3663
   25POSM   D2B  292  13.431   7.433  13.899  0.2418 -0.1804  0.2038
   25POSM   C3B  293  13.506   7.754  13.580  0.1334  0.1430 -0.0441
   25POSM   C4B  294  13.601   7.771  13.149  0.2400  0.1764  0.1047
   26POSM   NC3  295   7.339   1.782  14.758 -0.1079  0.1154 -0.0844
   26POSM   PO4  296   7.676   1.711  14.533 -0.0995 -0.0302  0.3621
   26POSM   AM1  297   7.687   1.621  14.192 -0.4187 -0.3728  0.1832
   26POSM   AM2  298   7.796   1.777  13.989 -0.2865  0.1598  0.2131
   26POSM   T1A  299   7.794   1.326  13.798 -0.2923  0.0288 -0.0367
   26POSM   C2A  300   8.145   1.116  13.546  0.0116 -0.2995 -0.0605
   26POSM   C3A  301   8.490   1.177  13.231 -0.2056 -0.2218 -0.0892
   26POSM   C1B  302   7.861   2.000  13.661  0.1341 -0.1660  0.2203
   26POSM   D2B  303   7.871   2.120  13.165  0.1776  0.1422 -0.1537
   26POSM   C3B  304   8.154   2.482  12.986 -0.0694  0.0372  0.1077
   26POSM   C4B  305   8.362   2.604  12.600 -0.1266 -0.1600 -0.0139
   27DOPC   NC3  306   1.523   8.060  15.157  0.1141  0.0994  0.0893
   27DOPC   PO4  307   1.921   8.114  15.172 -0.0133  0.1050  0.0554
   27DOPC   GL1  308   2.049   8.142  14.824 -0.2724 -0.3580  0.1435
   27DOPC   GL2  309   2.360   8.131  14.793 -0.1017  0.1396 -0.1280
   27DOPC   C1A  310   2.065   8.202  14.388 -0.4567 -0.0141  0.0179
   27DOPC   D2A  311   2.008   8.440  13.981  0.0743  0.0685 -0.0605
   27DOPC   C3A  312   1.934   8.300  13.549  0.0244 -0.2411  0.3224
   27DOPC   C4A  313   2.119   8.169  13.164 -0.1988  0.0579 -0.2035
   27DOPC   C1B  314   2.443   7.749  14.573  0.0112 -0.0763  0.0927
   27DOPC   D2B  315   2.673   7.665  14.213 -0.1035 -0.0257  0.1005
   27DOPC   C3B  316   3.165   7.773  14.145 -0.2357  0.0082 -0.4274
   27DOPC   C4B  317   3.363   8.100  13.960  0.0263  0.4542  0.3081
   28DOPC   NC3  318   2.178   3.377  14.520 -0.0018 -0.0206  0.0155
   28DOPC   PO4  319   2.143   3.730  14.430 -0.0726 -0.0585 -0.1361
   28DOPC   GL1  320   1.963   3.701  14.101 -0.0687 -0.2699 -0.0670
   28DOPC   GL2  321   1.712   3.901  14.148  0.1405 -0.2496  0.2016
   28DOPC   C1A  322   1.874   3.313  13.850 -0.0057  0.0344  0.2018
   28DOPC   D2A  323   2.239   3.048  13.671  0.1420 -0.1770  0.0138
   28DOPC   C3A  324   2.650   3.213  13.624  0.1762  0.0169 -0.2435
   28DOPC   C4A  325   2.849   3.565  13.454  0.1039 -0.0011 -0.0365
   28DOPC   C1B  326   1.772   3.803  13.691  0.0100  0.1071 -0.0377
   28DOPC   D2B  327   1.791   3.728  13.246  0.1187  0.0463  0.1957
   28DOPC   C3B  328   2.175   3.904  13.085 -0.2123 -0.0893 -0.0580
   28DOPC   C4B  329   2.339   4.289  12.937  0.3337 -0.0844  0.4317
   29POSM   NC3  330   3.916   2.660  15.223  0.0277 -0.1494  0.3564
   29POSM   PO4  331   3.583   2.678  15.036 -0.0233  0.0256 -0.0928
   29POSM   AM1  332   3.768   2.830  14.797 -0.0091 -0.3268  0.0742
   29POSM   AM2  333   3.847   3.105  14.658 -0.3252  0.1891  0.0093
   29POSM   T1A  334   3.960   2.725  14.311 -0.1034  0.0667 -0.1186
   29POSM   C2A  335   4.142   3.040  13.996  0.0851 -0.1678 -0.0745
   29POSM   C3A  336   3.964   3.294  13.639 -0.0060  0.2426 -0.0103
   29POSM   C1B  337   3.886   3.277  14.385  0.3295  0.2759  0.4485
   29POSM   D2B  338   3.932   3.613  13.989 -0.0433 -0.0726 -0.0061
   29POSM   C3B  339   3.669   3.780  13.623 -0.0930  0.2206 -0.3446
   29POSM   C4B  340   3.372   3.963  13.327 -0.3027  0.1312 -0.2479
   30POSM   NC3  341  12.642   4.253  15.305  0.1410  0.2246 -0.0270
   30POSM   PO4  342  12.462   4.234  14.940  0.2739  0.1065 -0.0693
   30POSM   AM1  343  12.494   4.328  14.613  0.2030 -0.1507 -0.0719
   30POSM   AM2  344  12.646   4.526  14.468 -0.1233 -0.1774  0.0359
   30POSM   T1A  345  12.380   4.256  14.107 -0.0654  0.0318 -0.2230
   30POSM   C2A  346  12.083   4.281  13.773 -0.1862 -0.0889  0.0081
   30POSM   C3A  347  11.813   4.251  13.403  0.0371 -0.0991  0.0190
   30POSM   C1B  348  12.860   4.548  14.207  0.0526  0.0480  0.0211
   30POSM   D2B  349  13.113   4.408  13.822  0.1844 -0.1517  0.1610
   30POSM   C3B  350  12.984   4.217  13.451 -0.0388 -0.2137 -0.4377
   30POSM   C4B  351  12.679   3.897  13.311 -0.1293  0.0932  0.2069
   31DOPE   NH3  352   8.429  10.373  15.329  0.3048  0.0726  0.0348
   31DOPE   PO4  353   8.481  10.101  15.181 -0.0644  0.2680 -0.1202
   31DOPE   GL1  354   8.847  10.090  14.938  0.1849  0.3509  0.4066
   31DOPE   GL2  355   9.008   9.958  14.662  0.4012 -0.2817  0.0326
   31DOPE   C1A  356   8.731  10.364  14.551 -0.1379 -0.2433  0.2389
   31DOPE   D2A  357   8.494  10.762  14.548  0.2320  0.2602 -0.0265
   31DOPE   C3A  358   8.341  10.993  14.140 -0.0458 -0.0327 -0.0335
   31DOPE   C4A  359   8.315  10.914  13.660 -0.0133 -0.1707 -0.1179
   31DOPE   C1B  360   8.719   9.964  14.282 -0.3870  0.0098 -0.2278
   31DOPE   D2B  361   8.755  10.160  13.832 -0.2322  0.5201  0.0703
   31DOPE   C3B  362   9.108   9.857  13.609 -0.3385  0.0001  0.1563
   31DOPE   C4B  363   9.470   9.997  13.319  0.2468  0.0158  0.0066
   32DOPC   NC3  364   2.174   7.276  15.100 -0.1811 -0.2957  0.1447
   32DOPC   PO4  365   2.510   7.249  15.294 -0.0008 -0.3460  0.1146
   32DOPC   GL1  366   2.607   7.137  14.940  0.1534 -0.2583  0.3636
   32DOPC   GL2  367   2.616   7.364  14.797  0.1460 -0.0539 -0.0238
   32DOPC   C1A  368   2.667   7.024  14.479  0.2427  0.1258 -0.0840
   32DOPC   D2A  369   2.768   6.732  14.134 -0.0396 -0.0513 -0.0541
   32DOPC   C3A  370   2.919   6.842  13.751 -0.1341  0.0769 -0.0358
   32DOPC   C4A  371   3.188   7.021  13.357  0.0601  0.1035 -0.2210
   32DOPC   C1B  372   2.974   7.427  14.575 -0.0221  0.1620 -0.1513
   32DOPC   D2B  373   3.350   7.687  14.651  0.0419  0.2008 -0.0217
   32DOPC   C3B  374   3.483   8.130  14.485  0.0119 -0.0077 -0.0613
   32DOPC   C4B  375   3.768   8.356  14.186  0.1828  0.0164 -0.0428
   33DOPE   NH3  376   7.824   6.718  14.972  0.2046 -0.1288  0.0261
   33DOPE   PO4  377   7.804   7.022  14.835  0.0287  0.1120  0.2152
   33DOPE   GL1  378   7.826   7.166  14.537  0.1728 -0.0145 -0.1682
   33DOPE   GL2  379   7.535   7.179  14.413  0.0909 -0.0307  0.2727
   33DOPE   C1A  380   7.843   6.865  14.154  0.0159 -0.1761 -0.1259
   33DOPE   D2A  381   7.803   6.697  13.729 -0.0886 -0.3106  0.1996
   33DOPE   C3A  382   7.982   6.894  13.362  0.0731 -0.2285  0.1009
   33DOPE   C4A  383   8.069   7.047  12.951  0.0584  0.1821  0.0938
   33DOPE   C1B  384   7.323   6.866  14.148 -0.0362  0.0702  0.0899
   33DOPE   D2B  385   7.241   6.584  13.819  0.1925  0.2400  0.0801
   33DOPE   C3B  386   7.502   6.664  13.368 -0.2059 -0.0358  0.2921
   33DOPE   C4B  387   7.294   6.755  12.965 -0.1702  0.0203 -0.0875
   34DOPE   NH3  388   9.725   2.382  14.485  0.0579  0.1090  0.0229
   34DOPE   PO4  389   9.755   2.099  14.528  0.2076  0.4091  0.1442
   34DOPE   GL1  390  10.007   2.147  14.225 -0.0130  0.3047 -0.0664
   34DOPE   GL2  391  10.165   2.392  14.146  0.3239 -0.2200  0.1392
   34DOPE   C1A  392   9.835   2.258  13.809 -0.2038  0.0549 -0.0398
   34DOPE   D2A  393   9.985   2.240  13.360  0.0318 -0.3449 -0.0153
   34DOPE   C3A  394  10.291   1.989  13.239  0.1024  0.1093 -0.1071
   34DOPE   C4A  395  10.358   1.592  12.994  0.2240 -0.0094 -0.0401
   34DOPE   C1B  396  10.303   2.627  13.732  0.2238  0.0813  0.2536
   34DOPE   D2B  397  10.385   2.582  13.264 -0.3953 -0.0815  0.1917
   34DOPE   C3B  398  10.265   2.355  12.911 -0.0755 -0.1947 -0.2509
   34DOPE   C4B  399  10.471   2.174  12.562 -0.1360 -0.1242 -0.0025
   35DOPE   NH3  400   5.417   2.835  15.139  0.0152  0.1613  0.1177
   35DOPE   PO4  401   5.267   2.946  14.867  0.2080 -0.0909  0.2273
   35DOPE   GL1  402   5.280   3.057  14.490  0.1537 -0.0803  0.2992
   35DOPE   GL2  403   4.973   2.999  14.482  0.0532  0.2007 -0.3417
   35DOPE   C1A  404   5.488   3.413  14.250 -0.0489 -0.1087 -0.1042
   35DOPE   D2A  405   5.876   3.596  14.073  0.0494  0.1160 -0.0630
   35DOPE   C3A  406   5.753   3.789  13.682 -0.0610  0.2975 -0.0470
   35DOPE   C4A  407   5.721   3.825  13.194 -0.0645 -0.1027 -0.0482
   35DOPE   C1B  408   5.150   3.035  14.025 -0.1511 -0.0777  0.1870
   35DOPE   D2B  409   5.106   3.124  13.564  0.0391  0.2105 -0.1057
   35DOPE   C3B  410   5.167   2.816  13.219  0.1324 -0.0679 -0.0505
   35DOPE   C4B  411   5.447   2.683  12.906  0.2776  0.1700 -0.2873
   36DOPS   CNO  412   2.336   2.503  14.823 -0.1517 -0.0604  0.1520
   36DOPS   PO4  413   2.250   2.871  14.601 -0.0575  0.1085 -0.0264
   36DOPS   GL1  414   2.548   2.587  14.415  0.0146  0.1109 -0.1488
   36DOPS   GL2  415   2.786   2.882  14.317 -0.1102 -0.0258 -0.1107
   36DOPS   C1A  416   2.597   2.672  13.948  0.0048  0.3624 -0.3901
   36DOPS   D2A  417   2.736   2.696  13.553 -0.1623  0.0946 -0.1654
   36DOPS   C3A  418   2.464   2.964  13.182  0.1982 -0.0703  0.0262
   36DOPS   C4A  419   2.405   3.072  12.730 -0.0140  0.0530 -0.0745
   36DOPS   C1B  420   2.487   3.137  14.085  0.0450 -0.1204 -0.0578
   36DOPS   D2B  421   2.342   3.540  13.982  0.0158  0.1718 -0.0184
   36DOPS   C3B  422   2.296   3.592  13.575  0.0542  0.2692  0.0263
   36DOPS   C4B  423   2.148   3.347  13.134  0.0053 -0.0244  0.1530
   37DOPE   NH3  424   7.396   8.633  14.851  0.0116 -0.0426 -0.2055
   37DOPE   PO4  425   7.335   8.343  14.828  0.1730  0.1091  0.0521
   37DOPE   GL1  426   7.431   8.086  14.522  0.1618 -0.1031  0.1477
   37DOPE   GL2  427   7.350   7.842  14.557  0.0792 -0.0942 -0.3054
   37DOPE   C1A  428   7.505   7.972  14.090 -0.0118  0.1479 -0.0784
   37DOPE   D2A  429   7.342   8.009  13.677 -0.0448  0.1348 -0.0797
   37DOPE   C3A  430   7.466   8.290  13.349  0.0189  0.0226 -0.2137
   37DOPE   C4A  431   7.708   8.515  13.652 -0.0363 -0.1732  0.1002
   37DOPE   C1B  432   7.251   7.539  14.236  0.2228 -0.3238  0.1318
   37DOPE   D2B  433   7.186   7.317  13.831 -0.0443  0.3971  0.1217
   37DOPE   C3B  434   7.391   7.171  13.465  0.1928 -0.1984 -0.1880
   37DOPE   C4B  435   7.572   7.187  13.071 -0.2179  0.1868 -0.1875
   38DOPE   NH3  436   3.343   7.658  15.440  0.1001  0.0201  0.0873
   38DOPE   PO4  437   3.243   7.476  15.194 -0.0827 -0.1270 -0.1238
   38DOPE   GL1  438   3.401   7.150  14.893 -0.0085  0.0317  0.1838
   38DOPE   GL2  439   3.624   7.330  14.922 -0.0955  0.3419  0.3508
   38DOPE   C1A  440   3.178   7.006  14.487 -0.0672 -0.1516  0.2069
   38DOPE   D2A  441   2.937   7.229  14.086  0.3189 -0.0184  0.0002
   38DOPE   C3A  442   3.078   7.374  13.678 -0.2120 -0.1960  0.1146
   38DOPE   C4A  443   2.941   7.492  13.306 -0.2942 -0.1666  0.1703
   38DOPE   C1B  444   3.704   7.303  14.477 -0.2207  0.0927  0.4869
   38DOPE   D2B  445   3.995   7.238  14.188 -0.0487  0.0086  0.2394
   38DOPE   C3B  446   4.215   7.647  14.030 -0.3027  0.1641 -0.1009
   38DOPE   C4B  447   4.609   7.797  14.244  0.3264  0.2401  0.0024
   39POSM   NC3  448   3.854   4.356  15.340  0.0478 -0.2430  0.1397
   39POSM   PO4  449   3.779   4.706  15.449 -0.0186 -0.0920 -0.1034
   39POSM   AM1  450   3.746   4.832  15.126  0.1276  0.1359 -0.1684
   39POSM   AM2  451   3.611   4.647  14.918 -0.1402 -0.2292  0.0553
   39POSM   T1A  452   3.999   5.089  14.813  0.1190 -0.1209  0.3220
   39POSM   C2A  453   4.381   5.159  14.525  0.1340  0.3175 -0.0036
   39POSM   C3A  454   4.671   5.168  14.188  0.1241 -0.1161  0.0518
   39POSM   C1B  455   3.681   4.769  14.599 -0.0059  0.3617 -0.3146
   39POSM   D2B  456   3.558   4.984  14.232 -0.2037  0.0725 -0.0991
   39POSM   C3B  457   3.796   4.777  13.860 -0.2250 -0.2458 -0.3232
   39POSM   C4B  458   4.220   4.736  13.669  0.1588  0.1944 -0.0794
   40POSM   NC3  459   3.205   3.826  14.883 -0.1284 -0.0474  0.2880
   40POSM   PO4  460   2.973   3.693  14.608  0.0939  0.4763 -0.2481
   40POSM   AM1  461   3.002   3.970  14.432  0.2271 -0.3558  0.1347
   40POSM   AM2  462   3.262   4.108  14.399 -0.0694 -0.1585 -0.3785
   40POSM   T1A  463   2.934   4.239  14.031  0.2188 -0.2366  0.2367
   40POSM   C2A  464   3.027   4.207  13.620  0.1335  0.0109 -0.1663
   40POSM   C3A  465   3.113   4.355  13.193 -0.0231 -0.0470 -0.1974
   40POSM   C1B  466   3.540   4.263  14.442 -0.2967 -0.2360 -0.3079
   40POSM   D2B  467   3.937   4.463  14.301 -0.3514 -0.2445  0.0607
   40POSM   C3B  468   4.358   4.676  14.213  0.0541  0.0158 -0.0989
   40POSM   C4B  469   4.667   4.462  13.960 -0.0373  0.3381 -0.1512
   41DOPC   NC3  470   7.028   4.191  15.245 -0.0889 -0.0956  0.0123
   41DOPC   PO4  471   6.831   4.394  14.979 -0.1220  0.1781 -0.1220
   41DOPC   GL1  472   6.813   4.583  14.577 -0.4558 -0.0467 -0.0612
   41DOPC   GL2  473   7.059   4.491  14.462  0.1800  0.1445  0.2455
   41DOPC   C1A  474   6.768   4.914  14.278 -0.0098 -0.2056  0.2261
   41DOPC   D2A  475   6.623   5.063  13.825  0.1563  0.0747 -0.3471
   41DOPC   C3A  476   6.278   4.912  13.573  0.1074 -0.3453 -0.0595
   41DOPC   C4A  477   5.815   4.749  13.513 -0.0042 -0.2085  0.1212
   41DOPC   C1B  478   7.171   4.571  14.033 -0.1279  0.0232 -0.0167
   41DOPC   D2B  479   7.360   4.885  13.815  0.0978 -0.0998 -0.0621
   41DOPC   C3B  480   7.789   4.699  13.842 -0.5071 -0.1125  0.0790
   41DOPC   C4B  481   7.998   4.316  13.755  0.2681 -0.2851  0.0891
   42DOPC   NC3  482   3.758   7.797  14.941  0.0726  0.0930 -0.0725
   42DOPC   PO4  483   4.070   7.959  15.122 -0.0151  0.0772 -0.1395
   42DOPC   GL1  484   4.175   8.254  14.879 -0.1682 -0.0111  0.2399
   42DOPC   GL2  485   4.294   8.025  14.662 -0.1740  0.1123  0.0815
   42DOPC   C1A  486   4.180   8.550  14.557 -0.0236  0.0237 -0.0329
   42DOPC   D2A  487   4.213   8.641  14.125  0.0918  0.3635  0.0100
   42DOPC   C3A  488   3.804   8.837  14.091 -0.0982  0.2059  0.2612
   42DOPC   C4A  489   3.420   8.678  13.902 -0.3377 -0.1535  0.2662
   42DOPC   C1B  490   4.210   8.132  14.232 -0.1570 -0.3519  0.0628
   42DOPC   D2B  491   3.930   8.028  13.872 -0.3633  0.0083  0.0771
   42DOPC   C3B  492   4.175   8.161  13.492 -0.1592 -0.3352 -0.0277
   42DOPC   C4B  493   4.612   8.365  13.417  0.0918 -0.1897 -0.2610
   43POSM   NC3  494   2.631  11.354  15.690  0.0685  0.1867  0.3350
   43POSM   PO4  495   2.293  11.324  15.461  0.2646 -0.4648 -0.0556
   43POSM   AM1  496   2.262  11.278  15.171  0.1628 -0.0527 -0.2331
   43POSM   AM2  497   2.033  11.270  14.975  0.1541  0.0800 -0.1889
   43POSM   T1A  498   2.398  11.284  14.684 -0.0373 -0.2745 -0.1053
   43POSM   C2A  499   2.295  11.446  14.200 -0.2666  0.3133  0.3408
   43POSM   C3A  500   2.088  11.226  13.822  0.2376 -0.2981 -0.0703
   43POSM   C1B  501   2.119  10.932  14.819  0.1996  0.1831  0.0859
   43POSM   D2B  502   2.313  10.590  14.750  0.1582 -0.0066 -0.1435
   43POSM   C3B  503   2.675  10.381  14.479  0.2712 -0.0204  0.2430
   43POSM   C4B  504   2.765  10.469  14.063 -0.0751  0.1338  0.2197
   44DOPC   NC3  505   8.815   0.851  14.246 -0.0555 -0.0524  0.1117
   44DOPC   PO4  506   8.565   1.094  14.414 -0.0128 -0.0265 -0.2076
   44DOPC   GL1  507   8.402   0.840  14.082  0.1032  0.0378  0.0992
   44DOPC   GL2  508   8.352   0.589  14.234  0.2787  0.0382  0.2812
   44DOPC   C1A  509   8.576   0.827  13.673  0.0651 -0.0396 -0.0096
   44DOPC   D2A  510   9.006   0.833  13.457 -0.0209  0.3257  0.0600
   44DOPC   C3A  511   8.985   1.160  13.163 -0.2204 -0.3167  0.4117
   44DOPC   C4A  512   8.804   1.433  12.876  0.0559  0.2670  0.1134
   44DOPC   C1B  513   8.240   0.424  13.736  0.0025 -0.1732 -0.0472
   44DOPC   D2B  514   8.222   0.641  13.312  0.1687 -0.0579 -0.1083
   44DOPC   C3B  515   8.555   0.727  13.051 -0.0124 -0.2123  0.5239
   44DOPC   C4B  516   8.496   0.914  12.564  0.1167 -0.0567  0.2034
   45POSM   NC3  517   2.876   5.704  15.615 -0.0904  0.0716  0.1250
   45POSM   PO4  518   2.809   5.935  15.284  0.3049  0.0446  0.3352
   45POSM   AM1  519   2.654   5.795  15.057  0.2756  0.3289  0.3098
   45POSM   AM2  520   2.736   5.780  14.768  0.1610  0.2527  0.3547
   45POSM   T1A  521   2.432   5.410  14.829  0.0798  0.0536 -0.1172
   45POSM   C2A  522   2.131   5.054  14.619 -0.3458  0.2048 -0.0485
   45POSM   C3A  523   1.807   4.810  14.375 -0.0896  0.1267  0.0645
   45POSM   C1B  524   2.797   5.794  14.417 -0.0644  0.2087 -0.3862
   45POSM   D2B  525   2.660   5.909  13.978 -0.2171 -0.6052 -0.0862
   45POSM   C3B  526   2.276   6.183  13.839  0.0173 -0.3204  0.0407
   45POSM   C4B  527   2.030   6.492  13.689 -0.2368 -0.2287 -0.1175
   46DOPC   NC3  528   2.077   2.492  14.254 -0.1358 -0.0767  0.0103
   46DOPC   PO4  529   2.298   2.221  14.421 -0.1383  0.1386  0.1319
   46DOPC   GL1  530   2.645   2.051  14.265  0.1686  0.0740 -0.1509
   46DOPC   GL2  531   2.629   2.197  13.974  0.1226  0.0403 -0.0182
   46DOPC   C1A  532   2.633   1.691  14.013 -0.2129  0.1096 -0.0771
   46DOPC   D2A  533   2.386   1.451  13.643  0.2282  0.2195  0.0036
   46DOPC   C3A  534   2.269   1.146  13.311 -0.1010 -0.0004 -0.2631
   46DOPC   C4A  535   2.568   0.763  13.178 -0.1554  0.0219 -0.1452
   46DOPC   C1B  536   2.436   2.027  13.610 -0.2906 -0.0554 -0.1201
   46DOPC   D2B  537   2.467   1.989  13.145 -0.1803 -0.0561 -0.1077
   46DOPC   C3B  538   2.627   1.609  13.009 -0.2159  0.1086 -0.2471
   46DOPC   C4B  539   2.493   1.195  12.908  0.0801  0.1285  0.0396
   47POSM   NC3  540   1.306  11.032  15.451 -0.0059 -0.0017 -0.3295
   47POSM   PO4  541   1.333  10.622  15.357 -0.1090 -0.3763  0.0838
   47POSM   AM1  542   1.169  10.758  15.105  0.2042  0.0320 -0.1488
   47POSM   AM2  543   1.116  11.011  14.968 -0.3952 -0.1756  0.0888
   47POSM   T1A  544   1.053  10.696  14.608 -0.0691  0.2675  0.1532
   47POSM   C2A  545   0.943  10.610  14.240  0.0260 -0.0187  0.2443
   47POSM   C3A  546   0.884  10.667  13.775 -0.2636  0.0822  0.0355
   47POSM   C1B  547   1.030  11.300  14.732  0.1858  0.0490  0.4175
   47POSM   D2B  548   0.894  11.512  14.341 -0.0882 -0.0834 -0.0736
   47POSM   C3B  549   0.462  11.334  14.282 -0.0363 -0.1444 -0.1580
   47POSM   C4B  550   0.326  11.533  13.927  0.0799  0.0548 -0.0570
   48DOPE   NH3  551   3.906   5.351  15.574  0.0651  0.2061  0.0895
   48DOPE   PO4  552   3.674   5.204  15.390  0.2317  0.0621  0.0936
   48DOPE   GL1  553   3.403   5.302  15.082  0.2335  0.1647  0.1212
   48DOPE   GL2  554   3.411   5.114  14.870  0.0898 -0.1010  0.2662
   48DOPE   C1A  555   3.247   5.581  14.782 -0.1656 -0.2959  0.4756
   48DOPE   D2A  556   3.353   5.870  14.373 -0.0658  0.1022  0.2340
   48DOPE   C3A  557   3.211   5.827  13.926 -0.0416  0.1618  0.0147
   48DOPE   C4A  558   3.443   5.687  13.524 -0.0069  0.1392 -0.0154
   48DOPE   C1B  559   3.624   5.383  14.583  0.0210  0.1516 -0.1177
   48DOPE   D2B  560   3.958   5.292  14.259 -0.1934  0.1326 -0.0766
   48DOPE   C3B  561   3.945   5.260  13.801  0.1350  0.0509  0.2844
   48DOPE   C4B  562   4.009   5.480  13.448  0.1557  0.0977  0.2067
   49DOPC   NC3  563   6.392   0.145  14.543 -0.1572  0.1515 -0.1442
   49DOPC   PO4  564   6.069   0.351  14.363 -0.1660  0.2401 -0.1786
   49DOPC   GL1  565   6.210   0.324  14.026 -0.1572  0.0053 -0.4242
   49DOPC   GL2  566   6.040   0.361  13.809 -0.0198  0.2877  0.1986
   49DOPC   C1A  567   6.495   0.695  13.871 -0.5409 -0.1584  0.0080
   49DOPC   D2A  568   6.821   0.885  13.541  0.1994  0.0441  0.0476
   49DOPC   C3A  569   6.946   1.073  13.112  0.0633  0.1281  0.1205
   49DOPC   C4A  570   6.969   1.299  12.757 -0.0530 -0.0611  0.0734
   49DOPC   C1B  571   6.111   0.212  13.417  0.2423 -0.1799  0.1880
   49DOPC   D2B  572   6.013   0.388  13.018 -0.0535  0.1978  0.2802
   49DOPC   C3B  573   6.224   0.091  12.779 -0.0167  0.2636 -0.2052
   49DOPC   C4B  574   6.503  -0.159  12.478 -0.5089  0.0688  0.0373
   50DOPC   NC3  575   4.204  34.781  14.215  0.3164 -0.0723  0.0951
   50DOPC   PO4  576   4.017  35.114  14.343  0.3553 -0.0439  0.3266
   50DOPC   GL1  577   4.226  35.184  13.945  0.0519 -0.0297 -0.1499
   50DOPC   GL2  578   4.513  35.210  14.057  0.1775  0.2734  0.1154
   50DOPC   C1A  579   3.919  35.114  13.608 -0.0397  0.1740 -0.2419
   50DOPC   D2A  580   3.927  35.120  13.163 -0.3448  0.4871 -0.2453
   50DOPC   C3A  581   3.966  35.478  12.874 -0.0402  0.3381 -0.2180
   50DOPC   C4A  582   4.078  35.887  12.641 -0.0523 -0.4100  0.0660
   50DOPC   C1B  583   4.709  35.456  13.743 -0.0644  0.0676  0.3245
   50DOPC   D2B  584   4.740  35.787  13.386 -0.1709 -0.2790  0.0322
   50DOPC   C3B  585   5.062  35.753  13.086 -0.1285 -0.0139 -0.1579
   50DOPC   C4B  586   5.476  35.881  12.914 -0.2491  0.2201  0.1084
   51DOPC   NC3  587   4.661   5.085  15.373  0.2136  0.1885  0.0514
   51DOPC   PO4  588   4.422   5.391  15.353 -0.1325 -0.0124 -0.0296
   51DOPC   GL1  589   4.476   5.231  14.986  0.1782 -0.0000 -0.1647
   51DOPC   GL2  590   4.467   5.499  14.874 -0.0824 -0.1870 -0.0760
   51DOPC   C1A  591   4.874   5.318  14.726 -0.0812  0.0299 -0.0807
   51DOPC   D2A  592   5.291   5.230  14.481  0.0775  0.0109  0.0554
   51DOPC   C3A  593   5.496   5.230  14.030  0.0102 -0.1909  0.1987
   51DOPC   C4A  594   5.893   5.223  13.767 -0.0385 -0.0136 -0.2230
   51DOPC   C1B  595   4.162   5.647  14.582 -0.1679  0.1865  0.0586
   51DOPC   D2B  596   3.920   5.804  14.241  0.1602 -0.0961 -0.1845
   51DOPC   C3B  597   3.620   5.547  14.006 -0.1820 -0.1584 -0.1361
   51DOPC   C4B  598   3.300   5.237  13.847  0.1880  0.2758  0.1380
   52DOPC   NC3  599  11.910   6.932  15.337  0.1221 -0.0367  0.0672
   52DOPC   PO4  600  11.560   7.171  15.304 -0.0149 -0.0816 -0.0662
   52DOPC   GL1  601  11.762   7.287  14.958  0.0571 -0.0229  0.1737
   52DOPC   GL2  602  11.526   7.185  14.811  0.2036  0.1698  0.1740
   52DOPC   C1A  603  11.938   7.314  14.551 -0.1462 -0.1069 -0.0275
   52DOPC   D2A  604  12.119   7.480  14.202  0.0691  0.0192 -0.0842
   52DOPC   C3A  605  11.872   7.645  13.825  0.1134 -0.0406 -0.1177
   52DOPC   C4A  606  11.775   7.584  13.344  0.0303 -0.1114  0.1384
   52DOPC   C1B  607  11.363   7.263  14.386  0.4060  0.1282  0.1512
   52DOPC   D2B  608  11.640   7.147  14.080  0.0172 -0.0386 -0.1412
   52DOPC   C3B  609  11.471   7.372  13.754 -0.3299  0.1188 -0.1925
   52DOPC   C4B  610  11.346   7.769  13.534  0.1186 -0.1571  0.3786
   53DOPS   CNO  611   9.737   5.162  14.740 -0.0773  0.0231  0.0106
   53DOPS   PO4  612   9.386   5.267  14.647  0.2081  0.1961 -0.0972
   53DOPS   GL1  613   9.380   5.480  14.163 -0.6738 -0.1221 -0.0072
   53DOPS   GL2  614   9.375   5.213  14.043  0.1453 -0.2933  0.0995
   53DOPS   C1A  615   9.084   5.567  13.832 -0.0462 -0.0034 -0.1424
   53DOPS   D2A  616   8.775   5.591  13.484  0.2443 -0.3553  0.1420
   53DOPS   C3A  617   8.439   5.767  13.216 -0.0141 -0.2860 -0.3659
   53DOPS   C4A  618   8.187   5.706  12.811  0.0952 -0.3070 -0.4913
   53DOPS   C1B  619   9.618   5.363  13.690  0.1859 -0.0099 -0.0886
   53DOPS   D2B  620   9.613   5.310  13.218 -0.1001  0.2736  0.1136
   53DOPS   C3B  621   9.539   5.601  12.933  0.0780  0.0885  0.2037
   53DOPS   C4B  622   9.538   6.045  12.896  0.1344 -0.3540 -0.2197
   54DOPC   NC3  623  10.198   4.283  14.737 -0.2797 -0.2217  0.3155
   54DOPC   PO4  624   9.812   4.290  14.602  0.0990 -0.1271 -0.1327
   54DOPC   GL1  625   9.874   4.109  14.203  0.2161 -0.3404  0.3449
   54DOPC   GL2  626   9.613   4.175  14.193  0.0055 -0.1592 -0.1798
   54DOPC   C1A  627  10.089   4.090  13.775 -0.2328  0.0651  0.1466
   54DOPC   D2A  628  10.217   3.905  13.437  0.1294  0.0361 -0.2827
   54DOPC   C3A  629  10.361   3.542  13.394  0.2043 -0.1015  0.0460
   54DOPC   C4A  630  10.396   3.097  13.528 -0.2495 -0.2719  0.0591
   54DOPC   C1B  631   9.696   4.384  13.729  0.1607  0.0126  0.2909
   54DOPC   D2B  632   9.804   4.290  13.267  0.0127 -0.0356  0.1542
   54DOPC   C3B  633  10.092   4.510  12.989  0.1029  0.1272 -0.1817
   54DOPC   C4B  634  10.484   4.627  12.875  0.1765  0.1277  0.0433
   55DOPS   CNO  635   9.935   7.863  15.247 -0.1830 -0.1350 -0.1083
   55DOPS   PO4  636  10.295   7.787  15.259  0.1686  0.0847 -0.0518
   55DOPS   GL1  637  10.094   7.781  14.790 -0.2439 -0.0238  0.0115
   55DOPS   GL2  638  10.387   7.890  14.607  0.1125 -0.0534  0.1340
   55DOPS   C1A  639   9.859   7.562  14.446 -0.3633 -0.1254 -0.0375
   55DOPS   D2A  640   9.853   7.678  14.023  0.0574  0.1197  0.1247
   55DOPS   C3A  641  10.136   7.516  13.708  0.0917  0.0954  0.4650
   55DOPS   C4A  642  10.424   7.506  13.366 -0.2629 -0.1543 -0.1216
   55DOPS   C1B  643  10.274   7.892  14.156 -0.4454 -0.2501  0.0673
   55DOPS   D2B  644  10.431   7.919  13.768  0.1027 -0.0374  0.1911
   55DOPS   C3B  645  10.799   7.823  13.519  0.0718 -0.2647 -0.0635
   55DOPS   C4B  646  10.997   7.442  13.270 -0.0226 -0.0200 -0.1997
   56POSM   NC3  647  10.065   1.471  14.773 -0.1712 -0.0060 -0.1441
   56POSM   PO4  648  10.138   1.724  14.456 -0.0513  0.0995 -0.2417
   56POSM   AM1  649  10.224   1.655  14.155 -0.1232  0.1487 -0.3126
   56POSM   AM2  650  10.271   1.874  13.974 -0.2865  0.2369 -0.0881
   56POSM   T1A  651  10.213   1.499  13.710 -0.0234 -0.0820 -0.2877
   56POSM   C2A  652  10.038   1.309  13.354  0.0730  0.0047  0.2225
   56POSM   C3A  653   9.874   0.891  13.439 -0.0421 -0.1101 -0.1387
   56POSM   C1B  654  10.369   2.067  13.742  0.2536 -0.0270  0.1058
   56POSM   D2B  655  10.732   2.222  13.542 -0.0234 -0.0211  0.1843
   56POSM   C3B  656  10.786   2.365  13.067  0.2862 -0.0068 -0.0959
   56POSM   C4B  657  10.953   2.226  12.640  0.2140  0.0354 -0.2380
   57DOPS   CNO  658   3.194   4.305  14.865  0.1252 -0.2567 -0.0478
   57DOPS   PO4  659   3.117   4.664  14.896  0.0961  0.1248 -0.3590
   57DOPS   GL1  660   3.206   4.815  14.604 -0.1325  0.3277 -0.0934
   57DOPS   GL2  661   3.227   4.637  14.383 -0.0884  0.0095  0.0814
   57DOPS   C1A  662   3.112   5.154  14.345 -0.0491  0.2497 -0.0804
   57DOPS   D2A  663   2.894   5.435  14.044 -0.2592 -0.2984  0.3840
   57DOPS   C3A  664   2.931   5.496  13.587 -0.1081 -0.0005 -0.3844
   57DOPS   C4A  665   3.029   5.580  13.164  0.1104 -0.2212 -0.1998
   57DOPS   C1B  666   3.371   4.426  14.010  0.1332 -0.0656 -0.0143
   57DOPS   D2B  667   3.474   4.389  13.563 -0.2944  0.1031 -0.2177
   57DOPS   C3B  668   3.526   4.550  13.138 -0.2140 -0.3757 -0.1053
   57DOPS   C4B  669   3.349   4.856  12.860 -0.1097  0.0235  0.3088
   58DOPS   CNO  670  34.299   5.431  14.620  0.1982  0.0532  0.0681
   58DOPS   PO4  671  34.460   5.157  14.357 -0.0740  0.1077  0.0922
   58DOPS   GL1  672  34.645   5.255  14.026 -0.2476 -0.0206  0.1140
   58DOPS   GL2  673  34.883   5.042  13.954 -0.2963 -0.1771 -0.0651
   58DOPS   C1A  674  34.945   5.556  13.850  0.0525 -0.2180 -0.1595
   58DOPS   D2A  675  34.963   5.831  13.494 -0.1174 -0.0824  0.0028
   58DOPS   C3A  676  35.261   5.777  13.156  0.1459  0.3046  0.2151
   58DOPS   C4A  677  35.523   5.952  12.861 -0.0375 -0.1381 -0.0050
   58DOPS   C1B  678  34.687   5.133  13.542  0.1196  0.2161 -0.2938
   58DOPS   D2B  679  34.730   5.341  13.117 -0.0835 -0.1781  0.1218
   58DOPS   C3B  680  35.146   5.359  12.930  0.0422  0.1438  0.1270
   58DOPS   C4B  681  35.614   5.466  12.963 -0.1674 -0.2160  0.0784
   59DOPE   NH3  682   1.219   2.019  13.926 -0.0785 -0.0715 -0.1698
   59DOPE   PO4  683   1.487   1.962  14.013  0.0563  0.2020  0.0748
   59DOPE   GL1  684   1.701   1.945  13.683  0.0445  0.1453 -0.0600
   59DOPE   GL2  685   1.535   1.834  13.424 -0.0675 -0.1574  0.0868
   59DOPE   C1A  686   2.000   1.773  13.372  0.5459 -0.0152 -0.0951
   59DOPE   D2A  687   2.075   1.764  12.943 -0.0801 -0.2843  0.0193
   59DOPE   C3A  688   2.344   1.671  12.599  0.2629 -0.1716 -0.0215
   59DOPE   C4A  689   2.436   1.518  12.179 -0.0727  0.1000  0.1226
   59DOPE   C1B  690   1.445   1.861  13.007  0.2165  0.0990 -0.0778
   59DOPE   D2B  691   1.383   1.762  12.561  0.0908 -0.1219  0.0134
   59DOPE   C3B  692   1.353   1.338  12.363  0.1494 -0.0231 -0.2148
   59DOPE   C4B  693   1.430   0.922  12.055  0.0005 -0.3130 -0.1866
   60DOPE   NH3  694   7.592   2.250  14.544  0.1055 -0.1971  0.0440
   60DOPE   PO4  695   7.917   2.197  14.398 -0.2680  0.0855  0.0278
   60DOPE   GL1  696   7.793   2.252  14.027  0.0187  0.1027  0.0173
   60DOPE   GL2  697   7.685   2.531  14.079  0.1316  0.4183  0.1538
   60DOPE   C1A  698   7.372   2.056  13.909 -0.0304  0.0269 -0.2067
   60DOPE   D2A  699   7.003   2.009  13.622  0.2639 -0.2173  0.0415
   60DOPE   C3A  700   7.268   2.111  13.220 -0.1180  0.0492 -0.3889
   60DOPE   C4A  701   7.514   1.790  12.989 -0.1233  0.0997  0.1580
   60DOPE   C1B  702   7.459   2.519  13.656 -0.3249  0.2819 -0.2306
   60DOPE   D2B  703   7.081   2.587  13.333  0.1370 -0.1859  0.0928
   60DOPE   C3B  704   6.880   3.017  13.290  0.0971  0.0945 -0.0792
   60DOPE   C4B  705   6.792   3.256  12.950 -0.1456  0.0181  0.1684
   61DOPE   NH3  706   6.594   8.259  14.942  0.1588 -0.0989  0.0130
   61DOPE   PO4  707   6.463   8.323  14.656  0.0158 -0.0882  0.0081
   61DOPE   GL1  708   6.495   8.072  14.368 -0.0952 -0.5096  0.0773
   61DOPE   GL2  709   6.477   8.062  14.083 -0.5483 -0.1108  0.2616
   61DOPE   C1A  710   6.794   7.719  14.350  0.0749 -0.0967  0.0533
   61DOPE   D2A  711   6.768   7.434  13.997  0.1636 -0.2340 -0.4764
   61DOPE   C3A  712   6.751   7.357  13.572  0.1463 -0.1148  0.0516
   61DOPE   C4A  713   6.511   7.396  13.195 -0.0547 -0.2735 -0.0472
   61DOPE   C1B  714   6.185   8.122  13.697 -0.0799 -0.1527 -0.1325
   61DOPE   D2B  715   6.247   8.355  13.330  0.3105 -0.0378 -0.0159
   61DOPE   C3B  716   6.600   8.540  13.180  0.0441  0.4459  0.0219
   61DOPE   C4B  717   6.841   8.468  12.818 -0.1493 -0.4342  0.0811
   62DOPC   NC3  718   4.450   7.158  15.123 -0.0683 -0.0140 -0.1641
   62DOPC   PO4  719   4.536   6.805  15.000 -0.2609  0.3204  0.0089
   62DOPC   GL1  720   4.400   6.792  14.632 -0.1477 -0.0679  0.1520
   62DOPC   GL2  721   4.128   6.661  14.643  0.3368  0.0096  0.0321
   62DOPC   C1A  722   4.350   6.764  14.181 -0.0099 -0.0477 -0.0241
   62DOPC   D2A  723   4.192   7.000  13.808 -0.4752  0.0870  0.1654
   62DOPC   C3A  724   4.063   7.253  13.411 -0.0498  0.2149 -0.0842
   62DOPC   C4A  725   4.184   7.513  13.058 -0.2995  0.0140 -0.0062
   62DOPC   C1B  726   3.885   6.556  14.267 -0.1344  0.0559  0.1262
   62DOPC   D2B  727   3.621   6.276  13.983 -0.2375  0.1749 -0.1928
   62DOPC   C3B  728   3.381   6.492  13.669 -0.1157  0.3284 -0.1312
   62DOPC   C4B  729   3.076   6.527  13.293  0.0280  0.0178  0.1230
   63DOPC   NC3  730  12.772   2.490  14.720  0.0910  0.0365 -0.0992
   63DOPC   PO4  731  12.387   2.589  14.770  0.2589 -0.0215  0.0345
   63DOPC   GL1  732  12.418   2.430  14.471 -0.3087  0.0706 -0.1043
   63DOPC   GL2  733  12.455   2.107  14.482 -0.3557 -0.2287  0.0853
   63DOPC   C1A  734  12.059   2.461  14.160 -0.0533 -0.0435  0.0844
   63DOPC   D2A  735  12.074   2.490  13.737  0.0795  0.0622 -0.1989
   63DOPC   C3A  736  12.341   2.157  13.496 -0.0442  0.0501  0.1730
   63DOPC   C4A  737  12.675   1.879  13.279  0.2059  0.2479 -0.0324
   63DOPC   C1B  738  12.477   1.676  14.317 -0.1592 -0.0373 -0.0988
   63DOPC   D2B  739  12.393   1.236  14.183 -0.1367 -0.0379 -0.2659
   63DOPC   C3B  740  12.203   0.907  13.942 -0.1564 -0.1131  0.1658
   63DOPC   C4B  741  11.994   0.930  13.423  0.0793  0.0688  0.2484
   64POSM   NC3  742   1.845   4.630  14.881 -0.0254  0.2401 -0.0399
   64POSM   PO4  743   1.521   4.382  14.790 -0.0796 -0.1697  0.1095
   64POSM   AM1  744   1.581   4.360  14.476  0.0512 -0.0175  0.0424
   64POSM   AM2  745   1.462   4.406  14.189 -0.2783  0.0024 -0.0202
   64POSM   T1A  746   1.941   4.323  14.128 -0.2580  0.1875  0.1070
   64POSM   C2A  747   2.157   4.082  13.835  0.2277 -0.1135 -0.1787
   64POSM   C3A  748   2.588   3.931  13.795  0.1232 -0.0200  0.1531
   64POSM   C1B  749   1.569   4.456  13.842  0.1142 -0.2275  0.3096
   64POSM   D2B  750   1.789   4.267  13.498  0.0789 -0.3071  0.0722
   64POSM   C3B  751   2.254   4.256  13.396  0.2851 -0.0076  0.0436
   64POSM   C4B  752   2.604   4.459  13.379 -0.0899 -0.1115 -0.0648
   65POSM   NC3  753   2.222  10.097  15.728  0.2140  0.1031  0.1183
   65POSM   PO4  754   1.850  10.084  15.575  0.1086 -0.0551  0.0905
   65POSM   AM1  755   1.939  10.093  15.223 -0.1744  0.2168 -0.0811
   65POSM   AM2  756   2.053   9.875  15.109 -0.0741  0.0932 -0.3537
   65POSM   T1A  757   1.742  10.367  14.851 -0.3097  0.0045  0.1317
   65POSM   C2A  758   1.797  10.697  14.527 -0.1629 -0.0826  0.0693
   65POSM   C3A  759   1.979  11.046  14.281  0.0122 -0.3421 -0.2862
   65POSM   C1B  760   2.172  10.016  14.807  0.0533  0.3243  0.1888
   65POSM   D2B  761   2.075  10.278  14.407  0.1334  0.2429  0.1559
   65POSM   C3B  762   2.315  10.559  14.167  0.1080  0.1608  0.0586
   65POSM   C4B  763   2.462  10.850  13.874  0.1578 -0.0999 -0.1038
   66DOPE   NH3  764   0.667   1.112  14.062  0.2732 -0.2539  0.1425
   66DOPE   PO4  765   0.408   1.050  13.902 -0.2025 -0.0582 -0.2168
   66DOPE   GL1  766   0.362   1.017  13.499 -0.2552  0.2840 -0.0858
   66DOPE   GL2  767   0.127   0.988  13.416 -0.1024 -0.1900 -0.0669
   66DOPE   C1A  768   0.667   0.995  13.148  0.0844 -0.0419 -0.1278
   66DOPE   D2A  769   0.627   0.992  12.707 -0.1550  0.0902  0.1059
   66DOPE   C3A  770   0.275   1.170  12.539 -0.0835 -0.3093  0.1586
   66DOPE   C4A  771   0.100   1.526  12.369 -0.2199 -0.0797 -0.0317
   66DOPE   C1B  772   0.149   1.283  13.022 -0.2464  0.1009  0.1304
   66DOPE   D2B  773   0.517   1.557  12.809 -0.2367 -0.0990 -0.0474
   66DOPE   C3B  774   0.505   1.929  12.489  0.1395  0.1544  0.5372
   66DOPE   C4B  775   0.362   2.382  12.598  0.2066  0.2404 -0.1432
   67DOPE   NH3  776   0.489   4.162  14.297  0.3026 -0.0619 -0.0124
   67DOPE   PO4  777   0.212   4.030  14.372 -0.1890  0.1327  0.0068
   67DOPE   GL1  778   0.214   4.068  13.925 -0.1333  0.4211  0.2239
   67DOPE   GL2  779   0.463   3.867  13.933  0.1568 -0.0503  0.0487
   67DOPE   C1A  780   0.049   4.075  13.498 -0.5154 -0.0628 -0.0383
   67DOPE   D2A  781  -0.282   4.077  13.171 -0.0092  0.0276  0.1121
   67DOPE   C3A  782  -0.133   3.994  12.725 -0.2045 -0.1763 -0.1159
   67DOPE   C4A  783   0.152   3.818  12.460 -0.0220  0.0810  0.3636
   67DOPE   C1B  784   0.567   3.858  13.449  0.3982  0.1557  0.2596
   67DOPE   D2B  785   0.859   3.952  13.155  0.0264  0.0533  0.1379
   67DOPE   C3B  786   0.763   4.359  12.902  0.1056 -0.4084  0.2877
   67DOPE   C4B  787   0.415   4.679  12.907 -0.0581  0.1483 -0.2386
   68DOPE   NH3  788   5.480  10.606  15.209 -0.1351 -0.1001 -0.1823
   68DOPE   PO4  789   5.443  10.906  15.249 -0.2006  0.4284  0.2059
   68DOPE   GL1  790   5.375  10.828  14.805 -0.1495  0.3517 -0.0658
   68DOPE   GL2  791   5.146  10.830  14.614  0.2996 -0.0511  0.0875
   68DOPE   C1A  792   5.507  10.570  14.414  0.1876 -0.1755 -0.2068
   68DOPE   D2A  793   5.635  10.497  13.985 -0.1435 -0.4619 -0.1762
   68DOPE   C3A  794   5.603  10.251  13.605  0.2996  0.1791 -0.2222
   68DOPE   C4A  795   5.369   9.928  13.374 -0.0208 -0.0096 -0.0856
   68DOPE   C1B  796   5.312  10.947  14.170  0.0901 -0.4538  0.0099
   68DOPE   D2B  797   5.444  11.115  13.717  0.3134  0.1518  0.0933
   68DOPE   C3B  798   5.556  10.710  13.559 -0.0550 -0.4985  0.1481
   68DOPE   C4B  799   5.682  10.452  13.146  0.1055  0.3337 -0.2509
   69DOPC   NC3  800   0.062   0.762  13.862 -0.1569 -0.1133  0.1553
   69DOPC   PO4  801  -0.254   0.961  13.981  0.2725 -0.0624 -0.1299
   69DOPC   GL1  802  -0.308   1.035  13.644 -0.1479 -0.1107 -0.0977
   69DOPC   GL2  803  -0.493   1.276  13.675  0.1366 -0.1871 -0.0071
   69DOPC   C1A  804  -0.321   1.095  13.180  0.4138  0.1615  0.3072
   69DOPC   D2A  805  -0.655   1.025  12.896  0.2696  0.0617  0.2309
   69DOPC   C3A  806  -0.674   1.164  12.455 -0.2294  0.2735  0.2862
   69DOPC   C4A  807  -0.446   1.515  12.257 -0.2482 -0.3179  0.0770
   69DOPC   C1B  808  -0.307   1.571  13.345 -0.0050  0.0263 -0.1620
   69DOPC   D2B  809  -0.014   1.736  12.981 -0.0584  0.1027  0.2848
   69DOPC   C3B  810   0.029   2.203  12.886  0.0667  0.0744  0.0013
   69DOPC   C4B  811  -0.199   2.509  13.177 -0.0792 -0.0146  0.0853
   70DOPC   NC3  812  32.919   7.131  14.114  0.0822  0.3901  0.0146
   70DOPC   PO4  813  32.519   7.119  14.250  0.0193  0.1718  0.2270
   70DOPC   GL1  814  32.474   7.036  13.886  0.0905  0.0635  0.2568
   70DOPC   GL2  815  32.644   7.202  13.705 -0.1310  0.0338  0.1244
   70DOPC   C1A  816  32.421   6.765  13.476 -0.0526  0.2355 -0.1851
   70DOPC   D2A  817  32.547   6.516  13.100 -0.1566 -0.2151 -0.3946
   70DOPC   C3A  818  32.507   6.437  12.655 -0.0780  0.0632  0.0499
   70DOPC   C4A  819  32.499   6.147  12.314  0.0014 -0.2028 -0.0927
   70DOPC   C1B  820  32.918   7.524  13.528 -0.1320 -0.0648 -0.1550
   70DOPC   D2B  821  33.139   7.521  13.167 -0.0067 -0.3623 -0.1063
   70DOPC   C3B  822  32.948   7.268  12.790  0.2027  0.0462  0.1830
   70DOPC   C4B  823  32.869   6.863  12.615  0.3548 -0.0695 -0.3959
   71POSM   NC3  824   4.737   2.973  14.939  0.0647 -0.1092  0.0712
   71POSM   PO4  825   4.889   2.625  14.993 -0.0308 -0.1167 -0.3214
   71POSM   AM1  826   5.017   2.591  14.672  0.2566 -0.0205 -0.0137
   71POSM   AM2  827   4.915   2.524  14.409 -0.0488 -0.3924 -0.1893
   71POSM   T1A  828   5.372   2.512  14.312  0.0040  0.2129 -0.0796
   71POSM   C2A  829   5.530   2.566  13.868 -0.0459 -0.1282  0.3860
   71POSM   C3A  830   5.580   2.838  13.495 -0.0134 -0.1642  0.1153
   71POSM   C1B  831   4.959   2.565  14.050 -0.0209 -0.0127 -0.0360
   71POSM   D2B  832   5.130   2.592  13.638 -0.1077  0.0189  0.2018
   71POSM   C3B  833   5.199   2.344  13.214 -0.1398  0.0503  0.1454
   71POSM   C4B  834   5.347   2.073  12.909  0.0931  0.2674  0.3343
   72DOPC   NC3  835   1.343  12.723  15.742  0.1396  0.0828 -0.0503
   72DOPC   PO4  836   1.461  12.326  15.678 -0.0772 -0.0679 -0.3036
   72DOPC   GL1  837   1.569  12.438  15.260 -0.0407  0.0666 -0.0072
   72DOPC   GL2  838   1.418  12.705  15.187 -0.0920  0.0093  0.1408
   72DOPC   C1A  839   1.357  12.274  14.883  0.0924  0.1886 -0.0249
   72DOPC   D2A  840   1.378  12.300  14.358 -0.1480 -0.0402  0.2742
   72DOPC   C3A  841   1.176  12.656  14.127  0.0123 -0.2124  0.1795
   72DOPC   C4A  842   0.913  12.805  13.745  0.0588 -0.0066 -0.2198
   72DOPC   C1B  843   1.677  12.710  14.794 -0.0376  0.0977 -0.2479
   72DOPC   D2B  844   1.947  12.667  14.407  0.1202 -0.1034  0.1390
   72DOPC   C3B  845   1.713  12.594  13.977 -0.2423  0.0166  0.1088
   72DOPC   C4B  846   1.389  12.785  13.695 -0.1310  0.0043 -0.0610
   73DOPE   NH3  847   8.037   2.694  14.432 -0.1378  0.1143 -0.2438
   73DOPE   PO4  848   7.732   2.794  14.526  0.1539 -0.0182  0.1369
   73DOPE   GL1  849   7.488   3.002  14.246 -0.0897  0.0416 -0.0429
   73DOPE   GL2  850   7.823   3.081  14.115 -0.2706 -0.3787 -0.0194
   73DOPE   C1A  851   7.259   3.410  14.222 -0.0725 -0.2986 -0.3588
   73DOPE   D2A  852   7.217   3.846  14.233 -0.3580 -0.1997 -0.2648
   73DOPE   C3A  853   6.995   3.864  13.811 -0.0557 -0.2484  0.1214
   73DOPE   C4A  854   6.801   3.613  13.480  0.1196  0.2007  0.0364
   73DOPE   C1B  855   7.635   3.004  13.716  0.0136 -0.0105 -0.1610
   73DOPE   D2B  856   7.393   2.927  13.308 -0.1459 -0.2563 -0.3308
   73DOPE   C3B  857   7.482   2.607  13.027  0.0616  0.0538 -0.3241
   73DOPE   C4B  858   7.223   2.411  12.663  0.2095  0.1838  0.1586
   74DOPC   NC3  859   4.337   5.983  15.029  0.0659 -0.2072  0.2244
   74DOPC   PO4  860   4.653   5.894  15.224 -0.1627  0.1832  0.0803
   74DOPC   GL1  861   4.812   5.769  14.834 -0.0109  0.0109  0.0515
   74DOPC   GL2  862   4.895   6.005  14.743  0.2386  0.3218 -0.0507
   74DOPC   C1A  863   4.640   5.668  14.428 -0.2192 -0.2691  0.1596
   74DOPC   D2A  864   4.416   5.577  14.071  0.2664  0.0589 -0.0503
   74DOPC   C3A  865   4.190   5.848  13.771 -0.1780  0.0331  0.0463
   74DOPC   C4A  866   3.784   6.009  13.596 -0.1936 -0.0282  0.0381
   74DOPC   C1B  867   4.738   6.120  14.309  0.2887 -0.2766 -0.1666
   74DOPC   D2B  868   4.757   5.944  13.891 -0.0721  0.1485  0.2562
   74DOPC   C3B  869   5.082   5.853  13.558 -0.0111 -0.0512  0.1171
   74DOPC   C4B  870   5.458   5.993  13.336  0.1263  0.2690 -0.0122
   75DOPE   NH3  871   0.765   7.032  15.468 -0.2721 -0.2314 -0.3164
   75DOPE   PO4  872   0.672   6.792  15.273 -0.1456  0.0531 -0.0821
   75DOPE   GL1  873   0.544   6.855  14.890  0.0948 -0.2392  0.0999
   75DOPE   GL2  874   0.464   6.582  14.781  0.2515  0.2592  0.1659
   75DOPE   C1A  875   0.320   7.147  14.533 -0.1441 -0.2968  0.0562
   75DOPE   D2A  876   0.116   7.062  14.129 -0.1023  0.0370 -0.0297
   75DOPE   C3A  877   0.465   7.163  13.839  0.3729  0.0137 -0.0945
   75DOPE   C4A  878   0.667   7.224  13.440  0.0650  0.2342 -0.0901
   75DOPE   C1B  879   0.652   6.709  14.409 -0.2038  0.2146  0.0571
   75DOPE   D2B  880   0.850   6.568  13.986  0.0245  0.1393 -0.0360
   75DOPE   C3B  881   0.586   6.248  13.811 -0.1147  0.1081  0.1071
   75DOPE   C4B  882   0.164   6.113  13.949  0.2409  0.2203  0.0390
   76DOPE   NH3  883  10.158   0.891  14.777  0.3301 -0.3804  0.0385
   76DOPE   PO4  884   9.949   0.880  14.510  0.1141  0.1344  0.2129
   76DOPE   GL1  885  10.113   0.758  14.200  0.3441 -0.1583 -0.3564
   76DOPE   GL2  886  10.162   1.032  14.099  0.0066 -0.0254  0.0308
   76DOPE   C1A  887   9.967   0.541  13.800 -0.0372 -0.4106  0.0031
   76DOPE   D2A  888   9.967   0.205  13.542 -0.0219  0.1653  0.0137
   76DOPE   C3A  889   9.716  -0.029  13.274 -0.3070  0.2892 -0.2399
   76DOPE   C4A  890   9.384  -0.236  13.128 -0.0803 -0.2997  0.1264
   76DOPE   C1B  891  10.319   0.951  13.683  0.0313  0.0682 -0.0126
   76DOPE   D2B  892  10.637   1.154  13.398  0.2847  0.1811  0.0243
   76DOPE   C3B  893  10.658   1.075  12.933 -0.0682 -0.0370  0.1313
   76DOPE   C4B  894  10.831   0.885  12.529 -0.1488  0.1278 -0.0507
   77DOPC   NC3  895   3.445   2.518  14.552  0.0517 -0.1750 -0.1255
   77DOPC   PO4  896   3.172   2.792  14.610  0.1897  0.0209 -0.0756
   77DOPC   GL1  897   3.153   2.663  14.147  0.1006  0.0450 -0.0275
   77DOPC   GL2  898   3.015   2.419  14.255 -0.1074  0.0909  0.2392
   77DOPC   C1A  899   3.148   3.006  13.818 -0.0660  0.1128  0.0326
   77DOPC   D2A  900   3.119   2.971  13.328  0.2601  0.3636 -0.1971
   77DOPC   C3A  901   2.947   2.788  12.979 -0.1179  0.4070  0.1227
   77DOPC   C4A  902   2.887   2.810  12.545  0.0014 -0.0938  0.0993
   77DOPC   C1B  903   3.091   2.414  13.797  0.0238 -0.0652  0.2479
   77DOPC   D2B  904   3.220   2.502  13.380 -0.2260  0.1852  0.1828
   77DOPC   C3B  905   3.665   2.455  13.323  0.2154  0.0837 -0.0458
   77DOPC   C4B  906   3.782   2.219  12.983 -0.0657  0.3175 -0.1459
   78DOPC   NC3  907   5.968   4.910  14.682  0.1654 -0.1974  0.0870
   78DOPC   PO4  908   5.730   5.165  14.834  0.3989 -0.4454 -0.0012
   78DOPC   GL1  909   5.826   5.395  14.618 -0.1845 -0.1403  0.1253
   78DOPC   GL2  910   5.886   5.289  14.355 -0.2290 -0.3046  0.0375
   78DOPC   C1A  911   5.694   5.780  14.325  0.1846  0.0530 -0.2499
   78DOPC   D2A  912   5.414   5.821  13.899  0.1159 -0.0339  0.1961
   78DOPC   C3A  913   5.534   5.523  13.579  0.1364  0.0025 -0.0643
   78DOPC   C4A  914   5.591   5.549  13.044 -0.1528 -0.0329  0.0403
   78DOPC   C1B  915   6.226   4.996  14.159  0.0807 -0.0104  0.1966
   78DOPC   D2B  916   6.245   4.558  13.927  0.1721  0.1671 -0.1822
   78DOPC   C3B  917   6.075   4.202  13.638  0.1067  0.2109  0.0151
   78DOPC   C4B  918   6.158   3.832  13.379 -0.2143 -0.0787 -0.0643
   79DOPC   NC3  919  17.273   9.498  14.050 -0.0830 -0.0951  0.5852
   79DOPC   PO4  920  17.314   9.867  14.020  0.2639  0.2011  0.0740
   79DOPC   GL1  921  17.086   9.752  13.641  0.3917  0.0500  0.3547
   79DOPC   GL2  922  16.995  10.052  13.566 -0.2488  0.1959  0.1950
   79DOPC   C1A  923  16.717   9.478  13.526  0.1343 -0.1939 -0.2243
   79DOPC   D2A  924  16.260   9.332  13.483  0.0232 -0.2128 -0.2843
   79DOPC   C3A  925  16.045   9.273  13.104  0.0684 -0.0157 -0.0449
   79DOPC   C4A  926  15.699   9.149  12.843  0.1422 -0.0870  0.0434
   79DOPC   C1B  927  17.194  10.053  13.151  0.1509  0.1445  0.2093
   79DOPC   D2B  928  17.112  10.045  12.721  0.2828  0.2147  0.0211
   79DOPC   C3B  929  16.691  10.034  12.500 -0.0844 -0.1561  0.1917
   79DOPC   C4B  930  16.596   9.627  12.217 -0.0030 -0.4359 -0.1142
   80DOPC   NC3  931  32.871  32.966  13.119 -0.0537 -0.0197 -0.2364
   80DOPC   PO4  932  32.870  33.355  13.119  0.0458  0.1861 -0.2005
   80DOPC   GL1  933  32.826  33.314  12.737  0.1581 -0.0631 -0.2733
   80DOPC   GL2  934  32.523  33.295  12.768  0.0744  0.1659 -0.1457
   80DOPC   C1A  935  32.866  33.452  12.321 -0.1943 -0.2257  0.1741
   80DOPC   D2A  936  32.862  33.883  12.142  0.2180  0.2245  0.4156
   80DOPC   C3A  937  32.844  34.100  11.719 -0.2325 -0.2744 -0.3107
   80DOPC   C4A  938  33.052  34.292  11.410 -0.0949  0.0841 -0.1094
   80DOPC   C1B  939  32.368  33.418  12.330 -0.2473 -0.1652 -0.0826
   80DOPC   D2B  940  32.085  33.444  11.958 -0.1811  0.2645 -0.0198
   80DOPC   C3B  941  31.668  33.324  11.828  0.1063 -0.1888 -0.3367
   80DOPC   C4B  942  31.452  32.969  11.666  0.0208 -0.1024 -0.1093
   81DOPC   NC3  943   4.500   3.696  15.151 -0.4185  0.0157  0.1356
   81DOPC   PO4  944   4.624   3.343  15.247 -0.2121  0.0053 -0.2975
   81DOPC   GL1  945   4.587   3.462  14.796  0.2136  0.0642  0.2457
   81DOPC   GL2  946   4.429   3.256  14.653  0.2264 -0.1703  0.0962
   81DOPC   C1A  947   4.730   3.845  14.650 -0.2546  0.0380 -0.2588
   81DOPC   D2A  948   4.853   4.137  14.323  0.1003  0.2457 -0.0745
   81DOPC   C3A  949   4.865   3.947  13.924 -0.2731 -0.2035  0.0404
   81DOPC   C4A  950   4.870   3.535  13.681 -0.0329 -0.1467 -0.3508
   81DOPC   C1B  951   4.510   2.869  14.456  0.3301 -0.1023  0.1709
   81DOPC   D2B  952   4.422   2.591  14.092 -0.0495  0.1943 -0.1538
   81DOPC   C3B  953   4.556   2.798  13.715  0.3114  0.3296 -0.1483
   81DOPC   C4B  954   4.723   2.870  13.288 -0.0911 -0.3694 -0.1320
   82DOPE   NH3  955  12.798   6.690  15.107 -0.1379 -0.0969  0.0898
   82DOPE   PO4  956  12.895   6.418  15.013 -0.0194 -0.0692  0.0213
   82DOPE   GL1  957  12.852   6.445  14.575  0.1660 -0.0120 -0.7019
   82DOPE   GL2  958  12.633   6.385  14.437 -0.0688 -0.0994  0.1803
   82DOPE   C1A  959  12.997   6.726  14.241  0.3330 -0.2388 -0.0432
   82DOPE   D2A  960  13.294   6.965  13.966  0.0119  0.0480  0.0564
   82DOPE   C3A  961  13.423   6.723  13.593 -0.1874 -0.3556 -0.0734
   82DOPE   C4A  962  13.328   6.446  13.252 -0.1178 -0.1777  0.2175
   82DOPE   C1B  963  12.561   6.639  14.049  0.0629 -0.2925 -0.2631
   82DOPE   D2B  964  12.363   6.806  13.638 -0.1469  0.1937 -0.1043
   82DOPE   C3B  965  12.586   7.003  13.309  0.0591  0.0093  0.2562
   82DOPE   C4B  966  12.718   7.388  13.045 -0.1157  0.1807  0.1206
   83DOPE   NH3  967  11.566   6.231  14.865 -0.2085 -0.4493  0.1724
   83DOPE   PO4  968  11.262   6.265  14.735 -0.0135 -0.0555 -0.0660
   83DOPE   GL1  969  11.440   6.276  14.353 -0.2871 -0.4163  0.1837
   83DOPE   GL2  970  11.197   6.192  14.238  0.0146  0.2256 -0.3548
   83DOPE   C1A  971  11.694   6.043  13.991  0.0081 -0.1809 -0.1947
   83DOPE   D2A  972  11.701   5.905  13.547 -0.0989  0.2680 -0.1712
   83DOPE   C3A  973  11.782   6.253  13.245  0.0728  0.2019 -0.0471
   83DOPE   C4A  974  12.063   6.559  13.264 -0.1497  0.0306  0.0536
   83DOPE   C1B  975  10.932   6.434  13.977 -0.3437 -0.2278 -0.1133
   83DOPE   D2B  976  10.525   6.579  14.183 -0.0583  0.4643  0.0633
   83DOPE   C3B  977  10.127   6.625  13.945  0.0166  0.5174 -0.3891
   83DOPE   C4B  978   9.776   6.916  13.788  0.3516 -0.1447  0.0627
   84POSM   NC3  979   5.931   7.850  15.321  0.1589 -0.2665  0.0236
   84POSM   PO4  980   5.898   7.832  14.941  0.0082 -0.2148 -0.0945
   84POSM   AM1  981   6.012   7.800  14.670 -0.1198  0.1435  0.2884
   84POSM   AM2  982   6.030   7.966  14.448 -0.1262 -0.1362  0.2098
   84POSM   T1A  983   6.325   7.638  14.285  0.2041 -0.0158 -0.6323
   84POSM   C2A  984   6.351   7.656  13.820 -0.0678 -0.2463  0.0526
   84POSM   C3A  985   6.481   7.858  13.436 -0.0577  0.1600 -0.1636
   84POSM   C1B  986   5.943   7.944  14.148  0.1526 -0.0504  0.1661
   84POSM   D2B  987   5.667   8.081  13.804 -0.2870 -0.3042 -0.0574
   84POSM   C3B  988   5.841   8.098  13.347 -0.3824  0.0039  0.0416
   84POSM   C4B  989   5.876   8.286  12.941  0.0645  0.1688 -0.0296
   85DOPC   NC3  990   4.427   1.150  14.593 -0.0513  0.0730 -0.1386
   85DOPC   PO4  991   4.156   1.037  14.786 -0.3126  0.1797  0.1098
   85DOPC   GL1  992   3.891   1.059  14.479 -0.0474 -0.0025 -0.1132
   85DOPC   GL2  993   3.896   1.353  14.490 -0.0079  0.0774 -0.2906
   85DOPC   C1A  994   3.925   1.234  14.029  0.0010  0.1442 -0.2760
   85DOPC   D2A  995   3.877   1.448  13.577 -0.1683 -0.0658  0.0192
   85DOPC   C3A  996   3.888   1.897  13.423 -0.1230  0.2342  0.0183
   85DOPC   C4A  997   4.203   2.205  13.324  0.0209 -0.2018 -0.1026
   85DOPC   C1B  998   4.053   1.746  14.442  0.2686 -0.2334 -0.2235
   85DOPC   D2B  999   4.116   2.118  14.199  0.0796  0.0281 -0.2126
   85DOPC   C3B 1000   4.108   2.314  13.783  0.0393  0.2272 -0.1303
   85DOPC   C4B 1001   4.099   2.710  13.574 -0.0046  0.0436  0.3045
   86POSM   NC3 1002   2.004   0.859  14.295  0.2646  0.1892  0.0841
   86POSM   PO4 1003   1.657   1.041  14.403  0.0022  0.1589  0.1331
   86POSM   AM1 1004   1.590   1.023  14.066  0.0365 -0.5149 -0.2965
   86POSM   AM2 1005   1.400   1.070  13.851 -0.1806  0.3571  0.2088
   86POSM   T1A 1006   1.788   0.811  13.716 -0.0070  0.1907 -0.2164
   86POSM   C2A 1007   1.958   0.704  13.314  0.0019  0.2327 -0.1357
   86POSM   C3A 1008   2.120   0.716  12.876 -0.2375  0.0345  0.1441
   86POSM   C1B 1009   1.382   1.351  13.579 -0.1338  0.0365  0.1651
   86POSM   D2B 1010   1.093   1.594  13.381 -0.0488  0.1328  0.0626
   86POSM   C3B 1011   0.655   1.498  13.260 -0.0639  0.2826  0.0748
   86POSM   C4B 1012   0.207   1.528  13.435 -0.1814 -0.2711  0.0061
   87POSM   NC3 1013  34.390   9.612  15.339  0.2585 -0.0822 -0.4407
   87POSM   PO4 1014  34.680   9.382  15.215 -0.0242 -0.0402 -0.0120
   87POSM   AM1 1015  34.801   9.300  14.932  0.0209 -0.0379  0.2573
   87POSM   AM2 1016  34.912   9.508  14.752 -0.3741 -0.1121  0.4174
   87POSM   T1A 1017  34.919   9.094  14.466  0.1454 -0.2746 -0.1281
   87POSM   C2A 1018  34.821   8.999  14.016  0.1844 -0.0716  0.1559
   87POSM   C3A 1019  34.844   9.153  13.578  0.3100 -0.2933  0.2886
   87POSM   C1B 1020  34.892   9.633  14.426  0.4569 -0.1421  0.0312
   87POSM   D2B 1021  35.062   9.769  13.987 -0.0351  0.0027 -0.1683
   87POSM   C3B 1022  34.826   9.682  13.617 -0.0298 -0.1417  0.2914
   87POSM   C4B 1023  34.634   9.498  13.250 -0.1242  0.0099  0.2104
   88DOPS   CNO 1024   6.007   6.237  15.063 -0.0864  0.1738 -0.0434
   88DOPS   PO4 1025   5.706   6.018  15.188  0.3576  0.1766 -0.1510
   88DOPS   GL1 1026   5.498   5.987  14.839  0.0122  0.2143  0.1941
   88DOPS   GL2 1027   5.713   6.152  14.685  0.1859  0.0605  0.1496
   88DOPS   C1A 1028   5.242   5.695  14.565 -0.0480 -0.0484 -0.1640
   88DOPS   D2A 1029   5.080   5.538  14.173 -0.1785  0.1008  0.1166
   88DOPS   C3A 1030   4.850   5.448  13.788  0.4175 -0.3970  0.0640
   88DOPS   C4A 1031   4.411   5.231  13.725 -0.2055  0.1506  0.3202
   88DOPS   C1B 1032   5.653   6.348  14.224 -0.1828  0.0654 -0.0609
   88DOPS   D2B 1033   5.832   6.341  13.816 -0.2674  0.1856  0.2016
   88DOPS   C3B 1034   6.230   6.166  13.691  0.3543  0.0431  0.1388
   88DOPS   C4B 1035   6.589   6.037  13.938  0.1904 -0.1938  0.0912
   89DOPC   NC3 1036   4.981   9.983  14.895  0.0404 -0.0874 -0.0657
   89DOPC   PO4 1037   5.059  10.365  14.879  0.1762 -0.0732  0.1251
   89DOPC   GL1 1038   4.877  10.333  14.474 -0.0597 -0.3296  0.3664
   89DOPC   GL2 1039   4.933  10.076  14.372 -0.0004  0.0900 -0.0077
   89DOPC   C1A 1040   4.917  10.499  14.035 -0.1084 -0.2306  0.0018
   89DOPC   D2A 1041   5.038  10.700  13.677  0.0721  0.3959  0.1009
   89DOPC   C3A 1042   5.139  10.574  13.257 -0.0061  0.0099  0.0127
   89DOPC   C4A 1043   5.296  10.782  12.881  0.0159  0.1541 -0.3059
   89DOPC   C1B 1044   4.713  10.000  14.000  0.2465 -0.1268 -0.0261
   89DOPC   D2B 1045   4.575  10.124  13.593 -0.0238 -0.0594 -0.2611
   89DOPC   C3B 1046   4.663  10.492  13.385 -0.1639 -0.0846 -0.2429
   89DOPC   C4B 1047   4.688  10.911  13.260  0.2632  0.0988 -0.0347
   90DOPE   NH3 1048   4.522   8.160  15.197 -0.0121  0.2931 -0.3521
   90DOPE   PO4 1049   4.679   8.143  14.942 -0.2195  0.0137 -0.1635
   90DOPE   GL1 1050   4.821   8.128  14.537  0.2269  0.0495  0.0315
   90DOPE   GL2 1051   4.635   8.300  14.343  0.1780  0.0402  0.1981
   90DOPE   C1A 1052   5.117   8.422  14.365  0.0452 -0.0792 -0.2126
   90DOPE   D2A 1053   5.263   8.624  13.972 -0.1381  0.0101 -0.2126
   90DOPE   C3A 1054   5.329   8.676  13.530 -0.1132 -0.2128 -0.0890
   90DOPE   C4A 1055   5.535   8.986  13.257  0.0014  0.2588  0.2574
   90DOPE   C1B 1056   4.965   8.123  14.005 -0.1968 -0.1089 -0.0687
   90DOPE   D2B 1057   5.069   8.268  13.627  0.2453  0.2060  0.1057
   90DOPE   C3B 1058   5.141   8.323  13.201 -0.0012 -0.1202  0.0240
   90DOPE   C4B 1059   5.445   8.558  12.958  0.0392 -0.0344 -0.0193
   91DOPE   NH3 1060   3.073   3.229  14.873  0.1022  0.1362  0.0760
   91DOPE   PO4 1061   3.384   3.167  14.830  0.0519 -0.2259 -0.1252
   91DOPE   GL1 1062   3.437   3.191  14.444  0.0513  0.0092 -0.2286
   91DOPE   GL2 1063   3.179   3.228  14.304 -0.2774  0.0573  0.2227
   91DOPE   C1A 1064   3.561   2.955  14.066 -0.0945 -0.0416 -0.2866
   91DOPE   D2A 1065   3.549   2.718  13.673 -0.1572  0.0897 -0.2540
   91DOPE   C3A 1066   3.723   2.967  13.292 -0.0301 -0.0917  0.1139
   91DOPE   C4A 1067   3.615   3.139  12.857 -0.2129  0.0508 -0.0261
   91DOPE   C1B 1068   3.432   3.458  14.023  0.0313  0.0261  0.2135
   91DOPE   D2B 1069   3.444   3.266  13.593 -0.0682  0.1262  0.1005
   91DOPE   C3B 1070   3.292   3.430  13.202 -0.2442  0.1007 -0.0766
   91DOPE   C4B 1071   3.370   3.626  12.899  0.1758  0.0416  0.1642
   92DOPC   NC3 1072   7.473   5.899  14.588 -0.1052  0.1615 -0.0459
   92DOPC   PO4 1073   7.603   5.529  14.679  0.2896 -0.0351  0.0584
   92DOPC   GL1 1074   7.901   5.574  14.283  0.2133  0.0472 -0.4070
   92DOPC   GL2 1075   7.773   5.826  14.149 -0.1543 -0.2212  0.1717
   92DOPC   C1A 1076   8.249   5.804  14.110 -0.2643 -0.0399  0.2616
   92DOPC   D2A 1077   8.365   5.874  13.701  0.2532  0.0724  0.2622
   92DOPC   C3A 1078   8.064   6.148  13.364  0.0200  0.0924  0.2102
   92DOPC   C4A 1079   8.086   6.421  13.002  0.1063 -0.0931 -0.1978
   92DOPC   C1B 1080   7.888   5.719  13.726 -0.0214  0.2191 -0.1614
   92DOPC   D2B 1081   7.911   5.665  13.247  0.0388  0.0072 -0.1240
   92DOPC   C3B 1082   7.500   5.706  12.966  0.0005  0.2208 -0.1898
   92DOPC   C4B 1083   7.367   5.969  12.631 -0.1460  0.0720  0.5784
   93POSM   NC3 1084   7.982   9.794  14.915  0.1063  0.0648 -0.3000
   93POSM   PO4 1085   7.983   9.385  14.981 -0.1182  0.3447  0.4389
   93POSM   AM1 1086   7.949   9.415  14.636  0.0924  0.0780 -0.1417
   93POSM   AM2 1087   8.204   9.436  14.480 -0.0841  0.1225 -0.0168
   93POSM   T1A 1088   7.852   9.456  14.079 -0.1336 -0.0749  0.1133
   93POSM   C2A 1089   7.612   9.691  13.788  0.1618  0.0821 -0.0979
   93POSM   C3A 1090   7.385   9.580  13.397  0.1810  0.0541  0.0090
   93POSM   C1B 1091   8.401   9.528  14.201 -0.0599  0.5385 -0.0264
   93POSM   D2B 1092   8.595   9.679  13.821  0.1770 -0.3871 -0.1119
   93POSM   C3B 1093   8.677   9.397  13.527 -0.1227 -0.3395  0.2534
   93POSM   C4B 1094   8.762   8.968  13.477 -0.0824  0.0261  0.0696
   94POSM   NC3 1095  33.439   7.025  14.771  0.0301  0.0855 -0.2133
   94POSM   PO4 1096  33.318   6.835  14.432 -0.0239 -0.0493  0.0041
   94POSM   AM1 1097  33.475   6.865  14.140  0.1735  0.2191 -0.0286
   94POSM   AM2 1098  33.526   6.773  13.901 -0.2555 -0.0894  0.0443
   94POSM   T1A 1099  33.530   7.275  13.847 -0.0715 -0.0933 -0.1712
   94POSM   C2A 1100  33.436   7.684  13.577  0.1019  0.3201  0.0814
   94POSM   C3A 1101  33.643   8.051  13.444 -0.1768  0.1054 -0.1191
   94POSM   C1B 1102  33.634   6.677  13.595 -0.3452  0.1447  0.3530
   94POSM   D2B 1103  33.742   6.612  13.206  0.2173 -0.2797 -0.0069
   94POSM   C3B 1104  33.473   6.642  12.873  0.0746  0.0954 -0.2384
   94POSM   C4B 1105  33.408   6.914  12.552  0.0808  0.1828 -0.0766
   95DOPC   NC3 1106  10.029   9.244  14.873  0.0273  0.0100 -0.0740
   95DOPC   PO4 1107   9.820   9.559  14.964 -0.2543 -0.2698  0.0315
   95DOPC   GL1 1108   9.849   9.663  14.598  0.0544 -0.0040  0.1947
   95DOPC   GL2 1109  10.016   9.874  14.450 -0.1921 -0.0649 -0.1461
   95DOPC   C1A 1110   9.683   9.597  14.187  0.5421  0.1200  0.0837
   95DOPC   D2A 1111   9.773   9.448  13.748  0.0330  0.1445  0.1944
   95DOPC   C3A 1112   9.874   9.724  13.422 -0.3188  0.1175 -0.4066
   95DOPC   C4A 1113   9.919   9.599  12.999 -0.2114  0.1254 -0.1985
   95DOPC   C1B 1114   9.770  10.167  14.355  0.0518  0.1403  0.0376
   95DOPC   D2B 1115   9.665  10.479  13.998 -0.0376 -0.1812  0.0348
   95DOPC   C3B 1116   9.657  10.448  13.580  0.0140  0.1277 -0.0612
   95DOPC   C4B 1117   9.894  10.179  13.263  0.4508  0.2298  0.0931
   96DOPS   CNO 1118   6.697   7.448  15.023  0.0432  0.2432 -0.0525
   96DOPS   PO4 1119   6.646   7.116  14.852 -0.2215 -0.1118 -0.2591
   96DOPS   GL1 1120   6.565   7.239  14.443  0.0267  0.1039  0.0641
   96DOPS   GL2 1121   6.851   7.063  14.350  0.3565  0.3055 -0.1055
   96DOPS   C1A 1122   6.240   7.149  14.105  0.1880 -0.1397  0.1925
   96DOPS   D2A 1123   6.204   7.096  13.620 -0.1777  0.0224  0.0754
   96DOPS   C3A 1124   5.952   6.752  13.422  0.4034  0.1903 -0.1402
   96DOPS   C4A 1125   5.765   6.379  13.253  0.0809  0.0940  0.0521
   96DOPS   C1B 1126   6.769   6.901  13.945  0.0514 -0.1306  0.2285
   96DOPS   D2B 1127   6.897   6.870  13.489 -0.2872  0.3454  0.1949
   96DOPS   C3B 1128   6.807   6.964  13.025  0.0161 -0.2271  0.0155
   96DOPS   C4B 1129   6.788   7.289  12.744 -0.1365  0.2117  0.0649
   97DOPE   NH3 1130  10.790   3.868  14.461 -0.0515  0.0223 -0.2014
   97DOPE   PO4 1131  10.737   4.177  14.448 -0.2127  0.0445  0.3881
   97DOPE   GL1 1132  10.425   4.210  14.217  0.3595 -0.1733  0.1945
   97DOPE   GL2 1133  10.185   4.425  14.288  0.0916 -0.2992  0.2490
   97DOPE   C1A 1134  10.646   4.447  13.854  0.0288 -0.1681 -0.1056
   97DOPE   D2A 1135  10.632   4.861  13.789  0.2106  0.0253 -0.1503
   97DOPE   C3A 1136  10.671   5.080  13.355 -0.3228  0.0667 -0.1228
   97DOPE   C4A 1137  10.411   5.102  13.006  0.1577 -0.0829  0.3821
   97DOPE   C1B 1138  10.110   4.634  13.899 -0.0050 -0.0610 -0.0168
   97DOPE   D2B 1139  10.046   4.738  13.465  0.3053  0.2372  0.0319
   97DOPE   C3B 1140   9.608   4.782  13.252  0.0455 -0.2175 -0.1167
   97DOPE   C4B 1141   9.222   5.002  13.295 -0.1190  0.2987 -0.1242
   98DOPS   CNO 1142   4.019   8.451  15.237  0.1217 -0.2559  0.0575
   98DOPS   PO4 1143   3.697   8.595  15.341  0.1304  0.1246 -0.2647
   98DOPS   GL1 1144   3.486   8.559  14.980 -0.1199 -0.2266 -0.1081
   98DOPS   GL2 1145   3.717   8.388  14.836  0.0865  0.0686  0.3429
   98DOPS   C1A 1146   3.103   8.770  14.799 -0.0038 -0.1024 -0.0417
   98DOPS   D2A 1147   3.093   9.217  14.695  0.1084 -0.0863  0.1044
   98DOPS   C3A 1148   3.140   9.531  14.406  0.1255  0.0302 -0.3749
   98DOPS   C4A 1149   3.569   9.801  14.453  0.1262 -0.4290  0.2784
   98DOPS   C1B 1150   3.494   8.659  14.497 -0.0915  0.0864 -0.0250
   98DOPS   D2B 1151   3.281   9.048  14.292 -0.0885  0.2149  0.1441
   98DOPS   C3B 1152   3.015   9.081  13.936  0.0134 -0.1855  0.0625
   98DOPS   C4B 1153   2.778   9.234  13.568 -0.1949 -0.2719 -0.1806
   99DOPS   CNO 1154   0.546   2.722  13.901  0.0790  0.3220  0.1976
   99DOPS   PO4 1155   0.500   2.344  13.889 -0.0067 -0.2366  0.1555
   99DOPS   GL1 1156   0.569   2.434  13.475  0.3065  0.1072 -0.1096
   99DOPS   GL2 1157   0.832   2.632  13.480  0.1408  0.0999 -0.2598
   99DOPS   C1A 1158   0.701   2.418  12.979  0.0337 -0.1728  0.2207
   99DOPS   D2A 1159   0.963   2.292  12.650 -0.0985 -0.4501  0.0413
   99DOPS   C3A 1160   1.395   2.269  12.645 -0.0847  0.5071  0.1866
   99DOPS   C4A 1161   1.712   2.446  12.325  0.2270 -0.0747  0.2944
   99DOPS   C1B 1162   0.482   2.893  13.405  0.1040  0.0018 -0.0438
   99DOPS   D2B 1163   0.278   3.235  13.230  0.1956  0.2512 -0.1174
   99DOPS   C3B 1164   0.291   3.366  12.766  0.0018 -0.0771  0.1620
   99DOPS   C4B 1165   0.191   3.240  12.322  0.0164  0.2533  0.1044
  100POSM   NC3 1166   3.902   6.213  15.636 -0.1204 -0.0060 -0.0948
  100POSM   PO4 1167   3.899   5.984  15.354 -0.0830  0.0085 -0.2125
  100POSM   AM1 1168   3.835   5.988  15.027  0.4189  0.3119 -0.0872
  100POSM   AM2 1169   3.703   5.897  14.809  0.5365  0.1858  0.1908
  100POSM   T1A 1170   4.074   6.155  14.625 -0.3115  0.0129 -0.4601
  100POSM   C2A 1171   4.232   6.167  14.161  0.0319 -0.1842 -0.1187
  100POSM   C3A 1172   4.157   6.462  13.835  0.0171  0.3053  0.0392
  100POSM   C1B 1173   3.592   6.211  14.671  0.1298 -0.1623  0.1755
  100POSM   D2B 1174   3.257   6.454  14.524  0.1125  0.2610  0.0795
  100POSM   C3B 1175   3.336   6.698  14.120 -0.2394 -0.0473 -0.1322
  100POSM   C4B 1176   3.441   7.182  14.043  0.2417  0.0190 -0.0191
  101POSM   NC3 1177  11.492   7.621  15.183  0.2418  0.1034 -0.2268
  101POSM   PO4 1178  11.189   7.402  15.073 -0.0787 -0.0171 -0.2436
  101POSM   AM1 1179  11.151   7.651  14.865 -0.1649 -0.1437  0.0336
  101POSM   AM2 1180  11.164   7.922  14.844 -0.1020  0.0219  0.0782
  101POSM   T1A 1181  11.061   7.681  14.375  0.1914 -0.0975 -0.1069
  101POSM   C2A 1182  11.077   7.555  13.984 -0.0621 -0.0052 -0.3852
  101POSM   C3A 1183  10.774   7.352  13.725 -0.1172  0.1253 -0.1943
  101POSM   C1B 1184  10.922   8.090  14.681  0.2227 -0.0360 -0.0326
  101POSM   D2B 1185  10.732   8.035  14.262 -0.3107  0.0022 -0.0172
  101POSM   C3B 1186  10.592   7.545  14.209 -0.1875  0.2810 -0.2389
  101POSM   C4B 1187  10.809   7.161  14.156 -0.1630  0.2417 -0.0434
  102DOPC   NC3 1188   3.061   1.259  14.837  0.1977  0.0653  0.1288
  102DOPC   PO4 1189   2.787   1.300  14.545  0.0839  0.0219  0.0250
  102DOPC   GL1 1190   2.959   1.413  14.202 -0.2194  0.1165 -0.0055
  102DOPC   GL2 1191   2.955   1.153  14.042 -0.0113 -0.0468  0.0223
  102DOPC   C1A 1192   3.249   1.493  13.857  0.3358 -0.1440  0.0887
  102DOPC   D2A 1193   3.397   1.343  13.467 -0.0309  0.0508 -0.0962
  102DOPC   C3A 1194   3.602   1.467  13.050  0.1420  0.0545  0.1130
  102DOPC   C4A 1195   3.599   1.805  12.674 -0.1098  0.1301 -0.4443
  102DOPC   C1B 1196   3.212   0.882  13.695 -0.0376 -0.2835  0.0958
  102DOPC   D2B 1197   3.017   0.807  13.291  0.0895  0.0845 -0.0006
  102DOPC   C3B 1198   2.999   1.074  12.878 -0.1284  0.1857 -0.3688
  102DOPC   C4B 1199   3.166   1.305  12.544  0.2590  0.2756 -0.0450
  103POSM   NC3 1200   2.990  12.053  15.452 -0.1002 -0.1186 -0.1824
  103POSM   PO4 1201   3.416  11.995  15.334  0.0750 -0.0622 -0.0493
  103POSM   AM1 1202   3.415  12.268  15.189  0.1552 -0.0558 -0.2570
  103POSM   AM2 1203   3.517  12.536  15.200  0.1657 -0.1748 -0.1683
  103POSM   T1A 1204   3.185  12.509  14.804 -0.0177  0.1399  0.1646
  103POSM   C2A 1205   2.977  12.659  14.411 -0.2095  0.3165  0.1525
  103POSM   C3A 1206   3.139  12.843  14.015 -0.2757  0.2363 -0.0091
  103POSM   C1B 1207   3.706  12.737  14.994  0.0885 -0.1465  0.3010
  103POSM   D2B 1208   3.889  12.768  14.593 -0.2420 -0.2328  0.2157
  103POSM   C3B 1209   3.966  12.392  14.331  0.1760 -0.0671 -0.0544
  103POSM   C4B 1210   3.875  11.968  14.390 -0.0067  0.1374  0.3907
  104DOPC   NC3 1211   6.752   5.361  14.575 -0.3001 -0.2065 -0.2397
  104DOPC   PO4 1212   7.088   5.491  14.701  0.1400  0.2383  0.1461
  104DOPC   GL1 1213   7.266   5.529  14.331  0.0755  0.0408 -0.0820
  104DOPC   GL2 1214   7.319   5.190  14.344 -0.4313 -0.1019 -0.1079
  104DOPC   C1A 1215   7.340   5.659  13.872 -0.1071 -0.1181 -0.0588
  104DOPC   D2A 1216   7.510   5.426  13.473 -0.2842 -0.1222  0.1785
  104DOPC   C3A 1217   7.219   5.309  13.107 -0.2658 -0.2276  0.2858
  104DOPC   C4A 1218   6.775   5.341  12.977  0.0149 -0.0624  0.0078
  104DOPC   C1B 1219   7.645   5.262  13.947 -0.0188  0.1264 -0.0134
  104DOPC   D2B 1220   7.899   5.113  13.575 -0.0409 -0.3210 -0.0760
  104DOPC   C3B 1221   7.631   4.877  13.299 -0.0808  0.1613 -0.3246
  104DOPC   C4B 1222   7.681   4.584  12.942  0.3712  0.0089  0.0207
  105POSM   NC3 1223  10.097   5.453  14.712  0.2010  0.1881  0.1241
  105POSM   PO4 1224  10.384   5.596  14.878  0.2149  0.0144 -0.2183
  105POSM   AM1 1225  10.574   5.679  14.633 -0.1021 -0.0881 -0.3361
  105POSM   AM2 1226  10.666   5.526  14.411  0.2010  0.2989  0.0658
  105POSM   T1A 1227  10.606   5.893  14.125  0.1270  0.2978 -0.3710
  105POSM   C2A 1228  10.809   6.026  13.706  0.1338  0.2500  0.3819
  105POSM   C3A 1229  10.767   5.971  13.270  0.0501  0.2071  0.0745
  105POSM   C1B 1230  10.679   5.418  14.062 -0.1728 -0.3205 -0.0472
  105POSM   D2B 1231  10.522   5.463  13.659 -0.0292 -0.1359  0.2275
  105POSM   C3B 1232  10.524   5.545  13.207  0.0392  0.2289 -0.0757
  105POSM   C4B 1233  10.372   5.877  12.913  0.0061  0.0562 -0.3768
  106POSM   NC3 1234   7.463   1.267  14.664  0.4383 -0.2262  0.0068
  106POSM   PO4 1235   7.367   0.924  14.805  0.1270  0.2706  0.3400
  106POSM   AM1 1236   7.339   0.895  14.473  0.0812  0.0234  0.0156
  106POSM   AM2 1237   7.103   0.964  14.355 -0.0228  0.0987  0.3166
  106POSM   T1A 1238   7.368   0.789  13.974  0.0026 -0.2328  0.1697
  106POSM   C2A 1239   7.340   0.514  13.585 -0.0367  0.0204 -0.1316
  106POSM   C3A 1240   7.442   0.299  13.186  0.0467  0.1081  0.3012
  106POSM   C1B 1241   6.954   1.059  14.084  0.2782  0.0107  0.0212
  106POSM   D2B 1242   6.491   1.180  13.877  0.0179  0.2166 -0.1521
  106POSM   C3B 1243   6.241   1.598  14.038 -0.1725 -0.1860 -0.1429
  106POSM   C4B 1244   5.939   1.945  13.885  0.1824  0.0479 -0.1263
  107DOPC   NC3 1245   0.762   3.113  14.115 -0.0060 -0.2050 -0.1585
  107DOPC   PO4 1246   0.395   3.238  14.126 -0.0941  0.0474  0.1396
  107DOPC   GL1 1247   0.354   3.185  13.717 -0.1006  0.0024 -0.0550
  107DOPC   GL2 1248   0.603   3.340  13.601 -0.1063  0.1887 -0.0343
  107DOPC   C1A 1249   0.190   3.597  13.568  0.2980  0.0969  0.0411
  107DOPC   D2A 1250   0.199   3.680  13.128  0.0660  0.0576  0.1267
  107DOPC   C3A 1251   0.358   4.045  12.945 -0.0504 -0.1574  0.0897
  107DOPC   C4A 1252   0.258   4.333  12.584  0.0226 -0.2649 -0.2374
  107DOPC   C1B 1253   0.708   3.478  13.124 -0.1973  0.2029  0.2530
  107DOPC   D2B 1254   0.922   3.593  12.690  0.2059 -0.3936 -0.1609
  107DOPC   C3B 1255   0.725   3.980  12.538  0.1573  0.1430 -0.0864
  107DOPC   C4B 1256   0.482   4.121  12.171 -0.0905 -0.0704 -0.0230
  108DOPE   NH3 1257   1.337   0.652  14.170 -0.2241  0.2341 -0.0018
  108DOPE   PO4 1258   1.061   0.675  14.001  0.0147 -0.3715  0.0667
  108DOPE   GL1 1259   1.098   0.533  13.676 -0.1375  0.2514  0.1551
  108DOPE   GL2 1260   1.389   0.495  13.616 -0.0570  0.0315  0.0762
  108DOPE   C1A 1261   1.022   0.553  13.215 -0.0239  0.0097 -0.1416
  108DOPE   D2A 1262   0.715   0.525  12.832 -0.0178  0.2444 -0.0601
  108DOPE   C3A 1263   0.884   0.418  12.417  0.3608 -0.0006 -0.1546
  108DOPE   C4A 1264   1.211   0.412  12.097  0.3507 -0.1642  0.1881
  108DOPE   C1B 1265   1.494   0.849  13.336  0.1966  0.0645 -0.1451
  108DOPE   D2B 1266   1.192   1.087  13.085 -0.1677  0.0261  0.0805
  108DOPE   C3B 1267   1.468   1.372  12.842  0.2346 -0.2839  0.0482
  108DOPE   C4B 1268   1.813   1.549  12.528 -0.0039  0.1833  0.0540
  109DOPC   NC3 1269  34.520   3.973  14.345  0.0956 -0.0060  0.4516
  109DOPC   PO4 1270  34.588   4.384  14.410  0.0798 -0.3542  0.1814
  109DOPC   GL1 1271  34.623   4.360  14.016 -0.3455  0.0979 -0.1423
  109DOPC   GL2 1272  34.560   4.108  13.898  0.4448 -0.1395 -0.2771
  109DOPC   C1A 1273  34.950   4.546  13.736  0.1035  0.0395  0.0402
  109DOPC   D2A 1274  35.315   4.726  13.630 -0.0398  0.3560 -0.1327
  109DOPC   C3A 1275  35.578   4.724  13.239  0.0069  0.2227 -0.0780
  109DOPC   C4A 1276  35.955   4.931  13.104 -0.1520 -0.3495 -0.0535
  109DOPC   C1B 1277  34.505   4.407  13.546 -0.1934  0.0945 -0.1858
  109DOPC   D2B 1278  34.474   4.767  13.313  0.0490  0.0566  0.1152
  109DOPC   C3B 1279  34.184   4.957  12.957  0.0219  0.1529 -0.3276
  109DOPC   C4B 1280  33.786   5.137  12.755 -0.1121  0.0123  0.2829
  110POSM   NC3 1281  11.451   9.247  14.898  0.0159  0.0519 -0.0708
  110POSM   PO4 1282  11.236   8.959  15.092  0.0049  0.1180 -0.1131
  110POSM   AM1 1283  11.176   8.912  14.777  0.0933  0.2221 -0.2943
  110POSM   AM2 1284  11.224   8.681  14.614 -0.0799  0.3532  0.1587
  110POSM   T1A 1285  11.302   9.124  14.332 -0.2504 -0.2173 -0.0257
  110POSM   C2A 1286  11.506   9.365  13.988  0.2495 -0.3567 -0.1335
  110POSM   C3A 1287  11.905   9.562  13.877  0.2804 -0.3682  0.0132
  110POSM   C1B 1288  10.996   8.581  14.382 -0.1599 -0.3049 -0.0851
  110POSM   D2B 1289  10.569   8.641  14.147  0.0038  0.0811  0.1963
  110POSM   C3B 1290  10.465   8.991  13.838 -0.0976 -0.1898  0.1580
  110POSM   C4B 1291  10.238   9.321  13.607 -0.0407  0.3253 -0.1532
  111POSM   NC3 1292   2.798  11.452  15.040 -0.1832 -0.0131  0.0104
  111POSM   PO4 1293   2.645  11.656  15.296  0.2249  0.1767 -0.2801
  111POSM   AM1 1294   2.479  11.808  15.029  0.0992 -0.1840  0.1900
  111POSM   AM2 1295   2.571  11.811  14.775  0.0173 -0.1298  0.3420
  111POSM   T1A 1296   2.087  11.781  14.732 -0.1323  0.0830  0.1120
  111POSM   C2A 1297   1.825  11.633  14.449  0.0616 -0.0714  0.2025
  111POSM   C3A 1298   1.647  11.375  14.070  0.0368  0.1727  0.0463
  111POSM   C1B 1299   2.536  11.748  14.446 -0.2144  0.1409  0.0703
  111POSM   D2B 1300   2.742  11.612  14.063  0.1837  0.2899  0.1032
  111POSM   C3B 1301   2.491  11.571  13.685 -0.1569 -0.0784 -0.1083
  111POSM   C4B 1302   2.235  11.843  13.474 -0.1944 -0.5984 -0.0323
  112POSM   NC3 1303   2.635   6.940  15.666 -0.2750 -0.0624 -0.1328
  112POSM   PO4 1304   2.477   6.754  15.377 -0.2249 -0.1646  0.2585
  112POSM   AM1 1305   2.388   6.714  15.099  0.1219  0.0594  0.0395
  112POSM   AM2 1306   2.150   6.801  14.962  0.0803 -0.2207 -0.0851
  112POSM   T1A 1307   2.438   6.567  14.574  0.1839  0.0159  0.1370
  112POSM   C2A 1308   2.710   6.301  14.315 -0.0934  0.0285 -0.0038
  112POSM   C3A 1309   3.033   6.322  13.949  0.0626  0.0354  0.1615
  112POSM   C1B 1310   2.156   6.961  14.705  0.0645 -0.2062  0.4491
  112POSM   D2B 1311   2.243   6.934  14.210 -0.0402  0.0931 -0.0793
  112POSM   C3B 1312   2.394   6.877  13.789 -0.0997 -0.0722  0.1811
  112POSM   C4B 1313   2.254   6.841  13.391  0.1061 -0.1878 -0.3788
  113POSM   NC3 1314   2.164  12.472  15.558  0.3236 -0.1826 -0.2295
  113POSM   PO4 1315   1.905  12.147  15.456  0.0557  0.1010  0.0974
  113POSM   AM1 1316   1.962  12.166  15.138 -0.0209  0.1147 -0.2892
  113POSM   AM2 1317   2.169  12.211  14.956 -0.1969 -0.3589  0.0621
  113POSM   T1A 1318   1.801  12.219  14.641 -0.2074  0.0155 -0.0496
  113POSM   C2A 1319   2.069  12.140  14.237 -0.0535 -0.0489 -0.0543
  113POSM   C3A 1320   2.464  12.022  13.974  0.4984  0.3209  0.1565
  113POSM   C1B 1321   2.317  12.236  14.639  0.4688  0.2057 -0.1686
  113POSM   D2B 1322   2.517  12.394  14.289 -0.2909  0.2379 -0.2861
  113POSM   C3B 1323   2.298  12.639  13.994  0.2238  0.1144  0.0074
  113POSM   C4B 1324   1.999  12.899  13.767  0.0977 -0.2336  0.3095
  114DOPC   NC3 1325  13.955   8.123  15.028  0.1186 -0.2144 -0.0287
  114DOPC   PO4 1326  13.587   8.155  15.086  0.5922  0.1088  0.2777
  114DOPC   GL1 1327  13.540   8.169  14.675 -0.3196  0.1077 -0.1222
  114DOPC   GL2 1328  13.468   7.889  14.606 -0.0330  0.1505  0.1795
  114DOPC   C1A 1329  13.710   8.235  14.226 -0.1691 -0.2343  0.2547
  114DOPC   D2A 1330  13.660   8.162  13.755  0.0606 -0.3924 -0.3170
  114DOPC   C3A 1331  13.826   8.472  13.386  0.3782 -0.0271  0.2597
  114DOPC   C4A 1332  14.037   8.758  13.063 -0.0001  0.0754 -0.0018
  114DOPC   C1B 1333  13.363   7.898  14.102  0.4042 -0.0609 -0.2112
  114DOPC   D2B 1334  13.117   8.042  13.777  0.0327  0.1236 -0.2291
  114DOPC   C3B 1335  12.781   7.992  13.471  0.2202 -0.0971  0.3565
  114DOPC   C4B 1336  12.561   8.075  13.067 -0.2958  0.0171 -0.0350
  115POSM   NC3 1337   9.684   6.099  15.020  0.0094 -0.4211  0.0211
  115POSM   PO4 1338   9.817   6.422  14.813  0.4457 -0.2939 -0.0976
  115POSM   AM1 1339   9.898   6.196  14.622  0.3560 -0.1381 -0.0350
  115POSM   AM2 1340  10.140   6.013  14.621  0.2470  0.0079 -0.0812
  115POSM   T1A 1341   9.747   5.900  14.213 -0.0885 -0.2211  0.0978
  115POSM   C2A 1342   9.496   5.887  13.772 -0.1501  0.1297  0.2775
  115POSM   C3A 1343   9.221   5.783  13.430  0.1051 -0.1385  0.2831
  115POSM   C1B 1344  10.200   6.140  14.294  0.1610 -0.1420 -0.0719
  115POSM   D2B 1345  10.320   6.184  13.819  0.0532  0.1672  0.2666
  115POSM   C3B 1346  10.209   6.104  13.399 -0.2550  0.0963  0.1693
  115POSM   C4B 1347   9.981   6.206  13.041  0.2757  0.2049  0.0973
  116DOPS   CNO 1348   5.414   4.718  15.381 -0.2273  0.0031 -0.1136
  116DOPS   PO4 1349   5.672   4.646  15.120 -0.1493  0.0110  0.0672
  116DOPS   GL1 1350   5.496   4.749  14.790  0.1182 -0.2834  0.1310
  116DOPS   GL2 1351   5.247   4.630  14.812  0.5395  0.1710 -0.0980
  116DOPS   C1A 1352   5.397   4.808  14.325  0.0780 -0.1511 -0.1123
  116DOPS   D2A 1353   5.476   4.759  13.891 -0.0939 -0.3165  0.1194
  116DOPS   C3A 1354   5.364   5.051  13.535 -0.2001 -0.2365  0.1205
  116DOPS   C4A 1355   5.134   5.403  13.277 -0.0448  0.0630 -0.2876
  116DOPS   C1B 1356   5.284   4.353  14.446 -0.1699 -0.1472 -0.1681
  116DOPS   D2B 1357   5.192   4.368  14.000 -0.0043  0.2889 -0.0548
  116DOPS   C3B 1358   5.172   4.501  13.570  0.1981  0.3484  0.3299
  116DOPS   C4B 1359   5.041   4.658  13.128 -0.1739 -0.3347 -0.2592
  117DOPS   CNO 1360   0.716   7.730  15.212 -0.1312  0.1798  0.0446
  117DOPS   PO4 1361   1.103   7.783  15.090  0.1109 -0.0879  0.2966
  117DOPS   GL1 1362   1.163   7.634  14.700  0.1205  0.3953  0.1648
  117DOPS   GL2 1363   1.226   7.890  14.576 -0.1109 -0.0067 -0.0782
  117DOPS   C1A 1364   1.275   7.452  14.301 -0.1431  0.0205  0.0158
  117DOPS   D2A 1365   1.357   7.791  13.988 -0.3515  0.2818 -0.0418
  117DOPS   C3A 1366   1.434   7.953  13.545 -0.0778 -0.0571 -0.2146
  117DOPS   C4A 1367   1.575   8.279  13.226  0.1346 -0.2839 -0.1179
  117DOPS   C1B 1368   1.164   8.190  14.230  0.1197  0.1697  0.1494
  117DOPS   D2B 1369   0.795   8.475  14.023 -0.1811 -0.0869  0.1860
  117DOPS   C3B 1370   0.818   8.968  14.106 -0.1662  0.0016  0.0242
  117DOPS   C4B 1371   1.063   9.311  14.334  0.0879 -0.1351  0.1053
  118DOPS   CNO 1372   7.052   6.067  15.099 -0.1162 -0.0604  0.0120
  118DOPS   PO4 1373   6.991   6.028  14.763 -0.0133 -0.1016  0.2337
  118DOPS   GL1 1374   6.786   6.070  14.422  0.2125 -0.2571 -0.0281
  118DOPS   GL2 1375   6.681   5.828  14.438 -0.1022  0.0177  0.1174
  118DOPS   C1A 1376   7.077   6.056  14.062  0.0792  0.0167 -0.1372
  118DOPS   D2A 1377   7.153   6.093  13.621  0.1050  0.1610  0.2740
  118DOPS   C3A 1378   7.092   6.419  13.257  0.1801  0.0214  0.0085
  118DOPS   C4A 1379   6.732   6.369  12.966 -0.0485  0.2310  0.2650
  118DOPS   C1B 1380   6.899   5.611  14.065 -0.1993 -0.0852 -0.0349
  118DOPS   D2B 1381   7.060   5.253  13.822 -0.0001 -0.0869  0.2425
  118DOPS   C3B 1382   6.817   5.066  13.388  0.4161  0.2096 -0.4732
  118DOPS   C4B 1383   6.668   4.801  13.120 -0.0654 -0.2026  0.0593
  119POSM   NC3 1384   8.804   3.604  14.185  0.0843  0.2177 -0.3067
  119POSM   PO4 1385   8.684   3.289  14.321 -0.1365 -0.1638 -0.0837
  119POSM   AM1 1386   8.764   3.119  14.095 -0.1277 -0.0436 -0.2765
  119POSM   AM2 1387   8.898   2.869  14.066 -0.0343  0.2515  0.0546
  119POSM   T1A 1388   8.587   3.058  13.646  0.1210 -0.2200 -0.5473
  119POSM   C2A 1389   8.203   2.839  13.585  0.0138 -0.1066  0.0729
  119POSM   C3A 1390   7.849   2.649  13.373  0.0510 -0.1653  0.1971
  119POSM   C1B 1391   9.086   2.844  13.770  0.2097  0.1110 -0.3969
  119POSM   D2B 1392   9.442   2.903  13.434  0.1752 -0.2248 -0.0687
  119POSM   C3B 1393   9.329   3.012  12.992  0.1027 -0.0815 -0.0070
  119POSM   C4B 1394   8.991   3.272  12.772 -0.2925 -0.1247  0.2020
  120DOPE   NH3 1395   5.784  10.803  15.774 -0.2482 -0.3218  0.0836
  120DOPE   PO4 1396   5.972  10.738  15.475  0.3609 -0.0608  0.0205
  120DOPE   GL1 1397   5.913  10.760  15.134  0.0181 -0.1268 -0.0514
  120DOPE   GL2 1398   5.960  11.003  14.996 -0.4869 -0.2388  0.2600
  120DOPE   C1A 1399   5.920  10.599  14.740  0.2113  0.0375  0.0668
  120DOPE   D2A 1400   6.090  10.618  14.305  0.5354  0.0775 -0.2786
  120DOPE   C3A 1401   6.541  10.403  14.297  0.0227  0.1772  0.3350
  120DOPE   C4A 1402   6.997  10.537  14.267  0.0727 -0.0535  0.0442
  120DOPE   C1B 1403   5.779  11.022  14.599 -0.1172 -0.1060 -0.0446
  120DOPE   D2B 1404   5.824  10.998  14.126  0.1080  0.1788 -0.2168
  120DOPE   C3B 1405   6.050  10.778  13.786 -0.0366 -0.2765 -0.0968
  120DOPE   C4B 1406   6.398  10.920  13.487  0.2312 -0.2251  0.0451
  121POSM   NC3 1407   2.679   0.511  14.737 -0.1390 -0.1182  0.2214
  121POSM   PO4 1408   2.570   0.763  14.426  0.1943 -0.4326  0.0358
  121POSM   AM1 1409   2.703   0.739  14.108 -0.2931 -0.4756 -0.0473
  121POSM   AM2 1410   2.891   0.635  13.921 -0.2406 -0.0805  0.2131
  121POSM   T1A 1411   2.682   0.975  13.665 -0.3453 -0.0393 -0.1693
  121POSM   C2A 1412   2.839   1.284  13.346 -0.3029  0.0441  0.2701
  121POSM   C3A 1413   3.138   1.507  13.037  0.0093 -0.2114 -0.1077
  121POSM   C1B 1414   2.865   0.402  13.613  0.2527  0.1235  0.1634
  121POSM   D2B 1415   3.031   0.264  13.173  0.1718 -0.0126 -0.0980
  121POSM   C3B 1416   3.110   0.548  12.851  0.0578  0.1595  0.0319
  121POSM   C4B 1417   3.072   0.771  12.434  0.1002  0.1787 -0.2721
  122DOPS   CNO 1418   7.447   6.318  14.831  0.0459 -0.0433  0.0912
  122DOPS   PO4 1419   7.776   6.291  14.726  0.4884  0.1783  0.3670
  122DOPS   GL1 1420   7.861   6.232  14.300 -0.1671 -0.2381  0.3991
  122DOPS   GL2 1421   7.633   6.388  14.229 -0.2514 -0.0191  0.2744
  122DOPS   C1A 1422   8.056   6.258  13.896  0.1702  0.2092  0.1286
  122DOPS   D2A 1423   8.306   6.615  13.647  0.0803 -0.0227  0.2741
  122DOPS   C3A 1424   8.427   6.651  13.204 -0.1372 -0.0212 -0.1767
  122DOPS   C4A 1425   8.727   6.676  12.847  0.4502  0.3640  0.3434
  122DOPS   C1B 1426   7.576   6.163  13.837  0.1830  0.0856 -0.1929
  122DOPS   D2B 1427   7.620   6.013  13.417  0.0759 -0.0010  0.1938
  122DOPS   C3B 1428   7.582   6.259  13.026  0.1407 -0.1553  0.1287
  122DOPS   C4B 1429   7.755   6.711  12.870  0.0003  0.0757 -0.0979
  123POSM   NC3 1430  12.160   3.819  14.826  0.0676  0.3201  0.1527
  123POSM   PO4 1431  12.022   4.065  14.655  0.2331 -0.1457 -0.1722
  123POSM   AM1 1432  11.799   3.962  14.421 -0.2266 -0.0609  0.3125
  123POSM   AM2 1433  11.633   3.785  14.290 -0.2401 -0.0314  0.4127
  123POSM   T1A 1434  11.610   4.228  13.989  0.0989  0.3113 -0.2938
  123POSM   C2A 1435  11.530   4.551  13.693  0.0617 -0.0626  0.1508
  123POSM   C3A 1436  11.497   4.755  13.264 -0.2587  0.0362 -0.0429
  123POSM   C1B 1437  11.846   3.761  13.986 -0.3794  0.2989  0.2367
  123POSM   D2B 1438  11.963   3.475  13.678 -0.2133  0.1487  0.0033
  123POSM   C3B 1439  11.795   3.099  13.435 -0.1960 -0.0229 -0.0896
  123POSM   C4B 1440  11.414   2.975  13.213  0.1887 -0.0255  0.0880
  124POSM   NC3 1441   6.027   3.527  15.163 -0.1202 -0.0011  0.2083
  124POSM   PO4 1442   5.730   3.727  15.295  0.1168 -0.2484 -0.0608
  124POSM   AM1 1443   5.805   3.867  15.005 -0.3295 -0.1513  0.0776
  124POSM   AM2 1444   5.735   3.767  14.788  0.0114 -0.2254  0.1746
  124POSM   T1A 1445   5.926   4.187  14.649  0.0503  0.1122 -0.1727
  124POSM   C2A 1446   6.077   4.144  14.184 -0.1454  0.1640  0.2506
  124POSM   C3A 1447   6.426   3.974  13.941 -0.0330 -0.2473 -0.0697
  124POSM   C1B 1448   5.585   3.871  14.511  0.1000  0.0194  0.2356
  124POSM   D2B 1449   5.270   3.867  14.173 -0.3316  0.0016 -0.1411
  124POSM   C3B 1450   4.985   3.454  14.244  0.1626  0.3260  0.0503
  124POSM   C4B 1451   4.639   3.172  14.084 -0.1405 -0.0938  0.0777
  125POSM   NC3 1452   3.779  10.863  15.283 -0.2533  0.0325 -0.0683
  125POSM   PO4 1453   4.074  10.584  15.264 -0.3021  0.3740 -0.0377
  125POSM   AM1 1454   3.952  10.320  15.108 -0.2218 -0.0509 -0.1013
  125POSM   AM2 1455   3.989  10.240  14.842 -0.0555  0.1191 -0.1541
  125POSM   T1A 1456   3.586  10.038  14.918 -0.1129 -0.5290 -0.0792
  125POSM   C2A 1457   3.285   9.743  14.911  0.0603  0.1419 -0.2659
  125POSM   C3A 1458   2.849   9.581  14.934  0.3104  0.0762  0.2410
  125POSM   C1B 1459   4.048   9.942  14.701  0.1901 -0.0055  0.1623
  125POSM   D2B 1460   4.058   9.664  14.314 -0.0056  0.2184 -0.3672
  125POSM   C3B 1461   4.266   9.708  13.916 -0.2514  0.0479  0.0463
  125POSM   C4B 1462   4.355   9.557  13.499 -0.0018  0.0846 -0.1852
  126DOPE   NH3 1463  15.557   8.031  14.782  0.0936  0.0108  0.0895
  126DOPE   PO4 1464  15.229   8.115  14.819 -0.1484 -0.0641 -0.0551
  126DOPE   GL1 1465  15.105   8.107  14.450  0.0584  0.1174  0.0065
  126DOPE   GL2 1466  15.309   8.084  14.339 -0.0385 -0.0768  0.0442
  126DOPE   C1A 1467  15.004   8.342  14.030 -0.1225 -0.0281 -0.0587
  126DOPE   D2A 1468  15.084   8.231  13.593  0.1082  0.0368 -0.1020
  126DOPE   C3A 1469  15.375   8.018  13.302  0.1428  0.2766  0.1435
  126DOPE   C4A 1470  15.408   7.739  12.942  0.0015  0.1464  0.1293
  126DOPE   C1B 1471  15.351   7.948  13.922 -0.0661 -0.0161  0.0376
  126DOPE   D2B 1472  15.413   7.659  13.640 -0.0631  0.3727 -0.0692
  126DOPE   C3B 1473  15.789   7.751  13.343  0.1253  0.0616 -0.0495
  126DOPE   C4B 1474  15.808   7.982  12.982  0.2069 -0.0152  0.1937
  127DOPE   NH3 1475   2.682   4.516  15.048 -0.2136  0.2842 -0.4410
  127DOPE   PO4 1476   2.404   4.702  14.968 -0.0507 -0.7251 -0.2346
  127DOPE   GL1 1477   2.570   4.744  14.657 -0.1026  0.3411  0.0435
  127DOPE   GL2 1478   2.782   4.954  14.660 -0.0409 -0.1747  0.1530
  127DOPE   C1A 1479   2.742   4.688  14.231  0.0411 -0.1467 -0.1404
  127DOPE   D2A 1480   3.040   4.825  13.878 -0.1527  0.0727 -0.2599
  127DOPE   C3A 1481   3.290   4.879  13.463 -0.4979 -0.3803  0.0562
  127DOPE   C4A 1482   3.371   5.274  13.253  0.1175 -0.0627 -0.3730
  127DOPE   C1B 1483   2.583   5.222  14.357 -0.1823 -0.1393  0.0775
  127DOPE   D2B 1484   2.422   5.375  13.920  0.0297  0.0405 -0.2320
  127DOPE   C3B 1485   2.521   5.362  13.456 -0.1829 -0.1350  0.0564
  127DOPE   C4B 1486   2.564   5.448  13.011  0.1604 -0.2401  0.1064
  128DOPS   CNO 1487  10.537   0.254  14.685  0.0140  0.0509  0.0365
  128DOPS   PO4 1488  10.884   0.274  14.845 -0.1721 -0.1230 -0.1480
  128DOPS   GL1 1489  11.064   0.308  14.474 -0.0061 -0.0756 -0.1288
  128DOPS   GL2 1490  10.946   0.080  14.392 -0.1362  0.1289  0.1778
  128DOPS   C1A 1491  10.686   0.378  14.105  0.1080 -0.0553 -0.0452
  128DOPS   D2A 1492  10.426   0.267  13.824  0.1921  0.0586 -0.0951
  128DOPS   C3A 1493  10.298   0.536  13.469 -0.0786  0.0497 -0.1765
  128DOPS   C4A 1494  10.246   0.906  13.155 -0.1382  0.0759  0.3870
  128DOPS   C1B 1495  11.142   0.075  13.970  0.3588  0.5972  0.0498
  128DOPS   D2B 1496  11.022   0.132  13.451 -0.3932 -0.0881 -0.3141
  128DOPS   C3B 1497  10.613   0.134  13.223  0.0248 -0.0436  0.0793
  128DOPS   C4B 1498  10.545   0.237  12.777  0.2768 -0.1495  0.1457
  129DOPS   CNO 1499  33.382   5.635  14.289 -0.2288 -0.2788 -0.2610
  129DOPS   PO4 1500  33.605   5.937  14.235 -0.0083  0.1488 -0.0263
  129DOPS   GL1 1501  33.662   5.886  13.836 -0.0883 -0.2038  0.2534
  129DOPS   GL2 1502  33.646   6.217  13.814 -0.0452  0.0850  0.2088
  129DOPS   C1A 1503  33.999   5.880  13.496  0.7010  0.0057 -0.0302
  129DOPS   D2A 1504  34.482   5.867  13.375  0.0955  0.2399 -0.2709
  129DOPS   C3A 1505  34.698   6.106  13.061 -0.0540  0.0131 -0.0004
  129DOPS   C4A 1506  34.733   6.374  12.658  0.1409  0.1910  0.0148
  129DOPS   C1B 1507  33.540   6.165  13.391 -0.0689  0.0234 -0.1641
  129DOPS   D2B 1508  33.796   6.181  13.008  0.3673  0.0740  0.0393
  129DOPS   C3B 1509  33.658   6.151  12.622 -0.0309  0.0236  0.0610
  129DOPS   C4B 1510  33.382   6.090  12.315  0.0453  0.2389 -0.3090
  130DOPE   NH3 1511   2.816   7.647  15.307  0.1900 -0.3900  0.0994
  130DOPE   PO4 1512   2.796   7.965  15.458  0.0439 -0.1460 -0.0223
  130DOPE   GL1 1513   2.749   8.058  15.050  0.2422  0.2515  0.1517
  130DOPE   GL2 1514   2.811   7.851  14.862  0.2876  0.0283  0.1338
  130DOPE   C1A 1515   2.770   8.407  14.802 -0.0009  0.2343  0.0688
  130DOPE   D2A 1516   2.508   8.442  14.381  0.1205  0.2329  0.1505
  130DOPE   C3A 1517   2.625   8.634  13.968 -0.0897 -0.1303 -0.2000
  130DOPE   C4A 1518   2.755   8.778  13.549 -0.0048  0.0209 -0.2701
  130DOPE   C1B 1519   2.907   8.053  14.492  0.3369  0.0195  0.0164
  130DOPE   D2B 1520   2.851   8.106  14.043  0.2533  0.2381  0.2841
  130DOPE   C3B 1521   2.998   8.394  13.714  0.1240 -0.1228 -0.0014
  130DOPE   C4B 1522   3.094   8.457  13.270  0.1266  0.1322  0.1520
  131DOPC   NC3 1523   4.743   9.603  15.303 -0.2298  0.2212 -0.2294
  131DOPC   PO4 1524   4.994   9.322  15.382  0.1722 -0.0922  0.1814
  131DOPC   GL1 1525   4.862   9.158  15.049 -0.0068 -0.2583 -0.2353
  131DOPC   GL2 1526   5.036   8.941  14.968  0.1377 -0.3298 -0.2337
  131DOPC   C1A 1527   4.909   9.263  14.571 -0.1331 -0.0612 -0.1275
  131DOPC   D2A 1528   5.104   9.145  14.157  0.0921 -0.0706 -0.0117
  131DOPC   C3A 1529   5.118   9.214  13.695 -0.2056 -0.2422  0.1353
  131DOPC   C4A 1530   5.188   9.404  13.256 -0.1152 -0.1170 -0.2104
  131DOPC   C1B 1531   5.263   8.951  14.571  0.0243  0.0289 -0.1155
  131DOPC   D2B 1532   5.588   8.925  14.249  0.2817  0.0091 -0.1255
  131DOPC   C3B 1533   5.629   9.256  13.933 -0.0255  0.0855  0.1448
  131DOPC   C4B 1534   5.781   9.382  13.526  0.1854 -0.1874 -0.0124
  132DOPE   NH3 1535   8.473   7.353  14.733  0.4024  0.0196  0.0160
  132DOPE   PO4 1536   8.759   7.454  14.739 -0.1367  0.0829 -0.0010
  132DOPE   GL1 1537   8.789   7.601  14.393  0.0655 -0.2685  0.3384
  132DOPE   GL2 1538   8.501   7.569  14.307  0.1548 -0.1209 -0.1430
  132DOPE   C1A 1539   8.986   7.621  13.933  0.1795 -0.1984 -0.1150
  132DOPE   D2A 1540   8.973   7.539  13.483 -0.1223 -0.2897 -0.2041
  132DOPE   C3A 1541   8.761   7.645  13.082 -0.1719  0.3216  0.3276
  132DOPE   C4A 1542   8.573   8.086  13.027 -0.0136 -0.1175  0.2536
  132DOPE   C1B 1543   8.671   7.207  14.036 -0.0111  0.1718 -0.2151
  132DOPE   D2B 1544   8.587   7.152  13.566  0.1442  0.0640  0.1415
  132DOPE   C3B 1545   8.732   7.080  13.127  0.0566  0.3402  0.1472
  132DOPE   C4B 1546   8.982   7.252  12.794  0.1015 -0.1401  0.0058
  133DOPC   NC3 1547   0.687   6.060  14.769  0.1995  0.1720 -0.1670
  133DOPC   PO4 1548   0.830   5.765  14.985  0.2828 -0.1454 -0.1582
  133DOPC   GL1 1549   1.063   5.774  14.659 -0.1136  0.0461 -0.3478
  133DOPC   GL2 1550   1.146   5.678  14.454  0.2850 -0.0687 -0.1596
  133DOPC   C1A 1551   1.245   6.199  14.476 -0.0049  0.1299  0.2247
  133DOPC   D2A 1552   1.290   6.433  14.047 -0.1121  0.0147  0.1701
  133DOPC   C3A 1553   1.080   6.287  13.608 -0.1801  0.0576 -0.4000
  133DOPC   C4A 1554   0.704   6.193  13.328  0.0199 -0.1522  0.2952
  133DOPC   C1B 1555   1.457   5.800  14.157  0.2101  0.2657 -0.1650
  133DOPC   D2B 1556   1.522   5.988  13.729 -0.0089 -0.1725 -0.1269
  133DOPC   C3B 1557   1.564   6.382  13.510  0.1182 -0.2848  0.2037
  133DOPC   C4B 1558   1.675   6.738  13.230 -0.1507  0.0971  0.3028
  134DOPE   NH3 1559  12.061   4.523  14.882 -0.0366 -0.0929  0.0880
  134DOPE   PO4 1560  12.062   4.837  14.816 -0.1407  0.1513  0.0637
  134DOPE   GL1 1561  12.125   4.914  14.423  0.0950 -0.1270  0.0450
  134DOPE   GL2 1562  12.389   4.938  14.418  0.1085 -0.1545  0.0035
  134DOPE   C1A 1563  12.001   5.184  14.077 -0.1537  0.1639 -0.0119
  134DOPE   D2A 1564  11.929   5.463  13.678 -0.2271 -0.0535 -0.0304
  134DOPE   C3A 1565  11.472   5.504  13.644  0.1055  0.4201  0.2907
  134DOPE   C4A 1566  11.017   5.618  13.574  0.0765 -0.0794  0.1553
  134DOPE   C1B 1567  12.364   4.791  13.979 -0.2355 -0.2290 -0.0126
  134DOPE   D2B 1568  12.151   4.753  13.559 -0.0022  0.1885 -0.0221
  134DOPE   C3B 1569  12.582   4.779  13.335  0.3120 -0.0690 -0.1689
  134DOPE   C4B 1570  12.832   5.095  13.108 -0.1122 -0.0579 -0.2284
  135DOPE   NH3 1571   8.935   7.899  14.989  0.5826  0.0869 -0.3563
  135DOPE   PO4 1572   9.195   8.091  14.994  0.2095 -0.3028 -0.3305
  135DOPE   GL1 1573   9.250   8.172  14.599 -0.0366  0.2630 -0.0721
  135DOPE   GL2 1574   9.005   8.047  14.421  0.1197  0.2403 -0.0417
  135DOPE   C1A 1575   9.425   8.121  14.177  0.3010 -0.0009 -0.0123
  135DOPE   D2A 1576   9.472   8.266  13.746 -0.0059 -0.2502 -0.0186
  135DOPE   C3A 1577   9.439   7.998  13.377  0.2028  0.2389 -0.1277
  135DOPE   C4A 1578   9.374   7.608  13.195 -0.0468  0.0555 -0.0293
  135DOPE   C1B 1579   8.978   8.210  13.966  0.3991 -0.0706 -0.1877
  135DOPE   D2B 1580   8.967   8.450  13.562 -0.0239 -0.0611 -0.0477
  135DOPE   C3B 1581   8.829   8.612  13.123  0.0792  0.0091  0.1039
  135DOPE   C4B 1582   8.857   8.362  12.724  0.3222 -0.2409  0.2255
  136DOPC   NC3 1583   1.398   0.186  14.378  0.0990  0.1069 -0.1441
  136DOPC   PO4 1584   1.254   0.175  14.006  0.1438  0.1120  0.0995
  136DOPC   GL1 1585   1.142   0.126  13.585 -0.2088 -0.2573 -0.2875
  136DOPC   GL2 1586   1.312  -0.086  13.587 -0.4205 -0.0818 -0.2551
  136DOPC   C1A 1587   1.218   0.107  13.119  0.2285  0.1379  0.0832
  136DOPC   D2A 1588   1.289   0.150  12.690  0.1669  0.1016  0.0835
  136DOPC   C3A 1589   1.013  -0.078  12.449  0.3428  0.2722 -0.2067
  136DOPC   C4A 1590   1.111  -0.324  12.094 -0.0188 -0.2249 -0.1610
  136DOPC   C1B 1591   1.632  -0.192  13.226  0.1997  0.4497 -0.0122
  136DOPC   D2B 1592   1.767  -0.182  12.731 -0.0955  0.0176 -0.0232
  136DOPC   C3B 1593   1.584  -0.012  12.310 -0.0271 -0.2074  0.0677
  136DOPC   C4B 1594   1.670   0.476  12.251  0.1528 -0.0120  0.0991
  137DOPC   NC3 1595   9.087   3.005  14.516  0.3148 -0.0639  0.3191
  137DOPC   PO4 1596   9.431   3.144  14.661  0.2965 -0.2741  0.1982
  137DOPC   GL1 1597   9.516   3.107  14.269 -0.0258 -0.0038  0.1742
  137DOPC   GL2 1598   9.288   3.260  14.111 -0.0328 -0.1465 -0.2405
  137DOPC   C1A 1599   9.631   2.866  13.899  0.0231 -0.2301  0.1261
  137DOPC   D2A 1600   9.894   2.695  13.473  0.2583  0.0678  0.1546
  137DOPC   C3A 1601   9.830   2.775  13.037  0.0762 -0.0959 -0.0498
  137DOPC   C4A 1602   9.994   2.771  12.611  0.0323 -0.0306  0.3363
  137DOPC   C1B 1603   9.047   3.336  13.804  0.0284 -0.3179  0.0705
  137DOPC   D2B 1604   8.907   3.706  13.617  0.0640 -0.3463  0.1452
  137DOPC   C3B 1605   8.501   3.642  13.466 -0.0320  0.1892 -0.1028
  137DOPC   C4B 1606   8.131   3.769  13.677 -0.0666  0.3672  0.2323
  138DOPE   NH3 1607   9.506   3.875  14.558 -0.2326  0.0845 -0.0603
  138DOPE   PO4 1608   9.675   3.651  14.454  0.2893 -0.2564 -0.0535
  138DOPE   GL1 1609   9.875   3.694  14.034  0.0606  0.0124  0.0273
  138DOPE   GL2 1610  10.042   3.535  13.746  0.1556 -0.0063  0.0550
  138DOPE   C1A 1611   9.646   3.871  13.658 -0.2376  0.2433 -0.1145
  138DOPE   D2A 1612   9.298   4.168  13.656  0.2961 -0.0601  0.0340
  138DOPE   C3A 1613   9.334   4.505  14.002 -0.1904 -0.0226 -0.1415
  138DOPE   C4A 1614   9.450   4.856  13.752  0.2221 -0.0976  0.3142
  138DOPE   C1B 1615   9.591   3.375  13.748  0.0209 -0.2377  0.1417
  138DOPE   D2B 1616   9.292   3.401  13.345  0.2545  0.1991 -0.0685
  138DOPE   C3B 1617   8.933   3.064  13.313  0.0497 -0.0490  0.1953
  138DOPE   C4B 1618   8.551   2.824  13.138  0.1114 -0.3468 -0.0540
  139DOPE   NH3 1619  13.691   6.181  15.289  0.2765 -0.2383  0.0076
  139DOPE   PO4 1620  13.621   6.408  15.105  0.1306  0.3980 -0.0535
  139DOPE   GL1 1621  13.374   6.287  14.735 -0.3075 -0.0696  0.1540
  139DOPE   GL2 1622  13.590   6.167  14.619  0.3110  0.1265 -0.0827
  139DOPE   C1A 1623  13.189   6.292  14.320 -0.0572  0.0178  0.1662
  139DOPE   D2A 1624  12.797   6.127  14.059  0.0504  0.5005  0.0814
  139DOPE   C3A 1625  12.630   6.233  13.689  0.1643 -0.2736  0.1982
  139DOPE   C4A 1626  12.515   6.428  13.311  0.1575 -0.1671  0.0302
  139DOPE   C1B 1627  13.640   6.079  14.240  0.0052  0.1466 -0.1298
  139DOPE   D2B 1628  13.545   6.296  13.831 -0.0908 -0.2553  0.1367
  139DOPE   C3B 1629  13.112   6.467  13.853  0.2656  0.2294 -0.0064
  139DOPE   C4B 1630  12.853   6.680  13.559  0.0039  0.2212 -0.0488
  140DOPS   CNO 1631   1.415   2.234  14.460  0.4092  0.0765 -0.1890
  140DOPS   PO4 1632   1.498   2.441  14.136  0.1243 -0.0007 -0.0087
  140DOPS   GL1 1633   1.465   2.432  13.759  0.3229  0.4835  0.2714
  140DOPS   GL2 1634   1.681   2.538  13.652 -0.1378  0.1244 -0.1712
  140DOPS   C1A 1635   1.275   2.246  13.339  0.1806 -0.0581  0.1092
  140DOPS   D2A 1636   0.987   2.026  13.059 -0.0290  0.2091 -0.0767
  140DOPS   C3A 1637   0.991   1.623  12.810  0.2757 -0.0252  0.0164
  140DOPS   C4A 1638   0.849   1.372  12.401  0.2531  0.2660 -0.0028
  140DOPS   C1B 1639   1.321   2.767  13.448 -0.0184  0.1642 -0.0461
  140DOPS   D2B 1640   1.210   2.635  12.971 -0.1882 -0.0092 -0.0952
  140DOPS   C3B 1641   1.572   2.771  12.749  0.1520 -0.1637 -0.1080
  140DOPS   C4B 1642   1.966   2.783  12.681 -0.0786  0.0105 -0.0872
  141POSM   NC3 1643   4.542  10.460  15.138  0.0170  0.0055 -0.1116
  141POSM   PO4 1644   4.504  10.068  15.100  0.2196  0.1807 -0.0569
  141POSM   AM1 1645   4.485  10.052  14.797  0.2025  0.0604  0.3098
  141POSM   AM2 1646   4.425  10.214  14.577  0.0948 -0.0300 -0.0192
  141POSM   T1A 1647   4.506   9.808  14.345  0.1529 -0.1625  0.2279
  141POSM   C2A 1648   4.705   9.457  14.139 -0.0032  0.1245 -0.0916
  141POSM   C3A 1649   4.626   9.193  13.774  0.1108  0.0484 -0.0712
  141POSM   C1B 1650   4.409  10.312  14.288 -0.0437 -0.0538 -0.3574
  141POSM   D2B 1651   4.219  10.301  13.890 -0.0667  0.2115 -0.1730
  141POSM   C3B 1652   3.993   9.982  13.559  0.3259  0.0792 -0.2041
  141POSM   C4B 1653   4.079   9.832  13.128 -0.0169  0.0534  0.0087
  142DOPC   NC3 1654   1.581   5.713  14.738 -0.1096  0.0054  0.1464
  142DOPC   PO4 1655   1.720   5.972  14.984 -0.0060  0.2269  0.1616
  142DOPC   GL1 1656   1.774   6.137  14.650 -0.0488 -0.0955  0.1412
  142DOPC   GL2 1657   1.994   6.330  14.714  0.2412 -0.6455  0.0593
  142DOPC   C1A 1658   1.940   6.012  14.170  0.1994  0.1319 -0.1675
  142DOPC   D2A 1659   1.985   5.742  13.816  0.2819 -0.0910 -0.2274
  142DOPC   C3A 1660   1.972   5.304  13.638 -0.0363  0.1620 -0.0142
  142DOPC   C4A 1661   1.657   5.003  13.769 -0.0678 -0.1092 -0.0021
  142DOPC   C1B 1662   1.962   6.475  14.282  0.2103 -0.1761  0.2003
  142DOPC   D2B 1663   1.692   6.665  14.017  0.0943  0.0405  0.0916
  142DOPC   C3B 1664   1.877   6.950  13.668 -0.0614  0.2838 -0.2592
  142DOPC   C4B 1665   2.143   7.289  13.453 -0.1056  0.0245 -0.1961
  143DOPC   NC3 1666   4.079   4.553  14.900  0.0201  0.0889  0.0183
  143DOPC   PO4 1667   4.260   4.184  15.021  0.0280  0.0108  0.0514
  143DOPC   GL1 1668   4.362   4.238  14.664 -0.0100 -0.0652 -0.0814
  143DOPC   GL2 1669   4.569   4.416  14.593 -0.1647 -0.1180  0.2991
  143DOPC   C1A 1670   4.281   4.169  14.172  0.3412 -0.0324 -0.1735
  143DOPC   D2A 1671   4.409   4.020  13.730  0.0654  0.1597  0.2775
  143DOPC   C3A 1672   4.139   3.778  13.448 -0.1693 -0.1502  0.3933
  143DOPC   C4A 1673   3.867   3.633  13.071  0.0312 -0.0390 -0.0730
  143DOPC   C1B 1674   4.882   4.697  14.345 -0.1058  0.1193 -0.0273
  143DOPC   D2B 1675   5.012   4.939  13.964 -0.1497  0.0586  0.1800
  143DOPC   C3B 1676   4.848   5.008  13.549  0.0633  0.2038 -0.1230
  143DOPC   C4B 1677   4.613   5.204  13.264  0.1081  0.2011  0.2317
  144DOPS   CNO 1678   0.536   0.618  14.143  0.1862  0.0183 -0.2328
  144DOPS   PO4 1679   0.227   0.384  14.069  0.0914  0.0393 -0.0665
  144DOPS   GL1 1680   0.310   0.367  13.698 -0.0440 -0.1321 -0.2012
  144DOPS   GL2 1681   0.199   0.139  13.481 -0.0823  0.0632  0.0765
  144DOPS   C1A 1682   0.361   0.526  13.254 -0.2105 -0.2079 -0.2708
  144DOPS   D2A 1683   0.241   0.811  12.914 -0.0214 -0.3338 -0.0293
  144DOPS   C3A 1684  -0.147   0.937  12.777 -0.3077 -0.2073  0.1627
  144DOPS   C4A 1685  -0.333   1.406  12.736 -0.3083  0.0317 -0.1449
  144DOPS   C1B 1686   0.300   0.012  13.019 -0.1932  0.2410 -0.1595
  144DOPS   D2B 1687   0.215   0.242  12.629 -0.0902  0.0359 -0.1179
  144DOPS   C3B 1688   0.427   0.590  12.331 -0.1597 -0.0677 -0.3190
  144DOPS   C4B 1689   0.684   0.885  12.168  0.2587 -0.0151  0.0689
  145DOPC   NC3 1690  13.354   9.290  15.111 -0.0675 -0.0376 -0.1388
  145DOPC   PO4 1691  13.040   9.380  15.322 -0.2837 -0.0311  0.1108
  145DOPC   GL1 1692  12.702   9.436  15.018  0.3893 -0.2524  0.1325
  145DOPC   GL2 1693  12.732   9.307  14.732  0.0121 -0.2747  0.1272
  145DOPC   C1A 1694  12.718   9.842  14.691  0.3108 -0.2214 -0.0599
  145DOPC   D2A 1695  12.669  10.138  14.283 -0.0206 -0.3653 -0.0970
  145DOPC   C3A 1696  12.460  10.137  13.907  0.1410 -0.1264  0.0626
  145DOPC   C4A 1697  12.173  10.004  13.551  0.2706  0.3519 -0.0154
  145DOPC   C1B 1698  13.204   9.285  14.631  0.0948  0.1920  0.2384
  145DOPC   D2B 1699  13.461   9.448  14.280  0.2124 -0.0488  0.0903
  145DOPC   C3B 1700  13.600   9.078  13.987  0.0032 -0.1273 -0.0987
  145DOPC   C4B 1701  13.564   8.665  13.832 -0.1636 -0.2026 -0.1640
  146POSM   NC3 1702   8.038   5.242  14.620 -0.1670 -0.2506 -0.0398
  146POSM   PO4 1703   8.383   5.033  14.685 -0.0655  0.0247 -0.1046
  146POSM   AM1 1704   8.369   5.022  14.353  0.1511 -0.0176 -0.1595
  146POSM   AM2 1705   8.445   4.933  14.093  0.2442 -0.0952  0.1377
  146POSM   T1A 1706   8.144   5.286  14.002 -0.0787  0.0514 -0.1727
  146POSM   C2A 1707   8.323   5.366  13.572 -0.2003  0.1107  0.2971
  146POSM   C3A 1708   8.312   5.261  13.157  0.0004  0.0196  0.2031
  146POSM   C1B 1709   8.296   4.840  13.797  0.3451 -0.0738 -0.0695
  146POSM   D2B 1710   8.081   4.667  13.404  0.5528 -0.1977 -0.2419
  146POSM   C3B 1711   7.690   4.442  13.410 -0.2014  0.0722  0.1360
  146POSM   C4B 1712   7.353   4.207  13.557  0.2837  0.0895  0.3425
  147DOPC   NC3 1713   5.572  34.437  14.291 -0.2630 -0.3514 -0.0066
  147DOPC   PO4 1714   5.268  34.645  14.328  0.0146 -0.2001  0.1859
  147DOPC   GL1 1715   5.339  34.972  14.106  0.0577 -0.3547  0.1129
  147DOPC   GL2 1716   5.671  34.891  14.126 -0.2324  0.1712 -0.0051
  147DOPC   C1A 1717   5.503  35.042  13.665  0.1362  0.0979  0.0727
  147DOPC   D2A 1718   5.695  35.314  13.340 -0.0188  0.0438  0.1820
  147DOPC   C3A 1719   5.861  35.686  13.198 -0.1839  0.1251 -0.1317
  147DOPC   C4A 1720   5.975  36.125  13.072  0.0830 -0.0636 -0.0993
  147DOPC   C1B 1721   5.914  34.627  13.868 -0.1060 -0.1249  0.2818
  147DOPC   D2B 1722   6.189  34.202  13.810  0.2091 -0.0286 -0.3197
  147DOPC   C3B 1723   6.310  33.746  13.628  0.2550 -0.0225 -0.2041
  147DOPC   C4B 1724   6.446  33.362  13.778  0.2038  0.0881  0.0904
  148DOPC   NC3 1725   9.950  33.573  14.470  0.1444 -0.1055  0.0407
  148DOPC   PO4 1726   9.951  33.952  14.358 -0.0022  0.1797 -0.0064
  148DOPC   GL1 1727  10.138  33.923  13.981  0.0064  0.0231 -0.0082
  148DOPC   GL2 1728   9.938  33.614  13.960 -0.0637 -0.3201  0.1550
  148DOPC   C1A 1729  10.416  34.051  13.672 -0.0853  0.0210  0.3180
  148DOPC   D2A 1730  10.430  34.204  13.234 -0.0687  0.1210  0.0027
  148DOPC   C3A 1731  10.396  34.057  12.801  0.2590 -0.4266  0.1013
  148DOPC   C4A 1732  10.074  33.839  12.646 -0.0148 -0.1585  0.1854
  148DOPC   C1B 1733   9.873  33.944  13.551  0.0255 -0.2394 -0.1175
  148DOPC   D2B 1734   9.549  33.862  13.214  0.0716  0.0142 -0.3104
  148DOPC   C3B 1735   9.176  34.040  12.979  0.2431  0.0303  0.1267
  148DOPC   C4B 1736   8.743  34.065  12.834  0.1260  0.0178  0.1855
  149DOPE   NH3 1737   5.479   0.936  14.366  0.0991 -0.0338 -0.1827
  149DOPE   PO4 1738   5.803   1.038  14.397 -0.0119 -0.0252 -0.0026
  149DOPE   GL1 1739   5.892   1.116  13.992  0.4339 -0.1827 -0.3361
  149DOPE   GL2 1740   5.564   1.077  13.893 -0.0516  0.0707  0.0135
  149DOPE   C1A 1741   6.088   0.915  13.661 -0.1024  0.0659 -0.0029
  149DOPE   D2A 1742   6.322   0.674  13.377  0.1480  0.4475 -0.0994
  149DOPE   C3A 1743   6.335   0.790  12.956  0.0732  0.0222 -0.0949
  149DOPE   C4A 1744   6.269   0.588  12.577 -0.0987  0.3356  0.0829
  149DOPE   C1B 1745   5.827   1.361  13.623  0.0531  0.1474 -0.0554
  149DOPE   D2B 1746   6.230   1.580  13.517 -0.0300 -0.3353 -0.1239
  149DOPE   C3B 1747   6.245   1.745  13.058  0.0008 -0.0476 -0.1053
  149DOPE   C4B 1748   6.645   1.747  12.803 -0.2706  0.1611 -0.5298
  150POSM   NC3 1749   5.668   0.557  14.603 -0.1167  0.2567 -0.1759
  150POSM   PO4 1750   5.331   0.423  14.462 -0.0736 -0.2186 -0.4459
  150POSM   AM1 1751   5.237   0.593  14.182  0.1035  0.1179  0.1063
  150POSM   AM2 1752   5.106   0.839  14.074 -0.0868  0.3015 -0.1335
  150POSM   T1A 1753   5.263   0.686  13.681  0.2744 -0.1865  0.1009
  150POSM   C2A 1754   5.371   1.021  13.428 -0.1764 -0.0789 -0.1176
  150POSM   C3A 1755   5.375   1.485  13.379  0.0058 -0.2040 -0.0582
  150POSM   C1B 1756   5.047   1.070  13.876  0.0075 -0.4095  0.3081
  150POSM   D2B 1757   4.949   1.449  13.574  0.0850  0.1564  0.0757
  150POSM   C3B 1758   4.819   1.401  13.143 -0.1652 -0.2160 -0.2251
  150POSM   C4B 1759   4.504   1.130  12.921  0.0428  0.0977 -0.0146
  151POSM   NC3 1760   3.645   8.965  15.670  0.0447  0.0331 -0.0440
  151POSM   PO4 1761   3.835   9.218  15.477 -0.1628 -0.1920 -0.0735
  151POSM   AM1 1762   3.601   9.164  15.238 -0.3581 -0.1467  0.3909
  151POSM   AM2 1763   3.563   9.283  14.979 -0.2521  0.1936 -0.1830
  151POSM   T1A 1764   3.135   9.199  15.222  0.0222 -0.3263  0.1156
  151POSM   C2A 1765   2.720   9.120  15.009  0.0112 -0.0374  0.5450
  151POSM   C3A 1766   2.321   8.981  14.761 -0.1514 -0.2404  0.2280
  151POSM   C1B 1767   3.607   9.277  14.634  0.0439 -0.1564 -0.0539
  151POSM   D2B 1768   3.709   9.337  14.179  0.0107  0.2002  0.1298
  151POSM   C3B 1769   3.770   9.722  13.921 -0.2419 -0.0110  0.0163
  151POSM   C4B 1770   3.498   9.907  13.579  0.1095  0.2068  0.0134
  152DOPE   NH3 1771   0.015  34.284  13.891  0.1228  0.2280 -0.2238
  152DOPE   PO4 1772  -0.201  34.491  14.033 -0.4001 -0.2324 -0.2925
  152DOPE   GL1 1773  -0.201  34.627  13.679 -0.3954 -0.0121 -0.3860
  152DOPE   GL2 1774  -0.043  34.516  13.404  0.1885  0.1971 -0.1076
  152DOPE   C1A 1775  -0.383  34.935  13.387 -0.0176  0.0567 -0.0188
  152DOPE   D2A 1776  -0.611  35.214  13.067  0.1533  0.0862 -0.0085
  152DOPE   C3A 1777  -0.409  35.333  12.680 -0.0135 -0.1249 -0.0243
  152DOPE   C4A 1778  -0.092  35.339  12.370  0.6284 -0.0264  0.5337
  152DOPE   C1B 1779  -0.475  34.519  13.207 -0.3813 -0.3839 -0.0248
  152DOPE   D2B 1780  -0.813  34.790  13.174  0.0031 -0.0757  0.0360
  152DOPE   C3B 1781  -0.699  34.861  12.734  0.1831  0.3017  0.0295
  152DOPE   C4B 1782  -0.884  34.764  12.295  0.1155 -0.0963 -0.1342
  153POSM   NC3 1783  33.467   1.666  13.768  0.1834 -0.1856 -0.0392
  153POSM   PO4 1784  33.106   1.751  13.860  0.2803  0.0349  0.3267
  153POSM   AM1 1785  33.061   1.700  13.513 -0.3196 -0.1270 -0.2266
  153POSM   AM2 1786  33.194   1.892  13.309  0.2239  0.0473  0.0723
  153POSM   T1A 1787  33.122   1.361  13.094 -0.1005 -0.1839 -0.0194
  153POSM   C2A 1788  33.219   1.160  12.707  0.0276  0.0660  0.2005
  153POSM   C3A 1789  33.277   1.031  12.232  0.0826 -0.2362  0.1960
  153POSM   C1B 1790  33.279   1.915  12.974 -0.1844  0.3686  0.2136
  153POSM   D2B 1791  33.178   1.834  12.541 -0.3251  0.1789 -0.0219
  153POSM   C3B 1792  33.026   1.949  12.137 -0.1818  0.2423  0.1186
  153POSM   C4B 1793  32.858   2.107  11.778 -0.2591  0.1849  0.0515
  154DOPE   NH3 1794   5.171  12.042  15.237 -0.2501 -0.1132  0.1457
  154DOPE   PO4 1795   5.173  12.222  14.987 -0.0531 -0.0991 -0.0998
  154DOPE   GL1 1796   5.346  12.338  14.615  0.0654  0.2139  0.0279
  154DOPE   GL2 1797   5.215  12.616  14.438 -0.2741  0.0235 -0.3102
  154DOPE   C1A 1798   5.405  12.187  14.148  0.5280 -0.2037  0.2745
  154DOPE   D2A 1799   5.402  12.237  13.643 -0.0603 -0.2017  0.0302
  154DOPE   C3A 1800   5.075  12.308  13.335  0.0455 -0.0258  0.0463
  154DOPE   C4A 1801   4.894  12.674  13.076  0.1618  0.2711  0.0580
  154DOPE   C1B 1802   5.271  12.684  14.025  0.1153 -0.2091  0.1072
  154DOPE   D2B 1803   5.694  12.623  13.805  0.1810  0.0763  0.3933
  154DOPE   C3B 1804   5.898  12.974  13.636  0.2207  0.0405 -0.0797
  154DOPE   C4B 1805   6.038  13.438  13.754 -0.1542  0.5666 -0.1805
  155POSM   NC3 1806  32.663   5.768  14.492  0.0313 -0.0311  0.0257
  155POSM   PO4 1807  32.993   5.982  14.397 -0.1818 -0.2315  0.2622
  155POSM   AM1 1808  33.147   6.009  14.101  0.0931 -0.0158 -0.2255
  155POSM   AM2 1809  33.217   5.865  13.900  0.0148  0.2220 -0.0537
  155POSM   T1A 1810  33.172   6.329  13.621  0.2324  0.0310  0.0549
  155POSM   C2A 1811  33.075   6.534  13.246  0.3291  0.2259 -0.0323
  155POSM   C3A 1812  32.977   6.416  12.793 -0.2800 -0.0461  0.0487
  155POSM   C1B 1813  33.173   5.824  13.563  0.1957 -0.2272  0.0107
  155POSM   D2B 1814  33.157   5.954  13.073 -0.0256 -0.1510 -0.2345
  155POSM   C3B 1815  32.761   5.977  12.872 -0.3277 -0.1739 -0.0043
  155POSM   C4B 1816  32.276   6.096  12.991  0.0666 -0.1247 -0.0829
  156DOPS   CNO 1817   9.338   1.210  14.588  0.0866  0.1562 -0.1061
  156DOPS   PO4 1818   9.299   0.901  14.371  0.0163 -0.0695  0.0352
  156DOPS   GL1 1819   9.174   1.081  14.004 -0.1121 -0.1630 -0.1108
  156DOPS   GL2 1820   8.926   1.154  13.821  0.1996 -0.1855  0.1440
  156DOPS   C1A 1821   9.428   0.998  13.650 -0.2170 -0.1633  0.1144
  156DOPS   D2A 1822   9.494   0.781  13.258  0.1339  0.0612  0.1043
  156DOPS   C3A 1823   9.363   0.762  12.778  0.0929  0.2604  0.4057
  156DOPS   C4A 1824   9.001   0.914  12.605 -0.0365 -0.2696 -0.1429
  156DOPS   C1B 1825   8.577   1.374  13.708 -0.1053 -0.1179 -0.0728
  156DOPS   D2B 1826   8.212   1.645  13.597 -0.3455 -0.0742 -0.1137
  156DOPS   C3B 1827   7.874   1.619  13.298  0.3292  0.0123 -0.4154
  156DOPS   C4B 1828   7.456   1.730  13.511  0.1726  0.1621  0.1782
  157DOPC   NC3 1829   4.241   8.914  15.378  0.0056  0.1951 -0.1274
  157DOPC   PO4 1830   4.356   9.119  15.067  0.1674 -0.4029  0.1400
  157DOPC   GL1 1831   4.528   9.024  14.741  0.1916 -0.2092 -0.0071
  157DOPC   GL2 1832   4.422   9.114  14.480  0.0519 -0.1737  0.1179
  157DOPC   C1A 1833   4.786   8.777  14.428  0.0123 -0.0808  0.1911
  157DOPC   D2A 1834   4.795   8.794  13.992 -0.0180 -0.0090 -0.2429
  157DOPC   C3A 1835   4.572   8.442  13.876 -0.3822  0.2486  0.2573
  157DOPC   C4A 1836   4.522   8.005  13.841  0.1625  0.2822  0.1053
  157DOPC   C1B 1837   4.182   9.181  14.054  0.0233 -0.2472 -0.2402
  157DOPC   D2B 1838   3.974   9.021  13.673 -0.2583  0.2928  0.1938
  157DOPC   C3B 1839   3.920   8.554  13.704  0.1986  0.1929 -0.2004
  157DOPC   C4B 1840   3.606   8.209  13.534  0.3975 -0.2635  0.0553
  158DOPS   CNO 1841  34.291  10.102  15.383 -0.2524  0.0734 -0.1618
  158DOPS   PO4 1842  34.302  10.170  15.015  0.0396  0.4034 -0.3050
  158DOPS   GL1 1843  34.495  10.234  14.679 -0.0715 -0.3909  0.0960
  158DOPS   GL2 1844  34.729  10.133  14.646 -0.1601  0.4484  0.1755
  158DOPS   C1A 1845  34.163  10.337  14.359  0.0878  0.3363  0.0419
  158DOPS   D2A 1846  34.044  10.094  13.957 -0.1982  0.0142  0.0286
  158DOPS   C3A 1847  34.166  10.031  13.512  0.4649  0.3812  0.1686
  158DOPS   C4A 1848  34.208   9.737  13.116 -0.1851 -0.1292 -0.1605
  158DOPS   C1B 1849  34.641  10.411  14.277  0.3647 -0.2173  0.1436
  158DOPS   D2B 1850  34.427  10.422  13.870 -0.3444 -0.0131  0.0724
  158DOPS   C3B 1851  34.566  10.262  13.499 -0.1029 -0.3115 -0.0959
  158DOPS   C4B 1852  34.659  10.031  13.175 -0.2147  0.0214 -0.0267
  159DOPE   NH3 1853  11.923   9.273  14.842  0.0238  0.2122  0.0900
  159DOPE   PO4 1854  12.133   9.473  14.856 -0.3089  0.1200  0.1956
  159DOPE   GL1 1855  12.177   9.609  14.478  0.2959 -0.1697 -0.0154
  159DOPE   GL2 1856  12.230   9.954  14.552 -0.0901  0.1927 -0.3608
  159DOPE   C1A 1857  12.425   9.706  14.090 -0.1897 -0.1111  0.0882
  159DOPE   D2A 1858  12.809   9.794  13.819 -0.2519 -0.0658  0.3285
  159DOPE   C3A 1859  12.828   9.518  13.444 -0.0802 -0.0986  0.0781
  159DOPE   C4A 1860  12.678   9.140  13.150 -0.1752  0.2531  0.2553
  159DOPE   C1B 1861  11.823   9.944  14.307 -0.1412 -0.1345 -0.0709
  159DOPE   D2B 1862  11.419   9.900  14.275 -0.0470 -0.2467 -0.1414
  159DOPE   C3B 1863  11.233   9.811  13.834  0.0493  0.0320  0.0204
  159DOPE   C4B 1864  11.371  10.073  13.512 -0.0642  0.4122  0.1555
  160DOPC   NC3 1865  34.720   6.117  15.135  0.0873 -0.0908  0.2382
  160DOPC   PO4 1866  34.990   6.095  14.889  0.1679  0.1502  0.1076
  160DOPC   GL1 1867  35.121   6.225  14.494 -0.0061 -0.1657 -0.0204
  160DOPC   GL2 1868  34.942   6.457  14.376 -0.2021  0.0238  0.0574
  160DOPC   C1A 1869  35.523   6.114  14.254 -0.1006  0.0736 -0.2551
  160DOPC   D2A 1870  35.818   5.863  13.916 -0.3262  0.0221  0.0186
  160DOPC   C3A 1871  35.473   5.677  13.676  0.0859 -0.4042  0.1426
  160DOPC   C4A 1872  35.241   5.322  13.427  0.0508  0.2075  0.3876
  160DOPC   C1B 1873  35.187   6.658  13.981 -0.0940 -0.0033 -0.1299
  160DOPC   D2B 1874  35.352   6.690  13.508 -0.3131  0.1665 -0.2483
  160DOPC   C3B 1875  35.092   6.934  13.193  0.0986  0.1239  0.0852
  160DOPC   C4B 1876  35.054   7.368  12.992 -0.0352 -0.0315 -0.0791
  161DOPS   CNO 1877  31.790   3.734  14.115 -0.1273 -0.0067  0.0097
  161DOPS   PO4 1878  31.797   3.858  13.766 -0.0342 -0.0495 -0.0303
  161DOPS   GL1 1879  32.010   4.195  13.610  0.3644  0.1005 -0.5890
  161DOPS   GL2 1880  32.187   4.133  13.442 -0.0158 -0.1968 -0.1293
  161DOPS   C1A 1881  32.015   4.561  13.240  0.0933  0.0431 -0.0637
  161DOPS   D2A 1882  32.284   4.815  13.000  0.3484  0.1810 -0.4002
  161DOPS   C3A 1883  32.320   4.892  12.577 -0.1200  0.0785 -0.2465
  161DOPS   C4A 1884  32.390   4.899  12.107  0.0339 -0.2358 -0.1903
  161DOPS   C1B 1885  32.286   4.185  13.018  0.0408  0.2875  0.0269
  161DOPS   D2B 1886  32.020   4.453  12.743 -0.0385  0.1933  0.1880
  161DOPS   C3B 1887  32.264   4.441  12.384 -0.2838 -0.0069  0.0131
  161DOPS   C4B 1888  32.346   4.276  11.939 -0.1800 -0.0460  0.0689
  162DOPC   NC3 1889   2.537   2.032  14.843  0.1056 -0.1453 -0.0890
  162DOPC   PO4 1890   2.866   1.971  15.030  0.3451  0.1154  0.0608
  162DOPC   GL1 1891   2.851   1.842  14.588 -0.0686  0.0865 -0.0694
  162DOPC   GL2 1892   3.113   1.723  14.600  0.2268 -0.1813  0.1629
  162DOPC   C1A 1893   3.042   1.949  14.145  0.2906 -0.2345  0.3251
  162DOPC   D2A 1894   3.043   1.859  13.647 -0.1357 -0.0082  0.1230
  162DOPC   C3A 1895   2.842   2.208  13.432  0.0665  0.2300 -0.0977
  162DOPC   C4A 1896   2.559   2.477  13.105 -0.0224 -0.0820 -0.1326
  162DOPC   C1B 1897   3.393   2.065  14.436 -0.1447  0.4646 -0.1494
  162DOPC   D2B 1898   3.543   2.365  14.110  0.4300 -0.0110 -0.0053
  162DOPC   C3B 1899   3.564   2.142  13.705 -0.0106  0.2988  0.0005
  162DOPC   C4B 1900   3.426   1.921  13.252 -0.0080  0.0956  0.0991
  163DOPE   NH3 1901  11.901   9.902  14.994 -0.1130  0.1112 -0.1588
  163DOPE   PO4 1902  11.643   9.741  14.946  0.3447  0.1104  0.2010
  163DOPE   GL1 1903  11.439   9.567  14.595 -0.1674  0.0651  0.3168
  163DOPE   GL2 1904  11.720   9.545  14.505 -0.1267  0.2932 -0.3223
  163DOPE   C1A 1905  11.024   9.558  14.316  0.0658 -0.3232 -0.2485
  163DOPE   D2A 1906  10.708   9.529  13.952  0.0631 -0.0525  0.2160
  163DOPE   C3A 1907  10.871   9.209  13.662  0.0976 -0.1233  0.0060
  163DOPE   C4A 1908  10.950   8.768  13.533  0.0702 -0.0227  0.1990
  163DOPE   C1B 1909  11.950   9.207  14.288 -0.0520 -0.1912  0.0180
  163DOPE   D2B 1910  12.145   9.140  13.888 -0.3413  0.2464 -0.1141
  163DOPE   C3B 1911  11.915   9.147  13.491  0.2198  0.0280 -0.2307
  163DOPE   C4B 1912  11.672   9.227  13.085 -0.0317 -0.0215  0.1161
  164POSM   NC3 1913   6.759   8.739  15.261 -0.2185  0.0525 -0.0190
  164POSM   PO4 1914   6.912   8.617  14.890  0.2640 -0.2847  0.1367
  164POSM   AM1 1915   6.919   8.411  14.624 -0.1817 -0.2416 -0.0669
  164POSM   AM2 1916   6.952   8.173  14.520 -0.0439  0.0290 -0.1700
  164POSM   T1A 1917   6.838   8.492  14.135  0.1204 -0.0502  0.1469
  164POSM   C2A 1918   6.709   8.346  13.729  0.0948 -0.1188  0.0557
  164POSM   C3A 1919   6.903   8.161  13.363  0.0572 -0.2113  0.0843
  164POSM   C1B 1920   7.045   8.083  14.206  0.0380 -0.0660 -0.1103
  164POSM   D2B 1921   6.872   7.871  13.816 -0.2463  0.2449 -0.1000
  164POSM   C3B 1922   7.052   7.672  13.436  0.0121  0.2688  0.4141
  164POSM   C4B 1923   7.120   7.366  13.097 -0.0454 -0.2385  0.0490
  165DOPE   NH3 1924   5.441   7.626  14.923  0.0571 -0.0778  0.0077
  165DOPE   PO4 1925   5.280   7.336  14.989  0.3015 -0.2733 -0.2017
  165DOPE   GL1 1926   5.205   7.442  14.546 -0.2045 -0.0360 -0.1961
  165DOPE   GL2 1927   5.231   7.129  14.507  0.3753 -0.0807 -0.2047
  165DOPE   C1A 1928   4.965   7.508  14.123 -0.2196  0.3697 -0.0175
  165DOPE   D2A 1929   4.656   7.438  13.787  0.1024 -0.0116 -0.1976
  165DOPE   C3A 1930   4.381   7.656  13.572 -0.1926 -0.0142  0.1176
  165DOPE   C4A 1931   4.387   7.902  13.168 -0.4672  0.0239 -0.3223
  165DOPE   C1B 1932   5.380   7.244  14.074 -0.1353  0.2219 -0.0403
  165DOPE   D2B 1933   5.119   7.264  13.635 -0.2244 -0.0502 -0.2330
  165DOPE   C3B 1934   4.787   6.991  13.525 -0.1722  0.2605  0.0150
  165DOPE   C4B 1935   4.375   6.865  13.389  0.1911  0.1258 -0.1504
  166POSM   NC3 1936   7.761   8.307  15.228 -0.1344  0.0409 -0.0303
  166POSM   PO4 1937   7.866   8.612  14.957  0.1492 -0.0775  0.1264
  166POSM   AM1 1938   7.798   8.533  14.635  0.3200 -0.0657 -0.3713
  166POSM   AM2 1939   7.618   8.628  14.418 -0.4004  0.0237  0.0916
  166POSM   T1A 1940   7.874   8.281  14.176 -0.1112  0.3825  0.0555
  166POSM   C2A 1941   7.985   8.103  13.750 -0.3901 -0.1126 -0.1492
  166POSM   C3A 1942   7.973   8.213  13.338 -0.1110 -0.0963  0.1441
  166POSM   C1B 1943   7.446   8.599  14.104  0.0803  0.4381  0.3731
  166POSM   D2B 1944   7.175   8.457  13.774  0.1128 -0.1529 -0.0428
  166POSM   C3B 1945   7.062   8.599  13.324 -0.0150 -0.1174 -0.1987
  166POSM   C4B 1946   7.003   8.924  13.001  0.1107 -0.0053 -0.2284
  167DOPC   NC3 1947   9.887   7.417  14.965  0.0390 -0.1728  0.3138
  167DOPC   PO4 1948   9.540   7.176  14.997 -0.1375 -0.1874 -0.0290
  167DOPC   GL1 1949   9.596   7.186  14.591 -0.0979 -0.1983 -0.0746
  167DOPC   GL2 1950   9.610   6.869  14.595 -0.1888  0.0920  0.1049
  167DOPC   C1A 1951   9.891   7.130  14.236  0.1750 -0.0629 -0.2529
  167DOPC   D2A 1952  10.276   7.110  13.961 -0.0806 -0.2821  0.0727
  167DOPC   C3A 1953  10.590   6.835  13.742  0.0108 -0.4215 -0.1320
  167DOPC   C4A 1954  10.699   6.454  13.513 -0.1455 -0.3807 -0.0674
  167DOPC   C1B 1955   9.459   6.941  14.160  0.0954 -0.1866 -0.0728
  167DOPC   D2B 1956   9.219   7.068  13.778  0.1420  0.1963  0.0008
  167DOPC   C3B 1957   9.222   7.129  13.287  0.1148 -0.3581 -0.0831
  167DOPC   C4B 1958   9.551   7.120  12.958  0.0640  0.0764  0.2248
  168DOPE   NH3 1959   5.445   7.028  15.493 -0.1413 -0.0079 -0.0182
  168DOPE   PO4 1960   5.605   6.964  15.231  0.1028  0.0940  0.0040
  168DOPE   GL1 1961   5.592   7.012  14.805 -0.0998 -0.0968  0.3163
  168DOPE   GL2 1962   5.729   7.243  14.796 -0.1722 -0.4471 -0.0116
  168DOPE   C1A 1963   5.774   6.917  14.385  0.2187 -0.0125  0.2243
  168DOPE   D2A 1964   5.801   6.819  13.908  0.1522 -0.2837  0.0104
  168DOPE   C3A 1965   5.597   7.123  13.653  0.1628  0.0799 -0.2787
  168DOPE   C4A 1966   5.599   7.400  13.341  0.2544 -0.2259  0.1027
  168DOPE   C1B 1967   5.744   7.506  14.405  0.0567  0.2062 -0.2855
  168DOPE   D2B 1968   5.826   7.387  13.978  0.1751  0.0168  0.0417
  168DOPE   C3B 1969   5.872   7.691  13.618 -0.2510  0.0760 -0.0184
  168DOPE   C4B 1970   6.060   7.677  13.173 -0.2225  0.1763  0.0539
  169POSM   NC3 1971   5.245   1.229  15.106  0.1184  0.0182  0.2798
  169POSM   PO4 1972   4.994   1.149  14.800 -0.2571  0.1047 -0.1207
  169POSM   AM1 1973   4.873   1.228  14.504 -0.2439 -0.0758 -0.0940
  169POSM   AM2 1974   5.002   1.424  14.339 -0.1283  0.1773  0.3344
  169POSM   T1A 1975   4.601   1.079  14.091  0.0507 -0.0620  0.0226
  169POSM   C2A 1976   4.231   0.871  13.864 -0.1000  0.1306  0.0981
  169POSM   C3A 1977   4.298   0.779  13.414 -0.2181  0.1066  0.3793
  169POSM   C1B 1978   5.189   1.528  14.035  0.0972 -0.1107  0.1268
  169POSM   D2B 1979   5.503   1.724  13.751 -0.1099 -0.0820  0.0810
  169POSM   C3B 1980   5.528   2.114  13.559 -0.0965  0.0046 -0.1569
  169POSM   C4B 1981   5.665   2.358  13.226  0.0320 -0.0232 -0.2231
  170DOPE   NH3 1982   9.296  11.046  14.986 -0.2208 -0.2658  0.0182
  170DOPE   PO4 1983   9.588  10.967  14.875  0.0430 -0.0425 -0.1695
  170DOPE   GL1 1984   9.410  10.974  14.456 -0.1113  0.4545 -0.2916
  170DOPE   GL2 1985   9.515  10.726  14.392  0.0612  0.0464 -0.2214
  170DOPE   C1A 1986   8.994  10.896  14.276 -0.0086  0.2098  0.3250
  170DOPE   D2A 1987   8.728  10.608  14.089 -0.1811  0.1537 -0.4665
  170DOPE   C3A 1988   8.765  10.722  13.683 -0.0293  0.0875 -0.5060
  170DOPE   C4A 1989   8.670  10.477  13.267  0.1419 -0.2780  0.0568
  170DOPE   C1B 1990   9.386  10.918  13.945  0.2135  0.0088  0.1919
  170DOPE   D2B 1991   9.189  11.062  13.563  0.1418 -0.2178 -0.3461
  170DOPE   C3B 1992   9.279  10.699  13.207  0.1511  0.0937  0.0305
  170DOPE   C4B 1993   9.505  10.406  12.998  0.0347 -0.0048  0.0297
  171DOPE   NH3 1994   0.728   4.668  14.465 -0.0872  0.2299  0.1810
  171DOPE   PO4 1995   0.744   4.590  14.181 -0.2153 -0.0375  0.0273
  171DOPE   GL1 1996   0.938   4.537  13.863 -0.2755  0.2182  0.2877
  171DOPE   GL2 1997   0.899   4.298  13.598 -0.2621  0.0698 -0.1683
  171DOPE   C1A 1998   1.201   4.732  13.551  0.1433 -0.2789  0.2164
  171DOPE   D2A 1999   1.615   4.741  13.372  0.0288  0.1117  0.0945
  171DOPE   C3A 2000   1.701   5.149  13.176 -0.0125 -0.2224 -0.2633
  171DOPE   C4A 2001   2.076   5.451  13.197 -0.3694  0.0130  0.2140
  171DOPE   C1B 2002   0.473   4.318  13.345  0.3943  0.0448  0.0172
  171DOPE   D2B 2003   0.050   4.443  13.127  0.0790 -0.1327 -0.2963
  171DOPE   C3B 2004  -0.211   4.484  12.769  0.0332  0.0838 -0.0564
  171DOPE   C4B 2005  -0.639   4.540  12.610 -0.2961 -0.3544  0.0242
  172DOPE   NH3 2006   8.384   6.623  15.118 -0.1245  0.2768 -0.0414
  172DOPE   PO4 2007   8.292   6.885  14.912 -0.1122 -0.0837  0.1831
  172DOPE   GL1 2008   8.298   6.970  14.455 -0.3600  0.0407  0.0126
  172DOPE   GL2 2009   8.193   7.224  14.253  0.2514  0.0303  0.1252
  172DOPE   C1A 2010   8.406   6.708  14.088 -0.2230 -0.1457 -0.0538
  172DOPE   D2A 2011   8.681   6.359  13.971  0.0200 -0.4361  0.0075
  172DOPE   C3A 2012   8.645   6.240  13.493  0.0210  0.0650 -0.3024
  172DOPE   C4A 2013   8.836   6.203  13.052  0.2006  0.0421  0.3073
  172DOPE   C1B 2014   8.109   7.163  13.801  0.2142  0.0589  0.0138
  172DOPE   D2B 2015   8.118   7.369  13.359 -0.1753  0.0740  0.0163
  172DOPE   C3B 2016   8.174   7.728  13.048  0.1937  0.0983  0.1811
  172DOPE   C4B 2017   8.096   8.028  12.662  0.0507 -0.1471  0.0919
  173DOPE   NH3 2018   0.727   0.240  13.885  0.0064  0.0180  0.1627
  173DOPE   PO4 2019   0.754  -0.044  13.822  0.3315 -0.1221  0.0776
  173DOPE   GL1 2020   0.646  -0.117  13.444 -0.2084 -0.0604  0.0270
  173DOPE   GL2 2021   0.685   0.162  13.292 -0.1388  0.0284  0.1535
  173DOPE   C1A 2022   0.992  -0.355  13.183 -0.3004  0.1883 -0.2762
  173DOPE   D2A 2023   1.248  -0.294  12.840 -0.2400 -0.0709  0.1427
  173DOPE   C3A 2024   1.523  -0.638  12.596 -0.0070  0.1336 -0.2024
  173DOPE   C4A 2025   1.758  -0.902  12.285 -0.2255  0.1043 -0.1274
  173DOPE   C1B 2026   0.784  -0.035  12.890  0.0432 -0.1465  0.2603
  173DOPE   D2B 2027   0.473  -0.282  12.604  0.2224  0.0390  0.1815
  173DOPE   C3B 2028   0.033  -0.220  12.455 -0.1934  0.0035 -0.0616
  173DOPE   C4B 2029  -0.329   0.026  12.422  0.2455  0.0612 -0.1863
  174POSM   NC3 2030   7.712   0.623  14.713 -0.2533  0.1163  0.0209
  174POSM   PO4 2031   8.098   0.735  14.633 -0.1406  0.0216 -0.0919
  174POSM   AM1 2032   8.016   0.915  14.353  0.1679  0.1133 -0.1963
  174POSM   AM2 2033   7.752   1.024  14.278  0.1134  0.1239 -0.0565
  174POSM   T1A 2034   7.977   0.818  13.905  0.1583 -0.1105 -0.1433
  174POSM   C2A 2035   7.716   0.917  13.487  0.1901 -0.1420  0.2208
  174POSM   C3A 2036   7.310   0.784  13.219  0.1777 -0.2252  0.0581
  174POSM   C1B 2037   7.487   1.197  14.141 -0.0796 -0.1852  0.0480
  174POSM   D2B 2038   7.287   1.459  13.899  0.2235  0.0032  0.1110
  174POSM   C3B 2039   7.213   1.224  13.577  0.1530  0.0689 -0.1241
  174POSM   C4B 2040   7.432   1.314  13.211 -0.2134  0.0089 -0.0398
  175DOPE   NH3 2041   9.041   7.047  14.898  0.1919 -0.1165 -0.1452
  175DOPE   PO4 2042   8.768   6.936  14.809  0.1745  0.2051  0.1518
  175DOPE   GL1 2043   8.773   7.096  14.487 -0.2419 -0.4067  0.0011
  175DOPE   GL2 2044   9.043   7.221  14.370  0.2145 -0.0662 -0.1951
  175DOPE   C1A 2045   8.956   6.785  14.145  0.1539 -0.1883  0.0087
  175DOPE   D2A 2046   8.853   6.736  13.699 -0.1066 -0.1413  0.0765
  175DOPE   C3A 2047   8.939   6.681  13.287  0.1378 -0.1105 -0.1632
  175DOPE   C4A 2048   9.236   6.780  12.926 -0.2082 -0.1532 -0.3552
  175DOPE   C1B 2049   9.473   7.418  14.157  0.0531  0.1595 -0.0016
  175DOPE   D2B 2050   9.480   7.622  13.720 -0.0120  0.1131  0.0528
  175DOPE   C3B 2051   9.685   7.251  13.437  0.1719  0.0872 -0.2292
  175DOPE   C4B 2052  10.131   7.091  13.425 -0.3279  0.0528  0.0235
  176DOPE   NH3 2053  10.212  10.714  14.938 -0.5576  0.1453 -0.1682
  176DOPE   PO4 2054  10.355  10.483  15.079 -0.0408  0.3865 -0.0647
  176DOPE   GL1 2055  10.528  10.359  14.715  0.4195  0.2421 -0.1131
  176DOPE   GL2 2056  10.212  10.343  14.587 -0.0671 -0.0877 -0.0301
  176DOPE   C1A 2057  10.776  10.472  14.340  0.1298  0.1375 -0.1445
  176DOPE   D2A 2058  10.950  10.601  13.964  0.2139 -0.0141 -0.1288
  176DOPE   C3A 2059  10.845  10.994  13.724  0.1804  0.1476  0.2974
  176DOPE   C4A 2060  10.409  11.205  13.762  0.1468  0.2454 -0.1229
  176DOPE   C1B 2061  10.106  10.637  14.287  0.0117  0.4545  0.4657
  176DOPE   D2B 2062   9.862  10.953  14.142  0.0229  0.0882 -0.1909
  176DOPE   C3B 2063  10.115  11.335  14.162  0.0595 -0.0264  0.0749
  176DOPE   C4B 2064   9.891  11.676  13.934 -0.2807 -0.0288  0.2014
  177POSM   NC3 2065  10.776   5.202  14.769  0.1475 -0.2759 -0.0819
  177POSM   PO4 2066  10.432   5.108  14.687  0.1161 -0.0709 -0.0966
  177POSM   AM1 2067  10.349   5.223  14.411  0.2938 -0.2060  0.2310
  177POSM   AM2 2068  10.105   5.087  14.226  0.3402 -0.1859 -0.2241
  177POSM   T1A 2069  10.200   5.625  14.189 -0.3833  0.0235  0.1339
  177POSM   C2A 2070   9.970   5.727  13.781 -0.0629 -0.0063  0.0374
  177POSM   C3A 2071   9.765   5.862  13.386  0.4833 -0.0955 -0.0776
  177POSM   C1B 2072  10.172   5.219  13.867  0.1292  0.1904 -0.1598
  177POSM   D2B 2073  10.138   5.258  13.393  0.0597  0.3922  0.0711
  177POSM   C3B 2074  10.046   5.548  13.079 -0.1155 -0.0965  0.0118
  177POSM   C4B 2075   9.990   5.685  12.657 -0.0332 -0.2860 -0.0017
  178DOPC   NC3 2076   5.243   6.785  14.957 -0.3479  0.1068  0.0514
  178DOPC   PO4 2077   5.288   6.408  14.881 -0.0671 -0.1527  0.0238
  178DOPC   GL1 2078   5.110   6.341  14.502 -0.1426  0.0071  0.0513
  178DOPC   GL2 2079   5.286   6.134  14.411  0.3515  0.2017 -0.0790
  178DOPC   C1A 2080   4.800   6.548  14.172 -0.0695 -0.1271 -0.3397
  178DOPC   D2A 2081   4.769   6.532  13.698 -0.0941 -0.1536  0.0878
  178DOPC   C3A 2082   4.619   6.210  13.417 -0.4182 -0.2088 -0.0557
  178DOPC   C4A 2083   4.736   6.021  13.021 -0.2176  0.2494  0.0544
  178DOPC   C1B 2084   5.227   6.303  13.980  0.0703 -0.0068 -0.3333
  178DOPC   D2B 2085   5.367   6.485  13.557 -0.1285 -0.1305 -0.0965
  178DOPC   C3B 2086   5.286   6.902  13.363 -0.0114  0.0577  0.0249
  178DOPC   C4B 2087   5.082   7.179  13.134 -0.2239 -0.2030  0.0308
  179DOPE   NH3 2088   0.593   3.672  14.400 -0.3279  0.4117  0.0173
  179DOPE   PO4 2089   0.817   3.830  14.550 -0.3542 -0.1413  0.0161
  179DOPE   GL1 2090   0.874   3.909  14.150  0.4224  0.0201  0.1101
  179DOPE   GL2 2091   0.881   3.643  14.014  0.0235  0.1230  0.0278
  179DOPE   C1A 2092   1.270   4.002  13.859  0.0474  0.2909  0.0345
  179DOPE   D2A 2093   1.384   3.985  13.413 -0.0609 -0.2529 -0.2279
  179DOPE   C3A 2094   1.193   4.351  13.174 -0.0458  0.1560 -0.1888
  179DOPE   C4A 2095   1.490   4.578  12.884 -0.0215  0.2836  0.0604
  179DOPE   C1B 2096   1.004   3.690  13.538  0.2200 -0.0363 -0.1963
  179DOPE   D2B 2097   1.217   3.490  13.185  0.0587 -0.2899 -0.0631
  179DOPE   C3B 2098   1.347   3.857  12.902  0.2575  0.1768  0.0802
  179DOPE   C4B 2099   1.187   4.183  12.561 -0.0512  0.1315  0.2661
  180DOPC   NC3 2100  10.044   3.330  14.321  0.2579  0.2310  0.0210
  180DOPC   PO4 2101  10.363   3.419  14.563 -0.1881 -0.0584  0.0587
  180DOPC   GL1 2102  10.560   3.529  14.249 -0.1408  0.1488 -0.1768
  180DOPC   GL2 2103  10.330   3.748  14.103  0.0367  0.4092  0.4453
  180DOPC   C1A 2104  10.751   3.503  13.794  0.0924  0.1478  0.0745
  180DOPC   D2A 2105  11.004   3.668  13.460  0.1245  0.0448 -0.3017
  180DOPC   C3A 2106  11.317   3.450  13.174 -0.0326 -0.1394 -0.0319
  180DOPC   C4A 2107  11.602   3.412  12.851 -0.1122 -0.0305  0.3207
  180DOPC   C1B 2108  10.609   3.970  13.798 -0.1483 -0.1955 -0.4741
  180DOPC   D2B 2109  10.674   4.039  13.343 -0.0670  0.0980 -0.1713
  180DOPC   C3B 2110  10.820   3.812  12.965  0.3449  0.1510  0.1115
  180DOPC   C4B 2111  10.716   3.504  12.645  0.2281  0.2731  0.0150
  181POSM   NC3 2112   2.036  34.321  14.247  0.0191  0.0735  0.0673
  181POSM   PO4 2113   2.419  34.312  14.129 -0.0514 -0.1109 -0.0080
  181POSM   AM1 2114   2.435  34.456  13.854  0.2782  0.5029  0.4853
  181POSM   AM2 2115   2.638  34.659  13.733  0.3839  0.0720 -0.1094
  181POSM   T1A 2116   2.243  34.353  13.412 -0.0081  0.3019  0.0989
  181POSM   C2A 2117   2.230  34.428  12.976  0.0463  0.2127  0.1414
  181POSM   C3A 2118   2.301  34.725  12.572  0.0607  0.0495 -0.0510
  181POSM   C1B 2119   2.731  34.676  13.416 -0.3199 -0.1757  0.1614
  181POSM   D2B 2120   2.704  34.699  12.980  0.2404 -0.0117 -0.1807
  181POSM   C3B 2121   2.835  34.965  12.596 -0.0798 -0.0390  0.0817
  181POSM   C4B 2122   2.714  35.276  12.251 -0.0221 -0.0387  0.0250
  182DOPE   NH3 2123   8.009   3.174  14.702  0.2939  0.0587 -0.0073
  182DOPE   PO4 2124   8.203   3.325  14.481  0.0478  0.1150 -0.1826
  182DOPE   GL1 2125   8.129   3.451  14.165 -0.2050 -0.2603 -0.0496
  182DOPE   GL2 2126   8.382   3.470  13.978 -0.0871 -0.1660  0.1971
  182DOPE   C1A 2127   7.716   3.576  13.968  0.2355 -0.1251 -0.2877
  182DOPE   D2A 2128   7.612   3.739  13.529  0.1188 -0.3773  0.1377
  182DOPE   C3A 2129   7.925   3.689  13.166 -0.1966 -0.0530  0.0249
  182DOPE   C4A 2130   8.016   3.511  12.756 -0.3173  0.0764 -0.2056
  182DOPE   C1B 2131   8.110   3.300  13.646 -0.1435 -0.1555 -0.1671
  182DOPE   D2B 2132   8.054   3.136  13.205  0.2618  0.2044 -0.0102
  182DOPE   C3B 2133   7.662   3.297  13.018 -0.0453 -0.0947 -0.1301
  182DOPE   C4B 2134   7.275   3.083  12.824  0.1148  0.1194 -0.2375
  183DOPE   NH3 2135  13.560   3.658  15.035 -0.0291  0.1918  0.2590
  183DOPE   PO4 2136  13.221   3.641  15.084 -0.1573 -0.1267 -0.0025
  183DOPE   GL1 2137  13.173   3.463  14.722 -0.0469 -0.0295 -0.0337
  183DOPE   GL2 2138  12.975   3.372  14.567  0.0161 -0.1435  0.2427
  183DOPE   C1A 2139  13.423   3.663  14.353  0.3474 -0.2451  0.0131
  183DOPE   D2A 2140  13.334   3.844  13.956 -0.2923  0.1427 -0.1883
  183DOPE   C3A 2141  13.428   3.602  13.540 -0.0017 -0.2031  0.0843
  183DOPE   C4A 2142  13.035   3.544  13.311 -0.0405  0.0801 -0.0948
  183DOPE   C1B 2143  13.130   3.174  14.240 -0.0147  0.1104  0.2801
  183DOPE   D2B 2144  13.102   3.366  13.824  0.3015 -0.0981  0.0986
  183DOPE   C3B 2145  12.644   3.460  13.741  0.0211 -0.0013 -0.1579
  183DOPE   C4B 2146  12.310   3.752  13.603 -0.1524 -0.0181 -0.2868
  184POSM   NC3 2147   3.677   0.764  15.139  0.2010  0.1900 -0.0160
  184POSM   PO4 2148   3.521   0.978  14.851  0.1765 -0.2395 -0.2155
  184POSM   AM1 2149   3.455   1.082  14.538  0.1507  0.1017 -0.3903
  184POSM   AM2 2150   3.331   1.308  14.424  0.0421  0.0883  0.1831
  184POSM   T1A 2151   3.510   0.969  14.064  0.0734 -0.1688 -0.2149
  184POSM   C2A 2152   3.709   0.924  13.633  0.0814  0.0399 -0.1313
  184POSM   C3A 2153   3.892   1.058  13.233 -0.1129  0.1922  0.0298
  184POSM   C1B 2154   3.497   1.559  14.291  0.1124  0.2521 -0.2786
  184POSM   D2B 2155   3.775   1.761  13.952 -0.0041 -0.1887  0.1573
  184POSM   C3B 2156   4.235   1.768  13.833  0.2946 -0.1813 -0.1849
  184POSM   C4B 2157   4.537   1.827  13.493  0.0814 -0.1097 -0.0848
  185DOPS   CNO 2158   5.740   2.223  15.287  0.3534  0.3324 -0.2077
  185DOPS   PO4 2159   5.577   2.267  14.983  0.0845  0.3224  0.0154
  185DOPS   GL1 2160   5.539   2.237  14.625 -0.0799  0.0642 -0.0831
  185DOPS   GL2 2161   5.487   1.998  14.484  0.3381  0.1133  0.0875
  185DOPS   C1A 2162   5.832   2.301  14.243  0.1149  0.0869 -0.3123
  185DOPS   D2A 2163   6.017   2.399  13.804  0.0774 -0.0346  0.0566
  185DOPS   C3A 2164   6.195   2.260  13.402 -0.2862 -0.0631  0.0636
  185DOPS   C4A 2165   6.361   2.228  12.951  0.0694 -0.2322  0.0287
  185DOPS   C1B 2166   5.259   2.085  14.054  0.0840  0.2178 -0.0868
  185DOPS   D2B 2167   5.006   2.035  13.639 -0.3383  0.0916  0.1129
  185DOPS   C3B 2168   5.086   1.821  13.172  0.2558 -0.2345  0.1136
  185DOPS   C4B 2169   5.025   1.698  12.756  0.3643 -0.1580  0.1513
  186DOPC   NC3 2170   3.168  10.289  15.567  0.1709 -0.0819  0.1688
  186DOPC   PO4 2171   3.274  10.620  15.603  0.0284 -0.1375 -0.1529
  186DOPC   GL1 2172   3.308  10.650  15.219  0.1211 -0.1780  0.2283
  186DOPC   GL2 2173   3.530  10.516  15.024  0.1830  0.1672  0.1286
  186DOPC   C1A 2174   3.088  10.703  14.823  0.0756  0.2868  0.4616
  186DOPC   D2A 2175   3.120  10.725  14.371  0.1509 -0.0658 -0.2368
  186DOPC   C3A 2176   3.178  11.201  14.230 -0.2942  0.0264  0.0137
  186DOPC   C4A 2177   3.532  11.386  14.105 -0.0364  0.3345  0.2779
  186DOPC   C1B 2178   3.545  10.573  14.621 -0.1536 -0.1427  0.1889
  186DOPC   D2B 2179   3.376  10.342  14.211 -0.3621 -0.1374 -0.5067
  186DOPC   C3B 2180   3.740  10.339  13.875 -0.1095  0.0654  0.0627
  186DOPC   C4B 2181   3.880  10.721  13.624  0.0370 -0.1113 -0.1216
  187POSM   NC3 2182   6.940   2.360  14.872 -0.1456  0.0196  0.0247
  187POSM   PO4 2183   7.121   2.163  14.599  0.1178 -0.2803  0.0561
  187POSM   AM1 2184   6.972   2.063  14.314 -0.2192  0.1175 -0.0782
  187POSM   AM2 2185   6.859   2.177  14.090 -0.0524 -0.0724 -0.1643
  187POSM   T1A 2186   6.781   1.683  14.002  0.0988 -0.0650 -0.1231
  187POSM   C2A 2187   6.719   1.465  13.557  0.1485 -0.2299  0.1639
  187POSM   C3A 2188   6.476   1.168  13.292 -0.0048  0.0970  0.0614
  187POSM   C1B 2189   7.005   2.451  13.956 -0.2725  0.0143  0.0539
  187POSM   D2B 2190   7.066   2.922  13.962 -0.1520 -0.0048 -0.0552
  187POSM   C3B 2191   7.166   3.370  13.701 -0.0351 -0.0114 -0.0798
  187POSM   C4B 2192   7.299   3.517  13.310  0.0557 -0.1622  0.2513
  188DOPE   NH3 2193   6.760   1.800  14.607  0.2354 -0.1796  0.3772
  188DOPE   PO4 2194   6.611   2.093  14.609  0.0779 -0.1618 -0.1997
  188DOPE   GL1 2195   6.380   2.343  14.310  0.0731  0.1477 -0.0224
  188DOPE   GL2 2196   6.291   2.076  14.198 -0.1599  0.3029 -0.2252
  188DOPE   C1A 2197   6.516   2.552  13.911  0.1807 -0.2993  0.2549
  188DOPE   D2A 2198   6.657   2.549  13.506  0.0817  0.1806 -0.1952
  188DOPE   C3A 2199   6.387   2.715  13.128  0.0505 -0.2991  0.1073
  188DOPE   C4A 2200   6.326   3.073  12.834  0.0324 -0.0858 -0.0858
  188DOPE   C1B 2201   6.481   2.107  13.741 -0.1851 -0.0297  0.0039
  188DOPE   D2B 2202   6.630   1.948  13.314  0.1190 -0.1347  0.0209
  188DOPE   C3B 2203   6.850   2.259  13.039 -0.0458  0.0259 -0.0995
  188DOPE   C4B 2204   6.809   2.700  12.878  0.0882 -0.0697  0.0645
  189DOPS   CNO 2205   5.290  32.329  14.363  0.3341  0.2005 -0.1298
  189DOPS   PO4 2206   5.164  32.685  14.270 -0.1704  0.1843  0.2118
  189DOPS   GL1 2207   5.203  32.646  13.776  0.2710 -0.1211 -0.0067
  189DOPS   GL2 2208   5.401  32.461  13.691 -0.0879 -0.1342  0.1760
  189DOPS   C1A 2209   5.347  32.883  13.373  0.0711 -0.8452 -0.0319
  189DOPS   D2A 2210   5.211  33.355  13.226  0.2568 -0.0643 -0.2327
  189DOPS   C3A 2211   4.747  33.380  12.997 -0.3048 -0.2003 -0.1612
  189DOPS   C4A 2212   4.466  33.191  12.657  0.4040 -0.0661 -0.0373
  189DOPS   C1B 2213   5.423  32.429  13.230 -0.1928 -0.1720 -0.1510
  189DOPS   D2B 2214   5.365  32.711  12.934  0.1636  0.0925 -0.0409
  189DOPS   C3B 2215   5.643  32.938  12.690  0.3997 -0.2226 -0.1224
  189DOPS   C4B 2216   5.794  33.225  12.335 -0.2030 -0.1113 -0.1037
  190DOPS   CNO 2217   5.229   9.860  15.311 -0.2158 -0.0320  0.0209
  190DOPS   PO4 2218   5.436  10.102  15.106  0.1304 -0.0895 -0.2884
  190DOPS   GL1 2219   5.421   9.887  14.760 -0.2133 -0.1090 -0.0179
  190DOPS   GL2 2220   5.385  10.069  14.566  0.2564 -0.0940 -0.0485
  190DOPS   C1A 2221   5.191   9.643  14.446  0.0722  0.2442  0.1261
  190DOPS   D2A 2222   5.099   9.681  13.962 -0.0399  0.0154 -0.0668
  190DOPS   C3A 2223   4.846   9.703  13.586  0.0065 -0.0477  0.1066
  190DOPS   C4A 2224   4.738   9.625  13.213 -0.1541  0.1244  0.0109
  190DOPS   C1B 2225   5.332  10.070  14.092  0.0157  0.1757  0.1628
  190DOPS   D2B 2226   5.048  10.174  13.707 -0.0495  0.1389 -0.0571
  190DOPS   C3B 2227   4.931  10.109  13.222  0.1377 -0.0173  0.1249
  190DOPS   C4B 2228   5.212  10.250  12.873 -0.1055 -0.0996  0.0679
  191DOPE   NH3 2229  12.137  34.417  14.852 -0.3740 -0.3455  0.0183
  191DOPE   PO4 2230  12.022  34.630  14.641 -0.1482  0.0753 -0.0727
  191DOPE   GL1 2231  12.023  34.562  14.269  0.2692  0.2232 -0.0792
  191DOPE   GL2 2232  12.122  34.345  14.194 -0.1268 -0.1329  0.0401
  191DOPE   C1A 2233  12.348  34.691  13.928 -0.4614  0.2716 -0.1462
  191DOPE   D2A 2234  12.640  34.450  13.626  0.0887 -0.0372 -0.0170
  191DOPE   C3A 2235  12.718  34.525  13.132 -0.0727 -0.0228 -0.0541
  191DOPE   C4A 2236  12.841  34.636  12.690 -0.1061  0.0907 -0.0303
  191DOPE   C1B 2237  12.145  34.272  13.744 -0.1985 -0.0633  0.0784
  191DOPE   D2B 2238  12.297  34.288  13.336  0.1227  0.2511  0.1583
  191DOPE   C3B 2239  12.064  34.129  12.926 -0.3063  0.1246 -0.0147
  191DOPE   C4B 2240  11.951  34.158  12.477 -0.3223  0.3207  0.0669
  192DOPC   NC3 2241   5.914   5.507  15.131  0.1619  0.0127  0.0447
  192DOPC   PO4 2242   6.211   5.352  14.878 -0.1070 -0.2124 -0.4087
  192DOPC   GL1 2243   6.183   5.581  14.489 -0.0788 -0.2139 -0.2400
  192DOPC   GL2 2244   6.072   5.827  14.667 -0.2239 -0.1266  0.0910
  192DOPC   C1A 2245   6.420   5.459  14.103 -0.0455 -0.0671 -0.0314
  192DOPC   D2A 2246   6.552   5.635  13.628 -0.1051 -0.0270 -0.1009
  192DOPC   C3A 2247   6.960   5.625  13.467  0.1877  0.1182  0.3010
  192DOPC   C4A 2248   7.070   5.897  13.112 -0.3367  0.2468 -0.0088
  192DOPC   C1B 2249   6.168   6.071  14.312  0.0061  0.1695 -0.2280
  192DOPC   D2B 2250   6.036   5.765  13.952 -0.2207  0.2569 -0.2373
  192DOPC   C3B 2251   6.108   5.646  13.508  0.1276 -0.1674 -0.0341
  192DOPC   C4B 2252   6.381   5.321  13.306  0.0098 -0.2475  0.3771
  193DOPS   CNO 2253  14.085   5.491  14.781  0.1151  0.1962 -0.1069
  193DOPS   PO4 2254  13.988   5.244  15.039 -0.0299  0.0011  0.0348
  193DOPS   GL1 2255  13.860   4.990  14.787  0.0770 -0.1555  0.1649
  193DOPS   GL2 2256  13.962   5.059  14.536 -0.1206  0.1752 -0.1789
  193DOPS   C1A 2257  13.472   4.962  14.481 -0.3489 -0.0515  0.3024
  193DOPS   D2A 2258  13.282   4.766  14.075 -0.0210  0.1575  0.0162
  193DOPS   C3A 2259  13.457   4.745  13.623  0.2858 -0.0465  0.0188
  193DOPS   C4A 2260  13.555   4.971  13.249 -0.0650 -0.0046 -0.0849
  193DOPS   C1B 2261  13.683   5.408  14.357  0.0700  0.2349 -0.1486
  193DOPS   D2B 2262  13.632   5.673  13.979 -0.1191  0.2402  0.0074
  193DOPS   C3B 2263  13.729   5.728  13.547 -0.3568 -0.1466 -0.0087
  193DOPS   C4B 2264  14.082   5.799  13.152  0.2684  0.0047  0.0304
  194DOPE   NH3 2265   4.647  12.274  15.410 -0.2103  0.0561  0.0739
  194DOPE   PO4 2266   4.843  12.477  15.294 -0.2152  0.0647 -0.1422
  194DOPE   GL1 2267   4.810  12.479  14.789 -0.2409 -0.4470 -0.1781
  194DOPE   GL2 2268   4.552  12.444  14.927  0.0092  0.1432 -0.1789
  194DOPE   C1A 2269   4.754  12.751  14.423 -0.2418  0.0243  0.0559
  194DOPE   D2A 2270   4.729  12.935  14.061 -0.0393 -0.2024 -0.0034
  194DOPE   C3A 2271   5.037  13.020  13.742  0.2215 -0.0943  0.0557
  194DOPE   C4A 2272   5.282  12.854  13.450 -0.0227 -0.0646  0.0647
  194DOPE   C1B 2273   4.491  12.236  14.534  0.2771 -0.0350  0.1604
  194DOPE   D2B 2274   4.383  12.471  14.113  0.2072  0.0453  0.0321
  194DOPE   C3B 2275   4.217  12.338  13.727 -0.0765  0.1536  0.0027
  194DOPE   C4B 2276   4.229  11.978  13.490  0.0373 -0.1960 -0.2170
  195DOPE   NH3 2277   8.248   7.775  14.659  0.0194  0.1152 -0.0807
  195DOPE   PO4 2278   8.537   7.943  14.642  0.5950 -0.1510 -0.0057
  195DOPE   GL1 2279   8.529   8.146  14.433 -0.3429  0.0861  0.0844
  195DOPE   GL2 2280   8.483   8.030  14.115 -0.1322 -0.1079  0.3684
  195DOPE   C1A 2281   8.716   8.538  14.321  0.0487 -0.0384  0.0776
  195DOPE   D2A 2282   8.853   8.795  13.920 -0.1027 -0.0275 -0.3003
  195DOPE   C3A 2283   8.447   9.097  13.831 -0.0972 -0.1761  0.0253
  195DOPE   C4A 2284   8.153   9.381  13.761  0.2792  0.0477 -0.1897
  195DOPE   C1B 2285   8.482   8.408  13.862 -0.1560  0.1539 -0.3943
  195DOPE   D2B 2286   8.442   8.605  13.426 -0.2179  0.0166  0.0420
  195DOPE   C3B 2287   8.359   9.061  13.255 -0.3413  0.1027 -0.3414
  195DOPE   C4B 2288   8.259   9.536  13.376  0.0245 -0.3774  0.1389
  196DOPE   NH3 2289   8.938   4.866  14.701 -0.3097  0.0827 -0.0270
  196DOPE   PO4 2290   8.857   4.864  14.350 -0.1570 -0.0063 -0.1260
  196DOPE   GL1 2291   8.867   5.046  13.989  0.1466 -0.0358  0.1557
  196DOPE   GL2 2292   8.947   5.114  13.702  0.2787 -0.0686 -0.1389
  196DOPE   C1A 2293   8.613   5.448  13.964 -0.1199  0.0697  0.1969
  196DOPE   D2A 2294   8.793   5.801  14.108  0.0571 -0.2484 -0.1985
  196DOPE   C3A 2295   9.068   6.100  13.772  0.0516 -0.1700 -0.1131
  196DOPE   C4A 2296   9.231   6.263  13.368  0.0851 -0.2914 -0.2661
  196DOPE   C1B 2297   8.691   5.009  13.375 -0.1150  0.0585  0.1124
  196DOPE   D2B 2298   8.556   4.585  13.323  0.3143 -0.0235 -0.3117
  196DOPE   C3B 2299   8.625   4.448  12.948 -0.1083 -0.0373 -0.3614
  196DOPE   C4B 2300   8.473   4.256  12.571  0.0946 -0.2025  0.0500
  197DOPC   NC3 2301  13.652   9.685  14.697 -0.2851 -0.0875 -0.1202
  197DOPC   PO4 2302  13.556  10.080  14.798  0.0032 -0.1439  0.1411
  197DOPC   GL1 2303  13.301  10.041  14.431  0.1200 -0.0497  0.0238
  197DOPC   GL2 2304  13.177   9.784  14.448 -0.1256  0.1570  0.1527
  197DOPC   C1A 2305  13.295   9.920  14.014  0.3063  0.1164 -0.1212
  197DOPC   D2A 2306  13.277   9.652  13.675 -0.3040  0.0358  0.1514
  197DOPC   C3A 2307  13.604   9.336  13.508 -0.0413 -0.0224 -0.3969
  197DOPC   C4A 2308  14.027   9.380  13.402 -0.1982  0.1003 -0.0687
  197DOPC   C1B 2309  12.897   9.471  14.245  0.0438 -0.0305  0.0182
  197DOPC   D2B 2310  13.095   9.101  14.127 -0.2007  0.0499 -0.1487
  197DOPC   C3B 2311  13.179   9.079  13.697  0.0424  0.0208 -0.2250
  197DOPC   C4B 2312  13.157   9.144  13.213  0.0408 -0.3753  0.0442
  198POSM   NC3 2313   6.049   6.970  15.023 -0.0336 -0.3036  0.0655
  198POSM   PO4 2314   6.338   6.701  14.979 -0.1294  0.0207  0.1124
  198POSM   AM1 2315   6.385   6.693  14.654  0.1143 -0.1413  0.4263
  198POSM   AM2 2316   6.594   6.685  14.444  0.1671  0.2162  0.2025
  198POSM   T1A 2317   6.192   6.553  14.152 -0.0713  0.2846 -0.0114
  198POSM   C2A 2318   6.363   6.653  13.732 -0.0720 -0.0626 -0.1133
  198POSM   C3A 2319   6.415   6.654  13.292 -0.2139  0.0508  0.0907
  198POSM   C1B 2320   6.746   6.456  14.160 -0.4193  0.2414  0.1275
  198POSM   D2B 2321   6.794   6.391  13.674  0.1625 -0.1345 -0.1361
  198POSM   C3B 2322   6.674   6.075  13.395 -0.2046 -0.0537 -0.2909
  198POSM   C4B 2323   6.553   5.808  13.059 -0.2824  0.3089  0.3605
  199POSM   NC3 2324  32.383   8.362  15.037 -0.0419 -0.0558 -0.4480
  199POSM   PO4 2325  32.174   8.323  14.699 -0.1501  0.1924 -0.0174
  199POSM   AM1 2326  32.327   8.495  14.456  0.0377  0.1978 -0.0316
  199POSM   AM2 2327  32.606   8.583  14.308  0.0148  0.1051 -0.1499
  199POSM   T1A 2328  32.297   8.677  13.947  0.2426 -0.0921 -0.1465
  199POSM   C2A 2329  32.173   8.837  13.538  0.1062 -0.0671  0.3078
  199POSM   C3A 2330  31.929   8.963  13.170  0.3350  0.1104 -0.1976
  199POSM   C1B 2331  32.656   8.850  14.200 -0.1376 -0.3032 -0.1839
  199POSM   D2B 2332  32.827   9.267  14.085  0.1471 -0.1094 -0.0056
  199POSM   C3B 2333  33.258   9.397  13.864 -0.0718  0.3431 -0.0302
  199POSM   C4B 2334  33.538   9.387  13.540  0.1623 -0.0333 -0.0820
  200DOPC   NC3 2335   6.774   2.526  14.433 -0.1685 -0.0473 -0.2525
  200DOPC   PO4 2336   6.785   2.812  14.716  0.1743 -0.1405 -0.2300
  200DOPC   GL1 2337   6.482   2.947  14.551  0.2632  0.1672 -0.1240
  200DOPC   GL2 2338   6.224   2.761  14.553  0.0389 -0.1417 -0.0271
  200DOPC   C1A 2339   6.554   3.049  14.106 -0.1011  0.1067  0.0405
  200DOPC   D2A 2340   6.631   3.121  13.693  0.1307  0.2106 -0.0247
  200DOPC   C3A 2341   6.412   3.248  13.309  0.1015 -0.0078 -0.2267
  200DOPC   C4A 2342   6.088   3.468  13.029  0.0241  0.0077 -0.1050
  200DOPC   C1B 2343   6.109   2.801  14.089  0.1127 -0.2242 -0.0747
  200DOPC   D2B 2344   6.195   2.799  13.589 -0.3052 -0.0358 -0.0398
  200DOPC   C3B 2345   5.975   2.903  13.199  0.4085 -0.0523 -0.3508
  200DOPC   C4B 2346   5.784   3.031  12.775 -0.2097  0.1635  0.1708
  201DOPC   NC3 2347   9.139   6.619  14.607 -0.0122  0.0548  0.0282
  201DOPC   PO4 2348   9.322   6.280  14.720  0.3582 -0.1971  0.0758
  201DOPC   GL1 2349   9.283   6.322  14.317 -0.1062  0.3094  0.1469
  201DOPC   GL2 2350   9.604   6.432  14.330  0.1207  0.0796  0.0045
  201DOPC   C1A 2351   9.257   6.495  13.875  0.0824  0.1081  0.0107
  201DOPC   D2A 2352   9.473   6.722  13.507  0.2140  0.0899  0.0051
  201DOPC   C3A 2353   9.578   6.519  13.094 -0.2771  0.3806 -0.1041
  201DOPC   C4A 2354   9.772   6.510  12.679  0.2405  0.1233  0.2696
  201DOPC   C1B 2355   9.738   6.329  13.892 -0.0264 -0.0075  0.0198
  201DOPC   D2B 2356   9.796   6.385  13.505  0.1371 -0.0433  0.0398
  201DOPC   C3B 2357  10.244   6.604  13.359 -0.2134  0.1308 -0.1053
  201DOPC   C4B 2358  10.597   6.884  13.222  0.0343 -0.0006 -0.0121
  202DOPS   CNO 2359   1.063   8.669  15.181  0.5533 -0.1824  0.1343
  202DOPS   PO4 2360   1.428   8.524  15.179 -0.1748 -0.0072  0.2547
  202DOPS   GL1 2361   1.729   8.458  14.961 -0.1013  0.1612 -0.1890
  202DOPS   GL2 2362   1.622   8.278  14.717  0.0711  0.0858 -0.1460
  202DOPS   C1A 2363   1.978   8.630  14.558 -0.0865  0.4269 -0.1621
  202DOPS   D2A 2364   2.204   8.855  14.186  0.2568  0.0021 -0.2395
  202DOPS   C3A 2365   2.459   9.135  13.955 -0.5950 -0.2216  0.1302
  202DOPS   C4A 2366   2.644   9.590  13.977 -0.1557  0.1486  0.0564
  202DOPS   C1B 2367   1.623   8.323  14.225  0.0479  0.0487 -0.2156
  202DOPS   D2B 2368   1.471   8.408  13.817 -0.4074 -0.2380 -0.0126
  202DOPS   C3B 2369   1.064   8.257  13.714  0.0355 -0.2787  0.1533
  202DOPS   C4B 2370   0.891   8.064  13.352  0.1200 -0.3863 -0.0910
  203DOPE   NH3 2371   5.113   2.183  14.803  0.1827  0.0994  0.0571
  203DOPE   PO4 2372   4.911   1.990  14.615 -0.1038 -0.1317  0.0540
  203DOPE   GL1 2373   4.906   1.855  14.306 -0.2636 -0.1224  0.0777
  203DOPE   GL2 2374   4.755   2.116  14.148  0.3028  0.2049 -0.2175
  203DOPE   C1A 2375   4.643   1.627  14.047 -0.0559 -0.2896 -0.1280
  203DOPE   D2A 2376   4.491   1.327  13.678  0.0513 -0.1098 -0.0439
  203DOPE   C3A 2377   4.261   1.425  13.247 -0.0684  0.0268 -0.1136
  203DOPE   C4A 2378   4.098   1.571  12.867 -0.1277  0.1067 -0.1052
  203DOPE   C1B 2379   4.654   2.334  13.703  0.0390 -0.1274 -0.2851
  203DOPE   D2B 2380   4.701   2.414  13.211 -0.0634 -0.2503 -0.0008
  203DOPE   C3B 2381   4.404   2.630  13.019  0.0268  0.1358 -0.0949
  203DOPE   C4B 2382   3.961   2.719  12.970  0.4833 -0.3580 -0.3543
  204DOPS   CNO 2383  11.914   6.447  15.109 -0.1904 -0.0390  0.1493
  204DOPS   PO4 2384  12.107   6.400  14.809  0.2309  0.0110  0.0522
  204DOPS   GL1 2385  12.080   6.599  14.386 -0.0346 -0.0333  0.0169
  204DOPS   GL2 2386  12.019   6.287  14.332 -0.0385 -0.1373 -0.0315
  204DOPS   C1A 2387  12.128   6.943  14.147 -0.0842  0.0287  0.1175
  204DOPS   D2A 2388  12.077   7.171  13.760 -0.0530 -0.3549  0.2063
  204DOPS   C3A 2389  11.748   6.826  13.624 -0.0517 -0.1399 -0.1450
  204DOPS   C4A 2390  11.539   6.396  13.667  0.4499  0.0087  0.2063
  204DOPS   C1B 2391  12.321   6.083  14.010 -0.1330 -0.1663 -0.0719
  204DOPS   D2B 2392  12.529   5.755  13.657 -0.0539 -0.1235  0.0653
  204DOPS   C3B 2393  12.883   5.586  13.271 -0.1753 -0.1388 -0.1883
  204DOPS   C4B 2394  13.130   5.769  12.912 -0.2436  0.0472 -0.1036
  205DOPE   NH3 2395   9.865  34.579  10.686 -0.0946  0.0274 -0.0654
  205DOPE   PO4 2396   9.984  34.332  10.790 -0.0738 -0.0865  0.0888
  205DOPE   GL1 2397  10.098  34.340  11.083  0.0014 -0.2794  0.0462
  205DOPE   GL2 2398  10.392  34.146  11.064 -0.2253 -0.1155 -0.1427
  205DOPE   C1A 2399  10.189  34.471  11.530 -0.1408 -0.0846  0.0961
  205DOPE   D2A 2400  10.130  34.537  11.971 -0.1316 -0.3421  0.2715
  205DOPE   C3A 2401   9.830  34.869  12.227 -0.0236  0.0456  0.0506
  205DOPE   C4A 2402   9.636  35.213  12.429  0.0122  0.0067 -0.1580
  205DOPE   C1B 2403  10.536  34.039  11.519  0.0885 -0.1918 -0.3002
  205DOPE   D2B 2404  10.647  34.278  11.896  0.3164  0.0943  0.4547
  205DOPE   C3B 2405  11.045  34.512  11.887  0.1261  0.3402 -0.0571
  205DOPE   C4B 2406  11.130  34.818  12.140  0.0298 -0.0137  0.0101
  206DOPS   CNO 2407   0.396   2.026  10.471 -0.0699 -0.4605  0.1005
  206DOPS   PO4 2408   0.778   2.065  10.375  0.1257 -0.3704  0.1485
  206DOPS   GL1 2409   0.829   2.132  10.767  0.3662 -0.1582  0.6007
  206DOPS   GL2 2410   0.613   2.236  10.915 -0.2043  0.3466 -0.1125
  206DOPS   C1A 2411   1.196   2.280  11.020  0.1855 -0.0498  0.0040
  206DOPS   D2A 2412   1.504   2.165  11.391  0.2097 -0.2700 -0.0977
  206DOPS   C3A 2413   1.240   2.112  11.701 -0.0887 -0.5068 -0.2127
  206DOPS   C4A 2414   1.264   2.262  12.118  0.0246 -0.1418 -0.0569
  206DOPS   C1B 2415   0.830   1.993  11.302 -0.1465  0.0102 -0.0896
  206DOPS   D2B 2416   0.892   1.772  11.674 -0.1414 -0.1102  0.0370
  206DOPS   C3B 2417   0.659   1.629  12.021  0.1897 -0.0878  0.2669
  206DOPS   C4B 2418   0.322   1.335  11.976 -0.1223 -0.1498  0.2129
  207DOPE   NH3 2419   7.180   1.220  11.130  0.2793  0.1028 -0.0314
  207DOPE   PO4 2420   7.115   1.535  10.994 -0.0196  0.0423 -0.1250
  207DOPE   GL1 2421   7.322   1.750  11.320 -0.4253  0.2920 -0.2003
  207DOPE   GL2 2422   7.187   1.546  11.514 -0.3718 -0.0028 -0.0611
  207DOPE   C1A 2423   7.252   1.916  11.778 -0.0327 -0.0218  0.1557
  207DOPE   D2A 2424   7.185   1.750  12.227 -0.1761  0.2182  0.1885
  207DOPE   C3A 2425   7.114   1.834  12.692 -0.0756 -0.1089 -0.0513
  207DOPE   C4A 2426   7.020   1.628  13.094 -0.2717  0.1966 -0.0613
  207DOPE   C1B 2427   7.567   1.553  11.753 -0.2732  0.6031  0.1499
  207DOPE   D2B 2428   7.748   1.653  12.160  0.0151  0.3900 -0.2747
  207DOPE   C3B 2429   8.070   1.962  12.285  0.2649  0.0503 -0.0841
  207DOPE   C4B 2430   8.141   2.102  12.694 -0.0937  0.1766  0.2777
  208DOPE   NH3 2431   7.916   0.382  10.846  0.0303  0.2487  0.0943
  208DOPE   PO4 2432   8.186   0.322  10.774  0.0961 -0.0588 -0.0967
  208DOPE   GL1 2433   8.177   0.233  11.142  0.0048  0.0966 -0.1879
  208DOPE   GL2 2434   8.469   0.291  11.258 -0.2991 -0.0667  0.4002
  208DOPE   C1A 2435   8.064   0.121  11.578 -0.0665 -0.4195  0.3489
  208DOPE   D2A 2436   8.230   0.294  12.042 -0.1392 -0.2867 -0.0155
  208DOPE   C3A 2437   8.110   0.097  12.414  0.1450  0.4226 -0.1621
  208DOPE   C4A 2438   7.797   0.152  12.680 -0.0925  0.2511  0.2019
  208DOPE   C1B 2439   8.635   0.151  11.650  0.1493 -0.4566 -0.2498
  208DOPE   D2B 2440   8.857   0.231  12.038 -0.0326 -0.3199  0.2944
  208DOPE   C3B 2441   8.869  -0.077  12.415 -0.2804 -0.0152  0.1439
  208DOPE   C4B 2442   8.890  -0.500  12.410 -0.0714 -0.2700 -0.1524
  209DOPC   NC3 2443   7.775   2.282  11.350 -0.2066  0.2386  0.0549
  209DOPC   PO4 2444   7.711   2.012  11.082 -0.1441  0.3447  0.5442
  209DOPC   GL1 2445   7.849   1.822  11.440 -0.2380  0.1170  0.1627
  209DOPC   GL2 2446   8.054   1.592  11.484 -0.2475  0.0812  0.1295
  209DOPC   C1A 2447   7.748   2.031  11.830  0.1909 -0.0886 -0.1544
  209DOPC   D2A 2448   7.506   2.156  12.167  0.3500 -0.1031 -0.0197
  209DOPC   C3A 2449   7.590   1.922  12.556 -0.0961  0.1427 -0.0490
  209DOPC   C4A 2450   7.788   1.530  12.642 -0.1558 -0.0325  0.0840
  209DOPC   C1B 2451   8.201   1.599  11.886 -0.3100  0.1014  0.3196
  209DOPC   D2B 2452   8.236   1.481  12.304 -0.0612  0.1891 -0.1810
  209DOPC   C3B 2453   8.309   1.454  12.719 -0.1049  0.4518  0.3515
  209DOPC   C4B 2454   8.331   1.729  13.056 -0.0838  0.1177 -0.2535
  210DOPC   NC3 2455   1.524   7.408  11.265  0.0857 -0.0166  0.1206
  210DOPC   PO4 2456   1.502   7.103  11.039  0.0368  0.0749  0.1039
  210DOPC   GL1 2457   1.654   6.994  11.402 -0.0781  0.0908  0.1180
  210DOPC   GL2 2458   1.936   6.946  11.505  0.3700 -0.0954 -0.1436
  210DOPC   C1A 2459   1.630   6.805  11.848 -0.1840  0.1246 -0.3356
  210DOPC   D2A 2460   1.549   7.142  12.131  0.0519  0.2840 -0.2117
  210DOPC   C3A 2461   1.896   7.067  12.528 -0.2062 -0.0628 -0.0623
  210DOPC   C4A 2462   2.058   6.775  12.905  0.1041 -0.0494 -0.2013
  210DOPC   C1B 2463   1.714   7.329  11.705 -0.1971 -0.0028  0.0755
  210DOPC   D2B 2464   1.689   7.671  12.060  0.0544  0.0966 -0.1209
  210DOPC   C3B 2465   1.686   7.528  12.483 -0.0510 -0.2468 -0.0508
  210DOPC   C4B 2466   1.324   7.380  12.715  0.1420  0.1892 -0.1970
  211DOPE   NH3 2467  34.476   7.185  10.594  0.2119 -0.1088 -0.0356
  211DOPE   PO4 2468  34.166   7.264  10.716 -0.2635 -0.2533  0.0947
  211DOPE   GL1 2469  34.035   7.075  11.009 -0.1730 -0.4131  0.0336
  211DOPE   GL2 2470  33.959   7.190  11.277 -0.1188  0.0187 -0.1329
  211DOPE   C1A 2471  34.165   6.677  11.132 -0.1403  0.1758 -0.1641
  211DOPE   D2A 2472  34.054   6.197  11.129  0.3763 -0.2411  0.0833
  211DOPE   C3A 2473  33.713   6.131  11.438 -0.3071 -0.1853 -0.1515
  211DOPE   C4A 2474  33.411   6.170  11.744  0.2671 -0.0635 -0.0159
  211DOPE   C1B 2475  33.920   7.009  11.731  0.0543 -0.1670  0.1092
  211DOPE   D2B 2476  33.788   6.852  12.119 -0.2093 -0.1230 -0.1930
  211DOPE   C3B 2477  33.643   6.425  12.114 -0.0339 -0.2229 -0.0879
  211DOPE   C4B 2478  33.801   6.010  12.044  0.1749  0.2004 -0.0546
  212DOPE   NH3 2479  11.001   7.638  10.782  0.3219 -0.0672 -0.4531
  212DOPE   PO4 2480  10.701   7.640  10.822  0.0977 -0.3132 -0.1523
  212DOPE   GL1 2481  10.519   7.588  11.174  0.3219 -0.2880  0.0934
  212DOPE   GL2 2482  10.806   7.655  11.324 -0.1934  0.0407  0.1719
  212DOPE   C1A 2483  10.358   7.841  11.527 -0.0726 -0.1610  0.0278
  212DOPE   D2A 2484  10.183   7.994  11.893  0.3747  0.2772  0.0427
  212DOPE   C3A 2485  10.108   7.795  12.308  0.0595 -0.0174  0.0732
  212DOPE   C4A 2486   9.885   7.552  12.657 -0.2606  0.2160  0.1144
  212DOPE   C1B 2487  10.950   7.570  11.705  0.0535 -0.4032  0.0171
  212DOPE   D2B 2488  10.917   7.185  11.923 -0.0103 -0.1029 -0.0663
  212DOPE   C3B 2489  10.912   7.242  12.388  0.1882 -0.0470  0.2521
  212DOPE   C4B 2490  10.825   7.324  12.793  0.0894  0.0218  0.0486
  213DOPE   NH3 2491   5.466   5.794  11.154 -0.1184 -0.2348 -0.1776
  213DOPE   PO4 2492   5.421   6.138  11.206 -0.1214 -0.1316 -0.0213
  213DOPE   GL1 2493   5.667   5.978  11.548  0.1145 -0.0096 -0.2741
  213DOPE   GL2 2494   5.437   5.843  11.711  0.1209 -0.0379 -0.3578
  213DOPE   C1A 2495   5.554   6.204  11.990 -0.1220 -0.3168 -0.1437
  213DOPE   D2A 2496   5.745   6.227  12.385 -0.0311 -0.2907  0.0785
  213DOPE   C3A 2497   5.396   6.265  12.668 -0.1969 -0.0887  0.0568
  213DOPE   C4A 2498   5.193   6.304  13.048  0.1011 -0.1990  0.1664
  213DOPE   C1B 2499   5.438   5.733  12.178 -0.1110  0.1305 -0.1266
  213DOPE   D2B 2500   5.604   5.765  12.610  0.1803  0.0850  0.0113
  213DOPE   C3B 2501   5.869   6.033  12.858 -0.0386 -0.1086 -0.0368
  213DOPE   C4B 2502   6.274   6.157  13.110 -0.0617  0.2439 -0.3031
  214POSM   NC3 2503   0.091  10.640  11.887  0.0929 -0.0082 -0.2249
  214POSM   PO4 2504  -0.006  10.325  11.670 -0.0815  0.2497 -0.0043
  214POSM   AM1 2505  -0.051  10.126  11.903 -0.0924 -0.1172 -0.0477
  214POSM   AM2 2506   0.144   9.974  12.089  0.2238 -0.0933  0.5096
  214POSM   T1A 2507  -0.257   9.831  12.249  0.0859  0.0207  0.2878
  214POSM   C2A 2508  -0.420   9.419  12.289  0.2208 -0.2556  0.2312
  214POSM   C3A 2509  -0.235   8.968  12.447 -0.2826 -0.1266 -0.0042
  214POSM   C1B 2510   0.181  10.035  12.440  0.0043 -0.1296 -0.1228
  214POSM   D2B 2511   0.222  10.216  12.918  0.2838  0.0361 -0.1136
  214POSM   C3B 2512   0.485  10.442  13.191  0.0749 -0.1372 -0.4511
  214POSM   C4B 2513   0.899  10.396  13.387 -0.0035  0.2810  0.0669
  215DOPE   NH3 2514   5.450   9.181  10.886 -0.2888 -0.1798 -0.0647
  215DOPE   PO4 2515   5.302   9.065  11.116  0.3608  0.1817  0.0531
  215DOPE   GL1 2516   5.452   8.882  11.499 -0.2357  0.2024  0.2398
  215DOPE   GL2 2517   5.362   8.606  11.526 -0.0236 -0.0514 -0.0536
  215DOPE   C1A 2518   5.842   8.993  11.763 -0.2419  0.0444 -0.1791
  215DOPE   D2A 2519   6.069   8.812  12.065 -0.1441  0.1890 -0.0178
  215DOPE   C3A 2520   6.020   8.592  12.442 -0.1233 -0.2404 -0.2702
  215DOPE   C4A 2521   6.156   8.661  12.911 -0.1914 -0.3104  0.1081
  215DOPE   C1B 2522   5.143   8.819  11.879 -0.2091 -0.0351  0.0082
  215DOPE   D2B 2523   5.099   9.080  12.285 -0.0361 -0.0734  0.0805
  215DOPE   C3B 2524   5.031   9.517  12.180 -0.0426 -0.3511  0.2212
  215DOPE   C4B 2525   4.683   9.833  12.121  0.0797 -0.2407  0.1515
  216POSM   NC3 2526   9.597   8.655  11.612  0.0598  0.0737  0.2895
  216POSM   PO4 2527   9.428   8.418  11.304  0.1643 -0.3366  0.0338
  216POSM   AM1 2528   9.153   8.344  11.469  0.0185  0.1497  0.0835
  216POSM   AM2 2529   8.849   8.400  11.424 -0.2283 -0.3997 -0.1320
  216POSM   T1A 2530   8.839   8.027  11.717  0.0471 -0.0740 -0.1081
  216POSM   C2A 2531   8.545   7.786  11.467 -0.0135  0.1250  0.0841
  216POSM   C3A 2532   8.053   7.745  11.444  0.3192 -0.0284  0.0133
  216POSM   C1B 2533   8.688   8.504  11.630  0.0102 -0.2916  0.2343
  216POSM   D2B 2534   8.436   8.466  12.003  0.1915 -0.3222  0.1592
  216POSM   C3B 2535   8.600   8.110  12.314  0.2803  0.0747  0.0576
  216POSM   C4B 2536   8.913   7.818  12.519 -0.0367  0.0302 -0.1189
  217POSM   NC3 2537  34.337   1.411   9.610  0.3245  0.0914 -0.0887
  217POSM   PO4 2538  34.400   1.146   9.864  0.2520  0.1731  0.2152
  217POSM   AM1 2539  34.349   1.126  10.193  0.1257  0.1790 -0.0850
  217POSM   AM2 2540  34.493   1.176  10.426 -0.1615 -0.1426  0.0940
  217POSM   T1A 2541  33.970   1.168  10.506  0.4622 -0.2145  0.2885
  217POSM   C2A 2542  33.955   1.158  10.990 -0.1805  0.1240 -0.3069
  217POSM   C3A 2543  34.025   1.239  11.484 -0.1700  0.1681  0.1432
  217POSM   C1B 2544  34.394   1.219  10.756  0.2839 -0.3002  0.1941
  217POSM   D2B 2545  34.401   1.394  11.189 -0.3730 -0.3915  0.2278
  217POSM   C3B 2546  34.757   1.627  11.297  0.1062 -0.0776  0.0775
  217POSM   C4B 2547  35.086   1.692  11.609  0.0107 -0.0519 -0.2708
  218DOPC   NC3 2548  11.073   9.557  11.171 -0.2283  0.0819  0.2890
  218DOPC   PO4 2549  11.290   9.269  11.329 -0.3619  0.1135  0.0301
  218DOPC   GL1 2550  11.328   9.193  11.667  0.0198  0.3353 -0.0870
  218DOPC   GL2 2551  11.399   8.879  11.726  0.2102 -0.2205 -0.2726
  218DOPC   C1A 2552  11.246   9.515  12.003  0.1316 -0.0531 -0.0648
  218DOPC   D2A 2553  11.406   9.848  12.252 -0.1888  0.0498  0.0942
  218DOPC   C3A 2554  11.487   9.947  12.653  0.1017 -0.0347 -0.3516
  218DOPC   C4A 2555  11.598  10.104  13.105 -0.0729  0.0139  0.4845
  218DOPC   C1B 2556  11.217   8.524  11.896  0.0531 -0.0119 -0.4313
  218DOPC   D2B 2557  11.054   8.187  12.185  0.2662 -0.0171  0.0586
  218DOPC   C3B 2558  10.898   8.345  12.637 -0.3315  0.1124  0.1825
  218DOPC   C4B 2559  10.770   8.610  12.942 -0.1025  0.1689 -0.0442
  219DOPC   NC3 2560  11.182   7.174  11.389  0.1820  0.0036 -0.1532
  219DOPC   PO4 2561  11.143   6.890  11.126  0.0765 -0.0771 -0.0905
  219DOPC   GL1 2562  11.012   6.696  11.448 -0.1647  0.0095  0.5600
  219DOPC   GL2 2563  10.939   6.476  11.303  0.0604 -0.0124 -0.0207
  219DOPC   C1A 2564  10.841   6.696  11.907 -0.0757  0.2322 -0.0980
  219DOPC   D2A 2565  10.673   6.715  12.290 -0.0173  0.0665  0.1113
  219DOPC   C3A 2566  10.918   6.837  12.667  0.3014  0.2439 -0.1080
  219DOPC   C4A 2567  11.078   6.922  13.055 -0.2298  0.2710 -0.0161
  219DOPC   C1B 2568  10.778   6.186  11.641  0.0318  0.1368  0.0659
  219DOPC   D2B 2569  10.882   5.733  11.682  0.0328 -0.0333  0.1186
  219DOPC   C3B 2570  10.745   5.726  12.147 -0.0090 -0.1058  0.0482
  219DOPC   C4B 2571  10.313   5.798  12.356  0.3513  0.1519  0.1723
  220DOPC   NC3 2572   3.733   6.714  11.944  0.1708  0.1689 -0.2324
  220DOPC   PO4 2573   3.837   7.087  11.918  0.0199  0.1709 -0.0168
  220DOPC   GL1 2574   4.036   6.958  12.253 -0.1981  0.0216  0.2299
  220DOPC   GL2 2575   3.941   7.206  12.379  0.0521  0.1654 -0.1132
  220DOPC   C1A 2576   4.480   7.007  12.351  0.0525  0.0140  0.0595
  220DOPC   D2A 2577   4.909   7.063  12.506  0.0221 -0.0826 -0.0956
  220DOPC   C3A 2578   5.148   7.122  12.160 -0.0056 -0.2074 -0.2754
  220DOPC   C4A 2579   5.571   7.138  12.121  0.0771  0.0953  0.3194
  220DOPC   C1B 2580   4.130   7.119  12.748  0.0587 -0.1768  0.1696
  220DOPC   D2B 2581   4.529   7.089  12.965  0.0049 -0.4760  0.2963
  220DOPC   C3B 2582   4.663   7.428  13.267 -0.0593 -0.1564  0.0026
  220DOPC   C4B 2583   4.829   7.857  13.349 -0.1969  0.2124  0.1226
  221DOPE   NH3 2584   3.966   1.475  10.669 -0.1625  0.2077 -0.1593
  221DOPE   PO4 2585   3.814   1.328  10.882 -0.2533 -0.0034  0.1239
  221DOPE   GL1 2586   3.786   1.031  11.230  0.1152 -0.2247  0.0056
  221DOPE   GL2 2587   3.460   1.032  11.294  0.1946  0.2222 -0.1865
  221DOPE   C1A 2588   3.911   0.814  11.662 -0.0919  0.0340 -0.3140
  221DOPE   D2A 2589   3.648   0.632  11.990  0.0266  0.2843 -0.0788
  221DOPE   C3A 2590   3.678   0.185  11.940 -0.3207  0.0106 -0.1616
  221DOPE   C4A 2591   4.065  -0.042  11.860  0.0077  0.2623 -0.1876
  221DOPE   C1B 2592   3.418   1.076  11.727 -0.2939  0.2412  0.0076
  221DOPE   D2B 2593   3.421   1.049  12.191  0.1063 -0.0943  0.0382
  221DOPE   C3B 2594   3.634   0.708  12.484 -0.0639  0.1033 -0.1801
  221DOPE   C4B 2595   3.683   0.274  12.710  0.0311 -0.1198 -0.3196
  222POSM   NC3 2596   7.346  33.237  10.138 -0.1452  0.2192  0.0358
  222POSM   PO4 2597   7.055  33.449  10.339  0.5850  0.3613 -0.0633
  222POSM   AM1 2598   7.017  33.285  10.605  0.0040  0.1452  0.1379
  222POSM   AM2 2599   6.840  33.316  10.846 -0.3225 -0.0549 -0.2520
  222POSM   T1A 2600   7.212  32.967  10.973  0.2867 -0.0912 -0.0304
  222POSM   C2A 2601   7.544  33.060  11.242  0.0776  0.0174 -0.1508
  222POSM   C3A 2602   7.860  33.136  11.558  0.1274  0.0796  0.2222
  222POSM   C1B 2603   7.084  33.444  11.122  0.0175 -0.3767  0.0979
  222POSM   D2B 2604   7.163  33.477  11.563 -0.3238  0.1212 -0.3834
  222POSM   C3B 2605   7.297  33.893  11.724 -0.1840 -0.3920 -0.0765
  222POSM   C4B 2606   7.173  34.326  11.575  0.0943  0.5466  0.3397
  223DOPE   NH3 2607  33.862  10.207  11.310  0.1494 -0.0876  0.1307
  223DOPE   PO4 2608  33.546  10.086  11.252 -0.2656 -0.1171  0.0679
  223DOPE   GL1 2609  33.423   9.879  11.608  0.2927 -0.3283  0.0790
  223DOPE   GL2 2610  33.402   9.530  11.656  0.1043  0.4174  0.3052
  223DOPE   C1A 2611  33.167   9.822  11.987  0.3224  0.0993  0.0147
  223DOPE   D2A 2612  32.785  10.063  12.177  0.3638  0.0073  0.0328
  223DOPE   C3A 2613  32.646   9.837  12.562  0.0139 -0.1176 -0.2223
  223DOPE   C4A 2614  32.720   9.634  13.022 -0.1923  0.3446 -0.1679
  223DOPE   C1B 2615  33.333   9.371  12.146 -0.0201  0.1812 -0.0883
  223DOPE   D2B 2616  33.589   9.307  12.564 -0.1201 -0.1623  0.0675
  223DOPE   C3B 2617  34.026   9.506  12.705 -0.1152 -0.0852 -0.0580
  223DOPE   C4B 2618  34.483   9.313  12.774  0.0850 -0.1455  0.1479
  224DOPC   NC3 2619   7.643  30.866   9.814  0.3890 -0.2485 -0.1481
  224DOPC   PO4 2620   7.874  31.182   9.831 -0.1702  0.0957 -0.0119
  224DOPC   GL1 2621   7.789  31.178  10.204  0.2710  0.2791  0.0282
  224DOPC   GL2 2622   7.674  30.923  10.299  0.3287 -0.0529 -0.0131
  224DOPC   C1A 2623   7.717  31.290  10.664  0.1898  0.1714 -0.1417
  224DOPC   D2A 2624   7.761  31.375  11.083  0.4956 -0.0406  0.1039
  224DOPC   C3A 2625   7.498  31.597  11.458 -0.1395  0.1122  0.1802
  224DOPC   C4A 2626   7.400  31.639  11.909 -0.1621  0.1550  0.3224
  224DOPC   C1B 2627   7.489  30.637  10.623  0.2209  0.0188 -0.0490
  224DOPC   D2B 2628   7.633  30.257  10.728  0.1580 -0.3742 -0.0408
  224DOPC   C3B 2629   7.253  29.943  10.844  0.0717  0.2060  0.1977
  224DOPC   C4B 2630   6.859  29.924  10.595 -0.0110 -0.0105 -0.0833
  225POSM   NC3 2631   8.282  33.704  10.187 -0.0257 -0.1863 -0.0626
  225POSM   PO4 2632   8.321  33.502  10.510 -0.0928  0.0269  0.1226
  225POSM   AM1 2633   8.442  33.413  10.824  0.0631  0.1643 -0.0396
  225POSM   AM2 2634   8.498  33.178  11.006  0.3920  0.3254 -0.1752
  225POSM   T1A 2635   8.561  33.530  11.281 -0.1685 -0.0239 -0.2116
  225POSM   C2A 2636   8.462  33.281  11.694 -0.2517  0.1811  0.0232
  225POSM   C3A 2637   8.234  33.284  12.066 -0.2211  0.0480  0.0274
  225POSM   C1B 2638   8.355  33.025  11.274 -0.1464 -0.1755  0.0660
  225POSM   D2B 2639   8.190  32.849  11.675 -0.0645 -0.0982 -0.1678
  225POSM   C3B 2640   8.480  32.501  11.886 -0.0178  0.5112 -0.1142
  225POSM   C4B 2641   8.656  32.288  12.294  0.0658 -0.0407 -0.1041
  226DOPE   NH3 2642   9.019   3.349  10.768 -0.1973  0.1640  0.1514
  226DOPE   PO4 2643   9.265   3.205  10.826 -0.1006 -0.2129  0.0445
  226DOPE   GL1 2644   9.106   3.171  11.228 -0.0122  0.0117  0.2691
  226DOPE   GL2 2645   9.417   3.135  11.366  0.0275  0.2132  0.4404
  226DOPE   C1A 2646   9.028   2.766  11.498 -0.1312 -0.0010  0.1305
  226DOPE   D2A 2647   8.709   2.660  11.830  0.0279  0.1454 -0.0077
  226DOPE   C3A 2648   8.683   2.789  12.264  0.1136 -0.0699  0.0867
  226DOPE   C4A 2649   8.881   2.793  12.713  0.0483  0.1026  0.1195
  226DOPE   C1B 2650   9.347   3.392  11.729 -0.3078  0.1343  0.0666
  226DOPE   D2B 2651   9.131   3.433  12.102  0.1882 -0.0486  0.3293
  226DOPE   C3B 2652   8.752   3.359  12.305  0.0870  0.0666 -0.2235
  226DOPE   C4B 2653   8.257   3.365  12.326 -0.1898  0.0036 -0.1643
  227DOPE   NH3 2654  34.409   4.357  10.149  0.2554  0.2717 -0.3112
  227DOPE   PO4 2655  34.094   4.245  10.143 -0.1394 -0.2542 -0.3171
  227DOPE   GL1 2656  34.212   4.324  10.565  0.5092 -0.1411  0.2756
  227DOPE   GL2 2657  34.162   4.054  10.687  0.0715  0.0319  0.0633
  227DOPE   C1A 2658  34.377   4.375  11.027  0.2795 -0.0926  0.1850
  227DOPE   D2A 2659  34.202   4.474  11.437 -0.0048  0.0946  0.2474
  227DOPE   C3A 2660  34.373   4.322  11.826  0.0478 -0.1860 -0.0735
  227DOPE   C4A 2661  34.524   4.306  12.300  0.1938 -0.1126 -0.2088
  227DOPE   C1B 2662  34.071   4.012  11.115 -0.0652  0.2033 -0.1997
  227DOPE   D2B 2663  34.012   3.980  11.616  0.2544  0.0859 -0.0070
  227DOPE   C3B 2664  33.664   3.647  11.770 -0.1154  0.1322 -0.1249
  227DOPE   C4B 2665  33.265   3.369  11.817 -0.0312 -0.0734  0.2001
  228DOPC   NC3 2666   3.978   7.966  10.864  0.0791  0.2315  0.0452
  228DOPC   PO4 2667   3.930   8.148  11.224 -0.0310  0.1885  0.0203
  228DOPC   GL1 2668   3.832   8.357  11.542 -0.5169  0.0792 -0.1304
  228DOPC   GL2 2669   3.854   8.109  11.713 -0.0340  0.0956 -0.2167
  228DOPC   C1A 2670   4.004   8.492  11.963  0.0427  0.0263  0.2247
  228DOPC   D2A 2671   4.090   8.240  12.310  0.1643 -0.1197  0.0767
  228DOPC   C3A 2672   4.345   8.509  12.637  0.2711  0.1475  0.4640
  228DOPC   C4A 2673   4.553   8.657  13.014 -0.0311 -0.1089 -0.1549
  228DOPC   C1B 2674   3.842   7.857  12.102  0.1437  0.1218 -0.2061
  228DOPC   D2B 2675   4.070   7.668  12.512  0.3426 -0.3913  0.0274
  228DOPC   C3B 2676   4.367   7.964  12.703  0.0396 -0.1585 -0.0125
  228DOPC   C4B 2677   4.694   8.211  12.919  0.0395  0.0613 -0.0256
  229DOPE   NH3 2678   1.011   9.144  11.355 -0.2660  0.1370 -0.2435
  229DOPE   PO4 2679   0.666   9.168  11.371 -0.0791 -0.2716 -0.1384
  229DOPE   GL1 2680   0.726   9.137  11.790  0.1603 -0.4312 -0.1358
  229DOPE   GL2 2681   0.683   8.842  11.722  0.1742 -0.2527  0.1721
  229DOPE   C1A 2682   0.388   9.144  12.108 -0.2158  0.0590  0.0506
  229DOPE   D2A 2683   0.133   9.393  12.470  0.1003 -0.2870  0.0730
  229DOPE   C3A 2684   0.371   9.259  12.868 -0.0401 -0.3579 -0.0504
  229DOPE   C4A 2685   0.444   9.014  13.272 -0.2395 -0.1059  0.2398
  229DOPE   C1B 2686   0.695   8.715  12.177 -0.0241 -0.0915 -0.1961
  229DOPE   D2B 2687   0.837   8.573  12.588 -0.0766 -0.0143 -0.2282
  229DOPE   C3B 2688   0.817   8.897  12.936 -0.0796 -0.2647  0.2334
  229DOPE   C4B 2689   0.846   9.354  12.999  0.2569  0.3356 -0.0019
  230POSM   NC3 2690  10.955   3.118  11.001  0.3662 -0.1432  0.0540
  230POSM   PO4 2691  10.710   3.396  11.050 -0.0402  0.0338 -0.1816
  230POSM   AM1 2692  10.662   3.228  11.311  0.3050  0.2124 -0.1444
  230POSM   AM2 2693  10.458   3.133  11.455  0.1179 -0.1190 -0.0856
  230POSM   T1A 2694  10.905   2.934  11.538 -0.2392  0.0249  0.0896
  230POSM   C2A 2695  11.069   2.935  11.931 -0.4358 -0.3079 -0.2476
  230POSM   C3A 2696  11.174   2.709  12.400  0.3581  0.5366 -0.1992
  230POSM   C1B 2697  10.364   3.075  11.821  0.1207  0.2201 -0.4804
  230POSM   D2B 2698  10.105   3.000  12.162  0.3137 -0.2248 -0.0113
  230POSM   C3B 2699  10.278   3.215  12.530 -0.1870 -0.2445  0.1204
  230POSM   C4B 2700  10.300   3.098  13.032 -0.1408 -0.0686 -0.2299
  231DOPC   NC3 2701   8.208   6.626  10.515 -0.0640  0.1052  0.0332
  231DOPC   PO4 2702   8.031   6.944  10.701  0.0781  0.2084 -0.0841
  231DOPC   GL1 2703   8.046   7.006  11.195  0.0384  0.2591 -0.3312
  231DOPC   GL2 2704   8.275   6.733  11.112 -0.0081  0.2522 -0.2651
  231DOPC   C1A 2705   8.413   7.171  11.408  0.1296 -0.1357  0.1668
  231DOPC   D2A 2706   8.595   7.349  11.787 -0.1158 -0.0123 -0.4307
  231DOPC   C3A 2707   8.682   7.063  12.120 -0.1677  0.0933 -0.3202
  231DOPC   C4A 2708   9.005   6.905  12.415  0.3789 -0.2230 -0.0692
  231DOPC   C1B 2709   8.240   6.716  11.593 -0.2744 -0.1049  0.0638
  231DOPC   D2B 2710   8.196   6.774  12.041 -0.0583 -0.1959 -0.0027
  231DOPC   C3B 2711   8.079   6.526  12.413  0.0385 -0.0179 -0.0727
  231DOPC   C4B 2712   7.870   6.158  12.627  0.0439  0.4275  0.1002
  232POSM   NC3 2713   8.258   9.937  10.902 -0.1333  0.3064  0.4223
  232POSM   PO4 2714   8.262   9.534  10.964 -0.1065 -0.1262  0.1847
  232POSM   AM1 2715   8.441   9.615  11.258 -0.1460  0.0933  0.3281
  232POSM   AM2 2716   8.406   9.510  11.549 -0.2558  0.1545 -0.0691
  232POSM   T1A 2717   8.674   9.892  11.544 -0.1692  0.0253  0.0313
  232POSM   C2A 2718   9.044   9.959  11.811  0.0471 -0.0204 -0.0625
  232POSM   C3A 2719   9.040  10.053  12.275  0.1694 -0.1930  0.1555
  232POSM   C1B 2720   8.288   9.649  11.835 -0.2372 -0.3510  0.2943
  232POSM   D2B 2721   8.170   9.836  12.204 -0.0824 -0.1701  0.1103
  232POSM   C3B 2722   8.481   9.932  12.499 -0.0243  0.0758 -0.3313
  232POSM   C4B 2723   8.865   9.797  12.680  0.0944 -0.1006  0.2079
  233DOPE   NH3 2724   7.035  33.782  10.682  0.2327 -0.1132 -0.0123
  233DOPE   PO4 2725   6.801  33.890  10.534  0.0875 -0.2845  0.0110
  233DOPE   GL1 2726   6.611  33.716  10.927  0.2777  0.4466  0.1629
  233DOPE   GL2 2727   6.758  33.819  11.138 -0.0096  0.2422  0.5592
  233DOPE   C1A 2728   6.510  33.348  11.240  0.1263  0.0183 -0.0027
  233DOPE   D2A 2729   6.615  33.257  11.685 -0.1282 -0.0351  0.0921
  233DOPE   C3A 2730   6.811  32.997  12.047 -0.1395  0.0137 -0.0549
  233DOPE   C4A 2731   6.691  32.768  12.419  0.3402  0.1225  0.1819
  233DOPE   C1B 2732   6.824  33.993  11.607 -0.1971 -0.2141  0.1585
  233DOPE   D2B 2733   6.770  34.151  12.004 -0.2524  0.0705 -0.0406
  233DOPE   C3B 2734   7.078  34.047  12.313 -0.2456 -0.1336  0.2630
  233DOPE   C4B 2735   7.473  33.804  12.265  0.0067 -0.1509 -0.2018
  234DOPC   NC3 2736  11.477   5.154  10.819 -0.2871 -0.0786  0.3792
  234DOPC   PO4 2737  11.318   5.458  10.933 -0.1216  0.1197 -0.0274
  234DOPC   GL1 2738  11.206   5.406  11.339  0.5537  0.1913  0.0212
  234DOPC   GL2 2739  10.979   5.285  11.545 -0.1066 -0.2051 -0.0724
  234DOPC   C1A 2740  11.356   5.661  11.668 -0.1938  0.1479 -0.4423
  234DOPC   D2A 2741  11.289   5.721  12.136 -0.1099  0.1366 -0.3205
  234DOPC   C3A 2742  11.334   5.510  12.522 -0.0470 -0.1014 -0.1829
  234DOPC   C4A 2743  11.351   5.236  12.838  0.2530 -0.2044 -0.1710
  234DOPC   C1B 2744  10.732   5.287  11.958 -0.3828 -0.1285  0.1395
  234DOPC   D2B 2745  10.602   5.172  12.370 -0.1205  0.3287  0.1442
  234DOPC   C3B 2746  10.657   5.480  12.674  0.0767 -0.2178  0.1702
  234DOPC   C4B 2747  10.937   5.819  12.834 -0.1922  0.0814  0.2989
  235DOPE   NH3 2748  10.701  32.389  10.708  0.2911 -0.1251  0.3198
  235DOPE   PO4 2749  10.937  32.198  10.612  0.1073  0.0478  0.2246
  235DOPE   GL1 2750  10.981  32.256  11.050  0.2542 -0.0005 -0.1004
  235DOPE   GL2 2751  10.784  32.104  11.109 -0.0639 -0.1762  0.1124
  235DOPE   C1A 2752  11.338  32.205  11.347 -0.0858 -0.1572 -0.2769
  235DOPE   D2A 2753  11.649  32.004  11.636 -0.1312  0.1972  0.0898
  235DOPE   C3A 2754  11.584  31.955  12.120  0.0179 -0.0163  0.1550
  235DOPE   C4A 2755  11.209  31.944  12.335  0.1425  0.1237  0.1438
  235DOPE   C1B 2756  10.822  31.905  11.532  0.2032 -0.0733  0.4469
  235DOPE   D2B 2757  10.757  31.912  11.966  0.1868 -0.0357 -0.1616
  235DOPE   C3B 2758  10.634  32.206  12.260 -0.2107 -0.1944  0.0672
  235DOPE   C4B 2759  10.267  32.324  12.461  0.2395  0.0295  0.0168
  236POSM   NC3 2760   1.912   1.981  10.544 -0.3451  0.0152 -0.0882
  236POSM   PO4 2761   2.285   2.009  10.645 -0.0936  0.1558 -0.1389
  236POSM   AM1 2762   2.291   2.199  10.909  0.5048 -0.1442 -0.0968
  236POSM   AM2 2763   2.430   2.429  11.052  0.0317 -0.0844 -0.0678
  236POSM   T1A 2764   2.031   2.294  11.322  0.3445 -0.4110  0.0664
  236POSM   C2A 2765   1.997   2.264  11.752 -0.0408 -0.1384  0.0440
  236POSM   C3A 2766   2.203   2.162  12.223 -0.1691 -0.2736 -0.1091
  236POSM   C1B 2767   2.590   2.417  11.330 -0.3125 -0.3285 -0.1270
  236POSM   D2B 2768   2.490   2.328  11.747  0.0094 -0.3592 -0.1554
  236POSM   C3B 2769   2.631   2.036  12.112  0.2092  0.0409 -0.1594
  236POSM   C4B 2770   2.561   2.082  12.519 -0.0638  0.3824  0.0272
  237DOPC   NC3 2771   6.670   4.650  11.467 -0.1646  0.2248  0.0381
  237DOPC   PO4 2772   6.339   4.763  11.379 -0.1859 -0.0722 -0.1805
  237DOPC   GL1 2773   6.171   4.758  11.735 -0.1517  0.1184  0.0930
  237DOPC   GL2 2774   5.964   4.596  11.682  0.1850  0.0363  0.0835
  237DOPC   C1A 2775   6.427   4.788  12.115  0.1927  0.0057 -0.3782
  237DOPC   D2A 2776   6.594   4.961  12.551  0.0374 -0.2219 -0.0012
  237DOPC   C3A 2777   6.249   5.083  12.860  0.0470 -0.0129  0.0773
  237DOPC   C4A 2778   5.888   5.038  13.151  0.1508  0.0893 -0.1130
  237DOPC   C1B 2779   5.830   4.768  12.078 -0.3504 -0.2912  0.1411
  237DOPC   D2B 2780   6.030   4.736  12.475 -0.0447 -0.0629  0.2548
  237DOPC   C3B 2781   6.081   4.272  12.580  0.1169  0.1800  0.3969
  237DOPC   C4B 2782   6.082   3.860  12.727 -0.0729 -0.1495 -0.0502
  238POSM   NC3 2783   8.634  34.519  10.438  0.0307  0.3626 -0.0220
  238POSM   PO4 2784   8.309  34.773  10.425 -0.2042  0.0745  0.0313
  238POSM   AM1 2785   8.209  34.661  10.719  0.0327  0.1878  0.0562
  238POSM   AM2 2786   8.363  34.625  10.981  0.2259 -0.2369 -0.1056
  238POSM   T1A 2787   8.030  34.277  10.960 -0.1526  0.0034 -0.0603
  238POSM   C2A 2788   8.001  33.773  11.159 -0.0290 -0.0958  0.2581
  238POSM   C3A 2789   8.121  33.604  11.574 -0.3962 -0.0275 -0.1189
  238POSM   C1B 2790   8.389  34.606  11.316 -0.0166  0.0945  0.0765
  238POSM   D2B 2791   8.563  34.457  11.689 -0.0339  0.0413 -0.2068
  238POSM   C3B 2792   8.490  34.584  12.139  0.0209 -0.1970  0.0930
  238POSM   C4B 2793   8.420  34.535  12.608  0.0319  0.1356 -0.0190
  239POSM   NC3 2794   2.143   7.596  11.282  0.0307 -0.2606  0.0000
  239POSM   PO4 2795   1.826   7.830  11.196  0.5119  0.3728  0.0827
  239POSM   AM1 2796   1.539   7.860  11.318  0.2049 -0.1182  0.2035
  239POSM   AM2 2797   1.357   8.020  11.466  0.0743  0.1523 -0.3661
  239POSM   T1A 2798   1.332   7.598  11.721  0.2182 -0.4189  0.0819
  239POSM   C2A 2799   1.261   7.107  11.609  0.0587 -0.0778 -0.0987
  239POSM   C3A 2800   0.944   6.777  11.487 -0.0041 -0.0801 -0.2801
  239POSM   C1B 2801   1.138   8.176  11.552  0.0707  0.3225 -0.1060
  239POSM   D2B 2802   1.034   8.536  11.882  0.0466 -0.2661  0.0310
  239POSM   C3B 2803   1.313   8.562  12.278 -0.0676  0.0093  0.2376
  239POSM   C4B 2804   1.646   8.383  12.495 -0.0722  0.0254  0.2613
  240DOPC   NC3 2805   3.732   3.454  11.749  0.1276 -0.0052  0.2043
  240DOPC   PO4 2806   4.025   3.487  11.460 -0.0520 -0.4629 -0.0486
  240DOPC   GL1 2807   4.218   3.349  11.796 -0.1570  0.1032  0.0661
  240DOPC   GL2 2808   4.466   3.386  11.737  0.1087 -0.1685 -0.0564
  240DOPC   C1A 2809   4.047   3.361  12.216 -0.2723 -0.1801 -0.1139
  240DOPC   D2A 2810   4.106   3.195  12.627  0.2037 -0.0095 -0.2367
  240DOPC   C3A 2811   4.535   3.051  12.670  0.1708 -0.0607  0.1988
  240DOPC   C4A 2812   4.964   2.836  12.800  0.1042 -0.0281  0.1182
  240DOPC   C1B 2813   4.537   3.237  12.156 -0.1572 -0.0502  0.0893
  240DOPC   D2B 2814   4.860   3.380  12.473 -0.2833 -0.0595  0.1266
  240DOPC   C3B 2815   5.264   3.579  12.396 -0.1115 -0.0737  0.2516
  240DOPC   C4B 2816   5.645   3.276  12.330 -0.0693  0.0675 -0.2540
  241DOPE   NH3 2817   4.030   4.233  11.633  0.2098 -0.1515  0.0991
  241DOPE   PO4 2818   3.860   3.957  11.750  0.1592 -0.1560 -0.3023
  241DOPE   GL1 2819   3.932   3.978  12.026 -0.0769  0.4724 -0.1100
  241DOPE   GL2 2820   3.996   4.216  12.164 -0.0589  0.2020  0.3046
  241DOPE   C1A 2821   4.255   3.805  12.346 -0.1168 -0.2758 -0.1561
  241DOPE   D2A 2822   4.355   3.580  12.749 -0.0650  0.4334  0.1202
  241DOPE   C3A 2823   4.662   3.778  13.023 -0.3961 -0.1119  0.1930
  241DOPE   C4A 2824   4.870   4.019  13.378 -0.0684 -0.1688 -0.0419
  241DOPE   C1B 2825   3.669   4.106  12.435 -0.2271  0.7285 -0.0663
  241DOPE   D2B 2826   3.518   4.086  12.864 -0.1453  0.1063  0.3749
  241DOPE   C3B 2827   3.799   4.129  13.187 -0.1567 -0.6145 -0.3736
  241DOPE   C4B 2828   3.940   4.226  13.680  0.2370  0.2498  0.1699
  242POSM   NC3 2829   3.105   9.542  11.539  0.0192  0.1844  0.1667
  242POSM   PO4 2830   3.438   9.733  11.619  0.0480  0.0251 -0.1833
  242POSM   AM1 2831   3.597   9.740  11.902  0.1819  0.1974  0.1633
  242POSM   AM2 2832   3.811   9.610  12.001 -0.0630  0.0728  0.1412
  242POSM   T1A 2833   3.866  10.064  12.249 -0.0002  0.1302  0.0813
  242POSM   C2A 2834   3.938  10.353  12.550 -0.2363 -0.1223  0.0560
  242POSM   C3A 2835   3.695  10.708  12.555  0.0065  0.1286  0.0873
  242POSM   C1B 2836   3.896   9.448  12.286  0.0775 -0.0723  0.1322
  242POSM   D2B 2837   3.933   9.334  12.703  0.0621  0.2319  0.3498
  242POSM   C3B 2838   4.330   9.395  13.009  0.0247  0.0943  0.0301
  242POSM   C4B 2839   4.589   9.147  13.232 -0.1707 -0.0956  0.1134
  243POSM   NC3 2840   2.346   4.550  11.179 -0.3585 -0.1905  0.0777
  243POSM   PO4 2841   2.721   4.423  11.174  0.2834  0.2775 -0.2857
  243POSM   AM1 2842   2.702   4.197  11.418  0.4377 -0.0968  0.0594
  243POSM   AM2 2843   2.611   4.272  11.658 -0.1127 -0.1530 -0.1823
  243POSM   T1A 2844   2.855   3.848  11.706  0.2700 -0.0084  0.0631
  243POSM   C2A 2845   2.874   3.731  12.162 -0.0362  0.0388  0.0016
  243POSM   C3A 2846   3.120   3.779  12.514 -0.3914 -0.1580  0.0309
  243POSM   C1B 2847   2.585   4.239  12.024  0.3194  0.0459  0.1516
  243POSM   D2B 2848   2.472   4.073  12.378  0.0201  0.1140  0.1580
  243POSM   C3B 2849   2.108   3.854  12.590 -0.0964  0.0958 -0.4273
  243POSM   C4B 2850   1.765   3.598  12.811 -0.0232 -0.1958  0.1251
  244DOPS   CNO 2851   5.391   2.670  10.946 -0.1396  0.0778 -0.1444
  244DOPS   PO4 2852   5.613   2.937  11.106 -0.1869 -0.3075  0.0578
  244DOPS   GL1 2853   5.570   2.894  11.506 -0.2689  0.2763 -0.2322
  244DOPS   GL2 2854   5.724   2.668  11.618  0.0590  0.1096 -0.2397
  244DOPS   C1A 2855   5.162   3.018  11.728 -0.0992 -0.1547 -0.1791
  244DOPS   D2A 2856   5.221   3.199  12.132  0.0472 -0.3167 -0.1000
  244DOPS   C3A 2857   4.872   2.872  12.317  0.2402  0.0610 -0.0504
  244DOPS   C4A 2858   4.570   2.510  12.464 -0.0097 -0.0422  0.3502
  244DOPS   C1B 2859   5.567   2.882  12.044  0.0604  0.0799 -0.1265
  244DOPS   D2B 2860   5.415   2.834  12.461 -0.1302  0.0727 -0.2177
  244DOPS   C3B 2861   5.249   3.199  12.731  0.1328  0.0459  0.0497
  244DOPS   C4B 2862   4.886   3.295  12.972  0.0410 -0.0838  0.2725
  245DOPC   NC3 2863   3.395   8.012  11.622  0.0490  0.0963  0.0352
  245DOPC   PO4 2864   3.295   8.327  11.469  0.1179  0.0702 -0.0051
  245DOPC   GL1 2865   3.254   8.381  11.882  0.2897 -0.7224 -0.1656
  245DOPC   GL2 2866   3.512   8.364  11.912  0.2214 -0.4056  0.0336
  245DOPC   C1A 2867   3.132   8.491  12.322  0.4366 -0.2164  0.0545
  245DOPC   D2A 2868   3.279   8.568  12.743 -0.0665  0.1556  0.1264
  245DOPC   C3A 2869   3.713   8.471  12.878  0.2352  0.1244 -0.5154
  245DOPC   C4A 2870   4.125   8.338  13.028  0.2072  0.1239 -0.1527
  245DOPC   C1B 2871   3.623   8.368  12.359 -0.1461  0.2173  0.1080
  245DOPC   D2B 2872   3.693   8.035  12.623 -0.0489 -0.2736 -0.0228
  245DOPC   C3B 2873   3.822   7.964  13.060 -0.2576  0.3447  0.1667
  245DOPC   C4B 2874   3.889   7.742  13.436  0.0745  0.0671  0.1547
  246POSM   NC3 2875  33.471   5.599  10.579  0.3046 -0.0323  0.0779
  246POSM   PO4 2876  33.356   6.016  10.570 -0.0815 -0.0769  0.0957
  246POSM   AM1 2877  33.291   6.012  10.851 -0.3548 -0.6217 -0.0733
  246POSM   AM2 2878  33.405   5.868  11.072 -0.2266 -0.1420  0.1476
  246POSM   T1A 2879  33.169   6.281  11.283 -0.3201 -0.1580 -0.2643
  246POSM   C2A 2880  32.912   6.315  11.624 -0.1384  0.1022 -0.0987
  246POSM   C3A 2881  32.486   6.383  11.769 -0.3093 -0.1215  0.2183
  246POSM   C1B 2882  33.352   5.805  11.402 -0.1119 -0.2319 -0.0959
  246POSM   D2B 2883  33.528   5.692  11.778 -0.1550  0.1000 -0.1075
  246POSM   C3B 2884  33.421   5.621  12.198  0.1710  0.1328  0.0319
  246POSM   C4B 2885  33.411   5.733  12.642 -0.1292 -0.0149  0.1553
  247DOPE   NH3 2886   4.414   3.790  11.340  0.0265  0.5159  0.0700
  247DOPE   PO4 2887   4.535   3.986  11.559 -0.2714  0.0559 -0.0367
  247DOPE   GL1 2888   4.644   4.112  11.886  0.0292 -0.2220  0.3017
  247DOPE   GL2 2889   4.473   4.272  12.045  0.1963  0.0630  0.0806
  247DOPE   C1A 2890   5.022   4.119  12.114  0.0397 -0.3806  0.0951
  247DOPE   D2A 2891   5.372   4.150  12.334  0.0762 -0.2509  0.1580
  247DOPE   C3A 2892   5.598   4.088  12.754  0.2005  0.2354  0.1574
  247DOPE   C4A 2893   5.965   4.193  13.035  0.0831  0.0772 -0.1658
  247DOPE   C1B 2894   4.425   4.239  12.566 -0.0396 -0.1881  0.2022
  247DOPE   D2B 2895   4.735   4.246  12.930 -0.4037 -0.3077  0.1302
  247DOPE   C3B 2896   4.369   4.242  13.224  0.0049  0.2769  0.1088
  247DOPE   C4B 2897   4.011   4.560  13.290  0.1676  0.0293 -0.2692
  248POSM   NC3 2898   0.117  10.036  11.282  0.1586 -0.1099  0.0436
  248POSM   PO4 2899   0.256   9.890  11.596 -0.1403  0.0481 -0.0329
  248POSM   AM1 2900   0.451  10.085  11.753  0.2787 -0.3205 -0.0391
  248POSM   AM2 2901   0.671   9.986  11.950 -0.0893 -0.0100 -0.0532
  248POSM   T1A 2902   0.528  10.454  12.109  0.2246  0.2208  0.0530
  248POSM   C2A 2903   0.142  10.569  12.389  0.1936  0.0306 -0.1011
  248POSM   C3A 2904  -0.077  10.614  12.785  0.3241 -0.0651 -0.1133
  248POSM   C1B 2905   0.675  10.029  12.295 -0.1514  0.0979 -0.2552
  248POSM   D2B 2906   0.629  10.381  12.629 -0.1026 -0.1399  0.0599
  248POSM   C3B 2907   0.807  10.115  12.976 -0.0556 -0.0517  0.0736
  248POSM   C4B 2908   0.940   9.904  13.351  0.2282  0.2914 -0.1775
  249POSM   NC3 2909   3.256   5.235  11.343 -0.2626  0.1407  0.0066
  249POSM   PO4 2910   2.998   4.976  11.164  0.1700  0.2505  0.0104
  249POSM   AM1 2911   2.775   4.983  11.421 -0.0179  0.0378  0.4401
  249POSM   AM2 2912   2.636   4.763  11.596  0.2237 -0.1098  0.1128
  249POSM   T1A 2913   2.596   5.233  11.849  0.1143 -0.1454  0.2037
  249POSM   C2A 2914   2.228   5.411  12.074  0.1241 -0.1890 -0.1288
  249POSM   C3A 2915   1.808   5.406  12.231 -0.3177  0.3084 -0.1042
  249POSM   C1B 2916   2.438   4.747  11.862  0.0071 -0.0033 -0.2074
  249POSM   D2B 2917   2.319   4.552  12.256 -0.1778 -0.0117  0.1256
  249POSM   C3B 2918   2.696   4.490  12.493 -0.0985  0.0353 -0.1952
  249POSM   C4B 2919   2.878   4.605  12.861 -0.1863 -0.3186  0.1601
  250POSM   NC3 2920  34.749   6.177  10.515 -0.0401  0.1708  0.4263
  250POSM   PO4 2921  35.122   5.978  10.497  0.1700  0.0596 -0.0341
  250POSM   AM1 2922  35.170   5.884  10.814  0.1421  0.0498 -0.3482
  250POSM   AM2 2923  34.993   5.957  11.013 -0.3279 -0.1321  0.3309
  250POSM   T1A 2924  35.254   5.523  11.175 -0.0351 -0.1875  0.0131
  250POSM   C2A 2925  35.094   5.375  11.600  0.0228 -0.1127 -0.0399
  250POSM   C3A 2926  34.886   5.019  11.829 -0.0806 -0.1244 -0.1740
  250POSM   C1B 2927  34.815   6.028  11.272 -0.2877 -0.2319  0.0311
  250POSM   D2B 2928  34.737   5.883  11.729 -0.1168  0.1061 -0.0195
  250POSM   C3B 2929  34.817   5.501  12.009 -0.1366 -0.1000  0.0464
  250POSM   C4B 2930  34.853   5.217  12.410 -0.1051  0.2269  0.3153
  251DOPS   CNO 2931   6.925   5.342  11.184  0.0678  0.0349 -0.1070
  251DOPS   PO4 2932   6.816   4.999  11.106  0.5615 -0.0735  0.0754
  251DOPS   GL1 2933   6.590   5.159  11.421 -0.0056 -0.2938  0.2351
  251DOPS   GL2 2934   6.792   5.131  11.636 -0.0734 -0.1536 -0.4284
  251DOPS   C1A 2935   6.357   5.299  11.812  0.0894  0.1038 -0.0933
  251DOPS   D2A 2936   6.255   5.221  12.267  0.2003 -0.1108  0.0629
  251DOPS   C3A 2937   6.619   5.455  12.534  0.1990 -0.0301 -0.0738
  251DOPS   C4A 2938   6.807   5.899  12.591  0.0812 -0.1614  0.0231
  251DOPS   C1B 2939   6.830   5.064  12.135 -0.2932  0.0323 -0.0280
  251DOPS   D2B 2940   7.141   5.085  12.519  0.1679 -0.0051 -0.3305
  251DOPS   C3B 2941   7.325   4.851  12.916  0.1139 -0.2412 -0.0694
  251DOPS   C4B 2942   7.145   4.690  13.312 -0.0566  0.0084 -0.3384
  252POSM   NC3 2943   3.954   0.367  10.836  0.0579  0.2616  0.2930
  252POSM   PO4 2944   4.185   0.182  10.568  0.1542 -0.2535 -0.0154
  252POSM   AM1 2945   4.152  -0.078  10.762  0.1759 -0.2689  0.1001
  252POSM   AM2 2946   4.045  -0.057  11.037 -0.2069 -0.0555  0.0592
  252POSM   T1A 2947   3.807  -0.422  10.920 -0.0537  0.2719  0.1193
  252POSM   C2A 2948   3.422  -0.620  11.100 -0.1302  0.0280 -0.1252
  252POSM   C3A 2949   3.032  -0.787  11.349 -0.1007  0.1488 -0.1015
  252POSM   C1B 2950   4.098  -0.250  11.325 -0.1955  0.0545 -0.1411
  252POSM   D2B 2951   4.427  -0.350  11.666  0.2648 -0.1846  0.1988
  252POSM   C3B 2952   4.728  -0.413  12.042 -0.1730 -0.2396 -0.0036
  252POSM   C4B 2953   4.797  -0.619  12.458 -0.2428  0.1222 -0.1782
  253DOPE   NH3 2954  11.237   1.404  10.707  0.1626 -0.4706  0.2943
  253DOPE   PO4 2955  10.952   1.325  10.731 -0.0760  0.0092  0.0128
  253DOPE   GL1 2956  10.765   1.406  11.036  0.1592  0.0263  0.2180
  253DOPE   GL2 2957  10.586   1.269  11.142 -0.4215 -0.1182  0.0046
  253DOPE   C1A 2958  10.557   1.793  11.206  0.0094  0.0637 -0.0450
  253DOPE   D2A 2959  10.312   2.121  11.407 -0.1478 -0.1377  0.1447
  253DOPE   C3A 2960  10.119   2.144  11.845  0.0952  0.3230 -0.2158
  253DOPE   C4A 2961  10.070   2.328  12.307 -0.1761 -0.3512 -0.1383
  253DOPE   C1B 2962  10.862   1.436  11.495  0.0265 -0.1538  0.2631
  253DOPE   D2B 2963  11.053   1.603  11.913  0.4309 -0.2509 -0.0401
  253DOPE   C3B 2964  11.525   1.778  11.951 -0.0363 -0.0716  0.0257
  253DOPE   C4B 2965  11.952   1.626  12.130 -0.2162  0.2003  0.0756
  254DOPE   NH3 2966  10.324  10.613  11.382  0.0553  0.2295 -0.2348
  254DOPE   PO4 2967  10.481  10.842  11.514  0.2025  0.1746  0.0447
  254DOPE   GL1 2968  10.267  10.816  11.849 -0.0631  0.1364 -0.0255
  254DOPE   GL2 2969  10.353  10.848  12.059  0.0979 -0.1421  0.2996
  254DOPE   C1A 2970   9.887  10.877  12.171  0.1231 -0.2946  0.1203
  254DOPE   D2A 2971   9.544  10.750  12.472  0.2400  0.2379  0.0908
  254DOPE   C3A 2972   9.163  10.463  12.643  0.0165  0.1433 -0.2118
  254DOPE   C4A 2973   9.069  10.234  13.034 -0.3674  0.0921  0.0547
  254DOPE   C1B 2974  10.720  11.104  12.183 -0.1272 -0.0564  0.0739
  254DOPE   D2B 2975  10.873  11.290  12.538 -0.0283  0.1581  0.1154
  254DOPE   C3B 2976  10.592  11.075  12.925 -0.0421 -0.2827  0.0871
  254DOPE   C4B 2977  10.448  10.899  13.327 -0.2739  0.1798  0.0449
  255DOPE   NH3 2978   4.667   7.766  11.187  0.4077 -0.4873 -0.2830
  255DOPE   PO4 2979   4.945   7.642  11.149  0.1261 -0.1959 -0.1013
  255DOPE   GL1 2980   5.182   7.830  11.470  0.0092 -0.2870  0.0750
  255DOPE   GL2 2981   5.431   7.756  11.381 -0.0567 -0.3702  0.3874
  255DOPE   C1A 2982   5.365   7.591  11.885  0.1623 -0.1642 -0.0029
  255DOPE   D2A 2983   5.752   7.362  11.742 -0.3927 -0.0961 -0.2480
  255DOPE   C3A 2984   6.074   7.548  11.969  0.0240 -0.1708  0.1100
  255DOPE   C4A 2985   6.413   7.837  12.149 -0.0222  0.1982 -0.1908
  255DOPE   C1B 2986   5.718   7.932  11.729 -0.1260 -0.4169 -0.0020
  255DOPE   D2B 2987   5.832   8.122  12.129  0.1446  0.0385  0.0065
  255DOPE   C3B 2988   6.048   7.962  12.509 -0.1402  0.1011 -0.0123
  255DOPE   C4B 2989   6.302   7.607  12.634 -0.1651  0.3554  0.0202
  256DOPE   NH3 2990   0.942   1.356  10.762  0.2458 -0.1262 -0.2665
  256DOPE   PO4 2991   0.718   1.564  10.675 -0.0376  0.2089  0.0906
  256DOPE   GL1 2992   0.553   1.150  10.729  0.1102 -0.2004  0.1255
  256DOPE   GL2 2993   0.320   1.256  10.798  0.1725 -0.1654  0.2200
  256DOPE   C1A 2994   0.441   0.826  11.020 -0.0189 -0.3930 -0.0889
  256DOPE   D2A 2995   0.388   0.603  11.399  0.2611  0.1532  0.0471
  256DOPE   C3A 2996   0.248   0.222  11.631 -0.2784  0.1281  0.1119
  256DOPE   C4A 2997   0.136   0.157  12.103 -0.1262  0.2714 -0.0636
  256DOPE   C1B 2998   0.118   1.178  11.204  0.0922 -0.2834  0.0935
  256DOPE   D2B 2999   0.050   1.033  11.624 -0.0729 -0.0760 -0.2535
  256DOPE   C3B 3000   0.290   0.797  11.823 -0.0795 -0.2507  0.3030
  256DOPE   C4B 3001   0.617   0.487  11.881  0.0667  0.3014  0.0663
  257POSM   NC3 3002   0.245   0.512   9.776 -0.1722 -0.0517 -0.1431
  257POSM   PO4 3003   0.202   0.364  10.116 -0.0679  0.3111  0.1237
  257POSM   AM1 3004  -0.039   0.428  10.377 -0.2347 -0.0327 -0.1108
  257POSM   AM2 3005  -0.318   0.531  10.376  0.0742 -0.0751 -0.2283
  257POSM   T1A 3006  -0.220   0.249  10.783 -0.1293 -0.1870 -0.0492
  257POSM   C2A 3007  -0.549   0.347  11.106 -0.1193  0.0166 -0.0779
  257POSM   C3A 3008  -0.728   0.365  11.483  0.2791  0.0592 -0.0003
  257POSM   C1B 3009  -0.558   0.604  10.595 -0.1173  0.0706  0.5946
  257POSM   D2B 3010  -0.958   0.638  10.806  0.2314 -0.0160  0.1566
  257POSM   C3B 3011  -0.906   0.704  11.213  0.0284  0.1527  0.0287
  257POSM   C4B 3012  -0.846   0.781  11.706 -0.1243  0.0453 -0.1124
  258DOPC   NC3 3013  12.285   7.199  11.201  0.0238  0.1132 -0.2296
  258DOPC   PO4 3014  12.377   7.454  11.459 -0.1915 -0.0720 -0.2712
  258DOPC   GL1 3015  12.196   7.418  11.808  0.1683  0.0993  0.0510
  258DOPC   GL2 3016  11.931   7.475  11.754 -0.1524 -0.0769  0.2411
  258DOPC   C1A 3017  12.327   7.448  12.251  0.1568 -0.1812 -0.4421
  258DOPC   D2A 3018  12.481   7.212  12.625 -0.0994 -0.2499 -0.0355
  258DOPC   C3A 3019  12.943   7.263  12.638  0.1057  0.1787  0.0913
  258DOPC   C4A 3020  13.357   7.465  12.833 -0.3486  0.0639  0.1625
  258DOPC   C1B 3021  11.716   7.430  12.148  0.4176 -0.0727 -0.0534
  258DOPC   D2B 3022  11.801   7.173  12.459 -0.0608  0.0499 -0.0936
  258DOPC   C3B 3023  11.739   7.278  12.897 -0.1336 -0.0725 -0.2567
  258DOPC   C4B 3024  11.456   7.137  13.315  0.1202 -0.1105  0.0192
  259DOPC   NC3 3025   7.378  10.264  11.464  0.4149 -0.0599 -0.0246
  259DOPC   PO4 3026   7.091  10.439  11.286  0.2482 -0.1080 -0.0447
  259DOPC   GL1 3027   6.823  10.276  11.566 -0.2055  0.1638 -0.3446
  259DOPC   GL2 3028   6.817  10.004  11.711 -0.2334  0.0616 -0.1045
  259DOPC   C1A 3029   6.789  10.542  11.948 -0.0251  0.0469  0.1604
  259DOPC   D2A 3030   6.884  10.597  12.416  0.0163 -0.0058  0.0973
  259DOPC   C3A 3031   6.879  10.880  12.831  0.0647  0.1217  0.0680
  259DOPC   C4A 3032   6.738  11.187  13.097  0.5801  0.2657  0.0559
  259DOPC   C1B 3033   6.915   9.862  12.145 -0.3281 -0.0917 -0.4863
  259DOPC   D2B 3034   6.873   9.807  12.617  0.1954 -0.0989 -0.3054
  259DOPC   C3B 3035   7.299   9.635  12.891  0.4373  0.0575  0.1878
  259DOPC   C4B 3036   7.705   9.661  13.041 -0.1015 -0.0477 -0.0220
  260POSM   NC3 3037  34.571   3.799  10.608 -0.3219 -0.3178 -0.1027
  260POSM   PO4 3038  34.752   3.478  10.662  0.0172  0.1364  0.1167
  260POSM   AM1 3039  34.673   3.537  10.959  0.0840  0.2365 -0.2641
  260POSM   AM2 3040  34.537   3.683  11.154  0.0613  0.1299  0.0620
  260POSM   T1A 3041  34.607   3.191  11.330  0.0238 -0.0402  0.2646
  260POSM   C2A 3042  34.699   3.030  11.774  0.0434 -0.2140 -0.1213
  260POSM   C3A 3043  34.776   2.819  12.161 -0.2460  0.2417 -0.1776
  260POSM   C1B 3044  34.580   3.958  11.281  0.4062 -0.0796  0.0648
  260POSM   D2B 3045  34.797   4.229  11.540  0.1339  0.0556 -0.2025
  260POSM   C3B 3046  34.756   3.982  11.976  0.4141  0.0344 -0.0595
  260POSM   C4B 3047  34.491   3.781  12.288 -0.0747 -0.0540 -0.0778
  261POSM   NC3 3048   5.978   6.343  11.402 -0.0825  0.2017 -0.0032
  261POSM   PO4 3049   5.955   6.015  11.191 -0.1916  0.1229 -0.3152
  261POSM   AM1 3050   6.122   5.875  11.490 -0.0179  0.2260 -0.0327
  261POSM   AM2 3051   6.333   5.969  11.660  0.0208  0.2564  0.0919
  261POSM   T1A 3052   6.060   5.701  11.977  0.1238 -0.0819 -0.3715
  261POSM   C2A 3053   6.010   5.646  12.433 -0.0587 -0.1296  0.1530
  261POSM   C3A 3054   6.098   5.590  12.922  0.0607 -0.1977  0.0224
  261POSM   C1B 3055   6.645   6.112  11.697 -0.1423 -0.0771 -0.1378
  261POSM   D2B 3056   7.088   6.218  11.614 -0.1546 -0.0545 -0.3221
  261POSM   C3B 3057   7.265   6.576  11.757 -0.0971  0.0514 -0.2320
  261POSM   C4B 3058   7.306   7.073  11.785 -0.2174 -0.0448  0.3088
  262DOPS   CNO 3059   5.901   3.852  10.869  0.2355 -0.1092 -0.0746
  262DOPS   PO4 3060   5.644   4.058  11.054  0.3605  0.1049  0.2825
  262DOPS   GL1 3061   5.690   3.838  11.369 -0.0534 -0.3120  0.1033
  262DOPS   GL2 3062   5.459   3.719  11.489  0.1376 -0.3617 -0.4639
  262DOPS   C1A 3063   6.031   4.013  11.636  0.4461 -0.0306 -0.0433
  262DOPS   D2A 3064   6.462   4.235  11.698  0.0141  0.0723 -0.1368
  262DOPS   C3A 3065   6.718   4.295  12.078 -0.0012 -0.1724 -0.2770
  262DOPS   C4A 3066   6.532   4.465  12.468 -0.0874 -0.1021  0.2559
  262DOPS   C1B 3067   5.536   3.367  11.708  0.1423  0.4913  0.0109
  262DOPS   D2B 3068   5.916   3.189  11.896 -0.1978 -0.1699  0.4756
  262DOPS   C3B 3069   6.131   2.813  11.855 -0.1584  0.0533  0.0823
  262DOPS   C4B 3070   6.236   2.360  11.976  0.2196 -0.0751  0.1408
  263DOPE   NH3 3071   9.836   9.238  11.443  0.0311  0.1746  0.1278
  263DOPE   PO4 3072   9.612   9.156  11.667  0.2454  0.1063  0.3488
  263DOPE   GL1 3073   9.753   9.247  11.983 -0.0866 -0.1736 -0.3597
  263DOPE   GL2 3074   9.645   9.520  12.053 -0.1819 -0.2308 -0.0566
  263DOPE   C1A 3075  10.049   9.349  12.287 -0.2032  0.0849 -0.0142
  263DOPE   D2A 3076  10.310   9.264  12.627 -0.1896  0.5108 -0.3324
  263DOPE   C3A 3077  10.260   8.847  12.853  0.0183  0.0520 -0.0952
  263DOPE   C4A 3078  10.064   8.605  13.171 -0.0805  0.2444 -0.0833
  263DOPE   C1B 3079   9.522   9.223  12.356  0.0240  0.1389  0.2016
  263DOPE   D2B 3080   9.542   8.764  12.475 -0.1443  0.0883  0.6082
  263DOPE   C3B 3081   9.536   8.535  12.109 -0.1487 -0.4034 -0.2791
  263DOPE   C4B 3082   9.669   8.131  11.895  0.3523 -0.1454  0.2430
  264DOPC   NC3 3083   8.502   4.001  10.968 -0.0089 -0.0641 -0.2350
  264DOPC   PO4 3084   8.851   3.840  10.891 -0.3003  0.2617  0.2780
  264DOPC   GL1 3085   8.852   3.788  11.263  0.1637  0.0446  0.1389
  264DOPC   GL2 3086   8.816   3.484  11.325  0.0447  0.0816  0.0918
  264DOPC   C1A 3087   9.157   3.854  11.603  0.0278 -0.1762 -0.0335
  264DOPC   D2A 3088   9.496   3.784  11.906 -0.2789  0.0207 -0.0021
  264DOPC   C3A 3089   9.445   3.871  12.386  0.0068  0.1662 -0.0683
  264DOPC   C4A 3090   9.030   3.794  12.523  0.2050  0.0439 -0.0876
  264DOPC   C1B 3091   8.737   3.656  11.755  0.0264  0.0418  0.0055
  264DOPC   D2B 3092   8.610   3.804  12.201 -0.0582  0.0609 -0.2939
  264DOPC   C3B 3093   8.529   3.742  12.641 -0.2052  0.0908  0.1356
  264DOPC   C4B 3094   8.413   3.887  13.031 -0.0814 -0.0499 -0.2410
  265DOPC   NC3 3095   7.322   7.421  10.668  0.0541  0.0275 -0.0625
  265DOPC   PO4 3096   7.225   7.247  11.030  0.0412  0.0881  0.1869
  265DOPC   GL1 3097   7.459   7.292  11.335 -0.1380 -0.0486 -0.5625
  265DOPC   GL2 3098   7.432   7.551  11.364  0.0696  0.2136  0.2730
  265DOPC   C1A 3099   7.882   7.282  11.506  0.0083 -0.0876  0.1561
  265DOPC   D2A 3100   7.931   7.186  11.896  0.0739 -0.0062  0.1544
  265DOPC   C3A 3101   8.262   7.282  12.182 -0.0813 -0.0230 -0.3720
  265DOPC   C4A 3102   8.593   7.477  12.498  0.1813  0.1120  0.1478
  265DOPC   C1B 3103   7.596   7.603  11.826  0.1664  0.0422 -0.1249
  265DOPC   D2B 3104   7.468   7.766  12.263  0.0721  0.0550 -0.2725
  265DOPC   C3B 3105   7.576   8.064  12.569  0.2595  0.0145  0.0549
  265DOPC   C4B 3106   7.721   8.287  12.936  0.0018 -0.2760  0.0447
  266DOPC   NC3 3107   1.872   9.630  11.641  0.1668 -0.0512 -0.3037
  266DOPC   PO4 3108   2.270   9.663  11.773  0.0574 -0.2262  0.1080
  266DOPC   GL1 3109   2.230   9.439  12.074  0.1520 -0.0238 -0.1213
  266DOPC   GL2 3110   1.948   9.349  12.038 -0.0452 -0.1460 -0.0728
  266DOPC   C1A 3111   2.221   9.114  12.426  0.0970 -0.1538  0.4302
  266DOPC   D2A 3112   2.458   8.914  12.758  0.1663 -0.1230  0.1074
  266DOPC   C3A 3113   2.378   8.993  13.242 -0.3022 -0.1156  0.1040
  266DOPC   C4A 3114   2.194   8.875  13.670 -0.0451 -0.1409 -0.2122
  266DOPC   C1B 3115   1.797   9.403  12.506 -0.2259  0.0799 -0.1860
  266DOPC   D2B 3116   1.874   9.584  12.875 -0.3114 -0.0948 -0.0382
  266DOPC   C3B 3117   1.871   9.264  13.218 -0.3631  0.0291 -0.0300
  266DOPC   C4B 3118   1.751   9.317  13.642 -0.1248 -0.1263 -0.3310
  267DOPE   NH3 3119   7.738  34.797  10.570 -0.2280 -0.4595 -0.0788
  267DOPE   PO4 3120   7.483  34.825  10.700  0.2009 -0.2170  0.0467
  267DOPE   GL1 3121   7.724  34.879  11.093 -0.3063 -0.2159  0.4113
  267DOPE   GL2 3122   7.877  34.693  11.104  0.2186 -0.1217  0.0418
  267DOPE   C1A 3123   7.585  34.906  11.524  0.4156 -0.2756 -0.5157
  267DOPE   D2A 3124   7.712  34.882  11.954  0.1387  0.3381  0.1890
  267DOPE   C3A 3125   7.449  35.021  12.271 -0.1261 -0.0560 -0.3532
  267DOPE   C4A 3126   7.140  35.039  12.650 -0.1060  0.0889  0.0100
  267DOPE   C1B 3127   7.853  34.476  11.519 -0.0270 -0.1205  0.1074
  267DOPE   D2B 3128   8.025  34.521  11.956  0.0430  0.1018 -0.2152
  267DOPE   C3B 3129   7.736  34.555  12.360 -0.0803 -0.4528 -0.1129
  267DOPE   C4B 3130   7.435  34.586  12.768 -0.0517  0.1348 -0.0824
  268DOPC   NC3 3131   9.357   5.069  11.038  0.6059 -0.1112 -0.0625
  268DOPC   PO4 3132   9.617   5.003  10.764  0.1850  0.4848 -0.0416
  268DOPC   GL1 3133   9.826   4.893  11.138 -0.1278  0.1182 -0.2357
  268DOPC   GL2 3134  10.157   4.935  11.170 -0.0729  0.0104  0.1692
  268DOPC   C1A 3135   9.665   4.765  11.587 -0.1687  0.2925  0.0161
  268DOPC   D2A 3136   9.835   4.728  12.049  0.1645 -0.2001 -0.0350
  268DOPC   C3A 3137   9.610   4.908  12.439 -0.1686  0.0257 -0.1754
  268DOPC   C4A 3138   9.408   5.111  12.796  0.3359 -0.4182  0.1836
  268DOPC   C1B 3139  10.153   4.832  11.655  0.0558  0.0143  0.1309
  268DOPC   D2B 3140  10.303   4.731  12.075 -0.1041 -0.1080  0.1360
  268DOPC   C3B 3141  10.208   4.844  12.511  0.1243  0.1887  0.0722
  268DOPC   C4B 3142   9.920   4.993  12.819 -0.2960 -0.1973  0.1744
  269POSM   NC3 3143   3.489   3.981  10.957 -0.1022  0.2456 -0.3020
  269POSM   PO4 3144   3.258   3.668  10.978 -0.1710  0.1961  0.4057
  269POSM   AM1 3145   3.119   3.545  11.211  0.2223 -0.2171 -0.1531
  269POSM   AM2 3146   3.236   3.340  11.434 -0.1143 -0.0204 -0.1971
  269POSM   T1A 3147   2.736   3.417  11.503  0.1407  0.0266  0.3401
  269POSM   C2A 3148   2.499   3.256  11.797  0.1365  0.0918 -0.3023
  269POSM   C3A 3149   2.372   3.070  12.217  0.5025  0.1474  0.0426
  269POSM   C1B 3150   3.200   3.324  11.773 -0.3126 -0.0588 -0.3179
  269POSM   D2B 3151   2.920   3.210  12.090  0.0862 -0.0196 -0.1863
  269POSM   C3B 3152   2.642   3.416  12.418  0.1558 -0.0200  0.0159
  269POSM   C4B 3153   2.553   3.627  12.810 -0.0950 -0.0201  0.3256
  270DOPS   CNO 3154   3.595  33.790  10.164 -0.0752 -0.0083 -0.1636
  270DOPS   PO4 3155   3.785  33.894  10.455 -0.1053  0.0437  0.1677
  270DOPS   GL1 3156   3.698  33.885  10.803  0.0013  0.0886 -0.0569
  270DOPS   GL2 3157   3.731  33.597  10.892  0.0907 -0.1162 -0.2259
  270DOPS   C1A 3158   3.800  33.929  11.293 -0.1536 -0.2355 -0.0956
  270DOPS   D2A 3159   3.968  34.180  11.662 -0.0881  0.0316  0.0554
  270DOPS   C3A 3160   3.820  34.295  12.119  0.2551 -0.4399  0.2207
  270DOPS   C4A 3161   3.470  34.578  12.253  0.0830  0.2407 -0.3895
  270DOPS   C1B 3162   3.725  33.349  11.237  0.1419 -0.1012 -0.0881
  270DOPS   D2B 3163   3.450  33.068  11.507  0.1327  0.1028 -0.0355
  270DOPS   C3B 3164   3.645  32.698  11.672 -0.4582  0.5374  0.3393
  270DOPS   C4B 3165   3.848  32.395  11.935  0.0797  0.2633 -0.1055
  271DOPE   NH3 3166   2.245   5.581  11.370  0.1618  0.0274  0.0164
  271DOPE   PO4 3167   1.966   5.419  11.296 -0.0059  0.1812  0.1113
  271DOPE   GL1 3168   1.917   5.537  11.716 -0.3453  0.1225 -0.0694
  271DOPE   GL2 3169   1.916   5.846  11.771  0.1449  0.0794 -0.2623
  271DOPE   C1A 3170   1.490   5.641  11.909  0.0796  0.0121 -0.2265
  271DOPE   D2A 3171   1.361   5.913  12.258 -0.2069 -0.2212  0.3932
  271DOPE   C3A 3172   1.407   6.161  12.566  0.2511  0.1181 -0.0836
  271DOPE   C4A 3173   1.175   6.332  12.882 -0.2213  0.0924 -0.1218
  271DOPE   C1B 3174   1.888   5.953  12.280  0.5449  0.0962  0.0238
  271DOPE   D2B 3175   1.923   5.955  12.785 -0.0080 -0.2111 -0.3340
  271DOPE   C3B 3176   1.462   5.890  13.021 -0.0479 -0.2461 -0.1729
  271DOPE   C4B 3177   1.191   5.932  13.297 -0.1968  0.1456  0.1119
  272POSM   NC3 3178  34.011   3.222   9.999 -0.3342 -0.4963 -0.1323
  272POSM   PO4 3179  33.807   2.944  10.142  0.0223  0.2080  0.1871
  272POSM   AM1 3180  33.789   2.837  10.445  0.2401 -0.1146  0.0481
  272POSM   AM2 3181  33.607   2.837  10.656 -0.0114 -0.1994  0.4086
  272POSM   T1A 3182  33.754   2.361  10.652  0.1161 -0.0445  0.2867
  272POSM   C2A 3183  33.609   1.948  10.675 -0.4862 -0.0867  0.3213
  272POSM   C3A 3184  33.650   1.518  10.792  0.2364 -0.0672 -0.3353
  272POSM   C1B 3185  33.706   2.773  10.997  0.0653 -0.1454  0.0037
  272POSM   D2B 3186  33.642   2.590  11.459 -0.0569 -0.0462 -0.0531
  272POSM   C3B 3187  33.964   2.690  11.817 -0.2699 -0.0105  0.0018
  272POSM   C4B 3188  34.127   2.940  12.216 -0.0767 -0.2120 -0.0812
  273DOPC   NC3 3189   5.584   1.927  10.916 -0.3690 -0.1766  0.0790
  273DOPC   PO4 3190   5.745   1.870  11.247  0.0605  0.2671 -0.1573
  273DOPC   GL1 3191   5.897   1.991  11.619  0.0432 -0.2392  0.1156
  273DOPC   GL2 3192   5.702   2.177  11.733 -0.0495  0.3613 -0.0192
  273DOPC   C1A 3193   6.237   1.795  11.933  0.2440  0.0672 -0.2640
  273DOPC   D2A 3194   6.474   1.567  12.275  0.0774 -0.0617 -0.2644
  273DOPC   C3A 3195   6.866   1.381  12.156 -0.2793 -0.1843 -0.0426
  273DOPC   C4A 3196   7.258   1.236  11.955  0.0494  0.0157  0.0483
  273DOPC   C1B 3197   5.509   2.387  12.045 -0.1667 -0.0061 -0.2314
  273DOPC   D2B 3198   5.629   2.336  12.510 -0.4173  0.0897  0.0815
  273DOPC   C3B 3199   5.883   2.041  12.759 -0.1195 -0.1297  0.2338
  273DOPC   C4B 3200   6.043   1.628  12.636  0.4288 -0.0150 -0.0051
  274DOPS   CNO 3201   0.590   0.734  10.105  0.0150  0.1930  0.0907
  274DOPS   PO4 3202   0.940   0.628  10.123 -0.0820 -0.1469  0.2631
  274DOPS   GL1 3203   1.320   0.694  10.329 -0.1078 -0.1074 -0.0171
  274DOPS   GL2 3204   1.488   0.460  10.277  0.1811 -0.1227 -0.1321
  274DOPS   C1A 3205   1.238   0.894  10.720  0.0232  0.1280 -0.1001
  274DOPS   D2A 3206   1.328   1.196  11.036 -0.1853  0.0711 -0.0496
  274DOPS   C3A 3207   0.973   1.393  11.294 -0.0725  0.4368 -0.0704
  274DOPS   C4A 3208   0.517   1.528  11.218  0.1361  0.0765 -0.1335
  274DOPS   C1B 3209   1.541   0.489  10.765  0.0131  0.2146 -0.0792
  274DOPS   D2B 3210   1.250   0.545  11.148  0.1805  0.1833  0.2393
  274DOPS   C3B 3211   0.965   0.913  11.298 -0.1511  0.0092  0.2050
  274DOPS   C4B 3212   0.552   1.099  11.511  0.1032 -0.1003 -0.2043
  275DOPC   NC3 3213   1.161   4.954  11.032  0.1571  0.5277 -0.1340
  275DOPC   PO4 3214   1.261   5.356  11.066  0.0102 -0.0889 -0.2561
  275DOPC   GL1 3215   1.139   5.346  11.413 -0.2451  0.0778  0.0072
  275DOPC   GL2 3216   1.061   5.058  11.539  0.0386  0.2617  0.0895
  275DOPC   C1A 3217   0.792   5.403  11.773  0.3026 -0.0789  0.4602
  275DOPC   D2A 3218   0.529   5.299  12.182  0.0445  0.1040 -0.4626
  275DOPC   C3A 3219   0.387   5.593  12.479 -0.0031  0.0934 -0.2575
  275DOPC   C4A 3220   0.324   6.023  12.661  0.0240 -0.5521  0.2614
  275DOPC   C1B 3221   1.348   5.152  11.902 -0.0676 -0.0705 -0.2171
  275DOPC   D2B 3222   1.349   5.376  12.313 -0.0829  0.1815  0.1705
  275DOPC   C3B 3223   1.044   5.199  12.562 -0.2832 -0.1394  0.1098
  275DOPC   C4B 3224   0.613   5.062  12.591 -0.1834 -0.1947  0.0631
  276DOPC   NC3 3225   5.830   3.457  11.224 -0.0415 -0.1926 -0.1556
  276DOPC   PO4 3226   6.190   3.581  11.180  0.1344  0.0675 -0.0743
  276DOPC   GL1 3227   6.134   3.498  11.565  0.1488 -0.3339  0.2397
  276DOPC   GL2 3228   6.367   3.392  11.656 -0.2900 -0.1341  0.3411
  276DOPC   C1A 3229   5.978   3.669  11.949 -0.2132 -0.1669  0.1810
  276DOPC   D2A 3230   6.106   3.490  12.393  0.1884  0.1377  0.3153
  276DOPC   C3A 3231   6.101   3.014  12.378  0.0031  0.1337  0.2230
  276DOPC   C4A 3232   5.971   2.597  12.329 -0.2532 -0.0141 -0.0235
  276DOPC   C1B 3233   6.374   3.291  12.035 -0.3900  0.2249  0.0977
  276DOPC   D2B 3234   6.673   3.061  12.317 -0.5501 -0.0615  0.1140
  276DOPC   C3B 3235   7.029   2.819  12.399  0.1664 -0.0566  0.0676
  276DOPC   C4B 3236   7.473   2.792  12.283 -0.1288 -0.0109  0.1259
  277DOPE   NH3 3237   8.535   3.520  10.620  0.0441  0.0032 -0.0807
  277DOPE   PO4 3238   8.562   3.435  10.898  0.0605  0.3012  0.2444
  277DOPE   GL1 3239   8.364   3.593  11.138 -0.0014  0.1972 -0.2479
  277DOPE   GL2 3240   8.253   3.433  11.315 -0.2040  0.1495 -0.0117
  277DOPE   C1A 3241   8.330   3.932  11.475 -0.3549  0.2579  0.2629
  277DOPE   D2A 3242   8.165   4.033  11.895 -0.0366 -0.0627  0.1296
  277DOPE   C3A 3243   8.127   3.827  12.339  0.1253 -0.0739 -0.1332
  277DOPE   C4A 3244   8.015   4.043  12.704 -0.0751 -0.0345 -0.1920
  277DOPE   C1B 3245   8.215   3.487  11.772 -0.1893 -0.2804  0.1332
  277DOPE   D2B 3246   7.833   3.487  12.040  0.3212 -0.0081 -0.1013
  277DOPE   C3B 3247   7.758   3.181  12.428  0.2232  0.1905  0.1313
  277DOPE   C4B 3248   7.898   2.912  12.774  0.1277 -0.1527 -0.2071
  278DOPC   NC3 3249   1.126   2.420  10.503 -0.1053  0.0635  0.0709
  278DOPC   PO4 3250   1.329   2.521  10.183 -0.2507  0.1453 -0.0525
  278DOPC   GL1 3251   1.598   2.443  10.508 -0.2126  0.2896  0.2535
  278DOPC   GL2 3252   1.513   2.645  10.789 -0.0641  0.4526 -0.2057
  278DOPC   C1A 3253   1.700   2.210  10.933 -0.2217 -0.3337 -0.1365
  278DOPC   D2A 3254   1.666   1.763  11.074  0.1194  0.1377 -0.0108
  278DOPC   C3A 3255   1.326   1.681  11.418 -0.0415  0.2846  0.1776
  278DOPC   C4A 3256   1.327   1.576  11.916 -0.1794  0.1524 -0.0228
  278DOPC   C1B 3257   1.421   2.710  11.230 -0.0256 -0.0250  0.3970
  278DOPC   D2B 3258   1.678   2.592  11.597  0.2165  0.0238 -0.0595
  278DOPC   C3B 3259   1.636   2.999  11.760  0.3454  0.0395  0.0101
  278DOPC   C4B 3260   1.466   3.360  11.994  0.3780  0.2525 -0.1501
  279DOPC   NC3 3261   8.481  10.593  10.993  0.1170 -0.0221  0.1484
  279DOPC   PO4 3262   8.262  10.460  11.282 -0.2638  0.0418 -0.0257
  279DOPC   GL1 3263   8.381  10.479  11.656 -0.1898  0.0017  0.1067
  279DOPC   GL2 3264   8.358  10.202  11.739  0.0948  0.1008 -0.0780
  279DOPC   C1A 3265   8.417  10.686  12.061  0.2219  0.1463 -0.0908
  279DOPC   D2A 3266   8.645  10.982  12.335  0.3108 -0.2646 -0.1066
  279DOPC   C3A 3267   8.436  10.899  12.784  0.1731 -0.1228 -0.0718
  279DOPC   C4A 3268   8.213  10.733  13.159  0.1757  0.2971 -0.2410
  279DOPC   C1B 3269   8.584  10.068  12.054 -0.0217  0.2646  0.0621
  279DOPC   D2B 3270   8.728   9.621  12.128  0.2470  0.2632 -0.0060
  279DOPC   C3B 3271   8.600   9.412  12.522 -0.1773 -0.1186  0.2494
  279DOPC   C4B 3272   8.665   9.455  12.947 -0.1705 -0.2845 -0.1462
  280POSM   NC3 3273   4.968  10.410  11.049  0.0284  0.0846 -0.0575
  280POSM   PO4 3274   4.882  10.644  11.314 -0.1332 -0.2779 -0.0533
  280POSM   AM1 3275   4.916  10.465  11.588  0.0234 -0.1093 -0.3221
  280POSM   AM2 3276   4.994  10.202  11.656 -0.0058  0.0871 -0.0675
  280POSM   T1A 3277   4.532  10.291  11.892  0.1232  0.0989  0.0855
  280POSM   C2A 3278   4.145  10.457  12.062 -0.0425 -0.0288  0.2064
  280POSM   C3A 3279   3.770  10.659  12.028 -0.1416  0.1397 -0.1240
  280POSM   C1B 3280   5.131  10.137  11.989  0.1837  0.3267 -0.0834
  280POSM   D2B 3281   5.147   9.978  12.422  0.0832 -0.0919  0.2083
  280POSM   C3B 3282   4.797   9.994  12.698  0.2679  0.2127  0.0277
  280POSM   C4B 3283   4.495  10.062  13.065  0.1190  0.0679 -0.0454
  281DOPE   NH3 3284   5.006   4.789  10.976  0.0248 -0.2518  0.0955
  281DOPE   PO4 3285   4.838   4.645  11.178 -0.0436  0.0611 -0.1659
  281DOPE   GL1 3286   4.838   4.710  11.503  0.4444  0.0991  0.2282
  281DOPE   GL2 3287   5.082   4.871  11.658  0.3097 -0.1347 -0.0806
  281DOPE   C1A 3288   4.823   4.602  11.983  0.0396 -0.0395 -0.0168
  281DOPE   D2A 3289   4.857   4.449  12.442  0.1309 -0.3224  0.3397
  281DOPE   C3A 3290   5.197   4.419  12.705 -0.2487  0.0058  0.2683
  281DOPE   C4A 3291   5.268   4.191  13.111 -0.0702  0.1392 -0.1268
  281DOPE   C1B 3292   5.542   4.919  11.682 -0.1970  0.0203  0.0938
  281DOPE   D2B 3293   5.846   5.222  11.825  0.0150 -0.2945  0.0881
  281DOPE   C3B 3294   5.733   5.238  12.221 -0.2369 -0.1468 -0.0988
  281DOPE   C4B 3295   5.818   5.237  12.692 -0.3337  0.2115  0.1599
  282DOPS   CNO 3296   3.720   3.512  10.949  0.0874  0.2262 -0.1289
  282DOPS   PO4 3297   3.624   3.140  11.078 -0.1030  0.0701 -0.1656
  282DOPS   GL1 3298   3.645   3.063  11.490  0.5033 -0.2336  0.2674
  282DOPS   GL2 3299   3.428   2.856  11.457  0.0167 -0.0912  0.1703
  282DOPS   C1A 3300   3.750   2.977  11.929  0.1047 -0.1142  0.1526
  282DOPS   D2A 3301   3.710   2.591  12.157  0.0133  0.0081  0.3752
  282DOPS   C3A 3302   3.654   2.661  12.566  0.2659  0.0317  0.1215
  282DOPS   C4A 3303   3.409   2.688  12.977 -0.0488  0.0352  0.0657
  282DOPS   C1B 3304   3.259   2.784  11.865 -0.3140 -0.1807  0.0492
  282DOPS   D2B 3305   3.427   3.015  12.291 -0.2377  0.0668 -0.0153
  282DOPS   C3B 3306   3.150   3.284  12.507  0.2709  0.1623 -0.1322
  282DOPS   C4B 3307   2.909   3.319  12.912 -0.2619  0.2053  0.0738
  283DOPC   NC3 3308   5.420  11.798  11.647  0.0282 -0.2248 -0.2258
  283DOPC   PO4 3309   5.815  11.837  11.639  0.3044 -0.0222  0.0787
  283DOPC   GL1 3310   5.731  11.686  12.029 -0.2285  0.0905 -0.0849
  283DOPC   GL2 3311   5.930  11.460  12.021 -0.0125 -0.0560  0.0040
  283DOPC   C1A 3312   5.531  11.504  12.418  0.2523 -0.1675  0.1150
  283DOPC   D2A 3313   5.195  11.202  12.631 -0.3867  0.1286  0.4223
  283DOPC   C3A 3314   5.191  11.219  13.120 -0.0038  0.2926 -0.1463
  283DOPC   C4A 3315   4.990  11.418  13.522 -0.0748 -0.1910 -0.0670
  283DOPC   C1B 3316   5.864  11.039  11.856 -0.2035 -0.0851 -0.0436
  283DOPC   D2B 3317   5.622  10.773  11.660 -0.0212  0.3026 -0.2144
  283DOPC   C3B 3318   5.329  10.584  11.950  0.0457  0.2647 -0.0672
  283DOPC   C4B 3319   5.259  10.658  12.384 -0.0053 -0.2035 -0.0189
  284DOPE   NH3 3320   0.167   3.630  10.210  0.3055  0.0601  0.0958
  284DOPE   PO4 3321   0.274   3.877  10.397  0.0971 -0.1368  0.0110
  284DOPE   GL1 3322   0.390   3.914  10.802 -0.1351 -0.0684  0.0278
  284DOPE   GL2 3323   0.177   3.814  10.910 -0.0382  0.2926  0.0054
  284DOPE   C1A 3324   0.144   4.254  11.033 -0.2476  0.0855 -0.1037
  284DOPE   D2A 3325   0.004   4.679  10.941  0.0420 -0.0978  0.2360
  284DOPE   C3A 3326  -0.426   4.887  10.903 -0.0545  0.0376  0.1934
  284DOPE   C4A 3327  -0.770   5.123  10.725  0.1114  0.0362  0.0617
  284DOPE   C1B 3328   0.178   3.607  11.348  0.0319 -0.0242 -0.1547
  284DOPE   D2B 3329   0.055   3.490  11.758  0.1528  0.0063  0.1621
  284DOPE   C3B 3330  -0.378   3.634  11.724  0.1943 -0.2485  0.0937
  284DOPE   C4B 3331  -0.720   3.566  12.006  0.1886 -0.1766 -0.0983
  285DOPE   NH3 3332   4.683   5.682  11.025  0.2568  0.2453 -0.2573
  285DOPE   PO4 3333   4.981   5.654  11.144  0.0250 -0.1134  0.1664
  285DOPE   GL1 3334   5.129   5.616  11.557 -0.0831  0.0255  0.1238
  285DOPE   GL2 3335   5.273   5.373  11.660 -0.1859  0.1363 -0.0798
  285DOPE   C1A 3336   5.009   5.776  11.963  0.0804 -0.3641  0.2134
  285DOPE   D2A 3337   4.962   6.185  12.131 -0.0991  0.0016 -0.1809
  285DOPE   C3A 3338   5.106   5.925  12.469  0.0964 -0.1761  0.2902
  285DOPE   C4A 3339   5.217   5.746  12.878  0.2276 -0.1597  0.0243
  285DOPE   C1B 3340   5.252   5.198  12.068 -0.1839  0.1793 -0.1520
  285DOPE   D2B 3341   5.024   4.952  12.419 -0.2003  0.3688 -0.1490
  285DOPE   C3B 3342   4.827   5.114  12.785 -0.2365  0.2126 -0.1462
  285DOPE   C4B 3343   4.729   5.540  12.887 -0.2246 -0.0930  0.0794
  286POSM   NC3 3344  10.089   6.545  10.533 -0.0012  0.1266  0.0886
  286POSM   PO4 3345  10.143   6.536  10.919 -0.3373  0.1452 -0.0180
  286POSM   AM1 3346  10.140   6.458  11.277 -0.2609  0.0102 -0.0981
  286POSM   AM2 3347  10.279   6.365  11.467 -0.1588  0.0658 -0.1189
  286POSM   T1A 3348   9.815   6.588  11.683  0.3582 -0.2297 -0.0447
  286POSM   C2A 3349   9.461   6.817  11.760  0.0650 -0.1875  0.0606
  286POSM   C3A 3350   9.104   7.117  11.855 -0.2168  0.0367  0.0054
  286POSM   C1B 3351  10.273   6.479  11.773 -0.1502 -0.2206 -0.0302
  286POSM   D2B 3352  10.512   6.230  12.161  0.1690  0.1661 -0.2217
  286POSM   C3B 3353  10.497   6.290  12.615 -0.0533  0.0936 -0.0079
  286POSM   C4B 3354  10.419   6.699  12.840  0.2681  0.1874 -0.0039
  287POSM   NC3 3355  10.075   7.817  11.113 -0.5687  0.1146 -0.1722
  287POSM   PO4 3356   9.742   7.612  11.092 -0.3750  0.0425  0.1270
  287POSM   AM1 3357   9.717   7.646  11.423 -0.0234 -0.1749 -0.3275
  287POSM   AM2 3358   9.938   7.643  11.653  0.0080  0.0037 -0.1440
  287POSM   T1A 3359   9.528   7.466  11.862  0.3287 -0.2371 -0.2079
  287POSM   C2A 3360   9.554   7.671  12.275  0.1736  0.3887 -0.1463
  287POSM   C3A 3361   9.351   7.543  12.676 -0.1632  0.3111 -0.0189
  287POSM   C1B 3362  10.026   7.452  11.947  0.1511 -0.0287 -0.2631
  287POSM   D2B 3363  10.317   7.091  12.112 -0.0088 -0.1625 -0.0580
  287POSM   C3B 3364  10.477   7.092  12.521 -0.0348  0.2012  0.0955
  287POSM   C4B 3365  10.362   7.199  12.934 -0.1043 -0.3634  0.1772
  288DOPC   NC3 3366   0.229   2.500  10.539  0.0980  0.0579  0.3073
  288DOPC   PO4 3367   0.556   2.686  10.591  0.2511  0.1372  0.0516
  288DOPC   GL1 3368   0.399   2.741  10.919 -0.2251  0.1151 -0.2723
  288DOPC   GL2 3369   0.574   2.853  11.152  0.0325 -0.0812 -0.3237
  288DOPC   C1A 3370   0.165   2.571  11.281 -0.0477 -0.1759  0.1259
  288DOPC   D2A 3371   0.112   2.578  11.702 -0.1325 -0.1227  0.1235
  288DOPC   C3A 3372   0.139   2.328  12.063 -0.0537 -0.1594 -0.1409
  288DOPC   C4A 3373   0.279   1.869  12.071 -0.3343  0.1695 -0.0958
  288DOPC   C1B 3374   0.493   2.846  11.645  0.0964  0.0561 -0.2589
  288DOPC   D2B 3375   0.495   2.649  12.050  0.1842 -0.0356 -0.3139
  288DOPC   C3B 3376   0.878   2.614  12.302 -0.1475  0.0992  0.0912
  288DOPC   C4B 3377   1.020   2.912  12.595  0.4683  0.0616 -0.1111
  289DOPC   NC3 3378   2.884  11.422  11.430 -0.0478 -0.0956  0.1810
  289DOPC   PO4 3379   2.774  11.110  11.645  0.0691  0.2235  0.0387
  289DOPC   GL1 3380   3.042  10.957  11.870 -0.1444 -0.0777  0.0648
  289DOPC   GL2 3381   2.954  10.924  12.168 -0.2006  0.1969  0.1714
  289DOPC   C1A 3382   3.416  11.066  12.042 -0.1420  0.1065 -0.0643
  289DOPC   D2A 3383   3.704  11.456  12.106 -0.0905  0.2237  0.0272
  289DOPC   C3A 3384   3.988  11.483  12.440 -0.2099 -0.4122  0.1010
  289DOPC   C4A 3385   4.087  11.538  12.850  0.0126 -0.0760  0.1412
  289DOPC   C1B 3386   2.921  10.612  12.549  0.0841  0.2348 -0.0020
  289DOPC   D2B 3387   2.816  10.411  12.966  0.0727  0.2414 -0.0325
  289DOPC   C3B 3388   2.994  10.304  13.382 -0.0879 -0.0830 -0.1663
  289DOPC   C4B 3389   3.146  10.240  13.762  0.0420  0.3708 -0.3583
  290DOPC   NC3 3390   5.683   8.297  10.780 -0.1321  0.0645  0.3064
  290DOPC   PO4 3391   5.357   8.168  10.991  0.0120  0.1311  0.0483
  290DOPC   GL1 3392   5.121   8.223  11.294  0.3315 -0.0247 -0.2387
  290DOPC   GL2 3393   4.798   8.218  11.429  0.1030  0.2945 -0.3795
  290DOPC   C1A 3394   5.213   8.188  11.744 -0.3444 -0.2408  0.2012
  290DOPC   D2A 3395   5.279   8.011  12.175 -0.1221  0.2220  0.0431
  290DOPC   C3A 3396   5.633   7.697  12.314  0.0381  0.0803  0.0358
  290DOPC   C4A 3397   5.798   7.597  12.730 -0.0635  0.0803  0.0578
  290DOPC   C1B 3398   4.759   8.144  11.913 -0.2045 -0.0469  0.2406
  290DOPC   D2B 3399   4.819   7.790  12.168 -0.2353  0.0325  0.0777
  290DOPC   C3B 3400   5.143   7.551  12.342  0.1099 -0.1112 -0.0680
  290DOPC   C4B 3401   5.400   7.290  12.658 -0.0320 -0.1915  0.0843
  291POSM   NC3 3402   1.556   5.073  10.726  0.2324  0.0996  0.2755
  291POSM   PO4 3403   1.529   4.717  10.737  0.2361 -0.2340 -0.0209
  291POSM   AM1 3404   1.558   4.647  11.030  0.0301  0.0437 -0.0896
  291POSM   AM2 3405   1.796   4.612  11.208 -0.0240  0.0497 -0.1655
  291POSM   T1A 3406   1.408   4.705  11.503 -0.0044  0.1274 -0.2638
  291POSM   C2A 3407   1.196   4.668  11.947  0.0159  0.0749  0.2319
  291POSM   C3A 3408   0.985   4.324  12.109 -0.0710  0.2424  0.2794
  291POSM   C1B 3409   1.892   4.682  11.489  0.2143  0.1554  0.0492
  291POSM   D2B 3410   1.923   4.691  11.943  0.2372  0.0136 -0.1080
  291POSM   C3B 3411   2.063   4.957  12.245  0.0719  0.0345  0.0061
  291POSM   C4B 3412   2.015   5.079  12.667  0.0610  0.1253  0.0655
  292DOPC   NC3 3413   2.999   8.765  11.846 -0.2881  0.0618  0.2096
  292DOPC   PO4 3414   3.052   9.149  11.864 -0.1370  0.2467 -0.0281
  292DOPC   GL1 3415   3.179   9.014  12.222 -0.0426  0.1909  0.3611
  292DOPC   GL2 3416   3.366   9.261  12.231 -0.2265  0.3143 -0.2584
  292DOPC   C1A 3417   2.936   8.897  12.648  0.0277 -0.2139 -0.1390
  292DOPC   D2A 3418   2.973   8.880  13.091 -0.1624  0.0508 -0.5281
  292DOPC   C3A 3419   3.186   9.002  13.480  0.0139 -0.0190 -0.2693
  292DOPC   C4A 3420   3.499   9.179  13.736 -0.0461 -0.2142 -0.3364
  292DOPC   C1B 3421   3.256   9.263  12.670 -0.1363  0.0958 -0.2991
  292DOPC   D2B 3422   3.150   9.467  13.076  0.2025  0.2973  0.2397
  292DOPC   C3B 3423   3.344   9.900  13.009  0.1296  0.2023 -0.0508
  292DOPC   C4B 3424   3.756  10.161  12.994  0.0135  0.1174 -0.1031
  293POSM   NC3 3425  12.022   5.658  10.935 -0.0250  0.2023  0.1801
  293POSM   PO4 3426  12.391   5.794  11.052  0.2947  0.0751 -0.1928
  293POSM   AM1 3427  12.313   5.671  11.345  0.2021 -0.0133 -0.3422
  293POSM   AM2 3428  12.114   5.774  11.509 -0.0963 -0.1616 -0.2507
  293POSM   T1A 3429  12.652   5.695  11.704  0.0444  0.0526 -0.0220
  293POSM   C2A 3430  12.969   5.738  11.998 -0.2686 -0.2720 -0.1616
  293POSM   C3A 3431  13.406   5.844  11.952 -0.0748  0.2254 -0.1701
  293POSM   C1B 3432  12.157   5.883  11.836 -0.1756 -0.3307  0.0069
  293POSM   D2B 3433  12.258   5.744  12.273  0.2669  0.0048 -0.2239
  293POSM   C3B 3434  12.644   5.539  12.323 -0.0804 -0.0627  0.4148
  293POSM   C4B 3435  12.952   5.417  12.613 -0.4076  0.0389 -0.0549
  294DOPS   CNO 3436   8.814  33.699  10.299 -0.0760 -0.1399  0.0527
  294DOPS   PO4 3437   8.873  34.091  10.358 -0.0091  0.3083  0.0975
  294DOPS   GL1 3438   9.008  34.210  10.790  0.1185  0.0332 -0.2633
  294DOPS   GL2 3439   8.701  34.267  10.855  0.2901  0.0155 -0.0366
  294DOPS   C1A 3440   9.199  33.955  11.138  0.0364  0.0516 -0.0781
  294DOPS   D2A 3441   9.333  33.639  11.320 -0.0866  0.2204  0.1262
  294DOPS   C3A 3442   9.276  33.677  11.821 -0.0857  0.4146 -0.1210
  294DOPS   C4A 3443   8.926  33.527  12.082 -0.0236  0.0539  0.1261
  294DOPS   C1B 3444   8.433  34.036  11.164  0.5464  0.2705 -0.3296
  294DOPS   D2B 3445   8.276  34.089  11.587 -0.0281  0.1890 -0.1085
  294DOPS   C3B 3446   8.442  33.788  11.880  0.2389 -0.2118  0.2388
  294DOPS   C4B 3447   8.514  33.702  12.365 -0.0231 -0.0145  0.0319
  295DOPC   NC3 3448   5.083   6.659  11.254 -0.0808 -0.0647  0.1828
  295DOPC   PO4 3449   4.895   6.998  11.233  0.1844 -0.0691  0.2576
  295DOPC   GL1 3450   4.804   6.991  11.569  0.0780  0.2136 -0.1589
  295DOPC   GL2 3451   4.958   6.831  11.708 -0.0726 -0.0931 -0.0393
  295DOPC   C1A 3452   4.757   7.271  11.929  0.0119  0.0049  0.1616
  295DOPC   D2A 3453   4.445   7.446  12.179 -0.0166 -0.2523 -0.0584
  295DOPC   C3A 3454   4.700   7.511  12.607  0.1054 -0.0672  0.0349
  295DOPC   C4A 3455   5.022   7.629  12.931 -0.0173 -0.0152 -0.0754
  295DOPC   C1B 3456   4.893   6.681  12.111  0.1827  0.1660  0.1764
  295DOPC   D2B 3457   4.948   6.530  12.540 -0.0463 -0.0223  0.0088
  295DOPC   C3B 3458   4.623   6.258  12.564  0.0538 -0.2377 -0.0627
  295DOPC   C4B 3459   4.578   5.838  12.440 -0.0645 -0.1352 -0.0089
  296DOPS   CNO 3460   1.875  10.053  10.973  0.2856 -0.3241 -0.1159
  296DOPS   PO4 3461   1.741   9.987  11.338  0.1552  0.2586 -0.0298
  296DOPS   GL1 3462   1.445   9.876  11.598 -0.1578  0.2114 -0.2809
  296DOPS   GL2 3463   1.420  10.140  11.770  0.3077  0.0323  0.1244
  296DOPS   C1A 3464   1.417   9.524  11.882  0.0175 -0.1040 -0.0707
  296DOPS   D2A 3465   1.379   9.422  12.339  0.0463 -0.1077  0.4050
  296DOPS   C3A 3466   1.316   9.329  12.822  0.3578  0.1489  0.0396
  296DOPS   C4A 3467   1.417   9.035  13.139  0.0666  0.0673  0.2056
  296DOPS   C1B 3468   1.383  10.434  12.085  0.1844 -0.0155  0.0170
  296DOPS   D2B 3469   1.500  10.380  12.586  0.1844 -0.0937  0.0426
  296DOPS   C3B 3470   1.302  10.352  13.058  0.0274  0.3677 -0.2703
  296DOPS   C4B 3471   1.338  10.211  13.531 -0.3016  0.3877 -0.1487
  297DOPE   NH3 3472   6.022   9.603  11.086 -0.1870  0.1450  0.2754
  297DOPE   PO4 3473   5.789   9.523  10.934  0.0387  0.2633  0.1475
  297DOPE   GL1 3474   5.598   9.428  11.318  0.5338  0.4191 -0.4908
  297DOPE   GL2 3475   5.375   9.560  11.273  0.0222 -0.0142 -0.1973
  297DOPE   C1A 3476   5.835   9.519  11.702 -0.1225  0.0204 -0.1084
  297DOPE   D2A 3477   5.878   9.461  12.206  0.4536  0.2415  0.1471
  297DOPE   C3A 3478   5.943   9.741  12.620 -0.0252  0.1110  0.0720
  297DOPE   C4A 3479   5.620   9.980  12.825  0.0054 -0.0841 -0.3303
  297DOPE   C1B 3480   5.437   9.863  11.611 -0.0593 -0.0357 -0.1778
  297DOPE   D2B 3481   5.530   9.753  12.028  0.0008  0.3494 -0.5390
  297DOPE   C3B 3482   5.404   9.587  12.543  0.3352  0.1093 -0.0228
  297DOPE   C4B 3483   5.205   9.726  12.893 -0.1126 -0.0786 -0.3362
  298DOPE   NH3 3484   9.367  34.269  10.297 -0.0150 -0.4418  0.2061
  298DOPE   PO4 3485   9.469  34.293  10.585 -0.0737 -0.0744  0.1148
  298DOPE   GL1 3486   9.606  34.381  11.011 -0.1394  0.2289  0.2704
  298DOPE   GL2 3487   9.360  34.458  11.119  0.1763  0.0940 -0.0591
  298DOPE   C1A 3488   9.739  33.959  11.180  0.0950 -0.0989 -0.2750
  298DOPE   D2A 3489   9.998  33.850  11.515  0.1026 -0.0200  0.2458
  298DOPE   C3A 3490  10.109  34.060  11.900  0.0198 -0.2816  0.0593
  298DOPE   C4A 3491  10.394  34.212  12.309  0.1140  0.0891  0.2006
  298DOPE   C1B 3492   9.621  34.459  11.503 -0.1037 -0.0721 -0.1949
  298DOPE   D2B 3493   9.643  34.565  11.884  0.1191  0.0816 -0.0543
  298DOPE   C3B 3494   9.404  34.359  12.227 -0.1502 -0.2479  0.1712
  298DOPE   C4B 3495   9.232  33.923  12.389  0.2047  0.0385  0.0641
  299DOPE   NH3 3496   6.637   3.341  10.802  0.3155  0.0822  0.2677
  299DOPE   PO4 3497   6.730   3.451  11.072  0.2847  0.0244 -0.0460
  299DOPE   GL1 3498   6.751   3.270  11.498  0.0413  0.0774 -0.0358
  299DOPE   GL2 3499   6.840   3.041  11.443  0.0200 -0.1283  0.0608
  299DOPE   C1A 3500   6.792   3.520  11.863 -0.2088  0.0434 -0.0741
  299DOPE   D2A 3501   6.853   3.534  12.334 -0.1328 -0.0419 -0.1629
  299DOPE   C3A 3502   6.555   3.592  12.593 -0.0295  0.5311  0.0129
  299DOPE   C4A 3503   6.528   3.731  13.050  0.1144 -0.0934 -0.1237
  299DOPE   C1B 3504   6.718   2.854  11.907  0.3676 -0.0197  0.1205
  299DOPE   D2B 3505   6.628   2.586  12.245 -0.0182 -0.0633 -0.2787
  299DOPE   C3B 3506   6.373   2.632  12.605 -0.0130 -0.0922  0.1510
  299DOPE   C4B 3507   6.019   2.590  12.826 -0.0421 -0.0015 -0.1550
  300DOPC   NC3 3508   1.963   3.172  10.199 -0.0357  0.0872 -0.0938
  300DOPC   PO4 3509   2.155   3.295  10.527  0.0316 -0.5294 -0.0419
  300DOPC   GL1 3510   2.091   3.275  10.891  0.0330  0.6134 -0.2726
  300DOPC   GL2 3511   2.163   3.382  11.149 -0.0960  0.0707  0.2255
  300DOPC   C1A 3512   1.728   3.129  11.167  0.0743 -0.0656 -0.2264
  300DOPC   D2A 3513   1.441   3.332  11.455 -0.0881  0.2109 -0.3407
  300DOPC   C3A 3514   1.226   3.716  11.627 -0.2516  0.0489 -0.0268
  300DOPC   C4A 3515   0.992   4.075  11.563  0.0019 -0.3402  0.1767
  300DOPC   C1B 3516   2.088   3.265  11.563  0.2857 -0.1054 -0.3099
  300DOPC   D2B 3517   2.004   3.259  12.006 -0.0001  0.0746  0.1731
  300DOPC   C3B 3518   1.709   2.983  12.259  0.2614  0.2544 -0.2258
  300DOPC   C4B 3519   1.347   2.797  12.215  0.0800 -0.0092  0.1497
  301DOPS   CNO 3520   7.637   6.431  10.664  0.3022 -0.0734  0.2293
  301DOPS   PO4 3521   7.344   6.475  10.910  0.0376 -0.0222 -0.5083
  301DOPS   GL1 3522   7.525   6.383  11.281 -0.3627  0.0102  0.2864
  301DOPS   GL2 3523   7.817   6.482  11.293 -0.3406 -0.0501  0.1290
  301DOPS   C1A 3524   7.641   6.169  11.624 -0.0620 -0.0124  0.1115
  301DOPS   D2A 3525   7.703   5.779  11.833 -0.0792  0.1368 -0.3100
  301DOPS   C3A 3526   7.365   5.658  12.087  0.0035 -0.0697 -0.1003
  301DOPS   C4A 3527   7.139   5.581  12.426  0.1439  0.0830 -0.2213
  301DOPS   C1B 3528   7.743   6.792  11.642  0.1779 -0.0075 -0.0874
  301DOPS   D2B 3529   7.614   6.733  12.055 -0.0950 -0.1003 -0.2000
  301DOPS   C3B 3530   7.494   6.553  12.460 -0.2054 -0.0921  0.0765
  301DOPS   C4B 3531   7.123   6.399  12.667  0.1262  0.4837  0.0323
  302DOPS   CNO 3532   6.563   8.723  10.857 -0.1041  0.1055 -0.1876
  302DOPS   PO4 3533   6.913   8.668  10.981 -0.3255  0.1706  0.0231
  302DOPS   GL1 3534   6.949   8.576  11.390 -0.3728  0.1164 -0.1076
  302DOPS   GL2 3535   7.134   8.758  11.488 -0.0463 -0.0580 -0.3035
  302DOPS   C1A 3536   6.928   8.379  11.807  0.1245 -0.0790  0.2595
  302DOPS   D2A 3537   6.849   8.390  12.245 -0.0345  0.3425 -0.1135
  302DOPS   C3A 3538   7.101   8.168  12.518  0.0438 -0.0663 -0.0031
  302DOPS   C4A 3539   7.264   8.038  12.972 -0.0651  0.3957  0.2874
  302DOPS   C1B 3540   7.127   9.109  11.781 -0.4518  0.4404 -0.2901
  302DOPS   D2B 3541   7.233   9.510  11.949  0.4732  0.1140  0.2982
  302DOPS   C3B 3542   7.342   9.613  12.386 -0.2296 -0.0491 -0.2393
  302DOPS   C4B 3543   7.716   9.794  12.567  0.0741 -0.3038 -0.1294
  303DOPC   NC3 3544   7.268  11.800  10.991 -0.0472 -0.0269 -0.1100
  303DOPC   PO4 3545   7.447  11.447  11.107 -0.1656 -0.0521  0.1909
  303DOPC   GL1 3546   7.469  11.301  11.521  0.0874  0.0382  0.1725
  303DOPC   GL2 3547   7.162  11.310  11.662  0.3337 -0.3098  0.5926
  303DOPC   C1A 3548   7.741  11.170  11.820 -0.0814  0.3014  0.1242
  303DOPC   D2A 3549   7.793  10.769  11.994  0.0285 -0.1362  0.0708
  303DOPC   C3A 3550   7.672  10.452  12.331 -0.1315  0.0927 -0.1188
  303DOPC   C4A 3551   7.624  10.270  12.733  0.2163  0.0347 -0.5219
  303DOPC   C1B 3552   7.352  11.446  12.100  0.1743 -0.2176  0.1734
  303DOPC   D2B 3553   7.491  11.611  12.523 -0.0499  0.1971  0.1341
  303DOPC   C3B 3554   7.063  11.855  12.736  0.1370 -0.1906  0.1222
  303DOPC   C4B 3555   6.959  12.204  12.982 -0.1150  0.1200 -0.0495
  304DOPS   CNO 3556   3.783   4.366  11.034 -0.0841 -0.2244 -0.0846
  304DOPS   PO4 3557   3.611   4.302  11.373  0.0596  0.3557 -0.0307
  304DOPS   GL1 3558   3.439   4.187  11.680 -0.2473 -0.4020  0.0154
  304DOPS   GL2 3559   3.362   3.873  11.862 -0.0601 -0.1412 -0.2556
  304DOPS   C1A 3560   3.230   4.334  12.062 -0.0712  0.1394 -0.0713
  304DOPS   D2A 3561   3.183   4.335  12.527  0.1460  0.0857  0.0471
  304DOPS   C3A 3562   2.804   4.144  12.795  0.0215  0.0118  0.3359
  304DOPS   C4A 3563   2.695   4.018  13.257  0.0956 -0.0095  0.0101
  304DOPS   C1B 3564   3.527   3.584  12.231  0.0234 -0.1133  0.3903
  304DOPS   D2B 3565   3.779   3.617  12.579 -0.0396 -0.0163 -0.2825
  304DOPS   C3B 3566   4.014   3.988  12.768 -0.2252 -0.0173  0.0685
  304DOPS   C4B 3567   4.029   4.456  12.761  0.0947 -0.0089 -0.0894
  305DOPS   CNO 3568   3.208   6.785  11.359  0.0186  0.0266  0.0787
  305DOPS   PO4 3569   3.182   6.417  11.449 -0.0360 -0.2207  0.0709
  305DOPS   GL1 3570   3.390   6.411  11.851  0.0317  0.0138 -0.2195
  305DOPS   GL2 3571   3.206   6.622  11.956  0.0289 -0.0518  0.0604
  305DOPS   C1A 3572   3.433   6.373  12.328 -0.0608 -0.0305  0.0850
  305DOPS   D2A 3573   3.436   6.525  12.754 -0.0695 -0.1078  0.2508
  305DOPS   C3A 3574   3.432   6.959  12.755  0.0808  0.3530  0.0130
  305DOPS   C4A 3575   3.199   7.367  12.880 -0.1262 -0.0424 -0.2130
  305DOPS   C1B 3576   3.095   6.750  12.371  0.0351 -0.0407  0.2604
  305DOPS   D2B 3577   2.933   6.877  12.853 -0.0247  0.0354 -0.3888
  305DOPS   C3B 3578   2.601   6.692  13.093 -0.0293 -0.0416 -0.0386
  305DOPS   C4B 3579   2.546   6.388  13.479  0.0456  0.3345 -0.1236
  306DOPC   NC3 3580   1.836   6.701  11.038  0.1779 -0.0892 -0.1342
  306DOPC   PO4 3581   2.176   6.525  11.189  0.0641  0.0703  0.0108
  306DOPC   GL1 3582   2.356   6.644  11.520  0.2801 -0.2612 -0.5040
  306DOPC   GL2 3583   2.598   6.586  11.633 -0.4384 -0.0256 -0.1949
  306DOPC   C1A 3584   2.184   6.559  11.941  0.3397 -0.1929  0.3334
  306DOPC   D2A 3585   2.314   6.335  12.303 -0.3437 -0.0329 -0.3072
  306DOPC   C3A 3586   1.960   6.411  12.520 -0.1481 -0.1314  0.1286
  306DOPC   C4A 3587   1.664   6.348  12.922  0.1339  0.1707  0.2380
  306DOPC   C1B 3588   2.558   7.004  11.862  0.3290  0.0125  0.2160
  306DOPC   D2B 3589   2.621   7.371  12.171 -0.0141  0.0228  0.0776
  306DOPC   C3B 3590   2.686   7.178  12.557  0.3068 -0.0447  0.0913
  306DOPC   C4B 3591   2.441   7.230  12.949  0.1379 -0.0514  0.1086
  307DOPE   NH3 3592   8.069   1.183  11.139  0.1812  0.4735 -0.0228
  307DOPE   PO4 3593   8.348   1.196  10.968 -0.0574  0.1143  0.0812
  307DOPE   GL1 3594   8.458   1.215  11.362 -0.3166  0.2418 -0.0300
  307DOPE   GL2 3595   8.494   1.108  11.648 -0.2131  0.1037  0.0412
  307DOPE   C1A 3596   8.634   1.572  11.629  0.2255  0.3314  0.1666
  307DOPE   D2A 3597   8.936   1.569  11.921 -0.3408  0.0614 -0.1223
  307DOPE   C3A 3598   9.041   1.187  12.173 -0.1904  0.2662 -0.0275
  307DOPE   C4A 3599   9.431   0.982  12.327 -0.0654  0.2378 -0.0662
  307DOPE   C1B 3600   8.576   1.214  12.075 -0.0550  0.0012 -0.1752
  307DOPE   D2B 3601   8.754   1.480  12.416  0.0151  0.0928  0.1726
  307DOPE   C3B 3602   9.091   1.772  12.426 -0.1453 -0.0317 -0.1630
  307DOPE   C4B 3603   9.300   2.051  12.108 -0.1674  0.1237  0.1163
  308DOPE   NH3 3604   1.676  11.388  11.273 -0.0224 -0.1728  0.1240
  308DOPE   PO4 3605   1.809  11.234  11.549  0.1157 -0.0505  0.0367
  308DOPE   GL1 3606   2.064  11.467  11.768  0.0499  0.0936  0.0263
  308DOPE   GL2 3607   2.046  11.204  11.989  0.0649  0.0003 -0.0267
  308DOPE   C1A 3608   2.167  11.641  12.186  0.1507  0.1322  0.1333
  308DOPE   D2A 3609   1.962  11.714  12.563 -0.1899  0.1326 -0.0418
  308DOPE   C3A 3610   2.127  11.776  12.964  0.1722  0.1606  0.1540
  308DOPE   C4A 3611   2.523  11.997  13.003 -0.1371 -0.1015  0.0025
  308DOPE   C1B 3612   2.036  11.207  12.461 -0.0492  0.0679  0.2506
  308DOPE   D2B 3613   2.049  11.092  12.946 -0.0257 -0.0223 -0.0283
  308DOPE   C3B 3614   2.360  10.756  13.180  0.0109  0.1055 -0.0410
  308DOPE   C4B 3615   2.422  10.299  13.283  0.0973 -0.4016 -0.0929
  309POSM   NC3 3616   6.370   1.156  11.340  0.3853  0.3018  0.1134
  309POSM   PO4 3617   6.690   1.249  11.113 -0.0110  0.3621  0.0307
  309POSM   AM1 3618   6.730   1.507  11.279 -0.1202 -0.2657  0.2787
  309POSM   AM2 3619   6.810   1.810  11.263 -0.0438  0.2507  0.2171
  309POSM   T1A 3620   6.776   1.632  11.754  0.0651 -0.3456 -0.0318
  309POSM   C2A 3621   6.717   1.939  12.096 -0.1436  0.4564 -0.0344
  309POSM   C3A 3622   6.770   2.189  12.490 -0.1338 -0.0873 -0.0378
  309POSM   C1B 3623   7.019   2.076  11.361 -0.5270 -0.2517 -0.0633
  309POSM   D2B 3624   7.304   2.351  11.579  0.0413  0.0588  0.0708
  309POSM   C3B 3625   7.598   2.571  11.837 -0.1295  0.0428  0.2228
  309POSM   C4B 3626   7.747   3.001  11.898 -0.0616 -0.1166 -0.1364
  310DOPS   CNO 3627  10.795   7.214  11.063  0.3312  0.0714 -0.1230
  310DOPS   PO4 3628  10.444   7.167  10.907 -0.0989 -0.2581  0.0339
  310DOPS   GL1 3629  10.349   6.966  11.265 -0.3563 -0.0246  0.1816
  310DOPS   GL2 3630  10.602   6.914  11.385  0.0437  0.1890  0.3863
  310DOPS   C1A 3631  10.158   7.011  11.687 -0.1263  0.1482 -0.1763
  310DOPS   D2A 3632   9.905   6.878  12.078  0.1586  0.0571 -0.0108
  310DOPS   C3A 3633   9.972   6.978  12.527  0.2809 -0.0973 -0.2059
  310DOPS   C4A 3634  10.007   6.891  12.964  0.1780  0.0091 -0.0251
  310DOPS   C1B 3635  10.528   7.293  11.578 -0.1457 -0.1629  0.0226
  310DOPS   D2B 3636  10.534   7.513  12.013  0.1391  0.0450 -0.3125
  310DOPS   C3B 3637  10.552   7.551  12.435  0.3021 -0.1784  0.1531
  310DOPS   C4B 3638  10.369   7.708  12.806  0.1946  0.0367  0.5008
  311DOPC   NC3 3639   6.041   1.725  10.816 -0.0216 -0.0760  0.0421
  311DOPC   PO4 3640   5.777   1.463  10.672  0.3618 -0.0399  0.0089
  311DOPC   GL1 3641   5.861   1.310  11.004 -0.2341 -0.0927  0.0013
  311DOPC   GL2 3642   5.949   1.412  11.244  0.3027  0.1180 -0.0518
  311DOPC   C1A 3643   5.920   0.880  11.185  0.1423  0.1631 -0.1756
  311DOPC   D2A 3644   5.697   0.487  11.360 -0.4320  0.1513 -0.3690
  311DOPC   C3A 3645   5.543   0.687  11.707 -0.0222 -0.0428  0.2425
  311DOPC   C4A 3646   5.674   0.811  12.137  0.1432 -0.3155  0.0028
  311DOPC   C1B 3647   5.864   1.481  11.674 -0.2699  0.1832  0.0378
  311DOPC   D2B 3648   5.679   1.729  12.006 -0.1041  0.0307  0.0220
  311DOPC   C3B 3649   5.895   2.089  12.171 -0.3523 -0.0736  0.0141
  311DOPC   C4B 3650   6.244   2.130  12.439  0.0727  0.0118 -0.0496
  312DOPE   NH3 3651   0.652   1.204  10.308  0.1506 -0.0561  0.2972
  312DOPE   PO4 3652   0.341   1.161  10.273  0.2436 -0.1014 -0.0344
  312DOPE   GL1 3653   0.367   0.763  10.497 -0.2405  0.1261 -0.2459
  312DOPE   GL2 3654   0.038   0.814  10.622  0.2004  0.0877 -0.0124
  312DOPE   C1A 3655   0.282   0.422  10.786 -0.1112  0.1576  0.0314
  312DOPE   D2A 3656   0.121   0.151  11.139 -0.2185  0.4479 -0.1796
  312DOPE   C3A 3657  -0.172   0.436  11.408  0.0587 -0.1438 -0.0053
  312DOPE   C4A 3658  -0.175   0.622  11.842 -0.3583  0.2441 -0.1970
  312DOPE   C1B 3659  -0.230   0.829  11.035 -0.0715  0.1077  0.0253
  312DOPE   D2B 3660  -0.442   0.926  11.426  0.1036 -0.1804  0.0036
  312DOPE   C3B 3661  -0.364   1.106  11.854  0.1325  0.0832  0.1957
  312DOPE   C4B 3662  -0.063   0.998  12.174 -0.3720 -0.0625  0.0485
  313DOPS   CNO 3663   8.482   0.792  11.219 -0.0200 -0.0326 -0.3802
  313DOPS   PO4 3664   8.100   0.695  11.169  0.2972  0.0668 -0.0272
  313DOPS   GL1 3665   8.133   0.788  11.530  0.1501  0.0990 -0.2022
  313DOPS   GL2 3666   8.326   0.585  11.639  0.1898  0.2840 -0.1114
  313DOPS   C1A 3667   7.853   1.046  11.809 -0.0691  0.3170  0.1501
  313DOPS   D2A 3668   7.797   1.177  12.201  0.3346 -0.0535 -0.2148
  313DOPS   C3A 3669   7.759   1.036  12.639 -0.1217  0.1705  0.2256
  313DOPS   C4A 3670   7.903   1.121  13.089 -0.3291 -0.1852  0.1796
  313DOPS   C1B 3671   7.810   0.529  11.713 -0.0538 -0.2206 -0.1333
  313DOPS   D2B 3672   7.363   0.548  11.871  0.2368  0.1531 -0.1686
  313DOPS   C3B 3673   7.415   0.837  12.270  0.2425 -0.1698  0.1261
  313DOPS   C4B 3674   7.365   1.280  12.432 -0.0390 -0.2779 -0.0016
  314DOPS   CNO 3675  12.738   6.639  11.096 -0.0260  0.0077 -0.2194
  314DOPS   PO4 3676  12.542   6.801  11.322 -0.4829  0.1157 -0.0243
  314DOPS   GL1 3677  12.346   6.692  11.623 -0.2820 -0.2011  0.3291
  314DOPS   GL2 3678  12.591   6.537  11.775  0.0284  0.0301 -0.0033
  314DOPS   C1A 3679  12.196   6.519  12.047 -0.0741  0.0818  0.2424
  314DOPS   D2A 3680  12.024   6.186  12.232 -0.0456  0.0092  0.0684
  314DOPS   C3A 3681  11.591   6.154  12.375 -0.1476 -0.2086  0.0012
  314DOPS   C4A 3682  11.520   6.063  12.838 -0.0398  0.0593  0.1549
  314DOPS   C1B 3683  12.840   6.438  12.175 -0.0931 -0.0011 -0.0914
  314DOPS   D2B 3684  12.940   6.028  12.443  0.0507 -0.2356 -0.0072
  314DOPS   C3B 3685  12.693   5.886  12.807  0.2544 -0.2401 -0.1806
  314DOPS   C4B 3686  12.399   5.580  12.746 -0.2349 -0.0672 -0.2643
  315DOPE   NH3 3687   2.920  10.659  11.529  0.0962  0.0449  0.0856
  315DOPE   PO4 3688   2.851  10.500  11.826  0.0671  0.1646  0.1176
  315DOPE   GL1 3689   2.637  10.601  12.084  0.1797 -0.0691 -0.1945
  315DOPE   GL2 3690   2.477  10.865  11.971  0.0565  0.2720  0.0808
  315DOPE   C1A 3691   2.462  10.725  12.478 -0.0384 -0.0344 -0.2236
  315DOPE   D2A 3692   2.523  11.034  12.782  0.2078  0.1091 -0.2103
  315DOPE   C3A 3693   2.846  10.869  13.049  0.0480  0.0683 -0.2864
  315DOPE   C4A 3694   3.238  10.774  13.275 -0.0756 -0.1354  0.0902
  315DOPE   C1B 3695   2.564  11.182  12.307 -0.2842 -0.0732 -0.0161
  315DOPE   D2B 3696   2.465  11.518  12.609  0.0163 -0.2833 -0.0950
  315DOPE   C3B 3697   2.453  11.390  13.063  0.0928  0.3843  0.0462
  315DOPE   C4B 3698   2.464  11.122  13.463  0.0436  0.0658  0.0715
  316DOPE   NH3 3699   5.304   7.306  11.102 -0.1593  0.0635 -0.0939
  316DOPE   PO4 3700   5.430   7.024  11.275 -0.0809  0.1569  0.1698
  316DOPE   GL1 3701   5.406   6.820  11.585  0.1773 -0.2078  0.1382
  316DOPE   GL2 3702   5.508   6.593  11.519 -0.2310 -0.0215 -0.1690
  316DOPE   C1A 3703   5.380   6.717  11.995  0.1360  0.0492 -0.0356
  316DOPE   D2A 3704   5.448   6.727  12.399 -0.1297 -0.0458 -0.0641
  316DOPE   C3A 3705   5.237   6.819  12.808  0.0816  0.1796 -0.0726
  316DOPE   C4A 3706   4.850   6.662  13.088 -0.1347  0.1221 -0.2436
  316DOPE   C1B 3707   5.822   6.663  11.751  0.2153 -0.0866  0.1066
  316DOPE   D2B 3708   6.095   6.280  11.898  0.0297 -0.1569  0.1611
  316DOPE   C3B 3709   6.381   6.066  12.179 -0.1249  0.0005 -0.0667
  316DOPE   C4B 3710   6.303   5.931  12.630 -0.1820 -0.3304 -0.2723
  317POSM   NC3 3711   9.602  31.972  10.560  0.0084 -0.1020 -0.1431
  317POSM   PO4 3712   9.849  32.198  10.350  0.2889 -0.1269  0.1041
  317POSM   AM1 3713   9.956  32.335  10.602 -0.2700  0.2565 -0.2164
  317POSM   AM2 3714   9.844  32.408  10.830  0.1235 -0.1833  0.1303
  317POSM   T1A 3715  10.286  32.234  10.951 -0.1916  0.1724  0.1125
  317POSM   C2A 3716  10.322  31.994  11.375 -0.0767  0.1295  0.0288
  317POSM   C3A 3717  10.362  31.692  11.713 -0.1338 -0.1491 -0.0172
  317POSM   C1B 3718   9.817  32.227  11.164  0.2859  0.0661 -0.0764
  317POSM   D2B 3719   9.832  31.914  11.497 -0.3606  0.0463  0.0247
  317POSM   C3B 3720  10.009  31.996  11.956 -0.1310 -0.2146  0.2080
  317POSM   C4B 3721   9.795  32.221  12.304  0.2895  0.1238 -0.0792
  318DOPC   NC3 3722   9.294   4.053  10.971 -0.3729  0.1097 -0.1402
  318DOPC   PO4 3723   9.660   3.997  11.054  0.3232  0.1630  0.0794
  318DOPC   GL1 3724   9.713   4.046  11.521 -0.1491  0.0506  0.0835
  318DOPC   GL2 3725   9.441   4.248  11.436 -0.0341 -0.0069  0.1979
  318DOPC   C1A 3726  10.011   3.805  11.783 -0.1777  0.1103 -0.0464
  318DOPC   D2A 3727  10.092   3.533  12.212  0.0249  0.0569 -0.2001
  318DOPC   C3A 3728   9.799   3.573  12.573  0.2730  0.0382 -0.0105
  318DOPC   C4A 3729   9.470   3.488  12.840 -0.1012  0.0554 -0.0417
  318DOPC   C1B 3730   9.518   4.286  11.871 -0.0697 -0.2254 -0.3787
  318DOPC   D2B 3731   9.506   4.395  12.379  0.0444 -0.0903 -0.4615
  318DOPC   C3B 3732   9.619   4.534  12.819  0.0096 -0.0398 -0.1054
  318DOPC   C4B 3733   9.308   4.425  13.171  0.0734 -0.2070 -0.1674
  319DOPC   NC3 3734   3.548   6.109  11.501 -0.0389 -0.2201 -0.2645
  319DOPC   PO4 3735   3.869   6.141  11.736  0.1915  0.2869  0.4004
  319DOPC   GL1 3736   3.878   6.268  12.123  0.1514  0.2314 -0.3315
  319DOPC   GL2 3737   4.184   6.105  12.307 -0.2981  0.2326 -0.0105
  319DOPC   C1A 3738   3.844   6.633  12.523 -0.2357  0.2784 -0.0287
  319DOPC   D2A 3739   3.854   6.795  12.947 -0.0320  0.0363 -0.2517
  319DOPC   C3A 3740   3.632   7.060  13.246 -0.2098 -0.2617  0.1878
  319DOPC   C4A 3741   3.445   7.484  13.285  0.0054  0.1155  0.0995
  319DOPC   C1B 3742   3.843   6.131  12.664  0.2516 -0.0325 -0.3090
  319DOPC   D2B 3743   3.735   6.320  13.090 -0.4365  0.3043 -0.0542
  319DOPC   C3B 3744   3.919   6.592  13.426 -0.0464 -0.1370  0.1901
  319DOPC   C4B 3745   3.732   6.793  13.825  0.0346  0.0218 -0.2006
  320DOPE   NH3 3746   8.539  12.127  11.312 -0.1082 -0.2024  0.2144
  320DOPE   PO4 3747   8.287  12.247  11.229 -0.1051 -0.2289 -0.3175
  320DOPE   GL1 3748   8.143  12.221  11.578  0.0467 -0.1297  0.0716
  320DOPE   GL2 3749   8.370  12.108  11.822  0.0890  0.1751  0.1363
  320DOPE   C1A 3750   8.072  12.456  12.014  0.0222  0.2905 -0.0795
  320DOPE   D2A 3751   8.103  12.801  12.346 -0.3294  0.1725 -0.1813
  320DOPE   C3A 3752   7.873  13.083  12.641 -0.2885  0.0913  0.2425
  320DOPE   C4A 3753   7.635  13.350  12.914  0.1243 -0.0129 -0.0718
  320DOPE   C1B 3754   8.168  11.951  12.232  0.1330  0.1153 -0.1539
  320DOPE   D2B 3755   7.934  12.210  12.519  0.1050 -0.0198  0.2750
  320DOPE   C3B 3756   7.950  12.574  12.834  0.3429  0.1731  0.2942
  320DOPE   C4B 3757   7.977  13.005  13.097 -0.0513  0.0071  0.1087
  321POSM   NC3 3758  12.653   9.378  11.606  0.2128  0.0780  0.3030
  321POSM   PO4 3759  12.338   9.495  11.402  0.3252 -0.0742  0.2407
  321POSM   AM1 3760  12.198   9.207  11.437 -0.5277 -0.1769 -0.5587
  321POSM   AM2 3761  12.237   8.953  11.585 -0.2061  0.1675  0.0348
  321POSM   T1A 3762  11.841   9.034  11.800  0.4570  0.1651 -0.1998
  321POSM   C2A 3763  11.536   8.959  12.211 -0.3755  0.2082 -0.0373
  321POSM   C3A 3764  11.379   8.516  12.401  0.2087 -0.3192  0.1096
  321POSM   C1B 3765  12.425   8.992  11.887 -0.0631  0.1895  0.0403
  321POSM   D2B 3766  12.490   8.837  12.299  0.5420  0.0606  0.1196
  321POSM   C3B 3767  12.711   9.031  12.636 -0.2058 -0.0304  0.0167
  321POSM   C4B 3768  13.058   8.793  12.896 -0.2648  0.0466 -0.0108
  322DOPE   NH3 3769   6.677   7.945  10.970 -0.0914  0.0117 -0.1518
  322DOPE   PO4 3770   6.907   8.146  11.122 -0.0147  0.1255  0.2165
  322DOPE   GL1 3771   7.057   7.985  11.477 -0.3782  0.1090 -0.0783
  322DOPE   GL2 3772   7.301   8.046  11.658  0.0608  0.1809  0.0749
  322DOPE   C1A 3773   7.034   7.560  11.719 -0.2026  0.0781 -0.2536
  322DOPE   D2A 3774   7.147   7.386  12.126 -0.1691  0.1149 -0.0141
  322DOPE   C3A 3775   7.565   7.255  12.252 -0.1314 -0.2880  0.0918
  322DOPE   C4A 3776   7.884   6.981  12.456 -0.0287  0.1068  0.1714
  322DOPE   C1B 3777   7.407   8.245  12.095 -0.0996 -0.1622  0.0742
  322DOPE   D2B 3778   7.637   8.592  12.389  0.0054 -0.1817  0.4913
  322DOPE   C3B 3779   7.863   8.712  12.761  0.0250  0.2516  0.1897
  322DOPE   C4B 3780   8.016   8.690  13.212  0.2550  0.3395  0.1427
  323DOPC   NC3 3781   6.978   4.659  10.730 -0.0732  0.0351  0.3730
  323DOPC   PO4 3782   7.122   4.481  11.047 -0.0105  0.1674 -0.0401
  323DOPC   GL1 3783   7.197   4.512  11.432 -0.5191 -0.2578 -0.3118
  323DOPC   GL2 3784   7.057   4.240  11.507 -0.1774  0.3017 -0.0335
  323DOPC   C1A 3785   6.988   4.672  11.826  0.2366  0.0228  0.0051
  323DOPC   D2A 3786   6.997   4.658  12.264 -0.2407  0.0520 -0.1061
  323DOPC   C3A 3787   7.016   4.414  12.639  0.3171 -0.0249  0.0330
  323DOPC   C4A 3788   7.232   4.335  13.018  0.2110  0.2890  0.1806
  323DOPC   C1B 3789   7.357   4.321  11.857 -0.0008 -0.1920  0.0815
  323DOPC   D2B 3790   7.550   4.542  12.221  0.1137  0.1042  0.1067
  323DOPC   C3B 3791   7.476   4.192  12.541 -0.2998  0.3147  0.0540
  323DOPC   C4B 3792   7.545   3.959  12.995 -0.3882 -0.2113  0.0491
  324DOPS   CNO 3793   0.099  34.099   9.751 -0.1472 -0.0541 -0.0536
  324DOPS   PO4 3794  -0.011  34.298  10.043  0.0765 -0.0568 -0.0126
  324DOPS   GL1 3795   0.187  34.381  10.371  0.0611  0.6060 -0.0792
  324DOPS   GL2 3796   0.209  34.182  10.529 -0.0077 -0.3205  0.0031
  324DOPS   C1A 3797  -0.057  34.577  10.677 -0.1524 -0.0240 -0.1462
  324DOPS   D2A 3798  -0.135  34.579  11.159 -0.1830  0.3325 -0.1884
  324DOPS   C3A 3799   0.128  34.543  11.508  0.2929  0.0397 -0.0394
  324DOPS   C4A 3800   0.175  34.457  11.948 -0.0775  0.0592  0.0104
  324DOPS   C1B 3801   0.320  34.291  10.960  0.1243  0.1003 -0.1409
  324DOPS   D2B 3802   0.504  34.194  11.359  0.1332 -0.1644 -0.5115
  324DOPS   C3B 3803   0.250  33.965  11.732 -0.0385  0.0994  0.1293
  324DOPS   C4B 3804  -0.045  33.869  12.051 -0.0041  0.2985 -0.2930
  325DOPE   NH3 3805   2.226  10.048  11.442 -0.1085  0.1489  0.1280
  325DOPE   PO4 3806   2.508  10.092  11.623 -0.0183 -0.5529  0.1807
  325DOPE   GL1 3807   2.324  10.122  11.935  0.0287  0.1208 -0.2084
  325DOPE   GL2 3808   1.966  10.041  11.874  0.1647 -0.0384 -0.1732
  325DOPE   C1A 3809   2.411  10.224  12.367 -0.3541  0.0035  0.4750
  325DOPE   D2A 3810   2.604   9.998  12.696  0.1304 -0.2479 -0.0255
  325DOPE   C3A 3811   2.752   9.881  13.082 -0.0050 -0.1229  0.3185
  325DOPE   C4A 3812   3.039   9.827  13.406 -0.1630 -0.5320 -0.1446
  325DOPE   C1B 3813   1.665   9.822  12.142 -0.0768  0.0409 -0.0839
  325DOPE   D2B 3814   1.566   9.850  12.592  0.1713 -0.1937 -0.0082
  325DOPE   C3B 3815   1.799  10.075  12.831 -0.1969 -0.0325  0.2086
  325DOPE   C4B 3816   1.812  10.247  13.232  0.3642 -0.1471 -0.0265
  326DOPE   NH3 3817   4.422   4.884  11.247 -0.1038  0.0074 -0.0306
  326DOPE   PO4 3818   4.332   5.183  11.252  0.4080 -0.0602  0.1500
  326DOPE   GL1 3819   4.413   5.185  11.644  0.0065 -0.1645  0.2683
  326DOPE   GL2 3820   4.535   4.895  11.706 -0.1083  0.0213 -0.2528
  326DOPE   C1A 3821   4.094   5.125  11.984 -0.1439 -0.0865 -0.2883
  326DOPE   D2A 3822   3.890   5.183  12.362  0.0043  0.1125 -0.1917
  326DOPE   C3A 3823   3.453   5.272  12.280  0.0758  0.3121 -0.1658
  326DOPE   C4A 3824   3.239   5.385  12.680  0.3355  0.0949 -0.1843
  326DOPE   C1B 3825   4.784   5.264  12.014  0.6427 -0.2298 -0.2501
  326DOPE   D2B 3826   4.933   5.470  12.388 -0.0985 -0.1630  0.0117
  326DOPE   C3B 3827   5.317   5.315  12.641  0.3992  0.0838 -0.0995
  326DOPE   C4B 3828   5.336   5.042  13.037  0.1463 -0.1723 -0.2224
  327DOPS   CNO 3829  11.006  11.474  10.803 -0.3243  0.0673 -0.1108
  327DOPS   PO4 3830  11.322  11.394  10.945  0.2996  0.2532  0.0120
  327DOPS   GL1 3831  11.500  11.579  11.371  0.1352  0.0130  0.0409
  327DOPS   GL2 3832  11.570  11.869  11.484 -0.1662  0.1708  0.1769
  327DOPS   C1A 3833  11.616  11.495  11.844 -0.1287 -0.0440 -0.1108
  327DOPS   D2A 3834  11.722  11.692  12.270  0.3882 -0.0924 -0.4387
  327DOPS   C3A 3835  12.032  11.476  12.476 -0.0710 -0.2218  0.4614
  327DOPS   C4A 3836  12.501  11.445  12.487  0.0728 -0.1975 -0.0920
  327DOPS   C1B 3837  11.362  11.905  11.816  0.1263  0.2946 -0.2210
  327DOPS   D2B 3838  11.087  11.618  12.117  0.0995 -0.0520  0.4151
  327DOPS   C3B 3839  11.228  11.625  12.511  0.4944  0.0624 -0.0320
  327DOPS   C4B 3840  11.234  12.052  12.746 -0.1984  0.2128  0.1005
  328DOPE   NH3 3841   9.232   0.316  10.522  0.0309  0.2197  0.0174
  328DOPE   PO4 3842   8.989   0.468  10.604  0.1169 -0.1075 -0.1321
  328DOPE   GL1 3843   9.151   0.278  11.039 -0.2041  0.2005 -0.3387
  328DOPE   GL2 3844   8.941   0.488  11.109  0.1315  0.0336 -0.0136
  328DOPE   C1A 3845   8.877  -0.112  11.105 -0.2167  0.0005 -0.0723
  328DOPE   D2A 3846   8.831  -0.564  11.310  0.0242 -0.0901 -0.2283
  328DOPE   C3A 3847   9.213  -0.651  11.576 -0.1960 -0.3024 -0.0853
  328DOPE   C4A 3848   9.611  -0.737  11.844 -0.0254  0.0096 -0.1480
  328DOPE   C1B 3849   8.855   0.619  11.614 -0.3627 -0.1647  0.1537
  328DOPE   D2B 3850   8.712   0.754  12.028  0.1504  0.1318 -0.1353
  328DOPE   C3B 3851   8.245   0.736  12.168  0.0919  0.1748  0.3920
  328DOPE   C4B 3852   7.854   0.494  12.328  0.1526  0.0350 -0.3911
  329DOPS   CNO 3853   4.129   0.956  10.619 -0.2663  0.1707  0.0151
  329DOPS   PO4 3854   4.103   0.818  10.966  0.0739 -0.1500  0.1409
  329DOPS   GL1 3855   3.824   0.545  11.244 -0.0970 -0.2761 -0.1298
  329DOPS   GL2 3856   4.006   0.409  11.368  0.1230  0.0305 -0.4122
  329DOPS   C1A 3857   3.508   0.521  11.540 -0.3388 -0.2312  0.0777
  329DOPS   D2A 3858   3.196   0.372  11.887 -0.2459 -0.3560 -0.2097
  329DOPS   C3A 3859   2.961   0.058  12.032  0.2593 -0.0549 -0.1428
  329DOPS   C4A 3860   2.991  -0.377  12.225  0.0275 -0.3737 -0.0935
  329DOPS   C1B 3861   4.175   0.448  11.818 -0.0308  0.2466 -0.2314
  329DOPS   D2B 3862   4.031   0.427  12.284  0.3392  0.0671 -0.2768
  329DOPS   C3B 3863   4.344   0.163  12.618  0.2786 -0.1404  0.1009
  329DOPS   C4B 3864   4.370   0.102  13.117 -0.1091  0.0868 -0.3321
  330DOPS   CNO 3865   9.545  33.441  10.391  0.3632 -0.0815  0.0264
  330DOPS   PO4 3866   9.734  33.185  10.558 -0.0891  0.0862  0.0681
  330DOPS   GL1 3867   9.828  33.077  10.972 -0.1073  0.0249  0.1009
  330DOPS   GL2 3868   9.585  32.896  10.948  0.0014  0.0418 -0.2570
  330DOPS   C1A 3869   9.810  33.328  11.340  0.2676 -0.1059 -0.0920
  330DOPS   D2A 3870   9.637  33.375  11.727 -0.1663  0.2936  0.2446
  330DOPS   C3A 3871   9.879  33.638  12.038  0.1809  0.4017 -0.1167
  330DOPS   C4A 3872  10.295  33.556  12.231 -0.1145 -0.1574 -0.2340
  330DOPS   C1B 3873   9.369  33.064  11.319  0.0406 -0.1438 -0.2606
  330DOPS   D2B 3874   9.028  33.295  11.594  0.0628 -0.0200  0.0134
  330DOPS   C3B 3875   8.851  33.756  11.586 -0.1492 -0.4690  0.0047
  330DOPS   C4B 3876   8.789  34.070  11.980  0.4361  0.2358  0.2364
  331DOPC   NC3 3877   5.153   3.800  11.020  0.0174  0.1261  0.0468
  331DOPC   PO4 3878   4.925   3.681  11.345  0.0256  0.0724  0.2664
  331DOPC   GL1 3879   5.072   3.773  11.720 -0.3794 -0.2158 -0.3701
  331DOPC   GL2 3880   4.986   3.506  11.808 -0.1769  0.3361  0.2243
  331DOPC   C1A 3881   5.454   3.810  11.988  0.1060  0.2219 -0.0227
  331DOPC   D2A 3882   5.748   3.827  12.352  0.0714 -0.3507  0.0180
  331DOPC   C3A 3883   5.641   3.568  12.771  0.0826  0.2468 -0.0719
  331DOPC   C4A 3884   5.555   3.310  13.130  0.1348 -0.2313 -0.6077
  331DOPC   C1B 3885   4.760   3.721  12.151  0.3077  0.0322 -0.0131
  331DOPC   D2B 3886   4.811   3.935  12.554 -0.3909 -0.1225  0.2142
  331DOPC   C3B 3887   5.111   3.774  12.842  0.1036  0.2229  0.1588
  331DOPC   C4B 3888   5.187   3.612  13.272 -0.1203 -0.0381 -0.0055
  332DOPC   NC3 3889   8.983   8.985  10.926 -0.1583 -0.0943 -0.4907
  332DOPC   PO4 3890   9.046   8.628  11.039  0.1280  0.2773 -0.1162
  332DOPC   GL1 3891   8.925   8.884  11.389 -0.1632 -0.0388  0.4061
  332DOPC   GL2 3892   9.138   8.782  11.542 -0.1095  0.0971  0.1085
  332DOPC   C1A 3893   8.750   8.993  11.777  0.0479 -0.2272  0.1857
  332DOPC   D2A 3894   8.514   9.053  12.190 -0.0323  0.2555 -0.2632
  332DOPC   C3A 3895   8.078   8.886  12.305 -0.0508 -0.1863 -0.1192
  332DOPC   C4A 3896   7.972   8.605  11.910  0.2311  0.1501 -0.2470
  332DOPC   C1B 3897   9.109   8.533  11.892  0.0440 -0.1025 -0.1986
  332DOPC   D2B 3898   8.851   8.585  12.259 -0.0100  0.0442 -0.2219
  332DOPC   C3B 3899   8.431   8.575  12.462  0.0592 -0.0977  0.3047
  332DOPC   C4B 3900   8.313   8.469  12.893 -0.1556 -0.0390 -0.2893
  333DOPE   NH3 3901   7.334   2.776  10.801 -0.0260 -0.1944  0.0171
  333DOPE   PO4 3902   7.127   2.853  11.035 -0.0083  0.0233 -0.1669
  333DOPE   GL1 3903   7.327   2.818  11.348  0.1881  0.2607  0.1607
  333DOPE   GL2 3904   7.625   2.754  11.342 -0.1276  0.1153  0.0109
  333DOPE   C1A 3905   7.282   2.924  11.750  0.1376  0.1647  0.2915
  333DOPE   D2A 3906   7.158   3.209  12.066 -0.0895  0.0158  0.1960
  333DOPE   C3A 3907   7.305   3.385  12.429  0.0231  0.2210 -0.1353
  333DOPE   C4A 3908   7.112   3.700  12.748  0.2250  0.1243  0.0575
  333DOPE   C1B 3909   7.680   3.216  11.352 -0.1922  0.1807  0.0654
  333DOPE   D2B 3910   7.335   3.473  11.622 -0.1235  0.1388  0.3599
  333DOPE   C3B 3911   7.423   3.709  12.087 -0.2957  0.2773  0.2092
  333DOPE   C4B 3912   7.652   3.697  12.512  0.3620 -0.2797 -0.0655
  334DOPC   NC3 3913  10.532   8.684  11.375  0.3691  0.1244 -0.0072
  334DOPC   PO4 3914  10.262   8.986  11.405  0.2705  0.2672 -0.0390
  334DOPC   GL1 3915  10.355   8.844  11.822  0.0032 -0.1188  0.0055
  334DOPC   GL2 3916  10.050   8.947  11.866 -0.2141  0.3667  0.1723
  334DOPC   C1A 3917  10.491   9.040  12.242  0.0063 -0.0526 -0.2734
  334DOPC   D2A 3918  10.672   8.982  12.617 -0.0782  0.1784  0.0610
  334DOPC   C3A 3919  11.098   8.854  12.634  0.4001 -0.0482 -0.0754
  334DOPC   C4A 3920  11.551   8.853  12.725 -0.0552  0.2116  0.1244
  334DOPC   C1B 3921  10.048   8.889  12.321 -0.1491  0.1125 -0.0577
  334DOPC   D2B 3922   9.975   8.528  12.628  0.1677  0.0015 -0.0363
  334DOPC   C3B 3923   9.593   8.492  12.869  0.0627  0.0775  0.1026
  334DOPC   C4B 3924   9.279   8.417  13.193 -0.3342 -0.1710  0.0009
  335POSM   NC3 3925   5.784   2.402  11.202  0.0828 -0.1432  0.1978
  335POSM   PO4 3926   6.060   2.231  10.980 -0.2228  0.2108  0.0637
  335POSM   AM1 3927   6.159   2.066  11.243  0.1686 -0.2436 -0.0889
  335POSM   AM2 3928   6.306   1.808  11.272  0.0482  0.0412  0.2748
  335POSM   T1A 3929   6.511   2.115  11.565 -0.2635 -0.0952  0.1173
  335POSM   C2A 3930   6.843   2.307  11.764 -0.0959 -0.0512  0.1897
  335POSM   C3A 3931   7.087   2.477  12.082  0.1268 -0.4421 -0.3326
  335POSM   C1B 3932   6.343   1.598  11.510 -0.5908 -0.2142  0.2746
  335POSM   D2B 3933   6.384   1.263  11.872  0.2235 -0.0159  0.0988
  335POSM   C3B 3934   5.966   1.329  12.118 -0.0072 -0.3023 -0.0353
  335POSM   C4B 3935   5.809   1.207  12.519  0.0671  0.1019 -0.0233
  336DOPC   NC3 3936   4.438   9.061  11.339 -0.0645  0.4908  0.1339
  336DOPC   PO4 3937   4.019   9.127  11.291 -0.0572  0.0986 -0.2895
  336DOPC   GL1 3938   4.048   9.213  11.647 -0.1269  0.1421 -0.0000
  336DOPC   GL2 3939   4.303   9.361  11.803  0.0240 -0.0196 -0.1073
  336DOPC   C1A 3940   4.269   8.860  11.786  0.1622 -0.1199  0.0108
  336DOPC   D2A 3941   4.458   8.521  12.111 -0.0237 -0.0727  0.2146
  336DOPC   C3A 3942   4.712   8.219  12.393  0.0508  0.1307  0.2270
  336DOPC   C4A 3943   5.065   8.073  12.671 -0.0293 -0.2154 -0.0462
  336DOPC   C1B 3944   4.366   9.412  12.198  0.1359  0.2201  0.3560
  336DOPC   D2B 3945   4.542   9.533  12.597 -0.1650 -0.1233  0.0954
  336DOPC   C3B 3946   4.945   9.328  12.806 -0.2491  0.3178 -0.0612
  336DOPC   C4B 3947   5.334   9.123  12.752  0.0641 -0.0102  0.1135
  337DOPC   NC3 3948   9.359   7.722  10.814  0.0075 -0.2118 -0.3194
  337DOPC   PO4 3949   9.022   7.577  10.929 -0.0097 -0.0582  0.3360
  337DOPC   GL1 3950   8.904   7.426  11.260  0.2280  0.0873  0.3745
  337DOPC   GL2 3951   8.860   7.177  11.323 -0.0603  0.1194 -0.3088
  337DOPC   C1A 3952   9.131   7.543  11.632 -0.1845 -0.3658 -0.1521
  337DOPC   D2A 3953   9.204   7.873  11.999  0.1153 -0.0163 -0.2436
  337DOPC   C3A 3954   9.113   8.191  12.341 -0.0455  0.0257  0.2271
  337DOPC   C4A 3955   9.250   8.090  12.775  0.0497  0.0148  0.0316
  337DOPC   C1B 3956   8.709   6.871  11.636  0.1393  0.3170 -0.1412
  337DOPC   D2B 3957   8.592   6.497  11.878  0.4130 -0.1230  0.3988
  337DOPC   C3B 3958   8.564   6.614  12.306 -0.0369  0.2234 -0.4195
  337DOPC   C4B 3959   8.371   6.930  12.587  0.1310  0.1149 -0.1737
  338DOPE   NH3 3960   2.126   8.449  11.852  0.1886 -0.3906 -0.6063
  338DOPE   PO4 3961   2.315   8.217  11.674  0.2784 -0.3258  0.0378
  338DOPE   GL1 3962   2.499   8.177  12.039  0.2129  0.0211  0.0356
  338DOPE   GL2 3963   2.310   7.940  12.104 -0.0066 -0.0511  0.2400
  338DOPE   C1A 3964   2.802   7.987  12.383 -0.0622 -0.1863 -0.0254
  338DOPE   D2A 3965   3.188   8.010  12.576 -0.3682 -0.1450 -0.1178
  338DOPE   C3A 3966   3.230   7.955  13.010  0.0834 -0.2157  0.0908
  338DOPE   C4A 3967   3.096   7.957  13.527  0.0818 -0.0763 -0.1736
  338DOPE   C1B 3968   2.297   7.647  12.457  0.4623 -0.0041 -0.3020
  338DOPE   D2B 3969   2.125   7.609  12.890  0.1187 -0.1152 -0.2196
  338DOPE   C3B 3970   2.414   7.788  13.270 -0.2056  0.0616  0.2170
  338DOPE   C4B 3971   2.737   8.098  13.269  0.1812 -0.1899  0.0772
  339DOPE   NH3 3972   3.365   8.989  11.100  0.2784 -0.3663  0.0713
  339DOPE   PO4 3973   3.278   9.034  11.390  0.0468  0.2118  0.0079
  339DOPE   GL1 3974   3.416   8.757  11.637  0.2446 -0.2591 -0.0066
  339DOPE   GL2 3975   3.733   8.819  11.642  0.0033  0.1450  0.1028
  339DOPE   C1A 3976   3.500   8.805  12.058 -0.1790  0.0354  0.2446
  339DOPE   D2A 3977   3.702   8.873  12.487  0.0392 -0.0816  0.1418
  339DOPE   C3A 3978   3.563   8.964  12.932 -0.0239  0.3436 -0.0139
  339DOPE   C4A 3979   3.649   8.749  13.351  0.0729 -0.1019 -0.1404
  339DOPE   C1B 3980   3.904   9.000  12.030 -0.0060 -0.3277 -0.0297
  339DOPE   D2B 3981   4.244   8.901  12.333  0.0348 -0.1464 -0.0919
  339DOPE   C3B 3982   4.253   8.966  12.755  0.5257 -0.2901  0.1482
  339DOPE   C4B 3983   4.166   8.912  13.169  0.2586 -0.3437 -0.1294
  340DOPC   NC3 3984  33.719   6.146  10.149  0.2054  0.2553 -0.2112
  340DOPC   PO4 3985  33.891   5.798  10.195  0.3110 -0.2188 -0.2102
  340DOPC   GL1 3986  33.987   5.532  10.538  0.0104 -0.2555 -0.1787
  340DOPC   GL2 3987  34.224   5.646  10.654 -0.4234  0.0201 -0.0274
  340DOPC   C1A 3988  33.775   5.486  10.989  0.0019  0.0344 -0.1021
  340DOPC   D2A 3989  33.921   5.737  11.344  0.0056  0.1771  0.0440
  340DOPC   C3A 3990  34.054   5.559  11.718 -0.0348  0.3518  0.1704
  340DOPC   C4A 3991  33.878   5.420  12.161  0.1355  0.0180  0.0437
  340DOPC   C1B 3992  34.258   5.449  11.090  0.1712  0.2867 -0.0190
  340DOPC   D2B 3993  34.044   5.126  11.314  0.1770 -0.0147  0.2074
  340DOPC   C3B 3994  34.036   5.094  11.812 -0.3359  0.0283  0.1726
  340DOPC   C4B 3995  33.971   4.922  12.250 -0.0718 -0.0069 -0.1423
  341DOPE   NH3 3996   7.677   6.058  10.960 -0.1986  0.0740 -0.0235
  341DOPE   PO4 3997   7.795   5.805  10.781 -0.2955  0.0528  0.0226
  341DOPE   GL1 3998   8.020   5.783  11.172 -0.2194 -0.3055 -0.1839
  341DOPE   GL2 3999   7.798   5.664  11.258  0.1456 -0.0335  0.1885
  341DOPE   C1A 4000   8.131   5.716  11.607 -0.0740  0.0282 -0.2214
  341DOPE   D2A 4001   8.144   5.518  12.044  0.1002 -0.1612  0.3523
  341DOPE   C3A 4002   8.557   5.645  12.326  0.0867 -0.2528 -0.1322
  341DOPE   C4A 4003   8.653   5.491  12.726 -0.0194 -0.1990  0.0340
  341DOPE   C1B 4004   7.714   5.294  11.550 -0.1368 -0.2712 -0.1037
  341DOPE   D2B 4005   7.701   5.281  12.028 -0.0680  0.1610  0.2534
  341DOPE   C3B 4006   7.625   5.225  12.503 -0.1763  0.0384 -0.2330
  341DOPE   C4B 4007   7.772   5.291  12.876 -0.0597 -0.2471  0.1469
  342DOPS   CNO 4008   5.406  10.725  10.966 -0.0603 -0.1259 -0.1490
  342DOPS   PO4 4009   5.706  10.552  11.013 -0.2305 -0.0735 -0.2959
  342DOPS   GL1 4010   5.781  10.481  11.379 -0.2372 -0.0367  0.4106
  342DOPS   GL2 4011   6.044  10.443  11.504  0.0854  0.1884 -0.1109
  342DOPS   C1A 4012   5.702  10.318  11.784  0.0088 -0.2834 -0.2075
  342DOPS   D2A 4013   5.766  10.587  12.141 -0.0297  0.1735  0.1644
  342DOPS   C3A 4014   6.128  10.458  12.411  0.0371  0.2836 -0.0663
  342DOPS   C4A 4015   6.452  10.676  12.633 -0.0759 -0.0420 -0.0127
  342DOPS   C1B 4016   6.317  10.313  11.813 -0.1839 -0.1541 -0.0462
  342DOPS   D2B 4017   6.537  10.192  12.241 -0.1659 -0.0249 -0.0251
  342DOPS   C3B 4018   6.398  10.030  12.662  0.2016 -0.0579 -0.1738
  342DOPS   C4B 4019   6.458  10.044  13.137  0.0954 -0.0166 -0.0023
  343DOPC   NC3 4020   2.563   9.222  11.894  0.0040  0.1645 -0.0810
  343DOPC   PO4 4021   2.222   9.129  11.649  0.1709  0.1455 -0.1666
  343DOPC   GL1 4022   2.265   8.897  11.961  0.1637  0.0523 -0.0265
  343DOPC   GL2 4023   2.540   8.799  12.128  0.0561 -0.0572 -0.4868
  343DOPC   C1A 4024   2.107   8.681  12.345 -0.0700  0.0038 -0.1305
  343DOPC   D2A 4025   2.105   8.457  12.731 -0.2861  0.2385  0.0696
  343DOPC   C3A 4026   2.413   8.062  12.742 -0.2136  0.1371  0.2361
  343DOPC   C4A 4027   2.663   7.668  12.854 -0.3205  0.2347  0.0276
  343DOPC   C1B 4028   2.511   8.438  12.408  0.0862 -0.0841 -0.2471
  343DOPC   D2B 4029   2.788   8.413  12.749  0.3322  0.1983  0.2159
  343DOPC   C3B 4030   2.552   8.540  13.110 -0.0884  0.0657 -0.0524
  343DOPC   C4B 4031   2.402   8.381  13.524 -0.6123  0.0293  0.0015
  344POSM   NC3 4032   8.952   5.998  10.987  0.1530  0.0161 -0.0786
  344POSM   PO4 4033   9.200   6.341  10.997  0.0449  0.2854 -0.3846
  344POSM   AM1 4034   9.235   6.378  11.340  0.1372  0.1069  0.0857
  344POSM   AM2 4035   9.326   6.133  11.526  0.1057  0.1397  0.2018
  344POSM   T1A 4036   9.081   6.542  11.767  0.0759  0.1973  0.1347
  344POSM   C2A 4037   9.069   6.438  12.189  0.0171  0.0575 -0.1665
  344POSM   C3A 4038   9.151   6.376  12.658  0.2509  0.1870 -0.3174
  344POSM   C1B 4039   9.485   6.215  11.824 -0.1667 -0.2857  0.1378
  344POSM   D2B 4040   9.481   6.220  12.288  0.0153 -0.0013  0.0986
  344POSM   C3B 4041   9.498   6.710  12.310 -0.0606 -0.2569  0.2463
  344POSM   C4B 4042   9.517   7.153  12.345  0.1730 -0.0826  0.0804
  345DOPC   NC3 4043   0.632   6.586  10.718  0.5027  0.1795 -0.1075
  345DOPC   PO4 4044   0.297   6.407  10.823  0.0847 -0.0365  0.1832
  345DOPC   GL1 4045   0.306   6.414  11.229 -0.1993  0.1122  0.2213
  345DOPC   GL2 4046   0.641   6.465  11.266 -0.1325  0.3120 -0.0451
  345DOPC   C1A 4047   0.142   6.356  11.663  0.0118 -0.3055 -0.0675
  345DOPC   D2A 4048   0.272   6.186  12.079  0.0730 -0.3002  0.1464
  345DOPC   C3A 4049  -0.188   6.061  12.215 -0.1706 -0.1259 -0.1533
  345DOPC   C4A 4050  -0.539   5.737  12.174  0.1774  0.2908  0.0449
  345DOPC   C1B 4051   0.649   6.424  11.668  0.0848  0.0159  0.1686
  345DOPC   D2B 4052   0.611   6.609  12.022 -0.0673  0.0009 -0.1102
  345DOPC   C3B 4053   0.582   7.059  12.079 -0.0402 -0.0592 -0.0430
  345DOPC   C4B 4054   0.380   7.341  12.419  0.1095 -0.1455 -0.0376
  346POSM   NC3 4055   6.155   8.732  10.487 -0.2176 -0.1965  0.1617
  346POSM   PO4 4056   6.050   8.697  10.866  0.1589  0.1531 -0.6024
  346POSM   AM1 4057   6.079   8.666  11.179 -0.0891  0.1948  0.0923
  346POSM   AM2 4058   6.248   8.757  11.425  0.0648  0.0538  0.1812
  346POSM   T1A 4059   5.871   8.560  11.636  0.0454  0.0393 -0.0521
  346POSM   C2A 4060   5.561   8.547  11.975  0.0648  0.2857 -0.0586
  346POSM   C3A 4061   5.167   8.487  12.253  0.2269 -0.1581  0.1125
  346POSM   C1B 4062   6.414   8.886  11.678 -0.0022 -0.1880  0.1586
  346POSM   D2B 4063   6.658   8.835  12.031 -0.0534  0.1347  0.0839
  346POSM   C3B 4064   6.579   8.797  12.509 -0.1614 -0.1199  0.1350
  346POSM   C4B 4065   6.523   9.035  12.886 -0.1365 -0.0025  0.0130
  347DOPE   NH3 4066   0.793   5.647  10.724  0.1613  0.1993 -0.3022
  347DOPE   PO4 4067   0.814   5.982  10.723  0.1372  0.0812  0.3239
  347DOPE   GL1 4068   0.953   5.782  11.115  0.2102 -0.0696 -0.0858
  347DOPE   GL2 4069   0.667   5.967  11.200  0.2657  0.0015 -0.2942
  347DOPE   C1A 4070   0.966   5.854  11.594  0.0934  0.2134  0.1789
  347DOPE   D2A 4071   0.888   6.130  11.971  0.1795  0.1249 -0.1399
  347DOPE   C3A 4072   0.695   6.118  12.367 -0.4136 -0.1781 -0.1505
  347DOPE   C4A 4073   0.504   6.532  12.499 -0.1922  0.1726 -0.0782
  347DOPE   C1B 4074   0.398   5.880  11.556 -0.2568  0.0897  0.0140
  347DOPE   D2B 4075   0.482   5.728  11.971 -0.1863  0.1676 -0.0366
  347DOPE   C3B 4076   0.901   5.645  12.227  0.0498 -0.3655 -0.0327
  347DOPE   C4B 4077   1.097   5.776  12.631  0.0815  0.0912  0.1059
  348DOPE   NH3 4078   6.939   6.283  11.098  0.0434  0.1101  0.0819
  348DOPE   PO4 4079   6.801   6.014  10.961 -0.0412 -0.0187 -0.1777
  348DOPE   GL1 4080   6.975   5.791  11.281  0.1220 -0.1458  0.3360
  348DOPE   GL2 4081   7.253   5.954  11.229 -0.1119  0.0893 -0.0070
  348DOPE   C1A 4082   6.722   5.612  11.614  0.0797 -0.1254  0.1452
  348DOPE   D2A 4083   6.659   5.543  12.054 -0.2020  0.0744 -0.1382
  348DOPE   C3A 4084   6.899   5.944  12.106  0.0891  0.0559  0.2506
  348DOPE   C4A 4085   7.148   6.344  12.169  0.0097  0.0500  0.1287
  348DOPE   C1B 4086   7.260   5.613  11.548 -0.0348 -0.0238 -0.0033
  348DOPE   D2B 4087   7.277   5.215  11.835  0.1735  0.1604  0.2136
  348DOPE   C3B 4088   7.557   4.874  11.788  0.2874  0.2000  0.0407
  348DOPE   C4B 4089   7.845   4.561  11.799  0.3002  0.3770  0.1817
  349DOPS   CNO 4090   6.973  34.403  10.188  0.0704  0.1275 -0.1131
  349DOPS   PO4 4091   7.136  34.257  10.522 -0.0321 -0.0956 -0.2610
  349DOPS   GL1 4092   7.305  34.365  10.880 -0.0759  0.2050 -0.1498
  349DOPS   GL2 4093   7.064  34.181  11.036 -0.1263 -0.1665 -0.2358
  349DOPS   C1A 4094   7.631  34.180  11.196  0.1564 -0.1091 -0.0290
  349DOPS   D2A 4095   7.742  33.967  11.626 -0.0228  0.2674 -0.3316
  349DOPS   C3A 4096   7.866  33.993  12.017 -0.1873 -0.2467  0.0088
  349DOPS   C4A 4097   7.981  33.747  12.353 -0.1249 -0.1405 -0.0161
  349DOPS   C1B 4098   7.297  33.843  11.186 -0.3011 -0.0187  0.0752
  349DOPS   D2B 4099   7.602  33.549  11.303  0.0360 -0.0723 -0.1675
  349DOPS   C3B 4100   7.638  33.529  11.766  0.0949  0.0749 -0.2651
  349DOPS   C4B 4101   7.765  33.316  12.178 -0.1598  0.0869  0.0345
  350DOPE   NH3 4102  34.633  32.998   9.635  0.0462  0.3279 -0.0566
  350DOPE   PO4 4103  34.844  33.095   9.864 -0.2526 -0.3004 -0.1671
  350DOPE   GL1 4104  34.915  33.159  10.219 -0.1528 -0.0712  0.0015
  350DOPE   GL2 4105  34.990  33.154  10.474  0.2422  0.2649  0.0761
  350DOPE   C1A 4106  34.508  33.288  10.473 -0.1834  0.1590  0.0222
  350DOPE   D2A 4107  34.209  33.406  10.844 -0.2737 -0.1392 -0.0514
  350DOPE   C3A 4108  34.077  33.781  10.829  0.0049  0.0867  0.0353
  350DOPE   C4A 4109  33.689  33.748  10.563 -0.1802 -0.1872  0.0996
  350DOPE   C1B 4110  34.883  32.821  10.751 -0.0297 -0.0536  0.0654
  350DOPE   D2B 4111  34.589  32.785  11.160  0.1461  0.0796  0.1215
  350DOPE   C3B 4112  34.342  33.053  11.374 -0.1887 -0.0628 -0.1154
  350DOPE   C4B 4113  34.245  33.351  11.770  0.2017  0.1622  0.1681
  351DOPE   NH3 4114   9.646  32.650  10.450 -0.3013 -0.2264  0.1676
  351DOPE   PO4 4115   9.406  32.431  10.576  0.0914  0.0649 -0.1385
  351DOPE   GL1 4116   9.383  32.317  10.982  0.1733 -0.0103  0.2948
  351DOPE   GL2 4117   9.218  32.544  11.007 -0.0119 -0.1129 -0.1918
  351DOPE   C1A 4118   9.399  32.151  11.388  0.1259  0.0363  0.2814
  351DOPE   D2A 4119   9.550  32.278  11.791 -0.0842 -0.1636 -0.0155
  351DOPE   C3A 4120   9.350  32.099  12.248  0.1417 -0.1943  0.0781
  351DOPE   C4A 4121   9.186  31.722  12.458  0.0138 -0.0333  0.2190
  351DOPE   C1B 4122   9.551  32.606  11.364 -0.0634 -0.0402  0.0398
  351DOPE   D2B 4123   9.601  32.878  11.727 -0.1140 -0.0551 -0.2380
  351DOPE   C3B 4124   9.464  32.633  12.111  0.0761 -0.3658 -0.1271
  351DOPE   C4B 4125   9.427  32.520  12.541  0.2455 -0.3710 -0.1186
  352POSM   NC3 4126  11.284   6.889  10.628 -0.0610  0.1054 -0.0640
  352POSM   PO4 4127  11.588   6.806  10.912 -0.0044  0.0699 -0.0395
  352POSM   AM1 4128  11.590   6.775  11.275 -0.3750 -0.0607 -0.2151
  352POSM   AM2 4129  11.457   6.679  11.499  0.1960 -0.0222  0.1672
  352POSM   T1A 4130  11.611   7.072  11.729  0.1689  0.0884 -0.2518
  352POSM   C2A 4131  11.384   7.089  12.110  0.0058  0.0940 -0.1190
  352POSM   C3A 4132  11.353   7.095  12.565  0.1784  0.2374 -0.0818
  352POSM   C1B 4133  11.317   6.632  11.823 -0.2429 -0.3327  0.2429
  352POSM   D2B 4134  11.244   6.665  12.298 -0.0493  0.0558 -0.1745
  352POSM   C3B 4135  11.398   6.606  12.736  0.0975 -0.0406  0.1446
  352POSM   C4B 4136  11.741   6.789  12.991 -0.1220 -0.3381  0.2713
  353DOPC   NC3 4137  10.014   4.591  10.841 -0.0705 -0.1313  0.0909
  353DOPC   PO4 4138  10.348   4.438  11.091 -0.0480  0.0127 -0.1404
  353DOPC   GL1 4139  10.394   4.349  11.452  0.3166 -0.3135 -0.2083
  353DOPC   GL2 4140  10.607   4.203  11.543  0.0757 -0.1446  0.0266
  353DOPC   C1A 4141  10.173   4.234  11.859 -0.1521 -0.3068 -0.5191
  353DOPC   D2A 4142   9.906   4.083  12.163  0.1498  0.1181 -0.1032
  353DOPC   C3A 4143   9.817   4.131  12.626 -0.0214  0.0782 -0.1037
  353DOPC   C4A 4144   9.941   3.922  12.975 -0.0756 -0.1240  0.3347
  353DOPC   C1B 4145  10.757   4.316  11.908  0.1124  0.0115  0.0071
  353DOPC   D2B 4146  11.133   4.412  12.213  0.0447  0.1309 -0.2961
  353DOPC   C3B 4147  11.072   4.646  12.646 -0.4207 -0.0269 -0.1017
  353DOPC   C4B 4148  10.933   4.877  12.979 -0.2771 -0.2831 -0.1561
  354DOPC   NC3 4149   6.008  32.945  10.455 -0.2766  0.1570 -0.0475
  354DOPC   PO4 4150   5.929  32.560  10.389 -0.0520 -0.2297 -0.0709
  354DOPC   GL1 4151   6.005  32.599  10.727  0.0106 -0.3105  0.2629
  354DOPC   GL2 4152   6.292  32.599  10.779 -0.0202 -0.3282  0.0326
  354DOPC   C1A 4153   5.789  32.672  11.146  0.4177  0.0930 -0.0420
  354DOPC   D2A 4154   5.611  32.807  11.561  0.1924  0.0316 -0.0339
  354DOPC   C3A 4155   5.372  32.662  11.928 -0.1245  0.3891 -0.0732
  354DOPC   C4A 4156   5.328  32.702  12.421 -0.4096  0.0832 -0.2253
  354DOPC   C1B 4157   6.292  32.568  11.190 -0.3658  0.1208  0.3357
  354DOPC   D2B 4158   6.077  32.581  11.567 -0.0334  0.1440 -0.3436
  354DOPC   C3B 4159   5.934  32.269  11.862 -0.2127  0.0426  0.0373
  354DOPC   C4B 4160   5.666  32.293  12.152 -0.1439  0.1578  0.1680
  355DOPE   NH3 4161   2.586   1.557  10.326  0.1046 -0.1605  0.0329
  355DOPE   PO4 4162   2.663   1.624  10.601  0.4211  0.2338 -0.0319
  355DOPE   GL1 4163   2.512   1.671  11.057  0.0459  0.0435 -0.0809
  355DOPE   GL2 4164   2.555   1.885  11.144 -0.3294 -0.0234  0.0383
  355DOPE   C1A 4165   2.589   1.471  11.482 -0.0323 -0.1168  0.0159
  355DOPE   D2A 4166   2.830   1.254  11.868  0.1137 -0.0505  0.0008
  355DOPE   C3A 4167   2.920   1.583  12.211 -0.1936 -0.0487  0.2776
  355DOPE   C4A 4168   3.055   1.800  12.589 -0.0167 -0.1068 -0.1220
  355DOPE   C1B 4169   2.129   1.784  11.357 -0.0624 -0.0689  0.2544
  355DOPE   D2B 4170   1.761   1.808  11.687  0.1428  0.1752 -0.0424
  355DOPE   C3B 4171   1.801   1.867  12.125  0.1012 -0.3207 -0.0211
  355DOPE   C4B 4172   1.849   2.024  12.562  0.0803 -0.4536 -0.0388
  356DOPE   NH3 4173   7.337   4.067  10.960 -0.0088  0.0116 -0.1668
  356DOPE   PO4 4174   7.482   4.148  11.220  0.0050  0.3671 -0.2250
  356DOPE   GL1 4175   7.428   3.910  11.608 -0.1379  0.0069  0.0686
  356DOPE   GL2 4176   7.674   3.936  11.653 -0.1944 -0.0250  0.1536
  356DOPE   C1A 4177   7.061   3.927  11.876  0.1714  0.1325  0.2126
  356DOPE   D2A 4178   7.030   4.020  12.279 -0.1141  0.2419 -0.1288
  356DOPE   C3A 4179   6.716   4.018  12.670  0.0505 -0.1108 -0.1306
  356DOPE   C4A 4180   6.522   4.250  13.052  0.1235 -0.1879  0.2941
  356DOPE   C1B 4181   7.741   4.098  12.122  0.2329  0.2274 -0.0313
  356DOPE   D2B 4182   8.049   4.387  12.294 -0.1506  0.2132 -0.0319
  356DOPE   C3B 4183   8.327   4.622  12.001  0.1772  0.0438 -0.1093
  356DOPE   C4B 4184   8.326   4.439  11.562 -0.0123 -0.2121 -0.3171
  357POSM   NC3 4185   3.306   2.639  10.733 -0.1088  0.0590 -0.0343
  357POSM   PO4 4186   3.424   2.489  11.084  0.0503  0.2819 -0.2539
  357POSM   AM1 4187   3.617   2.409  11.368  0.5426  0.1091 -0.1665
  357POSM   AM2 4188   3.705   2.473  11.638 -0.1964 -0.2024 -0.0264
  357POSM   T1A 4189   3.730   1.937  11.644 -0.0648 -0.2094  0.1329
  357POSM   C2A 4190   4.172   1.753  11.622  0.0985  0.3502 -0.1832
  357POSM   C3A 4191   4.299   1.369  11.388 -0.1485 -0.2987  0.1423
  357POSM   C1B 4192   3.471   2.280  11.821 -0.1648 -0.2844  0.3079
  357POSM   D2B 4193   3.166   1.939  11.892  0.0767 -0.0697 -0.0607
  357POSM   C3B 4194   3.363   1.576  11.583 -0.0947  0.2513  0.0300
  357POSM   C4B 4195   3.794   1.400  11.533 -0.2926  0.0775  0.0685
  358POSM   NC3 4196   4.965   4.306  11.540 -0.2654  0.0917 -0.0849
  358POSM   PO4 4197   5.236   4.125  11.347 -0.1203  0.0142 -0.4098
  358POSM   AM1 4198   5.443   4.271  11.559  0.3480 -0.0447 -0.1596
  358POSM   AM2 4199   5.359   4.452  11.795  0.2780 -0.0741  0.2504
  358POSM   T1A 4200   5.706   4.225  11.977  0.0298  0.1746 -0.0558
  358POSM   C2A 4201   6.134   4.128  12.100 -0.3059  0.0928  0.2780
  358POSM   C3A 4202   6.477   3.807  12.162 -0.2502 -0.0136 -0.1851
  358POSM   C1B 4203   5.367   4.566  12.087 -0.3610 -0.1109 -0.1999
  358POSM   D2B 4204   5.487   4.782  12.491  0.2397 -0.2013  0.1015
  358POSM   C3B 4205   5.798   4.627  12.848  0.3201 -0.3494  0.0870
  358POSM   C4B 4206   6.161   4.586  13.180 -0.0134 -0.2078 -0.1260
  359POSM   NC3 4207   3.288  11.441  11.114  0.0829 -0.2624  0.2081
  359POSM   PO4 4208   3.334  11.289  11.464  0.4224 -0.1537 -0.1468
  359POSM   AM1 4209   3.234  11.433  11.759 -0.1875  0.2663 -0.0461
  359POSM   AM2 4210   3.065  11.418  11.997  0.0154  0.0336  0.3889
  359POSM   T1A 4211   3.247  11.878  12.046 -0.2529 -0.2471 -0.0572
  359POSM   C2A 4212   3.124  12.246  12.372 -0.3675  0.1063 -0.0793
  359POSM   C3A 4213   2.984  12.261  12.752  0.1001  0.1379 -0.0356
  359POSM   C1B 4214   3.109  11.397  12.335 -0.1905 -0.1966 -0.0755
  359POSM   D2B 4215   2.897  11.326  12.675  0.0850 -0.2367 -0.1573
  359POSM   C3B 4216   3.283  11.286  13.026  0.0037 -0.0969  0.0623
  359POSM   C4B 4217   3.716  11.284  13.093  0.0756  0.1237  0.2656
  360POSM   NC3 4218   8.693   4.730  10.560  0.0533 -0.2400 -0.3121
  360POSM   PO4 4219   8.436   4.493  10.737  0.1071  0.1649  0.1041
  360POSM   AM1 4220   8.436   4.644  11.033  0.0377  0.3203  0.1493
  360POSM   AM2 4221   8.551   4.774  11.276  0.3352  0.1142 -0.3778
  360POSM   T1A 4222   8.085   4.848  11.387  0.0390 -0.2399  0.0731
  360POSM   C2A 4223   8.075   5.054  11.780 -0.0539  0.1758 -0.0286
  360POSM   C3A 4224   7.912   4.892  12.196 -0.1008 -0.1468 -0.2339
  360POSM   C1B 4225   8.576   4.926  11.563 -0.0221 -0.1897 -0.1141
  360POSM   D2B 4226   8.746   4.912  11.982  0.0218  0.0008  0.0431
  360POSM   C3B 4227   8.472   5.174  12.225  0.0154 -0.2487 -0.2945
  360POSM   C4B 4228   8.155   5.185  12.577 -0.0213  0.1668  0.0443
  361DOPC   NC3 4229   1.578   5.717  11.301 -0.0871 -0.6876  0.0405
  361DOPC   PO4 4230   1.881   5.923  11.251 -0.1016  0.0782  0.3091
  361DOPC   GL1 4231   1.594   6.126  11.581 -0.3397  0.2259 -0.6410
  361DOPC   GL2 4232   1.702   6.403  11.470 -0.0937  0.0832  0.3252
  361DOPC   C1A 4233   1.523   6.287  12.033 -0.4532 -0.0779 -0.2570
  361DOPC   D2A 4234   1.514   6.634  12.329  0.0780 -0.1624  0.1413
  361DOPC   C3A 4235   1.439   6.800  12.748 -0.3581 -0.0105  0.3342
  361DOPC   C4A 4236   1.659   7.180  13.006  0.2489 -0.4492  0.1766
  361DOPC   C1B 4237   1.259   6.452  11.637  0.0130 -0.1256  0.1294
  361DOPC   D2B 4238   1.098   6.679  12.017  0.0058  0.0030 -0.2195
  361DOPC   C3B 4239   0.974   6.495  12.479  0.3645  0.0547 -0.0434
  361DOPC   C4B 4240   0.882   6.699  12.938 -0.1471  0.1867 -0.0917
  362DOPC   NC3 4241   8.126   2.774  10.543  0.0380  0.2244 -0.3938
  362DOPC   PO4 4242   8.403   2.959  10.740 -0.2944  0.0327 -0.0082
  362DOPC   GL1 4243   8.312   3.074  11.055  0.1126 -0.0067 -0.0183
  362DOPC   GL2 4244   8.030   3.009  11.095 -0.3413  0.2192 -0.0481
  362DOPC   C1A 4245   8.574   2.980  11.437 -0.0652 -0.3408 -0.2135
  362DOPC   D2A 4246   8.748   3.167  11.843 -0.2401 -0.2013  0.1657
  362DOPC   C3A 4247   9.126   2.957  11.986 -0.0166 -0.0965 -0.0311
  362DOPC   C4A 4248   9.525   2.832  11.728  0.0131  0.3602 -0.2366
  362DOPC   C1B 4249   8.086   2.976  11.579 -0.1108  0.0922 -0.0261
  362DOPC   D2B 4250   8.304   3.021  12.034 -0.3616  0.4112 -0.0006
  362DOPC   C3B 4251   7.963   2.709  12.241 -0.1181  0.3675 -0.0521
  362DOPC   C4B 4252   7.799   2.402  12.590  0.1433  0.0969 -0.0871
  363DOPE   NH3 4253   6.126   7.555  10.767 -0.2499 -0.1491  0.1426
  363DOPE   PO4 4254   6.345   7.551  11.033 -0.0051  0.2148  0.1090
  363DOPE   GL1 4255   6.485   7.349  11.358  0.0537  0.2199 -0.1993
  363DOPE   GL2 4256   6.212   7.281  11.463  0.0539 -0.1020  0.3084
  363DOPE   C1A 4257   6.549   7.429  11.853  0.2643 -0.0209  0.1107
  363DOPE   D2A 4258   6.624   7.247  12.251 -0.1787 -0.1721 -0.0722
  363DOPE   C3A 4259   6.286   7.070  12.506 -0.3716  0.1179 -0.4495
  363DOPE   C4A 4260   6.310   7.007  12.935 -0.0396  0.1566 -0.2923
  363DOPE   C1B 4261   6.162   7.017  11.853 -0.0286  0.1952 -0.0520
  363DOPE   D2B 4262   6.020   6.768  12.193 -0.2839  0.1023  0.3400
  363DOPE   C3B 4263   5.822   7.034  12.517 -0.0759  0.1397 -0.2044
  363DOPE   C4B 4264   5.741   7.040  12.957  0.0388 -0.3214  0.0075
  364DOPC   NC3 4265   6.624   7.112  10.929 -0.1499 -0.0526 -0.2666
  364DOPC   PO4 4266   6.484   6.868  11.227 -0.2252 -0.2705 -0.0166
  364DOPC   GL1 4267   6.526   6.873  11.599  0.0406 -0.3127 -0.1602
  364DOPC   GL2 4268   6.420   6.612  11.697 -0.0731 -0.1476 -0.0594
  364DOPC   C1A 4269   6.876   6.914  11.958 -0.2912  0.0623  0.1738
  364DOPC   D2A 4270   6.947   6.792  12.403 -0.0739 -0.1287 -0.1343
  364DOPC   C3A 4271   7.324   7.034  12.583  0.2239  0.1167 -0.2788
  364DOPC   C4A 4272   7.407   7.537  12.710 -0.0902  0.2262  0.1013
  364DOPC   C1B 4273   6.633   6.486  12.056  0.2337 -0.1355  0.1598
  364DOPC   D2B 4274   6.595   6.433  12.486  0.1777  0.2930  0.0493
  364DOPC   C3B 4275   6.179   6.516  12.682  0.0427  0.1960  0.0665
  364DOPC   C4B 4276   5.756   6.589  12.765  0.0363 -0.0487  0.1482
  365DOPC   NC3 4277   8.230   5.551  10.875 -0.1666  0.1549  0.0550
  365DOPC   PO4 4278   8.631   5.510  10.993  0.0526 -0.2587  0.0233
  365DOPC   GL1 4279   8.612   5.364  11.329  0.1455  0.0304 -0.0854
  365DOPC   GL2 4280   8.348   5.317  11.376 -0.2953 -0.0567 -0.1004
  365DOPC   C1A 4281   8.940   5.286  11.665 -0.1221 -0.4283  0.1883
  365DOPC   D2A 4282   8.947   5.368  12.126  0.2664 -0.0318  0.1047
  365DOPC   C3A 4283   8.892   5.089  12.543  0.2638  0.5225  0.3433
  365DOPC   C4A 4284   9.028   4.768  12.854 -0.1159  0.1593  0.2501
  365DOPC   C1B 4285   8.554   5.565  11.703 -0.0737 -0.0335  0.0493
  365DOPC   D2B 4286   8.445   5.956  11.972  0.1275 -0.0934 -0.0427
  365DOPC   C3B 4287   8.102   5.957  12.257 -0.2056  0.1528 -0.2456
  365DOPC   C4B 4288   7.842   5.690  12.496 -0.1397  0.1173  0.0297
  366DOPS   CNO 4289   8.914   9.457  11.206  0.2050 -0.2329  0.2534
  366DOPS   PO4 4290   9.183   9.288  11.407  0.2675 -0.3632  0.1329
  366DOPS   GL1 4291   9.098   9.473  11.828  0.1772 -0.0989  0.1518
  366DOPS   GL2 4292   9.201   9.188  11.950  0.0035  0.2971  0.3360
  366DOPS   C1A 4293   9.173   9.602  12.249 -0.1649  0.1575  0.1076
  366DOPS   D2A 4294   9.122   9.408  12.651  0.0593 -0.1008  0.0285
  366DOPS   C3A 4295   9.428   9.075  12.859 -0.0717 -0.2492 -0.0341
  366DOPS   C4A 4296   9.856   9.175  12.760 -0.1512  0.1948  0.0201
  366DOPS   C1B 4297   9.063   9.056  12.322  0.3565  0.0562  0.1430
  366DOPS   D2B 4298   8.811   9.022  12.737 -0.0043 -0.3141 -0.0795
  366DOPS   C3B 4299   8.339   9.050  12.712  0.0877  0.0098 -0.0437
  366DOPS   C4B 4300   7.911   9.187  12.943 -0.0348  0.1175 -0.1209
  367POSM   NC3 4301  10.281   0.426  10.970  0.0069 -0.0160 -0.3865
  367POSM   PO4 4302   9.954   0.283  10.842 -0.1086 -0.3315  0.1864
  367POSM   AM1 4303   9.878   0.356  11.181 -0.1497  0.0310 -0.1626
  367POSM   AM2 4304   9.829   0.605  11.294 -0.1101  0.0535  0.0009
  367POSM   T1A 4305   9.422   0.190  11.391 -0.2643  0.0185 -0.0830
  367POSM   C2A 4306   9.147  -0.159  11.516  0.1510 -0.4458  0.0235
  367POSM   C3A 4307   9.009  -0.282  11.943 -0.1719 -0.0165  0.0111
  367POSM   C1B 4308   9.780   0.520  11.607 -0.1621  0.2148 -0.0606
  367POSM   D2B 4309   9.838   0.612  12.023 -0.0094 -0.1232 -0.0608
  367POSM   C3B 4310   9.880   1.074  12.059 -0.2426 -0.1537 -0.1257
  367POSM   C4B 4311   9.905   1.371  12.352 -0.1383 -0.0653  0.1241
  368DOPS   CNO 4312  10.567   8.073  11.031 -0.0782 -0.0513 -0.1457
  368DOPS   PO4 4313  10.297   8.311  11.156 -0.1218 -0.0347  0.4930
  368DOPS   GL1 4314  10.329   8.315  11.569  0.1481  0.1500  0.0410
  368DOPS   GL2 4315  10.107   8.453  11.704  0.1993  0.1312 -0.0949
  368DOPS   C1A 4316  10.660   8.503  11.870 -0.0676 -0.1617  0.0952
  368DOPS   D2A 4317  10.857   8.649  12.259 -0.3472  0.1874  0.2146
  368DOPS   C3A 4318  10.468   8.491  12.444 -0.2408  0.1531  0.5014
  368DOPS   C4A 4319  10.421   8.275  12.850  0.0456 -0.1341  0.3337
  368DOPS   C1B 4320  10.068   8.403  12.173 -0.4495  0.0183  0.4320
  368DOPS   D2B 4321   9.733   8.158  12.435 -0.1531  0.0881  0.3060
  368DOPS   C3B 4322   9.898   8.097  12.876 -0.1455 -0.1090  0.0905
  368DOPS   C4B 4323   9.939   7.697  13.162  0.1621 -0.2710  0.2605
  369POSM   NC3 4324   1.694   4.217  10.909 -0.1283 -0.2509  0.0178
  369POSM   PO4 4325   2.100   4.158  10.967 -0.0120 -0.4396 -0.0235
  369POSM   AM1 4326   2.249   4.065  11.266  0.2782  0.2741 -0.0329
  369POSM   AM2 4327   2.144   4.154  11.533 -0.0799 -0.0637  0.1462
  369POSM   T1A 4328   2.291   3.708  11.625  0.0871  0.1650 -0.0567
  369POSM   C2A 4329   2.302   3.667  12.107  0.1576  0.1267 -0.0718
  369POSM   C3A 4330   2.068   3.383  12.512 -0.1504  0.1252  0.2612
  369POSM   C1B 4331   2.129   4.222  11.826 -0.1516 -0.1931 -0.1405
  369POSM   D2B 4332   2.006   4.191  12.261 -0.0992  0.1361  0.2025
  369POSM   C3B 4333   1.960   4.553  12.576  0.2295  0.1441 -0.1267
  369POSM   C4B 4334   2.005   4.616  13.082  0.3888  0.2348  0.0995
  370DOPC   NC3 4335   4.818   9.689  11.537 -0.2738  0.1346 -0.0367
  370DOPC   PO4 4336   4.857   9.406  11.231 -0.0740 -0.0382 -0.1566
  370DOPC   GL1 4337   5.000   9.153  11.494  0.1260 -0.0422 -0.1267
  370DOPC   GL2 4338   4.808   9.230  11.698  0.1974  0.0737 -0.0607
  370DOPC   C1A 4339   5.390   9.283  11.696 -0.1585  0.3116  0.2179
  370DOPC   D2A 4340   5.543   9.159  12.091  0.0609 -0.0020 -0.3534
  370DOPC   C3A 4341   5.542   8.812  12.411  0.0708  0.2345 -0.1218
  370DOPC   C4A 4342   5.572   8.342  12.524 -0.0454  0.0254  0.1184
  370DOPC   C1B 4343   4.673   8.962  12.058 -0.3369 -0.1613  0.1877
  370DOPC   D2B 4344   4.745   8.725  12.505 -0.1116  0.1777  0.0962
  370DOPC   C3B 4345   4.964   8.850  12.889 -0.1777 -0.1703  0.1018
  370DOPC   C4B 4346   4.945   8.879  13.358 -0.1741  0.1044  0.2629
  371DOPC   NC3 4347   9.916   2.602  10.227  0.5004  0.0821 -0.0014
  371DOPC   PO4 4348   9.983   2.690  10.647 -0.1037 -0.1030  0.1212
  371DOPC   GL1 4349  10.003   2.632  11.124 -0.1672  0.0121 -0.1697
  371DOPC   GL2 4350  10.289   2.605  11.153  0.3080 -0.3337 -0.2646
  371DOPC   C1A 4351   9.932   2.973  11.452  0.2414  0.1127  0.3076
  371DOPC   D2A 4352   9.843   3.285  11.786 -0.2332  0.1290  0.2828
  371DOPC   C3A 4353   9.610   3.234  12.160  0.2585 -0.5120  0.0957
  371DOPC   C4A 4354   9.643   3.085  12.561  0.1391 -0.1999  0.3161
  371DOPC   C1B 4355  10.443   2.573  11.578 -0.1849  0.0510  0.2344
  371DOPC   D2B 4356  10.810   2.507  11.833 -0.1566 -0.2838 -0.1975
  371DOPC   C3B 4357  10.821   2.274  12.207 -0.0502  0.1257 -0.1042
  371DOPC   C4B 4358  10.890   1.827  12.344  0.1215 -0.1862 -0.3409
  372DOPC   NC3 4359   5.247   0.243  10.737  0.1734  0.1449  0.1979
  372DOPC   PO4 4360   4.990   0.544  10.855  0.0741  0.0964  0.1649
  372DOPC   GL1 4361   4.897   0.819  11.238  0.1060  0.1291  0.1693
  372DOPC   GL2 4362   4.614   0.805  11.135  0.2169 -0.2932 -0.1907
  372DOPC   C1A 4363   5.040   0.993  11.660 -0.1903  0.3741 -0.1004
  372DOPC   D2A 4364   4.995   1.203  12.101  0.0277  0.1086  0.2357
  372DOPC   C3A 4365   4.902   1.622  12.207 -0.0397  0.0707 -0.2549
  372DOPC   C4A 4366   4.666   1.984  12.415  0.0423 -0.1570  0.3418
  372DOPC   C1B 4367   4.438   0.858  11.531 -0.2561  0.1294 -0.1287
  372DOPC   D2B 4368   4.469   0.791  11.997  0.0187  0.3351 -0.2502
  372DOPC   C3B 4369   4.478   1.209  12.293 -0.0991 -0.1176 -0.3470
  372DOPC   C4B 4370   4.514   1.547  12.562 -0.1578 -0.0434  0.1297
  373POSM   NC3 4371   7.491   9.340  11.415  0.6877 -0.0315  0.1109
  373POSM   PO4 4372   7.672   9.623  11.220 -0.3030 -0.1190  0.3430
  373POSM   AM1 4373   7.742   9.725  11.495 -0.2113  0.2030 -0.2343
  373POSM   AM2 4374   7.799   9.587  11.712  0.2103 -0.0124  0.3565
  373POSM   T1A 4375   7.724  10.032  11.854  0.3383  0.1328 -0.1919
  373POSM   C2A 4376   8.067  10.310  12.080 -0.0427 -0.3682  0.2171
  373POSM   C3A 4377   8.257  10.411  12.486 -0.1010 -0.1031  0.2541
  373POSM   C1B 4378   7.780   9.560  12.065  0.0042 -0.2309  0.0560
  373POSM   D2B 4379   7.968   9.349  12.484  0.1073  0.1872 -0.0965
  373POSM   C3B 4380   8.167   9.635  12.784 -0.1493  0.0404  0.2004
  373POSM   C4B 4381   8.111  10.061  12.980  0.0597 -0.0516 -0.0819
  374POSM   NC3 4382   0.553   4.371  10.597 -0.0906 -0.0883  0.2252
  374POSM   PO4 4383   0.397   4.752  10.605  0.2548  0.2774 -0.0575
  374POSM   AM1 4384   0.371   4.934  10.893 -0.0529 -0.2280  0.1347
  374POSM   AM2 4385   0.244   5.108  11.076  0.1104 -0.0280  0.2178
  374POSM   T1A 4386   0.571   5.022  11.371 -0.4010 -0.3150 -0.1128
  374POSM   C2A 4387   0.607   4.900  11.820 -0.1512 -0.0759  0.2108
  374POSM   C3A 4388   0.938   5.047  12.118  0.0007  0.1954 -0.0458
  374POSM   C1B 4389   0.035   5.039  11.338  0.0658  0.4697 -0.1024
  374POSM   D2B 4390  -0.217   4.731  11.502 -0.1516 -0.0019  0.0515
  374POSM   C3B 4391  -0.320   4.776  11.967 -0.0026  0.2388  0.0015
  374POSM   C4B 4392  -0.293   4.889  12.431  0.0226 -0.2015 -0.0486
  375DOPE   NH3 4393   3.951   4.968  11.506  0.0035  0.1707  0.2133
  375DOPE   PO4 4394   3.976   4.635  11.405 -0.1548 -0.4686  0.0965
  375DOPE   GL1 4395   3.983   4.655  11.854 -0.0877 -0.5398  0.0169
  375DOPE   GL2 4396   3.701   4.551  11.880 -0.0713  0.0097  0.2834
  375DOPE   C1A 4397   4.279   4.683  12.196 -0.0296 -0.0185  0.0148
  375DOPE   D2A 4398   4.514   4.770  12.613  0.0728  0.0207  0.2775
  375DOPE   C3A 4399   4.438   4.713  13.115 -0.0483  0.3252  0.3360
  375DOPE   C4A 4400   4.601   4.485  13.503 -0.1489  0.1748 -0.1241
  375DOPE   C1B 4401   3.777   4.654  12.349  0.0497 -0.2480  0.1320
  375DOPE   D2B 4402   3.803   4.863  12.754 -0.1313  0.2277 -0.1490
  375DOPE   C3B 4403   3.799   5.305  12.857  0.3500 -0.0321  0.1679
  375DOPE   C4B 4404   3.726   5.727  13.062 -0.0596 -0.2221 -0.1108
  376DOPS   CNO 4405   9.025   1.101  10.363  0.3008 -0.1872  0.0578
  376DOPS   PO4 4406   9.185   0.908  10.649 -0.0714 -0.0407  0.2985
  376DOPS   GL1 4407   9.113   0.923  11.070  0.1633  0.2205 -0.4945
  376DOPS   GL2 4408   8.871   1.144  11.164  0.4946  0.0188 -0.3217
  376DOPS   C1A 4409   9.287   0.689  11.410 -0.0375  0.2555 -0.2007
  376DOPS   D2A 4410   9.407   0.851  11.789 -0.0079  0.0008 -0.0390
  376DOPS   C3A 4411   9.189   0.602  12.064  0.2728 -0.0277  0.2981
  376DOPS   C4A 4412   9.102   0.371  12.524  0.0634  0.1001  0.1137
  376DOPS   C1B 4413   9.034   1.610  11.176  0.3511 -0.1190  0.0243
  376DOPS   D2B 4414   9.189   1.789  11.539  0.5392  0.0143 -0.0719
  376DOPS   C3B 4415   9.447   1.490  11.804 -0.0576 -0.0810 -0.0559
  376DOPS   C4B 4416   9.423   1.502  12.223 -0.1809  0.3437 -0.3387
  377DOPE   NH3 4417  11.939   7.550  10.883  0.3359  0.5007 -0.1590
  377DOPE   PO4 4418  11.924   7.774  11.078  0.4134 -0.0526  0.2345
  377DOPE   GL1 4419  11.730   7.787  11.399  0.1480 -0.3955  0.1324
  377DOPE   GL2 4420  11.635   8.043  11.423 -0.0184  0.2817 -0.0878
  377DOPE   C1A 4421  11.462   7.591  11.750  0.0594 -0.0002  0.0146
  377DOPE   D2A 4422  11.223   7.642  12.196  0.0428  0.2080 -0.1270
  377DOPE   C3A 4423  11.458   7.617  12.601  0.2588  0.2379  0.0747
  377DOPE   C4A 4424  11.308   7.694  12.996 -0.1023  0.1576  0.0219
  377DOPE   C1B 4425  11.880   8.073  11.812 -0.1658  0.1596  0.1690
  377DOPE   D2B 4426  12.195   7.875  12.067 -0.4473 -0.1558  0.2035
  377DOPE   C3B 4427  11.944   7.839  12.432 -0.1269 -0.0173  0.1131
  377DOPE   C4B 4428  11.958   7.802  12.917  0.1580  0.3070  0.0669
  378DOPC   NC3 4429   0.172   7.338  11.024  0.2370  0.0092  0.0587
  378DOPC   PO4 4430   0.532   7.480  10.956  0.0669 -0.1743  0.2702
  378DOPC   GL1 4431   0.536   7.175  11.250 -0.0446  0.0353  0.1143
  378DOPC   GL2 4432   0.516   6.912  11.145 -0.2939 -0.1495 -0.2183
  378DOPC   C1A 4433   0.807   7.284  11.649 -0.0013  0.0080  0.3784
  378DOPC   D2A 4434   1.058   7.197  12.016  0.1487  0.1640 -0.0908
  378DOPC   C3A 4435   1.219   7.532  12.226  0.0538  0.0591 -0.1997
  378DOPC   C4A 4436   1.392   7.927  12.431  0.0604 -0.0049  0.1197
  378DOPC   C1B 4437   0.448   6.842  11.601  0.2852  0.2377  0.1473
  378DOPC   D2B 4438   0.086   6.857  11.846 -0.2642 -0.2018  0.5271
  378DOPC   C3B 4439   0.154   6.833  12.297 -0.1001 -0.1761 -0.1255
  378DOPC   C4B 4440   0.446   6.943  12.726  0.3438  0.0170  0.1708
  379DOPC   NC3 4441   4.880   2.499  11.145 -0.2722 -0.1497 -0.1558
  379DOPC   PO4 4442   4.527   2.673  11.064  0.4558  0.2627  0.0854
  379DOPC   GL1 4443   4.457   2.762  11.482  0.1289 -0.2209  0.2725
  379DOPC   GL2 4444   4.699   2.621  11.683 -0.1617 -0.0900  0.0265
  379DOPC   C1A 4445   4.221   2.832  11.902 -0.0138  0.0161 -0.0241
  379DOPC   D2A 4446   4.152   2.806  12.357 -0.0606 -0.2245 -0.0136
  379DOPC   C3A 4447   4.051   2.362  12.452  0.2110 -0.2587  0.0039
  379DOPC   C4A 4448   4.186   1.971  12.546 -0.1718  0.1801 -0.0508
  379DOPC   C1B 4449   4.868   2.447  12.039  0.1256 -0.6528 -0.0412
  379DOPC   D2B 4450   5.072   2.383  12.472  0.0539 -0.2373 -0.1305
  379DOPC   C3B 4451   4.887   2.190  12.825 -0.2473 -0.0097 -0.2351
  379DOPC   C4B 4452   4.571   1.842  12.961  0.0305 -0.3030 -0.1060
  380POSM   NC3 4453  10.608   4.009  11.018  0.1572 -0.1295  0.2577
  380POSM   PO4 4454  10.954   3.925  11.018  0.0738  0.1880 -0.1382
  380POSM   AM1 4455  10.886   3.760  11.292  0.0349  0.1520 -0.3574
  380POSM   AM2 4456  10.650   3.697  11.434  0.3345  0.0661  0.0542
  380POSM   T1A 4457  11.017   3.800  11.763  0.2648 -0.0450 -0.0640
  380POSM   C2A 4458  10.969   3.919  12.164 -0.2668  0.1489 -0.1347
  380POSM   C3A 4459  10.718   4.107  12.469 -0.0314  0.1431 -0.1420
  380POSM   C1B 4460  10.542   3.748  11.735 -0.3569 -0.0276  0.2779
  380POSM   D2B 4461  10.428   3.923  12.137 -0.1233 -0.1185  0.0474
  380POSM   C3B 4462  10.298   3.849  12.576  0.1254  0.0626  0.1764
  380POSM   C4B 4463  10.310   3.579  12.923  0.0869 -0.0511  0.0922
  381POSM   NC3 4464   1.335  10.785  11.642  0.0201  0.1005 -0.0310
  381POSM   PO4 4465   1.308  11.164  11.572 -0.0705  0.1077  0.2369
  381POSM   AM1 4466   1.456  11.240  11.858  0.1292  0.0347  0.3083
  381POSM   AM2 4467   1.304  11.176  12.094  0.0125 -0.1881 -0.3152
  381POSM   T1A 4468   1.630  11.459  12.273  0.2268  0.2470  0.4134
  381POSM   C2A 4469   1.465  11.852  12.428  0.0238  0.1059  0.1988
  381POSM   C3A 4470   1.704  12.155  12.705 -0.1184 -0.1098  0.2905
  381POSM   C1B 4471   1.269  11.094  12.367 -0.0464 -0.4587 -0.1621
  381POSM   D2B 4472   0.986  11.092  12.651 -0.1245  0.1044  0.1908
  381POSM   C3B 4473   1.137  11.201  13.078  0.2283  0.3588 -0.1009
  381POSM   C4B 4474   1.439  11.312  13.416 -0.3418  0.2669 -0.0041
  382DOPS   CNO 4475   6.087  34.273  10.528  0.2335  0.0756 -0.3803
  382DOPS   PO4 4476   6.290  33.967  10.603  0.1354  0.0779  0.0262
  382DOPS   GL1 4477   6.206  33.900  10.958  0.0117  0.3889  0.2431
  382DOPS   GL2 4478   6.024  34.136  11.070  0.0369 -0.0215  0.0725
  382DOPS   C1A 4479   6.336  33.892  11.407 -0.1466 -0.2852 -0.2011
  382DOPS   D2A 4480   6.450  33.709  11.821 -0.0958  0.1003  0.1065
  382DOPS   C3A 4481   6.876  33.573  11.978 -0.0381 -0.2644  0.0329
  382DOPS   C4A 4482   7.212  33.302  12.118  0.0581 -0.0066 -0.0717
  382DOPS   C1B 4483   5.664  33.892  11.266 -0.2746 -0.2483 -0.1990
  382DOPS   D2B 4484   5.497  34.022  11.729  0.0651  0.0942  0.2420
  382DOPS   C3B 4485   5.346  34.509  11.693  0.3004 -0.2961  0.4035
  382DOPS   C4B 4486   5.166  34.965  11.740  0.0948  0.0539 -0.0109
  383POSM   NC3 4487   3.133   3.271  10.723  0.3272 -0.0393 -0.3397
  383POSM   PO4 4488   3.138   2.970  11.010  0.0942 -0.0822 -0.2130
  383POSM   AM1 4489   2.918   2.950  11.271  0.0193  0.0624  0.3012
  383POSM   AM2 4490   2.851   2.800  11.490  0.0215 -0.1931 -0.1649
  383POSM   T1A 4491   2.397   2.917  11.339 -0.0011 -0.1715 -0.0680
  383POSM   C2A 4492   2.114   2.753  11.587 -0.0131  0.0706  0.2457
  383POSM   C3A 4493   2.062   2.663  12.038 -0.0735  0.1866  0.0334
  383POSM   C1B 4494   2.718   2.819  11.806  0.0639  0.1532 -0.0902
  383POSM   D2B 4495   2.583   2.571  12.186  0.1517 -0.1890 -0.1220
  383POSM   C3B 4496   2.416   2.602  12.586 -0.0866 -0.0357  0.0429
  383POSM   C4B 4497   2.159   2.305  12.846 -0.0363 -0.2368  0.1987
  384DOPE   NH3 4498   6.332   9.115  11.041 -0.1558 -0.0277 -0.0399
  384DOPE   PO4 4499   6.423   9.375  10.908  0.1371 -0.0691  0.0704
  384DOPE   GL1 4500   6.512   9.399  11.356  0.2527 -0.1095  0.1943
  384DOPE   GL2 4501   6.241   9.334  11.489 -0.1508  0.0945 -0.2355
  384DOPE   C1A 4502   6.748   9.356  11.780 -0.2344  0.1651  0.1660
  384DOPE   D2A 4503   6.878   9.269  12.188  0.1513  0.2875  0.4115
  384DOPE   C3A 4504   6.947   9.336  12.651  0.1933 -0.2589  0.2803
  384DOPE   C4A 4505   6.842   9.442  13.113 -0.0542 -0.0024  0.0939
  384DOPE   C1B 4506   6.305   9.282  11.986  0.1540  0.0467 -0.1486
  384DOPE   D2B 4507   6.234   9.134  12.420  0.0820 -0.0748 -0.3530
  384DOPE   C3B 4508   5.790   9.299  12.653  0.1293 -0.0789  0.1539
  384DOPE   C4B 4509   5.627   9.475  13.061 -0.0412  0.2172  0.1766
  385DOPE   NH3 4510   2.802   2.056  10.723  0.2461  0.0298  0.0399
  385DOPE   PO4 4511   3.108   2.030  10.823 -0.0181  0.0685 -0.0142
  385DOPE   GL1 4512   3.011   2.122  11.214 -0.1098 -0.1272 -0.1224
  385DOPE   GL2 4513   3.099   2.294  11.430 -0.1676  0.2093  0.2665
  385DOPE   C1A 4514   2.737   1.943  11.580 -0.0062  0.0372  0.0747
  385DOPE   D2A 4515   2.333   1.878  11.796 -0.1146 -0.1029  0.0253
  385DOPE   C3A 4516   2.136   1.450  11.764 -0.1277  0.4023  0.0664
  385DOPE   C4A 4517   1.725   1.258  11.814  0.1532  0.0422  0.3637
  385DOPE   C1B 4518   2.971   2.389  11.914  0.0697  0.2310  0.0006
  385DOPE   D2B 4519   3.191   2.494  12.338  0.0289  0.1346  0.2881
  385DOPE   C3B 4520   2.975   2.321  12.686  0.1108 -0.2419  0.2669
  385DOPE   C4B 4521   2.988   2.030  13.016  0.1573  0.0277 -0.4251
  386DOPE   NH3 4522   0.975   2.857  10.335 -0.3024  0.1813  0.0627
  386DOPE   PO4 4523   1.206   3.024  10.499  0.3176 -0.1792 -0.2954
  386DOPE   GL1 4524   1.118   2.914  10.846 -0.2846  0.4307  0.2366
  386DOPE   GL2 4525   0.927   2.636  10.910  0.0250 -0.0817 -0.0513
  386DOPE   C1A 4526   1.002   3.137  11.223 -0.2422  0.2722 -0.1522
  386DOPE   D2A 4527   0.977   3.186  11.730 -0.0238  0.3562 -0.2987
  386DOPE   C3A 4528   1.020   3.374  12.200  0.2634 -0.0798  0.1441
  386DOPE   C4A 4529   1.429   3.306  12.514  0.0019 -0.2639  0.0137
  386DOPE   C1B 4530   0.936   2.462  11.351 -0.1136 -0.3007  0.1677
  386DOPE   D2B 4531   0.890   2.489  11.773 -0.1382 -0.1986 -0.3101
  386DOPE   C3B 4532   0.771   2.145  12.087 -0.5349  0.1227 -0.0072
  386DOPE   C4B 4533   1.001   1.859  12.283  0.0828  0.0562 -0.1136
  387DOPS   CNO 4534   0.977   4.407  10.171 -0.0124  0.0545  0.1819
  387DOPS   PO4 4535   0.885   4.104  10.366 -0.0067  0.1010  0.0138
  387DOPS   GL1 4536   0.823   3.871  10.710 -0.2966  0.1858 -0.2176
  387DOPS   GL2 4537   0.809   4.063  10.949  0.0076 -0.0072  0.2816
  387DOPS   C1A 4538   0.874   3.611  11.103 -0.5537  0.1899 -0.0480
  387DOPS   D2A 4539   0.599   3.390  11.431  0.0764 -0.0135  0.1091
  387DOPS   C3A 4540   0.515   3.299  11.878 -0.2970 -0.3322  0.0831
  387DOPS   C4A 4541   0.554   3.534  12.325 -0.0105 -0.1589  0.0385
  387DOPS   C1B 4542   0.549   4.018  11.313  0.1678  0.0323  0.0188
  387DOPS   D2B 4543   0.447   3.898  11.759  0.1798  0.2873 -0.1176
  387DOPS   C3B 4544   0.801   3.806  12.003 -0.1291 -0.2963 -0.1739
  387DOPS   C4B 4545   1.270   3.834  12.146  0.0832 -0.3870  0.0898
  388POSM   NC3 4546   9.446   2.081  10.276 -0.0331  0.2614  0.2159
  388POSM   PO4 4547   9.543   2.391  10.530 -0.0586  0.1408  0.1059
  388POSM   AM1 4548   9.348   2.542  10.787 -0.2774 -0.4314  0.0924
  388POSM   AM2 4549   9.287   2.734  11.019  0.0897  0.1275  0.1040
  388POSM   T1A 4550   8.898   2.500  11.042 -0.2912 -0.1976 -0.0391
  388POSM   C2A 4551   8.631   2.474  11.400 -0.2074 -0.0928  0.0709
  388POSM   C3A 4552   8.233   2.527  11.590  0.1305 -0.0160  0.0344
  388POSM   C1B 4553   9.473   2.634  11.258  0.0190 -0.0403  0.3170
  388POSM   D2B 4554   9.796   2.443  11.502  0.2470 -0.0042  0.0727
  388POSM   C3B 4555  10.038   2.618  11.880  0.2496 -0.0068  0.1063
  388POSM   C4B 4556  10.427   2.651  12.178 -0.0011  0.0807  0.1480
  389POSM   NC3 4557   8.816   6.745  11.091 -0.4123 -0.0947 -0.1137
  389POSM   PO4 4558   8.657   6.486  10.877 -0.3024  0.0607  0.5268
  389POSM   AM1 4559   8.586   6.359  11.159 -0.7087  0.2341  0.3081
  389POSM   AM2 4560   8.720   6.333  11.393 -0.0302 -0.2297  0.1326
  389POSM   T1A 4561   8.263   6.218  11.541  0.0522 -0.2839 -0.1219
  389POSM   C2A 4562   7.997   6.353  11.895  0.3139  0.0905  0.0295
  389POSM   C3A 4563   7.622   6.108  12.212  0.1605 -0.0774  0.1207
  389POSM   C1B 4564   8.807   6.101  11.581 -0.2194 -0.1406  0.3804
  389POSM   D2B 4565   9.036   6.014  11.956 -0.0894  0.1403 -0.4226
  389POSM   C3B 4566   8.880   6.019  12.366  0.0927  0.0093  0.0292
  389POSM   C4B 4567   8.529   6.146  12.574 -0.0620  0.1448 -0.1714
  390DOPE   NH3 4568  10.453   1.420  10.657  0.1945 -0.2078 -0.0592
  390DOPE   PO4 4569  10.181   1.653  10.610  0.1590 -0.0183 -0.0033
  390DOPE   GL1 4570   9.948   1.654  10.963 -0.1688  0.3819 -0.1146
  390DOPE   GL2 4571  10.133   1.516  11.107  0.4056  0.0540 -0.0179
  390DOPE   C1A 4572   9.887   1.973  11.309  0.1147 -0.0334 -0.2574
  390DOPE   D2A 4573   9.678   1.923  11.753  0.1736 -0.1444  0.0309
  390DOPE   C3A 4574   9.657   2.381  11.952  0.0662  0.0778  0.1210
  390DOPE   C4A 4575   9.737   2.735  12.203  0.1795 -0.2081 -0.1153
  390DOPE   C1B 4576  10.314   1.517  11.520  0.2947  0.1792  0.0642
  390DOPE   D2B 4577   9.994   1.585  11.874 -0.3557  0.2739 -0.0357
  390DOPE   C3B 4578   9.847   1.880  12.228  0.1564  0.1473 -0.0213
  390DOPE   C4B 4579   9.534   1.904  12.524 -0.1229 -0.3735  0.0902
  391DOPS   CNO 4580   1.317  12.966  11.802 -0.1617  0.1826 -0.0550
  391DOPS   PO4 4581   1.233  12.602  11.844 -0.1120 -0.1915 -0.1537
  391DOPS   GL1 4582   1.200  12.580  12.258  0.0777  0.0001  0.1484
  391DOPS   GL2 4583   1.298  12.311  12.310  0.3738  0.2523  0.1544
  391DOPS   C1A 4584   1.459  12.714  12.660 -0.2045  0.3679 -0.1187
  391DOPS   D2A 4585   1.533  12.480  13.014  0.2841  0.0230 -0.3443
  391DOPS   C3A 4586   1.420  12.295  13.408  0.0415  0.3961 -0.3036
  391DOPS   C4A 4587   1.321  12.309  13.834  0.1292  0.1810  0.1214
  391DOPS   C1B 4588   1.175  12.238  12.724  0.1415 -0.2474 -0.0516
  391DOPS   D2B 4589   1.331  11.955  13.002  0.0241  0.0966  0.0248
  391DOPS   C3B 4590   1.176  11.746  13.461  0.2646  0.2793  0.1520
  391DOPS   C4B 4591   1.225  11.580  13.827 -0.0219  0.0185  0.0906
  392DOPE   NH3 4592   8.239   9.003  10.825  0.0629  0.2595  0.0384
  392DOPE   PO4 4593   8.090   8.831  11.017  0.1930  0.1887 -0.1174
  392DOPE   GL1 4594   8.257   8.840  11.374 -0.1439  0.0355  0.3273
  392DOPE   GL2 4595   8.192   8.598  11.475 -0.1367  0.1791 -0.1353
  392DOPE   C1A 4596   8.108   9.065  11.787  0.2247  0.1476 -0.0404
  392DOPE   D2A 4597   7.650   9.092  11.884 -0.2240 -0.0715  0.1105
  392DOPE   C3A 4598   7.569   9.112  12.336 -0.0565 -0.1305  0.0007
  392DOPE   C4A 4599   7.388   9.207  12.731  0.4118  0.2770 -0.2191
  392DOPE   C1B 4600   8.302   8.191  11.619 -0.1095  0.1237 -0.3544
  392DOPE   D2B 4601   8.347   7.843  11.921  0.2539 -0.0515 -0.1163
  392DOPE   C3B 4602   8.744   7.678  12.060 -0.3439  0.0163 -0.0874
  392DOPE   C4B 4603   9.061   7.397  12.293 -0.0270  0.0386 -0.0272
  393POSM   NC3 4604  34.546   3.078  10.810  0.1832  0.0468 -0.1996
  393POSM   PO4 4605  34.665   2.695  10.726  0.0385  0.1462 -0.1488
  393POSM   AM1 4606  34.592   2.685  11.003  0.0013  0.2776  0.5068
  393POSM   AM2 4607  34.446   2.731  11.233  0.0917  0.1815 -0.1145
  393POSM   T1A 4608  34.592   2.267  11.296 -0.3536 -0.1662  0.1545
  393POSM   C2A 4609  34.329   1.855  11.249  0.0312 -0.0471  0.1031
  393POSM   C3A 4610  33.954   1.645  11.158 -0.1664 -0.0781 -0.3165
  393POSM   C1B 4611  34.402   2.735  11.517 -0.1235  0.1152 -0.2891
  393POSM   D2B 4612  34.475   2.432  11.861 -0.0390  0.2996 -0.0476
  393POSM   C3B 4613  34.710   2.010  11.693 -0.1323 -0.2394 -0.2872
  393POSM   C4B 4614  34.610   1.587  11.803  0.2552 -0.1273  0.2150
  394POSM   NC3 4615   3.799  11.162  11.645  0.1598 -0.1942 -0.2532
  394POSM   PO4 4616   4.143  11.088  11.464  0.2469 -0.4171  0.1993
  394POSM   AM1 4617   4.215  11.006  11.742  0.0357 -0.0739 -0.0230
  394POSM   AM2 4618   4.445  10.991  11.911 -0.0783 -0.0490 -0.0413
  394POSM   T1A 4619   4.066  11.025  12.273 -0.0565  0.2567 -0.0076
  394POSM   C2A 4620   4.046  11.021  12.779  0.2110  0.2176  0.1643
  394POSM   C3A 4621   3.764  10.767  13.041  0.2683 -0.1872 -0.2233
  394POSM   C1B 4622   4.517  10.864  12.239  0.0006  0.1914  0.1047
  394POSM   D2B 4623   4.326  10.676  12.587  0.0747 -0.0551  0.0488
  394POSM   C3B 4624   4.271  10.702  13.075  0.4512  0.0938  0.1716
  394POSM   C4B 4625   4.143  10.379  13.361  0.2412  0.0104  0.0786
  395DOPC   NC3 4626   2.520   7.264  10.910 -0.2927 -0.1792  0.3768
  395DOPC   PO4 4627   2.722   7.558  11.123 -0.0390  0.0401  0.0828
  395DOPC   GL1 4628   2.591   7.596  11.471 -0.0673  0.0193 -0.2381
  395DOPC   GL2 4629   2.559   7.794  11.567 -0.0638  0.0157 -0.1648
  395DOPC   C1A 4630   2.320   7.475  11.820  0.2083  0.1108  0.2259
  395DOPC   D2A 4631   2.110   7.130  12.002 -0.0891 -0.1645  0.0996
  395DOPC   C3A 4632   2.275   6.864  12.299  0.1978 -0.2608  0.0068
  395DOPC   C4A 4633   2.560   6.656  12.627 -0.0145  0.1126 -0.0863
  395DOPC   C1B 4634   2.882   7.842  11.894 -0.2102  0.0420  0.3567
  395DOPC   D2B 4635   3.343   7.959  12.121  0.0142  0.2108  0.2269
  395DOPC   C3B 4636   3.532   7.621  12.425 -0.1713 -0.2146 -0.1266
  395DOPC   C4B 4637   3.763   7.462  12.869  0.0017 -0.4483  0.1265
  396POSM   NC3 4638   0.408   8.761  11.292 -0.2913  0.0519 -0.1245
  396POSM   PO4 4639   0.577   8.407  11.165 -0.0204  0.2873 -0.3277
  396POSM   AM1 4640   0.660   8.284  11.475 -0.2174 -0.2110 -0.1539
  396POSM   AM2 4641   0.575   8.333  11.748  0.0412 -0.1383 -0.0352
  396POSM   T1A 4642   0.713   7.869  11.771 -0.2038 -0.1907  0.0545
  396POSM   C2A 4643   0.742   7.539  12.097  0.1041  0.0820 -0.2063
  396POSM   C3A 4644   0.865   7.251  12.462  0.0304 -0.4324  0.1475
  396POSM   C1B 4645   0.453   8.226  12.056 -0.1301  0.2905 -0.0113
  396POSM   D2B 4646   0.464   8.225  12.476  0.0104 -0.0760 -0.0320
  396POSM   C3B 4647   0.119   8.153  12.655  0.1400  0.1719  0.1844
  396POSM   C4B 4648  -0.326   8.169  12.864 -0.3048 -0.1085  0.1662
  397DOPE   NH3 4649   3.152   4.611  11.474 -0.1073  0.0670 -0.2181
  397DOPE   PO4 4650   3.139   4.856  11.688 -0.3409 -0.0051 -0.0148
  397DOPE   GL1 4651   2.992   4.973  12.025 -0.0481 -0.2239 -0.1782
  397DOPE   GL2 4652   2.877   4.714  12.094  0.1093 -0.1791 -0.0712
  397DOPE   C1A 4653   3.050   4.948  12.482 -0.0857  0.1246  0.0784
  397DOPE   D2A 4654   2.897   5.111  12.912 -0.1810  0.3009 -0.0559
  397DOPE   C3A 4655   2.791   4.949  13.345 -0.1578 -0.0528  0.1347
  397DOPE   C4A 4656   2.585   4.948  13.682 -0.0654  0.0209 -0.1873
  397DOPE   C1B 4657   2.564   4.976  12.310  0.4069 -0.0879 -0.4283
  397DOPE   D2B 4658   2.525   5.258  12.536  0.0040 -0.2190  0.2224
  397DOPE   C3B 4659   2.132   5.528  12.620  0.0265 -0.5719  0.0137
  397DOPE   C4B 4660   1.653   5.560  12.729  0.0501  0.0645  0.1355
  398DOPS   CNO 4661   4.527   6.654  11.313  0.0288  0.2816 -0.0902
  398DOPS   PO4 4662   4.661   6.437  11.566  0.0453  0.2129 -0.0302
  398DOPS   GL1 4663   4.521   6.330  11.909 -0.0909 -0.1503  0.0544
  398DOPS   GL2 4664   4.350   6.019  11.853  0.1617  0.0336 -0.1385
  398DOPS   C1A 4665   4.284   6.579  12.218 -0.1376  0.0016 -0.1600
  398DOPS   D2A 4666   4.331   6.641  12.655 -0.0155 -0.1978 -0.1916
  398DOPS   C3A 4667   4.254   6.401  13.061 -0.3392 -0.3147 -0.3494
  398DOPS   C4A 4668   4.193   6.045  13.325 -0.3132 -0.0843  0.3753
  398DOPS   C1B 4669   4.284   5.582  12.035 -0.0505  0.0857 -0.0884
  398DOPS   D2B 4670   4.437   5.277  12.398  0.0179 -0.1825  0.0101
  398DOPS   C3B 4671   4.342   5.209  12.841  0.1632 -0.0270  0.2121
  398DOPS   C4B 4672   4.052   5.024  13.203  0.1629 -0.3559 -0.0594
  399DOPC   NC3 4673   2.751   6.314  11.170  0.0034 -0.0722 -0.1837
  399DOPC   PO4 4674   2.760   5.913  11.339 -0.1668 -0.1609 -0.0463
  399DOPC   GL1 4675   2.804   5.694  11.711  0.1108  0.1143 -0.1018
  399DOPC   GL2 4676   2.506   5.804  11.812 -0.0301 -0.1581  0.1266
  399DOPC   C1A 4677   2.838   5.552  12.169  0.0471 -0.0968 -0.0905
  399DOPC   D2A 4678   2.908   5.764  12.592  0.2202 -0.0872  0.0747
  399DOPC   C3A 4679   3.290   5.976  12.796  0.0442 -0.1075  0.0462
  399DOPC   C4A 4680   3.314   6.123  13.231 -0.2919 -0.0807 -0.0020
  399DOPC   C1B 4681   2.426   5.860  12.252 -0.0637  0.2837 -0.0369
  399DOPC   D2B 4682   2.493   5.978  12.710  0.0265 -0.0057 -0.1636
  399DOPC   C3B 4683   2.357   5.886  13.124 -0.1160 -0.0672 -0.3140
  399DOPC   C4B 4684   2.465   5.848  13.549 -0.0899 -0.0708  0.0519
  400DOPC   NC3 4685  11.509   8.324  11.019 -0.0635 -0.2839  0.1721
  400DOPC   PO4 4686  11.238   8.061  11.100 -0.0855  0.0133  0.1118
  400DOPC   GL1 4687  11.075   8.017  11.437  0.0808 -0.1889  0.1086
  400DOPC   GL2 4688  10.850   8.237  11.469  0.0053 -0.3756 -0.2113
  400DOPC   C1A 4689  11.299   8.030  11.809 -0.0872  0.0303 -0.1534
  400DOPC   D2A 4690  11.513   8.071  12.212 -0.1298 -0.1076 -0.2649
  400DOPC   C3A 4691  11.313   8.076  12.692  0.2926  0.0891  0.2872
  400DOPC   C4A 4692  11.362   8.467  12.982 -0.0870  0.0693  0.2071
  400DOPC   C1B 4693  10.741   7.995  11.820  0.0397  0.1668 -0.0873
  400DOPC   D2B 4694  10.607   8.053  12.240 -0.1079  0.0061 -0.0830
  400DOPC   C3B 4695  10.891   7.851  12.533 -0.0940 -0.1487 -0.0345
  400DOPC   C4B 4696  10.803   7.880  12.991  0.0228 -0.0144 -0.2040
  401DOPC   NC3 4697   3.821   5.794  12.123 -0.1490  0.0584 -0.0325
  401DOPC   PO4 4698   3.609   5.674  11.819 -0.1967  0.1532  0.0411
  401DOPC   GL1 4699   3.328   5.927  12.006 -0.0288  0.2136 -0.0712
  401DOPC   GL2 4700   3.341   5.771  12.300  0.3446 -0.3536 -0.1493
  401DOPC   C1A 4701   2.998   6.138  12.233  0.0454 -0.2468  0.1505
  401DOPC   D2A 4702   2.932   6.345  12.659  0.2483  0.0539 -0.2295
  401DOPC   C3A 4703   2.824   6.130  13.026 -0.1260 -0.0212 -0.0427
  401DOPC   C4A 4704   2.912   6.019  13.463 -0.0778  0.0270 -0.1270
  401DOPC   C1B 4705   3.646   5.667  12.576  0.0224  0.2900  0.0927
  401DOPC   D2B 4706   4.069   5.646  12.600 -0.2007 -0.0389  0.0656
  401DOPC   C3B 4707   4.256   5.620  13.046 -0.0688  0.1539 -0.0827
  401DOPC   C4B 4708   4.549   5.676  13.486 -0.2568 -0.0918  0.2544
  402DOPS   CNO 4709   6.205   8.245  10.672 -0.1401 -0.0202 -0.2568
  402DOPS   PO4 4710   6.184   8.033  10.944  0.0828 -0.2776  0.2726
  402DOPS   GL1 4711   6.407   7.878  11.352 -0.1023 -0.0350 -0.0027
  402DOPS   GL2 4712   6.118   7.805  11.402 -0.2389  0.2531  0.1083
  402DOPS   C1A 4713   6.701   7.934  11.723 -0.0033 -0.0771 -0.0069
  402DOPS   D2A 4714   6.968   7.879  12.117  0.1984  0.0502 -0.1518
  402DOPS   C3A 4715   6.963   7.707  12.537 -0.0099  0.1897  0.1174
  402DOPS   C4A 4716   6.835   7.741  12.975  0.1098  0.0134 -0.1774
  402DOPS   C1B 4717   6.173   8.166  11.665  0.0691 -0.0033 -0.1582
  402DOPS   D2B 4718   6.355   8.376  12.055 -0.0273  0.3993 -0.0447
  402DOPS   C3B 4719   6.405   8.295  12.538 -0.0517  0.0149  0.0013
  402DOPS   C4B 4720   6.376   8.000  12.885 -0.1417 -0.2840  0.1194
  403POSM   NC3 4721   1.820   3.687  10.404 -0.1963 -0.2265 -0.0687
  403POSM   PO4 4722   1.830   3.753  10.765  0.0824 -0.1655 -0.0359
  403POSM   AM1 4723   1.835   3.828  11.104 -0.2443  0.3436 -0.1721
  403POSM   AM2 4724   1.828   3.804  11.394  0.0274 -0.0661 -0.2248
  403POSM   T1A 4725   1.620   4.226  11.400 -0.1088  0.0533  0.2116
  403POSM   C2A 4726   1.577   4.309  11.852 -0.0228  0.2577  0.0381
  403POSM   C3A 4727   1.538   4.421  12.314  0.0901  0.1362 -0.1029
  403POSM   C1B 4728   1.750   3.723  11.739 -0.0423 -0.1576 -0.0090
  403POSM   D2B 4729   1.797   3.746  12.215  0.0598  0.1006  0.1411
  403POSM   C3B 4730   1.639   4.024  12.546 -0.0526 -0.0901  0.1027
  403POSM   C4B 4731   1.770   4.181  12.986 -0.1628 -0.0330  0.1538
  404POSM   NC3 4732   6.847   9.618  10.854  0.1093 -0.0409  0.0792
  404POSM   PO4 4733   6.783   9.804  11.226 -0.0025  0.1249  0.0021
  404POSM   AM1 4734   6.518   9.893  11.402 -0.1913 -0.0073  0.0903
  404POSM   AM2 4735   6.255   9.912  11.390 -0.0803 -0.3502  0.3059
  404POSM   T1A 4736   6.439   9.780  11.881 -0.1921  0.2938 -0.0486
  404POSM   C2A 4737   6.515   9.603  12.329 -0.1293 -0.1422  0.0615
  404POSM   C3A 4738   6.451   9.557  12.794 -0.0440 -0.1318  0.0289
  404POSM   C1B 4739   6.034   9.927  11.659 -0.2930 -0.0462 -0.1324
  404POSM   D2B 4740   6.001   9.926  12.133  0.2559 -0.0448 -0.0382
  404POSM   C3B 4741   5.657  10.184  12.288 -0.0279 -0.0662 -0.1256
  404POSM   C4B 4742   5.652  10.500  12.641  0.2029 -0.1442 -0.6902
  405DOPE   NH3 4743  32.665   6.808  10.622 -0.2095  0.2236  0.1047
  405DOPE   PO4 4744  32.600   6.584  10.507 -0.1398  0.3416 -0.0815
  405DOPE   GL1 4745  32.399   6.584  10.855  0.0173  0.0177 -0.1796
  405DOPE   GL2 4746  32.329   6.332  10.949  0.1434 -0.0789  0.2228
  405DOPE   C1A 4747  32.178   6.710  11.247 -0.0338  0.1061  0.2981
  405DOPE   D2A 4748  32.027   6.672  11.676 -0.5655 -0.2031 -0.2024
  405DOPE   C3A 4749  32.136   6.997  11.958  0.1320  0.1512  0.0045
  405DOPE   C4A 4750  31.942   7.361  12.151  0.0330  0.1714 -0.0807
  405DOPE   C1B 4751  32.545   6.080  11.282 -0.1412 -0.2073  0.0034
  405DOPE   D2B 4752  32.600   5.895  11.738 -0.0595  0.0004  0.1958
  405DOPE   C3B 4753  32.275   5.759  12.098  0.1547 -0.2774 -0.2649
  405DOPE   C4B 4754  32.202   5.743  12.539  0.0961 -0.2094  0.1536
  406DOPC   NC3 4755   7.138   0.364  11.239  0.0268 -0.0917  0.0797
  406DOPC   PO4 4756   7.185   0.756  11.279 -0.1940  0.0307  0.2180
  406DOPC   GL1 4757   6.858   0.801  11.332 -0.1002  0.0543 -0.3511
  406DOPC   GL2 4758   6.850   1.060  11.509 -0.0061  0.1824 -0.0833
  406DOPC   C1A 4759   6.468   0.726  11.661  0.5039  0.1095 -0.2702
  406DOPC   D2A 4760   6.220   0.885  12.095  0.2376  0.3206 -0.1311
  406DOPC   C3A 4761   6.429   1.080  12.466  0.4649 -0.0010 -0.1648
  406DOPC   C4A 4762   6.494   1.289  12.840 -0.1109  0.1866 -0.0635
  406DOPC   C1B 4763   6.901   0.856  11.899  0.1136 -0.0760  0.0236
  406DOPC   D2B 4764   6.924   0.959  12.376 -0.0333 -0.1517  0.0568
  406DOPC   C3B 4765   7.123   0.757  12.728 -0.0195  0.3569 -0.0040
  406DOPC   C4B 4766   6.913   0.492  13.041  0.0964  0.2346  0.0361
  407POSM   NC3 4767   8.572   2.351  10.709 -0.1513  0.0684  0.1076
  407POSM   PO4 4768   8.342   2.022  10.720  0.0880 -0.1086  0.2907
  407POSM   AM1 4769   8.393   2.060  11.031  0.1296  0.1225 -0.1849
  407POSM   AM2 4770   8.234   2.075  11.251 -0.0510 -0.0979  0.1244
  407POSM   T1A 4771   8.745   2.002  11.380  0.0150  0.0918 -0.0606
  407POSM   C2A 4772   8.880   2.051  11.811 -0.0467  0.0722 -0.0999
  407POSM   C3A 4773   8.557   1.839  12.138 -0.0600 -0.1575  0.1297
  407POSM   C1B 4774   8.223   2.059  11.638  0.0963  0.0558 -0.1752
  407POSM   D2B 4775   8.189   2.379  12.009  0.0729 -0.1150  0.0089
  407POSM   C3B 4776   8.550   2.300  12.184 -0.0826  0.0617  0.0164
  407POSM   C4B 4777   8.947   2.341  12.460 -0.1644  0.3144 -0.0514
  408POSM   NC3 4778   7.669   8.660  10.882  0.0373  0.0299  0.1410
  408POSM   PO4 4779   7.916   8.375  11.028 -0.1921  0.0688  0.0925
  408POSM   AM1 4780   7.784   8.375  11.315  0.0586 -0.0964 -0.0339
  408POSM   AM2 4781   7.812   8.192  11.521  0.0058 -0.1064  0.0331
  408POSM   T1A 4782   7.512   8.542  11.715  0.0749 -0.0675  0.2577
  408POSM   C2A 4783   7.231   8.726  12.063 -0.3186  0.1195 -0.3619
  408POSM   C3A 4784   7.070   8.833  12.468  0.2484 -0.2804  0.1621
  408POSM   C1B 4785   7.865   8.094  11.853  0.0677  0.0426 -0.1179
  408POSM   D2B 4786   8.020   8.205  12.177 -0.2027  0.1376 -0.1366
  408POSM   C3B 4787   7.933   7.744  12.310  0.0324  0.2076  0.2351
  408POSM   C4B 4788   7.916   7.480  12.660 -0.1293 -0.1525 -0.2659
  409DOPC   NC3 4789   4.551  20.159  14.808 -0.0681 -0.2673 -0.3148
  409DOPC   PO4 4790   4.257  20.429  14.874  0.1034 -0.0766  0.3583
  409DOPC   GL1 4791   4.106  20.616  14.482  0.0637 -0.3521 -0.0172
  409DOPC   GL2 4792   4.075  20.890  14.551 -0.1183  0.2624  0.1289
  409DOPC   C1A 4793   4.003  20.396  14.082  0.0981  0.0580  0.1365
  409DOPC   D2A 4794   3.683  20.050  13.996  0.0492 -0.1777 -0.0535
  409DOPC   C3A 4795   3.552  19.705  13.735  0.1039  0.0916  0.1244
  409DOPC   C4A 4796   3.647  19.310  13.459 -0.1852  0.1470 -0.0007
  409DOPC   C1B 4797   3.891  20.954  14.081  0.0918 -0.2593  0.0957
  409DOPC   D2B 4798   4.003  21.155  13.704 -0.1225 -0.1999 -0.1649
  409DOPC   C3B 4799   3.677  21.115  13.372 -0.0364 -0.0736 -0.1918
  409DOPC   C4B 4800   3.405  21.146  13.002 -0.0467  0.0100 -0.2320
  410DOPC   NC3 4801   8.210  10.737  14.970  0.0250  0.1916 -0.0212
  410DOPC   PO4 4802   7.969  10.381  15.132  0.0555 -0.0088 -0.0046
  410DOPC   GL1 4803   7.869  10.484  14.717  0.0219 -0.1993  0.3112
  410DOPC   GL2 4804   7.854  10.748  14.636 -0.2862  0.1265  0.0621
  410DOPC   C1A 4805   8.157  10.418  14.339  0.1534 -0.2952 -0.0798
  410DOPC   D2A 4806   8.280  10.349  13.886 -0.3727 -0.0795 -0.1321
  410DOPC   C3A 4807   8.017  10.439  13.514 -0.1151  0.0734  0.1100
  410DOPC   C4A 4808   7.709  10.465  13.177  0.2219 -0.1697  0.0984
  410DOPC   C1B 4809   7.619  11.002  14.325 -0.1454  0.0498 -0.2247
  410DOPC   D2B 4810   7.671  11.308  13.962  0.3943 -0.1833 -0.1947
  410DOPC   C3B 4811   7.706  11.394  13.501  0.0650 -0.0489 -0.0793
  410DOPC   C4B 4812   8.023  11.647  13.261  0.3523  0.1647  0.3882
  411DOPE   NH3 4813   7.914  18.775  14.811  0.5107 -0.0511  0.1257
  411DOPE   PO4 4814   7.872  19.090  14.832  0.0694 -0.0156 -0.0438
  411DOPE   GL1 4815   7.694  19.026  14.386 -0.2626  0.1902  0.2591
  411DOPE   GL2 4816   7.801  18.739  14.328 -0.0142  0.0324  0.0599
  411DOPE   C1A 4817   7.614  19.036  13.941  0.0481 -0.2603  0.1467
  411DOPE   D2A 4818   7.321  19.048  13.550 -0.0409 -0.1438  0.3412
  411DOPE   C3A 4819   6.959  19.348  13.538 -0.1454  0.2127 -0.2835
  411DOPE   C4A 4820   6.759  19.524  13.158 -0.0261  0.1075  0.0388
  411DOPE   C1B 4821   8.074  18.778  14.001 -0.0081 -0.2791 -0.4321
  411DOPE   D2B 4822   8.240  18.797  13.549 -0.1688  0.0031 -0.0376
  411DOPE   C3B 4823   8.417  18.823  13.141  0.2244 -0.2914 -0.1297
  411DOPE   C4B 4824   8.757  19.083  13.018 -0.1951 -0.0006  0.0913
  412DOPE   NH3 4825   1.317  24.176  13.954  0.2735 -0.2888  0.0683
  412DOPE   PO4 4826   0.980  24.229  14.050 -0.1847  0.2741 -0.1511
  412DOPE   GL1 4827   0.914  24.247  13.715 -0.1140 -0.0955  0.0703
  412DOPE   GL2 4828   1.054  24.457  13.575 -0.5289 -0.0502 -0.0431
  412DOPE   C1A 4829   1.147  23.988  13.370 -0.1934 -0.1404 -0.1530
  412DOPE   D2A 4830   1.275  23.538  13.217 -0.1085 -0.1642  0.1411
  412DOPE   C3A 4831   1.204  23.260  12.836  0.1250 -0.0219  0.1341
  412DOPE   C4A 4832   1.414  23.243  12.428  0.1961 -0.0473 -0.1819
  412DOPE   C1B 4833   1.144  24.484  13.144  0.1140  0.1421  0.1101
  412DOPE   D2B 4834   1.141  24.289  12.699 -0.3950  0.2158 -0.4989
  412DOPE   C3B 4835   1.450  24.096  12.425  0.0830 -0.0062 -0.0359
  412DOPE   C4B 4836   1.747  23.852  12.233  0.0150  0.0975 -0.0192
  413DOPC   NC3 4837   9.110  22.581  14.027  0.1728  0.2083  0.1748
  413DOPC   PO4 4838   9.153  22.190  14.087  0.0221 -0.2663  0.1689
  413DOPC   GL1 4839   9.342  22.190  13.714  0.1055 -0.1909 -0.2883
  413DOPC   GL2 4840   9.340  22.493  13.595 -0.2233 -0.3139  0.2095
  413DOPC   C1A 4841   9.310  22.116  13.244 -0.1215 -0.1453  0.1538
  413DOPC   D2A 4842   9.356  22.176  12.779  0.0143  0.2407 -0.0151
  413DOPC   C3A 4843   9.512  22.239  12.343  0.1903 -0.0415  0.0711
  413DOPC   C4A 4844   9.367  22.480  11.965 -0.2549  0.1021  0.2681
  413DOPC   C1B 4845   9.676  22.450  13.240  0.3778  0.0865  0.2153
  413DOPC   D2B 4846   9.777  22.430  12.787 -0.0337  0.1609 -0.0333
  413DOPC   C3B 4847  10.024  22.133  12.551  0.3281 -0.0224  0.0552
  413DOPC   C4B 4848  10.193  21.766  12.452  0.0024  0.1953  0.0382
  414DOPC   NC3 4849   9.178  20.592  14.161  0.2441 -0.3585  0.1605
  414DOPC   PO4 4850   9.531  20.422  14.227 -0.0116 -0.1172 -0.2928
  414DOPC   GL1 4851   9.502  20.501  13.818  0.3656  0.0398  0.4439
  414DOPC   GL2 4852   9.691  20.250  13.706 -0.1728  0.1377  0.0504
  414DOPC   C1A 4853   9.432  20.854  13.478  0.0800  0.1719 -0.3299
  414DOPC   D2A 4854   9.108  21.078  13.229  0.1074 -0.1283  0.0744
  414DOPC   C3A 4855   8.803  20.828  12.980 -0.3708  0.1760 -0.2650
  414DOPC   C4A 4856   8.927  20.396  12.836  0.2465  0.0909 -0.0553
  414DOPC   C1B 4857   9.623  20.359  13.278  0.0626  0.0726  0.3015
  414DOPC   D2B 4858   9.877  20.513  12.929 -0.2960 -0.1598 -0.2037
  414DOPC   C3B 4859  10.048  20.856  12.733  0.0371  0.0524 -0.1888
  414DOPC   C4B 4860  10.286  21.165  12.497  0.0812  0.2831  0.1137
  415POSM   NC3 4861   0.194  13.026  15.939 -0.0979 -0.1681 -0.2631
  415POSM   PO4 4862   0.261  13.300  15.683 -0.2780 -0.0064 -0.0462
  415POSM   AM1 4863   0.344  13.235  15.386 -0.1478  0.0693  0.1682
  415POSM   AM2 4864   0.513  13.108  15.201 -0.0305  0.0243  0.0434
  415POSM   T1A 4865   0.186  13.207  14.909  0.0097  0.1571  0.1972
  415POSM   C2A 4866  -0.146  13.255  14.603 -0.3008  0.2194 -0.0285
  415POSM   C3A 4867  -0.555  13.427  14.491 -0.4141  0.1501 -0.0194
  415POSM   C1B 4868   0.659  13.218  14.914  0.1575 -0.2013  0.1463
  415POSM   D2B 4869   0.911  13.194  14.561  0.0309 -0.1683  0.1968
  415POSM   C3B 4870   1.025  13.179  14.114  0.2979 -0.1887  0.0878
  415POSM   C4B 4871   1.138  13.369  13.667 -0.0836  0.4422  0.0214
  416DOPS   CNO 4872   8.159  24.036  14.574 -0.0881  0.2226  0.0180
  416DOPS   PO4 4873   8.069  24.147  14.241  0.0884 -0.1852 -0.1910
  416DOPS   GL1 4874   8.220  24.116  13.889 -0.4062 -0.0069  0.0925
  416DOPS   GL2 4875   8.245  23.897  13.816 -0.2244  0.3140  0.2859
  416DOPS   C1A 4876   8.205  24.221  13.419  0.3836 -0.1145 -0.2165
  416DOPS   D2A 4877   8.145  24.004  13.053 -0.0285  0.1933 -0.1955
  416DOPS   C3A 4878   8.477  23.762  12.768  0.2540 -0.2857 -0.1943
  416DOPS   C4A 4879   8.730  23.408  12.681  0.0824 -0.1719  0.0720
  416DOPS   C1B 4880   7.957  23.799  13.474 -0.0640 -0.0994  0.3105
  416DOPS   D2B 4881   7.699  23.730  13.044 -0.1646  0.0308  0.0265
  416DOPS   C3B 4882   7.928  23.584  12.653 -0.1119  0.2437 -0.0197
  416DOPS   C4B 4883   7.877  23.514  12.255  0.4238  0.3492  0.0699
  417DOPC   NC3 4884   4.726  15.093  15.767  0.0131  0.2118  0.1168
  417DOPC   PO4 4885   4.322  15.116  15.860 -0.0385  0.1011 -0.1165
  417DOPC   GL1 4886   4.421  14.861  15.470  0.1525  0.1580  0.3806
  417DOPC   GL2 4887   4.308  15.035  15.312  0.2563  0.1379  0.1724
  417DOPC   C1A 4888   4.374  14.602  15.067  0.2294  0.0844 -0.0028
  417DOPC   D2A 4889   4.247  14.172  14.876  0.2707  0.1394  0.0223
  417DOPC   C3A 4890   4.288  14.064  14.498 -0.0951 -0.1745 -0.0531
  417DOPC   C4A 4891   4.457  13.909  14.117  0.0392  0.1255  0.1886
  417DOPC   C1B 4892   4.399  15.036  14.861 -0.0241 -0.2376 -0.0789
  417DOPC   D2B 4893   4.508  15.054  14.425  0.0485  0.1801 -0.0488
  417DOPC   C3B 4894   4.739  15.341  14.207  0.0110 -0.1699  0.2533
  417DOPC   C4B 4895   4.960  15.426  13.777 -0.2112  0.2582 -0.1745
  418DOPE   NH3 4896   3.794  18.439  15.409 -0.0992 -0.1511  0.1227
  418DOPE   PO4 4897   4.072  18.268  15.414  0.1539  0.1506 -0.0050
  418DOPE   GL1 4898   3.913  18.072  15.149 -0.0453 -0.3504 -0.0971
  418DOPE   GL2 4899   3.780  18.199  14.922 -0.0867 -0.4462 -0.2424
  418DOPE   C1A 4900   4.077  17.892  14.713  0.0435 -0.1058  0.0562
  418DOPE   D2A 4901   3.995  17.795  14.271  0.1030  0.0161 -0.0993
  418DOPE   C3A 4902   4.109  18.047  13.881  0.0089 -0.0454 -0.1081
  418DOPE   C4A 4903   4.390  18.038  13.526  0.0080  0.0283  0.0359
  418DOPE   C1B 4904   3.715  18.124  14.499  0.0208  0.1449 -0.0490
  418DOPE   D2B 4905   3.722  18.236  14.057  0.0847  0.0474 -0.3115
  418DOPE   C3B 4906   3.575  17.921  13.738  0.2128 -0.2587  0.0799
  418DOPE   C4B 4907   3.610  17.496  13.677 -0.1697 -0.0708  0.0482
  419POSM   NC3 4908   8.658  22.161  14.102 -0.2991 -0.0280  0.0885
  419POSM   PO4 4909   8.753  21.792  14.187  0.0168  0.2375 -0.0167
  419POSM   AM1 4910   8.814  21.814  13.854 -0.0300  0.1312  0.1453
  419POSM   AM2 4911   9.081  21.755  13.750 -0.0456 -0.3515 -0.0804
  419POSM   T1A 4912   8.805  22.185  13.517 -0.0877  0.0307 -0.3389
  419POSM   C2A 4913   9.002  22.497  13.251  0.1116  0.1061 -0.1214
  419POSM   C3A 4914   9.262  22.625  12.850  0.0740 -0.0018  0.0456
  419POSM   C1B 4915   8.954  21.746  13.444 -0.0916  0.0322  0.0522
  419POSM   D2B 4916   8.912  21.958  13.027  0.0813  0.0984 -0.1255
  419POSM   C3B 4917   8.661  21.796  12.674 -0.3843  0.1865 -0.0616
  419POSM   C4B 4918   8.396  21.778  12.292  0.1691  0.2202 -0.2940
  420DOPS   CNO 4919   8.234  22.768  14.619 -0.0738 -0.0284 -0.2173
  420DOPS   PO4 4920   7.924  22.763  14.415 -0.1475 -0.1569 -0.1857
  420DOPS   GL1 4921   7.651  22.609  14.077  0.1950  0.2085  0.0723
  420DOPS   GL2 4922   7.773  22.629  13.822  0.1110 -0.0470 -0.2171
  420DOPS   C1A 4923   7.266  22.729  13.781  0.1681  0.1083  0.3781
  420DOPS   D2A 4924   7.006  22.441  13.485 -0.0751 -0.1263 -0.0432
  420DOPS   C3A 4925   6.662  22.464  13.168  0.1617  0.1138 -0.3516
  420DOPS   C4A 4926   6.534  22.364  12.684  0.0653  0.2051 -0.1667
  420DOPS   C1B 4927   7.705  22.960  13.536  0.3813  0.1674 -0.4240
  420DOPS   D2B 4928   7.724  23.216  13.156  0.1871 -0.3120  0.1956
  420DOPS   C3B 4929   7.842  23.084  12.705  0.0823 -0.1327 -0.2856
  420DOPS   C4B 4930   8.092  22.774  12.516  0.1588 -0.0534 -0.1329
  421DOPC   NC3 4931   7.319  12.169  14.741  0.0760  0.0541 -0.0276
  421DOPC   PO4 4932   7.616  12.405  14.844 -0.0127  0.0660  0.1691
  421DOPC   GL1 4933   7.708  12.309  14.477  0.4307  0.1304 -0.1932
  421DOPC   GL2 4934   7.579  12.166  14.256  0.0497  0.2425  0.1303
  421DOPC   C1A 4935   7.870  12.478  14.092 -0.0355  0.0286  0.1584
  421DOPC   D2A 4936   7.915  12.410  13.667  0.0080 -0.0115 -0.0922
  421DOPC   C3A 4937   7.786  12.510  13.295 -0.1961  0.1556 -0.1494
  421DOPC   C4A 4938   7.512  12.364  12.939 -0.1939 -0.0784 -0.1188
  421DOPC   C1B 4939   7.345  11.834  14.094  0.0267  0.0494  0.0766
  421DOPC   D2B 4940   7.241  11.580  13.731  0.2753  0.0510 -0.1515
  421DOPC   C3B 4941   6.908  11.554  13.408  0.2188  0.3220 -0.2729
  421DOPC   C4B 4942   6.719  11.965  13.346  0.1515  0.2991  0.0675
  422DOPE   NH3 4943   8.895  15.679  14.602  0.0067 -0.0353  0.0271
  422DOPE   PO4 4944   9.081  15.710  14.309  0.0745  0.2547  0.4713
  422DOPE   GL1 4945   8.902  15.491  14.057  0.0295 -0.0168  0.0884
  422DOPE   GL2 4946   8.909  15.760  13.856  0.1613 -0.1947 -0.0776
  422DOPE   C1A 4947   8.554  15.440  13.747 -0.5221  0.0762 -0.1269
  422DOPE   D2A 4948   8.532  15.335  13.300  0.1726 -0.2591  0.2527
  422DOPE   C3A 4949   8.188  15.088  13.132 -0.1659  0.0311  0.4623
  422DOPE   C4A 4950   7.792  15.055  12.967  0.1919  0.1463  0.1534
  422DOPE   C1B 4951   8.511  15.993  13.636  0.2991 -0.0858 -0.0464
  422DOPE   D2B 4952   8.363  16.172  13.207 -0.0010  0.0847 -0.1479
  422DOPE   C3B 4953   7.952  16.078  13.122  0.1329  0.0563 -0.2998
  422DOPE   C4B 4954   7.757  15.831  13.458  0.1252  0.2130  0.0845
  423DOPE   NH3 4955   3.591  16.398  15.840 -0.0777 -0.1689 -0.1409
  423DOPE   PO4 4956   3.865  16.359  15.663 -0.3165  0.0541 -0.1977
  423DOPE   GL1 4957   3.875  16.586  15.351  0.2640  0.1050  0.0647
  423DOPE   GL2 4958   3.683  16.817  15.316  0.2801  0.0966  0.2748
  423DOPE   C1A 4959   3.714  16.385  14.954 -0.0363  0.4286  0.0698
  423DOPE   D2A 4960   3.563  16.447  14.529 -0.2083  0.1782  0.0310
  423DOPE   C3A 4961   3.874  16.546  14.203 -0.0013  0.0772  0.0750
  423DOPE   C4A 4962   3.814  16.914  13.875  0.0499  0.0476 -0.0846
  423DOPE   C1B 4963   3.471  16.781  14.909  0.0947 -0.1293 -0.2846
  423DOPE   D2B 4964   3.140  16.721  14.619  0.2198  0.1912  0.0317
  423DOPE   C3B 4965   3.122  16.702  14.175 -0.1628 -0.2320 -0.0252
  423DOPE   C4B 4966   3.347  16.948  13.812  0.1498 -0.4505  0.4362
  424DOPC   NC3 4967   9.204  20.910  14.541  0.0319  0.0673 -0.0376
  424DOPC   PO4 4968   9.382  21.261  14.397 -0.1718 -0.3617 -0.1727
  424DOPC   GL1 4969   9.144  21.147  14.138 -0.5036 -0.4188 -0.3725
  424DOPC   GL2 4970   8.914  21.329  14.042  0.0731  0.1705  0.1196
  424DOPC   C1A 4971   9.036  20.910  13.739 -0.0635 -0.1045  0.0877
  424DOPC   D2A 4972   9.031  20.428  13.669 -0.3971 -0.0716 -0.2774
  424DOPC   C3A 4973   8.675  20.452  13.388  0.1559 -0.2119 -0.0946
  424DOPC   C4A 4974   8.210  20.525  13.408  0.1046 -0.4141  0.2662
  424DOPC   C1B 4975   8.717  21.384  13.618 -0.0301 -0.2255  0.0280
  424DOPC   D2B 4976   8.706  21.453  13.137  0.3026 -0.2448  0.2900
  424DOPC   C3B 4977   8.343  21.739  13.109  0.0566  0.2207  0.1336
  424DOPC   C4B 4978   8.120  21.906  12.691 -0.4822 -0.2429  0.0120
  425POSM   NC3 4979  10.557  18.186  13.902 -0.0278  0.3043  0.2235
  425POSM   PO4 4980  10.193  18.067  13.770 -0.3649 -0.0740 -0.2722
  425POSM   AM1 4981   9.987  18.053  13.483 -0.2231 -0.4067  0.0514
  425POSM   AM2 4982   9.825  18.260  13.440 -0.1221 -0.4344 -0.0645
  425POSM   T1A 4983   9.841  18.033  12.993 -0.0243 -0.2759  0.2848
  425POSM   C2A 4984  10.166  18.144  12.713  0.0757 -0.0313 -0.0680
  425POSM   C3A 4985  10.651  18.110  12.775  0.1395 -0.2806 -0.1967
  425POSM   C1B 4986   9.827  18.478  13.177  0.1982  0.0262  0.2665
  425POSM   D2B 4987   9.785  18.497  12.711  0.3504  0.1787  0.2493
  425POSM   C3B 4988   9.670  18.086  12.477 -0.1504 -0.1823  0.0160
  425POSM   C4B 4989   9.506  17.650  12.458  0.1323  0.2538  0.2943
  426DOPE   NH3 4990   1.763  19.448  14.860 -0.0716 -0.0380 -0.2124
  426DOPE   PO4 4991   1.965  19.290  15.066 -0.3286  0.1649  0.2050
  426DOPE   GL1 4992   2.179  19.385  14.660 -0.0840 -0.2992  0.1713
  426DOPE   GL2 4993   2.279  19.106  14.540  0.2805  0.2435  0.3361
  426DOPE   C1A 4994   1.917  19.358  14.269 -0.1066 -0.0178  0.1384
  426DOPE   D2A 4995   1.795  19.008  13.980  0.1252 -0.0806 -0.1270
  426DOPE   C3A 4996   1.554  18.657  13.822 -0.2461  0.2095  0.3236
  426DOPE   C4A 4997   1.321  18.291  13.660 -0.2492  0.2271  0.4620
  426DOPE   C1B 4998   2.639  18.960  14.335 -0.1753 -0.0026  0.0275
  426DOPE   D2B 4999   2.735  19.026  13.914 -0.0362  0.1640 -0.0960
  426DOPE   C3B 5000   2.587  18.789  13.493  0.3539 -0.0185 -0.1994
  426DOPE   C4B 5001   2.674  18.338  13.348  0.1594 -0.0705 -0.4476
  427DOPS   CNO 5002   4.656  14.529  15.789  0.1148 -0.1772  0.0987
  427DOPS   PO4 5003   4.900  14.481  15.502  0.4224  0.0616 -0.2604
  427DOPS   GL1 5004   5.134  14.666  15.092  0.0948 -0.0896 -0.0477
  427DOPS   GL2 5005   5.231  14.641  14.830  0.1853 -0.1516 -0.0850
  427DOPS   C1A 5006   4.782  14.612  14.716 -0.1768 -0.0086 -0.2440
  427DOPS   D2A 5007   4.343  14.581  14.568 -0.0941  0.0069  0.1332
  427DOPS   C3A 5008   4.233  14.418  14.124  0.2742 -0.2086 -0.3291
  427DOPS   C4A 5009   3.849  14.262  13.945 -0.0031 -0.1351  0.0908
  427DOPS   C1B 5010   5.377  14.640  14.357 -0.2536 -0.1943 -0.0083
  427DOPS   D2B 5011   5.561  14.553  13.950  0.0598  0.1698  0.1296
  427DOPS   C3B 5012   5.390  14.601  13.505  0.2418  0.1241 -0.0426
  427DOPS   C4B 5013   5.402  14.724  13.073  0.5661  0.0589  0.0427
  428POSM   NC3 5014   5.699  21.036  14.515  0.2966  0.0174 -0.1214
  428POSM   PO4 5015   5.750  20.748  14.767 -0.1196  0.3129 -0.1106
  428POSM   AM1 5016   5.613  20.561  14.560  0.3310 -0.0276  0.2921
  428POSM   AM2 5017   5.743  20.367  14.421  0.3189 -0.2782  0.2113
  428POSM   T1A 5018   5.322  20.475  14.166  0.2404 -0.1362 -0.3333
  428POSM   C2A 5019   5.283  20.509  13.750  0.2602 -0.0510  0.1973
  428POSM   C3A 5020   5.341  20.292  13.330 -0.0619 -0.0880 -0.0185
  428POSM   C1B 5021   5.674  20.132  14.182  0.0628  0.1011  0.1151
  428POSM   D2B 5022   5.662  19.753  13.983 -0.1113 -0.1034  0.0390
  428POSM   C3B 5023   6.030  19.730  13.712 -0.1772  0.1013 -0.1269
  428POSM   C4B 5024   6.432  19.728  13.486  0.0642 -0.2656  0.1245
  429POSM   NC3 5025   6.941  21.037  14.686 -0.1578  0.1434 -0.1465
  429POSM   PO4 5026   7.253  20.907  14.855 -0.2334  0.0391  0.0087
  429POSM   AM1 5027   7.288  20.835  14.509 -0.0547 -0.1281  0.1090
  429POSM   AM2 5028   7.153  20.776  14.254  0.2394  0.2496 -0.1634
  429POSM   T1A 5029   7.637  20.824  14.191  0.2133  0.1820  0.3037
  429POSM   C2A 5030   8.071  21.005  14.246 -0.1347 -0.1062 -0.1446
  429POSM   C3A 5031   8.402  21.119  13.953 -0.2180  0.1089  0.0879
  429POSM   C1B 5032   7.155  20.905  13.948 -0.1608 -0.2886  0.0395
  429POSM   D2B 5033   7.254  20.896  13.506 -0.0734  0.0875 -0.2926
  429POSM   C3B 5034   6.941  20.651  13.268 -0.1459  0.2324  0.0793
  429POSM   C4B 5035   6.955  20.307  12.981  0.0226  0.1668  0.0722
  430DOPC   NC3 5036   2.247  10.847  15.314 -0.1577 -0.3698 -0.1273
  430DOPC   PO4 5037   2.463  10.626  15.544  0.0813 -0.2261  0.2972
  430DOPC   GL1 5038   2.642  10.402  15.246  0.1306  0.0063  0.0380
  430DOPC   GL2 5039   2.871  10.591  15.285 -0.2466  0.0970 -0.5198
  430DOPC   C1A 5040   2.649  10.081  14.939 -0.0283 -0.0424 -0.0945
  430DOPC   D2A 5041   2.619   9.843  14.541  0.1882 -0.0235 -0.4251
  430DOPC   C3A 5042   2.476  10.048  14.152 -0.5292 -0.0762 -0.0530
  430DOPC   C4A 5043   2.627  10.022  13.711 -0.0361 -0.2357 -0.0342
  430DOPC   C1B 5044   3.102  10.203  15.090  0.1173  0.3224 -0.4127
  430DOPC   D2B 5045   3.132  10.116  14.630  0.0526  0.0069 -0.0965
  430DOPC   C3B 5046   3.031   9.902  14.184  0.1404  0.0718 -0.1364
  430DOPC   C4B 5047   3.176   9.600  13.845  0.0006  0.0751  0.2892
  431DOPS   CNO 5048   6.721  16.722  15.249  0.0744  0.1247  0.1854
  431DOPS   PO4 5049   6.650  16.377  15.079 -0.4895 -0.0896 -0.1989
  431DOPS   GL1 5050   6.822  16.512  14.789 -0.1700 -0.3522  0.2012
  431DOPS   GL2 5051   6.646  16.577  14.523 -0.2769 -0.1619  0.3975
  431DOPS   C1A 5052   7.194  16.401  14.518 -0.0688  0.0701 -0.0280
  431DOPS   D2A 5053   7.352  16.402  14.101  0.1452 -0.1475  0.1423
  431DOPS   C3A 5054   7.731  16.650  13.857 -0.1929  0.2234  0.0858
  431DOPS   C4A 5055   7.678  17.016  13.561  0.0172 -0.0425 -0.0358
  431DOPS   C1B 5056   6.787  16.217  14.283 -0.1075 -0.3284  0.4239
  431DOPS   D2B 5057   6.908  16.044  13.840 -0.1310 -0.0306  0.2643
  431DOPS   C3B 5058   6.935  16.138  13.397  0.2754 -0.0428 -0.2779
  431DOPS   C4B 5059   6.693  16.127  13.057  0.1626  0.1474  0.2336
  432DOPE   NH3 5060  11.465  21.674  13.696 -0.1118  0.2520 -0.0829
  432DOPE   PO4 5061  11.720  21.873  13.669  0.0024  0.2329  0.0754
  432DOPE   GL1 5062  11.779  21.552  13.373  0.1385  0.4348  0.1256
  432DOPE   GL2 5063  11.582  21.633  13.202 -0.1844 -0.0917 -0.1535
  432DOPE   C1A 5064  11.965  21.767  12.964 -0.1017  0.0169  0.1293
  432DOPE   D2A 5065  12.126  21.924  12.562  0.2087 -0.0522 -0.0014
  432DOPE   C3A 5066  11.876  21.760  12.191 -0.0123 -0.0269 -0.0433
  432DOPE   C4A 5067  11.763  21.696  11.755  0.1942  0.0713 -0.1144
  432DOPE   C1B 5068  11.514  22.003  12.903 -0.0313  0.0478 -0.1117
  432DOPE   D2B 5069  11.406  22.481  12.813  0.0083  0.0088 -0.2015
  432DOPE   C3B 5070  11.417  22.528  12.391  0.5540 -0.3809 -0.0414
  432DOPE   C4B 5071  11.529  22.329  11.989  0.0402  0.1684  0.2174
  433POSM   NC3 5072  10.822  16.534  14.361 -0.3211  0.3702 -0.3996
  433POSM   PO4 5073  10.750  16.210  14.169 -0.0443  0.1311  0.3084
  433POSM   AM1 5074  10.700  16.288  13.873  0.0612 -0.1856  0.1679
  433POSM   AM2 5075  10.504  16.286  13.748  0.2620 -0.0027 -0.0882
  433POSM   T1A 5076  10.784  16.505  13.442  0.1879  0.1825 -0.1109
  433POSM   C2A 5077  10.799  16.473  12.988  0.3074  0.1494 -0.1454
  433POSM   C3A 5078  10.728  16.250  12.616  0.1284  0.2735  0.2856
  433POSM   C1B 5079  10.366  16.192  13.507  0.0484 -0.0386 -0.4243
  433POSM   D2B 5080  10.028  16.235  13.162  0.0504 -0.1502 -0.0153
  433POSM   C3B 5081   9.627  16.035  13.113 -0.2223  0.4155  0.0920
  433POSM   C4B 5082   9.307  15.974  12.833 -0.2929  0.2640  0.5061
  434POSM   NC3 5083  10.408  13.439  15.063 -0.2887 -0.0014  0.0137
  434POSM   PO4 5084  10.763  13.424  14.882  0.0386 -0.1266  0.1840
  434POSM   AM1 5085  10.787  13.419  14.578  0.0541 -0.3558 -0.3024
  434POSM   AM2 5086  11.019  13.433  14.423 -0.0143 -0.3488  0.2474
  434POSM   T1A 5087  10.588  13.318  14.140 -0.2933 -0.1341  0.1527
  434POSM   C2A 5088  10.420  13.076  13.788  0.0410 -0.2403 -0.1637
  434POSM   C3A 5089  10.603  12.830  13.443 -0.0985 -0.0693  0.0377
  434POSM   C1B 5090  11.181  13.269  14.192 -0.2446 -0.1455 -0.1339
  434POSM   D2B 5091  11.421  13.005  13.990  0.0904 -0.0385  0.0394
  434POSM   C3B 5092  11.612  12.954  13.555 -0.0317 -0.2839 -0.0156
  434POSM   C4B 5093  11.602  13.250  13.167  0.0108 -0.0374 -0.0974
  435DOPC   NC3 5094   2.093  22.256  14.735 -0.0258  0.1770 -0.3595
  435DOPC   PO4 5095   2.138  22.360  14.364  0.0114 -0.1053  0.1023
  435DOPC   GL1 5096   2.416  22.246  14.113  0.0692 -0.1696 -0.1667
  435DOPC   GL2 5097   2.776  22.208  14.191  0.0934  0.1345 -0.2054
  435DOPC   C1A 5098   2.283  21.970  13.718 -0.2618 -0.0323  0.0462
  435DOPC   D2A 5099   1.870  21.866  13.500 -0.1044  0.0931 -0.0355
  435DOPC   C3A 5100   1.869  21.549  13.104 -0.2568 -0.0923  0.0683
  435DOPC   C4A 5101   2.014  21.274  12.772  0.1976 -0.0153  0.0520
  435DOPC   C1B 5102   2.795  22.144  13.734  0.0206 -0.0080  0.1378
  435DOPC   D2B 5103   2.577  22.076  13.310  0.0824 -0.0334  0.0474
  435DOPC   C3B 5104   2.098  22.223  13.324  0.1784 -0.2542  0.0258
  435DOPC   C4B 5105   1.700  22.083  13.097 -0.1226  0.0474  0.0405
  436DOPC   NC3 5106   2.993  12.530  15.274  0.0879 -0.0791 -0.0975
  436DOPC   PO4 5107   2.948  12.754  15.556  0.1792  0.0006  0.0610
  436DOPC   GL1 5108   2.865  13.006  15.240  0.0132  0.0884  0.0660
  436DOPC   GL2 5109   2.652  13.262  15.299 -0.0956  0.0873  0.0617
  436DOPC   C1A 5110   2.652  13.069  14.817  0.2018 -0.2045 -0.1184
  436DOPC   D2A 5111   2.475  12.889  14.453 -0.4390 -0.0835  0.1109
  436DOPC   C3A 5112   2.357  13.264  14.130  0.0970 -0.1262 -0.0018
  436DOPC   C4A 5113   2.046  13.520  13.963 -0.0815  0.2109  0.0738
  436DOPC   C1B 5114   2.310  13.457  15.149 -0.0052  0.2343 -0.1767
  436DOPC   D2B 5115   2.109  13.761  14.852 -0.0328 -0.0191 -0.1169
  436DOPC   C3B 5116   2.296  13.845  14.479 -0.4314  0.0890 -0.1121
  436DOPC   C4B 5117   2.451  14.195  14.129  0.2098 -0.0297  0.0435
  437POSM   NC3 5118   5.064   8.434  14.896  0.1289 -0.2249 -0.1959
  437POSM   PO4 5119   5.257   8.086  14.924 -0.0162 -0.0887  0.2536
  437POSM   AM1 5120   5.465   8.179  14.666  0.0289 -0.2517 -0.2787
  437POSM   AM2 5121   5.543   8.061  14.447 -0.1663  0.2164 -0.1504
  437POSM   T1A 5122   5.717   8.451  14.277  0.0644  0.1091 -0.2474
  437POSM   C2A 5123   5.779   8.601  13.843  0.1258 -0.2658 -0.0234
  437POSM   C3A 5124   5.792   8.546  13.469 -0.0253 -0.2349  0.4531
  437POSM   C1B 5125   5.336   7.876  14.256  0.2332  0.1253 -0.2343
  437POSM   D2B 5126   5.327   7.689  13.813 -0.0239  0.0750  0.4462
  437POSM   C3B 5127   5.324   7.867  13.371  0.0494  0.1574 -0.2763
  437POSM   C4B 5128   5.501   7.926  12.959  0.1868 -0.0949 -0.1969
  438POSM   NC3 5129  10.045  16.886  14.169 -0.0656  0.0245 -0.4132
  438POSM   PO4 5130   9.773  16.666  14.366 -0.1849  0.3284 -0.0929
  438POSM   AM1 5131   9.787  16.489  14.106  0.0744  0.0384  0.0773
  438POSM   AM2 5132   9.900  16.260  13.972 -0.1368 -0.1169 -0.0418
  438POSM   T1A 5133   9.645  16.453  13.604 -0.0128  0.0763  0.1851
  438POSM   C2A 5134   9.355  16.423  13.258 -0.1804 -0.1439  0.2748
  438POSM   C3A 5135   9.184  16.717  12.972 -0.4003 -0.3423 -0.3042
  438POSM   C1B 5136   9.912  16.042  13.710 -0.1880  0.3033 -0.0120
  438POSM   D2B 5137  10.040  15.757  13.386  0.3094  0.2033  0.2775
  438POSM   C3B 5138  10.071  15.784  12.911  0.2888 -0.1698  0.3054
  438POSM   C4B 5139  10.043  15.707  12.450  0.0100 -0.0286 -0.0531
  439DOPE   NH3 5140  12.663  22.707  13.511 -0.0106  0.2158  0.2494
  439DOPE   PO4 5141  12.330  22.622  13.459 -0.2534 -0.3389  0.1708
  439DOPE   GL1 5142  12.182  22.362  13.201  0.2175 -0.3648 -0.4634
  439DOPE   GL2 5143  11.881  22.283  13.261 -0.0295  0.1947 -0.0544
  439DOPE   C1A 5144  12.403  22.280  12.794 -0.0542  0.2098 -0.1968
  439DOPE   D2A 5145  12.593  22.225  12.344  0.2704  0.3608  0.0224
  439DOPE   C3A 5146  12.400  22.381  11.938  0.0007 -0.1153  0.0600
  439DOPE   C4A 5147  12.077  22.641  11.690  0.0635  0.1098  0.4299
  439DOPE   C1B 5148  11.904  22.336  12.774  0.0075  0.2108  0.2755
  439DOPE   D2B 5149  11.998  22.342  12.341 -0.0401 -0.0286 -0.0712
  439DOPE   C3B 5150  11.860  22.727  12.143  0.4717  0.0268  0.0226
  439DOPE   C4B 5151  11.575  22.868  11.772 -0.0510  0.2787  0.2607
  440DOPC   NC3 5152   6.365  24.091  14.235  0.2344 -0.1370 -0.0925
  440DOPC   PO4 5153   6.478  24.507  14.193  0.0945 -0.0696  0.5114
  440DOPC   GL1 5154   6.527  24.305  13.885  0.1918  0.2380  0.1141
  440DOPC   GL2 5155   6.794  24.188  13.965 -0.3165  0.2055  0.1227
  440DOPC   C1A 5156   6.398  24.330  13.400  0.0173  0.1914  0.1211
  440DOPC   D2A 5157   6.325  24.265  12.926  0.1310 -0.1644  0.1165
  440DOPC   C3A 5158   6.500  23.819  12.726 -0.0577 -0.1575 -0.1164
  440DOPC   C4A 5159   6.974  23.673  12.692 -0.0273 -0.0597  0.3847
  440DOPC   C1B 5160   6.842  24.019  13.483  0.0772  0.0744  0.0680
  440DOPC   D2B 5161   6.874  24.086  13.009 -0.0427 -0.1099 -0.4104
  440DOPC   C3B 5162   6.712  24.531  13.002 -0.2509  0.0221 -0.1336
  440DOPC   C4B 5163   6.940  24.924  13.063 -0.1341 -0.0475  0.0124
  441DOPE   NH3 5164   8.682  18.346  14.480 -0.6211 -0.0590  0.2392
  441DOPE   PO4 5165   8.854  18.083  14.317 -0.0937 -0.0529  0.0522
  441DOPE   GL1 5166   8.762  17.864  14.001  0.3672  0.0511 -0.0888
  441DOPE   GL2 5167   8.520  17.777  14.064 -0.0651 -0.2195  0.2302
  441DOPE   C1A 5168   8.614  17.898  13.573  0.3434 -0.1263 -0.2296
  441DOPE   D2A 5169   8.448  17.647  13.218 -0.2147  0.0831  0.0646
  441DOPE   C3A 5170   8.444  17.328  12.841 -0.1099 -0.0375 -0.0325
  441DOPE   C4A 5171   8.566  17.128  12.498 -0.0764  0.0991 -0.1926
  441DOPE   C1B 5172   8.386  17.424  13.777 -0.1566  0.2439 -0.2879
  441DOPE   D2B 5173   8.173  17.032  13.883 -0.0381  0.0402  0.1484
  441DOPE   C3B 5174   8.361  16.662  13.754  0.4944  0.1131 -0.1264
  441DOPE   C4B 5175   8.719  16.384  13.871  0.0554  0.1108 -0.0986
  442DOPE   NH3 5176   8.983  11.793  14.826 -0.0090  0.0340 -0.0120
  442DOPE   PO4 5177   9.123  11.526  14.991  0.1080  0.1747  0.1396
  442DOPE   GL1 5178   9.359  11.328  14.642 -0.5559  0.1620 -0.2974
  442DOPE   GL2 5179   9.124  11.398  14.517  0.0069  0.0314  0.1682
  442DOPE   C1A 5180   9.556  11.372  14.241  0.2324 -0.0546 -0.1749
  442DOPE   D2A 5181   9.500  11.410  13.795  0.0422 -0.0923  0.0789
  442DOPE   C3A 5182   9.707  11.044  13.558  0.1272 -0.2104  0.4516
  442DOPE   C4A 5183   9.920  10.763  13.256  0.1513  0.2609 -0.3650
  442DOPE   C1B 5184   9.094  11.391  14.052 -0.1453  0.1093 -0.0187
  442DOPE   D2B 5185   9.028  11.566  13.579 -0.0186 -0.1729  0.2442
  442DOPE   C3B 5186   9.422  11.432  13.313 -0.1875 -0.1117 -0.0471
  442DOPE   C4B 5187   9.549  11.073  12.999 -0.0952 -0.1047  0.0434
  443DOPE   NH3 5188   6.095  13.073  15.120  0.1940 -0.1494  0.0154
  443DOPE   PO4 5189   5.950  12.846  15.271  0.1360 -0.3232  0.0516
  443DOPE   GL1 5190   6.057  12.648  14.830 -0.4810 -0.0841 -0.3727
  443DOPE   GL2 5191   6.044  12.332  14.788  0.2549  0.5045  0.0474
  443DOPE   C1A 5192   6.477  12.626  14.586 -0.2337 -0.4373  0.2202
  443DOPE   D2A 5193   6.936  12.427  14.548  0.2634 -0.0841 -0.2604
  443DOPE   C3A 5194   7.140  12.394  14.147 -0.3307  0.1090 -0.2456
  443DOPE   C4A 5195   7.435  12.280  13.804 -0.0688  0.2714  0.1586
  443DOPE   C1B 5196   5.870  12.036  14.436 -0.2308 -0.1713  0.0212
  443DOPE   D2B 5197   5.905  11.599  14.228  0.2167 -0.0170  0.2184
  443DOPE   C3B 5198   5.513  11.521  13.988 -0.0080  0.1207 -0.0241
  443DOPE   C4B 5199   5.055  11.349  14.001  0.0618  0.0070  0.0731
  444DOPS   CNO 5200   1.923  20.607  14.643  0.1083  0.2409 -0.2597
  444DOPS   PO4 5201   1.823  20.962  14.601  0.1529 -0.0334  0.1639
  444DOPS   GL1 5202   1.808  21.012  14.107  0.2041 -0.6109 -0.1399
  444DOPS   GL2 5203   1.678  20.783  14.090  0.0906  0.1065  0.0693
  444DOPS   C1A 5204   2.102  20.902  13.734  0.4086  0.0770 -0.1628
  444DOPS   D2A 5205   2.181  20.490  13.468 -0.1757  0.2419 -0.1210
  444DOPS   C3A 5206   2.414  20.402  13.089 -0.0934  0.2713  0.3163
  444DOPS   C4A 5207   2.713  20.504  12.736  0.2620 -0.0307  0.0037
  444DOPS   C1B 5208   2.009  20.461  13.978  0.1146 -0.0312  0.1569
  444DOPS   D2B 5209   2.468  20.450  14.004  0.2776 -0.0836  0.3510
  444DOPS   C3B 5210   2.699  20.465  13.613  0.1392 -0.0304 -0.0675
  444DOPS   C4B 5211   2.914  20.511  13.243 -0.2406  0.0127  0.0911
  445DOPE   NH3 5212   7.448  18.896  14.756  0.1021 -0.1244 -0.2210
  445DOPE   PO4 5213   7.469  18.589  14.673  0.1371 -0.1387  0.0209
  445DOPE   GL1 5214   7.401  18.503  14.341  0.0912 -0.1067 -0.2966
  445DOPE   GL2 5215   7.264  18.855  14.272  0.2074 -0.3701  0.1431
  445DOPE   C1A 5216   7.569  18.506  13.899  0.0207  0.3955 -0.0752
  445DOPE   D2A 5217   7.735  18.733  13.532 -0.0077  0.3266 -0.5571
  445DOPE   C3A 5218   7.864  19.160  13.491 -0.1663 -0.1565 -0.2401
  445DOPE   C4A 5219   8.169  19.304  13.839 -0.0528 -0.1088  0.3759
  445DOPE   C1B 5220   6.881  18.878  13.908 -0.2099 -0.2706  0.0044
  445DOPE   D2B 5221   6.550  19.120  13.750 -0.0217 -0.2318  0.1834
  445DOPE   C3B 5222   6.785  18.879  13.371 -0.1598 -0.1440 -0.1110
  445DOPE   C4B 5223   6.551  18.714  12.936  0.0897  0.1151 -0.0600
  446DOPE   NH3 5224   3.605  20.807  15.068  0.0481  0.0658 -0.1326
  446DOPE   PO4 5225   3.661  20.699  14.798  0.0277  0.4484 -0.3180
  446DOPE   GL1 5226   3.542  20.758  14.421 -0.1973  0.1768  0.0119
  446DOPE   GL2 5227   3.539  20.546  14.258 -0.1048  0.3003  0.3245
  446DOPE   C1A 5228   3.344  20.937  14.038  0.3326 -0.2064 -0.2211
  446DOPE   D2A 5229   3.243  20.844  13.582 -0.1462  0.0839 -0.2596
  446DOPE   C3A 5230   3.443  20.568  13.288 -0.0569 -0.0058  0.1113
  446DOPE   C4A 5231   3.463  20.290  12.970 -0.1329  0.1166 -0.0457
  446DOPE   C1B 5232   3.583  20.567  13.819  0.1875 -0.1014 -0.0751
  446DOPE   D2B 5233   3.875  20.689  13.453 -0.1479  0.3305  0.0274
  446DOPE   C3B 5234   4.296  20.606  13.428  0.2444  0.3288  0.3821
  446DOPE   C4B 5235   4.681  20.541  13.578  0.2105 -0.2238 -0.1668
  447POSM   NC3 5236   1.852  13.145  15.930  0.1711  0.1186 -0.3158
  447POSM   PO4 5237   1.740  12.923  15.635  0.1476  0.1507 -0.0982
  447POSM   AM1 5238   1.775  12.976  15.322  0.0174  0.0343  0.2314
  447POSM   AM2 5239   1.954  12.882  15.117  0.0059  0.0298 -0.1841
  447POSM   T1A 5240   1.611  13.246  14.898  0.1114 -0.0121 -0.2884
  447POSM   C2A 5241   1.304  13.567  14.723 -0.3026  0.2031 -0.1526
  447POSM   C3A 5242   1.021  13.794  14.605  0.0606 -0.1548 -0.1378
  447POSM   C1B 5243   2.122  13.057  14.906  0.0624 -0.2432 -0.0921
  447POSM   D2B 5244   2.252  13.361  14.606 -0.0801  0.1878  0.2008
  447POSM   C3B 5245   1.955  13.146  14.341 -0.1322 -0.0597 -0.0631
  447POSM   C4B 5246   1.496  13.123  14.367 -0.3839 -0.0257 -0.1857
  448POSM   NC3 5247   2.400  17.335  15.817 -0.2464 -0.1376  0.1109
  448POSM   PO4 5248   2.388  16.952  15.801  0.0298 -0.1692 -0.0133
  448POSM   AM1 5249   2.307  16.931  15.507  0.3133 -0.0916 -0.0892
  448POSM   AM2 5250   2.409  16.787  15.268  0.3516 -0.2686 -0.0351
  448POSM   T1A 5251   2.178  17.165  15.050 -0.1002 -0.0522 -0.1853
  448POSM   C2A 5252   2.377  17.556  14.816  0.1803 -0.0589 -0.0569
  448POSM   C3A 5253   2.300  17.883  14.534 -0.0797 -0.1403 -0.0272
  448POSM   C1B 5254   2.526  16.767  14.933  0.1966 -0.2368 -0.2399
  448POSM   D2B 5255   2.609  17.015  14.569  0.2489 -0.0236 -0.1198
  448POSM   C3B 5256   2.592  16.788  14.180  0.3101 -0.1049 -0.1667
  448POSM   C4B 5257   2.462  16.841  13.785 -0.0389 -0.0801  0.0167
  449DOPC   NC3 5258   5.954  18.435  14.882  0.2126 -0.0251  0.3379
  449DOPC   PO4 5259   5.630  18.246  14.955  0.3339 -0.1325 -0.2183
  449DOPC   GL1 5260   5.448  18.096  14.664 -0.0604  0.4469  0.0299
  449DOPC   GL2 5261   5.494  18.376  14.490  0.0313  0.2054 -0.2539
  449DOPC   C1A 5262   5.716  17.932  14.313 -0.0183 -0.1656 -0.0732
  449DOPC   D2A 5263   5.804  17.790  13.849 -0.0805  0.1671  0.0129
  449DOPC   C3A 5264   5.755  17.519  13.488 -0.2084  0.0299  0.0596
  449DOPC   C4A 5265   5.743  17.150  13.200 -0.0900 -0.0632 -0.4447
  449DOPC   C1B 5266   5.418  18.402  14.033  0.1568  0.2466 -0.0222
  449DOPC   D2B 5267   5.079  18.253  13.798 -0.2616 -0.2015 -0.1132
  449DOPC   C3B 5268   5.262  18.459  13.484  0.0805  0.2190  0.0112
  449DOPC   C4B 5269   5.693  18.741  13.396 -0.0341 -0.1781 -0.2862
  450DOPC   NC3 5270   6.314  19.292  14.662  0.0710  0.0544 -0.0734
  450DOPC   PO4 5271   6.082  18.984  14.845  0.0035 -0.2298 -0.2336
  450DOPC   GL1 5272   5.875  18.762  14.516  0.1028  0.2136  0.4355
  450DOPC   GL2 5273   5.897  19.002  14.381 -0.2339 -0.1411 -0.2565
  450DOPC   C1A 5274   6.074  18.378  14.361  0.2197  0.0024  0.1775
  450DOPC   D2A 5275   6.292  18.183  14.019  0.1850  0.3606 -0.1877
  450DOPC   C3A 5276   5.992  18.176  13.677  0.3924 -0.1877 -0.0228
  450DOPC   C4A 5277   5.628  18.079  13.465 -0.0143  0.1738 -0.0423
  450DOPC   C1B 5278   5.486  18.833  14.264  0.1866  0.0851  0.0873
  450DOPC   D2B 5279   5.063  18.768  14.188 -0.0056  0.0884 -0.3265
  450DOPC   C3B 5280   4.785  18.632  13.781  0.0210 -0.0105 -0.1049
  450DOPC   C4B 5281   4.497  18.522  13.390 -0.2262  0.1811  0.1550
  451POSM   NC3 5282   3.229  23.366  14.342  0.1609  0.1315  0.0325
  451POSM   PO4 5283   2.994  23.141  14.158 -0.1500  0.2117 -0.2244
  451POSM   AM1 5284   3.038  23.239  13.895  0.4534 -0.2896  0.1446
  451POSM   AM2 5285   2.869  23.365  13.710  0.1252 -0.0921  0.1977
  451POSM   T1A 5286   3.244  23.239  13.419 -0.2398  0.1394 -0.0064
  451POSM   C2A 5287   3.479  23.105  13.037  0.0688 -0.4125 -0.2471
  451POSM   C3A 5288   3.208  23.081  12.655  0.2208  0.4076 -0.1181
  451POSM   C1B 5289   2.997  23.667  13.535 -0.2834 -0.0897  0.0348
  451POSM   D2B 5290   2.909  23.955  13.133  0.1502  0.3090  0.2270
  451POSM   C3B 5291   2.981  23.860  12.693  0.1306 -0.0186 -0.1778
  451POSM   C4B 5292   3.293  23.747  12.340  0.0466  0.0387  0.4554
  452DOPC   NC3 5293   6.840  13.579  14.866 -0.2758  0.5012  0.2360
  452DOPC   PO4 5294   6.993  13.896  14.699  0.2222  0.1871 -0.3274
  452DOPC   GL1 5295   7.288  13.896  14.336  0.1175  0.0806  0.4654
  452DOPC   GL2 5296   7.361  13.612  14.369  0.2041  0.0373  0.1008
  452DOPC   C1A 5297   7.583  13.904  13.964 -0.1092  0.0496 -0.1621
  452DOPC   D2A 5298   7.529  14.140  13.521 -0.1831 -0.0767  0.1159
  452DOPC   C3A 5299   7.409  14.579  13.452  0.0591  0.1909  0.0435
  452DOPC   C4A 5300   7.675  14.960  13.451 -0.1557 -0.1584  0.0037
  452DOPC   C1B 5301   7.059  13.269  14.328  0.0102 -0.3667 -0.1469
  452DOPC   D2B 5302   6.832  12.911  14.240  0.2274 -0.2112  0.1716
  452DOPC   C3B 5303   6.857  12.643  13.864  0.3523 -0.0803 -0.0809
  452DOPC   C4B 5304   7.040  12.424  13.499  0.3332  0.0568 -0.2890
  453POSM   NC3 5305   1.061  21.937  14.524  0.0019 -0.2199  0.0264
  453POSM   PO4 5306   0.713  21.814  14.374  0.1508 -0.2426  0.0618
  453POSM   AM1 5307   0.575  21.857  14.064 -0.1218  0.3486  0.1902
  453POSM   AM2 5308   0.489  21.634  13.850 -0.4106  0.0439 -0.2267
  453POSM   T1A 5309   0.606  22.076  13.618 -0.1219 -0.2587  0.1187
  453POSM   C2A 5310   0.711  22.368  13.266  0.0128 -0.2447  0.3658
  453POSM   C3A 5311   0.520  22.459  12.871 -0.0728  0.2429 -0.0862
  453POSM   C1B 5312   0.518  21.524  13.518  0.0854  0.1127  0.1016
  453POSM   D2B 5313   0.535  21.376  13.056  0.1954  0.0329  0.1389
  453POSM   C3B 5314   0.789  21.151  12.738 -0.2346 -0.0175 -0.0387
  453POSM   C4B 5315   1.092  20.928  12.520 -0.4215  0.1414  0.1418
  454DOPC   NC3 5316   3.197  19.820  15.241  0.0397  0.3036 -0.1691
  454DOPC   PO4 5317   3.301  19.749  14.832 -0.1059  0.1135  0.1708
  454DOPC   GL1 5318   3.353  19.691  14.432  0.1028 -0.2745  0.0149
  454DOPC   GL2 5319   3.559  19.410  14.374 -0.1241 -0.0660 -0.3654
  454DOPC   C1A 5320   3.157  19.868  14.064  0.1508 -0.1674 -0.2173
  454DOPC   D2A 5321   3.058  19.708  13.648  0.0950  0.0966 -0.0286
  454DOPC   C3A 5322   3.261  19.843  13.212  0.0556  0.1571  0.2375
  454DOPC   C4A 5323   3.756  19.757  13.154 -0.2801  0.1749  0.2901
  454DOPC   C1B 5324   3.682  19.180  13.969  0.0172 -0.2812 -0.1066
  454DOPC   D2B 5325   3.675  18.846  13.588  0.2367 -0.0322  0.2946
  454DOPC   C3B 5326   4.041  18.732  13.331  0.0304  0.1712  0.4042
  454DOPC   C4B 5327   4.316  18.714  12.907  0.3350  0.0746 -0.1862
  455POSM   NC3 5328   0.850  22.471  13.840 -0.0454 -0.2461  0.3604
  455POSM   PO4 5329   0.632  22.740  13.998  0.4738 -0.0645 -0.0072
  455POSM   AM1 5330   0.720  22.922  13.773  0.4086  0.1855 -0.2574
  455POSM   AM2 5331   0.777  22.851  13.496 -0.1830 -0.2840 -0.2103
  455POSM   T1A 5332   0.640  23.388  13.618  0.0064  0.0830  0.0867
  455POSM   C2A 5333   0.607  23.803  13.325 -0.0570 -0.1143 -0.3394
  455POSM   C3A 5334   0.732  24.142  13.018  0.2115 -0.5958  0.0449
  455POSM   C1B 5335   0.735  22.865  13.166 -0.2468  0.0425  0.0842
  455POSM   D2B 5336   0.850  22.846  12.715  0.0977  0.0690 -0.2724
  455POSM   C3B 5337   0.616  22.949  12.284  0.0575  0.2074 -0.0822
  455POSM   C4B 5338   0.666  22.959  11.834  0.2824 -0.2566  0.3157
  456DOPE   NH3 5339   5.051  16.619  15.419 -0.0696  0.2210 -0.1028
  456DOPE   PO4 5340   5.131  16.889  15.265 -0.0992 -0.0973 -0.0734
  456DOPE   GL1 5341   5.047  16.718  14.940 -0.0621 -0.3810 -0.0810
  456DOPE   GL2 5342   4.875  16.802  14.834 -0.0262 -0.3661  0.2156
  456DOPE   C1A 5343   5.303  16.646  14.521 -0.0373 -0.1541 -0.0046
  456DOPE   D2A 5344   5.554  16.610  14.171 -0.3318  0.1849 -0.0745
  456DOPE   C3A 5345   5.364  17.021  14.109  0.0253 -0.0245 -0.1656
  456DOPE   C4A 5346   5.053  17.344  13.990 -0.0824 -0.0270  0.1480
  456DOPE   C1B 5347   4.907  16.888  14.395 -0.0602  0.0867 -0.0517
  456DOPE   D2B 5348   4.821  16.764  13.966 -0.0350  0.3057  0.3751
  456DOPE   C3B 5349   5.117  16.927  13.683 -0.2982 -0.2758 -0.2935
  456DOPE   C4B 5350   5.560  16.826  13.686  0.0021 -0.0792 -0.1564
  457DOPC   NC3 5351   6.401  10.974  15.320 -0.0670  0.1731  0.0912
  457DOPC   PO4 5352   6.731  11.199  15.341  0.0961 -0.1519  0.0243
  457DOPC   GL1 5353   6.590  11.361  14.950 -0.1798 -0.3990 -0.2226
  457DOPC   GL2 5354   6.402  11.163  14.817  0.0796 -0.0020 -0.1793
  457DOPC   C1A 5355   6.702  11.388  14.495 -0.1006  0.4897  0.1353
  457DOPC   D2A 5356   6.835  11.379  14.035  0.0138 -0.0061 -0.1811
  457DOPC   C3A 5357   6.818  11.097  13.656  0.0001 -0.3009  0.1304
  457DOPC   C4A 5358   6.984  10.774  13.350  0.0867 -0.1014 -0.0255
  457DOPC   C1B 5359   6.214  11.206  14.359 -0.1324  0.3216 -0.2473
  457DOPC   D2B 5360   6.353  11.207  13.913  0.2156 -0.3232 -0.1416
  457DOPC   C3B 5361   6.034  11.491  13.723 -0.1381  0.2270 -0.0435
  457DOPC   C4B 5362   5.634  11.572  13.487  0.1195 -0.3465  0.3577
  458DOPC   NC3 5363   6.970  11.691  15.425 -0.2329  0.1378 -0.0983
  458DOPC   PO4 5364   7.112  11.885  15.108 -0.0512  0.0836 -0.0490
  458DOPC   GL1 5365   6.894  11.951  14.793  0.0662 -0.1374 -0.1180
  458DOPC   GL2 5366   6.591  11.819  14.888 -0.3012 -0.0058  0.0199
  458DOPC   C1A 5367   6.907  11.909  14.354 -0.3278 -0.3134  0.0498
  458DOPC   D2A 5368   6.897  12.008  13.885 -0.0099 -0.0757  0.0827
  458DOPC   C3A 5369   6.562  11.715  13.735 -0.1576  0.0916  0.0865
  458DOPC   C4A 5370   6.370  11.503  13.333  0.0626  0.2640  0.2025
  458DOPC   C1B 5371   6.405  12.077  14.549  0.0227 -0.1812  0.1442
  458DOPC   D2B 5372   6.603  12.312  14.168  0.1272 -0.2438 -0.1446
  458DOPC   C3B 5373   6.536  12.297  13.723 -0.1293  0.0295  0.0126
  458DOPC   C4B 5374   6.552  12.431  13.245 -0.1360  0.0512 -0.1786
  459DOPC   NC3 5375   5.693  15.872  15.276 -0.0356 -0.1253 -0.0872
  459DOPC   PO4 5376   6.000  15.846  14.995  0.0552 -0.0254 -0.1446
  459DOPC   GL1 5377   5.913  15.856  14.566  0.3180  0.2754 -0.2106
  459DOPC   GL2 5378   6.223  15.679  14.489 -0.0651 -0.2044  0.0032
  459DOPC   C1A 5379   5.677  15.984  14.181  0.1426 -0.2593 -0.4002
  459DOPC   D2A 5380   5.834  16.278  13.862 -0.0064 -0.1253  0.0921
  459DOPC   C3A 5381   5.972  16.694  13.957 -0.2207 -0.0351 -0.2254
  459DOPC   C4A 5382   6.227  17.082  14.130  0.1076 -0.1735 -0.0406
  459DOPC   C1B 5383   6.153  15.915  14.207  0.3849 -0.0148 -0.3628
  459DOPC   D2B 5384   6.237  15.930  13.777 -0.3709  0.4089 -0.0544
  459DOPC   C3B 5385   5.838  15.836  13.518  0.3838 -0.0776  0.0911
  459DOPC   C4B 5386   5.622  15.678  13.111  0.0002  0.2355 -0.0065
  460DOPC   NC3 5387  11.071  19.103  13.190 -0.2121  0.0281 -0.0203
  460DOPC   PO4 5388  11.220  18.890  13.500  0.3123  0.1524  0.2835
  460DOPC   GL1 5389  11.242  18.693  13.094  0.1466  0.0283  0.0127
  460DOPC   GL2 5390  11.434  18.468  13.023  0.0458  0.1930  0.0907
  460DOPC   C1A 5391  10.948  18.695  12.721  0.0251  0.2478  0.3362
  460DOPC   D2A 5392  10.815  18.381  12.405  0.1976 -0.0532  0.2039
  460DOPC   C3A 5393  10.908  17.942  12.390 -0.1905  0.1171 -0.4256
  460DOPC   C4A 5394  11.024  17.593  12.139  0.0705  0.1509  0.1132
  460DOPC   C1B 5395  11.207  18.160  12.780 -0.2293 -0.0898  0.2569
  460DOPC   D2B 5396  11.144  17.703  12.799 -0.1300  0.2683  0.2228
  460DOPC   C3B 5397  10.788  17.417  12.782  0.3320  0.0607  0.2435
  460DOPC   C4B 5398  10.347  17.282  12.735 -0.1423  0.2167 -0.0640
  461DOPS   CNO 5399   5.293  16.139  15.473  0.0887  0.1029 -0.2822
  461DOPS   PO4 5400   5.329  16.129  15.103  0.5051 -0.1131 -0.0560
  461DOPS   GL1 5401   5.176  16.284  14.792  0.2269 -0.2822  0.1979
  461DOPS   GL2 5402   5.213  16.134  14.551 -0.1141 -0.0749  0.2630
  461DOPS   C1A 5403   4.816  16.415  14.515  0.1944  0.0046  0.0140
  461DOPS   D2A 5404   4.478  16.641  14.357  0.2444  0.1210 -0.0705
  461DOPS   C3A 5405   4.261  16.776  13.996  0.0092  0.0897  0.2265
  461DOPS   C4A 5406   4.318  16.923  13.595 -0.2021  0.1956  0.0876
  461DOPS   C1B 5407   5.136  16.314  14.120  0.1207  0.1841 -0.2113
  461DOPS   D2B 5408   4.880  16.056  13.870 -0.0107  0.0818  0.1052
  461DOPS   C3B 5409   4.482  15.757  13.953  0.0301 -0.3746 -0.2906
  461DOPS   C4B 5410   4.014  15.700  13.952 -0.0439  0.0401  0.3276
  462DOPC   NC3 5411   4.582  15.917  15.236  0.1383 -0.0009  0.0663
  462DOPC   PO4 5412   4.951  15.848  15.243 -0.2399 -0.0335 -0.0061
  462DOPC   GL1 5413   4.964  15.744  14.879  0.0448 -0.0370 -0.0501
  462DOPC   GL2 5414   4.704  15.951  14.774 -0.0751 -0.0106 -0.1340
  462DOPC   C1A 5415   5.153  15.527  14.553 -0.1098 -0.0436 -0.4971
  462DOPC   D2A 5416   5.584  15.521  14.399  0.2030 -0.0133 -0.0747
  462DOPC   C3A 5417   5.618  15.527  13.953 -0.1153 -0.2609 -0.2960
  462DOPC   C4A 5418   5.392  15.592  13.596  0.0948 -0.1933  0.3241
  462DOPC   C1B 5419   4.842  15.924  14.311 -0.1495 -0.2222  0.1547
  462DOPC   D2B 5420   5.213  15.729  14.098 -0.0591 -0.1882  0.4957
  462DOPC   C3B 5421   5.355  16.065  13.769  0.0536  0.2323 -0.0650
  462DOPC   C4B 5422   5.134  16.443  13.592  0.0188 -0.0317 -0.1204
  463DOPS   CNO 5423   8.950  18.307  13.830 -0.1574 -0.2658  0.1137
  463DOPS   PO4 5424   9.030  18.585  14.100  0.1081 -0.0924  0.2450
  463DOPS   GL1 5425   8.981  18.803  13.801  0.0055 -0.3149  0.3872
  463DOPS   GL2 5426   9.217  18.847  13.628 -0.0515 -0.4028 -0.1853
  463DOPS   C1A 5427   8.662  19.121  13.572  0.2455  0.0900  0.0332
  463DOPS   D2A 5428   8.369  19.279  13.315 -0.4436  0.0725  0.1181
  463DOPS   C3A 5429   8.024  19.262  12.969 -0.4321 -0.0694  0.0928
  463DOPS   C4A 5430   7.563  19.134  12.815 -0.1078  0.1191 -0.0520
  463DOPS   C1B 5431   8.951  18.726  13.291 -0.0818  0.1914  0.1250
  463DOPS   D2B 5432   8.604  18.444  13.455  0.0968  0.2555 -0.0774
  463DOPS   C3B 5433   8.255  18.221  13.248  0.1856  0.2724 -0.3872
  463DOPS   C4B 5434   7.805  18.105  13.179 -0.1444 -0.2666  0.1159
  464POSM   NC3 5435  13.836  10.495  14.751 -0.2835 -0.0685 -0.0875
  464POSM   PO4 5436  14.166  10.347  14.582  0.1629  0.0784  0.0157
  464POSM   AM1 5437  14.031  10.147  14.361  0.3242  0.1267  0.0487
  464POSM   AM2 5438  13.749  10.066  14.331 -0.1227 -0.2369  0.0751
  464POSM   T1A 5439  14.018   9.662  14.092 -0.0222 -0.1827  0.2156
  464POSM   C2A 5440  14.075   9.290  13.905  0.1427 -0.0067  0.0607
  464POSM   C3A 5441  13.901   8.983  13.634 -0.0629 -0.2240 -0.0778
  464POSM   C1B 5442  13.751  10.104  13.988  0.0057 -0.0126  0.0435
  464POSM   D2B 5443  13.893   9.910  13.578 -0.3010  0.1775 -0.0959
  464POSM   C3B 5444  13.956  10.180  13.172 -0.1192 -0.0703 -0.1229
  464POSM   C4B 5445  14.078  10.288  12.732 -0.1453 -0.5137  0.0133
  465DOPS   CNO 5446   5.980  14.815  15.441  0.0610  0.3037  0.0023
  465DOPS   PO4 5447   6.009  14.976  15.104 -0.3587 -0.1121 -0.1890
  465DOPS   GL1 5448   6.374  15.113  14.820  0.2228 -0.0620 -0.2616
  465DOPS   GL2 5449   6.409  14.851  14.731 -0.0096 -0.0183  0.1989
  465DOPS   C1A 5450   6.349  15.212  14.350 -0.4258  0.2531  0.0154
  465DOPS   D2A 5451   6.054  15.374  14.057 -0.1041  0.0352 -0.0472
  465DOPS   C3A 5452   6.055  15.390  13.568 -0.0036 -0.0949 -0.0385
  465DOPS   C4A 5453   6.118  15.428  13.114  0.3652 -0.0738 -0.2820
  465DOPS   C1B 5454   6.102  14.755  14.403 -0.0573 -0.3506  0.0549
  465DOPS   D2B 5455   5.780  14.964  14.197  0.1739  0.1310  0.0698
  465DOPS   C3B 5456   5.680  15.049  13.677 -0.0122 -0.5076  0.1377
  465DOPS   C4B 5457   5.617  15.185  13.260 -0.1611  0.0169 -0.1194
  466DOPS   CNO 5458   2.060  13.508  16.400 -0.2026  0.0097  0.0933
  466DOPS   PO4 5459   1.766  13.600  16.172  0.0559 -0.2947  0.0362
  466DOPS   GL1 5460   1.577  13.747  15.798  0.4788 -0.0068  0.1690
  466DOPS   GL2 5461   1.851  13.846  15.672  0.1492 -0.3934 -0.1421
  466DOPS   C1A 5462   1.341  13.711  15.332  0.1684  0.2483 -0.0784
  466DOPS   D2A 5463   1.042  13.465  15.089 -0.2241 -0.3270  0.1210
  466DOPS   C3A 5464   1.100  13.017  14.989 -0.1167  0.2591  0.0693
  466DOPS   C4A 5465   1.185  12.687  14.627  0.4674 -0.1925  0.1566
  466DOPS   C1B 5466   2.115  13.984  15.318  0.0574 -0.2459  0.2359
  466DOPS   D2B 5467   2.110  14.310  15.009  0.0156  0.1106  0.1312
  466DOPS   C3B 5468   1.727  14.447  14.827  0.0878 -0.0145 -0.1947
  466DOPS   C4B 5469   1.425  14.555  14.480  0.1329  0.1771 -0.1538
  467DOPE   NH3 5470   5.323  14.226  15.396  0.0709  0.2993  0.0555
  467DOPE   PO4 5471   5.183  13.929  15.345  0.0146  0.0685  0.2601
  467DOPE   GL1 5472   5.247  13.966  15.021  0.1995  0.2588 -0.1258
  467DOPE   GL2 5473   5.092  14.153  14.872  0.1100 -0.0241  0.3122
  467DOPE   C1A 5474   5.302  13.688  14.620 -0.2702 -0.2001  0.0455
  467DOPE   D2A 5475   5.589  13.635  14.180  0.0028  0.1053  0.0586
  467DOPE   C3A 5476   5.330  13.569  13.800  0.0618 -0.2936  0.1410
  467DOPE   C4A 5477   5.070  13.475  13.387  0.0027 -0.0717 -0.4381
  467DOPE   C1B 5478   5.053  14.283  14.450  0.1371  0.3732  0.0096
  467DOPE   D2B 5479   4.702  14.340  14.270 -0.1974  0.2885  0.1530
  467DOPE   C3B 5480   4.568  14.269  13.844 -0.1374 -0.2805 -0.1132
  467DOPE   C4B 5481   4.550  14.106  13.414 -0.0559  0.1795  0.1096
  468DOPE   NH3 5482  11.543   8.539  15.071  0.0630 -0.3336 -0.1241
  468DOPE   PO4 5483  11.648   8.798  14.869  0.0493 -0.1152  0.0173
  468DOPE   GL1 5484  11.812   8.543  14.532 -0.0804  0.0399  0.3492
  468DOPE   GL2 5485  11.659   8.726  14.385 -0.1212  0.2462 -0.2442
  468DOPE   C1A 5486  11.899   8.408  14.096  0.0587  0.1418  0.0823
  468DOPE   D2A 5487  11.708   8.126  13.752 -0.1553 -0.1630 -0.2476
  468DOPE   C3A 5488  11.663   8.161  13.282 -0.4528  0.2410  0.0385
  468DOPE   C4A 5489  11.780   8.259  12.835  0.3082 -0.2657 -0.1567
  468DOPE   C1B 5490  11.760   8.877  13.959  0.4863  0.1369  0.1332
  468DOPE   D2B 5491  11.440   8.939  13.631  0.1766  0.3318 -0.0507
  468DOPE   C3B 5492  11.384   9.318  13.518  0.0195 -0.3319  0.0080
  468DOPE   C4B 5493  11.010   9.608  13.433 -0.1285  0.1772  0.0741
  469DOPE   NH3 5494   7.501  21.411  14.850 -0.1414  0.0112  0.2275
  469DOPE   PO4 5495   7.352  21.332  14.596  0.0589 -0.1346  0.2178
  469DOPE   GL1 5496   7.560  21.360  14.261  0.4451 -0.0739 -0.2772
  469DOPE   GL2 5497   7.205  21.331  14.120  0.1379 -0.5757 -0.1074
  469DOPE   C1A 5498   7.575  21.199  13.818 -0.1128 -0.0755  0.3365
  469DOPE   D2A 5499   7.643  21.152  13.367 -0.1589 -0.1341 -0.3186
  469DOPE   C3A 5500   7.873  20.778  13.143  0.0797 -0.1099 -0.0805
  469DOPE   C4A 5501   7.901  20.341  13.016  0.0706  0.1280  0.2292
  469DOPE   C1B 5502   7.089  21.461  13.725 -0.0931 -0.2174 -0.0444
  469DOPE   D2B 5503   7.176  21.435  13.308 -0.1975  0.2544  0.0610
  469DOPE   C3B 5504   7.046  21.118  13.000  0.1168  0.2498 -0.1548
  469DOPE   C4B 5505   7.096  20.791  12.633  0.1433 -0.3038 -0.0832
  470DOPC   NC3 5506   7.167  15.305  15.231  0.3317 -0.2132 -0.0246
  470DOPC   PO4 5507   7.037  15.646  15.048 -0.1369 -0.1733  0.1073
  470DOPC   GL1 5508   7.214  15.767  14.689 -0.1248 -0.2174 -0.2959
  470DOPC   GL2 5509   6.988  15.610  14.512  0.1752 -0.1424  0.1114
  470DOPC   C1A 5510   7.225  15.949  14.280 -0.3895  0.0861 -0.0877
  470DOPC   D2A 5511   7.402  15.922  13.834 -0.0695 -0.0627  0.0682
  470DOPC   C3A 5512   7.775  15.907  14.057 -0.1803  0.0382  0.0889
  470DOPC   C4A 5513   8.197  15.822  13.982  0.1943  0.0262  0.1890
  470DOPC   C1B 5514   6.664  15.635  14.198  0.3516 -0.1736 -0.0422
  470DOPC   D2B 5515   6.640  15.496  13.736  0.2686  0.0478  0.0315
  470DOPC   C3B 5516   6.368  15.768  13.343 -0.0943 -0.1058 -0.0917
  470DOPC   C4B 5517   6.175  16.202  13.284  0.2848  0.0022 -0.1036
  471DOPC   NC3 5518  10.423  15.455  14.209 -0.0718 -0.0916 -0.2955
  471DOPC   PO4 5519  10.752  15.676  14.183 -0.2160 -0.1314 -0.4404
  471DOPC   GL1 5520  10.715  15.600  13.804 -0.0983 -0.0656  0.1601
  471DOPC   GL2 5521  10.529  15.750  13.690 -0.0161  0.0261  0.2185
  471DOPC   C1A 5522  10.710  15.259  13.565 -0.0852 -0.0085 -0.0941
  471DOPC   D2A 5523  10.754  15.010  13.191 -0.0743  0.1673  0.2328
  471DOPC   C3A 5524  10.948  14.882  12.768 -0.3322 -0.0039 -0.0516
  471DOPC   C4A 5525  11.055  14.527  12.582  0.0148 -0.2920 -0.2610
  471DOPC   C1B 5526  10.451  15.550  13.236  0.0271  0.2625 -0.1390
  471DOPC   D2B 5527  10.880  15.487  13.095  0.2095  0.1102 -0.0979
  471DOPC   C3B 5528  10.918  15.348  12.632 -0.2179 -0.1206 -0.1964
  471DOPC   C4B 5529  10.988  15.037  12.280  0.2621  0.1129 -0.2006
  472POSM   NC3 5530   4.225  15.748  15.990  0.2354  0.1241  0.0967
  472POSM   PO4 5531   4.212  15.974  15.656 -0.3340 -0.2021 -0.1436
  472POSM   AM1 5532   4.095  15.905  15.358  0.5471  0.5075  0.1997
  472POSM   AM2 5533   3.835  15.958  15.254 -0.2348  0.0357 -0.1917
  472POSM   T1A 5534   4.121  15.981  14.835 -0.0782  0.0752 -0.0821
  472POSM   C2A 5535   3.862  16.073  14.488  0.0274  0.2300  0.1908
  472POSM   C3A 5536   3.647  15.982  14.090 -0.0614 -0.1572  0.0537
  472POSM   C1B 5537   3.624  15.869  14.938  0.0671 -0.2609 -0.0585
  472POSM   D2B 5538   3.312  15.949  14.557  0.1480 -0.0251  0.1800
  472POSM   C3B 5539   3.253  16.243  14.207  0.1975  0.0052  0.2548
  472POSM   C4B 5540   3.516  16.449  13.859  0.3109  0.1504  0.0207
  473POSM   NC3 5541   2.343  23.615  14.300 -0.2481 -0.4691  0.1297
  473POSM   PO4 5542   2.739  23.561  14.234 -0.2953 -0.1291  0.0980
  473POSM   AM1 5543   2.647  23.684  13.972 -0.2668  0.2071  0.3761
  473POSM   AM2 5544   2.628  23.983  13.842 -0.3960  0.0834 -0.1455
  473POSM   T1A 5545   2.325  23.494  13.647  0.1381 -0.1264  0.3027
  473POSM   C2A 5546   1.971  23.295  13.552 -0.0811 -0.3837  0.0726
  473POSM   C3A 5547   1.685  23.087  13.225  0.1629  0.1395 -0.0468
  473POSM   C1B 5548   2.579  24.070  13.569  0.1112 -0.3409 -0.0108
  473POSM   D2B 5549   2.420  24.282  13.235  0.0823  0.0378 -0.1573
  473POSM   C3B 5550   2.422  23.913  12.927  0.2368 -0.1469 -0.1687
  473POSM   C4B 5551   2.495  23.608  12.593 -0.2929 -0.1880  0.3569
  474DOPE   NH3 5552   4.726  13.958  15.668  0.4161 -0.1623 -0.1717
  474DOPE   PO4 5553   4.458  13.811  15.572 -0.0863  0.1155  0.3244
  474DOPE   GL1 5554   4.217  13.863  15.282 -0.0765 -0.1613 -0.2587
  474DOPE   GL2 5555   3.953  13.916  15.307  0.1618  0.1054 -0.0670
  474DOPE   C1A 5556   4.237  13.668  14.877  0.0440 -0.2302 -0.0863
  474DOPE   D2A 5557   4.280  13.586  14.438 -0.0194  0.1378 -0.0845
  474DOPE   C3A 5558   3.936  13.836  14.267  0.3466 -0.3740  0.0767
  474DOPE   C4A 5559   3.502  13.954  14.162 -0.1357 -0.3608  0.0280
  474DOPE   C1B 5560   3.760  13.844  14.890  0.0977 -0.0275 -0.0112
  474DOPE   D2B 5561   3.375  13.779  14.648 -0.0980 -0.0897  0.2648
  474DOPE   C3B 5562   3.197  13.629  14.199 -0.0786 -0.3783 -0.1650
  474DOPE   C4B 5563   3.279  13.486  13.800  0.3005 -0.0224  0.1799
  475DOPE   NH3 5564   3.543  13.890  15.673  0.3657 -0.2620 -0.0494
  475DOPE   PO4 5565   3.319  13.717  15.781 -0.0247  0.2083 -0.1407
  475DOPE   GL1 5566   3.098  13.925  15.521  0.2574 -0.5622 -0.0741
  475DOPE   GL2 5567   3.216  13.967  15.281 -0.2914  0.1788 -0.0249
  475DOPE   C1A 5568   2.703  13.779  15.258 -0.3521 -0.2196 -0.1098
  475DOPE   D2A 5569   2.648  13.744  14.828 -0.0195  0.2472 -0.1365
  475DOPE   C3A 5570   2.818  13.488  14.541  0.1189  0.1929  0.0297
  475DOPE   C4A 5571   2.857  13.137  14.317  0.1146  0.1955  0.0855
  475DOPE   C1B 5572   3.046  14.071  14.879  0.1124 -0.0178 -0.0657
  475DOPE   D2B 5573   2.928  14.035  14.361  0.4564  0.1692 -0.2894
  475DOPE   C3B 5574   2.673  13.705  14.137 -0.2430  0.0069 -0.2053
  475DOPE   C4B 5575   2.584  13.455  13.744 -0.0602 -0.0480  0.0722
  476DOPE   NH3 5576   3.695  25.589  14.047 -0.0607 -0.0148 -0.0845
  476DOPE   PO4 5577   3.996  25.463  14.052 -0.1056  0.0369  0.2150
  476DOPE   GL1 5578   3.818  25.355  13.658 -0.4510  0.1384 -0.2853
  476DOPE   GL2 5579   3.629  25.598  13.589 -0.1092  0.2780  0.0314
  476DOPE   C1A 5580   4.043  25.282  13.280  0.0423 -0.1610 -0.1843
  476DOPE   D2A 5581   4.034  25.082  12.861  0.0108 -0.0247 -0.2723
  476DOPE   C3A 5582   3.655  24.895  12.677  0.2804  0.0728 -0.0048
  476DOPE   C4A 5583   3.529  24.761  12.228  0.2502  0.2456  0.2562
  476DOPE   C1B 5584   3.525  25.286  13.222 -0.0991  0.0006  0.2208
  476DOPE   D2B 5585   3.264  25.267  12.823 -0.3469 -0.0151  0.2398
  476DOPE   C3B 5586   3.175  25.061  12.402 -0.3159 -0.1991 -0.1442
  476DOPE   C4B 5587   3.097  24.876  11.986  0.0895 -0.2216  0.0963
  477DOPC   NC3 5588   0.260  11.587  15.718  0.1880 -0.0937 -0.0065
  477DOPC   PO4 5589  -0.090  11.399  15.579 -0.1126 -0.1462 -0.1036
  477DOPC   GL1 5590  -0.164  11.551  15.185  0.1273 -0.1546  0.2561
  477DOPC   GL2 5591   0.059  11.699  15.232 -0.1059  0.3829 -0.5817
  477DOPC   C1A 5592  -0.361  11.366  14.795 -0.0343  0.0623  0.1502
  477DOPC   D2A 5593  -0.458  11.430  14.349  0.2263 -0.1068 -0.0667
  477DOPC   C3A 5594  -0.636  11.724  14.060  0.1926 -0.1169  0.0858
  477DOPC   C4A 5595  -0.788  12.088  13.765  0.2004 -0.2075 -0.1578
  477DOPC   C1B 5596   0.024  11.773  14.768 -0.0169  0.1206 -0.1988
  477DOPC   D2B 5597  -0.022  11.622  14.332 -0.2454  0.0165 -0.0911
  477DOPC   C3B 5598  -0.209  11.995  14.064  0.1782 -0.0360 -0.2229
  477DOPC   C4B 5599  -0.209  12.224  13.668  0.3404 -0.0202 -0.2095
  478DOPC   NC3 5600   0.873  16.951  15.174  0.0889  0.2313  0.1327
  478DOPC   PO4 5601   1.054  17.236  15.382 -0.0125 -0.2124 -0.0094
  478DOPC   GL1 5602   1.189  17.475  15.056 -0.5327 -0.0831 -0.0971
  478DOPC   GL2 5603   1.132  17.237  14.873 -0.0525  0.0297 -0.3793
  478DOPC   C1A 5604   1.409  17.683  14.686 -0.1228  0.3368 -0.3263
  478DOPC   D2A 5605   1.276  17.801  14.245  0.1568 -0.1033 -0.2860
  478DOPC   C3A 5606   1.419  17.540  13.924 -0.0529  0.0472  0.1969
  478DOPC   C4A 5607   1.557  17.387  13.492  0.3327  0.1116  0.0800
  478DOPC   C1B 5608   1.308  16.836  14.633 -0.0291 -0.0267  0.3907
  478DOPC   D2B 5609   1.381  16.810  14.199  0.0601 -0.0222  0.4895
  478DOPC   C3B 5610   1.734  16.554  14.041 -0.0320 -0.4668 -0.1820
  478DOPC   C4B 5611   1.720  16.121  14.061  0.0952  0.1889 -0.1333
  479POSM   NC3 5612   5.105  12.968  15.538  0.1674  0.2214 -0.0956
  479POSM   PO4 5613   5.450  12.943  15.384 -0.0132  0.0848 -0.0692
  479POSM   AM1 5614   5.535  13.023  15.091 -0.0161  0.1967  0.3863
  479POSM   AM2 5615   5.644  12.883  14.881 -0.1279  0.0606  0.2479
  479POSM   T1A 5616   5.240  13.074  14.672 -0.2920 -0.1288  0.1761
  479POSM   C2A 5617   5.166  13.161  14.223 -0.0525 -0.2188 -0.0329
  479POSM   C3A 5618   5.527  13.096  13.943  0.1546  0.1203  0.0536
  479POSM   C1B 5619   5.729  12.729  14.547 -0.2519 -0.3574 -0.3244
  479POSM   D2B 5620   5.990  12.458  14.231  0.1385  0.2274 -0.2486
  479POSM   C3B 5621   6.272  12.673  13.949 -0.2285 -0.0750  0.0974
  479POSM   C4B 5622   6.465  12.899  13.623  0.1390  0.0624  0.1680
  480DOPC   NC3 5623   2.930  25.354  14.506  0.2194  0.0486  0.0060
  480DOPC   PO4 5624   3.224  25.473  14.258  0.1610  0.3524 -0.2573
  480DOPC   GL1 5625   3.327  25.329  13.857  0.1563 -0.5460 -0.1362
  480DOPC   GL2 5626   3.082  25.363  13.707  0.0388  0.2399 -0.0136
  480DOPC   C1A 5627   3.515  24.990  13.632 -0.0352  0.4534 -0.1697
  480DOPC   D2A 5628   3.229  24.634  13.542 -0.0639  0.2918  0.0631
  480DOPC   C3A 5629   2.785  24.563  13.371  0.2911  0.0073 -0.1727
  480DOPC   C4A 5630   2.389  24.778  13.274  0.1559  0.1674 -0.1965
  480DOPC   C1B 5631   3.048  25.043  13.313  0.0725 -0.2473 -0.4165
  480DOPC   D2B 5632   2.888  24.795  12.948 -0.1934  0.1602 -0.3031
  480DOPC   C3B 5633   3.107  24.595  12.590  0.0687 -0.1195  0.2594
  480DOPC   C4B 5634   3.322  24.312  12.263  0.0005  0.1347 -0.2624
  481DOPE   NH3 5635   9.130  14.034  14.923 -0.2160  0.0580 -0.1324
  481DOPE   PO4 5636   8.817  14.088  14.951 -0.0885 -0.0553 -0.0518
  481DOPE   GL1 5637   8.856  13.823  14.566 -0.3875  0.1530  0.2202
  481DOPE   GL2 5638   8.785  13.548  14.690  0.0966  0.0184  0.1603
  481DOPE   C1A 5639   9.109  13.970  14.167  0.0987  0.2190 -0.3614
  481DOPE   D2A 5640   9.051  14.130  13.781 -0.0293  0.0361  0.0632
  481DOPE   C3A 5641   9.113  13.892  13.350  0.0685  0.2035  0.2462
  481DOPE   C4A 5642   9.104  13.736  12.904  0.0065  0.0411  0.2421
  481DOPE   C1B 5643   8.790  13.477  14.243  0.3376  0.3692 -0.2485
  481DOPE   D2B 5644   8.844  13.708  13.827  0.1939 -0.2664  0.0679
  481DOPE   C3B 5645   8.945  13.462  13.483  0.1546 -0.3862  0.1316
  481DOPE   C4B 5646   9.380  13.243  13.388 -0.0508  0.2083 -0.0321
  482DOPC   NC3 5647   5.638  19.203  14.812 -0.4081 -0.0816 -0.0585
  482DOPC   PO4 5648   5.298  19.160  14.907 -0.1469  0.1223  0.0970
  482DOPC   GL1 5649   5.146  19.028  14.583  0.1621 -0.1529 -0.2749
  482DOPC   GL2 5650   4.893  19.073  14.642 -0.3838  0.0786  0.1467
  482DOPC   C1A 5651   5.034  19.325  14.151 -0.0738  0.3436 -0.2225
  482DOPC   D2A 5652   5.302  19.478  13.801  0.2579 -0.3235  0.0052
  482DOPC   C3A 5653   5.655  19.510  13.450  0.1349  0.0516 -0.1196
  482DOPC   C4A 5654   6.043  19.671  13.204  0.0388 -0.1027 -0.1046
  482DOPC   C1B 5655   5.048  18.573  14.660  0.0955  0.1248  0.0230
  482DOPC   D2B 5656   5.071  18.191  14.391 -0.1035 -0.0619  0.1261
  482DOPC   C3B 5657   4.949  17.802  14.240 -0.0556 -0.2544  0.0692
  482DOPC   C4B 5658   4.888  17.377  14.487 -0.1900 -0.0240  0.3627
  483DOPE   NH3 5659   0.488  20.147  14.566  0.0443  0.2326  0.2070
  483DOPE   PO4 5660   0.538  19.888  14.413 -0.1503  0.1074 -0.0730
  483DOPE   GL1 5661   0.548  19.558  14.123  0.2826  0.1330  0.1286
  483DOPE   GL2 5662   0.468  19.403  14.347  0.2700 -0.1950 -0.1298
  483DOPE   C1A 5663   0.756  19.538  13.676  0.0870 -0.2533 -0.0859
  483DOPE   D2A 5664   0.848  19.422  13.200  0.0262  0.2640 -0.0794
  483DOPE   C3A 5665   1.108  19.018  13.331  0.1248 -0.0249  0.1716
  483DOPE   C4A 5666   1.026  18.720  13.654 -0.1098  0.0153  0.1536
  483DOPE   C1B 5667   0.388  19.183  13.938  0.0486 -0.0553  0.2491
  483DOPE   D2B 5668   0.623  18.962  13.565  0.2873  0.2251  0.0341
  483DOPE   C3B 5669   0.570  18.540  13.445  0.0322 -0.2880  0.2344
  483DOPE   C4B 5670   0.877  18.169  13.374  0.3359  0.0956 -0.0487
  484DOPE   NH3 5671   7.201   9.593  14.558  0.1849  0.3100 -0.0329
  484DOPE   PO4 5672   7.504   9.704  14.598 -0.2862  0.3169  0.4297
  484DOPE   GL1 5673   7.691  10.023  14.446 -0.1103  0.0585 -0.0582
  484DOPE   GL2 5674   7.961   9.947  14.427  0.1630 -0.0453 -0.0961
  484DOPE   C1A 5675   7.604  10.471  14.277 -0.3588 -0.1316 -0.0496
  484DOPE   D2A 5676   7.883  10.678  14.026  0.0002  0.0677  0.0110
  484DOPE   C3A 5677   7.806  10.871  13.644  0.3486  0.3829 -0.0757
  484DOPE   C4A 5678   7.689  10.969  13.242 -0.2126  0.0455  0.1286
  484DOPE   C1B 5679   8.131   9.891  14.041 -0.0417  0.0552 -0.0869
  484DOPE   D2B 5680   8.065   9.913  13.620  0.0066  0.0264  0.5134
  484DOPE   C3B 5681   8.429  10.094  13.411  0.2700 -0.1143 -0.2916
  484DOPE   C4B 5682   8.763   9.913  13.282 -0.1333  0.1706 -0.2519
  485DOPC   NC3 5683   7.823  14.446  14.751  0.0171 -0.1564 -0.0604
  485DOPC   PO4 5684   7.834  14.839  14.706  0.0591 -0.1452 -0.5238
  485DOPC   GL1 5685   7.675  15.017  14.401 -0.0878 -0.0922  0.1729
  485DOPC   GL2 5686   7.544  14.766  14.300  0.0358 -0.0274  0.0188
  485DOPC   C1A 5687   7.374  15.333  14.198 -0.2642  0.2037 -0.4126
  485DOPC   D2A 5688   7.061  15.526  13.923  0.0507  0.2003  0.0859
  485DOPC   C3A 5689   7.113  15.697  13.507 -0.0505 -0.0467  0.1858
  485DOPC   C4A 5690   7.150  15.820  13.086  0.0108 -0.3483  0.1778
  485DOPC   C1B 5691   7.285  14.860  13.928 -0.1170  0.1661  0.1391
  485DOPC   D2B 5692   7.216  15.143  13.553 -0.1222  0.2538  0.0556
  485DOPC   C3B 5693   7.437  15.386  13.257 -0.4197  0.0137 -0.1453
  485DOPC   C4B 5694   7.625  15.748  12.964  0.0530 -0.1610 -0.1899
  486DOPC   NC3 5695   3.244  15.631  15.758 -0.2567 -0.0818  0.5241
  486DOPC   PO4 5696   3.311  15.263  15.795  0.1171 -0.2925 -0.1315
  486DOPC   GL1 5697   3.256  15.188  15.392  0.2077  0.2217  0.0771
  486DOPC   GL2 5698   3.190  14.956  15.455  0.0754 -0.1874 -0.0870
  486DOPC   C1A 5699   3.078  15.083  14.986 -0.0483  0.0735 -0.0480
  486DOPC   D2A 5700   2.805  15.057  14.612  0.0857 -0.2027  0.1130
  486DOPC   C3A 5701   2.886  15.122  14.145 -0.2275  0.0914  0.2922
  486DOPC   C4A 5702   2.591  15.343  13.839 -0.1932  0.0104 -0.0548
  486DOPC   C1B 5703   3.511  14.796  15.131  0.2457  0.0903 -0.2890
  486DOPC   D2B 5704   3.928  14.867  14.929  0.0472  0.2505  0.2941
  486DOPC   C3B 5705   3.924  14.906  14.521  0.2164 -0.3429  0.2206
  486DOPC   C4B 5706   3.782  15.200  14.159 -0.5000 -0.0451  0.1808
  487DOPC   NC3 5707   7.650  22.259  14.386  0.1433  0.0415 -0.1981
  487DOPC   PO4 5708   7.306  22.298  14.469  0.2392 -0.3000 -0.1820
  487DOPC   GL1 5709   7.171  22.265  14.144  0.2171  0.2694 -0.1413
  487DOPC   GL2 5710   6.896  22.235  14.090  0.2566 -0.0644  0.1540
  487DOPC   C1A 5711   7.446  22.224  13.789 -0.1140 -0.0811  0.1069
  487DOPC   D2A 5712   7.472  22.434  13.381 -0.1730  0.1709 -0.0176
  487DOPC   C3A 5713   7.229  22.378  13.064  0.2590  0.0631  0.2352
  487DOPC   C4A 5714   7.345  22.376  12.600  0.1724  0.0422 -0.0114
  487DOPC   C1B 5715   6.841  21.989  13.722 -0.0685 -0.0010  0.2924
  487DOPC   D2B 5716   7.182  21.949  13.399 -0.1584 -0.0190  0.0568
  487DOPC   C3B 5717   7.168  21.915  12.969  0.0329  0.1754 -0.0630
  487DOPC   C4B 5718   6.966  21.575  12.714  0.0346  0.0693 -0.1466
  488DOPC   NC3 5719  33.753  14.691  15.357 -0.1444 -0.2216  0.0856
  488DOPC   PO4 5720  33.895  14.377  15.541 -0.1611 -0.1937 -0.0609
  488DOPC   GL1 5721  34.029  14.336  15.148 -0.1977 -0.2556  0.4543
  488DOPC   GL2 5722  33.857  14.172  14.944  0.0989  0.1138 -0.2431
  488DOPC   C1A 5723  34.053  14.750  14.874 -0.0887  0.0626 -0.3192
  488DOPC   D2A 5724  34.031  14.841  14.386  0.0107 -0.1876 -0.0059
  488DOPC   C3A 5725  34.352  14.785  14.032 -0.0768  0.3450  0.0967
  488DOPC   C4A 5726  34.673  14.584  13.747  0.0433 -0.2618 -0.0480
  488DOPC   C1B 5727  33.749  14.443  14.592 -0.1640  0.1599  0.2470
  488DOPC   D2B 5728  33.576  14.654  14.231 -0.1531  0.0778  0.0412
  488DOPC   C3B 5729  33.572  14.559  13.801  0.1232  0.0246 -0.2889
  488DOPC   C4B 5730  33.546  14.507  13.360  0.1245 -0.0529  0.1635
  489DOPC   NC3 5731   6.599  15.489  14.817 -0.1757 -0.1096 -0.2246
  489DOPC   PO4 5732   6.808  15.139  14.915  0.0011 -0.0227 -0.0841
  489DOPC   GL1 5733   6.972  15.186  14.547 -0.0684  0.1076  0.2980
  489DOPC   GL2 5734   6.903  14.847  14.481  0.1177 -0.0733  0.0341
  489DOPC   C1A 5735   6.856  15.148  14.099 -0.1566  0.0095 -0.0656
  489DOPC   D2A 5736   6.778  15.000  13.679 -0.0460  0.1064 -0.1033
  489DOPC   C3A 5737   6.556  14.607  13.695 -0.2586  0.0814  0.1238
  489DOPC   C4A 5738   6.661  14.204  13.888  0.3784  0.0600  0.1115
  489DOPC   C1B 5739   7.027  14.433  14.311 -0.2679 -0.2337  0.2491
  489DOPC   D2B 5740   7.250  14.267  13.927 -0.2023 -0.0914  0.1659
  489DOPC   C3B 5741   7.039  14.255  13.475  0.3538 -0.1271  0.2181
  489DOPC   C4B 5742   7.135  14.388  13.015 -0.1119 -0.1515  0.0463
  490DOPE   NH3 5743  10.331  19.237  13.906 -0.0192  0.0118  0.3213
  490DOPE   PO4 5744  10.329  19.059  13.687  0.0189  0.2606  0.2092
  490DOPE   GL1 5745  10.142  19.014  13.299 -0.0156  0.0268  0.1430
  490DOPE   GL2 5746  10.267  18.784  13.176 -0.1103 -0.1732  0.0286
  490DOPE   C1A 5747   9.816  19.025  12.996  0.3650  0.0955  0.2130
  490DOPE   D2A 5748   9.567  18.999  12.654  0.0283 -0.1709 -0.1167
  490DOPE   C3A 5749   9.218  18.768  12.694  0.1892 -0.0342  0.1517
  490DOPE   C4A 5750   8.779  18.701  12.628  0.0909 -0.1282 -0.1913
  490DOPE   C1B 5751  10.397  18.643  12.751  0.1295  0.1605 -0.2245
  490DOPE   D2B 5752  10.335  18.407  12.327 -0.0896 -0.1148  0.0457
  490DOPE   C3B 5753  10.531  18.022  12.113 -0.0903  0.2744 -0.0735
  490DOPE   C4B 5754  10.528  17.574  12.166  0.0781  0.3803 -0.0627
  491DOPE   NH3 5755   9.864  16.097  14.453 -0.1681  0.1125 -0.0911
  491DOPE   PO4 5756   9.787  15.850  14.297  0.1853  0.0424 -0.0930
  491DOPE   GL1 5757   9.584  15.795  13.856  0.2376 -0.1114 -0.0101
  491DOPE   GL2 5758   9.374  15.646  13.934  0.1893  0.1740  0.0574
  491DOPE   C1A 5759   9.471  15.705  13.423  0.0318  0.0491 -0.0861
  491DOPE   D2A 5760   9.199  15.445  13.143 -0.0247  0.2228 -0.0864
  491DOPE   C3A 5761   8.861  15.412  12.889  0.0879  0.0813 -0.2903
  491DOPE   C4A 5762   8.494  15.219  12.772 -0.1106  0.3576  0.2720
  491DOPE   C1B 5763   9.093  15.380  13.620 -0.0566  0.0662  0.2030
  491DOPE   D2B 5764   9.226  14.981  13.345 -0.0303 -0.0332  0.1934
  491DOPE   C3B 5765   9.416  14.647  13.051 -0.0333 -0.2770 -0.0672
  491DOPE   C4B 5766   9.254  14.622  12.663 -0.4818  0.0132  0.2420
  492POSM   NC3 5767   5.856  19.588  15.180  0.1404  0.1611 -0.3333
  492POSM   PO4 5768   5.440  19.649  15.088 -0.4127  0.0214 -0.1680
  492POSM   AM1 5769   5.368  19.617  14.787 -0.1623 -0.2761 -0.2264
  492POSM   AM2 5770   5.190  19.631  14.519  0.0018  0.1756  0.2738
  492POSM   T1A 5771   5.547  19.393  14.345 -0.1542 -0.4655 -0.0548
  492POSM   C2A 5772   5.643  19.190  14.004 -0.2594 -0.3181  0.3660
  492POSM   C3A 5773   5.316  18.919  13.785 -0.0898 -0.1188 -0.5586
  492POSM   C1B 5774   5.220  19.855  14.223 -0.0771  0.1773 -0.0716
  492POSM   D2B 5775   5.329  19.991  13.794  0.1151  0.3063 -0.1862
  492POSM   C3B 5776   5.212  19.764  13.369  0.1561  0.0044 -0.0088
  492POSM   C4B 5777   5.105  19.785  12.927  0.1370 -0.0145 -0.1034
  493DOPC   NC3 5778   9.216   9.794  15.132 -0.1967  0.2784 -0.1009
  493DOPC   PO4 5779   9.277   9.416  15.253  0.0195  0.0872 -0.3038
  493DOPC   GL1 5780   9.188   9.342  14.874 -0.0234  0.3890 -0.0393
  493DOPC   GL2 5781   9.417   9.398  14.724  0.2921 -0.0625 -0.0934
  493DOPC   C1A 5782   9.023   9.482  14.467  0.3083  0.0897 -0.1259
  493DOPC   D2A 5783   8.971   9.338  14.002  0.1392 -0.0345 -0.0423
  493DOPC   C3A 5784   9.264   9.357  13.615  0.1374 -0.2934 -0.0612
  493DOPC   C4A 5785   9.520   9.435  13.248 -0.0818  0.1900  0.1234
  493DOPC   C1B 5786   9.717   9.108  14.471  0.0593 -0.0436  0.1719
  493DOPC   D2B 5787  10.073   9.137  14.166  0.3225  0.0435 -0.0798
  493DOPC   C3B 5788  10.230   9.571  14.041  0.1152  0.3013 -0.0869
  493DOPC   C4B 5789  10.282   9.802  13.621 -0.4715  0.0282  0.1386
  494POSM   NC3 5790   2.889  10.610  15.925 -0.2278  0.2394  0.3089
  494POSM   PO4 5791   2.866  10.998  15.876  0.1990  0.0718 -0.1670
  494POSM   AM1 5792   2.893  10.993  15.532 -0.3592 -0.1753  0.2375
  494POSM   AM2 5793   2.695  11.040  15.315  0.1638 -0.3034  0.2806
  494POSM   T1A 5794   3.206  11.080  15.120 -0.2787 -0.3672  0.1653
  494POSM   C2A 5795   3.201  11.208  14.692  0.3880  0.1188  0.0549
  494POSM   C3A 5796   3.033  11.613  14.457  0.0578 -0.4810 -0.1422
  494POSM   C1B 5797   2.692  10.946  14.977 -0.1018 -0.0309  0.1661
  494POSM   D2B 5798   2.635  10.859  14.516  0.0491  0.2126  0.2360
  494POSM   C3B 5799   2.687  11.170  14.239 -0.1272 -0.0148 -0.1730
  494POSM   C4B 5800   2.823  11.216  13.794 -0.1599  0.0568  0.2040
  495POSM   NC3 5801  34.735  22.364  14.173  0.2655  0.1080 -0.1974
  495POSM   PO4 5802  34.797  22.730  14.005 -0.1031  0.0732 -0.1680
  495POSM   AM1 5803  35.035  22.714  13.780 -0.2216  0.1774 -0.0661
  495POSM   AM2 5804  35.153  22.531  13.616  0.0192  0.0581  0.0408
  495POSM   T1A 5805  35.090  22.965  13.374  0.2040 -0.1602  0.2323
  495POSM   C2A 5806  35.059  22.923  12.914 -0.0398 -0.4362 -0.1637
  495POSM   C3A 5807  34.891  23.245  12.584 -0.2704  0.0167 -0.0290
  495POSM   C1B 5808  35.013  22.434  13.297 -0.3585 -0.0126 -0.1571
  495POSM   D2B 5809  34.832  22.421  12.848 -0.2662 -0.0097  0.2035
  495POSM   C3B 5810  34.877  22.775  12.516 -0.0925  0.0790  0.0507
  495POSM   C4B 5811  34.621  22.815  12.139 -0.1020  0.2665  0.0230
  496DOPS   CNO 5812   5.527  20.074  14.776  0.0550  0.3757  0.0823
  496DOPS   PO4 5813   5.900  20.033  14.906  0.0186 -0.0799 -0.0695
  496DOPS   GL1 5814   6.034  20.010  14.516 -0.0252  0.1128 -0.1667
  496DOPS   GL2 5815   6.229  20.097  14.311  0.3036 -0.0619  0.0444
  496DOPS   C1A 5816   6.082  19.559  14.335  0.0705  0.1578  0.3128
  496DOPS   D2A 5817   6.147  19.320  13.934  0.2838 -0.1434 -0.0088
  496DOPS   C3A 5818   5.927  19.175  13.546 -0.0810  0.0834  0.1395
  496DOPS   C4A 5819   6.000  19.098  13.060  0.2798 -0.1346  0.0725
  496DOPS   C1B 5820   6.396  19.775  14.036 -0.3832  0.0914  0.2773
  496DOPS   D2B 5821   6.753  19.510  13.994  0.3220 -0.1397 -0.1477
  496DOPS   C3B 5822   6.940  19.954  14.013 -0.3000  0.0166  0.0937
  496DOPS   C4B 5823   6.585  20.240  13.967  0.0489 -0.2500 -0.1435
  497DOPC   NC3 5824   5.062  23.177  14.441  0.0744 -0.3351  0.2976
  497DOPC   PO4 5825   4.729  23.000  14.433  0.2915  0.2551 -0.0673
  497DOPC   GL1 5826   4.707  22.755  14.148 -0.2347  0.1480 -0.0231
  497DOPC   GL2 5827   4.895  22.560  14.016  0.2292 -0.1806 -0.2098
  497DOPC   C1A 5828   4.578  22.844  13.690  0.1839 -0.1467  0.1698
  497DOPC   D2A 5829   4.469  22.869  13.275 -0.3070 -0.3312 -0.1627
  497DOPC   C3A 5830   4.615  22.584  13.041  0.1253 -0.1597 -0.0182
  497DOPC   C4A 5831   4.717  22.403  12.639 -0.2244  0.1736  0.0701
  497DOPC   C1B 5832   4.857  22.201  13.754  0.1692 -0.0757 -0.3256
  497DOPC   D2B 5833   4.895  21.773  13.607 -0.1483  0.0402  0.3061
  497DOPC   C3B 5834   4.729  21.447  13.272 -0.0863  0.1892 -0.2260
  497DOPC   C4B 5835   4.633  21.013  13.264  0.1265  0.1974  0.2123
  498DOPE   NH3 5836   5.498  22.378  14.439  0.0725  0.2338  0.0433
  498DOPE   PO4 5837   5.541  22.032  14.404 -0.0235 -0.0577 -0.0465
  498DOPE   GL1 5838   5.370  21.928  14.016 -0.0941 -0.0221  0.2885
  498DOPE   GL2 5839   5.188  21.702  14.071 -0.0872 -0.0542 -0.1365
  498DOPE   C1A 5840   5.300  22.062  13.555  0.1007 -0.2279  0.0291
  498DOPE   D2A 5841   5.381  22.106  13.090 -0.0972  0.1150 -0.2824
  498DOPE   C3A 5842   5.757  21.874  12.848 -0.1347 -0.0493  0.0633
  498DOPE   C4A 5843   5.924  21.440  12.884 -0.3332  0.2640 -0.0061
  498DOPE   C1B 5844   5.357  21.414  13.716  0.0461  0.0301  0.2056
  498DOPE   D2B 5845   5.540  20.993  13.622  0.2251  0.0343 -0.1465
  498DOPE   C3B 5846   5.695  21.100  13.186 -0.2639  0.1367  0.1123
  498DOPE   C4B 5847   5.689  21.012  12.731 -0.3027 -0.1925  0.1921
  499DOPE   NH3 5848   4.080  14.680  15.782 -0.0229 -0.0243 -0.0793
  499DOPE   PO4 5849   3.752  14.533  15.828 -0.0186 -0.0680  0.0309
  499DOPE   GL1 5850   3.815  14.505  15.421  0.0424 -0.2368 -0.4048
  499DOPE   GL2 5851   3.541  14.404  15.400  0.1807  0.1887 -0.0472
  499DOPE   C1A 5852   3.776  14.324  14.958 -0.0078 -0.0242 -0.1944
  499DOPE   D2A 5853   3.856  14.296  14.532  0.0627 -0.0865 -0.3344
  499DOPE   C3A 5854   3.630  14.614  14.238 -0.2080 -0.0102 -0.1080
  499DOPE   C4A 5855   3.316  14.902  14.010 -0.1749 -0.0091 -0.3311
  499DOPE   C1B 5856   3.138  14.500  15.195  0.0321 -0.2617 -0.1319
  499DOPE   D2B 5857   2.916  14.591  14.811 -0.2555  0.1359 -0.0492
  499DOPE   C3B 5858   2.984  14.551  14.322 -0.0406 -0.0803  0.4074
  499DOPE   C4B 5859   2.847  14.522  13.888 -0.1077 -0.0858 -0.1413
  500DOPC   NC3 5860   8.500  12.609  14.849  0.2849 -0.0699 -0.1374
  500DOPC   PO4 5861   8.124  12.686  14.867 -0.0603 -0.0155 -0.0684
  500DOPC   GL1 5862   7.988  12.828  14.554  0.3686 -0.0610 -0.1903
  500DOPC   GL2 5863   8.128  13.081  14.592 -0.0320 -0.1492  0.1335
  500DOPC   C1A 5864   7.853  12.952  14.121  0.0024 -0.2097  0.2322
  500DOPC   D2A 5865   7.743  12.843  13.700 -0.0780 -0.0511  0.3233
  500DOPC   C3A 5866   7.601  13.254  13.428 -0.0558 -0.1355  0.0890
  500DOPC   C4A 5867   7.438  13.682  13.223  0.1415  0.3100 -0.1956
  500DOPC   C1B 5868   8.340  13.136  14.157 -0.0296 -0.0752  0.0118
  500DOPC   D2B 5869   8.727  13.144  13.845  0.2641  0.0006  0.0475
  500DOPC   C3B 5870   8.652  12.697  13.641 -0.1664  0.0278 -0.0647
  500DOPC   C4B 5871   8.420  12.309  13.492  0.0619  0.2090  0.1611
  501POSM   NC3 5872   6.418  21.183  14.538  0.0422  0.0336 -0.0832
  501POSM   PO4 5873   6.066  21.371  14.601  0.1653  0.0424 -0.0583
  501POSM   AM1 5874   6.043  21.318  14.292  0.1225 -0.0665 -0.3594
  501POSM   AM2 5875   6.219  21.239  14.097 -0.2618  0.0337  0.3179
  501POSM   T1A 5876   5.884  21.404  13.761 -0.0044 -0.1227 -0.1073
  501POSM   C2A 5877   6.143  21.277  13.381 -0.1692  0.0424  0.1932
  501POSM   C3A 5878   6.417  20.941  13.171  0.3032  0.0253 -0.2785
  501POSM   C1B 5879   6.381  21.132  13.810  0.2183 -0.1482 -0.1707
  501POSM   D2B 5880   6.774  21.155  13.476 -0.0444  0.0130 -0.0622
  501POSM   C3B 5881   6.583  21.440  13.080  0.0736  0.1454 -0.0238
  501POSM   C4B 5882   6.375  21.488  12.697  0.0201  0.2197 -0.1063
  502POSM   NC3 5883   1.645  22.093  14.350  0.2740 -0.0588 -0.0817
  502POSM   PO4 5884   1.326  22.304  14.269 -0.2472 -0.1841  0.1795
  502POSM   AM1 5885   1.314  22.340  13.947 -0.1541 -0.0132 -0.1266
  502POSM   AM2 5886   1.407  22.482  13.755  0.0619  0.2688 -0.3615
  502POSM   T1A 5887   1.083  22.180  13.531  0.0875 -0.1403  0.2276
  502POSM   C2A 5888   0.876  21.898  13.243  0.3687 -0.0895 -0.2589
  502POSM   C3A 5889   0.994  21.509  13.083 -0.1779 -0.0550  0.1737
  502POSM   C1B 5890   1.607  22.501  13.464 -0.0792  0.0930  0.1929
  502POSM   D2B 5891   1.833  22.563  13.043  0.1494  0.0330  0.0149
  502POSM   C3B 5892   1.663  22.836  12.701 -0.2081  0.0083  0.2177
  502POSM   C4B 5893   1.246  22.750  12.455 -0.2583  0.0054  0.0273
  503DOPC   NC3 5894   8.567  22.384  14.632  0.1402 -0.2284  0.1372
  503DOPC   PO4 5895   8.650  22.635  14.326  0.3068 -0.1460 -0.0546
  503DOPC   GL1 5896   8.624  22.839  13.987 -0.0812  0.2496  0.4774
  503DOPC   GL2 5897   8.656  22.601  13.838 -0.1264 -0.0274 -0.2191
  503DOPC   C1A 5898   8.935  23.012  13.697  0.3042 -0.0684 -0.0234
  503DOPC   D2A 5899   9.210  22.931  13.290  0.0955 -0.2174 -0.1974
  503DOPC   C3A 5900   9.236  23.275  12.957  0.0502 -0.0307 -0.3186
  503DOPC   C4A 5901   9.337  23.707  12.838 -0.1448  0.3140  0.1811
  503DOPC   C1B 5902   8.630  22.732  13.393  0.1143 -0.1214  0.0809
  503DOPC   D2B 5903   8.341  22.823  13.051  0.1387  0.1071  0.1187
  503DOPC   C3B 5904   8.319  23.134  12.810 -0.3042 -0.0492  0.1087
  503DOPC   C4B 5905   8.326  23.291  12.374  0.0610  0.1667  0.3212
  504DOPS   CNO 5906   2.843  16.743  15.553  0.1096 -0.0499  0.0292
  504DOPS   PO4 5907   3.111  16.586  15.759  0.0708 -0.1758  0.1973
  504DOPS   GL1 5908   3.232  16.577  15.334 -0.2317  0.4153 -0.1732
  504DOPS   GL2 5909   3.467  16.362  15.388  0.2763 -0.1615 -0.0316
  504DOPS   C1A 5910   2.986  16.873  15.049  0.1270 -0.0267 -0.0395
  504DOPS   D2A 5911   3.048  17.337  15.004 -0.3745  0.0448 -0.1084
  504DOPS   C3A 5912   2.914  17.521  14.588 -0.0226 -0.1858 -0.3773
  504DOPS   C4A 5913   2.651  17.659  14.190 -0.1318 -0.0314  0.0788
  504DOPS   C1B 5914   3.193  16.119  15.110  0.4028  0.2490  0.0168
  504DOPS   D2B 5915   2.908  15.904  14.806  0.0314 -0.0791 -0.0154
  504DOPS   C3B 5916   2.838  15.900  14.408  0.0661  0.0331  0.3913
  504DOPS   C4B 5917   2.579  15.768  14.042 -0.1637  0.0116  0.0570
  505DOPE   NH3 5918  10.435  14.561  14.446 -0.2733  0.1571 -0.0539
  505DOPE   PO4 5919  10.532  14.230  14.395  0.0743 -0.1294  0.3511
  505DOPE   GL1 5920  10.740  14.153  14.017 -0.2034  0.0496 -0.2121
  505DOPE   GL2 5921  10.969  14.271  13.900 -0.1878  0.0010  0.0285
  505DOPE   C1A 5922  10.606  14.163  13.598  0.0988 -0.2461  0.2258
  505DOPE   D2A 5923  10.528  13.969  13.190  0.1630  0.0586  0.3381
  505DOPE   C3A 5924  10.830  13.638  13.104 -0.0234 -0.0113 -0.2601
  505DOPE   C4A 5925  11.138  13.347  12.864  0.2055  0.0278 -0.0500
  505DOPE   C1B 5926  11.040  13.948  13.542  0.1673 -0.0147 -0.1509
  505DOPE   D2B 5927  11.307  13.608  13.283 -0.0790 -0.2449 -0.0358
  505DOPE   C3B 5928  11.520  13.727  12.870 -0.0948 -0.0241 -0.2924
  505DOPE   C4B 5929  11.856  13.647  12.554 -0.1418 -0.3456 -0.0334
  506DOPS   CNO 5930   8.578  20.535  14.849  0.0867  0.4181 -0.0323
  506DOPS   PO4 5931   8.811  20.582  14.539  0.0492  0.0119  0.0602
  506DOPS   GL1 5932   8.488  20.692  14.266  0.2493  0.1233 -0.2353
  506DOPS   GL2 5933   8.320  20.548  14.363  0.1099  0.0843  0.3546
  506DOPS   C1A 5934   8.522  20.645  13.794  0.0608 -0.0747  0.0214
  506DOPS   D2A 5935   8.581  20.931  13.438  0.6575 -0.2086 -0.0564
  506DOPS   C3A 5936   8.260  21.155  13.142 -0.2840 -0.0345 -0.1256
  506DOPS   C4A 5937   8.120  21.445  12.802 -0.1776 -0.0328 -0.1569
  506DOPS   C1B 5938   8.062  20.634  13.962  0.1532 -0.0549 -0.3744
  506DOPS   D2B 5939   7.700  20.676  13.676 -0.1461  0.0627  0.2087
  506DOPS   C3B 5940   8.045  20.974  13.593 -0.2352 -0.0266 -0.1405
  506DOPS   C4B 5941   8.107  21.432  13.555  0.0074 -0.3348 -0.1785
  507DOPS   CNO 5942   2.954  13.846  16.113 -0.0550 -0.3400 -0.0481
  507DOPS   PO4 5943   2.848  14.131  15.867 -0.2188 -0.0782  0.0812
  507DOPS   GL1 5944   2.716  14.400  15.617  0.0779 -0.1253  0.0249
  507DOPS   GL2 5945   2.897  14.604  15.708 -0.0673 -0.1096  0.1164
  507DOPS   C1A 5946   2.602  14.306  15.156  0.0947  0.1865 -0.2038
  507DOPS   D2A 5947   2.610  14.258  14.703 -0.0335  0.3368 -0.0559
  507DOPS   C3A 5948   2.147  14.337  14.539  0.2476  0.2469 -0.0422
  507DOPS   C4A 5949   1.846  14.134  14.299 -0.5207 -0.3305 -0.3206
  507DOPS   C1B 5950   2.643  14.829  15.446 -0.3834 -0.0185  0.3480
  507DOPS   D2B 5951   2.344  14.773  15.129  0.1211  0.2389  0.3403
  507DOPS   C3B 5952   2.397  14.734  14.701 -0.2413  0.0341  0.0239
  507DOPS   C4B 5953   2.543  14.748  14.278  0.1721  0.1330  0.0388
  508POSM   NC3 5954   4.866  18.054  15.381 -0.1417 -0.2619 -0.4002
  508POSM   PO4 5955   4.866  17.726  15.139 -0.0840 -0.2573  0.2210
  508POSM   AM1 5956   4.743  17.727  14.841  0.2760 -0.1103 -0.0829
  508POSM   AM2 5957   4.733  17.915  14.652  0.0399 -0.1393  0.1881
  508POSM   T1A 5958   4.428  17.530  14.454 -0.1492 -0.1266 -0.0154
  508POSM   C2A 5959   4.444  17.637  13.999  0.0654  0.1235 -0.0617
  508POSM   C3A 5960   4.803  17.761  13.735 -0.0222  0.1054 -0.1306
  508POSM   C1B 5961   4.488  18.057  14.468  0.2869  0.1005  0.0012
  508POSM   D2B 5962   4.188  18.368  14.304 -0.1995 -0.0857 -0.0200
  508POSM   C3B 5963   4.251  18.791  14.389 -0.1202 -0.0664 -0.2924
  508POSM   C4B 5964   3.991  19.193  14.553 -0.1102  0.0608  0.1259
  509POSM   NC3 5965   8.033  16.616  14.901  0.0245 -0.1996 -0.1111
  509POSM   PO4 5966   8.178  16.979  14.719  0.3280 -0.0832 -0.0757
  509POSM   AM1 5967   7.912  17.068  14.547 -0.3633 -0.1792  0.0589
  509POSM   AM2 5968   7.894  17.110  14.280  0.0214  0.0549  0.3134
  509POSM   T1A 5969   7.442  17.150  14.510 -0.1347  0.1492  0.1634
  509POSM   C2A 5970   7.087  17.323  14.202 -0.2616  0.1854 -0.1512
  509POSM   C3A 5971   6.643  17.381  14.144 -0.1118  0.0372 -0.1745
  509POSM   C1B 5972   7.840  17.358  14.064 -0.2352 -0.2369 -0.0589
  509POSM   D2B 5973   7.623  17.527  13.672 -0.2982 -0.2500  0.1132
  509POSM   C3B 5974   7.307  17.254  13.450  0.2059 -0.3398 -0.0605
  509POSM   C4B 5975   6.940  17.047  13.289  0.0021 -0.3754 -0.0991
  510DOPC   NC3 5976   4.772  12.967  14.863  0.5089 -0.1986  0.3422
  510DOPC   PO4 5977   4.791  13.055  15.210 -0.1185 -0.0761  0.0867
  510DOPC   GL1 5978   4.659  13.396  14.916  0.0898 -0.1088 -0.2149
  510DOPC   GL2 5979   4.772  13.655  15.077 -0.1467  0.1828 -0.0199
  510DOPC   C1A 5980   4.756  13.370  14.422  0.2699 -0.0619 -0.1249
  510DOPC   D2A 5981   4.719  13.409  14.012 -0.0899 -0.1523 -0.0352
  510DOPC   C3A 5982   4.418  13.116  13.742  0.2477 -0.1520  0.1386
  510DOPC   C4A 5983   4.099  12.852  13.579  0.0020  0.2029  0.1908
  510DOPC   C1B 5984   4.689  13.794  14.625 -0.0344 -0.0585 -0.1243
  510DOPC   D2B 5985   4.970  13.866  14.242 -0.2136  0.1527 -0.0490
  510DOPC   C3B 5986   4.861  13.812  13.776 -0.1036  0.0002  0.0990
  510DOPC   C4B 5987   4.559  13.603  13.520 -0.0965  0.0252 -0.1180
  511POSM   NC3 5988   6.329  22.074  14.741  0.3845  0.1350  0.0893
  511POSM   PO4 5989   6.279  22.480  14.605 -0.2162 -0.1066 -0.0242
  511POSM   AM1 5990   6.352  22.611  14.287  0.1452 -0.1339 -0.1550
  511POSM   AM2 5991   6.182  22.791  14.113  0.0926  0.1478 -0.2493
  511POSM   T1A 5992   6.453  22.384  13.829 -0.1676 -0.4097  0.0969
  511POSM   C2A 5993   6.338  22.147  13.439  0.0730  0.0200 -0.1265
  511POSM   C3A 5994   5.921  22.173  13.228 -0.1829 -0.0445 -0.0969
  511POSM   C1B 5995   6.290  23.062  13.917  0.0381 -0.0951  0.3067
  511POSM   D2B 5996   6.381  23.319  13.592 -0.2587  0.2724  0.2907
  511POSM   C3B 5997   6.218  23.077  13.241 -0.3464  0.1523 -0.0649
  511POSM   C4B 5998   6.129  22.670  13.120 -0.0785  0.1310 -0.1398
  512DOPC   NC3 5999   7.111  18.806  15.116 -0.1830 -0.0586  0.3993
  512DOPC   PO4 6000   6.835  18.502  15.015 -0.1515  0.0525 -0.0881
  512DOPC   GL1 6001   6.794  18.307  14.654 -0.2652  0.1125  0.0627
  512DOPC   GL2 6002   7.063  18.250  14.542 -0.3045 -0.1514  0.3058
  512DOPC   C1A 6003   6.719  18.505  14.276  0.2337 -0.1035  0.0071
  512DOPC   D2A 6004   6.547  18.566  13.844 -0.0678 -0.2707 -0.1592
  512DOPC   C3A 6005   6.542  18.218  13.566 -0.0627  0.1688  0.1231
  512DOPC   C4A 6006   6.646  17.939  13.164  0.0544 -0.1804  0.2824
  512DOPC   C1B 6007   7.110  18.300  14.096  0.2024 -0.0179  0.1362
  512DOPC   D2B 6008   7.080  18.499  13.690 -0.1839  0.0094  0.1527
  512DOPC   C3B 6009   7.323  18.362  13.314  0.1143 -0.4845 -0.3817
  512DOPC   C4B 6010   7.389  18.367  12.876 -0.0771 -0.3598  0.1628
  513POSM   NC3 6011   5.609  17.070  15.122  0.1293 -0.1477  0.1182
  513POSM   PO4 6012   5.906  16.817  15.130 -0.1316  0.5035 -0.1232
  513POSM   AM1 6013   5.866  16.761  14.806  0.3067  0.2881 -0.2002
  513POSM   AM2 6014   5.718  16.904  14.628 -0.0111 -0.1460  0.0588
  513POSM   T1A 6015   6.101  16.604  14.427 -0.1700  0.1748 -0.0672
  513POSM   C2A 6016   6.367  16.416  14.055  0.0377 -0.0826 -0.1107
  513POSM   C3A 6017   6.518  16.345  13.602 -0.2443  0.2050  0.0980
  513POSM   C1B 6018   5.782  17.024  14.332  0.5522  0.0309  0.1298
  513POSM   D2B 6019   5.732  17.290  13.961 -0.1712  0.1759 -0.0515
  513POSM   C3B 6020   6.022  17.076  13.671  0.1232  0.0432  0.0624
  513POSM   C4B 6021   6.167  16.649  13.529  0.0224 -0.5058  0.1222
  514POSM   NC3 6022   9.789  10.646  15.225 -0.0473  0.1054 -0.1929
  514POSM   PO4 6023   9.455  10.444  15.137 -0.1431 -0.0101 -0.0213
  514POSM   AM1 6024   9.407  10.220  14.909 -0.3570 -0.1291 -0.0748
  514POSM   AM2 6025   9.573  10.009  14.826 -0.2243 -0.3454  0.0009
  514POSM   T1A 6026   9.281  10.306  14.417 -0.1429 -0.2675 -0.3838
  514POSM   C2A 6027   9.229  10.330  14.018 -0.0855 -0.1834 -0.0310
  514POSM   C3A 6028   9.145  10.422  13.564  0.2091  0.0617  0.1618
  514POSM   C1B 6029   9.452   9.881  14.540 -0.1393 -0.1835  0.1149
  514POSM   D2B 6030   9.210   9.808  14.103 -0.1272  0.2130 -0.4811
  514POSM   C3B 6031   9.519   9.954  13.817 -0.2947 -0.0208  0.0835
  514POSM   C4B 6032   9.928  10.084  13.825 -0.2559  0.0939  0.1129
  515DOPC   NC3 6033   2.624  15.184  16.347  0.1164  0.2029 -0.3909
  515DOPC   PO4 6034   2.497  14.837  16.138 -0.2437  0.0866 -0.0170
  515DOPC   GL1 6035   2.393  15.052  15.808  0.2234 -0.0438  0.3649
  515DOPC   GL2 6036   2.424  15.313  15.714 -0.2309 -0.3466  0.2084
  515DOPC   C1A 6037   2.080  15.070  15.468 -0.3391  0.0950  0.1330
  515DOPC   D2A 6038   1.861  15.328  15.211  0.0610  0.0085 -0.1034
  515DOPC   C3A 6039   1.558  15.440  14.816  0.0829 -0.1930  0.0739
  515DOPC   C4A 6040   1.575  15.761  14.458  0.0067  0.0258 -0.0136
  515DOPC   C1B 6041   2.304  15.563  15.314  0.1795 -0.3384  0.0635
  515DOPC   D2B 6042   2.428  15.876  14.983  0.2357  0.3653  0.2272
  515DOPC   C3B 6043   2.430  15.627  14.586 -0.0735 -0.1951  0.1254
  515DOPC   C4B 6044   2.484  15.294  14.348  0.3322  0.2859 -0.1971
  516DOPE   NH3 6045   3.939  11.817  15.410 -0.1577 -0.1428  0.4364
  516DOPE   PO4 6046   4.113  12.116  15.510 -0.2271 -0.0023 -0.1692
  516DOPE   GL1 6047   4.186  12.289  15.249  0.1906 -0.1831  0.1983
  516DOPE   GL2 6048   4.059  12.443  15.033 -0.2560 -0.2640 -0.1253
  516DOPE   C1A 6049   4.186  12.033  14.844 -0.1366 -0.0341  0.2479
  516DOPE   D2A 6050   4.326  11.806  14.436 -0.1537  0.0492  0.0896
  516DOPE   C3A 6051   4.194  11.804  14.012 -0.0383 -0.1487 -0.1475
  516DOPE   C4A 6052   3.788  11.789  13.776 -0.1772  0.0543  0.2076
  516DOPE   C1B 6053   3.742  12.247  14.799 -0.0955 -0.3976 -0.1354
  516DOPE   D2B 6054   3.488  12.352  14.397 -0.3583  0.4775  0.2485
  516DOPE   C3B 6055   3.438  12.822  14.473 -0.1347 -0.2234  0.4175
  516DOPE   C4B 6056   3.322  13.196  14.477 -0.2032  0.2653  0.1180
  517DOPC   NC3 6057  34.537  11.856  15.568 -0.0587  0.0587  0.0733
  517DOPC   PO4 6058  34.338  12.149  15.413  0.0537  0.2875  0.1517
  517DOPC   GL1 6059  34.436  12.138  15.039 -0.0722 -0.0298 -0.1174
  517DOPC   GL2 6060  34.297  11.898  14.982  0.3962 -0.0829  0.4284
  517DOPC   C1A 6061  34.858  12.300  14.835 -0.0159  0.1193 -0.0739
  517DOPC   D2A 6062  35.204  12.143  14.601  0.3687 -0.0337  0.2486
  517DOPC   C3A 6063  35.144  11.986  14.199  0.1566 -0.0606 -0.0257
  517DOPC   C4A 6064  35.024  11.978  13.723 -0.2524 -0.2527 -0.0146
  517DOPC   C1B 6065  34.421  11.950  14.556 -0.0989 -0.0452  0.0937
  517DOPC   D2B 6066  34.487  12.380  14.388  0.0354  0.0659  0.0087
  517DOPC   C3B 6067  34.279  12.474  14.028 -0.0574 -0.1498 -0.0642
  517DOPC   C4B 6068  34.242  12.850  13.789  0.1098 -0.1984  0.0437
  518POSM   NC3 6069   9.396  15.913  14.628 -0.1594 -0.1647 -0.1677
  518POSM   PO4 6070   9.459  16.312  14.593  0.0363  0.0820 -0.0204
  518POSM   AM1 6071   9.442  16.336  14.305  0.1222  0.0194  0.0769
  518POSM   AM2 6072   9.435  16.136  14.109  0.1877 -0.0471 -0.0875
  518POSM   T1A 6073   9.247  16.591  13.921  0.1146 -0.0319 -0.1414
  518POSM   C2A 6074   8.899  16.715  13.584  0.0792  0.1623 -0.0775
  518POSM   C3A 6075   8.733  16.591  13.187 -0.1319  0.2036 -0.0572
  518POSM   C1B 6076   9.254  16.103  13.761  0.0078 -0.1542  0.1729
  518POSM   D2B 6077   8.948  16.159  13.376 -0.1017 -0.0206 -0.1254
  518POSM   C3B 6078   8.726  15.793  13.160  0.0869  0.0712  0.0504
  518POSM   C4B 6079   8.499  15.696  12.742  0.1977 -0.0097  0.2445
  519POSM   NC3 6080  34.392  23.080  14.019 -0.0805  0.2796 -0.0864
  519POSM   PO4 6081  34.691  23.287  14.161 -0.0612  0.0215 -0.6421
  519POSM   AM1 6082  34.684  23.403  13.870 -0.2328 -0.1572 -0.2723
  519POSM   AM2 6083  34.469  23.470  13.683  0.1135  0.1262  0.0190
  519POSM   T1A 6084  34.955  23.456  13.436  0.1579 -0.1489 -0.2603
  519POSM   C2A 6085  35.127  23.494  13.035 -0.1395  0.1638  0.0453
  519POSM   C3A 6086  35.340  23.258  12.726  0.1521 -0.0547  0.3578
  519POSM   C1B 6087  34.482  23.347  13.417 -0.0960 -0.0024 -0.1639
  519POSM   D2B 6088  34.591  23.129  13.009 -0.0109 -0.1903  0.1166
  519POSM   C3B 6089  34.502  23.516  12.715  0.0894  0.1404  0.0387
  519POSM   C4B 6090  34.260  23.835  12.410 -0.1789 -0.0823 -0.4003
  520POSM   NC3 6091   2.593  18.225  15.538  0.3427 -0.0810 -0.0453
  520POSM   PO4 6092   2.989  18.119  15.534 -0.0363  0.1367 -0.0023
  520POSM   AM1 6093   3.003  17.915  15.311 -0.2159 -0.2692  0.1342
  520POSM   AM2 6094   2.864  17.884  15.077 -0.0108  0.2320  0.3696
  520POSM   T1A 6095   3.257  17.787  14.906 -0.1373 -0.2697  0.0725
  520POSM   C2A 6096   3.610  17.688  14.594 -0.2548  0.3098  0.0177
  520POSM   C3A 6097   3.985  17.380  14.632  0.0165  0.0515 -0.1222
  520POSM   C1B 6098   2.766  17.959  14.742 -0.1722 -0.1206 -0.0923
  520POSM   D2B 6099   2.967  18.028  14.307 -0.2647 -0.1560  0.2433
  520POSM   C3B 6100   3.297  17.674  14.221 -0.3872 -0.1016  0.1555
  520POSM   C4B 6101   3.505  17.325  14.090 -0.1546  0.0072 -0.0736
  521POSM   NC3 6102   1.537  25.505  14.015 -0.1693  0.0292  0.1730
  521POSM   PO4 6103   1.349  25.598  13.708 -0.0056 -0.0311 -0.1491
  521POSM   AM1 6104   1.277  25.534  13.414  0.0524  0.2344 -0.0310
  521POSM   AM2 6105   1.093  25.657  13.229  0.0426  0.0573  0.2174
  521POSM   T1A 6106   1.491  25.391  13.031 -0.0122 -0.3383 -0.1208
  521POSM   C2A 6107   1.834  25.342  12.659  0.0590 -0.2424  0.0405
  521POSM   C3A 6108   2.142  25.391  12.301 -0.0463 -0.0919 -0.1706
  521POSM   C1B 6109   1.000  25.493  12.952 -0.0819 -0.2153  0.0787
  521POSM   D2B 6110   1.146  25.277  12.587 -0.2596  0.2011  0.1374
  521POSM   C3B 6111   1.484  25.417  12.317 -0.2895  0.1129 -0.2087
  521POSM   C4B 6112   1.757  25.342  11.938 -0.0789  0.3249 -0.2889
  522DOPC   NC3 6113  11.268  21.184  13.191 -0.2296 -0.3175 -0.0208
  522DOPC   PO4 6114  11.155  21.304  13.541  0.2046  0.1383 -0.0554
  522DOPC   GL1 6115  11.134  21.620  13.275 -0.2891  0.2116  0.1410
  522DOPC   GL2 6116  10.809  21.529  13.173  0.3414 -0.0180  0.1407
  522DOPC   C1A 6117  11.166  21.598  12.799  0.0037  0.2091 -0.1260
  522DOPC   D2A 6118  11.270  21.628  12.389 -0.2001 -0.0810  0.1338
  522DOPC   C3A 6119  11.355  21.866  12.028 -0.0674 -0.1158 -0.4502
  522DOPC   C4A 6120  11.033  21.984  11.758 -0.1258 -0.2320  0.0801
  522DOPC   C1B 6121  10.370  21.325  13.016 -0.3488  0.3224 -0.1724
  522DOPC   D2B 6122   9.984  21.491  12.845  0.1154  0.1829  0.0738
  522DOPC   C3B 6123   9.613  21.215  12.636  0.0028  0.0616  0.0588
  522DOPC   C4B 6124   9.370  21.255  12.218 -0.2731  0.0443 -0.1331
  523POSM   NC3 6125  12.637  18.317  13.364  0.0594 -0.2440 -0.1776
  523POSM   PO4 6126  12.484  18.270  13.026 -0.1042 -0.0946  0.1224
  523POSM   AM1 6127  12.289  18.370  12.800 -0.1189  0.2254  0.0652
  523POSM   AM2 6128  12.182  18.260  12.566 -0.0628 -0.0297 -0.2671
  523POSM   T1A 6129  12.082  18.694  12.463 -0.1092 -0.0289  0.1572
  523POSM   C2A 6130  11.709  18.961  12.287  0.0293  0.0349 -0.1184
  523POSM   C3A 6131  11.417  19.239  11.975  0.0658  0.1847  0.0214
  523POSM   C1B 6132  12.265  18.206  12.260 -0.0904 -0.3931 -0.0335
  523POSM   D2B 6133  12.033  18.054  11.889 -0.0781 -0.1457 -0.1406
  523POSM   C3B 6134  11.947  17.702  11.618 -0.2458  0.1718  0.2535
  523POSM   C4B 6135  12.205  17.285  11.517  0.0764 -0.2656 -0.3902
  524DOPS   CNO 6136   4.237  16.860  15.465  0.1483 -0.1992 -0.0890
  524DOPS   PO4 6137   4.570  16.728  15.484 -0.0977 -0.2989 -0.1288
  524DOPS   GL1 6138   4.453  16.700  15.082  0.2497  0.0109  0.3458
  524DOPS   GL2 6139   4.451  16.963  15.051  0.1649  0.0334 -0.1116
  524DOPS   C1A 6140   4.188  16.471  14.771  0.0296 -0.0595  0.2059
  524DOPS   D2A 6141   4.374  16.121  14.435 -0.0608  0.2688  0.0985
  524DOPS   C3A 6142   4.253  16.227  13.987  0.1961  0.0914  0.0993
  524DOPS   C4A 6143   4.484  16.419  13.665 -0.0903 -0.1082 -0.2313
  524DOPS   C1B 6144   4.429  17.049  14.616 -0.2075  0.4420  0.0215
  524DOPS   D2B 6145   4.559  17.133  14.158  0.0449  0.3322 -0.0155
  524DOPS   C3B 6146   4.653  17.262  13.718  0.3553  0.0314  0.3031
  524DOPS   C4B 6147   4.582  17.502  13.334  0.0063 -0.0083  0.1944
  525DOPS   CNO 6148   4.571  20.917  15.037 -0.2662  0.4084 -0.0275
  525DOPS   PO4 6149   4.870  20.710  15.078 -0.1676 -0.3233  0.3037
  525DOPS   GL1 6150   4.797  20.552  14.753  0.1429  0.0332 -0.0668
  525DOPS   GL2 6151   4.691  20.665  14.583  0.0400 -0.3407  0.1484
  525DOPS   C1A 6152   4.894  20.238  14.460  0.0293  0.5091 -0.1590
  525DOPS   D2A 6153   4.886  20.179  13.967 -0.0660  0.2880  0.2130
  525DOPS   C3A 6154   4.864  19.735  13.752 -0.0524 -0.0682 -0.4734
  525DOPS   C4A 6155   4.686  19.558  13.369  0.1096 -0.0088 -0.2500
  525DOPS   C1B 6156   4.544  20.514  14.158  0.1224 -0.0585 -0.1730
  525DOPS   D2B 6157   4.256  20.724  13.863  0.3727 -0.0536 -0.1008
  525DOPS   C3B 6158   4.535  21.001  13.761 -0.2121 -0.0186 -0.1096
  525DOPS   C4B 6159   4.894  21.294  13.811 -0.1083  0.0880 -0.1230
  526DOPS   CNO 6160   7.192  19.517  15.000 -0.1968  0.1046  0.2013
  526DOPS   PO4 6161   6.995  19.236  14.838 -0.1053  0.2023 -0.1521
  526DOPS   GL1 6162   7.043  19.187  14.512  0.0072  0.0649 -0.2221
  526DOPS   GL2 6163   6.699  19.112  14.395  0.2609 -0.0778  0.0788
  526DOPS   C1A 6164   7.295  19.390  14.142  0.2466  0.0889 -0.2238
  526DOPS   D2A 6165   7.481  19.824  14.062  0.2269 -0.1086 -0.1181
  526DOPS   C3A 6166   7.305  19.898  13.647  0.2390  0.2545 -0.0264
  526DOPS   C4A 6167   7.173  19.814  13.240 -0.0431  0.2625  0.0249
  526DOPS   C1B 6168   6.354  18.921  14.177  0.1582  0.2374  0.0538
  526DOPS   D2B 6169   6.027  18.696  13.929  0.1054 -0.2497 -0.2319
  526DOPS   C3B 6170   6.188  18.692  13.444  0.1784 -0.1508  0.0279
  526DOPS   C4B 6171   6.212  18.290  13.166 -0.0731 -0.1075  0.0589
  527POSM   NC3 6172   8.348  13.911  14.809 -0.2557 -0.4448 -0.2111
  527POSM   PO4 6173   7.961  14.007  14.967 -0.1025 -0.0953  0.0169
  527POSM   AM1 6174   7.922  14.044  14.656 -0.0661  0.3876  0.1118
  527POSM   AM2 6175   7.757  13.996  14.461  0.0216  0.1134  0.1520
  527POSM   T1A 6176   8.207  14.070  14.203  0.2050  0.0981 -0.2005
  527POSM   C2A 6177   8.523  14.097  13.903  0.0548  0.0658 -0.0635
  527POSM   C3A 6178   8.643  14.055  13.462 -0.0148 -0.0941  0.1039
  527POSM   C1B 6179   7.745  14.243  14.264 -0.1550 -0.2493 -0.2059
  527POSM   D2B 6180   7.776  14.580  13.886  0.1249 -0.0105 -0.0164
  527POSM   C3B 6181   7.754  15.074  13.974 -0.0010  0.1089  0.1034
  527POSM   C4B 6182   7.575  15.464  13.765  0.1363 -0.4026  0.2235
  528DOPE   NH3 6183   9.548  24.737  13.914  0.0268 -0.2742  0.0396
  528DOPE   PO4 6184   9.269  24.560  13.871 -0.0509  0.2098  0.1053
  528DOPE   GL1 6185   9.292  24.261  13.620 -0.3833 -0.1761 -0.2043
  528DOPE   GL2 6186   9.227  24.333  13.324  0.0327  0.1318  0.2935
  528DOPE   C1A 6187   9.762  24.182  13.487  0.1939 -0.0112  0.1104
  528DOPE   D2A 6188  10.173  24.166  13.255 -0.2443  0.1480  0.1425
  528DOPE   C3A 6189  10.156  24.099  12.842 -0.2922 -0.1160 -0.1111
  528DOPE   C4A 6190  10.454  23.939  12.519  0.2982 -0.2918  0.0799
  528DOPE   C1B 6191   9.109  24.164  12.957 -0.0147  0.1436  0.0731
  528DOPE   D2B 6192   9.275  24.196  12.491  0.0604 -0.0824  0.0080
  528DOPE   C3B 6193   9.585  23.927  12.338 -0.0647  0.3575  0.0309
  528DOPE   C4B 6194   9.913  23.742  12.592  0.0349  0.3532  0.0670
  529POSM   NC3 6195   5.833   8.638  15.520 -0.0027  0.0453  0.1498
  529POSM   PO4 6196   5.885   8.737  15.152 -0.0345  0.0021  0.0363
  529POSM   AM1 6197   5.909   8.868  14.851  0.2265 -0.2543  0.3086
  529POSM   AM2 6198   5.986   8.842  14.560 -0.0634  0.3522  0.0663
  529POSM   T1A 6199   5.823   9.306  14.557 -0.0087  0.3455 -0.3011
  529POSM   C2A 6200   5.652   9.677  14.285 -0.0079 -0.0854  0.1269
  529POSM   C3A 6201   5.630   9.810  13.835  0.0792  0.1269 -0.0803
  529POSM   C1B 6202   6.142   8.924  14.257  0.1501  0.1288 -0.2853
  529POSM   D2B 6203   6.534   9.058  14.092 -0.0448  0.2037 -0.1294
  529POSM   C3B 6204   6.644   9.277  13.704  0.0487  0.3324 -0.1275
  529POSM   C4B 6205   6.305   9.430  13.442  0.1742 -0.0883  0.2193
  530DOPS   CNO 6206   5.641  22.778  14.122  0.0095  0.1749 -0.2745
  530DOPS   PO4 6207   5.300  22.784  14.236  0.1748  0.0364  0.1063
  530DOPS   GL1 6208   5.237  22.739  13.784  0.1748  0.2959 -0.1657
  530DOPS   GL2 6209   5.438  22.863  13.662  0.2061  0.1881  0.3279
  530DOPS   C1A 6210   5.010  22.601  13.428 -0.3223 -0.1809  0.1593
  530DOPS   D2A 6211   5.206  22.596  12.986 -0.2027 -0.0194 -0.1912
  530DOPS   C3A 6212   5.175  22.304  12.616 -0.0623 -0.2158  0.0558
  530DOPS   C4A 6213   5.057  21.910  12.465 -0.1007 -0.1309 -0.0883
  530DOPS   C1B 6214   5.500  22.516  13.380  0.1006  0.2292  0.1940
  530DOPS   D2B 6215   5.672  22.512  12.937 -0.2659  0.1227  0.2909
  530DOPS   C3B 6216   5.965  22.700  12.610 -0.1850 -0.1624 -0.0809
  530DOPS   C4B 6217   6.229  22.893  12.283 -0.1666 -0.2149  0.4234
  531POSM   NC3 6218  10.168  17.670  14.041 -0.0289  0.0534 -0.0577
  531POSM   PO4 6219   9.920  17.364  13.988  0.0017 -0.1210  0.2078
  531POSM   AM1 6220   9.731  17.396  13.706 -0.2217 -0.2002 -0.2569
  531POSM   AM2 6221   9.704  17.177  13.524 -0.0063  0.1267 -0.1662
  531POSM   T1A 6222   9.722  17.587  13.253  0.1770  0.2006 -0.1535
  531POSM   C2A 6223   9.427  17.709  12.950 -0.1912 -0.0821 -0.3454
  531POSM   C3A 6224   8.957  17.622  12.937 -0.0581 -0.2965  0.2365
  531POSM   C1B 6225   9.488  17.124  13.283 -0.1888 -0.3092  0.2572
  531POSM   D2B 6226   9.330  17.252  12.885  0.1315  0.3476 -0.1367
  531POSM   C3B 6227   9.501  16.996  12.528  0.0746  0.1701 -0.0324
  531POSM   C4B 6228   9.525  16.776  12.108 -0.3134  0.1910  0.0290
  532POSM   NC3 6229   5.326  15.574  15.386  0.1420  0.0988  0.0985
  532POSM   PO4 6230   5.049  15.332  15.456  0.2546 -0.0528 -0.1482
  532POSM   AM1 6231   4.808  15.442  15.253 -0.0884 -0.0297 -0.2317
  532POSM   AM2 6232   4.771  15.384  14.988 -0.1749 -0.0946 -0.0143
  532POSM   T1A 6233   4.326  15.510  15.137  0.1666 -0.1179 -0.2151
  532POSM   C2A 6234   3.987  15.436  14.852  0.2006  0.1534 -0.0565
  532POSM   C3A 6235   3.715  15.548  14.513  0.0104  0.0643 -0.5216
  532POSM   C1B 6236   4.635  15.460  14.683  0.2798  0.1621 -0.2500
  532POSM   D2B 6237   4.275  15.550  14.436  0.2193 -0.3429  0.0800
  532POSM   C3B 6238   4.284  15.340  13.967 -0.2544 -0.0475  0.1478
  532POSM   C4B 6239   4.359  15.458  13.524  0.0660  0.2849  0.1290
  533POSM   NC3 6240   2.557  21.751  14.824  0.0086 -0.0461  0.1592
  533POSM   PO4 6241   2.891  21.790  14.670 -0.0468  0.0031 -0.2355
  533POSM   AM1 6242   2.961  21.716  14.358 -0.0311 -0.0809  0.3716
  533POSM   AM2 6243   3.216  21.832  14.228  0.1457  0.1143  0.0183
  533POSM   T1A 6244   2.790  21.714  13.881  0.2416 -0.2162  0.2150
  533POSM   C2A 6245   2.885  21.710  13.472 -0.1152 -0.0200 -0.0086
  533POSM   C3A 6246   2.874  21.600  13.041 -0.2137  0.1203 -0.0967
  533POSM   C1B 6247   3.269  21.817  13.878 -0.1400  0.0170 -0.1507
  533POSM   D2B 6248   3.339  21.706  13.386 -0.1206 -0.1393 -0.0073
  533POSM   C3B 6249   3.638  21.685  13.013 -0.0767  0.1317  0.2598
  533POSM   C4B 6250   4.066  21.749  12.705 -0.0104 -0.1173  0.3819
  534DOPE   NH3 6251  10.816  20.440  13.253  0.0222 -0.4065  0.0461
  534DOPE   PO4 6252  10.927  20.152  13.189 -0.0964 -0.0565 -0.0187
  534DOPE   GL1 6253  10.815  20.065  12.860  0.1699  0.1889  0.0973
  534DOPE   GL2 6254  10.791  20.335  12.730 -0.2295 -0.0652  0.3980
  534DOPE   C1A 6255  11.063  19.791  12.555 -0.0787 -0.0063 -0.3269
  534DOPE   D2A 6256  11.165  19.674  12.145 -0.0554 -0.0437 -0.3777
  534DOPE   C3A 6257  11.115  19.982  11.825 -0.1661  0.0070 -0.0320
  534DOPE   C4A 6258  11.148  20.478  11.878  0.0139 -0.2576  0.1129
  534DOPE   C1B 6259  10.343  20.283  12.777  0.1155 -0.0803 -0.2169
  534DOPE   D2B 6260  10.140  19.842  12.653  0.0167 -0.0634 -0.0650
  534DOPE   C3B 6261   9.907  19.604  12.340  0.0205 -0.2846 -0.1372
  534DOPE   C4B 6262   9.648  19.213  12.178  0.0330 -0.0487  0.0694
  535DOPE   NH3 6263   3.663  20.067  14.504  0.0622  0.1182 -0.0012
  535DOPE   PO4 6264   3.940  20.045  14.706  0.0544 -0.1665 -0.1107
  535DOPE   GL1 6265   4.046  19.964  14.324  0.0955  0.1638 -0.2509
  535DOPE   GL2 6266   4.310  20.115  14.378 -0.1174 -0.1384 -0.1212
  535DOPE   C1A 6267   4.028  19.577  14.135 -0.1049  0.0482 -0.1144
  535DOPE   D2A 6268   4.119  19.113  14.068 -0.2728  0.1019 -0.0705
  535DOPE   C3A 6269   4.255  19.018  13.659 -0.0041 -0.0205  0.0771
  535DOPE   C4A 6270   4.506  19.023  13.253 -0.0229 -0.0180  0.0377
  535DOPE   C1B 6271   4.344  20.035  13.968  0.0831  0.2432  0.1990
  535DOPE   D2B 6272   4.526  20.021  13.587 -0.1410 -0.1933 -0.0250
  535DOPE   C3B 6273   4.878  20.209  13.261 -0.2450 -0.1422 -0.0784
  535DOPE   C4B 6274   5.096  20.338  12.873  0.2225  0.1351 -0.0627
  536DOPS   CNO 6275  12.561  10.329  14.717 -0.0266  0.1826  0.0633
  536DOPS   PO4 6276  12.238  10.378  14.956  0.4487 -0.3191 -0.1133
  536DOPS   GL1 6277  12.145  10.580  14.679  0.3152 -0.2243  0.1778
  536DOPS   GL2 6278  12.301  10.777  14.559  0.2399  0.0731 -0.4380
  536DOPS   C1A 6279  12.110  10.451  14.230 -0.2071  0.1785 -0.1432
  536DOPS   D2A 6280  12.427  10.623  13.812 -0.1244 -0.1432 -0.2100
  536DOPS   C3A 6281  12.573  10.351  13.503  0.1183  0.0447  0.0593
  536DOPS   C4A 6282  12.763  10.001  13.331  0.0861  0.2799  0.0857
  536DOPS   C1B 6283  12.592  10.630  14.238 -0.0474 -0.0494  0.1506
  536DOPS   D2B 6284  12.841  10.896  14.010  0.2436 -0.0925  0.0344
  536DOPS   C3B 6285  12.723  10.863  13.524 -0.1682  0.1742  0.1593
  536DOPS   C4B 6286  12.532  10.882  13.142  0.1343  0.0411  0.1695
  537DOPS   CNO 6287   5.032  19.942  14.885 -0.1162 -0.0093  0.0362
  537DOPS   PO4 6288   4.735  19.875  15.140 -0.0245 -0.2038  0.1246
  537DOPS   GL1 6289   4.603  19.722  14.694  0.0332 -0.3724  0.2220
  537DOPS   GL2 6290   4.346  19.711  14.623  0.2536  0.3347 -0.1834
  537DOPS   C1A 6291   4.709  19.722  14.240  0.2697  0.0173 -0.2052
  537DOPS   D2A 6292   4.477  19.499  13.871  0.0948  0.0603  0.1565
  537DOPS   C3A 6293   4.113  19.514  13.609  0.4049 -0.2135  0.1632
  537DOPS   C4A 6294   4.115  19.408  13.175  0.0281 -0.0744 -0.1326
  537DOPS   C1B 6295   4.498  19.329  14.461 -0.2804  0.0309  0.0031
  537DOPS   D2B 6296   4.624  19.053  14.098  0.1276 -0.1453  0.1294
  537DOPS   C3B 6297   4.842  19.154  13.686 -0.0295 -0.0486 -0.3553
  537DOPS   C4B 6298   5.126  19.266  13.309 -0.0152  0.1420  0.0196
  538DOPE   NH3 6299   4.944  21.181  14.829  0.1531  0.1346 -0.1132
  538DOPE   PO4 6300   4.959  21.526  14.766 -0.0360  0.0407 -0.1351
  538DOPE   GL1 6301   4.939  21.435  14.376  0.0630  0.4126 -0.0511
  538DOPE   GL2 6302   5.168  21.273  14.365 -0.0592  0.1427 -0.0694
  538DOPE   C1A 6303   4.653  21.664  14.043 -0.0829 -0.0882  0.2250
  538DOPE   D2A 6304   4.390  21.920  13.743  0.2122  0.2392  0.4017
  538DOPE   C3A 6305   4.380  21.870  13.287 -0.0064 -0.3843 -0.2753
  538DOPE   C4A 6306   4.420  22.082  12.910  0.0547  0.0421  0.2966
  538DOPE   C1B 6307   5.430  21.020  14.105 -0.2352  0.3351 -0.3530
  538DOPE   D2B 6308   5.765  20.751  14.013  0.4565  0.4043  0.0153
  538DOPE   C3B 6309   5.808  20.414  13.674  0.1167 -0.0676  0.1068
  538DOPE   C4B 6310   5.706  20.033  13.478  0.1469 -0.1019 -0.2478
  539DOPC   NC3 6311   7.138  23.316  14.311  0.1255  0.3879  0.1258
  539DOPC   PO4 6312   7.358  23.533  14.108  0.1842 -0.0394 -0.2456
  539DOPC   GL1 6313   7.123  23.462  13.784 -0.0371  0.1313  0.0443
  539DOPC   GL2 6314   6.873  23.317  13.866  0.1284  0.2806 -0.1403
  539DOPC   C1A 6315   6.810  23.494  13.417  0.0360  0.3620  0.2265
  539DOPC   D2A 6316   6.593  23.413  13.024 -0.0799 -0.0869 -0.4132
  539DOPC   C3A 6317   6.835  23.173  12.679  0.0641 -0.1232 -0.2983
  539DOPC   C4A 6318   7.130  22.978  12.420 -0.0610  0.1530  0.0559
  539DOPC   C1B 6319   7.101  23.087  13.521  0.1604  0.4204  0.0121
  539DOPC   D2B 6320   7.308  22.832  13.206  0.2147 -0.0044  0.2987
  539DOPC   C3B 6321   7.416  22.785  12.826  0.2045 -0.0374  0.2100
  539DOPC   C4B 6322   7.612  22.736  12.417  0.0321 -0.1076  0.0532
  540DOPE   NH3 6323   7.664  24.453  14.292  0.0843 -0.1112 -0.1632
  540DOPE   PO4 6324   7.725  24.600  14.023  0.0673  0.2337  0.0723
  540DOPE   GL1 6325   7.613  24.730  13.720 -0.3699 -0.0967 -0.0901
  540DOPE   GL2 6326   7.465  24.996  13.724 -0.1890 -0.1201  0.2217
  540DOPE   C1A 6327   7.878  24.647  13.361  0.4516  0.0802  0.1639
  540DOPE   D2A 6328   7.806  24.520  12.918 -0.2983  0.3545 -0.1514
  540DOPE   C3A 6329   7.805  24.106  12.703  0.0427  0.0367  0.1423
  540DOPE   C4A 6330   7.664  23.949  12.321  0.0065 -0.1099  0.0474
  540DOPE   C1B 6331   7.426  24.829  13.287 -0.0229  0.4238 -0.1138
  540DOPE   D2B 6332   7.290  24.717  12.807  0.0214 -0.0829 -0.0563
  540DOPE   C3B 6333   6.965  24.375  12.573 -0.2137 -0.1736  0.2661
  540DOPE   C4B 6334   7.107  23.977  12.342 -0.0084  0.2025  0.2700
  541DOPC   NC3 6335  33.056  16.527  15.515  0.0630 -0.2387  0.3165
  541DOPC   PO4 6336  33.116  16.165  15.314  0.0252  0.2293 -0.1184
  541DOPC   GL1 6337  33.045  16.351  15.080 -0.1166 -0.3409  0.0770
  541DOPC   GL2 6338  33.328  16.297  14.842 -0.0871  0.1432  0.0930
  541DOPC   C1A 6339  32.840  16.339  14.649  0.0126 -0.1982  0.0533
  541DOPC   D2A 6340  32.874  15.964  14.371  0.0096  0.0720  0.2074
  541DOPC   C3A 6341  33.055  15.922  13.980  0.2682  0.1178 -0.0534
  541DOPC   C4A 6342  33.330  15.785  13.585 -0.0796  0.3114 -0.0406
  541DOPC   C1B 6343  33.366  16.142  14.429 -0.0019  0.0374  0.1029
  541DOPC   D2B 6344  33.590  16.046  14.067  0.2435  0.0266  0.1136
  541DOPC   C3B 6345  33.838  16.409  13.953  0.0976 -0.0160 -0.0725
  541DOPC   C4B 6346  34.127  16.770  13.991  0.0680  0.4448  0.0632
  542DOPE   NH3 6347   9.720  15.102  14.806  0.1583  0.0184 -0.2104
  542DOPE   PO4 6348   9.923  14.900  14.861  0.0955  0.0792 -0.2423
  542DOPE   GL1 6349  10.071  14.865  14.466 -0.1331  0.2630  0.0708
  542DOPE   GL2 6350   9.843  14.744  14.256  0.3004  0.1612 -0.2412
  542DOPE   C1A 6351  10.107  15.064  14.041  0.3286  0.1114 -0.0168
  542DOPE   D2A 6352  10.182  15.226  13.612 -0.1916 -0.1392 -0.2567
  542DOPE   C3A 6353  10.352  14.849  13.428  0.1532 -0.0934 -0.2080
  542DOPE   C4A 6354  10.276  14.408  13.415  0.3418  0.0860  0.1180
  542DOPE   C1B 6355   9.808  14.608  13.829  0.1730 -0.0713  0.0881
  542DOPE   D2B 6356   9.862  14.786  13.413  0.1050 -0.0487 -0.1331
  542DOPE   C3B 6357   9.928  14.801  12.934  0.1901  0.3588 -0.2623
  542DOPE   C4B 6358  10.007  15.133  12.612  0.2648  0.0265  0.0191
  543DOPE   NH3 6359  11.348  19.920  13.327  0.0721 -0.0702 -0.0073
  543DOPE   PO4 6360  11.552  19.798  13.107  0.0698 -0.0373 -0.1185
  543DOPE   GL1 6361  11.544  19.792  12.756 -0.2829 -0.0581  0.1021
  543DOPE   GL2 6362  11.455  19.506  12.585  0.0105  0.3838  0.2434
  543DOPE   C1A 6363  11.532  19.987  12.387 -0.2611  0.1098 -0.1419
  543DOPE   D2A 6364  11.118  20.187  12.296  0.2449 -0.1240  0.0167
  543DOPE   C3A 6365  10.983  20.559  12.341  0.0631 -0.2171  0.0521
  543DOPE   C4A 6366  10.720  20.884  12.029  0.0687  0.0998  0.2060
  543DOPE   C1B 6367  11.813  19.468  12.290 -0.0192 -0.1068  0.3047
  543DOPE   D2B 6368  11.966  19.364  11.872  0.0165 -0.0107  0.0718
  543DOPE   C3B 6369  11.689  19.403  11.491  0.0896 -0.0590 -0.1769
  543DOPE   C4B 6370  11.354  19.143  11.404  0.0867  0.2018 -0.2146
  544DOPC   NC3 6371   2.369  12.004  15.542  0.0421 -0.0564 -0.0221
  544DOPC   PO4 6372   2.566  12.226  15.216  0.1862  0.0670  0.2122
  544DOPC   GL1 6373   2.889  12.193  15.004 -0.0917 -0.0941 -0.1188
  544DOPC   GL2 6374   3.036  11.922  14.962  0.1033 -0.0185 -0.1427
  544DOPC   C1A 6375   2.876  12.141  14.563 -0.2655 -0.0101  0.1578
  544DOPC   D2A 6376   2.964  12.223  14.109  0.0036 -0.0156  0.0497
  544DOPC   C3A 6377   2.739  12.516  13.816  0.0072 -0.2314 -0.0993
  544DOPC   C4A 6378   2.417  12.491  13.542 -0.3688 -0.1555  0.1696
  544DOPC   C1B 6379   3.366  11.920  14.632 -0.0630 -0.2993  0.0785
  544DOPC   D2B 6380   3.393  11.926  14.163 -0.2207 -0.0322  0.1723
  544DOPC   C3B 6381   3.162  11.641  13.864 -0.2114  0.3750  0.0242
  544DOPC   C4B 6382   3.391  11.647  13.455 -0.0369  0.1826 -0.0862
  545DOPC   NC3 6383   9.033  12.288  14.938 -0.0039  0.4880 -0.0297
  545DOPC   PO4 6384   8.618  12.206  15.063  0.0575 -0.0689 -0.2121
  545DOPC   GL1 6385   8.604  12.020  14.716 -0.1895 -0.1896  0.3449
  545DOPC   GL2 6386   8.701  12.254  14.557 -0.1806 -0.1104  0.0654
  545DOPC   C1A 6387   8.737  11.811  14.272 -0.1301  0.0825 -0.0682
  545DOPC   D2A 6388   9.034  11.895  13.996 -0.0934  0.2517 -0.0395
  545DOPC   C3A 6389   8.940  12.149  13.627 -0.1663  0.0973 -0.1843
  545DOPC   C4A 6390   9.044  12.280  13.200  0.0766 -0.0120  0.0999
  545DOPC   C1B 6391   8.443  12.617  14.257  0.1107  0.0768  0.1417
  545DOPC   D2B 6392   8.220  12.807  13.824  0.2825 -0.1868 -0.2919
  545DOPC   C3B 6393   8.056  13.196  13.580 -0.0463  0.0149 -0.1840
  545DOPC   C4B 6394   7.914  13.632  13.668 -0.0626 -0.2642  0.0503
  546DOPE   NH3 6395   7.722  13.376  14.676  0.2652  0.0111 -0.1371
  546DOPE   PO4 6396   7.953  13.552  14.764  0.3604  0.0649  0.0882
  546DOPE   GL1 6397   8.094  13.643  14.403 -0.0605 -0.2490  0.2277
  546DOPE   GL2 6398   8.325  13.560  14.444  0.1113 -0.0552 -0.2222
  546DOPE   C1A 6399   7.784  13.470  14.135 -0.1507 -0.2635  0.1027
  546DOPE   D2A 6400   7.359  13.441  13.909  0.3638  0.1310  0.3078
  546DOPE   C3A 6401   7.154  13.393  13.511  0.1844 -0.1820 -0.0537
  546DOPE   C4A 6402   6.770  13.245  13.329 -0.2484  0.1055 -0.2000
  546DOPE   C1B 6403   8.296  13.597  13.985 -0.0087  0.0768  0.0948
  546DOPE   D2B 6404   8.454  13.604  13.591  0.1913 -0.1662  0.0414
  546DOPE   C3B 6405   8.536  13.157  13.342  0.0115  0.2814 -0.3036
  546DOPE   C4B 6406   8.401  12.752  13.173  0.2247  0.0456  0.1259
  547DOPE   NH3 6407   8.758  17.127  14.583 -0.0539 -0.4369  0.0754
  547DOPE   PO4 6408   9.007  17.184  14.389 -0.2719  0.2675 -0.1686
  547DOPE   GL1 6409   8.959  16.950  14.061 -0.0421  0.0231 -0.1372
  547DOPE   GL2 6410   8.692  16.961  13.937  0.1100  0.0239 -0.0552
  547DOPE   C1A 6411   9.185  17.141  13.706 -0.0231  0.1148 -0.0747
  547DOPE   D2A 6412   8.954  17.378  13.368  0.2541  0.1891  0.0335
  547DOPE   C3A 6413   8.806  17.035  13.055  0.0191 -0.2972 -0.0809
  547DOPE   C4A 6414   8.651  16.692  12.722  0.0469 -0.4293 -0.1356
  547DOPE   C1B 6415   8.498  17.058  13.474  0.0281 -0.0194  0.0128
  547DOPE   D2B 6416   8.089  17.253  13.409 -0.0405 -0.2659  0.3017
  547DOPE   C3B 6417   7.945  17.423  12.945  0.1606 -0.0664 -0.0674
  547DOPE   C4B 6418   7.766  17.717  12.586  0.0326  0.1604 -0.2607
  548DOPS   CNO 6419   3.721  15.656  15.952  0.2053 -0.1032 -0.2815
  548DOPS   PO4 6420   3.599  15.906  15.669 -0.2288 -0.2312  0.0049
  548DOPS   GL1 6421   3.546  15.647  15.434 -0.0623 -0.1721 -0.0656
  548DOPS   GL2 6422   3.264  15.674  15.289 -0.0196  0.1089 -0.1481
  548DOPS   C1A 6423   3.665  15.257  15.175 -0.2032 -0.1132  0.0293
  548DOPS   D2A 6424   3.533  15.103  14.729  0.0143 -0.4378 -0.2190
  548DOPS   C3A 6425   3.364  14.697  14.638  0.1057  0.0842 -0.1496
  548DOPS   C4A 6426   3.351  14.277  14.513 -0.0632  0.0907 -0.1125
  548DOPS   C1B 6427   3.277  15.478  14.862  0.2239  0.1806 -0.0789
  548DOPS   D2B 6428   3.133  15.449  14.390 -0.1641  0.1090 -0.1921
  548DOPS   C3B 6429   3.114  15.712  14.019 -0.2614 -0.0517 -0.0804
  548DOPS   C4B 6430   3.250  16.025  13.741  0.2755  0.0789 -0.0556
  549POSM   NC3 6431   5.928  23.205  14.372 -0.2833  0.0627  0.1014
  549POSM   PO4 6432   5.531  23.195  14.377  0.1631 -0.0016 -0.0130
  549POSM   AM1 6433   5.342  23.241  14.090 -0.0299 -0.1519 -0.2450
  549POSM   AM2 6434   5.128  23.141  13.941 -0.1956 -0.2110 -0.5277
  549POSM   T1A 6435   5.418  23.406  13.631  0.4387  0.1707  0.3338
  549POSM   C2A 6436   5.442  23.328  13.186  0.0972  0.1204  0.2645
  549POSM   C3A 6437   5.755  23.087  13.038 -0.0662  0.3279  0.1053
  549POSM   C1B 6438   5.006  23.188  13.594 -0.2433 -0.0942 -0.0416
  549POSM   D2B 6439   4.989  23.105  13.125  0.0603 -0.2279 -0.3001
  549POSM   C3B 6440   5.277  23.097  12.783  0.0889 -0.4395  0.0838
  549POSM   C4B 6441   5.577  23.047  12.439  0.0680 -0.0144 -0.1812
  550DOPC   NC3 6442   1.714  18.893  15.238 -0.0980 -0.0368  0.1261
  550DOPC   PO4 6443   1.882  18.688  14.956  0.0358 -0.2841 -0.2205
  550DOPC   GL1 6444   2.128  18.617  14.607  0.3166  0.2323  0.0674
  550DOPC   GL2 6445   1.884  18.500  14.479 -0.0480  0.0196 -0.1030
  550DOPC   C1A 6446   2.129  18.763  14.185 -0.1407  0.0220 -0.0863
  550DOPC   D2A 6447   2.261  18.585  13.785 -0.3503 -0.0858  0.0235
  550DOPC   C3A 6448   2.329  18.113  13.691 -0.1063 -0.0016  0.0940
  550DOPC   C4A 6449   2.534  17.714  13.600  0.2291 -0.0181  0.0780
  550DOPC   C1B 6450   2.010  18.227  14.160  0.0919  0.2458  0.0228
  550DOPC   D2B 6451   2.190  17.776  14.038  0.0342 -0.0246 -0.0012
  550DOPC   C3B 6452   1.942  17.448  13.956 -0.2110  0.2474  0.1399
  550DOPC   C4B 6453   1.665  17.109  13.899  0.0618  0.1340 -0.1053
  551DOPC   NC3 6454   6.791  14.635  14.985  0.3118 -0.0516 -0.1360
  551DOPC   PO4 6455   6.695  14.236  14.962  0.4046  0.2509  0.4325
  551DOPC   GL1 6456   6.673  14.157  14.505  0.0326 -0.1945  0.2938
  551DOPC   GL2 6457   6.598  14.435  14.473 -0.1334 -0.2402 -0.1307
  551DOPC   C1A 6458   6.450  13.939  14.199  0.0011  0.0530 -0.3918
  551DOPC   D2A 6459   6.439  13.643  13.836 -0.1541 -0.0826  0.3312
  551DOPC   C3A 6460   6.716  13.808  13.481  0.0178  0.2316  0.0266
  551DOPC   C4A 6461   7.030  13.911  13.099 -0.0731  0.4046  0.2981
  551DOPC   C1B 6462   6.549  14.725  14.117  0.4383  0.3401  0.2383
  551DOPC   D2B 6463   6.380  15.092  13.884 -0.1518 -0.2396 -0.1894
  551DOPC   C3B 6464   6.105  14.855  13.610 -0.0342 -0.1713 -0.1142
  551DOPC   C4B 6465   5.855  14.746  13.157 -0.1088  0.1898 -0.4685
  552DOPS   CNO 6466   5.074  11.716  14.889 -0.0724 -0.3436  0.1686
  552DOPS   PO4 6467   4.861  11.609  15.197 -0.1776  0.0084 -0.1348
  552DOPS   GL1 6468   4.665  11.393  14.977 -0.1734  0.0684 -0.0952
  552DOPS   GL2 6469   4.568  11.585  14.811  0.1060  0.1056 -0.1802
  552DOPS   C1A 6470   4.386  11.144  14.680 -0.2332  0.3831 -0.1571
  552DOPS   D2A 6471   4.237  10.988  14.321  0.0876 -0.0278 -0.2114
  552DOPS   C3A 6472   4.007  10.576  14.240 -0.2620 -0.1976  0.2290
  552DOPS   C4A 6473   3.853  10.113  14.278 -0.3857  0.0756  0.0053
  552DOPS   C1B 6474   4.815  11.726  14.416  0.0226  0.2476 -0.0115
  552DOPS   D2B 6475   4.891  12.122  14.173  0.2526 -0.4367 -0.0640
  552DOPS   C3B 6476   4.725  12.211  13.745  0.1059 -0.2395  0.2090
  552DOPS   C4B 6477   4.590  12.250  13.280  0.0309 -0.0189  0.0236
  553DOPC   NC3 6478  10.616  22.782  14.001  0.2276 -0.2399  0.2238
  553DOPC   PO4 6479  10.339  23.050  14.030 -0.0849  0.0335 -0.0273
  553DOPC   GL1 6480  10.134  22.928  13.800  0.0730 -0.4711 -0.1054
  553DOPC   GL2 6481  10.163  23.163  13.569 -0.0206  0.1861 -0.1797
  553DOPC   C1A 6482  10.068  22.615  13.506 -0.1294 -0.0710 -0.3121
  553DOPC   D2A 6483  10.099  22.674  13.078 -0.0401  0.0639  0.1486
  553DOPC   C3A 6484  10.447  22.785  12.798 -0.3525 -0.3794  0.5378
  553DOPC   C4A 6485  10.807  23.049  12.895 -0.0419  0.0748 -0.2874
  553DOPC   C1B 6486  10.237  23.131  13.130  0.0480  0.2585  0.1307
  553DOPC   D2B 6487  10.403  23.415  12.770  0.1651 -0.2912  0.0130
  553DOPC   C3B 6488  10.800  23.603  12.752  0.0767  0.1299  0.2619
  553DOPC   C4B 6489  11.246  23.519  12.529 -0.0070 -0.2195  0.2880
  554POSM   NC3 6490   8.526  12.005  15.537  0.0524  0.1656  0.1569
  554POSM   PO4 6491   8.132  12.009  15.385 -0.1637 -0.1717 -0.2891
  554POSM   AM1 6492   8.124  11.981  15.044  0.1294 -0.3844  0.1210
  554POSM   AM2 6493   8.191  12.201  14.799 -0.1448 -0.3085 -0.2408
  554POSM   T1A 6494   8.249  11.719  14.632  0.1831 -0.1833  0.4605
  554POSM   C2A 6495   8.284  11.647  14.199  0.0085  0.1198  0.0076
  554POSM   C3A 6496   8.100  11.382  13.845  0.0613 -0.0783 -0.1751
  554POSM   C1B 6497   8.153  12.204  14.461  0.3279 -0.0391 -0.0049
  554POSM   D2B 6498   8.279  12.204  13.988 -0.2098  0.0352 -0.0696
  554POSM   C3B 6499   8.431  11.803  13.804 -0.2613  0.2190 -0.3438
  554POSM   C4B 6500   8.604  11.836  13.324  0.2012  0.5843  0.2643
  555DOPC   NC3 6501   7.187  10.487  15.126 -0.2117  0.0188  0.0058
  555DOPC   PO4 6502   6.868  10.725  15.189 -0.1547 -0.3993  0.0650
  555DOPC   GL1 6503   6.794  10.923  14.893  0.3432 -0.0332  0.0431
  555DOPC   GL2 6504   7.002  10.883  14.727  0.1911 -0.1391 -0.0088
  555DOPC   C1A 6505   6.617  10.876  14.450  0.3531  0.2150  0.3581
  555DOPC   D2A 6506   6.562  10.789  13.973  0.0756  0.0796  0.3674
  555DOPC   C3A 6507   6.917  10.540  13.753  0.1391 -0.1738 -0.0293
  555DOPC   C4A 6508   7.341  10.472  13.525  0.0860 -0.0110  0.0363
  555DOPC   C1B 6509   7.148  11.083  14.279 -0.2012 -0.1367 -0.1158
  555DOPC   D2B 6510   7.348  10.755  13.981  0.1820  0.1973  0.1756
  555DOPC   C3B 6511   7.336  11.056  13.640  0.0237 -0.1872 -0.1043
  555DOPC   C4B 6512   7.212  11.219  13.263  0.0766 -0.1493 -0.0217
  556DOPC   NC3 6513  10.016  10.079  14.972  0.1121 -0.4281  0.0079
  556DOPC   PO4 6514  10.317   9.894  14.844  0.3009  0.1964 -0.2850
  556DOPC   GL1 6515  10.542   9.931  14.574  0.1165 -0.1325 -0.2802
  556DOPC   GL2 6516  10.838  10.023  14.503  0.0266  0.1557  0.0633
  556DOPC   C1A 6517  10.342  10.150  14.169  0.1002  0.3275  0.1811
  556DOPC   D2A 6518  10.424  10.335  13.744  0.4979  0.0228 -0.0050
  556DOPC   C3A 6519  10.768  10.531  13.520  0.3325 -0.1134  0.0364
  556DOPC   C4A 6520  11.092  10.731  13.282 -0.3656  0.1646  0.1839
  556DOPC   C1B 6521  10.934  10.068  14.080 -0.3142  0.0811 -0.2048
  556DOPC   D2B 6522  10.887  10.045  13.585 -0.3525 -0.0369 -0.3686
  556DOPC   C3B 6523  11.053  10.230  13.184 -0.0956 -0.2511  0.0712
  556DOPC   C4B 6524  11.256  10.397  12.811  0.0057  0.2058  0.0874
  557DOPE   NH3 6525   7.524   9.230  14.841 -0.3318  0.0545 -0.0755
  557DOPE   PO4 6526   7.529   9.086  14.560  0.1492  0.1804  0.0601
  557DOPE   GL1 6527   7.446   9.199  14.225 -0.0011 -0.2372  0.1166
  557DOPE   GL2 6528   7.205   9.248  14.158  0.4564 -0.1540  0.2367
  557DOPE   C1A 6529   7.517   9.077  13.799  0.1352 -0.0007 -0.0661
  557DOPE   D2A 6530   7.311   9.113  13.393  0.2551  0.0827 -0.0934
  557DOPE   C3A 6531   7.533   8.793  13.161  0.2439  0.0479 -0.1911
  557DOPE   C4A 6532   7.350   8.537  12.776 -0.2594  0.0844  0.0097
  557DOPE   C1B 6533   7.018   8.937  13.884 -0.1923  0.0246  0.0476
  557DOPE   D2B 6534   6.687   8.805  13.618 -0.2498  0.0778 -0.0667
  557DOPE   C3B 6535   6.268   8.895  13.349  0.3756  0.0235 -0.0225
  557DOPE   C4B 6536   6.029   9.166  13.038 -0.0511  0.0082 -0.0785
  558POSM   NC3 6537  10.257  12.806  15.023 -0.2428 -0.3622 -0.0580
  558POSM   PO4 6538  10.625  12.951  15.036 -0.0489 -0.0625 -0.2190
  558POSM   AM1 6539  10.640  12.747  14.794 -0.2166  0.1376 -0.3031
  558POSM   AM2 6540  10.493  12.624  14.550  0.3994  0.0308 -0.0959
  558POSM   T1A 6541  10.831  12.866  14.284  0.0935 -0.1825 -0.1019
  558POSM   C2A 6542  10.889  13.003  13.812 -0.1152  0.3733  0.1508
  558POSM   C3A 6543  10.766  13.343  13.502 -0.2422 -0.2699  0.2425
  558POSM   C1B 6544  10.637  12.412  14.331  0.1272 -0.0736 -0.0103
  558POSM   D2B 6545  10.729  12.043  14.226  0.0183  0.1231 -0.0573
  558POSM   C3B 6546  11.038  11.964  13.866  0.2730  0.1228 -0.0692
  558POSM   C4B 6547  10.922  11.567  13.660  0.2897  0.0183 -0.2130
  559POSM   NC3 6548   4.362  19.103  15.422 -0.0469  0.1979 -0.0887
  559POSM   PO4 6549   4.269  18.710  15.444  0.2754  0.1535 -0.1397
  559POSM   AM1 6550   4.296  18.610  15.118 -0.1648  0.0205 -0.2896
  559POSM   AM2 6551   4.125  18.535  14.930  0.2488 -0.0404  0.1774
  559POSM   T1A 6552   4.532  18.485  14.663  0.2272 -0.1749  0.0640
  559POSM   C2A 6553   4.650  18.513  14.220 -0.0591 -0.0395 -0.1194
  559POSM   C3A 6554   4.626  18.147  13.959  0.0168 -0.0722 -0.0460
  559POSM   C1B 6555   3.928  18.595  14.667 -0.0566 -0.2866  0.2935
  559POSM   D2B 6556   3.627  18.779  14.405 -0.2923  0.2347  0.1256
  559POSM   C3B 6557   3.884  18.694  14.040  0.4008 -0.0233 -0.0548
  559POSM   C4B 6558   4.288  18.561  13.799  0.4465 -0.0940  0.1600
  560DOPE   NH3 6559   1.706  11.793  15.793 -0.0902 -0.0961  0.2817
  560DOPE   PO4 6560   1.774  11.619  15.523  0.1017  0.3945  0.2219
  560DOPE   GL1 6561   1.700  11.521  15.132 -0.1895  0.0229  0.0852
  560DOPE   GL2 6562   1.393  11.427  15.133  0.0945  0.1729 -0.1721
  560DOPE   C1A 6563   1.535  11.812  14.795  0.1064 -0.5466  0.1715
  560DOPE   D2A 6564   1.317  11.719  14.380  0.1130 -0.0267  0.1447
  560DOPE   C3A 6565   1.628  11.891  14.080  0.1055  0.0611  0.1614
  560DOPE   C4A 6566   2.034  11.720  13.898  0.3840 -0.1162  0.0498
  560DOPE   C1B 6567   1.549  11.301  14.713 -0.1249  0.1139 -0.0528
  560DOPE   D2B 6568   1.405  11.028  14.367 -0.0101  0.0876 -0.1828
  560DOPE   C3B 6569   1.339  10.961  13.867  0.0376 -0.3753  0.2835
  560DOPE   C4B 6570   1.258  10.741  13.495 -0.3709 -0.2515  0.0559
  561POSM   NC3 6571   1.485  11.928  15.303  0.0025  0.2648  0.2924
  561POSM   PO4 6572   1.117  11.758  15.399 -0.0682 -0.0652  0.1580
  561POSM   AM1 6573   0.935  11.907  15.145  0.0786 -0.1595 -0.0803
  561POSM   AM2 6574   0.990  11.808  14.867  0.0648 -0.0847 -0.1864
  561POSM   T1A 6575   0.862  12.330  14.899  0.0700 -0.1331  0.2615
  561POSM   C2A 6576   0.792  12.482  14.502 -0.2275 -0.1261 -0.0409
  561POSM   C3A 6577   0.599  12.711  14.201  0.0543  0.1206 -0.2270
  561POSM   C1B 6578   0.870  11.969  14.591  0.2019  0.1871  0.1084
  561POSM   D2B 6579   0.989  12.139  14.181  0.1186 -0.3544  0.0273
  561POSM   C3B 6580   0.652  12.248  13.918 -0.0803 -0.2125  0.0799
  561POSM   C4B 6581   0.403  12.622  13.691 -0.1425 -0.0334 -0.0219
  562DOPE   NH3 6582   3.619  22.569  14.517  0.0062 -0.3505 -0.1279
  562DOPE   PO4 6583   3.828  22.845  14.456 -0.0373 -0.0690  0.1174
  562DOPE   GL1 6584   3.832  22.809  13.996 -0.0508  0.1085  0.3133
  562DOPE   GL2 6585   4.077  22.882  13.972  0.3000  0.2665 -0.1335
  562DOPE   C1A 6586   3.736  23.085  13.613 -0.2023  0.0324  0.2344
  562DOPE   D2A 6587   3.700  23.439  13.283 -0.0826  0.0861 -0.1937
  562DOPE   C3A 6588   4.070  23.543  12.961  0.2003  0.0316 -0.1901
  562DOPE   C4A 6589   4.336  23.810  12.672 -0.2674  0.2743 -0.0708
  562DOPE   C1B 6590   4.088  22.701  13.580 -0.0919  0.1276  0.3482
  562DOPE   D2B 6591   4.096  22.467  13.196 -0.1040 -0.0287 -0.2084
  562DOPE   C3B 6592   4.162  22.549  12.732 -0.0097  0.1512 -0.3396
  562DOPE   C4B 6593   4.086  22.732  12.345 -0.0961  0.0611  0.1297
  563POSM   NC3 6594   3.227  21.448  15.329 -0.0705 -0.4437  0.1051
  563POSM   PO4 6595   3.320  21.240  14.981  0.1160  0.1758  0.2139
  563POSM   AM1 6596   3.435  21.147  14.695  0.3555 -0.2620 -0.2304
  563POSM   AM2 6597   3.242  21.151  14.450 -0.0717 -0.0625  0.0341
  563POSM   T1A 6598   3.684  21.319  14.295  0.0111  0.0878 -0.0875
  563POSM   C2A 6599   3.594  21.457  13.858 -0.0614 -0.0007 -0.5346
  563POSM   C3A 6600   3.841  21.574  13.538 -0.1182  0.1523  0.2192
  563POSM   C1B 6601   3.191  21.349  14.184 -0.3051 -0.1808 -0.0852
  563POSM   D2B 6602   3.106  21.334  13.714 -0.0618 -0.1887  0.1012
  563POSM   C3B 6603   2.925  21.125  13.340 -0.2134 -0.0804  0.3928
  563POSM   C4B 6604   2.772  21.007  12.872 -0.0984  0.0585 -0.0167
  564DOPS   CNO 6605   9.686  13.542  15.031  0.1246 -0.0328  0.0855
  564DOPS   PO4 6606   9.942  13.246  15.044 -0.0212 -0.2604  0.1404
  564DOPS   GL1 6607  10.115  13.415  14.678 -0.1393  0.0187  0.1681
  564DOPS   GL2 6608   9.852  13.542  14.555  0.0587  0.4158 -0.0580
  564DOPS   C1A 6609  10.128  13.249  14.236  0.1601 -0.0215 -0.2346
  564DOPS   D2A 6610  10.303  12.780  14.175  0.1955  0.5045  0.2957
  564DOPS   C3A 6611  10.193  12.585  13.785 -0.1793 -0.1206 -0.0980
  564DOPS   C4A 6612  10.315  12.218  13.467  0.0570  0.1019 -0.0209
  564DOPS   C1B 6613   9.608  13.142  14.313 -0.1554 -0.1571 -0.2256
  564DOPS   D2B 6614   9.376  13.165  13.909  0.1577 -0.3779 -0.1681
  564DOPS   C3B 6615   9.306  13.630  13.788  0.1506 -0.0022  0.1995
  564DOPS   C4B 6616   9.569  13.994  13.766 -0.0389  0.2014  0.1961
  565DOPC   NC3 6617   6.565  20.328  14.541  0.0962  0.5127 -0.0968
  565DOPC   PO4 6618   6.632  20.686  14.600  0.0812  0.1364 -0.1350
  565DOPC   GL1 6619   6.657  20.689  14.223 -0.0014  0.2140  0.0875
  565DOPC   GL2 6620   6.681  20.970  14.174 -0.3617 -0.0732  0.1220
  565DOPC   C1A 6621   6.268  20.605  13.905  0.2119  0.1058  0.1289
  565DOPC   D2A 6622   6.065  20.805  13.566  0.0108  0.1521 -0.1394
  565DOPC   C3A 6623   6.004  20.632  13.172  0.1850 -0.0842 -0.1970
  565DOPC   C4A 6624   6.035  20.564  12.716  0.1024 -0.0543  0.3338
  565DOPC   C1B 6625   6.687  20.775  13.756  0.3141 -0.1650 -0.2895
  565DOPC   D2B 6626   6.450  20.508  13.470 -0.1011  0.1055 -0.0204
  565DOPC   C3B 6627   6.516  20.164  13.173  0.1286  0.1197 -0.1698
  565DOPC   C4B 6628   6.692  19.836  12.840  0.0958 -0.2582  0.0659
  566DOPS   CNO 6629  33.618  22.633  14.082 -0.1519 -0.0604 -0.1433
  566DOPS   PO4 6630  33.933  22.847  14.029 -0.2009  0.0515  0.1006
  566DOPS   GL1 6631  33.833  22.963  13.649  0.0712 -0.2405 -0.0794
  566DOPS   GL2 6632  33.997  22.853  13.462 -0.0354 -0.1763  0.0282
  566DOPS   C1A 6633  33.571  23.204  13.347  0.1787  0.2312  0.2482
  566DOPS   D2A 6634  33.296  23.466  13.118  0.0626  0.1314  0.4334
  566DOPS   C3A 6635  33.184  23.525  12.658 -0.0035  0.0346  0.3200
  566DOPS   C4A 6636  33.128  23.683  12.213  0.0535  0.0597 -0.0915
  566DOPS   C1B 6637  34.089  22.896  13.001  0.0908 -0.1437  0.0097
  566DOPS   D2B 6638  34.282  22.960  12.568 -0.0575  0.3289 -0.0698
  566DOPS   C3B 6639  34.398  23.256  12.329  0.0968  0.0838  0.0009
  566DOPS   C4B 6640  34.716  23.531  12.160 -0.1167 -0.5341 -0.0353
  567DOPE   NH3 6641   7.508  19.948  14.630  0.0123 -0.0855 -0.2677
  567DOPE   PO4 6642   7.808  20.051  14.698 -0.0008  0.0783  0.0211
  567DOPE   GL1 6643   7.854  20.062  14.304 -0.0657  0.2974 -0.1123
  567DOPE   GL2 6644   8.059  20.189  14.106  0.0452 -0.3010  0.2559
  567DOPE   C1A 6645   7.535  20.310  14.002  0.1355  0.3412  0.0786
  567DOPE   D2A 6646   7.164  20.445  13.804  0.2362  0.0635 -0.0708
  567DOPE   C3A 6647   7.398  20.415  13.380 -0.0060 -0.0435  0.0986
  567DOPE   C4A 6648   7.429  20.625  12.996  0.1297 -0.2014  0.2739
  567DOPE   C1B 6649   7.865  20.243  13.655 -0.0245  0.1531 -0.0350
  567DOPE   D2B 6650   7.660  20.013  13.262 -0.1587 -0.0762  0.3182
  567DOPE   C3B 6651   7.457  20.086  12.867 -0.0747 -0.3168  0.0712
  567DOPE   C4B 6652   7.165  20.218  12.523 -0.2625  0.3622  0.2495
  568DOPC   NC3 6653   2.609  23.033  14.429 -0.2362  0.0567  0.0283
  568DOPC   PO4 6654   2.586  22.653  14.367 -0.1014  0.1299 -0.4955
  568DOPC   GL1 6655   2.717  22.741  13.986  0.2347 -0.4881 -0.0664
  568DOPC   GL2 6656   2.606  22.999  13.918 -0.0171  0.1250  0.0540
  568DOPC   C1A 6657   3.021  22.809  13.641 -0.1146 -0.0321 -0.0224
  568DOPC   D2A 6658   3.429  22.763  13.354  0.1292 -0.2418 -0.0271
  568DOPC   C3A 6659   3.538  22.362  13.171  0.0663 -0.2074  0.0754
  568DOPC   C4A 6660   3.884  22.063  13.345  0.1545  0.0196  0.0973
  568DOPC   C1B 6661   2.585  23.080  13.451  0.1595  0.2408  0.0107
  568DOPC   D2B 6662   2.912  23.051  13.160  0.0346  0.0593  0.0922
  568DOPC   C3B 6663   3.153  22.704  12.993 -0.1713  0.0017  0.2433
  568DOPC   C4B 6664   3.290  22.515  12.557  0.0737 -0.2001 -0.1308
  569DOPS   CNO 6665  33.810  15.265  15.898  0.1652 -0.0262  0.0617
  569DOPS   PO4 6666  33.897  15.120  15.547  0.0617 -0.1653  0.1027
  569DOPS   GL1 6667  33.858  15.136  15.180  0.1604  0.2400  0.0352
  569DOPS   GL2 6668  34.161  15.151  15.127  0.1405 -0.0711 -0.1589
  569DOPS   C1A 6669  33.517  14.929  14.878 -0.0637  0.1028  0.1988
  569DOPS   D2A 6670  33.222  14.806  14.524 -0.0259  0.3770  0.2059
  569DOPS   C3A 6671  33.172  14.992  14.138 -0.0721  0.0700  0.0939
  569DOPS   C4A 6672  32.813  14.926  13.816  0.3794 -0.2910 -0.2779
  569DOPS   C1B 6673  34.305  15.216  14.701 -0.0377  0.1026 -0.3246
  569DOPS   D2B 6674  34.568  15.276  14.314  0.0749  0.2580  0.0531
  569DOPS   C3B 6675  34.658  15.175  13.864  0.2414  0.1392 -0.1812
  569DOPS   C4B 6676  34.666  15.044  13.396 -0.0346 -0.0030  0.0588
  570DOPC   NC3 6677   6.088  13.989  15.087 -0.0379 -0.6409 -0.1675
  570DOPC   PO4 6678   6.099  13.580  15.064  0.1310  0.1014 -0.2126
  570DOPC   GL1 6679   5.926  13.524  14.666 -0.3724 -0.4084 -0.0969
  570DOPC   GL2 6680   5.655  13.406  14.798  0.3747 -0.0613 -0.2531
  570DOPC   C1A 6681   6.084  13.573  14.274 -0.1121  0.2608 -0.0794
  570DOPC   D2A 6682   5.947  13.926  13.935  0.1474  0.2758  0.0157
  570DOPC   C3A 6683   5.858  13.891  13.423  0.2279  0.2122  0.6375
  570DOPC   C4A 6684   5.990  13.728  12.986  0.1091 -0.3411 -0.3279
  570DOPC   C1B 6685   5.664  13.227  14.412  0.0439 -0.1143 -0.2019
  570DOPC   D2B 6686   5.950  13.054  14.165 -0.1235  0.2173  0.2969
  570DOPC   C3B 6687   6.345  13.189  14.035 -0.2358 -0.0445 -0.1811
  570DOPC   C4B 6688   6.798  13.270  13.865  0.2166  0.3492 -0.0885
  571DOPE   NH3 6689  13.742  18.407  12.974  0.2399  0.0519  0.0215
  571DOPE   PO4 6690  13.719  18.619  12.750 -0.1583  0.2514  0.4183
  571DOPE   GL1 6691  13.491  18.671  12.549 -0.2191  0.1232  0.0431
  571DOPE   GL2 6692  13.440  18.954  12.420  0.1149 -0.1095 -0.2535
  571DOPE   C1A 6693  13.253  18.616  12.131 -0.2898 -0.1436 -0.0984
  571DOPE   D2A 6694  12.986  18.758  11.769  0.1274  0.0935  0.1961
  571DOPE   C3A 6695  12.599  18.506  11.738  0.0990 -0.0543  0.0366
  571DOPE   C4A 6696  12.153  18.683  11.827  0.3465 -0.2655  0.0474
  571DOPE   C1B 6697  13.278  19.113  12.013 -0.0489 -0.2828 -0.1981
  571DOPE   D2B 6698  13.087  19.190  11.549 -0.0163  0.0783 -0.1197
  571DOPE   C3B 6699  13.229  19.341  11.149  0.2926 -0.1352 -0.2522
  571DOPE   C4B 6700  13.260  19.677  10.855  0.0486 -0.2837  0.0303
  572POSM   NC3 6701   7.381  25.913  13.849 -0.0032  0.0932 -0.0013
  572POSM   PO4 6702   7.428  25.588  14.070  0.0640 -0.1551 -0.0582
  572POSM   AM1 6703   7.322  25.391  13.828 -0.0174  0.6282  0.2524
  572POSM   AM2 6704   7.090  25.305  13.654 -0.1038  0.3256 -0.0450
  572POSM   T1A 6705   7.562  25.334  13.393  0.1544 -0.0896  0.3303
  572POSM   C2A 6706   7.775  25.534  13.050 -0.1237  0.0569  0.0612
  572POSM   C3A 6707   7.869  25.843  12.720 -0.1261  0.0550  0.3318
  572POSM   C1B 6708   6.972  25.007  13.634 -0.2869 -0.1357 -0.1137
  572POSM   D2B 6709   6.891  24.616  13.451 -0.2601  0.3094 -0.1606
  572POSM   C3B 6710   7.231  24.260  13.382  0.0683  0.1956  0.3306
  572POSM   C4B 6711   7.231  23.813  13.149  0.0943  0.1056 -0.0334
  573DOPE   NH3 6712   7.225  21.817  14.694  0.1043  0.0479  0.1110
  573DOPE   PO4 6713   7.495  21.800  14.540 -0.0277  0.1565 -0.0344
  573DOPE   GL1 6714   7.449  21.886  14.153  0.0341  0.2030 -0.3262
  573DOPE   GL2 6715   7.482  21.735  13.961 -0.1828 -0.2683 -0.0092
  573DOPE   C1A 6716   7.838  22.010  13.922 -0.2592 -0.0700  0.0334
  573DOPE   D2A 6717   7.911  22.097  13.443 -0.1787  0.2586 -0.2706
  573DOPE   C3A 6718   7.708  22.182  13.011  0.0242 -0.2051 -0.0494
  573DOPE   C4A 6719   7.641  21.906  12.626  0.3574 -0.2829  0.4445
  573DOPE   C1B 6720   7.646  21.698  13.537  0.0677  0.2239  0.2318
  573DOPE   D2B 6721   7.767  21.578  13.139 -0.1873  0.3926  0.1847
  573DOPE   C3B 6722   7.452  21.393  12.800 -0.0543 -0.1259 -0.0293
  573DOPE   C4B 6723   7.201  21.249  12.450 -0.2404 -0.3838 -0.4174
  574POSM   NC3 6724   7.954  21.927  14.503 -0.1397  0.1488 -0.0893
  574POSM   PO4 6725   8.333  21.918  14.444 -0.1443  0.0928 -0.4065
  574POSM   AM1 6726   8.242  21.957  14.122 -0.3839  0.1858  0.1292
  574POSM   AM2 6727   8.318  21.788  13.867  0.0009 -0.2898 -0.1333
  574POSM   T1A 6728   8.260  22.364  13.790 -0.0808  0.3047 -0.1219
  574POSM   C2A 6729   8.043  22.585  13.416 -0.0747 -0.2947 -0.1018
  574POSM   C3A 6730   7.856  22.652  13.023  0.0346  0.0647  0.1825
  574POSM   C1B 6731   8.452  21.889  13.546  0.0751 -0.3826  0.1087
  574POSM   D2B 6732   8.388  22.227  13.240 -0.1793  0.0996  0.0644
  574POSM   C3B 6733   8.287  22.404  12.808  0.1073  0.2374  0.2342
  574POSM   C4B 6734   7.939  22.320  12.506 -0.2002 -0.2904  0.0840
  575DOPC   NC3 6735   9.860  14.424  15.083  0.0242  0.1669 -0.2214
  575DOPC   PO4 6736  10.019  14.407  14.698 -0.1848 -0.2417  0.4773
  575DOPC   GL1 6737  10.051  14.231  14.263  0.1936 -0.1242  0.0832
  575DOPC   GL2 6738   9.765  14.126  14.304 -0.1281  0.1007 -0.2608
  575DOPC   C1A 6739  10.067  14.129  13.794 -0.0559 -0.0941 -0.0507
  575DOPC   D2A 6740  10.056  13.932  13.416  0.0215 -0.1775 -0.2822
  575DOPC   C3A 6741   9.912  14.199  13.056 -0.1068 -0.0654 -0.1264
  575DOPC   C4A 6742   9.675  14.391  12.676 -0.0473  0.2445  0.1618
  575DOPC   C1B 6743   9.406  14.349  14.079  0.2092  0.0639  0.0134
  575DOPC   D2B 6744   9.226  14.651  13.758 -0.0060  0.0543 -0.0551
  575DOPC   C3B 6745   9.046  14.505  13.407 -0.0860 -0.0267 -0.0688
  575DOPC   C4B 6746   8.861  14.264  13.042 -0.2724  0.0597  0.0748
  576DOPE   NH3 6747   8.362  24.999  13.920  0.0672  0.2791 -0.0029
  576DOPE   PO4 6748   8.339  25.281  13.827  0.2494 -0.0034  0.0598
  576DOPE   GL1 6749   8.503  25.040  13.494  0.2895 -0.1284 -0.2083
  576DOPE   GL2 6750   8.316  24.860  13.387 -0.0137  0.0493 -0.3459
  576DOPE   C1A 6751   8.962  24.889  13.371  0.2403 -0.2037 -0.0727
  576DOPE   D2A 6752   9.413  24.774  13.411 -0.5753  0.0296 -0.0754
  576DOPE   C3A 6753   9.617  24.477  13.099 -0.0037 -0.0634 -0.1498
  576DOPE   C4A 6754   9.713  24.344  12.674 -0.2671 -0.2848  0.0625
  576DOPE   C1B 6755   8.298  24.508  13.044  0.1109  0.1251 -0.0390
  576DOPE   D2B 6756   8.263  24.360  12.662 -0.2017  0.0316 -0.1200
  576DOPE   C3B 6757   8.651  24.369  12.417 -0.0860  0.0148 -0.0984
  576DOPE   C4B 6758   8.992  24.613  12.213 -0.0572 -0.0748 -0.1730
  577POSM   NC3 6759   6.521   9.618  15.187  0.0155 -0.1935 -0.0740
  577POSM   PO4 6760   6.238   9.840  15.072  0.0329 -0.0139 -0.0631
  577POSM   AM1 6761   6.142   9.805  14.771  0.0091 -0.3342  0.4182
  577POSM   AM2 6762   5.906   9.853  14.663  0.1315 -0.2193  0.1019
  577POSM   T1A 6763   6.295   9.873  14.274  0.0986 -0.1313 -0.2762
  577POSM   C2A 6764   6.463   9.703  13.889 -0.1345 -0.2183 -0.2771
  577POSM   C3A 6765   6.674   9.764  13.522 -0.0301  0.1447  0.1379
  577POSM   C1B 6766   5.906  10.122  14.394  0.0635  0.2637  0.1809
  577POSM   D2B 6767   6.082  10.214  13.945  0.0903  0.2395 -0.0108
  577POSM   C3B 6768   6.071   9.870  13.630  0.0453 -0.3845  0.3524
  577POSM   C4B 6769   5.986   9.817  13.164 -0.1856  0.1454  0.2104
  578DOPE   NH3 6770   8.301  20.079  14.553  0.2994  0.0049  0.1722
  578DOPE   PO4 6771   8.615  20.103  14.473  0.2582 -0.1298 -0.0696
  578DOPE   GL1 6772   8.530  20.208  14.153 -0.1773 -0.2023 -0.3151
  578DOPE   GL2 6773   8.801  20.266  14.053 -0.2506 -0.0499  0.4451
  578DOPE   C1A 6774   8.397  20.190  13.716 -0.4285 -0.0631  0.0139
  578DOPE   D2A 6775   8.413  20.083  13.212 -0.1527 -0.3088  0.2031
  578DOPE   C3A 6776   8.434  20.504  12.947  0.0031  0.2524  0.1686
  578DOPE   C4A 6777   8.298  20.874  12.695  0.3861  0.0432  0.0717
  578DOPE   C1B 6778   8.948  19.914  13.781  0.0556 -0.0133 -0.0317
  578DOPE   D2B 6779   8.561  19.683  13.549  0.0685 -0.0338  0.4127
  578DOPE   C3B 6780   8.631  19.601  13.068  0.2421 -0.0877  0.2584
  578DOPE   C4B 6781   8.704  19.426  12.558 -0.0547 -0.2269 -0.2236
  579DOPE   NH3 6782   1.116  15.962  16.000  0.0404 -0.1595  0.1413
  579DOPE   PO4 6783   1.407  16.032  15.922 -0.1622  0.2268  0.0925
  579DOPE   GL1 6784   1.675  16.052  15.612  0.2043 -0.1674  0.0845
  579DOPE   GL2 6785   1.653  15.798  15.464  0.1952 -0.0653  0.2204
  579DOPE   C1A 6786   2.011  16.191  15.381 -0.0675  0.0280  0.3063
  579DOPE   D2A 6787   2.190  16.366  15.009  0.3837 -0.1690 -0.0827
  579DOPE   C3A 6788   2.014  16.764  14.857  0.0890  0.2405  0.0579
  579DOPE   C4A 6789   1.806  17.007  14.514 -0.1047 -0.0521 -0.1565
  579DOPE   C1B 6790   1.849  15.838  15.053  0.3666 -0.0632  0.2143
  579DOPE   D2B 6791   2.030  15.999  14.610  0.0210 -0.0242 -0.0693
  579DOPE   C3B 6792   2.056  15.760  14.209  0.0385 -0.2592 -0.0073
  579DOPE   C4B 6793   1.708  15.518  13.991  0.0911 -0.1823  0.0678
  580DOPE   NH3 6794   8.612  18.905  14.552 -0.0101 -0.0244 -0.1649
  580DOPE   PO4 6795   8.378  18.706  14.691 -0.1638  0.1300  0.1766
  580DOPE   GL1 6796   8.223  18.485  14.321  0.0793  0.2593 -0.3312
  580DOPE   GL2 6797   8.002  18.293  14.421  0.0017 -0.1218  0.0113
  580DOPE   C1A 6798   8.306  18.289  13.905  0.1039  0.2987 -0.0733
  580DOPE   D2A 6799   7.861  18.223  13.644  0.1375  0.0605 -0.0031
  580DOPE   C3A 6800   7.435  18.055  13.716  0.0495 -0.0234 -0.1971
  580DOPE   C4A 6801   6.984  18.001  13.536 -0.0203 -0.1383  0.0055
  580DOPE   C1B 6802   7.574  18.037  14.373 -0.1774 -0.0714  0.0176
  580DOPE   D2B 6803   7.466  17.652  14.161  0.2878  0.1604  0.0091
  580DOPE   C3B 6804   7.151  17.569  13.800 -0.0664 -0.0517 -0.2330
  580DOPE   C4B 6805   6.765  17.543  13.547  0.0678  0.0186 -0.2033
  581DOPE   NH3 6806   0.380  11.080  15.661  0.0476  0.1133  0.0536
  581DOPE   PO4 6807   0.439  11.246  15.402  0.1477 -0.3033  0.2713
  581DOPE   GL1 6808   0.302  11.189  15.020 -0.0576 -0.0840  0.2708
  581DOPE   GL2 6809   0.606  11.045  15.028 -0.2550  0.0499  0.2056
  581DOPE   C1A 6810   0.074  11.250  14.662 -0.1555  0.0731 -0.1763
  581DOPE   D2A 6811  -0.011  11.147  14.203 -0.2097 -0.0105  0.2615
  581DOPE   C3A 6812  -0.198  11.495  13.908  0.0605 -0.0433  0.0739
  581DOPE   C4A 6813  -0.197  11.739  13.550 -0.2661 -0.0761  0.1726
  581DOPE   C1B 6814   0.581  10.941  14.620  0.4969  0.0285  0.4705
  581DOPE   D2B 6815   0.863  11.051  14.285  0.2535  0.2319  0.0710
  581DOPE   C3B 6816   0.835  11.214  13.940 -0.1398 -0.0676  0.1563
  581DOPE   C4B 6817   0.732  11.665  13.719 -0.1938 -0.2519 -0.6119
  582POSM   NC3 6818   8.186  14.761  15.092 -0.2320  0.2083  0.5301
  582POSM   PO4 6819   8.268  14.395  14.910  0.3034 -0.1679  0.1959
  582POSM   AM1 6820   8.304  14.621  14.684  0.0974  0.2683  0.2113
  582POSM   AM2 6821   8.199  14.559  14.395 -0.0347 -0.1075  0.1130
  582POSM   T1A 6822   8.594  14.780  14.295 -0.1730 -0.2704  0.3007
  582POSM   C2A 6823   8.763  14.971  13.924  0.0744 -0.1152 -0.0672
  582POSM   C3A 6824   8.721  14.941  13.408 -0.0563  0.0053  0.1851
  582POSM   C1B 6825   8.252  14.529  14.046 -0.0497  0.0375  0.0979
  582POSM   D2B 6826   8.218  14.828  13.668  0.0842  0.2735  0.1724
  582POSM   C3B 6827   8.052  15.245  13.613 -0.1088  0.4699  0.2820
  582POSM   C4B 6828   8.186  15.676  13.432 -0.1670 -0.1157 -0.0850
  583DOPE   NH3 6829   8.380  19.318  14.779  0.3921 -0.2680  0.4274
  583DOPE   PO4 6830   8.424  19.534  14.532 -0.1007  0.0671 -0.0325
  583DOPE   GL1 6831   8.257  19.608  14.279  0.2244 -0.1464 -0.2545
  583DOPE   GL2 6832   8.407  19.757  14.050 -0.0028 -0.0403 -0.0004
  583DOPE   C1A 6833   7.824  19.437  14.181 -0.0413  0.1296 -0.0692
  583DOPE   D2A 6834   7.676  19.503  13.746 -0.0126 -0.1262  0.1533
  583DOPE   C3A 6835   7.623  19.497  13.283  0.1517 -0.2295  0.1002
  583DOPE   C4A 6836   7.613  19.589  12.837  0.3996 -0.0784  0.0458
  583DOPE   C1B 6837   8.055  19.801  13.845 -0.1668  0.1455 -0.2170
  583DOPE   D2B 6838   8.091  19.687  13.378 -0.1586 -0.1744 -0.1225
  583DOPE   C3B 6839   8.046  19.840  12.970  0.1064 -0.3145  0.0407
  583DOPE   C4B 6840   7.867  19.976  12.535 -0.3229  0.0796 -0.0138
  584DOPE   NH3 6841   9.588  21.879  13.998  0.3736 -0.1069 -0.2188
  584DOPE   PO4 6842   9.772  21.728  13.768  0.1632  0.0103  0.3086
  584DOPE   GL1 6843   9.698  22.013  13.467 -0.3491  0.0597 -0.5036
  584DOPE   GL2 6844   9.849  22.199  13.708 -0.2395 -0.0691  0.2094
  584DOPE   C1A 6845   9.803  21.984  13.007  0.0607  0.2465 -0.1786
  584DOPE   D2A 6846   9.586  21.727  12.708  0.1436  0.1698 -0.0399
  584DOPE   C3A 6847   9.176  21.859  12.469  0.3065 -0.1010  0.4532
  584DOPE   C4A 6848   8.971  22.088  12.115  0.2014  0.2824 -0.0040
  584DOPE   C1B 6849  10.221  22.187  13.370  0.1990 -0.0082  0.1789
  584DOPE   D2B 6850  10.433  22.310  13.015 -0.1808 -0.0801 -0.1972
  584DOPE   C3B 6851  10.555  22.234  12.580  0.4016  0.0265 -0.0019
  584DOPE   C4B 6852  10.408  22.129  12.162  0.1927 -0.3123  0.1333
  585POSM   NC3 6853   8.843  13.581  15.266 -0.2313 -0.0511  0.2961
  585POSM   PO4 6854   9.189  13.557  15.121  0.0525 -0.0785 -0.2523
  585POSM   AM1 6855   9.196  13.443  14.858  0.2727 -0.1637 -0.0145
  585POSM   AM2 6856   9.335  13.524  14.607  0.1371 -0.2733  0.4022
  585POSM   T1A 6857   9.085  13.102  14.453 -0.0024 -0.1206  0.0885
  585POSM   C2A 6858   8.936  12.785  14.139  0.1023 -0.1052  0.2130
  585POSM   C3A 6859   8.800  12.309  14.089 -0.0412 -0.1422  0.0498
  585POSM   C1B 6860   9.425  13.599  14.266 -0.1134 -0.1792  0.1884
  585POSM   D2B 6861   9.821  13.606  13.991 -0.1870 -0.2920 -0.1556
  585POSM   C3B 6862   9.742  13.526  13.590  0.3907  0.1775  0.0498
  585POSM   C4B 6863   9.557  13.765  13.287 -0.0912 -0.1056  0.2270
  586DOPC   NC3 6864   4.266  22.611  14.341 -0.0199 -0.0892 -0.0067
  586DOPC   PO4 6865   4.003  22.298  14.346  0.2178 -0.2353 -0.1481
  586DOPC   GL1 6866   3.969  22.328  13.955 -0.1543 -0.1556 -0.2955
  586DOPC   GL2 6867   4.243  22.324  13.909  0.0755 -0.3123 -0.0292
  586DOPC   C1A 6868   3.631  22.492  13.717 -0.0031 -0.0125 -0.2022
  586DOPC   D2A 6869   3.218  22.360  13.686 -0.0839  0.0862  0.2517
  586DOPC   C3A 6870   3.060  22.223  13.297 -0.2356 -0.2099  0.3103
  586DOPC   C4A 6871   3.307  22.019  12.940 -0.1604 -0.0170 -0.3664
  586DOPC   C1B 6872   4.474  22.366  13.502  0.0765 -0.1401  0.0029
  586DOPC   D2B 6873   4.827  22.168  13.219 -0.3108 -0.1452 -0.1034
  586DOPC   C3B 6874   4.806  21.808  12.967 -0.1558 -0.0109 -0.0372
  586DOPC   C4B 6875   4.853  21.388  12.734 -0.2850  0.0783  0.2004
  587DOPE   NH3 6876   3.953  12.719  15.466 -0.0248 -0.1075 -0.0699
  587DOPE   PO4 6877   4.004  13.059  15.463  0.1188 -0.0574  0.0852
  587DOPE   GL1 6878   4.022  13.333  15.074  0.5247 -0.2097  0.2088
  587DOPE   GL2 6879   3.695  13.214  14.994  0.1805 -0.1022  0.1871
  587DOPE   C1A 6880   4.171  13.171  14.741 -0.1047 -0.1873  0.1413
  587DOPE   D2A 6881   4.256  13.049  14.268  0.2808 -0.0728 -0.4927
  587DOPE   C3A 6882   3.965  12.784  14.060 -0.2680  0.1940  0.0888
  587DOPE   C4A 6883   3.633  12.524  13.928  0.1264 -0.3310  0.0734
  587DOPE   C1B 6884   3.764  13.444  14.598  0.0624 -0.1263 -0.3027
  587DOPE   D2B 6885   3.790  13.376  14.137  0.0911  0.0715 -0.1202
  587DOPE   C3B 6886   4.178  13.518  13.923  0.0734 -0.2792  0.0890
  587DOPE   C4B 6887   4.211  13.922  13.673  0.0564  0.0605 -0.0449
  588DOPC   NC3 6888   9.439  17.465  14.064 -0.0570  0.1221  0.2268
  588DOPC   PO4 6889   9.272  17.821  14.071  0.1225  0.3844 -0.0179
  588DOPC   GL1 6890   9.108  17.856  13.688 -0.2891 -0.0845 -0.0705
  588DOPC   GL2 6891   9.326  17.637  13.554  0.1748  0.0537  0.2304
  588DOPC   C1A 6892   8.952  18.049  13.274 -0.3097 -0.0919  0.3990
  588DOPC   D2A 6893   8.790  18.307  12.946  0.1329  0.4696 -0.2158
  588DOPC   C3A 6894   8.383  18.283  12.789 -0.2498  0.2495  0.2734
  588DOPC   C4A 6895   7.900  18.199  12.661 -0.3260 -0.0693 -0.1339
  588DOPC   C1B 6896   9.420  18.022  13.319  0.1705  0.3563 -0.1694
  588DOPC   D2B 6897   9.334  18.298  12.975 -0.1496  0.1563  0.0546
  588DOPC   C3B 6898   9.091  18.078  12.651  0.1196 -0.1988  0.0974
  588DOPC   C4B 6899   9.129  17.967  12.183 -0.0940  0.2403  0.2600
  589POSM   NC3 6900   0.228  10.282  15.056 -0.1626 -0.3557  0.0367
  589POSM   PO4 6901  -0.101  10.393  15.218  0.2551  0.4173 -0.0832
  589POSM   AM1 6902  -0.138  10.574  14.926  0.1807 -0.2666 -0.1055
  589POSM   AM2 6903  -0.336  10.742  14.824 -0.0345  0.0785  0.0530
  589POSM   T1A 6904   0.168  10.688  14.548 -0.1040  0.0410 -0.0941
  589POSM   C2A 6905   0.375  10.804  14.140  0.2113  0.1347  0.0690
  589POSM   C3A 6906   0.363  11.052  13.767 -0.1726  0.3429 -0.1355
  589POSM   C1B 6907  -0.389  10.904  14.544 -0.2388 -0.1022  0.1379
  589POSM   D2B 6908  -0.449  10.894  14.123  0.0520 -0.4024 -0.2549
  589POSM   C3B 6909  -0.640  11.176  13.867 -0.0846  0.1817  0.1603
  589POSM   C4B 6910  -0.570  11.405  13.479 -0.0829  0.3339  0.0967
  590DOPE   NH3 6911   5.318  14.850  15.433  0.0067  0.0032  0.0318
  590DOPE   PO4 6912   5.558  14.732  15.243 -0.1701 -0.0660  0.0557
  590DOPE   GL1 6913   5.555  15.032  15.033 -0.0371  0.4374  0.2966
  590DOPE   GL2 6914   5.268  15.104  15.021  0.3356 -0.2608  0.0474
  590DOPE   C1A 6915   5.490  15.022  14.593  0.0332 -0.3304  0.0741
  590DOPE   D2A 6916   5.224  15.194  14.252  0.1092  0.1806 -0.0146
  590DOPE   C3A 6917   5.162  14.885  13.903 -0.1981  0.1645 -0.2111
  590DOPE   C4A 6918   5.047  14.457  13.886 -0.0163  0.0255 -0.0441
  590DOPE   C1B 6919   5.003  15.048  14.651 -0.0832 -0.0036 -0.0432
  590DOPE   D2B 6920   4.922  14.763  14.286 -0.0293  0.0229 -0.3249
  590DOPE   C3B 6921   4.525  14.822  14.004  0.1177 -0.2577  0.0201
  590DOPE   C4B 6922   4.092  14.842  13.969 -0.2022 -0.2956  0.4133
  591DOPE   NH3 6923  10.155  13.951  14.582 -0.0382  0.2801  0.0257
  591DOPE   PO4 6924  10.374  13.768  14.683  0.1516 -0.0545  0.0334
  591DOPE   GL1 6925  10.555  13.762  14.297  0.1406  0.1056  0.0136
  591DOPE   GL2 6926  10.316  13.794  14.115  0.2208 -0.2336  0.2442
  591DOPE   C1A 6927  10.836  13.704  13.941  0.1393 -0.0623  0.0228
  591DOPE   D2A 6928  11.201  13.450  13.740  0.2466 -0.0737 -0.3483
  591DOPE   C3A 6929  11.630  13.451  13.621  0.1569  0.2222  0.1775
  591DOPE   C4A 6930  12.081  13.377  13.758  0.2365 -0.0370  0.0340
  591DOPE   C1B 6931  10.258  13.547  13.743 -0.2149 -0.1206 -0.2166
  591DOPE   D2B 6932  10.298  13.410  13.289 -0.0802  0.1829 -0.2064
  591DOPE   C3B 6933   9.911  13.343  13.176 -0.0649 -0.0517  0.3390
  591DOPE   C4B 6934   9.529  13.388  12.925 -0.0820  0.1328  0.2609
  592POSM   NC3 6935   4.746  10.800  15.556 -0.0617 -0.3489  0.0378
  592POSM   PO4 6936   4.945  10.764  15.208 -0.2581  0.0679 -0.0987
  592POSM   AM1 6937   4.791  10.860  14.914 -0.0924 -0.2291 -0.0114
  592POSM   AM2 6938   4.671  10.671  14.727 -0.1138  0.5316 -0.0524
  592POSM   T1A 6939   4.833  11.219  14.520 -0.1222  0.1451 -0.2571
  592POSM   C2A 6940   4.588  11.366  14.175 -0.0082 -0.1025 -0.2832
  592POSM   C3A 6941   4.648  11.681  13.875  0.0527  0.1265 -0.0730
  592POSM   C1B 6942   4.683  10.766  14.431  0.0840 -0.1423  0.0626
  592POSM   D2B 6943   4.764  10.924  14.020  0.1493 -0.0562  0.1490
  592POSM   C3B 6944   4.502  11.112  13.677 -0.1118  0.0442  0.1543
  592POSM   C4B 6945   4.105  11.071  13.419 -0.2523 -0.2017  0.1973
  593DOPS   CNO 6946   6.960   9.861  15.265  0.2718  0.2767  0.0327
  593DOPS   PO4 6947   7.133   9.915  14.929  0.3172  0.1740 -0.2151
  593DOPS   GL1 6948   7.168  10.121  14.520 -0.0918 -0.2344 -0.0785
  593DOPS   GL2 6949   6.850  10.023  14.465  0.0376  0.1358  0.0891
  593DOPS   C1A 6950   7.323  10.002  14.105 -0.3915 -0.0685  0.2555
  593DOPS   D2A 6951   7.721  10.139  13.909 -0.2531  0.2305  0.0067
  593DOPS   C3A 6952   7.658  10.058  13.416  0.0381  0.2422  0.2462
  593DOPS   C4A 6953   7.312  10.145  13.129 -0.2393  0.4806  0.0281
  593DOPS   C1B 6954   6.807  10.037  14.014 -0.0581 -0.2402  0.0554
  593DOPS   D2B 6955   6.481  10.236  13.704  0.2906  0.1509 -0.0190
  593DOPS   C3B 6956   6.134  10.346  13.363 -0.0802  0.0204 -0.0990
  593DOPS   C4B 6957   6.067  10.292  12.888 -0.2275 -0.0082  0.0227
  594DOPC   NC3 6958   3.715  21.556  14.940 -0.3722  0.3063  0.0601
  594DOPC   PO4 6959   3.967  21.269  14.909 -0.0291  0.2783  0.0373
  594DOPC   GL1 6960   4.263  21.331  14.521  0.0041  0.0014  0.0128
  594DOPC   GL2 6961   4.463  21.152  14.630 -0.2076 -0.1045  0.3341
  594DOPC   C1A 6962   4.262  21.339  14.080 -0.0951 -0.1545  0.3407
  594DOPC   D2A 6963   4.349  21.455  13.649  0.3784 -0.0864 -0.2363
  594DOPC   C3A 6964   4.218  21.327  13.265  0.0183  0.1385 -0.2448
  594DOPC   C4A 6965   4.165  20.947  13.062  0.0086  0.0956 -0.1534
  594DOPC   C1B 6966   4.677  21.067  14.231  0.1904 -0.0766 -0.1758
  594DOPC   D2B 6967   4.947  20.801  13.955 -0.1399  0.3707 -0.3599
  594DOPC   C3B 6968   5.054  20.910  13.520 -0.2357 -0.1525 -0.0130
  594DOPC   C4B 6969   5.285  20.882  13.128 -0.2994  0.1612  0.1230
  595POSM   NC3 6970   7.978  17.983  15.601  0.0921 -0.1745 -0.1649
  595POSM   PO4 6971   8.004  17.791  15.226 -0.0908  0.0915 -0.2426
  595POSM   AM1 6972   8.023  17.708  14.916  0.3359  0.1502  0.1898
  595POSM   AM2 6973   7.905  17.471  14.783  0.0379  0.1079  0.3209
  595POSM   T1A 6974   8.131  17.782  14.461  0.1168 -0.0379 -0.2028
  595POSM   C2A 6975   7.946  17.817  14.025 -0.1906  0.0743 -0.3853
  595POSM   C3A 6976   8.125  17.841  13.588 -0.0633 -0.1110  0.1011
  595POSM   C1B 6977   7.646  17.558  14.647  0.2943 -0.0209 -0.2130
  595POSM   D2B 6978   7.232  17.770  14.646  0.2156 -0.3224 -0.1930
  595POSM   C3B 6979   6.988  17.880  14.271  0.0829 -0.0544 -0.2410
  595POSM   C4B 6980   6.659  17.886  13.925 -0.2214  0.0006  0.0907
  596DOPE   NH3 6981   6.843  13.226  15.562 -0.3657 -0.2334  0.0054
  596DOPE   PO4 6982   7.027  13.366  15.289 -0.0312  0.4245 -0.1568
  596DOPE   GL1 6983   6.913  13.094  15.034 -0.5174  0.1716  0.0277
  596DOPE   GL2 6984   6.614  13.040  15.133  0.4803  0.2735 -0.1697
  596DOPE   C1A 6985   7.116  12.927  14.645 -0.1303  0.0848  0.0420
  596DOPE   D2A 6986   7.452  12.705  14.397 -0.2216 -0.0427 -0.0948
  596DOPE   C3A 6987   7.299  12.896  14.017 -0.0266  0.0916 -0.0306
  596DOPE   C4A 6988   7.164  12.900  13.606 -0.2741  0.1801 -0.0322
  596DOPE   C1B 6989   6.668  13.142  14.666 -0.0019  0.1910  0.0444
  596DOPE   D2B 6990   6.591  13.483  14.399 -0.0505 -0.2357 -0.2233
  596DOPE   C3B 6991   6.871  13.754  14.130 -0.1272  0.0740  0.3962
  596DOPE   C4B 6992   7.113  13.845  13.744  0.0009  0.0415  0.0325
  597DOPS   CNO 6993   5.631  11.637  15.789  0.1564  0.2501  0.0932
  597DOPS   PO4 6994   5.960  11.678  15.608  0.1992 -0.0595  0.0045
  597DOPS   GL1 6995   5.864  11.686  15.212  0.2748 -0.1750  0.2742
  597DOPS   GL2 6996   6.083  11.541  15.115 -0.2346  0.1124 -0.3095
  597DOPS   C1A 6997   5.706  11.487  14.839 -0.0463 -0.1205  0.0435
  597DOPS   D2A 6998   5.415  11.368  14.507  0.1521 -0.1501 -0.0103
  597DOPS   C3A 6999   5.242  11.735  14.296 -0.1153  0.2189 -0.1478
  597DOPS   C4A 7000   5.146  11.845  13.839 -0.1927 -0.3252  0.2775
  597DOPS   C1B 7001   6.153  11.623  14.645 -0.3109 -0.0260 -0.0922
  597DOPS   D2B 7002   6.392  11.693  14.239  0.3737 -0.2082  0.0915
  597DOPS   C3B 7003   6.192  12.028  13.997 -0.0437  0.2758  0.0158
  597DOPS   C4B 7004   5.773  11.971  13.858 -0.2493 -0.1271  0.1124
  598DOPS   CNO 7005   6.853  21.455  14.490 -0.2243 -0.2433  0.2444
  598DOPS   PO4 7006   6.533  21.663  14.517 -0.3610 -0.1894 -0.0097
  598DOPS   GL1 7007   6.528  21.677  14.169 -0.0939 -0.1699 -0.0713
  598DOPS   GL2 7008   6.708  21.463  13.990 -0.0536  0.0878 -0.2913
  598DOPS   C1A 7009   6.255  21.791  13.802 -0.0830  0.1185  0.0349
  598DOPS   D2A 7010   6.069  21.741  13.379 -0.0030 -0.2122 -0.0956
  598DOPS   C3A 7011   5.611  21.604  13.254  0.1176  0.3643 -0.2557
  598DOPS   C4A 7012   5.218  21.369  13.195 -0.1022  0.2249  0.0794
  598DOPS   C1B 7013   6.599  21.653  13.532  0.0437  0.0362  0.1139
  598DOPS   D2B 7014   6.740  21.941  13.170  0.1625  0.0503 -0.2453
  598DOPS   C3B 7015   6.344  21.942  12.959  0.0984 -0.0002 -0.0815
  598DOPS   C4B 7016   6.186  22.035  12.553 -0.2256  0.1703 -0.1578
  599DOPE   NH3 7017  13.136  10.593  15.068 -0.1400  0.0366  0.0126
  599DOPE   PO4 7018  13.380  10.666  14.924 -0.3038 -0.0108  0.0251
  599DOPE   GL1 7019  13.355  10.459  14.583  0.0338 -0.0474  0.2086
  599DOPE   GL2 7020  13.543  10.581  14.376 -0.4068  0.2547  0.0899
  599DOPE   C1A 7021  13.087  10.438  14.264  0.1497 -0.2803  0.0365
  599DOPE   D2A 7022  13.041  10.370  13.797  0.0246 -0.0383 -0.3356
  599DOPE   C3A 7023  13.094  10.367  13.315  0.2337  0.0768 -0.0267
  599DOPE   C4A 7024  13.104  10.172  12.906 -0.2152  0.0357  0.0679
  599DOPE   C1B 7025  13.495  10.542  13.948  0.1046 -0.3293 -0.0283
  599DOPE   D2B 7026  13.524  10.452  13.485  0.1494 -0.1432 -0.1676
  599DOPE   C3B 7027  13.456  10.060  13.285  0.0480  0.3718 -0.1248
  599DOPE   C4B 7028  13.206   9.702  13.193  0.1080 -0.0831 -0.1377
  600DOPC   NC3 7029   5.798  14.594  14.779  0.0390  0.1576  0.0302
  600DOPC   PO4 7030   5.573  14.326  14.971 -0.2251  0.0292 -0.1929
  600DOPC   GL1 7031   5.465  14.088  14.572  0.3554  0.3267 -0.0661
  600DOPC   GL2 7032   5.748  13.948  14.644 -0.0491  0.0000 -0.1460
  600DOPC   C1A 7033   5.472  14.118  14.145  0.1815 -0.0607 -0.0635
  600DOPC   D2A 7034   5.461  14.012  13.732 -0.1529 -0.1847  0.0448
  600DOPC   C3A 7035   5.123  14.009  13.381 -0.0223  0.2658 -0.1502
  600DOPC   C4A 7036   5.012  13.878  12.959  0.0662  0.0826 -0.2964
  600DOPC   C1B 7037   5.933  14.253  14.317 -0.0896 -0.0206  0.0367
  600DOPC   D2B 7038   6.124  14.532  13.985  0.0687  0.0687  0.0454
  600DOPC   C3B 7039   5.859  14.407  13.574 -0.1684  0.1128 -0.1524
  600DOPC   C4B 7040   5.533  14.223  13.273  0.2007 -0.2912 -0.0751
  601DOPS   CNO 7041   9.067  15.384  15.009 -0.1628  0.0955 -0.1769
  601DOPS   PO4 7042   9.328  15.419  14.742  0.0238  0.0395 -0.0721
  601DOPS   GL1 7043   9.348  15.194  14.472 -0.0693 -0.2022 -0.0985
  601DOPS   GL2 7044   9.296  15.271  14.206 -0.0743  0.0463  0.1249
  601DOPS   C1A 7045   9.137  14.814  14.335 -0.0770  0.0449  0.1871
  601DOPS   D2A 7046   8.866  14.454  14.090  0.2130  0.0671 -0.2793
  601DOPS   C3A 7047   8.647  14.513  13.690 -0.0002  0.2080  0.2070
  601DOPS   C4A 7048   8.467  14.486  13.253  0.1021 -0.5231 -0.0192
  601DOPS   C1B 7049   9.549  15.229  13.764 -0.4377 -0.0236 -0.0678
  601DOPS   D2B 7050   9.663  15.238  13.330 -0.1916 -0.1724  0.1093
  601DOPS   C3B 7051  10.050  15.243  13.115 -0.0616  0.0640  0.0590
  601DOPS   C4B 7052  10.490  15.221  12.880  0.2113  0.0377  0.1513
  602DOPE   NH3 7053   4.063  23.686  14.464 -0.0797  0.0474 -0.3172
  602DOPE   PO4 7054   4.083  23.977  14.433 -0.1085  0.2554  0.1121
  602DOPE   GL1 7055   4.025  23.891  13.997  0.0073 -0.1152  0.1762
  602DOPE   GL2 7056   3.798  23.863  13.904 -0.1715  0.0974  0.1186
  602DOPE   C1A 7057   4.162  24.198  13.725  0.2487 -0.1974  0.1142
  602DOPE   D2A 7058   4.101  24.229  13.238 -0.1948 -0.0506 -0.0434
  602DOPE   C3A 7059   4.447  24.265  12.915 -0.0431  0.0671  0.1406
  602DOPE   C4A 7060   4.728  24.104  12.631  0.2533 -0.2096  0.1506
  602DOPE   C1B 7061   4.013  23.738  13.512 -0.0760  0.1189  0.2676
  602DOPE   D2B 7062   4.409  23.713  13.289  0.2614 -0.1227  0.0469
  602DOPE   C3B 7063   4.530  23.333  13.076 -0.1788 -0.0558 -0.0341
  602DOPE   C4B 7064   4.360  23.012  12.832  0.1138  0.1939  0.1090
  603DOPE   NH3 7065   6.164  17.194  14.858  0.0596  0.0675 -0.3176
  603DOPE   PO4 7066   5.999  17.322  15.097 -0.1363 -0.2157 -0.1035
  603DOPE   GL1 7067   5.770  17.381  14.675 -0.1844  0.0934 -0.1783
  603DOPE   GL2 7068   5.939  17.481  14.483  0.3052 -0.0448 -0.0051
  603DOPE   C1A 7069   5.454  17.485  14.304 -0.1279 -0.3432  0.1004
  603DOPE   D2A 7070   5.352  17.802  13.955 -0.3799 -0.1639  0.0666
  603DOPE   C3A 7071   5.238  17.786  13.538  0.0128  0.1104  0.1377
  603DOPE   C4A 7072   5.057  17.392  13.452  0.0976 -0.0404  0.1714
  603DOPE   C1B 7073   6.184  17.617  14.160 -0.0222  0.1506  0.0659
  603DOPE   D2B 7074   6.283  17.591  13.647  0.3149  0.2171  0.3040
  603DOPE   C3B 7075   6.236  17.387  13.266  0.2017 -0.0646  0.4179
  603DOPE   C4B 7076   6.335  16.992  13.010  0.0192 -0.1486 -0.3297
  604DOPE   NH3 7077   7.087  16.404  15.343  0.1374 -0.0621 -0.0276
  604DOPE   PO4 7078   7.340  16.600  15.251  0.1679 -0.3975 -0.2409
  604DOPE   GL1 7079   7.544  16.473  14.842 -0.1027  0.1082 -0.1875
  604DOPE   GL2 7080   7.559  16.670  14.628  0.1002  0.1910  0.1697
  604DOPE   C1A 7081   7.593  16.080  14.574 -0.0218 -0.1441 -0.1695
  604DOPE   D2A 7082   7.609  15.639  14.488 -0.0300  0.1885  0.1076
  604DOPE   C3A 7083   7.986  15.416  14.277  0.0202  0.3142  0.0935
  604DOPE   C4A 7084   8.297  15.164  14.090  0.2180 -0.2919  0.0194
  604DOPE   C1B 7085   7.883  16.519  14.354 -0.0330  0.2552  0.0884
  604DOPE   D2B 7086   8.124  16.303  14.055  0.0067 -0.1487  0.1274
  604DOPE   C3B 7087   8.044  16.219  13.608  0.2241  0.1748 -0.0516
  604DOPE   C4B 7088   7.999  16.619  13.391  0.0664 -0.2328 -0.0966
  605DOPC   NC3 7089   7.773  23.363  13.755 -0.2996 -0.1030 -0.2942
  605DOPC   PO4 7090   8.005  23.404  14.082  0.0945 -0.0618  0.1614
  605DOPC   GL1 7091   8.340  23.228  13.941 -0.0678 -0.1247 -0.0983
  605DOPC   GL2 7092   8.178  23.008  13.822 -0.1983 -0.0048  0.3303
  605DOPC   C1A 7093   8.579  23.334  13.608  0.1097  0.0269  0.0053
  605DOPC   D2A 7094   8.686  23.224  13.149  0.1293  0.4015 -0.1112
  605DOPC   C3A 7095   8.827  22.898  12.872  0.0429 -0.1108  0.1584
  605DOPC   C4A 7096   8.589  22.888  12.473 -0.0719  0.0694  0.1198
  605DOPC   C1B 7097   8.213  23.089  13.399  0.0461 -0.1670 -0.0120
  605DOPC   D2B 7098   8.222  23.447  13.180  0.0596  0.2221  0.1187
  605DOPC   C3B 7099   8.458  23.812  13.396 -0.1180 -0.2560  0.3565
  605DOPC   C4B 7100   8.612  24.087  13.038  0.0893 -0.1432 -0.2693
  606POSM   NC3 7101   3.452  17.292  15.813  0.1764 -0.0062 -0.2221
  606POSM   PO4 7102   3.777  17.294  15.642 -0.2214 -0.0927 -0.1374
  606POSM   AM1 7103   3.819  17.222  15.313 -0.1391  0.1699 -0.4499
  606POSM   AM2 7104   3.982  17.159  15.094  0.0360  0.0734  0.2010
  606POSM   T1A 7105   3.522  17.270  14.911 -0.2138  0.1323  0.1727
  606POSM   C2A 7106   3.279  17.232  14.503  0.0391  0.0752 -0.0710
  606POSM   C3A 7107   2.875  17.174  14.190 -0.2719 -0.1294 -0.0422
  606POSM   C1B 7108   3.968  16.956  14.838 -0.2684  0.1193 -0.2006
  606POSM   D2B 7109   3.747  16.971  14.430 -0.3379 -0.0689  0.1577
  606POSM   C3B 7110   4.049  17.214  14.153  0.0884  0.0903 -0.3391
  606POSM   C4B 7111   4.144  17.378  13.702 -0.0983  0.0134  0.1169
  607POSM   NC3 7112  34.767  20.295  14.628 -0.0129  0.2445  0.1161
  607POSM   PO4 7113  34.894  19.949  14.756 -0.0714 -0.0663  0.2561
  607POSM   AM1 7114  34.841  19.912  14.418  0.0623  0.6695 -0.0483
  607POSM   AM2 7115  34.911  19.707  14.212  0.0109 -0.3004 -0.0618
  607POSM   T1A 7116  34.935  20.148  13.975 -0.1280 -0.0535  0.0662
  607POSM   C2A 7117  34.811  20.147  13.494 -0.0203  0.1499  0.1103
  607POSM   C3A 7118  34.661  20.178  13.092 -0.0259  0.0273  0.2350
  607POSM   C1B 7119  34.944  19.635  13.893  0.3359  0.2183 -0.2241
  607POSM   D2B 7120  35.014  19.335  13.505 -0.1112 -0.0276 -0.3151
  607POSM   C3B 7121  35.013  18.981  13.195 -0.0032 -0.1369 -0.3470
  607POSM   C4B 7122  35.204  18.631  12.955 -0.1431  0.1034  0.0143
  608DOPC   NC3 7123   3.352  18.896  15.332 -0.2638  0.0146  0.1430
  608DOPC   PO4 7124   3.271  18.519  15.389 -0.0230  0.2293  0.1436
  608DOPC   GL1 7125   3.071  18.360  15.114  0.3773  0.4656 -0.2084
  608DOPC   GL2 7126   2.881  18.395  15.019  0.1973  0.0297  0.0103
  608DOPC   C1A 7127   3.300  18.307  14.679  0.0213  0.2227  0.2096
  608DOPC   D2A 7128   3.301  18.433  14.230  0.0569 -0.0249  0.0754
  608DOPC   C3A 7129   3.357  18.349  13.745  0.0140 -0.1932  0.0994
  608DOPC   C4A 7130   3.454  18.157  13.298 -0.0197 -0.2377 -0.1928
  608DOPC   C1B 7131   2.853  18.507  14.514 -0.0818 -0.0316 -0.1060
  608DOPC   D2B 7132   2.825  18.557  14.072  0.0736  0.1676 -0.4008
  608DOPC   C3B 7133   2.859  18.235  13.781 -0.1401 -0.1037  0.2080
  608DOPC   C4B 7134   2.965  17.917  13.541  0.2452  0.1996 -0.1235
  609DOPC   NC3 7135   6.839  17.460  15.169  0.2103  0.0766  0.1208
  609DOPC   PO4 7136   6.626  17.224  14.953  0.3598 -0.0010 -0.2260
  609DOPC   GL1 7137   6.713  17.023  14.644  0.1917  0.0134  0.0850
  609DOPC   GL2 7138   6.493  17.039  14.501 -0.1413 -0.0988 -0.1581
  609DOPC   C1A 7139   7.039  16.845  14.391  0.0564  0.0905  0.2218
  609DOPC   D2A 7140   7.346  16.928  14.057  0.0997 -0.2039 -0.2337
  609DOPC   C3A 7141   6.979  17.103  13.800  0.0055  0.0010  0.1210
  609DOPC   C4A 7142   6.568  16.993  13.551 -0.3118  0.0288  0.5156
  609DOPC   C1B 7143   6.644  16.851  14.111 -0.3139 -0.2492  0.4504
  609DOPC   D2B 7144   6.879  16.605  13.851 -0.3081  0.0280 -0.0458
  609DOPC   C3B 7145   7.233  16.671  13.547  0.0406  0.0381 -0.1226
  609DOPC   C4B 7146   7.550  16.296  13.477  0.0140  0.0451 -0.0169
  610DOPS   CNO 7147   0.808  20.588  14.542  0.0050 -0.1682 -0.1002
  610DOPS   PO4 7148   0.442  20.655  14.501  0.3019 -0.2757 -0.0726
  610DOPS   GL1 7149   0.512  20.952  14.274 -0.1929 -0.3512 -0.0896
  610DOPS   GL2 7150   0.456  20.783  13.966  0.0807  0.2412  0.0267
  610DOPS   C1A 7151   0.741  21.172  13.868  0.0626 -0.0529 -0.0826
  610DOPS   D2A 7152   0.894  21.162  13.461  0.1042 -0.0188 -0.1198
  610DOPS   C3A 7153   1.367  21.236  13.391 -0.0155  0.3797  0.2175
  610DOPS   C4A 7154   1.383  21.703  13.277 -0.0723 -0.1000  0.0215
  610DOPS   C1B 7155   0.125  20.638  13.658  0.1870  0.0919  0.0554
  610DOPS   D2B 7156   0.245  20.552  13.190 -0.1506  0.2566 -0.1216
  610DOPS   C3B 7157   0.661  20.711  12.998 -0.0909 -0.0086  0.3026
  610DOPS   C4B 7158   1.079  20.928  13.033  0.2419 -0.2140  0.3858
  611DOPE   NH3 7159   7.131   8.785  14.434  0.0726  0.0943  0.1323
  611DOPE   PO4 7160   7.001   9.064  14.581  0.2706  0.0413 -0.4189
  611DOPE   GL1 7161   6.809   9.343  14.464  0.1911  0.2323 -0.3848
  611DOPE   GL2 7162   6.784   9.542  14.220 -0.1440 -0.1623 -0.3159
  611DOPE   C1A 7163   6.337   9.358  14.403  0.0200 -0.0948  0.0901
  611DOPE   D2A 7164   6.044   9.460  14.088 -0.1116 -0.1626 -0.0468
  611DOPE   C3A 7165   6.106   9.100  13.783  0.2820  0.3085  0.2789
  611DOPE   C4A 7166   6.263   8.635  13.757  0.3004 -0.0780  0.4099
  611DOPE   C1B 7167   7.045   9.615  13.874 -0.0602 -0.2473  0.2268
  611DOPE   D2B 7168   7.168   9.975  13.598  0.1139  0.1333  0.0658
  611DOPE   C3B 7169   6.887  10.252  13.360 -0.2191 -0.0698 -0.2777
  611DOPE   C4B 7170   6.571  10.601  13.166 -0.2129 -0.1002  0.3287
  612DOPS   CNO 7171   8.590  10.943  15.330 -0.0845  0.0033 -0.2812
  612DOPS   PO4 7172   8.701  11.261  15.209 -0.0514 -0.0530  0.3370
  612DOPS   GL1 7173   8.558  11.388  14.824  0.5101  0.2189  0.1293
  612DOPS   GL2 7174   8.332  11.218  14.817 -0.0345 -0.0737 -0.0515
  612DOPS   C1A 7175   8.642  11.343  14.375  0.2735  0.1892 -0.0404
  612DOPS   D2A 7176   8.658  11.271  13.883 -0.1780  0.1536  0.1060
  612DOPS   C3A 7177   8.428  11.373  13.490  0.0924  0.0219  0.0677
  612DOPS   C4A 7178   8.324  11.297  13.070  0.2979  0.1288 -0.1953
  612DOPS   C1B 7179   8.023  11.254  14.491  0.1754  0.0033 -0.1444
  612DOPS   D2B 7180   7.790  11.681  14.324  0.3513 -0.0625 -0.0442
  612DOPS   C3B 7181   7.887  11.926  13.907 -0.2215  0.0623  0.3205
  612DOPS   C4B 7182   7.682  12.010  13.501  0.2749  0.2401 -0.1872
  613DOPE   NH3 7183  13.283   9.720  10.858 -0.1352 -0.0347 -0.1306
  613DOPE   PO4 7184  13.076   9.867  11.088  0.2826 -0.2865  0.0745
  613DOPE   GL1 7185  13.031  10.214  11.394  0.4448  0.3994  0.1339
  613DOPE   GL2 7186  13.278  10.035  11.549 -0.1896  0.0069  0.0028
  613DOPE   C1A 7187  12.859  10.122  11.823 -0.1094 -0.3732  0.1622
  613DOPE   D2A 7188  12.911  10.062  12.323 -0.0395 -0.2234  0.1948
  613DOPE   C3A 7189  12.978  10.433  12.530 -0.0410 -0.0982  0.0950
  613DOPE   C4A 7190  12.900  10.744  12.834  0.2755 -0.2321  0.0568
  613DOPE   C1B 7191  13.215   9.805  11.973 -0.0925 -0.1949 -0.2375
  613DOPE   D2B 7192  13.266   9.418  12.217 -0.0739  0.2662  0.0750
  613DOPE   C3B 7193  13.660   9.109  12.268  0.1479  0.1586  0.2690
  613DOPE   C4B 7194  13.854   8.895  12.613  0.2248  0.2794  0.1218
  614DOPS   CNO 7195   2.920  13.572  11.861  0.1858 -0.4692  0.0020
  614DOPS   PO4 7196   2.608  13.477  11.715 -0.0098  0.1556 -0.1010
  614DOPS   GL1 7197   2.460  13.490  12.130  0.3275  0.5841  0.2154
  614DOPS   GL2 7198   2.677  13.370  12.272  0.0457 -0.0743  0.2238
  614DOPS   C1A 7199   2.464  13.866  12.473  0.0167  0.0068 -0.0703
  614DOPS   D2A 7200   2.148  14.099  12.799 -0.1183 -0.0948  0.3584
  614DOPS   C3A 7201   2.087  14.237  13.261  0.1083 -0.0827  0.2537
  614DOPS   C4A 7202   2.397  14.354  13.627 -0.0557  0.0985  0.2388
  614DOPS   C1B 7203   3.016  13.334  12.628 -0.0320  0.1245  0.2676
  614DOPS   D2B 7204   2.990  13.316  13.065 -0.0414  0.1668 -0.1703
  614DOPS   C3B 7205   2.915  12.996  13.398 -0.1628  0.1729 -0.2387
  614DOPS   C4B 7206   2.546  12.950  13.721  0.0325  0.2091 -0.2613
  615DOPE   NH3 7207   7.470  12.482  11.061 -0.2152 -0.1639  0.1222
  615DOPE   PO4 7208   7.249  12.663  11.247 -0.1195  0.0538 -0.0575
  615DOPE   GL1 7209   7.357  12.622  11.635 -0.1468  0.2833  0.1299
  615DOPE   GL2 7210   7.177  12.824  11.675  0.0347  0.0907 -0.2079
  615DOPE   C1A 7211   7.465  12.426  12.007  0.1284  0.1749 -0.2556
  615DOPE   D2A 7212   7.655  12.640  12.338  0.0215 -0.1022  0.0386
  615DOPE   C3A 7213   7.491  12.821  12.696 -0.0098  0.3374 -0.2672
  615DOPE   C4A 7214   7.093  12.667  12.856 -0.0287  0.0046 -0.1313
  615DOPE   C1B 7215   6.956  12.472  11.900 -0.1323 -0.2927 -0.4406
  615DOPE   D2B 7216   7.040  12.052  12.166  0.2914 -0.1196  0.2152
  615DOPE   C3B 7217   6.677  12.016  12.370 -0.1192  0.0988 -0.0380
  615DOPE   C4B 7218   6.579  11.739  12.722 -0.2960 -0.0901 -0.0182
  616DOPE   NH3 7219   9.247  13.052  11.374  0.2418 -0.0726 -0.0358
  616DOPE   PO4 7220   9.326  12.739  11.319 -0.3011  0.0308 -0.1830
  616DOPE   GL1 7221   9.654  12.805  11.493  0.3430 -0.4551  0.0770
  616DOPE   GL2 7222   9.703  13.049  11.610  0.1877  0.1884 -0.0928
  616DOPE   C1A 7223  10.075  12.722  11.625 -0.1828  0.0742  0.1585
  616DOPE   D2A 7224  10.437  12.546  11.865 -0.0818 -0.3723 -0.3487
  616DOPE   C3A 7225  10.751  12.674  12.168 -0.0639 -0.1873 -0.0954
  616DOPE   C4A 7226  11.072  12.498  12.486  0.1174 -0.0064 -0.0524
  616DOPE   C1B 7227   9.501  12.842  11.969  0.3333  0.0336 -0.0988
  616DOPE   D2B 7228   9.190  12.828  12.258 -0.1509 -0.0609  0.0380
  616DOPE   C3B 7229   9.322  12.799  12.720 -0.1855  0.0007  0.0063
  616DOPE   C4B 7230   9.473  12.435  12.978 -0.1538 -0.0160  0.2841
  617DOPC   NC3 7231  11.249  10.394  11.288 -0.0373  0.1336  0.3219
  617DOPC   PO4 7232  11.130  10.022  11.428  0.0961 -0.1830 -0.2597
  617DOPC   GL1 7233  11.244  10.078  11.765  0.3873  0.1017 -0.1795
  617DOPC   GL2 7234  11.562  10.241  11.797  0.3214  0.1006  0.0736
  617DOPC   C1A 7235  11.135  10.340  12.190 -0.2061 -0.0241 -0.2774
  617DOPC   D2A 7236  10.825  10.425  12.491 -0.0519  0.5487 -0.0283
  617DOPC   C3A 7237  10.544  10.771  12.554  0.0837  0.2362 -0.1657
  617DOPC   C4A 7238  10.326  11.204  12.518  0.0078  0.0710  0.0153
  617DOPC   C1B 7239  11.996  10.470  11.936 -0.0861 -0.1711 -0.1136
  617DOPC   D2B 7240  12.341  10.344  12.154 -0.2170  0.1164 -0.0023
  617DOPC   C3B 7241  12.526  10.365  12.603  0.1256  0.1159  0.0811
  617DOPC   C4B 7242  12.633  10.376  13.040  0.0178  0.2749  0.2346
  618DOPC   NC3 7243   3.088  18.506  11.602  0.1564 -0.0900 -0.0782
  618DOPC   PO4 7244   2.993  18.913  11.475  0.0636  0.3309  0.2273
  618DOPC   GL1 7245   3.076  19.233  11.649 -0.0355 -0.3470 -0.3428
  618DOPC   GL2 7246   3.076  19.162  11.892 -0.1717 -0.0171  0.1404
  618DOPC   C1A 7247   3.198  19.666  11.843  0.1674  0.1294 -0.0669
  618DOPC   D2A 7248   3.273  20.066  12.112 -0.2425  0.0687  0.0076
  618DOPC   C3A 7249   3.251  20.327  12.489  0.3291  0.2183  0.0388
  618DOPC   C4A 7250   3.153  20.751  12.757 -0.3879  0.0736 -0.0061
  618DOPC   C1B 7251   2.944  19.445  12.226 -0.1807  0.3052  0.0857
  618DOPC   D2B 7252   3.074  19.770  12.532  0.0091  0.0571  0.1712
  618DOPC   C3B 7253   2.962  20.079  12.890 -0.1656 -0.3204 -0.1559
  618DOPC   C4B 7254   2.763  20.066  13.295  0.1177 -0.1005  0.5737
  619DOPE   NH3 7255   0.743  18.538  10.791 -0.1073  0.0045 -0.2517
  619DOPE   PO4 7256   0.909  18.320  10.976  0.0647  0.0900 -0.1831
  619DOPE   GL1 7257   0.903  18.368  11.383 -0.0542  0.1832 -0.4244
  619DOPE   GL2 7258   1.113  18.548  11.405  0.1836  0.3139  0.1724
  619DOPE   C1A 7259   0.959  18.299  11.853 -0.0310 -0.4564  0.4337
  619DOPE   D2A 7260   0.995  18.232  12.325 -0.1824 -0.0501 -0.3386
  619DOPE   C3A 7261   1.164  18.545  12.512 -0.1654 -0.1152  0.2625
  619DOPE   C4A 7262   1.100  18.950  12.408 -0.1569  0.0277  0.0097
  619DOPE   C1B 7263   1.257  18.667  11.836  0.0465  0.2936 -0.0032
  619DOPE   D2B 7264   1.466  18.321  12.083 -0.4076  0.1262  0.0468
  619DOPE   C3B 7265   1.563  18.249  12.549 -0.0599 -0.0138 -0.1721
  619DOPE   C4B 7266   1.619  18.511  12.902  0.1620  0.0833 -0.1564
  620DOPE   NH3 7267   9.215  21.242  10.747  0.0130  0.0998  0.0041
  620DOPE   PO4 7268   9.044  21.455  10.620 -0.0631 -0.2200 -0.1857
  620DOPE   GL1 7269   8.970  21.633  10.954 -0.2566  0.0934 -0.0778
  620DOPE   GL2 7270   9.230  21.596  11.130  0.0124 -0.0776 -0.1625
  620DOPE   C1A 7271   8.690  21.554  11.280  0.1128  0.0519  0.0829
  620DOPE   D2A 7272   8.588  21.683  11.725  0.3420 -0.0575 -0.1450
  620DOPE   C3A 7273   8.406  21.283  11.923  0.2236  0.2200  0.0524
  620DOPE   C4A 7274   8.367  20.891  12.136 -0.1293 -0.0899 -0.1283
  620DOPE   C1B 7275   9.522  21.827  11.433  0.3242  0.0350  0.2154
  620DOPE   D2B 7276   9.883  21.889  11.734 -0.0326 -0.4825 -0.1391
  620DOPE   C3B 7277   9.956  22.332  12.003  0.1425  0.2280  0.0164
  620DOPE   C4B 7278  10.172  22.549  12.383 -0.0944 -0.1857  0.2003
  621DOPE   NH3 7279   6.992  18.294  10.903  0.1716 -0.2905  0.2488
  621DOPE   PO4 7280   7.213  18.153  11.124 -0.0057  0.3175 -0.2210
  621DOPE   GL1 7281   7.209  18.369  11.430  0.1691 -0.0526 -0.0259
  621DOPE   GL2 7282   7.448  18.491  11.552  0.1719 -0.0116 -0.4037
  621DOPE   C1A 7283   7.048  18.770  11.635  0.0045  0.1617 -0.0355
  621DOPE   D2A 7284   7.098  19.232  11.833  0.0470 -0.1389  0.0361
  621DOPE   C3A 7285   7.423  19.414  12.058  0.2273 -0.0250  0.1196
  621DOPE   C4A 7286   7.683  19.368  12.414 -0.1627 -0.1785 -0.0786
  621DOPE   C1B 7287   7.514  18.833  11.842  0.0646 -0.4706 -0.2067
  621DOPE   D2B 7288   7.429  18.948  12.301 -0.1230  0.0751  0.0763
  621DOPE   C3B 7289   7.170  19.270  12.535 -0.1968  0.1838 -0.3427
  621DOPE   C4B 7290   7.148  19.686  12.635 -0.1275  0.0025 -0.0625
  622POSM   NC3 7291   1.324  21.684  10.866 -0.0057 -0.3702  0.1679
  622POSM   PO4 7292   1.046  21.616  10.590 -0.1272 -0.1831 -0.1739
  622POSM   AM1 7293   0.895  21.714  10.860 -0.2927  0.2153 -0.1273
  622POSM   AM2 7294   0.842  21.957  10.954 -0.3987  0.2702 -0.2831
  622POSM   T1A 7295   0.589  21.635  11.252  0.0869  0.1188  0.0164
  622POSM   C2A 7296   0.698  21.750  11.683  0.0521  0.4284 -0.1152
  622POSM   C3A 7297   0.958  22.064  11.936  0.3758  0.0788  0.1460
  622POSM   C1B 7298   0.792  22.183  11.238 -0.0971  0.0543  0.2121
  622POSM   D2B 7299   0.566  22.625  11.202  0.0619  0.1158  0.1672
  622POSM   C3B 7300   0.331  22.895  11.494 -0.1426  0.1287 -0.4176
  622POSM   C4B 7301   0.133  23.071  11.880  0.5000 -0.3201 -0.3532
  623DOPE   NH3 7302   7.794  20.330  10.720 -0.1265 -0.0209 -0.2118
  623DOPE   PO4 7303   7.862  20.021  10.783  0.1483  0.0420 -0.2492
  623DOPE   GL1 7304   7.629  20.013  11.129  0.1384  0.3442  0.1104
  623DOPE   GL2 7305   7.444  20.296  11.048 -0.2150 -0.0960 -0.2921
  623DOPE   C1A 7306   7.451  20.036  11.545 -0.3344  0.1074  0.3072
  623DOPE   D2A 7307   7.477  20.288  11.912  0.3315  0.1204 -0.1970
  623DOPE   C3A 7308   7.147  20.530  12.100  0.0598  0.2364  0.0238
  623DOPE   C4A 7309   6.833  20.888  12.237 -0.1834  0.2700  0.0528
  623DOPE   C1B 7310   7.425  20.539  11.432  0.2580  0.1244 -0.0598
  623DOPE   D2B 7311   7.747  20.685  11.687  0.2031 -0.3393  0.1434
  623DOPE   C3B 7312   7.832  20.551  12.134 -0.1782 -0.0687 -0.3018
  623DOPE   C4B 7313   7.589  20.441  12.523 -0.0014  0.1571 -0.0863
  624POSM   NC3 7314   9.295  18.487  10.337  0.1834  0.0591 -0.0032
  624POSM   PO4 7315   9.647  18.362  10.406 -0.3792  0.3541 -0.1091
  624POSM   AM1 7316   9.850  18.421  10.628 -0.0270  0.1572 -0.2362
  624POSM   AM2 7317  10.113  18.264  10.724 -0.1550  0.2046  0.2758
  624POSM   T1A 7318   9.878  18.335  11.124 -0.2908 -0.2360  0.1671
  624POSM   C2A 7319   9.786  18.186  11.600  0.1473  0.2070  0.1817
  624POSM   C3A 7320   9.602  17.902  11.946 -0.1006 -0.1595  0.1505
  624POSM   C1B 7321  10.357  18.376  10.841  0.1458  0.1006 -0.0689
  624POSM   D2B 7322  10.583  18.457  11.241  0.0378  0.2489 -0.0762
  624POSM   C3B 7323  10.449  18.177  11.551  0.0520 -0.0732  0.0616
  624POSM   C4B 7324  10.409  17.758  11.639 -0.3942  0.0511  0.0516
  625POSM   NC3 7325   1.276  14.542  11.876  0.1853  0.0363 -0.3131
  625POSM   PO4 7326   0.994  14.306  11.998  0.0783 -0.3087  0.4001
  625POSM   AM1 7327   1.162  14.349  12.278  0.3974 -0.2044  0.0666
  625POSM   AM2 7328   1.231  14.545  12.449  0.3523  0.1047 -0.0604
  625POSM   T1A 7329   1.438  14.114  12.649  0.1548 -0.0483 -0.1265
  625POSM   C2A 7330   1.471  14.067  13.072 -0.0371 -0.0386 -0.1146
  625POSM   C3A 7331   1.551  14.260  13.521  0.0372  0.3097  0.3141
  625POSM   C1B 7332   1.234  14.559  12.799  0.1162  0.1051  0.0920
  625POSM   D2B 7333   1.389  14.708  13.224 -0.2240  0.2166  0.2905
  625POSM   C3B 7334   1.205  14.971  13.585  0.0584 -0.1617  0.1507
  625POSM   C4B 7335   1.369  15.156  13.921 -0.1271 -0.1689  0.1645
  626DOPC   NC3 7336  10.065  22.198  10.609 -0.0468 -0.4384 -0.1565
  626DOPC   PO4 7337   9.995  22.447  10.311 -0.0225 -0.2844 -0.0523
  626DOPC   GL1 7338   9.789  22.601  10.636  0.5142  0.0967  0.4170
  626DOPC   GL2 7339   9.944  22.848  10.722  0.1476 -0.0956 -0.3451
  626DOPC   C1A 7340   9.435  22.902  10.756 -0.3852 -0.0640 -0.1328
  626DOPC   D2A 7341   9.280  23.143  11.153  0.1914  0.2296  0.2500
  626DOPC   C3A 7342   9.333  23.167  11.606  0.0325 -0.2491 -0.1800
  626DOPC   C4A 7343   9.377  23.056  12.018  0.1237  0.0984 -0.0566
  626DOPC   C1B 7344   9.801  22.640  11.128  0.0520 -0.0357 -0.1353
  626DOPC   D2B 7345  10.146  22.513  11.395 -0.1853  0.1480 -0.1345
  626DOPC   C3B 7346  10.316  22.661  11.817 -0.2237  0.0769 -0.1685
  626DOPC   C4B 7347  10.619  22.692  12.179 -0.0145  0.0667 -0.0133
  627DOPC   NC3 7348   7.931  22.992  10.445  0.0172 -0.2092  0.0751
  627DOPC   PO4 7349   8.173  22.806  10.666  0.0200  0.2312  0.0077
  627DOPC   GL1 7350   8.316  22.613  11.059  0.1427 -0.6080 -0.1609
  627DOPC   GL2 7351   8.100  22.374  11.077 -0.0316 -0.0242  0.1737
  627DOPC   C1A 7352   8.329  22.677  11.511  0.2265 -0.0751  0.0997
  627DOPC   D2A 7353   8.298  22.617  12.022  0.1501 -0.2539 -0.0647
  627DOPC   C3A 7354   8.542  22.415  12.284  0.2317 -0.1036  0.0926
  627DOPC   C4A 7355   8.769  22.358  12.719 -0.0452 -0.1981  0.2263
  627DOPC   C1B 7356   7.798  22.494  11.421 -0.0984 -0.3187 -0.2408
  627DOPC   D2B 7357   7.502  22.851  11.612 -0.0182 -0.0756  0.2160
  627DOPC   C3B 7358   7.535  23.263  11.321  0.3149  0.1362  0.2145
  627DOPC   C4B 7359   7.276  23.403  11.043  0.1271  0.0588  0.1460
  628DOPC   NC3 7360   2.578  17.150  11.656  0.0734  0.3003  0.1337
  628DOPC   PO4 7361   2.507  17.183  12.023  0.0163 -0.3288  0.2169
  628DOPC   GL1 7362   2.619  17.001  12.381 -0.0524  0.0032  0.0618
  628DOPC   GL2 7363   2.351  17.108  12.517  0.0759 -0.2201 -0.1173
  628DOPC   C1A 7364   2.687  17.108  12.877  0.1529 -0.3039  0.1328
  628DOPC   D2A 7365   2.578  17.004  13.318 -0.2402 -0.2410  0.0034
  628DOPC   C3A 7366   2.785  17.245  13.694  0.4209 -0.2071  0.2303
  628DOPC   C4A 7367   3.071  17.544  13.803 -0.0862 -0.1314 -0.1181
  628DOPC   C1B 7368   2.160  17.082  12.885 -0.1262  0.0160 -0.1096
  628DOPC   D2B 7369   1.664  17.218  12.970 -0.0546  0.0187 -0.0687
  628DOPC   C3B 7370   1.510  17.633  13.045  0.1962 -0.0972  0.3386
  628DOPC   C4B 7371   1.284  18.054  13.042 -0.3533 -0.1681  0.2459
  629DOPE   NH3 7372   7.910  10.705  11.090 -0.0906 -0.2797  0.3833
  629DOPE   PO4 7373   7.635  10.630  11.244 -0.1247  0.3055  0.1773
  629DOPE   GL1 7374   7.544  10.738  11.580 -0.2330 -0.3198  0.1235
  629DOPE   GL2 7375   7.290  10.825  11.550 -0.3656  0.1332  0.1821
  629DOPE   C1A 7376   7.396  10.477  11.897 -0.3133 -0.1701 -0.2217
  629DOPE   D2A 7377   7.354  10.104  12.131  0.0261  0.0313  0.1413
  629DOPE   C3A 7378   7.209  10.131  12.523  0.0417  0.3007 -0.1468
  629DOPE   C4A 7379   6.897  10.308  12.838 -0.0342  0.0453 -0.0387
  629DOPE   C1B 7380   7.299  10.964  11.976  0.0474  0.2575 -0.0989
  629DOPE   D2B 7381   7.331  10.844  12.406 -0.0637  0.1469  0.2643
  629DOPE   C3B 7382   7.685  11.142  12.412  0.3112  0.2182  0.0746
  629DOPE   C4B 7383   7.856  11.285  12.801 -0.2358 -0.0884  0.0933
  630POSM   NC3 7384   3.635  10.418  11.166 -0.1710 -0.0041 -0.0469
  630POSM   PO4 7385   3.378  10.329  11.467 -0.1078  0.2892  0.0048
  630POSM   AM1 7386   3.332  10.361  11.792  0.1189 -0.0743 -0.2639
  630POSM   AM2 7387   3.385  10.169  12.024  0.1369  0.1814  0.0559
  630POSM   T1A 7388   3.334  10.590  12.237 -0.1940  0.0166  0.1714
  630POSM   C2A 7389   3.257  10.911  12.601 -0.2357  0.1510  0.1478
  630POSM   C3A 7390   3.524  11.291  12.577 -0.1244  0.1695  0.1566
  630POSM   C1B 7391   3.364   9.966  12.280 -0.1442  0.0761  0.1045
  630POSM   D2B 7392   3.561   9.665  12.589 -0.0155 -0.1366 -0.1855
  630POSM   C3B 7393   3.670   9.538  13.036  0.0721  0.0338 -0.0400
  630POSM   C4B 7394   3.830   9.429  13.449  0.2455 -0.3378 -0.2625
  631DOPE   NH3 7395   0.774  19.277  11.118  0.3949 -0.0364 -0.0524
  631DOPE   PO4 7396   0.999  19.126  11.359 -0.0603  0.2869 -0.1368
  631DOPE   GL1 7397   0.674  19.118  11.628 -0.2423  0.4468  0.1314
  631DOPE   GL2 7398   0.835  18.927  11.805 -0.0495  0.0396  0.0249
  631DOPE   C1A 7399   0.429  19.381  11.951  0.0171  0.2728 -0.3636
  631DOPE   D2A 7400   0.001  19.332  12.200 -0.0669  0.4109  0.0447
  631DOPE   C3A 7401  -0.291  19.621  12.440 -0.0238 -0.1074 -0.1327
  631DOPE   C4A 7402  -0.408  19.864  12.836 -0.0733 -0.1065 -0.1474
  631DOPE   C1B 7403   0.716  18.772  12.173 -0.0574  0.0414  0.1757
  631DOPE   D2B 7404   0.663  18.579  12.578 -0.0560 -0.0969 -0.0097
  631DOPE   C3B 7405   0.914  18.567  12.973 -0.0482  0.0649 -0.2174
  631DOPE   C4B 7406   1.318  18.546  13.269 -0.0488  0.0748  0.5175
  632DOPC   NC3 7407   9.893  10.654  11.707  0.3152 -0.0846  0.1284
  632DOPC   PO4 7408   9.951  10.971  11.481  0.1073  0.1552  0.1765
  632DOPC   GL1 7409   9.649  11.138  11.592 -0.5063  0.0499  0.1038
  632DOPC   GL2 7410   9.688  11.309  11.813 -0.2058 -0.1615  0.0317
  632DOPC   C1A 7411   9.369  10.907  11.869 -0.0895  0.0583  0.1573
  632DOPC   D2A 7412   9.078  10.604  12.003  0.0477  0.1716  0.2429
  632DOPC   C3A 7413   8.775  10.437  12.327  0.0816  0.1496 -0.0570
  632DOPC   C4A 7414   8.652  10.368  12.760 -0.0429 -0.2329  0.2039
  632DOPC   C1B 7415   9.511  11.210  12.242 -0.0703 -0.0672 -0.1951
  632DOPC   D2B 7416   9.106  11.019  12.297  0.0775  0.0408 -0.1634
  632DOPC   C3B 7417   9.055  10.961  12.751 -0.1911  0.1328  0.0414
  632DOPC   C4B 7418   8.822  10.989  13.158  0.2287 -0.1727  0.0409
  633POSM   NC3 7419   6.353  13.184  11.302  0.0033  0.1701 -0.2023
  633POSM   PO4 7420   6.001  12.975  11.334 -0.2432  0.2317  0.1256
  633POSM   AM1 7421   6.094  13.004  11.652  0.1328 -0.2307  0.0333
  633POSM   AM2 7422   6.300  12.928  11.811  0.1194 -0.0529 -0.0823
  633POSM   T1A 7423   5.829  12.958  12.102 -0.0021  0.1640 -0.1235
  633POSM   C2A 7424   5.568  12.955  12.509 -0.1513  0.1143  0.0422
  633POSM   C3A 7425   5.345  13.022  12.924  0.0276 -0.2048 -0.0847
  633POSM   C1B 7426   6.280  13.002  12.144 -0.0388  0.0408  0.2070
  633POSM   D2B 7427   6.540  13.139  12.532 -0.0365  0.0456  0.1665
  633POSM   C3B 7428   6.321  13.374  12.830 -0.2382 -0.2023 -0.1141
  633POSM   C4B 7429   6.479  13.758  13.043 -0.0294 -0.1028 -0.2422
  634DOPE   NH3 7430   8.893  15.503  11.022  0.0099  0.2711 -0.3518
  634DOPE   PO4 7431   8.888  15.219  10.846 -0.1091  0.0877  0.1320
  634DOPE   GL1 7432   8.981  15.080  11.195  0.0995  0.0582 -0.1271
  634DOPE   GL2 7433   9.234  15.225  11.282  0.3531  0.1167  0.2473
  634DOPE   C1A 7434   9.143  14.837  11.574  0.5350 -0.0740 -0.0821
  634DOPE   D2A 7435   9.190  14.682  12.041 -0.1742 -0.4560  0.1801
  634DOPE   C3A 7436   9.112  14.239  11.931  0.2577 -0.0116 -0.2496
  634DOPE   C4A 7437   9.119  13.776  11.861 -0.1686  0.0419  0.0216
  634DOPE   C1B 7438   9.095  15.327  11.717  0.2785  0.3024 -0.0402
  634DOPE   D2B 7439   9.076  15.610  12.097 -0.1337  0.4469  0.0019
  634DOPE   C3B 7440   9.190  15.552  12.538  0.2034 -0.1389  0.1778
  634DOPE   C4B 7441   9.651  15.559  12.756  0.4075 -0.2267 -0.3211
  635DOPE   NH3 7442   2.524  18.478  11.247  0.0700 -0.1467 -0.0069
  635DOPE   PO4 7443   2.594  18.292  11.488 -0.2559 -0.3385 -0.1742
  635DOPE   GL1 7444   2.507  18.582  11.731  0.1176 -0.0931  0.2112
  635DOPE   GL2 7445   2.374  18.800  11.736  0.1129 -0.0573 -0.0803
  635DOPE   C1A 7446   2.662  18.745  12.131  0.0683  0.0835 -0.3901
  635DOPE   D2A 7447   2.609  19.106  12.460 -0.0255  0.3585 -0.0423
  635DOPE   C3A 7448   3.004  19.271  12.708 -0.3558 -0.1920 -0.0706
  635DOPE   C4A 7449   3.370  19.448  12.872 -0.0175 -0.0258 -0.0806
  635DOPE   C1B 7450   2.098  18.530  11.987  0.3920  0.1433  0.1692
  635DOPE   D2B 7451   1.981  18.281  12.349 -0.0116 -0.2315  0.1233
  635DOPE   C3B 7452   2.137  18.311  12.748 -0.0072  0.1721  0.2576
  635DOPE   C4B 7453   2.229  18.566  13.173 -0.2139  0.2936  0.2143
  636DOPC   NC3 7454   4.016  18.738  11.632 -0.2732  0.0346 -0.1054
  636DOPC   PO4 7455   4.409  18.608  11.643  0.2803  0.1441  0.2781
  636DOPC   GL1 7456   4.615  18.670  11.960 -0.1258  0.3067  0.0004
  636DOPC   GL2 7457   4.621  18.410  12.095 -0.2123  0.1049  0.0527
  636DOPC   C1A 7458   4.602  18.943  12.364  0.2600  0.1787  0.1492
  636DOPC   D2A 7459   4.462  19.139  12.764 -0.2114 -0.1127  0.7970
  636DOPC   C3A 7460   4.606  19.555  12.838 -0.1685  0.1352  0.1199
  636DOPC   C4A 7461   4.713  20.002  12.682  0.0669  0.0143 -0.1465
  636DOPC   C1B 7462   4.683  18.345  12.555  0.2162 -0.1408 -0.2534
  636DOPC   D2B 7463   4.529  18.255  13.006  0.5092 -0.3655  0.0984
  636DOPC   C3B 7464   4.386  17.844  12.974 -0.0969  0.2436 -0.1421
  636DOPC   C4B 7465   4.173  17.409  13.038 -0.0807 -0.0697 -0.1042
  637DOPE   NH3 7466   2.683  17.807  11.556  0.1259 -0.0771 -0.2061
  637DOPE   PO4 7467   2.633  17.646  11.799  0.0356  0.1970  0.1070
  637DOPE   GL1 7468   2.611  17.604  12.222 -0.2453  0.0854  0.0019
  637DOPE   GL2 7469   2.834  17.433  12.380  0.3303  0.1693  0.0026
  637DOPE   C1A 7470   2.851  17.942  12.470 -0.0024  0.3561  0.1570
  637DOPE   D2A 7471   3.124  18.207  12.623 -0.0573  0.2386  0.0294
  637DOPE   C3A 7472   3.397  17.870  12.918  0.0281 -0.0547 -0.1217
  637DOPE   C4A 7473   3.596  17.516  13.152  0.0303  0.2884 -0.1123
  637DOPE   C1B 7474   2.958  17.606  12.767  0.1224 -0.2211  0.0572
  637DOPE   D2B 7475   2.918  17.987  13.034  0.1921 -0.0648 -0.0997
  637DOPE   C3B 7476   2.643  18.260  12.847  0.1342  0.0217 -0.0095
  637DOPE   C4B 7477   2.530  18.322  12.409 -0.1758  0.2192 -0.1555
  638POSM   NC3 7478  10.478  15.326  10.593  0.1260  0.4926 -0.0988
  638POSM   PO4 7479  10.095  15.360  10.400 -0.0866  0.0890 -0.0590
  638POSM   AM1 7480  10.071  15.464  10.683  0.3439  0.1942  0.0963
  638POSM   AM2 7481   9.888  15.670  10.795 -0.1583 -0.0534 -0.0880
  638POSM   T1A 7482  10.219  15.371  11.119 -0.0954 -0.0795 -0.0546
  638POSM   C2A 7483  10.077  15.437  11.528  0.1418  0.1205 -0.1436
  638POSM   C3A 7484  10.375  15.608  11.873 -0.1212 -0.4405 -0.0046
  638POSM   C1B 7485   9.980  15.887  11.046 -0.1447 -0.0559 -0.0327
  638POSM   D2B 7486  10.105  15.933  11.517  0.1001  0.2808 -0.2195
  638POSM   C3B 7487  10.414  16.257  11.654  0.1828  0.2751 -0.1297
  638POSM   C4B 7488  10.445  16.727  11.749  0.1298  0.0535 -0.1586
  639DOPC   NC3 7489   9.229  16.348  10.833  0.1342 -0.0648  0.1517
  639DOPC   PO4 7490   8.839  16.349  10.636  0.0529 -0.1295  0.0108
  639DOPC   GL1 7491   8.814  16.619  10.852  0.1649 -0.0309  0.4518
  639DOPC   GL2 7492   9.032  16.828  10.861 -0.3468 -0.0611  0.1203
  639DOPC   C1A 7493   9.012  16.559  11.247  0.0573  0.0439 -0.2258
  639DOPC   D2A 7494   8.841  16.444  11.657  0.3699  0.1907  0.0435
  639DOPC   C3A 7495   9.040  16.779  11.973 -0.1933 -0.1283 -0.1026
  639DOPC   C4A 7496   9.101  16.777  12.425  0.0731  0.0456 -0.0195
  639DOPC   C1B 7497   9.225  17.154  11.203  0.2498  0.1738 -0.0610
  639DOPC   D2B 7498   9.450  17.467  11.515 -0.1564 -0.1697 -0.0204
  639DOPC   C3B 7499   9.295  17.895  11.551  0.4415 -0.2570  0.0095
  639DOPC   C4B 7500   9.288  18.323  11.886  0.1196  0.2913  0.0968
  640POSM   NC3 7501   3.481  23.550  10.297 -0.0214 -0.0978 -0.0830
  640POSM   PO4 7502   3.834  23.631  10.407  0.3015 -0.1107 -0.0724
  640POSM   AM1 7503   3.769  23.709  10.713  0.3267 -0.1309 -0.0407
  640POSM   AM2 7504   3.884  23.604  10.971  0.2033  0.1875 -0.3103
  640POSM   T1A 7505   3.527  23.848  11.124 -0.0020  0.1689 -0.0375
  640POSM   C2A 7506   3.067  23.808  11.301 -0.2924  0.2159 -0.0542
  640POSM   C3A 7507   2.709  23.848  11.636 -0.0931  0.1156  0.0781
  640POSM   C1B 7508   4.103  23.760  11.199  0.1234  0.3909  0.3938
  640POSM   D2B 7509   4.380  23.744  11.561 -0.2474 -0.0312 -0.0684
  640POSM   C3B 7510   4.231  23.485  11.874  0.0702  0.0051  0.1801
  640POSM   C4B 7511   4.089  23.350  12.328  0.3507 -0.1252  0.2795
  641DOPE   NH3 7512   4.287  12.060  11.610 -0.0193  0.2361 -0.0378
  641DOPE   PO4 7513   4.591  11.981  11.752 -0.1221  0.1972 -0.0345
  641DOPE   GL1 7514   4.569  11.747  12.057 -0.0574 -0.2478 -0.2553
  641DOPE   GL2 7515   4.376  11.558  12.085 -0.1839  0.2078  0.4320
  641DOPE   C1A 7516   4.485  11.822  12.529  0.0027  0.0768 -0.1527
  641DOPE   D2A 7517   4.424  11.849  13.001 -0.1799 -0.1494 -0.0269
  641DOPE   C3A 7518   4.794  11.826  13.359 -0.2155  0.0088 -0.2938
  641DOPE   C4A 7519   5.232  11.821  13.341  0.1359 -0.2472 -0.2452
  641DOPE   C1B 7520   4.452  11.266  12.471  0.0135  0.2340 -0.0161
  641DOPE   D2B 7521   4.661  11.320  12.849 -0.0504 -0.2838 -0.1473
  641DOPE   C3B 7522   4.443  11.438  13.221  0.2408 -0.1870 -0.0272
  641DOPE   C4B 7523   4.217  11.527  13.572  0.0570 -0.0349 -0.0827
  642DOPC   NC3 7524   8.939  14.217  11.428  0.1642  0.2688 -0.1476
  642DOPC   PO4 7525   8.580  14.159  11.258  0.1821 -0.1546 -0.0263
  642DOPC   GL1 7526   8.418  14.209  11.577 -0.1756  0.2184 -0.1243
  642DOPC   GL2 7527   8.616  13.984  11.761  0.0836  0.0684 -0.2395
  642DOPC   C1A 7528   8.356  14.279  12.063  0.1643 -0.0129  0.1008
  642DOPC   D2A 7529   8.323  14.649  12.333  0.1466 -0.0606  0.3091
  642DOPC   C3A 7530   8.665  14.796  12.616 -0.3696 -0.0595  0.0275
  642DOPC   C4A 7531   8.921  14.870  13.002  0.1135  0.3325  0.0621
  642DOPC   C1B 7532   8.797  13.967  12.190 -0.1327  0.0214  0.1218
  642DOPC   D2B 7533   9.137  14.094  12.537  0.1374  0.1519  0.2210
  642DOPC   C3B 7534   9.339  14.149  12.984  0.1326 -0.1729  0.2084
  642DOPC   C4B 7535   9.467  14.306  13.404  0.0885 -0.1529  0.0527
  643DOPE   NH3 7536  12.968  10.503  10.689  0.0815 -0.3629  0.1506
  643DOPE   PO4 7537  12.791  10.325  10.912 -0.1020 -0.2603  0.1078
  643DOPE   GL1 7538  12.798  10.587  11.187 -0.0128  0.2236  0.0704
  643DOPE   GL2 7539  12.629  10.757  11.334 -0.0197  0.2046  0.1643
  643DOPE   C1A 7540  12.850  10.572  11.697  0.1454 -0.1883 -0.1194
  643DOPE   D2A 7541  12.814  10.720  12.112 -0.1099  0.2722 -0.0320
  643DOPE   C3A 7542  12.963  11.167  12.213 -0.2120 -0.1482  0.0337
  643DOPE   C4A 7543  13.326  11.404  12.075  0.0150 -0.2149  0.3434
  643DOPE   C1B 7544  12.643  11.022  11.668 -0.2115 -0.1104 -0.0212
  643DOPE   D2B 7545  12.969  11.355  11.740  0.1092  0.0279 -0.0514
  643DOPE   C3B 7546  12.869  11.668  12.090 -0.1451  0.0199  0.2849
  643DOPE   C4B 7547  12.585  11.932  12.381  0.0602 -0.0016 -0.1121
  644POSM   NC3 7548   1.968  16.132  11.247 -0.0073  0.0716  0.0681
  644POSM   PO4 7549   1.809  16.061  11.626  0.0891  0.1230 -0.1198
  644POSM   AM1 7550   1.833  16.017  11.943 -0.3658 -0.2580 -0.0512
  644POSM   AM2 7551   1.659  15.912  12.121  0.1548 -0.0006  0.1518
  644POSM   T1A 7552   1.998  16.105  12.405  0.1985 -0.1040 -0.1516
  644POSM   C2A 7553   1.766  16.180  12.813 -0.0687 -0.0604  0.5120
  644POSM   C3A 7554   1.508  15.990  13.082 -0.1660  0.0263 -0.1247
  644POSM   C1B 7555   1.472  15.921  12.363 -0.0308 -0.0551 -0.1364
  644POSM   D2B 7556   1.168  15.928  12.726  0.0935 -0.0460  0.0855
  644POSM   C3B 7557   1.292  15.498  12.948 -0.1917  0.0596  0.0276
  644POSM   C4B 7558   1.066  15.119  13.143 -0.1978 -0.1663 -0.1179
  645DOPC   NC3 7559   5.818  21.073  11.038  0.1446  0.2462 -0.2058
  645DOPC   PO4 7560   5.756  20.663  11.069  0.0905  0.1549 -0.0497
  645DOPC   GL1 7561   6.034  20.749  11.329 -0.0687 -0.0023 -0.1323
  645DOPC   GL2 7562   6.050  20.445  11.389 -0.3659 -0.1370  0.2378
  645DOPC   C1A 7563   6.361  21.024  11.371 -0.0007  0.0714  0.2962
  645DOPC   D2A 7564   6.737  21.226  11.474 -0.2335  0.0669  0.2092
  645DOPC   C3A 7565   6.786  21.250  11.916 -0.0957  0.2767  0.0657
  645DOPC   C4A 7566   6.702  21.448  12.284  0.1058 -0.4428 -0.2010
  645DOPC   C1B 7567   6.058  20.675  11.846 -0.1249 -0.0361 -0.0407
  645DOPC   D2B 7568   5.937  20.822  12.304  0.0667  0.1524  0.0265
  645DOPC   C3B 7569   6.195  20.999  12.685 -0.1811 -0.1583  0.2834
  645DOPC   C4B 7570   6.650  21.072  12.689  0.1223  0.1867  0.0276
  646POSM   NC3 7571   7.126  13.117  11.235  0.1314 -0.0370  0.1025
  646POSM   PO4 7572   6.789  13.230  11.087 -0.1656 -0.1828  0.0654
  646POSM   AM1 7573   6.766  13.416  11.333 -0.3085  0.1789 -0.1240
  646POSM   AM2 7574   6.992  13.615  11.414 -0.1297  0.1568 -0.0699
  646POSM   T1A 7575   6.822  13.242  11.789  0.1260 -0.1232 -0.2552
  646POSM   C2A 7576   6.758  12.911  12.158 -0.3718  0.0198  0.2541
  646POSM   C3A 7577   6.592  12.464  12.266  0.1047  0.2906 -0.1553
  646POSM   C1B 7578   7.079  13.690  11.759 -0.0657  0.0342  0.0269
  646POSM   D2B 7579   7.255  13.798  12.141  0.0530 -0.2187 -0.0540
  646POSM   C3B 7580   6.955  13.925  12.455 -0.0014 -0.0216 -0.1233
  646POSM   C4B 7581   6.505  13.706  12.447 -0.0718 -0.0681 -0.0980
  647POSM   NC3 7582   3.991  17.016  11.528 -0.0834 -0.1015 -0.1621
  647POSM   PO4 7583   3.998  17.289  11.789  0.2775 -0.2837 -0.0871
  647POSM   AM1 7584   4.081  17.420  12.068  0.2079 -0.1796 -0.0250
  647POSM   AM2 7585   4.244  17.617  12.234  0.0648  0.1029  0.4316
  647POSM   T1A 7586   3.879  17.555  12.570 -0.1854  0.1481 -0.1894
  647POSM   C2A 7587   3.913  17.813  12.944 -0.1946  0.0630 -0.0272
  647POSM   C3A 7588   3.955  17.816  13.419 -0.2159 -0.0954  0.0585
  647POSM   C1B 7589   4.294  17.836  12.475  0.0455  0.0182 -0.2957
  647POSM   D2B 7590   4.114  18.212  12.751  0.1826 -0.1649 -0.0012
  647POSM   C3B 7591   4.088  18.262  13.192 -0.1544 -0.1817 -0.1282
  647POSM   C4B 7592   3.859  18.363  13.584 -0.0918 -0.0198  0.3651
  648DOPC   NC3 7593   6.432  12.186  11.171  0.2620 -0.2522 -0.3608
  648DOPC   PO4 7594   6.096  12.132  11.383 -0.2337  0.0094 -0.2059
  648DOPC   GL1 7595   6.086  12.202  11.795  0.0732 -0.3268 -0.2591
  648DOPC   GL2 7596   6.221  12.442  11.960 -0.0087  0.0275  0.0277
  648DOPC   C1A 7597   6.150  11.963  12.212 -0.2949  0.0541 -0.0799
  648DOPC   D2A 7598   6.260  12.131  12.688  0.1090 -0.1878 -0.1892
  648DOPC   C3A 7599   6.376  12.550  12.798  0.1534 -0.2924 -0.0851
  648DOPC   C4A 7600   6.612  12.903  13.011 -0.0796 -0.1100  0.0339
  648DOPC   C1B 7601   6.089  12.619  12.371 -0.1667 -0.0177 -0.2564
  648DOPC   D2B 7602   6.017  12.872  12.726  0.2528 -0.1682 -0.0156
  648DOPC   C3B 7603   6.044  12.730  13.152  0.2978  0.3011  0.0080
  648DOPC   C4B 7604   6.068  12.490  13.501 -0.1316  0.1530  0.1102
  649DOPE   NH3 7605   3.343  13.181  11.641  0.0228  0.1176  0.2781
  649DOPE   PO4 7606   3.570  12.946  11.646  0.0005  0.2920  0.0267
  649DOPE   GL1 7607   3.835  13.046  11.951 -0.2144  0.0706  0.1471
  649DOPE   GL2 7608   3.877  12.717  12.016 -0.1600 -0.0128  0.2153
  649DOPE   C1A 7609   3.685  13.059  12.409 -0.0627 -0.2676 -0.0898
  649DOPE   D2A 7610   3.453  13.086  12.825  0.0403 -0.0943 -0.2454
  649DOPE   C3A 7611   3.541  13.123  13.242 -0.0700  0.1620  0.1055
  649DOPE   C4A 7612   3.684  13.156  13.669  0.1890 -0.1016 -0.4405
  649DOPE   C1B 7613   4.137  13.017  12.236 -0.2598 -0.0230  0.2299
  649DOPE   D2B 7614   4.211  13.414  12.367  0.0273 -0.3195 -0.0355
  649DOPE   C3B 7615   4.328  13.402  12.775  0.1156  0.2157 -0.0591
  649DOPE   C4B 7616   4.151  13.121  13.136 -0.0492  0.1497 -0.0475
  650POSM   NC3 7617   2.055  23.393  10.447 -0.0887  0.1022  0.2449
  650POSM   PO4 7618   2.374  23.547  10.332  0.0142 -0.1387 -0.2783
  650POSM   AM1 7619   2.353  23.662  10.678 -0.0234  0.2002  0.5032
  650POSM   AM2 7620   2.100  23.681  10.864  0.0873  0.0730  0.0310
  650POSM   T1A 7621   2.518  23.622  11.114  0.1130  0.1373  0.0089
  650POSM   C2A 7622   2.577  23.357  11.421 -0.2865 -0.1542 -0.1781
  650POSM   C3A 7623   2.693  23.215  11.842  0.2269  0.1870  0.3069
  650POSM   C1B 7624   1.984  23.867  11.090 -0.0808  0.1369  0.0475
  650POSM   D2B 7625   1.742  23.903  11.453 -0.1113  0.0118 -0.4235
  650POSM   C3B 7626   1.834  24.200  11.801  0.1742  0.0445 -0.2986
  650POSM   C4B 7627   1.861  24.429  12.213  0.3468 -0.1102  0.2082
  651POSM   NC3 7628   1.698  13.274  11.692  0.1522  0.0069 -0.0685
  651POSM   PO4 7629   1.886  13.256  12.025 -0.2037  0.1316 -0.2354
  651POSM   AM1 7630   1.692  13.255  12.221  0.2765 -0.1584 -0.2352
  651POSM   AM2 7631   1.514  13.029  12.282  0.1728 -0.1459  0.3619
  651POSM   T1A 7632   1.690  13.208  12.726 -0.1617  0.4432 -0.1074
  651POSM   C2A 7633   1.851  13.329  13.136  0.1142  0.0566 -0.0588
  651POSM   C3A 7634   2.035  13.292  13.513 -0.0991 -0.0596  0.2254
  651POSM   C1B 7635   1.169  12.992  12.319  0.1215 -0.0226 -0.0095
  651POSM   D2B 7636   0.740  13.060  12.484 -0.2489  0.0909 -0.1583
  651POSM   C3B 7637   0.643  13.070  12.906 -0.1503  0.1409 -0.1725
  651POSM   C4B 7638   0.690  12.748  13.294  0.1177 -0.0457 -0.2787
  652DOPS   CNO 7639   8.269  16.662  10.883  0.0194 -0.2405  0.0766
  652DOPS   PO4 7640   8.362  16.294  10.841  0.4528  0.0275  0.1347
  652DOPS   GL1 7641   8.508  16.130  11.094 -0.0118 -0.0888 -0.0429
  652DOPS   GL2 7642   8.814  16.137  11.128 -0.0245 -0.1652 -0.0799
  652DOPS   C1A 7643   8.367  16.141  11.546  0.1359 -0.1275 -0.2467
  652DOPS   D2A 7644   8.380  16.324  11.940 -0.2960 -0.2713  0.0603
  652DOPS   C3A 7645   8.312  16.018  12.262 -0.1968  0.0846 -0.0019
  652DOPS   C4A 7646   8.069  15.917  12.651  0.0440  0.0930  0.1644
  652DOPS   C1B 7647   8.840  15.905  11.492  0.0598  0.4805 -0.2971
  652DOPS   D2B 7648   9.252  15.936  11.750  0.0029  0.0159 -0.2728
  652DOPS   C3B 7649   9.264  16.319  12.039  0.0324  0.0404  0.1699
  652DOPS   C4B 7650   9.334  16.337  12.492  0.3392 -0.1474 -0.0378
  653DOPC   NC3 7651   4.344  20.835  10.811 -0.0826  0.0560 -0.4201
  653DOPC   PO4 7652   4.206  21.243  10.793 -0.1314  0.2149  0.0822
  653DOPC   GL1 7653   4.145  21.196  11.176  0.3688  0.0870 -0.3431
  653DOPC   GL2 7654   4.359  21.180  11.381 -0.1921 -0.0348  0.0069
  653DOPC   C1A 7655   3.817  21.277  11.565  0.1053  0.0739  0.0816
  653DOPC   D2A 7656   3.617  21.419  11.982 -0.0219  0.2982 -0.0330
  653DOPC   C3A 7657   3.333  21.124  12.224 -0.3158  0.4289  0.2760
  653DOPC   C4A 7658   2.955  20.943  12.314 -0.1157 -0.2541  0.0986
  653DOPC   C1B 7659   4.207  21.203  11.817 -0.3098  0.1536 -0.0225
  653DOPC   D2B 7660   4.297  20.879  12.203 -0.1025  0.1051  0.2055
  653DOPC   C3B 7661   4.422  21.078  12.582 -0.2455 -0.1249 -0.1704
  653DOPC   C4B 7662   4.398  21.473  12.855 -0.1314 -0.0368  0.0713
  654POSM   NC3 7663   1.880  17.470  11.504 -0.0159  0.0646 -0.2184
  654POSM   PO4 7664   2.173  17.388  11.706 -0.0950  0.1299  0.0769
  654POSM   AM1 7665   2.123  17.554  11.986 -0.2999  0.4148 -0.3197
  654POSM   AM2 7666   2.022  17.464  12.257 -0.1891 -0.1819 -0.0213
  654POSM   T1A 7667   2.265  17.879  12.347  0.2509 -0.1560 -0.1639
  654POSM   C2A 7668   2.330  17.878  12.759 -0.0498 -0.3255  0.0776
  654POSM   C3A 7669   2.375  17.984  13.164  0.2302  0.2025  0.1147
  654POSM   C1B 7670   2.063  17.461  12.582  0.2072 -0.1231 -0.2231
  654POSM   D2B 7671   2.061  17.567  13.034 -0.1233 -0.1137 -0.1600
  654POSM   C3B 7672   2.499  17.501  13.160  0.2313  0.0510  0.1539
  654POSM   C4B 7673   2.939  17.485  13.250 -0.0113  0.3597  0.2304
  655DOPE   NH3 7674   9.306  16.352  10.345 -0.1788 -0.1743  0.0133
  655DOPE   PO4 7675   9.585  16.433  10.235 -0.2430  0.1181 -0.0233
  655DOPE   GL1 7676   9.837  16.327  10.486  0.3210 -0.0181  0.1508
  655DOPE   GL2 7677   9.955  16.618  10.500  0.2886  0.1019 -0.0463
  655DOPE   C1A 7678   9.923  16.359  10.919 -0.2297  0.1760 -0.0621
  655DOPE   D2A 7679  10.009  16.422  11.351  0.2075  0.0141 -0.1190
  655DOPE   C3A 7680   9.958  16.577  11.691  0.2936 -0.0250  0.4074
  655DOPE   C4A 7681   9.991  17.016  11.921  0.1642  0.1456  0.1630
  655DOPE   C1B 7682  10.311  16.653  10.751  0.2268  0.2301 -0.1930
  655DOPE   D2B 7683  10.578  16.965  10.937  0.3915  0.5473 -0.0145
  655DOPE   C3B 7684  10.434  17.099  11.334 -0.0620 -0.2123 -0.1973
  655DOPE   C4B 7685  10.543  17.263  11.748  0.2403  0.1127  0.3118
  656POSM   NC3 7686   3.544  15.518  11.587  0.4062  0.1157  0.4227
  656POSM   PO4 7687   3.683  15.831  11.750 -0.0133  0.1848  0.2019
  656POSM   AM1 7688   3.734  15.936  12.089  0.4565  0.0355 -0.2335
  656POSM   AM2 7689   3.860  16.154  12.250  0.2140  0.0198 -0.0669
  656POSM   T1A 7690   3.813  15.817  12.577 -0.0577  0.2060 -0.0694
  656POSM   C2A 7691   3.727  16.074  12.921 -0.2439  0.1897 -0.1692
  656POSM   C3A 7692   3.461  16.105  13.298  0.0961 -0.0762 -0.3141
  656POSM   C1B 7693   3.666  16.342  12.467  0.2233 -0.0854  0.4284
  656POSM   D2B 7694   3.479  16.730  12.683 -0.1661 -0.0934 -0.3912
  656POSM   C3B 7695   3.806  17.073  12.826 -0.2413 -0.0111  0.1123
  656POSM   C4B 7696   4.204  17.130  12.600  0.1133  0.0438 -0.2391
  657POSM   NC3 7697   6.003  19.396  10.836  0.0649  0.1505 -0.2381
  657POSM   PO4 7698   5.809  19.474  11.144 -0.0945 -0.1641  0.2641
  657POSM   AM1 7699   5.814  19.458  11.482  0.0662  0.3710 -0.0942
  657POSM   AM2 7700   5.999  19.481  11.651 -0.1902 -0.2636 -0.1123
  657POSM   T1A 7701   5.578  19.551  11.899  0.1103 -0.1797 -0.1019
  657POSM   C2A 7702   5.193  19.733  12.022 -0.2742  0.0388  0.1432
  657POSM   C3A 7703   4.870  20.072  12.059  0.0883  0.1140  0.2670
  657POSM   C1B 7704   6.109  19.671  11.905  0.1714 -0.0752 -0.1766
  657POSM   D2B 7705   6.313  19.836  12.282 -0.1230 -0.3244  0.0110
  657POSM   C3B 7706   6.224  19.984  12.717  0.2787 -0.1292 -0.1810
  657POSM   C4B 7707   5.992  20.125  13.056  0.0418 -0.1123  0.2879
  658POSM   NC3 7708   4.358  16.893  11.834  0.1609  0.0929 -0.0663
  658POSM   PO4 7709   4.264  16.611  11.623  0.2135  0.1052  0.0213
  658POSM   AM1 7710   4.328  16.458  11.869  0.1920  0.2350 -0.3013
  658POSM   AM2 7711   4.350  16.227  12.006 -0.2622  0.0238 -0.1770
  658POSM   T1A 7712   4.175  16.661  12.286  0.0592 -0.1239 -0.0109
  658POSM   C2A 7713   3.993  16.643  12.735 -0.0186 -0.1508 -0.0181
  658POSM   C3A 7714   3.648  16.607  13.112  0.3248 -0.1662  0.0285
  658POSM   C1B 7715   4.359  16.126  12.343  0.2345  0.1626 -0.2197
  658POSM   D2B 7716   4.332  16.036  12.790 -0.2782  0.1333  0.1061
  658POSM   C3B 7717   4.136  16.293  13.147  0.0158  0.0503  0.2653
  658POSM   C4B 7718   4.044  16.519  13.519 -0.0261  0.0423  0.3475
  659DOPS   CNO 7719   8.745  13.610  10.748 -0.0835  0.0041  0.0030
  659DOPS   PO4 7720   8.440  13.492  10.980  0.0167  0.0409 -0.0941
  659DOPS   GL1 7721   8.397  13.301  11.344  0.0575 -0.3220 -0.1743
  659DOPS   GL2 7722   8.711  13.225  11.454  0.1255 -0.1157 -0.2148
  659DOPS   C1A 7723   8.228  13.494  11.767 -0.1027  0.0903 -0.4034
  659DOPS   D2A 7724   8.275  13.736  12.182  0.1271 -0.4488  0.2067
  659DOPS   C3A 7725   8.106  13.613  12.583  0.0961  0.0107  0.0004
  659DOPS   C4A 7726   8.134  13.470  12.977  0.2887  0.0699  0.2064
  659DOPS   C1B 7727   8.702  13.469  11.882  0.2182 -0.3106 -0.0700
  659DOPS   D2B 7728   8.827  13.418  12.332  0.0277  0.0494  0.0122
  659DOPS   C3B 7729   8.651  13.582  12.662  0.0745  0.0689  0.3121
  659DOPS   C4B 7730   8.672  13.600  13.107 -0.0957 -0.1315 -0.2356
  660POSM   NC3 7731   9.086  11.904  10.874  0.0377  0.1499  0.0359
  660POSM   PO4 7732   8.892  11.816  11.153  0.1046  0.0152  0.0932
  660POSM   AM1 7733   8.944  11.812  11.483  0.0372 -0.1310  0.0771
  660POSM   AM2 7734   8.830  11.957  11.705  0.2498 -0.1995 -0.2325
  660POSM   T1A 7735   8.639  11.575  11.842  0.0279 -0.1558  0.1711
  660POSM   C2A 7736   8.497  11.571  12.255 -0.2258 -0.1284 -0.0516
  660POSM   C3A 7737   8.274  11.313  12.525  0.1029 -0.1813 -0.0605
  660POSM   C1B 7738   8.896  11.965  12.011  0.2219  0.1076 -0.0841
  660POSM   D2B 7739   8.748  11.941  12.452 -0.1265  0.2607  0.3400
  660POSM   C3B 7740   9.031  11.809  12.749  0.1035 -0.1562 -0.0601
  660POSM   C4B 7741   9.282  11.851  13.154 -0.1360 -0.3619 -0.2150
  661DOPE   NH3 7742   8.147  13.111  10.870 -0.1397 -0.3475 -0.2190
  661DOPE   PO4 7743   8.042  13.114  11.179  0.3822 -0.1182  0.0809
  661DOPE   GL1 7744   8.212  12.947  11.513  0.4133 -0.0525 -0.0255
  661DOPE   GL2 7745   8.016  12.812  11.625  0.0816  0.0794  0.1158
  661DOPE   C1A 7746   8.364  13.015  11.919  0.3128  0.0470 -0.1332
  661DOPE   D2A 7747   8.619  12.833  12.216 -0.3432 -0.0637  0.0345
  661DOPE   C3A 7748   8.886  12.983  12.591 -0.1091  0.0107  0.1293
  661DOPE   C4A 7749   9.031  13.242  12.962  0.0170  0.0285  0.0454
  661DOPE   C1B 7750   7.733  13.009  11.969  0.1310 -0.2398 -0.0095
  661DOPE   D2B 7751   7.952  13.293  12.181  0.2601  0.0060 -0.0736
  661DOPE   C3B 7752   8.356  13.223  12.371  0.0537 -0.0498 -0.0004
  661DOPE   C4B 7753   8.461  13.179  12.820 -0.0103  0.0199 -0.0132
  662DOPE   NH3 7754   9.728  21.397  10.373 -0.0729  0.2198 -0.1064
  662DOPE   PO4 7755   9.645  21.494  10.641 -0.2864 -0.1985 -0.0015
  662DOPE   GL1 7756   9.607  21.318  10.980 -0.0528 -0.2567  0.4135
  662DOPE   GL2 7757   9.806  21.106  10.992 -0.0707 -0.3091  0.0746
  662DOPE   C1A 7758   9.420  21.100  11.330  0.2164 -0.3927 -0.0221
  662DOPE   D2A 7759   9.187  20.832  11.622  0.0759 -0.2132  0.1589
  662DOPE   C3A 7760   9.386  20.802  11.987 -0.0099 -0.1448  0.1858
  662DOPE   C4A 7761   9.766  20.934  12.239  0.0775 -0.0051  0.0149
  662DOPE   C1B 7762   9.856  21.423  11.326  0.0015 -0.0012  0.0607
  662DOPE   D2B 7763  10.216  21.654  11.474 -0.2988 -0.0196  0.0549
  662DOPE   C3B 7764  10.327  22.112  11.635 -0.1132  0.2007  0.1023
  662DOPE   C4B 7765  10.687  22.376  11.783 -0.0496 -0.1828  0.1849
  663DOPE   NH3 7766   3.689  22.221  10.612  0.3363  0.1378  0.1227
  663DOPE   PO4 7767   3.601  21.948  10.720 -0.2374 -0.0117  0.0751
  663DOPE   GL1 7768   3.456  22.072  11.051 -0.4326 -0.2821 -0.1481
  663DOPE   GL2 7769   3.597  22.009  11.264 -0.0172  0.2909  0.0250
  663DOPE   C1A 7770   3.210  22.343  11.308  0.1148  0.1934 -0.2118
  663DOPE   D2A 7771   3.084  22.340  11.756  0.3624  0.4528 -0.1324
  663DOPE   C3A 7772   3.133  22.640  12.101  0.0536 -0.2200 -0.0506
  663DOPE   C4A 7773   3.553  22.841  12.302 -0.1211 -0.1220  0.3150
  663DOPE   C1B 7774   3.581  22.263  11.618  0.0057  0.0963 -0.2103
  663DOPE   D2B 7775   3.570  22.296  12.060  0.0082  0.1246  0.1154
  663DOPE   C3B 7776   3.646  22.182  12.550  0.2062 -0.2275 -0.2633
  663DOPE   C4B 7777   3.888  22.161  12.885 -0.2342 -0.2004 -0.0294
  664DOPE   NH3 7778  34.495   9.935  11.503 -0.1726 -0.2558  0.4497
  664DOPE   PO4 7779  34.220   9.875  11.363 -0.1681 -0.0122  0.1761
  664DOPE   GL1 7780  33.912   9.904  11.631  0.1855 -0.0871 -0.1906
  664DOPE   GL2 7781  34.046  10.074  11.896  0.2257  0.0783  0.1609
  664DOPE   C1A 7782  33.677   9.822  12.023 -0.2019 -0.1091 -0.1823
  664DOPE   D2A 7783  33.523   9.767  12.401 -0.0928 -0.2358 -0.2150
  664DOPE   C3A 7784  33.099   9.613  12.527  0.0086 -0.0636  0.2576
  664DOPE   C4A 7785  32.696   9.341  12.629 -0.1231 -0.0421  0.2925
  664DOPE   C1B 7786  34.044   9.936  12.372  0.0351  0.0013 -0.2564
  664DOPE   D2B 7787  33.867   9.980  12.786 -0.0565 -0.0270 -0.3911
  664DOPE   C3B 7788  33.478   9.799  12.975 -0.1046 -0.0704  0.2869
  664DOPE   C4B 7789  33.063   9.980  13.027 -0.2112  0.2432  0.1048
  665POSM   NC3 7790   1.637  15.517  11.654 -0.1033  0.0448 -0.0283
  665POSM   PO4 7791   1.965  15.633  11.810  0.1452  0.0092 -0.1595
  665POSM   AM1 7792   1.907  15.554  12.125 -0.0484 -0.0562  0.0503
  665POSM   AM2 7793   1.681  15.404  12.289 -0.1805 -0.0392  0.0925
  665POSM   T1A 7794   1.921  15.669  12.635  0.1273 -0.3244  0.0203
  665POSM   C2A 7795   1.775  15.543  13.019  0.0594 -0.0011 -0.2261
  665POSM   C3A 7796   1.999  15.392  13.385  0.0022  0.0199 -0.0656
  665POSM   C1B 7797   1.566  15.301  12.561  0.0016 -0.1727 -0.0816
  665POSM   D2B 7798   1.462  14.978  12.858  0.0194  0.0044 -0.1704
  665POSM   C3B 7799   1.551  15.171  13.264 -0.3884  0.1724  0.3266
  665POSM   C4B 7800   1.231  15.494  13.476 -0.1160 -0.0756 -0.3277
  666DOPC   NC3 7801   8.600  19.770  10.746 -0.0116 -0.2121  0.0168
  666DOPC   PO4 7802   8.487  19.373  10.724  0.0122 -0.1858 -0.0582
  666DOPC   GL1 7803   8.679  19.443  11.165  0.0330 -0.0416 -0.0359
  666DOPC   GL2 7804   8.712  19.803  11.297 -0.0400  0.0880  0.0602
  666DOPC   C1A 7805   8.921  19.418  11.581 -0.0241  0.1014  0.2327
  666DOPC   D2A 7806   9.024  19.222  11.961 -0.0255 -0.0491  0.1425
  666DOPC   C3A 7807   9.192  18.841  12.193 -0.1482  0.1460  0.2234
  666DOPC   C4A 7808   9.365  18.433  12.363  0.3097  0.1406  0.0974
  666DOPC   C1B 7809   9.069  19.934  11.573  0.2248  0.3966  0.0437
  666DOPC   D2B 7810   9.206  20.310  11.823 -0.1128 -0.0568  0.0525
  666DOPC   C3B 7811   8.972  20.371  12.232 -0.0815  0.0092  0.2602
  666DOPC   C4B 7812   8.559  20.430  12.384  0.0856 -0.2101 -0.3603
  667DOPC   NC3 7813   4.423  24.268  10.662  0.1654  0.2532  0.1713
  667DOPC   PO4 7814   4.314  24.565  10.444 -0.0792  0.2243 -0.1319
  667DOPC   GL1 7815   4.369  24.811  10.742 -0.1923 -0.2871  0.0925
  667DOPC   GL2 7816   4.389  24.708  11.009  0.1114 -0.1698  0.2104
  667DOPC   C1A 7817   4.439  25.190  11.050  0.0326  0.3390  0.2749
  667DOPC   D2A 7818   4.543  25.678  11.053 -0.1275  0.1089 -0.1225
  667DOPC   C3A 7819   4.513  25.953  11.447  0.0741 -0.1168  0.2188
  667DOPC   C4A 7820   4.287  26.350  11.522  0.2137  0.1325 -0.0831
  667DOPC   C1B 7821   4.068  24.670  11.322 -0.0569 -0.0099 -0.0870
  667DOPC   D2B 7822   3.802  24.796  11.711  0.0609  0.0747 -0.0146
  667DOPC   C3B 7823   3.768  25.233  11.873  0.0405 -0.1181  0.0468
  667DOPC   C4B 7824   4.056  25.473  12.095  0.0543  0.1606  0.1784
  668POSM   NC3 7825   2.764  15.673  11.443 -0.0358  0.3096 -0.2162
  668POSM   PO4 7826   2.539  15.531  11.727 -0.2834  0.0890  0.0632
  668POSM   AM1 7827   2.548  15.398  12.030 -0.0774 -0.0155  0.2915
  668POSM   AM2 7828   2.736  15.384  12.223  0.3104 -0.2148  0.2062
  668POSM   T1A 7829   2.347  15.367  12.501  0.0824  0.0620  0.0177
  668POSM   C2A 7830   2.274  15.404  12.937 -0.1430 -0.2434  0.1050
  668POSM   C3A 7831   2.605  15.431  13.254  0.1335 -0.2577  0.1487
  668POSM   C1B 7832   2.994  15.286  12.406  0.0667  0.2187  0.1815
  668POSM   D2B 7833   3.294  15.141  12.759  0.0392 -0.0477 -0.1891
  668POSM   C3B 7834   3.126  15.427  13.114  0.1104 -0.0519  0.0110
  668POSM   C4B 7835   3.019  15.683  13.467  0.1072  0.0788  0.2249
  669POSM   NC3 7836  10.178  18.840   9.930  0.1600 -0.0266  0.2229
  669POSM   PO4 7837  10.289  19.181  10.085  0.0623 -0.0381  0.0508
  669POSM   AM1 7838  10.393  19.238  10.400 -0.2306 -0.1900 -0.1440
  669POSM   AM2 7839  10.256  19.310  10.617  0.0154  0.0461 -0.2377
  669POSM   T1A 7840  10.809  19.251  10.708  0.2665  0.0737  0.0468
  669POSM   C2A 7841  11.209  19.433  10.747  0.0576 -0.1645 -0.0166
  669POSM   C3A 7842  11.542  19.552  11.047 -0.3233  0.0966  0.2330
  669POSM   C1B 7843  10.198  19.296  10.955  0.2429  0.0622  0.0461
  669POSM   D2B 7844  10.294  19.298  11.409  0.1981  0.2477 -0.2490
  669POSM   C3B 7845  10.721  19.487  11.646 -0.1417 -0.0167  0.1022
  669POSM   C4B 7846  11.174  19.542  11.671  0.3197  0.1077  0.2627
  670DOPS   CNO 7847   9.382  11.715  11.295  0.2515 -0.1306 -0.0468
  670DOPS   PO4 7848   9.679  11.533  11.396 -0.0650  0.1160  0.0652
  670DOPS   GL1 7849   9.746  11.834  11.626  0.1123  0.0312  0.1301
  670DOPS   GL2 7850  10.020  11.776  11.713 -0.0252  0.1125  0.0697
  670DOPS   C1A 7851   9.526  11.770  12.028  0.0630 -0.1057 -0.3271
  670DOPS   D2A 7852   9.607  11.716  12.505 -0.0023  0.1169 -0.0226
  670DOPS   C3A 7853   9.375  11.457  12.696  0.0832  0.1179 -0.0185
  670DOPS   C4A 7854   9.006  11.446  13.014  0.0620  0.1611 -0.1101
  670DOPS   C1B 7855  10.000  11.900  12.133 -0.0693  0.0946 -0.1684
  670DOPS   D2B 7856   9.668  12.166  12.338 -0.2330 -0.0644 -0.0333
  670DOPS   C3B 7857   9.710  12.499  12.574 -0.1069  0.0704 -0.2690
  670DOPS   C4B 7858   9.802  12.933  12.846  0.4225 -0.0081 -0.2240
  671DOPE   NH3 7859   7.241  16.684  10.889 -0.3851 -0.0587  0.0120
  671DOPE   PO4 7860   7.270  16.603  11.202 -0.0053  0.2764  0.2122
  671DOPE   GL1 7861   7.423  16.921  11.509  0.0425  0.2570  0.4064
  671DOPE   GL2 7862   7.476  17.191  11.444 -0.0398  0.0111  0.3099
  671DOPE   C1A 7863   7.824  16.961  11.723 -0.1632  0.1018 -0.4686
  671DOPE   D2A 7864   8.148  17.015  12.062  0.3077 -0.1316 -0.0328
  671DOPE   C3A 7865   8.552  16.783  12.108  0.1070  0.1682 -0.1623
  671DOPE   C4A 7866   8.714  16.411  12.327  0.0222  0.0288 -0.1089
  671DOPE   C1B 7867   7.426  17.217  11.871 -0.0041  0.5027 -0.3404
  671DOPE   D2B 7868   7.538  17.544  12.141 -0.0431 -0.2043 -0.1911
  671DOPE   C3B 7869   7.582  18.006  12.154 -0.0239 -0.1336  0.2987
  671DOPE   C4B 7870   7.541  18.395  12.362 -0.0012  0.1660  0.0173
  672DOPC   NC3 7871   6.188  17.146  11.531 -0.2193 -0.0400  0.1599
  672DOPC   PO4 7872   6.292  17.407  11.292 -0.0852  0.0018  0.1427
  672DOPC   GL1 7873   6.140  17.724  11.513  0.0749  0.2946 -0.1190
  672DOPC   GL2 7874   6.373  17.742  11.704 -0.0187 -0.0128  0.2235
  672DOPC   C1A 7875   5.888  17.697  11.902 -0.0650 -0.3653  0.0377
  672DOPC   D2A 7876   5.821  17.752  12.334  0.2310 -0.1044  0.0113
  672DOPC   C3A 7877   5.816  17.992  12.744 -0.1464 -0.2193 -0.0763
  672DOPC   C4A 7878   5.727  18.349  13.009  0.5676 -0.1544 -0.1242
  672DOPC   C1B 7879   6.245  18.213  11.803  0.2314 -0.0890  0.1113
  672DOPC   D2B 7880   6.296  18.678  11.833  0.1167  0.2579  0.4054
  672DOPC   C3B 7881   6.207  18.729  12.285 -0.0016 -0.1648  0.3489
  672DOPC   C4B 7882   6.096  18.565  12.740 -0.3776 -0.3052  0.0667
  673DOPC   NC3 7883   7.958  18.272  10.682 -0.4007 -0.1213  0.2709
  673DOPC   PO4 7884   7.829  18.616  10.745 -0.1023 -0.0965  0.3621
  673DOPC   GL1 7885   7.886  18.751  11.097  0.3197 -0.1907 -0.1512
  673DOPC   GL2 7886   7.793  19.009  11.266  0.0187  0.0615  0.4105
  673DOPC   C1A 7887   7.958  18.737  11.595 -0.0306 -0.1252  0.2379
  673DOPC   D2A 7888   8.344  18.620  11.850 -0.1445  0.1578 -0.0035
  673DOPC   C3A 7889   8.409  18.546  12.316  0.0162 -0.0773  0.2498
  673DOPC   C4A 7890   8.316  18.849  12.678  0.0059  0.2260 -0.4899
  673DOPC   C1B 7891   7.349  19.141  11.422 -0.0668  0.0084  0.1846
  673DOPC   D2B 7892   7.093  19.540  11.428  0.1946 -0.1716 -0.0396
  673DOPC   C3B 7893   7.073  19.727  11.896  0.1062  0.1102 -0.0999
  673DOPC   C4B 7894   6.872  19.932  12.231  0.3832 -0.1278  0.1618
  674DOPC   NC3 7895   5.549  23.154  10.547 -0.0922 -0.1665  0.1994
  674DOPC   PO4 7896   5.549  22.800  10.378  0.0401 -0.0842 -0.0564
  674DOPC   GL1 7897   5.614  22.684  10.820  0.0901  0.2582 -0.0742
  674DOPC   GL2 7898   5.325  22.698  10.853 -0.0484 -0.0395 -0.1264
  674DOPC   C1A 7899   5.679  22.705  11.283  0.1349 -0.1920  0.1608
  674DOPC   D2A 7900   6.026  23.001  11.497 -0.2601  0.1663 -0.2837
  674DOPC   C3A 7901   6.469  23.017  11.368 -0.2103  0.2854 -0.0190
  674DOPC   C4A 7902   6.571  23.451  11.222 -0.2692 -0.1157  0.1879
  674DOPC   C1B 7903   4.941  22.533  10.955 -0.1792  0.1741  0.2759
  674DOPC   D2B 7904   4.782  22.403  11.324 -0.1057 -0.1223 -0.0235
  674DOPC   C3B 7905   4.929  22.285  11.783  0.4117  0.3882 -0.0940
  674DOPC   C4B 7906   4.788  22.142  12.147  0.2521  0.4945  0.4926
  675DOPE   NH3 7907   7.032  14.785  11.061  0.0916  0.1899 -0.0225
  675DOPE   PO4 7908   7.206  14.599  11.218  0.1348 -0.0543  0.0876
  675DOPE   GL1 7909   7.185  14.691  11.629 -0.3192 -0.0837 -0.0669
  675DOPE   GL2 7910   7.042  14.426  11.678 -0.0350  0.0880  0.1844
  675DOPE   C1A 7911   7.251  14.692  12.099  0.1605 -0.0790  0.1206
  675DOPE   D2A 7912   7.325  14.825  12.518 -0.1106 -0.0911  0.4041
  675DOPE   C3A 7913   7.187  14.867  12.939 -0.5476 -0.0329 -0.0078
  675DOPE   C4A 7914   6.867  14.750  13.221 -0.1307  0.1145  0.0982
  675DOPE   C1B 7915   6.999  14.256  12.088  0.0370 -0.2899 -0.0507
  675DOPE   D2B 7916   7.120  14.408  12.517 -0.1589 -0.0733  0.0095
  675DOPE   C3B 7917   7.435  14.051  12.667 -0.0632  0.2924  0.4998
  675DOPE   C4B 7918   7.819  13.887  12.908  0.0890 -0.1947 -0.0221
  676DOPC   NC3 7919   7.960  19.020  10.415  0.3588  0.3217 -0.0230
  676DOPC   PO4 7920   8.002  19.333  10.641 -0.3343 -0.0326 -0.0010
  676DOPC   GL1 7921   8.004  19.648  10.925  0.2569  0.0536 -0.2319
  676DOPC   GL2 7922   7.762  19.562  11.071  0.1614 -0.0338 -0.0761
  676DOPC   C1A 7923   8.197  19.552  11.385 -0.2992 -0.0655 -0.0227
  676DOPC   D2A 7924   8.298  19.609  11.848  0.1218  0.1399  0.0703
  676DOPC   C3A 7925   7.927  19.684  12.092 -0.3512  0.0823 -0.1010
  676DOPC   C4A 7926   7.511  19.931  12.189 -0.0487  0.1682 -0.2844
  676DOPC   C1B 7927   7.799  19.438  11.509  0.0720  0.0044  0.2237
  676DOPC   D2B 7928   7.922  19.218  11.901  0.2396 -0.0564 -0.2717
  676DOPC   C3B 7929   8.199  19.264  12.246 -0.0209 -0.4029 -0.1138
  676DOPC   C4B 7930   8.256  19.563  12.646 -0.1016 -0.2041  0.0942
  677POSM   NC3 7931   3.631  14.707  11.731 -0.0488 -0.0591 -0.0253
  677POSM   PO4 7932   3.393  14.473  11.897  0.2466 -0.5169  0.1852
  677POSM   AM1 7933   3.303  14.447  12.193 -0.0470  0.2236  0.4050
  677POSM   AM2 7934   3.312  14.267  12.395  0.0732 -0.1625  0.2237
  677POSM   T1A 7935   3.105  14.695  12.568 -0.1143 -0.2081 -0.1149
  677POSM   C2A 7936   3.099  14.582  13.010 -0.2731 -0.2403  0.1036
  677POSM   C3A 7937   3.320  14.705  13.449 -0.0644  0.4258  0.0700
  677POSM   C1B 7938   3.354  14.273  12.680  0.0130 -0.1268  0.2221
  677POSM   D2B 7939   3.616  14.370  13.058 -0.2827  0.0719 -0.1304
  677POSM   C3B 7940   4.028  14.166  13.129 -0.1523  0.0905 -0.1774
  677POSM   C4B 7941   4.238  13.734  13.190 -0.0393 -0.1781  0.1833
  678DOPS   CNO 7942   1.272   8.740  10.972  0.2107  0.2520 -0.0818
  678DOPS   PO4 7943   1.463   8.944  11.269 -0.0911 -0.3230  0.0545
  678DOPS   GL1 7944   1.403   9.054  11.654 -0.0172  0.2768 -0.1612
  678DOPS   GL2 7945   1.663   9.042  11.766 -0.1424  0.1184 -0.0460
  678DOPS   C1A 7946   1.129   8.990  12.023 -0.0327 -0.1853  0.0589
  678DOPS   D2A 7947   1.145   8.953  12.509  0.0082  0.1926  0.0346
  678DOPS   C3A 7948   0.740   9.201  12.431 -0.1084 -0.1197  0.3627
  678DOPS   C4A 7949   0.520   9.589  12.264 -0.3921  0.1891  0.2048
  678DOPS   C1B 7950   1.643   8.976  12.237  0.1416  0.0066  0.1069
  678DOPS   D2B 7951   1.644   8.964  12.663  0.0089  0.0259 -0.0531
  678DOPS   C3B 7952   1.357   8.610  12.793  0.1288  0.0518  0.0253
  678DOPS   C4B 7953   1.238   8.169  12.878 -0.3318 -0.1392  0.1627
  679DOPE   NH3 7954   5.099  18.367  11.625  0.0934  0.0093  0.2207
  679DOPE   PO4 7955   5.373  18.314  11.519  0.2464 -0.0211  0.2841
  679DOPE   GL1 7956   5.450  18.269  11.920 -0.2134 -0.1783  0.2016
  679DOPE   GL2 7957   5.746  18.213  11.956  0.0626 -0.0593 -0.1556
  679DOPE   C1A 7958   5.207  18.582  12.187  0.1123  0.4033  0.1818
  679DOPE   D2A 7959   5.079  18.918  12.542 -0.2832 -0.3149 -0.0517
  679DOPE   C3A 7960   4.787  18.815  12.906 -0.0866  0.3074  0.1375
  679DOPE   C4A 7961   4.936  18.816  13.298 -0.4169 -0.0055  0.2756
  679DOPE   C1B 7962   6.102  18.210  12.272 -0.1517 -0.0075 -0.2425
  679DOPE   D2B 7963   6.448  18.211  12.632  0.1438  0.0035 -0.0279
  679DOPE   C3B 7964   6.751  17.830  12.608 -0.2023 -0.2222 -0.0443
  679DOPE   C4B 7965   7.150  17.644  12.637 -0.0459 -0.0142 -0.0893
  680POSM   NC3 7966   0.028  16.784  10.998  0.0405  0.1819 -0.2604
  680POSM   PO4 7967   0.042  16.872  11.429 -0.1051 -0.3865  0.1083
  680POSM   AM1 7968  -0.099  17.100  11.645  0.0546 -0.3650 -0.1576
  680POSM   AM2 7969  -0.363  17.080  11.740  0.1346 -0.0010 -0.0693
  680POSM   T1A 7970  -0.215  17.463  11.970 -0.4159 -0.1014 -0.1474
  680POSM   C2A 7971  -0.095  17.899  11.991 -0.1405 -0.1196 -0.2015
  680POSM   C3A 7972  -0.003  18.062  12.389  0.1045  0.3864 -0.1256
  680POSM   C1B 7973  -0.385  16.919  12.061  0.2073 -0.0357 -0.1816
  680POSM   D2B 7974  -0.331  17.019  12.444  0.0688 -0.3224 -0.1487
  680POSM   C3B 7975  -0.458  17.116  12.884  0.0642 -0.0890  0.1196
  680POSM   C4B 7976  -0.359  17.353  13.226 -0.3045 -0.0501 -0.2674
  681DOPC   NC3 7977   5.207  22.144  10.682 -0.0515 -0.0329 -0.0064
  681DOPC   PO4 7978   4.901  21.967  10.506 -0.0860 -0.1734  0.2584
  681DOPC   GL1 7979   4.908  21.799  10.877  0.4457 -0.1048 -0.1228
  681DOPC   GL2 7980   4.900  22.043  11.085 -0.2793  0.0759  0.1420
  681DOPC   C1A 7981   5.374  21.703  11.008 -0.0492 -0.4645  0.0859
  681DOPC   D2A 7982   5.506  21.391  11.265 -0.3451 -0.0245  0.1703
  681DOPC   C3A 7983   5.468  21.374  11.739  0.2044  0.0200  0.0139
  681DOPC   C4A 7984   5.295  21.059  12.009 -0.1484 -0.2148 -0.1600
  681DOPC   C1B 7985   5.267  22.229  11.320  0.0115  0.1312 -0.0755
  681DOPC   D2B 7986   5.425  22.500  11.704  0.1316  0.0606 -0.2236
  681DOPC   C3B 7987   5.553  22.930  11.679  0.0846 -0.2928  0.1508
  681DOPC   C4B 7988   5.665  23.374  11.617 -0.0576  0.0098  0.0663
  682DOPS   CNO 7989   3.633  11.774  11.404 -0.1802 -0.0072 -0.0458
  682DOPS   PO4 7990   3.680  12.140  11.341  0.1361 -0.3442 -0.1240
  682DOPS   GL1 7991   3.754  12.088  11.716 -0.1070  0.1363 -0.0394
  682DOPS   GL2 7992   3.580  12.267  11.824  0.0432 -0.0048  0.1612
  682DOPS   C1A 7993   3.952  11.964  12.117  0.2685  0.1831  0.0970
  682DOPS   D2A 7994   3.605  11.871  12.394  0.2795 -0.1171  0.0133
  682DOPS   C3A 7995   3.648  11.786  12.864  0.0437  0.0977  0.3310
  682DOPS   C4A 7996   3.900  11.747  13.253 -0.2782  0.0365 -0.1963
  682DOPS   C1B 7997   3.609  12.393  12.259 -0.2187  0.0998  0.2337
  682DOPS   D2B 7998   3.973  12.589  12.515 -0.3087  0.0969  0.0066
  682DOPS   C3B 7999   3.808  12.746  12.957 -0.0216 -0.0784  0.0056
  682DOPS   C4B 8000   3.685  12.629  13.380  0.0453  0.0468 -0.2977
  683DOPC   NC3 8001   4.435  14.453  12.012  0.3301  0.1069 -0.2339
  683DOPC   PO4 8002   4.125  14.504  11.768 -0.0175  0.3035  0.1023
  683DOPC   GL1 8003   4.092  14.667  12.193 -0.0775  0.2152 -0.1267
  683DOPC   GL2 8004   3.986  14.394  12.273  0.1518 -0.1496  0.1316
  683DOPC   C1A 8005   4.084  14.717  12.673 -0.2407  0.0488  0.1916
  683DOPC   D2A 8006   4.333  14.574  13.083  0.2175 -0.0843  0.1284
  683DOPC   C3A 8007   4.158  14.589  13.490  0.1596  0.1299 -0.1173
  683DOPC   C4A 8008   3.753  14.673  13.719 -0.1364  0.0446 -0.4227
  683DOPC   C1B 8009   4.272  14.266  12.603  0.0483 -0.0165 -0.0656
  683DOPC   D2B 8010   4.559  13.933  12.758  0.1204 -0.2826 -0.0115
  683DOPC   C3B 8011   4.627  13.709  12.371  0.1437 -0.1062 -0.0896
  683DOPC   C4B 8012   4.694  13.273  12.287 -0.0474  0.3011  0.0560
  684DOPC   NC3 8013   6.577  15.621  11.450 -0.0601 -0.3618  0.1242
  684DOPC   PO4 8014   6.256  15.811  11.301  0.0339  0.0384  0.0423
  684DOPC   GL1 8015   6.154  15.772  11.660  0.0594 -0.0622 -0.0956
  684DOPC   GL2 8016   6.084  15.466  11.677 -0.0837  0.1171  0.1014
  684DOPC   C1A 8017   6.409  15.854  12.075 -0.0659  0.0740  0.1011
  684DOPC   D2A 8018   6.652  15.836  12.490  0.1830 -0.3938 -0.2228
  684DOPC   C3A 8019   7.106  15.669  12.599 -0.0666 -0.0602 -0.0884
  684DOPC   C4A 8020   7.411  15.365  12.702  0.3743 -0.0823  0.0169
  684DOPC   C1B 8021   6.267  15.337  12.047  0.0297 -0.4754  0.0102
  684DOPC   D2B 8022   6.531  15.384  12.425 -0.0600  0.2206 -0.4222
  684DOPC   C3B 8023   6.447  15.177  12.817 -0.0922  0.1782 -0.0989
  684DOPC   C4B 8024   6.462  15.106  13.290 -0.0940 -0.0974 -0.2098
  685DOPE   NH3 8025   6.409  11.712  11.166  0.0453 -0.0264 -0.2076
  685DOPE   PO4 8026   6.687  11.745  11.320  0.2062  0.0425  0.0111
  685DOPE   GL1 8027   6.749  11.491  11.640 -0.0663  0.0913  0.2073
  685DOPE   GL2 8028   6.843  11.636  11.930 -0.1488  0.3037  0.2096
  685DOPE   C1A 8029   6.359  11.337  11.857  0.0289  0.0071 -0.1302
  685DOPE   D2A 8030   6.414  11.526  12.266 -0.1481 -0.2261  0.2740
  685DOPE   C3A 8031   6.044  11.507  12.566 -0.2882 -0.0766 -0.0685
  685DOPE   C4A 8032   6.000  11.528  12.993 -0.0286 -0.1143 -0.1035
  685DOPE   C1B 8033   6.985  11.593  12.348 -0.1665  0.0403 -0.0214
  685DOPE   D2B 8034   7.082  11.347  12.747 -0.1748  0.2488 -0.2226
  685DOPE   C3B 8035   7.364  11.042  12.837  0.1660  0.2245 -0.0232
  685DOPE   C4B 8036   7.320  10.601  12.939  0.2030 -0.2888  0.3322
  686DOPC   NC3 8037   2.200  14.711  11.692 -0.1850  0.2101 -0.0980
  686DOPC   PO4 8038   2.275  14.334  11.730  0.1552 -0.0093  0.1754
  686DOPC   GL1 8039   2.511  14.602  12.012  0.3053  0.0311 -0.1435
  686DOPC   GL2 8040   2.566  14.368  12.208 -0.2230  0.1693  0.4163
  686DOPC   C1A 8041   2.694  14.878  12.320 -0.0530  0.2086  0.1675
  686DOPC   D2A 8042   2.733  15.062  12.734  0.0547 -0.0012 -0.0800
  686DOPC   C3A 8043   2.710  15.496  12.794 -0.1044  0.1791 -0.6059
  686DOPC   C4A 8044   2.753  15.807  12.467  0.2221  0.0217 -0.1720
  686DOPC   C1B 8045   2.336  14.509  12.557  0.0310 -0.1616  0.2556
  686DOPC   D2B 8046   2.383  14.692  13.000  0.0379  0.0111 -0.1368
  686DOPC   C3B 8047   2.822  14.916  13.174 -0.1070  0.3151 -0.1586
  686DOPC   C4B 8048   2.887  15.049  13.584 -0.1855 -0.0645 -0.1793
  687DOPC   NC3 8049  10.472  26.628   9.899 -0.0021 -0.3208  0.1991
  687DOPC   PO4 8050  10.751  26.680  10.148  0.0825  0.0742  0.2397
  687DOPC   GL1 8051  10.516  26.399  10.336 -0.4259 -0.0473 -0.2051
  687DOPC   GL2 8052  10.696  26.217  10.402 -0.2460  0.1683  0.2688
  687DOPC   C1A 8053  10.260  26.371  10.733  0.2966  0.1189 -0.0957
  687DOPC   D2A 8054  10.174  26.235  11.164  0.0621 -0.1690 -0.1630
  687DOPC   C3A 8055   9.829  25.896  11.257 -0.2761 -0.1874 -0.0739
  687DOPC   C4A 8056   9.611  25.739  11.656  0.1904 -0.0130 -0.1548
  687DOPC   C1B 8057  10.594  26.031  10.853  0.1876  0.1410  0.3822
  687DOPC   D2B 8058  10.604  26.083  11.319 -0.1409  0.4051  0.0093
  687DOPC   C3B 8059  10.776  25.885  11.726  0.2237 -0.1572  0.1386
  687DOPC   C4B 8060  10.915  25.547  12.050 -0.0484 -0.0889  0.3813
  688POSM   NC3 8061   4.188  22.484   9.983  0.0387  0.0356 -0.4948
  688POSM   PO4 8062   4.108  22.308  10.334 -0.1330  0.1529  0.0985
  688POSM   AM1 8063   4.168  22.258  10.677  0.0608  0.1640 -0.0593
  688POSM   AM2 8064   4.047  22.138  10.965  0.2880 -0.0002  0.0742
  688POSM   T1A 8065   4.371  22.501  11.079  0.0981 -0.0324 -0.0896
  688POSM   C2A 8066   4.481  22.846  11.334 -0.2228  0.0926 -0.2213
  688POSM   C3A 8067   4.606  23.227  11.560 -0.1562 -0.0733 -0.1729
  688POSM   C1B 8068   4.058  22.056  11.317  0.1181 -0.0717  0.0026
  688POSM   D2B 8069   4.216  21.708  11.657  0.2964  0.1047 -0.1050
  688POSM   C3B 8070   4.393  21.869  12.015 -0.0319 -0.1066 -0.0538
  688POSM   C4B 8071   4.579  21.846  12.486 -0.0613  0.2276  0.0798
  689DOPE   NH3 8072   5.279  16.709  11.607 -0.0394 -0.1640  0.0785
  689DOPE   PO4 8073   5.435  16.952  11.436  0.0245 -0.0945 -0.0260
  689DOPE   GL1 8074   5.412  17.197  11.832 -0.1300  0.2605  0.1573
  689DOPE   GL2 8075   5.786  17.107  11.844  0.2904  0.0684 -0.1326
  689DOPE   C1A 8076   5.473  17.269  12.272 -0.3247 -0.2279 -0.1459
  689DOPE   D2A 8077   5.478  17.347  12.749 -0.1014  0.2010 -0.0764
  689DOPE   C3A 8078   5.578  17.714  13.020 -0.1465 -0.1810  0.0858
  689DOPE   C4A 8079   5.979  17.857  13.222  0.0421 -0.0911  0.0784
  689DOPE   C1B 8080   5.993  17.270  12.255 -0.0232  0.3068 -0.3073
  689DOPE   D2B 8081   6.255  17.568  12.409 -0.1891  0.3504  0.2394
  689DOPE   C3B 8082   6.488  17.835  12.159 -0.1420  0.2531 -0.2807
  689DOPE   C4B 8083   6.770  18.244  12.295 -0.2791  0.1731  0.1674
  690DOPS   CNO 8084   9.757  15.197  10.952 -0.0048 -0.0651 -0.2498
  690DOPS   PO4 8085   9.451  14.949  10.936 -0.0133  0.5355  0.1068
  690DOPS   GL1 8086   9.535  14.818  11.226  0.1098 -0.2935  0.0903
  690DOPS   GL2 8087   9.450  14.553  11.281  0.3767  0.1152  0.0906
  690DOPS   C1A 8088   9.590  15.106  11.614  0.1081  0.2474  0.1495
  690DOPS   D2A 8089   9.498  15.077  11.984  0.1421 -0.2172  0.2285
  690DOPS   C3A 8090   9.084  15.085  12.250 -0.0105  0.2187  0.1091
  690DOPS   C4A 8091   8.755  15.048  11.946  0.0557  0.1412 -0.0602
  690DOPS   C1B 8092   9.562  14.465  11.722  0.1892 -0.1072  0.5249
  690DOPS   D2B 8093   9.717  14.579  12.154  0.2313  0.1154 -0.1336
  690DOPS   C3B 8094   9.626  14.903  12.469 -0.0381 -0.0097  0.0389
  690DOPS   C4B 8095   9.351  15.072  12.819 -0.0131 -0.0331  0.1461
  691DOPC   NC3 8096   3.067  21.958  10.867 -0.3065  0.0401 -0.0371
  691DOPC   PO4 8097   2.762  21.698  10.835  0.1796 -0.0576 -0.1845
  691DOPC   GL1 8098   2.801  21.659  11.194  0.2133  0.2262  0.3216
  691DOPC   GL2 8099   2.996  21.812  11.346  0.0872  0.1951 -0.3138
  691DOPC   C1A 8100   2.513  21.615  11.533 -0.0203  0.2565 -0.1262
  691DOPC   D2A 8101   2.603  21.342  11.915  0.1472  0.2760  0.0796
  691DOPC   C3A 8102   2.814  21.489  12.354 -0.4129  0.1219 -0.2266
  691DOPC   C4A 8103   3.151  21.481  12.679  0.0787  0.3383 -0.2851
  691DOPC   C1B 8104   3.249  21.923  11.696 -0.3024  0.1253 -0.0007
  691DOPC   D2B 8105   3.308  21.836  12.175  0.2352 -0.0170  0.0560
  691DOPC   C3B 8106   3.046  21.925  12.525 -0.1290  0.0606  0.3939
  691DOPC   C4B 8107   2.872  22.185  12.885  0.0454 -0.1514  0.1376
  692DOPE   NH3 8108  34.148  15.593  11.512  0.0531  0.0930  0.2306
  692DOPE   PO4 8109  34.255  15.721  11.751  0.0202 -0.1648 -0.0647
  692DOPE   GL1 8110  34.354  15.639  12.128  0.1881 -0.1302 -0.1831
  692DOPE   GL2 8111  34.366  15.825  12.307  0.2680 -0.0015  0.2440
  692DOPE   C1A 8112  34.184  15.226  12.333 -0.1036  0.1043  0.0496
  692DOPE   D2A 8113  34.224  14.821  12.552  0.1418  0.0355 -0.0583
  692DOPE   C3A 8114  34.004  14.427  12.428 -0.0337 -0.4348  0.3488
  692DOPE   C4A 8115  33.742  14.087  12.540 -0.0201 -0.5049  0.1681
  692DOPE   C1B 8116  34.167  15.918  12.669 -0.0149  0.2462  0.3344
  692DOPE   D2B 8117  33.940  15.826  13.102 -0.0807  0.0709  0.2121
  692DOPE   C3B 8118  34.059  15.795  13.533  0.3916 -0.1016 -0.1041
  692DOPE   C4B 8119  34.090  15.936  13.967 -0.0401  0.2001 -0.0879
  693DOPE   NH3 8120   5.238  20.719  10.915  0.1827  0.2467 -0.2472
  693DOPE   PO4 8121   5.304  20.913  11.140 -0.0770 -0.2778 -0.1758
  693DOPE   GL1 8122   5.353  20.921  11.554  0.0438  0.0418 -0.1024
  693DOPE   GL2 8123   5.669  20.958  11.539  0.0353  0.0709 -0.0561
  693DOPE   C1A 8124   5.537  20.644  11.919 -0.1627  0.1153 -0.3250
  693DOPE   D2A 8125   5.648  20.268  12.173 -0.1060 -0.0985  0.0550
  693DOPE   C3A 8126   5.711  20.081  12.571  0.3573 -0.0732 -0.0172
  693DOPE   C4A 8127   5.539  19.959  12.985 -0.1274 -0.3079 -0.2483
  693DOPE   C1B 8128   5.905  21.141  11.883  0.1729 -0.1588  0.1089
  693DOPE   D2B 8129   6.060  21.452  12.186  0.1571 -0.1681 -0.2591
  693DOPE   C3B 8130   6.369  21.807  12.169  0.1004  0.2729 -0.3610
  693DOPE   C4B 8131   6.643  21.898  12.496 -0.2821 -0.0351  0.0382
  694POSM   NC3 8132   9.345  19.031   9.806  0.0539 -0.1422 -0.1659
  694POSM   PO4 8133   9.355  18.988  10.217 -0.1425  0.0705  0.1492
  694POSM   AM1 8134   9.446  19.007  10.544 -0.1012  0.3559  0.1949
  694POSM   AM2 8135   9.593  18.819  10.753 -0.2018  0.0314  0.1910
  694POSM   T1A 8136   9.352  19.241  10.971  0.0787  0.3160 -0.1202
  694POSM   C2A 8137   9.386  19.487  11.317 -0.1411 -0.1303  0.1101
  694POSM   C3A 8138   9.333  19.507  11.769  0.0954  0.1719 -0.2047
  694POSM   C1B 8139   9.581  18.775  11.088  0.0031  0.2457  0.0654
  694POSM   D2B 8140   9.468  18.476  11.416  0.0605  0.0432  0.2076
  694POSM   C3B 8141   9.020  18.352  11.404  0.0950  0.1227  0.0132
  694POSM   C4B 8142   8.732  18.250  11.735 -0.0043  0.0363  0.0295
  695POSM   NC3 8143  12.233  24.220   9.505 -0.0950 -0.0240  0.2658
  695POSM   PO4 8144  12.059  24.360   9.841 -0.2141  0.1473  0.1825
  695POSM   AM1 8145  11.837  24.397  10.103 -0.0517 -0.2325  0.4843
  695POSM   AM2 8146  11.849  24.329  10.396  0.2550 -0.0310  0.0453
  695POSM   T1A 8147  11.508  24.689  10.375  0.2139 -0.2128  0.0492
  695POSM   C2A 8148  11.331  24.798  10.778  0.1270 -0.1726 -0.0747
  695POSM   C3A 8149  11.208  25.051  11.147  0.0836 -0.1097  0.3649
  695POSM   C1B 8150  12.048  24.349  10.682 -0.1587 -0.1999 -0.0274
  695POSM   D2B 8151  12.306  24.490  11.084 -0.0643 -0.2121 -0.0675
  695POSM   C3B 8152  12.031  24.426  11.428  0.0532  0.2307 -0.1031
  695POSM   C4B 8153  11.678  24.282  11.688 -0.1862 -0.0907  0.2081
  696DOPC   NC3 8154   2.488  16.746  11.908 -0.2333  0.1457 -0.3565
  696DOPC   PO4 8155   2.379  16.646  12.274 -0.1003  0.2012 -0.1570
  696DOPC   GL1 8156   2.110  16.586  12.662 -0.0794  0.6051 -0.0157
  696DOPC   GL2 8157   2.215  16.346  12.807  0.1327 -0.0383 -0.0728
  696DOPC   C1A 8158   1.670  16.639  12.838 -0.1253  0.2229 -0.1039
  696DOPC   D2A 8159   1.572  16.867  13.302  0.2388 -0.0775  0.0107
  696DOPC   C3A 8160   1.296  16.810  13.635 -0.0581  0.1664 -0.0761
  696DOPC   C4A 8161   1.056  17.154  13.924 -0.2004 -0.0952 -0.0959
  696DOPC   C1B 8162   2.127  16.648  13.111  0.0687  0.0089  0.0670
  696DOPC   D2B 8163   2.093  16.852  13.473  0.0385  0.3200 -0.0901
  696DOPC   C3B 8164   2.062  17.308  13.461  0.2015  0.0278 -0.0135
  696DOPC   C4B 8165   1.994  17.748  13.504  0.2446  0.3740 -0.0548
  697DOPC   NC3 8166   7.005  20.315  10.789 -0.3573 -0.1278 -0.0144
  697DOPC   PO4 8167   6.804  19.963  10.837  0.0867 -0.2943  0.2483
  697DOPC   GL1 8168   6.818  19.929  11.274 -0.0344  0.1619 -0.3262
  697DOPC   GL2 8169   7.038  20.206  11.248  0.0087 -0.0536  0.2291
  697DOPC   C1A 8170   6.468  19.973  11.565 -0.0848 -0.2001 -0.2693
  697DOPC   D2A 8171   6.103  20.144  11.879 -0.1835 -0.0030 -0.1763
  697DOPC   C3A 8172   6.148  20.284  12.319 -0.0653 -0.1069 -0.2934
  697DOPC   C4A 8173   6.354  20.624  12.398 -0.0610 -0.1037  0.2287
  697DOPC   C1B 8174   6.926  20.154  11.686 -0.0416 -0.1611  0.2150
  697DOPC   D2B 8175   6.618  20.344  12.051  0.0642  0.1092  0.1974
  697DOPC   C3B 8176   6.669  20.278  12.575  0.0593  0.0689 -0.0068
  697DOPC   C4B 8177   6.447  20.566  12.883 -0.1053  0.0372 -0.1483
  698DOPC   NC3 8178   8.480  17.145  10.507  0.1623 -0.2006 -0.0107
  698DOPC   PO4 8179   8.857  17.224  10.345  0.3030 -0.0926  0.0410
  698DOPC   GL1 8180   8.907  17.280  10.798 -0.5592 -0.0802 -0.2401
  698DOPC   GL2 8181   8.836  17.596  10.850 -0.0880  0.3028  0.0536
  698DOPC   C1A 8182   8.698  17.025  11.147 -0.1458 -0.0076 -0.0712
  698DOPC   D2A 8183   8.504  16.637  11.330  0.3195 -0.0282 -0.0969
  698DOPC   C3A 8184   8.183  16.709  11.612 -0.2148  0.2628  0.1042
  698DOPC   C4A 8185   7.867  16.410  11.829 -0.3007  0.1208 -0.1420
  698DOPC   C1B 8186   9.186  17.713  11.081  0.2702 -0.0549 -0.2459
  698DOPC   D2B 8187   9.591  17.844  11.146 -0.1538  0.1259  0.4064
  698DOPC   C3B 8188   9.854  17.757  11.500  0.4473 -0.0174 -0.0144
  698DOPC   C4B 8189   9.933  17.541  11.888 -0.1784 -0.1485  0.1806
  699POSM   NC3 8190   4.293  14.108  11.488 -0.1992 -0.1621  0.0699
  699POSM   PO4 8191   4.656  14.204  11.583 -0.4464 -0.2060 -0.0786
  699POSM   AM1 8192   4.828  14.242  11.845  0.1978 -0.0000 -0.3504
  699POSM   AM2 8193   5.143  14.253  11.943 -0.1284  0.0099  0.2193
  699POSM   T1A 8194   4.787  14.138  12.306  0.1276 -0.1178  0.1670
  699POSM   C2A 8195   4.775  14.443  12.613  0.0080  0.0417  0.0126
  699POSM   C3A 8196   4.785  14.819  12.931  0.1783 -0.0377  0.1009
  699POSM   C1B 8197   5.283  14.329  12.240 -0.1538  0.1351  0.1230
  699POSM   D2B 8198   5.284  14.385  12.693  0.1258  0.4942  0.2629
  699POSM   C3B 8199   5.030  14.408  13.094  0.3515 -0.2269 -0.0425
  699POSM   C4B 8200   4.881  14.711  13.409  0.4299  0.0780  0.0807
  700DOPC   NC3 8201   0.161  21.049  10.321  0.2529  0.0852  0.3077
  700DOPC   PO4 8202   0.344  20.715  10.372 -0.0114  0.0478  0.2376
  700DOPC   GL1 8203   0.229  20.802  10.796  0.0415 -0.2796  0.0379
  700DOPC   GL2 8204   0.245  21.092  10.889 -0.2728  0.1140  0.0206
  700DOPC   C1A 8205   0.551  20.636  11.125  0.2761 -0.2943  0.4122
  700DOPC   D2A 8206   0.718  20.793  11.531 -0.2955  0.0342 -0.0708
  700DOPC   C3A 8207   0.452  20.793  11.908 -0.0148 -0.0832 -0.1062
  700DOPC   C4A 8208   0.147  20.957  12.208  0.3980  0.2186 -0.2587
  700DOPC   C1B 8209  -0.090  20.986  11.132  0.1584  0.1667  0.0696
  700DOPC   D2B 8210  -0.323  20.680  11.385  0.0068 -0.0942  0.1557
  700DOPC   C3B 8211  -0.236  20.748  11.826  0.0342  0.1062  0.2668
  700DOPC   C4B 8212  -0.415  20.578  12.188 -0.1883  0.0653  0.1874
  701POSM   NC3 8213   9.995  18.189   9.843  0.0136 -0.0640  0.4070
  701POSM   PO4 8214  10.071  18.405  10.175  0.1278 -0.3851  0.0789
  701POSM   AM1 8215  10.248  18.561  10.394 -0.1466 -0.1384  0.0333
  701POSM   AM2 8216  10.411  18.770  10.392  0.1259  0.0151  0.1148
  701POSM   T1A 8217  10.101  18.748  10.825 -0.1542  0.0724  0.0891
  701POSM   C2A 8218  10.191  18.714  11.263 -0.0279  0.0920 -0.3805
  701POSM   C3A 8219  10.151  18.565  11.711  0.1596  0.0001  0.1338
  701POSM   C1B 8220  10.599  18.788  10.677 -0.4960  0.0381 -0.2572
  701POSM   D2B 8221  10.597  18.948  11.066 -0.0293 -0.2001  0.0512
  701POSM   C3B 8222  10.833  19.349  11.185 -0.3186 -0.1116  0.3017
  701POSM   C4B 8223  11.071  19.724  11.212  0.2485 -0.0514 -0.0323
  702DOPS   CNO 8224   9.112  11.321  10.941  0.0459  0.1076 -0.1503
  702DOPS   PO4 8225   9.057  11.040  11.197  0.0573 -0.2606  0.2197
  702DOPS   GL1 8226   9.124  11.134  11.535 -0.2315 -0.1028  0.0534
  702DOPS   GL2 8227   8.922  11.024  11.669  0.0435 -0.0565 -0.5824
  702DOPS   C1A 8228   9.195  11.415  11.887  0.3161  0.0493 -0.2458
  702DOPS   D2A 8229   9.042  11.551  12.343 -0.2974 -0.0144 -0.0987
  702DOPS   C3A 8230   8.783  11.369  12.596 -0.0031 -0.0076 -0.1150
  702DOPS   C4A 8231   8.554  11.679  12.822  0.0839  0.1076  0.0149
  702DOPS   C1B 8232   8.561  11.101  11.863  0.4520  0.0844 -0.1446
  702DOPS   D2B 8233   8.162  11.171  12.032  0.1541 -0.1746  0.0571
  702DOPS   C3B 8234   8.093  10.848  12.367 -0.1508 -0.0126  0.0246
  702DOPS   C4B 8235   7.870  10.800  12.756 -0.0669  0.2463 -0.2230
  703DOPC   NC3 8236   4.929  17.433  11.955  0.0643  0.0787 -0.1373
  703DOPC   PO4 8237   4.569  17.386  11.975  0.2614  0.0361 -0.0821
  703DOPC   GL1 8238   4.618  17.140  12.312 -0.0866 -0.2308  0.0539
  703DOPC   GL2 8239   4.609  17.363  12.455 -0.0856  0.0561 -0.0117
  703DOPC   C1A 8240   4.677  17.041  12.811 -0.1972 -0.2971  0.3250
  703DOPC   D2A 8241   4.739  16.863  13.253 -0.0969 -0.3686  0.0749
  703DOPC   C3A 8242   4.858  16.389  13.179 -0.2705 -0.2705  0.1766
  703DOPC   C4A 8243   5.241  16.122  13.134  0.0028 -0.3654 -0.1233
  703DOPC   C1B 8244   5.054  17.459  12.452 -0.0805  0.0532 -0.0545
  703DOPC   D2B 8245   5.315  17.816  12.589 -0.1143 -0.1634 -0.1449
  703DOPC   C3B 8246   5.182  18.063  12.962  0.0720  0.3288  0.1987
  703DOPC   C4B 8247   4.876  18.140  13.354 -0.0826  0.1886  0.1967
  704DOPS   CNO 8248   2.081  18.751  10.895 -0.1328  0.0020  0.1375
  704DOPS   PO4 8249   2.149  18.842  11.263  0.0585 -0.2657  0.3054
  704DOPS   GL1 8250   1.773  18.889  11.494 -0.2269 -0.4281  0.1691
  704DOPS   GL2 8251   1.477  18.955  11.397 -0.1099  0.1590 -0.1967
  704DOPS   C1A 8252   1.710  18.844  11.971 -0.2570 -0.1563  0.0090
  704DOPS   D2A 8253   1.611  18.681  12.372  0.0641  0.1967 -0.1585
  704DOPS   C3A 8254   2.102  18.739  12.470 -0.0011 -0.0667  0.1368
  704DOPS   C4A 8255   2.462  18.703  12.733  0.2266 -0.0132 -0.1636
  704DOPS   C1B 8256   1.339  19.144  11.836 -0.2933  0.1656 -0.0131
  704DOPS   D2B 8257   1.580  19.348  12.161 -0.0439 -0.1036  0.1790
  704DOPS   C3B 8258   1.695  19.103  12.546  0.0682  0.0353 -0.0838
  704DOPS   C4B 8259   1.437  19.067  12.929 -0.1016 -0.0367  0.1905
  705DOPE   NH3 8260   6.062  22.150  10.728 -0.1532 -0.2859 -0.2885
  705DOPE   PO4 8261   5.745  22.208  10.764 -0.1912 -0.2991 -0.0994
  705DOPE   GL1 8262   5.749  22.139  11.216  0.1510 -0.0678  0.2453
  705DOPE   GL2 8263   5.942  21.892  11.276  0.2384 -0.1759 -0.0046
  705DOPE   C1A 8264   5.849  22.221  11.670 -0.0802 -0.1395 -0.3880
  705DOPE   D2A 8265   5.893  22.050  12.105 -0.2442 -0.0698  0.0217
  705DOPE   C3A 8266   5.624  21.783  12.362 -0.1677  0.1949  0.3452
  705DOPE   C4A 8267   5.382  21.604  12.694 -0.2442 -0.0838 -0.0474
  705DOPE   C1B 8268   5.558  21.828  11.482 -0.2521 -0.0451 -0.1195
  705DOPE   D2B 8269   5.190  21.883  11.701  0.3553 -0.0218 -0.1464
  705DOPE   C3B 8270   5.328  22.085  12.089  0.0113 -0.1864 -0.0802
  705DOPE   C4B 8271   5.215  22.550  12.178 -0.1743  0.2505 -0.4265
  706DOPE   NH3 8272  10.308  11.306  11.298  0.3721 -0.0958  0.1212
  706DOPE   PO4 8273  10.506  11.521  11.399  0.0349  0.1542  0.0198
  706DOPE   GL1 8274  10.431  11.300  11.734 -0.3194  0.3066  0.1104
  706DOPE   GL2 8275  10.176  11.269  11.842  0.1520  0.0654  0.1328
  706DOPE   C1A 8276  10.490  11.574  12.166 -0.3705  0.2929 -0.1169
  706DOPE   D2A 8277  10.731  11.793  12.501  0.1212 -0.2553 -0.0690
  706DOPE   C3A 8278  10.699  11.564  12.890  0.1359 -0.3279 -0.2962
  706DOPE   C4A 8279  10.674  11.370  13.315  0.1282  0.1750  0.0250
  706DOPE   C1B 8280   9.970  11.429  12.205  0.2013  0.3132 -0.4293
  706DOPE   D2B 8281   9.855  11.316  12.638 -0.2332 -0.0871 -0.0300
  706DOPE   C3B 8282   9.770  11.665  12.987  0.2457  0.0789  0.0178
  706DOPE   C4B 8283   9.868  12.093  12.976 -0.1983 -0.0390 -0.1379
  707DOPE   NH3 8284   6.594  16.744  11.734 -0.2496 -0.2785  0.2639
  707DOPE   PO4 8285   6.314  16.681  11.674  0.0812  0.0138  0.1217
  707DOPE   GL1 8286   6.226  16.737  12.053  0.0914  0.0745 -0.0010
  707DOPE   GL2 8287   6.463  16.591  12.203  0.0277 -0.1303  0.0820
  707DOPE   C1A 8288   6.028  16.656  12.458  0.1196  0.1973 -0.0414
  707DOPE   D2A 8289   5.871  17.044  12.719  0.2500  0.0491  0.0864
  707DOPE   C3A 8290   5.947  17.535  12.779 -0.1934  0.1854 -0.0484
  707DOPE   C4A 8291   6.310  17.787  12.846  0.1110  0.2737  0.3198
  707DOPE   C1B 8292   6.933  16.690  12.217  0.0847 -0.2037  0.0449
  707DOPE   D2B 8293   7.299  16.560  12.435 -0.0350  0.0652  0.2986
  707DOPE   C3B 8294   7.524  16.676  12.757 -0.0752  0.4080  0.2052
  707DOPE   C4B 8295   7.647  16.963  13.118  0.2257  0.1358 -0.0940
  708DOPC   NC3 8296   5.768  14.873  11.349 -0.1289  0.0416 -0.1403
  708DOPC   PO4 8297   5.641  15.218  11.503 -0.0426 -0.0953  0.3328
  708DOPC   GL1 8298   5.625  15.292  11.827  0.0709 -0.3647  0.1727
  708DOPC   GL2 8299   5.403  15.275  12.053 -0.2592 -0.1696  0.0379
  708DOPC   C1A 8300   5.887  15.043  12.104  0.0587  0.2036  0.1643
  708DOPC   D2A 8301   6.248  14.951  12.404 -0.0361  0.1328  0.0211
  708DOPC   C3A 8302   6.078  14.657  12.721 -0.0762  0.1353  0.1835
  708DOPC   C4A 8303   5.697  14.401  12.849  0.1987  0.0686  0.0524
  708DOPC   C1B 8304   5.691  15.500  12.353 -0.0922 -0.2036  0.0695
  708DOPC   D2B 8305   5.817  15.908  12.584  0.0111  0.5881 -0.0844
  708DOPC   C3B 8306   5.743  16.128  12.988 -0.2250  0.3568 -0.1136
  708DOPC   C4B 8307   5.618  16.386  13.391  0.2089  0.1504  0.0030
  709DOPS   CNO 8308  11.202  20.331   9.843 -0.0694 -0.0594  0.2555
  709DOPS   PO4 8309  11.358  20.016   9.950 -0.0168 -0.1615 -0.2797
  709DOPS   GL1 8310  11.187  19.855  10.370  0.4373 -0.1598 -0.0072
  709DOPS   GL2 8311  10.939  19.741  10.360 -0.1476  0.1482 -0.1335
  709DOPS   C1A 8312  11.292  20.020  10.760  0.1761  0.3698 -0.3782
  709DOPS   D2A 8313  11.383  20.156  11.141 -0.2673 -0.3324 -0.0302
  709DOPS   C3A 8314  11.510  19.914  11.503 -0.4472 -0.0310  0.0496
  709DOPS   C4A 8315  11.626  19.729  11.912 -0.2432 -0.1681 -0.0736
  709DOPS   C1B 8316  10.750  19.729  10.824  0.3465 -0.1661  0.1215
  709DOPS   D2B 8317  10.364  19.753  11.082 -0.0971  0.0401  0.0156
  709DOPS   C3B 8318  10.209  19.844  11.517  0.1451 -0.4075  0.2001
  709DOPS   C4B 8319  10.123  19.900  11.990 -0.0071 -0.0031 -0.0609
  710DOPS   CNO 8320   6.056  23.197  10.005  0.0156 -0.1276  0.1258
  710DOPS   PO4 8321   6.000  23.012  10.297  0.4834  0.0629 -0.2402
  710DOPS   GL1 8322   6.032  23.117  10.635  0.2974  0.0116 -0.1488
  710DOPS   GL2 8323   5.896  23.029  10.903  0.2024  0.2640  0.0443
  710DOPS   C1A 8324   6.473  23.149  10.857  0.0721  0.2201 -0.0397
  710DOPS   D2A 8325   6.862  23.005  10.983 -0.0950  0.1997 -0.0697
  710DOPS   C3A 8326   6.974  23.129  11.406 -0.1195 -0.1737 -0.1684
  710DOPS   C4A 8327   7.231  23.470  11.608  0.3118 -0.2558 -0.0219
  710DOPS   C1B 8328   5.554  23.208  11.191 -0.2404 -0.1631 -0.0072
  710DOPS   D2B 8329   5.153  23.439  11.362  0.1005  0.0231  0.0800
  710DOPS   C3B 8330   5.148  23.273  11.763 -0.0002  0.2182 -0.1752
  710DOPS   C4B 8331   5.062  23.180  12.209 -0.0160 -0.0659 -0.1761
  711DOPC   NC3 8332   7.494  21.167  10.728 -0.0091  0.1017  0.2314
  711DOPC   PO4 8333   7.396  21.522  10.768  0.3938  0.1637  0.0721
  711DOPC   GL1 8334   7.200  21.392  11.080  0.2357 -0.1395 -0.1543
  711DOPC   GL2 8335   7.210  21.693  11.212 -0.0711 -0.0904 -0.2010
  711DOPC   C1A 8336   6.753  21.530  11.112  0.2778 -0.1811 -0.1156
  711DOPC   D2A 8337   6.341  21.480  11.160 -0.0096  0.1586 -0.0662
  711DOPC   C3A 8338   5.991  21.392  11.439 -0.0741  0.0770 -0.2871
  711DOPC   C4A 8339   5.938  21.711  11.787 -0.1566  0.1902  0.0921
  711DOPC   C1B 8340   6.906  22.012  11.334  0.3536 -0.1990  0.2958
  711DOPC   D2B 8341   6.449  21.923  11.420 -0.1654  0.1878  0.1608
  711DOPC   C3B 8342   6.297  22.051  11.774 -0.1258  0.0849 -0.2093
  711DOPC   C4B 8343   6.368  22.305  12.150  0.1267  0.1529 -0.0995
  712DOPS   CNO 8344   1.638  15.060  11.787 -0.1212  0.0330 -0.3376
  712DOPS   PO4 8345   1.702  14.754  11.600  0.1480  0.2526 -0.1363
  712DOPS   GL1 8346   1.829  14.540  12.006  0.0043  0.1802  0.3253
  712DOPS   GL2 8347   2.062  14.660  12.180 -0.2733 -0.1960 -0.1639
  712DOPS   C1A 8348   1.778  14.426  12.484  0.0511 -0.0407 -0.0859
  712DOPS   D2A 8349   1.788  14.510  12.996  0.0305  0.0486 -0.0085
  712DOPS   C3A 8350   1.921  14.688  13.472  0.2410  0.0646  0.1630
  712DOPS   C4A 8351   1.763  15.033  13.680  0.1841 -0.1840 -0.0504
  712DOPS   C1B 8352   2.060  14.939  12.619  0.0131 -0.2586  0.0830
  712DOPS   D2B 8353   1.964  15.017  13.051  0.1337  0.1708 -0.0643
  712DOPS   C3B 8354   2.365  15.001  13.382  0.0006  0.0226  0.0966
  712DOPS   C4B 8355   2.530  14.882  13.804 -0.1396  0.0572  0.0474
  713DOPS   CNO 8356   4.597  19.998  10.849  0.0224  0.0427 -0.1002
  713DOPS   PO4 8357   4.331  19.916  11.135 -0.0869 -0.2547  0.0663
  713DOPS   GL1 8358   4.160  19.825  11.530  0.2657 -0.0848  0.2187
  713DOPS   GL2 8359   4.352  19.942  11.696  0.0343 -0.3551  0.1319
  713DOPS   C1A 8360   3.889  20.024  11.838  0.0289 -0.1044 -0.3230
  713DOPS   D2A 8361   3.691  20.318  12.170  0.1263  0.1475  0.0015
  713DOPS   C3A 8362   3.869  20.344  12.666  0.1677 -0.3058 -0.1280
  713DOPS   C4A 8363   4.022  20.416  13.083 -0.3374  0.0891  0.2863
  713DOPS   C1B 8364   4.366  19.922  12.159 -0.0433 -0.0539  0.0221
  713DOPS   D2B 8365   4.387  19.562  12.416  0.0094 -0.1340 -0.1920
  713DOPS   C3B 8366   4.077  19.109  12.321  0.1944  0.0613 -0.2440
  713DOPS   C4B 8367   3.789  18.894  12.056 -0.2041  0.1065 -0.3259
  714DOPC   NC3 8368   3.090  21.368  11.055  0.2052  0.0587 -0.1304
  714DOPC   PO4 8369   3.383  21.604  11.071  0.0330  0.0512 -0.2595
  714DOPC   GL1 8370   3.510  21.546  11.456  0.3110 -0.1741  0.0921
  714DOPC   GL2 8371   3.322  21.368  11.520 -0.1284 -0.2543  0.2364
  714DOPC   C1A 8372   3.779  21.836  11.778  0.0634 -0.0380 -0.0440
  714DOPC   D2A 8373   3.881  21.829  12.246 -0.1358  0.0408  0.0266
  714DOPC   C3A 8374   3.665  21.530  12.533  0.0360  0.0479 -0.3329
  714DOPC   C4A 8375   3.884  21.302  12.793 -0.1286 -0.2233  0.0304
  714DOPC   C1B 8376   3.085  21.465  11.864  0.0648  0.1156 -0.1440
  714DOPC   D2B 8377   2.841  21.842  11.846 -0.0272 -0.0875 -0.0369
  714DOPC   C3B 8378   2.547  21.864  12.222  0.1252 -0.2000 -0.2141
  714DOPC   C4B 8379   2.596  21.738  12.694 -0.1176  0.5178  0.2580
  715DOPE   NH3 8380  11.110   8.811  11.344 -0.0073  0.0482 -0.0518
  715DOPE   PO4 8381  11.391   8.710  11.255  0.2006 -0.2661  0.1652
  715DOPE   GL1 8382  11.522   8.423  11.523  0.0795 -0.2754 -0.2486
  715DOPE   GL2 8383  11.862   8.563  11.530  0.0145 -0.0405  0.2162
  715DOPE   C1A 8384  11.712   8.529  11.989 -0.0839  0.1956  0.3983
  715DOPE   D2A 8385  11.918   8.346  12.348  0.2110  0.1176  0.1159
  715DOPE   C3A 8386  12.082   8.712  12.597  0.1067  0.0046 -0.1154
  715DOPE   C4A 8387  11.924   9.141  12.635 -0.2124  0.0032 -0.0414
  715DOPE   C1B 8388  12.185   8.496  11.834 -0.2052  0.0125  0.0749
  715DOPE   D2B 8389  12.452   8.326  12.192 -0.1487  0.0879  0.3252
  715DOPE   C3B 8390  12.373   8.030  12.600  0.0784  0.1335  0.0131
  715DOPE   C4B 8391  12.411   7.662  12.788 -0.0108 -0.2020 -0.0160
  716DOPE   NH3 8392  31.456  22.049  10.150 -0.4949  0.2725  0.2008
  716DOPE   PO4 8393  31.700  22.248  10.118  0.2833 -0.1450  0.3071
  716DOPE   GL1 8394  31.469  22.500  10.267  0.3370  0.5369 -0.2277
  716DOPE   GL2 8395  31.313  22.783  10.223 -0.0952 -0.2604  0.2357
  716DOPE   C1A 8396  31.763  22.709  10.539  0.0470 -0.1448  0.3583
  716DOPE   D2A 8397  31.918  22.594  10.995 -0.0744 -0.0944 -0.1315
  716DOPE   C3A 8398  31.714  22.545  11.428  0.2016 -0.0802 -0.0105
  716DOPE   C4A 8399  31.665  22.479  11.914  0.1938  0.1941 -0.0372
  716DOPE   C1B 8400  31.225  23.106  10.546 -0.1271 -0.1404  0.0715
  716DOPE   D2B 8401  31.079  23.555  10.646  0.0865  0.0679  0.3607
  716DOPE   C3B 8402  30.953  23.606  11.083  0.0075  0.1383 -0.2124
  716DOPE   C4B 8403  30.766  23.926  11.368 -0.0458 -0.1066  0.0248
  717POSM   NC3 8404   7.827  15.094  10.948  0.1808 -0.1085  0.2108
  717POSM   PO4 8405   7.456  15.138  11.077 -0.1160  0.1642  0.3500
  717POSM   AM1 8406   7.362  15.008  11.361 -0.2597  0.1477  0.0332
  717POSM   AM2 8407   7.538  14.943  11.591 -0.2614 -0.1717  0.0076
  717POSM   T1A 8408   7.123  15.115  11.775 -0.1158 -0.0660  0.2303
  717POSM   C2A 8409   7.077  15.325  12.232 -0.6302  0.1277  0.0342
  717POSM   C3A 8410   6.924  15.206  12.673  0.0261 -0.0785  0.0186
  717POSM   C1B 8411   7.607  15.005  11.897 -0.1399 -0.2232 -0.0191
  717POSM   D2B 8412   7.728  15.216  12.283  0.0315 -0.0457  0.0261
  717POSM   C3B 8413   7.966  14.918  12.499 -0.0111 -0.1069 -0.5782
  717POSM   C4B 8414   8.143  14.607  12.815  0.1808 -0.3134  0.0201
  718DOPS   CNO 8415   7.179  20.958  10.419  0.1002  0.1130 -0.0252
  718DOPS   PO4 8416   6.908  20.862  10.648  0.3626  0.1235 -0.3383
  718DOPS   GL1 8417   7.017  20.804  11.006 -0.1801 -0.0090  0.0314
  718DOPS   GL2 8418   7.041  20.943  11.160  0.2355  0.0447 -0.0861
  718DOPS   C1A 8419   6.672  20.594  11.202  0.0299 -0.2743 -0.1319
  718DOPS   D2A 8420   6.504  20.492  11.618  0.1184 -0.2146  0.1772
  718DOPS   C3A 8421   6.456  20.884  11.915 -0.2388  0.2265 -0.2608
  718DOPS   C4A 8422   6.383  21.083  12.265 -0.2077 -0.1002  0.0154
  718DOPS   C1B 8423   6.964  20.817  11.593 -0.0370 -0.0862  0.0198
  718DOPS   D2B 8424   7.344  20.891  11.835  0.4084  0.0018 -0.3862
  718DOPS   C3B 8425   7.628  20.995  12.199  0.1429 -0.0209 -0.3457
  718DOPS   C4B 8426   7.685  20.985  12.661  0.0158  0.3178 -0.1117
  719DOPC   NC3 8427   9.514   9.675  11.569  0.1875  0.1382 -0.4565
  719DOPC   PO4 8428   9.671   9.986  11.738  0.4032  0.2988  0.0551
  719DOPC   GL1 8429   9.503  10.195  11.987 -0.0195  0.3218 -0.2567
  719DOPC   GL2 8430   9.570  10.451  12.030  0.1474 -0.5593  0.2679
  719DOPC   C1A 8431   9.582  10.087  12.408  0.1372  0.1688 -0.0428
  719DOPC   D2A 8432   9.518   9.872  12.872 -0.1769 -0.0729  0.1674
  719DOPC   C3A 8433   9.125   9.706  13.059  0.0790  0.1554 -0.0840
  719DOPC   C4A 8434   9.066   9.246  13.203 -0.1085  0.0316 -0.2202
  719DOPC   C1B 8435   9.989  10.370  12.142 -0.0829 -0.1581 -0.1803
  719DOPC   D2B 8436  10.301  10.178  12.401  0.1992 -0.3012 -0.0658
  719DOPC   C3B 8437  10.506  10.162  12.793  0.1461 -0.0534  0.1334
  719DOPC   C4B 8438  10.539   9.981  13.225  0.1103  0.0248 -0.0203
  720DOPE   NH3 8439   0.971  13.368  11.596 -0.0006  0.0209  0.0115
  720DOPE   PO4 8440   0.820  13.487  11.845  0.1158 -0.0148 -0.1529
  720DOPE   GL1 8441   0.938  13.571  12.175  0.0178  0.1261 -0.2703
  720DOPE   GL2 8442   0.966  13.839  12.302  0.0551 -0.1756 -0.0448
  720DOPE   C1A 8443   0.749  13.533  12.615 -0.2097  0.1667  0.0088
  720DOPE   D2A 8444   0.830  13.515  13.096  0.0522  0.1644  0.2324
  720DOPE   C3A 8445   1.074  13.137  13.169  0.0840 -0.0228  0.3785
  720DOPE   C4A 8446   1.478  12.953  13.121 -0.1462 -0.2101  0.0413
  720DOPE   C1B 8447   0.917  13.997  12.759 -0.0784 -0.0453  0.2666
  720DOPE   D2B 8448   0.632  14.333  12.852 -0.0893  0.0536 -0.0969
  720DOPE   C3B 8449   0.778  14.805  12.844 -0.2165  0.0664 -0.0395
  720DOPE   C4B 8450   1.046  15.115  12.654  0.2747  0.0689  0.2548
  721DOPS   CNO 8451   6.127  15.201  11.225 -0.0107  0.2822 -0.3487
  721DOPS   PO4 8452   6.521  15.193  11.260 -0.2867  0.0771  0.1903
  721DOPS   GL1 8453   6.413  15.196  11.623 -0.5806 -0.1869 -0.2230
  721DOPS   GL2 8454   6.150  15.016  11.690 -0.1594  0.5243 -0.1658
  721DOPS   C1A 8455   6.736  15.416  11.888 -0.2227  0.1952 -0.2806
  721DOPS   D2A 8456   6.975  15.756  11.963  0.2378 -0.4091  0.0002
  721DOPS   C3A 8457   7.429  15.593  12.062 -0.1861 -0.0652  0.1373
  721DOPS   C4A 8458   7.653  15.709  12.420 -0.0187  0.1648 -0.2879
  721DOPS   C1B 8459   6.566  14.919  11.968 -0.3391  0.3787 -0.0025
  721DOPS   D2B 8460   6.789  14.838  12.354  0.0092 -0.1749 -0.0412
  721DOPS   C3B 8461   6.651  14.710  12.758  0.1427 -0.0377  0.1033
  721DOPS   C4B 8462   6.360  14.663  13.165 -0.1276  0.1082  0.0231
  722DOPS   CNO 8463   7.186  17.268  10.708 -0.2300 -0.0500 -0.0771
  722DOPS   PO4 8464   7.476  17.129  10.931  0.1641 -0.0171  0.3019
  722DOPS   GL1 8465   7.825  17.274  11.019  0.0666 -0.0127  0.2421
  722DOPS   GL2 8466   7.731  17.504  11.173 -0.1885  0.2711  0.3860
  722DOPS   C1A 8467   8.154  17.143  11.333 -0.0526  0.3047  0.0692
  722DOPS   D2A 8468   8.425  17.242  11.705 -0.2842  0.0820 -0.1128
  722DOPS   C3A 8469   8.531  17.565  12.038  0.0120 -0.0933 -0.0535
  722DOPS   C4A 8470   8.661  17.591  12.493 -0.0428 -0.1869  0.1314
  722DOPS   C1B 8471   7.782  17.489  11.604 -0.2429 -0.1998  0.2677
  722DOPS   D2B 8472   8.034  17.540  11.954  0.4727  0.0886  0.2297
  722DOPS   C3B 8473   8.012  17.413  12.369 -0.4145  0.0276  0.5832
  722DOPS   C4B 8474   8.063  17.008  12.550 -0.2936  0.0458  0.1119
  723DOPE   NH3 8475   1.322  20.458  10.880 -0.2433 -0.0471 -0.1973
  723DOPE   PO4 8476   1.512  20.188  10.983 -0.0128 -0.2134  0.1397
  723DOPE   GL1 8477   1.695  20.337  11.323 -0.0067 -0.3035  0.0816
  723DOPE   GL2 8478   1.481  20.531  11.395 -0.2271  0.1009  0.1457
  723DOPE   C1A 8479   1.775  20.193  11.759 -0.0999 -0.2397 -0.0198
  723DOPE   D2A 8480   1.803  20.328  12.199  0.0032  0.0179  0.0031
  723DOPE   C3A 8481   1.487  20.099  12.389 -0.0289 -0.3243 -0.0298
  723DOPE   C4A 8482   1.213  19.956  12.749  0.0014 -0.3830  0.0520
  723DOPE   C1B 8483   1.599  20.680  11.841  0.2446  0.4590 -0.1979
  723DOPE   D2B 8484   1.619  20.924  12.237  0.2183 -0.4711 -0.2226
  723DOPE   C3B 8485   1.941  21.219  12.265 -0.2352  0.1043  0.0991
  723DOPE   C4B 8486   2.389  21.296  12.371  0.0976 -0.1237 -0.1600
  724DOPE   NH3 8487   5.684  18.236  10.963 -0.3524 -0.0959 -0.1705
  724DOPE   PO4 8488   5.549  18.523  11.118 -0.0256  0.3906 -0.2706
  724DOPE   GL1 8489   5.548  18.778  11.370 -0.1341  0.0186  0.0600
  724DOPE   GL2 8490   5.722  19.009  11.334 -0.2384  0.1534 -0.1595
  724DOPE   C1A 8491   5.535  18.801  11.822 -0.0832 -0.0978 -0.1384
  724DOPE   D2A 8492   5.690  18.660  12.217 -0.0983 -0.2269  0.0286
  724DOPE   C3A 8493   5.695  19.019  12.543 -0.0357 -0.1542 -0.3149
  724DOPE   C4A 8494   5.561  19.270  12.948  0.1139  0.1393 -0.0142
  724DOPE   C1B 8495   5.962  19.005  11.777  0.0502  0.1173 -0.0053
  724DOPE   D2B 8496   6.220  19.190  12.098  0.0906 -0.1491 -0.1347
  724DOPE   C3B 8497   6.051  19.464  12.392  0.1413 -0.0917  0.0243
  724DOPE   C4B 8498   5.885  19.574  12.749 -0.1545 -0.1388 -0.0395
  725POSM   NC3 8499  12.545   9.164  10.995  0.2250  0.2421 -0.3447
  725POSM   PO4 8500  12.700   8.984  11.268 -0.2931 -0.1695  0.1782
  725POSM   AM1 8501  12.775   8.908  11.608 -0.2387 -0.1600 -0.0867
  725POSM   AM2 8502  12.827   8.708  11.826  0.0171 -0.2426 -0.0858
  725POSM   T1A 8503  12.827   9.123  12.058 -0.0949 -0.0298 -0.0752
  725POSM   C2A 8504  12.831   9.471  12.373 -0.1594 -0.0787 -0.2077
  725POSM   C3A 8505  12.927   9.404  12.851  0.0626  0.2694  0.0221
  725POSM   C1B 8506  12.844   8.521  12.066 -0.0990  0.1428  0.2249
  725POSM   D2B 8507  12.782   8.456  12.554  0.1757 -0.0015  0.0130
  725POSM   C3B 8508  12.415   8.518  12.841 -0.1141  0.1247 -0.3002
  725POSM   C4B 8509  12.144   8.380  13.157  0.1483  0.1228 -0.2345
  726DOPC   NC3 8510   6.367  14.601  11.316  0.2289 -0.0163  0.3305
  726DOPC   PO4 8511   6.704  14.424  11.188  0.1144 -0.0794  0.0170
  726DOPC   GL1 8512   6.730  14.180  11.504 -0.2235  0.2430 -0.2230
  726DOPC   GL2 8513   6.520  13.936  11.667  0.0225 -0.2107  0.0341
  726DOPC   C1A 8514   6.564  14.427  11.858 -0.1110 -0.0789  0.3436
  726DOPC   D2A 8515   6.217  14.608  12.083  0.3218 -0.0457 -0.2141
  726DOPC   C3A 8516   5.812  14.613  11.914  0.1068  0.1968 -0.0489
  726DOPC   C4A 8517   5.358  14.724  11.892  0.1196  0.0396 -0.1221
  726DOPC   C1B 8518   6.719  13.782  12.049 -0.0305 -0.1324 -0.0326
  726DOPC   D2B 8519   6.932  13.397  12.305 -0.0082  0.1306 -0.0682
  726DOPC   C3B 8520   7.033  13.086  12.628  0.0450 -0.3926  0.0467
  726DOPC   C4B 8521   7.232  13.143  13.035  0.2300  0.0622 -0.2011
  727DOPC   NC3 8522   4.370  17.806  11.785 -0.0538  0.0085 -0.0315
  727DOPC   PO4 8523   4.664  18.118  11.716  0.0757  0.0544  0.0717
  727DOPC   GL1 8524   4.822  17.952  11.905  0.2119  0.0658 -0.1514
  727DOPC   GL2 8525   4.716  17.861  12.159  0.0577 -0.0732 -0.1495
  727DOPC   C1A 8526   5.102  18.089  12.287  0.0205 -0.0019  0.1821
  727DOPC   D2A 8527   5.524  18.176  12.395  0.0353 -0.2078  0.1834
  727DOPC   C3A 8528   5.475  18.525  12.639  0.0443  0.0580 -0.1574
  727DOPC   C4A 8529   5.297  18.729  12.963 -0.4814  0.3591 -0.1279
  727DOPC   C1B 8530   4.776  17.873  12.633  0.2135 -0.2566 -0.2809
  727DOPC   D2B 8531   4.821  17.503  12.906 -0.1321  0.2905 -0.1673
  727DOPC   C3B 8532   5.103  17.138  13.044 -0.0718  0.0225 -0.0414
  727DOPC   C4B 8533   5.377  16.825  13.145 -0.0169  0.0417  0.3536
  728DOPE   NH3 8534   8.271  22.172  10.624  0.1984 -0.1348 -0.3716
  728DOPE   PO4 8535   8.116  21.955  10.429  0.1783 -0.0639  0.1025
  728DOPE   GL1 8536   8.076  21.739  10.826  0.1073  0.0806 -0.3438
  728DOPE   GL2 8537   8.116  21.880  11.034  0.0598 -0.1174 -0.2598
  728DOPE   C1A 8538   8.187  21.372  10.984  0.1048 -0.1466  0.0721
  728DOPE   D2A 8539   8.413  20.949  11.147  0.0715  0.0828  0.0085
  728DOPE   C3A 8540   8.356  20.916  11.579 -0.0763 -0.0605  0.0773
  728DOPE   C4A 8541   8.227  20.540  11.760 -0.0433 -0.2371  0.0171
  728DOPE   C1B 8542   8.248  22.116  11.439 -0.0492 -0.0547  0.3703
  728DOPE   D2B 8543   8.493  22.156  11.816 -0.0468  0.1670 -0.0062
  728DOPE   C3B 8544   8.814  22.395  11.687 -0.1918 -0.0692 -0.3209
  728DOPE   C4B 8545   9.251  22.572  11.496 -0.0340  0.1615  0.0561
  729POSM   NC3 8546  10.492  23.318  10.304 -0.1100 -0.1393  0.2305
  729POSM   PO4 8547  10.873  23.306  10.214 -0.1263  0.2393  0.1449
  729POSM   AM1 8548  10.912  23.523  10.464 -0.0065  0.2800  0.1920
  729POSM   AM2 8549  10.802  23.547  10.693 -0.1056  0.0948 -0.1304
  729POSM   T1A 8550  10.893  24.026  10.637  0.3263  0.2063 -0.0697
  729POSM   C2A 8551  10.946  24.442  10.756  0.1523 -0.2428  0.3896
  729POSM   C3A 8552  10.763  24.961  10.732 -0.0752  0.2145  0.0083
  729POSM   C1B 8553  10.682  23.747  10.989  0.0481 -0.0836 -0.0993
  729POSM   D2B 8554  10.454  24.050  11.210  0.1191  0.0609  0.2244
  729POSM   C3B 8555  10.310  23.876  11.610  0.0782  0.0802  0.0550
  729POSM   C4B 8556  10.357  23.972  12.041 -0.0862 -0.0599 -0.0205
  730DOPE   NH3 8557   6.727  19.522  10.992 -0.0350  0.1907 -0.0701
  730DOPE   PO4 8558   6.642  19.248  11.178 -0.0982  0.1046  0.2211
  730DOPE   GL1 8559   6.516  19.207  11.581 -0.0423 -0.0366  0.1132
  730DOPE   GL2 8560   6.665  19.438  11.613  0.1586 -0.2643 -0.0865
  730DOPE   C1A 8561   6.630  19.030  12.022 -0.2139  0.2522  0.2061
  730DOPE   D2A 8562   6.680  18.907  12.482  0.1331  0.0335 -0.1971
  730DOPE   C3A 8563   6.847  19.118  12.857  0.2245 -0.0621 -0.0527
  730DOPE   C4A 8564   7.202  19.351  13.108 -0.2966 -0.0129 -0.0979
  730DOPE   C1B 8565   6.563  19.562  12.031  0.3930 -0.2171  0.0474
  730DOPE   D2B 8566   6.705  19.467  12.489  0.2548  0.1853 -0.2947
  730DOPE   C3B 8567   6.424  19.393  12.854 -0.1203 -0.2904  0.0221
  730DOPE   C4B 8568   6.402  19.242  13.298  0.0561  0.3937 -0.0745
  731DOPC   NC3 8569   6.823  17.592  11.472 -0.0193 -0.1051 -0.0657
  731DOPC   PO4 8570   6.729  17.253  11.627  0.0382 -0.1557 -0.1437
  731DOPC   GL1 8571   6.741  17.100  12.010  0.1140  0.2175 -0.0204
  731DOPC   GL2 8572   6.440  17.201  12.075  0.1301  0.0345 -0.2868
  731DOPC   C1A 8573   6.812  17.331  12.418 -0.1168 -0.1669  0.0354
  731DOPC   D2A 8574   6.613  17.351  12.793 -0.2604 -0.0471 -0.1513
  731DOPC   C3A 8575   6.943  17.558  13.115 -0.1461 -0.1476  0.2081
  731DOPC   C4A 8576   7.246  17.945  13.038 -0.1585 -0.2906  0.1184
  731DOPC   C1B 8577   6.479  16.967  12.488 -0.1945 -0.4833  0.0003
  731DOPC   D2B 8578   6.823  16.839  12.764 -0.1491  0.1248 -0.1277
  731DOPC   C3B 8579   7.179  17.117  12.854 -0.0643 -0.0799 -0.0525
  731DOPC   C4B 8580   7.484  17.429  12.991  0.2687 -0.3577  0.1302
  732DOPS   CNO 8581   4.080  13.409  11.372  0.3338  0.1915 -0.0988
  732DOPS   PO4 8582   3.789  13.431  11.630 -0.1208  0.3292 -0.0028
  732DOPS   GL1 8583   3.970  13.509  12.036 -0.1524 -0.3260 -0.0721
  732DOPS   GL2 8584   3.719  13.523  12.172 -0.1610 -0.3438  0.0881
  732DOPS   C1A 8585   4.034  13.869  12.306 -0.0111  0.1852  0.1914
  732DOPS   D2A 8586   3.828  14.089  12.634  0.0518  0.2248  0.1767
  732DOPS   C3A 8587   3.607  13.910  13.022 -0.2142 -0.0143  0.0026
  732DOPS   C4A 8588   3.382  13.644  13.325  0.3367  0.0356 -0.3183
  732DOPS   C1B 8589   3.640  13.533  12.570 -0.5214 -0.0727  0.0384
  732DOPS   D2B 8590   3.832  13.451  12.969 -0.3779 -0.0440 -0.4118
  732DOPS   C3B 8591   3.916  13.500  13.439 -0.2274  0.3972  0.0327
  732DOPS   C4B 8592   3.728  13.786  13.724  0.2204 -0.4128  0.1067
  733DOPE   NH3 8593   1.947  20.567  10.977  0.1359 -0.2897  0.2486
  733DOPE   PO4 8594   2.099  20.852  11.025  0.2194  0.1345 -0.4662
  733DOPE   GL1 8595   2.083  21.067  11.326  0.0794  0.2413  0.1360
  733DOPE   GL2 8596   1.780  21.024  11.418 -0.0576 -0.2280 -0.1609
  733DOPE   C1A 8597   2.171  21.099  11.763  0.1660 -0.3568 -0.1841
  733DOPE   D2A 8598   2.071  20.792  12.062  0.0072  0.0012  0.2719
  733DOPE   C3A 8599   2.011  20.718  12.539  0.0238  0.2743 -0.1183
  733DOPE   C4A 8600   1.616  20.947  12.726 -0.1551 -0.0512 -0.1929
  733DOPE   C1B 8601   1.628  21.220  11.815  0.3420 -0.0066 -0.1257
  733DOPE   D2B 8602   1.265  21.408  12.075 -0.2593 -0.0507  0.0715
  733DOPE   C3B 8603   1.065  21.736  12.360 -0.1010  0.0781 -0.1701
  733DOPE   C4B 8604   0.765  21.714  12.752  0.0465 -0.4413  0.5039
  734DOPE   NH3 8605   2.902  14.295  11.834 -0.2323  0.3652  0.0000
  734DOPE   PO4 8606   3.085  14.057  11.926 -0.0622  0.1497 -0.0811
  734DOPE   GL1 8607   2.951  14.004  12.296 -0.1946  0.1417 -0.0220
  734DOPE   GL2 8608   3.187  13.792  12.320  0.0245  0.4191 -0.3783
  734DOPE   C1A 8609   2.838  14.247  12.691 -0.1663  0.2354 -0.0203
  734DOPE   D2A 8610   2.598  14.266  13.096  0.2011  0.3618 -0.2040
  734DOPE   C3A 8611   2.843  14.203  13.517  0.0959 -0.1960  0.2525
  734DOPE   C4A 8612   3.029  14.026  13.901  0.0741  0.1149  0.1128
  734DOPE   C1B 8613   3.226  13.761  12.782  0.0875 -0.6667 -0.1026
  734DOPE   D2B 8614   3.159  14.090  13.114  0.1403  0.1982 -0.0314
  734DOPE   C3B 8615   3.403  14.152  13.505 -0.1744  0.2689  0.1899
  734DOPE   C4B 8616   3.353  14.404  13.886 -0.2739 -0.4307  0.0048
  735DOPS   CNO 8617  13.808  25.189  10.237 -0.0708 -0.0702  0.0681
  735DOPS   PO4 8618  13.472  25.216   9.996  0.0169 -0.1634  0.3211
  735DOPS   GL1 8619  13.380  25.265  10.367 -0.0721 -0.0601  0.3231
  735DOPS   GL2 8620  13.267  25.085  10.512 -0.2512  0.0635  0.2062
  735DOPS   C1A 8621  13.660  25.225  10.770  0.0354 -0.2195  0.2476
  735DOPS   D2A 8622  14.074  25.028  10.870  0.0155  0.3902 -0.1419
  735DOPS   C3A 8623  14.095  24.657  11.207 -0.0529 -0.1037  0.5191
  735DOPS   C4A 8624  14.348  24.321  11.302  0.0329  0.0308  0.0648
  735DOPS   C1B 8625  13.266  25.177  10.993  0.0484  0.2858 -0.0230
  735DOPS   D2B 8626  13.338  25.324  11.390  0.0552 -0.0694 -0.0065
  735DOPS   C3B 8627  13.468  25.106  11.777  0.2132 -0.2954 -0.1795
  735DOPS   C4B 8628  13.604  25.244  12.227  0.2844 -0.0616 -0.1331
  736DOPE   NH3 8629  11.018  11.728  11.427 -0.0633 -0.1627  0.0813
  736DOPE   PO4 8630  10.931  11.864  11.172 -0.1798  0.0113  0.3871
  736DOPE   GL1 8631  10.599  11.968  11.463 -0.0770  0.3271 -0.1655
  736DOPE   GL2 8632  10.655  12.234  11.501  0.0826 -0.2439 -0.0035
  736DOPE   C1A 8633  10.420  12.074  11.886 -0.0255  0.0969 -0.3229
  736DOPE   D2A 8634  10.570  12.200  12.278 -0.0345 -0.0861 -0.3504
  736DOPE   C3A 8635  10.464  12.551  12.570 -0.2651  0.0735  0.1561
  736DOPE   C4A 8636  10.592  12.626  12.990 -0.3134  0.1246 -0.0443
  736DOPE   C1B 8637  10.919  12.168  11.861  0.2444  0.1518  0.0032
  736DOPE   D2B 8638  11.129  12.055  12.301 -0.1348  0.1585  0.2522
  736DOPE   C3B 8639  11.575  12.180  12.296  0.0600  0.3140 -0.0855
  736DOPE   C4B 8640  12.025  12.045  12.491  0.2399 -0.0946 -0.1105
  737DOPS   CNO 8641   7.701  12.300  11.501 -0.0522  0.3744 -0.3622
  737DOPS   PO4 8642   7.636  11.939  11.331  0.1605  0.0550  0.1442
  737DOPS   GL1 8643   7.726  11.916  11.731 -0.1447  0.0136  0.2417
  737DOPS   GL2 8644   7.749  11.630  11.702 -0.1017  0.0798  0.0539
  737DOPS   C1A 8645   7.503  11.900  12.141  0.1008  0.0247  0.2158
  737DOPS   D2A 8646   7.385  12.140  12.498  0.0452  0.1739 -0.1950
  737DOPS   C3A 8647   7.102  12.498  12.392 -0.0249 -0.3288 -0.0854
  737DOPS   C4A 8648   7.222  12.893  12.247  0.1540 -0.3953 -0.0615
  737DOPS   C1B 8649   7.856  11.568  12.177 -0.0033  0.0317  0.1904
  737DOPS   D2B 8650   7.988  11.717  12.580  0.0973 -0.1024 -0.0994
  737DOPS   C3B 8651   7.704  11.887  12.871 -0.0533 -0.0213 -0.1922
  737DOPS   C4B 8652   7.394  11.811  13.163  0.1979  0.0275 -0.0689
  738DOPS   CNO 8653  10.887   9.117  10.951  0.1651  0.1207 -0.1658
  738DOPS   PO4 8654  10.731   9.159  11.298  0.0977 -0.3336 -0.0563
  738DOPS   GL1 8655  10.667   9.138  11.705  0.3193  0.1166 -0.2192
  738DOPS   GL2 8656  10.844   8.960  11.774 -0.0174  0.2009  0.0968
  738DOPS   C1A 8657  10.681   9.450  12.058 -0.0444  0.0181  0.0078
  738DOPS   D2A 8658  10.826   9.883  12.074  0.0059  0.0072  0.1713
  738DOPS   C3A 8659  10.997   9.961  12.511 -0.2512 -0.1064  0.0455
  738DOPS   C4A 8660  10.901   9.780  12.932 -0.2257 -0.2293 -0.3088
  738DOPS   C1B 8661  11.035   9.115  12.162  0.0780 -0.1162  0.3672
  738DOPS   D2B 8662  10.917   9.453  12.505  0.2558 -0.0174 -0.2877
  738DOPS   C3B 8663  10.885   9.254  12.937 -0.0944 -0.1051  0.1552
  738DOPS   C4B 8664  11.195   8.947  13.149 -0.1180  0.0910  0.1250
  739DOPC   NC3 8665   4.647  11.088  11.469  0.3500 -0.2690 -0.0485
  739DOPC   PO4 8666   4.627  11.431  11.635 -0.2033 -0.2876  0.2919
  739DOPC   GL1 8667   4.947  11.526  11.957  0.0547  0.1101 -0.1872
  739DOPC   GL2 8668   5.220  11.457  11.924  0.0558 -0.0964  0.2069
  739DOPC   C1A 8669   4.939  11.604  12.424 -0.1996  0.0670  0.3858
  739DOPC   D2A 8670   5.040  11.653  12.892  0.2078 -0.0531 -0.1261
  739DOPC   C3A 8671   5.506  11.685  12.856  0.1341  0.0248 -0.1322
  739DOPC   C4A 8672   5.773  11.973  12.651 -0.2101 -0.1157 -0.0755
  739DOPC   C1B 8673   5.470  11.134  12.105  0.0260 -0.3268  0.3143
  739DOPC   D2B 8674   5.672  10.930  12.448 -0.1048  0.0212  0.2361
  739DOPC   C3B 8675   5.672  11.138  12.864  0.1620 -0.2105 -0.1048
  739DOPC   C4B 8676   5.708  11.131  13.271  0.3972  0.0943  0.0334
  740DOPC   NC3 8677   6.730  18.342  11.400 -0.0116 -0.0682  0.0072
  740DOPC   PO4 8678   6.741  17.997  11.229  0.0257 -0.0001  0.3263
  740DOPC   GL1 8679   7.033  18.017  11.565 -0.2523  0.2881 -0.0726
  740DOPC   GL2 8680   6.825  18.022  11.824  0.0822  0.0550  0.0318
  740DOPC   C1A 8681   7.207  18.253  11.923  0.1373 -0.0039 -0.0680
  740DOPC   D2A 8682   7.074  18.666  12.091  0.1208  0.0611 -0.2044
  740DOPC   C3A 8683   7.109  18.670  12.570  0.1550 -0.0274  0.0028
  740DOPC   C4A 8684   7.203  18.835  13.009  0.0830  0.0082 -0.1398
  740DOPC   C1B 8685   7.041  17.854  12.164 -0.2745  0.0186 -0.0880
  740DOPC   D2B 8686   7.224  18.095  12.470  0.0523 -0.0511 -0.1150
  740DOPC   C3B 8687   6.933  18.277  12.772  0.2797 -0.0302 -0.1568
  740DOPC   C4B 8688   6.823  18.418  13.200 -0.0022 -0.1875  0.0168
  741DOPE   NH3 8689   6.517  16.924  11.227 -0.0036 -0.1211  0.1284
  741DOPE   PO4 8690   6.729  16.715  11.123  0.0050  0.2756 -0.2749
  741DOPE   GL1 8691   6.959  16.739  11.503 -0.0008  0.0875  0.2783
  741DOPE   GL2 8692   7.059  16.882  11.768 -0.3162  0.0927  0.1194
  741DOPE   C1A 8693   7.000  16.390  11.800  0.0838  0.0915 -0.0203
  741DOPE   D2A 8694   6.767  16.214  12.207  0.4637 -0.3505  0.0391
  741DOPE   C3A 8695   6.685  16.366  12.585  0.4139 -0.1053  0.1191
  741DOPE   C4A 8696   6.333  16.487  12.842 -0.1628 -0.2439  0.0040
  741DOPE   C1B 8697   7.435  16.696  11.934  0.2985  0.0818  0.3335
  741DOPE   D2B 8698   7.803  16.743  12.238  0.1749  0.3785 -0.0071
  741DOPE   C3B 8699   8.192  16.523  12.369 -0.2636 -0.0336 -0.2081
  741DOPE   C4B 8700   8.411  16.239  12.718  0.1016 -0.0067  0.0886
  742DOPC   NC3 8701   8.740  23.622  10.657  0.0648 -0.0175  0.2076
  742DOPC   PO4 8702   8.848  23.408  10.347  0.0237 -0.1009  0.0607
  742DOPC   GL1 8703   9.018  23.325  10.784 -0.2171  0.1339 -0.0696
  742DOPC   GL2 8704   9.290  23.350  10.607  0.3075  0.0235  0.1835
  742DOPC   C1A 8705   8.847  23.424  11.167  0.0629 -0.0648  0.1737
  742DOPC   D2A 8706   8.745  23.535  11.596  0.0502 -0.2063  0.2193
  742DOPC   C3A 8707   9.084  23.533  11.943  0.0665 -0.2495 -0.5932
  742DOPC   C4A 8708   9.216  23.488  12.347 -0.3709 -0.2450  0.3427
  742DOPC   C1B 8709   9.238  23.672  10.999  0.1757  0.3680  0.0005
  742DOPC   D2B 8710   9.249  23.686  11.439 -0.1566 -0.0217  0.0854
  742DOPC   C3B 8711   9.479  23.833  11.820  0.1137  0.3668  0.0717
  742DOPC   C4B 8712   9.872  24.060  11.820  0.1560  0.1132 -0.0889
  743POSM   NC3 8713   4.542  16.086  11.467  0.1640  0.0081  0.0250
  743POSM   PO4 8714   4.456  15.830  11.724 -0.0186 -0.1202  0.1047
  743POSM   AM1 8715   4.453  15.779  12.041  0.1139 -0.3913  0.1251
  743POSM   AM2 8716   4.270  15.642  12.221  0.1629 -0.1100  0.1707
  743POSM   T1A 8717   4.715  15.825  12.454  0.0007  0.2327  0.3131
  743POSM   C2A 8718   4.769  15.979  12.897  0.2250  0.1593 -0.1634
  743POSM   C3A 8719   4.654  15.875  13.277 -0.3963 -0.3198  0.0406
  743POSM   C1B 8720   4.289  15.614  12.538  0.0833  0.2466  0.3130
  743POSM   D2B 8721   4.305  15.502  12.981  0.0684 -0.2610  0.1847
  743POSM   C3B 8722   3.919  15.466  13.273 -0.3294  0.0099 -0.0820
  743POSM   C4B 8723   3.701  15.745  13.556 -0.0178 -0.0600  0.2336
  744DOPC   NC3 8724   3.681  21.192  11.135 -0.0249  0.1107 -0.1815
  744DOPC   PO4 8725   3.820  20.842  10.976 -0.1900  0.0361 -0.0437
  744DOPC   GL1 8726   4.116  20.711  11.181  0.1536 -0.1364  0.2320
  744DOPC   GL2 8727   3.922  20.815  11.479  0.0472 -0.1071  0.0369
  744DOPC   C1A 8728   4.353  20.740  11.581 -0.1587  0.2538 -0.1471
  744DOPC   D2A 8729   4.570  20.497  11.956  0.2445 -0.4137 -0.2196
  744DOPC   C3A 8730   4.733  20.534  12.409 -0.0252 -0.4409 -0.0966
  744DOPC   C4A 8731   4.755  20.804  12.779  0.0612  0.2622 -0.1741
  744DOPC   C1B 8732   3.970  20.524  11.822 -0.5572  0.3058  0.0876
  744DOPC   D2B 8733   4.150  20.417  12.239  0.0944  0.0550 -0.2031
  744DOPC   C3B 8734   4.343  20.578  12.654  0.5812  0.1332 -0.1150
  744DOPC   C4B 8735   4.542  20.413  12.991 -0.2916  0.1073 -0.1426
  745DOPC   NC3 8736   7.624  21.886  10.540 -0.2890  0.2846  0.4014
  745DOPC   PO4 8737   7.660  22.070  10.937 -0.0264 -0.5028  0.1009
  745DOPC   GL1 8738   7.706  21.782  11.270 -0.2218  0.0484  0.0029
  745DOPC   GL2 8739   7.740  21.524  11.111  0.0147 -0.1607  0.1139
  745DOPC   C1A 8740   7.751  21.999  11.651  0.0121 -0.4157 -0.1881
  745DOPC   D2A 8741   7.511  22.128  12.020 -0.1418  0.2549 -0.0302
  745DOPC   C3A 8742   7.091  22.246  11.985  0.0255  0.1577 -0.2317
  745DOPC   C4A 8743   6.919  22.478  12.262 -0.1663 -0.2016  0.4183
  745DOPC   C1B 8744   7.719  21.454  11.567  0.3282 -0.4252  0.1007
  745DOPC   D2B 8745   7.912  21.261  11.911  0.1714 -0.0379  0.1288
  745DOPC   C3B 8746   8.095  21.286  12.315 -0.0895  0.0056 -0.2318
  745DOPC   C4B 8747   8.544  21.252  12.469 -0.1296 -0.0912 -0.2414
  746DOPE   NH3 8748   3.820  23.134  10.906 -0.0123 -0.3215 -0.2232
  746DOPE   PO4 8749   3.650  23.219  10.656 -0.0248  0.1433  0.0489
  746DOPE   GL1 8750   3.335  23.361  10.999 -0.0292  0.0591  0.2772
  746DOPE   GL2 8751   3.022  23.394  11.004 -0.1187 -0.1812 -0.1424
  746DOPE   C1A 8752   3.618  23.375  11.435 -0.4087 -0.1181  0.2568
  746DOPE   D2A 8753   3.671  23.211  11.896  0.0124 -0.0348 -0.2603
  746DOPE   C3A 8754   3.571  23.343  12.388 -0.0414  0.2314 -0.0867
  746DOPE   C4A 8755   3.863  23.184  12.716  0.0953 -0.3384  0.0687
  746DOPE   C1B 8756   3.097  23.331  11.463  0.0859  0.1869  0.2665
  746DOPE   D2B 8757   3.314  23.570  11.804 -0.2882  0.1756  0.1768
  746DOPE   C3B 8758   3.378  24.011  11.805  0.1801  0.0992 -0.1714
  746DOPE   C4B 8759   3.761  24.307  11.894  0.0388  0.0314 -0.0337
  747DOPE   NH3 8760   0.336  22.663  10.265  0.3669 -0.0397 -0.1162
  747DOPE   PO4 8761   0.081  22.486  10.244  0.1253  0.1891 -0.0869
  747DOPE   GL1 8762  -0.038  22.361  10.592 -0.2202  0.0907 -0.0889
  747DOPE   GL2 8763  -0.140  22.439  10.809 -0.0155  0.0408 -0.1398
  747DOPE   C1A 8764   0.211  22.137  10.922  0.1411 -0.2571 -0.1349
  747DOPE   D2A 8765   0.268  22.040  11.383  0.0664 -0.0644 -0.0790
  747DOPE   C3A 8766   0.338  22.369  11.631 -0.0600 -0.1586  0.0457
  747DOPE   C4A 8767   0.293  22.634  12.014 -0.1318  0.2782 -0.1098
  747DOPE   C1B 8768  -0.054  22.434  11.305 -0.2241  0.0093  0.2377
  747DOPE   D2B 8769  -0.065  22.647  11.677  0.1709 -0.1768  0.0003
  747DOPE   C3B 8770  -0.154  22.338  11.946  0.0535  0.0340  0.1655
  747DOPE   C4B 8771  -0.456  21.998  12.136 -0.3290 -0.1985  0.1466
  748DOPC   NC3 8772   3.468  16.395  11.710  0.0663 -0.0375  0.1518
  748DOPC   PO4 8773   3.088  16.484  11.836  0.1529  0.1113 -0.0174
  748DOPC   GL1 8774   3.031  16.189  12.183 -0.1341 -0.1418  0.4243
  748DOPC   GL2 8775   3.350  16.098  12.141  0.1190 -0.3890 -0.0816
  748DOPC   C1A 8776   3.177  16.282  12.623 -0.0388 -0.1656 -0.2719
  748DOPC   D2A 8777   3.182  16.444  13.062 -0.1647  0.0538 -0.2684
  748DOPC   C3A 8778   2.978  16.359  13.454 -0.3419 -0.0799 -0.2482
  748DOPC   C4A 8779   2.771  16.237  13.854  0.1977 -0.0258  0.5119
  748DOPC   C1B 8780   3.344  15.811  12.498 -0.2445 -0.0777 -0.0791
  748DOPC   D2B 8781   3.185  15.872  12.913  0.1307 -0.0733  0.1235
  748DOPC   C3B 8782   3.568  15.622  12.965 -0.1496  0.0835  0.1104
  748DOPC   C4B 8783   3.833  15.271  12.773 -0.1273  0.3326  0.2296
  749DOPE   NH3 8784   9.374  20.443  10.330  0.0387 -0.0629 -0.0721
  749DOPE   PO4 8785   9.532  20.303  10.589  0.1414  0.3374 -0.0509
  749DOPE   GL1 8786   9.453  20.223  10.949  0.1305 -0.0141  0.0909
  749DOPE   GL2 8787   9.421  19.866  10.935 -0.0168 -0.2092  0.3682
  749DOPE   C1A 8788   9.192  20.349  11.289 -0.0188 -0.4964  0.3313
  749DOPE   D2A 8789   8.778  20.441  11.418 -0.2374 -0.2086  0.0678
  749DOPE   C3A 8790   8.682  20.578  11.871  0.0460 -0.0515  0.2335
  749DOPE   C4A 8791   8.882  21.024  12.045 -0.0651  0.0179 -0.0508
  749DOPE   C1B 8792   9.500  19.983  11.351  0.0569  0.0402 -0.1285
  749DOPE   D2B 8793   9.693  19.913  11.775 -0.0128  0.3365  0.0587
  749DOPE   C3B 8794   9.869  19.488  11.735 -0.2204  0.1216 -0.1172
  749DOPE   C4B 8795   9.998  19.039  11.762 -0.2082  0.3204  0.2328
  750DOPS   CNO 8796   7.001  22.644  10.520  0.4040 -0.2562 -0.2665
  750DOPS   PO4 8797   7.241  22.699  10.828 -0.0366  0.2174 -0.0983
  750DOPS   GL1 8798   7.072  22.649  11.204  0.0239  0.0862  0.1738
  750DOPS   GL2 8799   7.359  22.585  11.284  0.0285 -0.1915  0.0660
  750DOPS   C1A 8800   7.042  22.687  11.658 -0.1507 -0.1563  0.1478
  750DOPS   D2A 8801   7.312  22.672  12.018 -0.1029 -0.2093 -0.3965
  750DOPS   C3A 8802   7.777  22.529  11.982 -0.0914  0.0513 -0.1770
  750DOPS   C4A 8803   8.068  22.202  12.037  0.0151 -0.0128 -0.0455
  750DOPS   C1B 8804   7.343  22.172  11.460  0.2812 -0.0260 -0.5588
  750DOPS   D2B 8805   7.228  21.811  11.726 -0.0500  0.1363 -0.1105
  750DOPS   C3B 8806   6.771  21.784  11.832  0.1471  0.1350 -0.0840
  750DOPS   C4B 8807   6.392  21.493  11.734 -0.1556 -0.0116 -0.2117
  751DOPC   NC3 8808  34.505  21.785  10.024  0.3886 -0.0650  0.1033
  751DOPC   PO4 8809  34.421  22.144  10.176  0.0013  0.0070 -0.2178
  751DOPC   GL1 8810  34.409  22.114  10.572 -0.1240 -0.0526 -0.3111
  751DOPC   GL2 8811  34.623  21.904  10.632  0.0557  0.0784  0.3071
  751DOPC   C1A 8812  34.221  22.136  10.997 -0.3625  0.1285  0.1211
  751DOPC   D2A 8813  34.105  21.822  11.329 -0.2263 -0.0914  0.2256
  751DOPC   C3A 8814  34.012  21.854  11.791 -0.0616 -0.2286 -0.0479
  751DOPC   C4A 8815  33.916  21.921  12.245  0.1381  0.2467 -0.0156
  751DOPC   C1B 8816  34.198  21.676  10.710  0.0454  0.1116 -0.0303
  751DOPC   D2B 8817  33.833  21.932  10.813 -0.1455  0.0314  0.1519
  751DOPC   C3B 8818  33.577  21.944  11.249 -0.4046  0.0158  0.2486
  751DOPC   C4B 8819  33.443  22.137  11.571 -0.1244 -0.0531 -0.1441
  752POSM   NC3 8820  10.015  20.010  10.126  0.3935  0.3106 -0.3178
  752POSM   PO4 8821   9.959  20.290  10.335  0.0279 -0.2518  0.0185
  752POSM   AM1 8822  10.034  20.339  10.645 -0.2332  0.0433 -0.1313
  752POSM   AM2 8823  10.229  20.501  10.770  0.0735  0.0790  0.2189
  752POSM   T1A 8824  10.007  20.095  11.100  0.2040 -0.0324  0.1517
  752POSM   C2A 8825   9.898  19.635  11.221  0.1508 -0.2097  0.1832
  752POSM   C3A 8826   9.847  19.175  11.294  0.2590 -0.1076  0.1059
  752POSM   C1B 8827  10.092  20.573  11.025  0.0170  0.2028  0.1002
  752POSM   D2B 8828  10.091  20.897  11.361  0.0122 -0.0144 -0.0268
  752POSM   C3B 8829   9.784  20.986  11.709 -0.1640  0.0155  0.1851
  752POSM   C4B 8830   9.669  21.420  11.817  0.5026  0.0001  0.3980
  753DOPC   NC3 8831   1.955  21.299  10.969  0.1378  0.3374 -0.0728
  753DOPC   PO4 8832   1.587  21.355  11.078 -0.2287  0.0087  0.2458
  753DOPC   GL1 8833   1.721  21.673  11.307 -0.1898 -0.0382  0.2329
  753DOPC   GL2 8834   1.927  21.493  11.489  0.2422  0.2277 -0.3380
  753DOPC   C1A 8835   1.572  21.691  11.746 -0.0305 -0.1277  0.0720
  753DOPC   D2A 8836   1.717  21.635  12.179  0.0697 -0.0018 -0.0213
  753DOPC   C3A 8837   1.565  21.432  12.555  0.0089 -0.1038  0.1724
  753DOPC   C4A 8838   1.362  21.314  12.876  0.1635  0.2526 -0.0635
  753DOPC   C1B 8839   2.189  21.644  11.944  0.3211  0.3691  0.1046
  753DOPC   D2B 8840   2.081  21.678  12.452 -0.1949  0.1012  0.0877
  753DOPC   C3B 8841   1.728  21.930  12.616 -0.0612  0.1111 -0.1906
  753DOPC   C4B 8842   1.302  21.827  12.777 -0.0313 -0.1486 -0.0550
  754POSM   NC3 8843   8.952  19.168  10.670 -0.0546 -0.0986  0.0355
  754POSM   PO4 8844   8.647  18.923  10.650 -0.2224  0.0551  0.1685
  754POSM   AM1 8845   8.649  18.921  10.952 -0.0089  0.2737  0.2124
  754POSM   AM2 8846   8.837  18.931  11.137 -0.3070 -0.1593 -0.1444
  754POSM   T1A 8847   8.402  19.042  11.374 -0.2974 -0.3070 -0.1614
  754POSM   C2A 8848   8.492  19.136  11.796  0.2210  0.1705  0.1599
  754POSM   C3A 8849   8.653  19.009  12.237 -0.0986 -0.0673  0.0616
  754POSM   C1B 8850   9.139  18.921  11.290 -0.1108 -0.2822  0.1244
  754POSM   D2B 8851   9.451  19.036  11.615  0.1064 -0.3177 -0.1754
  754POSM   C3B 8852   9.605  18.708  11.918 -0.0777  0.0146 -0.0121
  754POSM   C4B 8853   9.870  18.556  12.207 -0.2133  0.0448 -0.0624
  755DOPE   NH3 8854   1.490  19.718  11.038  0.0727  0.1128  0.2959
  755DOPE   PO4 8855   1.759  19.757  11.167  0.3012 -0.0866  0.2440
  755DOPE   GL1 8856   1.673  19.637  11.519  0.2717 -0.2215  0.3235
  755DOPE   GL2 8857   1.449  19.508  11.495 -0.0294 -0.0249  0.0008
  755DOPE   C1A 8858   1.859  19.715  11.967  0.0912  0.2089 -0.1760
  755DOPE   D2A 8859   1.947  19.878  12.365  0.1049 -0.1286 -0.1860
  755DOPE   C3A 8860   2.038  19.735  12.752 -0.0498  0.1093  0.1154
  755DOPE   C4A 8861   1.834  19.441  12.997 -0.0458  0.1919 -0.3325
  755DOPE   C1B 8862   1.332  19.729  11.888  0.1182  0.1030  0.0585
  755DOPE   D2B 8863   1.131  19.620  12.275  0.4746 -0.0016 -0.0269
  755DOPE   C3B 8864   0.921  19.990  12.396 -0.0380 -0.0833  0.0027
  755DOPE   C4B 8865   0.951  20.427  12.575 -0.0739  0.3097 -0.0841
  756DOPE   NH3 8866  11.270  18.877   9.295  0.3165  0.0481 -0.0535
  756DOPE   PO4 8867  11.490  19.058   9.476 -0.0239 -0.1284 -0.0044
  756DOPE   GL1 8868  11.612  18.987   9.860 -0.2372 -0.1217 -0.0690
  756DOPE   GL2 8869  11.389  18.814   9.935 -0.0275  0.0291  0.1069
  756DOPE   C1A 8870  11.783  19.109  10.287 -0.0005 -0.0345 -0.0318
  756DOPE   D2A 8871  12.029  18.976  10.669  0.2588 -0.0302 -0.1727
  756DOPE   C3A 8872  11.920  19.099  11.096 -0.0244 -0.0576 -0.0779
  756DOPE   C4A 8873  12.157  19.328  11.433  0.1014 -0.1310  0.1197
  756DOPE   C1B 8874  11.797  18.560  10.046  0.1295  0.1073 -0.1573
  756DOPE   D2B 8875  12.143  18.438   9.791 -0.0574 -0.1157 -0.0608
  756DOPE   C3B 8876  12.362  18.047   9.974  0.0832 -0.0370  0.2711
  756DOPE   C4B 8877  12.290  17.779  10.311  0.3643 -0.1356 -0.1034
  757DOPS   CNO 8878   5.829  10.967  11.300 -0.1287 -0.1737 -0.0545
  757DOPS   PO4 8879   6.143  10.865  11.159  0.3040 -0.1076 -0.0740
  757DOPS   GL1 8880   6.251  10.888  11.590  0.4058  0.1143 -0.2129
  757DOPS   GL2 8881   6.500  10.648  11.527  0.2671 -0.1638  0.2811
  757DOPS   C1A 8882   6.290  10.855  12.008  0.5142 -0.1661  0.0593
  757DOPS   D2A 8883   6.145  11.004  12.421 -0.1318 -0.1486 -0.0453
  757DOPS   C3A 8884   6.024  10.771  12.780  0.0353  0.3460 -0.0049
  757DOPS   C4A 8885   6.044  10.790  13.166 -0.2193 -0.3192  0.0936
  757DOPS   C1B 8886   6.711  10.978  11.770 -0.2093  0.0602  0.3693
  757DOPS   D2B 8887   6.908  11.118  12.124 -0.0383 -0.2134 -0.1889
  757DOPS   C3B 8888   6.622  11.177  12.516 -0.1290  0.2165  0.0895
  757DOPS   C4B 8889   6.309  11.188  12.875 -0.0955  0.0486 -0.0515
  758DOPE   NH3 8890   2.433  12.308  11.695  0.1749  0.3738 -0.4484
  758DOPE   PO4 8891   2.196  12.390  11.891  0.4174  0.1745  0.0061
  758DOPE   GL1 8892   2.185  12.485  12.254  0.0469  0.2737 -0.0261
  758DOPE   GL2 8893   1.866  12.515  12.301 -0.2841  0.0480  0.0741
  758DOPE   C1A 8894   2.496  12.526  12.607  0.0244 -0.1988  0.1450
  758DOPE   D2A 8895   2.601  12.533  13.091  0.0815 -0.0489 -0.0686
  758DOPE   C3A 8896   2.825  12.273  13.359 -0.1714  0.1172 -0.0964
  758DOPE   C4A 8897   2.804  11.951  13.598  0.0097  0.0586 -0.0696
  758DOPE   C1B 8898   1.950  12.709  12.701  0.3128 -0.0455  0.3124
  758DOPE   D2B 8899   1.998  12.857  13.189  0.1102 -0.2343  0.0560
  758DOPE   C3B 8900   1.846  12.530  13.411 -0.2667 -0.0525  0.0287
  758DOPE   C4B 8901   2.006  12.296  13.742 -0.0625  0.0005  0.0332
  759DOPE   NH3 8902  10.716  10.235  11.684  0.0970  0.3020  0.1592
  759DOPE   PO4 8903  10.524  10.394  11.815  0.0260  0.0797 -0.2169
  759DOPE   GL1 8904  10.849  10.643  11.944  0.1432  0.1661 -0.1186
  759DOPE   GL2 8905  11.037  10.625  11.732 -0.1918  0.1793  0.0472
  759DOPE   C1A 8906  11.062  10.837  12.333 -0.0241  0.0218  0.0560
  759DOPE   D2A 8907  11.054  10.836  12.781 -0.0011 -0.1440 -0.0196
  759DOPE   C3A 8908  10.703  10.594  12.982 -0.1589  0.1723  0.1102
  759DOPE   C4A 8909  10.338  10.423  13.186 -0.1382 -0.0065  0.0198
  759DOPE   C1B 8910  11.310  11.000  11.864  0.1386  0.0563 -0.1107
  759DOPE   D2B 8911  11.375  11.232  12.236  0.1388 -0.0715 -0.1277
  759DOPE   C3B 8912  11.580  10.918  12.577  0.1697 -0.0502  0.1375
  759DOPE   C4B 8913  11.730  10.656  12.883  0.0651  0.1597  0.1211
  760POSM   NC3 8914  10.920  23.118   9.788  0.1000 -0.0107 -0.0889
  760POSM   PO4 8915  11.184  22.930  10.059 -0.1980  0.0088 -0.0327
  760POSM   AM1 8916  11.159  22.926  10.360  0.1002  0.1111  0.0503
  760POSM   AM2 8917  11.276  23.058  10.600 -0.0774  0.0639 -0.2195
  760POSM   T1A 8918  11.041  22.655  10.769 -0.0844  0.0802  0.1691
  760POSM   C2A 8919  10.772  22.565  11.158  0.0592  0.0841  0.0573
  760POSM   C3A 8920  10.700  22.845  11.505  0.0886 -0.1177  0.1002
  760POSM   C1B 8921  11.107  23.189  10.819  0.2237 -0.0689 -0.0248
  760POSM   D2B 8922  11.073  23.259  11.245  0.4190 -0.1078  0.0036
  760POSM   C3B 8923  11.135  23.120  11.672  0.1635  0.0795  0.2666
  760POSM   C4B 8924  11.129  22.716  11.839 -0.1473  0.3668  0.0624
  761DOPC   NC3 8925   8.613  21.923  10.370  0.1119  0.1040 -0.1026
  761DOPC   PO4 8926   8.924  22.093  10.466 -0.2779  0.0457  0.1278
  761DOPC   GL1 8927   8.873  21.997  10.815 -0.2446  0.1168 -0.1015
  761DOPC   GL2 8928   8.688  22.199  10.944  0.1530  0.2140 -0.1101
  761DOPC   C1A 8929   9.081  22.096  11.233 -0.1498 -0.2883 -0.0558
  761DOPC   D2A 8930   9.002  21.874  11.584  0.0499 -0.0521 -0.0873
  761DOPC   C3A 8931   9.396  21.905  11.903 -0.0394 -0.1025  0.0148
  761DOPC   C4A 8932   9.666  21.683  12.195 -0.2041  0.3570 -0.1281
  761DOPC   C1B 8933   8.750  22.575  11.219  0.0617 -0.0610  0.0403
  761DOPC   D2B 8934   8.903  22.979  11.429 -0.3205 -0.1023  0.2388
  761DOPC   C3B 8935   8.936  22.839  11.838 -0.2006  0.2404  0.3609
  761DOPC   C4B 8936   8.953  22.664  12.178 -0.2768  0.1282 -0.1160
  762DOPC   NC3 8937   4.954  11.768  11.583  0.1240  0.1076  0.3818
  762DOPC   PO4 8938   5.056  12.164  11.541 -0.0721  0.0621 -0.2271
  762DOPC   GL1 8939   5.078  12.093  11.941 -0.2123 -0.2214  0.1432
  762DOPC   GL2 8940   5.295  11.950  12.092  0.3180 -0.0848  0.2175
  762DOPC   C1A 8941   4.846  12.083  12.316 -0.0120 -0.0633 -0.1947
  762DOPC   D2A 8942   4.818  12.131  12.767 -0.0628  0.0419 -0.2720
  762DOPC   C3A 8943   4.421  12.360  12.867 -0.0708 -0.0127  0.0606
  762DOPC   C4A 8944   4.321  12.661  13.208 -0.0241 -0.1710 -0.2933
  762DOPC   C1B 8945   5.272  11.975  12.549 -0.2509 -0.1466 -0.0217
  762DOPC   D2B 8946   5.316  12.114  12.936 -0.0498 -0.0968  0.0877
  762DOPC   C3B 8947   5.728  12.001  13.157  0.0744  0.3685  0.1346
  762DOPC   C4B 8948   6.057  12.005  13.449  0.1363 -0.0503 -0.1119
  763DOPE   NH3 8949   3.312  12.552  11.548  0.3122 -0.1178  0.1178
  763DOPE   PO4 8950   3.054  12.705  11.571 -0.2205  0.3394  0.1568
  763DOPE   GL1 8951   3.121  12.691  11.963 -0.3129 -0.0555  0.0936
  763DOPE   GL2 8952   3.388  12.854  12.092 -0.1119  0.0091 -0.4445
  763DOPE   C1A 8953   2.942  12.855  12.368 -0.1037 -0.0042  0.0553
  763DOPE   D2A 8954   2.964  12.804  12.817 -0.0342 -0.0098  0.2016
  763DOPE   C3A 8955   3.268  12.642  13.067  0.1690  0.0357  0.0332
  763DOPE   C4A 8956   3.206  12.533  13.513  0.2730  0.1379 -0.0166
  763DOPE   C1B 8957   3.391  12.672  12.574  0.1493 -0.2856 -0.0607
  763DOPE   D2B 8958   3.533  12.287  12.786 -0.1229 -0.0355 -0.2211
  763DOPE   C3B 8959   3.378  12.110  13.176 -0.2018  0.0208 -0.0984
  763DOPE   C4B 8960   3.351  12.093  13.693 -0.0297  0.2167 -0.0018
  764DOPE   NH3 8961   7.255  16.019  11.341  0.2834  0.0412 -0.0382
  764DOPE   PO4 8962   7.035  15.846  11.467  0.1483 -0.0012 -0.2670
  764DOPE   GL1 8963   7.354  15.962  11.792  0.3453  0.0969  0.0800
  764DOPE   GL2 8964   7.634  15.965  11.775 -0.0331 -0.3837  0.1357
  764DOPE   C1A 8965   7.293  16.016  12.242  0.2770 -0.3684  0.0065
  764DOPE   D2A 8966   7.116  16.170  12.641  0.2020 -0.2212  0.3406
  764DOPE   C3A 8967   7.082  16.427  12.972 -0.0062  0.0649  0.0271
  764DOPE   C4A 8968   6.657  16.613  13.174  0.0008 -0.0100  0.1133
  764DOPE   C1B 8969   7.785  16.099  12.191 -0.0717  0.0416 -0.0405
  764DOPE   D2B 8970   7.665  16.236  12.610  0.2732  0.3672  0.0176
  764DOPE   C3B 8971   7.983  16.516  12.877  0.3535  0.2405  0.0899
  764DOPE   C4B 8972   8.316  16.847  13.058  0.2648  0.1236  0.0465
  765POSM   NC3 8973   4.923  13.367  11.774  0.1481  0.0772 -0.1838
  765POSM   PO4 8974   5.086  13.089  11.593  0.0058  0.1188  0.0366
  765POSM   AM1 8975   5.147  12.993  11.918  0.0749  0.4596 -0.3287
  765POSM   AM2 8976   5.154  12.777  12.107  0.2858 -0.0056 -0.2688
  765POSM   T1A 8977   5.088  13.036  12.470  0.1606 -0.0548 -0.2026
  765POSM   C2A 8978   4.725  13.022  12.782  0.1864 -0.1277  0.2563
  765POSM   C3A 8979   4.335  12.812  12.710  0.1851  0.1016 -0.0516
  765POSM   C1B 8980   5.483  12.621  12.128 -0.0459  0.0796 -0.1644
  765POSM   D2B 8981   5.725  12.299  12.276  0.2455  0.0598 -0.0254
  765POSM   C3B 8982   5.704  12.425  12.733 -0.1175 -0.3064 -0.0425
  765POSM   C4B 8983   5.524  12.568  13.139 -0.2071 -0.1595 -0.1956
  766POSM   NC3 8984   8.740  14.767  10.831 -0.0731 -0.2149  0.1268
  766POSM   PO4 8985   8.997  14.552  11.013  0.1255 -0.0648 -0.1381
  766POSM   AM1 8986   8.844  14.697  11.286 -0.0739 -0.0508  0.1489
  766POSM   AM2 8987   8.668  14.616  11.481 -0.1413 -0.1195 -0.0348
  766POSM   T1A 8988   8.598  15.109  11.455 -0.0858 -0.2208 -0.0091
  766POSM   C2A 8989   8.084  15.189  11.510 -0.2541 -0.0340 -0.0752
  766POSM   C3A 8990   7.814  15.466  11.807  0.0051 -0.1833 -0.0289
  766POSM   C1B 8991   8.740  14.554  11.812  0.1729 -0.0167  0.0878
  766POSM   D2B 8992   8.788  14.448  12.275  0.1156 -0.0802  0.0261
  766POSM   C3B 8993   8.563  14.265  12.625  0.0804 -0.1308 -0.3501
  766POSM   C4B 8994   8.347  14.056  12.970  0.0433  0.1179  0.0070
  767POSM   NC3 8995   0.168  22.005  10.271  0.1520 -0.0327 -0.4031
  767POSM   PO4 8996   0.126  21.626  10.154  0.0211 -0.2856  0.2365
  767POSM   AM1 8997   0.138  21.593  10.465  0.0570  0.1044  0.3918
  767POSM   AM2 8998  -0.058  21.403  10.597 -0.0333 -0.3081 -0.1091
  767POSM   T1A 8999   0.162  21.658  10.964  0.3904  0.2002 -0.1063
  767POSM   C2A 9000  -0.172  21.921  11.197 -0.1133  0.3387  0.0567
  767POSM   C3A 9001  -0.411  22.211  11.561  0.0931 -0.2008 -0.0407
  767POSM   C1B 9002  -0.251  21.369  10.857 -0.2472  0.0145  0.0854
  767POSM   D2B 9003  -0.271  21.411  11.303  0.1868  0.1491 -0.0234
  767POSM   C3B 9004  -0.265  21.697  11.691 -0.0300  0.0847 -0.0819
  767POSM   C4B 9005   0.131  21.934  11.855 -0.0502 -0.0445 -0.1113
  768POSM   NC3 9006  11.496   9.709  11.589 -0.1654 -0.0382 -0.2081
  768POSM   PO4 9007  11.850   9.560  11.433 -0.0940  0.0143  0.2879
  768POSM   AM1 9008  11.928   9.452  11.731  0.0724  0.0857 -0.1377
  768POSM   AM2 9009  12.173   9.457  11.912 -0.1006  0.1250  0.0059
  768POSM   T1A 9010  11.741   9.384  12.227 -0.2386  0.1969  0.0175
  768POSM   C2A 9011  11.423   9.497  12.558 -0.1029 -0.0762  0.0722
  768POSM   C3A 9012  11.317   9.574  13.045  0.0934 -0.0187  0.0566
  768POSM   C1B 9013  12.198   9.425  12.227  0.0243 -0.0810  0.1249
  768POSM   D2B 9014  12.367   9.413  12.642 -0.3577 -0.1359 -0.0883
  768POSM   C3B 9015  12.227   9.145  13.002  0.1576 -0.2616 -0.2256
  768POSM   C4B 9016  12.321   8.856  13.336  0.3083  0.0243  0.2576
  769DOPC   NC3 9017   5.307  20.055  11.227  0.1856 -0.1444 -0.5049
  769DOPC   PO4 9018   4.996  20.312  11.133  0.1191 -0.1857  0.1731
  769DOPC   GL1 9019   4.936  20.587  11.298  0.3051 -0.0144  0.1308
  769DOPC   GL2 9020   4.761  20.803  11.158  0.1017 -0.0770 -0.1775
  769DOPC   C1A 9021   5.013  20.601  11.747  0.0377  0.2695 -0.0127
  769DOPC   D2A 9022   5.155  20.477  12.157 -0.1218 -0.0858 -0.1217
  769DOPC   C3A 9023   5.349  20.604  12.547  0.1218 -0.2380  0.2451
  769DOPC   C4A 9024   5.549  20.502  12.935 -0.0519 -0.2775  0.0733
  769DOPC   C1B 9025   4.803  21.027  11.534  0.1206 -0.1416  0.0695
  769DOPC   D2B 9026   4.791  21.091  11.956  0.2257  0.0116  0.1892
  769DOPC   C3B 9027   5.020  20.957  12.357 -0.2364 -0.1505  0.3056
  769DOPC   C4B 9028   5.252  21.133  12.703 -0.2831 -0.0774 -0.0197
  770DOPC   NC3 9029  11.968  10.400  11.396  0.1091  0.0162 -0.3876
  770DOPC   PO4 9030  11.715  10.628  11.168 -0.1145  0.0156  0.1048
  770DOPC   GL1 9031  11.801  10.915  11.466 -0.0795  0.1779  0.1247
  770DOPC   GL2 9032  11.589  10.685  11.608  0.1098  0.4968 -0.1772
  770DOPC   C1A 9033  11.840  11.046  11.923 -0.0734  0.0424  0.0779
  770DOPC   D2A 9034  11.976  10.992  12.339 -0.1225  0.1237 -0.2648
  770DOPC   C3A 9035  12.132  10.591  12.583  0.0481  0.0716  0.3230
  770DOPC   C4A 9036  12.163  10.515  13.030  0.3702  0.0642 -0.1711
  770DOPC   C1B 9037  11.584  10.663  12.094 -0.3362 -0.1888 -0.0447
  770DOPC   D2B 9038  11.664  10.339  12.424  0.1636  0.0750  0.1073
  770DOPC   C3B 9039  11.952  10.162  12.739 -0.0758  0.1510  0.0594
  770DOPC   C4B 9040  12.245  10.030  13.032 -0.1993 -0.0465 -0.0928
  771DOPE   NH3 9041   8.040  17.725  10.795  0.2781  0.0601  0.2565
  771DOPE   PO4 9042   8.211  17.450  10.836 -0.1083 -0.0056  0.2034
  771DOPE   GL1 9043   8.400  17.612  11.132  0.1968 -0.0702 -0.2380
  771DOPE   GL2 9044   8.177  17.774  11.292  0.0267 -0.1980  0.0874
  771DOPE   C1A 9045   8.784  17.462  11.340 -0.2394 -0.5251  0.2728
  771DOPE   D2A 9046   8.961  17.180  11.658 -0.2962  0.2571 -0.1207
  771DOPE   C3A 9047   8.871  17.242  12.038 -0.2239  0.0037 -0.0897
  771DOPE   C4A 9048   9.093  17.373  12.424 -0.0621 -0.0420 -0.2804
  771DOPE   C1B 9049   8.501  17.797  11.574  0.1767  0.1162  0.1716
  771DOPE   D2B 9050   8.891  17.714  11.785 -0.0736 -0.3399 -0.1432
  771DOPE   C3B 9051   9.260  17.502  11.957  0.3332 -0.1114  0.1657
  771DOPE   C4B 9052   9.624  17.269  12.153  0.0308 -0.1953  0.1703
  772DOPC   NC3 9053   8.005  16.254  11.162 -0.0481  0.0757  0.0145
  772DOPC   PO4 9054   7.794  15.949  11.254  0.1730 -0.0255 -0.2458
  772DOPC   GL1 9055   8.071  15.746  11.467  0.1175 -0.4113 -0.0859
  772DOPC   GL2 9056   8.401  15.605  11.475 -0.0958  0.0552 -0.1704
  772DOPC   C1A 9057   8.110  15.861  11.886 -0.1210 -0.0977  0.1251
  772DOPC   D2A 9058   8.112  15.549  12.225 -0.0866  0.0015  0.2767
  772DOPC   C3A 9059   8.006  15.366  12.653  0.1771  0.0001  0.0105
  772DOPC   C4A 9060   8.012  15.500  13.036  0.0485 -0.3602 -0.1737
  772DOPC   C1B 9061   8.623  15.706  11.884  0.3808  0.3666 -0.2885
  772DOPC   D2B 9062   8.842  16.083  12.030  0.1620  0.1649 -0.3167
  772DOPC   C3B 9063   8.957  15.969  12.433  0.0627 -0.0797  0.2709
  772DOPC   C4B 9064   8.930  16.300  12.758 -0.0842 -0.0737 -0.3174
  773DOPC   NC3 9065   8.707  17.975  11.133  0.1591 -0.2100 -0.3742
  773DOPC   PO4 9066   8.433  18.000  10.840 -0.1063  0.2482  0.3874
  773DOPC   GL1 9067   8.206  18.214  11.113 -0.0494 -0.1147  0.1813
  773DOPC   GL2 9068   8.260  18.509  11.166 -0.0901 -0.0938  0.0649
  773DOPC   C1A 9069   8.194  18.217  11.574 -0.1924 -0.0168 -0.1281
  773DOPC   D2A 9070   8.252  18.115  12.011 -0.1171  0.0732  0.1081
  773DOPC   C3A 9071   8.224  17.870  12.368 -0.2548 -0.0542  0.0093
  773DOPC   C4A 9072   8.331  17.823  12.819 -0.1116  0.1426  0.2033
  773DOPC   C1B 9073   8.623  18.610  11.446 -0.3122 -0.1335  0.0121
  773DOPC   D2B 9074   8.938  18.666  11.797  0.1767 -0.0505 -0.0708
  773DOPC   C3B 9075   8.876  18.419  12.212 -0.0804 -0.2382  0.1040
  773DOPC   C4B 9076   8.700  18.054  12.395  0.0098  0.1675 -0.0483
  774DOPS   CNO 9077   6.538  23.024   9.948 -0.1890  0.2790 -0.1064
  774DOPS   PO4 9078   6.609  23.277  10.222 -0.1316 -0.0696  0.3494
  774DOPS   GL1 9079   6.565  23.449  10.542  0.0027  0.1435  0.0608
  774DOPS   GL2 9080   6.269  23.460  10.539 -0.0321 -0.1921 -0.0471
  774DOPS   C1A 9081   6.851  23.530  10.825  0.1066 -0.0611 -0.2985
  774DOPS   D2A 9082   6.928  23.756  11.245  0.0707  0.0001 -0.2454
  774DOPS   C3A 9083   6.529  23.895  11.465  0.0877 -0.1213  0.0197
  774DOPS   C4A 9084   6.436  24.105  11.922  0.1270  0.0144 -0.1442
  774DOPS   C1B 9085   6.374  23.729  10.913 -0.0953  0.0221  0.1133
  774DOPS   D2B 9086   6.423  24.107  10.983  0.1773  0.0571  0.0863
  774DOPS   C3B 9087   6.299  24.341  11.350  0.0124 -0.1321 -0.0611
  774DOPS   C4B 9088   6.052  24.440  11.710  0.0607  0.2571  0.0513
  775POSM   NC3 9089   7.548  13.304  10.795  0.1214 -0.2540 -0.1038
  775POSM   PO4 9090   7.520  13.418  11.201 -0.0772 -0.4421 -0.0551
  775POSM   AM1 9091   7.453  13.436  11.508 -0.0671  0.1010 -0.0841
  775POSM   AM2 9092   7.369  13.293  11.727  0.0277  0.3025  0.0892
  775POSM   T1A 9093   7.691  13.682  11.877  0.1726 -0.0534  0.0463
  775POSM   C2A 9094   7.760  13.979  12.229 -0.0266  0.0050 -0.2338
  775POSM   C3A 9095   8.055  14.179  12.509 -0.1313 -0.0242  0.0497
  775POSM   C1B 9096   7.369  13.320  12.057 -0.1053 -0.1912 -0.2127
  775POSM   D2B 9097   7.590  13.549  12.399  0.1239  0.1879 -0.0482
  775POSM   C3B 9098   7.251  13.544  12.708 -0.0317  0.1236  0.1054
  775POSM   C4B 9099   6.845  13.515  12.915  0.3766  0.0422  0.0360
  776DOPS   CNO 9100   7.423  20.493  10.355 -0.6087  0.3234  0.2371
  776DOPS   PO4 9101   7.375  20.637  10.721 -0.1798 -0.1977 -0.0269
  776DOPS   GL1 9102   7.519  20.749  11.025  0.1405  0.3391  0.1471
  776DOPS   GL2 9103   7.863  20.709  11.101  0.3309  0.1858 -0.0021
  776DOPS   C1A 9104   7.490  21.022  11.351 -0.2578 -0.2056 -0.2352
  776DOPS   D2A 9105   7.226  21.309  11.572 -0.3285 -0.3470 -0.0192
  776DOPS   C3A 9106   7.364  21.444  12.013  0.1280  0.2495 -0.0113
  776DOPS   C4A 9107   7.164  21.814  12.293 -0.0980 -0.1002  0.1282
  776DOPS   C1B 9108   7.981  21.067  11.330 -0.2351 -0.3142  0.2149
  776DOPS   D2B 9109   8.217  21.424  11.523 -0.4075 -0.3542  0.3740
  776DOPS   C3B 9110   8.131  21.711  11.858 -0.2233 -0.1657 -0.4179
  776DOPS   C4B 9111   7.767  21.715  12.180  0.0440 -0.1546 -0.1315
  777POSM   NC3 9112   4.335  18.266  11.296 -0.0203 -0.1381 -0.0722
  777POSM   PO4 9113   4.094  18.139  11.599  0.1578  0.1279 -0.1894
  777POSM   AM1 9114   4.228  18.246  11.875 -0.3619  0.0293 -0.1054
  777POSM   AM2 9115   4.166  18.161  12.116  0.1899 -0.0104  0.2091
  777POSM   T1A 9116   4.180  18.630  12.192 -0.0959  0.0455  0.0878
  777POSM   C2A 9117   3.908  18.669  12.608 -0.0532  0.0313 -0.2039
  777POSM   C3A 9118   3.791  18.956  12.944 -0.0432 -0.1048 -0.3189
  777POSM   C1B 9119   3.936  18.139  12.294  0.3449 -0.1220  0.1452
  777POSM   D2B 9120   3.606  17.972  12.524 -0.3829 -0.0178 -0.0100
  777POSM   C3B 9121   3.657  18.293  12.827 -0.0221 -0.2259 -0.1636
  777POSM   C4B 9122   3.500  18.596  13.155 -0.0568  0.1089 -0.0389
  778DOPC   NC3 9123   2.563  20.832  10.824 -0.1758  0.3970 -0.4523
  778DOPC   PO4 9124   2.864  20.880  11.067  0.1336 -0.2257 -0.2521
  778DOPC   GL1 9125   3.094  20.803  11.425  0.1615 -0.1664 -0.0738
  778DOPC   GL2 9126   3.360  20.776  11.255  0.3494  0.3613  0.1280
  778DOPC   C1A 9127   2.886  20.665  11.789  0.1544  0.2108  0.3622
  778DOPC   D2A 9128   2.590  20.825  12.042 -0.0738  0.7187 -0.1226
  778DOPC   C3A 9129   2.461  20.850  12.503  0.2809  0.0592 -0.3481
  778DOPC   C4A 9130   2.277  20.838  12.927 -0.1464  0.1267  0.0209
  778DOPC   C1B 9131   3.488  20.918  11.664  0.2683 -0.3531 -0.0440
  778DOPC   D2B 9132   3.818  20.945  12.002 -0.1080 -0.1795 -0.0304
  778DOPC   C3B 9133   4.052  21.309  12.264 -0.1696 -0.2377  0.1078
  778DOPC   C4B 9134   4.525  21.409  12.274 -0.0618 -0.4056  0.1532
  779DOPC   NC3 9135   9.800  14.575  10.866  0.1684  0.1333 -0.1399
  779DOPC   PO4 9136   9.940  14.183  10.912  0.1460 -0.1069 -0.3580
  779DOPC   GL1 9137   9.886  14.408  11.293 -0.1356  0.2195  0.0364
  779DOPC   GL2 9138  10.126  14.243  11.412 -0.2863  0.1626 -0.0582
  779DOPC   C1A 9139  10.067  14.803  11.329  0.1054  0.0055 -0.1624
  779DOPC   D2A 9140  10.417  15.009  11.561  0.1405 -0.0618 -0.0451
  779DOPC   C3A 9141  10.607  15.195  11.972  0.0909 -0.1376 -0.0479
  779DOPC   C4A 9142  10.366  15.328  12.352 -0.0564  0.1075 -0.1986
  779DOPC   C1B 9143  10.254  14.517  11.771 -0.0792 -0.1239 -0.0941
  779DOPC   D2B 9144  10.231  14.881  12.084 -0.0756  0.2369  0.0463
  779DOPC   C3B 9145  10.016  15.298  12.047  0.0252  0.1563 -0.2158
  779DOPC   C4B 9146   9.661  15.424  12.289  0.0360 -0.1970 -0.1660
  780DOPC   NC3 9147   2.536  11.499  11.780  0.1558 -0.0946 -0.2044
  780DOPC   PO4 9148   2.660  11.870  11.698 -0.0352 -0.0800 -0.2204
  780DOPC   GL1 9149   2.684  12.048  12.046 -0.1139  0.2969 -0.0517
  780DOPC   GL2 9150   2.434  12.060  12.186  0.1093  0.1368 -0.1742
  780DOPC   C1A 9151   2.849  11.821  12.439 -0.0442  0.0773  0.1918
  780DOPC   D2A 9152   3.179  11.787  12.705  0.0301  0.0854 -0.0847
  780DOPC   C3A 9153   2.996  11.780  13.115 -0.0426  0.0286  0.3879
  780DOPC   C4A 9154   2.908  11.472  13.362  0.0848  0.0621  0.0790
  780DOPC   C1B 9155   2.227  12.130  12.606 -0.3186  0.2671  0.1434
  780DOPC   D2B 9156   2.143  12.331  12.979  0.0222 -0.0953 -0.2439
  780DOPC   C3B 9157   1.845  12.085  13.252  0.0842 -0.0304  0.0843
  780DOPC   C4B 9158   1.670  11.802  13.586 -0.0361 -0.0512  0.0071
  781POSM   NC3 9159   8.790  24.458  10.124 -0.2015  0.1101 -0.3661
  781POSM   PO4 9160   9.129  24.376  10.349  0.3407  0.0190 -0.1049
  781POSM   AM1 9161   9.135  24.193  10.622 -0.2309 -0.3340 -0.0369
  781POSM   AM2 9162   9.017  24.145  10.868  0.0701  0.2098 -0.0276
  781POSM   T1A 9163   9.500  24.157  11.002  0.1918 -0.1265 -0.0461
  781POSM   C2A 9164   9.403  24.202  11.489  0.0723  0.2306 -0.1648
  781POSM   C3A 9165   9.409  24.299  11.964 -0.0303  0.0084  0.3691
  781POSM   C1B 9166   9.009  24.310  11.183  0.1495 -0.0047 -0.0110
  781POSM   D2B 9167   9.042  24.477  11.633  0.0772  0.2492 -0.1264
  781POSM   C3B 9168   9.253  24.810  11.807 -0.0548 -0.1781  0.0163
  781POSM   C4B 9169   9.544  25.071  12.144 -0.3295 -0.2095  0.4108
  782POSM   NC3 9170   4.808  12.676  11.475  0.1084  0.0293 -0.1578
  782POSM   PO4 9171   4.499  12.490  11.522 -0.0430 -0.0163  0.0429
  782POSM   AM1 9172   4.354  12.555  11.809 -0.1126 -0.2056  0.4283
  782POSM   AM2 9173   4.285  12.381  11.996  0.0091 -0.0403  0.1822
  782POSM   T1A 9174   4.476  12.687  12.271 -0.3921  0.0253 -0.2268
  782POSM   C2A 9175   4.821  12.566  12.435  0.1554  0.2346 -0.0846
  782POSM   C3A 9176   5.231  12.552  12.643 -0.1534 -0.0114 -0.2310
  782POSM   C1B 9177   4.325  12.204  12.302 -0.0293 -0.0537  0.2446
  782POSM   D2B 9178   4.042  12.045  12.679 -0.3075 -0.0148 -0.2103
  782POSM   C3B 9179   4.032  12.215  13.068  0.1667 -0.1483  0.1145
  782POSM   C4B 9180   3.793  12.198  13.455  0.1341  0.0155  0.0414
  783DOPE   NH3 9181   6.087  16.182  11.574  0.1383 -0.1940 -0.0952
  783DOPE   PO4 9182   5.798  16.046  11.609  0.0987  0.0604 -0.0558
  783DOPE   GL1 9183   5.816  16.211  11.943  0.1997 -0.0397 -0.1186
  783DOPE   GL2 9184   6.094  16.234  12.087  0.2502 -0.1914  0.2952
  783DOPE   C1A 9185   5.655  16.350  12.331  0.2696 -0.2151  0.1545
  783DOPE   D2A 9186   5.326  16.183  12.662  0.0485 -0.0695  0.1793
  783DOPE   C3A 9187   5.177  15.748  12.809 -0.0361 -0.0803  0.2952
  783DOPE   C4A 9188   5.127  15.622  13.230 -0.1026 -0.1967  0.0048
  783DOPE   C1B 9189   6.232  16.178  12.498 -0.2257 -0.1702  0.3543
  783DOPE   D2B 9190   6.283  15.896  12.890 -0.1369  0.0519 -0.0147
  783DOPE   C3B 9191   6.684  15.634  13.005 -0.1288 -0.0262  0.0344
  783DOPE   C4B 9192   6.934  15.302  13.206 -0.0159  0.1724 -0.0245
  784DOPS   CNO 9193  10.932  14.418  10.511 -0.4977 -0.2673 -0.2369
  784DOPS   PO4 9194  10.673  14.383  10.753 -0.0447 -0.1485  0.4396
  784DOPS   GL1 9195  10.613  14.415  11.225 -0.0099  0.4435  0.1149
  784DOPS   GL2 9196  10.366  14.552  11.090  0.0695 -0.1951  0.2242
  784DOPS   C1A 9197  10.727  14.225  11.671  0.2393  0.2390  0.0325
  784DOPS   D2A 9198  10.697  13.962  12.047 -0.0554 -0.0295 -0.3588
  784DOPS   C3A 9199  10.512  14.181  12.424  0.2689  0.0360 -0.2253
  784DOPS   C4A 9200  10.208  14.435  12.530 -0.0299 -0.0805  0.1561
  784DOPS   C1B 9201  10.622  15.012  11.086 -0.1935  0.0756  0.3177
  784DOPS   D2B 9202  10.865  15.286  11.319 -0.1151  0.0819  0.0657
  784DOPS   C3B 9203  10.915  15.516  11.732 -0.0968 -0.2126 -0.1972
  784DOPS   C4B 9204  11.291  15.792  11.923 -0.0989  0.0438  0.2569
  785DOPE   NH3 9205   9.382  21.911  10.763 -0.0841  0.0376  0.0609
  785DOPE   PO4 9206   9.684  21.965  10.772 -0.0549  0.3238 -0.4404
  785DOPE   GL1 9207   9.717  22.217  11.032  0.0039 -0.2026  0.1197
  785DOPE   GL2 9208  10.007  22.103  11.115  0.0727 -0.0503  0.2491
  785DOPE   C1A 9209   9.691  22.370  11.511 -0.0376  0.3779  0.1651
  785DOPE   D2A 9210   9.778  22.806  11.689 -0.2473  0.1615 -0.1194
  785DOPE   C3A 9211   9.954  22.913  12.094 -0.1141  0.2006  0.0445
  785DOPE   C4A 9212   9.638  22.844  12.461 -0.0078  0.1328  0.2181
  785DOPE   C1B 9213  10.431  22.128  11.117 -0.0283 -0.1742  0.0666
  785DOPE   D2B 9214  10.664  21.885  11.404 -0.2395  0.1848 -0.2656
  785DOPE   C3B 9215  11.131  21.828  11.326  0.0127  0.1187 -0.1668
  785DOPE   C4B 9216  11.543  21.666  11.307 -0.0526  0.2843  0.2610
  786DOPC   NC3 9217   3.131  17.683  11.986 -0.3077  0.0486 -0.0250
  786DOPC   PO4 9218   3.088  17.985  11.730  0.0720 -0.2064  0.2864
  786DOPC   GL1 9219   3.311  18.254  11.927  0.0333  0.0895  0.1394
  786DOPC   GL2 9220   3.435  18.115  12.120  0.0344 -0.4558 -0.0724
  786DOPC   C1A 9221   3.175  18.673  12.095 -0.2784 -0.2044  0.2649
  786DOPC   D2A 9222   3.124  18.985  12.330  0.2180  0.3157 -0.1616
  786DOPC   C3A 9223   3.518  19.167  12.438  0.2470  0.2767  0.0811
  786DOPC   C4A 9224   3.862  19.413  12.663 -0.0087 -0.0943 -0.0361
  786DOPC   C1B 9225   3.554  18.540  12.325 -0.0012  0.2618  0.1579
  786DOPC   D2B 9226   3.384  18.744  12.697  0.1800  0.0077 -0.2353
  786DOPC   C3B 9227   2.937  18.763  12.751 -0.1716 -0.1293 -0.0028
  786DOPC   C4B 9228   2.730  18.966  13.061  0.0236  0.1348  0.0067
  787DOPC   NC3 9229   6.066  13.773  11.601  0.2844  0.2027 -0.2392
  787DOPC   PO4 9230   5.905  13.451  11.551 -0.1586 -0.3219  0.1557
  787DOPC   GL1 9231   5.886  13.436  11.921 -0.1003 -0.0021  0.2709
  787DOPC   GL2 9232   6.069  13.575  12.084  0.1349 -0.3711 -0.0802
  787DOPC   C1A 9233   5.585  13.424  12.285  0.1936  0.0358  0.0250
  787DOPC   D2A 9234   5.690  13.379  12.761 -0.0896 -0.1636 -0.1664
  787DOPC   C3A 9235   5.864  13.225  13.122 -0.0752 -0.4554  0.0968
  787DOPC   C4A 9236   6.248  13.181  13.265  0.0280 -0.2857 -0.3058
  787DOPC   C1B 9237   6.278  14.016  12.095  0.3441 -0.0706 -0.1604
  787DOPC   D2B 9238   6.485  14.393  12.415  0.0565  0.1279 -0.0906
  787DOPC   C3B 9239   6.708  14.200  12.762  0.2326  0.1137  0.0702
  787DOPC   C4B 9240   6.664  14.284  13.164  0.2022 -0.1213  0.2550
  788POSM   NC3 9241   9.700  13.632  10.771 -0.1059 -0.0317  0.0531
  788POSM   PO4 9242   9.364  13.397  10.890 -0.1326  0.1639 -0.0209
  788POSM   AM1 9243   9.365  13.584  11.184  0.3729  0.2936  0.4104
  788POSM   AM2 9244   9.277  13.806  11.341  0.3043 -0.0167 -0.2231
  788POSM   T1A 9245   9.597  13.586  11.623 -0.1861  0.1278 -0.4581
  788POSM   C2A 9246   9.811  13.558  12.057  0.1058 -0.0809  0.0652
  788POSM   C3A 9247  10.242  13.532  12.252 -0.2505  0.1608  0.3189
  788POSM   C1B 9248   9.431  14.063  11.528 -0.0270  0.1027  0.0643
  788POSM   D2B 9249   9.776  14.010  11.817 -0.0207  0.0879 -0.0199
  788POSM   C3B 9250   9.519  13.943  12.169 -0.2143 -0.1782 -0.1756
  788POSM   C4B 9251   9.244  13.645  12.443  0.3833  0.0169  0.1655
  789POSM   NC3 9252   0.404  20.196  10.727  0.2376 -0.1940 -0.1232
  789POSM   PO4 9253   0.699  19.994  10.701  0.1635 -0.1214  0.2828
  789POSM   AM1 9254   0.761  20.100  11.011  0.0300 -0.1708 -0.0116
  789POSM   AM2 9255   0.977  20.250  11.143  0.0316  0.2277 -0.1817
  789POSM   T1A 9256   0.551  20.222  11.431 -0.5016  0.1586  0.1832
  789POSM   C2A 9257   0.304  20.274  11.798 -0.1700  0.0783 -0.1484
  789POSM   C3A 9258   0.119  20.461  12.177 -0.1853  0.0175 -0.3860
  789POSM   C1B 9259   1.028  20.337  11.483  0.0180  0.1202  0.5325
  789POSM   D2B 9260   1.263  20.297  11.899  0.1750  0.0673  0.0138
  789POSM   C3B 9261   1.334  20.557  12.282 -0.1747 -0.0314 -0.0051
  789POSM   C4B 9262   1.438  20.484  12.720 -0.0979  0.1746 -0.1953
  790DOPS   CNO 9263   4.765  16.875  11.437  0.1556 -0.1020 -0.1326
  790DOPS   PO4 9264   4.768  16.548  11.645 -0.3019  0.0202 -0.1887
  790DOPS   GL1 9265   4.770  16.728  12.032  0.0350  0.2940 -0.1165
  790DOPS   GL2 9266   5.015  16.938  11.927 -0.1988 -0.0642 -0.2076
  790DOPS   C1A 9267   4.664  16.516  12.474 -0.0824 -0.1425 -0.1350
  790DOPS   D2A 9268   4.511  16.568  12.896 -0.1209  0.1449  0.2148
  790DOPS   C3A 9269   4.225  16.873  13.093 -0.0732 -0.3032 -0.2988
  790DOPS   C4A 9270   3.894  17.069  13.367  0.1788  0.1459 -0.1444
  790DOPS   C1B 9271   5.083  16.943  12.359 -0.0145 -0.2528  0.0674
  790DOPS   D2B 9272   5.123  16.689  12.714  0.0684 -0.2230 -0.0791
  790DOPS   C3B 9273   5.588  16.652  12.694  0.2665  0.0026 -0.0576
  790DOPS   C4B 9274   5.892  16.554  13.034 -0.4228 -0.3005 -0.3676
  791POSM   NC3 9275   1.293   9.871  11.103  0.0530 -0.2297  0.2105
  791POSM   PO4 9276   1.073  10.011  11.394  0.6178  0.1049  0.2066
  791POSM   AM1 9277   1.038   9.837  11.698  0.0167 -0.3826 -0.2261
  791POSM   AM2 9278   0.954   9.594  11.755 -0.2397  0.1279 -0.4124
  791POSM   T1A 9279   1.157   9.954  12.174 -0.3584  0.4165 -0.0580
  791POSM   C2A 9280   1.119  10.088  12.606  0.0208  0.1247  0.1467
  791POSM   C3A 9281   1.197   9.809  12.927 -0.5112  0.2459 -0.0790
  791POSM   C1B 9282   0.950   9.485  12.076 -0.2592 -0.0881 -0.0109
  791POSM   D2B 9283   0.944   9.620  12.541  0.0093 -0.2063  0.1961
  791POSM   C3B 9284   0.574   9.725  12.761 -0.2793  0.1893 -0.0326
  791POSM   C4B 9285   0.161   9.710  12.980 -0.1831 -0.1530  0.1443
  792DOPE   NH3 9286   5.080  23.858  10.450  0.1274 -0.0479  0.0287
  792DOPE   PO4 9287   4.794  23.947  10.682 -0.0139  0.1062 -0.0584
  792DOPE   GL1 9288   4.707  23.890  11.054  0.3050  0.2350  0.1173
  792DOPE   GL2 9289   4.762  23.778  11.289 -0.0179  0.0188 -0.1034
  792DOPE   C1A 9290   4.379  24.189  11.279  0.0879  0.1583  0.0171
  792DOPE   D2A 9291   4.186  24.257  11.634 -0.0693  0.5654 -0.3415
  792DOPE   C3A 9292   4.337  24.609  11.831 -0.0686 -0.1413  0.2638
  792DOPE   C4A 9293   4.761  24.648  12.082  0.3459 -0.1260 -0.0654
  792DOPE   C1B 9294   4.848  23.675  11.734  0.0143 -0.2558  0.2450
  792DOPE   D2B 9295   4.697  23.622  12.141 -0.1555  0.2635  0.0590
  792DOPE   C3B 9296   4.791  23.325  12.544  0.0388 -0.2235 -0.0349
  792DOPE   C4B 9297   4.922  22.845  12.536 -0.2585 -0.3249  0.3877
  793DOPE   NH3 9298   5.121  14.038  11.483  0.1659 -0.0674  0.1680
  793DOPE   PO4 9299   5.008  13.815  11.717 -0.4284 -0.0065 -0.0325
  793DOPE   GL1 9300   5.028  13.792  12.120 -0.2944  0.0726 -0.0326
  793DOPE   GL2 9301   5.061  13.540  12.219  0.0593  0.2365 -0.1411
  793DOPE   C1A 9302   5.329  13.925  12.455 -0.0285 -0.3648 -0.0159
  793DOPE   D2A 9303   5.553  13.939  12.824 -0.2009  0.0007 -0.0958
  793DOPE   C3A 9304   5.446  13.573  13.119 -0.5154  0.0585  0.1079
  793DOPE   C4A 9305   5.525  13.299  13.457 -0.0430 -0.0731  0.0179
  793DOPE   C1B 9306   5.026  13.476  12.729 -0.4637  0.0367 -0.3032
  793DOPE   D2B 9307   4.691  13.444  13.060 -0.1341 -0.1599  0.1405
  793DOPE   C3B 9308   4.679  13.033  13.283  0.0109  0.0399  0.2475
  793DOPE   C4B 9309   4.706  12.648  13.571 -0.5488  0.2063  0.0770
  794DOPE   NH3 9310   2.050  13.811  11.882  0.1153  0.3082  0.3490
  794DOPE   PO4 9311   1.710  13.728  11.922 -0.2908 -0.1685 -0.1225
  794DOPE   GL1 9312   1.724  13.703  12.245  0.2187 -0.0618  0.3752
  794DOPE   GL2 9313   1.923  13.758  12.398 -0.0248 -0.2516  0.0910
  794DOPE   C1A 9314   1.365  13.637  12.493 -0.1944  0.2075  0.3469
  794DOPE   D2A 9315   1.277  13.385  12.821  0.1710 -0.1934 -0.0744
  794DOPE   C3A 9316   1.413  13.492  13.231 -0.3143  0.1905 -0.1972
  794DOPE   C4A 9317   1.171  13.862  13.496  0.2828 -0.0786  0.0386
  794DOPE   C1B 9318   1.764  13.726  12.830  0.0455  0.2047 -0.2736
  794DOPE   D2B 9319   1.830  13.814  13.286 -0.2434 -0.1412  0.1225
  794DOPE   C3B 9320   1.623  13.582  13.628 -0.0243 -0.2484  0.2393
  794DOPE   C4B 9321   1.637  13.220  13.833  0.0488  0.0604  0.2602
  795DOPS   CNO 9322   5.794  14.016  11.275  0.0647  0.1425  0.2611
  795DOPS   PO4 9323   5.568  13.888  11.563  0.2093  0.2466 -0.1545
  795DOPS   GL1 9324   5.687  13.813  11.937 -0.1705 -0.1834  0.2567
  795DOPS   GL2 9325   5.711  14.111  11.979  0.3828 -0.2156 -0.3062
  795DOPS   C1A 9326   5.810  13.822  12.395  0.0779 -0.2037  0.0723
  795DOPS   D2A 9327   6.065  14.082  12.635  0.0533  0.1077  0.1056
  795DOPS   C3A 9328   6.135  14.242  13.064  0.0500 -0.3503  0.0615
  795DOPS   C4A 9329   6.262  14.143  13.525 -0.0449  0.1317  0.0075
  795DOPS   C1B 9330   5.745  14.390  12.378  0.0363 -0.0768  0.3555
  795DOPS   D2B 9331   5.506  14.808  12.537  0.0342 -0.0718 -0.1542
  795DOPS   C3B 9332   5.777  15.091  12.751 -0.2571  0.4530 -0.2954
  795DOPS   C4B 9333   6.094  15.490  12.619  0.4277  0.0574 -0.1703
  796POSM   NC3 9334   8.655  15.884  10.731  0.0319  0.1084  0.0817
  796POSM   PO4 9335   9.041  15.900  10.774 -0.1471 -0.1181 -0.1526
  796POSM   AM1 9336   9.239  15.896  11.018  0.3087 -0.2679 -0.0615
  796POSM   AM2 9337   9.346  15.777  11.284  0.0219 -0.0319  0.4528
  796POSM   T1A 9338   9.532  16.235  11.209 -0.0369 -0.1326  0.0958
  796POSM   C2A 9339   9.675  16.131  11.626 -0.1816 -0.0539  0.1400
  796POSM   C3A 9340   9.832  16.144  12.061 -0.1674 -0.1555 -0.1116
  796POSM   C1B 9341   9.604  15.658  11.449 -0.1772  0.0829 -0.2165
  796POSM   D2B 9342   9.634  15.631  11.890  0.0473 -0.0486 -0.1281
  796POSM   C3B 9343   9.500  15.848  12.267 -0.0933 -0.1757  0.2242
  796POSM   C4B 9344   9.742  16.063  12.585  0.0414  0.1565  0.0653
  797POSM   NC3 9345   9.123  17.648  10.458  0.1451  0.0022  0.1186
  797POSM   PO4 9346   9.372  17.962  10.480 -0.2787 -0.0206  0.1369
  797POSM   AM1 9347   9.580  17.746  10.669 -0.1563  0.3302  0.3491
  797POSM   AM2 9348   9.619  17.486  10.790  0.1770  0.2813  0.2078
  797POSM   T1A 9349   9.991  17.789  10.891  0.0793 -0.1927 -0.0295
  797POSM   C2A 9350  10.379  17.954  11.030  0.1079  0.2847 -0.0647
  797POSM   C3A 9351  10.860  17.968  10.901 -0.2107  0.0724  0.0506
  797POSM   C1B 9352   9.752  17.345  11.076 -0.0023 -0.1960  0.2881
  797POSM   D2B 9353   9.871  17.219  11.445  0.4052 -0.4237 -0.0284
  797POSM   C3B 9354   9.580  16.999  11.681 -0.0734  0.3145  0.0677
  797POSM   C4B 9355   9.370  16.565  11.614  0.3799 -0.2698 -0.1520
  798DOPE   NH3 9356  10.663   9.829  11.253 -0.2580  0.0441 -0.1700
  798DOPE   PO4 9357  10.475   9.812  11.528 -0.1290 -0.0485  0.2644
  798DOPE   GL1 9358  10.290   9.923  11.998 -0.0161 -0.4267  0.1869
  798DOPE   GL2 9359  10.059   9.773  11.993 -0.1852  0.2035 -0.0981
  798DOPE   C1A 9360  10.453   9.737  12.383 -0.2294 -0.1690  0.0747
  798DOPE   D2A 9361  10.381   9.672  12.853 -0.2806 -0.0589 -0.1157
  798DOPE   C3A 9362  10.348   9.300  13.140 -0.0039  0.1393  0.3243
  798DOPE   C4A 9363  10.645   8.966  13.263 -0.1996  0.0009  0.0561
  798DOPE   C1B 9364   9.940   9.799  12.455  0.3246 -0.3319  0.1868
  798DOPE   D2B 9365  10.026  10.035  12.796  0.0295 -0.2398 -0.2268
  798DOPE   C3B 9366   9.906  10.443  12.676  0.3713 -0.2476 -0.0394
  798DOPE   C4B 9367  10.050  10.859  12.728  0.0187  0.0954  0.0463
  799DOPS   CNO 9368  34.547  20.130   9.936 -0.0807  0.3935  0.1888
  799DOPS   PO4 9369  34.427  20.398  10.179 -0.0204  0.3392 -0.0579
  799DOPS   GL1 9370  34.499  20.361  10.533  0.2724 -0.0433  0.3885
  799DOPS   GL2 9371  34.750  20.421  10.656 -0.5198  0.3207 -0.3905
  799DOPS   C1A 9372  34.369  20.648  10.903 -0.1780 -0.1118 -0.0820
  799DOPS   D2A 9373  34.226  21.069  11.043 -0.1298 -0.0834 -0.1818
  799DOPS   C3A 9374  33.999  20.891  11.387 -0.1376  0.0358  0.0964
  799DOPS   C4A 9375  33.631  20.781  11.607 -0.1255  0.1910 -0.0457
  799DOPS   C1B 9376  34.836  20.422  11.077 -0.3113  0.3877  0.0974
  799DOPS   D2B 9377  34.937  20.679  11.471  0.2489  0.3601 -0.1900
  799DOPS   C3B 9378  34.869  21.066  11.706  0.0754  0.1946 -0.2168
  799DOPS   C4B 9379  34.996  21.527  11.511 -0.2159 -0.1731  0.0830
  800DOPE   NH3 9380   7.764  18.324  11.197 -0.2716 -0.1787  0.3553
  800DOPE   PO4 9381   7.689  18.059  11.104 -0.1679  0.2032 -0.1530
  800DOPE   GL1 9382   7.711  17.913  11.463 -0.0908  0.0052  0.0132
  800DOPE   GL2 9383   7.740  18.108  11.708  0.0994 -0.0372 -0.0490
  800DOPE   C1A 9384   7.343  17.722  11.746 -0.0454 -0.0626  0.3080
  800DOPE   D2A 9385   7.012  17.439  11.970 -0.1379  0.0952 -0.1141
  800DOPE   C3A 9386   7.229  17.132  12.314 -0.0807  0.0884 -0.0382
  800DOPE   C4A 9387   7.596  17.151  12.567  0.0493  0.0024 -0.0229
  800DOPE   C1B 9388   7.881  18.430  11.965 -0.2062 -0.0609 -0.3106
  800DOPE   D2B 9389   7.946  18.812  12.187  0.1412  0.1158  0.1477
  800DOPE   C3B 9390   7.774  18.746  12.592 -0.0761  0.1241 -0.1146
  800DOPE   C4B 9391   7.854  18.575  12.994 -0.1469  0.2033 -0.2935
  801POSM   NC3 9392   0.560  13.923  11.886  0.1390  0.0402 -0.3455
  801POSM   PO4 9393   0.530  14.323  11.797  0.2540  0.2380 -0.2961
  801POSM   AM1 9394   0.528  14.334  12.122  0.1465 -0.2322  0.0404
  801POSM   AM2 9395   0.589  14.163  12.352 -0.0178  0.0135  0.1463
  801POSM   T1A 9396   0.235  14.484  12.550 -0.0960  0.3683  0.1500
  801POSM   C2A 9397   0.132  14.235  12.868  0.2185 -0.1700  0.0654
  801POSM   C3A 9398  -0.181  14.057  13.132 -0.4595 -0.0458  0.1421
  801POSM   C1B 9399   0.440  14.004  12.517  0.1003  0.0801 -0.1696
  801POSM   D2B 9400   0.452  13.792  12.952  0.0611  0.0400 -0.1783
  801POSM   C3B 9401   0.639  14.058  13.244 -0.2317 -0.1072 -0.1594
  801POSM   C4B 9402   0.687  14.258  13.639 -0.0069 -0.4526  0.0767
  802POSM   NC3 9403  34.581  19.946  10.446 -0.1498  0.0818 -0.1992
  802POSM   PO4 9404  34.885  19.830  10.632  0.0120 -0.1253 -0.1410
  802POSM   AM1 9405  34.859  19.847  10.935  0.0443 -0.1062 -0.0724
  802POSM   AM2 9406  34.942  19.907  11.183  0.2987  0.1492 -0.0594
  802POSM   T1A 9407  34.480  19.736  11.237  0.1050  0.1587 -0.0511
  802POSM   C2A 9408  34.292  19.803  11.706 -0.2278 -0.1383 -0.0907
  802POSM   C3A 9409  34.257  19.468  12.029  0.0177  0.0301  0.2881
  802POSM   C1B 9410  34.795  20.085  11.439  0.1014  0.1544  0.1690
  802POSM   D2B 9411  34.609  20.232  11.857  0.1093  0.1700  0.1773
  802POSM   C3B 9412  34.323  20.064  12.170  0.0502 -0.0450 -0.4445
  802POSM   C4B 9413  34.091  20.215  12.556  0.0018  0.0966  0.2501
  803DOPC   NC3 9414   4.537  21.110  10.427  0.0288 -0.2144 -0.2172
  803DOPC   PO4 9415   4.870  20.971  10.640  0.1531 -0.2337  0.0125
  803DOPC   GL1 9416   4.654  21.206  10.904  0.4854  0.1424  0.1271
  803DOPC   GL2 9417   4.933  21.278  11.098  0.0925  0.2038 -0.0184
  803DOPC   C1A 9418   4.526  21.587  11.199 -0.1562 -0.0563  0.1766
  803DOPC   D2A 9419   4.668  21.927  11.529  0.4596 -0.3154 -0.1054
  803DOPC   C3A 9420   4.389  22.286  11.687 -0.1982  0.2457 -0.1266
  803DOPC   C4A 9421   4.519  22.524  12.038  0.0604  0.0853  0.2547
  803DOPC   C1B 9422   5.019  21.489  11.484  0.2257 -0.1017 -0.1574
  803DOPC   D2B 9423   4.839  21.635  11.918  0.2488  0.0870  0.0320
  803DOPC   C3B 9424   5.160  21.497  12.262  0.0825  0.2917 -0.1751
  803DOPC   C4B 9425   5.601  21.312  12.288 -0.1751 -0.0114 -0.0049
  804POSM   NC3 9426   3.131  19.559  11.332  0.0152 -0.1047 -0.0320
  804POSM   PO4 9427   3.284  19.823  11.073  0.3928 -0.2624 -0.1648
  804POSM   AM1 9428   3.212  19.997  11.334 -0.1512 -0.2809 -0.2455
  804POSM   AM2 9429   3.412  20.075  11.515  0.0511 -0.1496 -0.1169
  804POSM   T1A 9430   2.907  20.168  11.729 -0.0297 -0.0089  0.3512
  804POSM   C2A 9431   2.487  20.372  11.740 -0.0913 -0.1312 -0.0859
  804POSM   C3A 9432   2.072  20.561  11.608  0.2854  0.3304 -0.1587
  804POSM   C1B 9433   3.462  20.297  11.707  0.0132 -0.1112 -0.0082
  804POSM   D2B 9434   3.304  20.597  12.093  0.1633 -0.2155 -0.0823
  804POSM   C3B 9435   3.573  20.768  12.424 -0.0318 -0.4433  0.0200
  804POSM   C4B 9436   3.741  20.816  12.850  0.0581 -0.0766 -0.3740
  805DOPE   NH3 9437   4.519  14.651  11.442 -0.1488 -0.1874  0.0181
  805DOPE   PO4 9438   4.580  14.880  11.695 -0.1772  0.2364 -0.2486
  805DOPE   GL1 9439   4.817  15.001  11.947  0.3342 -0.0490  0.0409
  805DOPE   GL2 9440   4.866  14.692  12.061  0.3657  0.1098  0.5173
  805DOPE   C1A 9441   4.719  15.314  12.345 -0.0119 -0.1127 -0.0381
  805DOPE   D2A 9442   4.765  15.506  12.780  0.0099 -0.1045 -0.0540
  805DOPE   C3A 9443   4.714  15.228  13.176  0.0877  0.1326  0.1034
  805DOPE   C4A 9444   4.468  14.981  13.538 -0.2437 -0.0406  0.0098
  805DOPE   C1B 9445   5.091  14.954  12.332 -0.0227 -0.1635 -0.3938
  805DOPE   D2B 9446   5.287  15.295  12.569  0.4648 -0.0575 -0.0101
  805DOPE   C3B 9447   5.150  15.169  12.954  0.0312 -0.1291  0.2142
  805DOPE   C4B 9448   5.155  15.112  13.438  0.0978 -0.5402  0.1782
  806DOPS   CNO 9449   3.295  15.061  11.592  0.3852  0.2002  0.0764
  806DOPS   PO4 9450   3.506  15.123  11.915 -0.0254  0.4593 -0.2173
  806DOPS   GL1 9451   3.798  15.022  12.229 -0.2184  0.1618  0.2733
  806DOPS   GL2 9452   3.618  14.755  12.278 -0.0807 -0.0698  0.4221
  806DOPS   C1A 9453   4.249  15.092  12.348  0.2473 -0.2911 -0.3571
  806DOPS   D2A 9454   4.459  15.099  12.757 -0.0415 -0.0326 -0.4297
  806DOPS   C3A 9455   4.195  15.043  13.121  0.0638 -0.1513 -0.1991
  806DOPS   C4A 9456   3.963  15.071  13.524 -0.4498 -0.1273 -0.1018
  806DOPS   C1B 9457   3.642  14.795  12.714 -0.0675 -0.3222  0.1851
  806DOPS   D2B 9458   3.786  14.797  13.138 -0.0317  0.2466 -0.2074
  806DOPS   C3B 9459   3.485  15.138  13.314  0.1518 -0.3770 -0.1577
  806DOPS   C4B 9460   3.493  15.294  13.695 -0.2277 -0.4409  0.0261
  807DOPC   NC3 9461   3.874  17.810  11.857 -0.4755  0.0181  0.2778
  807DOPC   PO4 9462   3.536  17.676  11.753  0.1299  0.1564  0.1636
  807DOPC   GL1 9463   3.657  17.456  12.134 -0.0439 -0.1949 -0.0816
  807DOPC   GL2 9464   3.418  17.561  12.329 -0.1578  0.2450 -0.0667
  807DOPC   C1A 9465   3.602  17.073  12.377 -0.0282  0.1093 -0.0234
  807DOPC   D2A 9466   3.150  17.011  12.475  0.0520  0.1743  0.0281
  807DOPC   C3A 9467   2.955  16.724  12.685  0.0037  0.3867 -0.1970
  807DOPC   C4A 9468   2.677  16.559  13.051 -0.0575  0.3135  0.4912
  807DOPC   C1B 9469   3.398  17.396  12.715  0.1558 -0.1767  0.0019
  807DOPC   D2B 9470   3.297  17.074  13.043  0.3510 -0.0789  0.0637
  807DOPC   C3B 9471   3.064  16.884  13.371 -0.0711 -0.1045 -0.0792
  807DOPC   C4B 9472   2.887  16.728  13.732 -0.1674  0.2876  0.1169
  808DOPC   NC3 9473   6.441  22.828  10.427 -0.0773 -0.0030  0.0799
  808DOPC   PO4 9474   6.533  22.465  10.589 -0.0756 -0.0625  0.1710
  808DOPC   GL1 9475   6.397  22.414  10.910 -0.0616 -0.1964 -0.0281
  808DOPC   GL2 9476   6.169  22.668  10.981  0.0828  0.0943 -0.0776
  808DOPC   C1A 9477   6.668  22.438  11.304 -0.0647  0.0788  0.0368
  808DOPC   D2A 9478   6.670  22.312  11.741 -0.3858  0.0884  0.0851
  808DOPC   C3A 9479   6.626  22.705  11.970  0.1901 -0.2939  0.0520
  808DOPC   C4A 9480   6.679  23.110  12.201 -0.0448 -0.0666  0.0112
  808DOPC   C1B 9481   6.169  22.531  11.435  0.1739 -0.1503  0.0584
  808DOPC   D2B 9482   6.051  22.634  11.894 -0.0445  0.2285  0.0368
  808DOPC   C3B 9483   5.728  22.524  12.141 -0.2019 -0.3723 -0.2184
  808DOPC   C4B 9484   5.674  22.254  12.479 -0.0565 -0.2386 -0.1256
  809DOPC   NC3 9485   2.309  15.956  11.727 -0.3559 -0.2861  0.0933
  809DOPC   PO4 9486   2.546  16.220  11.969  0.1026  0.1259  0.0775
  809DOPC   GL1 9487   2.459  16.150  12.409  0.0700 -0.2287 -0.1106
  809DOPC   GL2 9488   2.643  16.342  12.613  0.0501 -0.1262  0.3183
  809DOPC   C1A 9489   2.398  15.884  12.779 -0.1423  0.0165 -0.2452
  809DOPC   D2A 9490   2.194  15.830  13.153 -0.3267 -0.0287 -0.0738
  809DOPC   C3A 9491   2.016  16.237  13.272 -0.0954 -0.0792  0.2170
  809DOPC   C4A 9492   1.782  16.366  13.601 -0.0205  0.1773 -0.3003
  809DOPC   C1B 9493   2.769  16.052  13.007  0.0776  0.1744 -0.0859
  809DOPC   D2B 9494   2.592  15.974  13.431  0.2955  0.0325 -0.0734
  809DOPC   C3B 9495   2.210  15.955  13.687  0.2376  0.0391 -0.1859
  809DOPC   C4B 9496   1.768  15.794  13.539  0.1971 -0.0996 -0.0872
  810DOPS   CNO 9497   7.967  20.978  10.642  0.2681  0.1288  0.0813
  810DOPS   PO4 9498   8.199  20.685  10.715 -0.0816 -0.2059 -0.1736
  810DOPS   GL1 9499   8.136  20.401  11.011  0.0802  0.1098 -0.1702
  810DOPS   GL2 9500   8.292  20.497  11.265 -0.2380 -0.0866  0.1938
  810DOPS   C1A 9501   7.883  20.293  11.392  0.0806 -0.1007 -0.0337
  810DOPS   D2A 9502   7.945  20.087  11.813  0.0592  0.0963  0.1571
  810DOPS   C3A 9503   8.203  20.230  12.153  0.0620  0.0332 -0.1924
  810DOPS   C4A 9504   8.120  20.459  12.567 -0.2523  0.1569 -0.0244
  810DOPS   C1B 9505   8.361  20.135  11.579  0.2015  0.2743 -0.0943
  810DOPS   D2B 9506   8.670  20.050  11.905 -0.3015  0.0724 -0.0646
  810DOPS   C3B 9507   8.485  19.860  12.251 -0.4167  0.0263 -0.1317
  810DOPS   C4B 9508   8.362  20.024  12.675  0.2600  0.0314 -0.3664
  811POSM   NC3 9509   5.290  10.978  11.406  0.1450 -0.3041  0.2794
  811POSM   PO4 9510   5.095  11.298  11.448  0.1254  0.1276  0.2606
  811POSM   AM1 9511   5.014  11.129  11.726 -0.2260 -0.1287  0.3127
  811POSM   AM2 9512   4.962  10.914  11.816 -0.0825  0.2506  0.0884
  811POSM   T1A 9513   4.948  11.145  12.210  0.0650 -0.4079  0.1580
  811POSM   C2A 9514   4.814  10.913  12.618 -0.0243  0.1497 -0.0046
  811POSM   C3A 9515   4.708  10.539  12.881  0.1206 -0.2567 -0.0094
  811POSM   C1B 9516   4.840  10.672  11.968  0.0357  0.1378  0.3360
  811POSM   D2B 9517   4.820  10.380  12.341 -0.2338  0.1646 -0.1390
  811POSM   C3B 9518   4.421  10.171  12.370  0.1004 -0.1216  0.2101
  811POSM   C4B 9519   4.189   9.816  12.557 -0.0373  0.0076  0.2291
  812POSM   NC3 9520   4.727  23.161  10.181  0.0451  0.1371  0.2107
  812POSM   PO4 9521   4.672  23.443  10.467 -0.1430  0.1848 -0.0804
  812POSM   AM1 9522   4.646  23.298  10.764  0.2880 -0.1685 -0.1018
  812POSM   AM2 9523   4.535  23.398  11.042 -0.1837 -0.1833  0.2479
  812POSM   T1A 9524   4.890  22.994  11.069 -0.0984 -0.1522 -0.0568
  812POSM   C2A 9525   5.147  22.872  11.438  0.1447  0.0484  0.3915
  812POSM   C3A 9526   4.952  22.819  11.846  0.2891  0.2307 -0.2708
  812POSM   C1B 9527   4.273  23.308  11.226  0.1690  0.1162 -0.2457
  812POSM   D2B 9528   4.002  23.128  11.554 -0.0482 -0.1897 -0.1633
  812POSM   C3B 9529   4.307  22.941  11.795 -0.0695  0.2852 -0.2063
  812POSM   C4B 9530   4.508  23.010  12.255  0.3001  0.0524  0.2493
  813DOPE   NH3 9531   2.260  19.304  11.082 -0.0972 -0.4408 -0.0977
  813DOPE   PO4 9532   2.322  19.624  11.091  0.0087  0.1030  0.1551
  813DOPE   GL1 9533   2.070  19.496  11.442 -0.0971  0.0902  0.3926
  813DOPE   GL2 9534   2.238  19.512  11.586 -0.2421  0.0004 -0.1026
  813DOPE   C1A 9535   1.855  19.241  11.754 -0.0770  0.0981 -0.1644
  813DOPE   D2A 9536   2.110  19.125  12.120 -0.2243  0.1027  0.2605
  813DOPE   C3A 9537   2.123  19.291  12.574  0.0418  0.0230  0.1648
  813DOPE   C4A 9538   2.357  19.308  12.975  0.3125  0.0602  0.0852
  813DOPE   C1B 9539   2.301  19.909  11.863  0.0674 -0.3105 -0.0947
  813DOPE   D2B 9540   2.323  20.268  12.174  0.0356 -0.0293  0.0433
  813DOPE   C3B 9541   2.424  20.081  12.572  0.2069 -0.1577  0.0221
  813DOPE   C4B 9542   2.392  19.871  12.993 -0.0760  0.0051  0.1424
  814DOPC   NC3 9543   3.088   9.687  12.022 -0.1132 -0.0583  0.1844
  814DOPC   PO4 9544   2.726   9.692  11.861 -0.2468  0.0475 -0.1498
  814DOPC   GL1 9545   2.665   9.562  12.242 -0.1256  0.1004 -0.2328
  814DOPC   GL2 9546   2.810   9.267  12.354  0.0256 -0.2178 -0.1466
  814DOPC   C1A 9547   2.972   9.697  12.569  0.1828 -0.0431  0.1980
  814DOPC   D2A 9548   3.101  10.128  12.674  0.0989 -0.2681  0.3361
  814DOPC   C3A 9549   3.299  10.388  12.979 -0.2213  0.4031  0.1668
  814DOPC   C4A 9550   3.538  10.396  13.404 -0.2065 -0.2202 -0.2305
  814DOPC   C1B 9551   2.718   9.291  12.879 -0.1432  0.1363 -0.3794
  814DOPC   D2B 9552   2.368   9.525  13.145  0.0818 -0.2292  0.0751
  814DOPC   C3B 9553   2.208   9.912  12.998  0.2396 -0.0550  0.1025
  814DOPC   C4B 9554   2.196  10.363  12.820 -0.0681  0.1214  0.1862
  815POSM   NC3 9555   9.713  12.533  11.063 -0.0677  0.1403 -0.0313
  815POSM   PO4 9556   9.493  12.213  11.044  0.1564 -0.2129 -0.1241
  815POSM   AM1 9557   9.563  12.236  11.382 -0.2819  0.2047 -0.0318
  815POSM   AM2 9558   9.776  12.340  11.530 -0.4458  0.0623 -0.1048
  815POSM   T1A 9559   9.316  12.141  11.769  0.1969 -0.2489 -0.2139
  815POSM   C2A 9560   9.276  12.366  12.142  0.0822 -0.2256 -0.0961
  815POSM   C3A 9561   9.111  12.389  12.591  0.2133  0.3523 -0.2806
  815POSM   C1B 9562   9.859  12.320  11.824  0.0287  0.1705 -0.0252
  815POSM   D2B 9563  10.071  12.422  12.216 -0.1637 -0.0261 -0.2601
  815POSM   C3B 9564  10.156  12.204  12.592  0.1388  0.0431 -0.2086
  815POSM   C4B 9565  10.446  12.177  12.939  0.0886  0.1378 -0.0094
  816POSM   NC3 9566   5.181  18.963  11.208 -0.2060  0.2329  0.0546
  816POSM   PO4 9567   4.866  19.224  11.278 -0.0754 -0.2526 -0.3432
  816POSM   AM1 9568   4.858  19.186  11.602 -0.1724  0.1135  0.1044
  816POSM   AM2 9569   4.913  18.929  11.693  0.1687 -0.1324  0.2120
  816POSM   T1A 9570   4.676  19.337  12.005  0.0730 -0.0036  0.0939
  816POSM   C2A 9571   4.939  19.360  12.397  0.1917 -0.0276 -0.0104
  816POSM   C3A 9572   5.033  19.305  12.826 -0.1338 -0.1889 -0.0862
  816POSM   C1B 9573   5.042  19.004  12.023  0.3791  0.0469  0.0384
  816POSM   D2B 9574   5.413  19.171  12.181  0.0970  0.1737 -0.0119
  816POSM   C3B 9575   5.458  19.605  12.437 -0.2816  0.2664  0.0944
  816POSM   C4B 9576   5.182  20.027  12.474  0.2128  0.1233  0.2369
  817DOPC   NC3 9577  33.326  33.296  12.994  0.2840 -0.0426  0.2924
  817DOPC   PO4 9578  33.661  33.290  13.237 -0.0908 -0.1434  0.0983
  817DOPC   GL1 9579  33.765  33.316  12.886 -0.2296 -0.0179 -0.0629
  817DOPC   GL2 9580  33.837  33.068  12.857 -0.0612  0.3966 -0.0577
  817DOPC   C1A 9581  34.174  33.510  12.743 -0.0142 -0.2666  0.0896
  817DOPC   D2A 9582  34.657  33.464  12.756 -0.1490 -0.2464  0.0608
  817DOPC   C3A 9583  34.915  33.056  12.674  0.1509  0.2791  0.2208
  817DOPC   C4A 9584  34.743  32.772  12.390 -0.2359 -0.2052  0.0042
  817DOPC   C1B 9585  33.859  32.993  12.430  0.0390 -0.0016 -0.1932
  817DOPC   D2B 9586  34.050  32.882  11.985 -0.1275 -0.0790 -0.3263
  817DOPC   C3B 9587  34.489  32.947  11.913  0.1396 -0.3414 -0.0673
  817DOPC   C4B 9588  34.837  33.066  11.550 -0.1263  0.1591 -0.3935
  818DOPC   NC3 9589   7.007  27.386  14.222 -0.1527 -0.1232  0.1485
  818DOPC   PO4 9590   6.883  27.006  14.169 -0.1434 -0.0782  0.2541
  818DOPC   GL1 9591   6.878  27.074  13.855 -0.2346  0.2591  0.3059
  818DOPC   GL2 9592   6.600  27.076  13.722 -0.0257 -0.3739 -0.0365
  818DOPC   C1A 9593   6.997  27.312  13.449 -0.0734 -0.2061  0.1313
  818DOPC   D2A 9594   7.111  27.480  13.110  0.1925 -0.1341 -0.3317
  818DOPC   C3A 9595   7.375  27.188  12.789 -0.1352  0.3476  0.0471
  818DOPC   C4A 9596   7.729  27.153  12.543 -0.5206  0.0744 -0.0521
  818DOPC   C1B 9597   6.726  26.858  13.387 -0.2250  0.1800  0.1337
  818DOPC   D2B 9598   6.538  26.694  12.992 -0.0782 -0.1682 -0.3549
  818DOPC   C3B 9599   6.525  26.394  12.646  0.0034 -0.3610  0.2613
  818DOPC   C4B 9600   6.279  26.224  12.261 -0.0366 -0.1388  0.3010
  819DOPE   NH3 9601   8.407  32.776  14.685 -0.0151  0.0914 -0.0866
  819DOPE   PO4 9602   8.705  32.913  14.573 -0.0086 -0.0821 -0.0981
  819DOPE   GL1 9603   8.626  32.934  14.191  0.1006  0.0636 -0.2132
  819DOPE   GL2 9604   8.467  32.675  14.067 -0.1146 -0.1995  0.0494
  819DOPE   C1A 9605   8.818  32.780  13.781 -0.0883  0.2526  0.1941
  819DOPE   D2A 9606   8.917  32.599  13.318 -0.2812  0.0367 -0.1028
  819DOPE   C3A 9607   8.891  32.198  13.168  0.0434 -0.1133 -0.1421
  819DOPE   C4A 9608   9.048  31.811  12.970  0.0899  0.0358  0.0699
  819DOPE   C1B 9609   8.372  32.716  13.598  0.2124 -0.2711 -0.0930
  819DOPE   D2B 9610   8.401  32.551  13.200 -0.1821 -0.0094 -0.0937
  819DOPE   C3B 9611   8.581  32.944  12.934 -0.1781 -0.0249  0.0138
  819DOPE   C4B 9612   8.926  33.231  13.021 -0.0546  0.1004  0.1455
  820DOPE   NH3 9613  34.443  32.770  13.788 -0.0685  0.0398  0.0970
  820DOPE   PO4 9614  34.373  32.951  13.529 -0.1575 -0.1553 -0.0070
  820DOPE   GL1 9615  34.486  32.824  13.135 -0.3587 -0.0585 -0.0488
  820DOPE   GL2 9616  34.636  33.125  13.102 -0.1816 -0.3722  0.2347
  820DOPE   C1A 9617  34.552  32.550  12.782 -0.1843 -0.1245  0.1490
  820DOPE   D2A 9618  34.540  32.255  12.449  0.1984 -0.1872  0.0658
  820DOPE   C3A 9619  34.627  32.457  12.042  0.2515  0.0066  0.1959
  820DOPE   C4A 9620  34.433  32.512  11.627 -0.0849  0.1261  0.2047
  820DOPE   C1B 9621  34.380  32.996  12.761  0.2317 -0.0087  0.1706
  820DOPE   D2B 9622  34.358  33.142  12.365  0.1802  0.0027 -0.1749
  820DOPE   C3B 9623  34.348  33.586  12.242 -0.1938  0.1133 -0.2552
  820DOPE   C4B 9624  34.241  33.880  11.935 -0.3187  0.0340  0.1478
  821DOPC   NC3 9625   8.061  33.473  14.151  0.0817  0.0904 -0.0682
  821DOPC   PO4 9626   8.018  33.105  14.184  0.0916  0.1984  0.1458
  821DOPC   GL1 9627   8.084  33.087  13.781  0.3608  0.2733  0.2324
  821DOPC   GL2 9628   7.846  33.285  13.722  0.1197  0.0721  0.1613
  821DOPC   C1A 9629   7.816  32.901  13.449 -0.0131 -0.0759  0.3527
  821DOPC   D2A 9630   7.823  32.603  13.067  0.2056  0.0596  0.0647
  821DOPC   C3A 9631   7.656  32.631  12.663  0.1520  0.0563  0.4503
  821DOPC   C4A 9632   7.604  32.426  12.273  0.0146  0.1253 -0.0526
  821DOPC   C1B 9633   7.931  33.447  13.308  0.0626 -0.1266  0.0180
  821DOPC   D2B 9634   8.077  33.458  12.877  0.1528  0.1070  0.0418
  821DOPC   C3B 9635   8.212  33.174  12.547  0.2960 -0.5744 -0.2285
  821DOPC   C4B 9636   8.018  32.878  12.295  0.0899  0.1608  0.0222
  822DOPC   NC3 9637  11.910  33.979  14.938 -0.2226 -0.2979 -0.1071
  822DOPC   PO4 9638  11.685  33.691  14.929 -0.3192  0.0019  0.3964
  822DOPC   GL1 9639  11.630  33.824  14.587  0.5177  0.0765 -0.2363
  822DOPC   GL2 9640  11.856  33.717  14.390  0.0266 -0.1452  0.0706
  822DOPC   C1A 9641  11.349  33.499  14.323  0.2347  0.0049  0.0245
  822DOPC   D2A 9642  11.180  33.354  13.892 -0.0633  0.3139  0.2368
  822DOPC   C3A 9643  11.421  33.128  13.574 -0.2854 -0.0265  0.1896
  822DOPC   C4A 9644  11.684  32.850  13.320  0.2227  0.1671  0.1816
  822DOPC   C1B 9645  12.163  33.889  14.114 -0.1828 -0.0461  0.0176
  822DOPC   D2B 9646  12.140  33.709  13.707  0.0360 -0.3209  0.1186
  822DOPC   C3B 9647  11.856  33.832  13.332 -0.3031  0.2931  0.0432
  822DOPC   C4B 9648  11.603  33.839  12.936 -0.2782 -0.2058 -0.1578
  823POSM   NC3 9649   3.147  30.342  13.476  0.1999  0.0708  0.2241
  823POSM   PO4 9650   2.892  30.386  13.738  0.0928 -0.2387 -0.1908
  823POSM   AM1 9651   2.702  30.228  13.531  0.4112  0.0748  0.0216
  823POSM   AM2 9652   2.662  29.970  13.439 -0.1656  0.1965  0.2483
  823POSM   T1A 9653   2.452  30.198  13.066 -0.2977 -0.0070 -0.0267
  823POSM   C2A 9654   2.382  30.247  12.605 -0.0104 -0.0234 -0.4245
  823POSM   C3A 9655   2.570  29.987  12.240 -0.3275  0.1196  0.2668
  823POSM   C1B 9656   2.883  29.976  13.172  0.1760  0.1311 -0.2166
  823POSM   D2B 9657   3.242  30.154  12.890  0.1839  0.2255 -0.0021
  823POSM   C3B 9658   3.400  30.283  12.449 -0.0820  0.1276 -0.0432
  823POSM   C4B 9659   3.597  30.490  12.107  0.5384 -0.0196 -0.1693
  824DOPS   CNO 9660   3.963  30.259  13.661 -0.2432 -0.1305 -0.4187
  824DOPS   PO4 9661   3.570  30.202  13.764 -0.0821 -0.3036 -0.0187
  824DOPS   GL1 9662   3.656  30.013  13.418  0.0549 -0.3922  0.0663
  824DOPS   GL2 9663   3.883  29.900  13.283 -0.0970  0.0394  0.4120
  824DOPS   C1A 9664   3.636  30.371  13.115 -0.1492  0.0236 -0.1418
  824DOPS   D2A 9665   3.749  30.718  12.807  0.1749 -0.0239 -0.0480
  824DOPS   C3A 9666   3.909  30.493  12.444 -0.0103  0.3950 -0.1521
  824DOPS   C4A 9667   4.231  30.305  12.176 -0.2306 -0.1994  0.0781
  824DOPS   C1B 9668   3.787  29.996  12.790  0.0472 -0.1877 -0.0233
  824DOPS   D2B 9669   3.726  29.962  12.331 -0.3011 -0.1143  0.1339
  824DOPS   C3B 9670   3.503  29.988  11.902 -0.2590 -0.2313  0.5256
  824DOPS   C4B 9671   3.340  29.823  11.545 -0.1033  0.0096 -0.1193
  825DOPC   NC3 9672   5.172  25.005  14.267  0.4597 -0.0917  0.0229
  825DOPC   PO4 9673   5.214  25.229  13.937 -0.3789  0.0400  0.0456
  825DOPC   GL1 9674   4.900  25.226  13.654  0.0493  0.0168  0.3870
  825DOPC   GL2 9675   5.103  25.263  13.428 -0.0050  0.0917 -0.0079
  825DOPC   C1A 9676   4.638  25.323  13.249 -0.0195 -0.3282 -0.0285
  825DOPC   D2A 9677   4.535  25.169  12.783  0.0947 -0.2459 -0.1096
  825DOPC   C3A 9678   4.577  24.716  12.642  0.3623 -0.0544  0.0432
  825DOPC   C4A 9679   4.346  24.388  12.452  0.1484  0.1178  0.1527
  825DOPC   C1B 9680   5.043  25.214  12.983 -0.3339  0.0319 -0.0218
  825DOPC   D2B 9681   5.040  24.909  12.606 -0.0684  0.2324 -0.1873
  825DOPC   C3B 9682   5.040  24.466  12.490 -0.1244  0.0416  0.1288
  825DOPC   C4B 9683   5.083  24.165  12.136 -0.2624 -0.3288 -0.0241
  826DOPE   NH3 9684   1.127  28.731  13.632  0.1249 -0.0363  0.3269
  826DOPE   PO4 9685   1.259  29.052  13.679  0.0362 -0.0050  0.1661
  826DOPE   GL1 9686   1.303  28.982  13.188  0.0277  0.2228 -0.0637
  826DOPE   GL2 9687   1.474  29.109  12.986 -0.0953 -0.2226  0.1032
  826DOPE   C1A 9688   1.112  28.694  12.886 -0.3364  0.0720 -0.1220
  826DOPE   D2A 9689   1.046  28.553  12.427 -0.0480 -0.0751 -0.0546
  826DOPE   C3A 9690   0.540  28.511  12.455  0.0540 -0.0121  0.1254
  826DOPE   C4A 9691   0.198  28.332  12.224 -0.0570  0.2785  0.2042
  826DOPE   C1B 9692   1.336  28.996  12.560  0.2794  0.0290  0.0425
  826DOPE   D2B 9693   1.296  28.920  12.055  0.2731  0.0778 -0.1241
  826DOPE   C3B 9694   1.532  28.747  11.658  0.2698  0.0508 -0.1790
  826DOPE   C4B 9695   1.437  28.569  11.238 -0.0341  0.0335 -0.1893
  827POSM   NC3 9696   9.861  30.418  14.731 -0.0577  0.0366  0.1159
  827POSM   PO4 9697   9.613  30.727  14.685 -0.2541  0.2447  0.0265
  827POSM   AM1 9698   9.517  30.665  14.371 -0.2730  0.1042  0.1907
  827POSM   AM2 9699   9.446  30.403  14.238 -0.0299 -0.0529  0.1645
  827POSM   T1A 9700   9.595  30.723  13.883 -0.0064  0.2165 -0.2941
  827POSM   C2A 9701   9.900  30.935  13.588 -0.1133 -0.2267  0.1420
  827POSM   C3A 9702   9.961  31.390  13.379 -0.3961  0.1680  0.2946
  827POSM   C1B 9703   9.437  30.180  13.984  0.1392  0.0627  0.2915
  827POSM   D2B 9704   9.375  30.168  13.569 -0.2520  0.2547  0.3542
  827POSM   C3B 9705   9.467  30.581  13.444 -0.2199  0.1268  0.3339
  827POSM   C4B 9706   9.780  30.770  13.084  0.1685 -0.1177 -0.1065
  828DOPS   CNO 9707   6.860   0.263  14.624 -0.0064  0.1408 -0.0369
  828DOPS   PO4 9708   6.966   0.108  14.292 -0.0507 -0.1169 -0.1190
  828DOPS   GL1 9709   7.058   0.234  13.870  0.2005 -0.0113 -0.1969
  828DOPS   GL2 9710   6.934   0.469  13.864 -0.2395  0.0905  0.2963
  828DOPS   C1A 9711   7.023   0.123  13.414  0.3746 -0.0329  0.0840
  828DOPS   D2A 9712   7.272  -0.247  13.253  0.2589  0.2944 -0.1369
  828DOPS   C3A 9713   7.747  -0.125  13.142  0.3207 -0.0508 -0.0097
  828DOPS   C4A 9714   8.106   0.092  13.103  0.1330 -0.0336 -0.0759
  828DOPS   C1B 9715   6.595   0.315  13.597  0.1447  0.0890 -0.1446
  828DOPS   D2B 9716   6.558   0.102  13.171 -0.5390 -0.2942 -0.1611
  828DOPS   C3B 9717   6.857  -0.168  12.978 -0.3289  0.2814 -0.0657
  828DOPS   C4B 9718   6.996  -0.282  12.576  0.1039 -0.1248 -0.2934
  829DOPC   NC3 9719   8.086  27.320  14.213  0.1613 -0.0369 -0.2130
  829DOPC   PO4 9720   7.842  27.012  14.134 -0.0983  0.0838 -0.2190
  829DOPC   GL1 9721   7.841  27.303  13.783 -0.1769  0.0071  0.0764
  829DOPC   GL2 9722   7.691  27.096  13.667  0.1238  0.0986  0.1155
  829DOPC   C1A 9723   7.609  27.700  13.833 -0.1112  0.0284  0.1207
  829DOPC   D2A 9724   7.679  28.067  13.589 -0.0617  0.2152 -0.2325
  829DOPC   C3A 9725   7.860  27.866  13.185  0.0222 -0.1218 -0.0999
  829DOPC   C4A 9726   7.602  27.805  12.760  0.0964  0.3435  0.0631
  829DOPC   C1B 9727   7.349  26.929  13.401  0.2152 -0.0691  0.0213
  829DOPC   D2B 9728   7.103  26.833  13.032  0.0377  0.0488 -0.0303
  829DOPC   C3B 9729   6.832  27.006  12.683  0.1034  0.0825  0.3043
  829DOPC   C4B 9730   6.545  27.268  12.454 -0.3661 -0.3967 -0.2479
  830DOPE   NH3 9731   3.815  29.797  13.865 -0.2106 -0.2528  0.0810
  830DOPE   PO4 9732   4.105  29.849  14.022 -0.2399  0.0715  0.2613
  830DOPE   GL1 9733   4.274  29.863  13.683  0.0603  0.2733 -0.0969
  830DOPE   GL2 9734   4.458  30.053  13.683 -0.0528 -0.2068  0.1470
  830DOPE   C1A 9735   4.423  29.696  13.307  0.1965 -0.1613 -0.3930
  830DOPE   D2A 9736   4.258  29.589  12.834 -0.0531  0.0018 -0.0096
  830DOPE   C3A 9737   4.186  29.831  12.424  0.0068  0.2761  0.0323
  830DOPE   C4A 9738   4.291  29.784  11.959 -0.1136 -0.0596 -0.0124
  830DOPE   C1B 9739   4.393  30.202  13.250 -0.0018  0.2785 -0.0596
  830DOPE   D2B 9740   4.179  30.285  12.855  0.0951 -0.1788 -0.0522
  830DOPE   C3B 9741   4.226  30.782  12.737  0.0412 -0.2491 -0.1813
  830DOPE   C4B 9742   4.166  31.178  12.516  0.0524 -0.0279 -0.3267
  831DOPE   NH3 9743   4.208  29.346  14.158 -0.2186  0.1393 -0.0249
  831DOPE   PO4 9744   3.886  29.342  14.125 -0.3895  0.1499  0.1598
  831DOPE   GL1 9745   3.674  29.298  13.860  0.1740 -0.1514  0.2448
  831DOPE   GL2 9746   3.398  29.422  13.774 -0.1769 -0.4780 -0.0306
  831DOPE   C1A 9747   3.697  29.492  13.439 -0.0005  0.0066 -0.0217
  831DOPE   D2A 9748   3.470  29.660  13.019  0.0990  0.1028  0.0161
  831DOPE   C3A 9749   3.417  29.540  12.538  0.2349 -0.0093  0.1939
  831DOPE   C4A 9750   3.284  29.596  12.095  0.0344 -0.3463 -0.2313
  831DOPE   C1B 9751   3.132  29.607  13.411  0.0845 -0.0220  0.0615
  831DOPE   D2B 9752   3.037  29.454  12.932 -0.2734  0.1852 -0.0897
  831DOPE   C3B 9753   2.947  29.379  12.475 -0.0776 -0.0769 -0.0272
  831DOPE   C4B 9754   2.783  29.597  12.102 -0.1854 -0.0520 -0.1125
  832DOPC   NC3 9755   5.988  33.508  14.038 -0.0162  0.1522 -0.0743
  832DOPC   PO4 9756   5.897  33.125  14.027  0.0154  0.0271 -0.3857
  832DOPC   GL1 9757   5.733  33.115  13.661  0.3957 -0.2792 -0.1639
  832DOPC   GL2 9758   5.601  33.364  13.626 -0.3848 -0.0914  0.0075
  832DOPC   C1A 9759   5.867  32.735  13.340  0.4684  0.0851  0.1170
  832DOPC   D2A 9760   5.848  32.416  12.982 -0.0098 -0.0119  0.2882
  832DOPC   C3A 9761   5.843  32.562  12.494  0.0210  0.0249  0.1450
  832DOPC   C4A 9762   5.889  32.799  12.106 -0.0630  0.0834  0.0053
  832DOPC   C1B 9763   6.017  33.386  13.438 -0.1395 -0.3821  0.0714
  832DOPC   D2B 9764   6.279  33.487  13.132  0.0117  0.2973  0.1391
  832DOPC   C3B 9765   6.085  33.308  12.730 -0.1703  0.0913  0.4377
  832DOPC   C4B 9766   6.214  32.904  12.559  0.1582  0.3905  0.0165
  833POSM   NC3 9767  10.370  28.318  14.771  0.0938  0.1371  0.3323
  833POSM   PO4 9768  10.568  28.119  14.539 -0.2202  0.0900 -0.0440
  833POSM   AM1 9769  10.514  28.137  14.232 -0.0091 -0.1549 -0.2429
  833POSM   AM2 9770  10.361  28.264  14.057 -0.1797  0.3122 -0.0606
  833POSM   T1A 9771  10.598  27.816  13.850  0.0417  0.1137 -0.1160
  833POSM   C2A 9772  10.520  27.389  13.670 -0.3816  0.0507  0.1014
  833POSM   C3A 9773  10.850  27.197  13.416 -0.2700 -0.0748 -0.1833
  833POSM   C1B 9774  10.301  28.182  13.723 -0.3114 -0.2005 -0.0035
  833POSM   D2B 9775  10.327  27.846  13.389  0.2222  0.3218  0.1585
  833POSM   C3B 9776  10.461  28.013  12.949 -0.2493 -0.2498  0.1096
  833POSM   C4B 9777  10.453  28.249  12.579  0.1607 -0.0279  0.0620
  834DOPE   NH3 9778  33.892  34.200  13.590 -0.4037  0.1501  0.0543
  834DOPE   PO4 9779  33.577  34.126  13.502  0.1100 -0.0201 -0.0274
  834DOPE   GL1 9780  33.709  33.854  13.217  0.0949 -0.1336  0.0570
  834DOPE   GL2 9781  33.876  33.766  13.341  0.0304 -0.2609 -0.0379
  834DOPE   C1A 9782  33.759  33.782  12.754 -0.0045  0.2829 -0.3260
  834DOPE   D2A 9783  33.850  33.589  12.352 -0.1685  0.0268 -0.0772
  834DOPE   C3A 9784  33.790  33.636  11.903 -0.1954  0.2313 -0.1268
  834DOPE   C4A 9785  33.475  33.448  11.630  0.0361  0.0855  0.0983
  834DOPE   C1B 9786  34.131  33.969  13.005 -0.0843 -0.0392  0.1189
  834DOPE   D2B 9787  34.446  33.924  12.657 -0.1095  0.1279 -0.0392
  834DOPE   C3B 9788  34.105  34.039  12.389 -0.2580 -0.2050  0.2909
  834DOPE   C4B 9789  33.705  34.271  12.411 -0.0947 -0.1057  0.0043
  835DOPS   CNO 9790   4.079  28.523  14.009  0.1482 -0.1477 -0.0374
  835DOPS   PO4 9791   4.277  28.848  14.008  0.1810  0.3431 -0.2430
  835DOPS   GL1 9792   4.302  29.002  13.630  0.0626 -0.0220 -0.4284
  835DOPS   GL2 9793   4.075  29.005  13.507 -0.0568  0.1458 -0.4137
  835DOPS   C1A 9794   4.568  29.209  13.285  0.2165 -0.1648  0.1986
  835DOPS   D2A 9795   4.897  29.417  12.966  0.2963 -0.1325  0.3640
  835DOPS   C3A 9796   4.872  29.125  12.645 -0.0339  0.0553  0.1386
  835DOPS   C4A 9797   4.910  28.987  12.255  0.1168 -0.0946  0.0683
  835DOPS   C1B 9798   4.100  29.305  13.224 -0.3760 -0.1972 -0.0103
  835DOPS   D2B 9799   3.781  29.328  12.856  0.0440 -0.6516  0.1381
  835DOPS   C3B 9800   3.928  29.438  12.434  0.0426  0.0296  0.0763
  835DOPS   C4B 9801   3.824  29.572  12.019  0.0437 -0.0653  0.0579
  836POSM   NC3 9802   5.697  32.186  14.048  0.0720  0.0535  0.3618
  836POSM   PO4 9803   6.118  32.146  14.055 -0.2172 -0.0715 -0.0573
  836POSM   AM1 9804   6.126  32.117  13.735  0.1534  0.4662  0.1944
  836POSM   AM2 9805   5.846  32.218  13.581 -0.1360  0.0374  0.1362
  836POSM   T1A 9806   6.218  32.155  13.256 -0.1662 -0.0600 -0.1301
  836POSM   C2A 9807   6.307  32.310  12.805 -0.0933  0.3635 -0.0276
  836POSM   C3A 9808   6.379  32.277  12.367  0.2124 -0.1456 -0.0812
  836POSM   C1B 9809   5.651  31.989  13.404 -0.1305  0.3682  0.0346
  836POSM   D2B 9810   5.595  31.520  13.249 -0.1183  0.1821  0.2900
  836POSM   C3B 9811   5.610  31.423  12.827 -0.3399  0.1901 -0.2555
  836POSM   C4B 9812   5.479  31.205  12.430  0.1103 -0.0884 -0.0283
  837POSM   NC3 9813   2.337  30.568  13.985  0.2472 -0.4844 -0.0357
  837POSM   PO4 9814   1.993  30.600  13.827 -0.2142  0.2088 -0.2828
  837POSM   AM1 9815   1.952  30.669  13.500  0.1924 -0.0392 -0.0272
  837POSM   AM2 9816   2.110  30.720  13.267 -0.2101  0.1373  0.0860
  837POSM   T1A 9817   1.643  30.648  13.099 -0.0650 -0.1620  0.0156
  837POSM   C2A 9818   1.373  30.516  12.759  0.0768  0.0499 -0.2212
  837POSM   C3A 9819   1.455  30.404  12.309  0.1843  0.0257  0.0620
  837POSM   C1B 9820   2.231  30.690  12.986  0.0686  0.0643 -0.0759
  837POSM   D2B 9821   2.326  30.857  12.574 -0.0181  0.0487 -0.4334
  837POSM   C3B 9822   2.460  31.222  12.386  0.0231 -0.2370  0.0014
  837POSM   C4B 9823   2.661  31.534  12.058  0.0935  0.1439  0.3306
  838DOPC   NC3 9824   2.717  25.818  14.544 -0.0453 -0.1584 -0.0678
  838DOPC   PO4 9825   2.821  25.950  14.154 -0.2065 -0.0792  0.2252
  838DOPC   GL1 9826   3.034  25.926  13.745 -0.0230 -0.3350  0.2857
  838DOPC   GL2 9827   3.313  25.913  13.779 -0.1239  0.1973 -0.0954
  838DOPC   C1A 9828   2.791  25.645  13.401  0.0613 -0.0523  0.4248
  838DOPC   D2A 9829   2.374  25.669  13.160  0.0620  0.0051 -0.1117
  838DOPC   C3A 9830   2.306  25.370  12.830 -0.0230  0.0260  0.2819
  838DOPC   C4A 9831   2.597  25.272  12.479 -0.2002  0.0179  0.1686
  838DOPC   C1B 9832   3.222  25.817  13.311 -0.2186 -0.1820  0.0894
  838DOPC   D2B 9833   3.381  25.751  12.876  0.2274 -0.0228  0.0083
  838DOPC   C3B 9834   3.841  25.658  12.745  0.1035  0.0302  0.0522
  838DOPC   C4B 9835   4.172  25.418  12.553 -0.1314 -0.0680  0.0962
  839DOPS   CNO 9836   6.238  27.818  14.392 -0.0078  0.2471  0.0112
  839DOPS   PO4 9837   6.434  28.157  14.422 -0.0375  0.1239  0.1611
  839DOPS   GL1 9838   6.490  28.371  14.019  0.1951 -0.2347  0.0461
  839DOPS   GL2 9839   6.235  28.525  13.822  0.0051  0.1998 -0.1884
  839DOPS   C1A 9840   6.628  28.269  13.536  0.0610  0.0079  0.1101
  839DOPS   D2A 9841   6.760  27.966  13.218 -0.0419  0.2037  0.1601
  839DOPS   C3A 9842   6.483  28.056  12.824  0.3990  0.0608  0.0277
  839DOPS   C4A 9843   6.364  27.859  12.451  0.2055 -0.1378 -0.1930
  839DOPS   C1B 9844   6.238  28.695  13.441  0.1952 -0.2322 -0.1707
  839DOPS   D2B 9845   5.943  29.004  13.250  0.0111  0.0115  0.0386
  839DOPS   C3B 9846   5.804  28.894  12.807 -0.0948 -0.0805  0.0164
  839DOPS   C4B 9847   5.978  29.087  12.389 -0.4493 -0.3392  0.0186
  840DOPE   NH3 9848   9.480  33.972  14.547  0.0232 -0.0391 -0.0013
  840DOPE   PO4 9849   9.392  34.159  14.367 -0.0864  0.1415  0.0105
  840DOPE   GL1 9850   9.335  34.327  13.994  0.2413  0.3369  0.4355
  840DOPE   GL2 9851   9.136  34.175  13.905  0.3478  0.2454  0.2019
  840DOPE   C1A 9852   9.585  34.355  13.603 -0.1643  0.0586 -0.1394
  840DOPE   D2A 9853   9.835  34.300  13.191 -0.1140 -0.0023 -0.0552
  840DOPE   C3A 9854   9.712  34.275  12.748  0.0854  0.4169  0.0689
  840DOPE   C4A 9855   9.875  34.189  12.312  0.0901 -0.0975  0.1937
  840DOPE   C1B 9856   9.020  34.173  13.426  0.1641 -0.1367 -0.2901
  840DOPE   D2B 9857   8.920  34.446  13.124  0.2919 -0.2301 -0.0864
  840DOPE   C3B 9858   8.992  34.868  13.059 -0.2213 -0.1164 -0.0812
  840DOPE   C4B 9859   9.023  35.344  13.080  0.0965 -0.2007  0.0275
  841POSM   NC3 9860   9.738  29.053  14.224  0.0960 -0.4112  0.2297
  841POSM   PO4 9861  10.008  29.098  14.507 -0.4085  0.3630 -0.1651
  841POSM   AM1 9862  10.217  29.134  14.250  0.1570 -0.3897 -0.1122
  841POSM   AM2 9863  10.434  29.231  14.176 -0.1892  0.1820  0.2890
  841POSM   T1A 9864  10.161  29.027  13.760  0.0285  0.0048  0.3666
  841POSM   C2A 9865  10.064  28.663  13.518  0.1766 -0.0542  0.1754
  841POSM   C3A 9866  10.184  28.417  13.114 -0.3143  0.0220  0.0464
  841POSM   C1B 9867  10.668  29.100  14.007  0.2890  0.2025  0.0191
  841POSM   D2B 9868  10.838  28.922  13.615  0.3101 -0.1998  0.1853
  841POSM   C3B 9869  11.153  29.164  13.313  0.0310 -0.0606  0.2198
  841POSM   C4B 9870  11.309  29.004  12.899  0.0490  0.2764 -0.1931
  842POSM   NC3 9871  10.996  28.246  14.304  0.4679 -0.1881  0.2838
  842POSM   PO4 9872  11.312  28.322  14.511  0.2123 -0.1010 -0.1250
  842POSM   AM1 9873  11.431  28.125  14.258 -0.0603 -0.1648 -0.2172
  842POSM   AM2 9874  11.492  28.155  13.961  0.2389  0.0951 -0.0846
  842POSM   T1A 9875  11.206  27.794  13.894 -0.0454  0.3587 -0.0462
  842POSM   C2A 9876  10.995  27.718  13.496 -0.3352 -0.1492 -0.0850
  842POSM   C3A 9877  10.636  27.567  13.192  0.0166 -0.2910 -0.3352
  842POSM   C1B 9878  11.376  28.098  13.613 -0.2240 -0.0531  0.0500
  842POSM   D2B 9879  11.287  28.111  13.153  0.1368 -0.2271  0.0329
  842POSM   C3B 9880  11.005  27.792  12.957 -0.0181 -0.2425  0.3725
  842POSM   C4B 9881  10.674  27.654  12.590  0.1601  0.2555  0.0852
  843DOPC   NC3 9882  33.288  32.362  13.500 -0.0825  0.1232  0.1637
  843DOPC   PO4 9883  33.659  32.203  13.530  0.0601  0.3733 -0.1789
  843DOPC   GL1 9884  33.707  32.391  13.155 -0.1356  0.4544 -0.3481
  843DOPC   GL2 9885  33.723  32.158  12.983 -0.0390 -0.1198 -0.3757
  843DOPC   C1A 9886  34.093  32.564  12.920 -0.0025  0.3292  0.1514
  843DOPC   D2A 9887  34.161  32.618  12.436 -0.1387  0.0725 -0.2594
  843DOPC   C3A 9888  34.111  32.357  12.039 -0.0508 -0.1710 -0.3874
  843DOPC   C4A 9889  34.062  32.126  11.642 -0.1064  0.0827  0.0234
  843DOPC   C1B 9890  33.602  32.498  12.696 -0.0934  0.1487 -0.2999
  843DOPC   D2B 9891  33.414  32.925  12.672 -0.0673 -0.0303 -0.0073
  843DOPC   C3B 9892  33.404  33.363  12.485  0.1486  0.0899 -0.0626
  843DOPC   C4B 9893  33.288  33.540  12.090 -0.0335 -0.0983 -0.3469
  844DOPC   NC3 9894   0.745  24.804  13.643 -0.3681  0.1919  0.1562
  844DOPC   PO4 9895   0.535  25.172  13.666  0.0588 -0.0912  0.1935
  844DOPC   GL1 9896   0.489  25.179  13.288 -0.0472  0.0620  0.0924
  844DOPC   GL2 9897   0.531  25.409  13.246 -0.0726 -0.0360  0.1278
  844DOPC   C1A 9898   0.579  25.077  12.820  0.0746 -0.0364  0.0521
  844DOPC   D2A 9899   0.677  25.150  12.369 -0.0194 -0.2577  0.2544
  844DOPC   C3A 9900   0.866  25.531  12.287  0.4427  0.0711 -0.2424
  844DOPC   C4A 9901   1.100  25.737  11.905 -0.2094  0.2892 -0.2487
  844DOPC   C1B 9902   0.564  25.591  12.812 -0.3364  0.3152  0.3424
  844DOPC   D2B 9903   0.279  25.563  12.464  0.1546 -0.0523 -0.0741
  844DOPC   C3B 9904   0.400  25.673  11.987 -0.0697  0.0256 -0.1260
  844DOPC   C4B 9905   0.615  25.783  11.612 -0.1514  0.4218  0.2261
  845POSM   NC3 9906   3.975  26.384  14.361 -0.0604 -0.0453  0.0581
  845POSM   PO4 9907   4.330  26.280  14.209 -0.4061  0.0456 -0.1424
  845POSM   AM1 9908   4.364  26.263  13.852  0.2219  0.1695 -0.0683
  845POSM   AM2 9909   4.566  26.160  13.660  0.0406  0.2409 -0.2840
  845POSM   T1A 9910   4.169  26.245  13.380  0.0712  0.0009 -0.0862
  845POSM   C2A 9911   4.259  26.155  12.936  0.1992 -0.0701  0.1073
  845POSM   C3A 9912   4.300  25.879  12.538 -0.1724  0.2423  0.0732
  845POSM   C1B 9913   4.701  26.152  13.362 -0.0535 -0.0638 -0.0453
  845POSM   D2B 9914   4.777  26.273  12.887  0.0524 -0.1187 -0.1886
  845POSM   C3B 9915   5.011  26.130  12.521 -0.0073 -0.0737  0.0926
  845POSM   C4B 9916   4.956  25.887  12.103  0.0571  0.3324  0.1101
  846POSM   NC3 9917  11.817  28.313  14.311  0.0059  0.1867 -0.1376
  846POSM   PO4 9918  11.870  27.898  14.285  0.0808  0.0549  0.1102
  846POSM   AM1 9919  11.726  27.729  14.023 -0.2416  0.1551  0.2351
  846POSM   AM2 9920  11.779  27.587  13.758  0.3031 -0.1563 -0.1039
  846POSM   T1A 9921  11.450  27.337  13.985 -0.2225  0.0002  0.0160
  846POSM   C2A 9922  11.111  27.022  13.810 -0.0364 -0.1576  0.1206
  846POSM   C3A 9923  11.061  26.767  13.443 -0.0097  0.2184 -0.0207
  846POSM   C1B 9924  11.532  27.646  13.447  0.0748 -0.4405 -0.1836
  846POSM   D2B 9925  11.250  27.364  13.192  0.1117 -0.4557 -0.0876
  846POSM   C3B 9926  11.527  27.127  12.978 -0.2069 -0.2669  0.1859
  846POSM   C4B 9927  11.547  26.830  12.650 -0.0655 -0.2397 -0.0721
  847DOPE   NH3 9928  10.889   0.721  14.609 -0.0764  0.0884 -0.0929
  847DOPE   PO4 9929  10.740   1.006  14.672  0.4657 -0.3779 -0.1479
  847DOPE   GL1 9930  10.843   1.094  14.337 -0.3470 -0.4550 -0.4032
  847DOPE   GL2 9931  10.729   0.876  14.148  0.1045 -0.3251  0.0337
  847DOPE   C1A 9932  10.715   1.411  14.040  0.1668 -0.1441  0.0962
  847DOPE   D2A 9933  10.842   1.773  13.902 -0.1171  0.0196  0.1841
  847DOPE   C3A 9934  10.694   1.754  13.440 -0.0689  0.0712 -0.1506
  847DOPE   C4A 9935  10.806   1.879  13.034  0.0528 -0.1262 -0.0171
  847DOPE   C1B 9936  10.714   0.673  13.707 -0.0095 -0.1627 -0.0144
  847DOPE   D2B 9937  11.028   0.655  13.353  0.3505 -0.0235  0.0737
  847DOPE   C3B 9938  10.721   0.601  13.036 -0.2821 -0.0024 -0.2300
  847DOPE   C4B 9939  10.379   0.701  12.715 -0.0648  0.0282 -0.2803
  848DOPC   NC3 9940   3.598  32.421  13.532  0.1999 -0.2120  0.0236
  848DOPC   PO4 9941   3.890  32.439  13.781  0.0728 -0.1762 -0.0180
  848DOPC   GL1 9942   4.092  32.450  13.424 -0.1135 -0.2026  0.0263
  848DOPC   GL2 9943   4.345  32.553  13.606 -0.2598  0.1889 -0.1526
  848DOPC   C1A 9944   4.366  32.672  13.047  0.0428  0.1226  0.0679
  848DOPC   D2A 9945   4.610  32.563  12.685  0.1707 -0.1589 -0.0326
  848DOPC   C3A 9946   4.782  32.900  12.401  0.2235  0.0758 -0.2740
  848DOPC   C4A 9947   4.741  33.275  12.143  0.1732  0.2688 -0.0883
  848DOPC   C1B 9948   4.555  32.242  13.337  0.1812 -0.0032  0.2148
  848DOPC   D2B 9949   4.642  32.107  12.882  0.1947 -0.1227  0.0806
  848DOPC   C3B 9950   4.824  32.074  12.477  0.3642 -0.0500  0.2883
  848DOPC   C4B 9951   5.206  32.208  12.263 -0.0283 -0.0130 -0.2731
  849DOPE   NH3 9952  10.512  29.047  14.630  0.0200  0.2648 -0.1011
  849DOPE   PO4 9953  10.519  28.822  14.889 -0.0094  0.2434 -0.0520
  849DOPE   GL1 9954  10.540  28.613  14.473 -0.2212 -0.1518  0.0133
  849DOPE   GL2 9955  10.332  28.696  14.399 -0.3927  0.4902  0.0052
  849DOPE   C1A 9956  10.638  28.620  14.005 -0.0233 -0.0398 -0.0088
  849DOPE   D2A 9957  10.565  28.540  13.522  0.0680  0.3980 -0.1055
  849DOPE   C3A 9958  10.435  28.901  13.234 -0.1332  0.0110  0.2598
  849DOPE   C4A 9959  10.559  29.238  12.962 -0.2343 -0.3133 -0.0880
  849DOPE   C1B 9960  10.021  28.649  14.072  0.1806 -0.3683 -0.0912
  849DOPE   D2B 9961   9.588  28.777  13.845 -0.2528 -0.0228 -0.2290
  849DOPE   C3B 9962   9.289  28.746  13.590  0.0725  0.0905  0.2266
  849DOPE   C4B 9963   9.125  28.508  13.232  0.0702 -0.0820 -0.2348
  850DOPE   NH3 9964  10.034  26.824  14.438 -0.1295 -0.2405  0.0795
  850DOPE   PO4 9965  10.291  27.030  14.432  0.2832  0.3208  0.1228
  850DOPE   GL1 9966  10.383  26.930  14.054  0.0567 -0.1786  0.3271
  850DOPE   GL2 9967  10.122  26.898  13.927  0.2945 -0.4619 -0.0418
  850DOPE   C1A 9968  10.664  26.759  13.752 -0.1830  0.0871 -0.2221
  850DOPE   D2A 9969  10.561  26.663  13.298 -0.1971  0.1967  0.1078
  850DOPE   C3A 9970  10.608  26.642  12.804 -0.1279  0.0323  0.1634
  850DOPE   C4A 9971  10.547  26.454  12.344  0.2379 -0.0786 -0.0702
  850DOPE   C1B 9972   9.985  26.740  13.534  0.2377 -0.0829  0.1958
  850DOPE   D2B 9973   9.631  26.888  13.298  0.0965 -0.2333  0.2077
  850DOPE   C3B 9974   9.803  26.871  12.834  0.2550  0.1233 -0.1554
  850DOPE   C4B 9975  10.050  26.661  12.528 -0.2199  0.0071 -0.3328
  851DOPE   NH3 9976   4.727  24.921  14.036 -0.0796  0.0192  0.0933
  851DOPE   PO4 9977   4.709  24.643  14.156  0.2837  0.2630  0.1375
  851DOPE   GL1 9978   4.773  24.531  13.820 -0.0362 -0.3467  0.3138
  851DOPE   GL2 9979   4.644  24.330  13.772 -0.1597  0.0706 -0.0569
  851DOPE   C1A 9980   5.039  24.269  13.515  0.2531  0.1657 -0.0514
  851DOPE   D2A 9981   5.373  23.922  13.395 -0.0356  0.3532  0.3729
  851DOPE   C3A 9982   5.548  23.777  13.006  0.1604 -0.1733  0.3336
  851DOPE   C4A 9983   5.642  23.533  12.611 -0.4579  0.4042 -0.3432
  851DOPE   C1B 9984   4.553  24.376  13.375  0.0116 -0.2105 -0.4396
  851DOPE   D2B 9985   4.303  24.702  13.093  0.1000 -0.3841 -0.0827
  851DOPE   C3B 9986   4.007  24.469  12.795 -0.2398  0.4154 -0.4425
  851DOPE   C4B 9987   3.828  24.275  12.437 -0.1713 -0.3093 -0.0071
  852DOPS   CNO 9988  31.995  28.450  12.943  0.1342 -0.0782 -0.3170
  852DOPS   PO4 9989  32.228  28.619  12.702  0.0943  0.1055 -0.1367
  852DOPS   GL1 9990  32.437  28.567  12.432 -0.1627  0.0335  0.0925
  852DOPS   GL2 9991  32.671  28.423  12.541  0.1060 -0.0346 -0.0107
  852DOPS   C1A 9992  32.481  28.390  11.989 -0.2103 -0.0618  0.0602
  852DOPS   D2A 9993  32.514  28.330  11.517 -0.2148  0.1744 -0.0320
  852DOPS   C3A 9994  32.404  27.895  11.394  0.2035 -0.0206  0.0993
  852DOPS   C4A 9995  32.367  27.588  11.074  0.0479 -0.2512 -0.0730
  852DOPS   C1B 9996  32.533  28.031  12.363 -0.0227 -0.0768 -0.0712
  852DOPS   D2B 9997  32.494  27.816  11.936  0.0050  0.3558 -0.0231
  852DOPS   C3B 9998  32.051  28.032  11.791 -0.0804  0.1487 -0.1841
  852DOPS   C4B 9999  31.763  28.349  11.951  0.0353  0.0118 -0.1705
  853DOPE   NH310000   5.686  30.915  13.954 -0.1951  0.0992  0.3240
  853DOPE   PO410001   5.664  30.594  13.868  0.0569  0.0181 -0.0697
  853DOPE   GL110002   5.757  30.645  13.496  0.1906  0.0031  0.0534
  853DOPE   GL210003   6.025  30.792  13.513 -0.1990  0.1653  0.0641
  853DOPE   C1A10004   5.513  30.622  13.122 -0.2055  0.0942 -0.2316
  853DOPE   D2A10005   5.596  30.875  12.776 -0.1990 -0.2211 -0.0177
  853DOPE   C3A10006   5.462  30.754  12.337  0.1987  0.1231 -0.1769
  853DOPE   C4A10007   5.512  30.444  11.958  0.2833  0.2780  0.0512
  853DOPE   C1B10008   6.315  30.632  13.187  0.1430  0.1196 -0.0133
  853DOPE   D2B10009   6.293  30.446  12.772  0.1049 -0.2222 -0.3201
  853DOPE   C3B10010   6.451  30.250  12.413  0.0733 -0.0769  0.0357
  853DOPE   C4B10011   6.335  29.816  12.250  0.2982  0.2793 -0.0046
  854DOPE   NH310012   0.039  30.068  13.421 -0.2523  0.0793  0.2670
  854DOPE   PO410013  -0.181  30.144  13.213 -0.0417  0.1873  0.1381
  854DOPE   GL110014  -0.042  30.115  12.815 -0.3522  0.0989  0.0458
  854DOPE   GL210015  -0.228  29.902  12.732  0.1394  0.2922 -0.2057
  854DOPE   C1A10016   0.275  30.066  12.509 -0.0534 -0.0017  0.2460
  854DOPE   D2A10017   0.564  30.211  12.253 -0.2044  0.2607 -0.0875
  854DOPE   C3A10018   0.955  30.242  12.430  0.2464  0.0656  0.2938
  854DOPE   C4A10019   1.219  30.038  12.737 -0.0257 -0.2456 -0.0523
  854DOPE   C1B10020  -0.222  29.880  12.252 -0.3721 -0.2308 -0.1336
  854DOPE   D2B10021  -0.014  29.838  11.858 -0.5433  0.0116 -0.0819
  854DOPE   C3B10022  -0.127  30.071  11.475 -0.0488 -0.0328 -0.1554
  854DOPE   C4B10023  -0.169  30.297  11.066 -0.1106 -0.2628  0.1952
  855POSM   NC310024   2.123  24.768  14.295 -0.1631 -0.1288  0.2264
  855POSM   PO410025   1.802  24.765  14.046 -0.3755 -0.4486  0.0876
  855POSM   AM110026   1.840  24.574  13.780  0.0055  0.2180 -0.2626
  855POSM   AM210027   1.951  24.607  13.499  0.1051 -0.2277 -0.0030
  855POSM   T1A10028   1.592  24.302  13.433 -0.1114  0.0161 -0.1598
  855POSM   C2A10029   1.545  24.111  12.968 -0.0247 -0.0596  0.0611
  855POSM   C3A10030   1.396  23.736  12.739 -0.0318 -0.2359  0.1581
  855POSM   C1B10031   1.961  24.523  13.201 -0.3211 -0.1801  0.2878
  855POSM   D2B10032   1.921  24.444  12.774  0.1546  0.0815 -0.1415
  855POSM   C3B10033   2.370  24.393  12.717 -0.1113 -0.1376  0.1854
  855POSM   C4B10034   2.758  24.321  12.784  0.1821  0.0224 -0.1287
  856POSM   NC310035   5.330  28.429  14.312 -0.1970  0.4354 -0.1230
  856POSM   PO410036   5.033  28.668  14.229 -0.0802  0.3466 -0.1339
  856POSM   AM110037   5.139  28.575  13.887 -0.0973 -0.1005 -0.4400
  856POSM   AM210038   5.429  28.554  13.801  0.1960  0.2593  0.1858
  856POSM   T1A10039   5.001  28.292  13.503 -0.0688  0.1570  0.1256
  856POSM   C2A10040   4.739  28.467  13.141  0.0761  0.1651  0.1343
  856POSM   C3A10041   4.924  28.955  13.103  0.1710  0.0959  0.2977
  856POSM   C1B10042   5.642  28.601  13.503  0.0653  0.1299 -0.2831
  856POSM   D2B10043   5.927  28.468  13.131  0.4091 -0.0640  0.2176
  856POSM   C3B10044   5.660  28.264  12.752  0.2363 -0.0874  0.1559
  856POSM   C4B10045   5.691  28.064  12.328 -0.5752 -0.4041  0.0289
  857DOPC   NC310046   4.952  30.937  13.551 -0.2625 -0.0402 -0.0193
  857DOPC   PO410047   5.236  30.959  13.815 -0.0924  0.0711 -0.0615
  857DOPC   GL110048   5.423  30.940  13.470 -0.2587 -0.1127 -0.1386
  857DOPC   GL210049   5.265  31.055  13.177 -0.2556 -0.0417  0.3420
  857DOPC   C1A10050   5.775  31.098  13.223 -0.1353  0.0844  0.1362
  857DOPC   D2A10051   6.095  31.110  12.876 -0.0042 -0.0341 -0.1612
  857DOPC   C3A10052   5.924  31.090  12.467 -0.1717  0.3446  0.2040
  857DOPC   C4A10053   5.795  30.993  12.033 -0.1432  0.1594 -0.0939
  857DOPC   C1B10054   5.143  31.262  12.775  0.1630  0.0960  0.2289
  857DOPC   D2B10055   5.013  31.203  12.365 -0.1996  0.0658  0.1040
  857DOPC   C3B10056   4.546  31.279  12.269  0.0917  0.0200  0.2826
  857DOPC   C4B10057   4.246  31.210  11.925  0.1888 -0.2383  0.1461
  858DOPC   NC310058   1.744  33.190  13.672  0.2145  0.2996  0.0257
  858DOPC   PO410059   1.613  33.518  13.878  0.2403  0.0177 -0.2555
  858DOPC   GL110060   1.819  33.791  13.660 -0.0720 -0.2944  0.3714
  858DOPC   GL210061   2.053  33.703  13.531  0.1301 -0.1070  0.0254
  858DOPC   C1A10062   1.824  34.046  13.231 -0.1204 -0.0915 -0.0164
  858DOPC   D2A10063   1.966  34.044  12.753  0.1224 -0.3290  0.0539
  858DOPC   C3A10064   2.312  33.760  12.531 -0.1280 -0.0058  0.2423
  858DOPC   C4A10065   2.608  33.652  12.207 -0.1556  0.2049  0.2734
  858DOPC   C1B10066   2.231  33.804  13.123  0.0707 -0.0888 -0.3566
  858DOPC   D2B10067   2.674  33.717  12.928 -0.2267 -0.0567 -0.0831
  858DOPC   C3B10068   2.733  33.327  12.618 -0.0293  0.0515 -0.3941
  858DOPC   C4B10069   2.870  32.920  12.402  0.0419 -0.1112 -0.0830
  859POSM   NC310070   3.688  34.627  13.635  0.4410  0.0555 -0.3988
  859POSM   PO410071   3.868  34.478  13.940  0.0248 -0.1527  0.3819
  859POSM   AM110072   4.134  34.589  13.753 -0.3723 -0.1798 -0.0304
  859POSM   AM210073   4.319  34.786  13.716 -0.0381  0.1653 -0.2328
  859POSM   T1A10074   4.497  34.387  13.460 -0.0947 -0.2141 -0.1043
  859POSM   C2A10075   4.545  34.410  12.982  0.1241 -0.4470  0.4004
  859POSM   C3A10076   4.499  34.534  12.524  0.0907  0.0721 -0.0180
  859POSM   C1B10077   4.425  35.073  13.589 -0.0337 -0.0767 -0.1587
  859POSM   D2B10078   4.707  35.263  13.259  0.0242  0.2024 -0.1835
  859POSM   C3B10079   4.433  35.374  12.921 -0.1630 -0.4689 -0.1054
  859POSM   C4B10080   4.418  35.528  12.515 -0.1551 -0.0469 -0.0463
  860DOPC   NC310081   6.007  25.948  14.127  0.0642 -0.1803 -0.0669
  860DOPC   PO410082   6.062  25.608  13.927 -0.0113  0.2208 -0.3783
  860DOPC   GL110083   5.920  25.397  13.560  0.1117 -0.0411  0.1503
  860DOPC   GL210084   5.660  25.396  13.496  0.1244  0.0312 -0.0159
  860DOPC   C1A10085   6.054  25.178  13.164  0.0395  0.2115 -0.1519
  860DOPC   D2A10086   6.300  24.770  13.052  0.1461 -0.3431  0.3743
  860DOPC   C3A10087   6.414  24.718  12.616  0.2608 -0.4445 -0.2197
  860DOPC   C4A10088   6.834  24.921  12.566  0.3291  0.3223 -0.0041
  860DOPC   C1B10089   5.583  25.420  13.082  0.2228  0.2626  0.3315
  860DOPC   D2B10090   5.478  25.228  12.690  0.1469  0.1006 -0.1713
  860DOPC   C3B10091   5.694  25.454  12.366  0.0183 -0.1846 -0.0327
  860DOPC   C4B10092   5.825  25.863  12.251  0.0103  0.0232 -0.0712
  861POSM   NC310093  34.120  28.560  13.169 -0.0478  0.0791 -0.0034
  861POSM   PO410094  33.831  28.781  12.976  0.2113 -0.2080  0.2388
  861POSM   AM110095  33.915  28.844  12.667  0.4150 -0.1228 -0.2397
  861POSM   AM210096  33.809  28.706  12.456  0.1694  0.1431 -0.1139
  861POSM   T1A10097  34.217  28.842  12.224 -0.2561  0.0865  0.1533
  861POSM   C2A10098  34.642  28.793  12.036  0.1163 -0.0062 -0.1960
  861POSM   C3A10099  35.084  28.892  12.072 -0.1396  0.0909  0.0185
  861POSM   C1B10100  33.847  28.594  12.128  0.0353 -0.3731  0.0320
  861POSM   D2B10101  34.224  28.471  11.848 -0.2836  0.1693 -0.0488
  861POSM   C3B10102  34.438  28.714  11.497  0.0424  0.2155  0.1174
  861POSM   C4B10103  34.494  28.658  11.065  0.0009  0.2814  0.0966
  862DOPC   NC310104   2.199  28.206  13.616 -0.1694 -0.0508  0.0693
  862DOPC   PO410105   1.906  28.409  13.626  0.1641 -0.1592  0.0234
  862DOPC   GL110106   1.905  28.427  13.204 -0.1206  0.1965  0.2109
  862DOPC   GL210107   2.107  28.596  13.138  0.4175 -0.1844  0.2733
  862DOPC   C1A10108   1.685  28.665  12.839 -0.3662 -0.0270 -0.0700
  862DOPC   D2A10109   1.655  28.664  12.338  0.0736 -0.2330 -0.1171
  862DOPC   C3A10110   1.845  28.893  11.985 -0.1593 -0.0130 -0.0062
  862DOPC   C4A10111   2.271  29.147  11.882  0.1568 -0.2640  0.2596
  862DOPC   C1B10112   2.160  28.663  12.688 -0.2058  0.0371  0.0492
  862DOPC   D2B10113   2.248  28.726  12.277  0.2561 -0.0199  0.1380
  862DOPC   C3B10114   2.474  29.126  12.399  0.1271 -0.1826 -0.2731
  862DOPC   C4B10115   2.310  29.442  12.652 -0.1500 -0.0400  0.0017
  863POSM   NC310116   3.894  33.298  14.314 -0.1346 -0.1287 -0.2716
  863POSM   PO410117   3.825  33.289  13.898 -0.0120 -0.2041  0.1273
  863POSM   AM110118   3.787  33.448  13.618  0.2573  0.1289  0.1172
  863POSM   AM210119   3.968  33.635  13.452  0.4908  0.2798 -0.0185
  863POSM   T1A10120   3.575  33.573  13.109  0.3478 -0.0722 -0.1152
  863POSM   C2A10121   3.729  33.857  12.801  0.2326  0.0737  0.1273
  863POSM   C3A10122   3.623  34.351  12.814  0.0101  0.0148 -0.2239
  863POSM   C1B10123   3.912  33.941  13.322  0.1045  0.0209 -0.1700
  863POSM   D2B10124   4.012  34.425  13.263 -0.0888 -0.0297  0.2577
  863POSM   C3B10125   3.979  34.701  12.922 -0.0189 -0.0618  0.0212
  863POSM   C4B10126   3.927  34.716  12.444  0.4463 -0.1021  0.0998
  864DOPE   NH310127  34.421  32.195  13.822 -0.1008 -0.2383 -0.1584
  864DOPE   PO410128  34.704  32.341  13.722  0.1648  0.0445  0.1143
  864DOPE   GL110129  34.832  32.104  13.513 -0.0569  0.1319  0.1379
  864DOPE   GL210130  34.729  32.133  13.242 -0.5037  0.2019  0.1471
  864DOPE   C1A10131  35.195  31.969  13.247  0.3216 -0.1006  0.1094
  864DOPE   D2A10132  35.402  32.126  12.883  0.1647  0.1525  0.1044
  864DOPE   C3A10133  35.693  31.763  12.654  0.0589  0.0101 -0.0617
  864DOPE   C4A10134  35.694  31.557  12.239 -0.0372  0.1536 -0.0603
  864DOPE   C1B10135  34.354  32.110  12.916  0.0939  0.2474 -0.1349
  864DOPE   D2B10136  34.038  32.148  12.571  0.0768  0.0497 -0.2128
  864DOPE   C3B10137  33.661  31.859  12.579 -0.0220 -0.1462 -0.0317
  864DOPE   C4B10138  33.484  31.543  12.306 -0.0852 -0.0017  0.1359
  865DOPC   NC310139   8.378  25.769  13.824  0.0588  0.1979  0.0699
  865DOPC   PO410140   8.297  26.084  14.043 -0.2520  0.1854  0.1576
  865DOPC   GL110141   8.188  26.094  13.620  0.0680  0.1540  0.1451
  865DOPC   GL210142   7.861  26.129  13.630  0.4082  0.0185 -0.1538
  865DOPC   C1A10143   8.294  26.343  13.233  0.2119  0.1371 -0.0663
  865DOPC   D2A10144   8.468  26.242  12.850  0.1270 -0.2587 -0.2414
  865DOPC   C3A10145   8.300  25.969  12.542 -0.0581  0.0402 -0.0056
  865DOPC   C4A10146   8.061  25.746  12.230  0.4638 -0.0727 -0.0288
  865DOPC   C1B10147   7.799  26.231  13.200  0.0603 -0.2589 -0.1054
  865DOPC   D2B10148   7.818  26.403  12.721  0.2677 -0.1662  0.1364
  865DOPC   C3B10149   7.871  26.217  12.330 -0.1426  0.1641 -0.2540
  865DOPC   C4B10150   7.990  26.111  11.914  0.0652  0.0662  0.1600
  866DOPC   NC310151   5.560  23.967  13.926 -0.2757 -0.1320  0.1220
  866DOPC   PO410152   5.437  23.780  14.252  0.0095 -0.2332 -0.1482
  866DOPC   GL110153   5.719  23.505  14.010  0.5280 -0.1727  0.0082
  866DOPC   GL210154   5.883  23.665  13.785  0.1310  0.3328  0.3336
  866DOPC   C1A10155   5.814  23.119  13.762 -0.0580  0.0651  0.0690
  866DOPC   D2A10156   6.064  22.780  13.589  0.3677 -0.1670  0.1073
  866DOPC   C3A10157   5.928  22.354  13.673  0.0773  0.4353  0.0917
  866DOPC   C4A10158   5.758  21.936  13.804  0.1545  0.0155 -0.2161
  866DOPC   C1B10159   5.925  23.522  13.370  0.1263  0.0412 -0.0462
  866DOPC   D2B10160   6.047  23.641  12.968 -0.1306  0.1461  0.0696
  866DOPC   C3B10161   6.152  23.262  12.784 -0.4007 -0.1500  0.1578
  866DOPC   C4B10162   6.441  22.913  12.808 -0.2354 -0.1682  0.2910
  867DOPC   NC310163  34.685  27.767  12.984  0.0086 -0.2638 -0.0234
  867DOPC   PO410164  35.060  27.812  13.102 -0.0638  0.2704  0.0646
  867DOPC   GL110165  35.120  27.689  12.697  0.3118  0.1085 -0.0835
  867DOPC   GL210166  34.960  27.384  12.802 -0.0789 -0.1530 -0.1384
  867DOPC   C1A10167  35.386  27.917  12.403  0.0423  0.2909 -0.0366
  867DOPC   D2A10168  35.739  28.078  12.209  0.1255 -0.2371 -0.2975
  867DOPC   C3A10169  35.996  27.883  11.831  0.2074 -0.0703  0.0642
  867DOPC   C4A10170  36.417  27.921  11.575 -0.5119  0.1661 -0.0065
  867DOPC   C1B10171  34.982  27.433  12.343  0.0749 -0.3291  0.0616
  867DOPC   D2B10172  34.819  27.345  11.888  0.0030  0.0157  0.2240
  867DOPC   C3B10173  35.260  27.230  11.787 -0.4876 -0.1436 -0.1417
  867DOPC   C4B10174  35.536  26.918  11.711 -0.0553 -0.0520  0.2520
  868DOPC   NC310175   9.792  32.045  14.933  0.1060  0.0014 -0.2405
  868DOPC   PO410176   9.609  32.259  14.680  0.0186 -0.2961  0.1469
  868DOPC   GL110177   9.433  32.483  14.375  0.2909 -0.0342 -0.1529
  868DOPC   GL210178   9.687  32.548  14.272  0.2429  0.0734  0.1120
  868DOPC   C1A10179   9.239  32.493  13.953  0.0479  0.2995 -0.2110
  868DOPC   D2A10180   9.141  32.222  13.597 -0.0134  0.4700 -0.0583
  868DOPC   C3A10181   9.457  31.986  13.352 -0.1323 -0.0022  0.0104
  868DOPC   C4A10182   9.590  31.631  13.115  0.3009 -0.0809 -0.0953
  868DOPC   C1B10183  10.061  32.474  14.072  0.1604 -0.2519 -0.2503
  868DOPC   D2B10184  10.387  32.725  13.873 -0.2679 -0.0734 -0.1347
  868DOPC   C3B10185  10.629  32.563  13.496 -0.1261  0.2244 -0.1426
  868DOPC   C4B10186  10.817  32.590  13.108 -0.2729  0.0789 -0.0147
  869DOPS   CNO10187   0.992  28.277  13.936 -0.0064 -0.2522  0.2952
  869DOPS   PO410188   0.969  28.180  13.553 -0.0231 -0.2203 -0.1720
  869DOPS   GL110189   0.938  28.043  13.216 -0.1051 -0.2397 -0.0846
  869DOPS   GL210190   0.750  27.777  13.240 -0.1410 -0.2056 -0.0265
  869DOPS   C1A10191   1.322  27.816  13.121 -0.1101  0.0275  0.4696
  869DOPS   D2A10192   1.454  27.776  12.679 -0.2820  0.1683  0.1768
  869DOPS   C3A10193   1.202  27.595  12.383  0.0035  0.1747  0.2302
  869DOPS   C4A10194   1.234  27.144  12.213  0.1337 -0.0056  0.2118
  869DOPS   C1B10195   1.008  27.872  12.786 -0.0604  0.3603  0.3009
  869DOPS   D2B10196   1.320  28.236  12.744 -0.2613 -0.3228  0.0437
  869DOPS   C3B10197   1.412  28.181  12.342  0.2051  0.1192  0.1582
  869DOPS   C4B10198   1.349  28.435  11.934 -0.2180  0.1124  0.1221
  870DOPC   NC310199   6.304  29.112  13.775 -0.1278  0.3708  0.0362
  870DOPC   PO410200   6.437  28.870  14.079  0.1391 -0.3389 -0.1116
  870DOPC   GL110201   6.640  28.769  13.748  0.0743  0.0201 -0.1511
  870DOPC   GL210202   6.828  28.655  13.828  0.0585 -0.0437 -0.0454
  870DOPC   C1A10203   6.723  28.671  13.324 -0.0039  0.0752 -0.4901
  870DOPC   D2A10204   6.475  28.525  13.032  0.1657  0.1548 -0.3469
  870DOPC   C3A10205   6.229  28.522  12.651  0.0782 -0.1685 -0.1735
  870DOPC   C4A10206   5.869  28.610  12.394 -0.3190 -0.1083 -0.0793
  870DOPC   C1B10207   7.134  28.796  13.582  0.3816  0.0240 -0.1077
  870DOPC   D2B10208   7.373  28.649  13.203  0.0821 -0.0341 -0.1842
  870DOPC   C3B10209   7.054  28.454  12.947 -0.2486  0.1062 -0.1271
  870DOPC   C4B10210   6.918  28.581  12.559 -0.1591 -0.0559 -0.1914
  871DOPS   CNO10211   8.041  32.638  14.360 -0.2206  0.0413 -0.0327
  871DOPS   PO410212   8.098  32.313  14.171  0.0781  0.0359  0.0899
  871DOPS   GL110213   8.167  31.983  14.039  0.0566 -0.3419  0.0640
  871DOPS   GL210214   7.850  31.944  13.924 -0.0342 -0.0936  0.2117
  871DOPS   C1A10215   8.531  31.801  13.722  0.0386  0.1220 -0.2154
  871DOPS   D2A10216   8.878  31.810  13.419  0.1558  0.2033 -0.2494
  871DOPS   C3A10217   9.194  31.658  13.727  0.1448 -0.1975  0.0143
  871DOPS   C4A10218   9.592  31.776  13.794 -0.0064 -0.1272  0.0296
  871DOPS   C1B10219   7.517  31.776  13.629 -0.0793  0.1111  0.1337
  871DOPS   D2B10220   7.245  31.708  13.227 -0.3580 -0.0888 -0.4828
  871DOPS   C3B10221   7.107  31.920  12.827  0.0684 -0.2824 -0.3090
  871DOPS   C4B10222   6.908  32.271  12.597  0.1942 -0.0253 -0.1124
  872POSM   NC310223  11.810  26.064  14.657  0.0049  0.2810  0.1073
  872POSM   PO410224  11.839  26.007  14.263 -0.0728 -0.2167  0.0107
  872POSM   AM110225  12.022  26.013  13.983  0.1383 -0.1230 -0.0352
  872POSM   AM210226  12.034  25.866  13.734 -0.0502 -0.1203  0.0140
  872POSM   T1A10227  12.439  26.112  13.662  0.1223 -0.1894  0.0857
  872POSM   C2A10228  12.463  26.286  13.271  0.0378 -0.0847 -0.1207
  872POSM   C3A10229  12.330  26.442  12.861 -0.3296 -0.0524  0.2505
  872POSM   C1B10230  12.127  25.833  13.422 -0.3288 -0.0104  0.1426
  872POSM   D2B10231  12.267  25.925  13.001  0.1368 -0.1703  0.0325
  872POSM   C3B10232  12.527  25.705  12.799  0.0710 -0.0523  0.1652
  872POSM   C4B10233  12.493  25.547  12.350 -0.2565  0.1983  0.0733
  873DOPS   CNO10234   3.230  30.497  14.062 -0.0740  0.2608 -0.0752
  873DOPS   PO410235   3.325  30.722  13.776 -0.3001 -0.0195 -0.1566
  873DOPS   GL110236   3.309  30.758  13.362  0.3447  0.2580 -0.0874
  873DOPS   GL210237   3.001  30.805  13.391  0.1450 -0.1341 -0.1526
  873DOPS   C1A10238   3.254  30.674  12.915 -0.3034  0.1222 -0.1398
  873DOPS   D2A10239   3.318  30.761  12.485  0.0729 -0.2059  0.0571
  873DOPS   C3A10240   3.659  30.984  12.317  0.2430 -0.0208 -0.1993
  873DOPS   C4A10241   3.684  31.346  12.030 -0.1628 -0.1261 -0.0069
  873DOPS   C1B10242   2.779  30.602  13.047  0.1635  0.3561 -0.1011
  873DOPS   D2B10243   2.834  30.439  12.564 -0.0700 -0.0504 -0.0555
  873DOPS   C3B10244   2.902  30.380  12.110  0.0592  0.0082 -0.1763
  873DOPS   C4B10245   3.219  30.427  11.772  0.0300  0.0379  0.1784
  874DOPS   CNO10246  34.694  30.428  13.903  0.1073  0.0281  0.1503
  874DOPS   PO410247  34.575  30.499  13.552  0.0157  0.0917 -0.0798
  874DOPS   GL110248  34.829  30.538  13.227 -0.0035 -0.1475  0.3661
  874DOPS   GL210249  34.575  30.635  13.074 -0.1094 -0.3328  0.0383
  874DOPS   C1A10250  34.989  30.514  12.776 -0.2779  0.0982 -0.0608
  874DOPS   D2A10251  35.428  30.542  12.622 -0.0206 -0.1506 -0.2445
  874DOPS   C3A10252  35.842  30.717  12.387  0.0542 -0.1235  0.0293
  874DOPS   C4A10253  35.781  31.098  12.091  0.1013  0.0550 -0.2156
  874DOPS   C1B10254  34.606  30.878  12.734  0.0570 -0.1168 -0.1699
  874DOPS   D2B10255  34.560  31.039  12.311 -0.1068  0.2059 -0.1819
  874DOPS   C3B10256  34.377  30.793  11.948 -0.2158  0.3090 -0.1082
  874DOPS   C4B10257  34.405  30.518  11.550 -0.0508 -0.0937 -0.1439
  875DOPE   NH310258  34.098  30.855  13.532 -0.0151  0.0910  0.1237
  875DOPE   PO410259  34.328  30.966  13.345 -0.4061 -0.0882  0.1799
  875DOPE   GL110260  34.337  31.200  13.121  0.5318  0.0018  0.0745
  875DOPE   GL210261  34.196  31.284  12.935  0.2543 -0.1081  0.5980
  875DOPE   C1A10262  34.644  31.448  12.836 -0.0866 -0.1847 -0.2602
  875DOPE   D2A10263  34.884  31.830  12.737 -0.0879 -0.1245 -0.2096
  875DOPE   C3A10264  35.229  31.944  12.456 -0.1183 -0.0840  0.0916
  875DOPE   C4A10265  35.579  32.103  12.084  0.0454 -0.1317 -0.1859
  875DOPE   C1B10266  33.856  31.257  12.592 -0.1922  0.0490 -0.1470
  875DOPE   D2B10267  33.701  31.015  12.223 -0.2303 -0.2101  0.0364
  875DOPE   C3B10268  33.548  31.346  11.880  0.2189  0.2903  0.1756
  875DOPE   C4B10269  33.264  31.687  11.810  0.0177  0.0407  0.0193
  876DOPE   NH310270  11.495  25.178  14.173 -0.1152  0.1958  0.1894
  876DOPE   PO410271  11.660  25.030  13.924 -0.2535 -0.0640 -0.0980
  876DOPE   GL110272  11.466  24.844  13.649 -0.3423  0.3170  0.2372
  876DOPE   GL210273  11.439  25.035  13.418 -0.1278  0.1857  0.0596
  876DOPE   C1A10274  11.167  24.432  13.535 -0.0638  0.5262 -0.0467
  876DOPE   D2A10275  10.986  23.996  13.546  0.2075 -0.0409  0.0721
  876DOPE   C3A10276  11.069  23.951  13.131  0.4327 -0.0855 -0.0477
  876DOPE   C4A10277  11.406  23.977  12.828 -0.1009  0.0766  0.0642
  876DOPE   C1B10278  11.638  25.297  13.084  0.3573  0.0499 -0.0056
  876DOPE   D2B10279  11.891  25.655  13.015  0.0996  0.1990 -0.1288
  876DOPE   C3B10280  11.595  25.773  12.662  0.0582 -0.2352  0.0071
  876DOPE   C4B10281  11.322  25.897  12.268 -0.0436  0.0534  0.1106
  877DOPE   NH310282   6.795  34.464  14.482  0.3423 -0.0081 -0.0082
  877DOPE   PO410283   7.044  34.302  14.507 -0.0163  0.1093  0.1852
  877DOPE   GL110284   7.028  34.323  14.086  0.0820 -0.1333 -0.0750
  877DOPE   GL210285   7.290  34.537  13.899  0.1591  0.0364  0.1418
  877DOPE   C1A10286   6.776  34.536  13.784  0.1556  0.3878  0.2855
  877DOPE   D2A10287   6.405  34.656  13.615  0.2652  0.1447 -0.1509
  877DOPE   C3A10288   6.056  34.479  13.328 -0.0709 -0.0249  0.3196
  877DOPE   C4A10289   5.711  34.301  13.084 -0.2721 -0.0940 -0.0119
  877DOPE   C1B10290   7.472  34.816  13.658 -0.2810 -0.1776  0.1854
  877DOPE   D2B10291   7.839  35.101  13.489 -0.0675  0.0548  0.0682
  877DOPE   C3B10292   7.805  35.360  13.057 -0.0645  0.0811 -0.0138
  877DOPE   C4B10293   8.165  35.395  12.704 -0.1956 -0.1850  0.1073
  878DOPC   NC310294   2.934  33.242  13.979  0.0602  0.4488 -0.0895
  878DOPC   PO410295   3.027  32.868  13.914  0.0336  0.1712  0.0801
  878DOPC   GL110296   3.098  32.956  13.462 -0.0622 -0.2051  0.4534
  878DOPC   GL210297   2.783  32.965  13.405 -0.1137  0.0176  0.3283
  878DOPC   C1A10298   3.431  33.035  13.138  0.0619  0.2867 -0.2005
  878DOPC   D2A10299   3.693  33.106  12.792  0.1444 -0.0558 -0.1597
  878DOPC   C3A10300   4.096  32.854  12.642  0.1047 -0.0694 -0.2201
  878DOPC   C4A10301   4.212  32.535  12.337 -0.0848 -0.2213  0.3090
  878DOPC   C1B10302   2.931  33.016  12.956 -0.1312 -0.0418  0.2490
  878DOPC   D2B10303   3.272  32.842  12.732  0.1298  0.0882 -0.3498
  878DOPC   C3B10304   3.365  32.964  12.352 -0.0127 -0.1756 -0.3069
  878DOPC   C4B10305   3.177  32.917  11.946 -0.0066  0.1209 -0.2425
  879DOPC   NC310306  12.639  27.580  13.704  0.0010  0.1545 -0.0248
  879DOPC   PO410307  12.701  27.764  14.047 -0.0612 -0.0067 -0.4928
  879DOPC   GL110308  12.560  28.104  13.724 -0.1499 -0.1657  0.1302
  879DOPC   GL210309  12.776  28.300  13.646 -0.0733 -0.0278  0.0304
  879DOPC   C1A10310  12.324  28.328  13.412 -0.2451  0.1489  0.2575
  879DOPC   D2A10311  12.366  28.776  13.338  0.0052 -0.2133 -0.2740
  879DOPC   C3A10312  12.323  29.020  12.946 -0.1187  0.0276  0.2162
  879DOPC   C4A10313  12.436  29.050  12.484 -0.2849 -0.1463  0.0338
  879DOPC   C1B10314  12.746  27.998  13.281 -0.0286 -0.0330 -0.0083
  879DOPC   D2B10315  12.704  27.797  12.871 -0.1666  0.0904 -0.2473
  879DOPC   C3B10316  12.619  27.369  12.714  0.2546 -0.0402  0.1761
  879DOPC   C4B10317  12.550  27.008  13.030  0.0075 -0.0495  0.2504
  880POSM   NC310318   1.829  31.603  14.036 -0.0925  0.0016  0.1080
  880POSM   PO410319   2.081  31.445  13.840 -0.0534  0.0853  0.3034
  880POSM   AM110320   2.151  31.623  13.607  0.0806 -0.1765  0.1440
  880POSM   AM210321   2.332  31.575  13.409 -0.1361 -0.1306  0.2405
  880POSM   T1A10322   1.965  31.817  13.199 -0.0169  0.1405  0.2004
  880POSM   C2A10323   1.834  32.069  12.918 -0.0062  0.1810 -0.0710
  880POSM   C3A10324   1.624  32.288  12.602  0.3316 -0.1802 -0.1502
  880POSM   C1B10325   2.506  31.638  13.120 -0.0574  0.2137  0.0980
  880POSM   D2B10326   2.676  31.672  12.668 -0.1150 -0.1033  0.2034
  880POSM   C3B10327   2.548  32.071  12.500 -0.1823  0.2400 -0.0274
  880POSM   C4B10328   2.088  32.241  12.471 -0.3314 -0.0976  0.0590
  881POSM   NC310329   0.636  33.531  14.075 -0.0465  0.3194  0.0364
  881POSM   PO410330   0.550  33.136  13.977 -0.1847 -0.2559  0.0712
  881POSM   AM110331   0.585  33.223  13.668  0.0080 -0.1425 -0.3261
  881POSM   AM210332   0.484  33.170  13.410  0.0296  0.2738 -0.0820
  881POSM   T1A10333   0.701  33.631  13.445 -0.0797 -0.2943  0.4155
  881POSM   C2A10334   0.979  33.990  13.316 -0.0560 -0.2121  0.4203
  881POSM   C3A10335   1.342  34.067  13.048 -0.0528 -0.0285  0.0249
  881POSM   C1B10336   0.351  33.036  13.112 -0.0465  0.1002  0.1677
  881POSM   D2B10337   0.520  32.752  12.734  0.3041  0.0432  0.1806
  881POSM   C3B10338   0.889  32.711  12.459 -0.0794 -0.0088  0.0027
  881POSM   C4B10339   1.174  32.453  12.197  0.1959  0.1731 -0.1586
  882DOPE   NH310340   1.423  27.441  13.649 -0.0228  0.0093 -0.2808
  882DOPE   PO410341   1.751  27.484  13.556 -0.0235 -0.2101  0.0631
  882DOPE   GL110342   1.725  27.707  13.186  0.1849 -0.1817  0.0623
  882DOPE   GL210343   1.848  27.525  13.029 -0.0362  0.2569 -0.0423
  882DOPE   C1A10344   1.783  28.122  12.910  0.4852 -0.0520 -0.2312
  882DOPE   D2A10345   1.943  28.215  12.530 -0.0041  0.2601 -0.1273
  882DOPE   C3A10346   1.851  27.897  12.246 -0.0907  0.0101  0.3250
  882DOPE   C4A10347   1.628  27.520  12.072  0.3216  0.1378  0.2273
  882DOPE   C1B10348   2.251  27.287  13.029  0.3127  0.0454  0.0747
  882DOPE   D2B10349   2.671  27.112  13.063  0.4162  0.5632 -0.2567
  882DOPE   C3B10350   2.868  27.169  12.645  0.4897 -0.1169  0.0046
  882DOPE   C4B10351   2.877  27.195  12.201 -0.0071 -0.1916 -0.1281
  883DOPE   NH310352   4.989  30.158  13.899 -0.0322  0.1114 -0.1231
  883DOPE   PO410353   4.957  29.947  13.678  0.2900 -0.0018  0.0229
  883DOPE   GL110354   4.985  30.115  13.367  0.3430  0.0071  0.0154
  883DOPE   GL210355   4.773  30.040  13.027  0.0103  0.2054 -0.1887
  883DOPE   C1A10356   5.227  30.179  12.991  0.0339 -0.1576  0.1062
  883DOPE   D2A10357   5.504  30.335  12.694 -0.0313  0.1716  0.0528
  883DOPE   C3A10358   5.483  30.033  12.304  0.0599  0.4077  0.1337
  883DOPE   C4A10359   5.236  29.715  12.046 -0.1524 -0.2785  0.0050
  883DOPE   C1B10360   4.678  29.787  12.638  0.1548 -0.2116 -0.0043
  883DOPE   D2B10361   4.783  29.517  12.252 -0.0585 -0.2234  0.1528
  883DOPE   C3B10362   4.453  29.225  12.052 -0.3558  0.0370  0.0983
  883DOPE   C4B10363   4.101  29.207  11.746  0.0418 -0.3079  0.1106
  884DOPE   NH310364   4.902  34.277  14.166 -0.2657  0.2672  0.3560
  884DOPE   PO410365   5.161  34.190  14.112 -0.1130  0.0996  0.1447
  884DOPE   GL110366   5.195  34.158  13.718 -0.0699  0.0365  0.0468
  884DOPE   GL210367   4.866  34.114  13.663 -0.1940 -0.2632 -0.3782
  884DOPE   C1A10368   5.443  33.827  13.456  0.2768  0.0879  0.0862
  884DOPE   D2A10369   5.656  33.613  13.138 -0.3255 -0.3484 -0.3415
  884DOPE   C3A10370   5.742  33.171  13.102  0.0212 -0.3792  0.0076
  884DOPE   C4A10371   6.170  32.978  13.040  0.1018 -0.3013  0.2575
  884DOPE   C1B10372   5.067  34.267  13.272  0.1194 -0.0746  0.1233
  884DOPE   D2B10373   5.137  34.436  12.793 -0.1380 -0.2906 -0.0534
  884DOPE   C3B10374   5.578  34.432  12.640 -0.0706  0.0946 -0.1676
  884DOPE   C4B10375   6.022  34.443  12.609  0.1571  0.2297 -0.2975
  885DOPC   NC310376   6.162  28.546  14.310 -0.1765 -0.0166  0.1157
  885DOPC   PO410377   5.859  28.358  14.142  0.0114 -0.1472  0.1796
  885DOPC   GL110378   5.825  28.274  13.781  0.0681 -0.0096 -0.0983
  885DOPC   GL210379   5.938  28.259  13.538 -0.0547  0.0505 -0.0230
  885DOPC   C1A10380   5.484  28.109  13.526 -0.2787  0.4863  0.0332
  885DOPC   D2A10381   5.277  28.134  13.086  0.1378 -0.1092 -0.1519
  885DOPC   C3A10382   5.094  28.319  12.784 -0.1420 -0.1836  0.2393
  885DOPC   C4A10383   4.757  28.613  12.661  0.0018  0.1452  0.1463
  885DOPC   C1B10384   6.204  28.008  13.286 -0.3654 -0.0190  0.1403
  885DOPC   D2B10385   6.352  27.616  13.241 -0.2132  0.1292 -0.2269
  885DOPC   C3B10386   5.973  27.460  13.162  0.0265 -0.1660 -0.1794
  885DOPC   C4B10387   5.599  27.284  12.996 -0.2829  0.0442 -0.1157
  886DOPC   NC310388  32.172  29.842  13.432  0.3097 -0.0818  0.1725
  886DOPC   PO410389  31.984  29.667  13.177  0.3187  0.1416 -0.1046
  886DOPC   GL110390  32.093  29.886  12.908  0.0975  0.1058 -0.3536
  886DOPC   GL210391  32.053  29.661  12.655  0.4386  0.0600 -0.1890
  886DOPC   C1A10392  31.892  30.246  12.690 -0.0841  0.1085 -0.2042
  886DOPC   D2A10393  31.842  30.625  12.371 -0.0456  0.1823 -0.0693
  886DOPC   C3A10394  31.973  31.078  12.396  0.2653 -0.1397  0.1332
  886DOPC   C4A10395  32.005  31.523  12.450 -0.2378 -0.0067  0.3534
  886DOPC   C1B10396  31.947  29.822  12.242 -0.0523  0.1297 -0.1006
  886DOPC   D2B10397  31.963  29.841  11.783  0.2373 -0.2995  0.0197
  886DOPC   C3B10398  32.074  29.491  11.536 -0.1847  0.3258 -0.0009
  886DOPC   C4B10399  31.813  29.151  11.370  0.0469 -0.1451  0.2093
  887POSM   NC310400   4.229  24.813  14.394 -0.0080 -0.1943  0.0364
  887POSM   PO410401   4.349  25.183  14.303 -0.0504  0.3407  0.0474
  887POSM   AM110402   4.400  25.245  13.947 -0.1977  0.0788 -0.3719
  887POSM   AM210403   4.357  25.147  13.686 -0.2000 -0.1850  0.1366
  887POSM   T1A10404   4.622  25.583  13.682  0.1076  0.0570  0.0246
  887POSM   C2A10405   4.953  25.738  13.427  0.1965  0.3766 -0.1578
  887POSM   C3A10406   5.149  25.939  13.021 -0.2052  0.0235  0.1221
  887POSM   C1B10407   4.563  24.903  13.511 -0.1023  0.1457  0.2125
  887POSM   D2B10408   4.731  24.849  13.101 -0.1969  0.1358 -0.1575
  887POSM   C3B10409   4.921  24.454  13.065  0.0545  0.0368  0.2271
  887POSM   C4B10410   4.850  23.989  13.075 -0.0189 -0.1905 -0.0261
  888DOPC   NC310411   0.557  34.399  14.017  0.0800 -0.0269 -0.0423
  888DOPC   PO410412   0.475  34.283  13.635  0.3763 -0.1258 -0.2181
  888DOPC   GL110413   0.547  34.098  13.273 -0.1381  0.1794 -0.4095
  888DOPC   GL210414   0.485  34.384  13.125  0.1163  0.1612  0.0807
  888DOPC   C1A10415   0.279  33.998  12.937 -0.1791  0.1321 -0.0794
  888DOPC   D2A10416   0.181  34.074  12.490 -0.1317 -0.1688  0.1865
  888DOPC   C3A10417   0.522  34.127  12.177  0.0733  0.2610  0.1478
  888DOPC   C4A10418   0.905  34.103  11.883 -0.1389  0.0273 -0.0348
  888DOPC   C1B10419   0.757  34.187  12.824 -0.0522 -0.0189  0.1033
  888DOPC   D2B10420   1.014  34.192  12.500  0.1205  0.0665 -0.1330
  888DOPC   C3B10421   1.288  34.017  12.166  0.2000  0.0806  0.1147
  888DOPC   C4B10422   1.290  33.787  11.754 -0.0656  0.0510  0.1218
  889DOPE   NH310423   7.700  28.273  14.471 -0.0042  0.2895 -0.1532
  889DOPE   PO410424   7.581  28.293  14.171  0.0826 -0.0247  0.0148
  889DOPE   GL110425   7.904  28.262  13.960 -0.4408  0.0156 -0.3497
  889DOPE   GL210426   7.948  27.956  14.044  0.1870 -0.0491 -0.1996
  889DOPE   C1A10427   7.952  28.451  13.534  0.2481 -0.0630  0.3195
  889DOPE   D2A10428   7.838  28.335  13.086  0.0553  0.3194  0.1129
  889DOPE   C3A10429   7.582  28.327  12.721  0.2381 -0.0270  0.0644
  889DOPE   C4A10430   7.343  28.488  12.322  0.1259  0.0955 -0.1011
  889DOPE   C1B10431   8.203  27.834  13.714  0.2343  0.3717  0.1605
  889DOPE   D2B10432   8.387  27.902  13.297 -0.1423  0.0419  0.2397
  889DOPE   C3B10433   8.789  28.105  13.220 -0.1240  0.3916 -0.0971
  889DOPE   C4B10434   9.073  28.115  12.865  0.1418  0.0695  0.0834
  890DOPC   NC310435   1.176  32.245  13.745 -0.0770 -0.2313 -0.0676
  890DOPC   PO410436   0.884  32.385  13.930 -0.1033  0.0419  0.0718
  890DOPC   GL110437   0.903  32.404  13.416  0.0687  0.2902 -0.2587
  890DOPC   GL210438   0.586  32.460  13.309 -0.0891  0.3246  0.1087
  890DOPC   C1A10439   0.943  32.534  12.942 -0.3084  0.0311  0.0228
  890DOPC   D2A10440   1.042  32.213  12.587 -0.3267 -0.0062  0.2514
  890DOPC   C3A10441   1.319  31.911  12.402  0.0241  0.0467 -0.0188
  890DOPC   C4A10442   1.628  31.597  12.520  0.1820  0.1547  0.0223
  890DOPC   C1B10443   0.219  32.478  12.987 -0.1356  0.1364  0.2826
  890DOPC   D2B10444   0.204  32.306  12.589  0.0498  0.3396 -0.0336
  890DOPC   C3B10445   0.448  32.532  12.268  0.1928  0.2611 -0.1539
  890DOPC   C4B10446   0.698  32.683  11.947 -0.1888  0.3520  0.0552
  891DOPE   NH310447  33.677  30.120  12.863 -0.0780 -0.0234 -0.0116
  891DOPE   PO410448  33.981  30.275  12.924  0.1057 -0.1157 -0.0872
  891DOPE   GL110449  33.892  30.511  12.658  0.0065  0.5153 -0.0524
  891DOPE   GL210450  33.867  30.335  12.422  0.0749  0.2191  0.1355
  891DOPE   C1A10451  34.133  30.791  12.364 -0.0446 -0.0617  0.1447
  891DOPE   D2A10452  34.132  31.259  12.124  0.2381  0.1818 -0.0059
  891DOPE   C3A10453  33.986  31.693  12.206  0.1222  0.1149 -0.0503
  891DOPE   C4A10454  33.678  31.916  11.966  0.0187 -0.2124 -0.1689
  891DOPE   C1B10455  34.202  30.357  12.114  0.1274  0.1847 -0.1563
  891DOPE   D2B10456  34.663  30.305  11.996  0.0636 -0.1212 -0.0526
  891DOPE   C3B10457  34.949  30.475  12.276  0.0839  0.0851  0.0463
  891DOPE   C4B10458  35.364  30.670  12.125  0.1312 -0.1351  0.0264
  892DOPE   NH310459   9.513  25.589  14.055  0.0767 -0.1731  0.1066
  892DOPE   PO410460   9.200  25.696  14.086 -0.1418  0.0372  0.1007
  892DOPE   GL110461   9.278  25.884  13.772  0.0963 -0.2418 -0.0917
  892DOPE   GL210462   9.232  25.652  13.610 -0.2116  0.1734 -0.1153
  892DOPE   C1A10463   8.914  26.039  13.573 -0.1929 -0.0727  0.0467
  892DOPE   D2A10464   8.542  25.880  13.338 -0.0495  0.0691 -0.5205
  892DOPE   C3A10465   8.394  25.683  12.967  0.0795 -0.0630  0.0852
  892DOPE   C4A10466   8.506  25.375  12.619 -0.1036 -0.1788  0.1874
  892DOPE   C1B10467   9.053  25.770  13.214 -0.0087  0.1886  0.3171
  892DOPE   D2B10468   8.960  26.187  13.065 -0.2383 -0.2023  0.0140
  892DOPE   C3B10469   8.776  25.879  12.798 -0.1068 -0.4753 -0.0809
  892DOPE   C4B10470   9.121  25.490  12.802 -0.1532  0.1677  0.1480
  893DOPC   NC310471   1.994  29.272  13.782 -0.0623  0.1658 -0.0517
  893DOPC   PO410472   2.165  28.914  13.612  0.1520  0.3825  0.0775
  893DOPC   GL110473   2.032  28.991  13.207 -0.3569 -0.1815  0.1585
  893DOPC   GL210474   2.330  29.027  13.171  0.4260 -0.1439 -0.2059
  893DOPC   C1A10475   1.989  29.107  12.778  0.6007 -0.2774 -0.1360
  893DOPC   D2A10476   1.971  29.218  12.350 -0.0382  0.2142 -0.0362
  893DOPC   C3A10477   2.194  29.616  12.172 -0.0385  0.1147 -0.1424
  893DOPC   C4A10478   2.432  29.730  11.798 -0.1275 -0.1260  0.2391
  893DOPC   C1B10479   2.644  29.127  12.845  0.1387  0.0235 -0.1893
  893DOPC   D2B10480   2.910  28.858  12.563 -0.0766 -0.1287 -0.2677
  893DOPC   C3B10481   2.877  28.848  12.111  0.1421  0.0040 -0.1801
  893DOPC   C4B10482   2.693  28.983  11.732  0.3806 -0.1166 -0.3336
  894DOPC   NC310483   0.953  30.042  13.660 -0.0718  0.1309 -0.0375
  894DOPC   PO410484   0.558  30.126  13.674 -0.2451  0.1295 -0.1812
  894DOPC   GL110485   0.651  30.177  13.275 -0.0142  0.1799 -0.0565
  894DOPC   GL210486   0.408  30.149  13.013 -0.2092  0.1994 -0.2226
  894DOPC   C1A10487   0.884  30.437  13.000  0.0081  0.3924 -0.1622
  894DOPC   D2A10488   0.941  30.840  12.862  0.1494  0.2460  0.2880
  894DOPC   C3A10489   0.711  31.135  12.593  0.4163 -0.1874  0.5859
  894DOPC   C4A10490   0.317  31.048  12.329  0.1802  0.0887 -0.0790
  894DOPC   C1B10491   0.738  29.986  12.787 -0.0753 -0.1210  0.1130
  894DOPC   D2B10492   0.724  29.702  12.484  0.3248 -0.1331  0.0712
  894DOPC   C3B10493   0.955  29.793  12.059 -0.0219  0.2323 -0.2406
  894DOPC   C4B10494   1.033  29.972  11.623  0.1806 -0.3926 -0.0198
  895DOPC   NC310495   8.421  34.424  14.362 -0.2751 -0.0525 -0.1416
  895DOPC   PO410496   8.607  34.158  14.528  0.3191 -0.0575  0.3055
  895DOPC   GL110497   8.612  34.039  14.124  0.4288  0.1886  0.0318
  895DOPC   GL210498   8.519  34.252  13.932  0.0297  0.1681  0.1451
  895DOPC   C1A10499   8.721  33.876  13.738  0.2848  0.1482  0.0097
  895DOPC   D2A10500   8.586  33.913  13.328 -0.0795  0.0697 -0.0354
  895DOPC   C3A10501   8.554  33.597  12.989  0.0133 -0.2623 -0.0558
  895DOPC   C4A10502   8.944  33.625  12.715  0.0660  0.0705  0.2040
  895DOPC   C1B10503   8.179  34.118  13.567 -0.0328  0.0509  0.1735
  895DOPC   D2B10504   8.127  33.930  13.147 -0.0977  0.1171 -0.2707
  895DOPC   C3B10505   8.234  34.000  12.719 -0.2423  0.0412  0.0221
  895DOPC   C4B10506   8.247  34.153  12.277 -0.3958  0.1991 -0.3035
  896DOPC   NC310507   2.074  26.130  13.953 -0.0311  0.0478  0.1604
  896DOPC   PO410508   1.923  25.769  13.836 -0.1643  0.3504  0.1735
  896DOPC   GL110509   1.827  25.837  13.408 -0.1759  0.1199 -0.0181
  896DOPC   GL210510   1.753  25.555  13.404 -0.0492 -0.1803  0.3719
  896DOPC   C1A10511   1.864  25.761  12.900  0.1824  0.1656  0.0758
  896DOPC   D2A10512   1.770  25.810  12.427  0.0894  0.1318 -0.2610
  896DOPC   C3A10513   2.122  26.144  12.479  0.1074 -0.0481 -0.1702
  896DOPC   C4A10514   2.402  26.361  12.238  0.1819  0.2424 -0.0569
  896DOPC   C1B10515   1.982  25.192  13.239 -0.0150  0.0959  0.2566
  896DOPC   D2B10516   2.050  24.929  12.921  0.1056  0.2156  0.1248
  896DOPC   C3B10517   2.330  24.888  12.593 -0.2363 -0.1675  0.1173
  896DOPC   C4B10518   2.689  24.759  12.308  0.0714  0.1753  0.0960
  897DOPC   NC310519   4.186  30.354  14.141  0.0533 -0.0082 -0.0290
  897DOPC   PO410520   4.587  30.424  14.057 -0.1486  0.0077 -0.3148
  897DOPC   GL110521   4.809  30.458  13.642  0.0896 -0.3105  0.1130
  897DOPC   GL210522   4.615  30.550  13.485 -0.1437 -0.0290 -0.1292
  897DOPC   C1A10523   4.990  30.622  13.154 -0.3568  0.4487 -0.0969
  897DOPC   D2A10524   5.063  30.647  12.653 -0.0105 -0.3446  0.2488
  897DOPC   C3A10525   4.999  30.535  12.211  0.0762 -0.0668 -0.0868
  897DOPC   C4A10526   4.587  30.698  11.953  0.0995 -0.0713 -0.2728
  897DOPC   C1B10527   4.530  30.917  13.220 -0.1687 -0.0319  0.0718
  897DOPC   D2B10528   4.656  31.077  12.766  0.2406  0.2952 -0.1341
  897DOPC   C3B10529   4.598  30.708  12.476  0.0776  0.1385 -0.1051
  897DOPC   C4B10530   4.619  30.321  12.593  0.1986 -0.0935 -0.1649
  898DOPE   NH310531  11.009  30.426  14.758  0.0064 -0.1911  0.0983
  898DOPE   PO410532  11.257  30.574  14.603 -0.2354  0.0755 -0.3546
  898DOPE   GL110533  11.181  30.314  14.322 -0.1378  0.0071  0.1054
  898DOPE   GL210534  10.961  30.476  14.145  0.0697  0.3225 -0.2954
  898DOPE   C1A10535  11.111  30.057  13.950  0.0379 -0.0891  0.0730
  898DOPE   D2A10536  10.952  30.136  13.494  0.1841  0.0222  0.1266
  898DOPE   C3A10537  11.013  30.051  13.069  0.1099 -0.1255  0.1308
  898DOPE   C4A10538  10.870  29.898  12.651 -0.3319  0.0610  0.2208
  898DOPE   C1B10539  11.376  30.427  13.917 -0.1075  0.1006 -0.1956
  898DOPE   D2B10540  11.421  30.416  13.442 -0.2702 -0.0493 -0.2337
  898DOPE   C3B10541  11.575  30.645  13.059  0.0569 -0.1895  0.1325
  898DOPE   C4B10542  11.646  30.682  12.580  0.0828 -0.1629  0.1118
  899DOPE   NH310543   9.187  29.468  14.525 -0.0714 -0.1966  0.2532
  899DOPE   PO410544   9.489  29.406  14.455  0.0482 -0.0602  0.0277
  899DOPE   GL110545   9.408  29.377  14.071 -0.1832  0.3252  0.0178
  899DOPE   GL210546   9.465  29.644  13.990  0.4748  0.3586 -0.0582
  899DOPE   C1A10547   9.545  29.211  13.657  0.3131 -0.1094 -0.0313
  899DOPE   D2A10548   9.845  29.098  13.350 -0.0424 -0.1286  0.0033
  899DOPE   C3A10549   9.717  28.678  13.076  0.3337 -0.0265  0.2223
  899DOPE   C4A10550   9.437  28.614  12.757  0.1170 -0.6283 -0.1629
  899DOPE   C1B10551   9.457  29.712  13.558  0.2814  0.2306 -0.1340
  899DOPE   D2B10552   9.229  29.607  13.146 -0.4519  0.1496  0.1797
  899DOPE   C3B10553   9.678  29.490  13.007 -0.1557  0.1080  0.0636
  899DOPE   C4B10554   9.930  29.515  12.656  0.3960  0.0276  0.1808
  900POSM   NC310555   4.435  31.297  14.154  0.1648 -0.1764  0.1601
  900POSM   PO410556   4.057  31.131  14.074  0.2165  0.0071 -0.0785
  900POSM   AM110557   4.184  31.182  13.779 -0.1109  0.1265 -0.0612
  900POSM   AM210558   4.442  31.169  13.634 -0.1592 -0.0185 -0.1184
  900POSM   T1A10559   4.073  31.542  13.422  0.0872 -0.1187 -0.2622
  900POSM   C2A10560   4.009  31.985  13.235  0.1018 -0.2766  0.2883
  900POSM   C3A10561   4.036  32.312  12.920  0.2062  0.0669 -0.3100
  900POSM   C1B10562   4.691  31.363  13.442 -0.1591  0.0241  0.2544
  900POSM   D2B10563   4.893  31.576  13.064  0.1131  0.0851  0.1789
  900POSM   C3B10564   4.614  31.585  12.710 -0.5563  0.0971  0.1058
  900POSM   C4B10565   4.246  31.830  12.742 -0.2462  0.0411  0.1129
  901DOPC   NC310566   9.226  24.032  13.988 -0.4306  0.2884 -0.1556
  901DOPC   PO410567   9.447  23.888  14.239 -0.2335  0.1760  0.0936
  901DOPC   GL110568   9.646  23.716  13.944  0.0561 -0.2517  0.0780
  901DOPC   GL210569   9.531  23.675  13.722  0.1799 -0.3203 -0.0134
  901DOPC   C1A10570  10.036  23.703  13.611 -0.0018  0.1144  0.0100
  901DOPC   D2A10571  10.259  23.604  13.203  0.2575 -0.3831  0.0782
  901DOPC   C3A10572  10.718  23.434  13.241 -0.2242  0.3941 -0.2472
  901DOPC   C4A10573  11.177  23.448  13.089  0.0042 -0.1120  0.0459
  901DOPC   C1B10574   9.596  23.435  13.347 -0.0484  0.0259 -0.0266
  901DOPC   D2B10575   9.859  23.397  12.980  0.0582  0.0042 -0.2838
  901DOPC   C3B10576   9.607  23.335  12.601 -0.3282  0.3615  0.0822
  901DOPC   C4B10577   9.709  23.391  12.203 -0.1560 -0.1018 -0.0362
  902POSM   NC310578   5.500  25.935  13.450  0.1665  0.0103  0.1430
  902POSM   PO410579   5.861  26.044  13.590 -0.0529 -0.0221 -0.0010
  902POSM   AM110580   5.749  26.311  13.466  0.2316 -0.0789  0.0161
  902POSM   AM210581   5.547  26.529  13.472  0.1063  0.3290 -0.3276
  902POSM   T1A10582   5.571  26.373  12.981  0.0424  0.2588 -0.2101
  902POSM   C2A10583   5.479  26.394  12.531 -0.0715  0.0463 -0.0901
  902POSM   C3A10584   5.608  26.268  12.138 -0.2036 -0.2495  0.0120
  902POSM   C1B10585   5.712  26.789  13.227  0.0800 -0.0246  0.0808
  902POSM   D2B10586   6.056  27.001  12.949 -0.2342  0.0576  0.0156
  902POSM   C3B10587   6.101  27.394  12.697  0.0734  0.2840 -0.2354
  902POSM   C4B10588   5.928  27.622  12.273  0.0115  0.2089 -0.0213
  903POSM   NC310589   0.943  32.853  14.095  0.2904 -0.3618 -0.0871
  903POSM   PO410590   1.060  32.804  13.690  0.1634  0.0228  0.2539
  903POSM   AM110591   1.072  32.819  13.383 -0.0462 -0.2917  0.2126
  903POSM   AM210592   0.842  32.882  13.219 -0.0128  0.2697 -0.4899
  903POSM   T1A10593   1.389  32.919  12.976  0.4465 -0.0111 -0.0939
  903POSM   C2A10594   1.745  33.104  12.744 -0.0762  0.1852  0.1810
  903POSM   C3A10595   1.912  33.495  12.472 -0.2542 -0.1708 -0.0468
  903POSM   C1B10596   0.787  33.114  12.955 -0.1350 -0.0784  0.0541
  903POSM   D2B10597   0.858  33.193  12.517 -0.2114 -0.2801  0.0458
  903POSM   C3B10598   0.475  33.140  12.351 -0.1452  0.0378 -0.2020
  903POSM   C4B10599   0.277  32.962  12.000  0.1185 -0.0177 -0.1447
  904DOPS   CNO10600   1.666  30.173  13.778  0.1627  0.0689 -0.1993
  904DOPS   PO410601   1.453  30.132  13.487 -0.0466  0.0249 -0.0010
  904DOPS   GL110602   1.677  30.100  13.109  0.2144  0.1611  0.0221
  904DOPS   GL210603   1.922  30.237  13.147 -0.0261 -0.0872 -0.1763
  904DOPS   C1A10604   1.815  30.175  12.667  0.2497  0.2356 -0.1752
  904DOPS   D2A10605   2.026  30.095  12.229  0.0036  0.0255  0.3421
  904DOPS   C3A10606   1.963  30.064  11.737  0.2010 -0.1267  0.0056
  904DOPS   C4A10607   2.114  29.875  11.323 -0.1380  0.0912 -0.2179
  904DOPS   C1B10608   2.038  29.827  12.982  0.1031 -0.0322  0.2030
  904DOPS   D2B10609   1.871  29.599  12.626 -0.1315 -0.3550 -0.0580
  904DOPS   C3B10610   1.590  29.809  12.345 -0.2158 -0.5268 -0.1787
  904DOPS   C4B10611   1.550  29.973  11.953  0.3228  0.0097 -0.0320
  905DOPC   NC310612   3.478  33.730  13.861 -0.0284  0.0665 -0.0403
  905DOPC   PO410613   3.219  33.575  14.120  0.0951  0.0509 -0.1577
  905DOPC   GL110614   3.044  33.647  13.723 -0.0553 -0.0051  0.4065
  905DOPC   GL210615   2.921  33.435  13.502  0.0009  0.0610 -0.1946
  905DOPC   C1A10616   2.971  33.886  13.349 -0.2273 -0.2226  0.1692
  905DOPC   D2A10617   3.186  33.905  12.927 -0.0277 -0.1461  0.0836
  905DOPC   C3A10618   3.039  33.807  12.465  0.0153 -0.1037  0.1680
  905DOPC   C4A10619   3.014  33.878  12.016  0.0054 -0.0524  0.0996
  905DOPC   C1B10620   3.054  33.443  13.083  0.1056 -0.0017  0.3471
  905DOPC   D2B10621   3.262  33.365  12.650  0.0115 -0.0766 -0.1967
  905DOPC   C3B10622   3.620  33.499  12.426  0.0800 -0.1260  0.5346
  905DOPC   C4B10623   3.963  33.715  12.161  0.1543 -0.0749  0.2283
  906DOPE   NH310624   2.648  31.440  13.811  0.0256  0.1395 -0.2413
  906DOPE   PO410625   2.779  31.261  13.595  0.1961  0.1433  0.0896
  906DOPE   GL110626   2.886  31.223  13.191  0.3544  0.2525 -0.1748
  906DOPE   GL210627   3.127  31.229  13.053  0.2619 -0.1676 -0.0562
  906DOPE   C1A10628   2.803  31.000  12.728 -0.1943  0.0316 -0.2450
  906DOPE   D2A10629   2.878  30.898  12.324  0.1408  0.0407 -0.0992
  906DOPE   C3A10630   2.486  30.925  12.060  0.0697  0.2066 -0.0948
  906DOPE   C4A10631   2.248  31.267  11.849 -0.1055 -0.3030  0.2411
  906DOPE   C1B10632   3.001  31.659  13.068  0.1716 -0.1592 -0.0483
  906DOPE   D2B10633   3.007  32.002  12.786 -0.1941 -0.2641 -0.0537
  906DOPE   C3B10634   3.329  32.286  12.587 -0.4449  0.2217 -0.2394
  906DOPE   C4B10635   3.401  32.464  12.185  0.0609 -0.2674 -0.0594
  907DOPE   NH310636   3.342  27.542  13.683  0.0606  0.0765  0.1697
  907DOPE   PO410637   3.431  27.337  13.483  0.0046  0.1775 -0.1266
  907DOPE   GL110638   3.594  27.580  13.165  0.1472 -0.2551  0.0866
  907DOPE   GL210639   3.845  27.578  13.291  0.0081 -0.1797 -0.1621
  907DOPE   C1A10640   3.771  27.542  12.758  0.0154 -0.0679 -0.0964
  907DOPE   D2A10641   3.749  27.450  12.342 -0.1448 -0.2775  0.1118
  907DOPE   C3A10642   3.681  27.579  11.891 -0.3094 -0.0546 -0.1404
  907DOPE   C4A10643   3.730  27.599  11.447  0.1040  0.0022 -0.0896
  907DOPE   C1B10644   4.158  27.793  13.048  0.0913 -0.2048 -0.2115
  907DOPE   D2B10645   4.264  27.886  12.618 -0.0917 -0.0552 -0.2577
  907DOPE   C3B10646   3.969  27.860  12.263 -0.3068  0.2571  0.0867
  907DOPE   C4B10647   4.108  27.827  11.780 -0.1067  0.0650 -0.0069
  908DOPC   NC310648   8.081  28.537  14.282 -0.0456 -0.1022  0.2162
  908DOPC   PO410649   8.269  28.214  14.344 -0.2272  0.0604 -0.0207
  908DOPC   GL110650   8.499  28.184  14.026 -0.0833  0.0710  0.3914
  908DOPC   GL210651   8.748  28.107  14.076 -0.1842  0.0924  0.4303
  908DOPC   C1A10652   8.430  28.298  13.605 -0.2277  0.1621  0.0699
  908DOPC   D2A10653   8.352  28.518  13.164  0.0060 -0.2394 -0.3438
  908DOPC   C3A10654   8.692  28.461  12.856 -0.3906  0.0130  0.0498
  908DOPC   C4A10655   8.629  28.106  12.592  0.1316 -0.0907 -0.1669
  908DOPC   C1B10656   8.702  27.806  13.763 -0.0172  0.0353  0.0757
  908DOPC   D2B10657   8.576  27.408  13.534 -0.0750 -0.2528 -0.1411
  908DOPC   C3B10658   8.436  27.235  13.110 -0.0027  0.1469  0.1061
  908DOPC   C4B10659   8.593  27.110  12.692  0.0091  0.0708 -0.1348
  909POSM   NC310660   8.441  31.885  14.326 -0.0656  0.1423  0.1830
  909POSM   PO410661   8.281  31.542  14.461 -0.0222  0.4566  0.3056
  909POSM   AM110662   8.218  31.445  14.121  0.2637  0.0714  0.1852
  909POSM   AM210663   8.371  31.300  13.904 -0.4858  0.0918  0.0243
  909POSM   T1A10664   8.041  31.554  13.661  0.0015  0.1551  0.1047
  909POSM   C2A10665   8.159  31.944  13.480  0.2112 -0.4258 -0.1530
  909POSM   C3A10666   7.986  32.391  13.491 -0.0165  0.2117 -0.1075
  909POSM   C1B10667   8.500  31.286  13.641 -0.0068  0.2162 -0.1339
  909POSM   D2B10668   8.549  31.511  13.259 -0.0747  0.3129 -0.3129
  909POSM   C3B10669   8.461  31.908  13.085 -0.1649 -0.0904 -0.0419
  909POSM   C4B10670   8.537  32.222  12.759  0.2680 -0.1228 -0.0096
  910POSM   NC310671  34.399  33.637  14.177  0.1495 -0.0019  0.0374
  910POSM   PO410672  34.618  33.801  13.891  0.0042 -0.1517 -0.0164
  910POSM   AM110673  34.657  33.688  13.560 -0.1488 -0.0793  0.0684
  910POSM   AM210674  34.497  33.659  13.333 -0.0099  0.1644 -0.1012
  910POSM   T1A10675  34.994  33.591  13.191 -0.2329 -0.0340 -0.1520
  910POSM   C2A10676  35.285  33.503  12.832 -0.1987 -0.3427 -0.0019
  910POSM   C3A10677  35.314  33.652  12.384 -0.1815  0.2663  0.0815
  910POSM   C1B10678  34.605  33.898  13.149 -0.0194  0.0201 -0.0643
  910POSM   D2B10679  34.650  34.297  12.941  0.1287  0.3411  0.7266
  910POSM   C3B10680  34.244  34.403  12.702 -0.0435 -0.0086 -0.2042
  910POSM   C4B10681  33.815  34.361  12.905 -0.1839  0.0245 -0.2755
  911DOPC   NC310682   6.686  31.995  14.019 -0.2013  0.0152  0.1661
  911DOPC   PO410683   7.069  32.138  14.069  0.1568  0.2108 -0.0715
  911DOPC   GL110684   7.157  32.070  13.792  0.1429  0.0111  0.2978
  911DOPC   GL210685   7.028  31.809  13.682 -0.1034  0.1737 -0.0767
  911DOPC   C1A10686   7.119  32.156  13.320 -0.0240  0.1544  0.1615
  911DOPC   D2A10687   7.249  32.418  12.987 -0.2196  0.1088 -0.0085
  911DOPC   C3A10688   7.470  32.121  12.665  0.1891 -0.2958  0.1545
  911DOPC   C4A10689   7.412  31.711  12.469  0.3811 -0.1952 -0.1462
  911DOPC   C1B10690   6.570  31.660  13.536  0.1235  0.0142 -0.2198
  911DOPC   D2B10691   6.096  31.682  13.426  0.1295  0.0329  0.1301
  911DOPC   C3B10692   6.089  31.572  13.000  0.0416  0.0353 -0.3206
  911DOPC   C4B10693   6.132  31.484  12.596 -0.0473 -0.3210  0.2921
  912DOPS   CNO10694   0.305  29.122  13.556 -0.5274 -0.4238 -0.0555
  912DOPS   PO410695   0.089  29.177  13.274 -0.1819 -0.0785 -0.3570
  912DOPS   GL110696   0.025  29.146  12.820 -0.3232  0.5561  0.5919
  912DOPS   GL210697  -0.039  29.420  12.645  0.1130 -0.0887 -0.5804
  912DOPS   C1A10698   0.377  29.115  12.485  0.0791 -0.3483 -0.2396
  912DOPS   D2A10699   0.585  29.290  12.135 -0.1678 -0.3406  0.0518
  912DOPS   C3A10700   1.009  29.301  12.167 -0.2013 -0.1193 -0.1037
  912DOPS   C4A10701   1.304  29.514  11.822  0.3833 -0.0888  0.1428
  912DOPS   C1B10702   0.244  29.598  12.342  0.0660 -0.1000  0.0875
  912DOPS   D2B10703   0.498  29.768  11.931 -0.1533 -0.0271 -0.0352
  912DOPS   C3B10704   0.794  29.498  11.677  0.0639  0.2092  0.3743
  912DOPS   C4B10705   0.995  29.124  11.528 -0.1966 -0.1222 -0.1039
  913DOPE   NH310706  12.222  27.869  13.942 -0.1767  0.0190 -0.2911
  913DOPE   PO410707  12.255  28.156  14.080 -0.0555 -0.0396  0.0645
  913DOPE   GL110708  11.980  28.419  13.897  0.0749  0.1220 -0.0454
  913DOPE   GL210709  11.914  28.222  13.660 -0.2048 -0.2674  0.0566
  913DOPE   C1A10710  11.565  28.532  13.703  0.1256 -0.0317 -0.2255
  913DOPE   D2A10711  11.191  28.624  13.479 -0.0166  0.0123  0.1698
  913DOPE   C3A10712  10.945  28.718  13.108 -0.0243  0.2144 -0.0931
  913DOPE   C4A10713  10.692  28.699  12.764 -0.1682 -0.3652  0.1356
  913DOPE   C1B10714  11.732  28.069  13.292 -0.0925 -0.2056 -0.0109
  913DOPE   D2B10715  11.785  28.111  12.828 -0.1136  0.0766  0.0031
  913DOPE   C3B10716  11.861  28.317  12.401  0.0946  0.0510 -0.2560
  913DOPE   C4B10717  11.847  28.198  11.986  0.1568  0.1079  0.0919
  914DOPS   CNO10718   2.780  31.660  14.326  0.1251  0.1987 -0.3946
  914DOPS   PO410719   2.946  31.847  14.058  0.1095  0.2326  0.1474
  914DOPS   GL110720   2.794  31.969  13.776 -0.0381  0.0089 -0.1710
  914DOPS   GL210721   2.486  31.913  13.844 -0.0254 -0.1747  0.1967
  914DOPS   C1A10722   2.931  32.065  13.318 -0.3276 -0.1728  0.0324
  914DOPS   D2A10723   3.366  32.098  13.165 -0.3555 -0.1544  0.3251
  914DOPS   C3A10724   3.641  31.977  12.762  0.0250  0.2469  0.4638
  914DOPS   C4A10725   3.904  32.089  12.364  0.0249 -0.0254  0.0194
  914DOPS   C1B10726   2.400  32.038  13.412  0.1215 -0.1703  0.0222
  914DOPS   D2B10727   2.330  32.074  12.963  0.0879  0.0179  0.0154
  914DOPS   C3B10728   2.120  31.776  12.642 -0.0415  0.1143  0.1899
  914DOPS   C4B10729   2.225  31.675  12.233  0.3264 -0.1454  0.0142
  915DOPS   CNO10730   3.294  26.910  13.736  0.0719 -0.1234 -0.2066
  915DOPS   PO410731   3.311  26.567  13.918  0.0371 -0.2735 -0.0170
  915DOPS   GL110732   3.536  26.402  13.544  0.1730 -0.1569  0.0294
  915DOPS   GL210733   3.304  26.339  13.409  0.1367 -0.4705  0.1384
  915DOPS   C1A10734   3.722  26.562  13.182  0.1345  0.2974 -0.4293
  915DOPS   D2A10735   3.967  26.637  12.846  0.0045  0.0564 -0.0143
  915DOPS   C3A10736   4.163  26.536  12.452 -0.4266 -0.0986  0.0205
  915DOPS   C4A10737   4.098  26.373  12.032  0.3505 -0.1736 -0.1193
  915DOPS   C1B10738   3.376  26.280  12.997  0.2135  0.0091  0.2509
  915DOPS   D2B10739   3.308  26.212  12.511 -0.0085 -0.0140 -0.1727
  915DOPS   C3B10740   3.612  26.512  12.355 -0.1084 -0.3808 -0.1301
  915DOPS   C4B10741   3.745  26.898  12.491  0.0329  0.1431  0.1601
  916POSM   NC310742  33.896  29.280  12.989 -0.2967 -0.0715 -0.1788
  916POSM   PO410743  33.700  29.626  13.017 -0.0074 -0.0268  0.0664
  916POSM   AM110744  33.796  29.699  12.710  0.2356 -0.0088  0.0016
  916POSM   AM210745  34.022  29.849  12.642  0.0302  0.0514 -0.5101
  916POSM   T1A10746  33.600  29.803  12.317 -0.1919  0.1264  0.1935
  916POSM   C2A10747  33.801  29.977  11.930 -0.0643  0.1016 -0.3658
  916POSM   C3A10748  34.043  30.171  11.584  0.1973  0.1985 -0.0684
  916POSM   C1B10749  34.110  29.763  12.320  0.2665 -0.1727  0.0808
  916POSM   D2B10750  34.266  29.841  11.863  0.1164 -0.1912 -0.2003
  916POSM   C3B10751  33.991  29.537  11.626  0.0733 -0.1468 -0.1794
  916POSM   C4B10752  33.659  29.209  11.729 -0.0791 -0.1461  0.1958
  917POSM   NC310753  10.224  29.499  14.742  0.2386 -0.3568 -0.3470
  917POSM   PO410754  10.562  29.569  14.615 -0.2435  0.1647  0.4296
  917POSM   AM110755  10.451  29.665  14.302  0.2512 -0.0724  0.0818
  917POSM   AM210756  10.484  29.881  14.138 -0.2625  0.0614  0.2439
  917POSM   T1A10757  10.166  29.578  13.938 -0.2798 -0.3921  0.2495
  917POSM   C2A10758   9.931  29.590  13.510 -0.0293  0.1556 -0.0846
  917POSM   C3A10759   9.793  29.943  13.198  0.1967 -0.2334  0.0211
  917POSM   C1B10760  10.427  29.988  13.835  0.3877 -0.2012  0.0278
  917POSM   D2B10761  10.281  29.978  13.422 -0.0287 -0.0288  0.0446
  917POSM   C3B10762  10.501  29.895  13.023 -0.0381 -0.2776 -0.0798
  917POSM   C4B10763  10.436  29.727  12.592  0.0130  0.0297 -0.2098
  918DOPC   NC310764   2.145  27.679  13.856 -0.0151 -0.2670 -0.0135
  918DOPC   PO410765   2.497  27.814  13.683 -0.0127  0.0917  0.0856
  918DOPC   GL110766   2.601  27.976  13.366 -0.2955 -0.2451 -0.0087
  918DOPC   GL210767   2.637  27.652  13.150 -0.0360 -0.1916 -0.0137
  918DOPC   C1A10768   2.916  28.169  13.107 -0.0356  0.3511 -0.2904
  918DOPC   D2A10769   3.089  28.398  12.750 -0.0072 -0.0012 -0.1843
  918DOPC   C3A10770   3.304  28.555  12.397  0.1173  0.0290  0.1780
  918DOPC   C4A10771   3.249  28.549  11.932  0.1832 -0.0308 -0.0253
  918DOPC   C1B10772   2.806  27.838  12.763 -0.2027 -0.1492  0.0630
  918DOPC   D2B10773   3.067  27.659  12.376  0.0760  0.0312 -0.1856
  918DOPC   C3B10774   3.208  27.576  11.930 -0.2008 -0.0441  0.1760
  918DOPC   C4B10775   3.023  27.445  11.535  0.0507 -0.0885  0.1222
  919POSM   NC310776   5.024  33.744  13.951 -0.1893  0.0695  0.2610
  919POSM   PO410777   4.638  33.864  14.035  0.3575  0.0445  0.0906
  919POSM   AM110778   4.642  33.754  13.714  0.3929  0.0122  0.0530
  919POSM   AM210779   4.555  33.558  13.493 -0.0296 -0.0079  0.0726
  919POSM   T1A10780   4.970  33.766  13.326 -0.0894 -0.0177  0.0386
  919POSM   C2A10781   5.057  33.759  12.916 -0.0632  0.1009  0.1581
  919POSM   C3A10782   4.891  33.556  12.512 -0.0611 -0.0066  0.1948
  919POSM   C1B10783   4.426  33.720  13.265 -0.2799 -0.0426  0.1368
  919POSM   D2B10784   4.306  33.902  12.857  0.3114 -0.2339 -0.1509
  919POSM   C3B10785   4.376  33.707  12.449  0.2267 -0.1427  0.5186
  919POSM   C4B10786   4.633  33.742  12.082 -0.0714  0.0192 -0.3904
  920DOPC   NC310787   6.989  30.035  13.720 -0.0250  0.0069  0.0181
  920DOPC   PO410788   6.851  29.711  13.928  0.1248  0.1001 -0.1566
  920DOPC   GL110789   6.770  29.362  13.658  0.0738  0.0232 -0.2840
  920DOPC   GL210790   6.820  29.545  13.457  0.3264 -0.1954  0.0027
  920DOPC   C1A10791   6.429  29.180  13.320 -0.0793  0.2693 -0.1033
  920DOPC   D2A10792   6.279  29.108  12.906  0.1925 -0.2007  0.0129
  920DOPC   C3A10793   6.432  28.948  12.487  0.0738 -0.0214 -0.3482
  920DOPC   C4A10794   6.242  28.695  12.105  0.0232 -0.0104 -0.0573
  920DOPC   C1B10795   6.917  29.794  13.148  0.1950  0.1878  0.0026
  920DOPC   D2B10796   7.320  29.999  12.915  0.1225 -0.0389  0.0289
  920DOPC   C3B10797   7.438  29.704  12.569 -0.0720  0.0820  0.1147
  920DOPC   C4B10798   7.614  29.253  12.573 -0.1532  0.1995  0.2068
  921POSM   NC310799   4.798  28.867  13.778  0.0282  0.1285  0.1838
  921POSM   PO410800   5.128  29.058  13.881 -0.0687 -0.1313  0.1135
  921POSM   AM110801   5.194  28.981  13.556  0.1486  0.1086  0.1296
  921POSM   AM210802   5.197  28.738  13.382 -0.0115  0.2345 -0.2762
  921POSM   T1A10803   5.471  29.172  13.163 -0.1933 -0.0520 -0.1017
  921POSM   C2A10804   5.372  29.326  12.743 -0.3468  0.1123 -0.0996
  921POSM   C3A10805   5.298  29.295  12.323 -0.4729 -0.1428  0.2887
  921POSM   C1B10806   5.348  28.634  13.086 -0.2403  0.0859 -0.1690
  921POSM   D2B10807   5.294  28.815  12.643 -0.4478 -0.0558 -0.0888
  921POSM   C3B10808   5.350  28.486  12.297 -0.2750 -0.0454 -0.2319
  921POSM   C4B10809   5.737  28.469  11.930 -0.1421 -0.1943  0.3700
  922POSM   NC310810   8.797  27.349  14.147 -0.0064 -0.3031  0.1634
  922POSM   PO410811   8.478  27.252  13.966 -0.1923  0.0055  0.2953
  922POSM   AM110812   8.224  27.185  13.769  0.0256 -0.3744  0.1466
  922POSM   AM210813   8.224  27.072  13.501  0.0246 -0.0764  0.1135
  922POSM   T1A10814   7.996  27.459  13.368 -0.0456  0.0587 -0.3409
  922POSM   C2A10815   8.047  27.524  12.910  0.0921 -0.0323 -0.0985
  922POSM   C3A10816   8.388  27.612  12.593  0.0478 -0.1496  0.3241
  922POSM   C1B10817   8.362  26.826  13.291  0.0718 -0.2786 -0.3505
  922POSM   D2B10818   8.707  26.635  12.996 -0.1914 -0.0052 -0.1713
  922POSM   C3B10819   8.451  26.626  12.567 -0.2383 -0.0779  0.1593
  922POSM   C4B10820   8.207  26.541  12.179  0.0445  0.0340  0.2905
  923DOPC   NC310821   3.538  28.916  14.043  0.0720  0.2085 -0.0045
  923DOPC   PO410822   3.523  28.505  14.048 -0.2784  0.0715  0.2179
  923DOPC   GL110823   3.538  28.533  13.670  0.3455 -0.1951 -0.3887
  923DOPC   GL210824   3.817  28.542  13.570  0.0146  0.5234 -0.4173
  923DOPC   C1A10825   3.563  28.987  13.536  0.0763  0.1667  0.3673
  923DOPC   D2A10826   3.426  29.147  13.140  0.1107 -0.0326 -0.5683
  923DOPC   C3A10827   3.331  29.083  12.703  0.0543 -0.0886 -0.0823
  923DOPC   C4A10828   3.272  29.078  12.237 -0.0338 -0.0169  0.0742
  923DOPC   C1B10829   3.771  28.647  13.184 -0.0410 -0.1474  0.0064
  923DOPC   D2B10830   3.629  28.512  12.802  0.3022  0.2490 -0.0685
  923DOPC   C3B10831   3.781  28.813  12.544 -0.0528 -0.0786 -0.2391
  923DOPC   C4B10832   3.992  29.006  12.155  0.0387  0.2483 -0.0856
  924DOPE   NH310833   2.917  27.213  13.498 -0.1150  0.1314  0.3472
  924DOPE   PO410834   2.893  27.481  13.560  0.1667  0.1372 -0.0527
  924DOPE   GL110835   3.119  27.618  13.237 -0.1605 -0.0117 -0.1512
  924DOPE   GL210836   3.143  27.386  12.996 -0.0542 -0.0318  0.0113
  924DOPE   C1A10837   3.344  27.854  12.844 -0.2147  0.0417 -0.0062
  924DOPE   D2A10838   3.638  28.056  12.580 -0.1534 -0.0199  0.0372
  924DOPE   C3A10839   3.335  28.054  12.267 -0.2053  0.0999  0.0262
  924DOPE   C4A10840   3.179  28.050  11.836 -0.0062 -0.2568  0.3502
  924DOPE   C1B10841   3.360  27.285  12.570 -0.4893 -0.0461  0.1762
  924DOPE   D2B10842   3.429  27.176  12.122  0.0093  0.1019 -0.0730
  924DOPE   C3B10843   3.856  27.041  11.999 -0.1772  0.1010 -0.0951
  924DOPE   C4B10844   4.298  26.838  12.015 -0.1909 -0.2313 -0.0478
  925DOPC   NC310845   0.010  26.930  13.648 -0.0486  0.2928 -0.2424
  925DOPC   PO410846   0.369  26.992  13.596 -0.2306  0.0765  0.2373
  925DOPC   GL110847   0.309  27.000  13.226 -0.1013  0.1119  0.3143
  925DOPC   GL210848   0.056  27.008  13.136 -0.1945 -0.0438 -0.0776
  925DOPC   C1A10849   0.392  26.945  12.762 -0.2196  0.1103  0.1699
  925DOPC   D2A10850   0.220  26.894  12.385 -0.2600  0.1636 -0.3632
  925DOPC   C3A10851   0.124  26.414  12.303 -0.1089 -0.1166  0.0501
  925DOPC   C4A10852   0.107  26.009  12.200 -0.0324  0.1542  0.0159
  925DOPC   C1B10853  -0.174  26.910  12.715  0.1175 -0.0720 -0.0112
  925DOPC   D2B10854  -0.447  26.836  12.429  0.4099 -0.1914 -0.3142
  925DOPC   C3B10855  -0.851  26.657  12.505  0.0297  0.0887  0.3826
  925DOPC   C4B10856  -1.008  26.427  12.870  0.2306  0.2084 -0.1230
  926POSM   NC310857  11.745  29.153  14.295 -0.1335  0.0890  0.0508
  926POSM   PO410858  11.432  29.191  14.522 -0.1313  0.1276  0.1880
  926POSM   AM110859  11.323  29.048  14.203 -0.2425  0.0570  0.0736
  926POSM   AM210860  11.390  29.090  13.915 -0.3922 -0.2332  0.1391
  926POSM   T1A10861  11.127  28.672  13.950 -0.2418 -0.3936  0.3213
  926POSM   C2A10862  10.978  28.266  13.797  0.0525  0.3402 -0.4324
  926POSM   C3A10863  10.819  28.186  13.361 -0.1287  0.0716  0.1512
  926POSM   C1B10864  11.130  29.349  13.823 -0.2176  0.0287 -0.0482
  926POSM   D2B10865  10.724  29.594  13.773  0.0365  0.0646 -0.1202
  926POSM   C3B10866  10.479  29.411  13.417 -0.0117 -0.1944 -0.1836
  926POSM   C4B10867  10.179  29.522  13.055 -0.0060 -0.0792 -0.0327
  927POSM   NC310868  32.438  32.272  13.805  0.0449 -0.0187  0.1948
  927POSM   PO410869  32.707  32.118  13.603 -0.1058 -0.3571  0.1056
  927POSM   AM110870  32.827  32.011  13.315 -0.1333 -0.1890  0.1349
  927POSM   AM210871  32.720  31.818  13.143  0.2854 -0.0356  0.0996
  927POSM   T1A10872  33.253  31.921  13.072 -0.2511 -0.1295 -0.0852
  927POSM   C2A10873  33.280  32.120  12.615  0.2220  0.0459  0.1185
  927POSM   C3A10874  33.111  32.087  12.185 -0.2072  0.0421 -0.0940
  927POSM   C1B10875  32.740  32.072  12.870  0.1561  0.1167  0.3358
  927POSM   D2B10876  32.904  32.469  12.566  0.1552  0.0212  0.0061
  927POSM   C3B10877  33.227  32.609  12.291 -0.0370  0.1206  0.2274
  927POSM   C4B10878  33.696  32.579  12.190 -0.0130 -0.1690  0.1223
  928POSM   NC310879   0.630  31.969  14.198  0.1869 -0.0892  0.0877
  928POSM   PO410880   0.922  31.728  14.043 -0.0967  0.0000 -0.0954
  928POSM   AM110881   0.868  31.770  13.684 -0.0019  0.1426 -0.4663
  928POSM   AM210882   0.879  31.939  13.453  0.0341 -0.1164 -0.1364
  928POSM   T1A10883   0.645  31.515  13.309  0.1911 -0.1290 -0.0248
  928POSM   C2A10884   0.458  31.607  12.876  0.1114  0.0975 -0.0694
  928POSM   C3A10885   0.248  31.511  12.404 -0.0875 -0.3123 -0.1408
  928POSM   C1B10886   1.022  32.018  13.129  0.1571 -0.2603  0.1572
  928POSM   D2B10887   1.372  31.881  12.900 -0.2434 -0.0314 -0.1043
  928POSM   C3B10888   1.653  31.522  12.979  0.0660  0.1071 -0.0076
  928POSM   C4B10889   2.029  31.321  12.864 -0.1710  0.1790 -0.0392
  929POSM   NC310890   3.234  34.712  14.479  0.1496 -0.1502 -0.2735
  929POSM   PO410891   3.412  34.486  14.206 -0.0092  0.1483 -0.0073
  929POSM   AM110892   3.350  34.367  13.920  0.0139  0.3065  0.1011
  929POSM   AM210893   3.462  34.181  13.708  0.1581 -0.1401 -0.1961
  929POSM   T1A10894   2.953  34.308  13.614  0.0255 -0.3249 -0.1966
  929POSM   C2A10895   2.713  34.251  13.170  0.0996  0.2615 -0.5487
  929POSM   C3A10896   2.652  34.288  12.700  0.1504  0.2706 -0.1491
  929POSM   C1B10897   3.368  34.185  13.405 -0.0331  0.0811 -0.0937
  929POSM   D2B10898   3.149  34.439  13.089 -0.2478 -0.1512 -0.1066
  929POSM   C3B10899   3.160  34.342  12.652 -0.1031  0.3520 -0.2520
  929POSM   C4B10900   3.462  34.044  12.401 -0.2310 -0.2093  0.0262
  930DOPC   NC310901  10.972  31.765  14.241  0.0255  0.1279 -0.1884
  930DOPC   PO410902  10.863  31.399  14.305 -0.4828  0.1290  0.2028
  930DOPC   GL110903  10.866  31.353  13.909  0.3955  0.0620  0.1612
  930DOPC   GL210904  10.920  31.011  13.864  0.0358  0.2642 -0.0721
  930DOPC   C1A10905  10.903  31.750  13.680  0.1896  0.4920  0.0782
  930DOPC   D2A10906  10.924  31.770  13.134 -0.2222  0.1713  0.0092
  930DOPC   C3A10907  10.751  31.654  12.703 -0.2436  0.1544 -0.0111
  930DOPC   C4A10908  10.794  31.528  12.264  0.2221 -0.0450 -0.2148
  930DOPC   C1B10909  10.970  30.769  13.511  0.3133  0.0247  0.1362
  930DOPC   D2B10910  11.044  30.575  13.116  0.2525  0.0865  0.0416
  930DOPC   C3B10911  11.182  30.376  12.699 -0.1646  0.1344 -0.1938
  930DOPC   C4B10912  11.553  30.181  12.530 -0.1511 -0.0541 -0.0947
  931POSM   NC310913  10.409  33.233  14.850 -0.0262  0.0626 -0.1254
  931POSM   PO410914  10.410  33.566  14.645  0.3305  0.1091  0.0531
  931POSM   AM110915  10.378  33.408  14.377  0.2854 -0.0682 -0.1133
  931POSM   AM210916  10.487  33.135  14.362 -0.3181  0.0401 -0.1131
  931POSM   T1A10917  10.335  33.283  13.883  0.2053  0.1378 -0.0040
  931POSM   C2A10918  10.328  33.597  13.550  0.2397  0.0688 -0.3944
  931POSM   C3A10919  10.113  33.751  13.162  0.0731 -0.0077  0.1589
  931POSM   C1B10920  10.750  33.004  14.218 -0.0978 -0.2734  0.1105
  931POSM   D2B10921  10.988  32.747  13.877 -0.1636  0.2053 -0.0641
  931POSM   C3B10922  10.996  32.943  13.452 -0.1249 -0.1942  0.1133
  931POSM   C4B10923  10.944  33.075  12.997 -0.1626  0.4037 -0.0891
  932DOPS   CNO10924   1.718  32.298  13.999 -0.0136 -0.2396 -0.0761
  932DOPS   PO410925   1.517  31.981  13.947  0.4477 -0.2145 -0.0341
  932DOPS   GL110926   1.408  31.843  13.647  0.1096 -0.1236 -0.0060
  932DOPS   GL210927   1.628  31.667  13.512 -0.3938 -0.1666 -0.1047
  932DOPS   C1A10928   1.180  31.491  13.438 -0.0427 -0.0911 -0.1604
  932DOPS   D2A10929   1.080  31.435  12.994 -0.1355  0.1780  0.0949
  932DOPS   C3A10930   1.205  31.345  12.565  0.0982  0.2493  0.0368
  932DOPS   C4A10931   1.454  31.161  12.228  0.0011  0.1320  0.1064
  932DOPS   C1B10932   1.528  32.112  13.344 -0.0623 -0.0397  0.0321
  932DOPS   D2B10933   1.592  32.472  13.092 -0.0090  0.1430  0.0538
  932DOPS   C3B10934   1.826  32.842  13.166 -0.2473  0.1089  0.0338
  932DOPS   C4B10935   1.815  33.267  13.206  0.1144  0.0809 -0.3820
  933DOPS   CNO10936  30.996  32.739  12.663  0.3073  0.0051 -0.0907
  933DOPS   PO410937  30.807  33.027  12.619  0.1230 -0.0395  0.0144
  933DOPS   GL110938  30.812  32.936  12.240  0.3235 -0.1222 -0.4954
  933DOPS   GL210939  30.629  32.758  12.179  0.0697 -0.0542 -0.2709
  933DOPS   C1A10940  31.189  32.680  12.091 -0.0143  0.3003  0.0807
  933DOPS   D2A10941  31.336  32.452  11.693  0.1180  0.2204  0.0265
  933DOPS   C3A10942  31.737  32.528  11.491  0.1494 -0.0590  0.1690
  933DOPS   C4A10943  31.772  32.861  11.179  0.2678 -0.3628 -0.0067
  933DOPS   C1B10944  30.368  32.631  11.827 -0.2525 -0.1250 -0.0714
  933DOPS   D2B10945  30.235  32.782  11.441 -0.2984  0.0862  0.4139
  933DOPS   C3B10946  30.160  32.559  11.056 -0.1005  0.1127  0.1218
  933DOPS   C4B10947  29.847  32.860  10.804  0.2757 -0.3500 -0.0624
  934DOPS   CNO10948   5.960  31.219  14.206  0.3252  0.1971  0.2678
  934DOPS   PO410949   6.196  31.033  13.970 -0.4580  0.2581  0.3802
  934DOPS   GL110950   6.354  31.213  13.753  0.4625  0.0201  0.1908
  934DOPS   GL210951   6.697  31.165  13.661  0.0984 -0.3371  0.2386
  934DOPS   C1A10952   6.372  31.135  13.290 -0.0373 -0.0756  0.0429
  934DOPS   D2A10953   6.527  31.431  12.921  0.0435 -0.0519 -0.1262
  934DOPS   C3A10954   6.607  31.247  12.491  0.1353 -0.2053 -0.1273
  934DOPS   C4A10955   6.745  31.045  12.089  0.1202  0.2029 -0.0987
  934DOPS   C1B10956   6.908  31.325  13.297  0.1430  0.0887 -0.1174
  934DOPS   D2B10957   7.084  31.414  12.833 -0.2278  0.0103  0.1015
  934DOPS   C3B10958   7.444  31.204  12.671  0.0840  0.3081 -0.2494
  934DOPS   C4B10959   7.758  31.157  12.324  0.0559 -0.1089  0.1468
  935POSM   NC310960   6.479  27.460  14.838  0.1290 -0.1542 -0.0101
  935POSM   PO410961   6.689  27.684  14.582  0.3855 -0.2204 -0.1262
  935POSM   AM110962   6.819  27.796  14.274 -0.3119 -0.0292 -0.0736
  935POSM   AM210963   6.659  27.739  14.029 -0.2070 -0.0677  0.1206
  935POSM   T1A10964   6.994  28.134  13.923  0.0088  0.2103  0.1402
  935POSM   C2A10965   7.243  28.288  13.593  0.1294 -0.1734 -0.0666
  935POSM   C3A10966   7.363  28.111  13.162 -0.3274  0.3292 -0.0257
  935POSM   C1B10967   6.758  27.748  13.710  0.0476  0.0437 -0.0785
  935POSM   D2B10968   7.175  27.810  13.518  0.3127  0.0701  0.1389
  935POSM   C3B10969   7.519  27.523  13.364 -0.2349 -0.4390  0.1081
  935POSM   C4B10970   7.694  27.201  13.140  0.2648  0.1497 -0.0027
  936DOPE   NH310971   9.626   0.474  14.438  0.0397  0.0653  0.4935
  936DOPE   PO410972   9.323   0.361  14.357  0.4432 -0.2283 -0.2233
  936DOPE   GL110973   9.367   0.466  13.959  0.0071  0.1069 -0.1646
  936DOPE   GL210974   9.106   0.613  13.932 -0.2000  0.3028 -0.0827
  936DOPE   C1A10975   9.422   0.367  13.532  0.0752 -0.2406 -0.1451
  936DOPE   D2A10976   9.435   0.323  13.036 -0.1003 -0.1730 -0.3771
  936DOPE   C3A10977   9.679   0.020  12.752  0.3468 -0.2198  0.1993
  936DOPE   C4A10978  10.075  -0.229  12.596 -0.3584 -0.2544 -0.2208
  936DOPE   C1B10979   8.899   0.379  13.567 -0.0690  0.1136  0.2040
  936DOPE   D2B10980   8.525   0.250  13.340 -0.0557 -0.1994 -0.2745
  936DOPE   C3B10981   8.490   0.193  12.871 -0.1160  0.0893 -0.0387
  936DOPE   C4B10982   8.542   0.440  12.441 -0.1535 -0.1596  0.2097
  937POSM   NC310983   6.463  26.815  14.097 -0.1589 -0.1160 -0.1617
  937POSM   PO410984   6.107  26.939  14.160  0.1092 -0.0315 -0.0069
  937POSM   AM110985   6.082  26.988  13.831 -0.1938 -0.0445  0.2924
  937POSM   AM210986   5.837  26.982  13.670  0.1142  0.1437  0.2435
  937POSM   T1A10987   6.265  27.046  13.387  0.0690 -0.2515 -0.2507
  937POSM   C2A10988   6.531  27.261  13.010  0.3129 -0.1411 -0.2514
  937POSM   C3A10989   6.688  27.619  12.771 -0.3212  0.3088 -0.0344
  937POSM   C1B10990   5.661  27.272  13.515  0.0393  0.0619  0.3160
  937POSM   D2B10991   5.406  27.644  13.305 -0.0609 -0.2116  0.1457
  937POSM   C3B10992   5.738  27.918  13.141 -0.1311 -0.1997  0.2649
  937POSM   C4B10993   5.926  27.867  12.729  0.0972 -0.0952 -0.0624
  938DOPS   CNO10994   5.326  31.782  14.260 -0.0667 -0.4417 -0.0180
  938DOPS   PO410995   5.207  31.889  13.887  0.0335 -0.2430  0.4522
  938DOPS   GL110996   5.078  32.041  13.479 -0.2660 -0.1303  0.3460
  938DOPS   GL210997   4.821  31.888  13.490  0.0646  0.3770 -0.1049
  938DOPS   C1A10998   5.263  31.871  13.072 -0.2055 -0.0863  0.0112
  938DOPS   D2A10999   5.187  31.741  12.655  0.0036  0.1459 -0.1629
  938DOPS   C3A11000   5.565  31.722  12.423 -0.0744  0.2329  0.1106
  938DOPS   C4A11001   5.967  31.988  12.524  0.1904 -0.1388 -0.4289
  938DOPS   C1B11002   4.460  31.763  13.201  0.2253  0.1877 -0.0386
  938DOPS   D2B11003   4.343  31.357  13.046  0.0059 -0.1211 -0.1518
  938DOPS   C3B11004   4.042  30.989  13.153  0.0144 -0.0172  0.1941
  938DOPS   C4B11005   4.155  30.597  13.321  0.2278 -0.3590 -0.0294
  939POSM   NC311006   9.246  26.760  14.295 -0.2790 -0.0651 -0.4047
  939POSM   PO411007   9.550  26.561  14.349 -0.1274  0.1716 -0.2349
  939POSM   AM111008   9.664  26.579  14.055  0.2029  0.1496 -0.1018
  939POSM   AM211009   9.539  26.639  13.804 -0.0050 -0.1444  0.2806
  939POSM   T1A11010   9.978  26.279  13.797 -0.1659  0.0424  0.1337
  939POSM   C2A11011  10.372  26.372  13.673  0.2216  0.0226  0.0086
  939POSM   C3A11012  10.445  26.145  13.265  0.1245 -0.1156 -0.0649
  939POSM   C1B11013   9.553  26.413  13.600 -0.2007 -0.1597 -0.1169
  939POSM   D2B11014   9.442  26.117  13.296  0.1742 -0.0828  0.0357
  939POSM   C3B11015   9.406  25.916  12.875 -0.0597 -0.3351 -0.0426
  939POSM   C4B11016   9.155  25.961  12.476 -0.1274  0.1206  0.1697
  940POSM   NC311017   6.558  22.873  14.902  0.1487 -0.5533 -0.2242
  940POSM   PO411018   6.289  23.053  14.708  0.0267 -0.0374  0.2154
  940POSM   AM111019   6.495  23.090  14.441 -0.0274  0.0845 -0.1312
  940POSM   AM211020   6.716  23.036  14.294 -0.2867 -0.0947 -0.1970
  940POSM   T1A11021   6.422  23.500  14.094  0.0415 -0.0909 -0.1040
  940POSM   C2A11022   6.477  23.808  13.738  0.2639 -0.0654  0.2914
  940POSM   C3A11023   6.472  23.800  13.246 -0.0510  0.2223  0.1610
  940POSM   C1B11024   6.734  22.861  14.019 -0.0837 -0.1325 -0.1359
  940POSM   D2B11025   6.562  22.824  13.568 -0.2295 -0.2079  0.1060
  940POSM   C3B11026   6.800  22.984  13.171 -0.1515 -0.0507 -0.2069
  940POSM   C4B11027   6.957  22.689  12.846  0.1192 -0.6574  0.4078
  941POSM   NC311028  34.196  29.884  13.114 -0.3437  0.0735  0.0916
  941POSM   PO411029  34.313  29.511  12.993 -0.1166  0.0454 -0.0755
  941POSM   AM111030  34.277  29.408  12.669 -0.0433 -0.0517  0.3889
  941POSM   AM211031  34.063  29.291  12.487 -0.0910 -0.0625 -0.4656
  941POSM   T1A11032  34.515  29.368  12.232 -0.1427  0.4262 -0.0217
  941POSM   C2A11033  34.827  29.312  11.923 -0.3124  0.0762 -0.1362
  941POSM   C3A11034  35.211  29.232  11.700  0.2139 -0.2788  0.0792
  941POSM   C1B11035  34.011  29.257  12.109  0.2955  0.0560 -0.0843
  941POSM   D2B11036  34.261  29.093  11.773 -0.2776  0.0646  0.0207
  941POSM   C3B11037  34.498  29.485  11.623 -0.2265 -0.3327 -0.1324
  941POSM   C4B11038  34.879  29.598  11.357 -0.1110  0.1331  0.1058
  942DOPE   NH311039   9.929  31.602  14.339  0.2861  0.0700  0.3911
  942DOPE   PO411040   9.941  31.883  14.485  0.0394  0.0722  0.0127
  942DOPE   GL111041   9.865  32.060  14.197  0.1779  0.3141 -0.1027
  942DOPE   GL211042  10.030  31.957  13.948 -0.1700 -0.1642  0.0234
  942DOPE   C1A11043   9.668  32.260  13.814 -0.0684 -0.1270 -0.3379
  942DOPE   D2A11044   9.522  32.549  13.420 -0.3361  0.0746 -0.0514
  942DOPE   C3A11045   9.348  32.344  13.046  0.0852 -0.1233  0.2089
  942DOPE   C4A11046   9.446  32.045  12.774  0.0384 -0.1406  0.2178
  942DOPE   C1B11047   9.930  31.901  13.497  0.2495 -0.2290  0.1285
  942DOPE   D2B11048  10.185  31.833  13.087  0.0870 -0.1974  0.1308
  942DOPE   C3B11049   9.956  31.888  12.673  0.0321 -0.1231 -0.1793
  942DOPE   C4B11050   9.686  31.708  12.324  0.0600  0.2291 -0.6400
  943DOPE   NH311051  32.427  29.451  13.076  0.0463  0.1402 -0.0236
  943DOPE   PO411052  32.626  29.201  12.981  0.0259 -0.0806 -0.4515
  943DOPE   GL111053  32.442  29.241  12.662 -0.0900 -0.0531  0.5716
  943DOPE   GL211054  32.536  29.013  12.497  0.0970  0.0193  0.0223
  943DOPE   C1A11055  32.515  29.385  12.170 -0.1266 -0.1194 -0.1372
  943DOPE   D2A11056  32.643  29.510  11.710  0.0376 -0.3027  0.1181
  943DOPE   C3A11057  33.002  29.474  11.434  0.0961 -0.1427  0.0511
  943DOPE   C4A11058  33.079  29.885  11.273 -0.1614  0.0904  0.3826
  943DOPE   C1B11059  32.597  28.889  12.022  0.0131  0.2282 -0.1488
  943DOPE   D2B11060  32.862  28.670  11.705  0.3759  0.0429  0.0519
  943DOPE   C3B11061  32.930  28.518  11.280 -0.0678 -0.0198 -0.2640
  943DOPE   C4B11062  33.063  28.337  10.851  0.2430 -0.0451 -0.0803
  944DOPS   CNO11063   8.268  26.439  14.812 -0.0969  0.1526 -0.1094
  944DOPS   PO411064   8.129  26.303  14.460  0.0002 -0.3299  0.1677
  944DOPS   GL111065   8.117  26.532  14.067  0.0591  0.1279  0.0765
  944DOPS   GL211066   7.809  26.519  14.057 -0.1565  0.2277  0.0887
  944DOPS   C1A11067   8.048  26.596  13.604 -0.2515  0.2121 -0.0934
  944DOPS   D2A11068   7.877  26.692  13.218 -0.2270  0.3606  0.3243
  944DOPS   C3A11069   8.062  26.891  12.836  0.1974  0.0453  0.1784
  944DOPS   C4A11070   8.193  26.987  12.384 -0.1714  0.1035  0.4893
  944DOPS   C1B11071   7.550  26.578  13.680 -0.0969  0.0654 -0.1408
  944DOPS   D2B11072   7.295  26.286  13.516  0.0064  0.1178  0.1407
  944DOPS   C3B11073   7.351  26.344  13.034  0.0581  0.1352  0.1722
  944DOPS   C4B11074   7.416  26.199  12.582  0.0988  0.0825 -0.2824
  945DOPS   CNO11075   2.809  26.812  14.008 -0.2828  0.2978  0.2944
  945DOPS   PO411076   2.540  26.964  13.817 -0.1301 -0.0948 -0.0418
  945DOPS   GL111077   2.629  26.778  13.448 -0.2412 -0.0454 -0.3408
  945DOPS   GL211078   2.887  26.719  13.499  0.1196  0.0829  0.1063
  945DOPS   C1A11079   2.371  26.649  13.072  0.1848 -0.2585 -0.1717
  945DOPS   D2A11080   2.178  26.640  12.667  0.0374 -0.1566  0.1916
  945DOPS   C3A11081   2.395  27.036  12.595 -0.0085 -0.0259 -0.0398
  945DOPS   C4A11082   2.538  27.514  12.531 -0.0131 -0.2375 -0.1247
  945DOPS   C1B11083   2.915  26.663  13.013  0.2477  0.2725 -0.0085
  945DOPS   D2B11084   2.674  26.611  12.612 -0.0171 -0.0863  0.0397
  945DOPS   C3B11085   2.622  26.769  12.137 -0.2070  0.1547  0.5835
  945DOPS   C4B11086   2.952  26.913  11.765  0.0743 -0.0013 -0.0601
  946DOPE   NH311087   0.644  29.060  13.190  0.2584 -0.0074  0.2771
  946DOPE   PO411088   0.878  29.064  13.392 -0.1343 -0.0596 -0.0118
  946DOPE   GL111089   0.979  29.252  12.938  0.2339  0.0655 -0.1778
  946DOPE   GL211090   0.903  29.484  12.879 -0.0683  0.0893  0.1330
  946DOPE   C1A11091   0.851  29.012  12.526  0.1461  0.2407  0.2493
  946DOPE   D2A11092   0.793  28.836  12.101 -0.1045  0.4813  0.0007
  946DOPE   C3A11093   0.633  28.427  11.963 -0.0434 -0.2291 -0.0551
  946DOPE   C4A11094   0.619  28.296  11.570  0.2315 -0.3876  0.0038
  946DOPE   C1B11095   1.251  29.507  12.565 -0.0078 -0.0143 -0.1302
  946DOPE   D2B11096   1.489  29.304  12.266  0.0372 -0.0302  0.2025
  946DOPE   C3B11097   1.776  29.441  11.930 -0.0943 -0.0835  0.0400
  946DOPE   C4B11098   2.043  29.478  11.610  0.1804  0.0456  0.1472
  947DOPC   NC311099   3.588  31.190  14.049  0.0179  0.2021 -0.0663
  947DOPC   PO411100   3.464  31.531  13.920 -0.0683 -0.3319  0.2465
  947DOPC   GL111101   3.606  31.437  13.521 -0.2927  0.1540 -0.0193
  947DOPC   GL211102   3.786  31.143  13.568  0.3170 -0.1929  0.0538
  947DOPC   C1A11103   3.488  31.578  13.088  0.1668 -0.1229 -0.0368
  947DOPC   D2A11104   3.311  31.611  12.640 -0.2222  0.2691 -0.0827
  947DOPC   C3A11105   3.481  31.828  12.269 -0.0859 -0.0790  0.0913
  947DOPC   C4A11106   3.537  31.977  11.794 -0.0537 -0.1847 -0.1463
  947DOPC   C1B11107   3.567  31.049  13.221 -0.1754  0.1548 -0.0323
  947DOPC   D2B11108   3.572  31.216  12.805 -0.1643  0.1874 -0.1043
  947DOPC   C3B11109   3.845  31.518  12.619 -0.0636 -0.0814 -0.0455
  947DOPC   C4B11110   4.211  31.599  12.307  0.0470 -0.1749 -0.3368
  948DOPE   NH311111   4.595  32.172  13.912  0.0492  0.1164  0.0789
  948DOPE   PO411112   4.895  32.290  13.929 -0.0435  0.0703 -0.0180
  948DOPE   GL111113   4.826  32.558  13.538 -0.2312 -0.1744 -0.0639
  948DOPE   GL211114   4.883  32.745  13.420  0.0826  0.2380 -0.0077
  948DOPE   C1A11115   4.964  32.390  13.137  0.1506 -0.1557 -0.2209
  948DOPE   D2A11116   5.113  32.352  12.722  0.0984 -0.1017  0.1734
  948DOPE   C3A11117   5.505  32.150  12.631  0.1155  0.0201 -0.0957
  948DOPE   C4A11118   5.777  31.957  12.938  0.0327 -0.1674 -0.0136
  948DOPE   C1B11119   4.885  32.875  13.048  0.1489 -0.0421  0.2802
  948DOPE   D2B11120   5.153  33.110  12.756  0.0724  0.0996  0.0074
  948DOPE   C3B11121   5.426  33.465  12.661  0.0755  0.1441 -0.1389
  948DOPE   C4B11122   5.589  33.903  12.719 -0.1896 -0.0320 -0.3206
  949DOPC   NC311123   3.074  28.278  13.959 -0.2084 -0.1585 -0.0633
  949DOPC   PO411124   2.748  28.289  13.781 -0.1645  0.0336 -0.0336
  949DOPC   GL111125   2.611  28.434  13.422  0.2319 -0.2744  0.2940
  949DOPC   GL211126   2.691  28.698  13.440 -0.1225  0.3115 -0.1103
  949DOPC   C1A11127   2.375  28.216  13.033  0.2017 -0.1976  0.1784
  949DOPC   D2A11128   2.267  27.870  12.790  0.3971  0.1629 -0.3146
  949DOPC   C3A11129   2.341  27.948  12.309 -0.0553  0.1887 -0.0496
  949DOPC   C4A11130   2.510  28.125  11.865  0.0732  0.0708 -0.0313
  949DOPC   C1B11131   2.688  28.653  12.938  0.0069  0.3400 -0.1016
  949DOPC   D2B11132   2.591  28.405  12.558 -0.0391  0.2871  0.1812
  949DOPC   C3B11133   2.827  28.119  12.263  0.1538  0.2446 -0.2107
  949DOPC   C4B11134   2.707  27.681  11.999  0.3491 -0.0580 -0.0979
  950DOPE   NH311135   8.611  29.465  14.485  0.0961 -0.0826  0.1528
  950DOPE   PO411136   8.321  29.435  14.603  0.2230  0.0191  0.0001
  950DOPE   GL111137   8.398  29.274  14.135 -0.3208 -0.0782  0.1829
  950DOPE   GL211138   8.431  28.970  14.166 -0.4265  0.0208  0.1193
  950DOPE   C1A11139   8.132  29.397  13.784  0.2341  0.1063 -0.1146
  950DOPE   D2A11140   8.245  29.715  13.459 -0.1105 -0.2733  0.1417
  950DOPE   C3A11141   8.140  30.010  13.163 -0.0684 -0.3780 -0.1828
  950DOPE   C4A11142   8.200  30.212  12.735  0.0791  0.1397 -0.0230
  950DOPE   C1B11143   8.631  28.837  13.724 -0.0468  0.0130  0.0055
  950DOPE   D2B11144   8.758  28.874  13.251 -0.1843  0.2133 -0.1001
  950DOPE   C3B11145   8.500  28.913  12.869 -0.0786  0.4018 -0.0326
  950DOPE   C4B11146   8.252  28.560  12.675  0.2180 -0.1830  0.1309
  951DOPE   NH311147   9.005  30.282  14.382 -0.3844  0.0183 -0.0467
  951DOPE   PO411148   8.976  30.591  14.494 -0.1185 -0.0818  0.2469
  951DOPE   GL111149   8.845  30.569  14.097  0.0735 -0.3288 -0.0951
  951DOPE   GL211150   9.029  30.472  13.863  0.0753 -0.1462 -0.0405
  951DOPE   C1A11151   8.760  30.886  13.737 -0.0723  0.0444  0.1381
  951DOPE   D2A11152   9.038  31.221  13.637 -0.1318  0.1165  0.0891
  951DOPE   C3A11153   9.079  31.398  13.190  0.0780 -0.1950 -0.2397
  951DOPE   C4A11154   9.341  31.322  12.821  0.0590  0.1210 -0.2040
  951DOPE   C1B11155   8.965  30.403  13.411 -0.1521 -0.2319  0.0904
  951DOPE   D2B11156   9.128  30.134  13.104 -0.1436 -0.0730  0.2424
  951DOPE   C3B11157   9.422  30.197  12.819  0.2321 -0.2032 -0.0973
  951DOPE   C4B11158   9.457  30.479  12.456  0.1753 -0.1282  0.0864
  952DOPC   NC311159   3.659  24.314  14.311 -0.1468 -0.0819 -0.2164
  952DOPC   PO411160   3.789  24.648  14.234 -0.1916  0.0367 -0.0093
  952DOPC   GL111161   3.894  24.529  13.906  0.6918  0.1975  0.0659
  952DOPC   GL211162   3.643  24.317  13.806 -0.1815 -0.0080 -0.3694
  952DOPC   C1A11163   4.052  24.698  13.499 -0.2603 -0.0026  0.0229
  952DOPC   D2A11164   3.746  24.816  13.204  0.0086  0.1150  0.2066
  952DOPC   C3A11165   3.393  24.713  13.097 -0.0944  0.0161  0.0835
  952DOPC   C4A11166   3.316  24.275  13.009 -0.2342  0.2019  0.1506
  952DOPC   C1B11167   3.643  24.270  13.350 -0.0781 -0.2888  0.0712
  952DOPC   D2B11168   3.760  24.015  12.997 -0.2477  0.4252  0.0309
  952DOPC   C3B11169   3.532  23.718  12.821 -0.1602  0.0142  0.0636
  952DOPC   C4B11170   3.176  23.522  12.984  0.0385  0.2858  0.1220
  953DOPC   NC311171  10.342  25.377  13.747  0.2761  0.0096  0.0564
  953DOPC   PO411172  10.664  25.131  13.916 -0.3024 -0.1723 -0.2255
  953DOPC   GL111173  10.650  25.050  13.548  0.2608  0.0795  0.0951
  953DOPC   GL211174  10.938  24.955  13.388 -0.3584 -0.0302  0.2158
  953DOPC   C1A11175  10.604  25.292  13.187 -0.0975  0.2995  0.3650
  953DOPC   D2A11176  10.691  25.367  12.750 -0.1203 -0.0025  0.0428
  953DOPC   C3A11177  10.747  25.212  12.321 -0.1650 -0.0279 -0.1490
  953DOPC   C4A11178  11.150  25.025  12.091  0.0585 -0.2887  0.0196
  953DOPC   C1B11179  10.908  24.951  12.931  0.0071 -0.2140  0.0869
  953DOPC   D2B11180  10.940  24.770  12.510 -0.0959 -0.1251  0.0227
  953DOPC   C3B11181  10.646  24.776  12.107  0.0828 -0.3422 -0.1735
  953DOPC   C4B11182  10.309  24.490  11.949  0.4370  0.1870  0.1325
  954DOPE   NH311183   4.727  24.131  14.376  0.0853  0.1769 -0.1538
  954DOPE   PO411184   4.604  23.871  14.495 -0.3062 -0.0494 -0.0293
  954DOPE   GL111185   4.425  23.660  14.163  0.1731  0.1259 -0.5894
  954DOPE   GL211186   4.452  23.913  13.969  0.0778 -0.2027  0.0651
  954DOPE   C1A11187   4.393  23.513  13.727  0.0274 -0.1351 -0.2206
  954DOPE   D2A11188   4.196  23.204  13.463 -0.0132  0.4775  0.0162
  954DOPE   C3A11189   3.968  22.931  13.162  0.4144 -0.0565 -0.0376
  954DOPE   C4A11190   3.682  22.705  12.844  0.0511 -0.0471 -0.0486
  954DOPE   C1B11191   4.870  23.841  13.680 -0.0822 -0.2298  0.0613
  954DOPE   D2B11192   4.934  23.587  13.323 -0.0228  0.0050  0.2161
  954DOPE   C3B11193   5.101  23.554  12.856  0.0594  0.3832 -0.0305
  954DOPE   C4B11194   5.168  23.698  12.456 -0.0951  0.1202  0.1865
  955DOPE   NH311195   8.893  30.155  14.831  0.1062  0.1761 -0.0551
  955DOPE   PO411196   8.935  29.888  14.668 -0.2144 -0.1303 -0.0287
  955DOPE   GL111197   8.918  29.677  14.233  0.2853 -0.0575  0.5077
  955DOPE   GL211198   8.991  29.902  14.074 -0.1179 -0.1422 -0.3056
  955DOPE   C1A11199   8.575  29.599  13.866  0.0528 -0.3323 -0.0779
  955DOPE   D2A11200   8.610  29.320  13.514  0.1255  0.2487 -0.0908
  955DOPE   C3A11201   8.695  29.353  13.067  0.1225  0.1540 -0.1402
  955DOPE   C4A11202   8.997  29.347  12.721  0.3718  0.0089  0.2964
  955DOPE   C1B11203   8.931  29.931  13.667 -0.0112 -0.1198  0.0862
  955DOPE   D2B11204   8.717  29.812  13.217 -0.0028 -0.0541 -0.1149
  955DOPE   C3B11205   8.678  30.231  13.039  0.1476  0.0820  0.0302
  955DOPE   C4B11206   8.621  30.676  12.836  0.0235  0.1096  0.0897
  956DOPS   CNO11207   1.717  33.218  14.303 -0.0508  0.1813  0.0524
  956DOPS   PO411208   1.814  32.888  14.075  0.1572 -0.0450  0.5032
  956DOPS   GL111209   2.092  32.811  13.801  0.2741 -0.0495 -0.2028
  956DOPS   GL211210   2.172  32.480  13.709 -0.0372  0.3250  0.2063
  956DOPS   C1A11211   2.281  32.937  13.428 -0.1021 -0.0029 -0.0500
  956DOPS   D2A11212   2.410  33.360  13.216  0.1128 -0.4205 -0.0647
  956DOPS   C3A11213   2.302  33.343  12.779 -0.1521 -0.2465  0.4333
  956DOPS   C4A11214   2.306  33.210  12.327 -0.0821  0.1743 -0.0493
  956DOPS   C1B11215   1.995  32.362  13.316 -0.1967 -0.2356  0.0888
  956DOPS   D2B11216   2.063  32.485  12.883  0.1867  0.0408 -0.0730
  956DOPS   C3B11217   1.959  32.749  12.500  0.1107  0.1302  0.4922
  956DOPS   C4B11218   1.775  33.029  12.206 -0.0921 -0.1050 -0.2275
  957POSM   NC311219   2.537   0.245  14.021 -0.1381 -0.2073 -0.1368
  957POSM   PO411220   2.853   0.288  14.297  0.3171  0.0433 -0.1359
  957POSM   AM111221   3.048   0.205  14.020  0.4616  0.0126 -0.0035
  957POSM   AM211222   3.143   0.015  13.848  0.3094  0.1680  0.0413
  957POSM   T1A11223   3.382   0.412  13.631 -0.2913  0.0879 -0.1001
  957POSM   C2A11224   3.446   0.619  13.209  0.1107 -0.0752 -0.0760
  957POSM   C3A11225   3.444   0.953  12.882  0.3525  0.1655 -0.2505
  957POSM   C1B11226   3.201  -0.098  13.495 -0.0662 -0.2126  0.2327
  957POSM   D2B11227   3.517   0.069  13.201  0.2180  0.0402  0.0305
  957POSM   C3B11228   3.261   0.002  12.782  0.0923 -0.2806  0.1372
  957POSM   C4B11229   3.304   0.306  12.397 -0.3058  0.4243  0.0012
  958DOPC   NC311230  30.684  28.604  12.652  0.3330 -0.2591 -0.3191
  958DOPC   PO411231  31.028  28.429  12.846  0.0802  0.1464  0.0507
  958DOPC   GL111232  31.123  28.438  12.452  0.1803  0.2758 -0.2236
  958DOPC   GL211233  30.864  28.267  12.306 -0.3675 -0.3481 -0.1565
  958DOPC   C1A11234  31.214  28.466  12.012 -0.2428  0.1178  0.1217
  958DOPC   D2A11235  31.003  28.432  11.574 -0.3543  0.0191 -0.1568
  958DOPC   C3A11236  31.242  28.317  11.226  0.0971  0.0031  0.2033
  958DOPC   C4A11237  31.668  28.279  11.079  0.1251 -0.0869 -0.2443
  958DOPC   C1B11238  30.627  28.459  11.967 -0.0558  0.2432  0.1314
  958DOPC   D2B11239  30.589  28.682  11.587  0.1124 -0.0875  0.0806
  958DOPC   C3B11240  30.898  28.921  11.359  0.0515 -0.0419  0.1043
  958DOPC   C4B11241  30.936  28.766  10.934 -0.0042  0.0056  0.0709
  959DOPC   NC311242   4.794  27.653  14.167 -0.0607  0.0775  0.0098
  959DOPC   PO411243   4.452  27.530  14.056  0.0390 -0.0942  0.1260
  959DOPC   GL111244   4.644  27.903  13.826  0.4161  0.1223 -0.2434
  959DOPC   GL211245   4.843  27.760  13.689 -0.3261 -0.2368  0.3744
  959DOPC   C1A11246   4.465  28.093  13.437  0.4909 -0.1380  0.1549
  959DOPC   D2A11247   4.324  28.541  13.466 -0.0094 -0.2660 -0.1862
  959DOPC   C3A11248   4.279  28.753  13.046 -0.0622  0.2285 -0.0813
  959DOPC   C4A11249   4.278  29.151  12.772  0.0348 -0.1440  0.3004
  959DOPC   C1B11250   4.804  27.855  13.199 -0.3849  0.3968  0.0153
  959DOPC   D2B11251   4.623  28.082  12.860 -0.2121  0.2845 -0.0733
  959DOPC   C3B11252   4.598  28.161  12.444  0.3171 -0.1911  0.0452
  959DOPC   C4B11253   4.554  28.169  11.989  0.1190 -0.2883  0.0313
  960DOPS   CNO11254   5.060  27.420  14.636 -0.1688 -0.1608 -0.1572
  960DOPS   PO411255   5.263  27.171  14.454  0.1029 -0.1004  0.0454
  960DOPS   GL111256   5.262  27.077  14.029  0.2018  0.3347 -0.1022
  960DOPS   GL211257   4.973  27.211  13.967 -0.2528  0.0840  0.0883
  960DOPS   C1A11258   5.302  26.941  13.607  0.0605  0.1079 -0.1667
  960DOPS   D2A11259   5.253  26.958  13.228 -0.0229 -0.0609 -0.0911
  960DOPS   C3A11260   4.805  27.055  12.988 -0.0071 -0.0365 -0.0166
  960DOPS   C4A11261   4.685  27.112  12.581  0.1369  0.0031 -0.0443
  960DOPS   C1B11262   5.029  27.367  13.498  0.1569  0.1643  0.1987
  960DOPS   D2B11263   5.108  27.414  13.039  0.0290  0.1964 -0.2586
  960DOPS   C3B11264   5.240  27.203  12.669 -0.0132 -0.1263  0.1706
  960DOPS   C4B11265   5.277  26.909  12.291 -0.3322 -0.0927  0.2127
  961DOPC   NC311266  11.568  32.495  14.337  0.0149  0.0142 -0.0873
  961DOPC   PO411267  11.706  32.788  14.569  0.1881  0.2426  0.1161
  961DOPC   GL111268  11.569  32.956  14.252 -0.2561  0.2972  0.1425
  961DOPC   GL211269  11.709  33.183  14.166 -0.0597  0.2764  0.0599
  961DOPC   C1A11270  11.519  32.700  13.849  0.0032 -0.1101 -0.1260
  961DOPC   D2A11271  11.303  32.562  13.466  0.1004 -0.0947 -0.0004
  961DOPC   C3A11272  11.311  32.700  12.995  0.1663 -0.3588  0.3200
  961DOPC   C4A11273  11.306  32.980  12.596  0.2778 -0.2559  0.0488
  961DOPC   C1B11274  11.686  33.579  13.922  0.0498  0.1050  0.0658
  961DOPC   D2B11275  11.659  34.035  13.812 -0.0418 -0.3185  0.1360
  961DOPC   C3B11276  11.682  34.317  13.405 -0.5216  0.0033 -0.0586
  961DOPC   C4B11277  11.609  34.355  12.955 -0.0632 -0.3948 -0.0127
  962POSM   NC311278   9.024  28.685  14.680  0.1116  0.3075 -0.0778
  962POSM   PO411279   8.822  29.049  14.737  0.2949  0.1409  0.4606
  962POSM   AM111280   8.792  29.023  14.424  0.4585  0.2873 -0.3392
  962POSM   AM211281   8.847  29.198  14.185  0.0536 -0.0854 -0.4629
  962POSM   T1A11282   8.934  28.638  14.071  0.3731  0.1101  0.0581
  962POSM   C2A11283   9.045  28.292  13.740 -0.0738  0.0152  0.0311
  962POSM   C3A11284   9.271  27.970  13.492 -0.1436 -0.2285 -0.0339
  962POSM   C1B11285   8.976  29.362  13.908  0.1624  0.0213  0.1317
  962POSM   D2B11286   9.088  29.223  13.459 -0.0660 -0.1685 -0.2876
  962POSM   C3B11287   9.401  29.118  13.173 -0.1147  0.0865  0.3536
  962POSM   C4B11288   9.528  29.123  12.741 -0.1868  0.0389 -0.1458
  963DOPC   NC311289   3.969  26.471  13.865 -0.1600  0.2147  0.1814
  963DOPC   PO411290   3.674  26.234  14.046 -0.1644  0.1963 -0.1697
  963DOPC   GL111291   3.812  25.992  13.708  0.3389  0.0528  0.0134
  963DOPC   GL211292   4.126  25.825  13.670  0.3123 -0.0285 -0.0796
  963DOPC   C1A11293   3.763  26.005  13.173  0.2279  0.0268  0.1121
  963DOPC   D2A11294   3.772  26.144  12.706  0.0854 -0.1550 -0.1331
  963DOPC   C3A11295   3.852  25.999  12.274  0.1654  0.0168  0.1618
  963DOPC   C4A11296   3.565  26.207  11.947  0.2113 -0.2651 -0.0598
  963DOPC   C1B11297   4.336  25.730  13.267 -0.0626  0.0376 -0.1556
  963DOPC   D2B11298   4.637  25.824  13.020 -0.1707 -0.1490 -0.1562
  963DOPC   C3B11299   4.813  25.633  12.626 -0.2049  0.0097 -0.0292
  963DOPC   C4B11300   5.067  25.381  12.399 -0.0077 -0.3266 -0.1122
  964DOPC   NC311301   8.933  25.327  14.185  0.3042 -0.0486  0.2481
  964DOPC   PO411302   8.784  25.456  13.855  0.0562  0.1261  0.0337
  964DOPC   GL111303   8.826  25.506  13.508 -0.4248  0.2442  0.1170
  964DOPC   GL211304   8.628  25.371  13.292 -0.1306  0.1553 -0.0005
  964DOPC   C1A11305   9.198  25.289  13.260 -0.2456 -0.0259  0.0625
  964DOPC   D2A11306   9.289  24.952  12.980  0.1955  0.2351  0.0795
  964DOPC   C3A11307   9.778  24.941  13.025  0.1839 -0.1154  0.2690
  964DOPC   C4A11308  10.087  24.630  12.970  0.2068  0.0582  0.0184
  964DOPC   C1B11309   8.676  25.020  13.006 -0.4971 -0.2769  0.0367
  964DOPC   D2B11310   8.525  24.861  12.568 -0.1999 -0.2007  0.1983
  964DOPC   C3B11311   8.109  24.836  12.766 -0.0674  0.0513  0.2330
  964DOPC   C4B11312   7.763  25.037  13.018 -0.2654 -0.0507  0.1917
  965DOPE   NH311313   6.068  24.681  13.996  0.0157  0.1890 -0.1293
  965DOPE   PO411314   5.892  24.427  14.099 -0.2044 -0.0691 -0.1124
  965DOPE   GL111315   5.935  24.289  13.782  0.2494 -0.0642  0.2955
  965DOPE   GL211316   6.128  24.122  13.824  0.2987 -0.1742 -0.3860
  965DOPE   C1A11317   5.924  24.513  13.341 -0.3360  0.1133 -0.0211
  965DOPE   D2A11318   5.813  24.787  12.991  0.0713 -0.2096  0.3059
  965DOPE   C3A11319   5.965  24.521  12.628 -0.1357 -0.0948  0.0052
  965DOPE   C4A11320   6.050  24.500  12.184 -0.0188  0.1654  0.0252
  965DOPE   C1B11321   6.000  24.003  13.369  0.0286  0.1528 -0.0918
  965DOPE   D2B11322   5.838  24.137  12.923  0.0682  0.2049 -0.1271
  965DOPE   C3B11323   6.067  23.987  12.577 -0.2044  0.0334  0.1990
  965DOPE   C4B11324   6.058  23.667  12.296  0.2506 -0.2086 -0.2019
  966POSM   NC311325  10.044  25.811  14.157  0.1456  0.0637 -0.3579
  966POSM   PO411326  10.068  25.389  14.219 -0.0438 -0.1606  0.0733
  966POSM   AM111327   9.929  25.438  13.940 -0.1528 -0.0543 -0.2454
  966POSM   AM211328   9.767  25.308  13.721  0.4329 -0.0514  0.1099
  966POSM   T1A11329   9.788  25.812  13.584 -0.1598  0.2812  0.0848
  966POSM   C2A11330   9.928  26.120  13.233 -0.0098  0.3091 -0.3386
  966POSM   C3A11331  10.124  26.495  13.022  0.4202  0.2284  0.0325
  966POSM   C1B11332   9.716  25.310  13.359  0.1286  0.0762 -0.0869
  966POSM   D2B11333   9.594  25.438  12.934 -0.0712  0.3648 -0.1841
  966POSM   C3B11334   9.544  25.094  12.607 -0.1852 -0.0344 -0.0847
  966POSM   C4B11335   9.443  24.663  12.435 -0.1618  0.1033 -0.2613
  967POSM   NC311336  34.533  31.339  13.483  0.0794  0.3150 -0.3123
  967POSM   PO411337  34.142  31.474  13.503  0.1336  0.1764 -0.1919
  967POSM   AM111338  34.019  31.580  13.219  0.2344  0.1078  0.2075
  967POSM   AM211339  34.000  31.755  12.942 -0.3081  0.0824  0.0718
  967POSM   T1A11340  33.615  31.518  12.935 -0.2894  0.2075  0.0777
  967POSM   C2A11341  33.221  31.590  12.700 -0.1377 -0.0082 -0.2930
  967POSM   C3A11342  32.783  31.489  12.742  0.1670  0.0146  0.1400
  967POSM   C1B11343  34.208  31.702  12.679 -0.0282  0.2036 -0.0821
  967POSM   D2B11344  34.499  31.590  12.337  0.1796  0.0409  0.1472
  967POSM   C3B11345  34.798  31.907  12.211 -0.0958 -0.1089 -0.0891
  967POSM   C4B11346  35.099  32.131  11.923  0.0122 -0.0865 -0.0966
  968DOPE   NH311347  34.745  24.843  13.962  0.1609  0.0731 -0.0120
  968DOPE   PO411348  34.501  24.664  14.044  0.2216  0.1850 -0.0123
  968DOPE   GL111349  34.469  24.597  13.592  0.0117 -0.1612 -0.0220
  968DOPE   GL211350  34.221  24.571  13.505 -0.0455  0.0648  0.1409
  968DOPE   C1A11351  34.806  24.530  13.276  0.1280 -0.1223  0.3373
  968DOPE   D2A11352  34.605  24.348  12.912  0.0828 -0.2652  0.0352
  968DOPE   C3A11353  34.788  24.387  12.438  0.0466 -0.2861 -0.0711
  968DOPE   C4A11354  35.132  24.332  12.193 -0.1591 -0.2102  0.2648
  968DOPE   C1B11355  34.363  24.912  13.211 -0.2716  0.2045 -0.0561
  968DOPE   D2B11356  34.563  24.842  12.803  0.0301 -0.1923 -0.0256
  968DOPE   C3B11357  34.337  24.972  12.411  0.0228 -0.0815  0.0772
  968DOPE   C4B11358  33.924  25.145  12.159  0.1886  0.0777 -0.2206
  969POSM   NC311359   2.159  30.158  13.575  0.2445 -0.0622 -0.2901
  969POSM   PO411360   2.149  29.819  13.800  0.0171  0.0824  0.1641
  969POSM   AM111361   2.323  29.674  13.596 -0.2609  0.2553  0.2591
  969POSM   AM211362   2.461  29.427  13.569 -0.1919  0.2464 -0.5316
  969POSM   T1A11363   2.497  29.636  13.135  0.1613  0.2904 -0.2275
  969POSM   C2A11364   2.685  29.752  12.721 -0.1393  0.0200  0.3433
  969POSM   C3A11365   3.072  29.899  12.435  0.0740  0.0156  0.2931
  969POSM   C1B11366   2.714  29.275  13.421 -0.2483 -0.1972  0.1849
  969POSM   D2B11367   2.985  29.006  13.157 -0.0279 -0.1325  0.3957
  969POSM   C3B11368   3.226  28.638  13.195 -0.1503  0.1557  0.1480
  969POSM   C4B11369   3.344  28.283  13.374 -0.2105 -0.1184  0.4581
  970DOPE   NH311370   4.792  32.831  13.997 -0.0961  0.2613  0.1650
  970DOPE   PO411371   4.563  32.952  13.796  0.5188  0.1311  0.1811
  970DOPE   GL111372   4.382  33.033  13.430 -0.1154  0.3022 -0.2343
  970DOPE   GL211373   4.124  33.101  13.581 -0.0582  0.1596 -0.0014
  970DOPE   C1A11374   4.256  33.258  13.109  0.0250 -0.3250  0.1068
  970DOPE   D2A11375   4.034  33.412  12.764  0.1266 -0.0231 -0.0428
  970DOPE   C3A11376   4.060  33.250  12.327 -0.0132  0.2594 -0.0576
  970DOPE   C4A11377   4.293  33.392  11.968  0.3168  0.1607 -0.0754
  970DOPE   C1B11378   3.926  32.830  13.218  0.3103  0.0281  0.1168
  970DOPE   D2B11379   3.628  32.561  12.999 -0.1165  0.0754 -0.1248
  970DOPE   C3B11380   3.739  32.527  12.592 -0.0703  0.0084 -0.0022
  970DOPE   C4B11381   3.810  32.819  12.234  0.0385 -0.1153 -0.1027
  971POSM   NC311382  33.491  27.158  13.924  0.0621  0.1122  0.3655
  971POSM   PO411383  33.500  27.363  13.564  0.0163  0.2209  0.1233
  971POSM   AM111384  33.706  27.258  13.303 -0.0001 -0.0390 -0.1600
  971POSM   AM211385  33.807  27.425  13.104  0.1530  0.1987 -0.1523
  971POSM   T1A11386  33.586  26.999  12.881 -0.0084 -0.0163 -0.1323
  971POSM   C2A11387  33.499  26.878  12.426 -0.2995  0.0618  0.0772
  971POSM   C3A11388  33.627  26.697  12.028  0.0360 -0.3614 -0.3605
  971POSM   C1B11389  33.679  27.592  12.845 -0.1622 -0.2534  0.1154
  971POSM   D2B11390  33.471  27.535  12.406  0.0666 -0.1340 -0.0971
  971POSM   C3B11391  33.567  27.252  12.048 -0.0482  0.0840 -0.3306
  971POSM   C4B11392  33.266  27.026  11.765  0.0486  0.0112 -0.0785
  972DOPS   CNO11393  10.763  25.897  14.511  0.1821  0.1740 -0.3558
  972DOPS   PO411394  10.564  26.050  14.250 -0.0536  0.0319 -0.0248
  972DOPS   GL111395  10.566  25.825  13.887  0.2175  0.2121 -0.1574
  972DOPS   GL211396  10.293  25.902  13.691  0.1949  0.0811 -0.3704
  972DOPS   C1A11397  10.731  25.783  13.441 -0.1352  0.2956  0.1732
  972DOPS   D2A11398  10.697  25.822  12.980 -0.1710  0.0761  0.3535
  972DOPS   C3A11399  10.454  26.162  12.721  0.1611 -0.2156 -0.1421
  972DOPS   C4A11400  10.072  26.192  12.557  0.0676 -0.2514 -0.1120
  972DOPS   C1B11401  10.214  25.620  13.302 -0.0282  0.1213  0.1950
  972DOPS   D2B11402  10.086  25.723  12.849 -0.0862 -0.2365  0.0432
  972DOPS   C3B11403  10.325  25.773  12.440  0.1144  0.1595  0.1724
  972DOPS   C4B11404  10.703  25.948  12.221 -0.0396 -0.1471  0.0315
  973DOPC   NC311405   5.836  33.730  14.481 -0.0381  0.1108 -0.1829
  973DOPC   PO411406   5.964  34.074  14.260  0.1262  0.2055 -0.1501
  973DOPC   GL111407   5.820  33.885  13.885  0.0937  0.4193  0.0918
  973DOPC   GL211408   5.608  34.121  13.916 -0.0135 -0.1934 -0.1646
  973DOPC   C1A11409   5.960  33.964  13.406  0.0897 -0.0329  0.2482
  973DOPC   D2A11410   6.057  33.881  12.990  0.0097  0.1169  0.1932
  973DOPC   C3A11411   6.111  33.973  12.567 -0.0897 -0.0305 -0.1610
  973DOPC   C4A11412   6.252  34.253  12.211 -0.2627  0.1590  0.1082
  973DOPC   C1B11413   5.593  34.344  13.532 -0.0745 -0.0523 -0.0507
  973DOPC   D2B11414   5.390  34.646  13.245 -0.0965  0.0044 -0.1759
  973DOPC   C3B11415   5.690  34.820  12.972 -0.2171  0.0799  0.0528
  973DOPC   C4B11416   5.791  35.044  12.608  0.1942 -0.0804  0.2241
  974DOPS   CNO11417  33.002   0.082  13.874 -0.1972 -0.4905 -0.1907
  974DOPS   PO411418  32.903   0.410  13.730  0.0556  0.2956  0.0107
  974DOPS   GL111419  32.939   0.689  13.377  0.0013 -0.1740  0.1588
  974DOPS   GL211420  33.218   0.812  13.319  0.0319 -0.0701  0.4178
  974DOPS   C1A11421  32.819   0.725  12.915 -0.0395 -0.2183 -0.3321
  974DOPS   D2A11422  32.802   0.939  12.446 -0.1521  0.0853  0.3762
  974DOPS   C3A11423  32.978   0.674  12.074  0.2350 -0.1709  0.0191
  974DOPS   C4A11424  32.780   0.476  11.738  0.3797  0.1219  0.2361
  974DOPS   C1B11425  33.295   0.746  12.894 -0.5134  0.1188  0.0017
  974DOPS   D2B11426  33.150   0.612  12.502  0.1306  0.0716 -0.1370
  974DOPS   C3B11427  33.443   0.559  12.194 -0.0079 -0.2391 -0.2675
  974DOPS   C4B11428  33.728   0.331  11.905 -0.1009 -0.0389  0.0277
  975DOPE   NH311429   7.479  34.299  14.715  0.0285  0.1221  0.3294
  975DOPE   PO411430   7.539  34.210  14.440 -0.0996  0.0344 -0.3800
  975DOPE   GL111431   7.509  34.140  14.046 -0.0415 -0.2138  0.4380
  975DOPE   GL211432   7.276  33.994  13.946  0.1120  0.1817 -0.1291
  975DOPE   C1A11433   7.618  34.280  13.637  0.0748  0.0827 -0.1526
  975DOPE   D2A11434   7.692  34.184  13.208 -0.0117 -0.0512 -0.0271
  975DOPE   C3A11435   7.677  33.769  13.033  0.0158 -0.2533 -0.0432
  975DOPE   C4A11436   7.413  33.478  12.723  0.0424 -0.1206 -0.0035
  975DOPE   C1B11437   7.137  34.113  13.566  0.1490 -0.0330 -0.1484
  975DOPE   D2B11438   7.010  34.194  13.132  0.0157  0.1763  0.2401
  975DOPE   C3B11439   7.078  33.928  12.782  0.3493  0.0320 -0.5728
  975DOPE   C4B11440   6.982  33.600  12.486  0.4199 -0.0534  0.0084
  976DOPC   NC311441  33.272  28.868  12.699  0.3055  0.3558 -0.2166
  976DOPC   PO411442  33.081  29.168  12.780 -0.2832 -0.1256  0.0944
  976DOPC   GL111443  33.162  29.243  12.365 -0.1941  0.0868  0.0410
  976DOPC   GL211444  32.941  29.152  12.274  0.0987 -0.0188  0.0596
  976DOPC   C1A11445  33.459  28.942  12.144  0.1538 -0.0246  0.1974
  976DOPC   D2A11446  33.450  28.600  11.885  0.3833 -0.1684  0.0054
  976DOPC   C3A11447  33.803  28.626  11.612 -0.1116  0.0455 -0.3572
  976DOPC   C4A11448  34.059  28.428  11.330  0.1043 -0.2263  0.1471
  976DOPC   C1B11449  33.075  29.070  11.870  0.1765 -0.0750 -0.0047
  976DOPC   D2B11450  33.268  28.956  11.506  0.1436 -0.2174  0.1061
  976DOPC   C3B11451  33.650  28.963  11.285  0.0662  0.0659  0.0452
  976DOPC   C4B11452  34.055  28.879  11.065  0.0465 -0.0535 -0.0043
  977DOPS   CNO11453  34.535  27.323  13.699 -0.0956  0.1321 -0.1010
  977DOPS   PO411454  34.433  27.448  13.384 -0.1409  0.1625 -0.0127
  977DOPS   GL111455  34.395  27.400  12.976 -0.0168 -0.0251 -0.1528
  977DOPS   GL211456  34.235  27.135  12.973 -0.1692  0.0353 -0.4798
  977DOPS   C1A11457  34.460  27.351  12.499 -0.2016  0.1884  0.1689
  977DOPS   D2A11458  34.551  27.692  12.148  0.1844  0.4787 -0.2984
  977DOPS   C3A11459  34.932  27.807  11.902  0.0672  0.1252  0.1569
  977DOPS   C4A11460  35.396  27.776  11.879  0.1047  0.2158 -0.0012
  977DOPS   C1B11461  33.960  27.159  12.643  0.1563 -0.1059  0.2405
  977DOPS   D2B11462  33.961  27.117  12.208 -0.0946 -0.1627  0.1154
  977DOPS   C3B11463  34.323  27.161  11.977  0.1621 -0.1495 -0.2306
  977DOPS   C4B11464  34.679  26.870  11.984  0.0125 -0.2287  0.0893
  978DOPC   NC311465   4.085  27.740  14.376 -0.1665  0.0876 -0.1524
  978DOPC   PO411466   3.811  27.764  14.082 -0.0249 -0.1527 -0.3923
  978DOPC   GL111467   3.944  27.763  13.741  0.0304 -0.0800  0.0524
  978DOPC   GL211468   4.250  27.677  13.606 -0.2277 -0.0998 -0.1298
  978DOPC   C1A11469   3.847  28.078  13.383  0.0301  0.1096 -0.1268
  978DOPC   D2A11470   4.130  28.321  13.054  0.3246 -0.1295 -0.1132
  978DOPC   C3A11471   4.217  28.432  12.596 -0.1544 -0.0609  0.3111
  978DOPC   C4A11472   4.421  28.791  12.340 -0.1387 -0.0089  0.0748
  978DOPC   C1B11473   4.476  27.433  13.275  0.3149 -0.4359  0.0930
  978DOPC   D2B11474   4.578  27.542  12.791  0.0060  0.1133 -0.1942
  978DOPC   C3B11475   4.963  27.720  12.643 -0.3308  0.4135 -0.1444
  978DOPC   C4B11476   5.417  27.733  12.757 -0.0183 -0.0134 -0.2229
  979DOPE   NH311477  10.528  31.018  14.373  0.3994  0.0140  0.2168
  979DOPE   PO411478  10.294  31.195  14.304 -0.1285  0.1441  0.2379
  979DOPE   GL111479  10.221  31.071  13.947  0.1342 -0.3202  0.0261
  979DOPE   GL211480  10.008  31.386  13.863  0.2569 -0.0045 -0.0769
  979DOPE   C1A11481  10.456  30.917  13.577  0.0116 -0.1349 -0.1279
  979DOPE   D2A11482  10.675  30.936  13.152 -0.0422 -0.1190 -0.2155
  979DOPE   C3A11483  10.674  30.983  12.684  0.1489  0.0002 -0.0344
  979DOPE   C4A11484  10.459  31.243  12.473  0.0258  0.4361 -0.1982
  979DOPE   C1B11485  10.375  31.521  13.646 -0.1007  0.1285 -0.1035
  979DOPE   D2B11486  10.509  31.487  13.273  0.0604  0.1923  0.1259
  979DOPE   C3B11487  10.259  31.385  12.902 -0.1531 -0.3381  0.1379
  979DOPE   C4B11488   9.846  31.234  12.737  0.1957 -0.2357 -0.0219
  980POSM   NC311489   6.620  32.931  14.161 -0.1587  0.1173  0.0033
  980POSM   PO411490   6.820  32.578  14.180 -0.1361  0.2310  0.1169
  980POSM   AM111491   6.624  32.453  13.957 -0.4358 -0.1076  0.1422
  980POSM   AM211492   6.379  32.500  13.870 -0.0708  0.0707 -0.0826
  980POSM   T1A11493   6.670  32.256  13.466  0.1668 -0.1140 -0.2396
  980POSM   C2A11494   6.703  31.970  13.118 -0.0936  0.3907  0.0393
  980POSM   C3A11495   6.472  31.861  12.693 -0.3694 -0.2841  0.0714
  980POSM   C1B11496   6.434  32.703  13.584 -0.1491 -0.2782  0.0793
  980POSM   D2B11497   6.558  33.067  13.315 -0.0412  0.2714 -0.2374
  980POSM   C3B11498   7.003  33.192  13.373  0.1641 -0.0770  0.0243
  980POSM   C4B11499   7.471  33.365  13.187 -0.0481 -0.0256 -0.2531
  981DOPE   NH311500   6.141  30.545  14.037 -0.1746 -0.0680  0.1959
  981DOPE   PO411501   6.122  30.371  13.760  0.0170 -0.0934  0.1910
  981DOPE   GL111502   6.496  30.253  13.580 -0.1292  0.2391  0.0281
  981DOPE   GL211503   6.534  29.946  13.537  0.1449 -0.4840  0.1948
  981DOPE   C1A11504   6.619  30.228  13.106  0.1047 -0.3462  0.1517
  981DOPE   D2A11505   6.926  30.440  12.849  0.2712  0.0122 -0.1842
  981DOPE   C3A11506   7.355  30.391  12.629  0.2099  0.1856 -0.0560
  981DOPE   C4A11507   7.611  30.743  12.491  0.5244  0.1844 -0.0007
  981DOPE   C1B11508   6.176  30.085  13.189 -0.3855 -0.0597 -0.0406
  981DOPE   D2B11509   5.873  30.351  13.042 -0.0355 -0.1499 -0.2911
  981DOPE   C3B11510   5.921  30.566  12.556  0.2012 -0.1282  0.0632
  981DOPE   C4B11511   6.172  30.738  12.166 -0.3310 -0.0278  0.1535
  982POSM   NC311512   7.251  32.573  14.376 -0.0558 -0.2214 -0.4795
  982POSM   PO411513   7.192  32.884  14.097  0.0767 -0.2436 -0.0464
  982POSM   AM111514   7.233  32.661  13.901  0.0355 -0.3251  0.2564
  982POSM   AM211515   7.074  32.509  13.734  0.1540 -0.3394  0.2164
  982POSM   T1A11516   7.523  32.430  13.555  0.1049  0.1473 -0.1044
  982POSM   C2A11517   7.608  32.132  13.192 -0.0115 -0.1162  0.0143
  982POSM   C3A11518   8.022  32.174  12.982  0.0271  0.0823  0.1621
  982POSM   C1B11519   7.016  32.692  13.485  0.0555  0.0193  0.0461
  982POSM   D2B11520   7.314  32.917  13.105 -0.1371  0.3103  0.1304
  982POSM   C3B11521   7.136  32.779  12.659  0.1093 -0.0385  0.1547
  982POSM   C4B11522   7.101  32.580  12.228  0.4892 -0.0091 -0.0442
  983DOPC   NC311523   5.671  29.136  13.639 -0.2237 -0.0757 -0.0589
  983DOPC   PO411524   5.908  29.357  13.867  0.3667  0.0885 -0.3404
  983DOPC   GL111525   6.072  29.361  13.484 -0.1449 -0.1708 -0.1295
  983DOPC   GL211526   5.914  29.669  13.362  0.1304  0.1369  0.0203
  983DOPC   C1A11527   6.340  29.630  13.157  0.0145  0.0938  0.0332
  983DOPC   D2A11528   6.540  29.677  12.745 -0.3019 -0.2486 -0.1411
  983DOPC   C3A11529   6.898  29.946  12.682 -0.1722  0.0013  0.3084
  983DOPC   C4A11530   7.106  30.021  12.287 -0.0611  0.0895 -0.0563
  983DOPC   C1B11531   5.835  29.398  12.981  0.1475  0.4177 -0.0124
  983DOPC   D2B11532   6.052  29.545  12.616  0.0379  0.4259  0.1835
  983DOPC   C3B11533   5.764  29.570  12.214  0.1133  0.0255 -0.1051
  983DOPC   C4B11534   5.588  29.380  11.775 -0.3573  0.0751  0.3620
  984DOPE   NH311535   7.130  33.828  14.384 -0.1048  0.3391 -0.3247
  984DOPE   PO411536   6.859  33.891  14.250 -0.3433 -0.0172  0.0505
  984DOPE   GL111537   6.728  33.725  13.911 -0.2215  0.1940  0.1221
  984DOPE   GL211538   6.694  34.006  13.797  0.1541  0.2405  0.1582
  984DOPE   C1A11539   6.782  33.620  13.474 -0.1926 -0.1586 -0.2021
  984DOPE   D2A11540   6.604  33.865  13.102 -0.4734 -0.0664 -0.0254
  984DOPE   C3A11541   6.481  33.660  12.711  0.2092  0.2731  0.0223
  984DOPE   C4A11542   6.418  33.308  12.362  0.0757 -0.2783  0.1992
  984DOPE   C1B11543   6.525  34.264  13.416  0.1759  0.0965  0.0220
  984DOPE   D2B11544   6.461  34.406  12.964  0.0600 -0.0948  0.1402
  984DOPE   C3B11545   6.558  34.134  12.619  0.3316  0.0046 -0.3174
  984DOPE   C4B11546   6.532  33.853  12.269 -0.3273  0.0236 -0.0678
  985POSM   NC311547   5.581  24.650  14.703  0.2093 -0.2572  0.0012
  985POSM   PO411548   5.583  24.799  14.303 -0.1084  0.4153 -0.2972
  985POSM   AM111549   5.448  24.627  14.039  0.1654 -0.1789 -0.1517
  985POSM   AM211550   5.195  24.665  13.936 -0.0132  0.2000 -0.0247
  985POSM   T1A11551   5.530  24.355  13.597 -0.1431 -0.1031  0.2663
  985POSM   C2A11552   5.477  24.350  13.181 -0.3119 -0.1389 -0.2111
  985POSM   C3A11553   5.251  24.168  12.810  0.0024  0.1060  0.0409
  985POSM   C1B11554   5.140  24.728  13.598  0.1529 -0.1568  0.0895
  985POSM   D2B11555   5.303  24.877  13.179 -0.0956 -0.2629 -0.1395
  985POSM   C3B11556   5.416  24.658  12.781  0.2757  0.0649 -0.1051
  985POSM   C4B11557   5.535  24.849  12.421 -0.0602 -0.2111 -0.0498
  986DOPE   NH311558   8.040  34.139  14.641 -0.0137  0.0857 -0.1108
  986DOPE   PO411559   8.002  33.920  14.436 -0.1123  0.1546  0.0339
  986DOPE   GL111560   8.171  33.924  14.048  0.4384 -0.0171  0.1429
  986DOPE   GL211561   7.863  33.855  13.900  0.0341 -0.1137  0.3468
  986DOPE   C1A11562   8.292  33.634  13.655 -0.2319 -0.0411  0.3165
  986DOPE   D2A11563   8.442  33.232  13.342 -0.2832 -0.1381  0.0525
  986DOPE   C3A11564   8.107  33.015  13.077  0.3245  0.0756  0.3458
  986DOPE   C4A11565   7.754  33.133  12.761 -0.0900 -0.2711  0.0338
  986DOPE   C1B11566   7.586  33.719  13.507  0.2293 -0.2572  0.0249
  986DOPE   D2B11567   7.222  33.768  13.282 -0.3749 -0.1171 -0.0346
  986DOPE   C3B11568   6.924  33.519  12.994 -0.0880 -0.1914 -0.1845
  986DOPE   C4B11569   6.750  33.170  12.716  0.2560  0.1551  0.0845
  987DOPE   NH311570  34.743  28.242  13.180  0.0919 -0.0151 -0.2721
  987DOPE   PO411571  34.492  28.309  13.015 -0.4134  0.3492  0.2234
  987DOPE   GL111572  34.405  28.450  12.738 -0.0814 -0.2505 -0.4231
  987DOPE   GL211573  34.152  28.385  12.623  0.0928 -0.2126  0.1667
  987DOPE   C1A11574  34.477  28.409  12.268  0.3326 -0.2257 -0.0047
  987DOPE   D2A11575  34.604  28.156  11.883  0.0320 -0.0888 -0.2164
  987DOPE   C3A11576  34.617  27.782  11.562  0.1187 -0.0942 -0.0619
  987DOPE   C4A11577  34.748  27.333  11.361  0.0327  0.0072 -0.2933
  987DOPE   C1B11578  34.067  28.152  12.259  0.4146  0.1327 -0.3226
  987DOPE   D2B11579  33.760  28.204  11.859 -0.4656  0.3106 -0.1922
  987DOPE   C3B11580  33.340  27.969  11.991 -0.0448  0.0297 -0.0265
  987DOPE   C4B11581  32.979  27.640  11.956  0.0053  0.1086 -0.1460
  988DOPE   NH311582   8.142  31.035  14.426 -0.1942 -0.0841  0.4275
  988DOPE   PO411583   8.014  31.003  14.138 -0.1179  0.0868 -0.1401
  988DOPE   GL111584   7.894  31.138  13.657  0.0638 -0.0381 -0.0660
  988DOPE   GL211585   7.590  30.940  13.626 -0.0089 -0.0050  0.0385
  988DOPE   C1A11586   7.692  31.415  13.312 -0.0292 -0.1598  0.2048
  988DOPE   D2A11587   7.643  31.637  12.895 -0.1409 -0.1430  0.2588
  988DOPE   C3A11588   7.980  31.342  12.699 -0.0311 -0.3955 -0.4793
  988DOPE   C4A11589   8.398  31.288  12.401 -0.2889  0.0842  0.2096
  988DOPE   C1B11590   7.342  31.046  13.285  0.0302 -0.0974 -0.0981
  988DOPE   D2B11591   7.278  30.848  12.922  0.3466 -0.3714  0.0724
  988DOPE   C3B11592   7.102  30.916  12.518  0.1726 -0.0683  0.1457
  988DOPE   C4B11593   7.249  30.924  12.095  0.4192 -0.2029 -0.2625
  989DOPE   NH311594   3.857  27.314  13.711 -0.1959  0.2124 -0.1185
  989DOPE   PO411595   3.814  26.973  13.780  0.0702 -0.1042 -0.2626
  989DOPE   GL111596   3.751  26.991  13.396 -0.0581  0.1281 -0.2750
  989DOPE   GL211597   4.046  27.059  13.320 -0.3177 -0.0718  0.0694
  989DOPE   C1A11598   3.701  27.050  12.962  0.0112  0.3405  0.1307
  989DOPE   D2A11599   3.336  26.805  12.743  0.1697  0.1577 -0.0816
  989DOPE   C3A11600   3.128  26.825  12.314 -0.1502  0.0122 -0.3046
  989DOPE   C4A11601   3.095  26.478  12.004 -0.1792 -0.1896  0.1872
  989DOPE   C1B11602   4.188  27.148  12.904 -0.1016  0.0872  0.0267
  989DOPE   D2B11603   4.174  27.084  12.445  0.2483 -0.2807  0.3115
  989DOPE   C3B11604   4.241  27.438  12.140  0.0550 -0.3353  0.1130
  989DOPE   C4B11605   4.662  27.593  12.200 -0.1585  0.1060  0.2010
  990POSM   NC311606   8.630  26.418  14.095 -0.0163  0.1880 -0.1869
  990POSM   PO411607   8.829  26.770  14.075 -0.2466 -0.1052  0.1841
  990POSM   AM111608   8.842  26.790  13.748 -0.0582 -0.1112 -0.0656
  990POSM   AM211609   8.733  26.956  13.581  0.0866  0.2566  0.0941
  990POSM   T1A11610   9.067  26.551  13.396  0.1939 -0.1942 -0.1483
  990POSM   C2A11611   9.346  26.556  13.038  0.0064  0.1818  0.1415
  990POSM   C3A11612   9.635  26.354  12.785 -0.1209  0.0922 -0.0668
  990POSM   C1B11613   8.973  27.075  13.377 -0.1568 -0.0235  0.1933
  990POSM   D2B11614   9.351  27.299  13.212  0.1920  0.1386 -0.1937
  990POSM   C3B11615   9.792  27.429  13.013 -0.1017  0.1464 -0.1611
  990POSM   C4B11616  10.188  27.556  12.870  0.0385  0.2666 -0.0106
  991DOPE   NH311617   8.273  29.892  14.389 -0.1823 -0.0607  0.2597
  991DOPE   PO411618   8.565  30.011  14.404  0.2424 -0.1636  0.5292
  991DOPE   GL111619   8.561  30.036  13.994 -0.3558 -0.0066  0.2377
  991DOPE   GL211620   8.298  29.969  13.885 -0.0348 -0.2265  0.0459
  991DOPE   C1A11621   8.499  30.475  13.897  0.1617 -0.1326  0.3113
  991DOPE   D2A11622   8.223  30.805  13.723 -0.0004  0.0412  0.0891
  991DOPE   C3A11623   8.189  31.055  13.333 -0.1758  0.0017  0.0816
  991DOPE   C4A11624   8.419  31.093  12.927 -0.1618 -0.3620  0.3109
  991DOPE   C1B11625   8.529  30.149  13.502  0.1132 -0.1111  0.1093
  991DOPE   D2B11626   8.470  30.583  13.320 -0.1079  0.3204  0.1934
  991DOPE   C3B11627   8.813  30.896  13.200 -0.1160 -0.3302  0.0033
  991DOPE   C4B11628   8.955  31.023  12.792  0.0207 -0.0113  0.0580
  992DOPE   NH311629  11.095  34.536  14.789  0.0866 -0.0738 -0.4198
  992DOPE   PO411630  10.876  34.403  14.583 -0.1432  0.1547 -0.5731
  992DOPE   GL111631  10.702  34.255  14.224 -0.2588 -0.1508 -0.4297
  992DOPE   GL211632  10.592  34.011  14.159  0.1339  0.1917 -0.3003
  992DOPE   C1A11633  10.856  34.150  13.797 -0.0155 -0.2218  0.3315
  992DOPE   D2A11634  10.840  33.916  13.443 -0.1102 -0.0015  0.4171
  992DOPE   C3A11635  10.585  33.709  13.125  0.0827  0.2192  0.2356
  992DOPE   C4A11636  10.394  33.506  12.747  0.1909  0.2741 -0.0674
  992DOPE   C1B11637  10.687  33.634  13.884  0.0748  0.1108 -0.0590
  992DOPE   D2B11638  10.832  33.401  13.487  0.1363 -0.1724  0.0018
  992DOPE   C3B11639  10.508  33.043  13.413  0.0190  0.0290  0.2560
  992DOPE   C4B11640  10.283  32.666  13.164  0.2374 -0.4388  0.1061
  993POSM   NC311641   9.629  27.557  14.053 -0.3982  0.0526  0.0765
  993POSM   PO411642   9.385  27.396  14.365 -0.2072 -0.0382 -0.0599
  993POSM   AM111643   9.256  27.264  14.108  0.2128 -0.1273 -0.2354
  993POSM   AM211644   9.246  27.057  13.875 -0.0415  0.0748  0.0798
  993POSM   T1A11645   9.096  27.499  13.697 -0.0594 -0.1354 -0.0642
  993POSM   C2A11646   8.937  27.599  13.269 -0.1254 -0.2515  0.2707
  993POSM   C3A11647   8.789  27.676  12.843 -0.1416  0.0902 -0.1854
  993POSM   C1B11648   9.514  27.202  13.683  0.1475  0.0095 -0.0992
  993POSM   D2B11649   9.930  27.299  13.563 -0.1059  0.0755 -0.0531
  993POSM   C3B11650  10.195  27.153  13.232 -0.2017  0.0761  0.0419
  993POSM   C4B11651  10.285  27.021  12.766 -0.0061 -0.1754  0.0358
  994DOPC   NC311652   1.456  34.227  13.535  0.1204 -0.1379 -0.1735
  994DOPC   PO411653   1.338  33.969  13.828  0.1612 -0.0522 -0.4075
  994DOPC   GL111654   1.351  33.657  13.506  0.3609  0.2981  0.0953
  994DOPC   GL211655   1.477  33.717  13.313  0.0960  0.3031  0.0116
  994DOPC   C1A11656   1.077  33.578  13.105 -0.1451 -0.0674 -0.1496
  994DOPC   D2A11657   0.926  33.746  12.682  0.0393  0.0849  0.0972
  994DOPC   C3A11658   0.988  33.603  12.190  0.1704  0.2153 -0.1005
  994DOPC   C4A11659   0.813  33.241  11.971  0.3772 -0.2118 -0.1512
  994DOPC   C1B11660   1.644  33.662  12.869  0.2195  0.0076 -0.0099
  994DOPC   D2B11661   1.351  33.626  12.494 -0.2741  0.1217  0.0731
  994DOPC   C3B11662   1.352  33.189  12.426  0.0670 -0.2163 -0.3943
  994DOPC   C4B11663   1.410  32.726  12.463 -0.0357 -0.1459 -0.0759
  995DOPE   NH311664   0.736  27.789  13.810 -0.2933 -0.1676  0.1424
  995DOPE   PO411665   0.933  27.562  13.747 -0.0657  0.2165 -0.2357
  995DOPE   GL111666   1.046  27.260  13.491 -0.1488  0.2413  0.1148
  995DOPE   GL211667   1.063  27.380  13.242 -0.1078 -0.1907  0.1518
  995DOPE   C1A11668   0.911  26.939  13.201  0.4114 -0.0661 -0.0408
  995DOPE   D2A11669   0.921  26.830  12.760 -0.3854  0.0244 -0.1279
  995DOPE   C3A11670   1.221  26.714  12.453 -0.0586 -0.0620 -0.0686
  995DOPE   C4A11671   1.341  26.585  12.015 -0.0759 -0.1149 -0.2227
  995DOPE   C1B11672   0.920  27.357  12.794 -0.1742  0.1176  0.2116
  995DOPE   D2B11673   0.700  27.434  12.415  0.0170 -0.2053  0.1356
  995DOPE   C3B11674   0.760  27.014  12.267 -0.5561 -0.1054 -0.1195
  995DOPE   C4B11675   0.568  26.577  12.439 -0.1279  0.0324 -0.1810
  996DOPC   NC311676  13.778  27.970  14.358 -0.1165  0.1230 -0.1692
  996DOPC   PO411677  13.958  27.695  14.144  0.1483  0.1327  0.1904
  996DOPC   GL111678  13.741  27.964  13.859  0.0614 -0.0874 -0.0772
  996DOPC   GL211679  13.510  28.147  13.907  0.0868  0.3404  0.2378
  996DOPC   C1A11680  13.632  27.962  13.416 -0.0740 -0.0855  0.0506
  996DOPC   D2A11681  13.892  27.856  13.050  0.3811 -0.0439 -0.1595
  996DOPC   C3A11682  13.788  27.882  12.634 -0.1422 -0.0828  0.1250
  996DOPC   C4A11683  13.670  27.976  12.204  0.0017 -0.0004 -0.1187
  996DOPC   C1B11684  13.272  28.333  13.528 -0.1029  0.0516  0.1422
  996DOPC   D2B11685  12.938  28.465  13.193 -0.0285 -0.1034  0.1282
  996DOPC   C3B11686  12.629  28.571  12.859  0.1947 -0.2091  0.3387
  996DOPC   C4B11687  12.197  28.472  12.934 -0.0692 -0.0415  0.0942
  997POSM   NC311688   1.512  23.485  14.490 -0.2156  0.1562 -0.0304
  997POSM   PO411689   1.843  23.642  14.368  0.2570 -0.1057 -0.0953
  997POSM   AM111690   1.814  23.764  14.057  0.0678 -0.1650  0.1733
  997POSM   AM211691   1.583  23.806  13.843  0.0244  0.2109 -0.0616
  997POSM   T1A11692   2.059  23.944  13.695 -0.0467 -0.0419  0.0926
  997POSM   C2A11693   1.951  24.016  13.232 -0.1618 -0.2249 -0.4589
  997POSM   C3A11694   1.929  23.866  12.743  0.1594 -0.1816  0.1416
  997POSM   C1B11695   1.587  23.713  13.539  0.2816 -0.1932  0.2645
  997POSM   D2B11696   1.738  23.574  13.102 -0.0161 -0.0245 -0.0959
  997POSM   C3B11697   2.164  23.505  13.046  0.0200 -0.0325 -0.0074
  997POSM   C4B11698   2.569  23.466  13.171  0.3852 -0.0709 -0.1649
  998DOPE   NH311699   6.462  25.014  14.180  0.2276 -0.1462  0.3012
  998DOPE   PO411700   6.262  25.160  13.970  0.1259 -0.0530 -0.0696
  998DOPE   GL111701   6.539  25.175  13.770  0.2598  0.0225 -0.2184
  998DOPE   GL211702   6.573  25.434  13.728  0.0416 -0.0335 -0.2966
  998DOPE   C1A11703   6.545  25.107  13.284 -0.3857 -0.3280 -0.0674
  998DOPE   D2A11704   6.493  25.393  12.932 -0.3522  0.0389 -0.0521
  998DOPE   C3A11705   6.781  25.379  12.549  0.1811 -0.1572 -0.0925
  998DOPE   C4A11706   6.700  25.473  12.129  0.0052  0.1084  0.0432
  998DOPE   C1B11707   6.291  25.551  13.392  0.1564 -0.2572  0.1663
  998DOPE   D2B11708   5.954  25.715  13.171  0.2629 -0.0238 -0.3305
  998DOPE   C3B11709   5.962  25.513  12.804  0.3351  0.2682  0.1333
  998DOPE   C4B11710   5.927  25.136  12.657  0.2000 -0.0988  0.1542
  999DOPE   NH311711   9.629  27.768  14.624  0.1563 -0.0708 -0.1698
  999DOPE   PO411712   9.565  27.994  14.357 -0.0605  0.0355 -0.1137
  999DOPE   GL111713   9.633  28.291  13.983 -0.0664 -0.3642  0.2666
  999DOPE   GL211714   9.755  28.003  13.859  0.2031  0.2227  0.2157
  999DOPE   C1A11715   9.656  28.395  13.567  0.0528  0.0263  0.2079
  999DOPE   D2A11716   9.548  28.264  13.178  0.0960 -0.0115  0.4679
  999DOPE   C3A11717   9.486  27.800  13.069  0.2003  0.0818  0.0648
  999DOPE   C4A11718   9.259  27.628  12.709  0.0276 -0.4375  0.0697
  999DOPE   C1B11719   9.804  27.910  13.411 -0.1905 -0.0743 -0.1946
  999DOPE   D2B11720   9.968  27.961  13.000  0.2511  0.1316 -0.0668
  999DOPE   C3B11721   9.814  27.719  12.641 -0.1829  0.1600 -0.0016
  999DOPE   C4B11722   9.670  27.310  12.502 -0.1219 -0.0848 -0.1619
 1000POSM   NC311723   5.588  26.655  13.932  0.0782 -0.0624 -0.2114
 1000POSM   PO411724   5.969  26.507  13.986 -0.1622  0.1283  0.1047
 1000POSM   AM111725   6.094  26.534  13.670 -0.1218  0.3450 -0.1508
 1000POSM   AM211726   6.375  26.529  13.622  0.1034 -0.2400  0.1952
 1000POSM   T1A11727   6.077  26.443  13.171 -0.4040  0.0806  0.0418
 1000POSM   C2A11728   5.986  26.520  12.658 -0.1345 -0.1665 -0.0024
 1000POSM   C3A11729   5.737  26.712  12.308  0.0800  0.1366  0.2622
 1000POSM   C1B11730   6.468  26.307  13.393  0.0415  0.2044  0.0833
 1000POSM   D2B11731   6.414  26.027  12.976  0.1532  0.0280  0.0370
 1000POSM   C3B11732   5.989  26.032  12.840  0.1607  0.1917 -0.0554
 1000POSM   C4B11733   5.580  25.852  12.770 -0.1329 -0.3010  0.0630
 1001DOPS   CNO11734   6.944  25.724  13.914  0.2131 -0.1919  0.1333
 1001DOPS   PO411735   6.886  26.077  13.892 -0.1633  0.1708  0.0445
 1001DOPS   GL111736   6.830  26.053  13.508 -0.2213  0.2840 -0.1628
 1001DOPS   GL211737   6.842  25.831  13.408  0.0754  0.1085 -0.2506
 1001DOPS   C1A11738   6.864  26.309  13.102  0.0469 -0.1409  0.0627
 1001DOPS   D2A11739   6.994  26.472  12.650 -0.0842 -0.0050  0.0616
 1001DOPS   C3A11740   6.954  26.164  12.292  0.0060  0.1035  0.0805
 1001DOPS   C4A11741   6.649  26.095  11.942  0.4011  0.1226 -0.2066
 1001DOPS   C1B11742   6.894  25.474  13.167 -0.1269  0.1086  0.0612
 1001DOPS   D2B11743   7.287  25.288  12.973 -0.1822 -0.0711  0.2683
 1001DOPS   C3B11744   7.549  25.411  12.611 -0.1840 -0.1372 -0.1004
 1001DOPS   C4B11745   7.740  25.333  12.195  0.0719 -0.1981  0.4051
 1002DOPC   NC311746   4.930   0.220  14.308 -0.0389  0.2660 -0.1074
 1002DOPC   PO411747   4.669  -0.063  14.340  0.0034  0.0846  0.1599
 1002DOPC   GL111748   4.792   0.004  13.935  0.2006  0.0321 -0.0722
 1002DOPC   GL211749   4.872  -0.214  13.747 -0.0348  0.0389 -0.3023
 1002DOPC   C1A11750   5.017   0.253  13.590 -0.2087 -0.0790 -0.0282
 1002DOPC   D2A11751   5.156   0.444  13.205  0.0273 -0.0731 -0.1981
 1002DOPC   C3A11752   5.465   0.574  12.891  0.1211 -0.0859  0.3901
 1002DOPC   C4A11753   5.809   0.735  12.644  0.0212  0.0057  0.0338
 1002DOPC   C1B11754   4.827  -0.086  13.283 -0.2495 -0.0112  0.1780
 1002DOPC   D2B11755   4.828   0.036  12.815 -0.4233 -0.2032  0.0295
 1002DOPC   C3B11756   4.898   0.486  12.683  0.1045 -0.0331  0.2400
 1002DOPC   C4B11757   5.180   0.699  12.469  0.0233  0.2357  0.4398
 1003POSM   NC311758   1.523  30.786  14.079 -0.1852  0.1906  0.0502
 1003POSM   PO411759   1.156  30.883  14.016  0.0752 -0.2223 -0.0857
 1003POSM   AM111760   1.116  30.915  13.732 -0.0936  0.4192 -0.4688
 1003POSM   AM211761   1.264  31.002  13.515 -0.0890  0.0979  0.0910
 1003POSM   T1A11762   0.821  31.016  13.359  0.1236 -0.2100  0.2960
 1003POSM   C2A11763   0.469  31.111  13.150 -0.4649 -0.3412 -0.0593
 1003POSM   C3A11764   0.228  31.170  12.785 -0.0900 -0.1063  0.2114
 1003POSM   C1B11765   1.423  31.089  13.212 -0.1129  0.0052 -0.1580
 1003POSM   D2B11766   1.591  31.102  12.755  0.2335  0.2242  0.1706
 1003POSM   C3B11767   1.829  30.711  12.609  0.1680  0.2442 -0.1030
 1003POSM   C4B11768   2.100  30.598  12.243 -0.1668  0.0737 -0.3584
 1004DOPE   NH311769   6.938  24.664  14.036 -0.0663  0.0615 -0.1028
 1004DOPE   PO411770   7.225  24.572  13.983 -0.0227 -0.1076  0.1727
 1004DOPE   GL111771   7.449  24.265  13.788 -0.4343  0.1257 -0.0329
 1004DOPE   GL211772   7.725  24.213  13.665  0.0639 -0.0376  0.0109
 1004DOPE   C1A11773   7.494  23.865  13.541  0.1154  0.2173 -0.1255
 1004DOPE   D2A11774   7.428  23.471  13.446  0.0627 -0.0759 -0.0455
 1004DOPE   C3A11775   7.305  23.347  12.979  0.0466 -0.1675 -0.0459
 1004DOPE   C4A11776   7.443  23.576  12.654  0.0112  0.1578  0.0979
 1004DOPE   C1B11777   7.712  24.184  13.226 -0.0334  0.2195  0.0585
 1004DOPE   D2B11778   7.358  24.149  12.847  0.1099 -0.2209  0.0080
 1004DOPE   C3B11779   7.442  24.363  12.474  0.0459  0.4236 -0.4124
 1004DOPE   C4B11780   7.330  24.330  12.032  0.0041 -0.0767 -0.4310
 1005DOPS   CNO11781   2.310  25.500  14.665 -0.1156 -0.2303  0.3607
 1005DOPS   PO411782   2.409  25.227  14.428 -0.1933 -0.0358 -0.0527
 1005DOPS   GL111783   2.400  25.053  13.988  0.4280  0.0651 -0.3554
 1005DOPS   GL211784   2.199  24.997  13.796  0.1151  0.0861 -0.0653
 1005DOPS   C1A11785   2.676  25.064  13.608 -0.1721  0.0498  0.0259
 1005DOPS   D2A11786   2.611  25.194  13.181  0.3124  0.0487 -0.0356
 1005DOPS   C3A11787   2.836  25.476  12.930 -0.3082  0.1542 -0.1974
 1005DOPS   C4A11788   2.993  25.613  12.513  0.1462 -0.0747  0.1742
 1005DOPS   C1B11789   2.347  24.571  13.775 -0.2426 -0.0349 -0.3579
 1005DOPS   D2B11790   2.802  24.446  13.859  0.1665  0.1328  0.1183
 1005DOPS   C3B11791   3.141  24.139  13.605 -0.0551 -0.0369 -0.1112
 1005DOPS   C4B11792   3.380  23.852  13.338 -0.1620  0.0580 -0.1031
 1006DOPS   CNO11793   7.877  34.638  14.643  0.2063 -0.0311 -0.1037
 1006DOPS   PO411794   7.910  34.995  14.562  0.1403  0.0278  0.0349
 1006DOPS   GL111795   8.126  34.739  14.217 -0.1193  0.2996 -0.2967
 1006DOPS   GL211796   8.056  34.890  14.059 -0.2700 -0.1160 -0.0239
 1006DOPS   C1A11797   8.583  34.792  14.033 -0.0615  0.1943  0.2114
 1006DOPS   D2A11798   8.791  34.613  13.649  0.1470  0.0833 -0.0640
 1006DOPS   C3A11799   9.244  34.758  13.586 -0.0403  0.0604  0.0164
 1006DOPS   C4A11800   9.638  34.800  13.831  0.3042  0.1581 -0.2855
 1006DOPS   C1B11801   8.158  34.738  13.589  0.0120 -0.0288 -0.1387
 1006DOPS   D2B11802   8.441  34.469  13.236  0.1929 -0.0795 -0.2291
 1006DOPS   C3B11803   8.023  34.377  12.932 -0.2947  0.1959  0.0081
 1006DOPS   C4B11804   7.728  34.144  12.637 -0.1473  0.1332  0.1546
 1007DOPE   NH311805  13.284  26.380  13.789 -0.0541  0.0584  0.0404
 1007DOPE   PO411806  13.036  26.278  13.939  0.0176  0.1070  0.2160
 1007DOPE   GL111807  12.939  26.170  13.503 -0.0313 -0.0658  0.2454
 1007DOPE   GL211808  12.935  26.395  13.303 -0.0849  0.1523 -0.1400
 1007DOPE   C1A11809  12.772  25.787  13.331  0.0844  0.1754 -0.1876
 1007DOPE   D2A11810  12.907  25.367  13.155 -0.0961 -0.2814 -0.1967
 1007DOPE   C3A11811  13.206  25.595  12.865 -0.0507  0.1605 -0.1925
 1007DOPE   C4A11812  13.436  25.660  12.443 -0.2466  0.0346 -0.5505
 1007DOPE   C1B11813  12.869  26.556  12.879 -0.1018 -0.0676 -0.4511
 1007DOPE   D2B11814  12.745  26.893  12.509 -0.0077 -0.1533  0.1366
 1007DOPE   C3B11815  12.743  26.625  12.110  0.0069  0.0780 -0.1933
 1007DOPE   C4B11816  12.992  26.357  11.811 -0.3760  0.1746  0.2572
 1008DOPC   NC311817   5.029  26.771  14.263 -0.0657  0.0686  0.1646
 1008DOPC   PO411818   5.199  26.437  14.178  0.1588  0.0890 -0.1548
 1008DOPC   GL111819   5.086  26.594  13.784  0.1877 -0.2935 -0.0091
 1008DOPC   GL211820   5.105  26.277  13.708 -0.0860 -0.1006  0.0463
 1008DOPC   C1A11821   4.783  26.775  13.485  0.2899  0.0058  0.1157
 1008DOPC   D2A11822   4.388  26.657  13.282 -0.1169 -0.1948  0.1922
 1008DOPC   C3A11823   4.450  26.670  12.816 -0.1080  0.1257  0.0393
 1008DOPC   C4A11824   4.642  26.684  12.416 -0.1607 -0.0578  0.4616
 1008DOPC   C1B11825   5.130  26.475  13.223  0.1616 -0.1741 -0.2192
 1008DOPC   D2B11826   5.136  26.613  12.813 -0.0680  0.0483 -0.0725
 1008DOPC   C3B11827   5.553  26.861  12.750 -0.1513 -0.1172 -0.0624
 1008DOPC   C4B11828   5.728  27.174  12.437  0.1014 -0.1673 -0.2458
 1009DOPS   CNO11829  12.244  28.552  14.386  0.0561  0.0864 -0.3068
 1009DOPS   PO411830  12.089  28.816  14.148 -0.1737  0.0874  0.1565
 1009DOPS   GL111831  11.791  28.903  13.872  0.0191  0.3748  0.3716
 1009DOPS   GL211832  11.991  28.757  13.662 -0.1358 -0.2444 -0.1708
 1009DOPS   C1A11833  11.585  28.994  13.426 -0.1180  0.1078 -0.2753
 1009DOPS   D2A11834  11.769  29.044  12.991 -0.1181 -0.0835 -0.3158
 1009DOPS   C3A11835  11.627  29.223  12.572 -0.0725  0.0008  0.0801
 1009DOPS   C4A11836  11.391  29.352  12.195  0.1865 -0.4012  0.1145
 1009DOPS   C1B11837  11.887  28.589  13.299 -0.4559 -0.0957  0.0583
 1009DOPS   D2B11838  11.507  28.551  13.080  0.2606  0.0133 -0.1949
 1009DOPS   C3B11839  11.617  28.683  12.655  0.1359 -0.0687 -0.0084
 1009DOPS   C4B11840  11.337  28.889  12.350 -0.0556  0.0720  0.2333
 1010DOPE   NH311841   2.981  32.385  14.098 -0.0462 -0.2079  0.0201
 1010DOPE   PO411842   2.669  32.410  13.992 -0.2613  0.0675 -0.4047
 1010DOPE   GL111843   2.708  32.600  13.669 -0.2875  0.1674  0.0679
 1010DOPE   GL211844   3.009  32.514  13.586 -0.1713 -0.0562 -0.1489
 1010DOPE   C1A11845   2.486  32.577  13.235 -0.0540  0.0111  0.0757
 1010DOPE   D2A11846   2.432  32.862  12.927 -0.0654 -0.0354  0.0132
 1010DOPE   C3A11847   2.453  32.722  12.532 -0.0666 -0.1048  0.2921
 1010DOPE   C4A11848   2.374  32.457  12.160 -0.1577  0.1581  0.0002
 1010DOPE   C1B11849   3.091  32.572  13.141 -0.0768 -0.2259  0.0942
 1010DOPE   D2B11850   2.791  32.494  12.806 -0.0402 -0.2266 -0.1058
 1010DOPE   C3B11851   2.906  32.455  12.383  0.2566 -0.1268 -0.3163
 1010DOPE   C4B11852   2.770  32.610  11.930 -0.1233 -0.2558  0.0502
 1011DOPE   NH311853   6.921  30.484  13.944  0.2267 -0.2572  0.0673
 1011DOPE   PO411854   7.231  30.459  13.967  0.1486  0.2281 -0.1908
 1011DOPE   GL111855   7.155  30.441  13.564 -0.3274  0.1514  0.1838
 1011DOPE   GL211856   6.903  30.438  13.468  0.3220 -0.0034  0.1195
 1011DOPE   C1A11857   7.418  30.491  13.208  0.1128  0.0107 -0.1724
 1011DOPE   D2A11858   7.793  30.331  12.952  0.1118 -0.2013  0.0449
 1011DOPE   C3A11859   7.744  30.085  12.557 -0.0327  0.0271 -0.1055
 1011DOPE   C4A11860   7.597  30.147  12.117 -0.3993 -0.0861  0.1653
 1011DOPE   C1B11861   6.842  30.793  13.205 -0.0166  0.2075  0.4995
 1011DOPE   D2B11862   6.612  30.924  12.871 -0.0102  0.1273  0.0617
 1011DOPE   C3B11863   6.564  30.723  12.472 -0.1148 -0.1327 -0.2304
 1011DOPE   C4B11864   6.893  30.475  12.250  0.0026 -0.1421 -0.0236
 1012DOPE   NH311865   7.357  29.597  14.020  0.3292 -0.0465  0.3172
 1012DOPE   PO411866   7.209  29.288  14.003 -0.1819  0.0123  0.0364
 1012DOPE   GL111867   7.275  29.289  13.581 -0.3151 -0.0408 -0.1876
 1012DOPE   GL211868   7.315  29.605  13.527  0.1534  0.0747 -0.0700
 1012DOPE   C1A11869   7.058  29.259  13.181  0.1957 -0.0644  0.0080
 1012DOPE   D2A11870   7.026  29.428  12.709  0.1269  0.0187  0.1368
 1012DOPE   C3A11871   6.889  29.114  12.323 -0.0257 -0.0857 -0.0261
 1012DOPE   C4A11872   6.879  28.733  12.063  0.0638 -0.2850 -0.1921
 1012DOPE   C1B11873   7.660  29.792  13.241  0.0411 -0.1287 -0.1144
 1012DOPE   D2B11874   7.878  29.633  12.877  0.0039 -0.0070  0.0730
 1012DOPE   C3B11875   8.353  29.684  12.818 -0.0451 -0.0551  0.3827
 1012DOPE   C4B11876   8.757  29.830  12.682 -0.0367 -0.2762 -0.0209
 1013DOPC   NC311877  10.428  32.068  14.430  0.0521 -0.2549  0.0879
 1013DOPC   PO411878  10.724  32.158  14.242 -0.0296  0.0706 -0.0318
 1013DOPC   GL111879  10.471  32.212  13.924 -0.1283 -0.4112  0.4482
 1013DOPC   GL211880  10.518  31.984  13.710 -0.3774  0.1549 -0.0945
 1013DOPC   C1A11881  10.180  32.333  13.578 -0.2561 -0.1373 -0.0307
 1013DOPC   D2A11882   9.851  32.298  13.229 -0.1331  0.4621  0.0651
 1013DOPC   C3A11883   9.913  32.379  12.795  0.1984 -0.1099  0.0103
 1013DOPC   C4A11884   9.860  32.699  12.443  0.1604 -0.0607 -0.1454
 1013DOPC   C1B11885  10.609  32.109  13.282 -0.2056 -0.0458 -0.0490
 1013DOPC   D2B11886  10.546  32.088  12.839 -0.1296  0.1092 -0.0538
 1013DOPC   C3B11887  10.919  32.258  12.689 -0.0026  0.0885  0.0579
 1013DOPC   C4B11888  11.316  32.443  12.510  0.1215 -0.1055 -0.2984
 1014POSM   NC311889  34.292  27.736  13.754  0.1104  0.1076 -0.5098
 1014POSM   PO411890  34.383  28.098  13.584  0.4015  0.0960  0.2293
 1014POSM   AM111891  34.244  28.030  13.300 -0.2378 -0.0795 -0.1801
 1014POSM   AM211892  34.217  27.809  13.159 -0.1490 -0.0639  0.0397
 1014POSM   T1A11893  33.801  28.031  13.065 -0.0160  0.1156 -0.2699
 1014POSM   C2A11894  33.751  28.026  12.609  0.0512 -0.3744 -0.0230
 1014POSM   C3A11895  33.544  28.264  12.287 -0.4058 -0.1100  0.0228
 1014POSM   C1B11896  34.130  27.698  12.814  0.0475  0.0317  0.1768
 1014POSM   D2B11897  33.933  27.660  12.378 -0.2096  0.1062  0.0483
 1014POSM   C3B11898  34.140  27.735  11.943  0.0500 -0.0235  0.1245
 1014POSM   C4B11899  34.175  28.023  11.633  0.0228  0.0370  0.0148
 1015POSM   NC311900  31.571  32.234  12.988 -0.0604 -0.1129  0.4118
 1015POSM   PO411901  31.872  32.260  13.210  0.0288 -0.0398 -0.0738
 1015POSM   AM111902  32.048  32.238  12.974  0.4055 -0.0432 -0.1439
 1015POSM   AM211903  32.291  32.390  12.863  0.0394  0.3341 -0.2995
 1015POSM   T1A11904  32.267  31.881  12.759  0.0890  0.2281  0.2212
 1015POSM   C2A11905  32.475  31.730  12.389 -0.2688 -0.0099 -0.0218
 1015POSM   C3A11906  32.848  31.467  12.223  0.2588  0.1930 -0.1273
 1015POSM   C1B11907  32.416  32.333  12.530 -0.1204  0.3987  0.0559
 1015POSM   D2B11908  32.613  32.203  12.179  0.2038 -0.1090  0.0635
 1015POSM   C3B11909  32.763  31.931  11.869 -0.1902 -0.3880  0.3590
 1015POSM   C4B11910  32.753  31.475  11.695  0.0960 -0.0563 -0.0955
 1016DOPC   NC311911   5.725  30.210  13.475  0.2000 -0.2807  0.0684
 1016DOPC   PO411912   5.471  29.946  13.655 -0.1695 -0.1324 -0.2150
 1016DOPC   GL111913   5.444  29.653  13.250  0.0117  0.1768 -0.2291
 1016DOPC   GL211914   5.228  29.716  13.155  0.1914 -0.0604  0.2008
 1016DOPC   C1A11915   5.707  29.872  12.934  0.0045  0.1525  0.0311
 1016DOPC   D2A11916   6.016  30.036  12.655 -0.1486 -0.0195  0.0535
 1016DOPC   C3A11917   5.950  30.162  12.205 -0.0941 -0.0878  0.3481
 1016DOPC   C4A11918   6.067  30.386  11.840 -0.0519  0.3768 -0.0805
 1016DOPC   C1B11919   5.236  29.772  12.683 -0.3635 -0.0420 -0.0676
 1016DOPC   D2B11920   5.020  30.137  12.460  0.0459  0.0023 -0.1498
 1016DOPC   C3B11921   4.673  30.115  12.144 -0.0122 -0.1909 -0.2292
 1016DOPC   C4B11922   4.530  30.260  11.703  0.0927  0.1801  0.1436
 1017DOPC   NC311923   7.146  28.813  14.132  0.2852 -0.2702 -0.1315
 1017DOPC   PO411924   7.466  28.919  14.303 -0.2509 -0.2409  0.3067
 1017DOPC   GL111925   7.723  28.712  14.060 -0.0454 -0.0751 -0.2184
 1017DOPC   GL211926   7.569  28.667  13.832  0.1574 -0.2901 -0.1330
 1017DOPC   C1A11927   8.049  28.920  13.850 -0.1929 -0.0538 -0.1695
 1017DOPC   D2A11928   8.256  28.967  13.463 -0.0858  0.3407  0.1261
 1017DOPC   C3A11929   8.113  29.248  13.084 -0.0346 -0.3762 -0.3290
 1017DOPC   C4A11930   8.142  29.248  12.619  0.0180 -0.1289  0.2883
 1017DOPC   C1B11931   7.677  28.926  13.455  0.1732  0.2821 -0.1947
 1017DOPC   D2B11932   7.902  28.818  13.117  0.1948  0.0020  0.0731
 1017DOPC   C3B11933   7.776  28.784  12.653  0.2183  0.2273  0.0128
 1017DOPC   C4B11934   7.811  28.902  12.240 -0.1198 -0.0515 -0.1256
 1018DOPS   CNO11935  32.664  30.992  13.199  0.2142 -0.3962 -0.0026
 1018DOPS   PO411936  32.926  30.958  13.447  0.1357 -0.2602 -0.0783
 1018DOPS   GL111937  32.974  30.752  13.074 -0.0960  0.1700 -0.2732
 1018DOPS   GL211938  33.131  30.958  12.959  0.1219  0.0564 -0.0237
 1018DOPS   C1A11939  32.729  30.763  12.619 -0.0709 -0.0652 -0.0923
 1018DOPS   D2A11940  32.680  30.803  12.152 -0.1414  0.1608 -0.0980
 1018DOPS   C3A11941  32.470  31.042  11.777 -0.1618 -0.0521  0.0395
 1018DOPS   C4A11942  32.286  31.327  11.510 -0.1800  0.1789  0.1125
 1018DOPS   C1B11943  33.118  31.076  12.522  0.3364  0.0089  0.0713
 1018DOPS   D2B11944  33.178  31.108  12.093  0.1516 -0.0991 -0.1259
 1018DOPS   C3B11945  33.091  30.638  11.895  0.0287 -0.0253  0.2753
 1018DOPS   C4B11946  33.155  30.384  11.531 -0.0182  0.2061 -0.2176
 1019DOPE   NH311947   8.031  25.572  14.139  0.0074 -0.0635 -0.3009
 1019DOPE   PO411948   7.868  25.525  13.871  0.3123 -0.2081 -0.0569
 1019DOPE   GL111949   7.842  25.674  13.525  0.1627 -0.3057 -0.1178
 1019DOPE   GL211950   8.154  25.541  13.365  0.2173  0.2908 -0.4418
 1019DOPE   C1A11951   7.492  25.897  13.288  0.0953  0.1560  0.0166
 1019DOPE   D2A11952   7.320  25.828  12.876  0.0838  0.0423 -0.2468
 1019DOPE   C3A11953   6.887  25.926  12.808 -0.0775 -0.2328 -0.0333
 1019DOPE   C4A11954   6.545  25.819  12.496 -0.0683 -0.1297  0.0862
 1019DOPE   C1B11955   8.212  25.246  13.042 -0.0381  0.0176  0.4691
 1019DOPE   D2B11956   7.996  25.349  12.641  0.0443 -0.2785  0.1770
 1019DOPE   C3B11957   8.200  25.134  12.275  0.1209 -0.2196 -0.2608
 1019DOPE   C4B11958   8.061  25.098  11.813  0.5183 -0.0713 -0.1457
 1020DOPS   CNO11959   7.558  30.247  14.475 -0.1736  0.0375  0.1492
 1020DOPS   PO411960   7.651  29.976  14.244  0.0863 -0.0107 -0.0841
 1020DOPS   GL111961   7.857  30.024  13.973 -0.0452 -0.0406 -0.2596
 1020DOPS   GL211962   7.857  29.786  13.748 -0.0723  0.1349  0.1713
 1020DOPS   C1A11963   7.914  30.226  13.595 -0.1279 -0.0205 -0.1462
 1020DOPS   D2A11964   7.847  30.619  13.402  0.0453 -0.0735 -0.1970
 1020DOPS   C3A11965   7.869  30.859  13.042  0.0916  0.4475 -0.0790
 1020DOPS   C4A11966   8.082  30.742  12.606 -0.1279 -0.2152 -0.1473
 1020DOPS   C1B11967   7.723  29.368  13.508  0.1041 -0.2103  0.1295
 1020DOPS   D2B11968   7.534  29.323  13.080 -0.0621 -0.0079 -0.0066
 1020DOPS   C3B11969   7.307  28.992  12.846  0.1117 -0.0716 -0.3655
 1020DOPS   C4B11970   6.839  28.932  12.883 -0.2380  0.2274 -0.0858
 1021DOPE   NH311971  12.603  25.018  10.101 -0.0974 -0.0061 -0.0780
 1021DOPE   PO411972  12.779  25.027  10.374 -0.2538 -0.0125  0.0934
 1021DOPE   GL111973  12.762  24.984  10.792  0.3075  0.1444 -0.3840
 1021DOPE   GL211974  12.947  24.800  10.817  0.1389 -0.0735 -0.0500
 1021DOPE   C1A11975  12.690  25.144  11.234  0.0008  0.1710 -0.1197
 1021DOPE   D2A11976  12.860  25.533  11.507 -0.1321 -0.2313  0.2858
 1021DOPE   C3A11977  12.865  25.626  11.961 -0.1245  0.2141  0.1100
 1021DOPE   C4A11978  12.964  25.738  12.452 -0.1437 -0.1143 -0.0817
 1021DOPE   C1B11979  12.927  24.736  11.327  0.1592 -0.0275  0.1185
 1021DOPE   D2B11980  12.891  25.068  11.685 -0.0893 -0.0956  0.1180
 1021DOPE   C3B11981  12.564  25.201  11.950 -0.0298 -0.1684  0.0733
 1021DOPE   C4B11982  12.265  25.074  12.349 -0.0444 -0.0017 -0.2117
 1022DOPS   CNO11983   4.159  30.231   9.506  0.1692 -0.0774  0.3673
 1022DOPS   PO411984   4.065  30.057   9.851  0.1991 -0.0965 -0.1714
 1022DOPS   GL111985   4.044  29.896  10.274  0.2595 -0.3291  0.3866
 1022DOPS   GL211986   4.272  30.031  10.471  0.0863  0.1139  0.0537
 1022DOPS   C1A11987   4.081  29.481  10.515  0.1094 -0.1343 -0.1048
 1022DOPS   D2A11988   3.832  29.182  10.739 -0.2539  0.1508  0.1109
 1022DOPS   C3A11989   3.444  29.416  10.817  0.0488  0.2057  0.0799
 1022DOPS   C4A11990   3.092  29.390  10.555  0.1683  0.2554 -0.0359
 1022DOPS   C1B11991   3.960  30.356  10.702 -0.1837 -0.0249  0.1120
 1022DOPS   D2B11992   3.625  30.394  10.989  0.2987 -0.4303 -0.1499
 1022DOPS   C3B11993   3.781  30.096  11.231 -0.2122  0.2814  0.0376
 1022DOPS   C4B11994   3.901  29.777  11.493 -0.2054 -0.2302 -0.0084
 1023DOPE   NH311995   9.271  25.245  10.741 -0.0303 -0.2622 -0.3774
 1023DOPE   PO411996   9.312  24.925  10.700  0.0017 -0.0091 -0.0753
 1023DOPE   GL111997   9.699  25.111  10.857  0.0585  0.2333  0.0542
 1023DOPE   GL211998   9.831  24.838  10.813 -0.0739 -0.0315 -0.2013
 1023DOPE   C1A11999   9.967  25.368  11.176  0.0900  0.1451 -0.1880
 1023DOPE   D2A12000  10.306  25.665  11.232 -0.1224 -0.0514  0.1236
 1023DOPE   C3A12001  10.250  25.850  11.621  0.3587 -0.0828  0.1454
 1023DOPE   C4A12002  10.210  25.982  12.019  0.1267 -0.0517 -0.1784
 1023DOPE   C1B12003  10.099  24.861  11.161 -0.0483 -0.1126  0.0688
 1023DOPE   D2B12004  10.295  24.493  11.398 -0.2436  0.1963 -0.0918
 1023DOPE   C3B12005  10.688  24.369  11.698 -0.0388  0.0273  0.2490
 1023DOPE   C4B12006  10.771  24.254  12.112 -0.4530 -0.4738  0.0861
 1024DOPE   NH312007  12.278  25.857   9.886 -0.0123 -0.1872 -0.0993
 1024DOPE   PO412008  12.559  25.964   9.949 -0.3586 -0.0451  0.2826
 1024DOPE   GL112009  12.378  25.945  10.332 -0.1798 -0.0923 -0.0395
 1024DOPE   GL212010  12.657  26.078  10.501  0.0031 -0.1279 -0.2829
 1024DOPE   C1A12011  12.235  25.889  10.799  0.0143 -0.2100 -0.1017
 1024DOPE   D2A12012  11.998  26.103  11.124 -0.1543 -0.1784 -0.0822
 1024DOPE   C3A12013  12.106  25.958  11.572  0.0921 -0.2117 -0.1176
 1024DOPE   C4A12014  12.212  25.664  11.921  0.2678  0.1505  0.2975
 1024DOPE   C1B12015  12.532  26.237  10.975  0.0319 -0.1876  0.0059
 1024DOPE   D2B12016  12.565  25.904  11.303  0.1305  0.0048 -0.2669
 1024DOPE   C3B12017  12.579  26.019  11.748  0.3287 -0.2946  0.1519
 1024DOPE   C4B12018  12.728  26.049  12.144 -0.4555  0.0470 -0.1284
 1025DOPC   NC312019   8.546  25.195  11.010  0.2708  0.1525  0.1512
 1025DOPC   PO412020   8.789  25.105  10.697  0.4918 -0.0610 -0.0958
 1025DOPC   GL112021   8.969  25.012  11.048  0.0773  0.0468  0.2500
 1025DOPC   GL212022   9.110  24.789  11.151 -0.0783  0.1401 -0.0391
 1025DOPC   C1A12023   8.984  25.192  11.474  0.1372  0.0318 -0.0762
 1025DOPC   D2A12024   9.205  25.350  11.884 -0.1753  0.1711  0.2542
 1025DOPC   C3A12025   9.410  25.669  12.198 -0.0122 -0.0902  0.0902
 1025DOPC   C4A12026   9.658  25.997  12.441  0.1173  0.2383 -0.0941
 1025DOPC   C1B12027   9.516  24.652  11.277  0.2366  0.0443  0.0664
 1025DOPC   D2B12028   9.799  24.557  11.659 -0.2664  0.0710  0.0821
 1025DOPC   C3B12029   9.830  24.616  12.102 -0.0726  0.2261  0.1732
 1025DOPC   C4B12030   9.959  24.865  12.452  0.0858 -0.1074  0.1617
 1026DOPC   NC312031  34.009  30.100   9.923  0.1874 -0.2636  0.2861
 1026DOPC   PO412032  34.226  30.322   9.688 -0.2253  0.1927  0.1843
 1026DOPC   GL112033  34.283  30.514  10.027 -0.2885 -0.4355 -0.3545
 1026DOPC   GL212034  34.126  30.498  10.219 -0.3446  0.0813  0.0362
 1026DOPC   C1A12035  34.408  30.075  10.263  0.1119  0.0537  0.2124
 1026DOPC   D2A12036  34.468  29.633  10.325 -0.0506 -0.0381 -0.1946
 1026DOPC   C3A12037  34.891  29.480  10.538  0.0610 -0.1254  0.0254
 1026DOPC   C4A12038  34.990  29.309  10.953  0.0541  0.1769 -0.2759
 1026DOPC   C1B12039  33.919  30.694  10.552 -0.2421  0.3020 -0.2177
 1026DOPC   D2B12040  33.923  31.116  10.767  0.0009 -0.3093  0.1523
 1026DOPC   C3B12041  34.361  31.302  10.870 -0.0336  0.2636 -0.0802
 1026DOPC   C4B12042  34.708  31.395  10.667 -0.1176 -0.0673  0.1759
 1027DOPE   NH312043  33.238  31.070   9.930  0.4749  0.0485 -0.0234
 1027DOPE   PO412044  33.006  30.872   9.827 -0.1288 -0.1993 -0.0021
 1027DOPE   GL112045  32.996  30.812  10.235 -0.1385  0.1297 -0.1214
 1027DOPE   GL212046  33.059  31.091  10.384 -0.1323  0.3904 -0.2887
 1027DOPE   C1A12047  33.038  30.625  10.636  0.0940  0.4915 -0.2779
 1027DOPE   D2A12048  33.014  30.469  11.097 -0.2031 -0.2185 -0.0739
 1027DOPE   C3A12049  32.873  30.781  11.471  0.1021 -0.4915  0.2056
 1027DOPE   C4A12050  33.090  31.182  11.535 -0.0860 -0.1752 -0.0590
 1027DOPE   C1B12051  33.092  31.314  10.807 -0.2449  0.2377  0.1121
 1027DOPE   D2B12052  33.055  31.599  11.163 -0.0252 -0.0955 -0.2706
 1027DOPE   C3B12053  32.822  31.930  11.373  0.0434 -0.0358 -0.5586
 1027DOPE   C4B12054  32.711  32.384  11.425 -0.1590  0.1273  0.0598
 1028DOPE   NH312055  13.752  31.513  10.054  0.2215  0.0037 -0.2169
 1028DOPE   PO412056  14.064  31.454  10.089  0.0952 -0.1093  0.0218
 1028DOPE   GL112057  14.207  31.326  10.443 -0.1623 -0.1041  0.0448
 1028DOPE   GL212058  14.219  31.524  10.730  0.1329 -0.0547 -0.0155
 1028DOPE   C1A12059  13.968  31.084  10.786 -0.4877 -0.0011 -0.0948
 1028DOPE   D2A12060  13.800  31.195  11.188  0.1592 -0.0352  0.0496
 1028DOPE   C3A12061  13.419  31.416  11.387 -0.1150 -0.0461  0.0492
 1028DOPE   C4A12062  13.397  31.886  11.340 -0.1723  0.3229 -0.3491
 1028DOPE   C1B12063  14.297  31.480  11.179  0.0509  0.0292 -0.2961
 1028DOPE   D2B12064  14.527  31.530  11.627 -0.1176 -0.1450  0.1768
 1028DOPE   C3B12065  14.222  31.656  11.992  0.1404 -0.0182  0.1086
 1028DOPE   C4B12066  13.911  31.502  12.305  0.4063  0.3354 -0.1248
 1029DOPE   NH312067   5.913  28.157  10.358 -0.0852  0.1420 -0.4245
 1029DOPE   PO412068   5.593  28.109  10.315  0.2147 -0.1056  0.0168
 1029DOPE   GL112069   5.600  28.193  10.705  0.2481 -0.2230 -0.4766
 1029DOPE   GL212070   5.495  28.488  10.701 -0.1393  0.0532  0.0278
 1029DOPE   C1A12071   5.742  28.228  11.183 -0.0391 -0.3456  0.3248
 1029DOPE   D2A12072   5.488  28.323  11.543  0.2124 -0.0420  0.3749
 1029DOPE   C3A12073   5.574  28.003  11.888 -0.0203 -0.0179 -0.0904
 1029DOPE   C4A12074   5.602  27.496  11.850  0.1455  0.3882 -0.0787
 1029DOPE   C1B12075   5.261  28.286  11.032  0.2649  0.6376 -0.3721
 1029DOPE   D2B12076   4.962  28.347  11.383  0.1419 -0.1115  0.2874
 1029DOPE   C3B12077   5.039  28.139  11.832 -0.2176  0.1373 -0.1652
 1029DOPE   C4B12078   5.084  27.980  12.249  0.1355 -0.0107  0.1736
 1030POSM   NC312079   1.219  34.434  10.557 -0.0082 -0.1006 -0.2327
 1030POSM   PO412080   1.620  34.267  10.483 -0.1662 -0.1327 -0.2099
 1030POSM   AM112081   1.594  34.231  10.813  0.1037 -0.3023  0.0004
 1030POSM   AM212082   1.540  34.462  10.969 -0.0930  0.0562  0.0327
 1030POSM   T1A12083   1.396  33.990  11.218 -0.1363  0.1276 -0.0756
 1030POSM   C2A12084   0.950  33.913  11.436  0.1565 -0.0738  0.2776
 1030POSM   C3A12085   0.696  33.636  11.732 -0.0112 -0.1405 -0.0505
 1030POSM   C1B12086   1.438  34.519  11.317 -0.0645  0.1176 -0.0493
 1030POSM   D2B12087   1.373  34.291  11.730 -0.1607 -0.0465 -0.1417
 1030POSM   C3B12088   1.693  34.326  12.087 -0.1575 -0.1139 -0.1950
 1030POSM   C4B12089   2.055  34.335  12.372 -0.1501 -0.1674 -0.0077
 1031DOPE   NH312090   5.126  32.445   9.926  0.0440 -0.0395 -0.0100
 1031DOPE   PO412091   4.844  32.614   9.965  0.2473 -0.1356 -0.0801
 1031DOPE   GL112092   4.727  32.427  10.349 -0.0865  0.0030 -0.2536
 1031DOPE   GL212093   4.746  32.616  10.562 -0.1658 -0.3331  0.0446
 1031DOPE   C1A12094   4.384  32.264  10.610  0.1324 -0.0590 -0.3224
 1031DOPE   D2A12095   3.980  32.117  10.880  0.0871 -0.1392  0.0653
 1031DOPE   C3A12096   3.567  31.925  10.778 -0.0588  0.2327  0.3744
 1031DOPE   C4A12097   3.271  31.640  10.765  0.1441  0.2845 -0.1720
 1031DOPE   C1B12098   4.880  32.443  10.982 -0.1915  0.0236 -0.3801
 1031DOPE   D2B12099   4.689  32.283  11.364 -0.0076  0.0398 -0.1071
 1031DOPE   C3B12100   4.889  32.634  11.605 -0.1200  0.1403 -0.0837
 1031DOPE   C4B12101   5.086  33.040  11.777  0.0781 -0.1946  0.1747
 1032POSM   NC312102   6.674  30.376   9.834  0.0257 -0.0322  0.1162
 1032POSM   PO412103   6.298  30.409   9.880  0.2065  0.0605  0.1829
 1032POSM   AM112104   6.248  30.416  10.193  0.1578 -0.4565  0.3253
 1032POSM   AM212105   6.059  30.540  10.400  0.3398 -0.1164 -0.0181
 1032POSM   T1A12106   6.400  30.281  10.629 -0.0649 -0.3378 -0.0651
 1032POSM   C2A12107   6.584  30.149  10.998 -0.0553 -0.3529 -0.0781
 1032POSM   C3A12108   6.833  29.708  11.063  0.1391  0.1960 -0.0180
 1032POSM   C1B12109   5.868  30.303  10.549  0.1759  0.0194  0.1622
 1032POSM   D2B12110   5.591  30.057  10.838 -0.1235  0.2547  0.1439
 1032POSM   C3B12111   5.357  30.158  11.275 -0.1029 -0.1536  0.0500
 1032POSM   C4B12112   5.145  30.135  11.674 -0.0167  0.1063  0.0023
 1033POSM   NC312113  34.078  23.393  10.063  0.1857  0.0874 -0.2594
 1033POSM   PO412114  34.463  23.377  10.107 -0.2321 -0.0925 -0.4382
 1033POSM   AM112115  34.420  23.515  10.464  0.0496 -0.1061  0.0003
 1033POSM   AM212116  34.294  23.712  10.649  0.0611  0.1420 -0.2602
 1033POSM   T1A12117  34.441  23.317  10.930  0.2487  0.2104 -0.1208
 1033POSM   C2A12118  34.250  23.230  11.357  0.2099  0.4876  0.0049
 1033POSM   C3A12119  34.277  22.907  11.746 -0.0076  0.3503 -0.3723
 1033POSM   C1B12120  34.281  23.777  10.977  0.0268  0.2127  0.1411
 1033POSM   D2B12121  34.141  23.749  11.429  0.2857  0.0973 -0.0496
 1033POSM   C3B12122  33.767  23.832  11.689 -0.0143 -0.0138  0.0194
 1033POSM   C4B12123  33.477  24.049  11.989  0.0569 -0.0634  0.0156
 1034DOPC   NC312124   8.935  31.886  10.438 -0.3560  0.2521 -0.1241
 1034DOPC   PO412125   9.083  32.029  10.804 -0.1330 -0.1638 -0.3547
 1034DOPC   GL112126   8.958  32.142  11.118 -0.2574 -0.0644 -0.3340
 1034DOPC   GL212127   8.969  31.854  11.279  0.1312 -0.1028 -0.0249
 1034DOPC   C1A12128   8.972  32.394  11.492  0.0421 -0.0722 -0.1242
 1034DOPC   D2A12129   9.086  32.440  11.926  0.3241  0.1727 -0.3972
 1034DOPC   C3A12130   9.022  32.757  12.274 -0.0475  0.0754  0.3663
 1034DOPC   C4A12131   8.827  33.121  12.517  0.2807  0.3564  0.1747
 1034DOPC   C1B12132   8.886  31.539  11.605 -0.0847 -0.1616 -0.0430
 1034DOPC   D2B12133   8.744  31.444  11.993  0.2182 -0.1687 -0.2178
 1034DOPC   C3B12134   8.992  31.164  12.248 -0.0308  0.1947 -0.0268
 1034DOPC   C4B12135   9.121  30.776  12.347  0.1292 -0.3591 -0.0584
 1035DOPC   NC312136   7.187  29.587  10.449  0.1021  0.3042  0.0475
 1035DOPC   PO412137   7.532  29.666  10.335 -0.0756  0.0388 -0.3305
 1035DOPC   GL112138   7.723  29.830  10.665 -0.2204  0.1152  0.1997
 1035DOPC   GL212139   7.896  29.547  10.729  0.0214 -0.3793  0.0137
 1035DOPC   C1A12140   7.745  29.905  11.107 -0.0734  0.0235 -0.2078
 1035DOPC   D2A12141   7.880  30.019  11.442  0.1525 -0.0695  0.1283
 1035DOPC   C3A12142   7.973  30.379  11.730 -0.1797  0.0726  0.2632
 1035DOPC   C4A12143   7.834  30.716  12.051  0.2428 -0.2665 -0.1405
 1035DOPC   C1B12144   7.750  29.419  11.113 -0.0071 -0.2102  0.1807
 1035DOPC   D2B12145   7.753  29.539  11.573  0.5027  0.1553  0.0913
 1035DOPC   C3B12146   7.709  29.569  12.046  0.0608 -0.0500  0.1256
 1035DOPC   C4B12147   7.981  29.725  12.412 -0.1030 -0.2899 -0.1217
 1036DOPC   NC312148   2.343  31.600  10.182 -0.1002  0.1742  0.1189
 1036DOPC   PO412149   2.676  31.819  10.226  0.0582  0.2412  0.0654
 1036DOPC   GL112150   2.603  31.659  10.581 -0.1339 -0.4395 -0.1860
 1036DOPC   GL212151   2.773  31.817  10.771  0.1826 -0.1096 -0.2204
 1036DOPC   C1A12152   2.568  31.321  10.883 -0.1269 -0.2758 -0.0296
 1036DOPC   D2A12153   2.312  31.021  11.084  0.1381  0.1943 -0.2486
 1036DOPC   C3A12154   2.455  30.800  11.456  0.2096  0.1177 -0.0204
 1036DOPC   C4A12155   2.791  30.614  11.702  0.2510  0.2028 -0.1606
 1036DOPC   C1B12156   2.531  31.876  11.159  0.1659  0.0150 -0.1547
 1036DOPC   D2B12157   2.400  31.779  11.577 -0.1951  0.1886 -0.0670
 1036DOPC   C3B12158   2.147  32.005  11.866 -0.1102 -0.0180  0.6323
 1036DOPC   C4B12159   1.791  31.985  12.200 -0.2127  0.2140  0.0872
 1037DOPE   NH312160   3.573  24.701  10.579  0.1107  0.0550  0.0906
 1037DOPE   PO412161   3.862  24.564  10.667 -0.0145  0.2366 -0.0664
 1037DOPE   GL112162   3.755  24.557  11.067 -0.6202  0.0400  0.1561
 1037DOPE   GL212163   3.520  24.717  11.178  0.0790  0.0246  0.1292
 1037DOPE   C1A12164   3.688  24.209  11.415 -0.0803  0.0557 -0.1238
 1037DOPE   D2A12165   3.840  23.751  11.603  0.1774 -0.0155  0.2937
 1037DOPE   C3A12166   3.762  23.679  12.050 -0.0716  0.0752  0.0117
 1037DOPE   C4A12167   3.851  23.723  12.489 -0.0938 -0.1566  0.0956
 1037DOPE   C1B12168   3.313  25.090  11.292 -0.2278 -0.2135 -0.0623
 1037DOPE   D2B12169   3.072  25.343  11.592  0.1195  0.2566  0.0061
 1037DOPE   C3B12170   3.279  25.384  11.972 -0.3063  0.0790 -0.2781
 1037DOPE   C4B12171   3.534  25.409  12.368  0.2547 -0.3042  0.0043
 1038POSM   NC312172   1.879  22.481  10.819  0.2580 -0.0118  0.1118
 1038POSM   PO412173   2.068  22.130  10.919 -0.0593 -0.1284  0.1707
 1038POSM   AM112174   1.920  22.073  11.209 -0.0713  0.2052 -0.4033
 1038POSM   AM212175   2.066  22.047  11.465 -0.2965 -0.1360  0.0062
 1038POSM   T1A12176   1.573  22.185  11.585 -0.2779  0.3109  0.2736
 1038POSM   C2A12177   1.496  22.095  12.035  0.1440  0.1492  0.1529
 1038POSM   C3A12178   1.236  22.197  12.395 -0.1663 -0.1280 -0.1606
 1038POSM   C1B12179   2.036  22.057  11.773  0.1284 -0.3849 -0.1280
 1038POSM   D2B12180   2.020  22.154  12.229 -0.0016 -0.1180  0.1525
 1038POSM   C3B12181   1.728  22.423  12.443 -0.0462 -0.0836 -0.1889
 1038POSM   C4B12182   1.451  22.366  12.784  0.0367 -0.0203  0.0530
 1039DOPE   NH312183   2.986  33.420  10.507 -0.1978  0.1464  0.0287
 1039DOPE   PO412184   3.070  33.088  10.443  0.0569  0.1393 -0.0259
 1039DOPE   GL112185   2.983  32.924  10.815  0.2359 -0.2969 -0.3764
 1039DOPE   GL212186   3.279  32.818  10.894  0.2612  0.1244 -0.4079
 1039DOPE   C1A12187   3.004  32.649  11.235  0.2714  0.0759 -0.4106
 1039DOPE   D2A12188   3.143  32.456  11.585 -0.1535  0.1184  0.0417
 1039DOPE   C3A12189   3.110  32.193  11.902  0.0673  0.0548  0.3116
 1039DOPE   C4A12190   2.994  31.963  12.301 -0.0751 -0.1337 -0.1408
 1039DOPE   C1B12191   3.681  32.829  11.050 -0.0811 -0.2631  0.3057
 1039DOPE   D2B12192   4.028  32.948  11.248 -0.0486  0.2768  0.1072
 1039DOPE   C3B12193   3.950  33.130  11.654  0.1695  0.1210  0.2364
 1039DOPE   C4B12194   3.622  33.219  11.967  0.1156  0.0893 -0.0952
 1040DOPC   NC312195  10.225  24.953  10.587  0.2176  0.0400  0.2069
 1040DOPC   PO412196  10.102  24.656  10.403  0.1438 -0.0472  0.0809
 1040DOPC   GL112197  10.113  24.508  10.734  0.1020  0.3706  0.0883
 1040DOPC   GL212198   9.993  24.354  10.949  0.0723  0.0978  0.3071
 1040DOPC   C1A12199  10.536  24.550  10.977  0.2380  0.1705  0.1231
 1040DOPC   D2A12200  10.887  24.595  11.306 -0.1266 -0.1521  0.0468
 1040DOPC   C3A12201  11.099  24.888  11.578 -0.0635 -0.0081  0.1418
 1040DOPC   C4A12202  11.263  25.391  11.664 -0.0399 -0.0514 -0.3036
 1040DOPC   C1B12203   9.926  24.127  11.331  0.0775  0.1072  0.0304
 1040DOPC   D2B12204   9.755  23.682  11.409  0.0434  0.2963 -0.2172
 1040DOPC   C3B12205   9.962  23.445  11.751 -0.1468 -0.0943  0.0015
 1040DOPC   C4B12206  10.148  23.552  12.122  0.5873 -0.1136 -0.0506
 1041POSM   NC312207   8.598  23.020  10.495  0.2461 -0.0673  0.1180
 1041POSM   PO412208   8.363  23.320  10.609  0.1220  0.1868 -0.0534
 1041POSM   AM112209   8.091  23.241  10.764 -0.3281  0.0665  0.0001
 1041POSM   AM212210   7.903  23.415  10.876 -0.1775 -0.2647  0.3053
 1041POSM   T1A12211   7.992  22.971  11.172  0.2538 -0.1014 -0.0940
 1041POSM   C2A12212   7.951  23.025  11.643 -0.1741  0.2258  0.0060
 1041POSM   C3A12213   7.954  23.021  12.129 -0.2424 -0.0859  0.0316
 1041POSM   C1B12214   7.892  23.511  11.202  0.1608 -0.3590 -0.1258
 1041POSM   D2B12215   7.800  23.500  11.669  0.0746  0.1035  0.0216
 1041POSM   C3B12216   7.553  23.265  11.896  0.4215  0.0771  0.1196
 1041POSM   C4B12217   7.503  23.222  12.329 -0.2344  0.2946 -0.0041
 1042DOPE   NH312218   8.267  28.341  10.539  0.1124 -0.4177 -0.3560
 1042DOPE   PO412219   8.431  28.114  10.657 -0.1148  0.0911  0.1678
 1042DOPE   GL112220   8.487  28.039  11.029 -0.0221 -0.0002  0.2620
 1042DOPE   GL212221   8.341  27.901  11.221  0.0390  0.2186 -0.0100
 1042DOPE   C1A12222   8.333  28.365  11.334  0.2035  0.1014 -0.2185
 1042DOPE   D2A12223   8.147  28.777  11.413 -0.2049 -0.0557 -0.2334
 1042DOPE   C3A12224   8.485  29.043  11.636 -0.0338 -0.2564  0.1358
 1042DOPE   C4A12225   8.758  29.281  11.450 -0.2275  0.1032 -0.0804
 1042DOPE   C1B12226   8.162  27.842  11.655  0.0061 -0.2092  0.0561
 1042DOPE   D2B12227   7.953  27.860  12.068 -0.0892 -0.1420  0.1510
 1042DOPE   C3B12228   7.972  27.905  12.528 -0.0229  0.2126 -0.0019
 1042DOPE   C4B12229   8.203  28.055  12.867 -0.2790 -0.4715  0.0627
 1043DOPE   NH312230  31.599  27.382   9.047 -0.0040  0.0402  0.2981
 1043DOPE   PO412231  31.718  27.228   9.301 -0.0963  0.3033 -0.1134
 1043DOPE   GL112232  31.673  27.451   9.632 -0.5554 -0.2387  0.0275
 1043DOPE   GL212233  31.638  27.197   9.796 -0.0127 -0.2107  0.0933
 1043DOPE   C1A12234  31.637  27.672  10.028 -0.2507  0.1884 -0.1115
 1043DOPE   D2A12235  31.749  27.574  10.464 -0.3922 -0.0995 -0.1547
 1043DOPE   C3A12236  31.825  27.782  10.849  0.2448  0.2899  0.0716
 1043DOPE   C4A12237  31.930  27.762  11.315 -0.0246  0.1102 -0.0447
 1043DOPE   C1B12238  31.939  27.135  10.175 -0.0276  0.4439  0.2283
 1043DOPE   D2B12239  32.155  26.893  10.513  0.2710  0.1836  0.0493
 1043DOPE   C3B12240  32.041  26.621  10.877 -0.2534 -0.0853  0.1840
 1043DOPE   C4B12241  32.084  26.587  11.368 -0.0464 -0.0282  0.3442
 1044DOPC   NC312242   1.780  31.245   9.970 -0.3663 -0.0940 -0.0609
 1044DOPC   PO412243   1.877  31.637   9.943  0.0585 -0.0150 -0.3915
 1044DOPC   GL112244   1.929  31.743  10.418 -0.1325  0.0321  0.1604
 1044DOPC   GL212245   1.850  31.470  10.451 -0.1165  0.2650 -0.3827
 1044DOPC   C1A12246   2.172  31.602  10.799 -0.0515  0.2322 -0.2534
 1044DOPC   D2A12247   2.209  31.473  11.271 -0.0705  0.1610  0.1613
 1044DOPC   C3A12248   1.913  31.192  11.427 -0.1498 -0.2302  0.3073
 1044DOPC   C4A12249   1.471  31.350  11.582  0.1991 -0.1632 -0.1148
 1044DOPC   C1B12250   1.703  31.173  10.743  0.0745  0.2808  0.0166
 1044DOPC   D2B12251   1.745  30.907  11.120 -0.0638  0.1038 -0.0002
 1044DOPC   C3B12252   1.484  30.853  11.507 -0.3392 -0.1165 -0.5992
 1044DOPC   C4B12253   1.365  30.735  11.953  0.1544 -0.2142  0.1028
 1045DOPE   NH312254   0.951  29.964   9.609  0.0811  0.1636  0.0155
 1045DOPE   PO412255   0.642  29.901   9.743  0.1398  0.0941  0.1810
 1045DOPE   GL112256   0.630  30.033  10.107  0.1382  0.1531  0.1659
 1045DOPE   GL212257   0.710  29.698  10.222  0.1380  0.2335  0.1021
 1045DOPE   C1A12258   0.541  30.072  10.562 -0.4444  0.0168 -0.3985
 1045DOPE   D2A12259   0.306  30.031  10.982 -0.0469 -0.1231  0.2787
 1045DOPE   C3A12260   0.287  30.346  11.315 -0.0980  0.0073  0.0884
 1045DOPE   C4A12261   0.184  30.600  11.707 -0.1154 -0.2827 -0.3382
 1045DOPE   C1B12262   0.662  29.569  10.628  0.0312 -0.0247 -0.1100
 1045DOPE   D2B12263   0.624  29.600  11.057  0.3152 -0.2856  0.3461
 1045DOPE   C3B12264   0.530  29.892  11.420  0.2341  0.0208 -0.1006
 1045DOPE   C4B12265   0.564  30.268  11.683  0.0988 -0.4092 -0.2363
 1046POSM   NC312266   6.180  26.972  10.389 -0.1135  0.3812  0.1330
 1046POSM   PO412267   5.888  27.166  10.276  0.1760 -0.2013  0.4081
 1046POSM   AM112268   5.858  27.316  10.525 -0.1805 -0.3720 -0.2508
 1046POSM   AM212269   5.843  27.648  10.629 -0.0800  0.1753 -0.0465
 1046POSM   T1A12270   5.681  27.305  10.999 -0.4387  0.1669 -0.0126
 1046POSM   C2A12271   5.421  27.292  11.390 -0.0358  0.1070  0.2253
 1046POSM   C3A12272   5.180  27.178  11.799  0.0387  0.5516  0.0872
 1046POSM   C1B12273   5.964  27.873  10.839  0.0705 -0.1158  0.1538
 1046POSM   D2B12274   6.171  28.240  10.975 -0.2309 -0.0748 -0.2265
 1046POSM   C3B12275   6.620  28.193  11.042  0.1900 -0.1627  0.0885
 1046POSM   C4B12276   7.058  27.985  10.979  0.1783 -0.0301  0.0318
 1047DOPC   NC312277   9.294  29.435  10.733  0.2766  0.1815  0.1315
 1047DOPC   PO412278   9.697  29.504  10.770 -0.0414  0.2899  0.3958
 1047DOPC   GL112279   9.682  29.467  11.154  0.0064  0.2559 -0.0742
 1047DOPC   GL212280   9.905  29.197  11.124 -0.2237 -0.0004  0.0778
 1047DOPC   C1A12281   9.537  29.755  11.506 -0.2181  0.2139 -0.0422
 1047DOPC   D2A12282   9.702  29.732  11.935  0.0633 -0.0562  0.1622
 1047DOPC   C3A12283   9.851  29.907  12.363 -0.2461 -0.0372  0.0631
 1047DOPC   C4A12284  10.006  30.086  12.723 -0.1493 -0.2299  0.0121
 1047DOPC   C1B12285   9.696  29.036  11.489 -0.2213 -0.0943 -0.0735
 1047DOPC   D2B12286   9.584  29.282  11.839 -0.1643 -0.1746  0.1133
 1047DOPC   C3B12287   9.664  29.394  12.289  0.0160 -0.0211  0.2318
 1047DOPC   C4B12288   9.432  29.710  12.611 -0.3000  0.0191  0.0968
 1048POSM   NC312289   7.693  32.071  10.102  0.0243 -0.0935 -0.0146
 1048POSM   PO412290   8.009  31.751  10.101  0.0490 -0.1662 -0.2739
 1048POSM   AM112291   8.072  31.750  10.428  0.1775 -0.2470 -0.0145
 1048POSM   AM212292   8.179  31.571  10.559  0.1804 -0.2403  0.2783
 1048POSM   T1A12293   7.869  31.881  10.837 -0.1265  0.0748  0.0943
 1048POSM   C2A12294   7.753  32.125  11.187 -0.2730  0.2206 -0.0335
 1048POSM   C3A12295   7.590  32.050  11.628  0.2182 -0.1736 -0.1830
 1048POSM   C1B12296   8.204  31.498  10.901 -0.0492 -0.0606  0.1295
 1048POSM   D2B12297   8.512  31.544  11.270 -0.0006 -0.1521  0.3168
 1048POSM   C3B12298   8.371  31.492  11.760  0.0093 -0.0717  0.3902
 1048POSM   C4B12299   8.083  31.207  11.997 -0.1322  0.0481 -0.0179
 1049DOPE   NH312300   2.509  22.140  10.617 -0.0021 -0.2579  0.2200
 1049DOPE   PO412301   2.781  22.285  10.664  0.0031  0.0585 -0.0887
 1049DOPE   GL112302   2.794  22.464  11.023 -0.1076 -0.4960 -0.0292
 1049DOPE   GL212303   2.937  22.689  11.078 -0.2532 -0.1203 -0.0379
 1049DOPE   C1A12304   2.537  22.431  11.441  0.2305 -0.1101  0.1103
 1049DOPE   D2A12305   2.519  22.264  11.899  0.1182 -0.0930 -0.0258
 1049DOPE   C3A12306   2.790  22.374  12.260  0.1525 -0.1817 -0.1327
 1049DOPE   C4A12307   2.795  22.613  12.638  0.2403 -0.0979  0.0853
 1049DOPE   C1B12308   2.895  22.825  11.515 -0.1690  0.2013 -0.2559
 1049DOPE   D2B12309   2.724  22.748  11.919 -0.1698  0.2083  0.1534
 1049DOPE   C3B12310   2.875  23.030  12.320 -0.3819 -0.2260  0.1804
 1049DOPE   C4B12311   2.668  23.112  12.731  0.1397 -0.0529 -0.0273
 1050DOPC   NC312312   8.095  26.085  10.960  0.1467 -0.0144  0.1105
 1050DOPC   PO412313   8.071  25.773  10.674  0.0434 -0.1006  0.0905
 1050DOPC   GL112314   8.012  25.635  11.062 -0.3705 -0.1214 -0.0278
 1050DOPC   GL212315   8.262  25.572  11.203 -0.1430 -0.2004  0.1213
 1050DOPC   C1A12316   7.808  25.385  11.418  0.3776 -0.1234 -0.1733
 1050DOPC   D2A12317   7.465  25.095  11.623  0.0564 -0.1508  0.2847
 1050DOPC   C3A12318   7.664  24.841  11.974 -0.1855 -0.1434 -0.1477
 1050DOPC   C4A12319   7.682  24.800  12.494 -0.0106  0.1347 -0.2007
 1050DOPC   C1B12320   8.687  25.715  11.396  0.0491 -0.2032  0.0740
 1050DOPC   D2B12321   9.121  25.746  11.574 -0.1273 -0.1328 -0.1794
 1050DOPC   C3B12322   9.004  25.914  12.000  0.0820  0.1168 -0.2044
 1050DOPC   C4B12323   8.750  26.160  12.343 -0.1341  0.2043 -0.1162
 1051DOPE   NH312324  12.845  24.169  10.145 -0.0601  0.1676  0.1550
 1051DOPE   PO412325  12.718  23.900  10.199  0.2469  0.1414  0.1672
 1051DOPE   GL112326  12.520  23.652  10.386 -0.0886 -0.1733  0.2190
 1051DOPE   GL212327  12.251  23.741  10.322 -0.0581 -0.2345  0.3408
 1051DOPE   C1A12328  12.372  23.538  10.821 -0.0433  0.0962  0.3269
 1051DOPE   D2A12329  12.313  23.073  10.990 -0.1585 -0.1514 -0.0097
 1051DOPE   C3A12330  12.365  23.041  11.446 -0.3138 -0.2721 -0.0347
 1051DOPE   C4A12331  12.602  22.845  11.792 -0.0884 -0.1293 -0.0759
 1051DOPE   C1B12332  11.984  23.795  10.666  0.1513  0.2037  0.3587
 1051DOPE   D2B12333  11.710  23.542  10.968  0.3843  0.3519  0.2627
 1051DOPE   C3B12334  11.506  23.428  11.378  0.1164  0.0951 -0.1791
 1051DOPE   C4B12335  11.207  23.706  11.579  0.0504  0.1441 -0.2469
 1052POSM   NC312336   3.254  28.931   9.543 -0.2555  0.1475  0.2964
 1052POSM   PO412337   3.590  29.132   9.628 -0.1754 -0.1520 -0.1369
 1052POSM   AM112338   3.542  29.235   9.973 -0.3487  0.1601 -0.0815
 1052POSM   AM212339   3.458  29.123  10.199  0.4413 -0.1116 -0.1206
 1052POSM   T1A12340   3.567  29.624  10.287 -0.1545 -0.0232  0.0830
 1052POSM   C2A12341   3.460  29.960  10.606  0.2381 -0.0842  0.1669
 1052POSM   C3A12342   3.422  29.832  11.067 -0.1238  0.0907 -0.2984
 1052POSM   C1B12343   3.366  28.957  10.479 -0.2633  0.3612 -0.2535
 1052POSM   D2B12344   3.468  28.896  10.982  0.0228 -0.0555  0.2357
 1052POSM   C3B12345   3.366  29.063  11.437  0.1404  0.3105  0.0247
 1052POSM   C4B12346   3.530  29.337  11.760 -0.4075 -0.1420  0.2754
 1053DOPC   NC312347   7.160  29.094   9.881 -0.0810  0.3534  0.1918
 1053DOPC   PO412348   7.261  28.870  10.191  0.3294  0.0350  0.1414
 1053DOPC   GL112349   7.277  29.114  10.502 -0.1026 -0.0192  0.0021
 1053DOPC   GL212350   7.537  29.220  10.565  0.0607  0.1799  0.0065
 1053DOPC   C1A12351   7.257  28.955  10.955  0.3019 -0.1227  0.1952
 1053DOPC   D2A12352   7.118  28.950  11.406 -0.0935 -0.2274  0.2305
 1053DOPC   C3A12353   7.336  28.759  11.814  0.1692 -0.1496  0.2134
 1053DOPC   C4A12354   7.351  28.965  12.263  0.1685  0.5630  0.5007
 1053DOPC   C1B12355   7.269  29.388  10.897 -0.0257 -0.1576  0.0527
 1053DOPC   D2B12356   7.254  29.443  11.354 -0.2406  0.0012  0.2506
 1053DOPC   C3B12357   7.187  29.231  11.795  0.1374  0.2583 -0.1874
 1053DOPC   C4B12358   7.225  29.415  12.214 -0.0582  0.1221  0.2696
 1054POSM   NC312359   7.256  25.126  10.565  0.2578 -0.2739 -0.3201
 1054POSM   PO412360   7.255  25.483  10.533 -0.0561  0.2346  0.0777
 1054POSM   AM112361   7.231  25.670  10.746  0.2077 -0.0269 -0.2696
 1054POSM   AM212362   7.161  25.925  10.877 -0.1721  0.1209 -0.3293
 1054POSM   T1A12363   7.534  25.774  11.111  0.2667 -0.1444  0.0163
 1054POSM   C2A12364   7.873  25.953  11.425 -0.1427  0.2888 -0.1896
 1054POSM   C3A12365   8.281  26.169  11.468  0.1862  0.2241 -0.1762
 1054POSM   C1B12366   7.008  26.091  11.182 -0.1262 -0.3587 -0.1516
 1054POSM   D2B12367   6.950  26.246  11.598  0.0200 -0.0288  0.1146
 1054POSM   C3B12368   6.911  26.603  11.877 -0.0006 -0.1951 -0.0298
 1054POSM   C4B12369   6.774  26.722  12.277  0.0171  0.0335  0.0386
 1055POSM   NC312370  31.353  32.827   9.030 -0.1454  0.1448  0.0863
 1055POSM   PO412371  31.460  32.541   9.203  0.0454 -0.0617 -0.3025
 1055POSM   AM112372  31.349  32.585   9.523  0.1493 -0.4345  0.1888
 1055POSM   AM212373  31.339  32.707   9.770 -0.1012 -0.4269  0.0036
 1055POSM   T1A12374  30.925  32.505   9.757  0.2051  0.0146  0.0105
 1055POSM   C2A12375  30.497  32.445  10.024 -0.0689 -0.0231 -0.0776
 1055POSM   C3A12376  30.238  32.160  10.364 -0.0669 -0.0377 -0.1745
 1055POSM   C1B12377  31.531  32.557  10.023 -0.0895 -0.0405 -0.0737
 1055POSM   D2B12378  31.560  32.491  10.455 -0.2220 -0.1267 -0.0664
 1055POSM   C3B12379  31.820  32.136  10.668 -0.0285 -0.2014 -0.4487
 1055POSM   C4B12380  31.792  31.851  11.048 -0.0829 -0.1713 -0.2275
 1056DOPC   NC312381   3.700  25.552  10.059  0.2785  0.2728 -0.0183
 1056DOPC   PO412382   3.971  25.819   9.955  0.3043  0.0625 -0.2816
 1056DOPC   GL112383   3.981  25.761  10.423  0.3914 -0.1056  0.0592
 1056DOPC   GL212384   3.877  26.050  10.437 -0.2537  0.4666 -0.3893
 1056DOPC   C1A12385   4.078  25.797  10.825  0.0492 -0.2687 -0.0564
 1056DOPC   D2A12386   4.002  25.890  11.275  0.0123 -0.1314  0.1333
 1056DOPC   C3A12387   4.208  25.571  11.566 -0.1577 -0.1976  0.4116
 1056DOPC   C4A12388   4.527  25.642  11.956 -0.3087  0.1797 -0.2479
 1056DOPC   C1B12389   3.890  26.278  10.890  0.1934  0.0704 -0.0139
 1056DOPC   D2B12390   4.029  26.572  11.142 -0.2108  0.2699  0.2339
 1056DOPC   C3B12391   4.124  26.876  11.502  0.4166  0.2061  0.1569
 1056DOPC   C4B12392   4.103  27.324  11.664  0.1676 -0.2329 -0.0507
 1057DOPE   NH312393   3.373  27.151   9.771  0.0826 -0.1850 -0.1612
 1057DOPE   PO412394   3.191  27.304   9.985  0.2687 -0.1429  0.1408
 1057DOPE   GL112395   3.063  27.236  10.329 -0.5751  0.0531  0.1588
 1057DOPE   GL212396   2.953  27.469  10.442 -0.2866  0.0149  0.0138
 1057DOPE   C1A12397   3.230  27.232  10.741  0.0675  0.2119 -0.0668
 1057DOPE   D2A12398   3.378  27.401  11.153  0.1679  0.2175 -0.0958
 1057DOPE   C3A12399   3.546  26.993  11.449 -0.2299  0.1316 -0.0487
 1057DOPE   C4A12400   3.499  26.681  11.735 -0.1670  0.1625 -0.2908
 1057DOPE   C1B12401   2.622  27.383  10.758 -0.0964 -0.3377 -0.0035
 1057DOPE   D2B12402   2.193  27.385  10.805 -0.1578  0.1637  0.1120
 1057DOPE   C3B12403   2.055  27.541  11.242 -0.2586 -0.1433 -0.2545
 1057DOPE   C4B12404   2.074  27.349  11.661 -0.1019  0.0477  0.1322
 1058POSM   NC312405   5.472  33.790  10.261 -0.1688 -0.2178  0.1181
 1058POSM   PO412406   5.353  34.085  10.512  0.0539 -0.1880 -0.2071
 1058POSM   AM112407   5.158  34.167  10.748  0.3192  0.3282  0.0477
 1058POSM   AM212408   4.885  34.058  10.837 -0.1496  0.2120  0.2399
 1058POSM   T1A12409   4.994  34.604  10.978  0.3832  0.4198  0.0841
 1058POSM   C2A12410   4.947  34.979  11.269 -0.1520  0.1260 -0.0236
 1058POSM   C3A12411   4.800  35.317  11.612  0.0706 -0.2197 -0.1880
 1058POSM   C1B12412   4.816  34.147  11.189  0.0665  0.1054 -0.0326
 1058POSM   D2B12413   4.890  34.452  11.523  0.0086  0.3559  0.1861
 1058POSM   C3B12414   5.029  34.126  11.804  0.0958  0.3016  0.1925
 1058POSM   C4B12415   5.092  33.887  12.166 -0.1020  0.1034 -0.1102
 1059POSM   NC312416   6.368  26.111  10.452 -0.0006 -0.0728  0.2074
 1059POSM   PO412417   6.414  26.534  10.480 -0.0132  0.0210 -0.0262
 1059POSM   AM112418   6.116  26.509  10.621  0.2824  0.2686  0.2757
 1059POSM   AM212419   5.864  26.275  10.613 -0.0862  0.0826  0.1269
 1059POSM   T1A12420   5.787  26.535  11.045  0.4168  0.4386 -0.1940
 1059POSM   C2A12421   5.445  26.338  11.356  0.2318 -0.1595  0.0685
 1059POSM   C3A12422   5.236  26.174  11.749  0.1996 -0.3192  0.2233
 1059POSM   C1B12423   5.630  26.146  10.814 -0.1900  0.1184  0.0303
 1059POSM   D2B12424   5.331  25.965  11.006 -0.0980 -0.2185 -0.1147
 1059POSM   C3B12425   5.410  25.792  11.405 -0.1784  0.2022  0.0574
 1059POSM   C4B12426   5.708  25.941  11.723 -0.2304 -0.2643  0.1943
 1060DOPS   CNO12427   6.398  28.161  10.123  0.0093  0.1615  0.0505
 1060DOPS   PO412428   6.558  28.392  10.426  0.1882 -0.3059  0.2720
 1060DOPS   GL112429   6.652  28.697  10.669 -0.1141  0.0923 -0.0652
 1060DOPS   GL212430   6.869  28.880  10.629  0.1551  0.0063  0.2199
 1060DOPS   C1A12431   6.914  28.620  11.081 -0.0774 -0.1369  0.3212
 1060DOPS   D2A12432   6.753  28.578  11.505  0.4552  0.2518 -0.2220
 1060DOPS   C3A12433   6.575  28.934  11.723 -0.0254  0.2785 -0.2041
 1060DOPS   C4A12434   6.348  29.184  12.060 -0.3283  0.3537  0.0536
 1060DOPS   C1B12435   6.775  29.080  10.999  0.1237  0.3669 -0.0421
 1060DOPS   D2B12436   6.787  29.319  11.398  0.1274  0.0410 -0.0280
 1060DOPS   C3B12437   6.751  29.371  11.837 -0.1596  0.1916  0.2241
 1060DOPS   C4B12438   6.776  29.642  12.197 -0.3166  0.0452 -0.0334
 1061DOPC   NC312439   0.920  33.106   9.779  0.0997 -0.1301  0.0626
 1061DOPC   PO412440   1.248  32.916   9.933  0.2035  0.0982 -0.0872
 1061DOPC   GL112441   1.277  33.002  10.259  0.2687  0.1463  0.0584
 1061DOPC   GL212442   1.168  33.231  10.335  0.0906 -0.1172  0.0074
 1061DOPC   C1A12443   1.433  32.739  10.620 -0.0079  0.0071 -0.3715
 1061DOPC   D2A12444   1.537  32.407  10.877 -0.0715 -0.0642  0.0723
 1061DOPC   C3A12445   1.586  32.419  11.380  0.2823  0.2699  0.0921
 1061DOPC   C4A12446   1.678  32.170  11.699 -0.1798 -0.1587 -0.2531
 1061DOPC   C1B12447   1.030  33.047  10.712  0.0336 -0.1120 -0.2302
 1061DOPC   D2B12448   0.850  33.122  11.143 -0.0437  0.1267  0.0581
 1061DOPC   C3B12449   1.082  33.002  11.512 -0.1373 -0.1743 -0.2595
 1061DOPC   C4B12450   1.271  32.964  11.889  0.2250 -0.2268 -0.1207
 1062POSM   NC312451  34.246  28.740   9.775 -0.1139  0.2614  0.2745
 1062POSM   PO412452  34.599  28.503   9.786 -0.4364  0.1210 -0.2273
 1062POSM   AM112453  34.542  28.584  10.112  0.3226 -0.2004  0.3056
 1062POSM   AM212454  34.407  28.774  10.309 -0.3164  0.1584 -0.4200
 1062POSM   T1A12455  34.343  28.317  10.579 -0.4644 -0.0120  0.1211
 1062POSM   C2A12456  34.490  28.104  10.941  0.0808  0.0739 -0.1132
 1062POSM   C3A12457  34.556  28.238  11.380  0.0197  0.0147  0.0687
 1062POSM   C1B12458  34.124  28.872  10.500  0.3526 -0.0908 -0.1849
 1062POSM   D2B12459  33.755  29.077  10.744  0.0217  0.0883  0.2075
 1062POSM   C3B12460  33.636  29.383  10.397  0.2236  0.0291 -0.2580
 1062POSM   C4B12461  33.958  29.667  10.280  0.0243  0.1345  0.2258
 1063DOPE   NH312462   6.239  25.322  10.494  0.3467  0.1389  0.0955
 1063DOPE   PO412463   6.356  25.605  10.365 -0.2174 -0.1451  0.0244
 1063DOPE   GL112464   6.440  25.675  10.659 -0.1368 -0.0988 -0.5834
 1063DOPE   GL212465   6.633  25.471  10.765 -0.2526  0.0546 -0.1286
 1063DOPE   C1A12466   6.320  25.604  11.088  0.0206 -0.1549 -0.0328
 1063DOPE   D2A12467   6.181  25.580  11.580  0.0911  0.0968 -0.2124
 1063DOPE   C3A12468   5.819  25.492  11.886 -0.0709  0.0489 -0.2314
 1063DOPE   C4A12469   5.397  25.682  12.006  0.0158  0.0130  0.0970
 1063DOPE   C1B12470   6.862  25.596  11.187 -0.0094  0.2556  0.0318
 1063DOPE   D2B12471   6.773  25.776  11.656 -0.0705  0.0947  0.1078
 1063DOPE   C3B12472   7.067  25.766  11.993 -0.2707  0.0033 -0.0391
 1063DOPE   C4B12473   7.216  25.655  12.404  0.4511 -0.1933  0.1010
 1064POSM   NC312474  33.356  30.243   9.280 -0.2098  0.0182 -0.2301
 1064POSM   PO412475  33.127  30.457   9.553  0.1886 -0.0366 -0.2667
 1064POSM   AM112476  33.238  30.426   9.866 -0.1205 -0.0890  0.4672
 1064POSM   AM212477  33.136  30.404  10.081 -0.0510 -0.0689  0.0670
 1064POSM   T1A12478  33.654  30.280  10.142  0.1332  0.0580  0.2868
 1064POSM   C2A12479  33.914  30.154  10.533  0.1336 -0.2802 -0.2641
 1064POSM   C3A12480  34.203  29.881  10.754  0.0157 -0.2298 -0.2270
 1064POSM   C1B12481  33.134  30.251  10.321  0.3169  0.1429 -0.0345
 1064POSM   D2B12482  33.054  30.105  10.746 -0.2824  0.2597  0.1632
 1064POSM   C3B12483  33.078  29.631  10.874 -0.1746  0.1854  0.2142
 1064POSM   C4B12484  33.463  29.387  11.086 -0.1259 -0.1751  0.1055
 1065POSM   NC312485   2.993  31.650   9.787 -0.0562 -0.0157  0.2777
 1065POSM   PO412486   2.667  31.424   9.825 -0.0254  0.0181 -0.0370
 1065POSM   AM112487   2.736  31.295  10.139  0.2227 -0.5588 -0.1074
 1065POSM   AM212488   2.641  31.197  10.394 -0.0789 -0.2068 -0.2877
 1065POSM   T1A12489   3.109  31.139  10.458  0.1551 -0.1110 -0.2873
 1065POSM   C2A12490   3.203  31.107  10.912 -0.3467 -0.0752  0.0896
 1065POSM   C3A12491   3.345  30.892  11.340  0.2458  0.0742  0.2358
 1065POSM   C1B12492   2.661  30.954  10.626  0.0371  0.0366  0.0413
 1065POSM   D2B12493   2.740  30.805  11.002 -0.1727  0.0888 -0.0649
 1065POSM   C3B12494   2.883  31.074  11.281  0.1494  0.0576  0.2623
 1065POSM   C4B12495   2.742  31.454  11.338  0.0262 -0.2085  0.0052
 1066POSM   NC312496  34.031  30.869   9.726 -0.0242  0.1020 -0.0116
 1066POSM   PO412497  33.773  31.166   9.691  0.1398  0.1175 -0.0595
 1066POSM   AM112498  33.681  31.103  10.004  0.2500  0.4131  0.1979
 1066POSM   AM212499  33.640  30.846  10.114  0.1437 -0.0643  0.1894
 1066POSM   T1A12500  33.602  31.211  10.447 -0.0524  0.0765  0.0303
 1066POSM   C2A12501  33.398  30.901  10.757  0.1719  0.0201  0.0087
 1066POSM   C3A12502  33.132  30.921  11.096  0.0409  0.0100  0.0874
 1066POSM   C1B12503  33.456  30.648  10.351  0.3467 -0.1571  0.2599
 1066POSM   D2B12504  33.501  30.411  10.702  0.0780 -0.1840 -0.1527
 1066POSM   C3B12505  33.625  30.582  11.099 -0.2743  0.0251 -0.0819
 1066POSM   C4B12506  33.501  30.795  11.545  0.1296 -0.0477  0.2088
 1067DOPS   CNO12507   8.415  24.786  10.455 -0.1657 -0.0205 -0.1400
 1067DOPS   PO412508   8.320  24.769  10.822  0.1873  0.2048 -0.1204
 1067DOPS   GL112509   8.333  24.848  11.213 -0.2007  0.4764 -0.0204
 1067DOPS   GL212510   8.592  24.686  11.262 -0.1055  0.0122 -0.1001
 1067DOPS   C1A12511   8.445  25.257  11.489 -0.2302  0.1598 -0.0637
 1067DOPS   D2A12512   8.200  25.666  11.732 -0.0010 -0.0230 -0.0212
 1067DOPS   C3A12513   7.766  25.664  11.827  0.1200 -0.1362  0.0653
 1067DOPS   C4A12514   7.516  25.923  12.085 -0.0627  0.1303 -0.0225
 1067DOPS   C1B12515   8.599  24.816  11.704 -0.1127  0.1628 -0.3091
 1067DOPS   D2B12516   8.694  25.115  12.086 -0.1896  0.4244  0.1683
 1067DOPS   C3B12517   8.534  25.581  12.118  0.0733 -0.3103 -0.0225
 1067DOPS   C4B12518   8.445  25.986  12.027  0.0467 -0.0966 -0.4560
 1068POSM   NC312519   5.966  24.826  10.562 -0.0492 -0.1498 -0.1031
 1068POSM   PO412520   5.865  24.458  10.431  0.0592  0.0501 -0.0027
 1068POSM   AM112521   5.975  24.359  10.689 -0.0309 -0.2518  0.1600
 1068POSM   AM212522   6.038  24.518  10.957 -0.2370  0.2111  0.1358
 1068POSM   T1A12523   5.976  23.977  11.124 -0.0402  0.0162  0.3931
 1068POSM   C2A12524   6.044  23.940  11.616 -0.0313  0.4394  0.1719
 1068POSM   C3A12525   5.909  24.040  12.077 -0.1906 -0.1113 -0.1957
 1068POSM   C1B12526   5.820  24.649  11.213 -0.1858  0.2385 -0.0745
 1068POSM   D2B12527   5.557  24.804  11.574 -0.2311  0.2523 -0.0077
 1068POSM   C3B12528   5.805  24.939  11.921 -0.2874  0.3154 -0.1383
 1068POSM   C4B12529   6.245  25.148  11.954  0.2016 -0.2689 -0.1622
 1069DOPE   NH312530  12.151  28.160  10.466  0.0794 -0.0504 -0.3125
 1069DOPE   PO412531  11.976  28.061  10.711  0.1836 -0.2021 -0.1784
 1069DOPE   GL112532  11.645  28.040  10.899  0.3355  0.0946  0.3525
 1069DOPE   GL212533  11.722  28.273  11.145  0.2344 -0.2302 -0.1711
 1069DOPE   C1A12534  11.405  27.849  11.271  0.2130 -0.2062 -0.0554
 1069DOPE   D2A12535  11.314  27.519  11.581  0.2105  0.3661  0.1544
 1069DOPE   C3A12536  11.182  27.110  11.660  0.0093 -0.2697 -0.1140
 1069DOPE   C4A12537  10.900  26.812  11.921 -0.2023 -0.2117 -0.0829
 1069DOPE   C1B12538  11.680  28.086  11.527  0.2058  0.0076  0.1677
 1069DOPE   D2B12539  11.611  27.768  11.909  0.0202 -0.3017 -0.0035
 1069DOPE   C3B12540  11.790  27.723  12.338  0.0929 -0.0254  0.1406
 1069DOPE   C4B12541  11.752  27.400  12.666 -0.5587  0.1406 -0.0132
 1070DOPE   NH312542  11.376  32.030  10.316  0.0323  0.0294  0.1801
 1070DOPE   PO412543  11.348  31.795  10.520  0.1766 -0.0106 -0.3404
 1070DOPE   GL112544  11.436  31.894  10.874  0.3085  0.0348  0.0652
 1070DOPE   GL212545  11.681  31.910  10.936  0.1210 -0.0729  0.2923
 1070DOPE   C1A12546  11.371  31.715  11.303  0.2049  0.1107  0.1763
 1070DOPE   D2A12547  11.185  31.695  11.742 -0.4928 -0.1422 -0.1321
 1070DOPE   C3A12548  11.290  31.508  12.179 -0.2029  0.0514  0.2239
 1070DOPE   C4A12549  11.332  31.489  12.601 -0.2534  0.1164  0.2098
 1070DOPE   C1B12550  12.029  31.880  11.278 -0.3210  0.2602 -0.1935
 1070DOPE   D2B12551  12.137  31.849  11.720 -0.1032 -0.4020 -0.1303
 1070DOPE   C3B12552  12.142  31.656  12.146  0.1894  0.0554  0.0764
 1070DOPE   C4B12553  11.805  31.603  12.390  0.0981 -0.0026  0.2384
 1071DOPE   NH312554   3.575  31.784  10.271 -0.1252 -0.2280 -0.2283
 1071DOPE   PO412555   3.901  31.692  10.243  0.0058 -0.0685  0.1224
 1071DOPE   GL112556   4.023  31.694  10.630 -0.2227 -0.4071 -0.0420
 1071DOPE   GL212557   4.310  31.811  10.587 -0.0493 -0.1585 -0.0343
 1071DOPE   C1A12558   3.938  31.706  11.114  0.2601  0.1762  0.1930
 1071DOPE   D2A12559   3.898  32.054  11.431  0.3335 -0.0652 -0.0389
 1071DOPE   C3A12560   4.277  32.168  11.698  0.0480  0.2975  0.0645
 1071DOPE   C4A12561   4.415  32.056  12.134 -0.1054 -0.0352 -0.0364
 1071DOPE   C1B12562   4.379  31.882  11.066 -0.0813  0.1692  0.0088
 1071DOPE   D2B12563   4.262  31.715  11.475 -0.1912  0.1809 -0.1341
 1071DOPE   C3B12564   4.601  31.656  11.826  0.1080  0.0206 -0.0817
 1071DOPE   C4B12565   4.811  31.698  12.201 -0.0718  0.1492 -0.2654
 1072DOPE   NH312566   2.792  28.428  10.097 -0.0283 -0.3652 -0.0562
 1072DOPE   PO412567   2.473  28.473   9.972 -0.1698  0.0001 -0.0910
 1072DOPE   GL112568   2.402  28.432  10.339 -0.1254 -0.5371 -0.0510
 1072DOPE   GL212569   2.208  28.522  10.453 -0.0418 -0.1797  0.1665
 1072DOPE   C1A12570   2.659  28.651  10.665  0.1941 -0.2172  0.1944
 1072DOPE   D2A12571   3.015  28.715  10.894  0.1070  0.2619 -0.2222
 1072DOPE   C3A12572   2.894  28.698  11.343 -0.1954 -0.1015  0.3785
 1072DOPE   C4A12573   2.769  28.522  11.712  0.1203  0.3184  0.1057
 1072DOPE   C1B12574   1.887  28.194  10.449 -0.2655 -0.1959 -0.2100
 1072DOPE   D2B12575   1.639  27.902  10.688  0.2591 -0.1568  0.0682
 1072DOPE   C3B12576   1.617  27.700  11.096 -0.0539  0.2204  0.0741
 1072DOPE   C4B12577   1.509  27.441  11.500  0.0446 -0.3177 -0.1459
 1073POSM   NC312578   2.124  25.473   9.665  0.0293  0.2280 -0.0080
 1073POSM   PO412579   2.029  25.595  10.030 -0.0164  0.1480  0.1302
 1073POSM   AM112580   2.023  25.431  10.313  0.3819  0.0206  0.0051
 1073POSM   AM212581   2.260  25.442  10.512 -0.3238  0.1122  0.0280
 1073POSM   T1A12582   1.733  25.289  10.715 -0.0314  0.0228 -0.0182
 1073POSM   C2A12583   1.567  25.357  11.163  0.0475  0.1910 -0.1102
 1073POSM   C3A12584   1.630  25.601  11.554  0.0294  0.0421  0.0956
 1073POSM   C1B12585   2.372  25.648  10.717 -0.0380 -0.1315 -0.1626
 1073POSM   D2B12586   2.432  25.690  11.220 -0.0482  0.0534 -0.2267
 1073POSM   C3B12587   2.106  25.963  11.493 -0.2399 -0.1993 -0.2110
 1073POSM   C4B12588   1.995  25.860  11.947 -0.1300  0.2408 -0.0050
 1074DOPC   NC312589  12.992  32.315  10.521 -0.1814 -0.0443  0.0902
 1074DOPC   PO412590  12.707  32.096  10.723  0.0449  0.0356 -0.1668
 1074DOPC   GL112591  12.706  31.988  11.060  0.4644  0.3211  0.3068
 1074DOPC   GL212592  12.616  31.641  11.088 -0.0015  0.3026 -0.0821
 1074DOPC   C1A12593  12.527  32.000  11.467 -0.0230  0.0218 -0.1076
 1074DOPC   D2A12594  12.572  32.010  11.942  0.2718  0.2291  0.2994
 1074DOPC   C3A12595  12.247  32.088  12.335  0.1860 -0.1133  0.0418
 1074DOPC   C4A12596  11.870  32.366  12.394  0.3136  0.0918 -0.0789
 1074DOPC   C1B12597  12.793  31.255  11.259 -0.2058  0.1350  0.3314
 1074DOPC   D2B12598  12.889  31.115  11.698  0.6534  0.1896  0.0883
 1074DOPC   C3B12599  12.685  30.758  11.895  0.2269 -0.0942  0.0297
 1074DOPC   C4B12600  12.770  30.344  11.827  0.3174 -0.0245  0.0589
 1075DOPC   NC312601   5.202  31.346  10.085  0.0635  0.1161 -0.1451
 1075DOPC   PO412602   4.989  31.086   9.908 -0.0263 -0.3267 -0.1601
 1075DOPC   GL112603   4.905  31.071  10.280  0.2597 -0.0609 -0.1887
 1075DOPC   GL212604   5.070  30.868  10.349 -0.3215  0.2644  0.0834
 1075DOPC   C1A12605   5.053  31.242  10.678 -0.3927  0.0604  0.3106
 1075DOPC   D2A12606   5.161  31.474  11.078  0.3960 -0.0726 -0.0979
 1075DOPC   C3A12607   5.253  31.509  11.530 -0.0029 -0.0165  0.0767
 1075DOPC   C4A12608   5.046  31.328  11.872  0.0666 -0.0021 -0.2949
 1075DOPC   C1B12609   5.289  30.812  10.738 -0.1007 -0.0612  0.0563
 1075DOPC   D2B12610   5.504  30.971  11.129  0.1882 -0.0459  0.2978
 1075DOPC   C3B12611   5.905  30.900  11.304 -0.1389  0.2295 -0.1042
 1075DOPC   C4B12612   6.205  30.957  11.679 -0.0990  0.1271 -0.0664
 1076POSM   NC312613   4.874  27.980   9.810  0.1060  0.1215  0.3061
 1076POSM   PO412614   4.672  27.860  10.079 -0.0703 -0.0152  0.1698
 1076POSM   AM112615   4.489  28.003  10.313 -0.6136  0.2054  0.3267
 1076POSM   AM212616   4.217  28.011  10.358 -0.0347  0.2984 -0.0875
 1076POSM   T1A12617   4.506  27.855  10.788 -0.2172  0.1382 -0.2076
 1076POSM   C2A12618   4.461  27.434  10.908 -0.1533 -0.1502  0.2091
 1076POSM   C3A12619   4.069  27.268  11.150  0.0910  0.0532 -0.0761
 1076POSM   C1B12620   4.077  28.135  10.623  0.0331  0.0844  0.1963
 1076POSM   D2B12621   4.099  28.317  11.089 -0.1834 -0.0730  0.1219
 1076POSM   C3B12622   3.878  28.165  11.478 -0.2308  0.0451 -0.0197
 1076POSM   C4B12623   3.659  28.081  11.885  0.3412 -0.0098  0.0085
 1077POSM   NC312624   7.841  27.001  10.413 -0.0813  0.5005 -0.0276
 1077POSM   PO412625   7.501  27.148  10.367  0.1587  0.1416 -0.1096
 1077POSM   AM112626   7.534  27.286  10.655  0.1068 -0.4290  0.0904
 1077POSM   AM212627   7.506  27.145  10.916  0.1134 -0.2534 -0.2994
 1077POSM   T1A12628   7.348  27.581  11.022 -0.2763  0.0569  0.2339
 1077POSM   C2A12629   7.518  27.927  11.330  0.0012 -0.1592  0.0051
 1077POSM   C3A12630   7.468  28.049  11.782 -0.0220 -0.0758 -0.1065
 1077POSM   C1B12631   7.580  27.013  11.252  0.3121 -0.0470  0.1272
 1077POSM   D2B12632   7.744  27.120  11.647 -0.2094  0.1933  0.1220
 1077POSM   C3B12633   7.632  27.516  11.897 -0.1941  0.2301  0.2807
 1077POSM   C4B12634   7.594  27.589  12.311  0.0274  0.1843  0.2031
 1078DOPS   CNO12635  11.117  25.629   9.922 -0.0620  0.2943  0.0988
 1078DOPS   PO412636  10.759  25.611   9.957  0.2107 -0.1296 -0.2018
 1078DOPS   GL112637  10.782  25.379  10.235 -0.0457  0.1799 -0.0725
 1078DOPS   GL212638  10.589  25.182  10.204  0.1572  0.0508 -0.0146
 1078DOPS   C1A12639  10.815  25.450  10.680  0.1599 -0.1128  0.0608
 1078DOPS   D2A12640  10.797  25.676  11.074 -0.0326  0.1510  0.5362
 1078DOPS   C3A12641  10.826  25.513  11.469 -0.1124 -0.2620  0.0208
 1078DOPS   C4A12642  10.745  25.151  11.775 -0.4277  0.1648  0.2117
 1078DOPS   C1B12643  11.056  25.086  10.363  0.5062 -0.2032 -0.2955
 1078DOPS   D2B12644  11.361  25.276  10.717  0.1531 -0.0893 -0.1242
 1078DOPS   C3B12645  11.282  25.528  11.114  0.5604  0.1042  0.2642
 1078DOPS   C4B12646  11.137  25.922  11.365  0.0800 -0.2214 -0.1369
 1079DOPE   NH312647   8.699  30.540  10.075 -0.1567 -0.0312  0.1760
 1079DOPE   PO412648   8.505  30.579  10.339  0.2435 -0.0902  0.1233
 1079DOPE   GL112649   8.378  30.576  10.794  0.0325  0.2325  0.1603
 1079DOPE   GL212650   8.698  30.560  10.813 -0.3030 -0.1898  0.4316
 1079DOPE   C1A12651   8.054  30.513  11.087  0.0493 -0.1000  0.2192
 1079DOPE   D2A12652   7.592  30.382  11.254 -0.0991  0.0810  0.0497
 1079DOPE   C3A12653   7.351  29.971  11.455 -0.1488 -0.2541  0.2120
 1079DOPE   C4A12654   7.122  29.732  11.770 -0.2364 -0.0193 -0.0046
 1079DOPE   C1B12655   8.817  30.817  11.166  0.0730 -0.2233 -0.0026
 1079DOPE   D2B12656   9.154  30.973  11.475 -0.3702 -0.1797  0.2094
 1079DOPE   C3B12657   9.281  30.779  11.861 -0.3003 -0.2876  0.2969
 1079DOPE   C4B12658   9.670  30.658  12.005  0.0094  0.0266 -0.3706
 1080DOPC   NC312659   5.473  26.502  10.170 -0.0478  0.0278 -0.4709
 1080DOPC   PO412660   5.871  26.610  10.240  0.1732  0.0787  0.0525
 1080DOPC   GL112661   5.522  26.579  10.628 -0.1280  0.0794  0.1551
 1080DOPC   GL212662   5.217  26.534  10.611 -0.2313  0.2143  0.3376
 1080DOPC   C1A12663   5.406  26.856  10.924 -0.1534  0.1193  0.4385
 1080DOPC   D2A12664   5.652  26.878  11.349  0.3485 -0.0307 -0.0789
 1080DOPC   C3A12665   6.060  27.089  11.334 -0.0893  0.2311 -0.2666
 1080DOPC   C4A12666   6.477  27.329  11.317  0.3825  0.1441 -0.0418
 1080DOPC   C1B12667   4.951  26.566  10.993 -0.0787 -0.2154 -0.0131
 1080DOPC   D2B12668   4.597  26.667  11.270 -0.0816 -0.1757 -0.0336
 1080DOPC   C3B12669   4.707  26.934  11.693  0.1231 -0.1784 -0.0085
 1080DOPC   C4B12670   4.754  27.078  12.095  0.1418 -0.2472 -0.2149
 1081DOPC   NC312671   4.819  33.054  10.295  0.1916 -0.2174  0.2111
 1081DOPC   PO412672   5.148  32.827  10.349  0.1333 -0.0184 -0.0524
 1081DOPC   GL112673   5.328  32.643  10.635 -0.3824  0.0947 -0.2853
 1081DOPC   GL212674   5.583  32.785  10.687 -0.2217  0.0121 -0.1750
 1081DOPC   C1A12675   5.396  32.212  10.866 -0.1813  0.2591  0.2049
 1081DOPC   D2A12676   5.391  31.906  11.183 -0.0590  0.2841 -0.0292
 1081DOPC   C3A12677   5.654  31.779  11.537 -0.0199  0.0322  0.1356
 1081DOPC   C4A12678   5.763  31.809  11.969  0.3055 -0.2472  0.0281
 1081DOPC   C1B12679   5.336  32.660  11.096  0.3291 -0.0311  0.1008
 1081DOPC   D2B12680   5.224  32.295  11.341 -0.0542 -0.1347 -0.2918
 1081DOPC   C3B12681   5.351  32.155  11.697  0.0551 -0.1239 -0.2090
 1081DOPC   C4B12682   5.203  31.771  11.933  0.0574  0.1729 -0.1037
 1082DOPC   NC312683   4.994  34.545  10.487 -0.1602  0.0816  0.2459
 1082DOPC   PO412684   4.718  34.310  10.363  0.1559 -0.2414 -0.2744
 1082DOPC   GL112685   4.497  34.467  10.743  0.2886 -0.2025 -0.1010
 1082DOPC   GL212686   4.359  34.233  10.877  0.0761 -0.1426 -0.1933
 1082DOPC   C1A12687   4.580  34.634  11.182  0.1700 -0.1359 -0.2877
 1082DOPC   D2A12688   4.392  34.945  11.467 -0.1206  0.1976 -0.1553
 1082DOPC   C3A12689   4.610  34.954  11.894 -0.3638  0.0739  0.3248
 1082DOPC   C4A12690   4.901  34.878  12.219  0.0379  0.0335  0.1306
 1082DOPC   C1B12691   4.278  34.082  11.294  0.0597 -0.0371 -0.0493
 1082DOPC   D2B12692   4.491  33.991  11.665  0.0721  0.1383 -0.3816
 1082DOPC   C3B12693   4.280  34.173  12.079 -0.0606 -0.0067  0.0951
 1082DOPC   C4B12694   4.097  34.226  12.510 -0.1026  0.1769 -0.1110
 1083DOPE   NH312695   5.789  23.494  10.268 -0.0215  0.1335 -0.1174
 1083DOPE   PO412696   5.587  23.675  10.470 -0.1216 -0.0888 -0.1985
 1083DOPE   GL112697   5.711  23.742  10.769  0.0065 -0.0940  0.0496
 1083DOPE   GL212698   5.868  23.526  10.879 -0.0259 -0.0478 -0.0426
 1083DOPE   C1A12699   5.569  23.711  11.221  0.1172 -0.1099 -0.0302
 1083DOPE   D2A12700   5.269  23.893  11.497  0.1707  0.0302 -0.2162
 1083DOPE   C3A12701   5.472  23.842  11.870 -0.0890  0.1198 -0.1388
 1083DOPE   C4A12702   5.531  23.474  12.150  0.0533  0.1497 -0.1257
 1083DOPE   C1B12703   6.026  23.501  11.302  0.1661  0.2376  0.2596
 1083DOPE   D2B12704   6.287  23.349  11.701  0.3504 -0.0783  0.2096
 1083DOPE   C3B12705   6.724  23.378  11.785  0.1357  0.2028 -0.0036
 1083DOPE   C4B12706   7.077  23.104  11.901  0.2573 -0.1124 -0.4616
 1084DOPC   NC312707   8.805  27.704  10.941  0.0018 -0.0513  0.1599
 1084DOPC   PO412708   8.912  28.076  10.898 -0.1524  0.3612  0.0369
 1084DOPC   GL112709   8.862  28.243  11.228 -0.5660 -0.5595 -0.0240
 1084DOPC   GL212710   8.741  28.065  11.376 -0.0424 -0.2825  0.1434
 1084DOPC   C1A12711   9.151  28.170  11.648 -0.0136 -0.1298 -0.0392
 1084DOPC   D2A12712   9.199  28.513  11.980 -0.0937 -0.0746 -0.0728
 1084DOPC   C3A12713   9.537  28.487  12.304 -0.0419  0.0354 -0.1617
 1084DOPC   C4A12714   9.901  28.456  12.634 -0.1951 -0.1834 -0.2113
 1084DOPC   C1B12715   8.639  28.123  11.834 -0.2249  0.2295 -0.0887
 1084DOPC   D2B12716   8.342  28.295  12.178  0.0290  0.1017 -0.0155
 1084DOPC   C3B12717   7.934  28.327  12.336 -0.0138 -0.2003  0.0988
 1084DOPC   C4B12718   7.579  28.068  12.259 -0.1459  0.1334  0.0476
 1085POSM   NC312719   3.555  28.164   9.547 -0.0953  0.1124  0.0567
 1085POSM   PO412720   3.285  28.385   9.730 -0.2040  0.3663 -0.2084
 1085POSM   AM112721   3.259  28.312  10.040  0.0428 -0.4455  0.2208
 1085POSM   AM212722   3.437  28.391  10.243 -0.0723 -0.1964 -0.3706
 1085POSM   T1A12723   3.039  28.359  10.507  0.2193  0.0005  0.1424
 1085POSM   C2A12724   2.912  28.187  10.940 -0.0132 -0.1700 -0.0921
 1085POSM   C3A12725   2.890  27.984  11.378 -0.1128 -0.1854 -0.2668
 1085POSM   C1B12726   3.542  28.486  10.556  0.1561 -0.0593 -0.3942
 1085POSM   D2B12727   3.585  28.429  11.040 -0.1929 -0.2233 -0.0079
 1085POSM   C3B12728   3.687  28.619  11.436  0.2966  0.0783  0.1658
 1085POSM   C4B12729   3.654  28.801  11.822  0.3555 -0.2123 -0.2495
 1086DOPS   CNO12730   1.021  22.664  10.344  0.0132  0.0426 -0.2283
 1086DOPS   PO412731   0.774  22.458  10.564 -0.0066  0.0320  0.0058
 1086DOPS   GL112732   0.434  22.625  10.704 -0.0267 -0.1683  0.1434
 1086DOPS   GL212733   0.542  22.961  10.668  0.0416 -0.0430 -0.1209
 1086DOPS   C1A12734   0.149  22.851  10.995 -0.0673 -0.2950  0.1454
 1086DOPS   D2A12735  -0.172  22.919  11.310 -0.3112 -0.0510  0.0252
 1086DOPS   C3A12736  -0.514  22.629  11.277  0.2224 -0.1151  0.1064
 1086DOPS   C4A12737  -0.847  22.289  11.392 -0.1641  0.2567 -0.2138
 1086DOPS   C1B12738   0.642  23.104  11.101  0.1634 -0.1161 -0.2280
 1086DOPS   D2B12739   0.696  23.500  11.324  0.0842  0.0452 -0.1617
 1086DOPS   C3B12740   0.548  23.449  11.786  0.1817 -0.0648 -0.1133
 1086DOPS   C4B12741   0.405  23.518  12.201  0.1808 -0.2747 -0.3004
 1087DOPE   NH312742  32.062  26.206   9.827 -0.0069 -0.1974 -0.3225
 1087DOPE   PO412743  32.134  26.457   9.651  0.0604  0.0599 -0.1390
 1087DOPE   GL112744  32.449  26.576   9.936 -0.0737 -0.2833  0.1846
 1087DOPE   GL212745  32.285  26.579  10.167 -0.1901 -0.0223 -0.1356
 1087DOPE   C1A12746  32.649  26.998  10.116  0.1289  0.1558 -0.0496
 1087DOPE   D2A12747  32.815  27.119  10.572 -0.3728 -0.3321  0.2552
 1087DOPE   C3A12748  32.921  26.810  10.907 -0.1529 -0.1752  0.2656
 1087DOPE   C4A12749  33.095  26.792  11.318 -0.1681 -0.0639 -0.4757
 1087DOPE   C1B12750  32.043  26.356  10.424  0.2847  0.3241 -0.1049
 1087DOPE   D2B12751  31.744  26.200  10.732  0.2402  0.0959 -0.1824
 1087DOPE   C3B12752  32.021  26.085  11.079  0.2593  0.1289 -0.0897
 1087DOPE   C4B12753  32.053  26.141  11.573 -0.1734 -0.0560  0.0385
 1088POSM   NC312754  34.753  27.100   9.656  0.1054  0.3445 -0.1066
 1088POSM   PO412755  35.112  27.246   9.708  0.0383 -0.1439 -0.1031
 1088POSM   AM112756  35.135  27.265  10.021  0.1961 -0.0327  0.1280
 1088POSM   AM212757  35.362  27.344  10.195  0.0679 -0.0943 -0.0428
 1088POSM   T1A12758  35.131  27.152  10.519  0.2632 -0.3207  0.2497
 1088POSM   C2A12759  35.181  27.242  10.936 -0.0941 -0.0376 -0.1381
 1088POSM   C3A12760  35.436  27.244  11.311 -0.2904 -0.1200 -0.1032
 1088POSM   C1B12761  35.494  27.503  10.459 -0.5269  0.2550  0.0204
 1088POSM   D2B12762  35.509  27.642  10.893  0.3171  0.1231 -0.0529
 1088POSM   C3B12763  35.544  28.089  11.105  0.3325  0.0114 -0.0025
 1088POSM   C4B12764  35.671  28.611  11.103 -0.1863  0.3361 -0.3142
 1089DOPC   NC312765   1.399  30.650  10.052 -0.0271 -0.2313 -0.2432
 1089DOPC   PO412766   1.757  30.779   9.975  0.1549  0.0648  0.2365
 1089DOPC   GL112767   1.643  30.907  10.393  0.0112 -0.2739 -0.1823
 1089DOPC   GL212768   1.766  30.610  10.493 -0.0130  0.0244 -0.0043
 1089DOPC   C1A12769   1.352  30.762  10.673 -0.1292  0.1194  0.4398
 1089DOPC   D2A12770   1.141  30.700  11.096 -0.0606 -0.0043 -0.0487
 1089DOPC   C3A12771   0.836  30.351  11.163  0.0279 -0.1357  0.0994
 1089DOPC   C4A12772   0.895  29.964  10.890 -0.0021  0.0575 -0.3887
 1089DOPC   C1B12773   1.681  30.439  10.924 -0.1943  0.1698 -0.1879
 1089DOPC   D2B12774   1.757  30.248  11.333 -0.1805 -0.1379  0.0392
 1089DOPC   C3B12775   1.409  30.353  11.685  0.1201 -0.1658 -0.0595
 1089DOPC   C4B12776   1.058  30.354  11.959 -0.0279 -0.3207  0.2274
 1090DOPS   CNO12777   0.535  23.965  10.165  0.0740  0.1827 -0.2271
 1090DOPS   PO412778   0.315  23.658  10.198 -0.1079  0.0132 -0.3067
 1090DOPS   GL112779   0.087  23.560  10.528  0.0531 -0.1023 -0.1070
 1090DOPS   GL212780  -0.033  23.746  10.744  0.1658  0.1544  0.1728
 1090DOPS   C1A12781   0.147  23.333  10.968  0.1010 -0.1159  0.2773
 1090DOPS   D2A12782   0.199  23.351  11.469 -0.0909 -0.2886 -0.2037
 1090DOPS   C3A12783  -0.245  23.307  11.699 -0.2288 -0.0777  0.3215
 1090DOPS   C4A12784  -0.542  23.620  11.901  0.2057 -0.0241  0.0660
 1090DOPS   C1B12785   0.229  24.070  10.817 -0.2484  0.0430 -0.3023
 1090DOPS   D2B12786   0.597  24.080  11.141 -0.0722  0.1426  0.1443
 1090DOPS   C3B12787   0.414  24.032  11.581 -0.1320  0.2277 -0.1542
 1090DOPS   C4B12788   0.138  23.768  11.764  0.1373 -0.3666 -0.1658
 1091DOPC   NC312789   1.633  29.386   9.834 -0.1866  0.0321  0.2443
 1091DOPC   PO412790   1.753  29.047   9.973 -0.1175 -0.0197 -0.3463
 1091DOPC   GL112791   1.800  28.960  10.352 -0.0871 -0.0097  0.3537
 1091DOPC   GL212792   1.697  28.636  10.433 -0.0459  0.0937 -0.1282
 1091DOPC   C1A12793   2.197  29.109  10.536  0.2459  0.0923 -0.2802
 1091DOPC   D2A12794   2.260  28.870  10.889  0.4181 -0.2916  0.5175
 1091DOPC   C3A12795   2.388  28.731  11.299 -0.0875  0.0964  0.0362
 1091DOPC   C4A12796   2.249  28.590  11.713 -0.0099 -0.2381 -0.1517
 1091DOPC   C1B12797   1.604  28.401  10.814 -0.2114 -0.0541 -0.1967
 1091DOPC   D2B12798   1.826  28.183  11.116 -0.1702  0.3736 -0.0838
 1091DOPC   C3B12799   1.837  28.362  11.577  0.5185 -0.0994 -0.2498
 1091DOPC   C4B12800   1.930  28.344  12.019  0.0127 -0.2409  0.0371
 1092DOPC   NC312801   5.256  29.144  10.250 -0.1172  0.0157 -0.0414
 1092DOPC   PO412802   5.178  28.865   9.999  0.1018 -0.1979 -0.0352
 1092DOPC   GL112803   4.964  28.770  10.422  0.5447  0.1538  0.0272
 1092DOPC   GL212804   4.785  29.013  10.408 -0.0200  0.0652 -0.1288
 1092DOPC   C1A12805   4.975  28.705  10.871  0.1394  0.0581 -0.0586
 1092DOPC   D2A12806   4.957  28.847  11.319  0.0855  0.1183  0.1216
 1092DOPC   C3A12807   5.024  28.625  11.779 -0.4025 -0.0667 -0.1188
 1092DOPC   C4A12808   4.864  28.551  12.181  0.0845 -0.1648 -0.1188
 1092DOPC   C1B12809   5.107  29.178  10.683 -0.1626  0.1621  0.2081
 1092DOPC   D2B12810   5.287  29.194  11.131  0.3529  0.0669 -0.3213
 1092DOPC   C3B12811   5.728  29.176  11.307  0.1328 -0.1156  0.1726
 1092DOPC   C4B12812   6.076  29.288  11.609 -0.0491 -0.1068  0.0475
 1093DOPE   NH312813   6.902  26.663  10.568 -0.2302  0.1309 -0.1330
 1093DOPE   PO412814   6.938  26.349  10.637  0.0907  0.1273  0.0121
 1093DOPE   GL112815   6.702  26.431  10.912 -0.2874 -0.0562  0.0475
 1093DOPE   GL212816   6.547  26.153  10.900 -0.4401 -0.1631 -0.0913
 1093DOPE   C1A12817   6.609  26.502  11.327 -0.0601  0.1686  0.1079
 1093DOPE   D2A12818   6.419  26.822  11.627  0.0795  0.1928  0.1851
 1093DOPE   C3A12819   6.269  26.783  12.049 -0.0099 -0.2562 -0.2301
 1093DOPE   C4A12820   6.278  26.875  12.485 -0.1200 -0.1357  0.0327
 1093DOPE   C1B12821   6.491  26.011  11.355 -0.2287  0.0783  0.1323
 1093DOPE   D2B12822   6.198  26.108  11.681 -0.4872  0.2619  0.1057
 1093DOPE   C3B12823   6.237  25.794  12.018  0.1721 -0.1100 -0.3602
 1093DOPE   C4B12824   6.176  25.484  12.352 -0.2792  0.5289 -0.1159
 1094DOPC   NC312825   2.753  28.095   9.718 -0.2895  0.2977  0.1439
 1094DOPC   PO412826   3.143  27.912   9.850 -0.1853  0.0449  0.2651
 1094DOPC   GL112827   3.053  27.850  10.194 -0.1623  0.0683 -0.1484
 1094DOPC   GL212828   2.818  27.960  10.220 -0.2068  0.1958 -0.1205
 1094DOPC   C1A12829   3.142  27.853  10.648  0.0804 -0.1762 -0.2014
 1094DOPC   D2A12830   2.945  27.624  11.005 -0.2255  0.1096  0.0027
 1094DOPC   C3A12831   2.536  27.839  11.011  0.1405 -0.3348  0.1986
 1094DOPC   C4A12832   2.098  27.920  10.864 -0.0004 -0.0292  0.1531
 1094DOPC   C1B12833   2.595  28.114  10.609 -0.2527 -0.1271  0.0699
 1094DOPC   D2B12834   2.438  28.320  10.948  0.0393  0.2357 -0.2953
 1094DOPC   C3B12835   2.275  28.165  11.388 -0.0109  0.0246  0.0042
 1094DOPC   C4B12836   2.092  27.956  11.717  0.0227 -0.0992  0.0802
 1095DOPC   NC312837   8.637  32.364  10.884 -0.1890 -0.1678 -0.0742
 1095DOPC   PO412838   8.502  32.012  10.717  0.0455 -0.0203 -0.0707
 1095DOPC   GL112839   8.556  31.957  11.094  0.1534  0.2647 -0.3815
 1095DOPC   GL212840   8.271  32.087  11.143  0.2091  0.1687  0.0061
 1095DOPC   C1A12841   8.557  31.929  11.556  0.0785  0.3774 -0.0587
 1095DOPC   D2A12842   8.330  31.967  11.978  0.0362 -0.0910  0.4441
 1095DOPC   C3A12843   8.643  31.834  12.339  0.2914  0.2398  0.0388
 1095DOPC   C4A12844   8.777  31.548  12.671 -0.2085  0.0669  0.0534
 1095DOPC   C1B12845   8.090  31.788  11.468  0.1440  0.0663  0.0783
 1095DOPC   D2B12846   7.887  31.575  11.803  0.3971  0.0116 -0.2129
 1095DOPC   C3B12847   7.934  31.670  12.257  0.0642  0.0913  0.0485
 1095DOPC   C4B12848   8.235  31.800  12.651  0.2075  0.0399  0.0265
 1096POSM   NC312849   6.512  34.268  10.928 -0.0714  0.1398  0.1343
 1096POSM   PO412850   6.422  34.631  10.814  0.1082  0.3831 -0.1160
 1096POSM   AM112851   6.350  34.699  11.152 -0.0966  0.3325 -0.2135
 1096POSM   AM212852   6.257  34.611  11.401 -0.0240  0.0369  0.0193
 1096POSM   T1A12853   6.425  34.996  11.604  0.2075  0.3381  0.0733
 1096POSM   C2A12854   6.543  35.249  12.024 -0.1312 -0.0975  0.0721
 1096POSM   C3A12855   6.736  35.285  12.451 -0.1446 -0.0508 -0.1188
 1096POSM   C1B12856   6.323  34.407  11.719  0.0155  0.1317  0.0417
 1096POSM   D2B12857   6.054  34.009  11.857  0.0571  0.2701 -0.1479
 1096POSM   C3B12858   5.747  34.152  12.137  0.1820  0.0308 -0.2124
 1096POSM   C4B12859   5.353  34.334  12.209  0.0251 -0.1800 -0.1347
 1097DOPE   NH312860   4.322  28.334   9.973 -0.1191  0.0522  0.0284
 1097DOPE   PO412861   4.156  28.622   9.786  0.2670 -0.3784  0.0514
 1097DOPE   GL112862   4.060  28.870  10.142  0.3008 -0.0717 -0.5279
 1097DOPE   GL212863   4.216  29.078  10.120 -0.1300  0.3308  0.2769
 1097DOPE   C1A12864   3.967  28.736  10.608 -0.1897  0.0465 -0.2176
 1097DOPE   D2A12865   3.972  28.819  11.055  0.0054  0.1835  0.1450
 1097DOPE   C3A12866   4.277  29.228  11.017 -0.3924  0.0190 -0.0625
 1097DOPE   C4A12867   4.764  29.240  11.033  0.3547  0.2420 -0.0156
 1097DOPE   C1B12868   4.334  29.087  10.529  0.0578  0.1017  0.2002
 1097DOPE   D2B12869   4.412  28.764  10.866  0.0133  0.1094 -0.1564
 1097DOPE   C3B12870   4.459  28.856  11.377 -0.1906  0.0783 -0.0855
 1097DOPE   C4B12871   4.533  28.703  11.855  0.2376 -0.0015  0.0442
 1098DOPS   CNO12872   0.732  30.472   9.557  0.3306  0.1018  0.2257
 1098DOPS   PO412873   0.831  30.403   9.879 -0.1027 -0.0859  0.0639
 1098DOPS   GL112874   0.959  30.489  10.286  0.1334 -0.2394 -0.2268
 1098DOPS   GL212875   0.949  30.192  10.366 -0.0990  0.1532 -0.0842
 1098DOPS   C1A12876   0.837  30.545  10.722  0.2578 -0.1206 -0.0220
 1098DOPS   D2A12877   0.395  30.614  10.905  0.0622 -0.1582 -0.1328
 1098DOPS   C3A12878   0.548  30.746  11.309 -0.3389 -0.0631 -0.0703
 1098DOPS   C4A12879   0.932  30.799  11.660 -0.2122  0.1769  0.3101
 1098DOPS   C1B12880   1.123  29.766  10.481  0.0557 -0.2839  0.2340
 1098DOPS   D2B12881   1.421  29.435  10.465  0.0205 -0.4145 -0.1577
 1098DOPS   C3B12882   1.685  29.143  10.745  0.1426 -0.0987 -0.1141
 1098DOPS   C4B12883   1.800  28.791  10.950 -0.1707  0.4057 -0.2118
 1099DOPC   NC312884   6.943   0.364  10.600 -0.3793  0.4062  0.1616
 1099DOPC   PO412885   6.765   0.446  10.890  0.1342  0.0732 -0.0058
 1099DOPC   GL112886   6.677   0.380  11.242 -0.1525  0.2131  0.0145
 1099DOPC   GL212887   6.775   0.065  11.200  0.0680 -0.2101  0.0677
 1099DOPC   C1A12888   6.873   0.375  11.672  0.0102 -0.0539 -0.0821
 1099DOPC   D2A12889   7.000   0.242  12.090  0.1858 -0.1596 -0.2575
 1099DOPC   C3A12890   7.153  -0.219  12.113  0.1203 -0.2279  0.0105
 1099DOPC   C4A12891   7.580  -0.464  11.985  0.2384 -0.2188  0.1607
 1099DOPC   C1B12892   6.814  -0.187  11.621  0.0390  0.0566  0.1634
 1099DOPC   D2B12893   6.584  -0.132  12.004 -0.3312 -0.0831 -0.3113
 1099DOPC   C3B12894   6.149   0.048  12.030 -0.0836  0.1899  0.0360
 1099DOPC   C4B12895   5.977   0.448  12.221  0.1275  0.0518 -0.0252
 1100DOPE   NH312896   2.593  28.999   9.697 -0.0122 -0.1775 -0.3150
 1100DOPE   PO412897   2.510  29.268   9.847 -0.2700 -0.1063 -0.3140
 1100DOPE   GL112898   2.520  29.308  10.320  0.0173  0.0866 -0.0272
 1100DOPE   GL212899   2.629  29.602  10.389  0.2727  0.2385 -0.0016
 1100DOPE   C1A12900   2.692  29.120  10.702 -0.1592  0.1052 -0.0941
 1100DOPE   D2A12901   2.709  29.101  11.157 -0.0205 -0.1589 -0.2185
 1100DOPE   C3A12902   2.578  29.433  11.457  0.0527  0.2763  0.0810
 1100DOPE   C4A12903   2.707  29.831  11.299  0.0688  0.0757  0.0685
 1100DOPE   C1B12904   2.547  29.981  10.694  0.2106 -0.3759  0.1782
 1100DOPE   D2B12905   2.662  30.289  11.033 -0.3661  0.3439 -0.1211
 1100DOPE   C3B12906   2.479  30.241  11.465 -0.1623 -0.0204  0.1582
 1100DOPE   C4B12907   2.437  30.383  11.951 -0.1769 -0.3358  0.0509
 1101DOPE   NH312908   5.042  30.539   9.883  0.2863 -0.1106 -0.0793
 1101DOPE   PO412909   4.786  30.656  10.006  0.2989  0.1640  0.0094
 1101DOPE   GL112910   4.673  30.677  10.370 -0.3442  0.0010  0.2298
 1101DOPE   GL212911   4.405  30.521  10.360  0.1317 -0.4583 -0.0354
 1101DOPE   C1A12912   4.811  30.779  10.804  0.0258  0.1853  0.0044
 1101DOPE   D2A12913   4.906  31.026  11.141 -0.1116  0.3231 -0.0839
 1101DOPE   C3A12914   5.086  31.043  11.499 -0.0359 -0.0933 -0.0021
 1101DOPE   C4A12915   5.288  30.873  11.898  0.0154  0.2183 -0.1598
 1101DOPE   C1B12916   4.453  30.337  10.811  0.0883 -0.0040 -0.1119
 1101DOPE   D2B12917   4.194  30.357  11.220 -0.0494  0.5829 -0.0207
 1101DOPE   C3B12918   4.183  30.618  11.620  0.1322 -0.0238  0.0988
 1101DOPE   C4B12919   4.111  30.762  12.071  0.0071 -0.0522 -0.2373
 1102POSM   NC312920   8.794  28.465  10.579 -0.2346  0.0658  0.3226
 1102POSM   PO412921   9.154  28.503  10.755  0.1517 -0.0530 -0.4869
 1102POSM   AM112922   9.120  28.609  11.097  0.0597 -0.1027 -0.1783
 1102POSM   AM212923   9.269  28.702  11.305  0.1245 -0.0074  0.0880
 1102POSM   T1A12924   8.784  28.607  11.487  0.0809  0.0132 -0.1759
 1102POSM   C2A12925   8.665  28.707  11.931 -0.1701 -0.2860  0.0501
 1102POSM   C3A12926   8.661  28.674  12.421  0.2139 -0.1016  0.0552
 1102POSM   C1B12927   9.405  28.655  11.600 -0.3069  0.2978  0.0587
 1102POSM   D2B12928   9.567  28.814  11.962  0.3753 -0.0302 -0.0659
 1102POSM   C3B12929   9.974  28.607  12.090 -0.1461 -0.3416 -0.2511
 1102POSM   C4B12930  10.335  28.518  11.877  0.0722  0.2097  0.3676
 1103POSM   NC312931   8.716  30.167  10.416  0.0356 -0.2357 -0.0236
 1103POSM   PO412932   9.085  30.327  10.383  0.1167 -0.1088  0.3145
 1103POSM   AM112933   9.171  30.462  10.669  0.1300  0.1217  0.0099
 1103POSM   AM212934   9.259  30.337  10.882  0.1299 -0.4197  0.0766
 1103POSM   T1A12935   9.155  30.930  10.846 -0.1096  0.0117 -0.1081
 1103POSM   C2A12936   9.509  31.065  11.084  0.3447  0.0408 -0.1608
 1103POSM   C3A12937   9.851  31.300  11.268  0.0833  0.3733  0.0352
 1103POSM   C1B12938   9.047  30.374  11.150  0.1675  0.1004  0.3240
 1103POSM   D2B12939   8.848  30.449  11.555  0.2707 -0.1845 -0.0481
 1103POSM   C3B12940   8.492  30.239  11.704  0.1505  0.0302 -0.0730
 1103POSM   C4B12941   8.699  30.015  12.078 -0.0973  0.1507 -0.0366
 1104DOPC   NC312942   3.924  30.346  10.175  0.4495 -0.1756 -0.2264
 1104DOPC   PO412943   3.605  30.563  10.152  0.1202 -0.0251 -0.1245
 1104DOPC   GL112944   3.170  30.589  10.212 -0.0909 -0.0199 -0.3248
 1104DOPC   GL212945   3.181  30.295  10.260 -0.2032 -0.1649 -0.0049
 1104DOPC   C1A12946   3.086  30.663  10.673 -0.1908 -0.2660  0.1149
 1104DOPC   D2A12947   3.125  30.509  11.072 -0.1401 -0.0756  0.0151
 1104DOPC   C3A12948   2.963  30.222  11.422  0.0021 -0.0154 -0.2020
 1104DOPC   C4A12949   2.825  29.977  11.771 -0.0269 -0.2531 -0.0318
 1104DOPC   C1B12950   3.007  30.141  10.640  0.1353  0.1066  0.0427
 1104DOPC   D2B12951   2.915  29.753  10.880  0.0767 -0.2458  0.2230
 1104DOPC   C3B12952   3.106  29.492  11.216  0.0635 -0.0228 -0.0279
 1104DOPC   C4B12953   3.032  29.394  11.667 -0.4499  0.0566  0.0661
 1105DOPC   NC312954   4.249  33.437   9.740 -0.0036  0.0898 -0.0061
 1105DOPC   PO412955   4.342  33.386  10.106  0.1074  0.3320  0.2259
 1105DOPC   GL112956   4.297  33.104  10.440  0.0286 -0.2832  0.5018
 1105DOPC   GL212957   4.300  32.836  10.425  0.1885  0.2105 -0.0122
 1105DOPC   C1A12958   4.588  33.073  10.792  0.2643  0.1019 -0.1846
 1105DOPC   D2A12959   4.756  32.906  11.161  0.4063  0.1500 -0.3135
 1105DOPC   C3A12960   4.568  33.058  11.508 -0.1201  0.2198  0.0092
 1105DOPC   C4A12961   4.705  33.480  11.653 -0.0049  0.1302  0.0976
 1105DOPC   C1B12962   4.289  32.682  10.857  0.0264  0.2105 -0.1209
 1105DOPC   D2B12963   4.208  32.494  11.256 -0.1991 -0.1704  0.3223
 1105DOPC   C3B12964   4.206  32.675  11.701 -0.0393 -0.2439  0.1552
 1105DOPC   C4B12965   4.456  32.893  12.014 -0.1916 -0.0489 -0.0443
 1106DOPC   NC312966   3.234  31.137   9.974  0.1699  0.0834  0.0427
 1106DOPC   PO412967   3.478  31.417   9.882 -0.0242  0.0995  0.0628
 1106DOPC   GL112968   3.629  31.321  10.257 -0.0582 -0.1291  0.1636
 1106DOPC   GL212969   3.588  31.092  10.359  0.4135 -0.0203  0.2591
 1106DOPC   C1A12970   3.710  31.364  10.784  0.1564 -0.0570 -0.0779
 1106DOPC   D2A12971   3.634  31.271  11.189 -0.1400 -0.0070  0.3281
 1106DOPC   C3A12972   3.330  31.315  11.536 -0.3744 -0.1024 -0.2081
 1106DOPC   C4A12973   2.961  31.141  11.762 -0.0468 -0.0533 -0.0308
 1106DOPC   C1B12974   3.609  30.885  10.738  0.0171  0.1219 -0.1550
 1106DOPC   D2B12975   3.850  30.808  11.099  0.4012 -0.2275 -0.0604
 1106DOPC   C3B12976   3.698  30.574  11.484 -0.0702  0.3240  0.2855
 1106DOPC   C4B12977   3.898  30.218  11.741 -0.1618 -0.2353  0.0627
 1107POSM   NC312978   2.561  26.282  10.023  0.0041  0.2257 -0.0950
 1107POSM   PO412979   2.916  26.403   9.907 -0.2240 -0.0315 -0.0925
 1107POSM   AM112980   2.942  26.558  10.223 -0.2592 -0.1551 -0.0149
 1107POSM   AM212981   3.117  26.736  10.397 -0.1255  0.1543  0.1596
 1107POSM   T1A12982   3.053  26.438  10.702 -0.0454  0.3129 -0.0361
 1107POSM   C2A12983   3.009  26.160  11.112  0.2030 -0.0176  0.2366
 1107POSM   C3A12984   3.142  25.763  11.189  0.2535 -0.2660 -0.2094
 1107POSM   C1B12985   2.870  26.930  10.562 -0.0085  0.2302  0.2639
 1107POSM   D2B12986   2.855  27.063  11.068 -0.3295 -0.1667 -0.1149
 1107POSM   C3B12987   2.656  27.351  11.263  0.1897  0.0345  0.1128
 1107POSM   C4B12988   2.447  27.664  11.509  0.1747 -0.3352  0.0266
 1108DOPC   NC312989   5.262   2.499  11.590 -0.2283  0.2841 -0.1618
 1108DOPC   PO412990   5.307   2.319  11.268 -0.0992 -0.2398 -0.1162
 1108DOPC   GL112991   5.325   1.922  11.492  0.1504 -0.0586 -0.1408
 1108DOPC   GL212992   5.176   2.023  11.775  0.0711 -0.0195 -0.1613
 1108DOPC   C1A12993   4.932   1.647  11.488 -0.0097 -0.0634  0.1179
 1108DOPC   D2A12994   4.671   1.329  11.677 -0.2124  0.0460 -0.1689
 1108DOPC   C3A12995   4.208   1.261  11.869 -0.3944 -0.1167 -0.3853
 1108DOPC   C4A12996   4.008   0.946  12.159 -0.0504  0.0022 -0.0280
 1108DOPC   C1B12997   5.303   1.980  12.237 -0.2945  0.1191 -0.1249
 1108DOPC   D2B12998   5.582   1.740  12.498 -0.0407  0.1319 -0.1836
 1108DOPC   C3B12999   5.552   1.613  12.925  0.1316 -0.1480  0.1698
 1108DOPC   C4B13000   5.752   1.805  13.286 -0.1569  0.0049 -0.0137
 1109POSM   NC313001   9.766  26.620  10.552  0.0462  0.0808 -0.3253
 1109POSM   PO413002   9.799  26.989  10.424 -0.0592 -0.3552  0.1397
 1109POSM   AM113003   9.953  27.002  10.739 -0.3108  0.1445  0.4331
 1109POSM   AM213004  10.153  26.859  10.852  0.1082  0.1584 -0.2365
 1109POSM   T1A13005   9.928  26.977  11.280  0.1303  0.0746  0.1513
 1109POSM   C2A13006  10.111  26.663  11.580  0.0064 -0.1937 -0.0920
 1109POSM   C3A13007  10.392  26.323  11.744 -0.0697  0.0117  0.0420
 1109POSM   C1B13008  10.334  26.736  11.095  0.2406  0.3061 -0.2800
 1109POSM   D2B13009  10.628  26.639  11.365 -0.1704 -0.0926  0.1209
 1109POSM   C3B13010  11.003  26.455  11.584  0.1581  0.1978  0.1235
 1109POSM   C4B13011  11.361  26.628  11.847 -0.1416 -0.0846  0.0388
 1110DOPS   CNO13012   7.768  25.133  10.374 -0.2942  0.2782 -0.3064
 1110DOPS   PO413013   7.858  24.813  10.566 -0.0658  0.1931 -0.0462
 1110DOPS   GL113014   7.550  24.775  10.790  0.4156 -0.1496 -0.1374
 1110DOPS   GL213015   7.616  24.939  11.019  0.1395 -0.2586  0.0820
 1110DOPS   C1A13016   7.212  24.704  11.122 -0.0442  0.1106  0.2503
 1110DOPS   D2A13017   6.909  24.798  11.458 -0.0713  0.0906 -0.2033
 1110DOPS   C3A13018   6.971  24.792  11.930 -0.1418 -0.0086  0.2014
 1110DOPS   C4A13019   7.219  24.800  12.322  0.1107 -0.0952 -0.1297
 1110DOPS   C1B13020   7.909  24.913  11.358 -0.0942 -0.1325 -0.2540
 1110DOPS   D2B13021   8.070  24.593  11.598  0.2601 -0.4092 -0.2125
 1110DOPS   C3B13022   8.161  24.162  11.829  0.3236  0.2437  0.0667
 1110DOPS   C4B13023   8.223  24.001  12.289 -0.0832 -0.1346 -0.2597
 1111DOPC   NC313024   4.472  31.019  10.139  0.1406  0.1663 -0.0832
 1111DOPC   PO413025   4.250  31.255   9.940 -0.0006 -0.1726  0.2170
 1111DOPC   GL113026   4.234  31.374  10.375 -0.5330 -0.2760  0.1246
 1111DOPC   GL213027   4.080  31.282  10.496  0.1740 -0.1354 -0.2955
 1111DOPC   C1A13028   4.520  31.123  10.650  0.2413  0.0006  0.1365
 1111DOPC   D2A13029   4.322  30.824  10.953 -0.2633  0.2652 -0.0294
 1111DOPC   C3A13030   4.582  30.709  11.321 -0.0661  0.5429  0.0971
 1111DOPC   C4A13031   4.924  30.548  11.630  0.1056  0.1718 -0.1236
 1111DOPC   C1B13032   4.206  31.365  10.926 -0.0214 -0.1717  0.0956
 1111DOPC   D2B13033   4.167  31.139  11.342 -0.3525  0.0552 -0.0007
 1111DOPC   C3B13034   3.813  31.031  11.649  0.1648 -0.2778 -0.0932
 1111DOPC   C4B13035   3.450  30.868  11.883  0.1062 -0.0709 -0.0595
 1112DOPS   CNO13036   2.294   1.165  10.355  0.2342  0.2416 -0.4132
 1112DOPS   PO413037   2.460   0.821  10.390  0.1327 -0.0041  0.0721
 1112DOPS   GL113038   2.055   0.775  10.565 -0.2772  0.1601  0.0210
 1112DOPS   GL213039   2.189   0.746  10.811 -0.2280  0.2591  0.1097
 1112DOPS   C1A13040   1.761   0.895  10.899  0.1272  0.2559 -0.2788
 1112DOPS   D2A13041   1.604   0.880  11.334 -0.3096  0.0266  0.3713
 1112DOPS   C3A13042   1.320   1.135  11.605  0.1521  0.1752 -0.2217
 1112DOPS   C4A13043   0.984   1.268  11.848 -0.0329  0.1052 -0.2841
 1112DOPS   C1B13044   2.085   0.723  11.264  0.4269 -0.3211  0.0600
 1112DOPS   D2B13045   2.042   0.892  11.642 -0.0638  0.3146  0.0911
 1112DOPS   C3B13046   1.952   0.930  12.098  0.2630 -0.3109 -0.0623
 1112DOPS   C4B13047   1.774   0.898  12.537  0.2668 -0.0967  0.3196
 1113DOPE   NH313048   6.559  33.448  10.471  0.1004  0.0189 -0.0208
 1113DOPE   PO413049   6.276  33.509  10.404  0.1714 -0.0489 -0.0420
 1113DOPE   GL113050   6.004  33.514  10.688  0.1508  0.2883 -0.1254
 1113DOPE   GL213051   5.767  33.391  10.597  0.0700  0.4765 -0.1712
 1113DOPE   C1A13052   5.967  33.472  11.139 -0.1995  0.0576  0.3723
 1113DOPE   D2A13053   5.772  33.504  11.605 -0.1670  0.0208 -0.1101
 1113DOPE   C3A13054   5.572  33.155  11.892 -0.1113 -0.0636 -0.1295
 1113DOPE   C4A13055   5.294  33.189  12.254 -0.2445 -0.0749  0.1289
 1113DOPE   C1B13056   5.568  33.244  10.969 -0.2026  0.1835 -0.3240
 1113DOPE   D2B13057   5.292  33.181  11.377 -0.0353 -0.0215 -0.2078
 1113DOPE   C3B13058   4.894  33.369  11.165 -0.0878 -0.0695 -0.2494
 1113DOPE   C4B13059   4.627  33.710  11.122  0.0092  0.2068 -0.0768
 1114DOPE   NH313060  11.864  23.935  10.114 -0.1773 -0.0289 -0.1580
 1114DOPE   PO413061  11.592  23.794  10.002 -0.0620 -0.1210  0.1185
 1114DOPE   GL113062  11.518  23.817  10.399 -0.0547  0.3216  0.2353
 1114DOPE   GL213063  11.331  23.595  10.600 -0.0876 -0.2619  0.0840
 1114DOPE   C1A13064  11.476  24.161  10.675 -0.1412  0.0429  0.3883
 1114DOPE   D2A13065  11.319  24.402  11.112 -0.0011 -0.1204 -0.0380
 1114DOPE   C3A13066  11.558  24.675  11.435  0.0147  0.1899  0.0391
 1114DOPE   C4A13067  11.564  24.873  11.824  0.2833  0.2019 -0.3216
 1114DOPE   C1B13068  11.196  23.774  10.978  0.0832 -0.0682 -0.1397
 1114DOPE   D2B13069  10.971  24.068  11.270  0.1190 -0.0764  0.0510
 1114DOPE   C3B13070  11.188  24.243  11.591  0.0265 -0.1514 -0.0314
 1114DOPE   C4B13071  11.172  24.535  11.921  0.3218  0.5304 -0.0101
 1115DOPE   NH313072   6.909  27.284  10.191  0.1149 -0.1474  0.1107
 1115DOPE   PO413073   6.659  27.092  10.298 -0.1283  0.1705  0.0690
 1115DOPE   GL113074   6.540  27.114  10.667  0.1537 -0.0545 -0.1343
 1115DOPE   GL213075   6.628  26.956  10.809 -0.1963 -0.0166 -0.0246
 1115DOPE   C1A13076   6.138  27.283  10.866 -0.2291 -0.1605  0.1720
 1115DOPE   D2A13077   6.002  27.591  11.204 -0.1351 -0.1432  0.3112
 1115DOPE   C3A13078   6.074  27.433  11.673  0.2202 -0.0763 -0.5770
 1115DOPE   C4A13079   6.256  27.262  12.049 -0.2873  0.1502  0.0640
 1115DOPE   C1B13080   6.262  26.775  11.019 -0.0503 -0.1455 -0.1342
 1115DOPE   D2B13081   6.129  26.538  11.356  0.0330 -0.1138  0.2456
 1115DOPE   C3B13082   5.811  26.619  11.704  0.0754  0.0565 -0.1976
 1115DOPE   C4B13083   5.680  27.020  11.934  0.1599  0.3485 -0.0274
 1116DOPC   NC313084   5.367  25.192  10.581  0.0324 -0.0414  0.1619
 1116DOPC   PO413085   5.736  25.253  10.521 -0.1381  0.1104 -0.3427
 1116DOPC   GL113086   5.859  25.381  10.937  0.1941 -0.0649  0.1220
 1116DOPC   GL213087   5.945  25.092  11.030  0.0613 -0.0132  0.3083
 1116DOPC   C1A13088   5.790  25.331  11.383  0.0106  0.0225  0.1674
 1116DOPC   D2A13089   5.437  25.360  11.613 -0.0075  0.3541 -0.1393
 1116DOPC   C3A13090   5.118  25.044  11.570 -0.3639 -0.0102 -0.1111
 1116DOPC   C4A13091   4.688  25.150  11.494 -0.0866  0.2487 -0.2041
 1116DOPC   C1B13092   6.141  24.935  11.439 -0.1687  0.0830 -0.0674
 1116DOPC   D2B13093   6.461  24.684  11.642 -0.1960  0.0569 -0.0311
 1116DOPC   C3B13094   6.525  24.654  12.133  0.1226 -0.1669  0.1006
 1116DOPC   C4B13095   6.494  24.275  12.423 -0.0562 -0.4863  0.1418
 1117DOPS   CNO13096  10.890  31.378  10.615 -0.0876  0.0364 -0.0257
 1117DOPS   PO413097  11.214  31.381  10.762  0.2660 -0.1675 -0.0443
 1117DOPS   GL113098  11.049  31.480  11.097 -0.2741  0.1565  0.1500
 1117DOPS   GL213099  10.801  31.557  11.234  0.0282 -0.1700 -0.1886
 1117DOPS   C1A13100  11.275  31.212  11.482 -0.3478  0.1378  0.1744
 1117DOPS   D2A13101  11.181  31.077  11.923  0.0274 -0.1709 -0.0809
 1117DOPS   C3A13102  11.312  30.666  12.148  0.1729 -0.0109 -0.0019
 1117DOPS   C4A13103  11.599  30.418  12.032 -0.1070  0.0449  0.1607
 1117DOPS   C1B13104  10.721  31.340  11.641 -0.0762  0.0766 -0.0929
 1117DOPS   D2B13105  10.258  31.224  11.814 -0.1889  0.2253  0.3280
 1117DOPS   C3B13106  10.127  31.417  12.160  0.0429  0.1021 -0.2179
 1117DOPS   C4B13107  10.365  31.811  12.384 -0.3340 -0.0316 -0.2452
 1118DOPS   CNO13108   8.301  32.681  10.142 -0.2666 -0.0307 -0.1288
 1118DOPS   PO413109   8.434  32.586  10.525  0.0319  0.1799  0.1622
 1118DOPS   GL113110   8.215  32.547  10.854  0.2161 -0.0932 -0.4643
 1118DOPS   GL213111   7.965  32.371  10.820  0.1982 -0.0448 -0.0704
 1118DOPS   C1A13112   7.931  32.748  11.190  0.0106  0.0959 -0.0824
 1118DOPS   D2A13113   7.692  32.558  11.526 -0.1062  0.0617  0.2004
 1118DOPS   C3A13114   7.651  32.757  11.927 -0.2457  0.4299 -0.2106
 1118DOPS   C4A13115   7.487  32.942  12.308  0.1030 -0.2899  0.0556
 1118DOPS   C1B13116   7.511  32.455  10.978 -0.1421  0.2289 -0.3770
 1118DOPS   D2B13117   7.210  32.623  11.285 -0.0587 -0.2162 -0.1165
 1118DOPS   C3B13118   7.206  32.462  11.736  0.1179  0.0742  0.0756
 1118DOPS   C4B13119   7.251  32.135  12.115 -0.2277 -0.1626 -0.1475
 1119DOPC   NC313120   4.733  30.126  10.458 -0.2388 -0.2983 -0.1367
 1119DOPC   PO413121   5.040  30.318  10.351  0.0230  0.2912  0.0590
 1119DOPC   GL113122   5.154  30.353  10.763 -0.3007 -0.2305  0.1231
 1119DOPC   GL213123   5.056  30.134  10.906  0.1844  0.2390 -0.2706
 1119DOPC   C1A13124   5.154  30.635  11.163  0.1844 -0.1223 -0.0125
 1119DOPC   D2A13125   5.464  30.679  11.509  0.0654  0.4182  0.2378
 1119DOPC   C3A13126   5.572  31.142  11.634  0.0649 -0.3097  0.1878
 1119DOPC   C4A13127   5.530  31.400  12.011  0.0672  0.1468  0.2223
 1119DOPC   C1B13128   4.702  30.126  11.230 -0.1785  0.1177 -0.0067
 1119DOPC   D2B13129   4.451  29.779  11.385  0.1797  0.0367  0.0814
 1119DOPC   C3B13130   4.554  29.353  11.534 -0.0292 -0.1974 -0.0050
 1119DOPC   C4B13131   4.907  29.144  11.777 -0.0503  0.1074 -0.0458
 1120DOPS   CNO13132   2.974  30.260   9.802  0.0168  0.2885  0.0472
 1120DOPS   PO413133   2.611  30.247   9.935  0.0441  0.1412  0.2115
 1120DOPS   GL113134   2.290  30.301  10.055 -0.0441 -0.1746 -0.0250
 1120DOPS   GL213135   2.299  30.584  10.218  0.0167 -0.3029 -0.0131
 1120DOPS   C1A13136   2.139  30.185  10.455 -0.1325  0.0335 -0.1477
 1120DOPS   D2A13137   2.077  30.085  10.879  0.1006 -0.1013  0.1381
 1120DOPS   C3A13138   1.641  29.899  10.901  0.0967 -0.0883  0.1864
 1120DOPS   C4A13139   1.530  29.508  11.065  0.1562 -0.1366 -0.1062
 1120DOPS   C1B13140   2.350  30.593  10.699  0.1738 -0.3160 -0.0071
 1120DOPS   D2B13141   2.199  30.508  11.111 -0.2393  0.0388  0.2434
 1120DOPS   C3B13142   1.945  30.617  11.517 -0.2802 -0.0305 -0.0271
 1120DOPS   C4B13143   1.921  30.891  11.847  0.0767  0.3664 -0.1800
 1121DOPS   CNO13144   0.482  33.485   9.948  0.2452  0.3793  0.0288
 1121DOPS   PO413145   0.691  33.341  10.232  0.1476 -0.0315  0.1486
 1121DOPS   GL113146   0.678  33.392  10.612  0.5166  0.0621 -0.1175
 1121DOPS   GL213147   0.900  33.551  10.664 -0.0152 -0.1336  0.2341
 1121DOPS   C1A13148   0.376  33.238  10.903  0.2632  0.2373  0.1186
 1121DOPS   D2A13149  -0.119  33.236  10.962  0.0434 -0.2031 -0.0340
 1121DOPS   C3A13150  -0.297  33.627  11.172 -0.0200 -0.2037  0.2358
 1121DOPS   C4A13151  -0.206  33.684  11.623  0.0522 -0.0105 -0.2087
 1121DOPS   C1B13152   0.709  33.592  11.125 -0.0206  0.0982  0.0284
 1121DOPS   D2B13153   0.317  33.517  11.447 -0.3584 -0.0300 -0.0314
 1121DOPS   C3B13154   0.291  33.465  11.933 -0.1194 -0.3425  0.1539
 1121DOPS   C4B13155   0.018  33.341  12.254 -0.0118 -0.0981  0.3470
 1122DOPC   NC313156   1.725  33.225  10.488 -0.1855  0.1483 -0.0193
 1122DOPC   PO413157   1.622  33.343  10.101  0.2422 -0.0864 -0.0967
 1122DOPC   GL113158   1.424  33.589  10.357 -0.2105 -0.7174 -0.1269
 1122DOPC   GL213159   1.672  33.760  10.460 -0.2095  0.0347 -0.0079
 1122DOPC   C1A13160   1.401  33.507  10.802  0.1570 -0.0144 -0.0932
 1122DOPC   D2A13161   1.217  33.539  11.229  0.0384 -0.0334  0.0783
 1122DOPC   C3A13162   1.411  33.334  11.592  0.3972 -0.0113  0.2992
 1122DOPC   C4A13163   1.612  33.485  12.043  0.1160  0.1601  0.2805
 1122DOPC   C1B13164   1.825  33.759  10.882  0.2833  0.0870 -0.0340
 1122DOPC   D2B13165   1.915  34.102  11.206  0.1085  0.0194 -0.2052
 1122DOPC   C3B13166   1.862  34.375  11.617 -0.1055 -0.0412  0.0202
 1122DOPC   C4B13167   1.655  34.724  11.797 -0.1890 -0.1403  0.0438
 1123DOPE   NH313168   8.368  23.766  10.283  0.0631 -0.0356  0.3815
 1123DOPE   PO413169   8.222  23.852  10.596 -0.0110 -0.0319 -0.0136
 1123DOPE   GL113170   8.314  23.775  11.063 -0.0034  0.1230 -0.0726
 1123DOPE   GL213171   8.377  23.537  11.064  0.1496  0.2421  0.2156
 1123DOPE   C1A13172   8.279  23.747  11.548 -0.0363  0.1336  0.0673
 1123DOPE   D2A13173   8.281  23.652  11.989 -0.0779 -0.0248  0.1122
 1123DOPE   C3A13174   8.654  23.657  12.242 -0.4900 -0.0901 -0.1529
 1123DOPE   C4A13175   8.913  23.879  12.561 -0.2465  0.2385 -0.1460
 1123DOPE   C1B13176   8.370  23.251  11.428 -0.1073  0.0428  0.0865
 1123DOPE   D2B13177   8.458  23.093  11.869  0.0426  0.2352  0.1376
 1123DOPE   C3B13178   8.844  23.164  12.157 -0.1236 -0.1418 -0.2158
 1123DOPE   C4B13179   9.178  22.988  12.459 -0.2674 -0.1512  0.2504
 1124DOPE   NH313180   2.564   0.342  10.311 -0.1801 -0.1710  0.1278
 1124DOPE   PO413181   2.422   0.121  10.496  0.3329  0.1200  0.2385
 1124DOPE   GL113182   2.546   0.376  10.764  0.0418  0.1907 -0.1526
 1124DOPE   GL213183   2.706   0.633  10.789 -0.3308  0.1035 -0.2553
 1124DOPE   C1A13184   2.296   0.276  11.157 -0.1933 -0.0769 -0.0160
 1124DOPE   D2A13185   2.006   0.164  11.499 -0.1358 -0.0191  0.0387
 1124DOPE   C3A13186   2.019   0.420  11.946 -0.0519  0.0576 -0.1633
 1124DOPE   C4A13187   2.239   0.392  12.352 -0.0037  0.0077 -0.1422
 1124DOPE   C1B13188   2.617   0.714  11.228 -0.1091  0.1133  0.0818
 1124DOPE   D2B13189   2.497   0.998  11.534  0.0612  0.1685  0.0984
 1124DOPE   C3B13190   2.193   1.265  11.309 -0.2373 -0.2439 -0.1782
 1124DOPE   C4B13191   1.721   1.349  11.298  0.0657  0.1515  0.2484
 1125POSM   NC313192   3.786  27.225   9.978  0.4079 -0.2471 -0.1588
 1125POSM   PO413193   3.807  26.895   9.772 -0.2655  0.2725  0.0930
 1125POSM   AM113194   3.826  26.744  10.066  0.1260  0.2675  0.1024
 1125POSM   AM213195   3.684  26.637  10.305 -0.1502  0.0588 -0.0524
 1125POSM   T1A13196   4.145  26.639  10.413 -0.1042 -0.0110  0.2832
 1125POSM   C2A13197   4.412  26.532  10.759  0.2613 -0.0480 -0.0622
 1125POSM   C3A13198   4.387  26.210  11.077  0.0294  0.0218  0.2676
 1125POSM   C1B13199   3.571  26.470  10.586 -0.0347 -0.0385 -0.4165
 1125POSM   D2B13200   3.381  26.082  10.755 -0.1211 -0.1859  0.0348
 1125POSM   C3B13201   3.540  26.081  11.164  0.2434 -0.0386 -0.1052
 1125POSM   C4B13202   3.782  26.313  11.473  0.2035 -0.3755  0.0192
 1126DOPS   CNO13203   6.460  31.244   9.940  0.1152  0.3117 -0.0183
 1126DOPS   PO413204   6.827  31.195  10.087 -0.2698 -0.0952 -0.1742
 1126DOPS   GL113205   6.916  31.335  10.466  0.1775  0.0612 -0.4490
 1126DOPS   GL213206   7.189  31.369  10.511 -0.2667  0.0592  0.3077
 1126DOPS   C1A13207   6.628  31.276  10.846  0.2794  0.1133 -0.3229
 1126DOPS   D2A13208   6.322  31.275  11.197  0.1667  0.0695  0.2162
 1126DOPS   C3A13209   6.096  31.419  11.526  0.1251  0.2070  0.1526
 1126DOPS   C4A13210   6.143  31.364  12.005  0.1799 -0.1789  0.0746
 1126DOPS   C1B13211   7.233  31.227  10.874  0.2735 -0.1063 -0.1517
 1126DOPS   D2B13212   7.097  30.827  11.134  0.1427 -0.1530 -0.3368
 1126DOPS   C3B13213   7.067  30.745  11.583 -0.0140 -0.1738 -0.2543
 1126DOPS   C4B13214   7.168  30.333  11.856  0.0723 -0.1708  0.0584
 1127DOPC   NC313215   7.420  23.616  10.612  0.4509  0.1561 -0.0582
 1127DOPC   PO413216   7.665  23.878  10.557 -0.1543 -0.0484 -0.0464
 1127DOPC   GL113217   7.694  23.867  10.951  0.0945  0.1669  0.1350
 1127DOPC   GL213218   7.922  24.007  10.951  0.0145 -0.0670 -0.0447
 1127DOPC   C1A13219   7.459  23.814  11.349 -0.0744  0.0554  0.3953
 1127DOPC   D2A13220   7.218  24.065  11.584 -0.2128  0.2140  0.1252
 1127DOPC   C3A13221   6.914  23.846  11.839 -0.1965 -0.0128 -0.4512
 1127DOPC   C4A13222   6.695  23.770  12.260  0.1988 -0.1151  0.2807
 1127DOPC   C1B13223   7.913  24.068  11.382  0.1971 -0.1778  0.0825
 1127DOPC   D2B13224   7.670  23.969  11.773 -0.1969 -0.1027 -0.3247
 1127DOPC   C3B13225   7.387  23.732  12.006  0.2881  0.0008  0.1400
 1127DOPC   C4B13226   7.058  23.464  12.229  0.1436 -0.2814 -0.1914
 1128DOPE   NH313227  31.856  28.084   8.843 -0.3154 -0.0029  0.1597
 1128DOPE   PO413228  31.737  27.816   8.926  0.1549  0.0628 -0.1503
 1128DOPE   GL113229  31.727  27.790   9.341 -0.0468 -0.1883  0.4578
 1128DOPE   GL213230  31.798  27.968   9.637  0.0396 -0.1618 -0.1980
 1128DOPE   C1A13231  31.305  27.838   9.599  0.1096  0.2432 -0.1949
 1128DOPE   D2A13232  31.118  28.042   9.971  0.2922  0.1832  0.2679
 1128DOPE   C3A13233  31.214  28.433  10.184 -0.2670  0.0663 -0.0244
 1128DOPE   C4A13234  30.941  28.784  10.356 -0.1707  0.1184  0.0083
 1128DOPE   C1B13235  31.750  28.181  10.049  0.1782  0.0604 -0.1305
 1128DOPE   D2B13236  31.909  28.150  10.493 -0.0097  0.2152 -0.3944
 1128DOPE   C3B13237  31.969  28.495  10.756 -0.0974 -0.2477 -0.1071
 1128DOPE   C4B13238  32.246  28.681  11.129 -0.0563  0.0245 -0.0442
 1129DOPS   CNO13239   3.799  22.681  10.243  0.1913  0.2307  0.1880
 1129DOPS   PO413240   3.554  22.706  10.527 -0.1191 -0.1646  0.2676
 1129DOPS   GL113241   3.661  22.701  10.856  0.2815 -0.1310 -0.3527
 1129DOPS   GL213242   3.706  22.510  11.043  0.2434 -0.0604 -0.1277
 1129DOPS   C1A13243   3.447  22.875  11.252 -0.1048  0.1647  0.1085
 1129DOPS   D2A13244   3.403  22.774  11.724  0.3039 -0.0802 -0.0834
 1129DOPS   C3A13245   3.174  23.148  11.951 -0.1268 -0.2121 -0.2020
 1129DOPS   C4A13246   2.920  23.515  12.131 -0.2259  0.3867 -0.1593
 1129DOPS   C1B13247   3.921  22.615  11.390  0.0419 -0.0722  0.0244
 1129DOPS   D2B13248   3.884  22.606  11.834  0.0121 -0.0477 -0.2555
 1129DOPS   C3B13249   4.050  22.287  12.059  0.1304  0.0150 -0.1566
 1129DOPS   C4B13250   4.182  22.166  12.451 -0.0046 -0.0370 -0.1829
 1130DOPS   CNO13251   9.856  30.204  10.871  0.0320 -0.1978  0.2214
 1130DOPS   PO413252  10.019  29.966  10.640 -0.1009 -0.0267 -0.0359
 1130DOPS   GL113253  10.081  29.746  10.956  0.0323  0.1213 -0.2782
 1130DOPS   GL213254   9.960  29.842  11.210 -0.0606  0.0047 -0.2717
 1130DOPS   C1A13255  10.417  29.653  11.280  0.3712 -0.0326 -0.0006
 1130DOPS   D2A13256  10.685  29.674  11.617  0.2844  0.0549  0.2084
 1130DOPS   C3A13257  11.005  29.473  11.847  0.3286 -0.1727  0.0412
 1130DOPS   C4A13258  10.852  29.582  12.294 -0.0673  0.2955 -0.0728
 1130DOPS   C1B13259  10.325  30.160  11.283 -0.1457  0.1909 -0.1799
 1130DOPS   D2B13260  10.516  30.507  11.484 -0.1280  0.2193  0.2172
 1130DOPS   C3B13261  10.737  30.452  11.966  0.0926  0.1817  0.0237
 1130DOPS   C4B13262  10.855  30.585  12.385  0.1549  0.2992  0.1176
 1131DOPE   NH313263  34.789  32.251  10.264 -0.1036 -0.0817  0.0800
 1131DOPE   PO413264  34.863  31.945  10.133  0.1512 -0.2359  0.2746
 1131DOPE   GL113265  34.836  31.839  10.524 -0.1688 -0.3276  0.1522
 1131DOPE   GL213266  34.869  32.017  10.708  0.1528  0.0272  0.0335
 1131DOPE   C1A13267  35.092  31.641  10.892  0.1643 -0.0027 -0.0898
 1131DOPE   D2A13268  35.394  31.480  11.168 -0.2044 -0.1677  0.1429
 1131DOPE   C3A13269  35.394  31.825  11.479  0.0812 -0.0286  0.1316
 1131DOPE   C4A13270  35.271  31.682  11.992 -0.0766  0.3154 -0.1023
 1131DOPE   C1B13271  34.616  31.703  11.042  0.0872 -0.0009  0.2951
 1131DOPE   D2B13272  34.755  31.626  11.514 -0.0637 -0.0838 -0.2042
 1131DOPE   C3B13273  35.118  31.433  11.563  0.0510  0.0880 -0.0460
 1131DOPE   C4B13274  35.271  31.074  11.802 -0.2399 -0.2948 -0.2825
 1132DOPE   NH313275   1.469  31.748  10.268 -0.1965  0.2756  0.2356
 1132DOPE   PO413276   1.410  32.046  10.383  0.0503  0.0966  0.1962
 1132DOPE   GL113277   1.615  31.989  10.701  0.0464 -0.0511  0.3580
 1132DOPE   GL213278   1.530  31.674  10.784 -0.3431  0.0767 -0.4049
 1132DOPE   C1A13279   1.944  32.067  10.971  0.2484  0.1668  0.1180
 1132DOPE   D2A13280   2.102  32.202  11.355  0.3151  0.0596  0.1893
 1132DOPE   C3A13281   2.020  32.536  11.681  0.1403 -0.1128 -0.0647
 1132DOPE   C4A13282   2.203  32.876  11.947  0.0566  0.1936  0.0503
 1132DOPE   C1B13283   1.711  31.686  11.193 -0.0656  0.2087 -0.3715
 1132DOPE   D2B13284   1.903  31.660  11.633  0.0343  0.0816 -0.0127
 1132DOPE   C3B13285   1.791  31.496  12.071 -0.0641 -0.0799 -0.1141
 1132DOPE   C4B13286   1.959  31.201  12.398  0.2116  0.0894  0.1365
 1133POSM   NC313287  13.402  25.630   9.801  0.0497 -0.4752  0.1732
 1133POSM   PO413288  13.491  25.995   9.791 -0.0017  0.0846  0.0632
 1133POSM   AM113289  13.533  26.165  10.086 -0.2559 -0.1763 -0.2451
 1133POSM   AM213290  13.773  26.176  10.265  0.2736  0.0277 -0.3172
 1133POSM   T1A13291  13.414  26.346  10.491 -0.1826  0.1079 -0.0012
 1133POSM   C2A13292  13.515  26.439  10.856 -0.0841 -0.1138  0.2368
 1133POSM   C3A13293  13.500  26.509  11.332  0.1445 -0.1966  0.0416
 1133POSM   C1B13294  13.877  26.151  10.588 -0.0668 -0.1501  0.1017
 1133POSM   D2B13295  13.792  26.043  11.013  0.2056  0.0899 -0.1404
 1133POSM   C3B13296  13.718  25.696  11.274 -0.3144  0.2877 -0.2016
 1133POSM   C4B13297  13.874  25.492  11.697  0.2315 -0.1349  0.1045
 1134DOPC   NC313298   5.956  28.963   9.875 -0.3807  0.0716 -0.0776
 1134DOPC   PO413299   5.642  29.170   9.997  0.0794  0.1199  0.2824
 1134DOPC   GL113300   5.578  29.495  10.328 -0.4982  0.1839 -0.1299
 1134DOPC   GL213301   5.754  29.663  10.217 -0.3952 -0.0253  0.0055
 1134DOPC   C1A13302   5.621  29.513  10.772 -0.2007  0.1110 -0.1317
 1134DOPC   D2A13303   5.914  29.596  11.089  0.1015 -0.1938  0.1368
 1134DOPC   C3A13304   5.736  29.818  11.410 -0.0220  0.2857 -0.0064
 1134DOPC   C4A13305   5.661  29.937  11.857 -0.1635 -0.0985 -0.0376
 1134DOPC   C1B13306   5.963  29.799  10.642 -0.0871  0.0284 -0.1231
 1134DOPC   D2B13307   6.078  30.054  10.999 -0.1608  0.1181 -0.0430
 1134DOPC   C3B13308   6.193  30.040  11.486  0.1320 -0.1164  0.0069
 1134DOPC   C4B13309   6.084  29.712  11.835  0.3030  0.1925  0.1624
 1135DOPC   NC313310   2.156  30.035   9.717  0.0663 -0.1953  0.0024
 1135DOPC   PO413311   1.825  29.883   9.800  0.1361  0.2509  0.3739
 1135DOPC   GL113312   1.823  29.646  10.227  0.3033 -0.2721 -0.1082
 1135DOPC   GL213313   1.591  29.862  10.233 -0.0764  0.0258 -0.0106
 1135DOPC   C1A13314   2.085  29.635  10.575 -0.0232 -0.1287 -0.1259
 1135DOPC   D2A13315   2.360  29.444  10.951 -0.1279 -0.1008  0.1066
 1135DOPC   C3A13316   2.078  29.211  11.186 -0.1735 -0.0343 -0.0034
 1135DOPC   C4A13317   1.930  28.891  11.433  0.0304 -0.0467  0.3138
 1135DOPC   C1B13318   1.434  30.224  10.367 -0.2148 -0.2306 -0.1896
 1135DOPC   D2B13319   1.247  30.246  10.816  0.0148  0.0362 -0.0109
 1135DOPC   C3B13320   1.322  30.058  11.222 -0.3757 -0.1033  0.3782
 1135DOPC   C4B13321   1.603  29.767  11.478  0.3404  0.1217  0.1845
 1136DOPE   NH313322  10.468  31.511  10.294 -0.2395  0.2556  0.2764
 1136DOPE   PO413323  10.356  31.437  10.575  0.2768 -0.1299 -0.1587
 1136DOPE   GL113324  10.485  31.310  10.848 -0.0016  0.2988  0.0921
 1136DOPE   GL213325  10.377  31.351  11.078  0.0906  0.0464  0.3720
 1136DOPE   C1A13326  10.746  31.054  11.144 -0.1050 -0.0405  0.0306
 1136DOPE   D2A13327  10.936  30.896  11.500  0.0655  0.2251 -0.0325
 1136DOPE   C3A13328  10.611  30.947  11.890 -0.2058 -0.2221  0.2183
 1136DOPE   C4A13329  10.384  30.809  12.251 -0.2855  0.0673  0.1425
 1136DOPE   C1B13330  10.272  31.023  11.388  0.0017 -0.0002 -0.0007
 1136DOPE   D2B13331  10.125  30.775  11.773  0.0367  0.1701  0.1068
 1136DOPE   C3B13332  10.224  30.345  11.915 -0.4045  0.2113  0.2081
 1136DOPE   C4B13333  10.541  29.979  12.020 -0.1899 -0.0320 -0.1423
 1137POSM   NC313334  13.056  31.837  10.511 -0.3240  0.0153 -0.1340
 1137POSM   PO413335  13.407  32.015  10.512 -0.1293  0.2616 -0.1388
 1137POSM   AM113336  13.469  31.824  10.781 -0.0325 -0.0128 -0.1781
 1137POSM   AM213337  13.384  31.606  10.909 -0.0987  0.3898  0.2046
 1137POSM   T1A13338  13.829  31.729  11.135  0.0392  0.1727  0.0938
 1137POSM   C2A13339  13.879  31.618  11.577 -0.1549  0.0134  0.1443
 1137POSM   C3A13340  13.735  31.778  11.953  0.0200 -0.0632  0.0776
 1137POSM   C1B13341  13.114  31.580  11.059  0.0124 -0.1046 -0.0454
 1137POSM   D2B13342  12.971  31.709  11.450  0.1042  0.0063  0.1181
 1137POSM   C3B13343  12.950  31.675  11.901 -0.0149 -0.0034 -0.1719
 1137POSM   C4B13344  12.897  31.318  12.137 -0.0533 -0.3121  0.0913
 1138DOPE   NH313345   4.993  30.046   9.898  0.3408 -0.0228 -0.1603
 1138DOPE   PO413346   4.808  29.759   9.973  0.1832  0.3239 -0.3594
 1138DOPE   GL113347   5.002  29.625  10.231 -0.0646  0.2186 -0.1753
 1138DOPE   GL213348   4.748  29.524  10.385  0.3524  0.1718 -0.0368
 1138DOPE   C1A13349   5.197  29.707  10.646  0.0416  0.1409 -0.3064
 1138DOPE   D2A13350   5.315  29.702  11.097  0.0050  0.2725 -0.1962
 1138DOPE   C3A13351   5.088  29.642  11.487  0.0279  0.0617  0.1010
 1138DOPE   C4A13352   4.782  29.832  11.774  0.0404  0.1167  0.2916
 1138DOPE   C1B13353   4.550  29.741  10.733  0.0151  0.0617  0.0215
 1138DOPE   D2B13354   4.202  29.931  10.959  0.0854  0.0402  0.1191
 1138DOPE   C3B13355   3.868  29.633  10.971 -0.2776  0.0902  0.1566
 1138DOPE   C4B13356   3.854  29.298  11.274 -0.1813  0.0055  0.3368
 1139DOPC   NC313357   6.422  29.575  10.252 -0.2569 -0.1466  0.0541
 1139DOPC   PO413358   6.157  29.410  10.071  0.3506 -0.2105 -0.2146
 1139DOPC   GL113359   6.046  29.345  10.490  0.1552  0.0784  0.1858
 1139DOPC   GL213360   5.859  29.162  10.470 -0.1271 -0.0456 -0.0029
 1139DOPC   C1A13361   6.071  29.198  10.919  0.1694 -0.0926  0.3472
 1139DOPC   D2A13362   6.313  29.090  11.231  0.3723  0.0848  0.2830
 1139DOPC   C3A13363   6.432  28.680  11.116 -0.1622 -0.3970 -0.0945
 1139DOPC   C4A13364   6.271  28.377  11.409  0.0919 -0.1528  0.1007
 1139DOPC   C1B13365   5.659  28.994  10.826 -0.1604  0.4265 -0.1059
 1139DOPC   D2B13366   5.422  28.714  11.173  0.1178 -0.0593 -0.1171
 1139DOPC   C3B13367   5.471  28.836  11.594  0.0486 -0.2704 -0.4013
 1139DOPC   C4B13368   5.338  28.947  12.006  0.2259  0.0516 -0.2881
 1140DOPS   CNO13369   1.599  27.569   9.516 -0.4747  0.0220 -0.1837
 1140DOPS   PO413370   1.382  27.329   9.700  0.0522  0.2463  0.0434
 1140DOPS   GL113371   1.408  27.333  10.040 -0.0812  0.1104 -0.1534
 1140DOPS   GL213372   1.528  27.049  10.113 -0.1250  0.1467 -0.2125
 1140DOPS   C1A13373   1.201  27.247  10.446 -0.2643  0.1281 -0.0208
 1140DOPS   D2A13374   0.895  27.154  10.817  0.0515 -0.0275  0.0073
 1140DOPS   C3A13375   1.064  27.381  11.205  0.0815  0.2868  0.0519
 1140DOPS   C4A13376   0.857  27.708  11.459  0.1366 -0.0012  0.2738
 1140DOPS   C1B13377   1.496  26.825  10.490 -0.0077  0.0404  0.0794
 1140DOPS   D2B13378   1.184  26.765  10.867 -0.2501  0.2204 -0.0250
 1140DOPS   C3B13379   1.202  26.393  11.084  0.4197 -0.0667  0.1760
 1140DOPS   C4B13380   0.911  26.066  11.182 -0.1448  0.0704 -0.1266
 1141DOPE   NH313381   3.234  33.427  10.085 -0.1412 -0.1023 -0.1228
 1141DOPE   PO413382   3.461  33.327  10.300  0.0272  0.0129  0.0841
 1141DOPE   GL113383   3.552  33.132  10.646  0.2613 -0.4590 -0.3710
 1141DOPE   GL213384   3.353  33.294  10.825 -0.1530 -0.0276  0.1057
 1141DOPE   C1A13385   3.976  33.048  10.756  0.2038 -0.1849  0.0335
 1141DOPE   D2A13386   4.255  33.353  10.950  0.2406  0.0424 -0.1480
 1141DOPE   C3A13387   4.203  33.461  11.388 -0.3631 -0.1073 -0.3190
 1141DOPE   C4A13388   3.855  33.615  11.686  0.1576 -0.1750 -0.1475
 1141DOPE   C1B13389   3.021  33.228  11.213 -0.2052 -0.3710  0.1757
 1141DOPE   D2B13390   2.876  33.099  11.603  0.2377  0.2421 -0.3723
 1141DOPE   C3B13391   2.551  33.317  11.823  0.1704  0.1572  0.0007
 1141DOPE   C4B13392   2.096  33.432  11.918  0.0857  0.0640  0.1743
 1142DOPE   NH313393   0.802  27.914   9.759 -0.4120 -0.1821  0.1440
 1142DOPE   PO413394   0.542  27.741   9.659 -0.3213 -0.2817 -0.1086
 1142DOPE   GL113395   0.311  27.684   9.934  0.1618  0.3396 -0.3071
 1142DOPE   GL213396   0.457  27.847  10.179 -0.0302  0.0616  0.0847
 1142DOPE   C1A13397   0.191  27.574  10.432  0.0953 -0.0491  0.1214
 1142DOPE   D2A13398   0.151  27.710  10.810  0.0789 -0.1665 -0.0221
 1142DOPE   C3A13399  -0.227  27.578  10.975 -0.1779  0.0856 -0.0539
 1142DOPE   C4A13400  -0.632  27.559  10.793  0.1695 -0.0886  0.0849
 1142DOPE   C1B13401   0.514  28.150  10.549 -0.1083  0.2023  0.0727
 1142DOPE   D2B13402   0.502  28.499  10.820  0.0405 -0.1725 -0.2834
 1142DOPE   C3B13403   0.203  28.723  11.061 -0.1390  0.1636  0.1443
 1142DOPE   C4B13404  -0.011  29.028  11.374  0.4971  0.1227  0.0786
 1143DOPS   CNO13405  10.897  34.296  10.614  0.0659 -0.3333 -0.0264
 1143DOPS   PO413406  10.985  34.321  10.966 -0.2123 -0.0129  0.0345
 1143DOPS   GL113407  10.782  34.058  11.189  0.0927  0.1357 -0.0407
 1143DOPS   GL213408  10.834  33.745  11.210 -0.0389 -0.2351  0.0397
 1143DOPS   C1A13409  11.032  33.988  11.580  0.3857  0.3419  0.2664
 1143DOPS   D2A13410  11.173  33.984  11.996 -0.0530 -0.0939 -0.3290
 1143DOPS   C3A13411  10.960  34.071  12.398 -0.0220  0.4480  0.4571
 1143DOPS   C4A13412  10.905  34.192  12.805 -0.0210 -0.0464 -0.0532
 1143DOPS   C1B13413  10.851  33.534  11.620 -0.0972  0.0596 -0.0423
 1143DOPS   D2B13414  10.692  33.760  11.939 -0.0752  0.1423 -0.0965
 1143DOPS   C3B13415  10.766  33.605  12.385  0.1757 -0.2893 -0.0374
 1143DOPS   C4B13416  10.928  33.484  12.775 -0.0683  0.0168 -0.0985
 1144DOPE   NH313417   9.331  27.127  10.403 -0.5323 -0.0366 -0.0458
 1144DOPE   PO413418   9.329  26.837  10.579  0.1735  0.3769 -0.2905
 1144DOPE   GL113419   9.353  26.645  10.837  0.1134 -0.1403  0.2038
 1144DOPE   GL213420   9.526  26.763  11.016  0.0119 -0.0372  0.0574
 1144DOPE   C1A13421   9.121  26.474  11.131 -0.2355 -0.2399 -0.0002
 1144DOPE   D2A13422   8.729  26.245  11.216 -0.3724  0.1167  0.3469
 1144DOPE   C3A13423   8.808  26.174  11.643  0.2648 -0.0344  0.0966
 1144DOPE   C4A13424   8.643  26.479  11.921  0.2199  0.1181  0.2321
 1144DOPE   C1B13425   9.396  26.820  11.494  0.0622  0.0098  0.4351
 1144DOPE   D2B13426   9.549  26.683  11.962 -0.0341  0.1249  0.0570
 1144DOPE   C3B13427   9.461  26.759  12.392 -0.0917  0.2122  0.2080
 1144DOPE   C4B13428   9.282  26.995  12.744 -0.1420 -0.0505  0.0608
 1145DOPS   CNO13429   1.885  22.793  10.405 -0.0994 -0.1527 -0.1378
 1145DOPS   PO413430   2.112  22.901  10.683  0.4055  0.1067  0.1250
 1145DOPS   GL113431   1.993  23.154  10.940  0.1314  0.2501 -0.1156
 1145DOPS   GL213432   1.790  22.952  11.063 -0.0268 -0.2231  0.0740
 1145DOPS   C1A13433   2.060  23.251  11.407 -0.2797  0.1452  0.2804
 1145DOPS   D2A13434   2.196  23.268  11.836  0.0889 -0.3839  0.2447
 1145DOPS   C3A13435   2.215  23.259  12.307 -0.2622 -0.0576  0.0414
 1145DOPS   C4A13436   1.919  23.288  12.677  0.4385  0.0262  0.0010
 1145DOPS   C1B13437   2.072  22.716  11.370  0.2325 -0.1930 -0.1568
 1145DOPS   D2B13438   2.234  22.726  11.791  0.0616  0.1371 -0.0337
 1145DOPS   C3B13439   1.825  22.499  11.852 -0.2201 -0.1426 -0.0550
 1145DOPS   C4B13440   1.373  22.552  11.844  0.2070 -0.0897  0.0228
 1146DOPS   CNO13441  12.344  26.659   9.776 -0.0601 -0.1580 -0.2379
 1146DOPS   PO413442  12.375  26.434  10.113 -0.0304  0.0647 -0.0600
 1146DOPS   GL113443  12.172  26.293  10.471  0.1239  0.2292 -0.0449
 1146DOPS   GL213444  12.134  26.393  10.692  0.1271  0.0349 -0.1068
 1146DOPS   C1A13445  11.939  25.872  10.385  0.0700 -0.0771  0.0436
 1146DOPS   D2A13446  11.934  25.479  10.597  0.1421 -0.1832  0.0867
 1146DOPS   C3A13447  11.822  25.492  11.068 -0.2322 -0.0301 -0.3155
 1146DOPS   C4A13448  11.680  25.291  11.455  0.1344 -0.0128 -0.3069
 1146DOPS   C1B13449  12.200  26.549  11.156  0.0037 -0.0999  0.1693
 1146DOPS   D2B13450  11.906  26.538  11.489 -0.0642 -0.2073  0.1494
 1146DOPS   C3B13451  11.647  26.248  11.744  0.1941 -0.3647  0.3368
 1146DOPS   C4B13452  11.206  26.140  11.863 -0.0775 -0.0205 -0.1578
 1147DOPC   NC313453   2.943  23.299  10.503 -0.2151 -0.3299  0.0134
 1147DOPC   PO413454   2.902  23.658  10.411 -0.2457 -0.1002  0.0783
 1147DOPC   GL113455   2.738  23.853  10.815 -0.0667 -0.0489 -0.1947
 1147DOPC   GL213456   2.927  24.066  10.797 -0.0710  0.1030  0.0014
 1147DOPC   C1A13457   2.368  24.138  10.822 -0.0939 -0.2857  0.0522
 1147DOPC   D2A13458   1.939  24.347  10.725 -0.1815  0.3017 -0.4995
 1147DOPC   C3A13459   1.618  24.216  11.124 -0.2039 -0.1154  0.1471
 1147DOPC   C4A13460   1.418  24.302  11.515 -0.1690  0.2712  0.1639
 1147DOPC   C1B13461   2.735  24.318  11.183 -0.3300  0.0711 -0.3687
 1147DOPC   D2B13462   2.635  24.402  11.621 -0.0181  0.1458 -0.1483
 1147DOPC   C3B13463   2.461  24.405  12.025  0.1497  0.1911 -0.2088
 1147DOPC   C4B13464   2.318  24.072  12.380 -0.0671  0.1016  0.3818
 1148DOPC   NC313465  13.942  30.633  10.666 -0.0096  0.0165  0.1319
 1148DOPC   PO413466  13.625  30.596  10.438 -0.1318  0.1833 -0.1226
 1148DOPC   GL113467  13.731  30.209  10.609  0.2514 -0.0489  0.0570
 1148DOPC   GL213468  13.484  30.222  10.785 -0.0157 -0.0997  0.0733
 1148DOPC   C1A13469  14.164  30.156  10.729 -0.2603  0.3245 -0.2118
 1148DOPC   D2A13470  14.512  30.312  10.960 -0.1106  0.1829 -0.0308
 1148DOPC   C3A13471  14.650  30.695  10.869  0.0670  0.1934 -0.0734
 1148DOPC   C4A13472  14.435  30.965  10.582  0.1997 -0.8012  0.0053
 1148DOPC   C1B13473  13.209  30.158  11.178  0.0047  0.0857 -0.0962
 1148DOPC   D2B13474  13.131  30.352  11.561  0.1093  0.3294 -0.4527
 1148DOPC   C3B13475  13.255  30.358  11.983  0.0623  0.1187 -0.1342
 1148DOPC   C4B13476  13.312  30.335  12.464 -0.1687 -0.0284  0.1551
 1149DOPE   NH313477   6.429  24.389   9.930  0.0493  0.0866  0.3228
 1149DOPE   PO413478   6.256  24.198  10.171  0.1336 -0.2144 -0.1712
 1149DOPE   GL113479   6.494  24.309  10.459 -0.0446  0.2408  0.4086
 1149DOPE   GL213480   6.404  24.568  10.582  0.1706  0.1224 -0.0462
 1149DOPE   C1A13481   6.815  24.063  10.689 -0.6427  0.3480 -0.0616
 1149DOPE   D2A13482   7.230  24.007  10.883 -0.1052  0.1190 -0.2118
 1149DOPE   C3A13483   7.468  24.261  11.173 -0.2338 -0.3190  0.3224
 1149DOPE   C4A13484   7.563  24.520  11.531  0.1798 -0.0895  0.1330
 1149DOPE   C1B13485   6.744  24.508  10.914 -0.0169 -0.0807  0.2224
 1149DOPE   D2B13486   6.849  24.255  11.212 -0.0611 -0.1510 -0.0059
 1149DOPE   C3B13487   6.781  24.332  11.637 -0.2687  0.4770 -0.0095
 1149DOPE   C4B13488   6.859  24.303  12.064  0.3276  0.1757 -0.0313
 1150DOPC   NC313489   8.291  31.311  10.065  0.0719  0.3405 -0.2385
 1150DOPC   PO413490   8.553  31.027  10.152 -0.1554  0.1961 -0.2990
 1150DOPC   GL113491   8.267  31.054  10.448  0.1774  0.0334 -0.4983
 1150DOPC   GL213492   8.511  31.138  10.654  0.2992 -0.0720 -0.2212
 1150DOPC   C1A13493   8.007  30.931  10.802  0.0884  0.0556 -0.1667
 1150DOPC   D2A13494   7.589  30.916  11.015 -0.0648  0.0955 -0.1842
 1150DOPC   C3A13495   7.442  31.136  11.375  0.3285  0.1290 -0.3339
 1150DOPC   C4A13496   7.593  31.160  11.844  0.2198  0.2583 -0.0524
 1150DOPC   C1B13497   8.392  31.072  11.088 -0.0674  0.3331 -0.3440
 1150DOPC   D2B13498   8.109  31.267  11.381 -0.1526 -0.1247  0.4084
 1150DOPC   C3B13499   7.877  30.918  11.492 -0.1471 -0.3489 -0.0647
 1150DOPC   C4B13500   7.547  30.688  11.661  0.2591 -0.3981  0.0664
 1151POSM   NC313501   2.379  27.091   9.802 -0.0528 -0.1715 -0.2552
 1151POSM   PO413502   2.384  26.716   9.814 -0.1909  0.1220 -0.2644
 1151POSM   AM113503   2.435  26.734  10.142 -0.0084 -0.0467 -0.0434
 1151POSM   AM213504   2.420  26.980  10.321 -0.1988  0.0406 -0.0707
 1151POSM   T1A13505   2.553  26.501  10.573 -0.1491  0.2472 -0.1529
 1151POSM   C2A13506   2.567  26.583  11.030 -0.0507  0.0629 -0.1769
 1151POSM   C3A13507   2.706  26.621  11.443  0.1509 -0.1594 -0.2340
 1151POSM   C1B13508   2.367  26.950  10.678  0.3521  0.1865  0.0061
 1151POSM   D2B13509   2.284  26.965  11.124  0.1164 -0.0346 -0.1837
 1151POSM   C3B13510   1.958  26.859  11.371 -0.1940 -0.1098 -0.2134
 1151POSM   C4B13511   1.779  26.919  11.815  0.0103  0.1313  0.0040
 1152DOPC   NC313512   1.961  32.628   9.765  0.0721 -0.2942  0.2482
 1152DOPC   PO413513   2.160  32.577  10.084 -0.0213  0.1510 -0.0316
 1152DOPC   GL113514   2.222  32.619  10.512  0.0835 -0.4105  0.0311
 1152DOPC   GL213515   2.077  32.860  10.618  0.0948 -0.0440  0.0614
 1152DOPC   C1A13516   2.109  32.561  10.980  0.0755 -0.1716  0.0019
 1152DOPC   D2A13517   1.991  32.835  11.315  0.1695  0.2090 -0.0080
 1152DOPC   C3A13518   1.651  32.840  11.593  0.1970 -0.1062  0.0750
 1152DOPC   C4A13519   1.591  32.565  11.964  0.0342 -0.0548 -0.1657
 1152DOPC   C1B13520   1.710  32.935  10.931 -0.1151 -0.1465  0.1370
 1152DOPC   D2B13521   1.370  33.108  11.098  0.0324  0.1085  0.2910
 1152DOPC   C3B13522   1.203  32.688  11.108 -0.3021 -0.0108  0.1307
 1152DOPC   C4B13523   0.926  32.476  10.835 -0.0772 -0.0431 -0.0483
 1153DOPC   NC313524   6.963  31.125   9.603 -0.0074 -0.1644 -0.1005
 1153DOPC   PO413525   7.071  30.817   9.845 -0.1119 -0.1705 -0.2001
 1153DOPC   GL113526   7.148  30.782  10.242 -0.0057  0.4450  0.1946
 1153DOPC   GL213527   6.975  30.527  10.365  0.3251  0.0818 -0.0557
 1153DOPC   C1A13528   6.982  30.861  10.677  0.1591  0.1725  0.0977
 1153DOPC   D2A13529   6.611  30.766  10.958  0.1883  0.2653 -0.2410
 1153DOPC   C3A13530   6.651  30.978  11.376  0.0003 -0.0370 -0.0735
 1153DOPC   C4A13531   6.594  31.323  11.670  0.2247  0.0424 -0.1219
 1153DOPC   C1B13532   7.044  30.385  10.747 -0.2576 -0.0785  0.0968
 1153DOPC   D2B13533   7.028  30.244  11.216 -0.3457 -0.1879  0.0416
 1153DOPC   C3B13534   6.698  30.383  11.533  0.0436 -0.1181  0.0843
 1153DOPC   C4B13535   6.581  30.670  11.823 -0.2212  0.1370  0.2528
 1154DOPE   NH313536   2.468  34.468  10.297  0.0707 -0.0854 -0.1325
 1154DOPE   PO413537   2.590  34.176  10.364 -0.1433  0.4739  0.2526
 1154DOPE   GL113538   2.532  34.229  10.794 -0.0564  0.2504  0.2484
 1154DOPE   GL213539   2.605  34.471  10.816  0.0900  0.1096  0.2247
 1154DOPE   C1A13540   2.306  33.899  11.026 -0.1033  0.1352 -0.1065
 1154DOPE   D2A13541   2.225  33.660  11.453 -0.1026  0.2699 -0.1320
 1154DOPE   C3A13542   2.360  33.162  11.397  0.2539  0.1555  0.2993
 1154DOPE   C4A13543   2.501  32.795  11.573 -0.1217 -0.0039 -0.1098
 1154DOPE   C1B13544   2.681  34.387  11.220 -0.0690 -0.0793  0.2144
 1154DOPE   D2B13545   2.597  34.686  11.561  0.2419  0.5028 -0.2464
 1154DOPE   C3B13546   2.198  34.679  11.824  0.0708 -0.3950  0.1232
 1154DOPE   C4B13547   2.046  34.790  12.202  0.0633  0.3321 -0.2052
 1155DOPE   NH313548   5.288   1.690  10.557  0.1554  0.1807 -0.0363
 1155DOPE   PO413549   5.240   1.506  10.811 -0.0954 -0.1362 -0.1379
 1155DOPE   GL113550   5.501   1.476  11.067 -0.1434 -0.4132  0.0681
 1155DOPE   GL213551   5.395   1.539  11.297  0.2519  0.0349  0.1459
 1155DOPE   C1A13552   5.589   1.153  11.418  0.1142  0.0890 -0.0177
 1155DOPE   D2A13553   5.909   1.005  11.712 -0.1551  0.2575 -0.0009
 1155DOPE   C3A13554   6.006   0.536  11.717 -0.0894 -0.1210 -0.2158
 1155DOPE   C4A13555   5.682   0.209  11.785 -0.1804 -0.1786  0.1056
 1155DOPE   C1B13556   5.306   1.527  11.764  0.0716 -0.2139  0.2823
 1155DOPE   D2B13557   5.490   1.233  12.089 -0.1111 -0.0747  0.0063
 1155DOPE   C3B13558   5.274   1.355  12.457  0.0445  0.0460 -0.5217
 1155DOPE   C4B13559   4.872   1.148  12.626  0.1923  0.0685  0.0200
 1156DOPC   NC313560   0.438  28.968   9.647  0.3425 -0.3620  0.2212
 1156DOPC   PO413561   0.226  28.619   9.515 -0.0554  0.3096  0.0374
 1156DOPC   GL113562   0.233  28.541   9.884 -0.0126  0.1797  0.1665
 1156DOPC   GL213563   0.173  28.804  10.038 -0.1273 -0.0769 -0.0033
 1156DOPC   C1A13564   0.057  28.229  10.282 -0.0108  0.1457  0.2167
 1156DOPC   D2A13565   0.031  28.406  10.750 -0.2957  0.2817 -0.2958
 1156DOPC   C3A13566   0.216  28.243  11.139 -0.0846  0.0419 -0.3087
 1156DOPC   C4A13567   0.327  27.825  11.342  0.1765 -0.0449  0.1700
 1156DOPC   C1B13568   0.504  28.528  10.250 -0.1311 -0.1974  0.0464
 1156DOPC   D2B13569   0.862  28.199  10.194  0.0366  0.0923  0.0734
 1156DOPC   C3B13570   0.992  27.876  10.525 -0.1388  0.0751  0.3663
 1156DOPC   C4B13571   1.226  27.625  10.807  0.1266  0.2390 -0.1299
 1157DOPE   NH313572   9.832  28.205  10.981 -0.0062 -0.3353  0.6317
 1157DOPE   PO413573   9.710  28.465  10.845  0.0083  0.1056 -0.4067
 1157DOPE   GL113574   9.831  28.643  11.221 -0.3134  0.0243  0.4901
 1157DOPE   GL213575  10.053  28.757  11.304 -0.0576 -0.0027 -0.0824
 1157DOPE   C1A13576   9.876  28.332  11.547  0.0758 -0.0320  0.1579
 1157DOPE   D2A13577   9.621  28.222  11.890  0.1714 -0.3100  0.1620
 1157DOPE   C3A13578   9.931  28.123  12.235 -0.1843 -0.0667 -0.1020
 1157DOPE   C4A13579  10.274  27.843  12.370  0.3334  0.2994 -0.1816
 1157DOPE   C1B13580  10.119  28.953  11.736 -0.1567 -0.0145 -0.0331
 1157DOPE   D2B13581  10.016  29.208  12.096  0.1413 -0.0735  0.0762
 1157DOPE   C3B13582   9.900  28.904  12.441 -0.1701 -0.1280  0.0963
 1157DOPE   C4B13583  10.016  28.999  12.877  0.1128  0.0040  0.3251
 1158DOPS   CNO13584   9.247  32.932  10.616 -0.1736 -0.1667  0.0615
 1158DOPS   PO413585   8.926  32.818  10.740 -0.0850  0.3093 -0.0213
 1158DOPS   GL113586   8.689  32.772  11.117 -0.0173  0.0214 -0.0196
 1158DOPS   GL213587   8.917  32.901  11.246 -0.3274  0.3171  0.2532
 1158DOPS   C1A13588   8.453  32.505  11.395  0.0941 -0.1518 -0.0009
 1158DOPS   D2A13589   8.096  32.296  11.584  0.0167  0.0058 -0.3460
 1158DOPS   C3A13590   7.993  32.378  11.983  0.0529 -0.0606 -0.2138
 1158DOPS   C4A13591   8.023  32.245  12.427  0.2424  0.2510 -0.0504
 1158DOPS   C1B13592   8.887  32.856  11.739 -0.0195  0.4099  0.2664
 1158DOPS   D2B13593   8.619  32.974  12.088 -0.0593 -0.1966  0.0886
 1158DOPS   C3B13594   8.476  32.744  12.459 -0.2525 -0.3419 -0.0604
 1158DOPS   C4B13595   8.190  32.593  12.755  0.0304  0.1448  0.0515
 1159DOPC   NC313596   4.265   2.248  10.847 -0.0530  0.0061  0.1043
 1159DOPC   PO413597   4.629   2.142  10.832  0.4484 -0.0045  0.0702
 1159DOPC   GL113598   4.536   2.133  11.261  0.2312  0.0325 -0.2742
 1159DOPC   GL213599   4.739   2.144  11.511  0.3519  0.0599  0.3673
 1159DOPC   C1A13600   4.269   2.348  11.617 -0.1839  0.1557 -0.2536
 1159DOPC   D2A13601   4.057   2.215  12.015 -0.2682 -0.1401 -0.1674
 1159DOPC   C3A13602   3.723   1.942  12.213  0.0403 -0.0924 -0.0737
 1159DOPC   C4A13603   3.431   1.619  12.252 -0.1548 -0.0143 -0.1525
 1159DOPC   C1B13604   4.517   2.060  11.900 -0.1650 -0.1622 -0.3601
 1159DOPC   D2B13605   4.350   1.660  12.102  0.0868  0.4214 -0.0074
 1159DOPC   C3B13606   4.012   1.503  12.326  0.0929 -0.0044  0.3067
 1159DOPC   C4B13607   3.652   1.321  12.585  0.0047 -0.0538  0.2398
 1160POSM   NC313608   7.727  27.540  10.248  0.1495  0.0837 -0.0630
 1160POSM   PO413609   8.012  27.406  10.473  0.0504  0.0557  0.1744
 1160POSM   AM113610   7.933  27.336  10.775  0.1408  0.1669  0.2039
 1160POSM   AM213611   8.023  27.131  10.963  0.0021  0.0803  0.0012
 1160POSM   T1A13612   7.775  27.467  11.248  0.2289 -0.0629 -0.3820
 1160POSM   C2A13613   7.339  27.431  11.496  0.0009  0.1238 -0.1685
 1160POSM   C3A13614   7.072  27.667  11.797 -0.2163 -0.1315  0.0056
 1160POSM   C1B13615   8.055  26.991  11.241  0.0362  0.1486 -0.1227
 1160POSM   D2B13616   8.075  26.748  11.610 -0.4019  0.1261 -0.0722
 1160POSM   C3B13617   8.381  26.893  11.910 -0.2890  0.0152 -0.0496
 1160POSM   C4B13618   8.580  27.206  12.152 -0.1859  0.1759 -0.0730
 1161DOPC   NC313619   0.470  30.451  10.278  0.3299 -0.0827 -0.0660
 1161DOPC   PO413620   0.321  30.740  10.060  0.2425  0.0299  0.0429
 1161DOPC   GL113621   0.085  30.689  10.397 -0.0973 -0.0072 -0.2573
 1161DOPC   GL213622  -0.177  30.528  10.336 -0.0866  0.0456 -0.4119
 1161DOPC   C1A13623  -0.052  30.785  10.820  0.3067 -0.0398  0.0852
 1161DOPC   D2A13624   0.004  30.790  11.274 -0.0617  0.1341  0.0553
 1161DOPC   C3A13625  -0.064  31.051  11.641 -0.2756 -0.0375 -0.0674
 1161DOPC   C4A13626   0.000  31.353  11.952  0.0666  0.3726  0.3393
 1161DOPC   C1B13627  -0.423  30.392  10.673 -0.0999 -0.0987 -0.0950
 1161DOPC   D2B13628  -0.664  30.246  11.040  0.0900 -0.0134  0.2492
 1161DOPC   C3B13629  -0.838  29.834  11.229 -0.4000  0.4030 -0.0055
 1161DOPC   C4B13630  -0.861  29.377  11.140 -0.1827 -0.2249 -0.3619
 1162POSM   NC313631   4.383  31.778  10.083 -0.1062 -0.3176  0.2593
 1162POSM   PO413632   4.769  31.992  10.111  0.7626  0.0419 -0.2944
 1162POSM   AM113633   4.711  31.932  10.431  0.0958 -0.1808  0.4188
 1162POSM   AM213634   4.828  32.019  10.721  0.2469  0.1195  0.0860
 1162POSM   T1A13635   4.680  31.560  10.782 -0.0341 -0.0578 -0.2703
 1162POSM   C2A13636   4.669  31.465  11.224 -0.1184  0.0789  0.2366
 1162POSM   C3A13637   4.588  31.175  11.574 -0.2589 -0.0644 -0.3071
 1162POSM   C1B13638   4.889  31.939  11.034 -0.0364 -0.0390 -0.1170
 1162POSM   D2B13639   4.902  31.801  11.506  0.1074  0.0438  0.0792
 1162POSM   C3B13640   4.806  32.109  11.845 -0.2864  0.1071 -0.1320
 1162POSM   C4B13641   4.810  32.520  12.124  0.2108  0.2691  0.2541
 1163DOPE   NH313642   0.317  31.555   9.853 -0.0837 -0.0749  0.0053
 1163DOPE   PO413643   0.525  31.784   9.876  0.1879 -0.0809 -0.0177
 1163DOPE   GL113644   0.492  31.697  10.242  0.3178 -0.2602  0.0480
 1163DOPE   GL213645   0.506  31.935  10.469  0.1744  0.1595 -0.1587
 1163DOPE   C1A13646   0.649  31.413  10.578  0.0357 -0.0549 -0.1017
 1163DOPE   D2A13647   0.764  31.009  10.930 -0.0440  0.0768  0.1619
 1163DOPE   C3A13648   0.990  31.100  11.270  0.0027  0.3703  0.2256
 1163DOPE   C4A13649   0.924  31.385  11.599 -0.0243  0.1379  0.1114
 1163DOPE   C1B13650   0.753  31.972  10.843 -0.1104  0.1215  0.1449
 1163DOPE   D2B13651   1.177  32.001  10.948  0.1616 -0.3696  0.2700
 1163DOPE   C3B13652   1.103  32.218  11.339 -0.1747 -0.1125 -0.1082
 1163DOPE   C4B13653   1.141  32.505  11.672  0.0309  0.0348 -0.2581
 1164DOPE   NH313654   9.502  30.633  10.468  0.0078 -0.0820 -0.1562
 1164DOPE   PO413655   9.690  30.697  10.730 -0.0747  0.0325 -0.1426
 1164DOPE   GL113656   9.593  30.540  11.113  0.0156 -0.5121  0.3613
 1164DOPE   GL213657   9.794  30.616  11.276  0.3856 -0.1969 -0.0012
 1164DOPE   C1A13658   9.404  30.410  11.501  0.1435 -0.3300 -0.0588
 1164DOPE   D2A13659   9.132  30.125  11.787 -0.0228  0.1303 -0.0688
 1164DOPE   C3A13660   9.568  30.176  12.050  0.0053  0.3261  0.0626
 1164DOPE   C4A13661   9.977  30.394  12.307  0.0863 -0.1589 -0.0342
 1164DOPE   C1B13662   9.683  30.958  11.535 -0.2166 -0.0269 -0.1835
 1164DOPE   D2B13663   9.734  31.376  11.742  0.0910 -0.1167 -0.0532
 1164DOPE   C3B13664   9.521  31.693  11.889  0.0120  0.0578  0.1278
 1164DOPE   C4B13665   9.083  31.943  11.854 -0.1958 -0.1717  0.1829
 1165DOPS   CNO13666   4.478  25.745  10.084  0.4976  0.1953 -0.2620
 1165DOPS   PO413667   4.720  25.564  10.293 -0.1509 -0.0956 -0.2640
 1165DOPS   GL113668   4.869  25.827  10.642  0.1197 -0.0055 -0.1972
 1165DOPS   GL213669   5.048  25.652  10.776  0.0822 -0.0242  0.0811
 1165DOPS   C1A13670   4.856  26.056  11.050 -0.1392  0.2551 -0.0909
 1165DOPS   D2A13671   4.947  26.280  11.379 -0.1058  0.0986 -0.0267
 1165DOPS   C3A13672   4.715  26.275  11.809 -0.0381 -0.1476  0.1013
 1165DOPS   C4A13673   4.512  26.224  12.285  0.2586  0.2356 -0.3956
 1165DOPS   C1B13674   4.962  25.356  11.113 -0.1331 -0.0752 -0.0812
 1165DOPS   D2B13675   5.001  25.544  11.569 -0.0705 -0.0841 -0.2520
 1165DOPS   C3B13676   4.924  25.254  11.952  0.0232 -0.0337  0.0050
 1165DOPS   C4B13677   4.605  25.147  12.294  0.0089 -0.0898  0.1811
 1166DOPE   NH313678   2.667  25.151  10.510  0.1750 -0.0343  0.1672
 1166DOPE   PO413679   2.531  24.889  10.463 -0.1164 -0.0418  0.4433
 1166DOPE   GL113680   2.261  24.934  10.768 -0.3876  0.2099 -0.2194
 1166DOPE   GL213681   2.492  24.905  11.005 -0.1793 -0.0536  0.2798
 1166DOPE   C1A13682   2.200  25.278  11.040  0.0472  0.1026  0.1990
 1166DOPE   D2A13683   1.982  25.383  11.389 -0.2377  0.2414 -0.2841
 1166DOPE   C3A13684   2.297  25.394  11.778 -0.2539 -0.0993  0.1010
 1166DOPE   C4A13685   2.745  25.293  11.967 -0.0181  0.0759 -0.1763
 1166DOPE   C1B13686   2.245  24.560  11.125 -0.0120 -0.4894  0.1597
 1166DOPE   D2B13687   2.168  24.227  11.463  0.0574  0.2641  0.2525
 1166DOPE   C3B13688   2.203  23.807  11.609  0.1809 -0.4139 -0.0286
 1166DOPE   C4B13689   2.443  23.633  11.997 -0.0519 -0.0128  0.1350
 1167DOPE   NH313690   9.551  23.754   9.839  0.2965  0.1408 -0.1652
 1167DOPE   PO413691   9.779  23.798  10.052  0.1656 -0.0565  0.2222
 1167DOPE   GL113692  10.069  23.834  10.375  0.0893  0.2916 -0.4596
 1167DOPE   GL213693   9.749  23.849  10.599 -0.5859 -0.1308  0.0355
 1167DOPE   C1A13694  10.229  23.813  10.811  0.2354 -0.0234  0.0128
 1167DOPE   D2A13695  10.241  23.518  11.191 -0.3997  0.0425  0.1921
 1167DOPE   C3A13696  10.628  23.567  11.421  0.0593  0.3437 -0.3286
 1167DOPE   C4A13697  10.769  23.871  11.749  0.1209  0.4785  0.2308
 1167DOPE   C1B13698   9.748  23.496  10.939 -0.1857  0.2202 -0.2275
 1167DOPE   D2B13699   9.791  23.158  11.257  0.1421 -0.3557  0.1944
 1167DOPE   C3B13700  10.239  23.103  11.480 -0.1763 -0.1618  0.1535
 1167DOPE   C4B13701  10.445  23.173  11.846 -0.2141  0.0011  0.1198
 1168POSM   NC313702  11.408  34.194  10.552  0.1843 -0.1556 -0.2841
 1168POSM   PO413703  11.716  33.963  10.550  0.2467 -0.2157 -0.2385
 1168POSM   AM113704  11.788  33.845  10.875  0.1624 -0.0635  0.2706
 1168POSM   AM213705  11.903  33.991  11.094 -0.1324  0.0795 -0.0232
 1168POSM   T1A13706  11.835  33.421  11.119 -0.0584 -0.0271 -0.2405
 1168POSM   C2A13707  11.873  33.223  11.535 -0.1158  0.0052 -0.1349
 1168POSM   C3A13708  12.132  33.338  11.867  0.1514  0.0521  0.1114
 1168POSM   C1B13709  11.718  33.844  11.308 -0.0870  0.0095 -0.2882
 1168POSM   D2B13710  11.327  33.643  11.412  0.5268 -0.4341  0.0620
 1168POSM   C3B13711  11.313  33.473  11.851  0.0898  0.0825  0.1000
 1168POSM   C4B13712  11.193  33.335  12.267  0.2781 -0.0930 -0.0118
 1169DOPC   NC313713  10.828  33.277  10.406  0.0179  0.1068  0.0258
 1169DOPC   PO413714  10.576  32.923  10.455  0.1749  0.1147 -0.1133
 1169DOPC   GL113715  10.548  33.039  10.784 -0.2653  0.0129 -0.1558
 1169DOPC   GL213716  10.675  32.880  10.947 -0.1871 -0.4276 -0.1923
 1169DOPC   C1A13717  10.260  33.126  11.106  0.1227 -0.1232 -0.0692
 1169DOPC   D2A13718  10.053  32.891  11.471 -0.1641  0.0144 -0.0820
 1169DOPC   C3A13719  10.453  32.902  11.693 -0.0800 -0.1247  0.1302
 1169DOPC   C4A13720  10.619  33.254  11.975 -0.0365 -0.0791  0.0511
 1169DOPC   C1B13721  10.344  32.602  11.237  0.0645  0.1294  0.0809
 1169DOPC   D2B13722  10.012  32.419  11.594 -0.0429 -0.0592 -0.2129
 1169DOPC   C3B13723  10.135  32.606  11.987  0.1887  0.0177 -0.0371
 1169DOPC   C4B13724  10.296  32.868  12.309  0.2422  0.0790 -0.0557
 1170DOPC   NC313725   1.171  22.189  10.582  0.1390  0.0239 -0.3505
 1170DOPC   PO413726   1.553  22.196  10.680 -0.0840  0.0115  0.4373
 1170DOPC   GL113727   1.533  22.205  11.115 -0.3280 -0.2069 -0.3343
 1170DOPC   GL213728   1.256  22.195  11.107 -0.3160  0.1699 -0.2379
 1170DOPC   C1A13729   1.450  22.600  11.334  0.1000 -0.1808 -0.0873
 1170DOPC   D2A13730   1.587  22.976  11.504 -0.1504 -0.0758  0.2812
 1170DOPC   C3A13731   1.659  23.063  11.966  0.0577 -0.0375  0.1033
 1170DOPC   C4A13732   1.964  22.801  12.224 -0.1340  0.0068 -0.2444
 1170DOPC   C1B13733   1.159  21.918  11.396  0.0718 -0.0750  0.0060
 1170DOPC   D2B13734   1.173  21.445  11.467 -0.2721  0.0494 -0.0588
 1170DOPC   C3B13735   0.873  21.248  11.751  0.1746  0.1280  0.2393
 1170DOPC   C4B13736   0.791  21.223  12.229  0.0971  0.1043  0.0157
 1171DOPE   NH313737   3.046  24.166  10.286 -0.1248  0.2921  0.0524
 1171DOPE   PO413738   3.203  24.394  10.411 -0.2005  0.2030 -0.0046
 1171DOPE   GL113739   3.215  24.415  10.799  0.0750 -0.0082 -0.1834
 1171DOPE   GL213740   3.438  24.254  10.892  0.0944 -0.0054  0.0901
 1171DOPE   C1A13741   2.983  24.750  11.084 -0.1841  0.0435  0.1916
 1171DOPE   D2A13742   2.914  24.861  11.531 -0.1073  0.1249  0.1625
 1171DOPE   C3A13743   2.593  24.877  11.812 -0.1185  0.0936  0.1445
 1171DOPE   C4A13744   2.268  24.906  12.137 -0.1563 -0.0290  0.0725
 1171DOPE   C1B13745   3.252  24.339  11.282 -0.1159 -0.3084  0.0819
 1171DOPE   D2B13746   3.332  24.583  11.666  0.2409  0.0141 -0.0920
 1171DOPE   C3B13747   2.978  24.394  11.925 -0.0400 -0.0990  0.2937
 1171DOPE   C4B13748   2.814  23.996  12.155  0.0303 -0.2703  0.2780
 1172DOPE   NH313749   9.606  25.841  10.400 -0.0262 -0.3148  0.2461
 1172DOPE   PO413750   9.690  25.530  10.548  0.1236 -0.2884 -0.0531
 1172DOPE   GL113751   9.679  25.629  10.881  0.1207  0.1053 -0.0778
 1172DOPE   GL213752   9.453  25.861  10.925  0.0225  0.1363 -0.0320
 1172DOPE   C1A13753   9.484  25.396  11.250 -0.1541  0.3076  0.0999
 1172DOPE   D2A13754   9.649  25.222  11.661 -0.3198  0.2798 -0.2469
 1172DOPE   C3A13755   9.819  25.490  11.997  0.1312 -0.0327 -0.1025
 1172DOPE   C4A13756   9.830  25.554  12.435 -0.0297 -0.0262 -0.0870
 1172DOPE   C1B13757   9.373  26.060  11.319  0.1273  0.1040  0.2781
 1172DOPE   D2B13758   9.261  26.306  11.716  0.0277  0.0524 -0.1129
 1172DOPE   C3B13759   9.138  26.406  12.129 -0.3289  0.0604  0.1570
 1172DOPE   C4B13760   9.137  26.417  12.619 -0.1509 -0.0082  0.1321
 1173POSM   NC313761   5.140  24.331  10.680 -0.2401 -0.1127 -0.0988
 1173POSM   PO413762   5.510  24.148  10.638 -0.1006  0.0667  0.1205
 1173POSM   AM113763   5.555  24.286  10.932  0.1046 -0.2171  0.0097
 1173POSM   AM213764   5.385  24.412  11.094  0.1787  0.3160  0.1240
 1173POSM   T1A13765   5.651  24.193  11.449 -0.0114  0.1070  0.1152
 1173POSM   C2A13766   5.597  24.327  11.860 -0.1863 -0.0153  0.1393
 1173POSM   C3A13767   5.536  24.230  12.356 -0.0291 -0.0494 -0.3437
 1173POSM   C1B13768   5.232  24.494  11.355  0.2154  0.0691 -0.1262
 1173POSM   D2B13769   5.150  24.414  11.753  0.0103 -0.1555 -0.4709
 1173POSM   C3B13770   5.234  24.743  12.046 -0.0736  0.0146  0.0634
 1173POSM   C4B13771   5.412  25.189  12.080 -0.1878  0.0455  0.0812
 1174POSM   NC313772   5.457  27.103  10.404 -0.1807 -0.3512 -0.4847
 1174POSM   PO413773   5.429  27.485  10.299  0.0190 -0.1893  0.2243
 1174POSM   AM113774   5.327  27.583  10.578  0.3452 -0.0476  0.2413
 1174POSM   AM213775   5.340  27.842  10.675  0.2591  0.0044  0.1280
 1174POSM   T1A13776   5.151  27.358  10.963  0.1609 -0.0451 -0.1441
 1174POSM   C2A13777   4.910  27.421  11.386  0.1954  0.2845 -0.1894
 1174POSM   C3A13778   4.587  27.449  11.736 -0.2558 -0.1816 -0.3290
 1174POSM   C1B13779   5.473  27.776  11.055 -0.0143  0.5447  0.3458
 1174POSM   D2B13780   5.642  27.739  11.463  0.4247  0.0170 -0.2694
 1174POSM   C3B13781   5.994  27.995  11.635 -0.2862  0.2615 -0.1358
 1174POSM   C4B13782   6.135  28.166  12.049 -0.1505 -0.0902  0.1682
 1175POSM   NC313783   3.377   0.337  10.021  0.0951  0.1163 -0.1022
 1175POSM   PO413784   3.044   0.279  10.273 -0.0462  0.2089  0.2371
 1175POSM   AM113785   3.083   0.151  10.554  0.1103 -0.0083  0.1765
 1175POSM   AM213786   2.884   0.114  10.748  0.0669  0.0481 -0.1441
 1175POSM   T1A13787   3.259  -0.200  10.865 -0.0617  0.1829 -0.1909
 1175POSM   C2A13788   3.160  -0.211  11.301  0.1855  0.1086  0.3533
 1175POSM   C3A13789   3.049  -0.294  11.713 -0.1573 -0.2569 -0.2922
 1175POSM   C1B13790   2.888   0.119  11.059 -0.0604  0.1846 -0.0309
 1175POSM   D2B13791   2.799   0.308  11.475 -0.2808 -0.1665  0.2792
 1175POSM   C3B13792   2.536   0.506  11.657 -0.2340 -0.0542 -0.3334
 1175POSM   C4B13793   2.420   0.877  11.994  0.3134 -0.0078  0.1459
 1176POSM   NC313794   7.438  26.379  10.809  0.2621 -0.2526 -0.4313
 1176POSM   PO413795   7.401  26.713  10.580 -0.0813 -0.0661  0.0148
 1176POSM   AM113796   7.243  26.797  10.857  0.3555 -0.3691  0.1298
 1176POSM   AM213797   7.087  26.646  11.065 -0.3331 -0.0438  0.0013
 1176POSM   T1A13798   7.053  27.193  11.173  0.1242  0.0822 -0.3231
 1176POSM   C2A13799   6.894  27.142  11.592  0.1269  0.4212  0.1054
 1176POSM   C3A13800   6.690  27.144  11.995 -0.3468 -0.1197  0.1511
 1176POSM   C1B13801   7.199  26.737  11.396 -0.0410 -0.0780  0.3119
 1176POSM   D2B13802   7.296  26.927  11.793  0.0184 -0.1251 -0.1118
 1176POSM   C3B13803   7.220  27.269  12.148  0.0257  0.3761  0.0512
 1176POSM   C4B13804   7.108  27.509  12.488 -0.0186 -0.0763 -0.1294
 1177DOPC   NC313805   0.646  30.956   9.735  0.3862  0.1479  0.1431
 1177DOPC   PO413806   0.995  30.911   9.957  0.0902 -0.0293 -0.0029
 1177DOPC   GL113807   1.035  30.970  10.355 -0.3302  0.1490  0.1489
 1177DOPC   GL213808   0.680  30.941  10.341  0.0031  0.0079 -0.1692
 1177DOPC   C1A13809   1.195  31.261  10.747 -0.1904  0.1793  0.1153
 1177DOPC   D2A13810   1.069  31.531  11.110  0.1269  0.1750 -0.0184
 1177DOPC   C3A13811   1.194  31.788  11.522  0.0243  0.1525  0.1524
 1177DOPC   C4A13812   1.244  32.031  11.916 -0.0992  0.0138 -0.0707
 1177DOPC   C1B13813   0.321  31.051  10.637 -0.4562  0.2528  0.0855
 1177DOPC   D2B13814   0.309  31.094  11.086  0.2740  0.2232  0.3146
 1177DOPC   C3B13815  -0.045  31.264  11.196 -0.2959 -0.0639 -0.1523
 1177DOPC   C4B13816  -0.457  31.286  11.388 -0.0195 -0.1140 -0.1193
 1178DOPC   NC313817  10.472  25.766  10.384 -0.2668 -0.2070  0.0311
 1178DOPC   PO413818  10.092  25.845  10.278 -0.0955  0.0873 -0.0825
 1178DOPC   GL113819  10.027  26.069  10.572  0.2854 -0.0201 -0.1751
 1178DOPC   GL213820  10.063  25.863  10.769 -0.0953 -0.0710 -0.1670
 1178DOPC   C1A13821   9.723  26.252  10.922  0.3088  0.1752 -0.1224
 1178DOPC   D2A13822   9.673  26.456  11.345  0.1238  0.1399 -0.0764
 1178DOPC   C3A13823   9.867  26.189  11.722 -0.0736 -0.0213 -0.0624
 1178DOPC   C4A13824  10.028  26.452  12.047  0.0184  0.0906  0.0913
 1178DOPC   C1B13825  10.373  25.505  10.794  0.1567 -0.3089  0.2534
 1178DOPC   D2B13826  10.526  25.204  11.139  0.1216 -0.2594 -0.1799
 1178DOPC   C3B13827  10.305  25.168  11.573 -0.2307 -0.0055  0.2173
 1178DOPC   C4B13828  10.174  24.996  11.969  0.0432 -0.1991  0.3738
 1179DOPE   NH313829   7.576  28.713  10.586 -0.1253 -0.4050  0.1584
 1179DOPE   PO413830   7.760  28.446  10.589 -0.3056 -0.0143 -0.1412
 1179DOPE   GL113831   7.615  28.402  10.960  0.0829 -0.1874 -0.2240
 1179DOPE   GL213832   7.308  28.469  10.941 -0.2869 -0.1716  0.2549
 1179DOPE   C1A13833   7.745  28.437  11.404  0.0676  0.0615  0.2599
 1179DOPE   D2A13834   8.067  28.328  11.736  0.0852  0.4950 -0.1315
 1179DOPE   C3A13835   8.204  28.720  11.926 -0.2600 -0.2561  0.1438
 1179DOPE   C4A13836   8.340  28.936  12.274  0.1023 -0.2243  0.0534
 1179DOPE   C1B13837   7.247  28.468  11.406 -0.6617  0.2297  0.1560
 1179DOPE   D2B13838   7.128  28.351  11.880  0.0450 -0.0464 -0.3707
 1179DOPE   C3B13839   7.115  28.036  12.176 -0.1745  0.0051 -0.0084
 1179DOPE   C4B13840   6.999  28.081  12.637  0.1899 -0.5718 -0.4311
 1180DOPC   NC313841   9.497  30.065  10.528  0.1637  0.3290 -0.0191
 1180DOPC   PO413842   9.173  29.886  10.622 -0.3942 -0.0762  0.1248
 1180DOPC   GL113843   8.998  29.972  10.840 -0.3703 -0.2886  0.0034
 1180DOPC   GL213844   8.746  30.071  10.921  0.0352  0.0572 -0.0756
 1180DOPC   C1A13845   9.077  29.866  11.298  0.0198 -0.0771  0.0465
 1180DOPC   D2A13846   8.708  29.812  11.581 -0.2229 -0.0635  0.1187
 1180DOPC   C3A13847   8.776  29.547  11.968 -0.0386  0.1948  0.1148
 1180DOPC   C4A13848   8.594  29.468  12.399  0.2900  0.1605 -0.0121
 1180DOPC   C1B13849   8.517  30.337  11.213  0.0569  0.3124  0.0606
 1180DOPC   D2B13850   8.450  30.715  11.461 -0.1134 -0.2465  0.0511
 1180DOPC   C3B13851   8.303  30.810  11.874 -0.5152 -0.0052  0.0820
 1180DOPC   C4B13852   8.476  30.822  12.279 -0.1105 -0.2860  0.0508
 1181DOPC   NC313853  11.644  31.384  10.541 -0.1307  0.0672 -0.0902
 1181DOPC   PO413854  12.049  31.402  10.593 -0.0550 -0.2921  0.0372
 1181DOPC   GL113855  11.963  31.465  11.028  0.2750 -0.1053  0.3259
 1181DOPC   GL213856  11.657  31.329  11.048 -0.1304  0.1185 -0.1349
 1181DOPC   C1A13857  12.220  31.454  11.453  0.0127 -0.1663 -0.2696
 1181DOPC   D2A13858  12.545  31.467  11.785  0.1444 -0.2590  0.0020
 1181DOPC   C3A13859  12.352  31.193  12.136 -0.1509  0.3415 -0.1185
 1181DOPC   C4A13860  12.142  31.162  12.554 -0.1672  0.0257 -0.0500
 1181DOPC   C1B13861  11.718  31.391  11.502 -0.3396  0.1916  0.2468
 1181DOPC   D2B13862  11.694  31.449  11.961  0.0945 -0.1002  0.0693
 1181DOPC   C3B13863  11.551  31.095  12.291  0.0655  0.3094 -0.1633
 1181DOPC   C4B13864  11.201  30.938  12.554  0.0159  0.1690  0.0378
 1182DOPS   CNO13865   9.436  31.578  10.221 -0.1183 -0.0329 -0.2989
 1182DOPS   PO413866   9.304  31.539  10.578  0.0192  0.0251  0.1624
 1182DOPS   GL113867   9.256  31.628  10.962  0.1525 -0.2566 -0.1948
 1182DOPS   GL213868   9.516  31.656  11.040  0.0962 -0.2042  0.1317
 1182DOPS   C1A13869   8.956  31.319  11.204 -0.3758  0.2930 -0.2310
 1182DOPS   D2A13870   8.630  31.131  11.556  0.1949  0.1383 -0.2204
 1182DOPS   C3A13871   8.820  30.894  11.892  0.0154  0.1412  0.0539
 1182DOPS   C4A13872   8.824  30.497  12.064 -0.1767 -0.1117 -0.0807
 1182DOPS   C1B13873   9.354  31.497  11.449  0.1048  0.0399 -0.0096
 1182DOPS   D2B13874   9.213  31.287  11.842  0.0880 -0.1540  0.0949
 1182DOPS   C3B13875   9.538  31.190  12.152 -0.1140 -0.1474 -0.0240
 1182DOPS   C4B13876   9.933  31.002  12.342 -0.0300 -0.0468  0.0290
 1183POSM   NC313877   7.951  26.127  10.200  0.3728  0.0226  0.1350
 1183POSM   PO413878   7.835  26.465  10.406  0.0460  0.2515 -0.0100
 1183POSM   AM113879   7.930  26.576  10.680 -0.0868  0.0878  0.0894
 1183POSM   AM213880   7.804  26.718  10.895  0.0801  0.2044 -0.0617
 1183POSM   T1A13881   8.259  26.553  11.004  0.0039 -0.0665  0.0960
 1183POSM   C2A13882   8.483  26.643  11.377 -0.3433  0.0834  0.0224
 1183POSM   C3A13883   8.635  27.063  11.573 -0.0117  0.2173  0.0897
 1183POSM   C1B13884   7.725  26.503  11.193 -0.1308  0.0361  0.2394
 1183POSM   D2B13885   7.639  26.415  11.705 -0.1639  0.0938 -0.3678
 1183POSM   C3B13886   7.389  26.481  12.090  0.0168  0.1425 -0.0448
 1183POSM   C4B13887   7.309  26.795  12.434  0.1700 -0.1611 -0.1349
 1184DOPS   CNO13888   6.769  28.835  10.153  0.1940 -0.3588  0.0922
 1184DOPS   PO413889   6.461  28.971   9.999 -0.1932  0.1548 -0.1456
 1184DOPS   GL113890   6.314  28.921  10.453 -0.1587 -0.1977 -0.2195
 1184DOPS   GL213891   6.410  29.128  10.538  0.1436 -0.1541  0.1591
 1184DOPS   C1A13892   6.021  28.642  10.684 -0.2702 -0.1532  0.0872
 1184DOPS   D2A13893   5.924  28.718  11.149 -0.1099 -0.1328  0.0823
 1184DOPS   C3A13894   6.010  28.786  11.569 -0.0398 -0.1414 -0.0489
 1184DOPS   C4A13895   5.891  29.024  11.920  0.4165 -0.0901 -0.1482
 1184DOPS   C1B13896   6.409  29.569  10.765  0.1631 -0.0161 -0.1086
 1184DOPS   D2B13897   6.357  29.674  11.234  0.1859 -0.2001 -0.1445
 1184DOPS   C3B13898   6.616  29.855  11.612  0.2930  0.2648 -0.2496
 1184DOPS   C4B13899   6.538  30.163  11.937  0.0204  0.1902  0.0750
 1185POSM   NC313900   1.494  29.098   9.489  0.1109 -0.0602  0.0837
 1185POSM   PO413901   1.174  29.329   9.593 -0.0454 -0.0282 -0.3430
 1185POSM   AM113902   1.132  29.232   9.918  0.1687 -0.1925 -0.1601
 1185POSM   AM213903   1.295  29.077  10.089  0.0898 -0.0099  0.0124
 1185POSM   T1A13904   0.888  29.273  10.359  0.0560  0.0806  0.0870
 1185POSM   C2A13905   1.070  29.265  10.800  0.1609 -0.2683 -0.1038
 1185POSM   C3A13906   1.067  29.541  11.177  0.2165  0.0073  0.2238
 1185POSM   C1B13907   1.340  28.971  10.428  0.2896 -0.0634  0.0092
 1185POSM   D2B13908   1.263  28.811  10.821  0.0176 -0.0973 -0.2721
 1185POSM   C3B13909   1.379  29.052  11.136  0.4552  0.0981  0.1999
 1185POSM   C4B13910   1.544  29.189  11.520  0.2022 -0.1905 -0.2850
 1186DOPC   NC313911   2.513  33.723  10.062 -0.0773 -0.2789 -0.0154
 1186DOPC   PO413912   2.546  33.348  10.166 -0.0188 -0.0375  0.2049
 1186DOPC   GL113913   2.338  33.226  10.508  0.2236 -0.3569 -0.1934
 1186DOPC   GL213914   2.599  33.180  10.656 -0.1096 -0.2098  0.2055
 1186DOPC   C1A13915   2.057  33.313  10.868 -0.1924 -0.1016 -0.1863
 1186DOPC   D2A13916   1.831  33.295  11.292  0.0747  0.1076 -0.1571
 1186DOPC   C3A13917   1.686  33.682  11.421 -0.1415  0.0797  0.1462
 1186DOPC   C4A13918   1.745  33.891  11.788 -0.2816 -0.3354  0.1388
 1186DOPC   C1B13919   2.564  32.849  11.017  0.1971  0.2668  0.1354
 1186DOPC   D2B13920   2.588  32.402  11.112 -0.0260 -0.0811  0.2397
 1186DOPC   C3B13921   2.688  32.267  11.521 -0.0650  0.1166  0.2646
 1186DOPC   C4B13922   2.663  32.062  11.962 -0.2649 -0.2428  0.1609
 1187DOPC   NC313923   6.912  28.025  10.448  0.3142  0.0410  0.2227
 1187DOPC   PO413924   6.734  27.783  10.306  0.0523 -0.0484 -0.0305
 1187DOPC   GL113925   6.707  27.522  10.650  0.1547 -0.0977  0.3797
 1187DOPC   GL213926   6.855  27.513  10.929 -0.0410 -0.0460  0.1835
 1187DOPC   C1A13927   6.430  27.711  10.937  0.0265  0.1553 -0.1649
 1187DOPC   D2A13928   6.415  27.846  11.380  0.2680 -0.0350  0.1024
 1187DOPC   C3A13929   6.513  27.667  11.771  0.1569 -0.3821 -0.0104
 1187DOPC   C4A13930   6.736  27.730  12.157  0.0661  0.1016 -0.2248
 1187DOPC   C1B13931   6.864  27.664  11.363 -0.2510 -0.2303  0.0029
 1187DOPC   D2B13932   6.978  28.058  11.526  0.1731 -0.1905 -0.1504
 1187DOPC   C3B13933   6.661  28.121  11.874 -0.0849 -0.4362  0.3266
 1187DOPC   C4B13934   6.607  28.256  12.271 -0.1978  0.0836 -0.0698
 1188DOPC   NC313935   0.837  24.889  10.029  0.0024 -0.2128  0.3314
 1188DOPC   PO413936   0.632  25.172   9.873 -0.2200 -0.2281 -0.2353
 1188DOPC   GL113937   0.391  24.906  10.062  0.1054  0.1080 -0.2601
 1188DOPC   GL213938   0.398  25.065  10.294 -0.2513  0.1196  0.2186
 1188DOPC   C1A13939   0.492  24.580  10.288  0.0756  0.1522  0.4710
 1188DOPC   D2A13940   0.606  24.306  10.585 -0.0742 -0.0872 -0.1979
 1188DOPC   C3A13941   0.643  24.599  10.926  0.0122  0.1577 -0.0209
 1188DOPC   C4A13942   0.794  24.998  11.113 -0.1862 -0.1317  0.3190
 1188DOPC   C1B13943   0.380  24.941  10.712  0.2356  0.0836  0.2146
 1188DOPC   D2B13944   0.222  25.030  11.150  0.2585  0.1252  0.0237
 1188DOPC   C3B13945   0.486  24.760  11.485  0.0921 -0.2386 -0.2521
 1188DOPC   C4B13946   0.692  24.403  11.727  0.1169  0.1410  0.2179
 1189POSM   NC313947   5.701  32.079  10.434  0.2504  0.4023  0.2154
 1189POSM   PO413948   5.664  31.713  10.253 -0.1621 -0.0707 -0.0534
 1189POSM   AM113949   5.863  31.601  10.489 -0.0486 -0.2277 -0.0690
 1189POSM   AM213950   6.049  31.701  10.639  0.0614 -0.3912  0.1138
 1189POSM   T1A13951   6.082  31.234  10.766 -0.2772 -0.2412  0.3232
 1189POSM   C2A13952   6.135  30.769  10.923  0.1130 -0.1768 -0.1703
 1189POSM   C3A13953   6.256  30.492  11.247 -0.1504 -0.1059  0.2714
 1189POSM   C1B13954   6.326  31.729  10.837 -0.1793  0.7710 -0.1200
 1189POSM   D2B13955   6.570  31.681  11.285  0.2851  0.1505 -0.1808
 1189POSM   C3B13956   6.406  31.794  11.691  0.2968 -0.1019 -0.1002
 1189POSM   C4B13957   6.286  31.866  12.098  0.1654  0.0752 -0.3387
 1190POSM   NC313958   4.333  27.529  10.328 -0.0810  0.1211  0.3854
 1190POSM   PO413959   4.117  27.623   9.995 -0.1507  0.3689  0.2166
 1190POSM   AM113960   3.931  27.601  10.252  0.0882 -0.0396 -0.4124
 1190POSM   AM213961   3.819  27.442  10.430 -0.1459  0.0299  0.0958
 1190POSM   T1A13962   3.647  27.858  10.634  0.3771 -0.2075 -0.1089
 1190POSM   C2A13963   3.469  27.912  11.056 -0.2388  0.1278 -0.0100
 1190POSM   C3A13964   3.393  28.215  11.451 -0.1170  0.1279 -0.0208
 1190POSM   C1B13965   3.963  27.526  10.722  0.0613 -0.1449  0.1724
 1190POSM   D2B13966   3.988  27.814  11.088 -0.2097 -0.1322 -0.1852
 1190POSM   C3B13967   4.359  27.677  11.335  0.1867  0.0764 -0.1065
 1190POSM   C4B13968   4.692  27.944  11.544  0.0187  0.0932  0.1232
 1191DOPE   NH313969   2.755  32.374  10.568 -0.3621 -0.5065 -0.0365
 1191DOPE   PO413970   3.036  32.555  10.581  0.4545  0.1805 -0.2577
 1191DOPE   GL113971   3.169  32.341  10.885 -0.0515  0.2028 -0.0445
 1191DOPE   GL213972   3.475  32.377  10.835 -0.2035  0.1979  0.2738
 1191DOPE   C1A13973   2.991  32.025  11.234  0.1026  0.1625  0.0624
 1191DOPE   D2A13974   2.911  31.798  11.638  0.2730 -0.1424 -0.1777
 1191DOPE   C3A13975   3.193  31.561  11.914  0.0908  0.2113 -0.2237
 1191DOPE   C4A13976   3.228  31.276  12.252 -0.0509 -0.1437  0.0083
 1191DOPE   C1B13977   3.460  32.308  11.292 -0.1431  0.0669  0.1105
 1191DOPE   D2B13978   3.402  31.837  11.377  0.1899  0.2604  0.0763
 1191DOPE   C3B13979   3.777  31.589  11.585  0.0092  0.0878  0.0392
 1191DOPE   C4B13980   4.017  31.826  11.912 -0.1929  0.0786  0.0963
 1192DOPS   CNO13981  10.821  28.213  10.421 -0.0432 -0.1592  0.0372
 1192DOPS   PO413982  10.764  27.856  10.392  0.0790  0.0647 -0.0757
 1192DOPS   GL113983  10.650  27.620  10.528  0.1445  0.0369  0.0592
 1192DOPS   GL213984  10.879  27.545  10.697  0.1364 -0.0519  0.0695
 1192DOPS   C1A13985  10.545  27.186  10.670 -0.2058  0.0147 -0.0820
 1192DOPS   D2A13986  10.636  26.761  10.694  0.3465 -0.1996  0.2532
 1192DOPS   C3A13987  10.860  26.418  10.919 -0.3186 -0.3748  0.3777
 1192DOPS   C4A13988  11.098  26.010  10.836  0.1015 -0.0334 -0.2017
 1192DOPS   C1B13989  10.818  27.566  11.161 -0.3096  0.0741 -0.0429
 1192DOPS   D2B13990  10.598  27.621  11.575 -0.1223  0.1211 -0.0920
 1192DOPS   C3B13991  10.449  27.420  11.979  0.0518 -0.0511  0.0422
 1192DOPS   C4B13992  10.174  27.345  12.325 -0.3954  0.0807  0.1009
 1193DOPE   NH313993  10.068  33.552  10.333 -0.1097 -0.0215  0.1756
 1193DOPE   PO413994  10.355  33.438  10.469 -0.5544  0.1025 -0.3031
 1193DOPE   GL113995  10.455  33.442  10.890 -0.3504 -0.6460 -0.0753
 1193DOPE   GL213996  10.337  33.634  11.168  0.0497 -0.2638  0.1308
 1193DOPE   C1A13997  10.719  33.277  11.227 -0.0118  0.1608  0.1199
 1193DOPE   D2A13998  11.127  33.096  11.391  0.0041  0.1197  0.0142
 1193DOPE   C3A13999  10.990  33.044  11.842 -0.1606 -0.1188 -0.0870
 1193DOPE   C4A14000  11.252  32.725  12.163  0.1417  0.0639 -0.1018
 1193DOPE   C1B14001  10.304  33.447  11.598  0.6286 -0.0164 -0.2533
 1193DOPE   D2B14002  10.117  33.175  11.930 -0.2180 -0.1131 -0.0029
 1193DOPE   C3B14003   9.755  33.114  12.171 -0.1449 -0.0632 -0.1774
 1193DOPE   C4B14004   9.309  33.174  12.132  0.0277 -0.0609  0.0925
 1194DOPC   NC314005  34.159  27.707   9.907  0.1780  0.0380 -0.0226
 1194DOPC   PO414006  34.412  27.453   9.719 -0.1775 -0.0803 -0.4750
 1194DOPC   GL114007  34.449  27.338  10.141  0.0338  0.1113  0.2227
 1194DOPC   GL214008  34.722  27.240  10.156 -0.2149 -0.2165  0.2154
 1194DOPC   C1A14009  34.067  27.190  10.331  0.0649  0.0348 -0.1143
 1194DOPC   D2A14010  33.795  27.098  10.709 -0.1019 -0.4062 -0.0515
 1194DOPC   C3A14011  33.854  27.254  11.166 -0.0022  0.0716  0.1192
 1194DOPC   C4A14012  34.161  27.591  11.317 -0.1175  0.2522  0.3132
 1194DOPC   C1B14013  34.637  27.277  10.601  0.0795 -0.1783  0.2146
 1194DOPC   D2B14014  34.374  27.072  10.928 -0.1615 -0.0824 -0.0671
 1194DOPC   C3B14015  34.264  27.075  11.371 -0.1039 -0.0998 -0.2789
 1194DOPC   C4B14016  33.971  27.254  11.663 -0.0505  0.2427  0.1694
 1195DOPC   NC314017   5.186  28.401  10.317 -0.4019  0.1152 -0.1641
 1195DOPC   PO414018   4.822  28.354  10.153  0.1619 -0.0006 -0.1849
 1195DOPC   GL114019   4.721  28.412  10.608 -0.0405 -0.2169 -0.0379
 1195DOPC   GL214020   4.901  28.122  10.639  0.0276 -0.1555  0.3399
 1195DOPC   C1A14021   4.600  28.341  11.057 -0.2378  0.0274 -0.1114
 1195DOPC   D2A14022   4.437  28.363  11.485 -0.0184 -0.1406 -0.1879
 1195DOPC   C3A14023   4.061  28.494  11.783 -0.0182  0.0134  0.1060
 1195DOPC   C4A14024   3.876  28.450  12.208 -0.0722  0.0494 -0.0797
 1195DOPC   C1B14025   4.947  27.863  11.042  0.0154 -0.0545  0.1821
 1195DOPC   D2B14026   5.150  27.850  11.460 -0.0631 -0.0109 -0.1903
 1195DOPC   C3B14027   5.097  27.620  11.873  0.0242  0.4019  0.1218
 1195DOPC   C4B14028   5.232  27.469  12.261  0.0142  0.0827  0.0104
 1196POSM   NC314029   8.831  27.002  10.464  0.0869  0.1610  0.0462
 1196POSM   PO414030   8.905  27.367  10.516  0.0358  0.0584 -0.2074
 1196POSM   AM114031   9.088  27.226  10.750  0.0206 -0.2175  0.1160
 1196POSM   AM214032   9.049  27.021  10.910  0.0761  0.0829 -0.2336
 1196POSM   T1A14033   9.394  27.233  11.162  0.0003  0.1411  0.1041
 1196POSM   C2A14034   9.666  27.337  11.494 -0.0259  0.1006  0.0522
 1196POSM   C3A14035  10.151  27.301  11.625 -0.1573  0.0033  0.6501
 1196POSM   C1B14036   8.980  26.963  11.238  0.3626  0.1156  0.0329
 1196POSM   D2B14037   8.908  26.645  11.544 -0.0930 -0.1267  0.1200
 1196POSM   C3B14038   9.042  26.897  11.885 -0.0239  0.1423 -0.0574
 1196POSM   C4B14039   8.969  26.846  12.329  0.2556 -0.1168  0.3094
 1197POSM   NC314040   0.820  32.840  10.248  0.3864  0.0103 -0.3139
 1197POSM   PO414041   0.467  32.826  10.049  0.0760 -0.0467 -0.0955
 1197POSM   AM114042   0.373  32.741  10.344 -0.5212  0.1789 -0.2449
 1197POSM   AM214043   0.379  32.499  10.428  0.0956 -0.0867 -0.3660
 1197POSM   T1A14044   0.581  32.806  10.757  0.1031  0.2441 -0.1757
 1197POSM   C2A14045   0.367  32.789  11.189  0.0043 -0.2354 -0.0664
 1197POSM   C3A14046   0.268  32.606  11.569  0.1017  0.0532 -0.1545
 1197POSM   C1B14047   0.427  32.351  10.764  0.0676  0.1174  0.2100
 1197POSM   D2B14048   0.549  32.322  11.195 -0.4890 -0.1681  0.2165
 1197POSM   C3B14049   0.771  32.664  11.420  0.0037 -0.2604 -0.0083
 1197POSM   C4B14050   0.609  33.116  11.579  0.3399  0.0438  0.1088
 1198DOPS   CNO14051   5.111  24.787  10.423  0.2493  0.3345 -0.1958
 1198DOPS   PO414052   4.814  24.693  10.605 -0.1755  0.0199  0.2906
 1198DOPS   GL114053   5.084  24.724  10.896  0.0425 -0.0766 -0.1348
 1198DOPS   GL214054   4.899  24.889  11.048 -0.0065 -0.2739 -0.0751
 1198DOPS   C1A14055   5.389  25.005  11.115 -0.2402 -0.0152 -0.2432
 1198DOPS   D2A14056   5.452  25.464  11.031  0.0780  0.2832 -0.0131
 1198DOPS   C3A14057   5.781  25.773  11.168  0.0087  0.2712  0.3574
 1198DOPS   C4A14058   6.071  26.055  11.035  0.1468 -0.0142  0.0242
 1198DOPS   C1B14059   4.696  24.627  11.412 -0.0892 -0.2308  0.2452
 1198DOPS   D2B14060   4.782  24.176  11.559  0.0436  0.1933 -0.0409
 1198DOPS   C3B14061   4.564  24.093  11.943 -0.0306 -0.2269 -0.3424
 1198DOPS   C4B14062   4.202  23.917  12.164 -0.0681  0.1064  0.1284
 1199POSM   NC314063   1.459  21.005  10.112  0.1110  0.1612 -0.2572
 1199POSM   PO414064   1.305  20.870  10.465  0.1360  0.0323  0.0734
 1199POSM   AM114065   1.125  20.965  10.726 -0.3619 -0.0939  0.0887
 1199POSM   AM214066   1.090  21.224  10.886 -0.0394  0.3086 -0.4298
 1199POSM   T1A14067   1.213  20.852  11.210  0.0332  0.2015 -0.1942
 1199POSM   C2A14068   1.196  20.797  11.656  0.2363  0.1968  0.3265
 1199POSM   C3A14069   0.992  20.808  12.041  0.1287 -0.1369 -0.3361
 1199POSM   C1B14070   0.763  21.169  11.042  0.2878  0.2381  0.1764
 1199POSM   D2B14071   0.466  21.151  11.432 -0.0690 -0.0549 -0.5789
 1199POSM   C3B14072   0.411  21.332  11.888  0.1283  0.1068  0.0445
 1199POSM   C4B14073   0.028  21.486  12.112  0.0544 -0.2023  0.0233
 1200DOPE   NH314074   6.668  31.997  10.043  0.0609  0.2668 -0.2572
 1200DOPE   PO414075   6.584  31.739  10.210  0.1060 -0.1059 -0.1463
 1200DOPE   GL114076   6.722  31.770  10.575 -0.1155 -0.1104  0.3677
 1200DOPE   GL214077   6.786  32.048  10.535 -0.0360  0.0763  0.1094
 1200DOPE   C1A14078   6.958  31.651  10.964 -0.2319  0.0436  0.0138
 1200DOPE   D2A14079   7.040  31.389  11.288 -0.0035  0.2003 -0.1359
 1200DOPE   C3A14080   7.066  31.309  11.773  0.1763 -0.2595 -0.3115
 1200DOPE   C4A14081   7.058  31.403  12.227  0.2585 -0.0202  0.0009
 1200DOPE   C1B14082   6.512  32.182  10.904  0.0156  0.0749  0.1933
 1200DOPE   D2B14083   6.294  32.105  11.319  0.1031 -0.1572  0.1960
 1200DOPE   C3B14084   6.431  32.270  11.690  0.3568 -0.3498  0.1383
 1200DOPE   C4B14085   6.723  32.393  12.008 -0.1401 -0.1124 -0.2282
 1201DOPE   NH314086   4.007  25.029  10.458  0.4687  0.0128  0.5396
 1201DOPE   PO414087   3.729  25.101  10.312  0.0037 -0.1501 -0.0217
 1201DOPE   GL114088   3.847  25.377  10.668  0.2305 -0.3276  0.3714
 1201DOPE   GL214089   3.607  25.557  10.521 -0.0775  0.4814  0.3800
 1201DOPE   C1A14090   4.029  25.422  11.116  0.2481  0.4532  0.1447
 1201DOPE   D2A14091   4.026  25.148  11.423 -0.2813 -0.1781 -0.1521
 1201DOPE   C3A14092   4.251  25.105  11.846  0.1272 -0.1549  0.3264
 1201DOPE   C4A14093   4.088  24.845  12.237 -0.2945 -0.0433  0.2101
 1201DOPE   C1B14094   3.590  25.641  10.959  0.0900  0.0598  0.2304
 1201DOPE   D2B14095   3.647  25.445  11.406 -0.0485 -0.3025 -0.1534
 1201DOPE   C3B14096   3.744  25.768  11.682  0.0040 -0.0525 -0.1762
 1201DOPE   C4B14097   4.137  25.941  11.874  0.0833  0.2678  0.0891
 1202DOPE   NH314098   2.051  26.049   9.853  0.0549 -0.0686  0.1071
 1202DOPE   PO414099   1.863  26.302   9.756 -0.0656  0.2620  0.1192
 1202DOPE   GL114100   2.060  26.468  10.037 -0.4377  0.0709 -0.1855
 1202DOPE   GL214101   1.935  26.726  10.004 -0.0642  0.1426  0.0224
 1202DOPE   C1A14102   2.181  26.199  10.418  0.1706 -0.1763  0.0322
 1202DOPE   D2A14103   1.801  25.999  10.644  0.0400 -0.1148 -0.3567
 1202DOPE   C3A14104   1.477  26.272  10.677  0.1181  0.2099  0.2048
 1202DOPE   C4A14105   1.008  26.349  10.610 -0.0392 -0.1683 -0.0097
 1202DOPE   C1B14106   2.012  26.678  10.480  0.2285  0.3759  0.0280
 1202DOPE   D2B14107   2.165  26.425  10.850  0.4025 -0.0259 -0.1335
 1202DOPE   C3B14108   2.175  26.434  11.335  0.1428  0.1432 -0.0997
 1202DOPE   C4B14109   2.302  26.497  11.748  0.2013  0.0295  0.1608
 1203DOPS   CNO14110   1.213  22.913   9.983 -0.1470 -0.1736 -0.1088
 1203DOPS   PO414111   1.318  23.026  10.308  0.2218  0.0287  0.1175
 1203DOPS   GL114112   1.129  23.059  10.594  0.1141  0.4185 -0.0348
 1203DOPS   GL214113   1.084  23.246  10.672 -0.1451 -0.0984 -0.0263
 1203DOPS   C1A14114   1.055  22.796  10.967 -0.0416  0.0325  0.1754
 1203DOPS   D2A14115   1.012  22.827  11.399  0.0043 -0.1309 -0.0116
 1203DOPS   C3A14116   0.904  22.520  11.698  0.2809  0.2314 -0.2888
 1203DOPS   C4A14117   0.902  22.520  12.129  0.2932 -0.0834  0.1883
 1203DOPS   C1B14118   1.083  23.324  11.133 -0.1935  0.0251 -0.0655
 1203DOPS   D2B14119   1.087  23.337  11.608  0.1507 -0.2051  0.0593
 1203DOPS   C3B14120   1.188  23.507  11.981 -0.3225  0.2824  0.1149
 1203DOPS   C4B14121   1.104  23.820  12.266  0.0190 -0.0352 -0.0926
 1204POSM   NC314122   8.156  24.321  10.602 -0.1648 -0.2130  0.1133
 1204POSM   PO414123   8.518  24.267  10.489 -0.1892  0.1639  0.0911
 1204POSM   AM114124   8.562  24.171  10.805  0.0018 -0.0954 -0.2801
 1204POSM   AM214125   8.415  24.224  11.037  0.0425  0.1869  0.1408
 1204POSM   T1A14126   8.759  23.905  11.202 -0.2980  0.0879  0.0926
 1204POSM   C2A14127   8.915  24.026  11.635  0.3978  0.0369  0.0179
 1204POSM   C3A14128   8.980  24.033  12.094 -0.5258  0.2723  0.2322
 1204POSM   C1B14129   8.346  24.281  11.355 -0.0937  0.2188 -0.2484
 1204POSM   D2B14130   8.596  24.330  11.785  0.0189  0.1049  0.2362
 1204POSM   C3B14131   8.358  24.595  12.077  0.1986  0.0474  0.1435
 1204POSM   C4B14132   7.907  24.438  12.195  0.1501  0.2007 -0.0477
 1205POSM   NC314133   8.545  27.017  10.978 -0.2797  0.1440 -0.0046
 1205POSM   PO414134   8.478  27.329  10.806  0.1495  0.0679  0.1932
 1205POSM   AM114135   8.447  27.451  11.124  0.1018 -0.2650 -0.5884
 1205POSM   AM214136   8.626  27.522  11.339 -0.1871  0.0488  0.0252
 1205POSM   T1A14137   8.193  27.387  11.559  0.2033  0.0195 -0.0637
 1205POSM   C2A14138   8.071  27.242  11.987  0.0623  0.0718 -0.2860
 1205POSM   C3A14139   7.742  26.907  12.111 -0.3561  0.1641 -0.0467
 1205POSM   C1B14140   8.710  27.638  11.614  0.0092  0.3282 -0.0446
 1205POSM   D2B14141   8.880  27.695  12.019 -0.0196 -0.5465  0.1738
 1205POSM   C3B14142   9.045  28.052  12.200 -0.0851 -0.0585  0.1729
 1205POSM   C4B14143   9.085  28.432  12.465 -0.0743  0.1641 -0.0483
 1206DOPE   NH314144   6.459  25.237  10.019  0.0477  0.1347  0.1504
 1206DOPE   PO414145   6.449  24.939  10.217 -0.2475  0.1565  0.1216
 1206DOPE   GL114146   6.634  25.043  10.577 -0.0750  0.3086 -0.3895
 1206DOPE   GL214147   6.837  24.859  10.538 -0.0865  0.1737  0.0809
 1206DOPE   C1A14148   6.393  24.982  10.944 -0.1055 -0.0005  0.0156
 1206DOPE   D2A14149   6.563  25.215  11.391 -0.1040  0.0810  0.1818
 1206DOPE   C3A14150   6.927  25.272  11.679 -0.1195  0.0049  0.0184
 1206DOPE   C4A14151   7.187  25.262  12.005 -0.0604  0.0603 -0.0360
 1206DOPE   C1B14152   6.931  25.059  10.949 -0.2382  0.1436  0.3468
 1206DOPE   D2B14153   7.254  25.322  11.101 -0.1625 -0.4670 -0.0157
 1206DOPE   C3B14154   7.295  25.556  11.470 -0.1224  0.2291  0.4637
 1206DOPE   C4B14155   7.363  25.990  11.595 -0.1234  0.0121  0.1194
 1207DOPS   CNO14156  34.349  32.589   9.795  0.1525 -0.0383 -0.1564
 1207DOPS   PO414157  34.360  32.460  10.126  0.1473  0.0587 -0.1268
 1207DOPS   GL114158  34.349  32.605  10.498 -0.3668  0.5281  0.3657
 1207DOPS   GL214159  34.548  32.440  10.703  0.4331  0.2836  0.2023
 1207DOPS   C1A14160  34.198  32.919  10.763 -0.1117 -0.2109  0.1775
 1207DOPS   D2A14161  33.891  32.919  11.089 -0.2550  0.0226 -0.4115
 1207DOPS   C3A14162  33.827  33.040  11.565 -0.0158 -0.1318  0.0628
 1207DOPS   C4A14163  33.526  33.028  11.930  0.0480  0.0309 -0.4297
 1207DOPS   C1B14164  34.843  32.352  11.105 -0.0057  0.0765 -0.2095
 1207DOPS   D2B14165  34.946  32.035  11.348 -0.0968 -0.0949 -0.0031
 1207DOPS   C3B14166  34.672  32.062  11.677  0.0378  0.0872  0.1222
 1207DOPS   C4B14167  34.368  31.891  11.944  0.1796  0.1490  0.0162
 1208DOPE   NH314168   8.395  28.846  10.284  0.2438  0.0315 -0.1315
 1208DOPE   PO414169   8.394  28.817  10.578  0.1689 -0.0808  0.1234
 1208DOPE   GL114170   8.191  29.102  10.789 -0.2744 -0.2902  0.1020
 1208DOPE   GL214171   7.934  29.015  10.676  0.2400  0.3330  0.1843
 1208DOPE   C1A14172   8.321  29.368  11.202  0.2426 -0.1853  0.0860
 1208DOPE   D2A14173   8.270  29.550  11.607 -0.1558 -0.0850 -0.0201
 1208DOPE   C3A14174   8.145  29.877  11.869 -0.0291 -0.0459 -0.0824
 1208DOPE   C4A14175   8.166  30.235  12.173 -0.1383  0.0145 -0.1257
 1208DOPE   C1B14176   7.675  28.858  11.093 -0.2079  0.0899  0.0299
 1208DOPE   D2B14177   7.593  29.033  11.515  0.0438  0.0824 -0.1660
 1208DOPE   C3B14178   7.894  29.153  11.829 -0.0554  0.0740  0.0824
 1208DOPE   C4B14179   8.193  29.428  12.083 -0.1691  0.0820 -0.1564
 1209POSM   NC314180   0.788  27.273   9.686  0.2096 -0.0646  0.0295
 1209POSM   PO414181   0.691  26.967   9.931  0.0894  0.1677 -0.2074
 1209POSM   AM114182   0.475  26.874  10.151  0.1781 -0.1714 -0.4917
 1209POSM   AM214183   0.492  26.737  10.352 -0.3438  0.2445 -0.2488
 1209POSM   T1A14184   0.031  26.765  10.217  0.3520 -0.2512  0.3397
 1209POSM   C2A14185  -0.331  26.841  10.498  0.1056  0.0613 -0.3141
 1209POSM   C3A14186  -0.754  26.642  10.553  0.3078  0.1020 -0.0197
 1209POSM   C1B14187   0.584  26.781  10.679 -0.3016  0.1762  0.0370
 1209POSM   D2B14188   0.520  26.738  11.083  0.0493 -0.0876  0.3114
 1209POSM   C3B14189   0.929  26.808  11.298 -0.0631  0.0142  0.1578
 1209POSM   C4B14190   1.276  26.577  11.508  0.0125 -0.1420  0.1917
 1210POSM   NC314191   3.716  34.763  10.649 -0.0583 -0.1647  0.2238
 1210POSM   PO414192   3.546  35.065  10.478 -0.0693 -0.0722 -0.0938
 1210POSM   AM114193   3.491  35.130  10.816  0.1626  0.0952  0.1923
 1210POSM   AM214194   3.448  35.041  11.107 -0.2091 -0.3890 -0.1374
 1210POSM   T1A14195   3.154  35.446  11.071 -0.2214  0.0333 -0.1708
 1210POSM   C2A14196   3.028  35.595  11.481 -0.1183  0.0197 -0.0322
 1210POSM   C3A14197   2.926  35.588  11.913  0.0271  0.2366  0.1410
 1210POSM   C1B14198   3.584  34.761  11.289 -0.2134 -0.1389 -0.0654
 1210POSM   D2B14199   3.531  34.583  11.734  0.0010 -0.1528  0.0516
 1210POSM   C3B14200   3.437  34.121  11.693 -0.1514 -0.2495 -0.2603
 1210POSM   C4B14201   3.496  33.730  12.007 -0.0391  0.0784  0.2728
 1211DOPC   NC314202   5.935  34.619  10.935 -0.1123 -0.3703 -0.1215
 1211DOPC   PO414203   5.619  34.870  10.966 -0.1821 -0.3336 -0.0246
 1211DOPC   GL114204   5.445  34.621  11.233  0.1779 -0.0280 -0.3412
 1211DOPC   GL214205   5.727  34.511  11.377  0.1750  0.1354 -0.0342
 1211DOPC   C1A14206   5.266  34.187  11.334  0.0794 -0.1744  0.0506
 1211DOPC   D2A14207   5.135  33.739  11.362  0.0753  0.0796 -0.1480
 1211DOPC   C3A14208   5.272  33.537  11.746 -0.0195 -0.0063 -0.2543
 1211DOPC   C4A14209   5.508  33.612  12.141  0.0604 -0.1528 -0.0497
 1211DOPC   C1B14210   5.806  34.506  11.848 -0.0651  0.0051  0.2224
 1211DOPC   D2B14211   5.598  34.788  12.198 -0.1290 -0.0123 -0.0827
 1211DOPC   C3B14212   5.364  35.208  12.113 -0.2438 -0.0374 -0.3157
 1211DOPC   C4B14213   4.907  35.377  12.077 -0.2260 -0.0030 -0.5524
 1212POSM   NC314214  32.951  29.717   8.927 -0.3845 -0.1488 -0.1814
 1212POSM   PO414215  32.904  30.094   9.043 -0.3495 -0.1171  0.0569
 1212POSM   AM114216  32.803  30.176   9.374 -0.0293  0.2593  0.1383
 1212POSM   AM214217  32.561  30.104   9.502 -0.1717  0.1612 -0.1017
 1212POSM   T1A14218  32.874  29.954   9.844  0.2248 -0.0214  0.2080
 1212POSM   C2A14219  32.900  29.769  10.324 -0.0201  0.0402 -0.0918
 1212POSM   C3A14220  32.668  29.853  10.639  0.0984  0.0780  0.0632
 1212POSM   C1B14221  32.392  30.055   9.805  0.0873 -0.0339  0.2186
 1212POSM   D2B14222  32.258  29.950  10.207 -0.0618 -0.1839 -0.0582
 1212POSM   C3B14223  32.129  30.030  10.727 -0.2612  0.2386 -0.1605
 1212POSM   C4B14224  31.649  30.073  10.812 -0.0374 -0.0246 -0.1592
 1213DOPE   NH314225   4.587  27.371   9.927 -0.1787 -0.0300 -0.1068
 1213DOPE   PO414226   4.712  27.205  10.182 -0.1253  0.3684  0.0913
 1213DOPE   GL114227   4.596  27.134  10.563  0.3032  0.0256  0.2018
 1213DOPE   GL214228   4.304  27.034  10.610 -0.1831 -0.1485 -0.0905
 1213DOPE   C1A14229   4.783  27.067  10.969 -0.1516 -0.0142  0.1709
 1213DOPE   D2A14230   5.093  26.916  11.318 -0.1545 -0.2928  0.0937
 1213DOPE   C3A14231   5.267  26.707  11.764 -0.0831 -0.0157 -0.4365
 1213DOPE   C4A14232   5.160  26.479  12.093  0.2170 -0.2005  0.2192
 1213DOPE   C1B14233   3.856  26.903  10.794  0.0057  0.0289 -0.0891
 1213DOPE   D2B14234   3.356  26.804  10.847 -0.2012 -0.0689 -0.0555
 1213DOPE   C3B14235   3.157  26.613  11.249 -0.0120 -0.1816 -0.2518
 1213DOPE   C4B14236   3.222  26.305  11.530 -0.0878  0.0238 -0.0422
 1214DOPS   CNO14237   1.454  28.618   9.957  0.2616 -0.0982 -0.2089
 1214DOPS   PO414238   1.193  28.402   9.892 -0.0237  0.0788 -0.3061
 1214DOPS   GL114239   1.131  28.534  10.309  0.4708 -0.2943  0.1139
 1214DOPS   GL214240   0.930  28.690  10.449 -0.2447  0.0566 -0.2077
 1214DOPS   C1A14241   1.092  28.348  10.716  0.1119  0.1719 -0.0495
 1214DOPS   D2A14242   1.258  28.070  11.086 -0.2616 -0.1853 -0.0975
 1214DOPS   C3A14243   1.116  28.209  11.481  0.0442 -0.1104  0.2764
 1214DOPS   C4A14244   0.986  28.617  11.588 -0.3938  0.0384 -0.0957
 1214DOPS   C1B14245   0.630  29.008  10.716  0.0763 -0.1060  0.0513
 1214DOPS   D2B14246   0.566  29.088  11.194 -0.0595  0.0250 -0.2493
 1214DOPS   C3B14247   0.421  28.756  11.504  0.5362  0.1149 -0.2061
 1214DOPS   C4B14248   0.098  28.520  11.778  0.0791 -0.3660  0.3929
 1215DOPC   NC314249   3.158  34.091  10.206  0.2147 -0.0969  0.1752
 1215DOPC   PO414250   2.926  33.804  10.224 -0.1138  0.3302  0.1031
 1215DOPC   GL114251   2.723  33.758  10.658  0.0117 -0.2071 -0.3606
 1215DOPC   GL214252   2.431  33.676  10.584  0.0600 -0.1543  0.1146
 1215DOPC   C1A14253   3.086  33.649  10.993 -0.2724  0.2615  0.0667
 1215DOPC   D2A14254   3.369  33.652  11.403 -0.0638  0.0112 -0.0657
 1215DOPC   C3A14255   3.173  33.463  11.781  0.0984 -0.2261 -0.1711
 1215DOPC   C4A14256   3.076  33.342  12.215 -0.3377  0.5412 -0.0664
 1215DOPC   C1B14257   2.635  33.518  10.997  0.0050 -0.0634  0.1119
 1215DOPC   D2B14258   2.767  33.562  11.434  0.1180 -0.4993  0.0050
 1215DOPC   C3B14259   2.560  33.813  11.776 -0.0609  0.0076 -0.1610
 1215DOPC   C4B14260   2.192  33.935  12.024 -0.0050  0.1301  0.2249
 1216DOPC   NC314261   9.502  28.911  10.927 -0.0290 -0.1878  0.1582
 1216DOPC   PO414262   9.120  29.006  10.863 -0.2660  0.3232  0.0325
 1216DOPC   GL114263   9.080  29.079  11.227 -0.5742 -0.2519  0.1853
 1216DOPC   GL214264   9.271  29.341  11.267 -0.1394 -0.2653  0.0290
 1216DOPC   C1A14265   9.171  29.047  11.695 -0.0514  0.0214  0.0840
 1216DOPC   D2A14266   9.063  29.188  12.101 -0.0424  0.1862 -0.1936
 1216DOPC   C3A14267   9.124  28.950  12.471  0.3445 -0.0985 -0.2865
 1216DOPC   C4A14268   9.055  28.863  12.915  0.0503  0.1712 -0.1214
 1216DOPC   C1B14269   9.163  29.540  11.660  0.1993 -0.2917  0.3014
 1216DOPC   D2B14270   9.234  29.636  12.113 -0.2304  0.2367  0.0703
 1216DOPC   C3B14271   9.144  30.006  12.339  0.3088 -0.0883 -0.1921
 1216DOPC   C4B14272   8.938  30.379  12.545  0.1775 -0.0938  0.5481
 1217DOPC   NC314273   1.979  27.712  10.339 -0.0206 -0.0303  0.1844
 1217DOPC   PO414274   2.029  27.366  10.163 -0.0392 -0.0006 -0.0718
 1217DOPC   GL114275   1.928  27.195  10.426  0.0950  0.1975  0.3574
 1217DOPC   GL214276   1.678  27.325  10.585 -0.2283  0.1400  0.1168
 1217DOPC   C1A14277   1.857  26.931  10.850 -0.1090  0.0020  0.1099
 1217DOPC   D2A14278   1.673  26.581  11.067 -0.0706  0.2558  0.1423
 1217DOPC   C3A14279   1.803  26.122  11.165  0.2553  0.0451  0.0967
 1217DOPC   C4A14280   1.930  25.687  11.043 -0.2631 -0.1363  0.1555
 1217DOPC   C1B14281   1.426  27.185  10.926 -0.0001  0.0837 -0.2300
 1217DOPC   D2B14282   1.505  26.974  11.306 -0.0517 -0.1221 -0.3614
 1217DOPC   C3B14283   1.218  27.081  11.694  0.0976  0.0266 -0.2799
 1217DOPC   C4B14284   0.993  27.433  11.919  0.0044 -0.3012 -0.4822
 1218DOPS   CNO14285   7.140  31.773  10.228 -0.0461 -0.1043 -0.0744
 1218DOPS   PO414286   7.178  32.145  10.189 -0.1353 -0.2364  0.0269
 1218DOPS   GL114287   7.227  32.319  10.542  0.1308  0.1312 -0.0293
 1218DOPS   GL214288   7.497  32.140  10.594 -0.0406  0.2874 -0.2619
 1218DOPS   C1A14289   7.014  32.244  10.940  0.0392 -0.0812 -0.2002
 1218DOPS   D2A14290   6.769  32.359  11.291 -0.2049 -0.1764  0.1632
 1218DOPS   C3A14291   6.670  32.699  11.618  0.0780 -0.0760  0.0430
 1218DOPS   C4A14292   6.374  32.831  11.974  0.0446 -0.0675 -0.0165
 1218DOPS   C1B14293   7.384  31.913  10.996  0.0809  0.1988  0.0594
 1218DOPS   D2B14294   7.126  31.908  11.361  0.2470  0.0694  0.0231
 1218DOPS   C3B14295   6.923  31.929  11.747 -0.0619 -0.0470 -0.0526
 1218DOPS   C4B14296   6.796  31.919  12.230 -0.0420  0.0217 -0.2309
 1219POSM   NC314297  33.693  22.822  10.073  0.1139 -0.2613 -0.0922
 1219POSM   PO414298  33.644  23.209  10.120 -0.1512  0.2887 -0.0621
 1219POSM   AM114299  33.576  23.153  10.476  0.2170 -0.2886 -0.3254
 1219POSM   AM214300  33.498  22.925  10.631  0.1532 -0.1706 -0.3342
 1219POSM   T1A14301  33.489  23.284  10.956  0.0214  0.1563  0.0689
 1219POSM   C2A14302  33.344  23.493  11.363 -0.1681 -0.0487  0.0813
 1219POSM   C3A14303  33.400  23.514  11.804 -0.2952 -0.0035 -0.0333
 1219POSM   C1B14304  33.350  22.823  10.909  0.0351  0.0542  0.1576
 1219POSM   D2B14305  33.159  23.018  11.253  0.0495  0.0882  0.0829
 1219POSM   C3B14306  33.403  23.023  11.655 -0.1133  0.3398 -0.1837
 1219POSM   C4B14307  33.789  23.268  11.686  0.0422  0.0710  0.0207
 1220POSM   NC314308   6.829  33.035  10.254 -0.1198  0.1780 -0.0237
 1220POSM   PO414309   6.438  33.025  10.268  0.1338 -0.2129 -0.0194
 1220POSM   AM114310   6.495  33.018  10.588  0.1018 -0.0275  0.1837
 1220POSM   AM214311   6.344  33.146  10.800  0.2780 -0.2222  0.4063
 1220POSM   T1A14312   6.671  32.844  10.999  0.0997  0.1033 -0.2260
 1220POSM   C2A14313   6.901  33.039  11.350  0.4145  0.1028 -0.3173
 1220POSM   C3A14314   7.187  33.004  11.692  0.2140 -0.0434 -0.2040
 1220POSM   C1B14315   6.156  33.055  11.041 -0.0923  0.5537  0.2043
 1220POSM   D2B14316   6.106  33.077  11.493  0.1870 -0.0496 -0.0494
 1220POSM   C3B14317   6.155  33.316  11.907  0.0682 -0.1931  0.0229
 1220POSM   C4B14318   6.032  33.646  12.208  0.0620  0.2087 -0.0601
 1221DOPE   NH314319  31.778  29.474   9.033 -0.2042 -0.1381 -0.3126
 1221DOPE   PO414320  32.023  29.382   9.187 -0.0808 -0.2565  0.0434
 1221DOPE   GL114321  32.156  29.556   9.443  0.2236 -0.4621  0.3983
 1221DOPE   GL214322  31.918  29.653   9.664  0.2565  0.1422  0.3024
 1221DOPE   C1A14323  32.468  29.578   9.770 -0.0342 -0.0596 -0.3697
 1221DOPE   D2A14324  32.907  29.407   9.851 -0.2631 -0.2962 -0.0723
 1221DOPE   C3A14325  33.039  29.249  10.218  0.0247  0.1477  0.0044
 1221DOPE   C4A14326  33.288  29.134  10.594 -0.1026  0.0905 -0.0465
 1221DOPE   C1B14327  32.139  29.463  10.079 -0.0897 -0.0083  0.1325
 1221DOPE   D2B14328  31.890  29.231  10.349 -0.1287 -0.0349 -0.3931
 1221DOPE   C3B14329  31.785  29.454  10.680 -0.0121 -0.2829 -0.1178
 1221DOPE   C4B14330  31.638  29.558  11.140  0.0833  0.1054  0.0977
 1222DOPC   NC314331   1.196  23.405  10.015 -0.2852 -0.0115  0.1353
 1222DOPC   PO414332   1.428  23.665  10.241 -0.1589  0.4278  0.2320
 1222DOPC   GL114333   1.662  23.705  10.646  0.2229 -0.2921  0.1982
 1222DOPC   GL214334   1.445  23.876  10.723  0.1988  0.0274 -0.0252
 1222DOPC   C1A14335   1.686  23.488  11.157  0.0361  0.0286  0.1233
 1222DOPC   D2A14336   1.617  23.489  11.611  0.1194  0.1753  0.0445
 1222DOPC   C3A14337   1.450  23.893  11.840 -0.0874  0.0795  0.1757
 1222DOPC   C4A14338   1.158  24.258  11.938 -0.1868 -0.2419 -0.0459
 1222DOPC   C1B14339   1.243  23.811  11.117 -0.1544 -0.2953 -0.0791
 1222DOPC   D2B14340   1.012  24.018  11.536 -0.0064 -0.0662  0.1893
 1222DOPC   C3B14341   0.748  23.895  11.950  0.2564 -0.1047  0.0777
 1222DOPC   C4B14342   0.621  23.956  12.361 -0.1362  0.3908 -0.1571
 1223POSM   NC314343  11.945  26.661  10.161 -0.2242 -0.2004 -0.0774
 1223POSM   PO414344  12.148  27.005  10.079 -0.0835 -0.1311 -0.0316
 1223POSM   AM114345  12.255  26.911  10.384  0.2113 -0.0011 -0.0543
 1223POSM   AM214346  12.444  26.760  10.479 -0.3109 -0.0483 -0.0701
 1223POSM   T1A14347  11.977  26.823  10.784  0.1750  0.2852 -0.0242
 1223POSM   C2A14348  11.766  26.537  11.003  0.1061 -0.0287 -0.1391
 1223POSM   C3A14349  11.438  26.357  11.301  0.0497  0.2034 -0.1764
 1223POSM   C1B14350  12.508  26.736  10.831 -0.0744  0.0883  0.2229
 1223POSM   D2B14351  12.616  26.838  11.270  0.1677 -0.1062 -0.3415
 1223POSM   C3B14352  12.506  26.545  11.654  0.0063  0.2455  0.1947
 1223POSM   C4B14353  12.170  26.439  11.926 -0.2005 -0.1305 -0.0268
 1224POSM   NC314354   5.855  30.719   9.887  0.0970 -0.1156 -0.0251
 1224POSM   PO414355   5.462  30.886   9.949 -0.0051 -0.0914 -0.2097
 1224POSM   AM114356   5.575  31.026  10.216 -0.4726  0.2573  0.2074
 1224POSM   AM214357   5.552  31.228  10.433  0.0382 -0.1679 -0.1943
 1224POSM   T1A14358   5.763  30.847  10.606  0.0876  0.0702 -0.1346
 1224POSM   C2A14359   5.675  30.528  10.996 -0.0112  0.0825  0.0342
 1224POSM   C3A14360   5.832  30.296  11.414 -0.3653 -0.3474 -0.0247
 1224POSM   C1B14361   5.572  31.320  10.745  0.1777 -0.3415 -0.0461
 1224POSM   D2B14362   5.690  31.413  11.135 -0.2028 -0.0188 -0.0765
 1224POSM   C3B14363   5.937  31.773  11.137 -0.0359  0.1575  0.0063
 1224POSM   C4B14364   5.788  32.181  11.370  0.1674  0.2009 -0.1714
 1225DOPC   NC314365  16.947   8.699  14.138  0.1814 -0.1585 -0.1937
 1225DOPC   PO414366  17.279   8.937  14.109  0.1292  0.2797 -0.1386
 1225DOPC   GL114367  17.251   8.764  13.798 -0.2771  0.1877  0.1010
 1225DOPC   GL214368  17.499   8.899  13.678  0.1938 -0.1634  0.1667
 1225DOPC   C1A14369  16.950   8.756  13.418 -0.4096  0.0617 -0.1559
 1225DOPC   D2A14370  16.787   9.041  13.126 -0.1165 -0.0385 -0.1366
 1225DOPC   C3A14371  16.375   8.946  12.901 -0.3809  0.0124 -0.2805
 1225DOPC   C4A14372  16.042   8.815  12.536  0.1202 -0.3690  0.0129
 1225DOPC   C1B14373  17.208   9.217  13.524 -0.1371  0.3435 -0.0292
 1225DOPC   D2B14374  17.061   9.516  13.186  0.0480 -0.1942  0.0368
 1225DOPC   C3B14375  16.894   9.369  12.735 -0.2248 -0.2436 -0.1097
 1225DOPC   C4B14376  16.973   9.304  12.273  0.1550 -0.0280  0.3119
 1226DOPC   NC314377  18.434   3.568  13.723  0.0530 -0.1029 -0.2840
 1226DOPC   PO414378  18.517   3.892  13.886  0.0903  0.0925 -0.1504
 1226DOPC   GL114379  18.588   3.865  13.450  0.2375  0.1418  0.1182
 1226DOPC   GL214380  18.361   3.993  13.339 -0.0258  0.0886  0.0907
 1226DOPC   C1A14381  18.709   3.897  12.981  0.0129 -0.2509  0.0659
 1226DOPC   D2A14382  18.972   3.887  12.596 -0.2428 -0.0467  0.0768
 1226DOPC   C3A14383  18.984   3.919  12.119 -0.1851 -0.0077 -0.2113
 1226DOPC   C4A14384  19.274   4.154  11.860 -0.0423  0.1628 -0.1615
 1226DOPC   C1B14385  18.232   3.921  12.876  0.0690  0.0310  0.0440
 1226DOPC   D2B14386  18.179   4.066  12.453 -0.1113 -0.1915  0.1586
 1226DOPC   C3B14387  17.964   3.792  12.101 -0.1592 -0.0305 -0.0051
 1226DOPC   C4B14388  17.610   3.901  11.853  0.2532  0.0435 -0.1074
 1227DOPE   NH314389  22.204  11.318  13.386  0.2579  0.0259 -0.0214
 1227DOPE   PO414390  22.369  11.495  13.190 -0.1735 -0.0090 -0.1710
 1227DOPE   GL114391  22.288  11.230  12.884  0.1369  0.2197 -0.0111
 1227DOPE   GL214392  22.139  11.352  12.629 -0.3736  0.2760  0.0507
 1227DOPE   C1A14393  22.562  10.947  12.642  0.0591 -0.1216  0.0485
 1227DOPE   D2A14394  22.873  10.726  12.367 -0.0555  0.0603  0.1422
 1227DOPE   C3A14395  22.955  10.454  12.077 -0.1082  0.2971 -0.1341
 1227DOPE   C4A14396  22.704  10.154  11.740 -0.4709 -0.1564  0.1538
 1227DOPE   C1B14397  22.528  11.550  12.492  0.0476 -0.0241 -0.2601
 1227DOPE   D2B14398  22.701  11.855  12.194 -0.0457  0.1643  0.1155
 1227DOPE   C3B14399  22.892  11.863  11.775 -0.1288  0.0942  0.0398
 1227DOPE   C4B14400  22.703  11.816  11.391 -0.1068  0.0888 -0.3808
 1228DOPE   NH314401  15.071  11.452  14.000 -0.1858 -0.0016  0.1044
 1228DOPE   PO414402  14.962  11.167  14.175 -0.3832  0.2504  0.0208
 1228DOPE   GL114403  14.888  10.792  14.110  0.2643 -0.0308 -0.1433
 1228DOPE   GL214404  14.948  10.704  13.828 -0.0838 -0.0099 -0.2823
 1228DOPE   C1A14405  14.471  10.664  13.967  0.1649  0.1322  0.0887
 1228DOPE   D2A14406  14.036  10.496  14.067 -0.1813  0.0178 -0.0565
 1228DOPE   C3A14407  13.876  10.761  13.755 -0.1936 -0.1064 -0.1668
 1228DOPE   C4A14408  13.680  10.954  13.446  0.2539  0.1451  0.1801
 1228DOPE   C1B14409  15.304  10.458  13.617 -0.2250  0.1240  0.2725
 1228DOPE   D2B14410  15.674  10.158  13.447  0.0178 -0.1511 -0.0588
 1228DOPE   C3B14411  15.717   9.890  13.070  0.0805 -0.3561  0.0268
 1228DOPE   C4B14412  15.700   9.623  12.633  0.0177  0.2283 -0.1022
 1229DOPC   NC314413  22.633  13.450  13.546  0.2952 -0.0622  0.4042
 1229DOPC   PO414414  22.411  13.200  13.334  0.2471 -0.2293  0.0646
 1229DOPC   GL114415  22.412  13.149  13.000  0.0879 -0.5211 -0.2136
 1229DOPC   GL214416  22.430  12.850  12.908  0.0653 -0.0183 -0.0512
 1229DOPC   C1A14417  22.197  13.299  12.647 -0.0034  0.0185  0.0458
 1229DOPC   D2A14418  22.220  13.544  12.296  0.2990 -0.0947 -0.0172
 1229DOPC   C3A14419  22.627  13.710  12.138 -0.0910 -0.0451 -0.1285
 1229DOPC   C4A14420  23.094  13.883  12.261  0.0585  0.0203 -0.1798
 1229DOPC   C1B14421  22.203  12.788  12.530  0.0940  0.0796  0.2655
 1229DOPC   D2B14422  21.967  12.803  12.117 -0.2086  0.2623  0.0535
 1229DOPC   C3B14423  22.236  12.667  11.792  0.2658  0.0381 -0.1368
 1229DOPC   C4B14424  22.561  12.647  11.434  0.1333  0.1397 -0.2637
 1230DOPC   NC314425  22.510  11.270  13.794 -0.0969 -0.0441  0.1362
 1230DOPC   PO414426  22.781  11.467  13.563  0.3371  0.0607  0.0939
 1230DOPC   GL114427  22.836  11.506  13.149  0.2140  0.0010 -0.0710
 1230DOPC   GL214428  22.757  11.297  12.924  0.1220  0.1108 -0.0940
 1230DOPC   C1A14429  22.883  11.801  12.828 -0.0145  0.1953  0.2222
 1230DOPC   D2A14430  23.085  12.124  12.581  0.1048  0.2085  0.1618
 1230DOPC   C3A14431  22.925  12.250  12.170 -0.1013 -0.1218 -0.1325
 1230DOPC   C4A14432  22.676  12.289  11.766 -0.2768  0.0711 -0.3716
 1230DOPC   C1B14433  23.009  11.309  12.526 -0.0679 -0.1216 -0.0567
 1230DOPC   D2B14434  23.321  11.103  12.292 -0.0767  0.0085 -0.2944
 1230DOPC   C3B14435  23.648  11.383  12.181  0.1493 -0.2419  0.0421
 1230DOPC   C4B14436  24.085  11.484  12.119  0.5029 -0.1737  0.1320
 1231POSM   NC314437  16.311   2.657  14.242 -0.0310  0.1740 -0.1970
 1231POSM   PO414438  16.668   2.724  14.447  0.3669  0.0135 -0.1018
 1231POSM   AM114439  16.750   2.565  14.163 -0.0986 -0.0116 -0.0957
 1231POSM   AM214440  16.816   2.709  13.915 -0.0954  0.0994 -0.2912
 1231POSM   T1A14441  16.700   2.193  13.805  0.0612  0.0010  0.2613
 1231POSM   C2A14442  16.400   2.062  13.547 -0.0185 -0.1315  0.1249
 1231POSM   C3A14443  16.047   2.003  13.218 -0.0585  0.1122  0.0333
 1231POSM   C1B14444  16.724   2.704  13.588  0.2155  0.2001 -0.1820
 1231POSM   D2B14445  16.774   2.873  13.144 -0.2259  0.1065  0.1047
 1231POSM   C3B14446  16.920   2.892  12.763 -0.0372  0.1737  0.0986
 1231POSM   C4B14447  17.006   3.117  12.357  0.1183  0.2275  0.1257
 1232DOPS   CNO14448  21.375   9.294  13.635 -0.0207  0.0789 -0.3943
 1232DOPS   PO414449  21.183   9.040  13.503  0.0641 -0.0241 -0.3115
 1232DOPS   GL114450  21.007   8.994  13.226 -0.3360 -0.2176  0.2161
 1232DOPS   GL214451  21.208   9.144  12.995 -0.0559  0.2955  0.0356
 1232DOPS   C1A14452  20.795   9.030  12.781  0.1401  0.1757  0.1007
 1232DOPS   D2A14453  20.753   9.008  12.298  0.3117 -0.2548  0.0226
 1232DOPS   C3A14454  21.191   9.019  11.981  0.3877  0.0889 -0.0330
 1232DOPS   C4A14455  21.356   8.907  11.549 -0.2631  0.2375 -0.0173
 1232DOPS   C1B14456  21.030   9.457  12.760  0.1759  0.2123  0.1683
 1232DOPS   D2B14457  20.999   9.434  12.317  0.1297 -0.1729  0.1261
 1232DOPS   C3B14458  20.941   9.670  11.938  0.0925  0.0268 -0.2437
 1232DOPS   C4B14459  21.149  10.017  11.679  0.0443 -0.1851 -0.2537
 1233DOPC   NC314460  16.395   1.079  14.826  0.1759  0.0813  0.1143
 1233DOPC   PO414461  16.693   1.174  14.535 -0.0736  0.1449  0.1366
 1233DOPC   GL114462  16.541   1.353  14.202  0.0082 -0.0951  0.1969
 1233DOPC   GL214463  16.784   1.311  14.036  0.0998 -0.0496 -0.1494
 1233DOPC   C1A14464  16.122   1.328  13.942  0.0335 -0.0569  0.1957
 1233DOPC   D2A14465  15.876   1.204  13.570 -0.1895 -0.0062  0.1960
 1233DOPC   C3A14466  15.925   1.378  13.149  0.1100 -0.0186  0.3170
 1233DOPC   C4A14467  15.929   1.258  12.670  0.2563 -0.0612 -0.2367
 1233DOPC   C1B14468  16.802   1.339  13.565  0.3087 -0.1679  0.3044
 1233DOPC   D2B14469  16.696   1.511  13.122 -0.0748 -0.0376  0.1078
 1233DOPC   C3B14470  16.577   1.925  13.035 -0.2358 -0.3422  0.2679
 1233DOPC   C4B14471  16.506   2.344  12.829  0.0516  0.0480 -0.0257
 1234DOPE   NH314472  15.381   6.109  15.316  0.0288 -0.0857 -0.0721
 1234DOPE   PO414473  15.305   5.932  15.036 -0.1869 -0.4990 -0.3172
 1234DOPE   GL114474  15.405   6.051  14.614  0.2080 -0.2546 -0.3039
 1234DOPE   GL214475  15.072   6.044  14.522  0.1344  0.0748  0.2535
 1234DOPE   C1A14476  15.477   6.114  14.163 -0.1243  0.0167  0.1330
 1234DOPE   D2A14477  15.454   6.460  13.910 -0.2867 -0.0561 -0.1916
 1234DOPE   C3A14478  15.313   6.394  13.461  0.0113 -0.1652 -0.0074
 1234DOPE   C4A14479  15.486   6.235  13.051  0.0988 -0.1516 -0.5364
 1234DOPE   C1B14480  15.007   6.191  14.121 -0.0223  0.0940 -0.2163
 1234DOPE   D2B14481  14.668   6.095  13.857 -0.2845  0.0333  0.2676
 1234DOPE   C3B14482  14.643   6.381  13.495 -0.4113 -0.0066  0.1019
 1234DOPE   C4B14483  14.626   6.803  13.318 -0.2170 -0.0883 -0.0303
 1235POSM   NC314484  21.359  10.933  13.502  0.0729  0.0753  0.1337
 1235POSM   PO414485  21.664  10.788  13.410  0.1063  0.2571 -0.0830
 1235POSM   AM114486  21.615  10.618  13.160  0.1140  0.1913 -0.1084
 1235POSM   AM214487  21.790  10.459  13.015 -0.2207  0.1356 -0.0289
 1235POSM   T1A14488  21.626  10.746  12.685  0.2821  0.3933  0.0359
 1235POSM   C2A14489  21.680  11.157  12.449 -0.1531 -0.4554  0.1235
 1235POSM   C3A14490  21.736  11.352  12.088 -0.2126  0.1766 -0.3732
 1235POSM   C1B14491  22.100  10.279  12.905 -0.2149 -0.0464 -0.1371
 1235POSM   D2B14492  22.325   9.869  12.827  0.1747 -0.0370  0.1399
 1235POSM   C3B14493  22.728   9.769  12.657 -0.1602  0.0554 -0.3360
 1235POSM   C4B14494  23.063   9.860  12.371 -0.0056 -0.0138 -0.0118
 1236DOPS   CNO14495  18.343  11.591  13.521 -0.1189 -0.1131  0.2030
 1236DOPS   PO414496  18.590  11.883  13.598 -0.0211 -0.0541 -0.0733
 1236DOPS   GL114497  18.680  11.864  13.211  0.1487 -0.4235  0.1646
 1236DOPS   GL214498  18.462  11.776  13.084  0.1047  0.2977  0.3228
 1236DOPS   C1A14499  18.759  11.965  12.764  0.1459  0.0544  0.1972
 1236DOPS   D2A14500  18.822  12.245  12.417 -0.0691  0.0097  0.1735
 1236DOPS   C3A14501  19.275  12.349  12.230  0.2056  0.1139 -0.3421
 1236DOPS   C4A14502  19.576  12.633  12.469 -0.0676 -0.1375 -0.1993
 1236DOPS   C1B14503  18.459  11.594  12.633  0.3139 -0.1487 -0.1427
 1236DOPS   D2B14504  18.276  11.296  12.356  0.0416  0.1452 -0.3501
 1236DOPS   C3B14505  18.411  11.021  11.962 -0.1504  0.0474  0.0215
 1236DOPS   C4B14506  18.256  10.713  11.632 -0.1113  0.0321  0.1302
 1237DOPC   NC314507  24.549   1.923  12.861  0.1030  0.3045  0.0120
 1237DOPC   PO414508  24.249   1.654  12.818  0.0841 -0.3443 -0.0428
 1237DOPC   GL114509  24.385   1.662  12.408 -0.1747  0.0369 -0.3186
 1237DOPC   GL214510  24.150   1.444  12.292 -0.2677 -0.1505  0.0205
 1237DOPC   C1A14511  24.334   1.874  12.005  0.0610 -0.1139  0.4028
 1237DOPC   D2A14512  24.283   1.977  11.547 -0.1840 -0.4217 -0.1908
 1237DOPC   C3A14513  24.656   2.168  11.305 -0.1712 -0.3599 -0.0315
 1237DOPC   C4A14514  24.958   2.180  11.001 -0.2013  0.2473  0.2784
 1237DOPC   C1B14515  24.004   1.480  11.795  0.0892 -0.0698 -0.0198
 1237DOPC   D2B14516  24.114   1.450  11.377  0.2619  0.2397 -0.1586
 1237DOPC   C3B14517  23.687   1.533  11.337  0.0455 -0.0247 -0.2174
 1237DOPC   C4B14518  23.451   1.809  11.010  0.0405  0.0160  0.1112
 1238DOPE   NH314519  17.389   4.358  14.612  0.0226  0.1392 -0.0858
 1238DOPE   PO414520  17.143   4.220  14.658 -0.0845  0.0033 -0.0525
 1238DOPE   GL114521  16.961   4.239  14.242 -0.0192 -0.0210  0.3110
 1238DOPE   GL214522  17.103   4.442  14.118 -0.1168  0.2119  0.3960
 1238DOPE   C1A14523  17.000   4.108  13.751 -0.3047 -0.2215 -0.2386
 1238DOPE   D2A14524  16.988   3.964  13.277 -0.2847  0.1772 -0.2583
 1238DOPE   C3A14525  16.897   4.238  12.948  0.1826  0.0899  0.1562
 1238DOPE   C4A14526  16.681   4.268  12.542  0.2970  0.2754 -0.0764
 1238DOPE   C1B14527  17.419   4.607  13.779 -0.1172 -0.0129 -0.0681
 1238DOPE   D2B14528  17.729   4.880  13.484 -0.0283  0.1457  0.0546
 1238DOPE   C3B14529  17.678   4.690  13.111  0.0572 -0.1443  0.1052
 1238DOPE   C4B14530  17.380   4.638  12.814  0.2388 -0.3602  0.1191
 1239DOPE   NH314531  16.708   5.087  15.416 -0.1326  0.0027  0.3646
 1239DOPE   PO414532  16.548   5.322  15.246  0.0042 -0.3562 -0.1385
 1239DOPE   GL114533  16.319   5.419  14.798  0.1184  0.1590  0.2189
 1239DOPE   GL214534  15.998   5.458  14.809  0.0237  0.1314 -0.0121
 1239DOPE   C1A14535  16.277   5.729  14.419  0.3487  0.0036 -0.1467
 1239DOPE   D2A14536  16.346   5.803  13.962 -0.1125  0.0055 -0.1083
 1239DOPE   C3A14537  16.719   6.025  13.678 -0.0677  0.0132 -0.0987
 1239DOPE   C4A14538  16.869   6.380  13.515 -0.1175  0.0017  0.1210
 1239DOPE   C1B14539  15.758   5.218  14.489 -0.1676 -0.0882 -0.0125
 1239DOPE   D2B14540  15.648   5.375  14.049 -0.0762 -0.0202  0.0484
 1239DOPE   C3B14541  15.783   5.461  13.580  0.0594 -0.2900  0.4304
 1239DOPE   C4B14542  16.033   5.301  13.163  0.0967 -0.1451 -0.2702
 1240DOPC   NC314543  22.115  10.458  13.391 -0.0631 -0.3514  0.0942
 1240DOPC   PO414544  22.223  10.837  13.410 -0.1968 -0.3388  0.2494
 1240DOPC   GL114545  22.335  10.864  13.023 -0.3187  0.0511  0.0091
 1240DOPC   GL214546  22.519  10.662  12.998  0.0928 -0.2241 -0.2836
 1240DOPC   C1A14547  22.150  10.723  12.623 -0.0104  0.1763 -0.2272
 1240DOPC   D2A14548  22.258  11.028  12.275 -0.0856 -0.1267  0.0767
 1240DOPC   C3A14549  22.039  10.895  11.891  0.0919  0.3213  0.2971
 1240DOPC   C4A14550  22.004  11.012  11.379 -0.2595 -0.1891  0.2348
 1240DOPC   C1B14551  22.904  10.800  12.925  0.1758 -0.0926 -0.3283
 1240DOPC   D2B14552  23.336  10.867  13.024 -0.2326  0.5112 -0.0914
 1240DOPC   C3B14553  23.597  10.670  12.730  0.1446 -0.0783 -0.1467
 1240DOPC   C4B14554  23.409  10.602  12.253  0.0164 -0.0833 -0.0285
 1241POSM   NC314555  18.716   6.232  14.145  0.1562 -0.2874  0.3329
 1241POSM   PO414556  18.927   6.362  13.814 -0.0734 -0.0999 -0.0062
 1241POSM   AM114557  18.823   6.198  13.557  0.0734  0.4518  0.2627
 1241POSM   AM214558  18.812   6.166  13.247 -0.3242 -0.0440  0.1929
 1241POSM   T1A14559  18.693   5.681  13.442  0.0122 -0.1565 -0.0520
 1241POSM   C2A14560  18.704   5.407  13.113 -0.1724 -0.4419  0.1457
 1241POSM   C3A14561  18.840   5.485  12.704 -0.0560 -0.1207 -0.0955
 1241POSM   C1B14562  18.887   6.231  12.962  0.2418  0.0805 -0.1331
 1241POSM   D2B14563  19.109   6.314  12.535 -0.0298  0.1295  0.2611
 1241POSM   C3B14564  19.240   6.756  12.343  0.1457 -0.0412 -0.2754
 1241POSM   C4B14565  18.957   7.080  12.121  0.1585 -0.1946  0.0452
 1242DOPE   NH314566  11.043   6.893  14.899 -0.1785 -0.0956  0.0226
 1242DOPE   PO414567  10.884   6.644  14.715 -0.1437  0.4169  0.4426
 1242DOPE   GL114568  11.241   6.660  14.491  0.0643  0.2354 -0.1581
 1242DOPE   GL214569  11.534   6.721  14.577  0.1864 -0.1897  0.1213
 1242DOPE   C1A14570  11.205   6.880  14.094 -0.2001 -0.3333  0.0746
 1242DOPE   D2A14571  11.170   6.996  13.691 -0.0478  0.1501  0.0627
 1242DOPE   C3A14572  11.155   6.578  13.367  0.2614 -0.2829 -0.1499
 1242DOPE   C4A14573  10.851   6.384  13.014 -0.2298  0.1068  0.0621
 1242DOPE   C1B14574  11.711   6.672  14.138  0.0696  0.0648 -0.3188
 1242DOPE   D2B14575  12.011   6.506  13.837 -0.1002 -0.1280  0.1757
 1242DOPE   C3B14576  12.122   6.149  13.573 -0.4175 -0.0724  0.0531
 1242DOPE   C4B14577  12.376   5.894  13.212  0.1460 -0.2474  0.1105
 1243DOPS   CNO14578  14.187  31.660  14.114  0.1262 -0.3024  0.0746
 1243DOPS   PO414579  13.850  31.791  14.023 -0.1420 -0.1718 -0.1009
 1243DOPS   GL114580  14.023  31.836  13.615  0.0691 -0.0856  0.0352
 1243DOPS   GL214581  14.248  32.024  13.671 -0.0190  0.0563  0.0347
 1243DOPS   C1A14582  13.851  32.169  13.272 -0.0579 -0.1508  0.2717
 1243DOPS   D2A14583  13.591  32.309  12.918 -0.0152 -0.0177 -0.0440
 1243DOPS   C3A14584  13.601  31.980  12.637  0.3031  0.5350 -0.0085
 1243DOPS   C4A14585  13.423  32.001  12.245 -0.2632 -0.1320 -0.0863
 1243DOPS   C1B14586  14.425  32.053  13.214 -0.1095 -0.1403  0.0562
 1243DOPS   D2B14587  14.227  31.987  12.811  0.2226  0.0046 -0.0261
 1243DOPS   C3B14588  14.351  31.646  12.449  0.0895  0.0766 -0.1171
 1243DOPS   C4B14589  14.341  31.176  12.238  0.0781  0.0758 -0.1705
 1244POSM   NC314590  21.134   8.552  13.455 -0.1145 -0.1719  0.0734
 1244POSM   PO414591  20.723   8.564  13.402  0.0294  0.3015  0.1821
 1244POSM   AM114592  20.745   8.646  13.094  0.1294  0.0490  0.2733
 1244POSM   AM214593  20.998   8.621  12.915 -0.0847  0.4685  0.0687
 1244POSM   T1A14594  20.555   8.545  12.674 -0.0527 -0.0277  0.0306
 1244POSM   C2A14595  20.573   8.345  12.259  0.0738 -0.0414  0.2936
 1244POSM   C3A14596  20.877   8.104  11.924  0.0346  0.2086 -0.0274
 1244POSM   C1B14597  21.327   8.594  12.945 -0.1530  0.1029 -0.0452
 1244POSM   D2B14598  21.754   8.510  12.800  0.1643  0.0544 -0.3229
 1244POSM   C3B14599  21.633   8.635  12.404 -0.0427 -0.2156 -0.4309
 1244POSM   C4B14600  21.557   8.679  11.971 -0.0863 -0.2897  0.1406
 1245POSM   NC314601  18.545   8.337  14.180 -0.2733  0.4183 -0.0538
 1245POSM   PO414602  18.549   8.406  13.798  0.1211  0.0659 -0.0506
 1245POSM   AM114603  18.316   8.354  13.544 -0.3001  0.0974  0.2837
 1245POSM   AM214604  18.114   8.174  13.512 -0.1604 -0.0135 -0.3314
 1245POSM   T1A14605  18.107   8.532  13.127  0.0578 -0.0083 -0.0024
 1245POSM   C2A14606  17.744   8.315  12.912  0.0273  0.2371 -0.0517
 1245POSM   C3A14607  17.414   8.144  12.628  0.1059 -0.0380 -0.0935
 1245POSM   C1B14608  17.828   8.049  13.410  0.0555 -0.4764 -0.0608
 1245POSM   D2B14609  17.445   8.005  13.146 -0.2677  0.1018  0.1897
 1245POSM   C3B14610  17.087   7.823  13.284 -0.2778  0.0191 -0.0763
 1245POSM   C4B14611  17.052   7.397  13.443  0.0713 -0.0238 -0.1025
 1246DOPC   NC314612  13.360  33.099  14.386  0.0883 -0.2695  0.2111
 1246DOPC   PO414613  13.285  33.467  14.503 -0.5428  0.0160  0.0812
 1246DOPC   GL114614  13.235  33.487  14.105 -0.1037  0.4295 -0.2180
 1246DOPC   GL214615  13.250  33.814  14.099  0.3186 -0.1069 -0.2811
 1246DOPC   C1A14616  13.030  33.166  13.845  0.1289  0.0260 -0.0019
 1246DOPC   D2A14617  13.117  32.880  13.453  0.0225 -0.1065 -0.0270
 1246DOPC   C3A14618  13.071  32.493  13.259 -0.0661 -0.1285  0.1137
 1246DOPC   C4A14619  12.707  32.175  13.296  0.1990 -0.0459  0.1610
 1246DOPC   C1B14620  13.019  33.745  13.699 -0.3627  0.0090 -0.1395
 1246DOPC   D2B14621  12.998  33.465  13.310  0.2744  0.0618 -0.1552
 1246DOPC   C3B14622  13.043  33.803  13.024  0.0943  0.1609 -0.1163
 1246DOPC   C4B14623  13.015  33.808  12.555  0.0560 -0.3350  0.2459
 1247DOPS   CNO14624  18.339   7.024  14.514 -0.0051 -0.0808 -0.1301
 1247DOPS   PO414625  18.298   6.970  14.129 -0.0292  0.0285  0.0639
 1247DOPS   GL114626  18.094   7.116  13.774 -0.5709 -0.4935 -0.2237
 1247DOPS   GL214627  18.185   6.862  13.634  0.1179  0.4439 -0.2732
 1247DOPS   C1A14628  17.996   7.291  13.353 -0.0202  0.1068  0.1693
 1247DOPS   D2A14629  17.966   7.690  13.161 -0.0766  0.1817  0.0156
 1247DOPS   C3A14630  17.745   7.771  12.747  0.2906 -0.1887 -0.1697
 1247DOPS   C4A14631  17.674   7.515  12.423 -0.0618 -0.1942 -0.1668
 1247DOPS   C1B14632  18.164   6.819  13.202 -0.2759 -0.0961 -0.0266
 1247DOPS   D2B14633  18.297   6.913  12.787 -0.0593 -0.1218 -0.2059
 1247DOPS   C3B14634  17.996   7.179  12.462 -0.1807 -0.0185 -0.3351
 1247DOPS   C4B14635  18.117   7.342  12.024 -0.3697 -0.2270 -0.2975
 1248DOPE   NH314636  23.517  11.637  13.304  0.0247  0.3618  0.0623
 1248DOPE   PO414637  23.641  11.869  13.389 -0.0839  0.2599  0.0182
 1248DOPE   GL114638  23.577  11.955  12.959  0.0657  0.1210 -0.0276
 1248DOPE   GL214639  23.363  11.887  12.898  0.2603  0.1657  0.2373
 1248DOPE   C1A14640  23.613  12.194  12.560 -0.1140  0.4480 -0.1323
 1248DOPE   D2A14641  23.657  12.588  12.320 -0.0182 -0.2827  0.0481
 1248DOPE   C3A14642  23.242  12.663  12.138  0.2951  0.1757  0.1759
 1248DOPE   C4A14643  22.856  12.828  11.895 -0.4745  0.1520 -0.0036
 1248DOPE   C1B14644  23.378  11.687  12.478 -0.3576  0.2243 -0.0054
 1248DOPE   D2B14645  23.157  11.539  12.066  0.0151  0.1031 -0.0832
 1248DOPE   C3B14646  22.762  11.383  12.016  0.0284  0.1682 -0.1576
 1248DOPE   C4B14647  22.584  10.925  11.926 -0.0037  0.1356  0.2436
 1249POSM   NC314648  19.837   6.442  13.941 -0.1893 -0.2459  0.2242
 1249POSM   PO414649  19.770   6.405  13.540  0.2375 -0.2238 -0.0386
 1249POSM   AM114650  19.712   6.399  13.209 -0.0304  0.1678 -0.0688
 1249POSM   AM214651  19.658   6.558  12.993  0.1134  0.5304  0.0587
 1249POSM   T1A14652  19.421   6.108  12.959 -0.2810  0.2166 -0.0173
 1249POSM   C2A14653  19.124   5.860  12.815 -0.2460 -0.0300  0.0957
 1249POSM   C3A14654  18.825   5.914  12.438 -0.2213 -0.0793  0.1552
 1249POSM   C1B14655  19.517   6.563  12.700 -0.0649 -0.2803 -0.0463
 1249POSM   D2B14656  19.640   6.385  12.264 -0.5220  0.1634 -0.0143
 1249POSM   C3B14657  19.602   6.716  11.940  0.0646 -0.3720  0.0878
 1249POSM   C4B14658  19.366   7.094  11.660  0.1788  0.0952 -0.1840
 1250POSM   NC314659  23.123   4.043  13.061 -0.0741  0.3179 -0.2227
 1250POSM   PO414660  22.814   3.952  13.239 -0.1583  0.1259 -0.3627
 1250POSM   AM114661  22.614   3.881  12.978  0.1086  0.1322 -0.3761
 1250POSM   AM214662  22.592   4.025  12.702  0.0999  0.1213 -0.0523
 1250POSM   T1A14663  22.211   3.698  12.749  0.1325  0.1896  0.0593
 1250POSM   C2A14664  21.985   3.405  12.431  0.3088  0.4483 -0.0894
 1250POSM   C3A14665  21.897   3.048  12.164 -0.1039 -0.0716 -0.1874
 1250POSM   C1B14666  22.732   3.747  12.548  0.2154 -0.0179 -0.2543
 1250POSM   D2B14667  22.920   3.553  12.130  0.0949 -0.0311 -0.1201
 1250POSM   C3B14668  22.693   3.735  11.750 -0.2027  0.0808 -0.1605
 1250POSM   C4B14669  22.245   3.744  11.675  0.1993 -0.1547  0.0322
 1251DOPC   NC314670  16.076   8.974  14.112 -0.3161 -0.0389 -0.1514
 1251DOPC   PO414671  15.901   9.196  14.385  0.0552 -0.0297  0.2612
 1251DOPC   GL114672  15.842   9.417  14.091  0.1285 -0.1773  0.3075
 1251DOPC   GL214673  15.778   9.690  14.039  0.0622  0.0975 -0.0727
 1251DOPC   C1A14674  15.802   9.223  13.665 -0.2092 -0.1259 -0.0866
 1251DOPC   D2A14675  15.750   8.917  13.343 -0.1929 -0.1353 -0.0178
 1251DOPC   C3A14676  15.337   8.986  13.156 -0.0180 -0.2474 -0.0476
 1251DOPC   C4A14677  15.062   8.893  12.864 -0.0901  0.3204 -0.2251
 1251DOPC   C1B14678  15.553   9.647  13.730 -0.1000  0.0897 -0.1184
 1251DOPC   D2B14679  15.575   9.444  13.303  0.1056  0.1533 -0.0201
 1251DOPC   C3B14680  15.275   9.474  12.901 -0.1075  0.2051 -0.0179
 1251DOPC   C4B14681  15.183   9.471  12.469 -0.3251  0.0943 -0.3034
 1252DOPC   NC314682  13.108   0.351  14.766  0.0900 -0.2165  0.1563
 1252DOPC   PO414683  13.030   0.707  14.665  0.2407 -0.0548 -0.1125
 1252DOPC   GL114684  12.970   0.601  14.233  0.0080  0.0865  0.2183
 1252DOPC   GL214685  13.064   0.343  14.269 -0.0416 -0.0101 -0.3250
 1252DOPC   C1A14686  13.256   0.529  13.845 -0.0467  0.0431 -0.0536
 1252DOPC   D2A14687  13.466   0.686  13.406  0.0554  0.1005  0.0176
 1252DOPC   C3A14688  13.176   0.685  12.993  0.2375  0.1201 -0.1727
 1252DOPC   C4A14689  13.122   0.812  12.539 -0.0449 -0.0787 -0.3075
 1252DOPC   C1B14690  12.823   0.286  13.859  0.3158  0.0521  0.0658
 1252DOPC   D2B14691  12.653   0.147  13.374  0.2331  0.1412 -0.0426
 1252DOPC   C3B14692  12.867   0.287  12.999 -0.3477  0.1441  0.0197
 1252DOPC   C4B14693  12.723   0.652  12.809  0.0045 -0.3168 -0.3713
 1253POSM   NC314694  18.702  33.944  14.193 -0.1113  0.1458 -0.1163
 1253POSM   PO414695  18.428  33.699  14.093 -0.4010  0.0526 -0.0306
 1253POSM   AM114696  18.482  33.762  13.767  0.1976 -0.0189 -0.1227
 1253POSM   AM214697  18.711  33.822  13.628  0.1682 -0.3501 -0.0056
 1253POSM   T1A14698  18.381  33.681  13.272  0.0661  0.1205  0.0492
 1253POSM   C2A14699  18.253  33.797  12.861  0.0902  0.3317  0.0353
 1253POSM   C3A14700  18.356  34.031  12.456 -0.0893  0.6268 -0.0190
 1253POSM   C1B14701  18.767  34.046  13.347 -0.0209  0.1792  0.1750
 1253POSM   D2B14702  18.774  34.141  12.874 -0.1667  0.0501  0.0253
 1253POSM   C3B14703  18.759  33.795  12.543  0.0543  0.0061 -0.3541
 1253POSM   C4B14704  18.432  33.532  12.344  0.2378  0.0074 -0.2856
 1254POSM   NC314705  25.175   6.018  13.295 -0.0360 -0.3878  0.0838
 1254POSM   PO414706  25.320   6.353  13.423 -0.4331 -0.0686 -0.0274
 1254POSM   AM114707  25.457   6.353  13.145  0.1351  0.0153 -0.4036
 1254POSM   AM214708  25.503   6.586  12.954  0.2936  0.0250 -0.0850
 1254POSM   T1A14709  25.861   6.155  12.872 -0.1995 -0.0787  0.1075
 1254POSM   C2A14710  26.103   5.772  12.706  0.1454  0.0373  0.3719
 1254POSM   C3A14711  26.545   5.646  12.569  0.1918  0.3833  0.0508
 1254POSM   C1B14712  25.413   6.628  12.629 -0.0503  0.0056 -0.1046
 1254POSM   D2B14713  25.258   6.777  12.241  0.1030 -0.1054  0.0793
 1254POSM   C3B14714  25.003   7.141  12.007  0.0673 -0.5714  0.0504
 1254POSM   C4B14715  25.028   7.468  11.586 -0.0539 -0.0592  0.1841
 1255DOPE   NH314716  23.770  16.335  13.450  0.0108 -0.1589  0.2122
 1255DOPE   PO414717  23.605  16.113  13.262 -0.1729 -0.1241  0.3729
 1255DOPE   GL114718  23.875  15.790  13.030 -0.3166 -0.1337 -0.1647
 1255DOPE   GL214719  23.611  15.590  13.084  0.1394  0.0915  0.0144
 1255DOPE   C1A14720  23.841  15.458  12.698  0.0384  0.1381 -0.0424
 1255DOPE   D2A14721  23.902  15.123  12.372 -0.3685 -0.3184  0.3608
 1255DOPE   C3A14722  24.305  14.940  12.143  0.0243  0.5562  0.1274
 1255DOPE   C4A14723  24.727  14.929  11.951 -0.0049 -0.1518 -0.2828
 1255DOPE   C1B14724  23.640  15.108  13.006 -0.0439 -0.0207  0.1863
 1255DOPE   D2B14725  23.465  14.735  12.856  0.1170  0.0181  0.2259
 1255DOPE   C3B14726  23.805  14.436  12.856  0.0707  0.0693 -0.4689
 1255DOPE   C4B14727  24.296  14.470  12.917  0.0667  0.0305 -0.1145
 1256DOPC   NC314728  19.632   9.994  13.850 -0.1985 -0.1317 -0.3128
 1256DOPC   PO414729  19.617   9.772  13.525  0.2854 -0.4661  0.0618
 1256DOPC   GL114730  19.419   9.645  13.119  0.3941 -0.2050 -0.1699
 1256DOPC   GL214731  19.552   9.878  13.015 -0.0121  0.1564  0.0072
 1256DOPC   C1A14732  19.105   9.831  12.856 -0.1913 -0.3021  0.1996
 1256DOPC   D2A14733  18.723  10.092  12.896 -0.0315 -0.0986  0.0067
 1256DOPC   C3A14734  18.499  10.366  12.620 -0.1668  0.1837 -0.1781
 1256DOPC   C4A14735  18.487  10.775  12.370 -0.1681  0.2114 -0.3307
 1256DOPC   C1B14736  19.839   9.845  12.666  0.1153 -0.2310  0.1737
 1256DOPC   D2B14737  20.245   9.928  12.646  0.0537 -0.0162  0.2440
 1256DOPC   C3B14738  20.508  10.277  12.422 -0.1555  0.1139 -0.1557
 1256DOPC   C4B14739  20.701  10.676  12.406  0.3234 -0.2587 -0.2687
 1257DOPE   NH314740  21.597   6.932  13.511 -0.2689  0.1182  0.2051
 1257DOPE   PO414741  21.398   7.172  13.588 -0.1306 -0.3857 -0.1680
 1257DOPE   GL114742  21.390   7.121  13.121  0.1784  0.3706  0.2025
 1257DOPE   GL214743  21.616   7.020  13.013  0.1043  0.1224  0.3058
 1257DOPE   C1A14744  21.154   6.841  12.800 -0.0272  0.3447  0.2721
 1257DOPE   D2A14745  20.899   6.652  12.529 -0.0687 -0.1034 -0.1376
 1257DOPE   C3A14746  20.472   6.592  12.523 -0.0207  0.2615  0.0021
 1257DOPE   C4A14747  20.027   6.512  12.699  0.0863 -0.0081 -0.2449
 1257DOPE   C1B14748  21.464   7.200  12.607  0.0106  0.0546 -0.1058
 1257DOPE   D2B14749  21.575   7.341  12.169  0.3200  0.0005 -0.2573
 1257DOPE   C3B14750  21.553   7.785  12.038  0.1176  0.0021 -0.4198
 1257DOPE   C4B14751  21.424   8.191  12.070  0.3860 -0.0959 -0.1622
 1258DOPE   NH314752  23.358  33.859  12.998 -0.1137 -0.1264 -0.1985
 1258DOPE   PO414753  23.684  33.761  13.045  0.3930  0.2770 -0.2897
 1258DOPE   GL114754  23.763  33.741  12.687  0.1482  0.1336  0.0870
 1258DOPE   GL214755  24.034  33.860  12.571  0.1498 -0.2333 -0.1278
 1258DOPE   C1A14756  23.763  33.742  12.224  0.1326 -0.3322  0.1520
 1258DOPE   D2A14757  23.655  33.779  11.747  0.0771 -0.0691  0.0700
 1258DOPE   C3A14758  23.882  33.966  11.386  0.4750  0.1667  0.2388
 1258DOPE   C4A14759  24.329  33.869  11.202  0.0974 -0.0490 -0.2905
 1258DOPE   C1B14760  24.190  33.930  12.153 -0.0500 -0.0526 -0.0245
 1258DOPE   D2B14761  24.373  33.997  11.770 -0.3299  0.1601  0.1596
 1258DOPE   C3B14762  24.752  34.036  11.480  0.0504  0.0452 -0.2694
 1258DOPE   C4B14763  24.837  33.851  11.100 -0.0142 -0.1852  0.1374
 1259DOPE   NH314764  20.610   5.302  13.498 -0.0137 -0.2715  0.2763
 1259DOPE   PO414765  20.425   5.048  13.496 -0.1288  0.1556  0.4647
 1259DOPE   GL114766  20.716   5.056  13.148 -0.2204 -0.4415 -0.2131
 1259DOPE   GL214767  20.384   5.202  13.014 -0.0584  0.1186 -0.1627
 1259DOPE   C1A14768  20.754   5.223  12.698  0.1965 -0.0471 -0.0665
 1259DOPE   D2A14769  20.857   5.100  12.261 -0.0306  0.1876  0.0715
 1259DOPE   C3A14770  20.792   5.397  11.935  0.0108 -0.0717  0.0361
 1259DOPE   C4A14771  20.895   5.470  11.457  0.0545  0.3422 -0.1223
 1259DOPE   C1B14772  20.040   5.392  12.695 -0.1383 -0.1527 -0.0923
 1259DOPE   D2B14773  19.836   5.420  12.261 -0.0851 -0.0087  0.3391
 1259DOPE   C3B14774  19.886   5.080  11.977 -0.0229 -0.1484  0.0770
 1259DOPE   C4B14775  20.085   4.802  11.645 -0.0121 -0.1248 -0.0389
 1260DOPS   CNO14776  14.664   3.019  14.936  0.0746 -0.1350  0.1701
 1260DOPS   PO414777  14.768   3.387  14.923  0.1228  0.0438  0.0226
 1260DOPS   GL114778  14.795   3.537  14.482  0.0727  0.1233 -0.0408
 1260DOPS   GL214779  14.572   3.652  14.553  0.0165 -0.0993  0.0120
 1260DOPS   C1A14780  14.832   3.489  14.017 -0.0188 -0.0586  0.0262
 1260DOPS   D2A14781  14.707   3.616  13.589  0.2998  0.4417  0.1133
 1260DOPS   C3A14782  14.542   3.913  13.308 -0.2159  0.0096  0.1785
 1260DOPS   C4A14783  14.812   4.011  12.933 -0.1612  0.3630 -0.1127
 1260DOPS   C1B14784  14.695   3.908  14.216 -0.0189  0.1852  0.1503
 1260DOPS   D2B14785  15.026   3.926  13.849  0.3293  0.2200 -0.2749
 1260DOPS   C3B14786  15.056   3.950  13.353 -0.0513  0.1463 -0.3048
 1260DOPS   C4B14787  15.263   4.002  12.883  0.3237 -0.2518  0.1078
 1261DOPE   NH314788  18.571   8.897  13.717 -0.3443  0.0654 -0.1230
 1261DOPE   PO414789  18.444   9.172  13.701 -0.1839  0.0579 -0.1268
 1261DOPE   GL114790  18.344   9.247  13.393  0.0533 -0.0685 -0.4366
 1261DOPE   GL214791  18.568   9.157  13.217  0.2866  0.1316  0.0318
 1261DOPE   C1A14792  18.129   9.113  12.992  0.0101 -0.0700 -0.0209
 1261DOPE   D2A14793  17.958   8.783  12.662  0.1614 -0.0508  0.2997
 1261DOPE   C3A14794  17.604   8.663  12.344 -0.2888  0.2214 -0.1383
 1261DOPE   C4A14795  17.205   8.534  12.326  0.1279 -0.1266 -0.0897
 1261DOPE   C1B14796  18.631   8.869  12.865  0.1640 -0.0408  0.1178
 1261DOPE   D2B14797  18.656   8.817  12.418 -0.1467  0.1780  0.2946
 1261DOPE   C3B14798  18.208   8.812  12.193 -0.1849  0.0117  0.1679
 1261DOPE   C4B14799  17.907   8.921  11.849 -0.3329 -0.2146 -0.0421
 1262DOPE   NH314800  18.201   8.061  13.963 -0.1971 -0.0869  0.2254
 1262DOPE   PO414801  18.025   8.326  14.020  0.1695  0.2076  0.4654
 1262DOPE   GL114802  17.721   8.262  13.838  0.2147 -0.1126 -0.0621
 1262DOPE   GL214803  17.498   8.442  13.990 -0.0331  0.0177 -0.1285
 1262DOPE   C1A14804  17.679   8.540  13.413  0.1405 -0.0429  0.3195
 1262DOPE   D2A14805  17.690   8.885  13.103 -0.0735  0.1908 -0.2252
 1262DOPE   C3A14806  17.360   8.720  12.804  0.2432  0.0344 -0.1268
 1262DOPE   C4A14807  16.940   8.888  12.664 -0.3198  0.1581  0.0195
 1262DOPE   C1B14808  17.268   8.247  13.611  0.1123 -0.1518  0.0153
 1262DOPE   D2B14809  17.110   8.357  13.189  0.1125 -0.1509  0.4001
 1262DOPE   C3B14810  16.976   8.336  12.768  0.0233 -0.0874  0.0497
 1262DOPE   C4B14811  16.961   8.112  12.381 -0.1460 -0.0787  0.0318
 1263POSM   NC314812  16.312  32.725  13.693 -0.3748  0.2635 -0.0989
 1263POSM   PO414813  16.011  32.941  13.832 -0.1299  0.0874 -0.1180
 1263POSM   AM114814  15.832  32.911  13.535 -0.4823 -0.2592 -0.0020
 1263POSM   AM214815  15.736  32.642  13.453 -0.0543  0.3742  0.2197
 1263POSM   T1A14816  15.701  32.887  13.038 -0.0267 -0.0019 -0.1303
 1263POSM   C2A14817  15.656  33.200  12.676 -0.0858 -0.0193  0.2071
 1263POSM   C3A14818  15.492  33.595  12.427  0.1402  0.0481 -0.0146
 1263POSM   C1B14819  15.668  32.441  13.174  0.2265  0.0087 -0.0676
 1263POSM   D2B14820  15.786  32.214  12.785 -0.0666 -0.3307  0.1231
 1263POSM   C3B14821  15.965  32.431  12.402 -0.1449  0.0833  0.0348
 1263POSM   C4B14822  16.033  32.410  11.957  0.1347 -0.1637 -0.2276
 1264POSM   NC314823  15.975   2.316  15.321  0.2437  0.0965 -0.0541
 1264POSM   PO414824  15.697   2.261  15.040 -0.1180 -0.0960 -0.1524
 1264POSM   AM114825  15.732   2.154  14.723 -0.1924 -0.1608  0.2012
 1264POSM   AM214826  15.652   2.038  14.499 -0.4655  0.2856 -0.1310
 1264POSM   T1A14827  16.099   2.142  14.445 -0.2495 -0.2368 -0.0576
 1264POSM   C2A14828  16.227   2.184  14.002 -0.2459 -0.2471 -0.0166
 1264POSM   C3A14829  16.259   2.562  13.756 -0.0603  0.1189  0.0029
 1264POSM   C1B14830  15.655   1.972  14.127  0.1572 -0.2068 -0.1773
 1264POSM   D2B14831  15.462   2.002  13.709  0.3569  0.1033 -0.0073
 1264POSM   C3B14832  15.523   2.087  13.301 -0.1158 -0.1972  0.4983
 1264POSM   C4B14833  15.589   2.238  12.869  0.2014 -0.3676 -0.2735
 1265DOPC   NC314834  16.101   4.183  14.683  0.1408  0.0168  0.1798
 1265DOPC   PO414835  16.314   4.511  14.811 -0.1658 -0.1328 -0.3468
 1265DOPC   GL114836  16.306   4.761  14.534 -0.3129  0.0456  0.0425
 1265DOPC   GL214837  15.981   4.698  14.405  0.2877  0.0029  0.2843
 1265DOPC   C1A14838  16.243   5.180  14.372  0.3655  0.1885 -0.0761
 1265DOPC   D2A14839  16.137   5.332  13.954 -0.0150 -0.1255 -0.1903
 1265DOPC   C3A14840  15.842   5.026  13.740 -0.0528  0.0631  0.1145
 1265DOPC   C4A14841  15.876   4.840  13.260 -0.2802  0.0038 -0.0087
 1265DOPC   C1B14842  16.142   4.769  13.995 -0.1228 -0.1250 -0.1893
 1265DOPC   D2B14843  16.412   4.967  13.653 -0.1758 -0.0132 -0.0237
 1265DOPC   C3B14844  16.369   5.442  13.531 -0.1036  0.2911  0.1791
 1265DOPC   C4B14845  16.194   5.822  13.454  0.2210 -0.0139 -0.4578
 1266DOPC   NC314846  18.309   5.742  14.044 -0.1510 -0.3990 -0.0822
 1266DOPC   PO414847  18.173   6.094  14.093 -0.0494 -0.1591  0.0954
 1266DOPC   GL114848  18.013   6.255  13.768 -0.0489  0.1083 -0.3510
 1266DOPC   GL214849  17.778   6.173  13.879 -0.1804  0.0174 -0.2952
 1266DOPC   C1A14850  18.138   6.361  13.384  0.1016  0.1163  0.2386
 1266DOPC   D2A14851  18.142   6.176  12.952 -0.0816  0.1954  0.1742
 1266DOPC   C3A14852  17.899   6.181  12.587 -0.0372 -0.2688  0.2428
 1266DOPC   C4A14853  17.576   5.818  12.456 -0.2467  0.2481  0.1033
 1266DOPC   C1B14854  17.540   6.122  13.492  0.0172  0.0748 -0.0636
 1266DOPC   D2B14855  17.203   5.960  13.312  0.0168  0.0391 -0.1343
 1266DOPC   C3B14856  17.006   6.105  12.876  0.0846  0.4651 -0.2156
 1266DOPC   C4B14857  16.613   6.026  12.653  0.2488 -0.0515 -0.1862
 1267POSM   NC314858  19.575   8.021  13.123  0.0186 -0.0305 -0.0381
 1267POSM   PO414859  19.251   7.988  13.208 -0.1295 -0.0434 -0.0639
 1267POSM   AM114860  19.213   7.811  12.910 -0.0106 -0.2663  0.1514
 1267POSM   AM214861  19.184   7.530  12.866 -0.2277 -0.2115  0.0538
 1267POSM   T1A14862  19.054   7.810  12.430 -0.1723  0.0911 -0.1647
 1267POSM   C2A14863  19.006   7.897  11.989  0.0176 -0.3849  0.3127
 1267POSM   C3A14864  18.793   8.205  11.736 -0.0064  0.2903  0.1410
 1267POSM   C1B14865  19.236   7.357  12.560  0.0570 -0.1407 -0.0054
 1267POSM   D2B14866  19.500   7.141  12.215 -0.2291  0.1412  0.1634
 1267POSM   C3B14867  19.828   6.856  12.343  0.2640  0.2506  0.2068
 1267POSM   C4B14868  20.108   6.641  12.120 -0.2537 -0.0770  0.1741
 1268DOPC   NC314869  20.779   1.115  12.960 -0.0767 -0.0326 -0.1296
 1268DOPC   PO414870  20.992   1.321  13.211 -0.0354 -0.0813 -0.2607
 1268DOPC   GL114871  21.004   1.588  12.921  0.6692 -0.0103  0.0284
 1268DOPC   GL214872  20.802   1.528  12.700  0.0981  0.1289 -0.2176
 1268DOPC   C1A14873  21.316   1.664  12.578 -0.1002 -0.2083 -0.3524
 1268DOPC   D2A14874  21.365   1.799  12.166 -0.0204  0.2128  0.0338
 1268DOPC   C3A14875  21.704   2.012  11.964 -0.0211  0.1249  0.1340
 1268DOPC   C4A14876  21.920   2.201  11.643 -0.0513 -0.3431  0.0283
 1268DOPC   C1B14877  21.009   1.402  12.259 -0.0121 -0.1612  0.0407
 1268DOPC   D2B14878  21.090   1.191  11.852 -0.3270  0.1417  0.0923
 1268DOPC   C3B14879  21.430   1.473  11.766  0.0443  0.1564  0.2960
 1268DOPC   C4B14880  21.858   1.296  11.837  0.0577  0.0290  0.1798
 1269POSM   NC314881  14.895   9.294  14.639 -0.1922 -0.2416  0.1496
 1269POSM   PO414882  15.143   8.995  14.780 -0.2760 -0.0009  0.2512
 1269POSM   AM114883  15.236   8.987  14.458  0.0187 -0.1475 -0.1126
 1269POSM   AM214884  15.369   9.202  14.356 -0.1376  0.1578 -0.2978
 1269POSM   T1A14885  15.086   8.825  13.999 -0.2002 -0.0569 -0.0669
 1269POSM   C2A14886  14.818   8.702  13.650  0.0662 -0.2133 -0.2783
 1269POSM   C3A14887  14.826   8.939  13.287  0.1839 -0.0677  0.1017
 1269POSM   C1B14888  15.379   9.267  14.020 -0.0392 -0.0766 -0.0287
 1269POSM   D2B14889  15.185   9.209  13.630 -0.0224  0.1892 -0.1885
 1269POSM   C3B14890  14.973   9.445  13.267 -0.0695  0.2127 -0.1715
 1269POSM   C4B14891  14.756   9.846  13.251  0.2752  0.1175  0.0362
 1270DOPC   NC314892  16.028   4.457  15.205 -0.1902 -0.0441  0.1739
 1270DOPC   PO414893  15.752   4.428  14.931  0.2916  0.0554 -0.0973
 1270DOPC   GL114894  15.554   4.586  14.593  0.1065 -0.4588 -0.5246
 1270DOPC   GL214895  15.608   4.380  14.387  0.5007  0.1926 -0.5135
 1270DOPC   C1A14896  15.136   4.725  14.438  0.2474 -0.1075  0.1427
 1270DOPC   D2A14897  14.794   4.815  14.202  0.0697  0.2450  0.4016
 1270DOPC   C3A14898  14.924   4.839  13.743  0.1872  0.2588  0.0927
 1270DOPC   C4A14899  14.992   5.017  13.318  0.0451 -0.1111 -0.1013
 1270DOPC   C1B14900  15.734   4.261  13.953 -0.1799 -0.0980 -0.1678
 1270DOPC   D2B14901  15.857   4.400  13.522 -0.0143 -0.0242  0.0135
 1270DOPC   C3B14902  15.506   4.422  13.187  0.0636  0.0739  0.1973
 1270DOPC   C4B14903  15.455   4.790  12.893  0.0751  0.0279 -0.0351
 1271POSM   NC314904  14.711  10.192  14.353  0.2340  0.0676 -0.2112
 1271POSM   PO414905  15.068  10.328  14.243 -0.1024 -0.0348 -0.4728
 1271POSM   AM114906  15.043  10.263  13.950  0.2321 -0.0863 -0.0669
 1271POSM   AM214907  14.800  10.187  13.813 -0.0958 -0.2300  0.0243
 1271POSM   T1A14908  15.227  10.009  13.541  0.1173 -0.0155 -0.3585
 1271POSM   C2A14909  15.230   9.944  13.096  0.1104 -0.2186 -0.0108
 1271POSM   C3A14910  15.475  10.050  12.644  0.0212  0.0244 -0.0809
 1271POSM   C1B14911  14.649  10.339  13.556 -0.0896  0.0660 -0.1757
 1271POSM   D2B14912  14.529  10.293  13.079  0.2976 -0.0085  0.2361
 1271POSM   C3B14913  14.590  10.289  12.605  0.0183 -0.2335 -0.0582
 1271POSM   C4B14914  14.442  10.377  12.120  0.2740 -0.1777 -0.3550
 1272DOPE   NH314915  15.520   8.603  14.805  0.0344  0.0040 -0.0742
 1272DOPE   PO414916  15.795   8.430  14.640 -0.3113 -0.0143 -0.1246
 1272DOPE   GL114917  15.781   8.299  14.284 -0.3676 -0.1661  0.0239
 1272DOPE   GL214918  16.081   8.409  14.177  0.1028  0.0104 -0.1090
 1272DOPE   C1A14919  15.561   8.565  13.914  0.3427  0.2239 -0.1937
 1272DOPE   D2A14920  15.298   8.679  13.569 -0.2860  0.1272  0.0628
 1272DOPE   C3A14921  15.136   8.530  13.187  0.1501 -0.2585  0.0695
 1272DOPE   C4A14922  15.089   8.344  12.761  0.2118  0.0363 -0.4733
 1272DOPE   C1B14923  16.107   8.423  13.716  0.0300 -0.0122  0.0152
 1272DOPE   D2B14924  16.150   8.164  13.353  0.1805 -0.2989 -0.2421
 1272DOPE   C3B14925  16.309   7.714  13.152 -0.0352 -0.1666 -0.1335
 1272DOPE   C4B14926  16.131   7.336  12.975 -0.0846  0.0015 -0.3172
 1273DOPC   NC314927  21.895   2.625  13.598  0.0803  0.3696 -0.4015
 1273DOPC   PO414928  21.533   2.763  13.586  0.0304 -0.0168  0.1688
 1273DOPC   GL114929  21.739   2.797  13.201 -0.0948 -0.0864  0.2722
 1273DOPC   GL214930  21.741   3.067  13.200  0.0054 -0.0575 -0.0326
 1273DOPC   C1A14931  21.921   2.655  12.813 -0.2147  0.2344  0.2906
 1273DOPC   D2A14932  22.176   2.670  12.408 -0.3108  0.2175 -0.1913
 1273DOPC   C3A14933  22.234   2.371  12.074  0.1258  0.1800  0.1425
 1273DOPC   C4A14934  22.406   2.206  11.706 -0.0353 -0.3409 -0.2155
 1273DOPC   C1B14935  21.749   3.435  12.908 -0.0295  0.0043 -0.1837
 1273DOPC   D2B14936  21.769   3.840  12.663  0.2316 -0.2838 -0.3411
 1273DOPC   C3B14937  21.960   3.968  12.312 -0.2852  0.2317  0.1319
 1273DOPC   C4B14938  22.382   3.825  12.190 -0.0110  0.1356 -0.3094
 1274DOPC   NC314939  18.218   1.932  13.571 -0.1281  0.0630  0.0426
 1274DOPC   PO414940  18.577   1.902  13.531 -0.2325 -0.0028 -0.0699
 1274DOPC   GL114941  18.610   2.224  13.384  0.2178  0.1290 -0.1045
 1274DOPC   GL214942  18.601   2.032  13.071  0.2179  0.0902  0.0258
 1274DOPC   C1A14943  18.438   2.632  13.350  0.0979 -0.0812  0.1054
 1274DOPC   D2A14944  18.098   2.952  13.097  0.3322  0.0665 -0.2285
 1274DOPC   C3A14945  18.078   2.974  12.624  0.1449  0.1042 -0.1792
 1274DOPC   C4A14946  18.239   3.086  12.210  0.1311 -0.1101  0.1895
 1274DOPC   C1B14947  18.604   2.121  12.635  0.1847 -0.0405  0.1609
 1274DOPC   D2B14948  18.851   2.026  12.245 -0.4474  0.2507 -0.2482
 1274DOPC   C3B14949  19.060   1.727  11.927 -0.1410 -0.1570 -0.0181
 1274DOPC   C4B14950  19.474   1.542  11.792 -0.0883  0.3399  0.2511
 1275DOPC   NC314951  14.743  33.210  14.612 -0.2077 -0.1772  0.1975
 1275DOPC   PO414952  14.671  33.460  14.314 -0.0092  0.0912  0.2112
 1275DOPC   GL114953  14.654  33.572  13.934 -0.0027 -0.1373  0.1283
 1275DOPC   GL214954  14.818  33.326  13.830 -0.1291 -0.0526  0.0512
 1275DOPC   C1A14955  14.563  33.817  13.524 -0.1323  0.1181  0.0193
 1275DOPC   D2A14956  14.395  33.833  13.059 -0.1450 -0.0487 -0.0500
 1275DOPC   C3A14957  14.457  33.587  12.651 -0.1815 -0.1695  0.0807
 1275DOPC   C4A14958  14.661  33.133  12.615 -0.1019 -0.1403  0.1062
 1275DOPC   C1B14959  14.469  32.970  13.687 -0.1517  0.0822  0.2031
 1275DOPC   D2B14960  14.327  32.585  13.458  0.0323  0.1977  0.0795
 1275DOPC   C3B14961  14.158  32.469  13.031 -0.1530 -0.0104  0.0479
 1275DOPC   C4B14962  13.999  32.371  12.616 -0.1966 -0.1039 -0.2797
 1276DOPC   NC314963  21.535   8.857  13.765 -0.0743  0.1962 -0.1822
 1276DOPC   PO414964  21.923   8.889  13.737 -0.2261  0.1539  0.1007
 1276DOPC   GL114965  21.851   8.808  13.325 -0.1115 -0.1616 -0.0475
 1276DOPC   GL214966  21.600   8.929  13.246  0.0084  0.1326  0.0591
 1276DOPC   C1A14967  22.061   9.169  13.031  0.2849  0.1628  0.2192
 1276DOPC   D2A14968  22.007   9.439  12.616  0.0712  0.1291  0.1501
 1276DOPC   C3A14969  22.311   9.681  12.391  0.0167 -0.0119  0.0844
 1276DOPC   C4A14970  22.470   9.564  11.976  0.1635  0.0443  0.2815
 1276DOPC   C1B14971  21.609   8.965  12.797 -0.3645 -0.1542 -0.1502
 1276DOPC   D2B14972  21.790   9.108  12.370 -0.1021  0.1143 -0.0156
 1276DOPC   C3B14973  21.988   9.426  12.095 -0.0094  0.1982  0.1992
 1276DOPC   C4B14974  22.068   9.652  11.727 -0.2099  0.0637  0.0563
 1277DOPS   CNO14975  15.821   5.935  15.030 -0.0803  0.2105  0.0550
 1277DOPS   PO414976  15.691   6.277  14.897 -0.0907  0.0529 -0.0345
 1277DOPS   GL114977  15.709   6.559  14.476  0.3633  0.1497 -0.1576
 1277DOPS   GL214978  15.427   6.558  14.465  0.2225  0.0167 -0.1167
 1277DOPS   C1A14979  15.900   6.487  14.036  0.1188  0.0574 -0.1222
 1277DOPS   D2A14980  16.258   6.327  13.769 -0.3197  0.2395 -0.0628
 1277DOPS   C3A14981  16.372   6.430  13.331  0.0496 -0.2695 -0.2229
 1277DOPS   C4A14982  16.476   6.491  12.905 -0.2691  0.1746  0.4722
 1277DOPS   C1B14983  14.988   6.694  14.537 -0.0407  0.1566  0.0666
 1277DOPS   D2B14984  14.661   6.413  14.443  0.2482  0.1960  0.0898
 1277DOPS   C3B14985  14.411   6.507  14.103  0.1531 -0.3603  0.4216
 1277DOPS   C4B14986  14.226   6.738  13.671 -0.3468  0.1105  0.0125
 1278DOPC   NC314987  18.900   3.561  13.918  0.0422  0.3721  0.3026
 1278DOPC   PO414988  18.779   3.173  14.022  0.1085  0.3792 -0.2475
 1278DOPC   GL114989  18.571   3.057  13.704  0.0176 -0.3470  0.2011
 1278DOPC   GL214990  18.785   3.216  13.491 -0.0072 -0.1933  0.2136
 1278DOPC   C1A14991  18.136   3.148  13.569  0.1727 -0.0425 -0.1580
 1278DOPC   D2A14992  17.703   2.951  13.521 -0.0948 -0.1222  0.1858
 1278DOPC   C3A14993  17.704   2.691  13.077 -0.0471 -0.1183 -0.1253
 1278DOPC   C4A14994  17.894   2.495  12.738  0.2014  0.1992  0.2016
 1278DOPC   C1B14995  18.470   3.371  13.252  0.2295  0.2963  0.2061
 1278DOPC   D2B14996  18.360   3.388  12.840 -0.0914 -0.1053 -0.2137
 1278DOPC   C3B14997  18.530   3.676  12.532  0.1146 -0.0200 -0.2628
 1278DOPC   C4B14998  18.604   4.123  12.331 -0.1453  0.1538  0.2944
 1279DOPS   CNO14999  21.342   8.373  13.909  0.0324  0.0249 -0.1284
 1279DOPS   PO415000  21.419   8.042  13.695 -0.0268 -0.1490 -0.1336
 1279DOPS   GL115001  21.392   8.005  13.288  0.0018 -0.0675  0.0060
 1279DOPS   GL215002  21.594   8.033  13.087 -0.0203  0.2089  0.0766
 1279DOPS   C1A15003  21.127   8.143  12.960 -0.1453  0.0203  0.0612
 1279DOPS   D2A15004  21.032   8.236  12.520  0.3944  0.1064 -0.0503
 1279DOPS   C3A15005  21.040   8.624  12.294 -0.0478 -0.0831  0.1244
 1279DOPS   C4A15006  21.242   9.028  12.475 -0.3463  0.2587 -0.2647
 1279DOPS   C1B15007  21.537   7.872  12.616  0.0932  0.1202  0.0286
 1279DOPS   D2B15008  21.160   7.633  12.531 -0.1973 -0.0604  0.1782
 1279DOPS   C3B15009  21.085   7.560  12.103  0.0034 -0.4018 -0.1877
 1279DOPS   C4B15010  21.177   7.431  11.686 -0.2859  0.2414  0.0119
 1280POSM   NC315011  22.860  33.978  12.801 -0.0070  0.0933  0.0692
 1280POSM   PO415012  22.773  34.361  12.928 -0.1977 -0.1941  0.1698
 1280POSM   AM115013  23.014  34.490  12.738  0.2557 -0.2618  0.2040
 1280POSM   AM215014  23.267  34.655  12.683 -0.0338 -0.0170  0.1277
 1280POSM   T1A15015  23.063  34.620  12.217 -0.1692 -0.1135  0.0240
 1280POSM   C2A15016  23.130  34.689  11.779  0.1134 -0.0162  0.0877
 1280POSM   C3A15017  22.875  34.837  11.449  0.1807 -0.1574 -0.3433
 1280POSM   C1B15018  23.492  34.577  12.454  0.2663  0.1220 -0.0159
 1280POSM   D2B15019  23.582  34.668  11.990  0.2849  0.3676 -0.1729
 1280POSM   C3B15020  23.559  34.992  11.635 -0.2284 -0.1268 -0.2478
 1280POSM   C4B15021  23.343  34.807  11.264  0.0420 -0.0138  0.3780
 1281DOPS   CNO15022  15.340   0.789  14.156 -0.1531  0.2474  0.0268
 1281DOPS   PO415023  15.176   0.466  14.069  0.1222  0.3960  0.1430
 1281DOPS   GL115024  15.366   0.591  13.711  0.1895  0.1254 -0.0807
 1281DOPS   GL215025  15.328   0.354  13.533 -0.2624 -0.0023 -0.1687
 1281DOPS   C1A15026  15.715   0.753  13.416 -0.1730  0.1588 -0.1270
 1281DOPS   D2A15027  15.944   0.846  13.050 -0.1113  0.1113 -0.0644
 1281DOPS   C3A15028  15.528   0.957  12.841  0.1202  0.0084 -0.1331
 1281DOPS   C4A15029  15.096   1.043  12.785 -0.0775 -0.1367  0.2837
 1281DOPS   C1B15030  15.038  -0.026  13.556 -0.4272 -0.3411 -0.1562
 1281DOPS   D2B15031  14.805  -0.438  13.528 -0.1516 -0.3104 -0.1022
 1281DOPS   C3B15032  14.460  -0.426  13.187 -0.0926 -0.0769  0.0570
 1281DOPS   C4B15033  14.178  -0.407  12.839 -0.2816 -0.0527 -0.0633
 1282DOPS   CNO15034  10.657   2.570  14.621 -0.0454 -0.0648 -0.1221
 1282DOPS   PO415035  10.315   2.687  14.544  0.0415  0.1220 -0.1739
 1282DOPS   GL115036  10.509   2.799  14.231  0.2143  0.0004 -0.1564
 1282DOPS   GL215037  10.469   3.083  14.097 -0.1689 -0.3015 -0.2040
 1282DOPS   C1A15038  10.780   2.433  14.058  0.3322 -0.0727 -0.3533
 1282DOPS   D2A15039  11.164   2.355  13.766 -0.0674 -0.1078  0.3620
 1282DOPS   C3A15040  11.213   2.535  13.322  0.0918 -0.1597  0.2829
 1282DOPS   C4A15041  11.190   2.582  12.918 -0.1819 -0.0183  0.0610
 1282DOPS   C1B15042  10.081   3.066  13.848 -0.0533 -0.3276 -0.0427
 1282DOPS   D2B15043   9.922   3.185  13.423 -0.0306 -0.1940  0.0637
 1282DOPS   C3B15044   9.752   3.574  13.256 -0.2982  0.1362 -0.1108
 1282DOPS   C4B15045   9.419   3.938  13.079 -0.0026  0.1928 -0.2118
 1283DOPE   NH315046  14.071   2.666  15.020  0.0875 -0.0613 -0.1219
 1283DOPE   PO415047  14.363   2.652  15.049 -0.2862  0.1181 -0.1937
 1283DOPE   GL115048  14.362   2.778  14.624 -0.0695  0.1775  0.0513
 1283DOPE   GL215049  14.113   2.819  14.512  0.1610 -0.1209 -0.1273
 1283DOPE   C1A15050  14.414   2.575  14.160 -0.0634  0.1101  0.0400
 1283DOPE   D2A15051  14.364   2.598  13.714 -0.2154  0.1350  0.2286
 1283DOPE   C3A15052  14.619   2.270  13.493 -0.2930  0.0058 -0.0510
 1283DOPE   C4A15053  14.682   1.832  13.278  0.1338  0.3234 -0.0614
 1283DOPE   C1B15054  14.022   3.008  14.161 -0.0661 -0.0019  0.3861
 1283DOPE   D2B15055  13.917   3.022  13.766  0.0042  0.0245  0.1546
 1283DOPE   C3B15056  13.918   3.388  13.494  0.0577 -0.1235 -0.0768
 1283DOPE   C4B15057  14.108   3.797  13.384  0.2422 -0.0082 -0.3669
 1284DOPE   NH315058  21.448   1.460  13.545 -0.1529  0.2321  0.2073
 1284DOPE   PO415059  21.463   1.442  13.236  0.0129 -0.2458  0.2119
 1284DOPE   GL115060  21.542   1.316  12.901 -0.1658  0.0835 -0.0305
 1284DOPE   GL215061  21.330   1.180  12.830  0.0405  0.2061 -0.0178
 1284DOPE   C1A15062  21.827   1.169  12.592 -0.0114  0.3520  0.0108
 1284DOPE   D2A15063  22.103   0.859  12.364  0.0154  0.0302  0.4648
 1284DOPE   C3A15064  22.006   0.791  11.910 -0.1746  0.0360  0.0021
 1284DOPE   C4A15065  22.066   0.483  11.580 -0.1257 -0.2708 -0.1706
 1284DOPE   C1B15066  21.171   0.962  12.434 -0.1069 -0.1921 -0.0994
 1284DOPE   D2B15067  21.494   0.890  12.068 -0.0965  0.0392  0.1601
 1284DOPE   C3B15068  21.533   0.891  11.647 -0.0069 -0.1795 -0.0861
 1284DOPE   C4B15069  21.807   1.044  11.309  0.0732 -0.1889 -0.1441
 1285DOPE   NH315070  21.504  11.731  13.011  0.1421 -0.1830 -0.0464
 1285DOPE   PO415071  21.712  11.504  12.940 -0.0903  0.0583  0.0330
 1285DOPE   GL115072  21.577  11.570  12.585  0.0804  0.0041 -0.1517
 1285DOPE   GL215073  21.802  11.684  12.444 -0.3379 -0.0221  0.0947
 1285DOPE   C1A15074  21.360  11.665  12.210 -0.1547  0.1793  0.2552
 1285DOPE   D2A15075  21.005  11.844  11.947  0.0392 -0.2300  0.0296
 1285DOPE   C3A15076  20.719  11.569  11.608 -0.0440 -0.0286  0.2568
 1285DOPE   C4A15077  20.544  11.301  11.288  0.2509  0.0112 -0.0753
 1285DOPE   C1B15078  21.752  11.874  11.977  0.1370  0.1647 -0.0052
 1285DOPE   D2B15079  21.451  11.888  11.613 -0.2272 -0.0524  0.2238
 1285DOPE   C3B15080  21.570  11.824  11.172  0.0178 -0.0233 -0.2220
 1285DOPE   C4B15081  21.768  12.040  10.808  0.0336  0.1442  0.1340
 1286DOPC   NC315082  14.479   4.152  15.206 -0.1680 -0.2204 -0.2509
 1286DOPC   PO415083  14.798   3.947  15.153 -0.1913 -0.2525 -0.2036
 1286DOPC   GL115084  14.736   4.267  14.800  0.2618 -0.0650 -0.2066
 1286DOPC   GL215085  14.422   4.279  14.741  0.4078 -0.0483  0.0776
 1286DOPC   C1A15086  14.733   4.326  14.358  0.1082  0.3450  0.1902
 1286DOPC   D2A15087  14.675   4.339  13.904  0.2060  0.0844 -0.0347
 1286DOPC   C3A15088  14.927   4.421  13.460  0.3039 -0.1234 -0.3067
 1286DOPC   C4A15089  15.062   4.447  13.069 -0.3306  0.0849 -0.1738
 1286DOPC   C1B15090  14.282   4.061  14.376 -0.0801  0.2190  0.0031
 1286DOPC   D2B15091  14.174   4.305  13.996 -0.2073  0.0740  0.2543
 1286DOPC   C3B15092  13.772   4.218  13.776  0.2590 -0.2911 -0.2857
 1286DOPC   C4B15093  13.489   4.272  13.421  0.1183 -0.0898 -0.0424
 1287DOPC   NC315094  22.644   5.460  13.185 -0.0731  0.3192  0.0471
 1287DOPC   PO415095  22.387   5.204  13.327  0.1071  0.3489  0.3270
 1287DOPC   GL115096  22.541   4.911  12.994 -0.3069 -0.3815  0.1160
 1287DOPC   GL215097  22.503   4.684  12.801  0.2614  0.0293  0.2527
 1287DOPC   C1A15098  22.585   5.096  12.563  0.0544 -0.0075 -0.2093
 1287DOPC   D2A15099  22.283   5.074  12.226 -0.1887  0.0916  0.1581
 1287DOPC   C3A15100  22.710   5.120  11.941  0.1881 -0.1719  0.0057
 1287DOPC   C4A15101  23.112   5.232  11.824  0.3216  0.0676 -0.3012
 1287DOPC   C1B15102  22.144   4.762  12.577 -0.0947  0.1240 -0.0924
 1287DOPC   D2B15103  21.801   4.967  12.366  0.1107 -0.0955 -0.1061
 1287DOPC   C3B15104  21.904   5.308  12.053 -0.2413  0.2311  0.1891
 1287DOPC   C4B15105  22.217   5.652  12.243 -0.0588  0.3295  0.0080
 1288POSM   NC315106  14.295   3.236  15.180 -0.1634 -0.1410 -0.1747
 1288POSM   PO415107  13.910   3.189  15.014 -0.3034 -0.0226  0.2052
 1288POSM   AM115108  14.059   3.360  14.811 -0.3143 -0.0951 -0.3674
 1288POSM   AM215109  14.258   3.286  14.593  0.2889  0.2235 -0.0298
 1288POSM   T1A15110  13.915   3.749  14.479 -0.0243  0.1284 -0.0343
 1288POSM   C2A15111  13.709   4.160  14.294  0.0250  0.3196  0.0332
 1288POSM   C3A15112  13.306   4.349  14.339  0.0681  0.1327 -0.1983
 1288POSM   C1B15113  14.310   3.417  14.220  0.2171 -0.1563  0.2679
 1288POSM   D2B15114  14.360   3.348  13.751  0.0658  0.0976  0.0950
 1288POSM   C3B15115  14.300   3.008  13.438 -0.0102  0.0387  0.0455
 1288POSM   C4B15116  14.050   2.984  13.011  0.0425  0.1080 -0.0830
 1289POSM   NC315117  13.496  11.486  14.690  0.0910  0.1988 -0.2673
 1289POSM   PO415118  13.858  11.281  14.678  0.0120 -0.3581  0.0938
 1289POSM   AM115119  13.807  11.323  14.358 -0.0981 -0.1471 -0.1845
 1289POSM   AM215120  14.021  11.312  14.157 -0.2092  0.1358 -0.1666
 1289POSM   T1A15121  13.560  11.041  14.021 -0.2568 -0.1222 -0.0284
 1289POSM   C2A15122  13.255  10.982  13.742 -0.3669 -0.1333  0.1196
 1289POSM   C3A15123  13.186  10.853  13.278  0.1067 -0.1281  0.0878
 1289POSM   C1B15124  14.201  11.129  13.936 -0.2554  0.1416  0.1319
 1289POSM   D2B15125  14.266  10.905  13.506 -0.1456 -0.2162  0.1372
 1289POSM   C3B15126  14.625  10.796  13.318 -0.1103 -0.1088  0.0030
 1289POSM   C4B15127  14.970  10.444  13.205  0.1408 -0.1592  0.1787
 1290DOPE   NH315128  13.374   1.628  15.197  0.0941  0.1582 -0.2053
 1290DOPE   PO415129  13.098   1.458  15.099  0.1228 -0.1097 -0.0476
 1290DOPE   GL115130  13.083   1.415  14.675 -0.2500 -0.0729  0.4338
 1290DOPE   GL215131  12.938   1.579  14.455  0.2163 -0.3778 -0.1033
 1290DOPE   C1A15132  13.111   1.218  14.209  0.1786 -0.1397  0.2313
 1290DOPE   D2A15133  12.973   1.221  13.789 -0.1493 -0.1609 -0.3303
 1290DOPE   C3A15134  13.177   1.080  13.400  0.0327  0.0602 -0.0798
 1290DOPE   C4A15135  13.255   1.235  12.965  0.3283  0.0253  0.1681
 1290DOPE   C1B15136  13.252   1.694  14.195  0.1041 -0.1473  0.2289
 1290DOPE   D2B15137  13.425   1.826  13.801 -0.2250 -0.0028 -0.1391
 1290DOPE   C3B15138  13.844   1.672  13.702 -0.1437 -0.0056 -0.0626
 1290DOPE   C4B15139  14.313   1.637  13.593  0.1283 -0.3478  0.1934
 1291DOPE   NH315140  11.756   3.476  15.251  0.4683 -0.2841  0.2036
 1291DOPE   PO415141  11.912   3.409  14.973  0.0238 -0.0166 -0.1815
 1291DOPE   GL115142  11.835   3.378  14.571 -0.2213  0.0378 -0.0730
 1291DOPE   GL215143  12.042   3.503  14.421  0.1374  0.1568  0.2075
 1291DOPE   C1A15144  11.963   2.972  14.308  0.2486  0.1347 -0.1824
 1291DOPE   D2A15145  12.163   2.906  13.945  0.0895 -0.3841 -0.0639
 1291DOPE   C3A15146  12.286   3.106  13.535  0.2448  0.0168  0.2061
 1291DOPE   C4A15147  12.549   3.339  13.246 -0.0036 -0.0374  0.2246
 1291DOPE   C1B15148  12.493   3.388  14.211 -0.0774  0.0167  0.1558
 1291DOPE   D2B15149  12.715   3.012  13.924  0.0882  0.2729  0.1848
 1291DOPE   C3B15150  12.952   3.011  13.492  0.4601 -0.1513  0.0734
 1291DOPE   C4B15151  13.412   3.027  13.427  0.2366 -0.1784 -0.3952
 1292DOPE   NH315152  18.704  13.394  12.765 -0.0270  0.1962 -0.1285
 1292DOPE   PO415153  18.560  13.114  12.889 -0.0668 -0.0269  0.1533
 1292DOPE   GL115154  18.725  13.067  12.429 -0.5107  0.1678 -0.0987
 1292DOPE   GL215155  18.993  13.145  12.421  0.0936  0.0958  0.0272
 1292DOPE   C1A15156  18.415  12.999  12.104 -0.0339 -0.0793  0.1749
 1292DOPE   D2A15157  17.967  13.167  12.200  0.1527  0.1717 -0.1008
 1292DOPE   C3A15158  18.076  13.602  12.032  0.4015 -0.0483  0.1977
 1292DOPE   C4A15159  18.265  14.029  11.932  0.2271  0.3675  0.2543
 1292DOPE   C1B15160  19.040  13.339  12.002 -0.2910 -0.0748  0.1275
 1292DOPE   D2B15161  18.963  13.392  11.562  0.0922 -0.1143  0.2891
 1292DOPE   C3B15162  19.137  13.196  11.220 -0.0189  0.0485 -0.1767
 1292DOPE   C4B15163  19.154  12.755  11.098  0.5981 -0.0414  0.1587
 1293DOPC   NC315164   9.151   1.625  14.715  0.0778 -0.1331  0.0864
 1293DOPC   PO415165   9.375   1.698  14.418 -0.2296  0.0401  0.2805
 1293DOPC   GL115166   9.317   1.702  14.046  0.4783  0.0361 -0.0439
 1293DOPC   GL215167   9.411   1.424  13.992  0.0452  0.1061 -0.1714
 1293DOPC   C1A15168   9.393   1.961  13.671 -0.1925 -0.2260 -0.1953
 1293DOPC   D2A15169   9.157   2.002  13.316  0.2527 -0.1362  0.1224
 1293DOPC   C3A15170   9.211   1.623  13.055  0.0690 -0.0337  0.3717
 1293DOPC   C4A15171   9.258   1.338  12.740  0.1453 -0.0406 -0.0301
 1293DOPC   C1B15172   9.671   1.437  13.616 -0.4245  0.1046 -0.2768
 1293DOPC   D2B15173   9.747   1.770  13.301 -0.1201  0.0104  0.0106
 1293DOPC   C3B15174   9.591   2.109  13.003  0.0342 -0.1086 -0.0036
 1293DOPC   C4B15175   9.179   2.087  12.798 -0.2014  0.2980  0.3096
 1294DOPC   NC315176  12.861   6.004  14.760  0.1490  0.1055 -0.0188
 1294DOPC   PO415177  12.768   5.605  14.885 -0.0513  0.2421  0.2020
 1294DOPC   GL115178  13.129   5.588  14.668 -0.0441 -0.2358 -0.2836
 1294DOPC   GL215179  13.121   5.387  14.492  0.1611  0.0798 -0.0557
 1294DOPC   C1A15180  13.243   5.778  14.290  0.0209  0.0732  0.1146
 1294DOPC   D2A15181  13.114   5.670  13.848 -0.0221  0.1651  0.1419
 1294DOPC   C3A15182  13.076   6.013  13.586  0.5450  0.2626 -0.1761
 1294DOPC   C4A15183  12.894   6.075  13.200 -0.1059  0.0949 -0.1750
 1294DOPC   C1B15184  13.294   5.296  14.044  0.0097  0.0236 -0.1739
 1294DOPC   D2B15185  13.709   5.116  13.883 -0.0352 -0.1145 -0.2297
 1294DOPC   C3B15186  14.056   5.223  13.587 -0.0701  0.2305  0.1673
 1294DOPC   C4B15187  14.434   5.141  13.279 -0.1687 -0.0766  0.1960
 1295POSM   NC315188  15.475   3.097  14.822 -0.0189  0.1582  0.1210
 1295POSM   PO415189  15.870   3.021  14.764 -0.1121 -0.1096 -0.1804
 1295POSM   AM115190  15.786   2.957  14.440 -0.3933  0.1153  0.1930
 1295POSM   AM215191  15.783   2.738  14.316 -0.3448 -0.1693  0.3861
 1295POSM   T1A15192  15.517   3.020  13.987 -0.3469 -0.1274 -0.1078
 1295POSM   C2A15193  15.235   3.325  13.778 -0.0281 -0.1149 -0.3639
 1295POSM   C3A15194  15.196   3.472  13.404  0.0631 -0.1972  0.1731
 1295POSM   C1B15195  15.812   2.540  14.029 -0.0206 -0.2170 -0.0667
 1295POSM   D2B15196  15.831   2.270  13.654 -0.1441  0.0905 -0.1828
 1295POSM   C3B15197  15.967   1.829  13.745  0.0516 -0.1390 -0.0737
 1295POSM   C4B15198  16.148   1.736  14.212  0.1823  0.3635 -0.1594
 1296DOPC   NC315199  17.980  11.178  13.688 -0.3202  0.1320 -0.2900
 1296DOPC   PO415200  17.683  10.942  13.764  0.1212  0.0182  0.1578
 1296DOPC   GL115201  17.606  10.755  13.354  0.2215 -0.0966 -0.3489
 1296DOPC   GL215202  17.381  10.663  13.449  0.2146  0.0425 -0.2584
 1296DOPC   C1A15203  17.345  10.753  12.949 -0.1105 -0.0883  0.1188
 1296DOPC   D2A15204  16.998  10.532  12.764  0.1186 -0.1801 -0.0360
 1296DOPC   C3A15205  16.608  10.564  12.521  0.0501  0.0169  0.0052
 1296DOPC   C4A15206  16.303  10.246  12.287 -0.2164 -0.0128  0.2587
 1296DOPC   C1B15207  16.966  10.638  13.337  0.1380 -0.1418 -0.3549
 1296DOPC   D2B15208  16.661  10.327  13.228  0.0907  0.2482  0.2553
 1296DOPC   C3B15209  16.663   9.886  13.019 -0.0968  0.0518 -0.1060
 1296DOPC   C4B15210  16.498   9.469  13.019 -0.2308  0.1512  0.0680
 1297DOPE   NH315211  19.311   2.523  13.699 -0.0464 -0.0683  0.0808
 1297DOPE   PO415212  19.543   2.579  13.497  0.1648 -0.2924  0.0916
 1297DOPE   GL115213  19.385   2.883  13.222  0.1367 -0.1800 -0.0461
 1297DOPE   GL215214  19.445   2.676  12.977  0.3138  0.1533 -0.2789
 1297DOPE   C1A15215  19.130   2.994  12.864  0.0116 -0.0127  0.1228
 1297DOPE   D2A15216  18.922   3.389  12.714 -0.3946  0.0596 -0.1608
 1297DOPE   C3A15217  18.897   3.411  12.318 -0.0663  0.0561 -0.2039
 1297DOPE   C4A15218  18.692   3.343  11.942  0.0296  0.1404  0.0448
 1297DOPE   C1B15219  19.452   2.658  12.500  0.4413 -0.1911  0.0328
 1297DOPE   D2B15220  19.574   2.606  12.047  0.2383  0.0512  0.2010
 1297DOPE   C3B15221  20.040   2.485  12.064 -0.1228  0.0435 -0.1488
 1297DOPE   C4B15222  20.323   2.682  12.393  0.0065  0.0506 -0.1345
 1298DOPC   NC315223  16.317   8.344  14.687  0.3194  0.0429 -0.0963
 1298DOPC   PO415224  16.522   8.498  14.355  0.2365 -0.1617  0.2627
 1298DOPC   GL115225  16.503   8.541  13.938 -0.0105  0.0760  0.0791
 1298DOPC   GL215226  16.508   8.811  13.884  0.2007  0.1007 -0.1686
 1298DOPC   C1A15227  16.679   8.347  13.528 -0.1019  0.1784  0.0085
 1298DOPC   D2A15228  16.695   8.090  13.163 -0.0985 -0.1521 -0.2495
 1298DOPC   C3A15229  16.908   7.791  12.819  0.1735 -0.4056 -0.0590
 1298DOPC   C4A15230  17.164   7.644  12.485  0.0667  0.1815  0.0275
 1298DOPC   C1B15231  16.400   8.799  13.431 -0.0221 -0.0936 -0.0004
 1298DOPC   D2B15232  16.624   8.603  13.116  0.1559 -0.3343  0.2260
 1298DOPC   C3B15233  16.547   8.579  12.615  0.2562  0.0968  0.3073
 1298DOPC   C4B15234  16.319   8.348  12.230 -0.2952  0.1674  0.3626
 1299DOPE   NH315235  14.747   8.395  14.727 -0.4581  0.3067 -0.2673
 1299DOPE   PO415236  14.432   8.484  14.714  0.1096 -0.0279  0.0969
 1299DOPE   GL115237  14.404   8.526  14.349 -0.2641  0.1788 -0.0611
 1299DOPE   GL215238  14.385   8.267  14.264  0.0461 -0.0919 -0.4172
 1299DOPE   C1A15239  14.515   8.841  13.995  0.3107 -0.0227  0.2571
 1299DOPE   D2A15240  14.664   9.225  13.760  0.0916 -0.1842  0.1755
 1299DOPE   C3A15241  14.491   9.332  13.297 -0.2194  0.1445  0.1641
 1299DOPE   C4A15242  14.201   9.199  12.973 -0.2300 -0.0186 -0.0637
 1299DOPE   C1B15243  14.571   8.268  13.783 -0.3191  0.1657  0.1325
 1299DOPE   D2B15244  14.684   8.239  13.345  0.2002  0.3153  0.0986
 1299DOPE   C3B15245  14.980   7.994  13.078 -0.1041  0.3135  0.1123
 1299DOPE   C4B15246  14.987   7.575  12.823  0.0347 -0.1101  0.2184
 1300DOPE   NH315247  17.412   1.813  14.339  0.2787  0.1932 -0.1122
 1300DOPE   PO415248  17.310   1.528  14.213 -0.1336 -0.1138  0.1962
 1300DOPE   GL115249  17.136   1.589  13.859  0.5970 -0.1972 -0.0169
 1300DOPE   GL215250  17.317   1.714  13.690  0.0478 -0.2661  0.1685
 1300DOPE   C1A15251  16.861   1.822  13.494  0.0699 -0.0829 -0.0458
 1300DOPE   D2A15252  16.820   2.265  13.302  0.2936  0.3090 -0.2234
 1300DOPE   C3A15253  16.392   2.465  13.297 -0.1639 -0.1502  0.1565
 1300DOPE   C4A15254  15.965   2.487  13.100 -0.0866  0.1213 -0.0695
 1300DOPE   C1B15255  17.714   1.808  13.477  0.1413  0.1184  0.2704
 1300DOPE   D2B15256  18.024   1.719  13.086 -0.0357 -0.2283 -0.0538
 1300DOPE   C3B15257  18.058   1.996  12.742  0.1247  0.3833  0.2327
 1300DOPE   C4B15258  18.224   1.999  12.291  0.1683 -0.2326  0.0209
 1301DOPC   NC315259  14.871  34.726  14.025 -0.2554  0.0958  0.2397
 1301DOPC   PO415260  15.007  34.369  14.112 -0.0489  0.0729 -0.2887
 1301DOPC   GL115261  14.605  34.356  13.998  0.0524  0.1393  0.3410
 1301DOPC   GL215262  14.554  34.110  14.020 -0.2243  0.2606 -0.0481
 1301DOPC   C1A15263  14.480  34.713  13.665 -0.0891  0.1757  0.0377
 1301DOPC   D2A15264  14.407  35.153  13.461  0.0321 -0.0723 -0.0459
 1301DOPC   C3A15265  14.367  35.064  13.021 -0.0715 -0.0055 -0.2231
 1301DOPC   C4A15266  14.187  35.254  12.615 -0.1285 -0.2367  0.0248
 1301DOPC   C1B15267  14.236  34.290  13.707  0.0379  0.3946  0.0523
 1301DOPC   D2B15268  14.056  34.170  13.281  0.0137 -0.0501  0.0602
 1301DOPC   C3B15269  13.997  33.692  13.344 -0.1440  0.0295  0.5040
 1301DOPC   C4B15270  14.009  33.230  13.270  0.1394 -0.1747  0.1551
 1302DOPC   NC315271  16.532   3.458  13.948  0.1401  0.0902 -0.0132
 1302DOPC   PO415272  16.493   3.137  14.183  0.0368  0.0235 -0.2219
 1302DOPC   GL115273  16.333   2.998  13.897  0.0008  0.1062 -0.1291
 1302DOPC   GL215274  16.031   3.012  13.979 -0.3151 -0.0105  0.0658
 1302DOPC   C1A15275  16.292   2.952  13.445  0.1778 -0.2122 -0.1207
 1302DOPC   D2A15276  16.342   3.008  13.028  0.1748  0.0163 -0.1178
 1302DOPC   C3A15277  16.099   3.105  12.640  0.1501  0.2218 -0.0986
 1302DOPC   C4A15278  15.721   3.406  12.676 -0.0008 -0.1270 -0.0119
 1302DOPC   C1B15279  15.781   3.205  13.649 -0.0364  0.0750  0.0441
 1302DOPC   D2B15280  15.680   3.433  13.292  0.1548  0.0422  0.2242
 1302DOPC   C3B15281  15.362   3.245  12.983  0.0721 -0.0088  0.1678
 1302DOPC   C4B15282  14.993   2.997  12.994 -0.1485 -0.1723 -0.2656
 1303DOPC   NC315283  23.070  10.732  13.452  0.1316 -0.0106  0.1672
 1303DOPC   PO415284  23.298  10.667  13.774  0.0641  0.1333  0.2956
 1303DOPC   GL115285  23.473  10.546  13.414 -0.0525 -0.0628 -0.3204
 1303DOPC   GL215286  23.642  10.327  13.447  0.0171 -0.1475  0.1142
 1303DOPC   C1A15287  23.877  10.665  13.137 -0.0242  0.1430  0.0838
 1303DOPC   D2A15288  23.950  10.388  12.762 -0.1161  0.3931 -0.2432
 1303DOPC   C3A15289  23.893  10.485  12.314  0.2442 -0.0541  0.1038
 1303DOPC   C4A15290  24.037  10.531  11.811 -0.1452  0.0451  0.0928
 1303DOPC   C1B15291  23.528  10.225  13.052  0.2671  0.0744  0.0395
 1303DOPC   D2B15292  23.741   9.938  12.754 -0.2395  0.2075  0.3942
 1303DOPC   C3B15293  24.044   9.965  12.463  0.2620  0.0261  0.0871
 1303DOPC   C4B15294  24.312  10.238  12.198 -0.1585 -0.0985  0.0673
 1304DOPC   NC315295   8.542   2.064  14.406 -0.0860  0.3090  0.1477
 1304DOPC   PO415296   8.937   1.911  14.328  0.2475 -0.2766  0.1419
 1304DOPC   GL115297   8.866   1.982  13.982 -0.0237 -0.0301  0.5748
 1304DOPC   GL215298   8.913   1.733  13.816  0.0698 -0.1303 -0.1493
 1304DOPC   C1A15299   9.073   2.333  13.735 -0.2940  0.2013 -0.0707
 1304DOPC   D2A15300   9.378   2.423  13.423 -0.0226  0.1326 -0.0501
 1304DOPC   C3A15301   9.376   2.550  12.975 -0.1153 -0.0407  0.2467
 1304DOPC   C4A15302   9.568   2.418  12.603 -0.2350 -0.0386 -0.2601
 1304DOPC   C1B15303   9.201   1.439  13.538 -0.1509  0.0587  0.0446
 1304DOPC   D2B15304   9.554   1.252  13.207  0.1354  0.1230  0.1395
 1304DOPC   C3B15305   9.774   1.568  12.891  0.1157 -0.2078  0.0849
 1304DOPC   C4B15306  10.062   1.923  12.737 -0.0625 -0.0683  0.2123
 1305DOPC   NC315307  17.385   5.106  14.762 -0.1873 -0.0690 -0.1950
 1305DOPC   PO415308  17.177   5.416  14.644 -0.1256  0.0727  0.1565
 1305DOPC   GL115309  17.004   5.342  14.282  0.0497 -0.1519 -0.0239
 1305DOPC   GL215310  17.240   5.438  14.146 -0.2377  0.0494 -0.1465
 1305DOPC   C1A15311  16.709   5.252  13.893  0.0182  0.0845 -0.1899
 1305DOPC   D2A15312  16.905   5.086  13.511  0.0874 -0.2901  0.2001
 1305DOPC   C3A15313  16.781   5.253  13.105  0.0046  0.2620 -0.0984
 1305DOPC   C4A15314  16.437   5.591  12.938 -0.1191 -0.1927 -0.0041
 1305DOPC   C1B15315  17.079   5.672  13.756  0.2807 -0.0418 -0.1038
 1305DOPC   D2B15316  16.803   5.644  13.375 -0.1949  0.1323 -0.1500
 1305DOPC   C3B15317  16.551   6.007  13.133  0.0074 -0.2506 -0.3062
 1305DOPC   C4B15318  16.129   6.093  12.929 -0.0941  0.0820  0.3558
 1306DOPE   NH315319  20.541   6.444  13.465  0.2387 -0.0990  0.4537
 1306DOPE   PO415320  20.821   6.361  13.614 -0.1855  0.0285  0.0902
 1306DOPE   GL115321  21.184   6.354  13.427  0.2286 -0.1890 -0.0217
 1306DOPE   GL215322  20.980   6.306  13.147  0.3556 -0.0625 -0.2278
 1306DOPE   C1A15323  21.511   6.391  13.128  0.0943 -0.0357  0.2393
 1306DOPE   D2A15324  21.675   6.488  12.753 -0.2336 -0.2969 -0.0720
 1306DOPE   C3A15325  21.840   6.202  12.492 -0.1895  0.0442  0.1015
 1306DOPE   C4A15326  22.036   6.114  12.116  0.1154 -0.0521  0.0650
 1306DOPE   C1B15327  20.764   6.081  12.787  0.0934 -0.0173 -0.0062
 1306DOPE   D2B15328  20.332   5.985  12.556  0.2631 -0.2335 -0.0774
 1306DOPE   C3B15329  20.355   6.170  12.193  0.1539 -0.1661  0.3121
 1306DOPE   C4B15330  20.547   6.392  11.787  0.0408  0.0337 -0.0574
 1307DOPE   NH315331  20.475   7.926  13.439 -0.3070  0.0111 -0.0358
 1307DOPE   PO415332  20.654   7.676  13.379 -0.1336  0.0689 -0.3639
 1307DOPE   GL115333  20.968   7.689  13.123 -0.0085  0.2319 -0.3203
 1307DOPE   GL215334  20.827   7.734  12.857 -0.0024  0.2791 -0.0251
 1307DOPE   C1A15335  21.414   7.553  13.031  0.4337  0.3182  0.2406
 1307DOPE   D2A15336  21.877   7.635  12.939  0.0786  0.1348  0.0007
 1307DOPE   C3A15337  21.977   7.693  12.477  0.1833  0.0543 -0.0055
 1307DOPE   C4A15338  22.099   7.361  12.138  0.0545  0.1034  0.0476
 1307DOPE   C1B15339  20.727   7.817  12.408 -0.1275 -0.0795  0.2952
 1307DOPE   D2B15340  20.462   7.850  12.034 -0.3690 -0.0527 -0.0402
 1307DOPE   C3B15341  20.465   7.395  11.920 -0.2379  0.0554 -0.0852
 1307DOPE   C4B15342  20.813   7.077  11.747 -0.0318 -0.0427  0.0388
 1308POSM   NC315343  20.010   9.324  13.598 -0.0426 -0.1379 -0.1790
 1308POSM   PO415344  20.345   9.441  13.378 -0.1149  0.2369  0.1417
 1308POSM   AM115345  20.295   9.391  13.092 -0.4904  0.2840  0.4004
 1308POSM   AM215346  20.451   9.460  12.861 -0.3671  0.1159 -0.1777
 1308POSM   T1A15347  19.935   9.363  12.743  0.2763 -0.3247 -0.0433
 1308POSM   C2A15348  19.937   9.469  12.341 -0.0151 -0.1015 -0.1774
 1308POSM   C3A15349  19.994   9.567  11.910  0.0257 -0.1378  0.1471
 1308POSM   C1B15350  20.436   9.347  12.517  0.4003  0.2647  0.1290
 1308POSM   D2B15351  20.525   9.360  12.051 -0.4032  0.4574  0.2210
 1308POSM   C3B15352  20.507   8.943  11.808 -0.1434 -0.0164 -0.0934
 1308POSM   C4B15353  20.624   8.791  11.433  0.0435  0.5460 -0.0276
 1309DOPC   NC315354  21.364   1.939  13.119 -0.0650 -0.0819  0.1122
 1309DOPC   PO415355  20.960   1.920  13.219 -0.1621  0.0319 -0.1713
 1309DOPC   GL115356  20.855   2.018  12.883 -0.2529  0.3713  0.2465
 1309DOPC   GL215357  21.048   2.244  12.859  0.3477  0.0510 -0.1114
 1309DOPC   C1A15358  20.933   1.929  12.434  0.0302 -0.0850  0.0872
 1309DOPC   D2A15359  20.855   1.952  11.996  0.0253  0.0392  0.1660
 1309DOPC   C3A15360  20.409   2.080  12.017 -0.1395  0.0275 -0.0656
 1309DOPC   C4A15361  20.083   2.118  12.393 -0.3599  0.3846 -0.2392
 1309DOPC   C1B15362  21.315   2.240  12.395 -0.0808 -0.2087 -0.1899
 1309DOPC   D2B15363  21.235   2.223  11.970 -0.4259  0.0532  0.0938
 1309DOPC   C3B15364  21.380   2.016  11.573  0.0485  0.0746 -0.0725
 1309DOPC   C4B15365  21.652   1.977  11.202  0.0449  0.0003 -0.1039
 1310POSM   NC315366  14.130   0.017  15.152 -0.0982  0.2615  0.2633
 1310POSM   PO415367  13.796   0.038  14.933  0.1101 -0.2307  0.2247
 1310POSM   AM115368  13.754   0.124  14.611 -0.0043  0.0820 -0.2929
 1310POSM   AM215369  13.889   0.049  14.368  0.0405  0.1407  0.1926
 1310POSM   T1A15370  13.692   0.444  14.212 -0.1841  0.2622  0.0896
 1310POSM   C2A15371  13.770   0.727  13.870  0.3234  0.0712  0.1264
 1310POSM   C3A15372  13.934   0.837  13.470 -0.0495  0.1375  0.3008
 1310POSM   C1B15373  13.707  -0.198  14.224 -0.6139  0.4457 -0.4509
 1310POSM   D2B15374  13.566  -0.417  13.878  0.1755  0.0407 -0.2014
 1310POSM   C3B15375  13.618  -0.353  13.472  0.1078  0.0167  0.2834
 1310POSM   C4B15376  13.694  -0.325  13.028  0.0890 -0.1628 -0.2160
 1311POSM   NC315377  12.830   7.604  15.444  0.1005 -0.0210  0.0599
 1311POSM   PO415378  12.499   7.630  15.310 -0.0437 -0.1702  0.0601
 1311POSM   AM115379  12.623   7.719  14.992 -0.0661  0.1924 -0.0893
 1311POSM   AM215380  12.809   7.528  14.895  0.1391  0.0933 -0.2732
 1311POSM   T1A15381  12.576   8.057  14.604 -0.3607  0.0484 -0.0591
 1311POSM   C2A15382  12.700   8.353  14.293  0.5274  0.2183  0.0044
 1311POSM   C3A15383  12.670   8.365  13.828  0.0801  0.2131 -0.0637
 1311POSM   C1B15384  12.672   7.410  14.631  0.0044  0.0008  0.1806
 1311POSM   D2B15385  12.551   7.128  14.252 -0.3811 -0.0600 -0.0820
 1311POSM   C3B15386  12.811   7.056  13.884 -0.1209 -0.0859 -0.0026
 1311POSM   C4B15387  13.060   7.155  13.500 -0.0241 -0.0404 -0.2660
 1312DOPS   CNO15388  19.972   7.754  13.332 -0.2807  0.2099  0.0602
 1312DOPS   PO415389  20.060   8.067  13.151 -0.0722  0.2350 -0.3176
 1312DOPS   GL115390  19.968   7.983  12.869 -0.1016 -0.2416  0.0685
 1312DOPS   GL215391  20.266   8.105  12.663  0.0588 -0.2032 -0.0857
 1312DOPS   C1A15392  19.662   8.104  12.588  0.1818 -0.0006  0.2764
 1312DOPS   D2A15393  19.333   8.170  12.209 -0.1290  0.2232  0.1851
 1312DOPS   C3A15394  19.284   8.293  11.749  0.2453  0.0470  0.2193
 1312DOPS   C4A15395  19.246   8.037  11.372  0.0591  0.0487  0.2178
 1312DOPS   C1B15396  20.062   8.473  12.497  0.0007  0.2312 -0.1040
 1312DOPS   D2B15397  19.675   8.564  12.251 -0.2951  0.0525 -0.2094
 1312DOPS   C3B15398  19.509   8.806  11.871 -0.1085 -0.0464 -0.1643
 1312DOPS   C4B15399  19.252   9.099  11.706 -0.1527  0.0925  0.3329
 1313DOPC   NC315400  18.787   4.265  13.552  0.0596  0.0221 -0.2396
 1313DOPC   PO415401  18.397   4.424  13.595  0.0037 -0.1003 -0.1943
 1313DOPC   GL115402  18.117   4.525  13.304 -0.2004 -0.1119 -0.2300
 1313DOPC   GL215403  17.944   4.368  13.523  0.1621  0.0581 -0.0135
 1313DOPC   C1A15404  18.156   4.876  12.974 -0.1424 -0.1689  0.1444
 1313DOPC   D2A15405  17.808   4.918  12.639  0.0155 -0.2825  0.2295
 1313DOPC   C3A15406  17.486   5.273  12.584 -0.0723  0.1523  0.0048
 1313DOPC   C4A15407  17.214   5.489  12.923  0.0938  0.1104  0.0507
 1313DOPC   C1B15408  17.863   4.097  13.147  0.1613  0.0645  0.0626
 1313DOPC   D2B15409  17.754   3.853  12.802 -0.0452 -0.0344 -0.1821
 1313DOPC   C3B15410  17.974   3.584  12.545 -0.1795  0.0116 -0.1976
 1313DOPC   C4B15411  17.813   3.288  12.264  0.0793 -0.1132  0.3594
 1314DOPE   NH315412  17.310   6.562  14.468  0.0692  0.2450 -0.2999
 1314DOPE   PO415413  17.533   6.453  14.283  0.0590 -0.2887 -0.2666
 1314DOPE   GL115414  17.515   6.565  13.956 -0.3628 -0.0974  0.0015
 1314DOPE   GL215415  17.305   6.449  13.763 -0.2094 -0.1936  0.1135
 1314DOPE   C1A15416  17.717   6.559  13.550  0.0118  0.1516 -0.0511
 1314DOPE   D2A15417  17.724   6.443  13.106 -0.2241  0.2009  0.3298
 1314DOPE   C3A15418  17.778   6.860  12.937 -0.0678  0.2570  0.0072
 1314DOPE   C4A15419  17.798   7.284  12.878 -0.4177  0.0208 -0.1488
 1314DOPE   C1B15420  17.276   6.481  13.302  0.0572  0.2265 -0.0408
 1314DOPE   D2B15421  16.946   6.562  12.994  0.2625  0.0239 -0.3935
 1314DOPE   C3B15422  16.991   6.416  12.526  0.0540 -0.0509 -0.0099
 1314DOPE   C4B15423  16.889   6.301  12.044 -0.1330 -0.0612  0.1643
 1315DOPE   NH315424  15.410  33.990  14.415 -0.1041  0.1272 -0.0543
 1315DOPE   PO415425  15.490  34.261  14.295  0.2961  0.0549 -0.2973
 1315DOPE   GL115426  15.674  34.335  13.921  0.0135 -0.1449 -0.2409
 1315DOPE   GL215427  15.374  34.325  13.787  0.2301  0.1539  0.2529
 1315DOPE   C1A15428  15.677  34.678  13.608  0.0545  0.2785 -0.3718
 1315DOPE   D2A15429  15.449  34.784  13.187 -0.0060  0.0880 -0.0354
 1315DOPE   C3A15430  15.143  34.907  12.865 -0.2491 -0.1245 -0.2122
 1315DOPE   C4A15431  14.950  34.927  12.452 -0.2379 -0.1382 -0.0840
 1315DOPE   C1B15432  15.270  34.386  13.326  0.3028 -0.0794 -0.3203
 1315DOPE   D2B15433  15.354  34.400  12.849 -0.4807 -0.1339  0.0294
 1315DOPE   C3B15434  15.142  34.027  12.738  0.0300 -0.1898 -0.1044
 1315DOPE   C4B15435  15.023  33.668  12.491 -0.1495  0.0809  0.1776
 1316DOPC   NC315436  18.936   4.994  13.834  0.2971 -0.0554 -0.2662
 1316DOPC   PO415437  18.773   4.762  13.598 -0.2452  0.1787 -0.0122
 1316DOPC   GL115438  18.776   4.751  13.203  0.2199 -0.2164  0.1440
 1316DOPC   GL215439  18.614   4.571  13.114 -0.1950  0.2176 -0.0739
 1316DOPC   C1A15440  18.733   4.990  12.849 -0.0860 -0.4865  0.1107
 1316DOPC   D2A15441  18.349   5.213  12.603  0.0750  0.0008  0.2813
 1316DOPC   C3A15442  18.201   5.002  12.222 -0.1071 -0.0196  0.0379
 1316DOPC   C4A15443  18.062   4.587  12.142  0.4820 -0.0583 -0.1504
 1316DOPC   C1B15444  18.212   4.428  12.849  0.6293  0.1714  0.0216
 1316DOPC   D2B15445  17.814   4.382  12.745  0.2883 -0.0374 -0.2392
 1316DOPC   C3B15446  17.639   4.259  12.283  0.0302 -0.0783  0.2307
 1316DOPC   C4B15447  17.355   4.374  11.965 -0.0906 -0.0770 -0.1537
 1317POSM   NC315448  22.450   5.539  14.055 -0.0128  0.0383  0.1817
 1317POSM   PO415449  22.195   5.366  13.775  0.0977  0.0091 -0.2517
 1317POSM   AM115450  22.105   5.533  13.521 -0.0062 -0.1154  0.1560
 1317POSM   AM215451  22.255   5.724  13.352  0.1698 -0.1703 -0.1140
 1317POSM   T1A15452  21.935   5.544  13.055 -0.0952  0.1163  0.2960
 1317POSM   C2A15453  21.921   5.447  12.598 -0.1414  0.1110  0.2141
 1317POSM   C3A15454  21.681   5.752  12.316 -0.1526  0.0478 -0.1565
 1317POSM   C1B15455  22.213   5.940  13.100  0.0033  0.0586  0.2182
 1317POSM   D2B15456  22.099   6.346  13.006 -0.0051  0.0377 -0.0614
 1317POSM   C3B15457  22.200   6.534  12.615 -0.3464  0.0421 -0.0900
 1317POSM   C4B15458  22.271   6.529  12.125 -0.2572 -0.1687 -0.0469
 1318POSM   NC315459  16.062   9.758  14.460 -0.0086  0.1960  0.1847
 1318POSM   PO415460  15.944  10.099  14.265 -0.1080  0.0680  0.0342
 1318POSM   AM115461  15.968  10.089  13.940  0.0187 -0.3779  0.1770
 1318POSM   AM215462  16.122  10.267  13.750 -0.1973 -0.2875 -0.1125
 1318POSM   T1A15463  16.017   9.861  13.490 -0.0703  0.1390 -0.1300
 1318POSM   C2A15464  16.198   9.783  13.094 -0.3182 -0.0239 -0.0875
 1318POSM   C3A15465  16.257   9.602  12.653  0.3931  0.1144  0.1915
 1318POSM   C1B15466  16.129  10.401  13.409 -0.0941 -0.0756  0.3228
 1318POSM   D2B15467  16.083  10.440  12.953  0.0998 -0.1236  0.0400
 1318POSM   C3B15468  15.986  10.040  12.706  0.0171  0.1061  0.2801
 1318POSM   C4B15469  15.996   9.748  12.287 -0.2470 -0.6041  0.1539
 1319DOPC   NC315470  23.363  10.034  13.774  0.2187  0.0496  0.2521
 1319DOPC   PO415471  23.031  10.212  13.623  0.0724  0.1854 -0.1919
 1319DOPC   GL115472  22.858  10.186  13.325  0.1911  0.0460  0.0714
 1319DOPC   GL215473  23.087  10.335  13.124 -0.1256  0.0467  0.2474
 1319DOPC   C1A15474  22.619  10.228  12.931  0.0911  0.3574  0.1563
 1319DOPC   D2A15475  22.426  10.346  12.492  0.0428  0.3374  0.0701
 1319DOPC   C3A15476  22.471  10.500  12.032  0.1192  0.1585  0.2481
 1319DOPC   C4A15477  22.285  10.496  11.536  0.0610  0.0623 -0.0127
 1319DOPC   C1B15478  23.106  10.334  12.666  0.1491  0.0947 -0.1254
 1319DOPC   D2B15479  23.519  10.206  12.478 -0.0622  0.0279 -0.4029
 1319DOPC   C3B15480  23.552   9.784  12.337 -0.2357  0.3170  0.0519
 1319DOPC   C4B15481  23.279   9.403  12.371 -0.1231 -0.2573 -0.0257
 1320DOPS   CNO15482  19.407   5.288  14.098  0.3010  0.0415 -0.0978
 1320DOPS   PO415483  19.044   5.457  14.028  0.1385  0.0876  0.1648
 1320DOPS   GL115484  19.140   5.410  13.615  0.0422  0.1254  0.1245
 1320DOPS   GL215485  19.046   5.168  13.389  0.0152 -0.0260  0.0793
 1320DOPS   C1A15486  19.344   5.587  13.221  0.1705 -0.0706 -0.0147
 1320DOPS   D2A15487  19.588   5.670  12.821 -0.1543  0.1464  0.1924
 1320DOPS   C3A15488  19.333   5.554  12.430  0.2316  0.1688  0.2795
 1320DOPS   C4A15489  19.058   5.587  12.064  0.1824  0.3809 -0.2802
 1320DOPS   C1B15490  19.148   5.224  12.977  0.0572  0.2539  0.0127
 1320DOPS   D2B15491  19.440   5.084  12.684  0.0148  0.1788  0.1144
 1320DOPS   C3B15492  19.377   5.008  12.256 -0.0370  0.0135  0.1150
 1320DOPS   C4B15493  19.385   5.241  11.893  0.1066 -0.0740  0.0557
 1321DOPE   NH315494  20.238   4.386  13.513 -0.0256 -0.0176  0.0056
 1321DOPE   PO415495  20.415   4.165  13.424 -0.2991 -0.0467 -0.2019
 1321DOPE   GL115496  20.583   4.312  13.099  0.0163 -0.0270  0.1500
 1321DOPE   GL215497  20.526   4.091  12.952 -0.0207 -0.2325  0.5574
 1321DOPE   C1A15498  20.449   4.653  12.818 -0.0291 -0.1960 -0.1842
 1321DOPE   D2A15499  20.262   4.950  12.474 -0.0780  0.1161 -0.4154
 1321DOPE   C3A15500  20.416   4.886  12.041  0.1389  0.1940  0.0538
 1321DOPE   C4A15501  20.533   4.534  11.808 -0.1286 -0.1465 -0.1413
 1321DOPE   C1B15502  20.298   4.239  12.565  0.1556 -0.1933  0.0504
 1321DOPE   D2B15503  20.045   4.538  12.338  0.3494 -0.2639 -0.0318
 1321DOPE   C3B15504  20.118   4.335  11.921 -0.0979 -0.1472 -0.1992
 1321DOPE   C4B15505  20.231   4.169  11.496 -0.0525 -0.0868  0.3165
 1322DOPS   CNO15506  20.773   9.791  13.476 -0.0772  0.4474 -0.3776
 1322DOPS   PO415507  21.015  10.063  13.355  0.3262  0.0147  0.3859
 1322DOPS   GL115508  20.968   9.993  13.021  0.1935 -0.3077 -0.1699
 1322DOPS   GL215509  20.731   9.897  12.846  0.0714 -0.1080  0.2301
 1322DOPS   C1A15510  20.971  10.280  12.602  0.1348 -0.1421 -0.0659
 1322DOPS   D2A15511  21.132  10.508  12.249 -0.1359  0.1311  0.1316
 1322DOPS   C3A15512  21.044  10.695  11.845  0.0321 -0.2719  0.3986
 1322DOPS   C4A15513  20.970  11.133  11.640  0.0428 -0.1109  0.3940
 1322DOPS   C1B15514  20.675   9.759  12.408 -0.0975  0.0196 -0.2067
 1322DOPS   D2B15515  20.405   9.841  12.108 -0.0299  0.1218  0.0617
 1322DOPS   C3B15516  20.001   9.967  12.203  0.3082  0.2741  0.3956
 1322DOPS   C4B15517  20.047  10.382  11.970 -0.0410 -0.0647 -0.1705
 1323DOPS   CNO15518  12.282   0.897  14.925 -0.1217  0.3200 -0.1148
 1323DOPS   PO415519  12.158   0.696  14.652  0.0799  0.1582  0.1471
 1323DOPS   GL115520  11.873   0.624  14.308  0.3426  0.1635 -0.0235
 1323DOPS   GL215521  11.598   0.524  14.275 -0.1303 -0.2046 -0.2412
 1323DOPS   C1A15522  11.842   0.590  13.840  0.2064 -0.1926 -0.1741
 1323DOPS   D2A15523  11.787   0.477  13.408  0.0571 -0.0094  0.2027
 1323DOPS   C3A15524  11.460   0.469  13.109  0.0446  0.4395  0.0683
 1323DOPS   C4A15525  11.180   0.761  12.867 -0.1433  0.1853  0.1335
 1323DOPS   C1B15526  11.822   0.158  14.113 -0.0162  0.0253  0.2041
 1323DOPS   D2B15527  11.791  -0.177  13.817 -0.0917 -0.1735 -0.0546
 1323DOPS   C3B15528  12.032   0.048  13.477 -0.2889  0.1101 -0.1842
 1323DOPS   C4B15529  12.230  -0.068  13.111  0.3636 -0.1274  0.0793
 1324POSM   NC315530  18.804   8.184  13.445  0.0037  0.1812 -0.0779
 1324POSM   PO415531  19.036   8.522  13.535  0.2327  0.2384 -0.0485
 1324POSM   AM115532  18.986   8.548  13.210  0.2380 -0.3655  0.2466
 1324POSM   AM215533  18.936   8.358  12.996 -0.2136 -0.2685  0.3139
 1324POSM   T1A15534  19.152   8.851  12.863  0.2376 -0.4821  0.2332
 1324POSM   C2A15535  18.988   9.189  12.646  0.0661 -0.0037  0.1570
 1324POSM   C3A15536  18.827   9.553  12.506  0.0837 -0.2818 -0.1474
 1324POSM   C1B15537  18.785   8.351  12.733  0.1098  0.2680  0.0239
 1324POSM   D2B15538  18.775   8.320  12.249  0.3968  0.4580  0.0233
 1324POSM   C3B15539  18.338   8.192  12.051 -0.0487 -0.0078 -0.4322
 1324POSM   C4B15540  17.970   8.448  11.978 -0.4343  0.0959  0.0338
 1325POSM   NC315541  22.308   3.846  13.300  0.0037 -0.0346 -0.3098
 1325POSM   PO415542  22.347   4.191  13.205 -0.0101  0.1141 -0.0074
 1325POSM   AM115543  22.264   4.275  12.886 -0.1911 -0.0287 -0.1810
 1325POSM   AM215544  21.969   4.380  12.820  0.0789  0.1967  0.1142
 1325POSM   T1A15545  22.357   4.356  12.370  0.2409  0.0058 -0.3002
 1325POSM   C2A15546  22.469   4.668  12.023 -0.2057  0.0593 -0.0550
 1325POSM   C3A15547  22.467   4.782  11.602  0.4401 -0.1091  0.1264
 1325POSM   C1B15548  21.817   4.364  12.542 -0.0399 -0.2405  0.0145
 1325POSM   D2B15549  21.937   4.410  12.075  0.1033 -0.0582 -0.2404
 1325POSM   C3B15550  22.035   4.768  11.828 -0.0605 -0.1532  0.1440
 1325POSM   C4B15551  21.811   5.122  11.554  0.2685  0.1967  0.1264
 1326DOPC   NC315552  14.293  33.824  14.348  0.0656  0.0231  0.1126
 1326DOPC   PO415553  13.928  33.821  14.520  0.4523  0.0876  0.2331
 1326DOPC   GL115554  13.729  34.026  14.170 -0.2354  0.0543  0.0248
 1326DOPC   GL215555  14.005  34.181  14.117  0.1263  0.1201 -0.2936
 1326DOPC   C1A15556  13.591  33.934  13.712 -0.1038  0.0740 -0.0140
 1326DOPC   D2A15557  13.445  33.756  13.313  0.1231 -0.2487 -0.0530
 1326DOPC   C3A15558  13.678  33.952  12.953 -0.0465  0.2608  0.2375
 1326DOPC   C4A15559  13.990  34.011  12.658 -0.2172 -0.1712 -0.2296
 1326DOPC   C1B15560  14.116  33.846  13.846  0.1847 -0.0056 -0.3466
 1326DOPC   D2B15561  14.267  33.442  13.632  0.0394 -0.0520  0.1710
 1326DOPC   C3B15562  14.531  33.298  13.203  0.1181  0.0762 -0.1050
 1326DOPC   C4B15563  14.840  33.619  13.027 -0.0382  0.1560  0.1166
 1327POSM   NC315564  19.607  11.603  13.895 -0.1190 -0.1857 -0.1868
 1327POSM   PO415565  19.349  11.373  13.643  0.0728  0.2101  0.0289
 1327POSM   AM115566  19.441  11.164  13.351 -0.1253 -0.3850  0.1770
 1327POSM   AM215567  19.639  11.017  13.230 -0.2081  0.0069 -0.0159
 1327POSM   T1A15568  19.157  10.951  12.966  0.0991 -0.0741 -0.0303
 1327POSM   C2A15569  19.065  11.101  12.503  0.1636 -0.1061  0.2319
 1327POSM   C3A15570  19.060  11.043  12.061  0.0662  0.0866 -0.0883
 1327POSM   C1B15571  19.784  11.116  12.931 -0.2611  0.0024 -0.0926
 1327POSM   D2B15572  19.958  11.421  12.625  0.0877  0.1520 -0.0010
 1327POSM   C3B15573  19.923  11.608  12.173  0.1436 -0.1618 -0.0479
 1327POSM   C4B15574  19.904  11.557  11.721 -0.3575 -0.1274 -0.0917
 1328DOPC   NC315575  17.758   5.229  13.878  0.2885 -0.1693 -0.1220
 1328DOPC   PO415576  18.172   5.248  13.898  0.2435 -0.0197 -0.2387
 1328DOPC   GL115577  18.145   5.494  13.634  0.1518  0.2002  0.3110
 1328DOPC   GL215578  17.968   5.771  13.691  0.0361 -0.0881  0.0876
 1328DOPC   C1A15579  18.204   5.321  13.179  0.0809  0.1082 -0.1189
 1328DOPC   D2A15580  18.000   5.503  12.856 -0.0357 -0.0828 -0.0321
 1328DOPC   C3A15581  17.948   5.457  12.427  0.2619  0.0875 -0.2582
 1328DOPC   C4A15582  17.782   5.273  12.040  0.2740 -0.4074  0.1785
 1328DOPC   C1B15583  18.146   5.845  13.285  0.0720 -0.1834 -0.2716
 1328DOPC   D2B15584  18.415   5.756  12.919  0.2117 -0.3271 -0.0682
 1328DOPC   C3B15585  18.277   5.855  12.474 -0.0500 -0.1886 -0.1112
 1328DOPC   C4B15586  18.448   5.985  12.068  0.3440 -0.2460  0.1755
 1329POSM   NC315587  17.692   8.106  14.325 -0.2780  0.0091 -0.1007
 1329POSM   PO415588  17.849   7.781  14.133  0.2213  0.2238  0.0975
 1329POSM   AM115589  17.650   7.782  13.904 -0.3171 -0.1031 -0.0577
 1329POSM   AM215590  17.390   7.875  13.924  0.2079 -0.0758 -0.0103
 1329POSM   T1A15591  17.589   7.623  13.451 -0.0575  0.0927 -0.3247
 1329POSM   C2A15592  17.394   7.558  13.002  0.2082 -0.0375  0.1133
 1329POSM   C3A15593  17.048   7.290  12.790 -0.0524 -0.0366 -0.0248
 1329POSM   C1B15594  17.069   7.778  13.768  0.3151 -0.2346  0.2549
 1329POSM   D2B15595  16.632   7.785  13.504  0.1484  0.1149 -0.2944
 1329POSM   C3B15596  16.232   7.661  13.663  0.3382 -0.1080 -0.1571
 1329POSM   C4B15597  15.876   7.339  13.665  0.0982 -0.2035  0.2356
 1330POSM   NC315598  19.974   0.600  13.893 -0.1372 -0.1318  0.1218
 1330POSM   PO415599  20.219   0.852  13.678  0.1464 -0.1568 -0.0500
 1330POSM   AM115600  20.072   0.642  13.444  0.1949 -0.2957  0.0971
 1330POSM   AM215601  19.953   0.383  13.437  0.0986 -0.0157  0.1028
 1330POSM   T1A15602  19.824   0.661  12.991 -0.2616  0.0146 -0.2627
 1330POSM   C2A15603  19.802   0.716  12.527 -0.3716  0.0801 -0.1299
 1330POSM   C3A15604  19.930   0.659  12.099  0.1809  0.3510  0.2579
 1330POSM   C1B15605  19.984   0.156  13.147 -0.0609 -0.1296 -0.2161
 1330POSM   D2B15606  19.898  -0.245  12.869 -0.0287 -0.0558  0.0668
 1330POSM   C3B15607  19.942  -0.363  12.390 -0.1180 -0.0705 -0.0112
 1330POSM   C4B15608  19.669  -0.372  12.028  0.2260  0.0621  0.1213
 1331DOPC   NC315609  11.387   2.691  14.865 -0.1440 -0.0592 -0.3738
 1331DOPC   PO415610  11.574   2.991  15.024  0.1785 -0.0436 -0.2196
 1331DOPC   GL115611  11.502   3.057  14.602  0.0974 -0.1212  0.0452
 1331DOPC   GL215612  11.178   2.985  14.524 -0.4390 -0.0903  0.0039
 1331DOPC   C1A15613  11.560   3.278  14.160 -0.1494  0.0483 -0.2201
 1331DOPC   D2A15614  11.408   3.282  13.703  0.0700 -0.4217  0.2003
 1331DOPC   C3A15615  10.985   3.156  13.564  0.0181 -0.0683  0.2360
 1331DOPC   C4A15616  10.759   3.315  13.203  0.1306  0.1521  0.0892
 1331DOPC   C1B15617  11.413   2.786  14.201  0.1714  0.1209  0.3414
 1331DOPC   D2B15618  11.519   2.790  13.713  0.2338 -0.0549  0.2750
 1331DOPC   C3B15619  11.711   2.610  13.346  0.2201 -0.2688  0.1328
 1331DOPC   C4B15620  12.033   2.327  13.185  0.0661  0.0598  0.0531
 1332DOPE   NH315621  14.428   0.742  14.472 -0.1862 -0.0617  0.0030
 1332DOPE   PO415622  14.363   0.973  14.639 -0.1218  0.1402 -0.0966
 1332DOPE   GL115623  14.243   1.240  14.277 -0.1562 -0.3126  0.2820
 1332DOPE   GL215624  14.474   1.310  14.147  0.0928  0.0513 -0.0201
 1332DOPE   C1A15625  14.060   1.249  13.839 -0.1982 -0.0955 -0.2264
 1332DOPE   D2A15626  14.000   1.335  13.369 -0.0257 -0.0827 -0.1960
 1332DOPE   C3A15627  14.393   1.343  13.146 -0.0542  0.0290  0.0118
 1332DOPE   C4A15628  14.656   1.538  12.813 -0.0952  0.0600  0.2027
 1332DOPE   C1B15629  14.288   1.695  14.076  0.0777 -0.2861  0.1586
 1332DOPE   D2B15630  14.382   2.078  13.957 -0.1391 -0.3203  0.1529
 1332DOPE   C3B15631  14.187   2.107  13.561 -0.3072 -0.0355 -0.0929
 1332DOPE   C4B15632  14.198   1.826  13.188  0.1403 -0.1893 -0.0619
 1333DOPC   NC315633  14.499   5.038  15.282 -0.1867  0.0566  0.0571
 1333DOPC   PO415634  14.500   4.644  15.135  0.2175  0.7225  0.1418
 1333DOPC   GL115635  14.289   4.833  14.793  0.4182 -0.1644  0.0778
 1333DOPC   GL215636  14.407   5.083  14.793  0.0775 -0.1191  0.0733
 1333DOPC   C1A15637  14.299   4.731  14.375  0.2494  0.3601  0.4164
 1333DOPC   D2A15638  14.323   4.949  13.939  0.5502 -0.0709 -0.1241
 1333DOPC   C3A15639  14.504   4.657  13.560  0.1570  0.2013 -0.1342
 1333DOPC   C4A15640  14.584   4.577  13.121 -0.1432  0.1825  0.1119
 1333DOPC   C1B15641  14.419   5.320  14.402 -0.1399 -0.1413 -0.1125
 1333DOPC   D2B15642  14.171   5.430  14.035 -0.2969 -0.0323  0.0958
 1333DOPC   C3B15643  14.266   5.681  13.670 -0.1808  0.1223 -0.0030
 1333DOPC   C4B15644  14.558   5.863  13.340  0.0909  0.1232 -0.1467
 1334POSM   NC315645  22.000   7.970  13.429  0.0580  0.1194  0.1906
 1334POSM   PO415646  22.246   7.706  13.469 -0.0223  0.2814 -0.1234
 1334POSM   AM115647  22.294   7.656  13.143 -0.1822  0.0436 -0.3355
 1334POSM   AM215648  22.493   7.516  13.024  0.0373  0.4435 -0.2173
 1334POSM   T1A15649  22.449   7.894  12.743  0.1169 -0.1152  0.0472
 1334POSM   C2A15650  22.819   8.072  12.461  0.1853  0.4595  0.0647
 1334POSM   C3A15651  23.052   8.467  12.520  0.3104  0.1371 -0.1681
 1334POSM   C1B15652  22.389   7.378  12.752 -0.0682 -0.3811 -0.1661
 1334POSM   D2B15653  22.019   7.220  12.594  0.2859  0.1153  0.1482
 1334POSM   C3B15654  21.776   6.852  12.350 -0.0342  0.0275 -0.1644
 1334POSM   C4B15655  21.386   6.608  12.375  0.3299 -0.1835  0.0403
 1335POSM   NC315656  13.681   8.570  14.865 -0.0155  0.2493 -0.2646
 1335POSM   PO415657  13.372   8.689  15.087  0.1799 -0.0319  0.2832
 1335POSM   AM115658  13.171   8.777  14.853 -0.1383 -0.2229 -0.5458
 1335POSM   AM215659  13.267   8.737  14.576  0.2343  0.2521  0.0910
 1335POSM   T1A15660  12.791   8.851  14.565  0.1186  0.1696 -0.3539
 1335POSM   C2A15661  12.706   8.853  14.101 -0.3259  0.0551 -0.2189
 1335POSM   C3A15662  12.757   8.854  13.646  0.1291 -0.2402 -0.0124
 1335POSM   C1B15663  13.537   8.730  14.387 -0.1569  0.0622  0.0560
 1335POSM   D2B15664  13.922   8.659  14.144  0.2420  0.1379 -0.1573
 1335POSM   C3B15665  14.134   8.540  13.774 -0.4020  0.2782  0.1360
 1335POSM   C4B15666  14.341   8.867  13.459  0.0314 -0.1373  0.0346
 1336POSM   NC315667  15.328   7.268  15.166 -0.0912  0.0323 -0.1966
 1336POSM   PO415668  15.167   7.657  15.140  0.1009  0.1285 -0.2735
 1336POSM   AM115669  15.093   7.510  14.845 -0.3028 -0.2191 -0.1119
 1336POSM   AM215670  15.192   7.636  14.593  0.0991 -0.2870  0.1790
 1336POSM   T1A15671  14.697   7.360  14.529 -0.1307 -0.1481 -0.1397
 1336POSM   C2A15672  14.639   6.942  14.306 -0.1302  0.0555 -0.1433
 1336POSM   C3A15673  14.912   6.647  14.007  0.1441  0.2018  0.1111
 1336POSM   C1B15674  15.050   7.585  14.296 -0.2268  0.1262  0.0526
 1336POSM   D2B15675  14.666   7.459  14.037  0.0344 -0.0038 -0.0308
 1336POSM   C3B15676  14.523   7.560  13.570  0.0296 -0.0392 -0.3055
 1336POSM   C4B15677  14.621   7.597  13.133  0.1222  0.1149  0.0514
 1337POSM   NC315678  15.289  11.860  14.378 -0.0039  0.0904  0.2796
 1337POSM   PO415679  15.053  11.992  14.133 -0.0524  0.1119  0.0106
 1337POSM   AM115680  14.967  11.934  13.799  0.2502 -0.1409 -0.0082
 1337POSM   AM215681  15.040  11.741  13.623  0.1582 -0.1246  0.0613
 1337POSM   T1A15682  14.532  11.958  13.536 -0.3032 -0.0594  0.2206
 1337POSM   C2A15683  14.276  11.767  13.176 -0.0056  0.0224 -0.5792
 1337POSM   C3A15684  14.272  11.465  12.825  0.0688  0.0829 -0.0227
 1337POSM   C1B15685  14.967  11.593  13.330 -0.0127  0.0579 -0.0584
 1337POSM   D2B15686  15.082  11.316  12.963 -0.1309  0.3743 -0.0050
 1337POSM   C3B15687  14.753  11.341  12.656 -0.1557 -0.2062  0.0482
 1337POSM   C4B15688  14.678  11.361  12.205 -0.3367 -0.1783 -0.0500
 1338DOPC   NC315689  22.807   7.504  13.404 -0.0635 -0.0175 -0.1227
 1338DOPC   PO415690  22.989   7.817  13.618  0.0222  0.2730 -0.0692
 1338DOPC   GL115691  22.939   8.046  13.302  0.3913  0.1059 -0.2704
 1338DOPC   GL215692  22.764   7.975  13.139 -0.1781 -0.2130 -0.1764
 1338DOPC   C1A15693  23.156   8.158  12.937 -0.0971 -0.1807 -0.0940
 1338DOPC   D2A15694  23.534   8.119  12.726 -0.1034  0.3667 -0.1948
 1338DOPC   C3A15695  23.598   8.546  12.530 -0.1638  0.2772 -0.3525
 1338DOPC   C4A15696  23.576   8.698  12.150 -0.2971 -0.0225 -0.1389
 1338DOPC   C1B15697  22.641   8.308  12.856 -0.2815 -0.3168 -0.1073
 1338DOPC   D2B15698  22.577   8.574  12.443  0.1932  0.0627  0.0837
 1338DOPC   C3B15699  22.574   8.287  12.050 -0.3676 -0.2947  0.1761
 1338DOPC   C4B15700  22.788   7.887  11.980  0.0672 -0.0448 -0.0165
 1339POSM   NC315701  24.824   7.091  13.495 -0.1632 -0.1980 -0.1966
 1339POSM   PO415702  25.148   7.241  13.622  0.2241  0.3376 -0.2721
 1339POSM   AM115703  25.204   7.433  13.350  0.0978 -0.0959 -0.3512
 1339POSM   AM215704  25.171   7.720  13.231  0.2129 -0.1950  0.0072
 1339POSM   T1A15705  25.379   7.472  12.879  0.0036  0.0497 -0.4020
 1339POSM   C2A15706  25.160   7.701  12.591  0.3917  0.1991  0.2676
 1339POSM   C3A15707  25.168   7.602  12.084 -0.0167  0.2718 -0.0803
 1339POSM   C1B15708  25.154   7.952  12.985 -0.1367 -0.0158 -0.2399
 1339POSM   D2B15709  25.116   8.300  12.744 -0.0426 -0.0125 -0.2280
 1339POSM   C3B15710  25.453   8.539  12.578  0.0016 -0.1390 -0.2098
 1339POSM   C4B15711  25.809   8.836  12.630  0.1692  0.0094  0.2655
 1340DOPS   CNO15712  14.865   6.957  15.320 -0.1383 -0.0222  0.0721
 1340DOPS   PO415713  15.196   6.794  15.203  0.1567 -0.2359 -0.0320
 1340DOPS   GL115714  15.396   6.899  14.846 -0.3002 -0.0780  0.2172
 1340DOPS   GL215715  15.647   6.854  14.837 -0.1112  0.1851  0.3310
 1340DOPS   C1A15716  15.207   7.146  14.468  0.1535 -0.1737 -0.1300
 1340DOPS   D2A15717  15.046   7.162  13.993  0.2840 -0.1709 -0.1034
 1340DOPS   C3A15718  15.360   7.205  13.716  0.0108  0.3787 -0.1113
 1340DOPS   C4A15719  15.514   7.282  13.323 -0.3648 -0.2376  0.1655
 1340DOPS   C1B15720  15.676   7.149  14.522 -0.1749  0.0275 -0.0125
 1340DOPS   D2B15721  15.968   7.305  14.188 -0.1670 -0.2670 -0.2736
 1340DOPS   C3B15722  16.239   6.969  13.946  0.2493  0.0569  0.0634
 1340DOPS   C4B15723  16.567   6.788  13.658  0.2032 -0.3878  0.0098
 1341DOPS   CNO15724  14.231   7.685  15.246 -0.0080  0.2442  0.0286
 1341DOPS   PO415725  14.277   7.433  14.973 -0.0404 -0.0188  0.1250
 1341DOPS   GL115726  14.121   7.575  14.621 -0.1276  0.1116  0.0785
 1341DOPS   GL215727  13.993   7.863  14.625  0.1858 -0.0044 -0.0277
 1341DOPS   C1A15728  14.228   7.400  14.195  0.2174  0.0048  0.5122
 1341DOPS   D2A15729  14.375   7.131  13.870  0.0034 -0.0307  0.2354
 1341DOPS   C3A15730  14.735   7.115  13.627 -0.1589  0.0002 -0.0826
 1341DOPS   C4A15731  15.098   6.835  13.505  0.1082 -0.0562 -0.1518
 1341DOPS   C1B15732  13.810   7.710  14.204 -0.1102  0.2874  0.0393
 1341DOPS   D2B15733  13.977   7.552  13.754  0.3704  0.0294 -0.0313
 1341DOPS   C3B15734  14.054   7.634  13.301  0.0146 -0.0603  0.2541
 1341DOPS   C4B15735  14.043   7.695  12.859  0.1275 -0.1924 -0.2050
 1342DOPS   CNO15736  19.024   6.836  13.469  0.0177  0.1161 -0.1794
 1342DOPS   PO415737  19.118   7.141  13.249  0.1506  0.3004  0.2021
 1342DOPS   GL115738  18.967   7.142  12.870  0.3262  0.2962  0.0059
 1342DOPS   GL215739  18.777   7.295  12.772  0.0587 -0.0886  0.4483
 1342DOPS   C1A15740  18.792   6.776  12.560 -0.0108 -0.0148 -0.1621
 1342DOPS   D2A15741  18.715   6.417  12.208  0.0694  0.2259 -0.1137
 1342DOPS   C3A15742  19.041   6.102  12.057  0.0747  0.0284  0.1801
 1342DOPS   C4A15743  19.423   5.980  11.973 -0.2956 -0.0100  0.0802
 1342DOPS   C1B15744  18.518   7.257  12.374 -0.4346 -0.0842 -0.0541
 1342DOPS   D2B15745  18.456   6.858  12.108  0.1213 -0.0103 -0.0969
 1342DOPS   C3B15746  18.124   6.769  11.835 -0.0908 -0.1447 -0.1684
 1342DOPS   C4B15747  17.728   6.912  11.876 -0.0427 -0.0076 -0.0342
 1343POSM   NC315748  18.096   4.233  14.025 -0.1599 -0.0616 -0.1873
 1343POSM   PO415749  17.838   4.175  14.310 -0.0945  0.0374 -0.0682
 1343POSM   AM115750  17.708   4.028  14.088  0.1143  0.4723 -0.1265
 1343POSM   AM215751  17.603   4.055  13.849  0.4532 -0.2328  0.1991
 1343POSM   T1A15752  17.389   3.628  13.874 -0.0415 -0.0085  0.1507
 1343POSM   C2A15753  16.956   3.630  13.707  0.4712 -0.1831 -0.0276
 1343POSM   C3A15754  16.573   3.752  13.533  0.0518  0.3418 -0.1225
 1343POSM   C1B15755  17.463   4.072  13.534 -0.2874 -0.2520  0.1902
 1343POSM   D2B15756  17.403   4.136  13.034 -0.0425 -0.0907  0.1001
 1343POSM   C3B15757  17.244   3.869  12.720  0.0812 -0.0978  0.0593
 1343POSM   C4B15758  16.998   3.581  12.412 -0.2576 -0.0163 -0.1725
 1344DOPE   NH315759  21.831  15.149  13.362 -0.1002 -0.0751 -0.1193
 1344DOPE   PO415760  21.840  14.956  13.087 -0.1807  0.0369 -0.0791
 1344DOPE   GL115761  21.674  14.800  12.737 -0.3758  0.1070  0.2183
 1344DOPE   GL215762  21.850  14.622  12.577 -0.2084 -0.0990 -0.0899
 1344DOPE   C1A15763  21.396  14.445  12.559 -0.0678  0.0792  0.0043
 1344DOPE   D2A15764  20.969  14.313  12.432  0.0605  0.0298 -0.2640
 1344DOPE   C3A15765  20.789  14.477  12.011 -0.1037  0.0059  0.0241
 1344DOPE   C4A15766  20.460  14.381  11.700 -0.1805  0.1905  0.1056
 1344DOPE   C1B15767  21.704  14.482  12.103 -0.2164 -0.1682 -0.1658
 1344DOPE   D2B15768  21.380  14.195  11.932 -0.2446 -0.1741 -0.0356
 1344DOPE   C3B15769  21.023  13.937  11.973  0.1563 -0.3231 -0.0173
 1344DOPE   C4B15770  20.620  14.002  12.213 -0.1871  0.3407  0.1150
 1345POSM   NC315771  13.718  33.299  14.717 -0.1168  0.1973  0.2036
 1345POSM   PO415772  13.865  33.073  14.442  0.0163 -0.1166  0.2251
 1345POSM   AM115773  13.899  33.133  14.107  0.3224  0.2735 -0.2517
 1345POSM   AM215774  14.048  33.024  13.929 -0.1505  0.2092 -0.0361
 1345POSM   T1A15775  13.769  33.382  13.719 -0.0359 -0.1173 -0.0345
 1345POSM   C2A15776  13.524  33.172  13.342 -0.0562 -0.0412 -0.1275
 1345POSM   C3A15777  13.216  33.322  12.945  0.2442  0.0628  0.2849
 1345POSM   C1B15778  13.853  32.861  13.660  0.1857  0.2760 -0.2166
 1345POSM   D2B15779  13.714  32.642  13.291 -0.0095 -0.0461  0.0986
 1345POSM   C3B15780  13.424  32.795  12.989 -0.1146  0.1273  0.1114
 1345POSM   C4B15781  13.313  32.611  12.583  0.2543  0.0309 -0.0269
 1346DOPS   CNO15782  16.858   4.611  14.589 -0.0451  0.2104 -0.4785
 1346DOPS   PO415783  17.078   4.845  14.398 -0.0507  0.0358  0.0725
 1346DOPS   GL115784  17.143   4.898  14.048 -0.0082  0.3892 -0.1301
 1346DOPS   GL215785  17.296   5.069  13.844  0.0359 -0.0371  0.1546
 1346DOPS   C1A15786  16.947   4.643  13.697 -0.1136 -0.1147  0.0359
 1346DOPS   D2A15787  17.081   4.567  13.256  0.1454 -0.2044  0.2019
 1346DOPS   C3A15788  17.245   4.954  13.185  0.1418 -0.0032 -0.2445
 1346DOPS   C4A15789  17.606   5.243  13.089 -0.0119 -0.2577 -0.2876
 1346DOPS   C1B15790  17.362   5.362  13.514  0.1013 -0.0522 -0.1538
 1346DOPS   D2B15791  17.654   5.669  13.283  0.1748 -0.1073  0.0693
 1346DOPS   C3B15792  17.548   6.005  12.920  0.0153 -0.1905  0.3357
 1346DOPS   C4B15793  17.440   6.408  12.697  0.3700 -0.3219 -0.0198
 1347POSM   NC315794  23.044   1.595  13.239  0.4414  0.0462  0.3034
 1347POSM   PO415795  22.902   1.230  13.170  0.0072  0.2553  0.1176
 1347POSM   AM115796  22.943   1.327  12.831 -0.0257  0.0588 -0.1167
 1347POSM   AM215797  23.090   1.469  12.621  0.1098 -0.0014 -0.2297
 1347POSM   T1A15798  22.656   1.305  12.411 -0.0862  0.1212  0.0362
 1347POSM   C2A15799  22.380   1.295  12.040 -0.0008  0.0154  0.3022
 1347POSM   C3A15800  22.264   1.173  11.607 -0.3750 -0.4132 -0.1302
 1347POSM   C1B15801  23.137   1.473  12.265  0.2431 -0.3641  0.0332
 1347POSM   D2B15802  22.953   1.582  11.883  0.0308  0.1083  0.1851
 1347POSM   C3B15803  22.751   1.225  11.784  0.2090 -0.2396  0.4104
 1347POSM   C4B15804  22.749   0.918  11.395  0.3388 -0.1477 -0.0907
 1348POSM   NC315805  15.015   1.795  15.133  0.0663 -0.1197 -0.0251
 1348POSM   PO415806  14.918   1.914  14.746 -0.0796  0.1371  0.0459
 1348POSM   AM115807  15.025   2.185  14.548  0.3266  0.0177 -0.3713
 1348POSM   AM215808  15.221   2.378  14.468  0.0926  0.0468 -0.0042
 1348POSM   T1A15809  14.864   2.432  14.163 -0.1397 -0.1330  0.3972
 1348POSM   C2A15810  14.881   2.614  13.721  0.0879  0.0897 -0.2220
 1348POSM   C3A15811  15.192   2.930  13.486 -0.1301 -0.1451 -0.3384
 1348POSM   C1B15812  15.391   2.356  14.195  0.1915  0.1266 -0.1270
 1348POSM   D2B15813  15.399   2.519  13.741  0.0138 -0.4023  0.1006
 1348POSM   C3B15814  15.745   2.708  13.477 -0.1633 -0.0108  0.0353
 1348POSM   C4B15815  15.838   3.008  13.119 -0.1187 -0.0421  0.2564
 1349POSM   NC315816  17.306  10.412  13.947  0.0911 -0.1678 -0.3627
 1349POSM   PO415817  17.504  10.225  13.656  0.0621  0.5041 -0.0230
 1349POSM   AM115818  17.649  10.090  13.391  0.2168  0.1920 -0.2552
 1349POSM   AM215819  17.688  10.197  13.185  0.2944 -0.2200 -0.1242
 1349POSM   T1A15820  17.554   9.767  12.999  0.0366  0.1243  0.2817
 1349POSM   C2A15821  17.351   9.584  12.651 -0.1611  0.0049 -0.0392
 1349POSM   C3A15822  17.073   9.754  12.290  0.1356  0.2338  0.0649
 1349POSM   C1B15823  17.561  10.323  12.873  0.0979  0.0414  0.0260
 1349POSM   D2B15824  17.438  10.472  12.473  0.1702 -0.2350 -0.1911
 1349POSM   C3B15825  17.360  10.126  12.204  0.1346 -0.2704  0.0702
 1349POSM   C4B15826  17.339   9.938  11.797  0.0619  0.2809  0.1223
 1350DOPE   NH315827  23.806  10.730  13.811  0.1463 -0.1371 -0.1842
 1350DOPE   PO415828  24.115  10.697  13.805 -0.0867  0.2049 -0.2110
 1350DOPE   GL115829  24.170  10.782  13.426 -0.3098 -0.4890  0.1725
 1350DOPE   GL215830  24.187  11.031  13.307  0.0594  0.0148  0.0147
 1350DOPE   C1A15831  24.379  10.625  13.012 -0.0797  0.1593 -0.0549
 1350DOPE   D2A15832  24.446  10.623  12.552 -0.1926 -0.1923  0.1728
 1350DOPE   C3A15833  24.288  11.046  12.386 -0.0233 -0.0723 -0.0705
 1350DOPE   C4A15834  24.627  11.351  12.276 -0.0914 -0.2344 -0.2129
 1350DOPE   C1B15835  24.095  11.014  12.843  0.1159 -0.0185 -0.1346
 1350DOPE   D2B15836  23.773  11.047  12.459 -0.2933 -0.0784 -0.1458
 1350DOPE   C3B15837  23.857  10.912  12.062 -0.0658 -0.0419  0.0211
 1350DOPE   C4B15838  24.267  11.005  11.837  0.5912 -0.2644  0.2350
 1351DOPE   NH315839  14.474   6.128  15.359  0.0990 -0.0637 -0.1693
 1351DOPE   PO415840  14.224   6.280  15.263 -0.2918  0.3560  0.2482
 1351DOPE   GL115841  14.059   6.467  14.883 -0.1741  0.0817 -0.2559
 1351DOPE   GL215842  13.907   6.767  14.825 -0.0397 -0.0900 -0.1438
 1351DOPE   C1A15843  14.079   6.310  14.445 -0.1018 -0.0463 -0.1171
 1351DOPE   D2A15844  14.274   6.011  14.182 -0.0145  0.2036 -0.0710
 1351DOPE   C3A15845  14.013   6.121  13.808  0.2531 -0.0978  0.1074
 1351DOPE   C4A15846  13.820   6.244  13.417 -0.0357 -0.0267 -0.3629
 1351DOPE   C1B15847  14.030   6.918  14.415 -0.0631  0.0153 -0.1667
 1351DOPE   D2B15848  13.738   7.135  14.139 -0.1997  0.2096  0.3397
 1351DOPE   C3B15849  13.849   7.068  13.718  0.3231  0.0244  0.3425
 1351DOPE   C4B15850  13.855   6.769  13.334 -0.2215  0.4725  0.3209
 1352DOPS   CNO15851  17.984  34.709  13.670 -0.5643  0.0040 -0.1021
 1352DOPS   PO415852  18.380  34.786  13.712 -0.0695  0.2381 -0.4235
 1352DOPS   GL115853  18.410  34.479  13.501  0.0029  0.3233 -0.4172
 1352DOPS   GL215854  18.775  34.508  13.574 -0.2165  0.0165  0.0063
 1352DOPS   C1A15855  18.194  34.310  13.087  0.0343 -0.0492 -0.0158
 1352DOPS   D2A15856  17.991  34.213  12.721  0.2889 -0.1620  0.2347
 1352DOPS   C3A15857  17.743  34.376  12.414  0.3442  0.0959 -0.2514
 1352DOPS   C4A15858  17.789  34.794  12.220  0.1076  0.0841 -0.3750
 1352DOPS   C1B15859  18.657  34.578  13.126  0.0018 -0.1731 -0.1252
 1352DOPS   D2B15860  18.636  34.900  12.817 -0.1486 -0.1674  0.0298
 1352DOPS   C3B15861  18.481  34.968  12.387 -0.1307 -0.3501 -0.1074
 1352DOPS   C4B15862  18.395  34.955  11.929  0.1330 -0.3551  0.2079
 1353DOPS   CNO15863  11.862   5.813  14.779 -0.0272 -0.1675  0.1362
 1353DOPS   PO415864  11.549   5.784  14.643  0.0419  0.3194  0.1312
 1353DOPS   GL115865  11.396   5.752  14.174 -0.0211  0.0063 -0.0135
 1353DOPS   GL215866  11.200   5.596  14.058  0.0727 -0.1699 -0.1521
 1353DOPS   C1A15867  11.284   5.963  13.783 -0.1275 -0.3104  0.0450
 1353DOPS   D2A15868  11.296   6.091  13.370  0.0257 -0.3132  0.1658
 1353DOPS   C3A15869  11.335   5.646  13.168  0.1647  0.3530 -0.1508
 1353DOPS   C4A15870  11.109   5.247  13.268  0.2413  0.3576 -0.1776
 1353DOPS   C1B15871  11.076   5.240  13.830  0.0868 -0.1563  0.0729
 1353DOPS   D2B15872  11.128   4.799  13.584  0.0907  0.0006  0.0362
 1353DOPS   C3B15873  10.709   4.610  13.367 -0.2886  0.4111  0.1339
 1353DOPS   C4B15874  10.357   4.361  13.464 -0.1362  0.2226 -0.0650
 1354DOPE   NH315875  19.679  10.267  13.319  0.0185 -0.1781 -0.0131
 1354DOPE   PO415876  19.399  10.245  13.496  0.1837  0.0005  0.1637
 1354DOPE   GL115877  19.290  10.304  13.077 -0.2868 -0.4534  0.1533
 1354DOPE   GL215878  19.426  10.539  13.019 -0.0518  0.0966 -0.3685
 1354DOPE   C1A15879  19.331  10.220  12.631 -0.1686  0.0437  0.3110
 1354DOPE   D2A15880  19.599  10.212  12.290  0.0524 -0.0625  0.2645
 1354DOPE   C3A15881  19.603  10.668  12.094  0.0260  0.0168 -0.0089
 1354DOPE   C4A15882  19.904  10.853  11.783  0.2741  0.0955  0.2263
 1354DOPE   C1B15883  19.481  10.757  12.618  0.1143  0.1091 -0.0143
 1354DOPE   D2B15884  19.796  11.029  12.444  0.1629  0.2358 -0.0042
 1354DOPE   C3B15885  19.665  11.189  12.019 -0.0717  0.0171  0.1570
 1354DOPE   C4B15886  19.645  11.213  11.538 -0.2155 -0.0849  0.0376
 1355DOPC   NC315887  18.207  10.733  13.860  0.0589  0.2361  0.0117
 1355DOPC   PO415888  18.473  10.487  13.743  0.1174 -0.1424  0.1673
 1355DOPC   GL115889  18.288  10.622  13.344  0.0858  0.3652  0.1684
 1355DOPC   GL215890  18.036  10.720  13.323 -0.2476  0.3285 -0.0800
 1355DOPC   C1A15891  18.148  10.472  12.945  0.2065  0.0314  0.2481
 1355DOPC   D2A15892  17.975  10.479  12.511  0.0759 -0.1670 -0.2691
 1355DOPC   C3A15893  18.214  10.450  12.116 -0.0641  0.0162  0.2817
 1355DOPC   C4A15894  18.656  10.329  12.111 -0.1211  0.0746  0.0770
 1355DOPC   C1B15895  17.777  10.976  13.021  0.1259 -0.3099  0.3564
 1355DOPC   D2B15896  17.673  10.940  12.630  0.2474 -0.1474  0.0895
 1355DOPC   C3B15897  17.302  10.982  12.324 -0.2732 -0.2668  0.1667
 1355DOPC   C4B15898  16.836  10.914  12.339 -0.1149  0.0600 -0.0534
 1356DOPE   NH315899  21.338  10.416  13.534  0.0721  0.1178  0.2795
 1356DOPE   PO415900  21.554  10.225  13.388  0.0544  0.1468 -0.0969
 1356DOPE   GL115901  21.425  10.008  13.128 -0.1218  0.0133  0.2354
 1356DOPE   GL215902  21.283  10.264  12.949  0.1593  0.2496  0.1293
 1356DOPE   C1A15903  21.285   9.855  12.709 -0.0757  0.0285 -0.0533
 1356DOPE   D2A15904  21.225   9.959  12.292  0.4194 -0.1268  0.3112
 1356DOPE   C3A15905  21.449  10.287  12.009 -0.2359  0.0692  0.0826
 1356DOPE   C4A15906  21.799  10.454  11.772 -0.1668  0.0724  0.2153
 1356DOPE   C1B15907  21.593  10.300  12.597  0.0287 -0.0055 -0.0468
 1356DOPE   D2B15908  21.829  10.528  12.252 -0.1264 -0.4918 -0.1158
 1356DOPE   C3B15909  21.532  10.809  12.050 -0.1328  0.0168  0.0239
 1356DOPE   C4B15910  21.564  10.967  11.687  0.0808  0.2698 -0.1651
 1357DOPC   NC315911  11.309   1.737  14.548  0.4689 -0.1428 -0.1165
 1357DOPC   PO415912  11.704   1.725  14.662 -0.3381 -0.2253  0.1333
 1357DOPC   GL115913  11.701   1.634  14.203 -0.2482  0.2678 -0.0699
 1357DOPC   GL215914  11.873   1.879  14.207 -0.1488 -0.4128  0.0506
 1357DOPC   C1A15915  11.287   1.398  14.171  0.1976  0.2684 -0.0781
 1357DOPC   D2A15916  11.075   1.138  13.848  0.3739 -0.2291 -0.1123
 1357DOPC   C3A15917  11.031   1.382  13.435  0.1519 -0.0737  0.0427
 1357DOPC   C4A15918  11.120   1.471  13.010  0.2871 -0.1365 -0.1545
 1357DOPC   C1B15919  11.921   1.788  13.761  0.0960  0.1411  0.0669
 1357DOPC   D2B15920  12.081   1.718  13.339 -0.1120  0.1604 -0.0787
 1357DOPC   C3B15921  12.416   1.488  13.039 -0.1444  0.3590 -0.1222
 1357DOPC   C4B15922  12.528   1.325  12.655 -0.0963  0.0588 -0.0230
 1358DOPE   NH315923  20.890   4.058  13.338  0.2784 -0.1002 -0.2729
 1358DOPE   PO415924  21.054   3.769  13.368  0.0028 -0.0547 -0.0317
 1358DOPE   GL115925  21.175   3.763  13.056  0.0142  0.2608  0.0123
 1358DOPE   GL215926  20.996   3.905  12.858 -0.0244 -0.4010 -0.0482
 1358DOPE   C1A15927  21.327   3.636  12.648  0.0578 -0.2466  0.0899
 1358DOPE   D2A15928  21.567   3.625  12.240 -0.2466  0.0658  0.0651
 1358DOPE   C3A15929  21.523   3.528  11.768  0.2474  0.2968  0.0138
 1358DOPE   C4A15930  21.791   3.687  11.421 -0.2764  0.0593  0.2270
 1358DOPE   C1B15931  20.770   4.034  12.467 -0.0290 -0.1660 -0.0127
 1358DOPE   D2B15932  20.611   4.068  12.007  0.0504  0.1436 -0.2030
 1358DOPE   C3B15933  20.757   4.130  11.593  0.0487  0.1863  0.0043
 1358DOPE   C4B15934  21.061   4.080  11.221 -0.1313 -0.0522 -0.0313
 1359DOPE   NH315935  20.366   7.404  13.086 -0.4851  0.2758  0.1440
 1359DOPE   PO415936  20.332   7.688  13.002 -0.1196 -0.0169 -0.0080
 1359DOPE   GL115937  20.140   7.635  12.666  0.2140 -0.2682 -0.0995
 1359DOPE   GL215938  20.305   7.454  12.557 -0.0088  0.0936  0.0931
 1359DOPE   C1A15939  20.028   7.921  12.310 -0.1311 -0.0500  0.2079
 1359DOPE   D2A15940  20.095   8.331  12.041  0.4411 -0.3359  0.3220
 1359DOPE   C3A15941  20.362   8.196  11.671  0.2802  0.2214  0.4732
 1359DOPE   C4A15942  20.627   8.287  11.317  0.0766 -0.0746  0.0449
 1359DOPE   C1B15943  20.010   7.432  12.182 -0.0943  0.3078 -0.3231
 1359DOPE   D2B15944  19.830   7.327  11.800  0.2364 -0.2165  0.4608
 1359DOPE   C3B15945  19.398   7.597  11.697  0.1757 -0.0291  0.1100
 1359DOPE   C4B15946  19.032   7.437  11.464  0.0036 -0.1531 -0.1271
 1360DOPC   NC315947  16.409   0.419  14.049 -0.0308 -0.2114 -0.0336
 1360DOPC   PO415948  16.091   0.238  14.191  0.1914 -0.0861  0.0135
 1360DOPC   GL115949  16.014   0.009  13.874 -0.0616 -0.4294 -0.0798
 1360DOPC   GL215950  16.112   0.168  13.608 -0.0262  0.0283  0.3147
 1360DOPC   C1A15951  16.067  -0.362  13.574 -0.1045 -0.0690  0.1176
 1360DOPC   D2A15952  15.755  -0.457  13.198  0.0322  0.2116 -0.0815
 1360DOPC   C3A15953  16.105  -0.399  12.879 -0.1182 -0.1167  0.1718
 1360DOPC   C4A15954  16.445  -0.440  12.508  0.2273 -0.0049 -0.2654
 1360DOPC   C1B15955  15.937   0.063  13.188 -0.1061  0.0617  0.0015
 1360DOPC   D2B15956  15.740  -0.086  12.793  0.3409  0.2441 -0.3248
 1360DOPC   C3B15957  15.594   0.228  12.487 -0.2898 -0.3190  0.1322
 1360DOPC   C4B15958  15.618   0.219  11.976  0.3284 -0.2469 -0.0447
 1361DOPC   NC315959  22.578   3.089  13.686  0.1244  0.0368 -0.0110
 1361DOPC   PO415960  22.237   2.996  13.538 -0.0082 -0.1150 -0.0310
 1361DOPC   GL115961  22.142   2.899  13.161  0.3320 -0.0405  0.2631
 1361DOPC   GL215962  22.195   2.612  13.151 -0.0307  0.2146  0.0925
 1361DOPC   C1A15963  22.208   3.153  12.768 -0.0097  0.0793 -0.0388
 1361DOPC   D2A15964  22.522   3.314  12.456  0.0848  0.1985 -0.3949
 1361DOPC   C3A15965  22.335   3.362  11.993 -0.0284 -0.0233 -0.0722
 1361DOPC   C4A15966  21.979   3.274  11.695  0.2475  0.2146 -0.2570
 1361DOPC   C1B15967  22.479   2.673  12.850  0.1557 -0.3676 -0.2109
 1361DOPC   D2B15968  22.503   2.338  12.572  0.0744  0.1254 -0.0250
 1361DOPC   C3B15969  22.747   2.341  12.151 -0.1794 -0.0698  0.0140
 1361DOPC   C4B15970  22.902   2.080  11.852 -0.0076 -0.0951 -0.2670
 1362DOPE   NH315971  17.414   2.863  14.871  0.2832  0.0077 -0.0411
 1362DOPE   PO415972  17.558   2.885  14.590 -0.0439 -0.1997  0.2823
 1362DOPE   GL115973  17.332   2.852  14.240 -0.0855 -0.1349  0.4295
 1362DOPE   GL215974  17.205   2.546  14.358 -0.3645 -0.1593 -0.1421
 1362DOPE   C1A15975  17.199   3.151  13.897  0.3275  0.3232  0.1037
 1362DOPE   D2A15976  17.226   3.270  13.465 -0.0636  0.1083 -0.3013
 1362DOPE   C3A15977  17.278   3.062  13.055  0.2712 -0.0012 -0.1475
 1362DOPE   C4A15978  17.535   2.897  12.677 -0.2764 -0.0503 -0.0385
 1362DOPE   C1B15979  17.008   2.196  14.164 -0.1555  0.0943 -0.2277
 1362DOPE   D2B15980  16.744   1.840  14.162  0.2792  0.3402  0.0229
 1362DOPE   C3B15981  16.487   1.680  13.829 -0.0629  0.0429 -0.0049
 1362DOPE   C4B15982  16.314   1.586  13.391 -0.1199  0.0139 -0.2241
 1363DOPE   NH315983  22.340   8.654  13.971 -0.1698 -0.1660 -0.2918
 1363DOPE   PO415984  22.557   8.607  13.747  0.2228  0.3197  0.0019
 1363DOPE   GL115985  22.519   8.527  13.334 -0.0316 -0.4575  0.1633
 1363DOPE   GL215986  22.432   8.332  13.298 -0.1190 -0.1040 -0.0379
 1363DOPE   C1A15987  22.400   8.707  12.950  0.0688  0.0235  0.3329
 1363DOPE   D2A15988  22.109   8.824  12.606 -0.0893 -0.0652 -0.0728
 1363DOPE   C3A15989  22.098   8.629  12.185  0.1139  0.1026  0.0330
 1363DOPE   C4A15990  22.229   8.526  11.759  0.0019 -0.1012  0.2467
 1363DOPE   C1B15991  22.102   8.310  13.052  0.0509  0.3891 -0.1452
 1363DOPE   D2B15992  22.182   8.306  12.620  0.2743  0.2084  0.0986
 1363DOPE   C3B15993  21.916   8.165  12.275 -0.0273 -0.0018  0.1320
 1363DOPE   C4B15994  21.787   8.272  11.851 -0.0260  0.3047  0.1562
 1364DOPS   CNO15995  12.691   4.869  15.341  0.1133  0.1769 -0.2841
 1364DOPS   PO415996  13.011   4.719  15.240 -0.2865  0.0381 -0.1019
 1364DOPS   GL115997  13.221   4.383  15.051 -0.2906  0.0391 -0.3262
 1364DOPS   GL215998  12.981   4.277  14.888 -0.0716 -0.4614 -0.2593
 1364DOPS   C1A15999  13.542   4.233  14.778  0.3093 -0.2630 -0.1578
 1364DOPS   D2A16000  13.824   4.563  14.559 -0.2630  0.1123  0.1436
 1364DOPS   C3A16001  13.850   4.632  14.096 -0.1274 -0.2334  0.0007
 1364DOPS   C4A16002  13.969   4.678  13.640  0.0667  0.1875 -0.2910
 1364DOPS   C1B16003  12.973   3.901  14.567 -0.0807  0.0170  0.3201
 1364DOPS   D2B16004  12.924   3.712  14.131 -0.0212  0.1158 -0.1829
 1364DOPS   C3B16005  12.797   3.965  13.834 -0.0759 -0.0694  0.1620
 1364DOPS   C4B16006  12.595   4.395  13.694 -0.3139  0.1203 -0.1211
 1365POSM   NC316007  15.901  11.059  14.447 -0.1580 -0.2299 -0.0692
 1365POSM   PO416008  15.930  10.952  14.092  0.0714 -0.0793 -0.1739
 1365POSM   AM116009  15.778  10.947  13.787  0.2760 -0.0266  0.2790
 1365POSM   AM216010  15.806  10.750  13.615  0.3668 -0.0871 -0.0549
 1365POSM   T1A16011  15.690  11.142  13.328  0.1085  0.1061 -0.1996
 1365POSM   C2A16012  15.761  11.084  12.896  0.1804  0.2797  0.0072
 1365POSM   C3A16013  15.970  11.248  12.511  0.2110  0.0327  0.0176
 1365POSM   C1B16014  15.625  10.675  13.337 -0.0077 -0.1634 -0.0645
 1365POSM   D2B16015  15.504  10.377  13.029 -0.0577  0.3616 -0.1163
 1365POSM   C3B16016  15.598  10.556  12.591 -0.0370 -0.3518  0.1733
 1365POSM   C4B16017  15.694  10.734  12.182  0.0491  0.0502  0.4543
 1366DOPC   NC316018  12.508   5.194  14.862  0.4103  0.0428 -0.1785
 1366DOPC   PO416019  12.248   5.425  14.629  0.1658 -0.0310 -0.0052
 1366DOPC   GL116020  12.648   5.437  14.473 -0.1844 -0.1829 -0.2715
 1366DOPC   GL216021  12.588   5.689  14.376  0.2573 -0.0795 -0.0522
 1366DOPC   C1A16022  12.767   5.132  14.120  0.2923  0.0994  0.1561
 1366DOPC   D2A16023  12.911   4.897  13.724  0.2837 -0.1406 -0.0740
 1366DOPC   C3A16024  13.105   5.212  13.562 -0.0282 -0.1666  0.0738
 1366DOPC   C4A16025  13.370   5.478  13.290  0.3583  0.0130  0.2229
 1366DOPC   C1B16026  12.457   5.485  14.030  0.1931  0.1223 -0.1175
 1366DOPC   D2B16027  12.440   5.206  13.663  0.1206 -0.2167 -0.1190
 1366DOPC   C3B16028  12.228   5.287  13.261  0.1717 -0.1223 -0.1587
 1366DOPC   C4B16029  11.984   5.637  13.091  0.0363 -0.0844 -0.2450
 1367DOPC   NC316030  16.120   3.284  14.442  0.3336  0.1936 -0.0298
 1367DOPC   PO416031  15.964   3.659  14.614  0.0511  0.2891  0.0891
 1367DOPC   GL116032  15.862   3.793  14.204 -0.0281 -0.2507 -0.1170
 1367DOPC   GL216033  16.002   3.563  14.022 -0.0734  0.0057 -0.2077
 1367DOPC   C1A16034  15.627   3.747  13.825  0.2103 -0.1122 -0.0686
 1367DOPC   D2A16035  15.599   3.931  13.422 -0.0130 -0.0396  0.0664
 1367DOPC   C3A16036  15.842   3.905  13.042  0.0065  0.1192  0.0058
 1367DOPC   C4A16037  16.115   4.061  12.655 -0.2352 -0.0231  0.1906
 1367DOPC   C1B16038  16.120   3.520  13.634  0.2080 -0.0682  0.3213
 1367DOPC   D2B16039  16.238   3.465  13.166 -0.3055  0.1133  0.1783
 1367DOPC   C3B16040  16.183   3.555  12.740 -0.1002 -0.0041 -0.0159
 1367DOPC   C4B16041  16.056   3.517  12.305  0.3245  0.0100 -0.0512
 1368DOPS   CNO16042  13.518   2.065  15.335  0.1490  0.1605 -0.1205
 1368DOPS   PO416043  13.691   2.296  15.102  0.0251  0.0987 -0.0919
 1368DOPS   GL116044  13.652   2.261  14.754 -0.1852 -0.3479 -0.1655
 1368DOPS   GL216045  13.952   2.309  14.670 -0.1299 -0.3096 -0.3441
 1368DOPS   C1A16046  13.695   1.983  14.392  0.4740 -0.1705  0.0664
 1368DOPS   D2A16047  13.889   2.115  13.986  0.1647  0.2200  0.1290
 1368DOPS   C3A16048  13.876   2.480  13.761  0.4312  0.1498 -0.0611
 1368DOPS   C4A16049  13.793   2.713  13.398  0.0667  0.4158  0.3311
 1368DOPS   C1B16050  13.766   2.501  14.313 -0.2648 -0.2353 -0.0109
 1368DOPS   D2B16051  13.568   2.823  14.052 -0.1993  0.1134  0.2933
 1368DOPS   C3B16052  13.147   2.686  13.821 -0.2033  0.1454 -0.1693
 1368DOPS   C4B16053  12.924   2.360  13.659 -0.1436 -0.0951 -0.1146
 1369DOPC   NC316054  22.024  14.081  13.653 -0.0390  0.2051  0.1520
 1369DOPC   PO416055  22.032  14.037  13.256 -0.1130 -0.1260  0.2639
 1369DOPC   GL116056  22.021  14.197  12.860 -0.0544  0.0993 -0.3001
 1369DOPC   GL216057  22.255  14.057  12.724  0.2485 -0.3381  0.2084
 1369DOPC   C1A16058  21.784  14.099  12.495 -0.1637  0.0253 -0.0702
 1369DOPC   D2A16059  21.751  13.911  12.066 -0.1985  0.0940  0.1326
 1369DOPC   C3A16060  22.156  13.799  11.819  0.1558 -0.2076 -0.1615
 1369DOPC   C4A16061  22.585  13.931  11.672 -0.1499 -0.2103 -0.1451
 1369DOPC   C1B16062  22.212  14.053  12.243 -0.2375 -0.0003  0.0802
 1369DOPC   D2B16063  22.143  14.344  11.880 -0.0598 -0.0221  0.0994
 1369DOPC   C3B16064  22.463  14.369  11.571 -0.0626 -0.2190  0.1440
 1369DOPC   C4B16065  22.638  14.210  11.222 -0.0403 -0.1055 -0.2185
 1370POSM   NC316066  20.857   3.103  13.947 -0.1422 -0.0417  0.0376
 1370POSM   PO416067  20.603   3.111  13.669 -0.0724  0.0077  0.1643
 1370POSM   AM116068  20.712   3.212  13.397 -0.1072 -0.0298  0.1184
 1370POSM   AM216069  20.902   3.211  13.195  0.1470 -0.1043  0.0695
 1370POSM   T1A16070  20.570   3.355  12.866  0.0064 -0.2089 -0.1451
 1370POSM   C2A16071  20.403   3.664  12.600  0.0006 -0.1836 -0.1064
 1370POSM   C3A16072  20.245   3.799  12.220 -0.2736  0.1226 -0.1850
 1370POSM   C1B16073  21.032   3.302  12.906  0.3367  0.0999 -0.0486
 1370POSM   D2B16074  20.871   3.523  12.519 -0.0842  0.1670 -0.0841
 1370POSM   C3B16075  20.621   3.460  12.120  0.0303 -0.0377  0.4038
 1370POSM   C4B16076  20.407   3.672  11.745 -0.0795 -0.0585  0.1350
 1371DOPC   NC316077  15.492   1.352  15.131  0.1215 -0.0671 -0.1512
 1371DOPC   PO416078  15.596   1.273  14.736  0.3303 -0.2428  0.2485
 1371DOPC   GL116079  15.543   1.529  14.361 -0.0890  0.0718  0.2416
 1371DOPC   GL216080  15.283   1.677  14.402  0.0217 -0.0602 -0.1466
 1371DOPC   C1A16081  15.526   1.498  13.865  0.0622  0.0187  0.1558
 1371DOPC   D2A16082  15.674   1.658  13.440 -0.2610 -0.1901 -0.1601
 1371DOPC   C3A16083  15.673   1.753  12.988  0.1642 -0.0229 -0.1502
 1371DOPC   C4A16084  16.031   1.938  12.712  0.2266 -0.2124 -0.0361
 1371DOPC   C1B16085  15.165   1.871  14.019 -0.0929 -0.1744 -0.3356
 1371DOPC   D2B16086  15.002   2.080  13.669  0.1472 -0.0137  0.0859
 1371DOPC   C3B16087  15.087   2.345  13.310 -0.1358  0.1610  0.1395
 1371DOPC   C4B16088  15.388   2.598  13.128  0.2838  0.3114 -0.1459
 1372DOPC   NC316089  18.145   1.342  14.013  0.1785 -0.1403 -0.2294
 1372DOPC   PO416090  18.283   1.460  13.686 -0.1697  0.1114  0.0026
 1372DOPC   GL116091  18.511   1.489  13.276  0.2838 -0.0697 -0.4888
 1372DOPC   GL216092  18.334   1.244  13.190 -0.0859 -0.3674  0.1369
 1372DOPC   C1A16093  18.464   1.564  12.804 -0.0715  0.0298 -0.1346
 1372DOPC   D2A16094  18.250   1.503  12.408  0.1256  0.0551 -0.1897
 1372DOPC   C3A16095  18.104   1.545  11.983 -0.1326 -0.1346 -0.1502
 1372DOPC   C4A16096  18.080   1.226  11.590  0.2577  0.1380 -0.1658
 1372DOPC   C1B16097  18.443   1.076  12.851 -0.3516 -0.2456 -0.3546
 1372DOPC   D2B16098  18.206   0.782  12.529  0.0309 -0.3065 -0.3574
 1372DOPC   C3B16099  18.107   0.515  12.170 -0.0263  0.1512 -0.0880
 1372DOPC   C4B16100  17.869   0.370  11.839 -0.4887 -0.1920  0.0898
 1373DOPE   NH316101  17.530  34.560  13.883 -0.1566  0.3182 -0.2773
 1373DOPE   PO416102  17.260  34.647  13.963  0.3108 -0.2099 -0.1477
 1373DOPE   GL116103  17.169  34.775  13.639  0.3807 -0.3451 -0.0518
 1373DOPE   GL216104  17.051  34.494  13.562 -0.1440  0.2511  0.0808
 1373DOPE   C1A16105  16.884  34.827  13.254  0.0557 -0.1382  0.1939
 1373DOPE   D2A16106  16.874  34.607  12.861 -0.4689  0.2638 -0.0714
 1373DOPE   C3A16107  16.756  34.877  12.543  0.0822  0.0192  0.0477
 1373DOPE   C4A16108  16.537  35.200  12.302 -0.1780 -0.1589 -0.0487
 1373DOPE   C1B16109  17.145  34.290  13.192  0.0450  0.1423  0.0465
 1373DOPE   D2B16110  17.483  34.294  12.857 -0.2886 -0.1904 -0.0327
 1373DOPE   C3B16111  17.341  34.638  12.536 -0.0802  0.2313  0.1611
 1373DOPE   C4B16112  17.141  35.100  12.401 -0.1476 -0.2149 -0.2222
 1374POSM   NC316113  22.649   1.427  13.571 -0.4106  0.0876  0.2719
 1374POSM   PO416114  22.284   1.566  13.524  0.0361 -0.1691 -0.0469
 1374POSM   AM116115  22.231   1.540  13.177 -0.4377  0.2361  0.0301
 1374POSM   AM216116  22.383   1.379  12.960 -0.1106 -0.1974  0.1693
 1374POSM   T1A16117  21.899   1.602  12.809  0.2863  0.0459  0.1583
 1374POSM   C2A16118  21.701   1.950  12.634 -0.2257  0.1547  0.1684
 1374POSM   C3A16119  21.862   2.291  12.367  0.1576  0.0516 -0.0318
 1374POSM   C1B16120  22.320   1.110  12.842  0.0359  0.1733 -0.1548
 1374POSM   D2B16121  22.100   0.709  12.846 -0.3679  0.0406 -0.1502
 1374POSM   C3B16122  21.982   0.285  12.702 -0.4505  0.1488  0.1962
 1374POSM   C4B16123  21.968  -0.064  12.429 -0.1664 -0.1206  0.1389
 1375POSM   NC316124  17.500   6.938  14.990 -0.0327 -0.1232  0.1039
 1375POSM   PO416125  17.350   7.008  14.637 -0.0644  0.1441 -0.1229
 1375POSM   AM116126  17.298   7.053  14.350 -0.1768 -0.0469 -0.0104
 1375POSM   AM216127  17.391   6.941  14.149  0.2550 -0.0277  0.0346
 1375POSM   T1A16128  17.040   7.230  13.939 -0.2798 -0.2342  0.0956
 1375POSM   C2A16129  16.598   7.278  13.663 -0.0305 -0.0002 -0.1063
 1375POSM   C3A16130  16.257   7.106  13.390 -0.0013  0.0364 -0.0202
 1375POSM   C1B16131  17.461   7.058  13.856  0.0162 -0.1454  0.0811
 1375POSM   D2B16132  17.568   7.122  13.398  0.6027  0.2547 -0.1890
 1375POSM   C3B16133  17.319   6.928  13.033  0.0307  0.3025 -0.2826
 1375POSM   C4B16134  17.376   6.903  12.587  0.0172 -0.0264  0.1312
 1376DOPE   NH316135  13.240   2.584  15.185  0.3440 -0.0059 -0.0646
 1376DOPE   PO416136  13.201   2.406  14.901 -0.0278 -0.3247  0.0622
 1376DOPE   GL116137  13.195   2.224  14.509 -0.0247 -0.2434 -0.0161
 1376DOPE   GL216138  12.962   2.066  14.443  0.0794 -0.1624  0.2062
 1376DOPE   C1A16139  13.358   2.226  14.081 -0.1222 -0.7234 -0.2801
 1376DOPE   D2A16140  13.432   2.254  13.615 -0.0056 -0.0663 -0.0610
 1376DOPE   C3A16141  13.691   2.109  13.271  0.4003  0.0287  0.0890
 1376DOPE   C4A16142  13.868   2.353  12.939  0.1024 -0.1884  0.0474
 1376DOPE   C1B16143  12.838   1.944  14.005 -0.0270 -0.0200 -0.0395
 1376DOPE   D2B16144  12.967   1.722  13.657  0.0524  0.0120  0.0193
 1376DOPE   C3B16145  12.936   1.497  13.246 -0.1375  0.1056 -0.1053
 1376DOPE   C4B16146  12.976   1.608  12.783  0.0815 -0.1244  0.1047
 1377POSM   NC316147  11.920   2.182  14.659 -0.1739  0.1231 -0.2181
 1377POSM   PO416148  11.541   2.200  14.751 -0.1309  0.3504 -0.0590
 1377POSM   AM116149  11.497   2.090  14.422  0.2357  0.2909  0.3990
 1377POSM   AM216150  11.570   2.238  14.166  0.3474 -0.3666 -0.1861
 1377POSM   T1A16151  11.359   1.870  13.973 -0.0354  0.1097  0.1766
 1377POSM   C2A16152  11.192   1.868  13.549 -0.2470 -0.1639  0.1135
 1377POSM   C3A16153  11.253   2.099  13.110  0.0344 -0.4096 -0.1097
 1377POSM   C1B16154  11.692   2.192  13.870  0.0115  0.2909  0.0140
 1377POSM   D2B16155  11.703   2.004  13.428 -0.1772 -0.0308 -0.0533
 1377POSM   C3B16156  11.556   1.612  13.227  0.3026  0.2921 -0.0160
 1377POSM   C4B16157  11.506   1.145  13.212 -0.0127  0.2245 -0.1467
 1378DOPE   NH316158  18.748   9.518  13.495 -0.1317 -0.1147  0.3488
 1378DOPE   PO416159  18.550   9.656  13.308  0.0422 -0.2262  0.1754
 1378DOPE   GL116160  18.420   9.750  13.053  0.2246 -0.1161 -0.2923
 1378DOPE   GL216161  18.415   9.503  12.862 -0.1829  0.0792  0.1293
 1378DOPE   C1A16162  18.413   9.875  12.584  0.0660 -0.1621 -0.1007
 1378DOPE   D2A16163  18.391   9.885  12.084 -0.0578 -0.0187 -0.0065
 1378DOPE   C3A16164  18.562   9.628  11.736  0.5861 -0.1138  0.2582
 1378DOPE   C4A16165  18.789   9.432  11.423  0.1674  0.0150 -0.2821
 1378DOPE   C1B16166  18.327   9.269  12.478  0.3240  0.0667  0.2038
 1378DOPE   D2B16167  17.869   9.133  12.338 -0.0422  0.0276  0.0792
 1378DOPE   C3B16168  17.498   9.130  12.558 -0.0580  0.1050 -0.1841
 1378DOPE   C4B16169  17.323   9.208  12.979 -0.1816  0.0737 -0.0441
 1379POSM   NC316170  14.181   5.711  15.210 -0.0525  0.3504 -0.0923
 1379POSM   PO416171  14.526   5.520  15.164 -0.0006  0.3107 -0.0369
 1379POSM   AM116172  14.617   5.573  14.870  0.0993  0.2117 -0.1197
 1379POSM   AM216173  14.818   5.432  14.723  0.4221  0.4721  0.0562
 1379POSM   T1A16174  14.700   5.789  14.386 -0.2771  0.3622  0.3613
 1379POSM   C2A16175  14.718   5.603  13.959 -0.0934 -0.2186 -0.0184
 1379POSM   C3A16176  14.647   5.242  13.732 -0.4142 -0.1904  0.4019
 1379POSM   C1B16177  14.884   5.367  14.424  0.2374  0.2992  0.3167
 1379POSM   D2B16178  15.138   5.169  14.122  0.0597  0.1513  0.2133
 1379POSM   C3B16179  15.251   5.194  13.719  0.0597  0.1268  0.6950
 1379POSM   C4B16180  15.450   5.146  13.257  0.0408  0.0963 -0.1158
 1380DOPS   CNO16181  24.006   3.177  13.034  0.2757 -0.0237 -0.1365
 1380DOPS   PO416182  23.667   3.286  13.175  0.1290  0.0661  0.1084
 1380DOPS   GL116183  23.616   3.321  12.803  0.0499  0.0124  0.1234
 1380DOPS   GL216184  23.682   3.088  12.647 -0.1645  0.3698  0.3845
 1380DOPS   C1A16185  23.529   3.429  12.344  0.1424  0.1898 -0.3092
 1380DOPS   D2A16186  23.392   3.276  11.929 -0.1713 -0.2337  0.1674
 1380DOPS   C3A16187  23.328   3.410  11.542  0.0879 -0.2117  0.1923
 1380DOPS   C4A16188  23.002   3.658  11.402 -0.0409  0.1719 -0.0196
 1380DOPS   C1B16189  23.739   3.001  12.211  0.0921  0.0946  0.2383
 1380DOPS   D2B16190  23.824   3.045  11.763 -0.1930 -0.2219  0.1561
 1380DOPS   C3B16191  23.896   2.600  11.591 -0.0157 -0.2572 -0.0093
 1380DOPS   C4B16192  24.218   2.428  11.320  0.2380 -0.3136 -0.2072
 1381DOPC   NC316193  20.658  12.019  13.269  0.1087  0.0134  0.1754
 1381DOPC   PO416194  20.632  12.415  13.290  0.0176  0.0887 -0.0288
 1381DOPC   GL116195  20.709  12.362  12.942  0.0887  0.0905 -0.1483
 1381DOPC   GL216196  20.519  12.181  12.819 -0.3264 -0.0103  0.0715
 1381DOPC   C1A16197  20.975  12.461  12.589 -0.1692  0.0606  0.0900
 1381DOPC   D2A16198  21.301  12.119  12.435  0.0304  0.0929 -0.1461
 1381DOPC   C3A16199  21.404  12.188  11.977  0.2411 -0.3080  0.0962
 1381DOPC   C4A16200  21.034  12.245  11.643  0.0479 -0.0573 -0.1582
 1381DOPC   C1B16201  20.462  12.358  12.380  0.3509  0.0901  0.0868
 1381DOPC   D2B16202  20.691  12.319  11.995 -0.2981  0.2339  0.1507
 1381DOPC   C3B16203  20.766  12.645  11.631 -0.1553  0.2719 -0.0502
 1381DOPC   C4B16204  21.017  12.801  11.244 -0.1282 -0.0301 -0.3608
 1382DOPS   CNO16205  12.291   7.201  15.476 -0.3812 -0.2499 -0.1450
 1382DOPS   PO416206  11.998   7.459  15.361  0.2362 -0.2501  0.0382
 1382DOPS   GL116207  12.094   7.643  15.089  0.7615  0.1839 -0.0161
 1382DOPS   GL216208  11.880   7.717  14.899 -0.2168 -0.2405  0.1352
 1382DOPS   C1A16209  12.284   7.670  14.639  0.3333 -0.2008  0.1484
 1382DOPS   D2A16210  12.560   7.747  14.250  0.0126 -0.1559 -0.0755
 1382DOPS   C3A16211  12.438   7.679  13.780  0.2586  0.2492  0.3838
 1382DOPS   C4A16212  12.323   7.728  13.325 -0.1066 -0.0464  0.1381
 1382DOPS   C1B16213  11.598   7.650  14.577  0.2041  0.0550 -0.1738
 1382DOPS   D2B16214  11.476   7.814  14.167  0.0355 -0.1899  0.0862
 1382DOPS   C3B16215  11.108   8.083  13.895  0.2162  0.1322  0.2944
 1382DOPS   C4B16216  10.779   8.390  13.769 -0.0941 -0.2423 -0.0397
 1383DOPE   NH316217  22.867   8.880  13.494  0.0201  0.0834  0.1344
 1383DOPE   PO416218  23.080   9.092  13.607 -0.2065  0.0523  0.2036
 1383DOPE   GL116219  22.938   9.323  13.268  0.1664 -0.2289 -0.0852
 1383DOPE   GL216220  22.732   9.164  13.120 -0.1769 -0.1125  0.0257
 1383DOPE   C1A16221  23.001   9.367  12.780 -0.2673 -0.2291  0.1844
 1383DOPE   D2A16222  22.789   9.445  12.323  0.2922  0.1279 -0.0844
 1383DOPE   C3A16223  22.945   9.650  11.950  0.0110 -0.2575  0.1116
 1383DOPE   C4A16224  22.821   9.549  11.525 -0.2052 -0.2197 -0.2355
 1383DOPE   C1B16225  22.563   9.162  12.709  0.0416  0.4996  0.1856
 1383DOPE   D2B16226  22.368   9.190  12.320 -0.0008 -0.3390 -0.0215
 1383DOPE   C3B16227  22.605   8.964  11.966  0.0484 -0.0193  0.0239
 1383DOPE   C4B16228  22.759   8.630  11.716 -0.0429 -0.0166  0.1378
 1384DOPC   NC316229  12.944   8.476  15.367  0.0211  0.1112 -0.0680
 1384DOPC   PO416230  12.815   8.121  15.254 -0.1047 -0.0512  0.0306
 1384DOPC   GL116231  12.916   8.103  14.859  0.0410 -0.4754 -0.1274
 1384DOPC   GL216232  13.158   8.253  14.829  0.1766 -0.4227  0.0793
 1384DOPC   C1A16233  13.003   7.807  14.459 -0.3017 -0.1836  0.1437
 1384DOPC   D2A16234  12.915   7.442  14.145 -0.1211  0.1064 -0.0606
 1384DOPC   C3A16235  12.953   7.571  13.682  0.1521 -0.2518  0.0244
 1384DOPC   C4A16236  13.123   7.601  13.240 -0.0188 -0.0560 -0.2749
 1384DOPC   C1B16237  13.199   8.332  14.353  0.0048 -0.0795  0.3404
 1384DOPC   D2B16238  13.097   8.500  13.999  0.0414  0.0755  0.0874
 1384DOPC   C3B16239  13.154   8.539  13.536 -0.1756  0.1215  0.0409
 1384DOPC   C4B16240  12.754   8.484  13.229 -0.1982  0.0182 -0.1481
 1385DOPS   CNO16241   9.844  34.438  14.505  0.0851  0.2776  0.0344
 1385DOPS   PO416242  10.146  34.697  14.636  0.0432  0.0505 -0.1497
 1385DOPS   GL116243  10.529  34.729  14.393  0.2785  0.3154  0.1361
 1385DOPS   GL216244  10.293  34.601  14.172  0.0871  0.1110  0.1325
 1385DOPS   C1A16245  10.712  34.722  13.984  0.0133  0.0996 -0.0570
 1385DOPS   D2A16246  10.679  34.540  13.562  0.0801  0.0569  0.1555
 1385DOPS   C3A16247  10.946  34.414  13.243  0.1359 -0.4147  0.0020
 1385DOPS   C4A16248  11.224  34.036  13.181 -0.4993 -0.2043 -0.2249
 1385DOPS   C1B16249  10.138  34.577  13.693 -0.0337 -0.2261  0.0034
 1385DOPS   D2B16250  10.240  34.619  13.266  0.0617 -0.0233 -0.0868
 1385DOPS   C3B16251  10.108  34.973  13.045 -0.0038 -0.0154 -0.1880
 1385DOPS   C4B16252   9.887  35.388  12.993  0.3582 -0.4651 -0.2407
 1386DOPC   NC316253  16.012  34.242  14.289  0.1817  0.2507  0.0628
 1386DOPC   PO416254  15.903  33.875  14.398  0.0328 -0.0385  0.3052
 1386DOPC   GL116255  15.705  33.856  14.009  0.0544 -0.1120 -0.0829
 1386DOPC   GL216256  15.424  33.872  13.934 -0.0664 -0.1406  0.0390
 1386DOPC   C1A16257  15.782  34.064  13.618  0.1283  0.0806 -0.0405
 1386DOPC   D2A16258  15.445  33.912  13.346 -0.1271  0.0066  0.2036
 1386DOPC   C3A16259  15.384  33.622  12.949 -0.0411  0.0442  0.1186
 1386DOPC   C4A16260  15.137  33.219  12.861  0.1386 -0.3922  0.2874
 1386DOPC   C1B16261  15.072  33.810  13.627 -0.3715  0.1400  0.1151
 1386DOPC   D2B16262  14.947  34.035  13.206 -0.4251  0.0241  0.1526
 1386DOPC   C3B16263  14.872  34.383  12.931  0.1978  0.4931 -0.0918
 1386DOPC   C4B16264  14.992  34.353  12.435  0.2322  0.2588  0.2468
 1387DOPE   NH316265  24.326  11.413  13.871  0.0831  0.0186 -0.3476
 1387DOPE   PO416266  24.492  11.452  13.587  0.1063 -0.1676  0.0733
 1387DOPE   GL116267  24.282  11.622  13.208  0.0978  0.0118  0.0151
 1387DOPE   GL216268  24.035  11.564  13.007 -0.1609 -0.1258 -0.0685
 1387DOPE   C1A16269  24.519  11.738  12.784  0.0652  0.1125  0.2506
 1387DOPE   D2A16270  24.750  12.073  12.559 -0.2703  0.3204 -0.0631
 1387DOPE   C3A16271  24.635  12.300  12.183 -0.3092 -0.0751 -0.2281
 1387DOPE   C4A16272  24.502  12.160  11.797 -0.3086  0.0333 -0.0937
 1387DOPE   C1B16273  23.884  11.680  12.593  0.0047  0.1854  0.2988
 1387DOPE   D2B16274  23.814  11.901  12.220 -0.2839 -0.1302 -0.0803
 1387DOPE   C3B16275  23.437  12.066  12.063  0.1301  0.2608 -0.0008
 1387DOPE   C4B16276  23.213  12.295  11.738  0.0354  0.0531  0.3716
 1388POSM   NC316277  19.345   8.861  13.708  0.0306  0.0719 -0.2074
 1388POSM   PO416278  19.727   8.869  13.758 -0.1870 -0.0997  0.4238
 1388POSM   AM116279  19.693   8.979  13.413  0.0539  0.2404 -0.3472
 1388POSM   AM216280  19.508   8.998  13.202 -0.1025 -0.1128 -0.0410
 1388POSM   T1A16281  19.987   8.943  13.069  0.1000  0.2050 -0.0781
 1388POSM   C2A16282  20.233   8.954  12.662 -0.1234 -0.4080 -0.1074
 1388POSM   C3A16283  20.134   8.973  12.225  0.0834  0.2003 -0.0054
 1388POSM   C1B16284  19.477   9.218  12.992 -0.2728 -0.1627  0.0230
 1388POSM   D2B16285  19.427   9.504  12.649  0.2492 -0.0782  0.0445
 1388POSM   C3B16286  19.252   9.792  12.334 -0.0223 -0.1584 -0.1361
 1388POSM   C4B16287  18.906  10.102  12.433 -0.3083  0.1899 -0.5762
 1389DOPE   NH316288  18.216   9.627  13.710  0.0142  0.0191  0.4011
 1389DOPE   PO416289  17.963   9.813  13.672 -0.1059 -0.0370  0.0760
 1389DOPE   GL116290  18.074   9.906  13.295  0.0106  0.2115 -0.3192
 1389DOPE   GL216291  18.034   9.548  13.243 -0.0564 -0.1582 -0.2888
 1389DOPE   C1A16292  18.031   9.961  12.854  0.0110 -0.3077  0.0177
 1389DOPE   D2A16293  17.759  10.018  12.460  0.0040  0.0430 -0.2182
 1389DOPE   C3A16294  17.852  10.062  12.021  0.1032  0.1937  0.0859
 1389DOPE   C4A16295  17.755  10.380  11.709 -0.3054 -0.0961 -0.0296
 1389DOPE   C1B16296  17.914   9.460  12.734  0.1423 -0.1391 -0.1573
 1389DOPE   D2B16297  18.040   9.604  12.294 -0.1202  0.1843 -0.1019
 1389DOPE   C3B16298  18.045   9.563  11.856 -0.2172  0.0927 -0.0629
 1389DOPE   C4B16299  17.740   9.777  11.625  0.2021 -0.1611  0.4119
 1390POSM   NC316300  20.572  10.265  13.853 -0.2493  0.0320 -0.1283
 1390POSM   PO416301  20.893  10.435  13.659 -0.0225 -0.0901 -0.0169
 1390POSM   AM116302  20.907  10.511  13.334 -0.3065  0.0778  0.4228
 1390POSM   AM216303  21.075  10.620  13.171  0.0765 -0.1876  0.3147
 1390POSM   T1A16304  20.593  10.647  12.961  0.0994  0.0801  0.0495
 1390POSM   C2A16305  20.224  10.427  12.851  0.4323  0.0836  0.0076
 1390POSM   C3A16306  19.798  10.276  12.799 -0.2791 -0.2003  0.0739
 1390POSM   C1B16307  21.061  10.731  12.846  0.0987 -0.2536 -0.0679
 1390POSM   D2B16308  21.061  10.965  12.485 -0.0794 -0.2529 -0.1606
 1390POSM   C3B16309  21.258  11.195  12.115 -0.1918 -0.1865  0.0564
 1390POSM   C4B16310  21.260  11.473  11.741  0.0500 -0.0855 -0.2026
 1391DOPC   NC316311  19.647   5.371  13.558 -0.2040 -0.1127 -0.0442
 1391DOPC   PO416312  20.031   5.392  13.448  0.1606  0.2354  0.4449
 1391DOPC   GL116313  19.945   5.101  13.229  0.0363 -0.2809 -0.0071
 1391DOPC   GL216314  20.069   4.804  13.200 -0.0690  0.1466 -0.1278
 1391DOPC   C1A16315  19.550   4.967  13.143 -0.0837 -0.1350 -0.3209
 1391DOPC   D2A16316  19.344   4.694  12.914  0.2445 -0.1602 -0.0691
 1391DOPC   C3A16317  19.020   4.805  12.549  0.2263  0.3278  0.3588
 1391DOPC   C4A16318  18.851   5.143  12.306 -0.0359 -0.1894 -0.0972
 1391DOPC   C1B16319  19.890   4.774  12.777  0.2874  0.0499 -0.0084
 1391DOPC   D2B16320  19.574   4.593  12.494 -0.3219 -0.0086 -0.2750
 1391DOPC   C3B16321  19.577   4.455  12.069  0.0661  0.2168 -0.1549
 1391DOPC   C4B16322  19.584   4.699  11.698  0.2044 -0.2051  0.1301
 1392DOPE   NH316323  21.096  12.966  13.288  0.2715  0.1537  0.1030
 1392DOPE   PO416324  21.161  13.302  13.299  0.1915  0.0933 -0.0895
 1392DOPE   GL116325  21.215  13.057  12.854 -0.0490 -0.2513 -0.0564
 1392DOPE   GL216326  20.922  12.967  12.788 -0.0308 -0.3953  0.2278
 1392DOPE   C1A16327  21.135  13.344  12.508 -0.0374 -0.0449 -0.1852
 1392DOPE   D2A16328  21.172  13.478  12.045  0.3169  0.1019 -0.0424
 1392DOPE   C3A16329  21.437  13.698  11.780  0.1917  0.1596 -0.0627
 1392DOPE   C4A16330  21.313  13.998  11.489 -0.2958  0.2943 -0.1351
 1392DOPE   C1B16331  20.977  12.934  12.306 -0.0977  0.0450 -0.4508
 1392DOPE   D2B16332  21.121  12.646  11.971 -0.0205 -0.0386 -0.0829
 1392DOPE   C3B16333  21.550  12.823  11.780  0.0501 -0.3556 -0.0119
 1392DOPE   C4B16334  21.779  13.135  11.553 -0.0569 -0.1154 -0.0039
 1393POSM   NC316335  19.083   2.814  14.081 -0.2109  0.0708  0.1847
 1393POSM   PO416336  19.159   3.012  13.736  0.0056  0.0730  0.0923
 1393POSM   AM116337  19.013   2.868  13.470 -0.1291  0.1135 -0.1362
 1393POSM   AM216338  18.980   2.612  13.317 -0.0352 -0.2357 -0.1189
 1393POSM   T1A16339  18.715   3.008  13.047 -0.1285 -0.3055  0.1814
 1393POSM   C2A16340  18.614   3.029  12.591 -0.0907 -0.0509 -0.0194
 1393POSM   C3A16341  18.695   2.816  12.186 -0.0185 -0.0978  0.1179
 1393POSM   C1B16342  18.843   2.526  13.021  0.0738 -0.1458  0.0906
 1393POSM   D2B16343  18.889   2.571  12.595  0.0569  0.0238 -0.0381
 1393POSM   C3B16344  19.148   2.215  12.572 -0.1447  0.2439 -0.2257
 1393POSM   C4B16345  19.284   1.774  12.432  0.3871  0.2355  0.0696
 1394DOPE   NH316346  23.586  12.444  13.388  0.2621  0.0752  0.1323
 1394DOPE   PO416347  23.332  12.330  13.209 -0.1472  0.2502 -0.2078
 1394DOPE   GL116348  23.052  12.457  12.930 -0.1095 -0.1262  0.1043
 1394DOPE   GL216349  22.738  12.319  13.030 -0.1437 -0.3350  0.0141
 1394DOPE   C1A16350  22.850  12.660  12.585  0.0682  0.0735  0.0904
 1394DOPE   D2A16351  22.554  12.590  12.183  0.0792  0.0971  0.1705
 1394DOPE   C3A16352  22.204  12.385  12.248  0.1821 -0.1091  0.2526
 1394DOPE   C4A16353  21.725  12.303  12.297 -0.3391 -0.2547  0.1083
 1394DOPE   C1B16354  22.562  12.235  12.584 -0.0132 -0.3093 -0.3239
 1394DOPE   D2B16355  22.261  11.918  12.339 -0.1563  0.0403  0.1632
 1394DOPE   C3B16356  22.215  11.554  12.055  0.0642  0.3037  0.0518
 1394DOPE   C4B16357  22.361  11.464  11.653  0.0028  0.2540  0.0978
 1395DOPE   NH316358  12.610   2.950  14.985 -0.0329 -0.0662 -0.0338
 1395DOPE   PO416359  12.947   2.991  14.952  0.2390  0.0891 -0.1935
 1395DOPE   GL116360  13.245   3.024  14.638  0.2869  0.5448 -0.0756
 1395DOPE   GL216361  13.206   2.738  14.459 -0.2257 -0.0546 -0.0416
 1395DOPE   C1A16362  13.609   3.161  14.431 -0.2088  0.1853 -0.0102
 1395DOPE   D2A16363  13.599   3.388  14.064  0.1146  0.2634 -0.2473
 1395DOPE   C3A16364  13.877   3.671  13.892 -0.0565  0.1487 -0.0804
 1395DOPE   C4A16365  14.287   3.849  13.842 -0.2456 -0.1548 -0.0309
 1395DOPE   C1B16366  12.865   2.607  14.213  0.2488  0.0706  0.0835
 1395DOPE   D2B16367  12.554   2.397  13.950  0.2381  0.0271 -0.1220
 1395DOPE   C3B16368  12.325   2.032  14.002  0.4448  0.1208  0.0973
 1395DOPE   C4B16369  12.390   1.677  13.759 -0.1454 -0.1036  0.1118
 1396DOPE   NH316370  19.690   6.916  13.398  0.0368  0.0675 -0.1866
 1396DOPE   PO416371  19.834   7.200  13.435  0.2071  0.0013 -0.0935
 1396DOPE   GL116372  19.942   7.133  13.059 -0.1128 -0.2832 -0.1622
 1396DOPE   GL216373  19.859   7.413  12.927 -0.2066 -0.0500  0.1917
 1396DOPE   C1A16374  20.159   6.985  12.670  0.3229 -0.0219  0.0874
 1396DOPE   D2A16375  20.328   7.038  12.248 -0.0633  0.0807  0.2477
 1396DOPE   C3A16376  20.643   6.783  12.101  0.0287 -0.1015  0.2830
 1396DOPE   C4A16377  20.940   6.424  12.132 -0.2119  0.1061 -0.1769
 1396DOPE   C1B16378  19.708   7.547  12.550  0.0644 -0.0490  0.3446
 1396DOPE   D2B16379  19.526   7.696  12.171 -0.1810 -0.0183  0.2046
 1396DOPE   C3B16380  19.800   7.800  11.859  0.0634 -0.0821  0.0108
 1396DOPE   C4B16381  20.173   7.699  11.587 -0.2876 -0.1118  0.0805
 1397DOPE   NH316382  12.327   0.209  14.555  0.0828  0.0017 -0.2826
 1397DOPE   PO416383  12.661   0.166  14.502 -0.1762 -0.1133 -0.5052
 1397DOPE   GL116384  12.553   0.420  14.231 -0.0983  0.0778 -0.2073
 1397DOPE   GL216385  12.278   0.397  14.055 -0.2741 -0.3052  0.2363
 1397DOPE   C1A16386  12.725   0.774  13.920  0.0166  0.2084  0.0587
 1397DOPE   D2A16387  12.814   0.668  13.498 -0.3066  0.0875 -0.0891
 1397DOPE   C3A16388  13.146   0.277  13.451 -0.0429  0.1814  0.4825
 1397DOPE   C4A16389  13.157  -0.137  13.683  0.0585  0.0629 -0.2870
 1397DOPE   C1B16390  12.324   0.534  13.645  0.0019 -0.1436  0.0508
 1397DOPE   D2B16391  12.361   0.629  13.156 -0.3990 -0.0642  0.3013
 1397DOPE   C3B16392  12.008   0.392  12.954 -0.1980  0.0585 -0.3576
 1397DOPE   C4B16393  11.705   0.032  12.869  0.1012  0.1381 -0.2525
 1398POSM   NC316394  19.612   3.136  13.623  0.0342  0.0192  0.4798
 1398POSM   PO416395  19.793   3.500  13.543  0.0764 -0.0659  0.2212
 1398POSM   AM116396  19.703   3.406  13.238 -0.0793  0.0929  0.2554
 1398POSM   AM216397  19.743   3.167  13.112  0.0103 -0.1273 -0.2407
 1398POSM   T1A16398  19.477   3.695  12.853 -0.0053 -0.2291  0.0692
 1398POSM   C2A16399  19.396   3.735  12.369  0.1989  0.1137  0.0943
 1398POSM   C3A16400  19.311   3.505  11.978  0.3474 -0.2150 -0.0942
 1398POSM   C1B16401  19.598   3.143  12.824 -0.1306  0.2376  0.0427
 1398POSM   D2B16402  19.332   3.248  12.484  0.0902 -0.0449  0.0576
 1398POSM   C3B16403  19.151   2.906  12.185 -0.0277  0.0415  0.4379
 1398POSM   C4B16404  19.017   2.468  11.958  0.1858 -0.1469 -0.1293
 1399DOPE   NH316405  22.957   8.318  13.678 -0.2320  0.1403  0.0422
 1399DOPE   PO416406  23.228   8.501  13.755 -0.1294  0.2060 -0.2394
 1399DOPE   GL116407  23.211   8.569  13.327 -0.2173 -0.0868  0.1026
 1399DOPE   GL216408  22.945   8.479  13.205 -0.1957  0.1497  0.2051
 1399DOPE   C1A16409  23.525   8.633  12.992  0.1252 -0.3285 -0.0930
 1399DOPE   D2A16410  23.477   9.019  12.663  0.1015  0.2728  0.1313
 1399DOPE   C3A16411  23.665   9.171  12.250  0.1333  0.0485  0.2214
 1399DOPE   C4A16412  23.888   9.161  11.844  0.0106  0.2185 -0.1397
 1399DOPE   C1B16413  22.963   8.784  12.840 -0.0474 -0.1195 -0.1617
 1399DOPE   D2B16414  22.891   8.958  12.374 -0.0199  0.1455  0.0378
 1399DOPE   C3B16415  23.050   8.602  12.094 -0.1512 -0.1463 -0.1078
 1399DOPE   C4B16416  23.348   8.607  11.751  0.1859  0.0331  0.2867
 1400DOPE   NH316417  22.978  14.133  13.389  0.0345 -0.0383 -0.1521
 1400DOPE   PO416418  22.911  13.843  13.287  0.0908 -0.0455  0.1929
 1400DOPE   GL116419  22.841  13.775  12.923 -0.0681  0.1806  0.0893
 1400DOPE   GL216420  23.061  13.847  12.770 -0.0676 -0.2052 -0.1748
 1400DOPE   C1A16421  22.677  13.517  12.607 -0.1621 -0.1061 -0.0052
 1400DOPE   D2A16422  22.736  13.105  12.513  0.2319  0.1251  0.1057
 1400DOPE   C3A16423  22.486  13.071  12.169  0.1069  0.0093 -0.3112
 1400DOPE   C4A16424  22.250  13.245  11.862  0.1383  0.3614 -0.1774
 1400DOPE   C1B16425  23.377  14.162  12.664 -0.2394 -0.1594  0.1602
 1400DOPE   D2B16426  23.571  14.311  12.331 -0.3113  0.2678 -0.0152
 1400DOPE   C3B16427  23.205  14.374  12.080 -0.1388 -0.0372  0.1199
 1400DOPE   C4B16428  23.010  14.199  11.705  0.2350  0.1580 -0.1458
 1401POSM   NC316429  19.688   3.843  13.882  0.0515  0.1175 -0.1629
 1401POSM   PO416430  19.877   4.069  13.641  0.3272 -0.2686 -0.1502
 1401POSM   AM116431  19.949   3.959  13.337 -0.2242  0.0113  0.0477
 1401POSM   AM216432  20.132   3.820  13.133 -0.1186 -0.2215  0.2626
 1401POSM   T1A16433  19.937   4.180  12.874 -0.0234 -0.0153  0.1551
 1401POSM   C2A16434  19.774   4.054  12.418 -0.0459  0.2461 -0.1375
 1401POSM   C3A16435  19.720   3.976  11.952 -0.2565 -0.0136 -0.2379
 1401POSM   C1B16436  19.968   3.617  12.914  0.0189  0.0319  0.1426
 1401POSM   D2B16437  19.875   3.400  12.523 -0.0746 -0.1804  0.2520
 1401POSM   C3B16438  19.838   3.544  12.108 -0.0798  0.2090  0.0357
 1401POSM   C4B16439  19.821   3.578  11.635  0.3342 -0.2797  0.0568
 1402DOPC   NC316440  18.714  10.855  13.440 -0.0094 -0.2173 -0.0878
 1402DOPC   PO416441  18.445  11.115  13.620  0.4566 -0.0571  0.0878
 1402DOPC   GL116442  18.283  11.093  13.216  0.1260  0.0953 -0.1195
 1402DOPC   GL216443  18.155  11.277  13.115 -0.2121 -0.1049 -0.2610
 1402DOPC   C1A16444  18.186  10.962  12.754 -0.1559  0.0347 -0.2325
 1402DOPC   D2A16445  18.032  10.913  12.292 -0.1665 -0.1176 -0.1370
 1402DOPC   C3A16446  17.775  11.282  12.178  0.1188 -0.2965 -0.0665
 1402DOPC   C4A16447  17.556  11.485  11.774 -0.1161 -0.0595 -0.1823
 1402DOPC   C1B16448  17.927  11.377  12.656  0.0625 -0.0032 -0.4247
 1402DOPC   D2B16449  17.680  11.746  12.493  0.1447  0.1333  0.1464
 1402DOPC   C3B16450  17.375  11.539  12.255  0.0469 -0.0319  0.2290
 1402DOPC   C4B16451  17.141  11.309  11.949 -0.0004  0.2691 -0.1402
 1403DOPE   NH316452  11.709   0.797  14.813 -0.0291 -0.3391 -0.2733
 1403DOPE   PO416453  11.419   0.637  14.802  0.3866 -0.2807 -0.1946
 1403DOPE   GL116454  11.346   0.842  14.510 -0.2756  0.0630 -0.1777
 1403DOPE   GL216455  11.542   1.039  14.426 -0.1666  0.2958 -0.3076
 1403DOPE   C1A16456  11.171   0.639  14.107  0.0623  0.1868  0.3416
 1403DOPE   D2A16457  11.375   0.512  13.725  0.2583  0.0735  0.1090
 1403DOPE   C3A16458  11.518   0.945  13.703 -0.2881 -0.2543 -0.1169
 1403DOPE   C4A16459  11.480   1.404  13.685  0.2158 -0.1705  0.0310
 1403DOPE   C1B16460  11.745   1.169  14.085 -0.3262  0.2196 -0.0138
 1403DOPE   D2B16461  12.087   1.320  13.733  0.2803  0.1500  0.1953
 1403DOPE   C3B16462  12.398   1.182  13.424  0.0040  0.4290  0.1643
 1403DOPE   C4B16463  12.726   1.070  13.128  0.4403 -0.1897  0.0317
 1404DOPC   NC316464  21.382   3.397  13.311 -0.0058  0.0149 -0.0682
 1404DOPC   PO416465  21.300   3.198  13.625  0.0690  0.4708 -0.1714
 1404DOPC   GL116466  21.294   2.962  13.263  0.3283 -0.2028 -0.0450
 1404DOPC   GL216467  21.125   2.757  13.103  0.1768 -0.1099  0.0904
 1404DOPC   C1A16468  21.406   3.007  12.818 -0.0778 -0.0962  0.1920
 1404DOPC   D2A16469  21.388   3.183  12.349  0.1132  0.2439  0.4606
 1404DOPC   C3A16470  21.088   3.304  12.018  0.0064  0.0813  0.0858
 1404DOPC   C4A16471  20.923   3.496  11.660  0.3949 -0.2919 -0.3946
 1404DOPC   C1B16472  21.138   2.723  12.564  0.1334  0.1253  0.0791
 1404DOPC   D2B16473  21.198   2.796  12.125 -0.1996 -0.1382  0.0623
 1404DOPC   C3B16474  21.496   3.047  11.831 -0.0449  0.0805 -0.3377
 1404DOPC   C4B16475  21.508   3.176  11.363 -0.1126 -0.0845 -0.0122
 1405POSM   NC316476  13.383   1.077  14.885  0.0661 -0.0676 -0.2372
 1405POSM   PO416477  13.639   1.356  14.812 -0.0310  0.2938  0.2575
 1405POSM   AM116478  13.854   1.486  14.598  0.1614  0.0247 -0.0017
 1405POSM   AM216479  13.877   1.505  14.311 -0.0631 -0.2199  0.2443
 1405POSM   T1A16480  14.282   1.735  14.555 -0.2645 -0.1021 -0.1287
 1405POSM   C2A16481  14.703   1.720  14.292 -0.0631 -0.4685  0.5021
 1405POSM   C3A16482  14.697   1.679  13.879  0.1410  0.0169  0.0121
 1405POSM   C1B16483  13.661   1.392  14.129 -0.0179  0.5059 -0.0723
 1405POSM   D2B16484  13.565   1.157  13.712 -0.0667 -0.0450  0.1488
 1405POSM   C3B16485  13.498   1.475  13.391 -0.0058 -0.1614 -0.1661
 1405POSM   C4B16486  13.250   1.906  13.266  0.2932  0.2465 -0.1647
 1406DOPE   NH316487  17.823   3.596  14.262  0.2393 -0.0825 -0.1291
 1406DOPE   PO416488  18.058   3.706  14.036  0.0362 -0.2078  0.0034
 1406DOPE   GL116489  17.898   3.698  13.723 -0.1015 -0.1200  0.0289
 1406DOPE   GL216490  18.005   3.911  13.600  0.2026  0.1493 -0.1092
 1406DOPE   C1A16491  17.549   3.578  13.378 -0.2319 -0.1373 -0.0908
 1406DOPE   D2A16492  17.255   3.556  13.057  0.2530  0.2645 -0.1273
 1406DOPE   C3A16493  16.848   3.448  13.178  0.0144  0.2661  0.0137
 1406DOPE   C4A16494  16.705   3.219  13.579 -0.3110 -0.1140  0.0705
 1406DOPE   C1B16495  18.026   3.575  13.269  0.2258 -0.0737  0.0811
 1406DOPE   D2B16496  17.818   3.317  12.922  0.1165  0.2335  0.0915
 1406DOPE   C3B16497  17.513   3.403  12.618  0.1456  0.0913  0.0323
 1406DOPE   C4B16498  17.505   3.779  12.318  0.0889 -0.2835  0.0860
 1407DOPE   NH316499  22.410   0.357  13.228 -0.0870 -0.0489  0.1204
 1407DOPE   PO416500  22.735   0.444  13.333  0.1237  0.1431 -0.0372
 1407DOPE   GL116501  22.999   0.317  13.063  0.3382  0.3170 -0.0605
 1407DOPE   GL216502  22.800   0.146  12.834  0.0319  0.1260  0.1624
 1407DOPE   C1A16503  23.256   0.322  12.653  0.0715  0.2434 -0.2052
 1407DOPE   D2A16504  23.394   0.234  12.258  0.1766 -0.1131  0.1294
 1407DOPE   C3A16505  23.168   0.372  11.867  0.0838 -0.3617 -0.3441
 1407DOPE   C4A16506  23.137   0.500  11.400  0.0231  0.0823 -0.2015
 1407DOPE   C1B16507  22.513   0.438  12.652  0.0022  0.0594 -0.0656
 1407DOPE   D2B16508  22.594   0.836  12.500 -0.2600 -0.0387 -0.1187
 1407DOPE   C3B16509  22.572   0.764  12.045  0.0941  0.1022 -0.1613
 1407DOPE   C4B16510  22.726   0.487  11.714  0.1045 -0.1790  0.0118
 1408POSM   NC316511  14.862  30.100  13.772 -0.2108 -0.0102 -0.0257
 1408POSM   PO416512  14.765  30.486  13.802  0.0431  0.2420  0.0031
 1408POSM   AM116513  14.770  30.620  13.468  0.2438  0.0477 -0.0763
 1408POSM   AM216514  14.673  30.889  13.372  0.1552  0.3610 -0.0083
 1408POSM   T1A16515  14.854  30.671  12.961 -0.2700  0.2298 -0.0258
 1408POSM   C2A16516  15.007  30.754  12.563 -0.0611  0.0737  0.1956
 1408POSM   C3A16517  15.027  30.542  12.111  0.2007 -0.0381 -0.1213
 1408POSM   C1B16518  14.626  31.074  13.096  0.0233 -0.2857 -0.1420
 1408POSM   D2B16519  14.590  30.948  12.711 -0.1499  0.1472  0.0679
 1408POSM   C3B16520  14.749  31.320  12.489 -0.1647  0.0819  0.0411
 1408POSM   C4B16521  14.895  31.599  12.214  0.4042  0.0834 -0.0881
 1409DOPS   CNO16522  21.272   1.925  13.665  0.1142  0.4431  0.2585
 1409DOPS   PO416523  21.605   2.090  13.622  0.2066  0.1015 -0.0409
 1409DOPS   GL116524  21.664   2.379  13.299 -0.2467 -0.0821  0.4122
 1409DOPS   GL216525  21.827   2.248  13.122  0.0014 -0.2686 -0.0389
 1409DOPS   C1A16526  21.487   2.477  12.870  0.1150 -0.0313  0.1355
 1409DOPS   D2A16527  21.583   2.721  12.447 -0.0905 -0.0159  0.0582
 1409DOPS   C3A16528  21.677   2.612  12.030 -0.2379 -0.2220  0.0065
 1409DOPS   C4A16529  21.439   2.606  11.645  0.2170  0.0973  0.1217
 1409DOPS   C1B16530  22.118   2.132  12.825 -0.1559 -0.1258 -0.0488
 1409DOPS   D2B16531  22.274   1.756  12.550 -0.0021  0.2672  0.0673
 1409DOPS   C3B16532  21.935   1.593  12.306  0.1025  0.0354  0.0274
 1409DOPS   C4B16533  21.536   1.357  12.233 -0.2440  0.1154 -0.0427
 1410DOPC   NC316534  14.436  11.403  14.616  0.0781  0.1172 -0.0697
 1410DOPC   PO416535  14.226  11.683  14.413 -0.1485 -0.0736 -0.4629
 1410DOPC   GL116536  14.173  11.736  14.040 -0.1875 -0.0817  0.1067
 1410DOPC   GL216537  14.200  12.021  13.970  0.0829  0.2049 -0.1140
 1410DOPC   C1A16538  14.280  11.543  13.640  0.0636  0.0655  0.1906
 1410DOPC   D2A16539  14.559  11.317  13.302 -0.1210  0.3466  0.3215
 1410DOPC   C3A16540  14.432  11.050  12.927  0.0506  0.1158  0.2532
 1410DOPC   C4A16541  14.347  10.912  12.512 -0.1830 -0.1784 -0.1856
 1410DOPC   C1B16542  13.965  11.997  13.564 -0.2153  0.2005 -0.0729
 1410DOPC   D2B16543  13.834  11.918  13.100  0.1477  0.1290 -0.0504
 1410DOPC   C3B16544  13.677  11.558  12.921 -0.3421  0.0076  0.0653
 1410DOPC   C4B16545  13.296  11.455  12.648  0.1433 -0.2578  0.0546
 1411POSM   NC316546  16.109   6.572  14.736 -0.1888 -0.1366 -0.5254
 1411POSM   PO416547  16.524   6.585  14.733  0.0824 -0.2649  0.0264
 1411POSM   AM116548  16.666   6.777  14.523 -0.2997  0.0911 -0.0574
 1411POSM   AM216549  16.882   6.805  14.367 -0.1441  0.0821 -0.0251
 1411POSM   T1A16550  16.613   7.150  14.204 -0.0296 -0.1117 -0.1250
 1411POSM   C2A16551  16.521   7.601  14.074  0.0745 -0.1088  0.1591
 1411POSM   C3A16552  16.387   8.062  13.898 -0.1837  0.0914  0.0948
 1411POSM   C1B16553  16.944   6.757  13.999  0.1958 -0.0182 -0.1245
 1411POSM   D2B16554  17.076   6.850  13.552  0.1126  0.3529 -0.1313
 1411POSM   C3B16555  16.791   6.970  13.242 -0.2491 -0.1993  0.1416
 1411POSM   C4B16556  16.669   7.400  13.065  0.1683  0.0262  0.0118
 1412DOPE   NH316557  17.964   2.550  14.383  0.0370  0.0008  0.0740
 1412DOPE   PO416558  17.776   2.699  14.163  0.0323 -0.0682  0.4134
 1412DOPE   GL116559  17.472   2.485  13.958 -0.2390  0.1517  0.0371
 1412DOPE   GL216560  17.365   2.706  13.805  0.3111 -0.1963  0.2665
 1412DOPE   C1A16561  17.212   2.206  13.661  0.0451  0.1018 -0.0527
 1412DOPE   D2A16562  17.242   2.034  13.196  0.0194 -0.2381  0.0582
 1412DOPE   C3A16563  16.966   2.192  12.847 -0.1617 -0.1908  0.2062
 1412DOPE   C4A16564  16.883   2.502  12.453 -0.1401 -0.0683  0.2455
 1412DOPE   C1B16565  17.203   2.661  13.410  0.2435  0.0724  0.3401
 1412DOPE   D2B16566  17.208   2.548  13.025  0.3885 -0.2343 -0.0910
 1412DOPE   C3B16567  17.398   2.359  12.589  0.0002 -0.2018 -0.0198
 1412DOPE   C4B16568  17.725   2.228  12.318  0.2884 -0.1649 -0.0382
 1413DOPS   CNO16569  17.868   2.025  14.260 -0.0034  0.4611  0.0621
 1413DOPS   PO416570  17.894   2.199  13.932  0.2862  0.1526 -0.2104
 1413DOPS   GL116571  17.949   2.331  13.526 -0.1914  0.1091 -0.4694
 1413DOPS   GL216572  17.613   2.361  13.432  0.1071 -0.3088 -0.1761
 1413DOPS   C1A16573  18.184   2.270  13.138  0.1315 -0.0998 -0.0228
 1413DOPS   D2A16574  18.421   2.562  12.809 -0.0097  0.1173  0.1004
 1413DOPS   C3A16575  18.332   2.533  12.357 -0.1922  0.2325 -0.0254
 1413DOPS   C4A16576  18.209   2.654  11.953  0.1479 -0.0693  0.2730
 1413DOPS   C1B16577  17.742   2.177  13.051  0.3510  0.2262  0.1175
 1413DOPS   D2B16578  17.580   1.810  12.884  0.3256 -0.2882 -0.1740
 1413DOPS   C3B16579  17.589   1.555  12.490  0.0751  0.0895 -0.1338
 1413DOPS   C4B16580  17.232   1.433  12.268  0.0425  0.0951  0.1812
 1414DOPS   CNO16581  22.108  11.992  13.259 -0.1375  0.0782 -0.2865
 1414DOPS   PO416582  21.907  12.214  13.518 -0.2971  0.1150  0.0839
 1414DOPS   GL116583  21.812  12.400  13.142 -0.0109  0.0845 -0.3380
 1414DOPS   GL216584  21.524  12.261  13.064  0.0149 -0.3277 -0.2996
 1414DOPS   C1A16585  21.830  12.639  12.768  0.1747  0.0690  0.3322
 1414DOPS   D2A16586  21.748  13.032  12.550  0.2026 -0.2205  0.3511
 1414DOPS   C3A16587  21.642  13.472  12.500  0.0497 -0.1042  0.2074
 1414DOPS   C4A16588  21.331  13.825  12.394  0.0534 -0.0970  0.0412
 1414DOPS   C1B16589  21.391  12.572  12.825  0.2008 -0.0853  0.1417
 1414DOPS   D2B16590  21.369  12.614  12.370 -0.2223  0.1959 -0.1576
 1414DOPS   C3B16591  21.401  13.090  12.206 -0.1133 -0.0672  0.0003
 1414DOPS   C4B16592  21.718  13.337  12.013 -0.0811  0.0031 -0.1292
 1415DOPE   NH316593  21.508   0.675  13.530  0.2271 -0.1676 -0.3820
 1415DOPE   PO416594  21.536   0.973  13.379  0.0528 -0.1533 -0.4996
 1415DOPE   GL116595  21.545   0.850  13.000 -0.1112 -0.3095  0.2064
 1415DOPE   GL216596  21.535   0.536  13.083 -0.1094 -0.1566  0.2075
 1415DOPE   C1A16597  21.625   0.736  12.566  0.1619  0.0371  0.3786
 1415DOPE   D2A16598  21.723   0.462  12.186 -0.2872 -0.1281  0.1046
 1415DOPE   C3A16599  21.509   0.384  11.813 -0.0356  0.0255 -0.1370
 1415DOPE   C4A16600  21.627   0.429  11.388 -0.2750 -0.1823 -0.0732
 1415DOPE   C1B16601  21.231   0.573  12.799 -0.6108 -0.2999  0.3048
 1415DOPE   D2B16602  20.776   0.564  12.894  0.2163 -0.3287  0.0391
 1415DOPE   C3B16603  20.356   0.401  12.830 -0.2337  0.2798 -0.2154
 1415DOPE   C4B16604  20.044   0.262  12.527 -0.2552 -0.0248 -0.0856
 1416DOPC   NC316605  16.793   3.880  14.520 -0.2534  0.1639  0.1566
 1416DOPC   PO416606  16.573   4.184  14.536 -0.0102  0.0724  0.2660
 1416DOPC   GL116607  16.442   4.441  14.261  0.0594 -0.1902 -0.1039
 1416DOPC   GL216608  16.188   4.250  14.202 -0.3272 -0.3812 -0.1622
 1416DOPC   C1A16609  16.573   4.385  13.858  0.0181 -0.1962 -0.4774
 1416DOPC   D2A16610  16.640   4.318  13.447 -0.0934  0.0246  0.2987
 1416DOPC   C3A16611  16.350   4.441  13.107 -0.0432 -0.0723  0.3728
 1416DOPC   C4A16612  15.943   4.486  12.916 -0.0764 -0.0161  0.1931
 1416DOPC   C1B16613  16.196   3.992  13.888 -0.3236 -0.1865  0.2356
 1416DOPC   D2B16614  16.146   4.015  13.424 -0.0417 -0.2518 -0.2924
 1416DOPC   C3B16615  16.375   3.884  13.040 -0.0890  0.1063  0.2371
 1416DOPC   C4B16616  16.759   3.777  12.807  0.1745  0.1507  0.0738
 1417DOPS   CNO16617  22.463   6.780  13.643 -0.0663 -0.1864 -0.2095
 1417DOPS   PO416618  22.644   7.018  13.361 -0.1437 -0.0188 -0.2091
 1417DOPS   GL116619  22.924   7.249  13.055  0.0614  0.2920  0.0288
 1417DOPS   GL216620  22.935   7.071  12.820 -0.2679  0.2232  0.0390
 1417DOPS   C1A16621  22.913   7.639  12.772 -0.1885 -0.4426 -0.1843
 1417DOPS   D2A16622  23.267   7.756  12.468 -0.1380 -0.0480 -0.0695
 1417DOPS   C3A16623  23.256   7.637  12.017 -0.0252  0.2954  0.0933
 1417DOPS   C4A16624  23.082   7.648  11.586  0.2042  0.5033  0.3651
 1417DOPS   C1B16625  23.088   6.786  12.531 -0.1265  0.1555  0.3878
 1417DOPS   D2B16626  22.910   6.658  12.164  0.1915  0.4456 -0.0710
 1417DOPS   C3B16627  23.130   6.594  11.784 -0.0489 -0.3675  0.0455
 1417DOPS   C4B16628  23.386   6.223  11.660  0.0024  0.1506 -0.0806
 1418DOPE   NH316629  19.819   8.497  13.408 -0.0109 -0.0196  0.2346
 1418DOPE   PO416630  19.499   8.454  13.375 -0.0792  0.1052 -0.0119
 1418DOPE   GL116631  19.510   8.474  13.047  0.0029 -0.4627 -0.1295
 1418DOPE   GL216632  19.765   8.505  12.900 -0.1489  0.1057 -0.1484
 1418DOPE   C1A16633  19.327   8.452  12.645  0.1022 -0.1210 -0.0628
 1418DOPE   D2A16634  19.133   8.639  12.276 -0.2549 -0.1078 -0.0906
 1418DOPE   C3A16635  19.026   9.119  12.184  0.2510  0.0503  0.2524
 1418DOPE   C4A16636  19.050   9.482  11.880 -0.1475 -0.1429  0.0308
 1418DOPE   C1B16637  19.749   8.873  12.633  0.0189  0.1037  0.0685
 1418DOPE   D2B16638  19.504   9.042  12.286 -0.0988 -0.2029 -0.2446
 1418DOPE   C3B16639  19.514   9.442  12.127 -0.2710  0.0790  0.1408
 1418DOPE   C4B16640  19.432   9.824  11.889 -0.1101 -0.1761  0.0227
 1419DOPE   NH316641  18.711   6.904  13.840 -0.0683  0.1186 -0.2312
 1419DOPE   PO416642  18.830   7.197  13.806 -0.0338  0.0390  0.3732
 1419DOPE   GL116643  18.541   7.145  13.534 -0.3783  0.1196  0.3708
 1419DOPE   GL216644  18.624   6.968  13.238  0.0487 -0.0452 -0.0463
 1419DOPE   C1A16645  18.449   7.398  13.127  0.3379 -0.3006 -0.0192
 1419DOPE   D2A16646  18.225   7.567  12.747  0.2176 -0.0094  0.0204
 1419DOPE   C3A16647  18.143   7.770  12.316 -0.5040 -0.1098  0.1448
 1419DOPE   C4A16648  17.973   7.811  11.870  0.0098  0.1489 -0.1255
 1419DOPE   C1B16649  18.554   6.555  13.000 -0.2488 -0.0997  0.1182
 1419DOPE   D2B16650  18.488   6.283  12.633 -0.2526 -0.3380  0.0072
 1419DOPE   C3B16651  18.201   6.468  12.325 -0.0360 -0.0439  0.1890
 1419DOPE   C4B16652  17.798   6.601  12.326  0.3233  0.1552  0.0745
 1420DOPE   NH316653  20.827   5.909  13.925 -0.0117  0.4030  0.0581
 1420DOPE   PO416654  20.871   5.633  13.757 -0.0094 -0.0305 -0.0070
 1420DOPE   GL116655  20.879   5.855  13.395  0.0727  0.1949 -0.0078
 1420DOPE   GL216656  20.596   5.765  13.275 -0.1534  0.0039  0.0330
 1420DOPE   C1A16657  21.077   5.778  12.964 -0.1304  0.0056  0.1405
 1420DOPE   D2A16658  20.958   5.668  12.523 -0.1733 -0.1417 -0.1373
 1420DOPE   C3A16659  20.821   5.876  12.159 -0.2222  0.1516 -0.1869
 1420DOPE   C4A16660  20.718   5.951  11.713 -0.0091 -0.1040 -0.0793
 1420DOPE   C1B16661  20.503   5.617  12.822 -0.0285 -0.0671 -0.0629
 1420DOPE   D2B16662  20.457   5.491  12.382 -0.1730 -0.0098 -0.2950
 1420DOPE   C3B16663  20.385   5.668  11.976  0.2053  0.0133 -0.0380
 1420DOPE   C4B16664  20.289   5.374  11.540  0.4118  0.3187 -0.1717
 1421DOPC   NC316665  24.461  12.376  13.515  0.0514 -0.3767 -0.0324
 1421DOPC   PO416666  24.837  12.427  13.636 -0.0660 -0.0066 -0.1751
 1421DOPC   GL116667  24.859  12.492  13.217  0.1683 -0.3439 -0.0575
 1421DOPC   GL216668  25.118  12.532  13.211 -0.1953  0.4790  0.1218
 1421DOPC   C1A16669  24.869  12.895  12.960  0.1962 -0.2112  0.0088
 1421DOPC   D2A16670  24.600  13.090  12.610  0.1866 -0.1829  0.0095
 1421DOPC   C3A16671  24.855  13.274  12.226  0.0629 -0.1826 -0.0499
 1421DOPC   C4A16672  24.927  13.203  11.774 -0.0831 -0.0896  0.1661
 1421DOPC   C1B16673  25.007  12.444  12.766 -0.0363  0.0339 -0.2906
 1421DOPC   D2B16674  25.029  12.798  12.464 -0.4409 -0.1215 -0.0935
 1421DOPC   C3B16675  24.647  12.783  12.166  0.0983  0.0642 -0.1465
 1421DOPC   C4B16676  24.648  12.690  11.717 -0.2620  0.2141 -0.0494
 1422POSM   NC316677  15.415   5.137  15.390 -0.1342 -0.0124  0.0644
 1422POSM   PO416678  15.596   5.400  15.146 -0.0135  0.1514  0.1032
 1422POSM   AM116679  15.544   5.535  14.838 -0.0539 -0.1048 -0.3114
 1422POSM   AM216680  15.265   5.600  14.677 -0.2266  0.0531 -0.4182
 1422POSM   T1A16681  15.767   5.756  14.469  0.2169 -0.2070  0.2043
 1422POSM   C2A16682  15.853   5.839  14.037  0.1421 -0.0329 -0.1452
 1422POSM   C3A16683  15.813   6.094  13.655  0.0536 -0.1384  0.0620
 1422POSM   C1B16684  15.340   5.612  14.360  0.1740 -0.1622  0.0384
 1422POSM   D2B16685  15.210   5.672  13.959  0.0772  0.1236  0.0884
 1422POSM   C3B16686  15.369   5.803  13.577  0.1060 -0.0040 -0.2805
 1422POSM   C4B16687  15.702   5.800  13.202 -0.0674 -0.0562  0.2392
 1423POSM   NC316688  15.571   9.618  14.539 -0.3172  0.0289  0.0254
 1423POSM   PO416689  15.230   9.851  14.566 -0.0741  0.0063 -0.2934
 1423POSM   AM116690  15.096   9.819  14.256  0.2054 -0.5313 -0.2631
 1423POSM   AM216691  15.143   9.704  14.004  0.0163  0.0379  0.0245
 1423POSM   T1A16692  14.590   9.726  14.139  0.1470  0.3294 -0.0511
 1423POSM   C2A16693  14.287  10.053  13.970  0.2671 -0.1967 -0.0306
 1423POSM   C3A16694  14.169  10.382  13.602  0.0582 -0.1992 -0.2429
 1423POSM   C1B16695  14.877   9.646  13.749 -0.2553 -0.0712  0.2369
 1423POSM   D2B16696  14.393   9.687  13.636 -0.2095  0.1470 -0.1159
 1423POSM   C3B16697  14.256   9.826  13.192 -0.3566 -0.1638  0.1584
 1423POSM   C4B16698  14.267   9.782  12.753 -0.0461  0.2114 -0.1122
 1424DOPC   NC316699  14.786   2.566  14.788  0.1233  0.1874  0.1765
 1424DOPC   PO416700  15.135   2.738  14.869 -0.1920  0.3890 -0.1938
 1424DOPC   GL116701  15.160   2.873  14.515  0.1984  0.0693 -0.1540
 1424DOPC   GL216702  15.163   3.228  14.427  0.1366 -0.1345 -0.0986
 1424DOPC   C1A16703  15.039   2.898  14.059  0.1021 -0.3077 -0.1743
 1424DOPC   D2A16704  14.711   3.049  13.861  0.1014  0.2681 -0.2375
 1424DOPC   C3A16705  14.756   3.157  13.432 -0.0408 -0.2922  0.1366
 1424DOPC   C4A16706  14.654   2.734  13.270 -0.3169  0.0262 -0.2949
 1424DOPC   C1B16707  15.256   3.662  14.254  0.5442 -0.0957  0.0885
 1424DOPC   D2B16708  15.231   4.061  14.314 -0.1865 -0.1102  0.0855
 1424DOPC   C3B16709  15.223   4.348  13.943  0.1681  0.3359 -0.2932
 1424DOPC   C4B16710  15.384   4.646  13.619  0.1534  0.3541  0.0078
 1425DOPC   NC316711  18.915   7.599  13.366 -0.0421 -0.3056  0.1887
 1425DOPC   PO416712  18.715   7.709  13.657 -0.0997  0.2330 -0.1540
 1425DOPC   GL116713  18.528   7.855  13.316 -0.2231  0.0587  0.1527
 1425DOPC   GL216714  18.729   7.882  13.009 -0.2470  0.1682  0.2924
 1425DOPC   C1A16715  18.257   8.077  13.061 -0.1183  0.0706 -0.0165
 1425DOPC   D2A16716  18.201   8.316  12.663  0.0485 -0.0623 -0.0790
 1425DOPC   C3A16717  17.878   8.191  12.354  0.1828 -0.1094  0.3842
 1425DOPC   C4A16718  17.483   8.100  12.145 -0.0838  0.0767 -0.0955
 1425DOPC   C1B16719  18.569   7.854  12.589 -0.1563  0.1289  0.3293
 1425DOPC   D2B16720  18.569   7.691  12.145 -0.2195  0.1187  0.0212
 1425DOPC   C3B16721  18.564   7.310  11.821  0.1956 -0.0073  0.0404
 1425DOPC   C4B16722  18.602   7.058  11.410 -0.0250 -0.3265 -0.2923
 1426DOPS   CNO16723  16.172   7.495  14.614  0.3236  0.1147 -0.0813
 1426DOPS   PO416724  16.135   7.888  14.746 -0.1669 -0.1042 -0.0637
 1426DOPS   GL116725  16.019   7.847  14.359  0.1029 -0.2695 -0.2043
 1426DOPS   GL216726  15.713   7.788  14.365 -0.0643 -0.2320  0.4241
 1426DOPS   C1A16727  15.872   7.899  13.939 -0.0082 -0.0350  0.1862
 1426DOPS   D2A16728  15.684   8.143  13.627  0.4049 -0.0756 -0.1284
 1426DOPS   C3A16729  15.677   8.447  13.235 -0.1365  0.0367  0.0040
 1426DOPS   C4A16730  15.544   8.564  12.825  0.0381 -0.3327 -0.0250
 1426DOPS   C1B16731  15.507   7.446  14.119  0.1507  0.0748  0.0593
 1426DOPS   D2B16732  15.554   6.960  14.087 -0.2496  0.0414 -0.1961
 1426DOPS   C3B16733  15.743   6.854  13.677 -0.0473 -0.3073  0.0973
 1426DOPS   C4B16734  15.859   6.508  13.387  0.0723  0.0445 -0.1368
 1427DOPE   NH316735  20.711   2.470  13.199 -0.1323 -0.0543 -0.1489
 1427DOPE   PO416736  20.539   2.200  13.235 -0.0258  0.2073  0.0469
 1427DOPE   GL116737  20.297   2.360  12.977 -0.2111 -0.2700 -0.0556
 1427DOPE   GL216738  20.488   2.466  12.783  0.5267  0.1709 -0.4067
 1427DOPE   C1A16739  19.940   2.533  12.704  0.2941  0.0464  0.0769
 1427DOPE   D2A16740  19.857   2.913  12.402 -0.3691  0.2247  0.2526
 1427DOPE   C3A16741  19.600   3.092  12.065 -0.2476 -0.1170  0.1528
 1427DOPE   C4A16742  19.711   2.970  11.601 -0.1435  0.0245 -0.0216
 1427DOPE   C1B16743  20.740   2.403  12.354  0.0019  0.2785 -0.2601
 1427DOPE   D2B16744  20.821   2.413  11.931 -0.0280 -0.0702  0.0162
 1427DOPE   C3B16745  20.847   2.139  11.562 -0.2432 -0.5029 -0.4175
 1427DOPE   C4B16746  21.087   2.142  11.201  0.1780  0.0062  0.0635
 1428DOPS   CNO16747  19.079   4.002  13.881  0.0008  0.3391  0.3685
 1428DOPS   PO416748  19.347   4.180  13.635 -0.0186  0.1523  0.1636
 1428DOPS   GL116749  19.207   4.155  13.266  0.2943 -0.2653 -0.3276
 1428DOPS   GL216750  19.018   4.285  13.084 -0.0767  0.1755 -0.1136
 1428DOPS   C1A16751  19.418   4.219  12.844  0.1961 -0.0422  0.0848
 1428DOPS   D2A16752  19.285   4.197  12.392 -0.1723 -0.0492  0.2217
 1428DOPS   C3A16753  19.063   4.485  12.165  0.1140  0.4280  0.2122
 1428DOPS   C4A16754  19.135   4.824  11.834  0.3427  0.2517 -0.0911
 1428DOPS   C1B16755  18.808   4.379  12.657 -0.1365  0.0877 -0.1243
 1428DOPS   D2B16756  18.543   4.656  12.328 -0.0890  0.0263  0.4163
 1428DOPS   C3B16757  18.554   4.728  11.840  0.0018 -0.1613  0.1954
 1428DOPS   C4B16758  18.161   5.013  11.710  0.1520 -0.1526  0.1239
 1429DOPE   NH316759  22.512  32.328   9.399 -0.2206  0.1623  0.2722
 1429DOPE   PO416760  22.545  32.632   9.380  0.4167 -0.0208 -0.2827
 1429DOPE   GL116761  22.754  32.722   9.703  0.2055 -0.2186  0.0176
 1429DOPE   GL216762  22.739  32.461   9.879 -0.0962 -0.0039 -0.1393
 1429DOPE   C1A16763  22.651  32.872  10.134 -0.2795  0.2823  0.0337
 1429DOPE   D2A16764  22.342  33.081  10.326 -0.3402  0.1712  0.1792
 1429DOPE   C3A16765  22.440  33.311  10.709  0.2771 -0.0618 -0.1610
 1429DOPE   C4A16766  22.472  33.481  11.134  0.0459 -0.2669  0.1305
 1429DOPE   C1B16767  22.894  32.386  10.295  0.1323 -0.2183 -0.1136
 1429DOPE   D2B16768  22.933  32.284  10.740 -0.2488  0.0182  0.1233
 1429DOPE   C3B16769  23.066  32.634  11.015  0.1673  0.0061 -0.1342
 1429DOPE   C4B16770  23.151  32.749  11.444 -0.1693 -0.0754 -0.0846
 1430DOPS   CNO16771  11.724   1.469  10.700 -0.1507  0.1816  0.2114
 1430DOPS   PO416772  11.572   1.781  10.887  0.1549 -0.1657 -0.1484
 1430DOPS   GL116773  11.462   1.489  11.175  0.1963  0.4708  0.3875
 1430DOPS   GL216774  11.232   1.419  11.182  0.0387  0.1806 -0.1817
 1430DOPS   C1A16775  11.547   1.410  11.632  0.0075  0.1018 -0.0166
 1430DOPS   D2A16776  11.677   1.269  12.072  0.0141  0.1678 -0.4353
 1430DOPS   C3A16777  11.376   1.484  12.329 -0.0769  0.1337  0.0438
 1430DOPS   C4A16778  11.269   1.822  12.653  0.1827  0.0964 -0.2021
 1430DOPS   C1B16779  11.223   1.742  11.525  0.0949 -0.0864  0.0535
 1430DOPS   D2B16780  11.155   2.091  11.792 -0.2525  0.0814 -0.3012
 1430DOPS   C3B16781  11.344   2.148  12.236  0.3179  0.0505  0.0321
 1430DOPS   C4B16782  11.434   2.321  12.601 -0.0920  0.0998 -0.2431
 1431DOPE   NH316783  21.133   5.045  10.106  0.0133 -0.1647  0.1157
 1431DOPE   PO416784  20.815   5.002  10.077 -0.1267  0.0822 -0.0447
 1431DOPE   GL116785  20.831   4.890  10.510 -0.1971 -0.0470  0.2152
 1431DOPE   GL216786  21.109   4.961  10.553  0.1665 -0.1842 -0.2187
 1431DOPE   C1A16787  20.750   4.914  10.977 -0.0843  0.1237  0.0405
 1431DOPE   D2A16788  20.540   4.897  11.404 -0.3053 -0.0267 -0.0022
 1431DOPE   C3A16789  20.866   4.932  11.739  0.0621  0.2173  0.3425
 1431DOPE   C4A16790  21.250   4.980  11.981  0.1618  0.1302  0.0680
 1431DOPE   C1B16791  21.244   5.067  10.986  0.1285 -0.1715  0.0497
 1431DOPE   D2B16792  21.223   5.141  11.441 -0.2362 -0.1516 -0.3291
 1431DOPE   C3B16793  21.445   5.559  11.586 -0.0385  0.2990  0.0967
 1431DOPE   C4B16794  21.781   5.864  11.790 -0.2324 -0.2729 -0.4252
 1432DOPE   NH316795  20.294   3.055   9.310  0.3517  0.0354 -0.0246
 1432DOPE   PO416796  20.369   3.200   9.576 -0.0014 -0.1587 -0.2388
 1432DOPE   GL116797  20.390   3.308   9.902 -0.2006 -0.1004  0.0195
 1432DOPE   GL216798  20.555   3.537   9.896 -0.2320  0.0630 -0.0846
 1432DOPE   C1A16799  20.350   3.276  10.315  0.0394 -0.1193  0.1231
 1432DOPE   D2A16800  20.381   3.190  10.757 -0.0415  0.0557  0.3083
 1432DOPE   C3A16801  20.752   2.899  10.801  0.1577  0.1592  0.0285
 1432DOPE   C4A16802  20.786   2.463  10.923  0.0288  0.2062 -0.0843
 1432DOPE   C1B16803  20.606   3.760  10.285 -0.1588 -0.3035  0.2121
 1432DOPE   D2B16804  20.444   4.177  10.404  0.2482 -0.0796 -0.0937
 1432DOPE   C3B16805  20.260   4.162  10.821  0.1134  0.0511 -0.1994
 1432DOPE   C4B16806  19.950   4.274  11.133 -0.2061 -0.2119  0.1631
 1433DOPC   NC316807  21.912   4.343   9.678  0.0451  0.1079 -0.0555
 1433DOPC   PO416808  21.900   4.156   9.320 -0.1382 -0.1997 -0.1608
 1433DOPC   GL116809  21.591   3.988   9.599  0.2913  0.2221  0.2953
 1433DOPC   GL216810  21.342   4.170   9.644  0.2988 -0.0301 -0.1729
 1433DOPC   C1A16811  21.586   3.869  10.076  0.0522 -0.0423  0.0785
 1433DOPC   D2A16812  21.674   3.935  10.528  0.0258  0.0699 -0.3842
 1433DOPC   C3A16813  21.583   3.682  10.943 -0.2253  0.2212 -0.0504
 1433DOPC   C4A16814  21.316   3.614  11.306 -0.1913  0.3681 -0.3038
 1433DOPC   C1B16815  21.027   4.358   9.884  0.0843  0.1245  0.0144
 1433DOPC   D2B16816  20.883   4.442  10.300 -0.2180 -0.0972  0.0691
 1433DOPC   C3B16817  21.344   4.454  10.365 -0.3406  0.1390  0.0116
 1433DOPC   C4B16818  21.772   4.336  10.195  0.1335 -0.1628  0.1919
 1434DOPC   NC316819  14.383   6.646  11.460 -0.2202 -0.1717 -0.0313
 1434DOPC   PO416820  14.050   6.746  11.393 -0.0308  0.0222 -0.0829
 1434DOPC   GL116821  14.043   6.645  11.806 -0.2799  0.2614  0.1861
 1434DOPC   GL216822  13.954   6.948  11.830 -0.2318  0.2418 -0.2265
 1434DOPC   C1A16823  14.084   6.479  12.206  0.0661 -0.1505 -0.0662
 1434DOPC   D2A16824  13.984   6.283  12.636 -0.1592  0.0590  0.1573
 1434DOPC   C3A16825  13.675   6.495  12.899  0.1601  0.1834 -0.0006
 1434DOPC   C4A16826  13.515   6.903  12.948  0.5804  0.2505  0.3359
 1434DOPC   C1B16827  13.875   7.248  12.091  0.1657 -0.2125 -0.0951
 1434DOPC   D2B16828  13.796   7.271  12.537 -0.1774  0.0781 -0.1627
 1434DOPC   C3B16829  13.828   7.281  12.993  0.0373 -0.1356 -0.1024
 1434DOPC   C4B16830  13.526   7.289  13.350 -0.0383 -0.0996  0.1523
 1435DOPE   NH316831   9.375   5.424  10.598 -0.0695  0.1375 -0.3416
 1435DOPE   PO416832   9.199   5.535  10.852 -0.2846 -0.0734  0.3835
 1435DOPE   GL116833   9.511   5.410  11.265  0.1517  0.0378  0.1312
 1435DOPE   GL216834   9.372   5.298  11.482 -0.0778 -0.3278  0.3127
 1435DOPE   C1A16835   9.713   5.661  11.615 -0.0055 -0.1832  0.0168
 1435DOPE   D2A16836   9.947   6.046  11.677 -0.1138 -0.3153 -0.0164
 1435DOPE   C3A16837   9.952   6.189  12.136 -0.1935  0.2316  0.0076
 1435DOPE   C4A16838  10.155   6.574  12.318  0.1292  0.0660 -0.3121
 1435DOPE   C1B16839   9.301   5.637  11.801 -0.0550  0.0421  0.0570
 1435DOPE   D2B16840   9.276   5.773  12.272 -0.0395 -0.0905  0.3302
 1435DOPE   C3B16841   9.130   5.526  12.626 -0.2613  0.0710  0.5415
 1435DOPE   C4B16842   9.064   5.463  13.093  0.2733  0.2205  0.3201
 1436DOPE   NH316843  25.454  11.167  10.022 -0.0469  0.0015 -0.0589
 1436DOPE   PO416844  25.326  11.265  10.292  0.1714  0.0573 -0.0052
 1436DOPE   GL116845  25.266  11.125  10.579 -0.0254  0.1730  0.0038
 1436DOPE   GL216846  25.023  11.345  10.674 -0.0294  0.1201  0.0548
 1436DOPE   C1A16847  25.269  11.164  11.054  0.0375  0.1163 -0.3783
 1436DOPE   D2A16848  25.089  11.322  11.424  0.1061 -0.3752  0.0833
 1436DOPE   C3A16849  25.260  11.177  11.833  0.2749 -0.1664  0.3708
 1436DOPE   C4A16850  25.366  10.893  12.155 -0.0555  0.1224  0.1828
 1436DOPE   C1B16851  24.970  11.601  11.060  0.0476 -0.3947  0.1826
 1436DOPE   D2B16852  25.057  11.878  11.406  0.0678  0.1882  0.0072
 1436DOPE   C3B16853  24.994  11.638  11.805 -0.1972  0.2776 -0.0872
 1436DOPE   C4B16854  24.719  11.805  12.125  0.0859  0.1950 -0.0720
 1437DOPE   NH316855  16.556   6.196  10.653  0.2419 -0.1718  0.0040
 1437DOPE   PO416856  16.417   5.900  10.777  0.0343  0.4013  0.2227
 1437DOPE   GL116857  16.410   6.180  11.122  0.0329 -0.5397 -0.2710
 1437DOPE   GL216858  16.117   6.101  11.266 -0.1232 -0.0307 -0.1260
 1437DOPE   C1A16859  16.667   6.085  11.513 -0.0626  0.1378  0.0489
 1437DOPE   D2A16860  16.730   5.626  11.647  0.2727  0.3095  0.1103
 1437DOPE   C3A16861  17.140   5.374  11.667  0.1609 -0.1441  0.0270
 1437DOPE   C4A16862  17.499   5.147  11.563 -0.1924 -0.1397 -0.2018
 1437DOPE   C1B16863  16.217   6.497  11.448  0.0090 -0.0251  0.1967
 1437DOPE   D2B16864  16.540   6.882  11.579  0.3107  0.0384  0.2687
 1437DOPE   C3B16865  16.396   7.062  12.008 -0.3650 -0.1362 -0.2437
 1437DOPE   C4B16866  16.192   7.436  12.197 -0.1262 -0.2053  0.1622
 1438POSM   NC316867  16.428   5.721  11.250  0.0911  0.2202 -0.3522
 1438POSM   PO416868  16.096   5.492  11.212  0.0618  0.1002  0.1191
 1438POSM   AM116869  16.068   5.523  11.515  0.2262 -0.2624 -0.0165
 1438POSM   AM216870  16.211   5.453  11.720 -0.0226 -0.3000  0.4509
 1438POSM   T1A16871  15.758   5.414  11.857 -0.2450 -0.0927  0.0946
 1438POSM   C2A16872  15.720   5.513  12.289  0.0377  0.0860  0.0405
 1438POSM   C3A16873  15.755   5.511  12.740  0.0545 -0.1327  0.3735
 1438POSM   C1B16874  16.238   5.402  12.058  0.0626 -0.0871  0.0913
 1438POSM   D2B16875  16.200   5.359  12.564 -0.0922 -0.4615  0.1032
 1438POSM   C3B16876  16.650   5.495  12.528  0.4297  0.3151  0.3244
 1438POSM   C4B16877  17.031   5.807  12.437  0.1892 -0.1833 -0.0204
 1439DOPE   NH316878  15.111   5.125  11.406 -0.1242 -0.1704 -0.0799
 1439DOPE   PO416879  15.275   5.382  11.346 -0.1065  0.0499 -0.1434
 1439DOPE   GL116880  15.527   5.604  11.509 -0.1918  0.1192  0.3566
 1439DOPE   GL216881  15.689   5.817  11.371  0.0342  0.0785  0.0592
 1439DOPE   C1A16882  15.353   5.724  11.927 -0.1194 -0.0827  0.0752
 1439DOPE   D2A16883  15.420   6.167  12.100 -0.1166  0.1785  0.1679
 1439DOPE   C3A16884  15.097   6.429  12.198  0.1430  0.5021  0.0296
 1439DOPE   C4A16885  14.989   6.730  12.531 -0.1142  0.1411  0.4523
 1439DOPE   C1B16886  15.986   5.876  11.788  0.1875 -0.0591  0.2481
 1439DOPE   D2B16887  16.090   5.814  12.279  0.0594  0.0078 -0.0512
 1439DOPE   C3B16888  16.219   6.245  12.441 -0.2855  0.0908  0.0039
 1439DOPE   C4B16889  16.461   6.642  12.303 -0.1035  0.2180 -0.0610
 1440POSM   NC316890  19.875   6.721   9.911 -0.3194  0.1297 -0.1457
 1440POSM   PO416891  20.215   6.557   9.844 -0.0895  0.2846  0.0198
 1440POSM   AM116892  20.381   6.494  10.127 -0.3579 -0.0931  0.1362
 1440POSM   AM216893  20.307   6.646  10.363  0.0873  0.0277 -0.0418
 1440POSM   T1A16894  20.360   6.142  10.433  0.2791 -0.1756 -0.1490
 1440POSM   C2A16895  20.326   5.756  10.732 -0.0529 -0.2009 -0.2951
 1440POSM   C3A16896  19.998   5.503  10.935 -0.0677 -0.0503  0.1040
 1440POSM   C1B16897  20.356   6.913  10.579 -0.3533 -0.0015  0.2331
 1440POSM   D2B16898  20.349   7.210  10.869  0.1029  0.2549  0.1366
 1440POSM   C3B16899  20.447   7.308  11.276  0.0754 -0.0944 -0.0506
 1440POSM   C4B16900  20.684   7.692  11.449  0.3153 -0.0181 -0.3523
 1441POSM   NC316901  14.425  34.075  10.247  0.1196 -0.2483 -0.1123
 1441POSM   PO416902  14.311  33.983  10.615  0.3614  0.1589  0.0589
 1441POSM   AM116903  14.510  33.960  10.896  0.1529 -0.3845 -0.4104
 1441POSM   AM216904  14.469  33.972  11.192 -0.0688  0.1624  0.0824
 1441POSM   T1A16905  14.875  33.731  11.068 -0.1114 -0.0723  0.0271
 1441POSM   C2A16906  14.853  33.484  11.530  0.5545 -0.1582 -0.3931
 1441POSM   C3A16907  14.941  33.163  11.886  0.2572 -0.2226  0.2274
 1441POSM   C1B16908  14.611  33.947  11.500  0.1082  0.0051 -0.0337
 1441POSM   D2B16909  14.858  33.865  11.875 -0.3001 -0.3015  0.1641
 1441POSM   C3B16910  15.169  33.563  12.063 -0.0482 -0.1195  0.1142
 1441POSM   C4B16911  15.108  33.211  12.374 -0.0000  0.0917  0.1383
 1442DOPC   NC316912  19.351   9.228   9.252  0.1630 -0.0713  0.0214
 1442DOPC   PO416913  19.422   9.025   9.559  0.1719  0.1172 -0.0864
 1442DOPC   GL116914  19.495   9.188   9.960 -0.5539 -0.2351 -0.0830
 1442DOPC   GL216915  19.379   8.932  10.156 -0.0875  0.0146  0.0523
 1442DOPC   C1A16916  19.531   9.463  10.369 -0.1502 -0.0571  0.1759
 1442DOPC   D2A16917  19.198   9.642  10.678  0.2096 -0.0573  0.0216
 1442DOPC   C3A16918  19.515   9.557  10.955 -0.0522  0.2084 -0.0033
 1442DOPC   C4A16919  19.919   9.351  11.104  0.1983  0.3635  0.3244
 1442DOPC   C1B16920  19.369   8.552  10.475 -0.3114 -0.1138 -0.1813
 1442DOPC   D2B16921  19.445   8.314  10.846 -0.2057 -0.2870  0.1018
 1442DOPC   C3B16922  19.537   8.507  11.246  0.2982  0.2664  0.0654
 1442DOPC   C4B16923  19.563   8.942  11.237 -0.0901 -0.0598 -0.2048
 1443DOPC   NC316924  20.914  11.804  10.078  0.3146  0.1116 -0.1664
 1443DOPC   PO416925  20.596  11.594   9.928 -0.2565 -0.1277 -0.1566
 1443DOPC   GL116926  20.309  11.712  10.271  0.1946  0.0660  0.2269
 1443DOPC   GL216927  20.303  11.995  10.314 -0.2118  0.0615 -0.0335
 1443DOPC   C1A16928  20.389  11.717  10.701 -0.0893 -0.1775  0.1214
 1443DOPC   D2A16929  20.139  11.578  11.086 -0.0820 -0.0304  0.2799
 1443DOPC   C3A16930  20.092  11.860  11.394 -0.1505 -0.1593 -0.2692
 1443DOPC   C4A16931  20.057  12.006  11.857  0.2037 -0.1520  0.0747
 1443DOPC   C1B16932  20.566  12.353  10.484  0.2561 -0.1179 -0.2708
 1443DOPC   D2B16933  20.845  12.410  10.829  0.1566  0.1496  0.2368
 1443DOPC   C3B16934  20.670  12.350  11.291  0.1437  0.1226 -0.1697
 1443DOPC   C4B16935  20.514  12.034  11.621  0.1147  0.1256  0.1455
 1444DOPC   NC316936  14.992   3.894  11.001 -0.1221  0.1657 -0.0515
 1444DOPC   PO416937  14.951   3.514  11.005 -0.1539  0.2002  0.3146
 1444DOPC   GL116938  14.870   3.513  11.449 -0.0509 -0.2215  0.0212
 1444DOPC   GL216939  14.763   3.816  11.474  0.0166  0.2061 -0.0077
 1444DOPC   C1A16940  14.753   3.327  11.849 -0.0006 -0.1382  0.0998
 1444DOPC   D2A16941  14.577   3.212  12.296 -0.1457  0.0287 -0.2816
 1444DOPC   C3A16942  14.737   3.414  12.655 -0.1575 -0.0422 -0.1927
 1444DOPC   C4A16943  14.796   3.543  13.089  0.1392  0.1179  0.1647
 1444DOPC   C1B16944  14.595   3.886  11.922 -0.1404  0.1429 -0.0010
 1444DOPC   D2B16945  14.685   3.731  12.295  0.0628  0.0065 -0.1421
 1444DOPC   C3B16946  14.620   4.141  12.516  0.0380  0.0926  0.3125
 1444DOPC   C4B16947  14.828   4.475  12.645 -0.0208  0.1639  0.0044
 1445DOPE   NH316948  20.758   0.444   9.598 -0.1485  0.1906 -0.0725
 1445DOPE   PO416949  21.082   0.305   9.636  0.1697  0.2115  0.0584
 1445DOPE   GL116950  21.135   0.509   9.997 -0.3069 -0.0541 -0.4323
 1445DOPE   GL216951  20.994   0.745   9.924 -0.0198  0.0838 -0.1347
 1445DOPE   C1A16952  21.194   0.476  10.430  0.1765 -0.0928  0.1024
 1445DOPE   D2A16953  21.044   0.794  10.755 -0.0872  0.0757 -0.3236
 1445DOPE   C3A16954  20.737   0.590  11.114 -0.0228 -0.3972  0.2493
 1445DOPE   C4A16955  20.634   0.424  11.498 -0.1501 -0.3985  0.1891
 1445DOPE   C1B16956  21.194   0.936  10.255 -0.0066  0.2100 -0.0915
 1445DOPE   D2B16957  21.417   1.291  10.485  0.1850 -0.2913 -0.2602
 1445DOPE   C3B16958  21.437   1.338  10.964  0.1510  0.0357 -0.0794
 1445DOPE   C4B16959  21.302   1.249  11.398 -0.1397 -0.0243  0.0410
 1446POSM   NC316960  19.307   0.542   9.995 -0.2088  0.1590 -0.1907
 1446POSM   PO416961  19.132   0.849   9.834  0.0617  0.4046 -0.2482
 1446POSM   AM116962  19.042   0.927  10.151 -0.0673  0.1733 -0.5254
 1446POSM   AM216963  19.241   0.989  10.370  0.1706  0.2931  0.1768
 1446POSM   T1A16964  18.830   0.842  10.591 -0.0699  0.1032 -0.1331
 1446POSM   C2A16965  18.987   0.767  10.972 -0.2464 -0.0927 -0.0491
 1446POSM   C3A16966  19.131   0.660  11.424  0.0581  0.3243  0.4352
 1446POSM   C1B16967  19.406   1.098  10.708  0.1720  0.1161 -0.0402
 1446POSM   D2B16968  19.507   1.220  11.118 -0.0529 -0.2101 -0.2011
 1446POSM   C3B16969  19.851   1.070  11.320 -0.0256 -0.3439 -0.1957
 1446POSM   C4B16970  20.302   1.272  11.423 -0.4456 -0.0542  0.1858
 1447DOPE   NH316971  13.037   6.951  11.371 -0.1842 -0.3372 -0.0840
 1447DOPE   PO416972  12.839   7.200  11.239  0.0549 -0.3692 -0.3019
 1447DOPE   GL116973  12.733   7.248  11.643 -0.0361 -0.2355  0.1143
 1447DOPE   GL216974  12.566   7.107  11.774  0.2562  0.2531 -0.0050
 1447DOPE   C1A16975  12.982   7.280  12.015 -0.0561  0.1643  0.1934
 1447DOPE   D2A16976  13.331   7.077  12.264 -0.0306  0.0411 -0.1157
 1447DOPE   C3A16977  13.239   6.751  12.544  0.0611 -0.0711 -0.0632
 1447DOPE   C4A16978  13.069   6.409  12.798 -0.2149 -0.1043 -0.1837
 1447DOPE   C1B16979  12.226   6.995  12.031  0.0474 -0.1250  0.3035
 1447DOPE   D2B16980  12.200   6.792  12.468  0.0984  0.1806 -0.1785
 1447DOPE   C3B16981  12.154   7.007  12.900  0.0216 -0.0021  0.0106
 1447DOPE   C4B16982  12.141   7.276  13.232  0.0499 -0.0178  0.0173
 1448DOPC   NC316983  21.670   1.579   9.665 -0.2202  0.0441 -0.0328
 1448DOPC   PO416984  21.973   1.807   9.599  0.1236  0.1517 -0.0023
 1448DOPC   GL116985  22.186   1.894   9.851  0.1122 -0.4120 -0.4104
 1448DOPC   GL216986  22.343   1.677  10.046 -0.4614  0.1244 -0.0069
 1448DOPC   C1A16987  21.983   1.888  10.288  0.2318  0.0729  0.0275
 1448DOPC   D2A16988  21.703   1.684  10.631  0.1561  0.2144 -0.0636
 1448DOPC   C3A16989  21.230   1.753  10.675  0.2056  0.0144  0.1970
 1448DOPC   C4A16990  21.043   2.162  10.578 -0.0351  0.0547  0.0787
 1448DOPC   C1B16991  22.485   2.034  10.348  0.1138  0.2948  0.0510
 1448DOPC   D2B16992  22.600   2.407  10.609 -0.3879  0.0895  0.1036
 1448DOPC   C3B16993  22.417   2.366  11.006 -0.0760 -0.0441  0.0820
 1448DOPC   C4B16994  22.189   2.415  11.322  0.0826 -0.0567  0.2343
 1449POSM   NC316995  21.057   1.556   9.243  0.2431  0.0461 -0.1284
 1449POSM   PO416996  20.909   1.448   9.588 -0.3589  0.1539 -0.1896
 1449POSM   AM116997  21.047   1.466   9.868 -0.1009 -0.1244 -0.0746
 1449POSM   AM216998  21.299   1.324   9.987  0.0140 -0.0359  0.0617
 1449POSM   T1A16999  20.902   1.581  10.348 -0.1283 -0.2093  0.0588
 1449POSM   C2A17000  20.716   1.723  10.710  0.0607  0.1401  0.1501
 1449POSM   C3A17001  20.646   1.802  11.137  0.0033  0.2057  0.0644
 1449POSM   C1B17002  21.412   1.606  10.161  0.2840 -0.0469  0.0288
 1449POSM   D2B17003  21.466   2.027  10.320 -0.2873 -0.0410 -0.2825
 1449POSM   C3B17004  21.540   2.178  10.772  0.1659  0.1296  0.2726
 1449POSM   C4B17005  21.487   2.461  11.160  0.0423 -0.0167 -0.0198
 1450DOPE   NH317006  18.653   1.100   9.684 -0.2722 -0.1407  0.2318
 1450DOPE   PO417007  18.740   1.216   9.960 -0.0245  0.0888 -0.1061
 1450DOPE   GL117008  18.756   1.193  10.365 -0.1186  0.0705  0.1362
 1450DOPE   GL217009  18.953   1.412  10.410 -0.2416 -0.0017  0.0793
 1450DOPE   C1A17010  18.520   1.484  10.709 -0.0886  0.0755  0.2520
 1450DOPE   D2A17011  18.470   1.936  10.791  0.0319 -0.1656 -0.1666
 1450DOPE   C3A17012  18.766   1.838  11.132  0.0882 -0.0721  0.0943
 1450DOPE   C4A17013  19.186   1.668  11.289  0.0763  0.3260 -0.0582
 1450DOPE   C1B17014  18.991   1.293  10.892  0.1919  0.0066  0.1306
 1450DOPE   D2B17015  19.033   1.145  11.301  0.2254  0.0002 -0.0533
 1450DOPE   C3B17016  18.865   1.444  11.574 -0.0765  0.3117  0.1233
 1450DOPE   C4B17017  18.427   1.667  11.470  0.0785  0.0916 -0.0686
 1451DOPE   NH317018  10.577  34.661  10.747 -0.0703  0.2846  0.0385
 1451DOPE   PO417019  10.318  34.694  10.903 -0.1443  0.3053 -0.1539
 1451DOPE   GL117020  10.227  34.929  11.344  0.0584 -0.1966  0.2704
 1451DOPE   GL217021  10.240  35.158  11.505 -0.1441  0.1924  0.1095
 1451DOPE   C1A17022   9.866  34.877  11.656  0.4112 -0.1762  0.0913
 1451DOPE   D2A17023   9.512  35.057  11.857  0.0816 -0.0583  0.0354
 1451DOPE   C3A17024   9.344  34.852  12.233 -0.2362  0.3408 -0.0962
 1451DOPE   C4A17025   9.264  34.612  12.621 -0.3390  0.1995 -0.0180
 1451DOPE   C1B17026  10.258  35.064  12.014 -0.1759  0.0782  0.1222
 1451DOPE   D2B17027  10.125  35.221  12.443 -0.1026 -0.0651 -0.1782
 1451DOPE   C3B17028   9.948  35.667  12.518  0.0631  0.0607  0.0986
 1451DOPE   C4B17029   9.807  35.867  12.855 -0.0584 -0.0595  0.3028
 1452DOPC   NC317030  14.268   7.584  11.267  0.0497  0.4897 -0.5286
 1452DOPC   PO417031  14.542   7.842  11.131 -0.1138  0.0015 -0.0778
 1452DOPC   GL117032  14.612   7.787  11.547  0.6381 -0.0265  0.0464
 1452DOPC   GL217033  14.623   7.503  11.655  0.0507  0.2183  0.0354
 1452DOPC   C1A17034  14.784   7.939  11.907 -0.1961 -0.1703  0.0755
 1452DOPC   D2A17035  14.719   8.083  12.381 -0.1292  0.2245  0.1228
 1452DOPC   C3A17036  14.640   8.517  12.413 -0.2807  0.2076  0.0489
 1452DOPC   C4A17037  14.875   8.915  12.355 -0.3233 -0.2630  0.1287
 1452DOPC   C1B17038  14.909   7.480  11.974  0.3586  0.1567 -0.2388
 1452DOPC   D2B17039  15.077   7.696  12.382 -0.2906  0.0215  0.1619
 1452DOPC   C3B17040  15.446   7.980  12.519  0.1335 -0.3173 -0.2762
 1452DOPC   C4B17041  15.564   8.412  12.337 -0.0345  0.0130 -0.0631
 1453DOPE   NH317042  13.848   5.733  11.625  0.1199 -0.0334 -0.1712
 1453DOPE   PO417043  13.871   5.957  11.407  0.2653  0.1294  0.1631
 1453DOPE   GL117044  14.013   6.265  11.585  0.0421 -0.0599 -0.1972
 1453DOPE   GL217045  13.793   6.309  11.778  0.1064  0.0104 -0.1713
 1453DOPE   C1A17046  14.350   6.266  11.866  0.0013  0.2053 -0.1383
 1453DOPE   D2A17047  14.556   6.224  12.293 -0.0109 -0.0772 -0.1446
 1453DOPE   C3A17048  14.893   6.190  12.595  0.2593  0.0136 -0.2599
 1453DOPE   C4A17049  14.878   6.044  13.007  0.2599 -0.1814  0.1057
 1453DOPE   C1B17050  13.837   5.990  12.151  0.1698 -0.3117  0.0689
 1453DOPE   D2B17051  13.960   5.798  12.604 -0.0926 -0.0936 -0.1362
 1453DOPE   C3B17052  14.168   5.354  12.598 -0.0151 -0.1515  0.0145
 1453DOPE   C4B17053  14.153   4.892  12.701  0.0267  0.2200  0.1556
 1454POSM   NC317054  17.608   5.029   9.823  0.0080 -0.0466 -0.2516
 1454POSM   PO417055  17.878   4.890  10.017  0.0170 -0.1085 -0.0301
 1454POSM   AM117056  17.963   4.779  10.310  0.0864 -0.3703  0.3980
 1454POSM   AM217057  17.796   4.763  10.547 -0.2022 -0.0626  0.1148
 1454POSM   T1A17058  18.259   4.750  10.697  0.2801 -0.3022 -0.0524
 1454POSM   C2A17059  18.486   4.684  11.123 -0.1957 -0.0877 -0.3098
 1454POSM   C3A17060  18.847   4.617  11.433 -0.0970  0.2319 -0.0651
 1454POSM   C1B17061  17.812   5.017  10.771  0.1737  0.0621  0.0545
 1454POSM   D2B17062  17.747   5.243  11.138  0.0312  0.1696 -0.0864
 1454POSM   C3B17063  17.987   5.461  11.482 -0.0974 -0.0945  0.0889
 1454POSM   C4B17064  18.038   5.928  11.509 -0.2140 -0.0668 -0.0597
 1455DOPC   NC317065  19.944   9.959   9.810 -0.1682  0.2873  0.1446
 1455DOPC   PO417066  19.637  10.129   9.567 -0.2719 -0.0787 -0.0463
 1455DOPC   GL117067  19.697  10.298  10.000 -0.1355 -0.1650 -0.2503
 1455DOPC   GL217068  19.433  10.233  10.023  0.1536  0.2075 -0.0217
 1455DOPC   C1A17069  20.014  10.490  10.281 -0.1034 -0.2016 -0.0018
 1455DOPC   D2A17070  20.265  10.802  10.580 -0.1431  0.1197  0.2836
 1455DOPC   C3A17071  20.422  10.639  10.964 -0.1890 -0.2959  0.1477
 1455DOPC   C4A17072  20.526  10.771  11.393  0.4878  0.1613 -0.1419
 1455DOPC   C1B17073  19.466  10.491  10.423  0.2340 -0.4613 -0.0330
 1455DOPC   D2B17074  19.730  10.550  10.774  0.0771  0.1367 -0.1868
 1455DOPC   C3B17075  20.116  10.313  10.756 -0.2744 -0.0252  0.0023
 1455DOPC   C4B17076  20.468  10.177  11.021 -0.0622 -0.5381  0.1605
 1456POSM   NC317077  20.326  10.762  10.081  0.0043 -0.1222 -0.0346
 1456POSM   PO417078  20.346  11.136   9.986 -0.1578 -0.0167  0.0968
 1456POSM   AM117079  20.360  11.235  10.334  0.2659  0.0781 -0.0431
 1456POSM   AM217080  20.146  11.244  10.502  0.0600  0.2109 -0.0786
 1456POSM   T1A17081  20.576  11.166  10.758  0.1953 -0.5013  0.0054
 1456POSM   C2A17082  20.898  10.824  10.900  0.1173  0.2441  0.0840
 1456POSM   C3A17083  21.142  10.812  11.289 -0.3049  0.2076 -0.3786
 1456POSM   C1B17084  20.028  11.136  10.806  0.2133 -0.3485 -0.2035
 1456POSM   D2B17085  20.001  10.921  11.288 -0.2110 -0.0392 -0.3516
 1456POSM   C3B17086  20.112  10.441  11.413  0.0558 -0.1874 -0.0011
 1456POSM   C4B17087  20.183  10.057  11.637  0.1697  0.0398  0.0321
 1457DOPE   NH317088  20.081   1.906   9.579 -0.0335  0.0594 -0.2486
 1457DOPE   PO417089  19.792   2.007   9.586 -0.0410  0.0411 -0.0218
 1457DOPE   GL117090  19.706   2.007   9.968 -0.5259  0.2566 -0.0656
 1457DOPE   GL217091  19.492   2.184  10.067  0.2457 -0.0123  0.0553
 1457DOPE   C1A17092  19.904   2.277  10.375 -0.1269 -0.0219  0.0147
 1457DOPE   D2A17093  19.887   2.334  10.849 -0.1538  0.2565  0.0486
 1457DOPE   C3A17094  19.893   2.085  11.229 -0.2487  0.2384 -0.0975
 1457DOPE   C4A17095  19.495   2.016  11.500  0.0762 -0.0977  0.0120
 1457DOPE   C1B17096  19.377   2.109  10.520  0.1233  0.1616  0.3040
 1457DOPE   D2B17097  19.405   2.060  10.986 -0.1599  0.0936 -0.0768
 1457DOPE   C3B17098  19.151   2.305  11.186  0.1609  0.2491 -0.2267
 1457DOPE   C4B17099  18.958   2.176  11.590  0.1064  0.2385 -0.1843
 1458DOPC   NC317100  21.852   3.677   9.120 -0.1953  0.0433 -0.2292
 1458DOPC   PO417101  22.197   3.595   9.194 -0.1967 -0.1472 -0.1257
 1458DOPC   GL117102  22.475   3.599   9.615 -0.1324  0.1457  0.2562
 1458DOPC   GL217103  22.698   3.512   9.468 -0.4498  0.2732  0.2820
 1458DOPC   C1A17104  22.427   3.677  10.061 -0.0658 -0.2586  0.1850
 1458DOPC   D2A17105  22.714   3.843  10.426  0.0836 -0.3118  0.1774
 1458DOPC   C3A17106  22.636   3.969  10.858  0.1596 -0.0424  0.1725
 1458DOPC   C4A17107  22.568   3.699  11.219  0.2561  0.2398  0.1791
 1458DOPC   C1B17108  23.161   3.474   9.516  0.1552  0.1941 -0.1301
 1458DOPC   D2B17109  23.631   3.520   9.492 -0.1496 -0.0679  0.0765
 1458DOPC   C3B17110  23.820   3.181   9.797  0.0910 -0.2207 -0.0317
 1458DOPC   C4B17111  24.215   3.000   9.996  0.0862 -0.3009 -0.2177
 1459DOPE   NH317112  22.527  33.100   9.151  0.0366  0.0151  0.0911
 1459DOPE   PO417113  22.760  33.351   9.078 -0.0076  0.1791 -0.1203
 1459DOPE   GL117114  22.763  33.359   9.422 -0.0821 -0.2002 -0.0463
 1459DOPE   GL217115  22.824  33.540   9.575 -0.2505 -0.0450  0.1109
 1459DOPE   C1A17116  23.006  33.148   9.791  0.0053  0.0721  0.2100
 1459DOPE   D2A17117  23.113  32.757   9.990 -0.1203 -0.1637  0.1916
 1459DOPE   C3A17118  23.232  32.716  10.454  0.2017 -0.1276 -0.1082
 1459DOPE   C4A17119  23.521  32.598  10.774  0.0566 -0.1786  0.1676
 1459DOPE   C1B17120  23.066  33.695   9.911  0.0767 -0.2658  0.1418
 1459DOPE   D2B17121  23.250  34.075  10.056 -0.0062  0.1199  0.2667
 1459DOPE   C3B17122  23.232  34.120  10.509  0.1460  0.0875  0.1824
 1459DOPE   C4B17123  23.015  33.972  10.887 -0.0583  0.1680  0.1615
 1460POSM   NC317124  11.425   3.809  11.060  0.0340 -0.0035  0.0870
 1460POSM   PO417125  11.223   3.488  10.926  0.2216  0.2124 -0.0721
 1460POSM   AM117126  11.196   3.405  11.247 -0.0490 -0.1857 -0.1027
 1460POSM   AM217127  11.080   3.371  11.496 -0.1719  0.3851  0.0760
 1460POSM   T1A17128  11.444   3.105  11.604  0.3455  0.0638  0.1499
 1460POSM   C2A17129  11.547   2.967  12.062  0.2794  0.3029  0.0910
 1460POSM   C3A17130  11.573   3.071  12.490  0.0100  0.2586 -0.0901
 1460POSM   C1B17131  10.852   3.347  11.724  0.1416 -0.2168  0.0702
 1460POSM   D2B17132  10.595   3.427  12.144  0.1638  0.0866 -0.0357
 1460POSM   C3B17133  10.730   3.025  12.365  0.0478 -0.2102 -0.3570
 1460POSM   C4B17134  10.678   2.657  12.658  0.2328 -0.2244  0.0249
 1461DOPC   NC317135  16.754   7.541   9.995  0.1429  0.0603  0.2462
 1461DOPC   PO417136  16.642   7.842  10.221  0.0782  0.1053 -0.3645
 1461DOPC   GL117137  16.972   7.917  10.489 -0.0222  0.1694  0.0592
 1461DOPC   GL217138  16.856   8.071  10.700 -0.1006 -0.0128  0.1249
 1461DOPC   C1A17139  17.239   7.667  10.786 -0.2693  0.0480  0.2415
 1461DOPC   D2A17140  17.200   7.345  11.156 -0.0753 -0.1286 -0.1890
 1461DOPC   C3A17141  17.247   7.445  11.618  0.3281 -0.0123 -0.0562
 1461DOPC   C4A17142  17.401   7.225  12.020  0.2762 -0.2552 -0.2600
 1461DOPC   C1B17143  17.012   8.306  11.038 -0.1534 -0.0103 -0.0671
 1461DOPC   D2B17144  16.810   8.221  11.447  0.2441  0.3594  0.3462
 1461DOPC   C3B17145  16.954   7.861  11.620  0.0299  0.0806  0.1545
 1461DOPC   C4B17146  17.165   7.734  12.026  0.0099 -0.1116 -0.1438
 1462POSM   NC317147  19.415   1.557   9.515  0.1664 -0.1263 -0.0153
 1462POSM   PO417148  19.608   1.221   9.387 -0.0442 -0.0510 -0.2060
 1462POSM   AM117149  19.640   1.169   9.733  0.0450  0.0899  0.3221
 1462POSM   AM217150  19.629   0.989   9.955  0.0350 -0.3215 -0.1233
 1462POSM   T1A17151  19.988   1.278  10.106 -0.0335 -0.1893 -0.0229
 1462POSM   C2A17152  19.964   1.310  10.542 -0.0921  0.0655  0.3699
 1462POSM   C3A17153  19.852   0.965  10.829 -0.1909 -0.1023  0.0059
 1462POSM   C1B17154  19.736   0.839  10.220 -0.1945  0.0187  0.0555
 1462POSM   D2B17155  19.894   0.556  10.526 -0.2621 -0.0319  0.0912
 1462POSM   C3B17156  19.812   0.401  10.961 -0.0920  0.1029  0.1991
 1462POSM   C4B17157  19.860   0.233  11.400 -0.3275  0.0147  0.0172
 1463POSM   NC317158  13.255   6.669  11.050  0.1436  0.2401  0.1664
 1463POSM   PO417159  13.549   6.788  11.296 -0.0937  0.1155  0.3013
 1463POSM   AM117160  13.561   6.820  11.586  0.0801 -0.1663 -0.4015
 1463POSM   AM217161  13.353   6.881  11.791  0.0533 -0.1225  0.0248
 1463POSM   T1A17162  13.625   6.644  12.077 -0.0408  0.1684  0.3055
 1463POSM   C2A17163  13.790   6.781  12.430  0.2873 -0.0849 -0.1096
 1463POSM   C3A17164  13.978   6.834  12.808  0.2175  0.1160 -0.3606
 1463POSM   C1B17165  13.023   6.807  11.941 -0.1999  0.0985  0.0718
 1463POSM   D2B17166  12.681   6.882  12.266 -0.1007 -0.4542 -0.2567
 1463POSM   C3B17167  12.738   6.738  12.676  0.0010  0.1425  0.0319
 1463POSM   C4B17168  13.019   6.921  13.037  0.0799  0.0910  0.0219
 1464DOPC   NC317169  16.598   3.009  10.638  0.0774  0.2556 -0.0436
 1464DOPC   PO417170  16.462   2.619  10.633 -0.0483  0.0205  0.0307
 1464DOPC   GL117171  16.431   2.616  11.055 -0.0785 -0.1286 -0.4331
 1464DOPC   GL217172  16.198   2.488  11.186  0.0802  0.0321  0.2351
 1464DOPC   C1A17173  16.680   2.253  11.231 -0.0165 -0.1469  0.1356
 1464DOPC   D2A17174  16.981   2.279  11.537 -0.2169 -0.0496 -0.0390
 1464DOPC   C3A17175  17.235   2.117  11.918  0.2813 -0.1658 -0.0970
 1464DOPC   C4A17176  17.608   1.860  11.980  0.2646 -0.5268 -0.0363
 1464DOPC   C1B17177  16.039   2.186  11.589  0.3866 -0.0528 -0.1051
 1464DOPC   D2B17178  16.025   2.132  12.059 -0.0820 -0.1720  0.0198
 1464DOPC   C3B17179  16.336   1.876  12.284  0.5075 -0.1134  0.0391
 1464DOPC   C4B17180  16.699   1.841  12.545  0.1771  0.0721 -0.0241
 1465DOPE   NH317181  14.327   0.656  10.554  0.1148  0.2128  0.1397
 1465DOPE   PO417182  14.215   0.648  10.837 -0.1325 -0.2937  0.0257
 1465DOPE   GL117183  13.982   0.727  11.194 -0.0143 -0.0766 -0.1021
 1465DOPE   GL217184  13.918   1.023  11.287  0.0259 -0.3565 -0.2598
 1465DOPE   C1A17185  13.858   0.505  11.554 -0.0548  0.2007  0.0172
 1465DOPE   D2A17186  13.475   0.486  11.834  0.1986  0.0805  0.0083
 1465DOPE   C3A17187  13.641   0.559  12.298  0.4645 -0.1255  0.0094
 1465DOPE   C4A17188  13.558   0.516  12.760  0.3677  0.2685  0.0556
 1465DOPE   C1B17189  14.119   1.199  11.639 -0.1628  0.0200  0.0021
 1465DOPE   D2B17190  14.072   1.252  12.116 -0.0012 -0.0281  0.1172
 1465DOPE   C3B17191  14.158   0.979  12.486 -0.0584  0.0121 -0.2002
 1465DOPE   C4B17192  14.093   0.913  12.939 -0.2491 -0.2230 -0.1378
 1466POSM   NC317193  15.096   9.874  10.667 -0.1209 -0.1971 -0.1135
 1466POSM   PO417194  15.404   9.808  10.381  0.3055 -0.1692  0.1462
 1466POSM   AM117195  15.509  10.030  10.600 -0.2168  0.1845 -0.1133
 1466POSM   AM217196  15.610  10.306  10.719 -0.1735  0.1657  0.2522
 1466POSM   T1A17197  15.392   9.994  11.062 -0.1085  0.0955 -0.0974
 1466POSM   C2A17198  15.254  10.144  11.458  0.2235 -0.0210  0.2970
 1466POSM   C3A17199  15.106  10.568  11.446 -0.0525 -0.4156 -0.2370
 1466POSM   C1B17200  15.670  10.406  11.063 -0.0716  0.1561  0.2469
 1466POSM   D2B17201  15.750  10.267  11.511 -0.1796  0.3441 -0.3408
 1466POSM   C3B17202  15.471  10.438  11.830 -0.0413  0.1765 -0.1789
 1466POSM   C4B17203  15.287  10.507  12.223  0.2042  0.2348  0.0138
 1467POSM   NC317204  14.791   2.200  11.007  0.1228  0.2124  0.1049
 1467POSM   PO417205  15.154   2.226  10.889  0.0295  0.1886 -0.2601
 1467POSM   AM117206  15.381   2.223  11.124 -0.3724  0.0710  0.1084
 1467POSM   AM217207  15.651   2.292  11.082 -0.2454 -0.1968 -0.1428
 1467POSM   T1A17208  15.580   2.025  11.599 -0.4398 -0.2447  0.0899
 1467POSM   C2A17209  15.878   1.701  11.831 -0.0811  0.3043 -0.2287
 1467POSM   C3A17210  16.366   1.770  11.837 -0.0275  0.1194  0.1414
 1467POSM   C1B17211  15.651   2.478  11.352  0.0388  0.1059  0.1655
 1467POSM   D2B17212  15.657   2.474  11.828  0.0207 -0.0213 -0.2390
 1467POSM   C3B17213  15.634   2.904  11.963 -0.0949 -0.2287  0.0896
 1467POSM   C4B17214  15.606   3.326  12.164  0.2623 -0.2219 -0.1868
 1468DOPS   CNO17215  18.711   3.670   9.088  0.1373 -0.0441 -0.3577
 1468DOPS   PO417216  18.794   3.629   9.469  0.2836  0.1379 -0.1065
 1468DOPS   GL117217  18.892   3.538   9.853 -0.2172  0.4045  0.0772
 1468DOPS   GL217218  19.162   3.682   9.877 -0.1121  0.0303 -0.0133
 1468DOPS   C1A17219  18.622   3.652  10.230 -0.1661  0.1135 -0.1653
 1468DOPS   D2A17220  18.459   3.927  10.563 -0.0079  0.1588  0.0263
 1468DOPS   C3A17221  18.646   4.283  10.797 -0.3432 -0.1069 -0.2821
 1468DOPS   C4A17222  18.887   4.618  10.859 -0.1251 -0.0678 -0.0488
 1468DOPS   C1B17223  19.120   3.898  10.281 -0.2275 -0.0458 -0.1252
 1468DOPS   D2B17224  18.946   3.802  10.677  0.1901  0.0517 -0.2772
 1468DOPS   C3B17225  19.172   3.777  11.070 -0.0004  0.0779 -0.1613
 1468DOPS   C4B17226  19.453   3.822  11.449 -0.0590  0.1723  0.1309
 1469DOPC   NC317227  14.257  10.526  10.762 -0.2293  0.2401  0.1990
 1469DOPC   PO417228  14.204  10.154  10.935 -0.0267  0.0051 -0.0488
 1469DOPC   GL117229  14.417  10.106  11.206  0.2090  0.2097 -0.5821
 1469DOPC   GL217230  14.375   9.885  11.316 -0.0135 -0.3631  0.2542
 1469DOPC   C1A17231  14.541  10.328  11.598  0.1195 -0.0521  0.0287
 1469DOPC   D2A17232  14.866  10.403  11.923 -0.2188  0.3251  0.0604
 1469DOPC   C3A17233  14.833  10.666  12.325 -0.0454  0.0844 -0.0776
 1469DOPC   C4A17234  14.843  10.799  12.787 -0.1299  0.0389 -0.2369
 1469DOPC   C1B17235  14.286   9.955  11.826 -0.1465 -0.0575 -0.0092
 1469DOPC   D2B17236  14.121   9.988  12.294  0.0842  0.0110 -0.0500
 1469DOPC   C3B17237  14.010  10.494  12.267  0.0590 -0.2926  0.1060
 1469DOPC   C4B17238  13.663  10.673  12.046  0.3084  0.0585  0.3575
 1470POSM   NC317239   9.247   1.379  10.790  0.0939  0.1520  0.0699
 1470POSM   PO417240   9.221   1.649  10.495 -0.2916 -0.1773  0.3812
 1470POSM   AM117241   9.237   1.837  10.736 -0.1765 -0.1022 -0.1313
 1470POSM   AM217242   9.333   2.055  10.898 -0.2830 -0.0772  0.1140
 1470POSM   T1A17243   9.515   1.700  11.158 -0.4040  0.3404  0.2525
 1470POSM   C2A17244   9.801   1.519  11.433  0.2169  0.0171  0.0597
 1470POSM   C3A17245   9.874   1.138  11.595  0.2043  0.0405  0.2050
 1470POSM   C1B17246   9.247   2.139  11.190  0.2107  0.1539  0.3625
 1470POSM   D2B17247   9.291   2.307  11.628 -0.4428 -0.2190  0.0028
 1470POSM   C3B17248   9.178   2.491  12.019 -0.1541  0.1448 -0.0084
 1470POSM   C4B17249   9.259   2.766  12.420 -0.1011  0.1831  0.0354
 1471DOPE   NH317250  16.311   4.044  10.466  0.1493  0.2580  0.2140
 1471DOPE   PO417251  16.412   4.034  10.768 -0.2012 -0.1995 -0.0855
 1471DOPE   GL117252  16.678   4.058  11.029 -0.3244  0.1562  0.1794
 1471DOPE   GL217253  16.694   4.314  11.194  0.2030  0.0722 -0.2020
 1471DOPE   C1A17254  17.022   3.761  11.190 -0.1507  0.0288 -0.1095
 1471DOPE   D2A17255  17.294   3.663  11.565 -0.1674  0.0160  0.2422
 1471DOPE   C3A17256  17.261   3.509  11.982 -0.3658 -0.0887 -0.0977
 1471DOPE   C4A17257  17.410   3.113  12.111 -0.1492  0.2350  0.2151
 1471DOPE   C1B17258  17.153   4.289  11.214 -0.2051  0.1140  0.1715
 1471DOPE   D2B17259  17.383   4.511  11.510  0.1379 -0.0542 -0.0520
 1471DOPE   C3B17260  17.775   4.344  11.699 -0.0194 -0.1180  0.1756
 1471DOPE   C4B17261  18.204   4.190  11.850  0.1429  0.0156  0.3727
 1472POSM   NC317262  10.857   5.338  11.037  0.4568 -0.0194  0.0954
 1472POSM   PO417263  11.041   5.021  11.094 -0.1208 -0.1158 -0.1570
 1472POSM   AM117264  10.719   4.952  11.233  0.0728 -0.2527  0.4179
 1472POSM   AM217265  10.621   4.771  11.387 -0.3112  0.3416  0.0634
 1472POSM   T1A17266  10.462   5.246  11.515  0.1430  0.1780  0.1673
 1472POSM   C2A17267  10.238   5.232  11.934  0.1631  0.1523 -0.2479
 1472POSM   C3A17268  10.067   5.267  12.390  0.1641 -0.2510 -0.0870
 1472POSM   C1B17269  10.713   4.884  11.688  0.0705 -0.0339 -0.5400
 1472POSM   D2B17270  10.885   4.851  12.098  0.0274  0.3277  0.1689
 1472POSM   C3B17271  10.646   4.586  12.389 -0.1440  0.0865  0.1167
 1472POSM   C4B17272  10.230   4.373  12.468  0.0195  0.1003 -0.1234
 1473POSM   NC317273  13.897   3.412  11.627  0.0938 -0.0314 -0.2455
 1473POSM   PO417274  13.852   3.808  11.590 -0.0668  0.1621 -0.0540
 1473POSM   AM117275  14.045   4.003  11.827 -0.3929 -0.1346 -0.0033
 1473POSM   AM217276  14.225   4.200  11.927 -0.1729 -0.0728 -0.0870
 1473POSM   T1A17277  14.150   4.013  12.315 -0.2799 -0.0643 -0.0511
 1473POSM   C2A17278  13.958   3.863  12.686 -0.0232 -0.0541  0.1803
 1473POSM   C3A17279  13.817   3.626  13.030  0.2987 -0.2300  0.1568
 1473POSM   C1B17280  14.084   4.474  12.007  0.1527 -0.1845  0.2701
 1473POSM   D2B17281  13.968   4.882  12.226  0.0753  0.1566 -0.5129
 1473POSM   C3B17282  13.693   5.005  12.600  0.0318 -0.2477  0.2128
 1473POSM   C4B17283  13.265   5.017  12.829 -0.3001  0.2499  0.0325
 1474POSM   NC317284  13.974   4.874  11.761 -0.2287 -0.1102 -0.3057
 1474POSM   PO417285  13.662   4.775  11.607 -0.4055  0.1631 -0.1837
 1474POSM   AM117286  13.608   4.613  11.876  0.0400 -0.5199  0.0382
 1474POSM   AM217287  13.407   4.563  12.082  0.0295 -0.0994 -0.3484
 1474POSM   T1A17288  13.671   4.161  12.158 -0.1931  0.2181  0.0206
 1474POSM   C2A17289  13.802   3.670  12.236  0.2426  0.1994 -0.0087
 1474POSM   C3A17290  14.211   3.564  12.098  0.1448 -0.0932 -0.0673
 1474POSM   C1B17291  13.582   4.564  12.370 -0.0354  0.0714  0.0363
 1474POSM   D2B17292  13.646   4.586  12.906 -0.1345 -0.0130 -0.1023
 1474POSM   C3B17293  14.092   4.581  13.102  0.0427 -0.1401 -0.1723
 1474POSM   C4B17294  14.200   4.278  13.466 -0.0649  0.0153  0.2242
 1475DOPS   CNO17295  23.387   4.809   9.468 -0.1584  0.2129  0.3433
 1475DOPS   PO417296  23.300   4.579   9.142  0.0975 -0.0051  0.0205
 1475DOPS   GL117297  23.098   4.408   9.418  0.1313  0.0035 -0.1883
 1475DOPS   GL217298  22.854   4.351   9.428  0.0427 -0.0051  0.1069
 1475DOPS   C1A17299  23.296   4.332   9.801  0.1208  0.0594 -0.1486
 1475DOPS   D2A17300  23.353   4.026  10.151 -0.0596  0.3879 -0.1003
 1475DOPS   C3A17301  23.292   3.609   9.960 -0.1444  0.0279 -0.0896
 1475DOPS   C4A17302  23.331   3.152   9.900  0.0776 -0.3441 -0.1853
 1475DOPS   C1B17303  22.783   4.499   9.820 -0.3137  0.1307 -0.2969
 1475DOPS   D2B17304  22.927   4.314  10.231 -0.1599  0.2385  0.1332
 1475DOPS   C3B17305  22.912   4.400  10.707  0.0954  0.0548 -0.3732
 1475DOPS   C4B17306  22.757   4.527  11.170  0.0690 -0.0237  0.1293
 1476POSM   NC317307  14.289   1.411  11.042 -0.0827  0.1009  0.3129
 1476POSM   PO417308  14.470   1.183  10.833  0.0625 -0.1258 -0.1744
 1476POSM   AM117309  14.559   1.031  11.091  0.0889 -0.3894 -0.3122
 1476POSM   AM217310  14.391   0.887  11.240  0.1289  0.0221  0.0903
 1476POSM   T1A17311  14.887   0.792  11.397 -0.0508 -0.0014  0.0747
 1476POSM   C2A17312  15.235   0.693  11.662 -0.1954 -0.1658  0.1384
 1476POSM   C3A17313  15.569   0.793  11.931 -0.1789 -0.1060  0.1653
 1476POSM   C1B17314  14.331   0.761  11.599  0.1913 -0.1262 -0.1337
 1476POSM   D2B17315  14.200   0.361  11.902  0.2170  0.1242 -0.1666
 1476POSM   C3B17316  14.499   0.283  12.329  0.1248  0.3551 -0.0673
 1476POSM   C4B17317  14.711   0.454  12.713 -0.0517  0.1787 -0.4012
 1477DOPE   NH317318  21.577   5.676   9.773  0.0925  0.1132 -0.0153
 1477DOPE   PO417319  21.901   5.620   9.903 -0.0490 -0.1455  0.3312
 1477DOPE   GL117320  22.187   5.598  10.186  0.0275  0.1776  0.0161
 1477DOPE   GL217321  22.366   5.744  10.317 -0.1297  0.1556  0.0250
 1477DOPE   C1A17322  22.027   5.701  10.648  0.1439 -0.1855 -0.0999
 1477DOPE   D2A17323  21.996   5.954  11.075  0.0556  0.0622  0.2066
 1477DOPE   C3A17324  21.589   6.132  11.282  0.0394 -0.0330 -0.2897
 1477DOPE   C4A17325  21.472   6.449  11.590  0.0152  0.2141  0.6683
 1477DOPE   C1B17326  22.467   5.828  10.750  0.1651  0.3158 -0.2771
 1477DOPE   D2B17327  22.535   5.825  11.231 -0.0941 -0.0625 -0.1406
 1477DOPE   C3B17328  22.738   6.175  11.535  0.0252 -0.0187  0.0361
 1477DOPE   C4B17329  23.003   6.145  11.969 -0.2213  0.2137  0.0227
 1478DOPE   NH317330  23.193   9.690   9.788  0.2466 -0.0395  0.0925
 1478DOPE   PO417331  23.172   9.811  10.070  0.2185 -0.1594 -0.0231
 1478DOPE   GL117332  23.096   9.655  10.415  0.0403  0.1462  0.2835
 1478DOPE   GL217333  23.320   9.486  10.440 -0.2488 -0.3233 -0.3951
 1478DOPE   C1A17334  22.765   9.700  10.780 -0.1211 -0.0298  0.0280
 1478DOPE   D2A17335  22.557   9.515  11.100  0.3180  0.1419 -0.1071
 1478DOPE   C3A17336  22.402   9.826  11.379  0.1637  0.1383  0.3172
 1478DOPE   C4A17337  22.246  10.067  11.736 -0.1383  0.0942  0.2161
 1478DOPE   C1B17338  22.997   9.225  10.670 -0.0751 -0.3664 -0.0719
 1478DOPE   D2B17339  22.890   8.737  10.680 -0.0578  0.1934  0.1331
 1478DOPE   C3B17340  22.670   8.464  11.026 -0.1341 -0.0486  0.1651
 1478DOPE   C4B17341  22.658   8.242  11.459 -0.1045 -0.0951  0.2640
 1479DOPE   NH317342  15.478   4.962  11.092 -0.2053  0.1127  0.0409
 1479DOPE   PO417343  15.297   4.693  11.137 -0.1657 -0.1477  0.1792
 1479DOPE   GL117344  15.423   4.818  11.525 -0.4219 -0.0701 -0.1315
 1479DOPE   GL217345  15.600   4.715  11.671  0.0715 -0.0276  0.0715
 1479DOPE   C1A17346  15.365   5.096  11.900 -0.2709 -0.0095  0.3247
 1479DOPE   D2A17347  15.096   5.146  12.320 -0.1612 -0.1679 -0.2016
 1479DOPE   C3A17348  15.288   5.354  12.690 -0.1790  0.1339 -0.0420
 1479DOPE   C4A17349  15.238   5.641  13.039  0.2696  0.0718  0.0238
 1479DOPE   C1B17350  15.578   4.696  12.126 -0.1601  0.1239  0.0684
 1479DOPE   D2B17351  15.601   4.963  12.483 -0.3753 -0.0072  0.0515
 1479DOPE   C3B17352  15.965   4.969  12.774  0.2093  0.0105  0.2255
 1479DOPE   C4B17353  16.337   4.934  13.064  0.1206 -0.4414 -0.1300
 1480DOPE   NH317354  11.156   0.308  11.173 -0.0892  0.0657  0.0577
 1480DOPE   PO417355  11.388   0.450  10.965 -0.1267 -0.1243 -0.4203
 1480DOPE   GL117356  11.595   0.671  11.267 -0.1421 -0.0410 -0.0525
 1480DOPE   GL217357  11.379   0.642  11.526 -0.2668 -0.1494  0.0509
 1480DOPE   C1A17358  11.851   0.469  11.619  0.1247  0.0164  0.1535
 1480DOPE   D2A17359  11.711   0.342  12.027 -0.0713  0.4986 -0.1073
 1480DOPE   C3A17360  12.002   0.318  12.387  0.0719  0.0029  0.2321
 1480DOPE   C4A17361  12.375   0.186  12.699  0.2308 -0.1223 -0.0748
 1480DOPE   C1B17362  11.304   0.199  11.712 -0.1664 -0.0064  0.0600
 1480DOPE   D2B17363  11.512  -0.215  11.749  0.0520 -0.3417  0.1071
 1480DOPE   C3B17364  11.538  -0.485  12.141 -0.1194 -0.3237 -0.0108
 1480DOPE   C4B17365  11.464  -0.718  12.519 -0.0732  0.1899  0.2592
 1481POSM   NC317366  12.840   0.793  10.589 -0.0741  0.2293 -0.0055
 1481POSM   PO417367  12.516   0.848  10.828  0.3716 -0.0814  0.1237
 1481POSM   AM117368  12.477   0.753  11.135 -0.0896  0.3836 -0.1336
 1481POSM   AM217369  12.624   0.518  11.291  0.2532 -0.2304 -0.0412
 1481POSM   T1A17370  12.215   0.836  11.558 -0.0386  0.2286 -0.2006
 1481POSM   C2A17371  12.126   0.734  12.018  0.2376  0.0109 -0.2308
 1481POSM   C3A17372  11.774   0.845  12.331  0.0850  0.0376 -0.0388
 1481POSM   C1B17373  12.580   0.482  11.622 -0.0460 -0.0281  0.1121
 1481POSM   D2B17374  12.347   0.221  11.944 -0.0608  0.1231  0.1016
 1481POSM   C3B17375  12.502   0.462  12.331 -0.1299  0.1312 -0.0901
 1481POSM   C4B17376  12.246   0.739  12.601 -0.3706 -0.3708 -0.0216
 1482DOPC   NC317377  23.040   8.172  10.270 -0.4196 -0.0549 -0.0147
 1482DOPC   PO417378  23.165   8.521  10.085  0.3410 -0.2832 -0.1402
 1482DOPC   GL117379  23.373   8.530  10.416 -0.2600  0.3580 -0.0902
 1482DOPC   GL217380  23.622   8.568  10.509 -0.0246  0.0035  0.1991
 1482DOPC   C1A17381  23.321   8.507  10.923 -0.1898 -0.0212 -0.0139
 1482DOPC   D2A17382  23.078   8.533  11.358  0.0835  0.1229 -0.1419
 1482DOPC   C3A17383  23.109   8.158  11.707 -0.4337  0.3625  0.0342
 1482DOPC   C4A17384  23.232   8.103  12.148  0.1085 -0.0038  0.0381
 1482DOPC   C1B17385  23.490   8.976  10.704 -0.3777 -0.0207 -0.0189
 1482DOPC   D2B17386  23.250   9.017  11.134  0.2759  0.1338 -0.1341
 1482DOPC   C3B17387  23.055   9.438  11.144 -0.1185 -0.2925 -0.2580
 1482DOPC   C4B17388  23.331   9.746  10.912  0.0568 -0.2986 -0.2272
 1483DOPC   NC317389  18.150   8.508  10.023 -0.2418 -0.2483  0.2741
 1483DOPC   PO417390  18.530   8.377   9.969 -0.2190 -0.0506  0.1480
 1483DOPC   GL117391  18.715   8.459  10.252  0.1954 -0.0778  0.0774
 1483DOPC   GL217392  18.952   8.577  10.201  0.0422 -0.1412  0.0807
 1483DOPC   C1A17393  18.841   8.307  10.674 -0.2174  0.0649  0.2346
 1483DOPC   D2A17394  18.640   7.903  10.807 -0.0695 -0.0863 -0.2018
 1483DOPC   C3A17395  18.695   7.744  11.233  0.0233  0.0085 -0.0422
 1483DOPC   C4A17396  18.450   7.778  11.671 -0.0460 -0.5462 -0.0442
 1483DOPC   C1B17397  18.794   8.795  10.569  0.0579 -0.1068 -0.0270
 1483DOPC   D2B17398  18.948   9.172  10.738  0.2276 -0.1117 -0.2180
 1483DOPC   C3B17399  19.125   9.262  11.116 -0.1120 -0.3528 -0.0058
 1483DOPC   C4B17400  19.301   9.562  11.464 -0.1340  0.0779  0.0963
 1484POSM   NC317401  12.151   4.568  10.809 -0.0486  0.0820  0.4595
 1484POSM   PO417402  11.966   4.943  10.879  0.2813 -0.1610  0.2057
 1484POSM   AM117403  11.942   4.834  11.210 -0.1131 -0.0803  0.0432
 1484POSM   AM217404  12.043   4.588  11.357  0.1283  0.2598 -0.1044
 1484POSM   T1A17405  11.816   4.841  11.700  0.0491 -0.2281  0.3692
 1484POSM   C2A17406  12.092   4.893  12.045  0.2834  0.1775  0.0660
 1484POSM   C3A17407  12.224   5.209  12.400 -0.0375  0.0127  0.1481
 1484POSM   C1B17408  12.025   4.444  11.668  0.1568  0.0901  0.0139
 1484POSM   D2B17409  11.854   4.334  12.062  0.0305 -0.0082  0.0808
 1484POSM   C3B17410  11.651   4.741  12.175  0.1181 -0.0324 -0.2194
 1484POSM   C4B17411  11.309   5.026  12.346 -0.1739 -0.1015  0.1105
 1485POSM   NC317412  19.903   6.255   9.528  0.0937  0.0914  0.4646
 1485POSM   PO417413  19.601   6.340   9.772  0.1632  0.2621 -0.0842
 1485POSM   AM117414  19.444   6.533   9.997 -0.2905  0.1519  0.0555
 1485POSM   AM217415  19.479   6.525  10.254  0.1740  0.3700 -0.0874
 1485POSM   T1A17416  19.253   6.941  10.270 -0.1595  0.2811 -0.4344
 1485POSM   C2A17417  18.993   7.144  10.618 -0.2281 -0.4315 -0.5100
 1485POSM   C3A17418  18.892   7.387  10.955 -0.0896 -0.0625  0.3350
 1485POSM   C1B17419  19.769   6.422  10.485  0.2606  0.0657  0.0696
 1485POSM   D2B17420  20.066   6.272  10.764  0.1931  0.0505 -0.0471
 1485POSM   C3B17421  20.007   6.242  11.202 -0.0279 -0.0564  0.2003
 1485POSM   C4B17422  20.120   6.523  11.547 -0.2254  0.0366  0.0990
 1486DOPS   CNO17423  21.134   5.275   9.648  0.0474 -0.0613 -0.1944
 1486DOPS   PO417424  20.964   5.517   9.896 -0.1671  0.0739 -0.2229
 1486DOPS   GL117425  20.816   5.499  10.313 -0.2006 -0.0954 -0.0594
 1486DOPS   GL217426  20.567   5.343  10.269 -0.2667 -0.2571  0.3701
 1486DOPS   C1A17427  20.906   5.867  10.584  0.3852 -0.2422  0.0313
 1486DOPS   D2A17428  21.196   6.080  10.897 -0.0577  0.3682 -0.4601
 1486DOPS   C3A17429  21.195   6.415  11.146 -0.0619 -0.0938 -0.2604
 1486DOPS   C4A17430  21.016   6.509  11.558 -0.0959 -0.1229  0.4454
 1486DOPS   C1B17431  20.685   5.327  10.710 -0.4174 -0.1921 -0.0587
 1486DOPS   D2B17432  20.441   5.318  11.096 -0.0091  0.1346  0.0294
 1486DOPS   C3B17433  20.371   5.788  11.206  0.2724  0.2693  0.0603
 1486DOPS   C4B17434  20.231   6.028  11.543  0.0106 -0.4949 -0.0883
 1487DOPE   NH317435  17.613   7.656   9.840  0.0829  0.0242  0.0939
 1487DOPE   PO417436  17.954   7.601   9.902  0.2219  0.3118 -0.0882
 1487DOPE   GL117437  18.092   7.593  10.229  0.1986  0.2922 -0.1334
 1487DOPE   GL217438  18.111   7.336  10.441 -0.1286  0.1694 -0.2358
 1487DOPE   C1A17439  18.212   7.791  10.616 -0.1182 -0.1005 -0.0817
 1487DOPE   D2A17440  18.070   8.208  10.939 -0.0522  0.2413  0.0315
 1487DOPE   C3A17441  17.680   8.159  11.186 -0.1589 -0.2249  0.1064
 1487DOPE   C4A17442  17.549   7.928  11.565  0.0014 -0.0796  0.1330
 1487DOPE   C1B17443  18.463   7.177  10.737  0.0861  0.1294 -0.1745
 1487DOPE   D2B17444  18.772   6.840  10.907 -0.0113  0.3759 -0.1607
 1487DOPE   C3B17445  19.126   6.771  11.215  0.0627 -0.2018  0.0937
 1487DOPE   C4B17446  19.235   6.515  11.609  0.2139  0.1296 -0.1170
 1488DOPC   NC317447  20.320   5.068   9.968 -0.1178 -0.1083 -0.1554
 1488DOPC   PO417448  20.075   5.236   9.721 -0.0533  0.2674  0.2224
 1488DOPC   GL117449  19.969   5.343  10.031 -0.1277 -0.3909 -0.0360
 1488DOPC   GL217450  20.063   5.626  10.126 -0.2526  0.0710 -0.0223
 1488DOPC   C1A17451  20.124   5.242  10.453  0.1605 -0.0390 -0.0782
 1488DOPC   D2A17452  20.271   5.018  10.790 -0.2855  0.1887 -0.1707
 1488DOPC   C3A17453  20.063   5.056  11.180 -0.0153 -0.3576 -0.2345
 1488DOPC   C4A17454  19.718   5.160  11.524 -0.2617 -0.0339  0.1199
 1488DOPC   C1B17455  19.833   5.779  10.521  0.2162 -0.2313 -0.0323
 1488DOPC   D2B17456  19.706   5.974  10.932  0.1676  0.5007 -0.1817
 1488DOPC   C3B17457  19.850   5.754  11.322 -0.0470  0.3510 -0.0639
 1488DOPC   C4B17458  19.851   5.579  11.770  0.0849 -0.0270  0.0158
 1489DOPC   NC317459  17.511   5.899  10.274 -0.3391  0.0407 -0.0055
 1489DOPC   PO417460  17.359   5.620  10.434 -0.0714  0.1204  0.0540
 1489DOPC   GL117461  17.428   5.342  10.818 -0.1926 -0.2008 -0.2552
 1489DOPC   GL217462  17.327   5.616  10.977 -0.4079 -0.1190 -0.1349
 1489DOPC   C1A17463  17.234   5.105  11.176  0.2382 -0.0511  0.0070
 1489DOPC   D2A17464  16.950   4.808  11.354 -0.1411  0.1151 -0.0162
 1489DOPC   C3A17465  17.023   4.796  11.806  0.0232 -0.0935 -0.2099
 1489DOPC   C4A17466  17.281   5.035  12.000  0.1015 -0.2658 -0.3843
 1489DOPC   C1B17467  17.538   5.638  11.405 -0.0396 -0.4304 -0.1914
 1489DOPC   D2B17468  17.666   5.662  11.857 -0.1432  0.2853  0.0019
 1489DOPC   C3B17469  18.138   5.632  11.959  0.0840 -0.1163  0.1513
 1489DOPC   C4B17470  18.534   5.451  12.142 -0.2406  0.1864 -0.3526
 1490DOPC   NC317471  16.303   9.378   9.839  0.1021  0.3926 -0.0663
 1490DOPC   PO417472  16.364   9.664  10.123  0.0009  0.1696 -0.4308
 1490DOPC   GL117473  16.244   9.984  10.291 -0.2047 -0.0582  0.2364
 1490DOPC   GL217474  16.485   9.938  10.509 -0.1000  0.0354  0.1356
 1490DOPC   C1A17475  15.995  10.032  10.677  0.2112  0.1000 -0.1426
 1490DOPC   D2A17476  16.014  10.002  11.182  0.3283 -0.2335 -0.0507
 1490DOPC   C3A17477  16.450   9.954  11.338  0.2846  0.1860  0.0900
 1490DOPC   C4A17478  16.672   9.657  11.624  0.0269  0.3472 -0.1677
 1490DOPC   C1B17479  16.392  10.216  10.917  0.0051  0.2561 -0.1820
 1490DOPC   D2B17480  16.270  10.411  11.315 -0.1359 -0.0370 -0.0727
 1490DOPC   C3B17481  16.481  10.302  11.685  0.0205 -0.1725  0.1211
 1490DOPC   C4B17482  16.675  10.105  12.019 -0.4056 -0.2516 -0.0991
 1491DOPE   NH317483  17.178  34.530   9.789 -0.1938 -0.1371 -0.4104
 1491DOPE   PO417484  17.283  34.352  10.061 -0.0450 -0.0076  0.0114
 1491DOPE   GL117485  17.276  34.481  10.444 -0.2765  0.1957  0.3301
 1491DOPE   GL217486  17.214  34.267  10.668  0.0440 -0.0881  0.0322
 1491DOPE   C1A17487  17.063  34.746  10.840  0.0643  0.2240 -0.1802
 1491DOPE   D2A17488  17.196  34.848  11.269 -0.2138  0.0119  0.2909
 1491DOPE   C3A17489  17.164  34.520  11.593 -0.0999  0.0831  0.0617
 1491DOPE   C4A17490  17.059  34.083  11.573  0.0859  0.3350 -0.1478
 1491DOPE   C1B17491  17.613  34.267  10.817  0.4258 -0.1586 -0.1251
 1491DOPE   D2B17492  18.035  34.430  10.764 -0.1341 -0.0058 -0.0364
 1491DOPE   C3B17493  18.066  34.742  11.068  0.1814  0.0135 -0.0459
 1491DOPE   C4B17494  18.245  35.119  11.302 -0.2597  0.0098  0.2796
 1492DOPC   NC317495  21.137   9.092  10.032  0.0854 -0.0958  0.2965
 1492DOPC   PO417496  21.476   9.298   9.910 -0.1930  0.0287 -0.0931
 1492DOPC   GL117497  21.476   9.271  10.307 -0.2840  0.3272 -0.1126
 1492DOPC   GL217498  21.630   9.469  10.397  0.0001  0.1616 -0.0811
 1492DOPC   C1A17499  21.649   9.134  10.706  0.0867 -0.3325 -0.1922
 1492DOPC   D2A17500  21.955   8.936  11.020  0.1477  0.2542  0.2323
 1492DOPC   C3A17501  21.777   8.702  11.368 -0.0949  0.4093 -0.0257
 1492DOPC   C4A17502  21.460   8.425  11.581  0.2542  0.0326  0.0334
 1492DOPC   C1B17503  21.749   9.641  10.834  0.1352  0.0545  0.3619
 1492DOPC   D2B17504  22.024   9.537  11.219 -0.0170  0.2272  0.0652
 1492DOPC   C3B17505  21.854   9.252  11.544 -0.1136  0.3423  0.1442
 1492DOPC   C4B17506  22.065   8.984  11.854  0.1344  0.0813  0.2695
 1493POSM   NC317507  10.487   2.479  10.712 -0.0462 -0.0930 -0.0680
 1493POSM   PO417508  10.789   2.682  10.733 -0.1446 -0.0527 -0.1406
 1493POSM   AM117509  10.912   2.639  11.047  0.0341 -0.1087 -0.0752
 1493POSM   AM217510  10.779   2.497  11.252  0.1029 -0.1245 -0.1147
 1493POSM   T1A17511  11.192   2.550  11.456  0.0068  0.2768  0.0811
 1493POSM   C2A17512  11.413   2.503  11.840 -0.1255 -0.0087 -0.2276
 1493POSM   C3A17513  11.680   2.521  12.252 -0.0454  0.0555  0.4208
 1493POSM   C1B17514  10.819   2.192  11.330 -0.1518  0.3729 -0.1036
 1493POSM   D2B17515  10.704   1.917  11.679  0.1421 -0.0617 -0.0941
 1493POSM   C3B17516  10.504   1.869  12.019 -0.1214 -0.0010  0.0121
 1493POSM   C4B17517  10.289   1.677  12.363  0.1088 -0.2095  0.2501
 1494DOPS   CNO17518  17.123  32.667   9.771 -0.1846 -0.3062  0.1819
 1494DOPS   PO417519  17.266  32.841  10.060  0.1900 -0.2484  0.0317
 1494DOPS   GL117520  17.338  32.768  10.438  0.2237 -0.0952  0.1561
 1494DOPS   GL217521  17.334  33.099  10.558 -0.0830 -0.0909  0.3860
 1494DOPS   C1A17522  17.463  32.388  10.706  0.1663 -0.0681  0.0746
 1494DOPS   D2A17523  17.831  32.087  10.848 -0.2002 -0.0823  0.2059
 1494DOPS   C3A17524  18.265  32.112  11.056  0.1941 -0.0676  0.1851
 1494DOPS   C4A17525  18.509  32.257  11.424  0.1003 -0.0006  0.2831
 1494DOPS   C1B17526  17.214  32.826  10.941  0.1905 -0.1902  0.1245
 1494DOPS   D2B17527  16.781  32.689  11.173 -0.1429  0.2912  0.1411
 1494DOPS   C3B17528  16.947  32.477  11.577 -0.0850  0.0585 -0.2174
 1494DOPS   C4B17529  17.298  32.284  11.819  0.1200 -0.0322 -0.0395
 1495DOPE   NH317530  15.057   6.314  11.182 -0.0799 -0.0185 -0.1056
 1495DOPE   PO417531  14.835   6.061  11.203 -0.3155 -0.2418  0.1010
 1495DOPE   GL117532  14.703   6.138  11.567 -0.0279  0.2187 -0.2556
 1495DOPE   GL217533  14.819   6.404  11.653 -0.0603 -0.1904  0.3427
 1495DOPE   C1A17534  14.759   5.888  11.963  0.1435  0.2388 -0.1735
 1495DOPE   D2A17535  14.978   5.652  12.260 -0.0038 -0.0137 -0.2257
 1495DOPE   C3A17536  15.317   5.833  12.582 -0.0343 -0.0437 -0.0160
 1495DOPE   C4A17537  15.757   6.031  12.630 -0.0221  0.1586  0.0593
 1495DOPE   C1B17538  14.647   6.605  12.022  0.0880 -0.0105  0.0745
 1495DOPE   D2B17539  14.491   6.705  12.469  0.1371  0.0487  0.0131
 1495DOPE   C3B17540  14.584   6.532  12.860 -0.1331  0.2391 -0.1927
 1495DOPE   C4B17541  14.990   6.552  13.095 -0.0233  0.4915  0.0774
 1496POSM   NC317542  13.484   0.846  11.354  0.3404  0.0377  0.2027
 1496POSM   PO417543  13.565   0.708  10.993  0.1085 -0.0451 -0.1398
 1496POSM   AM117544  13.447   0.428  11.163  0.5065 -0.0120  0.0834
 1496POSM   AM217545  13.195   0.433  11.312 -0.4335  0.1753 -0.1635
 1496POSM   T1A17546  13.625   0.054  11.451  0.1158 -0.0176  0.1102
 1496POSM   C2A17547  13.798   0.067  11.886  0.0374  0.2565 -0.2147
 1496POSM   C3A17548  13.948   0.143  12.286 -0.2269 -0.2693 -0.2272
 1496POSM   C1B17549  13.084   0.374  11.602  0.0696  0.2573 -0.0957
 1496POSM   D2B17550  13.020   0.454  12.095  0.0393  0.1068 -0.1168
 1496POSM   C3B17551  13.103   0.250  12.441 -0.1220  0.4833 -0.0806
 1496POSM   C4B17552  13.426  -0.021  12.639  0.0753 -0.0600 -0.0851
 1497DOPC   NC317553  16.787   2.366  10.316 -0.0111 -0.2163 -0.1210
 1497DOPC   PO417554  16.835   2.049  10.548 -0.0666 -0.3521 -0.0404
 1497DOPC   GL117555  17.010   2.142  10.896  0.0101  0.0506 -0.1734
 1497DOPC   GL217556  16.930   1.856  11.018  0.3606 -0.2683 -0.1088
 1497DOPC   C1A17557  17.345   2.382  11.099 -0.1757  0.2097  0.3377
 1497DOPC   D2A17558  17.550   2.723  11.326  0.0644  0.3066 -0.1920
 1497DOPC   C3A17559  17.249   2.701  11.645  0.0192  0.2224 -0.2185
 1497DOPC   C4A17560  17.162   2.611  12.078  0.0998 -0.2222 -0.2391
 1497DOPC   C1B17561  17.268   1.906  11.312  0.3604 -0.2056 -0.2213
 1497DOPC   D2B17562  17.606   2.150  11.570 -0.0161 -0.3204 -0.0954
 1497DOPC   C3B17563  17.660   2.458  11.894 -0.0159 -0.1119 -0.4188
 1497DOPC   C4B17564  17.789   2.716  12.228  0.1415  0.1566  0.1228
 1498DOPS   CNO17565  15.515  34.466  10.132 -0.1251 -0.0715  0.1149
 1498DOPS   PO417566  15.674  34.684  10.384 -0.0296  0.1454 -0.0240
 1498DOPS   GL117567  15.631  34.600  10.817  0.0309  0.2522  0.0930
 1498DOPS   GL217568  15.757  34.310  10.761  0.1489 -0.1558  0.3899
 1498DOPS   C1A17569  15.675  34.860  11.225 -0.1477 -0.2177  0.4486
 1498DOPS   D2A17570  15.601  35.257  11.403  0.0886  0.1353 -0.1225
 1498DOPS   C3A17571  15.929  35.334  11.708 -0.3131 -0.0628 -0.1841
 1498DOPS   C4A17572  16.006  35.252  12.169  0.1356 -0.0725 -0.2677
 1498DOPS   C1B17573  16.198  34.456  11.019  0.1879 -0.1043 -0.0420
 1498DOPS   D2B17574  16.521  34.752  10.962 -0.1306 -0.1602 -0.1401
 1498DOPS   C3B17575  16.678  34.961  11.328  0.1292 -0.0436 -0.0045
 1498DOPS   C4B17576  16.940  35.289  11.274 -0.0510 -0.2801 -0.0727
 1499DOPC   NC317577  13.115   1.977  11.240  0.3280 -0.1219 -0.0083
 1499DOPC   PO417578  13.456   2.172  11.112  0.1465  0.0435  0.1553
 1499DOPC   GL117579  13.528   1.974  11.440 -0.0383 -0.0923  0.2506
 1499DOPC   GL217580  13.418   2.197  11.678  0.0756  0.2244 -0.0880
 1499DOPC   C1A17581  13.805   1.831  11.746  0.1160  0.1709  0.1562
 1499DOPC   D2A17582  13.871   1.692  12.199  0.0694 -0.0949 -0.3240
 1499DOPC   C3A17583  14.265   1.518  12.436 -0.2524  0.0079  0.2134
 1499DOPC   C4A17584  14.597   1.238  12.396 -0.1861  0.0096  0.0540
 1499DOPC   C1B17585  13.286   2.196  12.088  0.1962 -0.1437  0.0425
 1499DOPC   D2B17586  13.312   2.027  12.426 -0.0201 -0.1818  0.0244
 1499DOPC   C3B17587  13.385   2.255  12.848 -0.0978  0.0721  0.1904
 1499DOPC   C4B17588  13.333   2.584  13.195  0.0248  0.2131 -0.2476
 1500DOPC   NC317589  17.273   4.095  10.342 -0.2398 -0.4995  0.1883
 1500DOPC   PO417590  17.232   3.741  10.522  0.1329 -0.3157  0.0493
 1500DOPC   GL117591  17.575   3.612  10.642 -0.1946  0.4299  0.1727
 1500DOPC   GL217592  17.485   3.293  10.657  0.3103 -0.0712 -0.0871
 1500DOPC   C1A17593  17.713   3.791  11.019  0.3565 -0.2778 -0.0499
 1500DOPC   D2A17594  17.908   3.806  11.444  0.3830 -0.3185  0.1291
 1500DOPC   C3A17595  17.842   3.492  11.715  0.2855  0.0511  0.1089
 1500DOPC   C4A17596  17.801   3.047  11.846  0.0773  0.0525 -0.0115
 1500DOPC   C1B17597  17.926   3.366  10.872 -0.2120  0.0392  0.2294
 1500DOPC   D2B17598  18.169   3.465  11.246  0.1391 -0.0644  0.1147
 1500DOPC   C3B17599  18.389   3.648  11.646  0.0407 -0.2087 -0.0147
 1500DOPC   C4B17600  18.451   3.750  12.065 -0.1205  0.2296  0.3055
 1501DOPE   NH317601  20.273   3.559   9.176 -0.0206  0.0339  0.0998
 1501DOPE   PO417602  19.987   3.470   9.267  0.4984 -0.0335  0.4433
 1501DOPE   GL117603  19.996   3.682   9.656 -0.1139 -0.2119 -0.3292
 1501DOPE   GL217604  19.713   3.782   9.819  0.2162  0.1869 -0.5084
 1501DOPE   C1A17605  20.098   3.827  10.070  0.1382  0.1143 -0.1059
 1501DOPE   D2A17606  20.005   3.810  10.557  0.1387  0.1875  0.2928
 1501DOPE   C3A17607  20.423   3.674  10.803 -0.0494 -0.3285  0.2060
 1501DOPE   C4A17608  20.528   3.957  11.174 -0.1375  0.0916 -0.0864
 1501DOPE   C1B17609  19.589   3.844  10.214  0.1233  0.2628  0.0258
 1501DOPE   D2B17610  19.478   3.742  10.643  0.0398 -0.2599  0.5519
 1501DOPE   C3B17611  19.688   3.768  11.001 -0.1018 -0.1211 -0.1353
 1501DOPE   C4B17612  20.117   3.724  11.185 -0.0425  0.2762 -0.0097
 1502DOPC   NC317613  14.716   2.807  11.512 -0.1021 -0.1684 -0.0718
 1502DOPC   PO417614  14.636   2.447  11.451 -0.2365  0.0930  0.1484
 1502DOPC   GL117615  14.536   2.367  11.903 -0.1194  0.1418  0.4678
 1502DOPC   GL217616  14.698   2.127  11.877  0.0080  0.0537 -0.1701
 1502DOPC   C1A17617  14.822   2.368  12.263  0.4261  0.0246  0.0726
 1502DOPC   D2A17618  15.000   2.010  12.454 -0.0863 -0.0931 -0.0273
 1502DOPC   C3A17619  15.452   1.869  12.503  0.4269  0.0613 -0.1339
 1502DOPC   C4A17620  15.896   1.706  12.336  0.2689  0.3446  0.1136
 1502DOPC   C1B17621  15.082   1.981  12.021 -0.0527 -0.2045  0.0940
 1502DOPC   D2B17622  15.522   2.041  12.071 -0.0888  0.0124  0.3111
 1502DOPC   C3B17623  15.709   2.291  12.409 -0.0516 -0.2639 -0.2166
 1502DOPC   C4B17624  16.075   2.574  12.560 -0.2111  0.1087 -0.1009
 1503DOPC   NC317625  21.686  12.568   9.353 -0.1712  0.3342  0.0199
 1503DOPC   PO417626  21.559  12.709   9.660  0.1500  0.3707  0.0419
 1503DOPC   GL117627  21.757  12.485   9.967  0.1364  0.3081  0.4513
 1503DOPC   GL217628  21.967  12.383   9.825  0.0962 -0.0944 -0.0529
 1503DOPC   C1A17629  21.728  12.386  10.420 -0.0549 -0.0768 -0.2098
 1503DOPC   D2A17630  21.824  12.576  10.826  0.0122  0.2035  0.0214
 1503DOPC   C3A17631  21.845  12.323  11.224  0.2730  0.2884  0.2322
 1503DOPC   C4A17632  21.960  11.912  11.427  0.2351 -0.3507 -0.0035
 1503DOPC   C1B17633  22.272  12.466  10.198  0.0623  0.1137 -0.0013
 1503DOPC   D2B17634  22.494  12.573  10.570 -0.2683  0.0581 -0.0284
 1503DOPC   C3B17635  22.822  12.864  10.682  0.1442 -0.2434  0.1558
 1503DOPC   C4B17636  23.250  12.910  10.893 -0.0031  0.0832 -0.0781
 1504POSM   NC317637  18.961  11.191   9.887 -0.2948  0.0529 -0.0295
 1504POSM   PO417638  19.332  11.090   9.805 -0.0027 -0.0116 -0.2466
 1504POSM   AM117639  19.380  11.165  10.100  0.0495 -0.1348  0.0140
 1504POSM   AM217640  19.465  11.067  10.376  0.4816  0.2615  0.3131
 1504POSM   T1A17641  19.341  11.485  10.507  0.1029 -0.3826 -0.0388
 1504POSM   C2A17642  19.273  11.766  10.859  0.1462  0.2031 -0.2157
 1504POSM   C3A17643  19.169  11.969  11.305  0.6157  0.1980 -0.1039
 1504POSM   C1B17644  19.544  11.085  10.690 -0.1462  0.0594 -0.1345
 1504POSM   D2B17645  19.680  11.355  11.053  0.1949 -0.0354  0.0750
 1504POSM   C3B17646  19.676  11.757  11.203  0.0895  0.1677  0.0486
 1504POSM   C4B17647  19.611  12.207  11.307  0.0411  0.0815  0.0348
 1505DOPE   NH317648  16.225   4.985  10.862  0.0625  0.1414 -0.1893
 1505DOPE   PO417649  15.982   4.960  11.015  0.2438 -0.4358  0.1880
 1505DOPE   GL117650  16.172   4.845  11.348 -0.1452 -0.4436  0.1092
 1505DOPE   GL217651  16.427   4.666  11.373 -0.2644  0.0449  0.0223
 1505DOPE   C1A17652  16.085   4.894  11.804 -0.1246  0.1052  0.1698
 1505DOPE   D2A17653  16.150   4.909  12.279  0.0955 -0.1664 -0.0895
 1505DOPE   C3A17654  16.539   4.951  12.556 -0.0272  0.2875 -0.1306
 1505DOPE   C4A17655  16.778   4.837  12.876  0.0324  0.1407 -0.2149
 1505DOPE   C1B17656  16.637   4.485  11.706 -0.0963 -0.0251  0.0859
 1505DOPE   D2B17657  16.640   4.218  12.031  0.2164 -0.1308 -0.5141
 1505DOPE   C3B17658  16.884   4.598  12.249  0.0314  0.1117 -0.1121
 1505DOPE   C4B17659  17.061   4.981  12.467 -0.0787  0.0527 -0.2587
 1506DOPS   CNO17660  14.529   3.219  11.265 -0.2096 -0.1968  0.3242
 1506DOPS   PO417661  14.180   3.141  11.336 -0.0003  0.2742  0.0285
 1506DOPS   GL117662  14.305   2.968  11.665  0.1303  0.0007 -0.0197
 1506DOPS   GL217663  14.239   3.106  11.848 -0.2012  0.1396  0.2186
 1506DOPS   C1A17664  14.613   2.809  11.988 -0.2042 -0.2303 -0.2131
 1506DOPS   D2A17665  14.811   2.789  12.506 -0.0774 -0.2544 -0.1408
 1506DOPS   C3A17666  14.551   3.081  12.889 -0.0269  0.1928 -0.1608
 1506DOPS   C4A17667  14.304   3.426  13.114  0.0974 -0.1595 -0.1104
 1506DOPS   C1B17668  14.026   3.087  12.250  0.3812  0.2513  0.2284
 1506DOPS   D2B17669  14.113   3.409  12.604 -0.1473  0.0531  0.0551
 1506DOPS   C3B17670  14.410   3.775  12.787 -0.1707  0.1721 -0.2221
 1506DOPS   C4B17671  14.328   4.141  12.944  0.0828 -0.3029 -0.1259
 1507DOPC   NC317672  17.754  11.234   9.932 -0.1400 -0.2524  0.1500
 1507DOPC   PO417673  17.605  10.861   9.994  0.1359  0.0644 -0.1739
 1507DOPC   GL117674  17.488  10.871  10.318 -0.0180 -0.6527  0.0439
 1507DOPC   GL217675  17.574  11.113  10.472  0.0009  0.1480 -0.4547
 1507DOPC   C1A17676  17.168  10.835  10.680  0.0154 -0.0401  0.0536
 1507DOPC   D2A17677  17.145  11.109  11.032  0.0017 -0.0558 -0.2151
 1507DOPC   C3A17678  17.506  11.116  11.343 -0.1285  0.1511 -0.0919
 1507DOPC   C4A17679  17.440  10.873  11.767 -0.0804 -0.0907 -0.0823
 1507DOPC   C1B17680  17.586  10.880  10.885  0.1101  0.0090  0.1377
 1507DOPC   D2B17681  17.282  10.621  11.143  0.2110  0.1043  0.0667
 1507DOPC   C3B17682  17.269  10.428  11.549 -0.2432 -0.1396 -0.1244
 1507DOPC   C4B17683  17.069  10.470  11.968  0.1943 -0.0981 -0.2129
 1508DOPE   NH317684  10.784   0.861  10.868  0.1002 -0.1776  0.1369
 1508DOPE   PO417685  10.830   0.612  10.999 -0.1053 -0.0143 -0.2083
 1508DOPE   GL117686  10.685   0.668  11.342  0.1027  0.1885 -0.0385
 1508DOPE   GL217687  10.819   0.519  11.518  0.1733 -0.0583  0.1786
 1508DOPE   C1A17688  10.641   1.001  11.649  0.0072 -0.0233  0.0983
 1508DOPE   D2A17689  10.352   1.296  11.929  0.3148  0.1814 -0.1438
 1508DOPE   C3A17690  10.741   1.315  12.201 -0.1459 -0.3852 -0.0062
 1508DOPE   C4A17691  10.836   1.402  12.619 -0.2011  0.0672  0.0775
 1508DOPE   C1B17692  10.795   0.264  11.878 -0.0570  0.3231 -0.2096
 1508DOPE   D2B17693  10.703   0.343  12.275  0.0923  0.1339  0.0790
 1508DOPE   C3B17694  10.976   0.212  12.631 -0.0606 -0.2546 -0.1527
 1508DOPE   C4B17695  11.173   0.011  12.992 -0.1785 -0.1955  0.1206
 1509DOPE   NH317696  15.348   7.221  11.185  0.0417  0.2560  0.4180
 1509DOPE   PO417697  15.483   6.964  11.353 -0.1586  0.0061 -0.0080
 1509DOPE   GL117698  15.767   6.914  11.564  0.6443  0.0750  0.1379
 1509DOPE   GL217699  15.955   7.058  11.484 -0.3650 -0.0720 -0.1398
 1509DOPE   C1A17700  15.852   7.051  11.985 -0.0852  0.2504  0.0866
 1509DOPE   D2A17701  16.038   6.952  12.450  0.1008  0.0109 -0.2078
 1509DOPE   C3A17702  16.436   7.142  12.572  0.1680 -0.2194 -0.0009
 1509DOPE   C4A17703  16.821   7.340  12.340  0.0526  0.0093  0.1231
 1509DOPE   C1B17704  16.140   7.488  11.659  0.1310  0.2730 -0.1425
 1509DOPE   D2B17705  16.193   7.887  11.907 -0.0889  0.0435 -0.0277
 1509DOPE   C3B17706  16.618   8.128  11.909  0.3170 -0.0616  0.1305
 1509DOPE   C4B17707  17.093   8.237  11.881 -0.0891  0.0083 -0.3002
 1510POSM   NC317708  19.131   9.975   9.703 -0.2086  0.4539 -0.1115
 1510POSM   PO417709  18.940  10.245   9.881 -0.3463 -0.2205  0.3983
 1510POSM   AM117710  18.937  10.312  10.196  0.0396  0.2667  0.0601
 1510POSM   AM217711  18.766  10.473  10.380 -0.1780  0.4926  0.3453
 1510POSM   T1A17712  19.005  10.145  10.628  0.2541 -0.1879 -0.0592
 1510POSM   C2A17713  19.119   9.975  11.037  0.4168  0.1188 -0.1481
 1510POSM   C3A17714  19.210  10.038  11.485 -0.0804  0.2251  0.0484
 1510POSM   C1B17715  18.689  10.513  10.751  0.1596  0.0661  0.0566
 1510POSM   D2B17716  18.556  10.411  11.183  0.3324  0.3397 -0.2923
 1510POSM   C3B17717  18.572   9.945  11.220 -0.1315  0.0028  0.4040
 1510POSM   C4B17718  18.765   9.598  10.926 -0.2191  0.1079  0.0599
 1511POSM   NC317719  22.809  11.825   9.955  0.2254 -0.1019 -0.0369
 1511POSM   PO417720  22.484  11.592   9.913 -0.1823  0.0453 -0.1171
 1511POSM   AM117721  22.454  11.584  10.254 -0.1165 -0.2562 -0.2888
 1511POSM   AM217722  22.683  11.654  10.416  0.3000 -0.1172 -0.3332
 1511POSM   T1A17723  22.330  11.436  10.710  0.5163 -0.0930 -0.0320
 1511POSM   C2A17724  22.559  11.352  11.187  0.1985  0.0550  0.0617
 1511POSM   C3A17725  22.962  11.261  11.460  0.0105  0.1690 -0.1985
 1511POSM   C1B17726  22.798  11.469  10.676 -0.1544  0.1919 -0.1950
 1511POSM   D2B17727  23.007  11.585  11.065 -0.1048 -0.1720  0.1897
 1511POSM   C3B17728  23.153  12.050  11.098 -0.0820  0.0128  0.2520
 1511POSM   C4B17729  23.492  12.425  10.994  0.3672  0.1585 -0.1504
 1512DOPC   NC317730  12.948   4.479  11.103 -0.2161  0.0361 -0.0972
 1512DOPC   PO417731  12.905   4.103  11.247 -0.0498 -0.2789 -0.2026
 1512DOPC   GL117732  12.887   3.861  11.545 -0.5743 -0.1446  0.0029
 1512DOPC   GL217733  12.600   3.998  11.646 -0.3088 -0.4556  0.0470
 1512DOPC   C1A17734  12.686   3.499  11.778  0.0418  0.1506 -0.0722
 1512DOPC   D2A17735  12.349   3.442  12.109  0.0352 -0.0065 -0.2953
 1512DOPC   C3A17736  12.353   3.342  12.541  0.0166  0.2227  0.1983
 1512DOPC   C4A17737  12.129   3.327  12.964  0.0946 -0.1432  0.2791
 1512DOPC   C1B17738  12.425   4.363  11.898 -0.0611  0.1816  0.0916
 1512DOPC   D2B17739  12.418   4.509  12.376 -0.0292 -0.0957  0.1305
 1512DOPC   C3B17740  12.037   4.750  12.542  0.1565 -0.2788 -0.1296
 1512DOPC   C4B17741  11.640   4.749  12.726 -0.1645  0.2070  0.0881
 1513DOPC   NC317742  16.092  10.445   9.998 -0.2829 -0.0218 -0.0157
 1513DOPC   PO417743  16.231  10.816  10.112 -0.1907 -0.0896  0.2597
 1513DOPC   GL117744  16.328  10.878  10.549  0.1106 -0.0963 -0.2415
 1513DOPC   GL217745  16.176  11.119  10.642  0.0368  0.0662  0.1429
 1513DOPC   C1A17746  16.579  10.674  10.856  0.0787  0.1739  0.2476
 1513DOPC   D2A17747  16.814  10.506  11.212  0.1139 -0.0796  0.2451
 1513DOPC   C3A17748  16.897  10.836  11.577  0.0429  0.2338 -0.1058
 1513DOPC   C4A17749  16.696  11.183  11.817  0.0497  0.1098  0.2541
 1513DOPC   C1B17750  16.268  11.580  10.673 -0.0192 -0.0632  0.0720
 1513DOPC   D2B17751  16.246  12.036  10.562  0.0772  0.2061 -0.0086
 1513DOPC   C3B17752  16.244  12.229  10.962 -0.0380  0.0414 -0.0234
 1513DOPC   C4B17753  15.987  12.230  11.376  0.2110  0.1547  0.0976
 1514DOPC   NC317754  18.224   6.814  10.196 -0.3007  0.0488  0.0174
 1514DOPC   PO417755  18.421   6.531  10.044  0.0749 -0.2837 -0.1639
 1514DOPC   GL117756  18.601   6.387  10.342 -0.1814 -0.2490 -0.0906
 1514DOPC   GL217757  18.497   6.529  10.576 -0.2616  0.2090 -0.1220
 1514DOPC   C1A17758  19.009   6.504  10.508  0.0503 -0.1555  0.0872
 1514DOPC   D2A17759  19.340   6.801  10.762 -0.0955  0.0331  0.5212
 1514DOPC   C3A17760  19.424   7.169  11.043  0.2743 -0.0296 -0.0810
 1514DOPC   C4A17761  19.785   7.305  11.302 -0.0356 -0.1124 -0.1949
 1514DOPC   C1B17762  18.177   6.762  10.686 -0.0181 -0.1735  0.4461
 1514DOPC   D2B17763  17.736   6.557  10.796 -0.0233  0.2197  0.0445
 1514DOPC   C3B17764  17.612   6.750  11.199 -0.1830  0.1266 -0.1869
 1514DOPC   C4B17765  17.623   7.139  11.392  0.0881 -0.0184  0.1097
 1515POSM   NC317766  12.178   3.584  11.442 -0.1119 -0.0552 -0.0747
 1515POSM   PO417767  12.049   3.205  11.404  0.2389 -0.1930  0.2149
 1515POSM   AM117768  12.018   3.248  11.705  0.0716  0.1547 -0.0634
 1515POSM   AM217769  11.812   3.361  11.854  0.1247  0.0818 -0.0989
 1515POSM   T1A17770  12.037   3.037  12.169 -0.0619 -0.1212  0.3062
 1515POSM   C2A17771  12.114   2.946  12.640  0.0257  0.2859  0.0507
 1515POSM   C3A17772  12.080   2.900  13.108  0.0512  0.0544 -0.0143
 1515POSM   C1B17773  11.792   3.576  12.069  0.1700 -0.1164 -0.1680
 1515POSM   D2B17774  11.953   3.628  12.484  0.1454 -0.1081  0.1250
 1515POSM   C3B17775  11.717   3.940  12.797  0.0105  0.0802  0.1320
 1515POSM   C4B17776  11.493   4.357  12.958 -0.0380  0.2332 -0.1522
 1516DOPC   NC317777  15.096   8.522  10.778 -0.1408  0.4044 -0.2740
 1516DOPC   PO417778  15.413   8.546  10.650  0.1257 -0.1551 -0.0056
 1516DOPC   GL117779  15.624   8.674  10.962 -0.3262  0.0460  0.0929
 1516DOPC   GL217780  15.410   8.685  11.192  0.1739  0.2162 -0.0893
 1516DOPC   C1A17781  16.004   8.543  11.211  0.0561 -0.2127  0.1207
 1516DOPC   D2A17782  16.283   8.295  11.523 -0.4057 -0.2593  0.0266
 1516DOPC   C3A17783  16.562   8.567  11.771 -0.0635 -0.0368  0.1531
 1516DOPC   C4A17784  16.792   8.640  12.150  0.1557  0.1716 -0.0512
 1516DOPC   C1B17785  15.724   8.939  11.385 -0.1880 -0.1434  0.1518
 1516DOPC   D2B17786  15.937   9.040  11.797  0.3098  0.2691  0.0031
 1516DOPC   C3B17787  15.701   8.892  12.145  0.0512 -0.4507  0.4230
 1516DOPC   C4B17788  15.385   8.897  12.497  0.0485  0.1417 -0.0504
 1517POSM   NC317789  20.904   8.345   9.584  0.0871  0.0117  0.0227
 1517POSM   PO417790  20.998   8.655   9.848  0.3031 -0.2073  0.1401
 1517POSM   AM117791  21.130   8.616  10.136  0.1684 -0.1738  0.0966
 1517POSM   AM217792  21.228   8.334  10.201  0.1318  0.0033  0.2013
 1517POSM   T1A17793  21.324   8.748  10.580  0.4446  0.4475  0.2401
 1517POSM   C2A17794  21.410   8.841  11.016 -0.2823  0.2625 -0.0715
 1517POSM   C3A17795  21.532   9.258  11.188 -0.1544  0.1168  0.0446
 1517POSM   C1B17796  21.089   8.364  10.479  0.0930  0.0464  0.0185
 1517POSM   D2B17797  20.731   8.295  10.704  0.0659 -0.2913 -0.0232
 1517POSM   C3B17798  20.287   8.206  10.739  0.1191  0.0881  0.2594
 1517POSM   C4B17799  19.880   8.102  10.924  0.1455 -0.0694 -0.2510
 1518DOPS   CNO17800  19.839   2.831   9.421  0.0262 -0.1141  0.1458
 1518DOPS   PO417801  20.091   2.689   9.593  0.3263  0.1324  0.2313
 1518DOPS   GL117802  20.201   2.840   9.985  0.0014 -0.0648  0.0798
 1518DOPS   GL217803  20.476   2.873   9.936 -0.0365  0.1093  0.0065
 1518DOPS   C1A17804  19.982   2.859  10.418 -0.1906 -0.0882  0.0951
 1518DOPS   D2A17805  19.789   2.815  10.890  0.2251  0.0443  0.1086
 1518DOPS   C3A17806  20.033   2.707  11.305 -0.0100  0.0239  0.1099
 1518DOPS   C4A17807  20.172   2.805  11.716 -0.0870 -0.1186 -0.0343
 1518DOPS   C1B17808  20.462   2.689  10.380  0.0333  0.1784  0.2094
 1518DOPS   D2B17809  20.271   2.692  10.833  0.1947  0.1152  0.4720
 1518DOPS   C3B17810  20.495   2.851  11.184 -0.2839 -0.2238  0.1103
 1518DOPS   C4B17811  20.781   2.613  11.497 -0.0503 -0.2330  0.0322
 1519DOPC   NC317812  13.041   3.032  11.664 -0.1126 -0.1721  0.0943
 1519DOPC   PO417813  13.414   3.082  11.519  0.1624  0.0810  0.1758
 1519DOPC   GL117814  13.565   3.127  11.953 -0.2429 -0.1244 -0.1515
 1519DOPC   GL217815  13.316   3.229  12.006 -0.1463 -0.0929  0.4255
 1519DOPC   C1A17816  13.543   3.175  12.424 -0.3405  0.4118 -0.1091
 1519DOPC   D2A17817  13.492   3.601  12.605 -0.1538  0.1660 -0.1279
 1519DOPC   C3A17818  13.061   3.743  12.666 -0.2542 -0.1394  0.2876
 1519DOPC   C4A17819  12.579   3.774  12.775 -0.1443 -0.0551  0.1725
 1519DOPC   C1B17820  13.232   3.624  12.198  0.2038  0.1060  0.0804
 1519DOPC   D2B17821  13.243   4.088  12.334  0.4988  0.1653  0.3363
 1519DOPC   C3B17822  13.559   4.141  12.659  0.1509 -0.0263  0.2625
 1519DOPC   C4B17823  13.821   4.157  13.093  0.1469  0.1860 -0.1405
 1520DOPS   CNO17824  14.795   6.958  10.956 -0.1286  0.0276 -0.1632
 1520DOPS   PO417825  14.912   6.855  11.302 -0.1343 -0.0332 -0.0676
 1520DOPS   GL117826  14.849   7.048  11.653 -0.0107 -0.1373  0.1794
 1520DOPS   GL217827  15.147   7.043  11.708 -0.1553  0.4680  0.0014
 1520DOPS   C1A17828  14.461   7.066  11.938  0.3031 -0.0293 -0.0978
 1520DOPS   D2A17829  14.276   7.246  12.344 -0.0739  0.1811  0.0672
 1520DOPS   C3A17830  14.477   7.631  12.518  0.2250 -0.2676  0.0186
 1520DOPS   C4A17831  14.518   7.990  12.833  0.0662  0.3580  0.0051
 1520DOPS   C1B17832  15.037   6.993  12.118  0.0011  0.1354  0.1398
 1520DOPS   D2B17833  14.730   7.230  12.450  0.1190 -0.0533 -0.2953
 1520DOPS   C3B17834  14.599   7.077  12.863  0.1197 -0.0011 -0.0210
 1520DOPS   C4B17835  14.302   7.176  13.268 -0.1428 -0.1028  0.2363
 1521DOPE   NH317836  15.733   8.837  10.382  0.0483  0.2267 -0.1112
 1521DOPE   PO417837  16.027   8.663  10.307  0.0173 -0.0016  0.0922
 1521DOPE   GL117838  16.369   8.702  10.544  0.0875 -0.3134 -0.1648
 1521DOPE   GL217839  16.201   8.775  10.807 -0.1663  0.0455  0.2843
 1521DOPE   C1A17840  16.578   9.116  10.783  0.0401  0.2039  0.2396
 1521DOPE   D2A17841  16.733   9.555  10.674 -0.0436  0.0548 -0.0837
 1521DOPE   C3A17842  17.028   9.564  11.076 -0.2912  0.0132  0.1935
 1521DOPE   C4A17843  17.395   9.533  11.372 -0.0267 -0.3336  0.0766
 1521DOPE   C1B17844  16.178   8.984  11.214  0.1269  0.0317 -0.1442
 1521DOPE   D2B17845  16.404   9.015  11.569 -0.0974 -0.1122  0.3255
 1521DOPE   C3B17846  16.839   9.038  11.792  0.1311  0.1409 -0.0180
 1521DOPE   C4B17847  17.083   9.395  11.780  0.2310 -0.1474 -0.0128
 1522DOPE   NH317848  22.108   5.155   9.741 -0.2259  0.1803 -0.3085
 1522DOPE   PO417849  21.971   4.865   9.642  0.2749  0.1372 -0.6472
 1522DOPE   GL117850  21.983   4.834  10.105 -0.3751 -0.0528  0.2494
 1522DOPE   GL217851  22.146   5.072  10.324 -0.4677 -0.0321 -0.3978
 1522DOPE   C1A17852  22.085   4.649  10.525 -0.0590 -0.0457  0.1251
 1522DOPE   D2A17853  22.246   4.618  10.969 -0.1667 -0.1782  0.0386
 1522DOPE   C3A17854  21.907   4.608  11.304  0.0776  0.0067  0.1831
 1522DOPE   C4A17855  21.600   4.641  11.676  0.2972 -0.1143  0.1256
 1522DOPE   C1B17856  22.154   5.236  10.785 -0.0439  0.3875 -0.2502
 1522DOPE   D2B17857  22.316   5.102  11.219 -0.0128 -0.2357  0.0527
 1522DOPE   C3B17858  22.647   5.356  11.435  0.1847 -0.0787 -0.2045
 1522DOPE   C4B17859  23.027   5.631  11.310  0.2650 -0.0719  0.1597
 1523DOPE   NH317860  17.205   3.212  10.230  0.1799  0.0459  0.1478
 1523DOPE   PO417861  16.952   3.322  10.411 -0.3049  0.2569 -0.0978
 1523DOPE   GL117862  17.002   3.238  10.779 -0.0265 -0.0124  0.2905
 1523DOPE   GL217863  16.757   3.254  11.006 -0.1055 -0.0416 -0.0762
 1523DOPE   C1A17864  17.265   3.385  11.093  0.2367  0.0796 -0.3619
 1523DOPE   D2A17865  17.688   3.348  11.260 -0.0026 -0.2011 -0.3462
 1523DOPE   C3A17866  17.375   3.182  11.582  0.2651 -0.1178 -0.2986
 1523DOPE   C4A17867  16.982   3.075  11.852 -0.0541  0.0505 -0.1094
 1523DOPE   C1B17868  16.444   3.043  11.260 -0.1057 -0.0274  0.1748
 1523DOPE   D2B17869  16.479   3.083  11.709  0.0179  0.0554  0.2548
 1523DOPE   C3B17870  16.662   2.833  12.074 -0.2195  0.1180 -0.0916
 1523DOPE   C4B17871  16.524   2.776  12.502  0.0696 -0.0726 -0.1765
 1524DOPC   NC317872  16.754   3.667  10.676  0.4326  0.1179 -0.2344
 1524DOPC   PO417873  16.401   3.489  10.632 -0.0344 -0.1846  0.0492
 1524DOPC   GL117874  16.347   3.472  11.056 -0.0234  0.1411 -0.3201
 1524DOPC   GL217875  16.462   3.658  11.156  0.0738  0.0094  0.1137
 1524DOPC   C1A17876  16.113   3.389  11.427 -0.1422 -0.0670 -0.2907
 1524DOPC   D2A17877  15.793   3.384  11.709  0.1564  0.1463  0.0071
 1524DOPC   C3A17878  15.575   3.759  11.874  0.1810 -0.1632  0.1313
 1524DOPC   C4A17879  15.617   3.863  12.344 -0.1353  0.1125 -0.1503
 1524DOPC   C1B17880  16.700   3.434  11.448 -0.0708  0.0127  0.0268
 1524DOPC   D2B17881  16.760   3.557  11.922  0.1637 -0.1450  0.2314
 1524DOPC   C3B17882  16.585   3.312  12.270 -0.2913 -0.2837 -0.3050
 1524DOPC   C4B17883  16.580   3.273  12.713  0.0202 -0.0173  0.0362
 1525DOPS   CNO17884  22.054  10.522   9.514  0.3765  0.0838  0.1861
 1525DOPS   PO417885  21.948  10.203   9.753 -0.1584  0.2784  0.1310
 1525DOPS   GL117886  21.880  10.277  10.140 -0.0649 -0.0770 -0.1793
 1525DOPS   GL217887  22.234  10.160  10.194 -0.0633  0.1906 -0.0802
 1525DOPS   C1A17888  21.781  10.096  10.575 -0.0012 -0.0525  0.3056
 1525DOPS   D2A17889  21.589  10.161  11.010  0.0355 -0.0115  0.0527
 1525DOPS   C3A17890  21.358   9.845  11.250  0.0016  0.2488 -0.1056
 1525DOPS   C4A17891  21.269   9.531  11.535  0.0475  0.2064  0.1292
 1525DOPS   C1B17892  22.222  10.338  10.642 -0.0065 -0.2013 -0.1771
 1525DOPS   D2B17893  22.090  10.586  11.041 -0.2349 -0.3184 -0.2165
 1525DOPS   C3B17894  21.657  10.644  11.208 -0.0579 -0.3768 -0.0459
 1525DOPS   C4B17895  21.352  10.447  11.528 -0.2500  0.2290 -0.2408
 1526DOPS   CNO17896  17.914   9.479  10.127 -0.0142 -0.0633 -0.2426
 1526DOPS   PO417897  17.596   9.646  10.201 -0.1560 -0.0859  0.1998
 1526DOPS   GL117898  17.732   9.493  10.529  0.1006 -0.3991 -0.2376
 1526DOPS   GL217899  17.532   9.291  10.613  0.0234 -0.2229  0.1728
 1526DOPS   C1A17900  18.015   9.434  10.900  0.0494 -0.0022  0.2487
 1526DOPS   D2A17901  18.258   9.262  11.269  0.1753  0.0366  0.1515
 1526DOPS   C3A17902  18.313   9.123  11.692  0.0374 -0.0067 -0.0338
 1526DOPS   C4A17903  18.576   9.107  12.039  0.0550  0.1089 -0.0685
 1526DOPS   C1B17904  17.571   9.200  11.069 -0.3947  0.2536  0.2277
 1526DOPS   D2B17905  17.810   9.257  11.467  0.1240 -0.3141  0.3375
 1526DOPS   C3B17906  17.597   9.292  11.824  0.1084 -0.0702  0.2534
 1526DOPS   C4B17907  17.482   9.582  12.137  0.1052  0.1114 -0.0734
 1527DOPC   NC317908  16.279   7.899  10.550 -0.2085 -0.0070  0.1695
 1527DOPC   PO417909  16.518   7.611  10.676 -0.0348 -0.1621  0.3042
 1527DOPC   GL117910  16.723   7.514  10.995  0.0083 -0.1499  0.0562
 1527DOPC   GL217911  16.785   7.774  11.096  0.3226  0.1534  0.0052
 1527DOPC   C1A17912  16.769   7.282  11.395  0.2846 -0.2619 -0.2105
 1527DOPC   D2A17913  16.895   7.221  11.839 -0.4263 -0.1924  0.0458
 1527DOPC   C3A17914  16.946   6.851  12.123 -0.0572  0.0646  0.2076
 1527DOPC   C4A17915  16.846   6.868  12.582  0.0511  0.0604  0.0401
 1527DOPC   C1B17916  17.224   7.874  11.193  0.2542  0.2790  0.0875
 1527DOPC   D2B17917  17.611   7.578  11.178 -0.0601 -0.0268  0.2740
 1527DOPC   C3B17918  17.785   7.818  10.840 -0.0847  0.0068 -0.1861
 1527DOPC   C4B17919  17.693   8.207  10.625 -0.4320 -0.0926  0.1430
 1528DOPS   CNO17920  12.256   3.403  10.941  0.0733 -0.0048  0.0720
 1528DOPS   PO417921  11.937   3.642  11.035 -0.1276  0.1261  0.3625
 1528DOPS   GL117922  11.741   3.659  11.466  0.1376 -0.1377 -0.1027
 1528DOPS   GL217923  11.495   3.609  11.577  0.2257  0.1118 -0.0487
 1528DOPS   C1A17924  12.010   3.881  11.778  0.1098 -0.0217  0.2358
 1528DOPS   D2A17925  12.255   3.968  12.129  0.2002  0.2859 -0.0083
 1528DOPS   C3A17926  12.214   4.034  12.549  0.0202  0.1096  0.1580
 1528DOPS   C4A17927  11.967   4.316  12.827 -0.2713 -0.2183 -0.0692
 1528DOPS   C1B17928  11.308   3.468  11.947  0.0545  0.0981 -0.3648
 1528DOPS   D2B17929  11.067   3.434  12.314  0.1122  0.0867 -0.0798
 1528DOPS   C3B17930  11.197   3.663  12.714  0.3116  0.0971  0.1176
 1528DOPS   C4B17931  11.249   3.929  13.130 -0.1308 -0.2170 -0.2466
 1529DOPS   CNO17932  16.845   4.860  10.406  0.0725 -0.1264  0.0681
 1529DOPS   PO417933  17.038   4.547  10.397  0.1942  0.1145 -0.2117
 1529DOPS   GL117934  17.367   4.500  10.646 -0.0865  0.3237 -0.0397
 1529DOPS   GL217935  17.387   4.255  10.798  0.3062  0.3383 -0.0300
 1529DOPS   C1A17936  17.516   4.694  11.015  0.0135  0.1652 -0.2518
 1529DOPS   D2A17937  17.810   4.779  11.375 -0.4988 -0.1362  0.1601
 1529DOPS   C3A17938  17.692   4.802  11.863 -0.1095  0.0508 -0.1112
 1529DOPS   C4A17939  17.499   4.733  12.311 -0.0857 -0.2446 -0.0515
 1529DOPS   C1B17940  17.658   4.249  11.204  0.0048 -0.0690  0.3718
 1529DOPS   D2B17941  18.080   4.307  11.314  0.0366 -0.0633 -0.1100
 1529DOPS   C3B17942  18.462   4.141  11.400 -0.0349  0.0155 -0.0613
 1529DOPS   C4B17943  18.722   4.227  11.760  0.1096  0.0578 -0.0854
 1530DOPC   NC317944  15.033   7.682  10.909  0.4311  0.3706 -0.3654
 1530DOPC   PO417945  14.892   7.436  11.165 -0.0033 -0.2024 -0.2498
 1530DOPC   GL117946  15.204   7.527  11.575  0.0096 -0.0245  0.1841
 1530DOPC   GL217947  15.474   7.397  11.642 -0.3196 -0.1106 -0.0493
 1530DOPC   C1A17948  15.308   7.854  11.953 -0.0558  0.3603 -0.0328
 1530DOPC   D2A17949  15.130   8.244  12.177 -0.0225  0.2575  0.0520
 1530DOPC   C3A17950  15.228   8.688  12.111 -0.3125 -0.0989 -0.0829
 1530DOPC   C4A17951  15.388   8.895  11.706 -0.1683 -0.1348  0.2689
 1530DOPC   C1B17952  15.389   7.322  12.107 -0.0602 -0.1847 -0.2589
 1530DOPC   D2B17953  15.296   7.255  12.570  0.4406 -0.0122  0.2175
 1530DOPC   C3B17954  15.473   6.841  12.430 -0.1499  0.2291 -0.2623
 1530DOPC   C4B17955  15.398   6.444  12.650  0.1804  0.2602 -0.1770
 1531DOPE   NH317956  22.617  34.268   9.384  0.0758 -0.1674 -0.0992
 1531DOPE   PO417957  22.440  34.471   9.609 -0.2001 -0.1534  0.0103
 1531DOPE   GL117958  22.609  34.385   9.931 -0.0783 -0.6676 -0.0349
 1531DOPE   GL217959  22.391  34.442  10.147 -0.0274 -0.0241  0.4382
 1531DOPE   C1A17960  22.725  34.024  10.209  0.1164  0.0321 -0.1758
 1531DOPE   D2A17961  22.671  33.757  10.585 -0.0415 -0.1259  0.1335
 1531DOPE   C3A17962  22.986  33.474  10.776 -0.0481 -0.2394  0.0222
 1531DOPE   C4A17963  23.242  33.183  11.013  0.1454 -0.2761 -0.3812
 1531DOPE   C1B17964  22.504  34.231  10.570 -0.2182 -0.2682  0.2524
 1531DOPE   D2B17965  22.522  34.088  10.999  0.2345 -0.2993  0.1516
 1531DOPE   C3B17966  22.148  33.847  11.217  0.1366  0.0042 -0.0180
 1531DOPE   C4B17967  21.833  33.627  11.411  0.2186 -0.0202 -0.0347
 1532DOPE   NH317968  13.064   8.549  11.241 -0.0288  0.1698 -0.2886
 1532DOPE   PO417969  12.947   8.250  11.121 -0.0048 -0.1413  0.1668
 1532DOPE   GL117970  13.021   8.220  11.523  0.4154  0.2219  0.0114
 1532DOPE   GL217971  13.215   8.412  11.686  0.4384  0.0856  0.3414
 1532DOPE   C1A17972  12.624   8.042  11.744 -0.1148 -0.1676  0.0023
 1532DOPE   D2A17973  12.630   7.641  11.918 -0.1051 -0.0144  0.0854
 1532DOPE   C3A17974  12.778   7.615  12.353  0.1884 -0.1988  0.3210
 1532DOPE   C4A17975  12.910   7.788  12.763  0.0252  0.2232 -0.3801
 1532DOPE   C1B17976  13.329   8.372  12.146 -0.0757 -0.1764  0.0318
 1532DOPE   D2B17977  13.636   8.464  12.555 -0.2870  0.1136  0.1139
 1532DOPE   C3B17978  13.506   8.514  13.000 -0.3642 -0.4654  0.0035
 1532DOPE   C4B17979  13.489   8.840  13.384  0.1112 -0.0986 -0.5148
 1533POSM   NC317980  18.061   2.179   9.784  0.0762 -0.1864 -0.2118
 1533POSM   PO417981  18.094   1.925  10.055  0.0698 -0.1030  0.0024
 1533POSM   AM117982  18.141   1.920  10.356 -0.1633  0.3058  0.3584
 1533POSM   AM217983  18.155   1.664  10.543 -0.2211 -0.3178 -0.3968
 1533POSM   T1A17984  17.977   2.072  10.797  0.1607  0.3131  0.0386
 1533POSM   C2A17985  17.913   2.397  11.165  0.3763 -0.1968  0.1276
 1533POSM   C3A17986  18.139   2.533  11.513  0.3259 -0.0112  0.1485
 1533POSM   C1B17987  18.027   1.570  10.837 -0.1782  0.1012  0.2133
 1533POSM   D2B17988  17.691   1.699  11.093  0.1751  0.2300  0.1979
 1533POSM   C3B17989  17.694   1.568  11.561 -0.0052 -0.1802 -0.3025
 1533POSM   C4B17990  17.660   1.340  11.960  0.1851  0.1023  0.2646
 1534DOPS   CNO17991  21.223  11.311   9.501 -0.0531  0.0483 -0.4878
 1534DOPS   PO417992  21.222  11.632   9.705  0.1034 -0.1299  0.1747
 1534DOPS   GL117993  21.337  11.599  10.135 -0.2436 -0.0265  0.3673
 1534DOPS   GL217994  21.240  11.703  10.429  0.0519  0.1411  0.1289
 1534DOPS   C1A17995  21.480  11.253  10.454  0.1492  0.2335  0.5138
 1534DOPS   D2A17996  21.389  11.044  10.877  0.0134 -0.0539  0.1127
 1534DOPS   C3A17997  21.588  11.315  11.246  0.1592  0.3018  0.1483
 1534DOPS   C4A17998  21.851  11.419  11.593 -0.2869 -0.0775  0.3408
 1534DOPS   C1B17999  21.231  11.948  10.810  0.3667  0.3157 -0.0545
 1534DOPS   D2B18000  21.217  12.251  11.138  0.2335  0.0668 -0.0810
 1534DOPS   C3B18001  21.475  12.452  11.482 -0.3202  0.0552  0.0416
 1534DOPS   C4B18002  21.811  12.426  11.774 -0.2429 -0.0930 -0.0408
 1535DOPC   NC318003  14.994   1.138  10.888  0.0657  0.0186  0.0111
 1535DOPC   PO418004  15.263   1.436  10.825 -0.0640  0.4354  0.2024
 1535DOPC   GL118005  15.492   1.275  11.130 -0.1856  0.2922 -0.3670
 1535DOPC   GL218006  15.284   1.151  11.287 -0.0148  0.2819 -0.1104
 1535DOPC   C1A18007  15.781   1.283  11.525  0.0687  0.0260  0.0346
 1535DOPC   D2A18008  16.073   1.061  11.865  0.0103  0.0775  0.2157
 1535DOPC   C3A18009  16.256   1.377  12.166 -0.0305  0.1362 -0.0793
 1535DOPC   C4A18010  16.438   1.438  12.596 -0.2793 -0.0486 -0.0619
 1535DOPC   C1B18011  15.158   1.146  11.743 -0.0532 -0.0630  0.1665
 1535DOPC   D2B18012  15.173   0.983  12.183  0.0748  0.1972  0.0005
 1535DOPC   C3B18013  14.830   0.848  12.412 -0.0531  0.1286  0.3844
 1535DOPC   C4B18014  14.568   0.995  12.820  0.0402  0.1833  0.0872
 1536DOPE   NH318015  11.250   0.925  10.873 -0.1527  0.1766  0.0146
 1536DOPE   PO418016  11.595   1.061  10.961  0.0909  0.0293  0.1155
 1536DOPE   GL118017  11.489   1.055  11.399 -0.1820 -0.3584  0.2074
 1536DOPE   GL218018  11.775   1.025  11.519 -0.4153  0.0362 -0.3005
 1536DOPE   C1A18019  11.211   1.136  11.810  0.2805 -0.0786  0.1419
 1536DOPE   D2A18020  10.991   0.738  11.990  0.0057 -0.0713 -0.0568
 1536DOPE   C3A18021  11.168   0.580  12.347 -0.4268 -0.1135 -0.0221
 1536DOPE   C4A18022  11.566   0.491  12.630  0.2471 -0.0268  0.1087
 1536DOPE   C1B18023  11.553   0.853  11.912 -0.1792  0.0828  0.1429
 1536DOPE   D2B18024  11.288   1.013  12.296  0.0814 -0.2318 -0.0074
 1536DOPE   C3B18025  11.506   1.141  12.697 -0.0231  0.1151  0.0963
 1536DOPE   C4B18026  11.812   0.839  12.878 -0.1372  0.0101 -0.0049
 1537DOPS   CNO18027  17.343   2.745  10.311 -0.2024 -0.1743 -0.0166
 1537DOPS   PO418028  17.608   2.928  10.147 -0.0893  0.1925  0.0517
 1537DOPS   GL118029  17.912   2.749  10.497  0.4794  0.0424  0.1001
 1537DOPS   GL218030  17.737   2.709  10.768 -0.0746  0.3067  0.1354
 1537DOPS   C1A18031  18.190   2.525  10.807 -0.0311 -0.1289 -0.0985
 1537DOPS   D2A18032  18.588   2.336  11.080  0.0375 -0.0961 -0.0580
 1537DOPS   C3A18033  18.236   2.093  11.338  0.3313  0.0505  0.2986
 1537DOPS   C4A18034  18.096   1.997  11.755  0.0248 -0.2309  0.2356
 1537DOPS   C1B18035  17.337   2.899  10.899  0.0096  0.0149 -0.1566
 1537DOPS   D2B18036  17.049   2.900  11.233  0.1010  0.1554 -0.0444
 1537DOPS   C3B18037  16.710   2.696  11.521  0.0695  0.2577 -0.0403
 1537DOPS   C4B18038  16.526   2.322  11.730 -0.0309 -0.2587 -0.1063
 1538DOPS   CNO18039  20.440  10.498   9.631  0.2817 -0.1186 -0.2174
 1538DOPS   PO418040  20.719  10.524   9.888 -0.0109 -0.0560 -0.1190
 1538DOPS   GL118041  20.676  10.326  10.113  0.2282  0.2108 -0.1863
 1538DOPS   GL218042  20.567  10.430  10.376  0.0450  0.2588  0.3990
 1538DOPS   C1A18043  20.889   9.889  10.253 -0.0673 -0.1504  0.1467
 1538DOPS   D2A18044  21.146   9.583  10.457 -0.2709 -0.2149 -0.0814
 1538DOPS   C3A18045  21.071   9.442  10.903  0.2514 -0.1978  0.1228
 1538DOPS   C4A18046  21.043   9.099  11.164 -0.1774  0.2370  0.0613
 1538DOPS   C1B18047  20.873  10.416  10.697  0.0749  0.3544  0.2404
 1538DOPS   D2B18048  20.994  10.298  11.151 -0.2334  0.0852  0.0973
 1538DOPS   C3B18049  20.765  10.329  11.577  0.1575  0.1535  0.3921
 1538DOPS   C4B18050  20.738  10.205  11.991  0.0189 -0.0863 -0.0117
 1539DOPE   NH318051  13.818   6.381  11.195  0.1493 -0.2414  0.1695
 1539DOPE   PO418052  13.569   6.278  11.088 -0.3221 -0.0005  0.2041
 1539DOPE   GL118053  13.423   6.322  11.505 -0.1906  0.1579 -0.0758
 1539DOPE   GL218054  13.138   6.439  11.455  0.0054 -0.5239  0.1838
 1539DOPE   C1A18055  13.261   6.358  11.936 -0.0250  0.0001  0.0206
 1539DOPE   D2A18056  13.407   6.338  12.380 -0.4155  0.1392 -0.0475
 1539DOPE   C3A18057  13.536   5.977  12.681  0.1101 -0.0961  0.0397
 1539DOPE   C4A18058  13.606   5.876  13.117 -0.3073  0.1127  0.2216
 1539DOPE   C1B18059  12.892   6.128  11.711  0.0342 -0.1383 -0.2228
 1539DOPE   D2B18060  12.556   6.068  12.039 -0.1476  0.0967  0.1203
 1539DOPE   C3B18061  12.492   6.196  12.512 -0.0194 -0.3907  0.0133
 1539DOPE   C4B18062  12.369   6.480  12.874 -0.0478 -0.2363  0.2074
 1540DOPE   NH318063  17.395   4.696  10.139 -0.0922 -0.3649 -0.1107
 1540DOPE   PO418064  17.566   4.434  10.183 -0.1687 -0.0981 -0.1489
 1540DOPE   GL118065  17.921   4.319  10.368  0.1870 -0.0410  0.0152
 1540DOPE   GL218066  17.743   4.097  10.495 -0.3399 -0.2255 -0.2114
 1540DOPE   C1A18067  18.075   4.271  10.795  0.0667  0.0180  0.0860
 1540DOPE   D2A18068  18.218   3.908  11.031 -0.2584  0.0125  0.0403
 1540DOPE   C3A18069  18.689   3.863  11.090 -0.0858  0.0179  0.2083
 1540DOPE   C4A18070  18.923   3.849  11.540 -0.1411  0.2531 -0.0399
 1540DOPE   C1B18071  17.986   3.788  10.611 -0.0284 -0.1712 -0.2507
 1540DOPE   D2B18072  18.342   3.477  10.676  0.0498 -0.2290 -0.0148
 1540DOPE   C3B18073  18.325   3.042  10.933 -0.1087  0.3123 -0.0891
 1540DOPE   C4B18074  18.001   2.961  11.289  0.0698 -0.0803 -0.0497
 1541POSM   NC318075  21.630   0.416   9.400  0.0302 -0.1910 -0.0647
 1541POSM   PO418076  21.998   0.516   9.454  0.1481  0.1909  0.0370
 1541POSM   AM118077  21.953   0.701   9.732 -0.0160  0.3187  0.1074
 1541POSM   AM218078  22.106   0.854   9.894 -0.1614 -0.0883 -0.1247
 1541POSM   T1A18079  21.647   0.706  10.155  0.0498 -0.0096 -0.1984
 1541POSM   C2A18080  21.593   0.723  10.607  0.4769 -0.0689  0.0629
 1541POSM   C3A18081  21.472   0.854  11.011  0.1577 -0.1560  0.1309
 1541POSM   C1B18082  22.073   0.907  10.236 -0.0874 -0.1240 -0.2351
 1541POSM   D2B18083  21.916   1.115  10.642  0.1475  0.1114  0.2849
 1541POSM   C3B18084  21.982   1.397  10.980  0.0975  0.1847  0.0275
 1541POSM   C4B18085  22.194   1.719  11.184  0.2221 -0.2328 -0.0265
 1542DOPC   NC318086  21.523   5.047   9.481 -0.0433 -0.2067 -0.0624
 1542DOPC   PO418087  21.572   5.194   9.868  0.2858 -0.2499  0.0984
 1542DOPC   GL118088  21.579   5.452  10.180 -0.1904 -0.0117 -0.0631
 1542DOPC   GL218089  21.807   5.410  10.316  0.1146 -0.1352 -0.0602
 1542DOPC   C1A18090  21.230   5.478  10.540  0.1015 -0.1054  0.0665
 1542DOPC   D2A18091  21.125   5.591  10.983 -0.3692  0.0824 -0.4599
 1542DOPC   C3A18092  20.829   5.918  11.152  0.1086  0.3044  0.1930
 1542DOPC   C4A18093  20.631   6.312  11.320  0.0379  0.0474  0.1633
 1542DOPC   C1B18094  21.634   5.237  10.723 -0.1936  0.1059  0.4023
 1542DOPC   D2B18095  21.760   4.938  11.000  0.3184  0.1442  0.1981
 1542DOPC   C3B18096  21.396   4.601  11.120  0.1176 -0.0698  0.1265
 1542DOPC   C4B18097  21.091   4.581  10.809 -0.0686 -0.0133 -0.2897
 1543DOPC   NC318098  13.401   2.659  11.215  0.2782  0.0468 -0.1737
 1543DOPC   PO418099  13.102   2.613  11.431  0.0914  0.1419 -0.2091
 1543DOPC   GL118100  13.123   2.604  11.837 -0.2710 -0.3196  0.1692
 1543DOPC   GL218101  13.408   2.655  11.845  0.1431 -0.1107  0.2787
 1543DOPC   C1A18102  13.117   2.869  12.251  0.0993 -0.0030 -0.0942
 1543DOPC   D2A18103  13.062   3.221  12.518 -0.1812 -0.0388  0.1762
 1543DOPC   C3A18104  12.785   3.529  12.315 -0.2438  0.1507 -0.0901
 1543DOPC   C4A18105  12.866   3.934  12.024  0.1164  0.5683 -0.0465
 1543DOPC   C1B18106  13.563   2.683  12.263 -0.1201 -0.2808 -0.0542
 1543DOPC   D2B18107  13.817   2.739  12.622  0.1177 -0.0035  0.2785
 1543DOPC   C3B18108  13.535   2.950  12.917 -0.1705 -0.3139  0.0052
 1543DOPC   C4B18109  13.394   3.354  13.054  0.1543  0.1789  0.0053
 1544DOPE   NH318110  21.032  12.808   9.764  0.1003  0.0079 -0.1966
 1544DOPE   PO418111  21.054  12.466   9.654  0.2646 -0.0883 -0.0976
 1544DOPE   GL118112  21.004  12.396  10.033  0.0183 -0.0184 -0.1507
 1544DOPE   GL218113  21.328  12.530  10.142 -0.0960  0.5183  0.0175
 1544DOPE   C1A18114  21.091  12.152  10.417 -0.0865  0.2548  0.2131
 1544DOPE   D2A18115  20.790  11.878  10.610 -0.0657  0.1973 -0.1556
 1544DOPE   C3A18116  20.895  11.542  10.851  0.0070 -0.0955  0.1011
 1544DOPE   C4A18117  21.075  11.387  11.229 -0.1431  0.0612 -0.1049
 1544DOPE   C1B18118  20.984  12.706  10.375  0.0869 -0.0118 -0.2620
 1544DOPE   D2B18119  20.678  12.902  10.617  0.2241  0.1662 -0.0468
 1544DOPE   C3B18120  20.483  12.760  10.965  0.3404  0.1705 -0.2158
 1544DOPE   C4B18121  20.337  12.943  11.331  0.3129  0.0482 -0.1549
 1545POSM   NC318122  23.625  11.084  10.055  0.3710  0.0702 -0.1145
 1545POSM   PO418123  23.443  10.787   9.876 -0.2202 -0.1708 -0.3772
 1545POSM   AM118124  23.281  10.752  10.150 -0.0538  0.0664 -0.1429
 1545POSM   AM218125  23.155  10.919  10.288 -0.1712  0.2152  0.0904
 1545POSM   T1A18126  23.235  10.577  10.584  0.2094 -0.1238 -0.0113
 1545POSM   C2A18127  23.062  10.188  10.848  0.2258  0.2066 -0.1076
 1545POSM   C3A18128  22.886   9.985  11.274 -0.0634  0.0392 -0.1513
 1545POSM   C1B18129  23.189  11.066  10.591 -0.0650 -0.0063 -0.2710
 1545POSM   D2B18130  23.286  11.128  11.126 -0.1248 -0.0238  0.0441
 1545POSM   C3B18131  23.448  10.770  11.292  0.3775 -0.1004 -0.0355
 1545POSM   C4B18132  23.582  10.577  11.653 -0.0247  0.0137  0.0748
 1546DOPE   NH318133  16.920   5.786  10.611  0.0288 -0.2173  0.4281
 1546DOPE   PO418134  17.039   6.048  10.461  0.0877  0.0684  0.0270
 1546DOPE   GL118135  17.237   6.160  10.701  0.1299  0.3292  0.0025
 1546DOPE   GL218136  17.507   6.064  10.728  0.2920 -0.1445 -0.0879
 1546DOPE   C1A18137  17.238   6.404  11.110 -0.1172 -0.0997 -0.2504
 1546DOPE   D2A18138  17.211   6.249  11.511 -0.2270 -0.0026  0.1029
 1546DOPE   C3A18139  17.621   6.201  11.726 -0.0368  0.0138  0.0547
 1546DOPE   C4A18140  17.901   6.092  12.040 -0.1978  0.2523 -0.0988
 1546DOPE   C1B18141  17.682   6.210  11.156 -0.1785  0.2266 -0.1608
 1546DOPE   D2B18142  17.978   6.432  11.415 -0.0750 -0.1547 -0.0592
 1546DOPE   C3B18143  18.298   6.324  11.716 -0.1035 -0.1992  0.3718
 1546DOPE   C4B18144  18.621   6.639  11.692 -0.1458 -0.0289 -0.1593
 1547DOPC   NC318145  15.780   6.595  11.113 -0.2555 -0.2695 -0.2670
 1547DOPC   PO418146  15.561   6.277  10.954 -0.0083 -0.2478 -0.2647
 1547DOPC   GL118147  15.447   6.385  11.353  0.1948 -0.0516 -0.0911
 1547DOPC   GL218148  15.297   6.595  11.523 -0.2168  0.0083  0.2009
 1547DOPC   C1A18149  15.761   6.336  11.638  0.1235 -0.3878  0.0686
 1547DOPC   D2A18150  16.078   6.577  11.944 -0.0738 -0.2345 -0.2435
 1547DOPC   C3A18151  16.345   6.203  11.946  0.0538 -0.1362 -0.0148
 1547DOPC   C4A18152  16.584   5.858  12.091 -0.0667  0.5865 -0.4044
 1547DOPC   C1B18153  15.508   6.671  11.955 -0.3656  0.3409 -0.1665
 1547DOPC   D2B18154  15.760   6.431  12.293  0.2910 -0.1639 -0.2664
 1547DOPC   C3B18155  15.871   6.579  12.764 -0.2066  0.1122  0.1956
 1547DOPC   C4B18156  16.052   6.813  13.055 -0.0553 -0.1776 -0.4088
 1548DOPS   CNO18157  11.873   0.246  10.828 -0.1591 -0.1563 -0.0448
 1548DOPS   PO418158  11.916  -0.146  10.709 -0.0457  0.0008 -0.2030
 1548DOPS   GL118159  12.074  -0.302  11.073 -0.0647  0.1054 -0.0267
 1548DOPS   GL218160  12.132  -0.058  11.305 -0.0369  0.0626 -0.1112
 1548DOPS   C1A18161  11.931  -0.459  11.451 -0.1236 -0.0486 -0.1048
 1548DOPS   D2A18162  11.945  -0.492  11.888  0.0451 -0.0002  0.3137
 1548DOPS   C3A18163  12.277  -0.617  12.151  0.0445  0.0331  0.0529
 1548DOPS   C4A18164  12.661  -0.667  12.410 -0.1254 -0.0897 -0.3511
 1548DOPS   C1B18165  11.953  -0.028  11.730  0.0602 -0.3461  0.4164
 1548DOPS   D2B18166  11.969  -0.090  12.164 -0.0096  0.1439  0.1738
 1548DOPS   C3B18167  11.562   0.002  12.369 -0.0216 -0.0014  0.2683
 1548DOPS   C4B18168  11.184  -0.252  12.545 -0.2616  0.4070  0.1771
 1549DOPE   NH318169  14.123   9.651  10.959  0.0218  0.2345 -0.1011
 1549DOPE   PO418170  13.849   9.475  11.035  0.2016 -0.3193  0.0172
 1549DOPE   GL118171  13.870   9.514  11.398 -0.1914 -0.1605  0.1070
 1549DOPE   GL218172  14.072   9.429  11.447  0.3661  0.0367 -0.4483
 1549DOPE   C1A18173  13.749   9.638  11.828  0.0053 -0.1074 -0.0315
 1549DOPE   D2A18174  13.689   9.649  12.312  0.0730 -0.0880  0.0737
 1549DOPE   C3A18175  13.784   9.368  12.688 -0.4298 -0.3603 -0.0321
 1549DOPE   C4A18176  13.675   9.112  13.037  0.0322 -0.0881 -0.1296
 1549DOPE   C1B18177  14.029   9.222  11.848  0.1393 -0.0779  0.1149
 1549DOPE   D2B18178  14.099   9.306  12.313  0.1734  0.2049  0.4601
 1549DOPE   C3B18179  14.426   9.060  12.537  0.2624  0.3489  0.0132
 1549DOPE   C4B18180  14.755   9.305  12.781 -0.3897  0.1546 -0.1404
 1550DOPE   NH318181  11.963   2.041  11.022  0.0477  0.1368  0.2003
 1550DOPE   PO418182  12.135   2.315  11.076 -0.0769  0.1860  0.1097
 1550DOPE   GL118183  12.112   2.288  11.546 -0.0975 -0.1184 -0.3494
 1550DOPE   GL218184  12.370   2.364  11.679 -0.1316 -0.2071  0.1316
 1550DOPE   C1A18185  11.770   2.187  11.841  0.0890  0.0423 -0.2275
 1550DOPE   D2A18186  11.843   2.056  12.301  0.0601  0.1847 -0.0147
 1550DOPE   C3A18187  11.935   2.337  12.708 -0.1046  0.2154  0.1516
 1550DOPE   C4A18188  11.700   2.706  12.796 -0.1216 -0.0570 -0.1531
 1550DOPE   C1B18189  12.139   2.469  12.101  0.2345 -0.1221  0.0975
 1550DOPE   D2B18190  12.354   2.493  12.531 -0.0311  0.0105  0.0792
 1550DOPE   C3B18191  12.447   2.230  12.952 -0.0331 -0.0600 -0.0063
 1550DOPE   C4B18192  12.834   2.281  13.083 -0.1694  0.0635 -0.1839
 1551DOPS   CNO18193  22.252   8.695  10.264  0.2412 -0.1522 -0.0183
 1551DOPS   PO418194  22.034   8.579   9.988  0.3376  0.0181  0.1463
 1551DOPS   GL118195  21.833   8.548  10.280 -0.0435  0.1593 -0.0937
 1551DOPS   GL218196  21.715   8.313  10.290  0.0938 -0.1239 -0.2224
 1551DOPS   C1A18197  21.989   8.561  10.749 -0.0188 -0.0196 -0.2507
 1551DOPS   D2A18198  22.232   8.502  11.138  0.0173 -0.1002  0.1667
 1551DOPS   C3A18199  22.385   8.854  11.373  0.2354 -0.0918 -0.1676
 1551DOPS   C4A18200  22.370   9.276  11.536 -0.3753 -0.1258  0.4030
 1551DOPS   C1B18201  21.559   8.280  10.688 -0.0259  0.2826  0.1426
 1551DOPS   D2B18202  21.339   8.341  11.087  0.2712 -0.2538  0.0295
 1551DOPS   C3B18203  21.059   8.547  11.331 -0.4208 -0.0939 -0.0606
 1551DOPS   C4B18204  20.959   8.607  11.809 -0.1314  0.0035 -0.1440
 1552DOPE   NH318205  22.366   1.619   9.345 -0.0807 -0.2633 -0.2182
 1552DOPE   PO418206  22.565   1.734   9.574  0.3854 -0.2302 -0.2147
 1552DOPE   GL118207  22.606   2.084   9.882  0.0751 -0.1111  0.2083
 1552DOPE   GL218208  22.592   2.378   9.945 -0.0836  0.2365 -0.5009
 1552DOPE   C1A18209  22.974   2.113  10.191 -0.1665 -0.0008 -0.1253
 1552DOPE   D2A18210  23.233   2.041  10.608  0.0885  0.3514  0.1366
 1552DOPE   C3A18211  23.056   2.084  11.057 -0.0260 -0.4491 -0.0252
 1552DOPE   C4A18212  22.778   2.375  11.370  0.1614  0.2863 -0.2027
 1552DOPE   C1B18213  22.493   2.723  10.227 -0.0971 -0.1473  0.2058
 1552DOPE   D2B18214  22.330   2.859  10.618  0.0007 -0.0020  0.0311
 1552DOPE   C3B18215  22.130   3.305  10.630  0.4846 -0.1791  0.1051
 1552DOPE   C4B18216  21.670   3.452  10.513 -0.2639 -0.0255  0.1617
 1553DOPS   CNO18217  17.388   0.852  10.287 -0.0145  0.0928 -0.1998
 1553DOPS   PO418218  17.020   0.720  10.129  0.3142  0.0250 -0.1730
 1553DOPS   GL118219  16.908   0.655  10.506 -0.3282 -0.4501 -0.3057
 1553DOPS   GL218220  16.945   0.383  10.492  0.1704 -0.2191  0.2165
 1553DOPS   C1A18221  17.049   0.862  10.893  0.0162  0.0508 -0.0763
 1553DOPS   D2A18222  17.082   0.956  11.369  0.0633  0.2905  0.3420
 1553DOPS   C3A18223  16.752   0.752  11.633  0.0784  0.0422 -0.0186
 1553DOPS   C4A18224  16.503   0.323  11.754  0.1263 -0.0105 -0.0390
 1553DOPS   C1B18225  17.316   0.379  10.804  0.1367 -0.0833 -0.0417
 1553DOPS   D2B18226  17.416   0.691  11.161  0.1962  0.0948  0.0341
 1553DOPS   C3B18227  17.310   0.524  11.564 -0.0876 -0.0644  0.0471
 1553DOPS   C4B18228  16.998   0.265  11.722  0.3224 -0.0736 -0.3301
 1554DOPS   CNO18229  26.056  33.291   8.899  0.0552 -0.0028  0.0650
 1554DOPS   PO418230  26.158  33.512   9.187  0.1152 -0.1860  0.1372
 1554DOPS   GL118231  25.982  33.384   9.555 -0.4086 -0.0288  0.1333
 1554DOPS   GL218232  25.878  33.674   9.754  0.0158  0.1409  0.0688
 1554DOPS   C1A18233  26.291  33.375   9.921  0.2705  0.0272  0.1336
 1554DOPS   D2A18234  26.570  33.546  10.264  0.0155  0.1967  0.1134
 1554DOPS   C3A18235  26.821  33.243  10.478 -0.2971  0.2241 -0.1442
 1554DOPS   C4A18236  27.208  32.990  10.550  0.0309 -0.1304  0.2301
 1554DOPS   C1B18237  25.840  33.649  10.193 -0.0229  0.1075 -0.0643
 1554DOPS   D2B18238  25.942  33.603  10.689 -0.1302  0.1906  0.1305
 1554DOPS   C3B18239  25.615  33.659  11.019  0.0008  0.0041 -0.0350
 1554DOPS   C4B18240  25.283  33.698  11.335 -0.1429  0.0706  0.0838
 1555DOPC   NC318241  12.385   2.746  11.252  0.2113  0.0346 -0.1465
 1555DOPC   PO418242  12.728   2.798  11.150 -0.1446  0.0438 -0.1857
 1555DOPC   GL118243  12.701   2.713  11.646  0.0702  0.1914  0.1016
 1555DOPC   GL218244  12.425   2.834  11.781 -0.3200  0.2141  0.4007
 1555DOPC   C1A18245  12.750   2.547  12.059 -0.1546 -0.2333  0.4269
 1555DOPC   D2A18246  12.958   2.366  12.435 -0.1206  0.0067  0.0210
 1555DOPC   C3A18247  12.992   2.653  12.789 -0.3632 -0.0197 -0.3321
 1555DOPC   C4A18248  12.949   3.077  12.992 -0.0348  0.3869  0.4309
 1555DOPC   C1B18249  12.500   2.963  12.198  0.1615  0.1663  0.0436
 1555DOPC   D2B18250  12.664   2.947  12.576 -0.1934  0.4446 -0.1152
 1555DOPC   C3B18251  12.493   2.715  12.926 -0.0301  0.0262 -0.2559
 1555DOPC   C4B18252  12.567   2.682  13.405  0.2241 -0.1090 -0.0181
 1556DOPC   NC318253  20.067  10.073   9.343  0.1340 -0.2235 -0.2183
 1556DOPC   PO418254  20.482  10.028   9.323  0.0174  0.1536 -0.2282
 1556DOPC   GL118255  20.456  10.096   9.769  0.1593  0.1331  0.3277
 1556DOPC   GL218256  20.408   9.853   9.769 -0.0448  0.0023  0.1043
 1556DOPC   C1A18257  20.263  10.114  10.188 -0.1501 -0.1782  0.2356
 1556DOPC   D2A18258  20.441   9.959  10.580 -0.2317 -0.2277  0.0998
 1556DOPC   C3A18259  20.342   9.661  10.942 -0.1626 -0.2206  0.0362
 1556DOPC   C4A18260  20.355   9.669  11.382  0.1418 -0.3995  0.0318
 1556DOPC   C1B18261  20.463   9.635  10.172  0.2208  0.0769  0.1646
 1556DOPC   D2B18262  20.704   9.525  10.566 -0.0065 -0.0694 -0.4571
 1556DOPC   C3B18263  21.009   9.116  10.513 -0.2455  0.1073 -0.0641
 1556DOPC   C4B18264  20.928   8.741  10.768  0.0751  0.5190  0.0181
 1557DOPE   NH318265  19.111   4.688   9.525 -0.0605 -0.0629 -0.0068
 1557DOPE   PO418266  19.034   4.380   9.627  0.0667 -0.2837 -0.0350
 1557DOPE   GL118267  19.046   4.323  10.123  0.1780 -0.5560  0.1254
 1557DOPE   GL218268  18.829   4.353  10.304  0.0596  0.2652 -0.0965
 1557DOPE   C1A18269  19.362   4.265  10.425  0.0579 -0.1906  0.1258
 1557DOPE   D2A18270  19.338   4.165  10.866  0.1349  0.1290  0.0102
 1557DOPE   C3A18271  19.373   4.373  11.251  0.1199 -0.3038  0.1087
 1557DOPE   C4A18272  19.706   4.260  11.579  0.0362 -0.4099 -0.0278
 1557DOPE   C1B18273  18.673   4.749  10.428  0.1576 -0.0489 -0.1824
 1557DOPE   D2B18274  18.697   5.040  10.771  0.2273 -0.1287  0.2506
 1557DOPE   C3B18275  19.147   5.109  10.833  0.2254  0.0037  0.0910
 1557DOPE   C4B18276  19.585   5.089  10.865  0.0508 -0.0676 -0.1140
 1558DOPC   NC318277  21.363   9.776  10.057 -0.1797 -0.1973 -0.1017
 1558DOPC   PO418278  21.446  10.108   9.865 -0.2222 -0.1834 -0.1139
 1558DOPC   GL118279  21.405  10.230  10.232 -0.0430  0.0029 -0.2856
 1558DOPC   GL218280  21.121  10.344  10.265  0.0472  0.3126 -0.0901
 1558DOPC   C1A18281  21.256  10.042  10.599 -0.0068  0.1034 -0.1369
 1558DOPC   D2A18282  20.901   9.889  10.841  0.1139  0.1219 -0.1328
 1558DOPC   C3A18283  20.858   9.772  11.274  0.1688  0.0596  0.1824
 1558DOPC   C4A18284  20.700   9.417  11.585 -0.0624 -0.1603 -0.3183
 1558DOPC   C1B18285  21.389  10.578  10.616 -0.0411  0.2018  0.2388
 1558DOPC   D2B18286  21.852  10.617  10.549 -0.0420 -0.0138  0.0520
 1558DOPC   C3B18287  22.188  10.980  10.453  0.4274  0.1476 -0.1318
 1558DOPC   C4B18288  22.664  10.999  10.445  0.0411 -0.0064  0.1267
 1559POSM   NC318289  15.453   2.972  10.472 -0.0584  0.0597 -0.0303
 1559POSM   PO418290  15.693   2.836  10.777  0.2214  0.0952 -0.1287
 1559POSM   AM118291  15.780   2.882  11.073 -0.3056 -0.0941  0.0192
 1559POSM   AM218292  15.956   2.893  11.306 -0.1733 -0.0175 -0.1899
 1559POSM   T1A18293  15.469   3.078  11.445 -0.1798 -0.1303 -0.0794
 1559POSM   C2A18294  15.263   3.387  11.716  0.1068  0.1285  0.1049
 1559POSM   C3A18295  15.077   3.738  11.961  0.0222  0.1106  0.0506
 1559POSM   C1B18296  16.003   2.788  11.594  0.0808 -0.3053 -0.1936
 1559POSM   D2B18297  16.105   2.624  12.045  0.2633  0.1487  0.0530
 1559POSM   C3B18298  16.414   2.372  12.252  0.1387  0.1013  0.0386
 1559POSM   C4B18299  16.809   2.131  12.108 -0.0617 -0.2551 -0.2235
 1560DOPC   NC318300  15.744   7.868  10.828 -0.2511 -0.1015  0.1816
 1560DOPC   PO418301  15.995   7.580  10.844  0.0869 -0.0177 -0.0121
 1560DOPC   GL118302  16.113   7.791  11.116  0.2079  0.0348 -0.2423
 1560DOPC   GL218303  16.156   8.019  11.033  0.0327  0.3596  0.0775
 1560DOPC   C1A18304  16.467   7.789  11.468 -0.1535  0.1477 -0.0752
 1560DOPC   D2A18305  16.604   7.592  11.878 -0.2433 -0.4931 -0.0185
 1560DOPC   C3A18306  16.537   7.841  12.315  0.1552 -0.5287  0.1795
 1560DOPC   C4A18307  16.401   8.008  12.700 -0.0110  0.2302 -0.0998
 1560DOPC   C1B18308  16.484   8.362  11.019  0.2732 -0.2272 -0.0219
 1560DOPC   D2B18309  16.621   8.670  11.281 -0.0180 -0.0796  0.1487
 1560DOPC   C3B18310  17.035   8.684  11.519 -0.0668  0.1179 -0.1355
 1560DOPC   C4B18311  17.371   9.009  11.511  0.3788 -0.1160  0.0904
 1561DOPC   NC318312  18.274   7.467   9.576 -0.1565  0.1307 -0.0129
 1561DOPC   PO418313  18.669   7.559   9.661 -0.1200 -0.4091 -0.0848
 1561DOPC   GL118314  18.949   7.614  10.026  0.1197 -0.2723  0.1504
 1561DOPC   GL218315  19.232   7.512  10.075  0.0756 -0.1587  0.0603
 1561DOPC   C1A18316  18.867   7.629  10.481 -0.1631  0.0954  0.1891
 1561DOPC   D2A18317  19.131   7.907  10.757  0.1711 -0.0183  0.1876
 1561DOPC   C3A18318  19.496   7.707  10.983 -0.0016  0.0455 -0.0534
 1561DOPC   C4A18319  19.709   7.769  11.343 -0.1181 -0.0256  0.3203
 1561DOPC   C1B18320  19.490   7.345  10.452 -0.0323 -0.2688 -0.0049
 1561DOPC   D2B18321  19.823   7.269  10.751  0.0461  0.0358 -0.1362
 1561DOPC   C3B18322  20.005   7.631  10.959 -0.1465 -0.2866  0.2298
 1561DOPC   C4B18323  20.346   7.878  11.140  0.1096  0.1456 -0.2439
 1562DOPE   NH318324  14.970   7.943  11.351 -0.0709  0.0900  0.2358
 1562DOPE   PO418325  15.113   8.146  11.168 -0.2806 -0.0356  0.1972
 1562DOPE   GL118326  15.250   8.309  11.445  0.3787 -0.0166 -0.2451
 1562DOPE   GL218327  15.144   8.447  11.646  0.1754 -0.1816  0.0027
 1562DOPE   C1A18328  15.679   8.445  11.598  0.2693 -0.2996  0.2069
 1562DOPE   D2A18329  16.012   8.557  11.847 -0.1183  0.1348  0.1736
 1562DOPE   C3A18330  16.302   8.865  12.129 -0.0831 -0.2514 -0.2183
 1562DOPE   C4A18331  16.465   9.159  12.466 -0.0946  0.1311 -0.2285
 1562DOPE   C1B18332  14.759   8.631  11.834  0.1011 -0.1394 -0.2101
 1562DOPE   D2B18333  14.399   8.905  11.781  0.1605 -0.0384 -0.1093
 1562DOPE   C3B18334  14.229   8.861  12.150 -0.2947  0.2997  0.1032
 1562DOPE   C4B18335  13.805   8.616  12.104  0.0895  0.0142 -0.0539
 1563DOPE   NH318336  13.538  10.079  11.162 -0.1763  0.0076 -0.1218
 1563DOPE   PO418337  13.825   9.996  11.218  0.1722 -0.2153  0.0845
 1563DOPE   GL118338  13.888  10.196  11.502  0.3183  0.0101 -0.4314
 1563DOPE   GL218339  14.100  10.385  11.414  0.2199  0.0986 -0.1594
 1563DOPE   C1A18340  13.798  10.174  11.982 -0.3224  0.0097 -0.0239
 1563DOPE   D2A18341  13.427  10.166  12.332 -0.3133 -0.1963  0.0111
 1563DOPE   C3A18342  13.605   9.972  12.741  0.1192  0.0141  0.3127
 1563DOPE   C4A18343  13.753   9.708  13.098  0.3207  0.1429  0.2208
 1563DOPE   C1B18344  14.135  10.663  11.809  0.1286 -0.2164  0.0762
 1563DOPE   D2B18345  14.274  11.027  12.045 -0.2444 -0.1334 -0.1395
 1563DOPE   C3B18346  14.164  11.412  12.321  0.2716 -0.1451 -0.0400
 1563DOPE   C4B18347  14.236  11.853  12.491 -0.0453 -0.2278 -0.3458
 1564DOPC   NC318348  13.895   5.072  11.254 -0.1264  0.3104  0.5992
 1564DOPC   PO418349  14.131   5.311  11.477 -0.0922 -0.0492 -0.0107
 1564DOPC   GL118350  14.142   5.466  11.857  0.4354 -0.3930  0.0537
 1564DOPC   GL218351  14.196   5.291  12.020 -0.1114  0.1895  0.0775
 1564DOPC   C1A18352  13.808   5.507  12.195  0.0717  0.1055 -0.0816
 1564DOPC   D2A18353  13.392   5.555  12.421 -0.0718  0.1618  0.2291
 1564DOPC   C3A18354  13.505   5.436  12.814  0.2138 -0.1312  0.0151
 1564DOPC   C4A18355  13.870   5.336  13.030  0.0623  0.3272  0.1598
 1564DOPC   C1B18356  14.290   5.686  12.220  0.3245  0.0712 -0.0762
 1564DOPC   D2B18357  14.526   5.678  12.596 -0.0912  0.0374 -0.3102
 1564DOPC   C3B18358  14.392   6.093  12.809 -0.0494 -0.3021  0.0275
 1564DOPC   C4B18359  14.214   6.378  13.135 -0.1303  0.1122  0.3203
 1565DOPE   NH318360  22.322   6.972   9.634 -0.0371  0.0582 -0.0145
 1565DOPE   PO418361  22.331   7.231   9.837  0.1099 -0.1019 -0.2353
 1565DOPE   GL118362  22.396   7.282  10.137 -0.2183 -0.1652 -0.0805
 1565DOPE   GL218363  22.599   7.263  10.335  0.4220  0.1466 -0.3461
 1565DOPE   C1A18364  22.161   7.600  10.460 -0.1917 -0.1140 -0.0478
 1565DOPE   D2A18365  21.820   7.786  10.590 -0.2903 -0.1326 -0.2425
 1565DOPE   C3A18366  21.976   8.072  10.889  0.2743 -0.1756  0.0697
 1565DOPE   C4A18367  21.817   8.242  11.268 -0.1037  0.3399  0.0270
 1565DOPE   C1B18368  22.521   7.103  10.776  0.4796  0.0044 -0.0815
 1565DOPE   D2B18369  22.575   7.060  11.213 -0.3304 -0.0193 -0.2128
 1565DOPE   C3B18370  22.112   7.158  11.398 -0.1718  0.2057 -0.2504
 1565DOPE   C4B18371  21.679   7.232  11.619  0.3379  0.2263 -0.2634
 1566DOPS   CNO18372  19.176   9.460   9.714  0.1839  0.0561 -0.0431
 1566DOPS   PO418373  18.914   9.410  10.007  0.0586  0.5049 -0.0646
 1566DOPS   GL118374  18.814   9.302  10.348  0.1409 -0.0142 -0.1368
 1566DOPS   GL218375  18.721   9.604  10.440  0.0291  0.2390  0.0396
 1566DOPS   C1A18376  18.467   9.257  10.706 -0.2252 -0.1183  0.1403
 1566DOPS   D2A18377  18.655   9.010  11.078 -0.4938 -0.2578 -0.0857
 1566DOPS   C3A18378  18.882   8.797  11.416  0.0509 -0.2815  0.1483
 1566DOPS   C4A18379  18.877   8.747  11.873 -0.2951 -0.2145  0.2991
 1566DOPS   C1B18380  18.487   9.961  10.682  0.2949 -0.4160 -0.0551
 1566DOPS   D2B18381  18.200  10.240  10.880  0.0624 -0.2210  0.1959
 1566DOPS   C3B18382  18.116  10.274  11.323  0.2010 -0.0622 -0.0136
 1566DOPS   C4B18383  18.366  10.203  11.717 -0.0406 -0.1702 -0.1616
 1567DOPC   NC318384  15.831  10.090  10.193  0.4097 -0.1033  0.4352
 1567DOPC   PO418385  15.602  10.386  10.212  0.1734 -0.0442 -0.3167
 1567DOPC   GL118386  15.935  10.446  10.466 -0.2558 -0.2516  0.0608
 1567DOPC   GL218387  15.866  10.729  10.463 -0.1073  0.2403 -0.2738
 1567DOPC   C1A18388  16.050  10.617  10.888 -0.1199 -0.0752  0.0020
 1567DOPC   D2A18389  16.049  10.902  11.261  0.1464 -0.0713 -0.1279
 1567DOPC   C3A18390  16.424  10.803  11.582  0.1072 -0.4917 -0.0456
 1567DOPC   C4A18391  16.620  10.678  11.988 -0.2605 -0.1983  0.3087
 1567DOPC   C1B18392  15.603  10.854  10.830 -0.0591 -0.0107 -0.1139
 1567DOPC   D2B18393  15.544  10.863  11.251  0.0731 -0.0612 -0.1666
 1567DOPC   C3B18394  15.612  11.285  11.447 -0.3078 -0.0667  0.1202
 1567DOPC   C4B18395  15.900  11.695  11.531 -0.1089 -0.1247 -0.2989
 1568POSM   NC318396  19.821   8.767   9.806  0.1210  0.0237  0.1047
 1568POSM   PO418397  19.990   8.596   9.507 -0.3362 -0.0048 -0.3604
 1568POSM   AM118398  20.064   8.413   9.798 -0.0944  0.1637 -0.3302
 1568POSM   AM218399  20.197   8.434  10.050 -0.2667 -0.1565 -0.1582
 1568POSM   T1A18400  19.938   7.972   9.974  0.2344  0.0647  0.4324
 1568POSM   C2A18401  19.764   7.543  10.005 -0.1209  0.0549  0.1347
 1568POSM   C3A18402  19.607   7.132   9.996  0.2189 -0.0063  0.0517
 1568POSM   C1B18403  20.073   8.703  10.248 -0.3861 -0.0107  0.0244
 1568POSM   D2B18404  19.897   9.041  10.519 -0.1391  0.1683 -0.0443
 1568POSM   C3B18405  19.434   9.003  10.665  0.0245 -0.0458 -0.2424
 1568POSM   C4B18406  19.126   8.746  10.989 -0.2235  0.1042  0.0470
 1569DOPC   NC318407   9.312   4.863  10.413 -0.2755 -0.0141 -0.1268
 1569DOPC   PO418408   9.129   4.702  10.711  0.0841 -0.2874 -0.3881
 1569DOPC   GL118409   9.020   4.696  11.136 -0.0998 -0.0572 -0.1988
 1569DOPC   GL218410   8.877   4.352  11.084 -0.1521  0.1364 -0.2467
 1569DOPC   C1A18411   9.142   4.815  11.528  0.0623 -0.5538  0.1637
 1569DOPC   D2A18412   9.220   4.928  11.954  0.0204 -0.1051 -0.1172
 1569DOPC   C3A18413   9.134   4.721  12.302 -0.2515  0.3085  0.1935
 1569DOPC   C4A18414   8.686   4.648  12.349 -0.0700  0.0262  0.0612
 1569DOPC   C1B18415   8.803   4.230  11.503 -0.0234  0.1377 -0.2480
 1569DOPC   D2B18416   8.677   4.258  11.944  0.4052  0.1900  0.1514
 1569DOPC   C3B18417   8.938   4.224  12.288 -0.0147  0.1434 -0.0915
 1569DOPC   C4B18418   9.126   4.292  12.706  0.1462 -0.1069  0.0327
 1570POSM   NC318419  18.716   5.200  10.057 -0.0392  0.3657  0.2187
 1570POSM   PO418420  18.654   5.525   9.853 -0.1798  0.0126 -0.1029
 1570POSM   AM118421  18.893   5.696  10.059  0.1888  0.1897 -0.3317
 1570POSM   AM218422  19.107   5.585  10.229 -0.0489  0.1834  0.0745
 1570POSM   T1A18423  18.933   5.990  10.447 -0.0813 -0.3118  0.0480
 1570POSM   C2A18424  19.208   6.104  10.825 -0.3230 -0.0008  0.2400
 1570POSM   C3A18425  19.454   6.420  11.042 -0.0332  0.1801  0.0439
 1570POSM   C1B18426  18.949   5.453  10.504  0.2253 -0.1050 -0.0096
 1570POSM   D2B18427  18.882   5.508  11.002  0.0452 -0.0812 -0.1149
 1570POSM   C3B18428  18.944   5.677  11.400  0.0230  0.1326 -0.0204
 1570POSM   C4B18429  18.718   6.081  11.539 -0.1694  0.1075  0.1553
 1571DOPE   NH318430  15.213   3.738  10.585  0.0753 -0.0729 -0.0056
 1571DOPE   PO418431  15.487   3.638  10.726 -0.1655 -0.1135  0.0743
 1571DOPE   GL118432  15.450   3.862  11.012  0.0201  0.1101 -0.1197
 1571DOPE   GL218433  15.447   4.150  11.149  0.0869 -0.4471 -0.1956
 1571DOPE   C1A18434  15.724   3.795  11.386  0.0546 -0.2486 -0.3918
 1571DOPE   D2A18435  16.107   3.861  11.656  0.0604  0.0213 -0.1048
 1571DOPE   C3A18436  16.252   3.504  11.869  0.3829  0.1703  0.2733
 1571DOPE   C4A18437  16.102   3.127  12.073 -0.0997  0.0101 -0.0096
 1571DOPE   C1B18438  15.646   4.212  11.590  0.0888 -0.0180  0.1085
 1571DOPE   D2B18439  15.798   4.201  12.010 -0.0328  0.2104  0.3533
 1571DOPE   C3B18440  16.172   4.009  12.122  0.0325 -0.1281  0.2448
 1571DOPE   C4B18441  16.526   3.835  12.359  0.0981  0.3411 -0.0602
 1572DOPE   NH318442  22.220   6.056   9.878  0.0877 -0.0734  0.0642
 1572DOPE   PO418443  21.872   6.100   9.812  0.0712  0.0418  0.0238
 1572DOPE   GL118444  21.907   6.011  10.196 -0.0722 -0.0548 -0.0694
 1572DOPE   GL218445  21.644   5.898  10.318  0.1250  0.0498  0.2322
 1572DOPE   C1A18446  21.971   6.171  10.613 -0.0602 -0.3103  0.0621
 1572DOPE   D2A18447  22.360   6.270  10.919  0.2182 -0.0512 -0.3598
 1572DOPE   C3A18448  22.323   6.492  11.354 -0.1575  0.0440 -0.0286
 1572DOPE   C4A18449  22.579   6.617  11.730  0.1238  0.0765 -0.0084
 1572DOPE   C1B18450  21.531   5.823  10.735  0.1381  0.1293 -0.2530
 1572DOPE   D2B18451  21.606   5.526  11.121  0.0412 -0.2438 -0.0679
 1572DOPE   C3B18452  22.001   5.517  11.315 -0.0479 -0.2073 -0.2043
 1572DOPE   C4B18453  22.151   5.590  11.743 -0.0200 -0.1577  0.0567
 1573DOPS   CNO18454  20.110  34.237   9.431 -0.0548 -0.2750 -0.3278
 1573DOPS   PO418455  19.986  34.378   9.757  0.1553 -0.0422 -0.0210
 1573DOPS   GL118456  19.996  34.488  10.208 -0.2224  0.0686  0.2318
 1573DOPS   GL218457  20.139  34.216  10.288  0.1867 -0.0874 -0.0547
 1573DOPS   C1A18458  20.379  34.605  10.455 -0.3001  0.0387  0.1831
 1573DOPS   D2A18459  20.571  34.836  10.836  0.1387  0.0797  0.0236
 1573DOPS   C3A18460  20.799  34.798  11.210  0.0084 -0.0091  0.2074
 1573DOPS   C4A18461  21.171  35.079  11.442 -0.2379 -0.1585  0.0321
 1573DOPS   C1B18462  19.744  34.184  10.568 -0.1484 -0.4661 -0.0155
 1573DOPS   D2B18463  19.362  34.266  10.761 -0.2134 -0.1359  0.1140
 1573DOPS   C3B18464  18.884  34.232  10.867 -0.3778  0.2060  0.1444
 1573DOPS   C4B18465  18.489  34.193  10.662 -0.0859 -0.0668 -0.0941
 1574DOPE   NH318466  12.441   1.278  11.089  0.0484 -0.0240  0.3037
 1574DOPE   PO418467  12.695   1.148  11.233  0.0171  0.1113 -0.0876
 1574DOPE   GL118468  12.633   1.041  11.516 -0.2200 -0.8255  0.0283
 1574DOPE   GL218469  12.622   1.287  11.735 -0.1345 -0.1404 -0.1046
 1574DOPE   C1A18470  12.656   0.892  11.994  0.0371  0.2337  0.0668
 1574DOPE   D2A18471  12.638   0.922  12.428 -0.1302 -0.2474  0.0791
 1574DOPE   C3A18472  12.969   1.227  12.391 -0.0868 -0.2411  0.2033
 1574DOPE   C4A18473  13.051   1.629  12.185 -0.0379  0.2279  0.0442
 1574DOPE   C1B18474  13.032   1.266  11.876  0.0086 -0.1360 -0.0383
 1574DOPE   D2B18475  13.281   0.902  12.028  0.1647 -0.0714 -0.0182
 1574DOPE   C3B18476  13.602   1.101  12.292 -0.3991 -0.2841  0.0178
 1574DOPE   C4B18477  13.619   1.046  12.740  0.4006  0.0639  0.0244
 1575DOPE   NH318478  20.841   3.175   9.630  0.1050  0.3364 -0.0543
 1575DOPE   PO418479  21.068   3.363   9.577  0.0951 -0.1663  0.0860
 1575DOPE   GL118480  21.046   3.347  10.005  0.0976  0.2388  0.5612
 1575DOPE   GL218481  21.332   3.213  10.016  0.0497 -0.0440 -0.0806
 1575DOPE   C1A18482  21.176   3.455  10.404 -0.2890  0.3242 -0.0800
 1575DOPE   D2A18483  21.304   3.252  10.826 -0.3521 -0.0882  0.3769
 1575DOPE   C3A18484  20.981   3.299  11.151 -0.0642  0.3501  0.2621
 1575DOPE   C4A18485  20.527   3.376  11.212  0.3345  0.3226 -0.0313
 1575DOPE   C1B18486  21.338   2.915  10.395 -0.2031  0.1932  0.3867
 1575DOPE   D2B18487  21.250   2.598  10.724  0.4485 -0.2295  0.0192
 1575DOPE   C3B18488  21.130   2.797  11.140 -0.0626  0.1883  0.1383
 1575DOPE   C4B18489  21.097   3.001  11.541 -0.2372  0.1284 -0.0173
 1576POSM   NC318490  23.679   9.823   9.960 -0.0915 -0.0182  0.4298
 1576POSM   PO418491  23.568   9.431   9.982  0.1568  0.0082 -0.0868
 1576POSM   AM118492  23.740   9.469  10.264 -0.4754  0.0755  0.3362
 1576POSM   AM218493  23.957   9.667  10.332 -0.2102  0.1443 -0.2060
 1576POSM   T1A18494  23.707   9.457  10.765  0.3358  0.1933  0.0263
 1576POSM   C2A18495  23.550   9.402  11.159 -0.1196  0.2412  0.3097
 1576POSM   C3A18496  23.324   9.650  11.509 -0.0923 -0.0468 -0.0526
 1576POSM   C1B18497  24.098   9.744  10.604  0.0307 -0.3565 -0.1222
 1576POSM   D2B18498  24.299   9.810  10.971 -0.0973 -0.1639 -0.2109
 1576POSM   C3B18499  24.490   9.413  11.179  0.2462  0.1731  0.1473
 1576POSM   C4B18500  24.808   9.388  11.497  0.1128  0.0626  0.0052
 1577DOPC   NC318501  25.040  10.814  10.272 -0.0370  0.1680  0.1256
 1577DOPC   PO418502  25.285  10.568  10.082  0.2349 -0.2397  0.2490
 1577DOPC   GL118503  25.196  10.397  10.487  0.2142 -0.2236  0.0440
 1577DOPC   GL218504  24.973  10.405  10.583  0.3415 -0.1833 -0.1563
 1577DOPC   C1A18505  25.163  10.049  10.836 -0.0048  0.0124  0.1693
 1577DOPC   D2A18506  24.940   9.753  11.167 -0.1203 -0.1112  0.0522
 1577DOPC   C3A18507  24.567   9.820  11.380  0.2129 -0.1377  0.0138
 1577DOPC   C4A18508  24.285  10.170  11.536  0.4090 -0.1289 -0.0479
 1577DOPC   C1B18509  25.093  10.649  10.957  0.2561 -0.2986  0.0536
 1577DOPC   D2B18510  25.059  10.793  11.465 -0.2580  0.1257  0.2924
 1577DOPC   C3B18511  25.043  10.520  11.828  0.0536 -0.2356  0.0303
 1577DOPC   C4B18512  24.767  10.167  12.063  0.1638  0.1922  0.1610
 1578DOPC   NC318513  15.669   0.955  10.263 -0.2804 -0.3067  0.0727
 1578DOPC   PO418514  15.562   0.627  10.483  0.0776  0.0920  0.0210
 1578DOPC   GL118515  15.146   0.573  10.710 -0.2384  0.2748 -0.3496
 1578DOPC   GL218516  15.314   0.733  10.956 -0.0382  0.3482 -0.1490
 1578DOPC   C1A18517  15.197   0.279  11.140 -0.0501  0.0512  0.1418
 1578DOPC   D2A18518  15.080   0.203  11.581  0.0136  0.0915 -0.2258
 1578DOPC   C3A18519  15.058  -0.101  11.904 -0.2269 -0.3029 -0.0577
 1578DOPC   C4A18520  15.141  -0.530  11.941 -0.0326 -0.0206 -0.2258
 1578DOPC   C1B18521  15.766   0.876  11.130  0.1100 -0.0310  0.0543
 1578DOPC   D2B18522  16.178   0.840  11.348 -0.0172 -0.0882 -0.2219
 1578DOPC   C3B18523  16.534   0.833  11.094 -0.2833 -0.2250 -0.1016
 1578DOPC   C4B18524  16.615   0.429  10.871 -0.1251 -0.4333  0.0139
 1579DOPE   NH318525  14.924   1.775  10.752  0.4244  0.1883  0.0090
 1579DOPE   PO418526  14.733   1.707  10.949 -0.4499 -0.1096 -0.0563
 1579DOPE   GL118527  14.963   1.735  11.270  0.0573  0.2123 -0.4193
 1579DOPE   GL218528  15.217   1.784  11.211 -0.1213 -0.4491  0.0879
 1579DOPE   C1A18529  14.768   1.680  11.691 -0.1187 -0.0750 -0.1796
 1579DOPE   D2A18530  14.742   1.630  12.182  0.0984 -0.4052 -0.0430
 1579DOPE   C3A18531  15.074   1.414  12.443  0.1596  0.2250  0.0345
 1579DOPE   C4A18532  15.481   1.434  12.647  0.0328 -0.2342 -0.1754
 1579DOPE   C1B18533  15.256   1.597  11.615 -0.0827  0.3725 -0.2183
 1579DOPE   D2B18534  15.392   1.498  12.062 -0.0708 -0.0144 -0.1105
 1579DOPE   C3B18535  15.706   1.175  12.234 -0.1253 -0.1199 -0.0400
 1579DOPE   C4B18536  15.795   0.784  12.467  0.0512  0.1184 -0.1706
 1580DOPE   NH318537  21.528   6.429   9.583  0.2965  0.1452  0.1309
 1580DOPE   PO418538  21.347   6.178   9.679  0.0808  0.1680 -0.0403
 1580DOPE   GL118539  21.139   6.149  10.056 -0.0887  0.3267  0.0305
 1580DOPE   GL218540  21.164   5.854  10.153 -0.2318  0.1437  0.0024
 1580DOPE   C1A18541  20.881   6.395  10.352  0.1472 -0.0114  0.1240
 1580DOPE   D2A18542  20.638   6.371  10.773 -0.3457  0.0977  0.1388
 1580DOPE   C3A18543  20.340   6.638  10.997  0.3015 -0.2104 -0.3854
 1580DOPE   C4A18544  20.101   6.918  11.246 -0.0773 -0.2193  0.0134
 1580DOPE   C1B18545  21.312   6.235  10.451  0.2713  0.1630  0.0467
 1580DOPE   D2B18546  21.238   6.568  10.722  0.1612 -0.0614 -0.1374
 1580DOPE   C3B18547  21.319   6.996  10.825  0.0929 -0.1814  0.0506
 1580DOPE   C4B18548  21.049   7.363  10.966 -0.0551 -0.0151  0.2451
 1581POSM   NC318549  18.619   3.221   9.721 -0.0715 -0.0491  0.0699
 1581POSM   PO418550  18.372   2.950   9.779 -0.1386  0.0233 -0.4550
 1581POSM   AM118551  18.406   2.981  10.079 -0.1334  0.0993  0.0280
 1581POSM   AM218552  18.557   3.151  10.244  0.0451 -0.1396  0.0949
 1581POSM   T1A18553  18.530   2.707  10.526 -0.0415 -0.0855  0.1306
 1581POSM   C2A18554  18.740   2.337  10.577 -0.3102  0.2990  0.1869
 1581POSM   C3A18555  18.923   1.925  10.557  0.0406 -0.0384  0.4891
 1581POSM   C1B18556  18.686   3.187  10.582 -0.0142  0.1172 -0.1546
 1581POSM   D2B18557  18.727   3.371  10.977  0.0822 -0.2961 -0.0186
 1581POSM   C3B18558  18.670   3.384  11.424  0.2108 -0.0220  0.1333
 1581POSM   C4B18559  18.426   3.085  11.618 -0.2276  0.0883 -0.2196
 1582POSM   NC318560  17.012   4.629  10.878 -0.1681 -0.1197 -0.0742
 1582POSM   PO418561  16.665   4.768  10.956 -0.0893  0.1058  0.1918
 1582POSM   AM118562  16.599   5.051  11.115 -0.0369 -0.2753  0.2923
 1582POSM   AM218563  16.516   5.194  11.365  0.3511 -0.2435 -0.3752
 1582POSM   T1A18564  16.847   5.470  11.211 -0.1886 -0.1358 -0.2995
 1582POSM   C2A18565  17.100   5.793  11.392 -0.1706 -0.2051  0.1432
 1582POSM   C3A18566  17.132   5.866  11.890 -0.2705 -0.2813  0.2458
 1582POSM   C1B18567  16.562   5.075  11.656 -0.0649  0.2711 -0.2706
 1582POSM   D2B18568  16.616   4.993  12.080 -0.0524 -0.1363 -0.0489
 1582POSM   C3B18569  16.879   5.332  12.085 -0.3202  0.0853  0.0618
 1582POSM   C4B18570  17.337   5.503  12.160 -0.0650 -0.3679 -0.1584
 1583POSM   NC318571  12.848   7.720  11.420  0.1928  0.4116 -0.1898
 1583POSM   PO418572  13.128   7.745  11.127  0.2987  0.1488  0.3055
 1583POSM   AM118573  13.341   7.798  11.371 -0.1917  0.0862  0.2184
 1583POSM   AM218574  13.353   7.918  11.609  0.0782  0.1038 -0.1221
 1583POSM   T1A18575  13.834   7.776  11.567 -0.0426 -0.1615  0.1174
 1583POSM   C2A18576  14.236   7.984  11.648 -0.1471  0.0415 -0.1227
 1583POSM   C3A18577  14.359   8.323  11.927  0.1044 -0.1898  0.1940
 1583POSM   C1B18578  13.121   7.906  11.903  0.1295  0.3328  0.0700
 1583POSM   D2B18579  13.071   8.006  12.374  0.1601  0.1286 -0.0827
 1583POSM   C3B18580  13.196   8.235  12.778  0.1368 -0.0693  0.1213
 1583POSM   C4B18581  13.188   8.103  13.264 -0.2541  0.0042  0.2175
 1584POSM   NC318582  19.929   3.192   9.815  0.2317 -0.1255 -0.1649
 1584POSM   PO418583  19.541   3.188   9.746 -0.2632  0.0665  0.0246
 1584POSM   AM118584  19.525   3.335  10.051  0.0422 -0.2837  0.1937
 1584POSM   AM218585  19.637   3.378  10.362 -0.1352 -0.1345  0.1277
 1584POSM   T1A18586  19.168   3.428  10.372 -0.0864 -0.2308 -0.1574
 1584POSM   C2A18587  19.214   3.291  10.829  0.3152 -0.3608  0.1198
 1584POSM   C3A18588  19.366   2.934  11.120  0.1230 -0.2726  0.4326
 1584POSM   C1B18589  19.762   3.292  10.665  0.2451  0.1102  0.0565
 1584POSM   D2B18590  19.996   3.270  11.099  0.0726  0.0789 -0.0650
 1584POSM   C3B18591  19.577   3.386  11.257  0.3115  0.3081  0.2406
 1584POSM   C4B18592  19.181   3.375  11.496 -0.0573  0.2046  0.2938
 1585DOPC   NC318593  15.960   3.787  10.918  0.3899  0.1743  0.2367
 1585DOPC   PO418594  15.905   4.174  10.809 -0.4439  0.0935  0.3329
 1585DOPC   GL118595  15.930   4.160  11.234 -0.1692  0.4367  0.2304
 1585DOPC   GL218596  16.241   4.122  11.255  0.0601 -0.1343 -0.1285
 1585DOPC   C1A18597  16.144   4.315  11.645 -0.3302 -0.1031 -0.0180
 1585DOPC   D2A18598  16.275   4.499  12.064 -0.1552 -0.1798  0.2112
 1585DOPC   C3A18599  15.967   4.424  12.378  0.1992 -0.1235  0.1883
 1585DOPC   C4A18600  15.575   4.424  12.609 -0.2144 -0.1723  0.1450
 1585DOPC   C1B18601  16.606   3.950  11.551 -0.0644  0.5656 -0.3309
 1585DOPC   D2B18602  17.006   4.094  11.711  0.2388 -0.0053  0.0261
 1585DOPC   C3B18603  17.080   3.998  12.136 -0.1157  0.3338  0.1406
 1585DOPC   C4B18604  17.173   4.286  12.483  0.2453 -0.4845  0.1876
 1586DOPC   NC318605  18.654   0.711   9.990 -0.0437  0.2001 -0.1407
 1586DOPC   PO418606  18.343   0.889  10.171  0.2518 -0.4868 -0.0744
 1586DOPC   GL118607  18.337   1.052  10.578  0.3304  0.1820  0.0250
 1586DOPC   GL218608  18.046   1.160  10.646 -0.1151  0.2941 -0.1273
 1586DOPC   C1A18609  18.534   1.111  11.003 -0.1988 -0.3191 -0.3516
 1586DOPC   D2A18610  18.549   1.084  11.468 -0.2169  0.0544  0.0014
 1586DOPC   C3A18611  18.877   0.959  11.773 -0.0048  0.2673 -0.3493
 1586DOPC   C4A18612  19.177   0.642  11.949  0.5418 -0.0177  0.0644
 1586DOPC   C1B18613  17.991   1.019  11.105 -0.1746 -0.3503  0.1963
 1586DOPC   D2B18614  17.996   0.710  11.458 -0.1682  0.0375  0.0098
 1586DOPC   C3B18615  18.368   0.560  11.684  0.4294  0.0731 -0.1937
 1586DOPC   C4B18616  18.791   0.372  11.742  0.0035 -0.0531 -0.2664
 1587DOPE   NH318617  17.817   6.601   9.961 -0.0243 -0.0416  0.0036
 1587DOPE   PO418618  17.829   6.340  10.216 -0.0565 -0.0392  0.1805
 1587DOPE   GL118619  18.049   6.286  10.532 -0.4064 -0.1493  0.1039
 1587DOPE   GL218620  18.273   6.027  10.578 -0.0730  0.0226  0.1758
 1587DOPE   C1A18621  18.170   6.366  10.966  0.1102  0.1136  0.0221
 1587DOPE   D2A18622  18.398   6.667  11.194  0.1690 -0.1603  0.2705
 1587DOPE   C3A18623  18.125   7.046  11.286  0.1340 -0.0757  0.1367
 1587DOPE   C4A18624  18.113   7.430  11.522  0.0392 -0.0740 -0.2177
 1587DOPE   C1B18625  18.655   6.109  10.892  0.2921 -0.0141 -0.1683
 1587DOPE   D2B18626  18.924   6.354  11.161 -0.1181 -0.3486  0.1208
 1587DOPE   C3B18627  19.261   6.085  11.349  0.1620 -0.1664  0.1118
 1587DOPE   C4B18628  19.646   6.159  11.599 -0.1584 -0.1635  0.2676
 1588DOPC   NC318629  20.594   6.859   9.669 -0.0091 -0.2314  0.0477
 1588DOPC   PO418630  20.931   7.012   9.826  0.1226 -0.0727  0.1475
 1588DOPC   GL118631  20.722   6.886  10.101  0.0489 -0.0616 -0.3901
 1588DOPC   GL218632  20.592   7.129  10.163  0.1092  0.0551  0.1768
 1588DOPC   C1A18633  20.852   6.934  10.552 -0.0977  0.0495  0.5675
 1588DOPC   D2A18634  20.862   6.860  11.005  0.2241 -0.1122 -0.1707
 1588DOPC   C3A18635  20.609   6.801  11.437  0.0033 -0.1913 -0.0881
 1588DOPC   C4A18636  20.281   6.967  11.767  0.1216  0.2303  0.3589
 1588DOPC   C1B18637  20.706   7.410  10.530  0.1653 -0.4583 -0.2187
 1588DOPC   D2B18638  20.633   7.809  10.704  0.1885  0.3888 -0.1305
 1588DOPC   C3B18639  20.945   7.890  11.016  0.1775 -0.2024 -0.2987
 1588DOPC   C4B18640  21.091   8.004  11.436 -0.1928 -0.0393  0.0090
 1589DOPC   NC318641  22.224   9.805   9.686 -0.2200 -0.1727  0.1410
 1589DOPC   PO418642  22.222   9.485   9.894 -0.1915  0.0956 -0.0887
 1589DOPC   GL118643  22.149   9.538  10.250 -0.1491 -0.1521  0.1870
 1589DOPC   GL218644  22.334   9.741  10.340  0.1232  0.2034  0.2221
 1589DOPC   C1A18645  22.186   9.292  10.675 -0.2529  0.0998  0.2333
 1589DOPC   D2A18646  22.425   8.911  10.856 -0.0050  0.2181  0.1201
 1589DOPC   C3A18647  22.781   9.031  11.106 -0.2776 -0.0101  0.0711
 1589DOPC   C4A18648  22.991   9.046  11.532 -0.1661  0.0376 -0.1237
 1589DOPC   C1B18649  22.218   9.772  10.771  0.2440  0.4261  0.1979
 1589DOPC   D2B18650  22.056  10.037  11.063 -0.0461  0.0895 -0.0044
 1589DOPC   C3B18651  21.765  10.015  11.457 -0.0717 -0.0865 -0.1777
 1589DOPC   C4B18652  21.601   9.870  11.810 -0.0126 -0.1478  0.0726
 1590DOPS   CNO18653  23.349  11.721   9.877 -0.0758 -0.1066 -0.2541
 1590DOPS   PO418654  23.692  11.541   9.837  0.0243  0.3315  0.0266
 1590DOPS   GL118655  23.397  11.504  10.233  0.3729  0.1952 -0.1230
 1590DOPS   GL218656  23.147  11.423  10.254  0.4465 -0.3813  0.0875
 1590DOPS   C1A18657  23.602  11.440  10.635  0.0874  0.1696  0.3577
 1590DOPS   D2A18658  23.928  11.325  10.951 -0.0919 -0.2920  0.1361
 1590DOPS   C3A18659  23.996  11.498  11.372 -0.0250 -0.0966  0.2276
 1590DOPS   C4A18660  23.822  11.656  11.780 -0.0342 -0.0179 -0.1008
 1590DOPS   C1B18661  23.209  11.784  10.596 -0.1903 -0.0427  0.1802
 1590DOPS   D2B18662  23.616  11.904  10.791 -0.2103  0.0554  0.1378
 1590DOPS   C3B18663  23.622  11.843  11.245  0.2590  0.3220 -0.1770
 1590DOPS   C4B18664  23.355  11.780  11.601  0.0655  0.1413  0.6080
 1591POSM   NC318665  20.723   7.246   9.310  0.1500  0.0596  0.1214
 1591POSM   PO418666  20.341   7.173   9.269  0.1117 -0.3416 -0.2604
 1591POSM   AM118667  20.241   7.192   9.581  0.0376  0.1629 -0.4221
 1591POSM   AM218668  20.227   7.104   9.846  0.2248  0.1169 -0.1279
 1591POSM   T1A18669  20.287   7.548   9.998  0.1436 -0.3713 -0.2050
 1591POSM   C2A18670  20.539   7.902  10.169  0.2962 -0.2945 -0.2408
 1591POSM   C3A18671  20.946   7.932  10.282  0.0030  0.1576 -0.0887
 1591POSM   C1B18672  20.062   7.131  10.131  0.3263  0.0558  0.0834
 1591POSM   D2B18673  19.799   6.897  10.416  0.1512  0.2869  0.2503
 1591POSM   C3B18674  19.758   6.786  10.934 -0.0255  0.1306 -0.0947
 1591POSM   C4B18675  19.655   6.826  11.409  0.3460 -0.1615 -0.2179
 1592DOPS   CNO18676  19.720   9.441   9.578 -0.0700  0.1060  0.1035
 1592DOPS   PO418677  19.965   9.421   9.821  0.1739 -0.0142  0.1626
 1592DOPS   GL118678  19.950   9.664  10.132  0.0895 -0.0972 -0.2212
 1592DOPS   GL218679  20.051   9.478  10.325  0.0440 -0.1118 -0.2480
 1592DOPS   C1A18680  19.758  10.055  10.352  0.3411  0.0012 -0.1412
 1592DOPS   D2A18681  19.499  10.102  10.714  0.0029  0.3054  0.4102
 1592DOPS   C3A18682  19.570  10.192  11.184  0.1246 -0.1609  0.0777
 1592DOPS   C4A18683  19.646  10.280  11.654 -0.2489 -0.0696 -0.0968
 1592DOPS   C1B18684  19.932   9.701  10.666 -0.2773  0.0327 -0.2245
 1592DOPS   D2B18685  19.988   9.928  11.099  0.1115 -0.1752 -0.2387
 1592DOPS   C3B18686  19.797   9.681  11.479 -0.1017  0.2700 -0.1380
 1592DOPS   C4B18687  19.750   9.226  11.581 -0.0306 -0.1280  0.0343
 1593POSM   NC318688  14.280   4.127  10.734 -0.2737  0.1862 -0.0393
 1593POSM   PO418689  14.629   4.187  10.875 -0.3545  0.1623  0.0215
 1593POSM   AM118690  14.738   4.237  11.177  0.1944  0.0964  0.2171
 1593POSM   AM218691  14.961   4.297  11.312  0.5534 -0.1147 -0.0092
 1593POSM   T1A18692  14.567   4.356  11.629 -0.0445 -0.3324  0.1609
 1593POSM   C2A18693  14.712   4.329  12.086  0.1571 -0.3009 -0.0952
 1593POSM   C3A18694  15.077   4.645  12.289  0.3232  0.0386 -0.1348
 1593POSM   C1B18695  15.057   4.203  11.615  0.0509  0.1183  0.2723
 1593POSM   D2B18696  15.288   4.306  11.976  0.0682  0.1225  0.0122
 1593POSM   C3B18697  15.175   4.072  12.385 -0.3212  0.1014  0.0600
 1593POSM   C4B18698  15.201   3.623  12.547  0.0279 -0.1347 -0.3388
 1594DOPC   NC318699  14.883   8.714  10.018 -0.2882 -0.1364  0.4182
 1594DOPC   PO418700  15.060   8.849  10.354  0.0086  0.1289  0.1927
 1594DOPC   GL118701  15.287   8.972  10.701 -0.2971 -0.0257 -0.1685
 1594DOPC   GL218702  15.133   9.035  10.875  0.1948  0.1023 -0.3236
 1594DOPC   C1A18703  15.674   9.099  10.931 -0.2459  0.1404 -0.2059
 1594DOPC   D2A18704  15.754   9.527  11.140 -0.0664 -0.2176  0.3045
 1594DOPC   C3A18705  16.119   9.512  11.479 -0.1039  0.2737  0.0367
 1594DOPC   C4A18706  16.150   9.476  11.924  0.0512  0.1181  0.1914
 1594DOPC   C1B18707  15.330   9.182  11.266 -0.0537  0.3216  0.3313
 1594DOPC   D2B18708  15.538   9.355  11.639 -0.2691  0.1941  0.0239
 1594DOPC   C3B18709  15.693   9.743  11.680 -0.0834 -0.0931 -0.0801
 1594DOPC   C4B18710  16.107   9.980  11.733  0.1182  0.1973  0.0690
 1595DOPC   NC318711  21.159   6.608   9.944 -0.2067 -0.2302 -0.2676
 1595DOPC   PO418712  21.478   6.876   9.874  0.0811  0.1502  0.2179
 1595DOPC   GL118713  21.238   7.019  10.168  0.0194 -0.4406  0.1062
 1595DOPC   GL218714  21.360   6.886  10.356 -0.0904 -0.1582 -0.1696
 1595DOPC   C1A18715  21.165   7.369  10.471 -0.2363  0.3227  0.1145
 1595DOPC   D2A18716  21.321   7.788  10.628 -0.0725  0.1936 -0.2541
 1595DOPC   C3A18717  21.468   7.897  11.040 -0.1158 -0.0379 -0.0967
 1595DOPC   C4A18718  21.555   7.861  11.471  0.5260  0.1734  0.0582
 1595DOPC   C1B18719  21.698   6.644  10.596 -0.2166  0.1044 -0.0265
 1595DOPC   D2B18720  21.768   6.516  11.033 -0.2821  0.3768  0.0406
 1595DOPC   C3B18721  21.890   6.682  11.446  0.0094 -0.0909 -0.0666
 1595DOPC   C4B18722  22.027   6.883  11.819  0.2466  0.1870  0.0431
 1596DOPC   NC318723  15.302   0.213  10.230  0.1112 -0.2550  0.1386
 1596DOPC   PO418724  15.120  -0.123  10.340  0.1938 -0.1235 -0.0103
 1596DOPC   GL118725  14.968  -0.158  10.740  0.0963  0.4490 -0.2199
 1596DOPC   GL218726  14.794   0.019  10.907  0.2294  0.0506  0.0089
 1596DOPC   C1A18727  15.229  -0.194  11.096  0.1746  0.0849  0.1020
 1596DOPC   D2A18728  15.379  -0.270  11.538  0.2158 -0.1694 -0.2575
 1596DOPC   C3A18729  15.649  -0.373  11.945  0.2724 -0.0142 -0.2121
 1596DOPC   C4A18730  15.507  -0.374  12.372  0.3342  0.0821 -0.2261
 1596DOPC   C1B18731  14.772  -0.132  11.368 -0.1668 -0.0724 -0.3892
 1596DOPC   D2B18732  14.621   0.018  11.798 -0.4274 -0.5130 -0.1280
 1596DOPC   C3B18733  14.614  -0.172  12.238 -0.1608 -0.2370  0.0705
 1596DOPC   C4B18734  14.487  -0.071  12.665 -0.0208  0.2001  0.1174
 1597POSM   NC318735  20.618  12.189   9.821 -0.1763  0.3342  0.4145
 1597POSM   PO418736  20.474  12.554   9.640 -0.0612  0.2342 -0.0923
 1597POSM   AM118737  20.368  12.818   9.811 -0.0006 -0.0281 -0.2147
 1597POSM   AM218738  20.163  13.029   9.874 -0.1637  0.1757  0.2215
 1597POSM   T1A18739  20.470  13.119  10.221  0.1878 -0.1375 -0.2629
 1597POSM   C2A18740  20.654  13.405  10.526  0.1297 -0.0464  0.1241
 1597POSM   C3A18741  20.927  13.651  10.866  0.3501  0.1659 -0.3345
 1597POSM   C1B18742  20.060  12.836  10.160  0.2134 -0.2168  0.1915
 1597POSM   D2B18743  20.108  12.645  10.651 -0.1574 -0.1737 -0.0923
 1597POSM   C3B18744  19.687  12.491  10.773  0.1206  0.1320  0.1072
 1597POSM   C4B18745  19.324  12.304  10.924  0.0886 -0.1201  0.1397
 1598POSM   NC318746  12.188   1.628  10.754  0.2896  0.1754  0.1423
 1598POSM   PO418747  12.387   1.822  11.003 -0.0698 -0.0636  0.0637
 1598POSM   AM118748  12.267   1.701  11.296 -0.1494  0.2150 -0.2902
 1598POSM   AM218749  12.221   1.474  11.517  0.0144 -0.2372  0.0773
 1598POSM   T1A18750  12.114   1.865  11.775  0.1278 -0.2805 -0.0281
 1598POSM   C2A18751  12.362   2.031  12.174 -0.4648  0.0761 -0.0368
 1598POSM   C3A18752  12.698   1.971  12.559 -0.2270  0.0121  0.0235
 1598POSM   C1B18753  12.150   1.284  11.796  0.0385 -0.1769 -0.3801
 1598POSM   D2B18754  12.231   1.159  12.200  0.2707 -0.0233 -0.0893
 1598POSM   C3B18755  11.979   1.242  12.566  0.3154 -0.0656 -0.1564
 1598POSM   C4B18756  12.012   1.238  13.060  0.2603 -0.3084  0.0645
 1599DOPE   NH318757  18.170   6.017  10.093 -0.4835  0.1477 -0.1156
 1599DOPE   PO418758  17.984   5.749  10.165  0.2283 -0.1103 -0.0991
 1599DOPE   GL118759  18.030   5.537  10.527  0.2198  0.0956  0.0965
 1599DOPE   GL218760  17.802   5.639  10.658 -0.1385 -0.2708  0.3635
 1599DOPE   C1A18761  18.247   5.277  10.833  0.2989  0.3022  0.0724
 1599DOPE   D2A18762  18.401   5.235  11.248 -0.0191  0.2137  0.0973
 1599DOPE   C3A18763  18.782   5.094  11.274  0.1915  0.0553  0.0864
 1599DOPE   C4A18764  19.230   4.971  11.408 -0.1167 -0.0508  0.1630
 1599DOPE   C1B18765  18.118   5.738  10.977  0.0981 -0.0130  0.2471
 1599DOPE   D2B18766  18.480   5.770  11.225  0.0211 -0.2617 -0.2126
 1599DOPE   C3B18767  18.527   5.523  11.637 -0.2256 -0.0776 -0.0199
 1599DOPE   C4B18768  18.869   5.247  11.780 -0.1315  0.2092  0.1176
 1600DOPS   CNO18769  22.906   5.719   9.502  0.0404  0.0657  0.3048
 1600DOPS   PO418770  23.298   5.665   9.540  0.3820 -0.0536  0.2588
 1600DOPS   GL118771  23.092   5.430   9.802 -0.0652  0.0694  0.0458
 1600DOPS   GL218772  23.416   5.352   9.897 -0.1348  0.1974  0.0276
 1600DOPS   C1A18773  23.008   5.209  10.202 -0.2187  0.1588  0.1346
 1600DOPS   D2A18774  23.095   5.110  10.649 -0.0862 -0.2614 -0.2502
 1600DOPS   C3A18775  23.156   4.758  10.993  0.0421  0.0749 -0.2831
 1600DOPS   C4A18776  23.307   4.447  11.390  0.0451 -0.2012  0.2461
 1600DOPS   C1B18777  23.488   4.982  10.175 -0.0581 -0.2010 -0.2257
 1600DOPS   D2B18778  23.238   4.673  10.370 -0.0452  0.0089 -0.4452
 1600DOPS   C3B18779  23.388   4.362  10.712  0.1433  0.2056 -0.0514
 1600DOPS   C4B18780  23.723   4.184  10.973  0.1596  0.0026 -0.0642
 1601DOPE   NH318781  24.395   9.895   9.630  0.0849 -0.2045 -0.0737
 1601DOPE   PO418782  24.486   9.941   9.965  0.1791  0.0642 -0.0645
 1601DOPE   GL118783  24.572   9.945  10.385 -0.3066 -0.2949  0.0288
 1601DOPE   GL218784  24.362  10.106  10.427  0.0764 -0.0973  0.0415
 1601DOPE   C1A18785  24.649  10.119  10.825 -0.0237  0.1538  0.3641
 1601DOPE   D2A18786  24.815  10.217  11.214 -0.0678  0.1373  0.3243
 1601DOPE   C3A18787  24.969  10.021  11.643 -0.0753  0.2304  0.2884
 1601DOPE   C4A18788  25.288   9.785  11.859  0.0561  0.1166 -0.2323
 1601DOPE   C1B18789  24.009  10.185  10.750 -0.0184 -0.1456 -0.1842
 1601DOPE   D2B18790  23.893  10.005  11.133 -0.2030 -0.1878 -0.1540
 1601DOPE   C3B18791  23.742  10.148  11.537 -0.1982 -0.1334  0.2477
 1601DOPE   C4B18792  23.820  10.138  11.972  0.4040  0.3167  0.0303
 1602DOPC   NC318793  11.330   4.286  11.009  0.0514 -0.4208  0.1392
 1602DOPC   PO418794  11.662   4.546  10.948  0.2633 -0.0611 -0.0192
 1602DOPC   GL118795  11.470   4.722  11.310 -0.4851 -0.0998 -0.3000
 1602DOPC   GL218796  11.241   4.610  11.357 -0.1235  0.2136 -0.1245
 1602DOPC   C1A18797  11.332   4.928  11.742  0.0007  0.3184 -0.2576
 1602DOPC   D2A18798  11.468   5.268  11.977 -0.2279  0.1249 -0.1847
 1602DOPC   C3A18799  11.741   5.204  12.348 -0.0266  0.1510 -0.1986
 1602DOPC   C4A18800  11.895   5.176  12.789 -0.1067 -0.0220  0.2952
 1602DOPC   C1B18801  11.502   4.433  11.738  0.1959 -0.0403  0.2375
 1602DOPC   D2B18802  11.488   3.995  11.945  0.0605  0.2163  0.1352
 1602DOPC   C3B18803  11.424   3.893  12.377 -0.0420 -0.0368  0.1432
 1602DOPC   C4B18804  11.186   4.147  12.650  0.2474 -0.0413 -0.0692
 1603DOPC   NC318805  14.123   2.664  11.364 -0.0020  0.3750  0.1760
 1603DOPC   PO418806  13.792   2.470  11.464  0.1823  0.0842  0.0926
 1603DOPC   GL118807  14.076   2.493  11.758 -0.1883  0.1386 -0.0248
 1603DOPC   GL218808  14.197   2.180  11.716 -0.0089 -0.1944  0.0465
 1603DOPC   C1A18809  14.076   2.632  12.187  0.0188  0.0678  0.0934
 1603DOPC   D2A18810  14.318   2.869  12.525 -0.0380 -0.0587  0.1379
 1603DOPC   C3A18811  14.320   2.596  12.864  0.1217 -0.0355 -0.2404
 1603DOPC   C4A18812  14.224   2.502  13.252 -0.0064 -0.1459  0.1235
 1603DOPC   C1B18813  13.905   2.185  12.060 -0.2232  0.1899  0.0376
 1603DOPC   D2B18814  13.810   2.195  12.475 -0.0728 -0.0121  0.0546
 1603DOPC   C3B18815  14.036   1.856  12.679  0.0093  0.0290 -0.0898
 1603DOPC   C4B18816  13.950   1.448  12.907  0.0776  0.2624 -0.0162
 1604POSM   NC318817  23.613   5.636   9.150  0.1501  0.1458  0.2743
 1604POSM   PO418818  23.937   5.385   9.085  0.3447 -0.1103 -0.1821
 1604POSM   AM118819  23.983   5.367   9.415 -0.1672 -0.2780  0.2029
 1604POSM   AM218820  23.915   5.535   9.662 -0.2544  0.1638  0.0955
 1604POSM   T1A18821  23.805   5.079   9.775  0.1422 -0.0641  0.0828
 1604POSM   C2A18822  23.673   4.639   9.828 -0.2973 -0.0150 -0.0618
 1604POSM   C3A18823  23.637   4.399  10.164 -0.0773  0.1976 -0.3878
 1604POSM   C1B18824  23.748   5.679   9.939 -0.0343 -0.2449 -0.0202
 1604POSM   D2B18825  23.875   5.724  10.394  0.0597  0.2609  0.1152
 1604POSM   C3B18826  23.752   5.963  10.759  0.2206  0.0469 -0.0301
 1604POSM   C4B18827  23.496   6.182  11.051  0.0860 -0.1571 -0.0050
 1605POSM   NC318828  11.692   6.338  11.020  0.3006  0.1531 -0.0039
 1605POSM   PO418829  12.040   6.152  11.137  0.2083 -0.2806 -0.0981
 1605POSM   AM118830  11.917   6.212  11.425  0.1360 -0.1206 -0.2262
 1605POSM   AM218831  11.988   6.421  11.572 -0.0420  0.1762 -0.2441
 1605POSM   T1A18832  11.636   6.096  11.806 -0.2782  0.0047  0.1267
 1605POSM   C2A18833  11.237   6.187  12.044 -0.1625 -0.1941 -0.0276
 1605POSM   C3A18834  11.071   6.225  12.504 -0.2788  0.0333 -0.0846
 1605POSM   C1B18835  11.829   6.634  11.791  0.0433 -0.1319  0.4676
 1605POSM   D2B18836  11.735   6.723  12.282 -0.1852 -0.2285 -0.1600
 1605POSM   C3B18837  11.876   6.473  12.657  0.0192 -0.3240  0.1155
 1605POSM   C4B18838  12.091   6.087  12.815  0.1765  0.3029 -0.0525
 1606DOPS   CNO18839  19.026   2.391   9.671 -0.0758 -0.2445 -0.1452
 1606DOPS   PO418840  19.203   2.581   9.940  0.2354 -0.0441 -0.0026
 1606DOPS   GL118841  19.236   2.473  10.359  0.0835 -0.2601 -0.1179
 1606DOPS   GL218842  19.027   2.749  10.453  0.1303 -0.1214 -0.0875
 1606DOPS   C1A18843  19.357   2.587  10.784 -0.2943 -0.0030 -0.0126
 1606DOPS   D2A18844  19.592   2.504  11.206  0.1792 -0.0793 -0.3148
 1606DOPS   C3A18845  19.288   2.624  11.529  0.3341  0.1822  0.1537
 1606DOPS   C4A18846  18.923   2.931  11.694 -0.0963  0.0442 -0.0289
 1606DOPS   C1B18847  18.941   2.899  10.889 -0.1899 -0.2918 -0.0810
 1606DOPS   D2B18848  18.694   2.827  11.265 -0.2121 -0.1465 -0.1970
 1606DOPS   C3B18849  18.630   2.553  11.638 -0.0687  0.0205  0.2178
 1606DOPS   C4B18850  18.538   2.183  11.900 -0.0445  0.0952 -0.0133
 1607POSM   NC318851  17.176   1.312  10.064  0.4983 -0.0179  0.0650
 1607POSM   PO418852  17.431   1.496  10.293 -0.0565  0.0122  0.1720
 1607POSM   AM118853  17.545   1.288  10.535 -0.0171 -0.1718 -0.1866
 1607POSM   AM218854  17.535   1.325  10.795 -0.1266  0.0258  0.1344
 1607POSM   T1A18855  17.626   0.847  10.735 -0.1232 -0.1197  0.0885
 1607POSM   C2A18856  17.854   0.561  10.983 -0.0214  0.0063  0.1191
 1607POSM   C3A18857  17.680   0.307  11.311  0.4295  0.2922 -0.2946
 1607POSM   C1B18858  17.414   1.236  11.081  0.1080  0.0006  0.2089
 1607POSM   D2B18859  17.516   1.116  11.532 -0.0364  0.0855  0.1845
 1607POSM   C3B18860  17.212   1.034  11.882  0.2180  0.1610 -0.0505
 1607POSM   C4B18861  17.069   0.708  12.144  0.0532 -0.0230  0.0642
 1608DOPE   NH318862  18.650  10.675   9.847 -0.0003  0.0967 -0.1881
 1608DOPE   PO418863  18.585  10.869  10.054  0.1900 -0.1832  0.2417
 1608DOPE   GL118864  18.688  11.217  10.260 -0.1703 -0.0296  0.1121
 1608DOPE   GL218865  18.917  11.121  10.384  0.0933 -0.2644 -0.0983
 1608DOPE   C1A18866  18.794  11.524  10.600  0.1757 -0.0489  0.2547
 1608DOPE   D2A18867  18.845  11.651  11.044 -0.3171 -0.0902  0.0668
 1608DOPE   C3A18868  19.177  11.438  11.237 -0.0317  0.0499 -0.1662
 1608DOPE   C4A18869  19.166  11.172  11.612  0.1559  0.1934  0.1215
 1608DOPE   C1B18870  19.109  10.825  10.584 -0.0288 -0.0621 -0.0594
 1608DOPE   D2B18871  19.181  10.517  10.905  0.1075 -0.4326 -0.2149
 1608DOPE   C3B18872  19.003  10.545  11.317  0.1629  0.3136 -0.0727
 1608DOPE   C4B18873  18.947  10.572  11.739 -0.0469 -0.0043  0.0300
 1609DOPE   NH318874  13.754   1.896  10.744  0.1202  0.3694 -0.3588
 1609DOPE   PO418875  13.842   1.592  10.831 -0.0299  0.1735 -0.1452
 1609DOPE   GL118876  13.830   1.625  11.221  0.1650 -0.1820  0.1177
 1609DOPE   GL218877  13.655   1.491  11.376 -0.0661 -0.0753 -0.2576
 1609DOPE   C1A18878  14.192   1.642  11.496  0.1004  0.1200 -0.1791
 1609DOPE   D2A18879  14.300   1.607  11.902  0.2968  0.0836 -0.1981
 1609DOPE   C3A18880  14.326   1.922  12.157 -0.1722 -0.1469 -0.0988
 1609DOPE   C4A18881  14.342   2.292  12.434 -0.3083  0.2570  0.1399
 1609DOPE   C1B18882  13.625   1.132  11.710  0.1775 -0.0274 -0.1710
 1609DOPE   D2B18883  13.871   0.767  11.947 -0.0272  0.0962 -0.1009
 1609DOPE   C3B18884  14.320   0.835  12.094 -0.2113  0.2813  0.0394
 1609DOPE   C4B18885  14.616   1.189  11.852  0.2712  0.1308 -0.0222
 1610DOPE   NH318886  12.976   1.249  10.803 -0.1903  0.1408  0.1342
 1610DOPE   PO418887  12.892   1.538  10.909  0.0788 -0.2467  0.2807
 1610DOPE   GL118888  12.866   1.569  11.278  0.3463 -0.1407 -0.0523
 1610DOPE   GL218889  12.693   1.696  11.436 -0.0481 -0.3007  0.1786
 1610DOPE   C1A18890  13.159   1.669  11.639 -0.1798 -0.0276 -0.0377
 1610DOPE   D2A18891  13.492   1.503  11.985 -0.0279  0.1603  0.0431
 1610DOPE   C3A18892  13.442   1.541  12.475  0.0321  0.0743 -0.1810
 1610DOPE   C4A18893  13.525   1.726  12.900 -0.0957 -0.1250 -0.0970
 1610DOPE   C1B18894  12.649   1.776  11.833  0.3910  0.3958  0.1997
 1610DOPE   D2B18895  12.524   1.544  12.222  0.0096 -0.1523 -0.0675
 1610DOPE   C3B18896  12.216   1.682  12.574 -0.1485 -0.1292 -0.0453
 1610DOPE   C4B18897  11.747   1.704  12.736  0.4232 -0.2212  0.1224
 1611DOPS   CNO18898  18.901   0.374   9.741 -0.2172  0.1196  0.0960
 1611DOPS   PO418899  18.654   0.095   9.846 -0.0645 -0.2021  0.2459
 1611DOPS   GL118900  18.733   0.326  10.207 -0.1681  0.0694  0.1019
 1611DOPS   GL218901  18.525   0.463  10.432  0.0008 -0.1758 -0.0216
 1611DOPS   C1A18902  19.040   0.328  10.553  0.0143 -0.1076  0.0734
 1611DOPS   D2A18903  19.385   0.569  10.653  0.2697  0.0940 -0.6051
 1611DOPS   C3A18904  19.459   0.736  11.058 -0.1234  0.1662  0.1656
 1611DOPS   C4A18905  19.642   0.670  11.514 -0.2186  0.1897  0.0984
 1611DOPS   C1B18906  18.593   0.183  10.795  0.0230  0.1311  0.1017
 1611DOPS   D2B18907  18.540  -0.189  10.937 -0.1379  0.1785  0.1733
 1611DOPS   C3B18908  18.530  -0.298  11.429  0.1690 -0.2287 -0.0250
 1611DOPS   C4B18909  18.417  -0.548  11.820 -0.0923 -0.1071  0.2042
 1612POSM   NC318910  19.643   5.413   9.722 -0.1022  0.1829 -0.4613
 1612POSM   PO418911  19.551   5.729   9.912 -0.0711 -0.2621  0.0424
 1612POSM   AM118912  19.563   5.572  10.223 -0.1404  0.3278 -0.2514
 1612POSM   AM218913  19.663   5.355  10.383  0.1104  0.4860 -0.1392
 1612POSM   T1A18914  19.397   5.609  10.712  0.0134 -0.0338  0.0493
 1612POSM   C2A18915  19.389   5.454  11.160 -0.4996  0.1274 -0.1624
 1612POSM   C3A18916  19.403   5.597  11.607  0.0474  0.1045  0.0543
 1612POSM   C1B18917  19.394   5.167  10.377  0.1932 -0.0838  0.0500
 1612POSM   D2B18918  19.152   4.750  10.457  0.0081  0.0428  0.1687
 1612POSM   C3B18919  19.405   4.657  10.878  0.0222 -0.2720 -0.3218
 1612POSM   C4B18920  19.710   4.726  11.214  0.1889  0.0333 -0.2373
 1613POSM   NC318921  21.438   7.231   9.584 -0.3717 -0.1383 -0.0384
 1613POSM   PO418922  21.832   7.108   9.622  0.0026 -0.4102 -0.0493
 1613POSM   AM118923  21.899   7.125   9.945 -0.0513  0.0850  0.3781
 1613POSM   AM218924  22.003   6.983  10.165  0.3529 -0.0626  0.0333
 1613POSM   T1A18925  21.669   7.316  10.364 -0.0165 -0.1395  0.2406
 1613POSM   C2A18926  21.614   7.390  10.761 -0.0332  0.0207  0.0095
 1613POSM   C3A18927  21.512   7.420  11.152  0.0743 -0.0766 -0.1103
 1613POSM   C1B18928  22.100   7.055  10.493  0.2575  0.0569 -0.0398
 1613POSM   D2B18929  22.125   7.371  10.888 -0.0440  0.0287  0.0806
 1613POSM   C3B18930  21.945   7.585  11.270  0.2977 -0.0359  0.3856
 1613POSM   C4B18931  21.940   7.673  11.777 -0.0072  0.1600 -0.0473
 1614DOPE   NH318932  20.225   4.830   9.476 -0.1175 -0.1363  0.1520
 1614DOPE   PO418933  19.996   4.669   9.682  0.0070 -0.1598  0.1803
 1614DOPE   GL118934  19.955   4.707  10.102 -0.3493 -0.3313 -0.4106
 1614DOPE   GL218935  19.807   4.934  10.067  0.1568 -0.1441  0.0996
 1614DOPE   C1A18936  20.325   4.648  10.373 -0.0121 -0.3065  0.1861
 1614DOPE   D2A18937  20.589   4.550  10.717  0.0670 -0.2298  0.1583
 1614DOPE   C3A18938  20.781   4.129  10.770  0.1054  0.0333 -0.0587
 1614DOPE   C4A18939  20.926   3.720  10.832 -0.2355  0.3210  0.0797
 1614DOPE   C1B18940  19.745   4.818  10.511  0.0377  0.0582  0.0108
 1614DOPE   D2B18941  20.014   4.570  10.762  0.0577  0.2234  0.3463
 1614DOPE   C3B18942  20.294   4.591  11.125 -0.0485  0.1477  0.0436
 1614DOPE   C4B18943  20.720   4.434  11.195 -0.1710 -0.0606 -0.1858
 1615DOPS   CNO18944  14.059   7.301  10.695 -0.4736  0.0228 -0.5377
 1615DOPS   PO418945  13.884   7.246  11.037  0.0301 -0.2553  0.7436
 1615DOPS   GL118946  13.959   7.225  11.370  0.0831  0.6246  0.0653
 1615DOPS   GL218947  13.705   7.303  11.518  0.0168  0.7110 -0.0704
 1615DOPS   C1A18948  14.132   7.435  11.725  0.0070  0.0722 -0.0033
 1615DOPS   D2A18949  14.310   7.699  12.058 -0.1157  0.2083 -0.0923
 1615DOPS   C3A18950  14.216   8.032  12.366  0.1452 -0.1651 -0.0922
 1615DOPS   C4A18951  14.179   8.433  12.621  0.0044  0.1582 -0.1028
 1615DOPS   C1B18952  13.574   7.552  11.863 -0.0925  0.0035 -0.0476
 1615DOPS   D2B18953  13.377   7.610  12.273 -0.1287  0.0922  0.0933
 1615DOPS   C3B18954  13.602   7.868  12.623 -0.0521 -0.0094 -0.3495
 1615DOPS   C4B18955  13.836   8.100  12.866  0.0610 -0.1681 -0.0003
 1616DOPE   NH318956  20.501   9.361   9.740 -0.1447  0.0280 -0.0931
 1616DOPE   PO418957  20.681   9.096   9.729 -0.3499  0.2476  0.2138
 1616DOPE   GL118958  20.620   9.206  10.177 -0.0203  0.0111 -0.0508
 1616DOPE   GL218959  20.680   8.877  10.188  0.5076 -0.0021 -0.2137
 1616DOPE   C1A18960  20.459   9.119  10.595  0.0276  0.1491  0.4134
 1616DOPE   D2A18961  20.575   9.103  10.999  0.0754  0.0518  0.0053
 1616DOPE   C3A18962  20.250   9.114  11.352 -0.0835 -0.0715 -0.1865
 1616DOPE   C4A18963  20.050   8.788  11.589 -0.0703  0.0442  0.1354
 1616DOPE   C1B18964  20.463   8.628  10.489  0.2409  0.2442  0.0741
 1616DOPE   D2B18965  20.443   8.637  10.959 -0.4870  0.2099  0.0456
 1616DOPE   C3B18966  20.070   8.402  11.210 -0.2191  0.3969 -0.3478
 1616DOPE   C4B18967  19.844   8.344  11.621 -0.1366  0.1347 -0.0793
 1617POSM   NC318968  10.204   1.435  10.153 -0.0732 -0.5327  0.0924
 1617POSM   PO418969  10.072   1.162  10.441 -0.1690 -0.1210 -0.0609
 1617POSM   AM118970  10.073   1.099  10.750 -0.1726  0.0618  0.1972
 1617POSM   AM218971  10.228   0.973  10.984  0.2900 -0.2022  0.0295
 1617POSM   T1A18972   9.713   1.067  11.062  0.2145  0.0703  0.0304
 1617POSM   C2A18973   9.366   1.251  11.284 -0.6338 -0.1055  0.1107
 1617POSM   C3A18974   9.045   1.194  11.625 -0.0570  0.2587  0.2289
 1617POSM   C1B18975  10.254   0.898  11.321 -0.3457 -0.1143  0.0824
 1617POSM   D2B18976  10.192   0.779  11.798  0.0932 -0.1623  0.3516
 1617POSM   C3B18977  10.441   0.862  12.181 -0.0641 -0.1479  0.1417
 1617POSM   C4B18978  10.366   1.128  12.534  0.0055  0.1087  0.5864
 1618POSM   NC318979  13.654   8.525  10.758  0.0018 -0.0944 -0.0100
 1618POSM   PO418980  13.505   8.766  11.008 -0.1862 -0.1271  0.0888
 1618POSM   AM118981  13.560   8.646  11.312  0.1650  0.1156 -0.0740
 1618POSM   AM218982  13.601   8.732  11.592  0.1056  0.3644 -0.3947
 1618POSM   T1A18983  13.728   8.269  11.538  0.1563 -0.1200 -0.1297
 1618POSM   C2A18984  13.778   8.071  11.993  0.2388  0.1054 -0.2615
 1618POSM   C3A18985  13.889   7.712  12.251 -0.0647 -0.2063  0.0842
 1618POSM   C1B18986  13.401   8.844  11.861  0.2233  0.0867  0.0346
 1618POSM   D2B18987  13.134   8.846  12.331 -0.0127 -0.0633  0.1199
 1618POSM   C3B18988  13.267   9.158  12.611 -0.2931 -0.0286 -0.2307
 1618POSM   C4B18989  13.280   9.613  12.645 -0.0365 -0.2563 -0.0065
 1619DOPC   NC318990  17.160   8.306  10.410  0.0696  0.0118  0.3462
 1619DOPC   PO418991  17.267   8.589  10.157  0.0796 -0.2035 -0.1949
 1619DOPC   GL118992  17.293   8.886  10.441 -0.1471  0.1099  0.0098
 1619DOPC   GL218993  17.422   8.697  10.644  0.1572 -0.0455 -0.0061
 1619DOPC   C1A18994  17.072   9.043  10.818 -0.0389 -0.1539 -0.1064
 1619DOPC   D2A18995  16.913   9.131  11.282  0.1769 -0.1022  0.0962
 1619DOPC   C3A18996  16.599   9.427  11.188 -0.6057  0.1088 -0.2344
 1619DOPC   C4A18997  16.256   9.619  11.011 -0.6630 -0.2381  0.0858
 1619DOPC   C1B18998  17.324   8.703  11.080 -0.0489 -0.0884 -0.1441
 1619DOPC   D2B18999  17.602   8.557  11.435 -0.0844 -0.2875  0.4014
 1619DOPC   C3B19000  17.459   8.613  11.843 -0.1888  0.2182  0.0292
 1619DOPC   C4B19001  17.288   8.944  12.021 -0.0309 -0.2571 -0.1441
 1620POSM   NC319002  11.061   5.716  10.597  0.0038 -0.2938 -0.0479
 1620POSM   PO419003  10.704   5.915  10.667  0.1017  0.1399  0.2632
 1620POSM   AM119004  10.545   5.789  10.946  0.0198  0.2279  0.1101
 1620POSM   AM219005  10.301   5.616  11.024 -0.1661 -0.0491 -0.3561
 1620POSM   T1A19006  10.477   5.858  11.425 -0.3631 -0.0494  0.2590
 1620POSM   C2A19007  10.259   5.737  11.733  0.0301  0.2516  0.0795
 1620POSM   C3A19008   9.925   5.700  12.060  0.1423 -0.1066  0.0981
 1620POSM   C1B19009  10.093   5.544  11.317 -0.0419  0.1760  0.0402
 1620POSM   D2B19010   9.838   5.228  11.512 -0.2522  0.1643  0.0606
 1620POSM   C3B19011   9.675   5.232  11.946 -0.0617 -0.0364  0.2651
 1620POSM   C4B19012   9.581   5.396  12.427  0.0394  0.0102  0.1175
 1621DOPE   NH319013  15.253   2.705  10.952  0.3444 -0.0845  0.1223
 1621DOPE   PO419014  14.982   2.637  11.121 -0.4008 -0.4451  0.0531
 1621DOPE   GL119015  15.174   2.669  11.542  0.2454  0.3622 -0.1147
 1621DOPE   GL219016  15.084   2.499  11.806  0.1651 -0.1064 -0.0900
 1621DOPE   C1A19017  15.087   2.976  11.926 -0.2004  0.0427  0.1817
 1621DOPE   D2A19018  15.060   3.295  12.260  0.1028 -0.1430 -0.0056
 1621DOPE   C3A19019  15.321   3.046  12.523  0.1540  0.2202  0.1726
 1621DOPE   C4A19020  15.725   2.863  12.414 -0.1744  0.0348  0.0992
 1621DOPE   C1B19021  15.293   2.576  12.207  0.0654 -0.4952  0.1659
 1621DOPE   D2B19022  15.233   2.491  12.656  0.0844 -0.1156 -0.3251
 1621DOPE   C3B19023  14.803   2.372  12.850  0.1454 -0.0721 -0.0150
 1621DOPE   C4B19024  14.480   2.087  12.891  0.1941  0.2780  0.4493
 1622DOPS   CNO19025  13.383   5.065  11.288  0.3704 -0.1184  0.0174
 1622DOPS   PO419026  13.167   5.353  11.497 -0.2231  0.0131  0.0868
 1622DOPS   GL119027  12.814   5.232  11.771  0.0280 -0.4137  0.0039
 1622DOPS   GL219028  12.975   5.219  12.031 -0.2286 -0.2487 -0.1843
 1622DOPS   C1A19029  12.408   5.285  11.858  0.1712 -0.2014  0.1629
 1622DOPS   D2A19030  11.957   5.379  11.812 -0.0071  0.2201  0.1371
 1622DOPS   C3A19031  11.782   5.656  12.101 -0.0842  0.1148  0.1695
 1622DOPS   C4A19032  11.789   5.693  12.559  0.2476 -0.2032  0.3712
 1622DOPS   C1B19033  13.167   4.900  12.390  0.2319 -0.2379  0.0278
 1622DOPS   D2B19034  13.139   4.550  12.677  0.0132  0.1836  0.0203
 1622DOPS   C3B19035  13.060   4.228  12.967 -0.0510  0.1438  0.0364
 1622DOPS   C4B19036  13.362   3.877  13.087 -0.0914  0.2186 -0.1311
 1623DOPC   NC319037  15.770   7.505  11.275 -0.1942 -0.0801  0.2290
 1623DOPC   PO419038  15.420   7.730  11.230 -0.2532  0.2001 -0.1060
 1623DOPC   GL119039  15.627   7.824  11.602  0.1307  0.0580  0.2176
 1623DOPC   GL219040  15.873   7.971  11.561 -0.1191  0.1511  0.0285
 1623DOPC   C1A19041  15.793   7.585  11.994 -0.2025 -0.1520  0.1622
 1623DOPC   D2A19042  15.758   7.454  12.451  0.1510  0.3074 -0.3362
 1623DOPC   C3A19043  15.680   7.178  12.873  0.2673  0.1977 -0.0196
 1623DOPC   C4A19044  15.496   6.794  13.087  0.1646 -0.3067  0.1255
 1623DOPC   C1B19045  15.745   8.088  11.984 -0.0485 -0.1038  0.0582
 1623DOPC   D2B19046  15.928   7.895  12.383  0.3069 -0.0010  0.2069
 1623DOPC   C3B19047  15.978   8.286  12.645 -0.0534 -0.3426 -0.0641
 1623DOPC   C4B19048  16.124   8.528  12.971 -0.2801 -0.0147  0.0661
 1624DOPC   NC319049  22.625  10.447   9.332  0.1505  0.1305  0.1503
 1624DOPC   PO419050  22.530  10.334   9.709 -0.1747 -0.1932 -0.1646
 1624DOPC   GL119051  22.639  10.335  10.085  0.0889 -0.1159 -0.0217
 1624DOPC   GL219052  22.549  10.546  10.293 -0.2008  0.0767 -0.0444
 1624DOPC   C1A19053  22.671  10.079  10.481  0.0444 -0.1485 -0.2211
 1624DOPC   D2A19054  22.558  10.129  10.902 -0.1179  0.0631 -0.0904
 1624DOPC   C3A19055  22.556  10.507  11.182 -0.3005 -0.0704 -0.0908
 1624DOPC   C4A19056  22.525  10.885  11.409  0.2327 -0.0089 -0.0325
 1624DOPC   C1B19057  22.727  10.511  10.715 -0.3588 -0.3025  0.0458
 1624DOPC   D2B19058  23.037  10.574  11.063 -0.2220 -0.0331 -0.0344
 1624DOPC   C3B19059  22.969  10.692  11.487 -0.1179  0.1032  0.3406
 1624DOPC   C4B19060  23.130  10.884  11.872 -0.1405 -0.6019  0.0003
 1625DOPC   NC319061  13.222   4.892  11.711  0.1603  0.1057  0.0830
 1625DOPC   PO419062  12.916   4.858  11.441  0.1102  0.2713 -0.0440
 1625DOPC   GL119063  12.806   4.724  11.732 -0.0417  0.1566 -0.0823
 1625DOPC   GL219064  12.919   4.408  11.716 -0.2885 -0.1830  0.1781
 1625DOPC   C1A19065  12.603   4.901  12.109  0.1941 -0.1454 -0.0688
 1625DOPC   D2A19066  12.695   5.001  12.553 -0.0536 -0.1247  0.4751
 1625DOPC   C3A19067  12.424   4.870  12.911 -0.0582  0.0566 -0.0028
 1625DOPC   C4A19068  12.015   4.826  13.099 -0.2926  0.0053 -0.3329
 1625DOPC   C1B19069  12.875   4.438  12.162 -0.2225 -0.1936  0.2332
 1625DOPC   D2B19070  12.778   4.198  12.515  0.0615  0.1101  0.0490
 1625DOPC   C3B19071  12.540   4.306  12.969 -0.1642  0.1577 -0.0763
 1625DOPC   C4B19072  12.242   4.325  13.252  0.1166 -0.2413 -0.4785
 1626DOPS   CNO19073  17.409   6.859  10.034 -0.0263 -0.0985 -0.0502
 1626DOPS   PO419074  17.413   7.207  10.236  0.0969 -0.1410 -0.3035
 1626DOPS   GL119075  17.406   7.146  10.604  0.1922  0.0084  0.0112
 1626DOPS   GL219076  17.305   6.941  10.766  0.2334  0.2666 -0.0410
 1626DOPS   C1A19077  17.763   7.175  10.939  0.1002  0.3241  0.2530
 1626DOPS   D2A19078  18.130   7.467  11.019  0.0340  0.2274 -0.0242
 1626DOPS   C3A19079  18.136   7.850  11.300 -0.3215  0.1601  0.0988
 1626DOPS   C4A19080  18.180   8.275  11.460  0.1845 -0.1044 -0.2086
 1626DOPS   C1B19081  17.138   6.853  11.246 -0.1299  0.0795  0.1987
 1626DOPS   D2B19082  16.975   6.707  11.666 -0.2034 -0.1802  0.0761
 1626DOPS   C3B19083  17.333   6.660  11.980 -0.0104 -0.1264  0.0379
 1626DOPS   C4B19084  17.398   6.263  12.171 -0.0419  0.3266 -0.2417
 1627POSM   NC319085  16.304   1.449  10.147  0.0214 -0.0778  0.0063
 1627POSM   PO419086  16.188   1.053  10.242  0.1028  0.2086 -0.1895
 1627POSM   AM119087  16.083   0.973  10.551 -0.1393 -0.1397 -0.1681
 1627POSM   AM219088  16.034   0.749  10.749  0.0531  0.3089  0.1548
 1627POSM   T1A19089  16.097   1.217  11.019  0.0196 -0.0442 -0.0160
 1627POSM   C2A19090  16.253   1.340  11.443  0.0263  0.1117 -0.2509
 1627POSM   C3A19091  16.680   1.245  11.668  0.1428  0.0348 -0.0802
 1627POSM   C1B19092  16.112   0.491  10.989  0.3963 -0.3479 -0.1833
 1627POSM   D2B19093  16.166   0.229  11.388 -0.2887 -0.0934  0.0002
 1627POSM   C3B19094  16.071   0.033  11.818 -0.1983  0.1371 -0.1645
 1627POSM   C4B19095  15.973  -0.088  12.277  0.2103 -0.2420 -0.0588
 1628POSM   NC319096  17.660   9.033  10.122  0.2941  0.1104  0.1039
 1628POSM   PO419097  17.976   9.003   9.909 -0.2168 -0.1075  0.1859
 1628POSM   AM119098  18.074   8.990  10.200 -0.1449  0.3086  0.0700
 1628POSM   AM219099  18.029   9.132  10.494 -0.0802  0.2266 -0.0744
 1628POSM   T1A19100  18.249   8.708  10.596 -0.1362 -0.1784  0.2271
 1628POSM   C2A19101  18.414   8.547  11.012 -0.0359  0.0804  0.0583
 1628POSM   C3A19102  18.722   8.327  11.262  0.0514 -0.0560  0.0222
 1628POSM   C1B19103  17.919   8.969  10.783 -0.1897 -0.2122 -0.0997
 1628POSM   D2B19104  17.852   8.644  11.050  0.0190  0.1776  0.0040
 1628POSM   C3B19105  18.082   8.732  11.452 -0.0453 -0.2279 -0.1181
 1628POSM   C4B19106  18.430   8.623  11.696  0.4530  0.0924 -0.1351
 1629DOPE   NH319107  14.825   5.651  11.455  0.1588 -0.5496  0.1603
 1629DOPE   PO419108  14.679   5.406  11.377 -0.2805 -0.2496  0.0069
 1629DOPE   GL119109  14.579   5.459  11.775  0.0718  0.3200 -0.0374
 1629DOPE   GL219110  14.969   5.381  11.852 -0.2470  0.2641  0.1511
 1629DOPE   C1A19111  14.598   5.332  12.245 -0.0953 -0.1356  0.0692
 1629DOPE   D2A19112  14.675   5.057  12.586 -0.0618 -0.1312  0.0455
 1629DOPE   C3A19113  14.756   5.295  12.941 -0.1432 -0.2027 -0.2273
 1629DOPE   C4A19114  14.888   5.473  13.352 -0.0258  0.1530 -0.2075
 1629DOPE   C1B19115  14.836   4.980  11.864  0.2476 -0.3451 -0.1447
 1629DOPE   D2B19116  14.520   4.836  12.096 -0.0118  0.0063  0.2395
 1629DOPE   C3B19117  14.357   4.559  12.426 -0.0325  0.1762  0.0478
 1629DOPE   C4B19118  13.991   4.438  12.601  0.0987  0.1433  0.3143
 1630DOPC   NC319119  17.486   0.478   9.869 -0.0679 -0.0562  0.0049
 1630DOPC   PO419120  17.806   0.684  10.010 -0.0485  0.1356 -0.0123
 1630DOPC   GL119121  18.003   0.512  10.332  0.0710  0.2634  0.1048
 1630DOPC   GL219122  18.066   0.635  10.561 -0.0613  0.0255  0.0573
 1630DOPC   C1A19123  17.929   0.137  10.616  0.0138 -0.0278  0.0729
 1630DOPC   D2A19124  17.622   0.017  10.880  0.3298 -0.3376 -0.1108
 1630DOPC   C3A19125  17.651  -0.189  11.288 -0.2199  0.2860  0.1459
 1630DOPC   C4A19126  17.579  -0.024  11.711 -0.0404  0.0769  0.2265
 1630DOPC   C1B19127  18.368   0.646  10.933  0.0223 -0.0557 -0.3296
 1630DOPC   D2B19128  18.671   0.602  11.287 -0.1062 -0.2746 -0.2424
 1630DOPC   C3B19129  18.718   0.192  11.294 -0.0876  0.4223 -0.0221
 1630DOPC   C4B19130  18.996  -0.178  11.457 -0.0257  0.0584 -0.0467
 1631POSM   NC319131  22.038   2.789   9.376 -0.1575  0.2557 -0.1037
 1631POSM   PO419132  22.426   2.809   9.581  0.1844 -0.3257 -0.0101
 1631POSM   AM119133  22.510   3.128   9.697  0.1334  0.1311 -0.0029
 1631POSM   AM219134  22.363   3.240   9.908  0.0891 -0.1665 -0.1988
 1631POSM   T1A19135  22.806   3.437   9.932 -0.0075  0.2270  0.1157
 1631POSM   C2A19136  23.042   3.472  10.348 -0.2138  0.0889  0.1886
 1631POSM   C3A19137  23.020   3.649  10.775 -0.2441 -0.3999  0.1478
 1631POSM   C1B19138  22.489   3.227  10.257  0.0115 -0.0668 -0.1165
 1631POSM   D2B19139  22.587   3.435  10.680  0.4904 -0.1721 -0.0508
 1631POSM   C3B19140  22.485   3.202  11.068  0.0128  0.2157  0.0099
 1631POSM   C4B19141  22.498   3.307  11.527 -0.0998  0.1794  0.1209
 1632POSM   NC319142  19.246   7.834   9.704  0.2986 -0.0027  0.1873
 1632POSM   PO419143  19.196   8.144   9.432 -0.0634 -0.0612 -0.0763
 1632POSM   AM119144  19.255   8.264   9.756 -0.0934  0.1670 -0.0796
 1632POSM   AM219145  19.315   8.542   9.782 -0.3203  0.2035  0.0056
 1632POSM   T1A19146  19.447   7.978  10.176  0.0155 -0.0478  0.0205
 1632POSM   C2A19147  19.765   7.765  10.505 -0.1160 -0.3253 -0.0180
 1632POSM   C3A19148  20.182   7.545  10.518  0.1872 -0.0982 -0.0252
 1632POSM   C1B19149  19.552   8.438  10.017  0.1686  0.0276  0.0121
 1632POSM   D2B19150  19.852   8.267  10.327 -0.0919  0.0349 -0.0285
 1632POSM   C3B19151  19.895   8.554  10.709  0.1704  0.1042 -0.0655
 1632POSM   C4B19152  20.053   8.890  10.950  0.2277 -0.2260  0.2343
 1633DOPC   NC319153  12.136  21.833  13.428 -0.4237 -0.1024 -0.0875
 1633DOPC   PO419154  12.473  21.686  13.558  0.1300  0.3404 -0.3293
 1633DOPC   GL119155  12.532  21.875  13.163  0.0932 -0.0904 -0.3706
 1633DOPC   GL219156  12.421  21.771  12.959  0.1649  0.5190 -0.0765
 1633DOPC   C1A19157  12.815  21.970  12.800 -0.0027 -0.1357  0.0037
 1633DOPC   D2A19158  12.906  21.831  12.352 -0.1360 -0.0926 -0.1418
 1633DOPC   C3A19159  12.697  21.903  11.972 -0.0150 -0.1253 -0.0576
 1633DOPC   C4A19160  12.700  21.773  11.577 -0.2964  0.1631 -0.3246
 1633DOPC   C1B19161  12.555  21.394  12.725 -0.1757 -0.0101 -0.0653
 1633DOPC   D2B19162  12.479  21.048  12.401  0.3324 -0.1921  0.1229
 1633DOPC   C3B19163  12.749  20.793  12.188 -0.1685  0.1672 -0.0707
 1633DOPC   C4B19164  13.031  20.563  11.955  0.0570  0.0883  0.3314
 1634DOPC   NC319165  19.401  18.856  12.213  0.0339 -0.1570 -0.2147
 1634DOPC   PO419166  19.534  18.484  12.193 -0.0077 -0.1103  0.1270
 1634DOPC   GL119167  19.461  18.490  11.852 -0.0523 -0.0309 -0.0944
 1634DOPC   GL219168  19.262  18.267  11.821 -0.1283  0.3331  0.0762
 1634DOPC   C1A19169  19.340  18.647  11.381 -0.0656  0.2368  0.2567
 1634DOPC   D2A19170  19.116  18.559  10.978 -0.5564 -0.2116  0.0810
 1634DOPC   C3A19171  18.977  18.781  10.616 -0.0459 -0.2300  0.2926
 1634DOPC   C4A19172  18.692  19.151  10.522 -0.1198 -0.1946  0.2086
 1634DOPC   C1B19173  18.899  18.101  11.634  0.0737  0.1276  0.0159
 1634DOPC   D2B19174  18.735  17.656  11.479 -0.3078  0.0572 -0.0656
 1634DOPC   C3B19175  18.279  17.626  11.361 -0.3345  0.0744 -0.4169
 1634DOPC   C4B19176  17.864  17.712  11.393  0.1849  0.1649 -0.2297
 1635DOPE   NH319177  19.466  22.312  12.976  0.3204 -0.0366  0.0913
 1635DOPE   PO419178  19.229  22.476  12.800  0.1013  0.0848  0.2608
 1635DOPE   GL119179  19.364  22.293  12.499  0.1767  0.2139 -0.0189
 1635DOPE   GL219180  19.122  22.172  12.400  0.1633  0.1856  0.3340
 1635DOPE   C1A19181  19.397  22.211  12.008 -0.0415 -0.0192  0.1441
 1635DOPE   D2A19182  19.180  21.865  11.738 -0.0588  0.1251  0.0842
 1635DOPE   C3A19183  19.056  21.774  11.272 -0.0262  0.2457 -0.0275
 1635DOPE   C4A19184  19.318  21.817  10.930  0.3125 -0.3157 -0.0068
 1635DOPE   C1B19185  18.909  22.464  12.060 -0.0704 -0.0887 -0.2100
 1635DOPE   D2B19186  19.178  22.467  11.675  0.1216  0.0162  0.2436
 1635DOPE   C3B19187  19.106  22.241  11.265 -0.0818  0.1714  0.2215
 1635DOPE   C4B19188  18.841  22.142  10.873  0.1709 -0.0826  0.0098
 1636DOPE   NH319189  12.444  19.132  13.192  0.1728  0.0808 -0.1490
 1636DOPE   PO419190  12.499  19.393  13.016 -0.0858  0.6617 -0.2454
 1636DOPE   GL119191  12.473  19.577  12.709 -0.2050  0.1142 -0.1252
 1636DOPE   GL219192  12.242  19.715  12.639  0.2266  0.1290 -0.1710
 1636DOPE   C1A19193  12.326  19.435  12.265 -0.3097 -0.4408  0.0030
 1636DOPE   D2A19194  12.399  19.066  12.029 -0.1692  0.0973 -0.2090
 1636DOPE   C3A19195  12.513  19.064  11.597  0.2212  0.3021  0.0711
 1636DOPE   C4A19196  12.824  18.846  11.309  0.3383  0.4465  0.1554
 1636DOPE   C1B19197  12.048  19.848  12.235 -0.3581 -0.1728  0.0467
 1636DOPE   D2B19198  12.146  20.074  11.883  0.0631  0.0563 -0.1670
 1636DOPE   C3B19199  12.123  20.309  11.512 -0.0974  0.0278 -0.2942
 1636DOPE   C4B19200  11.820  20.475  11.132 -0.3307  0.0106 -0.1237
 1637DOPC   NC319201  20.144  24.493  13.141 -0.0957  0.2639  0.1210
 1637DOPC   PO419202  20.004  24.807  13.305 -0.0447 -0.1767 -0.1523
 1637DOPC   GL119203  20.203  24.940  12.960 -0.1111  0.1658 -0.3914
 1637DOPC   GL219204  20.099  25.152  12.895 -0.4641  0.0350 -0.0508
 1637DOPC   C1A19205  20.200  24.701  12.585 -0.1468 -0.1991  0.0615
 1637DOPC   D2A19206  20.154  24.878  12.170  0.1011 -0.2539 -0.2640
 1637DOPC   C3A19207  19.827  25.197  11.998  0.0319  0.1564  0.1859
 1637DOPC   C4A19208  19.371  25.185  11.955  0.1543 -0.0672  0.1384
 1637DOPC   C1B19209  19.946  25.131  12.502  0.2398 -0.3179  0.0979
 1637DOPC   D2B19210  19.666  24.773  12.323  0.0328 -0.0836  0.1529
 1637DOPC   C3B19211  19.394  24.610  12.127 -0.0923 -0.1652  0.0044
 1637DOPC   C4B19212  19.316  24.138  12.096 -0.1220 -0.0798  0.2877
 1638DOPC   NC319213  19.922  23.506  12.606  0.0738 -0.0275  0.2321
 1638DOPC   PO419214  19.663  23.179  12.590  0.2230  0.1162  0.1495
 1638DOPC   GL119215  19.763  22.993  12.249 -0.0450  0.1394  0.0074
 1638DOPC   GL219216  19.516  22.854  12.155 -0.0238 -0.1043 -0.3672
 1638DOPC   C1A19217  20.012  22.895  11.893  0.0428  0.0823  0.5099
 1638DOPC   D2A19218  20.096  22.648  11.492  0.0906  0.2003 -0.0132
 1638DOPC   C3A19219  20.047  22.637  11.030 -0.2120 -0.1368  0.0043
 1638DOPC   C4A19220  20.170  22.534  10.590  0.0071 -0.1280  0.1058
 1638DOPC   C1B19221  19.569  22.937  11.720  0.1917  0.0615 -0.1032
 1638DOPC   D2B19222  19.677  23.156  11.342  0.2191  0.1953 -0.0365
 1638DOPC   C3B19223  19.549  22.886  10.980 -0.4758  0.1047 -0.0387
 1638DOPC   C4B19224  19.185  22.567  10.925 -0.2566  0.0966 -0.0367
 1639POSM   NC319225  15.392  10.825  14.090  0.3644 -0.2754 -0.0536
 1639POSM   PO419226  15.500  11.230  14.093 -0.0151 -0.4901  0.0119
 1639POSM   AM119227  15.413  11.228  13.794  0.0050 -0.6495 -0.3538
 1639POSM   AM219228  15.252  11.012  13.626 -0.0036 -0.3541 -0.0703
 1639POSM   T1A19229  15.494  11.570  13.462  0.1650 -0.0316 -0.2521
 1639POSM   C2A19230  15.540  11.627  12.977  0.2577 -0.0260 -0.3475
 1639POSM   C3A19231  15.560  12.018  12.753  0.3713  0.0295 -0.0334
 1639POSM   C1B19232  15.101  10.879  13.356 -0.1050 -0.3115  0.1203
 1639POSM   D2B19233  15.310  10.797  12.927 -0.3348  0.0707  0.3338
 1639POSM   C3B19234  15.278  10.954  12.534 -0.0912 -0.2511  0.2443
 1639POSM   C4B19235  15.045  11.084  12.222 -0.1197 -0.0594 -0.1629
 1640DOPS   CNO19236  16.978  21.185  12.642 -0.0346 -0.0432  0.0534
 1640DOPS   PO419237  16.911  21.441  12.862  0.0116 -0.0515 -0.1946
 1640DOPS   GL119238  16.981  21.591  12.466 -0.2921  0.0407  0.0517
 1640DOPS   GL219239  17.123  21.875  12.401 -0.0226 -0.1223  0.2238
 1640DOPS   C1A19240  17.202  21.547  12.035  0.1653 -0.0052  0.1020
 1640DOPS   D2A19241  17.318  21.624  11.584  0.0221  0.2505  0.0343
 1640DOPS   C3A19242  17.208  21.297  11.292  0.1571 -0.2091 -0.3238
 1640DOPS   C4A19243  16.764  21.103  11.175 -0.2430  0.0375  0.1342
 1640DOPS   C1B19244  16.881  21.924  12.012 -0.0373 -0.0777 -0.3740
 1640DOPS   D2B19245  16.817  21.721  11.607 -0.0213 -0.2047  0.0305
 1640DOPS   C3B19246  16.902  21.718  11.165  0.0805  0.3732 -0.1505
 1640DOPS   C4B19247  16.701  21.889  10.797  0.1067 -0.2702  0.1313
 1641DOPC   NC319248  17.963  13.610  12.734  0.1366  0.0114 -0.0646
 1641DOPC   PO419249  18.336  13.755  12.691  0.1615 -0.1376  0.0847
 1641DOPC   GL119250  18.551  13.811  12.443 -0.3803  0.1680  0.0295
 1641DOPC   GL219251  18.807  13.609  12.314  0.1985 -0.0870 -0.2403
 1641DOPC   C1A19252  18.752  14.056  12.066  0.3816 -0.0136  0.0564
 1641DOPC   D2A19253  19.057  14.379  11.988 -0.0943 -0.0031 -0.2020
 1641DOPC   C3A19254  19.203  14.560  11.633  0.2183  0.2685 -0.3627
 1641DOPC   C4A19255  19.174  14.622  11.144  0.0520 -0.0671  0.0451
 1641DOPC   C1B19256  18.592  13.501  11.881  0.0181 -0.2362 -0.2352
 1641DOPC   D2B19257  18.374  13.319  11.529  0.3426  0.0161  0.1962
 1641DOPC   C3B19258  18.263  12.863  11.537  0.0401 -0.0179  0.2577
 1641DOPC   C4B19259  18.066  12.509  11.695  0.1261  0.3565 -0.0617
 1642DOPE   NH319260  13.037  15.606  13.736 -0.3036 -0.0997  0.2389
 1642DOPE   PO419261  13.209  15.518  13.426 -0.0582 -0.1432  0.1286
 1642DOPE   GL119262  13.134  15.502  13.025  0.0854 -0.1706  0.1038
 1642DOPE   GL219263  13.131  15.309  12.827  0.1446  0.1408 -0.2350
 1642DOPE   C1A19264  13.375  15.731  12.718  0.2320  0.1307 -0.0570
 1642DOPE   D2A19265  13.458  15.858  12.277 -0.0037  0.3482  0.0779
 1642DOPE   C3A19266  13.473  15.540  11.917  0.1089  0.3509  0.1113
 1642DOPE   C4A19267  13.498  15.206  11.660 -0.2419 -0.1404  0.0118
 1642DOPE   C1B19268  12.962  15.535  12.476  0.0270  0.3133  0.2184
 1642DOPE   D2B19269  12.893  15.580  11.996 -0.1639 -0.3096  0.0060
 1642DOPE   C3B19270  12.895  16.006  11.737 -0.3948 -0.1084  0.1470
 1642DOPE   C4B19271  12.861  16.486  11.577  0.0320 -0.2173 -0.0624
 1643POSM   NC319272  16.108  20.831  11.744  0.2218 -0.1037 -0.6272
 1643POSM   PO419273  16.169  20.765  12.170 -0.2541  0.1820 -0.0823
 1643POSM   AM119274  15.825  20.761  12.149  0.3449 -0.4987 -0.0109
 1643POSM   AM219275  15.671  20.983  12.104 -0.0460 -0.0071  0.1977
 1643POSM   T1A19276  15.570  20.561  11.796  0.1507  0.0977 -0.0224
 1643POSM   C2A19277  15.456  20.424  11.434 -0.1323  0.1616  0.3062
 1643POSM   C3A19278  15.217  20.689  11.166  0.1358  0.0069 -0.2153
 1643POSM   C1B19279  15.746  21.132  11.817  0.1586 -0.4277 -0.1368
 1643POSM   D2B19280  15.937  21.381  11.567  0.1864 -0.3472  0.1262
 1643POSM   C3B19281  15.844  21.276  11.096  0.2017  0.2684 -0.1525
 1643POSM   C4B19282  15.723  20.838  10.924  0.3339  0.1943  0.2909
 1644DOPS   CNO19283  15.253  21.348  13.215  0.0795  0.0057  0.0825
 1644DOPS   PO419284  15.169  21.120  12.919 -0.0975 -0.2538 -0.1409
 1644DOPS   GL119285  15.222  21.171  12.440 -0.2094  0.3244 -0.2931
 1644DOPS   GL219286  15.460  21.386  12.409  0.1719  0.0840  0.1099
 1644DOPS   C1A19287  15.111  20.913  12.066 -0.0622 -0.0543 -0.1565
 1644DOPS   D2A19288  15.148  20.851  11.609  0.1176 -0.0368 -0.0409
 1644DOPS   C3A19289  15.568  20.928  11.388 -0.0139  0.2824  0.0548
 1644DOPS   C4A19290  15.932  20.626  11.336 -0.1826 -0.1110  0.0022
 1644DOPS   C1B19291  15.380  21.417  11.950  0.0865  0.4104 -0.0437
 1644DOPS   D2B19292  15.382  21.408  11.464  0.1514  0.1674 -0.1446
 1644DOPS   C3B19293  15.305  21.166  11.083  0.3009 -0.1127  0.2976
 1644DOPS   C4B19294  15.129  20.870  10.735  0.2493 -0.0358 -0.1803
 1645DOPC   NC319295  19.762  15.361  12.746 -0.1723  0.1844  0.1348
 1645DOPC   PO419296  19.894  15.382  12.386  0.1968 -0.1963  0.0394
 1645DOPC   GL119297  19.977  15.567  12.110  0.0261  0.0348  0.2031
 1645DOPC   GL219298  20.248  15.690  12.129  0.0325  0.1253  0.3673
 1645DOPC   C1A19299  19.949  15.822  11.724 -0.1622  0.1743  0.3372
 1645DOPC   D2A19300  19.741  15.996  11.320 -0.2002  0.1060 -0.1197
 1645DOPC   C3A19301  19.423  15.814  11.004  0.1810  0.1612 -0.1576
 1645DOPC   C4A19302  19.163  15.545  10.753  0.0994 -0.0142 -0.1710
 1645DOPC   C1B19303  20.464  15.677  11.740  0.2326 -0.3695 -0.3205
 1645DOPC   D2B19304  20.462  15.505  11.297  0.0914  0.2709 -0.2022
 1645DOPC   C3B19305  20.060  15.447  11.107  0.1005  0.2435 -0.1571
 1645DOPC   C4B19306  19.669  15.259  10.956 -0.0072  0.3151 -0.1274
 1646DOPE   NH319307  16.234  16.222  12.204  0.1054 -0.1851 -0.0020
 1646DOPE   PO419308  15.993  16.390  12.312 -0.2273 -0.1417 -0.1078
 1646DOPE   GL119309  15.845  16.302  11.976  0.2768 -0.1121 -0.1148
 1646DOPE   GL219310  15.712  16.009  11.912  0.1840  0.3738  0.0686
 1646DOPE   C1A19311  15.505  16.485  11.698 -0.0527 -0.0971 -0.0447
 1646DOPE   D2A19312  15.070  16.416  11.558  0.0195  0.5625 -0.2946
 1646DOPE   C3A19313  15.023  16.269  11.110  0.1056 -0.2112  0.1850
 1646DOPE   C4A19314  14.672  16.206  10.831 -0.0803  0.0621 -0.2618
 1646DOPE   C1B19315  15.816  16.105  11.481  0.0540  0.1728  0.0408
 1646DOPE   D2B19316  15.734  16.514  11.243 -0.2481 -0.0967 -0.1920
 1646DOPE   C3B19317  15.569  16.413  10.840 -0.0684  0.0093  0.1755
 1646DOPE   C4B19318  15.242  16.504  10.444 -0.1635 -0.2233 -0.2394
 1647DOPE   NH319319  15.203  14.581  13.043  0.2228 -0.1247  0.0840
 1647DOPE   PO419320  15.226  14.602  12.675  0.5657 -0.1534 -0.1976
 1647DOPE   GL119321  15.407  14.699  12.290 -0.1122  0.3061 -0.2558
 1647DOPE   GL219322  15.185  14.623  12.191 -0.1218 -0.1627  0.4134
 1647DOPE   C1A19323  15.241  15.108  12.124  0.1731  0.1048  0.1027
 1647DOPE   D2A19324  14.911  15.469  12.041  0.0630  0.0997 -0.1681
 1647DOPE   C3A19325  14.718  15.827  11.863 -0.2056  0.0653  0.1971
 1647DOPE   C4A19326  14.573  16.226  11.580  0.0162 -0.1432 -0.0442
 1647DOPE   C1B19327  15.011  14.783  11.819 -0.4781 -0.4526 -0.0652
 1647DOPE   D2B19328  14.822  15.194  11.670  0.0598 -0.0117  0.0076
 1647DOPE   C3B19329  14.936  15.595  11.471 -0.0523  0.0512 -0.2583
 1647DOPE   C4B19330  15.178  15.904  11.602  0.2862 -0.2954 -0.0122
 1648DOPC   NC319331  20.989  24.979  13.084 -0.0308 -0.0665  0.0064
 1648DOPC   PO419332  20.696  24.696  13.108  0.0145  0.3649 -0.0203
 1648DOPC   GL119333  20.796  24.766  12.655  0.1713  0.0820 -0.2136
 1648DOPC   GL219334  20.608  24.972  12.715  0.2698  0.3103 -0.1377
 1648DOPC   C1A19335  20.593  24.530  12.296 -0.1183  0.1413  0.1633
 1648DOPC   D2A19336  20.384  24.356  11.933  0.1879 -0.0665  0.1917
 1648DOPC   C3A19337  20.076  24.025  11.822  0.0338 -0.1175  0.2571
 1648DOPC   C4A19338  19.718  23.819  11.995  0.1008  0.0334 -0.0421
 1648DOPC   C1B19339  20.622  25.151  12.337  0.2188 -0.0429  0.0059
 1648DOPC   D2B19340  20.855  25.432  11.991 -0.1287  0.1651 -0.3865
 1648DOPC   C3B19341  21.071  25.794  11.915 -0.1438  0.1379  0.4498
 1648DOPC   C4B19342  21.312  25.947  11.581 -0.0272 -0.3416 -0.1606
 1649POSM   NC319343  18.602  21.001  12.859 -0.1195  0.1045 -0.0267
 1649POSM   PO419344  18.759  21.226  12.590 -0.0316  0.2829 -0.1574
 1649POSM   AM119345  18.713  21.036  12.325  0.1502  0.0438 -0.4036
 1649POSM   AM219346  18.760  20.987  12.052  0.0280  0.2624 -0.3988
 1649POSM   T1A19347  18.272  20.845  12.014  0.2741  0.2435 -0.1158
 1649POSM   C2A19348  18.258  20.886  11.569  0.0948 -0.2408  0.0465
 1649POSM   C3A19349  18.493  20.579  11.320  0.3012  0.0040  0.3080
 1649POSM   C1B19350  18.823  20.979  11.710 -0.1099 -0.2045 -0.0685
 1649POSM   D2B19351  18.844  20.989  11.149  0.0330 -0.1045  0.2116
 1649POSM   C3B19352  18.996  21.045  10.703 -0.0190  0.1206 -0.4257
 1649POSM   C4B19353  19.158  21.390  10.384  0.1649  0.0706  0.2148
 1650DOPE   NH319354  14.276  19.740  12.744 -0.3402 -0.2558 -0.0389
 1650DOPE   PO419355  14.204  19.493  12.537 -0.0231  0.3012  0.2078
 1650DOPE   GL119356  14.082  19.342  12.208 -0.0525  0.0698  0.1642
 1650DOPE   GL219357  14.029  19.595  12.065  0.1854  0.0660  0.1553
 1650DOPE   C1A19358  13.784  19.024  12.076 -0.0227  0.2901 -0.1370
 1650DOPE   D2A19359  13.697  18.631  11.772  0.0996 -0.0201 -0.0849
 1650DOPE   C3A19360  13.562  18.430  11.356  0.2673  0.3248 -0.3106
 1650DOPE   C4A19361  13.383  18.545  10.908 -0.0601  0.3860 -0.2968
 1650DOPE   C1B19362  14.044  19.736  11.605  0.0658 -0.1216  0.0422
 1650DOPE   D2B19363  13.887  19.845  11.199  0.4851  0.2661  0.3050
 1650DOPE   C3B19364  13.514  20.082  11.092  0.1463  0.0369  0.1288
 1650DOPE   C4B19365  13.034  20.128  11.158 -0.2267  0.1427  0.0412
 1651DOPS   CNO19366  16.880  14.387  12.999 -0.0490  0.0198 -0.1012
 1651DOPS   PO419367  16.871  14.240  12.666 -0.4346 -0.3296  0.1563
 1651DOPS   GL119368  16.807  14.029  12.415 -0.2094  0.3166  0.0908
 1651DOPS   GL219369  17.037  13.795  12.545  0.1924 -0.1525  0.0257
 1651DOPS   C1A19370  16.625  13.951  12.013  0.1460 -0.0452 -0.0090
 1651DOPS   D2A19371  16.364  13.866  11.650  0.0641 -0.2127 -0.0286
 1651DOPS   C3A19372  16.366  13.752  11.211  0.3162 -0.1715 -0.1545
 1651DOPS   C4A19373  16.024  13.612  10.929 -0.3480 -0.1836  0.0260
 1651DOPS   C1B19374  17.154  13.790  12.112  0.2035  0.3643  0.2666
 1651DOPS   D2B19375  17.630  13.870  11.993  0.2496  0.0186 -0.0958
 1651DOPS   C3B19376  17.845  13.933  11.599  0.0078 -0.1254  0.1505
 1651DOPS   C4B19377  18.179  13.741  11.438 -0.5485 -0.1225 -0.1122
 1652POSM   NC319378  14.001  17.483  12.604  0.0420  0.4809  0.0350
 1652POSM   PO419379  14.246  17.734  12.594 -0.0124 -0.3806 -0.2370
 1652POSM   AM119380  14.125  17.821  12.296  0.2108 -0.1141  0.1551
 1652POSM   AM219381  14.107  18.001  12.082  0.2947 -0.2373  0.1809
 1652POSM   T1A19382  13.964  17.621  11.864  0.0371 -0.1096 -0.1122
 1652POSM   C2A19383  14.190  17.528  11.476  0.2045 -0.0426  0.3077
 1652POSM   C3A19384  14.424  17.401  11.056  0.1834 -0.0100  0.0220
 1652POSM   C1B19385  14.330  17.947  11.798  0.0613  0.1904  0.0409
 1652POSM   D2B19386  14.495  17.997  11.357  0.1029  0.1296 -0.0362
 1652POSM   C3B19387  14.319  17.891  10.931  0.1237  0.1495 -0.2574
 1652POSM   C4B19388  14.162  17.615  10.624  0.2307  0.1780 -0.1272
 1653POSM   NC319389  13.868  20.909  13.047  0.1528 -0.1992  0.0358
 1653POSM   PO419390  14.220  20.828  12.903 -0.0903  0.0788  0.0772
 1653POSM   AM119391  14.096  20.795  12.572  0.1300  0.2019  0.2011
 1653POSM   AM219392  13.858  20.723  12.388  0.0194 -0.1993  0.2045
 1653POSM   T1A19393  14.247  20.806  12.097 -0.1274 -0.2114  0.0785
 1653POSM   C2A19394  14.287  20.574  11.643 -0.3014  0.4518  0.1861
 1653POSM   C3A19395  14.326  20.136  11.490 -0.0761 -0.1850 -0.3454
 1653POSM   C1B19396  13.775  20.788  12.070  0.0858 -0.0920  0.3097
 1653POSM   D2B19397  13.942  20.943  11.615  0.1612 -0.2218 -0.3775
 1653POSM   C3B19398  13.628  21.104  11.301  0.0233 -0.2274  0.0623
 1653POSM   C4B19399  13.413  20.955  10.912 -0.1405 -0.2091  0.0403
 1654DOPC   NC319400  13.339  12.293  14.718  0.2091 -0.1037  0.0638
 1654DOPC   PO419401  13.507  12.269  14.364 -0.0005  0.3185  0.2336
 1654DOPC   GL119402  13.718  12.153  14.013 -0.0335 -0.0659 -0.1243
 1654DOPC   GL219403  13.678  12.374  13.855 -0.1062  0.2229 -0.0380
 1654DOPC   C1A19404  13.726  11.695  13.863  0.1125 -0.2040  0.3425
 1654DOPC   D2A19405  13.811  11.483  13.396  0.3441 -0.3400  0.0874
 1654DOPC   C3A19406  13.952  11.149  13.115  0.0876 -0.2363  0.0370
 1654DOPC   C4A19407  13.984  10.724  12.909  0.3157  0.0834 -0.1868
 1654DOPC   C1B19408  13.560  12.307  13.402 -0.2274 -0.4145 -0.1301
 1654DOPC   D2B19409  13.551  12.292  12.977  0.0128  0.1824  0.2558
 1654DOPC   C3B19410  13.641  12.013  12.652 -0.0786  0.0971 -0.1386
 1654DOPC   C4B19411  13.707  11.670  12.334  0.1440 -0.1769  0.0960
 1655DOPS   CNO19412  16.772  16.387  12.189  0.0193  0.4106 -0.1596
 1655DOPS   PO419413  16.515  16.573  12.368 -0.1091 -0.1144  0.1750
 1655DOPS   GL119414  16.424  16.844  12.040 -0.2669  0.0054  0.0402
 1655DOPS   GL219415  16.174  16.681  11.944  0.1562  0.0490  0.1414
 1655DOPS   C1A19416  16.442  16.965  11.613 -0.1129  0.1431 -0.1054
 1655DOPS   D2A19417  16.136  17.125  11.312  0.2184  0.0094  0.1489
 1655DOPS   C3A19418  16.316  17.457  11.016  0.2001  0.2211 -0.1310
 1655DOPS   C4A19419  16.472  17.817  10.794 -0.0050 -0.1868  0.0229
 1655DOPS   C1B19420  16.126  16.582  11.543 -0.0426  0.0314  0.1487
 1655DOPS   D2B19421  16.283  16.382  11.165  0.1566 -0.2918 -0.0079
 1655DOPS   C3B19422  16.611  16.329  10.852 -0.3178  0.0782 -0.2797
 1655DOPS   C4B19423  16.771  16.344  10.428  0.0785  0.1528  0.4368
 1656DOPE   NH319424  18.261  25.845  13.696  0.1912  0.1095 -0.0115
 1656DOPE   PO419425  18.116  25.823  13.410 -0.2924 -0.0018  0.2215
 1656DOPE   GL119426  18.448  25.914  13.110 -0.2226  0.3022 -0.1889
 1656DOPE   GL219427  18.533  25.678  12.906 -0.2412  0.0636 -0.4489
 1656DOPE   C1A19428  18.509  26.071  12.675  0.0473  0.0966 -0.1963
 1656DOPE   D2A19429  18.408  25.972  12.287  0.1350  0.0899 -0.1662
 1656DOPE   C3A19430  18.488  26.221  11.908 -0.1460 -0.1222 -0.1668
 1656DOPE   C4A19431  18.558  26.511  11.545  0.0870 -0.1284 -0.0323
 1656DOPE   C1B19432  18.705  25.477  12.505  0.2204  0.1034 -0.0773
 1656DOPE   D2B19433  19.023  25.553  12.138  0.1981  0.1175  0.0355
 1656DOPE   C3B19434  19.052  25.467  11.667  0.1690 -0.1985  0.2914
 1656DOPE   C4B19435  19.363  25.279  11.416  0.3323 -0.0957  0.3477
 1657POSM   NC319436  21.667  20.615  12.086  0.2343  0.0068 -0.2003
 1657POSM   PO419437  21.506  20.521  12.446  0.3064 -0.0480  0.0420
 1657POSM   AM119438  21.409  20.225  12.299  0.3026 -0.2715  0.1147
 1657POSM   AM219439  21.124  20.167  12.137  0.3333 -0.3694 -0.0218
 1657POSM   T1A19440  21.586  19.966  11.965  0.0592 -0.0315  0.1347
 1657POSM   C2A19441  21.419  19.775  11.548  0.3476  0.0156 -0.1337
 1657POSM   C3A19442  21.165  19.861  11.160 -0.0133  0.1203 -0.1377
 1657POSM   C1B19443  21.226  20.291  11.823 -0.3552  0.0857  0.2460
 1657POSM   D2B19444  21.458  20.366  11.425  0.1132  0.2755  0.1207
 1657POSM   C3B19445  21.598  20.020  11.127 -0.1257  0.1539  0.0976
 1657POSM   C4B19446  21.630  19.914  10.652  0.0354 -0.0664  0.0301
 1658POSM   NC319447  21.930  17.590  12.885 -0.0706  0.1440 -0.1352
 1658POSM   PO419448  21.617  17.377  12.883 -0.1162  0.2189  0.0541
 1658POSM   AM119449  21.705  17.331  12.558 -0.1243 -0.2188  0.0132
 1658POSM   AM219450  21.622  17.378  12.286  0.0476  0.0961  0.3068
 1658POSM   T1A19451  21.849  16.967  12.319 -0.3116 -0.0631 -0.0600
 1658POSM   C2A19452  21.908  16.753  11.904 -0.0031  0.3008 -0.1614
 1658POSM   C3A19453  21.938  16.329  11.685  0.1078 -0.1114 -0.0375
 1658POSM   C1B19454  21.329  17.327  12.063 -0.2021 -0.1254  0.1219
 1658POSM   D2B19455  21.086  17.123  11.698 -0.0910  0.0298  0.0431
 1658POSM   C3B19456  20.829  16.753  11.659  0.1800  0.1036 -0.1497
 1658POSM   C4B19457  20.715  16.333  11.404 -0.0268  0.1295 -0.2740
 1659DOPC   NC319458  11.646  20.465  12.897 -0.2694  0.0370  0.2064
 1659DOPC   PO419459  11.419  20.443  13.247  0.2412 -0.3648  0.0755
 1659DOPC   GL119460  11.229  20.779  13.057 -0.0489 -0.0537  0.0701
 1659DOPC   GL219461  11.169  20.619  12.792 -0.1589 -0.1224 -0.1262
 1659DOPC   C1A19462  10.847  21.017  12.876 -0.1581  0.3397  0.1093
 1659DOPC   D2A19463  10.743  21.286  12.506 -0.2416  0.1456  0.1136
 1659DOPC   C3A19464  10.917  21.387  12.135 -0.1517  0.1512  0.0084
 1659DOPC   C4A19465  10.849  21.245  11.706  0.0164  0.0470  0.1159
 1659DOPC   C1B19466  11.466  20.569  12.439  0.1952 -0.0920  0.0836
 1659DOPC   D2B19467  11.703  20.913  12.193 -0.0267 -0.0356  0.3338
 1659DOPC   C3B19468  11.490  21.319  12.078 -0.0746  0.1136 -0.0264
 1659DOPC   C4B19469  11.261  21.515  11.741  0.2590 -0.3181 -0.1091
 1660DOPC   NC319470  12.827  12.744  14.252  0.0929 -0.1774  0.1892
 1660DOPC   PO419471  13.086  13.000  14.127 -0.1547  0.1122 -0.0516
 1660DOPC   GL119472  13.013  13.028  13.779  0.3735  0.1378 -0.0831
 1660DOPC   GL219473  13.020  12.749  13.711  0.1055 -0.4533  0.0509
 1660DOPC   C1A19474  12.751  13.120  13.411  0.0712 -0.1880  0.4708
 1660DOPC   D2A19475  12.627  13.133  12.962 -0.3565  0.0250  0.1042
 1660DOPC   C3A19476  12.695  13.459  12.618  0.1725  0.1906  0.5039
 1660DOPC   C4A19477  12.855  13.742  12.279  0.3702 -0.0935  0.0285
 1660DOPC   C1B19478  12.944  12.663  13.253 -0.2251 -0.0378 -0.1084
 1660DOPC   D2B19479  12.930  12.245  13.053 -0.1606  0.0185 -0.1524
 1660DOPC   C3B19480  12.537  12.085  12.864  0.2079  0.1385  0.0612
 1660DOPC   C4B19481  12.207  12.404  12.707  0.0292 -0.1991  0.1624
 1661POSM   NC319482  17.644  13.088  13.286  0.0944  0.0956 -0.0126
 1661POSM   PO419483  17.586  13.421  13.095 -0.1282 -0.2074  0.1449
 1661POSM   AM119484  17.561  13.201  12.856  0.5570  0.0645  0.1947
 1661POSM   AM219485  17.649  13.169  12.628  0.1244  0.1397  0.1619
 1661POSM   T1A19486  17.282  12.848  12.652  0.0143  0.4821  0.1754
 1661POSM   C2A19487  16.900  12.756  12.368  0.2238 -0.2286  0.2039
 1661POSM   C3A19488  16.705  12.363  12.196 -0.0899  0.1229  0.2341
 1661POSM   C1B19489  17.542  13.373  12.366 -0.1984 -0.3798  0.0776
 1661POSM   D2B19490  17.599  13.397  11.885  0.1165  0.1114 -0.1641
 1661POSM   C3B19491  17.314  13.661  11.639 -0.0737  0.1222  0.0217
 1661POSM   C4B19492  16.899  13.855  11.564  0.2619 -0.1374 -0.0167
 1662POSM   NC319493  22.960  20.164  12.480 -0.0074  0.0306 -0.1828
 1662POSM   PO419494  22.746  19.890  12.707 -0.1940  0.0035 -0.0183
 1662POSM   AM119495  22.713  19.762  12.421  0.0307 -0.2311  0.4266
 1662POSM   AM219496  22.972  19.745  12.223 -0.0977 -0.1197  0.1429
 1662POSM   T1A19497  22.544  19.558  11.959  0.0138  0.0952 -0.2548
 1662POSM   C2A19498  22.695  19.328  11.578 -0.4191  0.0692  0.4421
 1662POSM   C3A19499  22.484  19.307  11.197  0.0688  0.3224  0.0693
 1662POSM   C1B19500  23.091  19.643  11.971 -0.0170  0.2262 -0.1014
 1662POSM   D2B19501  23.289  19.612  11.507 -0.0030 -0.1733  0.0242
 1662POSM   C3B19502  23.314  19.989  11.203 -0.0557  0.2457 -0.0277
 1662POSM   C4B19503  23.396  20.471  11.290 -0.0472  0.1136  0.3646
 1663DOPE   NH319504  21.886  23.319  13.175 -0.0278  0.0570 -0.0008
 1663DOPE   PO419505  21.584  23.298  13.219 -0.0211  0.0285  0.0077
 1663DOPE   GL119506  21.580  23.394  12.844  0.1679 -0.2550 -0.1170
 1663DOPE   GL219507  21.343  23.514  12.802  0.2713 -0.1599  0.1212
 1663DOPE   C1A19508  21.614  23.375  12.369  0.0956  0.0129 -0.0647
 1663DOPE   D2A19509  21.531  23.642  12.026  0.0667  0.0317 -0.1933
 1663DOPE   C3A19510  21.376  23.658  11.582  0.1386  0.0495  0.0417
 1663DOPE   C4A19511  21.234  23.793  11.158  0.0560  0.0766 -0.2102
 1663DOPE   C1B19512  21.288  23.834  12.431  0.0604 -0.0463 -0.2526
 1663DOPE   D2B19513  21.579  24.181  12.356  0.3738 -0.0796  0.0277
 1663DOPE   C3B19514  21.887  23.979  12.087  0.0346  0.0936 -0.1195
 1663DOPE   C4B19515  22.056  23.615  11.899 -0.0025  0.3145 -0.3327
 1664DOPC   NC319516  15.608  20.888  12.605  0.0316  0.0240 -0.4195
 1664DOPC   PO419517  15.921  21.110  12.519  0.2599 -0.0035  0.1424
 1664DOPC   GL119518  15.912  21.342  12.171  0.1306 -0.2174 -0.0499
 1664DOPC   GL219519  16.193  21.241  12.081 -0.2868 -0.1401  0.0549
 1664DOPC   C1A19520  15.823  21.741  12.008 -0.2504 -0.0974  0.2270
 1664DOPC   D2A19521  16.064  22.082  11.804  0.2494  0.1944  0.1830
 1664DOPC   C3A19522  16.132  21.997  11.388 -0.0155 -0.1453 -0.1967
 1664DOPC   C4A19523  15.831  21.753  11.214  0.1695  0.0790 -0.1307
 1664DOPC   C1B19524  16.701  21.313  12.084  0.0954  0.0273  0.0332
 1664DOPC   D2B19525  16.994  21.186  11.724 -0.1193  0.1164 -0.1311
 1664DOPC   C3B19526  17.452  21.094  11.798  0.3095 -0.0399 -0.2022
 1664DOPC   C4B19527  17.843  20.913  11.779 -0.0264  0.1811 -0.2269
 1665DOPE   NH319528  16.802  17.060  12.333  0.3967 -0.1950 -0.1766
 1665DOPE   PO419529  17.018  17.252  12.219  0.1444 -0.3993  0.0645
 1665DOPE   GL119530  17.167  17.333  11.824  0.1157  0.1233  0.2309
 1665DOPE   GL219531  17.058  17.172  11.587 -0.1111  0.2233 -0.0817
 1665DOPE   C1A19532  17.544  17.379  11.593 -0.2415 -0.0062  0.2253
 1665DOPE   D2A19533  17.959  17.209  11.464 -0.1794  0.1056 -0.0390
 1665DOPE   C3A19534  17.996  16.793  11.210  0.0741  0.1156 -0.1586
 1665DOPE   C4A19535  17.659  16.498  11.065  0.1156  0.0350  0.1161
 1665DOPE   C1B19536  16.740  17.192  11.236  0.0704  0.0783  0.2900
 1665DOPE   D2B19537  16.435  16.924  11.023  0.1171  0.0978  0.2222
 1665DOPE   C3B19538  16.409  16.687  10.591 -0.0707  0.1680 -0.1016
 1665DOPE   C4B19539  16.403  16.609  10.178 -0.0136 -0.1305 -0.0448
 1666DOPE   NH319540  21.857  19.599  12.837 -0.0687  0.1184  0.1156
 1666DOPE   PO419541  21.790  19.769  12.601  0.2806  0.1263 -0.0012
 1666DOPE   GL119542  21.682  19.676  12.311  0.2317 -0.2881  0.3066
 1666DOPE   GL219543  21.370  19.734  12.307 -0.3681 -0.2747  0.1357
 1666DOPE   C1A19544  21.690  19.490  11.848 -0.0003  0.3394  0.1388
 1666DOPE   D2A19545  21.653  19.197  11.478  0.0737  0.0371  0.2927
 1666DOPE   C3A19546  21.458  19.408  11.104 -0.2280  0.0333 -0.0801
 1666DOPE   C4A19547  21.037  19.465  10.920  0.1671  0.0127  0.0385
 1666DOPE   C1B19548  21.067  19.631  11.988 -0.0312 -0.0420 -0.2587
 1666DOPE   D2B19549  20.881  19.663  11.566 -0.2897 -0.2011  0.2025
 1666DOPE   C3B19550  20.677  19.384  11.275 -0.1700 -0.0029  0.1951
 1666DOPE   C4B19551  20.548  18.981  11.157 -0.0496  0.2348 -0.0319
 1667DOPE   NH319552  17.975  16.060  12.112 -0.1182 -0.1890 -0.4367
 1667DOPE   PO419553  18.123  15.816  12.141 -0.1475 -0.1691 -0.1730
 1667DOPE   GL119554  17.902  15.860  11.724 -0.2965  0.0217 -0.1095
 1667DOPE   GL219555  18.122  15.822  11.580  0.2264  0.0881 -0.1756
 1667DOPE   C1A19556  17.756  15.714  11.284 -0.1005 -0.1852  0.4372
 1667DOPE   D2A19557  17.777  15.380  10.941  0.3261  0.1595  0.1250
 1667DOPE   C3A19558  17.726  14.948  11.101  0.2038  0.2721  0.5592
 1667DOPE   C4A19559  17.856  14.624  11.403  0.1781  0.0785 -0.0014
 1667DOPE   C1B19560  18.254  15.529  11.201 -0.2344 -0.3264 -0.0453
 1667DOPE   D2B19561  18.703  15.475  11.126 -0.1979 -0.1349  0.2252
 1667DOPE   C3B19562  18.610  15.324  10.703 -0.2016 -0.1199 -0.3244
 1667DOPE   C4B19563  18.924  15.286  10.334  0.1907 -0.0647 -0.0477
 1668DOPS   CNO19564  10.265  16.433  14.246 -0.3161 -0.3665 -0.0690
 1668DOPS   PO419565  10.459  16.693  14.051  0.0089 -0.0460 -0.2678
 1668DOPS   GL119566  10.542  16.803  13.673 -0.0277 -0.2338  0.3354
 1668DOPS   GL219567  10.599  17.025  13.557 -0.2693  0.0887  0.0072
 1668DOPS   C1A19568  10.345  16.663  13.264 -0.1392 -0.5600  0.2991
 1668DOPS   D2A19569  10.230  16.562  12.836  0.0106  0.2780 -0.0046
 1668DOPS   C3A19570  10.206  16.221  12.515  0.0991 -0.1538  0.2779
 1668DOPS   C4A19571  10.337  16.061  12.119 -0.0079  0.0222 -0.0476
 1668DOPS   C1B19572  10.594  17.033  13.102 -0.2759 -0.0246 -0.1094
 1668DOPS   D2B19573  10.718  16.910  12.681 -0.0808 -0.1340  0.1253
 1668DOPS   C3B19574  11.061  17.098  12.446  0.0694  0.0360 -0.2194
 1668DOPS   C4B19575  11.385  17.234  12.111 -0.2505  0.0910  0.0587
 1669DOPE   NH319576  14.697  22.055  13.006 -0.0096  0.0454 -0.0394
 1669DOPE   PO419577  14.654  22.377  12.956 -0.0477  0.0626  0.1384
 1669DOPE   GL119578  14.669  22.308  12.543  0.1019 -0.0686  0.2011
 1669DOPE   GL219579  14.455  22.141  12.566 -0.1651  0.0090 -0.3281
 1669DOPE   C1A19580  14.776  21.962  12.235  0.2020  0.1085  0.0589
 1669DOPE   D2A19581  14.607  21.771  11.818  0.1675  0.2007 -0.1906
 1669DOPE   C3A19582  14.182  21.737  11.733 -0.0513  0.0930 -0.0069
 1669DOPE   C4A19583  13.900  21.478  11.419 -0.0676  0.1404 -0.1596
 1669DOPE   C1B19584  14.204  21.936  12.202  0.1869  0.0519 -0.1164
 1669DOPE   D2B19585  13.911  22.172  11.915  0.2793  0.0683 -0.0617
 1669DOPE   C3B19586  13.591  21.845  11.708  0.0835  0.0138  0.2638
 1669DOPE   C4B19587  13.319  21.616  11.467 -0.2571 -0.0273 -0.3356
 1670DOPE   NH319588  14.762  17.731  12.582  0.0682  0.0999 -0.1886
 1670DOPE   PO419589  14.728  17.434  12.688  0.1469  0.2792  0.1477
 1670DOPE   GL119590  14.599  17.469  12.238  0.0975 -0.2024  0.1007
 1670DOPE   GL219591  14.412  17.350  12.335  0.1176  0.1170  0.4815
 1670DOPE   C1A19592  14.788  17.182  11.890  0.3472 -0.1779 -0.1136
 1670DOPE   D2A19593  15.034  16.972  11.569  0.4113 -0.0239 -0.3126
 1670DOPE   C3A19594  14.831  16.702  11.258 -0.3284  0.0204 -0.2650
 1670DOPE   C4A19595  14.461  16.543  11.149  0.1866 -0.2275  0.2271
 1670DOPE   C1B19596  14.297  17.196  11.962 -0.3069 -0.1906  0.0610
 1670DOPE   D2B19597  13.960  17.075  11.656  0.4144 -0.1296  0.3480
 1670DOPE   C3B19598  14.038  17.112  11.250  0.1681  0.0257  0.0939
 1670DOPE   C4B19599  14.329  16.917  10.877 -0.0318  0.0988  0.1737
 1671POSM   NC319600  17.950  11.873  12.925 -0.1401 -0.4011  0.0146
 1671POSM   PO419601  17.907  11.637  13.277 -0.1347  0.2054 -0.2070
 1671POSM   AM119602  17.601  11.640  13.141  0.2593  0.0026 -0.2376
 1671POSM   AM219603  17.407  11.795  12.930 -0.0283  0.1556 -0.2736
 1671POSM   T1A19604  17.314  11.332  12.807  0.0928 -0.1097 -0.0349
 1671POSM   C2A19605  16.943  11.046  12.874 -0.1702  0.0983  0.2220
 1671POSM   C3A19606  16.563  10.743  13.037  0.3691  0.0400 -0.1244
 1671POSM   C1B19607  17.195  11.887  12.677  0.1069  0.0175  0.1122
 1671POSM   D2B19608  17.032  12.001  12.246 -0.0146 -0.0735 -0.1267
 1671POSM   C3B19609  17.312  11.930  11.954 -0.0820  0.0311  0.1387
 1671POSM   C4B19610  17.756  11.966  11.901 -0.1488  0.3022 -0.2865
 1672POSM   NC319611  14.467  15.133  13.025 -0.2406  0.3860  0.1499
 1672POSM   PO419612  14.812  14.930  12.991 -0.1070  0.0066  0.2843
 1672POSM   AM119613  14.750  14.860  12.660  0.1197  0.0106 -0.2889
 1672POSM   AM219614  14.885  15.012  12.454 -0.2039 -0.0191  0.2588
 1672POSM   T1A19615  14.660  14.484  12.381  0.2946 -0.1917 -0.0088
 1672POSM   C2A19616  14.301  14.222  12.313  0.0781  0.2080  0.2744
 1672POSM   C3A19617  14.249  14.106  11.870  0.1574 -0.0273 -0.1246
 1672POSM   C1B19618  14.742  15.007  12.139  0.2098  0.2130 -0.2183
 1672POSM   D2B19619  14.426  15.249  11.947 -0.0583 -0.1057  0.3727
 1672POSM   C3B19620  14.314  15.085  11.515  0.0239  0.0873  0.2758
 1672POSM   C4B19621  14.236  14.833  11.170  0.1818  0.0808 -0.4193
 1673DOPC   NC319622  18.040  17.090  11.958  0.3621  0.1988 -0.0949
 1673DOPC   PO419623  17.706  16.965  12.103 -0.2501  0.1515 -0.0253
 1673DOPC   GL119624  17.458  17.002  11.815 -0.5202  0.2515  0.2209
 1673DOPC   GL219625  17.614  16.834  11.615 -0.2951 -0.0529 -0.4111
 1673DOPC   C1A19626  17.155  16.721  11.539  0.1978  0.0260 -0.0620
 1673DOPC   D2A19627  16.738  16.655  11.366  0.1045  0.0403  0.3222
 1673DOPC   C3A19628  16.595  16.348  11.679 -0.1233  0.4611 -0.1672
 1673DOPC   C4A19629  16.448  15.927  11.709  0.1554  0.0105  0.1033
 1673DOPC   C1B19630  17.424  16.916  11.176 -0.0897 -0.5099  0.1887
 1673DOPC   D2B19631  17.007  16.871  10.972 -0.1383 -0.1152  0.0587
 1673DOPC   C3B19632  17.017  16.753  10.520  0.0572  0.1056  0.0679
 1673DOPC   C4B19633  17.070  16.693  10.073 -0.0442  0.2110  0.0869
 1674DOPC   NC319634  14.671  16.898  12.825  0.0727  0.2705 -0.0252
 1674DOPC   PO419635  14.321  16.704  12.835  0.1710 -0.0557  0.1471
 1674DOPC   GL119636  14.083  16.656  12.555  0.3217  0.4259 -0.1193
 1674DOPC   GL219637  14.069  16.418  12.361  0.2060 -0.2353  0.0814
 1674DOPC   C1A19638  13.883  16.846  12.228  0.1303  0.0117 -0.2485
 1674DOPC   D2A19639  13.787  17.293  12.202  0.1795 -0.3716  0.0685
 1674DOPC   C3A19640  13.328  17.276  12.296 -0.0752 -0.1350  0.0277
 1674DOPC   C4A19641  12.922  17.042  12.185 -0.4942 -0.0990 -0.3438
 1674DOPC   C1B19642  14.220  16.447  11.914 -0.0934  0.2002  0.4783
 1674DOPC   D2B19643  14.042  16.280  11.491  0.1997 -0.2172 -0.0744
 1674DOPC   C3B19644  13.628  16.281  11.213  0.1219  0.1111  0.2968
 1674DOPC   C4B19645  13.278  16.426  10.957  0.2332  0.0478  0.1986
 1675POSM   NC319646  12.301  23.630  13.784 -0.2699  0.2640 -0.2156
 1675POSM   PO419647  12.630  23.480  13.699  0.1495 -0.0285 -0.3675
 1675POSM   AM119648  12.523  23.510  13.404 -0.1134 -0.2062  0.0785
 1675POSM   AM219649  12.708  23.589  13.169  0.1432 -0.1150 -0.1467
 1675POSM   T1A19650  12.273  23.606  12.970 -0.1311  0.0313  0.0610
 1675POSM   C2A19651  11.932  23.797  12.696 -0.1681 -0.1701  0.1980
 1675POSM   C3A19652  11.594  23.826  12.363 -0.1214 -0.2397 -0.1609
 1675POSM   C1B19653  12.875  23.744  12.913  0.1228  0.2590  0.1686
 1675POSM   D2B19654  13.006  24.042  12.582 -0.2818 -0.0171  0.1531
 1675POSM   C3B19655  12.777  24.059  12.239 -0.3743  0.0084  0.1390
 1675POSM   C4B19656  12.724  23.957  11.826  0.1100 -0.0840  0.3799
 1676DOPC   NC319657  20.090  14.258  13.049 -0.1661 -0.1371 -0.1745
 1676DOPC   PO419658  20.213  14.607  12.866 -0.1820  0.0153  0.0258
 1676DOPC   GL119659  20.283  14.699  12.503 -0.2796  0.2512 -0.1797
 1676DOPC   GL219660  20.090  14.496  12.315 -0.0173 -0.0358  0.1831
 1676DOPC   C1A19661  20.464  14.835  12.112  0.0107  0.1904  0.0032
 1676DOPC   D2A19662  20.845  14.922  11.808  0.0123 -0.1136  0.0460
 1676DOPC   C3A19663  20.889  15.288  11.562 -0.1814  0.1209 -0.0810
 1676DOPC   C4A19664  21.012  15.699  11.419 -0.2623  0.2004  0.1443
 1676DOPC   C1B19665  20.057  14.160  11.995 -0.1107 -0.0682 -0.0703
 1676DOPC   D2B19666  20.013  14.144  11.551 -0.1649 -0.0651  0.0330
 1676DOPC   C3B19667  20.179  14.509  11.313  0.0495  0.2697  0.1347
 1676DOPC   C4B19668  20.125  14.969  11.080  0.3366 -0.0452  0.0927
 1677POSM   NC319669  12.485  21.441  14.069 -0.3509 -0.0827  0.1631
 1677POSM   PO419670  12.446  21.183  13.784  0.1411  0.1875  0.0840
 1677POSM   AM119671  12.390  21.229  13.481 -0.0687  0.1582 -0.5261
 1677POSM   AM219672  12.165  21.267  13.387 -0.1976  0.1349 -0.1178
 1677POSM   T1A19673  12.421  20.992  13.012 -0.0414 -0.0146  0.0591
 1677POSM   C2A19674  12.536  20.655  12.710  0.0910 -0.1402  0.0551
 1677POSM   C3A19675  12.858  20.360  12.520  0.1795  0.3165  0.0241
 1677POSM   C1B19676  11.987  21.236  13.078 -0.1772  0.0480 -0.0437
 1677POSM   D2B19677  12.019  21.270  12.643  0.2155 -0.3990 -0.1772
 1677POSM   C3B19678  11.693  21.640  12.589 -0.0301  0.0300 -0.1402
 1677POSM   C4B19679  11.572  22.073  12.450 -0.2364 -0.2748  0.0548
 1678DOPC   NC319680  12.824  15.208  13.323  0.1972 -0.0963 -0.0871
 1678DOPC   PO419681  12.583  15.363  13.623 -0.1374 -0.0325 -0.0659
 1678DOPC   GL119682  12.414  15.561  13.436 -0.0438 -0.2023 -0.3688
 1678DOPC   GL219683  12.273  15.360  13.226 -0.0081 -0.0943  0.0525
 1678DOPC   C1A19684  12.267  15.820  13.079  0.3095 -0.0757 -0.1735
 1678DOPC   D2A19685  12.090  16.141  12.776  0.0501  0.0553  0.1432
 1678DOPC   C3A19686  12.274  16.564  12.683 -0.1716  0.1928 -0.0875
 1678DOPC   C4A19687  12.625  16.818  12.602 -0.4400  0.1254 -0.0466
 1678DOPC   C1B19688  12.235  15.368  12.761 -0.0792 -0.4212  0.1234
 1678DOPC   D2B19689  12.503  15.264  12.377 -0.2256  0.2900 -0.3191
 1678DOPC   C3B19690  12.322  15.469  12.000 -0.0055  0.0490  0.2609
 1678DOPC   C4B19691  12.570  15.619  11.617 -0.2531  0.0390 -0.0673
 1679POSM   NC319692  11.132  22.049  13.838  0.3604 -0.0230  0.2216
 1679POSM   PO419693  11.006  22.417  13.963  0.3758  0.0280  0.1348
 1679POSM   AM119694  11.130  22.541  13.657  0.0453  0.1734  0.5815
 1679POSM   AM219695  11.069  22.591  13.388 -0.1073 -0.3201 -0.0350
 1679POSM   T1A19696  11.530  22.665  13.380  0.1737 -0.0295 -0.5502
 1679POSM   C2A19697  11.847  22.807  13.076  0.0731 -0.1802  0.2775
 1679POSM   C3A19698  11.795  22.797  12.622 -0.2292 -0.0284 -0.1106
 1679POSM   C1B19699  10.945  22.578  13.042 -0.0130 -0.2220 -0.2197
 1679POSM   D2B19700  10.938  22.688  12.583 -0.2150  0.1983 -0.1074
 1679POSM   C3B19701  10.877  23.137  12.438  0.0971  0.1873  0.1098
 1679POSM   C4B19702  10.943  23.501  12.124  0.3779 -0.0260  0.0101
 1680DOPE   NH319703  14.028  18.987  12.600  0.2688 -0.3784 -0.1619
 1680DOPE   PO419704  14.364  18.973  12.545  0.0961  0.3195  0.1487
 1680DOPE   GL119705  14.362  18.754  12.195  0.0739 -0.2557 -0.1571
 1680DOPE   GL219706  14.248  18.914  12.000 -0.4906 -0.1172 -0.2336
 1680DOPE   C1A19707  14.402  18.450  11.877 -0.0691  0.0082 -0.0657
 1680DOPE   D2A19708  14.776  18.208  11.698 -0.1696  0.0982 -0.0469
 1680DOPE   C3A19709  14.949  18.159  11.262 -0.1454 -0.3897 -0.2634
 1680DOPE   C4A19710  15.348  18.175  11.011  0.1052 -0.1174  0.1633
 1680DOPE   C1B19711  14.554  18.970  11.633  0.3145  0.2664 -0.1054
 1680DOPE   D2B19712  14.558  18.608  11.318 -0.1499  0.1255 -0.0063
 1680DOPE   C3B19713  14.630  18.355  10.938  0.3005 -0.3188 -0.1054
 1680DOPE   C4B19714  14.543  18.174  10.525  0.2860  0.0592  0.2622
 1681DOPC   NC319715  23.132  15.861  13.083 -0.2836 -0.2562  0.1249
 1681DOPC   PO419716  23.070  15.519  13.314 -0.4508  0.1584  0.0427
 1681DOPC   GL119717  23.223  15.385  12.901  0.2100 -0.0444 -0.1663
 1681DOPC   GL219718  22.917  15.489  12.788  0.1207  0.0146 -0.0744
 1681DOPC   C1A19719  23.403  15.147  12.582  0.1433  0.2228 -0.1653
 1681DOPC   D2A19720  23.455  15.280  12.108  0.0314  0.0299  0.1891
 1681DOPC   C3A19721  23.174  15.260  11.680  0.0741 -0.1514 -0.3521
 1681DOPC   C4A19722  22.706  15.199  11.554 -0.0410  0.0098 -0.2476
 1681DOPC   C1B19723  23.226  15.616  12.477 -0.3629  0.1639  0.5491
 1681DOPC   D2B19724  23.230  15.927  12.141 -0.0730 -0.1485 -0.3147
 1681DOPC   C3B19725  23.353  15.734  11.771 -0.1874  0.1788  0.0413
 1681DOPC   C4B19726  23.240  15.661  11.319  0.0406 -0.1807 -0.0336
 1682DOPC   NC319727  21.425  12.177  13.594  0.2329 -0.0092 -0.0138
 1682DOPC   PO419728  21.186  12.009  13.313  0.1851  0.4174 -0.1494
 1682DOPC   GL119729  21.014  11.760  12.978  0.2974 -0.3813 -0.0069
 1682DOPC   GL219730  21.087  12.060  12.868 -0.1538  0.1777  0.2154
 1682DOPC   C1A19731  21.112  11.434  12.666 -0.0911 -0.0832 -0.1204
 1682DOPC   D2A19732  20.875  11.462  12.275  0.0728  0.1696  0.2905
 1682DOPC   C3A19733  20.747  11.056  12.051 -0.1342 -0.0080  0.0152
 1682DOPC   C4A19734  20.510  10.673  11.998 -0.0886 -0.1151  0.2470
 1682DOPC   C1B19735  20.816  11.860  12.545  0.3367 -0.1796  0.0692
 1682DOPC   D2B19736  20.511  11.888  12.154 -0.0174 -0.0246 -0.0285
 1682DOPC   C3B19737  20.360  11.484  11.993 -0.0903  0.2121  0.0604
 1682DOPC   C4B19738  20.238  11.163  11.653 -0.0604 -0.0805  0.0883
 1683DOPC   NC319739  13.716  15.586  13.352 -0.0622 -0.0514  0.0570
 1683DOPC   PO419740  13.794  15.275  13.561 -0.2209 -0.4005 -0.0430
 1683DOPC   GL119741  13.581  15.160  13.203  0.3260  0.1947  0.1721
 1683DOPC   GL219742  13.380  15.095  13.244  0.1399 -0.3802 -0.2215
 1683DOPC   C1A19743  13.518  14.836  12.824 -0.2525  0.1553  0.0023
 1683DOPC   D2A19744  13.261  14.422  12.659 -0.1736 -0.0901  0.4233
 1683DOPC   C3A19745  13.117  14.260  12.249 -0.2176 -0.0658  0.0161
 1683DOPC   C4A19746  12.788  14.289  11.916 -0.3660  0.0420 -0.0506
 1683DOPC   C1B19747  13.281  14.627  13.230 -0.3926  0.1223 -0.0886
 1683DOPC   D2B19748  13.272  14.197  13.136 -0.0949 -0.1318  0.0344
 1683DOPC   C3B19749  12.797  14.021  13.286 -0.1306 -0.0063 -0.0270
 1683DOPC   C4B19750  12.599  13.995  13.639 -0.0981  0.0788  0.1885
 1684DOPC   NC319751  19.274  20.730  12.295  0.1076  0.0744 -0.2032
 1684DOPC   PO419752  18.895  20.600  12.329 -0.0545  0.2795  0.2158
 1684DOPC   GL119753  18.701  20.477  12.020 -0.2967  0.0948 -0.1341
 1684DOPC   GL219754  18.476  20.369  11.971  0.0139 -0.3213 -0.0644
 1684DOPC   C1A19755  18.737  20.239  11.608  0.2427 -0.0510  0.0780
 1684DOPC   D2A19756  18.995  20.380  11.299 -0.2766 -0.0421  0.4549
 1684DOPC   C3A19757  18.838  20.476  10.876 -0.2295 -0.1540 -0.1448
 1684DOPC   C4A19758  18.829  20.199  10.496  0.1379 -0.1504  0.0599
 1684DOPC   C1B19759  18.210  20.308  11.603  0.0073 -0.2434 -0.0535
 1684DOPC   D2B19760  18.005  20.353  11.226  0.1567 -0.0687 -0.1378
 1684DOPC   C3B19761  18.175  20.744  10.978  0.1213  0.0361  0.1413
 1684DOPC   C4B19762  18.329  21.163  10.832 -0.2020 -0.2523 -0.0943
 1685DOPS   CNO19763  17.710  18.907  12.662 -0.0947  0.1135 -0.0020
 1685DOPS   PO419764  17.556  18.651  12.474 -0.2034  0.1672 -0.0746
 1685DOPS   GL119765  17.556  18.576  12.203  0.0666  0.1845 -0.3738
 1685DOPS   GL219766  17.581  18.301  12.076 -0.1818  0.0853 -0.3740
 1685DOPS   C1A19767  17.687  18.756  11.808  0.2643  0.0544 -0.1235
 1685DOPS   D2A19768  17.765  18.934  11.378  0.0614 -0.2331  0.0799
 1685DOPS   C3A19769  17.482  18.823  10.983  0.0549  0.3314  0.1743
 1685DOPS   C4A19770  17.180  18.446  10.858 -0.0435 -0.0462 -0.1215
 1685DOPS   C1B19771  17.508  17.890  11.906 -0.4259 -0.2094 -0.2692
 1685DOPS   D2B19772  17.234  17.800  11.593  0.0182 -0.1185  0.0581
 1685DOPS   C3B19773  16.828  17.644  11.703 -0.1445 -0.1978  0.1862
 1685DOPS   C4B19774  16.423  17.454  11.581  0.1630  0.1030  0.2021
 1686DOPC   NC319775  18.117  14.724  12.235  0.1446  0.0115 -0.0779
 1686DOPC   PO419776  17.815  14.501  12.329  0.5266  0.2172  0.0991
 1686DOPC   GL119777  17.685  14.361  11.950 -0.0207  0.3058  0.0241
 1686DOPC   GL219778  17.971  14.385  11.900 -0.1058  0.1553 -0.1533
 1686DOPC   C1A19779  17.260  14.196  11.787 -0.3516  0.1000  0.0789
 1686DOPC   D2A19780  16.974  14.339  11.436  0.4355  0.2569 -0.3429
 1686DOPC   C3A19781  16.601  14.211  11.219 -0.0129  0.1426 -0.1178
 1686DOPC   C4A19782  16.203  14.433  11.161 -0.0725 -0.1200  0.3000
 1686DOPC   C1B19783  18.273  14.664  11.697 -0.0861  0.0076 -0.0486
 1686DOPC   D2B19784  18.701  14.657  11.488 -0.1043 -0.0571  0.2635
 1686DOPC   C3B19785  18.752  14.291  11.234  0.1762 -0.1415  0.2372
 1686DOPC   C4B19786  18.722  14.108  10.800  0.0206 -0.1690 -0.0114
 1687DOPS   CNO19787  19.454  19.212  12.701  0.0601  0.1287  0.1814
 1687DOPS   PO419788  19.116  19.137  12.542 -0.0302  0.1836  0.2046
 1687DOPS   GL119789  19.010  19.233  12.155 -0.3282 -0.1510  0.0051
 1687DOPS   GL219790  19.181  19.428  12.073 -0.0560  0.0508 -0.0417
 1687DOPS   C1A19791  19.307  19.092  11.773 -0.1935 -0.2749  0.1079
 1687DOPS   D2A19792  19.658  19.043  11.395 -0.0112 -0.1647  0.0760
 1687DOPS   C3A19793  19.628  19.467  11.205  0.0774  0.1598 -0.0354
 1687DOPS   C4A19794  19.534  19.629  10.828 -0.2015  0.0249 -0.1889
 1687DOPS   C1B19795  18.940  19.424  11.724 -0.0740 -0.1078  0.2214
 1687DOPS   D2B19796  18.732  19.771  11.424 -0.0320 -0.1457 -0.0866
 1687DOPS   C3B19797  18.601  19.550  11.049 -0.1989 -0.3158  0.2170
 1687DOPS   C4B19798  18.478  19.592  10.585 -0.4547  0.0925  0.1281
 1688POSM   NC319799  23.915  15.515  13.666  0.2644 -0.0601 -0.0130
 1688POSM   PO419800  23.960  15.887  13.547  0.1470  0.3054  0.0496
 1688POSM   AM119801  24.123  16.018  13.291 -0.0730 -0.1161  0.2127
 1688POSM   AM219802  24.063  16.207  13.087  0.2030 -0.1801 -0.2210
 1688POSM   T1A19803  24.541  16.165  13.061  0.1539 -0.1529  0.2592
 1688POSM   C2A19804  24.617  16.300  12.647 -0.0622 -0.1788  0.0783
 1688POSM   C3A19805  24.408  16.587  12.273  0.1134  0.1718  0.1790
 1688POSM   C1B19806  24.100  16.133  12.753 -0.0526  0.2132 -0.0028
 1688POSM   D2B19807  24.243  15.849  12.356 -0.3215 -0.1480 -0.0808
 1688POSM   C3B19808  24.318  15.367  12.488 -0.0458 -0.0816  0.2574
 1688POSM   C4B19809  24.532  14.938  12.590 -0.0672  0.2529  0.0445
 1689DOPS   CNO19810  13.828  16.192  13.463  0.0425 -0.0646 -0.1325
 1689DOPS   PO419811  13.967  15.987  13.164 -0.0871 -0.1401  0.0603
 1689DOPS   GL119812  13.833  15.808  12.880 -0.0587  0.2338  0.0537
 1689DOPS   GL219813  13.770  15.953  12.650 -0.1986 -0.2334  0.1307
 1689DOPS   C1A19814  14.073  15.529  12.540  0.0503 -0.1103 -0.4775
 1689DOPS   D2A19815  13.986  15.301  12.121 -0.0951 -0.0579  0.1768
 1689DOPS   C3A19816  13.898  15.532  11.727 -0.3522  0.4662 -0.0265
 1689DOPS   C4A19817  13.981  15.821  11.396  0.0370 -0.1640 -0.0910
 1689DOPS   C1B19818  13.937  15.918  12.224 -0.0982 -0.0439  0.3018
 1689DOPS   D2B19819  13.762  16.023  11.825 -0.1395  0.2615  0.0880
 1689DOPS   C3B19820  13.423  15.925  11.557  0.2647 -0.0577  0.2553
 1689DOPS   C4B19821  13.549  15.631  11.248  0.0954  0.0368 -0.0963
 1690DOPS   CNO19822  13.110  14.708  14.230 -0.2599  0.1835 -0.1981
 1690DOPS   PO419823  12.817  14.677  13.986  0.3134 -0.1301  0.1343
 1690DOPS   GL119824  12.718  14.391  13.627 -0.1899 -0.3412  0.0166
 1690DOPS   GL219825  13.000  14.420  13.542 -0.2920  0.2460 -0.2350
 1690DOPS   C1A19826  12.406  14.355  13.278 -0.0510 -0.2185  0.1160
 1690DOPS   D2A19827  12.328  14.113  12.872  0.0778  0.0902  0.0127
 1690DOPS   C3A19828  12.743  13.957  12.753  0.1290 -0.2809 -0.0876
 1690DOPS   C4A19829  13.234  13.916  12.688 -0.1133 -0.1761 -0.0622
 1690DOPS   C1B19830  12.839  14.480  13.043 -0.0215  0.0405  0.0880
 1690DOPS   D2B19831  12.723  14.424  12.602 -0.0274  0.2081  0.1950
 1690DOPS   C3B19832  12.499  14.106  12.297  0.2110  0.1160  0.0923
 1690DOPS   C4B19833  12.357  14.148  11.880  0.2197  0.0394  0.1687
 1691DOPE   NH319834  12.441  14.497  14.343 -0.2131 -0.0579 -0.5025
 1691DOPE   PO419835  12.273  14.214  14.344  0.0111 -0.2462  0.0953
 1691DOPE   GL119836  11.990  14.195  14.059 -0.4165  0.0982  0.2691
 1691DOPE   GL219837  11.839  14.423  14.083  0.1647 -0.1384  0.1000
 1691DOPE   C1A19838  12.054  13.856  13.745  0.0162 -0.1890 -0.0548
 1691DOPE   D2A19839  12.270  13.669  13.418 -0.1781 -0.0435  0.0811
 1691DOPE   C3A19840  12.236  13.201  13.311 -0.0369  0.1858  0.1585
 1691DOPE   C4A19841  12.259  12.823  13.043 -0.0382  0.1798 -0.2062
 1691DOPE   C1B19842  11.936  14.359  13.596  0.0915 -0.0515 -0.1263
 1691DOPE   D2B19843  11.883  14.417  13.119  0.0160 -0.1688 -0.0434
 1691DOPE   C3B19844  11.840  14.156  12.746 -0.0874 -0.1634 -0.2771
 1691DOPE   C4B19845  11.546  14.230  12.357  0.2651 -0.3229 -0.3959
 1692DOPE   NH319846  22.341  14.432  13.441 -0.0855 -0.4273 -0.1836
 1692DOPE   PO419847  22.524  14.241  13.289  0.0611 -0.1753  0.2079
 1692DOPE   GL119848  22.672  14.171  12.946  0.0504  0.4934  0.1122
 1692DOPE   GL219849  22.879  14.365  12.875  0.2120 -0.0356  0.0962
 1692DOPE   C1A19850  22.686  14.066  12.533 -0.0667 -0.0079  0.0006
 1692DOPE   D2A19851  22.658  14.206  12.100 -0.4037 -0.1228  0.1933
 1692DOPE   C3A19852  22.609  14.690  11.941  0.0381 -0.1020 -0.2426
 1692DOPE   C4A19853  22.222  14.941  11.688  0.2543 -0.0201 -0.2681
 1692DOPE   C1B19854  23.109  14.630  12.585  0.1114 -0.1195  0.1158
 1692DOPE   D2B19855  23.480  14.780  12.308  0.0872 -0.1870 -0.1621
 1692DOPE   C3B19856  23.447  14.803  11.835  0.1001  0.0998 -0.0092
 1692DOPE   C4B19857  23.549  14.911  11.402 -0.0229  0.4422  0.0408
 1693DOPE   NH319858  14.719  20.099  12.579 -0.2693  0.0250  0.1568
 1693DOPE   PO419859  14.983  20.267  12.582 -0.2439  0.0600  0.2982
 1693DOPE   GL119860  14.884  20.365  12.229 -0.0336 -0.2111  0.1856
 1693DOPE   GL219861  15.003  20.032  12.147  0.3714  0.0349 -0.0369
 1693DOPE   C1A19862  14.728  20.668  11.954 -0.0157  0.1132 -0.3887
 1693DOPE   D2A19863  14.638  20.917  11.608  0.2092  0.0579 -0.1470
 1693DOPE   C3A19864  14.375  20.767  11.236  0.0782 -0.1551  0.1190
 1693DOPE   C4A19865  14.228  20.439  10.938 -0.0833 -0.0463  0.2025
 1693DOPE   C1B19866  15.084  20.318  11.742  0.0949  0.1216 -0.0809
 1693DOPE   D2B19867  14.722  20.440  11.436  0.0494  0.0827 -0.0785
 1693DOPE   C3B19868  14.785  20.497  10.992 -0.2187  0.1816  0.4691
 1693DOPE   C4B19869  14.947  20.348  10.562  0.3519  0.0726 -0.3098
 1694DOPC   NC319870  13.069  16.298  13.193 -0.0200 -0.0318  0.3864
 1694DOPC   PO419871  13.437  16.398  13.173 -0.0514 -0.1872  0.0454
 1694DOPC   GL119872  13.347  16.278  12.776 -0.0731  0.5316 -0.0151
 1694DOPC   GL219873  13.152  16.533  12.732 -0.1442 -0.1405  0.2229
 1694DOPC   C1A19874  13.615  16.527  12.507 -0.4050  0.0313 -0.1346
 1694DOPC   D2A19875  13.650  16.436  12.058 -0.1220 -0.1660 -0.1832
 1694DOPC   C3A19876  13.234  16.287  11.942 -0.1769  0.0767 -0.1658
 1694DOPC   C4A19877  12.876  16.520  12.093  0.1856  0.0681  0.0372
 1694DOPC   C1B19878  13.216  16.720  12.325  0.1746 -0.2760 -0.2333
 1694DOPC   D2B19879  13.402  16.934  11.945  0.1511 -0.2000  0.0970
 1694DOPC   C3B19880  13.010  17.055  11.690 -0.0569 -0.1904  0.2413
 1694DOPC   C4B19881  12.681  17.224  11.420  0.3134  0.3103  0.3266
 1695DOPC   NC319882  22.466  19.243  12.330  0.1495 -0.0426  0.5691
 1695DOPC   PO419883  22.177  19.255  12.575  0.3248  0.1502  0.0094
 1695DOPC   GL119884  22.040  19.466  12.293 -0.2363 -0.3921 -0.1346
 1695DOPC   GL219885  22.039  19.227  12.083  0.1011 -0.1467 -0.3121
 1695DOPC   C1A19886  22.065  19.835  11.986  0.1467 -0.1930 -0.1698
 1695DOPC   D2A19887  21.951  20.097  11.609 -0.0235 -0.2050 -0.1499
 1695DOPC   C3A19888  22.104  20.212  11.219 -0.1020  0.0376  0.4044
 1695DOPC   C4A19889  21.951  20.322  10.807 -0.0575  0.0902 -0.1655
 1695DOPC   C1B19890  21.775  18.893  11.971 -0.1205  0.1838  0.0388
 1695DOPC   D2B19891  21.863  18.708  11.575 -0.1208  0.1440 -0.1972
 1695DOPC   C3B19892  22.274  18.490  11.411 -0.2063  0.1333  0.1012
 1695DOPC   C4B19893  22.355  18.182  11.068 -0.1509 -0.0436  0.2580
 1696POSM   NC319894  14.449  15.918  13.352  0.2132 -0.2168  0.2053
 1696POSM   PO419895  14.672  15.975  13.002  0.0983  0.3412  0.1484
 1696POSM   AM119896  14.598  15.904  12.684 -0.0066  0.0968 -0.2584
 1696POSM   AM219897  14.773  15.828  12.470 -0.1749 -0.1045  0.2050
 1696POSM   T1A19898  14.421  16.059  12.209  0.4459 -0.0272 -0.2850
 1696POSM   C2A19899  14.225  15.920  11.814  0.0666  0.0309 -0.1286
 1696POSM   C3A19900  14.415  15.618  11.490 -0.0636 -0.3389 -0.0536
 1696POSM   C1B19901  14.553  15.537  12.402  0.0883  0.1545 -0.0895
 1696POSM   D2B19902  14.369  15.101  12.513  0.0533 -0.0390 -0.0251
 1696POSM   C3B19903  14.232  14.745  12.295 -0.1943 -0.1448 -0.1359
 1696POSM   C4B19904  14.164  14.763  11.854  0.0554 -0.1551 -0.0737
 1697POSM   NC319905  10.560  21.415  13.605 -0.1326  0.0103 -0.0618
 1697POSM   PO419906  10.849  21.664  13.694  0.2064 -0.1644 -0.1722
 1697POSM   AM119907  10.830  21.918  13.503 -0.1044  0.1733 -0.2316
 1697POSM   AM219908  10.738  22.202  13.515 -0.1784  0.0618  0.2787
 1697POSM   T1A19909  10.850  22.023  13.010 -0.2689  0.1334  0.1673
 1697POSM   C2A19910  11.043  22.067  12.629  0.1864  0.0481  0.0572
 1697POSM   C3A19911  10.953  22.200  12.210 -0.1131 -0.0366 -0.2121
 1697POSM   C1B19912  10.617  22.508  13.470 -0.0653 -0.2144  0.3102
 1697POSM   D2B19913  10.647  22.921  13.347  0.1213 -0.0746  0.0600
 1697POSM   C3B19914  11.050  23.078  13.425 -0.1227 -0.0690  0.2517
 1697POSM   C4B19915  11.110  23.455  13.620 -0.0773 -0.0077 -0.0375
 1698DOPE   NH319916  14.647  12.991  13.848 -0.1062  0.2348 -0.0103
 1698DOPE   PO419917  14.790  12.795  13.700 -0.2273 -0.0496 -0.2233
 1698DOPE   GL119918  14.780  12.849  13.303 -0.1623 -0.3802  0.2259
 1698DOPE   GL219919  15.024  12.904  13.190 -0.2191 -0.0646 -0.1271
 1698DOPE   C1A19920  14.689  12.626  12.900  0.0675 -0.1091 -0.3264
 1698DOPE   D2A19921  14.814  12.314  12.567 -0.1711  0.1600  0.0809
 1698DOPE   C3A19922  14.938  12.435  12.164 -0.0926  0.0394  0.1290
 1698DOPE   C4A19923  14.728  12.472  11.723  0.1167  0.1892  0.2447
 1698DOPE   C1B19924  14.937  13.022  12.762  0.0264  0.0470  0.2209
 1698DOPE   D2B19925  14.542  12.978  12.526 -0.0898  0.1062  0.0527
 1698DOPE   C3B19926  14.442  12.869  12.114  0.1026  0.0255 -0.1174
 1698DOPE   C4B19927  14.434  13.032  11.689  0.1143 -0.0459  0.0333
 1699DOPE   NH319928  14.298  12.951  13.487  0.2067  0.2737 -0.1716
 1699DOPE   PO419929  14.451  13.178  13.384  0.1439 -0.0126 -0.0829
 1699DOPE   GL119930  14.415  13.169  12.963  0.1467  0.3396  0.0303
 1699DOPE   GL219931  14.289  12.926  12.944 -0.2816 -0.1513 -0.0634
 1699DOPE   C1A19932  14.088  13.360  12.695 -0.2164  0.2796 -0.0203
 1699DOPE   D2A19933  13.767  13.386  12.359 -0.1399 -0.1263  0.0272
 1699DOPE   C3A19934  13.469  13.009  12.416  0.2059 -0.1172 -0.2093
 1699DOPE   C4A19935  13.203  12.662  12.266  0.0980  0.1765  0.2201
 1699DOPE   C1B19936  14.051  12.895  12.467 -0.0413  0.0657  0.2840
 1699DOPE   D2B19937  13.969  12.991  12.042 -0.0207 -0.3765  0.0894
 1699DOPE   C3B19938  13.633  12.677  11.961  0.0640 -0.0903  0.0153
 1699DOPE   C4B19939  13.336  12.424  11.665 -0.0676  0.4798 -0.0565
 1700DOPE   NH319940  16.894  23.198  13.222 -0.2399  0.1272 -0.0912
 1700DOPE   PO419941  16.835  23.429  13.058  0.1180 -0.1658  0.0891
 1700DOPE   GL119942  16.814  23.496  12.586 -0.1616 -0.3080  0.1165
 1700DOPE   GL219943  16.506  23.537  12.477 -0.3262  0.4881 -0.0054
 1700DOPE   C1A19944  17.149  23.307  12.357  0.0000 -0.2008  0.1069
 1700DOPE   D2A19945  17.597  23.339  12.210 -0.3866  0.0567  0.0021
 1700DOPE   C3A19946  17.681  23.261  11.757 -0.0305  0.0576  0.1590
 1700DOPE   C4A19947  17.781  23.017  11.372  0.0621 -0.1736 -0.2936
 1700DOPE   C1B19948  16.707  23.469  12.060 -0.1079 -0.1912 -0.1946
 1700DOPE   D2B19949  17.198  23.485  11.867 -0.1746  0.1758 -0.0016
 1700DOPE   C3B19950  17.243  23.222  11.462  0.1978  0.2117 -0.2213
 1700DOPE   C4B19951  16.989  23.062  11.142 -0.0767 -0.0527  0.0156
 1701DOPC   NC319952  10.723  12.105  14.782  0.0578  0.0548 -0.0303
 1701DOPC   PO419953  10.428  11.850  14.885 -0.2056 -0.2714 -0.2148
 1701DOPC   GL119954  10.483  11.759  14.483 -0.1253  0.1010  0.0311
 1701DOPC   GL219955  10.198  11.889  14.431 -0.0132  0.2836 -0.0854
 1701DOPC   C1A19956  10.530  11.617  13.995  0.0518 -0.1745 -0.3005
 1701DOPC   D2A19957  10.371  11.713  13.583 -0.0820 -0.1770  0.0578
 1701DOPC   C3A19958  10.267  11.727  13.133  0.3734  0.2542 -0.1155
 1701DOPC   C4A19959  10.246  11.696  12.712 -0.4640  0.1326 -0.1589
 1701DOPC   C1B19960  10.294  12.024  14.016 -0.1608  0.1947 -0.2385
 1701DOPC   D2B19961  10.570  12.352  13.851 -0.2362  0.1742  0.1682
 1701DOPC   C3B19962  10.796  12.332  13.457  0.1751 -0.0394 -0.1973
 1701DOPC   C4B19963  10.847  12.013  13.134  0.2717 -0.1452 -0.1257
 1702DOPC   NC319964  11.722  16.736  13.700  0.0293  0.2297 -0.0523
 1702DOPC   PO419965  11.501  16.420  13.790 -0.1476 -0.2231 -0.4730
 1702DOPC   GL119966  11.656  16.384  13.413  0.1891  0.2246 -0.1064
 1702DOPC   GL219967  11.351  16.379  13.266  0.2492  0.1666  0.0956
 1702DOPC   C1A19968  11.671  15.998  13.152 -0.0156  0.0979 -0.1776
 1702DOPC   D2A19969  11.848  15.682  12.850  0.0023  0.0079 -0.0926
 1702DOPC   C3A19970  12.007  15.764  12.457  0.2672 -0.0010  0.1087
 1702DOPC   C4A19971  11.758  15.631  12.110 -0.4073  0.0833  0.0566
 1702DOPC   C1B19972  11.233  16.174  12.852  0.2353  0.1739  0.1810
 1702DOPC   D2B19973  11.015  15.829  12.666 -0.2104 -0.0910 -0.0287
 1702DOPC   C3B19974  11.399  15.505  12.575  0.0465 -0.0550 -0.1004
 1702DOPC   C4B19975  11.386  15.320  12.166 -0.0392  0.1472  0.2935
 1703POSM   NC319976  18.411  12.834  13.237 -0.0726  0.0742 -0.0932
 1703POSM   PO419977  18.787  12.706  13.316  0.0132 -0.3002 -0.1457
 1703POSM   AM119978  18.831  12.639  12.966  0.1375 -0.2914 -0.0009
 1703POSM   AM219979  18.666  12.605  12.733  0.0864 -0.1913 -0.1460
 1703POSM   T1A19980  19.116  12.708  12.600  0.0020 -0.1902 -0.1054
 1703POSM   C2A19981  18.970  12.700  12.147 -0.0280  0.1333  0.1307
 1703POSM   C3A19982  18.597  12.599  11.890  0.0895  0.0693 -0.1208
 1703POSM   C1B19983  18.489  12.612  12.415  0.2318 -0.4233 -0.3083
 1703POSM   D2B19984  18.040  12.689  12.279  0.1996  0.0004  0.0472
 1703POSM   C3B19985  17.737  12.446  12.051  0.1515  0.2615 -0.0984
 1703POSM   C4B19986  17.586  12.350  11.657 -0.0271 -0.1482  0.1324
 1704DOPC   NC319987  14.154  22.027  13.128 -0.1321 -0.0339  0.0504
 1704DOPC   PO419988  13.883  22.330  13.207 -0.1043  0.0259 -0.2301
 1704DOPC   GL119989  13.737  22.251  12.861  0.3108  0.1934 -0.3354
 1704DOPC   GL219990  13.951  22.088  12.681  0.2027  0.0253  0.0146
 1704DOPC   C1A19991  13.563  22.404  12.474  0.3212 -0.4219 -0.4027
 1704DOPC   D2A19992  13.448  22.489  12.054  0.0798  0.2398 -0.0554
 1704DOPC   C3A19993  13.669  22.542  11.643  0.0001 -0.0824  0.0777
 1704DOPC   C4A19994  13.805  22.629  11.175 -0.1795 -0.0098  0.1934
 1704DOPC   C1B19995  14.062  22.390  12.367 -0.0441 -0.1578 -0.0064
 1704DOPC   D2B19996  14.049  22.654  11.987  0.2475  0.1217 -0.0231
 1704DOPC   C3B19997  14.161  22.522  11.534 -0.0295  0.0468  0.0441
 1704DOPC   C4B19998  14.309  22.074  11.346  0.3596  0.1318  0.1410
 1705DOPE   NH319999  19.597  13.795  12.800  0.1214  0.0229  0.1710
 1705DOPE   PO420000  19.348  13.968  12.908  0.0275 -0.1675  0.1384
 1705DOPE   GL120001  19.194  13.969  12.571  0.0517  0.3965 -0.0627
 1705DOPE   GL220002  19.361  14.187  12.419  0.2875  0.3015 -0.0234
 1705DOPE   C1A20003  19.162  13.813  12.132  0.0561  0.1200  0.1700
 1705DOPE   D2A20004  19.127  13.886  11.663  0.2066  0.0089  0.2306
 1705DOPE   C3A20005  18.670  13.924  11.578 -0.2051 -0.2792 -0.0120
 1705DOPE   C4A20006  18.257  14.198  11.431 -0.0332  0.2761 -0.0616
 1705DOPE   C1B20007  19.689  13.912  12.162 -0.4317  0.0027 -0.2019
 1705DOPE   D2B20008  19.776  13.545  12.421  0.0955  0.0437  0.1156
 1705DOPE   C3B20009  19.468  13.234  12.273 -0.0553  0.0470  0.0991
 1705DOPE   C4B20010  19.454  12.866  11.982 -0.0135  0.0039 -0.1603
 1706DOPC   NC320011  12.497  15.974  13.644 -0.1582 -0.3485  0.0395
 1706DOPC   PO420012  12.833  16.098  13.783 -0.0220 -0.1016  0.1360
 1706DOPC   GL120013  12.962  15.915  13.366  0.0364  0.1028 -0.0979
 1706DOPC   GL220014  12.786  15.775  13.278  0.0164 -0.2677  0.0709
 1706DOPC   C1A20015  12.943  15.932  12.842  0.2053  0.2169 -0.1627
 1706DOPC   D2A20016  12.511  15.871  12.600  0.0240 -0.1500  0.4056
 1706DOPC   C3A20017  12.421  15.921  12.122 -0.3515  0.2267 -0.1246
 1706DOPC   C4A20018  12.098  15.841  11.776 -0.3394  0.4060  0.0347
 1706DOPC   C1B20019  12.635  15.550  12.962 -0.1278 -0.1156  0.3890
 1706DOPC   D2B20020  12.675  15.120  12.858 -0.1558  0.2782  0.2325
 1706DOPC   C3B20021  12.984  14.828  12.650 -0.0703  0.1927  0.3723
 1706DOPC   C4B20022  13.398  14.737  12.328 -0.3937 -0.4058 -0.0107
 1707DOPE   NH320023   9.423  18.287  13.808  0.0953  0.0837  0.0544
 1707DOPE   PO420024   9.498  18.573  13.873  0.1500  0.1893  0.0929
 1707DOPE   GL120025   9.603  18.688  13.530  0.0573 -0.0404 -0.1109
 1707DOPE   GL220026   9.774  18.882  13.505 -0.4139  0.0792  0.0368
 1707DOPE   C1A20027   9.430  18.795  13.126  0.4422  0.0279  0.0165
 1707DOPE   D2A20028   9.252  19.167  12.993  0.4436  0.1110  0.1308
 1707DOPE   C3A20029   9.228  19.299  12.523 -0.1378 -0.3235 -0.1782
 1707DOPE   C4A20030   9.016  19.628  12.212 -0.1063  0.0194 -0.2522
 1707DOPE   C1B20031   9.487  19.215  13.436  0.1726 -0.2180 -0.5153
 1707DOPE   D2B20032   9.099  19.497  13.363  0.1916  0.2026  0.0540
 1707DOPE   C3B20033   9.110  19.729  12.924  0.0301  0.1282  0.1758
 1707DOPE   C4B20034   8.845  19.972  12.571  0.1547  0.3951  0.0853
 1708DOPE   NH320035  21.094  15.948  13.604  0.1303 -0.0837  0.3590
 1708DOPE   PO420036  20.996  16.099  13.322  0.0622 -0.2341  0.1376
 1708DOPE   GL120037  21.147  16.078  12.989 -0.2517 -0.0475 -0.3032
 1708DOPE   GL220038  20.989  16.077  12.763  0.2098  0.0750  0.0514
 1708DOPE   C1A20039  21.378  16.196  12.590  0.1250  0.0947  0.4891
 1708DOPE   D2A20040  21.459  16.483  12.285  0.1908 -0.0887 -0.1886
 1708DOPE   C3A20041  21.128  16.833  12.181  0.1607  0.1875  0.2112
 1708DOPE   C4A20042  20.647  16.886  12.144 -0.3380  0.0627 -0.0707
 1708DOPE   C1B20043  21.066  15.904  12.316 -0.5079  0.0262 -0.2767
 1708DOPE   D2B20044  21.037  15.662  11.912 -0.0046  0.0577 -0.0207
 1708DOPE   C3B20045  21.395  15.381  11.783 -0.0664 -0.1268 -0.0437
 1708DOPE   C4B20046  21.796  15.275  11.564  0.2817  0.1834  0.0212
 1709DOPC   NC320047  11.034  14.345  14.394 -0.1068  0.2991  0.0587
 1709DOPC   PO420048  10.869  14.667  14.251  0.1743  0.0007 -0.0554
 1709DOPC   GL120049  10.956  14.728  13.851  0.0247  0.0302 -0.1472
 1709DOPC   GL220050  11.114  14.830  13.723  0.4610 -0.0858 -0.0726
 1709DOPC   C1A20051  10.759  14.578  13.463 -0.0255  0.2218 -0.0292
 1709DOPC   D2A20052  10.993  14.239  13.136 -0.0704 -0.0838 -0.2081
 1709DOPC   C3A20053  10.641  14.393  12.905 -0.0084  0.3680 -0.0761
 1709DOPC   C4A20054  10.453  14.729  12.876  0.2315  0.2253  0.0279
 1709DOPC   C1B20055  11.239  15.148  13.434  0.1689 -0.0904 -0.1915
 1709DOPC   D2B20056  11.699  15.126  13.300  0.0988 -0.1824 -0.2501
 1709DOPC   C3B20057  11.891  15.037  12.904  0.0869 -0.0021  0.0667
 1709DOPC   C4B20058  11.836  15.243  12.474  0.0199 -0.0660  0.1741
 1710DOPC   NC320059  15.379  13.319  13.584 -0.0224 -0.1412  0.1682
 1710DOPC   PO420060  15.372  13.290  13.163  0.2981 -0.1260 -0.0457
 1710DOPC   GL120061  15.359  13.368  12.737 -0.1102 -0.0691 -0.1481
 1710DOPC   GL220062  15.123  13.518  12.772 -0.0402 -0.2195  0.0465
 1710DOPC   C1A20063  15.224  13.173  12.311  0.0016  0.2032  0.1136
 1710DOPC   D2A20064  15.439  12.988  11.983 -0.2836 -0.1646 -0.2490
 1710DOPC   C3A20065  15.372  13.178  11.584  0.1046 -0.2073 -0.0468
 1710DOPC   C4A20066  15.621  13.534  11.386  0.1538 -0.0666 -0.0679
 1710DOPC   C1B20067  14.866  13.545  12.442  0.2045  0.1663  0.0085
 1710DOPC   D2B20068  14.592  13.767  12.129  0.0644 -0.1950 -0.0391
 1710DOPC   C3B20069  14.337  13.604  11.772  0.0639  0.0071  0.2341
 1710DOPC   C4B20070  13.980  13.343  11.610  0.0845 -0.3461  0.0139
 1711DOPC   NC320071  20.641  21.818  12.019 -0.0630 -0.4947 -0.2237
 1711DOPC   PO420072  20.853  21.959  12.325 -0.0560 -0.0983 -0.0001
 1711DOPC   GL120073  20.939  22.213  12.037  0.3170  0.1122 -0.2632
 1711DOPC   GL220074  20.842  22.539  12.061  0.0518  0.0389 -0.1452
 1711DOPC   C1A20075  21.348  22.404  12.052  0.1046  0.0772 -0.0968
 1711DOPC   D2A20076  21.772  22.400  11.905  0.0363 -0.0610 -0.1792
 1711DOPC   C3A20077  21.698  22.647  11.472  0.0542  0.1277  0.3350
 1711DOPC   C4A20078  21.690  22.916  11.115  0.1347 -0.1482 -0.0058
 1711DOPC   C1B20079  21.067  22.508  11.660  0.0711  0.1195  0.1039
 1711DOPC   D2B20080  21.282  22.284  11.289 -0.1343  0.0093  0.0572
 1711DOPC   C3B20081  21.055  22.287  10.885 -0.6208 -0.1793  0.1441
 1711DOPC   C4B20082  21.118  22.509  10.464  0.2886  0.0086 -0.0322
 1712DOPC   NC320083   9.835  12.034  14.768 -0.2794 -0.1464 -0.0213
 1712DOPC   PO420084  10.166  12.283  14.759 -0.1949 -0.3510  0.0695
 1712DOPC   GL120085   9.891  12.421  14.400 -0.1724  0.3523  0.1599
 1712DOPC   GL220086  10.097  12.359  14.270  0.2934 -0.1799 -0.2976
 1712DOPC   C1A20087   9.802  12.712  14.096  0.4346 -0.0474 -0.4233
 1712DOPC   D2A20088   9.878  13.056  13.771 -0.0631 -0.2748 -0.2356
 1712DOPC   C3A20089  10.128  12.948  13.397  0.0762  0.2103 -0.1216
 1712DOPC   C4A20090  10.123  12.541  13.174 -0.2822 -0.1693 -0.0590
 1712DOPC   C1B20091   9.841  12.231  13.904 -0.0307 -0.1524  0.0682
 1712DOPC   D2B20092   9.907  11.976  13.530 -0.1526  0.1023 -0.0241
 1712DOPC   C3B20093   9.940  11.512  13.488  0.2419 -0.0727  0.1033
 1712DOPC   C4B20094  10.027  11.214  13.149  0.1233 -0.0610 -0.1832
 1713DOPC   NC320095  16.705  12.880  12.968 -0.0758 -0.0924 -0.0848
 1713DOPC   PO420096  16.428  12.859  12.737 -0.5527  0.0138  0.1081
 1713DOPC   GL120097  16.181  12.747  12.391  0.0498 -0.4143 -0.2582
 1713DOPC   GL220098  16.435  12.726  12.210  0.0429  0.1828 -0.0571
 1713DOPC   C1A20099  16.059  12.410  12.149 -0.2078  0.1433  0.0872
 1713DOPC   D2A20100  16.009  12.102  11.877  0.3151 -0.0314 -0.0952
 1713DOPC   C3A20101  15.522  12.182  11.814  0.1817 -0.2281 -0.0517
 1713DOPC   C4A20102  15.071  12.072  11.809 -0.0777  0.2522 -0.3302
 1713DOPC   C1B20103  16.507  13.134  12.033 -0.2047  0.0635 -0.2826
 1713DOPC   D2B20104  16.285  13.486  11.965 -0.0691  0.4567  0.0380
 1713DOPC   C3B20105  16.084  13.402  11.565 -0.1203  0.1593  0.0299
 1713DOPC   C4B20106  15.799  13.077  11.343  0.1187  0.1889 -0.1771
 1714DOPE   NH320107  18.723  20.134  12.427 -0.1477  0.0277 -0.1186
 1714DOPE   PO420108  19.034  20.120  12.550 -0.0151  0.0750 -0.0710
 1714DOPE   GL120109  19.096  20.175  12.131 -0.0911  0.0186  0.0740
 1714DOPE   GL220110  19.000  19.941  12.051 -0.1759  0.0698  0.1193
 1714DOPE   C1A20111  19.132  20.562  11.821 -0.2787  0.4268  0.3533
 1714DOPE   D2A20112  19.291  20.826  11.441  0.0285  0.1574  0.0241
 1714DOPE   C3A20113  19.389  20.587  11.024 -0.0189 -0.0071 -0.2114
 1714DOPE   C4A20114  19.283  20.457  10.573  0.1509 -0.0321  0.1765
 1714DOPE   C1B20115  19.180  19.995  11.616  0.0195 -0.1951  0.1790
 1714DOPE   D2B20116  19.315  19.976  11.126 -0.0498 -0.1727  0.1428
 1714DOPE   C3B20117  18.871  19.982  10.935  0.2109  0.1849  0.0742
 1714DOPE   C4B20118  18.441  20.121  10.990 -0.0949  0.0790 -0.1053
 1715DOPE   NH320119  17.900  16.827  12.541  0.1137 -0.3198  0.0512
 1715DOPE   PO420120  18.226  16.890  12.540  0.1995  0.0502 -0.1590
 1715DOPE   GL120121  18.410  16.890  12.111  0.0430  0.3077 -0.2459
 1715DOPE   GL220122  18.479  17.130  12.189 -0.2532  0.0367  0.2137
 1715DOPE   C1A20123  18.462  17.082  11.678  0.2764  0.1456  0.3648
 1715DOPE   D2A20124  18.402  17.114  11.236 -0.0354 -0.0259  0.0883
 1715DOPE   C3A20125  18.065  17.337  11.027  0.0001 -0.1177 -0.1221
 1715DOPE   C4A20126  17.637  17.377  11.075 -0.0207  0.2151 -0.0221
 1715DOPE   C1B20127  18.624  17.554  11.986  0.1067 -0.1574 -0.0108
 1715DOPE   D2B20128  18.437  17.920  11.872  0.1509 -0.0216 -0.0921
 1715DOPE   C3B20129  18.463  18.121  11.417  0.0759  0.2845 -0.0169
 1715DOPE   C4B20130  18.753  18.425  11.300  0.0962 -0.0470 -0.0273
 1716POSM   NC320131  13.431  19.639  13.132  0.1593 -0.6514  0.2513
 1716POSM   PO420132  13.502  19.745  12.756 -0.2957 -0.2530  0.0945
 1716POSM   AM120133  13.414  19.677  12.456  0.1512 -0.0917  0.1730
 1716POSM   AM220134  13.154  19.771  12.312 -0.0313 -0.0347 -0.0649
 1716POSM   T1A20135  13.525  19.541  11.971  0.1240 -0.0124 -0.3167
 1716POSM   C2A20136  13.636  19.237  11.658  0.2865 -0.0602  0.0544
 1716POSM   C3A20137  13.605  18.946  11.265  0.0454 -0.0182  0.0421
 1716POSM   C1B20138  13.154  19.966  12.026  0.2819 -0.4354 -0.2354
 1716POSM   D2B20139  13.072  20.090  11.642  0.0186  0.1851 -0.3085
 1716POSM   C3B20140  12.664  20.265  11.654 -0.1120 -0.0429  0.3895
 1716POSM   C4B20141  12.556  20.753  11.719  0.1834 -0.2588  0.0072
 1717DOPC   NC320142  19.832  14.902  12.532 -0.2946  0.0698  0.2259
 1717DOPC   PO420143  19.578  14.663  12.280 -0.0001 -0.0030 -0.2136
 1717DOPC   GL120144  19.573  14.698  11.888 -0.1335 -0.0266 -0.2242
 1717DOPC   GL220145  19.607  14.348  11.882 -0.2597  0.0662 -0.0864
 1717DOPC   C1A20146  20.065  14.628  11.732 -0.0944  0.0948 -0.1588
 1717DOPC   D2A20147  20.401  14.892  11.501 -0.0422 -0.2918 -0.1563
 1717DOPC   C3A20148  20.753  14.586  11.344 -0.0259 -0.2597 -0.2632
 1717DOPC   C4A20149  21.181  14.438  11.424  0.1774  0.0493  0.0843
 1717DOPC   C1B20150  19.501  14.111  11.541  0.1186  0.0180  0.1639
 1717DOPC   D2B20151  19.408  13.838  11.207  0.0025  0.0172 -0.3183
 1717DOPC   C3B20152  18.964  13.877  11.142 -0.3439  0.1283  0.2075
 1717DOPC   C4B20153  18.498  13.786  11.054 -0.1556  0.2353 -0.1243
 1718POSM   NC320154  16.477  12.002  13.798  0.0830  0.0852 -0.2436
 1718POSM   PO420155  16.515  12.296  13.573 -0.2532 -0.1546 -0.2535
 1718POSM   AM120156  16.299  12.115  13.409 -0.2228 -0.4634  0.3870
 1718POSM   AM220157  16.301  11.910  13.221  0.0552 -0.0447 -0.1556
 1718POSM   T1A20158  15.833  12.044  13.189  0.1451  0.4022 -0.0858
 1718POSM   C2A20159  15.365  11.993  13.297  0.2105 -0.1686  0.1645
 1718POSM   C3A20160  15.124  11.857  12.884  0.3570 -0.1072  0.2537
 1718POSM   C1B20161  16.513  11.901  12.942  0.1045  0.0732  0.1414
 1718POSM   D2B20162  16.598  11.769  12.539 -0.0178 -0.0084  0.0150
 1718POSM   C3B20163  16.403  11.983  12.174  0.0373  0.1403  0.1699
 1718POSM   C4B20164  16.545  12.071  11.766 -0.1278  0.1174 -0.1820
 1719POSM   NC320165   8.500  24.327  14.350  0.0301  0.0215  0.3719
 1719POSM   PO420166   8.575  24.427  13.944 -0.2146  0.2550  0.2420
 1719POSM   AM120167   8.737  24.350  13.730  0.2493 -0.0416  0.5158
 1719POSM   AM220168   8.718  24.467  13.442 -0.1274  0.1420  0.0247
 1719POSM   T1A20169   8.889  23.983  13.474  0.0860 -0.1017 -0.1991
 1719POSM   C2A20170   9.334  23.879  13.291  0.3203 -0.2596 -0.0717
 1719POSM   C3A20171   9.741  23.876  13.054 -0.0168 -0.1932 -0.2306
 1719POSM   C1B20172   8.761  24.543  13.124 -0.0488 -0.2062  0.1029
 1719POSM   D2B20173   9.017  24.669  12.726 -0.1399  0.3880 -0.2665
 1719POSM   C3B20174   9.013  25.035  12.530  0.1615  0.3052  0.1623
 1719POSM   C4B20175   8.969  25.465  12.360  0.1900  0.1562 -0.0012
 1720DOPS   CNO20176  15.249  19.315  12.577  0.1378 -0.0881  0.3969
 1720DOPS   PO420177  15.051  19.038  12.744  0.1011 -0.1883 -0.0881
 1720DOPS   GL120178  15.001  18.950  12.362  0.2366  0.3148 -0.1031
 1720DOPS   GL220179  15.246  18.732  12.312 -0.0069  0.1642 -0.3570
 1720DOPS   C1A20180  14.808  18.746  12.026 -0.2758  0.0022 -0.1745
 1720DOPS   D2A20181  14.992  18.660  11.592  0.1285  0.1113 -0.0569
 1720DOPS   C3A20182  14.944  19.032  11.312 -0.1141 -0.0190  0.2909
 1720DOPS   C4A20183  14.544  19.199  11.103 -0.1731 -0.2014  0.4572
 1720DOPS   C1B20184  15.393  18.687  11.851 -0.2066  0.2003 -0.0931
 1720DOPS   D2B20185  15.422  18.717  11.410 -0.3406 -0.0387 -0.2611
 1720DOPS   C3B20186  15.101  18.600  11.111  0.3423  0.2738  0.0975
 1720DOPS   C4B20187  14.757  18.791  10.856 -0.3534  0.2400  0.2191
 1721DOPC   NC320188  13.255  17.492  13.191  0.1490  0.1958 -0.0106
 1721DOPC   PO420189  12.864  17.369  13.228  0.0892  0.0731  0.0276
 1721DOPC   GL120190  12.710  17.376  12.897 -0.5457  0.4639 -0.1140
 1721DOPC   GL220191  12.754  17.589  12.674  0.0460  0.0551 -0.0062
 1721DOPC   C1A20192  12.389  17.295  12.602 -0.0445 -0.0603 -0.2319
 1721DOPC   D2A20193  12.209  16.936  12.382  0.0655 -0.0978 -0.0952
 1721DOPC   C3A20194  11.960  16.866  12.011 -0.1916 -0.0720  0.2018
 1721DOPC   C4A20195  11.748  17.108  11.651 -0.0653  0.1682 -0.1271
 1721DOPC   C1B20196  12.716  17.518  12.233  0.0344  0.1038 -0.3673
 1721DOPC   D2B20197  12.834  17.516  11.803 -0.1988  0.0917  0.2134
 1721DOPC   C3B20198  13.040  17.909  11.590 -0.0395 -0.2544  0.0693
 1721DOPC   C4B20199  13.158  18.333  11.564  0.1281 -0.4290  0.3521
 1722DOPE   NH320200  14.694  19.381  12.693  0.0732  0.1084  0.0769
 1722DOPE   PO420201  14.685  19.609  12.487 -0.0969 -0.0869 -0.1040
 1722DOPE   GL120202  14.482  19.447  12.194  0.1373 -0.1256 -0.3619
 1722DOPE   GL220203  14.695  19.222  12.190 -0.1550 -0.0383 -0.1750
 1722DOPE   C1A20204  14.408  19.422  11.739  0.2384 -0.0658 -0.1257
 1722DOPE   D2A20205  14.135  19.308  11.367 -0.0541 -0.1857  0.3063
 1722DOPE   C3A20206  14.040  18.944  11.545 -0.0824 -0.0099 -0.2049
 1722DOPE   C4A20207  14.034  18.496  11.426 -0.1136  0.0263 -0.0820
 1722DOPE   C1B20208  14.980  19.159  11.850 -0.0584  0.0406 -0.1482
 1722DOPE   D2B20209  15.008  19.501  11.571 -0.0949 -0.1392  0.3078
 1722DOPE   C3B20210  15.166  19.497  11.100 -0.2233 -0.0054 -0.3511
 1722DOPE   C4B20211  15.024  19.346  10.663  0.4105 -0.1610  0.2587
 1723DOPE   NH320212  18.499  12.307  13.270  0.1759  0.0508  0.2707
 1723DOPE   PO420213  18.268  12.376  13.043 -0.1565 -0.0735 -0.1814
 1723DOPE   GL120214  18.326  12.287  12.648 -0.0590  0.0757  0.0616
 1723DOPE   GL220215  18.307  12.036  12.590  0.1749  0.0605  0.0921
 1723DOPE   C1A20216  18.238  12.223  12.149 -0.0822 -0.1661 -0.4807
 1723DOPE   D2A20217  18.273  12.028  11.743  0.1685 -0.0864 -0.1184
 1723DOPE   C3A20218  18.525  12.303  11.519 -0.3132 -0.3811  0.0770
 1723DOPE   C4A20219  18.784  12.273  11.131  0.1232 -0.0244  0.1911
 1723DOPE   C1B20220  18.120  11.762  12.271  0.3408  0.0832  0.2243
 1723DOPE   D2B20221  18.164  11.493  11.955 -0.0545 -0.2261  0.0656
 1723DOPE   C3B20222  17.996  11.571  11.528  0.3467  0.2206  0.0637
 1723DOPE   C4B20223  17.851  12.006  11.340 -0.1560 -0.2621 -0.1720
 1724DOPC   NC320224  17.352  15.133  12.017  0.2014 -0.2188  0.1172
 1724DOPC   PO420225  16.989  15.042  12.200 -0.0809  0.0159  0.0502
 1724DOPC   GL120226  16.936  14.877  11.863 -0.0683  0.0818 -0.5928
 1724DOPC   GL220227  16.701  14.685  11.893 -0.0311  0.1611  0.0829
 1724DOPC   C1A20228  17.176  14.845  11.472 -0.0578  0.4782 -0.3277
 1724DOPC   D2A20229  17.384  14.584  11.174  0.0121 -0.2316  0.1482
 1724DOPC   C3A20230  17.123  14.313  10.902 -0.1151 -0.0807  0.1529
 1724DOPC   C4A20231  16.783  14.074  10.668 -0.3890  0.3435 -0.2027
 1724DOPC   C1B20232  16.424  14.351  11.674 -0.2479 -0.1099  0.0859
 1724DOPC   D2B20233  15.986  14.249  11.648 -0.0708 -0.0520 -0.0534
 1724DOPC   C3B20234  15.891  13.835  11.730 -0.0358 -0.3692  0.2801
 1724DOPC   C4B20235  15.657  13.495  11.909  0.3951  0.2028  0.2148
 1725POSM   NC320236  15.441  18.952  12.982 -0.1157 -0.1057 -0.1054
 1725POSM   PO420237  15.607  18.917  12.586  0.2623 -0.1082  0.3101
 1725POSM   AM120238  15.673  19.073  12.354 -0.1767  0.2234 -0.0620
 1725POSM   AM220239  15.510  19.110  12.119  0.0461  0.0643 -0.3307
 1725POSM   T1A20240  15.951  19.411  12.072  0.0206  0.1339  0.2306
 1725POSM   C2A20241  16.020  19.616  11.695 -0.0749 -0.0695  0.0228
 1725POSM   C3A20242  16.357  19.970  11.643  0.1448  0.1555 -0.0670
 1725POSM   C1B20243  15.544  19.135  11.803 -0.1415  0.0162 -0.1765
 1725POSM   D2B20244  15.458  19.250  11.358  0.2546  0.0789  0.1944
 1725POSM   C3B20245  15.402  19.040  10.948  0.0820 -0.2179 -0.0598
 1725POSM   C4B20246  15.536  18.618  10.738  0.3809 -0.2727  0.0841
 1726POSM   NC320247  12.119  24.226  14.158  0.0881  0.0245 -0.1166
 1726POSM   PO420248  12.365  24.174  13.859  0.0452  0.0621 -0.2290
 1726POSM   AM120249  12.222  24.374  13.640 -0.1827  0.1372 -0.4002
 1726POSM   AM220250  12.321  24.377  13.376 -0.5811 -0.1129  0.2819
 1726POSM   T1A20251  11.803  24.477  13.419  0.3089 -0.1140  0.0177
 1726POSM   C2A20252  11.631  24.599  13.038  0.0153  0.3654 -0.6229
 1726POSM   C3A20253  11.428  24.903  12.716  0.1211 -0.0920 -0.0485
 1726POSM   C1B20254  12.295  24.484  13.030 -0.1259  0.3459  0.0176
 1726POSM   D2B20255  12.335  24.274  12.642 -0.1206 -0.1319 -0.0950
 1726POSM   C3B20256  12.335  24.599  12.252 -0.2033  0.0513  0.0687
 1726POSM   C4B20257  12.006  24.703  11.978 -0.1697 -0.0993 -0.0259
 1727DOPC   NC320258  19.209  22.960  12.701 -0.2282  0.0627  0.0670
 1727DOPC   PO420259  18.841  23.118  12.765 -0.0646 -0.0955 -0.0135
 1727DOPC   GL120260  18.944  23.008  12.321  0.5208 -0.2244  0.1423
 1727DOPC   GL220261  19.093  23.228  12.190  0.1476 -0.0256  0.2151
 1727DOPC   C1A20262  18.667  22.933  11.922 -0.0141  0.0242  0.0846
 1727DOPC   D2A20263  18.471  22.613  11.661 -0.2739 -0.1486 -0.1279
 1727DOPC   C3A20264  18.039  22.454  11.661 -0.2179 -0.1772  0.1597
 1727DOPC   C4A20265  17.653  22.482  11.382  0.1655  0.1741  0.0097
 1727DOPC   C1B20266  19.124  22.914  11.902  0.1943 -0.0056  0.5658
 1727DOPC   D2B20267  19.173  22.887  11.429 -0.1471 -0.0381  0.2719
 1727DOPC   C3B20268  18.770  22.701  11.284 -0.3658  0.1152 -0.2031
 1727DOPC   C4B20269  18.368  22.608  11.104  0.0082  0.0391 -0.2877
 1728DOPS   CNO20270  14.823  18.208  12.789 -0.2756 -0.1464 -0.2235
 1728DOPS   PO420271  15.190  18.080  12.706 -0.1374  0.0805  0.0864
 1728DOPS   GL120272  15.075  18.017  12.394  0.2514  0.0305  0.0060
 1728DOPS   GL220273  14.975  18.221  12.273 -0.0822 -0.1703  0.2863
 1728DOPS   C1A20274  14.846  17.822  12.035  0.3702 -0.1949  0.4864
 1728DOPS   D2A20275  14.639  17.578  11.641  0.2656 -0.1543 -0.3698
 1728DOPS   C3A20276  14.517  17.133  11.486 -0.0133  0.0794 -0.2371
 1728DOPS   C4A20277  14.546  16.764  11.712  0.1054 -0.1081  0.1927
 1728DOPS   C1B20278  15.308  18.095  11.938 -0.0498  0.3404 -0.3121
 1728DOPS   D2B20279  15.402  18.205  11.505  0.0929 -0.0858 -0.0837
 1728DOPS   C3B20280  15.766  18.037  11.226 -0.0119 -0.0978  0.3588
 1728DOPS   C4B20281  15.931  17.727  10.841 -0.0152  0.0001  0.0976
 1729DOPE   NH320282  23.026  19.468  12.922  0.2625  0.0952 -0.0018
 1729DOPE   PO420283  22.972  19.398  12.595 -0.0361  0.2154  0.0387
 1729DOPE   GL120284  23.161  19.197  12.357 -0.2996 -0.4009 -0.0970
 1729DOPE   GL220285  22.961  18.969  12.323 -0.0633  0.0673 -0.0866
 1729DOPE   C1A20286  23.048  19.180  11.884 -0.0434 -0.0043 -0.1086
 1729DOPE   D2A20287  23.168  19.126  11.447 -0.3025 -0.1452  0.0769
 1729DOPE   C3A20288  23.571  19.301  11.309  0.0497  0.0863 -0.1898
 1729DOPE   C4A20289  24.002  19.057  11.371 -0.0775  0.1741  0.3174
 1729DOPE   C1B20290  22.610  18.884  11.960 -0.2412  0.1273  0.1481
 1729DOPE   D2B20291  22.325  19.000  11.625  0.1591 -0.2536  0.0002
 1729DOPE   C3B20292  22.165  19.430  11.602 -0.0458  0.3492  0.0567
 1729DOPE   C4B20293  21.825  19.654  11.361  0.3435  0.2730  0.0651
 1730DOPS   CNO20294  12.167  23.199  13.954 -0.1503  0.1728  0.3740
 1730DOPS   PO420295  12.475  23.018  13.820  0.5457  0.0315  0.1844
 1730DOPS   GL120296  12.339  23.098  13.514 -0.1242 -0.1531 -0.0326
 1730DOPS   GL220297  12.372  23.101  13.182  0.1810 -0.1254 -0.1671
 1730DOPS   C1A20298  12.042  23.444  13.412 -0.0503  0.1395  0.0256
 1730DOPS   D2A20299  11.703  23.620  13.125  0.1952  0.0508 -0.2124
 1730DOPS   C3A20300  11.678  23.338  12.764  0.0952  0.0467 -0.0867
 1730DOPS   C4A20301  11.748  23.288  12.323 -0.2230  0.0434  0.0168
 1730DOPS   C1B20302  12.247  22.851  12.822 -0.0173 -0.0437  0.2386
 1730DOPS   D2B20303  12.272  22.761  12.349 -0.1550 -0.1713  0.0525
 1730DOPS   C3B20304  12.213  23.087  12.028  0.0952  0.3896 -0.1641
 1730DOPS   C4B20305  11.870  23.284  11.854  0.1355 -0.2027 -0.2967
 1731DOPS   CNO20306  13.758  13.244  14.019  0.1178  0.0942  0.0320
 1731DOPS   PO420307  13.996  13.275  13.708 -0.0945 -0.1033  0.1774
 1731DOPS   GL120308  13.912  13.071  13.297 -0.0379  0.2410  0.1316
 1731DOPS   GL220309  14.021  13.348  13.168  0.2782 -0.4067 -0.1157
 1731DOPS   C1A20310  13.798  12.870  12.877 -0.1827  0.0100  0.1370
 1731DOPS   D2A20311  13.709  12.535  12.533  0.0726 -0.0662  0.1356
 1731DOPS   C3A20312  13.981  12.319  12.178  0.0988 -0.0634  0.0688
 1731DOPS   C4A20313  14.143  11.932  12.011 -0.2254 -0.3681 -0.3306
 1731DOPS   C1B20314  13.629  13.479  13.033 -0.2142  0.3087 -0.0752
 1731DOPS   D2B20315  13.325  13.729  13.176 -0.0291 -0.0378 -0.1829
 1731DOPS   C3B20316  12.948  13.539  13.043  0.1729 -0.0346  0.1269
 1731DOPS   C4B20317  12.551  13.656  13.052  0.1225  0.3450 -0.1769
 1732POSM   NC320318  12.939  19.581  12.768 -0.0385 -0.1058  0.0511
 1732POSM   PO420319  13.160  19.231  12.783  0.0129  0.0571  0.3561
 1732POSM   AM120320  13.075  19.216  12.518  0.4805 -0.2654  0.1143
 1732POSM   AM220321  12.885  19.356  12.304 -0.0267 -0.0253 -0.2213
 1732POSM   T1A20322  12.828  18.862  12.254 -0.1850  0.1561 -0.1514
 1732POSM   C2A20323  12.808  18.394  12.177 -0.0672 -0.1733 -0.0509
 1732POSM   C3A20324  12.663  17.958  12.005  0.2849  0.1383  0.0126
 1732POSM   C1B20325  12.883  19.379  11.944 -0.0514 -0.0800 -0.1282
 1732POSM   D2B20326  12.933  19.628  11.553 -0.5310  0.0909  0.1568
 1732POSM   C3B20327  12.702  19.411  11.232  0.0205  0.1246  0.1961
 1732POSM   C4B20328  12.436  19.070  11.054 -0.2985 -0.1606 -0.0590
 1733POSM   NC320329  20.343  18.131  12.231  0.1166 -0.2487  0.2973
 1733POSM   PO420330  20.690  18.185  12.400 -0.2155 -0.0075 -0.0240
 1733POSM   AM120331  20.792  18.135  12.062  0.0166  0.2241 -0.1989
 1733POSM   AM220332  20.705  17.864  11.925  0.0341  0.0324  0.0232
 1733POSM   T1A20333  21.037  18.194  11.637  0.2394  0.0399  0.2426
 1733POSM   C2A20334  21.156  18.056  11.260  0.1828  0.1044  0.1229
 1733POSM   C3A20335  21.538  17.863  11.083 -0.0473 -0.3202 -0.3619
 1733POSM   C1B20336  20.976  17.678  11.760  0.1269  0.0330 -0.0467
 1733POSM   D2B20337  21.155  17.528  11.293 -0.3781 -0.0963 -0.0377
 1733POSM   C3B20338  20.988  17.723  10.912  0.1634 -0.2445  0.3000
 1733POSM   C4B20339  20.805  18.144  10.852 -0.0611  0.0832 -0.3005
 1734DOPC   NC320340  14.005  12.570  14.191 -0.0060  0.0367  0.2798
 1734DOPC   PO420341  14.151  12.883  13.963  0.2227 -0.0746  0.0620
 1734DOPC   GL120342  13.890  12.760  13.673 -0.2643 -0.0837  0.3285
 1734DOPC   GL220343  13.642  12.836  13.576 -0.2334  0.0847  0.0023
 1734DOPC   C1A20344  13.920  12.588  13.241  0.1647  0.0099  0.2558
 1734DOPC   D2A20345  14.179  12.415  12.902  0.3613  0.3147 -0.1834
 1734DOPC   C3A20346  14.357  12.510  12.530  0.0446  0.0129  0.0350
 1734DOPC   C4A20347  14.467  12.313  12.150  0.4121 -0.0507 -0.1179
 1734DOPC   C1B20348  13.446  12.723  13.186  0.0385 -0.0049 -0.1401
 1734DOPC   D2B20349  13.291  12.619  12.750  0.4433  0.1876 -0.0602
 1734DOPC   C3B20350  13.138  12.217  12.594  0.0135 -0.0417  0.2833
 1734DOPC   C4B20351  13.263  11.854  12.325 -0.0289  0.2105  0.0626
 1735POSM   NC320352  14.443  21.330  12.835 -0.2721  0.1031 -0.1648
 1735POSM   PO420353  14.337  21.691  12.840  0.3418 -0.4238 -0.1804
 1735POSM   AM120354  14.088  21.535  12.666  0.3359 -0.1909 -0.0269
 1735POSM   AM220355  13.899  21.317  12.677  0.0601 -0.2315  0.1758
 1735POSM   T1A20356  13.812  21.554  12.201 -0.0787  0.0884 -0.0139
 1735POSM   C2A20357  13.587  21.342  11.800  0.3959  0.1042 -0.0577
 1735POSM   C3A20358  13.438  20.898  11.719  0.0398 -0.1466 -0.0058
 1735POSM   C1B20359  14.044  21.215  12.389  0.2204  0.3903  0.1025
 1735POSM   D2B20360  14.306  21.278  11.999  0.1556  0.1233  0.2063
 1735POSM   C3B20361  14.360  21.331  11.512  0.0074  0.0064  0.2606
 1735POSM   C4B20362  14.492  21.412  11.091 -0.1826 -0.6541 -0.1114
 1736DOPC   NC320363  17.298  18.099  12.523 -0.1802 -0.0119 -0.0843
 1736DOPC   PO420364  17.055  18.414  12.653  0.1019  0.1747 -0.1414
 1736DOPC   GL120365  17.018  18.311  12.245 -0.1731  0.2012  0.3510
 1736DOPC   GL220366  17.109  18.547  12.045 -0.0134 -0.0388  0.2477
 1736DOPC   C1A20367  16.794  18.079  11.932  0.1469 -0.0313  0.0488
 1736DOPC   D2A20368  16.663  18.073  11.482  0.0164 -0.0646  0.0627
 1736DOPC   C3A20369  16.807  17.734  11.209 -0.0020  0.0406  0.1285
 1736DOPC   C4A20370  17.186  17.457  11.192  0.5241 -0.1663  0.3808
 1736DOPC   C1B20371  17.193  18.266  11.725 -0.1778 -0.1526  0.0471
 1736DOPC   D2B20372  17.106  18.192  11.265  0.0250 -0.2225  0.1388
 1736DOPC   C3B20373  17.502  17.955  11.189 -0.5263 -0.1988  0.1329
 1736DOPC   C4B20374  17.869  17.860  10.879 -0.2810  0.4212  0.0457
 1737POSM   NC320375  21.051  17.769  12.843  0.0989  0.1492 -0.0128
 1737POSM   PO420376  21.171  18.152  12.737 -0.1046 -0.1922  0.0795
 1737POSM   AM120377  21.087  18.008  12.439  0.0523 -0.1157 -0.2305
 1737POSM   AM220378  20.996  17.753  12.368 -0.1268  0.0491  0.0587
 1737POSM   T1A20379  21.331  17.911  12.036 -0.1137 -0.0585  0.1720
 1737POSM   C2A20380  21.651  17.708  11.716  0.2129  0.0518  0.2469
 1737POSM   C3A20381  21.624  17.434  11.378 -0.1672 -0.0830 -0.2652
 1737POSM   C1B20382  20.867  17.493  12.228  0.2139  0.1641  0.1708
 1737POSM   D2B20383  20.631  17.323  11.916 -0.0935 -0.1035  0.0126
 1737POSM   C3B20384  20.261  17.107  11.976 -0.2672  0.3485  0.0041
 1737POSM   C4B20385  19.903  16.887  11.882  0.2333  0.2270 -0.4471
 1738POSM   NC320386  20.079  16.164  12.701  0.0353 -0.1737  0.0453
 1738POSM   PO420387  19.950  15.839  12.480  0.1437  0.4510 -0.2597
 1738POSM   AM120388  19.821  15.999  12.215  0.2988  0.0798 -0.3958
 1738POSM   AM220389  19.891  16.214  12.055  0.0549  0.3161 -0.0653
 1738POSM   T1A20390  19.424  16.120  11.892 -0.1436  0.1008  0.1326
 1738POSM   C2A20391  19.259  16.338  11.495  0.2582  0.2623 -0.1515
 1738POSM   C3A20392  19.322  16.569  11.081 -0.2886 -0.2628 -0.1384
 1738POSM   C1B20393  19.823  16.373  11.757  0.2031 -0.1591 -0.0536
 1738POSM   D2B20394  19.932  16.505  11.385  0.3527 -0.1421  0.3457
 1738POSM   C3B20395  19.690  16.883  11.394 -0.3218 -0.1253 -0.0352
 1738POSM   C4B20396  19.488  17.153  11.722  0.0791  0.0885 -0.1250
 1739DOPC   NC320397  11.840  12.983  15.457 -0.0393 -0.1592  0.0210
 1739DOPC   PO420398  11.821  12.764  15.093  0.1869  0.0822 -0.3710
 1739DOPC   GL120399  12.034  12.703  14.722  0.1982  0.0536 -0.0402
 1739DOPC   GL220400  11.891  12.643  14.473 -0.2316 -0.0433 -0.2637
 1739DOPC   C1A20401  12.256  12.343  14.503  0.4168 -0.0556 -0.2588
 1739DOPC   D2A20402  12.395  12.177  14.073  0.0006 -0.3572 -0.0733
 1739DOPC   C3A20403  12.539  12.304  13.647 -0.1507  0.1281  0.1420
 1739DOPC   C4A20404  12.508  12.704  13.507  0.0615  0.1006  0.2173
 1739DOPC   C1B20405  11.634  12.498  14.101  0.0051 -0.0469 -0.0189
 1739DOPC   D2B20406  11.485  12.228  13.780  0.0427 -0.3650 -0.3174
 1739DOPC   C3B20407  11.439  12.342  13.371  0.0326 -0.1051 -0.5201
 1739DOPC   C4B20408  11.145  12.490  12.976  0.0658  0.0268 -0.3230
 1740DOPE   NH320409  12.391  14.957  13.933 -0.0591  0.2702  0.0807
 1740DOPE   PO420410  12.142  14.802  14.046 -0.1749  0.0806 -0.0668
 1740DOPE   GL120411  11.971  14.781  13.747 -0.0082  0.3045  0.2860
 1740DOPE   GL220412  11.678  14.837  13.864 -0.0107  0.3171 -0.2849
 1740DOPE   C1A20413  12.082  14.805  13.324  0.0029  0.2176  0.1941
 1740DOPE   D2A20414  12.331  14.755  12.923 -0.1840 -0.0019  0.0324
 1740DOPE   C3A20415  12.218  14.898  12.525  0.0991 -0.3764  0.1379
 1740DOPE   C4A20416  12.305  14.964  12.066  0.0365  0.2345  0.1558
 1740DOPE   C1B20417  11.512  14.708  13.478 -0.1675 -0.4232 -0.0811
 1740DOPE   D2B20418  11.444  14.727  13.023 -0.0366  0.0935 -0.0048
 1740DOPE   C3B20419  11.366  14.278  12.836 -0.2109  0.1727 -0.0161
 1740DOPE   C4B20420  11.063  13.927  12.647  0.0236 -0.2038 -0.2103
 1741DOPC   NC320421  11.216  15.728  14.030  0.1286 -0.1223  0.2459
 1741DOPC   PO420422  11.551  15.890  13.857 -0.1973  0.1018  0.2845
 1741DOPC   GL120423  11.439  15.797  13.550  0.1452  0.1887 -0.3096
 1741DOPC   GL220424  11.121  15.649  13.503 -0.0869 -0.1928 -0.0846
 1741DOPC   C1A20425  11.455  15.498  13.154 -0.0592 -0.1380  0.0659
 1741DOPC   D2A20426  11.249  15.231  12.985 -0.0462  0.1266  0.0056
 1741DOPC   C3A20427  11.411  14.986  12.604 -0.1311 -0.1552 -0.1610
 1741DOPC   C4A20428  11.777  14.718  12.518  0.1410  0.0019  0.5269
 1741DOPC   C1B20429  10.882  15.962  13.258 -0.2243 -0.0416  0.0282
 1741DOPC   D2B20430  10.484  16.073  13.000 -0.0153  0.0387  0.1689
 1741DOPC   C3B20431  10.485  15.709  12.673 -0.2051 -0.1095  0.1861
 1741DOPC   C4B20432  10.719  15.678  12.228  0.1300  0.1056  0.2526
 1742POSM   NC320433  18.907  18.698  12.582  0.2012  0.0883  0.2165
 1742POSM   PO420434  18.703  18.885  12.272 -0.1846  0.1944 -0.1047
 1742POSM   AM120435  18.675  18.957  11.956  0.2587 -0.4767  0.1227
 1742POSM   AM220436  18.772  18.887  11.718  0.0534  0.1007  0.0689
 1742POSM   T1A20437  18.564  19.255  11.530 -0.2413 -0.3075  0.4126
 1742POSM   C2A20438  18.163  19.298  11.203  0.2631  0.1234 -0.1142
 1742POSM   C3A20439  17.728  19.254  11.010 -0.1132  0.3435  0.0763
 1742POSM   C1B20440  18.962  18.968  11.432 -0.3308  0.2033 -0.1357
 1742POSM   D2B20441  18.836  19.119  10.991 -0.2122 -0.3454 -0.0281
 1742POSM   C3B20442  18.384  19.089  10.857  0.0827  0.0196 -0.2290
 1742POSM   C4B20443  18.039  18.821  10.958 -0.1345 -0.4904 -0.4677
 1743POSM   NC320444   9.926  22.986  14.305 -0.1003 -0.0281  0.1498
 1743POSM   PO420445   9.555  22.807  14.364 -0.2156  0.0576 -0.2066
 1743POSM   AM120446   9.522  22.895  14.044 -0.3096  0.2074 -0.0078
 1743POSM   AM220447   9.699  22.855  13.836 -0.2286 -0.0548 -0.0689
 1743POSM   T1A20448   9.343  23.220  13.757 -0.2209 -0.2366  0.1065
 1743POSM   C2A20449   9.080  23.412  13.443 -0.1083 -0.0869  0.1995
 1743POSM   C3A20450   8.904  23.689  13.097 -0.0977 -0.4067 -0.2679
 1743POSM   C1B20451   9.704  22.919  13.508  0.0245 -0.3078  0.3691
 1743POSM   D2B20452   9.668  22.926  13.013 -0.0966  0.0254 -0.2224
 1743POSM   C3B20453  10.011  23.009  12.687 -0.1801  0.1275  0.1404
 1743POSM   C4B20454  10.314  23.089  12.342  0.3073 -0.0866 -0.0285
 1744POSM   NC320455  15.487  18.275  12.385  0.1043  0.1186 -0.2812
 1744POSM   PO420456  15.765  18.356  12.636  0.1961  0.4047 -0.3444
 1744POSM   AM120457  15.892  18.491  12.330  0.0389  0.0206  0.1428
 1744POSM   AM220458  15.778  18.697  12.169 -0.0612 -0.3862  0.2388
 1744POSM   T1A20459  16.261  18.425  12.027  0.0482 -0.0177 -0.2695
 1744POSM   C2A20460  16.640  18.507  11.812  0.1330  0.1037 -0.3755
 1744POSM   C3A20461  16.882  18.927  11.773 -0.0060 -0.2878 -0.0411
 1744POSM   C1B20462  15.931  18.871  11.906 -0.0861  0.1527  0.0962
 1744POSM   D2B20463  15.901  18.974  11.440  0.0727  0.0240  0.0988
 1744POSM   C3B20464  15.934  18.836  11.078  0.2073 -0.0689  0.0915
 1744POSM   C4B20465  16.311  18.849  10.840 -0.0164 -0.1474 -0.1226
 1745POSM   NC320466  12.253  25.049  14.121  0.0738 -0.1522  0.3976
 1745POSM   PO420467  12.445  25.395  14.003 -0.1607 -0.2964  0.1892
 1745POSM   AM120468  12.483  25.178  13.753  0.1346 -0.1980 -0.1158
 1745POSM   AM220469  12.565  25.230  13.485 -0.1267 -0.1583  0.2381
 1745POSM   T1A20470  12.172  24.875  13.478  0.2701  0.0638  0.0588
 1745POSM   C2A20471  12.021  24.937  13.071  0.0259  0.2001 -0.2523
 1745POSM   C3A20472  12.004  24.726  12.639  0.4888 -0.0464  0.0774
 1745POSM   C1B20473  12.369  25.255  13.177  0.1735 -0.0560 -0.0433
 1745POSM   D2B20474  12.144  25.348  12.778  0.0497  0.0693  0.0903
 1745POSM   C3B20475  11.759  25.244  12.565  0.0242  0.0615 -0.2408
 1745POSM   C4B20476  11.596  25.222  12.183 -0.0128 -0.2134  0.0361
 1746DOPC   NC320477  23.587  20.675  12.955  0.1809  0.0931 -0.0373
 1746DOPC   PO420478  23.361  20.406  12.755  0.0420  0.1669 -0.1559
 1746DOPC   GL120479  23.634  20.387  12.486  0.0143  0.0381  0.1891
 1746DOPC   GL220480  23.686  20.078  12.545  0.3733  0.1192 -0.1039
 1746DOPC   C1A20481  23.585  20.489  12.034 -0.4119  0.2857  0.1030
 1746DOPC   D2A20482  23.770  20.734  11.690 -0.0502 -0.0074  0.1740
 1746DOPC   C3A20483  24.209  20.868  11.570 -0.3410  0.1633  0.0276
 1746DOPC   C4A20484  24.615  20.709  11.542  0.0605 -0.1111 -0.0194
 1746DOPC   C1B20485  23.423  20.010  12.190 -0.0017  0.3452  0.0559
 1746DOPC   D2B20486  23.345  20.109  11.721  0.0579  0.1253 -0.0024
 1746DOPC   C3B20487  22.931  19.947  11.682 -0.2255 -0.1622 -0.2314
 1746DOPC   C4B20488  22.488  19.814  11.519 -0.1575 -0.2234  0.0895
 1747POSM   NC320489  21.008  21.407  12.518  0.4279 -0.0345 -0.1455
 1747POSM   PO420490  20.625  21.418  12.371 -0.1881  0.4248 -0.0086
 1747POSM   AM120491  20.825  21.449  12.115  0.2623 -0.0720  0.1694
 1747POSM   AM220492  20.894  21.278  11.886 -0.1996  0.0266 -0.0298
 1747POSM   T1A20493  21.067  21.729  11.792  0.0940  0.0508 -0.0301
 1747POSM   C2A20494  21.421  21.998  11.663 -0.0608 -0.1500 -0.2566
 1747POSM   C3A20495  21.717  22.076  11.295 -0.0258  0.1028 -0.2431
 1747POSM   C1B20496  21.068  21.257  11.534  0.2336  0.1023 -0.2966
 1747POSM   D2B20497  21.084  21.143  11.105  0.1856  0.1548 -0.0181
 1747POSM   C3B20498  20.641  20.993  10.954 -0.0557 -0.0348  0.1210
 1747POSM   C4B20499  20.241  20.977  10.725 -0.0203  0.0157  0.0937
 1748DOPS   CNO20500  14.293  14.258  12.890 -0.0103 -0.3929 -0.2955
 1748DOPS   PO420501  14.172  14.181  13.228  0.0662  0.0823  0.0381
 1748DOPS   GL120502  13.759  14.148  13.046  0.3611  0.1225 -0.2154
 1748DOPS   GL220503  13.688  14.314  12.925  0.0199  0.0676 -0.1584
 1748DOPS   C1A20504  13.728  13.880  12.691 -0.0959  0.0387  0.1551
 1748DOPS   D2A20505  13.923  13.861  12.286 -0.1297  0.1559 -0.0057
 1748DOPS   C3A20506  13.720  13.803  11.915 -0.1335 -0.3185 -0.0074
 1748DOPS   C4A20507  13.543  13.692  11.514  0.0229  0.4840  0.0127
 1748DOPS   C1B20508  13.840  14.448  12.557 -0.0009 -0.2170 -0.0337
 1748DOPS   D2B20509  13.858  14.412  12.114  0.1415 -0.0699 -0.0523
 1748DOPS   C3B20510  13.516  14.218  12.015 -0.1372  0.0869 -0.0466
 1748DOPS   C4B20511  13.161  13.945  11.855 -0.0272  0.0521 -0.0183
 1749DOPS   CNO20512   9.785  19.229  14.046 -0.1809  0.0219  0.0806
 1749DOPS   PO420513   9.972  19.557  14.018  0.0984  0.0768  0.1204
 1749DOPS   GL120514   9.702  19.712  13.692  0.0402  0.1291 -0.0442
 1749DOPS   GL220515   9.466  19.579  13.761 -0.0094 -0.0317 -0.2665
 1749DOPS   C1A20516   9.656  19.666  13.233  0.1791 -0.0931  0.0518
 1749DOPS   D2A20517   9.587  19.509  12.765  0.1417 -0.0644  0.1157
 1749DOPS   C3A20518   9.350  19.785  12.527 -0.0429 -0.1512  0.1101
 1749DOPS   C4A20519   9.451  20.148  12.222  0.2534  0.1977  0.0513
 1749DOPS   C1B20520   9.362  19.926  13.493  0.1311 -0.2272 -0.1189
 1749DOPS   D2B20521   9.022  20.069  13.258  0.1840  0.1068 -0.0580
 1749DOPS   C3B20522   9.187  20.502  13.219  0.1376 -0.1160  0.1986
 1749DOPS   C4B20523   9.365  20.828  12.921 -0.2562  0.0810  0.4211
 1750DOPS   CNO20524  14.392  20.170  13.046 -0.0460  0.1163 -0.0719
 1750DOPS   PO420525  14.223  20.227  12.704  0.0335 -0.3048 -0.5403
 1750DOPS   GL120526  14.210  20.389  12.381 -0.2054  0.2871  0.4020
 1750DOPS   GL220527  14.461  20.516  12.395 -0.0546  0.1126 -0.2221
 1750DOPS   C1A20528  14.018  20.194  11.921  0.0541 -0.0011  0.0769
 1750DOPS   D2A20529  13.645  19.985  11.714  0.0958 -0.3315  0.1420
 1750DOPS   C3A20530  13.514  19.655  11.425  0.1532  0.2873 -0.1375
 1750DOPS   C4A20531  13.699  19.394  11.065  0.4355  0.0369  0.2949
 1750DOPS   C1B20532  14.510  20.269  11.962 -0.1816 -0.2138  0.1192
 1750DOPS   D2B20533  14.737  19.858  11.728  0.0425  0.0350 -0.2191
 1750DOPS   C3B20534  14.504  19.696  11.312 -0.2193  0.2530  0.0370
 1750DOPS   C4B20535  14.245  19.634  10.979 -0.2138 -0.0954  0.2007
 1751POSM   NC320536  19.094  14.604  12.402  0.0395 -0.0892 -0.0520
 1751POSM   PO420537  19.016  14.948  12.566 -0.3034  0.1192  0.0122
 1751POSM   AM120538  18.977  15.046  12.261 -0.0270 -0.1787  0.0982
 1751POSM   AM220539  19.114  15.090  12.025  0.0393 -0.3860  0.1544
 1751POSM   T1A20540  18.700  15.118  11.828  0.0369 -0.3102 -0.0516
 1751POSM   C2A20541  18.444  15.113  11.444 -0.4165 -0.1007  0.1477
 1751POSM   C3A20542  18.282  15.071  11.013 -0.0957  0.1278  0.0613
 1751POSM   C1B20543  19.284  15.080  11.761  0.2769  0.1499  0.0312
 1751POSM   D2B20544  19.497  15.025  11.378  0.2485 -0.0556 -0.0898
 1751POSM   C3B20545  19.722  14.632  11.371 -0.0415  0.0408 -0.0451
 1751POSM   C4B20546  19.729  14.245  11.116 -0.0791 -0.2017 -0.1244
 1752DOPE   NH320547  18.068  23.548  12.860  0.1645 -0.1329 -0.0462
 1752DOPE   PO420548  18.210  23.321  12.987  0.0254 -0.0204  0.2810
 1752DOPE   GL120549  18.414  23.404  12.590  0.0066 -0.2056  0.0418
 1752DOPE   GL220550  18.180  23.516  12.398  0.1297 -0.0837  0.2669
 1752DOPE   C1A20551  18.567  23.344  12.124 -0.0256 -0.0657 -0.0971
 1752DOPE   D2A20552  18.799  23.364  11.719  0.0120  0.0840 -0.1844
 1752DOPE   C3A20553  19.283  23.381  11.749  0.0644 -0.2085  0.2993
 1752DOPE   C4A20554  19.573  23.638  11.524  0.4155  0.3913  0.0451
 1752DOPE   C1B20555  18.087  23.193  12.125 -0.0019  0.0547 -0.0008
 1752DOPE   D2B20556  18.115  22.952  11.771  0.0656 -0.0837 -0.1383
 1752DOPE   C3B20557  18.374  23.116  11.494 -0.1130 -0.3076  0.1432
 1752DOPE   C4B20558  18.769  23.210  11.252 -0.0775  0.3190  0.0453
 1753POSM   NC320559  16.780  11.149  13.763  0.4700  0.0826 -0.1247
 1753POSM   PO420560  17.040  11.434  13.708 -0.1788  0.0385 -0.0524
 1753POSM   AM120561  16.931  11.480  13.399 -0.0098 -0.1718  0.0012
 1753POSM   AM220562  16.622  11.500  13.353 -0.2010 -0.0356  0.1069
 1753POSM   T1A20563  16.889  11.550  12.887 -0.2198 -0.1591 -0.1432
 1753POSM   C2A20564  16.931  11.398  12.425  0.2838 -0.2623 -0.1215
 1753POSM   C3A20565  16.754  11.590  12.008  0.4076  0.1817 -0.2115
 1753POSM   C1B20566  16.486  11.240  13.111  0.0300 -0.0342 -0.1485
 1753POSM   D2B20567  16.502  11.212  12.658  0.4418 -0.0337  0.1220
 1753POSM   C3B20568  16.379  11.400  12.258  0.2734  0.3597 -0.2013
 1753POSM   C4B20569  16.088  11.658  12.003 -0.2206  0.0874 -0.2612
 1754DOPS   CNO20570  16.311  17.254  12.500 -0.1701 -0.0201  0.2142
 1754DOPS   PO420571  16.268  17.610  12.487  0.0490 -0.6642  0.3363
 1754DOPS   GL120572  16.046  17.745  12.133 -0.0648 -0.0090  0.0836
 1754DOPS   GL220573  16.273  17.878  11.926  0.0503  0.2241 -0.2690
 1754DOPS   C1A20574  15.771  18.074  11.970 -0.1660  0.0319 -0.0854
 1754DOPS   D2A20575  15.862  18.459  11.664 -0.2034 -0.0745 -0.1234
 1754DOPS   C3A20576  16.185  18.385  11.322  0.0867  0.4881  0.1658
 1754DOPS   C4A20577  16.254  17.891  11.305 -0.1720 -0.2596 -0.1912
 1754DOPS   C1B20578  15.906  17.672  11.699 -0.2355  0.0682  0.1597
 1754DOPS   D2B20579  15.542  17.469  11.464  0.2444  0.2247 -0.1300
 1754DOPS   C3B20580  15.376  17.613  11.098 -0.0048 -0.0898 -0.0222
 1754DOPS   C4B20581  15.171  17.482  10.709 -0.3260  0.1345 -0.0794
 1755POSM   NC320582  20.311  19.038  12.621  0.1421  0.1004  0.0541
 1755POSM   PO420583  20.657  19.020  12.537 -0.0549  0.1080  0.0558
 1755POSM   AM120584  20.568  19.102  12.240 -0.1903 -0.3153 -0.1154
 1755POSM   AM220585  20.645  19.295  12.045 -0.0934  0.1600  0.0294
 1755POSM   T1A20586  20.295  18.963  11.833 -0.0392  0.1064  0.1793
 1755POSM   C2A20587  20.166  18.711  11.492 -0.0034 -0.0382  0.1351
 1755POSM   C3A20588  19.979  18.852  11.070 -0.0190 -0.0329  0.0100
 1755POSM   C1B20589  20.795  19.102  11.802  0.0288 -0.1760 -0.2352
 1755POSM   D2B20590  20.811  18.669  11.627  0.1811 -0.2761 -0.2096
 1755POSM   C3B20591  20.649  18.443  11.233 -0.1093 -0.0348 -0.0364
 1755POSM   C4B20592  20.239  18.472  10.944  0.0788  0.0528 -0.1015
 1756POSM   NC320593  16.996  12.412  13.586 -0.1934 -0.0824 -0.3011
 1756POSM   PO420594  17.187  12.227  13.323 -0.3642  0.0773 -0.0329
 1756POSM   AM120595  17.202  12.260  13.005  0.2327 -0.0421 -0.1687
 1756POSM   AM220596  17.354  12.345  12.787  0.0329 -0.3776  0.1313
 1756POSM   T1A20597  16.837  12.250  12.650 -0.0332 -0.0090 -0.1999
 1756POSM   C2A20598  16.379  12.282  12.602 -0.1076 -0.1946  0.1270
 1756POSM   C3A20599  15.887  12.368  12.593 -0.2283 -0.2831  0.0051
 1756POSM   C1B20600  17.383  12.251  12.415  0.3579 -0.1318 -0.1289
 1756POSM   D2B20601  17.186  12.450  11.999 -0.3746  0.0602 -0.3491
 1756POSM   C3B20602  17.284  12.750  11.706  0.2800  0.2287  0.1535
 1756POSM   C4B20603  17.463  12.859  11.259 -0.0941  0.4051 -0.2968
 1757POSM   NC320604  12.451  20.350  13.092  0.1398  0.0136 -0.0028
 1757POSM   PO420605  12.565  19.947  12.961 -0.0109  0.2631 -0.2367
 1757POSM   AM120606  12.586  20.027  12.653  0.0186  0.0849 -0.0862
 1757POSM   AM220607  12.649  19.890  12.423 -0.3111  0.0444  0.1398
 1757POSM   T1A20608  12.366  20.324  12.393 -0.0808 -0.0956  0.2464
 1757POSM   C2A20609  12.253  20.693  12.089  0.1867  0.5083 -0.1722
 1757POSM   C3A20610  12.164  21.164  12.039  0.1681 -0.0201  0.0115
 1757POSM   C1B20611  12.616  19.821  12.127  0.0808  0.1889  0.4686
 1757POSM   D2B20612  12.474  19.751  11.639 -0.2179  0.0865 -0.4063
 1757POSM   C3B20613  12.012  19.808  11.464 -0.1948  0.1341  0.0471
 1757POSM   C4B20614  11.853  19.916  10.999 -0.1427 -0.3580  0.1706
 1758DOPE   NH320615  22.416  21.712  12.443  0.2683  0.0307 -0.1254
 1758DOPE   PO420616  22.543  21.441  12.455 -0.4941  0.2455  0.0979
 1758DOPE   GL120617  22.764  21.366  12.165 -0.1257 -0.1797 -0.1285
 1758DOPE   GL220618  22.554  21.370  11.975 -0.2588  0.0479  0.1758
 1758DOPE   C1A20619  23.122  21.615  12.004 -0.1487  0.1982 -0.0728
 1758DOPE   D2A20620  23.202  22.099  11.904 -0.1881  0.2841 -0.2165
 1758DOPE   C3A20621  23.252  22.578  11.951  0.1070 -0.0392 -0.1993
 1758DOPE   C4A20622  23.103  22.887  11.569 -0.2225 -0.0993  0.2290
 1758DOPE   C1B20623  22.185  21.528  11.992  0.0276  0.2185  0.3243
 1758DOPE   D2B20624  21.892  21.616  11.670  0.1777  0.2457  0.0452
 1758DOPE   C3B20625  21.919  21.647  11.215  0.0896 -0.1546 -0.1885
 1758DOPE   C4B20626  21.837  21.748  10.804 -0.0069  0.0759  0.0716
 1759DOPE   NH320627  11.737  18.839  13.355 -0.0675 -0.1922  0.0206
 1759DOPE   PO420628  11.933  19.028  13.145  0.1731  0.3585 -0.2536
 1759DOPE   GL120629  11.682  18.814  12.836  0.2208  0.2274  0.1128
 1759DOPE   GL220630  11.434  18.943  12.774  0.3262  0.2198 -0.1429
 1759DOPE   C1A20631  11.685  18.426  12.561 -0.1076  0.0895 -0.1732
 1759DOPE   D2A20632  11.666  18.209  12.167  0.0215  0.0941 -0.0341
 1759DOPE   C3A20633  11.232  18.049  12.028  0.0986 -0.3041 -0.1589
 1759DOPE   C4A20634  10.895  17.928  11.813 -0.0629 -0.4741 -0.0829
 1759DOPE   C1B20635  11.200  18.886  12.335  0.1057 -0.1124 -0.1600
 1759DOPE   D2B20636  11.223  18.565  11.997  0.1437 -0.1048  0.2795
 1759DOPE   C3B20637  11.643  18.698  11.891 -0.0461  0.0292  0.0220
 1759DOPE   C4B20638  11.770  18.840  11.499 -0.0869 -0.1613 -0.0233
 1760DOPS   CNO20639  22.342  14.990  13.288 -0.0543  0.1359  0.0129
 1760DOPS   PO420640  22.634  14.785  13.201  0.4379 -0.0927  0.1539
 1760DOPS   GL120641  22.687  14.816  12.808 -0.0922  0.0985 -0.1187
 1760DOPS   GL220642  22.489  15.018  12.798 -0.1192  0.3097  0.1451
 1760DOPS   C1A20643  22.508  14.563  12.435 -0.2199 -0.1345  0.0273
 1760DOPS   D2A20644  22.147  14.755  12.215  0.0681  0.1853 -0.0174
 1760DOPS   C3A20645  22.228  15.209  12.119 -0.1014 -0.0092 -0.1364
 1760DOPS   C4A20646  22.251  15.484  11.714  0.0373 -0.0608 -0.0809
 1760DOPS   C1B20647  22.864  15.085  12.487  0.1723 -0.2777 -0.0646
 1760DOPS   D2B20648  23.035  14.854  12.152 -0.1926 -0.1636 -0.0886
 1760DOPS   C3B20649  22.978  14.827  11.649 -0.2409 -0.1838  0.1325
 1760DOPS   C4B20650  23.081  14.569  11.345 -0.2945  0.0788  0.0423
 1761DOPS   CNO20651  10.551  17.416  14.292  0.0548 -0.0397  0.0412
 1761DOPS   PO420652  10.404  17.175  14.032  0.1558  0.1248 -0.1253
 1761DOPS   GL120653  10.123  17.062  13.665  0.2920 -0.0598  0.0022
 1761DOPS   GL220654  10.053  16.785  13.680  0.0500  0.1560  0.1441
 1761DOPS   C1A20655  10.110  17.223  13.220 -0.0067  0.3515 -0.1071
 1761DOPS   D2A20656   9.860  17.051  12.866 -0.1793  0.0038 -0.0939
 1761DOPS   C3A20657  10.032  17.141  12.402  0.1968 -0.0097  0.1335
 1761DOPS   C4A20658  10.467  17.002  12.274  0.0264  0.0538 -0.0254
 1761DOPS   C1B20659   9.792  16.729  13.241  0.0229 -0.1003  0.2900
 1761DOPS   D2B20660   9.653  16.485  12.891  0.0262 -0.3428 -0.1865
 1761DOPS   C3B20661   9.798  16.567  12.473  0.1686 -0.0745  0.4417
 1761DOPS   C4B20662  10.135  16.538  12.124 -0.0014  0.1700 -0.4642
 1762DOPE   NH320663  12.864  23.171  13.380 -0.1553 -0.2198 -0.1658
 1762DOPE   PO420664  13.100  23.375  13.430  0.2888  0.2504  0.2468
 1762DOPE   GL120665  13.059  23.138  12.981  0.3421 -0.2585 -0.3702
 1762DOPE   GL220666  13.197  23.347  12.772  0.0492 -0.1284 -0.0692
 1762DOPE   C1A20667  12.682  23.289  12.754 -0.1103  0.1922 -0.0178
 1762DOPE   D2A20668  12.299  23.298  12.540  0.2069  0.0021 -0.0157
 1762DOPE   C3A20669  12.132  23.568  12.177 -0.1279 -0.0268 -0.2232
 1762DOPE   C4A20670  12.283  23.672  11.757 -0.5005  0.0144  0.2697
 1762DOPE   C1B20671  13.020  23.588  12.415  0.2005  0.1560  0.0943
 1762DOPE   D2B20672  13.292  23.814  12.101 -0.1351 -0.3252  0.1376
 1762DOPE   C3B20673  13.129  24.190  11.870 -0.0559  0.2854  0.3057
 1762DOPE   C4B20674  13.337  24.592  11.694 -0.0342  0.0468 -0.1034
 1763DOPC   NC320675  14.884  21.908  13.591 -0.1177  0.0283 -0.0397
 1763DOPC   PO420676  15.112  21.863  13.298 -0.1878 -0.0189 -0.2538
 1763DOPC   GL120677  15.125  21.917  12.919 -0.3978  0.3850  0.2165
 1763DOPC   GL220678  15.134  22.166  12.768  0.2188  0.1012  0.1551
 1763DOPC   C1A20679  15.043  21.669  12.524  0.2337  0.2677 -0.3554
 1763DOPC   D2A20680  14.905  21.453  12.183 -0.3249  0.1560  0.3062
 1763DOPC   C3A20681  14.928  21.315  11.740  0.3635 -0.1023 -0.2566
 1763DOPC   C4A20682  14.880  21.149  11.322  0.4184  0.2016  0.0470
 1763DOPC   C1B20683  15.504  22.454  12.706 -0.0472  0.0516 -0.0957
 1763DOPC   D2B20684  15.812  22.720  12.567 -0.2955 -0.0406 -0.0493
 1763DOPC   C3B20685  16.051  22.699  12.143  0.1163 -0.2474 -0.1014
 1763DOPC   C4B20686  16.195  22.626  11.700 -0.1066  0.1813 -0.1185
 1764DOPE   NH320687  13.259  20.570  13.355  0.1365 -0.2207  0.2487
 1764DOPE   PO420688  13.594  20.646  13.339 -0.2389 -0.1113 -0.1737
 1764DOPE   GL120689  13.432  20.713  12.929  0.2426 -0.1122 -0.2730
 1764DOPE   GL220690  13.221  20.522  12.804 -0.1845  0.0216  0.1779
 1764DOPE   C1A20691  13.380  21.047  12.572  0.2597  0.2055 -0.2504
 1764DOPE   D2A20692  13.289  21.354  12.315  0.1986  0.0425  0.1620
 1764DOPE   C3A20693  12.846  21.339  12.309  0.2884 -0.0968  0.0489
 1764DOPE   C4A20694  12.481  21.596  12.212 -0.0663  0.1450 -0.0056
 1764DOPE   C1B20695  13.288  20.621  12.360 -0.2335  0.0959  0.1396
 1764DOPE   D2B20696  13.480  20.355  12.015 -0.0275  0.0007  0.0675
 1764DOPE   C3B20697  13.526  20.421  11.616  0.0596  0.2097 -0.0380
 1764DOPE   C4B20698  13.903  20.306  11.401  0.0535 -0.0288  0.0413
 1765DOPC   NC320699  10.306  18.212  13.201 -0.0981  0.4070  0.3219
 1765DOPC   PO420700  10.548  18.327  13.447 -0.2701 -0.1150  0.0476
 1765DOPC   GL120701  10.568  17.840  13.401  0.1175 -0.0265 -0.0574
 1765DOPC   GL220702  10.813  17.788  13.165 -0.0760 -0.1095  0.0038
 1765DOPC   C1A20703  10.297  17.668  13.020 -0.0927 -0.1969 -0.1794
 1765DOPC   D2A20704   9.959  17.558  12.750 -0.0978  0.0174  0.1802
 1765DOPC   C3A20705  10.084  17.768  12.341 -0.3272 -0.0923 -0.1213
 1765DOPC   C4A20706  10.056  18.092  11.999  0.3237 -0.1737  0.3383
 1765DOPC   C1B20707  11.035  17.442  13.267  0.0473 -0.1108 -0.1940
 1765DOPC   D2B20708  11.468  17.452  13.142 -0.4496 -0.3145  0.1616
 1765DOPC   C3B20709  11.548  17.275  12.740 -0.1977  0.3565  0.1481
 1765DOPC   C4B20710  11.851  17.353  12.387  0.1442  0.2036  0.1098
 1766DOPE   NH320711  17.385  16.409  12.398 -0.0270  0.0313 -0.0324
 1766DOPE   PO420712  17.695  16.436  12.319  0.0800 -0.3180  0.0291
 1766DOPE   GL120713  17.739  16.511  11.917 -0.0478 -0.0526  0.0243
 1766DOPE   GL220714  17.681  16.305  11.732  0.2983  0.4516 -0.1060
 1766DOPE   C1A20715  18.121  16.669  11.638  0.1708 -0.0807  0.0509
 1766DOPE   D2A20716  18.398  16.486  11.321 -0.0034  0.3045  0.2550
 1766DOPE   C3A20717  18.435  16.679  10.875  0.1511 -0.0356 -0.2068
 1766DOPE   C4A20718  18.111  16.936  10.665 -0.0552  0.1620 -0.3278
 1766DOPE   C1B20719  17.961  16.233  11.337  0.7695 -0.0585 -0.1721
 1766DOPE   D2B20720  17.997  16.212  10.892 -0.1270  0.2876  0.2328
 1766DOPE   C3B20721  17.786  16.510  10.617  0.1028  0.1322  0.2356
 1766DOPE   C4B20722  17.510  16.693  10.305  0.0197 -0.4300  0.1011
 1767DOPE   NH320723  20.964  20.224  12.624  0.1216  0.0324 -0.0377
 1767DOPE   PO420724  21.013  20.510  12.567  0.0804 -0.0877  0.1034
 1767DOPE   GL120725  20.977  20.761  12.277 -0.0768  0.1711 -0.0547
 1767DOPE   GL220726  21.168  20.740  12.071 -0.1339  0.1127  0.2208
 1767DOPE   C1A20727  20.714  20.759  11.837 -0.2899 -0.3201  0.0412
 1767DOPE   D2A20728  20.663  20.970  11.448 -0.3674  0.0268 -0.1442
 1767DOPE   C3A20729  20.587  21.412  11.501  0.3340 -0.1058 -0.0021
 1767DOPE   C4A20730  20.720  21.838  11.515  0.0350  0.1321 -0.0042
 1767DOPE   C1B20731  21.144  20.792  11.643  0.0210  0.0708 -0.0444
 1767DOPE   D2B20732  21.501  20.904  11.349  0.1449 -0.0150  0.1804
 1767DOPE   C3B20733  21.515  21.332  11.273  0.2861  0.1218 -0.0361
 1767DOPE   C4B20734  21.227  21.677  11.347 -0.4223 -0.6021  0.1846
 1768DOPC   NC320735  12.702  10.821  14.898 -0.0689 -0.0121 -0.1648
 1768DOPC   PO420736  12.954  11.120  14.844  0.2901  0.2304  0.0546
 1768DOPC   GL120737  13.085  11.372  14.547  0.1960 -0.0727 -0.2523
 1768DOPC   GL220738  12.925  11.413  14.309 -0.1379 -0.0032  0.0046
 1768DOPC   C1A20739  13.360  11.458  14.111 -0.1088 -0.1217  0.0702
 1768DOPC   D2A20740  13.386  11.446  13.642  0.1799  0.0128 -0.1177
 1768DOPC   C3A20741  13.422  11.767  13.324 -0.1043 -0.1107  0.0349
 1768DOPC   C4A20742  13.255  11.890  12.931  0.0078 -0.3264  0.1846
 1768DOPC   C1B20743  12.908  11.389  13.829  0.1148  0.1805 -0.3524
 1768DOPC   D2B20744  12.954  11.404  13.380 -0.2600 -0.1655 -0.0881
 1768DOPC   C3B20745  13.306  11.278  13.103  0.0470  0.1960 -0.0272
 1768DOPC   C4B20746  13.570  10.986  12.817  0.4167 -0.0786  0.0542
 1769DOPC   NC320747  22.525  16.207  13.143 -0.1226  0.0394 -0.1168
 1769DOPC   PO420748  22.640  15.855  13.009 -0.1816  0.0753 -0.0374
 1769DOPC   GL120749  22.761  16.050  12.650  0.2154  0.0454  0.3065
 1769DOPC   GL220750  22.760  15.840  12.424 -0.0890  0.1365 -0.1423
 1769DOPC   C1A20751  23.026  16.341  12.471 -0.3535 -0.2037  0.0544
 1769DOPC   D2A20752  23.442  16.373  12.257  0.0896 -0.2347 -0.2276
 1769DOPC   C3A20753  23.671  15.985  12.066  0.0972  0.1981  0.2053
 1769DOPC   C4A20754  23.844  15.571  12.038  0.2361 -0.0271 -0.2871
 1769DOPC   C1B20755  22.345  15.932  12.325  0.1930  0.0600 -0.3642
 1769DOPC   D2B20756  22.160  16.282  12.132 -0.1488  0.1339 -0.0255
 1769DOPC   C3B20757  22.272  16.678  12.251  0.2525  0.0314 -0.1701
 1769DOPC   C4B20758  22.442  16.995  12.524  0.1087  0.0103  0.1649
 1770DOPE   NH320759  18.471  15.489  12.362  0.2544 -0.1379  0.2686
 1770DOPE   PO420760  18.197  15.278  12.308 -0.0595 -0.0464  0.1275
 1770DOPE   GL120761  18.215  15.240  11.952 -0.1518 -0.2780  0.1593
 1770DOPE   GL220762  18.355  15.472  11.848 -0.0545 -0.4270 -0.1210
 1770DOPE   C1A20763  17.910  15.233  11.599  0.2707  0.0605  0.3996
 1770DOPE   D2A20764  17.483  15.286  11.484  0.2095  0.0198  0.2891
 1770DOPE   C3A20765  17.261  15.197  11.095 -0.2428  0.1605 -0.0475
 1770DOPE   C4A20766  17.404  15.246  10.622 -0.1537 -0.1508 -0.1963
 1770DOPE   C1B20767  18.629  15.670  11.549 -0.0369  0.2387 -0.1464
 1770DOPE   D2B20768  18.560  15.962  11.185 -0.0480  0.2881  0.1556
 1770DOPE   C3B20769  18.495  15.931  10.769  0.1832  0.0920  0.1604
 1770DOPE   C4B20770  18.528  16.343  10.482  0.1156 -0.2570 -0.0219
 1771DOPE   NH320771  22.671  20.957  12.558 -0.1239  0.2444 -0.1096
 1771DOPE   PO420772  22.667  20.714  12.398 -0.2441  0.0504 -0.2570
 1771DOPE   GL120773  22.464  20.618  12.118 -0.0059  0.0585  0.0877
 1771DOPE   GL220774  22.293  20.433  12.066 -0.1881 -0.1007 -0.1441
 1771DOPE   C1A20775  22.494  20.881  11.724 -0.2213 -0.1613 -0.0985
 1771DOPE   D2A20776  22.637  21.098  11.299 -0.1444 -0.1707 -0.2467
 1771DOPE   C3A20777  22.481  20.975  10.906  0.0217  0.0003  0.0475
 1771DOPE   C4A20778  22.121  20.775  10.649 -0.0935  0.0073 -0.0628
 1771DOPE   C1B20779  22.470  20.334  11.596 -0.1780 -0.1744 -0.2544
 1771DOPE   D2B20780  22.367  20.629  11.274 -0.0792  0.1727 -0.1101
 1771DOPE   C3B20781  21.938  20.760  11.134  0.2055 -0.3839 -0.1096
 1771DOPE   C4B20782  21.657  21.016  10.830 -0.0330 -0.0831  0.1897
 1772DOPS   CNO20783  11.410  17.299  14.202 -0.0042  0.0474 -0.0681
 1772DOPS   PO420784  11.384  17.066  13.906 -0.1347 -0.1308 -0.0222
 1772DOPS   GL120785  11.298  16.855  13.542  0.3819  0.1670  0.1665
 1772DOPS   GL220786  11.099  17.006  13.428 -0.1694 -0.0047  0.2073
 1772DOPS   C1A20787  11.549  16.893  13.209 -0.0731 -0.0005 -0.1745
 1772DOPS   D2A20788  11.854  16.546  13.025  0.0337 -0.0722 -0.0638
 1772DOPS   C3A20789  11.636  16.347  12.703 -0.1054 -0.1046 -0.3925
 1772DOPS   C4A20790  11.521  15.969  12.402 -0.0950 -0.1852  0.0093
 1772DOPS   C1B20791  11.110  17.079  12.996  0.1426 -0.0578 -0.0075
 1772DOPS   D2B20792  11.254  16.713  12.719 -0.1407  0.1555 -0.1240
 1772DOPS   C3B20793  10.996  16.583  12.318 -0.0572 -0.1565 -0.1143
 1772DOPS   C4B20794  10.681  16.413  12.058 -0.0546  0.2410 -0.3151
 1773POSM   NC320795  16.154  22.818  13.094  0.0797  0.3720 -0.0366
 1773POSM   PO420796  16.525  22.822  13.295 -0.0198  0.3680 -0.1436
 1773POSM   AM120797  16.592  22.818  12.982  0.1589  0.1422  0.0839
 1773POSM   AM220798  16.557  23.017  12.795  0.1272  0.0032 -0.3467
 1773POSM   T1A20799  16.392  22.655  12.558 -0.3342 -0.0541  0.1591
 1773POSM   C2A20800  16.204  22.211  12.412 -0.3472  0.0795  0.5076
 1773POSM   C3A20801  15.776  22.191  12.212  0.2706 -0.0352  0.2855
 1773POSM   C1B20802  16.702  23.058  12.492 -0.2435  0.3066 -0.3248
 1773POSM   D2B20803  16.664  22.838  12.087  0.3912  0.0998 -0.0987
 1773POSM   C3B20804  16.374  23.105  11.900 -0.2505 -0.1738 -0.2031
 1773POSM   C4B20805  16.156  23.501  11.794 -0.1967  0.2057  0.0174
 1774DOPC   NC320806  10.397  20.451  14.133  0.1027  0.0036  0.0529
 1774DOPC   PO420807  10.267  20.450  13.770 -0.1908  0.0853 -0.1132
 1774DOPC   GL120808  10.379  20.534  13.431  0.1224 -0.3206  0.2035
 1774DOPC   GL220809  10.330  20.329  13.268  0.6142 -0.1923  0.2380
 1774DOPC   C1A20810  10.421  20.771  13.033 -0.1030  0.2738  0.0247
 1774DOPC   D2A20811  10.550  20.753  12.544  0.0168 -0.1041 -0.1625
 1774DOPC   C3A20812  10.411  20.378  12.299 -0.4481 -0.0278 -0.0093
 1774DOPC   C4A20813  10.559  20.000  12.429 -0.0790  0.1865 -0.3005
 1774DOPC   C1B20814   9.969  20.047  13.074 -0.6448 -0.3833 -0.0663
 1774DOPC   D2B20815   9.556  20.037  12.934  0.0687 -0.1574  0.1157
 1774DOPC   C3B20816   9.409  20.353  12.683  0.0744 -0.3423 -0.1174
 1774DOPC   C4B20817   9.249  20.684  12.422 -0.2351  0.1335  0.0012
 1775DOPC   NC320818  15.095  13.747  13.289 -0.3531  0.0084 -0.1386
 1775DOPC   PO420819  15.171  14.131  13.214  0.3457 -0.2403  0.3440
 1775DOPC   GL120820  15.110  13.951  12.776  0.2164 -0.1463  0.0512
 1775DOPC   GL220821  14.783  13.941  12.803 -0.0050  0.0722 -0.0425
 1775DOPC   C1A20822  14.998  13.990  12.322 -0.1927  0.2258 -0.2275
 1775DOPC   D2A20823  14.894  14.259  11.948 -0.2609 -0.0131 -0.0171
 1775DOPC   C3A20824  15.095  14.347  11.568 -0.0404  0.0610  0.1142
 1775DOPC   C4A20825  15.072  14.481  11.131  0.0202 -0.0611  0.1607
 1775DOPC   C1B20826  14.444  13.702  12.625  0.1529 -0.2117  0.0867
 1775DOPC   D2B20827  14.297  13.368  12.290 -0.3994  0.1160  0.2032
 1775DOPC   C3B20828  14.682  13.288  12.045 -0.1346 -0.1321 -0.1764
 1775DOPC   C4B20829  15.088  13.450  11.888  0.2518 -0.0789  0.3320
 1776DOPS   CNO20830  13.199  11.850  14.508  0.0659  0.0256  0.3234
 1776DOPS   PO420831  12.943  12.074  14.400 -0.2786  0.0988  0.1195
 1776DOPS   GL120832  12.924  11.845  14.110  0.3364  0.1698 -0.0392
 1776DOPS   GL220833  12.668  11.705  14.076 -0.0217  0.1345  0.0882
 1776DOPS   C1A20834  12.994  11.836  13.673 -0.1920 -0.0837  0.0696
 1776DOPS   D2A20835  12.727  11.834  13.277 -0.2976  0.1376 -0.0061
 1776DOPS   C3A20836  12.883  11.596  12.918 -0.0105  0.1878 -0.1372
 1776DOPS   C4A20837  12.833  11.187  12.712 -0.0182  0.4076  0.0637
 1776DOPS   C1B20838  12.474  11.788  13.666 -0.2092  0.1294  0.0247
 1776DOPS   D2B20839  12.300  12.027  13.297  0.2728 -0.2749 -0.1801
 1776DOPS   C3B20840  12.045  11.803  13.007 -0.0870 -0.0246  0.0436
 1776DOPS   C4B20841  11.672  11.727  12.750  0.1742 -0.0857  0.0369
 1777DOPC   NC320842  20.665  23.555  13.001  0.0894  0.0465  0.0036
 1777DOPC   PO420843  20.294  23.553  12.950 -0.0418 -0.1316 -0.2519
 1777DOPC   GL120844  20.385  23.354  12.536 -0.0207  0.0837 -0.1718
 1777DOPC   GL220845  20.628  23.607  12.496  0.3807 -0.3902 -0.1863
 1777DOPC   C1A20846  20.140  23.287  12.160 -0.3119  0.3291  0.0265
 1777DOPC   D2A20847  19.957  23.432  11.779 -0.0472 -0.3278 -0.1693
 1777DOPC   C3A20848  20.054  23.721  11.452  0.3986  0.0306 -0.0701
 1777DOPC   C4A20849  20.083  24.153  11.364 -0.4020 -0.1861  0.0872
 1777DOPC   C1B20850  20.686  24.008  12.300 -0.1317  0.1849 -0.0965
 1777DOPC   D2B20851  20.901  24.174  11.938  0.0140 -0.1242 -0.0332
 1777DOPC   C3B20852  21.122  24.217  11.476  0.0691 -0.3717  0.0511
 1777DOPC   C4B20853  21.469  24.290  11.126  0.3276  0.0567 -0.2653
 1778POSM   NC320854  16.459  15.727  12.891  0.1086  0.1361  0.2084
 1778POSM   PO420855  16.389  15.667  12.504  0.0077  0.0225  0.1710
 1778POSM   AM120856  16.331  15.612  12.180 -0.0430 -0.0627 -0.4130
 1778POSM   AM220857  16.120  15.654  12.010  0.0947 -0.1949 -0.1399
 1778POSM   T1A20858  16.583  15.445  11.775  0.1554 -0.1459 -0.2737
 1778POSM   C2A20859  16.716  15.121  11.472  0.1231 -0.1929 -0.2781
 1778POSM   C3A20860  16.735  14.703  11.251 -0.1644 -0.0574  0.0073
 1778POSM   C1B20861  16.095  15.501  11.716  0.1544 -0.0968  0.1114
 1778POSM   D2B20862  15.838  15.306  11.409 -0.2433 -0.2922 -0.0096
 1778POSM   C3B20863  15.503  14.996  11.362  0.1149  0.4012 -0.1340
 1778POSM   C4B20864  15.012  14.898  11.353 -0.0427  0.3943 -0.0744
 1779DOPC   NC320865  18.441  10.205  13.311 -0.0443 -0.0484 -0.0861
 1779DOPC   PO420866  18.842  10.361  13.406  0.0750  0.1566 -0.0267
 1779DOPC   GL120867  18.913  10.612  13.116  0.1147  0.2384  0.1811
 1779DOPC   GL220868  18.606  10.637  13.013  0.2702  0.1940 -0.0583
 1779DOPC   C1A20869  18.968  10.542  12.694  0.0061  0.2844 -0.0244
 1779DOPC   D2A20870  19.115  10.611  12.272 -0.1288 -0.0397  0.0418
 1779DOPC   C3A20871  19.176  10.257  12.036  0.0339  0.1610  0.1110
 1779DOPC   C4A20872  18.885   9.947  11.950 -0.1597 -0.1067  0.0179
 1779DOPC   C1B20873  18.668  11.067  12.866  0.2516 -0.0730 -0.0456
 1779DOPC   D2B20874  18.946  11.489  12.820 -0.1522  0.1499  0.0262
 1779DOPC   C3B20875  18.849  11.527  12.374 -0.0971  0.1302  0.1549
 1779DOPC   C4B20876  18.881  11.485  11.939 -0.2392  0.1400  0.0868
 1780DOPC   NC320877  20.700  14.739  12.695  0.1367  0.3063  0.0025
 1780DOPC   PO420878  20.941  14.704  13.028  0.0077 -0.4391 -0.3237
 1780DOPC   GL120879  21.265  14.876  12.731 -0.0198 -0.0010 -0.2587
 1780DOPC   GL220880  21.112  15.113  12.671  0.1799 -0.1046 -0.0807
 1780DOPC   C1A20881  21.581  15.015  12.363 -0.2407  0.1370 -0.2373
 1780DOPC   D2A20882  21.735  14.946  11.946  0.1260  0.1213 -0.1433
 1780DOPC   C3A20883  21.753  14.703  11.630 -0.0746 -0.1008  0.0094
 1780DOPC   C4A20884  21.755  14.241  11.622  0.5131 -0.0322  0.1250
 1780DOPC   C1B20885  21.125  14.874  12.281  0.1017  0.1078 -0.1111
 1780DOPC   D2B20886  21.291  14.741  11.887  0.0474  0.1285  0.1818
 1780DOPC   C3B20887  21.225  14.964  11.492 -0.1904  0.3404 -0.1479
 1780DOPC   C4B20888  21.421  15.309  11.239  0.2887  0.1762 -0.0146
 1781DOPE   NH320889  20.139  13.223  13.084 -0.2219 -0.0911  0.0955
 1781DOPE   PO420890  19.944  13.407  12.875  0.0394  0.1662 -0.1601
 1781DOPE   GL120891  20.001  13.159  12.506  0.1613 -0.1814 -0.2756
 1781DOPE   GL220892  20.215  13.291  12.367  0.3814  0.2010 -0.1842
 1781DOPE   C1A20893  20.030  12.788  12.154 -0.1887 -0.3610 -0.1570
 1781DOPE   D2A20894  20.187  12.447  11.884 -0.0499  0.4540 -0.1346
 1781DOPE   C3A20895  20.213  12.425  11.470  0.2477  0.2677  0.1264
 1781DOPE   C4A20896  19.956  12.686  11.206  0.1137  0.1785 -0.0046
 1781DOPE   C1B20897  19.918  13.241  11.978 -0.0026  0.0918  0.2122
 1781DOPE   D2B20898  19.879  12.920  11.683  0.0623 -0.1110  0.1407
 1781DOPE   C3B20899  19.501  12.775  11.472 -0.0250  0.3072  0.0854
 1781DOPE   C4B20900  19.068  12.904  11.637 -0.4190  0.1960  0.0877
 1782POSM   NC320901  20.903  15.377  13.268  0.1323 -0.3950  0.0052
 1782POSM   PO420902  20.708  15.260  12.892 -0.5158  0.3041 -0.1736
 1782POSM   AM120903  20.788  15.373  12.592 -0.2739  0.0838 -0.0086
 1782POSM   AM220904  20.728  15.504  12.383 -0.1710 -0.1475 -0.0276
 1782POSM   T1A20905  21.193  15.394  12.298  0.0365  0.1114 -0.0022
 1782POSM   C2A20906  21.592  15.511  12.259 -0.0947  0.1910 -0.2416
 1782POSM   C3A20907  21.938  15.700  12.019  0.1199 -0.2764 -0.2039
 1782POSM   C1B20908  20.715  15.359  12.086  0.0186 -0.1073  0.0715
 1782POSM   D2B20909  20.286  15.190  11.866  0.3998  0.2301  0.0114
 1782POSM   C3B20910  20.002  15.219  11.524  0.1105 -0.0361  0.0652
 1782POSM   C4B20911  19.624  15.520  11.396 -0.1135  0.0944 -0.2406
 1783POSM   NC320912  11.968  18.347  13.469 -0.2019 -0.2054  0.1043
 1783POSM   PO420913  12.163  18.029  13.340 -0.1767  0.0310  0.0735
 1783POSM   AM120914  12.110  17.986  13.014 -0.1944 -0.0980  0.0307
 1783POSM   AM220915  12.241  17.859  12.813  0.0424 -0.1882  0.1140
 1783POSM   T1A20916  11.710  17.933  12.722 -0.1044  0.0492 -0.2839
 1783POSM   C2A20917  11.484  17.696  12.412 -0.0837  0.0197 -0.2422
 1783POSM   C3A20918  11.652  17.586  11.947 -0.1874  0.1924  0.1634
 1783POSM   C1B20919  12.156  17.735  12.553 -0.0263  0.0389  0.2152
 1783POSM   D2B20920  12.166  17.595  12.090  0.2011 -0.1847  0.4546
 1783POSM   C3B20921  12.341  17.197  11.995 -0.0005  0.2626  0.2135
 1783POSM   C4B20922  12.507  16.790  11.826 -0.0626 -0.0574  0.1609
 1784DOPE   NH320923  11.698  11.635  14.932  0.0605 -0.3069  0.4079
 1784DOPE   PO420924  11.729  11.929  15.040 -0.1475  0.0243 -0.0080
 1784DOPE   GL120925  11.834  12.015  14.686  0.2083 -0.2942 -0.5400
 1784DOPE   GL220926  11.550  11.981  14.574 -0.1029  0.0827  0.0769
 1784DOPE   C1A20927  11.869  11.986  14.183 -0.3373  0.0514  0.2679
 1784DOPE   D2A20928  12.042  12.106  13.771 -0.0101  0.0291  0.1946
 1784DOPE   C3A20929  11.816  11.983  13.428 -0.2221 -0.1498  0.6133
 1784DOPE   C4A20930  11.662  12.151  13.005  0.3586 -0.1596  0.1035
 1784DOPE   C1B20931  11.203  12.212  14.353  0.1546 -0.2584 -0.0228
 1784DOPE   D2B20932  11.063  12.483  13.987  0.0603 -0.2736  0.2135
 1784DOPE   C3B20933  11.218  12.712  13.605 -0.0274  0.0758 -0.1049
 1784DOPE   C4B20934  11.176  13.083  13.318  0.1207 -0.2008 -0.0662
 1785POSM   NC320935  13.817  13.789  13.404 -0.1854  0.1779  0.1654
 1785POSM   PO420936  13.737  13.721  13.815 -0.1352  0.3221  0.1185
 1785POSM   AM120937  13.492  13.570  13.707  0.0627  0.2500  0.2501
 1785POSM   AM220938  13.444  13.313  13.657 -0.1076 -0.1857  0.1362
 1785POSM   T1A20939  13.033  13.619  13.588 -0.0912  0.0220  0.0540
 1785POSM   C2A20940  12.683  13.447  13.798 -0.1744  0.0464  0.1122
 1785POSM   C3A20941  12.504  13.033  13.905 -0.2480  0.1169  0.1562
 1785POSM   C1B20942  13.321  13.172  13.386  0.1445  0.0594  0.1875
 1785POSM   D2B20943  13.140  13.098  12.963  0.3707 -0.3135  0.5812
 1785POSM   C3B20944  13.177  13.410  12.619 -0.1773  0.1584 -0.3433
 1785POSM   C4B20945  13.403  13.667  12.306  0.2989 -0.1852  0.4538
 1786DOPE   NH320946  13.499  23.605  13.637  0.3347  0.2162  0.0846
 1786DOPE   PO420947  13.717  23.520  13.472  0.1590  0.2385  0.3071
 1786DOPE   GL120948  13.626  23.581  13.061  0.0538 -0.2531  0.6304
 1786DOPE   GL220949  13.364  23.669  13.164 -0.1090  0.1370 -0.1483
 1786DOPE   C1A20950  13.899  23.740  12.683 -0.3248 -0.2155 -0.1662
 1786DOPE   D2A20951  13.852  23.947  12.252  0.2953 -0.2409  0.0790
 1786DOPE   C3A20952  14.144  24.033  11.896  0.4897 -0.0612 -0.1512
 1786DOPE   C4A20953  14.432  23.926  11.538 -0.1703  0.1851 -0.4223
 1786DOPE   C1B20954  13.418  23.799  12.716 -0.0638 -0.0665 -0.1621
 1786DOPE   D2B20955  13.460  24.254  12.511  0.0065  0.0922 -0.0394
 1786DOPE   C3B20956  13.574  24.324  12.057 -0.0953 -0.1535  0.0002
 1786DOPE   C4B20957  13.578  24.020  11.732  0.1001  0.0548  0.1882
 1787POSM   NC320958  10.154  19.864  13.581  0.3593  0.1536 -0.0829
 1787POSM   PO420959  10.461  19.664  13.714 -0.1917  0.0327  0.1759
 1787POSM   AM120960  10.416  19.520  13.456  0.5246  0.0289  0.2705
 1787POSM   AM220961  10.539  19.306  13.330  0.0177 -0.2745  0.0748
 1787POSM   T1A20962  10.165  19.431  13.030  0.0188  0.0044 -0.3428
 1787POSM   C2A20963  10.189  19.142  12.706  0.1024  0.0056  0.0081
 1787POSM   C3A20964  10.155  18.994  12.283 -0.1266  0.2944 -0.1191
 1787POSM   C1B20965  10.597  19.155  13.013  0.0693  0.3259  0.2923
 1787POSM   D2B20966  10.655  19.025  12.559 -0.0477  0.0493  0.1579
 1787POSM   C3B20967  10.673  18.825  12.135  0.1477 -0.2489 -0.0398
 1787POSM   C4B20968  10.753  18.458  11.844  0.2679  0.0466  0.0174
 1788DOPS   CNO20969  23.356  16.698  13.962  0.1318 -0.0813  0.1732
 1788DOPS   PO420970  23.413  16.688  13.623  0.3566 -0.0579 -0.0655
 1788DOPS   GL120971  23.463  16.596  13.180 -0.0734 -0.1675 -0.0479
 1788DOPS   GL220972  23.656  16.654  13.042 -0.0764  0.1680 -0.2041
 1788DOPS   C1A20973  23.288  16.670  12.732 -0.1742 -0.0680 -0.1317
 1788DOPS   D2A20974  23.362  16.927  12.320  0.0247  0.1257  0.3724
 1788DOPS   C3A20975  23.492  16.696  11.905 -0.0411  0.0470  0.2870
 1788DOPS   C4A20976  23.380  16.276  11.761  0.1463  0.1076 -0.0814
 1788DOPS   C1B20977  23.827  16.613  12.607 -0.0577 -0.0266 -0.1926
 1788DOPS   D2B20978  23.952  16.373  12.280 -0.0335  0.2200  0.2652
 1788DOPS   C3B20979  24.157  16.182  11.916  0.2919  0.3720  0.2769
 1788DOPS   C4B20980  24.456  16.299  11.587  0.3654  0.1823  0.0217
 1789DOPC   NC320981  16.285  20.260  12.334 -0.1288 -0.2187 -0.1550
 1789DOPC   PO420982  16.650  20.242  12.465  0.0669 -0.1585  0.1245
 1789DOPC   GL120983  16.766  20.477  12.116  0.2006  0.0437  0.0133
 1789DOPC   GL220984  16.695  20.765  12.046  0.1322 -0.2659 -0.2268
 1789DOPC   C1A20985  16.855  20.267  11.654 -0.1058  0.1326 -0.0052
 1789DOPC   D2A20986  16.813  19.868  11.515 -0.4010 -0.2190 -0.4037
 1789DOPC   C3A20987  16.769  19.749  11.025  0.1342 -0.2179  0.2213
 1789DOPC   C4A20988  16.608  19.913  10.614 -0.0061  0.1208 -0.1563
 1789DOPC   C1B20989  16.569  20.685  11.618 -0.1401  0.2625 -0.3219
 1789DOPC   D2B20990  16.747  20.604  11.203  0.0107 -0.0751 -0.2038
 1789DOPC   C3B20991  16.835  20.218  10.910  0.4388  0.1319 -0.1430
 1789DOPC   C4B20992  17.134  19.997  10.657  0.1787  0.0350 -0.1530
 1790DOPS   CNO20993  11.881  23.660  14.022  0.2236 -0.2173 -0.1287
 1790DOPS   PO420994  11.643  23.917  14.084  0.4003  0.1926  0.1158
 1790DOPS   GL120995  11.414  23.833  13.788  0.4637  0.1270 -0.1382
 1790DOPS   GL220996  11.580  23.506  13.669 -0.0193 -0.0777  0.2352
 1790DOPS   C1A20997  11.536  24.011  13.371 -0.2037 -0.1978 -0.2007
 1790DOPS   D2A20998  11.863  24.092  13.101 -0.1744 -0.2175 -0.0879
 1790DOPS   C3A20999  11.806  24.285  12.676  0.2363 -0.0459 -0.2265
 1790DOPS   C4A21000  11.786  24.251  12.168 -0.0317  0.2888  0.0386
 1790DOPS   C1B21001  11.596  23.179  13.334  0.1350 -0.0979 -0.0754
 1790DOPS   D2B21002  11.342  22.960  12.982  0.0254 -0.0523 -0.2809
 1790DOPS   C3B21003  11.362  23.000  12.563 -0.0871 -0.2039  0.2295
 1790DOPS   C4B21004  11.299  23.066  12.134  0.0099 -0.1215 -0.0201
 1791DOPE   NH321005  20.212  21.297  12.592  0.0239  0.2860  0.2309
 1791DOPE   PO421006  19.967  21.545  12.539 -0.1620  0.0864  0.0354
 1791DOPE   GL121007  20.262  21.665  12.201  0.1857 -0.1068 -0.0719
 1791DOPE   GL221008  19.981  21.537  12.052  0.1602 -0.0717  0.1422
 1791DOPE   C1A21009  20.253  21.739  11.685 -0.0286  0.1364  0.1768
 1791DOPE   D2A21010  20.163  22.126  11.418 -0.0519 -0.1320  0.1388
 1791DOPE   C3A21011  20.127  22.195  10.980  0.1403  0.0896  0.2979
 1791DOPE   C4A21012  19.842  21.960  10.684  0.3411 -0.3291 -0.0748
 1791DOPE   C1B21013  19.855  21.430  11.607 -0.3479 -0.3184 -0.0005
 1791DOPE   D2B21014  20.161  21.203  11.245  0.1190 -0.1618 -0.0712
 1791DOPE   C3B21015  19.833  20.906  10.992 -0.3636  0.2268 -0.0831
 1791DOPE   C4B21016  19.680  20.734  10.657 -0.0411  0.2290  0.1044
 1792DOPC   NC321017  12.506  17.094  13.487  0.0844 -0.3517  0.0426
 1792DOPC   PO421018  12.311  16.978  13.835  0.0380 -0.0322  0.0147
 1792DOPC   GL121019  12.186  16.752  13.508  0.0451 -0.4070  0.0131
 1792DOPC   GL221020  12.060  16.913  13.310 -0.1875 -0.2574 -0.4143
 1792DOPC   C1A21021  12.215  16.338  13.333  0.0174  0.2272  0.2244
 1792DOPC   D2A21022  12.540  16.242  12.982 -0.4354  0.3770 -0.0597
 1792DOPC   C3A21023  12.730  16.294  12.590 -0.1373 -0.1662  0.0128
 1792DOPC   C4A21024  12.934  15.984  12.312  0.3891 -0.0079  0.2450
 1792DOPC   C1B21025  11.947  17.017  12.915  0.4640 -0.2511  0.4387
 1792DOPC   D2B21026  11.739  16.804  12.526 -0.0813 -0.0479  0.0313
 1792DOPC   C3B21027  11.529  16.672  12.171 -0.1139  0.0050  0.1122
 1792DOPC   C4B21028  11.635  16.627  11.722 -0.0471 -0.1236  0.2886
 1793DOPS   CNO21029   9.364  11.893  15.402 -0.2062  0.0004 -0.4871
 1793DOPS   PO421030   9.406  11.974  15.063 -0.0591  0.1495  0.0856
 1793DOPS   GL121031   9.443  11.850  14.692 -0.0989  0.2122  0.0079
 1793DOPS   GL221032   9.295  12.074  14.568 -0.0033  0.0174 -0.2751
 1793DOPS   C1A21033   9.511  11.821  14.203 -0.0466 -0.2692  0.0109
 1793DOPS   D2A21034   9.422  11.887  13.724 -0.0685  0.0771 -0.0514
 1793DOPS   C3A21035   9.445  12.286  13.558 -0.2134 -0.0566  0.0021
 1793DOPS   C4A21036   9.711  12.663  13.492  0.2743 -0.0903  0.1675
 1793DOPS   C1B21037   9.362  12.301  14.201  0.0907 -0.2079  0.0189
 1793DOPS   D2B21038   9.383  12.627  13.900 -0.1320 -0.0617  0.2045
 1793DOPS   C3B21039   9.193  12.724  13.449  0.1278  0.2224 -0.1958
 1793DOPS   C4B21040   8.905  12.800  13.101 -0.1345  0.1204 -0.0920
 1794DOPC   NC321041  15.928  11.370  13.818 -0.0750  0.1608 -0.0352
 1794DOPC   PO421042  16.279  11.513  13.736  0.2751  0.1032 -0.1571
 1794DOPC   GL121043  16.130  11.276  13.428  0.0822 -0.0507  0.0312
 1794DOPC   GL221044  16.001  11.520  13.317  0.1114 -0.0561  0.0121
 1794DOPC   C1A21045  16.080  10.901  13.202 -0.0940  0.0281 -0.0250
 1794DOPC   D2A21046  16.155  10.845  12.706 -0.0099 -0.1332 -0.0151
 1794DOPC   C3A21047  16.225  10.820  12.241 -0.0583 -0.3892 -0.1878
 1794DOPC   C4A21048  16.022  10.569  11.832  0.2211 -0.0338 -0.0179
 1794DOPC   C1B21049  16.093  11.573  12.898 -0.0192  0.2197  0.1065
 1794DOPC   D2B21050  16.075  11.803  12.459  0.1388 -0.0047  0.0214
 1794DOPC   C3B21051  15.613  11.818  12.280 -0.0647  0.1593 -0.3411
 1794DOPC   C4B21052  15.172  11.993  12.302 -0.1362 -0.0037 -0.3420
 1795DOPE   NH321053  19.273  21.361  12.785 -0.2869 -0.0142 -0.0546
 1795DOPE   PO421054  19.491  21.356  12.569 -0.0139  0.2435  0.0279
 1795DOPE   GL121055  19.343  21.464  12.181  0.0562 -0.1597  0.1921
 1795DOPE   GL221056  19.175  21.221  12.193 -0.2293  0.0548  0.3600
 1795DOPE   C1A21057  19.414  21.282  11.785 -0.0333  0.1152  0.2909
 1795DOPE   D2A21058  19.474  21.327  11.336  0.2428  0.0837  0.0161
 1795DOPE   C3A21059  19.372  21.364  10.910  0.0059  0.1788  0.0127
 1795DOPE   C4A21060  19.526  21.620  10.571 -0.2051  0.0003 -0.2551
 1795DOPE   C1B21061  18.850  21.521  12.052  0.1393 -0.2669 -0.0083
 1795DOPE   D2B21062  18.828  21.961  12.074  0.0421  0.1287 -0.1701
 1795DOPE   C3B21063  18.733  22.116  11.647 -0.1027  0.1734 -0.2311
 1795DOPE   C4B21064  18.443  22.136  11.363  0.1005 -0.2635 -0.1387
 1796POSM   NC321065  18.243  21.420  12.853 -0.0055  0.0746 -0.0871
 1796POSM   PO421066  17.999  21.527  12.596  0.1073 -0.1166 -0.2444
 1796POSM   AM121067  18.080  21.500  12.281  0.1732  0.1178  0.1207
 1796POSM   AM221068  18.330  21.344  12.125  0.2753 -0.0676 -0.0423
 1796POSM   T1A21069  17.861  21.464  11.806 -0.2971 -0.2920 -0.0664
 1796POSM   C2A21070  17.681  21.293  11.419 -0.1681  0.0475 -0.2099
 1796POSM   C3A21071  17.835  21.258  11.005 -0.0468  0.0087  0.0738
 1796POSM   C1B21072  18.419  21.302  11.802  0.1820 -0.0181 -0.1404
 1796POSM   D2B21073  18.692  21.365  11.425 -0.2359  0.0457 -0.1619
 1796POSM   C3B21074  18.549  21.688  11.119 -0.1166 -0.1165 -0.1723
 1796POSM   C4B21075  18.371  21.991  10.797 -0.2032 -0.0406 -0.1925
 1797DOPE   NH321076  15.281  22.604  13.284  0.0899 -0.2277 -0.0961
 1797DOPE   PO421077  15.035  22.373  13.254 -0.3782  0.0236  0.2529
 1797DOPE   GL121078  15.062  22.590  12.778  0.0572  0.0276 -0.0746
 1797DOPE   GL221079  14.891  22.748  12.558 -0.2293 -0.1218 -0.0287
 1797DOPE   C1A21080  15.112  22.341  12.361 -0.0194  0.1689  0.4017
 1797DOPE   D2A21081  15.106  22.315  11.895 -0.3991  0.3931 -0.0091
 1797DOPE   C3A21082  15.046  21.901  11.622  0.2275 -0.0502  0.3339
 1797DOPE   C4A21083  14.746  21.721  11.323  0.1413 -0.1436 -0.3146
 1797DOPE   C1B21084  14.924  22.803  12.056  0.0746 -0.3269 -0.0878
 1797DOPE   D2B21085  14.550  22.770  11.792  0.1877 -0.2620 -0.0608
 1797DOPE   C3B21086  14.262  23.074  12.017 -0.1758  0.2763  0.0465
 1797DOPE   C4B21087  14.067  23.250  12.372 -0.2333 -0.2154 -0.2008
 1798POSM   NC321088  17.444  20.876  12.543 -0.0664  0.1022 -0.2363
 1798POSM   PO421089  17.473  20.497  12.478  0.1912 -0.1185  0.2153
 1798POSM   AM121090  17.284  20.490  12.232 -0.0092  0.3425 -0.1468
 1798POSM   AM221091  17.215  20.239  12.029  0.1393 -0.0927  0.1998
 1798POSM   T1A21092  17.131  20.705  11.801 -0.1339  0.4652  0.3137
 1798POSM   C2A21093  17.190  20.852  11.400  0.2505 -0.0469  0.0653
 1798POSM   C3A21094  17.634  20.832  11.156 -0.0387  0.4619  0.0363
 1798POSM   C1B21095  17.242  19.946  11.866 -0.0434 -0.1324  0.0879
 1798POSM   D2B21096  17.440  19.660  11.559  0.3190  0.0699  0.0311
 1798POSM   C3B21097  17.814  19.628  11.320  0.1556  0.0580 -0.0384
 1798POSM   C4B21098  18.234  19.644  11.532 -0.0649 -0.0475  0.0829
 1799DOPC   NC321099  16.997  19.867  12.302  0.1043  0.2999  0.0727
 1799DOPC   PO421100  16.926  19.515  12.372  0.0933 -0.0769  0.1856
 1799DOPC   GL121101  16.982  19.586  11.897  0.0954 -0.1917 -0.1933
 1799DOPC   GL221102  17.183  19.440  11.912 -0.2038 -0.0239  0.0140
 1799DOPC   C1A21103  16.903  19.363  11.502 -0.1516  0.0787  0.6200
 1799DOPC   D2A21104  16.995  19.030  11.178 -0.4122 -0.0524 -0.4037
 1799DOPC   C3A21105  16.729  18.609  11.238 -0.1938  0.2189  0.0720
 1799DOPC   C4A21106  16.543  18.249  10.999  0.0355 -0.1189 -0.3355
 1799DOPC   C1B21107  17.396  19.150  11.606  0.3901  0.0704  0.1219
 1799DOPC   D2B21108  17.278  18.719  11.488  0.2445  0.1047  0.1474
 1799DOPC   C3B21109  17.626  18.376  11.418  0.2931  0.0694  0.2074
 1799DOPC   C4B21110  17.976  18.161  11.668 -0.2028  0.1746  0.0903
 1800DOPE   NH321111  18.736  24.448  12.892 -0.2960 -0.2711  0.1549
 1800DOPE   PO421112  18.668  24.097  12.842 -0.0395 -0.2337 -0.0557
 1800DOPE   GL121113  18.600  23.804  12.502 -0.0488  0.1014 -0.0923
 1800DOPE   GL221114  18.828  23.622  12.496 -0.2742  0.0251 -0.1142
 1800DOPE   C1A21115  18.355  23.846  12.103 -0.0217 -0.1930 -0.1644
 1800DOPE   D2A21116  18.331  23.632  11.706  0.1016 -0.3328 -0.0358
 1800DOPE   C3A21117  18.700  23.704  11.382  0.2117 -0.3532 -0.0397
 1800DOPE   C4A21118  19.180  23.824  11.243 -0.2533 -0.0462 -0.1110
 1800DOPE   C1B21119  18.869  23.689  12.083 -0.1732 -0.0273 -0.3457
 1800DOPE   D2B21120  19.091  23.877  11.754  0.0570 -0.1089 -0.2639
 1800DOPE   C3B21121  19.020  24.214  11.425  0.2304 -0.0946 -0.1660
 1800DOPE   C4B21122  18.786  24.611  11.254 -0.2159 -0.0995  0.0082
 1801POSM   NC321123  19.961  10.757  14.324  0.1269 -0.2405 -0.1565
 1801POSM   PO421124  19.999  10.798  13.939 -0.2497  0.2828  0.0937
 1801POSM   AM121125  20.073  10.938  13.632  0.1765  0.2341 -0.2867
 1801POSM   AM221126  20.126  11.192  13.426 -0.1095  0.0256  0.0124
 1801POSM   T1A21127  20.067  10.738  13.190  0.0602  0.1335  0.2979
 1801POSM   C2A21128  20.162  10.870  12.751 -0.0225 -0.0695  0.2405
 1801POSM   C3A21129  20.074  10.556  12.405  0.2638  0.1897 -0.2354
 1801POSM   C1B21130  20.379  11.136  13.216 -0.0439  0.0829 -0.2296
 1801POSM   D2B21131  20.712  11.197  12.884 -0.1966  0.2560  0.0037
 1801POSM   C3B21132  20.476  11.142  12.479  0.0797  0.0805 -0.1076
 1801POSM   C4B21133  20.162  11.018  12.155 -0.1687  0.1406  0.0040
 1802DOPE   NH321134  20.581  22.265  12.656 -0.1944 -0.3632  0.1821
 1802DOPE   PO421135  20.272  22.271  12.734  0.0644 -0.0201 -0.0481
 1802DOPE   GL121136  20.176  22.465  12.493  0.0467 -0.4314 -0.3360
 1802DOPE   GL221137  19.866  22.481  12.216 -0.1130 -0.0489 -0.0365
 1802DOPE   C1A21138  20.367  22.708  12.159 -0.1837 -0.0345  0.1769
 1802DOPE   D2A21139  20.492  22.793  11.790 -0.1624  0.1755 -0.0802
 1802DOPE   C3A21140  20.668  22.830  11.310  0.1101 -0.1313 -0.0588
 1802DOPE   C4A21141  20.532  22.500  11.018 -0.0571  0.0731  0.1611
 1802DOPE   C1B21142  19.737  22.445  11.762  0.3014  0.0999  0.3868
 1802DOPE   D2B21143  19.543  22.495  11.350  0.0637 -0.0158  0.0352
 1802DOPE   C3B21144  19.608  22.242  11.029 -0.1678 -0.0809 -0.0488
 1802DOPE   C4B21145  19.436  22.226  10.627  0.1970  0.3276 -0.0152
 1803DOPE   NH321146  10.988  19.812  13.765 -0.0313  0.3445 -0.0518
 1803DOPE   PO421147  10.881  19.715  13.491  0.0472 -0.3613  0.2102
 1803DOPE   GL121148  10.926  19.602  13.058 -0.0997 -0.1615 -0.2495
 1803DOPE   GL221149  11.131  19.553  13.011 -0.0841 -0.0880  0.1490
 1803DOPE   C1A21150  10.609  19.545  12.743 -0.2792  0.0690  0.0753
 1803DOPE   D2A21151  10.405  19.576  12.319  0.0006  0.5131 -0.0504
 1803DOPE   C3A21152  10.446  19.273  11.981  0.1054  0.0593 -0.1573
 1803DOPE   C4A21153  10.564  18.911  11.648 -0.1803 -0.0068  0.0010
 1803DOPE   C1B21154  11.059  19.260  12.664 -0.1066  0.0463  0.1246
 1803DOPE   D2B21155  10.895  19.253  12.188 -0.2433 -0.2685 -0.1213
 1803DOPE   C3B21156  11.011  19.007  11.797 -0.1180 -0.0455  0.0551
 1803DOPE   C4B21157  10.985  18.694  11.427  0.0628 -0.0465 -0.1161
 1804DOPE   NH321158  17.302  19.233  12.538 -0.1858 -0.0532  0.4561
 1804DOPE   PO421159  17.497  19.439  12.354 -0.2845 -0.1415 -0.0223
 1804DOPE   GL121160  17.590  19.495  12.023 -0.3827  0.1942  0.0151
 1804DOPE   GL221161  17.756  19.786  11.883  0.1072  0.2782 -0.1767
 1804DOPE   C1A21162  17.882  19.284  11.729  0.0298 -0.0681  0.2787
 1804DOPE   D2A21163  18.191  18.961  11.656 -0.0041 -0.1453  0.1323
 1804DOPE   C3A21164  18.097  18.554  11.384  0.1563 -0.1308  0.0999
 1804DOPE   C4A21165  18.157  18.312  11.043 -0.4190 -0.0874 -0.3534
 1804DOPE   C1B21166  17.704  20.082  11.520 -0.0086 -0.0080 -0.0262
 1804DOPE   D2B21167  17.350  20.359  11.491 -0.1198 -0.1238  0.1437
 1804DOPE   C3B21168  17.243  20.021  11.225  0.3539 -0.2558  0.1044
 1804DOPE   C4B21169  17.277  19.554  11.105 -0.0710 -0.2676  0.0410
 1805DOPE   NH321170  14.766   7.847  14.849 -0.1809 -0.2071 -0.0238
 1805DOPE   PO421171  14.470   7.966  14.817 -0.1127 -0.2565 -0.2613
 1805DOPE   GL121172  14.452   7.766  14.438  0.3208 -0.0971  0.2059
 1805DOPE   GL221173  14.699   7.907  14.332 -0.4496  0.0115 -0.2420
 1805DOPE   C1A21174  14.312   7.842  13.979 -0.3395 -0.1420  0.0189
 1805DOPE   D2A21175  14.224   8.017  13.529  0.0053 -0.2670  0.2248
 1805DOPE   C3A21176  14.255   8.260  13.138 -0.0441  0.1791 -0.0888
 1805DOPE   C4A21177  14.548   8.576  12.963  0.1144 -0.0352  0.1360
 1805DOPE   C1B21178  14.839   7.857  13.889 -0.0707  0.2250  0.1944
 1805DOPE   D2B21179  14.950   7.729  13.493  0.0580 -0.2869 -0.1136
 1805DOPE   C3B21180  15.026   7.359  13.334  0.2826 -0.0345 -0.1822
 1805DOPE   C4B21181  15.079   7.021  13.000  0.2089 -0.1088  0.4034
 1806POSM   NC321182  19.083  16.587  12.581  0.0192 -0.0764  0.2301
 1806POSM   PO421183  19.431  16.790  12.643 -0.0289 -0.3014  0.0504
 1806POSM   AM121184  19.281  17.008  12.442  0.1089  0.1227  0.0555
 1806POSM   AM221185  19.089  16.919  12.215 -0.2112 -0.0500 -0.1552
 1806POSM   T1A21186  19.106  17.415  12.141  0.2165 -0.0260 -0.1632
 1806POSM   C2A21187  19.161  17.657  11.725  0.0256 -0.3058 -0.1988
 1806POSM   C3A21188  19.296  17.574  11.287 -0.0029  0.0087 -0.3936
 1806POSM   C1B21189  18.988  16.979  11.852  0.0587  0.3073  0.2782
 1806POSM   D2B21190  19.145  17.028  11.409 -0.0612  0.1657 -0.2016
 1806POSM   C3B21191  18.913  17.338  11.152 -0.0298 -0.3435 -0.2382
 1806POSM   C4B21192  18.507  17.413  10.875  0.0439  0.3417 -0.0123
 1807DOPE   NH321193  19.831  20.133  12.708 -0.0667 -0.0094  0.0116
 1807DOPE   PO421194  20.109  20.204  12.536  0.0552  0.3285 -0.2188
 1807DOPE   GL121195  20.248  20.192  12.122 -0.4177 -0.1349 -0.3133
 1807DOPE   GL221196  20.038  20.408  12.017 -0.2730  0.3022  0.1845
 1807DOPE   C1A21197  20.254  20.048  11.686 -0.1330 -0.1526 -0.2290
 1807DOPE   D2A21198  20.032  20.189  11.258 -0.0269 -0.2028 -0.0696
 1807DOPE   C3A21199  20.175  19.973  10.817  0.1886  0.2221 -0.0695
 1807DOPE   C4A21200  20.545  19.708  10.733  0.0324  0.2122 -0.0272
 1807DOPE   C1B21201  20.234  20.587  11.676 -0.1902  0.0420  0.0095
 1807DOPE   D2B21202  20.257  20.711  11.225 -0.0642  0.1698 -0.1278
 1807DOPE   C3B21203  20.071  20.523  10.877 -0.1393  0.0725  0.0171
 1807DOPE   C4B21204  20.082  20.433  10.433  0.3526 -0.1017 -0.0670
 1808DOPE   NH321205  19.861  22.010  12.879  0.3919 -0.2265  0.1756
 1808DOPE   PO421206  19.782  22.182  12.633 -0.1371  0.0713 -0.3009
 1808DOPE   GL121207  20.003  22.035  12.357 -0.6334  0.1691 -0.3019
 1808DOPE   GL221208  20.301  22.121  12.248  0.2333  0.2116  0.3863
 1808DOPE   C1A21209  19.957  22.024  11.892  0.0360 -0.4078  0.5702
 1808DOPE   D2A21210  19.657  21.938  11.581  0.1152 -0.2467  0.0797
 1808DOPE   C3A21211  19.823  21.791  11.188  0.1017 -0.0486  0.3809
 1808DOPE   C4A21212  19.996  21.489  10.852 -0.0161  0.2037  0.0135
 1808DOPE   C1B21213  20.412  22.297  11.852 -0.0944 -0.2144 -0.1324
 1808DOPE   D2B21214  20.661  22.323  11.473 -0.2038 -0.1837  0.1511
 1808DOPE   C3B21215  20.644  22.058  11.114  0.0643 -0.2576  0.2416
 1808DOPE   C4B21216  20.327  21.692  11.180  0.0414  0.2736 -0.0451
 1809POSM   NC321217  16.015  13.984  13.226 -0.0675  0.0803 -0.1344
 1809POSM   PO421218  16.059  14.093  12.841 -0.0528  0.2821 -0.0439
 1809POSM   AM121219  15.912  13.976  12.577  0.1363 -0.0583  0.2888
 1809POSM   AM221220  16.007  13.956  12.298 -0.4407  0.0059  0.0436
 1809POSM   T1A21221  15.546  13.744  12.308  0.3693 -0.0768 -0.3258
 1809POSM   C2A21222  15.316  13.880  11.901 -0.3292 -0.1290  0.2333
 1809POSM   C3A21223  15.490  14.073  11.453 -0.1058 -0.2627  0.0994
 1809POSM   C1B21224  15.766  14.145  12.121 -0.2092 -0.1032  0.1832
 1809POSM   D2B21225  15.604  14.515  11.837 -0.0395  0.0247  0.0520
 1809POSM   C3B21226  15.902  14.765  11.581 -0.0762 -0.0480  0.0202
 1809POSM   C4B21227  16.233  14.993  11.356 -0.0551  0.4001 -0.1818
 1810DOPC   NC321228  12.665  18.076  12.541  0.0186 -0.0943 -0.1711
 1810DOPC   PO421229  13.040  18.003  12.535 -0.2631  0.1720  0.1107
 1810DOPC   GL121230  13.136  17.729  12.239 -0.1203  0.4727  0.1304
 1810DOPC   GL221231  13.170  17.943  12.058 -0.0518 -0.1830  0.0783
 1810DOPC   C1A21232  13.380  17.557  11.845  0.0658 -0.1638  0.1921
 1810DOPC   D2A21233  13.615  17.380  11.543  0.1518 -0.0931  0.0731
 1810DOPC   C3A21234  13.572  16.933  11.439 -0.0575  0.1455 -0.1186
 1810DOPC   C4A21235  13.348  16.541  11.472  0.4032 -0.0419  0.0562
 1810DOPC   C1B21236  13.591  18.033  11.803  0.2069 -0.3830 -0.0135
 1810DOPC   D2B21237  13.806  17.912  11.414  0.1513 -0.0506  0.1868
 1810DOPC   C3B21238  13.406  17.952  11.180 -0.1017 -0.1583  0.3100
 1810DOPC   C4B21239  12.980  17.966  11.034 -0.3937  0.5926 -0.1816
 1811DOPE   NH321240  11.236  13.682  14.963  0.2617 -0.1655 -0.0916
 1811DOPE   PO421241  11.424  13.893  14.733 -0.0416  0.2109 -0.2090
 1811DOPE   GL121242  11.414  14.045  14.262 -0.3532  0.1844  0.3652
 1811DOPE   GL221243  11.321  13.773  14.147 -0.1097 -0.0823 -0.0726
 1811DOPE   C1A21244  11.411  14.243  13.850  0.0299  0.3393  0.1581
 1811DOPE   D2A21245  11.510  14.205  13.410  0.2939 -0.0886 -0.1714
 1811DOPE   C3A21246  11.820  13.931  13.283  0.0913  0.0851 -0.1386
 1811DOPE   C4A21247  12.016  13.685  12.993 -0.0008  0.0834 -0.1966
 1811DOPE   C1B21248  11.652  13.481  14.190  0.2654 -0.1402 -0.0874
 1811DOPE   D2B21249  11.945  13.095  14.254  0.3504  0.2853 -0.1023
 1811DOPE   C3B21250  11.981  12.745  13.920  0.1744 -0.0346  0.0610
 1811DOPE   C4B21251  11.936  12.509  13.516 -0.0441  0.0585  0.0224
 1812DOPC   NC321252  21.744  22.248  12.495  0.0950 -0.1385  0.1982
 1812DOPC   PO421253  22.098  22.093  12.520 -0.0575  0.2982  0.3122
 1812DOPC   GL121254  22.083  22.000  12.240 -0.2910  0.1002  0.1171
 1812DOPC   GL221255  21.797  21.927  12.110 -0.2227 -0.0149 -0.0473
 1812DOPC   C1A21256  22.129  22.033  11.803  0.0730 -0.0039 -0.2692
 1812DOPC   D2A21257  22.238  22.001  11.335 -0.0815 -0.1265  0.2886
 1812DOPC   C3A21258  22.067  22.191  10.937 -0.1973  0.6402 -0.1162
 1812DOPC   C4A21259  21.798  22.207  10.587  0.0998 -0.2752 -0.0699
 1812DOPC   C1B21260  21.515  21.583  11.998  0.0902  0.0526 -0.2205
 1812DOPC   D2B21261  21.552  21.209  11.765 -0.4018 -0.0607  0.1157
 1812DOPC   C3B21262  21.923  20.978  11.883  0.0374  0.2079  0.4372
 1812DOPC   C4B21263  22.051  20.604  11.703 -0.1417 -0.0041  0.3125
 1813POSM   NC321264  15.083  12.535  14.014 -0.2021 -0.0619  0.0911
 1813POSM   PO421265  15.308  12.660  13.716 -0.1744 -0.0657  0.0751
 1813POSM   AM121266  15.204  12.571  13.457  0.2552 -0.1582  0.2658
 1813POSM   AM221267  15.001  12.361  13.406  0.0033  0.0153  0.0339
 1813POSM   T1A21268  15.279  12.405  12.981  0.0784 -0.1239  0.0015
 1813POSM   C2A21269  15.311  12.450  12.551  0.1010 -0.2419 -0.5061
 1813POSM   C3A21270  15.510  12.544  12.192  0.4753  0.2647  0.0716
 1813POSM   C1B21271  14.835  12.207  13.109  0.0086  0.1984 -0.1552
 1813POSM   D2B21272  14.628  11.882  12.817 -0.0336  0.0469 -0.0953
 1813POSM   C3B21273  14.757  11.791  12.372 -0.1093  0.2334 -0.2033
 1813POSM   C4B21274  14.679  11.831  11.955  0.4318 -0.0758  0.2871
 1814DOPE   NH321275  19.764  18.387  12.627 -0.0986  0.0611 -0.1608
 1814DOPE   PO421276  20.005  18.460  12.428 -0.0287 -0.2829  0.2252
 1814DOPE   GL121277  20.079  18.508  11.981 -0.1581  0.1371 -0.4405
 1814DOPE   GL221278  19.870  18.353  11.770 -0.3269 -0.0180 -0.1348
 1814DOPE   C1A21279  20.417  18.372  11.709 -0.1083  0.0326  0.3115
 1814DOPE   D2A21280  20.628  18.052  11.440 -0.2290 -0.2010 -0.1286
 1814DOPE   C3A21281  20.566  17.740  11.144  0.3660  0.0745  0.3272
 1814DOPE   C4A21282  20.154  17.497  11.109 -0.0076  0.0372 -0.0932
 1814DOPE   C1B21283  20.119  17.947  11.756 -0.1257  0.0840  0.0234
 1814DOPE   D2B21284  20.370  17.591  11.540  0.2258 -0.0644  0.1904
 1814DOPE   C3B21285  20.203  17.182  11.519 -0.2565 -0.1274 -0.2190
 1814DOPE   C4B21286  20.297  16.728  11.546  0.0656 -0.4821  0.2688
 1815DOPE   NH321287  20.089  19.709  12.687 -0.0610 -0.0630 -0.3185
 1815DOPE   PO421288  19.941  19.461  12.550 -0.1691 -0.0262 -0.3835
 1815DOPE   GL121289  19.949  19.648  12.235  0.2523  0.1816  0.0132
 1815DOPE   GL221290  19.922  19.891  12.240 -0.0043  0.0572 -0.1319
 1815DOPE   C1A21291  19.989  19.466  11.778  0.3186  0.2542 -0.0188
 1815DOPE   D2A21292  20.172  19.209  11.410 -0.1081 -0.2779 -0.1342
 1815DOPE   C3A21293  20.207  19.426  11.000  0.0843  0.1369  0.0678
 1815DOPE   C4A21294  20.195  19.460  10.493  0.1957  0.2281 -0.0785
 1815DOPE   C1B21295  19.513  19.837  11.995 -0.1546 -0.0492  0.1510
 1815DOPE   D2B21296  19.484  19.541  11.662 -0.1436 -0.0490  0.2628
 1815DOPE   C3B21297  19.127  19.500  11.285  0.4343 -0.0521 -0.1699
 1815DOPE   C4B21298  19.047  19.539  10.819 -0.2930  0.2076 -0.2154
 1816POSM   NC321299  12.149  12.005  15.277  0.0757  0.0926 -0.0314
 1816POSM   PO421300  12.191  11.625  15.185  0.1266 -0.0060 -0.0452
 1816POSM   AM121301  12.177  11.530  14.859 -0.2857  0.0695 -0.1321
 1816POSM   AM221302  12.389  11.331  14.774 -0.2253  0.2034 -0.0269
 1816POSM   T1A21303  12.247  11.738  14.402 -0.2124 -0.1279  0.2013
 1816POSM   C2A21304  12.217  11.571  13.975  0.3512  0.0937  0.0260
 1816POSM   C3A21305  12.091  11.579  13.480  0.0975  0.2691 -0.0438
 1816POSM   C1B21306  12.429  11.264  14.424 -0.2693  0.0291 -0.1072
 1816POSM   D2B21307  12.377  11.091  13.990  0.1385 -0.1673 -0.0909
 1816POSM   C3B21308  12.431  11.299  13.598  0.1415  0.2021  0.3048
 1816POSM   C4B21309  12.455  11.423  13.160 -0.0783 -0.0192  0.1556
 1817DOPS   CNO21310  18.641  16.219  12.781 -0.0859 -0.0806 -0.4096
 1817DOPS   PO421311  18.554  16.059  12.421 -0.0710  0.1111 -0.3400
 1817DOPS   GL121312  18.479  16.248  12.093 -0.1846 -0.2565 -0.0727
 1817DOPS   GL221313  18.376  16.189  11.828 -0.2419 -0.0247  0.0669
 1817DOPS   C1A21314  18.691  16.572  11.832  0.1418  0.1174  0.1735
 1817DOPS   D2A21315  18.831  16.656  11.390 -0.0464 -0.0885 -0.1449
 1817DOPS   C3A21316  18.870  16.405  11.037 -0.0554  0.2950 -0.1684
 1817DOPS   C4A21317  18.985  15.960  10.986 -0.0497 -0.1250  0.2168
 1817DOPS   C1B21318  18.769  16.167  11.589 -0.0689 -0.2826 -0.4022
 1817DOPS   D2B21319  19.120  15.884  11.516 -0.0618 -0.2153 -0.1461
 1817DOPS   C3B21320  19.137  15.472  11.343 -0.0824 -0.0110 -0.2389
 1817DOPS   C4B21321  19.007  15.057  11.382  0.1577 -0.0420  0.1115
 1818DOPC   NC321322  13.067  23.869  13.526 -0.1222 -0.0237 -0.0329
 1818DOPC   PO421323  12.716  23.970  13.525  0.0052  0.2648 -0.0887
 1818DOPC   GL121324  12.751  24.064  13.208 -0.2266 -0.0503  0.1924
 1818DOPC   GL221325  12.505  24.004  12.980  0.0429  0.2294 -0.0876
 1818DOPC   C1A21326  12.818  24.379  12.871  0.2171  0.1073 -0.3098
 1818DOPC   D2A21327  13.017  24.491  12.409 -0.1401  0.1757 -0.0713
 1818DOPC   C3A21328  13.295  24.766  12.210 -0.0536 -0.1143 -0.2300
 1818DOPC   C4A21329  13.727  24.788  12.115 -0.0540  0.0079 -0.0108
 1818DOPC   C1B21330  12.539  23.794  12.562 -0.1108  0.2865 -0.1003
 1818DOPC   D2B21331  12.608  23.604  12.142 -0.0785 -0.2746  0.1747
 1818DOPC   C3B21332  12.679  23.134  12.175 -0.1358 -0.1038 -0.0522
 1818DOPC   C4B21333  12.794  22.720  12.293  0.0407 -0.3141  0.1477
 1819POSM   NC321334  15.549  17.236  12.841 -0.0366  0.1917 -0.1824
 1819POSM   PO421335  15.450  17.003  12.531 -0.2977 -0.1348 -0.0620
 1819POSM   AM121336  15.482  17.106  12.219  0.0670  0.2845  0.0246
 1819POSM   AM221337  15.341  17.180  11.954  0.0462  0.1127 -0.0668
 1819POSM   T1A21338  15.730  16.935  11.847 -0.2263  0.0114  0.2020
 1819POSM   C2A21339  15.700  17.006  11.399  0.0606 -0.0975 -0.3877
 1819POSM   C3A21340  15.786  17.311  11.010  0.0720 -0.1350  0.0518
 1819POSM   C1B21341  15.170  17.502  11.811  0.1898  0.0361  0.0194
 1819POSM   D2B21342  15.037  17.783  11.504  0.0072  0.1716  0.0481
 1819POSM   C3B21343  14.902  17.430  11.253  0.5416  0.1106 -0.3017
 1819POSM   C4B21344  14.815  17.196  10.894  0.0535  0.1863 -0.2692
 1820DOPE   NH321345  19.961  12.600  13.131  0.1556 -0.1495  0.1689
 1820DOPE   PO421346  19.833  12.841  13.032 -0.1012  0.1654 -0.0481
 1820DOPE   GL121347  20.154  12.884  12.765 -0.1855 -0.2654  0.1214
 1820DOPE   GL221348  20.058  12.634  12.631  0.1339  0.0950 -0.2307
 1820DOPE   C1A21349  20.474  12.905  12.466  0.2285  0.2431  0.1511
 1820DOPE   D2A21350  20.517  12.876  12.014  0.0216 -0.0599  0.1690
 1820DOPE   C3A21351  20.911  13.097  11.783  0.2026  0.2594  0.0596
 1820DOPE   C4A21352  21.297  13.168  11.663  0.2848 -0.2066 -0.1284
 1820DOPE   C1B21353  19.903  12.307  12.288 -0.0971 -0.2211  0.1857
 1820DOPE   D2B21354  19.702  12.424  11.849 -0.0359 -0.2245 -0.1045
 1820DOPE   C3B21355  19.277  12.385  11.736  0.1404 -0.0999 -0.0661
 1820DOPE   C4B21356  18.920  12.098  11.748  0.2682  0.1852  0.0745
 1821DOPS   CNO21357  19.508  12.051  13.722  0.0641  0.2335 -0.2367
 1821DOPS   PO421358  19.701  12.038  13.380 -0.1352  0.1320  0.1757
 1821DOPS   GL121359  19.400  11.888  13.091  0.0072  0.1607  0.0566
 1821DOPS   GL221360  19.361  11.605  13.154  0.1399 -0.1930 -0.0036
 1821DOPS   C1A21361  19.305  12.147  12.714  0.0069  0.2762  0.1791
 1821DOPS   D2A21362  19.557  11.924  12.429  0.0521 -0.1213  0.0534
 1821DOPS   C3A21363  19.512  11.947  11.970 -0.0793  0.1241 -0.0149
 1821DOPS   C4A21364  19.348  11.632  11.640  0.0031  0.1152 -0.1461
 1821DOPS   C1B21365  19.451  11.449  12.714 -0.0320 -0.2045  0.0448
 1821DOPS   D2B21366  19.376  11.496  12.255 -0.3523 -0.3862  0.2147
 1821DOPS   C3B21367  19.079  11.874  12.184 -0.3634 -0.0947  0.0013
 1821DOPS   C4B21368  18.610  11.924  12.103 -0.0558 -0.1695  0.0247
 1822DOPS   CNO21369  15.544  20.147  12.495  0.3355 -0.0087 -0.1119
 1822DOPS   PO421370  15.901  20.007  12.590  0.0616 -0.0049  0.0908
 1822DOPS   GL121371  15.820  20.215  12.189  0.1240 -0.0385 -0.1372
 1822DOPS   GL221372  15.961  20.349  11.909  0.1321 -0.3454  0.1649
 1822DOPS   C1A21373  15.485  20.121  11.939  0.0636 -0.0152 -0.2269
 1822DOPS   D2A21374  15.358  19.928  11.515 -0.1371 -0.0556  0.0149
 1822DOPS   C3A21375  15.679  19.690  11.276 -0.3587  0.3933 -0.1223
 1822DOPS   C4A21376  15.754  19.651  10.794  0.1708 -0.3186  0.0777
 1822DOPS   C1B21377  15.881  20.160  11.503  0.0517 -0.0525  0.0772
 1822DOPS   D2B21378  15.751  20.165  11.033 -0.0019 -0.1836  0.0975
 1822DOPS   C3B21379  15.362  19.944  10.967  0.2129 -0.1524  0.1735
 1822DOPS   C4B21380  14.955  19.820  10.754  0.1542 -0.1303 -0.0069
 1823DOPE   NH321381  21.881  16.119  13.073  0.1995  0.2677  0.2659
 1823DOPE   PO421382  22.143  15.917  13.148  0.2263 -0.1644 -0.2109
 1823DOPE   GL121383  22.323  15.554  12.889 -0.1628  0.1451  0.1293
 1823DOPE   GL221384  22.096  15.426  12.982 -0.1046  0.0976  0.0457
 1823DOPE   C1A21385  22.475  15.433  12.452 -0.0756  0.7391  0.3344
 1823DOPE   D2A21386  22.720  15.291  12.071  0.4664 -0.0662  0.0550
 1823DOPE   C3A21387  22.722  15.634  11.780  0.1144  0.0775  0.3761
 1823DOPE   C4A21388  22.593  15.788  11.348 -0.1085  0.0240 -0.3101
 1823DOPE   C1B21389  21.970  15.606  12.570  0.2088 -0.0039  0.0594
 1823DOPE   D2B21390  21.808  15.994  12.392 -0.1785 -0.1477  0.0068
 1823DOPE   C3B21391  21.514  16.050  12.043 -0.0355 -0.0543 -0.0321
 1823DOPE   C4B21392  21.296  16.094  11.636 -0.1640  0.1157 -0.1422
 1824DOPC   NC321393  15.804  13.267  12.774  0.0231 -0.0929 -0.0567
 1824DOPC   PO421394  16.014  13.598  12.775  0.3845 -0.1899  0.2340
 1824DOPC   GL121395  16.230  13.562  12.385  0.3488 -0.2105  0.0137
 1824DOPC   GL221396  16.270  13.260  12.472  0.1214 -0.0387 -0.2234
 1824DOPC   C1A21397  16.671  13.502  12.310  0.1842  0.1208  0.0362
 1824DOPC   D2A21398  17.063  13.356  12.305 -0.0581 -0.1009  0.3245
 1824DOPC   C3A21399  17.307  13.020  12.160 -0.0869 -0.1577 -0.2260
 1824DOPC   C4A21400  17.723  12.904  11.903  0.5693  0.1690  0.0534
 1824DOPC   C1B21401  15.892  13.075  12.165 -0.2007 -0.0434  0.0227
 1824DOPC   D2B21402  15.804  12.729  11.834 -0.2921  0.0145 -0.1468
 1824DOPC   C3B21403  15.607  12.605  11.426  0.0455  0.3368  0.2687
 1824DOPC   C4B21404  15.309  12.905  11.195 -0.2601 -0.2567 -0.0200
 1825DOPS   CNO21405  19.588  20.733  13.107 -0.2442 -0.0768  0.2589
 1825DOPS   PO421406  19.662  20.956  12.806  0.2331  0.0456 -0.2108
 1825DOPS   GL121407  19.855  21.048  12.477  0.0460  0.0074  0.3021
 1825DOPS   GL221408  19.704  21.146  12.175 -0.1488  0.1452 -0.0556
 1825DOPS   C1A21409  20.098  20.906  12.068 -0.1980  0.0407  0.3691
 1825DOPS   D2A21410  20.238  21.091  11.723  0.2503  0.3433 -0.0478
 1825DOPS   C3A21411  19.845  20.922  11.552 -0.3614 -0.1065  0.3098
 1825DOPS   C4A21412  19.726  20.501  11.431  0.1491  0.2661  0.0693
 1825DOPS   C1B21413  19.582  20.745  11.942 -0.1679  0.1302  0.1258
 1825DOPS   D2B21414  19.514  20.305  11.807  0.0913  0.3681  0.0463
 1825DOPS   C3B21415  19.714  19.961  11.544  0.1715  0.2136 -0.1549
 1825DOPS   C4B21416  20.021  19.714  11.305  0.0578 -0.3263 -0.0087
 1826DOPE   NH321417   9.840  21.351  14.132  0.0589 -0.0855  0.0017
 1826DOPE   PO421418  10.122  21.362  13.939  0.0115  0.2578 -0.1971
 1826DOPE   GL121419  10.100  21.492  13.537 -0.3725  0.2115  0.0092
 1826DOPE   GL221420   9.857  21.479  13.374  0.2309  0.0832 -0.0011
 1826DOPE   C1A21421  10.300  21.769  13.168  0.0028  0.3135 -0.2739
 1826DOPE   D2A21422  10.519  21.742  12.793 -0.1198 -0.0651  0.1035
 1826DOPE   C3A21423  10.705  21.769  12.349 -0.2078 -0.2388 -0.2074
 1826DOPE   C4A21424  10.593  21.713  11.886 -0.0351  0.1990 -0.2928
 1826DOPE   C1B21425   9.410  21.419  13.259  0.0625 -0.1136 -0.0536
 1826DOPE   D2B21426   9.147  21.476  12.930  0.0925  0.3225 -0.1380
 1826DOPE   C3B21427   9.049  21.161  12.640  0.1772 -0.2714 -0.3069
 1826DOPE   C4B21428   8.791  20.821  12.474  0.1558  0.1927 -0.0467
 1827DOPE   NH321429  16.829  19.247  12.816  0.3270 -0.1351  0.1449
 1827DOPE   PO421430  16.575  19.278  12.651  0.0545 -0.1881 -0.0121
 1827DOPE   GL121431  16.617  19.231  12.197  0.1077  0.0564 -0.3573
 1827DOPE   GL221432  16.522  18.956  12.154 -0.1660  0.0635  0.0820
 1827DOPE   C1A21433  16.556  19.513  11.838  0.3138  0.1757  0.0505
 1827DOPE   D2A21434  16.439  19.477  11.362  0.1569  0.0704  0.0996
 1827DOPE   C3A21435  16.144  19.789  11.129 -0.0280 -0.1671 -0.1144
 1827DOPE   C4A21436  16.191  20.119  10.746  0.1909 -0.1416 -0.0708
 1827DOPE   C1B21437  16.380  19.050  11.710 -0.6393  0.1365 -0.0080
 1827DOPE   D2B21438  16.381  18.993  11.296 -0.0369 -0.2204  0.2124
 1827DOPE   C3B21439  16.137  19.263  11.026 -0.2329  0.2286  0.2848
 1827DOPE   C4B21440  16.257  19.566  10.647 -0.2550 -0.0425 -0.2566
 1828DOPE   NH321441  16.902  15.733  12.511  0.0909  0.1196 -0.1859
 1828DOPE   PO421442  17.110  15.954  12.423  0.1223 -0.4045 -0.1204
 1828DOPE   GL121443  17.079  16.075  12.107  0.1200  0.2972 -0.0674
 1828DOPE   GL221444  17.225  16.288  11.884  0.0204  0.0893 -0.2087
 1828DOPE   C1A21445  16.930  15.901  11.718  0.0816 -0.3444  0.0817
 1828DOPE   D2A21446  16.911  15.592  11.401  0.1563 -0.1125 -0.0173
 1828DOPE   C3A21447  17.276  15.716  11.117 -0.0713 -0.2077 -0.2378
 1828DOPE   C4A21448  17.502  15.767  10.717 -0.2241 -0.1032 -0.2061
 1828DOPE   C1B21449  17.255  16.191  11.445 -0.0241  0.2994  0.3974
 1828DOPE   D2B21450  17.148  16.423  11.053  0.0076  0.0113 -0.3327
 1828DOPE   C3B21451  17.327  16.326  10.684  0.1839  0.0532 -0.0065
 1828DOPE   C4B21452  17.473  16.111  10.350 -0.1464 -0.0957  0.1957
 1829DOPC   NC321453  21.387  22.922  12.968 -0.3638  0.0561 -0.3130
 1829DOPC   PO421454  21.445  22.570  12.783  0.0107 -0.0760  0.0026
 1829DOPC   GL121455  21.542  22.715  12.523 -0.3400  0.1429  0.1740
 1829DOPC   GL221456  21.810  22.701  12.316  0.3817  0.1458  0.1443
 1829DOPC   C1A21457  21.395  22.898  12.115  0.1391 -0.2528 -0.0733
 1829DOPC   D2A21458  21.260  23.242  11.896 -0.2435 -0.2296  0.0358
 1829DOPC   C3A21459  21.457  23.054  11.536 -0.2146 -0.4810  0.0970
 1829DOPC   C4A21460  21.180  22.818  11.283 -0.0709  0.1014  0.2725
 1829DOPC   C1B21461  21.854  22.904  11.861  0.0679 -0.0268  0.0870
 1829DOPC   D2B21462  22.060  23.158  11.556  0.0460  0.1196 -0.2191
 1829DOPC   C3B21463  22.149  23.141  11.058  0.1043  0.0740  0.5708
 1829DOPC   C4B21464  21.894  23.216  10.698 -0.1014 -0.0574 -0.0833
 1830POSM   NC321465  13.965  14.612  13.146 -0.2836  0.3844 -0.1704
 1830POSM   PO421466  14.075  14.967  13.280  0.4352 -0.0011 -0.2745
 1830POSM   AM121467  13.977  15.086  13.010  0.1109  0.3627  0.1861
 1830POSM   AM221468  13.934  15.336  12.928 -0.1477 -0.0620 -0.1383
 1830POSM   T1A21469  13.887  14.952  12.525  0.0382 -0.3465 -0.1377
 1830POSM   C2A21470  13.717  14.913  12.036 -0.4424 -0.1001 -0.2226
 1830POSM   C3A21471  13.404  14.654  11.790  0.1842 -0.1787 -0.0767
 1830POSM   C1B21472  13.668  15.277  12.769 -0.1102 -0.0408  0.0085
 1830POSM   D2B21473  13.412  15.312  12.410  0.0341 -0.0646  0.1635
 1830POSM   C3B21474  13.053  15.084  12.241 -0.2193 -0.0922 -0.1029
 1830POSM   C4B21475  12.791  14.709  12.185  0.1597  0.3736  0.2996
 1831POSM   NC321476  13.878  21.575  13.804  0.2159  0.1894 -0.0467
 1831POSM   PO421477  13.823  21.782  13.451  0.1299  0.2044  0.0903
 1831POSM   AM121478  13.713  21.833  13.191  0.3449  0.1742  0.1068
 1831POSM   AM221479  13.688  21.749  12.899 -0.1456  0.1195 -0.1220
 1831POSM   T1A21480  13.226  21.766  13.008 -0.1303  0.1165 -0.1011
 1831POSM   C2A21481  13.048  21.375  12.759  0.2024  0.0173 -0.0218
 1831POSM   C3A21482  12.915  20.946  12.606 -0.3997  0.0933  0.2112
 1831POSM   C1B21483  13.544  21.749  12.591  0.1058 -0.0346 -0.1841
 1831POSM   D2B21484  13.393  21.971  12.216 -0.2188  0.0696 -0.2221
 1831POSM   C3B21485  13.203  21.670  11.966 -0.4806  0.0942 -0.0353
 1831POSM   C4B21486  13.065  21.247  11.853  0.0074 -0.3091 -0.0489
 1832DOPC   NC321487  15.525  15.465  12.614 -0.0252  0.0097  0.1944
 1832DOPC   PO421488  15.272  15.716  12.390 -0.0542  0.0569  0.1036
 1832DOPC   GL121489  15.412  15.666  12.034 -0.1384 -0.4450 -0.1771
 1832DOPC   GL221490  15.599  15.455  12.023 -0.0982 -0.1513 -0.0151
 1832DOPC   C1A21491  15.585  15.665  11.584 -0.0716  0.0050  0.0429
 1832DOPC   D2A21492  15.812  15.724  11.154 -0.2630  0.1195 -0.2829
 1832DOPC   C3A21493  16.212  15.823  11.245 -0.3321  0.4178 -0.0270
 1832DOPC   C4A21494  16.707  16.053  11.265 -0.0074 -0.3328  0.3243
 1832DOPC   C1B21495  15.322  15.279  11.697  0.1287  0.0435  0.1530
 1832DOPC   D2B21496  15.348  15.439  11.222  0.1135 -0.0784 -0.0740
 1832DOPC   C3B21497  15.648  15.271  10.920 -0.1255 -0.0397 -0.0049
 1832DOPC   C4B21498  16.110  15.353  10.952  0.2638  0.0798  0.4058
 1833DOPC   NC321499  20.476  16.907  12.962  0.0815 -0.1558 -0.0165
 1833DOPC   PO421500  20.301  16.610  12.770 -0.0998 -0.0546  0.4310
 1833DOPC   GL121501  20.599  16.290  12.692 -0.0099  0.1239  0.1675
 1833DOPC   GL221502  20.558  16.012  12.582 -0.2746 -0.2585  0.2200
 1833DOPC   C1A21503  20.927  16.398  12.415  0.5141  0.2984  0.1620
 1833DOPC   D2A21504  21.042  16.371  11.972  0.3112 -0.0157  0.0197
 1833DOPC   C3A21505  21.428  16.592  11.762 -0.1767  0.5216  0.0597
 1833DOPC   C4A21506  21.549  16.992  11.606  0.0483  0.1794  0.3687
 1833DOPC   C1B21507  20.612  16.096  12.150  0.1722  0.1536  0.0524
 1833DOPC   D2B21508  20.361  16.195  11.771  0.2298 -0.0566  0.0237
 1833DOPC   C3B21509  20.248  15.988  11.338 -0.1651 -0.1212 -0.2108
 1833DOPC   C4B21510  20.054  15.898  10.926  0.0694  0.0226 -0.3296
 1834DOPS   CNO21511  11.718  20.887  14.052  0.0383 -0.0823 -0.1371
 1834DOPS   PO421512  12.002  20.876  13.821  0.2911  0.2020  0.0337
 1834DOPS   GL121513  11.843  20.678  13.413 -0.5061 -0.2275  0.0951
 1834DOPS   GL221514  11.688  20.879  13.224  0.1138  0.0480  0.0028
 1834DOPS   C1A21515  12.088  20.665  13.009 -0.0799  0.0534 -0.1292
 1834DOPS   D2A21516  12.021  20.710  12.536  0.2659  0.0529  0.3475
 1834DOPS   C3A21517  11.909  20.341  12.271  0.2462 -0.0478 -0.0266
 1834DOPS   C4A21518  11.615  20.269  11.874 -0.0493 -0.0812  0.2469
 1834DOPS   C1B21519  11.628  20.979  12.777 -0.1288  0.1797 -0.0799
 1834DOPS   D2B21520  11.215  21.067  12.506  0.3322 -0.1378 -0.0926
 1834DOPS   C3B21521  11.214  20.892  12.118 -0.2646 -0.3086  0.0368
 1834DOPS   C4B21522  11.232  20.951  11.715 -0.1005  0.0860 -0.0185
 1835DOPE   NH321523  20.690  13.879  13.241  0.3703  0.3047  0.1965
 1835DOPE   PO421524  20.417  13.776  13.035  0.2649  0.3373  0.0668
 1835DOPE   GL121525  20.470  13.692  12.637  0.3324 -0.2179 -0.3837
 1835DOPE   GL221526  20.742  13.809  12.614 -0.0049 -0.1014  0.2045
 1835DOPE   C1A21527  20.233  13.761  12.267  0.0058 -0.2682 -0.0638
 1835DOPE   D2A21528  20.167  13.721  11.808  0.2431  0.0235  0.1161
 1835DOPE   C3A21529  19.737  13.622  11.652  0.0177  0.1411  0.3749
 1835DOPE   C4A21530  19.434  13.236  11.603  0.0416 -0.0228  0.1041
 1835DOPE   C1B21531  20.676  13.517  12.207  0.0808 -0.1726  0.0326
 1835DOPE   D2B21532  20.527  13.404  11.788  0.0185  0.2822  0.2443
 1835DOPE   C3B21533  20.290  13.459  11.362  0.0110 -0.0378  0.1281
 1835DOPE   C4B21534  19.966  13.764  11.162 -0.1227 -0.3299 -0.0559
 1836DOPS   CNO21535  19.829  17.970  12.290 -0.2703 -0.0411 -0.0995
 1836DOPS   PO421536  19.914  17.644  12.483 -0.0415 -0.2008 -0.1200
 1836DOPS   GL121537  19.711  17.547  12.157  0.1016  0.3410 -0.0992
 1836DOPS   GL221538  19.883  17.449  11.913  0.1571 -0.0316  0.0424
 1836DOPS   C1A21539  19.576  17.902  11.815  0.0752 -0.0628 -0.1481
 1836DOPS   D2A21540  19.610  18.022  11.418  0.0448 -0.3625 -0.0627
 1836DOPS   C3A21541  19.787  17.945  10.985  0.0457 -0.1250 -0.1224
 1836DOPS   C4A21542  19.871  18.165  10.597  0.0675 -0.1162 -0.3056
 1836DOPS   C1B21543  19.787  17.554  11.467  0.0167  0.0797 -0.1282
 1836DOPS   D2B21544  19.681  17.329  11.053 -0.1358 -0.1603  0.0685
 1836DOPS   C3B21545  19.332  17.541  10.781  0.1581  0.3697 -0.1082
 1836DOPS   C4B21546  18.869  17.713  10.756 -0.0683  0.2183  0.0434
 1837DOPE   NH321547  24.986  16.558  10.017 -0.3092  0.1195  0.0846
 1837DOPE   PO421548  25.098  16.346  10.254  0.1284 -0.2099 -0.0593
 1837DOPE   GL121549  25.108  16.554  10.539 -0.0102  0.0477  0.1347
 1837DOPE   GL221550  25.109  16.820  10.391 -0.1074 -0.1633  0.0565
 1837DOPE   C1A21551  24.914  16.579  10.973  0.3083 -0.0383  0.2383
 1837DOPE   D2A21552  24.708  16.645  11.350  0.0331 -0.1498  0.1093
 1837DOPE   C3A21553  24.954  16.389  11.648 -0.0899 -0.0890  0.0539
 1837DOPE   C4A21554  25.309  16.327  11.905  0.2904 -0.2749  0.4817
 1837DOPE   C1B21555  24.684  16.795  10.607  0.0051 -0.1507  0.0330
 1837DOPE   D2B21556  24.436  16.886  11.032  0.1122 -0.3969 -0.0312
 1837DOPE   C3B21557  24.169  16.607  11.341 -0.2847 -0.0775  0.0438
 1837DOPE   C4B21558  23.810  16.343  11.524  0.1618  0.0953  0.2794
 1838DOPS   CNO21559  12.395  15.319   9.788 -0.1070  0.3736 -0.4529
 1838DOPS   PO421560  12.358  14.942   9.944 -0.1659  0.1498  0.0673
 1838DOPS   GL121561  12.409  15.082  10.287  0.0272  0.3301 -0.0935
 1838DOPS   GL221562  12.195  15.277  10.336 -0.2595  0.2427  0.0678
 1838DOPS   C1A21563  12.588  15.199  10.669 -0.2151 -0.0519 -0.1565
 1838DOPS   D2A21564  12.720  15.166  11.068 -0.0539  0.1325 -0.4475
 1838DOPS   C3A21565  12.640  14.817  11.382  0.1533  0.1414  0.4224
 1838DOPS   C4A21566  12.334  14.583  11.684 -0.0387  0.0174 -0.2277
 1838DOPS   C1B21567  12.110  15.340  10.769  0.0949  0.0579 -0.0147
 1838DOPS   D2B21568  12.244  15.459  11.209  0.0055  0.1106 -0.1807
 1838DOPS   C3B21569  12.385  15.197  11.537  0.0757 -0.2031  0.1655
 1838DOPS   C4B21570  12.747  15.138  11.855  0.0787 -0.0736  0.2441
 1839DOPE   NH321571  21.220  15.282   9.314 -0.2669  0.2155  0.3200
 1839DOPE   PO421572  21.060  15.532   9.355  0.1239 -0.1750 -0.0324
 1839DOPE   GL121573  21.088  15.708   9.656  0.2120 -0.1927  0.2924
 1839DOPE   GL221574  20.846  15.642   9.865  0.0141  0.3306  0.2416
 1839DOPE   C1A21575  21.372  15.661  10.049  0.1746 -0.2958  0.0243
 1839DOPE   D2A21576  21.461  15.599  10.517  0.0133 -0.2161 -0.2696
 1839DOPE   C3A21577  21.423  15.722  10.963 -0.2820 -0.0969  0.3585
 1839DOPE   C4A21578  21.599  15.785  11.443 -0.2018 -0.3886  0.3597
 1839DOPE   C1B21579  21.061  16.071  10.053 -0.0724  0.0993 -0.0424
 1839DOPE   D2B21580  21.479  16.183  10.265  0.3645  0.1554  0.1401
 1839DOPE   C3B21581  21.502  16.288  10.713  0.0954  0.0587 -0.2783
 1839DOPE   C4B21582  21.485  16.223  11.151 -0.1066  0.0160  0.1427
 1840DOPE   NH321583  21.726  18.365   9.587  0.0440  0.4934  0.0002
 1840DOPE   PO421584  21.993  18.452   9.473 -0.1760  0.0869  0.0298
 1840DOPE   GL121585  21.959  18.861   9.714 -0.1178  0.0729 -0.3479
 1840DOPE   GL221586  22.218  18.692   9.902 -0.1281  0.3447 -0.0407
 1840DOPE   C1A21587  22.136  19.190   9.944  0.2656  0.2330  0.2243
 1840DOPE   D2A21588  22.201  19.286  10.362  0.0313 -0.0332  0.1280
 1840DOPE   C3A21589  21.996  19.063  10.688  0.0480  0.0511  0.0062
 1840DOPE   C4A21590  22.059  19.045  11.139 -0.1038 -0.0121  0.2241
 1840DOPE   C1B21591  22.061  18.774  10.337  0.0202 -0.2745 -0.1683
 1840DOPE   D2B21592  21.709  18.654  10.668 -0.0050 -0.0381  0.1438
 1840DOPE   C3B21593  21.700  18.150  10.707 -0.0021 -0.0806  0.0794
 1840DOPE   C4B21594  21.339  17.852  10.563 -0.0115 -0.2394  0.0394
 1841DOPC   NC321595  22.297  17.358   9.156  0.1039  0.0177 -0.0214
 1841DOPC   PO421596  22.049  17.590   9.384 -0.2760 -0.0757  0.0101
 1841DOPC   GL121597  21.996  17.356   9.693 -0.2486  0.0945  0.0523
 1841DOPC   GL221598  21.994  17.520   9.891  0.1759  0.1229  0.3711
 1841DOPC   C1A21599  21.720  17.052   9.928  0.0814  0.0914 -0.0957
 1841DOPC   D2A21600  21.521  16.967  10.299  0.4086  0.3369 -0.0648
 1841DOPC   C3A21601  21.758  16.738  10.612 -0.0920 -0.1048  0.0043
 1841DOPC   C4A21602  22.172  16.805  10.859  0.2319  0.2275  0.1417
 1841DOPC   C1B21603  22.253  17.284  10.162 -0.1575 -0.0377  0.0200
 1841DOPC   D2B21604  22.391  17.232  10.642  0.2850  0.1112 -0.0629
 1841DOPC   C3B21605  22.448  17.470  10.986  0.0564 -0.3118  0.5282
 1841DOPC   C4B21606  22.618  17.822  11.192  0.1597  0.1543  0.0451
 1842DOPC   NC321607  11.334  13.094  10.889 -0.0317 -0.0001 -0.0570
 1842DOPC   PO421608  11.685  12.887  10.964  0.0364  0.0128 -0.0713
 1842DOPC   GL121609  11.738  13.174  11.175 -0.0445  0.1770 -0.0342
 1842DOPC   GL221610  12.065  13.180  11.117  0.2452  0.0368  0.0053
 1842DOPC   C1A21611  11.809  13.544  11.478 -0.1399 -0.0413 -0.2386
 1842DOPC   D2A21612  11.856  13.885  11.874  0.1388 -0.2439 -0.4081
 1842DOPC   C3A21613  12.007  14.028  12.282  0.0911 -0.0572  0.0185
 1842DOPC   C4A21614  12.150  14.451  12.363 -0.1612 -0.1974 -0.0518
 1842DOPC   C1B21615  12.136  13.076  11.536  0.1276 -0.1204  0.0435
 1842DOPC   D2B21616  12.271  13.013  11.938 -0.2698  0.0275  0.0585
 1842DOPC   C3B21617  12.575  13.157  12.203  0.5599  0.1171  0.1714
 1842DOPC   C4B21618  12.880  12.905  12.484 -0.0129 -0.0379 -0.0721
 1843DOPE   NH321619  10.183  21.375  10.202 -0.3998  0.2966 -0.0470
 1843DOPE   PO421620  10.115  21.043  10.182  0.0887  0.1639  0.4353
 1843DOPE   GL121621  10.112  21.099  10.570  0.2817 -0.0644  0.2645
 1843DOPE   GL221622  10.378  20.999  10.717  0.1596 -0.0645 -0.2262
 1843DOPE   C1A21623  10.267  21.352  10.998  0.0970 -0.0158  0.0678
 1843DOPE   D2A21624  10.486  21.207  11.373  0.0050 -0.0103  0.1300
 1843DOPE   C3A21625  10.339  21.277  11.790  0.1516 -0.2009 -0.0821
 1843DOPE   C4A21626  10.021  21.311  12.108  0.0191  0.1871  0.0701
 1843DOPE   C1B21627  10.534  20.758  11.101  0.1590  0.1946  0.0526
 1843DOPE   D2B21628  10.744  20.738  11.546 -0.0951  0.0220  0.2121
 1843DOPE   C3B21629  10.663  20.399  11.866 -0.0172  0.1004  0.0864
 1843DOPE   C4B21630  10.642  19.927  11.935 -0.0922 -0.1353  0.1304
 1844DOPE   NH321631  25.217  23.712   9.701 -0.1807 -0.0015  0.1945
 1844DOPE   PO421632  24.968  23.639   9.522  0.2564 -0.0104 -0.1610
 1844DOPE   GL121633  24.726  23.574   9.805  0.0233  0.3790  0.1026
 1844DOPE   GL221634  24.761  23.845   9.974  0.2041  0.3562  0.0917
 1844DOPE   C1A21635  24.643  23.361  10.223  0.1765  0.1270  0.1645
 1844DOPE   D2A21636  24.405  23.105  10.581  0.3509  0.1533  0.1329
 1844DOPE   C3A21637  24.386  22.755  10.781 -0.3361  0.0164 -0.1210
 1844DOPE   C4A21638  24.388  22.306  10.564 -0.0445  0.0508 -0.0367
 1844DOPE   C1B21639  24.512  23.899  10.334 -0.1807 -0.1134 -0.0786
 1844DOPE   D2B21640  24.203  23.960  10.665  0.0643 -0.0750 -0.1952
 1844DOPE   C3B21641  24.314  23.897  11.134 -0.2234 -0.1086 -0.1175
 1844DOPE   C4B21642  24.499  23.854  11.584 -0.2402 -0.0908  0.3841
 1845DOPE   NH321643  20.601  16.749   8.926  0.1563 -0.2183  0.1331
 1845DOPE   PO421644  20.363  16.588   9.032  0.0808 -0.0972  0.1361
 1845DOPE   GL121645  20.086  16.545   9.334  0.0343  0.1762 -0.3641
 1845DOPE   GL221646  20.002  16.265   9.426  0.2984  0.0303  0.1639
 1845DOPE   C1A21647  19.969  16.639   9.746 -0.0339  0.1051 -0.1206
 1845DOPE   D2A21648  19.978  16.856  10.199  0.1170 -0.0894 -0.3764
 1845DOPE   C3A21649  20.147  16.686  10.610  0.1544 -0.2311  0.0606
 1845DOPE   C4A21650  20.118  16.798  11.049  0.0230 -0.1524 -0.0530
 1845DOPE   C1B21651  19.938  16.179   9.870  0.0230  0.1461 -0.1417
 1845DOPE   D2B21652  19.982  16.343  10.305 -0.0750  0.5153  0.1139
 1845DOPE   C3B21653  20.372  16.242  10.606  0.0736 -0.1708 -0.0491
 1845DOPE   C4B21654  20.385  16.375  11.002 -0.0041  0.0756  0.2733
 1846POSM   NC321655  10.579  21.856   9.897 -0.0360 -0.0711  0.4181
 1846POSM   PO421656  10.363  21.825  10.212  0.0080  0.0193 -0.0198
 1846POSM   AM121657  10.460  22.027  10.434 -0.0667  0.0210  0.2765
 1846POSM   AM221658  10.673  22.004  10.611  0.3220  0.1602 -0.0661
 1846POSM   T1A21659  10.533  22.455  10.727  0.1192  0.0922 -0.1363
 1846POSM   C2A21660  10.335  22.792  11.010 -0.0669 -0.0884 -0.0726
 1846POSM   C3A21661  10.574  23.216  10.989  0.0744  0.4015  0.3417
 1846POSM   C1B21662  10.725  21.841  10.874  0.2860  0.0897 -0.0067
 1846POSM   D2B21663  10.812  21.421  11.083  0.3636 -0.1312  0.2035
 1846POSM   C3B21664  11.214  21.264  11.282 -0.1593  0.0547 -0.0281
 1846POSM   C4B21665  11.633  21.226  11.552 -0.0118  0.1166  0.0557
 1847DOPE   NH321666  12.747  16.848   9.691  0.0714 -0.0859  0.0089
 1847DOPE   PO421667  12.823  17.159   9.661  0.1508  0.1947  0.4294
 1847DOPE   GL121668  12.950  17.148  10.040  0.2226  0.2267  0.0523
 1847DOPE   GL221669  12.802  16.942  10.198 -0.0843 -0.1442 -0.0773
 1847DOPE   C1A21670  12.991  17.476  10.389  0.1363 -0.1570 -0.1258
 1847DOPE   D2A21671  12.705  17.750  10.607  0.4677  0.0645 -0.0343
 1847DOPE   C3A21672  12.711  18.136  10.417  0.0778 -0.0344 -0.0489
 1847DOPE   C4A21673  12.728  18.369  10.029 -0.0194 -0.1858  0.2327
 1847DOPE   C1B21674  12.546  17.260  10.417 -0.4074 -0.1829  0.0443
 1847DOPE   D2B21675  12.115  17.377  10.555 -0.2472 -0.2054 -0.1349
 1847DOPE   C3B21676  12.203  17.767  10.849 -0.3979  0.0797 -0.0564
 1847DOPE   C4B21677  12.472  18.157  10.906  0.0412  0.1902 -0.3006
 1848POSM   NC321678  17.739  19.759   9.135 -0.1435 -0.0244 -0.2399
 1848POSM   PO421679  17.820  19.390   9.257 -0.0196 -0.0189  0.1224
 1848POSM   AM121680  17.887  19.409   9.587 -0.2288 -0.3302 -0.1867
 1848POSM   AM221681  17.961  19.212   9.785  0.2298  0.2398  0.2061
 1848POSM   T1A21682  17.993  19.718  10.006 -0.0222  0.0391  0.0349
 1848POSM   C2A21683  18.051  19.793  10.477 -0.0823  0.2007  0.2654
 1848POSM   C3A21684  18.114  19.721  10.912  0.1530  0.0543  0.1438
 1848POSM   C1B21685  17.903  18.968   9.981  0.0107 -0.1153 -0.2190
 1848POSM   D2B21686  17.854  18.541  10.035  0.0339 -0.0370 -0.0332
 1848POSM   C3B21687  17.731  18.360  10.405  0.0610 -0.1771  0.0915
 1848POSM   C4B21688  17.669  18.278  10.846  0.0049 -0.3856  0.4172
 1849POSM   NC321689  12.447  12.426  10.503 -0.0357 -0.0184  0.2511
 1849POSM   PO421690  12.550  12.817  10.466 -0.0255  0.0793  0.0440
 1849POSM   AM121691  12.581  12.746  10.780  0.3068 -0.4970 -0.0224
 1849POSM   AM221692  12.588  12.512  10.989  0.0168  0.2385 -0.0340
 1849POSM   T1A21693  12.485  12.937  11.249 -0.1552 -0.1814  0.0151
 1849POSM   C2A21694  12.740  13.098  11.650 -0.0573  0.0439 -0.1280
 1849POSM   C3A21695  12.714  13.488  11.883  0.0676 -0.1978  0.1372
 1849POSM   C1B21696  12.616  12.293  11.298 -0.3197 -0.1352 -0.0266
 1849POSM   D2B21697  12.500  11.977  11.583 -0.3078  0.1180 -0.1710
 1849POSM   C3B21698  12.515  11.556  11.742  0.0995 -0.2668  0.2014
 1849POSM   C4B21699  12.258  11.351  12.045 -0.2751  0.0424  0.1521
 1850DOPC   NC321700  19.630  21.162   8.596  0.0237  0.4745  0.0935
 1850DOPC   PO421701  20.004  21.267   8.556  0.1842  0.3150 -0.0401
 1850DOPC   GL121702  19.941  21.151   8.936  0.0228  0.1838 -0.2678
 1850DOPC   GL221703  20.191  21.021   8.935 -0.0464 -0.2211  0.3088
 1850DOPC   C1A21704  20.021  21.278   9.347  0.3856 -0.3697  0.3653
 1850DOPC   D2A21705  20.034  21.346   9.869 -0.1511 -0.2658 -0.0098
 1850DOPC   C3A21706  20.404  21.365  10.168 -0.3901  0.0571 -0.0330
 1850DOPC   C4A21707  20.691  21.252  10.464  0.4008  0.1676  0.0908
 1850DOPC   C1B21708  20.500  21.108   9.235  0.0419 -0.2398  0.3417
 1850DOPC   D2B21709  20.693  21.441   9.530 -0.2701  0.1784 -0.2915
 1850DOPC   C3B21710  21.108  21.352   9.749 -0.0720  0.0250 -0.0933
 1850DOPC   C4B21711  21.242  21.071  10.016 -0.2923  0.1409  0.4146
 1851DOPC   NC321712  16.310  16.735   9.046 -0.0249  0.1739  0.0133
 1851DOPC   PO421713  16.636  16.844   9.212 -0.0614  0.1385  0.0277
 1851DOPC   GL121714  16.715  16.984   9.628 -0.1690 -0.3341  0.2452
 1851DOPC   GL221715  16.636  16.798   9.801  0.1228  0.0278  0.0284
 1851DOPC   C1A21716  16.742  17.422   9.827 -0.2840  0.0279 -0.1549
 1851DOPC   D2A21717  16.642  17.591  10.219  0.0235  0.0502 -0.0673
 1851DOPC   C3A21718  16.722  18.022  10.313 -0.2799 -0.2815  0.2124
 1851DOPC   C4A21719  16.408  18.362  10.488 -0.1263 -0.2907  0.2173
 1851DOPC   C1B21720  16.639  17.053  10.248 -0.2190  0.2101  0.0379
 1851DOPC   D2B21721  16.710  17.188  10.702  0.1344  0.0484 -0.0032
 1851DOPC   C3B21722  17.033  17.484  10.695 -0.1706 -0.2000  0.0923
 1851DOPC   C4B21723  17.453  17.609  10.663 -0.0413  0.2467 -0.2745
 1852DOPC   NC321724  16.650  16.341   9.247  0.0872 -0.0333  0.1575
 1852DOPC   PO421725  17.000  16.262   9.073  0.1091  0.1462  0.2256
 1852DOPC   GL121726  17.072  16.229   9.480 -0.2568  0.0223 -0.5256
 1852DOPC   GL221727  17.032  16.571   9.555  0.0262  0.1112  0.1318
 1852DOPC   C1A21728  16.684  16.338   9.774  0.0795 -0.0245 -0.2779
 1852DOPC   D2A21729  16.375  16.166  10.034  0.1213 -0.0873 -0.3615
 1852DOPC   C3A21730  16.308  16.120  10.492  0.0713  0.1674  0.2500
 1852DOPC   C4A21731  16.002  16.087  10.824 -0.1980  0.0490 -0.1107
 1852DOPC   C1B21732  17.444  16.497   9.765 -0.1283 -0.0387  0.0673
 1852DOPC   D2B21733  17.684  16.888   9.921 -0.1927 -0.0094 -0.2543
 1852DOPC   C3B21734  17.816  17.141  10.296 -0.1462  0.2659 -0.1374
 1852DOPC   C4B21735  17.959  17.486  10.592 -0.1661 -0.1253 -0.0690
 1853DOPE   NH321736  20.986  14.245   9.737  0.1973 -0.1691 -0.0171
 1853DOPE   PO421737  21.178  14.053   9.583  0.0796  0.0268  0.0724
 1853DOPE   GL121738  21.264  13.922  10.016 -0.2155 -0.0468 -0.2915
 1853DOPE   GL221739  21.476  14.033  10.173  0.0517  0.1670 -0.1882
 1853DOPE   C1A21740  21.135  14.222  10.374  0.0023 -0.0856  0.0183
 1853DOPE   D2A21741  21.023  14.262  10.908 -0.1971 -0.2837 -0.0292
 1853DOPE   C3A21742  20.904  13.952  11.241 -0.1080 -0.2321  0.2470
 1853DOPE   C4A21743  20.575  13.919  11.564  0.2626 -0.0025  0.0684
 1853DOPE   C1B21744  21.309  13.773  10.533 -0.2422 -0.0013 -0.0999
 1853DOPE   D2B21745  21.479  13.481  10.836  0.1305 -0.3249  0.2724
 1853DOPE   C3B21746  21.200  13.494  11.249  0.2130 -0.3547 -0.0320
 1853DOPE   C4B21747  20.960  13.624  11.596 -0.0724  0.1161 -0.0274
 1854POSM   NC321748  18.168  11.878   9.744  0.4318 -0.0625  0.2696
 1854POSM   PO421749  18.334  12.237   9.734 -0.2226 -0.0222  0.2547
 1854POSM   AM121750  18.554  12.437   9.847  0.1575  0.0451  0.2017
 1854POSM   AM221751  18.842  12.411   9.953  0.2922 -0.2026  0.2766
 1854POSM   T1A21752  18.681  12.722  10.273  0.2059 -0.1914  0.0341
 1854POSM   C2A21753  18.736  12.681  10.702  0.0590 -0.4017 -0.1013
 1854POSM   C3A21754  18.664  12.725  11.128 -0.0668  0.2277  0.3572
 1854POSM   C1B21755  18.838  12.237  10.237  0.0579  0.2481  0.1201
 1854POSM   D2B21756  18.815  12.064  10.684 -0.4831  0.2728  0.1514
 1854POSM   C3B21757  18.404  11.825  10.720 -0.2593  0.1632 -0.0118
 1854POSM   C4B21758  18.434  11.412  10.950  0.2834 -0.2072 -0.4283
 1855DOPE   NH321759  12.528  20.939   9.458 -0.1460 -0.3116  0.2224
 1855DOPE   PO421760  12.244  20.965   9.558 -0.0398 -0.0410 -0.1536
 1855DOPE   GL121761  12.243  20.654   9.876 -0.0716 -0.3945 -0.1068
 1855DOPE   GL221762  12.556  20.728   9.923  0.1036  0.0803  0.0973
 1855DOPE   C1A21763  12.281  20.564  10.352  0.0915  0.0168  0.0072
 1855DOPE   D2A21764  12.559  20.637  10.723  0.3159 -0.3386  0.4053
 1855DOPE   C3A21765  12.971  20.559  10.844 -0.2264  0.1004  0.0119
 1855DOPE   C4A21766  13.257  20.239  10.637  0.2690 -0.0364  0.0851
 1855DOPE   C1B21767  12.847  20.665  10.267 -0.0615  0.0292 -0.0662
 1855DOPE   D2B21768  13.140  20.942  10.470 -0.4719 -0.0804 -0.0215
 1855DOPE   C3B21769  13.521  20.654  10.570  0.0189  0.0416 -0.2099
 1855DOPE   C4B21770  13.881  20.375  10.595  0.1191  0.3015  0.0799
 1856DOPC   NC321771  22.119  11.873   9.504  0.1714 -0.1847  0.1296
 1856DOPC   PO421772  21.949  11.863   9.880 -0.2444  0.0415  0.1020
 1856DOPC   GL121773  21.908  12.001  10.277  0.1422 -0.1066  0.1084
 1856DOPC   GL221774  21.861  11.754  10.428  0.4487  0.0587  0.2731
 1856DOPC   C1A21775  22.187  12.181  10.583 -0.2273  0.1986 -0.1252
 1856DOPC   D2A21776  22.343  12.371  10.953 -0.3050  0.1282  0.0018
 1856DOPC   C3A21777  22.333  12.221  11.356 -0.3156 -0.0293 -0.2399
 1856DOPC   C4A21778  22.240  12.110  11.829  0.2513 -0.4192 -0.2255
 1856DOPC   C1B21779  21.796  11.487  10.785  0.1506  0.0577  0.0297
 1856DOPC   D2B21780  21.890  11.076  10.935  0.1068  0.1590  0.0437
 1856DOPC   C3B21781  22.365  10.950  10.917 -0.1063 -0.2288  0.2886
 1856DOPC   C4B21782  22.838  10.965  10.916  0.3344  0.0691 -0.0243
 1857POSM   NC321783  20.455  13.064   9.416  0.3176 -0.0116 -0.2301
 1857POSM   PO421784  20.089  13.192   9.323 -0.0438  0.1432  0.1025
 1857POSM   AM121785  19.865  13.158   9.570 -0.0644 -0.0257 -0.1911
 1857POSM   AM221786  19.742  13.330   9.772 -0.1780 -0.1913 -0.0382
 1857POSM   T1A21787  19.541  12.899   9.845 -0.0813 -0.1937  0.3996
 1857POSM   C2A21788  19.154  12.828  10.084  0.1365 -0.2459  0.0062
 1857POSM   C3A21789  19.132  12.652  10.485  0.1063 -0.1176 -0.0232
 1857POSM   C1B21790  19.850  13.349  10.053 -0.0669 -0.0581  0.1022
 1857POSM   D2B21791  20.054  13.201  10.474  0.2995  0.2050 -0.0138
 1857POSM   C3B21792  20.284  13.219  10.920  0.0164  0.3459  0.0232
 1857POSM   C4B21793  20.754  13.266  11.130  0.0687 -0.1164  0.1716
 1858DOPE   NH321794  20.448  17.277   9.388  0.1117  0.0096 -0.1374
 1858DOPE   PO421795  20.381  17.005   9.324 -0.4294 -0.2302  0.0710
 1858DOPE   GL121796  20.313  16.883   9.602  0.0327  0.0685 -0.0088
 1858DOPE   GL221797  20.238  17.124   9.810  0.0636  0.0173 -0.2369
 1858DOPE   C1A21798  20.366  16.641  10.024 -0.2885 -0.1704 -0.1536
 1858DOPE   D2A21799  20.814  16.556  10.226 -0.0470 -0.1432 -0.0381
 1858DOPE   C3A21800  21.268  16.592  10.081  0.2418  0.0274 -0.0196
 1858DOPE   C4A21801  21.733  16.567  10.086 -0.0369  0.0252  0.4050
 1858DOPE   C1B21802  20.172  17.318  10.221  0.0821 -0.2313  0.0228
 1858DOPE   D2B21803  20.389  17.200  10.651 -0.1856 -0.0310 -0.2636
 1858DOPE   C3B21804  20.732  17.264  10.930 -0.2246 -0.2855 -0.3540
 1858DOPE   C4B21805  20.737  17.285  11.368  0.0141 -0.1021  0.0887
 1859DOPE   NH321806   8.531  12.899  11.098  0.2032 -0.0300 -0.0710
 1859DOPE   PO421807   8.817  12.729  11.189  0.0477 -0.0150 -0.1587
 1859DOPE   GL121808   8.868  12.812  11.618  0.2523  0.1893  0.1966
 1859DOPE   GL221809   8.993  12.580  11.734 -0.0527  0.2154  0.3055
 1859DOPE   C1A21810   9.079  13.094  11.892 -0.0852  0.1208 -0.2740
 1859DOPE   D2A21811   9.363  13.343  12.047 -0.1716 -0.3180  0.2798
 1859DOPE   C3A21812   9.546  13.237  12.426  0.0002 -0.0269  0.0865
 1859DOPE   C4A21813   9.954  13.402  12.607 -0.1536  0.0271 -0.0779
 1859DOPE   C1B21814   8.657  12.419  11.997  0.1114 -0.0721 -0.1499
 1859DOPE   D2B21815   8.403  12.358  12.435 -0.3441 -0.1659 -0.2201
 1859DOPE   C3B21816   8.428  12.140  12.841  0.3501  0.1641 -0.1168
 1859DOPE   C4B21817   8.089  12.161  13.158 -0.1445  0.2649  0.1350
 1860DOPC   NC321818  14.876  18.202   9.044 -0.1494  0.1111 -0.1238
 1860DOPC   PO421819  14.743  18.531   8.910 -0.1116  0.0490 -0.0631
 1860DOPC   GL121820  14.560  18.536   9.281 -0.1035  0.4110 -0.2430
 1860DOPC   GL221821  14.291  18.640   9.157  0.0869 -0.0062 -0.2943
 1860DOPC   C1A21822  14.213  18.479   9.624 -0.0499  0.1888 -0.0305
 1860DOPC   D2A21823  13.800  18.653   9.767 -0.0525  0.0955 -0.3396
 1860DOPC   C3A21824  13.520  18.464  10.030 -0.0750  0.0773  0.4059
 1860DOPC   C4A21825  13.151  18.421  10.326 -0.1519 -0.2006  0.2477
 1860DOPC   C1B21826  14.187  19.003   9.432 -0.0417 -0.1247 -0.4515
 1860DOPC   D2B21827  14.326  19.191   9.843  0.0260  0.0286  0.1768
 1860DOPC   C3B21828  14.172  19.235  10.247 -0.0609  0.0289 -0.0909
 1860DOPC   C4B21829  13.940  19.273  10.621 -0.1412 -0.0863 -0.4327
 1861DOPE   NH321830  11.281  17.137  10.030  0.1366  0.0814 -0.4076
 1861DOPE   PO421831  11.365  16.870  10.122  0.0430  0.1718 -0.1195
 1861DOPE   GL121832  11.136  16.905  10.414  0.3189 -0.1877 -0.3550
 1861DOPE   GL221833  11.183  16.563  10.470 -0.0286  0.2893  0.0641
 1861DOPE   C1A21834  11.142  16.918  10.912 -0.1069 -0.0079 -0.0179
 1861DOPE   D2A21835  11.435  16.873  11.277 -0.1152  0.1307 -0.2317
 1861DOPE   C3A21836  11.283  16.962  11.667  0.0057  0.0756  0.1845
 1861DOPE   C4A21837  10.928  16.999  11.943  0.1967  0.1158 -0.0003
 1861DOPE   C1B21838  11.640  16.566  10.721  0.2144 -0.1344  0.3977
 1861DOPE   D2B21839  11.901  16.389  11.073 -0.1501  0.1565 -0.1279
 1861DOPE   C3B21840  11.727  16.213  11.450 -0.1732  0.0810 -0.2538
 1861DOPE   C4B21841  11.555  16.177  11.869 -0.1444 -0.1726 -0.0970
 1862POSM   NC321842  17.641  15.579   9.344  0.0957  0.1508  0.0634
 1862POSM   PO421843  17.577  15.269   9.087  0.0091 -0.2737 -0.2228
 1862POSM   AM121844  17.492  15.166   9.364 -0.0279  0.2940 -0.2078
 1862POSM   AM221845  17.322  15.286   9.551 -0.3780 -0.2030  0.1533
 1862POSM   T1A21846  17.569  14.816   9.708  0.0772  0.1330  0.0919
 1862POSM   C2A21847  17.469  14.585  10.063 -0.0844 -0.1918 -0.2017
 1862POSM   C3A21848  17.417  14.738  10.536  0.3229  0.2813 -0.0562
 1862POSM   C1B21849  17.229  15.505   9.804 -0.3301  0.0263 -0.2936
 1862POSM   D2B21850  17.189  15.628  10.237 -0.2041  0.0671 -0.1587
 1862POSM   C3B21851  17.660  15.561  10.271 -0.2484 -0.1854 -0.0003
 1862POSM   C4B21852  18.124  15.491  10.089  0.1533 -0.0260 -0.0430
 1863DOPC   NC321853  19.485  19.861   8.874 -0.0543 -0.1599 -0.0439
 1863DOPC   PO421854  19.616  19.477   8.829  0.1466  0.0131 -0.0510
 1863DOPC   GL121855  19.950  19.453   9.059 -0.0459  0.0939 -0.2786
 1863DOPC   GL221856  19.687  19.304   9.287  0.4163  0.0795  0.0538
 1863DOPC   C1A21857  20.183  19.787   9.308 -0.0134  0.2951 -0.1653
 1863DOPC   D2A21858  20.398  20.112   9.625  0.0193 -0.1696 -0.2408
 1863DOPC   C3A21859  20.347  20.392  10.018  0.0616  0.2926  0.4252
 1863DOPC   C4A21860  20.309  20.814  10.174 -0.2923 -0.2066  0.0023
 1863DOPC   C1B21861  19.808  19.323   9.721 -0.0808  0.0395  0.2637
 1863DOPC   D2B21862  19.728  19.702  10.063 -0.2327  0.2838 -0.1689
 1863DOPC   C3B21863  20.074  19.959  10.258  0.2594 -0.1606 -0.0071
 1863DOPC   C4B21864  20.517  20.074  10.415 -0.0027 -0.1727 -0.0346
 1864POSM   NC321865  17.012  22.232   9.123  0.1614  0.2353 -0.2367
 1864POSM   PO421866  17.252  22.428   9.387  0.2879  0.3115  0.1766
 1864POSM   AM121867  17.311  22.370   9.719 -0.0186 -0.1108 -0.3497
 1864POSM   AM221868  17.418  22.125   9.865  0.2518  0.2281  0.1088
 1864POSM   T1A21869  17.328  22.518  10.200  0.2094  0.1494  0.5472
 1864POSM   C2A21870  17.359  22.506  10.616 -0.0270 -0.0951  0.1540
 1864POSM   C3A21871  17.390  22.204  10.949 -0.0470 -0.1830  0.1394
 1864POSM   C1B21872  17.454  22.000  10.193  0.0740  0.1569  0.2802
 1864POSM   D2B21873  17.265  21.798  10.588 -0.0650 -0.3511  0.0150
 1864POSM   C3B21874  16.990  21.482  10.721  0.2163 -0.2175  0.2490
 1864POSM   C4B21875  16.747  21.096  10.593 -0.0798  0.0218 -0.1646
 1865DOPE   NH321876  17.493  11.926   9.997  0.0894 -0.1018  0.3484
 1865DOPE   PO421877  17.732  11.767   9.919 -0.0558 -0.0146 -0.2567
 1865DOPE   GL121878  17.917  11.822  10.292  0.2390  0.0740  0.1133
 1865DOPE   GL221879  17.831  11.562  10.416  0.4179 -0.0088 -0.0003
 1865DOPE   C1A21880  18.017  12.066  10.701 -0.0698 -0.1014 -0.0527
 1865DOPE   D2A21881  18.319  12.145  11.046 -0.0361  0.1509 -0.0687
 1865DOPE   C3A21882  18.467  11.839  11.291 -0.3073 -0.0107 -0.2854
 1865DOPE   C4A21883  18.502  11.473  11.557  0.1336  0.4996  0.0553
 1865DOPE   C1B21884  17.577  11.400  10.849 -0.1978 -0.0748  0.0015
 1865DOPE   D2B21885  17.558  11.595  11.305  0.0444  0.0800 -0.3790
 1865DOPE   C3B21886  17.365  11.962  11.472 -0.1491  0.0477  0.2107
 1865DOPE   C4B21887  17.010  12.240  11.637  0.1025 -0.0548  0.0368
 1866DOPC   NC321888  25.219  15.605  10.546 -0.1080 -0.0930  0.2742
 1866DOPC   PO421889  25.080  15.813  10.239 -0.3250 -0.0011  0.0806
 1866DOPC   GL121890  24.789  15.774  10.605  0.3395  0.0974 -0.0690
 1866DOPC   GL221891  24.965  15.793  10.896 -0.4446 -0.1409  0.1171
 1866DOPC   C1A21892  24.432  15.689  10.826 -0.0075  0.0939  0.1167
 1866DOPC   D2A21893  24.029  15.588  11.062 -0.0677  0.1531  0.0439
 1866DOPC   C3A21894  24.056  15.430  11.508 -0.1359 -0.1341  0.2284
 1866DOPC   C4A21895  24.292  15.345  11.875  0.1717 -0.1965 -0.3674
 1866DOPC   C1B21896  25.116  16.146  11.109 -0.2308 -0.0943  0.3504
 1866DOPC   D2B21897  25.256  15.991  11.486  0.2269 -0.0498  0.0625
 1866DOPC   C3B21898  24.974  15.801  11.799  0.0261  0.0704 -0.1351
 1866DOPC   C4B21899  24.702  15.570  12.170 -0.3958 -0.1145 -0.0727
 1867DOPE   NH321900  23.901  14.886   9.196 -0.0484  0.2011  0.1209
 1867DOPE   PO421901  24.041  14.742   9.432 -0.0868  0.0350 -0.0582
 1867DOPE   GL121902  23.992  14.525   9.871  0.1411  0.0775  0.1859
 1867DOPE   GL221903  23.732  14.557   9.802  0.1713  0.0216 -0.1844
 1867DOPE   C1A21904  23.916  14.719  10.324 -0.0281  0.0196  0.2067
 1867DOPE   D2A21905  23.599  15.122  10.309  0.0477  0.1070  0.1096
 1867DOPE   C3A21906  23.177  14.997  10.510  0.1336  0.0802 -0.0473
 1867DOPE   C4A21907  22.990  14.649  10.828  0.2025 -0.0296  0.0602
 1867DOPE   C1B21908  23.492  14.487  10.175  0.1005 -0.0450  0.0476
 1867DOPE   D2B21909  23.519  14.707  10.570  0.1724  0.0182 -0.0256
 1867DOPE   C3B21910  23.546  14.555  11.029  0.2368 -0.0615 -0.1870
 1867DOPE   C4B21911  23.529  14.405  11.451  0.1225  0.3341 -0.3251
 1868POSM   NC321912  10.776  12.318  11.049  0.2494  0.2038  0.2436
 1868POSM   PO421913  10.605  12.659  10.962  0.1809  0.2305 -0.1699
 1868POSM   AM121914  10.733  12.762  11.272  0.3299  0.4586  0.3964
 1868POSM   AM221915  10.564  12.923  11.477 -0.1476 -0.0744 -0.0141
 1868POSM   T1A21916  10.958  12.673  11.704 -0.2496 -0.0779 -0.1026
 1868POSM   C2A21917  11.281  12.634  11.981 -0.1249 -0.1623 -0.1530
 1868POSM   C3A21918  11.546  12.865  12.253 -0.2018 -0.0599 -0.0346
 1868POSM   C1B21919  10.669  13.036  11.743 -0.2581  0.0937  0.0968
 1868POSM   D2B21920  10.511  13.079  12.206  0.1440 -0.2120 -0.2413
 1868POSM   C3B21921  10.778  13.044  12.613  0.2914  0.1569 -0.0610
 1868POSM   C4B21922  10.731  13.151  13.048 -0.0013 -0.0566 -0.1829
 1869DOPC   NC321923  17.949  20.605   9.050  0.0821 -0.1630  0.0334
 1869DOPC   PO421924  17.763  20.222   9.010 -0.0638 -0.1313 -0.2210
 1869DOPC   GL121925  17.764  20.233   9.397 -0.1473  0.3905  0.1651
 1869DOPC   GL221926  17.818  20.026   9.562 -0.0100 -0.2199 -0.0902
 1869DOPC   C1A21927  17.435  20.375   9.715  0.0758  0.1397 -0.0329
 1869DOPC   D2A21928  17.328  20.318  10.175 -0.1189 -0.0925 -0.1075
 1869DOPC   C3A21929  17.276  20.523  10.583 -0.3196 -0.2511  0.0471
 1869DOPC   C4A21930  17.158  20.875  10.843 -0.2381 -0.1045 -0.1713
 1869DOPC   C1B21931  18.234  20.144   9.839  0.0124 -0.3205  0.0612
 1869DOPC   D2B21932  18.443  19.985  10.231 -0.2625 -0.0623  0.0147
 1869DOPC   C3B21933  18.296  20.336  10.508  0.2395  0.1113 -0.0932
 1869DOPC   C4B21934  18.520  20.716  10.552 -0.1238 -0.0359 -0.3377
 1870POSM   NC321935  20.058  13.809   8.621  0.1602  0.3117 -0.2422
 1870POSM   PO421936  19.952  14.121   8.866 -0.0260 -0.3053  0.0039
 1870POSM   AM121937  19.820  14.181   9.162  0.1858  0.3492  0.2356
 1870POSM   AM221938  19.643  14.010   9.360  0.0853 -0.1287 -0.1317
 1870POSM   T1A21939  19.642  14.473   9.525  0.1471 -0.1563 -0.3510
 1870POSM   C2A21940  19.494  14.710   9.903  0.0394 -0.1241 -0.2764
 1870POSM   C3A21941  19.590  14.756  10.332 -0.1474 -0.3183  0.0786
 1870POSM   C1B21942  19.609  13.849   9.644  0.2634  0.0259  0.2564
 1870POSM   D2B21943  19.338  13.581   9.937 -0.2421 -0.0958 -0.1969
 1870POSM   C3B21944  19.439  13.383  10.437  0.1883  0.0277 -0.0481
 1870POSM   C4B21945  19.450  13.416  10.914 -0.1634 -0.3156 -0.1402
 1871POSM   NC321946  10.464  16.113  10.179  0.0646 -0.2145 -0.0570
 1871POSM   PO421947  10.854  16.010  10.098 -0.1652 -0.1284 -0.0178
 1871POSM   AM121948  10.836  15.981  10.427 -0.0201  0.0472  0.0283
 1871POSM   AM221949  10.629  15.836  10.597  0.0987  0.2732  0.1446
 1871POSM   T1A21950  11.085  15.951  10.879 -0.4825 -0.2411  0.2956
 1871POSM   C2A21951  11.503  16.018  11.078  0.1173  0.0943 -0.0634
 1871POSM   C3A21952  11.952  15.887  11.139 -0.0657 -0.5384 -0.1281
 1871POSM   C1B21953  10.632  15.731  10.943  0.2949 -0.3174  0.2332
 1871POSM   D2B21954  10.608  15.791  11.424 -0.3922  0.1051 -0.1313
 1871POSM   C3B21955  10.758  15.967  11.828  0.0464 -0.2019 -0.2695
 1871POSM   C4B21956  11.063  16.091  12.173  0.0131  0.0684  0.1463
 1872DOPC   NC321957  19.711  11.675   9.606 -0.0326  0.0030 -0.0564
 1872DOPC   PO421958  19.507  11.580   9.934  0.1395  0.0663 -0.1545
 1872DOPC   GL121959  19.748  11.657  10.323  0.1906  0.0773  0.1693
 1872DOPC   GL221960  19.767  11.953  10.243 -0.0711  0.0704  0.1978
 1872DOPC   C1A21961  19.783  11.946  10.719 -0.1811  0.1346  0.1294
 1872DOPC   D2A21962  20.154  12.106  10.988  0.2811  0.1460 -0.0151
 1872DOPC   C3A21963  20.566  11.912  11.089 -0.2586 -0.3861  0.2480
 1872DOPC   C4A21964  21.001  11.851  11.308 -0.1316 -0.0778  0.1135
 1872DOPC   C1B21965  19.763  12.436  10.221 -0.2381 -0.1835  0.0303
 1872DOPC   D2B21966  19.628  12.833  10.423  0.1269 -0.0275  0.2349
 1872DOPC   C3B21967  19.706  12.973  10.841 -0.1406 -0.2073 -0.0149
 1872DOPC   C4B21968  19.772  13.178  11.254 -0.0584 -0.1657 -0.4720
 1873DOPE   NH321969  13.484  12.941   9.928 -0.1945 -0.3677  0.4293
 1873DOPE   PO421970  13.783  13.066   9.976 -0.2658  0.0445 -0.1225
 1873DOPE   GL121971  13.826  13.368  10.307 -0.4417 -0.1369 -0.0833
 1873DOPE   GL221972  13.702  13.418  10.552 -0.1109 -0.2830 -0.0455
 1873DOPE   C1A21973  14.199  13.542  10.522  0.0818 -0.1135 -0.0505
 1873DOPE   D2A21974  14.538  13.382  10.696 -0.1267  0.3080  0.0677
 1873DOPE   C3A21975  14.815  13.600  10.992  0.0324  0.1881 -0.1440
 1873DOPE   C4A21976  15.079  13.958  11.155 -0.0187 -0.0908 -0.1564
 1873DOPE   C1B21977  13.760  13.828  10.727 -0.0195  0.0182 -0.3617
 1873DOPE   D2B21978  13.565  14.019  11.115  0.2585  0.1544  0.2540
 1873DOPE   C3B21979  13.652  14.258  11.518 -0.1915 -0.0049  0.1223
 1873DOPE   C4B21980  14.101  14.452  11.489 -0.2738 -0.0467  0.0002
 1874POSM   NC321981  15.331  24.416   9.588 -0.1415 -0.0442 -0.6266
 1874POSM   PO421982  15.185  24.201   9.845  0.1649 -0.1723 -0.2166
 1874POSM   AM121983  15.259  24.118  10.147  0.2409 -0.1122 -0.1036
 1874POSM   AM221984  15.133  23.937  10.284  0.0384  0.2241 -0.2429
 1874POSM   T1A21985  15.373  24.231  10.590 -0.1130  0.0333  0.0732
 1874POSM   C2A21986  15.413  24.389  10.989 -0.2013 -0.2452  0.1116
 1874POSM   C3A21987  15.670  24.393  11.343  0.1589 -0.1038 -0.2658
 1874POSM   C1B21988  14.969  23.899  10.549  0.1365 -0.0486  0.0309
 1874POSM   D2B21989  14.626  23.944  10.914 -0.4745  0.1386  0.5570
 1874POSM   C3B21990  14.836  24.176  11.267  0.2372  0.1376 -0.0039
 1874POSM   C4B21991  14.837  24.138  11.722  0.0708  0.1065 -0.1910
 1875POSM   NC321992  13.809  12.680   9.575 -0.0400  0.0875  0.1808
 1875POSM   PO421993  13.769  12.451   9.882  0.0493  0.0616  0.0435
 1875POSM   AM121994  13.922  12.577  10.193  0.2828 -0.2296 -0.2362
 1875POSM   AM221995  13.911  12.805  10.362 -0.0978  0.1549 -0.4611
 1875POSM   T1A21996  14.201  12.487  10.621  0.2071  0.0776  0.1146
 1875POSM   C2A21997  14.672  12.392  10.789 -0.3924 -0.1456 -0.2510
 1875POSM   C3A21998  14.655  12.188  11.238 -0.3058 -0.2183 -0.0722
 1875POSM   C1B21999  13.995  12.939  10.700 -0.0890 -0.0870 -0.0131
 1875POSM   D2B22000  14.051  13.298  10.943  0.1253 -0.0204  0.0538
 1875POSM   C3B22001  14.354  13.306  11.331 -0.4385 -0.0710  0.0177
 1875POSM   C4B22002  14.810  13.313  11.513 -0.1096 -0.0338  0.3723
 1876DOPS   CNO22003  21.201  19.771   8.646  0.0693 -0.3642 -0.4279
 1876DOPS   PO422004  21.113  19.543   8.967  0.2218 -0.0857 -0.0719
 1876DOPS   GL122005  21.135  19.622   9.356 -0.0094 -0.2767 -0.1054
 1876DOPS   GL222006  21.183  19.382   9.537 -0.3629 -0.3399 -0.0317
 1876DOPS   C1A22007  21.065  19.936   9.674  0.0225 -0.2422 -0.0786
 1876DOPS   D2A22008  21.308  20.139   9.994  0.0062 -0.1768 -0.3869
 1876DOPS   C3A22009  21.079  20.266  10.325  0.1277 -0.1001  0.2681
 1876DOPS   C4A22010  21.337  20.269  10.741 -0.3843  0.0639 -0.2931
 1876DOPS   C1B22011  21.152  19.249  10.003  0.0113  0.1814  0.0344
 1876DOPS   D2B22012  20.931  19.275  10.429 -0.0533  0.2415 -0.2843
 1876DOPS   C3B22013  20.569  19.176  10.711  0.0018  0.3132 -0.1435
 1876DOPS   C4B22014  20.339  18.844  10.622 -0.1916 -0.1145 -0.1607
 1877DOPC   NC322015  14.644  20.693   9.503 -0.2763 -0.0868  0.3474
 1877DOPC   PO422016  14.560  20.333   9.408  0.2139  0.0133  0.0595
 1877DOPC   GL122017  14.493  20.263   9.757 -0.0456  0.1192  0.2630
 1877DOPC   GL222018  14.233  20.410   9.773 -0.1012  0.1362  0.1647
 1877DOPC   C1A22019  14.517  20.131  10.190 -0.0408  0.4088  0.1040
 1877DOPC   D2A22020  14.300  20.060  10.602  0.1403  0.1853 -0.1544
 1877DOPC   C3A22021  14.524  20.075  11.025  0.0938  0.1486 -0.0384
 1877DOPC   C4A22022  14.926  19.985  11.250 -0.3913  0.1205 -0.2437
 1877DOPC   C1B22023  14.155  20.546  10.162 -0.0249 -0.1424 -0.1464
 1877DOPC   D2B22024  14.081  20.794  10.619 -0.2610  0.0826  0.0922
 1877DOPC   C3B22025  13.798  20.736  11.002 -0.2076 -0.2122  0.0335
 1877DOPC   C4B22026  13.451  20.558  11.139  0.1479  0.2624  0.1339
 1878POSM   NC322027   9.612  17.548  10.269  0.0643 -0.2806  0.1328
 1878POSM   PO422028   9.977  17.521  10.082 -0.0883 -0.0412 -0.1187
 1878POSM   AM122029  10.073  17.497  10.389 -0.4334  0.0026 -0.2684
 1878POSM   AM222030  10.309  17.588  10.525 -0.1759 -0.0613  0.4216
 1878POSM   T1A22031  10.121  17.211  10.795 -0.1585  0.0751  0.2268
 1878POSM   C2A22032  10.065  16.868  11.121  0.1693  0.2864 -0.0530
 1878POSM   C3A22033   9.621  16.768  11.211 -0.1601  0.0954 -0.0939
 1878POSM   C1B22034  10.506  17.905  10.528  0.4468 -0.0985  0.0193
 1878POSM   D2B22035  10.693  18.324  10.506 -0.1420 -0.0909  0.0904
 1878POSM   C3B22036  11.050  18.470  10.774  0.1518  0.2547  0.1314
 1878POSM   C4B22037  11.110  18.907  10.992  0.2660 -0.1864 -0.0175
 1879DOPE   NH322038  16.301  12.575  10.135 -0.0837 -0.4599 -0.1564
 1879DOPE   PO422039  16.198  12.271  10.053  0.1218 -0.0904 -0.0416
 1879DOPE   GL122040  15.934  12.461  10.412 -0.2236  0.1252  0.3844
 1879DOPE   GL222041  16.151  12.570  10.635  0.2729  0.2186 -0.1287
 1879DOPE   C1A22042  15.743  12.338  10.869  0.1070  0.0514  0.0330
 1879DOPE   D2A22043  15.822  11.906  11.073  0.1178 -0.2388  0.0473
 1879DOPE   C3A22044  16.260  11.828  11.215 -0.1283  0.1224  0.1868
 1879DOPE   C4A22045  16.462  11.662  11.572 -0.5026 -0.1424  0.1369
 1879DOPE   C1B22046  16.580  12.636  10.936  0.0292 -0.2804 -0.0367
 1879DOPE   D2B22047  16.883  12.744  11.237  0.0066  0.1986  0.1146
 1879DOPE   C3B22048  16.976  13.146  11.446 -0.1042 -0.0105  0.1855
 1879DOPE   C4B22049  16.997  13.254  11.854  0.1187  0.2430 -0.0160
 1880POSM   NC322050  12.553  19.250   8.717  0.0239 -0.1814 -0.0709
 1880POSM   PO422051  12.444  19.497   9.017  0.4960  0.2250  0.0630
 1880POSM   AM122052  12.569  19.409   9.309  0.0272  0.1507 -0.3754
 1880POSM   AM222053  12.383  19.368   9.592 -0.0972  0.0459  0.2137
 1880POSM   T1A22054  12.874  19.320   9.705 -0.0663 -0.0734 -0.3207
 1880POSM   C2A22055  13.267  19.146   9.935 -0.0052 -0.4024 -0.0289
 1880POSM   C3A22056  13.384  18.886  10.321  0.0080 -0.1048 -0.1413
 1880POSM   C1B22057  12.384  19.292   9.887  0.1136  0.0969  0.1601
 1880POSM   D2B22058  12.450  19.211  10.343  0.0699 -0.1920  0.1379
 1880POSM   C3B22059  12.652  18.873  10.535 -0.1075 -0.1264  0.0763
 1880POSM   C4B22060  12.909  18.572  10.761  0.2004 -0.0674 -0.0646
 1881POSM   NC322061  12.186  19.767   9.763 -0.1591  0.2563  0.0021
 1881POSM   PO422062  11.828  19.907   9.756 -0.1605  0.0789  0.0260
 1881POSM   AM122063  11.820  19.778  10.038 -0.2932  0.1031  0.0204
 1881POSM   AM222064  11.922  19.549  10.138  0.1273 -0.2583 -0.2778
 1881POSM   T1A22065  11.676  19.898  10.485 -0.2136  0.0754 -0.0061
 1881POSM   C2A22066  11.722  20.289  10.637  0.0138  0.3717 -0.0883
 1881POSM   C3A22067  11.894  20.740  10.591 -0.5083 -0.0521 -0.1006
 1881POSM   C1B22068  12.245  19.590  10.261  0.2991 -0.1216  0.3176
 1881POSM   D2B22069  12.651  19.683  10.485  0.1434  0.1829 -0.3437
 1881POSM   C3B22070  12.777  19.367  10.774 -0.2968 -0.0710 -0.1498
 1881POSM   C4B22071  13.039  19.016  10.908  0.2561  0.2367  0.1460
 1882POSM   NC322072  11.962  20.161   9.320  0.0431 -0.2270 -0.0654
 1882POSM   PO422073  12.141  20.250   9.643 -0.0272  0.0555  0.0528
 1882POSM   AM122074  12.244  20.220   9.959 -0.1860 -0.0722  0.0067
 1882POSM   AM222075  12.164  20.058  10.161 -0.2018  0.0978  0.1052
 1882POSM   T1A22076  12.623  20.186  10.281  0.2957 -0.0480 -0.0461
 1882POSM   C2A22077  12.715  20.095  10.718  0.1153  0.3160 -0.1375
 1882POSM   C3A22078  12.501  19.947  11.094 -0.1049  0.1321 -0.1935
 1882POSM   C1B22079  12.176  20.085  10.511  0.1232  0.0232  0.0701
 1882POSM   D2B22080  12.213  20.282  10.879  0.1648 -0.0455  0.0902
 1882POSM   C3B22081  12.576  20.454  11.215 -0.2124  0.3503  0.4316
 1882POSM   C4B22082  13.017  20.604  11.359  0.2391  0.0946  0.0584
 1883DOPS   CNO22083  22.412  17.840   9.679 -0.1179 -0.1953 -0.0945
 1883DOPS   PO422084  22.093  17.993   9.696  0.0202 -0.0272  0.0783
 1883DOPS   GL122085  22.201  18.096  10.047 -0.1628 -0.2265 -0.0387
 1883DOPS   GL222086  21.958  18.286  10.049  0.0930  0.5386 -0.2502
 1883DOPS   C1A22087  22.185  18.267  10.476 -0.0274 -0.0512 -0.1622
 1883DOPS   D2A22088  22.275  18.607  10.769 -0.2006 -0.0245 -0.1787
 1883DOPS   C3A22089  22.551  18.953  10.761  0.0831 -0.0182 -0.2172
 1883DOPS   C4A22090  22.969  19.111  10.970 -0.1400 -0.2327 -0.0458
 1883DOPS   C1B22091  21.737  17.926  10.210  0.0990 -0.0950 -0.2116
 1883DOPS   D2B22092  21.583  17.537  10.330 -0.1448 -0.0849  0.0970
 1883DOPS   C3B22093  21.472  17.473  10.781  0.0092  0.3526  0.0083
 1883DOPS   C4B22094  21.456  17.097  11.013  0.1558  0.0132  0.0086
 1884POSM   NC322095  19.211  13.809   9.202  0.0011 -0.0317 -0.0708
 1884POSM   PO422096  18.845  13.654   9.232  0.3514 -0.0182  0.2467
 1884POSM   AM122097  18.766  13.654   9.582 -0.3503  0.0385 -0.1840
 1884POSM   AM222098  18.897  13.803   9.800 -0.0231  0.1691  0.1505
 1884POSM   T1A22099  18.479  13.554   9.991  0.0892 -0.0457 -0.3199
 1884POSM   C2A22100  18.242  13.300  10.290  0.0693 -0.0181  0.0111
 1884POSM   C3A22101  18.486  13.167  10.687 -0.2634 -0.5394  0.1911
 1884POSM   C1B22102  18.861  13.856  10.087 -0.0683  0.0591 -0.2506
 1884POSM   D2B22103  18.608  13.713  10.451  0.0437  0.0648 -0.1284
 1884POSM   C3B22104  18.875  13.496  10.808  0.0800  0.0258  0.2627
 1884POSM   C4B22105  18.638  13.297  11.110 -0.0637 -0.1970  0.2014
 1885DOPE   NH322106  22.609  16.433   9.734 -0.1583 -0.2574  0.1073
 1885DOPE   PO422107  22.390  16.407   9.540 -0.1413 -0.1091  0.2932
 1885DOPE   GL122108  22.197  16.567   9.886 -0.1323 -0.1276 -0.3947
 1885DOPE   GL222109  22.253  16.295  10.022  0.2308  0.0293  0.1930
 1885DOPE   C1A22110  22.061  16.878  10.266  0.0090 -0.0163 -0.0260
 1885DOPE   D2A22111  21.913  17.201  10.552  0.0608  0.1098  0.2320
 1885DOPE   C3A22112  21.929  17.165  11.032 -0.0434 -0.2534  0.2304
 1885DOPE   C4A22113  21.996  17.098  11.510 -0.3276 -0.2082 -0.1091
 1885DOPE   C1B22114  22.367  16.418  10.450  0.3840 -0.2545  0.0955
 1885DOPE   D2B22115  22.687  16.360  10.777  0.0116 -0.2648 -0.1383
 1885DOPE   C3B22116  22.692  16.320  11.253  0.1548 -0.0818  0.0240
 1885DOPE   C4B22117  22.859  16.206  11.627  0.1584  0.2048  0.0573
 1886DOPE   NH322118  23.185  23.773   9.554 -0.0993  0.0291 -0.3745
 1886DOPE   PO422119  23.015  23.558   9.658  0.1011 -0.1011 -0.0562
 1886DOPE   GL122120  23.191  23.562   9.965 -0.0372 -0.1429  0.2551
 1886DOPE   GL222121  23.451  23.392   9.885  0.0062 -0.1244 -0.0325
 1886DOPE   C1A22122  23.157  23.694  10.431  0.1877  0.3133 -0.0427
 1886DOPE   D2A22123  22.927  23.739  10.779  0.2780  0.2525  0.2362
 1886DOPE   C3A22124  22.649  24.109  10.860 -0.0918  0.0252  0.2073
 1886DOPE   C4A22125  22.441  24.548  11.015 -0.0518 -0.0615 -0.1951
 1886DOPE   C1B22126  23.259  23.211  10.255 -0.0147 -0.2684  0.0290
 1886DOPE   D2B22127  23.337  23.293  10.681  0.1117  0.0490  0.2452
 1886DOPE   C3B22128  23.534  23.192  11.012  0.0471 -0.0081  0.0379
 1886DOPE   C4B22129  23.459  23.331  11.485  0.1028  0.0516 -0.1982
 1887DOPE   NH322130  14.859  17.502   8.915 -0.0546 -0.0087  0.0434
 1887DOPE   PO422131  15.134  17.647   9.024  0.0719 -0.4138  0.0944
 1887DOPE   GL122132  15.073  17.594   9.372 -0.4894 -0.1462  0.3466
 1887DOPE   GL222133  15.069  17.904   9.435  0.0038  0.1624 -0.2797
 1887DOPE   C1A22134  15.298  17.315   9.630  0.0800  0.1096 -0.0107
 1887DOPE   D2A22135  15.466  16.885   9.696  0.1917 -0.1257 -0.1620
 1887DOPE   C3A22136  15.310  16.470   9.841  0.0095  0.1699 -0.1251
 1887DOPE   C4A22137  15.133  16.130  10.082  0.5370 -0.2860 -0.2011
 1887DOPE   C1B22138  15.085  18.042   9.865 -0.0083  0.0298 -0.1461
 1887DOPE   D2B22139  14.986  18.328  10.210 -0.2401  0.1111  0.1607
 1887DOPE   C3B22140  14.635  18.625  10.282 -0.0541 -0.0860  0.3409
 1887DOPE   C4B22141  14.277  18.616  10.516 -0.1902 -0.0175 -0.2191
 1888DOPE   NH322142  12.312  13.269  10.344 -0.0629 -0.1036 -0.2848
 1888DOPE   PO422143  12.128  13.386  10.547  0.3648 -0.2142  0.1942
 1888DOPE   GL122144  12.226  13.545  10.931 -0.2194 -0.2060 -0.1733
 1888DOPE   GL222145  12.057  13.691  10.965 -0.0698 -0.1734 -0.0382
 1888DOPE   C1A22146  12.466  13.450  11.289  0.0505  0.2114  0.0870
 1888DOPE   D2A22147  12.683  13.800  11.534  0.1262  0.1780 -0.0038
 1888DOPE   C3A22148  12.573  14.211  11.440 -0.0287  0.1443 -0.2161
 1888DOPE   C4A22149  12.277  14.389  11.116 -0.0718  0.0495  0.1832
 1888DOPE   C1B22150  12.129  13.895  11.311 -0.0992 -0.1409  0.0200
 1888DOPE   D2B22151  12.238  13.659  11.662  0.0106  0.0085  0.1823
 1888DOPE   C3B22152  12.239  13.593  12.111  0.0764  0.0355  0.1523
 1888DOPE   C4B22153  12.333  13.722  12.564 -0.0947  0.1530  0.2813
 1889POSM   NC322154   7.469  14.140  11.798  0.0475  0.2604  0.3483
 1889POSM   PO422155   7.596  14.413  11.495 -0.0263  0.1350  0.2176
 1889POSM   AM122156   7.718  14.539  11.771  0.0134 -0.1589 -0.1957
 1889POSM   AM222157   7.743  14.560  12.067 -0.2231 -0.0549 -0.2317
 1889POSM   T1A22158   8.075  14.877  11.981 -0.0686 -0.1156 -0.1295
 1889POSM   C2A22159   8.370  15.127  12.293  0.2420  0.1010 -0.3194
 1889POSM   C3A22160   8.712  15.422  12.383  0.2445 -0.0962  0.1247
 1889POSM   C1B22161   7.633  14.463  12.379 -0.0119 -0.2276 -0.0852
 1889POSM   D2B22162   7.681  14.461  12.801  0.1360  0.1890  0.0861
 1889POSM   C3B22163   7.914  14.398  13.216  0.0145 -0.1360 -0.3730
 1889POSM   C4B22164   8.103  14.232  13.615 -0.1955  0.0451  0.2195
 1890DOPC   NC322165  17.121  20.904   9.181  0.1876  0.0066  0.2596
 1890DOPC   PO422166  16.736  20.736   9.237  0.1843  0.0571  0.4226
 1890DOPC   GL122167  16.868  20.916   9.546  0.1316 -0.2804 -0.1350
 1890DOPC   GL222168  16.751  20.759   9.751  0.2818  0.1576  0.0847
 1890DOPC   C1A22169  17.265  20.828   9.714 -0.0927  0.1644 -0.0331
 1890DOPC   D2A22170  17.532  20.780  10.062 -0.5753  0.0789 -0.0125
 1890DOPC   C3A22171  17.930  20.910   9.983 -0.1303  0.0277  0.0102
 1890DOPC   C4A22172  18.239  21.061  10.337 -0.0941  0.2044 -0.0590
 1890DOPC   C1B22173  16.473  20.649  10.073  0.1708 -0.1007 -0.2018
 1890DOPC   D2B22174  16.376  20.293  10.330  0.0214  0.0602  0.1146
 1890DOPC   C3B22175  16.241  19.881  10.242  0.2049 -0.0129  0.0784
 1890DOPC   C4B22176  15.901  19.611  10.291  0.0179 -0.0676  0.1244
 1891DOPC   NC322177  16.968  19.867   9.370 -0.0575 -0.0031 -0.1930
 1891DOPC   PO422178  17.275  20.027   9.173  0.1358 -0.0346  0.1418
 1891DOPC   GL122179  17.384  19.887   9.467 -0.0347 -0.0499  0.3397
 1891DOPC   GL222180  17.337  19.556   9.470 -0.0657  0.1523 -0.2886
 1891DOPC   C1A22181  17.175  19.939   9.853  0.0989  0.0934  0.2605
 1891DOPC   D2A22182  16.887  19.949  10.215  0.0178  0.2544  0.1306
 1891DOPC   C3A22183  16.872  20.369  10.405  0.1285  0.0115  0.0363
 1891DOPC   C4A22184  16.663  20.642  10.742  0.1795  0.0073  0.1305
 1891DOPC   C1B22185  17.544  19.627   9.877 -0.0193 -0.2069  0.1005
 1891DOPC   D2B22186  17.517  19.892  10.248  0.2382  0.0711  0.0197
 1891DOPC   C3B22187  17.689  20.104  10.647 -0.1881 -0.1288  0.0443
 1891DOPC   C4B22188  17.620  20.403  10.944 -0.1642  0.0885  0.0769
 1892POSM   NC322189  11.720  13.743  10.594  0.3114  0.0395 -0.1578
 1892POSM   PO422190  11.707  13.404  10.771  0.0741  0.2530 -0.1630
 1892POSM   AM122191  11.488  13.572  10.941  0.1316  0.0787  0.1177
 1892POSM   AM222192  11.482  13.821  11.091  0.1970  0.1796  0.1934
 1892POSM   T1A22193  11.324  13.493  11.396  0.0953  0.2242  0.1065
 1892POSM   C2A22194  11.170  13.305  11.824  0.2076  0.0617 -0.0415
 1892POSM   C3A22195  11.073  13.051  12.197  0.3994 -0.0010  0.1976
 1892POSM   C1B22196  11.575  13.993  11.341 -0.2277 -0.0234  0.0191
 1892POSM   D2B22197  11.908  14.279  11.515 -0.1057 -0.1567  0.3528
 1892POSM   C3B22198  11.883  14.461  11.979  0.0895 -0.1086  0.0179
 1892POSM   C4B22199  11.740  14.931  11.993 -0.0653 -0.3916 -0.0025
 1893POSM   NC322200  21.265  16.560   9.301 -0.1821 -0.0674  0.1599
 1893POSM   PO422201  21.425  16.933   9.255 -0.2666  0.2098 -0.0645
 1893POSM   AM122202  21.368  17.026   9.550  0.2845 -0.0940  0.2210
 1893POSM   AM222203  21.223  16.938   9.781 -0.1052  0.0505  0.1203
 1893POSM   T1A22204  21.355  17.369   9.957  0.2540 -0.4611 -0.1537
 1893POSM   C2A22205  21.202  17.808  10.083  0.0075  0.0624  0.0089
 1893POSM   C3A22206  20.892  17.977  10.372  0.0105 -0.1888  0.1285
 1893POSM   C1B22207  21.038  17.002  10.065  0.0335 -0.0763 -0.4430
 1893POSM   D2B22208  20.650  17.002  10.255  0.5012  0.0963  0.3622
 1893POSM   C3B22209  20.704  16.737  10.693 -0.1035  0.3377 -0.4454
 1893POSM   C4B22210  20.698  16.758  11.149 -0.0607  0.1048  0.2718
 1894DOPS   CNO22211  22.777  17.133   9.288 -0.2643  0.3355 -0.0015
 1894DOPS   PO422212  22.752  16.930   9.619  0.2422  0.3244  0.1115
 1894DOPS   GL122213  22.689  17.073   9.997  0.0190  0.1619  0.0842
 1894DOPS   GL222214  22.545  16.816  10.115 -0.2837  0.0018  0.4821
 1894DOPS   C1A22215  22.841  17.179  10.400 -0.0298  0.0130 -0.1116
 1894DOPS   D2A22216  23.168  17.101  10.699  0.1496  0.1928  0.0777
 1894DOPS   C3A22217  23.098  17.412  11.077  0.3014  0.0760 -0.1670
 1894DOPS   C4A22218  23.129  17.745  11.408  0.1769  0.1772 -0.0600
 1894DOPS   C1B22219  22.610  16.817  10.591 -0.2306  0.2846  0.0992
 1894DOPS   D2B22220  22.720  17.032  11.002 -0.0969 -0.3589  0.2462
 1894DOPS   C3B22221  22.418  16.948  11.348 -0.1112 -0.0920  0.0779
 1894DOPS   C4B22222  22.230  16.519  11.338  0.0126  0.0213 -0.1193
 1895DOPE   NH322223  16.440  18.125   9.097 -0.1086  0.1856  0.0313
 1895DOPE   PO422224  16.290  17.835   9.050  0.3248 -0.4398 -0.0513
 1895DOPE   GL122225  16.265  17.928   9.525  0.1160  0.2968 -0.0132
 1895DOPE   GL222226  16.042  18.022   9.497  0.0515  0.1550  0.4036
 1895DOPE   C1A22227  16.065  17.722   9.862  0.0037  0.0069 -0.0380
 1895DOPE   D2A22228  15.732  17.633  10.192  0.2936  0.1723 -0.1161
 1895DOPE   C3A22229  15.340  17.380  10.168 -0.0974 -0.0850  0.1733
 1895DOPE   C4A22230  14.885  17.325  10.287  0.3151  0.1536  0.0242
 1895DOPE   C1B22231  15.677  18.284   9.619  0.1946 -0.0456 -0.2684
 1895DOPE   D2B22232  15.347  18.526   9.757  0.2092 -0.1205 -0.0377
 1895DOPE   C3B22233  15.042  18.824  10.054 -0.3405  0.0638 -0.2566
 1895DOPE   C4B22234  15.153  18.876  10.521 -0.0627  0.2219 -0.0180
 1896DOPC   NC322235  16.725  14.214   9.459 -0.4322 -0.2484 -0.1001
 1896DOPC   PO422236  17.014  14.250   9.122  0.0492 -0.1606  0.1740
 1896DOPC   GL122237  16.952  14.609   9.345  0.0769  0.2615  0.2554
 1896DOPC   GL222238  17.049  14.907   9.386 -0.1118  0.1419  0.0634
 1896DOPC   C1A22239  16.664  14.667   9.656 -0.2768  0.2732  0.0648
 1896DOPC   D2A22240  16.590  14.807  10.074  0.1189  0.2088  0.0405
 1896DOPC   C3A22241  16.886  14.653  10.440  0.0931  0.3205 -0.0273
 1896DOPC   C4A22242  17.032  14.848  10.812 -0.1022  0.2042 -0.1638
 1896DOPC   C1B22243  17.047  14.870   9.815  0.1300 -0.2999 -0.1618
 1896DOPC   D2B22244  17.364  15.102  10.091  0.3253 -0.1023 -0.3805
 1896DOPC   C3B22245  17.733  15.280   9.823 -0.1368 -0.5529 -0.0006
 1896DOPC   C4B22246  18.032  15.221   9.456  0.2002 -0.2010  0.0716
 1897DOPC   NC322247  13.693  18.229   9.421 -0.1362 -0.2143  0.1798
 1897DOPC   PO422248  13.502  17.890   9.417 -0.2896 -0.0681  0.0838
 1897DOPC   GL122249  13.685  17.905   9.836 -0.0772  0.1537 -0.2741
 1897DOPC   GL222250  13.921  18.009   9.898  0.0486  0.2114  0.2053
 1897DOPC   C1A22251  13.696  17.946  10.296 -0.1632  0.0624  0.2325
 1897DOPC   D2A22252  14.052  18.104  10.483 -0.2089 -0.6236  0.1368
 1897DOPC   C3A22253  14.048  18.318  10.901 -0.2088 -0.0487 -0.0174
 1897DOPC   C4A22254  13.974  18.829  10.919 -0.2588 -0.0110  0.0926
 1897DOPC   C1B22255  14.073  18.380  10.073  0.0112  0.0283  0.2080
 1897DOPC   D2B22256  13.926  18.840  10.233 -0.2139 -0.2901  0.0183
 1897DOPC   C3B22257  13.734  18.516  10.513  0.0695 -0.4160 -0.3636
 1897DOPC   C4B22258  13.629  18.100  10.797 -0.1795 -0.1997  0.1065
 1898DOPC   NC322259  14.713  22.472   9.645  0.1758 -0.0410 -0.2187
 1898DOPC   PO422260  15.040  22.620   9.822 -0.1626  0.1841  0.1019
 1898DOPC   GL122261  15.137  22.410  10.234 -0.1750 -0.2304 -0.2652
 1898DOPC   GL222262  15.192  22.129  10.147 -0.0756 -0.2954  0.0993
 1898DOPC   C1A22263  14.941  22.260  10.617  0.4493  0.0535  0.0228
 1898DOPC   D2A22264  14.933  22.326  11.111  0.0332  0.0733  0.1913
 1898DOPC   C3A22265  14.760  22.694  11.201  0.0664 -0.1824  0.1532
 1898DOPC   C4A22266  14.873  23.094  11.450  0.0386 -0.0244 -0.2397
 1898DOPC   C1B22267  15.301  21.980  10.601 -0.0103 -0.1690 -0.0018
 1898DOPC   D2B22268  15.207  21.652  10.920  0.1020 -0.1443  0.1254
 1898DOPC   C3B22269  14.891  21.383  10.764  0.2245  0.1283  0.0605
 1898DOPC   C4B22270  14.682  21.018  10.909 -0.0983 -0.2468  0.0926
 1899DOPE   NH322271  22.450  14.188   9.413  0.0272  0.0627  0.3942
 1899DOPE   PO422272  22.170  14.042   9.541 -0.2456  0.0021  0.0290
 1899DOPE   GL122273  22.019  13.930   9.868  0.1537 -0.4648 -0.4557
 1899DOPE   GL222274  22.184  13.908  10.094  0.0780  0.1138 -0.0871
 1899DOPE   C1A22275  21.820  13.485   9.874 -0.0874  0.0859  0.2015
 1899DOPE   D2A22276  21.648  13.067  10.102 -0.0679  0.2346 -0.4242
 1899DOPE   C3A22277  21.526  12.893  10.509  0.0708  0.2913 -0.1844
 1899DOPE   C4A22278  21.307  12.619  10.747 -0.0437  0.0991 -0.3851
 1899DOPE   C1B22279  21.866  13.828  10.431 -0.2797 -0.1412 -0.4107
 1899DOPE   D2B22280  21.875  13.678  10.902 -0.1728 -0.1424  0.1665
 1899DOPE   C3B22281  21.852  13.204  10.908  0.1124 -0.1615 -0.0557
 1899DOPE   C4B22282  21.954  12.844  11.167  0.1518 -0.1639  0.3079
 1900DOPC   NC322283  17.810  18.962   8.959 -0.1720 -0.0620  0.0815
 1900DOPC   PO422284  17.463  18.838   8.813  0.0230 -0.0537  0.1801
 1900DOPC   GL122285  17.504  18.764   9.299 -0.1178  0.2959 -0.1284
 1900DOPC   GL222286  17.261  18.620   9.413  0.2265  0.0648 -0.0420
 1900DOPC   C1A22287  17.435  19.042   9.690  0.3513 -0.2532 -0.2246
 1900DOPC   D2A22288  17.423  19.035  10.099 -0.0773  0.2086  0.1144
 1900DOPC   C3A22289  17.628  19.371  10.329  0.1356 -0.0998 -0.0602
 1900DOPC   C4A22290  17.607  19.613  10.695  0.1093  0.0455  0.3024
 1900DOPC   C1B22291  17.366  18.556   9.873  0.1831  0.1309  0.0983
 1900DOPC   D2B22292  17.502  18.168  10.036  0.2611  0.1880 -0.1800
 1900DOPC   C3B22293  17.257  18.131  10.463  0.1052  0.0489 -0.3909
 1900DOPC   C4B22294  16.926  17.991  10.730  0.0024 -0.5560  0.1717
 1901POSM   NC322295  13.387  16.458   9.477 -0.2662 -0.0349 -0.1124
 1901POSM   PO422296  13.077  16.354   9.670 -0.0034  0.2137 -0.0279
 1901POSM   AM122297  13.217  16.421   9.978  0.0901  0.0110  0.2131
 1901POSM   AM222298  13.316  16.200  10.125  0.1874  0.0794 -0.0554
 1901POSM   T1A22299  13.123  16.581  10.456 -0.2598 -0.2412  0.0753
 1901POSM   C2A22300  12.887  16.854  10.693  0.1174  0.0242 -0.0421
 1901POSM   C3A22301  12.874  17.281  10.877  0.1361 -0.0539 -0.1368
 1901POSM   C1B22302  13.447  16.129  10.438  0.2239 -0.0879  0.1807
 1901POSM   D2B22303  13.687  16.024  10.821  0.2597  0.1879  0.0213
 1901POSM   C3B22304  13.912  15.597  10.864 -0.0504 -0.2404  0.2792
 1901POSM   C4B22305  13.985  15.353  11.242  0.4077 -0.1654 -0.2206
 1902DOPS   CNO22306  14.820   9.375  10.726  0.1750 -0.0894 -0.5523
 1902DOPS   PO422307  14.604   9.716  10.824 -0.2059 -0.2047 -0.1889
 1902DOPS   GL122308  14.842   9.699  11.090 -0.1474 -0.1088 -0.0935
 1902DOPS   GL222309  14.894  10.048  11.135 -0.0421  0.1248  0.1562
 1902DOPS   C1A22310  15.148   9.664  11.347 -0.0947 -0.1204 -0.2747
 1902DOPS   D2A22311  15.191   9.715  11.819  0.0365 -0.1364  0.0134
 1902DOPS   C3A22312  15.430   9.904  12.130  0.1489  0.1769 -0.0235
 1902DOPS   C4A22313  15.785  10.242  12.224  0.2018  0.2963  0.3582
 1902DOPS   C1B22314  14.824   9.941  11.582 -0.1072 -0.2956  0.0338
 1902DOPS   D2B22315  14.760   9.900  12.019 -0.3346 -0.1889  0.0697
 1902DOPS   C3B22316  15.002  10.054  12.356  0.0342 -0.1622 -0.1421
 1902DOPS   C4B22317  15.118  10.409  12.710  0.0489  0.2727 -0.1066
 1903DOPE   NH322318  12.782  14.989   9.685  0.2727 -0.0356 -0.2733
 1903DOPE   PO422319  13.078  15.018   9.715  0.2356 -0.1432  0.1987
 1903DOPE   GL122320  13.205  14.993  10.073  0.4361  0.1478  0.3972
 1903DOPE   GL222321  12.863  15.011  10.199  0.0268  0.3064 -0.0632
 1903DOPE   C1A22322  13.201  14.747  10.456  0.0054  0.3366  0.0828
 1903DOPE   D2A22323  13.237  14.448  10.766  0.1640  0.0674 -0.2500
 1903DOPE   C3A22324  13.463  14.574  11.216 -0.2396  0.1669 -0.0468
 1903DOPE   C4A22325  13.772  14.835  11.524 -0.2229  0.0761  0.2474
 1903DOPE   C1B22326  12.668  14.743  10.452 -0.1629 -0.4658 -0.1796
 1903DOPE   D2B22327  12.725  14.676  10.926  0.2692 -0.0204 -0.4274
 1903DOPE   C3B22328  13.145  14.869  10.990 -0.0101  0.1405  0.1143
 1903DOPE   C4B22329  13.504  15.115  11.197  0.0600  0.0551 -0.1671
 1904POSM   NC322330  11.421  12.541  10.693 -0.0838 -0.0150  0.0432
 1904POSM   PO422331  11.120  12.632  10.973 -0.3742  0.0064  0.2812
 1904POSM   AM122332  11.379  12.650  11.206 -0.0151  0.2198 -0.0283
 1904POSM   AM222333  11.413  12.853  11.444  0.0531 -0.3596  0.2750
 1904POSM   T1A22334  11.561  12.382  11.556  0.0061  0.0351 -0.0401
 1904POSM   C2A22335  11.816  12.153  11.816  0.1770  0.0084  0.0914
 1904POSM   C3A22336  12.081  11.844  11.929 -0.2555  0.1143  0.0988
 1904POSM   C1B22337  11.638  13.022  11.597  0.0614 -0.0396  0.2260
 1904POSM   D2B22338  11.745  13.225  11.958  0.1661 -0.2843  0.2220
 1904POSM   C3B22339  12.003  13.194  12.327  0.0242  0.2528  0.3570
 1904POSM   C4B22340  11.943  13.155  12.831 -0.0762  0.0800 -0.2235
 1905DOPC   NC322341  14.910  15.434   9.434  0.0649  0.0833  0.0595
 1905DOPC   PO422342  14.598  15.344   9.185  0.1426 -0.1048  0.3908
 1905DOPC   GL122343  14.546  15.602   9.581 -0.3229 -0.0579 -0.0242
 1905DOPC   GL222344  14.591  15.448   9.801 -0.1445 -0.1871  0.0741
 1905DOPC   C1A22345  14.684  16.034   9.777 -0.2576 -0.1803  0.0709
 1905DOPC   D2A22346  14.729  16.502   9.778  0.0109  0.1997 -0.3337
 1905DOPC   C3A22347  14.799  16.486  10.236 -0.0471 -0.1260  0.0221
 1905DOPC   C4A22348  14.696  16.654  10.620  0.2114 -0.1576  0.0079
 1905DOPC   C1B22349  14.995  15.628   9.879 -0.2725 -0.2363  0.1830
 1905DOPC   D2B22350  15.391  15.851   9.829  0.0261  0.2260  0.4447
 1905DOPC   C3B22351  15.616  16.089  10.123  0.1537  0.0306  0.0352
 1905DOPC   C4B22352  15.916  16.402  10.356 -0.0989 -0.0730  0.0927
 1906DOPS   CNO22353  14.562  10.803  10.059  0.3482 -0.1578 -0.4335
 1906DOPS   PO422354  14.323  10.863  10.371 -0.3401  0.0555  0.3063
 1906DOPS   GL122355  14.289  10.968  10.758 -0.1186 -0.1283  0.0188
 1906DOPS   GL222356  14.549  10.905  10.860  0.2059  0.1354  0.3636
 1906DOPS   C1A22357  14.129  10.830  11.187 -0.2738  0.1237 -0.3129
 1906DOPS   D2A22358  13.752  10.817  11.450 -0.0766  0.5617  0.0085
 1906DOPS   C3A22359  13.520  10.462  11.609 -0.3024  0.2416 -0.3950
 1906DOPS   C4A22360  13.245  10.378  11.963 -0.0031  0.0830  0.1572
 1906DOPS   C1B22361  14.764  10.901  11.294 -0.0235 -0.3072  0.2459
 1906DOPS   D2B22362  15.107  11.081  11.407 -0.0003 -0.0424  0.1159
 1906DOPS   C3B22363  15.346  11.042  11.851 -0.0946  0.0968  0.1821
 1906DOPS   C4B22364  15.584  11.315  12.197  0.1787  0.2193  0.0360
 1907DOPC   NC322365  12.221  14.515  10.254 -0.0555 -0.3436 -0.2356
 1907DOPC   PO422366  11.864  14.362  10.431 -0.1555  0.0757 -0.3143
 1907DOPC   GL122367  11.997  14.537  10.701  0.1610 -0.2750  0.2650
 1907DOPC   GL222368  12.248  14.727  10.712 -0.2971 -0.0405  0.0954
 1907DOPC   C1A22369  11.802  14.586  11.130 -0.0988  0.0594  0.1108
 1907DOPC   D2A22370  11.576  14.645  11.507  0.2584 -0.1225 -0.0111
 1907DOPC   C3A22371  11.248  14.360  11.728 -0.0988 -0.1380 -0.4249
 1907DOPC   C4A22372  11.049  14.257  12.137 -0.0611  0.1923 -0.0145
 1907DOPC   C1B22373  12.186  14.938  11.153 -0.1880  0.1229 -0.1317
 1907DOPC   D2B22374  11.979  14.928  11.543 -0.1473 -0.1076  0.0640
 1907DOPC   C3B22375  11.920  15.357  11.703  0.1080  0.1278  0.0205
 1907DOPC   C4B22376  11.646  15.722  11.579  0.1246 -0.2355  0.3361
 1908DOPC   NC322377  14.670  12.763  10.215 -0.1685  0.2321 -0.1064
 1908DOPC   PO422378  15.010  12.559  10.221 -0.1614 -0.0042  0.2516
 1908DOPC   GL122379  14.990  12.741  10.503 -0.2253 -0.3380 -0.0655
 1908DOPC   GL222380  15.191  12.938  10.648 -0.0568  0.1088 -0.0589
 1908DOPC   C1A22381  14.548  12.844  10.682 -0.1542 -0.2059  0.1129
 1908DOPC   D2A22382  14.327  12.901  11.071  0.0991 -0.0603 -0.0058
 1908DOPC   C3A22383  14.328  12.558  11.337 -0.0376  0.2831 -0.2626
 1908DOPC   C4A22384  14.286  12.171  11.556  0.3039 -0.1936 -0.1265
 1908DOPC   C1B22385  15.151  12.521  10.878 -0.0911  0.4070 -0.0946
 1908DOPC   D2B22386  15.126  12.364  11.337 -0.1157 -0.0232 -0.1968
 1908DOPC   C3B22387  15.204  12.641  11.651  0.2440  0.1004  0.1272
 1908DOPC   C4B22388  14.935  12.937  11.882 -0.0109 -0.2539  0.1478
 1909DOPE   NH322389  16.593  13.141   9.738  0.1704 -0.2148  0.0443
 1909DOPE   PO422390  16.568  12.966   9.981  0.1810 -0.1181  0.1181
 1909DOPE   GL122391  16.334  13.102  10.201 -0.1658  0.1008 -0.3228
 1909DOPE   GL222392  16.421  13.399  10.110  0.2549  0.0288 -0.3211
 1909DOPE   C1A22393  16.188  13.149  10.656 -0.0898  0.1033 -0.0033
 1909DOPE   D2A22394  16.320  13.263  11.122 -0.0778 -0.0513  0.1800
 1909DOPE   C3A22395  16.478  12.935  11.394 -0.3596 -0.4034  0.1258
 1909DOPE   C4A22396  16.707  12.678  11.714 -0.4095 -0.1580 -0.2158
 1909DOPE   C1B22397  16.643  13.447  10.496 -0.0983 -0.0112  0.0771
 1909DOPE   D2B22398  16.791  13.171  10.789 -0.1951 -0.0201  0.1078
 1909DOPE   C3B22399  16.796  13.465  11.099 -0.0942  0.3567  0.2674
 1909DOPE   C4B22400  16.618  13.439  11.565 -0.0166  0.0602  0.1040
 1910DOPC   NC322401  13.389  12.968  10.405  0.0623 -0.1936 -0.0135
 1910DOPC   PO422402  13.355  13.344  10.217  0.0291 -0.0485 -0.0034
 1910DOPC   GL122403  13.288  13.357  10.619 -0.0538  0.3494  0.0192
 1910DOPC   GL222404  13.000  13.426  10.721 -0.0976  0.0824  0.1823
 1910DOPC   C1A22405  13.463  13.480  11.016  0.1594 -0.1850  0.0990
 1910DOPC   D2A22406  13.530  13.220  11.404  0.0348 -0.3382 -0.1829
 1910DOPC   C3A22407  13.906  12.896  11.472  0.1669  0.3104 -0.0442
 1910DOPC   C4A22408  14.074  12.594  11.735  0.0963  0.0122  0.0707
 1910DOPC   C1B22409  13.232  13.849  10.774  0.4075 -0.3077 -0.2087
 1910DOPC   D2B22410  13.458  14.144  10.410 -0.1242  0.1722  0.2262
 1910DOPC   C3B22411  13.696  14.537  10.550 -0.2348 -0.1094 -0.2197
 1910DOPC   C4B22412  13.815  14.781  10.874 -0.0609 -0.3342  0.1405
 1911DOPC   NC322413  17.957  24.451   9.017 -0.2494  0.0563  0.3238
 1911DOPC   PO422414  17.761  24.402   9.397 -0.3174  0.0766 -0.3305
 1911DOPC   GL122415  17.927  24.510   9.652 -0.1809  0.0641  0.1139
 1911DOPC   GL222416  18.133  24.691   9.760 -0.2682  0.0001 -0.3289
 1911DOPC   C1A22417  17.822  24.512  10.147 -0.5612 -0.1678  0.2653
 1911DOPC   D2A22418  17.558  24.451  10.553  0.0913  0.1716 -0.2969
 1911DOPC   C3A22419  17.884  24.411  10.916 -0.0568  0.3320  0.1375
 1911DOPC   C4A22420  18.351  24.449  10.932  0.0580  0.1248  0.1628
 1911DOPC   C1B22421  18.414  24.730  10.111 -0.2779  0.0168  0.0617
 1911DOPC   D2B22422  18.700  24.612  10.490  0.1429  0.1945  0.3194
 1911DOPC   C3B22423  18.794  24.964  10.695  0.0382  0.1543  0.2226
 1911DOPC   C4B22424  19.018  24.996  11.108  0.2258 -0.1921 -0.0019
 1912POSM   NC322425  15.225  23.061   9.743 -0.0839  0.0911 -0.4221
 1912POSM   PO422426  15.152  23.453   9.704  0.1592 -0.0425 -0.2716
 1912POSM   AM122427  15.194  23.446  10.011  0.1756 -0.0821 -0.0375
 1912POSM   AM222428  15.289  23.245  10.192 -0.3571 -0.1955 -0.1025
 1912POSM   T1A22429  15.553  23.619  10.345 -0.3161 -0.1290  0.3920
 1912POSM   C2A22430  15.668  23.785  10.768  0.1047  0.1769  0.0200
 1912POSM   C3A22431  15.686  23.894  11.189  0.0138 -0.2555  0.0449
 1912POSM   C1B22432  15.139  23.011  10.329  0.0729  0.0360 -0.0347
 1912POSM   D2B22433  14.782  22.909  10.635 -0.0846 -0.0808 -0.1915
 1912POSM   C3B22434  14.630  23.106  11.016  0.1633 -0.0412  0.1537
 1912POSM   C4B22435  14.498  23.543  11.211  0.1986  0.2043 -0.1304
 1913DOPE   NH322436  14.821  14.016   9.845  0.1470 -0.1137 -0.0673
 1913DOPE   PO422437  14.501  13.993   9.860 -0.2898 -0.0097  0.1019
 1913DOPE   GL122438  14.427  14.135  10.172  0.0841 -0.2425  0.1853
 1913DOPE   GL222439  14.620  14.058  10.329  0.0436 -0.2806 -0.2192
 1913DOPE   C1A22440  14.216  14.041  10.573 -0.0792 -0.1779 -0.4099
 1913DOPE   D2A22441  14.313  13.720  10.965 -0.0974 -0.0219 -0.0632
 1913DOPE   C3A22442  14.525  13.792  11.332 -0.3028 -0.1028  0.0258
 1913DOPE   C4A22443  14.885  13.874  11.624  0.2956 -0.3308 -0.0348
 1913DOPE   C1B22444  14.958  13.840  10.508  0.2567  0.1828 -0.1538
 1913DOPE   D2B22445  15.104  13.420  10.685 -0.1058  0.0389  0.0338
 1913DOPE   C3B22446  14.823  13.122  10.997 -0.1734  0.0801  0.0643
 1913DOPE   C4B22447  14.810  12.750  11.308  0.0702  0.2862 -0.1516
 1914DOPS   CNO22448  17.151  15.719   9.338 -0.2322 -0.1663 -0.3987
 1914DOPS   PO422449  16.776  15.828   9.293  0.0384  0.2421 -0.1022
 1914DOPS   GL122450  16.604  15.600   9.477 -0.3056 -0.0976  0.1328
 1914DOPS   GL222451  16.806  15.342   9.557 -0.1216  0.0608  0.1390
 1914DOPS   C1A22452  16.491  15.653   9.960 -0.4220  0.0318  0.1185
 1914DOPS   D2A22453  16.707  15.764  10.369  0.4547 -0.3079 -0.0022
 1914DOPS   C3A22454  16.436  15.711  10.766  0.1259 -0.0538  0.1889
 1914DOPS   C4A22455  16.520  15.452  11.150 -0.4291  0.0519 -0.0675
 1914DOPS   C1B22456  16.891  15.276  10.058  0.0075 -0.0446 -0.1354
 1914DOPS   D2B22457  16.915  15.200  10.475 -0.0761 -0.1109  0.2079
 1914DOPS   C3B22458  16.959  15.510  10.784  0.2661  0.2441  0.2231
 1914DOPS   C4B22459  16.931  15.968  10.770 -0.1186 -0.0457 -0.4730
 1915DOPC   NC322460  15.359  21.265   9.286  0.2732  0.1567 -0.0009
 1915DOPC   PO422461  15.308  20.867   9.338  0.1287  0.0466  0.3494
 1915DOPC   GL122462  15.152  20.941   9.605 -0.1022 -0.2239 -0.3369
 1915DOPC   GL222463  15.063  20.716   9.749 -0.0438 -0.1219 -0.0636
 1915DOPC   C1A22464  15.288  21.265   9.901 -0.0343 -0.1312 -0.0226
 1915DOPC   D2A22465  15.208  21.551  10.302 -0.3238  0.0612 -0.0627
 1915DOPC   C3A22466  14.860  21.785  10.471  0.1888  0.3792 -0.0339
 1915DOPC   C4A22467  14.676  21.851  10.828  0.0730  0.0383  0.0127
 1915DOPC   C1B22468  15.225  20.767  10.180 -0.2854  0.0959 -0.0176
 1915DOPC   D2B22469  15.593  20.786  10.463 -0.3003 -0.0365  0.1626
 1915DOPC   C3B22470  15.483  21.218  10.609  0.2683 -0.2914 -0.1662
 1915DOPC   C4B22471  15.659  21.654  10.726 -0.1728  0.1242 -0.1027
 1916DOPE   NH322472  10.998  13.872  10.689  0.1142  0.0684  0.2283
 1916DOPE   PO422473  10.980  14.040  10.946 -0.0956  0.2008  0.0310
 1916DOPE   GL122474  10.909  13.830  11.373  0.0613  0.1028 -0.1882
 1916DOPE   GL222475  10.731  13.508  11.454  0.1681 -0.0580  0.0015
 1916DOPE   C1A22476  11.172  13.798  11.820 -0.2182 -0.2470  0.1372
 1916DOPE   D2A22477  11.460  13.751  12.213  0.2041 -0.1633 -0.0579
 1916DOPE   C3A22478  11.432  13.330  12.470 -0.2201  0.0780 -0.1384
 1916DOPE   C4A22479  11.301  12.923  12.698 -0.1199  0.2386  0.0430
 1916DOPE   C1B22480  10.733  13.465  11.949  0.1361 -0.0884  0.1440
 1916DOPE   D2B22481  10.953  13.474  12.365 -0.0573 -0.1793  0.0507
 1916DOPE   C3B22482  10.554  13.646  12.618  0.0478  0.0840 -0.3408
 1916DOPE   C4B22483  10.166  13.721  12.948 -0.0451  0.0559  0.0367
 1917DOPE   NH322484  18.191  16.609   8.846 -0.3353  0.2140 -0.2632
 1917DOPE   PO422485  17.852  16.565   8.846  0.0086  0.0429  0.0614
 1917DOPE   GL122486  17.717  16.765   9.108 -0.1622  0.1159  0.1727
 1917DOPE   GL222487  17.456  16.589   9.262  0.1300  0.1251 -0.2402
 1917DOPE   C1A22488  17.942  16.978   9.454  0.3792 -0.1343 -0.0644
 1917DOPE   D2A22489  18.387  17.116   9.508  0.0305 -0.3020  0.0789
 1917DOPE   C3A22490  18.519  16.845   9.832  0.0792  0.4762 -0.1222
 1917DOPE   C4A22491  18.570  16.877  10.314 -0.0539 -0.0982  0.0310
 1917DOPE   C1B22492  17.391  16.916   9.448 -0.1927  0.0654  0.1062
 1917DOPE   D2B22493  17.162  17.177   9.787  0.0238  0.0366 -0.3097
 1917DOPE   C3B22494  17.258  17.127  10.275 -0.0048 -0.3923  0.1276
 1917DOPE   C4B22495  17.460  17.076  10.698  0.1034  0.0514  0.0480
 1918POSM   NC322496  18.751  19.363   8.988  0.0837  0.0141 -0.0836
 1918POSM   PO422497  18.770  18.983   8.909  0.0970 -0.1076  0.0073
 1918POSM   AM122498  18.988  19.039   9.186 -0.2278  0.0999 -0.2631
 1918POSM   AM222499  19.268  18.983   9.307  0.5090  0.0248 -0.1581
 1918POSM   T1A22500  18.856  18.919   9.635 -0.2701  0.2090  0.1515
 1918POSM   C2A22501  18.921  19.112  10.084 -0.3890 -0.1379 -0.0426
 1918POSM   C3A22502  19.187  19.274  10.399 -0.1997 -0.0976 -0.0816
 1918POSM   C1B22503  19.328  19.132   9.623 -0.2441  0.4704 -0.0850
 1918POSM   D2B22504  19.437  19.266   9.995 -0.2071 -0.1681  0.1774
 1918POSM   C3B22505  19.773  19.216  10.307 -0.1249 -0.2824 -0.3017
 1918POSM   C4B22506  19.778  19.212  10.784  0.5040 -0.1642 -0.2624
 1919POSM   NC322507  20.071  21.786   8.540  0.3692  0.2647  0.3866
 1919POSM   PO422508  19.952  22.065   8.751  0.3031 -0.0239 -0.4139
 1919POSM   AM122509  19.925  21.947   9.067  0.0960 -0.3082  0.0818
 1919POSM   AM222510  19.811  21.956   9.306  0.1516 -0.0516  0.3549
 1919POSM   T1A22511  20.265  21.794   9.466  0.1179  0.1183  0.1067
 1919POSM   C2A22512  20.272  21.903   9.924  0.2030  0.0261 -0.1767
 1919POSM   C3A22513  20.166  22.279  10.161  0.1613 -0.0157 -0.1693
 1919POSM   C1B22514  19.748  21.650   9.497  0.0200 -0.0974  0.6164
 1919POSM   D2B22515  19.508  21.259   9.611  0.4429  0.0868  0.1293
 1919POSM   C3B22516  19.762  20.914   9.779  0.2351 -0.1518  0.0535
 1919POSM   C4B22517  19.840  20.777  10.204 -0.2447 -0.0718  0.1676
 1920DOPC   NC322518  10.313  17.047  10.372  0.2173 -0.2121  0.2619
 1920DOPC   PO422519  10.342  16.795  10.049  0.1202 -0.1275  0.1952
 1920DOPC   GL122520  10.369  16.569  10.356 -0.3540  0.1140  0.3434
 1920DOPC   GL222521  10.644  16.526  10.390  0.1776  0.0622  0.0054
 1920DOPC   C1A22522  10.248  16.187  10.610  0.0438  0.0848 -0.1445
 1920DOPC   D2A22523  10.398  16.191  11.094  0.0235 -0.0080  0.1654
 1920DOPC   C3A22524  10.488  16.621  11.268 -0.1995 -0.0263 -0.2761
 1920DOPC   C4A22525  10.858  16.814  11.505  0.1764  0.1167  0.1578
 1920DOPC   C1B22526  10.767  16.357  10.807 -0.0585 -0.2122 -0.0473
 1920DOPC   D2B22527  11.187  16.429  10.914 -0.1289  0.1190  0.4378
 1920DOPC   C3B22528  11.282  16.393  11.364 -0.1104  0.0428  0.1122
 1920DOPC   C4B22529  11.159  16.410  11.774  0.2944  0.0774 -0.1271
 1921DOPC   NC322530  12.711  21.928   9.315 -0.0165 -0.2704  0.1289
 1921DOPC   PO422531  12.962  21.804   9.609 -0.0913 -0.0327 -0.4695
 1921DOPC   GL122532  13.050  21.835  10.025 -0.2111  0.1653 -0.3646
 1921DOPC   GL222533  12.895  21.962  10.214 -0.1796 -0.1299  0.0398
 1921DOPC   C1A22534  13.052  21.386  10.225 -0.4675  0.1188  0.0264
 1921DOPC   D2A22535  12.726  21.181  10.498 -0.0679  0.0406 -0.2156
 1921DOPC   C3A22536  12.875  21.075  10.930  0.3103 -0.0103 -0.0332
 1921DOPC   C4A22537  12.565  20.973  11.249 -0.2306 -0.0303  0.0373
 1921DOPC   C1B22538  12.918  21.688  10.595  0.3925  0.1620  0.3203
 1921DOPC   D2B22539  13.177  21.557  11.036  0.0991 -0.1179  0.0172
 1921DOPC   C3B22540  13.620  21.625  11.029  0.3528 -0.1799  0.0092
 1921DOPC   C4B22541  14.104  21.727  11.066  0.0214 -0.1425 -0.1854
 1922DOPC   NC322542  16.518  19.152   9.129  0.1408 -0.0475  0.1028
 1922DOPC   PO422543  16.855  19.326   9.177  0.1368  0.0099  0.2457
 1922DOPC   GL122544  16.804  19.390   9.514  0.1001  0.1366  0.2323
 1922DOPC   GL222545  16.589  19.342   9.659 -0.1619 -0.0343 -0.0000
 1922DOPC   C1A22546  17.084  19.483   9.904 -0.0268 -0.0810  0.1156
 1922DOPC   D2A22547  17.173  19.553  10.384  0.0442 -0.4240  0.0105
 1922DOPC   C3A22548  17.251  19.213  10.666  0.2013 -0.2237 -0.2174
 1922DOPC   C4A22549  16.964  18.891  10.686  0.0400 -0.1166 -0.0311
 1922DOPC   C1B22550  16.373  18.907   9.636  0.2113 -0.1802  0.3722
 1922DOPC   D2B22551  16.120  18.509   9.593 -0.3123  0.1352 -0.3574
 1922DOPC   C3B22552  16.040  18.248   9.997  0.0505  0.2137 -0.1951
 1922DOPC   C4B22553  16.128  17.912  10.380 -0.1039  0.2689 -0.1885
 1923POSM   NC322554  13.392  14.670   9.514 -0.0638  0.0866 -0.3017
 1923POSM   PO422555  13.765  14.522   9.701 -0.0312  0.1257 -0.1765
 1923POSM   AM122556  13.825  14.672   9.986 -0.0181 -0.2463 -0.4492
 1923POSM   AM222557  14.032  14.668  10.188 -0.2004  0.1600  0.4150
 1923POSM   T1A22558  13.715  15.027  10.322  0.0375  0.1702  0.0443
 1923POSM   C2A22559  13.480  15.111  10.695 -0.2930 -0.1634 -0.2793
 1923POSM   C3A22560  13.040  15.295  10.724  0.1312 -0.0152  0.2019
 1923POSM   C1B22561  14.206  14.508  10.409  0.1506  0.0567 -0.0295
 1923POSM   D2B22562  14.302  14.454  10.848  0.3924 -0.1777 -0.1370
 1923POSM   C3B22563  14.071  14.104  11.088 -0.0286  0.0671  0.1063
 1923POSM   C4B22564  14.021  13.834  11.435 -0.1590  0.3494  0.0896
 1924DOPC   NC322565  12.132  23.197  10.515 -0.2974  0.0901 -0.1725
 1924DOPC   PO422566  12.226  23.040  10.185 -0.2988 -0.1463  0.0719
 1924DOPC   GL122567  12.490  22.795  10.388 -0.1709 -0.1259  0.3274
 1924DOPC   GL222568  12.497  22.507  10.337  0.1695 -0.1928 -0.0448
 1924DOPC   C1A22569  12.799  22.853  10.731  0.0925  0.1058 -0.3127
 1924DOPC   D2A22570  13.161  22.974  10.957 -0.1566 -0.2575 -0.6179
 1924DOPC   C3A22571  13.349  23.410  10.909 -0.2387 -0.0221 -0.1666
 1924DOPC   C4A22572  13.064  23.817  10.971  0.0651 -0.0396  0.1725
 1924DOPC   C1B22573  12.425  22.587  10.826  0.2881 -0.2463  0.3716
 1924DOPC   D2B22574  12.147  22.652  11.183 -0.3761 -0.0120  0.4186
 1924DOPC   C3B22575  11.715  22.602  11.306  0.2422 -0.0950 -0.0456
 1924DOPC   C4B22576  11.363  22.841  11.299  0.2134  0.2841 -0.0193
 1925POSM   NC322577  22.300  18.807   9.425  0.2934  0.0765  0.0745
 1925POSM   PO422578  22.123  19.128   9.300  0.3148 -0.0045 -0.3359
 1925POSM   AM122579  22.138  19.360   9.538 -0.1986 -0.0816 -0.2022
 1925POSM   AM222580  22.102  19.629   9.672  0.1185 -0.0777 -0.2017
 1925POSM   T1A22581  22.540  19.499   9.844  0.3254 -0.0301 -0.0858
 1925POSM   C2A22582  22.595  19.547  10.247  0.0470  0.1463  0.1483
 1925POSM   C3A22583  22.544  19.452  10.714 -0.0536 -0.1152  0.0395
 1925POSM   C1B22584  22.007  19.668  10.032 -0.2619  0.0794  0.1717
 1925POSM   D2B22585  22.100  19.754  10.487 -0.0622  0.2946  0.1254
 1925POSM   C3B22586  22.369  19.985  10.743 -0.0751 -0.1616  0.0088
 1925POSM   C4B22587  22.570  20.136  11.098  0.0914 -0.0897 -0.0761
 1926DOPS   CNO22588  20.803  18.086   9.346  0.2691 -0.0313  0.2930
 1926DOPS   PO422589  20.596  17.818   9.359 -0.0924  0.0840 -0.3463
 1926DOPS   GL122590  20.394  17.717   9.631  0.0248 -0.0021  0.0772
 1926DOPS   GL222591  20.291  18.006   9.672  0.0633 -0.2237 -0.0407
 1926DOPS   C1A22592  20.633  17.425   9.878 -0.0970  0.0741  0.1439
 1926DOPS   D2A22593  20.951  17.490  10.285 -0.0169  0.1497 -0.0771
 1926DOPS   C3A22594  21.068  17.177  10.547  0.2527 -0.0510 -0.5935
 1926DOPS   C4A22595  21.205  16.695  10.601 -0.0203  0.1876 -0.3930
 1926DOPS   C1B22596  20.439  17.936  10.113  0.0543 -0.0196  0.0300
 1926DOPS   D2B22597  20.470  17.741  10.470 -0.0003  0.3675 -0.0010
 1926DOPS   C3B22598  20.257  17.933  10.817 -0.1257 -0.0502  0.0059
 1926DOPS   C4B22599  20.173  18.085  11.268 -0.1924 -0.2748  0.0408
 1927DOPC   NC322600  15.584  16.939   9.073  0.0730  0.1815  0.1737
 1927DOPC   PO422601  15.900  16.728   9.279  0.0111  0.0043 -0.2300
 1927DOPC   GL122602  15.935  17.060   9.523 -0.1820 -0.1630 -0.3477
 1927DOPC   GL222603  16.232  17.095   9.433  0.0248 -0.0308 -0.2445
 1927DOPC   C1A22604  15.710  17.325   9.851 -0.3234  0.2784  0.1882
 1927DOPC   D2A22605  15.509  17.760   9.753  0.2916 -0.0528 -0.0563
 1927DOPC   C3A22606  15.507  18.080  10.051  0.1090  0.0629  0.2506
 1927DOPC   C4A22607  15.427  18.519  10.261 -0.1229  0.1679  0.0178
 1927DOPC   C1B22608  16.314  17.185   9.899 -0.1140 -0.3024  0.0107
 1927DOPC   D2B22609  16.131  17.297  10.268 -0.0220 -0.0374 -0.0039
 1927DOPC   C3B22610  16.148  17.138  10.653 -0.1310  0.0725  0.1266
 1927DOPC   C4B22611  15.993  16.684  10.834  0.1929  0.0264 -0.2038
 1928DOPS   CNO22612  12.119  25.117   9.785 -0.1993  0.1349  0.4283
 1928DOPS   PO422613  12.263  25.341  10.084  0.2150 -0.0180  0.1876
 1928DOPS   GL122614  12.227  25.106  10.471 -0.0428 -0.0447  0.5685
 1928DOPS   GL222615  12.407  25.217  10.668 -0.0675  0.0904  0.0673
 1928DOPS   C1A22616  11.852  24.959  10.645 -0.1377 -0.2275 -0.1209
 1928DOPS   D2A22617  11.778  24.678  11.004  0.0960 -0.0982  0.1173
 1928DOPS   C3A22618  11.793  24.223  11.098  0.2628  0.0490 -0.1546
 1928DOPS   C4A22619  11.547  23.923  11.257 -0.1774  0.1913 -0.1340
 1928DOPS   C1B22620  12.205  24.999  11.021  0.2823  0.0271  0.2192
 1928DOPS   D2B22621  12.044  24.880  11.439  0.0510  0.1683 -0.2251
 1928DOPS   C3B22622  12.409  24.745  11.686 -0.1111 -0.0542  0.0616
 1928DOPS   C4B22623  12.668  24.430  11.908 -0.1468  0.0779  0.0589
 1929DOPE   NH322624  12.064  22.609  10.017  0.1209 -0.1423 -0.0954
 1929DOPE   PO422625  12.128  22.324   9.894  0.0131  0.1673 -0.3877
 1929DOPE   GL122626  12.253  22.125  10.233 -0.2652  0.0827  0.1483
 1929DOPE   GL222627  12.325  21.887  10.135  0.0654 -0.2396 -0.1702
 1929DOPE   C1A22628  12.561  22.103  10.624  0.3604  0.0517 -0.0518
 1929DOPE   D2A22629  12.735  21.983  11.036  0.0549 -0.2259 -0.0917
 1929DOPE   C3A22630  13.188  22.070  11.098 -0.2300  0.1259 -0.1615
 1929DOPE   C4A22631  13.498  22.382  10.927  0.0193 -0.1797  0.1833
 1929DOPE   C1B22632  12.428  21.587  10.429  0.0534 -0.3220 -0.2495
 1929DOPE   D2B22633  12.478  21.506  10.893 -0.3013 -0.0564  0.0876
 1929DOPE   C3B22634  12.737  21.422  11.259  0.2231 -0.1697 -0.1190
 1929DOPE   C4B22635  13.110  21.080  11.359 -0.0102 -0.0765 -0.0982
 1930DOPE   NH322636  21.528  15.719   9.495  0.0879 -0.1930  0.1457
 1930DOPE   PO422637  21.804  15.764   9.471 -0.3141  0.0753  0.0750
 1930DOPE   GL122638  21.987  15.580   9.723  0.0358  0.3476  0.3706
 1930DOPE   GL222639  21.953  15.415   9.971 -0.3733 -0.3200 -0.1952
 1930DOPE   C1A22640  21.860  15.913  10.074 -0.0173  0.0509  0.2095
 1930DOPE   D2A22641  21.931  16.188  10.502  0.0499  0.2488  0.0930
 1930DOPE   C3A22642  21.860  15.869  10.761 -0.1275 -0.3808 -0.1825
 1930DOPE   C4A22643  22.149  15.595  10.963  0.0495  0.3996  0.0504
 1930DOPE   C1B22644  21.734  15.106  10.179 -0.3558 -0.1109 -0.1753
 1930DOPE   D2B22645  21.510  15.081  10.597  0.1928 -0.3277  0.0307
 1930DOPE   C3B22646  21.741  15.027  11.038 -0.0110 -0.3192 -0.0744
 1930DOPE   C4B22647  22.049  14.713  11.187  0.1338 -0.0323  0.1129
 1931DOPE   NH322648  15.072  13.293   9.554  0.0490  0.1511 -0.2511
 1931DOPE   PO422649  15.076  13.563   9.688 -0.2148 -0.2091  0.1941
 1931DOPE   GL122650  15.249  13.555  10.006 -0.0810  0.3915 -0.4985
 1931DOPE   GL222651  15.249  13.800  10.126 -0.0730  0.1739  0.2166
 1931DOPE   C1A22652  15.528  13.379  10.348 -0.2865  0.2409  0.0690
 1931DOPE   D2A22653  15.699  13.246  10.759  0.2597 -0.0651 -0.2392
 1931DOPE   C3A22654  15.680  12.845  10.869 -0.0890  0.2330  0.2380
 1931DOPE   C4A22655  16.098  12.707  11.120  0.2314  0.2465  0.1750
 1931DOPE   C1B22656  15.464  14.223  10.303  0.3177 -0.0613  0.2033
 1931DOPE   D2B22657  15.293  14.300  10.717  0.0845 -0.0619  0.1109
 1931DOPE   C3B22658  15.565  14.275  11.042  0.0435 -0.1559 -0.3625
 1931DOPE   C4B22659  15.957  14.040  11.178  0.0191  0.1274  0.3213
 1932DOPC   NC322660  17.540  12.953  10.010  0.0831  0.1453  0.0197
 1932DOPC   PO422661  17.895  13.099   9.969 -0.1585 -0.0341  0.2335
 1932DOPC   GL122662  18.021  13.502   9.840  0.2290 -0.2362  0.2178
 1932DOPC   GL222663  17.832  13.581  10.079  0.0299 -0.1608 -0.0052
 1932DOPC   C1A22664  18.142  13.903   9.837  0.1808  0.0784  0.1622
 1932DOPC   D2A22665  18.429  14.079  10.109 -0.0296 -0.3373  0.2808
 1932DOPC   C3A22666  18.429  14.339  10.465 -0.0238  0.0029 -0.2639
 1932DOPC   C4A22667  18.344  14.591  10.901 -0.0024  0.1610 -0.0010
 1932DOPC   C1B22668  18.105  13.766  10.333  0.1052 -0.2346 -0.2208
 1932DOPC   D2B22669  18.105  14.049  10.639 -0.1353 -0.0835 -0.2163
 1932DOPC   C3B22670  17.922  14.023  11.079 -0.0940  0.1306  0.1387
 1932DOPC   C4B22671  17.539  14.081  11.302  0.0183 -0.0005 -0.1090
 1933DOPS   CNO22672  20.838  20.657   8.295 -0.1882  0.1399  0.4365
 1933DOPS   PO422673  20.576  20.540   8.576 -0.0995 -0.0058 -0.1231
 1933DOPS   GL122674  20.802  20.530   8.950  0.3634 -0.0742 -0.1419
 1933DOPS   GL222675  20.542  20.650   9.149  0.0548 -0.4317 -0.2361
 1933DOPS   C1A22676  21.022  20.790   9.291 -0.0770 -0.0477  0.0848
 1933DOPS   D2A22677  21.189  21.248   9.283  0.2405  0.1405  0.2909
 1933DOPS   C3A22678  21.595  21.311   9.542  0.3630  0.0290 -0.2538
 1933DOPS   C4A22679  21.715  21.436   9.970 -0.0586  0.2176 -0.0890
 1933DOPS   C1B22680  20.610  20.537   9.569 -0.0604  0.0233 -0.0306
 1933DOPS   D2B22681  20.806  20.291   9.878 -0.1659 -0.0159  0.0581
 1933DOPS   C3B22682  20.787  19.845  10.071  0.1328 -0.0678 -0.6240
 1933DOPS   C4B22683  20.538  19.533  10.218 -0.4169  0.2039 -0.0510
 1934DOPS   CNO22684  16.448  22.843   9.178  0.1640 -0.0986 -0.2130
 1934DOPS   PO422685  16.396  22.550   9.402  0.0168  0.3137 -0.1598
 1934DOPS   GL122686  16.267  22.468   9.825 -0.2397 -0.0444  0.4563
 1934DOPS   GL222687  16.363  22.641  10.059 -0.4039  0.0266  0.1679
 1934DOPS   C1A22688  16.043  22.103   9.989  0.1899  0.0736  0.0514
 1934DOPS   D2A22689  16.143  21.621  10.085  0.3768 -0.2667 -0.2166
 1934DOPS   C3A22690  16.513  21.397   9.904  0.2649 -0.1027 -0.1231
 1934DOPS   C4A22691  16.987  21.247   9.906 -0.0304  0.0890  0.0255
 1934DOPS   C1B22692  16.232  22.375  10.346  0.2423 -0.0360  0.0518
 1934DOPS   D2B22693  16.313  21.944  10.456 -0.1324 -0.2677 -0.3746
 1934DOPS   C3B22694  16.103  21.759  10.826  0.1085  0.2457 -0.1397
 1934DOPS   C4B22695  16.280  21.462  11.125  0.4820 -0.0069  0.2078
 1935DOPC   NC322696  16.532  21.179   9.377  0.0764  0.0005 -0.2157
 1935DOPC   PO422697  16.308  20.840   9.422  0.3468  0.0021  0.0606
 1935DOPC   GL122698  16.364  20.992   9.798 -0.4271  0.1845  0.1938
 1935DOPC   GL222699  16.107  21.087   9.861 -0.0586 -0.0553 -0.0294
 1935DOPC   C1A22700  16.373  21.118  10.269  0.2440  0.3012 -0.0365
 1935DOPC   D2A22701  16.268  20.934  10.729  0.2447  0.1805  0.1706
 1935DOPC   C3A22702  16.244  20.535  10.950 -0.2499  0.0990 -0.1294
 1935DOPC   C4A22703  16.347  20.258  11.273 -0.0938 -0.0527  0.4421
 1935DOPC   C1B22704  15.993  20.775  10.146  0.0526 -0.1335  0.2483
 1935DOPC   D2B22705  15.964  20.475  10.512 -0.2810 -0.3048 -0.1173
 1935DOPC   C3B22706  15.723  20.056  10.506 -0.0104 -0.2346  0.0243
 1935DOPC   C4B22707  15.383  19.737  10.474 -0.2631  0.3115 -0.3517
 1936DOPS   CNO22708  12.475  14.088   9.775  0.1207  0.0856 -0.0250
 1936DOPS   PO422709  12.609  14.091  10.141 -0.0306  0.4311  0.2314
 1936DOPS   GL122710  12.406  14.162  10.484  0.0478  0.1526  0.2237
 1936DOPS   GL222711  12.306  14.051  10.719  0.3072 -0.2361 -0.1010
 1936DOPS   C1A22712  12.791  14.209  10.791  0.1195 -0.1007  0.2640
 1936DOPS   D2A22713  13.024  14.137  11.194 -0.0476  0.1342 -0.0936
 1936DOPS   C3A22714  13.036  14.538  11.455  0.1528 -0.0915 -0.0386
 1936DOPS   C4A22715  13.057  15.021  11.463  0.0564 -0.2802 -0.1134
 1936DOPS   C1B22716  12.655  13.742  10.954 -0.0752 -0.2907 -0.0608
 1936DOPS   D2B22717  13.023  13.600  11.225  0.1615  0.1561 -0.0585
 1936DOPS   C3B22718  13.135  13.404  11.640  0.0306  0.0891 -0.0945
 1936DOPS   C4B22719  13.521  13.343  11.906 -0.1228 -0.1911 -0.0161
 1937DOPS   CNO22720  13.584  16.894   9.330  0.1385 -0.4317 -0.0485
 1937DOPS   PO422721  13.804  16.562   9.264 -0.0551  0.3100 -0.3136
 1937DOPS   GL122722  13.909  16.548   9.620 -0.1140 -0.1111  0.2634
 1937DOPS   GL222723  13.688  16.594   9.842  0.4156  0.1622 -0.2884
 1937DOPS   C1A22724  14.297  16.726   9.797  0.2881  0.1368  0.0897
 1937DOPS   D2A22725  14.498  16.821  10.226  0.2696 -0.3129 -0.2137
 1937DOPS   C3A22726  14.364  17.271  10.277 -0.1856  0.0213  0.0668
 1937DOPS   C4A22727  13.992  17.520  10.210  0.1025 -0.0352  0.1687
 1937DOPS   C1B22728  13.535  16.863  10.183 -0.0935  0.0269 -0.1211
 1937DOPS   D2B22729  13.377  17.138  10.505  0.1538 -0.0510  0.0860
 1937DOPS   C3B22730  13.352  16.992  10.923  0.0597  0.0520 -0.2669
 1937DOPS   C4B22731  13.007  16.896  11.207  0.0680  0.2514 -0.0881
 1938DOPC   NC322732  13.054  19.151   8.637  0.2516 -0.1545  0.1166
 1938DOPC   PO422733  12.865  18.979   8.927  0.1957  0.0596 -0.0559
 1938DOPC   GL122734  12.867  18.931   9.310 -0.1648 -0.0462 -0.1912
 1938DOPC   GL222735  13.125  19.056   9.347 -0.1534  0.3701  0.0246
 1938DOPC   C1A22736  13.090  18.664   9.655 -0.0368 -0.0054  0.1805
 1938DOPC   D2A22737  13.162  18.235   9.740  0.0908 -0.2570 -0.4650
 1938DOPC   C3A22738  13.236  17.926  10.159  0.1078  0.2183 -0.2866
 1938DOPC   C4A22739  13.185  17.964  10.576  0.0780 -0.0711 -0.0159
 1938DOPC   C1B22740  13.325  19.409   9.548 -0.1356  0.2764  0.2465
 1938DOPC   D2B22741  12.982  19.766   9.634 -0.0262  0.1843 -0.1114
 1938DOPC   C3B22742  13.053  20.093   9.959  0.3563 -0.2107 -0.1107
 1938DOPC   C4B22743  13.277  20.503  10.116 -0.1442 -0.0841 -0.0371
 1939DOPE   NH322744  23.743  12.054   9.825 -0.2948 -0.1605 -0.0491
 1939DOPE   PO422745  23.517  12.188   9.943  0.0101  0.0145 -0.0075
 1939DOPE   GL122746  23.147  12.099  10.103 -0.4317 -0.2933  0.2304
 1939DOPE   GL222747  23.059  12.324  10.013  0.1026 -0.3326 -0.2811
 1939DOPE   C1A22748  22.749  12.194  10.355 -0.0669 -0.0254 -0.1860
 1939DOPE   D2A22749  22.755  12.093  10.788  0.0187  0.2095 -0.0885
 1939DOPE   C3A22750  22.414  11.839  10.979 -0.1347 -0.1673 -0.1362
 1939DOPE   C4A22751  22.096  11.587  11.145 -0.3103  0.0463  0.2409
 1939DOPE   C1B22752  22.912  12.678  10.207 -0.0701 -0.2424  0.0376
 1939DOPE   D2B22753  22.527  12.975  10.255 -0.3950  0.0649  0.0758
 1939DOPE   C3B22754  22.715  13.399  10.343 -0.0514  0.3467 -0.4313
 1939DOPE   C4B22755  22.645  13.855  10.319 -0.2668 -0.1858 -0.1785
 1940DOPE   NH322756  12.454  24.741  10.615 -0.0509  0.2242 -0.1389
 1940DOPE   PO422757  12.657  24.563  10.411  0.0952  0.1543 -0.0074
 1940DOPE   GL122758  12.642  24.232  10.590  0.0485  0.2024 -0.1719
 1940DOPE   GL222759  12.420  24.013  10.669 -0.0689  0.0947 -0.5250
 1940DOPE   C1A22760  12.747  24.270  11.042 -0.1426  0.1820 -0.3570
 1940DOPE   D2A22761  12.519  24.194  11.429  0.2054  0.1250 -0.0498
 1940DOPE   C3A22762  12.197  24.252  11.831 -0.0649 -0.3352  0.2339
 1940DOPE   C4A22763  12.263  24.040  12.236  0.1215 -0.0508 -0.0812
 1940DOPE   C1B22764  12.213  23.971  11.055 -0.1900 -0.2901 -0.0969
 1940DOPE   D2B22765  11.981  23.950  11.449 -0.2907  0.0262 -0.2626
 1940DOPE   C3B22766  11.747  23.715  11.703 -0.0662  0.3648 -0.3996
 1940DOPE   C4B22767  11.457  23.522  11.979  0.3765  0.1176  0.2148
 1941POSM   NC322768  18.818  12.246   9.427 -0.2122  0.2960  0.0337
 1941POSM   PO422769  18.835  12.368   9.005  0.2259  0.1435 -0.1269
 1941POSM   AM122770  19.096  12.493   9.201  0.0327  0.4214  0.1751
 1941POSM   AM222771  19.092  12.732   9.343 -0.1682 -0.0125  0.2822
 1941POSM   T1A22772  19.303  12.436   9.693 -0.2621 -0.1907  0.0161
 1941POSM   C2A22773  19.324  12.292  10.066 -0.0415 -0.0642 -0.3308
 1941POSM   C3A22774  19.284  12.075  10.464 -0.2066 -0.2032 -0.2324
 1941POSM   C1B22775  18.922  12.806   9.646 -0.3009  0.0889 -0.0942
 1941POSM   D2B22776  18.745  13.123   9.929  0.0516 -0.0008 -0.3216
 1941POSM   C3B22777  18.873  13.169  10.370 -0.0019  0.0528  0.2358
 1941POSM   C4B22778  19.117  13.079  10.708 -0.0071 -0.2593 -0.0159
 1942DOPS   CNO22779  18.351  21.060   8.904  0.1318 -0.1242 -0.1103
 1942DOPS   PO422780  18.500  20.722   8.955  0.0717 -0.1567  0.1719
 1942DOPS   GL122781  18.349  20.714   9.321 -0.1004  0.1624 -0.2193
 1942DOPS   GL222782  18.289  20.470   9.373  0.3624 -0.1327 -0.2454
 1942DOPS   C1A22783  18.374  20.817   9.750 -0.0083 -0.2724  0.5015
 1942DOPS   D2A22784  18.582  21.197   9.983 -0.5175  0.4753  0.1090
 1942DOPS   C3A22785  18.669  21.291  10.416 -0.0203 -0.0189  0.2040
 1942DOPS   C4A22786  18.838  21.642  10.712  0.1434  0.2810  0.1307
 1942DOPS   C1B22787  18.696  20.232   9.358 -0.2496 -0.0862  0.0631
 1942DOPS   D2B22788  19.176  20.144   9.413  0.1139  0.1636 -0.1412
 1942DOPS   C3B22789  19.506  20.276   9.712 -0.2633  0.2471  0.1563
 1942DOPS   C4B22790  19.653  20.290  10.197  0.0436 -0.0846 -0.0762
 1943DOPC   NC322791  21.507  13.417   9.074  0.2641 -0.2548  0.0411
 1943DOPC   PO422792  21.363  13.666   9.307  0.1535 -0.1570 -0.2248
 1943DOPC   GL122793  21.342  13.638   9.687 -0.1759 -0.5490  0.6242
 1943DOPC   GL222794  21.068  13.589   9.772  0.0711 -0.3449  0.3228
 1943DOPC   C1A22795  21.399  13.451  10.096 -0.1599  0.2384 -0.1014
 1943DOPC   D2A22796  21.124  13.267  10.442  0.1989 -0.0990  0.5060
 1943DOPC   C3A22797  21.163  13.072  10.881  0.1198  0.0947  0.1791
 1943DOPC   C4A22798  21.485  13.024  11.201  0.6143  0.0651  0.2807
 1943DOPC   C1B22799  20.906  13.689  10.205 -0.0173  0.2768 -0.2189
 1943DOPC   D2B22800  20.678  13.986  10.534  0.0967 -0.2402 -0.2742
 1943DOPC   C3B22801  20.704  14.454  10.420  0.0719 -0.3184 -0.1112
 1943DOPC   C4B22802  20.325  14.745  10.310 -0.2546  0.0156  0.0638
 1944DOPE   NH322803  12.148  12.920  10.740  0.2732 -0.0811 -0.0406
 1944DOPE   PO422804  12.099  12.620  10.802 -0.1429  0.3032  0.2716
 1944DOPE   GL122805  12.088  12.616  11.198 -0.0864  0.3947 -0.2433
 1944DOPE   GL222806  11.907  12.676  11.355  0.4559 -0.0032  0.2155
 1944DOPE   C1A22807  12.376  12.561  11.632 -0.0471  0.1874  0.1954
 1944DOPE   D2A22808  12.463  12.307  12.044 -0.2766  0.1377  0.0399
 1944DOPE   C3A22809  12.643  12.424  12.439 -0.0512  0.0127 -0.1136
 1944DOPE   C4A22810  12.656  12.627  12.848 -0.0180 -0.0738 -0.0016
 1944DOPE   C1B22811  11.871  12.668  11.867 -0.0424  0.1569  0.0931
 1944DOPE   D2B22812  11.963  12.579  12.273 -0.2330  0.1055  0.3648
 1944DOPE   C3B22813  11.675  12.530  12.655  0.1778  0.2354  0.1409
 1944DOPE   C4B22814  11.615  12.715  13.136  0.4682 -0.1545  0.0503
 1945DOPS   CNO22815  20.232  14.249   9.284 -0.3988 -0.3400  0.2143
 1945DOPS   PO422816  20.399  13.959   9.447  0.3876 -0.1095 -0.0224
 1945DOPS   GL122817  20.630  13.962   9.706 -0.1066  0.0536  0.3160
 1945DOPS   GL222818  20.605  13.712   9.827 -0.1668 -0.0457 -0.0838
 1945DOPS   C1A22819  20.383  14.152  10.082  0.0670  0.2347 -0.2337
 1945DOPS   D2A22820  20.227  14.160  10.536 -0.0833  0.3665  0.0212
 1945DOPS   C3A22821  20.056  14.609  10.674 -0.1228 -0.2803  0.1649
 1945DOPS   C4A22822  19.664  14.780  10.870  0.0598  0.1234 -0.1745
 1945DOPS   C1B22823  20.297  13.624  10.185 -0.0958 -0.1936 -0.0297
 1945DOPS   D2B22824  20.190  13.619  10.663 -0.0955 -0.3269 -0.0647
 1945DOPS   C3B22825  19.758  13.733  10.666 -0.0920  0.2536 -0.4199
 1945DOPS   C4B22826  19.300  13.848  10.478  0.0164  0.3384  0.1101
 1946DOPS   CNO22827  17.616  21.553   9.311  0.2892 -0.2018  0.0200
 1946DOPS   PO422828  17.936  21.763   9.226  0.1009  0.1223  0.0981
 1946DOPS   GL122829  18.071  21.403   9.314 -0.0314 -0.2631  0.0163
 1946DOPS   GL222830  18.128  21.132   9.329  0.0847 -0.0051  0.0773
 1946DOPS   C1A22831  18.113  21.347   9.790 -0.2016 -0.0084 -0.1581
 1946DOPS   D2A22832  18.203  21.610  10.148 -0.0358 -0.0760  0.0254
 1946DOPS   C3A22833  18.576  21.884  10.284  0.2157  0.1024 -0.1184
 1946DOPS   C4A22834  19.054  21.920  10.387  0.1800  0.1477  0.1090
 1946DOPS   C1B22835  18.539  21.282   9.359 -0.0887  0.0204  0.2473
 1946DOPS   D2B22836  18.544  21.640   9.688  0.0414  0.0587 -0.2345
 1946DOPS   C3B22837  18.792  22.038   9.843 -0.0919  0.1971  0.1081
 1946DOPS   C4B22838  19.233  22.207   9.907  0.0985 -0.5468 -0.0421
 1947DOPE   NH322839   9.771  20.762  10.608  0.2232 -0.0987 -0.4200
 1947DOPE   PO422840   9.496  20.946  10.488 -0.1802 -0.3451  0.3806
 1947DOPE   GL122841   9.179  20.765  10.739 -0.3913  0.0835 -0.4593
 1947DOPE   GL222842   9.344  20.650  10.899  0.2265 -0.2637  0.1148
 1947DOPE   C1A22843   8.978  20.902  11.169  0.0305 -0.0619 -0.0285
 1947DOPE   D2A22844   8.840  21.166  11.523 -0.0238 -0.2287  0.0843
 1947DOPE   C3A22845   9.090  21.482  11.836 -0.2313 -0.2558 -0.1920
 1947DOPE   C4A22846   8.943  21.529  12.220 -0.0038  0.1134  0.1798
 1947DOPE   C1B22847   9.627  20.650  11.262 -0.0615  0.3618  0.3037
 1947DOPE   D2B22848   9.850  20.323  11.509 -0.0709 -0.0570 -0.0378
 1947DOPE   C3B22849   9.841  20.436  12.001  0.2537  0.3177 -0.0404
 1947DOPE   C4B22850   9.908  20.317  12.450 -0.0977 -0.3257 -0.2313
 1948DOPE   NH322851  14.280  17.385   9.254  0.0492 -0.4389 -0.1084
 1948DOPE   PO422852  14.465  17.201   9.150  0.0561 -0.1399 -0.1498
 1948DOPE   GL122853  14.705  17.279   9.376 -0.2430  0.1053  0.0527
 1948DOPE   GL222854  14.636  17.582   9.500 -0.4330  0.3078 -0.1950
 1948DOPE   C1A22855  14.887  17.077   9.814  0.2342 -0.0738  0.2276
 1948DOPE   D2A22856  15.154  16.926  10.205  0.6542  0.1135 -0.1613
 1948DOPE   C3A22857  15.154  16.992  10.668 -0.1895  0.0923  0.1003
 1948DOPE   C4A22858  15.294  17.059  11.093  0.1776 -0.0186  0.1281
 1948DOPE   C1B22859  14.918  17.616   9.916  0.4227 -0.1270 -0.0665
 1948DOPE   D2B22860  14.998  17.800  10.329 -0.1039  0.1887 -0.1732
 1948DOPE   C3B22861  15.392  17.832  10.525  0.3034 -0.0939  0.2406
 1948DOPE   C4B22862  15.728  18.142  10.509  0.2950  0.0288 -0.1508
 1949POSM   NC322863  22.221  15.393   9.167 -0.1259  0.1674  0.3868
 1949POSM   PO422864  22.500  15.560   9.358 -0.0808  0.3448  0.3079
 1949POSM   AM122865  22.441  15.393   9.622  0.2177  0.1694 -0.1033
 1949POSM   AM222866  22.483  15.539   9.890  0.3601  0.3240  0.0990
 1949POSM   T1A22867  22.307  15.037   9.968  0.0127  0.2027  0.2391
 1949POSM   C2A22868  22.122  14.748  10.291  0.0725  0.0839  0.0866
 1949POSM   C3A22869  21.841  14.695  10.633 -0.1538  0.0491 -0.0173
 1949POSM   C1B22870  22.371  15.435  10.218 -0.0593 -0.0609 -0.0341
 1949POSM   D2B22871  22.058  15.305  10.513  0.2274  0.2963  0.2390
 1949POSM   C3B22872  22.216  15.077  10.841  0.0683 -0.2509 -0.2000
 1949POSM   C4B22873  22.244  15.220  11.273  0.1158  0.0234  0.0506
 1950DOPC   NC322874  18.747  15.913   8.701  0.1571  0.0911  0.0968
 1950DOPC   PO422875  18.555  16.202   8.838  0.1540  0.1115 -0.0134
 1950DOPC   GL122876  18.684  16.271   9.263  0.1707 -0.1318 -0.3688
 1950DOPC   GL222877  18.504  16.041   9.373  0.3593 -0.0933  0.0360
 1950DOPC   C1A22878  19.081  16.225   9.456 -0.1942  0.0432  0.2032
 1950DOPC   D2A22879  19.477  16.276   9.730 -0.0944  0.1999  0.3235
 1950DOPC   C3A22880  19.461  16.225  10.218  0.0253 -0.0754  0.0647
 1950DOPC   C4A22881  19.264  16.212  10.633 -0.0083  0.1972  0.1259
 1950DOPC   C1B22882  18.202  15.769   9.572 -0.2348  0.0939 -0.5008
 1950DOPC   D2B22883  17.844  15.867   9.891 -0.4392 -0.0429 -0.0703
 1950DOPC   C3B22884  17.399  16.011   9.851 -0.0142 -0.0586  0.2802
 1950DOPC   C4B22885  17.020  15.996  10.003  0.1170  0.1852  0.1306
 1951DOPC   NC322886  16.278  15.750   9.134 -0.1305 -0.2791  0.1897
 1951DOPC   PO422887  15.911  15.701   9.266 -0.0137  0.2585  0.1045
 1951DOPC   GL122888  15.818  15.737   9.667 -0.1323 -0.1123 -0.0942
 1951DOPC   GL222889  15.985  15.928   9.771 -0.1444 -0.0025  0.1600
 1951DOPC   C1A22890  16.008  15.666  10.141  0.3906 -0.3981  0.1576
 1951DOPC   D2A22891  16.013  15.676  10.552 -0.3921  0.2946 -0.0939
 1951DOPC   C3A22892  15.589  15.847  10.625 -0.1896 -0.0975 -0.0034
 1951DOPC   C4A22893  15.250  16.084  10.699  0.2674  0.0108  0.1179
 1951DOPC   C1B22894  15.844  16.363   9.810 -0.2550 -0.3426 -0.0962
 1951DOPC   D2B22895  15.994  16.775   9.943 -0.1445  0.1169  0.1212
 1951DOPC   C3B22896  15.766  16.879  10.341  0.0445  0.2345 -0.2256
 1951DOPC   C4B22897  15.631  17.192  10.572 -0.2117  0.1526 -0.1945
 1952DOPE   NH322898  20.906  22.706   9.053 -0.1525 -0.2274  0.3234
 1952DOPE   PO422899  20.731  22.496   9.253 -0.4725 -0.0339 -0.0575
 1952DOPE   GL122900  20.730  22.429   9.598  0.0671 -0.0675 -0.4231
 1952DOPE   GL222901  20.485  22.533   9.719  0.0457 -0.1450 -0.1499
 1952DOPE   C1A22902  21.109  22.373   9.875 -0.2387  0.1974  0.0583
 1952DOPE   D2A22903  21.490  22.264  10.166 -0.0264 -0.0551  0.1483
 1952DOPE   C3A22904  21.396  21.957  10.530  0.1180  0.1147  0.1286
 1952DOPE   C4A22905  21.315  21.612  10.854 -0.1564 -0.0973 -0.2592
 1952DOPE   C1B22906  20.650  22.264  10.106 -0.1913 -0.1577 -0.0972
 1952DOPE   D2B22907  21.020  22.041  10.253  0.2219  0.2182 -0.1333
 1952DOPE   C3B22908  20.906  21.790  10.643  0.0177  0.1848 -0.0047
 1952DOPE   C4B22909  20.757  21.472  10.967  0.1533  0.2644 -0.0075
 1953POSM   NC322910  22.315  22.630   9.350 -0.3567 -0.0866  0.0367
 1953POSM   PO422911  22.480  22.434   9.042 -0.0966 -0.2951 -0.0821
 1953POSM   AM122912  22.463  22.202   9.261  0.2816  0.0361  0.4335
 1953POSM   AM222913  22.528  22.218   9.536 -0.2274 -0.1557  0.3215
 1953POSM   T1A22914  22.374  21.769   9.470 -0.1274  0.0793  0.2061
 1953POSM   C2A22915  22.203  21.371   9.592 -0.0709  0.1032 -0.1127
 1953POSM   C3A22916  21.919  20.980   9.678  0.0030  0.0219  0.0263
 1953POSM   C1B22917  22.243  22.224   9.730  0.2748  0.2364  0.0270
 1953POSM   D2B22918  22.024  22.138  10.091 -0.2464  0.4290  0.4227
 1953POSM   C3B22919  22.279  22.028  10.466 -0.0621  0.0239 -0.1647
 1953POSM   C4B22920  22.347  21.795  10.904  0.2363 -0.1178  0.2615
 1954DOPE   NH322921  19.315  18.548   8.898  0.0501  0.2142  0.0886
 1954DOPE   PO422922  19.180  18.294   8.977  0.0339 -0.0978  0.1587
 1954DOPE   GL122923  19.283  18.305   9.329 -0.1814 -0.1001  0.1014
 1954DOPE   GL222924  19.048  18.531   9.451 -0.2628  0.0242 -0.2079
 1954DOPE   C1A22925  19.385  18.378   9.752  0.1594 -0.0463  0.1914
 1954DOPE   D2A22926  19.246  18.737  10.023  0.3780 -0.0788 -0.0881
 1954DOPE   C3A22927  19.408  18.845  10.414  0.0054  0.1334 -0.0258
 1954DOPE   C4A22928  19.397  18.967  10.874 -0.2962  0.0375  0.1857
 1954DOPE   C1B22929  18.771  18.457   9.735  0.2370  0.2952  0.0910
 1954DOPE   D2B22930  18.715  18.629  10.154  0.4831  0.0646  0.0706
 1954DOPE   C3B22931  18.289  18.783  10.262  0.1744 -0.0852 -0.0956
 1954DOPE   C4B22932  17.900  18.890  10.479  0.1313 -0.2288  0.1021
 1955DOPC   NC322933  17.756  14.901   8.808 -0.1968  0.0721 -0.1507
 1955DOPC   PO422934  17.829  14.544   8.790 -0.4398 -0.2790  0.1628
 1955DOPC   GL122935  17.699  14.569   9.135  0.0418 -0.0999 -0.3529
 1955DOPC   GL222936  17.903  14.787   9.325 -0.4172  0.0725  0.0566
 1955DOPC   C1A22937  17.643  14.360   9.561  0.0550 -0.0306 -0.4939
 1955DOPC   D2A22938  17.190  14.366   9.687  0.0572 -0.1188  0.1085
 1955DOPC   C3A22939  16.941  14.357  10.093 -0.2388  0.3049  0.1003
 1955DOPC   C4A22940  17.232  14.074  10.279 -0.1750 -0.0005 -0.0718
 1955DOPC   C1B22941  18.019  14.846   9.779 -0.0514  0.2749  0.1435
 1955DOPC   D2B22942  17.870  15.019  10.196  0.0582 -0.2685  0.0745
 1955DOPC   C3B22943  18.209  15.222  10.453 -0.2762 -0.4049  0.1640
 1955DOPC   C4B22944  18.102  15.605  10.678 -0.1106 -0.0237  0.0723
 1956DOPS   CNO22945  13.022  11.170  10.614  0.0397 -0.3330  0.2439
 1956DOPS   PO422946  13.118  11.014  10.921  0.0747 -0.1912 -0.3609
 1956DOPS   GL122947  13.113  11.099  11.313 -0.0254  0.0223  0.2073
 1956DOPS   GL222948  13.173  10.871  11.473  0.2077  0.0273 -0.2532
 1956DOPS   C1A22949  13.462  11.260  11.501 -0.0271  0.1297  0.1549
 1956DOPS   D2A22950  13.907  11.324  11.355  0.4745 -0.2865  0.0951
 1956DOPS   C3A22951  13.988  11.826  11.257  0.2787 -0.2954  0.0740
 1956DOPS   C4A22952  14.225  12.170  11.027 -0.1030  0.1378 -0.0039
 1956DOPS   C1B22953  13.299  10.925  11.922  0.4728  0.0795 -0.0575
 1956DOPS   D2B22954  13.318  10.806  12.364 -0.0906  0.2590  0.0613
 1956DOPS   C3B22955  13.598  10.547  12.572 -0.2587  0.3023 -0.0659
 1956DOPS   C4B22956  13.502  10.467  13.013  0.0727  0.2508 -0.0774
 1957DOPE   NH322957  14.444  21.018   9.176  0.0540 -0.0963  0.0554
 1957DOPE   PO422958  14.178  21.187   9.196  0.1783 -0.0047  0.0366
 1957DOPE   GL122959  14.392  21.162   9.610 -0.1787 -0.1743 -0.2159
 1957DOPE   GL222960  14.366  20.926   9.868 -0.0443 -0.0502 -0.1702
 1957DOPE   C1A22961  14.799  21.196   9.795 -0.2903  0.0106 -0.0080
 1957DOPE   D2A22962  14.802  21.294  10.256  0.2446 -0.1063 -0.0946
 1957DOPE   C3A22963  14.530  20.941  10.410 -0.0595  0.1903 -0.1912
 1957DOPE   C4A22964  14.526  20.510  10.531 -0.1427  0.2481  0.2330
 1957DOPE   C1B22965  14.676  20.599  10.044  0.1690  0.1301  0.0377
 1957DOPE   D2B22966  15.006  20.247   9.918 -0.1623  0.1215 -0.1002
 1957DOPE   C3B22967  14.921  19.856  10.259  0.1733 -0.0150  0.0427
 1957DOPE   C4B22968  14.583  19.641  10.495 -0.2403  0.0350 -0.2848
 1958DOPE   NH322969  13.987  15.776   9.208 -0.0088 -0.2173 -0.0007
 1958DOPE   PO422970  14.132  15.762   9.425 -0.0654 -0.2212  0.4897
 1958DOPE   GL122971  14.227  15.961   9.711  0.0081  0.1834 -0.0243
 1958DOPE   GL222972  14.284  15.816  10.005 -0.0001 -0.2148  0.2394
 1958DOPE   C1A22973  14.055  16.276   9.968 -0.1576  0.1750  0.2084
 1958DOPE   D2A22974  13.772  16.437  10.328 -0.3023 -0.1806  0.1790
 1958DOPE   C3A22975  13.674  16.653  10.677 -0.1061  0.1018 -0.2151
 1958DOPE   C4A22976  13.856  16.684  11.099 -0.2128 -0.3072 -0.2344
 1958DOPE   C1B22977  14.431  16.164  10.304  0.1876 -0.0970 -0.1156
 1958DOPE   D2B22978  14.243  16.429  10.566  0.0045 -0.2707  0.2586
 1958DOPE   C3B22979  14.144  16.230  10.922 -0.0959 -0.2467  0.2398
 1958DOPE   C4B22980  14.403  15.989  11.126  0.1145  0.1172  0.0053
 1959DOPS   CNO22981  22.705  24.228   9.672 -0.0214  0.0119 -0.1533
 1959DOPS   PO422982  22.719  23.898   9.506 -0.0599  0.0309  0.2538
 1959DOPS   GL122983  22.710  23.788   9.928  0.0461  0.1803 -0.3411
 1959DOPS   GL222984  22.449  23.816   9.994 -0.0191 -0.0267 -0.1461
 1959DOPS   C1A22985  22.676  24.024  10.370  0.2043  0.1607  0.1442
 1959DOPS   D2A22986  23.075  24.154  10.580  0.1414 -0.0935  0.1261
 1959DOPS   C3A22987  23.071  24.122  11.040 -0.2490 -0.0768 -0.2901
 1959DOPS   C4A22988  23.148  23.820  11.421 -0.2800  0.0672 -0.0347
 1959DOPS   C1B22989  22.658  23.487  10.298 -0.1828  0.1488 -0.1125
 1959DOPS   D2B22990  22.760  23.266  10.676 -0.1291  0.1808  0.2965
 1959DOPS   C3B22991  22.776  23.022  11.057  0.3747 -0.1470  0.2094
 1959DOPS   C4B22992  22.887  22.618  11.228 -0.0868 -0.1652 -0.1392
 1960DOPE   NH322993  20.814  14.822   9.510 -0.2078 -0.2385 -0.0998
 1960DOPE   PO422994  20.556  14.985   9.650  0.0563 -0.0770 -0.0936
 1960DOPE   GL122995  20.550  15.013  10.005 -0.1721 -0.1683  0.2372
 1960DOPE   GL222996  20.215  15.185  10.013 -0.2927 -0.2843  0.1513
 1960DOPE   C1A22997  20.750  15.012  10.408 -0.0227  0.1507  0.1828
 1960DOPE   D2A22998  20.663  14.818  10.844 -0.0479  0.2485 -0.0230
 1960DOPE   C3A22999  20.517  14.357  10.888  0.1253  0.1366  0.4219
 1960DOPE   C4A23000  20.426  13.890  10.964 -0.0078 -0.1925 -0.0944
 1960DOPE   C1B23001  20.514  15.479  10.214 -0.1347  0.2363  0.2299
 1960DOPE   D2B23002  20.908  15.611  10.440 -0.3331  0.2684  0.3007
 1960DOPE   C3B23003  21.048  15.311  10.743 -0.2888  0.1166  0.0123
 1960DOPE   C4B23004  20.870  15.173  11.104 -0.0969 -0.0998  0.1373
 1961DOPS   CNO23005  18.050  12.610   9.477 -0.0177 -0.1561 -0.1354
 1961DOPS   PO423006  17.775  12.647   9.737  0.3102  0.2986 -0.0030
 1961DOPS   GL123007  17.611  12.447  10.078  0.0153  0.0214 -0.2656
 1961DOPS   GL223008  17.915  12.265  10.068 -0.0493 -0.1137  0.0264
 1961DOPS   C1A23009  17.597  12.255  10.531 -0.0242  0.0234  0.0221
 1961DOPS   D2A23010  17.314  11.845  10.533 -0.1160  0.0165 -0.0660
 1961DOPS   C3A23011  17.141  11.742  10.946  0.0914  0.0275  0.1207
 1961DOPS   C4A23012  16.725  11.700  11.125  0.1408 -0.0649 -0.2017
 1961DOPS   C1B23013  17.952  12.597  10.414  0.0349 -0.3130  0.6630
 1961DOPS   D2B23014  17.986  12.994  10.604 -0.2007 -0.3474 -0.4463
 1961DOPS   C3B23015  17.735  13.133  10.953  0.0897 -0.3816  0.0673
 1961DOPS   C4B23016  17.847  13.096  11.460  0.3652  0.2115  0.1576
 1962DOPS   CNO23017  20.902  14.705  10.022 -0.0403 -0.5868  0.0372
 1962DOPS   PO423018  21.277  14.781   9.853  0.1291 -0.1630 -0.2208
 1962DOPS   GL123019  21.300  14.636  10.166 -0.2458  0.0706 -0.0780
 1962DOPS   GL223020  21.549  14.586  10.287  0.1485  0.1159 -0.0096
 1962DOPS   C1A23021  21.131  14.728  10.545 -0.1209  0.3940 -0.1473
 1962DOPS   D2A23022  21.201  14.854  11.015 -0.0280  0.1640 -0.1832
 1962DOPS   C3A23023  21.537  14.583  11.164  0.2345 -0.1232 -0.1681
 1962DOPS   C4A23024  21.843  14.302  11.003  0.2151 -0.0212 -0.1686
 1962DOPS   C1B23025  21.492  14.326  10.708 -0.1505 -0.1596  0.0910
 1962DOPS   D2B23026  21.446  13.962  10.987 -0.1883 -0.1056 -0.3312
 1962DOPS   C3B23027  21.683  13.734  11.303  0.0106 -0.0928  0.3029
 1962DOPS   C4B23028  22.084  13.497  11.288 -0.0540 -0.1492 -0.2631
 1963DOPC   NC323029  16.432  12.066   9.661  0.0230 -0.1830 -0.1315
 1963DOPC   PO423030  16.777  12.208   9.697  0.0411 -0.0127  0.0871
 1963DOPC   GL123031  16.751  12.383  10.083  0.0001 -0.3813 -0.1571
 1963DOPC   GL223032  16.688  12.342  10.368 -0.1390  0.0332 -0.2159
 1963DOPC   C1A23033  17.143  12.480  10.254  0.1806 -0.2175  0.1881
 1963DOPC   D2A23034  17.470  12.708  10.461 -0.0045 -0.1187 -0.0831
 1963DOPC   C3A23035  17.675  12.608  10.840  0.3941 -0.0518  0.0598
 1963DOPC   C4A23036  17.859  12.558  11.281  0.2047 -0.1910  0.0095
 1963DOPC   C1B23037  16.966  12.456  10.696 -0.1918  0.2454 -0.1863
 1963DOPC   D2B23038  17.328  12.294  11.018  0.4020  0.3521  0.2540
 1963DOPC   C3B23039  17.591  11.915  10.966 -0.3614  0.0294 -0.3239
 1963DOPC   C4B23040  17.990  11.695  11.000  0.0387  0.0574  0.2279
 1964DOPC   NC323041  18.433  18.935   9.343  0.1311 -0.1075  0.1892
 1964DOPC   PO423042  18.307  19.287   9.436 -0.1425 -0.2262  0.1404
 1964DOPC   GL123043  18.357  19.630   9.686 -0.1543  0.1304 -0.1605
 1964DOPC   GL223044  18.524  19.806   9.572 -0.3051 -0.2686 -0.3993
 1964DOPC   C1A23045  18.738  19.535   9.942  0.1280 -0.1020  0.0891
 1964DOPC   D2A23046  18.969  19.727  10.300 -0.0494 -0.0647  0.0041
 1964DOPC   C3A23047  19.284  19.981  10.543  0.2441 -0.2873 -0.0832
 1964DOPC   C4A23048  19.636  20.202  10.786  0.2593  0.0250 -0.4631
 1964DOPC   C1B23049  18.763  20.122   9.819 -0.0371  0.1473  0.0917
 1964DOPC   D2B23050  18.602  20.479  10.117  0.0380  0.2893 -0.1658
 1964DOPC   C3B23051  18.873  20.862  10.205  0.2014  0.1042  0.2856
 1964DOPC   C4B23052  19.348  20.903  10.346  0.0522 -0.4629 -0.2869
 1965DOPE   NH323053  14.702  14.958   9.640 -0.0731 -0.0253 -0.2623
 1965DOPE   PO423054  14.946  14.939   9.438  0.0553 -0.0905  0.4359
 1965DOPE   GL123055  15.190  15.027   9.736 -0.0196  0.0586 -0.0191
 1965DOPE   GL223056  15.044  15.079   9.956  0.0223  0.1650  0.1325
 1965DOPE   C1A23057  15.491  15.312   9.981  0.1855  0.1533 -0.0215
 1965DOPE   D2A23058  15.309  15.600  10.293 -0.2588 -0.3238 -0.2825
 1965DOPE   C3A23059  15.258  15.526  10.760 -0.1462  0.0289  0.2651
 1965DOPE   C4A23060  14.966  15.751  11.027 -0.1077 -0.0482  0.2814
 1965DOPE   C1B23061  14.931  15.139  10.388 -0.1455  0.1052  0.0829
 1965DOPE   D2B23062  15.057  15.082  10.812  0.0825  0.0614 -0.1779
 1965DOPE   C3B23063  15.412  14.856  10.893 -0.0314 -0.0805  0.1938
 1965DOPE   C4B23064  15.843  14.803  11.017 -0.0089 -0.5280  0.4105
 1966DOPC   NC323065  20.125  20.524   8.769  0.0445  0.0664  0.1929
 1966DOPC   PO423066  19.753  20.652   8.793  0.0512  0.0873  0.2294
 1966DOPC   GL123067  19.836  20.737   9.129 -0.1380 -0.4673  0.0547
 1966DOPC   GL223068  20.047  20.813   9.349  0.1375  0.1637  0.2351
 1966DOPC   C1A23069  19.458  20.731   9.416 -0.1244  0.0692  0.1428
 1966DOPC   D2A23070  19.290  20.779   9.843 -0.1167 -0.0174 -0.2049
 1966DOPC   C3A23071  19.113  21.166   9.916 -0.0329  0.2703  0.2194
 1966DOPC   C4A23072  18.883  21.575  10.027  0.0826 -0.0214 -0.0103
 1966DOPC   C1B23073  20.334  20.981   9.668  0.1646 -0.0978 -0.0568
 1966DOPC   D2B23074  20.722  21.074   9.901  0.0040 -0.0566  0.1647
 1966DOPC   C3B23075  20.867  20.843  10.292  0.1644  0.4169  0.1531
 1966DOPC   C4B23076  20.889  20.554  10.649 -0.3109 -0.2346 -0.0574
 1967POSM   NC323077  16.715  11.154   9.962  0.4057 -0.0611 -0.2320
 1967POSM   PO423078  16.868  11.482  10.156  0.0892 -0.2763 -0.0440
 1967POSM   AM123079  16.734  11.510  10.446 -0.1421 -0.0886  0.0954
 1967POSM   AM223080  16.763  11.764  10.576 -0.2824 -0.0279 -0.1265
 1967POSM   T1A23081  16.582  11.282  10.866 -0.1070  0.1009  0.0405
 1967POSM   C2A23082  16.645  11.189  11.265  0.1703  0.1129  0.1505
 1967POSM   C3A23083  17.007  11.368  11.480  0.0952 -0.1074 -0.4253
 1967POSM   C1B23084  16.732  12.028  10.761  0.1316 -0.0015 -0.0988
 1967POSM   D2B23085  16.855  12.209  11.171  0.3040  0.0450 -0.0240
 1967POSM   C3B23086  16.468  12.422  11.350  0.0612 -0.0628 -0.1198
 1967POSM   C4B23087  16.232  12.510  11.718  0.0124 -0.0341 -0.3293
 1968DOPC   NC323088  12.003  16.945  10.317  0.0290 -0.0559  0.0336
 1968DOPC   PO423089  11.854  17.183  10.031  0.0479 -0.4561 -0.0130
 1968DOPC   GL123090  11.667  17.223  10.418 -0.0303 -0.1518  0.0025
 1968DOPC   GL223091  11.367  17.258  10.505 -0.0855  0.4425 -0.0699
 1968DOPC   C1A23092  11.614  17.055  10.844 -0.1490  0.1041  0.0219
 1968DOPC   D2A23093  11.938  16.843  11.126  0.1178 -0.1005 -0.2186
 1968DOPC   C3A23094  12.090  16.605  11.557 -0.2499 -0.3242  0.4479
 1968DOPC   C4A23095  11.993  16.356  11.954  0.1239  0.2636 -0.0485
 1968DOPC   C1B23096  11.111  17.495  10.827 -0.1466 -0.1868  0.1642
 1968DOPC   D2B23097  10.976  17.309  11.209 -0.1018 -0.1616  0.2735
 1968DOPC   C3B23098  10.808  17.746  11.319  0.3394 -0.3797 -0.2559
 1968DOPC   C4B23099  10.993  18.170  11.361  0.0079  0.1024 -0.2333
 1969DOPC   NC323100  18.279  18.131   9.395 -0.1067 -0.1511 -0.1151
 1969DOPC   PO423101  17.954  18.102   9.202  0.1398 -0.2559 -0.1340
 1969DOPC   GL123102  17.974  18.435   9.511 -0.4209 -0.0886 -0.0366
 1969DOPC   GL223103  17.901  18.225   9.688  0.1105  0.0451 -0.0470
 1969DOPC   C1A23104  18.321  18.653   9.765  0.0610 -0.5036 -0.0041
 1969DOPC   D2A23105  18.457  19.026   9.862  0.2315 -0.2189 -0.1156
 1969DOPC   C3A23106  18.248  19.252  10.248 -0.1157 -0.0807 -0.3242
 1969DOPC   C4A23107  18.045  19.327  10.608 -0.0098 -0.1549  0.0730
 1969DOPC   C1B23108  18.216  18.195  10.092  0.0416  0.2061  0.2131
 1969DOPC   D2B23109  18.197  18.387  10.529  0.1055 -0.1347  0.1593
 1969DOPC   C3B23110  18.492  18.602  10.805 -0.0480  0.0555  0.2672
 1969DOPC   C4B23111  18.491  18.813  11.261  0.1252 -0.1484  0.4859
 1970DOPE   NH323112  13.864  20.333   9.121  0.1557  0.1235 -0.3205
 1970DOPE   PO423113  13.754  20.284   9.389  0.4173  0.1581 -0.0128
 1970DOPE   GL123114  13.691  20.568   9.704  0.1450  0.1749  0.0255
 1970DOPE   GL223115  13.742  20.343   9.911  0.0241  0.1707 -0.1115
 1970DOPE   C1A23116  13.731  20.820  10.129 -0.1925  0.0551 -0.0514
 1970DOPE   D2A23117  13.740  21.118  10.503  0.2974  0.2201  0.0727
 1970DOPE   C3A23118  13.422  21.442  10.586  0.3671  0.3625  0.0988
 1970DOPE   C4A23119  13.366  21.899  10.567 -0.1178 -0.0522 -0.1730
 1970DOPE   C1B23120  13.593  20.049  10.322 -0.2299  0.0522  0.0485
 1970DOPE   D2B23121  13.215  19.783  10.259  0.1429 -0.0650  0.1983
 1970DOPE   C3B23122  13.205  19.315  10.497 -0.2632  0.1938  0.1311
 1970DOPE   C4B23123  13.519  19.048  10.747 -0.0494 -0.1083 -0.1144
 1971DOPE   NH323124  11.686  22.951   9.913  0.1235  0.2466  0.0192
 1971DOPE   PO423125  11.667  22.852  10.218  0.4796  0.1611  0.2997
 1971DOPE   GL123126  11.800  22.835  10.524 -0.2130 -0.1168  0.0291
 1971DOPE   GL223127  12.067  22.700  10.536 -0.1059 -0.0964  0.0978
 1971DOPE   C1A23128  11.706  22.997  10.957  0.0273 -0.0513  0.2151
 1971DOPE   D2A23129  11.912  23.101  11.335 -0.0627  0.2623  0.3299
 1971DOPE   C3A23130  12.123  23.541  11.263 -0.0170  0.1862 -0.2349
 1971DOPE   C4A23131  12.577  23.750  11.298 -0.1498  0.3112 -0.0070
 1971DOPE   C1B23132  12.052  22.279  10.765  0.0884  0.0495  0.0592
 1971DOPE   D2B23133  12.101  21.863  10.912  0.1447  0.0992 -0.2208
 1971DOPE   C3B23134  12.242  21.649  11.312 -0.0834 -0.1168  0.0145
 1971DOPE   C4B23135  12.212  21.639  11.797 -0.0607  0.1238 -0.1855
 1972DOPC   NC323136  10.840  19.230  10.207 -0.0660  0.1657  0.1737
 1972DOPC   PO423137  10.712  18.947   9.978  0.0209 -0.1415 -0.1859
 1972DOPC   GL123138  10.853  18.713  10.275  0.3393  0.2273  0.1859
 1972DOPC   GL223139  10.995  18.513  10.125 -0.0055  0.0951 -0.0528
 1972DOPC   C1A23140  11.206  18.996  10.481  0.4254 -0.1099 -0.2460
 1972DOPC   D2A23141  11.564  19.081  10.746  0.0902 -0.0607 -0.1364
 1972DOPC   C3A23142  11.885  19.456  10.696 -0.3164 -0.0426 -0.3538
 1972DOPC   C4A23143  12.330  19.620  10.820  0.0725  0.0979 -0.0602
 1972DOPC   C1B23144  11.377  18.456  10.347 -0.1625  0.0006  0.2106
 1972DOPC   D2B23145  11.803  18.535  10.545 -0.2408 -0.0784 -0.0805
 1972DOPC   C3B23146  11.689  18.595  10.987  0.3288 -0.1048 -0.0698
 1972DOPC   C4B23147  11.418  18.484  11.310 -0.0532 -0.1065 -0.1509
 1973DOPE   NH323148  19.783  17.837   8.879 -0.2071 -0.2515 -0.0212
 1973DOPE   PO423149  19.499  17.811   8.926 -0.0050 -0.0786  0.0955
 1973DOPE   GL123150  19.342  17.912   9.271 -0.0819  0.0427 -0.5025
 1973DOPE   GL223151  19.547  17.953   9.491  0.3197  0.0497 -0.1477
 1973DOPE   C1A23152  19.086  17.970   9.700 -0.1993 -0.0970 -0.4150
 1973DOPE   D2A23153  18.756  17.899  10.000 -0.2211  0.1358 -0.2054
 1973DOPE   C3A23154  18.684  18.131  10.390 -0.0287 -0.0422 -0.0182
 1973DOPE   C4A23155  18.764  18.193  10.836 -0.0539  0.0398  0.1124
 1973DOPE   C1B23156  19.553  17.876   9.928 -0.3608  0.1619  0.3354
 1973DOPE   D2B23157  19.465  17.791  10.370 -0.1759  0.3341 -0.0384
 1973DOPE   C3B23158  19.269  18.114  10.737 -0.0414 -0.1872 -0.0155
 1973DOPE   C4B23159  19.080  18.029  11.128 -0.0454  0.1443  0.3170
 1974DOPS   CNO23160  17.460  23.530   9.189 -0.2704  0.0644 -0.1489
 1974DOPS   PO423161  17.228  23.281   9.304  0.1861  0.4877 -0.2137
 1974DOPS   GL123162  17.423  23.270   9.715  0.4072 -0.0238 -0.1420
 1974DOPS   GL223163  17.342  23.027   9.888  0.2079 -0.1444  0.1221
 1974DOPS   C1A23164  17.591  23.311  10.182 -0.0329 -0.2303  0.0430
 1974DOPS   D2A23165  17.693  23.048  10.605  0.1272  0.0294  0.1933
 1974DOPS   C3A23166  17.886  22.746  10.935 -0.1795 -0.3592 -0.1341
 1974DOPS   C4A23167  17.946  22.286  11.052 -0.2119 -0.1296 -0.0457
 1974DOPS   C1B23168  17.291  22.986  10.338 -0.2679  0.0169 -0.0095
 1974DOPS   D2B23169  17.037  22.932  10.669  0.1374 -0.2742 -0.2718
 1974DOPS   C3B23170  16.910  23.370  10.816  0.2352  0.2907 -0.1383
 1974DOPS   C4B23171  16.680  23.743  10.830 -0.1805  0.1681 -0.0143
 1975DOPC   NC323172  14.397  23.095   9.684 -0.0573 -0.0185 -0.1425
 1975DOPC   PO423173  14.409  22.848   9.999 -0.0604  0.3478 -0.0113
 1975DOPC   GL123174  14.264  23.040  10.182  0.3728 -0.0818 -0.1386
 1975DOPC   GL223175  14.477  23.266  10.317  0.1216 -0.0172  0.2371
 1975DOPC   C1A23176  14.185  23.008  10.633  0.0976  0.1954 -0.0602
 1975DOPC   D2A23177  14.116  22.989  11.070 -0.0127 -0.1022 -0.1289
 1975DOPC   C3A23178  13.966  23.394  11.185  0.0255 -0.1433  0.0355
 1975DOPC   C4A23179  13.920  23.714  11.518 -0.0101  0.4477  0.0198
 1975DOPC   C1B23180  14.735  23.485  10.654  0.1261 -0.3068 -0.1259
 1975DOPC   D2B23181  15.192  23.382  10.636  0.0315  0.2145 -0.1349
 1975DOPC   C3B23182  15.431  23.390  11.035 -0.0729 -0.0829  0.0056
 1975DOPC   C4B23183  15.290  23.499  11.461 -0.3691  0.0494 -0.2219
 1976POSM   NC323184  19.759  20.379   8.335 -0.0871 -0.1386 -0.1124
 1976POSM   PO423185  19.814  20.104   8.626 -0.1296 -0.0474 -0.2893
 1976POSM   AM123186  19.994  20.100   8.933 -0.1618  0.1139  0.0049
 1976POSM   AM223187  19.928  20.252   9.189 -0.3895 -0.3585 -0.1281
 1976POSM   T1A23188  20.430  20.144   9.079  0.0912 -0.0970  0.0181
 1976POSM   C2A23189  20.689  19.796   9.388 -0.1042 -0.0597 -0.0464
 1976POSM   C3A23190  20.730  19.490   9.787  0.3456 -0.0673  0.1611
 1976POSM   C1B23191  19.695  19.995   9.318  0.1469 -0.1510 -0.1031
 1976POSM   D2B23192  19.467  19.700   9.604  0.0107  0.0204  0.2626
 1976POSM   C3B23193  19.238  19.957   9.986 -0.1705  0.1781 -0.1286
 1976POSM   C4B23194  19.117  20.395  10.123  0.4690 -0.0197  0.2451
 1977DOPC   NC323195  11.403  15.998   9.926 -0.0725  0.2134  0.1560
 1977DOPC   PO423196  11.740  16.094  10.118  0.3668 -0.1411 -0.0464
 1977DOPC   GL123197  11.758  15.913  10.549 -0.0306 -0.1468  0.2727
 1977DOPC   GL223198  12.048  15.980  10.604 -0.0488 -0.2056  0.0914
 1977DOPC   C1A23199  11.551  15.572  10.697  0.0332 -0.2246 -0.0536
 1977DOPC   D2A23200  11.327  15.527  11.151  0.1918 -0.1420  0.0892
 1977DOPC   C3A23201  11.138  15.820  11.397  0.1156 -0.3837 -0.1013
 1977DOPC   C4A23202  10.859  16.188  11.327  0.2848  0.1641 -0.0186
 1977DOPC   C1B23203  12.359  16.104  10.950  0.0261  0.0516  0.1505
 1977DOPC   D2B23204  12.456  16.042  11.382  0.0085 -0.0882  0.1324
 1977DOPC   C3B23205  12.411  16.280  11.722  0.1462  0.0701  0.0776
 1977DOPC   C4B23206  12.384  16.431  12.183  0.1293  0.2471  0.1095
 1978POSM   NC323207  16.419  20.437   9.066  0.0668 -0.1965  0.2379
 1978POSM   PO423208  16.648  20.152   9.147 -0.0230 -0.2186  0.2963
 1978POSM   AM123209  16.578  20.139   9.435 -0.1006 -0.3356  0.3624
 1978POSM   AM223210  16.495  20.317   9.607 -0.3194 -0.1111 -0.1358
 1978POSM   T1A23211  16.692  19.810   9.796  0.1445 -0.2150  0.1457
 1978POSM   C2A23212  16.543  19.567  10.135 -0.2346 -0.1656 -0.2994
 1978POSM   C3A23213  16.224  19.247  10.058 -0.0883 -0.0196  0.1235
 1978POSM   C1B23214  16.315  20.174   9.852  0.1135  0.4573 -0.1747
 1978POSM   D2B23215  15.888  20.188   9.977  0.1636 -0.2907 -0.3695
 1978POSM   C3B23216  15.550  20.390  10.247  0.2827 -0.0672  0.1809
 1978POSM   C4B23217  15.416  20.397  10.718  0.1278  0.0077 -0.0993
 1979DOPE   NH323218  11.157  17.731   9.662 -0.1848 -0.0134  0.2624
 1979DOPE   PO423219  11.356  17.588   9.868 -0.4487  0.1689  0.2159
 1979DOPE   GL123220  11.460  17.708  10.264  0.0061 -0.2694 -0.1403
 1979DOPE   GL223221  11.737  17.620  10.224  0.1003  0.0043 -0.1610
 1979DOPE   C1A23222  11.759  18.048  10.396 -0.1256  0.0356  0.0321
 1979DOPE   D2A23223  11.948  18.207  10.814 -0.3458 -0.1890 -0.1361
 1979DOPE   C3A23224  11.978  18.048  11.213  0.1283  0.2312 -0.1488
 1979DOPE   C4A23225  11.958  18.335  11.549  0.1994 -0.0911 -0.2830
 1979DOPE   C1B23226  11.649  17.609  10.758  0.0090 -0.3744 -0.0445
 1979DOPE   D2B23227  11.796  17.562  11.185  0.0523  0.5404 -0.1418
 1979DOPE   C3B23228  11.407  17.397  11.388  0.0860 -0.0303  0.0569
 1979DOPE   C4B23229  11.037  17.434  11.666  0.1920 -0.1864  0.0232
 1980DOPE   NH323230  18.734  16.660   8.869  0.0362  0.1380 -0.0097
 1980DOPE   PO423231  19.029  16.755   8.839  0.4083 -0.1818  0.2582
 1980DOPE   GL123232  19.159  16.832   9.257 -0.1357 -0.2144 -0.1902
 1980DOPE   GL223233  18.986  16.670   9.390 -0.1093  0.0551  0.2818
 1980DOPE   C1A23234  19.319  16.899   9.727  0.1032  0.1150 -0.1483
 1980DOPE   D2A23235  19.392  16.684  10.121  0.2689 -0.0811 -0.2269
 1980DOPE   C3A23236  19.623  16.605  10.532 -0.0006 -0.0592  0.1784
 1980DOPE   C4A23237  19.767  16.455  10.881  0.0793  0.2238  0.3274
 1980DOPE   C1B23238  18.920  16.525   9.835 -0.1675  0.1312 -0.3030
 1980DOPE   D2B23239  18.747  16.075   9.974  0.1749  0.0156  0.4441
 1980DOPE   C3B23240  18.282  16.020  10.058 -0.3754  0.1608 -0.0661
 1980DOPE   C4B23241  17.977  15.992  10.398 -0.2770 -0.0312  0.0299
 1981DOPS   CNO23242  18.261  11.444   9.565 -0.0972  0.3366  0.0442
 1981DOPS   PO423243  18.222  11.199   9.846  0.0381  0.0082  0.0367
 1981DOPS   GL123244  18.170  11.492  10.113  0.1410 -0.1025 -0.3975
 1981DOPS   GL223245  18.257  11.408  10.347 -0.0189 -0.0618 -0.0193
 1981DOPS   C1A23246  18.338  11.868  10.257  0.1837  0.0794  0.1730
 1981DOPS   D2A23247  18.382  12.306  10.451 -0.2542 -0.0535  0.1019
 1981DOPS   C3A23248  18.214  12.553  10.832  0.0494  0.1473  0.2487
 1981DOPS   C4A23249  18.176  12.922  11.031 -0.1090  0.2248 -0.3352
 1981DOPS   C1B23250  18.047  11.239  10.694  0.1925  0.0424  0.2081
 1981DOPS   D2B23251  17.933  11.207  11.132 -0.0635  0.0246 -0.0778
 1981DOPS   C3B23252  18.323  11.053  11.239  0.1257  0.3018 -0.0341
 1981DOPS   C4B23253  18.720  11.002  11.530 -0.0102  0.2488  0.1306
 1982DOPE   NH323254  13.079  12.163  10.131  0.1756 -0.0659  0.5683
 1982DOPE   PO423255  12.960  12.394  10.341 -0.0838  0.0050  0.0906
 1982DOPE   GL123256  13.011  12.735  10.606 -0.4413  0.2790 -0.2285
 1982DOPE   GL223257  13.219  12.575  10.763  0.1765 -0.4879  0.1714
 1982DOPE   C1A23258  12.952  12.948  10.998 -0.2165  0.0791  0.2151
 1982DOPE   D2A23259  12.954  12.736  11.415 -0.1061  0.1879 -0.0537
 1982DOPE   C3A23260  13.206  12.955  11.798 -0.1942 -0.1230 -0.1189
 1982DOPE   C4A23261  13.053  13.286  12.119  0.3095  0.1526 -0.0313
 1982DOPE   C1B23262  13.688  12.521  10.838 -0.1704 -0.1548  0.0503
 1982DOPE   D2B23263  13.893  12.504  11.224  0.1657  0.1208  0.1309
 1982DOPE   C3B23264  13.802  12.215  11.565  0.0515 -0.2034  0.0732
 1982DOPE   C4B23265  13.555  12.049  11.988  0.1400 -0.1214  0.1545
 1983DOPE   NH323266  20.279  16.092   8.923 -0.3051 -0.1965  0.2573
 1983DOPE   PO423267  20.345  16.002   9.206 -0.0354  0.0142 -0.0185
 1983DOPE   GL123268  20.354  15.967   9.669  0.0937  0.1371  0.1195
 1983DOPE   GL223269  20.506  16.159   9.922 -0.1228 -0.1809 -0.1667
 1983DOPE   C1A23270  20.181  15.853  10.118  0.2364  0.1904  0.0841
 1983DOPE   D2A23271  20.195  15.724  10.525  0.0763 -0.1505  0.0664
 1983DOPE   C3A23272  20.549  15.774  10.810  0.1071  0.2966 -0.1353
 1983DOPE   C4A23273  20.949  15.901  10.992  0.1143 -0.0939  0.0546
 1983DOPE   C1B23274  20.652  15.981  10.316  0.1045 -0.0299 -0.2443
 1983DOPE   D2B23275  20.990  16.185  10.585 -0.1714 -0.2563 -0.1024
 1983DOPE   C3B23276  21.014  16.419  10.998 -0.0523 -0.1690  0.1044
 1983DOPE   C4B23277  21.209  16.683  11.339  0.1278 -0.2917  0.0737
 1984POSM   NC323278  24.419  21.025   9.448  0.1300  0.0631  0.3051
 1984POSM   PO423279  24.184  21.272   9.237 -0.2109 -0.0032 -0.1688
 1984POSM   AM123280  24.023  21.270   9.547  0.2100 -0.1157  0.5581
 1984POSM   AM223281  24.145  21.289   9.795 -0.0692 -0.0081  0.0961
 1984POSM   T1A23282  23.636  21.433   9.714 -0.2024  0.0670 -0.1766
 1984POSM   C2A23283  23.180  21.433   9.642 -0.0398 -0.1452 -0.1218
 1984POSM   C3A23284  22.693  21.471   9.658 -0.0696 -0.2110  0.1021
 1984POSM   C1B23285  23.923  21.096   9.958 -0.0146 -0.1936 -0.2857
 1984POSM   D2B23286  23.472  20.944  10.017  0.1541  0.4376  0.1892
 1984POSM   C3B23287  23.474  20.524  10.224  0.1920 -0.0919 -0.2042
 1984POSM   C4B23288  23.044  20.313  10.340 -0.2506 -0.0817 -0.0866
 1985DOPC   NC323289  22.702  23.244   9.829 -0.1137  0.2368  0.2721
 1985DOPC   PO423290  22.414  23.055   9.569 -0.2443  0.0860 -0.0397
 1985DOPC   GL123291  22.111  23.042   9.878  0.2485 -0.0546 -0.1918
 1985DOPC   GL223292  22.069  23.310   9.943 -0.0877 -0.2854  0.0764
 1985DOPC   C1A23293  21.778  23.018  10.205 -0.0707  0.0988 -0.3159
 1985DOPC   D2A23294  21.592  22.719  10.479  0.0093  0.5246 -0.0469
 1985DOPC   C3A23295  21.290  22.891  10.740 -0.0583  0.0600 -0.1735
 1985DOPC   C4A23296  20.899  22.840  10.887 -0.0696  0.1508 -0.2356
 1985DOPC   C1B23297  22.268  23.100  10.326  0.2691 -0.1142 -0.0048
 1985DOPC   D2B23298  22.459  22.813  10.587 -0.0098  0.1799 -0.1661
 1985DOPC   C3B23299  22.660  22.447  10.734 -0.1662  0.2691  0.0801
 1985DOPC   C4B23300  22.685  22.133  11.070  0.0449  0.1166  0.2214
 1986DOPC   NC323301  14.848  12.095  10.251 -0.2126 -0.0859 -0.1732
 1986DOPC   PO423302  15.225  12.046  10.333  0.1632  0.0670 -0.0116
 1986DOPC   GL123303  15.272  11.758  10.677 -0.0647  0.0106  0.0180
 1986DOPC   GL223304  15.315  12.010  10.860 -0.3389 -0.2054 -0.0782
 1986DOPC   C1A23305  15.573  11.478  10.884  0.1043 -0.1716  0.1915
 1986DOPC   D2A23306  16.020  11.376  11.044 -0.0257 -0.1247  0.3740
 1986DOPC   C3A23307  16.163  11.278  11.507 -0.0928 -0.0665  0.0179
 1986DOPC   C4A23308  16.037  11.120  11.934 -0.3075 -0.1422 -0.0944
 1986DOPC   C1B23309  15.336  11.895  11.294 -0.0614 -0.1964  0.0978
 1986DOPC   D2B23310  15.392  11.671  11.687  0.1076  0.2038 -0.2113
 1986DOPC   C3B23311  15.136  11.566  12.012 -0.0274 -0.1007 -0.1534
 1986DOPC   C4B23312  15.224  11.515  12.528  0.2590 -0.1641  0.3227
 1987DOPE   NH323313  16.105  13.211   9.387 -0.3797 -0.4622  0.0594
 1987DOPE   PO423314  16.284  13.455   9.461  0.0255  0.1053 -0.1389
 1987DOPE   GL123315  16.131  13.471   9.818  0.3836  0.3455  0.0330
 1987DOPE   GL223316  15.942  13.309  10.014 -0.0291  0.0392 -0.0788
 1987DOPE   C1A23317  16.279  13.893  10.038 -0.1774  0.0151  0.2335
 1987DOPE   D2A23318  16.420  14.278   9.916 -0.2849  0.2259  0.2937
 1987DOPE   C3A23319  16.443  14.339  10.368 -0.0677 -0.2258 -0.0199
 1987DOPE   C4A23320  16.549  14.508  10.814  0.1280 -0.0245  0.1612
 1987DOPE   C1B23321  15.968  13.604  10.345  0.4646  0.1968 -0.0590
 1987DOPE   D2B23322  15.716  13.909  10.564 -0.0584 -0.1101 -0.0234
 1987DOPE   C3B23323  15.463  13.749  10.899 -0.0491 -0.2678  0.0886
 1987DOPE   C4B23324  15.221  13.452  11.180  0.0519 -0.0097 -0.2112
 1988DOPE   NH323325  19.857  15.851   8.939 -0.2582  0.1150  0.0670
 1988DOPE   PO423326  19.835  15.505   8.951 -0.0983 -0.1629  0.0308
 1988DOPE   GL123327  19.607  15.587   9.294 -0.1087  0.2542 -0.3459
 1988DOPE   GL223328  19.626  15.400   9.529  0.0200  0.4865  0.0427
 1988DOPE   C1A23329  19.335  15.802   9.656 -0.0205  0.1758 -0.0924
 1988DOPE   D2A23330  19.076  15.705  10.028 -0.0763  0.0224 -0.1586
 1988DOPE   C3A23331  19.382  15.719  10.325  0.1531 -0.1981  0.1397
 1988DOPE   C4A23332  19.723  15.962  10.578 -0.0674  0.2711  0.2785
 1988DOPE   C1B23333  19.742  15.604   9.874  0.0202 -0.0703  0.2638
 1988DOPE   D2B23334  19.858  15.454  10.294 -0.0355 -0.3208 -0.0255
 1988DOPE   C3B23335  20.117  15.222  10.523 -0.4892  0.1904  0.1300
 1988DOPE   C4B23336  20.447  15.275  10.747  0.1539  0.0960 -0.0217
 1989POSM   NC323337  18.079  10.094  10.344  0.0009 -0.2470 -0.1672
 1989POSM   PO423338  18.270  10.428  10.195 -0.1319 -0.0703  0.1628
 1989POSM   AM123339  18.319  10.646  10.434 -0.0156  0.3126 -0.1334
 1989POSM   AM223340  18.448  10.909  10.507 -0.3737  0.2978  0.0886
 1989POSM   T1A23341  18.151  10.725  10.937 -0.1496 -0.5238  0.0658
 1989POSM   C2A23342  17.888  10.714  11.296 -0.1924 -0.0900  0.1052
 1989POSM   C3A23343  17.902  11.042  11.670 -0.3186 -0.0617  0.4037
 1989POSM   C1B23344  18.574  10.991  10.775  0.0791 -0.1873  0.4914
 1989POSM   D2B23345  18.959  11.125  10.941  0.2623 -0.1643 -0.2433
 1989POSM   C3B23346  19.338  10.971  11.178  0.0250  0.0321 -0.2000
 1989POSM   C4B23347  19.489  10.720  11.487  0.0716  0.0940  0.2075
 1990POSM   NC323348  19.357  17.156   8.743 -0.2908  0.0074 -0.0091
 1990POSM   PO423349  19.037  17.375   8.891 -0.2607  0.1538  0.0600
 1990POSM   AM123350  19.037  17.415   9.248 -0.0821 -0.0280 -0.2417
 1990POSM   AM223351  19.149  17.541   9.490  0.1470  0.2220 -0.0648
 1990POSM   T1A23352  18.888  17.133   9.627 -0.3377 -0.1573  0.2338
 1990POSM   C2A23353  18.976  17.009  10.088  0.1904 -0.1668  0.1670
 1990POSM   C3A23354  18.947  16.592  10.345 -0.1166 -0.0276 -0.0205
 1990POSM   C1B23355  19.193  17.488   9.802  0.1487  0.1027 -0.3469
 1990POSM   D2B23356  19.036  17.564  10.221  0.1778 -0.0973 -0.1902
 1990POSM   C3B23357  18.832  17.277  10.518 -0.1647 -0.1106 -0.0124
 1990POSM   C4B23358  18.840  16.982  10.845 -0.2731  0.2783 -0.0713
 1991POSM   NC323359  14.161  19.086   8.460  0.1599  0.1251  0.2635
 1991POSM   PO423360  14.005  18.994   8.793  0.1519 -0.1384 -0.1972
 1991POSM   AM123361  13.999  19.178   9.076 -0.0435 -0.0869  0.0695
 1991POSM   AM223362  14.050  19.463   9.211 -0.3869 -0.0150 -0.1354
 1991POSM   T1A23363  13.753  19.181   9.501 -0.1216 -0.1003 -0.3605
 1991POSM   C2A23364  13.790  19.258   9.940  0.0253  0.3562 -0.0593
 1991POSM   C3A23365  13.584  19.454  10.288 -0.0025  0.3316  0.2266
 1991POSM   C1B23366  14.161  19.528   9.485  0.0399 -0.3125 -0.1751
 1991POSM   D2B23367  14.266  19.783   9.856 -0.1320 -0.2877  0.1016
 1991POSM   C3B23368  14.057  19.782  10.268 -0.0618  0.0630 -0.3661
 1991POSM   C4B23369  13.816  19.733  10.709  0.1636  0.0885  0.3899
 1992POSM   NC323370  23.882  17.289   9.605 -0.2192 -0.1318 -0.0818
 1992POSM   PO423371  23.582  17.109   9.667 -0.3314 -0.2956  0.1951
 1992POSM   AM123372  23.682  17.148  10.000  0.2433  0.4693 -0.2742
 1992POSM   AM223373  23.906  17.295  10.106  0.2631 -0.1516  0.0767
 1992POSM   T1A23374  23.592  17.252  10.498  0.1308  0.0579 -0.2896
 1992POSM   C2A23375  23.563  17.334  10.950 -0.0761 -0.1558 -0.0602
 1992POSM   C3A23376  23.637  17.567  11.365 -0.1100  0.1524 -0.1487
 1992POSM   C1B23377  24.067  17.205  10.391 -0.1638  0.1985  0.0671
 1992POSM   D2B23378  24.476  17.273  10.625  0.0800  0.1351 -0.0538
 1992POSM   C3B23379  24.580  17.423  11.045 -0.1663  0.1737  0.1660
 1992POSM   C4B23380  24.386  17.267  11.493 -0.2515 -0.2739  0.0390
 1993DOPC   NC323381  12.334  16.243   9.957  0.0702  0.2929 -0.2087
 1993DOPC   PO423382  12.299  16.633  10.000 -0.0151  0.5239 -0.2154
 1993DOPC   GL123383  12.431  16.782  10.363  0.1655  0.0416 -0.0040
 1993DOPC   GL223384  12.516  16.549  10.482 -0.0172  0.0260  0.0918
 1993DOPC   C1A23385  12.399  16.837  10.840 -0.2039 -0.1624 -0.4841
 1993DOPC   D2A23386  12.321  17.321  11.025  0.0992  0.1400 -0.0271
 1993DOPC   C3A23387  12.548  17.698  11.263 -0.1749 -0.2049 -0.3108
 1993DOPC   C4A23388  12.459  18.065  11.538  0.1963 -0.0632 -0.1035
 1993DOPC   C1B23389  12.491  16.091  10.382  0.2812  0.1284  0.0237
 1993DOPC   D2B23390  12.452  15.706  10.588 -0.1138  0.1447 -0.2285
 1993DOPC   C3B23391  12.680  15.695  11.005  0.0992  0.0665  0.0523
 1993DOPC   C4B23392  13.033  15.520  11.277 -0.0515  0.1194  0.3217
 1994DOPC   NC323393  22.715  12.591   9.771  0.0611 -0.0341  0.1873
 1994DOPC   PO423394  22.731  12.802   9.437  0.1453 -0.0621 -0.0385
 1994DOPC   GL123395  22.521  13.026   9.747  0.2030  0.5246 -0.0336
 1994DOPC   GL223396  22.337  13.255   9.570 -0.0752  0.2470 -0.0189
 1994DOPC   C1A23397  22.134  12.971   9.942  0.1788  0.1003  0.2919
 1994DOPC   D2A23398  22.024  12.835  10.366 -0.0616 -0.3454 -0.1710
 1994DOPC   C3A23399  22.261  12.987  10.743 -0.2131 -0.4786  0.0050
 1994DOPC   C4A23400  22.404  13.069  11.191  0.2376  0.2605  0.2127
 1994DOPC   C1B23401  22.276  13.433  10.014 -0.1601  0.0002  0.4046
 1994DOPC   D2B23402  22.133  13.332  10.438 -0.0948 -0.1909 -0.3673
 1994DOPC   C3B23403  22.424  13.492  10.807 -0.0036  0.3418  0.0863
 1994DOPC   C4B23404  22.607  13.567  11.173  0.0765 -0.0984  0.0403
 1995DOPE   NH323405  18.936  17.849   9.023 -0.1441 -0.0041  0.1111
 1995DOPE   PO423406  18.746  18.071   9.163 -0.2549 -0.0573 -0.0804
 1995DOPE   GL123407  18.652  17.971   9.563 -0.1736  0.2954 -0.0669
 1995DOPE   GL223408  18.670  17.683   9.482  0.0042 -0.2860 -0.0317
 1995DOPE   C1A23409  18.262  17.838   9.783  0.3360 -0.0272  0.0973
 1995DOPE   D2A23410  18.007  17.632  10.124 -0.0855  0.0555 -0.2641
 1995DOPE   C3A23411  17.531  17.655  10.070 -0.0961  0.0658  0.0467
 1995DOPE   C4A23412  17.134  17.809  10.033  0.0225 -0.1390  0.0544
 1995DOPE   C1B23413  18.555  17.416   9.852 -0.1622 -0.0458  0.1343
 1995DOPE   D2B23414  18.374  17.361  10.323  0.0364 -0.0947  0.0142
 1995DOPE   C3B23415  18.368  17.774  10.515 -0.1270 -0.0996 -0.0728
 1995DOPE   C4B23416  18.369  17.899  10.922  0.2149 -0.0522  0.0004
 1996DOPC   NC323417  17.177  18.493   8.851 -0.0527  0.1361 -0.1011
 1996DOPC   PO423418  16.758  18.434   8.867  0.0684 -0.2812 -0.0109
 1996DOPC   GL123419  16.883  18.431   9.166 -0.0571  0.1913 -0.0094
 1996DOPC   GL223420  16.798  18.705   9.339 -0.2534  0.1942  0.3056
 1996DOPC   C1A23421  16.802  18.069   9.494  0.1270  0.2599  0.0389
 1996DOPC   D2A23422  16.574  17.966   9.872 -0.2627  0.2186  0.1856
 1996DOPC   C3A23423  16.525  18.436   9.957 -0.2726 -0.1315 -0.0453
 1996DOPC   C4A23424  16.559  18.817  10.259 -0.1226  0.1629 -0.1461
 1996DOPC   C1B23425  16.880  18.824   9.831  0.3337 -0.0654 -0.0858
 1996DOPC   D2B23426  16.965  19.105  10.139  0.0230  0.1045 -0.3043
 1996DOPC   C3B23427  16.726  19.279  10.501 -0.0343  0.1853 -0.0597
 1996DOPC   C4B23428  16.623  19.292  10.943  0.0903 -0.1415  0.0840
 1997DOPC   NC323429  19.883  19.041   8.861 -0.0082 -0.1894  0.0449
 1997DOPC   PO423430  19.687  18.816   9.089 -0.0728  0.0884 -0.0724
 1997DOPC   GL123431  19.581  18.641   9.384 -0.1469 -0.0871 -0.1565
 1997DOPC   GL223432  19.761  18.857   9.586 -0.1008  0.0387 -0.2215
 1997DOPC   C1A23433  19.868  18.362   9.573 -0.2543  0.3786 -0.2980
 1997DOPC   D2A23434  19.919  18.222  10.012  0.0748 -0.0613 -0.1793
 1997DOPC   C3A23435  19.587  18.311  10.234  0.0610  0.3595  0.1713
 1997DOPC   C4A23436  19.194  18.081  10.171 -0.0138  0.2163  0.2396
 1997DOPC   C1B23437  19.728  18.739  10.041 -0.1425  0.3142  0.0265
 1997DOPC   D2B23438  19.917  18.642  10.487  0.0307 -0.1465 -0.0808
 1997DOPC   C3B23439  19.661  18.548  10.855 -0.2112  0.0047 -0.1083
 1997DOPC   C4B23440  19.786  18.433  11.271  0.2384  0.1318  0.1986
 1998DOPS   CNO23441  17.941  22.604   9.064 -0.1347  0.1557  0.0072
 1998DOPS   PO423442  18.052  22.587   9.426 -0.1392  0.2270  0.2720
 1998DOPS   GL123443  18.357  22.570   9.678 -0.1722  0.1112  0.2596
 1998DOPS   GL223444  18.577  22.590   9.571 -0.2793  0.0308  0.0819
 1998DOPS   C1A23445  18.255  22.668  10.116 -0.2408  0.1157  0.0295
 1998DOPS   D2A23446  18.042  22.655  10.448  0.1329  0.2044  0.1631
 1998DOPS   C3A23447  17.781  22.340  10.543  0.2395 -0.1737 -0.0976
 1998DOPS   C4A23448  17.762  21.890  10.605 -0.2154  0.2377 -0.0729
 1998DOPS   C1B23449  18.966  22.657   9.799  0.3896  0.0925  0.1872
 1998DOPS   D2B23450  19.363  22.746   9.763  0.3086 -0.1595 -0.1905
 1998DOPS   C3B23451  19.549  23.061  10.056 -0.2400 -0.2667  0.2015
 1998DOPS   C4B23452  19.847  23.397  10.171 -0.0427 -0.4251 -0.3441
 1999POSM   NC323453  23.105  18.260   9.141  0.3941  0.0800 -0.0258
 1999POSM   PO423454  22.818  18.141   9.403  0.3585  0.0017  0.0043
 1999POSM   AM123455  23.027  18.340   9.585 -0.0956 -0.1573  0.3373
 1999POSM   AM223456  23.127  18.610   9.589  0.2036 -0.3009  0.0924
 1999POSM   T1A23457  23.215  18.246  10.038  0.0090  0.2097 -0.1708
 1999POSM   C2A23458  23.096  18.166  10.496 -0.1583  0.1998  0.1693
 1999POSM   C3A23459  22.945  18.100  10.898 -0.0918  0.4079  0.1983
 1999POSM   C1B23460  23.163  18.707   9.919  0.1749 -0.0705 -0.1215
 1999POSM   D2B23461  23.173  18.646  10.309  0.4134  0.2514 -0.0261
 1999POSM   C3B23462  23.336  18.897  10.704 -0.2276  0.1132  0.1642
 1999POSM   C4B23463  23.582  18.863  11.080 -0.2467  0.3859 -0.0726
 2000DOPS   CNO23464  17.396  21.917   9.013  0.1047  0.1760  0.0531
 2000DOPS   PO423465  17.248  21.896   9.397 -0.1599  0.0062 -0.0568
 2000DOPS   GL123466  17.240  21.684   9.762 -0.1139  0.1081 -0.3277
 2000DOPS   GL223467  16.928  21.714   9.878  0.0731  0.0397 -0.0924
 2000DOPS   C1A23468  17.319  21.502  10.173  0.4333 -0.1749  0.2019
 2000DOPS   D2A23469  17.253  21.077  10.321  0.2978  0.0710 -0.2509
 2000DOPS   C3A23470  16.994  20.803  10.161  0.0756 -0.3069 -0.0137
 2000DOPS   C4A23471  16.865  20.336   9.932 -0.0373 -0.0521 -0.0100
 2000DOPS   C1B23472  16.701  21.748  10.266  0.1149  0.4229 -0.0942
 2000DOPS   D2B23473  16.486  21.478  10.556 -0.0769  0.1879 -0.1616
 2000DOPS   C3B23474  16.015  21.336  10.485  0.2657  0.3119 -0.2662
 2000DOPS   C4B23475  15.709  21.166  10.161  0.1444  0.0700  0.2629
 2001POSM   NC323476  15.614  14.437   9.165 -0.1050  0.1832 -0.0181
 2001POSM   PO423477  15.847  14.761   9.215  0.1216  0.0644  0.1507
 2001POSM   AM123478  15.840  14.807   9.541  0.3432 -0.1960  0.0211
 2001POSM   AM223479  15.755  14.958   9.765 -0.1903  0.1524 -0.0998
 2001POSM   T1A23480  16.064  14.649   9.938  0.2560  0.0801  0.0271
 2001POSM   C2A23481  15.962  14.266  10.136  0.0658  0.1764  0.1013
 2001POSM   C3A23482  15.780  13.885   9.980 -0.2057 -0.0385  0.1613
 2001POSM   C1B23483  15.978  15.147   9.880 -0.0369  0.0578  0.1062
 2001POSM   D2B23484  16.349  15.250  10.111 -0.4646 -0.0725 -0.1287
 2001POSM   C3B23485  16.408  15.226  10.545  0.2471  0.0507  0.1172
 2001POSM   C4B23486  16.487  14.966  10.939 -0.1072 -0.1222 -0.0790
 2002DOPC   NC323487  13.329  17.184   8.916 -0.0003  0.0310  0.0181
 2002DOPC   PO423488  13.240  17.252   9.292  0.1276 -0.1922  0.0513
 2002DOPC   GL123489  13.531  17.418   9.657  0.1291  0.0210  0.3457
 2002DOPC   GL223490  13.650  17.175   9.771  0.0536  0.1154 -0.0122
 2002DOPC   C1A23491  13.481  17.438  10.126  0.1518  0.2229  0.1035
 2002DOPC   D2A23492  13.625  17.547  10.581 -0.1926 -0.0396  0.2685
 2002DOPC   C3A23493  13.280  17.502  10.962 -0.2101  0.0567  0.0933
 2002DOPC   C4A23494  13.078  17.485  11.335 -0.0582  0.0413  0.1095
 2002DOPC   C1B23495  13.965  17.011  10.037  0.1565  0.0267  0.0125
 2002DOPC   D2B23496  13.985  16.919  10.456  0.0702  0.4153 -0.1788
 2002DOPC   C3B23497  13.858  17.138  10.834 -0.2853 -0.2696 -0.2327
 2002DOPC   C4B23498  13.763  17.525  11.056 -0.2056  0.2112 -0.4860
 2003DOPC   NC323499  19.473  17.111   9.253  0.1577 -0.0277  0.2013
 2003DOPC   PO423500  19.695  17.350   9.087  0.0014  0.1590  0.1885
 2003DOPC   GL123501  19.968  17.288   9.309 -0.1148  0.1580  0.0927
 2003DOPC   GL223502  20.007  17.618   9.400 -0.1294 -0.2047 -0.1673
 2003DOPC   C1A23503  19.757  17.148   9.772  0.0894  0.1389  0.2599
 2003DOPC   D2A23504  19.672  17.317  10.162 -0.0021 -0.5375 -0.2362
 2003DOPC   C3A23505  19.345  17.120  10.431 -0.1214 -0.1274 -0.0103
 2003DOPC   C4A23506  19.369  16.980  10.820  0.1223 -0.0357 -0.0059
 2003DOPC   C1B23507  19.986  17.605   9.855 -0.2027  0.0613 -0.0278
 2003DOPC   D2B23508  19.950  17.772  10.289  0.1461 -0.2928  0.0119
 2003DOPC   C3B23509  19.887  17.533  10.669 -0.0975 -0.0093 -0.0514
 2003DOPC   C4B23510  19.898  17.110  10.645  0.0710  0.0048 -0.0285
 2004DOPC   NC323511  14.468   8.852  11.292 -0.0704  0.0108  0.0786
 2004DOPC   PO423512  14.271   9.141  11.077  0.0860  0.0663  0.0747
 2004DOPC   GL123513  14.493   9.442  11.189  0.1032  0.4087 -0.2646
 2004DOPC   GL223514  14.741   9.275  11.205  0.1201 -0.1361  0.3693
 2004DOPC   C1A23515  14.525   9.493  11.633 -0.0192 -0.1645  0.3095
 2004DOPC   D2A23516  14.615   9.313  12.065 -0.1740  0.1657  0.1106
 2004DOPC   C3A23517  14.583   9.622  12.378 -0.1860 -0.2371 -0.1079
 2004DOPC   C4A23518  14.831   9.765  12.752  0.2181  0.1264  0.1351
 2004DOPC   C1B23519  14.941   9.123  11.664  0.2484  0.0725  0.0446
 2004DOPC   D2B23520  15.198   9.232  12.023 -0.1288  0.1552  0.1531
 2004DOPC   C3B23521  15.627   9.418  12.134  0.1741  0.1826  0.1013
 2004DOPC   C4B23522  15.990   9.276  12.369 -0.2073  0.1684  0.0984
 2005POSM   NC323523  19.699  22.416   8.980  0.1295 -0.0087  0.3125
 2005POSM   PO423524  19.498  22.683   9.174  0.1823  0.2489  0.2413
 2005POSM   AM123525  19.707  22.576   9.404 -0.0987 -0.2946 -0.0697
 2005POSM   AM223526  19.912  22.651   9.612  0.0311  0.1654 -0.0307
 2005POSM   T1A23527  19.830  22.227   9.768  0.1645  0.2232 -0.3695
 2005POSM   C2A23528  19.753  22.008  10.137 -0.1453  0.1174  0.2805
 2005POSM   C3A23529  20.034  21.668  10.358 -0.0629 -0.0238  0.1428
 2005POSM   C1B23530  19.891  22.665   9.948 -0.1766 -0.1602 -0.0099
 2005POSM   D2B23531  19.595  22.510  10.225 -0.4409  0.1344  0.0901
 2005POSM   C3B23532  19.107  22.481  10.328  0.2485 -0.0959  0.2384
 2005POSM   C4B23533  18.642  22.392  10.125 -0.0767 -0.1935 -0.0627
 2006POSM   NC323534  14.196  14.314   9.595  0.2153 -0.0911 -0.0914
 2006POSM   PO423535  14.505  14.503   9.749 -0.0821 -0.0041 -0.2435
 2006POSM   AM123536  14.617  14.702   9.971 -0.3672  0.1815 -0.0211
 2006POSM   AM223537  14.659  14.721  10.235  0.2611  0.2394  0.1790
 2006POSM   T1A23538  14.388  15.112  10.175 -0.1387  0.2363 -0.1395
 2006POSM   C2A23539  14.496  15.532  10.330  0.0676  0.0149  0.0357
 2006POSM   C3A23540  14.854  15.844  10.387 -0.2177 -0.1062 -0.1803
 2006POSM   C1B23541  14.709  14.506  10.542 -0.2216  0.0657  0.3297
 2006POSM   D2B23542  14.664  14.148  10.832  0.0658 -0.3837  0.0266
 2006POSM   C3B23543  14.563  14.300  11.302  0.0075  0.0930  0.2707
 2006POSM   C4B23544  14.601  14.630  11.595 -0.0322  0.2354  0.0624
 2007DOPE   NH323545  19.007  15.033   8.456  0.1590  0.3116 -0.1884
 2007DOPE   PO423546  19.088  15.016   8.767  0.0524 -0.0469  0.1553
 2007DOPE   GL123547  19.100  14.938   9.092 -0.0043 -0.0080  0.0331
 2007DOPE   GL223548  18.846  14.981   9.300 -0.0117 -0.0406 -0.2517
 2007DOPE   C1A23549  19.168  14.506   9.350  0.5471  0.2496 -0.0393
 2007DOPE   D2A23550  19.249  14.224   9.696 -0.4733  0.0950  0.2492
 2007DOPE   C3A23551  19.528  14.175  10.031 -0.1388  0.1839  0.1147
 2007DOPE   C4A23552  19.732  13.846  10.158 -0.0929 -0.2782  0.0030
 2007DOPE   C1B23553  18.601  15.002   9.707  0.0226 -0.2277 -0.1617
 2007DOPE   D2B23554  18.438  14.924  10.092 -0.2438 -0.1029  0.0982
 2007DOPE   C3B23555  18.532  14.873  10.548 -0.1513  0.1450 -0.0563
 2007DOPE   C4B23556  18.760  14.820  10.998 -0.3211  0.1038  0.3750
 2008DOPS   CNO23557  24.373  17.420   9.859  0.2627  0.2950  0.1044
 2008DOPS   PO423558  24.050  17.664   9.797  0.1866 -0.2077 -0.2665
 2008DOPS   GL123559  24.023  17.752  10.145  0.2511  0.1918  0.0230
 2008DOPS   GL223560  24.341  17.740  10.258 -0.0626  0.1227  0.1707
 2008DOPS   C1A23561  23.676  17.746  10.441  0.2281  0.1105 -0.1641
 2008DOPS   D2A23562  23.226  17.550  10.360 -0.0639  0.2954  0.2464
 2008DOPS   C3A23563  22.876  17.690  10.546 -0.2782  0.0541  0.1126
 2008DOPS   C4A23564  22.514  17.966  10.653 -0.2174  0.1632  0.0097
 2008DOPS   C1B23565  24.125  17.659  10.635 -0.3932 -0.4639 -0.0711
 2008DOPS   D2B23566  24.071  17.430  11.070 -0.3850  0.4082  0.1849
 2008DOPS   C3B23567  24.139  17.815  11.363  0.2208 -0.1589  0.1746
 2008DOPS   C4B23568  23.896  18.087  11.696 -0.0355  0.0136 -0.0669
 2009DOPE   NH323569  23.196  24.322   9.685  0.1809  0.2072  0.5802
 2009DOPE   PO423570  23.502  24.241   9.644  0.2319 -0.2705  0.2986
 2009DOPE   GL123571  23.779  24.003   9.836 -0.0139 -0.0276 -0.0028
 2009DOPE   GL223572  23.548  23.832   9.892 -0.1337 -0.4366  0.2789
 2009DOPE   C1A23573  23.977  24.143  10.243 -0.2158 -0.0580 -0.4295
 2009DOPE   D2A23574  24.246  24.450  10.420 -0.3397 -0.1080  0.3162
 2009DOPE   C3A23575  24.547  24.321  10.702  0.2251  0.1351  0.1085
 2009DOPE   C4A23576  24.783  24.274  11.140 -0.0374  0.1192 -0.3840
 2009DOPE   C1B23577  23.707  23.664  10.278 -0.0783 -0.3660  0.0148
 2009DOPE   D2B23578  23.793  23.697  10.839 -0.0636 -0.3137  0.2649
 2009DOPE   C3B23579  23.346  23.733  10.970  0.0796  0.3301  0.0861
 2009DOPE   C4B23580  23.108  23.391  11.111  0.1083 -0.1622 -0.0635
 2010DOPC   NC323581  11.512  14.678  10.522  0.0551  0.0107  0.0602
 2010DOPC   PO423582  11.791  14.948  10.409  0.1237  0.3286 -0.2982
 2010DOPC   GL123583  11.791  14.961  10.843  0.0391 -0.4117  0.1058
 2010DOPC   GL223584  11.518  14.925  10.971  0.4659 -0.1455 -0.1134
 2010DOPC   C1A23585  11.768  15.249  11.196 -0.4080 -0.3796  0.1194
 2010DOPC   D2A23586  11.461  15.259  11.563 -0.0938 -0.0530  0.0380
 2010DOPC   C3A23587  11.235  14.970  11.824  0.0837 -0.1551  0.0910
 2010DOPC   C4A23588  11.367  14.699  12.207 -0.3902  0.0683  0.0239
 2010DOPC   C1B23589  11.202  14.929  11.311  0.2814 -0.0811 -0.1077
 2010DOPC   D2B23590  10.858  14.725  11.490 -0.1714 -0.2313  0.0523
 2010DOPC   C3B23591  10.704  14.734  11.929 -0.1193  0.0553 -0.0926
 2010DOPC   C4B23592  10.619  14.673  12.386 -0.1133  0.1072 -0.1226
 2011DOPC   NC323593  15.336  14.613   9.599 -0.3878  0.0193  0.2954
 2011DOPC   PO423594  14.980  14.465   9.626  0.2460  0.0268 -0.4301
 2011DOPC   GL123595  15.136  14.552   9.994 -0.3468  0.4247  0.1267
 2011DOPC   GL223596  14.991  14.365  10.165  0.1253  0.3345 -0.0155
 2011DOPC   C1A23597  15.582  14.643  10.123 -0.0302  0.0984  0.2493
 2011DOPC   D2A23598  15.701  14.576  10.567 -0.1262 -0.1035 -0.1318
 2011DOPC   C3A23599  16.060  14.267  10.687 -0.0306  0.2795  0.0176
 2011DOPC   C4A23600  16.337  13.907  10.611 -0.1214 -0.0520 -0.2376
 2011DOPC   C1B23601  15.139  14.698  10.447  0.5725  0.2584 -0.0447
 2011DOPC   D2B23602  15.412  15.065  10.437  0.0368  0.1526  0.0598
 2011DOPC   C3B23603  15.821  15.091  10.485  0.2095  0.0781  0.3885
 2011DOPC   C4B23604  16.143  14.777  10.511 -0.1037  0.1275  0.0268
 2012POSM   NC323605  20.718  19.334   9.201  0.0191 -0.1789  0.2697
 2012POSM   PO423606  20.698  18.969   9.082 -0.0673 -0.0879  0.1840
 2012POSM   AM123607  20.438  18.972   9.307 -0.1486  0.0546  0.0873
 2012POSM   AM223608  20.181  19.079   9.311 -0.6267  0.0859  0.0128
 2012POSM   T1A23609  20.226  18.756   9.739 -0.0562 -0.1011  0.0315
 2012POSM   C2A23610  20.407  18.476  10.101  0.2326  0.2561 -0.2181
 2012POSM   C3A23611  20.382  18.257  10.501  0.0171 -0.0713 -0.2207
 2012POSM   C1B23612  20.280  19.365   9.507  0.1184  0.0536  0.2516
 2012POSM   D2B23613  20.251  19.605   9.853  0.1472  0.1152 -0.2269
 2012POSM   C3B23614  19.955  19.954   9.746  0.1590 -0.0170  0.1320
 2012POSM   C4B23615  19.984  20.402   9.635 -0.2434  0.1342 -0.2779
 2013POSM   NC323616  10.751  20.253   9.974 -0.0544  0.0051  0.3382
 2013POSM   PO423617  10.564  20.157  10.289  0.4337  0.2947 -0.0209
 2013POSM   AM123618  10.662  20.342  10.532 -0.2811 -0.1732  0.0436
 2013POSM   AM223619  10.819  20.280  10.762 -0.0058  0.2405 -0.0658
 2013POSM   T1A23620  10.829  20.758  10.678  0.3152  0.0965 -0.0977
 2013POSM   C2A23621  10.954  21.251  10.636  0.0109  0.0761  0.1193
 2013POSM   C3A23622  11.173  21.641  10.829  0.2459 -0.1067 -0.0045
 2013POSM   C1B23623  10.609  20.289  10.970  0.2858  0.0816 -0.3992
 2013POSM   D2B23624  10.394  20.320  11.388  0.0191 -0.3492 -0.1846
 2013POSM   C3B23625  10.282  20.665  11.717 -0.2833  0.1146  0.0266
 2013POSM   C4B23626  10.219  20.837  12.112  0.1495  0.0890 -0.0629
 2014DOPS   CNO23627  19.535  15.722   8.591  0.4946 -0.2206  0.1136
 2014DOPS   PO423628  19.253  15.805   8.849 -0.1394 -0.0656  0.1721
 2014DOPS   GL123629  19.142  15.691   9.222  0.0104  0.0198 -0.0177
 2014DOPS   GL223630  18.902  15.836   9.225  0.1024  0.2527 -0.0284
 2014DOPS   C1A23631  19.074  15.337   9.608 -0.0808  0.0942 -0.1317
 2014DOPS   D2A23632  19.061  14.897   9.732 -0.2688  0.0576  0.2152
 2014DOPS   C3A23633  18.984  14.816  10.155  0.1607  0.0916  0.2340
 2014DOPS   C4A23634  19.130  14.693  10.650 -0.0611 -0.0609 -0.1126
 2014DOPS   C1B23635  18.709  15.699   9.643  0.1679  0.3583  0.1730
 2014DOPS   D2B23636  18.569  15.408   9.996  0.0247  0.0859 -0.3237
 2014DOPS   C3B23637  18.536  15.683  10.332  0.1673 -0.0535 -0.2230
 2014DOPS   C4B23638  18.900  15.953  10.485  0.1314 -0.3158  0.1295
 2015POSM   NC323639  14.722  11.176  10.433  0.2253  0.2844  0.1665
 2015POSM   PO423640  14.694  11.587  10.265  0.0813  0.1292  0.0083
 2015POSM   AM123641  14.806  11.634  10.565 -0.0168 -0.1117  0.0390
 2015POSM   AM223642  14.815  11.835  10.738 -0.3031  0.1311  0.3180
 2015POSM   T1A23643  14.951  11.292  10.902  0.0789 -0.1031 -0.1244
 2015POSM   C2A23644  15.101  10.890  10.940  0.1200  0.2867 -0.1284
 2015POSM   C3A23645  15.171  10.491  10.754 -0.1556  0.1149 -0.0439
 2015POSM   C1B23646  14.714  11.755  11.060 -0.0457 -0.0999  0.1912
 2015POSM   D2B23647  14.538  11.686  11.488 -0.2008 -0.1406 -0.2064
 2015POSM   C3B23648  14.778  11.384  11.664 -0.0262  0.0844  0.1164
 2015POSM   C4B23649  14.827  10.883  11.782 -0.0766  0.3592  0.0202
 2016DOPE   NH323650  11.769  18.481   9.147 -0.0038  0.0870 -0.0990
 2016DOPE   PO423651  11.806  18.799   9.214 -0.0207 -0.0860  0.3212
 2016DOPE   GL123652  12.055  18.975   9.513 -0.0956  0.2154  0.1279
 2016DOPE   GL223653  12.073  18.883   9.801 -0.2728 -0.3831 -0.0364
 2016DOPE   C1A23654  12.524  18.832   9.665  0.0462  0.0492  0.0277
 2016DOPE   D2A23655  12.800  18.925  10.044  0.3744  0.1007  0.1190
 2016DOPE   C3A23656  12.850  19.414  10.172  0.5475  0.0695  0.5292
 2016DOPE   C4A23657  12.641  19.748   9.991  0.1930 -0.2470 -0.0978
 2016DOPE   C1B23658  12.225  18.796  10.194 -0.3001  0.0245 -0.0122
 2016DOPE   D2B23659  12.259  18.369  10.397  0.1092 -0.1417  0.2973
 2016DOPE   C3B23660  12.263  18.583  10.840 -0.0186 -0.1980  0.1380
 2016DOPE   C4B23661  12.228  18.653  11.295  0.1992 -0.0923  0.0446
 2017DOPE   NH323662  14.024  11.721  10.164  0.0629 -0.0121  0.0185
 2017DOPE   PO423663  13.778  11.625  10.356 -0.0097 -0.1065 -0.0610
 2017DOPE   GL123664  13.909  11.755  10.611  0.2562 -0.0719  0.0609
 2017DOPE   GL223665  13.871  11.534  10.839 -0.3687 -0.0138  0.3032
 2017DOPE   C1A23666  13.753  12.080  10.918 -0.3948  0.1203  0.1335
 2017DOPE   D2A23667  13.432  12.257  11.202  0.1039 -0.1005 -0.1249
 2017DOPE   C3A23668  13.428  12.700  11.219  0.3910  0.1791  0.3222
 2017DOPE   C4A23669  13.466  12.981  10.895 -0.0246  0.0303  0.1106
 2017DOPE   C1B23670  14.279  11.679  10.910 -0.1062 -0.0663 -0.1439
 2017DOPE   D2B23671  14.454  11.310  11.125 -0.0087 -0.1895 -0.0672
 2017DOPE   C3B23672  14.319  11.153  11.538 -0.1365 -0.1545 -0.1066
 2017DOPE   C4B23673  14.289  11.471  11.873 -0.0535  0.0379  0.0511
 2018DOPE   NH323674  13.527  11.182  10.483 -0.0605  0.0846  0.1524
 2018DOPE   PO423675  13.458  11.367  10.676 -0.3157  0.2812 -0.2838
 2018DOPE   GL123676  13.428  11.478  11.126  0.1322 -0.0878  0.0336
 2018DOPE   GL223677  13.352  11.724  10.978 -0.0832 -0.1566  0.0597
 2018DOPE   C1A23678  13.535  11.772  11.475  0.0518  0.1188 -0.1597
 2018DOPE   D2A23679  13.822  11.591  11.795  0.2537 -0.0036 -0.2095
 2018DOPE   C3A23680  13.769  11.195  12.009  0.2155 -0.1134 -0.0276
 2018DOPE   C4A23681  13.854  10.996  12.364  0.2250  0.1581  0.1735
 2018DOPE   C1B23682  13.041  11.909  11.264  0.3006 -0.0548  0.0994
 2018DOPE   D2B23683  13.077  11.924  11.744 -0.2467  0.2629  0.0309
 2018DOPE   C3B23684  12.948  12.282  12.052 -0.1983  0.2799 -0.0240
 2018DOPE   C4B23685  12.770  12.711  12.045 -0.0645 -0.0571  0.3216
 2019DOPS   CNO23686  17.700  13.739   8.818  0.1072  0.0179 -0.2528
 2019DOPS   PO423687  17.370  13.743   8.998 -0.3175  0.0796  0.2139
 2019DOPS   GL123688  17.312  13.940   9.375  0.0471 -0.1853 -0.1092
 2019DOPS   GL223689  17.563  13.868   9.604  0.3933  0.3774 -0.3264
 2019DOPS   C1A23690  17.049  13.912   9.715  0.2982  0.1848 -0.2631
 2019DOPS   D2A23691  16.635  13.726   9.797 -0.0262 -0.2301 -0.0886
 2019DOPS   C3A23692  16.791  13.816  10.197  0.0768  0.3028 -0.0898
 2019DOPS   C4A23693  17.099  13.655  10.513  0.3271 -0.0518 -0.0113
 2019DOPS   C1B23694  17.622  14.077   9.993  0.1800 -0.0165 -0.1448
 2019DOPS   D2B23695  17.644  14.218  10.461  0.4274 -0.3226  0.0950
 2019DOPS   C3B23696  17.411  13.915  10.776 -0.0620 -0.2106 -0.2583
 2019DOPS   C4B23697  17.041  13.886  11.068 -0.3187  0.1345  0.1333
 2020POSM   NC323698  18.198  14.318   8.492 -0.0946  0.0562  0.3385
 2020POSM   PO423699  18.469  14.254   8.753 -0.0861 -0.1232  0.2567
 2020POSM   AM123700  18.446  14.367   9.068  0.2808  0.1365  0.3017
 2020POSM   AM223701  18.220  14.406   9.231  0.0529  0.0734 -0.0014
 2020POSM   T1A23702  18.702  14.505   9.463 -0.1348  0.2261 -0.3310
 2020POSM   C2A23703  18.829  14.414   9.939  0.0228  0.1526  0.2735
 2020POSM   C3A23704  19.118  14.310  10.254 -0.0952 -0.0067  0.0692
 2020POSM   C1B23705  18.128  14.384   9.588 -0.1616  0.2019  0.0291
 2020POSM   D2B23706  18.043  14.406  10.047  0.2574  0.0821 -0.0646
 2020POSM   C3B23707  17.991  14.594  10.413  0.1932 -0.1570  0.0561
 2020POSM   C4B23708  17.771  14.516  10.862 -0.0647  0.3911  0.2193
 2021POSM   NC323709  21.045  17.720   9.608  0.0300  0.2084 -0.1832
 2021POSM   PO423710  21.282  17.951   9.392  0.2047  0.2631  0.1327
 2021POSM   AM123711  21.175  18.201   9.567 -0.2509 -0.3070  0.1927
 2021POSM   AM223712  21.291  18.256   9.838  0.2082  0.1864  0.1301
 2021POSM   T1A23713  20.912  18.549   9.849  0.1233  0.0606 -0.0349
 2021POSM   C2A23714  20.688  18.946   9.963 -0.0861 -0.1813  0.0397
 2021POSM   C3A23715  20.281  19.025  10.104  0.1340  0.3857  0.0247
 2021POSM   C1B23716  21.374  18.261  10.214 -0.2236  0.2252  0.1631
 2021POSM   D2B23717  21.199  18.354  10.642  0.3375 -0.1461  0.0897
 2021POSM   C3B23718  21.392  18.420  11.060  0.0407  0.2036 -0.0989
 2021POSM   C4B23719  21.845  18.491  11.126  0.3059  0.0391  0.1192
 2022DOPE   NH323720  20.172  15.128   9.029 -0.0354 -0.1425 -0.3219
 2022DOPE   PO423721  20.171  15.333   9.287  0.1181 -0.1256  0.0569
 2022DOPE   GL123722  20.121  15.129   9.597  0.0342 -0.1557 -0.0799
 2022DOPE   GL223723  19.974  14.900   9.498 -0.0268  0.3977 -0.1132
 2022DOPE   C1A23724  19.767  15.079   9.901 -0.0610  0.1758 -0.0582
 2022DOPE   D2A23725  19.340  15.214  10.062 -0.2632 -0.1019  0.1062
 2022DOPE   C3A23726  19.361  15.167  10.524 -0.0107 -0.0404 -0.0048
 2022DOPE   C4A23727  19.193  15.125  10.944  0.1857  0.1708 -0.1291
 2022DOPE   C1B23728  20.056  14.650   9.791  0.0166 -0.1193  0.1600
 2022DOPE   D2B23729  19.945  14.361  10.185  0.4691 -0.1337  0.1019
 2022DOPE   C3B23730  19.671  14.253  10.614 -0.0895  0.2460 -0.1295
 2022DOPE   C4B23731  19.228  14.200  10.832 -0.0397  0.0609 -0.0714
 2023DOPS   CNO23732  11.241  22.074   9.974 -0.2386 -0.1607 -0.0832
 2023DOPS   PO423733  10.886  22.132  10.158 -0.0583  0.0389 -0.0442
 2023DOPS   GL123734  11.093  22.066  10.461 -0.0698  0.2838 -0.3110
 2023DOPS   GL223735  11.419  22.044  10.498  0.4663 -0.1300  0.4113
 2023DOPS   C1A23736  11.138  22.192  10.903  0.2591  0.2866  0.0715
 2023DOPS   D2A23737  11.179  22.375  11.354 -0.0300  0.1579  0.2006
 2023DOPS   C3A23738  11.528  22.149  11.513 -0.1986 -0.0441  0.0291
 2023DOPS   C4A23739  11.929  22.138  11.798 -0.0827 -0.0926  0.2283
 2023DOPS   C1B23740  11.639  21.994  10.909 -0.2403  0.1684 -0.0994
 2023DOPS   D2B23741  11.956  22.131  11.285 -0.2419 -0.0583 -0.0578
 2023DOPS   C3B23742  12.361  22.221  11.380  0.0387  0.0338 -0.1534
 2023DOPS   C4B23743  12.731  22.367  11.549  0.1557 -0.0910  0.0698
 2024DOPE   NH323744  17.392  17.858   8.893  0.0771 -0.0671 -0.0172
 2024DOPE   PO423745  17.292  17.611   9.067  0.3373 -0.3300  0.0423
 2024DOPE   GL123746  17.441  17.549   9.417 -0.1365  0.1803 -0.3597
 2024DOPE   GL223747  17.595  17.791   9.499 -0.1396  0.1227 -0.0151
 2024DOPE   C1A23748  17.690  17.318   9.726  0.3663 -0.3361 -0.1365
 2024DOPE   D2A23749  18.136  17.128   9.941  0.4797 -0.0292  0.1656
 2024DOPE   C3A23750  18.110  16.735  10.200 -0.0239  0.0310 -0.2236
 2024DOPE   C4A23751  17.833  16.371  10.097  0.1006  0.0580 -0.0663
 2024DOPE   C1B23752  17.298  18.119   9.611  0.0565 -0.1509 -0.1616
 2024DOPE   D2B23753  16.984  18.261   9.910  0.0100  0.1285  0.1320
 2024DOPE   C3B23754  16.983  18.516  10.251 -0.0867  0.1078 -0.2419
 2024DOPE   C4B23755  17.360  18.736  10.485 -0.0956 -0.0140 -0.1536
 2025POSM   NC323756  12.042  10.856  10.868 -0.2446 -0.0835  0.2892
 2025POSM   PO423757  12.236  10.637  11.119 -0.1571  0.1648  0.2487
 2025POSM   AM123758  12.209  10.817  11.398  0.3435 -0.0264  0.2148
 2025POSM   AM223759  12.229  10.807  11.694  0.0127  0.2442  0.1737
 2025POSM   T1A23760  12.123  11.279  11.579  0.0668  0.1863  0.1907
 2025POSM   C2A23761  12.071  11.713  11.392  0.0974 -0.1344  0.0393
 2025POSM   C3A23762  12.145  12.161  11.319 -0.1445 -0.1582 -0.1741
 2025POSM   C1B23763  12.351  10.814  12.042  0.1131 -0.1486 -0.1795
 2025POSM   D2B23764  12.541  10.886  12.470  0.1736 -0.0197 -0.2517
 2025POSM   C3B23765  12.296  11.088  12.785 -0.1432  0.0758 -0.1218
 2025POSM   C4B23766  11.958  11.292  13.015  0.0268  0.1649 -0.1038
 2026POSM   NC323767  11.790  20.917   9.820 -0.1485  0.2752 -0.0474
 2026POSM   PO423768  11.485  20.765   9.931 -0.1807 -0.1934 -0.0884
 2026POSM   AM123769  11.523  20.760  10.253  0.0833 -0.5020 -0.3463
 2026POSM   AM223770  11.396  20.615  10.463 -0.2834 -0.1079  0.2706
 2026POSM   T1A23771  11.378  20.986  10.685  0.1877  0.4052 -0.1161
 2026POSM   C2A23772  11.534  20.905  11.152  0.1194 -0.2712 -0.0928
 2026POSM   C3A23773  11.428  20.568  11.461  0.1074 -0.2348 -0.0330
 2026POSM   C1B23774  11.253  20.527  10.745  0.3811  0.4095 -0.1546
 2026POSM   D2B23775  11.064  20.600  11.152  0.1437 -0.0422 -0.2484
 2026POSM   C3B23776  10.920  20.284  11.449  0.1019  0.1936 -0.1241
 2026POSM   C4B23777  10.648  19.936  11.431 -0.0121 -0.2437  0.2048
 2027DOPC   NC323778  15.198  19.116   8.655 -0.1557  0.1248  0.0821
 2027DOPC   PO423779  14.937  19.428   8.758  0.1512 -0.1782  0.1973
 2027DOPC   GL123780  14.927  19.296   9.090  0.1291  0.0569 -0.0165
 2027DOPC   GL223781  15.031  19.011   9.096  0.0232  0.2300  0.1015
 2027DOPC   C1A23782  14.703  19.389   9.443  0.0105  0.1538  0.2061
 2027DOPC   D2A23783  14.703  19.512   9.851 -0.0177  0.1064 -0.0402
 2027DOPC   C3A23784  14.716  19.220  10.250  0.0684  0.0752  0.3827
 2027DOPC   C4A23785  14.448  19.060  10.621 -0.0180  0.0704  0.0275
 2027DOPC   C1B23786  15.104  19.109   9.581 -0.0831  0.0946  0.0251
 2027DOPC   D2B23787  15.180  19.418   9.878 -0.0559 -0.1354  0.2401
 2027DOPC   C3B23788  15.436  19.299  10.248 -0.1941  0.1610 -0.1251
 2027DOPC   C4B23789  15.829  19.170  10.559  0.0181  0.0675  0.0471
 2028POSM   NC323790  10.554  17.130   9.668  0.1927 -0.0276  0.3197
 2028POSM   PO423791  10.915  17.307   9.720 -0.1430 -0.2268  0.1649
 2028POSM   AM123792  10.927  17.410  10.049 -0.4029 -0.1559  0.1411
 2028POSM   AM223793  10.966  17.603  10.208  0.3499  0.1495 -0.3108
 2028POSM   T1A23794  10.746  17.277  10.504 -0.1510 -0.0069  0.2150
 2028POSM   C2A23795  10.549  17.433  10.927  0.0568 -0.0805 -0.2167
 2028POSM   C3A23796  10.214  17.528  11.232  0.2504 -0.1118 -0.1354
 2028POSM   C1B23797  11.035  17.785  10.490 -0.0733  0.0056 -0.0151
 2028POSM   D2B23798  11.352  18.077  10.653 -0.0196  0.2356  0.0171
 2028POSM   C3B23799  11.419  17.998  11.130  0.2267 -0.1696 -0.0541
 2028POSM   C4B23800  11.444  17.939  11.594 -0.1665  0.0479 -0.1375
 2029DOPE   NH323801  17.251  13.382   9.326 -0.2067 -0.0114  0.1251
 2029DOPE   PO423802  17.026  13.248   9.502  0.0368 -0.2338 -0.0389
 2029DOPE   GL123803  17.069  13.419   9.787 -0.1034  0.1877 -0.3016
 2029DOPE   GL223804  16.966  13.264  10.040 -0.1171 -0.2689 -0.0675
 2029DOPE   C1A23805  17.364  13.624  10.038 -0.0220  0.0365  0.3248
 2029DOPE   D2A23806  17.547  13.332  10.364 -0.2263 -0.1263  0.1046
 2029DOPE   C3A23807  17.759  13.594  10.713  0.1152 -0.0425 -0.1817
 2029DOPE   C4A23808  18.152  13.434  10.915  0.1614 -0.0995 -0.0992
 2029DOPE   C1B23809  17.047  12.929  10.400  0.1265  0.1344  0.2259
 2029DOPE   D2B23810  17.241  12.953  10.824  0.1120  0.1096  0.1891
 2029DOPE   C3B23811  17.236  13.396  10.901  0.1084  0.1840 -0.2275
 2029DOPE   C4B23812  17.550  13.630  11.154  0.2867 -0.0453 -0.0961
 2030DOPS   CNO23813  13.735  16.120   9.468 -0.2999  0.0941 -0.2452
 2030DOPS   PO423814  13.450  16.023   9.667  0.1111 -0.0665 -0.4115
 2030DOPS   GL123815  13.806  15.899   9.883 -0.0757 -0.0160 -0.2358
 2030DOPS   GL223816  13.620  15.712  10.034  0.0643 -0.4618  0.1107
 2030DOPS   C1A23817  13.944  15.960  10.352  0.2022 -0.0495  0.0933
 2030DOPS   D2A23818  14.273  15.823  10.626  0.2348 -0.2572 -0.0117
 2030DOPS   C3A23819  14.512  15.480  10.828 -0.0206  0.2431 -0.0327
 2030DOPS   C4A23820  14.741  15.304  11.141  0.0342  0.0009  0.0931
 2030DOPS   C1B23821  13.916  15.478  10.268  0.0843  0.1778  0.0042
 2030DOPS   D2B23822  14.103  15.204  10.595 -0.0361 -0.0186  0.3276
 2030DOPS   C3B23823  14.474  14.986  10.681  0.2077  0.1931  0.0399
 2030DOPS   C4B23824  14.665  14.714  11.034 -0.0139  0.1785 -0.3574
 2031DOPC   NC323825  11.927  21.709  10.409  0.1083 -0.3198 -0.1000
 2031DOPC   PO423826  11.565  21.667  10.161 -0.0130 -0.1007 -0.0104
 2031DOPC   GL123827  11.423  21.407  10.411  0.1453  0.1208  0.1220
 2031DOPC   GL223828  11.648  21.198  10.229 -0.2427  0.1441  0.2503
 2031DOPC   C1A23829  11.700  21.487  10.807 -0.0915 -0.0774  0.1748
 2031DOPC   D2A23830  11.936  21.324  11.140 -0.1392  0.3360  0.1800
 2031DOPC   C3A23831  12.147  21.256  11.522 -0.0664 -0.0212  0.0883
 2031DOPC   C4A23832  12.560  21.301  11.739 -0.2955 -0.2748  0.3898
 2031DOPC   C1B23833  12.056  21.212  10.532  0.1165 -0.1586  0.0491
 2031DOPC   D2B23834  12.300  21.034  10.866  0.4328  0.1838  0.1028
 2031DOPC   C3B23835  12.080  20.855  11.248  0.0036 -0.2705 -0.1216
 2031DOPC   C4B23836  11.827  20.771  11.698 -0.1114 -0.1536 -0.0371
 2032DOPC   NC323837  17.919  21.295   8.882 -0.1462  0.1590  0.1929
 2032DOPC   PO423838  17.683  21.018   9.010 -0.2306 -0.0789  0.1004
 2032DOPC   GL123839  17.527  21.062   9.393  0.3476  0.0296  0.0140
 2032DOPC   GL223840  17.755  20.940   9.556  0.1649  0.2490 -0.0735
 2032DOPC   C1A23841  17.566  21.306   9.823  0.0386 -0.2784  0.1579
 2032DOPC   D2A23842  17.804  21.360  10.212  0.1898 -0.1473  0.2260
 2032DOPC   C3A23843  17.569  21.400  10.612  0.0406 -0.3946 -0.0475
 2032DOPC   C4A23844  17.463  21.624  11.032 -0.3842 -0.0700 -0.2536
 2032DOPC   C1B23845  17.947  20.508   9.717  0.2136 -0.0798 -0.2308
 2032DOPC   D2B23846  17.843  20.272  10.070 -0.2696  0.1329 -0.1616
 2032DOPC   C3B23847  17.799  20.592  10.427 -0.0454  0.1741  0.1374
 2032DOPC   C4B23848  17.820  20.911  10.634  0.2286 -0.1566 -0.2566
 2033DOPC   NC323849  13.198  15.516   9.540 -0.1603 -0.2096 -0.0397
 2033DOPC   PO423850  12.814  15.560   9.594 -0.0609  0.1402 -0.0468
 2033DOPC   GL123851  12.951  15.394   9.964  0.5867  0.1498  0.4027
 2033DOPC   GL223852  13.075  15.659  10.010  0.0299  0.3037 -0.3591
 2033DOPC   C1A23853  13.320  15.368  10.265 -0.2415 -0.1134 -0.0309
 2033DOPC   D2A23854  13.458  15.585  10.556  0.2659  0.0368  0.0685
 2033DOPC   C3A23855  13.200  15.842  10.911 -0.4765 -0.0658  0.0290
 2033DOPC   C4A23856  13.030  16.056  11.275  0.0087 -0.1095  0.1512
 2033DOPC   C1B23857  13.048  15.851  10.429 -0.0093 -0.1546 -0.0580
 2033DOPC   D2B23858  12.841  16.151  10.709 -0.1448  0.4468 -0.2331
 2033DOPC   C3B23859  12.727  16.461  11.056 -0.1581  0.2469 -0.1173
 2033DOPC   C4B23860  12.443  16.793  11.301 -0.4588 -0.0222  0.1502
 2034DOPS   CNO23861  15.440  19.444   8.983  0.0279 -0.0063 -0.1132
 2034DOPS   PO423862  15.540  19.071   8.973  0.1168  0.0203 -0.0889
 2034DOPS   GL123863  15.741  19.209   9.219  0.2128  0.1595  0.2475
 2034DOPS   GL223864  15.569  19.312   9.515 -0.2872 -0.4138  0.5734
 2034DOPS   C1A23865  16.083  19.369   9.504  0.0092 -0.1853  0.0015
 2034DOPS   D2A23866  16.190  19.676   9.775  0.4615 -0.1768 -0.0141
 2034DOPS   C3A23867  15.764  19.706   9.719  0.1828 -0.1277 -0.0549
 2034DOPS   C4A23868  15.437  19.927  10.013  0.0558  0.0486  0.1099
 2034DOPS   C1B23869  15.795  19.154   9.861 -0.0504  0.3254 -0.0478
 2034DOPS   D2B23870  16.007  18.766   9.987  0.2114 -0.1685  0.2531
 2034DOPS   C3B23871  15.941  18.540  10.411  0.0282  0.2323  0.2078
 2034DOPS   C4B23872  16.051  18.302  10.815  0.1248 -0.2805  0.0218
 2035POSM   NC323873  12.390  10.172  11.110 -0.0745  0.0363  0.4648
 2035POSM   PO423874  12.118   9.953  11.212  0.1567 -0.1817 -0.2597
 2035POSM   AM123875  12.172   9.925  11.522 -0.0306 -0.1006  0.1449
 2035POSM   AM223876  11.948   9.958  11.727 -0.1420 -0.0388 -0.0652
 2035POSM   T1A23877  12.379   9.885  11.925  0.2647 -0.2262 -0.1795
 2035POSM   C2A23878  12.459   9.811  12.404  0.3037 -0.1555  0.1704
 2035POSM   C3A23879  12.743   9.867  12.755 -0.0044  0.0608  0.0324
 2035POSM   C1B23880  11.956   9.909  12.137  0.2192 -0.1605 -0.0659
 2035POSM   D2B23881  11.961   9.724  12.560 -0.3922 -0.0661 -0.0902
 2035POSM   C3B23882  11.903   9.683  12.982  0.0122 -0.0310  0.0644
 2035POSM   C4B23883  11.754   9.718  13.403  0.0698 -0.0792  0.0170
 2036POSM   NC323884  18.982  22.333   8.931 -0.0698  0.4467 -0.0076
 2036POSM   PO423885  18.860  21.943   8.881 -0.1104 -0.2495  0.0478
 2036POSM   AM123886  18.902  21.795   9.174  0.1339  0.5299 -0.3780
 2036POSM   AM223887  18.963  21.873   9.431 -0.2519  0.0684 -0.4657
 2036POSM   T1A23888  19.094  21.374   9.362  0.0042 -0.0353 -0.1632
 2036POSM   C2A23889  18.918  20.954   9.302  0.0947 -0.0178  0.0080
 2036POSM   C3A23890  18.867  20.678   9.635  0.0382  0.1691 -0.3725
 2036POSM   C1B23891  19.217  21.815   9.665  0.5287  0.4371 -0.2034
 2036POSM   D2B23892  19.417  21.700  10.026  0.0906  0.2214  0.1959
 2036POSM   C3B23893  19.543  21.282  10.111  0.1994  0.1706 -0.1330
 2036POSM   C4B23894  19.784  21.179  10.481 -0.0868 -0.1493  0.2033
 2037DOPE   NH323895  10.473  13.994  11.100 -0.2401 -0.1629  0.0466
 2037DOPE   PO423896  10.564  13.728  10.932  0.4779 -0.0700 -0.0676
 2037DOPE   GL123897  10.327  13.605  11.271 -0.0971  0.1099 -0.3580
 2037DOPE   GL223898  10.262  13.354  11.271  0.1145  0.0852 -0.1846
 2037DOPE   C1A23899  10.372  13.796  11.699  0.2037  0.1622  0.1265
 2037DOPE   D2A23900  10.229  14.101  12.019 -0.0231  0.2378 -0.1544
 2037DOPE   C3A23901  10.021  14.020  12.410 -0.2082  0.0472  0.0641
 2037DOPE   C4A23902   9.715  13.845  12.750 -0.2703  0.0538 -0.1365
 2037DOPE   C1B23903  10.190  13.276  11.691 -0.0043  0.1562  0.0217
 2037DOPE   D2B23904   9.968  13.056  12.037  0.0486 -0.1775 -0.0297
 2037DOPE   C3B23905  10.126  12.917  12.445 -0.1146  0.3082 -0.1089
 2037DOPE   C4B23906  10.296  13.007  12.938 -0.2716  0.3271 -0.1631
 2038DOPC   NC323907  16.885   9.644  10.104  0.0530  0.1706 -0.3498
 2038DOPC   PO423908  16.809  10.041  10.187 -0.1383  0.0874 -0.1530
 2038DOPC   GL123909  17.055  10.154  10.479  0.0800 -0.2063 -0.1139
 2038DOPC   GL223910  16.928  10.357  10.658  0.0022  0.0366 -0.2523
 2038DOPC   C1A23911  17.517  10.228  10.607 -0.1400  0.2895  0.0154
 2038DOPC   D2A23912  17.697  10.252  10.986 -0.1606 -0.0250  0.0533
 2038DOPC   C3A23913  17.438  10.041  11.299  0.1180 -0.4001  0.3213
 2038DOPC   C4A23914  16.989  10.039  11.472  0.3229  0.0801  0.1392
 2038DOPC   C1B23915  17.164  10.002  10.864  0.2604 -0.0086 -0.2085
 2038DOPC   D2B23916  17.522   9.703  10.904 -0.1569 -0.0370 -0.2789
 2038DOPC   C3B23917  17.916   9.858  11.111 -0.0140 -0.0308  0.1217
 2038DOPC   C4B23918  18.174   9.728  11.414  0.1277  0.2389  0.1120
 2039POSM   NC323919  24.389  16.959   9.613  0.1689 -0.0022 -0.0321
 2039POSM   PO423920  24.461  16.592   9.797 -0.0165  0.2383  0.1153
 2039POSM   AM123921  24.427  16.555  10.129  0.0935 -0.3954 -0.0458
 2039POSM   AM223922  24.197  16.596  10.319 -0.3117  0.1287 -0.1631
 2039POSM   T1A23923  24.577  16.330  10.620  0.1588 -0.1980  0.0850
 2039POSM   C2A23924  24.563  16.138  11.067 -0.0092 -0.2145 -0.0647
 2039POSM   C3A23925  24.728  15.834  11.333  0.0992 -0.0496  0.0281
 2039POSM   C1B23926  24.121  16.655  10.631 -0.2963  0.0888  0.0459
 2039POSM   D2B23927  23.870  16.879  10.992 -0.0082 -0.0405 -0.0359
 2039POSM   C3B23928  23.602  16.719  11.319 -0.0266  0.0783  0.2395
 2039POSM   C4B23929  23.247  16.439  11.321  0.0369  0.1225 -0.3659
 2040POSM   NC323930  14.007  17.527   9.712 -0.0371  0.0594 -0.1099
 2040POSM   PO423931  14.105  17.788   9.463 -0.1182 -0.1476  0.1882
 2040POSM   AM123932  14.328  17.867   9.688  0.2071  0.2784  0.1137
 2040POSM   AM223933  14.428  17.734   9.931 -0.0753 -0.1048  0.2338
 2040POSM   T1A23934  14.519  18.221  10.005  0.0042  0.0226 -0.0490
 2040POSM   C2A23935  14.716  18.573   9.814 -0.0052  0.1932 -0.2400
 2040POSM   C3A23936  14.662  18.946   9.588 -0.0714  0.0405 -0.0593
 2040POSM   C1B23937  14.480  17.760  10.250  0.0524 -0.0254 -0.1650
 2040POSM   D2B23938  14.681  17.615  10.640 -0.1554  0.3258 -0.0370
 2040POSM   C3B23939  14.960  17.947  10.800  0.1137 -0.1793  0.1569
 2040POSM   C4B23940  15.036  18.394  10.671  0.0790  0.1201 -0.2609
 2041DOPC   NC323941  14.420  29.447  14.153 -0.1448  0.3722 -0.1249
 2041DOPC   PO423942  14.658  29.730  14.029  0.2351  0.0038 -0.1188
 2041DOPC   GL123943  14.732  29.625  13.723  0.2149  0.0260 -0.1328
 2041DOPC   GL223944  15.054  29.634  13.661 -0.0974 -0.4228  0.2364
 2041DOPC   C1A23945  14.722  29.777  13.303 -0.3041 -0.2683  0.0604
 2041DOPC   D2A23946  14.654  29.988  12.864 -0.0487  0.0659  0.1034
 2041DOPC   C3A23947  14.571  29.942  12.425  0.1615  0.0416 -0.4634
 2041DOPC   C4A23948  14.590  30.079  11.970  0.6622  0.4179 -0.1121
 2041DOPC   C1B23949  14.992  29.323  13.254 -0.2676  0.1913  0.0198
 2041DOPC   D2B23950  15.000  29.211  12.806  0.2777  0.1237  0.0045
 2041DOPC   C3B23951  15.383  28.910  12.663  0.1016  0.3935 -0.2709
 2041DOPC   C4B23952  15.542  28.837  12.227  0.0410 -0.1087  0.2242
 2042DOPC   NC323953  20.899  22.215  13.306 -0.0908  0.0054  0.0236
 2042DOPC   PO423954  20.886  22.494  12.983 -0.2494 -0.0002 -0.3197
 2042DOPC   GL123955  20.975  22.875  12.877 -0.1533  0.4697  0.3380
 2042DOPC   GL223956  20.718  23.052  12.853 -0.2342 -0.4275  0.1766
 2042DOPC   C1A23957  21.188  23.091  12.548 -0.0315  0.1497  0.0840
 2042DOPC   D2A23958  21.049  23.454  12.335  0.0943  0.1054  0.1310
 2042DOPC   C3A23959  20.939  23.654  11.885  0.0762  0.1625  0.0801
 2042DOPC   C4A23960  20.865  23.680  11.489  0.0081 -0.2427 -0.1104
 2042DOPC   C1B23961  20.715  22.977  12.422  0.4138  0.1027 -0.0622
 2042DOPC   D2B23962  20.656  23.237  12.050  0.2408 -0.1608 -0.2566
 2042DOPC   C3B23963  20.836  23.110  11.628 -0.0404  0.1037  0.0932
 2042DOPC   C4B23964  20.930  23.303  11.197  0.2463 -0.0864  0.0496
 2043DOPE   NH323965  17.867   0.339  13.945 -0.2617  0.0129  0.0966
 2043DOPE   PO423966  17.649   0.184  14.071  0.2897  0.0764 -0.0635
 2043DOPE   GL123967  17.585   0.200  13.637  0.1164  0.0245  0.1542
 2043DOPE   GL223968  17.754   0.410  13.470  0.3833  0.0116 -0.1650
 2043DOPE   C1A23969  17.257   0.385  13.322  0.1401  0.1625  0.0789
 2043DOPE   D2A23970  16.973   0.410  12.981 -0.0083  0.1036  0.1560
 2043DOPE   C3A23971  17.113   0.779  12.752  0.0493 -0.0676 -0.0434
 2043DOPE   C4A23972  16.811   1.126  12.831  0.0956 -0.1748  0.1148
 2043DOPE   C1B23973  17.914   0.277  13.065  0.0063 -0.0604  0.0319
 2043DOPE   D2B23974  18.056   0.210  12.621 -0.1036 -0.0774  0.0805
 2043DOPE   C3B23975  18.204  -0.193  12.609  0.3000 -0.6552  0.0834
 2043DOPE   C4B23976  18.200  -0.330  12.207  0.0766  0.2978  0.4075
 2044DOPE   NH323977  12.229  30.121  14.447  0.0939  0.0603  0.0285
 2044DOPE   PO423978  12.212  30.337  14.211  0.0827  0.1143 -0.0860
 2044DOPE   GL123979  12.144  30.467  13.897 -0.3119 -0.1546  0.0973
 2044DOPE   GL223980  11.849  30.350  13.822  0.0538 -0.0109  0.1810
 2044DOPE   C1A23981  11.979  30.807  13.629  0.1489  0.1916 -0.2177
 2044DOPE   D2A23982  11.557  31.022  13.473 -0.1522  0.2408 -0.3231
 2044DOPE   C3A23983  11.236  31.002  13.117 -0.0442 -0.1713 -0.0725
 2044DOPE   C4A23984  11.004  31.325  12.907  0.0090 -0.0761 -0.0373
 2044DOPE   C1B23985  11.965  30.320  13.351 -0.0561  0.3393 -0.1894
 2044DOPE   D2B23986  11.930  30.281  12.832 -0.3752  0.2315 -0.0332
 2044DOPE   C3B23987  12.053  30.413  12.445 -0.0856  0.1646  0.1101
 2044DOPE   C4B23988  12.028  30.673  12.062  0.1609  0.1939  0.4471
 2045DOPC   NC323989  18.835   0.086  13.930  0.0004  0.1027  0.4963
 2045DOPC   PO423990  19.133   0.336  13.882  0.3012  0.0717 -0.0998
 2045DOPC   GL123991  18.995   0.135  13.498 -0.1218  0.1211 -0.2964
 2045DOPC   GL223992  18.812   0.292  13.421 -0.1115  0.1871  0.0201
 2045DOPC   C1A23993  19.154  -0.250  13.241  0.1356  0.2172  0.0918
 2045DOPC   D2A23994  19.300  -0.491  12.830 -0.1853  0.0742 -0.1879
 2045DOPC   C3A23995  19.261  -0.417  12.372  0.0179  0.3885  0.0353
 2045DOPC   C4A23996  19.182  -0.850  12.219  0.1101  0.1251  0.0322
 2045DOPC   C1B23997  19.048   0.234  13.037 -0.0199  0.0242 -0.2060
 2045DOPC   D2B23998  19.089  -0.054  12.702  0.2491  0.1626  0.1863
 2045DOPC   C3B23999  18.751  -0.284  12.501  0.0949  0.0041 -0.1172
 2045DOPC   C4B24000  18.753  -0.608  12.162 -0.2183  0.0743 -0.1332
 2046DOPC   NC324001  22.081  34.400  13.295  0.4095  0.2142 -0.2571
 2046DOPC   PO424002  22.239  34.721  13.247  0.1517 -0.0681 -0.1848
 2046DOPC   GL124003  22.418  34.652  12.972 -0.0493  0.2123 -0.4783
 2046DOPC   GL224004  22.315  34.418  12.766 -0.0403  0.1673 -0.3625
 2046DOPC   C1A24005  22.525  34.748  12.505 -0.3385  0.1264 -0.1788
 2046DOPC   D2A24006  22.691  35.020  12.202  0.2848 -0.1210 -0.1366
 2046DOPC   C3A24007  22.971  35.369  12.342 -0.2810 -0.0506  0.0207
 2046DOPC   C4A24008  23.024  35.722  12.055 -0.0991 -0.1911 -0.4241
 2046DOPC   C1B24009  22.392  34.286  12.379  0.0740 -0.2935 -0.0996
 2046DOPC   D2B24010  22.270  34.205  11.953 -0.0726  0.0699 -0.2256
 2046DOPC   C3B24011  22.504  34.203  11.471  0.0889  0.1852 -0.2207
 2046DOPC   C4B24012  22.458  34.578  11.179 -0.0223  0.0867 -0.0098
 2047POSM   NC324013  14.531  27.065  13.674  0.0285  0.0973 -0.1107
 2047POSM   PO424014  14.902  26.952  13.672  0.4017  0.0935 -0.0636
 2047POSM   AM124015  14.808  26.854  13.380  0.1070  0.1424 -0.3609
 2047POSM   AM224016  14.875  26.797  13.138 -0.0851 -0.2001 -0.0427
 2047POSM   T1A24017  14.353  26.850  13.153 -0.0083 -0.0098 -0.0748
 2047POSM   C2A24018  14.176  26.940  12.746  0.1275  0.2073  0.1691
 2047POSM   C3A24019  14.134  27.110  12.345 -0.0737 -0.2266 -0.0015
 2047POSM   C1B24020  14.683  26.870  12.808 -0.4914 -0.3439  0.3402
 2047POSM   D2B24021  14.620  27.121  12.450 -0.2056  0.1858  0.2184
 2047POSM   C3B24022  14.666  27.587  12.405 -0.1678 -0.1482  0.0678
 2047POSM   C4B24023  14.714  28.034  12.516 -0.2542  0.3052  0.0762
 2048DOPS   CNO24024  19.176  33.598  13.585  0.0344  0.1250  0.2077
 2048DOPS   PO424025  19.215  33.192  13.522 -0.0542  0.0081  0.3987
 2048DOPS   GL124026  19.129  33.119  13.135  0.2264 -0.1848 -0.0236
 2048DOPS   GL224027  18.939  32.897  13.148  0.2860 -0.0097 -0.4351
 2048DOPS   C1A24028  19.239  33.252  12.683  0.1657  0.0216 -0.0768
 2048DOPS   D2A24029  19.435  33.470  12.271 -0.0252  0.1472 -0.1330
 2048DOPS   C3A24030  19.200  33.590  11.860  0.1347 -0.2893  0.1008
 2048DOPS   C4A24031  18.880  33.308  11.716 -0.0075  0.1310  0.2422
 2048DOPS   C1B24032  18.853  32.934  12.745  0.1515  0.2983 -0.1727
 2048DOPS   D2B24033  18.675  32.782  12.321 -0.2793 -0.2018 -0.4333
 2048DOPS   C3B24034  18.522  33.123  12.030  0.1906 -0.0736  0.0905
 2048DOPS   C4B24035  18.126  33.303  11.969  0.1181 -0.1116 -0.0407
 2049DOPC   NC324036  16.265  29.786  13.854 -0.2163 -0.0564 -0.4310
 2049DOPC   PO424037  16.394  29.459  13.702 -0.2377 -0.2938 -0.1967
 2049DOPC   GL124038  16.277  29.303  13.284  0.0467 -0.1444  0.0474
 2049DOPC   GL224039  16.482  29.136  13.337 -0.1403 -0.0355  0.2162
 2049DOPC   C1A24040  16.255  29.093  12.859 -0.3221 -0.2834  0.0827
 2049DOPC   D2A24041  16.578  28.990  12.536 -0.0834  0.2527 -0.3090
 2049DOPC   C3A24042  16.793  29.280  12.205 -0.0054 -0.2436 -0.2159
 2049DOPC   C4A24043  16.987  29.535  11.838 -0.2633 -0.0418  0.0386
 2049DOPC   C1B24044  16.742  29.137  12.936 -0.2335 -0.1711 -0.1567
 2049DOPC   D2B24045  17.105  29.218  12.666 -0.1622  0.0234  0.2334
 2049DOPC   C3B24046  17.119  29.607  12.331  0.1693  0.0141 -0.0162
 2049DOPC   C4B24047  17.252  29.942  12.046  0.0620 -0.1037 -0.1625
 2050DOPE   NH324048  13.252  30.092  14.333 -0.0155 -0.0787  0.0832
 2050DOPE   PO424049  13.115  30.383  14.303 -0.0264  0.0269 -0.1627
 2050DOPE   GL124050  13.069  30.482  13.879 -0.0815  0.3578  0.0842
 2050DOPE   GL224051  13.227  30.257  13.655  0.1459  0.0273 -0.0951
 2050DOPE   C1A24052  12.762  30.635  13.565  0.1088 -0.3216 -0.1483
 2050DOPE   D2A24053  12.488  30.425  13.287 -0.0898 -0.3380  0.1276
 2050DOPE   C3A24054  12.685  30.306  12.931 -0.1980 -0.0780  0.0057
 2050DOPE   C4A24055  12.484  30.135  12.565 -0.0556 -0.2353  0.3797
 2050DOPE   C1B24056  13.145  30.326  13.260 -0.0194  0.0130  0.2359
 2050DOPE   D2B24057  13.275  30.606  12.901 -0.0875 -0.0026  0.1107
 2050DOPE   C3B24058  13.736  30.542  12.820  0.0807  0.1680  0.0906
 2050DOPE   C4B24059  14.093  30.283  12.628 -0.1020  0.0364 -0.0853
 2051POSM   NC324060  19.612  33.299  13.849  0.3116 -0.0758 -0.4633
 2051POSM   PO424061  19.914  33.474  13.679 -0.3428  0.3704  0.3982
 2051POSM   AM124062  19.913  33.567  13.384  0.2115  0.0220 -0.5806
 2051POSM   AM224063  19.701  33.547  13.181 -0.0268 -0.1800 -0.2204
 2051POSM   T1A24064  20.113  33.631  12.946  0.0442 -0.1123 -0.0615
 2051POSM   C2A24065  20.154  33.787  12.494  0.1323 -0.2120 -0.0364
 2051POSM   C3A24066  19.889  33.912  12.155 -0.0252  0.2426  0.2226
 2051POSM   C1B24067  19.380  33.570  13.108  0.2910  0.1758  0.1019
 2051POSM   D2B24068  18.947  33.713  13.048  0.0706 -0.1831  0.1063
 2051POSM   C3B24069  18.676  33.392  12.815 -0.0958  0.2687 -0.2664
 2051POSM   C4B24070  18.402  33.049  12.638  0.1829  0.1528  0.1015
 2052DOPS   CNO24071  14.827   0.632  15.000  0.1986 -0.0228  0.2661
 2052DOPS   PO424072  14.835   0.895  14.733  0.0218 -0.2316  0.2737
 2052DOPS   GL124073  14.797   1.040  14.339  0.1483 -0.0854  0.3087
 2052DOPS   GL224074  14.757   0.844  14.085 -0.3411 -0.1371 -0.1271
 2052DOPS   C1A24075  15.023   1.288  14.006  0.1294 -0.0313  0.2162
 2052DOPS   D2A24076  15.041   1.470  13.555 -0.0374  0.0558  0.0832
 2052DOPS   C3A24077  14.888   1.235  13.222  0.2538  0.1687  0.3015
 2052DOPS   C4A24078  14.679   0.819  13.273 -0.0097  0.1938 -0.2071
 2052DOPS   C1B24079  14.957   0.904  13.657 -0.3144  0.2050  0.1900
 2052DOPS   D2B24080  15.201   0.789  13.221  0.2793 -0.0815 -0.3056
 2052DOPS   C3B24081  14.917   0.402  13.210 -0.0433 -0.4634 -0.1778
 2052DOPS   C4B24082  14.731   0.005  13.100  0.1878  0.3130  0.1753
 2053DOPC   NC324083  20.747  24.276  13.498 -0.1340 -0.2676 -0.3686
 2053DOPC   PO424084  20.983  24.203  13.220  0.3388 -0.0576  0.1374
 2053DOPC   GL124085  21.150  24.385  12.962 -0.1623 -0.2715 -0.0140
 2053DOPC   GL224086  21.368  24.255  12.871  0.0611 -0.0080  0.1366
 2053DOPC   C1A24087  21.119  24.409  12.474 -0.0471  0.0620  0.1022
 2053DOPC   D2A24088  21.315  24.490  12.064 -0.3034  0.1265 -0.1468
 2053DOPC   C3A24089  21.449  24.073  11.832 -0.2870  0.3003 -0.1250
 2053DOPC   C4A24090  21.790  23.997  11.514 -0.1804 -0.1428  0.1416
 2053DOPC   C1B24091  21.474  24.685  12.751 -0.1102 -0.1374  0.0761
 2053DOPC   D2B24092  21.189  24.970  12.536 -0.1481  0.0212 -0.2369
 2053DOPC   C3B24093  20.950  24.832  12.150 -0.2064  0.0981  0.0116
 2053DOPC   C4B24094  20.987  24.641  11.745  0.1047 -0.4473  0.2563
 2054DOPE   NH324095  19.748  29.686  13.547  0.0430  0.0737  0.1754
 2054DOPE   PO424096  19.746  29.536  13.244 -0.1262  0.1274  0.3664
 2054DOPE   GL124097  19.634  29.481  12.928 -0.2469 -0.0733 -0.3817
 2054DOPE   GL224098  19.565  29.812  12.834 -0.0550 -0.1328  0.0515
 2054DOPE   C1A24099  19.807  29.537  12.497  0.3771 -0.1311  0.1068
 2054DOPE   D2A24100  19.745  29.210  12.181  0.2017  0.0015  0.2359
 2054DOPE   C3A24101  19.896  28.961  11.862  0.0954  0.0232  0.1334
 2054DOPE   C4A24102  19.738  28.730  11.543 -0.2637 -0.4668 -0.0528
 2054DOPE   C1B24103  19.250  29.572  12.607  0.1842 -0.2009  0.1262
 2054DOPE   D2B24104  19.331  29.164  12.475 -0.1548 -0.1559  0.1088
 2054DOPE   C3B24105  19.061  28.959  12.180  0.0195 -0.1325  0.2425
 2054DOPE   C4B24106  18.765  28.538  12.254  0.2390 -0.0235 -0.0332
 2055DOPE   NH324107  16.842  26.683  13.419  0.0301 -0.1745 -0.1029
 2055DOPE   PO424108  16.982  26.959  13.429 -0.1727  0.1056 -0.4392
 2055DOPE   GL124109  16.788  27.073  13.095  0.1803 -0.1283  0.1845
 2055DOPE   GL224110  17.006  27.243  12.935  0.2619  0.0033 -0.2658
 2055DOPE   C1A24111  16.775  27.031  12.585  0.1126 -0.3675  0.0415
 2055DOPE   D2A24112  16.960  26.693  12.359 -0.0158  0.0930 -0.1010
 2055DOPE   C3A24113  16.990  26.827  11.944 -0.1181 -0.0717 -0.1034
 2055DOPE   C4A24114  16.889  27.166  11.629  0.1352  0.2101  0.3402
 2055DOPE   C1B24115  17.104  27.358  12.483 -0.0079  0.1295 -0.0930
 2055DOPE   D2B24116  17.175  27.271  12.042  0.1979  0.0950 -0.0491
 2055DOPE   C3B24117  17.436  27.203  11.710  0.1683 -0.3316  0.1319
 2055DOPE   C4B24118  17.654  27.001  11.361  0.3147 -0.1495  0.5073
 2056DOPC   NC324119  18.386   0.980  13.838 -0.0285  0.0816  0.0250
 2056DOPC   PO424120  18.100   0.790  13.927 -0.0740 -0.1759  0.0388
 2056DOPC   GL124121  17.956   0.870  13.578  0.1537  0.0592  0.2826
 2056DOPC   GL224122  17.913   1.186  13.535 -0.1485 -0.0499  0.2793
 2056DOPC   C1A24123  17.979   0.963  13.114  0.0364  0.3235  0.0864
 2056DOPC   D2A24124  17.956   1.311  12.787  0.2111 -0.1463  0.0582
 2056DOPC   C3A24125  17.919   1.140  12.318  0.0098  0.1023 -0.1093
 2056DOPC   C4A24126  17.820   0.890  11.900  0.1138 -0.1312 -0.0706
 2056DOPC   C1B24127  17.570   1.362  13.255  0.0138 -0.0676  0.0399
 2056DOPC   D2B24128  17.133   1.495  13.272  0.0519  0.1967  0.1205
 2056DOPC   C3B24129  17.087   1.612  12.817  0.1059  0.1943  0.2952
 2056DOPC   C4B24130  17.182   1.915  12.443 -0.1061 -0.1914 -0.0408
 2057POSM   NC324131  23.136  29.612  13.279  0.1028 -0.3896  0.1618
 2057POSM   PO424132  22.759  29.525  13.268 -0.0356  0.0659 -0.0079
 2057POSM   AM124133  22.699  29.639  12.931 -0.3176  0.1746  0.2344
 2057POSM   AM224134  22.628  29.892  12.786 -0.0834 -0.2023 -0.1385
 2057POSM   T1A24135  22.538  29.527  12.462  0.0947 -0.2912 -0.0949
 2057POSM   C2A24136  22.767  29.561  12.085  0.0914 -0.3806  0.2357
 2057POSM   C3A24137  22.806  29.290  11.737  0.2714 -0.2634 -0.0771
 2057POSM   C1B24138  22.802  30.048  12.591  0.1195  0.0016  0.3766
 2057POSM   D2B24139  22.974  30.164  12.116 -0.0123 -0.3769  0.1997
 2057POSM   C3B24140  22.829  30.577  11.992 -0.0877  0.1231  0.3313
 2057POSM   C4B24141  22.674  30.858  11.724  0.1270 -0.2460 -0.0349
 2058DOPE   NH324142   8.818  33.414  14.583 -0.0414 -0.0952 -0.0403
 2058DOPE   PO424143   8.906  33.291  14.320  0.1751  0.0800 -0.2913
 2058DOPE   GL124144   8.956  33.430  14.027 -0.0332 -0.0461 -0.0028
 2058DOPE   GL224145   9.149  33.647  13.885  0.0765  0.0407 -0.1028
 2058DOPE   C1A24146   8.806  33.324  13.629 -0.0415  0.1746 -0.1759
 2058DOPE   D2A24147   9.026  33.669  13.330 -0.4611  0.2374  0.0378
 2058DOPE   C3A24148   9.313  33.503  13.008  0.1280 -0.0471  0.2018
 2058DOPE   C4A24149   9.531  33.609  12.621 -0.1073 -0.0230  0.1977
 2058DOPE   C1B24150   9.459  33.498  13.571 -0.1058  0.1856  0.5048
 2058DOPE   D2B24151   9.865  33.380  13.506  0.2571  0.0786 -0.0634
 2058DOPE   C3B24152  10.144  33.245  13.144 -0.4139  0.1234 -0.0163
 2058DOPE   C4B24153  10.067  33.177  12.704 -0.1371  0.2724 -0.1372
 2059DOPS   CNO24154  14.558  23.719  13.352  0.0019  0.0006  0.0283
 2059DOPS   PO424155  14.218  23.609  13.545 -0.1739  0.1270  0.0198
 2059DOPS   GL124156  14.191  23.500  13.211 -0.5754  0.5321 -0.1318
 2059DOPS   GL224157  14.028  23.432  13.071  0.3125  0.2004 -0.3672
 2059DOPS   C1A24158  14.393  23.621  12.835  0.0088 -0.0117 -0.0327
 2059DOPS   D2A24159  14.283  23.712  12.387 -0.1336  0.1756 -0.1885
 2059DOPS   C3A24160  14.623  23.820  12.111 -0.0496  0.0525  0.1244
 2059DOPS   C4A24161  15.096  23.796  12.091  0.2130  0.0321  0.2236
 2059DOPS   C1B24162  13.741  23.281  12.715  0.1675  0.0696 -0.1005
 2059DOPS   D2B24163  13.569  23.444  12.321  0.0429  0.1942  0.0852
 2059DOPS   C3B24164  13.810  23.475  11.986  0.1289  0.1682  0.1008
 2059DOPS   C4B24165  14.214  23.517  11.828  0.3026 -0.1496 -0.3238
 2060POSM   NC324166  19.568  31.704  13.632  0.1755  0.0915 -0.2578
 2060POSM   PO424167  19.517  31.639  13.228  0.0241 -0.2079  0.1230
 2060POSM   AM124168  19.583  31.701  12.922 -0.1475  0.0994 -0.1821
 2060POSM   AM224169  19.624  31.555  12.723 -0.0205 -0.0373 -0.0955
 2060POSM   T1A24170  19.373  32.048  12.575 -0.4862  0.3906 -0.1876
 2060POSM   C2A24171  19.218  32.092  12.207 -0.0598 -0.2419  0.4629
 2060POSM   C3A24172  18.843  32.404  12.110 -0.0721 -0.0737  0.1098
 2060POSM   C1B24173  19.827  31.696  12.493 -0.0656  0.1483 -0.0211
 2060POSM   D2B24174  19.992  31.768  12.051 -0.1138 -0.0098  0.1090
 2060POSM   C3B24175  19.715  31.921  11.712 -0.0388  0.3603 -0.0637
 2060POSM   C4B24176  19.461  32.076  11.325  0.0845  0.2740  0.0224
 2061POSM   NC324177  17.476  32.650  14.186  0.0515  0.1116  0.3186
 2061POSM   PO424178  17.181  32.794  13.960  0.0709  0.0797  0.1779
 2061POSM   AM124179  17.039  32.736  13.678  0.0440  0.2620  0.2994
 2061POSM   AM224180  16.801  32.813  13.512 -0.0889 -0.1724 -0.0308
 2061POSM   T1A24181  17.177  32.842  13.239  0.2023 -0.0647 -0.0717
 2061POSM   C2A24182  17.012  33.137  12.896 -0.1622 -0.0295  0.0944
 2061POSM   C3A24183  16.817  33.043  12.510  0.0720  0.0589 -0.1792
 2061POSM   C1B24184  16.586  32.865  13.278  0.4284  0.0435 -0.1300
 2061POSM   D2B24185  16.211  33.054  13.010  0.1532  0.1470  0.0792
 2061POSM   C3B24186  16.466  33.367  12.756  0.1707 -0.0735  0.1091
 2061POSM   C4B24187  16.521  33.371  12.297 -0.1286  0.2433 -0.2645
 2062DOPC   NC324188  15.085  25.936  13.659 -0.2309 -0.0561  0.0437
 2062DOPC   PO424189  15.432  26.088  13.526 -0.2311  0.3871  0.0757
 2062DOPC   GL124190  15.542  26.154  13.098  0.1846 -0.0932  0.2936
 2062DOPC   GL224191  15.878  26.231  13.041 -0.0908  0.0158 -0.0043
 2062DOPC   C1A24192  15.308  26.075  12.771 -0.0320  0.4086  0.0153
 2062DOPC   D2A24193  14.972  25.953  12.445 -0.3966  0.0765 -0.0901
 2062DOPC   C3A24194  14.702  26.294  12.242  0.0798 -0.0532 -0.0937
 2062DOPC   C4A24195  14.443  26.657  12.437 -0.1688  0.1632 -0.1064
 2062DOPC   C1B24196  15.786  26.309  12.575  0.1663  0.2566  0.1128
 2062DOPC   D2B24197  15.436  26.216  12.303  0.0067  0.0956 -0.0038
 2062DOPC   C3B24198  15.164  26.393  12.029  0.0231  0.0521  0.1214
 2062DOPC   C4B24199  14.872  26.245  11.701  0.3374 -0.1510 -0.1982
 2063DOPS   CNO24200  21.503  26.601  13.881  0.1076  0.3788 -0.1061
 2063DOPS   PO424201  21.306  26.869  13.686  0.0969  0.1338  0.1221
 2063DOPS   GL124202  21.094  26.964  13.241 -0.3080 -0.3292 -0.0134
 2063DOPS   GL224203  21.279  27.199  13.284  0.2007 -0.3063  0.3060
 2063DOPS   C1A24204  20.958  26.594  13.025 -0.0867  0.1337  0.1990
 2063DOPS   D2A24205  20.800  26.406  12.619  0.3077  0.1592 -0.1731
 2063DOPS   C3A24206  20.864  26.634  12.175  0.0309  0.0424  0.0332
 2063DOPS   C4A24207  20.736  26.729  11.769 -0.0477 -0.1906  0.0375
 2063DOPS   C1B24208  21.279  27.017  12.867 -0.1399  0.0157 -0.1501
 2063DOPS   D2B24209  21.272  26.620  12.656  0.3084  0.2873 -0.0661
 2063DOPS   C3B24210  21.330  26.640  12.163  0.1877 -0.0234  0.1710
 2063DOPS   C4B24211  21.163  26.346  11.887  0.0283 -0.0482  0.1635
 2064DOPE   NH324212  20.363   1.357  13.730 -0.0131 -0.1273 -0.0193
 2064DOPE   PO424213  20.104   1.375  13.531 -0.2414  0.1313 -0.1438
 2064DOPE   GL124214  20.119   1.222  13.217  0.1910 -0.3529 -0.1290
 2064DOPE   GL224215  20.260   0.975  13.158 -0.0900 -0.1709  0.2712
 2064DOPE   C1A24216  19.952   1.211  12.758  0.0909  0.1504 -0.1261
 2064DOPE   D2A24217  20.058   1.384  12.297 -0.0484  0.1019 -0.1599
 2064DOPE   C3A24218  20.146   1.606  11.942 -0.0328 -0.0261 -0.3053
 2064DOPE   C4A24219  20.296   1.823  11.565 -0.1802 -0.2525  0.3421
 2064DOPE   C1B24220  20.391   0.856  12.783  0.0654  0.2781 -0.0964
 2064DOPE   D2B24221  20.380   0.687  12.367  0.1175 -0.0005 -0.1138
 2064DOPE   C3B24222  20.325   0.955  12.026 -0.0009 -0.0936 -0.1844
 2064DOPE   C4B24223  19.998   1.151  11.821 -0.1043 -0.0986  0.2084
 2065POSM   NC324224  22.373  26.979  13.355  0.1147 -0.0052 -0.0428
 2065POSM   PO424225  22.132  27.147  13.083  0.0192 -0.2882  0.0352
 2065POSM   AM124226  22.099  27.069  12.744  0.3047 -0.3489 -0.1053
 2065POSM   AM224227  21.970  26.826  12.623  0.0060 -0.4642 -0.3062
 2065POSM   T1A24228  22.099  27.150  12.236 -0.2313 -0.0733 -0.1175
 2065POSM   C2A24229  21.772  27.168  11.861  0.4651  0.0018 -0.0019
 2065POSM   C3A24230  21.501  26.835  11.685 -0.1599 -0.0326  0.2503
 2065POSM   C1B24231  21.680  26.963  12.582  0.0257 -0.3162 -0.2203
 2065POSM   D2B24232  21.444  27.121  12.245 -0.0016  0.3833 -0.0951
 2065POSM   C3B24233  21.131  27.039  11.976 -0.1964  0.1435  0.0151
 2065POSM   C4B24234  20.701  27.189  12.042 -0.2065  0.0420  0.2716
 2066POSM   NC324235  25.530  24.189  13.181 -0.1884  0.1282  0.1353
 2066POSM   PO424236  25.414  23.831  13.340 -0.0233 -0.0336 -0.2668
 2066POSM   AM124237  25.317  23.802  13.040  0.0636  0.1791  0.5690
 2066POSM   AM224238  25.079  23.765  12.940  0.2028 -0.1687  0.0418
 2066POSM   T1A24239  25.418  23.626  12.596  0.2006  0.0697  0.2766
 2066POSM   C2A24240  25.804  23.709  12.324  0.0738 -0.0226  0.0309
 2066POSM   C3A24241  25.914  23.623  11.901  0.0070  0.1724  0.1669
 2066POSM   C1B24242  24.936  23.714  12.624  0.0663 -0.1913  0.1808
 2066POSM   D2B24243  24.839  23.536  12.206  0.3315 -0.1229  0.1387
 2066POSM   C3B24244  24.980  23.488  11.819  0.1373 -0.2255  0.0691
 2066POSM   C4B24245  25.274  23.599  11.473  0.1849 -0.0445 -0.2047
 2067DOPC   NC324246  12.381  32.210  14.149 -0.4888 -0.1577 -0.0492
 2067DOPC   PO424247  12.046  32.270  14.374  0.1510 -0.1781  0.0904
 2067DOPC   GL124248  11.964  32.362  14.037  0.4048  0.3487 -0.2214
 2067DOPC   GL224249  11.881  32.170  13.939 -0.0669 -0.0765 -0.2812
 2067DOPC   C1A24250  11.992  32.670  13.688  0.0288  0.2242  0.0190
 2067DOPC   D2A24251  12.148  32.804  13.210  0.1653 -0.3348 -0.0495
 2067DOPC   C3A24252  12.019  32.987  12.811  0.0497  0.2555 -0.1569
 2067DOPC   C4A24253  12.134  33.237  12.452  0.0138  0.0249 -0.1487
 2067DOPC   C1B24254  11.658  32.171  13.484 -0.1246  0.2256 -0.1641
 2067DOPC   D2B24255  11.750  32.352  13.103  0.2401  0.1158 -0.0873
 2067DOPC   C3B24256  11.687  32.657  12.761 -0.1825 -0.2825  0.0408
 2067DOPC   C4B24257  11.747  32.841  12.322  0.2049  0.0081 -0.0622
 2068DOPC   NC324258  14.080  25.627  13.599  0.1444 -0.4139 -0.0729
 2068DOPC   PO424259  14.284  25.278  13.664 -0.1844 -0.1958 -0.0914
 2068DOPC   GL124260  14.305  25.426  13.269  0.4072  0.1689  0.1710
 2068DOPC   GL224261  14.650  25.477  13.218  0.2469 -0.3100 -0.0271
 2068DOPC   C1A24262  14.113  25.793  13.097  0.0549  0.1178  0.1263
 2068DOPC   D2A24263  14.134  26.035  12.748  0.1423  0.0033 -0.0234
 2068DOPC   C3A24264  14.180  26.209  12.281 -0.0332  0.2171 -0.3379
 2068DOPC   C4A24265  13.833  26.181  12.003  0.0779 -0.4196  0.0017
 2068DOPC   C1B24266  14.543  25.716  12.837 -0.2355 -0.2218 -0.4993
 2068DOPC   D2B24267  14.449  25.754  12.388 -0.1220  0.3484 -0.2414
 2068DOPC   C3B24268  14.641  25.803  12.013  0.0497 -0.0744 -0.2527
 2068DOPC   C4B24269  15.138  25.879  11.913 -0.2529 -0.4332  0.0183
 2069POSM   NC324270  14.683  23.513  13.840  0.1591 -0.3357  0.1696
 2069POSM   PO424271  14.905  23.187  13.758 -0.2221 -0.0456 -0.0965
 2069POSM   AM124272  14.839  23.254  13.451 -0.2854  0.1057  0.1475
 2069POSM   AM224273  14.640  23.227  13.268 -0.1623 -0.2580  0.2303
 2069POSM   T1A24274  14.957  23.534  13.041  0.1889  0.3046 -0.1467
 2069POSM   C2A24275  14.905  23.992  12.940 -0.0448  0.0383  0.3905
 2069POSM   C3A24276  15.225  24.360  12.818  0.0899 -0.1008  0.1992
 2069POSM   C1B24277  14.571  23.113  12.973  0.2636 -0.0707  0.1318
 2069POSM   D2B24278  14.558  23.191  12.520 -0.0428  0.1488  0.2511
 2069POSM   C3B24279  14.689  23.296  12.131  0.3102  0.0490 -0.2788
 2069POSM   C4B24280  14.739  23.505  11.664  0.1772 -0.1818 -0.2201
 2070POSM   NC324281  24.991  29.156  13.125 -0.0787  0.0527 -0.1668
 2070POSM   PO424282  25.313  29.009  12.937  0.1830 -0.0659 -0.2684
 2070POSM   AM124283  25.304  28.896  12.615 -0.0837 -0.3499  0.1634
 2070POSM   AM224284  25.426  28.953  12.385  0.2537 -0.0879  0.0477
 2070POSM   T1A24285  25.231  28.574  12.262 -0.3300 -0.1590  0.0296
 2070POSM   C2A24286  25.123  28.256  11.955 -0.0801  0.0731 -0.0073
 2070POSM   C3A24287  25.224  28.228  11.496 -0.0438 -0.1245 -0.2277
 2070POSM   C1B24288  25.241  29.097  12.087 -0.3281 -0.2464 -0.0917
 2070POSM   D2B24289  25.033  29.450  11.848 -0.1423 -0.1219 -0.2059
 2070POSM   C3B24290  25.257  29.667  11.488 -0.1343 -0.0951 -0.0996
 2070POSM   C4B24291  25.638  29.557  11.209  0.0794 -0.0418  0.0638
 2071DOPE   NH324292  20.853  34.498  13.100 -0.2313  0.2248 -0.1612
 2071DOPE   PO424293  20.693  34.735  13.229 -0.2795  0.0113 -0.0706
 2071DOPE   GL124294  20.786  34.845  12.859  0.0655 -0.2072  0.2387
 2071DOPE   GL224295  21.039  34.928  12.844 -0.2966 -0.0941  0.1513
 2071DOPE   C1A24296  20.727  35.107  12.416  0.2976 -0.0868 -0.2359
 2071DOPE   D2A24297  21.104  35.183  12.149 -0.1088 -0.1346 -0.2483
 2071DOPE   C3A24298  21.040  35.456  11.767 -0.0899 -0.1856  0.0725
 2071DOPE   C4A24299  21.116  35.593  11.312 -0.3061  0.0581 -0.1593
 2071DOPE   C1B24300  21.030  34.697  12.476 -0.0310 -0.2012 -0.0228
 2071DOPE   D2B24301  20.787  34.316  12.473 -0.0910 -0.0935  0.2286
 2071DOPE   C3B24302  20.993  33.890  12.351 -0.0440 -0.1146 -0.1094
 2071DOPE   C4B24303  21.114  33.517  12.135  0.0869  0.1831 -0.0408
 2072DOPC   NC324304  18.057  33.618  13.807 -0.0447  0.0008  0.2910
 2072DOPC   PO424305  17.658  33.640  13.842 -0.0827  0.1630  0.1873
 2072DOPC   GL124306  17.750  33.912  13.578 -0.3511  0.1218  0.2413
 2072DOPC   GL224307  17.674  34.166  13.517  0.4161 -0.0352 -0.1959
 2072DOPC   C1A24308  17.818  33.959  13.114  0.0674 -0.1530  0.2167
 2072DOPC   D2A24309  17.799  33.789  12.638  0.0490 -0.2301 -0.1557
 2072DOPC   C3A24310  17.862  33.914  12.176  0.2520 -0.2717  0.0139
 2072DOPC   C4A24311  17.969  33.941  11.746 -0.0346 -0.0076  0.0980
 2072DOPC   C1B24312  17.594  34.546  13.324  0.0493  0.0947  0.0501
 2072DOPC   D2B24313  17.320  34.797  12.992 -0.3615 -0.0223  0.1569
 2072DOPC   C3B24314  17.563  35.086  12.665 -0.1289 -0.0225 -0.0532
 2072DOPC   C4B24315  17.565  35.221  12.262  0.0403 -0.0437  0.1939
 2073DOPE   NH324316  20.053  28.846  13.472 -0.0313  0.1679  0.0388
 2073DOPE   PO424317  19.801  29.057  13.493 -0.0728  0.0644  0.0845
 2073DOPE   GL124318  19.930  28.798  13.053  0.0696 -0.1885  0.4488
 2073DOPE   GL224319  19.732  29.049  12.961 -0.2474  0.1303 -0.2793
 2073DOPE   C1A24320  20.210  28.527  12.783  0.4957  0.3625  0.1215
 2073DOPE   D2A24321  20.356  28.372  12.394  0.2118 -0.0894 -0.1039
 2073DOPE   C3A24322  20.040  28.124  12.139 -0.0809 -0.1301  0.3246
 2073DOPE   C4A24323  19.874  27.891  11.771  0.2313 -0.0620  0.1065
 2073DOPE   C1B24324  19.790  28.891  12.529  0.0754 -0.0619 -0.3677
 2073DOPE   D2B24325  19.720  28.547  12.274 -0.2340  0.1562 -0.1520
 2073DOPE   C3B24326  19.646  28.343  11.888 -0.0319 -0.0249  0.2462
 2073DOPE   C4B24327  19.304  28.270  11.564  0.0240 -0.0228  0.2628
 2074DOPE   NH324328  23.500  26.508  13.526  0.2288 -0.1687 -0.0838
 2074DOPE   PO424329  23.208  26.461  13.438 -0.0840 -0.0437 -0.2902
 2074DOPE   GL124330  23.176  26.660  13.033 -0.0554  0.1242 -0.2918
 2074DOPE   GL224331  23.346  26.629  12.797  0.0768 -0.0277 -0.0552
 2074DOPE   C1A24332  22.852  26.574  12.771 -0.0331  0.4684  0.0665
 2074DOPE   D2A24333  22.497  26.561  12.508 -0.0234 -0.1032 -0.1810
 2074DOPE   C3A24334  22.206  26.388  12.123 -0.1975 -0.4008  0.0835
 2074DOPE   C4A24335  21.833  26.223  11.968  0.0463 -0.2528 -0.3768
 2074DOPE   C1B24336  23.671  26.368  12.527  0.0410  0.1107  0.0012
 2074DOPE   D2B24337  23.777  25.988  12.287  0.0827 -0.1413 -0.1162
 2074DOPE   C3B24338  23.838  26.030  11.801 -0.0973 -0.2256  0.1882
 2074DOPE   C4B24339  24.015  26.075  11.368  0.0199  0.5725 -0.0129
 2075DOPE   NH324340  17.876  26.876  13.596  0.2007 -0.0031  0.1715
 2075DOPE   PO424341  18.152  26.772  13.673  0.2541 -0.1958 -0.0673
 2075DOPE   GL124342  18.152  26.774  13.198  0.0336  0.1169 -0.0929
 2075DOPE   GL224343  18.523  26.906  13.041 -0.0571  0.0329 -0.0097
 2075DOPE   C1A24344  17.994  27.024  12.802  0.0255 -0.1384  0.0041
 2075DOPE   D2A24345  17.903  27.340  12.404 -0.0455  0.2720  0.1907
 2075DOPE   C3A24346  18.257  27.268  12.122  0.1017 -0.1774  0.4025
 2075DOPE   C4A24347  18.459  26.906  11.954 -0.1506  0.1775 -0.0554
 2075DOPE   C1B24348  18.330  26.610  12.798  0.0559  0.3387 -0.1044
 2075DOPE   D2B24349  18.439  26.463  12.331 -0.3016  0.2272 -0.0166
 2075DOPE   C3B24350  18.791  26.584  12.120 -0.1143 -0.2012  0.2067
 2075DOPE   C4B24351  19.012  26.793  11.717 -0.0518 -0.1220  0.1332
 2076DOPS   CNO24352  17.054  27.544  13.850 -0.0039  0.1737 -0.0077
 2076DOPS   PO424353  16.786  27.807  13.814 -0.1442 -0.1578 -0.0746
 2076DOPS   GL124354  16.860  27.871  13.441 -0.2342 -0.0206  0.1537
 2076DOPS   GL224355  17.171  27.805  13.455 -0.0042  0.0187  0.3076
 2076DOPS   C1A24356  16.633  27.978  13.037  0.1533 -0.1273 -0.0643
 2076DOPS   D2A24357  16.563  28.194  12.648 -0.2069 -0.0938  0.1486
 2076DOPS   C3A24358  16.833  28.197  12.277  0.2564  0.1901  0.0531
 2076DOPS   C4A24359  17.076  28.050  11.890 -0.1944  0.3801 -0.1066
 2076DOPS   C1B24360  17.022  27.707  13.015  0.4891  0.0117 -0.1632
 2076DOPS   D2B24361  17.106  27.889  12.607 -0.1204 -0.2170  0.0074
 2076DOPS   C3B24362  17.283  27.751  12.254  0.1778 -0.3416 -0.0856
 2076DOPS   C4B24363  17.398  27.689  11.778 -0.1313  0.1572 -0.2061
 2077DOPE   NH324364  19.571  28.574  13.643 -0.0958  0.0699 -0.1803
 2077DOPE   PO424365  19.689  28.515  13.358  0.1693  0.0624 -0.2310
 2077DOPE   GL124366  19.996  28.329  13.121 -0.1061 -0.0111 -0.0879
 2077DOPE   GL224367  20.155  28.350  13.298 -0.1535  0.2686 -0.2087
 2077DOPE   C1A24368  19.926  28.136  12.676 -0.3461  0.0728  0.1495
 2077DOPE   D2A24369  19.582  28.059  12.364 -0.4268 -0.0660 -0.0516
 2077DOPE   C3A24370  19.483  27.719  12.051  0.1213 -0.0457  0.0887
 2077DOPE   C4A24371  19.688  27.452  11.759 -0.1348 -0.3884 -0.1265
 2077DOPE   C1B24372  20.230  27.946  12.967  0.0244 -0.0621  0.0307
 2077DOPE   D2B24373  20.359  27.865  12.539 -0.1774 -0.0896  0.0702
 2077DOPE   C3B24374  20.725  27.735  12.375 -0.1500  0.1800  0.0154
 2077DOPE   C4B24375  21.064  27.435  12.255 -0.1667 -0.1236  0.0824
 2078DOPE   NH324376  17.744  29.783  13.805 -0.1943 -0.1642 -0.0634
 2078DOPE   PO424377  17.562  30.054  13.892 -0.5156  0.3664 -0.3139
 2078DOPE   GL124378  17.721  30.241  13.587 -0.0456 -0.0858 -0.0751
 2078DOPE   GL224379  17.891  30.115  13.369 -0.0297 -0.5398 -0.0505
 2078DOPE   C1A24380  17.633  30.448  13.154 -0.1122 -0.1421  0.0268
 2078DOPE   D2A24381  17.768  30.834  12.896 -0.0904 -0.0277 -0.0392
 2078DOPE   C3A24382  17.852  30.893  12.442  0.3999 -0.0822  0.1142
 2078DOPE   C4A24383  18.077  31.160  12.081  0.0492  0.1764 -0.0268
 2078DOPE   C1B24384  17.753  30.036  12.956  0.2323 -0.4820  0.0945
 2078DOPE   D2B24385  17.629  30.421  12.617 -0.1349 -0.0486  0.0989
 2078DOPE   C3B24386  17.284  30.411  12.322 -0.3555  0.2868 -0.4641
 2078DOPE   C4B24387  16.887  30.365  12.049  0.0906  0.2370  0.3233
 2079POSM   NC324388  14.346  24.366  13.914 -0.0724 -0.0650  0.1345
 2079POSM   PO424389  14.504  24.035  13.789  0.0494  0.0006  0.1311
 2079POSM   AM124390  14.301  24.090  13.513 -0.1248 -0.3190 -0.0225
 2079POSM   AM224391  14.144  24.302  13.412  0.0495 -0.0076 -0.1048
 2079POSM   T1A24392  14.304  24.075  13.005 -0.0669 -0.1842  0.2971
 2079POSM   C2A24393  14.400  24.142  12.554  0.4528 -0.1217 -0.1017
 2079POSM   C3A24394  14.585  24.319  12.138  0.4215  0.3727 -0.1655
 2079POSM   C1B24395  14.133  24.530  13.155  0.0544  0.0556  0.0121
 2079POSM   D2B24396  14.306  24.744  12.795 -0.0057 -0.1761  0.0384
 2079POSM   C3B24397  14.430  24.764  12.372  0.1238  0.2315 -0.0452
 2079POSM   C4B24398  14.575  24.919  11.958  0.2240  0.0316  0.3990
 2080POSM   NC324399  15.118  29.059  13.757 -0.0311  0.1342  0.2070
 2080POSM   PO424400  15.552  29.051  13.746 -0.1578  0.1315  0.0570
 2080POSM   AM124401  15.438  28.810  13.557  0.2273 -0.2956  0.1316
 2080POSM   AM224402  15.516  28.700  13.311  0.2948  0.2630 -0.3252
 2080POSM   T1A24403  15.001  28.730  13.326 -0.3793  0.3741  0.3067
 2080POSM   C2A24404  14.617  28.471  13.265  0.1725  0.0674  0.1556
 2080POSM   C3A24405  14.444  28.332  12.843 -0.2251  0.1137 -0.0787
 2080POSM   C1B24406  15.455  28.993  13.139  0.0698  0.0465  0.0332
 2080POSM   D2B24407  15.423  29.368  12.867  0.1365 -0.2187  0.3165
 2080POSM   C3B24408  15.444  29.332  12.416 -0.2111  0.0855  0.0572
 2080POSM   C4B24409  15.127  29.152  12.159  0.0080 -0.1397  0.1847
 2081DOPC   NC324410  21.481  28.429  13.424  0.0019 -0.0496 -0.0149
 2081DOPC   PO424411  21.584  28.820  13.523  0.1203 -0.1801  0.0581
 2081DOPC   GL124412  21.390  28.762  13.115  0.4404 -0.1536  0.0481
 2081DOPC   GL224413  21.590  28.797  12.929  0.0487 -0.2685 -0.0155
 2081DOPC   C1A24414  21.085  28.580  12.800  0.1893  0.0645 -0.1293
 2081DOPC   D2A24415  21.050  28.582  12.361 -0.0410 -0.1352 -0.3844
 2081DOPC   C3A24416  21.039  29.044  12.234  0.4020 -0.2692 -0.1171
 2081DOPC   C4A24417  21.202  29.478  12.299  0.1558  0.2144 -0.2003
 2081DOPC   C1B24418  21.405  28.845  12.547 -0.1487  0.1058 -0.0371
 2081DOPC   D2B24419  21.519  29.052  12.150 -0.2642  0.0198 -0.0010
 2081DOPC   C3B24420  21.527  28.807  11.709 -0.1332 -0.2326  0.1473
 2081DOPC   C4B24421  21.768  28.684  11.379 -0.0879 -0.1746  0.0457
 2082DOPC   NC324422  18.043  30.859  13.330  0.2420 -0.2163  0.2914
 2082DOPC   PO424423  18.051  31.257  13.352  0.1681  0.4661  0.3116
 2082DOPC   GL124424  18.121  31.399  12.946  0.0929  0.0594 -0.1662
 2082DOPC   GL224425  17.899  31.573  13.010 -0.1783 -0.0023 -0.0486
 2082DOPC   C1A24426  17.925  31.335  12.572 -0.0075 -0.2294 -0.3181
 2082DOPC   D2A24427  17.545  31.347  12.256 -0.0298 -0.2390  0.1808
 2082DOPC   C3A24428  17.649  31.635  11.964  0.1808 -0.1478  0.2009
 2082DOPC   C4A24429  17.791  32.071  11.808  0.2321 -0.2261 -0.5349
 2082DOPC   C1B24430  17.533  31.595  12.783 -0.1013 -0.2661  0.0584
 2082DOPC   D2B24431  17.187  31.560  12.520  0.1384  0.4100  0.1233
 2082DOPC   C3B24432  17.016  31.247  12.153 -0.2450  0.0966  0.1581
 2082DOPC   C4B24433  16.879  31.100  11.751 -0.1680 -0.0059 -0.1214
 2083POSM   NC324434  17.073  28.920  13.905  0.1456  0.0816  0.1538
 2083POSM   PO424435  17.240  28.679  13.676 -0.2450 -0.1145  0.0257
 2083POSM   AM124436  17.278  28.850  13.386  0.1161 -0.3303 -0.3327
 2083POSM   AM224437  17.305  28.815  13.083 -0.1926  0.0635  0.3607
 2083POSM   T1A24438  17.328  29.302  13.149 -0.0715  0.1785 -0.2171
 2083POSM   C2A24439  17.486  29.608  12.825  0.0723 -0.0185 -0.1513
 2083POSM   C3A24440  17.410  29.957  12.577  0.0264 -0.2258  0.1478
 2083POSM   C1B24441  17.394  28.616  12.862  0.0087  0.3006 -0.4297
 2083POSM   D2B24442  17.337  28.343  12.539 -0.2116  0.0262 -0.2287
 2083POSM   C3B24443  17.730  28.513  12.309 -0.0801 -0.1818 -0.0011
 2083POSM   C4B24444  17.963  28.509  11.850 -0.0371 -0.0964  0.0481
 2084DOPC   NC324445  18.623  26.397  13.151  0.2563  0.0195  0.3209
 2084DOPC   PO424446  18.418  26.300  13.445  0.1763 -0.0282 -0.0420
 2084DOPC   GL124447  18.098  26.285  13.322 -0.1369  0.1080 -0.3128
 2084DOPC   GL224448  18.127  26.177  13.037 -0.0336  0.0708  0.2395
 2084DOPC   C1A24449  17.806  26.554  13.044  0.0459  0.1608  0.2435
 2084DOPC   D2A24450  17.430  26.606  12.725 -0.1642  0.3245  0.0235
 2084DOPC   C3A24451  17.684  26.592  12.381 -0.3265  0.1131 -0.2226
 2084DOPC   C4A24452  18.112  26.823  12.314 -0.2318 -0.2427  0.1469
 2084DOPC   C1B24453  17.958  26.238  12.627 -0.2631  0.1388  0.0441
 2084DOPC   D2B24454  18.014  26.326  12.168  0.1840 -0.0329  0.1985
 2084DOPC   C3B24455  18.007  26.667  11.858 -0.4056 -0.3100 -0.1711
 2084DOPC   C4B24456  18.124  26.764  11.351  0.1505 -0.1796 -0.0885
 2085POSM   NC324457  11.662  29.638  14.881  0.2084  0.0938 -0.1388
 2085POSM   PO424458  11.922  29.550  14.534  0.0697 -0.4086  0.1699
 2085POSM   AM124459  11.914  29.652  14.249  0.3218  0.1827  0.1570
 2085POSM   AM224460  11.995  29.856  14.042  0.0461  0.1765 -0.4198
 2085POSM   T1A24461  11.787  29.408  13.832 -0.0534  0.0922  0.0911
 2085POSM   C2A24462  11.525  29.487  13.498  0.1797 -0.3155 -0.0301
 2085POSM   C3A24463  11.541  29.458  13.048  0.3769  0.0007 -0.1033
 2085POSM   C1B24464  11.805  29.889  13.767 -0.1673  0.1240 -0.0560
 2085POSM   D2B24465  11.417  29.949  13.554 -0.1153  0.1675  0.1808
 2085POSM   C3B24466  11.114  29.673  13.420  0.1464  0.1779 -0.0827
 2085POSM   C4B24467  11.012  29.560  12.973 -0.1761  0.1423  0.3785
 2086DOPC   NC324468  18.417  30.384  13.819 -0.0728  0.0758  0.0926
 2086DOPC   PO424469  18.134  30.128  13.793 -0.0440  0.1322 -0.0784
 2086DOPC   GL124470  18.347  30.161  13.447  0.0558  0.2516 -0.3012
 2086DOPC   GL224471  18.319  30.419  13.299 -0.0922  0.4003  0.0628
 2086DOPC   C1A24472  18.311  29.903  13.123  0.1046  0.1430  0.1480
 2086DOPC   D2A24473  18.489  29.454  13.003 -0.1283 -0.0085 -0.2390
 2086DOPC   C3A24474  18.431  29.456  12.527 -0.0912  0.2657 -0.0751
 2086DOPC   C4A24475  18.491  29.762  12.168 -0.1806  0.0517  0.2492
 2086DOPC   C1B24476  18.114  30.369  12.923 -0.0046 -0.0905  0.3833
 2086DOPC   D2B24477  18.068  30.307  12.426  0.5327 -0.3274  0.0226
 2086DOPC   C3B24478  17.746  30.084  12.095 -0.1609 -0.0481 -0.0316
 2086DOPC   C4B24479  17.582  29.901  11.681  0.0358  0.1747 -0.1273
 2087POSM   NC324480  12.060  33.102  14.644 -0.0299 -0.1236  0.0003
 2087POSM   PO424481  12.416  33.019  14.734  0.0389 -0.0254 -0.1995
 2087POSM   AM124482  12.496  33.100  14.448  0.1410  0.1418  0.2925
 2087POSM   AM224483  12.394  33.322  14.346  0.0309  0.0497  0.0804
 2087POSM   T1A24484  12.472  32.927  13.997 -0.0190 -0.0130  0.0735
 2087POSM   C2A24485  12.392  33.014  13.555  0.0245  0.0257  0.1047
 2087POSM   C3A24486  12.494  33.120  13.114 -0.0004  0.2635  0.1996
 2087POSM   C1B24487  12.157  33.312  14.084 -0.2934 -0.1646  0.0930
 2087POSM   D2B24488  11.864  33.159  13.732  0.1508  0.0560  0.1430
 2087POSM   C3B24489  12.069  33.287  13.348 -0.0115 -0.2146 -0.0393
 2087POSM   C4B24490  12.058  33.518  12.923 -0.1680  0.1435  0.0336
 2088DOPE   NH324491  17.305  30.975  13.988 -0.1642 -0.3691 -0.0527
 2088DOPE   PO424492  17.524  30.746  14.063  0.0828  0.0859 -0.0324
 2088DOPE   GL124493  17.525  30.586  13.673  0.2462 -0.2812 -0.0768
 2088DOPE   GL224494  17.555  30.797  13.524  0.0633 -0.1163  0.0165
 2088DOPE   C1A24495  17.255  30.243  13.436  0.1908  0.3918 -0.3027
 2088DOPE   D2A24496  17.243  30.071  13.020 -0.0002 -0.1918 -0.2644
 2088DOPE   C3A24497  16.927  29.704  12.970 -0.1912  0.0060 -0.1870
 2088DOPE   C4A24498  16.605  29.606  12.618  0.0288 -0.0274  0.0482
 2088DOPE   C1B24499  17.238  30.736  13.285 -0.1193  0.2003 -0.3266
 2088DOPE   D2B24500  17.192  30.613  12.795  0.0055  0.1778  0.3960
 2088DOPE   C3B24501  16.884  30.784  12.559 -0.0953 -0.0152  0.2266
 2088DOPE   C4B24502  16.583  30.807  12.216  0.3531 -0.1500  0.2624
 2089DOPC   NC324503  19.267  25.847  13.243  0.2671  0.3046 -0.0796
 2089DOPC   PO424504  19.375  25.481  13.285 -0.0676 -0.1101 -0.2840
 2089DOPC   GL124505  19.729  25.592  13.014  0.0829 -0.0696  0.0480
 2089DOPC   GL224506  19.665  25.341  12.848 -0.4749 -0.0884 -0.1300
 2089DOPC   C1A24507  19.824  25.797  12.623 -0.2929  0.1342 -0.4588
 2089DOPC   D2A24508  20.067  25.621  12.279  0.0791  0.2249 -0.1420
 2089DOPC   C3A24509  19.942  25.673  11.802  0.2588 -0.0529  0.0842
 2089DOPC   C4A24510  19.825  25.650  11.396  0.0590 -0.5012  0.1865
 2089DOPC   C1B24511  19.451  25.299  12.456  0.2729  0.0079  0.1188
 2089DOPC   D2B24512  19.069  25.044  12.391 -0.4798  0.1724  0.0115
 2089DOPC   C3B24513  18.867  25.129  11.982  0.0927 -0.1414  0.0766
 2089DOPC   C4B24514  18.787  24.991  11.543  0.0275  0.0581  0.1119
 2090DOPC   NC324515  16.148  23.513  12.855  0.0790  0.2345  0.0887
 2090DOPC   PO424516  16.009  23.144  12.768  0.1122  0.0174  0.3382
 2090DOPC   GL124517  15.714  23.179  12.430 -0.0864 -0.3290  0.0377
 2090DOPC   GL224518  15.620  23.453  12.308 -0.2251  0.0250 -0.3331
 2090DOPC   C1A24519  15.798  23.086  11.990  0.1357 -0.3076 -0.0055
 2090DOPC   D2A24520  15.763  22.856  11.612 -0.1379  0.1497  0.0420
 2090DOPC   C3A24521  15.523  22.896  11.233 -0.2339  0.0258  0.0749
 2090DOPC   C4A24522  15.186  22.989  10.952  0.0874  0.1852  0.3013
 2090DOPC   C1B24523  15.634  23.508  11.845 -0.0421  0.3091 -0.1264
 2090DOPC   D2B24524  15.746  23.362  11.418  0.1486  0.4000  0.2521
 2090DOPC   C3B24525  16.135  23.183  11.394  0.1719  0.2014  0.1353
 2090DOPC   C4B24526  16.214  22.751  11.173 -0.0799 -0.0255 -0.0423
 2091DOPC   NC324527  18.794  30.504  13.454 -0.1921 -0.1510 -0.0755
 2091DOPC   PO424528  18.816  30.138  13.518 -0.3348  0.1038 -0.1927
 2091DOPC   GL124529  18.883  30.115  13.133  0.0258 -0.3090 -0.0003
 2091DOPC   GL224530  19.126  30.106  12.903  0.1019 -0.0035 -0.2468
 2091DOPC   C1A24531  18.997  29.640  13.112  0.1402 -0.1523  0.2925
 2091DOPC   D2A24532  19.217  29.269  12.947 -0.0841  0.0425  0.2550
 2091DOPC   C3A24533  18.861  29.120  12.660 -0.3785  0.1411  0.1345
 2091DOPC   C4A24534  18.574  29.025  12.322  0.1773 -0.3063 -0.0188
 2091DOPC   C1B24535  18.747  29.867  12.761  0.2912  0.2370  0.1000
 2091DOPC   D2B24536  18.344  29.938  12.639 -0.0878 -0.0212  0.0202
 2091DOPC   C3B24537  18.058  29.778  12.306 -0.1961  0.0460 -0.1726
 2091DOPC   C4B24538  17.610  29.563  12.200  0.0759  0.0770  0.0674
 2092DOPC   NC324539  21.742  32.810  12.908  0.0546  0.2015  0.0641
 2092DOPC   PO424540  21.704  33.163  13.083 -0.0026  0.2307 -0.0054
 2092DOPC   GL124541  21.911  33.257  12.682 -0.1614 -0.0700 -0.1666
 2092DOPC   GL224542  21.840  33.559  12.691  0.1521  0.1639 -0.1258
 2092DOPC   C1A24543  21.862  33.412  12.239 -0.1087  0.1707 -0.0599
 2092DOPC   D2A24544  21.651  33.205  11.898  0.2609 -0.1585 -0.3841
 2092DOPC   C3A24545  21.809  33.110  11.454 -0.1504  0.1458 -0.0895
 2092DOPC   C4A24546  21.945  33.330  10.998 -0.1948  0.0195  0.2631
 2092DOPC   C1B24547  21.456  33.380  12.480 -0.0958 -0.1058  0.2755
 2092DOPC   D2B24548  21.075  33.123  12.416 -0.1191 -0.1487  0.1560
 2092DOPC   C3B24549  21.123  32.999  11.964 -0.0928 -0.1720  0.1670
 2092DOPC   C4B24550  21.364  32.960  11.571  0.1439 -0.0504 -0.0876
 2093DOPS   CNO24551  18.981  28.484  13.876  0.1787  0.2140 -0.1484
 2093DOPS   PO424552  18.984  28.639  13.516 -0.0623 -0.1086 -0.1064
 2093DOPS   GL124553  19.112  28.569  13.105 -0.1552  0.1695 -0.1144
 2093DOPS   GL224554  18.936  28.311  13.069 -0.1421 -0.3132 -0.0479
 2093DOPS   C1A24555  19.216  28.744  12.711 -0.0318 -0.1974  0.3412
 2093DOPS   D2A24556  19.249  28.551  12.256 -0.1275 -0.0645  0.0287
 2093DOPS   C3A24557  19.330  28.730  11.838  0.0423  0.2069 -0.0021
 2093DOPS   C4A24558  19.264  28.933  11.387  0.1195 -0.0223  0.3060
 2093DOPS   C1B24559  18.710  28.605  12.829  0.2217 -0.1022 -0.0514
 2093DOPS   D2B24560  18.412  28.915  12.783  0.0280 -0.1103 -0.0089
 2093DOPS   C3B24561  18.131  28.767  12.467  0.0255  0.2827  0.0970
 2093DOPS   C4B24562  18.271  28.426  12.201  0.0056 -0.0608 -0.4604
 2094DOPC   NC324563  19.418  27.535  13.851 -0.1641  0.0020  0.0661
 2094DOPC   PO424564  19.724  27.413  13.622  0.1586 -0.0757  0.1953
 2094DOPC   GL124565  19.699  27.345  13.236 -0.1979 -0.0712  0.3298
 2094DOPC   GL224566  19.855  27.523  13.125  0.1145  0.2184  0.1372
 2094DOPC   C1A24567  19.370  27.466  12.959 -0.0029 -0.2387 -0.2073
 2094DOPC   D2A24568  18.961  27.475  12.720  0.0406  0.0341 -0.1433
 2094DOPC   C3A24569  19.070  27.805  12.411 -0.3962  0.0695  0.3010
 2094DOPC   C4A24570  19.104  28.091  12.022 -0.1956 -0.2584 -0.2362
 2094DOPC   C1B24571  19.795  27.621  12.661  0.1281 -0.0439  0.1544
 2094DOPC   D2B24572  19.926  27.608  12.268 -0.1171 -0.1378 -0.1006
 2094DOPC   C3B24573  20.370  27.706  12.040 -0.5697 -0.3441 -0.2693
 2094DOPC   C4B24574  20.784  27.691  11.843 -0.0938  0.1054  0.0919
 2095DOPS   CNO24575  20.038  32.464  13.751 -0.0609  0.1813 -0.2696
 2095DOPS   PO424576  20.183  32.643  13.472 -0.1380 -0.1822 -0.2159
 2095DOPS   GL124577  20.120  32.656  13.058 -0.2607  0.1530  0.0686
 2095DOPS   GL224578  20.366  32.469  12.834 -0.0080  0.1667 -0.2869
 2095DOPS   C1A24579  19.900  33.046  12.968  0.0825 -0.0145 -0.1250
 2095DOPS   D2A24580  19.826  33.320  12.595  0.1137 -0.4014 -0.1793
 2095DOPS   C3A24581  19.663  33.683  12.706  0.2855  0.3812  0.3799
 2095DOPS   C4A24582  19.633  34.060  12.505 -0.5152 -0.0129  0.1535
 2095DOPS   C1B24583  20.071  32.611  12.556  0.2344 -0.1172 -0.0779
 2095DOPS   D2B24584  20.032  32.652  12.077 -0.0567  0.0509 -0.0140
 2095DOPS   C3B24585  19.743  32.538  11.758  0.0480  0.2360 -0.0207
 2095DOPS   C4B24586  19.343  32.549  11.485  0.1381  0.0472  0.1485
 2096POSM   NC324587  26.073  22.160  13.244  0.2247 -0.2041 -0.0003
 2096POSM   PO424588  26.229  22.544  13.317  0.2382 -0.2159  0.0089
 2096POSM   AM124589  26.040  22.715  13.099  0.2760 -0.2435 -0.0202
 2096POSM   AM224590  25.993  22.943  12.947  0.0289 -0.1575  0.2270
 2096POSM   T1A24591  25.762  22.630  12.626  0.4027  0.0509  0.1158
 2096POSM   C2A24592  25.570  22.385  12.312 -0.1126 -0.0004  0.1416
 2096POSM   C3A24593  25.197  22.187  12.168  0.1421  0.0230 -0.2450
 2096POSM   C1B24594  26.143  22.924  12.603  0.0866  0.1732 -0.1998
 2096POSM   D2B24595  26.215  22.821  12.169 -0.4095 -0.2284 -0.0560
 2096POSM   C3B24596  26.396  22.895  11.744  0.1727  0.0281 -0.4241
 2096POSM   C4B24597  26.622  23.132  11.434 -0.1640 -0.0915  0.3569
 2097DOPS   CNO24598  20.748  29.554  13.562  0.0307 -0.0654  0.0117
 2097DOPS   PO424599  20.922  29.445  13.247 -0.0462 -0.0856  0.0431
 2097DOPS   GL124600  20.861  29.594  12.862 -0.0603 -0.1293  0.1260
 2097DOPS   GL224601  21.066  29.636  12.775  0.0528  0.0036 -0.0994
 2097DOPS   C1A24602  20.558  29.449  12.508  0.1132 -0.2217 -0.0819
 2097DOPS   D2A24603  20.603  29.183  12.080 -0.1815 -0.0678 -0.0440
 2097DOPS   C3A24604  20.425  29.152  11.690 -0.1928 -0.2483 -0.2610
 2097DOPS   C4A24605  20.090  29.308  11.446  0.2258  0.0142  0.1689
 2097DOPS   C1B24606  20.838  29.828  12.386 -0.0513  0.1033 -0.2468
 2097DOPS   D2B24607  20.621  29.711  12.019  0.1656 -0.1437 -0.1030
 2097DOPS   C3B24608  20.844  29.572  11.602 -0.0597  0.0978  0.0391
 2097DOPS   C4B24609  20.986  29.365  11.209  0.3982  0.0635 -0.0390
 2098DOPS   CNO24610  11.650  26.487  14.407 -0.1464  0.0235 -0.0826
 2098DOPS   PO424611  11.286  26.592  14.412  0.0554 -0.0376  0.0855
 2098DOPS   GL124612  11.101  26.493  14.097  0.0983 -0.2240  0.2641
 2098DOPS   GL224613  10.856  26.381  14.012  0.1412  0.0679 -0.0104
 2098DOPS   C1A24614  11.329  26.294  13.756  0.1475  0.1201 -0.1031
 2098DOPS   D2A24615  11.245  25.917  13.504 -0.1459  0.2201  0.1663
 2098DOPS   C3A24616  11.323  25.788  13.105  0.1151  0.1634 -0.1609
 2098DOPS   C4A24617  11.105  25.811  12.710  0.0498  0.0210 -0.0176
 2098DOPS   C1B24618  10.872  26.267  13.573 -0.1017  0.2002  0.1405
 2098DOPS   D2B24619  10.996  26.303  13.151  0.2369  0.0283  0.0426
 2098DOPS   C3B24620  10.933  26.306  12.739  0.1529 -0.0511  0.1988
 2098DOPS   C4B24621  11.094  26.461  12.323 -0.0756 -0.1814  0.2152
 2099DOPE   NH324622  14.915  27.452  13.690 -0.1345 -0.1541  0.0501
 2099DOPE   PO424623  14.648  27.580  13.653 -0.0294  0.1964  0.0224
 2099DOPE   GL124624  14.542  27.400  13.368 -0.0570 -0.0686 -0.0516
 2099DOPE   GL224625  14.773  27.292  13.253  0.1340  0.0000  0.1431
 2099DOPE   C1A24626  14.043  27.333  13.298  0.1013  0.0865 -0.0243
 2099DOPE   D2A24627  13.615  27.473  13.217 -0.0614  0.2374  0.1921
 2099DOPE   C3A24628  13.429  27.549  12.788  0.0795 -0.1227 -0.0848
 2099DOPE   C4A24629  13.635  27.533  12.354  0.0010  0.0077 -0.0588
 2099DOPE   C1B24630  14.479  27.377  12.876 -0.0633  0.2459 -0.1273
 2099DOPE   D2B24631  14.038  27.430  12.671  0.0291 -0.0094  0.0202
 2099DOPE   C3B24632  14.161  27.638  12.307  0.1813 -0.1325  0.1887
 2099DOPE   C4B24633  14.413  27.984  12.160  0.1084 -0.0038 -0.0702
 2100DOPE   NH324634  17.543  23.813  13.019 -0.0233 -0.1531  0.0004
 2100DOPE   PO424635  17.813  23.942  13.082  0.1170  0.2385 -0.0975
 2100DOPE   GL124636  17.743  23.977  12.634  0.3870  0.2752 -0.2853
 2100DOPE   GL224637  17.699  23.651  12.554 -0.1220  0.0771  0.1288
 2100DOPE   C1A24638  17.773  24.318  12.300 -0.0684  0.0771 -0.2112
 2100DOPE   D2A24639  17.527  24.370  11.879  0.1513  0.2421  0.0505
 2100DOPE   C3A24640  17.307  24.145  11.540 -0.1583 -0.1604 -0.1240
 2100DOPE   C4A24641  16.946  24.133  11.323  0.3353 -0.2902 -0.2349
 2100DOPE   C1B24642  17.822  23.821  12.134  0.0936  0.0565 -0.0863
 2100DOPE   D2B24643  17.767  23.862  11.674 -0.4709 -0.2596 -0.0855
 2100DOPE   C3B24644  17.520  23.640  11.368  0.1500  0.3963  0.1009
 2100DOPE   C4B24645  17.061  23.680  11.199 -0.0474  0.2860 -0.0716
 2101DOPE   NH324646  16.839  34.319  14.021  0.1815 -0.2881 -0.0178
 2101DOPE   PO424647  16.892  34.000  13.961 -0.0038  0.1052  0.2062
 2101DOPE   GL124648  16.833  34.054  13.616 -0.1429  0.2458 -0.0253
 2101DOPE   GL224649  16.562  34.225  13.596  0.4325  0.0529  0.1214
 2101DOPE   C1A24650  16.903  33.776  13.238  0.2581  0.1923 -0.1439
 2101DOPE   D2A24651  16.892  33.608  12.815  0.1154  0.1263  0.2190
 2101DOPE   C3A24652  17.023  33.517  12.384  0.0326  0.1540 -0.1309
 2101DOPE   C4A24653  17.134  33.130  12.093 -0.1353  0.0540  0.1721
 2101DOPE   C1B24654  16.602  34.208  13.145  0.1497  0.1205  0.0580
 2101DOPE   D2B24655  16.914  34.112  12.780  0.1052  0.2415  0.0014
 2101DOPE   C3B24656  16.999  34.318  12.376  0.2444 -0.2480 -0.0045
 2101DOPE   C4B24657  16.976  34.711  12.077  0.1769  0.0604  0.1531
 2102DOPC   NC324658  19.429  29.977  13.303 -0.0636  0.0507  0.0719
 2102DOPC   PO424659  19.555  30.278  13.066  0.0714 -0.0452 -0.0829
 2102DOPC   GL124660  19.700  30.288  12.788 -0.1802 -0.3349  0.0350
 2102DOPC   GL224661  19.461  30.450  12.584  0.2258  0.2696  0.1119
 2102DOPC   C1A24662  19.898  30.194  12.418  0.0612 -0.1817 -0.1615
 2102DOPC   D2A24663  19.693  30.149  12.006 -0.2372 -0.0153 -0.2722
 2102DOPC   C3A24664  19.919  29.935  11.647  0.0565 -0.1281 -0.0915
 2102DOPC   C4A24665  20.305  29.716  11.644 -0.0880 -0.0535  0.1159
 2102DOPC   C1B24666  19.384  30.087  12.375 -0.0584 -0.1104  0.1258
 2102DOPC   D2B24667  19.405  29.722  12.128 -0.1793 -0.1490 -0.1069
 2102DOPC   C3B24668  18.990  29.743  11.830 -0.0435 -0.0102 -0.1637
 2102DOPC   C4B24669  18.571  29.970  11.722 -0.0544 -0.1262 -0.0118
 2103DOPC   NC324670  22.924  28.723  13.021  0.0281 -0.0839  0.1508
 2103DOPC   PO424671  22.879  28.398  13.265  0.0078 -0.1897 -0.1347
 2103DOPC   GL124672  23.227  28.273  13.029 -0.1146 -0.0177 -0.1303
 2103DOPC   GL224673  23.381  28.541  12.959 -0.3222  0.0650  0.2876
 2103DOPC   C1A24674  23.199  28.266  12.573  0.1228 -0.2185 -0.0182
 2103DOPC   D2A24675  23.203  28.036  12.151 -0.0091 -0.3290  0.1470
 2103DOPC   C3A24676  23.312  28.233  11.722 -0.3955 -0.0684 -0.2296
 2103DOPC   C4A24677  23.467  27.973  11.396 -0.2322  0.3655  0.0850
 2103DOPC   C1B24678  23.649  28.798  12.617  0.3549  0.0022  0.3349
 2103DOPC   D2B24679  23.887  29.131  12.290  0.1430 -0.1279  0.1366
 2103DOPC   C3B24680  23.790  29.152  11.826  0.0184  0.1915  0.1026
 2103DOPC   C4B24681  23.752  28.781  11.511 -0.1053  0.0189  0.4028
 2104POSM   NC324682  13.856  31.349  13.799 -0.0903 -0.1650 -0.1107
 2104POSM   PO424683  14.162  31.192  13.960 -0.1393  0.0739 -0.2352
 2104POSM   AM124684  14.232  31.194  13.608 -0.1502  0.0061 -0.0068
 2104POSM   AM224685  14.134  31.112  13.357  0.1367 -0.2586  0.3602
 2104POSM   T1A24686  14.325  31.521  13.210  0.1058  0.1309 -0.3102
 2104POSM   C2A24687  14.560  31.621  12.915  0.3492 -0.2224  0.1211
 2104POSM   C3A24688  14.843  31.975  12.857 -0.1869 -0.2532 -0.1088
 2104POSM   C1B24689  14.112  30.876  13.162 -0.1299 -0.0319  0.3220
 2104POSM   D2B24690  14.353  30.529  13.024  0.3109  0.0214 -0.1070
 2104POSM   C3B24691  14.564  30.430  12.572 -0.1239 -0.1194  0.2011
 2104POSM   C4B24692  14.557  30.708  12.228  0.1088  0.0406 -0.2769
 2105POSM   NC324693  13.052  31.684  14.456 -0.0360 -0.0844  0.2391
 2105POSM   PO424694  12.868  31.433  14.167 -0.1489 -0.0877  0.1209
 2105POSM   AM124695  12.927  31.693  13.981 -0.1136 -0.0330  0.0045
 2105POSM   AM224696  12.938  31.965  13.997 -0.1160  0.0268  0.1587
 2105POSM   T1A24697  13.067  31.720  13.470  0.0752  0.1183 -0.0639
 2105POSM   C2A24698  12.864  31.681  13.041 -0.0255  0.0026 -0.2118
 2105POSM   C3A24699  12.817  31.674  12.592 -0.2794 -0.0172  0.1055
 2105POSM   C1B24700  12.741  32.121  13.773  0.3470  0.0808  0.0061
 2105POSM   D2B24701  12.528  32.513  13.684  0.0038  0.0311  0.0721
 2105POSM   C3B24702  12.631  32.663  13.317  0.0586  0.0597  0.0557
 2105POSM   C4B24703  12.894  32.863  12.987  0.0843 -0.0565 -0.0343
 2106DOPE   NH324704  13.945  23.912  13.811  0.0229 -0.2102  0.3677
 2106DOPE   PO424705  13.701  24.072  13.751 -0.3755  0.0940 -0.1946
 2106DOPE   GL124706  13.521  24.003  13.460 -0.2894 -0.2647 -0.1478
 2106DOPE   GL224707  13.783  23.993  13.266  0.3465  0.1624  0.0383
 2106DOPE   C1A24708  13.302  24.241  13.062 -0.0595  0.3357 -0.0649
 2106DOPE   D2A24709  13.298  24.630  12.795 -0.0456 -0.0612  0.2168
 2106DOPE   C3A24710  12.993  24.994  12.780 -0.0567 -0.0286 -0.0768
 2106DOPE   C4A24711  12.680  25.261  12.651 -0.1291 -0.0364  0.3454
 2106DOPE   C1B24712  13.817  24.211  12.885  0.2606 -0.0618 -0.0106
 2106DOPE   D2B24713  13.968  24.403  12.493 -0.2805  0.1257  0.2105
 2106DOPE   C3B24714  14.070  24.463  12.091 -0.1718  0.4686  0.2213
 2106DOPE   C4B24715  14.396  24.516  11.728  0.1015  0.0456 -0.2562
 2107DOPE   NH324716  14.680  27.912  14.075 -0.0867  0.1457  0.0510
 2107DOPE   PO424717  14.958  27.936  13.915 -0.3019 -0.2393  0.0021
 2107DOPE   GL124718  15.000  27.857  13.505 -0.2700 -0.2013  0.1494
 2107DOPE   GL224719  14.749  28.029  13.328 -0.0604  0.0557  0.0665
 2107DOPE   C1A24720  15.178  27.574  13.205  0.1639 -0.3178 -0.1937
 2107DOPE   D2A24721  15.114  27.206  12.920  0.2347  0.1694 -0.1618
 2107DOPE   C3A24722  15.097  27.217  12.455 -0.2298 -0.1778  0.1797
 2107DOPE   C4A24723  14.940  27.250  11.987 -0.1345 -0.2406 -0.0483
 2107DOPE   C1B24724  14.833  27.771  12.893 -0.2307 -0.0835  0.3011
 2107DOPE   D2B24725  15.250  27.729  12.786  0.0114 -0.4023 -0.1187
 2107DOPE   C3B24726  15.517  27.478  12.535 -0.0849  0.0798 -0.1815
 2107DOPE   C4B24727  15.564  27.486  12.112  0.2867 -0.0126  0.1442
 2108DOPE   NH324728  15.615   0.403  14.327 -0.2364 -0.0774 -0.0421
 2108DOPE   PO424729  15.843   0.627  14.279  0.0331 -0.0839 -0.0759
 2108DOPE   GL124730  15.722   0.808  13.945  0.0333 -0.1924  0.1273
 2108DOPE   GL224731  16.011   0.839  13.890 -0.0673  0.2091  0.2010
 2108DOPE   C1A24732  15.438   1.036  13.669 -0.2867 -0.0687 -0.2789
 2108DOPE   D2A24733  15.444   1.228  13.232  0.0234 -0.3172 -0.0174
 2108DOPE   C3A24734  15.233   1.581  13.096  0.0189 -0.5161 -0.2270
 2108DOPE   C4A24735  15.108   1.954  12.898 -0.0323 -0.1046  0.1802
 2108DOPE   C1B24736  16.206   0.629  13.447 -0.0513 -0.3965  0.2048
 2108DOPE   D2B24737  16.421   0.434  13.105 -0.2146 -0.1748 -0.0993
 2108DOPE   C3B24738  16.594   0.673  12.742  0.1362 -0.1031  0.0765
 2108DOPE   C4B24739  16.389   0.964  12.440 -0.0465 -0.0765 -0.1289
 2109DOPC   NC324740  10.737  23.770  14.043  0.1434  0.1026  0.2370
 2109DOPC   PO424741  10.613  24.134  14.008  0.1344 -0.2331 -0.0657
 2109DOPC   GL124742  10.539  24.205  13.650 -0.1741  0.0734  0.1950
 2109DOPC   GL224743  10.506  23.880  13.574  0.0693 -0.0767 -0.0494
 2109DOPC   C1A24744  10.758  24.426  13.293 -0.1554 -0.0836  0.4247
 2109DOPC   D2A24745  11.126  24.538  13.060 -0.0856 -0.2662  0.1439
 2109DOPC   C3A24746  11.285  24.401  12.633 -0.0217 -0.0709 -0.2284
 2109DOPC   C4A24747  11.544  24.658  12.342 -0.1705 -0.1582 -0.1590
 2109DOPC   C1B24748  10.574  23.968  13.142  0.1192  0.0898 -0.1806
 2109DOPC   D2B24749  10.736  24.196  12.851 -0.2923 -0.0114 -0.0810
 2109DOPC   C3B24750  10.986  24.053  12.455  0.0621 -0.0830 -0.1722
 2109DOPC   C4B24751  11.264  24.063  12.083  0.0296 -0.1957 -0.3261
 2110DOPC   NC324752  13.276  29.430  13.916 -0.1642  0.3904  0.0075
 2110DOPC   PO424753  12.999  29.153  14.060  0.0266 -0.0038 -0.2572
 2110DOPC   GL124754  13.002  29.140  13.694 -0.0702 -0.2380  0.0512
 2110DOPC   GL224755  13.184  28.931  13.674 -0.1016  0.0825  0.1363
 2110DOPC   C1A24756  13.137  29.408  13.358  0.2526 -0.0794 -0.0176
 2110DOPC   D2A24757  13.356  29.491  12.941 -0.1392  0.2023  0.0235
 2110DOPC   C3A24758  13.630  29.182  12.707 -0.1077  0.1321  0.0144
 2110DOPC   C4A24759  13.934  29.084  12.372 -0.3171  0.1412  0.0005
 2110DOPC   C1B24760  13.298  28.818  13.235 -0.0725  0.1199  0.4176
 2110DOPC   D2B24761  13.269  28.729  12.783  0.2189 -0.3102 -0.1186
 2110DOPC   C3B24762  12.922  28.671  12.478 -0.3957  0.2437 -0.1640
 2110DOPC   C4B24763  12.683  28.761  12.130 -0.1974  0.0463  0.2159
 2111POSM   NC324764  15.864  25.800  13.361 -0.0061 -0.1417 -0.2789
 2111POSM   PO424765  16.210  25.605  13.376  0.0301 -0.2111  0.2647
 2111POSM   AM124766  16.253  25.758  13.080 -0.0611 -0.2659 -0.2942
 2111POSM   AM224767  16.373  25.991  12.984 -0.2039 -0.1744 -0.1805
 2111POSM   T1A24768  16.131  25.709  12.613 -0.2124  0.0075 -0.0915
 2111POSM   C2A24769  15.923  25.951  12.277  0.0045 -0.3147  0.2904
 2111POSM   C3A24770  15.595  26.012  11.910 -0.0295  0.2290 -0.2095
 2111POSM   C1B24771  16.305  26.139  12.708 -0.1790  0.2755 -0.0687
 2111POSM   D2B24772  16.208  26.296  12.305 -0.1993 -0.2302  0.1758
 2111POSM   C3B24773  16.529  26.453  12.009 -0.3961  0.0268 -0.0930
 2111POSM   C4B24774  16.679  26.419  11.539  0.0618 -0.2988 -0.0769
 2112DOPC   NC324775  11.988  31.017  14.114  0.2314 -0.2408  0.0338
 2112DOPC   PO424776  12.305  30.863  14.227 -0.1378  0.1313  0.2236
 2112DOPC   GL124777  12.410  30.806  13.846  0.0966 -0.1086 -0.0208
 2112DOPC   GL224778  12.597  31.095  13.840  0.0426 -0.0612  0.0301
 2112DOPC   C1A24779  12.404  31.016  13.392  0.1479  0.1787 -0.4571
 2112DOPC   D2A24780  12.462  31.243  13.032  0.0699 -0.2225 -0.4090
 2112DOPC   C3A24781  12.618  31.133  12.613  0.2691  0.0332 -0.1763
 2112DOPC   C4A24782  12.470  30.803  12.371 -0.0117 -0.2217  0.0776
 2112DOPC   C1B24783  12.166  31.289  13.720 -0.0783 -0.1223  0.0803
 2112DOPC   D2B24784  11.943  31.275  13.372 -0.0473  0.4607 -0.2836
 2112DOPC   C3B24785  11.996  30.866  13.049 -0.0569  0.1806 -0.3086
 2112DOPC   C4B24786  12.286  30.596  12.862 -0.1490  0.0616 -0.3112
 2113DOPE   NH324787  20.413  25.058  13.386  0.2408 -0.0250  0.1530
 2113DOPE   PO424788  20.541  25.243  13.106 -0.0215 -0.0364 -0.2176
 2113DOPE   GL124789  20.525  25.383  12.748  0.0301 -0.0141  0.0713
 2113DOPE   GL224790  20.285  25.619  12.719 -0.2259  0.0268  0.3883
 2113DOPE   C1A24791  20.767  25.666  12.435 -0.0078  0.1213 -0.0320
 2113DOPE   D2A24792  21.254  25.609  12.335 -0.0056  0.2280  0.3874
 2113DOPE   C3A24793  21.319  25.231  12.085 -0.1940 -0.0780  0.0757
 2113DOPE   C4A24794  21.073  25.119  11.670 -0.2754  0.1267  0.0801
 2113DOPE   C1B24795  20.387  26.029  12.626 -0.1710  0.2022 -0.2770
 2113DOPE   D2B24796  20.313  26.340  12.297  0.2341  0.1297 -0.0372
 2113DOPE   C3B24797  20.473  26.325  11.859  0.1855 -0.3356  0.1133
 2113DOPE   C4B24798  20.746  26.133  11.555  0.2932  0.3613 -0.3830
 2114DOPC   NC324799  15.457  31.192  13.681  0.2858 -0.3137  0.2216
 2114DOPC   PO424800  15.569  30.823  13.837  0.1698 -0.0215  0.1026
 2114DOPC   GL124801  15.694  30.785  13.440 -0.0655  0.1722 -0.1714
 2114DOPC   GL224802  15.667  30.994  13.244  0.1936  0.2036  0.3890
 2114DOPC   C1A24803  15.997  30.483  13.373 -0.3950 -0.3812 -0.0395
 2114DOPC   D2A24804  16.133  30.169  13.085 -0.2266 -0.2058 -0.1212
 2114DOPC   C3A24805  16.307  30.022  12.643 -0.2085  0.3829  0.1430
 2114DOPC   C4A24806  16.108  29.786  12.318 -0.4059 -0.0555  0.0934
 2114DOPC   C1B24807  15.688  31.127  12.761  0.4316  0.0199  0.0010
 2114DOPC   D2B24808  15.608  30.984  12.351  0.1974 -0.3020  0.1202
 2114DOPC   C3B24809  15.884  30.987  12.012 -0.2099  0.0910  0.2791
 2114DOPC   C4B24810  15.767  31.267  11.640  0.1669 -0.1977  0.1370
 2115DOPE   NH324811  12.751  33.358  14.822  0.2178 -0.4119 -0.3422
 2115DOPE   PO424812  12.644  33.631  14.723  0.0546  0.0998 -0.0697
 2115DOPE   GL124813  12.774  33.873  14.430  0.0366  0.1192  0.0438
 2115DOPE   GL224814  12.700  33.747  14.208 -0.2311  0.1086  0.4219
 2115DOPE   C1A24815  12.597  34.202  14.148  0.1458 -0.1374 -0.2295
 2115DOPE   D2A24816  12.547  33.996  13.772 -0.2932  0.0173 -0.1496
 2115DOPE   C3A24817  12.708  33.998  13.329  0.0500 -0.0835  0.1381
 2115DOPE   C4A24818  12.656  34.097  12.894 -0.2125  0.0426  0.1897
 2115DOPE   C1B24819  12.630  33.418  13.824 -0.0716 -0.0138 -0.0121
 2115DOPE   D2B24820  12.485  33.554  13.440 -0.1736  0.5260 -0.2329
 2115DOPE   C3B24821  12.564  33.597  13.018 -0.4738 -0.1196 -0.3479
 2115DOPE   C4B24822  12.754  33.401  12.645  0.0607 -0.1502  0.0900
 2116DOPE   NH324823  20.330  25.650  13.280  0.0236 -0.1859  0.1160
 2116DOPE   PO424824  20.219  25.812  13.541 -0.3248  0.0333  0.2443
 2116DOPE   GL124825  19.985  25.869  13.182  0.2618 -0.3302 -0.2756
 2116DOPE   GL224826  20.125  26.064  13.026 -0.0490  0.1236  0.0676
 2116DOPE   C1A24827  19.632  26.115  12.981 -0.3480  0.0528 -0.0060
 2116DOPE   D2A24828  19.396  26.361  12.637  0.1743 -0.2642 -0.3599
 2116DOPE   C3A24829  19.218  26.306  12.272  0.2521 -0.3164 -0.0445
 2116DOPE   C4A24830  18.881  25.981  12.362 -0.2391 -0.0846  0.0369
 2116DOPE   C1B24831  20.319  26.472  12.776  0.1296 -0.3553 -0.0277
 2116DOPE   D2B24832  20.459  26.775  12.466 -0.4185 -0.1033 -0.1764
 2116DOPE   C3B24833  20.284  26.751  12.039  0.3311 -0.3669  0.0028
 2116DOPE   C4B24834  20.040  26.560  11.691 -0.5163  0.2041 -0.0530
 2117DOPC   NC324835  13.278  25.846  13.762 -0.0339 -0.0924  0.0193
 2117DOPC   PO424836  13.661  25.939  13.635 -0.0204  0.1047  0.1883
 2117DOPC   GL124837  13.363  26.105  13.331  0.1013  0.3269  0.1481
 2117DOPC   GL224838  13.194  25.900  13.252  0.0687  0.2280  0.1206
 2117DOPC   C1A24839  13.320  26.251  12.895  0.1503 -0.2503  0.0729
 2117DOPC   D2A24840  13.122  26.270  12.452 -0.0286  0.0852 -0.1191
 2117DOPC   C3A24841  13.266  26.008  12.112  0.0028 -0.0580  0.1475
 2117DOPC   C4A24842  13.452  25.638  11.933 -0.0591  0.2762  0.0836
 2117DOPC   C1B24843  12.854  26.058  12.930  0.0664 -0.0205  0.0194
 2117DOPC   D2B24844  12.662  26.204  12.598 -0.0026  0.1243  0.1747
 2117DOPC   C3B24845  12.273  25.978  12.404 -0.0225  0.0611 -0.0080
 2117DOPC   C4B24846  11.969  25.655  12.331  0.3181 -0.1105 -0.0012
 2118DOPC   NC324847  17.003  29.960  13.960  0.1472 -0.1806  0.2243
 2118DOPC   PO424848  16.703  29.952  13.694  0.1209  0.2849  0.0691
 2118DOPC   GL124849  16.557  29.925  13.378 -0.1958 -0.2001  0.4148
 2118DOPC   GL224850  16.583  29.629  13.324 -0.1368 -0.0417 -0.0251
 2118DOPC   C1A24851  16.714  30.155  13.008 -0.2020  0.1667  0.3268
 2118DOPC   D2A24852  16.895  30.261  12.545 -0.2222  0.2183  0.1220
 2118DOPC   C3A24853  16.716  29.925  12.255 -0.1102  0.1309  0.0048
 2118DOPC   C4A24854  16.491  29.622  12.017  0.3595  0.2300 -0.0212
 2118DOPC   C1B24855  16.257  29.644  12.985 -0.0277 -0.0464 -0.1369
 2118DOPC   D2B24856  15.925  29.444  12.666 -0.0618 -0.0730 -0.0938
 2118DOPC   C3B24857  16.000  29.305  12.198  0.1826  0.0025  0.0719
 2118DOPC   C4B24858  16.000  29.604  11.803  0.0630  0.0176  0.1298
 2119DOPC   NC324859  20.883  31.023  12.839 -0.0143  0.1280 -0.1194
 2119DOPC   PO424860  20.781  31.151  13.166  0.3378  0.1088  0.0610
 2119DOPC   GL124861  21.021  31.432  12.910  0.1405 -0.0958  0.1627
 2119DOPC   GL224862  20.786  31.547  12.787  0.2037  0.0728 -0.0150
 2119DOPC   C1A24863  21.152  31.339  12.455 -0.2876 -0.0898  0.1302
 2119DOPC   D2A24864  21.385  31.345  12.063 -0.1536 -0.0418 -0.2414
 2119DOPC   C3A24865  21.265  31.276  11.617 -0.3096 -0.1539  0.2332
 2119DOPC   C4A24866  21.465  31.271  11.134  0.0391 -0.0042 -0.2374
 2119DOPC   C1B24867  20.954  31.801  12.486 -0.2022  0.0434  0.0559
 2119DOPC   D2B24868  20.870  32.010  12.114  0.2794 -0.1217  0.0463
 2119DOPC   C3B24869  20.805  32.439  11.972  0.1833  0.2407 -0.0214
 2119DOPC   C4B24870  20.891  32.724  11.599  0.0720  0.2000  0.1249
 2120DOPC   NC324871  10.715  24.654  14.013 -0.2100 -0.0225  0.2184
 2120DOPC   PO424872  10.327  24.539  13.884 -0.0134 -0.2155  0.0890
 2120DOPC   GL124873  10.316  24.653  13.538 -0.2498  0.4592  0.3590
 2120DOPC   GL224874  10.006  24.668  13.514 -0.2609 -0.0636  0.3027
 2120DOPC   C1A24875  10.484  24.820  13.130 -0.3266 -0.3302  0.1280
 2120DOPC   D2A24876  10.433  24.833  12.699  0.3188 -0.0663  0.3106
 2120DOPC   C3A24877  10.308  24.479  12.512 -0.1459 -0.1332  0.0880
 2120DOPC   C4A24878  10.016  24.168  12.301  0.1311  0.3993 -0.1285
 2120DOPC   C1B24879  10.153  25.079  13.318  0.1746 -0.1911  0.0767
 2120DOPC   D2B24880  10.121  25.194  12.862 -0.0882  0.1141  0.0259
 2120DOPC   C3B24881  10.241  25.259  12.457 -0.0263  0.0742 -0.1178
 2120DOPC   C4B24882  10.358  25.469  12.047  0.0124 -0.2663 -0.0102
 2121DOPC   NC324883  15.828  26.449  13.474  0.1967 -0.0870  0.0694
 2121DOPC   PO424884  16.168  26.235  13.431 -0.1974 -0.0593 -0.2902
 2121DOPC   GL124885  16.466  26.420  13.197  0.2250  0.2613 -0.1301
 2121DOPC   GL224886  16.488  26.729  13.067  0.2572  0.1088 -0.2327
 2121DOPC   C1A24887  16.813  26.242  12.897 -0.0504 -0.1743  0.0118
 2121DOPC   D2A24888  17.205  26.098  12.762  0.0181 -0.3028 -0.0399
 2121DOPC   C3A24889  17.255  25.805  12.412 -0.0206  0.0072 -0.0006
 2121DOPC   C4A24890  17.297  25.356  12.214 -0.1899  0.0395 -0.1398
 2121DOPC   C1B24891  16.493  26.596  12.580  0.3239  0.1406  0.1171
 2121DOPC   D2B24892  16.738  26.260  12.416 -0.3474 -0.2485 -0.1646
 2121DOPC   C3B24893  16.470  25.869  12.245 -0.0035  0.0900 -0.0489
 2121DOPC   C4B24894  16.330  25.487  12.078 -0.0380 -0.0112  0.3127
 2122DOPE   NH324895  22.316  29.229  13.256 -0.0618  0.1109  0.0254
 2122DOPE   PO424896  22.451  28.989  13.109  0.0404  0.1551 -0.0281
 2122DOPE   GL124897  22.102  29.030  12.834 -0.3612 -0.2965  0.1698
 2122DOPE   GL224898  22.185  29.246  12.726 -0.0182  0.3153 -0.3002
 2122DOPE   C1A24899  21.906  28.754  12.517 -0.0434 -0.1055 -0.1199
 2122DOPE   D2A24900  22.044  28.541  12.099  0.0599  0.0053 -0.0050
 2122DOPE   C3A24901  22.261  28.201  11.879 -0.0422  0.1329 -0.3106
 2122DOPE   C4A24902  22.287  27.978  11.464 -0.2837 -0.0132  0.0662
 2122DOPE   C1B24903  22.281  29.088  12.247 -0.1879  0.0260 -0.0650
 2122DOPE   D2B24904  22.432  28.800  11.996  0.2422 -0.0397 -0.2843
 2122DOPE   C3B24905  22.287  28.606  11.619 -0.1488 -0.0853 -0.0566
 2122DOPE   C4B24906  22.132  28.413  11.235 -0.0261 -0.1947  0.1813
 2123DOPE   NH324907  21.776  30.230  12.996 -0.3278 -0.0014 -0.0275
 2123DOPE   PO424908  22.074  30.170  12.964 -0.0269  0.2091  0.1061
 2123DOPE   GL124909  22.248  30.184  12.652  0.2008  0.0638  0.0399
 2123DOPE   GL224910  22.038  30.384  12.535 -0.3546 -0.3041 -0.0670
 2123DOPE   C1A24911  22.445  30.353  12.237 -0.0191  0.0927 -0.1317
 2123DOPE   D2A24912  22.298  30.450  11.801  0.1373 -0.1974  0.1931
 2123DOPE   C3A24913  22.217  30.148  11.518 -0.0193  0.3229 -0.1678
 2123DOPE   C4A24914  22.438  30.140  11.137 -0.1835 -0.0071  0.2543
 2123DOPE   C1B24915  21.852  30.206  12.176 -0.0224  0.0680  0.2663
 2123DOPE   D2B24916  21.824  30.030  11.780 -0.2154 -0.2304 -0.2547
 2123DOPE   C3B24917  22.010  29.704  11.510  0.2178  0.0590 -0.0160
 2123DOPE   C4B24918  22.146  29.341  11.270 -0.0918  0.1825  0.4343
 2124POSM   NC324919  19.233  31.245  13.370 -0.2031 -0.0690  0.1974
 2124POSM   PO424920  18.962  30.942  13.403 -0.0076 -0.1521  0.1369
 2124POSM   AM124921  18.946  30.996  13.075  0.3884 -0.2975  0.1295
 2124POSM   AM224922  18.841  31.113  12.849  0.2264  0.1010 -0.1390
 2124POSM   T1A24923  18.992  30.722  12.632  0.0034 -0.0537  0.2098
 2124POSM   C2A24924  19.069  30.490  12.268 -0.1607 -0.4280  0.0880
 2124POSM   C3A24925  19.433  30.560  12.089  0.0463  0.3809  0.0259
 2124POSM   C1B24926  18.783  31.181  12.528 -0.1066 -0.1854 -0.0667
 2124POSM   D2B24927  18.632  31.053  12.096 -0.3298 -0.0169 -0.0731
 2124POSM   C3B24928  18.528  31.400  11.833  0.1664  0.1501  0.2376
 2124POSM   C4B24929  18.144  31.464  11.636 -0.0263  0.5117 -0.2325
 2125DOPC   NC324930  18.018  22.016  12.415 -0.1381  0.3142  0.0706
 2125DOPC   PO424931  17.658  21.950  12.590  0.2640  0.0669  0.3396
 2125DOPC   GL124932  17.529  21.940  12.189  0.0465  0.0410 -0.0826
 2125DOPC   GL224933  17.475  22.224  12.135  0.1127  0.0505 -0.0395
 2125DOPC   C1A24934  17.788  21.954  11.829 -0.1741  0.1051 -0.1493
 2125DOPC   D2A24935  17.707  21.998  11.368  0.0508 -0.2810  0.1093
 2125DOPC   C3A24936  17.975  21.741  11.102 -0.0598 -0.2554  0.1725
 2125DOPC   C4A24937  18.186  21.580  10.637  0.2378 -0.3319 -0.0535
 2125DOPC   C1B24938  17.334  22.160  11.705 -0.1382 -0.0720 -0.1097
 2125DOPC   D2B24939  17.079  22.111  11.319 -0.0296 -0.0401  0.2127
 2125DOPC   C3B24940  16.619  22.181  11.236  0.5225  0.6991  0.0872
 2125DOPC   C4B24941  16.261  22.226  10.940  0.0366  0.5468 -0.0434
 2126POSM   NC324942  15.273  24.750  14.040  0.1445 -0.0016 -0.0499
 2126POSM   PO424943  15.573  24.632  13.874  0.1144 -0.2930 -0.1143
 2126POSM   AM124944  15.565  24.624  13.511  0.1827  0.2138  0.0720
 2126POSM   AM224945  15.604  24.767  13.260  0.0826 -0.1513 -0.3377
 2126POSM   T1A24946  15.341  24.297  13.252  0.1989 -0.0287 -0.1722
 2126POSM   C2A24947  15.497  23.986  12.920  0.1055  0.1346 -0.0450
 2126POSM   C3A24948  15.344  23.739  12.547 -0.0027  0.3750 -0.0614
 2126POSM   C1B24949  15.531  24.739  12.945 -0.0766 -0.0124 -0.0061
 2126POSM   D2B24950  15.373  24.748  12.504 -0.0831  0.0750 -0.0042
 2126POSM   C3B24951  15.376  25.130  12.209  0.1733 -0.2856  0.2466
 2126POSM   C4B24952  15.375  25.413  11.901 -0.1592 -0.0137  0.0658
 2127POSM   NC324953  11.239  33.675  14.779 -0.4070 -0.2094 -0.3417
 2127POSM   PO424954  11.300  34.072  14.851 -0.0352 -0.0468 -0.1946
 2127POSM   AM124955  11.232  34.124  14.543  0.0862  0.0232 -0.3123
 2127POSM   AM224956  11.154  33.950  14.296 -0.0565  0.1988 -0.1339
 2127POSM   T1A24957  11.219  34.376  14.084 -0.0801  0.1862  0.2283
 2127POSM   C2A24958  11.315  34.491  13.643  0.0157 -0.3567 -0.1851
 2127POSM   C3A24959  11.554  34.844  13.412 -0.1593  0.2922 -0.1444
 2127POSM   C1B24960  11.182  33.871  13.984  0.0979 -0.1223 -0.0696
 2127POSM   D2B24961  11.338  33.718  13.575 -0.1432 -0.0097 -0.2282
 2127POSM   C3B24962  11.303  33.482  13.244  0.2306  0.0384 -0.1946
 2127POSM   C4B24963  11.548  33.222  12.985  0.1579  0.0721 -0.1196
 2128DOPS   CNO24964  20.612  30.294  13.048  0.0755  0.3175  0.3635
 2128DOPS   PO424965  20.680  29.925  13.171  0.3005  0.0971  0.0240
 2128DOPS   GL124966  20.502  29.827  12.732  0.1415  0.0452 -0.0898
 2128DOPS   GL224967  20.182  29.723  12.787  0.1726 -0.3912 -0.5580
 2128DOPS   C1A24968  20.458  30.146  12.406  0.0222  0.0992 -0.3270
 2128DOPS   D2A24969  20.252  30.197  12.002  0.1172 -0.0891  0.3542
 2128DOPS   C3A24970  20.512  30.159  11.586 -0.1063 -0.2586  0.1099
 2128DOPS   C4A24971  20.550  30.047  11.139  0.1594 -0.0753  0.1860
 2128DOPS   C1B24972  20.213  29.748  12.343 -0.0969  0.3328  0.0227
 2128DOPS   D2B24973  20.140  29.447  11.969 -0.2154 -0.3509  0.0842
 2128DOPS   C3B24974  19.745  29.470  11.775 -0.2608  0.0105  0.0130
 2128DOPS   C4B24975  19.327  29.232  11.820  0.0246 -0.3571 -0.3467
 2129DOPC   NC324976  17.659  32.836  13.585 -0.0605 -0.4567  0.3824
 2129DOPC   PO424977  17.870  33.114  13.751 -0.0264  0.0478  0.0479
 2129DOPC   GL124978  17.691  33.279  13.414  0.1416 -0.0466 -0.5147
 2129DOPC   GL224979  17.814  33.493  13.351 -0.2459 -0.1582  0.1258
 2129DOPC   C1A24980  17.510  33.216  12.997 -0.1081  0.3735 -0.1374
 2129DOPC   D2A24981  17.453  33.359  12.611 -0.0415  0.0693 -0.0601
 2129DOPC   C3A24982  17.691  33.287  12.194  0.2506 -0.2207  0.3406
 2129DOPC   C4A24983  17.604  33.372  11.693 -0.1190 -0.0939 -0.3761
 2129DOPC   C1B24984  17.414  33.653  13.230  0.2210  0.3888  0.2590
 2129DOPC   D2B24985  17.316  33.770  12.829 -0.0757  0.0760 -0.1513
 2129DOPC   C3B24986  17.382  33.989  12.480  0.1248 -0.0627  0.0434
 2129DOPC   C4B24987  17.315  34.176  12.006 -0.4057  0.1147 -0.0828
 2130DOPE   NH324988  15.823  31.351  14.343  0.0966  0.2144  0.4519
 2130DOPE   PO424989  15.919  31.159  14.144 -0.0235 -0.2213  0.0368
 2130DOPE   GL124990  15.963  31.098  13.724  0.1636  0.1262  0.2766
 2130DOPE   GL224991  15.951  31.411  13.554  0.2547 -0.2427  0.0972
 2130DOPE   C1A24992  16.174  30.911  13.304 -0.0065 -0.1983 -0.0966
 2130DOPE   D2A24993  16.371  31.007  12.921 -0.3104 -0.1095 -0.0519
 2130DOPE   C3A24994  16.135  30.978  12.513 -0.3730 -0.1658 -0.0842
 2130DOPE   C4A24995  16.042  30.584  12.278 -0.2492  0.2328 -0.1955
 2130DOPE   C1B24996  16.142  31.417  13.145  0.1547  0.0433  0.2472
 2130DOPE   D2B24997  16.192  31.457  12.713  0.0003  0.0279 -0.2133
 2130DOPE   C3B24998  15.930  31.413  12.313  0.4126  0.0348 -0.1582
 2130DOPE   C4B24999  15.524  31.515  12.093  0.0840 -0.1354  0.0927
 2131DOPE   NH325000  16.546  25.466  13.683 -0.2751  0.2819  0.1482
 2131DOPE   PO425001  16.626  25.242  13.497  0.3499  0.0835 -0.1963
 2131DOPE   GL125002  16.554  25.365  13.110  0.0057  0.2828  0.2902
 2131DOPE   GL225003  16.703  25.572  13.031  0.1200 -0.0501 -0.5380
 2131DOPE   C1A25004  16.423  25.301  12.669  0.1458  0.1404 -0.2272
 2131DOPE   D2A25005  16.589  25.071  12.277  0.1277  0.1031 -0.1482
 2131DOPE   C3A25006  16.210  24.987  12.001 -0.1319 -0.2681  0.0631
 2131DOPE   C4A25007  16.133  24.875  11.587  0.1292 -0.0854  0.2458
 2131DOPE   C1B25008  16.753  25.694  12.576  0.1651  0.4788 -0.0479
 2131DOPE   D2B25009  16.847  25.576  12.115  0.0112  0.0731  0.1773
 2131DOPE   C3B25010  16.915  25.986  12.052 -0.1152  0.4253  0.1892
 2131DOPE   C4B25011  17.201  26.229  12.209 -0.1406  0.2298 -0.0831
 2132DOPC   NC325012  16.774  24.767  13.591  0.0935 -0.0010 -0.2067
 2132DOPC   PO425013  16.425  24.684  13.619  0.1148 -0.3002 -0.0328
 2132DOPC   GL125014  16.598  24.584  13.246  0.3353 -0.2305 -0.2795
 2132DOPC   GL225015  16.483  24.830  13.142 -0.3159 -0.1464  0.0950
 2132DOPC   C1A25016  16.449  24.330  12.896  0.0406 -0.1793  0.2793
 2132DOPC   D2A25017  16.286  24.078  12.547  0.0568  0.2227 -0.1475
 2132DOPC   C3A25018  16.185  24.263  12.078 -0.0337  0.2443  0.0923
 2132DOPC   C4A25019  16.057  24.174  11.680  0.2342  0.3537 -0.2828
 2132DOPC   C1B25020  16.632  24.750  12.707 -0.3013  0.2480  0.0423
 2132DOPC   D2B25021  16.586  24.511  12.254  0.2828 -0.1424 -0.1023
 2132DOPC   C3B25022  16.543  24.645  11.834 -0.0110 -0.2927  0.2339
 2132DOPC   C4B25023  16.590  24.517  11.416 -0.1712 -0.1197 -0.1711
 2133POSM   NC325024  18.779  33.047  13.689 -0.0380  0.0433  0.1326
 2133POSM   PO425025  18.485  33.335  13.726 -0.0355  0.2340  0.0718
 2133POSM   AM125026  18.318  33.241  13.451  0.3462 -0.0196  0.2985
 2133POSM   AM225027  18.362  32.964  13.305 -0.1629  0.1620 -0.0537
 2133POSM   T1A25028  18.066  33.246  13.015  0.0969  0.0420 -0.1538
 2133POSM   C2A25029  18.052  33.352  12.575  0.0252  0.0661 -0.0221
 2133POSM   C3A25030  18.047  32.993  12.262 -0.0186  0.2333 -0.2961
 2133POSM   C1B25031  18.186  32.724  13.087  0.0527 -0.1885 -0.0586
 2133POSM   D2B25032  17.993  32.749  12.684  0.0477  0.2652  0.1657
 2133POSM   C3B25033  17.713  32.461  12.694  0.0785  0.0511 -0.1779
 2133POSM   C4B25034  17.549  32.062  12.856 -0.0023  0.0515  0.2035
 2134POSM   NC325035  13.988  30.391  13.987  0.3448 -0.2084 -0.0527
 2134POSM   PO425036  13.617  30.398  13.947 -0.1294  0.0673 -0.0903
 2134POSM   AM125037  13.517  30.667  13.772 -0.1255  0.0762  0.0106
 2134POSM   AM225038  13.271  30.797  13.629 -0.1906  0.3035 -0.1282
 2134POSM   T1A25039  13.645  30.915  13.359  0.2703  0.0978  0.0922
 2134POSM   C2A25040  13.653  31.074  12.929  0.1821  0.0221  0.3620
 2134POSM   C3A25041  13.716  31.069  12.405  0.0112 -0.1391  0.0386
 2134POSM   C1B25042  13.130  30.871  13.363 -0.1125  0.2791  0.0155
 2134POSM   D2B25043  12.798  30.779  13.066 -0.3327 -0.2288  0.0402
 2134POSM   C3B25044  12.851  30.671  12.647 -0.1515 -0.1055 -0.2067
 2134POSM   C4B25045  12.875  30.410  12.300 -0.2401  0.2104  0.1578
 2135DOPC   NC325046  19.437   0.714  14.084  0.1292 -0.0018 -0.1056
 2135DOPC   PO425047  19.609   0.322  14.040  0.1011 -0.1140 -0.0708
 2135DOPC   GL125048  19.569   0.409  13.697  0.1826 -0.1271  0.0771
 2135DOPC   GL225049  19.557   0.644  13.560 -0.0358  0.0427  0.1544
 2135DOPC   C1A25050  19.536   0.145  13.328  0.1703  0.0861  0.2420
 2135DOPC   D2A25051  19.535   0.101  12.803 -0.0918  0.0785 -0.1409
 2135DOPC   C3A25052  19.627   0.081  12.351  0.0023 -0.2101 -0.1751
 2135DOPC   C4A25053  19.713   0.222  11.972 -0.2484  0.3110  0.0923
 2135DOPC   C1B25054  19.349   0.599  13.123 -0.1950  0.0591 -0.1355
 2135DOPC   D2B25055  19.303   0.533  12.686  0.1368  0.0528 -0.1980
 2135DOPC   C3B25056  19.174   0.905  12.413  0.3212 -0.1141 -0.2927
 2135DOPC   C4B25057  19.072   1.253  12.120  0.0584 -0.0957  0.1852
 2136DOPS   CNO25058  16.866  30.782  14.191  0.0140 -0.2510  0.2854
 2136DOPS   PO425059  16.784  30.941  13.838  0.1543 -0.2548 -0.3154
 2136DOPS   GL125060  16.752  30.932  13.448 -0.1505 -0.5765  0.1630
 2136DOPS   GL225061  16.988  31.182  13.492  0.2241  0.1068  0.1031
 2136DOPS   C1A25062  16.724  30.672  13.047 -0.1899 -0.1423 -0.1757
 2136DOPS   D2A25063  16.426  30.579  12.709 -0.0177  0.0063  0.0578
 2136DOPS   C3A25064  16.463  30.346  12.309 -0.1248  0.0246  0.0145
 2136DOPS   C4A25065  16.357  30.092  11.917  0.1358 -0.2783 -0.0315
 2136DOPS   C1B25066  17.053  31.099  13.027  0.0065 -0.0608  0.0240
 2136DOPS   D2B25067  17.286  31.069  12.587 -0.0478  0.1677 -0.0602
 2136DOPS   C3B25068  17.304  30.865  12.207 -0.1893 -0.0973  0.1610
 2136DOPS   C4B25069  17.500  30.528  11.896  0.2123 -0.1926 -0.2488
 2137DOPE   NH325070  23.563  28.915  13.493 -0.0192  0.0026  0.0293
 2137DOPE   PO425071  23.274  28.974  13.323 -0.1334 -0.0233 -0.1364
 2137DOPE   GL125072  23.346  28.985  12.967 -0.2019 -0.1654  0.1420
 2137DOPE   GL225073  23.217  29.260  12.934 -0.0844  0.4464 -0.3310
 2137DOPE   C1A25074  23.135  28.847  12.539 -0.0390  0.0256 -0.2834
 2137DOPE   D2A25075  23.281  28.624  12.180 -0.1177  0.0746  0.1656
 2137DOPE   C3A25076  23.319  28.830  11.751  0.2281  0.0738 -0.0003
 2137DOPE   C4A25077  23.282  28.986  11.291 -0.0102 -0.3038  0.3440
 2137DOPE   C1B25078  23.433  29.233  12.562  0.3378  0.2362 -0.0845
 2137DOPE   D2B25079  23.287  29.129  12.150  0.0500 -0.2496 -0.2465
 2137DOPE   C3B25080  23.313  29.374  11.783  0.2613  0.1905  0.2400
 2137DOPE   C4B25081  23.167  29.506  11.412 -0.1989 -0.4699 -0.5670
 2138DOPS   CNO25082  16.798   0.050  14.645 -0.1900  0.0126  0.0705
 2138DOPS   PO425083  16.693  -0.012  14.270 -0.1758  0.0681 -0.2682
 2138DOPS   GL125084  16.781   0.051  13.867 -0.2466 -0.0988  0.1048
 2138DOPS   GL225085  16.596  -0.041  13.645 -0.2071 -0.0380  0.3427
 2138DOPS   C1A25086  16.658   0.418  13.551  0.1995 -0.2515  0.0672
 2138DOPS   D2A25087  16.740   0.835  13.296 -0.1092 -0.0369 -0.0220
 2138DOPS   C3A25088  17.138   1.023  13.156 -0.0395  0.1327  0.0356
 2138DOPS   C4A25089  17.388   1.229  12.793  0.3694  0.3679 -0.1102
 2138DOPS   C1B25090  16.384  -0.097  13.239  0.3093  0.0459  0.0573
 2138DOPS   D2B25091  16.345   0.037  12.786 -0.1974  0.0251  0.3638
 2138DOPS   C3B25092  15.951   0.343  12.789  0.2414  0.1929  0.0614
 2138DOPS   C4B25093  15.581   0.431  13.051  0.1112 -0.3751 -0.0463
 2139DOPS   CNO25094  14.789  25.116  13.615 -0.0044  0.0067 -0.0686
 2139DOPS   PO425095  15.016  25.447  13.530 -0.0761  0.0040 -0.2876
 2139DOPS   GL125096  15.230  25.227  13.256 -0.1276  0.1048 -0.2871
 2139DOPS   GL225097  15.109  25.046  13.149  0.0918 -0.2420  0.1567
 2139DOPS   C1A25098  15.359  25.190  12.761 -0.2238 -0.1459 -0.0230
 2139DOPS   D2A25099  15.804  25.081  12.641  0.0474 -0.0016 -0.1086
 2139DOPS   C3A25100  15.865  25.373  12.267 -0.0346 -0.0803 -0.1918
 2139DOPS   C4A25101  15.948  25.642  11.857 -0.0191 -0.1125 -0.0711
 2139DOPS   C1B25102  14.960  24.932  12.749 -0.0728 -0.0366  0.0012
 2139DOPS   D2B25103  14.930  24.925  12.276 -0.0724 -0.0096 -0.0125
 2139DOPS   C3B25104  15.049  24.873  11.798  0.0347 -0.0093 -0.0123
 2139DOPS   C4B25105  15.179  24.634  11.450  0.3828  0.1202 -0.1571
 2140POSM   NC325106  15.687  30.350  13.915  0.1301 -0.1984 -0.0941
 2140POSM   PO425107  15.403  30.057  13.972 -0.2440  0.0056  0.1470
 2140POSM   AM125108  15.281  30.186  13.691  0.2636  0.1433  0.2867
 2140POSM   AM225109  15.328  30.421  13.577 -0.1313 -0.1549  0.0666
 2140POSM   T1A25110  15.050  30.125  13.185 -0.0872 -0.1152  0.1524
 2140POSM   C2A25111  15.029  30.193  12.688  0.0589  0.0499 -0.0175
 2140POSM   C3A25112  15.120  30.071  12.282  0.2003  0.3376  0.3028
 2140POSM   C1B25113  15.235  30.556  13.302  0.0402 -0.1059 -0.2270
 2140POSM   D2B25114  15.322  30.777  12.909 -0.0265 -0.2945 -0.0715
 2140POSM   C3B25115  15.534  30.522  12.508  0.0012 -0.1254  0.0126
 2140POSM   C4B25116  15.856  30.190  12.445  0.0976 -0.3172 -0.0777
 2141POSM   NC325117  20.823  27.769  13.557 -0.0080 -0.1766  0.2300
 2141POSM   PO425118  21.225  27.662  13.451  0.1395 -0.3344 -0.0577
 2141POSM   AM125119  21.148  27.741  13.137 -0.1384 -0.0465 -0.2058
 2141POSM   AM225120  21.171  27.543  12.941 -0.1581  0.1902 -0.1369
 2141POSM   T1A25121  21.261  27.961  12.733  0.1452 -0.0967 -0.0009
 2141POSM   C2A25122  21.238  28.039  12.252  0.2468 -0.1208 -0.1860
 2141POSM   C3A25123  21.228  28.006  11.751 -0.0291 -0.0755  0.0880
 2141POSM   C1B25124  21.375  27.478  12.684  0.1165 -0.0442 -0.1136
 2141POSM   D2B25125  21.760  27.464  12.415  0.1522  0.0927 -0.1940
 2141POSM   C3B25126  21.584  27.633  11.995  0.1388  0.0177 -0.4822
 2141POSM   C4B25127  21.312  27.440  11.684 -0.0566 -0.2530  0.2472
 2142DOPC   NC325128  16.766  27.400  13.439 -0.2417 -0.1045  0.1850
 2142DOPC   PO425129  16.488  27.131  13.434 -0.0281  0.0200  0.2802
 2142DOPC   GL125130  16.258  27.096  13.158 -0.0405  0.1400  0.0678
 2142DOPC   GL225131  16.021  27.223  13.115  0.0224 -0.0079 -0.0318
 2142DOPC   C1A25132  16.334  27.211  12.724  0.1534  0.2254 -0.4221
 2142DOPC   D2A25133  16.539  27.561  12.568 -0.2895  0.1846  0.2238
 2142DOPC   C3A25134  16.764  27.614  12.096  0.0525  0.0152 -0.3203
 2142DOPC   C4A25135  16.750  27.667  11.647  0.0415 -0.3379  0.0141
 2142DOPC   C1B25136  15.685  27.077  12.780  0.1632  0.3252 -0.2917
 2142DOPC   D2B25137  15.713  27.012  12.295 -0.3310  0.0017  0.1095
 2142DOPC   C3B25138  15.731  26.610  12.157  0.1908 -0.0391 -0.0880
 2142DOPC   C4B25139  15.579  26.544  11.772 -0.1200 -0.1066  0.0848
 2143POSM   NC325140  16.809  33.190  13.854 -0.1950 -0.0201  0.2201
 2143POSM   PO425141  16.455  33.156  13.983 -0.2331 -0.1223  0.0226
 2143POSM   AM125142  16.304  33.280  13.729 -0.4381  0.2293  0.3139
 2143POSM   AM225143  16.417  33.311  13.462  0.1430 -0.0870  0.0077
 2143POSM   T1A25144  16.031  33.654  13.544  0.0945  0.1112  0.0688
 2143POSM   C2A25145  15.935  33.881  13.173  0.0659 -0.0260 -0.1351
 2143POSM   C3A25146  15.667  34.002  12.833  0.0649 -0.1255  0.0214
 2143POSM   C1B25147  16.443  33.550  13.211  0.2922  0.0602 -0.1178
 2143POSM   D2B25148  16.404  33.854  12.903  0.3457 -0.0312 -0.1990
 2143POSM   C3B25149  16.550  33.819  12.484 -0.1079  0.0136 -0.3393
 2143POSM   C4B25150  16.372  33.843  12.069  0.0793 -0.0396  0.0185
 2144DOPC   NC325151  20.961  30.107  12.804 -0.0354  0.0154 -0.0591
 2144DOPC   PO425152  21.343  30.064  12.717 -0.1796 -0.2280 -0.2051
 2144DOPC   GL125153  21.287  29.928  12.289  0.2959 -0.1119 -0.0974
 2144DOPC   GL225154  21.260  30.188  12.236  0.0730 -0.2181 -0.1104
 2144DOPC   C1A25155  21.367  29.728  11.843 -0.1151  0.3052  0.2206
 2144DOPC   D2A25156  21.390  29.595  11.393 -0.0765  0.3870  0.3973
 2144DOPC   C3A25157  21.682  29.288  11.482 -0.0511  0.0082 -0.2103
 2144DOPC   C4A25158  22.005  29.037  11.680  0.0550 -0.4057 -0.0067
 2144DOPC   C1B25159  21.398  30.523  11.959 -0.0485 -0.3766 -0.1633
 2144DOPC   D2B25160  21.501  30.910  11.851  0.2043 -0.3224 -0.1055
 2144DOPC   C3B25161  21.782  31.161  11.553 -0.1065  0.3255 -0.0795
 2144DOPC   C4B25162  21.988  30.978  11.208  0.2621 -0.0636  0.1142
 2145POSM   NC325163  20.082  27.776  13.501 -0.2822  0.0684 -0.0889
 2145POSM   PO425164  20.359  28.032  13.648  0.0010  0.0042 -0.0122
 2145POSM   AM125165  20.500  28.030  13.364  0.1310  0.2033 -0.0612
 2145POSM   AM225166  20.650  28.185  13.212 -0.1176 -0.1473 -0.1266
 2145POSM   T1A25167  20.681  27.781  12.922  0.3934 -0.1801  0.1839
 2145POSM   C2A25168  20.785  27.365  12.698 -0.2345 -0.2336  0.2300
 2145POSM   C3A25169  20.977  27.021  12.459  0.1862 -0.0193 -0.0062
 2145POSM   C1B25170  20.677  28.306  12.928  0.0051 -0.1041  0.0949
 2145POSM   D2B25171  20.802  28.227  12.529 -0.1079 -0.1493 -0.0584
 2145POSM   C3B25172  20.669  28.136  12.082 -0.0191  0.0930 -0.0312
 2145POSM   C4B25173  20.447  28.051  11.658  0.0437  0.0549 -0.0334
 2146POSM   NC325174  18.369  22.870  12.971  0.1299 -0.0985 -0.1750
 2146POSM   PO425175  18.272  22.506  12.808  0.0955  0.0962 -0.1747
 2146POSM   AM125176  18.284  22.558  12.486 -0.4086 -0.1063 -0.1307
 2146POSM   AM225177  18.453  22.553  12.240 -0.0118 -0.2828 -0.3243
 2146POSM   T1A25178  17.971  22.645  12.112  0.1142 -0.0948 -0.0895
 2146POSM   C2A25179  17.564  22.665  11.890  0.1685  0.0062  0.0976
 2146POSM   C3A25180  17.214  22.621  11.566  0.2049 -0.1061 -0.1500
 2146POSM   C1B25181  18.347  22.318  12.011 -0.1697  0.0319 -0.1588
 2146POSM   D2B25182  18.327  21.840  12.036  0.1360  0.1978  0.1892
 2146POSM   C3B25183  18.257  21.729  11.595 -0.1013 -0.0466 -0.3028
 2146POSM   C4B25184  18.197  21.382  11.335 -0.1752 -0.0742  0.0327
 2147DOPC   NC325185  13.024  27.401  14.282 -0.2867 -0.2966  0.0259
 2147DOPC   PO425186  13.118  27.299  13.949 -0.1114 -0.4458  0.0269
 2147DOPC   GL125187  13.223  27.354  13.590 -0.2500  0.3669 -0.1902
 2147DOPC   GL225188  13.521  27.104  13.530  0.0601  0.1396  0.0951
 2147DOPC   C1A25189  13.176  27.698  13.308  0.0489 -0.2164  0.2180
 2147DOPC   D2A25190  13.268  28.049  13.078  0.1330  0.0800  0.2173
 2147DOPC   C3A25191  12.967  28.239  12.727  0.3505  0.1184  0.3546
 2147DOPC   C4A25192  12.763  28.197  12.335  0.3093  0.0057  0.2329
 2147DOPC   C1B25193  13.236  27.213  13.198 -0.2275 -0.1394  0.4936
 2147DOPC   D2B25194  13.076  27.135  12.754 -0.0268  0.0892  0.0553
 2147DOPC   C3B25195  13.030  27.527  12.523 -0.0397 -0.0695 -0.1134
 2147DOPC   C4B25196  13.264  27.920  12.470 -0.2646 -0.0238 -0.0161
 2148DOPE   NH325197  12.035  27.360  14.087 -0.1998  0.2581  0.0239
 2148DOPE   PO425198  12.234  27.378  13.861  0.1175 -0.1561 -0.2818
 2148DOPE   GL125199  12.175  27.547  13.522  0.0226  0.0930 -0.1470
 2148DOPE   GL225200  12.273  27.839  13.459 -0.2821 -0.2755 -0.0042
 2148DOPE   C1A25201  11.923  27.661  13.110  0.2131  0.2481  0.2770
 2148DOPE   D2A25202  11.502  27.704  12.913 -0.0186 -0.2887  0.4737
 2148DOPE   C3A25203  11.248  27.354  12.657 -0.1411  0.1742  0.0783
 2148DOPE   C4A25204  10.972  27.258  12.331 -0.4964  0.1537  0.0990
 2148DOPE   C1B25205  12.235  28.016  13.028  0.0386  0.1489 -0.0206
 2148DOPE   D2B25206  12.353  28.103  12.584 -0.0003 -0.0269 -0.1231
 2148DOPE   C3B25207  12.324  28.518  12.392  0.1960  0.1613  0.1006
 2148DOPE   C4B25208  12.244  28.600  11.896  0.0667  0.1168 -0.0250
 2149DOPC   NC325209  15.847  28.624  13.675 -0.0926  0.1720 -0.0685
 2149DOPC   PO425210  15.604  28.311  13.639 -0.1671 -0.1263  0.0179
 2149DOPC   GL125211  15.410  28.060  13.516 -0.1631 -0.0131  0.4357
 2149DOPC   GL225212  15.541  27.875  13.272 -0.1445  0.1645 -0.1765
 2149DOPC   C1A25213  15.174  28.135  13.103 -0.1044 -0.1101  0.1633
 2149DOPC   D2A25214  14.992  28.510  12.865  0.2478 -0.1006 -0.1691
 2149DOPC   C3A25215  14.991  28.655  12.449  0.1233 -0.0680  0.0223
 2149DOPC   C4A25216  15.147  28.676  11.979  0.0106 -0.0428  0.3184
 2149DOPC   C1B25217  15.713  27.586  12.969 -0.1148 -0.2639  0.0968
 2149DOPC   D2B25218  16.066  27.637  12.707  0.0159 -0.0842  0.1137
 2149DOPC   C3B25219  16.071  27.339  12.316  0.3007 -0.0880  0.0544
 2149DOPC   C4B25220  15.926  27.267  11.892 -0.1970  0.0112  0.1857
 2150POSM   NC325221  20.269  33.146  13.453 -0.1606 -0.2838 -0.0091
 2150POSM   PO425222  20.652  33.256  13.415 -0.3301  0.1204 -0.2013
 2150POSM   AM125223  20.645  33.398  13.126 -0.2981  0.2470  0.0846
 2150POSM   AM225224  20.775  33.492  12.834  0.1507 -0.0251 -0.1435
 2150POSM   T1A25225  20.345  33.252  12.764 -0.1186 -0.1916 -0.3323
 2150POSM   C2A25226  20.302  33.240  12.294  0.1220 -0.1869  0.1846
 2150POSM   C3A25227  20.101  33.443  11.900  0.0383 -0.1599 -0.0136
 2150POSM   C1B25228  20.669  33.518  12.470 -0.2039 -0.0742  0.0438
 2150POSM   D2B25229  20.465  33.728  12.140 -0.0013  0.0889  0.0104
 2150POSM   C3B25230  20.708  33.818  11.742  0.0462  0.0649  0.0722
 2150POSM   C4B25231  20.761  33.643  11.302  0.1730  0.2711 -0.1395
 2151POSM   NC325232  13.510  32.021  14.306  0.0998  0.4166 -0.1197
 2151POSM   PO425233  13.366  32.194  13.967 -0.0393 -0.2625 -0.1513
 2151POSM   AM125234  13.342  32.004  13.685 -0.3315  0.1087  0.0332
 2151POSM   AM225235  13.524  31.751  13.635 -0.1122 -0.0254 -0.0805
 2151POSM   T1A25236  13.362  32.007  13.184  0.1770 -0.2344  0.3323
 2151POSM   C2A25237  13.128  32.061  12.735 -0.1295 -0.0449  0.2154
 2151POSM   C3A25238  12.943  32.053  12.288  0.1635  0.1161  0.0240
 2151POSM   C1B25239  13.693  31.670  13.346  0.4426  0.0205  0.2817
 2151POSM   D2B25240  13.794  31.589  12.855 -0.1016  0.2032  0.2400
 2151POSM   C3B25241  14.104  31.189  12.760  0.3724 -0.0918  0.1907
 2151POSM   C4B25242  14.150  30.787  12.544 -0.1759  0.1582 -0.2847
 2152POSM   NC325243  11.691  31.284  14.871 -0.0513 -0.0610  0.1785
 2152POSM   PO425244  11.833  31.482  14.551 -0.1216  0.2101 -0.3629
 2152POSM   AM125245  11.904  31.444  14.272 -0.2860  0.0780  0.3277
 2152POSM   AM225246  11.969  31.624  14.047  0.0180 -0.0780  0.1766
 2152POSM   T1A25247  11.691  31.317  13.808 -0.2366  0.0813  0.0337
 2152POSM   C2A25248  11.269  31.399  13.738  0.1998 -0.0513  0.0042
 2152POSM   C3A25249  10.970  31.324  13.431  0.2797 -0.0503  0.4652
 2152POSM   C1B25250  11.951  31.707  13.690 -0.0911 -0.2538 -0.2280
 2152POSM   D2B25251  11.885  31.799  13.283  0.1138 -0.2092  0.0096
 2152POSM   C3B25252  11.980  31.512  12.927  0.0453 -0.0649  0.2155
 2152POSM   C4B25253  12.314  31.628  12.583  0.3629 -0.2950  0.1703
 2153POSM   NC325254  14.213  34.651  14.727  0.0368 -0.3369  0.1566
 2153POSM   PO425255  14.432  34.962  14.763 -0.3227  0.0145 -0.0372
 2153POSM   AM125256  14.337  34.975  14.468  0.2349  0.2919 -0.2438
 2153POSM   AM225257  14.434  34.800  14.250  0.3135 -0.1014 -0.0270
 2153POSM   T1A25258  14.217  35.228  14.026 -0.0466  0.2226  0.2954
 2153POSM   C2A25259  14.346  35.595  13.809 -0.0887  0.3391  0.2022
 2153POSM   C3A25260  14.490  35.995  13.613  0.2490  0.1963 -0.2961
 2153POSM   C1B25261  14.203  34.694  14.055 -0.0663  0.0887 -0.0466
 2153POSM   D2B25262  13.957  34.674  13.720 -0.0936  0.0512  0.0478
 2153POSM   C3B25263  14.054  34.771  13.257  0.1263 -0.1455 -0.4358
 2153POSM   C4B25264  13.951  34.889  12.798  0.0190 -0.1215 -0.1735
 2154DOPC   NC325265  23.496  27.641  13.108 -0.0574  0.0361  0.1604
 2154DOPC   PO425266  23.286  27.886  13.358  0.1184 -0.0060 -0.1388
 2154DOPC   GL125267  23.011  27.860  12.997 -0.1950 -0.3585  0.2233
 2154DOPC   GL225268  22.817  28.059  12.806 -0.1462 -0.1439  0.2650
 2154DOPC   C1A25269  23.130  27.788  12.559 -0.1351 -0.0321  0.0782
 2154DOPC   D2A25270  23.587  27.790  12.408 -0.1778 -0.1018 -0.4212
 2154DOPC   C3A25271  23.647  28.214  12.244 -0.1356  0.1493  0.0884
 2154DOPC   C4A25272  23.735  28.518  11.948 -0.3532 -0.2534 -0.0135
 2154DOPC   C1B25273  22.688  27.915  12.387 -0.0276 -0.2310 -0.2157
 2154DOPC   D2B25274  22.760  27.961  11.944  0.0840 -0.1347  0.2425
 2154DOPC   C3B25275  23.143  27.745  11.686  0.1846 -0.1262 -0.0374
 2154DOPC   C4B25276  23.301  27.440  11.313 -0.0090 -0.0763 -0.0064
 2155POSM   NC325277  24.709  28.002  13.582 -0.3209 -0.0281 -0.1083
 2155POSM   PO425278  24.842  28.321  13.338 -0.1227  0.0349 -0.5098
 2155POSM   AM125279  24.666  28.254  13.052 -0.2189 -0.4556  0.0149
 2155POSM   AM225280  24.755  28.300  12.798 -0.3081  0.0644  0.1939
 2155POSM   T1A25281  24.317  28.189  12.692 -0.4282  0.2033  0.1412
 2155POSM   C2A25282  24.036  27.934  12.404 -0.1461 -0.2831 -0.0205
 2155POSM   C3A25283  24.127  27.643  12.049  0.0450 -0.0986 -0.1478
 2155POSM   C1B25284  24.915  28.129  12.512  0.1330 -0.1384  0.5949
 2155POSM   D2B25285  25.001  27.836  12.162 -0.3471 -0.0736 -0.0010
 2155POSM   C3B25286  24.788  27.906  11.775  0.0405  0.2733  0.1582
 2155POSM   C4B25287  24.347  27.986  11.590  0.0013 -0.0029  0.1996
 2156DOPS   CNO25288  16.458  28.063  13.530 -0.0877  0.0306 -0.2823
 2156DOPS   PO425289  16.110  28.227  13.643  0.0881  0.4612  0.1718
 2156DOPS   GL125290  16.079  28.378  13.263 -0.0938  0.4553  0.2752
 2156DOPS   GL225291  15.800  28.297  13.127 -0.1402 -0.2063  0.0566
 2156DOPS   C1A25292  16.090  28.228  12.794  0.3004 -0.1967 -0.0126
 2156DOPS   D2A25293  15.918  27.955  12.420  0.3628  0.0601 -0.1313
 2156DOPS   C3A25294  15.542  27.992  12.098 -0.2891  0.1382  0.0551
 2156DOPS   C4A25295  15.308  27.955  11.738 -0.0576 -0.0791  0.1161
 2156DOPS   C1B25296  15.604  28.094  12.781 -0.1304  0.0435  0.0876
 2156DOPS   D2B25297  15.285  28.193  12.462  0.1963 -0.0370 -0.0083
 2156DOPS   C3B25298  15.087  27.837  12.274 -0.1576  0.0170 -0.0779
 2156DOPS   C4B25299  14.801  27.802  11.940 -0.1255  0.0790  0.0566
 2157DOPS   CNO25300  10.634  30.766  14.785 -0.1483 -0.2661  0.0571
 2157DOPS   PO425301  10.334  30.533  14.683 -0.0041  0.1536 -0.1342
 2157DOPS   GL125302  10.257  30.370  14.362  0.3414 -0.2502 -0.0749
 2157DOPS   GL225303  10.479  30.486  14.206  0.3603  0.0910 -0.0495
 2157DOPS   C1A25304  10.050  30.393  13.940 -0.1734  0.1277 -0.1563
 2157DOPS   D2A25305   9.872  30.259  13.550  0.0839 -0.1608  0.1300
 2157DOPS   C3A25306  10.127  30.375  13.114  0.1718 -0.1196 -0.0804
 2157DOPS   C4A25307  10.166  30.624  12.717  0.2975  0.0363  0.3105
 2157DOPS   C1B25308  10.629  30.425  13.798  0.1025 -0.1153  0.1674
 2157DOPS   D2B25309  10.595  30.444  13.329  0.0852  0.0721  0.0165
 2157DOPS   C3B25310  10.649  30.414  12.866  0.0417 -0.0754  0.0694
 2157DOPS   C4B25311  10.437  30.275  12.466  0.2945  0.1771  0.1087
 2158DOPS   CNO25312  18.276  31.110  13.776  0.0109 -0.0234  0.2388
 2158DOPS   PO425313  18.453  30.834  13.632 -0.1136 -0.1195 -0.1235
 2158DOPS   GL125314  18.481  30.845  13.216 -0.2693  0.2163 -0.1566
 2158DOPS   GL225315  18.373  30.962  12.941 -0.1546  0.3217 -0.1130
 2158DOPS   C1A25316  18.618  30.491  12.929  0.2150  0.4493  0.0267
 2158DOPS   D2A25317  18.666  30.348  12.498 -0.1147  0.1395  0.1059
 2158DOPS   C3A25318  18.926  29.988  12.296 -0.1992 -0.3168  0.0126
 2158DOPS   C4A25319  18.883  29.509  12.303 -0.0803 -0.0465 -0.0139
 2158DOPS   C1B25320  18.337  30.865  12.501 -0.1102  0.5136 -0.1469
 2158DOPS   D2B25321  18.362  30.698  12.135  0.0862  0.0617 -0.2065
 2158DOPS   C3B25322  18.318  30.205  12.031  0.0994  0.2026 -0.1674
 2158DOPS   C4B25323  18.088  29.928  11.772 -0.1367 -0.3905 -0.1544
 2159POSM   NC325324  17.385  25.209  13.218  0.2728 -0.2094 -0.1939
 2159POSM   PO425325  17.777  25.187  13.313 -0.3290  0.0172  0.2057
 2159POSM   AM125326  17.858  25.391  13.020 -0.4352 -0.4868 -0.1583
 2159POSM   AM225327  18.016  25.610  12.946  0.1213  0.3355  0.0808
 2159POSM   T1A25328  18.182  25.256  12.674 -0.0990  0.3282 -0.1320
 2159POSM   C2A25329  18.347  25.408  12.225  0.1334 -0.0261  0.1249
 2159POSM   C3A25330  18.559  25.512  11.825 -0.2314  0.0403  0.3125
 2159POSM   C1B25331  17.982  25.758  12.650  0.0993  0.0514  0.1312
 2159POSM   D2B25332  17.876  25.740  12.221 -0.1992 -0.1437  0.1275
 2159POSM   C3B25333  18.128  25.956  11.867 -0.0011 -0.0337 -0.2489
 2159POSM   C4B25334  18.335  25.776  11.462  0.1864  0.0308  0.1076
 2160DOPE   NH325335  19.659   1.576  13.593 -0.2312 -0.3201  0.4439
 2160DOPE   PO425336  19.327   1.602  13.645 -0.0736 -0.2506 -0.0874
 2160DOPE   GL125337  19.044   1.783  13.383  0.3154 -0.0497 -0.0216
 2160DOPE   GL225338  18.913   1.660  13.193  0.2310  0.2284  0.1945
 2160DOPE   C1A25339  19.118   2.102  13.104  0.3444 -0.2472 -0.0639
 2160DOPE   D2A25340  19.517   2.131  12.886  0.1194 -0.0661  0.1041
 2160DOPE   C3A25341  19.645   2.205  12.494  0.0820 -0.0949  0.2699
 2160DOPE   C4A25342  19.412   2.139  12.097 -0.1785  0.0067  0.0468
 2160DOPE   C1B25343  18.908   1.768  12.762  0.1629 -0.0345  0.1568
 2160DOPE   D2B25344  18.770   1.546  12.378 -0.1119  0.2217  0.0175
 2160DOPE   C3B25345  18.611   1.388  12.034  0.1661 -0.1829 -0.0583
 2160DOPE   C4B25346  18.324   0.964  11.975 -0.0741 -0.0107  0.4998
 2161POSM   NC325347  13.491  22.591  13.311  0.1781 -0.0296 -0.1717
 2161POSM   PO425348  13.204  22.766  13.471  0.1173 -0.0500  0.0758
 2161POSM   AM125349  13.084  22.717  13.148  0.1458 -0.0046 -0.1354
 2161POSM   AM225350  12.814  22.789  13.040 -0.1541 -0.2772  0.0566
 2161POSM   T1A25351  13.277  22.856  12.700 -0.0018 -0.4592  0.0290
 2161POSM   C2A25352  13.158  23.081  12.272 -0.0537 -0.2265 -0.1006
 2161POSM   C3A25353  13.248  23.397  11.901  0.0300 -0.5327  0.2579
 2161POSM   C1B25354  12.843  22.617  12.747  0.0446 -0.0737  0.1787
 2161POSM   D2B25355  13.091  22.324  12.408 -0.2742 -0.0468 -0.0804
 2161POSM   C3B25356  12.970  22.298  11.971 -0.0941 -0.0353 -0.1409
 2161POSM   C4B25357  13.174  22.104  11.596  0.4694  0.2319  0.0969
 2162DOPS   CNO25358  21.294  30.378  13.117 -0.0663  0.0260  0.0824
 2162DOPS   PO425359  20.999  30.604  13.022  0.1560 -0.1437  0.0132
 2162DOPS   GL125360  21.193  30.505  12.720 -0.1591 -0.1086  0.3672
 2162DOPS   GL225361  21.183  30.790  12.541  0.2268 -0.0595  0.2737
 2162DOPS   C1A25362  20.885  30.417  12.358 -0.1453 -0.0874 -0.1424
 2162DOPS   D2A25363  20.759  30.170  12.040 -0.0368 -0.0917 -0.2365
 2162DOPS   C3A25364  21.094  30.175  11.776 -0.0424 -0.0032  0.0365
 2162DOPS   C4A25365  21.471  30.132  11.473 -0.0783 -0.1430 -0.1137
 2162DOPS   C1B25366  21.064  30.930  12.137 -0.2888  0.1049  0.3795
 2162DOPS   D2B25367  20.665  31.048  11.952  0.4542  0.1127  0.2874
 2162DOPS   C3B25368  20.582  30.949  11.509  0.2223  0.1936  0.1521
 2162DOPS   C4B25369  20.530  30.553  11.264 -0.1185 -0.1253 -0.0276
 2163POSM   NC325370  22.346  25.426  13.246 -0.0299  0.2337 -0.1848
 2163POSM   PO425371  22.070  25.250  13.039 -0.2178 -0.3776  0.0065
 2163POSM   AM125372  22.077  25.151  12.727 -0.0540 -0.3838 -0.1105
 2163POSM   AM225373  22.142  25.358  12.517 -0.1807  0.2545  0.1110
 2163POSM   T1A25374  22.211  24.796  12.464  0.0734  0.0818 -0.0602
 2163POSM   C2A25375  21.948  24.508  12.182  0.1229 -0.1325 -0.0201
 2163POSM   C3A25376  21.795  24.465  11.719  0.1202 -0.2436  0.0477
 2163POSM   C1B25377  22.042  25.406  12.225  0.1817  0.0809  0.0040
 2163POSM   D2B25378  21.988  25.313  11.799 -0.1383  0.0047  0.0375
 2163POSM   C3B25379  22.064  24.884  11.781 -0.4868  0.2984 -0.1083
 2163POSM   C4B25380  22.241  24.623  11.445  0.2865 -0.2316 -0.2273
 2164POSM   NC325381  18.045  24.302  13.368 -0.2038  0.0599  0.3312
 2164POSM   PO425382  18.272  24.420  13.098  0.2305 -0.2333 -0.2120
 2164POSM   AM125383  18.215  24.499  12.762 -0.4417 -0.1822 -0.2492
 2164POSM   AM225384  18.408  24.458  12.528  0.1742 -0.1052  0.0357
 2164POSM   T1A25385  17.986  24.752  12.406  0.3190  0.4650  0.2048
 2164POSM   C2A25386  18.141  24.959  12.035  0.1275 -0.0537 -0.1160
 2164POSM   C3A25387  18.205  25.167  11.615  0.1312  0.1193 -0.1394
 2164POSM   C1B25388  18.246  24.302  12.235 -0.2214 -0.3500 -0.0492
 2164POSM   D2B25389  18.137  24.247  11.801 -0.3580  0.0852  0.1297
 2164POSM   C3B25390  18.313  24.606  11.567  0.1804  0.2545 -0.0279
 2164POSM   C4B25391  18.408  24.960  11.198 -0.1648  0.1537  0.0429
 2165POSM   NC325392  12.200  31.780  14.447  0.0155  0.0626 -0.0714
 2165POSM   PO425393  12.593  31.832  14.324  0.0407  0.3483  0.1050
 2165POSM   AM125394  12.454  31.766  14.067  0.1309  0.1411 -0.1670
 2165POSM   AM225395  12.514  31.636  13.842 -0.2050 -0.0587 -0.3696
 2165POSM   T1A25396  12.268  32.054  13.646 -0.0310  0.3293 -0.0930
 2165POSM   C2A25397  12.172  32.295  13.266  0.2178 -0.0785 -0.0512
 2165POSM   C3A25398  12.166  32.432  12.847  0.2492  0.0832 -0.2140
 2165POSM   C1B25399  12.503  31.644  13.471 -0.0480 -0.0032  0.0490
 2165POSM   D2B25400  12.379  31.848  13.092 -0.0237  0.0803 -0.2114
 2165POSM   C3B25401  12.599  32.159  12.792  0.1405 -0.0314 -0.0372
 2165POSM   C4B25402  12.790  32.455  12.522  0.1007  0.1325 -0.1640
 2166DOPE   NH325403  22.531  31.645  12.668 -0.0883 -0.2993 -0.1830
 2166DOPE   PO425404  22.315  31.853  12.790  0.1162  0.0661 -0.1901
 2166DOPE   GL125405  22.146  31.783  12.462 -0.2473 -0.1936 -0.5843
 2166DOPE   GL225406  21.886  31.923  12.528  0.0306 -0.1209 -0.3961
 2166DOPE   C1A25407  22.334  31.837  12.004 -0.0645 -0.0081 -0.0710
 2166DOPE   D2A25408  22.712  31.969  11.710  0.0342  0.1812  0.0858
 2166DOPE   C3A25409  22.613  31.868  11.302  0.1377  0.0595 -0.0147
 2166DOPE   C4A25410  22.688  31.730  10.845 -0.1597 -0.2580  0.0313
 2166DOPE   C1B25411  21.874  31.977  12.099  0.1402 -0.0481  0.0207
 2166DOPE   D2B25412  22.002  32.216  11.706  0.1445  0.2150  0.0951
 2166DOPE   C3B25413  22.049  32.041  11.226  0.1843  0.0333 -0.0345
 2166DOPE   C4B25414  22.132  31.813  10.817 -0.0099 -0.0014  0.3112
 2167DOPE   NH325415  12.826  30.064  14.019 -0.0927  0.0314 -0.2971
 2167DOPE   PO425416  12.992  29.794  14.011 -0.1481 -0.0369  0.0656
 2167DOPE   GL125417  12.924  29.850  13.571 -0.3908  0.0696 -0.1361
 2167DOPE   GL225418  12.753  30.042  13.507 -0.2326  0.0173  0.0618
 2167DOPE   C1A25419  12.950  29.801  13.098 -0.2375 -0.2870 -0.0938
 2167DOPE   D2A25420  12.938  29.954  12.637  0.0273  0.0083  0.1660
 2167DOPE   C3A25421  13.177  29.619  12.487  0.1345 -0.0809 -0.3638
 2167DOPE   C4A25422  13.269  29.452  12.095 -0.2148 -0.1345 -0.2210
 2167DOPE   C1B25423  12.460  29.936  13.175 -0.0576  0.1792 -0.0284
 2167DOPE   D2B25424  12.170  29.877  12.843  0.2249  0.1160  0.1636
 2167DOPE   C3B25425  11.728  29.761  12.706 -0.4009  0.0211 -0.0977
 2167DOPE   C4B25426  11.307  29.751  12.548  0.1219 -0.0485  0.2557
 2168DOPS   CNO25427  21.971  23.508  13.614 -0.1823 -0.1212  0.2239
 2168DOPS   PO425428  22.248  23.679  13.410  0.0478 -0.1075  0.0546
 2168DOPS   GL125429  22.209  23.978  13.223  0.0287  0.4167 -0.2002
 2168DOPS   GL225430  22.103  23.907  12.963  0.1806 -0.2055  0.2889
 2168DOPS   C1A25431  22.436  24.264  12.883  0.1301 -0.0203  0.1054
 2168DOPS   D2A25432  22.554  24.461  12.457 -0.1223 -0.5061 -0.1395
 2168DOPS   C3A25433  22.416  24.532  12.036 -0.0794 -0.2424 -0.2825
 2168DOPS   C4A25434  22.205  24.212  11.795  0.1601  0.0098  0.1825
 2168DOPS   C1B25435  22.451  23.830  12.701 -0.2283 -0.0124 -0.4554
 2168DOPS   D2B25436  22.779  23.850  12.436  0.0369  0.1991 -0.1120
 2168DOPS   C3B25437  23.237  23.791  12.314  0.1072 -0.0375 -0.1861
 2168DOPS   C4B25438  23.637  23.998  12.226 -0.0819 -0.1904 -0.1336
 2169DOPS   CNO25439  14.419  28.968  14.026 -0.0195 -0.2049  0.1942
 2169DOPS   PO425440  14.636  29.222  13.773  0.0473  0.1699 -0.0062
 2169DOPS   GL125441  14.537  29.366  13.439 -0.2781 -0.1938  0.0709
 2169DOPS   GL225442  14.299  29.140  13.367  0.1301  0.3445  0.3451
 2169DOPS   C1A25443  14.527  29.443  12.956  0.3952  0.1461 -0.0414
 2169DOPS   D2A25444  14.542  29.345  12.514  0.0817 -0.0362 -0.0343
 2169DOPS   C3A25445  14.159  29.555  12.470 -0.2716  0.0180  0.1230
 2169DOPS   C4A25446  13.772  29.563  12.199  0.1143  0.2122  0.1810
 2169DOPS   C1B25447  14.512  28.939  13.087 -0.2604  0.1204 -0.0202
 2169DOPS   D2B25448  14.487  28.864  12.619 -0.2495 -0.6261  0.4217
 2169DOPS   C3B25449  14.485  28.563  12.258 -0.1508  0.2511  0.4664
 2169DOPS   C4B25450  14.478  28.413  11.840  0.2474 -0.1411 -0.2458
 2170DOPE   NH325451  18.505  31.307  13.274  0.1165 -0.0600 -0.1115
 2170DOPE   PO425452  18.781  31.398  13.275  0.0028 -0.0904  0.0141
 2170DOPE   GL125453  19.057  31.566  13.016  0.3219  0.2436 -0.1357
 2170DOPE   GL225454  19.100  31.844  12.986 -0.1390  0.3346 -0.0603
 2170DOPE   C1A25455  19.087  31.540  12.562 -0.1635  0.0078 -0.1329
 2170DOPE   D2A25456  19.401  31.651  12.196 -0.0121  0.1720  0.1973
 2170DOPE   C3A25457  19.196  31.854  11.776  0.0235 -0.5005  0.0730
 2170DOPE   C4A25458  18.972  32.230  11.660  0.1084 -0.0849 -0.1859
 2170DOPE   C1B25459  18.872  32.028  12.651  0.0865  0.3727 -0.0713
 2170DOPE   D2B25460  18.562  32.093  12.306  0.4215 -0.1159 -0.3277
 2170DOPE   C3B25461  18.812  31.720  12.108 -0.3853 -0.0969 -0.2696
 2170DOPE   C4B25462  19.065  31.412  11.958  0.1679  0.1531  0.0480
 2171DOPC   NC325463  14.629  31.119  13.815 -0.0986 -0.0150 -0.0391
 2171DOPC   PO425464  14.836  31.392  14.056  0.0935  0.1329  0.1851
 2171DOPC   GL125465  14.930  31.344  13.555  0.2138 -0.0287  0.1712
 2171DOPC   GL225466  14.773  31.443  13.384 -0.1432 -0.0815 -0.1267
 2171DOPC   C1A25467  15.167  31.116  13.220 -0.3466 -0.2212 -0.0125
 2171DOPC   D2A25468  15.172  31.210  12.763  0.3123 -0.1452 -0.2797
 2171DOPC   C3A25469  15.262  31.578  12.557  0.0215 -0.0197 -0.0538
 2171DOPC   C4A25470  15.476  31.981  12.476  0.0197  0.0106  0.4967
 2171DOPC   C1B25471  15.034  31.569  13.051  0.1399 -0.0934 -0.0432
 2171DOPC   D2B25472  15.352  31.962  13.021 -0.0579  0.1088 -0.2546
 2171DOPC   C3B25473  15.216  32.334  12.798  0.0608 -0.1799 -0.0098
 2171DOPC   C4B25474  14.928  32.698  12.675  0.2007 -0.0841  0.2478
 2172DOPE   NH325475  17.800  31.640  13.543 -0.0324 -0.1013 -0.1043
 2172DOPE   PO425476  17.776  31.922  13.700 -0.1533  0.0167  0.1868
 2172DOPE   GL125477  17.869  32.065  13.395 -0.0439 -0.0249  0.3400
 2172DOPE   GL225478  17.833  32.391  13.385  0.0927 -0.1687 -0.1655
 2172DOPE   C1A25479  18.063  32.153  12.986  0.0425 -0.2438 -0.1308
 2172DOPE   D2A25480  18.152  31.890  12.675 -0.0600  0.0737  0.4302
 2172DOPE   C3A25481  17.859  32.122  12.363  0.0752 -0.0000 -0.2381
 2172DOPE   C4A25482  17.444  32.270  12.347  0.1539  0.0026  0.0795
 2172DOPE   C1B25483  17.701  32.743  13.108 -0.0035  0.1121 -0.0491
 2172DOPE   D2B25484  17.365  32.827  12.755  0.0573  0.1853  0.0033
 2172DOPE   C3B25485  17.521  32.770  12.326 -0.0052 -0.0352 -0.2564
 2172DOPE   C4B25486  17.781  32.487  12.014  0.0638 -0.3489 -0.1158
 2173DOPC   NC325487  12.740  26.564  13.716 -0.0322  0.0120  0.0808
 2173DOPC   PO425488  12.831  26.831  14.011 -0.2272 -0.0608  0.0085
 2173DOPC   GL125489  12.572  27.057  13.774  0.2024  0.2313 -0.2089
 2173DOPC   GL225490  12.374  26.912  13.748  0.1533 -0.3048 -0.0488
 2173DOPC   C1A25491  12.745  27.213  13.373  0.0967 -0.0656 -0.0228
 2173DOPC   D2A25492  12.395  27.472  13.100  0.0578  0.1272 -0.1932
 2173DOPC   C3A25493  12.227  27.622  12.689 -0.0942  0.0340  0.3814
 2173DOPC   C4A25494  12.200  27.368  12.293 -0.1185 -0.0773 -0.0868
 2173DOPC   C1B25495  12.244  26.739  13.351 -0.2451  0.1290 -0.3454
 2173DOPC   D2B25496  11.970  26.756  12.977 -0.1023 -0.1068  0.0140
 2173DOPC   C3B25497  11.869  26.464  12.599 -0.2828  0.0289 -0.1546
 2173DOPC   C4B25498  11.826  26.118  12.258  0.0148 -0.0744 -0.0088
 2174DOPE   NH325499  23.243  26.939  13.394  0.2403  0.1603  0.1749
 2174DOPE   PO425500  22.899  26.967  13.405 -0.1598  0.1300  0.0317
 2174DOPE   GL125501  22.801  26.930  13.023  0.0871 -0.1260 -0.1975
 2174DOPE   GL225502  22.605  26.955  12.860 -0.1948  0.0084 -0.2806
 2174DOPE   C1A25503  22.990  27.004  12.607 -0.2103  0.0152  0.2097
 2174DOPE   D2A25504  23.125  26.997  12.195  0.3372  0.1056 -0.1816
 2174DOPE   C3A25505  23.084  26.695  11.840 -0.4433 -0.0003 -0.2520
 2174DOPE   C4A25506  22.965  26.305  11.583  0.1939  0.1007  0.4249
 2174DOPE   C1B25507  22.482  27.104  12.451  0.0213  0.3059 -0.0984
 2174DOPE   D2B25508  22.679  27.164  12.030  0.0424  0.0892  0.0371
 2174DOPE   C3B25509  22.659  27.460  11.648 -0.1212  0.1261 -0.2714
 2174DOPE   C4B25510  22.690  27.709  11.263 -0.1822 -0.3608  0.0917
 2175DOPE   NH325511  21.715  33.643  13.168  0.2956  0.0150 -0.1013
 2175DOPE   PO425512  21.966  33.803  13.089 -0.2328 -0.0426  0.0184
 2175DOPE   GL125513  21.912  33.993  12.711  0.0284  0.2153  0.2381
 2175DOPE   GL225514  22.186  33.941  12.657 -0.2194 -0.1545 -0.0590
 2175DOPE   C1A25515  21.892  34.227  12.339 -0.1233 -0.1205  0.1130
 2175DOPE   D2A25516  21.738  34.174  11.918 -0.5356  0.2070 -0.0176
 2175DOPE   C3A25517  21.380  34.397  11.717  0.0633  0.2196 -0.0434
 2175DOPE   C4A25518  21.079  34.723  11.800 -0.0977 -0.1433 -0.0807
 2175DOPE   C1B25519  22.122  33.846  12.288 -0.0670  0.0046 -0.0696
 2175DOPE   D2B25520  22.048  33.783  11.837  0.2644 -0.1626  0.0813
 2175DOPE   C3B25521  22.148  33.359  11.712  0.1878  0.1825  0.1706
 2175DOPE   C4B25522  22.266  33.127  11.385 -0.0391 -0.3696 -0.2264
 2176DOPC   NC325523  12.996  24.795  13.812  0.0773 -0.4212 -0.0037
 2176DOPC   PO425524  12.599  24.751  13.929  0.4315 -0.0140  0.0503
 2176DOPC   GL125525  12.617  24.692  13.518  0.1675 -0.0093 -0.1357
 2176DOPC   GL225526  12.788  24.435  13.443  0.0168  0.0808 -0.1069
 2176DOPC   C1A25527  12.656  24.818  13.106 -0.0274  0.3403  0.0233
 2176DOPC   D2A25528  12.577  24.739  12.672  0.4404 -0.5111 -0.1696
 2176DOPC   C3A25529  12.783  24.928  12.340  0.3341  0.0010  0.0816
 2176DOPC   C4A25530  13.079  25.226  12.265  0.0534 -0.1024  0.1537
 2176DOPC   C1B25531  13.128  24.743  13.359 -0.0830  0.1402  0.1330
 2176DOPC   D2B25532  13.373  25.104  13.108 -0.0945 -0.0410 -0.0614
 2176DOPC   C3B25533  13.560  25.074  12.693  0.1576 -0.2235 -0.0244
 2176DOPC   C4B25534  14.025  25.054  12.483  0.1604  0.0909 -0.3271
 2177DOPC   NC325535  21.882  25.693  12.759 -0.2479 -0.2806  0.3439
 2177DOPC   PO425536  22.146  25.821  13.021 -0.1240 -0.2322  0.0825
 2177DOPC   GL125537  22.378  25.752  12.673  0.3938  0.0804 -0.2145
 2177DOPC   GL225538  22.232  25.956  12.485  0.1383  0.0334 -0.0659
 2177DOPC   C1A25539  22.575  25.613  12.298  0.0987 -0.1224 -0.2799
 2177DOPC   D2A25540  22.599  25.558  11.843  0.1277  0.0576 -0.1729
 2177DOPC   C3A25541  22.383  25.782  11.524  0.1564 -0.0874  0.2487
 2177DOPC   C4A25542  22.390  26.089  11.164  0.1938  0.1233 -0.1473
 2177DOPC   C1B25543  22.216  25.844  12.000  0.3012  0.3636 -0.2305
 2177DOPC   D2B25544  21.877  25.842  11.663 -0.0172 -0.4043 -0.1563
 2177DOPC   C3B25545  21.961  25.510  11.290  0.1663  0.0843  0.1084
 2177DOPC   C4B25546  21.965  25.495  10.769 -0.2114 -0.0552  0.0101
 2178DOPE   NH325547  18.469  27.544  13.947 -0.0855  0.0714  0.0697
 2178DOPE   PO425548  18.483  27.790  13.768  0.2996 -0.0898 -0.1960
 2178DOPE   GL125549  18.603  27.904  13.427  0.2610  0.1441 -0.1656
 2178DOPE   GL225550  18.437  27.909  13.099  0.0907  0.3901 -0.0124
 2178DOPE   C1A25551  18.934  27.789  13.157 -0.0265 -0.0006  0.1225
 2178DOPE   D2A25552  19.331  27.962  12.962 -0.1939  0.0524  0.3760
 2178DOPE   C3A25553  19.143  28.220  12.617  0.2134 -0.3017 -0.3178
 2178DOPE   C4A25554  18.624  28.172  12.643  0.3051  0.0492  0.4576
 2178DOPE   C1B25555  18.101  27.711  12.840  0.1771 -0.0336 -0.3888
 2178DOPE   D2B25556  17.672  27.593  12.951 -0.2663  0.2287  0.2312
 2178DOPE   C3B25557  17.492  27.206  12.771  0.0766  0.2067 -0.3228
 2178DOPE   C4B25558  17.473  27.017  12.362 -0.1401 -0.0556  0.1435
 2179DOPE   NH325559  25.047  27.338  13.504  0.0273  0.0707 -0.0113
 2179DOPE   PO425560  24.866  27.575  13.358  0.2026 -0.0358  0.0223
 2179DOPE   GL125561  24.971  27.408  13.027  0.0284 -0.0413 -0.1546
 2179DOPE   GL225562  24.720  27.258  12.899  0.4674  0.1322 -0.1676
 2179DOPE   C1A25563  24.926  27.533  12.548  0.0362 -0.3282 -0.0566
 2179DOPE   D2A25564  24.730  27.398  12.148 -0.4240  0.1375  0.0485
 2179DOPE   C3A25565  24.521  27.484  11.740  0.1027  0.1187 -0.0690
 2179DOPE   C4A25566  24.244  27.535  11.345 -0.1179  0.2058 -0.0574
 2179DOPE   C1B25567  24.788  27.032  12.509 -0.0469  0.1771 -0.1733
 2179DOPE   D2B25568  24.944  26.784  12.148  0.2304 -0.1707 -0.2818
 2179DOPE   C3B25569  25.358  26.925  11.866  0.1933 -0.2846  0.2201
 2179DOPE   C4B25570  25.742  26.817  11.563  0.3820 -0.0462  0.0282
 2180DOPS   CNO25571  13.713  29.428  14.082 -0.1121  0.0994 -0.0731
 2180DOPS   PO425572  13.948  29.685  14.045  0.0204  0.0015  0.1692
 2180DOPS   GL125573  13.782  29.625  13.654 -0.1739  0.0317  0.0177
 2180DOPS   GL225574  13.941  29.571  13.379  0.1307 -0.1502 -0.3557
 2180DOPS   C1A25575  13.496  29.832  13.373  0.3325 -0.0397  0.0560
 2180DOPS   D2A25576  13.438  30.033  13.011 -0.0467 -0.1718  0.0814
 2180DOPS   C3A25577  13.899  30.167  13.097  0.1903 -0.0006  0.2316
 2180DOPS   C4A25578  14.268  29.912  13.192 -0.0608 -0.0426  0.0148
 2180DOPS   C1B25579  13.863  29.656  12.948 -0.0595 -0.1808 -0.0907
 2180DOPS   D2B25580  13.623  29.833  12.608 -0.1168 -0.0805  0.1709
 2180DOPS   C3B25581  13.850  30.046  12.292 -0.0891 -0.2477 -0.4004
 2180DOPS   C4B25582  14.227  30.403  12.113  0.1624 -0.1924 -0.0206
 2181POSM   NC325583  15.955  32.415  13.829  0.2216 -0.0697 -0.0740
 2181POSM   PO425584  15.679  32.170  13.996  0.2783 -0.1399 -0.1843
 2181POSM   AM125585  15.557  32.027  13.693 -0.2768 -0.0258  0.0411
 2181POSM   AM225586  15.354  32.118  13.567  0.1238  0.3154  0.1325
 2181POSM   T1A25587  15.743  31.923  13.236  0.0106  0.1751  0.1879
 2181POSM   C2A25588  16.171  31.920  12.997 -0.2107 -0.0214  0.2189
 2181POSM   C3A25589  16.297  32.205  12.626  0.1742  0.1052  0.0522
 2181POSM   C1B25590  15.145  32.430  13.564  0.0647  0.2117 -0.0714
 2181POSM   D2B25591  14.860  32.743  13.429 -0.0203 -0.1511 -0.2767
 2181POSM   C3B25592  14.582  32.807  13.029 -0.0717 -0.0920 -0.2330
 2181POSM   C4B25593  14.161  32.864  12.746 -0.0063  0.0207 -0.0389
 2182DOPC   NC325594  12.417  28.588  13.888  0.0485  0.0372 -0.2257
 2182DOPC   PO425595  12.800  28.702  13.919 -0.1495  0.1281 -0.1241
 2182DOPC   GL125596  12.595  28.958  13.727 -0.0081  0.0473  0.3186
 2182DOPC   GL225597  12.374  29.058  13.782  0.0486  0.2484  0.0348
 2182DOPC   C1A25598  12.766  29.041  13.276 -0.1550  0.2838 -0.3029
 2182DOPC   D2A25599  12.785  29.053  12.823  0.1156 -0.0450 -0.0281
 2182DOPC   C3A25600  13.046  29.145  12.479 -0.0873 -0.2229  0.2969
 2182DOPC   C4A25601  13.399  28.984  12.234  0.1363  0.0545  0.1380
 2182DOPC   C1B25602  12.089  29.163  13.409 -0.2135 -0.0778 -0.0308
 2182DOPC   D2B25603  12.046  29.431  13.067  0.0265 -0.1405  0.1896
 2182DOPC   C3B25604  12.074  29.402  12.623  0.1255 -0.4083 -0.0036
 2182DOPC   C4B25605  11.861  29.520  12.219 -0.1434  0.0123 -0.0719
 2183DOPC   NC325606  18.046  28.134  13.321 -0.2195  0.0883  0.2521
 2183DOPC   PO425607  18.034  28.471  13.525  0.1011 -0.1244 -0.1150
 2183DOPC   GL125608  18.088  28.487  13.011  0.1263  0.4275 -0.1009
 2183DOPC   GL225609  17.853  28.556  12.996  0.0648 -0.0273  0.0325
 2183DOPC   C1A25610  18.117  28.152  12.655 -0.4033 -0.2053 -0.2257
 2183DOPC   D2A25611  18.178  27.831  12.333  0.0710  0.1058  0.5848
 2183DOPC   C3A25612  18.595  27.919  12.023 -0.1379  0.0509  0.0001
 2183DOPC   C4A25613  18.737  28.232  11.718 -0.0917  0.1904  0.2448
 2183DOPC   C1B25614  17.662  28.158  12.842  0.1947  0.1541 -0.1927
 2183DOPC   D2B25615  17.652  27.957  12.468 -0.1722  0.1012 -0.0052
 2183DOPC   C3B25616  17.605  28.094  11.991  0.0788 -0.1331 -0.2529
 2183DOPC   C4B25617  17.362  28.291  11.591  0.1083  0.0406 -0.1458
 2184DOPS   CNO25618  14.949  24.333  13.810 -0.0775  0.0321  0.1485
 2184DOPS   PO425619  14.803  24.677  13.878 -0.0045 -0.0902  0.1816
 2184DOPS   GL125620  14.691  24.607  13.488 -0.0525  0.0025 -0.1390
 2184DOPS   GL225621  14.648  24.315  13.393 -0.4385 -0.1322 -0.0223
 2184DOPS   C1A25622  14.588  24.955  13.118  0.0809 -0.0882 -0.0375
 2184DOPS   D2A25623  14.599  25.236  12.715  0.0144  0.1163 -0.2977
 2184DOPS   C3A25624  14.464  25.274  12.270 -0.0668 -0.0158 -0.1881
 2184DOPS   C4A25625  14.335  25.402  11.879  0.0436  0.0977  0.1796
 2184DOPS   C1B25626  14.827  24.510  13.009  0.3149 -0.0258  0.1213
 2184DOPS   D2B25627  14.800  24.498  12.533 -0.3092 -0.1924 -0.2158
 2184DOPS   C3B25628  14.909  24.119  12.425  0.0836  0.2193  0.1336
 2184DOPS   C4B25629  14.794  23.665  12.552  0.2849 -0.0076 -0.0359
 2185DOPC   NC325630  20.103   2.260  13.501 -0.0945  0.1095  0.1187
 2185DOPC   PO425631  19.994   1.906  13.369 -0.0819 -0.0284 -0.1947
 2185DOPC   GL125632  19.983   1.608  13.076  0.1048 -0.1363 -0.2173
 2185DOPC   GL225633  19.670   1.475  13.050  0.0982  0.0940  0.0031
 2185DOPC   C1A25634  19.817   1.750  12.643  0.0227  0.1539 -0.0543
 2185DOPC   D2A25635  19.715   1.772  12.213  0.5756  0.1875 -0.2221
 2185DOPC   C3A25636  19.876   2.057  11.886 -0.0797 -0.0273 -0.0414
 2185DOPC   C4A25637  19.790   2.400  11.617 -0.0351  0.0236 -0.1676
 2185DOPC   C1B25638  19.239   1.474  12.889 -0.0189  0.0414  0.0378
 2185DOPC   D2B25639  18.926   1.244  12.725  0.3132 -0.1721  0.0737
 2185DOPC   C3B25640  18.675   1.002  12.361  0.1052 -0.5245 -0.1363
 2185DOPC   C4B25641  18.632   0.593  12.133  0.3822 -0.2216 -0.2778
 2186POSM   NC325642  19.749  26.540  13.871  0.0498 -0.0121 -0.0574
 2186POSM   PO425643  19.928  26.842  13.652  0.3321  0.2463 -0.0975
 2186POSM   AM125644  19.805  26.957  13.340 -0.1495 -0.0586 -0.3108
 2186POSM   AM225645  19.705  26.767  13.135 -0.1019  0.0631  0.1972
 2186POSM   T1A25646  19.753  27.167  12.829  0.0826 -0.0197 -0.1600
 2186POSM   C2A25647  19.458  27.281  12.434 -0.2409  0.0826  0.0827
 2186POSM   C3A25648  19.219  27.214  12.060 -0.1408 -0.1383  0.2031
 2186POSM   C1B25649  19.773  26.632  12.810  0.0149  0.0751 -0.1576
 2186POSM   D2B25650  19.889  26.297  12.508 -0.1427 -0.1937  0.1000
 2186POSM   C3B25651  19.880  26.226  12.062 -0.1720 -0.0291 -0.1847
 2186POSM   C4B25652  19.739  26.145  11.625 -0.0608 -0.4496 -0.1203
 2187DOPC   NC325653  15.905  24.887  13.647  0.1545 -0.0422  0.0630
 2187DOPC   PO425654  16.143  25.173  13.749 -0.2680  0.0743  0.2920
 2187DOPC   GL125655  16.134  25.125  13.271 -0.0831 -0.0307  0.1018
 2187DOPC   GL225656  16.077  25.260  13.025  0.1310  0.0126 -0.1592
 2187DOPC   C1A25657  16.062  24.782  12.963  0.2434 -0.1135 -0.0417
 2187DOPC   D2A25658  16.160  24.549  12.542 -0.0160  0.0093  0.0176
 2187DOPC   C3A25659  15.828  24.728  12.261  0.0248 -0.2147 -0.0185
 2187DOPC   C4A25660  15.681  24.732  11.794 -0.0137  0.0772 -0.0900
 2187DOPC   C1B25661  15.733  25.507  12.910  0.0982 -0.0886  0.0728
 2187DOPC   D2B25662  15.616  25.785  12.585  0.1563  0.1247  0.1732
 2187DOPC   C3B25663  15.303  25.583  12.342 -0.0905  0.0655  0.2518
 2187DOPC   C4B25664  14.919  25.457  12.218  0.0356  0.2228  0.2234
 2188DOPC   NC325665  20.665  24.318  12.813 -0.2054  0.0248 -0.3174
 2188DOPC   PO425666  20.545  23.993  13.048 -0.3537 -0.2834 -0.1247
 2188DOPC   GL125667  20.298  23.934  12.706  0.0354 -0.0952  0.1136
 2188DOPC   GL225668  20.169  24.214  12.660  0.1196 -0.0693 -0.0289
 2188DOPC   C1A25669  20.191  23.922  12.285 -0.1482  0.2937  0.2291
 2188DOPC   D2A25670  20.476  23.695  11.980  0.1719 -0.1245 -0.0448
 2188DOPC   C3A25671  20.447  23.412  11.640  0.3074 -0.1546  0.0157
 2188DOPC   C4A25672  20.159  23.086  11.421  0.1361 -0.0824 -0.2062
 2188DOPC   C1B25673  20.017  24.425  12.232 -0.0892 -0.0735  0.3350
 2188DOPC   D2B25674  19.843  24.535  11.817  0.0095  0.0147 -0.1298
 2188DOPC   C3B25675  20.227  24.691  11.572 -0.0767  0.0454  0.2569
 2188DOPC   C4B25676  20.574  24.903  11.721 -0.1357  0.2240  0.1271
 2189DOPE   NH325677  19.229  25.126  12.864 -0.2075 -0.0591  0.0386
 2189DOPE   PO425678  19.089  24.864  13.017  0.1646 -0.1729  0.0626
 2189DOPE   GL125679  18.856  24.862  12.745 -0.6788 -0.2608 -0.2552
 2189DOPE   GL225680  18.675  25.078  12.813 -0.1577  0.2819 -0.0533
 2189DOPE   C1A25681  18.861  24.568  12.340  0.1169 -0.1739  0.2371
 2189DOPE   D2A25682  18.794  24.137  12.219 -0.1112 -0.0856 -0.0113
 2189DOPE   C3A25683  18.597  24.040  11.789  0.1433 -0.0085  0.0622
 2189DOPE   C4A25684  18.350  24.138  11.382 -0.2377  0.4823 -0.3504
 2189DOPE   C1B25685  18.494  24.944  12.405  0.1013 -0.0071  0.1545
 2189DOPE   D2B25686  18.559  24.707  12.006  0.1296 -0.0482  0.0531
 2189DOPE   C3B25687  18.988  24.617  11.819  0.1215  0.0692  0.1180
 2189DOPE   C4B25688  19.410  24.810  11.638 -0.0382 -0.2304 -0.0625
 2190POSM   NC325689  22.205  24.503  13.276  0.3185  0.2233 -0.2525
 2190POSM   PO425690  21.779  24.404  13.223 -0.0982  0.1717  0.1879
 2190POSM   AM125691  21.805  24.240  12.962 -0.1708 -0.1470 -0.2289
 2190POSM   AM225692  21.976  24.305  12.698  0.0028  0.1498 -0.0854
 2190POSM   T1A25693  21.757  23.849  12.643  0.0709 -0.0765 -0.3380
 2190POSM   C2A25694  22.086  23.565  12.450  0.0309 -0.2003  0.4855
 2190POSM   C3A25695  22.052  23.200  12.216 -0.3426 -0.0968 -0.2334
 2190POSM   C1B25696  22.157  24.149  12.465  0.1382  0.1502  0.0181
 2190POSM   D2B25697  22.404  23.909  12.143  0.1392 -0.0416  0.3705
 2190POSM   C3B25698  22.843  24.006  11.932  0.0230  0.3985 -0.1216
 2190POSM   C4B25699  23.289  24.033  11.863  0.0032 -0.1747  0.2153
 2191POSM   NC325700  15.652  29.807  14.345  0.1111 -0.0645 -0.1050
 2191POSM   PO425701  15.847  29.822  14.043  0.3393 -0.0531  0.2374
 2191POSM   AM125702  15.756  29.848  13.744  0.2118 -0.3199 -0.0343
 2191POSM   AM225703  15.558  29.707  13.576 -0.0430 -0.0204  0.1987
 2191POSM   T1A25704  15.693  30.132  13.338  0.0772  0.0443  0.0058
 2191POSM   C2A25705  15.542  30.290  12.951  0.0047 -0.0658  0.0607
 2191POSM   C3A25706  15.914  30.647  12.860 -0.0526 -0.0507 -0.2472
 2191POSM   C1B25707  15.352  29.736  13.292 -0.1376 -0.1875  0.2062
 2191POSM   D2B25708  15.047  29.681  12.932 -0.1097  0.0544 -0.0423
 2191POSM   C3B25709  14.992  29.568  12.498  0.0982 -0.0368  0.0967
 2191POSM   C4B25710  14.671  29.564  12.090 -0.0546 -0.2208 -0.2985
 2192DOPE   NH325711  15.636  27.065  13.843 -0.1617  0.4233  0.1792
 2192DOPE   PO425712  15.724  26.915  13.572  0.0222  0.3844  0.2001
 2192DOPE   GL125713  15.734  26.800  13.186 -0.0394  0.1793  0.3391
 2192DOPE   GL225714  15.993  26.732  13.053  0.2200 -0.0666  0.1768
 2192DOPE   C1A25715  15.388  26.573  12.934 -0.1325  0.1687  0.2322
 2192DOPE   D2A25716  15.031  26.345  13.166 -0.2120 -0.2464  0.0619
 2192DOPE   C3A25717  14.865  25.927  13.158  0.0913 -0.0781  0.1263
 2192DOPE   C4A25718  15.066  25.584  12.875  0.1858  0.0365 -0.0120
 2192DOPE   C1B25719  16.022  26.775  12.582 -0.2874  0.0400 -0.5182
 2192DOPE   D2B25720  16.134  26.815  12.113 -0.1435 -0.0141 -0.0482
 2192DOPE   C3B25721  16.067  26.432  11.871 -0.2070 -0.1364  0.0413
 2192DOPE   C4B25722  16.314  25.985  11.783  0.2060 -0.2373  0.0410
 2193POSM   NC325723  10.981  25.877  14.041 -0.0386 -0.1180 -0.1165
 2193POSM   PO425724  11.139  25.528  14.140  0.0120  0.0482  0.2149
 2193POSM   AM125725  11.216  25.488  13.826 -0.3251  0.0324  0.1407
 2193POSM   AM225726  11.485  25.434  13.698  0.2029 -0.0566  0.0420
 2193POSM   T1A25727  11.075  25.420  13.312 -0.2079  0.1459  0.3588
 2193POSM   C2A25728  11.142  25.380  12.890  0.1532 -0.0615 -0.1457
 2193POSM   C3A25729  11.206  25.348  12.443 -0.1516 -0.0157 -0.0447
 2193POSM   C1B25730  11.661  25.627  13.532  0.0899 -0.1489  0.0031
 2193POSM   D2B25731  11.724  26.101  13.412 -0.1017 -0.1938  0.2643
 2193POSM   C3B25732  11.768  26.161  12.957  0.0244 -0.0975 -0.1111
 2193POSM   C4B25733  11.410  26.233  12.627  0.2633 -0.2298  0.0369
 2194DOPE   NH325734  13.363  30.831  14.174 -0.0905 -0.0459  0.0873
 2194DOPE   PO425735  13.544  31.081  13.999 -0.4113 -0.2910  0.1387
 2194DOPE   GL125736  13.278  31.326  13.704  0.2736 -0.0966  0.5961
 2194DOPE   GL225737  13.066  31.218  13.776 -0.1024  0.0182  0.2292
 2194DOPE   C1A25738  13.367  31.319  13.242 -0.1850 -0.0259 -0.0271
 2194DOPE   D2A25739  13.274  31.541  12.810  0.0529 -0.2123 -0.2567
 2194DOPE   C3A25740  13.381  31.482  12.321  0.1244 -0.1686  0.2545
 2194DOPE   C4A25741  13.339  31.324  11.901 -0.2735  0.0468 -0.0496
 2194DOPE   C1B25742  12.857  31.268  13.401 -0.2317 -0.2782  0.1374
 2194DOPE   D2B25743  12.991  31.179  12.909  0.2217 -0.0887  0.0705
 2194DOPE   C3B25744  13.102  31.043  12.495  0.1763 -0.0616 -0.0128
 2194DOPE   C4B25745  13.146  30.876  12.083 -0.5868 -0.2272  0.0968
 2195POSM   NC325746  13.250  28.756  14.171  0.0864 -0.2612 -0.1555
 2195POSM   PO425747  13.465  29.068  14.285 -0.1918 -0.0074 -0.1906
 2195POSM   AM125748  13.549  29.025  13.978  0.2078  0.1029 -0.0226
 2195POSM   AM225749  13.721  28.856  13.874 -0.0150  0.2287  0.3402
 2195POSM   T1A25750  13.612  29.144  13.503  0.0190 -0.3172  0.0223
 2195POSM   C2A25751  13.837  29.042  13.120  0.1372  0.1104 -0.2978
 2195POSM   C3A25752  14.095  29.226  12.855 -0.2248 -0.0396  0.0525
 2195POSM   C1B25753  13.741  28.659  13.536 -0.0435  0.1881 -0.0837
 2195POSM   D2B25754  13.689  28.392  13.188 -0.3264  0.0196  0.2457
 2195POSM   C3B25755  13.574  28.343  12.746  0.1257  0.0812 -0.0053
 2195POSM   C4B25756  13.341  28.446  12.350 -0.2819  0.1021  0.0910
 2196DOPS   CNO25757  23.255  23.435  13.272  0.2379  0.1645 -0.1768
 2196DOPS   PO425758  23.056  23.631  12.985  0.0619  0.1529 -0.1469
 2196DOPS   GL125759  22.751  23.459  12.791  0.2752 -0.3160 -0.0228
 2196DOPS   GL225760  22.850  23.177  12.756  0.2382  0.0735  0.1839
 2196DOPS   C1A25761  22.541  23.352  12.404  0.2251  0.1041 -0.2857
 2196DOPS   D2A25762  22.543  23.322  11.937  0.1665  0.0300 -0.0544
 2196DOPS   C3A25763  22.543  23.726  11.678 -0.0273  0.0837  0.0635
 2196DOPS   C4A25764  22.686  23.836  11.298 -0.0628 -0.0700  0.0651
 2196DOPS   C1B25765  23.123  23.233  12.355 -0.1551  0.1313  0.0974
 2196DOPS   D2B25766  23.051  23.508  11.959  0.0198 -0.0752 -0.0902
 2196DOPS   C3B25767  22.901  23.316  11.566 -0.1950 -0.1779  0.1621
 2196DOPS   C4B25768  22.627  22.957  11.545 -0.0512  0.0421  0.5565
 2197DOPC   NC325769  17.298  31.991  13.544  0.1041 -0.3202  0.0650
 2197DOPC   PO425770  16.933  31.782  13.531  0.1464  0.2201 -0.1370
 2197DOPC   GL125771  16.773  31.897  13.246 -0.0359  0.0784  0.2388
 2197DOPC   GL225772  16.686  31.667  13.109 -0.2508 -0.0524 -0.0054
 2197DOPC   C1A25773  17.058  32.023  12.839 -0.2115 -0.0529 -0.0618
 2197DOPC   D2A25774  16.944  32.081  12.345 -0.2117  0.2889  0.0481
 2197DOPC   C3A25775  17.228  31.886  12.039 -0.0736 -0.2165  0.1243
 2197DOPC   C4A25776  17.164  31.558  11.799 -0.0361  0.2466 -0.0210
 2197DOPC   C1B25777  16.635  31.789  12.665  0.0623  0.0253 -0.1378
 2197DOPC   D2B25778  16.387  31.861  12.295 -0.0540  0.1432 -0.1919
 2197DOPC   C3B25779  16.467  31.389  12.291 -0.0420 -0.0441 -0.1429
 2197DOPC   C4B25780  16.775  31.247  12.555 -0.3542  0.1009  0.1714
 2198DOPS   CNO25781  12.932  34.690  14.788 -0.1034 -0.0369 -0.1576
 2198DOPS   PO425782  13.018  34.380  14.615 -0.0912  0.0673 -0.0193
 2198DOPS   GL125783  12.975  34.643  14.380 -0.3205  0.1621  0.0884
 2198DOPS   GL225784  12.866  34.620  14.149 -0.2612  0.0068 -0.0710
 2198DOPS   C1A25785  13.310  34.801  14.102 -0.4764 -0.3054 -0.1453
 2198DOPS   D2A25786  13.546  34.941  13.746  0.0594 -0.1618 -0.2491
 2198DOPS   C3A25787  13.872  35.134  13.577  0.2127  0.1065  0.1005
 2198DOPS   C4A25788  13.926  35.239  13.136 -0.0968 -0.4200 -0.0665
 2198DOPS   C1B25789  13.008  34.221  13.863 -0.0158 -0.1025  0.1025
 2198DOPS   D2B25790  13.184  34.212  13.421 -0.0620 -0.0402  0.1475
 2198DOPS   C3B25791  13.204  34.573  13.191  0.0345  0.3169  0.0903
 2198DOPS   C4B25792  13.521  34.899  13.210 -0.1963  0.2289  0.1611
 2199DOPE   NH325793  19.969  32.148  13.323  0.1123 -0.0447 -0.2608
 2199DOPE   PO425794  20.044  32.116  13.020  0.1083 -0.0704  0.0094
 2199DOPE   GL125795  19.890  32.297  12.761 -0.1071 -0.0803 -0.0240
 2199DOPE   GL225796  19.616  32.413  12.781  0.0473 -0.2885 -0.0714
 2199DOPE   C1A25797  20.097  32.183  12.329  0.1267 -0.0453  0.1508
 2199DOPE   D2A25798  20.357  32.263  11.960  0.1595  0.0320 -0.2011
 2199DOPE   C3A25799  20.215  32.418  11.516  0.1760  0.2294 -0.0703
 2199DOPE   C4A25800  19.850  32.391  11.294 -0.0763  0.3185  0.3314
 2199DOPE   C1B25801  19.626  32.421  12.293  0.0841 -0.1021  0.0127
 2199DOPE   D2B25802  19.304  32.556  11.981  0.1685 -0.1042  0.0676
 2199DOPE   C3B25803  19.474  32.961  11.747 -0.2346 -0.1076 -0.1329
 2199DOPE   C4B25804  19.671  33.344  11.612 -0.1605 -0.1452 -0.2704
 2200DOPC   NC325805  15.909  29.390  13.756 -0.1223  0.0833  0.1347
 2200DOPC   PO425806  16.083  29.073  13.870 -0.2700  0.1503  0.0153
 2200DOPC   GL125807  15.930  29.028  13.438  0.0416  0.0627 -0.3145
 2200DOPC   GL225808  16.029  28.819  13.225 -0.1951  0.2519 -0.1528
 2200DOPC   C1A25809  15.873  29.324  13.148 -0.2555 -0.2887 -0.1979
 2200DOPC   D2A25810  15.755  29.789  13.021 -0.0034  0.1642  0.3716
 2200DOPC   C3A25811  15.464  29.850  12.615 -0.2380 -0.0661  0.4983
 2200DOPC   C4A25812  15.542  29.821  12.163 -0.0716  0.1647 -0.0039
 2200DOPC   C1B25813  15.828  28.805  12.838  0.0120  0.1188  0.2451
 2200DOPC   D2B25814  15.718  28.505  12.548  0.0440 -0.1496  0.2682
 2200DOPC   C3B25815  15.764  28.433  12.105  0.0236 -0.2179  0.2518
 2200DOPC   C4B25816  15.758  28.399  11.661  0.0507 -0.1562  0.3187
 2201DOPS   CNO25817  11.715  27.028  14.289 -0.0776 -0.1951 -0.0546
 2201DOPS   PO425818  12.003  26.876  14.102 -0.2219 -0.0851 -0.0912
 2201DOPS   GL125819  11.957  26.826  13.720  0.2281 -0.0053  0.3908
 2201DOPS   GL225820  11.867  27.098  13.659  0.2090 -0.1097 -0.0882
 2201DOPS   C1A25821  11.766  26.586  13.412  0.0719  0.0561 -0.2985
 2201DOPS   D2A25822  11.463  26.571  13.056  0.1374 -0.0496 -0.3051
 2201DOPS   C3A25823  11.065  26.810  12.877  0.0859 -0.0738 -0.0072
 2201DOPS   C4A25824  10.842  27.192  12.863  0.2419  0.1009 -0.0816
 2201DOPS   C1B25825  11.965  27.178  13.254 -0.0695  0.2593  0.0464
 2201DOPS   D2B25826  12.140  27.161  12.809  0.2720 -0.2240 -0.1855
 2201DOPS   C3B25827  11.968  26.967  12.448  0.4078 -0.2752  0.1182
 2201DOPS   C4B25828  11.761  26.657  12.171  0.1512 -0.2442  0.0230
 2202DOPC   NC325829  14.366  26.407  14.285 -0.2705 -0.1297  0.1205
 2202DOPC   PO425830  14.492  26.426  13.883 -0.3975 -0.1263 -0.2781
 2202DOPC   GL125831  14.395  26.574  13.556 -0.0226  0.0936  0.5178
 2202DOPC   GL225832  14.103  26.706  13.565 -0.1053  0.1016  0.1916
 2202DOPC   C1A25833  14.355  26.349  13.129 -0.0883 -0.0659  0.2090
 2202DOPC   D2A25834  14.591  26.286  12.744  0.1364  0.4219 -0.1605
 2202DOPC   C3A25835  14.981  26.455  12.617  0.2541  0.0661 -0.0904
 2202DOPC   C4A25836  15.349  26.732  12.505 -0.1039 -0.0578 -0.3612
 2202DOPC   C1B25837  13.838  26.881  13.157 -0.2287 -0.0089  0.0119
 2202DOPC   D2B25838  13.573  27.030  12.842  0.2026 -0.3063  0.0026
 2202DOPC   C3B25839  13.650  27.029  12.436  0.0398 -0.1163  0.2450
 2202DOPC   C4B25840  13.637  27.124  11.966  0.1382  0.2100  0.0049
 2203DOPE   NH325841  22.292  29.747  13.169  0.0939 -0.0420  0.0145
 2203DOPE   PO425842  22.108  29.660  12.946 -0.0097  0.0981 -0.1718
 2203DOPE   GL125843  22.109  29.708  12.608  0.0244  0.3814  0.3567
 2203DOPE   GL225844  21.837  29.895  12.587 -0.0728  0.3646  0.1623
 2203DOPE   C1A25845  22.243  29.900  12.187 -0.2164 -0.1357 -0.0014
 2203DOPE   D2A25846  22.555  29.988  11.873  0.0929 -0.2299  0.0682
 2203DOPE   C3A25847  22.791  30.276  11.572 -0.0140 -0.1370 -0.0785
 2203DOPE   C4A25848  23.141  30.304  11.272  0.0420  0.0173  0.1312
 2203DOPE   C1B25849  21.692  29.678  12.257  0.0433 -0.2006  0.0429
 2203DOPE   D2B25850  21.843  29.390  11.950 -0.1857 -0.3424 -0.2610
 2203DOPE   C3B25851  22.342  29.448  11.850  0.2709  0.2072  0.0218
 2203DOPE   C4B25852  22.521  29.650  11.474  0.1788 -0.0063  0.0374
 2204POSM   NC325853  19.168  32.364  13.773 -0.0134  0.0255 -0.1376
 2204POSM   PO425854  19.360  32.701  13.722 -0.0318 -0.1156  0.1022
 2204POSM   AM125855  19.281  32.621  13.417 -0.3569 -0.2092  0.1747
 2204POSM   AM225856  19.158  32.404  13.235  0.0363 -0.1249  0.1814
 2204POSM   T1A25857  19.376  32.792  12.942 -0.0415  0.1495 -0.4376
 2204POSM   C2A25858  19.638  32.879  12.593 -0.0171 -0.5240  0.0285
 2204POSM   C3A25859  19.670  33.044  12.185  0.0581  0.1568  0.1560
 2204POSM   C1B25860  19.134  32.349  12.918 -0.1491  0.1386  0.1963
 2204POSM   D2B25861  19.138  32.494  12.507 -0.2049  0.2795 -0.1674
 2204POSM   C3B25862  19.213  32.923  12.345 -0.0759 -0.2716 -0.1292
 2204POSM   C4B25863  18.988  33.303  12.204  0.0714 -0.0406  0.0764
 2205DOPE   NH325864  15.635  33.438  14.567 -0.0250  0.0689 -0.2598
 2205DOPE   PO425865  15.423  33.464  14.325  0.2922 -0.1735 -0.1175
 2205DOPE   GL125866  15.408  33.433  13.931  0.0179 -0.3163  0.2568
 2205DOPE   GL225867  15.530  33.122  13.895  0.0028 -0.3340  0.4805
 2205DOPE   C1A25868  15.568  33.492  13.507 -0.3164 -0.0617 -0.0615
 2205DOPE   D2A25869  15.833  33.353  13.177  0.2997  0.2288 -0.1031
 2205DOPE   C3A25870  15.985  33.539  12.767  0.0451 -0.1722  0.1850
 2205DOPE   C4A25871  16.018  33.745  12.410  0.1076 -0.1075 -0.2964
 2205DOPE   C1B25872  15.318  32.973  13.528 -0.1029 -0.0895  0.3168
 2205DOPE   D2B25873  15.215  32.764  13.084 -0.1364 -0.2619  0.0026
 2205DOPE   C3B25874  15.417  32.730  12.652  0.0151  0.0850 -0.2165
 2205DOPE   C4B25875  15.721  32.850  12.285 -0.1059 -0.1801  0.1090
 2206POSM   NC325876  21.961  31.065  12.724  0.3276  0.0611 -0.0445
 2206POSM   PO425877  21.939  31.433  12.752  0.2650  0.1020 -0.0589
 2206POSM   AM125878  21.764  31.424  12.469 -0.0557 -0.0836  0.1396
 2206POSM   AM225879  21.835  31.431  12.199  0.1128  0.1228 -0.2739
 2206POSM   T1A25880  21.456  31.785  12.226 -0.0885 -0.1918 -0.2672
 2206POSM   C2A25881  21.370  32.208  12.265  0.0676  0.1207  0.2593
 2206POSM   C3A25882  21.081  32.515  12.473  0.0099 -0.0749  0.3997
 2206POSM   C1B25883  22.000  31.499  11.901 -0.0578 -0.0106  0.0469
 2206POSM   D2B25884  22.198  31.689  11.563 -0.1863  0.1718 -0.0918
 2206POSM   C3B25885  21.940  31.546  11.213  0.1910  0.2280  0.0823
 2206POSM   C4B25886  21.964  31.312  10.846  0.2713  0.2983  0.0706
 2207DOPC   NC325887  20.170  27.233  13.850  0.0137 -0.2677  0.2224
 2207DOPC   PO425888  20.444  27.488  13.668 -0.3261 -0.1549  0.0384
 2207DOPC   GL125889  20.538  27.506  13.309  0.1953 -0.1056 -0.0812
 2207DOPC   GL225890  20.745  27.286  13.191 -0.1714  0.2531  0.0663
 2207DOPC   C1A25891  20.301  27.415  12.908  0.2153  0.0286  0.0238
 2207DOPC   D2A25892  20.270  27.317  12.438  0.2106 -0.3373 -0.0486
 2207DOPC   C3A25893  20.135  27.251  12.009  0.0694  0.0768  0.0466
 2207DOPC   C4A25894  20.065  27.058  11.599 -0.0456  0.1115 -0.2379
 2207DOPC   C1B25895  20.567  26.978  12.934  0.0644 -0.0178 -0.1004
 2207DOPC   D2B25896  20.148  26.915  12.792 -0.1689  0.0513 -0.0872
 2207DOPC   C3B25897  19.961  26.902  12.407  0.3161  0.0570  0.0216
 2207DOPC   C4B25898  19.729  27.019  12.045  0.2977  0.2057  0.0488
 2208DOPE   NH325899  17.590   1.037  14.320  0.0357  0.2800  0.0522
 2208DOPE   PO425900  17.672   1.198  14.076 -0.0017 -0.2111  0.1279
 2208DOPE   GL125901  17.462   1.184  13.743  0.4567  0.1606 -0.0370
 2208DOPE   GL225902  17.208   1.114  13.774  0.0648  0.3364  0.3338
 2208DOPE   C1A25903  17.506   0.862  13.433 -0.0257 -0.0074  0.2518
 2208DOPE   D2A25904  17.592   0.641  13.062  0.2562  0.0356  0.0089
 2208DOPE   C3A25905  17.680   0.852  12.665  0.1743  0.1132 -0.2509
 2208DOPE   C4A25906  17.440   0.947  12.303  0.3045  0.1384  0.2007
 2208DOPE   C1B25907  16.916   0.802  13.767 -0.2449  0.2073 -0.1295
 2208DOPE   D2B25908  16.500   0.887  13.784  0.1406 -0.1706  0.1515
 2208DOPE   C3B25909  16.349   1.120  13.426 -0.0966  0.4874 -0.0204
 2208DOPE   C4B25910  16.367   1.107  12.976  0.0450  0.0778 -0.1113
 2209POSM   NC325911  16.748  24.053  13.249  0.1605  0.1190  0.3284
 2209POSM   PO425912  17.090  23.911  13.311  0.0505  0.2088  0.1414
 2209POSM   AM125913  17.104  23.953  12.992  0.0557 -0.0635  0.0711
 2209POSM   AM225914  17.131  23.793  12.741 -0.1691  0.0091  0.0898
 2209POSM   T1A25915  16.844  24.186  12.627  0.0008  0.1256 -0.0732
 2209POSM   C2A25916  16.725  24.033  12.231 -0.1802 -0.1398 -0.0759
 2209POSM   C3A25917  16.325  23.797  12.102  0.3747 -0.1642 -0.0032
 2209POSM   C1B25918  17.236  23.802  12.402  0.4309  0.1300 -0.0542
 2209POSM   D2B25919  17.324  23.934  11.983  0.0962  0.1933  0.0724
 2209POSM   C3B25920  16.934  23.882  11.721 -0.1260 -0.1300 -0.2155
 2209POSM   C4B25921  16.548  24.089  11.747 -0.1623 -0.0513 -0.0729
 2210DOPE   NH325922  20.512   1.745  13.075  0.0845 -0.2001  0.0806
 2210DOPE   PO425923  20.512   1.471  13.217  0.1334  0.1029  0.1668
 2210DOPE   GL125924  20.348   1.342  12.877  0.1662 -0.4395 -0.2158
 2210DOPE   GL225925  20.324   1.539  12.681 -0.1326  0.0490 -0.1415
 2210DOPE   C1A25926  20.553   1.179  12.505  0.1781 -0.0882  0.0072
 2210DOPE   D2A25927  20.795   0.938  12.144  0.2143 -0.2382 -0.3222
 2210DOPE   C3A25928  20.619   0.513  11.991 -0.0716 -0.0023  0.0650
 2210DOPE   C4A25929  20.240   0.309  12.053 -0.1413  0.0336 -0.4012
 2210DOPE   C1B25930  20.510   1.605  12.260  0.0237  0.0476  0.4280
 2210DOPE   D2B25931  20.580   1.352  11.887  0.1020  0.1203  0.1245
 2210DOPE   C3B25932  20.819   1.646  11.569 -0.0815 -0.0631  0.0219
 2210DOPE   C4B25933  21.130   1.682  11.210  0.0041  0.1933 -0.0473
 2211DOPE   NH325934  13.652  28.542  14.289 -0.0194 -0.0966 -0.0740
 2211DOPE   PO425935  13.978  28.552  14.215  0.4354  0.0939  0.0935
 2211DOPE   GL125936  14.084  28.447  13.774  0.1819  0.2118 -0.1174
 2211DOPE   GL225937  14.235  28.704  13.591  0.0300 -0.1336 -0.4340
 2211DOPE   C1A25938  14.168  28.131  13.358  0.1256  0.0473  0.1352
 2211DOPE   D2A25939  14.371  27.769  13.188 -0.0387 -0.2364 -0.0288
 2211DOPE   C3A25940  14.268  27.869  12.711  0.3206 -0.0211 -0.1367
 2211DOPE   C4A25941  14.101  28.241  12.420 -0.0317 -0.0862  0.0057
 2211DOPE   C1B25942  14.120  28.604  13.117  0.3352  0.0274  0.1923
 2211DOPE   D2B25943  14.009  28.652  12.632  0.2952 -0.0903 -0.0110
 2211DOPE   C3B25944  13.767  28.589  12.229 -0.0839 -0.2250 -0.1770
 2211DOPE   C4B25945  13.594  28.398  11.872 -0.0762 -0.3269  0.1503
 2212DOPE   NH325946  20.624  30.712  13.320 -0.2123  0.1120 -0.0109
 2212DOPE   PO425947  20.397  30.757  13.094  0.0843  0.0496  0.0787
 2212DOPE   GL125948  20.379  30.872  12.755 -0.3170 -0.1722  0.2857
 2212DOPE   GL225949  20.451  30.637  12.580 -0.0985 -0.1034  0.2974
 2212DOPE   C1A25950  20.649  31.118  12.426  0.4032 -0.1142  0.0253
 2212DOPE   D2A25951  20.855  31.486  12.086  0.2939  0.1737  0.3025
 2212DOPE   C3A25952  21.149  31.738  11.771 -0.2600  0.2660  0.0345
 2212DOPE   C4A25953  21.242  32.241  11.782  0.3221  0.0991 -0.0105
 2212DOPE   C1B25954  20.481  30.649  12.129 -0.0240  0.1692  0.1068
 2212DOPE   D2B25955  20.839  30.628  11.814  0.1242 -0.0033 -0.1139
 2212DOPE   C3B25956  21.114  30.769  11.494 -0.1589 -0.2076 -0.0505
 2212DOPE   C4B25957  21.529  30.799  11.297 -0.0546 -0.2276  0.2861
 2213DOPE   NH325958  14.088  23.083  13.404 -0.1234  0.1613  0.1540
 2213DOPE   PO425959  13.842  22.869  13.390  0.3897 -0.1279 -0.1527
 2213DOPE   GL125960  13.908  22.859  13.011 -0.0119 -0.1540 -0.2146
 2213DOPE   GL225961  13.722  22.711  12.890 -0.1995  0.2436 -0.0027
 2213DOPE   C1A25962  14.149  22.821  12.606  0.2228  0.1236  0.1066
 2213DOPE   D2A25963  14.466  22.737  12.302 -0.0151 -0.0245 -0.0010
 2213DOPE   C3A25964  14.544  22.355  12.081  0.1027  0.1748 -0.0380
 2213DOPE   C4A25965  14.726  22.273  11.608  0.1392  0.0543  0.0723
 2213DOPE   C1B25966  13.685  22.927  12.464 -0.1946  0.2998  0.1563
 2213DOPE   D2B25967  13.657  23.008  12.012  0.2495 -0.1123 -0.1552
 2213DOPE   C3B25968  13.979  23.050  11.654  0.1811 -0.1077 -0.0398
 2213DOPE   C4B25969  14.381  23.188  11.512  0.1196  0.1256 -0.3510
 2214POSM   NC325970  18.805  25.313  13.548  0.0033 -0.0505  0.0153
 2214POSM   PO425971  18.847  25.326  13.167  0.2062  0.3161  0.2437
 2214POSM   AM125972  18.976  25.586  13.048 -0.0372 -0.0366  0.2793
 2214POSM   AM225973  19.124  25.618  12.814  0.1119 -0.2960 -0.2763
 2214POSM   T1A25974  18.998  26.081  12.924  0.1862 -0.2591 -0.4628
 2214POSM   C2A25975  18.896  26.513  12.729 -0.0921  0.0317  0.2167
 2214POSM   C3A25976  18.851  26.980  12.669 -0.1790 -0.2025  0.2632
 2214POSM   C1B25977  19.315  25.752  12.593 -0.2503  0.0970  0.1842
 2214POSM   D2B25978  19.534  25.943  12.191 -0.1517 -0.1005  0.1682
 2214POSM   C3B25979  19.475  25.727  11.813  0.0034 -0.1511 -0.0722
 2214POSM   C4B25980  19.335  25.858  11.405  0.0094  0.2368  0.1767
 2215DOPE   NH325981  19.506  30.873  12.874  0.1453  0.1579 -0.0029
 2215DOPE   PO425982  19.454  31.158  12.944 -0.2262  0.1334  0.0839
 2215DOPE   GL125983  19.391  31.175  12.582  0.2225  0.2324  0.2617
 2215DOPE   GL225984  19.588  31.152  12.429  0.1542  0.2085  0.4914
 2215DOPE   C1A25985  19.156  31.035  12.190 -0.0387  0.0063  0.3832
 2215DOPE   D2A25986  19.050  30.856  11.821  0.4194  0.0597  0.0057
 2215DOPE   C3A25987  18.668  30.897  11.589  0.1617 -0.4340 -0.2019
 2215DOPE   C4A25988  18.387  31.146  11.265 -0.1219 -0.1930 -0.1979
 2215DOPE   C1B25989  19.746  31.206  11.987 -0.1077 -0.2624 -0.2602
 2215DOPE   D2B25990  19.871  31.296  11.519 -0.3946  0.0833 -0.0289
 2215DOPE   C3B25991  20.331  31.366  11.454 -0.3236 -0.3025  0.0670
 2215DOPE   C4B25992  20.781  31.487  11.399 -0.0576 -0.4015  0.4313
 2216DOPE   NH325993  18.815   1.479  13.681 -0.0850  0.1392  0.1559
 2216DOPE   PO425994  18.737   1.219  13.577 -0.0387  0.0450 -0.1575
 2216DOPE   GL125995  18.896   1.196  13.188 -0.2307  0.2717  0.0477
 2216DOPE   GL225996  19.171   1.144  13.253  0.0043 -0.3881 -0.0763
 2216DOPE   C1A25997  18.926   0.825  12.959 -0.3263 -0.2470 -0.0577
 2216DOPE   D2A25998  18.705   0.557  12.661 -0.2635 -0.3370  0.0585
 2216DOPE   C3A25999  18.964   0.295  12.379  0.2015 -0.1194 -0.3367
 2216DOPE   C4A26000  18.837  -0.072  12.062 -0.0016 -0.0108 -0.0559
 2216DOPE   C1B26001  19.429   1.000  12.836 -0.0665 -0.2112  0.0270
 2216DOPE   D2B26002  19.555   1.270  12.439  0.1212  0.0172  0.0986
 2216DOPE   C3B26003  19.532   1.089  12.086 -0.1132 -0.1779 -0.0019
 2216DOPE   C4B26004  19.378   1.085  11.635 -0.0696 -0.0266 -0.4431
 2217POSM   NC326005  22.464  26.210  12.916 -0.1890  0.3131 -0.0286
 2217POSM   PO426006  22.563  25.978  13.240  0.1728 -0.0191 -0.1177
 2217POSM   AM126007  22.707  25.764  12.998  0.1028 -0.1953  0.4483
 2217POSM   AM226008  22.843  25.733  12.730 -0.0580 -0.3233  0.0840
 2217POSM   T1A26009  22.613  25.310  12.773  0.0173  0.0684  0.3386
 2217POSM   C2A26010  22.675  25.110  12.378  0.1242  0.0847  0.3085
 2217POSM   C3A26011  22.418  25.120  12.029  0.1905 -0.0308  0.0744
 2217POSM   C1B26012  22.760  26.000  12.525 -0.3488  0.0371 -0.3772
 2217POSM   D2B26013  22.644  26.160  12.124  0.0387  0.3632  0.4352
 2217POSM   C3B26014  22.491  26.194  11.713  0.2991  0.0057 -0.1663
 2217POSM   C4B26015  22.090  26.330  11.543  0.0276  0.3267  0.2143
 2218DOPC   NC326016  16.473  31.915  13.615 -0.1395 -0.2045  0.0262
 2218DOPC   PO426017  16.478  32.284  13.782 -0.0318  0.4800 -0.2176
 2218DOPC   GL126018  16.411  32.342  13.383  0.0823 -0.0839 -0.3383
 2218DOPC   GL226019  16.187  32.316  13.318 -0.2930 -0.0420 -0.1053
 2218DOPC   C1A26020  16.691  32.347  13.081  0.1402  0.1899  0.0246
 2218DOPC   D2A26021  16.913  32.518  12.726  0.2293  0.6518 -0.1103
 2218DOPC   C3A26022  16.954  32.574  12.272 -0.1830  0.1504 -0.1784
 2218DOPC   C4A26023  16.645  32.901  12.062 -0.2765 -0.2798 -0.1458
 2218DOPC   C1B26024  16.210  32.542  12.940 -0.2063  0.1289 -0.2691
 2218DOPC   D2B26025  16.461  32.687  12.547  0.0834  0.0788  0.0287
 2218DOPC   C3B26026  16.492  32.431  12.189 -0.0259  0.1108 -0.1029
 2218DOPC   C4B26027  16.750  32.191  11.911  0.0140  0.0122  0.2825
 2219DOPE   NH326028  13.341  26.868  14.073 -0.2503 -0.0086 -0.0187
 2219DOPE   PO426029  13.633  26.780  13.879 -0.2254  0.0509 -0.1213
 2219DOPE   GL126030  13.585  26.670  13.493  0.1255 -0.1853  0.4739
 2219DOPE   GL226031  13.708  26.430  13.431 -0.2214 -0.0712 -0.1041
 2219DOPE   C1A26032  13.314  26.689  13.133  0.3032 -0.1520  0.0319
 2219DOPE   D2A26033  13.276  26.663  12.653  0.3372  0.1849 -0.1203
 2219DOPE   C3A26034  13.176  26.975  12.260 -0.1058 -0.1602  0.1628
 2219DOPE   C4A26035  12.844  27.286  12.184  0.2911  0.1092 -0.3144
 2219DOPE   C1B26036  13.811  26.409  12.997  0.0436 -0.1990  0.0738
 2219DOPE   D2B26037  13.889  26.573  12.585  0.1556 -0.0013  0.0101
 2219DOPE   C3B26038  14.036  26.684  12.168  0.0374 -0.1356 -0.3355
 2219DOPE   C4B26039  13.971  26.666  11.708 -0.2108 -0.1863 -0.0753
 2220DOPC   NC326040  27.214  30.048  12.554 -0.1942 -0.0299  0.1015
 2220DOPC   PO426041  27.359  29.711  12.468  0.0602 -0.1012 -0.2407
 2220DOPC   GL126042  27.589  29.704  12.107  0.2663  0.0277 -0.0036
 2220DOPC   GL226043  27.370  29.508  11.950 -0.2323 -0.0179 -0.0517
 2220DOPC   C1A26044  28.010  29.858  11.955  0.0240 -0.0595 -0.1440
 2220DOPC   D2A26045  28.340  30.211  11.955  0.3385  0.0105  0.0061
 2220DOPC   C3A26046  28.248  30.404  11.551  0.1719 -0.0176 -0.0380
 2220DOPC   C4A26047  28.376  30.330  11.085  0.2112 -0.3530  0.2254
 2220DOPC   C1B26048  27.696  29.667  11.639  0.0453 -0.0561 -0.1574
 2220DOPC   D2B26049  27.960  29.918  11.350 -0.1369 -0.0190 -0.0913
 2220DOPC   C3B26050  27.917  29.776  10.906  0.1491  0.0729  0.2948
 2220DOPC   C4B26051  27.975  29.925  10.483  0.0122 -0.0504  0.1457
 2221POSM   NC326052  13.887  25.199  13.857 -0.2644 -0.0059  0.0685
 2221POSM   PO426053  13.699  24.937  13.609  0.0646  0.1653  0.0171
 2221POSM   AM126054  13.781  25.085  13.327  0.0818 -0.0464 -0.0042
 2221POSM   AM226055  14.062  25.029  13.199 -0.4949  0.1607 -0.2644
 2221POSM   T1A26056  13.696  25.463  13.051 -0.0797 -0.2911  0.0708
 2221POSM   C2A26057  13.651  25.867  12.892 -0.1473 -0.0157 -0.0203
 2221POSM   C3A26058  13.628  26.111  12.478 -0.1094 -0.5877  0.0396
 2221POSM   C1B26059  14.121  25.242  12.916 -0.2576 -0.0230  0.1108
 2221POSM   D2B26060  13.916  25.555  12.618  0.1564  0.1127  0.0161
 2221POSM   C3B26061  13.915  25.715  12.192 -0.1576 -0.0528 -0.3865
 2221POSM   C4B26062  14.165  25.890  11.813  0.1672 -0.2072  0.4633
 2222DOPE   NH326063  21.608  25.825  13.368 -0.3542 -0.3989 -0.0531
 2222DOPE   PO426064  21.738  25.583  13.224  0.2039  0.1455  0.0749
 2222DOPE   GL126065  21.444  25.540  12.872 -0.0322  0.3606 -0.0175
 2222DOPE   GL226066  21.241  25.644  13.076  0.1494 -0.1052  0.1266
 2222DOPE   C1A26067  21.637  25.334  12.465  0.2961 -0.0775  0.0148
 2222DOPE   D2A26068  21.773  25.033  12.180 -0.2085 -0.1362  0.1675
 2222DOPE   C3A26069  21.541  24.932  11.772 -0.1389  0.0752 -0.3022
 2222DOPE   C4A26070  21.380  24.695  11.409  0.1490  0.0860  0.1187
 2222DOPE   C1B26071  21.211  25.921  12.759  0.0352 -0.0529 -0.0021
 2222DOPE   D2B26072  21.264  26.098  12.372  0.1783 -0.0304 -0.1911
 2222DOPE   C3B26073  20.817  26.133  12.163 -0.0952  0.0726  0.1895
 2222DOPE   C4B26074  20.473  25.869  12.045  0.1401 -0.3172 -0.4332
 2223DOPE   NH326075  23.028  25.849  13.373 -0.1578  0.3095  0.0268
 2223DOPE   PO426076  23.217  25.703  13.130  0.0785  0.1445 -0.1107
 2223DOPE   GL126077  23.320  25.639  12.794 -0.0145  0.0987 -0.0095
 2223DOPE   GL226078  23.495  25.903  12.773 -0.2536 -0.2571  0.1063
 2223DOPE   C1A26079  23.248  25.723  12.351  0.0406  0.0907 -0.0002
 2223DOPE   D2A26080  23.083  25.988  12.014  0.0121  0.0072 -0.0097
 2223DOPE   C3A26081  22.891  25.848  11.552  0.0147 -0.1269  0.6608
 2223DOPE   C4A26082  22.864  25.370  11.358 -0.3704 -0.3774  0.0330
 2223DOPE   C1B26083  23.193  26.177  12.508 -0.1441 -0.0032  0.0520
 2223DOPE   D2B26084  22.999  26.559  12.300 -0.0504 -0.0749  0.0854
 2223DOPE   C3B26085  22.617  26.682  12.070 -0.1584 -0.5984 -0.1570
 2223DOPE   C4B26086  22.608  26.664  11.657 -0.2727  0.1272 -0.1045
 2224POSM   NC326087  15.232  23.186  13.298  0.2794 -0.0771 -0.0545
 2224POSM   PO426088  15.569  22.960  13.234 -0.1168 -0.0797 -0.1818
 2224POSM   AM126089  15.469  22.979  12.925 -0.0868  0.0246  0.5424
 2224POSM   AM226090  15.245  23.074  12.821 -0.0544 -0.0214 -0.1466
 2224POSM   T1A26091  15.384  22.914  12.419 -0.1727 -0.2339  0.3730
 2224POSM   C2A26092  15.452  22.621  12.098  0.2305 -0.0061 -0.3891
 2224POSM   C3A26093  15.688  22.396  11.796 -0.1370 -0.1231  0.0888
 2224POSM   C1B26094  15.120  23.317  12.540 -0.2053 -0.0852 -0.0734
 2224POSM   D2B26095  15.189  23.311  12.085 -0.0049 -0.2118  0.0484
 2224POSM   C3B26096  15.308  23.053  11.708  0.0906  0.0863  0.4462
 2224POSM   C4B26097  15.124  22.636  11.582 -0.0939  0.1377  0.1822
 2225DOPS   CNO26098  17.016  24.563  13.052 -0.3427  0.2566  0.3573
 2225DOPS   PO426099  17.349  24.725  12.968 -0.1855  0.0772 -0.0369
 2225DOPS   GL126100  17.359  24.675  12.617 -0.2512  0.1651 -0.3102
 2225DOPS   GL226101  17.489  24.778  12.425  0.4502  0.0731  0.3420
 2225DOPS   C1A26102  17.119  24.448  12.290  0.1163  0.0133  0.0685
 2225DOPS   D2A26103  16.992  24.354  11.831  0.1867  0.0092  0.2695
 2225DOPS   C3A26104  17.098  24.621  11.514 -0.0502 -0.0866 -0.2941
 2225DOPS   C4A26105  17.080  24.933  11.196 -0.2226 -0.0973  0.1769
 2225DOPS   C1B26106  17.616  24.846  11.996  0.0621 -0.0492 -0.1741
 2225DOPS   D2B26107  17.662  24.831  11.543 -0.1791  0.0798 -0.1008
 2225DOPS   C3B26108  17.776  24.419  11.382  0.0399  0.2835  0.1753
 2225DOPS   C4B26109  17.882  24.014  11.213  0.1978  0.0377  0.1009
 2226DOPC   NC326110  11.212  32.165  15.006  0.2720  0.0026  0.0283
 2226DOPC   PO426111  11.210  32.101  14.623  0.2503 -0.0424 -0.1081
 2226DOPC   GL126112  11.237  32.096  14.242  0.3739  0.1453 -0.0150
 2226DOPC   GL226113  11.186  32.333  14.077  0.0819  0.0915  0.0364
 2226DOPC   C1A26114  11.381  31.888  13.875  0.0331 -0.2499  0.0031
 2226DOPC   D2A26115  11.373  31.727  13.408 -0.1213 -0.0025  0.1282
 2226DOPC   C3A26116  11.452  31.454  13.075  0.1662  0.4267  0.0134
 2226DOPC   C4A26117  11.614  31.127  12.796 -0.0159  0.0780 -0.0633
 2226DOPC   C1B26118  10.991  32.219  13.658 -0.0918  0.1012 -0.2464
 2226DOPC   D2B26119  11.178  32.171  13.201  0.2241  0.1280 -0.1618
 2226DOPC   C3B26120  11.505  31.933  12.951  0.0433 -0.0083  0.0591
 2226DOPC   C4B26121  11.893  31.983  12.722 -0.1775  0.0477 -0.2820
 2227POSM   NC326122  18.125  28.958  13.793  0.0713 -0.0429 -0.0841
 2227POSM   PO426123  17.971  29.266  13.703  0.1853 -0.1624  0.2632
 2227POSM   AM126124  17.934  29.291  13.367  0.0216 -0.3152 -0.1848
 2227POSM   AM226125  18.010  29.500  13.196 -0.0438 -0.0621  0.1656
 2227POSM   T1A26126  17.760  29.087  12.975  0.0223  0.0615  0.2063
 2227POSM   C2A26127  17.631  28.931  12.562  0.2783 -0.2430 -0.0203
 2227POSM   C3A26128  17.498  28.970  12.149 -0.1809  0.1198 -0.0753
 2227POSM   C1B26129  17.977  29.508  12.840 -0.3949  0.1764 -0.0846
 2227POSM   D2B26130  17.960  29.256  12.442  0.2823  0.0035 -0.1069
 2227POSM   C3B26131  18.234  29.365  12.074  0.0463 -0.2379 -0.2301
 2227POSM   C4B26132  18.289  29.502  11.663  0.1192  0.1679  0.0702
 2228DOPE   NH326133  17.277  25.935  13.497  0.2339 -0.0475  0.1497
 2228DOPE   PO426134  17.073  25.643  13.436 -0.2247 -0.3296 -0.0638
 2228DOPE   GL126135  17.208  25.572  13.009  0.0266  0.1055 -0.0386
 2228DOPE   GL226136  17.454  25.682  12.854  0.2717  0.1582 -0.1157
 2228DOPE   C1A26137  17.059  25.317  12.713  0.1181  0.0060  0.0132
 2228DOPE   D2A26138  16.994  24.884  12.423  0.0500 -0.0116  0.2498
 2228DOPE   C3A26139  17.004  24.832  12.005  0.0177  0.0713  0.0630
 2228DOPE   C4A26140  17.203  25.083  11.709  0.1441  0.1993 -0.2157
 2228DOPE   C1B26141  17.615  25.282  12.597 -0.1274 -0.3591 -0.2527
 2228DOPE   D2B26142  17.800  25.248  12.140  0.1390  0.0633  0.2307
 2228DOPE   C3B26143  17.551  25.426  11.767 -0.1778 -0.1002  0.1366
 2228DOPE   C4B26144  17.104  25.598  11.717 -0.3643 -0.0291 -0.0308
 2229DOPS   CNO26145  16.308  24.108  13.520 -0.0719  0.1873 -0.0414
 2229DOPS   PO426146  16.275  23.797  13.282  0.1254  0.1740 -0.0127
 2229DOPS   GL126147  15.930  23.820  13.063 -0.1835  0.0120 -0.1568
 2229DOPS   GL226148  15.827  23.937  13.280  0.1296 -0.0523 -0.2051
 2229DOPS   C1A26149  15.831  23.883  12.602 -0.0806 -0.1066 -0.1984
 2229DOPS   D2A26150  15.874  23.934  12.140 -0.1141 -0.4323 -0.0728
 2229DOPS   C3A26151  15.543  23.978  11.776  0.1930 -0.1203  0.3378
 2229DOPS   C4A26152  15.245  24.043  11.469  0.2223 -0.0626  0.0169
 2229DOPS   C1B26153  15.963  24.248  12.945 -0.1290 -0.0591  0.0329
 2229DOPS   D2B26154  15.692  24.377  12.609  0.1306 -0.0361  0.0681
 2229DOPS   C3B26155  15.442  24.193  12.285  0.1052 -0.1639  0.3106
 2229DOPS   C4B26156  15.278  24.393  11.884 -0.0413 -0.0047  0.1084
 2230DOPS   CNO26157  18.598  32.475  13.753  0.2487 -0.0909 -0.1268
 2230DOPS   PO426158  18.842  32.608  13.526  0.0991  0.3573  0.0053
 2230DOPS   GL126159  18.651  32.301  13.321  0.1225  0.0047  0.2748
 2230DOPS   GL226160  18.659  32.508  13.013 -0.0616  0.0020  0.0171
 2230DOPS   C1A26161  18.518  31.999  12.986  0.0247  0.1563 -0.2208
 2230DOPS   D2A26162  18.634  31.602  12.797 -0.4174  0.1873  0.0338
 2230DOPS   C3A26163  18.385  31.423  12.431  0.0637 -0.0455  0.1271
 2230DOPS   C4A26164  18.163  31.708  12.136  0.0927  0.0002  0.0855
 2230DOPS   C1B26165  18.472  32.486  12.636 -0.0467 -0.0989 -0.3157
 2230DOPS   D2B26166  18.270  32.497  12.224  0.3372 -0.1828  0.0511
 2230DOPS   C3B26167  18.434  32.656  11.824 -0.1709 -0.0699  0.1263
 2230DOPS   C4B26168  18.401  32.977  11.523  0.0836 -0.1745 -0.1445
 2231DOPE   NH326169  23.173  23.923  13.338  0.0623  0.0320  0.0013
 2231DOPE   PO426170  23.161  24.242  13.271  0.0958 -0.0363 -0.0844
 2231DOPE   GL126171  23.013  24.366  12.958  0.2324  0.0489  0.0096
 2231DOPE   GL226172  22.909  24.128  12.837 -0.0401 -0.2120  0.2451
 2231DOPE   C1A26173  23.017  24.746  12.692  0.2427 -0.1081  0.0325
 2231DOPE   D2A26174  23.004  24.806  12.224  0.2908  0.0739  0.0358
 2231DOPE   C3A26175  22.904  24.532  11.884 -0.0257  0.2649 -0.0356
 2231DOPE   C4A26176  22.677  24.302  11.527 -0.2580 -0.0710 -0.0212
 2231DOPE   C1B26177  23.067  24.285  12.442 -0.0210  0.1075 -0.0077
 2231DOPE   D2B26178  23.358  24.444  12.093  0.3166 -0.1616 -0.1761
 2231DOPE   C3B26179  23.380  24.694  11.633  0.0096  0.2441  0.0471
 2231DOPE   C4B26180  23.325  25.059  11.372  0.1317  0.0177  0.3493
 2232DOPC   NC326181  17.205  22.244  13.157 -0.0116 -0.0688 -0.0141
 2232DOPC   PO426182  17.066  22.663  13.129 -0.0797 -0.2181 -0.0793
 2232DOPC   GL126183  16.929  22.625  12.739  0.1207  0.0469 -0.2708
 2232DOPC   GL226184  16.807  22.378  12.806  0.0665  0.1327 -0.1770
 2232DOPC   C1A26185  17.115  22.735  12.347  0.4019  0.0058 -0.2239
 2232DOPC   D2A26186  17.205  22.999  11.935 -0.4985  0.0270 -0.0456
 2232DOPC   C3A26187  16.816  23.127  11.689  0.0892  0.0831 -0.1781
 2232DOPC   C4A26188  16.622  23.516  11.533 -0.1671 -0.1604  0.1035
 2232DOPC   C1B26189  16.750  22.328  12.373  0.2546  0.1264  0.0951
 2232DOPC   D2B26190  16.495  22.277  11.984  0.0674 -0.2944  0.1600
 2232DOPC   C3B26191  16.808  22.408  11.690 -0.1228 -0.5004  0.0767
 2232DOPC   C4B26192  16.665  22.726  11.382  0.1227 -0.3427  0.1925
 2233DOPS   CNO26193  24.197  27.849  13.383 -0.1764 -0.0710  0.2431
 2233DOPS   PO426194  24.013  27.737  13.090 -0.2915 -0.0453 -0.1151
 2233DOPS   GL126195  24.255  27.634  12.878  0.1490  0.1871  0.3322
 2233DOPS   GL226196  24.508  27.751  12.968 -0.2644 -0.2238 -0.2470
 2233DOPS   C1A26197  24.307  27.364  12.492 -0.0689  0.1562 -0.0883
 2233DOPS   D2A26198  23.994  27.160  12.238  0.1923 -0.2175  0.2853
 2233DOPS   C3A26199  24.090  26.946  11.796  0.1310 -0.1694  0.1525
 2233DOPS   C4A26200  24.327  27.049  11.426 -0.0798 -0.3421  0.0114
 2233DOPS   C1B26201  24.507  27.786  12.471  0.2899 -0.1858 -0.1225
 2233DOPS   D2B26202  24.446  28.067  12.081  0.0534  0.0502  0.0892
 2233DOPS   C3B26203  24.613  28.472  12.324  0.2626  0.0493  0.0617
 2233DOPS   C4B26204  24.849  28.824  12.523 -0.2462 -0.0599  0.0198
 2234DOPE   NH326205  15.035  31.769  14.317  0.1331  0.0104 -0.2850
 2234DOPE   PO426206  15.308  31.646  14.210 -0.0533 -0.2024 -0.1957
 2234DOPE   GL126207  15.274  31.775  13.856  0.1681  0.0171  0.0865
 2234DOPE   GL226208  14.969  31.816  13.799 -0.1413 -0.0233  0.0045
 2234DOPE   C1A26209  15.337  31.600  13.444  0.2991 -0.1104 -0.0417
 2234DOPE   D2A26210  15.575  31.515  13.090 -0.0402  0.0891 -0.1748
 2234DOPE   C3A26211  15.782  31.701  12.736 -0.0882 -0.0753 -0.2054
 2234DOPE   C4A26212  15.931  31.941  12.351 -0.0434 -0.2663  0.2785
 2234DOPE   C1B26213  14.876  31.938  13.332  0.0414 -0.1574 -0.1142
 2234DOPE   D2B26214  14.821  32.397  13.108  0.0733  0.5001  0.1250
 2234DOPE   C3B26215  14.558  32.378  12.688  0.2579 -0.3122 -0.0948
 2234DOPE   C4B26216  14.382  32.557  12.295 -0.3042  0.0736  0.1534
 2235DOPE   NH326217  19.919  30.647  13.100  0.0411  0.0301  0.0779
 2235DOPE   PO426218  19.934  31.002  13.099  0.1005 -0.5324 -0.2607
 2235DOPE   GL126219  19.971  30.984  12.698  0.1105 -0.0556  0.6884
 2235DOPE   GL226220  19.924  30.659  12.588  0.0730  0.2460  0.1575
 2235DOPE   C1A26221  20.197  31.092  12.291  0.3409 -0.0670  0.1184
 2235DOPE   D2A26222  20.193  31.079  11.818 -0.0792  0.0346 -0.2909
 2235DOPE   C3A26223  19.775  30.835  11.661 -0.1987 -0.0903  0.0121
 2235DOPE   C4A26224  19.535  30.501  11.598 -0.2688 -0.0514  0.0326
 2235DOPE   C1B26225  19.946  30.643  12.120 -0.1319 -0.1049 -0.0393
 2235DOPE   D2B26226  20.160  30.561  11.715 -0.2353  0.2052  0.0977
 2235DOPE   C3B26227  20.032  30.569  11.287  0.0903 -0.2356 -0.0906
 2235DOPE   C4B26228  19.838  30.529  10.858 -0.1758 -0.2659 -0.0470
 2236DOPE   NH326229  21.820  27.571  13.324 -0.1862 -0.0987 -0.3822
 2236DOPE   PO426230  22.156  27.598  13.261  0.2238  0.0401 -0.1502
 2236DOPE   GL126231  22.010  27.555  12.822  0.3120 -0.1580  0.2499
 2236DOPE   GL226232  21.782  27.734  12.832 -0.0711  0.1733 -0.0185
 2236DOPE   C1A26233  22.233  27.599  12.371  0.1466  0.1613  0.1075
 2236DOPE   D2A26234  22.355  27.722  11.975  0.0037  0.2389 -0.5201
 2236DOPE   C3A26235  22.012  27.615  11.729 -0.0770  0.0292  0.3706
 2236DOPE   C4A26236  21.693  27.802  11.535 -0.1165 -0.3251 -0.0587
 2236DOPE   C1B26237  21.926  27.974  12.442  0.2138 -0.0812  0.2076
 2236DOPE   D2B26238  21.765  28.107  12.000  0.0864 -0.4331 -0.0353
 2236DOPE   C3B26239  21.619  28.288  11.665  0.2267  0.2286 -0.0284
 2236DOPE   C4B26240  21.273  28.382  11.354  0.6515 -0.2528  0.3190
 2237DOPC   NC326241  20.936  33.725  13.388 -0.1454  0.0593  0.0721
 2237DOPC   PO426242  21.281  33.941  13.324 -0.1301 -0.0325 -0.0295
 2237DOPC   GL126243  20.997  33.946  13.009 -0.0933  0.1393 -0.2312
 2237DOPC   GL226244  21.047  34.091  12.820  0.0410  0.0195 -0.1164
 2237DOPC   C1A26245  20.533  33.975  12.946 -0.2873 -0.4097 -0.1944
 2237DOPC   D2A26246  20.111  34.126  13.167  0.0504  0.0983 -0.2148
 2237DOPC   C3A26247  19.679  34.119  13.088 -0.0526  0.1195  0.3431
 2237DOPC   C4A26248  19.259  34.054  13.262  0.2545 -0.3954  0.2086
 2237DOPC   C1B26249  21.462  33.912  12.646 -0.2860 -0.1859 -0.0273
 2237DOPC   D2B26250  21.658  33.833  12.232  0.1018  0.3572 -0.0511
 2237DOPC   C3B26251  21.365  33.905  11.892 -0.0025  0.0082  0.1550
 2237DOPC   C4B26252  21.136  33.930  11.534 -0.1028  0.2841  0.0381
 2238POSM   NC326253  12.627  29.468  14.365 -0.4476  0.1522  0.0587
 2238POSM   PO426254  12.486  29.803  14.220 -0.0280  0.0294 -0.1501
 2238POSM   AM126255  12.502  29.692  13.920 -0.2032 -0.1550 -0.2189
 2238POSM   AM226256  12.626  29.463  13.860 -0.1075  0.1638  0.0884
 2238POSM   T1A26257  12.166  29.657  13.535 -0.3292 -0.0544  0.1303
 2238POSM   C2A26258  11.833  29.859  13.202  0.0821  0.0190 -0.4161
 2238POSM   C3A26259  11.512  30.163  13.041  0.3745  0.2169 -0.2832
 2238POSM   C1B26260  12.621  29.461  13.503  0.2859  0.0118 -0.1151
 2238POSM   D2B26261  12.569  29.464  13.030 -0.3646  0.2906 -0.0297
 2238POSM   C3B26262  12.600  29.579  12.559 -0.1619  0.1349 -0.1599
 2238POSM   C4B26263  12.364  29.645  12.180 -0.0428 -0.0080 -0.0749
 2239POSM   NC326264   8.927  31.145  14.990 -0.1730 -0.2422  0.3895
 2239POSM   PO426265   9.145  31.453  14.910  0.0799  0.4228 -0.1714
 2239POSM   AM126266   9.162  31.508  14.563  0.1287  0.0050  0.2186
 2239POSM   AM226267   9.293  31.408  14.326  0.3694 -0.1249 -0.0367
 2239POSM   T1A26268   8.933  31.776  14.176  0.1076  0.3425 -0.3311
 2239POSM   C2A26269   8.805  32.223  14.051  0.4208 -0.2728  0.1003
 2239POSM   C3A26270   8.566  32.239  13.608  0.0566 -0.0425  0.0320
 2239POSM   C1B26271   9.471  31.354  14.033  0.1325 -0.1551 -0.2073
 2239POSM   D2B26272   9.513  31.351  13.537 -0.3423 -0.1945  0.0802
 2239POSM   C3B26273   9.371  31.022  13.258 -0.0877  0.0540  0.0552
 2239POSM   C4B26274   9.252  30.646  12.997  0.3186 -0.1308  0.0386
 2240DOPC   NC326275  16.678  28.241  14.064  0.0303  0.0945  0.6355
 2240DOPC   PO426276  16.775  28.509  13.815 -0.0994 -0.0176 -0.4374
 2240DOPC   GL126277  16.796  28.354  13.460 -0.2285  0.2679 -0.1118
 2240DOPC   GL226278  16.858  28.658  13.313  0.3466  0.3197 -0.3491
 2240DOPC   C1A26279  17.039  28.294  13.063 -0.1175  0.0054 -0.1431
 2240DOPC   D2A26280  16.931  28.626  12.741  0.1118 -0.0067 -0.0641
 2240DOPC   C3A26281  17.080  28.747  12.325 -0.0444 -0.1394 -0.2498
 2240DOPC   C4A26282  17.267  28.449  12.067 -0.1872 -0.2431 -0.2626
 2240DOPC   C1B26283  16.499  28.547  13.001 -0.1299 -0.0145 -0.1427
 2240DOPC   D2B26284  16.289  28.627  12.571 -0.0297 -0.3159  0.5399
 2240DOPC   C3B26285  16.340  28.317  12.198 -0.5550 -0.2497 -0.0524
 2240DOPC   C4B26286  16.599  28.091  11.853 -0.2392 -0.1565  0.1662
 2241DOPC   NC326287  20.472  29.440  13.140  0.1773  0.0953 -0.2110
 2241DOPC   PO426288  20.183  29.174  13.083 -0.1812 -0.0044  0.0930
 2241DOPC   GL126289  20.285  28.983  12.733 -0.2544 -0.2158  0.1011
 2241DOPC   GL226290  20.166  29.203  12.573 -0.1021  0.2472  0.2045
 2241DOPC   C1A26291  20.604  28.834  12.421  0.1838 -0.1143  0.1274
 2241DOPC   D2A26292  20.682  28.695  12.009  0.2762  0.1967  0.0027
 2241DOPC   C3A26293  20.942  28.941  11.670 -0.2385  0.2202  0.2552
 2241DOPC   C4A26294  21.233  29.269  11.734 -0.0184 -0.0716 -0.2571
 2241DOPC   C1B26295  20.155  28.937  12.230 -0.0584 -0.2598 -0.0785
 2241DOPC   D2B26296  20.205  28.546  11.895  0.3125  0.0507 -0.0326
 2241DOPC   C3B26297  20.417  28.637  11.537 -0.0593  0.3517  0.0505
 2241DOPC   C4B26298  20.406  28.461  11.137  0.1405 -0.3209 -0.2127
 2242DOPS   CNO26299   9.558  32.792  14.718  0.2090 -0.0436  0.0536
 2242DOPS   PO426300   9.637  33.127  14.582 -0.0143 -0.1769 -0.2463
 2242DOPS   GL126301   9.543  33.155  14.190 -0.1086 -0.1616 -0.1423
 2242DOPS   GL226302   9.349  33.188  14.027 -0.1665 -0.4909 -0.4431
 2242DOPS   C1A26303   9.776  32.992  13.817  0.0996  0.1015  0.1186
 2242DOPS   D2A26304   9.923  32.811  13.419  0.2099  0.1855 -0.1057
 2242DOPS   C3A26305   9.774  32.818  13.001 -0.0611  0.3924 -0.4178
 2242DOPS   C4A26306   9.503  33.021  12.664  0.0333  0.2274  0.1696
 2242DOPS   C1B26307   9.286  32.996  13.556 -0.3553  0.0893 -0.1310
 2242DOPS   D2B26308   9.271  32.895  13.125  0.1676  0.0494 -0.1604
 2242DOPS   C3B26309   9.011  32.665  12.808 -0.1169 -0.1205  0.0923
 2242DOPS   C4B26310   9.026  32.227  12.592 -0.1462 -0.0434 -0.0281
 2243DOPE   NH326311  16.648  21.880  12.681 -0.3078  0.1176  0.0179
 2243DOPE   PO426312  16.358  21.898  12.818 -0.0801 -0.2481 -0.1464
 2243DOPE   GL126313  16.178  21.633  12.601  0.0995  0.3671  0.0095
 2243DOPE   GL226314  15.882  21.711  12.608 -0.0829  0.0311 -0.1794
 2243DOPE   C1A26315  16.383  21.736  12.160  0.1339 -0.2053  0.0615
 2243DOPE   D2A26316  16.353  21.651  11.716  0.1172  0.0138  0.1728
 2243DOPE   C3A26317  16.448  21.190  11.605  0.1608  0.1356 -0.5313
 2243DOPE   C4A26318  16.226  20.980  11.265  0.1581  0.1174 -0.0620
 2243DOPE   C1B26319  15.494  21.941  12.468  0.0397  0.1230 -0.0714
 2243DOPE   D2B26320  15.352  21.894  12.022 -0.0498 -0.0374  0.0612
 2243DOPE   C3B26321  15.559  21.958  11.597  0.0028  0.1728  0.2366
 2243DOPE   C4B26322  15.356  22.040  11.211  0.0908 -0.2100  0.3892
 2244DOPS   CNO26323  19.326  26.630  14.200  0.2310 -0.0507  0.2425
 2244DOPS   PO426324  19.045  26.581  13.930 -0.1661 -0.3419  0.1557
 2244DOPS   GL126325  18.855  26.637  13.589  0.0363 -0.2818  0.2258
 2244DOPS   GL226326  18.844  26.949  13.570  0.0166 -0.0383 -0.1857
 2244DOPS   C1A26327  19.022  26.744  13.162 -0.0841 -0.1427 -0.0747
 2244DOPS   D2A26328  19.336  26.903  12.820 -0.1117 -0.0257 -0.0066
 2244DOPS   C3A26329  19.261  26.787  12.371  0.0871 -0.2525  0.1661
 2244DOPS   C4A26330  19.416  26.657  11.917  0.0466  0.0368 -0.0338
 2244DOPS   C1B26331  18.873  27.230  13.217 -0.4227  0.5867 -0.1756
 2244DOPS   D2B26332  18.501  27.417  12.975  0.2247 -0.2577 -0.1673
 2244DOPS   C3B26333  18.523  27.483  12.496 -0.0425 -0.1942 -0.0391
 2244DOPS   C4B26334  18.795  27.224  12.268 -0.1403  0.3061  0.2153
 2245DOPE   NH326335  25.912  23.956   9.733 -0.1672  0.1783  0.2607
 2245DOPE   PO426336  25.695  23.838   9.896 -0.0759  0.3896  0.5286
 2245DOPE   GL126337  25.457  23.671  10.213  0.1610 -0.2426  0.0004
 2245DOPE   GL226338  25.146  23.666  10.221  0.0835 -0.1683 -0.0850
 2245DOPE   C1A26339  25.439  23.716  10.670 -0.1819 -0.1185 -0.0024
 2245DOPE   D2A26340  25.436  23.332  10.944 -0.1011 -0.0312 -0.1576
 2245DOPE   C3A26341  25.775  23.296  11.252 -0.0386 -0.0397 -0.0045
 2245DOPE   C4A26342  26.118  23.346  11.489  0.1130  0.3069  0.0397
 2245DOPE   C1B26343  24.941  23.684  10.576  0.0811  0.3416 -0.0135
 2245DOPE   D2B26344  24.538  23.580  10.756 -0.1254 -0.3107 -0.0926
 2245DOPE   C3B26345  24.161  23.523  10.482  0.0865 -0.1633  0.2095
 2245DOPE   C4B26346  24.123  23.579  10.016  0.1083 -0.1195 -0.0427
 2246DOPS   CNO26347  12.394  28.130   9.811 -0.1552  0.3062  0.3827
 2246DOPS   PO426348  12.333  27.893  10.089  0.0704  0.0760  0.0304
 2246DOPS   GL126349  12.548  27.821  10.408  0.3896 -0.1922  0.0022
 2246DOPS   GL226350  12.573  27.997  10.620  0.0865 -0.3042  0.1154
 2246DOPS   C1A26351  12.921  27.652  10.628 -0.0253 -0.1092  0.0439
 2246DOPS   D2A26352  13.336  27.602  10.483  0.0695 -0.2522  0.3568
 2246DOPS   C3A26353  13.639  27.335  10.730 -0.0504  0.1195  0.0906
 2246DOPS   C4A26354  13.607  26.955  10.945  0.2550 -0.3766 -0.1392
 2246DOPS   C1B26355  12.623  27.801  11.033  0.1543  0.1340 -0.0346
 2246DOPS   D2B26356  12.394  27.615  11.379 -0.5561 -0.0061  0.0511
 2246DOPS   C3B26357  12.625  27.652  11.794  0.2181  0.2625  0.2261
 2246DOPS   C4B26358  12.598  27.715  12.302 -0.2744 -0.0686  0.1132
 2247DOPE   NH326359  22.216  24.105   9.589 -0.2140  0.2023  0.1303
 2247DOPE   PO426360  22.162  24.419   9.475 -0.0008 -0.0286 -0.0423
 2247DOPE   GL126361  22.084  24.378   9.900  0.0052  0.1260  0.3542
 2247DOPE   GL226362  22.396  24.354  10.058 -0.0387  0.0023  0.1077
 2247DOPE   C1A26363  21.954  24.580  10.324 -0.1438  0.0438 -0.1505
 2247DOPE   D2A26364  21.686  24.494  10.720 -0.1356 -0.0070 -0.0357
 2247DOPE   C3A26365  21.815  24.628  11.150  0.1752  0.2294  0.1648
 2247DOPE   C4A26366  21.834  25.055  11.389 -0.1670 -0.1155  0.0430
 2247DOPE   C1B26367  22.123  24.121  10.290 -0.3289  0.0876  0.0790
 2247DOPE   D2B26368  22.155  23.693  10.514 -0.2635  0.0386 -0.1999
 2247DOPE   C3B26369  22.409  23.606  10.905 -0.1496  0.2439  0.0924
 2247DOPE   C4B26370  22.515  23.382  11.269  0.0766  0.1916 -0.1090
 2248DOPE   NH326371  23.261  25.253   9.736 -0.4009 -0.0916 -0.3884
 2248DOPE   PO426372  23.241  25.503   9.638  0.2073 -0.0093 -0.1214
 2248DOPE   GL126373  23.280  25.714   9.992  0.1607 -0.0945 -0.0203
 2248DOPE   GL226374  23.298  25.435  10.217 -0.0188 -0.0368  0.3831
 2248DOPE   C1A26375  23.027  26.020  10.191  0.3357  0.0669 -0.0885
 2248DOPE   D2A26376  22.931  26.437  10.373 -0.0239 -0.0476  0.2422
 2248DOPE   C3A26377  23.069  26.611  10.802 -0.2684  0.1983 -0.1742
 2248DOPE   C4A26378  23.182  26.659  11.312 -0.1552 -0.2109  0.1600
 2248DOPE   C1B26379  23.450  25.226  10.575 -0.0540  0.1677 -0.2609
 2248DOPE   D2B26380  23.348  24.881  10.899  0.0149  0.1094  0.0043
 2248DOPE   C3B26381  23.426  24.436  10.859 -0.1460  0.2904 -0.1937
 2248DOPE   C4B26382  23.532  24.102  10.582 -0.1060 -0.1776  0.0700
 2249DOPC   NC326383  22.757  26.269   9.321 -0.0969 -0.2718  0.1483
 2249DOPC   PO426384  22.662  26.590   9.111 -0.1973 -0.3103  0.0786
 2249DOPC   GL126385  22.514  26.695   9.539  0.3130 -0.3212  0.2650
 2249DOPC   GL226386  22.344  26.453   9.598 -0.0081  0.1177 -0.1977
 2249DOPC   C1A26387  22.591  26.707   9.989  0.0810  0.0868  0.0393
 2249DOPC   D2A26388  22.354  26.735  10.373  0.1195 -0.0010 -0.1529
 2249DOPC   C3A26389  22.526  26.748  10.774 -0.2177  0.0996 -0.0231
 2249DOPC   C4A26390  22.738  26.523  11.132 -0.0895  0.1010  0.1211
 2249DOPC   C1B26391  22.629  26.187   9.882  0.1969  0.4069 -0.0697
 2249DOPC   D2B26392  22.554  25.762  10.049 -0.3584 -0.0632  0.1638
 2249DOPC   C3B26393  22.732  25.777  10.489  0.0344  0.0199  0.1165
 2249DOPC   C4B26394  23.162  25.667  10.617 -0.2054 -0.1937 -0.1950
 2250DOPC   NC326395  16.325  29.133  10.042 -0.0535  0.1980  0.1741
 2250DOPC   PO426396  15.924  29.165   9.968 -0.1963 -0.0738  0.3208
 2250DOPC   GL126397  15.998  29.436  10.298  0.0537  0.1651 -0.2279
 2250DOPC   GL226398  16.167  29.307  10.460  0.1970  0.0771  0.0265
 2250DOPC   C1A26399  16.267  29.785  10.371  0.2217 -0.2420 -0.0737
 2250DOPC   D2A26400  16.437  29.772  10.819 -0.1632 -0.1187 -0.1963
 2250DOPC   C3A26401  16.309  29.376  10.986  0.2515  0.0264 -0.0990
 2250DOPC   C4A26402  16.127  29.129  11.309  0.2334  0.0053 -0.2966
 2250DOPC   C1B26403  16.024  28.963  10.729  0.0772 -0.0025 -0.1040
 2250DOPC   D2B26404  15.629  28.741  10.880  0.0417  0.1933  0.2750
 2250DOPC   C3B26405  15.353  28.985  11.185  0.1673  0.0167  0.1605
 2250DOPC   C4B26406  15.398  29.416  11.341 -0.1319 -0.0528 -0.1618
 2251DOPE   NH326407  14.505  31.642  10.257 -0.0295  0.1721  0.2592
 2251DOPE   PO426408  14.256  31.828  10.319  0.2425 -0.2147  0.3391
 2251DOPE   GL126409  14.509  31.889  10.675  0.1875  0.0792 -0.0990
 2251DOPE   GL226410  14.721  31.785  10.706  0.0536  0.1564 -0.1067
 2251DOPE   C1A26411  14.322  31.986  11.103  0.2781 -0.2414 -0.0215
 2251DOPE   D2A26412  14.389  31.975  11.546 -0.2244  0.0618 -0.1998
 2251DOPE   C3A26413  14.085  32.095  11.909 -0.1182 -0.0955  0.1345
 2251DOPE   C4A26414  13.968  32.005  12.329  0.0565  0.1005  0.3308
 2251DOPE   C1B26415  14.778  31.817  11.139 -0.0384  0.0629 -0.0900
 2251DOPE   D2B26416  14.935  31.909  11.519 -0.1529  0.1333 -0.1556
 2251DOPE   C3B26417  15.330  31.692  11.629  0.2052  0.1495  0.1680
 2251DOPE   C4B26418  15.754  31.861  11.695 -0.2049 -0.0981  0.0934
 2252DOPE   NH326419  20.403  30.206   8.973  0.1171 -0.2508 -0.1723
 2252DOPE   PO426420  20.459  30.502   9.008  0.0181 -0.2419  0.0668
 2252DOPE   GL126421  20.181  30.760   9.288 -0.1191  0.1714  0.0492
 2252DOPE   GL226422  20.389  30.882   9.401  0.2352 -0.5484 -0.0307
 2252DOPE   C1A26423  19.950  30.764   9.715 -0.0214 -0.3019  0.3043
 2252DOPE   D2A26424  19.772  30.538  10.052  0.0225 -0.0814  0.0854
 2252DOPE   C3A26425  19.983  30.408  10.417 -0.4228  0.1589  0.1785
 2252DOPE   C4A26426  20.227  30.290  10.768 -0.2954 -0.0991  0.2246
 2252DOPE   C1B26427  20.232  31.164   9.789  0.2149 -0.2473 -0.1293
 2252DOPE   D2B26428  20.268  31.338  10.216  0.0550 -0.1565  0.0616
 2252DOPE   C3B26429  20.354  31.255  10.655 -0.2963  0.1111  0.0963
 2252DOPE   C4B26430  20.663  31.200  11.047 -0.1459  0.2913  0.3075
 2253DOPE   NH326431  19.128  27.521   9.634  0.1402 -0.1569 -0.0704
 2253DOPE   PO426432  19.406  27.715   9.716 -0.2135 -0.1031 -0.2048
 2253DOPE   GL126433  19.664  27.696  10.043 -0.1654 -0.1218  0.2761
 2253DOPE   GL226434  19.662  27.967  10.055  0.1265  0.0407 -0.0028
 2253DOPE   C1A26435  19.983  27.558  10.408  0.0560  0.0933 -0.0185
 2253DOPE   D2A26436  20.148  27.271  10.750  0.2256 -0.1901  0.1528
 2253DOPE   C3A26437  20.041  27.530  11.137  0.1142  0.0258 -0.1395
 2253DOPE   C4A26438  20.207  27.531  11.606 -0.1579  0.2410 -0.0519
 2253DOPE   C1B26439  19.992  28.081  10.401  0.1514  0.0272  0.3581
 2253DOPE   D2B26440  20.221  27.913  10.761  0.2241  0.0784 -0.0905
 2253DOPE   C3B26441  20.224  27.974  11.162  0.2845 -0.0093  0.0582
 2253DOPE   C4B26442  20.012  28.257  11.459 -0.0925 -0.2208 -0.1185
 2254POSM   NC326443  12.662  33.015  10.671 -0.0112 -0.3246  0.2304
 2254POSM   PO426444  12.980  32.799  10.651  0.0855 -0.2060 -0.1716
 2254POSM   AM126445  12.903  32.737  10.975 -0.2328  0.1218  0.2075
 2254POSM   AM226446  12.882  32.462  11.070 -0.0265  0.0374 -0.2962
 2254POSM   T1A26447  12.634  32.830  11.415  0.0164  0.0039  0.0373
 2254POSM   C2A26448  12.486  32.981  11.770  0.1083  0.0066 -0.1536
 2254POSM   C3A26449  12.512  33.293  12.156 -0.1805 -0.0819  0.1757
 2254POSM   C1B26450  12.905  32.346  11.330 -0.4576 -0.0981  0.0348
 2254POSM   D2B26451  13.128  32.121  11.736 -0.2799 -0.2403 -0.0618
 2254POSM   C3B26452  13.549  32.371  11.821 -0.0936  0.1307 -0.1322
 2254POSM   C4B26453  13.715  32.589  12.223 -0.0426  0.3893  0.1871
 2255DOPE   NH326454  18.039  31.232   9.993 -0.0117 -0.0578  0.3813
 2255DOPE   PO426455  18.022  30.987  10.211 -0.1160  0.1526  0.0195
 2255DOPE   GL126456  18.328  30.933  10.542  0.0913 -0.1364 -0.2715
 2255DOPE   GL226457  18.413  31.198  10.638  0.1158  0.3528 -0.2678
 2255DOPE   C1A26458  18.473  30.763  10.935  0.2785  0.0034  0.3219
 2255DOPE   D2A26459  18.842  30.671  11.144  0.2708  0.1736 -0.1448
 2255DOPE   C3A26460  19.066  31.046  11.015  0.1842 -0.2030 -0.0089
 2255DOPE   C4A26461  19.484  31.107  10.816  0.0552 -0.0538  0.2453
 2255DOPE   C1B26462  18.679  31.385  10.976 -0.0071  0.0041 -0.0806
 2255DOPE   D2B26463  18.801  31.363  11.431 -0.0214  0.0611  0.1530
 2255DOPE   C3B26464  19.204  31.135  11.463 -0.1018  0.0955 -0.2411
 2255DOPE   C4B26465  19.480  30.862  11.227  0.0819 -0.0540  0.1881
 2256POSM   NC326466  18.546  30.626   9.751  0.1728  0.3438 -0.1724
 2256POSM   PO426467  18.684  30.273   9.632  0.2824  0.2217  0.0316
 2256POSM   AM126468  18.800  30.238   9.925 -0.0211 -0.3899  0.4256
 2256POSM   AM226469  18.846  30.087  10.144  0.2528  0.0924  0.0146
 2256POSM   T1A26470  19.111  30.487  10.195 -0.0728  0.2466 -0.1559
 2256POSM   C2A26471  19.449  30.293  10.458 -0.1705 -0.0302 -0.0710
 2256POSM   C3A26472  19.728  30.043  10.685  0.2540 -0.0346 -0.0482
 2256POSM   C1B26473  18.971  30.044  10.459 -0.1265 -0.0029  0.0982
 2256POSM   D2B26474  19.050  29.758  10.840  0.2419 -0.2003  0.0644
 2256POSM   C3B26475  19.458  29.840  11.056  0.0042  0.2078  0.0842
 2256POSM   C4B26476  19.671  30.212  11.201  0.1898 -0.0018  0.2275
 2257POSM   NC326477  13.644  24.320   9.860 -0.0410 -0.1008 -0.0909
 2257POSM   PO426478  13.306  24.334  10.056  0.0405 -0.1805  0.1882
 2257POSM   AM126479  13.318  24.183  10.355  0.2943 -0.4307 -0.1750
 2257POSM   AM226480  13.105  24.117  10.551  0.1318  0.0823  0.2263
 2257POSM   T1A26481  13.405  23.758  10.578  0.2501 -0.0398 -0.2184
 2257POSM   C2A26482  13.812  23.650  10.766 -0.0549  0.1867  0.0396
 2257POSM   C3A26483  14.229  23.506  10.754  0.0186 -0.0274 -0.0971
 2257POSM   C1B26484  13.193  24.302  10.845 -0.0159 -0.0745 -0.1809
 2257POSM   D2B26485  13.193  24.240  11.311 -0.4015  0.1410  0.0198
 2257POSM   C3B26486  13.124  23.802  11.526 -0.2533 -0.3305 -0.1790
 2257POSM   C4B26487  12.836  23.447  11.666  0.0216 -0.6287  0.5611
 2258DOPC   NC326488  19.461   0.067   9.821  0.1311  0.2232 -0.1057
 2258DOPC   PO426489  19.812   0.039   9.965 -0.1205 -0.4168 -0.2476
 2258DOPC   GL126490  19.851   0.110  10.413  0.0521 -0.1110  0.0697
 2258DOPC   GL226491  19.556   0.220  10.329  0.0345  0.2255 -0.1906
 2258DOPC   C1A26492  20.010  -0.168  10.761 -0.1327  0.1543 -0.0933
 2258DOPC   D2A26493  20.212  -0.188  11.146 -0.4230 -0.1221 -0.0261
 2258DOPC   C3A26494  20.630  -0.435  11.147 -0.0615 -0.0952  0.0040
 2258DOPC   C4A26495  20.734  -0.825  10.939  0.1116 -0.2426  0.0864
 2258DOPC   C1B26496  19.570   0.037  10.747 -0.1487  0.0249  0.1643
 2258DOPC   D2B26497  19.621  -0.128  11.160 -0.0355 -0.1726  0.0055
 2258DOPC   C3B26498  19.469  -0.367  11.520  0.3948  0.0824 -0.1044
 2258DOPC   C4B26499  19.535  -0.810  11.740 -0.2441 -0.0860 -0.0722
 2259DOPC   NC326500  19.756  34.062  10.028 -0.1029  0.0895 -0.2648
 2259DOPC   PO426501  19.624  33.702  10.062 -0.0960  0.2230  0.2785
 2259DOPC   GL126502  19.709  33.497  10.371  0.2542 -0.2312 -0.0114
 2259DOPC   GL226503  19.976  33.358  10.265 -0.1075  0.0968  0.2503
 2259DOPC   C1A26504  20.097  33.726  10.559  0.2960 -0.0729  0.0850
 2259DOPC   D2A26505  20.285  33.665  10.943 -0.2375 -0.2005 -0.0963
 2259DOPC   C3A26506  20.213  33.814  11.356  0.2804  0.1405  0.3220
 2259DOPC   C4A26507  19.971  34.031  11.658  0.1632  0.0235  0.0508
 2259DOPC   C1B26508  20.220  33.248  10.672  0.2229 -0.3381 -0.2425
 2259DOPC   D2B26509  20.553  33.203  10.974 -0.1026  0.1165  0.0360
 2259DOPC   C3B26510  20.554  33.233  11.455 -0.0635  0.2238  0.2663
 2259DOPC   C4B26511  20.658  33.369  11.885  0.0240  0.2549  0.1245
 2260DOPC   NC326512  15.580  28.751   9.880  0.0163  0.0545  0.0159
 2260DOPC   PO426513  15.292  28.813  10.159  0.0450  0.0313  0.0585
 2260DOPC   GL126514  15.286  28.843  10.613  0.1765 -0.1885 -0.0691
 2260DOPC   GL226515  15.053  28.611  10.600  0.0207 -0.0193  0.2201
 2260DOPC   C1A26516  15.024  29.137  10.886 -0.3559 -0.0703  0.0316
 2260DOPC   D2A26517  14.852  29.355  11.254  0.0968  0.0612  0.1302
 2260DOPC   C3A26518  15.057  29.316  11.679 -0.0548  0.0774  0.1591
 2260DOPC   C4A26519  15.149  29.653  11.967 -0.0046 -0.0842 -0.1953
 2260DOPC   C1B26520  14.969  28.614  11.042  0.1785  0.2381  0.2988
 2260DOPC   D2B26521  15.028  28.773  11.485  0.1834  0.3523 -0.1714
 2260DOPC   C3B26522  15.406  28.984  11.657  0.2114  0.2189  0.0428
 2260DOPC   C4B26523  15.551  29.346  11.874 -0.3767 -0.1001  0.0336
 2261DOPE   NH326524  17.369  23.823   9.641 -0.2886 -0.0301 -0.1159
 2261DOPE   PO426525  17.083  23.651   9.606 -0.0704 -0.4519  0.0411
 2261DOPE   GL126526  17.044  23.751  10.041 -0.2340  0.0171 -0.2048
 2261DOPE   GL226527  17.145  23.484  10.112  0.1515 -0.2089 -0.3965
 2261DOPE   C1A26528  16.712  23.613  10.354  0.1545 -0.1441  0.2589
 2261DOPE   D2A26529  16.300  23.847  10.428 -0.1449  0.0182  0.0159
 2261DOPE   C3A26530  16.183  23.945  10.877 -0.1882 -0.0219  0.1798
 2261DOPE   C4A26531  16.321  23.880  11.309  0.0323  0.0664 -0.3539
 2261DOPE   C1B26532  17.310  23.460  10.584 -0.0673 -0.0730  0.0569
 2261DOPE   D2B26533  17.467  23.296  11.014  0.1114 -0.1144  0.4760
 2261DOPE   C3B26534  17.427  22.799  11.068  0.2764 -0.2109 -0.2012
 2261DOPE   C4B26535  17.031  22.544  11.070 -0.1816 -0.2311  0.4620
 2262POSM   NC326536  16.340  25.232   9.493  0.1207 -0.0346 -0.1110
 2262POSM   PO426537  15.968  25.101   9.453 -0.1687 -0.2575  0.0451
 2262POSM   AM126538  15.917  25.063   9.790 -0.2708  0.0661  0.2177
 2262POSM   AM226539  15.793  25.211  10.016  0.0511  0.1927  0.0313
 2262POSM   T1A26540  16.069  24.752  10.143 -0.0222 -0.2456 -0.2660
 2262POSM   C2A26541  16.276  24.313  10.202  0.1710  0.1405 -0.1836
 2262POSM   C3A26542  16.670  24.028  10.125  0.1153  0.0777  0.3144
 2262POSM   C1B26543  15.700  25.166  10.385 -0.3613 -0.1740  0.3718
 2262POSM   D2B26544  15.708  25.238  10.809  0.0197 -0.3074 -0.0765
 2262POSM   C3B26545  15.666  25.590  11.096 -0.1786 -0.2699  0.2257
 2262POSM   C4B26546  15.612  25.679  11.486  0.1779 -0.0612 -0.1652
 2263DOPE   NH326547  11.078  32.695  10.613  0.0888  0.1320  0.0945
 2263DOPE   PO426548  11.293  32.905  10.638 -0.0257 -0.2906  0.2210
 2263DOPE   GL126549  11.368  32.753  10.955  0.1946 -0.0232  0.1579
 2263DOPE   GL226550  11.112  32.684  11.102  0.0535 -0.4152  0.0341
 2263DOPE   C1A26551  11.528  32.786  11.372 -0.1797 -0.2876  0.3489
 2263DOPE   D2A26552  11.531  33.032  11.799  0.0338 -0.0836  0.1298
 2263DOPE   C3A26553  11.649  33.271  12.125  0.3182 -0.2004 -0.0132
 2263DOPE   C4A26554  11.708  33.363  12.576  0.1139 -0.0237 -0.0511
 2263DOPE   C1B26555  10.864  32.448  11.449 -0.1969 -0.1201 -0.0568
 2263DOPE   D2B26556  10.532  32.322  11.748 -0.0334 -0.0149  0.1464
 2263DOPE   C3B26557  10.783  32.653  11.979 -0.0508  0.1741  0.2482
 2263DOPE   C4B26558  10.833  32.978  12.381  0.0571 -0.1891 -0.0651
 2264DOPC   NC326559  21.626  23.630   9.275 -0.0163  0.1486 -0.0269
 2264DOPC   PO426560  21.989  23.787   9.353  0.3710  0.0977  0.0493
 2264DOPC   GL126561  21.836  23.669   9.762 -0.0393  0.0070  0.2730
 2264DOPC   GL226562  21.568  23.739   9.760  0.0880 -0.2105 -0.1275
 2264DOPC   C1A26563  21.786  23.554  10.168  0.0881  0.1122  0.0417
 2264DOPC   D2A26564  21.630  23.738  10.588  0.1351  0.1410  0.0958
 2264DOPC   C3A26565  21.879  23.911  10.984  0.2480 -0.0170 -0.1776
 2264DOPC   C4A26566  22.179  24.182  11.280  0.0197 -0.2021 -0.2625
 2264DOPC   C1B26567  21.273  23.820  10.129  0.0079 -0.2274  0.1722
 2264DOPC   D2B26568  21.103  23.771  10.595  0.0607  0.1213 -0.0733
 2264DOPC   C3B26569  20.719  23.588  10.823  0.0118  0.0632  0.3211
 2264DOPC   C4B26570  20.357  23.483  10.528  0.0336  0.0261 -0.3260
 2265POSM   NC326571  18.288  24.279   9.469  0.0310  0.3815 -0.3542
 2265POSM   PO426572  18.592  24.491   9.483  0.1087  0.2745  0.1817
 2265POSM   AM126573  18.684  24.301   9.754 -0.7267  0.2755  0.6049
 2265POSM   AM226574  18.711  24.024   9.783 -0.1297 -0.0817  0.1509
 2265POSM   T1A26575  18.872  24.185  10.197 -0.2636  0.1607 -0.0096
 2265POSM   C2A26576  18.989  23.838  10.489  0.3272  0.3236 -0.1049
 2265POSM   C3A26577  18.862  23.644  10.882  0.1908 -0.1250 -0.0752
 2265POSM   C1B26578  18.552  23.843   9.974 -0.0175  0.0637 -0.0042
 2265POSM   D2B26579  18.280  23.608  10.247  0.1811  0.0688  0.5042
 2265POSM   C3B26580  18.379  23.615  10.669  0.1047 -0.2412  0.2175
 2265POSM   C4B26581  18.415  23.786  11.038  0.2003 -0.2103 -0.0386
 2266DOPE   NH326582  24.510  28.277   9.632 -0.3552 -0.1138 -0.3051
 2266DOPE   PO426583  24.732  28.526   9.729 -0.0864 -0.2315  0.5335
 2266DOPE   GL126584  24.911  28.385  10.132  0.0769 -0.1069 -0.3012
 2266DOPE   GL226585  24.776  28.695  10.215 -0.0636 -0.0776  0.2630
 2266DOPE   C1A26586  25.191  28.472  10.522  0.1999 -0.2052  0.0360
 2266DOPE   D2A26587  25.190  28.783  10.814  0.1044  0.2337  0.3447
 2266DOPE   C3A26588  24.838  28.595  11.079  0.0786 -0.0276 -0.1241
 2266DOPE   C4A26589  24.767  28.217  11.377 -0.3176 -0.0183 -0.0751
 2266DOPE   C1B26590  24.750  28.948  10.595  0.3485  0.1857 -0.0883
 2266DOPE   D2B26591  24.723  29.106  11.010  0.3965  0.2236  0.0460
 2266DOPE   C3B26592  24.836  29.394  11.303  0.0501 -0.2614  0.1236
 2266DOPE   C4B26593  24.830  29.854  11.234  0.2431  0.2070  0.0975
 2267DOPE   NH326594   9.381  28.074  10.668  0.0161 -0.1518  0.0842
 2267DOPE   PO426595   9.297  27.735  10.581 -0.2587  0.2313  0.2064
 2267DOPE   GL126596   9.271  27.679  10.942  0.1360  0.4421  0.0231
 2267DOPE   GL226597   9.561  27.721  11.056  0.2982  0.0192 -0.0401
 2267DOPE   C1A26598   9.238  27.657  11.411 -0.1206  0.0959 -0.1380
 2267DOPE   D2A26599   9.116  27.333  11.624 -0.0254 -0.1726 -0.0029
 2267DOPE   C3A26600   9.297  27.366  12.096 -0.1262  0.0611  0.1655
 2267DOPE   C4A26601   9.023  27.297  12.395  0.0441 -0.2469 -0.1872
 2267DOPE   C1B26602   9.620  27.932  11.460 -0.1057 -0.1238 -0.0696
 2267DOPE   D2B26603   9.460  27.768  11.797  0.1215  0.3824  0.1364
 2267DOPE   C3B26604   9.535  27.830  12.237  0.4315  0.1119  0.0354
 2267DOPE   C4B26605   9.493  28.087  12.645 -0.2102  0.0790 -0.1021
 2268DOPC   NC326606  19.030  28.643   9.907  0.2499 -0.2471 -0.0633
 2268DOPC   PO426607  18.943  28.923   9.622  0.2433 -0.0683  0.1386
 2268DOPC   GL126608  19.170  29.211   9.949 -0.2059 -0.1926  0.0323
 2268DOPC   GL226609  19.021  29.069  10.176 -0.3352 -0.1506  0.0861
 2268DOPC   C1A26610  19.450  29.239  10.326  0.1585 -0.0435  0.1081
 2268DOPC   D2A26611  19.824  29.148  10.593 -0.0416 -0.1198 -0.2185
 2268DOPC   C3A26612  19.820  29.570  10.817 -0.2365  0.1178 -0.0616
 2268DOPC   C4A26613  20.038  29.855  11.158 -0.0769  0.3935 -0.1261
 2268DOPC   C1B26614  18.980  29.317  10.584 -0.0226 -0.2615 -0.2655
 2268DOPC   D2B26615  18.949  29.221  11.040 -0.0566 -0.1878 -0.2817
 2268DOPC   C3B26616  19.223  29.497  11.338 -0.2280 -0.2696  0.1867
 2268DOPC   C4B26617  19.439  29.864  11.639 -0.1478 -0.0065 -0.1364
 2269DOPE   NH326618  15.215  31.471  10.377  0.0265  0.0975  0.3540
 2269DOPE   PO426619  14.988  31.735  10.273 -0.1975  0.2906  0.2738
 2269DOPE   GL126620  15.081  31.980  10.525 -0.6334  0.0430 -0.0401
 2269DOPE   GL226621  15.192  31.850  10.765 -0.0969  0.0862  0.2225
 2269DOPE   C1A26622  14.802  32.259  10.790 -0.0434 -0.1873 -0.1368
 2269DOPE   D2A26623  14.644  32.412  11.183  0.3141 -0.2666 -0.2926
 2269DOPE   C3A26624  14.198  32.467  11.211  0.0296 -0.2834  0.0182
 2269DOPE   C4A26625  13.873  32.166  11.341  0.0661  0.1529  0.2127
 2269DOPE   C1B26626  15.169  31.522  11.112  0.4570  0.1675  0.1678
 2269DOPE   D2B26627  14.973  31.313  11.494  0.0334  0.0966  0.2547
 2269DOPE   C3B26628  15.285  31.170  11.823 -0.0803 -0.0271  0.1526
 2269DOPE   C4B26629  15.478  30.732  11.937 -0.1212 -0.2471  0.1101
 2270POSM   NC326630  21.365  27.961   9.342  0.1869  0.2562 -0.4516
 2270POSM   PO426631  21.357  27.564   9.281 -0.2553 -0.0264  0.1998
 2270POSM   AM126632  21.431  27.492   9.599  0.4613  0.1047  0.1360
 2270POSM   AM226633  21.483  27.583   9.842 -0.0016  0.1676  0.1149
 2270POSM   T1A26634  21.568  27.109   9.890 -0.0050  0.2979  0.1647
 2270POSM   C2A26635  21.678  26.696  10.183 -0.2226 -0.2247  0.0912
 2270POSM   C3A26636  21.888  26.544  10.552  0.0310 -0.1596 -0.2669
 2270POSM   C1B26637  21.237  27.631  10.003 -0.0490 -0.2118 -0.2114
 2270POSM   D2B26638  20.943  27.728  10.384  0.2711 -0.1337 -0.0817
 2270POSM   C3B26639  21.058  27.796  10.811 -0.1170  0.0921  0.0402
 2270POSM   C4B26640  21.324  27.669  11.186 -0.1776 -0.4748  0.0900
 2271DOPC   NC326641  21.121  28.882   9.321  0.1437  0.1266 -0.3139
 2271DOPC   PO426642  21.198  28.481   9.239 -0.1861 -0.0771  0.2122
 2271DOPC   GL126643  21.257  28.416   9.602  0.0605  0.1443 -0.0906
 2271DOPC   GL226644  21.280  28.708   9.774 -0.0637 -0.2719 -0.0480
 2271DOPC   C1A26645  21.408  28.104   9.908  0.0597 -0.0627 -0.1750
 2271DOPC   D2A26646  21.611  27.901  10.241  0.0658  0.3108 -0.2519
 2271DOPC   C3A26647  21.549  28.042  10.695 -0.0198  0.1069  0.0364
 2271DOPC   C4A26648  21.625  28.176  11.117  0.0341  0.4209 -0.0564
 2271DOPC   C1B26649  21.189  28.712  10.212 -0.0065 -0.1108 -0.0555
 2271DOPC   D2B26650  21.218  28.950  10.658  0.1508  0.2442 -0.4645
 2271DOPC   C3B26651  21.335  29.363  10.821 -0.2096 -0.2003 -0.1780
 2271DOPC   C4B26652  21.718  29.549  11.003  0.1976 -0.0474 -0.1127
 2272POSM   NC326653  21.955  34.367   9.598 -0.1380 -0.0391  0.0962
 2272POSM   PO426654  21.881  34.762   9.432 -0.0792 -0.0423 -0.2314
 2272POSM   AM126655  21.788  34.933   9.715 -0.0352 -0.1983  0.2623
 2272POSM   AM226656  21.541  34.927   9.910  0.0640 -0.3836 -0.3614
 2272POSM   T1A26657  21.977  35.117  10.135  0.2471  0.0832 -0.1332
 2272POSM   C2A26658  22.183  35.257  10.550  0.1257 -0.0692  0.1717
 2272POSM   C3A26659  22.454  35.629  10.709  0.2130 -0.2210 -0.0227
 2272POSM   C1B26660  21.530  34.952  10.270  0.1330 -0.1736  0.1765
 2272POSM   D2B26661  21.778  35.040  10.651 -0.2013 -0.2335  0.3183
 2272POSM   C3B26662  21.947  35.380  10.951  0.0396 -0.0515 -0.0954
 2272POSM   C4B26663  22.294  35.637  11.155  0.2679 -0.2150  0.0837
 2273DOPE   NH326664  15.946  23.299   9.746 -0.0227  0.0202  0.0372
 2273DOPE   PO426665  15.660  23.228   9.815 -0.1840 -0.2075 -0.1509
 2273DOPE   GL126666  15.718  22.983  10.021 -0.0135  0.2517 -0.0662
 2273DOPE   GL226667  15.887  22.790   9.885 -0.0659 -0.0346 -0.2516
 2273DOPE   C1A26668  15.714  23.163  10.481 -0.1978 -0.0088 -0.2613
 2273DOPE   D2A26669  16.032  23.467  10.484  0.0696 -0.0266  0.2046
 2273DOPE   C3A26670  16.444  23.347  10.646  0.0801  0.0250  0.2695
 2273DOPE   C4A26671  16.514  23.245  11.073  0.1241 -0.0253 -0.0169
 2273DOPE   C1B26672  15.956  22.779  10.342 -0.1351  0.1082 -0.2837
 2273DOPE   D2B26673  15.851  22.657  10.779 -0.1034  0.1386  0.1682
 2273DOPE   C3B26674  15.843  23.084  10.937 -0.0003 -0.0755 -0.2513
 2273DOPE   C4B26675  16.008  23.504  11.046 -0.3334  0.0384  0.0201
 2274DOPC   NC326676  20.582  26.067   9.472 -0.0458  0.1562 -0.2049
 2274DOPC   PO426677  20.716  25.682   9.537 -0.1304 -0.1942 -0.2665
 2274DOPC   GL126678  21.050  25.917   9.666  0.1275 -0.2997 -0.3403
 2274DOPC   GL226679  20.876  26.028   9.879 -0.0491  0.0009 -0.0020
 2274DOPC   C1A26680  21.372  25.890  10.010 -0.0238 -0.3955 -0.2971
 2274DOPC   D2A26681  21.578  25.701  10.375  0.0533 -0.0278  0.0542
 2274DOPC   C3A26682  21.496  25.397  10.685 -0.0898 -0.2754  0.1782
 2274DOPC   C4A26683  21.504  24.994  10.881 -0.1352  0.0226  0.1219
 2274DOPC   C1B26684  20.684  26.043  10.299  0.0403 -0.1322  0.2004
 2274DOPC   D2B26685  20.396  26.078  10.660  0.2984 -0.0425 -0.1630
 2274DOPC   C3B26686  20.384  26.430  10.933  0.0601  0.0029 -0.1501
 2274DOPC   C4B26687  20.512  26.909  11.002 -0.1480  0.0459 -0.3127
 2275DOPE   NH326688  23.689  24.723   9.470  0.2383 -0.1076  0.2132
 2275DOPE   PO426689  23.510  24.799   9.721  0.0674 -0.2530  0.3179
 2275DOPE   GL126690  23.424  24.996  10.100 -0.1233  0.0690  0.0562
 2275DOPE   GL226691  23.714  24.978  10.157  0.1144 -0.0296 -0.2210
 2275DOPE   C1A26692  23.242  24.725  10.475 -0.4021  0.3109 -0.0327
 2275DOPE   D2A26693  22.919  24.614  10.817 -0.0386  0.4117 -0.0280
 2275DOPE   C3A26694  23.134  24.561  11.234 -0.2616 -0.2075 -0.2116
 2275DOPE   C4A26695  23.436  24.253  11.407 -0.2347 -0.1415  0.1107
 2275DOPE   C1B26696  23.762  24.643  10.460  0.2806 -0.2006 -0.0347
 2275DOPE   D2B26697  24.056  24.517  10.846  0.3608  0.3702  0.0980
 2275DOPE   C3B26698  23.906  24.152  11.066 -0.1517  0.2058  0.2074
 2275DOPE   C4B26699  23.725  23.797  11.332  0.0064 -0.2056  0.1584
 2276POSM   NC326700  13.495  29.645  10.030  0.1209 -0.2570  0.2059
 2276POSM   PO426701  13.394  29.475  10.382 -0.2351  0.1240  0.1832
 2276POSM   AM126702  13.486  29.386  10.639 -0.1835 -0.4675  0.1526
 2276POSM   AM226703  13.671  29.474  10.828 -0.1117 -0.1212  0.1389
 2276POSM   T1A26704  13.330  29.011  10.950 -0.0194  0.1717  0.2835
 2276POSM   C2A26705  13.071  28.754  11.183 -0.1233 -0.1530  0.1571
 2276POSM   C3A26706  12.945  28.313  11.250  0.0042 -0.1452 -0.1058
 2276POSM   C1B26707  13.765  29.452  11.115  0.0954 -0.0113 -0.0050
 2276POSM   D2B26708  13.930  29.652  11.499  0.1067 -0.0676 -0.2357
 2276POSM   C3B26709  13.607  29.838  11.851  0.0593  0.1936  0.0607
 2276POSM   C4B26710  13.339  29.926  12.144  0.0260 -0.0075 -0.1143
 2277DOPC   NC326711  18.231  33.786   9.921  0.0932 -0.1331 -0.2243
 2277DOPC   PO426712  18.086  33.471  10.098  0.2281  0.1733 -0.1064
 2277DOPC   GL126713  18.231  33.411  10.531 -0.0770 -0.2145  0.0283
 2277DOPC   GL226714  18.503  33.415  10.479  0.1312 -0.0207  0.0995
 2277DOPC   C1A26715  18.246  33.080  10.849  0.1978  0.3016  0.0777
 2277DOPC   D2A26716  18.319  32.742  11.081 -0.2647  0.0266  0.0094
 2277DOPC   C3A26717  18.704  32.682  11.361 -0.3170  0.0645  0.0807
 2277DOPC   C4A26718  18.924  32.747  11.718  0.0073 -0.0709  0.1436
 2277DOPC   C1B26719  18.382  33.585  10.923  0.2699 -0.2386  0.0392
 2277DOPC   D2B26720  18.186  33.642  11.349 -0.0604 -0.2046  0.0517
 2277DOPC   C3B26721  18.440  33.517  11.677  0.2558 -0.1371  0.0305
 2277DOPC   C4B26722  18.726  33.794  11.925  0.1433  0.2844 -0.0067
 2278POSM   NC326723  19.734  25.350   9.125 -0.2179 -0.3203  0.1878
 2278POSM   PO426724  19.810  25.308   9.509  0.0322 -0.1596 -0.2255
 2278POSM   AM126725  19.679  25.355   9.792  0.2248  0.1638  0.1589
 2278POSM   AM226726  19.747  25.245  10.017 -0.1952 -0.2602 -0.0493
 2278POSM   T1A26727  19.475  25.680  10.088 -0.0599 -0.0216 -0.1083
 2278POSM   C2A26728  19.348  25.643  10.529  0.0953 -0.0771  0.2460
 2278POSM   C3A26729  19.569  25.821  10.928 -0.0895  0.2200  0.2313
 2278POSM   C1B26730  19.497  25.176  10.208  0.1645 -0.1142 -0.1704
 2278POSM   D2B26731  19.258  25.079  10.601  0.0460  0.3644 -0.4121
 2278POSM   C3B26732  19.404  24.806  10.827 -0.0796  0.3308  0.0179
 2278POSM   C4B26733  19.335  24.559  11.241  0.0142 -0.0327 -0.0367
 2279POSM   NC326734  11.531  29.228   9.896  0.0769  0.0913  0.4148
 2279POSM   PO426735  11.771  29.321  10.152  0.3116  0.0654  0.3920
 2279POSM   AM126736  11.869  29.338  10.509 -0.0172 -0.1543 -0.6169
 2279POSM   AM226737  11.853  29.130  10.732  0.0866  0.1361 -0.0800
 2279POSM   T1A26738  11.920  29.677  10.876  0.0701  0.1204  0.0715
 2279POSM   C2A26739  11.874  29.913  11.274 -0.2612 -0.0825 -0.0011
 2279POSM   C3A26740  11.514  30.082  11.478 -0.0178  0.2196 -0.2534
 2279POSM   C1B26741  11.945  29.216  11.023 -0.4697 -0.0298  0.1119
 2279POSM   D2B26742  12.138  29.529  11.278  0.3596 -0.3011 -0.1127
 2279POSM   C3B26743  12.134  29.509  11.713 -0.2499 -0.3567 -0.3036
 2279POSM   C4B26744  12.185  29.178  11.969 -0.0783 -0.2877  0.0096
 2280DOPC   NC326745  16.202  27.206  10.311 -0.1483 -0.0749  0.0489
 2280DOPC   PO426746  15.866  27.026  10.332  0.2793 -0.3170  0.0071
 2280DOPC   GL126747  15.559  27.189  10.494  0.3608  0.1983 -0.2707
 2280DOPC   GL226748  15.441  27.034  10.714  0.0755  0.0114 -0.3245
 2280DOPC   C1A26749  15.591  27.453  10.904 -0.1770 -0.2792 -0.0988
 2280DOPC   D2A26750  15.577  27.867  11.097  0.1517 -0.1529 -0.0627
 2280DOPC   C3A26751  15.888  27.943  11.449  0.2200  0.3006 -0.0909
 2280DOPC   C4A26752  16.054  28.096  11.873  0.3119  0.0013 -0.0152
 2280DOPC   C1B26753  15.597  26.947  11.129 -0.1160  0.3153  0.0142
 2280DOPC   D2B26754  15.868  26.806  11.444 -0.2160  0.1437 -0.4277
 2280DOPC   C3B26755  16.318  26.824  11.608  0.3024 -0.2338  0.0340
 2280DOPC   C4B26756  16.506  27.179  11.955  0.2256  0.0044 -0.2232
 2281DOPE   NH326757  15.119  25.151   9.566 -0.0003 -0.1965  0.1637
 2281DOPE   PO426758  15.072  24.857   9.511 -0.0752 -0.0937  0.3100
 2281DOPE   GL126759  15.027  24.702   9.859  0.0475 -0.3826 -0.5428
 2281DOPE   GL226760  14.771  24.508   9.784 -0.1304  0.2283  0.0266
 2281DOPE   C1A26761  14.968  24.499  10.345  0.0543 -0.2022  0.0504
 2281DOPE   D2A26762  14.901  24.310  10.833  0.1801 -0.2539 -0.1748
 2281DOPE   C3A26763  15.149  23.880  11.015  0.1353 -0.0245 -0.2172
 2281DOPE   C4A26764  14.964  23.474  11.083  0.2671  0.1197  0.0784
 2281DOPE   C1B26765  14.532  24.653  10.181 -0.1487 -0.1457 -0.0914
 2281DOPE   D2B26766  14.261  25.010  10.245  0.0178 -0.1045  0.1611
 2281DOPE   C3B26767  14.240  25.339  10.579 -0.2630  0.0415 -0.2818
 2281DOPE   C4B26768  14.368  25.789  10.627 -0.0335 -0.1707  0.1584
 2282POSM   NC326769  13.122  34.759  10.550  0.1246  0.0056  0.1043
 2282POSM   PO426770  12.750  34.797  10.634 -0.0359  0.0014 -0.0618
 2282POSM   AM126771  12.801  34.755  10.943 -0.0056  0.4457 -0.1323
 2282POSM   AM226772  12.664  34.803  11.183 -0.2484 -0.0708  0.2947
 2282POSM   T1A26773  13.077  34.586  11.318 -0.2313 -0.0443 -0.0953
 2282POSM   C2A26774  13.273  34.585  11.738 -0.2054 -0.0009  0.1773
 2282POSM   C3A26775  13.402  34.861  12.091  0.1324 -0.3020  0.0668
 2282POSM   C1B26776  12.644  34.781  11.505  0.0086  0.0706 -0.4476
 2282POSM   D2B26777  12.839  34.816  11.947 -0.0258  0.1953  0.1323
 2282POSM   C3B26778  12.583  34.744  12.309  0.0409 -0.0891  0.1723
 2282POSM   C4B26779  12.283  34.549  12.625 -0.0100 -0.0750  0.0094
 2283POSM   NC326780  15.683  26.795   9.960 -0.3739 -0.0123  0.2684
 2283POSM   PO426781  15.383  26.956  10.115  0.1821  0.2125 -0.1080
 2283POSM   AM126782  15.166  26.997  10.342  0.0679 -0.0570 -0.1177
 2283POSM   AM226783  15.009  26.828  10.534 -0.0927  0.2577  0.2192
 2283POSM   T1A26784  15.110  27.382  10.623  0.0170  0.0250  0.0812
 2283POSM   C2A26785  15.122  27.597  11.033 -0.0562 -0.1377 -0.1775
 2283POSM   C3A26786  15.101  27.471  11.521 -0.0810 -0.3569  0.0459
 2283POSM   C1B26787  14.968  26.895  10.874  0.2076  0.0488 -0.0842
 2283POSM   D2B26788  14.819  27.243  11.149  0.4157 -0.1732 -0.0085
 2283POSM   C3B26789  14.600  27.247  11.559 -0.0057 -0.0178 -0.2281
 2283POSM   C4B26790  14.466  27.386  11.970  0.4082 -0.1594  0.0473
 2284DOPS   CNO26791  18.681  27.275   9.632 -0.4023  0.0943 -0.2451
 2284DOPS   PO426792  18.747  27.433   9.952 -0.0170 -0.1325  0.1116
 2284DOPS   GL126793  19.050  27.638  10.157  0.2502  0.0768 -0.2463
 2284DOPS   GL226794  19.155  27.343  10.200 -0.1291  0.0458  0.1459
 2284DOPS   C1A26795  19.447  27.660  10.438  0.2357 -0.0925 -0.2045
 2284DOPS   D2A26796  19.718  27.810  10.753 -0.2529 -0.1658  0.0035
 2284DOPS   C3A26797  19.701  27.914  11.176 -0.1607  0.1832 -0.0316
 2284DOPS   C4A26798  19.397  27.757  11.460  0.2207  0.0008 -0.2809
 2284DOPS   C1B26799  18.997  27.471  10.564  0.1044 -0.0782 -0.0623
 2284DOPS   D2B26800  18.745  27.716  10.851 -0.2196 -0.2641  0.1920
 2284DOPS   C3B26801  18.586  27.554  11.307  0.2034 -0.0429 -0.3383
 2284DOPS   C4B26802  18.340  27.611  11.705 -0.1682 -0.3120  0.0322
 2285DOPC   NC326803  16.276  29.846   9.491 -0.3279 -0.1536 -0.4235
 2285DOPC   PO426804  16.635  29.756   9.658  0.1473  0.0969  0.5523
 2285DOPC   GL126805  16.577  29.953  10.000  0.0314 -0.1587  0.0648
 2285DOPC   GL226806  16.344  30.161  10.000 -0.0617  0.1492 -0.0223
 2285DOPC   C1A26807  16.789  29.900  10.455  0.1838  0.3144  0.0003
 2285DOPC   D2A26808  16.983  29.831  10.886 -0.1616  0.2929  0.1438
 2285DOPC   C3A26809  16.656  29.843  11.237 -0.1457 -0.1158 -0.0426
 2285DOPC   C4A26810  16.433  29.573  11.478 -0.0467 -0.2430  0.2405
 2285DOPC   C1B26811  16.462  30.267  10.453  0.2865  0.2892  0.0193
 2285DOPC   D2B26812  16.419  30.277  10.939  0.2170 -0.0162 -0.1987
 2285DOPC   C3B26813  16.693  30.362  11.279  0.1540 -0.0785 -0.2367
 2285DOPC   C4B26814  16.626  30.664  11.639  0.2288  0.1143  0.0402
 2286POSM   NC326815  13.115  30.692  10.520 -0.2797 -0.1095 -0.1900
 2286POSM   PO426816  13.132  30.381  10.418 -0.1343 -0.2585 -0.1766
 2286POSM   AM126817  13.068  30.104  10.519  0.0671  0.1072  0.4508
 2286POSM   AM226818  13.186  29.899  10.647  0.3121 -0.2220 -0.0081
 2286POSM   T1A26819  12.752  29.926  10.915 -0.1346 -0.1525 -0.0518
 2286POSM   C2A26820  12.911  29.827  11.366  0.3865 -0.2218 -0.0298
 2286POSM   C3A26821  13.057  29.813  11.785  0.2227  0.0128 -0.2266
 2286POSM   C1B26822  13.252  29.688  10.931 -0.1639  0.1243 -0.1799
 2286POSM   D2B26823  13.403  29.712  11.422 -0.1620 -0.0617 -0.0506
 2286POSM   C3B26824  13.532  29.342  11.556  0.1520 -0.1991 -0.4662
 2286POSM   C4B26825  13.687  29.009  11.891 -0.0124  0.1626  0.1195
 2287DOPE   NH326826  17.963  26.332   9.564 -0.1275  0.1038 -0.1127
 2287DOPE   PO426827  18.293  26.380   9.607 -0.0857 -0.3219  0.1350
 2287DOPE   GL126828  18.294  26.366  10.025 -0.1166  0.0461 -0.1033
 2287DOPE   GL226829  18.030  26.296  10.047 -0.1951 -0.0427  0.4568
 2287DOPE   C1A26830  18.617  26.231  10.327 -0.0250 -0.2866  0.1465
 2287DOPE   D2A26831  18.696  26.272  10.750  0.0166  0.1106  0.1167
 2287DOPE   C3A26832  18.455  26.201  11.141  0.2409 -0.0163  0.0706
 2287DOPE   C4A26833  18.171  26.264  11.446 -0.4651  0.2133 -0.0650
 2287DOPE   C1B26834  18.146  26.009  10.404 -0.2253 -0.2489 -0.0660
 2287DOPE   D2B26835  18.150  25.882  10.833 -0.1437  0.1315 -0.0111
 2287DOPE   C3B26836  18.588  25.822  10.910  0.3504  0.1898 -0.2301
 2287DOPE   C4B26837  18.839  25.868  11.312  0.3101  0.1487 -0.1820
 2288POSM   NC326838  17.510  30.979   9.584  0.0758  0.1363  0.0990
 2288POSM   PO426839  17.587  30.932   9.953  0.0629  0.0214 -0.1815
 2288POSM   AM126840  17.467  30.884  10.285 -0.2481  0.0949  0.3487
 2288POSM   AM226841  17.626  30.860  10.535  0.0322 -0.2735 -0.2674
 2288POSM   T1A26842  17.091  30.939  10.593  0.2241 -0.1228  0.0987
 2288POSM   C2A26843  17.034  30.731  11.043 -0.2132 -0.0670 -0.1797
 2288POSM   C3A26844  17.121  30.730  11.503  0.2007  0.1004  0.0360
 2288POSM   C1B26845  17.497  31.086  10.754  0.0098  0.1470  0.4573
 2288POSM   D2B26846  17.189  31.289  11.031 -0.2326  0.1368 -0.1708
 2288POSM   C3B26847  17.312  31.143  11.426 -0.4388  0.2375 -0.0959
 2288POSM   C4B26848  17.445  31.160  11.833  0.1599  0.2726 -0.2996
 2289POSM   NC326849  17.419  28.956  10.233  0.0873  0.1644  0.2543
 2289POSM   PO426850  17.758  29.146  10.143  0.0112  0.2165  0.0989
 2289POSM   AM126851  17.773  29.316  10.421  0.0533 -0.1276  0.1556
 2289POSM   AM226852  17.582  29.450  10.569  0.2014 -0.1813 -0.0636
 2289POSM   T1A26853  18.055  29.483  10.757  0.0216  0.0514 -0.0435
 2289POSM   C2A26854  18.165  29.316  11.182 -0.0861  0.2220  0.1317
 2289POSM   C3A26855  18.179  28.985  11.544  0.4149 -0.1762  0.0020
 2289POSM   C1B26856  17.503  29.314  10.842 -0.0029  0.2043 -0.2942
 2289POSM   D2B26857  17.238  29.307  11.207  0.0693  0.1266  0.0504
 2289POSM   C3B26858  17.413  29.317  11.646  0.0767 -0.0469  0.0495
 2289POSM   C4B26859  17.840  29.491  11.817  0.1666 -0.0160  0.2463
 2290POSM   NC326860  17.969  29.000   9.551 -0.1900  0.4021  0.1905
 2290POSM   PO426861  18.184  29.143   9.851  0.0556  0.1811  0.3442
 2290POSM   AM126862  18.279  29.048  10.165 -0.0031  0.0321 -0.2825
 2290POSM   AM226863  18.152  29.025  10.445 -0.3619  0.2452  0.1357
 2290POSM   T1A26864  18.597  28.743  10.388 -0.3047  0.0956  0.1419
 2290POSM   C2A26865  18.572  28.416  10.649 -0.0824 -0.0080 -0.1823
 2290POSM   C3A26866  18.375  27.984  10.550  0.1809 -0.0696 -0.0868
 2290POSM   C1B26867  17.945  28.998  10.765  0.1955  0.0512 -0.0588
 2290POSM   D2B26868  17.670  28.971  11.188  0.1865 -0.1578 -0.0210
 2290POSM   C3B26869  17.697  28.899  11.661  0.0684 -0.2191 -0.0636
 2290POSM   C4B26870  17.960  28.949  12.039 -0.0712 -0.0150 -0.2226
 2291DOPS   CNO26871  20.467  27.135   9.377 -0.2040 -0.2659  0.3957
 2291DOPS   PO426872  20.295  27.496   9.342 -0.0264 -0.0046  0.2891
 2291DOPS   GL126873  20.498  27.528   9.749 -0.0112  0.1637 -0.0580
 2291DOPS   GL226874  20.335  27.359   9.920 -0.1874 -0.2053  0.1871
 2291DOPS   C1A26875  20.437  27.783  10.139  0.3096 -0.0136  0.0917
 2291DOPS   D2A26876  20.624  28.103  10.456 -0.0851  0.1111  0.2245
 2291DOPS   C3A26877  20.687  28.073  10.912 -0.0705  0.0789  0.2565
 2291DOPS   C4A26878  20.853  27.917  11.326 -0.1644  0.3162 -0.0297
 2291DOPS   C1B26879  20.477  27.337  10.310 -0.1529  0.0650  0.4032
 2291DOPS   D2B26880  20.695  27.492  10.724  0.1972  0.0615  0.4866
 2291DOPS   C3B26881  20.700  27.326  11.234  0.0728  0.0915 -0.1457
 2291DOPS   C4B26882  20.954  27.090  11.470 -0.0347 -0.1621 -0.3378
 2292POSM   NC326883  16.671  23.316   9.221  0.2303  0.1764 -0.1766
 2292POSM   PO426884  16.481  23.521   9.533  0.2016  0.0652  0.1776
 2292POSM   AM126885  16.584  23.464   9.849 -0.1189 -0.0513  0.1099
 2292POSM   AM226886  16.419  23.373  10.092 -0.0166 -0.3346 -0.2183
 2292POSM   T1A26887  16.810  23.118  10.216 -0.0594  0.0338  0.1530
 2292POSM   C2A26888  16.850  22.643  10.285 -0.0487 -0.0796 -0.4907
 2292POSM   C3A26889  16.801  22.219  10.034  0.1330  0.1192  0.3582
 2292POSM   C1B26890  16.292  23.103  10.272 -0.0396 -0.0963  0.3125
 2292POSM   D2B26891  16.350  22.833  10.608  0.0381  0.0573 -0.3364
 2292POSM   C3B26892  16.622  22.482  10.673  0.0921  0.0076 -0.0542
 2292POSM   C4B26893  16.968  22.197  10.469 -0.0673 -0.2469 -0.1002
 2293DOPE   NH326894  21.032  26.057   9.196 -0.3498  0.0131  0.3174
 2293DOPE   PO426895  21.039  26.326   9.396 -0.5113 -0.2454  0.2287
 2293DOPE   GL126896  21.033  26.442   9.781  0.2860 -0.0411 -0.0607
 2293DOPE   GL226897  20.999  26.750   9.829 -0.0637  0.0942  0.1118
 2293DOPE   C1A26898  21.270  26.328  10.162 -0.1097 -0.1005  0.0711
 2293DOPE   D2A26899  21.299  26.121  10.583 -0.1612 -0.2518  0.0273
 2293DOPE   C3A26900  21.537  26.353  10.948 -0.1374 -0.0224 -0.0775
 2293DOPE   C4A26901  21.568  26.307  11.425  0.0361  0.0496  0.0282
 2293DOPE   C1B26902  21.097  26.764  10.316 -0.3289  0.1957  0.0715
 2293DOPE   D2B26903  21.122  26.642  10.788 -0.1977 -0.2035  0.1317
 2293DOPE   C3B26904  20.885  26.579  11.178  0.0813  0.0513 -0.0182
 2293DOPE   C4B26905  20.442  26.628  11.401 -0.2093  0.0342 -0.2610
 2294DOPE   NH326906  22.009  33.279   9.546 -0.0444 -0.1640 -0.1462
 2294DOPE   PO426907  22.263  33.493   9.439 -0.2829 -0.3656  0.2814
 2294DOPE   GL126908  22.316  33.530   9.764 -0.0866 -0.0773 -0.0711
 2294DOPE   GL226909  22.144  33.473   9.997  0.1153  0.1899  0.1019
 2294DOPE   C1A26910  22.669  33.374  10.102 -0.0710  0.1602 -0.1301
 2294DOPE   D2A26911  23.013  33.172  10.336 -0.0766 -0.1792 -0.0486
 2294DOPE   C3A26912  22.857  33.026  10.733 -0.1076 -0.3280  0.1840
 2294DOPE   C4A26913  22.646  32.827  11.078 -0.2644 -0.3431 -0.0765
 2294DOPE   C1B26914  22.084  33.717  10.470 -0.1491 -0.1010  0.0744
 2294DOPE   D2B26915  22.077  34.096  10.737  0.0935  0.2007  0.0621
 2294DOPE   C3B26916  22.076  34.329  11.154  0.1898 -0.0918 -0.0330
 2294DOPE   C4B26917  21.693  34.111  11.322 -0.0442  0.2567 -0.0463
 2295DOPE   NH326918  20.615  27.922   9.365  0.1650  0.5595  0.1865
 2295DOPE   PO426919  20.741  28.208   9.241 -0.0536 -0.1348  0.1530
 2295DOPE   GL126920  20.851  28.449   9.579 -0.2720  0.1684  0.0013
 2295DOPE   GL226921  20.691  28.673   9.507  0.2034  0.1339 -0.0495
 2295DOPE   C1A26922  20.899  28.240   9.974  0.3073  0.1742 -0.1675
 2295DOPE   D2A26923  21.144  28.242  10.366 -0.1799 -0.2288  0.0223
 2295DOPE   C3A26924  21.392  28.483  10.718 -0.0639 -0.2062 -0.0928
 2295DOPE   C4A26925  21.861  28.604  10.847 -0.1544 -0.2859 -0.0417
 2295DOPE   C1B26926  20.758  28.698   9.939  0.4423  0.0111 -0.1504
 2295DOPE   D2B26927  20.645  28.698  10.365  0.0928  0.2471 -0.0623
 2295DOPE   C3B26928  20.886  28.491  10.774 -0.2415 -0.0924  0.0570
 2295DOPE   C4B26929  20.917  28.670  11.192  0.2085  0.1469 -0.3673
 2296DOPE   NH326930  13.059  26.164  10.051  0.0794  0.4378 -0.1959
 2296DOPE   PO426931  13.021  25.872  10.204 -0.1271  0.1785  0.1930
 2296DOPE   GL126932  13.006  25.753  10.543 -0.2097 -0.0765  0.1828
 2296DOPE   GL226933  13.022  25.487  10.587 -0.1036  0.0465  0.1541
 2296DOPE   C1A26934  13.066  26.122  10.805  0.0102  0.0567  0.1972
 2296DOPE   D2A26935  12.964  26.585  10.913  0.0732 -0.0166 -0.4727
 2296DOPE   C3A26936  13.038  26.628  11.412 -0.1335  0.0925 -0.1571
 2296DOPE   C4A26937  13.002  26.897  11.778 -0.0618  0.1849 -0.1265
 2296DOPE   C1B26938  12.702  25.597  10.867 -0.0057  0.0064  0.1325
 2296DOPE   D2B26939  12.338  25.450  11.116 -0.0029 -0.3609 -0.0895
 2296DOPE   C3B26940  12.314  25.379  11.520  0.3826  0.2131 -0.0645
 2296DOPE   C4B26941  12.083  25.177  11.847 -0.2374 -0.2212 -0.0106
 2297POSM   NC326942  12.244  29.163  10.099 -0.1394  0.0388  0.4334
 2297POSM   PO426943  12.628  29.002  10.207  0.1158 -0.0489 -0.2022
 2297POSM   AM126944  12.745  29.060  10.492  0.1199 -0.0597 -0.1280
 2297POSM   AM226945  12.758  28.907  10.741 -0.0423  0.4094 -0.0192
 2297POSM   T1A26946  12.953  29.284  10.894  0.0247  0.0943  0.0290
 2297POSM   C2A26947  13.120  29.288  11.334  0.0996  0.1534 -0.0176
 2297POSM   C3A26948  13.100  29.079  11.784 -0.2031  0.1342  0.1430
 2297POSM   C1B26949  12.585  28.872  11.030  0.0989  0.1591  0.0958
 2297POSM   D2B26950  12.576  28.677  11.457 -0.0724 -0.0952 -0.1863
 2297POSM   C3B26951  12.579  29.040  11.715 -0.2452 -0.1767 -0.1599
 2297POSM   C4B26952  12.720  29.299  12.073 -0.2039 -0.1987 -0.0272
 2298DOPC   NC326953  20.470  32.267   9.554 -0.2362 -0.2961  0.4718
 2298DOPC   PO426954  20.226  31.916   9.586  0.0586 -0.0114  0.1355
 2298DOPC   GL126955  20.274  32.059   9.907  0.0771  0.4304  0.0228
 2298DOPC   GL226956  20.145  32.333   9.919 -0.0980  0.1229  0.1982
 2298DOPC   C1A26957  20.453  31.832  10.289  0.1320  0.0211 -0.1491
 2298DOPC   D2A26958  20.709  31.710  10.670  0.0600  0.1803 -0.0977
 2298DOPC   C3A26959  20.723  31.939  11.072  0.1641 -0.0110 -0.1427
 2298DOPC   C4A26960  20.752  32.138  11.512 -0.0302  0.1756  0.1057
 2298DOPC   C1B26961  20.261  32.290  10.377  0.0613 -0.0498 -0.1072
 2298DOPC   D2B26962  20.632  32.238  10.668  0.1162 -0.0132 -0.3900
 2298DOPC   C3B26963  20.724  32.471  11.049  0.1009  0.0823  0.0281
 2298DOPC   C4B26964  20.476  32.770  11.279 -0.1022  0.2971 -0.0725
 2299DOPC   NC326965  18.925  34.137   9.672  0.0004 -0.3147  0.0689
 2299DOPC   PO426966  18.731  34.351   9.954 -0.2975 -0.2254 -0.0832
 2299DOPC   GL126967  18.800  34.264  10.366 -0.0070  0.1871  0.0212
 2299DOPC   GL226968  18.970  34.501  10.447  0.0980 -0.3107  0.1099
 2299DOPC   C1A26969  18.866  33.850  10.547 -0.1879 -0.3516 -0.0729
 2299DOPC   D2A26970  19.012  33.718  10.966  0.0945 -0.3299  0.0726
 2299DOPC   C3A26971  19.140  33.995  11.273  0.0998 -0.0759  0.1790
 2299DOPC   C4A26972  19.005  34.185  11.715  0.1078  0.0070 -0.2292
 2299DOPC   C1B26973  19.124  34.720  10.815  0.2626 -0.0530  0.2037
 2299DOPC   D2B26974  19.222  35.080  11.046 -0.1151  0.0798  0.2881
 2299DOPC   C3B26975  19.340  34.946  11.469 -0.2267  0.1959 -0.0466
 2299DOPC   C4B26976  19.249  34.967  11.917 -0.1300  0.0960  0.0804
 2300POSM   NC326977  13.481  29.129  10.008  0.0018 -0.0844  0.2125
 2300POSM   PO426978  13.816  29.322  10.134  0.0238 -0.1358 -0.1489
 2300POSM   AM126979  13.946  29.349  10.444 -0.0602  0.1477 -0.4248
 2300POSM   AM226980  14.097  29.529  10.636  0.0006 -0.1991  0.0198
 2300POSM   T1A26981  14.053  29.114  10.895  0.1336 -0.0984 -0.0044
 2300POSM   C2A26982  13.763  28.900  11.150  0.0357  0.1207 -0.0386
 2300POSM   C3A26983  13.509  28.798  11.498  0.0092  0.2996 -0.1418
 2300POSM   C1B26984  14.157  29.705  10.881 -0.1265  0.0671  0.0730
 2300POSM   D2B26985  13.946  29.959  11.158  0.0206  0.1455  0.1499
 2300POSM   C3B26986  14.078  30.396  11.297 -0.0094  0.1104  0.0685
 2300POSM   C4B26987  14.173  30.740  11.096 -0.0962  0.2064  0.0769
 2301POSM   NC326988  18.571  27.773   9.630 -0.0459  0.0415  0.1589
 2301POSM   PO426989  18.798  27.959   9.884  0.0495 -0.0740 -0.2253
 2301POSM   AM126990  19.011  28.110  10.082  0.2503  0.0270  0.0969
 2301POSM   AM226991  19.203  28.031  10.292 -0.2950 -0.2131  0.0746
 2301POSM   T1A26992  19.006  28.468  10.433  0.0353 -0.4674  0.2641
 2301POSM   C2A26993  18.949  28.686  10.892 -0.0808  0.3292 -0.0939
 2301POSM   C3A26994  18.957  28.491  11.352  0.0937  0.1162  0.3825
 2301POSM   C1B26995  18.971  27.972  10.536  0.0871 -0.0215 -0.1156
 2301POSM   D2B26996  19.002  28.195  10.931  0.1183  0.2389 -0.1367
 2301POSM   C3B26997  19.407  28.223  11.004 -0.1925  0.1796  0.0237
 2301POSM   C4B26998  19.876  28.376  10.961 -0.1199  0.2545  0.0806
 2302DOPS   CNO26999  22.190  26.683   9.138  0.2868 -0.2672  0.0861
 2302DOPS   PO427000  22.048  26.819   9.459 -0.1483 -0.0051  0.0047
 2302DOPS   GL127001  21.969  26.734   9.838  0.2329 -0.1500 -0.2360
 2302DOPS   GL227002  22.131  26.922   9.998  0.1503 -0.1717 -0.1008
 2302DOPS   C1A27003  22.149  26.396  10.100  0.0863 -0.1167  0.2443
 2302DOPS   D2A27004  22.435  26.183  10.403  0.2290 -0.0003 -0.2097
 2302DOPS   C3A27005  22.244  26.352  10.791 -0.3091  0.1627 -0.1766
 2302DOPS   C4A27006  22.017  26.519  11.125  0.1153 -0.1061 -0.0208
 2302DOPS   C1B27007  21.902  27.055  10.399 -0.1065  0.1821 -0.1504
 2302DOPS   D2B27008  21.530  26.953  10.657 -0.2811 -0.2131 -0.0805
 2302DOPS   C3B27009  21.631  26.860  11.121 -0.0597 -0.0769  0.0885
 2302DOPS   C4B27010  21.948  26.869  11.447 -0.0168  0.0023  0.1791
 2303DOPE   NH327011  20.483  33.415   9.130 -0.0758 -0.3597  0.2790
 2303DOPE   PO427012  20.345  33.127   9.171 -0.4499  0.0784 -0.0744
 2303DOPE   GL127013  20.245  33.029   9.510 -0.3333  0.2455  0.1108
 2303DOPE   GL227014  20.309  32.744   9.716 -0.2022 -0.2664  0.0535
 2303DOPE   C1A27015  20.352  33.136   9.957 -0.1584  0.0026 -0.3382
 2303DOPE   D2A27016  20.518  33.382  10.246 -0.3493 -0.0704 -0.3603
 2303DOPE   C3A27017  20.979  33.415  10.311  0.2214 -0.1196 -0.0056
 2303DOPE   C4A27018  21.352  33.609  10.490  0.1009 -0.2013  0.0719
 2303DOPE   C1B27019  20.526  32.685  10.094  0.0083  0.0039  0.0816
 2303DOPE   D2B27020  20.878  32.545  10.400 -0.0255  0.1058  0.1394
 2303DOPE   C3B27021  21.079  32.705  10.826  0.1080  0.2412  0.0755
 2303DOPE   C4B27022  21.021  33.013  11.160 -0.0290 -0.1452  0.0021
 2304DOPC   NC327023  19.769  25.807   9.655  0.2675 -0.0118 -0.2422
 2304DOPC   PO427024  20.147  25.817   9.493 -0.1452  0.0443 -0.0548
 2304DOPC   GL127025  20.234  25.905   9.825 -0.3441  0.0466  0.2313
 2304DOPC   GL227026  20.463  25.740   9.981 -0.2347  0.0025  0.0206
 2304DOPC   C1A27027  20.227  26.136  10.165  0.0979  0.0154  0.0232
 2304DOPC   D2A27028  20.178  26.445  10.467 -0.1849  0.0297  0.2045
 2304DOPC   C3A27029  20.011  26.786  10.722  0.1440 -0.3061 -0.0069
 2304DOPC   C4A27030  20.021  26.827  11.200 -0.1335 -0.2555  0.1808
 2304DOPC   C1B27031  20.360  25.696  10.357  0.1194  0.1757 -0.4861
 2304DOPC   D2B27032  19.911  25.653  10.551  0.0723  0.2597 -0.0645
 2304DOPC   C3B27033  19.752  25.359  10.915  0.1588  0.0938  0.0190
 2304DOPC   C4B27034  19.837  25.164  11.364  0.2920  0.1366  0.1688
 2305DOPC   NC327035  17.706  32.171  10.269 -0.2888 -0.0488 -0.0032
 2305DOPC   PO427036  17.900  32.335  10.001  0.2932  0.0798 -0.1116
 2305DOPC   GL127037  18.057  32.514  10.290 -0.1871  0.2754 -0.2616
 2305DOPC   GL227038  18.317  32.571  10.352 -0.0388 -0.0706 -0.1561
 2305DOPC   C1A27039  18.059  32.503  10.759  0.1657  0.1637  0.1953
 2305DOPC   D2A27040  17.833  32.470  11.105 -0.3110  0.1102  0.2011
 2305DOPC   C3A27041  18.057  32.341  11.497  0.4312  0.1584  0.0704
 2305DOPC   C4A27042  18.271  32.138  11.868  0.1698  0.1899  0.1331
 2305DOPC   C1B27043  18.631  32.348  10.646 -0.2224 -0.0584  0.2346
 2305DOPC   D2B27044  18.726  31.888  10.766 -0.1035 -0.0413 -0.3875
 2305DOPC   C3B27045  18.776  31.804  11.242 -0.3134 -0.1741 -0.0304
 2305DOPC   C4B27046  18.549  31.800  11.634 -0.2946  0.0806  0.2904
 2306DOPC   NC327047  17.102  33.836  10.245  0.1032  0.0472  0.5996
 2306DOPC   PO427048  16.975  33.465  10.191 -0.0809 -0.1981 -0.2818
 2306DOPC   GL127049  16.814  33.155  10.419  0.4168  0.0975 -0.0479
 2306DOPC   GL227050  16.904  32.962  10.343 -0.1464 -0.2915  0.1668
 2306DOPC   C1A27051  16.780  33.144  10.923 -0.0652  0.2952 -0.0866
 2306DOPC   D2A27052  16.793  33.557  11.209 -0.1693  0.2378  0.1570
 2306DOPC   C3A27053  17.032  33.916  11.076 -0.0888  0.5106 -0.3984
 2306DOPC   C4A27054  17.247  34.274  11.159  0.0709 -0.2896  0.1877
 2306DOPC   C1B27055  16.676  32.713  10.638 -0.2428 -0.0856  0.2084
 2306DOPC   D2B27056  16.240  32.577  10.773 -0.1071  0.3554  0.1966
 2306DOPC   C3B27057  16.280  32.509  11.223 -0.0330  0.2828  0.2738
 2306DOPC   C4B27058  16.389  32.574  11.645  0.1857 -0.2009 -0.0710
 2307DOPE   NH327059  16.405  25.683   9.807 -0.0545 -0.2322 -0.2444
 2307DOPE   PO427060  16.128  25.545   9.871 -0.3517  0.2326 -0.0605
 2307DOPE   GL127061  16.282  25.469  10.223  0.1573 -0.2959  0.2329
 2307DOPE   GL227062  16.451  25.644  10.303 -0.0578 -0.0286  0.0721
 2307DOPE   C1A27063  16.220  25.100  10.517 -0.1223 -0.0954 -0.0047
 2307DOPE   D2A27064  16.374  24.739  10.816 -0.2728 -0.1669 -0.1560
 2307DOPE   C3A27065  16.517  24.984  11.202  0.0931 -0.2841 -0.1067
 2307DOPE   C4A27066  16.656  25.107  11.637 -0.2338 -0.3957  0.0520
 2307DOPE   C1B27067  16.481  25.492  10.716  0.0493 -0.0792 -0.1817
 2307DOPE   D2B27068  16.211  25.576  11.068 -0.2023 -0.4283  0.1170
 2307DOPE   C3B27069  15.977  25.235  11.298 -0.0904  0.0879  0.0540
 2307DOPE   C4B27070  15.770  25.209  11.657  0.2234 -0.2546  0.2176
 2308DOPC   NC327071  21.706  28.357   9.403  0.2238  0.2996 -0.2358
 2308DOPC   PO427072  22.117  28.280   9.436  0.0444 -0.0579  0.3248
 2308DOPC   GL127073  21.955  28.335   9.765  0.0166 -0.3604 -0.0679
 2308DOPC   GL227074  22.165  28.456   9.926 -0.4813  0.0773 -0.3072
 2308DOPC   C1A27075  22.069  27.996  10.060  0.1772  0.0903  0.0580
 2308DOPC   D2A27076  22.357  28.200  10.370  0.3089 -0.1554  0.1447
 2308DOPC   C3A27077  22.325  28.487  10.751  0.0467 -0.0116  0.0428
 2308DOPC   C4A27078  22.588  28.461  11.152  0.0378 -0.0250  0.2492
 2308DOPC   C1B27079  22.116  28.727  10.290  0.0473 -0.2354 -0.2877
 2308DOPC   D2B27080  21.841  29.048  10.555  0.4046  0.2094  0.4249
 2308DOPC   C3B27081  21.712  29.022  10.996  0.0665 -0.2612  0.3227
 2308DOPC   C4B27082  21.360  28.964  11.217 -0.3235  0.0905  0.0006
 2309POSM   NC327083  14.373  27.516  10.234  0.3034 -0.0172  0.0723
 2309POSM   PO427084  14.685  27.747  10.153 -0.1249  0.1885  0.2204
 2309POSM   AM127085  14.717  27.658  10.450 -0.0896  0.1871  0.0008
 2309POSM   AM227086  14.784  27.842  10.662 -0.2697 -0.0295 -0.0663
 2309POSM   T1A27087  14.472  27.398  10.823  0.0728 -0.1973  0.0004
 2309POSM   C2A27088  14.319  27.471  11.225  0.2113 -0.2479  0.1613
 2309POSM   C3A27089  14.272  27.733  11.610 -0.1428  0.0809 -0.1531
 2309POSM   C1B27090  14.918  28.048  10.880  0.1004  0.1783  0.0295
 2309POSM   D2B27091  15.127  28.071  11.282 -0.0858 -0.1816  0.1466
 2309POSM   C3B27092  14.922  28.281  11.661  0.1706  0.0084 -0.0004
 2309POSM   C4B27093  14.918  28.258  12.134  0.2649 -0.0002 -0.1341
 2310DOPS   CNO27094  12.815  22.737   9.440  0.3544  0.0458 -0.0289
 2310DOPS   PO427095  13.157  22.699   9.596  0.1683 -0.0451 -0.0168
 2310DOPS   GL127096  12.997  22.766  10.094  0.0712 -0.1105  0.2370
 2310DOPS   GL227097  12.993  22.509  10.165 -0.0312 -0.2808  0.0220
 2310DOPS   C1A27098  13.237  22.776  10.505 -0.0037 -0.0310 -0.0160
 2310DOPS   D2A27099  13.589  22.452  10.440 -0.0168 -0.1182  0.2089
 2310DOPS   C3A27100  13.789  22.055  10.433 -0.0332  0.1365  0.1298
 2310DOPS   C4A27101  13.877  21.644  10.564  0.1812  0.1814  0.2623
 2310DOPS   C1B27102  13.063  22.336  10.627  0.0507 -0.1379  0.1793
 2310DOPS   D2B27103  12.881  22.468  10.998 -0.2134 -0.0817 -0.0244
 2310DOPS   C3B27104  13.216  22.589  11.271 -0.5602 -0.0194  0.0817
 2310DOPS   C4B27105  13.128  22.714  11.733 -0.0957  0.2034 -0.1169
 2311DOPE   NH327106  13.890  33.337  10.705 -0.0310 -0.0577  0.2030
 2311DOPE   PO427107  14.141  33.470  10.557 -0.1109 -0.2724 -0.0670
 2311DOPE   GL127108  14.191  33.476  11.063  0.1432  0.0420  0.0386
 2311DOPE   GL227109  14.447  33.343  11.121 -0.1509  0.0795  0.7716
 2311DOPE   C1A27110  14.212  33.538  11.511  0.1584 -0.1576 -0.1516
 2311DOPE   D2A27111  14.065  33.338  11.925 -0.0325 -0.2693 -0.2376
 2311DOPE   C3A27112  14.081  33.002  12.211  0.5393 -0.1615 -0.2266
 2311DOPE   C4A27113  13.717  32.959  12.524  0.4175 -0.2108 -0.0131
 2311DOPE   C1B27114  14.320  33.026  11.428  0.2490  0.2244 -0.0052
 2311DOPE   D2B27115  14.479  32.982  11.847  0.2706  0.0477  0.0771
 2311DOPE   C3B27116  14.813  32.811  12.176  0.1945 -0.0819 -0.0564
 2311DOPE   C4B27117  14.885  32.397  12.276 -0.3625  0.1013  0.1227
 2312POSM   NC327118  11.336  26.325   9.617  0.1001 -0.0782  0.1570
 2312POSM   PO427119  11.520  26.552   9.889  0.0406 -0.1135  0.0176
 2312POSM   AM127120  11.540  26.422  10.214  0.2997  0.1648  0.1747
 2312POSM   AM227121  11.711  26.312  10.411 -0.0093  0.1150 -0.0928
 2312POSM   T1A27122  11.162  26.450  10.559 -0.0656 -0.0616 -0.0382
 2312POSM   C2A27123  11.191  26.799  10.835 -0.1636  0.2098 -0.1119
 2312POSM   C3A27124  10.908  26.995  11.107  0.0896  0.0121 -0.2315
 2312POSM   C1B27125  11.748  26.146  10.697  0.1250  0.0506 -0.0769
 2312POSM   D2B27126  11.550  25.934  11.039  0.0462 -0.1872 -0.4594
 2312POSM   C3B27127  11.628  25.841  11.451  0.0619  0.0305 -0.0181
 2312POSM   C4B27128  11.600  25.781  11.905 -0.1253  0.0771 -0.2350
 2313DOPC   NC327129  18.918  25.382   9.359  0.0775  0.2459 -0.0745
 2313DOPC   PO427130  18.613  25.611   9.506 -0.1295 -0.1263  0.3255
 2313DOPC   GL127131  18.700  25.463   9.850  0.1183  0.0209 -0.0836
 2313DOPC   GL227132  18.941  25.583  10.053  0.1528 -0.1404  0.1733
 2313DOPC   C1A27133  18.616  25.176  10.228  0.0421 -0.4361 -0.5531
 2313DOPC   D2A27134  18.326  25.139  10.533  0.0264  0.2584  0.2681
 2313DOPC   C3A27135  18.353  25.375  10.944 -0.0490 -0.2270 -0.4423
 2313DOPC   C4A27136  18.655  25.422  11.270 -0.0625  0.2296 -0.0156
 2313DOPC   C1B27137  18.924  25.834  10.452  0.2566  0.1295  0.4086
 2313DOPC   D2B27138  19.066  25.917  10.850 -0.1325  0.0963  0.0637
 2313DOPC   C3B27139  19.373  26.279  10.981  0.0766  0.5061  0.1236
 2313DOPC   C4B27140  19.734  26.404  11.253 -0.1606  0.0179 -0.0739
 2314DOPS   CNO27141  14.386  23.869   9.856 -0.1863 -0.2371 -0.3552
 2314DOPS   PO427142  14.236  23.537   9.960 -0.1971 -0.1155  0.0514
 2314DOPS   GL127143  14.069  23.738  10.281  0.2129  0.1166 -0.1255
 2314DOPS   GL227144  14.381  23.781  10.408  0.2333 -0.2985  0.3191
 2314DOPS   C1A27145  13.794  24.053  10.465  0.2411  0.3281  0.2773
 2314DOPS   D2A27146  13.707  24.187  10.946  0.1737 -0.4934  0.0185
 2314DOPS   C3A27147  13.562  23.814  11.169 -0.0266  0.3112  0.0451
 2314DOPS   C4A27148  13.491  23.476  11.476  0.2383  0.0727 -0.3852
 2314DOPS   C1B27149  14.533  24.230  10.532  0.0325  0.1092  0.1279
 2314DOPS   D2B27150  14.492  24.618  10.764  0.2082 -0.6733 -0.3551
 2314DOPS   C3B27151  14.583  25.012  10.971 -0.0497  0.0166 -0.0230
 2314DOPS   C4B27152  14.305  25.157  11.294  0.0439 -0.0274  0.1758
 2315DOPC   NC327153  14.985  30.094  10.392  0.2808 -0.1701  0.2401
 2315DOPC   PO427154  14.998  30.512  10.373 -0.2412 -0.3143  0.0078
 2315DOPC   GL127155  15.164  30.472  10.757 -0.1862  0.4972 -0.0405
 2315DOPC   GL227156  15.070  30.190  10.849  0.2622 -0.0864 -0.2410
 2315DOPC   C1A27157  15.521  30.583  10.978  0.3751  0.4204 -0.1058
 2315DOPC   D2A27158  15.809  30.356  11.164 -0.0837  0.1522  0.5705
 2315DOPC   C3A27159  16.015  30.073  10.814 -0.1168 -0.0643  0.2165
 2315DOPC   C4A27160  15.868  29.681  10.661 -0.0212 -0.0513  0.1142
 2315DOPC   C1B27161  14.941  30.255  11.231  0.2129  0.1312 -0.0609
 2315DOPC   D2B27162  14.626  30.302  11.493  0.2659 -0.1501  0.1706
 2315DOPC   C3B27163  14.230  30.049  11.615  0.2822 -0.0716 -0.2421
 2315DOPC   C4B27164  14.118  29.728  11.922 -0.0825  0.1713  0.1762
 2316DOPC   NC327165  15.830  27.549  10.398 -0.0530 -0.0082 -0.2360
 2316DOPC   PO427166  16.137  27.649  10.143 -0.1939 -0.0444  0.0833
 2316DOPC   GL127167  16.178  27.820  10.489  0.1939  0.3173  0.0872
 2316DOPC   GL227168  16.505  27.918  10.444 -0.0635  0.2383  0.3619
 2316DOPC   C1A27169  16.043  27.770  10.924 -0.4276 -0.1843  0.0868
 2316DOPC   D2A27170  16.369  27.683  11.271  0.0796  0.2000 -0.0839
 2316DOPC   C3A27171  16.208  27.603  11.711  0.0486  0.0379 -0.3276
 2316DOPC   C4A27172  16.317  27.782  12.143  0.0992 -0.0166  0.1050
 2316DOPC   C1B27173  16.426  27.569  10.736 -0.1484  0.0418  0.0716
 2316DOPC   D2B27174  16.138  27.271  10.933 -0.0718 -0.4377 -0.1361
 2316DOPC   C3B27175  16.000  27.313  11.330 -0.0495 -0.2012 -0.3645
 2316DOPC   C4B27176  15.567  27.358  11.486 -0.0289 -0.1799  0.0426
 2317DOPE   NH327177  17.305  24.108   9.197  0.0345  0.0789  0.2740
 2317DOPE   PO427178  17.076  24.280   9.376 -0.0063  0.2103 -0.1572
 2317DOPE   GL127179  17.273  24.327   9.721  0.0362  0.0652  0.0705
 2317DOPE   GL227180  17.542  24.294   9.802  0.0954 -0.0179  0.0210
 2317DOPE   C1A27181  17.153  24.389  10.178 -0.2063  0.0620  0.0661
 2317DOPE   D2A27182  17.134  24.110  10.600 -0.0911  0.1673 -0.2782
 2317DOPE   C3A27183  17.562  23.971  10.740 -0.0283  0.1458  0.1721
 2317DOPE   C4A27184  17.876  23.655  10.804  0.2097 -0.3344  0.0142
 2317DOPE   C1B27185  17.429  23.994  10.144  0.1052 -0.2271  0.2145
 2317DOPE   D2B27186  17.794  23.757  10.306 -0.2361  0.0916  0.4190
 2317DOPE   C3B27187  18.021  24.085  10.493  0.4014  0.1285 -0.1897
 2317DOPE   C4B27188  18.176  24.525  10.457  0.0762 -0.3778  0.0189
 2318DOPC   NC327189  11.769  28.607  10.699  0.0434  0.0634 -0.1943
 2318DOPC   PO427190  12.021  28.728  10.452  0.1280  0.2051 -0.1820
 2318DOPC   GL127191  12.120  28.791  10.926  0.1609 -0.3214 -0.1311
 2318DOPC   GL227192  12.242  28.449  10.885 -0.0766  0.0448 -0.0654
 2318DOPC   C1A27193  11.811  28.785  11.238  0.0878 -0.0443  0.2028
 2318DOPC   D2A27194  11.766  28.604  11.646  0.0489 -0.1919 -0.0104
 2318DOPC   C3A27195  11.778  28.863  12.109 -0.0964  0.1634  0.2109
 2318DOPC   C4A27196  11.997  28.930  12.485 -0.0777  0.0099 -0.4834
 2318DOPC   C1B27197  12.150  28.448  11.304  0.1061 -0.0092  0.2357
 2318DOPC   D2B27198  12.304  28.083  11.560 -0.0415 -0.2145  0.0889
 2318DOPC   C3B27199  12.704  28.272  11.746 -0.2704  0.1519  0.1048
 2318DOPC   C4B27200  13.056  28.540  11.751 -0.1010 -0.1032  0.3196
 2319DOPC   NC327201  20.075   0.026   9.501 -0.0301 -0.0522 -0.0700
 2319DOPC   PO427202  20.256   0.361   9.633 -0.1219 -0.0315 -0.2788
 2319DOPC   GL127203  20.288   0.475  10.014  0.0119  0.0648  0.0476
 2319DOPC   GL227204  20.194   0.617  10.121  0.2751  0.1874 -0.1498
 2319DOPC   C1A27205  20.336   0.305  10.432  0.0539 -0.2499 -0.3229
 2319DOPC   D2A27206  20.313   0.480  10.869 -0.2481 -0.0460 -0.3543
 2319DOPC   C3A27207  20.257   0.802  11.250  0.3009 -0.0594 -0.0351
 2319DOPC   C4A27208  20.140   0.633  11.669  0.1593  0.1839 -0.0334
 2319DOPC   C1B27209  20.300   0.945  10.459 -0.1228  0.2148 -0.0379
 2319DOPC   D2B27210  20.361   1.205  10.884  0.2776 -0.0248  0.2556
 2319DOPC   C3B27211  20.003   1.487  11.039 -0.0279  0.0788 -0.5386
 2319DOPC   C4B27212  19.739   1.622  11.336  0.1008 -0.0127  0.0787
 2320POSM   NC327213  16.396   2.119  10.788  0.2654  0.0077  0.2767
 2320POSM   PO427214  16.369   1.871  10.485 -0.1471 -0.1927  0.3787
 2320POSM   AM127215  16.479   1.690  10.741  0.1895 -0.0738 -0.2646
 2320POSM   AM227216  16.393   1.648  11.004 -0.1132 -0.1529  0.1083
 2320POSM   T1A27217  16.778   1.375  10.983 -0.3393 -0.1544 -0.0788
 2320POSM   C2A27218  17.057   1.507  11.300  0.0059  0.0615 -0.2456
 2320POSM   C3A27219  17.179   1.493  11.768  0.0637  0.1150 -0.2569
 2320POSM   C1B27220  16.535   1.754  11.296  0.1500 -0.0059 -0.2081
 2320POSM   D2B27221  16.813   1.840  11.697  0.2456  0.1031  0.1847
 2320POSM   C3B27222  16.780   1.597  12.087 -0.1010  0.0996  0.0735
 2320POSM   C4B27223  16.736   1.136  12.122 -0.2221  0.1358  0.0345
 2321DOPE   NH327224  15.004  29.067   9.799 -0.1570  0.1783  0.0807
 2321DOPE   PO427225  14.777  29.297   9.881  0.1020 -0.0834 -0.0092
 2321DOPE   GL127226  14.944  29.074  10.253  0.3322  0.1346 -0.0352
 2321DOPE   GL227227  15.159  29.238  10.412 -0.0125 -0.1838  0.0661
 2321DOPE   C1A27228  14.635  28.884  10.587 -0.2854 -0.1996 -0.0617
 2321DOPE   D2A27229  14.559  28.930  11.056 -0.0935  0.1014 -0.1520
 2321DOPE   C3A27230  14.559  28.949  11.497  0.1083 -0.1351  0.0021
 2321DOPE   C4A27231  14.731  29.012  11.931  0.1571 -0.3251  0.2395
 2321DOPE   C1B27232  15.522  29.247  10.615 -0.1757  0.0856 -0.1047
 2321DOPE   D2B27233  15.749  29.277  10.969  0.0791 -0.0491 -0.2688
 2321DOPE   C3B27234  15.908  29.610  11.276  0.1875  0.1804 -0.1398
 2321DOPE   C4B27235  16.182  29.988  11.286 -0.2538  0.4002  0.3827
 2322DOPS   CNO27236  18.032  28.644   9.935 -0.1251 -0.0328  0.4664
 2322DOPS   PO427237  17.901  28.319   9.968  0.0322  0.2312 -0.1380
 2322DOPS   GL127238  18.066  28.193  10.309 -0.2264 -0.1292  0.2291
 2322DOPS   GL227239  17.793  28.152  10.406  0.0450 -0.1779 -0.2671
 2322DOPS   C1A27240  18.049  28.481  10.676 -0.1576 -0.0179  0.0629
 2322DOPS   D2A27241  18.088  28.456  11.139 -0.1456  0.1654 -0.1973
 2322DOPS   C3A27242  18.395  28.525  11.462  0.1736  0.0755 -0.0453
 2322DOPS   C4A27243  18.549  28.774  11.845 -0.2819 -0.0071  0.0347
 2322DOPS   C1B27244  17.985  27.957  10.771 -0.0739  0.1537  0.1167
 2322DOPS   D2B27245  18.162  27.827  11.130  0.2254  0.2610  0.1012
 2322DOPS   C3B27246  18.541  28.082  11.230 -0.2473 -0.1089  0.2891
 2322DOPS   C4B27247  18.935  27.921  11.387  0.2424  0.0454 -0.1289
 2323DOPC   NC327248  14.151  34.506  10.598 -0.1636 -0.0435 -0.1773
 2323DOPC   PO427249  13.767  34.584  10.723 -0.0647  0.0988  0.1367
 2323DOPC   GL127250  13.953  34.282  10.965  0.0411 -0.0181  0.0805
 2323DOPC   GL227251  13.993  34.481  11.171 -0.1215 -0.0612  0.0989
 2323DOPC   C1A27252  13.966  33.996  11.348 -0.1042 -0.1418 -0.1253
 2323DOPC   D2A27253  14.214  34.024  11.773  0.2265  0.1940  0.1713
 2323DOPC   C3A27254  14.400  33.705  11.984 -0.0765  0.1137 -0.0930
 2323DOPC   C4A27255  14.506  33.339  12.170  0.3889  0.1323 -0.1271
 2323DOPC   C1B27256  14.351  34.369  11.437  0.0418 -0.0873 -0.1822
 2323DOPC   D2B27257  14.659  34.350  11.748  0.0130  0.1508  0.0831
 2323DOPC   C3B27258  14.611  34.141  12.181 -0.2059 -0.3904  0.0765
 2323DOPC   C4B27259  14.604  34.095  12.662 -0.1618  0.3584  0.2742
 2324DOPE   NH327260  13.585  31.168  10.357  0.1729  0.0324  0.0021
 2324DOPE   PO427261  13.287  31.313  10.443 -0.0151  0.3247  0.3327
 2324DOPE   GL127262  13.444  31.154  10.838 -0.2160  0.0190 -0.1228
 2324DOPE   GL227263  13.449  30.824  10.846 -0.0079  0.2485 -0.1057
 2324DOPE   C1A27264  13.289  30.983  11.265 -0.1058  0.4296  0.2009
 2324DOPE   D2A27265  13.453  30.821  11.710  0.1078  0.2397 -0.0038
 2324DOPE   C3A27266  13.866  30.788  11.565  0.1077  0.0647 -0.2163
 2324DOPE   C4A27267  14.325  30.673  11.636 -0.2260  0.3281 -0.0640
 2324DOPE   C1B27268  13.583  30.574  11.201  0.1007 -0.1004  0.1460
 2324DOPE   D2B27269  13.677  30.183  11.455 -0.3670  0.0099 -0.2065
 2324DOPE   C3B27270  13.695  30.387  11.855  0.0398  0.0807  0.0278
 2324DOPE   C4B27271  13.732  30.594  12.229 -0.0364 -0.2083 -0.4102
 2325DOPE   NH327272  20.249  28.436   9.257  0.0633  0.1179  0.1534
 2325DOPE   PO427273  20.143  28.119   9.330  0.0522 -0.1940  0.0063
 2325DOPE   GL127274  20.112  28.290   9.666  0.2633 -0.2480 -0.0133
 2325DOPE   GL227275  20.436  28.208   9.743  0.0121 -0.2372 -0.0554
 2325DOPE   C1A27276  19.799  28.527   9.943  0.1397  0.2614 -0.2033
 2325DOPE   D2A27277  19.472  28.726  10.175 -0.3272  0.1817  0.2454
 2325DOPE   C3A27278  19.413  28.791  10.657 -0.0306 -0.2232 -0.4779
 2325DOPE   C4A27279  19.545  28.762  11.042 -0.3613 -0.0134  0.1038
 2325DOPE   C1B27280  20.228  28.475  10.146  0.4138 -0.1660  0.2192
 2325DOPE   D2B27281  20.279  28.470  10.616  0.2673 -0.3447  0.2960
 2325DOPE   C3B27282  20.247  28.860  10.756 -0.3136  0.0767  0.0755
 2325DOPE   C4B27283  20.197  29.248  10.925 -0.2687 -0.1707 -0.1630
 2326POSM   NC327284  19.322  29.723   9.404  0.0460  0.3071 -0.0848
 2326POSM   PO427285  19.094  29.866   9.735 -0.1545  0.2051 -0.2557
 2326POSM   AM127286  19.350  29.925   9.926 -0.4422  0.2163  0.0155
 2326POSM   AM227287  19.388  29.867  10.235 -0.0492  0.1185  0.0993
 2326POSM   T1A27288  19.859  30.039  10.124  0.3190  0.1923  0.0571
 2326POSM   C2A27289  20.258  30.002  10.330  0.1266 -0.1504  0.0979
 2326POSM   C3A27290  20.581  29.692  10.298 -0.0043 -0.2371  0.1618
 2326POSM   C1B27291  19.431  29.642  10.526 -0.3557  0.0010  0.0781
 2326POSM   D2B27292  19.392  29.260  10.829 -0.0076  0.2525  0.1278
 2326POSM   C3B27293  19.715  29.226  11.157 -0.1092 -0.1012  0.0190
 2326POSM   C4B27294  20.054  28.866  11.232 -0.5624  0.0805 -0.2578
 2327POSM   NC327295  19.088  33.228   9.715 -0.4422 -0.0537  0.1274
 2327POSM   PO427296  19.090  33.611   9.886 -0.0432  0.0314 -0.2009
 2327POSM   AM127297  19.151  33.556  10.205 -0.1301  0.0674 -0.1710
 2327POSM   AM227298  19.040  33.387  10.438  0.2025  0.2833  0.0875
 2327POSM   T1A27299  19.379  33.647  10.646  0.0426  0.0229  0.2175
 2327POSM   C2A27300  19.720  33.542  10.915  0.3084  0.2130  0.1525
 2327POSM   C3A27301  20.016  33.278  11.181  0.0578 -0.1155  0.0995
 2327POSM   C1B27302  18.876  33.253  10.750 -0.0840 -0.2488 -0.0792
 2327POSM   D2B27303  18.748  33.257  11.207 -0.2446  0.1393 -0.0895
 2327POSM   C3B27304  18.808  33.673  11.410 -0.3994 -0.2138  0.1779
 2327POSM   C4B27305  18.503  34.024  11.410 -0.1978 -0.0891 -0.2851
 2328DOPC   NC327306  12.197  30.724  10.736  0.3216  0.1626 -0.0790
 2328DOPC   PO427307  12.615  30.772  10.721  0.1512  0.0892 -0.0579
 2328DOPC   GL127308  12.785  30.461  10.883  0.5981  0.1681 -0.0939
 2328DOPC   GL227309  13.036  30.561  10.993 -0.0330 -0.2663 -0.2162
 2328DOPC   C1A27310  12.732  30.308  11.301  0.1109  0.0176 -0.0987
 2328DOPC   D2A27311  12.384  29.978  11.387  0.1670 -0.0067  0.6432
 2328DOPC   C3A27312  12.468  29.928  11.822  0.1660 -0.1341  0.4168
 2328DOPC   C4A27313  12.747  29.936  12.169  0.0166  0.2752 -0.1297
 2328DOPC   C1B27314  12.752  30.773  11.333  0.2250  0.1793 -0.1633
 2328DOPC   D2B27315  12.431  31.045  11.532 -0.1178  0.1053 -0.1058
 2328DOPC   C3B27316  12.016  31.043  11.728 -0.0958  0.2267  0.0595
 2328DOPC   C4B27317  11.608  30.866  11.736 -0.1904  0.0304 -0.3140
 2329DOPC   NC327318  13.832  33.859  10.834 -0.3189  0.2039 -0.2273
 2329DOPC   PO427319  13.542  34.128  10.777 -0.0749  0.3804  0.1553
 2329DOPC   GL127320  13.544  34.152  11.198 -0.1158 -0.0110  0.2026
 2329DOPC   GL227321  13.507  34.386  11.214  0.0313 -0.1730 -0.2273
 2329DOPC   C1A27322  13.322  34.078  11.581  0.0130  0.1013 -0.0543
 2329DOPC   D2A27323  13.055  34.066  11.964  0.1386  0.1861  0.0189
 2329DOPC   C3A27324  13.328  33.820  12.130  0.1199  0.3575 -0.0147
 2329DOPC   C4A27325  13.477  33.675  12.599  0.2168 -0.1456  0.2158
 2329DOPC   C1B27326  13.762  34.400  11.630  0.0190 -0.2563 -0.2044
 2329DOPC   D2B27327  13.649  34.210  12.046  0.3048  0.3560  0.1522
 2329DOPC   C3B27328  13.533  34.290  12.504 -0.0692  0.0491  0.1182
 2329DOPC   C4B27329  13.133  34.251  12.739 -0.0735 -0.2544 -0.0254
 2330DOPC   NC327330  17.738  32.806  10.205 -0.0958 -0.2347  0.0883
 2330DOPC   PO427331  17.826  33.052   9.934 -0.3245 -0.0310  0.2189
 2330DOPC   GL127332  17.886  33.207  10.402  0.2797  0.1220 -0.1330
 2330DOPC   GL227333  17.746  33.477  10.512  0.0244  0.0330  0.0141
 2330DOPC   C1A27334  17.733  32.971  10.766  0.5745 -0.0471  0.2090
 2330DOPC   D2A27335  17.645  32.995  11.241  0.1588  0.0389 -0.2608
 2330DOPC   C3A27336  17.458  32.590  11.368  0.1473 -0.0857 -0.1733
 2330DOPC   C4A27337  17.587  32.120  11.321 -0.1368  0.3144  0.2167
 2330DOPC   C1B27338  17.787  33.450  10.976 -0.5885  0.0492  0.0171
 2330DOPC   D2B27339  18.075  33.156  11.298 -0.0505 -0.0364  0.0082
 2330DOPC   C3B27340  17.886  32.943  11.669  0.1936 -0.1899 -0.2749
 2330DOPC   C4B27341  17.445  32.860  11.807  0.0275  0.2308 -0.2251
 2331POSM   NC327342  12.924  28.643  10.297 -0.1313 -0.1908 -0.1540
 2331POSM   PO427343  13.291  28.608  10.132 -0.0711  0.1604 -0.0766
 2331POSM   AM127344  13.418  28.587  10.397  0.0500  0.1020  0.1885
 2331POSM   AM227345  13.307  28.604  10.631 -0.1176 -0.2295 -0.4116
 2331POSM   T1A27346  13.811  28.583  10.690  0.1410  0.1517  0.2308
 2331POSM   C2A27347  14.065  28.431  11.041  0.3145 -0.0745  0.3349
 2331POSM   C3A27348  14.036  28.571  11.417  0.1318 -0.0299 -0.0642
 2331POSM   C1B27349  13.401  28.426  10.954 -0.1526 -0.0522  0.0013
 2331POSM   D2B27350  13.455  28.263  11.402  0.0785  0.1333  0.2255
 2331POSM   C3B27351  13.511  27.810  11.589  0.2083  0.2310 -0.3939
 2331POSM   C4B27352  13.297  27.604  11.975  0.1032  0.1391  0.0247
 2332DOPC   NC327353  16.908  32.198   9.861 -0.3209  0.1893  0.0859
 2332DOPC   PO427354  16.543  32.047   9.920 -0.2107  0.1590 -0.1353
 2332DOPC   GL127355  16.439  31.774  10.169 -0.5742  0.0691 -0.3478
 2332DOPC   GL227356  16.170  31.800  10.200 -0.2491  0.1896 -0.0451
 2332DOPC   C1A27357  16.622  31.810  10.589  0.2681  0.1113  0.3751
 2332DOPC   D2A27358  16.889  31.770  10.959  0.0722  0.1261 -0.2751
 2332DOPC   C3A27359  17.304  31.743  11.009 -0.1915  0.2825 -0.0051
 2332DOPC   C4A27360  17.752  31.563  10.976 -0.0903  0.3847 -0.0664
 2332DOPC   C1B27361  16.165  31.612  10.667 -0.0907  0.0092  0.1982
 2332DOPC   D2B27362  16.465  31.548  11.087  0.0624 -0.1909  0.1576
 2332DOPC   C3B27363  16.302  31.532  11.475 -0.0437  0.0118  0.1541
 2332DOPC   C4B27364  16.130  31.573  11.948  0.3820  0.0477 -0.2250
 2333POSM   NC327365  22.514  27.046   9.250  0.1817  0.1862  0.0678
 2333POSM   PO427366  22.319  27.258   9.477  0.0528  0.1242  0.1193
 2333POSM   AM127367  22.244  27.293   9.774 -0.1494 -0.1396 -0.1993
 2333POSM   AM227368  21.997  27.430   9.838  0.2494  0.2977 -0.2568
 2333POSM   T1A27369  22.484  27.250  10.208  0.0003  0.1586 -0.1054
 2333POSM   C2A27370  22.398  27.203  10.658  0.0082  0.1493  0.0065
 2333POSM   C3A27371  22.062  27.009  10.918  0.1496 -0.1033  0.2059
 2333POSM   C1B27372  21.912  27.518  10.132  0.0884  0.2880  0.2271
 2333POSM   D2B27373  21.726  27.524  10.506 -0.3350 -0.0428  0.3407
 2333POSM   C3B27374  21.596  27.376  10.918 -0.1623 -0.0609 -0.2334
 2333POSM   C4B27375  21.717  27.311  11.337 -0.0127  0.0754 -0.0535
 2334DOPS   CNO27376  20.792  24.400   9.257  0.0999 -0.2495  0.0134
 2334DOPS   PO427377  20.787  24.057   9.425 -0.0770  0.1319 -0.1326
 2334DOPS   GL127378  20.802  24.017   9.818 -0.1052 -0.3036  0.2616
 2334DOPS   GL227379  20.566  24.159   9.887  0.1059 -0.0254  0.1788
 2334DOPS   C1A27380  20.652  23.923  10.266  0.2532 -0.1521  0.1977
 2334DOPS   D2A27381  20.405  23.972  10.631 -0.3325 -0.0872 -0.1464
 2334DOPS   C3A27382  20.132  23.768  10.912  0.2083 -0.1508 -0.1468
 2334DOPS   C4A27383  19.774  23.611  11.065  0.0538 -0.3226  0.0437
 2334DOPS   C1B27384  20.295  24.328  10.252  0.2162 -0.3744 -0.1082
 2334DOPS   D2B27385  20.177  24.555  10.619  0.0082  0.1007  0.0007
 2334DOPS   C3B27386  20.405  24.391  10.985 -0.1489  0.0523  0.0749
 2334DOPS   C4B27387  20.627  24.356  11.452 -0.0932 -0.1186 -0.1544
 2335DOPC   NC327388  19.327  26.876  10.121  0.1190  0.0900 -0.0787
 2335DOPC   PO427389  19.161  26.549  10.045 -0.1460  0.0023  0.2593
 2335DOPC   GL127390  18.993  26.676  10.323 -0.2629  0.3340 -0.1532
 2335DOPC   GL227391  19.116  26.439  10.535 -0.1052  0.0455 -0.0890
 2335DOPC   C1A27392  18.627  26.746  10.597 -0.0319 -0.0656  0.0050
 2335DOPC   D2A27393  18.508  26.724  11.054 -0.1666 -0.2043 -0.0963
 2335DOPC   C3A27394  18.600  26.965  11.374 -0.0532  0.0391 -0.2555
 2335DOPC   C4A27395  18.751  27.285  11.704 -0.0025  0.1181  0.0477
 2335DOPC   C1B27396  19.043  26.563  11.010 -0.2037 -0.4442 -0.0160
 2335DOPC   D2B27397  19.261  26.498  11.393  0.2545  0.0325 -0.0363
 2335DOPC   C3B27398  19.013  26.316  11.699  0.1891  0.0426 -0.2399
 2335DOPC   C4B27399  18.846  25.930  11.855  0.0097 -0.0559  0.2835
 2336DOPS   CNO27400  12.105  32.702  10.349 -0.1432 -0.0312 -0.0343
 2336DOPS   PO427401  12.316  33.008  10.326 -0.0396  0.3728  0.0679
 2336DOPS   GL127402  12.207  32.982  10.754 -0.1432 -0.0245 -0.4772
 2336DOPS   GL227403  12.116  32.790  10.944  0.0443  0.1809 -0.0130
 2336DOPS   C1A27404  12.404  33.221  11.111 -0.0632 -0.0083 -0.2893
 2336DOPS   D2A27405  12.262  33.632  11.351  0.0439 -0.1023 -0.1129
 2336DOPS   C3A27406  12.249  33.864  11.761  0.3472 -0.2227 -0.0665
 2336DOPS   C4A27407  12.637  33.851  11.928 -0.0045  0.0589  0.3851
 2336DOPS   C1B27408  12.136  32.813  11.379 -0.0257  0.2031 -0.2500
 2336DOPS   D2B27409  11.965  32.748  11.829  0.1217 -0.0049 -0.0666
 2336DOPS   C3B27410  11.548  32.518  11.818 -0.1207  0.1008 -0.3732
 2336DOPS   C4B27411  11.182  32.246  11.867  0.1224 -0.0695 -0.0126
 2337DOPE   NH327412  18.585  29.824   9.792 -0.1651  0.0836  0.1984
 2337DOPE   PO427413  18.352  30.002   9.916 -0.1936 -0.1529  0.1816
 2337DOPE   GL127414  18.187  30.191  10.305 -0.1516 -0.2077  0.1189
 2337DOPE   GL227415  18.463  30.128  10.447 -0.0566 -0.0296 -0.0705
 2337DOPE   C1A27416  17.720  30.316  10.454 -0.1957 -0.0668 -0.0285
 2337DOPE   D2A27417  17.368  30.362  10.606  0.1278 -0.1616  0.0706
 2337DOPE   C3A27418  17.468  30.527  10.987  0.1545  0.1927 -0.0606
 2337DOPE   C4A27419  17.613  30.722  11.419  0.0577 -0.0119  0.2110
 2337DOPE   C1B27420  18.647  30.326  10.842 -0.1355 -0.1375 -0.0811
 2337DOPE   D2B27421  18.626  30.228  11.271 -0.3600 -0.5685  0.0037
 2337DOPE   C3B27422  18.262  29.978  11.288 -0.0591 -0.0845  0.0294
 2337DOPE   C4B27423  17.886  29.666  11.314 -0.3094 -0.2443  0.4847
 2338DOPE   NH327424  24.672  25.944   9.600 -0.2720  0.0689  0.4246
 2338DOPE   PO427425  24.358  25.897   9.591  0.2829 -0.3355 -0.0274
 2338DOPE   GL127426  24.318  26.209   9.817  0.0890  0.2499 -0.2864
 2338DOPE   GL227427  24.323  26.426   9.703  0.1553 -0.1407  0.2999
 2338DOPE   C1A27428  23.938  26.159  10.141 -0.1368  0.1491 -0.0346
 2338DOPE   D2A27429  23.475  26.141  10.276  0.1769 -0.0353 -0.0441
 2338DOPE   C3A27430  23.287  26.194  10.680  0.1728  0.0455 -0.1505
 2338DOPE   C4A27431  23.282  26.091  11.146 -0.1535  0.2031 -0.2535
 2338DOPE   C1B27432  24.163  26.611  10.084 -0.0403  0.1360 -0.0046
 2338DOPE   D2B27433  24.018  26.851  10.503  0.0342 -0.1310  0.3729
 2338DOPE   C3B27434  23.847  26.799  10.884  0.2033  0.0720 -0.1683
 2338DOPE   C4B27435  23.773  27.004  11.319 -0.3863  0.1084  0.1635
 2339DOPE   NH327436  17.426  25.291   9.699  0.2288 -0.1610 -0.2402
 2339DOPE   PO427437  17.393  25.601   9.752 -0.0077 -0.2967 -0.0481
 2339DOPE   GL127438  17.272  25.442  10.151 -0.1452 -0.0204 -0.0921
 2339DOPE   GL227439  17.579  25.342  10.156  0.1327  0.1045  0.1247
 2339DOPE   C1A27440  17.482  25.544  10.601 -0.1716 -0.0105 -0.0036
 2339DOPE   D2A27441  17.832  25.410  10.892 -0.2150  0.2680 -0.0085
 2339DOPE   C3A27442  17.936  25.528  11.336  0.1819 -0.0972 -0.0181
 2339DOPE   C4A27443  17.777  25.875  11.528 -0.0349 -0.3456 -0.4121
 2339DOPE   C1B27444  17.931  25.507  10.424 -0.0330  0.3196  0.0349
 2339DOPE   D2B27445  18.435  25.586  10.448  0.1977 -0.0264 -0.1255
 2339DOPE   C3B27446  18.822  25.434  10.723  0.1727  0.1047 -0.2694
 2339DOPE   C4B27447  19.212  25.425  10.967 -0.2941 -0.2568 -0.0126
 2340DOPC   NC327448  15.842  26.354  10.486  0.0328 -0.2152 -0.2049
 2340DOPC   PO427449  15.502  26.609  10.422  0.0502 -0.0141  0.1093
 2340DOPC   GL127450  15.655  26.610  10.789  0.0316 -0.1248 -0.4150
 2340DOPC   GL227451  15.912  26.827  10.794 -0.2601 -0.2615 -0.1742
 2340DOPC   C1A27452  15.323  26.478  11.152 -0.0107  0.2776 -0.0711
 2340DOPC   D2A27453  15.297  26.056  11.419  0.1383  0.0317  0.1345
 2340DOPC   C3A27454  15.184  25.626  11.214 -0.2604  0.1219  0.2175
 2340DOPC   C4A27455  15.165  25.365  10.869 -0.0087  0.1931  0.3178
 2340DOPC   C1B27456  16.386  26.911  10.805  0.0883 -0.0794 -0.0224
 2340DOPC   D2B27457  16.619  27.026  11.241  0.1472  0.0971  0.0062
 2340DOPC   C3B27458  16.830  27.452  11.180  0.0208 -0.1319  0.2413
 2340DOPC   C4B27459  16.787  27.856  10.926 -0.1988  0.1399  0.0605
 2341DOPS   CNO27460  21.068  29.085   8.902 -0.0023  0.1652 -0.1396
 2341DOPS   PO427461  21.046  29.394   9.165  0.1577 -0.2418 -0.1119
 2341DOPS   GL127462  21.100  29.330   9.502  0.0285  0.0633  0.2693
 2341DOPS   GL227463  20.871  29.218   9.607 -0.1854  0.0715 -0.0404
 2341DOPS   C1A27464  21.460  29.352   9.791 -0.0286 -0.4578  0.0688
 2341DOPS   D2A27465  21.707  29.699  10.016 -0.0569  0.4211 -0.1112
 2341DOPS   C3A27466  21.603  29.669  10.428 -0.1168  0.0476 -0.1672
 2341DOPS   C4A27467  21.411  29.904  10.812  0.2315 -0.0627  0.1267
 2341DOPS   C1B27468  21.061  29.157  10.001  0.0178 -0.4897  0.3432
 2341DOPS   D2B27469  21.392  29.218  10.292 -0.1543 -0.1728 -0.2866
 2341DOPS   C3B27470  21.625  28.876  10.167 -0.0135  0.0519  0.1645
 2341DOPS   C4B27471  21.642  28.421  10.274  0.2106 -0.2454  0.2615
 2342DOPS   CNO27472  22.674   1.131   9.528  0.2424 -0.0404 -0.1847
 2342DOPS   PO427473  22.476   0.814   9.575 -0.0440 -0.1457 -0.0375
 2342DOPS   GL127474  22.424   0.529  10.019  0.1056  0.0360  0.1488
 2342DOPS   GL227475  22.610   0.619  10.243 -0.2208 -0.2794 -0.0039
 2342DOPS   C1A27476  22.522   0.120  10.237  0.2594  0.0577 -0.0626
 2342DOPS   D2A27477  22.851  -0.207  10.266 -0.0970 -0.0651  0.0630
 2342DOPS   C3A27478  22.719  -0.115  10.705  0.3033  0.3885  0.0885
 2342DOPS   C4A27479  22.988   0.190  10.949  0.1919  0.0286 -0.0162
 2342DOPS   C1B27480  22.676   0.413  10.659  0.1529  0.0820  0.4142
 2342DOPS   D2B27481  22.475   0.354  11.035 -0.3120  0.1067  0.2184
 2342DOPS   C3B27482  22.418   0.185  11.484 -0.3918  0.2142 -0.1595
 2342DOPS   C4B27483  22.291   0.298  11.965 -0.1760 -0.1464 -0.1165
 2343DOPC   NC327484  20.487   1.179   9.627  0.0424  0.1873  0.0031
 2343DOPC   PO427485  20.487   0.851   9.772 -0.3399  0.1900  0.0992
 2343DOPC   GL127486  20.482   1.018  10.107 -0.2390  0.5208  0.0567
 2343DOPC   GL227487  20.748   1.185  10.056  0.1800 -0.0753  0.1451
 2343DOPC   C1A27488  20.696   0.691  10.324  0.0607 -0.1787  0.1871
 2343DOPC   D2A27489  20.766   0.401  10.626  0.0513  0.0094 -0.0668
 2343DOPC   C3A27490  21.087   0.313  10.902  0.1902  0.0375  0.0572
 2343DOPC   C4A27491  21.444   0.112  11.028  0.1422 -0.0177  0.1471
 2343DOPC   C1B27492  20.760   1.148  10.537  0.0200  0.0962  0.2706
 2343DOPC   D2B27493  20.963   1.328  10.911  0.0134  0.3854 -0.2178
 2343DOPC   C3B27494  20.782   1.196  11.337 -0.1239 -0.1887 -0.2086
 2343DOPC   C4B27495  20.596   0.886  11.612 -0.0077 -0.3225 -0.2395
 2344DOPS   CNO27496  11.835  30.885  10.279  0.1023 -0.1980  0.2254
 2344DOPS   PO427497  11.646  30.566  10.344  0.1392  0.1718 -0.3554
 2344DOPS   GL127498  11.824  30.461  10.670  0.0214  0.0981 -0.2211
 2344DOPS   GL227499  11.633  30.166  10.750  0.2571 -0.0256 -0.1870
 2344DOPS   C1A27500  11.829  30.511  11.113  0.0160 -0.2281 -0.1679
 2344DOPS   D2A27501  11.831  30.448  11.554 -0.1460  0.0845 -0.0749
 2344DOPS   C3A27502  11.892  30.064  11.779 -0.0031  0.2109  0.2504
 2344DOPS   C4A27503  11.934  29.984  12.227  0.0601 -0.1857  0.0368
 2344DOPS   C1B27504  11.430  29.845  11.052 -0.1018 -0.0814  0.1238
 2344DOPS   D2B27505  11.539  29.468  11.290 -0.1641 -0.2103  0.0423
 2344DOPS   C3B27506  11.635  29.634  11.714 -0.1910  0.1599 -0.0440
 2344DOPS   C4B27507  11.451  29.926  12.029 -0.2356 -0.0120  0.2067
 2345DOPS   CNO27508  18.224  27.289   9.979  0.1760  0.0240 -0.2301
 2345DOPS   PO427509  17.891  27.226   9.835 -0.2208  0.1157 -0.0690
 2345DOPS   GL127510  17.864  27.187  10.267  0.0220 -0.0139  0.1233
 2345DOPS   GL227511  17.556  27.276  10.405  0.1605 -0.4228  0.0543
 2345DOPS   C1A27512  18.165  26.891  10.474 -0.0931  0.0649  0.0024
 2345DOPS   D2A27513  18.187  26.492  10.736  0.0335 -0.1738  0.0125
 2345DOPS   C3A27514  17.881  26.254  11.030 -0.0102  0.0764 -0.0078
 2345DOPS   C4A27515  17.701  26.415  11.460 -0.0327  0.4294  0.0355
 2345DOPS   C1B27516  17.402  27.155  10.830 -0.0717  0.2338  0.1414
 2345DOPS   D2B27517  17.123  26.986  11.222 -0.0308 -0.0291 -0.0263
 2345DOPS   C3B27518  17.290  26.737  11.539 -0.0030  0.1603 -0.0284
 2345DOPS   C4B27519  17.476  26.612  11.938 -0.0281 -0.2426  0.2840
 2346DOPC   NC327520  13.243  33.769  11.171 -0.0090  0.1812  0.1832
 2346DOPC   PO427521  13.441  33.583  10.862  0.1027  0.1472 -0.2984
 2346DOPC   GL127522  13.673  33.341  11.075 -0.1856  0.1149 -0.1344
 2346DOPC   GL227523  13.699  33.560  11.296  0.1401 -0.2315  0.0190
 2346DOPC   C1A27524  13.832  33.179  11.522 -0.1231 -0.3408  0.0534
 2346DOPC   D2A27525  13.695  32.898  11.843  0.0455  0.2255  0.0496
 2346DOPC   C3A27526  13.328  32.907  12.097  0.2663 -0.1231 -0.1307
 2346DOPC   C4A27527  12.853  32.900  12.240  0.1114  0.0437 -0.0583
 2346DOPC   C1B27528  13.782  33.672  11.749 -0.1677  0.1068 -0.0872
 2346DOPC   D2B27529  13.933  33.774  12.179 -0.2863  0.1707 -0.1921
 2346DOPC   C3B27530  13.943  33.454  12.499  0.0461 -0.0275 -0.3090
 2346DOPC   C4B27531  13.727  33.369  12.905  0.0459  0.0528 -0.2953
 2347DOPE   NH327532  22.917  22.801   9.211  0.2366  0.2900  0.3105
 2347DOPE   PO427533  22.766  22.693   9.489 -0.1410 -0.2221 -0.1687
 2347DOPE   GL127534  22.716  22.722   9.804 -0.3422 -0.0512  0.0082
 2347DOPE   GL227535  22.456  22.618   9.870  0.3883  0.2694  0.0854
 2347DOPE   C1A27536  22.799  22.847  10.236 -0.2365 -0.0486 -0.3332
 2347DOPE   D2A27537  23.028  22.854  10.671 -0.1589 -0.1004  0.1243
 2347DOPE   C3A27538  23.330  22.770  11.045  0.2036  0.0005  0.0043
 2347DOPE   C4A27539  23.618  22.809  11.404 -0.0077  0.2002 -0.0110
 2347DOPE   C1B27540  22.556  22.364  10.264 -0.1087  0.0581 -0.0324
 2347DOPE   D2B27541  22.869  22.026  10.431  0.1272  0.0575 -0.0743
 2347DOPE   C3B27542  22.660  21.575  10.346  0.2056 -0.0089  0.0188
 2347DOPE   C4B27543  22.680  21.155  10.373 -0.1924  0.2216 -0.0224
 2348DOPE   NH327544  11.598  34.358  10.963  0.1802 -0.0792 -0.1120
 2348DOPE   PO427545  11.421  34.583  10.817  0.0110  0.0409  0.0462
 2348DOPE   GL127546  11.256  34.681  11.216 -0.3944  0.1979 -0.3283
 2348DOPE   GL227547  11.329  34.370  11.374  0.2735  0.0031 -0.0232
 2348DOPE   C1A27548  10.937  34.743  11.505 -0.1975  0.1362  0.0224
 2348DOPE   D2A27549  10.513  34.723  11.731  0.4294 -0.3708 -0.2716
 2348DOPE   C3A27550  10.595  34.635  12.170 -0.0088  0.1706 -0.0501
 2348DOPE   C4A27551  10.700  34.564  12.572  0.0790  0.0225 -0.1716
 2348DOPE   C1B27552  11.544  34.076  11.666  0.0186  0.1751 -0.1612
 2348DOPE   D2B27553  11.774  33.667  11.806 -0.1401  0.0081 -0.1425
 2348DOPE   C3B27554  12.024  33.657  12.248  0.2285 -0.3003  0.3101
 2348DOPE   C4B27555  12.335  33.747  12.585  0.3304 -0.0793 -0.1676
 2349POSM   NC327556  17.459  26.935  10.052 -0.0164  0.0601 -0.0623
 2349POSM   PO427557  17.150  27.199  10.043  0.0724  0.0619 -0.1549
 2349POSM   AM127558  17.025  27.268  10.349 -0.0379 -0.3178  0.1686
 2349POSM   AM227559  16.860  27.157  10.514 -0.2664  0.0458 -0.0456
 2349POSM   T1A27560  17.099  27.506  10.758 -0.1142 -0.3029  0.1945
 2349POSM   C2A27561  17.511  27.641  10.915  0.0072  0.0986  0.0379
 2349POSM   C3A27562  17.819  27.492  11.193  0.5723  0.0186 -0.1085
 2349POSM   C1B27563  16.913  26.986  10.782  0.1171  0.1549  0.4437
 2349POSM   D2B27564  16.840  26.609  10.971 -0.2962 -0.0209 -0.1600
 2349POSM   C3B27565  16.968  26.308  10.717 -0.2223  0.5472  0.0995
 2349POSM   C4B27566  17.134  25.860  10.736  0.3931 -0.1205 -0.0661
 2350DOPS   CNO27567  21.806  31.390   8.778 -0.0665  0.0113 -0.1891
 2350DOPS   PO427568  21.794  31.516   9.129 -0.2972 -0.0419 -0.1846
 2350DOPS   GL127569  21.682  31.645   9.542 -0.0023  0.0579 -0.1065
 2350DOPS   GL227570  21.590  31.833   9.651 -0.3602 -0.1397  0.0933
 2350DOPS   C1A27571  21.972  31.608   9.859 -0.1088 -0.0646 -0.0589
 2350DOPS   D2A27572  22.062  31.730  10.300 -0.0085 -0.0138  0.0252
 2350DOPS   C3A27573  22.457  31.546  10.484 -0.1558 -0.0394  0.0062
 2350DOPS   C4A27574  22.559  31.103  10.652  0.0032  0.0398 -0.0481
 2350DOPS   C1B27575  21.608  31.890  10.088 -0.0290  0.0418 -0.2720
 2350DOPS   D2B27576  21.651  31.950  10.532  0.3040 -0.3186  0.1775
 2350DOPS   C3B27577  21.500  31.827  10.938 -0.1400  0.1473  0.2203
 2350DOPS   C4B27578  21.186  31.897  11.261  0.0687  0.3143  0.0601
 2351DOPC   NC327579  18.244  22.948   9.247 -0.0049  0.1553 -0.1675
 2351DOPC   PO427580  18.256  23.315   9.211 -0.2434 -0.0801 -0.2530
 2351DOPC   GL127581  18.272  23.336   9.673 -0.4698  0.0103  0.0355
 2351DOPC   GL227582  18.284  23.052   9.814 -0.1110 -0.0781  0.1974
 2351DOPC   C1A27583  18.626  23.333  10.018 -0.0275 -0.1629 -0.3192
 2351DOPC   D2A27584  18.731  23.369  10.411 -0.3042 -0.3173 -0.2322
 2351DOPC   C3A27585  19.034  23.091  10.737 -0.0192 -0.0214 -0.0347
 2351DOPC   C4A27586  19.315  23.321  11.086 -0.0021 -0.1517  0.2609
 2351DOPC   C1B27587  18.227  23.118  10.292  0.0962 -0.2068 -0.1327
 2351DOPC   D2B27588  18.444  23.074  10.722 -0.1959  0.2708  0.0458
 2351DOPC   C3B27589  18.088  23.241  10.997  0.1338 -0.1259  0.1511
 2351DOPC   C4B27590  18.010  23.489  11.394  0.1478 -0.2901  0.3870
 2352DOPE   NH327591  10.657  28.605  10.688  0.0739 -0.0916  0.3427
 2352DOPE   PO427592  10.849  28.500  10.895 -0.3431 -0.1956  0.2438
 2352DOPE   GL127593  10.833  28.375  11.341 -0.1912 -0.0825  0.2884
 2352DOPE   GL227594  10.961  28.103  11.283 -0.0714 -0.0060  0.1307
 2352DOPE   C1A27595  10.862  28.371  11.774  0.2006 -0.1093 -0.1408
 2352DOPE   D2A27596  10.817  28.571  12.191 -0.1922  0.1728  0.1653
 2352DOPE   C3A27597  10.433  28.794  12.327  0.1572  0.0058 -0.2282
 2352DOPE   C4A27598  10.333  29.220  12.490  0.3085 -0.0126 -0.0172
 2352DOPE   C1B27599  10.965  27.882  11.651 -0.0014 -0.2285  0.1150
 2352DOPE   D2B27600  10.973  27.588  11.953  0.0905 -0.0800  0.1698
 2352DOPE   C3B27601  11.348  27.404  12.090 -0.2549  0.0493 -0.1048
 2352DOPE   C4B27602  11.345  26.928  12.221  0.0384 -0.2240  0.0953
 2353DOPS   CNO27603  16.597  25.680   9.331 -0.0592  0.0689  0.2538
 2353DOPS   PO427604  16.836  25.825   9.620  0.0151  0.1982 -0.2006
 2353DOPS   GL127605  16.753  25.835  10.029 -0.1425  0.0419 -0.0263
 2353DOPS   GL227606  16.984  25.847  10.172  0.1505  0.0295 -0.2003
 2353DOPS   C1A27607  16.651  26.051  10.469  0.0999 -0.0316 -0.0929
 2353DOPS   D2A27608  16.594  25.987  10.931  0.0218 -0.0240 -0.0843
 2353DOPS   C3A27609  16.322  26.023  11.288  0.0597  0.2073 -0.0629
 2353DOPS   C4A27610  15.851  26.088  11.403 -0.4802 -0.2079  0.0813
 2353DOPS   C1B27611  16.890  25.536  10.468  0.1178 -0.0558  0.3491
 2353DOPS   D2B27612  17.003  25.292  10.885  0.1483 -0.0347  0.1294
 2353DOPS   C3B27613  16.735  25.424  11.187  0.1101  0.0497  0.0614
 2353DOPS   C4B27614  16.498  25.577  11.595 -0.2983 -0.0547 -0.0052
 2354DOPS   CNO27615  20.638  29.128   9.179  0.2876 -0.0230  0.1805
 2354DOPS   PO427616  20.335  28.957   9.307  0.1536 -0.1443  0.1122
 2354DOPS   GL127617  20.351  29.266   9.572  0.0559  0.0643 -0.3515
 2354DOPS   GL227618  20.528  29.553   9.615  0.0784 -0.0715  0.2529
 2354DOPS   C1A27619  20.540  29.197  10.015  0.0926  0.1232 -0.2222
 2354DOPS   D2A27620  20.808  29.162  10.387  0.1667 -0.2271  0.3593
 2354DOPS   C3A27621  20.744  29.105  10.818 -0.1385 -0.0162  0.0746
 2354DOPS   C4A27622  20.582  29.045  11.241  0.3262 -0.0087 -0.1115
 2354DOPS   C1B27623  20.304  29.842   9.887 -0.1802  0.1160 -0.0578
 2354DOPS   D2B27624  20.226  30.297   9.940  0.3746 -0.0969 -0.1419
 2354DOPS   C3B27625  20.521  30.416  10.319  0.2847  0.1215 -0.0539
 2354DOPS   C4B27626  20.851  30.132  10.498 -0.0999  0.0634  0.1557
 2355DOPE   NH327627  11.698  32.552  10.583 -0.0217 -0.0100  0.0930
 2355DOPE   PO427628  11.830  32.263  10.590 -0.0204 -0.2000  0.0478
 2355DOPE   GL127629  12.031  32.312  10.929  0.0123 -0.2969 -0.1153
 2355DOPE   GL227630  11.780  32.407  11.072  0.0199 -0.6822 -0.3260
 2355DOPE   C1A27631  12.341  32.411  11.200 -0.1448 -0.0020  0.1380
 2355DOPE   D2A27632  12.442  32.465  11.656  0.2875 -0.0136  0.1557
 2355DOPE   C3A27633  12.823  32.593  11.830  0.2448 -0.5023  0.0801
 2355DOPE   C4A27634  13.105  32.443  12.070  0.1898  0.3200 -0.1029
 2355DOPE   C1B27635  11.909  32.343  11.494 -0.0961 -0.0470 -0.1505
 2355DOPE   D2B27636  11.952  32.289  11.936 -0.1929 -0.3467  0.2374
 2355DOPE   C3B27637  12.251  32.584  12.159 -0.0187 -0.5477  0.2379
 2355DOPE   C4B27638  12.384  32.780  12.578  0.0200  0.0603  0.0388
 2356DOPE   NH327639  18.470  26.802   9.997  0.2949  0.0117 -0.1389
 2356DOPE   PO427640  18.808  26.869   9.961 -0.2347  0.3597  0.0456
 2356DOPE   GL127641  18.841  27.075  10.328 -0.0843  0.0693 -0.4224
 2356DOPE   GL227642  18.597  27.202  10.355  0.0668 -0.3486 -0.0727
 2356DOPE   C1A27643  19.063  26.984  10.754 -0.0294 -0.1883  0.0835
 2356DOPE   D2A27644  19.026  27.032  11.224  0.0802 -0.1365  0.1197
 2356DOPE   C3A27645  19.025  27.480  11.154  0.1544  0.0655 -0.0511
 2356DOPE   C4A27646  19.242  27.751  10.960  0.0671  0.0315 -0.1239
 2356DOPE   C1B27647  18.561  27.198  10.814  0.0395  0.0938  0.1546
 2356DOPE   D2B27648  18.178  27.211  11.120  0.0612  0.0757 -0.1487
 2356DOPE   C3B27649  18.035  27.181  11.608  0.2386 -0.0538  0.0748
 2356DOPE   C4B27650  17.799  27.064  12.005  0.0256 -0.3235  0.0341
 2357POSM   NC327651  22.672  25.550   9.544  0.2397  0.1253  0.0306
 2357POSM   PO427652  22.666  25.168   9.533 -0.3309  0.2966  0.0700
 2357POSM   AM127653  22.712  25.128   9.861 -0.3043 -0.0327  0.2672
 2357POSM   AM227654  22.878  25.249  10.067 -0.0751  0.0163  0.0398
 2357POSM   T1A27655  22.714  24.759  10.211  0.3754 -0.2543  0.0995
 2357POSM   C2A27656  22.485  24.511  10.497  0.1687 -0.1654 -0.1167
 2357POSM   C3A27657  22.134  24.297  10.787 -0.1337  0.3217 -0.0387
 2357POSM   C1B27658  22.921  25.219  10.436 -0.0706 -0.0873 -0.1263
 2357POSM   D2B27659  23.015  25.194  10.876 -0.0723  0.1343  0.1517
 2357POSM   C3B27660  22.800  25.599  10.954  0.1249 -0.0628 -0.0806
 2357POSM   C4B27661  22.850  26.047  10.883 -0.3173 -0.3999  0.0344
 2358DOPC   NC327662  21.042  24.447   9.702  0.4331 -0.1344 -0.1781
 2358DOPC   PO427663  20.695  24.629   9.698  0.0367 -0.4587  0.0866
 2358DOPC   GL127664  20.762  24.618  10.061  0.0626  0.2742  0.2284
 2358DOPC   GL227665  20.504  24.857  10.210  0.2803 -0.0751 -0.1082
 2358DOPC   C1A27666  21.000  24.855  10.393  0.1102  0.1503 -0.2840
 2358DOPC   D2A27667  20.950  25.133  10.768  0.0972  0.1655 -0.3106
 2358DOPC   C3A27668  20.698  25.448  10.917 -0.2002 -0.3108 -0.2329
 2358DOPC   C4A27669  20.604  25.849  11.062 -0.0205  0.2790  0.0675
 2358DOPC   C1B27670  20.486  24.917  10.646  0.1889 -0.0440 -0.0378
 2358DOPC   D2B27671  20.412  24.922  11.115  0.1746 -0.0053 -0.2486
 2358DOPC   C3B27672  20.729  25.250  11.375 -0.1350 -0.4160  0.0241
 2358DOPC   C4B27673  20.876  25.680  11.411  0.2223  0.3065  0.0583
 2359DOPC   NC327674  14.284  29.878  10.314  0.1805 -0.1146  0.0734
 2359DOPC   PO427675  14.622  29.808  10.132 -0.1200 -0.1369  0.3391
 2359DOPC   GL127676  14.865  29.614  10.512 -0.1304 -0.3100  0.3191
 2359DOPC   GL227677  14.667  29.867  10.659  0.3059 -0.2314 -0.3688
 2359DOPC   C1A27678  14.594  29.381  10.820 -0.0135  0.0025  0.1028
 2359DOPC   D2A27679  14.350  29.365  11.234  0.0387 -0.1941  0.3096
 2359DOPC   C3A27680  14.076  29.189  11.541  0.1143 -0.0363  0.1225
 2359DOPC   C4A27681  14.190  28.813  11.817 -0.0111  0.1969 -0.0759
 2359DOPC   C1B27682  14.716  29.791  11.120 -0.1293  0.0667  0.2109
 2359DOPC   D2B27683  14.701  29.730  11.607  0.1723 -0.1737 -0.2525
 2359DOPC   C3B27684  14.448  29.435  11.723 -0.1262 -0.0865 -0.0895
 2359DOPC   C4B27685  14.303  29.252  12.109 -0.0964 -0.0594  0.1455
 2360DOPE   NH327686  22.305   2.181   9.466  0.0058  0.1691  0.2428
 2360DOPE   PO427687  22.033   2.289   9.663 -0.2932  0.0333  0.1136
 2360DOPE   GL127688  22.148   2.509   9.929 -0.1150  0.0111 -0.3907
 2360DOPE   GL227689  22.059   2.747   9.992  0.0995  0.2070  0.0728
 2360DOPE   C1A27690  22.132   2.450  10.420 -0.1556 -0.0675  0.2465
 2360DOPE   D2A27691  21.923   2.482  10.823 -0.3103  0.0091 -0.1850
 2360DOPE   C3A27692  22.088   2.865  11.024  0.0904  0.0291  0.1781
 2360DOPE   C4A27693  21.991   3.316  11.109  0.2707 -0.1522 -0.2243
 2360DOPE   C1B27694  21.651   2.520  10.155 -0.0038  0.0878  0.0003
 2360DOPE   D2B27695  21.225   2.418   9.952  0.2722  0.1989 -0.2416
 2360DOPE   C3B27696  20.879   2.695  10.074 -0.1026 -0.0218  0.1051
 2360DOPE   C4B27697  20.786   3.123  10.265 -0.1370  0.2975  0.2035
 2361POSM   NC327698  20.508  31.736   9.161 -0.5747 -0.2189 -0.3861
 2361POSM   PO427699  20.775  31.939   9.375  0.0141  0.0513 -0.1629
 2361POSM   AM127700  21.002  31.896   9.634  0.3578  0.1215  0.0636
 2361POSM   AM227701  21.188  32.057   9.737  0.0401 -0.0776  0.1002
 2361POSM   T1A27702  21.103  31.663  10.052  0.1474  0.2734  0.1398
 2361POSM   C2A27703  21.217  31.640  10.490  0.0947  0.2205  0.2717
 2361POSM   C3A27704  21.063  31.516  10.946  0.2137  0.0071 -0.0970
 2361POSM   C1B27705  21.248  32.240   9.989  0.1682  0.2557  0.0336
 2361POSM   D2B27706  21.421  32.362  10.418  0.1035 -0.1460 -0.0784
 2361POSM   C3B27707  21.568  32.416  10.863 -0.0047 -0.4689  0.0195
 2361POSM   C4B27708  21.770  32.688  11.172  0.0008 -0.0978 -0.2405
 2362DOPE   NH327709  17.209  30.115   9.500 -0.4127 -0.2162 -0.1752
 2362DOPE   PO427710  17.397  30.069   9.758 -0.0582  0.0706  0.1250
 2362DOPE   GL127711  17.455  30.085  10.157 -0.0949 -0.1610 -0.1091
 2362DOPE   GL227712  17.325  29.861  10.320 -0.1407  0.3109  0.1475
 2362DOPE   C1A27713  17.839  29.848  10.332  0.1473 -0.0607  0.0071
 2362DOPE   D2A27714  18.072  29.982  10.740  0.1081 -0.3481 -0.0077
 2362DOPE   C3A27715  17.834  30.168  11.108 -0.0653  0.0589  0.2319
 2362DOPE   C4A27716  17.798  30.301  11.565  0.1154  0.2548 -0.1807
 2362DOPE   C1B27717  17.505  29.900  10.746 -0.2035 -0.1148 -0.4098
 2362DOPE   D2B27718  17.437  29.800  11.176  0.1359  0.1522 -0.0273
 2362DOPE   C3B27719  17.073  29.812  11.436  0.1683  0.2578 -0.1772
 2362DOPE   C4B27720  16.776  29.964  11.710  0.3701 -0.0104  0.1314
 2363DOPC   NC327721  19.859  27.421   9.783  0.3467 -0.0623 -0.0154
 2363DOPC   PO427722  19.533  27.211   9.829 -0.1964  0.0107 -0.0731
 2363DOPC   GL127723  19.722  27.094  10.063  0.0218  0.0422  0.2697
 2363DOPC   GL227724  19.594  27.229  10.350  0.0281 -0.1345 -0.0086
 2363DOPC   C1A27725  20.080  27.054  10.289 -0.1468 -0.0053 -0.0188
 2363DOPC   D2A27726  20.439  26.902  10.442 -0.3861  0.0982  0.2649
 2363DOPC   C3A27727  20.824  27.062  10.645 -0.1280  0.0009  0.0949
 2363DOPC   C4A27728  21.134  27.204  10.957 -0.1006 -0.1770 -0.1497
 2363DOPC   C1B27729  19.531  27.313  10.814  0.0106 -0.4510  0.0356
 2363DOPC   D2B27730  19.600  27.238  11.227  0.1017 -0.3622 -0.0705
 2363DOPC   C3B27731  19.276  27.341  11.581  0.2883 -0.1027 -0.3753
 2363DOPC   C4B27732  19.020  27.657  11.829 -0.3597  0.2302  0.1441
 2364DOPS   CNO27733  12.165  30.032   9.918 -0.2449  0.0422  0.3836
 2364DOPS   PO427734  12.456  29.972  10.127  0.0441 -0.1747 -0.0636
 2364DOPS   GL127735  12.531  29.743  10.539 -0.0300  0.1160  0.0525
 2364DOPS   GL227736  12.293  29.951  10.644  0.2801 -0.1597 -0.1422
 2364DOPS   C1A27737  12.424  29.422  10.902 -0.2679 -0.3985  0.3893
 2364DOPS   D2A27738  12.584  29.344  11.322 -0.2261  0.0085  0.1621
 2364DOPS   C3A27739  12.240  29.017  11.353  0.0100  0.3821  0.2224
 2364DOPS   C4A27740  11.839  29.128  11.625  0.1567 -0.0052 -0.0038
 2364DOPS   C1B27741  12.202  30.239  10.966 -0.0329 -0.0221 -0.0542
 2364DOPS   D2B27742  12.321  30.567  11.212  0.1297  0.0759 -0.1773
 2364DOPS   C3B27743  12.325  30.370  11.646  0.1715 -0.2218 -0.0485
 2364DOPS   C4B27744  12.371  30.364  12.115  0.1318 -0.3123  0.1145
 2365DOPE   NH327745  17.907  31.895   9.733  0.1014  0.3113  0.3306
 2365DOPE   PO427746  17.880  31.766  10.016 -0.2449  0.0526 -0.2323
 2365DOPE   GL127747  17.913  31.721  10.341  0.1175  0.0963  0.0604
 2365DOPE   GL227748  17.660  31.751  10.537 -0.0862 -0.2140 -0.2768
 2365DOPE   C1A27749  18.178  31.712  10.738 -0.1257 -0.2934  0.0941
 2365DOPE   D2A27750  18.310  31.623  11.211 -0.3763  0.1401  0.1583
 2365DOPE   C3A27751  18.010  31.854  11.416 -0.1457 -0.1107  0.0670
 2365DOPE   C4A27752  17.570  31.623  11.460  0.1594 -0.0223 -0.1433
 2365DOPE   C1B27753  17.171  32.003  10.595  0.3220 -0.2256  0.0329
 2365DOPE   D2B27754  16.969  32.368  10.768 -0.1352  0.2894 -0.1892
 2365DOPE   C3B27755  17.070  32.248  11.138 -0.1132  0.0310 -0.0660
 2365DOPE   C4B27756  16.981  31.956  11.527 -0.1009 -0.3279  0.0720
 2366DOPE   NH327757  14.855  26.823  10.059 -0.3385 -0.1372  0.0269
 2366DOPE   PO427758  14.644  26.681  10.235 -0.0866  0.0788 -0.1829
 2366DOPE   GL127759  14.506  26.772  10.552 -0.2824  0.0745 -0.0597
 2366DOPE   GL227760  14.288  26.927  10.464  0.0137  0.1536 -0.1190
 2366DOPE   C1A27761  14.488  26.811  10.951  0.2503 -0.0769 -0.0134
 2366DOPE   D2A27762  14.383  26.714  11.421 -0.0017  0.2460 -0.1336
 2366DOPE   C3A27763  14.506  26.826  11.852 -0.0625  0.0358 -0.2244
 2366DOPE   C4A27764  14.878  26.782  12.157  0.1522  0.0124 -0.0380
 2366DOPE   C1B27765  14.109  27.071  10.877 -0.2065 -0.1129 -0.0652
 2366DOPE   D2B27766  14.024  26.979  11.267 -0.1312 -0.0360  0.2786
 2366DOPE   C3B27767  14.074  27.148  11.670 -0.2317  0.2543 -0.1229
 2366DOPE   C4B27768  13.879  27.560  11.861 -0.0112  0.0269  0.1084
 2367DOPS   CNO27769  22.976  34.231   9.730  0.0650  0.2047 -0.3652
 2367DOPS   PO427770  23.100  34.403   9.391 -0.0936  0.2148  0.2629
 2367DOPS   GL127771  23.347  34.574   9.642 -0.0951 -0.2550 -0.3866
 2367DOPS   GL227772  23.239  34.613   9.923 -0.1458  0.1053  0.1619
 2367DOPS   C1A27773  23.698  34.858   9.778  0.2064  0.0211 -0.1459
 2367DOPS   D2A27774  23.593  34.941  10.174  0.0364 -0.0594 -0.0300
 2367DOPS   C3A27775  23.655  34.931  10.671 -0.1577 -0.0172 -0.0232
 2367DOPS   C4A27776  23.528  35.205  11.037 -0.1429  0.0731 -0.2675
 2367DOPS   C1B27777  23.467  34.481  10.265  0.1934 -0.3925 -0.5627
 2367DOPS   D2B27778  23.592  34.408  10.671  0.1570 -0.0346  0.0394
 2367DOPS   C3B27779  23.539  33.954  10.845  0.1790  0.3027 -0.3023
 2367DOPS   C4B27780  23.382  33.790  11.220  0.1046  0.1821  0.2077
 2368DOPE   NH327781  23.683  27.191   9.353 -0.0150 -0.2220  0.2335
 2368DOPE   PO427782  23.737  27.392   9.093  0.4779 -0.1341 -0.2476
 2368DOPE   GL127783  23.713  27.636   9.389 -0.0440  0.2075 -0.2276
 2368DOPE   GL227784  23.937  27.798   9.531 -0.1011  0.2524 -0.2205
 2368DOPE   C1A27785  23.456  27.668   9.800 -0.1529 -0.2096 -0.1407
 2368DOPE   D2A27786  23.209  27.918  10.136  0.0342  0.0451  0.1152
 2368DOPE   C3A27787  23.137  27.935  10.567  0.2601  0.2383  0.3139
 2368DOPE   C4A27788  23.132  27.828  11.017  0.0651  0.5084 -0.2110
 2368DOPE   C1B27789  24.166  27.953   9.913  0.1387  0.1608  0.2198
 2368DOPE   D2B27790  24.149  28.278  10.254  0.0715 -0.1680 -0.0384
 2368DOPE   C3B27791  24.011  28.282  10.694  0.0326  0.1003  0.1381
 2368DOPE   C4B27792  24.007  27.967  11.063 -0.4346 -0.1449 -0.1106
 2369DOPS   CNO27793  17.941  23.702   9.014  0.1282  0.1916  0.0352
 2369DOPS   PO427794  17.753  23.974   9.004 -0.1903 -0.1850 -0.0910
 2369DOPS   GL127795  17.892  23.902   9.434 -0.0080 -0.0813  0.1206
 2369DOPS   GL227796  17.904  23.570   9.497 -0.4868  0.2452  0.0382
 2369DOPS   C1A27797  18.048  23.949   9.870 -0.0698  0.1346  0.1682
 2369DOPS   D2A27798  18.337  24.243  10.099 -0.1655  0.1265  0.1506
 2369DOPS   C3A27799  18.511  24.099  10.554  0.0274  0.1021 -0.0589
 2369DOPS   C4A27800  18.810  24.195  10.900  0.1230  0.0911 -0.1367
 2369DOPS   C1B27801  17.848  23.182   9.785  0.0648  0.2248  0.2986
 2369DOPS   D2B27802  17.738  22.844  10.094 -0.0554  0.2175 -0.0700
 2369DOPS   C3B27803  17.788  22.418  10.038  0.1245 -0.5080 -0.0650
 2369DOPS   C4B27804  18.134  22.074  10.220 -0.1715 -0.0368  0.1884
 2370DOPS   CNO27805  21.698  22.738   8.733  0.0206 -0.0778 -0.1413
 2370DOPS   PO427806  21.452  22.782   8.985  0.1115  0.2889 -0.0104
 2370DOPS   GL127807  21.720  22.636   9.250  0.6072  0.2986 -0.0849
 2370DOPS   GL227808  21.879  22.758   9.502  0.1977  0.1287  0.1092
 2370DOPS   C1A27809  21.670  22.301   9.625 -0.0582 -0.0919 -0.1596
 2370DOPS   D2A27810  21.821  21.874   9.787 -0.1987  0.4005  0.3444
 2370DOPS   C3A27811  22.231  21.733   9.995  0.2377  0.0193  0.0471
 2370DOPS   C4A27812  22.606  21.976   9.982  0.1433 -0.0942 -0.2711
 2370DOPS   C1B27813  21.970  22.607   9.930 -0.0446 -0.3498  0.0022
 2370DOPS   D2B27814  22.103  22.530  10.344  0.1192  0.2204  0.1901
 2370DOPS   C3B27815  22.017  22.656  10.838  0.2954 -0.0064 -0.1184
 2370DOPS   C4B27816  21.592  22.485  10.947 -0.2248  0.1294 -0.1657
 2371DOPC   NC327817  12.944  27.253   9.807  0.0282  0.0687 -0.1998
 2371DOPC   PO427818  13.151  27.016  10.013 -0.0552  0.1158 -0.0747
 2371DOPC   GL127819  13.291  26.969  10.392 -0.0072 -0.1613  0.2358
 2371DOPC   GL227820  13.105  27.017  10.638 -0.0970 -0.1424  0.0553
 2371DOPC   C1A27821  13.733  26.802  10.470  0.0070  0.0718 -0.2845
 2371DOPC   D2A27822  14.027  26.552  10.738 -0.2029 -0.1409  0.1797
 2371DOPC   C3A27823  14.109  26.410  11.178  0.0959 -0.1116  0.0733
 2371DOPC   C4A27824  13.889  26.229  11.520 -0.0724 -0.0363  0.1310
 2371DOPC   C1B27825  13.136  27.018  11.146 -0.0427 -0.0531  0.1988
 2371DOPC   D2B27826  13.524  26.995  11.459 -0.0899  0.0060  0.1818
 2371DOPC   C3B27827  13.457  26.618  11.779 -0.0489  0.0143 -0.3701
 2371DOPC   C4B27828  13.553  26.523  12.221 -0.1822  0.3243  0.1172
 2372DOPC   NC327829  20.170  29.445   9.210 -0.0065 -0.3075 -0.1504
 2372DOPC   PO427830  19.824  29.620   9.362  0.1200  0.0971  0.1969
 2372DOPC   GL127831  19.707  29.638   9.748  0.1499 -0.1978 -0.3635
 2372DOPC   GL227832  19.534  29.443   9.818 -0.3120  0.0322 -0.0924
 2372DOPC   C1A27833  19.946  29.497  10.127  0.1517 -0.1818 -0.1228
 2372DOPC   D2A27834  20.272  29.349  10.426  0.0957  0.0873  0.1859
 2372DOPC   C3A27835  20.381  29.648  10.779  0.0389  0.2236  0.1034
 2372DOPC   C4A27836  20.557  29.621  11.230  0.5419  0.0887  0.0011
 2372DOPC   C1B27837  19.772  29.082   9.939  0.2159 -0.0543  0.0399
 2372DOPC   D2B27838  20.075  28.949  10.206 -0.2501  0.0339  0.1353
 2372DOPC   C3B27839  19.827  28.630  10.476 -0.0032 -0.1753 -0.0906
 2372DOPC   C4B27840  19.515  28.305  10.510 -0.0339 -0.0071 -0.1935
 2373DOPE   NH327841  17.220  26.728   9.587  0.3929  0.2324  0.2529
 2373DOPE   PO427842  17.073  26.661   9.869 -0.0688  0.1535  0.2103
 2373DOPE   GL127843  17.067  26.704  10.279 -0.4777 -0.2607 -0.2164
 2373DOPE   GL227844  17.224  26.814  10.492  0.0287 -0.0372 -0.1723
 2373DOPE   C1A27845  16.674  26.597  10.445 -0.3558  0.1421 -0.1138
 2373DOPE   D2A27846  16.301  26.450  10.662 -0.1224 -0.2263  0.3121
 2373DOPE   C3A27847  16.175  26.008  10.743  0.0704 -0.1602 -0.0825
 2373DOPE   C4A27848  16.003  25.574  10.583  0.0099 -0.1369 -0.0930
 2373DOPE   C1B27849  17.378  26.634  10.902  0.1364 -0.2761  0.1112
 2373DOPE   D2B27850  17.314  26.252  11.156 -0.0071  0.2000 -0.0497
 2373DOPE   C3B27851  17.268  26.174  11.614 -0.3028  0.1992  0.2997
 2373DOPE   C4B27852  17.542  26.025  11.938 -0.2643  0.3486  0.2384
 2374DOPC   NC327853  22.055   3.294   9.542  0.0035 -0.0062 -0.3490
 2374DOPC   PO427854  21.841   3.130   9.817  0.0823 -0.1556 -0.1438
 2374DOPC   GL127855  21.953   3.245  10.172 -0.0229 -0.2152  0.0918
 2374DOPC   GL227856  21.937   3.565  10.098  0.1534 -0.0075  0.0574
 2374DOPC   C1A27857  21.810   2.929  10.494  0.1606 -0.0539 -0.0128
 2374DOPC   D2A27858  21.642   2.882  10.930 -0.0142 -0.1171  0.0525
 2374DOPC   C3A27859  21.839   2.749  11.397 -0.1918 -0.2516 -0.0099
 2374DOPC   C4A27860  22.116   2.755  11.794 -0.0059  0.1079 -0.1907
 2374DOPC   C1B27861  22.120   3.786  10.504  0.1574  0.0521 -0.3127
 2374DOPC   D2B27862  22.150   3.796  11.017  0.0163 -0.2106 -0.1449
 2374DOPC   C3B27863  22.311   4.157  11.212  0.0376  0.0023 -0.0717
 2374DOPC   C4B27864  22.208   4.322  11.598  0.0889  0.0180  0.0049
 2375POSM   NC327865  16.117  24.218   9.741  0.0657 -0.0176  0.0527
 2375POSM   PO427866  15.748  24.120   9.543 -0.0425  0.2028  0.0048
 2375POSM   AM127867  15.668  24.217   9.879 -0.1347 -0.1103 -0.1423
 2375POSM   AM227868  15.583  24.434  10.090 -0.1532 -0.1212 -0.0579
 2375POSM   T1A27869  15.854  24.075  10.321 -0.2402  0.0809  0.0540
 2375POSM   C2A27870  15.918  24.292  10.725 -0.0413  0.1936 -0.0552
 2375POSM   C3A27871  16.138  24.375  11.153 -0.1560  0.1237  0.1513
 2375POSM   C1B27872  15.637  24.639  10.376  0.0630  0.0689 -0.1325
 2375POSM   D2B27873  15.846  24.750  10.796  0.0021  0.0441 -0.0208
 2375POSM   C3B27874  15.590  24.877  11.175 -0.0817  0.0479  0.0047
 2375POSM   C4B27875  15.226  25.130  11.302 -0.0767 -0.0905 -0.2745
 2376DOPC   NC327876  15.940  30.731   9.637  0.0938 -0.0955  0.1476
 2376DOPC   PO427877  16.276  30.679   9.798  0.0081  0.0644  0.1492
 2376DOPC   GL127878  16.618  30.557  10.007 -0.2634 -0.3689 -0.0085
 2376DOPC   GL227879  16.638  30.736  10.140 -0.3033 -0.0185  0.0639
 2376DOPC   C1A27880  16.953  30.508  10.375 -0.0832 -0.0373  0.0613
 2376DOPC   D2A27881  16.880  30.317  10.770 -0.1155 -0.0097 -0.0615
 2376DOPC   C3A27882  17.164  30.242  11.187  0.0623 -0.1034  0.1465
 2376DOPC   C4A27883  17.249  30.252  11.597  0.2702 -0.0910 -0.2188
 2376DOPC   C1B27884  16.518  30.727  10.611  0.1591 -0.0782 -0.0112
 2376DOPC   D2B27885  16.451  30.731  11.105 -0.0057 -0.2568  0.2381
 2376DOPC   C3B27886  16.223  30.483  11.416 -0.0653  0.1597  0.0003
 2376DOPC   C4B27887  16.049  30.589  11.808  0.1529  0.2290 -0.1630
 2377DOPC   NC327888  16.958  34.679  10.228  0.1430 -0.2004  0.0040
 2377DOPC   PO427889  16.829  34.337  10.334 -0.1397 -0.1679 -0.1640
 2377DOPC   GL127890  16.737  34.294  10.756  0.3107 -0.1733 -0.5187
 2377DOPC   GL227891  16.579  34.145  10.845  0.2838 -0.2263  0.0767
 2377DOPC   C1A27892  16.759  34.378  11.242 -0.2869  0.0023  0.2294
 2377DOPC   D2A27893  16.571  34.548  11.608 -0.0627 -0.0069  0.2053
 2377DOPC   C3A27894  16.752  34.245  11.914 -0.2881  0.1214  0.0885
 2377DOPC   C4A27895  16.915  33.878  12.100  0.1735 -0.4401 -0.0281
 2377DOPC   C1B27896  16.650  33.711  10.770 -0.2014 -0.0082  0.3770
 2377DOPC   D2B27897  17.042  33.557  10.671 -0.0931 -0.0066 -0.1745
 2377DOPC   C3B27898  17.246  33.345  11.014 -0.1844 -0.3541 -0.0353
 2377DOPC   C4B27899  17.214  33.206  11.433  0.1852 -0.0488 -0.2870
 2378DOPE   NH327900  15.317  34.292  10.550  0.0759 -0.0742  0.2494
 2378DOPE   PO427901  15.257  34.086  10.310 -0.0533  0.0476  0.1240
 2378DOPE   GL127902  15.485  33.888  10.607 -0.1934  0.1568 -0.1255
 2378DOPE   GL227903  15.277  33.785  10.775 -0.0172 -0.0232 -0.1490
 2378DOPE   C1A27904  15.765  33.638  10.900  0.1957 -0.4071  0.2347
 2378DOPE   D2A27905  15.873  33.305  11.242  0.2400 -0.0932 -0.3803
 2378DOPE   C3A27906  15.801  33.489  11.636 -0.0969 -0.3124  0.0961
 2378DOPE   C4A27907  15.819  33.353  12.105  0.0723  0.6398  0.2929
 2378DOPE   C1B27908  15.361  33.574  11.203  0.1497  0.0807 -0.1217
 2378DOPE   D2B27909  15.402  33.209  11.455 -0.2017 -0.0503 -0.0867
 2378DOPE   C3B27910  15.498  32.929  11.822  0.1899 -0.1229  0.0526
 2378DOPE   C4B27911  15.263  32.732  12.184 -0.2644 -0.0974  0.0906
 2379DOPE   NH327912  13.709  32.425  10.480  0.1122  0.2026 -0.2186
 2379DOPE   PO427913  13.880  32.679  10.507  0.2453  0.1258 -0.1050
 2379DOPE   GL127914  13.752  32.765  10.868 -0.0050  0.1719 -0.3152
 2379DOPE   GL227915  14.025  32.903  11.014  0.1684 -0.1387 -0.3754
 2379DOPE   C1A27916  13.756  32.712  11.321 -0.0015 -0.1316 -0.2277
 2379DOPE   D2A27917  14.116  32.694  11.683  0.0570  0.0906 -0.2792
 2379DOPE   C3A27918  14.537  32.445  11.812  0.1351  0.0965 -0.0473
 2379DOPE   C4A27919  14.555  32.068  12.135  0.1426  0.2037 -0.0595
 2379DOPE   C1B27920  14.468  32.798  10.918  0.1145 -0.0049 -0.0299
 2379DOPE   D2B27921  14.936  32.745  10.914  0.2361  0.1597  0.2275
 2379DOPE   C3B27922  15.201  32.459  11.138 -0.1837 -0.1257  0.2364
 2379DOPE   C4B27923  15.393  32.048  11.202 -0.0458  0.1357  0.0184
 2380DOPC   NC327924  10.071  27.454  10.576  0.3742  0.1587 -0.1058
 2380DOPC   PO427925   9.796  27.754  10.615  0.0126 -0.3494  0.0411
 2380DOPC   GL127926  10.001  27.728  10.947 -0.2346 -0.2715  0.0770
 2380DOPC   GL227927   9.995  27.432  11.054 -0.1471  0.1862 -0.2012
 2380DOPC   C1A27928  10.107  27.802  11.376 -0.0352 -0.0978  0.3780
 2380DOPC   D2A27929  10.039  27.731  11.846  0.3273 -0.2999  0.1197
 2380DOPC   C3A27930   9.836  27.402  11.971  0.0390  0.0139 -0.2825
 2380DOPC   C4A27931   9.903  26.979  12.192  0.1094  0.1004 -0.3525
 2380DOPC   C1B27932  10.425  27.219  11.172  0.1690  0.1490 -0.0188
 2380DOPC   D2B27933  10.546  27.039  11.573 -0.2119  0.0626  0.1513
 2380DOPC   C3B27934  10.320  26.885  11.968 -0.0706  0.0124  0.1318
 2380DOPC   C4B27935  10.554  27.017  12.367  0.3128  0.1082  0.0061
 2381DOPE   NH327936  22.203  28.806   9.589 -0.1556 -0.1074  0.4551
 2381DOPE   PO427937  22.270  29.087   9.451  0.0920  0.0210 -0.0084
 2381DOPE   GL127938  22.199  29.260   9.794  0.0130 -0.2776  0.2619
 2381DOPE   GL227939  21.931  29.179   9.885 -0.0246 -0.0598 -0.5676
 2381DOPE   C1A27940  22.433  29.160  10.211 -0.1737 -0.2313  0.2320
 2381DOPE   D2A27941  22.278  29.015  10.656 -0.2507  0.1566 -0.2728
 2381DOPE   C3A27942  22.272  28.899  11.109 -0.0028 -0.0278  0.0383
 2381DOPE   C4A27943  22.462  29.043  11.525  0.0310 -0.3196  0.1263
 2381DOPE   C1B27944  22.040  29.509  10.278 -0.1858  0.1864  0.0755
 2381DOPE   D2B27945  22.089  29.568  10.763 -0.1298  0.0638  0.0240
 2381DOPE   C3B27946  22.497  29.687  10.945  0.1107 -0.2065  0.0274
 2381DOPE   C4B27947  22.851  29.879  11.192 -0.0272 -0.1447  0.1502
 2382DOPS   CNO27948  21.215  33.420   9.168  0.0141 -0.1191 -0.2817
 2382DOPS   PO427949  20.926  33.181   9.081 -0.1321 -0.1065 -0.1376
 2382DOPS   GL127950  20.832  33.286   9.393 -0.4146  0.0538  0.2726
 2382DOPS   GL227951  20.735  33.106   9.582 -0.0674  0.0899  0.1209
 2382DOPS   C1A27952  21.128  33.349   9.742 -0.1978 -0.0719 -0.0418
 2382DOPS   D2A27953  21.420  33.324  10.101 -0.0094 -0.0522 -0.0345
 2382DOPS   C3A27954  21.682  33.749  10.095  0.1596  0.0267  0.1944
 2382DOPS   C4A27955  21.948  34.132  10.133 -0.1677  0.2779 -0.1951
 2382DOPS   C1B27956  20.873  33.035  10.000  0.0142 -0.0556 -0.0671
 2382DOPS   D2B27957  20.753  33.054  10.528  0.0668  0.0784  0.2885
 2382DOPS   C3B27958  20.444  32.768  10.715  0.6353  0.0287 -0.0838
 2382DOPS   C4B27959  20.212  32.437  10.957 -0.0111 -0.1214  0.0834
 2383DOPC   NC327960  12.523  34.432  10.271  0.2608 -0.1946  0.1304
 2383DOPC   PO427961  12.546  34.031  10.391 -0.1855 -0.0147 -0.0023
 2383DOPC   GL127962  12.674  34.076  10.903  0.2237  0.1207  0.1950
 2383DOPC   GL227963  12.968  34.125  11.060  0.3126  0.0319 -0.0561
 2383DOPC   C1A27964  12.597  34.337  11.298 -0.0121 -0.0235  0.2553
 2383DOPC   D2A27965  12.387  34.398  11.641  0.4357  0.0981  0.1171
 2383DOPC   C3A27966  12.693  34.373  11.960 -0.1759 -0.3551 -0.0753
 2383DOPC   C4A27967  13.044  34.458  12.242  0.0189  0.2627  0.1067
 2383DOPC   C1B27968  12.836  33.931  11.502 -0.0683 -0.0438  0.1372
 2383DOPC   D2B27969  13.122  33.618  11.706  0.0624 -0.0718  0.0005
 2383DOPC   C3B27970  13.075  33.395  12.091  0.0915  0.0928  0.2390
 2383DOPC   C4B27971  13.251  33.233  12.471 -0.0975  0.1450 -0.0025
 2384POSM   NC327972  18.796  31.559   9.899  0.0818 -0.0541 -0.3451
 2384POSM   PO427973  18.928  31.272   9.716  0.1085  0.0406  0.1647
 2384POSM   AM127974  19.080  31.255  10.023 -0.2930 -0.1404  0.2128
 2384POSM   AM227975  19.257  31.404  10.165 -0.0090 -0.3112 -0.0936
 2384POSM   T1A27976  19.150  30.998  10.437  0.1790 -0.2186  0.0796
 2384POSM   C2A27977  19.132  30.622  10.693  0.1164  0.0667 -0.0950
 2384POSM   C3A27978  19.125  30.231  10.926 -0.0974  0.0028 -0.3021
 2384POSM   C1B27979  19.537  31.427  10.341  0.0917  0.2110  0.1906
 2384POSM   D2B27980  19.828  31.487  10.687  0.0106  0.0735  0.0419
 2384POSM   C3B27981  19.563  31.539  11.006  0.1746 -0.2601  0.0330
 2384POSM   C4B27982  19.240  31.651  11.324 -0.0033  0.0803 -0.0894
 2385DOPC   NC327983  16.527  31.375   9.460  0.1616  0.1335  0.0723
 2385DOPC   PO427984  16.778  31.512   9.742 -0.1027 -0.0851  0.3023
 2385DOPC   GL127985  16.700  31.392  10.065 -0.1248 -0.1700  0.1148
 2385DOPC   GL227986  16.896  31.242  10.223  0.1875  0.1448  0.0184
 2385DOPC   C1A27987  16.398  31.184  10.379 -0.3068  0.0065  0.2825
 2385DOPC   D2A27988  16.306  31.161  10.834  0.0003 -0.3337  0.1488
 2385DOPC   C3A27989  15.940  31.363  11.034  0.1525 -0.2597 -0.0719
 2385DOPC   C4A27990  15.604  31.570  11.299  0.2341  0.1198 -0.1630
 2385DOPC   C1B27991  16.771  31.348  10.706  0.1549  0.2512  0.0781
 2385DOPC   D2B27992  16.749  31.132  11.133  0.0793 -0.0437 -0.0362
 2385DOPC   C3B27993  16.857  31.460  11.415  0.2881  0.0192 -0.2020
 2385DOPC   C4B27994  16.625  31.622  11.838  0.2549 -0.2113 -0.0904
 2386POSM   NC327995  15.560  32.381  10.196 -0.0417  0.1996 -0.0386
 2386POSM   PO427996  15.758  32.627  10.429  0.0332  0.2453 -0.0914
 2386POSM   AM127997  15.816  32.732  10.733 -0.3677  0.0884 -0.0384
 2386POSM   AM227998  15.765  32.540  10.939 -0.1221 -0.1375  0.2707
 2386POSM   T1A27999  16.210  33.006  10.923  0.1388 -0.3452  0.1303
 2386POSM   C2A28000  16.349  33.052  11.357  0.1449  0.1209  0.2323
 2386POSM   C3A28001  16.753  33.127  11.568 -0.2865  0.0283  0.0140
 2386POSM   C1B28002  15.876  32.751  11.216 -0.0736  0.1377  0.2770
 2386POSM   D2B28003  15.958  32.871  11.680  0.0600  0.0673 -0.0849
 2386POSM   C3B28004  16.163  32.890  12.131 -0.0502 -0.0640 -0.0575
 2386POSM   C4B28005  16.121  33.086  12.555 -0.1130  0.2013 -0.2168
 2387DOPE   NH328006  15.359  30.537   9.994  0.1876 -0.0337 -0.0225
 2387DOPE   PO428007  15.715  30.529  10.015 -0.1765 -0.1741  0.1164
 2387DOPE   GL128008  15.869  30.702  10.333 -0.2974  0.0202 -0.1397
 2387DOPE   GL228009  16.135  30.640  10.278 -0.2249  0.1247  0.0653
 2387DOPE   C1A28010  15.653  30.986  10.562 -0.0389 -0.0155  0.1543
 2387DOPE   D2A28011  15.445  31.301  10.789  0.1707 -0.0961  0.2486
 2387DOPE   C3A28012  15.536  31.102  11.237 -0.1133  0.0195 -0.0396
 2387DOPE   C4A28013  15.665  30.781  11.523 -0.0213 -0.1769  0.1705
 2387DOPE   C1B28014  16.046  30.641  10.751  0.2472  0.4492  0.2460
 2387DOPE   D2B28015  15.981  30.836  11.119  0.0823 -0.2115  0.0668
 2387DOPE   C3B28016  16.127  30.979  11.528 -0.1458 -0.0855  0.0783
 2387DOPE   C4B28017  16.415  31.087  11.867  0.0932  0.2773  0.1202
 2388DOPE   NH328018  22.775  29.241   9.307  0.3173 -0.3468  0.1037
 2388DOPE   PO428019  22.709  28.961   9.248  0.1315  0.2595  0.0857
 2388DOPE   GL128020  22.672  28.892   9.671  0.0737  0.6182 -0.0157
 2388DOPE   GL228021  22.801  29.092   9.860  0.0981  0.1038  0.0393
 2388DOPE   C1A28022  22.635  28.656  10.064 -0.1618  0.2016  0.3193
 2388DOPE   D2A28023  22.883  28.301  10.344 -0.1976 -0.1691 -0.0052
 2388DOPE   C3A28024  22.720  28.107  10.787 -0.1108 -0.0667 -0.0137
 2388DOPE   C4A28025  22.282  28.003  10.989 -0.1388  0.1807 -0.2628
 2388DOPE   C1B28026  22.861  28.988  10.319  0.3800  0.2013 -0.0985
 2388DOPE   D2B28027  22.751  28.646  10.640  0.0610 -0.2388 -0.1972
 2388DOPE   C3B28028  22.874  28.885  10.981  0.2916 -0.1333  0.1860
 2388DOPE   C4B28029  22.756  29.233  11.233 -0.3784  0.0131 -0.0276
 2389DOPS   CNO28030  18.778  24.061   9.238 -0.0424 -0.0121  0.2238
 2389DOPS   PO428031  19.097  23.882   9.346  0.3494  0.0755  0.0046
 2389DOPS   GL128032  18.943  23.610   9.491  0.3728 -0.1652 -0.1417
 2389DOPS   GL228033  18.721  23.560   9.624 -0.0578 -0.0870 -0.1783
 2389DOPS   C1A28034  19.093  23.204   9.681 -0.0689  0.0310  0.0921
 2389DOPS   D2A28035  19.071  22.978  10.122 -0.0760 -0.1801  0.3370
 2389DOPS   C3A28036  18.715  22.808  10.389  0.3102  0.2693 -0.0370
 2389DOPS   C4A28037  18.547  22.451  10.639 -0.0369  0.1864 -0.0831
 2389DOPS   C1B28038  19.077  23.607   9.930 -0.0799 -0.3069  0.1897
 2389DOPS   D2B28039  19.262  23.438  10.347 -0.0529 -0.2274  0.2501
 2389DOPS   C3B28040  19.590  23.342  10.596  0.2244  0.1278  0.2208
 2389DOPS   C4B28041  19.968  23.143  10.783 -0.3237  0.0498  0.0221
 2390DOPE   NH328042  13.529  24.754  10.133  0.0254  0.2766  0.1453
 2390DOPE   PO428043  13.871  24.683  10.091 -0.3118  0.2094  0.0036
 2390DOPE   GL128044  13.840  24.808  10.488 -0.0107  0.0158  0.0419
 2390DOPE   GL228045  13.983  24.654  10.610 -0.2830  0.0077 -0.1291
 2390DOPE   C1A28046  13.495  24.741  10.793  0.1342  0.2107 -0.1513
 2390DOPE   D2A28047  13.445  24.787  11.259 -0.1755 -0.0601 -0.2377
 2390DOPE   C3A28048  13.818  25.060  11.417 -0.1729  0.0649  0.2771
 2390DOPE   C4A28049  14.071  24.983  11.810  0.0951 -0.1160 -0.1355
 2390DOPE   C1B28050  14.150  24.229  10.772  0.1831 -0.0618  0.1134
 2390DOPE   D2B28051  14.093  23.913  11.122  0.2081 -0.0221  0.1014
 2390DOPE   C3B28052  13.866  24.183  11.407  0.3237 -0.3438 -0.0087
 2390DOPE   C4B28053  13.875  24.535  11.670  0.4200  0.0800 -0.1875
 2391DOPE   NH328054  21.380  22.953   9.426 -0.3575 -0.2507  0.0373
 2391DOPE   PO428055  21.362  23.244   9.531 -0.4467  0.2095 -0.0028
 2391DOPE   GL128056  21.363  23.136   9.897  0.1317  0.0429 -0.2620
 2391DOPE   GL228057  21.333  23.305  10.127  0.0202 -0.3246 -0.2289
 2391DOPE   C1A28058  21.124  22.842  10.164  0.0295  0.0160 -0.2604
 2391DOPE   D2A28059  20.678  22.706  10.335  0.2698 -0.0087  0.0501
 2391DOPE   C3A28060  20.717  22.291  10.582  0.0482  0.0093 -0.1694
 2391DOPE   C4A28061  20.416  21.892  10.615 -0.1741 -0.1627 -0.2991
 2391DOPE   C1B28062  21.292  23.348  10.614 -0.1123  0.1882  0.2487
 2391DOPE   D2B28063  21.397  23.262  11.096 -0.2366  0.0064  0.1396
 2391DOPE   C3B28064  21.748  23.476  11.269 -0.0180  0.4225 -0.0376
 2391DOPE   C4B28065  22.154  23.671  11.370  0.0981  0.2657  0.3231
 2392POSM   NC328066  20.668  33.530   9.769 -0.0285  0.0206  0.1223
 2392POSM   PO428067  20.736  33.882   9.870 -0.0796  0.0213 -0.0225
 2392POSM   AM128068  20.725  33.897  10.174  0.0020 -0.0594 -0.1040
 2392POSM   AM228069  20.558  33.894  10.346  0.0458  0.1270 -0.3146
 2392POSM   T1A28070  21.085  33.981  10.517 -0.2621  0.2056 -0.3573
 2392POSM   C2A28071  21.217  34.086  11.018  0.1107 -0.1115 -0.0918
 2392POSM   C3A28072  21.201  34.533  11.221  0.2106  0.2480  0.0294
 2392POSM   C1B28073  20.626  33.709  10.581 -0.0470  0.1733 -0.2296
 2392POSM   D2B28074  20.977  33.558  10.814  0.1287 -0.0241 -0.1678
 2392POSM   C3B28075  21.245  33.189  10.676 -0.3939 -0.1018  0.0115
 2392POSM   C4B28076  21.302  32.893  10.374 -0.1475  0.1994 -0.0139
 2393DOPC   NC328077  20.964  30.471   9.053 -0.0719 -0.0504 -0.0579
 2393DOPC   PO428078  20.887  30.130   9.216  0.0312 -0.2001  0.4084
 2393DOPC   GL128079  20.869  29.824   9.476  0.0547  0.1078  0.0941
 2393DOPC   GL228080  20.698  30.003   9.717 -0.2054 -0.1968  0.0891
 2393DOPC   C1A28081  21.015  29.672   9.934  0.1715  0.2127  0.2131
 2393DOPC   D2A28082  21.128  29.609  10.393 -0.0410 -0.1652  0.3334
 2393DOPC   C3A28083  20.951  29.794  10.836 -0.3478 -0.0825  0.0586
 2393DOPC   C4A28084  21.057  29.888  11.221  0.0036  0.0715 -0.3515
 2393DOPC   C1B28085  20.969  30.269  10.012 -0.0668  0.1659 -0.0847
 2393DOPC   D2B28086  20.958  30.729  10.116  0.1340 -0.1597  0.0086
 2393DOPC   C3B28087  20.600  30.898  10.327  0.0241 -0.0368  0.2868
 2393DOPC   C4B28088  20.395  30.769  10.746  0.4104  0.2944  0.1052
 2394DOPC   NC328089  15.486  22.025   9.264  0.2807 -0.2334  0.0386
 2394DOPC   PO428090  15.624  21.687   9.176 -0.0304  0.0697  0.0209
 2394DOPC   GL128091  15.717  21.692   9.573  0.3909 -0.1330  0.0300
 2394DOPC   GL228092  15.704  21.549   9.779  0.1841  0.3952  0.1234
 2394DOPC   C1A28093  15.585  22.069   9.812  0.1551  0.4672 -0.0096
 2394DOPC   D2A28094  15.507  22.497   9.990  0.0106  0.1258  0.1774
 2394DOPC   C3A28095  15.464  22.647  10.415 -0.0653 -0.1040 -0.3302
 2394DOPC   C4A28096  15.421  22.490  10.907  0.0652 -0.0050  0.0274
 2394DOPC   C1B28097  15.679  21.726  10.203 -0.3168  0.0531 -0.3066
 2394DOPC   D2B28098  15.751  22.118  10.476  0.1034 -0.0871  0.0653
 2394DOPC   C3B28099  15.706  22.134  10.899 -0.3760 -0.0228 -0.0542
 2394DOPC   C4B28100  15.745  22.400  11.317 -0.5440  0.0763  0.0445
 2395DOPE   NH328101  14.018  22.360   9.325  0.2893  0.1173 -0.2794
 2395DOPE   PO428102  13.871  22.077   9.384 -0.0103  0.1911 -0.0643
 2395DOPE   GL128103  14.106  21.955   9.683 -0.1495  0.1265  0.0160
 2395DOPE   GL228104  14.261  22.226   9.742  0.1336  0.1695  0.1073
 2395DOPE   C1A28105  14.063  21.832  10.116 -0.0165 -0.2056 -0.0346
 2395DOPE   D2A28106  14.419  21.653  10.409 -0.1883  0.0100 -0.1806
 2395DOPE   C3A28107  14.282  21.284  10.635 -0.0370 -0.0546  0.2124
 2395DOPE   C4A28108  13.958  21.251  10.979 -0.1335  0.1740  0.1584
 2395DOPE   C1B28109  14.189  22.275  10.202  0.0913 -0.0635 -0.1052
 2395DOPE   D2B28110  14.237  22.053  10.635  0.1109 -0.1955  0.2975
 2395DOPE   C3B28111  13.932  22.149  10.905  0.1834 -0.0943 -0.0168
 2395DOPE   C4B28112  13.772  22.133  11.332  0.0562 -0.1883  0.0382
 2396DOPE   NH328113  17.258  26.205   9.773 -0.0076  0.0065 -0.0685
 2396DOPE   PO428114  17.522  26.316   9.854 -0.3006  0.3473 -0.3719
 2396DOPE   GL128115  17.493  26.504  10.095  0.2604 -0.1684  0.0629
 2396DOPE   GL228116  17.350  26.272  10.348  0.0391  0.0444  0.1340
 2396DOPE   C1A28117  17.695  26.693  10.488 -0.2658 -0.1668  0.1428
 2396DOPE   D2A28118  17.857  26.873  10.882  0.0085 -0.1471  0.0567
 2396DOPE   C3A28119  17.912  27.296  10.714  0.0764  0.0077 -0.3028
 2396DOPE   C4A28120  18.204  27.510  10.542 -0.0194 -0.1717  0.1189
 2396DOPE   C1B28121  17.647  26.072  10.607 -0.1202  0.1264 -0.1662
 2396DOPE   D2B28122  17.611  25.846  11.000 -0.0664 -0.2966 -0.1654
 2396DOPE   C3B28123  17.245  25.738  11.259 -0.1514 -0.2772  0.2805
 2396DOPE   C4B28124  16.833  25.950  11.389  0.0715  0.0751  0.0656
 2397POSM   NC328125  17.182  24.883   9.529 -0.3986 -0.1765 -0.0689
 2397POSM   PO428126  16.774  24.990   9.530 -0.2132 -0.2359 -0.1696
 2397POSM   AM128127  16.629  25.002   9.788  0.1620  0.1768 -0.0300
 2397POSM   AM228128  16.494  25.159  10.007  0.3169 -0.0270  0.0094
 2397POSM   T1A28129  16.557  24.724  10.220  0.1261 -0.1858  0.0237
 2397POSM   C2A28130  16.773  24.408  10.500  0.3248  0.1799  0.2823
 2397POSM   C3A28131  16.772  24.427  10.904 -0.3851 -0.0746  0.0601
 2397POSM   C1B28132  16.660  25.195  10.294  0.2415  0.1327 -0.2737
 2397POSM   D2B28133  16.782  24.976  10.657 -0.0118 -0.2080 -0.1690
 2397POSM   C3B28134  17.139  24.681  10.701 -0.0508  0.1317 -0.2933
 2397POSM   C4B28135  17.335  24.420  11.031  0.1063 -0.1255 -0.2641
 2398POSM   NC328136  20.114  26.756   8.915  0.0989  0.0300 -0.1813
 2398POSM   PO428137  20.271  26.661   9.265 -0.2571  0.0886  0.4461
 2398POSM   AM128138  20.449  26.683   9.548 -0.4025 -0.0386 -0.2252
 2398POSM   AM228139  20.558  26.525   9.736 -0.2599 -0.0661  0.3384
 2398POSM   T1A28140  20.570  26.955   9.985 -0.3787  0.2695 -0.3434
 2398POSM   C2A28141  20.920  27.194  10.154 -0.4756  0.1398 -0.1725
 2398POSM   C3A28142  21.352  27.272  10.338  0.0554  0.0614  0.0081
 2398POSM   C1B28143  20.618  26.430  10.096  0.0901 -0.0017 -0.0148
 2398POSM   D2B28144  20.716  26.506  10.554 -0.1077  0.3475 -0.0214
 2398POSM   C3B28145  20.903  26.183  10.828  0.1308 -0.1520 -0.0859
 2398POSM   C4B28146  21.079  26.180  11.233 -0.0832  0.0510  0.3316
 2399POSM   NC328147  15.162  32.140  10.031  0.2260 -0.0958  0.0136
 2399POSM   PO428148  15.463  31.909  10.123  0.1533  0.2921 -0.0832
 2399POSM   AM128149  15.614  31.955  10.394 -0.1381  0.3478  0.2438
 2399POSM   AM228150  15.879  32.102  10.486 -0.0802 -0.1934  0.2886
 2399POSM   T1A28151  15.722  31.782  10.832 -0.0225  0.0804 -0.2347
 2399POSM   C2A28152  16.075  31.895  11.170  0.0556  0.2739 -0.1238
 2399POSM   C3A28153  15.932  32.255  11.461  0.0832 -0.0420 -0.0611
 2399POSM   C1B28154  16.153  32.143  10.689 -0.0413  0.2754 -0.1045
 2399POSM   D2B28155  16.497  32.115  11.000 -0.2079  0.2470  0.2703
 2399POSM   C3B28156  16.529  31.955  11.426 -0.0808 -0.1623 -0.0021
 2399POSM   C4B28157  16.235  32.042  11.756  0.0314  0.2353  0.2866
 2400POSM   NC328158  22.247  24.924   9.397 -0.2744 -0.1051 -0.1599
 2400POSM   PO428159  22.163  25.353   9.365  0.2095  0.1861  0.2579
 2400POSM   AM128160  22.125  25.429   9.661  0.3237 -0.2497  0.3672
 2400POSM   AM228161  22.314  25.309   9.875  0.1832 -0.1406 -0.1959
 2400POSM   T1A28162  21.826  25.329  10.061  0.1460  0.0144 -0.3004
 2400POSM   C2A28163  21.866  25.122  10.479  0.0354 -0.1735  0.0291
 2400POSM   C3A28164  22.053  24.949  10.822  0.0770 -0.2421 -0.0901
 2400POSM   C1B28165  22.340  25.252  10.163 -0.2996  0.3311 -0.1051
 2400POSM   D2B28166  22.472  24.992  10.560 -0.2902 -0.1066 -0.0810
 2400POSM   C3B28167  22.537  25.109  10.989 -0.2015 -0.2181 -0.0808
 2400POSM   C4B28168  22.311  25.218  11.370  0.1791 -0.0147  0.1898
 2401DOPC   NC328169  17.203  29.194   9.799 -0.0277  0.0619  0.0843
 2401DOPC   PO428170  17.140  29.387  10.160  0.1386  0.3280  0.0494
 2401DOPC   GL128171  17.186  29.164  10.560 -0.2502 -0.1440  0.2376
 2401DOPC   GL228172  17.037  29.343  10.709 -0.1414 -0.0413 -0.0653
 2401DOPC   C1A28173  17.474  28.805  10.737 -0.0438  0.0554  0.0404
 2401DOPC   D2A28174  17.397  28.609  11.142 -0.1701  0.1664  0.1122
 2401DOPC   C3A28175  17.210  28.890  11.479  0.2102 -0.0221  0.1945
 2401DOPC   C4A28176  17.085  29.002  11.895 -0.2290 -0.1377  0.2851
 2401DOPC   C1B28177  16.746  29.378  11.113  0.1076 -0.3833 -0.2112
 2401DOPC   D2B28178  16.715  29.150  11.510 -0.1849 -0.4087  0.3507
 2401DOPC   C3B28179  16.443  29.107  11.921  0.3510  0.0052  0.0832
 2401DOPC   C4B28180  16.189  28.768  12.168  0.0588  0.0050  0.0432
 2402DOPC   NC328181  20.248  23.241   9.186 -0.1159  0.0267 -0.1830
 2402DOPC   PO428182  19.944  23.470   9.156  0.0631 -0.0671 -0.1968
 2402DOPC   GL128183  19.915  23.239   9.464  0.1920 -0.4330  0.4333
 2402DOPC   GL228184  19.644  23.110   9.483  0.0929 -0.0277  0.1737
 2402DOPC   C1A28185  20.204  23.008   9.743 -0.0898  0.1738 -0.0916
 2402DOPC   D2A28186  20.228  23.001  10.189 -0.1442 -0.1226  0.3004
 2402DOPC   C3A28187  19.849  22.886  10.394 -0.1138 -0.2652  0.3863
 2402DOPC   C4A28188  19.412  22.870  10.503  0.2344 -0.1326  0.0096
 2402DOPC   C1B28189  19.589  23.414   9.736  0.2799 -0.0532  0.2710
 2402DOPC   D2B28190  19.663  23.828   9.907  0.0010  0.1970  0.0547
 2402DOPC   C3B28191  19.457  24.043  10.219  0.1490 -0.1084  0.1344
 2402DOPC   C4B28192  19.222  24.310  10.559  0.2390 -0.2172  0.4707
 2403DOPE   NH328193  18.839  29.385   9.676  0.0743 -0.3046  0.2709
 2403DOPE   PO428194  18.664  29.274   9.894 -0.0496 -0.0964  0.1185
 2403DOPE   GL128195  18.612  29.344  10.282 -0.1562 -0.1175 -0.0093
 2403DOPE   GL228196  18.604  29.617  10.442 -0.1317 -0.0783 -0.0317
 2403DOPE   C1A28197  18.485  29.221  10.715  0.1582 -0.0274  0.0598
 2403DOPE   D2A28198  18.470  28.934  11.114  0.3310  0.0048  0.0040
 2403DOPE   C3A28199  18.707  29.103  11.480  0.3785 -0.2066  0.0035
 2403DOPE   C4A28200  18.700  29.299  11.860 -0.0080 -0.0558  0.0437
 2403DOPE   C1B28201  18.558  29.811  10.871  0.1395 -0.0024  0.0611
 2403DOPE   D2B28202  18.660  29.677  11.308 -0.0422 -0.1623  0.1592
 2403DOPE   C3B28203  19.045  29.985  11.369  0.2678 -0.2806 -0.0525
 2403DOPE   C4B28204  19.116  30.401  11.430 -0.3590  0.0085  0.0368
 2404DOPC   NC328205  19.191  26.368   9.572 -0.0611  0.2943  0.3335
 2404DOPC   PO428206  19.563  26.229   9.513  0.0231 -0.0226 -0.1583
 2404DOPC   GL128207  19.651  26.390   9.868  0.2440 -0.1129  0.0548
 2404DOPC   GL228208  19.747  26.194  10.025 -0.1762 -0.0508 -0.2336
 2404DOPC   C1A28209  19.734  26.648  10.233  0.1667  0.1694 -0.0070
 2404DOPC   D2A28210  19.516  26.777  10.592 -0.3381 -0.0709 -0.1415
 2404DOPC   C3A28211  19.468  26.832  11.012  0.3484 -0.1403 -0.0559
 2404DOPC   C4A28212  19.624  26.806  11.487  0.3257  0.1572  0.2248
 2404DOPC   C1B28213  19.571  26.179  10.447  0.1272  0.0736  0.2049
 2404DOPC   D2B28214  19.821  26.234  10.787 -0.2049 -0.1849 -0.1050
 2404DOPC   C3B28215  20.072  25.952  11.068 -0.1684  0.4240  0.1528
 2404DOPC   C4B28216  20.212  25.993  11.498  0.1589 -0.0586  0.0685
 2405DOPC   NC328217  18.694  32.528  10.029  0.1531  0.0579 -0.2104
 2405DOPC   PO428218  19.023  32.534   9.779  0.1032  0.0396 -0.0811
 2405DOPC   GL128219  19.281  32.519  10.082  0.7364  0.0748  0.2062
 2405DOPC   GL228220  19.341  32.237  10.010 -0.0634  0.0778 -0.1046
 2405DOPC   C1A28221  19.406  32.427  10.504  0.2056  0.0802 -0.2780
 2405DOPC   D2A28222  19.755  32.421  10.739 -0.0580  0.3957  0.3400
 2405DOPC   C3A28223  19.778  32.037  10.902 -0.2648  0.0999 -0.0408
 2405DOPC   C4A28224  19.921  31.705  11.284  0.2703  0.1505  0.0055
 2405DOPC   C1B28225  19.005  32.199  10.330  0.1422 -0.3016  0.3571
 2405DOPC   D2B28226  18.703  31.862  10.274 -0.2338 -0.1786 -0.3328
 2405DOPC   C3B28227  18.783  31.429  10.431 -0.1104 -0.1186 -0.0021
 2405DOPC   C4B28228  19.099  31.477  10.786  0.1923 -0.0456  0.1543
 2406DOPS   CNO28229  20.440   1.621   9.370 -0.0345 -0.0207 -0.1179
 2406DOPS   PO428230  20.691   1.918   9.510  0.3016 -0.1402 -0.0004
 2406DOPS   GL128231  20.485   1.881   9.862 -0.4147  0.1074  0.0214
 2406DOPS   GL228232  20.512   1.584   9.886 -0.0926 -0.0985  0.2371
 2406DOPS   C1A28233  20.561   2.032  10.339  0.0925  0.1904 -0.2116
 2406DOPS   D2A28234  20.324   2.182  10.729  0.4023  0.0930  0.3982
 2406DOPS   C3A28235  20.368   2.193  11.208  0.1768  0.4100  0.0488
 2406DOPS   C4A28236  20.250   2.334  11.627 -0.2338 -0.4496  0.1096
 2406DOPS   C1B28237  20.426   1.471  10.302  0.3085  0.0017 -0.5103
 2406DOPS   D2B28238  20.200   1.737  10.604  0.0564  0.1240  0.0654
 2406DOPS   C3B28239  19.765   1.741  10.655  0.0164 -0.2703 -0.0936
 2406DOPS   C4B28240  19.364   1.642  10.803  0.0277 -0.1390  0.0543
 2407POSM   NC328241  25.479  28.333   9.960 -0.0280 -0.0671 -0.1932
 2407POSM   PO428242  25.803  28.283   9.748  0.2964  0.2045 -0.0920
 2407POSM   AM128243  25.952  28.538   9.907 -0.1248  0.0252  0.2496
 2407POSM   AM228244  25.948  28.576  10.170  0.2325 -0.2194 -0.2273
 2407POSM   T1A28245  26.143  29.007   9.952  0.0967  0.1572 -0.2997
 2407POSM   C2A28246  26.456  29.354   9.992 -0.0931  0.0186  0.0189
 2407POSM   C3A28247  26.892  29.382   9.857  0.0926 -0.2162  0.2045
 2407POSM   C1B28248  26.182  28.733  10.383 -0.1794 -0.0115  0.0688
 2407POSM   D2B28249  26.368  29.040  10.587  0.2167 -0.1944  0.3095
 2407POSM   C3B28250  26.802  29.127  10.679 -0.3994  0.1691  0.0133
 2407POSM   C4B28251  27.102  29.438  10.522 -0.1581  0.1264  0.3421
 2408DOPS   CNO28252  15.754  34.067  10.233 -0.1947  0.1746 -0.1609
 2408DOPS   PO428253  16.087  34.009  10.399 -0.2448  0.2097 -0.0154
 2408DOPS   GL128254  16.162  33.720  10.702  0.1370  0.0429 -0.1215
 2408DOPS   GL228255  16.140  33.938  10.913  0.2479  0.1812  0.0416
 2408DOPS   C1A28256  16.320  33.467  11.077  0.1650  0.1223 -0.1730
 2408DOPS   D2A28257  16.397  33.597  11.560  0.0722 -0.0480 -0.1151
 2408DOPS   C3A28258  16.890  33.642  11.645  0.1800  0.0908  0.0993
 2408DOPS   C4A28259  17.301  33.704  11.894  0.2000 -0.2128  0.0347
 2408DOPS   C1B28260  15.934  33.887  11.312 -0.0169 -0.0230 -0.2931
 2408DOPS   D2B28261  15.904  34.016  11.753 -0.0566 -0.0528  0.2096
 2408DOPS   C3B28262  16.171  34.325  11.980  0.0781 -0.1779 -0.0882
 2408DOPS   C4B28263  16.459  34.709  12.118  0.0435  0.0016 -0.1067
 2409POSM   NC328264  15.519  30.435  10.473  0.1107 -0.0591 -0.1153
 2409POSM   PO428265  15.415  30.102  10.283  0.1540 -0.2045  0.2068
 2409POSM   AM128266  15.466  29.917  10.506  0.0201 -0.3820 -0.1218
 2409POSM   AM228267  15.319  29.698  10.597 -0.0446 -0.2647  0.0227
 2409POSM   T1A28268  15.562  29.964  11.004  0.1697  0.0220 -0.1721
 2409POSM   C2A28269  15.397  30.244  11.341 -0.0397 -0.0648 -0.0374
 2409POSM   C3A28270  15.165  30.222  11.770  0.1075 -0.0928 -0.0226
 2409POSM   C1B28271  15.142  29.689  10.909  0.0964 -0.3291  0.1929
 2409POSM   D2B28272  15.130  29.814  11.334 -0.1569  0.0712  0.0966
 2409POSM   C3B28273  15.528  29.787  11.609  0.1135  0.0060 -0.0358
 2409POSM   C4B28274  15.869  30.111  11.721 -0.0451  0.0930  0.0161
 2410DOPC   NC328275  18.739  30.755  10.433  0.1343  0.1653 -0.3055
 2410DOPC   PO428276  18.427  30.584  10.218  0.0013 -0.1865 -0.0717
 2410DOPC   GL128277  18.018  30.612  10.559 -0.3407  0.2974 -0.0172
 2410DOPC   GL228278  18.060  30.466  10.747  0.1142 -0.0824 -0.1735
 2410DOPC   C1A28279  17.942  30.918  10.873  0.0221 -0.4411  0.3893
 2410DOPC   D2A28280  17.897  31.206  11.265 -0.2532  0.1975 -0.1504
 2410DOPC   C3A28281  18.055  30.981  11.588  0.0077 -0.0369 -0.1495
 2410DOPC   C4A28282  17.959  30.638  11.892 -0.4152  0.1948 -0.1163
 2410DOPC   C1B28283  18.088  30.547  11.196  0.0620  0.0557  0.0939
 2410DOPC   D2B28284  18.277  30.451  11.619  0.3291 -0.0400  0.0821
 2410DOPC   C3B28285  18.744  30.401  11.801  0.0191  0.0271  0.3247
 2410DOPC   C4B28286  19.147  30.177  11.901 -0.2200 -0.1095 -0.0592
 2411DOPC   NC328287  20.643  25.194   9.693  0.0827  0.1887 -0.0263
 2411DOPC   PO428288  20.238  25.291   9.803  0.0334  0.0515 -0.2819
 2411DOPC   GL128289  20.251  25.309  10.116 -0.0069  0.3791  0.1661
 2411DOPC   GL228290  20.133  25.180  10.264  0.0233  0.0335 -0.2395
 2411DOPC   C1A28291  20.688  25.342  10.288 -0.0153  0.4301  0.1274
 2411DOPC   D2A28292  21.021  25.700  10.428 -0.2220  0.0180  0.2180
 2411DOPC   C3A28293  21.190  25.721  10.895  0.2409  0.2111 -0.1446
 2411DOPC   C4A28294  21.512  25.734  11.165  0.0547 -0.3041 -0.0561
 2411DOPC   C1B28295  20.263  25.366  10.666  0.1070 -0.1408 -0.1039
 2411DOPC   D2B28296  20.273  25.448  11.147 -0.2124  0.0952  0.0951
 2411DOPC   C3B28297  20.248  25.269  11.537 -0.0660 -0.1470  0.0679
 2411DOPC   C4B28298  20.313  25.357  11.982  0.1353 -0.5182 -0.0821
 2412DOPC   NC328299  14.216  26.389  10.210  0.0415  0.0066 -0.0550
 2412DOPC   PO428300  14.548  26.243   9.993  0.0406 -0.1079  0.0564
 2412DOPC   GL128301  14.688  26.120  10.367 -0.1938 -0.1315 -0.2951
 2412DOPC   GL228302  14.918  26.294  10.450  0.3307 -0.1522  0.4510
 2412DOPC   C1A28303  14.445  26.269  10.715 -0.2123 -0.2282  0.1826
 2412DOPC   D2A28304  14.298  26.020  11.043  0.2313 -0.1096 -0.0988
 2412DOPC   C3A28305  14.408  26.153  11.438  0.4733  0.0024  0.0750
 2412DOPC   C4A28306  14.389  26.378  11.847  0.0660  0.1943  0.1050
 2412DOPC   C1B28307  14.940  26.355  10.880  0.1714 -0.0292 -0.0497
 2412DOPC   D2B28308  14.858  26.644  11.254  0.1139  0.0857  0.0585
 2412DOPC   C3B28309  15.127  26.959  11.484 -0.2210  0.0339  0.0447
 2412DOPC   C4B28310  15.365  26.930  11.909 -0.1993  0.2077  0.0896
 2413POSM   NC328311  19.348  31.447   9.545  0.1986 -0.0081  0.3160
 2413POSM   PO428312  19.240  31.737   9.793  0.2477  0.1917 -0.0508
 2413POSM   AM128313  19.551  31.708   9.968 -0.0108 -0.0805 -0.0524
 2413POSM   AM228314  19.760  31.545   9.841 -0.0941  0.0543 -0.0680
 2413POSM   T1A28315  19.988  31.817  10.238  0.0084  0.0458 -0.2719
 2413POSM   C2A28316  20.178  31.929  10.670  0.0035  0.5049 -0.0100
 2413POSM   C3A28317  20.322  31.680  11.015  0.0455  0.2418  0.2428
 2413POSM   C1B28318  19.778  31.218   9.991 -0.0968  0.1173 -0.1483
 2413POSM   D2B28319  19.642  30.916  10.303  0.0855  0.0348  0.3577
 2413POSM   C3B28320  19.920  30.966  10.661  0.1121 -0.2880 -0.0407
 2413POSM   C4B28321  20.047  31.065  11.047  0.3382 -0.0752 -0.1965
 2414POSM   NC328322  10.979  27.014  10.479 -0.0688  0.1731  0.2952
 2414POSM   PO428323  11.304  27.226  10.531 -0.1595 -0.0188  0.4340
 2414POSM   AM128324  11.563  27.177  10.729  0.0400 -0.0962  0.2848
 2414POSM   AM228325  11.767  27.326  10.854  0.1840  0.1408  0.0164
 2414POSM   T1A28326  11.560  26.961  11.158  0.1238 -0.1130 -0.0798
 2414POSM   C2A28327  11.642  27.006  11.601 -0.3042 -0.4385 -0.0880
 2414POSM   C3A28328  12.033  27.137  11.811  0.1307 -0.0850 -0.3015
 2414POSM   C1B28329  11.853  27.394  11.160  0.2038 -0.0331  0.2415
 2414POSM   D2B28330  11.850  27.535  11.592 -0.3445  0.0614 -0.0955
 2414POSM   C3B28331  12.099  27.760  11.882 -0.0819  0.0631  0.0782
 2414POSM   C4B28332  12.339  28.061  12.112  0.0243  0.0940 -0.0271
 2415DOPE   NH328333  19.709  24.823   9.692 -0.0227  0.1115  0.3423
 2415DOPE   PO428334  19.390  24.752   9.761  0.2612  0.0647  0.0111
 2415DOPE   GL128335  19.571  24.416   9.969  0.2278  0.1917 -0.0294
 2415DOPE   GL228336  19.843  24.324   9.977 -0.1634  0.1335 -0.0114
 2415DOPE   C1A28337  19.790  24.329  10.435  0.1258  0.1925 -0.0484
 2415DOPE   D2A28338  19.881  24.217  10.896 -0.1954  0.0135 -0.1088
 2415DOPE   C3A28339  19.567  24.110  11.192  0.3599 -0.0372  0.0953
 2415DOPE   C4A28340  19.546  24.123  11.636  0.3559  0.1518  0.2128
 2415DOPE   C1B28341  19.904  24.759  10.181  0.1645 -0.0207  0.1526
 2415DOPE   D2B28342  19.804  24.995  10.551 -0.0709  0.2961  0.0573
 2415DOPE   C3B28343  19.920  24.815  10.940 -0.0691 -0.1672 -0.1233
 2415DOPE   C4B28344  19.812  24.626  11.321  0.0828 -0.1805  0.0970
 2416DOPS   CNO28345  23.623  26.324   9.215  0.0606  0.3715 -0.0537
 2416DOPS   PO428346  23.368  26.140   9.383 -0.0147 -0.0949 -0.1060
 2416DOPS   GL128347  23.310  26.250   9.845 -0.2356 -0.0741 -0.0929
 2416DOPS   GL228348  23.092  26.487   9.836  0.0698  0.2601 -0.2598
 2416DOPS   C1A28349  23.464  26.580  10.130 -0.1661 -0.0280  0.1730
 2416DOPS   D2A28350  23.438  26.732  10.560 -0.1440  0.1553 -0.2889
 2416DOPS   C3A28351  23.468  27.151  10.802 -0.0761 -0.2875 -0.3752
 2416DOPS   C4A28352  23.508  27.640  10.810 -0.1194  0.2960 -0.1318
 2416DOPS   C1B28353  23.089  26.863  10.118 -0.0598 -0.1291  0.3974
 2416DOPS   D2B28354  22.820  26.969  10.457  0.1187  0.2863  0.1100
 2416DOPS   C3B28355  22.874  27.057  10.906 -0.0967  0.2703  0.1063
 2416DOPS   C4B28356  22.497  27.029  11.153  0.1837 -0.1872 -0.3376
 2417DOPE   NH328357  23.016  32.448   9.347  0.1317 -0.0214 -0.0090
 2417DOPE   PO428358  22.978  32.144   9.256  0.0125 -0.2432  0.1648
 2417DOPE   GL128359  22.916  32.041   9.701  0.0845  0.0687  0.0645
 2417DOPE   GL228360  22.876  31.725   9.836 -0.0522  0.1355  0.0136
 2417DOPE   C1A28361  23.307  32.143   9.972 -0.0317 -0.1693  0.0693
 2417DOPE   D2A28362  23.422  32.288  10.344  0.2526 -0.1754  0.0316
 2417DOPE   C3A28363  23.437  32.089  10.777  0.0802 -0.3647  0.1467
 2417DOPE   C4A28364  23.644  31.786  11.072  0.2772 -0.0684 -0.0968
 2417DOPE   C1B28365  22.925  31.783  10.279 -0.1577  0.2480  0.1668
 2417DOPE   D2B28366  23.167  31.586  10.650 -0.2802  0.3877 -0.1499
 2417DOPE   C3B28367  23.104  31.418  11.059  0.1524  0.3300  0.1135
 2417DOPE   C4B28368  22.835  31.118  11.318 -0.0000 -0.0225  0.1439
 2418DOPC   NC328369  10.337  29.377  10.871  0.0137 -0.0584 -0.1001
 2418DOPC   PO428370  10.472  29.105  10.609  0.1543 -0.0008 -0.4469
 2418DOPC   GL128371  10.653  29.025  11.028 -0.0241  0.0345 -0.3887
 2418DOPC   GL228372  10.905  28.859  11.223  0.0257  0.1491  0.0545
 2418DOPC   C1A28373  10.454  29.201  11.377  0.0238  0.1097 -0.0412
 2418DOPC   D2A28374  10.046  29.413  11.573  0.0005  0.1955 -0.0332
 2418DOPC   C3A28375  10.149  29.812  11.689  0.0407 -0.2728  0.1834
 2418DOPC   C4A28376   9.831  30.155  11.555 -0.1230  0.0232 -0.1238
 2418DOPC   C1B28377  10.947  29.272  11.429 -0.0340 -0.0904  0.0618
 2418DOPC   D2B28378  11.153  29.732  11.430  0.6053 -0.2074 -0.1142
 2418DOPC   C3B28379  11.015  29.961  11.889 -0.0433 -0.3429 -0.0224
 2418DOPC   C4B28380  11.056  30.150  12.276  0.0991  0.2121  0.2518
 2419DOPC   NC328381  15.261  27.775   9.791 -0.0451  0.1123 -0.2934
 2419DOPC   PO428382  15.170  27.952  10.132  0.0584 -0.0226 -0.2038
 2419DOPC   GL128383  15.185  28.047  10.505  0.1586  0.0478 -0.1602
 2419DOPC   GL228384  15.316  27.797  10.617  0.1171 -0.1904  0.0267
 2419DOPC   C1A28385  15.338  28.291  10.860  0.0994 -0.2059  0.1749
 2419DOPC   D2A28386  15.438  28.503  11.245  0.1447 -0.0092 -0.0363
 2419DOPC   C3A28387  15.769  28.809  11.346 -0.0155 -0.0523 -0.2700
 2419DOPC   C4A28388  15.927  28.934  11.786  0.1214  0.2949 -0.0246
 2419DOPC   C1B28389  15.746  28.043  10.648 -0.0339 -0.0445  0.0014
 2419DOPC   D2B28390  16.060  28.373  10.664 -0.1426  0.2101 -0.1291
 2419DOPC   C3B28391  16.387  28.126  10.977  0.1263 -0.4487 -0.0661
 2419DOPC   C4B28392  16.405  28.218  11.429 -0.2779 -0.0064  0.1442
 2420POSM   NC328393  21.609  30.960   8.977  0.1235 -0.0540 -0.1787
 2420POSM   PO428394  21.284  30.765   8.920 -0.2754  0.3514  0.1750
 2420POSM   AM128395  21.239  30.789   9.221 -0.4889  0.1460  0.2074
 2420POSM   AM228396  21.362  30.895   9.438 -0.1202 -0.0614  0.1672
 2420POSM   T1A28397  20.854  30.834   9.544  0.1412 -0.2296 -0.0337
 2420POSM   C2A28398  20.507  30.724   9.884  0.1072 -0.2360  0.0878
 2420POSM   C3A28399  20.165  30.832  10.166  0.3282 -0.0972 -0.1821
 2420POSM   C1B28400  21.292  30.888   9.764  0.0198 -0.5915 -0.4669
 2420POSM   D2B28401  21.250  31.130  10.145 -0.0533 -0.1136  0.1533
 2420POSM   C3B28402  21.574  30.962  10.381 -0.0867  0.2775  0.0893
 2420POSM   C4B28403  21.647  30.927  10.818  0.0418 -0.0678  0.4119
 2421POSM   NC328404  13.649  32.263  10.930 -0.0105  0.1088 -0.1123
 2421POSM   PO428405  13.350  32.496  10.772  0.5553 -0.0140 -0.2896
 2421POSM   AM128406  13.391  32.595  11.066 -0.3312 -0.1557  0.0431
 2421POSM   AM228407  13.339  32.468  11.375  0.1789  0.1833  0.1809
 2421POSM   T1A28408  13.367  33.032  11.296 -0.1891 -0.2682  0.2709
 2421POSM   C2A28409  13.403  33.262  11.755 -0.2792  0.3885  0.0589
 2421POSM   C3A28410  13.625  33.278  12.132  0.2453  0.0267 -0.2422
 2421POSM   C1B28411  13.229  32.693  11.563 -0.1240 -0.5513 -0.0950
 2421POSM   D2B28412  12.957  33.058  11.701  0.0467  0.1716  0.0363
 2421POSM   C3B28413  12.747  33.389  11.419 -0.1689 -0.2560  0.2268
 2421POSM   C4B28414  12.717  33.670  11.063  0.1645  0.0892 -0.1337
 2422DOPS   CNO28415  21.130  23.198   9.069  0.1110  0.3316  0.0493
 2422DOPS   PO428416  20.898  23.234   9.329  0.0527 -0.1070  0.2084
 2422DOPS   GL128417  20.633  23.222   9.737  0.2799 -0.1757 -0.1531
 2422DOPS   GL228418  20.703  23.504   9.720  0.2350 -0.2187 -0.0870
 2422DOPS   C1A28419  20.316  23.514   9.997 -0.2004  0.0046 -0.1485
 2422DOPS   D2A28420  20.088  23.864  10.189 -0.2892  0.1456  0.2253
 2422DOPS   C3A28421  19.836  23.843  10.516  0.0836  0.1092 -0.0756
 2422DOPS   C4A28422  19.452  23.842  10.794  0.3593 -0.2572 -0.0222
 2422DOPS   C1B28423  20.828  23.449  10.145  0.1249  0.2595  0.2030
 2422DOPS   D2B28424  20.839  23.137  10.476  0.0789 -0.1819  0.2312
 2422DOPS   C3B28425  20.511  23.122  10.826  0.0193 -0.4288  0.2193
 2422DOPS   C4B28426  20.340  23.430  11.167 -0.2738 -0.4051 -0.0221
 2423POSM   NC328427  14.256  25.432   9.969  0.0488 -0.1189  0.0555
 2423POSM   PO428428  13.911  25.534   9.836  0.1964 -0.1478  0.0541
 2423POSM   AM128429  13.786  25.625  10.130 -0.2610  0.2109 -0.2504
 2423POSM   AM228430  13.525  25.757  10.277 -0.3130 -0.3886  0.0657
 2423POSM   T1A28431  13.881  25.653  10.633  0.0325  0.1493 -0.0602
 2423POSM   C2A28432  14.124  25.520  10.994 -0.3867  0.2432 -0.4623
 2423POSM   C3A28433  14.310  25.666  11.412 -0.0932 -0.3235 -0.0157
 2423POSM   C1B28434  13.452  25.827  10.622 -0.0417 -0.1199 -0.1021
 2423POSM   D2B28435  13.228  25.681  10.999  0.0416  0.2463 -0.0293
 2423POSM   C3B28436  13.253  25.968  11.332 -0.0770 -0.0768  0.0385
 2423POSM   C4B28437  13.412  26.134  11.663  0.0401 -0.1211 -0.0365
 2424DOPE   NH328438  14.848  33.912  10.478  0.1734  0.1835 -0.1387
 2424DOPE   PO428439  14.765  34.200  10.557 -0.0843  0.0804  0.0835
 2424DOPE   GL128440  14.981  34.121  10.919 -0.2561 -0.0138 -0.1952
 2424DOPE   GL228441  14.913  34.203  11.122 -0.1468  0.0075  0.0235
 2424DOPE   C1A28442  15.430  34.129  11.042  0.2921 -0.0309  0.0250
 2424DOPE   D2A28443  15.738  34.338  11.258 -0.0179 -0.1041  0.0908
 2424DOPE   C3A28444  16.177  34.301  11.480  0.1327 -0.1184 -0.0397
 2424DOPE   C4A28445  16.573  34.012  11.515 -0.3212 -0.1046 -0.0520
 2424DOPE   C1B28446  15.087  33.969  11.458  0.1417 -0.2988 -0.0671
 2424DOPE   D2B28447  15.449  33.819  11.733  0.0821  0.1507 -0.2110
 2424DOPE   C3B28448  15.589  33.989  12.163 -0.1644 -0.0671  0.1726
 2424DOPE   C4B28449  15.918  34.200  12.437  0.0914  0.1294  0.1991
 2425DOPE   NH328450  11.175  28.134  10.785 -0.1519 -0.0612  0.0964
 2425DOPE   PO428451  11.356  28.336  10.817 -0.0221  0.1362  0.1687
 2425DOPE   GL128452  11.263  28.598  11.040 -0.2136 -0.1145 -0.2029
 2425DOPE   GL228453  11.340  28.850  10.950 -0.2630 -0.1935 -0.2554
 2425DOPE   C1A28454  11.287  28.534  11.506 -0.2527  0.0145  0.1283
 2425DOPE   D2A28455  11.334  28.242  11.833  0.1947  0.2158  0.1004
 2425DOPE   C3A28456  11.352  28.391  12.269 -0.2517 -0.1356 -0.1257
 2425DOPE   C4A28457  11.151  28.352  12.692  0.3316 -0.3261 -0.0186
 2425DOPE   C1B28458  11.356  29.026  11.384  0.1120  0.2341  0.1531
 2425DOPE   D2B28459  11.192  28.974  11.827 -0.1346 -0.0393  0.0426
 2425DOPE   C3B28460  10.906  29.069  12.190  0.2319 -0.0390  0.0323
 2425DOPE   C4B28461  11.009  29.231  12.572  0.3406  0.2908  0.2207
 2426DOPE   NH328462  12.129  27.621  10.534  0.2355 -0.4307 -0.2901
 2426DOPE   PO428463  12.323  27.387  10.380  0.1700 -0.1494 -0.1097
 2426DOPE   GL128464  12.458  27.274  10.695 -0.1274  0.1157 -0.0007
 2426DOPE   GL228465  12.273  27.292  10.909 -0.0903 -0.0372 -0.0157
 2426DOPE   C1A28466  12.719  27.324  11.089  0.1742 -0.2159  0.1099
 2426DOPE   D2A28467  12.968  27.495  11.436 -0.4933  0.3611 -0.3013
 2426DOPE   C3A28468  13.000  27.919  11.565  0.0429 -0.0409 -0.1027
 2426DOPE   C4A28469  13.111  28.041  11.987  0.1363  0.0279  0.0807
 2426DOPE   C1B28470  12.267  27.181  11.387 -0.0437 -0.0066  0.0308
 2426DOPE   D2B28471  12.530  27.152  11.786 -0.1672  0.2826  0.2290
 2426DOPE   C3B28472  12.351  26.868  12.107  0.0453 -0.0940 -0.0269
 2426DOPE   C4B28473  12.301  26.553  12.403  0.2070  0.3142 -0.3298
 2427DOPS   CNO28474  15.363  25.852   9.793  0.0142 -0.0625  0.3504
 2427DOPS   PO428475  15.066  25.602   9.758 -0.1498 -0.3446  0.0242
 2427DOPS   GL128476  15.270  25.307  10.000 -0.0166 -0.3589  0.3056
 2427DOPS   GL228477  15.262  25.454  10.280  0.3950  0.0962 -0.1381
 2427DOPS   C1A28478  15.230  24.950  10.269 -0.2032  0.4333 -0.2600
 2427DOPS   D2A28479  15.312  24.768  10.708  0.2509 -0.4057  0.1829
 2427DOPS   C3A28480  14.933  24.733  11.038  0.1755  0.1314 -0.0699
 2427DOPS   C4A28481  14.764  24.870  11.421 -0.0203  0.2036  0.0056
 2427DOPS   C1B28482  15.395  25.769  10.622  0.3506 -0.0401  0.3539
 2427DOPS   D2B28483  15.624  26.117  10.921 -0.2592 -0.1365  0.3177
 2427DOPS   C3B28484  15.973  26.387  11.001  0.2040 -0.1628  0.0219
 2427DOPS   C4B28485  16.344  26.580  11.188 -0.0337  0.4090  0.1945
 2428POSM   NC328486  18.208  25.385   9.951 -0.3391 -0.1679  0.0516
 2428POSM   PO428487  17.928  25.366   9.628  0.2972 -0.2131 -0.0071
 2428POSM   AM128488  17.868  25.107   9.779  0.3035 -0.1885  0.1550
 2428POSM   AM228489  17.697  24.880   9.804  0.2370 -0.2505  0.0626
 2428POSM   T1A28490  17.896  24.988  10.281 -0.0107 -0.0539 -0.0941
 2428POSM   C2A28491  17.945  24.917  10.740 -0.1078 -0.0677 -0.0493
 2428POSM   C3A28492  17.938  24.995  11.173  0.0331  0.2783 -0.0545
 2428POSM   C1B28493  17.458  24.864  10.057 -0.0842  0.0128  0.2837
 2428POSM   D2B28494  17.283  25.044  10.448  0.0020 -0.2381 -0.1038
 2428POSM   C3B28495  17.475  25.016  10.864 -0.1243 -0.0248  0.3252
 2428POSM   C4B28496  17.448  25.301  11.223  0.1309  0.1595  0.0663
 2429POSM   NC328497  22.454  28.100   9.115 -0.2528 -0.1462 -0.3192
 2429POSM   PO428498  22.785  27.948   9.219 -0.2488 -0.1091  0.1008
 2429POSM   AM128499  22.924  27.931   9.514 -0.0269  0.1945  0.1258
 2429POSM   AM228500  23.011  28.135   9.733 -0.1200 -0.0572  0.0203
 2429POSM   T1A28501  22.913  27.542   9.921  0.0907 -0.1036  0.1911
 2429POSM   C2A28502  22.792  27.754  10.335  0.1189 -0.0492 -0.3203
 2429POSM   C3A28503  22.704  27.582  10.747 -0.0692  0.0888  0.2727
 2429POSM   C1B28504  22.754  28.009   9.916  0.0254 -0.0894 -0.0605
 2429POSM   D2B28505  22.413  27.702   9.992 -0.2804  0.2330 -0.1425
 2429POSM   C3B28506  22.245  27.662  10.429 -0.1461  0.1145 -0.0810
 2429POSM   C4B28507  22.102  27.546  10.864  0.0846  0.3320 -0.0089
 2430DOPE   NH328508  21.640  24.132   9.415 -0.1702 -0.3660 -0.3273
 2430DOPE   PO428509  21.357  24.090   9.478  0.2130  0.0192  0.0933
 2430DOPE   GL128510  21.446  24.143   9.873  0.2719 -0.0330 -0.2545
 2430DOPE   GL228511  21.731  24.129   9.931  0.2473  0.0988  0.1030
 2430DOPE   C1A28512  21.079  24.260  10.181 -0.0926  0.0234  0.1707
 2430DOPE   D2A28513  20.713  24.399  10.480  0.1273  0.2481  0.1648
 2430DOPE   C3A28514  20.922  24.645  10.818 -0.1053  0.0130 -0.2573
 2430DOPE   C4A28515  20.855  24.762  11.270 -0.0487  0.2557 -0.3172
 2430DOPE   C1B28516  21.522  24.226  10.312  0.1881  0.1846 -0.0358
 2430DOPE   D2B28517  21.236  24.308  10.688  0.0771  0.2952 -0.1798
 2430DOPE   C3B28518  20.862  24.117  10.916 -0.0364  0.2048  0.0009
 2430DOPE   C4B28519  20.556  23.934  11.188  0.4233  0.0136  0.3519
 2431DOPS   CNO28520  15.380  33.565   9.739 -0.0790  0.0831  0.0039
 2431DOPS   PO428521  15.552  33.370  10.025 -0.0929 -0.5070  0.0050
 2431DOPS   GL128522  15.543  33.230  10.445  0.0046  0.0294  0.0676
 2431DOPS   GL228523  15.691  33.164  10.709 -0.1480 -0.2482 -0.2357
 2431DOPS   C1A28524  15.208  33.247  10.758 -0.3201  0.2660 -0.0896
 2431DOPS   D2A28525  14.903  33.189  11.138 -0.0141  0.1104 -0.1038
 2431DOPS   C3A28526  15.091  32.824  11.487 -0.0254  0.0141  0.1068
 2431DOPS   C4A28527  15.057  32.366  11.581 -0.0759  0.1600 -0.1391
 2431DOPS   C1B28528  15.492  32.943  11.047  0.0964 -0.0903  0.2877
 2431DOPS   D2B28529  15.532  32.641  11.487 -0.1446 -0.1299 -0.1336
 2431DOPS   C3B28530  15.544  32.350  11.859  0.0246  0.0749 -0.0671
 2431DOPS   C4B28531  15.186  32.060  11.985 -0.0052  0.0481 -0.0738
 2432DOPE   NH328532  20.087  32.659   9.224 -0.2123  0.1598  0.0081
 2432DOPE   PO428533  19.849  32.674   9.493 -0.0455  0.0903  0.0683
 2432DOPE   GL128534  19.669  32.508   9.835 -0.0773  0.0304 -0.0971
 2432DOPE   GL228535  19.745  32.647  10.047 -0.1332  0.2037 -0.1996
 2432DOPE   C1A28536  19.776  32.223  10.236  0.0727  0.2040  0.2154
 2432DOPE   D2A28537  19.481  31.902  10.473  0.1012 -0.0694  0.0410
 2432DOPE   C3A28538  19.250  32.009  10.874  0.0427  0.2521  0.0032
 2432DOPE   C4A28539  18.950  32.286  11.109 -0.1123 -0.2458 -0.1272
 2432DOPE   C1B28540  19.955  32.777  10.433 -0.1001 -0.0513 -0.1400
 2432DOPE   D2B28541  19.986  32.882  10.937 -0.1653  0.0752  0.0041
 2432DOPE   C3B28542  19.604  32.919  11.207 -0.0965  0.0660  0.1036
 2432DOPE   C4B28543  19.169  33.005  11.286  0.1601  0.1960 -0.1672
 2433POSM   NC328544  13.167  28.078   9.984 -0.5266 -0.0531 -0.3744
 2433POSM   PO428545  12.847  28.170  10.159  0.3913  0.0199 -0.2738
 2433POSM   AM128546  12.995  28.095  10.449  0.0445 -0.0286 -0.0134
 2433POSM   AM228547  13.260  28.108  10.469 -0.0755  0.0388 -0.1648
 2433POSM   T1A28548  13.136  27.972  10.922  0.1959 -0.0467  0.0083
 2433POSM   C2A28549  13.398  27.607  11.064  0.1210  0.1340  0.2125
 2433POSM   C3A28550  13.741  27.406  11.300  0.0045  0.0950 -0.0288
 2433POSM   C1B28551  13.537  28.046  10.625  0.0383 -0.2020 -0.2055
 2433POSM   D2B28552  13.931  28.013  10.916  0.4147  0.0289 -0.1655
 2433POSM   C3B28553  13.951  28.057  11.323  0.2003 -0.0423  0.0512
 2433POSM   C4B28554  13.986  28.121  11.787  0.0143 -0.2469 -0.1585
 2434POSM   NC328555  14.042   0.228  10.562  0.2214 -0.1949 -0.0353
 2434POSM   PO428556  14.327   0.139  10.767 -0.0182 -0.1609 -0.0160
 2434POSM   AM128557  14.331   0.185  11.082 -0.2222  0.0982  0.0024
 2434POSM   AM228558  14.382   0.376  11.270  0.0313 -0.2241  0.1044
 2434POSM   T1A28559  14.125   0.055  11.516  0.1305  0.1966  0.1817
 2434POSM   C2A28560  14.189  -0.290  11.853  0.0836  0.1117  0.4159
 2434POSM   C3A28561  14.131  -0.343  12.336  0.0461 -0.1467 -0.3228
 2434POSM   C1B28562  14.607   0.400  11.500 -0.0737  0.0043 -0.0487
 2434POSM   D2B28563  14.733   0.702  11.894  0.2370  0.0158  0.0709
 2434POSM   C3B28564  15.061   0.448  12.051 -0.0089 -0.0497 -0.1760
 2434POSM   C4B28565  15.199   0.558  12.531 -0.0035  0.2350  0.0682
 2435DOPC   NC328566  16.536  28.339  10.048 -0.0338 -0.1377  0.0907
 2435DOPC   PO428567  16.569  28.692   9.879 -0.1646  0.1075 -0.0382
 2435DOPC   GL128568  16.833  28.793  10.140 -0.2220 -0.3229  0.2886
 2435DOPC   GL228569  16.784  29.059  10.144 -0.0052 -0.2924 -0.4944
 2435DOPC   C1A28570  16.927  28.793  10.612 -0.0459  0.0777  0.0297
 2435DOPC   D2A28571  17.019  28.900  11.026 -0.0621  0.0775  0.0666
 2435DOPC   C3A28572  16.744  28.643  11.284  0.0263  0.2496 -0.1901
 2435DOPC   C4A28573  16.382  28.731  11.617 -0.0365  0.2859  0.2676
 2435DOPC   C1B28574  16.581  29.169  10.511  0.3850  0.1347 -0.0638
 2435DOPC   D2B28575  16.505  28.968  10.916  0.0369 -0.0599  0.0850
 2435DOPC   C3B28576  16.240  28.600  11.093 -0.0645  0.2014  0.0916
 2435DOPC   C4B28577  15.870  28.294  11.077  0.0595 -0.0231 -0.1791
 2436POSM   NC328578  10.787  30.046  10.093 -0.1056  0.1290 -0.0640
 2436POSM   PO428579  10.957  29.709  10.178  0.1360 -0.0724  0.2282
 2436POSM   AM128580  10.923  29.831  10.504 -0.0013  0.3857  0.0262
 2436POSM   AM228581  10.858  30.111  10.565  0.2835  0.2377 -0.1011
 2436POSM   T1A28582  10.890  29.812  11.070  0.1038  0.0856  0.0068
 2436POSM   C2A28583  10.847  30.137  11.390 -0.0493 -0.0991  0.3251
 2436POSM   C3A28584  11.178  30.451  11.621 -0.1260  0.1065  0.0683
 2436POSM   C1B28585  11.119  30.176  10.780 -0.0350 -0.0573  0.2259
 2436POSM   D2B28586  11.321  30.460  11.035 -0.0698 -0.2019 -0.0981
 2436POSM   C3B28587  11.497  30.833  11.260 -0.1639  0.1569  0.2535
 2436POSM   C4B28588  11.950  31.003  11.248 -0.4090  0.1724  0.1113
 2437DOPE   NH328589  14.509  24.983   9.652  0.0400 -0.1203 -0.1221
 2437DOPE   PO428590  14.657  25.286   9.636  0.0442  0.1110  0.1088
 2437DOPE   GL128591  14.721  25.336  10.003 -0.1828 -0.0587  0.1181
 2437DOPE   GL228592  14.858  25.116  10.095 -0.2139  0.2859  0.1545
 2437DOPE   C1A28593  14.786  25.620  10.338 -0.5118  0.2658 -0.0166
 2437DOPE   D2A28594  14.930  25.867  10.693 -0.3615 -0.2695  0.1935
 2437DOPE   C3A28595  14.779  25.957  11.120 -0.2025 -0.2702  0.2889
 2437DOPE   C4A28596  14.853  25.783  11.520 -0.3677  0.1015 -0.0864
 2437DOPE   C1B28597  14.768  25.179  10.536 -0.0072 -0.0566  0.2235
 2437DOPE   D2B28598  14.665  25.475  10.855  0.0825  0.1813 -0.2453
 2437DOPE   C3B28599  14.762  25.380  11.257  0.0266 -0.0664 -0.0474
 2437DOPE   C4B28600  14.851  25.345  11.751  0.0207  0.0815  0.0129
 2438DOPS   CNO28601  13.542  27.825   9.659  0.0269  0.2799  0.0336
 2438DOPS   PO428602  13.384  27.670   9.929 -0.3051  0.0727  0.1665
 2438DOPS   GL128603  13.557  27.828  10.168  0.3622 -0.0206 -0.0638
 2438DOPS   GL228604  13.750  28.085  10.089  0.2474  0.1087 -0.2415
 2438DOPS   C1A28605  13.875  27.725  10.445  0.0912 -0.0358  0.0898
 2438DOPS   D2A28606  14.294  27.868  10.600 -0.0898  0.3051 -0.2165
 2438DOPS   C3A28607  14.416  27.916  10.999  0.0449 -0.2906 -0.3275
 2438DOPS   C4A28608  14.707  27.766  11.380 -0.0516  0.0336  0.1883
 2438DOPS   C1B28609  13.940  28.230  10.435  0.0829  0.2764  0.0333
 2438DOPS   D2B28610  14.332  28.454  10.503  0.3063 -0.1490 -0.2529
 2438DOPS   C3B28611  14.521  28.408  10.933  0.0645  0.1034  0.0595
 2438DOPS   C4B28612  14.507  28.320  11.364  0.1590 -0.2901  0.0297
 2439DOPC   NC328613  14.442  31.124  10.092  0.1231  0.3039  0.1238
 2439DOPC   PO428614  14.851  31.281  10.005 -0.3462  0.0789 -0.3019
 2439DOPC   GL128615  14.752  31.277  10.446 -0.1721  0.2145  0.0135
 2439DOPC   GL228616  14.903  31.049  10.527 -0.1412  0.0677  0.1144
 2439DOPC   C1A28617  14.701  31.332  10.908  0.0625 -0.1507  0.1503
 2439DOPC   D2A28618  14.596  31.024  11.323  0.1050  0.0246  0.0101
 2439DOPC   C3A28619  14.163  31.156  11.509  0.1913  0.2947 -0.0017
 2439DOPC   C4A28620  13.815  31.196  11.890  0.2969  0.1340  0.2552
 2439DOPC   C1B28621  15.117  30.909  10.916 -0.0639 -0.0009  0.1139
 2439DOPC   D2B28622  15.230  30.745  11.396  0.1138  0.1513  0.0753
 2439DOPC   C3B28623  14.937  30.830  11.718  0.0532 -0.1332  0.2137
 2439DOPC   C4B28624  14.777  31.120  11.991 -0.2336  0.0907  0.0669
 2440DOPC   NC328625  20.335  30.951   8.854  0.0893  0.2292  0.2635
 2440DOPC   PO428626  20.445  31.285   9.029  0.1482  0.4237 -0.2736
 2440DOPC   GL128627  20.580  31.315   9.453 -0.0735 -0.1316 -0.0758
 2440DOPC   GL228628  20.859  31.425   9.429 -0.3618  0.0346  0.0780
 2440DOPC   C1A28629  20.734  31.215   9.881 -0.0392 -0.2099  0.2028
 2440DOPC   D2A28630  20.753  31.375  10.281 -0.1010 -0.0730  0.0701
 2440DOPC   C3A28631  20.975  31.161  10.564  0.0853  0.0902 -0.0685
 2440DOPC   C4A28632  21.146  30.961  10.937  0.2407 -0.4127 -0.1902
 2440DOPC   C1B28633  21.254  31.380   9.665  0.0438  0.2271 -0.3460
 2440DOPC   D2B28634  21.666  31.243   9.899 -0.1822 -0.0573  0.0491
 2440DOPC   C3B28635  21.641  31.429  10.292 -0.1896 -0.0864 -0.1952
 2440DOPC   C4B28636  21.528  31.383  10.682  0.1667  0.0407  0.2094
 2441DOPC   NC328637  17.146  27.691  10.279 -0.4183  0.0065  0.0469
 2441DOPC   PO428638  17.030  28.055  10.146 -0.0038 -0.0550 -0.2325
 2441DOPC   GL128639  17.018  28.100  10.531  0.0936  0.2571  0.1315
 2441DOPC   GL228640  16.809  28.265  10.558  0.1081  0.1054 -0.1387
 2441DOPC   C1A28641  17.411  28.109  10.786 -0.3802 -0.0375  0.1557
 2441DOPC   D2A28642  17.632  28.065  11.173  0.2488 -0.1659  0.0811
 2441DOPC   C3A28643  17.852  27.922  11.545  0.0700 -0.1667  0.0727
 2441DOPC   C4A28644  17.842  27.619  11.961 -0.1609  0.0950  0.2523
 2441DOPC   C1B28645  16.965  28.342  10.974  0.2431  0.2421 -0.1970
 2441DOPC   D2B28646  16.908  28.153  11.432 -0.2065 -0.0929 -0.0127
 2441DOPC   C3B28647  16.951  28.522  11.711  0.0432  0.1782 -0.1402
 2441DOPC   C4B28648  16.732  28.687  12.015  0.1227 -0.0670 -0.1630
 2442DOPS   CNO28649  17.432  33.978   9.749  0.2664 -0.1588 -0.1919
 2442DOPS   PO428650  17.647  33.716   9.903  0.0908 -0.2525 -0.0134
 2442DOPS   GL128651  17.857  33.902  10.143 -0.2800 -0.3824  0.1589
 2442DOPS   GL228652  17.616  33.979  10.340 -0.0487 -0.0182  0.0191
 2442DOPS   C1A28653  18.054  33.893  10.566 -0.0337  0.1258 -0.0015
 2442DOPS   D2A28654  17.993  33.931  10.992  0.0088  0.0301  0.0548
 2442DOPS   C3A28655  18.025  34.239  11.309  0.1799  0.0495 -0.0845
 2442DOPS   C4A28656  18.068  34.629  11.604 -0.0476  0.0052  0.2845
 2442DOPS   C1B28657  17.469  33.817  10.805  0.1441 -0.0658 -0.1826
 2442DOPS   D2B28658  17.555  33.838  11.247 -0.3061 -0.3332 -0.0576
 2442DOPS   C3B28659  17.566  34.202  11.536 -0.0584  0.1979 -0.2264
 2442DOPS   C4B28660  17.813  34.371  11.890  0.0367  0.0899 -0.1422
 2443POSM   NC328661  13.010  23.129   9.756 -0.2257 -0.0546  0.0793
 2443POSM   PO428662  12.984  23.475   9.914 -0.2120  0.4666 -0.2661
 2443POSM   AM128663  13.076  23.419  10.220 -0.0550  0.2342  0.1056
 2443POSM   AM228664  12.963  23.507  10.458  0.1373  0.0440 -0.1059
 2443POSM   T1A28665  13.473  23.231  10.480 -0.1745  0.1282 -0.0864
 2443POSM   C2A28666  13.687  22.916  10.708  0.2542  0.1379  0.2197
 2443POSM   C3A28667  13.963  22.576  10.702 -0.0107  0.0190 -0.0726
 2443POSM   C1B28668  12.847  23.381  10.726 -0.0315  0.0497  0.0997
 2443POSM   D2B28669  12.773  23.331  11.167 -0.0689 -0.1928  0.0996
 2443POSM   C3B28670  13.111  23.120  11.430 -0.1118 -0.1389  0.0945
 2443POSM   C4B28671  13.542  22.951  11.442 -0.0141 -0.2873  0.2282
 2444POSM   NC328672  20.285  34.774   9.964 -0.2769  0.0509  0.2608
 2444POSM   PO428673  20.596  34.724   9.803  0.2414 -0.0927  0.1831
 2444POSM   AM128674  20.701  34.636  10.103  0.2534 -0.4558  0.2784
 2444POSM   AM228675  20.813  34.397  10.248 -0.1558 -0.1663 -0.3195
 2444POSM   T1A28676  20.943  34.759  10.504 -0.0913 -0.0168 -0.2387
 2444POSM   C2A28677  21.331  34.645  10.632 -0.0404 -0.1777  0.0344
 2444POSM   C3A28678  21.634  34.383  10.910  0.2424 -0.1754 -0.0164
 2444POSM   C1B28679  20.752  34.313  10.588 -0.3089 -0.0521 -0.1056
 2444POSM   D2B28680  20.324  34.208  10.742  0.0336  0.0585  0.2529
 2444POSM   C3B28681  20.031  34.166  11.037  0.4765 -0.0220 -0.0116
 2444POSM   C4B28682  19.615  34.016  11.244 -0.0263 -0.0958  0.0388
 2445DOPE   NH328683  10.267  27.910  10.608  0.1235  0.0556  0.0818
 2445DOPE   PO428684  10.285  28.201  10.695 -0.1206  0.1696 -0.1545
 2445DOPE   GL128685  10.462  28.336  11.044 -0.2887 -0.0770  0.2903
 2445DOPE   GL228686  10.261  28.236  11.223  0.1965  0.0227 -0.0059
 2445DOPE   C1A28687  10.510  28.628  11.451  0.0196 -0.2320  0.1236
 2445DOPE   D2A28688  10.623  28.940  11.793  0.0510  0.2254  0.0493
 2445DOPE   C3A28689  10.496  29.340  11.977  0.2254 -0.0034  0.0393
 2445DOPE   C4A28690  10.208  29.664  12.143 -0.1890  0.0155 -0.3883
 2445DOPE   C1B28691  10.467  28.118  11.544 -0.0941  0.2640 -0.0333
 2445DOPE   D2B28692  10.563  28.051  12.020 -0.1164  0.2501  0.2829
 2445DOPE   C3B28693  10.990  28.075  12.259 -0.1994 -0.2528 -0.4237
 2445DOPE   C4B28694  11.353  27.898  12.405 -0.2465  0.1398 -0.2078
 2446DOPC   NC328695  14.454  21.668   9.418  0.3430 -0.0339  0.0602
 2446DOPC   PO428696  14.461  22.063   9.294  0.0647  0.2322  0.0183
 2446DOPC   GL128697  14.676  21.993   9.675 -0.1896 -0.1178  0.1096
 2446DOPC   GL228698  14.829  21.686   9.761 -0.0024  0.1047 -0.0779
 2446DOPC   C1A28699  14.660  22.154  10.069  0.0875 -0.1094 -0.1040
 2446DOPC   D2A28700  14.697  22.538  10.265 -0.0007 -0.0406  0.0349
 2446DOPC   C3A28701  14.427  22.534  10.561 -0.0775 -0.1380 -0.0035
 2446DOPC   C4A28702  14.327  22.507  11.024 -0.1022 -0.3143 -0.0887
 2446DOPC   C1B28703  14.437  21.493   9.949  0.2049  0.0653  0.1540
 2446DOPC   D2B28704  14.051  21.267  10.129  0.1736 -0.4100  0.0851
 2446DOPC   C3B28705  13.589  21.449  10.107 -0.4588  0.1414 -0.0368
 2446DOPC   C4B28706  13.581  21.871   9.977 -0.1677 -0.0951  0.1466
 2447POSM   NC328707  21.748  25.454   8.998  0.0627  0.0942  0.4609
 2447POSM   PO428708  21.781  25.787   9.164 -0.0758 -0.2675 -0.0083
 2447POSM   AM128709  21.863  25.958   9.429  0.0668 -0.0803  0.0408
 2447POSM   AM228710  21.939  26.251   9.517  0.0934  0.2203 -0.5053
 2447POSM   T1A28711  22.130  25.869   9.881 -0.0142  0.0695 -0.1561
 2447POSM   C2A28712  22.186  25.709  10.337  0.0626  0.4006 -0.0372
 2447POSM   C3A28713  22.420  25.474  10.684 -0.2276 -0.1014  0.0212
 2447POSM   C1B28714  21.804  26.283   9.824 -0.2917 -0.0450  0.0091
 2447POSM   D2B28715  21.783  26.121  10.237 -0.0716  0.1897  0.1648
 2447POSM   C3B28716  21.788  26.024  10.719  0.1692 -0.2717  0.1333
 2447POSM   C4B28717  21.928  26.031  11.162  0.4271 -0.2149  0.2350
 2448POSM   NC328718  18.345  33.193   9.591  0.1061  0.0010  0.0382
 2448POSM   PO428719  18.678  32.947   9.706 -0.2730  0.1756 -0.1374
 2448POSM   AM128720  18.792  32.987   9.986  0.0790  0.2429  0.0774
 2448POSM   AM228721  19.021  32.956  10.089 -0.2849 -0.2024  0.2595
 2448POSM   T1A28722  18.751  32.775  10.475  0.2712  0.4566  0.0366
 2448POSM   C2A28723  18.939  32.733  10.889 -0.0593 -0.0010 -0.5931
 2448POSM   C3A28724  19.345  32.537  11.017 -0.0372 -0.3786  0.0933
 2448POSM   C1B28725  19.217  32.866  10.365 -0.0463 -0.1076 -0.1660
 2448POSM   D2B28726  19.520  32.881  10.662 -0.0536 -0.0928 -0.4325
 2448POSM   C3B28727  19.346  33.217  10.896  0.3608  0.1712  0.3080
 2448POSM   C4B28728  19.267  33.472  11.311  0.1466  0.0074  0.2393
 2449DOPC   NC328729  28.656  11.242  13.678 -0.0762  0.0967  0.0965
 2449DOPC   PO428730  28.712  11.533  13.933  0.1089  0.1299 -0.1359
 2449DOPC   GL128731  28.578  11.760  13.653  0.0706  0.0121 -0.0581
 2449DOPC   GL228732  28.675  11.681  13.438  0.1077 -0.1024  0.1774
 2449DOPC   C1A28733  28.135  11.803  13.501  0.3876 -0.1148  0.3635
 2449DOPC   D2A28734  27.733  11.728  13.282 -0.1207 -0.2428  0.0766
 2449DOPC   C3A28735  27.952  11.557  12.852  0.0609 -0.2751 -0.1184
 2449DOPC   C4A28736  28.084  11.410  12.497  0.1323  0.1042 -0.0960
 2449DOPC   C1B28737  29.021  11.855  13.235 -0.1179 -0.0901 -0.0060
 2449DOPC   D2B28738  29.381  12.044  13.060 -0.1964 -0.2209  0.1477
 2449DOPC   C3B28739  29.302  12.015  12.637 -0.0077 -0.0176 -0.1605
 2449DOPC   C4B28740  29.057  11.959  12.243  0.3041  0.1048  0.0137
 2450DOPC   NC328741  34.156   4.577  14.344 -0.2536 -0.3261  0.1918
 2450DOPC   PO428742  34.147   4.270  14.113  0.4088 -0.1569 -0.1745
 2450DOPC   GL128743  34.097   4.261  13.740 -0.1083 -0.4658  0.5638
 2450DOPC   GL228744  34.082   4.561  13.729  0.0065  0.1251 -0.0870
 2450DOPC   C1A28745  34.194   3.908  13.467 -0.0210  0.0716  0.0314
 2450DOPC   D2A28746  34.454   3.643  13.121  0.0867  0.0375 -0.0844
 2450DOPC   C3A28747  34.309   3.570  12.692 -0.0159 -0.0848  0.0182
 2450DOPC   C4A28748  34.021   3.207  12.580 -0.1068  0.0163  0.1928
 2450DOPC   C1B28749  34.011   4.982  13.525 -0.0707 -0.0375 -0.0897
 2450DOPC   D2B28750  33.693   5.136  13.235  0.1096  0.1914 -0.3492
 2450DOPC   C3B28751  33.712   4.728  13.030 -0.1238  0.1467 -0.0296
 2450DOPC   C4B28752  34.065   4.522  13.121 -0.4388 -0.1488  0.2584
 2451DOPE   NH328753  32.303  10.831  14.824 -0.2293 -0.0763 -0.1058
 2451DOPE   PO428754  32.231  11.091  14.604 -0.1331 -0.2774  0.3329
 2451DOPE   GL128755  32.379  11.156  14.236 -0.0479  0.2602  0.1014
 2451DOPE   GL228756  32.188  11.197  14.031 -0.1256 -0.1681 -0.0264
 2451DOPE   C1A28757  32.632  11.335  13.875  0.0359 -0.6085 -0.0718
 2451DOPE   D2A28758  32.817  11.466  13.399 -0.0451  0.1077  0.1013
 2451DOPE   C3A28759  32.708  11.937  13.351  0.1163  0.2367 -0.0794
 2451DOPE   C4A28760  32.776  12.397  13.302  0.0654 -0.0327  0.0093
 2451DOPE   C1B28761  32.215  11.378  13.591 -0.0223 -0.1523  0.5755
 2451DOPE   D2B28762  32.059  11.517  13.156  0.1533 -0.0673 -0.0492
 2451DOPE   C3B28763  31.866  11.832  13.307  0.0559  0.0142 -0.2336
 2451DOPE   C4B28764  31.815  12.320  13.414 -0.0979  0.0362 -0.0917
 2452DOPE   NH328765  25.877  11.189  13.766 -0.0616  0.0734  0.0291
 2452DOPE   PO428766  26.164  11.082  13.754 -0.2266 -0.1748  0.7434
 2452DOPE   GL128767  26.318  11.272  13.411 -0.0843 -0.5023 -0.0915
 2452DOPE   GL228768  26.097  11.286  13.234 -0.0565 -0.1149 -0.2439
 2452DOPE   C1A28769  26.593  11.422  13.080  0.5030  0.1007 -0.2019
 2452DOPE   D2A28770  26.707  11.465  12.666 -0.0840 -0.2499 -0.1625
 2452DOPE   C3A28771  27.096  11.652  12.537 -0.1648 -0.1443 -0.0091
 2452DOPE   C4A28772  27.514  11.624  12.348 -0.0932  0.0299 -0.0956
 2452DOPE   C1B28773  26.227  11.210  12.805  0.1235  0.1922 -0.1392
 2452DOPE   D2B28774  26.348  11.283  12.338  0.2055  0.1242 -0.0964
 2452DOPE   C3B28775  26.370  11.087  11.896  0.2014  0.1259 -0.2900
 2452DOPE   C4B28776  26.826  10.888  11.857  0.1479 -0.1837  0.0995
 2453DOPC   NC328777  32.967   9.971  15.230 -0.0088 -0.0700  0.1794
 2453DOPC   PO428778  33.285  10.227  15.181  0.0086 -0.4286 -0.0839
 2453DOPC   GL128779  33.340  10.349  14.857  0.4620 -0.0258  0.0615
 2453DOPC   GL228780  33.174  10.575  14.729  0.0065  0.2199  0.1905
 2453DOPC   C1A28781  33.179  10.170  14.418 -0.0188  0.1897 -0.0441
 2453DOPC   D2A28782  33.030  10.306  13.995 -0.3240  0.0601  0.1648
 2453DOPC   C3A28783  32.992  10.728  13.817  0.0645  0.1307  0.2566
 2453DOPC   C4A28784  33.062  11.140  13.845 -0.1509 -0.0658  0.0954
 2453DOPC   C1B28785  33.605  10.801  14.611  0.1032  0.3110  0.1862
 2453DOPC   D2B28786  33.978  11.103  14.570  0.0531 -0.2590  0.3404
 2453DOPC   C3B28787  33.830  11.410  14.268  0.0436 -0.0280  0.1894
 2453DOPC   C4B28788  33.744  11.540  13.796 -0.0196  0.3588 -0.2284
 2454DOPC   NC328789  34.494   6.968  14.474  0.0765 -0.0450 -0.1389
 2454DOPC   PO428790  34.355   7.162  14.760  0.0980  0.0726 -0.1439
 2454DOPC   GL128791  34.223   7.356  14.436 -0.0378  0.5074 -0.3809
 2454DOPC   GL228792  34.103   7.188  14.238 -0.1859  0.1579 -0.1489
 2454DOPC   C1A28793  34.373   7.544  14.066  0.2108  0.0426 -0.2610
 2454DOPC   D2A28794  34.703   7.640  13.775 -0.0271 -0.0223  0.2601
 2454DOPC   C3A28795  34.942   8.018  13.603 -0.0856 -0.0609  0.1546
 2454DOPC   C4A28796  35.360   8.175  13.704 -0.3175 -0.0430 -0.0462
 2454DOPC   C1B28797  34.099   6.905  13.823 -0.3054  0.2356 -0.1707
 2454DOPC   D2B28798  34.333   6.770  13.439 -0.2013 -0.1847  0.2604
 2454DOPC   C3B28799  34.534   7.074  13.166 -0.2126 -0.0381  0.1288
 2454DOPC   C4B28800  34.631   7.021  12.720 -0.0714 -0.0478  0.0129
 2455POSM   NC328801  27.671   4.113  14.084  0.2460 -0.1947 -0.1681
 2455POSM   PO428802  27.629   4.212  13.708 -0.2846 -0.0663  0.2027
 2455POSM   AM128803  27.472   4.244  13.419  0.3729  0.0196 -0.0758
 2455POSM   AM228804  27.480   4.174  13.174 -0.0705  0.1661  0.1440
 2455POSM   T1A28805  27.070   4.403  13.112 -0.1075 -0.0475  0.1759
 2455POSM   C2A28806  26.790   4.668  12.836  0.0027  0.1225  0.2537
 2455POSM   C3A28807  26.446   4.661  12.611  0.3095 -0.0529 -0.0306
 2455POSM   C1B28808  27.677   4.161  12.949  0.1930 -0.1859  0.0410
 2455POSM   D2B28809  28.123   4.327  12.905 -0.2082 -0.6309 -0.2519
 2455POSM   C3B28810  28.478   4.232  12.577  0.6341 -0.1559 -0.1513
 2455POSM   C4B28811  28.926   4.168  12.390 -0.1535 -0.3482  0.2432
 2456DOPS   CNO28812  32.358  10.473  14.513  0.3724  0.1045  0.0083
 2456DOPS   PO428813  32.660  10.459  14.716  0.2777 -0.2154 -0.0304
 2456DOPS   GL128814  32.885  10.653  14.386  0.1663 -0.3592  0.3384
 2456DOPS   GL228815  32.677  10.754  14.212  0.2614  0.0745  0.1947
 2456DOPS   C1A28816  33.300  10.669  14.206  0.1276  0.2278  0.3486
 2456DOPS   D2A28817  33.692  10.494  14.024  0.0276 -0.1803  0.0064
 2456DOPS   C3A28818  33.553  10.139  13.727 -0.3203 -0.0654  0.0666
 2456DOPS   C4A28819  33.701   9.874  13.386 -0.1523  0.0734  0.0104
 2456DOPS   C1B28820  32.521  10.858  13.843 -0.0303  0.1363 -0.1290
 2456DOPS   D2B28821  32.579  11.025  13.427 -0.2432  0.3735 -0.0950
 2456DOPS   C3B28822  32.438  11.248  13.056  0.0522 -0.0604 -0.0471
 2456DOPS   C4B28823  32.153  11.293  12.727 -0.0562  0.0009 -0.0928
 2457DOPC   NC328824  29.626   5.031  13.522  0.0895 -0.1026 -0.0415
 2457DOPC   PO428825  29.353   4.990  13.786 -0.0496  0.0328  0.2388
 2457DOPC   GL128826  29.109   5.157  13.449 -0.5497 -0.1190  0.1129
 2457DOPC   GL228827  29.221   5.402  13.467 -0.0569  0.0289  0.0377
 2457DOPC   C1A28828  28.931   5.000  13.056 -0.1574 -0.0683 -0.0390
 2457DOPC   D2A28829  28.684   5.082  12.677 -0.0512  0.3262 -0.3112
 2457DOPC   C3A28830  28.631   5.208  12.196  0.2121 -0.0742 -0.0497
 2457DOPC   C4A28831  28.801   5.658  12.059 -0.0461  0.1084  0.1353
 2457DOPC   C1B28832  29.311   5.326  13.078  0.4247 -0.0435  0.0699
 2457DOPC   D2B28833  29.410   5.235  12.656 -0.0190  0.0749 -0.0186
 2457DOPC   C3B28834  29.026   5.372  12.406 -0.0162 -0.2454 -0.1017
 2457DOPC   C4B28835  28.612   5.593  12.519  0.1443  0.0469 -0.2275
 2458DOPE   NH328836  26.743  10.066  13.619  0.0485 -0.1513 -0.0892
 2458DOPE   PO428837  26.582   9.800  13.664 -0.2219 -0.2024 -0.3691
 2458DOPE   GL128838  26.609   9.911  13.241  0.1005  0.2898 -0.0672
 2458DOPE   GL228839  26.802   9.686  13.172  0.0805  0.1005 -0.1789
 2458DOPE   C1A28840  26.396  10.180  12.893 -0.0073 -0.1424 -0.0556
 2458DOPE   D2A28841  26.097  10.332  12.518  0.0128  0.4031  0.2183
 2458DOPE   C3A28842  25.844  10.490  12.140  0.0583 -0.0204  0.0629
 2458DOPE   C4A28843  25.835  10.983  11.948  0.2871  0.0253  0.0768
 2458DOPE   C1B28844  26.945   9.542  12.787  0.0573 -0.1006  0.0981
 2458DOPE   D2B28845  26.982   9.493  12.327  0.0202 -0.0640  0.1777
 2458DOPE   C3B28846  26.577   9.374  12.153 -0.0160  0.0072  0.0003
 2458DOPE   C4B28847  26.292   9.618  11.803 -0.1505 -0.2082 -0.2282
 2459POSM   NC328848  33.646   9.981  14.834 -0.2476 -0.1727  0.2039
 2459POSM   PO428849  33.973   9.770  14.981  0.3198 -0.1418  0.2144
 2459POSM   AM128850  34.242   9.770  14.823  0.1073  0.1845 -0.3694
 2459POSM   AM228851  34.422   9.554  14.805  0.1526  0.0068  0.5401
 2459POSM   T1A28852  34.390   9.929  14.378 -0.0746  0.2492  0.2593
 2459POSM   C2A28853  34.534   9.946  14.000  0.3484 -0.1647  0.2755
 2459POSM   C3A28854  34.882  10.192  13.875 -0.1016 -0.1343  0.2381
 2459POSM   C1B28855  34.449   9.373  14.493  0.3261 -0.0099  0.1045
 2459POSM   D2B28856  34.673   9.428  14.061 -0.0494 -0.0504 -0.3034
 2459POSM   C3B28857  34.373   9.408  13.707 -0.0016 -0.1666  0.1806
 2459POSM   C4B28858  34.020   9.561  13.567 -0.0639 -0.2587 -0.0324
 2460DOPS   CNO28859  29.787  14.066  15.265 -0.4055  0.0059  0.3645
 2460DOPS   PO428860  29.533  14.032  14.994  0.0128 -0.0791 -0.3706
 2460DOPS   GL128861  29.559  14.250  14.678 -0.1825 -0.1681 -0.0092
 2460DOPS   GL228862  29.351  14.104  14.484 -0.0754 -0.3015 -0.0118
 2460DOPS   C1A28863  29.410  14.582  14.401 -0.1730  0.0136 -0.1879
 2460DOPS   D2A28864  29.011  14.832  14.258 -0.0106 -0.0042 -0.2608
 2460DOPS   C3A28865  28.663  14.771  13.950  0.0806 -0.1450 -0.2376
 2460DOPS   C4A28866  28.228  14.893  13.800 -0.0203  0.0734  0.0761
 2460DOPS   C1B28867  29.747  14.211  14.252 -0.1252 -0.2944 -0.0329
 2460DOPS   D2B28868  30.019  14.188  13.932  0.0361  0.0552 -0.0257
 2460DOPS   C3B28869  30.033  13.852  13.646 -0.1392 -0.2150  0.1869
 2460DOPS   C4B28870  30.172  13.702  13.272 -0.0997  0.1512  0.0329
 2461DOPC   NC328871  34.114  34.671  13.813 -0.5229  0.2541 -0.1123
 2461DOPC   PO428872  33.730  34.613  13.851 -0.2120  0.1757 -0.0001
 2461DOPC   GL128873  33.633  35.019  13.726  0.2209 -0.2014 -0.0988
 2461DOPC   GL228874  33.344  35.031  13.596 -0.2182  0.4680  0.0297
 2461DOPC   C1A28875  33.656  35.345  13.410 -0.0739  0.0174  0.1554
 2461DOPC   D2A28876  33.783  35.452  12.988  0.5853 -0.3854  0.1200
 2461DOPC   C3A28877  33.711  35.651  12.615  0.0821 -0.2821 -0.1129
 2461DOPC   C4A28878  33.799  35.690  12.174 -0.0058 -0.3616 -0.0426
 2461DOPC   C1B28879  33.414  35.024  13.107  0.0076  0.0123  0.1066
 2461DOPC   D2B28880  33.589  35.157  12.644  0.0104  0.1544 -0.1755
 2461DOPC   C3B28881  33.973  35.249  12.427 -0.4042  0.2082  0.0657
 2461DOPC   C4B28882  34.258  35.523  12.165  0.1359 -0.0750  0.1611
 2462DOPE   NH328883  28.791   4.564  13.790  0.1755 -0.0259 -0.1813
 2462DOPE   PO428884  28.561   4.490  13.586  0.1091 -0.0933  0.1794
 2462DOPE   GL128885  28.704   4.633  13.221  0.1015  0.0660  0.3623
 2462DOPE   GL228886  28.560   4.428  13.112  0.1590 -0.1927 -0.1178
 2462DOPE   C1A28887  28.398   4.839  12.954  0.3655  0.2195  0.0795
 2462DOPE   D2A28888  28.239   4.661  12.500  0.1389 -0.3261  0.1296
 2462DOPE   C3A28889  28.509   4.707  12.176 -0.2821 -0.0967 -0.1570
 2462DOPE   C4A28890  28.333   4.522  11.762  0.2802  0.2214  0.1505
 2462DOPE   C1B28891  28.803   4.535  12.737 -0.2571  0.1175  0.1575
 2462DOPE   D2B28892  28.978   4.659  12.358  0.0673  0.0040 -0.1592
 2462DOPE   C3B28893  28.926   4.472  11.939 -0.0323  0.1468 -0.3000
 2462DOPE   C4B28894  28.975   4.567  11.471  0.3834  0.1136  0.3222
 2463DOPE   NH328895  27.026   7.037  13.286  0.2761 -0.1110 -0.0304
 2463DOPE   PO428896  26.915   6.732  13.356 -0.1747 -0.0820  0.1458
 2463DOPE   GL128897  27.089   6.764  12.931  0.1742  0.2469 -0.0579
 2463DOPE   GL228898  27.241   6.497  12.843 -0.2084 -0.0883  0.0275
 2463DOPE   C1A28899  27.117   6.895  12.501  0.0512  0.2514  0.0361
 2463DOPE   D2A28900  27.213   6.894  12.035 -0.1915  0.0745 -0.5033
 2463DOPE   C3A28901  26.923   6.671  11.738  0.3488  0.3050  0.0404
 2463DOPE   C4A28902  26.534   6.498  11.681  0.0173  0.0231  0.0390
 2463DOPE   C1B28903  27.563   6.507  12.501  0.0890 -0.1727 -0.0050
 2463DOPE   D2B28904  27.658   6.454  12.036 -0.4028 -0.2685 -0.2251
 2463DOPE   C3B28905  27.840   6.291  11.637  0.0955 -0.3577 -0.0493
 2463DOPE   C4B28906  27.636   6.219  11.223  0.0440 -0.1842 -0.0601
 2464DOPC   NC328907  31.583  13.986  14.705 -0.2202 -0.1033 -0.3279
 2464DOPC   PO428908  31.239  13.812  14.588  0.4531  0.0955  0.1232
 2464DOPC   GL128909  31.379  13.923  14.265 -0.0299  0.0174 -0.5520
 2464DOPC   GL228910  31.439  14.179  14.217  0.0335  0.0947 -0.1917
 2464DOPC   C1A28911  31.206  13.642  13.956  0.2433 -0.2553 -0.1796
 2464DOPC   D2A28912  30.849  13.316  13.874  0.2116  0.1022  0.0443
 2464DOPC   C3A28913  30.909  13.038  13.523 -0.2750  0.3224  0.0861
 2464DOPC   C4A28914  31.176  12.737  13.316  0.2831  0.0086  0.0312
 2464DOPC   C1B28915  31.539  13.931  13.803  0.1708  0.2348 -0.0256
 2464DOPC   D2B28916  31.572  13.990  13.398 -0.2549  0.0818  0.1659
 2464DOPC   C3B28917  31.992  13.793  13.189  0.2419 -0.0767  0.2589
 2464DOPC   C4B28918  32.377  13.766  12.969  0.1519 -0.0151  0.3192
 2465POSM   NC328919  31.563   7.394  14.535 -0.0962 -0.0931 -0.0978
 2465POSM   PO428920  31.703   7.568  14.235 -0.1395 -0.2759 -0.1314
 2465POSM   AM128921  31.836   7.401  13.945  0.0823  0.0368  0.2583
 2465POSM   AM228922  32.005   7.423  13.747  0.0791  0.2221 -0.4994
 2465POSM   T1A28923  31.866   6.947  13.660 -0.4035 -0.2403 -0.1969
 2465POSM   C2A28924  31.909   6.706  13.302  0.2106 -0.1156 -0.1676
 2465POSM   C3A28925  32.046   6.576  12.841 -0.1376  0.1552  0.1600
 2465POSM   C1B28926  32.119   7.308  13.466  0.1815  0.2251  0.1504
 2465POSM   D2B28927  32.166   7.069  13.153  0.1864  0.2316  0.0784
 2465POSM   C3B28928  32.446   7.020  12.784  0.0673 -0.0041  0.1804
 2465POSM   C4B28929  32.499   7.160  12.346  0.3589  0.3653  0.0738
 2466DOPE   NH328930  25.537  11.725  13.567 -0.1081 -0.1024 -0.1812
 2466DOPE   PO428931  25.883  11.658  13.481 -0.3839 -0.0496  0.2195
 2466DOPE   GL128932  25.698  11.731  13.138  0.4838 -0.1284  0.0569
 2466DOPE   GL228933  25.582  11.954  13.067 -0.0545  0.2110  0.2086
 2466DOPE   C1A28934  25.710  11.782  12.619  0.0529 -0.0799 -0.3362
 2466DOPE   D2A28935  25.697  12.074  12.307  0.4355 -0.2087 -0.1352
 2466DOPE   C3A28936  25.947  12.019  11.951  0.2429  0.0988 -0.0522
 2466DOPE   C4A28937  26.278  11.935  11.617 -0.0804 -0.0770  0.0559
 2466DOPE   C1B28938  25.919  12.188  12.785  0.0294 -0.0563  0.2802
 2466DOPE   D2B28939  26.162  12.167  12.410  0.1860  0.1341 -0.0813
 2466DOPE   C3B28940  25.974  12.547  12.102 -0.0273 -0.0175 -0.0036
 2466DOPE   C4B28941  25.947  12.937  12.271  0.2353 -0.0043  0.1141
 2467DOPS   CNO28942  25.313   3.222  12.960  0.0520  0.0996 -0.1814
 2467DOPS   PO428943  25.141   3.438  12.730  0.0775 -0.2270 -0.1146
 2467DOPS   GL128944  25.241   3.540  12.394 -0.1870 -0.0905 -0.0091
 2467DOPS   GL228945  25.486   3.729  12.496 -0.2301 -0.1060  0.3617
 2467DOPS   C1A28946  25.427   3.408  11.987  0.2372 -0.0199  0.5605
 2467DOPS   D2A28947  25.683   3.658  11.689  0.1129  0.0157 -0.1044
 2467DOPS   C3A28948  26.046   3.887  11.539 -0.0354 -0.0108  0.0544
 2467DOPS   C4A28949  26.270   4.269  11.328 -0.0118  0.2157  0.0044
 2467DOPS   C1B28950  25.620   4.064  12.227  0.1368 -0.0854  0.0319
 2467DOPS   D2B28951  25.479   4.362  11.931 -0.2048  0.1513 -0.0569
 2467DOPS   C3B28952  25.640   4.743  11.685 -0.2023  0.0059  0.0794
 2467DOPS   C4B28953  25.651   5.138  11.419 -0.0521  0.3138 -0.0050
 2468POSM   NC328954  29.840  11.089  14.337 -0.2592  0.3105 -0.0286
 2468POSM   PO428955  30.180  11.307  14.267 -0.0159  0.0563  0.0141
 2468POSM   AM128956  30.289  11.195  13.975 -0.1958  0.1139 -0.1609
 2468POSM   AM228957  30.222  10.949  13.913  0.3557 -0.0956 -0.0646
 2468POSM   T1A28958  30.331  11.108  13.446 -0.2079  0.0602 -0.1600
 2468POSM   C2A28959  30.385  11.292  13.021  0.1051 -0.0717 -0.3935
 2468POSM   C3A28960  30.786  11.506  12.925  0.2340  0.1051 -0.0934
 2468POSM   C1B28961  29.917  10.965  13.675  0.1467 -0.0568 -0.1450
 2468POSM   D2B28962  29.686  10.744  13.375 -0.1689 -0.0994  0.0915
 2468POSM   C3B28963  29.747  10.370  13.181 -0.1902  0.0070  0.0153
 2468POSM   C4B28964  29.735  10.001  12.896 -0.0166  0.0388 -0.0892
 2469POSM   NC328965  25.136  11.737  13.924 -0.1433  0.0062 -0.1999
 2469POSM   PO428966  25.383  11.388  13.874  0.1263  0.2733  0.0976
 2469POSM   AM128967  25.402  11.269  13.549 -0.1260  0.0552  0.3704
 2469POSM   AM228968  25.608  11.209  13.348  0.1456  0.3939 -0.0065
 2469POSM   T1A28969  25.204  10.987  13.147 -0.3006  0.1178  0.0071
 2469POSM   C2A28970  24.940  10.705  12.962 -0.2566  0.1163 -0.0140
 2469POSM   C3A28971  24.849  10.327  13.190  0.1193  0.2099  0.0032
 2469POSM   C1B28972  25.722  10.931  13.153  0.0251  0.0269 -0.0500
 2469POSM   D2B28973  25.899  10.713  12.807  0.0637 -0.1147  0.0547
 2469POSM   C3B28974  25.495  10.617  12.548  0.0289 -0.4174 -0.1076
 2469POSM   C4B28975  25.269  11.011  12.621  0.1643 -0.0675 -0.0851
 2470DOPC   NC328976  25.808   2.741  12.812  0.1214  0.2260  0.0106
 2470DOPC   PO428977  25.457   2.682  12.646  0.1016 -0.0298  0.1272
 2470DOPC   GL128978  25.680   2.613  12.282  0.1769 -0.3170  0.1507
 2470DOPC   GL228979  25.554   2.865  12.134  0.1664 -0.0720  0.0789
 2470DOPC   C1A28980  25.462   2.525  11.833 -0.1862  0.1833  0.2979
 2470DOPC   D2A28981  25.698   2.558  11.411  0.3533  0.0753  0.0601
 2470DOPC   C3A28982  25.678   2.971  11.204 -0.1641 -0.1857  0.0166
 2470DOPC   C4A28983  25.855   3.303  11.016  0.0581 -0.0560  0.1632
 2470DOPC   C1B28984  25.472   3.018  11.693  0.1169  0.0731  0.0937
 2470DOPC   D2B28985  25.365   3.359  11.392 -0.0114  0.1112  0.1968
 2470DOPC   C3B28986  25.156   3.115  11.058 -0.1725  0.0835 -0.0340
 2470DOPC   C4B28987  24.972   2.725  10.922  0.1053 -0.0697  0.1234
 2471DOPS   CNO28988  29.520   6.636  13.895  0.1991 -0.2368  0.2266
 2471DOPS   PO428989  29.496   6.255  13.798  0.0811  0.1808  0.1035
 2471DOPS   GL128990  29.680   6.301  13.459  0.2090  0.1474  0.2387
 2471DOPS   GL228991  29.435   6.149  13.310  0.0944 -0.2482  0.1527
 2471DOPS   C1A28992  29.865   6.125  13.097 -0.1170 -0.0928  0.1025
 2471DOPS   D2A28993  30.039   6.136  12.671 -0.1171  0.3833 -0.0242
 2471DOPS   C3A28994  30.045   6.492  12.426 -0.1402 -0.1888  0.1018
 2471DOPS   C4A28995  30.193   6.963  12.449 -0.1029  0.0975 -0.5090
 2471DOPS   C1B28996  29.450   5.961  12.858  0.1118 -0.3696 -0.4414
 2471DOPS   D2B28997  29.530   5.842  12.417 -0.2870  0.0811 -0.0923
 2471DOPS   C3B28998  29.271   5.773  12.035 -0.0133  0.0653  0.4331
 2471DOPS   C4B28999  29.285   5.541  11.618 -0.1785  0.4144  0.0870
 2472DOPE   NH329000  33.777  11.550  15.451 -0.0241 -0.2176 -0.3722
 2472DOPE   PO429001  33.937  11.786  15.297 -0.0329 -0.1349 -0.1167
 2472DOPE   GL129002  33.687  11.751  14.993  0.0340 -0.1489 -0.2870
 2472DOPE   GL229003  33.746  11.480  14.851  0.2023 -0.0560  0.1006
 2472DOPE   C1A29004  33.873  11.957  14.651  0.1610  0.1475 -0.6268
 2472DOPE   D2A29005  34.012  12.168  14.305 -0.0915  0.1348 -0.1874
 2472DOPE   C3A29006  33.781  12.471  14.073 -0.1589 -0.1816 -0.1247
 2472DOPE   C4A29007  33.766  12.706  13.621  0.1123  0.1739  0.0915
 2472DOPE   C1B29008  33.457  11.659  14.561  0.0023 -0.0242  0.2375
 2472DOPE   D2B29009  33.085  11.841  14.431  0.1582  0.0653 -0.4003
 2472DOPE   C3B29010  33.096  12.221  14.177 -0.0583  0.0634 -0.0559
 2472DOPE   C4B29011  33.018  12.250  13.743 -0.1906 -0.0740  0.0689
 2473POSM   NC329012  31.510   6.204  14.366 -0.2336 -0.0539 -0.0811
 2473POSM   PO429013  31.420   6.609  14.379  0.2933  0.1646  0.5100
 2473POSM   AM129014  31.610   6.576  14.109  0.0665 -0.2318  0.2261
 2473POSM   AM229015  31.573   6.660  13.865  0.2073  0.2303  0.0592
 2473POSM   T1A29016  31.923   6.391  13.752 -0.0868 -0.0277 -0.0121
 2473POSM   C2A29017  32.310   6.324  13.497 -0.2960  0.2386 -0.0137
 2473POSM   C3A29018  32.740   6.118  13.337 -0.1664  0.0894  0.2675
 2473POSM   C1B29019  31.385   6.520  13.533  0.1885 -0.0841  0.0259
 2473POSM   D2B29020  31.189   6.236  13.266  0.0856  0.0522 -0.2506
 2473POSM   C3B29021  31.432   5.915  13.073  0.0530 -0.1147 -0.0266
 2473POSM   C4B29022  31.439   5.484  12.971 -0.1535 -0.0317  0.0801
 2474POSM   NC329023  34.059   0.991  14.102  0.1042  0.2251  0.0006
 2474POSM   PO429024  34.200   0.607  14.145 -0.1092  0.0462 -0.1778
 2474POSM   AM129025  34.304   0.585  13.836  0.2596  0.1019 -0.2731
 2474POSM   AM229026  34.183   0.661  13.590  0.0639 -0.0939  0.0103
 2474POSM   T1A29027  34.584   0.577  13.375 -0.2281 -0.1407 -0.0179
 2474POSM   C2A29028  34.753   0.410  13.035  0.1070 -0.3800 -0.1363
 2474POSM   C3A29029  34.585  -0.010  12.900 -0.1380  0.0264 -0.0042
 2474POSM   C1B29030  34.058   0.941  13.413 -0.3455  0.4515 -0.1524
 2474POSM   D2B29031  33.635   1.080  13.216  0.0723 -0.1275  0.1876
 2474POSM   C3B29032  33.714   1.337  12.794 -0.0613  0.2271  0.1003
 2474POSM   C4B29033  33.537   1.434  12.343 -0.1039 -0.0192 -0.1473
 2475DOPC   NC329034  25.184   9.217  13.601  0.0359  0.0031  0.1058
 2475DOPC   PO429035  24.879   9.425  13.651  0.0973  0.1460 -0.0065
 2475DOPC   GL129036  24.479   9.510  13.398  0.1530  0.2831  0.2245
 2475DOPC   GL229037  24.505   9.197  13.376  0.1463 -0.0822 -0.1284
 2475DOPC   C1A29038  24.257   9.637  13.001  0.5147  0.2322  0.1455
 2475DOPC   D2A29039  23.982   9.476  12.645 -0.2801  0.0677 -0.0532
 2475DOPC   C3A29040  24.034   9.525  12.185 -0.3696 -0.3172 -0.0671
 2475DOPC   C4A29041  24.274   9.817  11.849  0.0689  0.0326  0.2983
 2475DOPC   C1B29042  24.666   9.192  12.912 -0.0488  0.1761 -0.1944
 2475DOPC   D2B29043  24.935   9.350  12.575 -0.0264  0.0412 -0.0641
 2475DOPC   C3B29044  25.392   9.277  12.549 -0.2695 -0.1345  0.0385
 2475DOPC   C4B29045  25.620   9.569  12.274  0.1661  0.1537 -0.0439
 2476DOPC   NC329046  21.688   5.639  13.687 -0.1810  0.2015  0.1532
 2476DOPC   PO429047  21.434   5.453  13.532  0.2534 -0.2366 -0.2473
 2476DOPC   GL129048  21.506   5.546  13.202  0.2139  0.3721 -0.3215
 2476DOPC   GL229049  21.569   5.854  13.221 -0.0121  0.0109 -0.0847
 2476DOPC   C1A29050  21.429   5.418  12.800 -0.0237 -0.1044  0.0413
 2476DOPC   D2A29051  21.370   5.407  12.331 -0.1144  0.0995  0.0632
 2476DOPC   C3A29052  21.258   5.770  12.005 -0.0058  0.1725 -0.2876
 2476DOPC   C4A29053  21.231   6.056  11.711  0.3364  0.0814 -0.0922
 2476DOPC   C1B29054  21.511   5.943  12.803 -0.1908 -0.0253  0.0322
 2476DOPC   D2B29055  21.233   6.123  12.525 -0.0429 -0.1850  0.2162
 2476DOPC   C3B29056  21.493   6.189  12.099 -0.1549  0.0496  0.2261
 2476DOPC   C4B29057  21.768   6.509  11.961 -0.0493  0.0353  0.1525
 2477POSM   NC329058  25.936   0.809  13.341  0.0522  0.4849  0.0287
 2477POSM   PO429059  26.198   0.762  13.066 -0.1485 -0.3847 -0.2375
 2477POSM   AM129060  26.184   0.695  12.755 -0.1963 -0.0059 -0.0818
 2477POSM   AM229061  26.035   0.750  12.558 -0.3796  0.3165 -0.0750
 2477POSM   T1A29062  26.212   0.305  12.408  0.0770 -0.3497  0.0714
 2477POSM   C2A29063  26.323   0.180  11.934  0.1959 -0.0570  0.1576
 2477POSM   C3A29064  26.262   0.219  11.478  0.0436  0.2055 -0.1529
 2477POSM   C1B29065  26.105   0.855  12.211  0.1649  0.1325 -0.0950
 2477POSM   D2B29066  25.946   1.020  11.824  0.3961  0.0282  0.1959
 2477POSM   C3B29067  25.541   0.787  11.815 -0.0921 -0.0601  0.3316
 2477POSM   C4B29068  25.115   0.590  11.675 -0.1094 -0.0015  0.3255
 2478POSM   NC329069  32.971   4.549  14.398  0.1146  0.0107 -0.0161
 2478POSM   PO429070  32.864   4.917  14.325 -0.2927  0.4116  0.1302
 2478POSM   AM129071  32.924   5.048  14.040  0.5542  0.2490  0.0297
 2478POSM   AM229072  33.181   5.143  13.947 -0.0717 -0.0864  0.1362
 2478POSM   T1A29073  32.840   4.975  13.604  0.2957 -0.2325  0.2011
 2478POSM   C2A29074  32.809   5.031  13.202  0.0265 -0.0380 -0.1734
 2478POSM   C3A29075  32.785   4.931  12.792  0.0676 -0.1953 -0.0977
 2478POSM   C1B29076  33.247   5.247  13.632  0.2004 -0.2738  0.0155
 2478POSM   D2B29077  33.196   5.437  13.221 -0.0318 -0.3030  0.0242
 2478POSM   C3B29078  32.862   5.443  12.908  0.0437 -0.1876  0.3480
 2478POSM   C4B29079  32.396   5.334  12.858  0.0638  0.0195  0.0782
 2479DOPE   NH329080  31.062  11.184  14.826  0.0616  0.0313  0.0900
 2479DOPE   PO429081  31.282  10.932  14.750  0.1301  0.0884  0.1622
 2479DOPE   GL129082  31.370  10.905  14.357 -0.3846  0.0656  0.4912
 2479DOPE   GL229083  31.145  11.145  14.249  0.0853 -0.1667  0.1212
 2479DOPE   C1A29084  31.741  10.953  14.035 -0.1499 -0.2235  0.1176
 2479DOPE   D2A29085  32.068  10.740  13.832 -0.0467  0.2064 -0.0387
 2479DOPE   C3A29086  31.993  10.795  13.351  0.0732 -0.1279  0.2602
 2479DOPE   C4A29087  31.715  10.612  12.983 -0.3440 -0.2738 -0.0447
 2479DOPE   C1B29088  31.326  11.094  13.818  0.2957 -0.0131 -0.1640
 2479DOPE   D2B29089  31.251  11.334  13.469 -0.2825  0.1350 -0.1267
 2479DOPE   C3B29090  31.393  11.340  13.019 -0.0771 -0.4078 -0.2625
 2479DOPE   C4B29091  31.645  11.417  12.672 -0.0343  0.0697 -0.2054
 2480DOPC   NC329092  29.569  10.600  13.845  0.2171  0.1784 -0.0228
 2480DOPC   PO429093  29.609  10.232  13.969  0.3217 -0.0752  0.0446
 2480DOPC   GL129094  29.503  10.214  13.603 -0.2144  0.0649 -0.1679
 2480DOPC   GL229095  29.617   9.973  13.500 -0.0404 -0.1635 -0.1521
 2480DOPC   C1A29096  29.300  10.510  13.277  0.3662 -0.1137 -0.3146
 2480DOPC   D2A29097  29.167  10.320  12.886  0.2507  0.1598  0.4374
 2480DOPC   C3A29098  29.412  10.358  12.580 -0.0005 -0.3297 -0.1420
 2480DOPC   C4A29099  29.708  10.662  12.745 -0.1879  0.1944  0.0420
 2480DOPC   C1B29100  29.385   9.750  13.179 -0.0562  0.1698  0.4114
 2480DOPC   D2B29101  29.182   9.768  12.803 -0.3262 -0.6706 -0.2579
 2480DOPC   C3B29102  29.412   9.842  12.436 -0.4174 -0.2115  0.1164
 2480DOPC   C4B29103  29.648   9.964  12.050 -0.0561  0.2474 -0.2016
 2481DOPE   NH329104  31.637  10.079  14.377 -0.0211 -0.0142  0.0327
 2481DOPE   PO429105  31.859  10.250  14.545 -0.0976 -0.0707  0.1362
 2481DOPE   GL129106  31.970  10.360  14.199  0.0161 -0.2330  0.5993
 2481DOPE   GL229107  32.224  10.312  14.062  0.0281 -0.4251 -0.1241
 2481DOPE   C1A29108  31.764  10.345  13.781 -0.0303  0.0517 -0.4369
 2481DOPE   D2A29109  31.523  10.646  13.482  0.2224 -0.1480 -0.0406
 2481DOPE   C3A29110  31.106  10.712  13.616  0.1104 -0.2957  0.0506
 2481DOPE   C4A29111  30.824  10.961  13.856  0.2614  0.1280  0.0471
 2481DOPE   C1B29112  32.586  10.156  13.794  0.0711 -0.1763 -0.2939
 2481DOPE   D2B29113  32.918  10.257  13.461 -0.3943 -0.4394 -0.0905
 2481DOPE   C3B29114  33.362  10.333  13.344  0.1728  0.1654 -0.0908
 2481DOPE   C4B29115  33.797  10.342  13.308 -0.0866 -0.2349 -0.1348
 2482DOPE   NH329116  33.821   3.792  14.580 -0.2004  0.1593 -0.0004
 2482DOPE   PO429117  34.074   3.677  14.452 -0.3001 -0.1592 -0.0293
 2482DOPE   GL129118  34.190   3.809  14.043 -0.1992 -0.0884  0.0220
 2482DOPE   GL229119  34.074   3.526  14.005 -0.2208  0.1781 -0.3814
 2482DOPE   C1A29120  34.540   3.627  13.804 -0.0529 -0.0316  0.3173
 2482DOPE   D2A29121  34.645   3.289  13.498 -0.1446  0.2456  0.0864
 2482DOPE   C3A29122  34.766   2.853  13.413 -0.2374  0.0048 -0.1123
 2482DOPE   C4A29123  35.016   2.754  13.047  0.1908 -0.1401 -0.2925
 2482DOPE   C1B29124  33.805   3.698  13.654  0.1567  0.0576  0.0352
 2482DOPE   D2B29125  33.420   3.979  13.595 -0.2823  0.2151 -0.1791
 2482DOPE   C3B29126  33.215   4.109  13.231  0.0030  0.0869  0.1814
 2482DOPE   C4B29127  32.832   4.084  12.987  0.1371 -0.3167  0.0399
 2483DOPE   NH329128  29.836   4.998  14.017  0.2613 -0.1504  0.0196
 2483DOPE   PO429129  29.937   4.783  13.801  0.1484 -0.2379 -0.0233
 2483DOPE   GL129130  29.965   4.778  13.343 -0.2128  0.3633  0.1091
 2483DOPE   GL229131  30.147   4.924  13.149 -0.0395  0.1867  0.1699
 2483DOPE   C1A29132  29.546   4.721  13.136 -0.3740 -0.0837 -0.1964
 2483DOPE   D2A29133  29.254   4.755  12.746  0.0115 -0.1865  0.0618
 2483DOPE   C3A29134  29.537   4.705  12.414 -0.0784 -0.1551 -0.1689
 2483DOPE   C4A29135  29.833   4.409  12.183  0.0450  0.2769  0.3129
 2483DOPE   C1B29136  30.579   5.047  13.069 -0.1882 -0.0294  0.2844
 2483DOPE   D2B29137  31.012   5.229  13.151  0.2919 -0.0551  0.0374
 2483DOPE   C3B29138  31.257   5.032  12.892 -0.0287  0.2783  0.2194
 2483DOPE   C4B29139  31.534   4.695  12.691 -0.0015 -0.2152 -0.0549
 2484DOPS   CNO29140  25.824   5.553  13.829  0.3139  0.0942  0.0429
 2484DOPS   PO429141  25.761   5.941  13.938 -0.1522  0.1108 -0.0496
 2484DOPS   GL129142  25.619   6.026  13.508 -0.1126 -0.0370 -0.0394
 2484DOPS   GL229143  25.778   6.157  13.371  0.0004  0.0602 -0.0870
 2484DOPS   C1A29144  25.592   5.815  13.048 -0.1043 -0.1722 -0.2041
 2484DOPS   D2A29145  25.618   5.625  12.656  0.1258 -0.2606 -0.2219
 2484DOPS   C3A29146  25.652   6.010  12.433  0.0031 -0.0499 -0.1258
 2484DOPS   C4A29147  25.650   6.420  12.215  0.0541  0.0972 -0.2357
 2484DOPS   C1B29148  26.078   5.849  13.278  0.2299 -0.0834 -0.1270
 2484DOPS   D2B29149  26.498   5.783  13.170 -0.0765 -0.0196  0.1288
 2484DOPS   C3B29150  26.920   5.468  13.086 -0.0866  0.2148  0.2076
 2484DOPS   C4B29151  27.168   5.111  12.794 -0.1075  0.4242 -0.4067
 2485DOPE   NH329152  31.069   8.531  13.875 -0.1551 -0.1526  0.0220
 2485DOPE   PO429153  30.850   8.428  13.647  0.1493 -0.1128 -0.0435
 2485DOPE   GL129154  30.713   8.522  13.267  0.0281  0.0875 -0.2660
 2485DOPE   GL229155  30.946   8.631  13.145 -0.0951 -0.0282  0.2183
 2485DOPE   C1A29156  30.574   8.335  12.918  0.3525  0.2152 -0.0261
 2485DOPE   D2A29157  30.594   8.200  12.442 -0.2116  0.1027  0.0840
 2485DOPE   C3A29158  30.802   8.522  12.187 -0.3190 -0.0762 -0.1133
 2485DOPE   C4A29159  30.738   8.763  11.795  0.2743 -0.0102  0.0637
 2485DOPE   C1B29160  31.127   8.300  12.839 -0.2844 -0.1284 -0.0726
 2485DOPE   D2B29161  31.153   8.059  12.390 -0.1262  0.0190  0.2837
 2485DOPE   C3B29162  30.922   8.096  11.977  0.0549 -0.1477  0.0027
 2485DOPE   C4B29163  30.891   8.154  11.524 -0.0583 -0.1172 -0.2094
 2486DOPE   NH329164  29.032   5.429  13.894  0.1379 -0.0547  0.0036
 2486DOPE   PO429165  28.742   5.496  13.832 -0.2223  0.0827  0.1884
 2486DOPE   GL129166  28.677   5.601  13.492  0.2700  0.1149 -0.1100
 2486DOPE   GL229167  28.745   5.401  13.264  0.2266  0.2451  0.0423
 2486DOPE   C1A29168  28.506   5.860  13.160 -0.0406  0.0298 -0.0318
 2486DOPE   D2A29169  28.364   5.931  12.792 -0.0389 -0.0051  0.3770
 2486DOPE   C3A29170  28.503   6.299  12.539 -0.3046 -0.2013  0.1192
 2486DOPE   C4A29171  28.568   6.738  12.399  0.2802 -0.0514 -0.3875
 2486DOPE   C1B29172  28.453   5.379  12.969  0.0099 -0.1032 -0.0738
 2486DOPE   D2B29173  28.240   5.238  12.551  0.0843  0.0913 -0.1072
 2486DOPE   C3B29174  27.762   5.265  12.507 -0.3230  0.0563 -0.2622
 2486DOPE   C4B29175  27.382   5.083  12.302  0.0016  0.0532 -0.0368
 2487POSM   NC329176  24.750  34.359  13.287 -0.0824 -0.0381 -0.0461
 2487POSM   PO429177  24.456  34.131  13.298 -0.2851 -0.1117  0.0044
 2487POSM   AM129178  24.497  34.112  12.986 -0.2430  0.2514  0.1480
 2487POSM   AM229179  24.725  34.224  12.832  0.2038 -0.0452 -0.0185
 2487POSM   T1A29180  24.312  34.318  12.500  0.0965 -0.0930  0.0409
 2487POSM   C2A29181  24.235  34.513  12.079  0.2209 -0.2391  0.0997
 2487POSM   C3A29182  24.329  34.742  11.703  0.0281  0.1256 -0.0034
 2487POSM   C1B29183  24.750  34.492  12.578 -0.0133  0.5814 -0.3558
 2487POSM   D2B29184  24.954  34.786  12.288 -0.0177 -0.0178 -0.0149
 2487POSM   C3B29185  25.368  34.584  12.231 -0.3008  0.1997  0.1365
 2487POSM   C4B29186  25.506  34.152  12.070  0.1889  0.3103 -0.1029
 2488POSM   NC329187  24.991   5.075  13.572 -0.1220 -0.0614  0.0439
 2488POSM   PO429188  24.883   4.735  13.355  0.1352  0.1838 -0.0261
 2488POSM   AM129189  25.154   4.793  13.152 -0.1131 -0.1408 -0.0473
 2488POSM   AM229190  25.350   4.999  13.185 -0.2040  0.0664  0.2895
 2488POSM   T1A29191  25.448   4.744  12.739 -0.1260  0.1104 -0.2869
 2488POSM   C2A29192  25.554   4.672  12.307 -0.2025  0.2726 -0.2195
 2488POSM   C3A29193  25.236   4.796  12.058  0.1771 -0.2943 -0.0322
 2488POSM   C1B29194  25.558   5.145  12.960  0.0125  0.0199  0.1567
 2488POSM   D2B29195  25.985   5.309  12.895 -0.1382 -0.0402 -0.0580
 2488POSM   C3B29196  26.253   5.143  12.542 -0.0100 -0.2243 -0.1004
 2488POSM   C4B29197  26.438   5.337  12.166 -0.1951 -0.1005 -0.1416
 2489DOPC   NC329198  27.891   9.347  14.244  0.3391  0.0176 -0.1137
 2489DOPC   PO429199  27.849   9.052  13.932  0.0124  0.0567  0.2993
 2489DOPC   GL129200  27.745   9.289  13.560 -0.2060  0.1284 -0.3634
 2489DOPC   GL229201  28.070   9.252  13.406 -0.1017 -0.0622  0.1092
 2489DOPC   C1A29202  27.414   9.494  13.326 -0.0659 -0.0016  0.3057
 2489DOPC   D2A29203  27.242   9.886  13.132 -0.0726  0.3763 -0.0722
 2489DOPC   C3A29204  27.405   9.836  12.678  0.1113 -0.1371  0.2168
 2489DOPC   C4A29205  27.542   9.540  12.324  0.0808  0.0488 -0.2315
 2489DOPC   C1B29206  28.156   9.665  13.347  0.4172 -0.1523  0.1588
 2489DOPC   D2B29207  28.290   9.995  13.006 -0.0068  0.0989  0.0756
 2489DOPC   C3B29208  28.471   9.912  12.571  0.0517 -0.2644  0.3493
 2489DOPC   C4B29209  28.292   9.943  12.128 -0.1527  0.2215  0.2756
 2490DOPC   NC329210  27.046  10.806  13.552 -0.4508 -0.0085  0.2584
 2490DOPC   PO429211  27.069  10.433  13.694 -0.0316 -0.2592  0.3505
 2490DOPC   GL129212  27.286  10.415  13.337 -0.0741  0.0136 -0.0707
 2490DOPC   GL229213  27.519  10.239  13.289 -0.2062  0.0831 -0.0658
 2490DOPC   C1A29214  27.277  10.338  12.841  0.0983 -0.0075 -0.4097
 2490DOPC   D2A29215  27.599  10.275  12.484  0.4232 -0.2068  0.0771
 2490DOPC   C3A29216  27.835   9.985  12.198 -0.1378  0.4798 -0.3749
 2490DOPC   C4A29217  27.859  10.014  11.745  0.0724 -0.2880  0.0742
 2490DOPC   C1B29218  27.775   9.989  12.973  0.1923 -0.2341 -0.1552
 2490DOPC   D2B29219  28.006   9.742  12.596 -0.2467 -0.3025  0.1198
 2490DOPC   C3B29220  28.027   9.522  12.178 -0.1094  0.2322 -0.3450
 2490DOPC   C4B29221  27.915   9.228  11.867 -0.3734 -0.2315  0.0852
 2491POSM   NC329222  26.125  12.144  14.071 -0.1479  0.1091 -0.1659
 2491POSM   PO429223  25.898  12.472  14.198  0.0616  0.1203 -0.2882
 2491POSM   AM129224  25.842  12.623  13.926  0.3892  0.5547  0.0905
 2491POSM   AM229225  25.714  12.554  13.719  0.1919  0.1739  0.2380
 2491POSM   T1A29226  26.135  12.741  13.548  0.0400 -0.0080 -0.0867
 2491POSM   C2A29227  26.126  12.614  13.086  0.0330  0.0957  0.0431
 2491POSM   C3A29228  25.923  12.776  12.682  0.1394 -0.1825  0.1803
 2491POSM   C1B29229  25.718  12.513  13.366  0.0064  0.1299 -0.2078
 2491POSM   D2B29230  25.532  12.530  12.912 -0.2046 -0.0864  0.2462
 2491POSM   C3B29231  25.369  12.161  12.650  0.0894  0.2667  0.3052
 2491POSM   C4B29232  25.171  11.987  12.292  0.1003  0.1119 -0.0265
 2492DOPC   NC329233  34.795   3.125  13.970 -0.0950  0.0369 -0.0582
 2492DOPC   PO429234  34.569   2.817  14.140  0.2208 -0.1903 -0.3221
 2492DOPC   GL129235  34.331   2.853  13.683  0.2361  0.0355  0.2078
 2492DOPC   GL229236  34.306   3.125  13.788 -0.1893 -0.1281 -0.1077
 2492DOPC   C1A29237  34.298   2.967  13.231  0.0259 -0.3207 -0.1285
 2492DOPC   D2A29238  34.690   3.150  12.965  0.0024 -0.0716  0.0226
 2492DOPC   C3A29239  34.542   3.172  12.525  0.0068  0.0241 -0.0944
 2492DOPC   C4A29240  34.547   3.327  12.110 -0.1492  0.0556 -0.2868
 2492DOPC   C1B29241  34.165   3.423  13.477 -0.1451  0.2099  0.0766
 2492DOPC   D2B29242  34.006   3.386  13.076  0.4965  0.4882 -0.1670
 2492DOPC   C3B29243  33.751   3.598  12.777  0.1490  0.0888  0.0067
 2492DOPC   C4B29244  33.711   3.889  12.340  0.0869  0.0441 -0.0512
 2493POSM   NC329245  21.333   9.791  13.636  0.1917 -0.0695 -0.0467
 2493POSM   PO429246  21.714   9.705  13.632  0.0743 -0.0582  0.0112
 2493POSM   AM129247  21.768   9.738  13.327 -0.1494 -0.4697  0.0175
 2493POSM   AM229248  21.873   9.955  13.167 -0.0374  0.1864  0.0710
 2493POSM   T1A29249  21.646   9.431  12.962  0.1121  0.0138  0.0162
 2493POSM   C2A29250  21.504   9.489  12.505 -0.1941  0.0587  0.0205
 2493POSM   C3A29251  21.526   9.401  12.044 -0.3085 -0.0366  0.2789
 2493POSM   C1B29252  21.777   9.935  12.821 -0.0400 -0.0384 -0.3704
 2493POSM   D2B29253  21.816   9.840  12.326  0.1350  0.0840  0.1388
 2493POSM   C3B29254  22.162  10.127  12.181  0.2880  0.1210  0.0746
 2493POSM   C4B29255  22.648  10.026  12.176  0.1609  0.3545 -0.0131
 2494DOPC   NC329256  25.185   5.520  12.954  0.3134  0.0150  0.0655
 2494DOPC   PO429257  24.863   5.738  12.995 -0.1282  0.0977  0.0184
 2494DOPC   GL129258  24.910   5.754  12.521  0.1956  0.1497 -0.3845
 2494DOPC   GL229259  24.703   5.547  12.448 -0.2429  0.1739 -0.3696
 2494DOPC   C1A29260  25.266   5.684  12.243 -0.2508  0.0399  0.1086
 2494DOPC   D2A29261  25.603   5.515  11.988  0.0716  0.1346 -0.1790
 2494DOPC   C3A29262  25.835   5.571  11.617 -0.4679 -0.0887  0.0653
 2494DOPC   C4A29263  26.156   5.440  11.327  0.4074  0.0468  0.0764
 2494DOPC   C1B29264  24.444   5.436  12.066  0.0493 -0.1152  0.0046
 2494DOPC   D2B29265  24.120   5.359  11.751  0.0968 -0.0334 -0.1953
 2494DOPC   C3B29266  23.744   5.715  11.790  0.2633 -0.2646 -0.0259
 2494DOPC   C4B29267  23.272   5.709  11.833  0.1568 -0.4224 -0.4462
 2495POSM   NC329268  26.022  13.394  14.029 -0.1609 -0.1661 -0.0926
 2495POSM   PO429269  25.817  13.593  13.770 -0.0005  0.1240 -0.2186
 2495POSM   AM129270  25.648  13.710  13.514  0.0222 -0.0076 -0.5092
 2495POSM   AM229271  25.616  13.472  13.292 -0.2720  0.1455  0.2477
 2495POSM   T1A29272  25.211  13.826  13.361 -0.4141 -0.2863  0.2946
 2495POSM   C2A29273  24.945  13.989  13.079 -0.0009  0.0555  0.0119
 2495POSM   C3A29274  24.781  14.099  12.668  0.3493 -0.0473  0.1748
 2495POSM   C1B29275  25.377  13.534  13.048 -0.1551 -0.1467  0.0091
 2495POSM   D2B29276  25.218  13.822  12.696  0.1642  0.0777  0.0513
 2495POSM   C3B29277  24.983  13.788  12.326 -0.1189  0.2045 -0.0000
 2495POSM   C4B29278  24.693  13.654  12.022  0.1023 -0.0765  0.0233
 2496DOPE   NH329279  27.635   7.568  13.438  0.1075 -0.0259 -0.1810
 2496DOPE   PO429280  27.406   7.397  13.288  0.3752  0.2586  0.3037
 2496DOPE   GL129281  27.332   7.366  12.937 -0.0459 -0.2164 -0.2904
 2496DOPE   GL229282  27.417   7.079  12.870  0.0468 -0.1491  0.0729
 2496DOPE   C1A29283  26.975   7.383  12.596  0.0072 -0.1410 -0.3893
 2496DOPE   D2A29284  26.917   7.418  12.164  0.0365 -0.3012 -0.1007
 2496DOPE   C3A29285  27.043   7.338  11.722 -0.2613 -0.1282 -0.0110
 2496DOPE   C4A29286  27.324   7.041  11.526  0.3075  0.1396 -0.0693
 2496DOPE   C1B29287  27.443   7.338  12.382 -0.1802 -0.1103 -0.0422
 2496DOPE   D2B29288  27.593   7.297  11.922  0.0540 -0.1105  0.2375
 2496DOPE   C3B29289  27.465   7.515  11.564  0.2264 -0.0210 -0.1886
 2496DOPE   C4B29290  27.094   7.649  11.366 -0.1864  0.2551  0.0641
 2497DOPC   NC329291  33.354   0.792  13.815  0.0786  0.0314 -0.2040
 2497DOPC   PO429292  33.510   1.143  13.978  0.1218 -0.2228  0.0262
 2497DOPC   GL129293  33.689   1.317  13.553 -0.1343  0.0981  0.3175
 2497DOPC   GL229294  33.906   1.545  13.517  0.0316  0.2290 -0.0527
 2497DOPC   C1A29295  33.540   1.585  13.220  0.0092 -0.4141 -0.0071
 2497DOPC   D2A29296  33.816   1.931  12.988 -0.1325 -0.0839  0.1247
 2497DOPC   C3A29297  33.641   1.976  12.563  0.2716  0.0588 -0.1422
 2497DOPC   C4A29298  33.669   1.908  12.100 -0.1698  0.3152 -0.0008
 2497DOPC   C1B29299  34.108   1.475  13.081 -0.0369 -0.0754  0.0833
 2497DOPC   D2B29300  34.063   1.627  12.663  0.1136  0.0686  0.4050
 2497DOPC   C3B29301  34.115   2.052  12.489  0.2130 -0.0579 -0.1893
 2497DOPC   C4B29302  34.424   2.413  12.329  0.1801  0.0818  0.3105
 2498DOPC   NC329303  28.824   2.536  13.316 -0.1853 -0.3110  0.2273
 2498DOPC   PO429304  29.059   2.814  13.408  0.1513 -0.1227  0.2286
 2498DOPC   GL129305  29.300   2.664  13.066  0.0712  0.1455 -0.1166
 2498DOPC   GL229306  29.518   2.791  13.045 -0.0052 -0.0463 -0.2557
 2498DOPC   C1A29307  29.358   2.741  12.584 -0.0197 -0.0233  0.2914
 2498DOPC   D2A29308  29.747   2.616  12.256  0.0974 -0.0342 -0.1146
 2498DOPC   C3A29309  29.685   2.375  11.898 -0.1804 -0.1715  0.1202
 2498DOPC   C4A29310  29.278   2.372  11.730 -0.0869 -0.3164 -0.3259
 2498DOPC   C1B29311  29.805   2.695  12.768 -0.0907 -0.0772 -0.1535
 2498DOPC   D2B29312  30.052   2.382  12.531  0.1319 -0.2213 -0.0544
 2498DOPC   C3B29313  30.023   2.130  12.127  0.3666  0.1761 -0.0548
 2498DOPC   C4B29314  30.068   2.057  11.716  0.3669 -0.0866  0.2756
 2499DOPC   NC329315  29.000   6.673  14.193  0.2455 -0.0948  0.0822
 2499DOPC   PO429316  28.936   6.559  13.827  0.1470  0.1584 -0.1645
 2499DOPC   GL129317  28.990   6.254  13.546 -0.0620 -0.2293 -0.2658
 2499DOPC   GL229318  28.743   6.217  13.484  0.1058  0.1252  0.0528
 2499DOPC   C1A29319  29.059   5.838  13.321  0.1216 -0.2846  0.0803
 2499DOPC   D2A29320  28.940   5.642  12.883 -0.1506 -0.0901 -0.2085
 2499DOPC   C3A29321  29.036   5.916  12.482  0.0422  0.5240  0.0230
 2499DOPC   C4A29322  28.882   6.201  12.126 -0.1442  0.2822 -0.1129
 2499DOPC   C1B29323  28.468   6.339  13.139 -0.0873  0.1193  0.1368
 2499DOPC   D2B29324  28.390   6.679  12.849  0.0341 -0.3812 -0.0765
 2499DOPC   C3B29325  28.679   7.002  12.782  0.1883 -0.0741 -0.0039
 2499DOPC   C4B29326  28.941   7.108  12.439  0.4276 -0.0535 -0.1119
 2500DOPC   NC329327  31.717   8.521  14.605 -0.0161 -0.0454 -0.1439
 2500DOPC   PO429328  31.439   8.508  14.317 -0.1751  0.5831  0.3274
 2500DOPC   GL129329  31.680   8.710  14.115  0.2912 -0.1822  0.0349
 2500DOPC   GL229330  31.589   8.660  13.828  0.0211 -0.2429 -0.1471
 2500DOPC   C1A29331  31.922   9.047  13.944 -0.1747  0.0893  0.2549
 2500DOPC   D2A29332  32.040   9.438  13.670  0.2417 -0.4872 -0.1850
 2500DOPC   C3A29333  32.334   9.321  13.391  0.5427  0.0833 -0.1443
 2500DOPC   C4A29334  32.741   9.170  13.226 -0.1763  0.0154 -0.0662
 2500DOPC   C1B29335  31.933   8.407  13.606  0.2143 -0.0390  0.3014
 2500DOPC   D2B29336  32.161   8.352  13.256 -0.1892  0.1683 -0.2537
 2500DOPC   C3B29337  32.402   8.758  13.096 -0.1431  0.0479 -0.1181
 2500DOPC   C4B29338  32.329   9.089  12.862 -0.4206  0.0871 -0.1801
 2501DOPS   CNO29339  30.466   7.175  14.010 -0.2676 -0.0984  0.0925
 2501DOPS   PO429340  30.174   7.214  13.765  0.0445  0.2102 -0.0525
 2501DOPS   GL129341  30.079   7.129  13.397 -0.1028 -0.2345  0.1175
 2501DOPS   GL229342  30.079   7.400  13.286 -0.0945  0.1711  0.0670
 2501DOPS   C1A29343  29.593   7.061  13.289 -0.0868  0.1578  0.0468
 2501DOPS   D2A29344  29.133   6.984  13.146 -0.0245 -0.4373  0.3342
 2501DOPS   C3A29345  28.921   6.553  13.133 -0.2057 -0.3848 -0.0154
 2501DOPS   C4A29346  28.930   6.142  12.917  0.2480 -0.2677 -0.0494
 2501DOPS   C1B29347  30.227   7.736  12.950 -0.4724  0.2292 -0.3607
 2501DOPS   D2B29348  30.117   8.099  12.704  0.0641  0.0315  0.3312
 2501DOPS   C3B29349  29.841   7.967  12.385  0.1455  0.0025 -0.2107
 2501DOPS   C4B29350  29.508   7.875  12.024  0.2102 -0.1084  0.0550
 2502DOPC   NC329351  32.459   2.971  13.975  0.1751 -0.1391  0.0150
 2502DOPC   PO429352  32.386   2.971  13.585 -0.0764 -0.1642  0.0558
 2502DOPC   GL129353  32.736   3.042  13.267  0.1278 -0.3014  0.2234
 2502DOPC   GL229354  32.933   3.186  13.461 -0.0696 -0.2316 -0.0885
 2502DOPC   C1A29355  32.619   2.752  12.890 -0.0336 -0.0145 -0.2528
 2502DOPC   D2A29356  32.426   2.536  12.559 -0.1199  0.0652  0.3079
 2502DOPC   C3A29357  32.124   2.487  12.250 -0.3459 -0.2723  0.1554
 2502DOPC   C4A29358  31.943   2.256  11.874  0.2531  0.0786 -0.1142
 2502DOPC   C1B29359  33.238   3.032  13.170  0.0976 -0.2321  0.2036
 2502DOPC   D2B29360  33.337   3.240  12.749 -0.0884  0.5856 -0.2297
 2502DOPC   C3B29361  33.100   3.097  12.380 -0.0817  0.0831 -0.2094
 2502DOPC   C4B29362  32.991   2.979  11.931  0.0298  0.3401 -0.1404
 2503DOPS   CNO29363  27.953   7.992  13.274  0.3682  0.0449  0.1274
 2503DOPS   PO429364  28.143   8.266  13.475 -0.1120  0.1807  0.2187
 2503DOPS   GL129365  28.353   8.433  13.147 -0.0993 -0.4140  0.1654
 2503DOPS   GL229366  28.285   8.259  12.913 -0.0566 -0.1607  0.1389
 2503DOPS   C1A29367  28.500   8.903  13.015 -0.0693  0.3347  0.0822
 2503DOPS   D2A29368  28.828   9.230  12.855 -0.0028 -0.1271  0.2442
 2503DOPS   C3A29369  28.826   9.555  12.507 -0.3907 -0.2844 -0.1871
 2503DOPS   C4A29370  28.794   9.866  12.138 -0.1269  0.0053  0.0201
 2503DOPS   C1B29371  28.016   7.984  12.626  0.0968 -0.3113 -0.3563
 2503DOPS   D2B29372  27.879   7.689  12.295 -0.0151  0.1650 -0.1430
 2503DOPS   C3B29373  27.692   7.877  11.894 -0.1350 -0.0526  0.1382
 2503DOPS   C4B29374  27.494   8.013  11.481  0.2376  0.1126 -0.2460
 2504POSM   NC329375  34.313   2.430  14.273  0.2005 -0.4464  0.2048
 2504POSM   PO429376  34.167   2.108  14.132  0.0391 -0.3304  0.0680
 2504POSM   AM129377  34.199   2.223  13.835 -0.1301  0.2825 -0.1196
 2504POSM   AM229378  34.313   2.441  13.695 -0.3720  0.1679 -0.0416
 2504POSM   T1A29379  34.543   2.088  13.466  0.1955 -0.1686 -0.1135
 2504POSM   C2A29380  34.992   2.217  13.404  0.2766  0.1093  0.0250
 2504POSM   C3A29381  35.244   1.959  13.100 -0.1985  0.0058  0.1104
 2504POSM   C1B29382  34.168   2.485  13.420  0.3742 -0.1656 -0.0497
 2504POSM   D2B29383  34.062   2.428  12.989 -0.0263  0.1601 -0.2236
 2504POSM   C3B29384  34.300   2.763  12.720  0.2324 -0.4607  0.3437
 2504POSM   C4B29385  34.749   2.666  12.630  0.3955 -0.0150 -0.0509
 2505DOPS   CNO29386  29.829   5.868  13.671 -0.0862 -0.1565  0.0447
 2505DOPS   PO429387  29.752   5.530  13.741  0.0333  0.0296  0.2137
 2505DOPS   GL129388  29.818   5.518  13.351 -0.0225 -0.1529  0.0043
 2505DOPS   GL229389  29.582   5.654  13.234 -0.1637  0.1642 -0.3795
 2505DOPS   C1A29390  29.778   5.193  13.007  0.2515  0.1733 -0.2985
 2505DOPS   D2A29391  29.854   4.983  12.630  0.1165 -0.3452 -0.1815
 2505DOPS   C3A29392  29.780   5.213  12.248  0.1276 -0.0476  0.3251
 2505DOPS   C4A29393  29.771   5.635  12.040 -0.4737 -0.1659 -0.1099
 2505DOPS   C1B29394  29.813   5.568  12.769  0.0336  0.1564 -0.0476
 2505DOPS   D2B29395  30.083   5.658  12.396  0.2005 -0.2016  0.1934
 2505DOPS   C3B29396  30.154   6.044  12.168  0.0992 -0.0192  0.1713
 2505DOPS   C4B29397  30.135   6.479  11.963 -0.0015 -0.0932  0.3883
 2506DOPS   CNO29398  20.098   3.060  13.748  0.1900 -0.2200 -0.0697
 2506DOPS   PO429399  20.011   2.774  13.497 -0.0309 -0.3062  0.0439
 2506DOPS   GL129400  20.078   2.771  13.127 -0.3209 -0.0550 -0.1588
 2506DOPS   GL229401  20.392   2.809  13.160 -0.0127 -0.2162  0.1005
 2506DOPS   C1A29402  20.195   3.085  12.793 -0.1185  0.2073 -0.1167
 2506DOPS   D2A29403  20.397   3.185  12.432  0.0708  0.0549 -0.2260
 2506DOPS   C3A29404  20.212   3.177  12.028 -0.0547 -0.0138 -0.0969
 2506DOPS   C4A29405  20.167   3.251  11.559  0.1648 -0.0579  0.1110
 2506DOPS   C1B29406  20.723   2.863  12.838 -0.1080 -0.1817 -0.2603
 2506DOPS   D2B29407  20.837   3.056  12.454 -0.2247 -0.0865  0.0064
 2506DOPS   C3B29408  20.654   2.948  12.048 -0.2048  0.0851 -0.3437
 2506DOPS   C4B29409  20.619   3.112  11.613 -0.0253  0.0295 -0.2013
 2507DOPE   NH329410  26.108   4.584  13.537 -0.0387 -0.1284 -0.1018
 2507DOPE   PO429411  26.328   4.835  13.587 -0.1446  0.1040  0.3397
 2507DOPE   GL129412  26.352   4.932  13.197 -0.2347 -0.0537  0.0961
 2507DOPE   GL229413  26.470   5.175  13.070 -0.0468 -0.1697 -0.1679
 2507DOPE   C1A29414  26.040   4.757  12.870  0.0538 -0.2215  0.2030
 2507DOPE   D2A29415  26.017   4.474  12.478  0.1512 -0.1272 -0.2225
 2507DOPE   C3A29416  25.997   4.745  12.109 -0.2027  0.1216 -0.2754
 2507DOPE   C4A29417  25.867   5.127  11.946  0.1732 -0.4619  0.0996
 2507DOPE   C1B29418  26.691   5.157  12.618  0.3020  0.0259 -0.2966
 2507DOPE   D2B29419  26.901   5.328  12.289 -0.1587  0.1372 -0.1433
 2507DOPE   C3B29420  27.072   5.111  11.928  0.1461 -0.1480  0.2331
 2507DOPE   C4B29421  26.868   4.896  11.583  0.0496  0.1637  0.2069
 2508DOPE   NH329422  28.144   2.474  13.044 -0.0601  0.2062 -0.0681
 2508DOPE   PO429423  28.454   2.383  13.021 -0.1951  0.2263 -0.0203
 2508DOPE   GL129424  28.504   2.647  12.722  0.2228 -0.0891  0.2802
 2508DOPE   GL229425  28.470   2.494  12.463 -0.2728  0.1179  0.1016
 2508DOPE   C1A29426  28.376   3.010  12.490  0.2711 -0.0634 -0.2365
 2508DOPE   D2A29427  28.317   3.337  12.139 -0.0118 -0.2681 -0.1133
 2508DOPE   C3A29428  28.017   3.620  11.891 -0.1921  0.0977  0.0771
 2508DOPE   C4A29429  27.667   3.810  11.730  0.0357  0.4100 -0.0524
 2508DOPE   C1B29430  28.839   2.820  12.418 -0.0632  0.0539 -0.1010
 2508DOPE   D2B29431  28.865   3.213  12.285  0.0049  0.0755  0.1218
 2508DOPE   C3B29432  28.753   3.514  11.992  0.0777  0.0377  0.0859
 2508DOPE   C4B29433  28.478   3.754  11.748 -0.0576 -0.0026 -0.0662
 2509DOPE   NH329434  31.061   9.134  14.335 -0.6691  0.1563  0.1625
 2509DOPE   PO429435  31.242   8.966  14.107  0.1153 -0.0880 -0.1049
 2509DOPE   GL129436  31.437   9.081  13.827  0.0443 -0.0350 -0.3667
 2509DOPE   GL229437  31.361   9.353  13.726  0.3890  0.1261 -0.2776
 2509DOPE   C1A29438  31.429   8.891  13.407 -0.0096 -0.2760  0.1283
 2509DOPE   D2A29439  31.375   8.912  12.971 -0.2472 -0.1326 -0.1877
 2509DOPE   C3A29440  31.699   9.093  12.658 -0.2487 -0.1976 -0.2282
 2509DOPE   C4A29441  31.823   9.368  12.289  0.0740 -0.0022  0.1498
 2509DOPE   C1B29442  31.628   9.349  13.359  0.0534  0.0029  0.0740
 2509DOPE   D2B29443  31.796   9.465  12.908 -0.0311 -0.2340 -0.1180
 2509DOPE   C3B29444  31.590   9.685  12.526  0.1629 -0.0691 -0.2264
 2509DOPE   C4B29445  31.227   9.922  12.308  0.1079  0.2996 -0.1179
 2510DOPC   NC329446  27.307   7.855  13.226 -0.0553 -0.1177  0.2470
 2510DOPC   PO429447  27.355   8.102  13.513  0.1541  0.0402  0.0682
 2510DOPC   GL129448  27.438   8.287  13.152 -0.1269  0.0102  0.1555
 2510DOPC   GL229449  27.716   8.464  13.156 -0.0468  0.1748  0.3253
 2510DOPC   C1A29450  27.174   8.548  12.880  0.2698 -0.3099  0.0378
 2510DOPC   D2A29451  26.825   8.591  12.609  0.1857 -0.1300  0.2561
 2510DOPC   C3A29452  26.672   8.531  12.169  0.2563 -0.1404 -0.0094
 2510DOPC   C4A29453  26.738   8.569  11.748 -0.2087 -0.1696 -0.2113
 2510DOPC   C1B29454  27.573   8.238  12.757  0.0830  0.3809 -0.1945
 2510DOPC   D2B29455  27.602   8.217  12.326 -0.0071  0.1454  0.0104
 2510DOPC   C3B29456  27.952   8.325  12.137 -0.1101  0.2850 -0.3335
 2510DOPC   C4B29457  28.093   8.679  11.919 -0.2927 -0.0102  0.0030
 2511DOPC   NC329458   1.726   3.464  14.424  0.3067  0.0694  0.0363
 2511DOPC   PO429459   1.471   3.198  14.415  0.1015 -0.1196  0.1902
 2511DOPC   GL129460   1.172   3.311  14.068  0.0026  0.1864 -0.0713
 2511DOPC   GL229461   1.347   3.476  13.937  0.1063  0.3187  0.1841
 2511DOPC   C1A29462   1.082   3.124  13.645  0.1770  0.0543  0.1706
 2511DOPC   D2A29463   0.967   3.064  13.223 -0.1526  0.0026 -0.0438
 2511DOPC   C3A29464   0.639   2.995  12.938  0.3154  0.0359  0.1172
 2511DOPC   C4A29465   0.410   2.898  12.555  0.2145  0.3073 -0.2445
 2511DOPC   C1B29466   1.506   3.430  13.523 -0.0280  0.0853  0.0345
 2511DOPC   D2B29467   1.666   3.161  13.187  0.1796 -0.2090  0.0123
 2511DOPC   C3B29468   1.870   2.806  13.159 -0.1101 -0.1388  0.1904
 2511DOPC   C4B29469   1.755   2.326  13.126 -0.2176  0.0677 -0.0956
 2512POSM   NC329470  25.537   6.877  13.475  0.2064 -0.0757  0.1414
 2512POSM   PO429471  25.867   6.681  13.460  0.2306  0.1808 -0.1525
 2512POSM   AM129472  25.940   6.782  13.176 -0.2389  0.1459  0.3629
 2512POSM   AM229473  26.098   6.694  12.939  0.2771 -0.4603  0.0958
 2512POSM   T1A29474  25.738   7.063  12.791  0.0360  0.1709 -0.1318
 2512POSM   C2A29475  25.873   7.490  12.601 -0.2058 -0.2391  0.0018
 2512POSM   C3A29476  25.727   7.796  12.234 -0.0719  0.3261  0.1068
 2512POSM   C1B29477  25.911   6.553  12.647  0.0868 -0.1720  0.1394
 2512POSM   D2B29478  26.085   6.261  12.371  0.1320 -0.0521  0.1507
 2512POSM   C3B29479  26.525   6.194  12.224  0.2736  0.2488  0.1166
 2512POSM   C4B29480  26.930   5.869  12.283  0.0203 -0.0789 -0.1857
 2513POSM   NC329481  25.247  12.660  14.120  0.0798  0.1182  0.0502
 2513POSM   PO429482  25.230  12.708  13.709  0.1629  0.0194 -0.2820
 2513POSM   AM129483  25.427  12.839  13.452 -0.1570  0.0077 -0.0183
 2513POSM   AM229484  25.351  13.000  13.275 -0.1804  0.0695 -0.2068
 2513POSM   T1A29485  25.822  12.978  13.193  0.1066  0.5900  0.2880
 2513POSM   C2A29486  25.783  13.256  12.797 -0.1562  0.2357  0.1092
 2513POSM   C3A29487  26.070  13.408  12.433 -0.2769  0.2113 -0.1873
 2513POSM   C1B29488  25.408  12.998  12.966 -0.2976 -0.2699 -0.1521
 2513POSM   D2B29489  25.484  12.925  12.491  0.0478 -0.0092 -0.0247
 2513POSM   C3B29490  25.426  12.519  12.291  0.2453 -0.1418  0.2120
 2513POSM   C4B29491  25.523  12.336  11.859  0.1102 -0.1243 -0.0788
 2514DOPE   NH329492  25.487   3.706  12.975 -0.0902 -0.0065 -0.0241
 2514DOPE   PO429493  25.705   3.926  13.130 -0.2827 -0.0270  0.2153
 2514DOPE   GL129494  25.980   3.922  12.858 -0.1319  0.0366 -0.0737
 2514DOPE   GL229495  25.962   3.767  12.596  0.1443 -0.1083  0.0079
 2514DOPE   C1A29496  26.354   4.118  12.672 -0.2237 -0.0644 -0.0298
 2514DOPE   D2A29497  26.883   4.238  12.597 -0.2132  0.1478 -0.1612
 2514DOPE   C3A29498  27.334   4.186  12.416  0.1347  0.0292  0.0025
 2514DOPE   C4A29499  27.779   4.297  12.493 -0.3326  0.2035 -0.2328
 2514DOPE   C1B29500  26.090   3.988  12.220  0.0813 -0.3052  0.1107
 2514DOPE   D2B29501  25.963   4.351  11.860 -0.1078  0.1220 -0.2918
 2514DOPE   C3B29502  26.214   4.672  11.690  0.4126  0.2500 -0.1732
 2514DOPE   C4B29503  26.326   5.066  11.765 -0.2256 -0.1984  0.0804
 2515DOPE   NH329504  20.814   4.937  13.782 -0.0554 -0.1297 -0.2357
 2515DOPE   PO429505  21.035   4.941  13.539 -0.4179  0.0058  0.0467
 2515DOPE   GL129506  21.364   4.967  13.242 -0.1416  0.3048  0.4055
 2515DOPE   GL229507  21.158   4.870  13.054 -0.2005  0.1689 -0.0751
 2515DOPE   C1A29508  21.687   4.998  12.898  0.0264 -0.2436  0.1552
 2515DOPE   D2A29509  22.128   5.142  12.910 -0.2610 -0.0911  0.0851
 2515DOPE   C3A29510  22.347   5.554  12.796  0.0039  0.0479 -0.2031
 2515DOPE   C4A29511  22.249   5.978  12.595  0.3061  0.1931 -0.1479
 2515DOPE   C1B29512  21.283   4.877  12.567  0.1223  0.0343  0.4605
 2515DOPE   D2B29513  21.443   4.592  12.223 -0.1632  0.0060  0.1308
 2515DOPE   C3B29514  21.512   4.186  12.020  0.0448  0.3263 -0.0459
 2515DOPE   C4B29515  21.873   4.028  11.742  0.0530  0.1515 -0.1277
 2516DOPE   NH329516  27.412  14.294  14.079  0.1127 -0.2129 -0.1732
 2516DOPE   PO429517  27.220  14.067  14.065  0.3331  0.0302  0.5296
 2516DOPE   GL129518  27.471  13.986  13.686 -0.3529  0.2812 -0.2249
 2516DOPE   GL229519  27.263  13.764  13.650 -0.1893  0.2090  0.0928
 2516DOPE   C1A29520  27.351  14.163  13.322  0.0139  0.0036 -0.3472
 2516DOPE   D2A29521  27.179  14.104  12.910 -0.0469  0.4124  0.0053
 2516DOPE   C3A29522  27.460  14.012  12.545  0.1324  0.1313 -0.0052
 2516DOPE   C4A29523  27.868  14.109  12.340 -0.0660  0.2354  0.2401
 2516DOPE   C1B29524  27.584  13.734  13.342  0.0896  0.0439 -0.0039
 2516DOPE   D2B29525  27.590  13.652  12.881  0.1507  0.0540 -0.0428
 2516DOPE   C3B29526  27.908  13.309  12.709  0.0502  0.1448  0.1059
 2516DOPE   C4B29527  28.095  12.924  12.567  0.3375 -0.0024  0.3356
 2517DOPC   NC329528  24.371   0.280  13.213 -0.0695  0.0019 -0.2967
 2517DOPC   PO429529  23.973   0.218  13.121 -0.1436  0.2499  0.0283
 2517DOPC   GL129530  24.102   0.170  12.768  0.0857 -0.1272  0.1492
 2517DOPC   GL229531  24.242   0.440  12.719  0.1399  0.0440 -0.0998
 2517DOPC   C1A29532  23.923   0.029  12.393  0.0578 -0.0640 -0.0722
 2517DOPC   D2A29533  23.979   0.270  11.959  0.1281  0.3872  0.0688
 2517DOPC   C3A29534  23.791   0.614  11.743 -0.1198 -0.1767 -0.0522
 2517DOPC   C4A29535  23.892   1.028  11.517 -0.1416 -0.1235  0.1649
 2517DOPC   C1B29536  24.447   0.663  12.358 -0.3221 -0.0800  0.2398
 2517DOPC   D2B29537  24.406   0.633  11.934  0.1797 -0.1001 -0.3957
 2517DOPC   C3B29538  24.217   0.400  11.580  0.1954  0.1808  0.1243
 2517DOPC   C4B29539  23.949   0.622  11.235  0.0416 -0.0035  0.0277
 2518DOPC   NC329540  24.935   8.861  13.359 -0.3519  0.0219 -0.1520
 2518DOPC   PO429541  25.222   8.698  13.530  0.1057 -0.2056 -0.0993
 2518DOPC   GL129542  25.331   8.644  13.154 -0.1279 -0.2026  0.4395
 2518DOPC   GL229543  25.572   8.836  13.160  0.1447  0.1647  0.1116
 2518DOPC   C1A29544  25.036   8.783  12.813 -0.2770 -0.1811  0.0046
 2518DOPC   D2A29545  25.070   8.906  12.326 -0.2568  0.0414 -0.2126
 2518DOPC   C3A29546  25.387   8.722  12.012 -0.0370  0.1397  0.3044
 2518DOPC   C4A29547  25.764   8.694  11.786  0.1407  0.0552 -0.1795
 2518DOPC   C1B29548  25.261   9.181  13.077  0.0475  0.0528 -0.1911
 2518DOPC   D2B29549  24.947   9.501  13.194  0.0553 -0.0192 -0.1954
 2518DOPC   C3B29550  24.743   9.752  12.864  0.2729  0.0778 -0.4801
 2518DOPC   C4B29551  24.536   9.728  12.434  0.0083  0.2317  0.0512
 2519POSM   NC329552  26.149   1.937  12.846  0.0675 -0.2633 -0.3128
 2519POSM   PO429553  26.514   1.910  12.942  0.0678 -0.1045  0.1339
 2519POSM   AM129554  26.610   1.861  12.674 -0.1096  0.1228 -0.1519
 2519POSM   AM229555  26.552   1.728  12.408  0.1358  0.2699 -0.0794
 2519POSM   T1A29556  27.027   1.881  12.345 -0.0041  0.1013 -0.1706
 2519POSM   C2A29557  27.294   1.794  12.017 -0.0020  0.0753 -0.0472
 2519POSM   C3A29558  27.613   1.771  11.691 -0.1224 -0.1435 -0.0908
 2519POSM   C1B29559  26.580   1.659  12.057 -0.2922  0.1354 -0.1133
 2519POSM   D2B29560  26.729   1.656  11.634 -0.1957 -0.1184  0.3833
 2519POSM   C3B29561  27.073   1.895  11.491  0.1024 -0.1588  0.3405
 2519POSM   C4B29562  27.266   2.302  11.402  0.1534 -0.3128  0.0219
 2520DOPC   NC329563  27.796   8.737  13.575  0.1230 -0.0898  0.0874
 2520DOPC   PO429564  27.410   8.725  13.547 -0.3929 -0.1456 -0.1170
 2520DOPC   GL129565  27.426   8.813  13.138 -0.2940  0.5110 -0.4530
 2520DOPC   GL229566  27.621   9.037  13.197  0.0887 -0.3893  0.0200
 2520DOPC   C1A29567  27.591   8.728  12.695  0.0891  0.1637  0.1325
 2520DOPC   D2A29568  28.010   8.572  12.636 -0.2889 -0.1884  0.2536
 2520DOPC   C3A29569  28.475   8.650  12.533  0.0069 -0.0159 -0.1532
 2520DOPC   C4A29570  28.871   8.899  12.500  0.1470 -0.0281 -0.2920
 2520DOPC   C1B29571  27.983   8.903  13.045 -0.2535  0.1656 -0.0955
 2520DOPC   D2B29572  28.140   9.092  12.673 -0.2619  0.0739  0.0318
 2520DOPC   C3B29573  27.947   8.947  12.280  0.0157  0.0786 -0.2022
 2520DOPC   C4B29574  27.617   8.739  12.020  0.5316 -0.4185 -0.2331
 2521DOPE   NH329575  33.647   3.443  14.316  0.0446 -0.0583  0.2297
 2521DOPE   PO429576  33.712   3.173  14.162  0.5635 -0.0378 -0.0472
 2521DOPE   GL129577  33.832   3.232  13.737 -0.3851  0.0769 -0.0104
 2521DOPE   GL229578  33.867   2.942  13.635 -0.0728 -0.0490 -0.1018
 2521DOPE   C1A29579  33.610   3.257  13.323 -0.0864 -0.0764 -0.0478
 2521DOPE   D2A29580  33.453   3.624  13.206  0.1698 -0.1306 -0.1024
 2521DOPE   C3A29581  33.349   3.833  12.780  0.0705 -0.1535  0.4872
 2521DOPE   C4A29582  33.220   4.238  12.476  0.0263  0.1563  0.0267
 2521DOPE   C1B29583  33.779   2.761  13.216  0.0150  0.3354 -0.1143
 2521DOPE   D2B29584  33.779   2.868  12.796  0.3543 -0.2290 -0.0791
 2521DOPE   C3B29585  33.867   2.555  12.500  0.1073  0.1120  0.0485
 2521DOPE   C4B29586  34.026   2.305  12.117 -0.1289 -0.0536 -0.2266
 2522DOPC   NC329587  26.143   9.007  13.739 -0.0476 -0.0271  0.0372
 2522DOPC   PO429588  26.545   9.108  13.798  0.0011 -0.0867 -0.1727
 2522DOPC   GL129589  26.617   9.184  13.428 -0.2196  0.0365  0.0125
 2522DOPC   GL229590  26.423   9.374  13.393  0.0039 -0.2116 -0.0051
 2522DOPC   C1A29591  27.027   9.191  13.167 -0.1347  0.0591  0.2147
 2522DOPC   D2A29592  27.194   9.058  12.763 -0.1946 -0.0317  0.0191
 2522DOPC   C3A29593  27.608   9.268  12.722  0.0367 -0.2242 -0.0648
 2522DOPC   C4A29594  27.876   9.485  13.026 -0.1768 -0.0898  0.2940
 2522DOPC   C1B29595  26.309   9.552  12.962  0.0502 -0.0461 -0.2478
 2522DOPC   D2B29596  26.500   9.675  12.602  0.0779  0.2642 -0.1119
 2522DOPC   C3B29597  26.580  10.118  12.412 -0.1954 -0.2555  0.0594
 2522DOPC   C4B29598  26.518  10.504  12.223  0.1130 -0.1582 -0.1352
 2523DOPE   NH329599  24.910   7.730  13.739 -0.0825  0.0194 -0.0080
 2523DOPE   PO429600  24.780   7.961  13.560  0.1034 -0.1598 -0.1725
 2523DOPE   GL129601  24.642   8.143  13.329  0.4135 -0.2920  0.1251
 2523DOPE   GL229602  24.345   8.262  13.384 -0.1552  0.0376  0.1843
 2523DOPE   C1A29603  24.584   8.201  12.847  0.1850 -0.2788 -0.2243
 2523DOPE   D2A29604  24.755   8.076  12.477 -0.1989  0.0366 -0.0366
 2523DOPE   C3A29605  24.499   8.099  12.106  0.0045 -0.0498  0.1410
 2523DOPE   C4A29606  24.610   8.290  11.711  0.1494  0.0711  0.2111
 2523DOPE   C1B29607  24.095   8.344  13.012  0.4107 -0.0549  0.0476
 2523DOPE   D2B29608  23.985   8.248  12.541  0.1154  0.1734 -0.0659
 2523DOPE   C3B29609  24.014   8.351  12.101  0.1775  0.3019 -0.0466
 2523DOPE   C4B29610  23.956   8.544  11.695 -0.0107  0.1088  0.0397
 2524DOPE   NH329611  30.617   1.149  13.585  0.1288  0.3154 -0.2065
 2524DOPE   PO429612  30.461   1.283  13.341  0.0646 -0.1480  0.1885
 2524DOPE   GL129613  30.533   1.286  13.026 -0.0385 -0.0758 -0.0645
 2524DOPE   GL229614  30.489   1.545  12.893  0.1337 -0.0225 -0.3756
 2524DOPE   C1A29615  30.518   1.108  12.584 -0.0279 -0.2589  0.0047
 2524DOPE   D2A29616  30.697   0.755  12.431 -0.2350 -0.0124  0.0507
 2524DOPE   C3A29617  30.841   0.577  12.017 -0.0133 -0.0416  0.3124
 2524DOPE   C4A29618  30.825   0.302  11.678  0.2063  0.0490  0.0517
 2524DOPE   C1B29619  30.712   1.622  12.529  0.0936  0.1371  0.2075
 2524DOPE   D2B29620  30.586   1.508  12.101 -0.1587  0.1656  0.5247
 2524DOPE   C3B29621  30.571   1.824  11.762 -0.1301 -0.0136  0.1131
 2524DOPE   C4B29622  30.533   2.079  11.364 -0.0502 -0.0839  0.1777
 2525DOPC   NC329623  27.720   4.898  13.536 -0.2214  0.1823  0.2062
 2525DOPC   PO429624  27.340   4.766  13.604 -0.0247 -0.0940  0.2839
 2525DOPC   GL129625  27.406   4.977  13.227  0.1618 -0.0943 -0.1065
 2525DOPC   GL229626  27.493   4.704  13.074 -0.0150 -0.2482  0.1523
 2525DOPC   C1A29627  27.556   5.406  12.990  0.2020 -0.0813 -0.0824
 2525DOPC   D2A29628  27.300   5.607  12.578 -0.3279 -0.0014  0.0542
 2525DOPC   C3A29629  27.294   5.591  12.079  0.3115 -0.2817  0.0381
 2525DOPC   C4A29630  27.027   5.674  11.701  0.2081  0.1478 -0.3543
 2525DOPC   C1B29631  27.349   4.623  12.654 -0.2079 -0.0134 -0.1011
 2525DOPC   D2B29632  27.007   4.821  12.399  0.3866  0.1785  0.2784
 2525DOPC   C3B29633  26.975   4.382  12.141 -0.0293  0.2311 -0.1691
 2525DOPC   C4B29634  27.193   3.999  11.960 -0.0889  0.0489  0.3141
 2526DOPC   NC329635  27.815   5.947  13.786 -0.0724  0.1567  0.0119
 2526DOPC   PO429636  28.061   6.232  13.819  0.3153 -0.0076  0.2399
 2526DOPC   GL129637  28.090   6.293  13.469  0.0408 -0.1411 -0.1009
 2526DOPC   GL229638  28.029   6.059  13.337  0.0049 -0.1091  0.0151
 2526DOPC   C1A29639  28.025   6.663  13.217 -0.2002  0.1464 -0.3852
 2526DOPC   D2A29640  27.885   6.778  12.814  0.0776 -0.1190 -0.0795
 2526DOPC   C3A29641  28.078   6.621  12.400 -0.1267 -0.0290 -0.2149
 2526DOPC   C4A29642  28.302   6.387  12.068 -0.0711  0.3418  0.0690
 2526DOPC   C1B29643  28.000   5.631  13.176 -0.2532  0.1593 -0.1578
 2526DOPC   D2B29644  28.016   5.188  13.038 -0.1863 -0.0942 -0.3274
 2526DOPC   C3B29645  27.863   4.847  12.753 -0.0125  0.0789 -0.1198
 2526DOPC   C4B29646  27.835   4.784  12.285 -0.1079  0.1139  0.1755
 2527DOPC   NC329647   1.893   6.476  15.222  0.0920 -0.0891  0.2648
 2527DOPC   PO429648   1.550   6.486  15.027  0.4048 -0.3068 -0.1079
 2527DOPC   GL129649   1.463   6.696  14.759 -0.0877 -0.0376 -0.1893
 2527DOPC   GL229650   1.716   6.716  14.620  0.2614  0.4318 -0.3886
 2527DOPC   C1A29651   1.167   6.779  14.458 -0.0073 -0.0965  0.2187
 2527DOPC   D2A29652   0.966   7.051  14.157  0.0265 -0.0962  0.3718
 2527DOPC   C3A29653   1.065   6.902  13.703 -0.0664  0.1270 -0.3620
 2527DOPC   C4A29654   1.182   6.695  13.319 -0.0647  0.3397 -0.1008
 2527DOPC   C1B29655   1.736   7.148  14.302  0.2138  0.1108  0.1114
 2527DOPC   D2B29656   1.542   7.170  13.901  0.0474  0.1014 -0.1110
 2527DOPC   C3B29657   1.586   7.459  13.572 -0.3487  0.0554 -0.0591
 2527DOPC   C4B29658   1.879   7.777  13.377 -0.0000 -0.2397 -0.2278
 2528DOPC   NC329659  23.208   0.762  13.312 -0.0939 -0.4993  0.1649
 2528DOPC   PO429660  23.579   0.675  13.169  0.0804 -0.2437  0.0137
 2528DOPC   GL129661  23.595   0.598  12.752  0.3311 -0.1836 -0.1477
 2528DOPC   GL229662  23.726   0.410  12.667 -0.0733 -0.0118 -0.2128
 2528DOPC   C1A29663  23.422   0.730  12.326 -0.0584 -0.0914 -0.1420
 2528DOPC   D2A29664  23.565   0.966  11.984 -0.1205  0.1258  0.1891
 2528DOPC   C3A29665  23.300   1.169  11.697 -0.0360 -0.0309  0.2489
 2528DOPC   C4A29666  23.033   1.315  11.310  0.0157 -0.2066 -0.0981
 2528DOPC   C1B29667  23.967   0.617  12.314 -0.2881  0.1002  0.0609
 2528DOPC   D2B29668  24.036   1.005  12.060 -0.0561 -0.2454  0.3430
 2528DOPC   C3B29669  24.393   1.210  11.839 -0.1916 -0.0716  0.0097
 2528DOPC   C4B29670  24.573   1.321  11.413  0.5475 -0.1820 -0.1424
 2529DOPC   NC329671  31.487   4.980  13.810  0.5183 -0.1776 -0.0758
 2529DOPC   PO429672  31.114   5.061  13.786  0.0632 -0.0819  0.0053
 2529DOPC   GL129673  30.832   5.316  13.577 -0.0629  0.0555  0.2054
 2529DOPC   GL229674  30.601   5.391  13.502 -0.0791 -0.2594  0.1106
 2529DOPC   C1A29675  30.979   5.704  13.338  0.0602 -0.0450  0.1479
 2529DOPC   D2A29676  30.939   5.944  12.949  0.0990 -0.0035  0.3727
 2529DOPC   C3A29677  30.988   5.674  12.590  0.1270  0.2315  0.1492
 2529DOPC   C4A29678  31.231   5.345  12.505 -0.1096 -0.1170  0.1100
 2529DOPC   C1B29679  30.630   5.574  13.036 -0.0241 -0.2629  0.1674
 2529DOPC   D2B29680  30.752   5.264  12.693  0.0754  0.2089  0.2731
 2529DOPC   C3B29681  30.625   5.380  12.273 -0.1153 -0.0779 -0.1451
 2529DOPC   C4B29682  30.243   5.364  12.040 -0.2225  0.0856  0.1924
 2530DOPE   NH329683  34.002   6.160  14.559  0.2973 -0.1109  0.3092
 2530DOPE   PO429684  34.144   5.907  14.611  0.1068  0.2110  0.1454
 2530DOPE   GL129685  34.344   5.881  14.331  0.1267 -0.0927  0.2648
 2530DOPE   GL229686  34.465   5.644  14.263  0.0621 -0.0359  0.0230
 2530DOPE   C1A29687  34.477   6.188  14.055 -0.0761 -0.1251 -0.4165
 2530DOPE   D2A29688  34.677   6.370  13.671  0.2688 -0.1556  0.2226
 2530DOPE   C3A29689  35.032   6.346  13.417 -0.1132 -0.2735  0.2408
 2530DOPE   C4A29690  35.153   6.465  12.997  0.1523 -0.1120 -0.1790
 2530DOPE   C1B29691  34.381   5.549  13.782 -0.1712  0.1513  0.5428
 2530DOPE   D2B29692  34.210   5.429  13.376 -0.2554 -0.1996 -0.2926
 2530DOPE   C3B29693  34.321   5.509  12.935  0.6729  0.2794  0.2481
 2530DOPE   C4B29694  34.589   5.731  12.602  0.0397  0.0115 -0.1649
 2531DOPE   NH329695  30.987   7.235  14.137 -0.2416 -0.1898 -0.1666
 2531DOPE   PO429696  30.964   7.428  13.873 -0.2210  0.1100 -0.0585
 2531DOPE   GL129697  31.180   7.331  13.477  0.0838 -0.2688 -0.1357
 2531DOPE   GL229698  31.064   7.589  13.345 -0.0209 -0.0207 -0.2215
 2531DOPE   C1A29699  30.994   7.258  13.049 -0.1680 -0.0782  0.0257
 2531DOPE   D2A29700  31.016   7.072  12.592  0.3654 -0.0489  0.0793
 2531DOPE   C3A29701  30.642   6.837  12.675 -0.1270  0.0219 -0.2036
 2531DOPE   C4A29702  30.268   6.616  12.826 -0.0461 -0.1799 -0.1264
 2531DOPE   C1B29703  31.444   7.407  13.119  0.0956 -0.1107  0.0256
 2531DOPE   D2B29704  31.910   7.519  13.063  0.0118  0.0659  0.1663
 2531DOPE   C3B29705  32.042   7.423  12.652 -0.2443  0.2589 -0.1045
 2531DOPE   C4B29706  32.009   6.978  12.481 -0.2294  0.1907 -0.0320
 2532POSM   NC329707  30.834  10.110  14.686 -0.1889 -0.0171  0.0787
 2532POSM   PO429708  31.061  10.158  14.399  0.0573  0.1635 -0.2685
 2532POSM   AM129709  31.138  10.015  14.111 -0.1546 -0.1017  0.1368
 2532POSM   AM229710  31.035   9.757  13.948  0.0342  0.1724 -0.0925
 2532POSM   T1A29711  31.232  10.205  13.641 -0.3370  0.1794  0.0380
 2532POSM   C2A29712  31.526  10.195  13.288 -0.0797  0.0668 -0.0862
 2532POSM   C3A29713  31.581  10.053  12.884  0.1997  0.3433  0.2464
 2532POSM   C1B29714  30.997   9.762  13.594  0.0803 -0.0230 -0.0815
 2532POSM   D2B29715  30.859   9.686  13.092 -0.1392  0.0813  0.0150
 2532POSM   C3B29716  30.644  10.019  12.893  0.1133  0.1468 -0.1945
 2532POSM   C4B29717  30.614  10.498  12.872  0.0326  0.3802 -0.2809
 2533DOPC   NC329718  30.590   1.726  13.489  0.0974 -0.2194 -0.1312
 2533DOPC   PO429719  30.941   1.825  13.383 -0.2106  0.2546  0.1164
 2533DOPC   GL129720  31.046   1.989  13.027 -0.0854  0.2355 -0.1224
 2533DOPC   GL229721  30.953   2.285  13.063 -0.1814 -0.0377 -0.2309
 2533DOPC   C1A29722  31.156   2.041  12.564 -0.1211 -0.1778  0.1375
 2533DOPC   D2A29723  31.178   1.607  12.329  0.1293 -0.0551  0.0208
 2533DOPC   C3A29724  31.067   1.519  11.849  0.1690 -0.1707 -0.0104
 2533DOPC   C4A29725  30.815   1.422  11.460  0.2645  0.2480  0.4833
 2533DOPC   C1B29726  31.324   2.370  12.857 -0.2003  0.1959  0.0877
 2533DOPC   D2B29727  31.564   2.352  12.430  0.2184  0.4398 -0.0009
 2533DOPC   C3B29728  31.977   2.047  12.462  0.0537  0.2873  0.2342
 2533DOPC   C4B29729  32.208   1.725  12.665  0.0833 -0.4000  0.0689
 2534POSM   NC329730  26.479   2.643  13.130  0.1093  0.0712  0.0178
 2534POSM   PO429731  26.232   2.363  13.082  0.4062 -0.3632  0.2213
 2534POSM   AM129732  26.278   2.333  12.763 -0.0590  0.2604 -0.0026
 2534POSM   AM229733  26.524   2.294  12.622 -0.0223 -0.2305  0.1584
 2534POSM   T1A29734  26.131   2.422  12.305  0.1159 -0.2572 -0.1904
 2534POSM   C2A29735  25.817   2.253  12.025  0.0442  0.0708 -0.2455
 2534POSM   C3A29736  25.703   2.002  11.651 -0.1002 -0.0097 -0.1264
 2534POSM   C1B29737  26.699   2.222  12.339  0.1753  0.2587 -0.0759
 2534POSM   D2B29738  26.874   2.140  11.933 -0.3188  0.3232 -0.2251
 2534POSM   C3B29739  26.677   2.193  11.518  0.0027  0.1420  0.0557
 2534POSM   C4B29740  26.396   2.376  11.120 -0.0256  0.2916 -0.0082
 2535POSM   NC329741  24.859  14.331  13.710 -0.0525 -0.0990  0.0283
 2535POSM   PO429742  25.196  14.383  13.593 -0.0059  0.0097 -0.1497
 2535POSM   AM129743  25.381  14.244  13.399  0.0595  0.0670 -0.6170
 2535POSM   AM229744  25.681  14.234  13.506 -0.2918 -0.2013  0.1638
 2535POSM   T1A29745  25.665  13.957  13.112  0.2698 -0.2401 -0.0551
 2535POSM   C2A29746  25.717  13.844  12.716  0.0525 -0.1221 -0.2422
 2535POSM   C3A29747  25.507  13.862  12.282 -0.0900  0.1366 -0.1139
 2535POSM   C1B29748  25.745  14.443  13.237 -0.3533 -0.0635 -0.1094
 2535POSM   D2B29749  25.650  14.506  12.806  0.0581 -0.0952 -0.4000
 2535POSM   C3B29750  25.380  14.822  12.624 -0.2100 -0.2816 -0.0524
 2535POSM   C4B29751  25.457  15.209  12.356 -0.1753 -0.3695 -0.2304
 2536DOPS   CNO29752  29.636   7.588  13.535 -0.1661  0.0342  0.1788
 2536DOPS   PO429753  29.343   7.877  13.620 -0.0043 -0.0491 -0.1135
 2536DOPS   GL129754  29.334   7.958  13.229 -0.0112  0.0325  0.2115
 2536DOPS   GL229755  29.494   8.217  13.142 -0.0877 -0.0924 -0.1167
 2536DOPS   C1A29756  29.166   7.851  12.811  0.0172 -0.2224 -0.1867
 2536DOPS   D2A29757  29.121   8.001  12.345 -0.0345  0.0577 -0.2629
 2536DOPS   C3A29758  28.778   7.940  12.044 -0.2216  0.0101  0.5391
 2536DOPS   C4A29759  28.552   7.725  11.726 -0.1315 -0.0830  0.1526
 2536DOPS   C1B29760  29.714   7.882  12.957 -0.0755 -0.3982 -0.2347
 2536DOPS   D2B29761  29.860   7.523  12.714 -0.0355 -0.2228  0.1820
 2536DOPS   C3B29762  30.016   7.410  12.282 -0.1165 -0.1575  0.2324
 2536DOPS   C4B29763  30.400   7.306  12.110  0.1844  0.0197 -0.0377
 2537DOPC   NC329764  26.748  12.109  14.219  0.2670  0.1736  0.0978
 2537DOPC   PO429765  26.935  12.387  13.979 -0.0593  0.1236 -0.0595
 2537DOPC   GL129766  27.039  12.252  13.626 -0.0839  0.1859  0.3286
 2537DOPC   GL229767  27.250  12.458  13.577 -0.4189  0.1244  0.0640
 2537DOPC   C1A29768  26.790  12.251  13.205 -0.0105 -0.1843 -0.3776
 2537DOPC   D2A29769  26.766  11.869  12.909 -0.2233  0.1675 -0.1499
 2537DOPC   C3A29770  26.663  11.960  12.485  0.5549 -0.1681  0.0857
 2537DOPC   C4A29771  26.407  11.740  12.085 -0.3022  0.1429 -0.1943
 2537DOPC   C1B29772  27.081  12.743  13.274  0.4017  0.0787 -0.3529
 2537DOPC   D2B29773  27.239  12.823  12.832  0.2196  0.1790  0.0838
 2537DOPC   C3B29774  27.446  13.083  12.518  0.1632 -0.1989  0.1031
 2537DOPC   C4B29775  27.562  13.491  12.339 -0.0894  0.0246 -0.6493
 2538DOPE   NH329776  27.617  10.367  13.795  0.0542  0.1548  0.2233
 2538DOPE   PO429777  27.515  10.660  13.793 -0.0858 -0.2141 -0.6653
 2538DOPE   GL129778  27.520  10.845  13.432  0.2147  0.4228  0.3887
 2538DOPE   GL229779  27.741  10.693  13.302 -0.2561 -0.0156 -0.1372
 2538DOPE   C1A29780  27.354  10.825  13.016  0.3631  0.2538 -0.3397
 2538DOPE   D2A29781  27.364  10.791  12.613  0.0900 -0.1594 -0.0055
 2538DOPE   C3A29782  27.210  11.213  12.435 -0.3150  0.1913 -0.0418
 2538DOPE   C4A29783  26.891  11.387  12.149 -0.1296  0.3532  0.0436
 2538DOPE   C1B29784  27.738  10.488  12.927 -0.1137  0.3673  0.2031
 2538DOPE   D2B29785  28.065  10.271  12.636 -0.1410 -0.0316 -0.2324
 2538DOPE   C3B29786  28.483  10.374  12.352  0.2118  0.1071  0.1468
 2538DOPE   C4B29787  28.733  10.550  11.933  0.3415  0.0503 -0.2549
 2539DOPE   NH329788  29.036   3.876  13.661 -0.2698 -0.0795  0.0887
 2539DOPE   PO429789  29.096   4.203  13.601 -0.0435  0.0705 -0.2897
 2539DOPE   GL129790  28.942   4.233  13.298 -0.0502 -0.0069 -0.1165
 2539DOPE   GL229791  29.126   4.393  13.103  0.0808  0.1779  0.1998
 2539DOPE   C1A29792  28.770   4.039  12.872 -0.1223 -0.1400  0.2457
 2539DOPE   D2A29793  29.021   3.741  12.597  0.2447 -0.1763  0.0193
 2539DOPE   C3A29794  29.169   3.842  12.171  0.1090 -0.0610 -0.0390
 2539DOPE   C4A29795  29.036   3.929  11.758  0.0143  0.1694 -0.1031
 2539DOPE   C1B29796  29.238   4.155  12.775  0.1134 -0.2400 -0.0569
 2539DOPE   D2B29797  29.455   4.237  12.421  0.1996 -0.0848  0.2832
 2539DOPE   C3B29798  29.450   4.168  11.984  0.0655  0.1013  0.0276
 2539DOPE   C4B29799  29.454   4.177  11.562 -0.0071 -0.1037  0.1337
 2540DOPC   NC329800  27.063   6.316  13.471  0.2113 -0.1233  0.0047
 2540DOPC   PO429801  26.687   6.233  13.390 -0.3233 -0.1816 -0.1249
 2540DOPC   GL129802  26.781   6.330  12.986  0.3254  0.1138  0.3220
 2540DOPC   GL229803  26.656   6.645  12.910 -0.0413  0.3181 -0.3686
 2540DOPC   C1A29804  26.877   6.393  12.550  0.0428  0.1664 -0.1552
 2540DOPC   D2A29805  27.203   6.327  12.212  0.2494  0.1485 -0.0502
 2540DOPC   C3A29806  27.492   6.035  12.395  0.1236 -0.0987  0.0858
 2540DOPC   C4A29807  27.771   5.724  12.693 -0.1033 -0.2825  0.1053
 2540DOPC   C1B29808  26.451   6.609  12.540 -0.3219 -0.0725 -0.0162
 2540DOPC   D2B29809  26.270   6.711  12.131 -0.0873 -0.0227 -0.0738
 2540DOPC   C3B29810  26.145   6.341  11.912  0.0758  0.2578 -0.1939
 2540DOPC   C4B29811  25.849   6.002  11.975 -0.0059  0.1646 -0.0705
 2541POSM   NC329812  32.081   9.788  14.829 -0.0638 -0.0998 -0.0913
 2541POSM   PO429813  31.749   9.673  14.661 -0.0653 -0.0691 -0.0105
 2541POSM   AM129814  31.857   9.519  14.399 -0.3310  0.0294 -0.1866
 2541POSM   AM229815  31.908   9.581  14.137  0.0126  0.0225  0.1848
 2541POSM   T1A29816  32.257   9.259  14.254  0.1351 -0.3520  0.2932
 2541POSM   C2A29817  32.427   9.155  13.903  0.0209  0.1197  0.2182
 2541POSM   C3A29818  32.654   8.836  13.685  0.2578  0.2129  0.0285
 2541POSM   C1B29819  31.736   9.744  13.894  0.3033 -0.1013  0.0265
 2541POSM   D2B29820  31.684   9.828  13.517 -0.0217 -0.0815 -0.1075
 2541POSM   C3B29821  32.042   9.772  13.268  0.0798  0.1458 -0.1543
 2541POSM   C4B29822  32.283   9.815  12.948  0.1930  0.3568  0.1774
 2542POSM   NC329823  26.702  11.317  14.240  0.0791 -0.1062 -0.0024
 2542POSM   PO429824  26.799  11.569  13.907 -0.3363 -0.1298  0.0671
 2542POSM   AM129825  26.962  11.572  13.617  0.1610  0.0257 -0.0243
 2542POSM   AM229826  27.170  11.730  13.540 -0.0221  0.1448 -0.3207
 2542POSM   T1A29827  27.029  11.256  13.249 -0.0716 -0.1374 -0.1574
 2542POSM   C2A29828  26.944  11.010  12.802  0.0689 -0.0909  0.0436
 2542POSM   C3A29829  26.728  10.943  12.387 -0.2767 -0.0573  0.0623
 2542POSM   C1B29830  27.230  11.990  13.367  0.3075  0.1221  0.2266
 2542POSM   D2B29831  27.349  12.323  13.084 -0.0821  0.1232 -0.0644
 2542POSM   C3B29832  27.100  12.364  12.691 -0.0215  0.0254 -0.3671
 2542POSM   C4B29833  26.778  12.439  12.393 -0.2734  0.1025 -0.0367
 2543DOPC   NC329834  33.194  15.694  15.492 -0.3882  0.3321  0.0425
 2543DOPC   PO429835  32.925  15.381  15.422  0.1689  0.0414 -0.2206
 2543DOPC   GL129836  32.685  15.521  15.044  0.1657  0.1325  0.1058
 2543DOPC   GL229837  32.777  15.853  15.076 -0.0894 -0.0926 -0.3338
 2543DOPC   C1A29838  32.769  15.543  14.575  0.0630 -0.3118  0.0531
 2543DOPC   D2A29839  32.633  15.623  14.126  0.3434 -0.1447  0.0708
 2543DOPC   C3A29840  32.927  15.416  13.839  0.0889 -0.0854 -0.3343
 2543DOPC   C4A29841  32.986  15.370  13.365 -0.3141 -0.0441 -0.0441
 2543DOPC   C1B29842  33.161  15.843  14.795  0.0290  0.1946  0.0482
 2543DOPC   D2B29843  33.544  15.673  14.661  0.1303  0.0564 -0.0415
 2543DOPC   C3B29844  33.797  15.683  14.336  0.2282 -0.0509 -0.1875
 2543DOPC   C4B29845  34.077  15.342  14.247  0.1930  0.0145  0.0910
 2544DOPS   CNO29846  29.922   8.371  13.936  0.0758 -0.1888  0.0670
 2544DOPS   PO429847  29.853   8.688  13.737  0.1420  0.1294 -0.0286
 2544DOPS   GL129848  30.046   8.683  13.396  0.3664 -0.0336 -0.0805
 2544DOPS   GL229849  29.814   8.745  13.251  0.1334 -0.0028  0.0406
 2544DOPS   C1A29850  30.363   8.786  13.051 -0.1358 -0.0609 -0.1119
 2544DOPS   D2A29851  30.354   8.652  12.637 -0.1856  0.1615  0.1427
 2544DOPS   C3A29852  30.518   8.984  12.402 -0.1709 -0.2564 -0.0054
 2544DOPS   C4A29853  30.582   9.191  11.992 -0.1161 -0.2161  0.3854
 2544DOPS   C1B29854  29.795   8.996  12.852  0.0436 -0.0175 -0.0397
 2544DOPS   D2B29855  29.727   8.998  12.416  0.2428 -0.0247 -0.0351
 2544DOPS   C3B29856  29.783   8.860  11.903  0.2912  0.0083 -0.3624
 2544DOPS   C4B29857  29.740   9.050  11.441 -0.0029  0.1067 -0.0421
 2545DOPE   NH329858  28.725   7.873  13.609 -0.0135 -0.1082 -0.2494
 2545DOPE   PO429859  28.474   7.898  13.434  0.0824 -0.0640  0.1941
 2545DOPE   GL129860  28.451   7.769  13.090  0.0455  0.0753 -0.3872
 2545DOPE   GL229861  28.299   7.666  12.846 -0.2870  0.0628 -0.1220
 2545DOPE   C1A29862  28.712   8.032  12.822 -0.2214 -0.0788 -0.4087
 2545DOPE   D2A29863  28.473   8.167  12.443  0.0151 -0.2147  0.0299
 2545DOPE   C3A29864  28.486   8.389  12.007 -0.0199 -0.0430 -0.0694
 2545DOPE   C4A29865  28.315   8.432  11.531 -0.0441 -0.1188  0.0326
 2545DOPE   C1B29866  28.371   7.313  12.500 -0.3108 -0.3970 -0.0842
 2545DOPE   D2B29867  28.624   7.330  12.081 -0.0014 -0.1932 -0.2959
 2545DOPE   C3B29868  28.549   7.181  11.683 -0.2773  0.0193  0.0190
 2545DOPE   C4B29869  28.340   7.010  11.414  0.0886  0.0356  0.1016
 2546DOPS   CNO29870  32.534   9.960  14.762  0.1506  0.1901  0.1092
 2546DOPS   PO429871  32.510   9.590  14.793  0.0388  0.0784  0.2474
 2546DOPS   GL129872  32.605   9.651  14.445 -0.2022 -0.0113 -0.1034
 2546DOPS   GL229873  32.877   9.715  14.440 -0.0309 -0.0368 -0.1605
 2546DOPS   C1A29874  32.464   9.683  13.977 -0.1071 -0.1309  0.3008
 2546DOPS   D2A29875  32.163   9.918  13.728 -0.2400  0.2013 -0.1046
 2546DOPS   C3A29876  32.209  10.212  13.431 -0.1099  0.1777 -0.1670
 2546DOPS   C4A29877  32.122  10.314  12.987 -0.0889 -0.3103 -0.2191
 2546DOPS   C1B29878  33.100   9.803  14.066 -0.0329 -0.0332 -0.1809
 2546DOPS   D2B29879  33.215   9.784  13.615  0.2167  0.0037 -0.0233
 2546DOPS   C3B29880  33.177   9.507  13.300  0.0085 -0.2301 -0.1996
 2546DOPS   C4B29881  33.117   9.294  12.888  0.0998 -0.1439  0.2819
 2547DOPS   CNO29882  22.015   0.232  13.640  0.1339 -0.2207 -0.1429
 2547DOPS   PO429883  21.767   0.200  13.367 -0.1203  0.0018  0.0611
 2547DOPS   GL129884  21.641   0.070  12.959  0.1821  0.1663 -0.2197
 2547DOPS   GL229885  21.814  -0.157  12.953 -0.2616 -0.0226  0.1890
 2547DOPS   C1A29886  21.433   0.212  12.546  0.1435  0.1172 -0.0543
 2547DOPS   D2A29887  21.464  -0.035  12.093 -0.1532 -0.0232 -0.1545
 2547DOPS   C3A29888  21.855  -0.135  11.904 -0.0269  0.0442 -0.2242
 2547DOPS   C4A29889  22.200  -0.224  11.631  0.2809 -0.2181  0.2259
 2547DOPS   C1B29890  21.478  -0.335  12.680 -0.5771 -0.0010  0.1413
 2547DOPS   D2B29891  21.311  -0.518  12.258  0.1673 -0.1790 -0.1982
 2547DOPS   C3B29892  20.967  -0.528  11.990  0.1259  0.1818 -0.1043
 2547DOPS   C4B29893  20.869  -0.484  11.566  0.0663  0.0700  0.0285
 2548POSM   NC329894  22.979  12.914  12.970 -0.0466 -0.3902  0.1767
 2548POSM   PO429895  23.275  12.851  13.250  0.2686 -0.0571  0.2491
 2548POSM   AM129896  23.450  12.754  12.976  0.2425  0.1554 -0.2406
 2548POSM   AM229897  23.394  12.736  12.731  0.0072 -0.0707  0.1320
 2548POSM   T1A29898  23.840  12.519  12.822 -0.1272  0.3621  0.1446
 2548POSM   C2A29899  24.115  12.181  12.774  0.0347  0.0117  0.2255
 2548POSM   C3A29900  24.269  11.978  12.389  0.1624 -0.0845 -0.1253
 2548POSM   C1B29901  23.357  13.001  12.474  0.0816 -0.0121  0.0880
 2548POSM   D2B29902  23.403  13.108  11.998 -0.1387 -0.1253 -0.2633
 2548POSM   C3B29903  23.315  13.199  11.557 -0.0912 -0.1583  0.1102
 2548POSM   C4B29904  23.542  13.312  11.183 -0.2166  0.1801  0.0791
 2549POSM   NC329905  30.219   5.920  14.129  0.2825  0.2789 -0.0227
 2549POSM   PO429906  30.310   5.635  13.868 -0.1218 -0.1991  0.1862
 2549POSM   AM129907  30.261   5.689  13.555 -0.2331  0.1126  0.2226
 2549POSM   AM229908  30.211   5.874  13.335 -0.1007 -0.3860 -0.2105
 2549POSM   T1A29909  30.192   5.413  13.108 -0.1737 -0.1576  0.1749
 2549POSM   C2A29910  30.261   5.285  12.651  0.2350 -0.0182  0.0561
 2549POSM   C3A29911  30.275   4.965  12.355  0.0938  0.0543 -0.2053
 2549POSM   C1B29912  30.331   5.923  12.990 -0.0728  0.3713 -0.2489
 2549POSM   D2B29913  30.500   5.798  12.561 -0.1117  0.3455  0.0426
 2549POSM   C3B29914  30.642   5.829  12.123 -0.1546 -0.1790  0.4494
 2549POSM   C4B29915  30.656   5.625  11.695 -0.1772 -0.1133 -0.1632
 2550DOPC   NC329916  24.971   4.566  12.760  0.1954 -0.0284  0.1899
 2550DOPC   PO429917  24.652   4.568  12.513 -0.3350 -0.0023 -0.2716
 2550DOPC   GL129918  24.933   4.571  12.252 -0.0080 -0.0309 -0.0581
 2550DOPC   GL229919  25.156   4.368  12.356  0.2747 -0.0928 -0.1044
 2550DOPC   C1A29920  24.678   4.752  11.888  0.2599 -0.2983  0.0728
 2550DOPC   D2A29921  24.346   4.909  11.636  0.0185  0.1278  0.3443
 2550DOPC   C3A29922  24.351   5.253  11.331  0.2409 -0.5014 -0.2481
 2550DOPC   C4A29923  24.009   5.598  11.362  0.1736  0.2187 -0.3467
 2550DOPC   C1B29924  24.989   4.325  11.907  0.2991 -0.2308  0.0625
 2550DOPC   D2B29925  25.144   4.563  11.608  0.1019 -0.1347  0.5139
 2550DOPC   C3B29926  24.840   4.833  11.430 -0.0650 -0.4832 -0.1918
 2550DOPC   C4B29927  24.613   4.982  11.048  0.0359  0.0823  0.0012
 2551POSM   NC329928  28.495  11.154  14.194  0.1651  0.3813  0.2369
 2551POSM   PO429929  28.260  10.996  13.955  0.0416 -0.1772  0.0425
 2551POSM   AM129930  28.309  10.993  13.613  0.0615  0.3669  0.0502
 2551POSM   AM229931  28.149  11.084  13.424  0.0457  0.3616 -0.2254
 2551POSM   T1A29932  28.556  10.960  13.170 -0.1903  0.2942  0.0294
 2551POSM   C2A29933  28.560  11.050  12.713  0.1135  0.0970 -0.2825
 2551POSM   C3A29934  28.776  11.127  12.241  0.1133 -0.2043  0.4884
 2551POSM   C1B29935  28.214  11.351  13.277  0.3034  0.4073  0.2957
 2551POSM   D2B29936  28.431  11.507  12.857 -0.1617 -0.3469 -0.1208
 2551POSM   C3B29937  28.558  11.542  12.393  0.2559 -0.1463  0.0295
 2551POSM   C4B29938  28.805  11.586  11.998 -0.2290 -0.1670  0.0301
 2552DOPC   NC329939  26.426   6.728  13.481 -0.2311 -0.1259  0.2279
 2552DOPC   PO429940  26.540   7.121  13.361  0.1374 -0.1728  0.1890
 2552DOPC   GL129941  26.430   7.021  12.974 -0.0370 -0.0294 -0.2545
 2552DOPC   GL229942  26.716   7.102  12.854  0.2314  0.0802 -0.2570
 2552DOPC   C1A29943  26.195   7.031  12.576 -0.2603 -0.2705  0.0142
 2552DOPC   D2A29944  25.806   6.996  12.294  0.0605  0.1634  0.0474
 2552DOPC   C3A29945  25.885   6.842  11.908  0.0383  0.2366  0.0079
 2552DOPC   C4A29946  26.183   6.900  11.535 -0.0033 -0.0486  0.0704
 2552DOPC   C1B29947  26.626   7.113  12.410  0.1606 -0.1684 -0.2977
 2552DOPC   D2B29948  26.617   7.085  11.956  0.0813 -0.0054 -0.1985
 2552DOPC   C3B29949  26.521   7.526  11.824  0.3063 -0.1482  0.0674
 2552DOPC   C4B29950  26.454   7.734  11.402 -0.2092  0.4502 -0.0171
 2553POSM   NC329951  29.407   8.450  14.094  0.0572  0.0079 -0.0393
 2553POSM   PO429952  29.461   8.435  13.714  0.1856  0.2408  0.1182
 2553POSM   AM129953  29.333   8.620  13.418 -0.2419  0.0493 -0.2878
 2553POSM   AM229954  29.215   8.892  13.415  0.2421  0.1928  0.0296
 2553POSM   T1A29955  29.371   8.637  12.928 -0.1590 -0.0093  0.0407
 2553POSM   C2A29956  29.452   8.293  12.571  0.0208 -0.1971  0.2828
 2553POSM   C3A29957  29.437   8.376  12.125 -0.0676  0.2830  0.2715
 2553POSM   C1B29958  28.985   8.844  13.196  0.0313  0.0771 -0.0639
 2553POSM   D2B29959  28.802   8.497  12.906 -0.0592 -0.2610  0.0585
 2553POSM   C3B29960  28.973   8.394  12.511  0.2904  0.0340  0.1995
 2553POSM   C4B29961  28.924   8.597  12.071  0.0735  0.3997  0.0106
 2554POSM   NC329962  29.543   2.962  13.498  0.1329 -0.0646  0.2676
 2554POSM   PO429963  29.583   2.590  13.575 -0.4875 -0.0089  0.3374
 2554POSM   AM129964  29.756   2.498  13.310 -0.0407  0.0412 -0.2498
 2554POSM   AM229965  29.651   2.320  13.100 -0.1656 -0.0279 -0.1288
 2554POSM   T1A29966  30.171   2.575  13.050  0.3013  0.2393  0.5031
 2554POSM   C2A29967  30.485   2.546  12.737 -0.0508  0.0929  0.0153
 2554POSM   C3A29968  30.869   2.421  12.566  0.0121  0.4377  0.1402
 2554POSM   C1B29969  29.525   2.272  12.788  0.1232 -0.1740  0.1863
 2554POSM   D2B29970  29.497   2.161  12.318  0.0680 -0.0924 -0.1732
 2554POSM   C3B29971  29.221   1.899  12.079  0.1743  0.0068  0.2760
 2554POSM   C4B29972  28.976   1.953  11.672  0.0701 -0.0161 -0.1120
 2555DOPC   NC329973  23.417   4.821  12.937 -0.0108 -0.2997  0.0307
 2555DOPC   PO429974  23.439   4.430  13.075 -0.2802 -0.1244  0.1747
 2555DOPC   GL129975  23.216   4.441  12.698 -0.0282 -0.1486  0.3307
 2555DOPC   GL229976  23.015   4.242  12.592  0.0409  0.2606 -0.0488
 2555DOPC   C1A29977  23.370   4.334  12.270  0.2771  0.0022  0.0785
 2555DOPC   D2A29978  23.247   4.297  11.846 -0.0099  0.3248 -0.0867
 2555DOPC   C3A29979  23.486   4.012  11.533 -0.2144  0.1309 -0.1526
 2555DOPC   C4A29980  23.628   3.712  11.215 -0.0276 -0.1941 -0.2813
 2555DOPC   C1B29981  22.867   4.190  12.196 -0.3335 -0.0677  0.1001
 2555DOPC   D2B29982  22.570   4.183  11.881 -0.1616  0.4408 -0.1416
 2555DOPC   C3B29983  22.859   4.132  11.494  0.0456 -0.1354 -0.3064
 2555DOPC   C4B29984  23.078   4.044  11.090 -0.1955 -0.0903  0.2047
 2556DOPE   NH329985  24.733   3.635  12.501  0.2065 -0.2996 -0.1566
 2556DOPE   PO429986  24.625   3.847  12.648  0.0238 -0.2202  0.2323
 2556DOPE   GL129987  24.793   4.064  12.305 -0.1543 -0.0434  0.0474
 2556DOPE   GL229988  24.502   4.138  12.269  0.2958 -0.0161 -0.4734
 2556DOPE   C1A29989  25.150   3.890  12.060 -0.1301  0.2343 -0.0764
 2556DOPE   D2A29990  25.284   4.000  11.650  0.2740  0.1980 -0.1884
 2556DOPE   C3A29991  25.251   4.180  11.246 -0.2002 -0.2982  0.1662
 2556DOPE   C4A29992  24.959   4.522  11.093 -0.2400 -0.0539  0.1767
 2556DOPE   C1B29993  24.689   3.892  11.906  0.1622  0.2392 -0.0338
 2556DOPE   D2B29994  24.946   3.548  11.746  0.0798 -0.1069  0.5907
 2556DOPE   C3B29995  24.924   3.089  11.651 -0.1688 -0.1532 -0.1247
 2556DOPE   C4B29996  25.072   2.639  11.602 -0.0271 -0.0685  0.0733
 2557DOPC   NC329997  20.656   7.109  13.633 -0.3246 -0.1387 -0.2643
 2557DOPC   PO429998  20.454   6.981  13.329  0.0157 -0.1090  0.1636
 2557DOPC   GL129999  20.517   6.960  12.992  0.2004  0.0648 -0.1964
 2557DOPC   GL230000  20.609   6.632  13.004  0.2986 -0.0495  0.0811
 2557DOPC   C1A30001  20.854   7.197  12.740 -0.3361 -0.3922  0.4190
 2557DOPC   D2A30002  20.740   7.307  12.315  0.2000 -0.0574  0.0788
 2557DOPC   C3A30003  21.125   7.076  12.155  0.2305 -0.2940 -0.1367
 2557DOPC   C4A30004  21.357   6.840  11.872  0.1309  0.1068 -0.1955
 2557DOPC   C1B30005  20.316   6.238  12.987 -0.0688 -0.2866  0.1390
 2557DOPC   D2B30006  19.898   6.092  12.833 -0.2068 -0.1707 -0.2703
 2557DOPC   C3B30007  19.848   5.914  12.413 -0.3589 -0.0428  0.2498
 2557DOPC   C4B30008  19.939   5.962  12.020 -0.2675 -0.2926  0.0179
 2558POSM   NC330009  33.557   7.784  14.608  0.1809  0.1999 -0.1926
 2558POSM   PO430010  33.203   7.782  14.425  0.1232  0.1534  0.1551
 2558POSM   AM130011  33.332   7.964  14.233 -0.2761  0.1267  0.0058
 2558POSM   AM230012  33.550   7.909  14.048  0.1041 -0.0225  0.2397
 2558POSM   T1A30013  33.315   8.342  13.869 -0.0433 -0.0024  0.1309
 2558POSM   C2A30014  33.103   8.567  13.528 -0.0382 -0.0008  0.1408
 2558POSM   C3A30015  33.030   8.710  13.122 -0.1111  0.3768 -0.0428
 2558POSM   C1B30016  33.808   8.122  13.933 -0.0509  0.0166  0.2106
 2558POSM   D2B30017  33.991   8.429  13.651 -0.0203  0.3797  0.0695
 2558POSM   C3B30018  33.577   8.653  13.581 -0.0646 -0.0291 -0.3288
 2558POSM   C4B30019  33.432   8.949  13.218 -0.1276 -0.0383  0.0642
 2559POSM   NC330020  24.011  13.663  13.287 -0.2968 -0.0812  0.0598
 2559POSM   PO430021  23.691  13.481  13.429 -0.3444 -0.0870 -0.1618
 2559POSM   AM130022  23.557  13.396  13.119  0.0375 -0.1812 -0.1390
 2559POSM   AM230023  23.361  13.282  12.972  0.1388 -0.3080  0.0726
 2559POSM   T1A30024  23.584  13.479  12.610  0.0407  0.1526 -0.2018
 2559POSM   C2A30025  23.550  13.782  12.255  0.0752 -0.0678 -0.3682
 2559POSM   C3A30026  23.496  14.064  11.875 -0.1394  0.0540 -0.1666
 2559POSM   C1B30027  23.130  13.345  12.695 -0.1381  0.4974  0.1288
 2559POSM   D2B30028  23.118  13.409  12.211  0.2546 -0.0984  0.0465
 2559POSM   C3B30029  23.048  13.689  11.790 -0.4688 -0.1602  0.1064
 2559POSM   C4B30030  22.985  13.792  11.356 -0.0042 -0.0738  0.0307
 2560POSM   NC330031  27.775   6.680  13.696 -0.1843  0.0490  0.0137
 2560POSM   PO430032  27.632   6.358  13.570  0.0810  0.2757 -0.0285
 2560POSM   AM130033  27.546   6.303  13.285 -0.4404 -0.2777  0.3659
 2560POSM   AM230034  27.690   6.295  13.046  0.1737  0.0276  0.2874
 2560POSM   T1A30035  27.300   6.028  12.940  0.0052  0.2627 -0.1891
 2560POSM   C2A30036  26.908   5.918  12.805  0.1756  0.0778 -0.3255
 2560POSM   C3A30037  26.460   6.107  12.745  0.0349 -0.1105 -0.2510
 2560POSM   C1B30038  27.951   6.185  12.818 -0.0462 -0.0935  0.0270
 2560POSM   D2B30039  27.953   6.088  12.368 -0.0210  0.0261  0.0836
 2560POSM   C3B30040  28.100   5.672  12.274 -0.0913 -0.0231 -0.0070
 2560POSM   C4B30041  28.345   5.550  11.927 -0.1340 -0.0415 -0.1220
 2561POSM   NC330042  27.744  15.647  14.462 -0.0904  0.0145 -0.1482
 2561POSM   PO430043  27.856  15.266  14.481 -0.0883  0.0473  0.1987
 2561POSM   AM130044  28.154  15.349  14.395 -0.1732  0.2143  0.1659
 2561POSM   AM230045  28.252  15.588  14.324 -0.2291  0.0218 -0.0156
 2561POSM   T1A30046  28.521  15.250  14.059  0.0568  0.1194  0.1893
 2561POSM   C2A30047  28.964  15.256  13.901 -0.3297  0.0581  0.0128
 2561POSM   C3A30048  29.417  15.148  13.822  0.0170  0.0393 -0.1604
 2561POSM   C1B30049  28.256  15.644  14.024  0.1123  0.2157  0.0144
 2561POSM   D2B30050  28.301  15.453  13.591 -0.0583  0.1813 -0.0916
 2561POSM   C3B30051  28.641  15.149  13.504 -0.1665 -0.1981 -0.2424
 2561POSM   C4B30052  28.591  14.694  13.402 -0.0448  0.1468  0.2516
 2562DOPC   NC330053   1.971   4.179  14.722  0.1202  0.0051  0.0648
 2562DOPC   PO430054   2.360   4.212  14.703 -0.1447 -0.0986 -0.1752
 2562DOPC   GL130055   2.432   4.357  14.326 -0.1653 -0.0639 -0.1454
 2562DOPC   GL230056   2.214   4.594  14.440 -0.0857 -0.0665  0.1141
 2562DOPC   C1A30057   2.426   4.531  13.904 -0.2736  0.0269 -0.1305
 2562DOPC   D2A30058   2.120   4.753  13.614  0.2152  0.0266  0.0395
 2562DOPC   C3A30059   2.268   4.977  13.308 -0.1066 -0.0954 -0.1923
 2562DOPC   C4A30060   2.438   4.932  12.887 -0.3179  0.1944 -0.1017
 2562DOPC   C1B30061   2.184   4.907  14.106  0.0916  0.0554  0.1071
 2562DOPC   D2B30062   1.985   5.314  14.115  0.0166  0.1162  0.1716
 2562DOPC   C3B30063   2.041   5.612  14.460  0.2184 -0.2517 -0.2381
 2562DOPC   C4B30064   2.337   5.926  14.593  0.0895  0.0415 -0.0749
 2563POSM   NC330065   0.153   6.945  15.373 -0.1499  0.2259 -0.1362
 2563POSM   PO430066   0.410   7.280  15.271 -0.0514 -0.2267 -0.3990
 2563POSM   AM130067   0.442   7.406  14.948 -0.3695 -0.1292  0.1675
 2563POSM   AM230068   0.284   7.566  14.741 -0.3065  0.1825 -0.2152
 2563POSM   T1A30069   0.710   7.370  14.518 -0.0296  0.1603  0.0298
 2563POSM   C2A30070   0.792   7.739  14.214  0.3739 -0.0865  0.1885
 2563POSM   C3A30071   0.585   8.157  14.301 -0.3133 -0.1058 -0.2949
 2563POSM   C1B30072   0.313   7.737  14.458  0.1844 -0.2664  0.0192
 2563POSM   D2B30073   0.334   7.766  13.988 -0.2411 -0.1042  0.0309
 2563POSM   C3B30074   0.659   7.682  13.670 -0.0471 -0.0249  0.1719
 2563POSM   C4B30075   1.056   7.414  13.747 -0.1150 -0.3051  0.1943
 2564DOPS   CNO30076  24.516   6.826  13.174  0.1909 -0.1122 -0.2739
 2564DOPS   PO430077  24.401   7.179  13.168 -0.2973  0.1990 -0.2707
 2564DOPS   GL130078  24.369   7.339  12.774 -0.1154 -0.1575  0.0614
 2564DOPS   GL230079  24.296   7.013  12.717 -0.0019 -0.1480 -0.1910
 2564DOPS   C1A30080  24.063   7.327  12.392 -0.0123  0.0299  0.3014
 2564DOPS   D2A30081  23.836   7.185  11.972 -0.1276  0.1952  0.2473
 2564DOPS   C3A30082  23.798   6.731  11.972 -0.1053 -0.1132 -0.1945
 2564DOPS   C4A30083  23.917   6.290  11.948 -0.0881 -0.0582  0.1360
 2564DOPS   C1B30084  24.567   7.117  12.340  0.1213  0.0664  0.3559
 2564DOPS   D2B30085  24.362   7.114  11.925  0.2990  0.0344 -0.0762
 2564DOPS   C3B30086  24.560   7.272  11.524 -0.0946 -0.0479 -0.2086
 2564DOPS   C4B30087  24.702   7.450  11.116  0.1153 -0.1757 -0.1023
 2565DOPS   CNO30088  23.980   6.914  13.285 -0.1009  0.0306 -0.2199
 2565DOPS   PO430089  23.923   6.740  12.956  0.1767 -0.3005 -0.1745
 2565DOPS   GL130090  23.947   6.796  12.656  0.2175 -0.1218  0.1648
 2565DOPS   GL230091  23.685   6.921  12.505  0.0400  0.1941  0.3623
 2565DOPS   C1A30092  24.177   6.746  12.262  0.0388  0.0851  0.3693
 2565DOPS   D2A30093  24.265   6.636  11.839 -0.3304 -0.2082 -0.0771
 2565DOPS   C3A30094  23.978   6.685  11.443  0.0831 -0.0232  0.2615
 2565DOPS   C4A30095  23.539   6.592  11.331  0.0731 -0.3252 -0.0490
 2565DOPS   C1B30096  23.333   7.070  12.245 -0.0019  0.0057 -0.0262
 2565DOPS   D2B30097  22.986   7.333  12.336  0.1506 -0.0567 -0.0045
 2565DOPS   C3B30098  22.525   7.491  12.307 -0.3143 -0.1326 -0.3285
 2565DOPS   C4B30099  22.319   7.869  12.188 -0.1166 -0.0092 -0.0857
 2566DOPS   CNO30100  30.616  10.075  14.172 -0.1242  0.1212 -0.1421
 2566DOPS   PO430101  30.530   9.700  14.100 -0.0558 -0.0972  0.0956
 2566DOPS   GL130102  30.495   9.725  13.721  0.2129  0.1669  0.0108
 2566DOPS   GL230103  30.584   9.493  13.584 -0.0873 -0.2410 -0.2922
 2566DOPS   C1A30104  30.619  10.033  13.398 -0.0009  0.0358 -0.1522
 2566DOPS   D2A30105  30.971  10.303  13.217 -0.0903 -0.0027 -0.0044
 2566DOPS   C3A30106  31.212  10.652  13.055 -0.2375 -0.1358  0.2657
 2566DOPS   C4A30107  30.985  10.994  12.840 -0.3839  0.0163  0.0060
 2566DOPS   C1B30108  30.404   9.590  13.197 -0.1034  0.0887  0.0081
 2566DOPS   D2B30109  30.169   9.768  12.840 -0.4244  0.2429  0.1056
 2566DOPS   C3B30110  30.343   9.877  12.454 -0.1750 -0.1284 -0.0345
 2566DOPS   C4B30111  30.747  10.069  12.399  0.0941  0.2857 -0.1988
 2567POSM   NC330112  29.568   4.167  14.134 -0.3054 -0.3348 -0.1061
 2567POSM   PO430113  29.502   4.008  13.789  0.1968  0.2725 -0.1292
 2567POSM   AM130114  29.490   4.014  13.436  0.2564  0.1542 -0.3008
 2567POSM   AM230115  29.347   3.840  13.289 -0.1353  0.2757 -0.1407
 2567POSM   T1A30116  29.703   4.217  13.023  0.0844 -0.1047 -0.0773
 2567POSM   C2A30117  29.970   4.542  12.818 -0.1848  0.1277 -0.0105
 2567POSM   C3A30118  30.435   4.679  12.721 -0.0776 -0.0607 -0.0815
 2567POSM   C1B30119  29.384   3.691  12.963 -0.2258  0.1165  0.0014
 2567POSM   D2B30120  29.592   3.759  12.545  0.0592 -0.0263 -0.2759
 2567POSM   C3B30121  30.006   4.043  12.615 -0.0611  0.0415  0.2206
 2567POSM   C4B30122  30.200   4.128  13.028 -0.0153  0.2804  0.2147
 2568DOPE   NH330123  32.242  11.466  15.233  0.0187 -0.1639 -0.0660
 2568DOPE   PO430124  32.395  11.384  14.944  0.0159  0.0054 -0.2413
 2568DOPE   GL130125  32.591  11.345  14.620 -0.1147 -0.4507  0.4938
 2568DOPE   GL230126  32.525  11.570  14.339 -0.0736 -0.2491 -0.0739
 2568DOPE   C1A30127  32.926  11.236  14.337 -0.1095  0.0249  0.0319
 2568DOPE   D2A30128  33.408  11.184  14.321 -0.2636 -0.1834  0.0846
 2568DOPE   C3A30129  33.610  11.030  13.942  0.0786 -0.3006  0.0721
 2568DOPE   C4A30130  33.497  10.687  13.617 -0.2539 -0.3035 -0.1155
 2568DOPE   C1B30131  32.222  11.685  13.973 -0.0088  0.0456  0.0929
 2568DOPE   D2B30132  32.263  11.928  13.568 -0.2497 -0.1633 -0.0127
 2568DOPE   C3B30133  32.380  12.334  13.559  0.1932  0.2538 -0.1446
 2568DOPE   C4B30134  32.557  12.603  13.901  0.3854  0.0608 -0.2214
 2569POSM   NC330135  26.751   1.503  13.117 -0.0188  0.3132  0.1226
 2569POSM   PO430136  26.968   1.836  13.059 -0.2194  0.3427 -0.1576
 2569POSM   AM130137  27.098   1.936  12.800 -0.1481 -0.1257 -0.0431
 2569POSM   AM230138  27.060   2.228  12.698 -0.1870  0.1211 -0.0994
 2569POSM   T1A30139  27.503   2.060  12.577  0.0525 -0.0830  0.3144
 2569POSM   C2A30140  27.696   2.035  12.139 -0.2872 -0.2140 -0.0142
 2569POSM   C3A30141  27.820   2.235  11.734 -0.0915  0.1599  0.2257
 2569POSM   C1B30142  27.139   2.387  12.368 -0.0376 -0.1177  0.1138
 2569POSM   D2B30143  27.406   2.448  12.016 -0.2388 -0.1590 -0.1859
 2569POSM   C3B30144  27.068   2.580  11.753  0.0393  0.0015 -0.2116
 2569POSM   C4B30145  26.850   2.698  11.333 -0.3913 -0.0287  0.0786
 2570DOPS   CNO30146  32.794   8.445  14.732  0.0008 -0.0076 -0.0599
 2570DOPS   PO430147  32.765   8.089  14.658 -0.0524 -0.1689 -0.0683
 2570DOPS   GL130148  32.855   8.138  14.266  0.0447  0.2316  0.0675
 2570DOPS   GL230149  32.814   7.894  14.002 -0.1923 -0.3375 -0.0309
 2570DOPS   C1A30150  32.803   8.438  13.887  0.0206  0.2261 -0.2022
 2570DOPS   D2A30151  32.620   8.405  13.447 -0.1460  0.0448  0.4249
 2570DOPS   C3A30152  32.623   8.335  13.025  0.2198 -0.0698  0.3786
 2570DOPS   C4A30153  32.721   8.617  12.677 -0.2087 -0.2202 -0.3540
 2570DOPS   C1B30154  33.042   8.009  13.628  0.1414 -0.2973  0.2449
 2570DOPS   D2B30155  33.202   8.180  13.227  0.3730  0.1376  0.0877
 2570DOPS   C3B30156  33.600   8.444  13.137  0.1383 -0.0707  0.0083
 2570DOPS   C4B30157  33.941   8.730  13.178  0.0368 -0.1363  0.0021
 2571POSM   NC330158  31.604   4.249  14.077  0.0125  0.1380  0.0093
 2571POSM   PO430159  31.896   4.449  14.231  0.0748 -0.1457 -0.3173
 2571POSM   AM130160  32.036   4.719  14.061 -0.2502 -0.0484 -0.5981
 2571POSM   AM230161  31.972   4.999  13.979 -0.2022  0.4125  0.1184
 2571POSM   T1A30162  32.296   4.760  13.625 -0.1200 -0.0693 -0.0051
 2571POSM   C2A30163  32.406   5.165  13.399 -0.0043  0.0118 -0.1115
 2571POSM   C3A30164  32.797   5.464  13.538 -0.3079 -0.0932 -0.0217
 2571POSM   C1B30165  31.966   5.066  13.657  0.0386  0.0097  0.2529
 2571POSM   D2B30166  31.951   5.134  13.197 -0.2365  0.1589  0.1489
 2571POSM   C3B30167  31.804   5.163  12.716  0.1036 -0.0807  0.0100
 2571POSM   C4B30168  32.067   5.291  12.483  0.0414 -0.0623 -0.1968
 2572POSM   NC330169  28.380   3.136  13.945 -0.0797  0.0318 -0.1810
 2572POSM   PO430170  28.243   3.287  13.668  0.2058 -0.2239  0.0058
 2572POSM   AM130171  28.082   3.410  13.387 -0.1846 -0.3102 -0.3564
 2572POSM   AM230172  28.249   3.509  13.177  0.1786 -0.0781  0.0515
 2572POSM   T1A30173  27.818   3.659  13.026  0.3558  0.2644  0.1492
 2572POSM   C2A30174  27.604   3.608  12.653  0.2177 -0.3424  0.1759
 2572POSM   C3A30175  27.640   3.811  12.250  0.1313 -0.1281 -0.1314
 2572POSM   C1B30176  28.331   3.737  12.933 -0.0387 -0.0466  0.3097
 2572POSM   D2B30177  28.071   3.868  12.573  0.2374 -0.1057 -0.0435
 2572POSM   C3B30178  28.156   3.988  12.138  0.1881 -0.2859  0.2871
 2572POSM   C4B30179  28.091   4.073  11.714 -0.0620 -0.1071  0.1767
 2573POSM   NC330180  28.326  12.758  14.531  0.1780  0.2049 -0.0378
 2573POSM   PO430181  27.950  12.739  14.549  0.1931 -0.0349  0.0163
 2573POSM   AM130182  27.938  12.761  14.209 -0.0015  0.2099  0.1401
 2573POSM   AM230183  27.938  12.620  13.998  0.1662  0.0438 -0.1491
 2573POSM   T1A30184  27.581  12.911  13.811 -0.1948 -0.0406 -0.3639
 2573POSM   C2A30185  27.603  12.783  13.420  0.4780  0.1636 -0.1117
 2573POSM   C3A30186  27.750  12.846  12.981 -0.0352  0.2706 -0.0589
 2573POSM   C1B30187  27.925  12.460  13.698 -0.0008 -0.1507  0.0745
 2573POSM   D2B30188  27.789  12.373  13.250  0.1164  0.0157  0.3101
 2573POSM   C3B30189  27.977  12.062  12.963  0.0486  0.2675  0.3757
 2573POSM   C4B30190  28.234  11.871  12.532 -0.2066  0.1760 -0.2476
 2574DOPE   NH330191  32.908   9.225  14.663  0.0285 -0.0567  0.4691
 2574DOPE   PO430192  33.020   8.946  14.772 -0.1232 -0.1585  0.1396
 2574DOPE   GL130193  33.044   8.779  14.395 -0.1769 -0.0257 -0.1238
 2574DOPE   GL230194  33.123   8.496  14.306  0.3855  0.0064 -0.1645
 2574DOPE   C1A30195  33.061   8.846  13.953 -0.1320 -0.0216  0.0527
 2574DOPE   D2A30196  33.080   9.063  13.557  0.2643 -0.0795 -0.2409
 2574DOPE   C3A30197  32.817   9.458  13.631 -0.0800 -0.1984  0.1751
 2574DOPE   C4A30198  32.566   9.808  13.417  0.0298  0.1979  0.1297
 2574DOPE   C1B30199  33.508   8.687  14.160  0.0244 -0.1455  0.1653
 2574DOPE   D2B30200  33.913   8.811  13.971  0.0304 -0.0597  0.1961
 2574DOPE   C3B30201  33.872   9.082  13.537  0.1105  0.1946  0.2564
 2574DOPE   C4B30202  33.752   9.321  13.118 -0.2674 -0.1962  0.2190
 2575DOPE   NH330203  24.075   8.983  13.640 -0.2314 -0.1480 -0.0030
 2575DOPE   PO430204  24.295   8.771  13.660  0.3552  0.1969  0.0868
 2575DOPE   GL130205  24.410   8.724  13.298  0.2374  0.2088  0.0579
 2575DOPE   GL230206  24.112   8.818  13.178  0.0180 -0.2092 -0.2579
 2575DOPE   C1A30207  24.481   8.703  12.844 -0.1202  0.1451 -0.2482
 2575DOPE   D2A30208  24.631   8.539  12.394 -0.1385  0.0988 -0.2616
 2575DOPE   C3A30209  24.967   8.405  12.151 -0.0361 -0.0539 -0.2912
 2575DOPE   C4A30210  24.975   7.986  11.864 -0.3715 -0.0031 -0.0199
 2575DOPE   C1B30211  23.998   8.807  12.763  0.0002 -0.1391  0.0360
 2575DOPE   D2B30212  24.081   8.996  12.320 -0.0177  0.3772 -0.1575
 2575DOPE   C3B30213  24.326   8.764  12.003 -0.3961  0.0896  0.0965
 2575DOPE   C4B30214  24.749   8.821  11.834 -0.0717 -0.0248 -0.2080
 2576DOPS   CNO30215  32.224   1.358  13.657  0.0359  0.2169 -0.0786
 2576DOPS   PO430216  32.226   0.974  13.536 -0.0255 -0.1424  0.0266
 2576DOPS   GL130217  32.048   1.050  13.212 -0.1979 -0.1270 -0.1225
 2576DOPS   GL230218  32.293   0.940  12.991 -0.1279 -0.1188  0.0684
 2576DOPS   C1A30219  31.922   1.334  12.854 -0.0072  0.0153 -0.3159
 2576DOPS   D2A30220  31.886   1.457  12.396  0.4205  0.0756 -0.1665
 2576DOPS   C3A30221  32.055   1.767  12.087 -0.1303  0.2633  0.2379
 2576DOPS   C4A30222  32.521   1.691  12.003 -0.0265 -0.1166  0.2326
 2576DOPS   C1B30223  32.183   1.027  12.545 -0.0833 -0.1676 -0.3175
 2576DOPS   D2B30224  31.968   0.956  12.144  0.2873 -0.0116  0.1042
 2576DOPS   C3B30225  31.966   1.306  11.825 -0.0146 -0.0955  0.0625
 2576DOPS   C4B30226  31.981   1.694  11.526 -0.0791 -0.0918  0.1842
 2577DOPS   CNO30227  24.393   6.481  12.815  0.1062  0.2592  0.0310
 2577DOPS   PO430228  24.503   6.205  13.044 -0.4207  0.1887 -0.0882
 2577DOPS   GL130229  24.535   5.974  12.719 -0.0155 -0.2638  0.2853
 2577DOPS   GL230230  24.750   6.199  12.576  0.3748  0.1943 -0.0040
 2577DOPS   C1A30231  24.270   5.633  12.573  0.1754  0.0570  0.0211
 2577DOPS   D2A30232  24.317   5.142  12.547 -0.0779  0.0922  0.0245
 2577DOPS   C3A30233  24.190   5.021  12.141 -0.2496  0.2745  0.2873
 2577DOPS   C4A30234  23.838   4.927  11.870 -0.1897  0.0799  0.5878
 2577DOPS   C1B30235  25.137   6.275  12.331  0.0749 -0.0247 -0.0920
 2577DOPS   D2B30236  25.379   6.106  11.942 -0.2507  0.1794  0.0219
 2577DOPS   C3B30237  25.292   5.762  11.650  0.1662  0.2730 -0.2155
 2577DOPS   C4B30238  24.985   5.675  11.283  0.0441 -0.0376  0.1186
 2578DOPE   NH330239  26.873   8.780  14.100 -0.2505  0.0232  0.0117
 2578DOPE   PO430240  26.771   8.574  13.896 -0.0942 -0.0059 -0.0174
 2578DOPE   GL130241  26.606   8.756  13.571  0.0933  0.2231  0.0324
 2578DOPE   GL230242  26.417   8.584  13.479  0.2671  0.0185  0.2320
 2578DOPE   C1A30243  26.757   8.762  13.129 -0.1529  0.0398  0.0928
 2578DOPE   D2A30244  26.648   9.024  12.783 -0.3440  0.0247 -0.0523
 2578DOPE   C3A30245  26.809   9.007  12.355 -0.1840  0.1287  0.0033
 2578DOPE   C4A30246  27.020   8.973  11.957 -0.0076  0.1266  0.2222
 2578DOPE   C1B30247  26.261   8.930  13.237 -0.2322 -0.1091  0.2695
 2578DOPE   D2B30248  25.954   9.183  12.930  0.0481  0.1647 -0.0852
 2578DOPE   C3B30249  26.087   9.236  12.487  0.0555  0.2542 -0.2011
 2578DOPE   C4B30250  25.798   9.087  12.127  0.0917 -0.1150 -0.3496
 2579DOPC   NC330251  29.238  11.715  14.601 -0.0901 -0.0844  0.3242
 2579DOPC   PO430252  29.311  12.064  14.403 -0.1553 -0.3815 -0.1636
 2579DOPC   GL130253  29.432  12.094  14.093  0.0356  0.0063 -0.1728
 2579DOPC   GL230254  29.565  12.412  14.139  0.0669  0.3218 -0.0143
 2579DOPC   C1A30255  29.415  11.795  13.681 -0.3397  0.3608 -0.1333
 2579DOPC   D2A30256  29.098  11.495  13.585  0.0346 -0.3731  0.1352
 2579DOPC   C3A30257  28.989  11.370  13.117  0.2006 -0.1874  0.1607
 2579DOPC   C4A30258  28.908  11.688  12.742  0.1558 -0.2200 -0.1476
 2579DOPC   C1B30259  29.752  12.205  13.772 -0.0259  0.0521 -0.1728
 2579DOPC   D2B30260  29.776  11.951  13.404 -0.2119  0.0297 -0.0126
 2579DOPC   C3B30261  29.777  12.325  13.186  0.0504  0.0690  0.2488
 2579DOPC   C4B30262  29.887  12.529  12.773  0.2720  0.3474 -0.0414
 2580DOPE   NH330263  29.123  10.182  14.192 -0.2312 -0.1728  0.3970
 2580DOPE   PO430264  29.273   9.917  14.299  0.0607 -0.1448  0.0198
 2580DOPE   GL130265  29.336   9.838  13.969  0.2159  0.1115  0.1499
 2580DOPE   GL230266  29.133   9.868  13.742  0.0266 -0.4561  0.1083
 2580DOPE   C1A30267  29.410   9.509  13.689  0.0581 -0.1821  0.1121
 2580DOPE   D2A30268  29.708   9.214  13.462 -0.0429 -0.5200 -0.4180
 2580DOPE   C3A30269  30.088   9.190  13.221  0.3469 -0.1852  0.2365
 2580DOPE   C4A30270  30.314   9.267  12.811 -0.3285 -0.0570  0.4334
 2580DOPE   C1B30271  29.029  10.074  13.310  0.0700 -0.2671  0.0429
 2580DOPE   D2B30272  28.764  10.032  12.909 -0.2691  0.1706  0.1331
 2580DOPE   C3B30273  28.935  10.148  12.507 -0.0087  0.0821  0.1685
 2580DOPE   C4B30274  29.168  10.290  12.090 -0.2722 -0.1307  0.0423
 2581DOPC   NC330275  22.666   2.315  13.143 -0.0834 -0.1807 -0.0356
 2581DOPC   PO430276  22.914   2.047  13.362  0.1814 -0.3374  0.0601
 2581DOPC   GL130277  22.964   1.964  12.965 -0.2132  0.3006  0.1380
 2581DOPC   GL230278  23.057   2.156  12.792 -0.1276  0.0163 -0.1316
 2581DOPC   C1A30279  22.742   1.848  12.570 -0.1194  0.2491 -0.2624
 2581DOPC   D2A30280  22.494   1.834  12.139 -0.1772 -0.0559  0.2737
 2581DOPC   C3A30281  22.141   1.786  11.891  0.0257  0.0774 -0.0442
 2581DOPC   C4A30282  21.814   1.681  11.550  0.2043  0.0908  0.2319
 2581DOPC   C1B30283  23.122   2.033  12.370 -0.1205 -0.0979 -0.1157
 2581DOPC   D2B30284  23.349   2.133  12.012  0.2405 -0.0999  0.3010
 2581DOPC   C3B30285  23.316   2.295  11.547 -0.2589  0.1816  0.1368
 2581DOPC   C4B30286  23.277   2.500  11.134 -0.3639 -0.0433 -0.2629
 2582DOPE   NH330287  31.001   3.023  13.593  0.0695 -0.1114  0.0653
 2582DOPE   PO430288  31.261   3.008  13.703  0.2353 -0.0289 -0.1547
 2582DOPE   GL130289  31.429   3.241  13.324  0.1357  0.3067 -0.3355
 2582DOPE   GL230290  31.187   3.242  13.201  0.1517 -0.4013  0.1340
 2582DOPE   C1A30291  31.822   3.295  13.059  0.2440  0.1309  0.2318
 2582DOPE   D2A30292  31.939   3.218  12.578 -0.0035 -0.2313  0.0989
 2582DOPE   C3A30293  32.095   3.600  12.430  0.0856 -0.0311  0.4320
 2582DOPE   C4A30294  32.406   3.867  12.241  0.2469 -0.4228  0.0925
 2582DOPE   C1B30295  31.387   3.263  12.775 -0.0039  0.1910 -0.0732
 2582DOPE   D2B30296  31.562   3.314  12.336  0.0910 -0.1076  0.0676
 2582DOPE   C3B30297  31.618   3.620  12.023  0.2115  0.0555  0.1214
 2582DOPE   C4B30298  31.964   3.941  12.041 -0.0126 -0.2196 -0.0847
 2583DOPE   NH330299  32.501   5.165  14.633 -0.1296 -0.1947 -0.0321
 2583DOPE   PO430300  32.480   5.336  14.385 -0.1451 -0.0067 -0.1464
 2583DOPE   GL130301  32.385   5.668  14.094  0.1877 -0.1040  0.2595
 2583DOPE   GL230302  32.225   5.457  13.866  0.1491  0.0581 -0.0883
 2583DOPE   C1A30303  32.178   5.934  13.790 -0.2837  0.0079 -0.0836
 2583DOPE   D2A30304  31.831   5.947  13.505 -0.0773 -0.2418 -0.0279
 2583DOPE   C3A30305  31.864   6.245  13.194  0.0276 -0.0495 -0.0494
 2583DOPE   C4A30306  31.565   6.505  12.999  0.1941 -0.4850 -0.1178
 2583DOPE   C1B30307  32.220   5.654  13.434 -0.1024 -0.3581  0.1739
 2583DOPE   D2B30308  31.964   5.676  13.053 -0.1981 -0.1973  0.2313
 2583DOPE   C3B30309  31.869   6.018  12.751 -0.0985 -0.2824 -0.0388
 2583DOPE   C4B30310  31.811   6.003  12.296  0.0215 -0.2256 -0.1532
 2584DOPC   NC330311  24.190   4.501  12.640 -0.0960  0.2550  0.1347
 2584DOPC   PO430312  23.878   4.501  12.865  0.1548  0.0758 -0.0593
 2584DOPC   GL130313  23.611   4.592  12.621 -0.4711  0.1438  0.0129
 2584DOPC   GL230314  23.811   4.552  12.312  0.0051  0.0428 -0.2607
 2584DOPC   C1A30315  23.467   4.877  12.337 -0.0629  0.0172  0.0410
 2584DOPC   D2A30316  23.373   4.795  11.844  0.1022  0.1674  0.0124
 2584DOPC   C3A30317  23.610   4.792  11.413  0.0155 -0.3009 -0.0341
 2584DOPC   C4A30318  23.609   4.769  10.962 -0.1265 -0.1727  0.0052
 2584DOPC   C1B30319  24.203   4.435  12.040  0.0920 -0.2223  0.0476
 2584DOPC   D2B30320  24.366   4.393  11.620  0.2211 -0.4303 -0.1929
 2584DOPC   C3B30321  24.756   4.192  11.441  0.2212 -0.2678  0.1983
 2584DOPC   C4B30322  24.791   4.031  10.981  0.2067 -0.2883 -0.1249
 2585DOPC   NC330323  32.612   7.643  14.365 -0.0372 -0.0558 -0.1212
 2585DOPC   PO430324  32.376   7.569  14.017 -0.2519  0.0246  0.4919
 2585DOPC   GL130325  32.446   7.701  13.716 -0.0079 -0.3059 -0.0796
 2585DOPC   GL230326  32.452   8.055  13.769 -0.1138  0.1273  0.3179
 2585DOPC   C1A30327  32.207   7.811  13.323 -0.1177  0.2100 -0.0176
 2585DOPC   D2A30328  32.086   8.012  12.914 -0.1924  0.0580  0.1411
 2585DOPC   C3A30329  32.073   7.913  12.477  0.2423  0.0857  0.3955
 2585DOPC   C4A30330  32.367   7.711  12.186 -0.1424 -0.0779  0.2935
 2585DOPC   C1B30331  32.688   7.924  13.328  0.1115 -0.0533 -0.0947
 2585DOPC   D2B30332  32.918   7.860  12.933  0.1886  0.2010 -0.4643
 2585DOPC   C3B30333  33.382   7.838  12.873  0.1587  0.4617  0.2053
 2585DOPC   C4B30334  33.703   7.590  13.167  0.0695  0.1603  0.0958
 2586DOPE   NH330335  31.267   2.244  13.443  0.2567 -0.1446  0.3346
 2586DOPE   PO430336  31.152   2.479  13.625 -0.1361 -0.0697 -0.0806
 2586DOPE   GL130337  31.233   2.714  13.344  0.6945  0.1083  0.0100
 2586DOPE   GL230338  31.532   2.825  13.273 -0.2665  0.0288 -0.0149
 2586DOPE   C1A30339  31.019   2.800  12.950 -0.1348  0.0890 -0.0177
 2586DOPE   D2A30340  31.051   2.869  12.490  0.0228  0.0052  0.0722
 2586DOPE   C3A30341  31.387   2.907  12.147  0.1039  0.4599 -0.1691
 2586DOPE   C4A30342  31.742   2.771  11.905  0.0556 -0.3369  0.0769
 2586DOPE   C1B30343  31.599   2.812  12.800 -0.3570  0.2669  0.2403
 2586DOPE   D2B30344  31.788   2.813  12.415 -0.1256 -0.1784  0.2012
 2586DOPE   C3B30345  32.113   3.020  12.114  0.0094  0.0495 -0.1387
 2586DOPE   C4B30346  32.402   3.143  11.770 -0.0833  0.0224 -0.1853
 2587DOPE   NH330347  33.405   6.375  14.243  0.0564 -0.2355  0.6031
 2587DOPE   PO430348  33.710   6.457  14.261 -0.2855 -0.2315 -0.0095
 2587DOPE   GL130349  33.978   6.513  14.098 -0.0586 -0.0515 -0.2585
 2587DOPE   GL230350  34.203   6.571  14.298  0.0513  0.1755 -0.2642
 2587DOPE   C1A30351  34.101   6.382  13.651  0.0244  0.2506 -0.1511
 2587DOPE   D2A30352  34.269   6.310  13.236  0.3255 -0.1771  0.0366
 2587DOPE   C3A30353  34.219   6.713  12.973  0.1943  0.0241 -0.3086
 2587DOPE   C4A30354  33.877   7.021  12.862  0.2091  0.2940 -0.1038
 2587DOPE   C1B30355  34.492   6.738  13.990  0.0261  0.0297 -0.1396
 2587DOPE   D2B30356  34.819   6.831  13.698  0.0392  0.0893 -0.0110
 2587DOPE   C3B30357  34.883   7.262  13.503  0.0596  0.3261 -0.1150
 2587DOPE   C4B30358  34.685   7.643  13.294  0.0347 -0.3413  0.0611
 2588DOPS   CNO30359  26.135   7.454  13.903 -0.0852 -0.2522 -0.0748
 2588DOPS   PO430360  26.023   7.645  13.594 -0.2034  0.2174 -0.0847
 2588DOPS   GL130361  26.238   7.654  13.261  0.1511 -0.0731 -0.2670
 2588DOPS   GL230362  26.208   7.413  13.158 -0.3018 -0.3692  0.1286
 2588DOPS   C1A30363  26.292   7.972  12.949 -0.2283 -0.1480 -0.1582
 2588DOPS   D2A30364  26.437   8.390  12.847 -0.2028  0.2156  0.1038
 2588DOPS   C3A30365  26.338   8.680  12.511  0.1467  0.0138  0.2222
 2588DOPS   C4A30366  26.250   8.881  12.077 -0.0561  0.0193 -0.0991
 2588DOPS   C1B30367  26.377   7.508  12.736  0.1862 -0.0768  0.0433
 2588DOPS   D2B30368  26.212   7.474  12.314 -0.0882 -0.0742 -0.1754
 2588DOPS   C3B30369  25.929   7.398  11.959  0.1125  0.3099  0.3990
 2588DOPS   C4B30370  25.634   7.687  11.697  0.1590 -0.1432 -0.4047
 2589POSM   NC330371  28.480  11.919  14.185  0.0634  0.0019  0.2054
 2589POSM   PO430372  28.859  11.889  14.302 -0.1948  0.1527 -0.0256
 2589POSM   AM130373  28.978  12.063  14.055 -0.1010  0.3841 -0.1915
 2589POSM   AM230374  28.780  12.197  13.872 -0.0605  0.0355 -0.1250
 2589POSM   T1A30375  29.264  12.303  13.723  0.1008  0.4488 -0.1944
 2589POSM   C2A30376  29.513  12.607  13.480 -0.0623 -0.0627  0.0198
 2589POSM   C3A30377  29.675  12.844  13.106 -0.1043  0.2301 -0.0317
 2589POSM   C1B30378  28.840  12.207  13.536  0.0383 -0.2974 -0.1671
 2589POSM   D2B30379  28.961  12.333  13.107  0.2459  0.1755 -0.2075
 2589POSM   C3B30380  28.748  12.652  12.902  0.0670 -0.3059  0.5863
 2589POSM   C4B30381  28.411  12.971  12.957 -0.3268 -0.3573 -0.3544
 2590DOPC   NC330382  23.337   5.672  12.788 -0.1665 -0.0362 -0.3263
 2590DOPC   PO430383  23.510   5.946  13.021 -0.0249  0.4761  0.0462
 2590DOPC   GL130384  23.519   6.105  12.709  0.3171  0.0639  0.2677
 2590DOPC   GL230385  23.501   6.413  12.659 -0.3874  0.2203  0.0217
 2590DOPC   C1A30386  23.104   6.081  12.560 -0.1299 -0.1932 -0.2864
 2590DOPC   D2A30387  22.723   6.212  12.347  0.3706 -0.0154 -0.0511
 2590DOPC   C3A30388  22.501   6.072  11.998 -0.1264  0.2072 -0.1409
 2590DOPC   C4A30389  22.214   6.109  11.609 -0.0669 -0.1727  0.0115
 2590DOPC   C1B30390  23.851   6.299  12.459  0.2135  0.1598 -0.0022
 2590DOPC   D2B30391  24.284   6.230  12.356 -0.0538 -0.0125  0.3847
 2590DOPC   C3B30392  24.580   5.933  12.173 -0.0982 -0.0505 -0.1097
 2590DOPC   C4B30393  24.879   5.715  11.871 -0.2500 -0.0806 -0.3905
 2591DOPC   NC330394  24.940   6.402  12.976  0.1668  0.0638  0.0911
 2591DOPC   PO430395  24.998   6.735  13.190  0.1005  0.2316  0.1281
 2591DOPC   GL130396  24.882   6.920  12.897 -0.2504  0.3253  0.0249
 2591DOPC   GL230397  24.883   7.182  12.888 -0.0710  0.0699 -0.1098
 2591DOPC   C1A30398  24.876   6.661  12.528  0.1715 -0.1679  0.0075
 2591DOPC   D2A30399  24.614   6.508  12.150 -0.1233  0.2296  0.2000
 2591DOPC   C3A30400  24.981   6.452  11.866  0.2211  0.0391 -0.0469
 2591DOPC   C4A30401  25.417   6.633  11.776 -0.0691 -0.3411 -0.2541
 2591DOPC   C1B30402  25.148   7.140  12.549 -0.0155  0.0929  0.1288
 2591DOPC   D2B30403  25.455   7.370  12.329 -0.1468 -0.0971  0.1733
 2591DOPC   C3B30404  25.479   7.153  11.913  0.2695 -0.0943  0.1050
 2591DOPC   C4B30405  25.730   7.209  11.552  0.1715 -0.1772 -0.2227
 2592DOPS   CNO30406  25.827   3.362  13.165  0.0826  0.2647  0.3219
 2592DOPS   PO430407  25.890   3.304  12.780  0.0689  0.0766 -0.4161
 2592DOPS   GL130408  26.048   3.327  12.432  0.1575  0.1797  0.4913
 2592DOPS   GL230409  25.888   3.457  12.182  0.1606 -0.1160 -0.1396
 2592DOPS   C1A30410  26.147   2.934  12.193  0.2464  0.2249  0.0733
 2592DOPS   D2A30411  26.017   2.709  11.855  0.1816 -0.0528 -0.0810
 2592DOPS   C3A30412  26.083   2.327  11.600  0.0824  0.0054 -0.1185
 2592DOPS   C4A30413  26.156   1.942  11.400  0.3107  0.1440 -0.1388
 2592DOPS   C1B30414  25.962   3.247  11.761  0.2574  0.4431 -0.0049
 2592DOPS   D2B30415  26.149   3.309  11.394 -0.0540 -0.1388  0.0587
 2592DOPS   C3B30416  26.462   3.530  11.051  0.0330 -0.1696 -0.0113
 2592DOPS   C4B30417  26.836   3.569  10.854 -0.2035  0.3784  0.0932
 2593DOPC   NC330418  33.882   9.302  14.760  0.2322  0.2218  0.0349
 2593DOPC   PO430419  33.776   8.963  14.936  0.0269 -0.0455 -0.0912
 2593DOPC   GL130420  33.662   9.015  14.467  0.2736 -0.3337 -0.1866
 2593DOPC   GL230421  33.367   9.116  14.412  0.0536  0.0321 -0.1658
 2593DOPC   C1A30422  33.761   9.267  14.073  0.5225 -0.1899 -0.2402
 2593DOPC   D2A30423  33.666   9.674  13.913 -0.0956  0.2091  0.0364
 2593DOPC   C3A30424  33.616  10.021  14.186  0.2872 -0.1800 -0.3760
 2593DOPC   C4A30425  33.705  10.314  14.497  0.1205 -0.0543  0.1736
 2593DOPC   C1B30426  33.368   9.537  14.351  0.3712 -0.2440  0.0336
 2593DOPC   D2B30427  33.826   9.673  14.398  0.1815  0.0540 -0.0511
 2593DOPC   C3B30428  34.152   9.581  14.150  0.0376  0.1794  0.0294
 2593DOPC   C4B30429  34.281   9.106  14.073  0.3708  0.0463  0.0769
 2594POSM   NC330430  30.945   3.954  13.670 -0.3768  0.3021  0.0966
 2594POSM   PO430431  31.325   4.026  13.738  0.0136 -0.2972 -0.1162
 2594POSM   AM130432  31.520   4.180  13.536 -0.0151 -0.1074  0.2690
 2594POSM   AM230433  31.684   4.163  13.292 -0.2429 -0.3861  0.1425
 2594POSM   T1A30434  31.478   4.609  13.254 -0.0549 -0.1144  0.0259
 2594POSM   C2A30435  31.463   5.057  13.312  0.1517 -0.0554 -0.2470
 2594POSM   C3A30436  31.656   5.432  13.458 -0.1110 -0.2171  0.0518
 2594POSM   C1B30437  31.508   4.193  12.985 -0.2538 -0.1078  0.0754
 2594POSM   D2B30438  31.312   4.319  12.557 -0.2149 -0.0669 -0.0993
 2594POSM   C3B30439  31.293   4.676  12.276 -0.4062 -0.1509  0.2358
 2594POSM   C4B30440  31.282   5.085  12.123  0.0252  0.1272 -0.1374
 2595DOPC   NC330441  30.276   3.353  14.050  0.1026  0.0276 -0.0587
 2595DOPC   PO430442  30.324   3.718  13.919  0.2782 -0.0093 -0.2561
 2595DOPC   GL130443  30.346   3.925  13.641  0.0376  0.2764 -0.0168
 2595DOPC   GL230444  29.999   3.889  13.497 -0.1573  0.3049 -0.1593
 2595DOPC   C1A30445  30.574   3.909  13.279  0.2133 -0.0787  0.0986
 2595DOPC   D2A30446  30.525   3.870  12.798  0.1496 -0.0042 -0.1738
 2595DOPC   C3A30447  30.459   4.260  12.516 -0.0773 -0.2582  0.0802
 2595DOPC   C4A30448  30.393   4.525  12.086  0.0990  0.1053 -0.1579
 2595DOPC   C1B30449  29.880   3.675  13.107 -0.0257  0.0503 -0.0296
 2595DOPC   D2B30450  29.755   3.254  12.927 -0.1312 -0.0697 -0.2558
 2595DOPC   C3B30451  29.801   3.173  12.489  0.0750  0.1169  0.1038
 2595DOPC   C4B30452  29.625   3.071  12.077  0.2666  0.0913  0.1302
 2596DOPC   NC330453  30.365   2.279  14.035  0.0522 -0.0392  0.1135
 2596DOPC   PO430454  30.245   1.991  13.788  0.1121  0.1913  0.2059
 2596DOPC   GL130455  30.205   2.073  13.331 -0.1632 -0.2149 -0.0874
 2596DOPC   GL230456  30.490   2.153  13.242 -0.0686  0.0223  0.2459
 2596DOPC   C1A30457  30.142   1.909  12.925  0.0246 -0.1010 -0.0690
 2596DOPC   D2A30458  29.765   1.827  12.663  0.1755 -0.0858 -0.1930
 2596DOPC   C3A30459  29.650   1.658  12.254 -0.0287  0.2841 -0.0858
 2596DOPC   C4A30460  29.709   1.522  11.791 -0.1063 -0.1856  0.2056
 2596DOPC   C1B30461  30.585   2.027  12.806 -0.0187  0.0930 -0.3494
 2596DOPC   D2B30462  30.441   2.035  12.381  0.2357 -0.0807  0.0381
 2596DOPC   C3B30463  30.598   2.397  12.029 -0.2211  0.2134  0.0961
 2596DOPC   C4B30464  30.670   2.848  11.922  0.0010 -0.2651 -0.1701
 2597DOPE   NH330465  26.884   0.535  12.683 -0.0220 -0.1079  0.0109
 2597DOPE   PO430466  27.050   0.221  12.655  0.0465  0.1476  0.2479
 2597DOPE   GL130467  26.956   0.382  12.228  0.2390 -0.2043  0.0660
 2597DOPE   GL230468  27.148   0.518  12.220 -0.1945  0.2635 -0.0986
 2597DOPE   C1A30469  26.809   0.300  11.785 -0.0902 -0.0904 -0.1426
 2597DOPE   D2A30470  26.755   0.141  11.360 -0.0740  0.0502 -0.0512
 2597DOPE   C3A30471  27.007   0.454  11.096  0.1000 -0.2094 -0.1924
 2597DOPE   C4A30472  27.343   0.698  10.914  0.0249  0.2492 -0.0198
 2597DOPE   C1B30473  27.080   0.719  11.823 -0.0528  0.2791 -0.2411
 2597DOPE   D2B30474  26.825   1.043  11.636 -0.0264 -0.0299 -0.0439
 2597DOPE   C3B30475  26.994   1.131  11.223 -0.2901 -0.2375  0.1546
 2597DOPE   C4B30476  26.987   1.016  10.823  0.1351  0.2694 -0.1198
 2598POSM   NC330477  33.230   2.083  14.243 -0.4173  0.1342  0.1018
 2598POSM   PO430478  33.625   2.091  14.129  0.2583 -0.0256 -0.0742
 2598POSM   AM130479  33.683   2.054  13.821  0.1100 -0.0339 -0.0160
 2598POSM   AM230480  33.837   2.033  13.620 -0.0393  0.0604  0.2268
 2598POSM   T1A30481  33.552   2.307  13.380 -0.0736 -0.1154 -0.1055
 2598POSM   C2A30482  33.358   2.477  12.995  0.0436 -0.0080  0.1192
 2598POSM   C3A30483  33.177   2.709  12.684  0.2095 -0.0440  0.0992
 2598POSM   C1B30484  34.074   1.944  13.403 -0.0975 -0.1243 -0.1371
 2598POSM   D2B30485  34.368   2.001  12.985 -0.0405  0.1303  0.1340
 2598POSM   C3B30486  34.592   1.930  12.510 -0.4644  0.0307 -0.5339
 2598POSM   C4B30487  34.423   1.993  12.064  0.2052  0.2785 -0.0784
 2599POSM   NC330488  25.998   8.147  13.685 -0.0307 -0.0457  0.2558
 2599POSM   PO430489  26.010   8.526  13.748 -0.0392  0.1758  0.0762
 2599POSM   AM130490  25.889   8.510  13.479 -0.3597 -0.1478  0.2776
 2599POSM   AM230491  25.685   8.366  13.355  0.0068 -0.1463  0.3965
 2599POSM   T1A30492  25.952   8.569  13.019 -0.3537  0.1481 -0.2876
 2599POSM   C2A30493  25.967   8.334  12.658 -0.0406  0.3545  0.1974
 2599POSM   C3A30494  26.118   7.965  12.477  0.1973 -0.1271  0.0878
 2599POSM   C1B30495  25.563   8.311  13.062 -0.1202 -0.3780 -0.2695
 2599POSM   D2B30496  25.569   7.968  12.707 -0.0774  0.2816  0.0458
 2599POSM   C3B30497  25.327   8.062  12.312  0.2680  0.2325 -0.3350
 2599POSM   C4B30498  25.422   8.207  11.875  0.2015 -0.1736  0.3605
 2600DOPE   NH330499  23.605   6.436  13.197 -0.0762 -0.1816 -0.0111
 2600DOPE   PO430500  23.452   6.376  13.475 -0.2197 -0.2292  0.4137
 2600DOPE   GL130501  23.049   6.393  13.167 -0.0394  0.1766 -0.0846
 2600DOPE   GL230502  23.096   6.426  12.908  0.2062 -0.1109  0.0731
 2600DOPE   C1A30503  22.715   6.050  12.968 -0.4500 -0.1553  0.0972
 2600DOPE   D2A30504  22.847   5.656  12.700  0.0109  0.1821 -0.1594
 2600DOPE   C3A30505  22.755   5.557  12.246  0.1756  0.1440 -0.0483
 2600DOPE   C4A30506  22.797   5.696  11.796 -0.2552  0.3065  0.3075
 2600DOPE   C1B30507  22.694   6.586  12.700  0.2100  0.0851 -0.0615
 2600DOPE   D2B30508  22.524   6.957  12.449  0.0928  0.0857 -0.2372
 2600DOPE   C3B30509  22.491   7.092  12.023 -0.2170 -0.3110  0.1281
 2600DOPE   C4B30510  22.573   7.459  11.740 -0.1182  0.1396  0.3721
 2601POSM   NC330511  26.789   2.276  13.107  0.0285 -0.0599 -0.1037
 2601POSM   PO430512  27.074   2.556  13.238 -0.2546 -0.1803 -0.1754
 2601POSM   AM130513  27.046   2.677  12.894 -0.2476  0.0339 -0.5131
 2601POSM   AM230514  26.822   2.672  12.708 -0.2252 -0.0388 -0.0774
 2601POSM   T1A30515  27.304   2.814  12.498 -0.0563 -0.0278  0.1437
 2601POSM   C2A30516  27.533   2.880  12.133 -0.0873  0.2453  0.1980
 2601POSM   C3A30517  27.528   2.875  11.683 -0.3524  0.1092 -0.0810
 2601POSM   C1B30518  26.783   2.742  12.375 -0.0558  0.2448 -0.0044
 2601POSM   D2B30519  27.020   2.975  12.053  0.1673 -0.1423 -0.3901
 2601POSM   C3B30520  27.077   3.074  11.602  0.0758  0.2819 -0.0913
 2601POSM   C4B30521  26.887   3.266  11.225  0.1337 -0.0829 -0.0302
 2602DOPE   NH330522  26.357  10.630  13.787 -0.0863 -0.0472 -0.3090
 2602DOPE   PO430523  26.565  10.604  13.557  0.2322 -0.1426  0.0650
 2602DOPE   GL130524  26.722  10.486  13.236 -0.0487 -0.1984  0.1727
 2602DOPE   GL230525  26.875  10.240  13.189  0.0825 -0.0409  0.2075
 2602DOPE   C1A30526  26.797  10.544  12.774  0.3762 -0.1638 -0.0354
 2602DOPE   D2A30527  27.091  10.443  12.413 -0.2306 -0.0405 -0.0421
 2602DOPE   C3A30528  27.203  10.721  12.108 -0.2857  0.2715 -0.1680
 2602DOPE   C4A30529  27.368  10.900  11.725 -0.0452 -0.1759  0.1233
 2602DOPE   C1B30530  26.938  10.022  12.777  0.3038 -0.0736  0.0074
 2602DOPE   D2B30531  27.030   9.985  12.347 -0.4085 -0.0502 -0.0666
 2602DOPE   C3B30532  26.814   9.845  11.957  0.1805  0.4522 -0.3305
 2602DOPE   C4B30533  26.526  10.078  11.674 -0.1651  0.2492 -0.2147
 2603POSM   NC330534  23.717   5.476  13.194  0.0830 -0.0965 -0.3743
 2603POSM   PO430535  23.642   5.278  12.842 -0.1680 -0.0669 -0.2022
 2603POSM   AM130536  23.722   5.329  12.492 -0.4540 -0.0256  0.1078
 2603POSM   AM230537  23.940   5.380  12.305  0.1631 -0.1282  0.1457
 2603POSM   T1A30538  23.577   5.338  12.016  0.0295 -0.0538  0.0821
 2603POSM   C2A30539  23.568   5.325  11.548  0.1159 -0.0489 -0.0931
 2603POSM   C3A30540  23.701   5.206  11.187 -0.0859 -0.4229  0.3739
 2603POSM   C1B30541  24.020   5.689  12.178  0.0658  0.1485  0.0495
 2603POSM   D2B30542  24.197   5.919  11.816 -0.4464 -0.1045 -0.1534
 2603POSM   C3B30543  24.490   5.641  11.619  0.0496  0.1083 -0.0772
 2603POSM   C4B30544  24.806   5.287  11.635 -0.1340 -0.0733 -0.0127
 2604DOPS   CNO30545  33.445   4.783  14.643 -0.0690 -0.3044  0.1712
 2604DOPS   PO430546  33.401   5.100  14.406 -0.0632 -0.1542 -0.2134
 2604DOPS   GL130547  33.642   5.092  14.041 -0.2922  0.0362  0.2267
 2604DOPS   GL230548  33.753   4.838  14.051 -0.0362 -0.2662 -0.0332
 2604DOPS   C1A30549  33.810   5.417  13.744 -0.2843  0.1296  0.0291
 2604DOPS   D2A30550  33.584   5.638  13.399 -0.0207  0.1538  0.1385
 2604DOPS   C3A30551  33.848   5.553  13.014 -0.3612 -0.3774  0.1073
 2604DOPS   C4A30552  33.948   5.707  12.577  0.2330  0.0730  0.2156
 2604DOPS   C1B30553  33.585   4.812  13.646  0.2410 -0.0166  0.2019
 2604DOPS   D2B30554  33.266   4.904  13.325 -0.2569 -0.1500  0.0218
 2604DOPS   C3B30555  33.310   5.086  12.883 -0.0514  0.0935 -0.0427
 2604DOPS   C4B30556  33.453   5.161  12.402 -0.1913 -0.0088  0.0836
 2605DOPC   NC330557  28.713   9.042  13.624 -0.2765 -0.0561 -0.0532
 2605DOPC   PO430558  28.895   9.215  13.915 -0.3198 -0.0980  0.0407
 2605DOPC   GL130559  28.857   9.539  13.694 -0.1701  0.0564  0.0880
 2605DOPC   GL230560  28.627   9.717  13.670  0.3049  0.0833 -0.0404
 2605DOPC   C1A30561  29.091   9.368  13.327 -0.2318  0.0079 -0.2047
 2605DOPC   D2A30562  29.326   9.192  13.024 -0.0415 -0.1625  0.1957
 2605DOPC   C3A30563  29.287   9.306  12.582  0.0989  0.0455  0.1148
 2605DOPC   C4A30564  29.189   9.473  12.136  0.0105 -0.1573 -0.1655
 2605DOPC   C1B30565  28.618   9.684  13.223 -0.1953 -0.2140 -0.0856
 2605DOPC   D2B30566  28.372   9.498  12.861 -0.1554  0.0578 -0.0469
 2605DOPC   C3B30567  28.410   9.358  12.399 -0.0954  0.1161  0.0314
 2605DOPC   C4B30568  28.470   9.456  11.917 -0.2770 -0.0292  0.0035
 2606DOPS   CNO30569  23.466  13.958  13.574 -0.1734  0.0553 -0.0579
 2606DOPS   PO430570  23.775  14.048  13.407 -0.2274  0.3570  0.1386
 2606DOPS   GL130571  24.001  14.068  13.073 -0.1033  0.2830 -0.2168
 2606DOPS   GL230572  23.812  13.903  12.863 -0.2335  0.1465 -0.0360
 2606DOPS   C1A30573  24.367  13.926  12.880  0.0668  0.0757 -0.3973
 2606DOPS   D2A30574  24.594  13.560  12.701  0.1271 -0.1523  0.1309
 2606DOPS   C3A30575  24.399  13.410  12.281 -0.1696  0.2141  0.0233
 2606DOPS   C4A30576  24.372  13.277  11.838  0.0390  0.1953  0.1176
 2606DOPS   C1B30577  24.025  14.166  12.582  0.0157  0.2255 -0.1529
 2606DOPS   D2B30578  24.023  14.222  12.124  0.0722 -0.2885  0.2066
 2606DOPS   C3B30579  23.908  14.688  12.024  0.1468  0.0558  0.1400
 2606DOPS   C4B30580  23.886  15.087  11.816  0.1685 -0.0407  0.0873
 2607DOPE   NH330581   0.584   8.183  15.270  0.0304  0.3439  0.0257
 2607DOPE   PO430582   0.500   8.516  15.227 -0.0774 -0.0806  0.0298
 2607DOPE   GL130583   0.592   8.547  14.830  0.1710 -0.1481 -0.5445
 2607DOPE   GL230584   0.437   8.518  14.605  0.0582  0.1785 -0.0619
 2607DOPE   C1A30585   0.914   8.731  14.629  0.1737  0.1362 -0.0767
 2607DOPE   D2A30586   1.197   8.684  14.237 -0.1984 -0.1299 -0.1995
 2607DOPE   C3A30587   1.148   8.770  13.769 -0.0180  0.2353  0.1912
 2607DOPE   C4A30588   0.909   9.035  13.459 -0.0238  0.0429 -0.1557
 2607DOPE   C1B30589   0.361   8.661  14.206 -0.4143  0.2519  0.2201
 2607DOPE   D2B30590   0.401   8.779  13.728  0.3148 -0.0078  0.2330
 2607DOPE   C3B30591   0.765   8.558  13.519  0.1019  0.2291  0.0435
 2607DOPE   C4B30592   1.162   8.524  13.270 -0.1651 -0.1998  0.3074
 2608DOPC   NC330593  24.277   7.865  13.701 -0.1159 -0.0571 -0.1003
 2608DOPC   PO430594  23.886   8.067  13.708  0.0440 -0.2935  0.0305
 2608DOPC   GL130595  23.931   7.881  13.309  0.0160 -0.1541  0.3051
 2608DOPC   GL230596  23.719   7.807  13.061 -0.0337 -0.2901  0.0005
 2608DOPC   C1A30597  24.242   7.869  12.962  0.1157  0.1746 -0.0728
 2608DOPC   D2A30598  24.662   7.742  12.878 -0.0915  0.0153 -0.2464
 2608DOPC   C3A30599  24.703   7.585  12.455  0.1496 -0.3409  0.2559
 2608DOPC   C4A30600  24.617   7.607  12.015  0.1178 -0.0806  0.2046
 2608DOPC   C1B30601  23.859   7.712  12.682 -0.0568 -0.0655  0.0761
 2608DOPC   D2B30602  24.174   7.797  12.395  0.0698 -0.2035 -0.1849
 2608DOPC   C3B30603  23.896   7.857  12.053  0.1768 -0.0081  0.1702
 2608DOPC   C4B30604  23.628   8.055  11.725 -0.5404 -0.0707  0.1204
 2609DOPS   CNO30605  21.795   4.057  13.162 -0.3963 -0.0474 -0.0662
 2609DOPS   PO430606  21.464   4.089  13.362  0.2160 -0.0255  0.0226
 2609DOPS   GL130607  21.255   4.258  13.073  0.2194  0.0327  0.2935
 2609DOPS   GL230608  21.419   4.331  12.853  0.0531 -0.1428  0.0859
 2609DOPS   C1A30609  20.956   4.494  12.789  0.1372  0.2873 -0.3564
 2609DOPS   D2A30610  20.823   4.522  12.337  0.0048 -0.2035  0.1713
 2609DOPS   C3A30611  21.048   4.362  11.983  0.1039  0.0513 -0.1093
 2609DOPS   C4A30612  21.122   4.573  11.550  0.1068  0.0854  0.0459
 2609DOPS   C1B30613  21.261   4.111  12.485 -0.0838  0.2589 -0.1929
 2609DOPS   D2B30614  21.073   3.839  12.141 -0.2458 -0.1194 -0.1593
 2609DOPS   C3B30615  21.189   3.919  11.714 -0.0657 -0.2133  0.2192
 2609DOPS   C4B30616  21.468   4.192  11.529 -0.3492  0.1443  0.0423
 2610DOPC   NC330617  26.263   3.553  13.054  0.0296 -0.1306 -0.0664
 2610DOPC   PO430618  26.336   3.176  13.128  0.0874  0.1327 -0.2464
 2610DOPC   GL130619  26.319   3.207  12.754 -0.2795  0.2584  0.5114
 2610DOPC   GL230620  26.624   3.145  12.700  0.0070  0.1860  0.1295
 2610DOPC   C1A30621  26.505   3.645  12.579 -0.1114  0.1449  0.1232
 2610DOPC   D2A30622  26.606   3.979  12.272 -0.1118 -0.0638 -0.1251
 2610DOPC   C3A30623  26.414   4.373  12.139 -0.1231 -0.1285  0.0411
 2610DOPC   C4A30624  26.617   4.743  12.087  0.0077 -0.0662  0.2407
 2610DOPC   C1B30625  26.517   3.249  12.257 -0.0173 -0.0522 -0.0804
 2610DOPC   D2B30626  26.320   3.633  11.984 -0.0414  0.3534 -0.1053
 2610DOPC   C3B30627  26.466   4.027  11.774  0.1637  0.0835 -0.0675
 2610DOPC   C4B30628  26.684   4.410  11.705  0.0008  0.1122 -0.0250
 2611DOPE   NH330629  32.913   6.472  14.256 -0.0144  0.3729  0.3692
 2611DOPE   PO430630  32.758   6.687  14.145  0.0557 -0.0307  0.0441
 2611DOPE   GL130631  33.068   6.710  13.878  0.3120 -0.3622 -0.1709
 2611DOPE   GL230632  32.848   6.651  13.694 -0.3422  0.1841  0.0974
 2611DOPE   C1A30633  33.242   7.017  13.584  0.1631 -0.1821 -0.0159
 2611DOPE   D2A30634  33.546   7.102  13.200 -0.0464  0.3601  0.2292
 2611DOPE   C3A30635  33.922   7.215  13.448  0.1220 -0.1828 -0.0197
 2611DOPE   C4A30636  34.333   7.311  13.533 -0.1947  0.0344 -0.1905
 2611DOPE   C1B30637  32.828   6.928  13.287 -0.0836  0.0651 -0.1160
 2611DOPE   D2B30638  32.623   7.308  13.139 -0.2313 -0.1166 -0.1833
 2611DOPE   C3B30639  32.435   7.647  12.871  0.0788  0.1590  0.1955
 2611DOPE   C4B30640  32.525   8.053  12.615 -0.1704 -0.2912 -0.0890
 2612POSM   NC330641  30.538  10.944  14.285 -0.0330  0.0775 -0.0185
 2612POSM   PO430642  30.486  10.587  14.291  0.1363  0.1748  0.0119
 2612POSM   AM130643  30.345  10.488  14.025 -0.3302  0.0450  0.0972
 2612POSM   AM230644  30.126  10.467  13.833 -0.1951  0.2314  0.1596
 2612POSM   T1A30645  30.652  10.514  13.570  0.1814  0.1105 -0.0926
 2612POSM   C2A30646  30.748  10.762  13.226  0.2104  0.0605 -0.0805
 2612POSM   C3A30647  30.828  11.205  13.315 -0.2242  0.1421 -0.3432
 2612POSM   C1B30648  30.116  10.513  13.543 -0.0825 -0.2708  0.2218
 2612POSM   D2B30649  30.224  10.703  13.175  0.0349 -0.1203  0.1400
 2612POSM   C3B30650  29.967  11.065  13.035 -0.0342  0.1132  0.0228
 2612POSM   C4B30651  29.566  11.098  12.943 -0.2553 -0.2459 -0.0310
 2613DOPE   NH330652  29.694   9.682  14.156 -0.0081 -0.2204 -0.0576
 2613DOPE   PO430653  29.994   9.596  14.247 -0.0386  0.0989  0.0733
 2613DOPE   GL130654  30.119   9.682  13.864  0.2768  0.2529 -0.1830
 2613DOPE   GL230655  29.958   9.576  13.696 -0.4364 -0.1386  0.5697
 2613DOPE   C1A30656  30.129  10.012  13.550  0.0842 -0.0260 -0.0277
 2613DOPE   D2A30657  30.250  10.222  13.172  0.2795 -0.1929  0.0108
 2613DOPE   C3A30658  30.087  10.372  12.750  0.1493 -0.1017 -0.0846
 2613DOPE   C4A30659  29.863  10.336  12.290 -0.1156  0.2541 -0.3663
 2613DOPE   C1B30660  29.931   9.646  13.232  0.3293 -0.0408  0.2595
 2613DOPE   D2B30661  29.680   9.477  12.851 -0.1608  0.2086  0.1464
 2613DOPE   C3B30662  29.834   9.487  12.435  0.1007  0.1913  0.3304
 2613DOPE   C4B30663  29.692   9.447  11.948 -0.0078  0.1073  0.2246
 2614POSM   NC330664  31.084  12.066  14.896 -0.1990 -0.1318 -0.0002
 2614POSM   PO430665  30.965  11.664  14.888  0.0700 -0.2802  0.0355
 2614POSM   AM130666  31.125  11.630  14.606 -0.1029 -0.0895  0.1466
 2614POSM   AM230667  31.365  11.516  14.510  0.0843 -0.1713 -0.2167
 2614POSM   T1A30668  31.151  11.619  14.105 -0.1764 -0.0612 -0.0294
 2614POSM   C2A30669  31.429  11.828  13.817  0.1679  0.2699  0.0433
 2614POSM   C3A30670  31.832  12.032  13.947 -0.2018 -0.0793  0.0721
 2614POSM   C1B30671  31.535  11.422  14.237 -0.0449 -0.2494 -0.0953
 2614POSM   D2B30672  31.716  11.372  13.830 -0.0899 -0.0044 -0.2697
 2614POSM   C3B30673  31.739  11.239  13.409 -0.0440 -0.0802 -0.1483
 2614POSM   C4B30674  31.809  11.084  12.997  0.1856  0.0091 -0.3558
 2615DOPC   NC330675  30.665   5.907  13.624  0.0280  0.2953  0.2326
 2615DOPC   PO430676  30.388   6.150  13.724  0.0018  0.0184 -0.0227
 2615DOPC   GL130677  30.405   6.264  13.421  0.3370  0.0906 -0.2452
 2615DOPC   GL230678  30.228   6.430  13.263 -0.5188 -0.1329 -0.0012
 2615DOPC   C1A30679  30.671   6.319  13.032 -0.1054 -0.1217 -0.0674
 2615DOPC   D2A30680  30.624   6.251  12.610  0.0478  0.1398 -0.4707
 2615DOPC   C3A30681  30.966   6.230  12.325 -0.0750 -0.0627  0.2510
 2615DOPC   C4A30682  31.328   6.014  12.150 -0.0259  0.0278  0.2325
 2615DOPC   C1B30683  29.816   6.619  13.212 -0.0040 -0.2459 -0.0205
 2615DOPC   D2B30684  29.494   6.467  12.867  0.0010 -0.0597  0.0593
 2615DOPC   C3B30685  29.548   6.389  12.426 -0.2743  0.2543 -0.0490
 2615DOPC   C4B30686  29.659   6.389  12.023  0.0071  0.0290 -0.2944
 2616DOPE   NH330687  28.992  10.739  14.143 -0.0467  0.1559 -0.1933
 2616DOPE   PO430688  28.944  11.030  13.989 -0.0065 -0.0847 -0.0356
 2616DOPE   GL130689  29.227  10.867  13.745  0.2940 -0.1317 -0.1341
 2616DOPE   GL230690  29.056  10.897  13.519 -0.0903  0.4986  0.3656
 2616DOPE   C1A30691  29.476  11.163  13.458  0.2151  0.1325 -0.1917
 2616DOPE   D2A30692  29.532  11.580  13.204 -0.0179  0.0585  0.1790
 2616DOPE   C3A30693  29.327  11.492  12.755 -0.0681 -0.2471 -0.1491
 2616DOPE   C4A30694  29.208  11.484  12.290  0.1054  0.0992  0.2097
 2616DOPE   C1B30695  29.065  10.880  13.057 -0.1792 -0.3007 -0.1081
 2616DOPE   D2B30696  29.185  11.060  12.628  0.1087  0.2280  0.2681
 2616DOPE   C3B30697  29.588  11.168  12.413  0.2102  0.0041  0.1301
 2616DOPE   C4B30698  30.011  10.949  12.378 -0.3593 -0.0205  0.2764
 2617POSM   NC330699  29.057   0.760  13.117  0.3135 -0.2917 -0.0713
 2617POSM   PO430700  28.789   1.055  13.186 -0.1618  0.2705  0.1669
 2617POSM   AM130701  28.678   1.204  12.904 -0.0713 -0.2170  0.1080
 2617POSM   AM230702  28.541   1.121  12.660  0.4089 -0.0992 -0.0180
 2617POSM   T1A30703  28.814   1.454  12.449  0.3328 -0.1250  0.0694
 2617POSM   C2A30704  28.873   1.427  11.980  0.0981  0.0848  0.0065
 2617POSM   C3A30705  28.812   1.317  11.553 -0.0048  0.0952 -0.2777
 2617POSM   C1B30706  28.576   1.022  12.306 -0.2223 -0.0305  0.4089
 2617POSM   D2B30707  28.589   0.809  11.923 -0.4335 -0.0912 -0.3557
 2617POSM   C3B30708  28.577   0.861  11.480  0.1827  0.3284  0.1276
 2617POSM   C4B30709  28.364   0.762  11.070  0.1329  0.1373 -0.2122
 2618DOPE   NH330710  30.524   8.269  14.015 -0.0392  0.0305 -0.0917
 2618DOPE   PO430711  30.304   8.048  13.785  0.0864 -0.0602 -0.1134
 2618DOPE   GL130712  30.355   7.867  13.440  0.1535  0.1504 -0.1935
 2618DOPE   GL230713  30.427   8.055  13.324  0.3018 -0.4964 -0.1951
 2618DOPE   C1A30714  30.654   7.699  13.118  0.2058 -0.0230 -0.1366
 2618DOPE   D2A30715  30.795   7.814  12.691  0.4112 -0.2362  0.1761
 2618DOPE   C3A30716  31.168   7.609  12.547  0.1572 -0.2107  0.0888
 2618DOPE   C4A30717  31.538   7.319  12.468  0.0498 -0.4312  0.0930
 2618DOPE   C1B30718  30.071   8.330  13.148 -0.2667 -0.0952  0.0931
 2618DOPE   D2B30719  29.863   8.501  12.776  0.5595  0.2213 -0.1668
 2618DOPE   C3B30720  29.937   8.497  12.376  0.2391 -0.0464 -0.2892
 2618DOPE   C4B30721  30.317   8.583  12.162 -0.2669  0.0003 -0.1668
 2619DOPE   NH330722  23.404   3.017  13.503  0.0797  0.2453 -0.1688
 2619DOPE   PO430723  23.088   3.040  13.453 -0.2163  0.0938  0.1187
 2619DOPE   GL130724  23.006   3.195  13.154 -0.3385  0.2040 -0.1428
 2619DOPE   GL230725  23.247   3.129  12.983  0.0963  0.1515 -0.1176
 2619DOPE   C1A30726  22.845   2.959  12.805 -0.2717  0.1472  0.1939
 2619DOPE   D2A30727  22.640   2.866  12.405 -0.0932  0.3968  0.0389
 2619DOPE   C3A30728  22.591   2.879  11.955 -0.5042 -0.2033  0.0179
 2619DOPE   C4A30729  22.558   2.797  11.524 -0.1988 -0.0423  0.1111
 2619DOPE   C1B30730  23.236   2.780  12.648  0.1682  0.0849 -0.0955
 2619DOPE   D2B30731  23.156   2.574  12.289  0.3001 -0.2624  0.2286
 2619DOPE   C3B30732  23.105   2.675  11.843 -0.0286  0.4360 -0.0090
 2619DOPE   C4B30733  23.421   2.819  11.492  0.2080 -0.2109 -0.0764
 2620DOPE   NH330734  30.289   8.734  14.032 -0.1434  0.1451  0.0658
 2620DOPE   PO430735  30.595   8.780  13.949  0.0393 -0.1231 -0.0152
 2620DOPE   GL130736  30.738   8.872  13.641 -0.5016  0.2764  0.1673
 2620DOPE   GL230737  31.002   8.975  13.573 -0.0922  0.2410  0.0142
 2620DOPE   C1A30738  30.597   9.135  13.266  0.2485 -0.0103 -0.0454
 2620DOPE   D2A30739  30.760   9.092  12.847 -0.0830  0.0554 -0.0079
 2620DOPE   C3A30740  30.794   9.497  12.606 -0.2536 -0.3531 -0.1090
 2620DOPE   C4A30741  30.840   9.589  12.145  0.2434  0.0871 -0.1121
 2620DOPE   C1B30742  31.114   9.285  13.254 -0.1034 -0.2371  0.2839
 2620DOPE   D2B30743  31.365   9.660  13.098 -0.0770  0.0506  0.0492
 2620DOPE   C3B30744  31.125   9.917  12.794  0.0826  0.3044 -0.1051
 2620DOPE   C4B30745  31.078  10.322  12.636  0.0759 -0.2468 -0.2595
 2621DOPE   NH330746  24.969   2.862  12.807 -0.0341 -0.2293  0.3033
 2621DOPE   PO430747  24.805   2.660  12.630  0.2506  0.1209 -0.5885
 2621DOPE   GL130748  24.896   2.627  12.322 -0.0916  0.1190 -0.1247
 2621DOPE   GL230749  25.088   2.786  12.227  0.2218  0.0348  0.1400
 2621DOPE   C1A30750  24.684   2.739  11.966  0.0491 -0.0070 -0.1548
 2621DOPE   D2A30751  24.480   2.411  11.756 -0.1013 -0.0706  0.0865
 2621DOPE   C3A30752  24.639   2.669  11.333 -0.1339  0.0203  0.0191
 2621DOPE   C4A30753  24.628   3.141  11.256  0.2692  0.0445  0.0151
 2621DOPE   C1B30754  24.986   3.189  12.105  0.0724  0.0491 -0.1858
 2621DOPE   D2B30755  24.568   3.385  12.102 -0.1006 -0.2055  0.3079
 2621DOPE   C3B30756  24.350   3.543  11.689 -0.2324 -0.1925  0.2381
 2621DOPE   C4B30757  24.112   3.455  11.346  0.1033 -0.2093  0.1356
 2622POSM   NC330758  32.695   4.195  14.178 -0.0127 -0.1617 -0.3861
 2622POSM   PO430759  32.647   3.796  14.216 -0.2344  0.0818  0.0576
 2622POSM   AM130760  32.857   3.842  13.952  0.1940  0.1068  0.2697
 2622POSM   AM230761  32.812   4.040  13.743 -0.3449 -0.1084 -0.0601
 2622POSM   T1A30762  32.992   3.721  13.487 -0.2988 -0.2430  0.3020
 2622POSM   C2A30763  32.931   3.608  13.025 -0.2160  0.0420  0.1517
 2622POSM   C3A30764  32.798   3.274  12.774 -0.2207 -0.1671 -0.1261
 2622POSM   C1B30765  32.731   4.177  13.445 -0.0108  0.1385 -0.0803
 2622POSM   D2B30766  32.638   4.516  13.174  0.0512 -0.1243  0.2159
 2622POSM   C3B30767  32.640   4.462  12.707 -0.0273  0.1305  0.1605
 2622POSM   C4B30768  32.761   4.260  12.324 -0.0471  0.1509 -0.2935
 2623DOPE   NH330769  34.605   7.587  14.914 -0.3595 -0.3840  0.0186
 2623DOPE   PO430770  34.312   7.671  14.763  0.0806  0.0176 -0.4585
 2623DOPE   GL130771  34.028   7.967  14.544 -0.0964  0.2252  0.4993
 2623DOPE   GL230772  33.961   7.746  14.317 -0.0938  0.1929  0.3089
 2623DOPE   C1A30773  34.263   8.360  14.387  0.1889 -0.1192  0.4021
 2623DOPE   D2A30774  34.388   8.538  13.990  0.2629 -0.0513  0.0418
 2623DOPE   C3A30775  34.344   8.877  13.603 -0.0289  0.0439  0.2273
 2623DOPE   C4A30776  34.234   9.190  13.258 -0.0052 -0.0324 -0.0455
 2623DOPE   C1B30777  33.912   7.642  13.846 -0.2339  0.3646  0.1354
 2623DOPE   D2B30778  34.100   7.771  13.446 -0.1591 -0.2178  0.3250
 2623DOPE   C3B30779  34.317   7.771  13.043  0.1636  0.1215  0.0272
 2623DOPE   C4B30780  34.667   7.671  12.804 -0.1906  0.3214  0.1773
 2624DOPE   NH330781   1.096   9.743  15.258  0.0373 -0.0559 -0.0462
 2624DOPE   PO430782   0.875   9.541  15.247 -0.1280 -0.1267 -0.5149
 2624DOPE   GL130783   0.932   9.468  14.941  0.1247  0.1119 -0.0433
 2624DOPE   GL230784   0.989   9.125  14.932  0.0077 -0.1578  0.1612
 2624DOPE   C1A30785   1.164   9.752  14.634 -0.1477  0.1447 -0.0997
 2624DOPE   D2A30786   1.353   9.923  14.194 -0.1558  0.1194 -0.1419
 2624DOPE   C3A30787   1.573   9.799  13.769  0.2633  0.2455 -0.0108
 2624DOPE   C4A30788   1.670   9.743  13.320 -0.1996  0.3171 -0.0309
 2624DOPE   C1B30789   0.670   9.174  14.534 -0.0607  0.0504  0.0360
 2624DOPE   D2B30790   0.481   9.347  14.158  0.0545 -0.0950  0.3662
 2624DOPE   C3B30791   0.504   9.237  13.708  0.0570 -0.1813 -0.0296
 2624DOPE   C4B30792   0.538   9.557  13.314  0.0082  0.2867 -0.1794
 2625POSM   NC330793  31.816   1.570  13.264 -0.1492 -0.3077 -0.0915
 2625POSM   PO430794  32.008   1.807  13.561 -0.0255  0.0393  0.1458
 2625POSM   AM130795  32.210   2.071  13.417 -0.2935  0.4524 -0.3187
 2625POSM   AM230796  32.167   2.166  13.148 -0.0473 -0.1500 -0.0487
 2625POSM   T1A30797  32.670   2.260  13.257 -0.0383  0.0765 -0.1350
 2625POSM   C2A30798  32.980   2.583  13.264  0.0309 -0.0267 -0.1510
 2625POSM   C3A30799  33.326   2.691  13.541  0.0906 -0.0274 -0.0630
 2625POSM   C1B30800  32.370   2.114  12.901 -0.3940  0.0019 -0.1081
 2625POSM   D2B30801  32.537   1.995  12.440 -0.1971 -0.2038 -0.4146
 2625POSM   C3B30802  32.470   2.192  12.071 -0.1921  0.1324 -0.0149
 2625POSM   C4B30803  32.389   2.127  11.601  0.0068 -0.0650  0.1321
 2626DOPC   NC330804  25.553  10.274  13.899  0.2346 -0.0817 -0.0928
 2626DOPC   PO430805  25.883  10.390  13.701  0.1307  0.1829 -0.0597
 2626DOPC   GL130806  25.784  10.216  13.346  0.0918 -0.0972 -0.1253
 2626DOPC   GL230807  25.916  10.318  13.153  0.0225  0.0723 -0.0245
 2626DOPC   C1A30808  25.430  10.446  13.069  0.2239 -0.0793  0.1267
 2626DOPC   D2A30809  25.143  10.306  12.772  0.0376 -0.2090  0.0029
 2626DOPC   C3A30810  25.163  10.332  12.325 -0.0501 -0.1212 -0.0652
 2626DOPC   C4A30811  25.564  10.072  12.211  0.0635  0.0111  0.3368
 2626DOPC   C1B30812  25.658  10.071  12.850 -0.0031 -0.0693  0.1803
 2626DOPC   D2B30813  25.297   9.809  12.699  0.1851 -0.2173 -0.0794
 2626DOPC   C3B30814  25.030   9.844  12.291 -0.0263 -0.1552  0.2696
 2626DOPC   C4B30815  24.805   9.690  11.933  0.0499  0.0313  0.0269
 2627DOPE   NH330816  22.762   4.871  13.507 -0.0594  0.1307 -0.0908
 2627DOPE   PO430817  22.932   4.944  13.213  0.0278  0.1514 -0.0400
 2627DOPE   GL130818  22.944   5.021  12.804  0.0575  0.1539 -0.5321
 2627DOPE   GL230819  22.971   4.806  12.669  0.0358 -0.3035  0.1348
 2627DOPE   C1A30820  23.122   5.251  12.428 -0.2063  0.0747  0.1627
 2627DOPE   D2A30821  23.336   5.625  12.314 -0.1510 -0.1497 -0.1292
 2627DOPE   C3A30822  23.498   6.033  12.235 -0.1169 -0.2380 -0.1868
 2627DOPE   C4A30823  23.457   6.484  12.202 -0.0056 -0.1240 -0.2155
 2627DOPE   C1B30824  23.021   4.690  12.265  0.1173 -0.0482 -0.0549
 2627DOPE   D2B30825  22.907   4.636  11.791  0.2225 -0.0528  0.0328
 2627DOPE   C3B30826  23.005   4.900  11.430 -0.1838 -0.1116  0.0534
 2627DOPE   C4B30827  23.214   5.195  11.143  0.0185  0.0447 -0.4941
 2628DOPC   NC330828  31.230   6.979  13.748 -0.4935  0.1331 -0.0819
 2628DOPC   PO430829  30.823   6.885  13.796  0.0084 -0.3091  0.1920
 2628DOPC   GL130830  30.948   6.902  13.375 -0.0016  0.0977 -0.1469
 2628DOPC   GL230831  30.932   6.750  13.065 -0.0438 -0.1355 -0.2501
 2628DOPC   C1A30832  31.447   6.904  13.260  0.0619 -0.2089 -0.3589
 2628DOPC   D2A30833  31.606   7.053  12.827 -0.3534  0.1076 -0.2463
 2628DOPC   C3A30834  31.437   6.844  12.508 -0.0516 -0.2476  0.0487
 2628DOPC   C4A30835  31.651   6.496  12.279 -0.2158 -0.0856 -0.0279
 2628DOPC   C1B30836  31.114   6.460  12.779 -0.0341 -0.0350 -0.5100
 2628DOPC   D2B30837  31.424   6.170  12.646  0.0031 -0.0414 -0.2573
 2628DOPC   C3B30838  31.482   5.758  12.536 -0.0475 -0.1245  0.1403
 2628DOPC   C4B30839  31.694   5.466  12.228 -0.2071 -0.1843 -0.1006
 2629POSM   NC330840  23.992   3.642  13.234 -0.1881 -0.1298  0.2686
 2629POSM   PO430841  23.615   3.800  13.107 -0.2645 -0.1133  0.2880
 2629POSM   AM130842  23.427   3.722  12.820  0.4544  0.2160 -0.1452
 2629POSM   AM230843  23.170   3.618  12.803  0.3168  0.3933 -0.2458
 2629POSM   T1A30844  23.219   3.842  12.359  0.2965  0.0480  0.0099
 2629POSM   C2A30845  23.329   3.749  11.964 -0.0063  0.1314  0.0665
 2629POSM   C3A30846  23.758   3.653  11.800  0.0359 -0.2636 -0.1749
 2629POSM   C1B30847  23.124   3.372  12.561 -0.0458 -0.0186 -0.0631
 2629POSM   D2B30848  23.045   3.068  12.178  0.3021 -0.0732  0.1120
 2629POSM   C3B30849  22.963   3.167  11.751  0.1721  0.1406  0.0449
 2629POSM   C4B30850  22.957   3.116  11.306  0.2424 -0.2190 -0.0581
 2630DOPE   NH330851  30.599   2.696  13.800 -0.1323  0.1648 -0.0269
 2630DOPE   PO430852  30.430   2.886  13.640 -0.0228  0.3437 -0.0982
 2630DOPE   GL130853  30.526   3.147  13.352  0.1316  0.0041 -0.0097
 2630DOPE   GL230854  30.545   3.001  13.063 -0.3566 -0.1219  0.0060
 2630DOPE   C1A30855  30.358   3.459  13.076 -0.0878 -0.2043  0.0542
 2630DOPE   D2A30856  30.193   3.493  12.603  0.0117  0.2959 -0.0001
 2630DOPE   C3A30857  30.457   3.723  12.303  0.0204 -0.3067  0.0423
 2630DOPE   C4A30858  30.577   4.066  11.943  0.2563  0.0578  0.0082
 2630DOPE   C1B30859  30.214   2.935  12.719 -0.3675 -0.3197 -0.0292
 2630DOPE   D2B30860  30.361   2.798  12.268  0.0660  0.0051  0.0951
 2630DOPE   C3B30861  30.149   2.844  11.820  0.0754 -0.3258 -0.3402
 2630DOPE   C4B30862  29.900   2.871  11.442  0.0209  0.2802  0.2037
 2631DOPE   NH330863  33.315   4.600  14.033 -0.1408 -0.3483 -0.4852
 2631DOPE   PO430864  33.172   4.306  13.993  0.3588 -0.0853 -0.0495
 2631DOPE   GL130865  33.282   4.369  13.619 -0.0546 -0.3012  0.0566
 2631DOPE   GL230866  33.050   4.524  13.497 -0.0672 -0.1332 -0.1688
 2631DOPE   C1A30867  33.670   4.308  13.351  0.5069 -0.3494 -0.0087
 2631DOPE   D2A30868  33.817   3.945  13.144  0.0745 -0.0314 -0.1641
 2631DOPE   C3A30869  33.749   4.217  12.788 -0.3172 -0.0745  0.1313
 2631DOPE   C4A30870  33.635   4.600  12.545 -0.0102 -0.1010  0.2776
 2631DOPE   C1B30871  33.195   4.554  13.013 -0.1749 -0.1378 -0.1596
 2631DOPE   D2B30872  33.150   4.715  12.544  0.0639 -0.2374 -0.1623
 2631DOPE   C3B30873  32.976   5.141  12.398 -0.2035  0.0995 -0.0934
 2631DOPE   C4B30874  32.938   5.583  12.349  0.2025 -0.1542  0.6345
 2632POSM   NC330875  25.318   2.313  12.257 -0.0281  0.5126  0.0159
 2632POSM   PO430876  25.373   2.082  12.568  0.3156  0.1416 -0.0256
 2632POSM   AM130877  25.609   1.908  12.420  0.0976 -0.3506 -0.0739
 2632POSM   AM230878  25.862   1.788  12.468  0.1732  0.0817  0.0642
 2632POSM   T1A30879  25.586   1.618  12.043 -0.1902  0.0567  0.1743
 2632POSM   C2A30880  25.345   1.631  11.650  0.1118 -0.1083 -0.1301
 2632POSM   C3A30881  25.247   1.977  11.383 -0.0768 -0.1828  0.4361
 2632POSM   C1B30882  26.056   1.921  12.230 -0.1817 -0.1904 -0.3345
 2632POSM   D2B30883  26.345   2.074  11.943  0.1658  0.2334 -0.1234
 2632POSM   C3B30884  26.494   2.541  11.957  0.0089  0.0016  0.0893
 2632POSM   C4B30885  26.594   3.039  11.792  0.1260 -0.0763 -0.5049
 2633DOPS   CNO30886  27.238   1.400  12.939  0.1109  0.1219  0.3226
 2633DOPS   PO430887  27.180   1.060  12.858 -0.1204  0.0591 -0.1241
 2633DOPS   GL130888  27.119   1.115  12.539 -0.0326  0.3156  0.1418
 2633DOPS   GL230889  26.976   0.953  12.385 -0.1253 -0.0104  0.0430
 2633DOPS   C1A30890  26.987   1.393  12.169  0.2198  0.2498  0.2689
 2633DOPS   D2A30891  27.196   1.378  11.736  0.3028 -0.1313  0.1676
 2633DOPS   C3A30892  27.408   0.974  11.550  0.0875 -0.0427 -0.1203
 2633DOPS   C4A30893  27.432   0.537  11.379 -0.0896 -0.2941 -0.2203
 2633DOPS   C1B30894  27.313   1.034  12.059  0.2058 -0.0742  0.3918
 2633DOPS   D2B30895  27.610   1.376  12.048  0.2176 -0.2919 -0.2369
 2633DOPS   C3B30896  27.833   1.094  11.870  0.0026 -0.0149 -0.0919
 2633DOPS   C4B30897  27.942   0.846  11.514 -0.1055  0.1377  0.1158
 2634DOPC   NC330898  27.777  11.082  13.740  0.0380  0.1715 -0.0048
 2634DOPC   PO430899  27.636  11.454  13.731  0.0395  0.0592  0.0618
 2634DOPC   GL130900  27.449  11.376  13.375  0.0190  0.0287  0.1208
 2634DOPC   GL230901  27.671  11.205  13.214 -0.0370 -0.5584 -0.4259
 2634DOPC   C1A30902  27.352  11.553  12.954 -0.1754 -0.1486  0.2086
 2634DOPC   D2A30903  27.476  11.924  12.750  0.2325 -0.4139 -0.0562
 2634DOPC   C3A30904  27.725  12.109  12.374 -0.0169  0.0748 -0.1006
 2634DOPC   C4A30905  27.570  12.215  11.929  0.2491 -0.1269 -0.1597
 2634DOPC   C1B30906  27.623  11.204  12.761  0.2153 -0.2942  0.0186
 2634DOPC   D2B30907  27.717  11.168  12.280  0.0433  0.1050 -0.1294
 2634DOPC   C3B30908  27.318  11.313  11.986  0.0643  0.3501 -0.0021
 2634DOPC   C4B30909  27.053  11.381  11.611 -0.2556 -0.1014 -0.1994
 2635POSM   NC330910  28.542   7.403  13.322  0.0350 -0.3947 -0.1894
 2635POSM   PO430911  28.157   7.482  13.322  0.2108  0.0787  0.1005
 2635POSM   AM130912  27.949   7.506  13.067  0.1295 -0.1976 -0.0979
 2635POSM   AM230913  27.706   7.687  12.952  0.1305  0.1041 -0.0130
 2635POSM   T1A30914  27.850   7.268  12.661 -0.1480 -0.3426 -0.0061
 2635POSM   C2A30915  27.985   7.134  12.260  0.0149  0.0004  0.0183
 2635POSM   C3A30916  28.227   6.919  11.924  0.0965 -0.4698  0.4745
 2635POSM   C1B30917  27.519   7.772  12.659 -0.0687  0.2108  0.3082
 2635POSM   D2B30918  27.283   7.751  12.338  0.0194  0.1299 -0.0218
 2635POSM   C3B30919  27.169   7.793  11.872  0.2807  0.0084  0.1735
 2635POSM   C4B30920  26.844   7.927  11.648 -0.1742  0.1666  0.1014
 2636DOPE   NH330921  30.801   4.636  13.853  0.1585 -0.1062  0.1439
 2636DOPE   PO430922  30.757   4.370  13.670 -0.2273  0.2216  0.1051
 2636DOPE   GL130923  31.087   4.342  13.422 -0.0385 -0.0032  0.1998
 2636DOPE   GL230924  31.092   4.104  13.250  0.0809 -0.2076 -0.1039
 2636DOPE   C1A30925  31.091   4.543  12.995 -0.0363  0.0625 -0.0375
 2636DOPE   D2A30926  30.914   4.612  12.563  0.1281  0.0952 -0.0262
 2636DOPE   C3A30927  30.858   4.909  12.190  0.0877  0.0990 -0.0941
 2636DOPE   C4A30928  30.834   5.140  11.801 -0.0599 -0.1372 -0.0845
 2636DOPE   C1B30929  30.860   4.161  12.864 -0.4172 -0.1531 -0.3278
 2636DOPE   D2B30930  30.914   4.006  12.397  0.1098 -0.1091 -0.3031
 2636DOPE   C3B30931  30.935   4.359  12.140 -0.0528  0.1805 -0.3175
 2636DOPE   C4B30932  30.858   4.527  11.719  0.0150  0.1565 -0.0842
 2637DOPS   CNO30933  24.897   1.702  13.356 -0.1184 -0.2949 -0.2733
 2637DOPS   PO430934  24.746   1.467  13.118  0.1600 -0.1236 -0.0326
 2637DOPS   GL130935  24.570   1.366  12.722  0.0626  0.2574 -0.2551
 2637DOPS   GL230936  24.406   1.189  12.731  0.1427 -0.0442  0.0996
 2637DOPS   C1A30937  24.703   1.371  12.270 -0.2423 -0.1715  0.1175
 2637DOPS   D2A30938  24.910   1.465  11.863 -0.0667  0.0946 -0.1573
 2637DOPS   C3A30939  24.783   1.756  11.565  0.0143 -0.0790 -0.2004
 2637DOPS   C4A30940  24.672   1.716  11.049 -0.1563 -0.1637  0.1124
 2637DOPS   C1B30941  24.021   0.949  12.638  0.2331 -0.0273 -0.1592
 2637DOPS   D2B30942  23.622   1.123  12.471 -0.3063  0.2467 -0.1395
 2637DOPS   C3B30943  23.597   1.568  12.473  0.0398  0.0131 -0.0872
 2637DOPS   C4B30944  23.595   2.011  12.578  0.2417  0.2296  0.0968
 2638DOPS   CNO30945  27.475   9.875  14.338  0.2031 -0.0895 -0.0674
 2638DOPS   PO430946  27.704   9.871  14.043  0.0348  0.4241 -0.2503
 2638DOPS   GL130947  27.971  10.077  13.753 -0.0612 -0.0314 -0.1764
 2638DOPS   GL230948  28.223  10.114  13.741 -0.0160 -0.0404  0.0136
 2638DOPS   C1A30949  28.047  10.294  13.295  0.0931  0.0064 -0.2220
 2638DOPS   D2A30950  28.168  10.678  13.084  0.1561  0.1655 -0.3131
 2638DOPS   C3A30951  28.010  10.835  12.662 -0.3331 -0.1488  0.0187
 2638DOPS   C4A30952  27.814  10.669  12.270  0.2608 -0.0948  0.2620
 2638DOPS   C1B30953  28.515  10.174  13.464  0.1890  0.0686  0.1213
 2638DOPS   D2B30954  28.759  10.455  13.194  0.1047  0.3193 -0.1063
 2638DOPS   C3B30955  28.634  10.504  12.756 -0.0776 -0.1498  0.2382
 2638DOPS   C4B30956  28.912  10.657  12.405 -0.2192  0.0871  0.0775
 2639DOPE   NH330957  32.032  33.989  13.366  0.1188  0.0223  0.1389
 2639DOPE   PO430958  32.297  34.064  13.379 -0.0091  0.0351  0.2346
 2639DOPE   GL130959  32.413  34.134  13.019 -0.0824 -0.0605 -0.3008
 2639DOPE   GL230960  32.658  34.254  12.978  0.2755 -0.2613 -0.0418
 2639DOPE   C1A30961  32.312  34.307  12.575  0.1118  0.3336 -0.0542
 2639DOPE   D2A30962  32.000  34.358  12.252  0.0742  0.0528  0.1490
 2639DOPE   C3A30963  31.580  34.563  12.096  0.0284 -0.1184 -0.1591
 2639DOPE   C4A30964  31.327  34.917  11.963 -0.1659  0.2958 -0.0170
 2639DOPE   C1B30965  32.879  34.239  12.623 -0.0975  0.3142  0.4180
 2639DOPE   D2B30966  33.078  34.368  12.257  0.1200  0.1663 -0.3616
 2639DOPE   C3B30967  32.928  34.561  11.872 -0.1446 -0.4327 -0.2319
 2639DOPE   C4B30968  32.658  34.751  11.516 -0.0894  0.2705  0.1047
 2640DOPC   NC330969  29.330   3.604  14.051 -0.0150 -0.2324 -0.0011
 2640DOPC   PO430970  29.267   3.428  13.751  0.4237  0.0745  0.2831
 2640DOPC   GL130971  29.051   3.305  13.404  0.1884  0.1113 -0.3174
 2640DOPC   GL230972  29.206   3.226  13.227 -0.0632 -0.2415  0.0816
 2640DOPC   C1A30973  28.795   3.473  13.034 -0.0519 -0.2300  0.2106
 2640DOPC   D2A30974  28.618   3.459  12.600  0.0719  0.1200 -0.0583
 2640DOPC   C3A30975  28.569   3.804  12.363  0.2368 -0.3135  0.0549
 2640DOPC   C4A30976  28.589   4.140  12.032 -0.0142 -0.0440  0.3676
 2640DOPC   C1B30977  29.192   3.216  12.725  0.0523  0.3147  0.2111
 2640DOPC   D2B30978  29.374   3.385  12.325 -0.0563 -0.0953 -0.2503
 2640DOPC   C3B30979  29.798   3.559  12.161 -0.1707  0.1493 -0.0708
 2640DOPC   C4B30980  30.119   3.839  11.956  0.1039  0.0012  0.0840
 2641DOPS   CNO30981   0.747   5.381  14.621  0.1680 -0.2041  0.1525
 2641DOPS   PO430982   0.967   5.209  14.362 -0.0214  0.1149 -0.0505
 2641DOPS   GL130983   1.028   5.250  13.950 -0.0063  0.1844  0.4449
 2641DOPS   GL230984   0.800   5.111  13.778  0.0919 -0.3582 -0.1585
 2641DOPS   C1A30985   1.374   5.437  13.768  0.0970 -0.2227 -0.1350
 2641DOPS   D2A30986   1.628   5.619  13.423 -0.1029  0.1398 -0.1767
 2641DOPS   C3A30987   1.927   5.988  13.372  0.2328 -0.0265  0.1397
 2641DOPS   C4A30988   2.140   6.338  13.162  0.0950 -0.3568 -0.2945
 2641DOPS   C1B30989   1.032   5.310  13.426 -0.3453 -0.0056  0.0285
 2641DOPS   D2B30990   1.297   5.367  13.031 -0.1077  0.0180 -0.0567
 2641DOPS   C3B30991   1.464   5.072  12.775 -0.2700 -0.1604  0.0908
 2641DOPS   C4B30992   1.567   4.926  12.309 -0.4262  0.1003 -0.0205
 2642DOPE   NH330993  27.776  12.295  14.316 -0.4379  0.2307 -0.0302
 2642DOPE   PO430994  28.099  12.265  14.304  0.0450 -0.0007  0.0709
 2642DOPE   GL130995  28.401  12.408  13.911  0.0740  0.2244  0.0482
 2642DOPE   GL230996  28.383  12.709  13.819  0.0816 -0.0156 -0.0212
 2642DOPE   C1A30997  28.326  12.258  13.459 -0.1887 -0.0071  0.3053
 2642DOPE   D2A30998  28.476  11.962  13.113 -0.2746  0.0371 -0.1504
 2642DOPE   C3A30999  28.729  12.127  12.749  0.1018 -0.0599 -0.1656
 2642DOPE   C4A31000  28.940  12.417  12.450 -0.0849 -0.3453  0.1813
 2642DOPE   C1B31001  28.680  12.688  13.436 -0.0617 -0.3527  0.2576
 2642DOPE   D2B31002  29.108  12.845  13.292 -0.0832  0.0247 -0.3820
 2642DOPE   C3B31003  29.422  13.212  13.268 -0.0139  0.0174  0.1532
 2642DOPE   C4B31004  29.665  13.590  13.343  0.0377 -0.0590  0.0907
 2643DOPE   NH331005  30.836   7.924  13.757  0.3499  0.0555 -0.1947
 2643DOPE   PO431006  31.131   7.921  13.708  0.1893  0.1855 -0.1592
 2643DOPE   GL131007  31.422   7.851  13.468  0.0816 -0.2156 -0.2944
 2643DOPE   GL231008  31.679   7.992  13.557 -0.2478 -0.2791  0.1630
 2643DOPE   C1A31009  31.393   7.863  12.991 -0.0487  0.0939  0.1381
 2643DOPE   D2A31010  31.616   8.104  12.641 -0.5460 -0.0503  0.1005
 2643DOPE   C3A31011  31.754   8.263  12.226  0.1531  0.5119  0.1741
 2643DOPE   C4A31012  31.929   8.449  11.847  0.1036 -0.0882  0.0012
 2643DOPE   C1B31013  31.678   8.256  13.131 -0.2200  0.1210  0.2120
 2643DOPE   D2B31014  31.872   8.587  12.857 -0.1338 -0.4612  0.1085
 2643DOPE   C3B31015  32.167   8.479  12.481  0.3302  0.0715  0.1545
 2643DOPE   C4B31016  32.265   8.204  12.168  0.2599  0.0639  0.4242
 2644DOPE   NH331017  26.652   7.590  13.365  0.1691 -0.0285 -0.0910
 2644DOPE   PO431018  26.926   7.539  13.220 -0.0513 -0.0924 -0.0345
 2644DOPE   GL131019  26.810   7.753  12.943 -0.0597  0.1252  0.0857
 2644DOPE   GL231020  26.786   8.005  13.135 -0.1238 -0.1240  0.1970
 2644DOPE   C1A31021  26.685   7.914  12.503  0.2232  0.0190  0.0183
 2644DOPE   D2A31022  26.530   8.041  12.078 -0.0755  0.0297  0.2155
 2644DOPE   C3A31023  26.164   8.375  12.060 -0.0698 -0.2341  0.0798
 2644DOPE   C4A31024  25.755   8.317  12.219  0.0617 -0.0678  0.2061
 2644DOPE   C1B31025  27.088   8.025  12.773  0.0383  0.2025 -0.0336
 2644DOPE   D2B31026  27.078   8.243  12.294  0.3089  0.4888 -0.0198
 2644DOPE   C3B31027  27.252   8.648  12.368  0.2052  0.0032  0.0253
 2644DOPE   C4B31028  27.429   9.116  12.275 -0.3212 -0.2385  0.4083
 2645DOPC   NC331029   0.063   8.364  15.119 -0.1324 -0.1083 -0.1951
 2645DOPC   PO431030  -0.120   8.097  14.915  0.0895 -0.0208 -0.2419
 2645DOPC   GL131031  -0.043   8.075  14.502  0.2281 -0.3012 -0.1646
 2645DOPC   GL231032  -0.188   7.959  14.409  0.0658 -0.0298  0.0496
 2645DOPC   C1A31033   0.063   8.255  14.036 -0.0715 -0.1100  0.0388
 2645DOPC   D2A31034  -0.034   8.568  13.697 -0.2599 -0.1452  0.0123
 2645DOPC   C3A31035   0.236   8.463  13.326  0.0861 -0.2965 -0.0752
 2645DOPC   C4A31036   0.200   8.078  13.122  0.1714  0.0174 -0.0653
 2645DOPC   C1B31037  -0.378   8.042  13.969 -0.0335 -0.3182  0.0175
 2645DOPC   D2B31038  -0.351   8.216  13.520 -0.1083 -0.0873 -0.1279
 2645DOPC   C3B31039  -0.708   8.188  13.198 -0.0390 -0.1681 -0.0207
 2645DOPC   C4B31040  -0.980   7.970  12.887  0.1095  0.0268 -0.1585
 2646POSM   NC331041  24.788  10.153  14.468 -0.2939 -0.3179 -0.1228
 2646POSM   PO431042  25.004  10.120  14.105 -0.1998  0.0015 -0.0631
 2646POSM   AM131043  25.131  10.242  13.827  0.0541  0.1445 -0.1384
 2646POSM   AM231044  25.171  10.226  13.562 -0.0484  0.1584  0.0596
 2646POSM   T1A31045  25.039  10.683  13.487 -0.2109  0.0618 -0.0972
 2646POSM   C2A31046  24.719  10.982  13.272  0.3173 -0.0986 -0.1431
 2646POSM   C3A31047  24.615  11.064  12.838  0.2086  0.0032 -0.0243
 2646POSM   C1B31048  25.232  10.023  13.295  0.1054  0.1439 -0.0851
 2646POSM   D2B31049  25.502   9.608  13.120 -0.3193 -0.1022  0.1776
 2646POSM   C3B31050  25.772   9.584  12.735  0.1398 -0.2669  0.0099
 2646POSM   C4B31051  26.043   9.862  12.541 -0.0371 -0.0592 -0.0017
 2647POSM   NC331052  24.793  11.505  13.163  0.1676 -0.1375  0.0433
 2647POSM   PO431053  25.065  11.575  13.401 -0.3815  0.2895 -0.1636
 2647POSM   AM131054  25.264  11.589  13.148 -0.1540  0.2345 -0.3556
 2647POSM   AM231055  25.186  11.630  12.875  0.3085 -0.2430 -0.0366
 2647POSM   T1A31056  25.614  11.328  12.819  0.0448  0.4506  0.0007
 2647POSM   C2A31057  25.813  11.134  12.429 -0.1373 -0.0965 -0.1247
 2647POSM   C3A31058  26.144  10.807  12.319 -0.1911 -0.0139 -0.0213
 2647POSM   C1B31059  25.054  11.618  12.596 -0.0097  0.2112 -0.2135
 2647POSM   D2B31060  25.110  11.357  12.233  0.0005  0.0806 -0.0957
 2647POSM   C3B31061  25.531  11.458  12.143  0.0180  0.0479  0.0418
 2647POSM   C4B31062  25.948  11.473  12.036 -0.1376  0.1871 -0.1323
 2648DOPC   NC331063  29.162   7.014  13.794  0.0943  0.2115 -0.1312
 2648DOPC   PO431064  28.905   7.343  13.738  0.2989  0.2312 -0.1201
 2648DOPC   GL131065  29.236   7.367  13.437  0.3172 -0.4159 -0.2334
 2648DOPC   GL231066  29.045   7.583  13.314 -0.0500 -0.2550  0.1778
 2648DOPC   C1A31067  29.393   7.452  12.997  0.1438  0.2855 -0.2750
 2648DOPC   D2A31068  29.357   7.483  12.531  0.2711  0.1950 -0.2202
 2648DOPC   C3A31069  29.383   7.127  12.220 -0.3014  0.2141 -0.0156
 2648DOPC   C4A31070  29.706   6.838  12.251 -0.2555 -0.2914 -0.1695
 2648DOPC   C1B31071  28.842   7.473  12.874  0.2664 -0.0145  0.1410
 2648DOPC   D2B31072  28.818   7.686  12.503 -0.0954  0.1543  0.0557
 2648DOPC   C3B31073  29.097   7.506  12.135  0.2061 -0.1186  0.2918
 2648DOPC   C4B31074  29.050   7.301  11.734 -0.0550  0.1111 -0.2447
 2649DOPC   NC331075  30.611   7.215  13.493 -0.1416  0.0243 -0.0976
 2649DOPC   PO431076  30.472   6.829  13.429  0.0123 -0.1051 -0.1588
 2649DOPC   GL131077  30.429   6.908  13.117 -0.1822  0.0083 -0.2226
 2649DOPC   GL231078  30.496   7.189  13.014  0.1975 -0.1865  0.1541
 2649DOPC   C1A31079  30.063   7.050  12.913 -0.2189 -0.1308  0.1916
 2649DOPC   D2A31080  29.592   7.085  12.786 -0.0074 -0.3391  0.1509
 2649DOPC   C3A31081  29.309   6.809  12.597  0.0671  0.1939 -0.2806
 2649DOPC   C4A31082  28.997   6.481  12.517  0.1456 -0.0196  0.0903
 2649DOPC   C1B31083  30.372   7.362  12.632 -0.2022 -0.2957 -0.1522
 2649DOPC   D2B31084  30.418   7.714  12.362  0.2544 -0.0208  0.2072
 2649DOPC   C3B31085  30.216   8.035  12.064 -0.2334  0.0595  0.2492
 2649DOPC   C4B31086  30.077   8.154  11.661 -0.0226  0.0745 -0.0948
 2650DOPS   CNO31087  23.520   8.805  13.534 -0.1390 -0.0867 -0.1447
 2650DOPS   PO431088  23.605   9.164  13.595 -0.3882 -0.2622 -0.0113
 2650DOPS   GL131089  23.537   9.358  13.292  0.0656  0.1392 -0.0810
 2650DOPS   GL231090  23.733   9.194  13.070  0.0966  0.1817  0.1328
 2650DOPS   C1A31091  23.641   9.761  13.174  0.0222 -0.2922  0.1583
 2650DOPS   D2A31092  24.002  10.118  13.153  0.2017  0.3205  0.1250
 2650DOPS   C3A31093  24.370  10.169  12.872 -0.1237 -0.0412  0.0049
 2650DOPS   C4A31094  24.711  10.166  12.539 -0.0953 -0.0291 -0.1291
 2650DOPS   C1B31095  23.483   9.487  12.839  0.0581 -0.1578 -0.2551
 2650DOPS   D2B31096  23.163   9.820  12.875 -0.2887 -0.3972  0.2029
 2650DOPS   C3B31097  22.784   9.712  13.144  0.3327  0.0414 -0.2139
 2650DOPS   C4B31098  22.383   9.494  13.140 -0.1157  0.1488  0.0177
 2651DOPE   NH331099  31.481   3.474  13.816 -0.2101 -0.0395  0.0479
 2651DOPE   PO431100  31.177   3.468  13.745  0.1024  0.2919  0.2895
 2651DOPE   GL131101  31.227   3.645  13.401 -0.0877  0.0174  0.4401
 2651DOPE   GL231102  31.478   3.696  13.370  0.1750  0.1041  0.1873
 2651DOPE   C1A31103  30.922   3.666  13.038 -0.3568 -0.0267 -0.0247
 2651DOPE   D2A31104  30.697   3.377  12.752  0.0824  0.2563  0.0574
 2651DOPE   C3A31105  30.630   3.228  12.336  0.1925  0.0846  0.0714
 2651DOPE   C4A31106  30.202   3.277  12.108 -0.0349 -0.0449  0.1026
 2651DOPE   C1B31107  31.420   3.708  12.895  0.2211  0.0367  0.0997
 2651DOPE   D2B31108  31.383   3.779  12.441 -0.2340  0.0381 -0.0855
 2651DOPE   C3B31109  31.055   3.506  12.231  0.4059  0.0043  0.1326
 2651DOPE   C4B31110  30.932   3.343  11.878 -0.0341 -0.1747 -0.0280
 2652DOPS   CNO31111  32.210   3.385  14.171  0.2495  0.2311 -0.2878
 2652DOPS   PO431112  32.189   3.376  13.806  0.2307  0.1656  0.1331
 2652DOPS   GL131113  32.139   3.376  13.426  0.1461 -0.0220  0.2642
 2652DOPS   GL231114  32.048   3.653  13.355 -0.0145  0.1635  0.1065
 2652DOPS   C1A31115  32.371   3.410  13.041 -0.1324  0.1964 -0.5413
 2652DOPS   D2A31116  32.473   3.709  12.717  0.0139  0.0950 -0.2391
 2652DOPS   C3A31117  32.881   3.781  12.544  0.0100  0.2526  0.2779
 2652DOPS   C4A31118  33.222   3.681  12.272 -0.1280 -0.0182 -0.6050
 2652DOPS   C1B31119  31.937   3.761  12.939  0.2371  0.0110  0.0688
 2652DOPS   D2B31120  31.875   4.013  12.598  0.0804 -0.0434  0.0878
 2652DOPS   C3B31121  31.753   4.332  12.387  0.1401  0.1171 -0.3958
 2652DOPS   C4B31122  31.832   4.774  12.297  0.1237 -0.0629 -0.0651
 2653DOPE   NH331123  33.356   0.914   9.787 -0.1496  0.4310  0.4995
 2653DOPE   PO431124  33.295   1.222   9.840 -0.3054  0.2275 -0.4765
 2653DOPE   GL131125  33.062   1.455  10.066  0.1189 -0.0090 -0.0375
 2653DOPE   GL231126  32.940   1.632  10.060  0.1548 -0.2191  0.5420
 2653DOPE   C1A31127  33.118   1.323  10.489 -0.1277  0.0300 -0.1914
 2653DOPE   D2A31128  33.091   1.329  10.963  0.1722 -0.1402 -0.1363
 2653DOPE   C3A31129  32.692   1.236  11.228  0.1142 -0.2383  0.0109
 2653DOPE   C4A31130  32.376   1.231  11.568 -0.0914  0.1433  0.0667
 2653DOPE   C1B31131  32.566   1.394  10.332  0.0126 -0.3284 -0.1435
 2653DOPE   D2B31132  32.631   1.180  10.731  0.1992 -0.3205 -0.0953
 2653DOPE   C3B31133  32.304   1.002  11.050  0.2755  0.2301  0.1764
 2653DOPE   C4B31134  32.107   0.780  11.443  0.0052  0.0217 -0.0988
 2654DOPS   CNO31135  25.911   4.482   9.341 -0.1061  0.1072  0.0596
 2654DOPS   PO431136  25.608   4.692   9.508 -0.0189 -0.2295 -0.1770
 2654DOPS   GL131137  25.603   4.726   9.905 -0.1478 -0.0160 -0.0472
 2654DOPS   GL231138  25.492   4.914  10.048  0.0139 -0.1589  0.2756
 2654DOPS   C1A31139  25.471   4.524  10.308 -0.1415  0.0255  0.1243
 2654DOPS   D2A31140  25.630   4.206  10.579  0.0939 -0.1833  0.2974
 2654DOPS   C3A31141  25.716   4.243  11.031 -0.1843 -0.0946 -0.2749
 2654DOPS   C4A31142  25.678   4.206  11.512  0.0503 -0.0533 -0.0728
 2654DOPS   C1B31143  25.373   5.028  10.516  0.0157  0.4367 -0.0719
 2654DOPS   D2B31144  25.605   5.172  10.929  0.1668  0.0913 -0.2027
 2654DOPS   C3B31145  26.061   5.040  10.926  0.4570 -0.0315 -0.3190
 2654DOPS   C4B31146  26.447   4.867  10.744 -0.0097 -0.0224  0.0101
 2655DOPE   NH331147  32.284   1.550   9.369 -0.0648 -0.4171 -0.2606
 2655DOPE   PO431148  32.101   1.729   9.532 -0.0312 -0.1324  0.0672
 2655DOPE   GL131149  31.918   1.941   9.816 -0.0217 -0.0508 -0.2588
 2655DOPE   GL231150  31.765   1.788   9.980 -0.0624  0.0792 -0.2574
 2655DOPE   C1A31151  31.985   2.129  10.268  0.1497  0.0406  0.1758
 2655DOPE   D2A31152  31.898   2.181  10.711  0.2011 -0.4470  0.0098
 2655DOPE   C3A31153  31.607   2.513  10.843  0.1558 -0.1309 -0.1760
 2655DOPE   C4A31154  31.260   2.662  11.189 -0.0470  0.2840 -0.1064
 2655DOPE   C1B31155  31.586   1.776  10.354  0.1860  0.0435  0.0468
 2655DOPE   D2B31156  31.241   1.620  10.602  0.1553  0.0290  0.2957
 2655DOPE   C3B31157  30.831   1.408  10.673 -0.2156  0.1287  0.5246
 2655DOPE   C4B31158  30.680   1.010  10.933  0.3753  0.1730 -0.0572
 2656DOPE   NH331159  33.761   2.150   9.996  0.0626 -0.1665  0.2361
 2656DOPE   PO431160  33.875   1.858  10.156 -0.4132 -0.0827  0.1181
 2656DOPE   GL131161  34.212   1.936  10.460  0.1169  0.0882  0.6951
 2656DOPE   GL231162  34.216   1.642  10.579 -0.2142 -0.0406  0.1334
 2656DOPE   C1A31163  34.078   2.042  10.874  0.0920  0.0991 -0.0450
 2656DOPE   D2A31164  33.689   2.120  11.098 -0.0151  0.1913 -0.0154
 2656DOPE   C3A31165  33.597   1.843  11.515  0.0104  0.0299  0.0102
 2656DOPE   C4A31166  33.506   1.368  11.346  0.2775 -0.0543  0.1691
 2656DOPE   C1B31167  34.581   1.743  10.841 -0.0473 -0.3288  0.1102
 2656DOPE   D2B31168  35.032   1.791  10.872 -0.1461  0.2527 -0.0199
 2656DOPE   C3B31169  35.146   2.007  11.258  0.0234  0.0375 -0.1580
 2656DOPE   C4B31170  35.256   2.172  11.698 -0.1230 -0.0163 -0.0211
 2657DOPC   NC331171  32.319   5.005  10.338  0.1863  0.2657  0.0480
 2657DOPC   PO431172  32.137   4.644  10.291 -0.2602  0.1724 -0.1697
 2657DOPC   GL131173  32.120   4.821  10.687  0.4478 -0.0277 -0.2791
 2657DOPC   GL231174  32.196   4.512  10.843 -0.0177 -0.3488 -0.1858
 2657DOPC   C1A31175  31.867   4.905  11.112 -0.1683  0.1449  0.3099
 2657DOPC   D2A31176  31.626   5.077  11.434 -0.0469  0.1304  0.0578
 2657DOPC   C3A31177  31.589   5.541  11.508  0.0253 -0.0496  0.0063
 2657DOPC   C4A31178  31.654   5.829  11.860 -0.2560 -0.0890  0.1910
 2657DOPC   C1B31179  32.434   4.184  10.881 -0.1623  0.2481  0.0288
 2657DOPC   D2B31180  32.655   3.821  11.083 -0.1012 -0.3566 -0.0711
 2657DOPC   C3B31181  32.416   3.482  11.280  0.2426 -0.3107 -0.0948
 2657DOPC   C4B31182  32.035   3.407  11.058 -0.1541  0.0129 -0.3031
 2658DOPC   NC331183  28.337   7.706   9.702 -0.2163  0.0644 -0.3829
 2658DOPC   PO431184  28.390   7.433   9.959  0.1646  0.1987 -0.0206
 2658DOPC   GL131185  28.048   7.633  10.145 -0.1402 -0.1216 -0.0465
 2658DOPC   GL231186  28.172   7.861  10.364  0.0234  0.2251 -0.2213
 2658DOPC   C1A31187  27.777   7.558  10.507 -0.0302  0.0607 -0.2425
 2658DOPC   D2A31188  27.717   7.501  10.978 -0.3240 -0.0320  0.0609
 2658DOPC   C3A31189  27.954   7.499  11.440 -0.1365  0.1917 -0.2004
 2658DOPC   C4A31190  28.110   7.448  11.847  0.2426  0.1464  0.1253
 2658DOPC   C1B31191  28.191   7.756  10.782  0.0790 -0.0460 -0.0771
 2658DOPC   D2B31192  27.993   7.879  11.195  0.0181  0.2440  0.1601
 2658DOPC   C3B31193  28.149   7.982  11.610  0.0710 -0.0278  0.1144
 2658DOPC   C4B31194  28.220   7.955  12.031 -0.0929 -0.1729  0.0046
 2659DOPE   NH331195  25.152   8.841  10.224  0.1999 -0.2298  0.4752
 2659DOPE   PO431196  24.919   9.084  10.149 -0.1190  0.1310  0.0073
 2659DOPE   GL131197  24.708   9.076  10.484  0.0714  0.0530 -0.0177
 2659DOPE   GL231198  24.847   8.908  10.656  0.4174  0.1257 -0.1581
 2659DOPE   C1A31199  24.358   9.259  10.718 -0.0560 -0.3869  0.0515
 2659DOPE   D2A31200  24.018   9.250  11.014 -0.0454  0.1227  0.0569
 2659DOPE   C3A31201  23.984   9.453  11.380 -0.2551  0.3182 -0.1231
 2659DOPE   C4A31202  23.844   9.650  11.741 -0.1683 -0.2381 -0.1826
 2659DOPE   C1B31203  24.565   8.954  11.065 -0.1085 -0.1059  0.2538
 2659DOPE   D2B31204  24.305   8.926  11.441  0.1435  0.0724 -0.0504
 2659DOPE   C3B31205  24.431   9.243  11.771  0.0345  0.0439  0.1171
 2659DOPE   C4B31206  24.558   9.170  12.282  0.0302 -0.1525 -0.0073
 2660DOPE   NH331207   0.807  11.042  11.273  0.4408  0.0602 -0.0840
 2660DOPE   PO431208   0.904  10.720  11.306  0.1009  0.0378  0.1968
 2660DOPE   GL131209   0.838  10.812  11.674  0.2760  0.0998  0.2563
 2660DOPE   GL231210   0.886  11.064  11.770  0.0644  0.3780  0.2091
 2660DOPE   C1A31211   0.468  10.932  11.950 -0.0954 -0.2663 -0.0968
 2660DOPE   D2A31212   0.114  11.120  12.149  0.0622  0.0447  0.3375
 2660DOPE   C3A31213   0.052  11.045  12.590 -0.1022 -0.1441 -0.1223
 2660DOPE   C4A31214  -0.038  11.089  13.010  0.0599 -0.1408 -0.1117
 2660DOPE   C1B31215   0.961  10.829  12.111 -0.1949 -0.0664 -0.1787
 2660DOPE   D2B31216   1.043  10.592  12.542  0.0161  0.2434 -0.0158
 2660DOPE   C3B31217   0.897  10.700  12.978  0.2013 -0.0705  0.1602
 2660DOPE   C4B31218   0.660  10.836  13.340  0.0363  0.4277 -0.0081
 2661DOPE   NH331219  28.242   4.952   9.778  0.2810  0.0107  0.3811
 2661DOPE   PO431220  28.393   5.196   9.929 -0.1375 -0.0665 -0.2364
 2661DOPE   GL131221  28.527   5.277  10.299 -0.7587  0.0870  0.0494
 2661DOPE   GL231222  28.527   5.527  10.456  0.1148 -0.0975  0.0041
 2661DOPE   C1A31223  28.410   4.954  10.667 -0.0098 -0.4835  0.3007
 2661DOPE   D2A31224  28.216   4.635  10.865  0.1394  0.0416 -0.0816
 2661DOPE   C3A31225  28.049   4.729  11.325  0.0314 -0.1092 -0.1234
 2661DOPE   C4A31226  27.797   4.766  11.698  0.1982  0.0379 -0.2531
 2661DOPE   C1B31227  28.842   5.708  10.696  0.0977  0.1026  0.1161
 2661DOPE   D2B31228  29.304   5.924  10.725  0.4029  0.0880 -0.1285
 2661DOPE   C3B31229  29.610   5.659  11.019 -0.2470  0.0488 -0.0799
 2661DOPE   C4B31230  29.610   5.320  11.319 -0.2211 -0.1788 -0.3400
 2662POSM   NC331231  23.914   8.995  10.434  0.0891 -0.1049  0.1328
 2662POSM   PO431232  24.066   8.690  10.186 -0.0373 -0.1345  0.0721
 2662POSM   AM131233  24.205   8.601  10.493  0.1240 -0.0551 -0.1147
 2662POSM   AM231234  24.399   8.670  10.695  0.1202 -0.0122  0.1010
 2662POSM   T1A31235  24.360   8.196  10.797 -0.0420 -0.0231  0.4397
 2662POSM   C2A31236  24.494   7.944  11.135 -0.1658 -0.1636  0.0408
 2662POSM   C3A31237  24.658   7.821  11.558  0.2940 -0.1135 -0.1260
 2662POSM   C1B31238  24.134   8.734  10.895  0.0248  0.3638 -0.0753
 2662POSM   D2B31239  23.715   8.821  11.118  0.0623 -0.1513  0.1748
 2662POSM   C3B31240  23.544   9.070  11.478 -0.3302  0.0125 -0.0614
 2662POSM   C4B31241  23.368   9.118  11.919 -0.0215  0.1455  0.2145
 2663DOPE   NH331242  27.146   9.914   9.863 -0.2911  0.0061 -0.0847
 2663DOPE   PO431243  27.385  10.116   9.910 -0.0358  0.0619  0.0655
 2663DOPE   GL131244  27.475  10.251  10.385  0.0182  0.1769  0.0178
 2663DOPE   GL231245  27.252  10.360  10.413 -0.1841 -0.2821 -0.2840
 2663DOPE   C1A31246  27.696  10.059  10.667 -0.1013  0.0995  0.2361
 2663DOPE   D2A31247  27.782   9.876  11.040  0.0078  0.0400 -0.2320
 2663DOPE   C3A31248  27.483   9.864  11.400  0.4569 -0.1672  0.0382
 2663DOPE   C4A31249  27.296   9.724  11.846  0.1653  0.4532 -0.1203
 2663DOPE   C1B31250  27.448  10.515  10.781  0.0620  0.0875 -0.0721
 2663DOPE   D2B31251  27.448  10.708  11.235  0.1302  0.2349 -0.2731
 2663DOPE   C3B31252  27.862  10.711  11.439 -0.2331 -0.3294  0.1200
 2663DOPE   C4B31253  27.923  10.930  11.858  0.2177  0.0281 -0.1632
 2664POSM   NC331254  30.554  10.132   9.788 -0.0158 -0.1387  0.0380
 2664POSM   PO431255  30.807  10.052  10.028  0.2192 -0.0153  0.0306
 2664POSM   AM131256  30.703  10.211  10.291  0.0908  0.0760 -0.1021
 2664POSM   AM231257  30.464  10.116  10.463  0.0597 -0.2708 -0.0831
 2664POSM   T1A31258  30.879  10.385  10.724 -0.1345 -0.2143  0.2495
 2664POSM   C2A31259  31.000  10.239  11.144 -0.4902  0.2515  0.1468
 2664POSM   C3A31260  31.083  10.412  11.578  0.1410  0.0008 -0.0845
 2664POSM   C1B31261  30.445  10.204  10.780  0.2293  0.0286  0.0681
 2664POSM   D2B31262  30.423  10.450  11.190  0.3086 -0.0016  0.0156
 2664POSM   C3B31263  30.070  10.173  11.321 -0.1241 -0.3201  0.0307
 2664POSM   C4B31264  29.940   9.837  11.659 -0.1550 -0.0948 -0.3246
 2665POSM   NC331265  24.323  34.201   9.286  0.1230 -0.0067  0.0290
 2665POSM   PO431266  24.754  34.185   9.334  0.0942 -0.0581  0.0166
 2665POSM   AM131267  24.713  34.251   9.653 -0.1275  0.0559 -0.0312
 2665POSM   AM231268  24.442  34.259   9.824 -0.0007 -0.0119  0.0905
 2665POSM   T1A31269  24.990  34.316  10.095  0.3406 -0.1253 -0.3540
 2665POSM   C2A31270  25.266  34.543  10.370 -0.1486  0.1301 -0.1135
 2665POSM   C3A31271  25.587  34.591  10.735 -0.1624 -0.1805 -0.1792
 2665POSM   C1B31272  24.478  34.352  10.144  0.0759 -0.4726 -0.2599
 2665POSM   D2B31273  24.490  34.443  10.574  0.0329  0.1659 -0.3367
 2665POSM   C3B31274  24.555  34.292  11.029 -0.1578  0.0534 -0.1706
 2665POSM   C4B31275  24.207  34.359  11.328 -0.0948  0.2957  0.0463
 2666DOPC   NC331276  33.147  11.729  11.218  0.1870 -0.1288 -0.3220
 2666DOPC   PO431277  32.860  11.510  11.357  0.1125 -0.2559  0.1673
 2666DOPC   GL131278  32.768  11.168  11.600  0.2690  0.2024 -0.1044
 2666DOPC   GL231279  32.954  11.224  11.825  0.2777  0.1023 -0.1157
 2666DOPC   C1A31280  32.503  10.903  11.914 -0.1840 -0.1113  0.3004
 2666DOPC   D2A31281  32.378  10.575  12.154  0.2045 -0.1373 -0.1040
 2666DOPC   C3A31282  32.581  10.391  12.545 -0.1871  0.1324 -0.0452
 2666DOPC   C4A31283  32.615  10.227  12.944  0.5541 -0.3722 -0.0328
 2666DOPC   C1B31284  32.789  11.245  12.214 -0.2660 -0.0021  0.0649
 2666DOPC   D2B31285  32.508  10.919  12.441  0.0759  0.0530  0.2529
 2666DOPC   C3B31286  32.329  10.783  12.855  0.2066  0.1008 -0.2643
 2666DOPC   C4B31287  32.520  10.605  13.212  0.2345 -0.1217 -0.1993
 2667DOPC   NC331288  31.605   9.073   9.887 -0.0133 -0.1860 -0.1829
 2667DOPC   PO431289  31.690   9.110  10.276  0.3930 -0.1893 -0.2153
 2667DOPC   GL131290  31.842   8.902  10.656 -0.2266 -0.3964  0.0400
 2667DOPC   GL231291  31.621   9.038  10.829  0.0374 -0.4047  0.1686
 2667DOPC   C1A31292  32.052   8.499  10.800  0.1606  0.2443  0.2016
 2667DOPC   D2A31293  32.391   8.258  10.906  0.0729  0.1471 -0.1587
 2667DOPC   C3A31294  32.268   7.848  11.044 -0.4327  0.1325 -0.1551
 2667DOPC   C4A31295  32.509   7.536  11.354 -0.0436 -0.2355  0.2220
 2667DOPC   C1B31296  31.501   8.780  11.198 -0.3599  0.0843 -0.0351
 2667DOPC   D2B31297  31.207   8.657  11.615 -0.2293 -0.0457 -0.0627
 2667DOPC   C3B31298  31.387   8.591  12.011 -0.0575 -0.2512 -0.0992
 2667DOPC   C4B31299  31.353   8.601  12.485 -0.0748 -0.0917 -0.1315
 2668DOPC   NC331300  27.411   5.873  10.070  0.1183 -0.1695 -0.0186
 2668DOPC   PO431301  27.787   5.817   9.944  0.1118  0.1893 -0.0750
 2668DOPC   GL131302  27.866   5.742  10.291 -0.1380 -0.1022 -0.2517
 2668DOPC   GL231303  27.687   5.937  10.474  0.1501 -0.2545 -0.0187
 2668DOPC   C1A31304  27.878   5.562  10.698  0.2787 -0.0073 -0.1668
 2668DOPC   D2A31305  27.797   5.539  11.136  0.1572  0.2966 -0.0207
 2668DOPC   C3A31306  27.684   5.086  11.244  0.1837  0.2395 -0.1672
 2668DOPC   C4A31307  27.366   4.873  11.520  0.0587 -0.0653 -0.0682
 2668DOPC   C1B31308  27.382   5.939  10.834 -0.1059  0.1381 -0.1183
 2668DOPC   D2B31309  27.313   5.743  11.248 -0.0706 -0.1243  0.3041
 2668DOPC   C3B31310  27.377   6.003  11.622 -0.0843  0.0246 -0.6477
 2668DOPC   C4B31311  27.357   6.499  11.558  0.1488  0.2148 -0.0194
 2669DOPE   NH331312  29.237   3.483  10.089  0.0010  0.3365  0.0014
 2669DOPE   PO431313  28.995   3.291  10.182 -0.1960 -0.0207  0.0676
 2669DOPE   GL131314  29.088   3.518  10.553  0.2252  0.5959 -0.1314
 2669DOPE   GL231315  29.341   3.566  10.591  0.4285  0.1241 -0.3234
 2669DOPE   C1A31316  28.844   3.433  10.973  0.0172  0.1266 -0.1883
 2669DOPE   D2A31317  28.454   3.237  11.151 -0.0909 -0.1248 -0.0192
 2669DOPE   C3A31318  28.456   2.844  11.183  0.0784  0.1649  0.3232
 2669DOPE   C4A31319  28.307   2.463  11.474 -0.0597  0.0504 -0.2395
 2669DOPE   C1B31320  29.600   3.693  10.927 -0.2252  0.0946  0.2290
 2669DOPE   D2B31321  29.870   3.906  11.279  0.0268 -0.1479  0.0283
 2669DOPE   C3B31322  29.673   3.768  11.692  0.1323  0.0940 -0.0056
 2669DOPE   C4B31323  29.301   3.501  11.821 -0.2279  0.0543 -0.0244
 2670POSM   NC331324  28.825  33.692   8.754 -0.1541  0.1429  0.3885
 2670POSM   PO431325  29.213  33.873   8.830  0.0056 -0.3237  0.0445
 2670POSM   AM131326  29.167  33.854   9.152  0.1327 -0.1362 -0.0467
 2670POSM   AM231327  29.058  34.097   9.276  0.0137  0.2166  0.0094
 2670POSM   T1A31328  28.930  33.684   9.551  0.2485  0.0751 -0.1565
 2670POSM   C2A31329  29.032  33.506   9.943  0.0165 -0.4528 -0.2732
 2670POSM   C3A31330  28.994  33.319  10.379 -0.0583  0.0687  0.2187
 2670POSM   C1B31331  28.981  34.145   9.593  0.2551 -0.0887  0.0081
 2670POSM   D2B31332  28.893  33.977  10.010  0.4497  0.2468 -0.2037
 2670POSM   C3B31333  29.163  33.845  10.410  0.0413 -0.0946  0.1690
 2670POSM   C4B31334  29.240  33.611  10.738 -0.2788 -0.1704 -0.1828
 2671DOPE   NH331335  25.288   7.671   9.669  0.4305 -0.0478  0.1908
 2671DOPE   PO431336  25.006   7.793   9.740 -0.2341 -0.1052 -0.1885
 2671DOPE   GL131337  24.932   7.832  10.151  0.0571 -0.0957 -0.1024
 2671DOPE   GL231338  25.222   7.923  10.196 -0.0993 -0.2557 -0.0179
 2671DOPE   C1A31339  24.667   7.487  10.327 -0.3658 -0.3585  0.0936
 2671DOPE   D2A31340  24.320   7.229  10.294  0.1087  0.2962  0.0590
 2671DOPE   C3A31341  24.628   7.079  10.585  0.1936  0.1069  0.0477
 2671DOPE   C4A31342  24.832   6.985  10.993  0.0263 -0.0833  0.1481
 2671DOPE   C1B31343  25.445   7.615  10.511  0.0648  0.1983  0.4807
 2671DOPE   D2B31344  25.541   7.504  10.942 -0.0999 -0.3294  0.1781
 2671DOPE   C3B31345  25.246   7.242  11.191  0.1051  0.1341 -0.2058
 2671DOPE   C4B31346  24.945   6.917  11.497 -0.0722 -0.2690  0.3184
 2672DOPC   NC331347  31.464  33.574   9.464 -0.0344 -0.3602  0.2724
 2672DOPC   PO431348  31.642  33.883   9.305  0.1485  0.0676 -0.0804
 2672DOPC   GL131349  31.668  33.914   9.790 -0.4679 -0.1742  0.0531
 2672DOPC   GL231350  31.855  34.125   9.769 -0.0955 -0.0047 -0.1469
 2672DOPC   C1A31351  31.839  33.987  10.201 -0.0269 -0.1273  0.2639
 2672DOPC   D2A31352  31.845  34.304  10.562  0.3942  0.0722 -0.1104
 2672DOPC   C3A31353  31.767  34.674  10.801  0.3595  0.0253  0.1242
 2672DOPC   C4A31354  31.513  35.029  10.986 -0.2513  0.1537  0.0301
 2672DOPC   C1B31355  32.232  34.220  10.105 -0.0483  0.1012 -0.0844
 2672DOPC   D2B31356  32.392  34.122  10.496  0.0999 -0.2109 -0.1322
 2672DOPC   C3B31357  32.208  34.235  10.889 -0.0093  0.0053 -0.1841
 2672DOPC   C4B31358  32.032  34.214  11.279  0.1238  0.2445  0.1123
 2673POSM   NC331359  33.283   2.763   9.516  0.0279  0.3488 -0.0056
 2673POSM   PO431360  33.309   2.415   9.759 -0.0032  0.0969  0.0088
 2673POSM   AM131361  33.141   2.335  10.014 -0.0718  0.0558 -0.1549
 2673POSM   AM231362  33.156   2.108  10.187 -0.0383 -0.2266 -0.2103
 2673POSM   T1A31363  32.874   2.422  10.411  0.2381 -0.1050 -0.0744
 2673POSM   C2A31364  32.889   2.249  10.791  0.0253  0.2590  0.0775
 2673POSM   C3A31365  32.810   2.107  11.198 -0.0972  0.2027  0.5232
 2673POSM   C1B31366  33.141   1.943  10.518 -0.0065 -0.1410 -0.0995
 2673POSM   D2B31367  33.203   1.934  10.995  0.2314  0.0616  0.3060
 2673POSM   C3B31368  33.110   1.675  11.313 -0.0577  0.1892  0.0532
 2673POSM   C4B31369  32.881   1.573  11.626 -0.1689 -0.5642  0.4396
 2674DOPE   NH331370  31.568   4.567  10.288 -0.0897 -0.1426 -0.2197
 2674DOPE   PO431371  31.656   4.281  10.343  0.0808  0.2215 -0.1641
 2674DOPE   GL131372  31.799   4.306  10.695 -0.2456 -0.0523 -0.0223
 2674DOPE   GL231373  31.720   4.557  10.819 -0.0757  0.3552  0.2316
 2674DOPE   C1A31374  31.540   4.132  11.014 -0.0376  0.0274  0.0087
 2674DOPE   D2A31375  31.665   4.031  11.476  0.3283  0.0286  0.0062
 2674DOPE   C3A31376  31.757   3.539  11.451  0.1836 -0.2097 -0.1640
 2674DOPE   C4A31377  32.029   3.136  11.462 -0.0937  0.1706 -0.1317
 2674DOPE   C1B31378  31.957   4.319  11.170 -0.1553  0.1273  0.0696
 2674DOPE   D2B31379  32.344   4.271  11.439  0.1630  0.1934 -0.2822
 2674DOPE   C3B31380  32.733   4.613  11.610  0.0276  0.1869 -0.3000
 2674DOPE   C4B31381  32.917   4.780  12.016 -0.0226 -0.0024 -0.1994
 2675DOPE   NH331382  24.009   2.556   9.341 -0.2156  0.0965 -0.2455
 2675DOPE   PO431383  23.711   2.526   9.309 -0.1144 -0.1176  0.2374
 2675DOPE   GL131384  23.719   2.622   9.710  0.2889  0.0448  0.2952
 2675DOPE   GL231385  23.458   2.612   9.797  0.2930  0.3715 -0.0072
 2675DOPE   C1A31386  23.957   2.494  10.066 -0.1318 -0.0632  0.1246
 2675DOPE   D2A31387  24.026   2.553  10.537 -0.2152 -0.1213  0.0788
 2675DOPE   C3A31388  24.227   2.229  10.837 -0.2592 -0.3157  0.2633
 2675DOPE   C4A31389  24.152   1.775  11.023  0.1223  0.0105 -0.1775
 2675DOPE   C1B31390  23.588   2.833  10.120 -0.0669  0.0639 -0.1196
 2675DOPE   D2B31391  23.454   2.977  10.534  0.0325  0.1198  0.0396
 2675DOPE   C3B31392  23.480   3.366  10.761 -0.2236 -0.2177 -0.0681
 2675DOPE   C4B31393  23.463   3.829  10.613 -0.1201 -0.2075  0.0439
 2676DOPC   NC331394  28.384  10.523  10.054  0.0864 -0.2184 -0.1499
 2676DOPC   PO431395  28.043  10.743  10.077  0.1680 -0.0567 -0.0485
 2676DOPC   GL131396  28.005  10.744  10.454 -0.1402 -0.0235  0.3400
 2676DOPC   GL231397  28.289  10.727  10.570  0.1843 -0.1685 -0.3150
 2676DOPC   C1A31398  27.713  10.965  10.761 -0.0086 -0.0857 -0.1864
 2676DOPC   D2A31399  27.294  11.146  10.866  0.0306 -0.0263  0.0908
 2676DOPC   C3A31400  27.367  11.239  11.300 -0.1406  0.1223  0.3908
 2676DOPC   C4A31401  27.597  11.417  11.626 -0.0415  0.1205 -0.0393
 2676DOPC   C1B31402  27.979  10.548  10.967  0.2214  0.2083  0.0019
 2676DOPC   D2B31403  27.766  10.281  11.298  0.0143 -0.2041  0.0230
 2676DOPC   C3B31404  27.534  10.403  11.669  0.3507  0.0547  0.2021
 2676DOPC   C4B31405  27.387  10.167  12.015  0.0532  0.0984  0.1129
 2677DOPE   NH331406  24.660   7.490   9.480 -0.0770 -0.0316  0.0038
 2677DOPE   PO431407  24.907   7.345   9.489  0.0335  0.0646 -0.2529
 2677DOPE   GL131408  24.888   7.363   9.900 -0.4952  0.0190 -0.1960
 2677DOPE   GL231409  25.145   7.408  10.079  0.0910 -0.0471  0.0264
 2677DOPE   C1A31410  24.801   6.953  10.116  0.2403  0.0257 -0.2556
 2677DOPE   D2A31411  24.417   6.705  10.180 -0.5207 -0.1468  0.3206
 2677DOPE   C3A31412  24.156   6.841  10.553  0.4618  0.3666 -0.1299
 2677DOPE   C4A31413  23.980   7.250  10.729 -0.1362  0.1078  0.0243
 2677DOPE   C1B31414  25.488   7.180  10.271  0.1490 -0.2454  0.0378
 2677DOPE   D2B31415  25.472   7.072  10.675  0.3312  0.3509  0.0875
 2677DOPE   C3B31416  25.292   6.835  10.974  0.2925 -0.1576  0.1403
 2677DOPE   C4B31417  25.203   6.542  11.308  0.0542 -0.2434  0.0497
 2678POSM   NC331418  31.462   7.195  10.034 -0.1366  0.1750 -0.1076
 2678POSM   PO431419  31.134   6.992   9.971 -0.0086 -0.0010 -0.1318
 2678POSM   AM131420  31.143   6.851  10.314 -0.3723  0.3436 -0.2091
 2678POSM   AM231421  31.415   6.901  10.470  0.0128  0.2714 -0.1006
 2678POSM   T1A31422  30.923   6.689  10.787 -0.0202 -0.0948  0.1563
 2678POSM   C2A31423  30.668   6.755  11.143 -0.4431 -0.1686  0.3822
 2678POSM   C3A31424  30.931   6.724  11.611  0.2337  0.0679 -0.1601
 2678POSM   C1B31425  31.411   6.927  10.799  0.0759  0.1275 -0.0800
 2678POSM   D2B31426  31.285   6.768  11.184  0.0874 -0.1716 -0.3056
 2678POSM   C3B31427  31.415   6.815  11.619  0.0189  0.0853  0.3664
 2678POSM   C4B31428  31.660   6.917  12.026  0.0162 -0.1099  0.2243
 2679DOPC   NC331429  32.823   6.865  10.156  0.0871  0.3854 -0.1924
 2679DOPC   PO431430  32.833   7.173  10.351 -0.0230 -0.1665  0.1425
 2679DOPC   GL131431  32.905   7.197  10.788 -0.1198 -0.1061  0.0704
 2679DOPC   GL231432  32.788   7.472  10.827 -0.2736  0.3107  0.0276
 2679DOPC   C1A31433  32.782   7.066  11.185 -0.2263  0.0945 -0.0528
 2679DOPC   D2A31434  32.372   7.104  11.364 -0.0592  0.1988 -0.0062
 2679DOPC   C3A31435  32.035   7.347  11.120 -0.3816  0.0672  0.0165
 2679DOPC   C4A31436  32.018   7.482  10.708  0.1032  0.1386  0.0647
 2679DOPC   C1B31437  32.812   7.889  11.049  0.2256  0.2515  0.2223
 2679DOPC   D2B31438  33.220   8.048  11.273  0.0296 -0.4580  0.1135
 2679DOPC   C3B31439  33.457   8.350  11.567  0.3106 -0.1430 -0.1184
 2679DOPC   C4B31440  33.795   8.584  11.725 -0.0073 -0.0241 -0.0781
 2680POSM   NC331441  31.131  11.539  10.970 -0.3491  0.1621  0.0913
 2680POSM   PO431442  31.162  11.762  11.288 -0.1675  0.0935 -0.1190
 2680POSM   AM131443  31.233  11.756  11.620  0.1007 -0.2786 -0.0324
 2680POSM   AM231444  31.275  11.986  11.798 -0.0261 -0.1346 -0.1492
 2680POSM   T1A31445  31.024  11.583  12.025 -0.0609 -0.0292  0.2206
 2680POSM   C2A31446  30.770  11.440  12.414  0.1984  0.0617  0.2306
 2680POSM   C3A31447  30.569  11.071  12.573  0.1754  0.1633  0.0336
 2680POSM   C1B31448  31.126  12.114  11.984 -0.1996  0.0885  0.2660
 2680POSM   D2B31449  30.866  12.288  12.281 -0.0544 -0.1167 -0.0246
 2680POSM   C3B31450  30.877  12.566  12.679 -0.0520 -0.0176 -0.1017
 2680POSM   C4B31451  30.771  13.004  12.773  0.0225 -0.0122  0.2619
 2681DOPE   NH331452  27.757   1.886   9.406  0.2467  0.1316  0.0651
 2681DOPE   PO431453  27.480   2.012   9.353 -0.2387 -0.0329 -0.1161
 2681DOPE   GL131454  27.282   1.943   9.697  0.0055  0.2506 -0.1336
 2681DOPE   GL231455  27.075   2.091   9.707 -0.1056  0.2545  0.1869
 2681DOPE   C1A31456  27.072   1.553   9.896 -0.3072 -0.3260 -0.0584
 2681DOPE   D2A31457  26.713   1.277   9.964  0.1768 -0.2736  0.2985
 2681DOPE   C3A31458  26.693   1.015  10.325  0.0750 -0.0103 -0.0842
 2681DOPE   C4A31459  26.450   0.737  10.570 -0.1241 -0.1066 -0.1385
 2681DOPE   C1B31460  27.351   2.227  10.050  0.0821  0.3077 -0.1750
 2681DOPE   D2B31461  27.752   2.121  10.262 -0.0985 -0.2266  0.3091
 2681DOPE   C3B31462  27.868   2.516  10.513  0.1499 -0.0714 -0.0098
 2681DOPE   C4B31463  27.637   2.877  10.733  0.3550 -0.1811  0.1091
 2682DOPC   NC331464  32.439   5.732   9.633 -0.2648 -0.0612 -0.5433
 2682DOPC   PO431465  32.354   5.799   9.996  0.0328 -0.0889  0.1055
 2682DOPC   GL131466  32.012   5.889  10.314 -0.5736  0.2740 -0.1213
 2682DOPC   GL231467  32.054   5.988  10.673 -0.2348  0.1235 -0.2115
 2682DOPC   C1A31468  31.820   5.562  10.586 -0.1431  0.2788  0.1955
 2682DOPC   D2A31469  31.613   5.238  10.865  0.0073 -0.1478 -0.1319
 2682DOPC   C3A31470  31.261   5.286  11.189  0.2067 -0.1810 -0.0562
 2682DOPC   C4A31471  31.134   4.868  11.463 -0.0137 -0.0732 -0.1420
 2682DOPC   C1B31472  32.137   5.870  11.104 -0.0693 -0.4636 -0.1385
 2682DOPC   D2B31473  32.065   6.227  11.410 -0.1866 -0.1698  0.0656
 2682DOPC   C3B31474  32.070   6.168  11.824  0.2132  0.2013  0.0425
 2682DOPC   C4B31475  32.130   6.520  12.181 -0.3451 -0.0019 -0.1124
 2683DOPE   NH331476   0.504  34.261  10.056 -0.1614  0.2741  0.1530
 2683DOPE   PO431477   0.627  33.969   9.921 -0.0295  0.0917 -0.2307
 2683DOPE   GL131478   0.543  33.940  10.390 -0.3537  0.1536  0.0817
 2683DOPE   GL231479   0.372  33.704  10.552 -0.0987  0.1294 -0.2057
 2683DOPE   C1A31480   0.674  33.993  10.820 -0.1862  0.2967 -0.0511
 2683DOPE   D2A31481   1.017  34.279  10.992  0.0831  0.0083 -0.0054
 2683DOPE   C3A31482   0.993  34.427  11.460  0.1338  0.0447  0.2199
 2683DOPE   C4A31483   1.118  34.766  11.714  0.0836  0.0432 -0.2726
 2683DOPE   C1B31484   0.226  33.741  11.006 -0.1879 -0.0360 -0.0772
 2683DOPE   D2B31485   0.015  34.048  11.305  0.0254  0.0027  0.3061
 2683DOPE   C3B31486  -0.221  34.227  11.683 -0.1098 -0.0768 -0.0444
 2683DOPE   C4B31487  -0.451  34.410  12.086  0.0037 -0.1129  0.2800
 2684POSM   NC331488  24.502   5.277   9.125  0.0773 -0.1761  0.5070
 2684POSM   PO431489  24.832   5.352   9.284  0.2137  0.0058  0.0933
 2684POSM   AM131490  24.912   5.257   9.611 -0.1605 -0.1497 -0.0095
 2684POSM   AM231491  25.143   5.113   9.747 -0.0268 -0.0418  0.0175
 2684POSM   T1A31492  24.918   5.344  10.104 -0.1248 -0.3728 -0.1039
 2684POSM   C2A31493  24.813   5.359  10.595 -0.1938 -0.0172 -0.0226
 2684POSM   C3A31494  24.592   5.536  10.960  0.0765  0.1155  0.1527
 2684POSM   C1B31495  24.990   4.903   9.980  0.1461 -0.1661  0.1787
 2684POSM   D2B31496  24.936   4.861  10.436  0.1479  0.1628 -0.0686
 2684POSM   C3B31497  24.527   4.740  10.614 -0.1631  0.2330 -0.2008
 2684POSM   C4B31498  24.516   4.484  11.008 -0.0788  0.2977 -0.0531
 2685DOPC   NC331499  29.482   5.696  10.306  0.0024 -0.0701 -0.0806
 2685DOPC   PO431500  29.505   6.049  10.059  0.1846 -0.0369  0.1425
 2685DOPC   GL131501  29.293   6.175  10.396  0.2258 -0.1008  0.1933
 2685DOPC   GL231502  28.977   6.201  10.439 -0.1549 -0.1868 -0.0062
 2685DOPC   C1A31503  29.397   6.521  10.709  0.1795 -0.0688  0.1783
 2685DOPC   D2A31504  29.517   6.941  10.870  0.0937 -0.1894 -0.3629
 2685DOPC   C3A31505  29.446   7.059  11.311 -0.0791  0.0672  0.0977
 2685DOPC   C4A31506  29.514   6.987  11.767  0.0214  0.0357 -0.5026
 2685DOPC   C1B31507  28.995   6.266  10.906 -0.0217  0.0462  0.2582
 2685DOPC   D2B31508  28.832   6.344  11.360 -0.1827 -0.2696  0.0648
 2685DOPC   C3B31509  29.158   6.543  11.727 -0.3688  0.2983  0.2555
 2685DOPC   C4B31510  29.016   6.764  12.096  0.0470 -0.1151 -0.5909
 2686POSM   NC331511  30.881   0.741   9.562  0.3029  0.0303  0.0816
 2686POSM   PO431512  31.024   0.428   9.403  0.0365  0.0995  0.2409
 2686POSM   AM131513  30.938   0.318   9.708  0.1563 -0.1241  0.1160
 2686POSM   AM231514  30.710   0.231   9.810  0.0983  0.0851 -0.1428
 2686POSM   T1A31515  31.087   0.194  10.152  0.2556  0.0851 -0.2520
 2686POSM   C2A31516  31.137   0.140  10.654  0.1741  0.1599 -0.2959
 2686POSM   C3A31517  31.107  -0.069  11.105 -0.0287 -0.3182 -0.1083
 2686POSM   C1B31518  30.565   0.308  10.087  0.0221 -0.0128  0.1319
 2686POSM   D2B31519  30.419   0.338  10.524  0.0817  0.1732 -0.0049
 2686POSM   C3B31520  30.233   0.650  10.798 -0.0112 -0.2531 -0.0997
 2686POSM   C4B31521  29.874   0.874  11.002 -0.0754 -0.0481  0.1815
 2687POSM   NC331522  23.079  10.278  10.032 -0.0490 -0.1013 -0.1477
 2687POSM   PO431523  23.471  10.278   9.978 -0.1996  0.0437 -0.0564
 2687POSM   AM131524  23.573  10.441  10.207 -0.0931  0.2784  0.0070
 2687POSM   AM231525  23.662  10.370  10.465  0.0804  0.2816 -0.1190
 2687POSM   T1A31526  23.637  10.869  10.520  0.1087 -0.3602  0.0954
 2687POSM   C2A31527  23.883  10.804  10.895 -0.0765 -0.0477  0.0455
 2687POSM   C3A31528  23.963  10.450  11.219 -0.1928 -0.0184  0.2187
 2687POSM   C1B31529  23.608  10.355  10.813 -0.0613  0.1845 -0.2213
 2687POSM   D2B31530  23.435  10.172  11.153  0.1936 -0.3060 -0.1324
 2687POSM   C3B31531  23.258  10.265  11.550 -0.0770  0.0511  0.0167
 2687POSM   C4B31532  23.330  10.041  11.953 -0.1274 -0.3549 -0.0506
 2688DOPC   NC331533  25.402   4.084   8.989  0.0555  0.1298 -0.1952
 2688DOPC   PO431534  25.437   4.193   9.369 -0.0641  0.3275  0.0923
 2688DOPC   GL131535  25.653   4.288   9.739  0.0446 -0.0051  0.1437
 2688DOPC   GL231536  25.426   4.143   9.873  0.1466  0.0864  0.0023
 2688DOPC   C1A31537  25.902   4.223  10.104  0.1834 -0.0241  0.0021
 2688DOPC   D2A31538  26.172   4.199  10.455  0.1636 -0.2633  0.1861
 2688DOPC   C3A31539  26.180   4.467  10.859 -0.1638 -0.1021  0.0819
 2688DOPC   C4A31540  25.953   4.654  11.257 -0.2166  0.0629 -0.1799
 2688DOPC   C1B31541  25.019   4.345  10.012  0.1832  0.0187  0.1205
 2688DOPC   D2B31542  24.625   4.573  10.088 -0.4289  0.1947  0.1979
 2688DOPC   C3B31543  24.525   4.235   9.864 -0.0742  0.0928 -0.2526
 2688DOPC   C4B31544  24.251   3.968   9.565 -0.0195 -0.0980  0.2910
 2689DOPE   NH331545  24.745   2.172   9.603  0.3413  0.0651 -0.0398
 2689DOPE   PO431546  24.720   1.905   9.426 -0.0938 -0.0170  0.1869
 2689DOPE   GL131547  24.930   1.755   9.682  0.0016  0.6966  0.4260
 2689DOPE   GL231548  24.924   1.460   9.538  0.0529  0.0170 -0.1228
 2689DOPE   C1A31549  24.941   1.945  10.117  0.1764  0.1985 -0.1608
 2689DOPE   D2A31550  25.171   1.935  10.530  0.1000  0.2565 -0.3810
 2689DOPE   C3A31551  25.157   1.604  10.872 -0.1887 -0.3359 -0.0281
 2689DOPE   C4A31552  25.056   1.468  11.289 -0.0552  0.0027 -0.0052
 2689DOPE   C1B31553  24.782   1.405   9.965  0.0431  0.2122 -0.1232
 2689DOPE   D2B31554  24.718   1.520  10.362 -0.0768 -0.0193 -0.3639
 2689DOPE   C3B31555  24.829   1.258  10.746  0.1221  0.1617  0.0924
 2689DOPE   C4B31556  24.888   1.005  11.165 -0.1786  0.1246 -0.1568
 2690POSM   NC331557  24.150  14.271   9.331 -0.0107 -0.1923  0.2487
 2690POSM   PO431558  24.307  14.327   9.666 -0.2918  0.2953 -0.1854
 2690POSM   AM131559  24.230  14.175   9.970  0.1709  0.3001  0.3022
 2690POSM   AM231560  23.996  14.142  10.142 -0.3996 -0.1732 -0.3664
 2690POSM   T1A31561  24.470  14.110  10.398  0.2409 -0.0371 -0.3471
 2690POSM   C2A31562  24.641  13.862  10.752  0.1522  0.1828 -0.0098
 2690POSM   C3A31563  24.854  13.595  11.002  0.0942  0.2647  0.2365
 2690POSM   C1B31564  24.031  14.258  10.429  0.2495  0.0344  0.0116
 2690POSM   D2B31565  24.020  14.533  10.822 -0.0710  0.0988 -0.2343
 2690POSM   C3B31566  23.920  14.228  11.218 -0.2709 -0.2269 -0.1403
 2690POSM   C4B31567  23.955  14.102  11.644  0.0954  0.0524  0.4423
 2691POSM   NC331568  25.295   3.279   9.313 -0.0798 -0.2217  0.1743
 2691POSM   PO431569  25.355   3.664   9.365  0.2061 -0.2026 -0.0265
 2691POSM   AM131570  25.184   3.582   9.663 -0.3191 -0.4118  0.0772
 2691POSM   AM231571  25.262   3.490   9.919 -0.1157  0.0133 -0.1956
 2691POSM   T1A31572  24.814   3.810   9.975 -0.2508  0.4267  0.2513
 2691POSM   C2A31573  24.403   3.829  10.215  0.4089  0.2872  0.1206
 2691POSM   C3A31574  24.108   3.493  10.360 -0.0053  0.2014 -0.0148
 2691POSM   C1B31575  25.241   3.366  10.260  0.3763  0.2694 -0.1268
 2691POSM   D2B31576  25.190   3.389  10.654  0.2532  0.1041  0.2516
 2691POSM   C3B31577  24.740   3.260  10.819  0.2619 -0.1628  0.1383
 2691POSM   C4B31578  24.225   3.267  10.828 -0.0753 -0.2143  0.2722
 2692DOPS   CNO31579  28.567   6.462  10.149 -0.0463 -0.1656  0.1501
 2692DOPS   PO431580  28.564   6.076  10.137  0.1926  0.1374 -0.0195
 2692DOPS   GL131581  28.351   5.968  10.490 -0.2062  0.1721  0.0609
 2692DOPS   GL231582  28.215   6.218  10.499  0.2341  0.0388  0.0153
 2692DOPS   C1A31583  28.381   5.739  10.899 -0.0150  0.1458  0.2209
 2692DOPS   D2A31584  28.352   5.703  11.391 -0.2753 -0.0823  0.3171
 2692DOPS   C3A31585  27.939   5.714  11.610  0.0191 -0.1293 -0.2168
 2692DOPS   C4A31586  27.704   5.938  11.961 -0.0157  0.2566  0.1312
 2692DOPS   C1B31587  28.010   6.174  10.825  0.0803  0.2876 -0.1706
 2692DOPS   D2B31588  28.096   6.102  11.279  0.1841  0.1447 -0.1336
 2692DOPS   C3B31589  28.335   6.375  11.519  0.1207  0.0679 -0.3751
 2692DOPS   C4B31590  28.658   6.659  11.750  0.1335 -0.0971  0.0914
 2693DOPC   NC331591  26.027   8.544  10.222 -0.1010 -0.2551  0.0137
 2693DOPC   PO431592  25.620   8.489  10.114 -0.0186 -0.1265  0.2515
 2693DOPC   GL131593  25.343   8.341  10.344 -0.1488  0.2473 -0.1186
 2693DOPC   GL231594  25.303   8.519  10.582  0.0269  0.0593 -0.0923
 2693DOPC   C1A31595  25.271   8.004  10.712 -0.0399  0.2929 -0.1962
 2693DOPC   D2A31596  25.073   7.694  11.015 -0.0231  0.1690 -0.0513
 2693DOPC   C3A31597  25.040   7.310  10.678  0.1520  0.1150 -0.0532
 2693DOPC   C4A31598  25.049   6.842  10.524  0.0913 -0.1279 -0.2037
 2693DOPC   C1B31599  25.305   8.619  11.063 -0.0118  0.0425  0.0761
 2693DOPC   D2B31600  25.398   8.898  11.444 -0.1384 -0.1035  0.0394
 2693DOPC   C3B31601  25.213   9.101  11.746 -0.1900 -0.0102  0.0321
 2693DOPC   C4B31602  25.177   9.408  12.125 -0.0582 -0.0834 -0.0480
 2694POSM   NC331603  22.662   8.486  10.024 -0.0665  0.0848 -0.0392
 2694POSM   PO431604  22.596   8.133  10.032 -0.5652 -0.0248  0.0559
 2694POSM   AM131605  22.605   8.004  10.334 -0.2967 -0.1058  0.0909
 2694POSM   AM231606  22.649   7.768  10.428  0.0668  0.0409 -0.2326
 2694POSM   T1A31607  22.461   8.068  10.809 -0.2681  0.0648  0.2117
 2694POSM   C2A31608  22.271   7.996  11.273 -0.0693  0.0179 -0.1101
 2694POSM   C3A31609  22.341   7.955  11.709 -0.0776  0.0882  0.0911
 2694POSM   C1B31610  22.660   7.596  10.705 -0.1416  0.0638 -0.1419
 2694POSM   D2B31611  22.960   7.368  10.952  0.1808 -0.1797 -0.2692
 2694POSM   C3B31612  22.991   7.231  11.382 -0.1983  0.0169  0.0875
 2694POSM   C4B31613  22.986   7.179  11.823 -0.0969  0.2900 -0.0483
 2695DOPE   NH331614  27.684   4.597   9.936  0.1090 -0.0144 -0.1390
 2695DOPE   PO431615  27.685   4.931   9.976  0.3257 -0.1070 -0.1700
 2695DOPE   GL131616  27.677   4.888  10.381 -0.1043 -0.1967  0.1973
 2695DOPE   GL231617  27.415   4.760  10.364 -0.1970 -0.0164 -0.0959
 2695DOPE   C1A31618  27.891   5.053  10.756  0.0069  0.1249 -0.0208
 2695DOPE   D2A31619  28.198   5.182  11.060 -0.2487  0.3067  0.2053
 2695DOPE   C3A31620  28.076   5.224  11.521  0.2106  0.2134 -0.0776
 2695DOPE   C4A31621  28.194   5.010  11.955 -0.0992  0.0342 -0.3562
 2695DOPE   C1B31622  27.595   4.682  10.789 -0.1769 -0.0001  0.3024
 2695DOPE   D2B31623  27.565   4.494  11.153 -0.0196  0.2733 -0.2413
 2695DOPE   C3B31624  27.385   4.036  11.157  0.1546  0.1414 -0.0512
 2695DOPE   C4B31625  27.123   3.768  11.469  0.2575  0.1964  0.0499
 2696POSM   NC331626  25.317  11.755  10.088 -0.0793 -0.2897 -0.0590
 2696POSM   PO431627  25.685  11.611  10.039  0.2719 -0.1729 -0.0745
 2696POSM   AM131628  25.808  11.412  10.262 -0.0913  0.1487  0.6449
 2696POSM   AM231629  25.815  11.180  10.397  0.1784  0.2201 -0.3018
 2696POSM   T1A31630  25.935  11.586  10.672  0.0205  0.0644  0.0082
 2696POSM   C2A31631  25.874  11.431  11.108 -0.2452 -0.0061  0.0163
 2696POSM   C3A31632  25.778  11.349  11.496 -0.0143  0.0376  0.2145
 2696POSM   C1B31633  25.734  11.099  10.732  0.0963  0.0136  0.0694
 2696POSM   D2B31634  25.735  10.968  11.141 -0.1478  0.1162  0.1009
 2696POSM   C3B31635  25.571  10.914  11.542  0.1500 -0.3217  0.3968
 2696POSM   C4B31636  25.498  10.514  11.822 -0.2748  0.1803 -0.0168
 2697POSM   NC331637  28.051   8.881  10.211  0.5270 -0.3399 -0.1569
 2697POSM   PO431638  28.037   8.523  10.137 -0.1220 -0.1682 -0.0359
 2697POSM   AM131639  27.889   8.350  10.371  0.1095  0.1104  0.1500
 2697POSM   AM231640  27.937   8.199  10.597 -0.2337  0.2446 -0.1711
 2697POSM   T1A31641  27.443   8.369  10.581  0.0344 -0.1367 -0.1721
 2697POSM   C2A31642  27.023   8.348  10.479 -0.1891 -0.0162  0.0172
 2697POSM   C3A31643  26.643   8.554  10.333 -0.0463  0.1209 -0.1897
 2697POSM   C1B31644  27.709   8.003  10.741  0.0964  0.2863  0.0494
 2697POSM   D2B31645  27.357   7.859  10.954 -0.0142 -0.1671  0.1546
 2697POSM   C3B31646  26.886   7.957  10.878  0.1867  0.3689 -0.1367
 2697POSM   C4B31647  26.427   7.934  10.958  0.1760  0.0273 -0.1011
 2698POSM   NC331648  26.001   6.366   9.047  0.2410 -0.0551 -0.1370
 2698POSM   PO431649  25.758   6.374   9.334  0.1016 -0.2137 -0.3174
 2698POSM   AM131650  25.805   6.321   9.643  0.0894 -0.0528  0.1923
 2698POSM   AM231651  25.915   6.457   9.831 -0.0080  0.0829  0.1451
 2698POSM   T1A31652  26.187   6.069   9.928  0.0628  0.0920 -0.1770
 2698POSM   C2A31653  26.402   5.954  10.323  0.0726 -0.2881  0.0534
 2698POSM   C3A31654  26.462   5.819  10.760 -0.2023  0.1225  0.2564
 2698POSM   C1B31655  25.848   6.373  10.176 -0.0731 -0.0609 -0.1763
 2698POSM   D2B31656  25.627   6.532  10.593  0.1788  0.1894  0.0146
 2698POSM   C3B31657  25.758   6.350  10.987  0.1811 -0.0847  0.2922
 2698POSM   C4B31658  25.661   6.246  11.390  0.1147 -0.1893 -0.0475
 2699DOPS   CNO31659  30.355   8.561   9.663 -0.1789 -0.2536 -0.1461
 2699DOPS   PO431660  30.402   8.815   9.923  0.2952 -0.1540 -0.0315
 2699DOPS   GL131661  30.805   8.764  10.107 -0.0204  0.2076 -0.0178
 2699DOPS   GL231662  30.732   8.709  10.341  0.0392  0.1100  0.1884
 2699DOPS   C1A31663  31.101   8.431  10.253 -0.1671 -0.1288  0.1918
 2699DOPS   D2A31664  31.435   8.093  10.282 -0.0993 -0.2700 -0.2568
 2699DOPS   C3A31665  31.228   7.975  10.655 -0.3690 -0.2116  0.1330
 2699DOPS   C4A31666  31.099   8.024  11.096 -0.0623  0.1799 -0.0756
 2699DOPS   C1B31667  30.426   8.449  10.642 -0.2543 -0.0650 -0.3930
 2699DOPS   D2B31668  30.575   8.125  10.981  0.0768  0.2919 -0.0763
 2699DOPS   C3B31669  30.430   7.965  11.392  0.0412  0.2032  0.1464
 2699DOPS   C4B31670  30.542   7.809  11.760 -0.0461  0.0471 -0.0596
 2700POSM   NC331671  29.310   1.964   9.206 -0.0118  0.1508 -0.2205
 2700POSM   PO431672  29.240   1.579   9.192  0.1669  0.2015  0.4101
 2700POSM   AM131673  29.451   1.488   9.422 -0.3362 -0.4318 -0.2784
 2700POSM   AM231674  29.712   1.368   9.411  0.1382  0.2878  0.1120
 2700POSM   T1A31675  29.621   1.423   9.885  0.1496  0.2727 -0.1659
 2700POSM   C2A31676  29.497   1.404  10.322  0.0528  0.0602  0.0116
 2700POSM   C3A31677  29.517   1.234  10.782  0.3856 -0.1316 -0.1728
 2700POSM   C1B31678  29.837   1.100   9.544  0.0131  0.1018 -0.1327
 2700POSM   D2B31679  29.971   0.759   9.816  0.1280 -0.0102  0.0684
 2700POSM   C3B31680  30.257   0.797  10.197  0.0148  0.1791 -0.1588
 2700POSM   C4B31681  30.545   1.136  10.373 -0.2803 -0.1186  0.1607
 2701DOPE   NH331682  32.625   4.250  10.414  0.0206  0.0156 -0.0475
 2701DOPE   PO431683  32.578   4.554  10.477 -0.0167  0.0773  0.3344
 2701DOPE   GL131684  32.625   4.770  10.863 -0.1014 -0.1798 -0.0074
 2701DOPE   GL231685  32.511   4.951  10.788  0.0904 -0.0480 -0.3684
 2701DOPE   C1A31686  32.396   4.725  11.229  0.1203 -0.0568 -0.3048
 2701DOPE   D2A31687  32.214   4.727  11.653 -0.3412 -0.2217  0.0872
 2701DOPE   C3A31688  31.843   4.484  11.662  0.1101  0.1453  0.0678
 2701DOPE   C4A31689  31.424   4.709  11.821 -0.2176  0.0566  0.0245
 2701DOPE   C1B31690  32.104   5.247  10.791 -0.0104 -0.0997  0.5801
 2701DOPE   D2B31691  31.913   5.459  11.125 -0.1689  0.4800 -0.1683
 2701DOPE   C3B31692  32.078   5.293  11.522  0.2761  0.1685  0.2042
 2701DOPE   C4B31693  31.919   5.149  11.930 -0.1365  0.1928  0.0825
 2702DOPE   NH331694  33.111   9.470  10.622 -0.0588  0.2955 -0.0390
 2702DOPE   PO431695  32.928   9.508  10.880 -0.2790  0.2534  0.2070
 2702DOPE   GL131696  32.815   9.745  11.186  0.2674  0.0964 -0.0201
 2702DOPE   GL231697  32.611   9.550  11.318 -0.0885  0.0645 -0.1157
 2702DOPE   C1A31698  32.761   9.854  11.635  0.0311  0.0839  0.0259
 2702DOPE   D2A31699  32.573   9.629  11.945 -0.0275  0.2403 -0.1750
 2702DOPE   C3A31700  32.110   9.575  11.967 -0.1411  0.0562 -0.1252
 2702DOPE   C4A31701  31.757   9.870  12.089  0.0366 -0.0259  0.1443
 2702DOPE   C1B31702  32.192   9.350  11.459  0.4224 -0.0574 -0.3125
 2702DOPE   D2B31703  31.778   9.342  11.633 -0.0591  0.0241  0.1637
 2702DOPE   C3B31704  31.574   9.104  11.986 -0.4204 -0.0256 -0.2571
 2702DOPE   C4B31705  31.847   8.788  12.215 -0.2249  0.0359 -0.0776
 2703DOPE   NH331706  28.222  10.010   9.813  0.1498 -0.0143  0.1394
 2703DOPE   PO431707  28.013   9.786   9.924 -0.0767 -0.2982  0.0348
 2703DOPE   GL131708  28.078   9.868  10.333  0.0328  0.2428 -0.1185
 2703DOPE   GL231709  28.273  10.075  10.316  0.1608 -0.0943  0.2031
 2703DOPE   C1A31710  27.887   9.605  10.627  0.0056 -0.0893 -0.0837
 2703DOPE   D2A31711  28.084   9.477  10.975  0.1167 -0.2727 -0.2623
 2703DOPE   C3A31712  27.619   9.395  11.189  0.0715  0.2400 -0.0993
 2703DOPE   C4A31713  27.436   9.290  11.615 -0.1622 -0.1159  0.3440
 2703DOPE   C1B31714  28.177  10.139  10.734  0.2402 -0.0127  0.2338
 2703DOPE   D2B31715  28.244  10.103  11.161 -0.3074 -0.0413 -0.1280
 2703DOPE   C3B31716  28.285  10.475  11.399  0.0151  0.0904 -0.1730
 2703DOPE   C4B31717  28.196  10.500  11.895  0.3260  0.0174 -0.0607
 2704DOPE   NH331718  23.469  32.259   9.075 -0.1292 -0.0945 -0.4514
 2704DOPE   PO431719  23.774  32.396   9.193  0.1991 -0.1648 -0.0066
 2704DOPE   GL131720  23.982  32.418   9.658  0.0666 -0.1192  0.0500
 2704DOPE   GL231721  23.866  32.692   9.775  0.0501  0.1054  0.3534
 2704DOPE   C1A31722  23.797  32.224  10.029 -0.0279 -0.1938 -0.1784
 2704DOPE   D2A31723  23.935  32.313  10.526 -0.1152  0.1231  0.0206
 2704DOPE   C3A31724  23.966  32.703  10.753  0.3816  0.1757  0.2895
 2704DOPE   C4A31725  23.770  33.007  10.960 -0.2233 -0.4143  0.0031
 2704DOPE   C1B31726  24.156  32.546  10.053  0.1501  0.0025  0.0088
 2704DOPE   D2B31727  24.573  32.354  10.234 -0.0414  0.1717 -0.2641
 2704DOPE   C3B31728  24.817  32.562  10.585 -0.2079  0.3065  0.1118
 2704DOPE   C4B31729  25.015  32.314  10.968 -0.0561 -0.0435 -0.0116
 2705POSM   NC331730  25.149   4.988   9.250  0.1983  0.0322  0.1684
 2705POSM   PO431731  24.754   4.845   9.173  0.1524 -0.1648 -0.3353
 2705POSM   AM131732  24.521   4.855   9.398 -0.0108  0.1163  0.1935
 2705POSM   AM231733  24.284   4.985   9.536 -0.1106 -0.1206  0.0586
 2705POSM   T1A31734  24.191   4.582   9.726 -0.0387 -0.0251  0.1544
 2705POSM   C2A31735  24.104   4.796  10.123  0.0088  0.3152 -0.4030
 2705POSM   C3A31736  23.933   5.268  10.200  0.0467 -0.0038 -0.1985
 2705POSM   C1B31737  24.473   5.006   9.796 -0.0059 -0.0488 -0.1924
 2705POSM   D2B31738  24.535   5.026  10.235  0.0169 -0.1886 -0.3305
 2705POSM   C3B31739  24.345   5.421  10.442  0.2163 -0.0880 -0.0599
 2705POSM   C4B31740  24.057   5.480  10.824 -0.0917 -0.2341  0.0692
 2706DOPC   NC331741   0.365   7.996  11.162  0.0212  0.2366  0.2274
 2706DOPC   PO431742   0.084   8.238  11.255 -0.1341 -0.0183  0.0091
 2706DOPC   GL131743   0.027   8.347  11.586 -0.1928 -0.2839  0.0052
 2706DOPC   GL231744   0.137   8.628  11.746 -0.0900 -0.1795  0.1459
 2706DOPC   C1A31745  -0.060   8.245  12.042  0.1315 -0.0626  0.1231
 2706DOPC   D2A31746  -0.298   8.442  12.383 -0.0448  0.0778 -0.3369
 2706DOPC   C3A31747  -0.062   8.593  12.737 -0.1279  0.0352  0.1492
 2706DOPC   C4A31748   0.017   8.943  12.922  0.0190  0.0474 -0.1053
 2706DOPC   C1B31749   0.151   8.654  12.222  0.3337 -0.3199  0.0995
 2706DOPC   D2B31750   0.393   8.900  12.535  0.0180 -0.0614  0.0847
 2706DOPC   C3B31751   0.416   8.611  12.817  0.0513 -0.1469  0.0588
 2706DOPC   C4B31752   0.636   8.334  13.035 -0.0407 -0.0529  0.0561
 2707DOPC   NC331753  30.361  11.458  10.814  0.1484  0.0262 -0.0194
 2707DOPC   PO431754  30.645  11.673  10.976 -0.1905  0.4687 -0.1104
 2707DOPC   GL131755  30.411  11.901  11.191  0.1896  0.0792 -0.2800
 2707DOPC   GL231756  30.155  11.868  11.041 -0.0555  0.2256  0.0709
 2707DOPC   C1A31757  30.205  11.654  11.529  0.2107 -0.0748 -0.2302
 2707DOPC   D2A31758  29.783  11.601  11.699 -0.1313  0.0249 -0.0893
 2707DOPC   C3A31759  29.554  11.839  12.068  0.1371  0.2962 -0.1496
 2707DOPC   C4A31760  29.655  11.704  12.503 -0.0423 -0.0687  0.0346
 2707DOPC   C1B31761  29.831  11.571  11.195  0.2191 -0.1490 -0.1549
 2707DOPC   D2B31762  29.403  11.589  11.351 -0.1461  0.2003 -0.0716
 2707DOPC   C3B31763  29.314  11.411  11.768  0.2339 -0.0867  0.1187
 2707DOPC   C4B31764  29.365  10.938  11.936 -0.0004 -0.0948 -0.1794
 2708POSM   NC331765  25.428   6.200   9.905 -0.2092  0.4371  0.2416
 2708POSM   PO431766  25.494   5.892   9.695 -0.1497  0.0178  0.3358
 2708POSM   AM131767  25.353   5.690   9.915  0.1195 -0.1818  0.2263
 2708POSM   AM231768  25.475   5.457  10.004  0.1043  0.3099  0.0659
 2708POSM   T1A31769  25.257   5.569  10.394  0.0275 -0.3816 -0.0987
 2708POSM   C2A31770  25.207   5.527  10.854  0.1128  0.0834 -0.1562
 2708POSM   C3A31771  25.521   5.574  11.186 -0.2355 -0.1725  0.0632
 2708POSM   C1B31772  25.741   5.366  10.171  0.0051  0.0891 -0.0302
 2708POSM   D2B31773  26.142   5.474  10.413  0.1823 -0.0516  0.1017
 2708POSM   C3B31774  26.015   5.619  10.854 -0.1082 -0.0522 -0.1205
 2708POSM   C4B31775  26.069   5.950  11.137 -0.4103  0.2280 -0.2256
 2709POSM   NC331776  32.190   6.299  10.125  0.0723 -0.2602 -0.0786
 2709POSM   PO431777  31.789   6.339  10.120  0.0542 -0.0625  0.1282
 2709POSM   AM131778  31.861   6.408  10.430  0.0263 -0.4801 -0.3698
 2709POSM   AM231779  32.044   6.578  10.570  0.1269 -0.1254 -0.1494
 2709POSM   T1A31780  31.753   6.322  10.899 -0.1074 -0.1352  0.1919
 2709POSM   C2A31781  31.311   6.227  11.010 -0.1982  0.1934 -0.0440
 2709POSM   C3A31782  30.842   6.262  11.022 -0.1117 -0.2266  0.3100
 2709POSM   C1B31783  31.965   6.811  10.769  0.0546 -0.3628 -0.0661
 2709POSM   D2B31784  31.762   6.948  11.161  0.0963 -0.2625 -0.0561
 2709POSM   C3B31785  31.702   6.523  11.343 -0.0922 -0.1659  0.1256
 2709POSM   C4B31786  31.644   6.398  11.828  0.2616 -0.0430  0.1328
 2710DOPS   CNO31787  31.718   3.909   9.675  0.1319 -0.0346 -0.1303
 2710DOPS   PO431788  31.444   3.814   9.950  0.0908 -0.0593  0.1478
 2710DOPS   GL131789  31.402   3.843  10.336  0.0833  0.1045 -0.3078
 2710DOPS   GL231790  31.565   3.864  10.571  0.3513 -0.1553  0.1819
 2710DOPS   C1A31791  31.130   3.526  10.607 -0.1852 -0.1340  0.1763
 2710DOPS   D2A31792  31.022   3.501  11.027 -0.0804 -0.2240 -0.0226
 2710DOPS   C3A31793  31.016   3.095  11.277  0.1868  0.2050  0.4236
 2710DOPS   C4A31794  31.123   2.855  11.663  0.4895 -0.1143 -0.0341
 2710DOPS   C1B31795  31.923   3.857  10.793  0.1208 -0.0887 -0.0536
 2710DOPS   D2B31796  32.150   3.898  11.165  0.1287  0.0325 -0.1112
 2710DOPS   C3B31797  32.119   3.839  11.606  0.0117  0.1087 -0.0708
 2710DOPS   C4B31798  32.132   3.477  11.922 -0.0224 -0.1294  0.3085
 2711DOPE   NH331799  33.640   6.904  10.841  0.1378 -0.0197  0.1542
 2711DOPE   PO431800  33.604   7.254  10.895  0.0845  0.1763 -0.0068
 2711DOPE   GL131801  33.372   7.173  11.175 -0.4572  0.0326  0.0732
 2711DOPE   GL231802  33.453   7.154  11.473 -0.0895 -0.2406  0.1526
 2711DOPE   C1A31803  33.078   7.490  11.226 -0.0751 -0.1974  0.1688
 2711DOPE   D2A31804  32.899   7.778  11.571  0.1179  0.2067  0.1967
 2711DOPE   C3A31805  32.941   7.536  12.003 -0.4086  0.0080  0.0352
 2711DOPE   C4A31806  33.061   7.181  12.283 -0.0499 -0.1657  0.3071
 2711DOPE   C1B31807  32.999   7.203  11.628 -0.0362 -0.2421  0.0986
 2711DOPE   D2B31808  32.562   7.296  11.828 -0.0496  0.2813  0.1084
 2711DOPE   C3B31809  32.126   7.464  11.702  0.1352 -0.1573  0.2996
 2711DOPE   C4B31810  31.830   7.181  11.616 -0.1193 -0.0967  0.1490
 2712DOPC   NC331811  29.699   3.337   9.521 -0.1531 -0.1582 -0.1314
 2712DOPC   PO431812  29.714   3.362   9.908  0.1349  0.2340 -0.2114
 2712DOPC   GL131813  29.690   3.536  10.312 -0.1415 -0.0962  0.1135
 2712DOPC   GL231814  29.597   3.854  10.156 -0.0470  0.2079  0.1103
 2712DOPC   C1A31815  29.691   3.233  10.745 -0.5172 -0.3632 -0.1102
 2712DOPC   D2A31816  29.964   2.910  10.951  0.0148  0.0530 -0.1869
 2712DOPC   C3A31817  30.317   3.101  11.140  0.2530 -0.0585 -0.0858
 2712DOPC   C4A31818  30.333   3.226  11.572  0.0727 -0.3143  0.0479
 2712DOPC   C1B31819  29.295   4.016  10.465  0.0768  0.2815 -0.2038
 2712DOPC   D2B31820  29.175   3.959  10.888  0.2792 -0.1233  0.2852
 2712DOPC   C3B31821  28.875   4.050  11.202 -0.1015 -0.1157  0.0474
 2712DOPC   C4B31822  28.674   4.209  11.546 -0.1902 -0.1356  0.0520
 2713DOPC   NC331823  25.658  10.335  10.263 -0.2482 -0.0706  0.0432
 2713DOPC   PO431824  25.870   9.980  10.256  0.1901 -0.4663 -0.0308
 2713DOPC   GL131825  25.942  10.079  10.635 -0.0828  0.1839 -0.0066
 2713DOPC   GL231826  26.240  10.166  10.662 -0.4115  0.0053 -0.3046
 2713DOPC   C1A31827  25.719   9.882  10.963  0.1234 -0.4362 -0.3434
 2713DOPC   D2A31828  25.495   9.889  11.370  0.2241  0.2853 -0.2887
 2713DOPC   C3A31829  25.771  10.108  11.628  0.1260  0.4300  0.0161
 2713DOPC   C4A31830  26.182  10.154  11.941  0.2958 -0.0985 -0.1481
 2713DOPC   C1B31831  26.277   9.844  10.972  0.0008 -0.2088 -0.0890
 2713DOPC   D2B31832  26.650   9.815  11.299 -0.2204 -0.1045 -0.0785
 2713DOPC   C3B31833  26.721  10.245  11.248  0.1872 -0.1252  0.1265
 2713DOPC   C4B31834  26.489  10.642  11.070  0.1126 -0.3559 -0.1003
 2714DOPC   NC331835  29.605  13.563  10.890 -0.2623 -0.2629  0.4135
 2714DOPC   PO431836  29.266  13.641  10.920 -0.2413  0.1838  0.0476
 2714DOPC   GL131837  29.301  13.764  11.327 -0.1063  0.2699 -0.3526
 2714DOPC   GL231838  29.044  13.897  11.369 -0.0062  0.0839  0.2641
 2714DOPC   C1A31839  29.291  13.935  11.775 -0.1057 -0.4153  0.1090
 2714DOPC   D2A31840  29.217  14.147  12.183  0.2908  0.2348 -0.1604
 2714DOPC   C3A31841  29.223  14.030  12.633 -0.3458  0.2240 -0.1307
 2714DOPC   C4A31842  29.117  13.775  12.990 -0.0641 -0.0653  0.2067
 2714DOPC   C1B31843  28.844  13.621  11.683 -0.0739 -0.1471  0.0063
 2714DOPC   D2B31844  28.709  13.248  11.962 -0.1208 -0.0580 -0.0916
 2714DOPC   C3B31845  28.248  13.231  12.107  0.1606 -0.2194  0.3444
 2714DOPC   C4B31846  27.783  13.121  12.045 -0.0714 -0.0958 -0.0408
 2715DOPE   NH331847  33.013   1.495   9.566  0.2195 -0.2410  0.3709
 2715DOPE   PO431848  32.726   1.628   9.606 -0.2021 -0.1027 -0.0150
 2715DOPE   GL131849  32.446   1.681   9.809  0.2852  0.0791 -0.1855
 2715DOPE   GL231850  32.376   1.400   9.854  0.0777 -0.1678 -0.2693
 2715DOPE   C1A31851  32.194   1.652  10.232 -0.0452  0.2523  0.1928
 2715DOPE   D2A31852  32.094   1.766  10.674  0.1465 -0.3782 -0.1130
 2715DOPE   C3A31853  32.068   1.522  11.081  0.0383 -0.2349 -0.0704
 2715DOPE   C4A31854  31.833   1.235  11.322  0.1390  0.3323 -0.1027
 2715DOPE   C1B31855  32.089   1.123  10.097 -0.0098 -0.0478 -0.0481
 2715DOPE   D2B31856  32.150   1.204  10.598 -0.1125 -0.0168 -0.0625
 2715DOPE   C3B31857  31.827   0.977  10.844 -0.3666 -0.1294 -0.2989
 2715DOPE   C4B31858  31.995   0.550  10.972  0.0529  0.5689 -0.2084
 2716DOPC   NC331859   1.459   8.484  11.387  0.0044  0.2411  0.1278
 2716DOPC   PO431860   1.808   8.268  11.515 -0.1012 -0.1914  0.2763
 2716DOPC   GL131861   1.616   8.129  11.888  0.1141  0.2984 -0.1401
 2716DOPC   GL231862   1.829   8.168  12.096 -0.1976 -0.1192 -0.1729
 2716DOPC   C1A31863   1.179   8.052  12.016 -0.0619 -0.0338  0.1510
 2716DOPC   D2A31864   0.857   7.990  12.320  0.2030  0.0385 -0.0078
 2716DOPC   C3A31865   0.991   7.718  12.694 -0.0014 -0.0531  0.0564
 2716DOPC   C4A31866   0.885   7.309  12.985 -0.1881 -0.0840  0.1234
 2716DOPC   C1B31867   1.893   7.986  12.518 -0.2211 -0.0102  0.1812
 2716DOPC   D2B31868   1.675   7.846  12.888 -0.3266 -0.2807 -0.2793
 2716DOPC   C3B31869   1.331   7.678  13.148  0.1512 -0.1692 -0.2030
 2716DOPC   C4B31870   1.275   7.235  13.278 -0.0038 -0.1251  0.2033
 2717POSM   NC331871  26.118   4.987   9.541  0.0728 -0.0202 -0.1575
 2717POSM   PO431872  26.452   5.139   9.426  0.1057 -0.1295  0.1202
 2717POSM   AM131873  26.485   5.192   9.753  0.0986  0.1096 -0.5071
 2717POSM   AM231874  26.330   5.290   9.983  0.3973 -0.0182 -0.2321
 2717POSM   T1A31875  26.668   5.043  10.224  0.0934  0.1180  0.0040
 2717POSM   C2A31876  26.974   5.008  10.591  0.0612 -0.0640  0.1088
 2717POSM   C3A31877  26.961   4.872  11.017  0.2167 -0.1253 -0.0731
 2717POSM   C1B31878  26.130   5.058  10.121 -0.0448 -0.4191  0.0117
 2717POSM   D2B31879  25.941   4.730  10.487 -0.0434  0.1633 -0.0548
 2717POSM   C3B31880  25.668   4.701  10.833 -0.0475 -0.0391  0.0870
 2717POSM   C4B31881  25.399   4.791  11.217  0.0184  0.2487  0.0151
 2718DOPS   CNO31882  27.525   0.164   8.781 -0.1357 -0.2679  0.1664
 2718DOPS   PO431883  27.750   0.353   9.011 -0.0177 -0.0021  0.2430
 2718DOPS   GL131884  27.557   0.187   9.295 -0.3811 -0.2616  0.3582
 2718DOPS   GL231885  27.742  -0.073   9.464  0.1034  0.0466 -0.1771
 2718DOPS   C1A31886  27.307   0.078   9.622  0.4980 -0.0217 -0.1652
 2718DOPS   D2A31887  26.960   0.371   9.729 -0.0675 -0.0210  0.1013
 2718DOPS   C3A31888  26.755   0.483  10.170 -0.0810  0.1234 -0.1727
 2718DOPS   C4A31889  26.911   0.501  10.583  0.1209 -0.0001 -0.4396
 2718DOPS   C1B31890  27.905  -0.154   9.877  0.0509  0.0621  0.2287
 2718DOPS   D2B31891  28.029  -0.343  10.239 -0.1303  0.2787  0.0527
 2718DOPS   C3B31892  27.990  -0.755  10.435 -0.3654 -0.0347 -0.2315
 2718DOPS   C4B31893  28.202  -1.180  10.427 -0.0543  0.1178  0.1426
 2719DOPE   NH331894  22.804   5.716  10.122 -0.1659 -0.0396  0.2045
 2719DOPE   PO431895  22.692   5.945   9.924  0.3215 -0.1777  0.1699
 2719DOPE   GL131896  22.565   6.310  10.190  0.0929  0.1045 -0.0897
 2719DOPE   GL231897  22.399   6.212  10.370 -0.0098  0.0099  0.0009
 2719DOPE   C1A31898  22.872   6.278  10.550  0.1727  0.2058  0.2249
 2719DOPE   D2A31899  22.855   6.094  10.941  0.2049 -0.0802  0.2814
 2719DOPE   C3A31900  23.059   6.392  11.249 -0.0910 -0.0468 -0.2293
 2719DOPE   C4A31901  22.973   6.784  11.374  0.4297  0.1630 -0.0781
 2719DOPE   C1B31902  22.294   6.588  10.604 -0.0050  0.0772 -0.2481
 2719DOPE   D2B31903  22.210   6.840  11.015 -0.2687  0.0625 -0.3703
 2719DOPE   C3B31904  21.765   6.984  11.080 -0.0108 -0.1621  0.0204
 2719DOPE   C4B31905  21.406   6.883  11.303 -0.2062 -0.1066  0.0479
 2720POSM   NC331906  23.493  34.170   9.198  0.0490  0.1705  0.0166
 2720POSM   PO431907  23.586  33.776   9.142 -0.0082 -0.4006  0.3554
 2720POSM   AM131908  23.602  33.611   9.402  0.3525  0.0029 -0.0485
 2720POSM   AM231909  23.551  33.580   9.738 -0.0156  0.1036  0.2646
 2720POSM   T1A31910  23.767  33.202   9.647 -0.1402  0.2489 -0.0206
 2720POSM   C2A31911  23.530  33.026  10.040 -0.0488 -0.0556 -0.0634
 2720POSM   C3A31912  23.511  33.118  10.500 -0.1723  0.2182 -0.0940
 2720POSM   C1B31913  23.571  33.658  10.070 -0.2129  0.2611 -0.1829
 2720POSM   D2B31914  23.373  33.633  10.477  0.1151  0.0347 -0.0658
 2720POSM   C3B31915  23.662  33.503  10.883  0.0283  0.3648  0.0197
 2720POSM   C4B31916  23.635  33.407  11.350  0.1701 -0.3878  0.2101
 2721DOPC   NC331917  29.339   9.792   9.703  0.2031 -0.0427  0.1267
 2721DOPC   PO431918  29.162   9.553   9.975  0.1312 -0.0753  0.0009
 2721DOPC   GL131919  29.095   9.269  10.269 -0.1611  0.0237 -0.1480
 2721DOPC   GL231920  28.854   9.092  10.460 -0.0923 -0.0304  0.1543
 2721DOPC   C1A31921  29.330   9.208  10.685  0.0585 -0.2449  0.0523
 2721DOPC   D2A31922  29.405   9.191  11.107 -0.0496  0.1840 -0.1194
 2721DOPC   C3A31923  29.244   9.214  11.512  0.0632  0.3469 -0.0364
 2721DOPC   C4A31924  28.920   9.135  11.854 -0.3580  0.2049 -0.0501
 2721DOPC   C1B31925  28.990   8.937  10.865  0.0717 -0.2446  0.0410
 2721DOPC   D2B31926  29.194   8.752  11.257  0.0730 -0.1219  0.1900
 2721DOPC   C3B31927  29.294   8.758  11.702  0.0534 -0.0600  0.0765
 2721DOPC   C4B31928  29.283   8.959  12.153  0.4869  0.0296 -0.0529
 2722DOPS   CNO31929  23.922   2.170   9.599  0.1025  0.0679  0.1768
 2722DOPS   PO431930  24.253   2.092   9.487 -0.1293 -0.1277 -0.1534
 2722DOPS   GL131931  24.338   2.021   9.840  0.1643 -0.0292  0.1655
 2722DOPS   GL231932  24.443   1.770   9.854  0.3390 -0.2285 -0.3229
 2722DOPS   C1A31933  24.268   2.135  10.291  0.3870  0.4186  0.1776
 2722DOPS   D2A31934  23.881   1.926  10.530 -0.0214  0.0942 -0.0866
 2722DOPS   C3A31935  23.820   1.475  10.694  0.1419  0.0878  0.1739
 2722DOPS   C4A31936  23.932   1.128  10.961 -0.1582 -0.4836 -0.2280
 2722DOPS   C1B31937  24.309   1.265   9.985 -0.0909 -0.0404 -0.1047
 2722DOPS   D2B31938  24.609   1.036  10.335  0.1082  0.2860 -0.0941
 2722DOPS   C3B31939  25.056   0.983  10.344 -0.0360 -0.1026  0.1939
 2722DOPS   C4B31940  25.332   1.159  10.030  0.3135  0.3799  0.1486
 2723DOPC   NC331941  27.015   5.859   9.230 -0.0626  0.0875 -0.0700
 2723DOPC   PO431942  26.944   5.894   9.655 -0.0696  0.0758 -0.0713
 2723DOPC   GL131943  26.853   5.786   9.986 -0.2392  0.1239  0.3906
 2723DOPC   GL231944  26.889   6.023  10.159 -0.1727 -0.0632  0.0676
 2723DOPC   C1A31945  26.636   5.545  10.314 -0.1745 -0.0101  0.1060
 2723DOPC   D2A31946  26.544   5.321  10.712 -0.1523  0.2136  0.0287
 2723DOPC   C3A31947  26.740   5.351  11.149  0.2553 -0.0579  0.0148
 2723DOPC   C4A31948  26.636   5.362  11.598  0.1822 -0.2744  0.0862
 2723DOPC   C1B31949  27.222   6.192  10.394  0.2886  0.0663 -0.2039
 2723DOPC   D2B31950  27.532   6.447  10.664  0.0943  0.3472 -0.2581
 2723DOPC   C3B31951  27.526   6.747  11.058  0.1513  0.2532  0.0449
 2723DOPC   C4B31952  27.724   7.093  11.248 -0.1829  0.0948 -0.0731
 2724DOPC   NC331953  27.076   7.090   9.888  0.0451  0.0525  0.0779
 2724DOPC   PO431954  27.073   6.824   9.667 -0.1041  0.1381 -0.0569
 2724DOPC   GL131955  27.134   6.601  10.069 -0.1798  0.2670  0.1234
 2724DOPC   GL231956  27.181   6.751  10.261  0.3426  0.0291  0.4895
 2724DOPC   C1A31957  26.813   6.437  10.377 -0.1549  0.0408  0.3802
 2724DOPC   D2A31958  26.772   6.186  10.756  0.1174  0.0444 -0.0779
 2724DOPC   C3A31959  26.445   6.235  11.144 -0.3538  0.0854 -0.0368
 2724DOPC   C4A31960  26.111   6.378  11.421  0.0609  0.0116 -0.0551
 2724DOPC   C1B31961  27.098   6.766  10.757 -0.0215  0.1261 -0.3062
 2724DOPC   D2B31962  27.156   6.395  10.970 -0.0356 -0.0767  0.3517
 2724DOPC   C3B31963  26.907   6.255  11.384  0.0671 -0.1554 -0.0798
 2724DOPC   C4B31964  26.858   6.115  11.846 -0.5114  0.0150 -0.1290
 2725DOPE   NH331965  27.701   4.085   9.949 -0.0667  0.2421  0.0747
 2725DOPE   PO431966  27.987   4.186  10.030 -0.0585 -0.0062  0.0649
 2725DOPE   GL131967  27.941   3.949  10.394 -0.1078  0.2441 -0.1324
 2725DOPE   GL231968  28.091   3.720  10.449 -0.1026  0.0862  0.2097
 2725DOPE   C1A31969  27.919   4.100  10.819 -0.0825 -0.1739  0.1613
 2725DOPE   D2A31970  28.048   4.248  11.206 -0.0118 -0.0373  0.4070
 2725DOPE   C3A31971  27.720   4.266  11.523 -0.3821  0.2035 -0.0768
 2725DOPE   C4A31972  27.695   4.271  11.979 -0.3237 -0.3053 -0.1153
 2725DOPE   C1B31973  28.226   3.555  10.896 -0.0476  0.1529  0.0390
 2725DOPE   D2B31974  28.498   3.726  11.250 -0.0922 -0.1963 -0.1847
 2725DOPE   C3B31975  28.844   3.528  11.466 -0.3467 -0.2704 -0.1539
 2725DOPE   C4B31976  29.006   3.170  11.708  0.0011 -0.1710 -0.1004
 2726DOPC   NC331977  26.252   3.670   9.135 -0.1096  0.2407 -0.2815
 2726DOPC   PO431978  25.975   3.457   9.301  0.0661 -0.1944  0.1891
 2726DOPC   GL131979  25.660   3.319   9.586 -0.0675  0.4823 -0.0488
 2726DOPC   GL231980  25.639   3.017   9.628  0.2582  0.1523 -0.3043
 2726DOPC   C1A31981  25.689   3.254  10.032 -0.1347  0.3915 -0.2940
 2726DOPC   D2A31982  25.672   3.222  10.519  0.0734  0.0697  0.0220
 2726DOPC   C3A31983  25.413   2.861  10.671  0.2664 -0.1945 -0.0980
 2726DOPC   C4A31984  25.439   2.465  10.959 -0.1478 -0.0452 -0.0942
 2726DOPC   C1B31985  25.230   3.000   9.866 -0.1849 -0.2527  0.1437
 2726DOPC   D2B31986  24.776   2.745   9.860  0.1410 -0.0637  0.3427
 2726DOPC   C3B31987  24.675   2.439  10.153  0.1153  0.2279  0.0481
 2726DOPC   C4B31988  24.588   2.526  10.651  0.0963 -0.1390 -0.0789
 2727DOPC   NC331989  33.302  12.214  11.886  0.1942 -0.1086 -0.2326
 2727DOPC   PO431990  33.304  12.221  11.490 -0.1299  0.0377  0.0570
 2727DOPC   GL131991  33.037  11.883  11.611  0.0352 -0.1803  0.4877
 2727DOPC   GL231992  33.231  11.612  11.764 -0.2166 -0.0860 -0.1262
 2727DOPC   C1A31993  32.824  11.931  12.015 -0.2160 -0.2449  0.3006
 2727DOPC   D2A31994  32.951  11.677  12.358 -0.2388  0.1498 -0.0139
 2727DOPC   C3A31995  32.703  11.399  12.645  0.2002  0.1749  0.2266
 2727DOPC   C4A31996  32.790  11.001  12.865 -0.0610 -0.0486  0.0301
 2727DOPC   C1B31997  33.370  11.789  12.173 -0.0226 -0.1406 -0.2343
 2727DOPC   D2B31998  33.479  12.167  12.375  0.1665  0.1662  0.1817
 2727DOPC   C3B31999  33.826  12.348  12.563  0.0224  0.0158  0.1597
 2727DOPC   C4B32000  33.907  12.799  12.623 -0.1505  0.0638 -0.4439
 2728POSM   NC332001  26.502  10.448  10.210  0.1474  0.0365  0.3261
 2728POSM   PO432002  26.122  10.397  10.089  0.2437  0.4261  0.1975
 2728POSM   AM132003  26.053  10.536  10.367 -0.2548 -0.1485  0.1422
 2728POSM   AM232004  26.220  10.734  10.502  0.2868 -0.0205 -0.0696
 2728POSM   T1A32005  25.943  10.585  10.876  0.0063 -0.1162 -0.2809
 2728POSM   C2A32006  25.726  10.393  11.194  0.1977  0.0429  0.1221
 2728POSM   C3A32007  25.313  10.349  11.310  0.0881  0.2286  0.0785
 2728POSM   C1B32008  26.192  11.006  10.661  0.0295  0.1373 -0.2252
 2728POSM   D2B32009  26.356  11.160  11.063 -0.2434 -0.1283 -0.2419
 2728POSM   C3B32010  26.167  10.926  11.417 -0.0261 -0.2457 -0.0812
 2728POSM   C4B32011  25.997  10.579  11.680  0.1470 -0.0519 -0.2490
 2729DOPE   NH332012  30.014   6.990   9.704 -0.3434 -0.0242 -0.1167
 2729DOPE   PO432013  29.978   6.861  10.000 -0.0559  0.0974 -0.3240
 2729DOPE   GL132014  30.039   6.742  10.425  0.4610  0.4538 -0.0844
 2729DOPE   GL232015  29.922   6.583  10.633 -0.1285  0.1091 -0.1883
 2729DOPE   C1A32016  29.982   7.084  10.722 -0.1562 -0.1104  0.2616
 2729DOPE   D2A32017  29.778   7.338  11.050  0.2096  0.1300  0.0017
 2729DOPE   C3A32018  29.890   7.279  11.508 -0.0035 -0.0479 -0.0122
 2729DOPE   C4A32019  30.038   7.047  11.917  0.0070  0.0958  0.2429
 2729DOPE   C1B32020  29.900   6.688  11.080  0.2183 -0.0589 -0.2020
 2729DOPE   D2B32021  29.957   6.710  11.511  0.1760 -0.2266  0.3072
 2729DOPE   C3B32022  30.432   6.855  11.653 -0.0803  0.1793  0.1167
 2729DOPE   C4B32023  30.619   6.808  12.057 -0.0620 -0.4977 -0.1749
 2730DOPS   CNO32024  27.185   8.292   9.494  0.2215 -0.0292  0.1802
 2730DOPS   PO432025  27.164   8.063   9.772 -0.0514 -0.0381  0.1372
 2730DOPS   GL132026  27.001   8.044  10.155 -0.1004  0.2534 -0.0669
 2730DOPS   GL232027  27.244   7.902  10.360  0.0727 -0.0723  0.2312
 2730DOPS   C1A32028  26.610   8.021  10.379 -0.0522  0.0682  0.0350
 2730DOPS   D2A32029  26.244   7.763  10.534 -0.1836  0.0877  0.0961
 2730DOPS   C3A32030  25.916   7.755  10.807  0.0879  0.0463 -0.2569
 2730DOPS   C4A32031  25.939   7.869  11.248  0.2598 -0.0713 -0.0937
 2730DOPS   C1B32032  27.089   7.573  10.634 -0.0524  0.1294 -0.1474
 2730DOPS   D2B32033  26.652   7.551  10.732  0.0583 -0.1272  0.2031
 2730DOPS   C3B32034  26.352   7.333  10.970  0.0043  0.0052 -0.1702
 2730DOPS   C4B32035  26.132   7.335  11.410 -0.1494  0.0460  0.0384
 2731DOPC   NC332036  28.379  12.319  10.744  0.0051 -0.1440 -0.2090
 2731DOPC   PO432037  28.430  12.018  10.468  0.0959  0.0121  0.0991
 2731DOPC   GL132038  28.125  11.939  10.681 -0.3516  0.0490  0.1938
 2731DOPC   GL232039  28.129  11.671  10.755 -0.1588  0.0290 -0.1617
 2731DOPC   C1A32040  28.033  12.022  11.140 -0.0241  0.0143  0.1990
 2731DOPC   D2A32041  28.315  11.927  11.476 -0.1479 -0.0339 -0.1342
 2731DOPC   C3A32042  28.313  11.887  11.939 -0.0051 -0.2734  0.0486
 2731DOPC   C4A32043  28.599  12.151  12.229 -0.1049 -0.2497 -0.1458
 2731DOPC   C1B32044  28.186  11.557  11.213 -0.0642  0.1654  0.0337
 2731DOPC   D2B32045  28.095  11.415  11.637  0.2692  0.0812  0.3471
 2731DOPC   C3B32046  28.278  11.260  12.039  0.0686  0.2170 -0.2407
 2731DOPC   C4B32047  28.264  10.848  12.255 -0.2182 -0.0762 -0.2610
 2732DOPE   NH332048  23.745   4.687   8.912 -0.2497  0.1604 -0.2761
 2732DOPE   PO432049  23.705   4.373   8.870  0.0961 -0.3294 -0.1059
 2732DOPE   GL132050  23.547   4.115   9.130  0.3290  0.1644 -0.1716
 2732DOPE   GL232051  23.766   3.977   9.240  0.0885  0.3398 -0.2400
 2732DOPE   C1A32052  23.336   3.974   9.514 -0.0173  0.0109  0.0084
 2732DOPE   D2A32053  22.937   3.919   9.763 -0.2690  0.3229  0.1625
 2732DOPE   C3A32054  22.471   4.062   9.771  0.0815 -0.0914  0.1767
 2732DOPE   C4A32055  22.138   4.047  10.027  0.1164 -0.0974 -0.1024
 2732DOPE   C1B32056  23.755   4.134   9.710 -0.2305  0.1032  0.0011
 2732DOPE   D2B32057  24.108   4.191  10.053  0.0492 -0.0604  0.2368
 2732DOPE   C3B32058  23.936   4.038  10.475  0.0667  0.0421 -0.1134
 2732DOPE   C4B32059  24.016   3.686  10.811  0.1977  0.2072 -0.1043
 2733DOPE   NH332060  30.686   7.196   9.968 -0.0794 -0.3166 -0.1914
 2733DOPE   PO432061  30.380   7.235   9.978  0.0684 -0.4146 -0.0096
 2733DOPE   GL132062  30.192   7.224  10.278  0.1221  0.1989  0.1177
 2733DOPE   GL232063  29.936   7.284  10.269 -0.4053  0.3156 -0.2781
 2733DOPE   C1A32064  30.427   7.330  10.645 -0.2327 -0.0352  0.1588
 2733DOPE   D2A32065  30.876   7.145  10.743 -0.0576  0.2425 -0.2536
 2733DOPE   C3A32066  30.921   7.166  11.230 -0.1861  0.3116 -0.0540
 2733DOPE   C4A32067  30.881   7.211  11.711  0.0289  0.3709 -0.0571
 2733DOPE   C1B32068  29.970   7.573  10.547  0.0346  0.1569  0.0596
 2733DOPE   D2B32069  30.138   7.753  10.946  0.2073 -0.0529  0.1760
 2733DOPE   C3B32070  29.978   7.760  11.417 -0.0932 -0.0067  0.0596
 2733DOPE   C4B32071  30.087   7.618  11.846  0.3436  0.2234 -0.0773
 2734POSM   NC332072   0.034   6.902  10.292  0.4508 -0.0535  0.2516
 2734POSM   PO432073  -0.205   6.685  10.519  0.1693  0.0061  0.1464
 2734POSM   AM132074  -0.170   6.637  10.861 -0.2689 -0.2242 -0.0648
 2734POSM   AM232075  -0.212   6.454  11.093  0.1582 -0.1843  0.4467
 2734POSM   T1A32076   0.020   6.816  11.268 -0.0493 -0.0201  0.4155
 2734POSM   C2A32077   0.064   7.255  11.550 -0.1918 -0.0767  0.1278
 2734POSM   C3A32078   0.304   7.393  11.866  0.2439 -0.4563  0.2956
 2734POSM   C1B32079  -0.353   6.398  11.410 -0.0786 -0.1692 -0.1888
 2734POSM   D2B32080  -0.345   6.388  11.875  0.0387  0.0779 -0.2746
 2734POSM   C3B32081  -0.644   6.263  12.242 -0.0500  0.3075  0.3908
 2734POSM   C4B32082  -0.572   6.200  12.693 -0.0030  0.1670 -0.1067
 2735POSM   NC332083  33.312   9.926  10.791 -0.1681 -0.1923 -0.0350
 2735POSM   PO432084  33.563   9.679  10.619  0.1947 -0.7802  0.1066
 2735POSM   AM132085  33.524   9.435  10.864  0.0435 -0.0540  0.0823
 2735POSM   AM232086  33.345   9.259  11.039 -0.1217  0.1947  0.1083
 2735POSM   T1A32087  33.747   9.106  11.226  0.2117  0.0427  0.0040
 2735POSM   C2A32088  33.885   9.131  11.686  0.0584 -0.0515 -0.1210
 2735POSM   C3A32089  33.883   9.354  12.116  0.0207  0.0656 -0.0716
 2735POSM   C1B32090  33.184   9.212  11.339  0.2729  0.1361  0.0381
 2735POSM   D2B32091  32.929   9.242  11.714 -0.1068  0.2228  0.0180
 2735POSM   C3B32092  32.931   8.896  12.044 -0.0353 -0.1250  0.0667
 2735POSM   C4B32093  32.999   8.942  12.487 -0.1399  0.2310  0.1401
 2736DOPC   NC332094  23.252   2.360   9.251  0.0666  0.1047 -0.0751
 2736DOPC   PO432095  23.462   2.077   9.386  0.1417  0.3001 -0.0259
 2736DOPC   GL132096  23.542   1.796   9.748 -0.0134  0.2110  0.0130
 2736DOPC   GL232097  23.445   2.033   9.858 -0.1270 -0.2935 -0.1608
 2736DOPC   C1A32098  23.511   1.741  10.225  0.2791  0.2012  0.1370
 2736DOPC   D2A32099  23.368   1.554  10.604 -0.2331  0.4686  0.1157
 2736DOPC   C3A32100  23.464   1.296  10.970  0.5459 -0.0091 -0.1416
 2736DOPC   C4A32101  23.505   0.904  11.200  0.1168  0.0156 -0.1234
 2736DOPC   C1B32102  23.509   2.256  10.267 -0.1577  0.2577 -0.0949
 2736DOPC   D2B32103  23.543   2.386  10.658  0.1207  0.1480 -0.0277
 2736DOPC   C3B32104  23.718   2.207  11.067 -0.4971  0.0293 -0.0069
 2736DOPC   C4B32105  23.821   2.014  11.487 -0.1211  0.0594  0.2286
 2737DOPC   NC332106  27.100  13.045  10.307 -0.0143  0.1575  0.2683
 2737DOPC   PO432107  27.142  12.665  10.204  0.0263  0.0482  0.0059
 2737DOPC   GL132108  27.073  12.418  10.495  0.1776  0.0726 -0.1177
 2737DOPC   GL232109  27.260  12.373  10.647  0.2783 -0.0305 -0.0918
 2737DOPC   C1A32110  26.752  12.433  10.834  0.0114  0.1299 -0.2633
 2737DOPC   D2A32111  26.499  12.746  10.916  0.3286  0.0659  0.1691
 2737DOPC   C3A32112  26.375  12.909  11.326  0.0030  0.0055  0.4152
 2737DOPC   C4A32113  26.122  13.051  11.626  0.2792  0.1158 -0.1851
 2737DOPC   C1B32114  27.181  12.391  11.077 -0.0469  0.0742  0.1497
 2737DOPC   D2B32115  27.058  12.290  11.490  0.3906 -0.2488  0.0517
 2737DOPC   C3B32116  27.097  12.476  11.949  0.0768 -0.1835 -0.1635
 2737DOPC   C4B32117  27.220  12.661  12.365 -0.1896  0.0573  0.0691
 2738DOPC   NC332118  30.146   7.712  10.059 -0.0039  0.0185 -0.2038
 2738DOPC   PO432119  29.835   7.746   9.810  0.2020 -0.1964 -0.2222
 2738DOPC   GL132120  29.720   7.876  10.232  0.0613  0.2651  0.1472
 2738DOPC   GL232121  29.922   8.081  10.313 -0.1496  0.0273 -0.1311
 2738DOPC   C1A32122  29.434   8.154  10.458  0.0061  0.0651  0.2903
 2738DOPC   D2A32123  29.201   8.409  10.753 -0.3138  0.0472 -0.0991
 2738DOPC   C3A32124  28.708   8.328  10.816  0.1015 -0.1266  0.0003
 2738DOPC   C4A32125  28.315   8.199  11.040 -0.0932 -0.2960 -0.2589
 2738DOPC   C1B32126  29.977   8.318  10.695 -0.0473 -0.2348  0.0583
 2738DOPC   D2B32127  30.017   8.251  11.177 -0.0769  0.2947  0.0321
 2738DOPC   C3B32128  29.970   8.570  11.473  0.0183 -0.1546  0.3255
 2738DOPC   C4B32129  30.259   8.825  11.716  0.0085 -0.2351 -0.1198
 2739POSM   NC332130  27.495   6.850   9.864  0.4850 -0.3386  0.2116
 2739POSM   PO432131  27.501   7.161   9.579 -0.0292 -0.0716  0.1459
 2739POSM   AM132132  27.456   7.288   9.897 -0.0063  0.0160 -0.2021
 2739POSM   AM232133  27.563   7.394  10.091 -0.2034 -0.0964 -0.0742
 2739POSM   T1A32134  27.055   7.488  10.160 -0.1958  0.1898  0.0297
 2739POSM   C2A32135  26.829   7.115  10.434 -0.0911 -0.3112 -0.0350
 2739POSM   C3A32136  26.474   6.907  10.591  0.2074  0.0286  0.0761
 2739POSM   C1B32137  27.379   7.191  10.370 -0.2702 -0.2160 -0.1797
 2739POSM   D2B32138  27.342   7.209  10.852 -0.0562  0.0777  0.3474
 2739POSM   C3B32139  26.897   7.255  10.996  0.0942 -0.1304  0.0987
 2739POSM   C4B32140  26.639   7.269  11.390 -0.1853  0.2335  0.0565
 2740DOPC   NC332141  28.077  12.639  10.115 -0.0336  0.0618  0.2047
 2740DOPC   PO432142  28.092  12.713  10.492  0.2648 -0.1353 -0.0874
 2740DOPC   GL132143  27.898  12.670  10.789  0.1561  0.2032  0.0666
 2740DOPC   GL232144  27.808  12.379  10.726 -0.1425  0.1950 -0.0849
 2740DOPC   C1A32145  27.762  12.579  11.227  0.0788 -0.0829  0.0612
 2740DOPC   D2A32146  27.394  12.630  11.560 -0.2217 -0.0319 -0.2441
 2740DOPC   C3A32147  27.301  12.916  11.904 -0.0171 -0.0017 -0.0679
 2740DOPC   C4A32148  27.067  13.154  12.212 -0.0651 -0.0504 -0.1178
 2740DOPC   C1B32149  27.541  12.093  10.957  0.0608 -0.1447  0.1795
 2740DOPC   D2B32150  27.585  12.130  11.429  0.1392  0.2345  0.0138
 2740DOPC   C3B32151  27.867  11.876  11.697  0.0465  0.1704  0.2133
 2740DOPC   C4B32152  27.910  11.633  12.071 -0.2545  0.0126 -0.1368
 2741POSM   NC332153  32.382   5.561  10.441  0.0374 -0.0129  0.3316
 2741POSM   PO432154  32.694   5.314  10.503 -0.2745  0.1543  0.0834
 2741POSM   AM132155  32.882   5.314  10.768 -0.2994  0.1299  0.1379
 2741POSM   AM232156  33.129   5.359  10.919  0.0061  0.1059  0.0685
 2741POSM   T1A32157  32.885   5.049  11.196 -0.0949  0.3573  0.0626
 2741POSM   C2A32158  33.014   5.006  11.611  0.0662  0.2443 -0.1259
 2741POSM   C3A32159  33.226   5.235  11.914  0.4676 -0.0572  0.0568
 2741POSM   C1B32160  33.335   5.280  11.178 -0.2262  0.1846 -0.2093
 2741POSM   D2B32161  33.578   5.192  11.580  0.0301 -0.2976  0.0047
 2741POSM   C3B32162  33.611   4.919  11.953  0.0013 -0.1551  0.4729
 2741POSM   C4B32163  33.350   4.594  12.111 -0.1884 -0.0302  0.0456
 2742DOPS   CNO32164  32.275   2.848   9.402 -0.0334  0.0074 -0.1204
 2742DOPS   PO432165  32.268   2.640   9.717  0.1127 -0.0572  0.1609
 2742DOPS   GL132166  32.449   2.478   9.974  0.1684  0.0661  0.4684
 2742DOPS   GL232167  32.418   2.489  10.198 -0.1863  0.2532 -0.0779
 2742DOPS   C1A32168  32.631   2.062  10.114 -0.0980  0.1193  0.0124
 2742DOPS   D2A32169  32.647   1.826  10.535  0.0069  0.0840  0.2235
 2742DOPS   C3A32170  32.569   1.612  10.924 -0.1439 -0.0944 -0.0449
 2742DOPS   C4A32171  32.429   1.733  11.360 -0.2213 -0.1469  0.1760
 2742DOPS   C1B32172  32.404   2.234  10.573 -0.0984  0.0457 -0.2740
 2742DOPS   D2B32173  32.320   2.031  10.970 -0.0941 -0.3086 -0.2751
 2742DOPS   C3B32174  31.979   2.269  11.175  0.1381  0.3657 -0.1018
 2742DOPS   C4B32175  31.612   2.127  11.407  0.2216  0.0472 -0.0184
 2743DOPC   NC332176  29.494   7.324  10.025 -0.2741  0.1550  0.0436
 2743DOPC   PO432177  29.516   6.970   9.855  0.0147  0.0646  0.2339
 2743DOPC   GL132178  29.327   6.859  10.154  0.0188  0.4474  0.0817
 2743DOPC   GL232179  29.446   6.985  10.375 -0.0363  0.0351  0.1144
 2743DOPC   C1A32180  28.996   6.686  10.411 -0.4794 -0.2393  0.1539
 2743DOPC   D2A32181  28.597   6.563  10.681 -0.2791  0.5029  0.1503
 2743DOPC   C3A32182  28.514   6.199  10.941  0.1119 -0.2082  0.2780
 2743DOPC   C4A32183  28.804   5.882  11.159  0.1040 -0.0937 -0.0278
 2743DOPC   C1B32184  29.480   7.422  10.543 -0.2864 -0.1278 -0.0373
 2743DOPC   D2B32185  29.656   7.819  10.781 -0.0399  0.3078 -0.1253
 2743DOPC   C3B32186  29.599   7.946  11.226 -0.0568  0.2536  0.3798
 2743DOPC   C4B32187  29.590   8.229  11.608 -0.1605  0.0164  0.0216
 2744DOPS   CNO32188  24.590  10.805   9.703 -0.0975 -0.1172 -0.1316
 2744DOPS   PO432189  24.466  10.871  10.030  0.0516 -0.2802  0.0330
 2744DOPS   GL132190  24.495  10.944  10.401  0.0452  0.2292 -0.3579
 2744DOPS   GL232191  24.713  10.961  10.633  0.0671  0.0595 -0.0898
 2744DOPS   C1A32192  24.305  11.036  10.830  0.2293  0.0917  0.0918
 2744DOPS   D2A32193  24.211  11.050  11.276 -0.0989  0.2279 -0.0600
 2744DOPS   C3A32194  23.871  10.989  11.551 -0.2875 -0.0243 -0.1244
 2744DOPS   C4A32195  23.517  11.192  11.744  0.1148 -0.1561 -0.2763
 2744DOPS   C1B32196  24.793  11.071  11.078  0.2526  0.3823  0.0975
 2744DOPS   D2B32197  24.680  11.128  11.528 -0.2752  0.0679 -0.1299
 2744DOPS   C3B32198  24.817  10.993  11.968 -0.0905  0.3794  0.3665
 2744DOPS   C4B32199  24.882  10.774  12.365  0.0929 -0.2582 -0.0746
 2745DOPE   NH332200  27.991  11.699  10.278 -0.2531 -0.2852 -0.1134
 2745DOPE   PO432201  28.278  11.599  10.169  0.0140  0.0007 -0.3126
 2745DOPE   GL132202  28.585  11.412  10.488 -0.0272  0.2383 -0.0040
 2745DOPE   GL232203  28.787  11.616  10.679  0.2329  0.1845 -0.1495
 2745DOPE   C1A32204  28.416  11.244  10.887 -0.1737 -0.2113  0.0823
 2745DOPE   D2A32205  28.674  11.139  11.227  0.1172 -0.0783  0.1328
 2745DOPE   C3A32206  28.715  11.495  11.430 -0.1205  0.1046 -0.1128
 2745DOPE   C4A32207  28.999  11.806  11.627  0.0864  0.0482 -0.3439
 2745DOPE   C1B32208  28.993  11.718  11.064 -0.1387  0.1797 -0.1436
 2745DOPE   D2B32209  28.945  12.163  11.278  0.2169  0.0154 -0.2338
 2745DOPE   C3B32210  29.159  12.334  11.645 -0.2045  0.1149 -0.2239
 2745DOPE   C4B32211  29.248  12.486  12.099 -0.1245 -0.0285  0.2623
 2746DOPE   NH332212  31.533   2.918   9.996  0.1966 -0.1468 -0.1641
 2746DOPE   PO432213  31.794   2.739   9.926 -0.0541 -0.2270  0.0822
 2746DOPE   GL132214  31.751   2.572  10.253 -0.0204  0.0567 -0.2181
 2746DOPE   GL232215  31.559   2.361  10.355 -0.0354  0.1413 -0.0604
 2746DOPE   C1A32216  32.086   2.602  10.587 -0.0007  0.3004 -0.1432
 2746DOPE   D2A32217  32.587   2.685  10.701 -0.0711 -0.0633  0.1556
 2746DOPE   C3A32218  32.809   2.979  11.012 -0.1496 -0.2596  0.2299
 2746DOPE   C4A32219  32.779   3.112  11.481  0.1473 -0.0998 -0.0260
 2746DOPE   C1B32220  31.435   2.079  10.680 -0.2103 -0.0829 -0.2180
 2746DOPE   D2B32221  31.220   1.994  11.107  0.0968 -0.1634  0.1379
 2746DOPE   C3B32222  31.052   1.920  11.503 -0.2752 -0.2982 -0.2033
 2746DOPE   C4B32223  30.985   2.042  11.968 -0.3284 -0.1660  0.1292
 2747DOPE   NH332224  30.296   5.822   9.718 -0.0212  0.3854 -0.0804
 2747DOPE   PO432225  30.258   5.679  10.032 -0.0100 -0.0821 -0.3351
 2747DOPE   GL132226  30.306   5.587  10.409  0.2857 -0.0222 -0.0756
 2747DOPE   GL232227  30.319   5.293  10.479  0.0025  0.1574 -0.0496
 2747DOPE   C1A32228  30.492   5.825  10.803  0.1228 -0.0615  0.2458
 2747DOPE   D2A32229  30.562   5.819  11.200  0.0268  0.2299 -0.1734
 2747DOPE   C3A32230  30.624   6.191  11.456 -0.3093 -0.1377 -0.3824
 2747DOPE   C4A32231  30.623   6.304  11.907 -0.1096 -0.0941  0.0069
 2747DOPE   C1B32232  30.106   4.883  10.483  0.2525  0.2669  0.0399
 2747DOPE   D2B32233  30.171   4.491  10.758 -0.0223 -0.0694  0.1936
 2747DOPE   C3B32234  30.011   4.445  11.244  0.1865 -0.0619 -0.1284
 2747DOPE   C4B32235  29.915   4.215  11.657 -0.1021  0.0995  0.2195
 2748DOPC   NC332236  30.165   4.265   9.778  0.2622 -0.0605  0.0043
 2748DOPC   PO432237  29.868   4.457   9.975 -0.0826  0.3012 -0.1653
 2748DOPC   GL132238  29.611   4.422  10.197 -0.1315 -0.0160 -0.3928
 2748DOPC   GL232239  29.793   4.294  10.436 -0.0204  0.2674 -0.0840
 2748DOPC   C1A32240  29.228   4.484  10.461  0.0879 -0.1496  0.1801
 2748DOPC   D2A32241  28.798   4.575  10.685  0.3214  0.1562  0.0272
 2748DOPC   C3A32242  28.684   4.813  11.094 -0.0509 -0.3049  0.2337
 2748DOPC   C4A32243  28.495   4.911  11.480  0.2289  0.2757 -0.1576
 2748DOPC   C1B32244  29.700   4.612  10.673 -0.4336  0.1128 -0.2880
 2748DOPC   D2B32245  29.620   4.899  11.046  0.1393 -0.1396  0.1562
 2748DOPC   C3B32246  29.549   4.642  11.466 -0.0452 -0.5097  0.0959
 2748DOPC   C4B32247  29.489   4.646  11.871 -0.0786  0.2103 -0.1580
 2749DOPS   CNO32248  33.223   6.476  10.543  0.0396 -0.1272 -0.2749
 2749DOPS   PO432249  33.198   6.849  10.533  0.0558 -0.1340  0.0603
 2749DOPS   GL132250  33.024   6.704  10.937  0.0074 -0.1623  0.2644
 2749DOPS   GL232251  33.260   6.739  11.079  0.0522  0.0047  0.0808
 2749DOPS   C1A32252  32.721   6.595  11.283 -0.1649 -0.2962 -0.1355
 2749DOPS   D2A32253  32.630   6.826  11.674  0.0413  0.0947  0.0098
 2749DOPS   C3A32254  32.822   6.731  12.067  0.1231 -0.0396 -0.1574
 2749DOPS   C4A32255  33.117   6.514  12.328 -0.1071  0.1344  0.0791
 2749DOPS   C1B32256  33.151   6.703  11.495 -0.1803 -0.2929  0.5031
 2749DOPS   D2B32257  33.358   6.790  11.909  0.2078  0.0554 -0.3590
 2749DOPS   C3B32258  33.457   7.222  11.953 -0.0501 -0.0327 -0.2746
 2749DOPS   C4B32259  33.501   7.674  12.143 -0.1495  0.2270 -0.1743
 2750DOPS   CNO32260  33.073  12.739  11.311  0.1429 -0.2627 -0.0198
 2750DOPS   PO432261  33.122  12.737  11.686 -0.1203  0.0579  0.1954
 2750DOPS   GL132262  33.126  12.604  12.081  0.1481 -0.1059 -0.0875
 2750DOPS   GL232263  32.950  12.781  12.227  0.0782 -0.0126  0.0817
 2750DOPS   C1A32264  32.955  12.325  12.449 -0.0042  0.1672 -0.1452
 2750DOPS   D2A32265  33.054  12.090  12.823 -0.1130  0.0438  0.0432
 2750DOPS   C3A32266  33.501  12.106  12.887 -0.0519  0.1427 -0.1118
 2750DOPS   C4A32267  33.789  12.054  13.195  0.1872 -0.1465 -0.0126
 2750DOPS   C1B32268  32.638  12.820  12.605  0.1941 -0.0000 -0.0499
 2750DOPS   D2B32269  32.153  12.883  12.622 -0.2869 -0.0721 -0.0022
 2750DOPS   C3B32270  32.005  13.160  12.928  0.0572  0.0163  0.2146
 2750DOPS   C4B32271  31.632  13.210  13.248  0.1038  0.3629  0.0009
 2751DOPC   NC332272  32.533  10.432  10.796  0.0129  0.0057  0.1911
 2751DOPC   PO432273  32.483  10.062  10.905  0.1506  0.0226 -0.1919
 2751DOPC   GL132274  32.324   9.919  11.308  0.2690 -0.1055 -0.1545
 2751DOPC   GL232275  32.012   9.806  11.282  0.3280 -0.1411 -0.2551
 2751DOPC   C1A32276  32.067  10.035  11.712  0.1233 -0.1426  0.2555
 2751DOPC   D2A32277  31.943  10.383  12.023 -0.2863  0.0039 -0.0115
 2751DOPC   C3A32278  31.625  10.495  12.329  0.0441  0.2148  0.4514
 2751DOPC   C4A32279  31.340  10.782  12.553  0.1160 -0.1385  0.1973
 2751DOPC   C1B32280  31.640   9.806  11.596 -0.2311 -0.1642  0.2170
 2751DOPC   D2B32281  31.346   9.574  11.867 -0.0244  0.1710  0.1113
 2751DOPC   C3B32282  31.252   9.399  12.307  0.2493  0.1487 -0.0092
 2751DOPC   C4B32283  31.235   9.307  12.774 -0.0686 -0.2838  0.2047
 2752DOPS   CNO32284  26.656   3.928   9.215 -0.0184  0.2037  0.1934
 2752DOPS   PO432285  26.625   4.214   9.476 -0.0887 -0.1585 -0.0020
 2752DOPS   GL132286  26.671   4.107   9.852 -0.0323  0.2774  0.0603
 2752DOPS   GL232287  26.878   3.974  10.004 -0.0299  0.2429 -0.1640
 2752DOPS   C1A32288  26.589   4.385  10.176 -0.2533  0.2721 -0.1397
 2752DOPS   D2A32289  26.661   4.380  10.634  0.1049  0.1507 -0.1850
 2752DOPS   C3A32290  26.643   4.469  11.095 -0.2410 -0.2963  0.0671
 2752DOPS   C4A32291  26.493   4.909  11.267 -0.1469 -0.0885 -0.1299
 2752DOPS   C1B32292  26.675   3.876  10.505  0.1331 -0.2412 -0.2630
 2752DOPS   D2B32293  26.383   3.961  10.818 -0.1086 -0.3034 -0.2738
 2752DOPS   C3B32294  26.082   3.874  11.076 -0.1092 -0.0946 -0.0069
 2752DOPS   C4B32295  25.666   3.765  11.208  0.1940  0.1995 -0.0154
 2753DOPS   CNO32296  28.963   8.003   9.904 -0.1031 -0.1268  0.1142
 2753DOPS   PO432297  28.631   7.907  10.091  0.0446  0.0450  0.1962
 2753DOPS   GL132298  28.751   7.618  10.360  0.2033  0.4217 -0.0572
 2753DOPS   GL232299  28.627   7.831  10.611  0.2173 -0.1393 -0.1251
 2753DOPS   C1A32300  29.070   7.616  10.715 -0.2287 -0.2415  0.1513
 2753DOPS   D2A32301  29.328   7.496  11.086 -0.2636 -0.0849 -0.2500
 2753DOPS   C3A32302  28.868   7.345  11.247  0.0791 -0.1352  0.0151
 2753DOPS   C4A32303  28.411   7.543  11.253  0.1523 -0.4232  0.0915
 2753DOPS   C1B32304  28.752   7.846  11.052  0.0904  0.2198  0.1333
 2753DOPS   D2B32305  28.954   7.785  11.475  0.1408 -0.1540  0.1154
 2753DOPS   C3B32306  29.389   7.593  11.551  0.1776 -0.3112 -0.2516
 2753DOPS   C4B32307  29.634   7.437  11.917 -0.0024  0.0164 -0.1131
 2754DOPC   NC332308  28.454   8.308  10.344 -0.0531  0.1688 -0.0476
 2754DOPC   PO432309  28.658   8.616  10.259 -0.0543 -0.0575 -0.1839
 2754DOPC   GL132310  28.624   8.733  10.645 -0.1547 -0.0477 -0.0037
 2754DOPC   GL232311  28.312   8.674  10.653  0.2216 -0.4836  0.1209
 2754DOPC   C1A32312  28.542   9.153  10.811 -0.0158 -0.1164 -0.0476
 2754DOPC   D2A32313  28.358   9.193  11.237 -0.2431 -0.2715  0.0865
 2754DOPC   C3A32314  28.375   9.060  11.646  0.1137  0.0993 -0.3397
 2754DOPC   C4A32315  28.513   8.907  12.084  0.0516  0.1854 -0.1499
 2754DOPC   C1B32316  28.420   8.737  11.091 -0.3074 -0.0636  0.0214
 2754DOPC   D2B32317  27.995   8.847  11.350  0.0692  0.1636 -0.0229
 2754DOPC   C3B32318  27.581   8.896  11.339  0.1103  0.0860  0.2981
 2754DOPC   C4B32319  27.183   9.077  11.188 -0.1724  0.2887  0.4632
 2755DOPE   NH332320  33.937   0.501   9.614  0.1095 -0.2691  0.3004
 2755DOPE   PO432321  33.685   0.558   9.807  0.0865  0.0997 -0.1445
 2755DOPE   GL132322  33.646   0.637  10.201 -0.1228  0.1465 -0.4597
 2755DOPE   GL232323  33.600   0.949  10.180  0.0219  0.0529  0.1437
 2755DOPE   C1A32324  33.378   0.519  10.613  0.3618 -0.1616  0.1062
 2755DOPE   D2A32325  33.464   0.402  11.075  0.1071 -0.2238  0.1855
 2755DOPE   C3A32326  33.489   0.662  11.497  0.1584  0.0219  0.0661
 2755DOPE   C4A32327  33.503   1.040  11.758  0.2537 -0.0580  0.1622
 2755DOPE   C1B32328  33.520   1.051  10.659 -0.0301  0.0031  0.2281
 2755DOPE   D2B32329  33.434   0.912  11.083  0.2240 -0.2556  0.1627
 2755DOPE   C3B32330  33.128   0.965  11.405  0.0135 -0.3626 -0.1826
 2755DOPE   C4B32331  32.836   1.096  11.789 -0.1013  0.0810  0.3872
 2756DOPE   NH332332  23.292  12.586   9.641  0.0788 -0.0662  0.0974
 2756DOPE   PO432333  23.536  12.780   9.615 -0.0529  0.1205  0.1025
 2756DOPE   GL132334  23.731  12.686  10.014 -0.0974  0.3572 -0.0271
 2756DOPE   GL232335  23.441  12.822  10.112  0.1470  0.2672  0.1514
 2756DOPE   C1A32336  23.615  12.534  10.468 -0.2654  0.1230 -0.0789
 2756DOPE   D2A32337  23.227  12.332  10.615  0.0170 -0.2366  0.0050
 2756DOPE   C3A32338  22.938  12.515  10.971 -0.0625 -0.1843 -0.1760
 2756DOPE   C4A32339  23.065  12.701  11.404  0.0476  0.3787  0.2141
 2756DOPE   C1B32340  23.194  13.079  10.438  0.2647  0.5994 -0.1090
 2756DOPE   D2B32341  23.216  13.428  10.699  0.1779  0.1024  0.2341
 2756DOPE   C3B32342  23.038  13.323  11.172 -0.1063 -0.1301  0.2490
 2756DOPE   C4B32343  22.793  13.245  11.547 -0.2765 -0.1899  0.2687
 2757POSM   NC332344  29.196   5.124   9.684  0.0392 -0.2313 -0.0170
 2757POSM   PO432345  28.930   5.159   9.947  0.0364 -0.0446  0.1844
 2757POSM   AM132346  28.961   5.126  10.245 -0.0247  0.1431  0.1249
 2757POSM   AM232347  29.135   4.974  10.422  0.1577 -0.1626  0.0113
 2757POSM   T1A32348  28.816   5.231  10.740  0.1554 -0.2328 -0.0929
 2757POSM   C2A32349  28.688   5.387  11.190 -0.4870 -0.2855  0.0804
 2757POSM   C3A32350  28.854   5.320  11.596  0.2346  0.1838  0.0332
 2757POSM   C1B32351  29.228   4.920  10.716  0.0229 -0.2288 -0.1476
 2757POSM   D2B32352  29.107   5.024  11.159  0.3024  0.2291  0.2172
 2757POSM   C3B32353  29.201   5.005  11.609 -0.0058  0.1725 -0.0939
 2757POSM   C4B32354  29.255   5.061  12.069  0.1082 -0.2711  0.2078
 2758DOPS   CNO32355  32.809  10.833  10.782 -0.1243  0.0414  0.0487
 2758DOPS   PO432356  32.864  10.680  11.103 -0.1014  0.3126  0.2630
 2758DOPS   GL132357  32.604  10.747  11.404  0.1552 -0.2238  0.0828
 2758DOPS   GL232358  32.803  10.675  11.563 -0.0428 -0.1397 -0.3027
 2758DOPS   C1A32359  32.261  11.068  11.517  0.0229  0.3535  0.2696
 2758DOPS   D2A32360  31.958  11.160  11.858 -0.0987  0.0594  0.2786
 2758DOPS   C3A32361  31.933  11.623  12.060  0.1210  0.0571 -0.1985
 2758DOPS   C4A32362  31.952  11.695  12.488 -0.0677 -0.4611 -0.3125
 2758DOPS   C1B32363  32.869  10.548  11.955 -0.0023 -0.0936 -0.0089
 2758DOPS   D2B32364  32.955  10.711  12.341  0.1467 -0.4071  0.1649
 2758DOPS   C3B32365  33.383  10.747  12.637  0.0290 -0.1294 -0.2035
 2758DOPS   C4B32366  33.539  10.740  13.087  0.2652 -0.0473  0.0940
 2759DOPC   NC332367  30.748   1.457   9.504 -0.4660  0.0114  0.0135
 2759DOPC   PO432368  30.975   1.146   9.389 -0.1434  0.1647  0.1138
 2759DOPC   GL132369  31.362   1.130   9.616 -0.2314 -0.0090  0.0386
 2759DOPC   GL232370  31.245   0.925   9.855 -0.1239  0.0702 -0.1059
 2759DOPC   C1A32371  31.520   1.332  10.032 -0.1345  0.1598 -0.0902
 2759DOPC   D2A32372  31.698   1.117  10.385 -0.0810 -0.0119 -0.1434
 2759DOPC   C3A32373  31.696   1.422  10.695  0.1061  0.0983 -0.0652
 2759DOPC   C4A32374  31.653   1.788  10.978  0.0833 -0.1170  0.2721
 2759DOPC   C1B32375  31.464   0.722  10.182 -0.0254  0.1797  0.1731
 2759DOPC   D2B32376  31.464   0.628  10.655  0.1626  0.2006 -0.3320
 2759DOPC   C3B32377  31.157   0.528  11.014  0.1818  0.1469 -0.1804
 2759DOPC   C4B32378  30.800   0.623  11.335 -0.1039 -0.0925  0.1237
 2760DOPE   NH332379  22.797   4.854   9.332  0.2356 -0.0283  0.1731
 2760DOPE   PO432380  22.451   4.904   9.383  0.1150 -0.0569 -0.3809
 2760DOPE   GL132381  22.438   4.783   9.768  0.1975 -0.1740 -0.3842
 2760DOPE   GL232382  22.489   4.935  10.008 -0.1090  0.2651 -0.0010
 2760DOPE   C1A32383  22.324   4.515  10.106 -0.3594  0.1693 -0.0453
 2760DOPE   D2A32384  22.468   4.283  10.485  0.1368 -0.0201  0.4900
 2760DOPE   C3A32385  22.056   4.220  10.750 -0.2083  0.2746  0.1123
 2760DOPE   C4A32386  21.679   4.523  10.757 -0.1721 -0.1864  0.2538
 2760DOPE   C1B32387  22.628   4.812  10.416 -0.1384  0.1763  0.4339
 2760DOPE   D2B32388  22.603   4.941  10.852  0.4285  0.1372  0.0704
 2760DOPE   C3B32389  22.652   5.378  10.906  0.0867 -0.2002  0.0085
 2760DOPE   C4B32390  22.900   5.675  10.642  0.4409 -0.0522  0.0153
 2761DOPS   CNO32391  30.650   4.285   9.527 -0.5581  0.2364 -0.2226
 2761DOPS   PO432392  30.628   4.214   9.936 -0.1645 -0.0412 -0.2993
 2761DOPS   GL132393  30.687   4.012  10.198  0.0832  0.0085 -0.3374
 2761DOPS   GL232394  30.870   3.688  10.179  0.2055  0.2904  0.0720
 2761DOPS   C1A32395  30.379   4.060  10.571  0.1434 -0.2553  0.3067
 2761DOPS   D2A32396  29.987   4.086  10.843 -0.3184  0.1201 -0.1395
 2761DOPS   C3A32397  29.606   4.227  11.000  0.0165  0.3424  0.1879
 2761DOPS   C4A32398  29.254   4.477  10.987 -0.3494  0.1540  0.2322
 2761DOPS   C1B32399  30.946   3.981  10.605 -0.1687 -0.3966 -0.2834
 2761DOPS   D2B32400  31.026   3.977  11.045 -0.2319 -0.0953 -0.0917
 2761DOPS   C3B32401  30.934   4.412  11.210 -0.0016 -0.0243  0.1515
 2761DOPS   C4B32402  30.662   4.788  11.242 -0.0568  0.0193 -0.1883
 2762DOPS   CNO32403  34.246   8.409  11.034 -0.1558 -0.1764 -0.0602
 2762DOPS   PO432404  34.392   8.318  11.379 -0.0220  0.0809  0.0261
 2762DOPS   GL132405  34.465   8.048  11.716  0.0636  0.1053  0.3501
 2762DOPS   GL232406  34.128   7.953  11.759  0.1011 -0.3408  0.0455
 2762DOPS   C1A32407  34.524   7.762  12.073 -0.0104  0.2081 -0.4096
 2762DOPS   D2A32408  34.899   7.826  12.337  0.1580  0.1176  0.0198
 2762DOPS   C3A32409  35.212   7.763  12.657  0.0535  0.1135 -0.2141
 2762DOPS   C4A32410  35.391   7.743  13.098 -0.1266  0.1732 -0.3809
 2762DOPS   C1B32411  33.723   8.094  11.963 -0.5005 -0.0870 -0.0533
 2762DOPS   D2B32412  33.497   8.144  12.416 -0.2554 -0.4360 -0.1296
 2762DOPS   C3B32413  33.125   7.844  12.442  0.1873 -0.0938 -0.1010
 2762DOPS   C4B32414  32.745   7.590  12.430 -0.1042  0.4700 -0.1507
 2763DOPE   NH332415  24.148  11.698   9.802 -0.0798 -0.2115 -0.0217
 2763DOPE   PO432416  24.254  12.032   9.823  0.0105 -0.0131  0.0951
 2763DOPE   GL132417  24.172  11.982  10.161  0.0978  0.4051  0.2036
 2763DOPE   GL232418  24.037  12.327  10.209 -0.0119 -0.2025  0.2001
 2763DOPE   C1A32419  24.431  11.971  10.525 -0.0390  0.2637  0.1279
 2763DOPE   D2A32420  24.760  12.034  10.889  0.1991 -0.0452 -0.2053
 2763DOPE   C3A32421  25.200  12.171  11.018  0.0513  0.2516 -0.1517
 2763DOPE   C4A32422  25.425  12.369  11.381 -0.2244 -0.0480  0.0626
 2763DOPE   C1B32423  24.011  12.382  10.695 -0.1873  0.3198 -0.3241
 2763DOPE   D2B32424  23.958  12.452  11.147  0.2224  0.1000 -0.0202
 2763DOPE   C3B32425  23.755  12.303  11.522 -0.0300  0.1713  0.2489
 2763DOPE   C4B32426  23.989  12.136  11.835 -0.2476  0.2150  0.1780
 2764DOPE   NH332427  25.576   9.560  10.123 -0.0454 -0.4147 -0.1972
 2764DOPE   PO432428  25.459   9.256  10.033  0.0348  0.2542  0.0552
 2764DOPE   GL132429  25.677   9.090  10.353  0.4540  0.3769 -0.2145
 2764DOPE   GL232430  25.686   8.847  10.454 -0.1930  0.0783  0.0287
 2764DOPE   C1A32431  25.633   9.213  10.813  0.0170  0.1852  0.0059
 2764DOPE   D2A32432  25.788   9.331  11.265  0.2229  0.0482 -0.0152
 2764DOPE   C3A32433  26.029   9.687  11.331 -0.0113 -0.0199  0.1594
 2764DOPE   C4A32434  26.120  10.157  11.309  0.1232 -0.0496 -0.1013
 2764DOPE   C1B32435  25.934   8.766  10.833  0.0107 -0.0490  0.0400
 2764DOPE   D2B32436  25.869   8.749  11.255 -0.1774  0.0104 -0.0433
 2764DOPE   C3B32437  26.229   8.665  11.568 -0.1230  0.0784 -0.3586
 2764DOPE   C4B32438  26.574   9.022  11.748 -0.0523  0.1010 -0.0470
 2765POSM   NC332439  30.698   3.160  10.215  0.1476 -0.1331 -0.0549
 2765POSM   PO432440  31.038   3.084  10.044 -0.1166 -0.3022  0.2909
 2765POSM   AM132441  31.167   2.984  10.323  0.2618  0.2266  0.0338
 2765POSM   AM232442  31.238   2.718  10.472 -0.0630 -0.2379  0.2299
 2765POSM   T1A32443  31.281   3.045  10.816 -0.1407  0.0843 -0.0252
 2765POSM   C2A32444  31.493   3.154  11.212  0.4027 -0.0941 -0.0870
 2765POSM   C3A32445  31.469   3.264  11.677 -0.0186  0.1230 -0.1056
 2765POSM   C1B32446  31.128   2.494  10.739  0.1008 -0.0706  0.1810
 2765POSM   D2B32447  30.835   2.354  11.091  0.3392  0.3483 -0.4277
 2765POSM   C3B32448  30.977   2.405  11.531  0.4142 -0.0805 -0.0354
 2765POSM   C4B32449  31.347   2.406  11.881  0.2970 -0.4685 -0.1115
 2766DOPC   NC332450  31.135   4.252  10.181 -0.0093 -0.0672 -0.2252
 2766DOPC   PO432451  30.980   4.595  10.277 -0.0832  0.1116 -0.0593
 2766DOPC   GL132452  30.832   4.673  10.665  0.0849 -0.0377 -0.0756
 2766DOPC   GL232453  30.707   4.446  10.632  0.0724 -0.0212  0.1682
 2766DOPC   C1A32454  30.487   4.944  10.769 -0.3343 -0.0193  0.0942
 2766DOPC   D2A32455  30.406   5.319  11.014  0.1230  0.1451  0.0558
 2766DOPC   C3A32456  30.401   5.179  11.488  0.0812 -0.1510  0.3344
 2766DOPC   C4A32457  30.344   4.740  11.612  0.0669  0.2331 -0.1499
 2766DOPC   C1B32458  30.493   4.285  11.023 -0.1449 -0.0926 -0.3591
 2766DOPC   D2B32459  30.433   4.261  11.477 -0.1443  0.2488 -0.5804
 2766DOPC   C3B32460  30.720   3.952  11.468  0.0942  0.1547  0.1203
 2766DOPC   C4B32461  30.753   3.470  11.407  0.4106  0.0561  0.1600
 2767DOPC   NC332462  26.885   9.095   9.742  0.1454 -0.3271  0.2359
 2767DOPC   PO432463  27.265   8.931   9.824  0.1866 -0.4763  0.2603
 2767DOPC   GL132464  27.463   9.003  10.162  0.0473  0.2984  0.2953
 2767DOPC   GL232465  27.584   8.795  10.290  0.0893  0.1581 -0.2112
 2767DOPC   C1A32466  27.401   9.374  10.471  0.2744 -0.2419  0.1049
 2767DOPC   D2A32467  27.019   9.341  10.708 -0.0202  0.1213 -0.2874
 2767DOPC   C3A32468  26.787   8.934  10.679  0.0941  0.2002  0.0364
 2767DOPC   C4A32469  26.586   8.498  10.823 -0.2032 -0.0140  0.0345
 2767DOPC   C1B32470  27.328   8.908  10.682 -0.2522  0.1511 -0.0132
 2767DOPC   D2B32471  27.075   8.634  10.969  0.0696 -0.3498 -0.1707
 2767DOPC   C3B32472  27.144   8.620  11.435 -0.0628  0.2496  0.2001
 2767DOPC   C4B32473  27.164   8.318  11.802 -0.0595  0.0910  0.0415
 2768DOPE   NH332474  33.101  11.026  11.333  0.2999  0.1352  0.1651
 2768DOPE   PO432475  33.291  11.248  11.386 -0.1357  0.0006  0.0425
 2768DOPE   GL132476  33.491  11.254  11.760 -0.1107  0.3351  0.0485
 2768DOPE   GL232477  33.630  11.441  11.956 -0.0581  0.4736 -0.3676
 2768DOPE   C1A32478  33.336  11.046  12.136 -0.0309  0.0056  0.1886
 2768DOPE   D2A32479  33.150  11.188  12.505  0.1245 -0.0072  0.3304
 2768DOPE   C3A32480  33.305  11.131  12.945  0.2181 -0.1038  0.2006
 2768DOPE   C4A32481  33.378  11.253  13.412  0.1151  0.0435 -0.2805
 2768DOPE   C1B32482  33.621  11.419  12.402 -0.1770 -0.0514 -0.2199
 2768DOPE   D2B32483  33.345  11.611  12.725 -0.0532  0.2640  0.1352
 2768DOPE   C3B32484  33.161  11.675  13.146  0.1210 -0.2029  0.0914
 2768DOPE   C4B32485  33.248  11.753  13.575 -0.0022 -0.0399 -0.1498
 2769POSM   NC332486  32.979   8.984  10.883 -0.1513 -0.3407  0.0274
 2769POSM   PO432487  32.749   9.104  10.558 -0.0660 -0.1781  0.2719
 2769POSM   AM132488  32.524   9.118  10.770  0.2664  0.2584 -0.0292
 2769POSM   AM232489  32.258   8.996  10.829  0.0320  0.0835  0.1097
 2769POSM   T1A32490  32.577   9.021  11.254  0.1735  0.0476  0.2993
 2769POSM   C2A32491  32.492   8.850  11.690 -0.5540 -0.3382  0.2473
 2769POSM   C3A32492  32.433   8.703  12.150 -0.0389  0.0898  0.1955
 2769POSM   C1B32493  32.037   9.034  11.104  0.1779  0.1446  0.0656
 2769POSM   D2B32494  31.879   8.866  11.560  0.0786 -0.0220  0.1637
 2769POSM   C3B32495  32.131   9.079  11.902  0.1649 -0.0685  0.1785
 2769POSM   C4B32496  32.280   9.197  12.280 -0.2313  0.0536  0.2933
 2770DOPE   NH332497  29.970   9.531   9.936  0.1725 -0.3554 -0.0804
 2770DOPE   PO432498  30.047   9.867   9.935  0.2542 -0.0443 -0.1575
 2770DOPE   GL132499  30.217   9.749  10.307 -0.0208 -0.4608 -0.1519
 2770DOPE   GL232500  30.441   9.623  10.466  0.0017 -0.3371  0.2981
 2770DOPE   C1A32501  29.893   9.548  10.602 -0.1095  0.3461 -0.0136
 2770DOPE   D2A32502  29.861   9.193  10.936 -0.0041 -0.1036 -0.3985
 2770DOPE   C3A32503  30.191   8.992  11.231  0.1171 -0.1075 -0.3203
 2770DOPE   C4A32504  30.570   9.093  11.443 -0.0130  0.1413  0.1616
 2770DOPE   C1B32505  30.732   9.767  10.775 -0.1509  0.1395 -0.0401
 2770DOPE   D2B32506  30.929   9.490  11.070  0.0258 -0.2654  0.1250
 2770DOPE   C3B32507  31.004   9.011  11.215  0.1322 -0.2129 -0.4031
 2770DOPE   C4B32508  30.996   8.557  11.159  0.0456  0.0312 -0.0048
 2771DOPC   NC332509  30.925   9.740  10.355  0.0945 -0.0547 -0.0386
 2771DOPC   PO432510  31.148   9.445  10.172 -0.5544 -0.2915 -0.2752
 2771DOPC   GL132511  31.023   9.281  10.624  0.1668  0.3215 -0.1525
 2771DOPC   GL232512  30.699   9.207  10.688 -0.1546  0.2096 -0.4917
 2771DOPC   C1A32513  31.074   8.803  10.739  0.1314  0.0420 -0.2213
 2771DOPC   D2A32514  30.971   8.386  10.722  0.2950  0.1227  0.1682
 2771DOPC   C3A32515  30.701   8.087  10.471  0.2722 -0.0651 -0.2295
 2771DOPC   C4A32516  30.318   7.909  10.535 -0.1914 -0.0292 -0.2225
 2771DOPC   C1B32517  30.405   9.350  10.981 -0.2739  0.0354 -0.1384
 2771DOPC   D2B32518  30.117   9.492  11.300  0.3153 -0.0130  0.1369
 2771DOPC   C3B32519  30.169   9.355  11.704  0.1949 -0.1171 -0.0125
 2771DOPC   C4B32520  30.106   9.145  12.153 -0.0835  0.0942  0.3503
 2772DOPS   CNO32521  23.601  34.639   9.193 -0.0695  0.1742  0.1841
 2772DOPS   PO432522  23.884  34.432   9.317 -0.2371 -0.2116 -0.0111
 2772DOPS   GL132523  24.015  34.308   9.705  0.0058  0.2584  0.1181
 2772DOPS   GL232524  23.905  34.438   9.982  0.0735  0.0088  0.1628
 2772DOPS   C1A32525  23.993  33.941  10.002  0.3411  0.1430  0.1193
 2772DOPS   D2A32526  24.033  33.521   9.957 -0.2217 -0.2087  0.2487
 2772DOPS   C3A32527  24.041  33.083  10.156  0.0718 -0.0484 -0.1517
 2772DOPS   C4A32528  23.758  32.715  10.330  0.2120 -0.1627 -0.0770
 2772DOPS   C1B32529  23.974  34.448  10.406  0.2102  0.0920 -0.1799
 2772DOPS   D2B32530  24.049  34.530  10.836  0.3269  0.0120 -0.1036
 2772DOPS   C3B32531  23.753  34.427  11.123  0.2247  0.3328 -0.2709
 2772DOPS   C4B32532  23.463  34.378  11.421  0.4558 -0.0490 -0.0404
 2773DOPE   NH332533  26.509   9.721   9.710 -0.0995  0.0928  0.1971
 2773DOPE   PO432534  26.705   9.550   9.842  0.0101 -0.2269 -0.1472
 2773DOPE   GL132535  26.924   9.652  10.159  0.1983  0.2439  0.2468
 2773DOPE   GL232536  26.715   9.530  10.356 -0.2352  0.4153 -0.0290
 2773DOPE   C1A32537  27.194   9.809  10.476 -0.1045  0.2256  0.0773
 2773DOPE   D2A32538  27.373   9.666  10.880 -0.0803  0.2172 -0.0592
 2773DOPE   C3A32539  27.062   9.581  11.240 -0.1052  0.0766  0.1300
 2773DOPE   C4A32540  26.898   9.407  11.660 -0.0957  0.0599  0.2761
 2773DOPE   C1B32541  26.332   9.605  10.557  0.1171  0.0739  0.1466
 2773DOPE   D2B32542  26.108   9.341  10.891 -0.2696 -0.0737  0.0729
 2773DOPE   C3B32543  26.300   8.975  11.127 -0.0598  0.1215 -0.3131
 2773DOPE   C4B32544  26.652   8.749  11.258 -0.1573  0.0295 -0.0259
 2774DOPE   NH332545  24.811   5.861   9.215 -0.0043 -0.4697 -0.1241
 2774DOPE   PO432546  24.842   5.793   9.517 -0.0808  0.1909 -0.0458
 2774DOPE   GL132547  24.765   5.856   9.890  0.1588 -0.0155 -0.1232
 2774DOPE   GL232548  24.989   5.994  10.021  0.2320 -0.0378 -0.2375
 2774DOPE   C1A32549  24.537   6.205  10.092  0.1825 -0.2051  0.1562
 2774DOPE   D2A32550  24.217   6.227  10.431  0.0255  0.1583  0.1266
 2774DOPE   C3A32551  24.293   5.909  10.778  0.0426 -0.1274 -0.0759
 2774DOPE   C4A32552  24.419   5.927  11.201  0.1269  0.1123 -0.0835
 2774DOPE   C1B32553  25.170   6.107  10.440  0.2263 -0.3287 -0.0195
 2774DOPE   D2B32554  25.059   6.390  10.827 -0.2679  0.1503  0.1650
 2774DOPE   C3B32555  24.895   6.178  11.239  0.2400 -0.1887 -0.0431
 2774DOPE   C4B32556  24.666   6.101  11.656 -0.2263  0.1414 -0.2438
 2775DOPS   CNO32557  34.282  10.997  11.465 -0.1140  0.0100  0.0536
 2775DOPS   PO432558  34.054  10.688  11.424  0.0394  0.0467  0.1711
 2775DOPS   GL132559  33.877  10.493  11.732 -0.1551  0.3742  0.0798
 2775DOPS   GL232560  33.580  10.312  11.717 -0.0379  0.2034  0.0159
 2775DOPS   C1A32561  34.111  10.552  12.132  0.0829 -0.1695 -0.1326
 2775DOPS   D2A32562  34.489  10.372  12.235 -0.1189  0.0158  0.0854
 2775DOPS   C3A32563  34.444  10.170  12.593  0.0409  0.5480 -0.1099
 2775DOPS   C4A32564  34.553   9.789  12.697  0.0320  0.2257 -0.2978
 2775DOPS   C1B32565  33.287  10.273  12.123 -0.4462  0.1750  0.0298
 2775DOPS   D2B32566  33.053  10.297  12.547 -0.1174  0.0216  0.1282
 2775DOPS   C3B32567  33.014  10.540  12.932 -0.0312 -0.4618  0.0478
 2775DOPS   C4B32568  33.012  10.877  13.307 -0.1692  0.1435  0.2040
 2776DOPE   NH332569   1.081   4.882  10.450 -0.0218  0.1387  0.1260
 2776DOPE   PO432570   0.916   4.721  10.677  0.0823  0.5654  0.2629
 2776DOPE   GL132571   0.775   4.717  11.002 -0.2680  0.0283  0.4755
 2776DOPE   GL232572   0.518   4.514  11.103 -0.4300 -0.2479  0.0752
 2776DOPE   C1A32573   0.832   4.652  11.484 -0.3319  0.0234 -0.1194
 2776DOPE   D2A32574   0.611   4.419  11.827 -0.0507  0.0253  0.1391
 2776DOPE   C3A32575   0.649   4.625  12.251  0.1461  0.2305 -0.0371
 2776DOPE   C4A32576   1.086   4.712  12.523 -0.1001 -0.0325 -0.1379
 2776DOPE   C1B32577   0.250   4.648  11.490 -0.2810  0.0377 -0.0010
 2776DOPE   D2B32578   0.167   4.528  11.943 -0.0470  0.0667 -0.1496
 2776DOPE   C3B32579   0.145   4.740  12.339 -0.1281 -0.0102 -0.0170
 2776DOPE   C4B32580  -0.013   4.949  12.785 -0.1324 -0.4757  0.1490
 2777DOPS   CNO32581  25.315   2.368   8.928  0.0591  0.2773 -0.0452
 2777DOPS   PO432582  24.995   2.253   9.191  0.1212 -0.5201  0.0330
 2777DOPS   GL132583  25.304   2.328   9.421 -0.1818  0.1230  0.0831
 2777DOPS   GL232584  25.257   2.092   9.642  0.2267  0.0792  0.1089
 2777DOPS   C1A32585  25.217   2.457   9.890  0.3341  0.3025 -0.0637
 2777DOPS   D2A32586  25.149   2.526  10.377 -0.0161 -0.2369 -0.1444
 2777DOPS   C3A32587  24.986   2.940  10.449 -0.0449  0.1234  0.2939
 2777DOPS   C4A32588  24.481   3.030  10.427  0.0748 -0.1013  0.0096
 2777DOPS   C1B32589  25.374   1.675   9.832 -0.3256  0.4364 -0.3341
 2777DOPS   D2B32590  25.353   1.541  10.258  0.4746 -0.1753 -0.3078
 2777DOPS   C3B32591  25.758   1.578  10.604 -0.0404 -0.1728  0.2687
 2777DOPS   C4B32592  26.077   1.669  10.841  0.1483  0.4554  0.0959
 2778DOPS   CNO32593  32.621   0.152   9.019  0.0473 -0.2232 -0.0054
 2778DOPS   PO432594  32.847   0.388   9.260 -0.0602 -0.2161 -0.0946
 2778DOPS   GL132595  32.641   0.012   9.473 -0.3912  0.0523  0.2023
 2778DOPS   GL232596  32.465   0.208   9.581 -0.0446  0.0136  0.5190
 2778DOPS   C1A32597  32.744  -0.355   9.728 -0.0392  0.2571  0.0128
 2778DOPS   D2A32598  32.954  -0.468  10.125  0.0477  0.2230 -0.2125
 2778DOPS   C3A32599  32.767  -0.353  10.533 -0.1683 -0.0351 -0.0538
 2778DOPS   C4A32600  32.591  -0.131  10.866  0.0540 -0.1422 -0.1990
 2778DOPS   C1B32601  32.840   0.111   9.870 -0.0996  0.2338 -0.1590
 2778DOPS   D2B32602  33.079   0.063  10.300  0.2062 -0.3134  0.0087
 2778DOPS   C3B32603  32.957   0.228  10.720 -0.1005 -0.2148  0.0689
 2778DOPS   C4B32604  32.770   0.267  11.085 -0.0893  0.0230 -0.0632
 2779DOPC   NC332605  26.113   4.170   9.651  0.0523  0.0813  0.0119
 2779DOPC   PO432606  26.227   3.775   9.648  0.0411 -0.1193 -0.0530
 2779DOPC   GL132607  26.084   3.797  10.027 -0.1744 -0.1419  0.1316
 2779DOPC   GL232608  26.365   3.833  10.107 -0.1389  0.1551 -0.0871
 2779DOPC   C1A32609  25.662   3.751  10.227  0.4220 -0.2664 -0.3237
 2779DOPC   D2A32610  25.239   3.946  10.282 -0.0362 -0.1494  0.1279
 2779DOPC   C3A32611  24.783   4.066  10.461 -0.0493  0.0031 -0.1058
 2779DOPC   C4A32612  24.385   4.320  10.456  0.0551  0.0128  0.0072
 2779DOPC   C1B32613  26.071   3.718  10.477 -0.2643 -0.0642  0.2122
 2779DOPC   D2B32614  25.723   3.757  10.725  0.0775 -0.0567 -0.0795
 2779DOPC   C3B32615  25.262   3.885  10.818  0.0046  0.2622 -0.0051
 2779DOPC   C4B32616  25.123   4.303  10.684 -0.1573 -0.0093 -0.1501
 2780DOPC   NC332617  32.876   6.133  10.352 -0.1657 -0.3661  0.1989
 2780DOPC   PO432618  32.524   6.088  10.486  0.0189  0.0887 -0.2663
 2780DOPC   GL132619  32.604   5.943  10.828  0.0355  0.1344 -0.0814
 2780DOPC   GL232620  32.525   5.634  10.882 -0.1856  0.1963 -0.0845
 2780DOPC   C1A32621  32.917   5.813  11.173  0.1510 -0.3232  0.0806
 2780DOPC   D2A32622  32.866   5.510  11.494 -0.0081  0.1057  0.0845
 2780DOPC   C3A32623  33.049   5.731  11.823 -0.0818  0.0888  0.0020
 2780DOPC   C4A32624  32.947   6.106  12.077  0.0148 -0.1812 -0.1868
 2780DOPC   C1B32625  32.477   5.268  11.193 -0.0836  0.1768 -0.2983
 2780DOPC   D2B32626  32.555   5.099  11.593  0.3017 -0.0967  0.0075
 2780DOPC   C3B32627  32.727   5.335  11.952  0.3477  0.0679 -0.1176
 2780DOPC   C4B32628  32.514   5.354  12.359  0.1259 -0.0810  0.0571
 2781DOPE   NH332629  27.002   4.437   9.754  0.0697  0.0678 -0.2064
 2781DOPE   PO432630  27.288   4.302   9.897  0.0101 -0.0206  0.1518
 2781DOPE   GL132631  27.271   4.175  10.276  0.2920 -0.2339  0.1056
 2781DOPE   GL232632  27.100   4.424  10.371 -0.1603 -0.2280 -0.1068
 2781DOPE   C1A32633  27.129   3.904  10.648  0.2209 -0.1052  0.1430
 2781DOPE   D2A32634  26.936   4.013  11.004  0.1567  0.2425  0.1778
 2781DOPE   C3A32635  26.656   3.941  11.322 -0.3355  0.2162 -0.1341
 2781DOPE   C4A32636  26.573   3.542  11.557  0.2196  0.1330 -0.3324
 2781DOPE   C1B32637  27.106   4.462  10.851  0.2737  0.1921  0.1068
 2781DOPE   D2B32638  27.069   4.420  11.308  0.1185 -0.3101  0.2565
 2781DOPE   C3B32639  27.283   4.415  11.726 -0.1092 -0.1703  0.0802
 2781DOPE   C4B32640  27.395   4.655  12.086  0.1516 -0.3174 -0.0539
 2782DOPC   NC332641  33.849  11.225  11.383 -0.2908 -0.1182 -0.2887
 2782DOPC   PO432642  34.060  11.487  11.556 -0.3019  0.0552  0.0883
 2782DOPC   GL132643  34.103  11.421  11.989 -0.0349  0.2431 -0.2164
 2782DOPC   GL232644  34.368  11.207  11.983 -0.0774 -0.0766  0.1006
 2782DOPC   C1A32645  34.114  11.410  12.415 -0.2350 -0.1328 -0.1007
 2782DOPC   D2A32646  34.350  11.485  12.798  0.0739 -0.1102  0.2441
 2782DOPC   C3A32647  34.008  11.262  13.072 -0.3139  0.1208 -0.1622
 2782DOPC   C4A32648  33.808  11.011  13.434  0.2200  0.1593  0.1148
 2782DOPC   C1B32649  34.377  10.928  12.321 -0.2651 -0.1412  0.2701
 2782DOPC   D2B32650  34.357  10.981  12.747 -0.1756 -0.0962  0.1053
 2782DOPC   C3B32651  34.095  10.782  13.084 -0.0172  0.0495 -0.2909
 2782DOPC   C4B32652  34.364  10.769  13.419  0.0374 -0.1703 -0.0898
 2783POSM   NC332653  27.020   3.141   9.344  0.5043  0.0238  0.1740
 2783POSM   PO432654  27.022   3.508   9.498  0.2133 -0.0338 -0.1205
 2783POSM   AM132655  26.920   3.454   9.790  0.1690 -0.2102  0.0455
 2783POSM   AM232656  26.672   3.425   9.935 -0.1006  0.1096  0.2139
 2783POSM   T1A32657  27.032   3.587  10.274  0.0518 -0.1901 -0.0574
 2783POSM   C2A32658  27.297   3.397  10.636 -0.3246 -0.1162  0.1090
 2783POSM   C3A32659  27.357   3.545  11.100  0.1983  0.1126  0.3531
 2783POSM   C1B32660  26.506   3.366  10.240 -0.1597  0.1146 -0.1223
 2783POSM   D2B32661  26.226   3.206  10.633 -0.0206 -0.2390 -0.1044
 2783POSM   C3B32662  26.192   2.939  11.043 -0.0390  0.2672 -0.0356
 2783POSM   C4B32663  26.367   2.725  11.467  0.1264  0.1331  0.0443
 2784DOPC   NC332664  26.355   7.821  10.001 -0.0538 -0.0673 -0.1103
 2784DOPC   PO432665  26.003   7.955   9.991 -0.0682 -0.0069 -0.0352
 2784DOPC   GL132666  25.987   8.032  10.349  0.2704 -0.0159  0.0110
 2784DOPC   GL232667  25.723   8.119  10.414 -0.2433  0.0797  0.1750
 2784DOPC   C1A32668  26.161   8.286  10.723 -0.2076  0.3048  0.0470
 2784DOPC   D2A32669  26.228   8.361  11.112 -0.0454 -0.0704 -0.2372
 2784DOPC   C3A32670  26.614   8.308  11.367  0.0860  0.1489 -0.1687
 2784DOPC   C4A32671  27.049   8.191  11.270  0.0675 -0.1057 -0.1615
 2784DOPC   C1B32672  25.680   8.277  10.871  0.0264 -0.0982 -0.3405
 2784DOPC   D2B32673  25.615   8.306  11.325  0.2140  0.2339  0.1652
 2784DOPC   C3B32674  26.003   8.218  11.581  0.0981  0.0098  0.1865
 2784DOPC   C4B32675  26.125   7.833  11.834  0.0533 -0.0811  0.3542
 2785DOPC   NC332676  33.091   8.185  10.752 -0.0402  0.1245  0.0753
 2785DOPC   PO432677  33.215   8.515  10.944 -0.0195  0.3095  0.3261
 2785DOPC   GL132678  33.223   8.775  11.277  0.4876 -0.2226  0.0694
 2785DOPC   GL232679  32.972   8.783  11.418  0.2906 -0.1666  0.0745
 2785DOPC   C1A32680  33.373   8.847  11.718  0.0895  0.0786 -0.1945
 2785DOPC   D2A32681  33.597   8.919  12.164 -0.1908  0.2015 -0.0151
 2785DOPC   C3A32682  33.871   8.585  12.309  0.0651 -0.0224  0.1723
 2785DOPC   C4A32683  34.018   8.449  12.692 -0.2722 -0.0405 -0.0093
 2785DOPC   C1B32684  32.842   8.468  11.729  0.2663 -0.0812  0.1189
 2785DOPC   D2B32685  32.691   8.122  11.919  0.2734  0.0990  0.0586
 2785DOPC   C3B32686  32.923   8.240  12.310  0.2573 -0.0928  0.1289
 2785DOPC   C4B32687  33.092   8.274  12.727  0.1218 -0.3653  0.0582
 2786DOPE   NH332688  26.374   9.957  10.118  0.3128  0.0270 -0.0715
 2786DOPE   PO432689  26.671  10.013  10.038 -0.0120 -0.1055 -0.0835
 2786DOPE   GL132690  26.758   9.989  10.469  0.0235  0.2678  0.2969
 2786DOPE   GL232691  26.768  10.231  10.573 -0.1678 -0.1997  0.1671
 2786DOPE   C1A32692  26.737   9.750  10.812  0.0920 -0.0425  0.0741
 2786DOPE   D2A32693  26.659   9.304  11.051 -0.2720  0.1950 -0.0157
 2786DOPE   C3A32694  26.380   9.364  11.399 -0.0199 -0.1314 -0.1628
 2786DOPE   C4A32695  26.089   9.184  11.701  0.0352  0.3272  0.0739
 2786DOPE   C1B32696  27.067  10.191  10.870 -0.2783  0.0773  0.1855
 2786DOPE   D2B32697  27.234  10.250  11.247  0.3522  0.0789  0.0384
 2786DOPE   C3B32698  27.034  10.081  11.552 -0.1815 -0.1035 -0.0603
 2786DOPE   C4B32699  26.930  10.308  11.943 -0.3024 -0.1132  0.0941
 2787DOPE   NH332700  28.115  13.299  10.569  0.2610  0.2292 -0.0961
 2787DOPE   PO432701  27.863  13.161  10.721 -0.1749 -0.1868  0.0242
 2787DOPE   GL132702  27.753  13.106  11.057  0.3246  0.0480 -0.1195
 2787DOPE   GL232703  27.870  13.348  11.231  0.1777  0.1217 -0.2015
 2787DOPE   C1A32704  27.756  12.967  11.506  0.2266  0.0022 -0.1420
 2787DOPE   D2A32705  27.913  12.659  11.777  0.0267  0.0112 -0.0998
 2787DOPE   C3A32706  27.769  12.661  12.267  0.1817 -0.1671 -0.3687
 2787DOPE   C4A32707  27.650  12.520  12.652  0.2507 -0.0139 -0.1460
 2787DOPE   C1B32708  28.167  13.286  11.579 -0.1021 -0.0433 -0.0042
 2787DOPE   D2B32709  28.379  12.843  11.671 -0.0798 -0.0026 -0.0454
 2787DOPE   C3B32710  28.360  12.748  12.138  0.2792 -0.1761 -0.0453
 2787DOPE   C4B32711  28.296  12.488  12.466 -0.0245 -0.2833  0.0631
 2788DOPC   NC332712  26.152   6.943   9.670 -0.1576 -0.0855 -0.1993
 2788DOPC   PO432713  25.819   6.842   9.513  0.1360  0.1720  0.0914
 2788DOPC   GL132714  25.760   6.875   9.863 -0.0384  0.2037  0.0473
 2788DOPC   GL232715  25.915   6.948  10.127 -0.1141 -0.0622 -0.3946
 2788DOPC   C1A32716  25.409   6.710  10.152  0.2067  0.2098  0.1180
 2788DOPC   D2A32717  25.031   6.480  10.149 -0.2321  0.3139  0.2319
 2788DOPC   C3A32718  24.732   6.423  10.480  0.1566  0.0832 -0.1507
 2788DOPC   C4A32719  24.572   6.601  10.865  0.1616  0.0283 -0.2653
 2788DOPC   C1B32720  26.015   6.804  10.568  0.1761 -0.1606 -0.0938
 2788DOPC   D2B32721  26.152   6.719  11.020  0.0877 -0.1580 -0.1345
 2788DOPC   C3B32722  26.625   6.713  11.049  0.0900  0.1828 -0.1156
 2788DOPC   C4B32723  27.014   6.791  11.229  0.2560  0.0860  0.3621
 2789DOPE   NH332724  32.391   3.335  10.139  0.0649 -0.1780 -0.2186
 2789DOPE   PO432725  32.688   3.306  10.220  0.1901 -0.4315  0.1180
 2789DOPE   GL132726  32.685   3.262  10.515 -0.1266 -0.1375 -0.1768
 2789DOPE   GL232727  32.378   3.164  10.647  0.3011 -0.1553 -0.1971
 2789DOPE   C1A32728  32.977   3.469  10.894 -0.1632 -0.1031  0.0541
 2789DOPE   D2A32729  33.143   3.465  11.328 -0.0319 -0.2816 -0.0565
 2789DOPE   C3A32730  33.193   3.923  11.545 -0.3252 -0.2250 -0.1825
 2789DOPE   C4A32731  33.377   4.001  11.954  0.3375  0.0517  0.1736
 2789DOPE   C1B32732  32.321   2.953  11.064  0.0233 -0.0270  0.0594
 2789DOPE   D2B32733  32.540   2.543  11.218  0.0448 -0.0330  0.0457
 2789DOPE   C3B32734  32.872   2.520  11.537 -0.2139 -0.0134 -0.1110
 2789DOPE   C4B32735  33.148   2.428  11.908  0.1828  0.0167  0.0088
 2790DOPS   CNO32736  27.228  11.343  10.255  0.0369  0.2497  0.2744
 2790DOPS   PO432737  27.408  11.656  10.200  0.2459 -0.2463 -0.0391
 2790DOPS   GL132738  27.173  11.819  10.494 -0.0447 -0.1765  0.2344
 2790DOPS   GL232739  26.913  12.024  10.584 -0.1062 -0.0266  0.0213
 2790DOPS   C1A32740  27.340  11.619  10.839  0.4316 -0.0455 -0.0282
 2790DOPS   D2A32741  27.619  11.658  11.217 -0.0001 -0.1463  0.2600
 2790DOPS   C3A32742  27.842  11.242  11.209 -0.1583 -0.0031 -0.0422
 2790DOPS   C4A32743  28.198  10.928  11.181  0.3950 -0.1191  0.0420
 2790DOPS   C1B32744  26.815  11.951  11.029 -0.3561  0.2770  0.1567
 2790DOPS   D2B32745  27.153  11.813  11.334  0.0997  0.2759  0.0355
 2790DOPS   C3B32746  27.298  11.809  11.791 -0.0401  0.0201 -0.1579
 2790DOPS   C4B32747  27.097  11.987  12.148 -0.1748 -0.1618 -0.0964
 2791DOPC   NC332748  25.667  14.003  10.158  0.2352  0.1406  0.0639
 2791DOPC   PO432749  25.866  13.671  10.162 -0.0452 -0.1912 -0.1748
 2791DOPC   GL132750  25.900  13.519  10.488  0.0985 -0.0373  0.0172
 2791DOPC   GL232751  25.803  13.819  10.677 -0.0707  0.0158  0.2016
 2791DOPC   C1A32752  25.880  13.455  10.966 -0.0135 -0.1849 -0.1703
 2791DOPC   D2A32753  25.897  13.532  11.394  0.0667  0.4222  0.2040
 2791DOPC   C3A32754  25.555  13.538  11.681  0.4483 -0.0004  0.0099
 2791DOPC   C4A32755  25.219  13.577  11.995  0.2417 -0.2449 -0.1726
 2791DOPC   C1B32756  26.206  13.901  10.939 -0.3675 -0.0880  0.0641
 2791DOPC   D2B32757  26.626  13.979  11.030 -0.0006  0.0018 -0.4339
 2791DOPC   C3B32758  26.793  14.001  11.423 -0.2049  0.2116  0.3394
 2791DOPC   C4B32759  27.023  13.948  11.824  0.0451 -0.4884 -0.0535
 2792POSM   NC332760  34.385   7.870  11.125  0.4841 -0.1310  0.2432
 2792POSM   PO432761  34.545   7.537  10.969  0.2811 -0.2632 -0.0002
 2792POSM   AM132762  34.424   7.441  11.270 -0.3358  0.2382  0.1101
 2792POSM   AM232763  34.309   7.533  11.526  0.1042  0.1201  0.0810
 2792POSM   T1A32764  34.388   6.993  11.511  0.2065  0.0685 -0.3640
 2792POSM   C2A32765  34.347   6.858  11.946 -0.1107  0.2305  0.1104
 2792POSM   C3A32766  34.527   6.627  12.307  0.0227  0.1916  0.0750
 2792POSM   C1B32767  34.431   7.403  11.797  0.0617  0.0280  0.1196
 2792POSM   D2B32768  34.515   7.226  12.212  0.2331 -0.0048 -0.2128
 2792POSM   C3B32769  34.171   7.001  12.409  0.0354 -0.1108  0.2507
 2792POSM   C4B32770  33.973   6.626  12.557  0.2455  0.0751 -0.2487
 2793DOPC   NC332771  24.058   7.408   9.899  0.1576 -0.2526 -0.4186
 2793DOPC   PO432772  23.785   7.707   9.910 -0.1636 -0.1409  0.3084
 2793DOPC   GL132773  23.627   7.565  10.200 -0.1227 -0.3372  0.0593
 2793DOPC   GL232774  23.636   7.699  10.411 -0.1887 -0.0544 -0.0902
 2793DOPC   C1A32775  23.786   7.149  10.253  0.0884 -0.2194  0.1058
 2793DOPC   D2A32776  23.625   6.892  10.573  0.4546 -0.0872  0.1751
 2793DOPC   C3A32777  23.771   6.853  10.978 -0.0295  0.2709  0.3063
 2793DOPC   C4A32778  24.251   6.978  11.064 -0.4678 -0.1546 -0.0742
 2793DOPC   C1B32779  23.897   7.724  10.852  0.2994 -0.1554  0.4187
 2793DOPC   D2B32780  23.752   7.944  11.248 -0.3053 -0.2070  0.1715
 2793DOPC   C3B32781  23.614   7.604  11.556  0.0814  0.2258  0.1912
 2793DOPC   C4B32782  23.466   7.127  11.658 -0.0945 -0.0056 -0.0300
 2794POSM   NC332783  26.468  10.954   9.565 -0.0653 -0.2813  0.1540
 2794POSM   PO432784  26.771  10.980   9.795 -0.2110  0.0976  0.1475
 2794POSM   AM132785  26.770  11.009  10.126 -0.2403 -0.3155 -0.0991
 2794POSM   AM232786  26.726  11.173  10.332 -0.1025  0.0568  0.1085
 2794POSM   T1A32787  26.741  10.777  10.571 -0.1298  0.1072 -0.0673
 2794POSM   C2A32788  26.961  10.722  11.014  0.0785 -0.1938  0.0719
 2794POSM   C3A32789  26.980  10.592  11.484  0.0165  0.0295  0.1591
 2794POSM   C1B32790  26.837  11.328  10.622  0.0204  0.2924  0.2682
 2794POSM   D2B32791  26.849  11.352  11.081  0.1423  0.0546  0.0239
 2794POSM   C3B32792  26.737  10.990  11.384 -0.1782 -0.0552  0.2120
 2794POSM   C4B32793  26.481  10.618  11.593 -0.0294 -0.0407 -0.1994
 2795DOPE   NH332794  28.101   6.178  10.045 -0.1921 -0.3816 -0.0724
 2795DOPE   PO432795  27.829   6.270  10.160 -0.1908 -0.2476 -0.2428
 2795DOPE   GL132796  27.883   6.563  10.389 -0.0754 -0.0047  0.2326
 2795DOPE   GL232797  27.677   6.778  10.329  0.0984 -0.0495  0.2406
 2795DOPE   C1A32798  28.225   6.818  10.567 -0.3600 -0.0989  0.5467
 2795DOPE   D2A32799  28.157   6.786  11.024 -0.0734  0.2586  0.1067
 2795DOPE   C3A32800  27.938   6.700  11.384  0.0132  0.2015 -0.3251
 2795DOPE   C4A32801  27.775   6.912  11.767  0.1920  0.0621 -0.1712
 2795DOPE   C1B32802  27.802   7.017  10.736  0.0779  0.0544  0.1416
 2795DOPE   D2B32803  28.155   7.296  10.937 -0.1374  0.3088  0.3013
 2795DOPE   C3B32804  28.582   7.235  10.845 -0.0991 -0.1773 -0.1699
 2795DOPE   C4B32805  29.037   7.098  10.700  0.3568 -0.0797 -0.1604
 2796DOPE   NH332806  30.972   7.948   9.932 -0.0161 -0.2834 -0.1209
 2796DOPE   PO432807  31.176   7.700   9.941 -0.0812 -0.0642  0.0825
 2796DOPE   GL132808  31.096   7.679  10.310 -0.1203 -0.0836 -0.0889
 2796DOPE   GL232809  30.978   7.372  10.324 -0.1033 -0.1838 -0.2523
 2796DOPE   C1A32810  30.873   7.676  10.685  0.0920 -0.2554 -0.1925
 2796DOPE   D2A32811  30.648   7.589  11.096 -0.1127  0.1964  0.1746
 2796DOPE   C3A32812  30.897   7.649  11.436  0.1144  0.0788 -0.1325
 2796DOPE   C4A32813  31.115   7.711  11.823 -0.1578  0.2161  0.0040
 2796DOPE   C1B32814  31.332   7.371  10.587 -0.0344  0.3647 -0.0248
 2796DOPE   D2B32815  31.233   7.445  11.068  0.1833 -0.3545  0.4120
 2796DOPE   C3B32816  31.352   7.267  11.499  0.0633  0.1498  0.0415
 2796DOPE   C4B32817  31.489   7.366  11.929  0.0449 -0.1086 -0.3617
 2797DOPS   CNO32818  28.465   2.073   9.544  0.0719  0.0899 -0.2900
 2797DOPS   PO432819  28.160   1.978   9.749  0.1357 -0.1419 -0.1070
 2797DOPS   GL132820  28.166   1.786  10.028 -0.0057 -0.0962 -0.2363
 2797DOPS   GL232821  28.288   1.483   9.904  0.1122 -0.2355  0.3128
 2797DOPS   C1A32822  28.313   2.072  10.392  0.2978  0.2969  0.4247
 2797DOPS   D2A32823  28.743   2.058  10.487  0.1542  0.3751 -0.1170
 2797DOPS   C3A32824  28.855   2.222  10.945  0.1844  0.1849  0.1649
 2797DOPS   C4A32825  28.652   2.163  11.339  0.1077  0.2093  0.1064
 2797DOPS   C1B32826  28.322   1.163  10.240 -0.1193 -0.1023  0.1978
 2797DOPS   D2B32827  28.307   0.734  10.271  0.3734 -0.1090 -0.1566
 2797DOPS   C3B32828  28.422   0.456  10.622  0.0177 -0.1057 -0.0401
 2797DOPS   C4B32829  28.489   0.006  10.786  0.0423  0.1459 -0.1968
 2798DOPE   NH332830  23.684  33.323   8.926 -0.2637 -0.1674 -0.3633
 2798DOPE   PO432831  23.989  33.361   9.023  0.1055  0.0263 -0.2200
 2798DOPE   GL132832  24.090  33.514   9.435 -0.2888 -0.2743 -0.1347
 2798DOPE   GL232833  24.252  33.286   9.464  0.1717  0.3314  0.2084
 2798DOPE   C1A32834  24.424  33.764   9.667  0.4787 -0.1391  0.0343
 2798DOPE   D2A32835  24.549  33.835  10.122 -0.1581  0.2489  0.2866
 2798DOPE   C3A32836  24.264  34.009  10.424  0.1509 -0.0364 -0.0933
 2798DOPE   C4A32837  24.027  34.036  10.816 -0.1520 -0.0302 -0.2129
 2798DOPE   C1B32838  24.456  33.282   9.866  0.0484 -0.1413  0.1192
 2798DOPE   D2B32839  24.394  33.385  10.331  0.1573 -0.1382 -0.1186
 2798DOPE   C3B32840  23.993  33.618  10.446  0.1402 -0.0087  0.1322
 2798DOPE   C4B32841  23.708  33.968  10.400  0.1619  0.0270 -0.0596
 2799DOPE   NH332842  31.838   3.638  10.210  0.1843 -0.2104  0.0084
 2799DOPE   PO432843  31.918   3.309  10.188  0.1759  0.0198  0.0308
 2799DOPE   GL132844  31.968   3.121  10.554 -0.4526  0.2257  0.0976
 2799DOPE   GL232845  31.665   2.995  10.550  0.1392  0.2573  0.1816
 2799DOPE   C1A32846  31.858   2.905  10.976  0.1487 -0.1502  0.3199
 2799DOPE   D2A32847  31.753   2.702  11.343 -0.1312 -0.0390  0.2063
 2799DOPE   C3A32848  32.150   2.597  11.551  0.0411  0.0199  0.2447
 2799DOPE   C4A32849  32.478   2.638  11.854 -0.1456  0.0113  0.0461
 2799DOPE   C1B32850  31.614   3.404  10.746 -0.1721  0.2939  0.0276
 2799DOPE   D2B32851  31.503   3.666  11.056  0.2258 -0.3001  0.0740
 2799DOPE   C3B32852  31.233   3.673  11.416  0.0993  0.0879  0.3142
 2799DOPE   C4B32853  31.009   3.835  11.836  0.2349  0.0502  0.2305
 2800POSM   NC332854  33.288  10.537  11.288 -0.2665  0.2925 -0.0145
 2800POSM   PO432855  33.579  10.801  11.366  0.0236 -0.0958  0.3654
 2800POSM   AM132856  33.668  10.895  11.662 -0.3800  0.2161  0.0175
 2800POSM   AM232857  33.894  11.006  11.824 -0.1091  0.2287  0.2412
 2800POSM   T1A32858  33.629  10.631  12.118 -0.1536 -0.1268  0.1149
 2800POSM   C2A32859  33.663  10.334  12.444 -0.1829  0.1060 -0.4067
 2800POSM   C3A32860  33.432  10.273  12.852 -0.1643  0.2821  0.0764
 2800POSM   C1B32861  33.867  11.056  12.148  0.0631  0.1568 -0.0796
 2800POSM   D2B32862  33.874  10.910  12.552 -0.0961  0.4453 -0.0450
 2800POSM   C3B32863  34.046  10.490  12.649  0.1324  0.1943  0.0616
 2800POSM   C4B32864  34.221  10.296  13.096  0.1365 -0.0220  0.2707
 2801DOPC   NC332865  34.147   9.412  11.351 -0.0113 -0.1972  0.2307
 2801DOPC   PO432866  34.453   9.170  11.500  0.0251 -0.0121 -0.3060
 2801DOPC   GL132867  34.351   8.901  11.658  0.2685  0.0871 -0.2718
 2801DOPC   GL232868  34.420   8.582  11.783  0.1582 -0.1209  0.1700
 2801DOPC   C1A32869  34.206   8.869  12.134 -0.3193 -0.1984 -0.0214
 2801DOPC   D2A32870  34.024   9.043  12.512 -0.1486 -0.2115 -0.0011
 2801DOPC   C3A32871  34.324   8.823  12.828 -0.1189  0.0725  0.0836
 2801DOPC   C4A32872  34.503   8.633  13.193  0.0380 -0.0462  0.0172
 2801DOPC   C1B32873  34.165   8.342  12.055 -0.1330  0.1277 -0.0888
 2801DOPC   D2B32874  33.984   8.093  12.381 -0.1433  0.1499  0.0144
 2801DOPC   C3B32875  34.283   7.789  12.544 -0.0496  0.0992 -0.3519
 2801DOPC   C4B32876  34.240   7.376  12.803 -0.1452  0.3066 -0.2578
 2802DOPC   NC332877  27.269   2.378   9.045  0.0760 -0.0850  0.0210
 2802DOPC   PO432878  27.007   2.649   9.149 -0.1845 -0.3322  0.2062
 2802DOPC   GL132879  27.011   2.544   9.490 -0.3127 -0.2174 -0.1596
 2802DOPC   GL232880  27.321   2.513   9.551 -0.3759  0.1794 -0.1663
 2802DOPC   C1A32881  26.939   2.535   9.972  0.0159  0.1608  0.0533
 2802DOPC   D2A32882  26.801   2.545  10.392 -0.0141 -0.3994 -0.0241
 2802DOPC   C3A32883  26.382   2.670  10.632  0.2016 -0.1783  0.0739
 2802DOPC   C4A32884  25.924   2.636  10.744 -0.1673 -0.1817  0.0458
 2802DOPC   C1B32885  27.317   2.843   9.852 -0.2706  0.0174 -0.1301
 2802DOPC   D2B32886  27.283   2.700  10.317 -0.1379 -0.5009  0.1484
 2802DOPC   C3B32887  27.160   2.871  10.717  0.0249 -0.1483 -0.1376
 2802DOPC   C4B32888  27.305   2.953  11.144  0.1128 -0.1059 -0.0143
 2803DOPE   NH332889  23.640   0.823   9.102 -0.1263 -0.1022  0.0844
 2803DOPE   PO432890  23.880   0.786   9.245 -0.2248  0.2832  0.0738
 2803DOPE   GL132891  24.206   0.617   9.463  0.1821 -0.0963  0.2485
 2803DOPE   GL232892  24.051   0.376   9.597 -0.0664  0.1022 -0.1161
 2803DOPE   C1A32893  24.272   0.670   9.925  0.2339 -0.1532 -0.1088
 2803DOPE   D2A32894  24.258   0.648  10.397 -0.0403  0.0161 -0.0005
 2803DOPE   C3A32895  23.844   0.647  10.595 -0.1742 -0.2328 -0.0673
 2803DOPE   C4A32896  23.606   1.023  10.597  0.0683  0.0515  0.0565
 2803DOPE   C1B32897  23.824   0.572  10.028 -0.1207  0.0235 -0.2047
 2803DOPE   D2B32898  23.496   0.713  10.191  0.1802  0.0792  0.2346
 2803DOPE   C3B32899  23.285   0.650  10.666  0.0695 -0.0951  0.1562
 2803DOPE   C4B32900  22.955   0.687  10.978 -0.0085  0.1071  0.3303
 2804DOPE   NH332901  28.332   3.291   9.861 -0.1515  0.1091 -0.0194
 2804DOPE   PO432902  28.087   3.212   9.680 -0.0338  0.1900 -0.1021
 2804DOPE   GL132903  27.885   3.161  10.045 -0.3938 -0.3338 -0.1103
 2804DOPE   GL232904  27.745   2.875  10.120 -0.2050  0.0173  0.0492
 2804DOPE   C1A32905  27.997   3.247  10.550 -0.2904  0.2501 -0.0131
 2804DOPE   D2A32906  27.857   3.296  11.040 -0.1268 -0.1595  0.1659
 2804DOPE   C3A32907  28.136   3.459  11.454 -0.0033  0.0250  0.1986
 2804DOPE   C4A32908  28.494   3.163  11.663  0.3137  0.1638  0.1145
 2804DOPE   C1B32909  27.479   3.239  10.162  0.0481 -0.2123  0.3327
 2804DOPE   D2B32910  27.519   3.664  10.305 -0.1133  0.1853  0.1300
 2804DOPE   C3B32911  27.728   3.641  10.744  0.1681  0.0656  0.0393
 2804DOPE   C4B32912  27.770   3.789  11.233  0.0118  0.1173 -0.0434
 2805POSM   NC332913  25.971   2.813   8.853  0.0376 -0.5015 -0.1890
 2805POSM   PO432914  26.330   2.728   8.966 -0.3018 -0.0076 -0.1434
 2805POSM   AM132915  26.516   2.726   9.227 -0.3779 -0.0283  0.0469
 2805POSM   AM232916  26.557   2.872   9.433 -0.1213  0.1054  0.0440
 2805POSM   T1A32917  26.624   2.405   9.611 -0.0892 -0.0649 -0.2607
 2805POSM   C2A32918  26.543   2.285  10.051  0.2045  0.0619  0.1195
 2805POSM   C3A32919  26.533   2.181  10.534 -0.1001 -0.0009 -0.0205
 2805POSM   C1B32920  26.653   2.949   9.707 -0.1229  0.1057  0.0212
 2805POSM   D2B32921  26.935   3.071  10.123 -0.0501  0.2186  0.4271
 2805POSM   C3B32922  26.798   3.160  10.574  0.0267 -0.1571  0.1665
 2805POSM   C4B32923  26.681   2.915  10.941  0.0920  0.4568 -0.0454
 2806POSM   NC332924  30.996   6.498   9.945  0.0806  0.0994 -0.1593
 2806POSM   PO432925  30.741   6.440  10.246 -0.0018 -0.2926  0.0257
 2806POSM   AM132926  30.477   6.463  10.444  0.1175 -0.4671 -0.1715
 2806POSM   AM232927  30.355   6.286  10.666 -0.2770 -0.0684  0.2034
 2806POSM   T1A32928  30.376   6.763  10.817  0.1218 -0.3668 -0.0390
 2806POSM   C2A32929  30.307   7.079  11.188  0.1521  0.1251 -0.0059
 2806POSM   C3A32930  30.378   7.397  11.488 -0.0108  0.2206 -0.0040
 2806POSM   C1B32931  30.301   6.297  11.004  0.1985  0.0397  0.0765
 2806POSM   D2B32932  30.163   6.293  11.417 -0.1514 -0.2003  0.2238
 2806POSM   C3B32933  30.250   5.887  11.636 -0.2681  0.0107 -0.1711
 2806POSM   C4B32934  30.015   5.498  11.497  0.1259 -0.2726  0.1052
 2807POSM   NC332935  24.761   8.221   9.812 -0.0708  0.2061  0.0040
 2807POSM   PO432936  25.046   8.422   9.977  0.0435  0.0282 -0.0909
 2807POSM   AM132937  24.927   8.251  10.277  0.0540 -0.0178 -0.2958
 2807POSM   AM232938  24.854   8.353  10.484  0.1246  0.0711  0.1712
 2807POSM   T1A32939  24.737   7.899  10.622  0.2237 -0.1648  0.1828
 2807POSM   C2A32940  24.412   7.623  10.755  0.0470  0.2829 -0.1321
 2807POSM   C3A32941  24.170   7.529  11.182  0.0092  0.0188  0.1102
 2807POSM   C1B32942  24.835   8.455  10.820 -0.0156 -0.2945 -0.0155
 2807POSM   D2B32943  24.631   8.431  11.219  0.0528  0.0297 -0.1915
 2807POSM   C3B32944  24.933   8.130  11.256  0.2263  0.0199 -0.2296
 2807POSM   C4B32945  25.282   7.973  11.457  0.0276  0.0613  0.2898
 2808POSM   NC332946  33.267   4.594  10.433 -0.2499 -0.0982 -0.0378
 2808POSM   PO432947  33.193   4.237  10.334 -0.1028 -0.3110 -0.2540
 2808POSM   AM132948  33.122   4.218  10.692  0.2181  0.2651 -0.0263
 2808POSM   AM232949  32.929   4.324  10.893  0.2795 -0.2370 -0.1776
 2808POSM   T1A32950  33.243   3.864  11.042 -0.0083 -0.1181 -0.0339
 2808POSM   C2A32951  33.585   3.776  11.263 -0.6211 -0.2572  0.0127
 2808POSM   C3A32952  34.044   3.590  11.337 -0.0078  0.1701  0.0339
 2808POSM   C1B32953  32.900   4.293  11.239 -0.1913 -0.0385 -0.0069
 2808POSM   D2B32954  32.731   4.007  11.577 -0.0009 -0.1912  0.0317
 2808POSM   C3B32955  32.810   3.722  11.899  0.2760  0.0988  0.1347
 2808POSM   C4B32956  32.619   3.418  12.225 -0.1774  0.0996 -0.1904
 2809DOPC   NC332957  29.679   4.906  10.218  0.0487  0.0756 -0.2279
 2809DOPC   PO432958  29.442   5.236  10.146 -0.1557  0.2383  0.0077
 2809DOPC   GL132959  29.599   5.257  10.547  0.1765 -0.2773  0.0508
 2809DOPC   GL232960  29.367   5.388  10.676 -0.0735 -0.2636  0.2898
 2809DOPC   C1A32961  29.931   5.242  10.887  0.0417  0.1201 -0.1305
 2809DOPC   D2A32962  30.159   4.911  11.109 -0.1572  0.2035 -0.0705
 2809DOPC   C3A32963  29.942   4.956  11.508  0.1657 -0.0905 -0.2701
 2809DOPC   C4A32964  29.904   4.901  11.945  0.0265  0.0259 -0.0119
 2809DOPC   C1B32965  29.128   5.567  11.033 -0.0365  0.4203  0.2660
 2809DOPC   D2B32966  29.240   5.876  11.289  0.1633  0.2100  0.0969
 2809DOPC   C3B32967  28.934   5.937  11.633 -0.1772  0.1303  0.2423
 2809DOPC   C4B32968  28.502   6.021  11.815  0.0875 -0.1075 -0.2764
 2810DOPC   NC332969  30.733   3.803   9.675  0.0603  0.1047 -0.0352
 2810DOPC   PO432970  30.344   3.813   9.829 -0.1917  0.0941 -0.0318
 2810DOPC   GL132971  30.452   3.543  10.092  0.1544  0.1106  0.0051
 2810DOPC   GL232972  30.150   3.468  10.133 -0.2467  0.1117 -0.0926
 2810DOPC   C1A32973  30.538   3.618  10.539  0.2247 -0.1119 -0.1067
 2810DOPC   D2A32974  30.571   3.766  10.982 -0.1211  0.2222  0.0774
 2810DOPC   C3A32975  30.270   3.711  11.407  0.0289 -0.1298 -0.1953
 2810DOPC   C4A32976  30.474   3.596  11.799  0.1765 -0.0301  0.0843
 2810DOPC   C1B32977  30.018   3.638  10.538 -0.0949  0.2632  0.0898
 2810DOPC   D2B32978  30.111   3.554  10.949 -0.0782 -0.1268 -0.1937
 2810DOPC   C3B32979  29.864   3.353  11.225  0.0023  0.1651 -0.0149
 2810DOPC   C4B32980  29.829   3.277  11.712 -0.0166  0.0916  0.2355
 2811DOPE   NH332981  32.014   9.944  10.729 -0.0655  0.1996 -0.1060
 2811DOPE   PO432982  31.717   9.891  10.852  0.0094 -0.1669 -0.0793
 2811DOPE   GL132983  31.441   9.833  11.152  0.1771  0.2051  0.1118
 2811DOPE   GL232984  31.476   9.573  11.181  0.1378 -0.1921  0.4249
 2811DOPE   C1A32985  31.117   9.890  11.466 -0.0223 -0.0718 -0.0961
 2811DOPE   D2A32986  30.803   9.625  11.674  0.0845 -0.0957  0.0830
 2811DOPE   C3A32987  30.452   9.720  11.900 -0.3750  0.0565  0.0941
 2811DOPE   C4A32988  30.256  10.118  11.993 -0.0337  0.4621 -0.1084
 2811DOPE   C1B32989  31.256   9.284  11.466  0.0996  0.1007  0.0915
 2811DOPE   D2B32990  31.070   9.188  11.868  0.0970 -0.2860 -0.0227
 2811DOPE   C3B32991  31.002   8.965  12.269 -0.0808 -0.4648 -0.0459
 2811DOPE   C4B32992  30.917   8.667  12.645 -0.1478  0.3083  0.2298
 2812DOPC   NC332993  32.469   8.640  10.565  0.1006 -0.0161  0.0971
 2812DOPC   PO432994  32.816   8.594  10.607 -0.0596 -0.0330  0.0312
 2812DOPC   GL132995  32.715   8.636  11.018 -0.0233  0.0287  0.3237
 2812DOPC   GL232996  32.802   8.402  11.185  0.0072 -0.0999 -0.0205
 2812DOPC   C1A32997  32.350   8.569  11.315 -0.1780  0.0278 -0.1346
 2812DOPC   D2A32998  31.913   8.432  11.263 -0.1648 -0.0249 -0.1105
 2812DOPC   C3A32999  31.827   7.974  11.300  0.0464 -0.0724  0.3278
 2812DOPC   C4A33000  31.468   7.721  11.445 -0.2709  0.1510 -0.1905
 2812DOPC   C1B33001  32.545   8.151  11.433  0.2406  0.1753  0.1525
 2812DOPC   D2B33002  32.201   8.049  11.642  0.1014 -0.2193 -0.0197
 2812DOPC   C3B33003  31.869   7.823  11.941 -0.1173  0.0455 -0.0358
 2812DOPC   C4B33004  31.572   7.783  12.293 -0.1151  0.1604 -0.1983
 2813DOPC   NC333005   0.148   5.651  10.142 -0.0125  0.2264  0.0776
 2813DOPC   PO433006  -0.169   5.692  10.432 -0.2970 -0.0955 -0.3286
 2813DOPC   GL133007  -0.084   5.696  10.762  0.0558  0.0736  0.3039
 2813DOPC   GL233008  -0.268   5.872  10.903 -0.3058 -0.1439 -0.0507
 2813DOPC   C1A33009  -0.035   5.530  11.177  0.0616  0.0960  0.0651
 2813DOPC   D2A33010  -0.297   5.348  11.555  0.0350 -0.2674 -0.1628
 2813DOPC   C3A33011  -0.414   5.233  12.057 -0.4813  0.0191  0.2898
 2813DOPC   C4A33012  -0.567   5.320  12.462 -0.4157 -0.1302  0.1887
 2813DOPC   C1B33013  -0.386   5.841  11.341  0.1636  0.0384 -0.0277
 2813DOPC   D2B33014  -0.675   6.045  11.673 -0.1996  0.0530  0.1193
 2813DOPC   C3B33015  -0.783   6.482  11.673  0.2525  0.0349  0.0678
 2813DOPC   C4B33016  -1.108   6.700  11.386  0.1260  0.0439 -0.2762
 2814DOPS   CNO33017  32.224  13.178  11.546  0.1850  0.2501 -0.1145
 2814DOPS   PO433018  32.253  13.029  11.875  0.2144 -0.0657  0.3636
 2814DOPS   GL133019  32.153  13.238  12.166  0.2580 -0.0965 -0.1410
 2814DOPS   GL233020  32.323  13.530  12.055  0.1250  0.3934  0.0683
 2814DOPS   C1A33021  32.354  13.341  12.575 -0.0939  0.2737 -0.0869
 2814DOPS   D2A33022  32.526  13.262  13.007 -0.0519 -0.0408  0.1908
 2814DOPS   C3A33023  32.226  13.330  13.351  0.0368  0.0527 -0.0580
 2814DOPS   C4A33024  32.107  13.622  13.697  0.1188  0.0226  0.1743
 2814DOPS   C1B33025  32.416  13.842  12.376  0.0939  0.1984 -0.1498
 2814DOPS   D2B33026  32.673  14.089  12.604  0.4506  0.0539  0.0173
 2814DOPS   C3B33027  32.882  13.723  12.845  0.0826 -0.1027  0.0509
 2814DOPS   C4B33028  33.166  13.370  13.012  0.1598 -0.1643 -0.2230
 2815POSM   NC333029  31.013   6.094  10.579 -0.0692 -0.1925  0.3938
 2815POSM   PO433030  31.169   5.854  10.321 -0.1163  0.2675  0.1746
 2815POSM   AM133031  31.233   5.720  10.635  0.0238 -0.2460  0.0220
 2815POSM   AM233032  31.084   5.714  10.883  0.4395  0.1257 -0.0674
 2815POSM   T1A33033  31.566   5.777  10.977 -0.0380  0.3302 -0.0889
 2815POSM   C2A33034  31.580   6.052  11.401  0.0934  0.1537 -0.4488
 2815POSM   C3A33035  31.271   6.360  11.466 -0.0685 -0.0813  0.0670
 2815POSM   C1B33036  31.118   5.828  11.283  0.0197  0.0287 -0.0837
 2815POSM   D2B33037  31.079   5.995  11.748  0.2062 -0.0465  0.1196
 2815POSM   C3B33038  31.191   6.438  11.936  0.3826  0.5451 -0.2064
 2815POSM   C4B33039  31.119   6.866  12.076 -0.1767 -0.0401 -0.0644
 2816DOPS   CNO33040  32.038  10.466  10.694 -0.1433 -0.1133 -0.1675
 2816DOPS   PO433041  31.820  10.736  10.845 -0.0429  0.0851  0.1531
 2816DOPS   GL133042  31.794  10.667  11.256 -0.0924  0.0270  0.0200
 2816DOPS   GL233043  31.835  10.900  11.466  0.3873 -0.1627 -0.2592
 2816DOPS   C1A33044  31.698  10.245  11.497 -0.0322 -0.0406  0.0122
 2816DOPS   D2A33045  31.412  10.190  11.858 -0.0297 -0.1111  0.2204
 2816DOPS   C3A33046  31.171  10.437  12.128 -0.2842 -0.5943 -0.3174
 2816DOPS   C4A33047  30.926  10.769  12.262  0.3960 -0.1335  0.0340
 2816DOPS   C1B33048  32.204  10.559  11.591  0.1946  0.3072  0.2572
 2816DOPS   D2B33049  32.512  10.273  11.779 -0.0664 -0.2525  0.1520
 2816DOPS   C3B33050  32.304   9.985  12.104 -0.0360 -0.5595 -0.1061
 2816DOPS   C4B33051  32.174   9.666  12.452 -0.0858  0.0225 -0.0428
 2817POSM   NC333052  23.588   6.864   9.154 -0.0601 -0.2001 -0.0573
 2817POSM   PO433053  23.514   6.861   9.504 -0.0540  0.0735  0.3440
 2817POSM   AM133054  23.407   6.590   9.734  0.3338  0.0509 -0.1319
 2817POSM   AM233055  23.568   6.449   9.904 -0.1787  0.2287 -0.2235
 2817POSM   T1A33056  23.111   6.641  10.139  0.1736 -0.2856  0.0859
 2817POSM   C2A33057  22.830   6.761  10.487 -0.0008  0.1544 -0.0600
 2817POSM   C3A33058  22.754   6.644  10.933 -0.1100  0.0759 -0.1688
 2817POSM   C1B33059  23.724   6.553  10.202 -0.2831 -0.0317 -0.1161
 2817POSM   D2B33060  23.851   6.442  10.692  0.0737  0.0463 -0.2689
 2817POSM   C3B33061  24.128   6.314  11.046 -0.1410  0.2174  0.4511
 2817POSM   C4B33062  24.444   6.386  11.348 -0.0293 -0.0437 -0.3422
 2818DOPC   NC333063  28.839   9.926   9.780  0.0544 -0.2275 -0.0062
 2818DOPC   PO433064  28.673  10.127  10.072  0.2011  0.0601  0.1418
 2818DOPC   GL133065  28.848  10.294  10.459  0.0344  0.0157 -0.5309
 2818DOPC   GL233066  28.835  10.571  10.521  0.1332  0.1185  0.1676
 2818DOPC   C1A33067  28.664  10.240  10.880 -0.2170 -0.0237  0.2434
 2818DOPC   D2A33068  28.740  10.164  11.308  0.1137  0.3264 -0.0512
 2818DOPC   C3A33069  28.457   9.956  11.617  0.0402 -0.0438  0.4182
 2818DOPC   C4A33070  28.118   9.649  11.500  0.0333 -0.0171  0.2914
 2818DOPC   C1B33071  29.141  10.583  10.898 -0.1253  0.1281  0.1558
 2818DOPC   D2B33072  29.499  10.401  11.083 -0.1516 -0.2047 -0.0201
 2818DOPC   C3B33073  29.637  10.343  11.491 -0.1071  0.2252 -0.0421
 2818DOPC   C4B33074  29.660  10.552  11.905  0.0158  0.2591  0.1203
 2819DOPC   NC333075  30.503   5.275  10.036  0.2007  0.3048  0.1011
 2819DOPC   PO433076  30.901   5.180  10.068 -0.0918  0.1702  0.1797
 2819DOPC   GL133077  31.042   5.017  10.446 -0.1424  0.0844  0.2972
 2819DOPC   GL233078  31.275   4.936  10.565  0.4790  0.1168  0.1880
 2819DOPC   C1A33079  30.883   5.176  10.888  0.2425 -0.1540  0.0961
 2819DOPC   D2A33080  30.807   5.361  11.319  0.0477 -0.0314 -0.0477
 2819DOPC   C3A33081  31.115   5.488  11.621 -0.0142 -0.0743  0.1913
 2819DOPC   C4A33082  31.070   5.570  12.084  0.1207 -0.1448 -0.1854
 2819DOPC   C1B33083  31.275   4.821  10.992 -0.2672  0.2393  0.0544
 2819DOPC   D2B33084  31.481   4.569  11.274 -0.3209 -0.2047  0.0282
 2819DOPC   C3B33085  31.272   4.269  11.587 -0.0552  0.1045 -0.1178
 2819DOPC   C4B33086  31.473   4.105  11.992  0.0634 -0.4229 -0.1641
 2820DOPC   NC333087  24.499   3.489   8.960 -0.4480 -0.0308 -0.0988
 2820DOPC   PO433088  24.540   3.212   9.209  0.2126  0.0912 -0.0480
 2820DOPC   GL133089  24.498   3.270   9.599 -0.3139 -0.1549  0.0972
 2820DOPC   GL233090  24.793   3.196   9.624 -0.1225  0.1287 -0.0956
 2820DOPC   C1A33091  24.178   3.469   9.842 -0.2964  0.0023 -0.1240
 2820DOPC   D2A33092  23.801   3.682   9.981 -0.0761  0.0325 -0.2509
 2820DOPC   C3A33093  23.600   3.344  10.249 -0.3221 -0.1403  0.3866
 2820DOPC   C4A33094  23.917   3.056  10.447  0.0303  0.3220 -0.1581
 2820DOPC   C1B33095  24.751   3.271  10.063  0.2147 -0.0867  0.2877
 2820DOPC   D2B33096  24.761   3.533  10.417 -0.2085  0.2686  0.0945
 2820DOPC   C3B33097  24.514   3.736  10.691 -0.1519 -0.2017  0.0662
 2820DOPC   C4B33098  24.266   4.094  10.936 -0.0812  0.0498 -0.1339
 2821POSM   NC333099  29.257  10.465  10.263 -0.3356 -0.1156  0.0829
 2821POSM   PO433100  29.178  10.159  10.018 -0.2727  0.1282 -0.1626
 2821POSM   AM133101  29.131   9.915  10.244  0.2136  0.1282  0.2690
 2821POSM   AM233102  28.915   9.750  10.358  0.0701 -0.2909  0.1620
 2821POSM   T1A33103  29.394   9.708  10.617  0.3552  0.0805 -0.0357
 2821POSM   C2A33104  29.589   9.680  11.031  0.0560  0.0751  0.3895
 2821POSM   C3A33105  29.568   9.572  11.497 -0.2770  0.0594  0.2541
 2821POSM   C1B33106  28.942   9.529  10.625 -0.1302 -0.1256  0.1027
 2821POSM   D2B33107  29.029   9.514  11.087  0.2457  0.0491 -0.0838
 2821POSM   C3B33108  28.811   9.184  11.328 -0.1689 -0.1684  0.2167
 2821POSM   C4B33109  28.798   8.753  11.535  0.1890 -0.1955 -0.4840
 2822POSM   NC333110  22.855   3.047   9.415 -0.0935 -0.1988  0.2687
 2822POSM   PO433111  22.940   2.709   9.387 -0.1169  0.2508  0.0769
 2822POSM   AM133112  22.981   2.710   9.727  0.1757 -0.0455 -0.0902
 2822POSM   AM233113  22.849   2.907   9.910 -0.0936 -0.0257  0.1618
 2822POSM   T1A33114  23.098   2.592  10.183  0.1367 -0.1301  0.2096
 2822POSM   C2A33115  23.045   2.593  10.656 -0.2822 -0.0191  0.2532
 2822POSM   C3A33116  22.732   2.718  11.002 -0.1597 -0.3543  0.1281
 2822POSM   C1B33117  22.884   3.020  10.248 -0.0642  0.0783 -0.0609
 2822POSM   D2B33118  23.008   3.123  10.731  0.1935 -0.2077  0.0687
 2822POSM   C3B33119  23.335   2.969  11.020  0.0951  0.0778 -0.0420
 2822POSM   C4B33120  23.747   2.798  10.961  0.2312  0.1172  0.0856
 2823DOPE   NH333121  30.122   6.379  10.175  0.1529  0.5859 -0.0007
 2823DOPE   PO433122  30.028   6.152   9.976  0.1970  0.1604  0.0825
 2823DOPE   GL133123  29.964   5.883  10.316 -0.2973  0.1218  0.0772
 2823DOPE   GL233124  29.816   6.092  10.489 -0.3627 -0.1288 -0.3788
 2823DOPE   C1A33125  29.994   5.733  10.727  0.2455  0.0425 -0.0116
 2823DOPE   D2A33126  30.051   5.860  11.178  0.3226 -0.0633  0.0485
 2823DOPE   C3A33127  29.772   5.961  11.546 -0.3029 -0.3570 -0.2518
 2823DOPE   C4A33128  29.380   6.136  11.763 -0.0382  0.0021 -0.1538
 2823DOPE   C1B33129  29.778   6.177  10.947 -0.0867  0.3457  0.0495
 2823DOPE   D2B33130  29.576   6.445  11.329  0.0630 -0.6473 -0.0282
 2823DOPE   C3B33131  29.185   6.666  11.191 -0.2195 -0.1026 -0.2344
 2823DOPE   C4B33132  28.781   6.843  11.102  0.0237 -0.0255  0.1274
 2824DOPS   CNO33133  34.265   2.982  10.353  0.2487  0.1644  0.0009
 2824DOPS   PO433134  34.038   3.239  10.497  0.0142 -0.1353 -0.0547
 2824DOPS   GL133135  34.075   3.039  10.860 -0.1305 -0.1691  0.2667
 2824DOPS   GL233136  34.147   2.727  10.802 -0.0856  0.2734 -0.4214
 2824DOPS   C1A33137  34.022   3.005  11.316 -0.0226  0.0734  0.2038
 2824DOPS   D2A33138  34.192   3.156  11.738  0.0537  0.1829 -0.1527
 2824DOPS   C3A33139  33.777   3.169  11.922  0.1283 -0.2327 -0.1889
 2824DOPS   C4A33140  33.530   3.311  12.230 -0.1199 -0.1463 -0.0466
 2824DOPS   C1B33141  34.077   2.405  11.162 -0.5116 -0.0663  0.1352
 2824DOPS   D2B33142  34.151   2.201  11.559 -0.2260  0.0306 -0.0060
 2824DOPS   C3B33143  34.143   1.762  11.746  0.0872  0.4310  0.1889
 2824DOPS   C4B33144  33.933   1.416  12.001 -0.0047  0.0948  0.0080
 2825DOPE   NH333145   1.988  10.846  11.166 -0.1138  0.0737 -0.1226
 2825DOPE   PO433146   1.699  10.813  11.301  0.2483 -0.0061 -0.2046
 2825DOPE   GL133147   1.883  10.801  11.764  0.1290  0.1219 -0.1891
 2825DOPE   GL233148   1.697  10.847  11.990 -0.0459  0.3555 -0.1706
 2825DOPE   C1A33149   2.085  10.526  12.069 -0.0616  0.0242  0.1298
 2825DOPE   D2A33150   1.917  10.188  12.347 -0.0658  0.0515 -0.0270
 2825DOPE   C3A33151   2.113   9.761  12.413 -0.0124  0.2145  0.1966
 2825DOPE   C4A33152   2.414   9.560  12.614  0.3193 -0.1204  0.1802
 2825DOPE   C1B33153   1.711  10.780  12.432  0.2272 -0.0201  0.0560
 2825DOPE   D2B33154   1.444  10.777  12.813 -0.3858  0.0765 -0.0557
 2825DOPE   C3B33155   1.672  10.865  13.193  0.0002 -0.2513 -0.2926
 2825DOPE   C4B33156   1.785  10.659  13.599 -0.0697 -0.2927 -0.0025
 2826DOPC   NC333157  24.191   6.215   9.215  0.0369 -0.1667 -0.1644
 2826DOPC   PO433158  23.912   5.943   9.348 -0.4519  0.2787  0.1184
 2826DOPC   GL133159  23.985   5.988   9.751 -0.0011 -0.0898 -0.1333
 2826DOPC   GL233160  23.987   6.216   9.946 -0.1040 -0.0984 -0.0627
 2826DOPC   C1A33161  24.255   5.768  10.072 -0.1481 -0.0778 -0.0760
 2826DOPC   D2A33162  24.694   5.775  10.367 -0.2388 -0.0294  0.1688
 2826DOPC   C3A33163  24.892   5.912  10.787  0.0266  0.0293 -0.0888
 2826DOPC   C4A33164  25.300   6.046  11.058 -0.2209  0.0194 -0.1174
 2826DOPC   C1B33165  23.629   6.082  10.274 -0.2446 -0.3019 -0.0697
 2826DOPC   D2B33166  23.369   6.414  10.517 -0.0481  0.1368  0.2732
 2826DOPC   C3B33167  23.269   6.627  10.885 -0.2284  0.0694 -0.3230
 2826DOPC   C4B33168  23.309   7.007  11.138 -0.2052 -0.1642  0.1295
 2827DOPC   NC333169  25.751   2.546   9.615 -0.0203  0.0540  0.4011
 2827DOPC   PO433170  25.718   2.578   9.237 -0.1112 -0.2353 -0.0563
 2827DOPC   GL133171  26.119   2.529   9.349 -0.0542 -0.0703  0.1344
 2827DOPC   GL233172  26.163   2.237   9.487 -0.1546 -0.1603  0.2817
 2827DOPC   C1A33173  26.246   2.681   9.743 -0.0097  0.0567  0.0160
 2827DOPC   D2A33174  26.464   2.823  10.124  0.1144  0.0130  0.2055
 2827DOPC   C3A33175  26.027   2.941  10.237 -0.0111  0.2074  0.0610
 2827DOPC   C4A33176  25.590   2.731  10.118  0.0958  0.0273 -0.4102
 2827DOPC   C1B33177  26.087   2.204   9.930  0.4831 -0.0690 -0.1737
 2827DOPC   D2B33178  26.106   2.422  10.315 -0.2740 -0.4119 -0.4538
 2827DOPC   C3B33179  26.080   2.124  10.679 -0.0466 -0.0114 -0.0068
 2827DOPC   C4B33180  25.930   2.242  11.101  0.0864  0.1803 -0.1560
 2828POSM   NC333181  33.685   4.941   9.826 -0.0092 -0.0598  0.0257
 2828POSM   PO433182  33.343   4.918  10.048 -0.2232 -0.0897 -0.1267
 2828POSM   AM133183  33.559   4.982  10.318 -0.3726  0.1369  0.2215
 2828POSM   AM233184  33.468   5.065  10.615  0.1471  0.0341 -0.0057
 2828POSM   T1A33185  33.859   4.689  10.569  0.0120  0.0259 -0.3241
 2828POSM   C2A33186  33.944   4.643  10.955  0.0772 -0.1376  0.0198
 2828POSM   C3A33187  33.691   4.734  11.369 -0.1374  0.0944 -0.1596
 2828POSM   C1B33188  33.457   4.923  10.883 -0.1073  0.1602  0.1683
 2828POSM   D2B33189  33.230   4.647  11.150 -0.0161 -0.0416 -0.0023
 2828POSM   C3B33190  33.296   4.603  11.629 -0.0142 -0.0839 -0.1091
 2828POSM   C4B33191  33.037   4.321  11.893  0.2239  0.0898  0.1183
 2829POSM   NC333192  24.970  13.001   9.657  0.1672  0.1566 -0.0588
 2829POSM   PO433193  24.872  12.667   9.887  0.2516  0.3222 -0.0574
 2829POSM   AM133194  24.798  12.596  10.182 -0.0462  0.2189 -0.3217
 2829POSM   AM233195  24.922  12.528  10.421  0.1801  0.3034 -0.2130
 2829POSM   T1A33196  24.466  12.574  10.563 -0.0407 -0.1579  0.0059
 2829POSM   C2A33197  24.429  12.392  11.001  0.2942  0.4409  0.0235
 2829POSM   C3A33198  24.336  12.337  11.412 -0.1417  0.0922 -0.1913
 2829POSM   C1B33199  24.881  12.456  10.735  0.0869  0.0227 -0.2069
 2829POSM   D2B33200  24.844  12.610  11.174  0.1740 -0.0224  0.1293
 2829POSM   C3B33201  24.950  12.325  11.503  0.3192  0.2902  0.1081
 2829POSM   C4B33202  25.059  12.149  11.880  0.1400 -0.3567  0.0419
 2830DOPS   CNO33203  30.286   1.038   8.972 -0.1606 -0.1107  0.2912
 2830DOPS   PO433204  30.485   1.069   9.312  0.2953 -0.0609  0.1081
 2830DOPS   GL133205  30.471   0.976   9.686  0.1141  0.1212  0.3930
 2830DOPS   GL233206  30.709   1.076   9.864 -0.3342 -0.3478 -0.2584
 2830DOPS   C1A33207  30.182   1.240  10.007 -0.0376  0.0060  0.0922
 2830DOPS   D2A33208  29.928   1.209  10.442  0.0024  0.0284 -0.0595
 2830DOPS   C3A33209  30.200   1.155  10.750 -0.1140  0.0674  0.0233
 2830DOPS   C4A33210  30.368   1.559  10.931  0.0043 -0.1105  0.0599
 2830DOPS   C1B33211  30.845   0.693  10.140 -0.1757  0.1288  0.1653
 2830DOPS   D2B33212  30.984   0.678  10.565 -0.0915 -0.1198  0.0733
 2830DOPS   C3B33213  30.753   0.342  10.876  0.1019  0.1506  0.2809
 2830DOPS   C4B33214  30.407   0.135  11.096  0.0072  0.0259 -0.0891
 2831POSM   NC333215  24.939   0.346   9.572  0.0843  0.4958  0.0513
 2831POSM   PO433216  25.248   0.154   9.378  0.0280 -0.0556  0.0477
 2831POSM   AM133217  25.327   0.152   9.701 -0.3274  0.1505  0.4800
 2831POSM   AM233218  25.179   0.094   9.883  0.1184  0.1160  0.0400
 2831POSM   T1A33219  25.652   0.319  10.011  0.0292 -0.1155  0.3380
 2831POSM   C2A33220  26.138   0.399   9.918  0.0327  0.0011  0.1359
 2831POSM   C3A33221  26.534   0.639   9.755  0.1568 -0.1464 -0.0548
 2831POSM   C1B33222  25.216   0.206  10.200  0.0050  0.1070  0.0500
 2831POSM   D2B33223  25.155   0.192  10.644 -0.4446  0.2451 -0.1335
 2831POSM   C3B33224  24.936  -0.172  10.840 -0.2134  0.0490 -0.1652
 2831POSM   C4B33225  25.048  -0.483  11.115 -0.2134  0.1606 -0.3272
 2832DOPE   NH333226  29.122  12.465  10.407  0.0995 -0.1098  0.2596
 2832DOPE   PO433227  29.401  12.304  10.351  0.0535 -0.0054 -0.3261
 2832DOPE   GL133228  29.305  12.055  10.666  0.0986 -0.0028  0.0071
 2832DOPE   GL233229  29.283  12.237  10.880  0.0148  0.0415 -0.2887
 2832DOPE   C1A33230  29.317  11.595  10.756 -0.0989 -0.1742 -0.0242
 2832DOPE   D2A33231  29.412  11.161  10.715 -0.1771  0.0287  0.0784
 2832DOPE   C3A33232  29.603  11.117  11.132 -0.3370 -0.4043 -0.0241
 2832DOPE   C4A33233  29.581  10.857  11.516 -0.0950  0.0459 -0.0221
 2832DOPE   C1B33234  29.495  12.082  11.220  0.2428  0.1673  0.0857
 2832DOPE   D2B33235  29.850  12.051  11.492 -0.1352  0.2714  0.0816
 2832DOPE   C3B33236  30.007  12.430  11.288  0.0561 -0.0761  0.0915
 2832DOPE   C4B33237  30.248  12.841  11.201 -0.5749 -0.0807 -0.2100
 2833DOPE   NH333238  22.771   0.769   9.174 -0.0083 -0.0885  0.0071
 2833DOPE   PO433239  23.010   0.707   9.433  0.0071 -0.2185 -0.0764
 2833DOPE   GL133240  22.904   0.561   9.814 -0.0511  0.3158  0.1684
 2833DOPE   GL233241  22.957   0.788   9.907 -0.2465 -0.2803  0.0416
 2833DOPE   C1A33242  23.114   0.323  10.144 -0.1904  0.0574 -0.0371
 2833DOPE   D2A33243  23.165   0.019  10.517 -0.2112 -0.1582  0.1053
 2833DOPE   C3A33244  23.183  -0.281  10.887 -0.0202 -0.3310 -0.1421
 2833DOPE   C4A33245  22.941  -0.421  11.214 -0.0135  0.3691  0.2420
 2833DOPE   C1B33246  22.650   1.096  10.066 -0.0149 -0.0550 -0.0386
 2833DOPE   D2B33247  22.444   1.259  10.439 -0.3916 -0.0845 -0.1264
 2833DOPE   C3B33248  22.250   1.623  10.610  0.0151 -0.0190  0.0433
 2833DOPE   C4B33249  22.107   2.030  10.712  0.3638 -0.1355  0.1164
 2834DOPE   NH333250  23.265   1.620   9.413  0.3447 -0.1984  0.0196
 2834DOPE   PO433251  23.077   1.761   9.599 -0.3079 -0.1051 -0.0845
 2834DOPE   GL133252  23.109   1.712   9.998 -0.1360 -0.2807 -0.1853
 2834DOPE   GL233253  22.824   1.696  10.041  0.1850 -0.0492 -0.0390
 2834DOPE   C1A33254  23.149   1.279  10.215  0.0587  0.0647  0.0352
 2834DOPE   D2A33255  22.964   0.994  10.490  0.2587  0.0704  0.0102
 2834DOPE   C3A33256  22.811   1.130  10.923  0.1618  0.3885 -0.2284
 2834DOPE   C4A33257  22.532   1.303  11.233  0.0848  0.0162 -0.3849
 2834DOPE   C1B33258  22.879   1.694  10.460  0.0700  0.0933 -0.2781
 2834DOPE   D2B33259  22.640   1.888  10.788 -0.2018  0.1291 -0.0562
 2834DOPE   C3B33260  22.646   1.933  11.248  0.1883 -0.1817  0.2410
 2834DOPE   C4B33261  22.512   1.620  11.630 -0.0197 -0.0539 -0.1297
 2835DOPS   CNO33262  25.026   1.056   8.854  0.0080 -0.1815  0.0087
 2835DOPS   PO433263  24.818   1.006   9.171  0.1782 -0.0109 -0.0831
 2835DOPS   GL133264  24.871   0.781   9.490  0.1659 -0.0527 -0.2797
 2835DOPS   GL233265  25.072   0.976   9.658 -0.1160  0.1043 -0.3065
 2835DOPS   C1A33266  24.767   0.726   9.942 -0.2919 -0.0130  0.0469
 2835DOPS   D2A33267  24.702   0.534  10.320 -0.2691 -0.1730 -0.0945
 2835DOPS   C3A33268  24.829   0.727  10.739  0.2472 -0.0379 -0.0826
 2835DOPS   C4A33269  25.147   0.539  11.077 -0.0427  0.1007 -0.0793
 2835DOPS   C1B33270  25.270   0.631   9.979  0.2119  0.0840  0.1169
 2835DOPS   D2B33271  25.382   0.651  10.426  0.1999 -0.2751 -0.1673
 2835DOPS   C3B33272  25.329   0.951  10.754 -0.5123 -0.1623 -0.1065
 2835DOPS   C4B33273  25.525   1.249  11.018 -0.2683  0.0036  0.1037
 2836POSM   NC333274  28.631   3.769  10.540  0.1108  0.1019 -0.2721
 2836POSM   PO433275  28.564   3.521  10.203  0.0303 -0.1306 -0.0575
 2836POSM   AM133276  28.476   3.246  10.403  0.2256  0.2554  0.0641
 2836POSM   AM233277  28.695   3.095  10.592  0.5050  0.0717 -0.1203
 2836POSM   T1A33278  28.300   2.918  10.763 -0.0558 -0.2408  0.0964
 2836POSM   C2A33279  27.972   2.767  11.043 -0.1363  0.0262  0.2747
 2836POSM   C3A33280  27.765   2.422  11.298 -0.0898 -0.2897 -0.1552
 2836POSM   C1B33281  28.799   2.934  10.865 -0.0785  0.4335 -0.2020
 2836POSM   D2B33282  28.962   2.978  11.276  0.1163  0.1515 -0.0848
 2836POSM   C3B33283  28.793   2.598  11.547  0.3271  0.1618 -0.0695
 2836POSM   C4B33284  28.742   2.338  11.910  0.3021  0.1713 -0.3606
 2837POSM   NC333285  32.031   8.545   9.601 -0.1010 -0.1095  0.1291
 2837POSM   PO433286  31.648   8.673   9.634  0.0270 -0.3577 -0.0726
 2837POSM   AM133287  31.677   8.555   9.939  0.0367 -0.0050  0.0956
 2837POSM   AM233288  31.533   8.574  10.173 -0.1813 -0.0561 -0.0289
 2837POSM   T1A33289  31.912   8.352  10.364 -0.0998  0.0462 -0.1450
 2837POSM   C2A33290  31.872   8.058  10.739 -0.1890  0.0447 -0.1245
 2837POSM   C3A33291  31.587   7.775  10.933  0.1071  0.3706  0.2279
 2837POSM   C1B33292  31.524   8.590  10.534 -0.2973 -0.0235  0.0302
 2837POSM   D2B33293  31.526   8.343  10.916  0.0680  0.0203 -0.1235
 2837POSM   C3B33294  31.442   8.280  11.418 -0.0721  0.0530  0.2090
 2837POSM   C4B33295  31.407   8.145  11.822 -0.1790 -0.0573 -0.1785
 2838DOPE   NH333296  30.761   2.291   9.475 -0.2480  0.1595  0.0785
 2838DOPE   PO433297  30.941   2.093   9.723  0.2458 -0.0214 -0.1250
 2838DOPE   GL133298  30.754   1.813   9.844 -0.3262 -0.1376  0.2181
 2838DOPE   GL233299  30.564   1.607   9.922 -0.0657  0.2032  0.0477
 2838DOPE   C1A33300  30.953   1.584  10.202 -0.1404  0.0373 -0.0969
 2838DOPE   D2A33301  31.149   1.130  10.306  0.0280  0.0447 -0.3944
 2838DOPE   C3A33302  31.294   1.119  10.740 -0.0605  0.0709 -0.0559
 2838DOPE   C4A33303  31.233   1.059  11.242 -0.3006  0.0582  0.1102
 2838DOPE   C1B33304  30.426   1.687  10.357 -0.1582 -0.3130 -0.2570
 2838DOPE   D2B33305  30.399   2.081  10.493  0.1495 -0.1863  0.0958
 2838DOPE   C3B33306  30.195   2.049  10.915  0.4129  0.1450 -0.1263
 2838DOPE   C4B33307  29.948   1.877  11.267 -0.1529 -0.1007  0.3563
 2839DOPS   CNO33308  23.793  13.590   9.560 -0.1513 -0.0260 -0.1360
 2839DOPS   PO433309  23.914  13.686   9.907 -0.3328 -0.0931 -0.2378
 2839DOPS   GL133310  23.710  13.568  10.297  0.0302  0.0484  0.2475
 2839DOPS   GL233311  23.675  13.280  10.164  0.0695 -0.1467 -0.3261
 2839DOPS   C1A33312  23.790  13.414  10.737 -0.1673 -0.1493 -0.3229
 2839DOPS   D2A33313  23.804  13.719  11.093 -0.0184  0.0783  0.0871
 2839DOPS   C3A33314  24.077  13.645  11.458 -0.2311 -0.4211 -0.0967
 2839DOPS   C4A33315  24.140  13.726  11.874  0.0330  0.0314  0.0121
 2839DOPS   C1B33316  23.749  12.971  10.447 -0.0789 -0.0568  0.0719
 2839DOPS   D2B33317  23.804  12.917  10.939 -0.0086  0.1498 -0.0926
 2839DOPS   C3B33318  23.579  12.781  11.363  0.0688  0.2641  0.1758
 2839DOPS   C4B33319  23.680  12.710  11.818  0.0886  0.0612  0.0688
 2840DOPE   NH333320  29.912   8.821   9.755 -0.1173  0.3087  0.2138
 2840DOPE   PO433321  29.863   9.020   9.934 -0.0025 -0.0473 -0.0956
 2840DOPE   GL133322  29.914   9.073  10.329  0.2621 -0.0574 -0.1179
 2840DOPE   GL233323  29.738   8.953  10.499 -0.0641  0.1288  0.0435
 2840DOPE   C1A33324  30.218   8.911  10.690 -0.1159 -0.1990  0.3224
 2840DOPE   D2A33325  30.573   8.746  11.008 -0.3292 -0.0147 -0.2295
 2840DOPE   C3A33326  30.468   8.462  11.363 -0.1527  0.2859 -0.1900
 2840DOPE   C4A33327  30.496   8.360  11.805 -0.1766  0.1893 -0.2183
 2840DOPE   C1B33328  29.602   8.765  10.874  0.2144  0.2265  0.3895
 2840DOPE   D2B33329  29.474   8.383  11.129  0.1482 -0.2243  0.2413
 2840DOPE   C3B33330  29.068   8.234  11.207  0.0576 -0.0608 -0.1912
 2840DOPE   C4B33331  28.753   8.280  11.608  0.2644 -0.1320  0.2809
 2841POSM   NC333332  20.986   3.910   8.912 -0.2119 -0.0402 -0.0463
 2841POSM   PO433333  20.831   3.707   9.238  0.1935  0.0750  0.0188
 2841POSM   AM133334  20.779   3.782   9.560  0.2395  0.0435  0.1992
 2841POSM   AM233335  21.018   3.817   9.727 -0.0138  0.1893  0.1125
 2841POSM   T1A33336  20.580   4.124   9.941  0.3273 -0.0749  0.1674
 2841POSM   C2A33337  20.205   4.323  10.022  0.0990  0.0940 -0.0356
 2841POSM   C3A33338  19.921   4.275  10.297 -0.1398 -0.3220  0.1576
 2841POSM   C1B33339  21.098   3.801  10.054 -0.0740  0.0898 -0.0417
 2841POSM   D2B33340  21.205   3.957  10.489 -0.2896 -0.0371 -0.3165
 2841POSM   C3B33341  21.417   4.153  10.869  0.1108 -0.0266  0.4019
 2841POSM   C4B33342  21.758   4.140  11.124 -0.1459  0.1253  0.0195
 2842POSM   NC333343  24.535  11.805   9.497 -0.2768  0.3983  0.3636
 2842POSM   PO433344  24.692  11.764   9.893 -0.1118 -0.2466  0.1643
 2842POSM   AM133345  24.788  11.739  10.218  0.0666  0.1953  0.0503
 2842POSM   AM233346  24.942  11.954  10.392  0.3853  0.1075 -0.0605
 2842POSM   T1A33347  24.568  11.480  10.599 -0.1780 -0.1016  0.0747
 2842POSM   C2A33348  24.489  11.496  11.020 -0.0803  0.1116  0.2381
 2842POSM   C3A33349  24.541  11.615  11.540 -0.0879 -0.1868 -0.3081
 2842POSM   C1B33350  25.168  11.824  10.604  0.0212  0.1044  0.1911
 2842POSM   D2B33351  25.456  11.595  10.879  0.0680 -0.0956  0.0215
 2842POSM   C3B33352  25.457  11.682  11.320  0.0519  0.0272  0.0075
 2842POSM   C4B33353  25.475  11.786  11.770 -0.2239 -0.2751 -0.0507
 2843DOPC   NC333354  31.425  11.073  10.971  0.0956  0.0513  0.2801
 2843DOPC   PO433355  31.223  11.180  10.675  0.0041 -0.1889  0.0699
 2843DOPC   GL133356  30.846  10.920  10.872 -0.0041  0.3609  0.2544
 2843DOPC   GL233357  30.776  11.140  11.021 -0.2644 -0.0079  0.2922
 2843DOPC   C1A33358  30.815  10.709  11.260 -0.1749  0.1306  0.0166
 2843DOPC   D2A33359  30.647  10.697  11.686  0.1620  0.1731 -0.3325
 2843DOPC   C3A33360  30.688  10.347  11.984 -0.3579  0.1263  0.0996
 2843DOPC   C4A33361  30.902   9.992  11.927  0.2935 -0.0344  0.0028
 2843DOPC   C1B33362  30.686  11.147  11.458  0.1490 -0.0777 -0.0622
 2843DOPC   D2B33363  30.756  11.130  11.900 -0.1481  0.0251 -0.1440
 2843DOPC   C3B33364  31.164  10.939  11.808 -0.1319 -0.2729  0.1701
 2843DOPC   C4B33365  31.574  10.648  11.808  0.2657  0.0399  0.0873
 2844POSM   NC333366  23.637   8.405  10.017 -0.1544 -0.0475 -0.1237
 2844POSM   PO433367  23.484   8.076  10.155 -0.0984 -0.0338  0.0518
 2844POSM   AM133368  23.442   8.119  10.498  0.1523 -0.0213  0.0073
 2844POSM   AM233369  23.558   8.135  10.742 -0.0807 -0.0283 -0.2904
 2844POSM   T1A33370  23.033   8.138  10.805  0.2088  0.1767 -0.0277
 2844POSM   C2A33371  22.829   7.855  11.162  0.1890 -0.3371  0.0951
 2844POSM   C3A33372  22.430   7.528  11.239 -0.3819  0.0492 -0.0196
 2844POSM   C1B33373  23.818   8.268  10.902 -0.3809  0.0967 -0.0467
 2844POSM   D2B33374  24.100   8.400  11.267  0.1176  0.3334  0.2074
 2844POSM   C3B33375  24.153   8.023  11.542  0.3932 -0.1324 -0.0959
 2844POSM   C4B33376  24.199   7.570  11.702  0.2604 -0.0082  0.1210
 2845DOPE   NH333377  27.355   5.195   9.649 -0.0606  0.2248 -0.1949
 2845DOPE   PO433378  27.401   5.410   9.901  0.1563 -0.0658  0.2621
 2845DOPE   GL133379  27.258   5.230  10.221 -0.0479  0.0067 -0.0648
 2845DOPE   GL233380  27.478   5.272  10.376  0.1415 -0.1469 -0.4885
 2845DOPE   C1A33381  27.095   5.619  10.433  0.0834 -0.1271  0.1670
 2845DOPE   D2A33382  26.963   5.719  10.871 -0.0067 -0.0034 -0.2673
 2845DOPE   C3A33383  26.694   5.839  11.219 -0.0011  0.0334  0.4413
 2845DOPE   C4A33384  26.374   5.789  11.551 -0.1045 -0.5815  0.1347
 2845DOPE   C1B33385  27.363   5.321  10.865 -0.0127 -0.1545 -0.0730
 2845DOPE   D2B33386  27.223   5.264  11.305  0.0333 -0.2624 -0.0589
 2845DOPE   C3B33387  27.527   5.464  11.606  0.0995  0.3990  0.0112
 2845DOPE   C4B33388  27.810   5.380  11.984  0.2162  0.0466  0.1600
 2846DOPS   CNO33389  26.320   7.692   9.511  0.2636  0.0320  0.5879
 2846DOPS   PO433390  26.450   7.293   9.507  0.0049  0.1790  0.2784
 2846DOPS   GL133391  26.469   7.175   9.890 -0.2185  0.4774  0.1672
 2846DOPS   GL233392  26.631   6.928   9.950 -0.1663 -0.2429 -0.2005
 2846DOPS   C1A33393  26.335   7.302  10.290  0.1177 -0.0818 -0.0017
 2846DOPS   D2A33394  25.908   7.273  10.464  0.2540 -0.1642  0.0789
 2846DOPS   C3A33395  25.862   7.116  10.954  0.1131  0.2176  0.1538
 2846DOPS   C4A33396  25.701   6.801  11.264 -0.2302  0.1043 -0.0897
 2846DOPS   C1B33397  26.298   6.648  10.107  0.1416 -0.1532 -0.1733
 2846DOPS   D2B33398  26.343   6.392  10.531  0.0853 -0.0232  0.1122
 2846DOPS   C3B33399  26.001   6.086  10.569 -0.0421  0.1851 -0.1654
 2846DOPS   C4B33400  25.588   5.815  10.719 -0.0002 -0.0016 -0.2026
 2847DOPC   NC333401  28.449   9.143   9.492 -0.0566  0.1346  0.0296
 2847DOPC   PO433402  28.241   9.308   9.815  0.0482  0.0008 -0.1153
 2847DOPC   GL133403  28.123   9.382  10.178  0.0149 -0.1333  0.0348
 2847DOPC   GL233404  27.826   9.328  10.199  0.2506 -0.3211  0.0191
 2847DOPC   C1A33405  28.381   9.553  10.501  0.1420 -0.2453 -0.0409
 2847DOPC   D2A33406  28.484   9.737  10.868  0.2343  0.0978  0.0961
 2847DOPC   C3A33407  28.562   9.595  11.253  0.1851 -0.0651  0.0091
 2847DOPC   C4A33408  28.924   9.705  11.567  0.1984  0.0060  0.1984
 2847DOPC   C1B33409  27.785   9.122  10.660  0.3079 -0.1000 -0.0878
 2847DOPC   D2B33410  27.813   8.674  10.789 -0.1712  0.1672  0.2381
 2847DOPC   C3B33411  27.582   8.366  11.111 -0.2650 -0.1043 -0.0958
 2847DOPC   C4B33412  27.752   8.436  11.546  0.0935  0.2019  0.2109
 2848DOPC   NC333413  33.384   7.692  10.781 -0.0127  0.1582 -0.0316
 2848DOPC   PO433414  33.661   7.954  10.914  0.1374 -0.1417  0.2390
 2848DOPC   GL133415  33.728   7.751  11.360 -0.1898  0.2471 -0.1280
 2848DOPC   GL233416  33.546   7.612  11.271 -0.2712  0.0026  0.0574
 2848DOPC   C1A33417  33.825   7.540  11.725 -0.2208  0.0103 -0.1927
 2848DOPC   D2A33418  34.055   7.509  12.186  0.0472 -0.1116  0.0434
 2848DOPC   C3A33419  33.816   7.635  12.534  0.2286 -0.1054 -0.0875
 2848DOPC   C4A33420  33.471   7.359  12.742 -0.0849  0.0512 -0.1494
 2848DOPC   C1B33421  33.403   7.841  11.693  0.1653 -0.2165 -0.2241
 2848DOPC   D2B33422  33.253   8.187  11.972  0.1997 -0.0912 -0.0857
 2848DOPC   C3B33423  33.330   8.545  12.211  0.1943  0.0535 -0.0519
 2848DOPC   C4B33424  33.534   8.628  12.661 -0.1480 -0.1913  0.1672
 2849DOPC   NC333425  23.551   6.042   9.656  0.2171 -0.0346  0.0736
 2849DOPC   PO433426  23.199   6.117   9.674  0.2014  0.0837  0.1912
 2849DOPC   GL133427  23.291   5.849  10.021 -0.0839  0.0645  0.1228
 2849DOPC   GL233428  23.164   6.091  10.151  0.2552  0.0593  0.2021
 2849DOPC   C1A33429  23.432   5.539  10.312  0.0090  0.0960  0.1620
 2849DOPC   D2A33430  23.623   5.276  10.651 -0.4552  0.1893  0.0087
 2849DOPC   C3A33431  23.721   4.789  10.526  0.2931 -0.0639 -0.0240
 2849DOPC   C4A33432  24.016   4.494  10.702 -0.0718  0.0354 -0.0771
 2849DOPC   C1B33433  23.263   5.968  10.615  0.0452  0.2652 -0.0000
 2849DOPC   D2B33434  23.408   5.633  10.943  0.1804 -0.0111  0.2811
 2849DOPC   C3B33435  23.525   5.793  11.328  0.2652  0.0107  0.0392
 2849DOPC   C4B33436  23.892   6.122  11.454  0.0186 -0.0482 -0.3441
 2850DOPS   CNO33437  29.660  10.285   9.886 -0.0751 -0.0733 -0.0099
 2850DOPS   PO433438  29.759  10.586  10.009 -0.1644  0.3559 -0.2388
 2850DOPS   GL133439  29.732  10.368  10.351  0.1979  0.2999  0.5416
 2850DOPS   GL233440  29.883  10.150  10.359  0.0250  0.1068  0.0751
 2850DOPS   C1A33441  29.452  10.192  10.618  0.2573  0.3028  0.0353
 2850DOPS   D2A33442  29.073  10.036  10.867  0.1566  0.1433 -0.0689
 2850DOPS   C3A33443  29.277   9.980  11.279  0.0634 -0.0292 -0.1451
 2850DOPS   C4A33444  29.271  10.002  11.697 -0.1585  0.0957 -0.0975
 2850DOPS   C1B33445  29.889  10.059  10.797  0.0446  0.2335  0.0538
 2850DOPS   D2B33446  30.203   9.802  10.982 -0.3995 -0.0253  0.2071
 2850DOPS   C3B33447  30.577   9.824  11.265 -0.2286 -0.2406  0.0814
 2850DOPS   C4B33448  30.609  10.154  11.559 -0.1179  0.3320  0.1311
 2851POSM   NC333449  24.062   0.111   9.222 -0.0404 -0.0464  0.4317
 2851POSM   PO433450  24.362  -0.154   9.177  0.1368  0.1279 -0.0102
 2851POSM   AM133451  24.405  -0.165   9.520  0.2665  0.0932  0.2710
 2851POSM   AM233452  24.218  -0.065   9.695  0.0355  0.0244  0.3059
 2851POSM   T1A33453  24.723  -0.116   9.925  0.2461  0.1985 -0.0260
 2851POSM   C2A33454  24.785  -0.003  10.394  0.0941  0.1478 -0.1706
 2851POSM   C3A33455  24.605   0.235  10.710 -0.0707  0.0387 -0.1032
 2851POSM   C1B33456  24.241   0.059  10.012 -0.1069 -0.1822 -0.0627
 2851POSM   D2B33457  24.134   0.171  10.443  0.0435 -0.1857 -0.0474
 2851POSM   C3B33458  24.164   0.393  10.827  0.0402  0.1890  0.0669
 2851POSM   C4B33459  24.483   0.472  11.159  0.2776 -0.1934  0.2489
 2852POSM   NC333460  24.697   9.552  10.201  0.0969  0.2243  0.1084
 2852POSM   PO433461  25.077   9.599  10.134 -0.1196  0.3198  0.3603
 2852POSM   AM133462  25.003   9.700  10.450 -0.1003  0.4576  0.0209
 2852POSM   AM233463  24.847   9.756  10.664  0.0974 -0.2641 -0.1197
 2852POSM   T1A33464  25.309   9.616  10.881 -0.0989  0.1437  0.0805
 2852POSM   C2A33465  25.348   9.422  11.366  0.0010 -0.0005 -0.0726
 2852POSM   C3A33466  25.639   9.361  11.734 -0.1658 -0.0019 -0.1437
 2852POSM   C1B33467  24.805   9.410  10.733  0.2003 -0.1555  0.1098
 2852POSM   D2B33468  25.075   9.172  11.038 -0.0789 -0.0969  0.3037
 2852POSM   C3B33469  24.972   8.851  11.314  0.0420  0.1756  0.0503
 2852POSM   C4B33470  25.076   8.517  11.649 -0.0325 -0.2777  0.1334
 2853DOPE   NH333471  23.351   7.556   9.712  0.1574 -0.3610  0.0216
 2853DOPE   PO433472  23.168   7.448   9.523  0.0731  0.4086 -0.1513
 2853DOPE   GL133473  23.054   7.330  10.016 -0.3155  0.0200 -0.1051
 2853DOPE   GL233474  23.108   7.605  10.186 -0.0429 -0.0426 -0.0136
 2853DOPE   C1A33475  23.235   7.190  10.407  0.0861 -0.0364  0.2914
 2853DOPE   D2A33476  23.458   7.306  10.788  0.0791 -0.1640  0.3091
 2853DOPE   C3A33477  23.731   7.316  11.157  0.3421 -0.0134  0.2907
 2853DOPE   C4A33478  24.052   7.169  11.486 -0.1734 -0.0882 -0.1705
 2853DOPE   C1B33479  23.212   7.724  10.625  0.1475  0.4502 -0.1916
 2853DOPE   D2B33480  23.368   7.693  11.053 -0.0273  0.1219  0.0058
 2853DOPE   C3B33481  23.280   8.092  11.252  0.2868  0.2460  0.0969
 2853DOPE   C4B33482  23.589   8.411  11.340  0.2461 -0.0137  0.1048
 2854DOPC   NC333483  29.860   2.596   9.960  0.0996  0.4426 -0.0376
 2854DOPC   PO433484  29.861   2.217   9.726  0.1245 -0.2289  0.0145
 2854DOPC   GL133485  29.796   2.064  10.023 -0.2078  0.3016  0.1792
 2854DOPC   GL233486  29.928   2.254  10.269 -0.0846  0.0363 -0.0688
 2854DOPC   C1A33487  29.938   1.771  10.333  0.0492 -0.0412  0.2407
 2854DOPC   D2A33488  29.801   1.653  10.758  0.0535 -0.3105  0.1132
 2854DOPC   C3A33489  29.531   1.669  11.121 -0.0437  0.0052 -0.1288
 2854DOPC   C4A33490  29.290   1.542  11.480 -0.0015 -0.0268 -0.1795
 2854DOPC   C1B33491  29.785   2.142  10.678 -0.2884 -0.0267  0.1307
 2854DOPC   D2B33492  29.382   2.113  10.844  0.0123  0.0387 -0.3981
 2854DOPC   C3B33493  29.265   2.045  11.245 -0.1057 -0.0022 -0.2193
 2854DOPC   C4B33494  29.529   1.952  11.651  0.1835  0.0993  0.0153
 2855POSM   NC333495  33.348   4.101   9.869  0.0109  0.0437  0.2309
 2855POSM   PO433496  33.631   3.976  10.078 -0.0323 -0.3005 -0.2576
 2855POSM   AM133497  33.626   4.007  10.392  0.1828  0.3353  0.2306
 2855POSM   AM233498  33.658   4.238  10.568  0.2329 -0.2752 -0.0088
 2855POSM   T1A33499  33.761   3.758  10.781  0.1823 -0.1162  0.0690
 2855POSM   C2A33500  33.723   3.372  11.006  0.0503  0.2135  0.0362
 2855POSM   C3A33501  33.607   3.283  11.468  0.1386  0.1407  0.2542
 2855POSM   C1B33502  33.542   4.281  10.896 -0.2388 -0.2393 -0.3409
 2855POSM   D2B33503  33.568   4.221  11.422 -0.0661 -0.1397 -0.0485
 2855POSM   C3B33504  33.809   4.408  11.801 -0.6400  0.0958 -0.0492
 2855POSM   C4B33505  33.929   4.307  12.226  0.1439 -0.4933  0.2150
 2856POSM   NC333506  28.686  11.309  10.025  0.0051 -0.1712  0.3827
 2856POSM   PO433507  28.573  10.964  10.194  0.3411 -0.1632  0.0684
 2856POSM   AM133508  28.689  10.995  10.498 -0.1420  0.2367 -0.0718
 2856POSM   AM233509  28.913  11.048  10.662  0.0405 -0.1030 -0.1330
 2856POSM   T1A33510  28.662  10.748  10.918  0.2471  0.2466  0.0208
 2856POSM   C2A33511  28.864  10.654  11.327 -0.0486 -0.2844 -0.0862
 2856POSM   C3A33512  29.196  10.486  11.615 -0.0207 -0.0451 -0.0785
 2856POSM   C1B33513  29.039  11.038  10.968 -0.0174  0.0046 -0.0910
 2856POSM   D2B33514  29.185  11.080  11.414  0.2175  0.4722  0.0704
 2856POSM   C3B33515  28.809  11.079  11.712 -0.6382 -0.0840 -0.0147
 2856POSM   C4B33516  28.369  10.894  11.632  0.3622 -0.1112 -0.0079
 2857DOPC   NC333517  25.429  21.656  13.608 -0.2673  0.1099  0.0852
 2857DOPC   PO433518  25.628  21.900  13.369 -0.1736 -0.1515  0.0672
 2857DOPC   GL133519  25.678  21.915  12.942 -0.2903  0.3576 -0.0376
 2857DOPC   GL233520  25.718  22.149  12.768  0.1177  0.1723 -0.2290
 2857DOPC   C1A33521  25.328  21.901  12.611 -0.0744  0.0177  0.1236
 2857DOPC   D2A33522  24.946  21.751  12.389 -0.0304 -0.2792  0.2307
 2857DOPC   C3A33523  24.745  22.040  12.026 -0.2208  0.1730  0.4175
 2857DOPC   C4A33524  24.661  22.371  11.706  0.1102  0.0012 -0.1093
 2857DOPC   C1B33525  26.123  21.893  12.716 -0.0805  0.0542  0.0237
 2857DOPC   D2B33526  26.358  21.862  12.327  0.0823  0.1969  0.0709
 2857DOPC   C3B33527  26.475  22.180  12.029  0.0369  0.1087 -0.0404
 2857DOPC   C4B33528  26.753  22.239  11.665  0.0336 -0.2405  0.0681
 2858DOPC   NC333529   1.193  15.941  15.483  0.0700  0.2968 -0.3012
 2858DOPC   PO433530   0.865  15.735  15.576 -0.0320 -0.1397 -0.0327
 2858DOPC   GL133531   0.671  15.834  15.340 -0.1014  0.0233  0.2084
 2858DOPC   GL233532   0.898  15.804  15.091 -0.1325  0.0865  0.2362
 2858DOPC   C1A33533   0.301  15.746  15.059 -0.1504  0.2996 -0.0249
 2858DOPC   D2A33534   0.142  15.690  14.637 -0.3528 -0.0291  0.1435
 2858DOPC   C3A33535   0.151  15.591  14.171  0.0041 -0.1605 -0.1234
 2858DOPC   C4A33536   0.247  15.440  13.703 -0.1848 -0.1818 -0.1242
 2858DOPC   C1B33537   1.097  15.665  14.672 -0.2037  0.0562 -0.1097
 2858DOPC   D2B33538   1.146  15.458  14.278  0.0265 -0.0322  0.0595
 2858DOPC   C3B33539   1.297  15.806  13.985  0.0675 -0.0027  0.5117
 2858DOPC   C4B33540   1.384  16.059  13.673  0.0594 -0.0559  0.0145
 2859DOPE   NH333541  33.983  19.274  14.947 -0.0194  0.0127  0.0605
 2859DOPE   PO433542  33.981  19.496  14.735 -0.2810 -0.0435  0.2978
 2859DOPE   GL133543  34.179  19.251  14.437 -0.1852  0.0892  0.1301
 2859DOPE   GL233544  34.346  19.110  14.619  0.1256  0.1394  0.0207
 2859DOPE   C1A33545  34.326  18.946  14.138 -0.0317 -0.2226 -0.3717
 2859DOPE   D2A33546  34.427  18.735  13.722 -0.0665 -0.3196  0.0213
 2859DOPE   C3A33547  34.067  18.552  13.439 -0.1519  0.1224  0.1971
 2859DOPE   C4A33548  33.946  18.198  13.118  0.0716  0.0034 -0.2318
 2859DOPE   C1B33549  34.568  18.750  14.576 -0.1323 -0.0615  0.1790
 2859DOPE   D2B33550  34.943  18.522  14.572 -0.2163 -0.0076  0.3281
 2859DOPE   C3B33551  35.141  18.437  14.185  0.1500 -0.0020  0.0137
 2859DOPE   C4B33552  35.057  18.279  13.820  0.0342 -0.1264 -0.1660
 2860DOPE   NH333553  23.151  22.074  12.731 -0.1123 -0.1541 -0.1782
 2860DOPE   PO433554  23.364  21.838  12.605 -0.0151  0.0222  0.2831
 2860DOPE   GL133555  23.569  21.930  12.193  0.2445 -0.1593  0.1142
 2860DOPE   GL233556  23.555  22.253  12.346 -0.0985  0.1250 -0.0261
 2860DOPE   C1A33557  23.731  21.773  11.770 -0.1386 -0.1690 -0.0188
 2860DOPE   D2A33558  23.674  21.724  11.322  0.0205 -0.1300 -0.2359
 2860DOPE   C3A33559  23.256  21.517  11.362 -0.2889 -0.1470 -0.0945
 2860DOPE   C4A33560  23.017  21.214  11.646 -0.3770 -0.1705  0.0837
 2860DOPE   C1B33561  23.732  22.373  11.854  0.0589 -0.3123  0.0469
 2860DOPE   D2B33562  23.983  22.177  11.488  0.1739  0.1907 -0.5079
 2860DOPE   C3B33563  24.371  22.405  11.251 -0.2678  0.1199  0.1152
 2860DOPE   C4B33564  24.782  22.253  11.274 -0.2792  0.0578  0.0849
 2861DOPC   NC333565  32.536  21.426  13.912  0.1266 -0.0894  0.3168
 2861DOPC   PO433566  32.863  21.219  13.787  0.0506  0.1014 -0.0165
 2861DOPC   GL133567  33.041  21.051  13.572 -0.0724  0.3618 -0.3044
 2861DOPC   GL233568  33.256  20.833  13.712  0.0561  0.0635 -0.0352
 2861DOPC   C1A33569  32.883  20.740  13.276  0.1245 -0.2195  0.1322
 2861DOPC   D2A33570  32.802  20.397  13.040 -0.1313  0.1357 -0.0279
 2861DOPC   C3A33571  33.033  20.223  12.697 -0.0759  0.0985  0.0100
 2861DOPC   C4A33572  33.031  19.821  12.506  0.0744 -0.0509  0.0810
 2861DOPC   C1B33573  33.643  20.585  13.619  0.1311  0.3230 -0.1832
 2861DOPC   D2B33574  34.056  20.543  13.442 -0.1070 -0.2558 -0.0811
 2861DOPC   C3B33575  34.242  20.163  13.344 -0.1052  0.0220 -0.2641
 2861DOPC   C4B33576  34.164  19.699  13.326 -0.0455  0.1014 -0.3831
 2862DOPC   NC333577   1.015  21.502  14.199 -0.0831  0.2971 -0.1795
 2862DOPC   PO433578   1.367  21.692  14.216 -0.1190 -0.1656 -0.1221
 2862DOPC   GL133579   1.591  21.428  13.962 -0.3019 -0.0386 -0.0259
 2862DOPC   GL233580   1.363  21.234  13.896 -0.4130 -0.2500 -0.1111
 2862DOPC   C1A33581   1.848  21.331  13.604  0.1378 -0.1643 -0.2496
 2862DOPC   D2A33582   1.848  20.939  13.299 -0.1338  0.1946 -0.1412
 2862DOPC   C3A33583   1.851  20.509  13.067 -0.0359 -0.2175 -0.0835
 2862DOPC   C4A33584   1.953  20.196  12.780  0.1200  0.1249 -0.0899
 2862DOPC   C1B33585   1.337  20.819  13.660  0.1695 -0.0100  0.1638
 2862DOPC   D2B33586   1.382  20.605  13.254  0.2159 -0.3202  0.3566
 2862DOPC   C3B33587   1.034  20.394  13.070  0.1918 -0.1738  0.2020
 2862DOPC   C4B33588   0.602  20.216  13.012 -0.3164  0.1168  0.1329
 2863POSM   NC333589  26.985  17.360  14.381 -0.0634 -0.0998 -0.2109
 2863POSM   PO433590  26.607  17.471  14.369  0.1766  0.1876  0.1130
 2863POSM   AM133591  26.508  17.512  14.059 -0.2231 -0.4787 -0.1419
 2863POSM   AM233592  26.385  17.705  13.853  0.0665 -0.1355  0.3767
 2863POSM   T1A33593  26.543  17.246  13.639  0.0361  0.0847  0.0973
 2863POSM   C2A33594  26.491  16.816  13.430  0.0142 -0.2665 -0.1072
 2863POSM   C3A33595  26.605  16.449  13.127 -0.0877  0.0340  0.0556
 2863POSM   C1B33596  26.598  17.797  13.591 -0.0214 -0.1811  0.0542
 2863POSM   D2B33597  26.736  17.863  13.196  0.2313  0.0970  0.0236
 2863POSM   C3B33598  26.661  18.110  12.852 -0.0992 -0.2179  0.0529
 2863POSM   C4B33599  26.616  18.581  12.758  0.0111 -0.2257  0.0115
 2864DOPS   CNO33600  31.971  20.927  14.158 -0.3362  0.2640  0.2531
 2864DOPS   PO433601  31.754  20.600  14.160  0.1604 -0.1299 -0.0289
 2864DOPS   GL133602  31.753  20.620  13.707 -0.0415  0.2957 -0.1729
 2864DOPS   GL233603  31.450  20.577  13.636 -0.0272 -0.1279 -0.2040
 2864DOPS   C1A33604  31.820  20.508  13.321  0.0260  0.0390  0.2172
 2864DOPS   D2A33605  32.023  20.207  13.017  0.2284 -0.1573 -0.0779
 2864DOPS   C3A33606  31.997  20.186  12.600 -0.1123 -0.2989 -0.1519
 2864DOPS   C4A33607  32.051  20.212  12.091  0.0456  0.0183  0.0335
 2864DOPS   C1B33608  31.336  20.814  13.292  0.0921 -0.0910 -0.1377
 2864DOPS   D2B33609  31.060  20.721  12.962  0.0618  0.2210  0.1557
 2864DOPS   C3B33610  30.698  20.953  13.004 -0.2030  0.2522  0.1754
 2864DOPS   C4B33611  30.263  20.964  12.977  0.1556  0.2625 -0.1228
 2865DOPC   NC333612  30.130  16.971  14.411 -0.0538 -0.0823  0.1235
 2865DOPC   PO433613  30.067  17.352  14.463  0.0483 -0.0587 -0.0239
 2865DOPC   GL133614  30.081  17.272  14.054  0.0727 -0.0682  0.2275
 2865DOPC   GL233615  30.185  17.484  13.931 -0.0217  0.0295  0.0973
 2865DOPC   C1A33616  30.019  16.842  13.741 -0.0417 -0.0839 -0.2548
 2865DOPC   D2A33617  29.974  16.502  13.506 -0.0404 -0.0839 -0.0109
 2865DOPC   C3A33618  30.191  16.456  13.127 -0.2999 -0.0849  0.1187
 2865DOPC   C4A33619  30.176  16.077  12.909 -0.1306 -0.1418 -0.0240
 2865DOPC   C1B33620  29.859  17.715  13.724 -0.1740  0.5428 -0.0756
 2865DOPC   D2B33621  29.501  17.745  13.464  0.1516  0.2230  0.1339
 2865DOPC   C3B33622  29.372  17.301  13.422  0.1371  0.1896  0.3037
 2865DOPC   C4B33623  29.285  17.034  13.011 -0.1068  0.1818 -0.0583
 2866DOPE   NH333624  25.488  17.916  14.374  0.0196  0.1616 -0.0036
 2866DOPE   PO433625  25.452  17.961  14.009 -0.0957  0.0396 -0.1139
 2866DOPE   GL133626  25.697  17.955  13.578 -0.2901 -0.2281  0.0354
 2866DOPE   GL233627  25.973  17.987  13.641 -0.0933  0.3839 -0.2834
 2866DOPE   C1A33628  25.779  18.270  13.201 -0.2938 -0.2028 -0.0120
 2866DOPE   D2A33629  25.570  18.561  12.882 -0.0824 -0.1091  0.1931
 2866DOPE   C3A33630  25.526  18.243  12.611  0.1164  0.1788 -0.1070
 2866DOPE   C4A33631  25.272  17.855  12.656 -0.0892  0.2883  0.1348
 2866DOPE   C1B33632  26.132  17.906  13.219 -0.3692  0.0751  0.0192
 2866DOPE   D2B33633  26.391  17.657  12.885  0.1300  0.0052 -0.1018
 2866DOPE   C3B33634  26.297  17.900  12.550  0.0120  0.0122 -0.3348
 2866DOPE   C4B33635  26.493  18.177  12.250 -0.1556 -0.1794  0.1124
 2867POSM   NC333636  29.728  20.690  14.334  0.2559  0.0737  0.0328
 2867POSM   PO433637  29.896  21.016  14.236  0.1441 -0.1287  0.1540
 2867POSM   AM133638  29.875  20.944  13.914 -0.2873 -0.0082 -0.0026
 2867POSM   AM233639  30.037  21.018  13.692 -0.1187  0.1442  0.0695
 2867POSM   T1A33640  29.588  20.742  13.560  0.1138 -0.3147 -0.0680
 2867POSM   C2A33641  29.252  20.679  13.291  0.0848 -0.1890  0.3642
 2867POSM   C3A33642  29.144  20.912  12.890 -0.5209  0.0687 -0.0245
 2867POSM   C1B33643  29.938  21.094  13.336 -0.1411 -0.0357  0.0966
 2867POSM   D2B33644  29.699  21.023  12.934  0.2743 -0.1798 -0.1540
 2867POSM   C3B33645  29.911  21.077  12.508 -0.0137  0.0999 -0.1751
 2867POSM   C4B33646  29.885  21.510  12.275 -0.0363 -0.2444 -0.0423
 2868DOPS   CNO33647  31.279  24.252  14.081  0.0483  0.0396 -0.0917
 2868DOPS   PO433648  31.633  24.130  14.017  0.2633  0.0391 -0.0799
 2868DOPS   GL133649  31.799  23.990  13.679 -0.1439  0.2086 -0.1647
 2868DOPS   GL233650  31.548  24.119  13.496  0.2469  0.2451 -0.0963
 2868DOPS   C1A33651  31.738  23.593  13.458 -0.2680 -0.0738  0.1041
 2868DOPS   D2A33652  31.910  23.266  13.157  0.0297 -0.2037 -0.3945
 2868DOPS   C3A33653  32.142  23.306  12.784  0.1367  0.0855  0.0926
 2868DOPS   C4A33654  32.310  23.222  12.348  0.1911 -0.0588 -0.1776
 2868DOPS   C1B33655  31.444  23.911  13.108 -0.1639  0.0174  0.0908
 2868DOPS   D2B33656  31.448  23.961  12.635 -0.0397  0.5741 -0.1894
 2868DOPS   C3B33657  31.426  23.894  12.141 -0.0527  0.0481  0.2128
 2868DOPS   C4B33658  31.609  23.532  11.951 -0.1271 -0.0642  0.0837
 2869DOPC   NC333659  31.900  15.692  15.278  0.1672 -0.1095  0.0724
 2869DOPC   PO433660  31.657  15.661  15.014  0.0632  0.1776 -0.2111
 2869DOPC   GL133661  31.686  15.812  14.612 -0.1673 -0.0514  0.1749
 2869DOPC   GL233662  31.872  16.045  14.524  0.0832 -0.2872 -0.2167
 2869DOPC   C1A33663  31.679  15.749  14.143 -0.2064 -0.0350 -0.1363
 2869DOPC   D2A33664  31.862  15.541  13.882  0.2075 -0.1450 -0.1450
 2869DOPC   C3A33665  31.822  15.301  13.476  0.2227  0.1915  0.0703
 2869DOPC   C4A33666  31.927  15.534  13.085  0.0006 -0.0745 -0.4177
 2869DOPC   C1B33667  31.938  16.349  14.154  0.0318  0.1664  0.0925
 2869DOPC   D2B33668  31.974  16.453  13.666  0.1870  0.0207 -0.0597
 2869DOPC   C3B33669  32.250  16.813  13.442  0.2565  0.0233 -0.2654
 2869DOPC   C4B33670  32.632  17.006  13.402  0.0620 -0.0945  0.1953
 2870DOPE   NH333671  25.749  18.898  14.022  0.0684  0.2656  0.1438
 2870DOPE   PO433672  25.902  19.176  13.837 -0.0244 -0.1905 -0.1087
 2870DOPE   GL133673  25.842  19.049  13.415  0.0384 -0.4094 -0.0894
 2870DOPE   GL233674  25.810  19.252  13.250 -0.1031  0.0792 -0.1138
 2870DOPE   C1A33675  26.154  18.911  13.122  0.3230 -0.0027  0.1211
 2870DOPE   D2A33676  26.097  18.741  12.636 -0.0247 -0.0668  0.1479
 2870DOPE   C3A33677  25.973  18.460  12.341 -0.1217  0.1305  0.0672
 2870DOPE   C4A33678  25.638  18.381  11.997 -0.0310 -0.3092  0.2849
 2870DOPE   C1B33679  25.697  19.055  12.825  0.0041 -0.3545 -0.3078
 2870DOPE   D2B33680  25.638  18.820  12.425  0.0383 -0.0791 -0.0870
 2870DOPE   C3B33681  25.286  18.600  12.378 -0.2443 -0.2225  0.0239
 2870DOPE   C4B33682  25.151  18.411  11.994  0.0514  0.1849 -0.1369
 2871DOPE   NH333683  30.282  19.978  14.377 -0.0270 -0.2128 -0.0148
 2871DOPE   PO433684  30.063  19.758  14.282  0.0463  0.0808  0.1918
 2871DOPE   GL133685  30.347  19.759  13.958  0.2732 -0.2711 -0.4611
 2871DOPE   GL233686  30.433  19.981  13.888 -0.1249  0.3620  0.1711
 2871DOPE   C1A33687  30.356  19.614  13.480  0.0322  0.3884 -0.1625
 2871DOPE   D2A33688  30.019  19.526  13.205  0.1762  0.0681  0.3641
 2871DOPE   C3A33689  29.737  19.356  12.884  0.0456 -0.1514 -0.3308
 2871DOPE   C4A33690  29.502  19.360  12.554  0.0473  0.2224  0.1932
 2871DOPE   C1B33691  30.635  20.082  13.480  0.1865  0.0456 -0.0686
 2871DOPE   D2B33692  30.833  19.870  13.193 -0.1656 -0.4940  0.0700
 2871DOPE   C3B33693  30.985  20.190  12.886  0.2140  0.0664 -0.1910
 2871DOPE   C4B33694  31.107  20.452  12.547  0.2171  0.1881  0.0043
 2872DOPC   NC333695  33.927  20.450  14.357  0.0505  0.3238  0.1772
 2872DOPC   PO433696  33.583  20.271  14.239  0.0166  0.1459  0.0283
 2872DOPC   GL133697  33.831  20.253  13.865 -0.0913  0.0848 -0.0978
 2872DOPC   GL233698  34.044  20.169  13.942  0.1874 -0.0661 -0.2687
 2872DOPC   C1A33699  33.695  20.048  13.423  0.0577  0.1204 -0.1925
 2872DOPC   D2A33700  33.401  19.914  13.102 -0.1321 -0.1522  0.0905
 2872DOPC   C3A33701  33.436  19.561  12.749 -0.1402 -0.1039 -0.1268
 2872DOPC   C4A33702  33.623  19.174  12.670  0.2627 -0.1578 -0.1528
 2872DOPC   C1B33703  34.028  19.765  13.773 -0.0245  0.1461 -0.2884
 2872DOPC   D2B33704  33.743  19.476  13.515  0.3260  0.1727 -0.1324
 2872DOPC   C3B33705  33.813  19.475  13.051  0.0050  0.2644 -0.1642
 2872DOPC   C4B33706  34.018  19.672  12.624  0.0025 -0.0101  0.1376
 2873POSM   NC333707   0.698  18.286  15.670 -0.1004  0.2476 -0.0883
 2873POSM   PO433708   0.359  18.328  15.497 -0.0808  0.2505  0.0009
 2873POSM   AM133709   0.305  18.307  15.199  0.2936 -0.0479  0.0872
 2873POSM   AM233710   0.468  18.343  14.975  0.2698  0.1780  0.2153
 2873POSM   T1A33711   0.197  17.978  14.843  0.2115 -0.1962  0.1310
 2873POSM   C2A33712   0.153  17.910  14.386  0.1403  0.0981 -0.1260
 2873POSM   C3A33713   0.096  17.535  14.133 -0.1799  0.4217 -0.3720
 2873POSM   C1B33714   0.655  18.105  14.751 -0.0374  0.1332  0.0360
 2873POSM   D2B33715   0.797  18.006  14.327  0.2343  0.1977 -0.1889
 2873POSM   C3B33716   0.489  17.861  13.997  0.0209 -0.1668 -0.0454
 2873POSM   C4B33717   0.072  17.814  13.788  0.1654 -0.2130  0.3578
 2874DOPE   NH333718  22.372  22.157  12.927 -0.1170 -0.0037 -0.1656
 2874DOPE   PO433719  22.624  22.181  12.689 -0.1475 -0.3255 -0.1525
 2874DOPE   GL133720  22.551  22.176  12.299 -0.3236 -0.2194  0.0437
 2874DOPE   GL233721  22.327  22.342  12.185  0.2423  0.0564  0.2888
 2874DOPE   C1A33722  22.636  21.887  11.932  0.2909 -0.2479 -0.3532
 2874DOPE   D2A33723  22.747  21.726  11.528 -0.0688  0.0877 -0.1058
 2874DOPE   C3A33724  22.421  21.536  11.336  0.0828  0.1053  0.3253
 2874DOPE   C4A33725  22.170  21.191  11.534 -0.3192  0.0105 -0.0183
 2874DOPE   C1B33726  22.690  22.493  11.936  0.1092 -0.0061  0.0690
 2874DOPE   D2B33727  22.905  22.288  11.589 -0.0535 -0.2342  0.0023
 2874DOPE   C3B33728  23.319  22.406  11.466  0.0348 -0.1188  0.1871
 2874DOPE   C4B33729  23.653  22.367  11.162  0.0075  0.2313 -0.2512
 2875DOPS   CNO33730  27.825  14.105  14.811 -0.0453  0.0533 -0.1701
 2875DOPS   PO433731  27.800  14.277  14.477  0.1263 -0.0581  0.0614
 2875DOPS   GL133732  28.131  14.377  14.222  0.0967 -0.1283  0.0302
 2875DOPS   GL233733  27.941  14.493  14.026  0.2325 -0.3330 -0.0240
 2875DOPS   C1A33734  28.344  14.376  13.763 -0.3065 -0.2406 -0.0761
 2875DOPS   D2A33735  28.387  14.125  13.405  0.1186  0.2632  0.0916
 2875DOPS   C3A33736  28.225  14.498  13.142  0.0087  0.0143  0.0525
 2875DOPS   C4A33737  27.994  14.749  12.805  0.1686  0.0316  0.0934
 2875DOPS   C1B33738  27.669  14.821  13.859  0.2248 -0.3463 -0.2651
 2875DOPS   D2B33739  27.804  15.038  13.467  0.0810  0.0581 -0.2118
 2875DOPS   C3B33740  28.177  15.029  13.249  0.1500  0.1119  0.1255
 2875DOPS   C4B33741  28.423  15.400  13.032 -0.1475  0.0721  0.0019
 2876POSM   NC333742  33.965  18.285  15.267  0.0034  0.0656 -0.1385
 2876POSM   PO433743  33.708  18.292  14.973 -0.0628 -0.0830 -0.0613
 2876POSM   AM133744  33.757  18.351  14.629  0.0867 -0.0798 -0.1380
 2876POSM   AM233745  33.643  18.229  14.393 -0.4000 -0.0759 -0.1642
 2876POSM   T1A33746  33.955  18.576  14.291 -0.0903  0.1804 -0.1093
 2876POSM   C2A33747  33.925  18.739  13.863 -0.0261 -0.2580 -0.0801
 2876POSM   C3A33748  33.661  18.901  13.527 -0.0551 -0.0184  0.0791
 2876POSM   C1B33749  33.660  18.227  14.069 -0.0110  0.1201 -0.0524
 2876POSM   D2B33750  33.779  18.182  13.614 -0.0570 -0.2273  0.1083
 2876POSM   C3B33751  33.531  18.450  13.329  0.0597 -0.0516 -0.1026
 2876POSM   C4B33752  33.482  18.854  13.027 -0.0093 -0.4067  0.2648
 2877POSM   NC333753  29.459  19.725  14.012 -0.0263 -0.0955 -0.0239
 2877POSM   PO433754  29.127  19.640  14.230  0.0076  0.1630  0.0302
 2877POSM   AM133755  28.947  19.677  13.995  0.0563  0.0827  0.0659
 2877POSM   AM233756  28.778  19.886  13.860  0.1811 -0.3079  0.1483
 2877POSM   T1A33757  28.751  19.523  13.531 -0.0205 -0.3599  0.1148
 2877POSM   C2A33758  28.927  19.225  13.221 -0.1707 -0.1725  0.1864
 2877POSM   C3A33759  29.290  19.194  13.038  0.0450  0.1357 -0.0090
 2877POSM   C1B33760  29.089  19.912  13.665  0.2241  0.2137 -0.0662
 2877POSM   D2B33761  29.300  20.130  13.283 -0.0336 -0.1101 -0.0070
 2877POSM   C3B33762  29.018  20.234  12.960 -0.0372 -0.1306 -0.0593
 2877POSM   C4B33763  28.561  20.286  12.979  0.0144 -0.1745 -0.2979
 2878DOPC   NC333764  23.947  13.816  13.803 -0.2574 -0.0599  0.2819
 2878DOPC   PO433765  24.303  13.636  13.709 -0.0901 -0.3501 -0.0522
 2878DOPC   GL133766  24.566  13.354  13.463  0.2463  0.1651  0.0124
 2878DOPC   GL233767  24.474  13.325  13.147  0.4077  0.0724  0.1728
 2878DOPC   C1A33768  24.923  13.457  13.193 -0.2194 -0.2390  0.2739
 2878DOPC   D2A33769  25.016  13.320  12.738 -0.0725  0.2042 -0.2648
 2878DOPC   C3A33770  25.409  13.420  12.491 -0.2336  0.0313  0.0228
 2878DOPC   C4A33771  25.740  13.398  12.118  0.0544  0.1376 -0.1556
 2878DOPC   C1B33772  24.152  13.415  12.829 -0.3156  0.0945 -0.0295
 2878DOPC   D2B33773  24.103  13.686  12.499 -0.0918  0.3447  0.0097
 2878DOPC   C3B33774  24.420  13.983  12.372 -0.0179 -0.1861  0.0255
 2878DOPC   C4B33775  24.793  14.174  12.125 -0.3155 -0.0279 -0.1775
 2879DOPS   CNO33776  28.899  15.414  14.572  0.2610 -0.0535  0.1920
 2879DOPS   PO433777  28.740  15.744  14.622 -0.2706  0.1171 -0.0153
 2879DOPS   GL133778  28.781  15.827  14.290  0.1656 -0.3494 -0.0342
 2879DOPS   GL233779  29.032  15.637  14.173  0.3670 -0.2134  0.1083
 2879DOPS   C1A33780  28.683  15.744  13.845  0.2243 -0.3920  0.0580
 2879DOPS   D2A33781  28.878  15.558  13.480 -0.0064  0.2449  0.1063
 2879DOPS   C3A33782  28.895  15.591  13.044 -0.0311  0.0459 -0.1022
 2879DOPS   C4A33783  28.764  15.815  12.665  0.0815 -0.3814 -0.0597
 2879DOPS   C1B33784  29.068  16.075  13.989  0.4847 -0.0130 -0.1363
 2879DOPS   D2B33785  28.855  16.254  13.634  0.2458 -0.1401 -0.0919
 2879DOPS   C3B33786  29.068  15.943  13.349  0.3174 -0.0456  0.3716
 2879DOPS   C4B33787  29.326  15.875  12.991 -0.2391  0.1894  0.1903
 2880DOPE   NH333788  33.531  21.247  14.223  0.0914  0.2246 -0.1196
 2880DOPE   PO433789  33.373  21.288  13.909 -0.0665 -0.0087  0.3451
 2880DOPE   GL133790  33.651  21.098  13.732 -0.0278 -0.0174 -0.0024
 2880DOPE   GL233791  33.747  21.252  13.523 -0.2500 -0.0156 -0.1048
 2880DOPE   C1A33792  33.429  20.939  13.284 -0.1451 -0.2607 -0.0628
 2880DOPE   D2A33793  33.110  21.098  12.988  0.2988 -0.0060 -0.0071
 2880DOPE   C3A33794  32.671  20.860  12.817 -0.0171  0.2481  0.3573
 2880DOPE   C4A33795  32.407  20.971  12.506  0.2064  0.0005 -0.4148
 2880DOPE   C1B33796  33.606  21.478  13.111 -0.3983  0.0658 -0.1388
 2880DOPE   D2B33797  33.356  21.526  12.762  0.1202  0.1350 -0.0929
 2880DOPE   C3B33798  33.417  21.135  12.522  0.2079  0.1211 -0.0729
 2880DOPE   C4B33799  33.773  20.975  12.287  0.1527 -0.1284 -0.1425
 2881POSM   NC333800   1.558  17.581  15.386 -0.0053 -0.1977 -0.1336
 2881POSM   PO433801   1.633  18.002  15.428 -0.3237  0.2045  0.2509
 2881POSM   AM133802   1.879  18.048  15.208  0.4678  0.2306 -0.0938
 2881POSM   AM233803   1.875  18.161  14.932 -0.2173 -0.2508 -0.3833
 2881POSM   T1A33804   2.365  18.044  15.083 -0.2658  0.2614 -0.0366
 2881POSM   C2A33805   2.438  18.327  14.767  0.0746  0.0905 -0.1693
 2881POSM   C3A33806   2.456  18.330  14.292 -0.1448 -0.3724  0.0027
 2881POSM   C1B33807   1.764  18.008  14.674 -0.1227  0.0512 -0.3989
 2881POSM   D2B33808   1.733  17.671  14.288  0.1063 -0.2708 -0.0811
 2881POSM   C3B33809   1.709  17.906  13.886  0.0111  0.0015 -0.4956
 2881POSM   C4B33810   1.518  17.871  13.473  0.0538  0.1163  0.1771
 2882POSM   NC333811  32.729  14.225  15.668  0.0360 -0.0181 -0.2149
 2882POSM   PO433812  32.965  14.353  15.454 -0.0329 -0.0477  0.0971
 2882POSM   AM133813  33.023  14.389  15.136 -0.0622 -0.0385 -0.1242
 2882POSM   AM233814  33.244  14.381  14.944 -0.0545 -0.0401  0.3815
 2882POSM   T1A33815  32.833  14.613  14.729  0.2588  0.0322  0.0682
 2882POSM   C2A33816  32.751  14.875  14.355  0.0240 -0.1092 -0.1478
 2882POSM   C3A33817  32.403  15.152  14.100 -0.2092  0.1862  0.0927
 2882POSM   C1B33818  33.271  14.359  14.607  0.0868  0.3112 -0.0170
 2882POSM   D2B33819  33.360  14.121  14.232  0.0576 -0.1742  0.1686
 2882POSM   C3B33820  33.119  13.964  13.908 -0.1166  0.1335 -0.2082
 2882POSM   C4B33821  32.918  14.008  13.464  0.2213 -0.1595  0.2213
 2883DOPC   NC333822  25.700  21.457  13.062  0.0742 -0.0733  0.1698
 2883DOPC   PO433823  25.686  21.090  13.165 -0.0968  0.0184 -0.2047
 2883DOPC   GL133824  25.936  21.162  12.763 -0.2208  0.1308 -0.3302
 2883DOPC   GL233825  25.938  20.832  12.762  0.0199  0.2708 -0.2898
 2883DOPC   C1A33826  25.764  21.076  12.361  0.2002  0.1586  0.0625
 2883DOPC   D2A33827  25.502  20.907  12.001 -0.2634  0.1980 -0.4175
 2883DOPC   C3A33828  25.774  20.849  11.648  0.0814 -0.0989 -0.1961
 2883DOPC   C4A33829  26.196  20.673  11.570 -0.1003 -0.1923  0.0543
 2883DOPC   C1B33830  26.284  20.645  12.529  0.1849 -0.1757  0.1342
 2883DOPC   D2B33831  26.714  20.470  12.396 -0.1559 -0.0053  0.1417
 2883DOPC   C3B33832  26.797  20.363  11.949 -0.1070  0.0515  0.1675
 2883DOPC   C4B33833  26.886  19.974  11.703  0.2130 -0.0549 -0.1382
 2884DOPC   NC333834  23.573  17.191  13.250 -0.1927  0.2055  0.5326
 2884DOPC   PO433835  23.948  17.080  13.454 -0.0194  0.3097 -0.0671
 2884DOPC   GL133836  23.928  17.042  13.014  0.3101  0.4717  0.0213
 2884DOPC   GL233837  24.104  17.261  12.969 -0.0204 -0.2010 -0.1292
 2884DOPC   C1A33838  23.739  17.162  12.633  0.0711  0.0918 -0.2342
 2884DOPC   D2A33839  23.723  17.234  12.175 -0.1392  0.1084  0.1561
 2884DOPC   C3A33840  23.958  16.850  11.965 -0.2602 -0.0951  0.2750
 2884DOPC   C4A33841  24.322  16.857  11.721  0.1046 -0.1776 -0.0451
 2884DOPC   C1B33842  24.512  17.209  12.746  0.2392 -0.1463 -0.1257
 2884DOPC   D2B33843  24.656  17.138  12.234  0.3974 -0.1084  0.0115
 2884DOPC   C3B33844  24.750  17.340  11.864  0.3832  0.1484 -0.1812
 2884DOPC   C4B33845  24.779  17.702  11.545  0.1775  0.0158  0.0924
 2885POSM   NC333846  31.551  15.012  14.599  0.1388  0.1644 -0.1355
 2885POSM   PO433847  31.395  15.268  14.875  0.0100 -0.1295  0.0195
 2885POSM   AM133848  31.134  15.204  14.702 -0.0380 -0.5395  0.3283
 2885POSM   AM233849  31.025  15.064  14.507 -0.1267  0.1380 -0.5081
 2885POSM   T1A33850  30.792  15.463  14.362 -0.2684 -0.0143  0.0976
 2885POSM   C2A33851  30.568  15.394  13.997 -0.2463 -0.2698  0.1276
 2885POSM   C3A33852  30.406  15.365  13.562  0.4158  0.4801  0.1520
 2885POSM   C1B33853  30.967  15.098  14.128  0.1635  0.0938 -0.2650
 2885POSM   D2B33854  30.958  15.226  13.708 -0.3142  0.0231 -0.0711
 2885POSM   C3B33855  30.761  15.164  13.316 -0.3436 -0.0003  0.0949
 2885POSM   C4B33856  30.899  15.023  12.862  0.0498  0.2662 -0.3430
 2886POSM   NC333857  34.760  14.677  15.604 -0.0145  0.1520 -0.1298
 2886POSM   PO433858  35.054  14.894  15.521  0.1804  0.1108 -0.0327
 2886POSM   AM133859  35.097  14.977  15.215  0.1329  0.1411 -0.0886
 2886POSM   AM233860  35.261  15.110  15.050 -0.2564 -0.0513 -0.3389
 2886POSM   T1A33861  35.053  14.800  14.744  0.0393 -0.1858  0.3201
 2886POSM   C2A33862  35.241  14.566  14.406 -0.2541  0.1999 -0.2212
 2886POSM   C3A33863  35.122  14.438  13.982 -0.1146  0.1310  0.1959
 2886POSM   C1B33864  35.412  15.352  14.787 -0.0642 -0.1084 -0.1564
 2886POSM   D2B33865  35.454  15.662  14.467 -0.2307 -0.1142  0.2419
 2886POSM   C3B33866  35.425  15.802  14.041 -0.2154 -0.1822 -0.0731
 2886POSM   C4B33867  35.395  16.236  13.847 -0.0408  0.0650  0.1121
 2887DOPE   NH333868  34.728  21.213  14.404 -0.2640  0.1511 -0.1764
 2887DOPE   PO433869  34.890  21.038  14.190 -0.3425 -0.1536  0.0466
 2887DOPE   GL133870  35.039  21.214  13.883 -0.3840 -0.2809  0.2725
 2887DOPE   GL233871  34.864  21.359  13.628  0.0038 -0.2438  0.0940
 2887DOPE   C1A33872  35.215  21.031  13.505 -0.0364 -0.3778 -0.0278
 2887DOPE   D2A33873  35.455  20.604  13.490  0.0977 -0.0497 -0.0602
 2887DOPE   C3A33874  35.357  20.144  13.539  0.1671 -0.3170 -0.1571
 2887DOPE   C4A33875  35.276  19.746  13.329 -0.2763 -0.1512 -0.0123
 2887DOPE   C1B33876  34.889  21.090  13.168  0.0149 -0.3560 -0.1082
 2887DOPE   D2B33877  35.102  21.010  12.812 -0.1463  0.1490 -0.1035
 2887DOPE   C3B33878  35.179  21.361  12.503  0.1190 -0.0469 -0.0093
 2887DOPE   C4B33879  35.365  21.715  12.182  0.0532 -0.1690 -0.4281
 2888DOPC   NC333880  30.497  21.737  13.945 -0.0057  0.0380 -0.0948
 2888DOPC   PO433881  30.435  22.099  14.079  0.2119 -0.2178  0.0655
 2888DOPC   GL133882  30.439  22.077  13.631 -0.3359 -0.1247  0.0291
 2888DOPC   GL233883  30.243  22.258  13.453 -0.1356 -0.0770  0.2211
 2888DOPC   C1A33884  30.744  22.147  13.256 -0.0314 -0.1163 -0.2039
 2888DOPC   D2A33885  30.981  22.154  12.858  0.3195  0.0234 -0.2804
 2888DOPC   C3A33886  31.282  22.430  12.729 -0.0783 -0.1371  0.0427
 2888DOPC   C4A33887  31.583  22.594  12.421  0.0737  0.0337 -0.3229
 2888DOPC   C1B33888  30.318  21.977  13.087  0.0574 -0.0631 -0.3020
 2888DOPC   D2B33889  30.307  21.926  12.599  0.0983  0.1206 -0.1515
 2888DOPC   C3B33890  30.442  21.687  12.300  0.1442  0.0264 -0.0208
 2888DOPC   C4B33891  30.819  21.557  12.073 -0.0255  0.0196  0.1212
 2889DOPE   NH333892  32.482  18.746  14.918 -0.3951  0.0168  0.0696
 2889DOPE   PO433893  32.390  18.883  14.647  0.1949 -0.2476  0.0046
 2889DOPE   GL133894  32.196  18.645  14.408 -0.1862 -0.0847  0.2894
 2889DOPE   GL233895  32.315  18.383  14.484  0.0208  0.0628 -0.1205
 2889DOPE   C1A33896  32.101  18.683  13.933 -0.2149 -0.2001  0.0154
 2889DOPE   D2A33897  32.344  18.655  13.547  0.0412 -0.1580  0.1857
 2889DOPE   C3A33898  32.238  18.575  13.121  0.2740 -0.0096 -0.2992
 2889DOPE   C4A33899  31.912  18.713  12.856 -0.1074  0.0264  0.0642
 2889DOPE   C1B33900  32.300  18.267  14.023 -0.2172  0.0555  0.0861
 2889DOPE   D2B33901  32.644  18.318  13.735 -0.0146 -0.0356 -0.0901
 2889DOPE   C3B33902  32.999  18.017  13.805 -0.1532 -0.2064  0.1966
 2889DOPE   C4B33903  33.433  17.818  13.802  0.0429  0.1813  0.1606
 2890DOPE   NH333904   0.519  16.154  15.671  0.2892 -0.0826 -0.2638
 2890DOPE   PO433905   0.822  16.221  15.653  0.2096  0.1379 -0.1659
 2890DOPE   GL133906   0.819  16.218  15.236 -0.1901 -0.1404 -0.1762
 2890DOPE   GL233907   0.943  16.444  15.108 -0.0892  0.2330  0.2712
 2890DOPE   C1A33908   0.558  16.122  14.837 -0.0016  0.3393 -0.0821
 2890DOPE   D2A33909   0.327  16.148  14.436  0.2086 -0.0392 -0.2647
 2890DOPE   C3A33910   0.333  16.494  14.135  0.1579  0.1453  0.2431
 2890DOPE   C4A33911   0.412  16.888  13.875  0.0530  0.1487  0.1358
 2890DOPE   C1B33912   1.051  16.262  14.729 -0.0467 -0.1019 -0.1364
 2890DOPE   D2B33913   1.320  16.268  14.338 -0.4068  0.2156  0.2926
 2890DOPE   C3B33914   1.169  16.372  13.954 -0.0679  0.0807  0.1047
 2890DOPE   C4B33915   0.845  16.668  13.883 -0.1384 -0.1064  0.1998
 2891DOPE   NH333916  33.905  15.802  15.807 -0.1212  0.2617 -0.2437
 2891DOPE   PO433917  33.737  15.651  15.536 -0.4321 -0.0932 -0.1500
 2891DOPE   GL133918  33.651  15.546  15.090 -0.4748  0.2142 -0.2182
 2891DOPE   GL233919  33.377  15.411  15.094  0.2815  0.1737  0.2239
 2891DOPE   C1A33920  33.832  15.300  14.698  0.1365  0.1611 -0.1787
 2891DOPE   D2A33921  33.608  15.170  14.320  0.2921 -0.1138  0.2434
 2891DOPE   C3A33922  33.789  15.044  13.927 -0.2249  0.3302 -0.1852
 2891DOPE   C4A33923  33.695  14.961  13.490  0.1707  0.0806 -0.0912
 2891DOPE   C1B33924  33.178  15.304  14.670 -0.0844  0.1082 -0.0864
 2891DOPE   D2B33925  33.233  15.539  14.253 -0.3395  0.1794 -0.0830
 2891DOPE   C3B33926  33.552  15.469  13.955  0.0307 -0.2512 -0.2121
 2891DOPE   C4B33927  33.641  15.476  13.465  0.2210 -0.4063 -0.1785
 2892DOPS   CNO33928  23.673  21.502  13.190  0.3128 -0.3558  0.1365
 2892DOPS   PO433929  24.040  21.529  13.069  0.1449 -0.1304  0.1305
 2892DOPS   GL133930  24.097  21.759  12.737 -0.2034 -0.2741 -0.1223
 2892DOPS   GL233931  23.851  21.693  12.577  0.0665  0.1490  0.1632
 2892DOPS   C1A33932  24.372  21.917  12.408  0.1056  0.2071  0.3411
 2892DOPS   D2A33933  24.514  21.602  12.108 -0.0954 -0.1120  0.0592
 2892DOPS   C3A33934  24.893  21.546  11.945 -0.2121 -0.4313  0.1439
 2892DOPS   C4A33935  25.218  21.267  11.781  0.1093 -0.4052  0.1731
 2892DOPS   C1B33936  24.058  21.578  12.193  0.1733  0.6587  0.0567
 2892DOPS   D2B33937  24.112  21.405  11.695 -0.1408  0.1176  0.0990
 2892DOPS   C3B33938  24.206  21.416  11.250  0.1355  0.2161  0.1039
 2892DOPS   C4B33939  24.036  21.495  10.804 -0.2946  0.3761  0.1051
 2893DOPE   NH333940  31.450  18.570  14.736  0.1561 -0.0297 -0.3954
 2893DOPE   PO433941  31.684  18.658  14.555  0.0191 -0.0547 -0.1429
 2893DOPE   GL133942  31.590  18.736  14.193  0.2872  0.0101 -0.3472
 2893DOPE   GL233943  31.537  18.459  14.070 -0.1595 -0.2638 -0.1795
 2893DOPE   C1A33944  31.321  18.825  13.797  0.1340  0.1263  0.1442
 2893DOPE   D2A33945  31.274  19.255  13.667  0.1439  0.0111  0.0257
 2893DOPE   C3A33946  31.497  19.164  13.254 -0.0043 -0.5236  0.1709
 2893DOPE   C4A33947  31.969  19.219  13.091  0.3242  0.0078  0.1338
 2893DOPE   C1B33948  31.807  18.378  13.656  0.0695 -0.0957 -0.0048
 2893DOPE   D2B33949  31.825  18.288  13.197  0.2020  0.0273 -0.0065
 2893DOPE   C3B33950  31.655  17.996  12.867  0.1351 -0.1723  0.1611
 2893DOPE   C4B33951  31.700  17.488  12.883 -0.0533  0.1173  0.0317
 2894DOPE   NH333952  24.891  21.139  12.897  0.1915 -0.2746  0.1158
 2894DOPE   PO433953  24.918  21.452  12.840 -0.2179 -0.2636 -0.0006
 2894DOPE   GL133954  25.192  21.437  12.624  0.2956 -0.2267  0.1747
 2894DOPE   GL233955  25.390  21.243  12.704  0.0918 -0.1263  0.1273
 2894DOPE   C1A33956  25.390  21.523  12.175 -0.3606  0.1443 -0.0070
 2894DOPE   D2A33957  25.423  21.715  11.779  0.1597 -0.4871 -0.0512
 2894DOPE   C3A33958  25.088  21.648  11.487 -0.3456 -0.2995  0.0140
 2894DOPE   C4A33959  25.142  21.860  11.068  0.0102  0.0973 -0.0183
 2894DOPE   C1B33960  25.703  21.534  12.542  0.0427  0.0393  0.1539
 2894DOPE   D2B33961  25.809  21.891  12.341 -0.3198 -0.1139  0.2747
 2894DOPE   C3B33962  25.801  22.046  11.892 -0.0321  0.0012 -0.0109
 2894DOPE   C4B33963  25.650  22.163  11.476  0.2117  0.3508  0.1702
 2895POSM   NC333964  28.277  13.952  14.527 -0.0270 -0.3005 -0.2006
 2895POSM   PO433965  28.050  13.650  14.333 -0.2249  0.1894  0.1395
 2895POSM   AM133966  28.091  13.512  14.057  0.3616  0.3895  0.2636
 2895POSM   AM233967  28.292  13.475  13.847 -0.0115  0.1709 -0.2226
 2895POSM   T1A33968  28.058  13.097  13.708 -0.0004 -0.2273 -0.2953
 2895POSM   C2A33969  28.150  12.819  13.354  0.1521  0.3019 -0.2964
 2895POSM   C3A33970  28.274  12.522  13.037  0.1445  0.3197 -0.1724
 2895POSM   C1B33971  28.112  13.681  13.589 -0.0708  0.1856  0.5218
 2895POSM   D2B33972  28.089  13.789  13.132 -0.3351  0.1179  0.0047
 2895POSM   C3B33973  27.764  14.135  13.066  0.0375  0.2465  0.4021
 2895POSM   C4B33974  27.630  14.443  12.727 -0.1220  0.0708  0.3614
 2896POSM   NC333975  29.062  12.492  14.223  0.1489  0.3759 -0.5283
 2896POSM   PO433976  28.771  12.755  14.188 -0.2771  0.4155 -0.1908
 2896POSM   AM133977  28.893  13.008  13.959  0.0064  0.3861  0.2396
 2896POSM   AM233978  28.695  13.143  13.827  0.0370 -0.0600  0.0855
 2896POSM   T1A33979  29.215  13.336  13.724 -0.0717 -0.0331 -0.1115
 2896POSM   C2A33980  29.211  13.722  13.502 -0.2412  0.0673 -0.4248
 2896POSM   C3A33981  29.011  14.095  13.390 -0.2615 -0.1052  0.2714
 2896POSM   C1B33982  28.731  13.152  13.514  0.2380  0.1601  0.0215
 2896POSM   D2B33983  28.887  13.290  13.095  0.0500 -0.0651 -0.0807
 2896POSM   C3B33984  29.170  12.990  12.770 -0.0129 -0.0462  0.2595
 2896POSM   C4B33985  29.314  12.543  12.812 -0.1889  0.4227 -0.0461
 2897DOPC   NC333986  31.194  18.169  14.281  0.1231 -0.0910 -0.2368
 2897DOPC   PO433987  31.334  18.066  14.649  0.3010  0.1698  0.1861
 2897DOPC   GL133988  31.551  17.725  14.687  0.2678 -0.1526  0.2791
 2897DOPC   GL233989  31.827  17.747  14.698 -0.1140 -0.2178  0.0160
 2897DOPC   C1A33990  31.589  17.541  14.265  0.0012 -0.2590  0.2768
 2897DOPC   D2A33991  31.701  17.487  13.794 -0.1976 -0.1094  0.1549
 2897DOPC   C3A33992  31.949  17.712  13.481  0.2409  0.0229  0.0018
 2897DOPC   C4A33993  32.184  18.150  13.515  0.1371 -0.1799  0.1058
 2897DOPC   C1B33994  31.975  17.382  14.472  0.0353  0.0710  0.1773
 2897DOPC   D2B33995  31.885  17.158  14.119 -0.0670 -0.0798 -0.0380
 2897DOPC   C3B33996  31.850  16.935  13.736 -0.0052  0.0568  0.1601
 2897DOPC   C4B33997  31.739  16.751  13.345  0.0050  0.1575 -0.1002
 2898DOPC   NC333998  27.194  22.528  13.642 -0.1137 -0.0631 -0.0706
 2898DOPC   PO433999  27.198  22.893  13.604 -0.1505  0.0667 -0.2385
 2898DOPC   GL134000  27.147  22.587  13.207  0.2822  0.0345 -0.1614
 2898DOPC   GL234001  27.393  22.439  13.190  0.0087  0.0848 -0.1966
 2898DOPC   C1A34002  27.050  22.353  12.802 -0.0401 -0.0651 -0.1782
 2898DOPC   D2A34003  26.844  22.043  12.572  0.4026  0.0615  0.0517
 2898DOPC   C3A34004  27.069  21.676  12.382  0.0797  0.2983  0.1844
 2898DOPC   C4A34005  27.122  21.291  12.129  0.0247  0.5516  0.3327
 2898DOPC   C1B34006  27.531  22.408  12.790  0.0009  0.1861 -0.1575
 2898DOPC   D2B34007  27.479  22.528  12.401 -0.0302  0.1421  0.2698
 2898DOPC   C3B34008  27.204  22.203  12.228  0.0464  0.1344 -0.0744
 2898DOPC   C4B34009  26.957  21.931  11.976  0.1028 -0.1493 -0.0696
 2899POSM   NC334010  26.388  24.325  13.222 -0.0166 -0.1430  0.1059
 2899POSM   PO434011  26.013  24.478  13.344  0.0965  0.0014  0.1550
 2899POSM   AM134012  25.881  24.481  13.047 -0.2235  0.0054 -0.2225
 2899POSM   AM234013  26.059  24.518  12.825 -0.0983  0.1518  0.2221
 2899POSM   T1A34014  25.431  24.564  12.825  0.2434 -0.0341 -0.5633
 2899POSM   C2A34015  25.303  24.518  12.366 -0.2527 -0.1028  0.1189
 2899POSM   C3A34016  25.222  24.394  11.956 -0.0559 -0.2122 -0.0248
 2899POSM   C1B34017  26.031  24.545  12.481  0.5195 -0.1910 -0.0227
 2899POSM   D2B34018  26.093  24.503  12.058  0.0609 -0.4139 -0.0298
 2899POSM   C3B34019  26.204  24.164  11.750 -0.0357  0.2089 -0.2552
 2899POSM   C4B34020  26.366  23.753  11.676 -0.2596  0.2334 -0.3245
 2900DOPC   NC334021  30.532  15.794  14.659  0.1054  0.3145  0.2562
 2900DOPC   PO434022  30.274  15.497  14.660  0.1474 -0.0238 -0.0915
 2900DOPC   GL134023  30.208  15.665  14.263 -0.0603  0.2699  0.0574
 2900DOPC   GL234024  30.097  15.381  14.157 -0.2715 -0.1692 -0.5074
 2900DOPC   C1A34025  30.341  15.786  13.846  0.2366  0.1039 -0.3746
 2900DOPC   D2A34026  30.316  16.075  13.484 -0.1127  0.3480  0.2184
 2900DOPC   C3A34027  30.761  16.177  13.349 -0.2753  0.0759  0.2898
 2900DOPC   C4A34028  31.175  16.145  13.498 -0.3555  0.4766 -0.0185
 2900DOPC   C1B34029  29.889  15.334  13.783 -0.0171 -0.0123  0.0001
 2900DOPC   D2B34030  29.815  15.236  13.367 -0.0849  0.0112  0.0606
 2900DOPC   C3B34031  30.184  15.427  13.105 -0.1378  0.2213  0.1182
 2900DOPC   C4B34032  30.548  15.352  12.789  0.0767 -0.1392 -0.1320
 2901POSM   NC334033  24.321  23.790  13.546  0.0903  0.2429  0.1030
 2901POSM   PO434034  24.319  23.381  13.462 -0.2036  0.3803  0.3980
 2901POSM   AM134035  24.189  23.388  13.176  0.0216  0.0476 -0.3805
 2901POSM   AM234036  24.233  23.279  12.936  0.1661  0.0604  0.2094
 2901POSM   T1A34037  23.727  23.277  13.051  0.0171  0.0539 -0.0693
 2901POSM   C2A34038  23.449  23.087  12.776  0.1433  0.0378  0.1722
 2901POSM   C3A34039  23.287  22.787  12.404 -0.0954 -0.1118  0.0397
 2901POSM   C1B34040  24.022  23.362  12.683 -0.3158 -0.0692  0.0805
 2901POSM   D2B34041  23.963  23.657  12.297  0.1689  0.1959  0.3590
 2901POSM   C3B34042  24.009  23.615  11.831 -0.1788  0.5385 -0.0912
 2901POSM   C4B34043  24.062  23.489  11.384  0.0758 -0.0007 -0.1806
 2902DOPC   NC334044  25.471  20.295  12.894  0.3947  0.1167 -0.1082
 2902DOPC   PO434045  25.741  20.426  13.122  0.2650  0.0866 -0.1214
 2902DOPC   GL134046  26.019  20.338  12.772 -0.3206 -0.0540  0.2934
 2902DOPC   GL234047  26.106  20.119  12.911 -0.1818  0.2596  0.1775
 2902DOPC   C1A34048  26.326  20.136  12.469 -0.1904 -0.1990 -0.0182
 2902DOPC   D2A34049  26.572  19.982  12.175 -0.1228 -0.4369 -0.2192
 2902DOPC   C3A34050  26.672  19.563  11.999 -0.0970  0.0722 -0.1668
 2902DOPC   C4A34051  26.896  19.159  12.003 -0.3355 -0.0073  0.1522
 2902DOPC   C1B34052  26.546  20.259  12.934  0.1877 -0.0219  0.2420
 2902DOPC   D2B34053  26.978  20.213  12.848 -0.1833  0.1030 -0.1129
 2902DOPC   C3B34054  27.198  20.269  12.485 -0.2352 -0.2760 -0.1164
 2902DOPC   C4B34055  27.262  20.156  12.033 -0.0837 -0.1705 -0.0997
 2903POSM   NC334056  26.999  23.732  12.997  0.0211  0.0657  0.4873
 2903POSM   PO434057  26.790  24.025  13.150  0.0064  0.2268 -0.0569
 2903POSM   AM134058  26.640  23.998  12.889  0.0347  0.5270 -0.3764
 2903POSM   AM234059  26.554  23.714  12.785  0.5201 -0.3362 -0.1917
 2903POSM   T1A34060  26.543  24.269  12.539  0.2090 -0.2191 -0.0668
 2903POSM   C2A34061  26.576  24.283  12.068  0.0439  0.0468 -0.1768
 2903POSM   C3A34062  26.751  24.155  11.698 -0.0303 -0.3151 -0.1408
 2903POSM   C1B34063  26.703  23.761  12.483 -0.4891 -0.3209 -0.2575
 2903POSM   D2B34064  26.849  23.802  12.024 -0.2173  0.0516 -0.0704
 2903POSM   C3B34065  27.256  23.990  11.871  0.1637  0.0749  0.1513
 2903POSM   C4B34066  27.592  23.931  11.558 -0.1797  0.0215  0.0797
 2904DOPE   NH334067  24.441  20.765  13.146 -0.0177 -0.1261  0.1099
 2904DOPE   PO434068  24.730  20.692  13.052 -0.1976 -0.0658  0.1946
 2904DOPE   GL134069  24.819  20.728  12.701 -0.0490  0.2307 -0.0863
 2904DOPE   GL234070  24.990  20.378  12.671  0.1430 -0.2269 -0.4029
 2904DOPE   C1A34071  24.626  20.578  12.320 -0.1454 -0.1137 -0.0707
 2904DOPE   D2A34072  24.568  20.338  11.928  0.0344 -0.4039 -0.1077
 2904DOPE   C3A34073  24.994  20.301  11.700 -0.1324  0.0192  0.0216
 2904DOPE   C4A34074  25.093  20.093  11.287  0.1635 -0.2837  0.1115
 2904DOPE   C1B34075  25.011  20.202  12.253 -0.0965  0.2862  0.2697
 2904DOPE   D2B34076  24.854  19.878  11.929  0.0632 -0.3527  0.1339
 2904DOPE   C3B34077  25.031  19.537  11.679  0.0942  0.1352  0.1301
 2904DOPE   C4B34078  25.025  19.147  11.453 -0.0398 -0.1433 -0.0283
 2905DOPC   NC334079  31.054  15.636  14.753 -0.4917 -0.0885  0.2194
 2905DOPC   PO434080  30.948  15.928  15.017  0.1560  0.5107 -0.0328
 2905DOPC   GL134081  30.878  16.099  14.695 -0.2573  0.0703  0.0201
 2905DOPC   GL234082  31.017  16.274  14.544  0.0027  0.3129 -0.1393
 2905DOPC   C1A34083  30.758  15.936  14.265  0.2772  0.3640 -0.2157
 2905DOPC   D2A34084  30.822  16.031  13.812 -0.0641 -0.4026 -0.0927
 2905DOPC   C3A34085  30.753  15.680  13.569 -0.2488  0.1350  0.0535
 2905DOPC   C4A34086  30.556  15.735  13.133  0.3988  0.0538 -0.3751
 2905DOPC   C1B34087  31.218  15.898  14.286  0.3782 -0.3322 -0.0666
 2905DOPC   D2B34088  31.269  15.588  13.911  0.0382 -0.0061 -0.0442
 2905DOPC   C3B34089  31.381  15.584  13.451 -0.0299  0.0236  0.1216
 2905DOPC   C4B34090  31.112  15.450  13.155 -0.2228 -0.0913  0.1136
 2906DOPC   NC334091  29.975  13.847  14.514  0.1591 -0.2233  0.1278
 2906DOPC   PO434092  30.385  13.960  14.467  0.4688 -0.1156 -0.0415
 2906DOPC   GL134093  30.375  13.887  14.073  0.0725  0.1935  0.0059
 2906DOPC   GL234094  30.234  13.662  14.048 -0.1719 -0.0642 -0.0747
 2906DOPC   C1A34095  30.573  13.856  13.654  0.3515  0.1884  0.6943
 2906DOPC   D2A34096  30.695  13.895  13.213 -0.3642  0.2674  0.1896
 2906DOPC   C3A34097  31.086  13.751  12.971  0.0706 -0.1800 -0.2232
 2906DOPC   C4A34098  31.530  13.607  12.925  0.1959  0.3065 -0.0818
 2906DOPC   C1B34099  30.401  13.418  13.702  0.6750  0.2240 -0.2025
 2906DOPC   D2B34100  30.630  13.429  13.313 -0.1292  0.1951  0.0961
 2906DOPC   C3B34101  30.357  13.371  12.933 -0.1781 -0.0370 -0.1206
 2906DOPC   C4B34102  29.934  13.205  12.847  0.0351  0.2744 -0.2329
 2907DOPC   NC334103  27.439  17.979  13.937 -0.2413  0.0716 -0.1502
 2907DOPC   PO434104  27.361  18.325  14.061 -0.1324 -0.1959  0.0735
 2907DOPC   GL134105  27.472  18.525  13.780 -0.2436 -0.2503 -0.0950
 2907DOPC   GL234106  27.747  18.559  13.788 -0.1692  0.1385  0.1726
 2907DOPC   C1A34107  27.379  18.710  13.362  0.1396 -0.0054 -0.0270
 2907DOPC   D2A34108  27.508  18.928  12.946  0.0704  0.0263  0.0124
 2907DOPC   C3A34109  27.719  18.665  12.648 -0.0019  0.1400 -0.0628
 2907DOPC   C4A34110  27.851  18.184  12.592  0.0976  0.1999  0.0800
 2907DOPC   C1B34111  27.582  18.227  13.499 -0.0609 -0.0808  0.0266
 2907DOPC   D2B34112  27.748  17.931  13.198 -0.2338  0.1384  0.1432
 2907DOPC   C3B34113  28.211  17.909  13.076  0.3978  0.2686 -0.1243
 2907DOPC   C4B34114  28.359  17.912  12.602  0.0030 -0.0555 -0.0128
 2908DOPC   NC334115   1.192  18.880  15.224 -0.2745  0.3918  0.1351
 2908DOPC   PO434116   1.434  19.079  14.905 -0.2739  0.2439 -0.2457
 2908DOPC   GL134117   1.531  18.712  14.710 -0.0466  0.1693 -0.0952
 2908DOPC   GL234118   1.380  18.779  14.456  0.0492  0.0727  0.0330
 2908DOPC   C1A34119   1.346  18.277  14.684  0.2300 -0.1896  0.1940
 2908DOPC   D2A34120   1.080  17.924  14.942 -0.1504  0.0370  0.1704
 2908DOPC   C3A34121   0.958  17.622  14.599 -0.0719 -0.1512 -0.1060
 2908DOPC   C4A34122   0.552  17.637  14.492  0.0849  0.0435 -0.1756
 2908DOPC   C1B34123   1.315  19.061  14.113  0.4279  0.0312  0.1830
 2908DOPC   D2B34124   1.516  19.427  13.953  0.1327  0.4133  0.0823
 2908DOPC   C3B34125   1.942  19.456  13.730  0.1831 -0.0614  0.0413
 2908DOPC   C4B34126   2.176  19.560  13.338  0.2280 -0.1150 -0.1829
 2909DOPS   CNO34127  29.814  20.173  14.396 -0.1003 -0.0514 -0.2901
 2909DOPS   PO434128  29.607  20.238  14.076 -0.1128 -0.1800  0.1351
 2909DOPS   GL134129  29.682  20.128  13.686  0.0522 -0.0554  0.1384
 2909DOPS   GL234130  29.896  19.960  13.801 -0.6036 -0.1265 -0.0835
 2909DOPS   C1A34131  29.765  19.942  13.255  0.0629  0.1258  0.0357
 2909DOPS   D2A34132  29.943  19.892  12.800  0.1116 -0.0624 -0.2760
 2909DOPS   C3A34133  30.303  20.083  12.613 -0.0679  0.0285  0.3139
 2909DOPS   C4A34134  30.501  20.330  12.265  0.0023 -0.1698  0.0379
 2909DOPS   C1B34135  29.774  19.518  13.631  0.1354 -0.1825  0.0831
 2909DOPS   D2B34136  29.623  19.261  13.347 -0.0281 -0.0442 -0.0117
 2909DOPS   C3B34137  29.988  19.005  13.234 -0.0782  0.2082  0.0879
 2909DOPS   C4B34138  30.078  18.618  13.402 -0.2513 -0.2230  0.2554
 2910DOPC   NC334139  31.028  19.830  14.273  0.2434 -0.1409 -0.0594
 2910DOPC   PO434140  30.675  19.674  14.291 -0.0668 -0.2597  0.1110
 2910DOPC   GL134141  30.581  19.330  13.954  0.1140 -0.2784 -0.4763
 2910DOPC   GL234142  30.297  19.267  13.848 -0.0986  0.1531  0.2437
 2910DOPC   C1A34143  30.750  19.299  13.544 -0.0691 -0.3251  0.1921
 2910DOPC   D2A34144  30.778  19.345  13.100 -0.0034 -0.4868 -0.0188
 2910DOPC   C3A34145  30.396  19.232  12.916  0.0510  0.0861  0.1142
 2910DOPC   C4A34146  30.072  18.984  12.730  0.0865  0.2183  0.0543
 2910DOPC   C1B34147  30.020  18.985  13.735  0.2471 -0.0806  0.0158
 2910DOPC   D2B34148  29.636  18.816  13.601 -0.0737  0.1777 -0.2213
 2910DOPC   C3B34149  29.597  18.615  13.190  0.2658  0.5684 -0.2062
 2910DOPC   C4B34150  29.812  18.517  12.845  0.3321 -0.1594  0.1841
 2911DOPS   CNO34151  33.872  16.918  15.423 -0.2219 -0.0628  0.1919
 2911DOPS   PO434152  34.135  17.136  15.291  0.0112 -0.0268 -0.0356
 2911DOPS   GL134153  34.146  17.242  14.991  0.2151  0.0719 -0.0088
 2911DOPS   GL234154  34.401  17.108  14.839 -0.0417  0.0967 -0.1953
 2911DOPS   C1A34155  33.977  17.348  14.609  0.1940  0.0981  0.0621
 2911DOPS   D2A34156  33.797  17.595  14.294 -0.1904 -0.2382 -0.0140
 2911DOPS   C3A34157  33.932  17.827  13.869 -0.1272 -0.0272  0.0160
 2911DOPS   C4A34158  34.208  18.003  13.465 -0.0954 -0.2539  0.2599
 2911DOPS   C1B34159  34.667  17.249  14.497  0.4049  0.0087  0.0982
 2911DOPS   D2B34160  34.768  17.051  14.090  0.0743 -0.2437 -0.2353
 2911DOPS   C3B34161  34.483  17.087  13.738 -0.0491 -0.0405  0.0660
 2911DOPS   C4B34162  34.103  17.002  13.462  0.1331 -0.0116  0.0634
 2912POSM   NC334163   0.481   9.330  14.989  0.0513 -0.1393 -0.1049
 2912POSM   PO434164   0.319   9.642  15.189 -0.0778  0.0022  0.1576
 2912POSM   AM134165   0.418   9.834  14.970 -0.0082 -0.2173 -0.2593
 2912POSM   AM234166   0.654   9.842  14.838 -0.1339  0.0392  0.1761
 2912POSM   T1A34167   0.462  10.236  14.631 -0.0497  0.1911  0.0700
 2912POSM   C2A34168   0.464  10.273  14.215  0.2644  0.1620 -0.0996
 2912POSM   C3A34169   0.459  10.458  13.763 -0.0307  0.0338  0.1083
 2912POSM   C1B34170   0.634   9.752  14.542  0.1203  0.2984 -0.2151
 2912POSM   D2B34171   0.749   9.757  14.080  0.0150  0.0256 -0.0920
 2912POSM   C3B34172   0.960   9.530  13.705 -0.1775  0.1356  0.1461
 2912POSM   C4B34173   1.224   9.398  13.389 -0.2091 -0.2319 -0.1288
 2913DOPS   CNO34174  29.087  20.423  13.709  0.1202 -0.0254  0.0800
 2913DOPS   PO434175  28.766  20.528  13.755  0.1453  0.1827 -0.1900
 2913DOPS   GL134176  28.591  20.378  13.513  0.0051  0.1727  0.0603
 2913DOPS   GL234177  28.726  20.134  13.450  0.1013  0.0604  0.2790
 2913DOPS   C1A34178  28.079  20.269  13.517  0.6091  0.2229  0.0734
 2913DOPS   D2A34179  27.624  20.074  13.624 -0.0119  0.1769 -0.0124
 2913DOPS   C3A34180  27.385  19.708  13.350 -0.4256  0.0869  0.4385
 2913DOPS   C4A34181  27.370  19.373  13.027 -0.0543 -0.1655  0.1212
 2913DOPS   C1B34182  28.845  19.801  13.176  0.1648  0.1065  0.2374
 2913DOPS   D2B34183  28.880  19.562  12.815  0.3624 -0.2148  0.1100
 2913DOPS   C3B34184  28.958  19.944  12.560 -0.0877  0.2687 -0.0039
 2913DOPS   C4B34185  29.140  20.436  12.508  0.0291 -0.2045 -0.1619
 2914DOPS   CNO34186  23.094  17.635  13.512  0.0601  0.4952  0.0195
 2914DOPS   PO434187  23.115  17.396  13.232 -0.1804 -0.0871  0.1178
 2914DOPS   GL134188  22.911  17.286  12.997 -0.2174  0.0717 -0.2183
 2914DOPS   GL234189  23.000  17.059  12.754  0.2961 -0.3321 -0.0071
 2914DOPS   C1A34190  22.734  17.424  12.601 -0.2316  0.0363  0.1908
 2914DOPS   D2A34191  22.817  17.267  12.159 -0.0250  0.0623 -0.3375
 2914DOPS   C3A34192  23.282  17.253  11.992 -0.0164 -0.0064  0.0053
 2914DOPS   C4A34193  23.423  17.173  11.587  0.2535 -0.2772  0.0014
 2914DOPS   C1B34194  22.871  16.832  12.399 -0.0375 -0.0601 -0.0811
 2914DOPS   D2B34195  22.982  16.646  11.992 -0.3037 -0.1070  0.0183
 2914DOPS   C3B34196  22.892  16.837  11.622 -0.2335  0.0610 -0.2302
 2914DOPS   C4B34197  22.838  17.249  11.486 -0.3215 -0.0657  0.3917
 2915DOPE   NH334198  26.397  15.493  14.290  0.0554 -0.0837 -0.1919
 2915DOPE   PO434199  26.499  15.787  14.200  0.1253 -0.3123 -0.1333
 2915DOPE   GL134200  26.705  16.093  13.919 -0.1324 -0.3025 -0.2405
 2915DOPE   GL234201  27.045  16.149  14.010  0.1387  0.1646 -0.2265
 2915DOPE   C1A34202  26.772  16.044  13.487  0.1583  0.3865 -0.1212
 2915DOPE   D2A34203  27.054  15.809  13.185  0.0202  0.2597  0.1507
 2915DOPE   C3A34204  27.110  15.905  12.691 -0.1959  0.1390  0.1578
 2915DOPE   C4A34205  26.946  16.309  12.441  0.0454  0.0367  0.0410
 2915DOPE   C1B34206  27.093  16.623  14.002 -0.1747 -0.0125  0.0122
 2915DOPE   D2B34207  26.959  16.913  13.679 -0.2567  0.0260 -0.0228
 2915DOPE   C3B34208  27.119  16.886  13.271  0.0825  0.1830 -0.4282
 2915DOPE   C4B34209  27.135  17.114  12.914  0.2297  0.0340 -0.0712
 2916DOPE   NH334210  32.512  12.234  15.049  0.1616  0.1116 -0.3216
 2916DOPE   PO434211  32.231  12.091  15.105  0.1263 -0.1813  0.0882
 2916DOPE   GL134212  32.043  12.244  14.792  0.2256  0.2427  0.0909
 2916DOPE   GL234213  32.162  12.498  14.763  0.1154  0.2120 -0.0561
 2916DOPE   C1A34214  31.685  12.523  14.585  0.0489 -0.1998  0.0218
 2916DOPE   D2A34215  31.599  12.953  14.625  0.3463  0.0800  0.0239
 2916DOPE   C3A34216  31.296  13.113  14.263 -0.1091  0.0159 -0.0127
 2916DOPE   C4A34217  31.326  13.191  13.800  0.0606  0.5271  0.1566
 2916DOPE   C1B34218  32.066  12.927  14.785  0.0589  0.0228  0.3227
 2916DOPE   D2B34219  32.010  13.217  14.422 -0.2779  0.0444  0.0100
 2916DOPE   C3B34220  31.830  12.875  14.139  0.0526  0.1385 -0.2534
 2916DOPE   C4B34221  31.584  12.498  14.067 -0.3777 -0.1161  0.1639
 2917DOPE   NH334222  30.652  23.151  14.235 -0.3107  0.0415 -0.2044
 2917DOPE   PO434223  30.765  23.020  14.002  0.6579 -0.3535 -0.0387
 2917DOPE   GL134224  30.580  22.853  13.701  0.2752  0.0655 -0.1083
 2917DOPE   GL234225  30.671  22.563  13.567 -0.1675 -0.1888  0.0498
 2917DOPE   C1A34226  30.866  22.928  13.279 -0.2054 -0.2440  0.2294
 2917DOPE   D2A34227  30.982  23.186  12.868  0.2203 -0.0597 -0.3930
 2917DOPE   C3A34228  31.192  22.944  12.442 -0.1027 -0.1037 -0.2380
 2917DOPE   C4A34229  31.209  22.780  11.997 -0.0968 -0.1759  0.0892
 2917DOPE   C1B34230  30.525  22.540  13.177  0.1338  0.1798 -0.2095
 2917DOPE   D2B34231  30.485  22.383  12.753  0.3655  0.2563  0.2203
 2917DOPE   C3B34232  30.393  22.754  12.535 -0.1285  0.2023 -0.0690
 2917DOPE   C4B34233  30.542  22.989  12.189 -0.1689 -0.1069 -0.0101
 2918DOPC   NC334234  27.304  21.553  13.304 -0.0693 -0.1233  0.2823
 2918DOPC   PO434235  27.529  21.249  13.296 -0.1047 -0.1222  0.1475
 2918DOPC   GL134236  27.787  21.386  13.032  0.0958 -0.1781 -0.1620
 2918DOPC   GL234237  27.608  21.545  12.875  0.1290 -0.0330 -0.0353
 2918DOPC   C1A34238  27.971  21.271  12.652 -0.2408 -0.1223 -0.0611
 2918DOPC   D2A34239  27.959  21.092  12.223  0.1341  0.0500  0.1020
 2918DOPC   C3A34240  28.041  21.192  11.788 -0.1535 -0.0786 -0.0834
 2918DOPC   C4A34241  28.180  21.325  11.386 -0.3135 -0.3627 -0.4646
 2918DOPC   C1B34242  27.516  21.149  12.619 -0.0973 -0.1965  0.1797
 2918DOPC   D2B34243  27.474  20.928  12.261 -0.0008  0.3368 -0.0229
 2918DOPC   C3B34244  27.763  20.779  11.896  0.1250 -0.0936 -0.5165
 2918DOPC   C4B34245  27.702  20.959  11.445 -0.1001 -0.1679 -0.0844
 2919DOPC   NC334246  34.415  13.368  14.977  0.0386 -0.0415  0.3893
 2919DOPC   PO434247  34.297  13.201  15.303  0.1116 -0.1229  0.0286
 2919DOPC   GL134248  34.518  12.900  15.151  0.3455  0.0544 -0.0881
 2919DOPC   GL234249  34.327  12.749  15.103  0.2526 -0.1187  0.0773
 2919DOPC   C1A34250  34.592  12.762  14.714 -0.3988 -0.2598 -0.0202
 2919DOPC   D2A34251  34.944  12.582  14.453  0.0667  0.2345  0.1495
 2919DOPC   C3A34252  34.850  12.676  14.006  0.0036  0.2205  0.3239
 2919DOPC   C4A34253  34.614  12.684  13.548  0.0702 -0.0050 -0.3985
 2919DOPC   C1B34254  34.118  12.629  14.662 -0.1790 -0.2621 -0.2214
 2919DOPC   D2B34255  34.092  12.855  14.275 -0.1284  0.0239  0.1966
 2919DOPC   C3B34256  33.708  12.952  14.111  0.1785 -0.2116 -0.0982
 2919DOPC   C4B34257  33.332  13.216  13.951  0.1584 -0.2419 -0.0658
 2920POSM   NC334258  26.938  17.837  14.285  0.0835 -0.3123 -0.1686
 2920POSM   PO434259  26.562  17.988  14.242 -0.0722  0.1177  0.1116
 2920POSM   AM134260  26.683  18.092  13.936 -0.0458  0.0646  0.0506
 2920POSM   AM234261  26.956  18.083  13.860 -0.1031  0.3773  0.0295
 2920POSM   T1A34262  26.564  18.299  13.509  0.2287  0.1498  0.0284
 2920POSM   C2A34263  26.309  18.382  13.131 -0.1791 -0.0021  0.2153
 2920POSM   C3A34264  25.997  18.287  12.764  0.1479  0.0407 -0.2719
 2920POSM   C1B34265  27.084  17.957  13.528  0.1034 -0.0885 -0.2544
 2920POSM   D2B34266  27.277  17.964  13.114  0.0301 -0.0781 -0.2445
 2920POSM   C3B34267  27.013  17.696  12.849  0.3312 -0.1152 -0.2607
 2920POSM   C4B34268  26.753  17.782  12.450  0.0288 -0.1488  0.0508
 2921POSM   NC334269  25.534  23.344  12.994  0.1492 -0.0153  0.0618
 2921POSM   PO434270  25.838  23.469  13.214  0.2233 -0.0934  0.1926
 2921POSM   AM134271  25.813  23.743  13.048 -0.4359  0.0216 -0.0266
 2921POSM   AM234272  25.959  24.018  13.087 -0.0276  0.1121  0.0976
 2921POSM   T1A34273  25.626  24.062  12.710 -0.1473 -0.2400  0.2099
 2921POSM   C2A34274  25.655  24.257  12.258 -0.1925  0.2660  0.2278
 2921POSM   C3A34275  25.679  24.116  11.855  0.1862  0.0059  0.1476
 2921POSM   C1B34276  26.094  24.061  12.809  0.1961  0.1094 -0.3765
 2921POSM   D2B34277  26.159  24.042  12.341 -0.0031  0.2363 -0.1190
 2921POSM   C3B34278  26.288  23.677  12.178  0.0893 -0.0480 -0.0546
 2921POSM   C4B34279  26.376  23.320  11.939  0.0078 -0.1302  0.0168
 2922DOPE   NH334280  25.419  16.673  13.902  0.0177  0.0534 -0.0329
 2922DOPE   PO434281  25.242  16.398  13.762 -0.0686  0.1244  0.1311
 2922DOPE   GL134282  25.596  16.415  13.565  0.0804  0.0226  0.2389
 2922DOPE   GL234283  25.500  16.572  13.348  0.0696  0.0955  0.4226
 2922DOPE   C1A34284  25.751  15.991  13.368 -0.0584 -0.0853  0.0600
 2922DOPE   D2A34285  26.105  15.724  13.456  0.1530 -0.1355 -0.0620
 2922DOPE   C3A34286  26.459  15.706  13.093  0.2404 -0.3116 -0.0276
 2922DOPE   C4A34287  26.651  16.007  12.873 -0.2591 -0.1450  0.1920
 2922DOPE   C1B34288  25.849  16.669  13.093  0.0396  0.1891  0.2128
 2922DOPE   D2B34289  26.278  16.828  12.984 -0.0264  0.0485 -0.4361
 2922DOPE   C3B34290  26.708  16.840  12.826  0.0753  0.0937 -0.1443
 2922DOPE   C4B34291  27.099  16.719  12.623  0.0061  0.1161 -0.0560
 2923DOPE   NH334292  22.553  19.010  13.119  0.1573 -0.2762  0.3205
 2923DOPE   PO434293  22.678  19.032  12.781 -0.0323  0.0395 -0.1557
 2923DOPE   GL134294  22.481  18.738  12.411  0.2585 -0.1400 -0.1506
 2923DOPE   GL234295  22.182  18.799  12.282  0.1884  0.0581  0.1745
 2923DOPE   C1A34296  22.799  18.515  12.234  0.0760 -0.0757  0.2462
 2923DOPE   D2A34297  23.060  18.224  12.022 -0.3115 -0.1227 -0.1363
 2923DOPE   C3A34298  23.190  17.873  12.337 -0.1653 -0.0617 -0.0876
 2923DOPE   C4A34299  23.504  17.717  12.645 -0.0277 -0.0458 -0.1374
 2923DOPE   C1B34300  21.849  18.503  12.281  0.0959  0.0903  0.0520
 2923DOPE   D2B34301  21.731  18.120  12.161  0.0219 -0.0921  0.2685
 2923DOPE   C3B34302  22.118  18.008  11.913  0.1140 -0.1137  0.1213
 2923DOPE   C4B34303  22.405  18.053  11.579  0.3463 -0.2152  0.2045
 2924DOPE   NH334304  28.148  21.954  13.631  0.0734  0.2959 -0.3029
 2924DOPE   PO434305  28.163  22.025  13.290 -0.0879 -0.1303  0.0370
 2924DOPE   GL134306  28.388  21.918  12.920  0.0637 -0.3220  0.1534
 2924DOPE   GL234307  28.615  21.724  12.864  0.3024  0.5154  0.1154
 2924DOPE   C1A34308  28.394  22.054  12.404 -0.1023  0.2650 -0.2129
 2924DOPE   D2A34309  28.242  22.043  11.984 -0.3193 -0.1996  0.1797
 2924DOPE   C3A34310  27.944  21.677  12.018  0.1133  0.4781  0.0226
 2924DOPE   C4A34311  27.572  21.486  12.258 -0.1020  0.1811 -0.0267
 2924DOPE   C1B34312  28.419  21.473  12.480 -0.3346  0.0009 -0.0646
 2924DOPE   D2B34313  28.537  21.010  12.409 -0.1190 -0.1073  0.3467
 2924DOPE   C3B34314  28.404  20.775  12.079  0.1021  0.0279  0.0548
 2924DOPE   C4B34315  28.080  20.457  11.991 -0.1292  0.1582 -0.2597
 2925DOPC   NC334316  24.883  12.967  13.465  0.0351  0.1628 -0.0357
 2925DOPC   PO434317  24.526  12.849  13.554  0.2502 -0.0641  0.0723
 2925DOPC   GL134318  24.382  12.855  13.229  0.0020 -0.2389  0.3521
 2925DOPC   GL234319  24.385  12.636  13.074 -0.0410 -0.0752  0.1950
 2925DOPC   C1A34320  24.159  12.935  12.797  0.0184  0.2115  0.0621
 2925DOPC   D2A34321  23.988  12.957  12.348 -0.1392  0.2608  0.2790
 2925DOPC   C3A34322  23.884  13.357  12.148  0.1558  0.0085 -0.1033
 2925DOPC   C4A34323  23.623  13.527  11.848 -0.0509  0.0082  0.0653
 2925DOPC   C1B34324  24.487  12.538  12.638  0.2316 -0.0949 -0.0130
 2925DOPC   D2B34325  24.150  12.456  12.313 -0.1925  0.0184  0.0180
 2925DOPC   C3B34326  24.204  12.627  11.859  0.2065 -0.0066 -0.2497
 2925DOPC   C4B34327  24.196  12.845  11.428 -0.1056 -0.0326 -0.5275
 2926DOPC   NC334328  23.967  19.657  12.822 -0.0976 -0.0280 -0.3159
 2926DOPC   PO434329  24.151  19.987  12.765  0.2408 -0.2527  0.2476
 2926DOPC   GL134330  24.143  19.923  12.380 -0.0353  0.0108  0.0755
 2926DOPC   GL234331  24.236  20.210  12.306 -0.0949  0.0251 -0.2720
 2926DOPC   C1A34332  23.764  19.671  12.310 -0.0132 -0.0417  0.1242
 2926DOPC   D2A34333  23.476  19.391  12.094 -0.0982 -0.1305 -0.2394
 2926DOPC   C3A34334  23.674  19.096  11.764  0.4082 -0.1368  0.0485
 2926DOPC   C4A34335  23.612  18.680  11.510 -0.1168 -0.0609 -0.0344
 2926DOPC   C1B34336  23.986  20.039  11.967  0.2350  0.2299 -0.0572
 2926DOPC   D2B34337  23.819  19.611  11.726 -0.3251 -0.2927  0.0383
 2926DOPC   C3B34338  24.057  19.592  11.356 -0.0059  0.0488 -0.0853
 2926DOPC   C4B34339  24.099  19.355  10.964  0.0844  0.2333 -0.0643
 2927POSM   NC334340  26.885  15.667  14.451  0.1999 -0.2818 -0.1653
 2927POSM   PO434341  27.232  15.793  14.338 -0.0158 -0.1637 -0.2630
 2927POSM   AM134342  27.347  15.636  14.063  0.2816  0.2185 -0.0623
 2927POSM   AM234343  27.631  15.548  13.966  0.1081 -0.1251  0.0779
 2927POSM   T1A34344  27.343  15.633  13.579  0.3339 -0.0521 -0.1417
 2927POSM   C2A34345  27.584  15.549  13.233  0.0255 -0.3362  0.0543
 2927POSM   C3A34346  27.896  15.326  12.996  0.0943  0.2757  0.1778
 2927POSM   C1B34347  27.849  15.617  13.690  0.1632 -0.0784  0.0196
 2927POSM   D2B34348  28.048  15.838  13.337 -0.2759  0.4382  0.1553
 2927POSM   C3B34349  28.079  15.801  12.897  0.2839  0.2930  0.2227
 2927POSM   C4B34350  28.215  15.517  12.509  0.1908  0.5525 -0.0032
 2928DOPC   NC334351  27.998  22.922  13.481 -0.1834  0.0791 -0.1966
 2928DOPC   PO434352  27.681  22.710  13.583  0.0240 -0.0260  0.1131
 2928DOPC   GL134353  27.537  22.875  13.294  0.1451  0.0001 -0.1798
 2928DOPC   GL234354  27.680  22.981  13.040 -0.4074  0.1690  0.0832
 2928DOPC   C1A34355  27.259  22.846  12.885  0.3174  0.2529 -0.0298
 2928DOPC   D2A34356  27.037  22.771  12.486 -0.4230  0.0818  0.1135
 2928DOPC   C3A34357  26.875  23.056  12.291 -0.2032  0.3182  0.4222
 2928DOPC   C4A34358  26.535  23.290  12.425  0.1718 -0.1671  0.0701
 2928DOPC   C1B34359  27.834  22.810  12.653  0.1214 -0.1223 -0.0072
 2928DOPC   D2B34360  28.002  22.483  12.428  0.1855 -0.1517 -0.2891
 2928DOPC   C3B34361  27.936  22.423  11.989  0.3190  0.0815 -0.0236
 2928DOPC   C4B34362  27.503  22.410  11.817 -0.2669 -0.1586 -0.1417
 2929DOPE   NH334363  29.603  13.053  14.782  0.0140  0.0565  0.3702
 2929DOPE   PO434364  29.825  12.847  14.880 -0.1973 -0.0999  0.0120
 2929DOPE   GL134365  29.866  12.733  14.400 -0.1151  0.1709  0.3415
 2929DOPE   GL234366  29.648  12.980  14.275  0.1160  0.2756 -0.0904
 2929DOPE   C1A34367  30.096  12.387  14.165  0.0625  0.0134 -0.3188
 2929DOPE   D2A34368  30.520  12.252  14.091  0.0535 -0.1656  0.1548
 2929DOPE   C3A34369  30.788  12.347  14.376 -0.0573  0.2804 -0.0738
 2929DOPE   C4A34370  31.224  12.540  14.411  0.2023  0.0881 -0.3420
 2929DOPE   C1B34371  29.994  12.826  13.994  0.0053 -0.0749 -0.2853
 2929DOPE   D2B34372  30.022  12.581  13.597 -0.1364 -0.1109  0.0176
 2929DOPE   C3B34373  30.235  12.410  13.185 -0.0753 -0.2032 -0.0134
 2929DOPE   C4B34374  30.402  12.240  12.814 -0.2579 -0.4093 -0.0443
 2930DOPC   NC334375  28.253  18.667  13.936  0.0660  0.0292  0.0523
 2930DOPC   PO434376  28.535  18.833  14.127  0.2817  0.2700  0.2177
 2930DOPC   GL134377  28.758  18.832  13.791  0.2241  0.4865 -0.3403
 2930DOPC   GL234378  28.593  19.017  13.596  0.2241 -0.0494  0.0398
 2930DOPC   C1A34379  28.647  18.561  13.456 -0.2215 -0.1468  0.1770
 2930DOPC   D2A34380  28.651  18.343  13.038  0.0986  0.3688 -0.1039
 2930DOPC   C3A34381  28.831  18.374  12.570 -0.1204  0.0752 -0.0801
 2930DOPC   C4A34382  29.049  18.389  12.160  0.1634 -0.0272 -0.1034
 2930DOPC   C1B34383  28.355  19.238  13.272  0.2137 -0.1719 -0.3999
 2930DOPC   D2B34384  28.412  19.447  12.908 -0.1784  0.0046  0.2491
 2930DOPC   C3B34385  28.122  19.502  12.484  0.0117  0.0701  0.1566
 2930DOPC   C4B34386  27.724  19.633  12.278  0.0660  0.1542  0.0751
 2931DOPE   NH334387  23.069  21.427  12.602  0.3000  0.0751 -0.1030
 2931DOPE   PO434388  23.114  21.167  12.455  0.0651  0.0894  0.2314
 2931DOPE   GL134389  23.210  21.136  12.079 -0.3523  0.0766  0.1501
 2931DOPE   GL234390  22.952  20.918  12.031 -0.3495  0.0444 -0.1985
 2931DOPE   C1A34391  23.518  21.339  11.755  0.0380 -0.1942  0.0327
 2931DOPE   D2A34392  23.741  21.236  11.353 -0.2093 -0.1676 -0.3348
 2931DOPE   C3A34393  23.814  20.884  11.072  0.0065 -0.1809 -0.0631
 2931DOPE   C4A34394  23.490  20.768  10.771  0.0782  0.2106  0.2334
 2931DOPE   C1B34395  23.272  20.773  11.727  0.3097 -0.2258  0.0684
 2931DOPE   D2B34396  23.356  20.953  11.315 -0.2039  0.0897 -0.0012
 2931DOPE   C3B34397  23.006  21.150  11.045  0.0775  0.1452  0.0668
 2931DOPE   C4B34398  22.720  21.448  10.882 -0.2644 -0.1539 -0.0307
 2932DOPE   NH334399  32.686  12.981  15.371  0.2953 -0.2062 -0.0090
 2932DOPE   PO434400  32.661  12.681  15.285 -0.3752 -0.2016  0.0289
 2932DOPE   GL134401  32.500  12.956  14.859 -0.1654  0.2398  0.1422
 2932DOPE   GL234402  32.724  13.107  14.876  0.1496  0.2008 -0.0755
 2932DOPE   C1A34403  32.439  12.844  14.420  0.1293  0.1828 -0.0677
 2932DOPE   D2A34404  32.327  13.088  14.037 -0.0466  0.0136  0.0728
 2932DOPE   C3A34405  32.519  13.329  13.766 -0.0778  0.5048 -0.0540
 2932DOPE   C4A34406  32.758  13.462  13.435 -0.1746 -0.1341 -0.1560
 2932DOPE   C1B34407  33.079  12.850  14.810  0.2094  0.1106 -0.3165
 2932DOPE   D2B34408  33.263  12.684  14.395 -0.0617 -0.0257 -0.0636
 2932DOPE   C3B34409  33.337  12.640  13.958 -0.1730  0.0649  0.1507
 2932DOPE   C4B34410  33.000  12.895  13.694  0.0226 -0.0098 -0.1160
 2933DOPC   NC334411  26.785  18.490  14.088 -0.2734 -0.2127  0.3186
 2933DOPC   PO434412  26.684  18.869  13.986  0.0087  0.0600 -0.1058
 2933DOPC   GL134413  26.891  18.817  13.659  0.4182  0.0128  0.3235
 2933DOPC   GL234414  27.007  18.582  13.655 -0.0566 -0.4090  0.0122
 2933DOPC   C1A34415  26.760  18.911  13.208 -0.0789  0.0564  0.1382
 2933DOPC   D2A34416  26.936  19.049  12.796 -0.1451 -0.1219  0.1228
 2933DOPC   C3A34417  27.041  18.833  12.439 -0.1242  0.0270 -0.0088
 2933DOPC   C4A34418  27.398  18.813  12.170  0.1481  0.1130 -0.0817
 2933DOPC   C1B34419  26.979  18.387  13.232  0.0401  0.2355  0.1833
 2933DOPC   D2B34420  27.089  18.510  12.815 -0.0526 -0.2434  0.2809
 2933DOPC   C3B34421  26.962  18.314  12.378  0.0967 -0.2503 -0.0867
 2933DOPC   C4B34422  27.048  18.495  11.988 -0.1870 -0.0239  0.0239
 2934DOPC   NC334423  26.291  19.292  13.515  0.0012  0.0331 -0.1066
 2934DOPC   PO434424  26.152  19.672  13.651  0.1795 -0.1077 -0.0676
 2934DOPC   GL134425  26.087  19.609  13.278  0.2159 -0.2977  0.2105
 2934DOPC   GL234426  26.274  19.735  13.148 -0.0475 -0.0165  0.0033
 2934DOPC   C1A34427  26.059  19.468  12.820  0.0523  0.2986 -0.0465
 2934DOPC   D2A34428  26.100  19.213  12.492  0.0403 -0.1809 -0.0737
 2934DOPC   C3A34429  26.126  18.933  12.114 -0.0628 -0.1277 -0.0848
 2934DOPC   C4A34430  26.408  19.069  11.737 -0.0409  0.2410 -0.4589
 2934DOPC   C1B34431  26.548  19.753  12.769  0.1708  0.1755  0.0840
 2934DOPC   D2B34432  26.586  19.411  12.448 -0.0486 -0.1658 -0.2039
 2934DOPC   C3B34433  26.553  19.009  12.379  0.1583  0.1203  0.1474
 2934DOPC   C4B34434  26.551  18.627  12.136 -0.1206 -0.1874 -0.0101
 2935DOPC   NC334435  32.713  19.961  14.232 -0.1591 -0.0571 -0.2930
 2935DOPC   PO434436  33.061  19.876  14.047 -0.0440 -0.3814 -0.0755
 2935DOPC   GL134437  33.066  19.657  13.733  0.1449  0.4779 -0.1786
 2935DOPC   GL234438  33.082  19.806  13.498  0.2652  0.1528  0.0511
 2935DOPC   C1A34439  32.754  19.367  13.522 -0.0311 -0.2113  0.0204
 2935DOPC   D2A34440  32.894  19.122  13.207  0.0465 -0.0764 -0.1871
 2935DOPC   C3A34441  33.082  19.162  12.767 -0.0830  0.0639 -0.2064
 2935DOPC   C4A34442  33.280  19.257  12.334 -0.0796 -0.0403  0.0489
 2935DOPC   C1B34443  33.122  20.269  13.332  0.2614  0.1162 -0.2783
 2935DOPC   D2B34444  33.299  20.555  12.982  0.2266  0.2065 -0.3317
 2935DOPC   C3B34445  33.739  20.431  13.090  0.1612  0.0349 -0.1682
 2935DOPC   C4B34446  33.900  20.025  12.978  0.0714 -0.0475 -0.0241
 2936DOPC   NC334447  24.029  14.869  14.017  0.0022 -0.0801  0.0561
 2936DOPC   PO434448  23.957  14.929  13.655  0.2578  0.3941  0.2893
 2936DOPC   GL134449  24.055  15.083  13.309 -0.0808 -0.0208 -0.2664
 2936DOPC   GL234450  24.015  15.386  13.198 -0.0301 -0.2797 -0.3489
 2936DOPC   C1A34451  24.077  14.940  12.838 -0.1045 -0.2726  0.2965
 2936DOPC   D2A34452  24.047  14.668  12.479 -0.1644  0.0849 -0.0246
 2936DOPC   C3A34453  24.479  14.450  12.443  0.3624  0.1519  0.1757
 2936DOPC   C4A34454  24.929  14.609  12.492 -0.4127 -0.0720  0.1477
 2936DOPC   C1B34455  24.302  15.684  12.988 -0.0385 -0.4029 -0.2674
 2936DOPC   D2B34456  24.617  15.818  12.673  0.1586  0.2642 -0.0302
 2936DOPC   C3B34457  24.973  16.053  12.802 -0.0162  0.0661 -0.0202
 2936DOPC   C4B34458  25.056  16.470  12.858 -0.1817  0.0775  0.0268
 2937DOPC   NC334459  29.065  18.742  14.231  0.0569  0.1942 -0.0649
 2937DOPC   PO434460  29.174  18.387  14.277 -0.2970  0.0649 -0.0320
 2937DOPC   GL134461  29.366  18.359  14.003 -0.1510 -0.2761 -0.4911
 2937DOPC   GL234462  29.317  18.537  13.817 -0.2285  0.0406 -0.0516
 2937DOPC   C1A34463  29.655  18.194  13.618 -0.2269 -0.1278  0.2795
 2937DOPC   D2A34464  29.907  18.139  13.255 -0.1663  0.0501 -0.0812
 2937DOPC   C3A34465  29.948  17.810  12.943 -0.0929 -0.5622 -0.0313
 2937DOPC   C4A34466  29.553  17.508  12.968  0.1711  0.1013  0.3495
 2937DOPC   C1B34467  29.227  18.339  13.365 -0.1253  0.2930  0.0628
 2937DOPC   D2B34468  29.389  18.228  12.935 -0.2426 -0.1737  0.1743
 2937DOPC   C3B34469  29.244  17.964  12.553 -0.2041  0.1998 -0.0059
 2937DOPC   C4B34470  28.796  17.877  12.412 -0.0941  0.2829 -0.2317
 2938DOPE   NH334471   1.907  22.827  14.322  0.1842 -0.0694 -0.0625
 2938DOPE   PO434472   1.681  22.710  14.156  0.0447 -0.3475  0.1222
 2938DOPE   GL134473   1.998  22.755  13.887 -0.2441  0.1551  0.1487
 2938DOPE   GL234474   2.232  22.687  13.992  0.0529  0.1852 -0.0521
 2938DOPE   C1A34475   2.129  22.803  13.467 -0.2112 -0.0336 -0.1126
 2938DOPE   D2A34476   2.195  22.997  13.040 -0.0808 -0.1076  0.0920
 2938DOPE   C3A34477   2.208  22.762  12.647 -0.1556 -0.3270  0.1382
 2938DOPE   C4A34478   2.453  22.698  12.301 -0.1911  0.2680  0.0307
 2938DOPE   C1B34479   2.420  22.509  13.705 -0.0321  0.0417 -0.2872
 2938DOPE   D2B34480   2.689  22.571  13.307 -0.1393 -0.0918 -0.2496
 2938DOPE   C3B34481   2.414  22.433  12.966  0.1950 -0.1921  0.0367
 2938DOPE   C4B34482   2.386  22.260  12.509  0.3914  0.3102 -0.0506
 2939DOPE   NH334483   0.659  15.326  15.449  0.1876  0.1914 -0.0647
 2939DOPE   PO434484   0.863  15.092  15.648  0.0548 -0.4183  0.0246
 2939DOPE   GL134485   0.883  14.963  15.204 -0.2390 -0.2298  0.0872
 2939DOPE   GL234486   0.993  15.263  15.056  0.3939 -0.1495  0.1798
 2939DOPE   C1A34487   0.767  14.695  14.843  0.1802  0.0417  0.1360
 2939DOPE   D2A34488   0.737  14.988  14.456  0.1952  0.3619  0.0377
 2939DOPE   C3A34489   1.107  14.878  14.247  0.0445  0.3374 -0.1048
 2939DOPE   C4A34490   1.282  14.561  13.929  0.0693 -0.0108 -0.1061
 2939DOPE   C1B34491   1.174  15.044  14.719  0.0763 -0.2652 -0.1118
 2939DOPE   D2B34492   1.574  15.145  14.401 -0.3452  0.1875  0.1767
 2939DOPE   C3B34493   1.651  14.815  14.101 -0.1859  0.1093 -0.2702
 2939DOPE   C4B34494   2.018  14.611  13.948  0.1834  0.1002  0.1588
 2940POSM   NC334495  28.198  20.298  14.444  0.1320 -0.2047 -0.1069
 2940POSM   PO434496  28.092  19.964  14.355  0.4330  0.1000  0.0381
 2940POSM   AM134497  28.070  19.806  14.033  0.1371  0.2476 -0.2867
 2940POSM   AM234498  27.941  19.666  13.789  0.0921  0.1743 -0.0066
 2940POSM   T1A34499  28.358  19.817  13.597 -0.2326  0.1347 -0.0306
 2940POSM   C2A34500  28.287  19.876  13.131  0.2979 -0.0246 -0.1411
 2940POSM   C3A34501  27.979  19.689  12.910 -0.0219 -0.1304  0.0451
 2940POSM   C1B34502  27.932  19.610  13.441  0.0660 -0.4228 -0.0071
 2940POSM   D2B34503  27.901  19.248  13.091 -0.1163  0.1409  0.2492
 2940POSM   C3B34504  28.103  18.983  12.716  0.0107  0.2126 -0.3444
 2940POSM   C4B34505  28.131  18.788  12.316 -0.1394  0.1094  0.0332
 2941DOPC   NC334506  29.320  11.632  14.157 -0.0496  0.4540  0.0249
 2941DOPC   PO434507  29.563  11.449  14.413  0.0212 -0.1184 -0.1586
 2941DOPC   GL134508  29.806  11.706  14.051  0.2518  0.1459 -0.4718
 2941DOPC   GL234509  29.853  11.487  13.872 -0.0852 -0.0086  0.0909
 2941DOPC   C1A34510  30.205  11.925  13.856  0.1494  0.1950  0.0363
 2941DOPC   D2A34511  30.467  12.274  13.626  0.1228 -0.0486 -0.2092
 2941DOPC   C3A34512  30.780  12.570  13.749  0.2066  0.0685  0.2269
 2941DOPC   C4A34513  31.189  12.738  13.884  0.0330  0.1025  0.3353
 2941DOPC   C1B34514  29.941  11.451  13.409  0.3146 -0.2685 -0.1999
 2941DOPC   D2B34515  29.979  11.535  12.943 -0.0984  0.0464  0.4254
 2941DOPC   C3B34516  30.262  11.463  12.543 -0.0911  0.0381  0.1720
 2941DOPC   C4B34517  30.337  11.253  12.158 -0.2122 -0.0057  0.3262
 2942POSM   NC334518  28.468  17.523  14.408 -0.2635  0.1202  0.1117
 2942POSM   PO434519  28.279  17.215  14.419  0.0743  0.1050 -0.0532
 2942POSM   AM134520  28.197  17.149  14.098  0.3261  0.3890  0.2008
 2942POSM   AM234521  28.252  16.963  13.877 -0.0249 -0.3054 -0.0314
 2942POSM   T1A34522  28.190  17.410  13.640  0.1023  0.0530 -0.0763
 2942POSM   C2A34523  28.154  17.398  13.118  0.0263  0.2957  0.0941
 2942POSM   C3A34524  28.086  17.520  12.685 -0.0240  0.0752  0.0338
 2942POSM   C1B34525  28.114  16.851  13.616  0.0882 -0.1525  0.0899
 2942POSM   D2B34526  27.982  16.452  13.455  0.0379 -0.0590  0.0516
 2942POSM   C3B34527  28.249  16.334  13.113  0.1304 -0.1967 -0.1081
 2942POSM   C4B34528  28.703  16.306  13.098  0.1826  0.2298 -0.0405
 2943POSM   NC334529  25.083  23.471  13.380 -0.0375 -0.2032  0.0991
 2943POSM   PO434530  24.722  23.602  13.264  0.2261  0.2668 -0.2757
 2943POSM   AM134531  24.487  23.738  13.078 -0.2100 -0.1388  0.2897
 2943POSM   AM234532  24.431  23.706  12.803 -0.1567  0.1286 -0.1132
 2943POSM   T1A34533  24.020  23.798  13.046 -0.1485 -0.3527  0.1158
 2943POSM   C2A34534  23.886  23.955  12.663  0.1242  0.0227 -0.0601
 2943POSM   C3A34535  24.126  24.095  12.310  0.5388  0.0564 -0.3000
 2943POSM   C1B34536  24.415  23.750  12.506 -0.4902  0.1598  0.2582
 2943POSM   D2B34537  24.420  23.809  12.033 -0.1105  0.1695  0.0262
 2943POSM   C3B34538  24.477  23.429  11.777 -0.3241 -0.1074 -0.0342
 2943POSM   C4B34539  24.662  23.048  11.653  0.0315 -0.0627  0.1446
 2944DOPS   CNO34540  28.254  20.756  13.774 -0.1141 -0.0185  0.0784
 2944DOPS   PO434541  28.103  21.014  13.553 -0.3014  0.1644  0.0000
 2944DOPS   GL134542  28.337  20.889  13.287 -0.2650 -0.3904  0.2240
 2944DOPS   GL234543  28.223  20.624  13.246 -0.0107  0.0175 -0.0009
 2944DOPS   C1A34544  28.204  20.904  12.844  0.0243 -0.1362  0.4266
 2944DOPS   D2A34545  28.076  20.645  12.457  0.1097  0.2273 -0.2221
 2944DOPS   C3A34546  28.370  20.289  12.473 -0.1749  0.1508 -0.1542
 2944DOPS   C4A34547  28.452  19.881  12.629 -0.2148 -0.1988 -0.2405
 2944DOPS   C1B34548  28.031  20.294  12.910  0.0780  0.3287  0.3266
 2944DOPS   D2B34549  27.856  20.073  12.531 -0.1044 -0.0650 -0.1693
 2944DOPS   C3B34550  28.137  19.948  12.203 -0.3485 -0.0540 -0.1257
 2944DOPS   C4B34551  28.293  19.968  11.798 -0.0628 -0.0785 -0.0114
 2945DOPC   NC334552  29.037  21.648  13.455  0.1782 -0.3049  0.0551
 2945DOPC   PO434553  29.009  21.373  13.737  0.2131  0.1296  0.0577
 2945DOPC   GL134554  28.951  21.228  13.299  0.2996  0.2320  0.0299
 2945DOPC   GL234555  28.657  21.343  13.246 -0.1361  0.3889  0.1973
 2945DOPC   C1A34556  29.051  21.397  12.927 -0.0687 -0.0549  0.1536
 2945DOPC   D2A34557  28.967  21.282  12.514  0.0084 -0.2157  0.2555
 2945DOPC   C3A34558  29.282  20.991  12.293 -0.1643 -0.1601 -0.0768
 2945DOPC   C4A34559  29.539  20.741  12.520 -0.2997  0.1486 -0.2718
 2945DOPC   C1B34560  28.683  21.095  12.881  0.1045  0.0329  0.1354
 2945DOPC   D2B34561  28.742  20.654  12.706  0.3169 -0.1586  0.1530
 2945DOPC   C3B34562  28.772  20.558  12.273  0.0874 -0.1087 -0.1760
 2945DOPC   C4B34563  28.660  20.148  12.078  0.0228 -0.1842 -0.1669
 2946DOPE   NH334564  27.226  23.336  13.276 -0.0167  0.1734 -0.1296
 2946DOPE   PO434565  27.464  23.503  13.156  0.0444 -0.0040  0.4575
 2946DOPE   GL134566  27.396  23.600  12.798 -0.0113 -0.3211 -0.0865
 2946DOPE   GL234567  27.633  23.408  12.640 -0.1871  0.1251 -0.3579
 2946DOPE   C1A34568  27.504  23.975  12.557 -0.1693  0.0379  0.2061
 2946DOPE   D2A34569  27.650  24.329  12.343  0.0122 -0.0538 -0.3207
 2946DOPE   C3A34570  27.532  24.394  11.900 -0.0940  0.4378 -0.4010
 2946DOPE   C4A34571  27.273  24.394  11.561  0.0241 -0.2476 -0.0353
 2946DOPE   C1B34572  27.389  23.131  12.354 -0.1950 -0.0203 -0.0732
 2946DOPE   D2B34573  27.232  23.004  11.949  0.0592 -0.0092 -0.0295
 2946DOPE   C3B34574  26.926  23.283  11.844  0.0960  0.1608  0.1713
 2946DOPE   C4B34575  26.780  23.617  11.529 -0.0464  0.1976  0.0290
 2947DOPE   NH334576  30.150  15.092  14.919  0.0870 -0.1098  0.0791
 2947DOPE   PO434577  30.058  14.773  14.791 -0.1506  0.3480 -0.1056
 2947DOPE   GL134578  29.972  15.017  14.454 -0.1782 -0.3065 -0.0131
 2947DOPE   GL234579  29.707  15.052  14.465 -0.1475 -0.0674  0.1202
 2947DOPE   C1A34580  29.869  14.790  14.063  0.1345 -0.1153  0.0957
 2947DOPE   D2A34581  29.981  14.767  13.597 -0.0410 -0.3221 -0.1386
 2947DOPE   C3A34582  29.995  14.593  13.172  0.3717 -0.2493 -0.1515
 2947DOPE   C4A34583  29.949  14.391  12.829  0.1624  0.2220  0.1341
 2947DOPE   C1B34584  29.444  15.410  14.270  0.0461  0.0150  0.1352
 2947DOPE   D2B34585  29.478  15.675  13.901 -0.0480 -0.4006  0.1239
 2947DOPE   C3B34586  29.414  15.526  13.493 -0.1980  0.1480  0.2121
 2947DOPE   C4B34587  29.254  15.180  13.317 -0.1965 -0.0952 -0.1177
 2948DOPC   NC334588  29.320  19.301  14.601 -0.0568 -0.3499  0.2116
 2948DOPC   PO434589  29.413  19.131  14.250  0.0813 -0.0863  0.0578
 2948DOPC   GL134590  29.215  19.112  13.827 -0.1826 -0.2079 -0.0258
 2948DOPC   GL234591  29.189  19.391  13.681 -0.3163 -0.2100  0.1498
 2948DOPC   C1A34592  29.150  18.840  13.450 -0.1393  0.1599  0.1884
 2948DOPC   D2A34593  29.043  18.629  13.020  0.1245 -0.0255  0.2260
 2948DOPC   C3A34594  29.074  18.871  12.565  0.0953  0.1493  0.2086
 2948DOPC   C4A34595  28.973  19.231  12.379  0.3136 -0.0063 -0.2070
 2948DOPC   C1B34596  29.373  19.651  13.318  0.1895 -0.3795 -0.0781
 2948DOPC   D2B34597  29.421  19.865  12.854  0.2759  0.0111 -0.3487
 2948DOPC   C3B34598  29.511  20.287  12.847  0.2010  0.1722 -0.0323
 2948DOPC   C4B34599  29.932  20.535  12.873  0.3524  0.1273 -0.2107
 2949POSM   NC334600  34.317  17.633  15.298  0.0307 -0.2352 -0.1537
 2949POSM   PO434601  34.022  17.812  15.150 -0.0846 -0.2684 -0.1120
 2949POSM   AM134602  34.114  17.811  14.867  0.2214 -0.3783  0.1332
 2949POSM   AM234603  33.979  17.946  14.620 -0.2016  0.0702  0.1447
 2949POSM   T1A34604  34.352  17.636  14.482 -0.0775 -0.1812  0.0770
 2949POSM   C2A34605  34.239  17.362  14.178 -0.0100  0.0295  0.2029
 2949POSM   C3A34606  33.934  17.241  13.885  0.2700  0.1085 -0.2679
 2949POSM   C1B34607  34.104  18.076  14.321 -0.0724 -0.2339 -0.0412
 2949POSM   D2B34608  34.177  18.314  13.916  0.0896 -0.0652  0.1752
 2949POSM   C3B34609  34.604  18.266  13.645 -0.0212  0.0200  0.2436
 2949POSM   C4B34610  34.975  18.198  13.313  0.2087 -0.0922 -0.5168
 2950POSM   NC334611  26.482  20.261  14.011  0.0075 -0.1151 -0.0837
 2950POSM   PO434612  26.831  20.060  14.078  0.1679  0.0367 -0.1713
 2950POSM   AM134613  26.868  20.136  13.739  0.1105 -0.0138  0.2754
 2950POSM   AM234614  26.931  20.360  13.571  0.0688 -0.0941 -0.1856
 2950POSM   T1A34615  26.786  19.997  13.267 -0.0858 -0.2471  0.1020
 2950POSM   C2A34616  27.003  19.751  12.956 -0.2509  0.1848  0.0434
 2950POSM   C3A34617  27.004  19.765  12.460 -0.1707 -0.2086 -0.0655
 2950POSM   C1B34618  27.197  20.280  13.296  0.0130  0.2312  0.0229
 2950POSM   D2B34619  27.540  20.143  12.993 -0.0857  0.4354  0.1580
 2950POSM   C3B34620  27.467  19.793  12.618  0.0249 -0.3509  0.1769
 2950POSM   C4B34621  27.269  19.363  12.480  0.0709  0.0580 -0.0133
 2951DOPC   NC334622  31.733  22.673  14.309 -0.0988 -0.1255 -0.1987
 2951DOPC   PO434623  31.608  22.362  14.135 -0.3539  0.3470  0.0345
 2951DOPC   GL134624  31.633  22.288  13.706 -0.4730  0.3242  0.0758
 2951DOPC   GL234625  31.744  22.042  13.658 -0.0511 -0.1302  0.1946
 2951DOPC   C1A34626  31.576  22.346  13.258  0.2470 -0.0903 -0.1944
 2951DOPC   D2A34627  31.748  22.649  12.890 -0.0763 -0.1276 -0.1150
 2951DOPC   C3A34628  31.616  23.041  12.623 -0.1322 -0.0600 -0.0609
 2951DOPC   C4A34629  31.619  23.058  12.194 -0.1431  0.0254 -0.1103
 2951DOPC   C1B34630  31.773  21.868  13.252 -0.0711 -0.0067 -0.4088
 2951DOPC   D2B34631  31.975  21.783  12.827 -0.0110 -0.3113 -0.0851
 2951DOPC   C3B34632  32.136  22.176  12.536 -0.2316 -0.4106  0.2043
 2951DOPC   C4B34633  32.127  22.317  12.111 -0.1619 -0.1488 -0.4274
 2952DOPS   CNO34634  25.922  21.493  13.515 -0.0739 -0.0748 -0.1930
 2952DOPS   PO434635  26.214  21.704  13.362  0.1284  0.1933 -0.0063
 2952DOPS   GL134636  26.534  21.579  13.046 -0.3076 -0.1432  0.3788
 2952DOPS   GL234637  26.823  21.471  13.152  0.0084  0.2042 -0.2277
 2952DOPS   C1A34638  26.666  21.568  12.630 -0.0517 -0.1660 -0.1483
 2952DOPS   D2A34639  26.687  21.172  12.344 -0.4260 -0.3626 -0.0380
 2952DOPS   C3A34640  26.461  20.851  12.137 -0.1698  0.1930 -0.0145
 2952DOPS   C4A34641  26.052  20.739  12.034 -0.0840  0.1067  0.0475
 2952DOPS   C1B34642  27.016  21.274  12.801  0.3515  0.1176  0.3753
 2952DOPS   D2B34643  26.987  20.841  12.605  0.0837  0.1834 -0.0914
 2952DOPS   C3B34644  27.031  20.781  12.150  0.2259  0.1039  0.1560
 2952DOPS   C4B34645  27.263  20.716  11.819  0.0549 -0.3153 -0.2573
 2953DOPE   NH334646   1.426  16.869  15.935  0.1302 -0.0960  0.1487
 2953DOPE   PO434647   1.484  17.023  15.661  0.0381 -0.3594 -0.0374
 2953DOPE   GL134648   1.444  17.083  15.292 -0.0718 -0.2872  0.1005
 2953DOPE   GL234649   1.337  16.803  15.257 -0.0410 -0.2451  0.5030
 2953DOPE   C1A34650   1.718  17.280  15.010  0.1859  0.1322  0.2640
 2953DOPE   D2A34651   1.893  17.520  14.700  0.0410  0.1238  0.1327
 2953DOPE   C3A34652   2.176  17.314  14.445 -0.2064 -0.0621 -0.0032
 2953DOPE   C4A34653   2.384  17.238  14.031  0.2292  0.0632 -0.0141
 2953DOPE   C1B34654   1.448  16.320  15.163 -0.2574 -0.0517  0.4598
 2953DOPE   D2B34655   1.619  16.174  14.748  0.0857 -0.0615 -0.3636
 2953DOPE   C3B34656   1.904  16.435  14.512 -0.2511  0.2057 -0.1057
 2953DOPE   C4B34657   2.134  16.737  14.262  0.2254  0.0397  0.1403
 2954DOPS   CNO34658  27.280  21.828  13.717 -0.0526  0.1501  0.0773
 2954DOPS   PO434659  27.187  22.067  13.425 -0.0072 -0.1353 -0.1198
 2954DOPS   GL134660  26.965  22.024  13.094 -0.0338 -0.1406 -0.1556
 2954DOPS   GL234661  27.183  21.849  12.935 -0.3437 -0.1983 -0.1310
 2954DOPS   C1A34662  26.522  22.098  12.953  0.1550  0.0883  0.2981
 2954DOPS   D2A34663  26.163  22.361  12.746 -0.1897  0.0675  0.1496
 2954DOPS   C3A34664  26.064  22.365  12.334 -0.1440  0.1868 -0.3326
 2954DOPS   C4A34665  26.111  22.444  11.838  0.1430 -0.1800 -0.2667
 2954DOPS   C1B34666  27.465  21.948  12.638  0.2034 -0.1000 -0.2927
 2954DOPS   D2B34667  27.713  22.113  12.284  0.4594 -0.0110 -0.3116
 2954DOPS   C3B34668  27.487  21.900  11.943 -0.1121 -0.2784 -0.2261
 2954DOPS   C4B34669  27.232  22.009  11.599  0.0766  0.1872  0.2248
 2955DOPS   CNO34670  24.588  14.888  14.047  0.1493  0.1072  0.1477
 2955DOPS   PO434671  24.946  14.856  13.939  0.3183 -0.1025 -0.2205
 2955DOPS   GL134672  25.131  14.837  13.521  0.3564 -0.3605  0.0187
 2955DOPS   GL234673  24.891  14.750  13.391  0.2445  0.1244 -0.0268
 2955DOPS   C1A34674  25.519  14.980  13.283 -0.2219  0.1523 -0.0103
 2955DOPS   D2A34675  25.883  14.997  13.005 -0.2791 -0.0684 -0.5909
 2955DOPS   C3A34676  25.914  14.951  12.578 -0.2620 -0.3327  0.2450
 2955DOPS   C4A34677  25.833  14.777  12.134  0.0746 -0.1224 -0.1700
 2955DOPS   C1B34678  25.101  14.998  13.007 -0.1970  0.1166 -0.0246
 2955DOPS   D2B34679  24.990  15.234  12.581  0.1209 -0.1360  0.1560
 2955DOPS   C3B34680  25.151  15.585  12.473  0.0734 -0.1441 -0.2580
 2955DOPS   C4B34681  25.089  15.982  12.308 -0.1001  0.2941  0.1213
 2956POSM   NC334682  24.461  20.358  12.755 -0.3947 -0.1763  0.1213
 2956POSM   PO434683  24.127  20.561  12.823  0.0894 -0.1727 -0.0082
 2956POSM   AM134684  24.030  20.768  12.546 -0.2055  0.2775 -0.1370
 2956POSM   AM234685  24.003  20.646  12.279  0.2507 -0.2101 -0.0166
 2956POSM   T1A34686  24.271  21.031  12.225  0.2803 -0.2205 -0.4251
 2956POSM   C2A34687  24.538  21.153  11.840 -0.0755  0.0171 -0.0121
 2956POSM   C3A34688  24.792  21.219  11.479  0.0029 -0.1528 -0.2011
 2956POSM   C1B34689  24.139  20.544  11.994  0.1937  0.2109 -0.0423
 2956POSM   D2B34690  24.197  20.377  11.559 -0.0334  0.2932 -0.1218
 2956POSM   C3B34691  24.271  20.560  11.130  0.1327  0.1088 -0.0319
 2956POSM   C4B34692  24.581  20.432  10.787 -0.1594 -0.1089 -0.0959
 2957POSM   NC334693  33.655  17.186  15.784 -0.1462  0.0385 -0.3006
 2957POSM   PO434694  33.448  16.853  15.761  0.2769 -0.1285 -0.1144
 2957POSM   AM134695  33.395  16.873  15.409  0.2169 -0.0673 -0.0441
 2957POSM   AM234696  33.519  16.943  15.121  0.0825  0.2683 -0.0112
 2957POSM   T1A34697  33.141  16.744  14.977 -0.1232  0.0196  0.0198
 2957POSM   C2A34698  32.954  17.008  14.637 -0.0677  0.1377  0.1203
 2957POSM   C3A34699  33.063  16.979  14.201 -0.0556  0.1118 -0.1226
 2957POSM   C1B34700  33.537  16.904  14.761 -0.1175  0.1239 -0.0030
 2957POSM   D2B34701  33.651  17.074  14.324  0.2893 -0.3885 -0.1084
 2957POSM   C3B34702  33.513  16.843  13.979  0.1094  0.0341 -0.1855
 2957POSM   C4B34703  33.583  16.775  13.512  0.2365  0.3042  0.2155
 2958DOPC   NC334704  26.745  14.781  14.219  0.1350  0.1964  0.0619
 2958DOPC   PO434705  26.633  15.119  14.138  0.0589 -0.0329 -0.1596
 2958DOPC   GL134706  26.497  15.359  13.860  0.3401 -0.1941 -0.1535
 2958DOPC   GL234707  26.382  15.165  13.669 -0.3790  0.2291  0.1021
 2958DOPC   C1A34708  26.834  15.446  13.461  0.3286  0.1790 -0.1196
 2958DOPC   D2A34709  26.829  15.424  12.973 -0.1660  0.2009  0.1525
 2958DOPC   C3A34710  27.004  15.045  12.902  0.1308 -0.1493  0.0747
 2958DOPC   C4A34711  27.128  14.595  13.020 -0.1145  0.0449  0.3954
 2958DOPC   C1B34712  26.227  15.301  13.282 -0.0098  0.0618  0.1127
 2958DOPC   D2B34713  25.796  15.422  13.219 -0.0010  0.0694 -0.0350
 2958DOPC   C3B34714  25.878  15.665  12.903 -0.0569 -0.0857 -0.0247
 2958DOPC   C4B34715  26.173  15.954  12.671 -0.2592  0.1613  0.0511
 2959POSM   NC334716  30.187  22.500  13.926  0.3416 -0.1667 -0.1277
 2959POSM   PO434717  29.807  22.422  13.770  0.0108 -0.0422  0.2192
 2959POSM   AM134718  29.772  22.439  13.454 -0.0446  0.0840  0.0173
 2959POSM   AM234719  29.479  22.478  13.301 -0.1305 -0.1687  0.2868
 2959POSM   T1A34720  29.787  22.192  13.009 -0.2236  0.3979 -0.2545
 2959POSM   C2A34721  29.797  22.025  12.629  0.1256 -0.1046  0.1800
 2959POSM   C3A34722  29.517  21.895  12.357 -0.0514  0.2788  0.1091
 2959POSM   C1B34723  29.350  22.435  12.988  0.0935  0.3751  0.1207
 2959POSM   D2B34724  29.356  22.311  12.553  0.0043  0.4005  0.1601
 2959POSM   C3B34725  29.032  22.225  12.231 -0.0960 -0.2109  0.2368
 2959POSM   C4B34726  28.635  22.410  12.150  0.1183  0.2038  0.0384
 2960DOPC   NC334727  31.626  17.339  14.873 -0.3613 -0.0008  0.1752
 2960DOPC   PO434728  31.639  16.971  15.091 -0.0574  0.0256 -0.1858
 2960DOPC   GL134729  31.713  16.955  14.675 -0.0919  0.1087 -0.2274
 2960DOPC   GL234730  31.484  17.013  14.465 -0.2503  0.1055 -0.1127
 2960DOPC   C1A34731  32.017  16.774  14.380  0.1266 -0.1856 -0.0762
 2960DOPC   D2A34732  32.249  16.766  14.019 -0.0086 -0.0671 -0.2548
 2960DOPC   C3A34733  32.620  16.597  13.795  0.0821 -0.1648 -0.1235
 2960DOPC   C4A34734  33.055  16.818  13.668  0.0440 -0.0513 -0.0809
 2960DOPC   C1B34735  31.158  17.296  14.430  0.3972 -0.0068 -0.1499
 2960DOPC   D2B34736  31.109  17.669  14.325  0.2400 -0.3959 -0.2819
 2960DOPC   C3B34737  31.296  17.790  13.959 -0.0840 -0.0679 -0.0058
 2960DOPC   C4B34738  31.762  17.936  13.975 -0.3309 -0.1379 -0.0781
 2961POSM   NC334739  28.956  16.247  14.450 -0.0474  0.2131 -0.1001
 2961POSM   PO434740  29.014  16.652  14.456 -0.3787 -0.1793  0.0877
 2961POSM   AM134741  29.253  16.633  14.253 -0.2698  0.1169 -0.2147
 2961POSM   AM234742  29.404  16.421  14.151  0.0934  0.1658 -0.0840
 2961POSM   T1A34743  29.415  16.820  13.794 -0.1816 -0.0928  0.1884
 2961POSM   C2A34744  29.633  16.867  13.349  0.1849  0.1673 -0.1257
 2961POSM   C3A34745  29.816  16.945  12.915 -0.0818 -0.0816 -0.1970
 2961POSM   C1B34746  29.512  16.305  13.821  0.0733  0.1951 -0.2189
 2961POSM   D2B34747  29.539  16.250  13.318  0.1154  0.2108 -0.2823
 2961POSM   C3B34748  29.728  16.395  12.991 -0.3183 -0.1851  0.0128
 2961POSM   C4B34749  30.031  16.492  12.613 -0.1433  0.0319  0.0576
 2962POSM   NC334750  32.001  13.413  14.903  0.1492  0.0170 -0.2322
 2962POSM   PO434751  31.694  13.549  14.815 -0.3321 -0.1419 -0.1135
 2962POSM   AM134752  31.697  13.625  14.492 -0.0072 -0.2049 -0.0338
 2962POSM   AM234753  31.595  13.550  14.265  0.4549 -0.0660 -0.2285
 2962POSM   T1A34754  31.893  13.916  14.144  0.0505  0.0562 -0.0588
 2962POSM   C2A34755  32.097  14.150  13.793 -0.0869  0.4344 -0.1509
 2962POSM   C3A34756  32.100  14.341  13.381  0.0254  0.2965 -0.1502
 2962POSM   C1B34757  31.709  13.355  14.027 -0.0480 -0.0501  0.0147
 2962POSM   D2B34758  31.890  13.158  13.732 -0.3021 -0.2154  0.0344
 2962POSM   C3B34759  31.603  12.837  13.596 -0.0731 -0.1261  0.2534
 2962POSM   C4B34760  31.679  12.678  13.107  0.0032  0.0674  0.2166
 2963DOPC   NC334761  24.532  17.929  13.438 -0.2265  0.3086 -0.0621
 2963DOPC   PO434762  24.562  17.524  13.512  0.1416 -0.0258 -0.2160
 2963DOPC   GL134763  24.811  17.624  13.268  0.1435  0.2578 -0.0721
 2963DOPC   GL234764  24.966  17.866  13.172  0.0388 -0.2084  0.1545
 2963DOPC   C1A34765  24.937  17.484  12.839 -0.2449 -0.1243 -0.0207
 2963DOPC   D2A34766  25.083  17.180  12.511  0.1401  0.1375  0.0308
 2963DOPC   C3A34767  25.232  17.116  12.085  0.2418  0.1454  0.0996
 2963DOPC   C4A34768  25.212  17.407  11.709  0.2022  0.0547  0.0143
 2963DOPC   C1B34769  25.451  17.890  13.136 -0.1680 -0.0603 -0.0125
 2963DOPC   D2B34770  25.803  17.833  12.874 -0.1502  0.0200  0.1825
 2963DOPC   C3B34771  25.815  17.916  12.434  0.0507 -0.1447  0.1708
 2963DOPC   C4B34772  25.459  17.957  12.174  0.1465  0.1657 -0.2033
 2964DOPE   NH334773  27.392  15.229  14.265  0.0958  0.1463 -0.1557
 2964DOPE   PO434774  27.084  15.254  14.213  0.2092  0.1789  0.1110
 2964DOPE   GL134775  27.222  15.198  13.834 -0.2177  0.1093 -0.3203
 2964DOPE   GL234776  26.967  15.067  13.718 -0.2085  0.0150 -0.0568
 2964DOPE   C1A34777  27.294  15.141  13.352 -0.1431 -0.0814 -0.0768
 2964DOPE   D2A34778  27.534  14.824  13.061 -0.2404 -0.0591 -0.3412
 2964DOPE   C3A34779  27.758  14.585  13.328  0.0064  0.1101 -0.4012
 2964DOPE   C4A34780  27.863  14.209  13.584  0.0802 -0.0268  0.0137
 2964DOPE   C1B34781  26.780  14.976  13.324  0.0775 -0.0060 -0.2803
 2964DOPE   D2B34782  26.486  14.991  12.947 -0.0775  0.3288 -0.1372
 2964DOPE   C3B34783  26.256  15.281  12.757 -0.0893 -0.0855  0.2198
 2964DOPE   C4B34784  25.925  15.467  12.461  0.1145  0.1979  0.2958
 2965DOPC   NC334785  23.842  18.355  13.259  0.0876 -0.1093 -0.0085
 2965DOPC   PO434786  24.027  18.033  13.354  0.0972 -0.1520  0.1800
 2965DOPC   GL134787  24.223  17.892  13.069 -0.2139  0.1378 -0.1382
 2965DOPC   GL234788  24.397  17.666  13.015 -0.1913 -0.2434 -0.1533
 2965DOPC   C1A34789  24.057  17.749  12.599  0.0995  0.1128 -0.3146
 2965DOPC   D2A34790  23.854  17.784  12.229 -0.3388  0.3091  0.1100
 2965DOPC   C3A34791  23.929  17.516  11.772 -0.0443 -0.1857 -0.0429
 2965DOPC   C4A34792  23.911  17.179  11.545 -0.1877  0.1316 -0.1964
 2965DOPC   C1B34793  24.563  17.685  12.583 -0.1521 -0.1245  0.1617
 2965DOPC   D2B34794  24.879  17.641  12.313 -0.0996  0.0761  0.1735
 2965DOPC   C3B34795  25.072  17.839  11.939 -0.1667  0.0392 -0.0820
 2965DOPC   C4B34796  25.371  18.044  11.727 -0.0155 -0.0441  0.0254
 2966POSM   NC334797   0.859  15.038  16.146 -0.0509 -0.1324  0.2430
 2966POSM   PO434798   1.151  14.793  16.009 -0.0481 -0.0275  0.1435
 2966POSM   AM134799   1.239  14.767  15.705  0.2174 -0.0056  0.2321
 2966POSM   AM234800   1.138  14.711  15.459 -0.4097 -0.1016 -0.1541
 2966POSM   T1A34801   1.404  15.089  15.330 -0.0954  0.1830 -0.2250
 2966POSM   C2A34802   1.328  15.546  15.243 -0.0989  0.0337  0.3278
 2966POSM   C3A34803   1.343  15.888  15.017  0.1595 -0.0727  0.1879
 2966POSM   C1B34804   1.151  14.634  15.113 -0.0077  0.0700 -0.1666
 2966POSM   D2B34805   1.217  14.272  14.845  0.4097  0.3000  0.0205
 2966POSM   C3B34806   1.369  14.095  14.431  0.1958 -0.0946 -0.1774
 2966POSM   C4B34807   1.338  13.659  14.205  0.1543  0.1335  0.2679
 2967POSM   NC334808  25.909  20.021  13.387 -0.1158  0.1679 -0.2973
 2967POSM   PO434809  25.639  19.832  13.124 -0.0316  0.1079 -0.2250
 2967POSM   AM134810  25.594  19.658  12.868 -0.1429  0.1465  0.0639
 2967POSM   AM234811  25.631  19.536  12.601 -0.0478 -0.1790 -0.0211
 2967POSM   T1A34812  25.177  19.393  12.748  0.1243 -0.0439  0.2197
 2967POSM   C2A34813  25.041  19.048  12.449  0.1828  0.1710  0.1086
 2967POSM   C3A34814  24.814  18.692  12.429  0.2609  0.1260 -0.0054
 2967POSM   C1B34815  25.636  19.397  12.234  0.1733 -0.3676  0.0517
 2967POSM   D2B34816  25.631  19.338  11.752  0.0325  0.3785 -0.0411
 2967POSM   C3B34817  25.481  19.020  11.453 -0.0479 -0.0754  0.3580
 2967POSM   C4B34818  25.179  18.700  11.488  0.2638  0.3278 -0.2045
 2968POSM   NC334819  27.666  17.443  14.439 -0.1624  0.0111  0.1863
 2968POSM   PO434820  27.372  17.574  14.210  0.0147  0.1124 -0.0127
 2968POSM   AM134821  27.538  17.541  13.914 -0.0571 -0.4383 -0.0339
 2968POSM   AM234822  27.755  17.650  13.766 -0.0575  0.0488 -0.0114
 2968POSM   T1A34823  27.450  17.564  13.412  0.0120 -0.2309 -0.0782
 2968POSM   C2A34824  27.540  17.450  12.989  0.0926 -0.0025  0.0682
 2968POSM   C3A34825  27.596  17.606  12.579  0.0240  0.1049  0.0831
 2968POSM   C1B34826  27.899  17.949  13.651  0.0074  0.2771  0.0260
 2968POSM   D2B34827  28.122  18.312  13.511  0.1397 -0.2191  0.2775
 2968POSM   C3B34828  27.972  18.388  13.039 -0.0059 -0.0142  0.2220
 2968POSM   C4B34829  27.497  18.408  13.005  0.1860  0.0462 -0.0483
 2969POSM   NC334830  23.644  25.004  13.373 -0.0598 -0.1588  0.2562
 2969POSM   PO434831  23.278  25.091  13.383 -0.2542 -0.0655 -0.0657
 2969POSM   AM134832  23.370  25.253  13.110  0.1948 -0.0237  0.1968
 2969POSM   AM234833  23.263  25.175  12.844 -0.1077 -0.3901  0.2690
 2969POSM   T1A34834  23.678  25.400  12.696  0.0173 -0.0680 -0.2894
 2969POSM   C2A34835  24.038  25.624  12.571 -0.1540 -0.0352 -0.0606
 2969POSM   C3A34836  24.213  25.783  12.161 -0.1347 -0.0166 -0.2930
 2969POSM   C1B34837  23.178  25.261  12.551 -0.1663 -0.0072  0.1420
 2969POSM   D2B34838  23.028  25.376  12.131 -0.1851  0.3877  0.3529
 2969POSM   C3B34839  22.941  25.062  11.836  0.0521 -0.1050 -0.0345
 2969POSM   C4B34840  22.864  24.938  11.360  0.3636  0.0291 -0.4066
 2970DOPC   NC334841   2.504  20.038  14.763  0.0282  0.5392  0.1367
 2970DOPC   PO434842   2.253  19.775  14.884  0.1095  0.1340 -0.1027
 2970DOPC   GL134843   2.281  19.768  14.486  0.0773  0.1133 -0.0963
 2970DOPC   GL234844   2.492  19.659  14.436  0.0263  0.2246 -0.0212
 2970DOPC   C1A34845   2.105  19.771  14.024 -0.1663 -0.3625 -0.0388
 2970DOPC   D2A34846   2.182  20.018  13.649 -0.0001  0.1272 -0.2246
 2970DOPC   C3A34847   1.958  20.035  13.268 -0.2413 -0.1222  0.2256
 2970DOPC   C4A34848   1.486  20.108  13.126 -0.0921 -0.0074 -0.0133
 2970DOPC   C1B34849   2.418  19.384  14.116  0.0631  0.0343 -0.3071
 2970DOPC   D2B34850   2.254  19.103  13.787 -0.1029 -0.1091 -0.0868
 2970DOPC   C3B34851   2.129  19.060  13.340  0.2625 -0.1252  0.0936
 2970DOPC   C4B34852   1.918  18.900  12.962 -0.1005 -0.4279 -0.0672
 2971POSM   NC334853   0.308  18.773  15.234 -0.0295  0.1669  0.0437
 2971POSM   PO434854   0.730  18.711  15.273 -0.3129 -0.1654 -0.2323
 2971POSM   AM134855   0.692  18.715  14.952  0.2712 -0.1025 -0.1818
 2971POSM   AM234856   0.598  18.923  14.812 -0.0095 -0.3051 -0.0591
 2971POSM   T1A34857   0.818  18.546  14.460  0.0745  0.2075  0.2472
 2971POSM   C2A34858   1.152  18.451  14.171 -0.1577  0.1610 -0.1869
 2971POSM   C3A34859   1.504  18.235  14.155  0.0067  0.0700  0.0427
 2971POSM   C1B34860   0.499  18.898  14.470 -0.2727  0.1570  0.0066
 2971POSM   D2B34861   0.715  18.766  14.071 -0.1381 -0.2646  0.0410
 2971POSM   C3B34862   0.716  18.353  13.866 -0.1415  0.0437  0.2273
 2971POSM   C4B34863   0.978  17.955  13.805  0.4840  0.5476  0.0145
 2972DOPS   CNO34864  31.716  19.796  14.152 -0.0034  0.0325 -0.2483
 2972DOPS   PO434865  31.418  19.535  14.102  0.1523 -0.1264 -0.0276
 2972DOPS   GL134866  31.369  19.777  13.816  0.0427  0.0428 -0.1798
 2972DOPS   GL234867  31.627  19.797  13.677  0.2727  0.3252 -0.2053
 2972DOPS   C1A34868  31.167  19.594  13.353 -0.0866  0.0449  0.2446
 2972DOPS   D2A34869  31.270  19.741  12.887  0.1827 -0.2238  0.3953
 2972DOPS   C3A34870  31.616  19.957  12.757  0.2255 -0.1401  0.1206
 2972DOPS   C4A34871  31.636  19.917  12.311  0.1098  0.1473 -0.1271
 2972DOPS   C1B34872  31.663  19.668  13.227 -0.1993  0.1855  0.1295
 2972DOPS   D2B34873  31.649  19.457  12.750 -0.1035  0.2902  0.2861
 2972DOPS   C3B34874  31.461  18.997  12.702  0.1460  0.1967 -0.0233
 2972DOPS   C4B34875  31.149  18.767  12.477 -0.1479 -0.1318 -0.0482
 2973DOPS   CNO34876  20.839  19.721  12.857  0.0520 -0.1183  0.2402
 2973DOPS   PO434877  20.544  19.895  12.805  0.2236 -0.0136  0.0164
 2973DOPS   GL134878  20.449  19.944  12.424  0.2112  0.0040  0.4499
 2973DOPS   GL234879  20.715  19.857  12.288  0.0838 -0.3268  0.2875
 2973DOPS   C1A34880  20.327  19.721  12.034  0.1068 -0.2556  0.0332
 2973DOPS   D2A34881  20.431  19.585  11.657 -0.3106  0.0652  0.0742
 2973DOPS   C3A34882  20.537  19.912  11.251  0.0392  0.0352 -0.0119
 2973DOPS   C4A34883  20.528  20.302  11.024 -0.2335 -0.2531  0.3745
 2973DOPS   C1B34884  20.663  20.189  11.889  0.0628  0.1599  0.6431
 2973DOPS   D2B34885  20.700  20.350  11.459 -0.4021 -0.0734 -0.3414
 2973DOPS   C3B34886  21.007  20.359  11.118  0.2599  0.3219 -0.2254
 2973DOPS   C4B34887  21.307  20.659  10.980  0.1025  0.1358 -0.0947
 2974DOPS   CNO34888  32.722  18.169  14.793 -0.0727  0.0984  0.0901
 2974DOPS   PO434889  32.851  17.844  14.706 -0.2746  0.0034  0.0766
 2974DOPS   GL134890  32.970  17.525  14.493  0.1792  0.2439 -0.0756
 2974DOPS   GL234891  33.196  17.467  14.648  0.2796  0.0394  0.0067
 2974DOPS   C1A34892  32.814  17.689  14.063 -0.1528 -0.0437 -0.1375
 2974DOPS   D2A34893  32.474  17.853  13.766 -0.0112 -0.2713  0.0189
 2974DOPS   C3A34894  32.580  17.909  13.342  0.1038 -0.1573  0.1296
 2974DOPS   C4A34895  32.650  18.230  12.955 -0.1784 -0.2291  0.0208
 2974DOPS   C1B34896  33.279  17.403  14.137  0.1145  0.0319 -0.1980
 2974DOPS   D2B34897  33.246  17.293  13.726 -0.0653  0.0599 -0.2151
 2974DOPS   C3B34898  33.633  17.317  13.507 -0.1061 -0.1190  0.2029
 2974DOPS   C4B34899  34.016  17.545  13.348 -0.0881 -0.2955 -0.2099
 2975POSM   NC334900  29.163  17.128  14.383 -0.1023  0.3509  0.0204
 2975POSM   PO434901  28.941  17.457  14.382  0.3615  0.1226  0.1742
 2975POSM   AM134902  28.874  17.503  14.062  0.1995  0.0102  0.1529
 2975POSM   AM234903  28.578  17.470  13.935  0.1146 -0.0128  0.0403
 2975POSM   T1A34904  29.044  17.606  13.605  0.2499  0.0586  0.1001
 2975POSM   C2A34905  29.033  17.502  13.140 -0.2541  0.0289 -0.1394
 2975POSM   C3A34906  29.073  17.525  12.705  0.2010  0.3798  0.1104
 2975POSM   C1B34907  28.643  17.256  13.709 -0.1373 -0.0185 -0.0770
 2975POSM   D2B34908  29.022  17.022  13.640  0.3435  0.0719  0.0662
 2975POSM   C3B34909  29.130  16.661  13.361 -0.4933 -0.1914 -0.2916
 2975POSM   C4B34910  29.153  16.345  13.025  0.1627 -0.1236 -0.0168
 2976DOPE   NH334911  34.111  21.778  14.088  0.3345  0.3262 -0.0806
 2976DOPE   PO434912  34.352  21.997  13.981 -0.1987 -0.1251  0.0487
 2976DOPE   GL134913  34.404  22.042  13.530  0.4536 -0.1218  0.1672
 2976DOPE   GL234914  34.312  22.280  13.383  0.1004  0.1376  0.1958
 2976DOPE   C1A34915  34.735  21.975  13.175 -0.3751  0.4359  0.3505
 2976DOPE   D2A34916  35.183  21.965  13.201 -0.1299 -0.1741  0.1335
 2976DOPE   C3A34917  35.110  22.057  12.781 -0.2369 -0.2094  0.0581
 2976DOPE   C4A34918  34.877  21.856  12.509 -0.2897  0.1563 -0.4744
 2976DOPE   C1B34919  34.229  21.980  13.053 -0.2730 -0.3823 -0.3198
 2976DOPE   D2B34920  34.372  21.800  12.668 -0.1479  0.0287  0.0044
 2976DOPE   C3B34921  34.272  21.552  12.357 -0.3012  0.0755  0.2941
 2976DOPE   C4B34922  33.991  21.401  12.033 -0.0698 -0.0523 -0.0390
 2977POSM   NC334923  28.541  13.561  14.315 -0.2679 -0.2971  0.1154
 2977POSM   PO434924  28.803  13.733  14.566 -0.1694 -0.0613  0.2950
 2977POSM   AM134925  29.067  13.668  14.386  0.0059 -0.1403  0.0604
 2977POSM   AM234926  29.051  13.465  14.186 -0.0317 -0.1165 -0.1426
 2977POSM   T1A34927  29.402  13.785  14.061  0.2943 -0.2266  0.2781
 2977POSM   C2A34928  29.610  14.050  13.716 -0.0682 -0.0839  0.3233
 2977POSM   C3A34929  29.858  14.069  13.252  0.0002  0.0624 -0.1035
 2977POSM   C1B34930  28.862  13.636  13.956 -0.1900  0.0177  0.0629
 2977POSM   D2B34931  28.720  13.665  13.499 -0.0896  0.1449  0.5408
 2977POSM   C3B34932  28.613  13.810  13.087  0.2576 -0.0983  0.1754
 2977POSM   C4B34933  28.716  13.894  12.653  0.1388 -0.0233  0.0503
 2978DOPS   CNO34934  30.741  17.944  14.482 -0.0762 -0.2469  0.0925
 2978DOPS   PO434935  30.735  18.292  14.325  0.0233 -0.0442  0.0553
 2978DOPS   GL134936  30.873  18.159  13.939 -0.1790  0.1224 -0.1099
 2978DOPS   GL234937  30.791  18.396  13.783  0.0229  0.1878 -0.3348
 2978DOPS   C1A34938  30.825  18.002  13.507  0.0593 -0.1392 -0.1737
 2978DOPS   D2A34939  30.439  17.786  13.308  0.2938 -0.1577 -0.2043
 2978DOPS   C3A34940  30.443  17.433  13.026  0.0824 -0.1157  0.2404
 2978DOPS   C4A34941  30.265  17.359  12.624 -0.0596  0.1451 -0.0882
 2978DOPS   C1B34942  31.218  18.276  13.692 -0.2625  0.1107  0.1028
 2978DOPS   D2B34943  31.495  17.974  13.455 -0.3104 -0.0273  0.0425
 2978DOPS   C3B34944  31.324  17.738  13.143  0.2815  0.1467 -0.0600
 2978DOPS   C4B34945  31.282  17.348  13.071 -0.0056 -0.2617 -0.0551
 2979POSM   NC334946   2.042  13.991  16.219  0.0352  0.1817 -0.2732
 2979POSM   PO434947   1.941  14.255  15.930 -0.1771  0.0386 -0.1052
 2979POSM   AM134948   1.844  14.393  15.683  0.0429 -0.1748 -0.2227
 2979POSM   AM234949   1.660  14.587  15.587  0.1235  0.2810  0.2707
 2979POSM   T1A34950   1.623  14.226  15.238 -0.1673  0.0350 -0.0517
 2979POSM   C2A34951   1.622  13.933  14.913  0.1036  0.2623 -0.3747
 2979POSM   C3A34952   1.743  13.711  14.524  0.0191  0.3127 -0.1168
 2979POSM   C1B34953   1.843  14.665  15.329 -0.0210 -0.2569 -0.1245
 2979POSM   D2B34954   1.929  14.902  14.921  0.4864 -0.2012  0.0902
 2979POSM   C3B34955   2.007  14.862  14.465 -0.0629 -0.1954 -0.2947
 2979POSM   C4B34956   2.047  15.109  14.048  0.0375 -0.1694  0.2338
 2980POSM   NC334957  28.282  15.845  14.745 -0.0114 -0.1423  0.1811
 2980POSM   PO434958  27.991  16.029  14.626 -0.1640 -0.1987 -0.1498
 2980POSM   AM134959  27.919  16.018  14.305  0.4522 -0.2904  0.1223
 2980POSM   AM234960  27.661  16.022  14.155 -0.2227  0.0917 -0.0383
 2980POSM   T1A34961  28.002  16.110  13.803 -0.0300  0.0106 -0.2604
 2980POSM   C2A34962  28.382  16.132  13.562 -0.2486 -0.0566 -0.0286
 2980POSM   C3A34963  28.496  15.877  13.194  0.2323 -0.3268  0.1201
 2980POSM   C1B34964  27.505  16.035  13.804  0.1923 -0.0713 -0.0455
 2980POSM   D2B34965  27.513  16.183  13.345 -0.0192  0.1525  0.1173
 2980POSM   C3B34966  27.815  16.167  13.031 -0.0821 -0.0725  0.0150
 2980POSM   C4B34967  27.884  16.394  12.680  0.2881  0.1020  0.0963
 2981POSM   NC334968  27.576  18.869  14.292  0.1196 -0.0962  0.0040
 2981POSM   PO434969  27.919  18.964  14.158 -0.1560 -0.1003 -0.0461
 2981POSM   AM134970  27.976  18.980  13.850 -0.2560 -0.3894  0.2687
 2981POSM   AM234971  27.913  19.184  13.637 -0.0889 -0.0764  0.2909
 2981POSM   T1A34972  27.991  18.839  13.349 -0.1793 -0.4917 -0.0502
 2981POSM   C2A34973  28.337  18.766  13.123  0.2006  0.1082  0.0607
 2981POSM   C3A34974  28.654  18.818  12.773  0.4227 -0.0785  0.1862
 2981POSM   C1B34975  27.569  19.106  13.577  0.0719 -0.0275  0.1195
 2981POSM   D2B34976  27.155  19.298  13.499 -0.2387 -0.1921 -0.0360
 2981POSM   C3B34977  26.787  19.390  13.206 -0.1358 -0.0110  0.0578
 2981POSM   C4B34978  26.476  19.211  12.967  0.0046 -0.0428  0.3319
 2982DOPE   NH334979   1.163  22.756  14.132 -0.1255 -0.2326 -0.2796
 2982DOPE   PO434980   1.187  22.921  13.890  0.2516 -0.0461 -0.0201
 2982DOPE   GL134981   1.286  22.848  13.508 -0.0400 -0.2038  0.3603
 2982DOPE   GL234982   1.183  23.055  13.314 -0.1485  0.0288 -0.0250
 2982DOPE   C1A34983   1.156  22.531  13.161 -0.0520  0.1490 -0.2594
 2982DOPE   D2A34984   0.974  22.242  12.847  0.0628  0.0864  0.0818
 2982DOPE   C3A34985   0.685  22.169  12.454 -0.1098  0.0211 -0.1851
 2982DOPE   C4A34986   0.481  22.184  12.101 -0.0077 -0.1295  0.0146
 2982DOPE   C1B34987   0.833  23.372  13.136  0.0497  0.0174 -0.0445
 2982DOPE   D2B34988   0.872  23.636  12.753 -0.1284  0.0262 -0.0593
 2982DOPE   C3B34989   0.891  23.336  12.346  0.2288  0.0225 -0.1183
 2982DOPE   C4B34990   1.133  22.986  12.071  0.1933  0.0081  0.4156
 2983DOPE   NH334991  24.416  18.869  13.520 -0.2590  0.1223 -0.2159
 2983DOPE   PO434992  24.452  19.077  13.272  0.2897 -0.1776 -0.0242
 2983DOPE   GL134993  24.353  19.110  12.857 -0.1250  0.0670  0.0756
 2983DOPE   GL234994  24.644  19.217  12.727  0.1040 -0.0821 -0.0781
 2983DOPE   C1A34995  24.163  19.336  12.507  0.0268  0.3526  0.0265
 2983DOPE   D2A34996  24.067  19.365  12.107 -0.0377  0.1247 -0.1385
 2983DOPE   C3A34997  24.190  19.000  11.817  0.2987 -0.1094 -0.2394
 2983DOPE   C4A34998  24.571  18.844  11.529 -0.2574 -0.1824 -0.0192
 2983DOPE   C1B34999  24.520  19.048  12.304  0.2780 -0.0578  0.3577
 2983DOPE   D2B35000  24.680  19.212  11.914 -0.4551  0.1888 -0.3959
 2983DOPE   C3B35001  24.441  19.453  11.654  0.1615  0.0132  0.1426
 2983DOPE   C4B35002  24.403  19.892  11.662  0.0140  0.1332 -0.0186
 2984DOPS   CNO35003  33.393  13.503  15.568 -0.2396 -0.1311  0.0156
 2984DOPS   PO435004  33.411  13.687  15.260  0.0568  0.2875  0.1452
 2984DOPS   GL135005  33.518  13.780  14.824  0.0921  0.3089 -0.1097
 2984DOPS   GL235006  33.233  13.921  14.709 -0.4479 -0.0359 -0.0500
 2984DOPS   C1A35007  33.798  13.892  14.497  0.1947 -0.2222 -0.0913
 2984DOPS   D2A35008  34.156  13.844  14.185 -0.6212 -0.1819 -0.1814
 2984DOPS   C3A35009  34.512  13.523  14.101  0.0054  0.0982  0.0196
 2984DOPS   C4A35010  34.542  13.073  14.161 -0.2833 -0.1415 -0.1769
 2984DOPS   C1B35011  33.056  13.667  14.398  0.1551  0.0050 -0.1521
 2984DOPS   D2B35012  32.915  13.508  13.976 -0.0417  0.1020 -0.0331
 2984DOPS   C3B35013  33.155  13.588  13.668 -0.1624  0.0797  0.3383
 2984DOPS   C4B35014  33.590  13.618  13.772  0.1965 -0.0051  0.1247
 2985DOPS   CNO35015  23.275  18.880  13.418  0.1123  0.0184 -0.2986
 2985DOPS   PO435016  23.642  18.868  13.308  0.0419 -0.1313  0.1567
 2985DOPS   GL135017  23.658  18.833  12.955 -0.3697 -0.0131  0.1611
 2985DOPS   GL235018  23.861  18.902  12.728 -0.3464 -0.0877 -0.3137
 2985DOPS   C1A35019  23.489  18.690  12.550  0.3652  0.1369  0.2902
 2985DOPS   D2A35020  23.411  18.778  12.070  0.3304  0.1281  0.0591
 2985DOPS   C3A35021  23.125  18.638  11.737 -0.0958  0.0713 -0.0100
 2985DOPS   C4A35022  22.793  18.839  11.484  0.1660  0.0983  0.1744
 2985DOPS   C1B35023  23.892  18.858  12.278 -0.0310  0.0854  0.2147
 2985DOPS   D2B35024  23.867  18.604  11.928  0.0239 -0.3280  0.0729
 2985DOPS   C3B35025  23.503  18.342  11.882  0.0125  0.0130 -0.0514
 2985DOPS   C4B35026  23.444  17.893  11.802 -0.0411 -0.1555  0.1037
 2986DOPE   NH335027  29.869  23.545  13.872 -0.1977  0.0566 -0.3534
 2986DOPE   PO435028  30.066  23.757  13.716 -0.0531 -0.1346  0.1536
 2986DOPE   GL135029  30.206  23.459  13.561 -0.2994  0.2151  0.0221
 2986DOPE   GL235030  30.446  23.616  13.369  0.1459  0.2816 -0.3118
 2986DOPE   C1A35031  30.383  23.126  13.349 -0.2574 -0.3136  0.0293
 2986DOPE   D2A35032  30.457  23.079  12.920  0.1620  0.4610  0.1497
 2986DOPE   C3A35033  30.793  22.775  12.764 -0.1140 -0.0253 -0.2678
 2986DOPE   C4A35034  30.818  22.516  12.368  0.2419  0.0398  0.3213
 2986DOPE   C1B35035  30.608  23.526  12.966 -0.2920  0.0620 -0.0953
 2986DOPE   D2B35036  30.716  23.436  12.526 -0.0204 -0.1289  0.1234
 2986DOPE   C3B35037  30.556  23.511  12.103  0.0883  0.2201 -0.0893
 2986DOPE   C4B35038  30.223  23.388  11.872  0.2299  0.0089  0.2127
 2987DOPC   NC335039  26.396  23.261  12.980 -0.2337 -0.0624 -0.0455
 2987DOPC   PO435040  26.733  23.344  13.149  0.0299 -0.0594  0.0908
 2987DOPC   GL135041  26.915  23.136  12.889 -0.1054 -0.0711  0.2212
 2987DOPC   GL235042  27.066  23.266  12.732 -0.0490 -0.1750  0.4634
 2987DOPC   C1A35043  26.646  22.778  12.806  0.0562  0.2160  0.0639
 2987DOPC   D2A35044  26.646  22.546  12.427  0.1101  0.0301  0.0043
 2987DOPC   C3A35045  26.901  22.629  12.035 -0.0240 -0.2919  0.0505
 2987DOPC   C4A35046  26.995  22.713  11.553 -0.1031 -0.0546 -0.1698
 2987DOPC   C1B35047  27.144  23.601  12.415 -0.1119  0.0395  0.0780
 2987DOPC   D2B35048  27.328  23.556  12.010 -0.0079  0.0031  0.1723
 2987DOPC   C3B35049  27.763  23.407  11.903 -0.0590 -0.2108  0.0751
 2987DOPC   C4B35050  28.148  23.594  11.659  0.3536  0.1582 -0.0247
 2988DOPE   NH335051  32.642  19.204  14.377 -0.0060  0.1969  0.0380
 2988DOPE   PO435052  32.762  19.435  14.243 -0.2749  0.1803 -0.0582
 2988DOPE   GL135053  32.885  19.264  13.912 -0.0326  0.0166  0.5894
 2988DOPE   GL235054  32.972  18.980  14.098 -0.2493  0.1367  0.0163
 2988DOPE   C1A35055  33.212  19.211  13.614  0.0165  0.0124  0.0948
 2988DOPE   D2A35056  33.332  19.447  13.290  0.1216  0.3547 -0.1126
 2988DOPE   C3A35057  32.928  19.562  13.028 -0.1101 -0.0276  0.3675
 2988DOPE   C4A35058  32.467  19.391  13.039  0.0810  0.0130 -0.2262
 2988DOPE   C1B35059  32.829  18.882  13.664  0.0949  0.1229  0.1377
 2988DOPE   D2B35060  32.773  18.665  13.270  0.0683  0.1121 -0.3049
 2988DOPE   C3B35061  33.068  18.572  12.950 -0.1122  0.0948  0.1251
 2988DOPE   C4B35062  33.101  18.260  12.592 -0.1711  0.1335 -0.1969
 2989DOPC   NC335063  23.137  18.240  13.791  0.0413  0.1789  0.1131
 2989DOPC   PO435064  23.187  18.344  13.420 -0.2668  0.1638  0.1352
 2989DOPC   GL135065  22.978  18.224  13.003  0.1719 -0.2874 -0.2977
 2989DOPC   GL235066  22.900  17.978  12.853 -0.2282  0.4216 -0.0346
 2989DOPC   C1A35067  23.315  18.211  12.643 -0.1171  0.0138 -0.1485
 2989DOPC   D2A35068  23.684  18.201  12.393 -0.0850  0.1137  0.1118
 2989DOPC   C3A35069  23.982  18.447  12.562 -0.1413  0.1625  0.0397
 2989DOPC   C4A35070  24.345  18.703  12.593  0.2309 -0.1167 -0.0651
 2989DOPC   C1B35071  22.646  17.894  12.439  0.0955  0.0367  0.1236
 2989DOPC   D2B35072  22.759  17.722  12.006 -0.0570  0.4272 -0.3371
 2989DOPC   C3B35073  22.433  17.486  11.726  0.1300  0.0558  0.0874
 2989DOPC   C4B35074  22.015  17.508  11.876 -0.1036 -0.1430 -0.2851
 2990DOPE   NH335075   0.260  16.687  15.632 -0.1313 -0.0713  0.2627
 2990DOPE   PO435076   0.543  16.651  15.490 -0.2454  0.1707 -0.1563
 2990DOPE   GL135077   0.352  16.573  15.147  0.1557 -0.1354  0.3723
 2990DOPE   GL235078   0.279  16.295  15.231  0.1849 -0.0726 -0.0678
 2990DOPE   C1A35079   0.529  16.639  14.754 -0.4696 -0.0099 -0.3134
 2990DOPE   D2A35080   0.713  16.723  14.383 -0.0168 -0.3302  0.1592
 2990DOPE   C3A35081   0.793  16.351  14.308 -0.0760 -0.0255  0.0788
 2990DOPE   C4A35082   0.966  15.998  14.333 -0.0615  0.1908  0.3189
 2990DOPE   C1B35083   0.066  16.254  14.851  0.0058  0.1780 -0.0081
 2990DOPE   D2B35084  -0.186  16.021  14.494  0.0190  0.1530  0.0057
 2990DOPE   C3B35085  -0.010  16.098  14.054  0.0948  0.0943  0.0885
 2990DOPE   C4B35086   0.162  15.999  13.648  0.0071 -0.0884  0.2487
 2991DOPE   NH335087  34.340  16.868  15.661 -0.0710  0.0192 -0.0834
 2991DOPE   PO435088  34.549  16.855  15.865 -0.0140  0.1097  0.0029
 2991DOPE   GL135089  34.699  16.813  15.355  0.0219  0.0342 -0.2271
 2991DOPE   GL235090  34.473  16.654  15.222 -0.3316  0.0241  0.0906
 2991DOPE   C1A35091  34.865  16.835  14.944  0.0434 -0.0677 -0.0374
 2991DOPE   D2A35092  35.017  16.849  14.467  0.0708  0.0646  0.0290
 2991DOPE   C3A35093  35.309  17.233  14.273 -0.1274 -0.0572 -0.1725
 2991DOPE   C4A35094  35.651  17.520  14.075  0.1827 -0.0675  0.1168
 2991DOPE   C1B35095  34.356  16.462  14.816  0.0322  0.1526  0.2916
 2991DOPE   D2B35096  34.121  16.426  14.419 -0.2613  0.2742 -0.5683
 2991DOPE   C3B35097  33.668  16.563  14.432 -0.1499  0.1402  0.2976
 2991DOPE   C4B35098  33.229  16.615  14.451 -0.3153  0.1995 -0.0487
 2992DOPC   NC335099  26.096  14.024  13.741  0.1909 -0.2753  0.0090
 2992DOPC   PO435100  26.341  13.727  13.743  0.0731  0.0848  0.0930
 2992DOPC   GL135101  26.126  13.373  13.464 -0.0496 -0.0598 -0.2157
 2992DOPC   GL235102  26.082  13.566  13.282 -0.3604  0.1069  0.1813
 2992DOPC   C1A35103  26.301  13.079  13.185  0.1444 -0.0041 -0.0425
 2992DOPC   D2A35104  26.313  13.059  12.702 -0.1310 -0.2806  0.3875
 2992DOPC   C3A35105  26.350  12.616  12.489  0.0790 -0.0854 -0.0908
 2992DOPC   C4A35106  26.431  12.283  12.811  0.1125 -0.0026  0.0624
 2992DOPC   C1B35107  26.495  13.583  13.058 -0.0029 -0.1977  0.2840
 2992DOPC   D2B35108  26.780  13.835  12.784 -0.3913 -0.2680  0.2833
 2992DOPC   C3B35109  26.864  14.153  12.455 -0.1453 -0.0373  0.1152
 2992DOPC   C4B35110  27.181  14.508  12.504 -0.0473  0.4959 -0.0641
 2993DOPC   NC335111   0.252  13.964  15.286 -0.0088  0.1823  0.0738
 2993DOPC   PO435112  -0.072  13.967  15.147  0.0968  0.1630 -0.3892
 2993DOPC   GL135113   0.112  14.093  14.834 -0.1740 -0.0401  0.0331
 2993DOPC   GL235114  -0.114  14.304  14.719  0.0300 -0.1577 -0.1730
 2993DOPC   C1A35115   0.422  14.082  14.530  0.2149 -0.0040  0.0021
 2993DOPC   D2A35116   0.580  14.077  14.104 -0.0503 -0.3338  0.0150
 2993DOPC   C3A35117   1.048  14.039  13.992 -0.1191 -0.1554 -0.1287
 2993DOPC   C4A35118   1.505  14.030  13.923  0.3803  0.2168  0.1115
 2993DOPC   C1B35119  -0.215  14.315  14.235 -0.0222 -0.0367 -0.0035
 2993DOPC   D2B35120  -0.394  14.157  13.901 -0.1490  0.0508  0.0406
 2993DOPC   C3B35121  -0.429  14.288  13.471 -0.0246 -0.0753  0.0526
 2993DOPC   C4B35122  -0.300  14.549  13.099  0.2616  0.1245 -0.0038
 2994DOPE   NH335123  32.265  14.785  14.955  0.3038  0.0476 -0.0623
 2994DOPE   PO435124  31.978  14.831  14.841  0.2921  0.2423  0.2240
 2994DOPE   GL135125  31.890  14.686  14.459 -0.2850  0.0508 -0.1760
 2994DOPE   GL235126  31.986  14.873  14.304 -0.0586 -0.1272 -0.0581
 2994DOPE   C1A35127  31.822  14.457  14.087  0.2012 -0.0912  0.1320
 2994DOPE   D2A35128  31.659  14.424  13.662 -0.1487 -0.0553  0.1966
 2994DOPE   C3A35129  31.578  14.861  13.437  0.1557 -0.0594  0.0365
 2994DOPE   C4A35130  31.429  15.036  13.073 -0.0462  0.0993  0.0947
 2994DOPE   C1B35131  31.886  15.285  14.269  0.1306 -0.1447  0.0473
 2994DOPE   D2B35132  32.138  15.660  14.299 -0.0630 -0.3239 -0.0674
 2994DOPE   C3B35133  32.135  15.930  13.950 -0.0818 -0.1885 -0.0526
 2994DOPE   C4B35134  32.374  16.183  13.597 -0.0013  0.3056 -0.0870
 2995DOPE   NH335135   2.195  21.325  15.264 -0.1840 -0.1347 -0.1226
 2995DOPE   PO435136   2.196  21.376  14.958 -0.1381  0.3357 -0.2879
 2995DOPE   GL135137   2.341  21.410  14.614  0.1048 -0.0858  0.1656
 2995DOPE   GL235138   2.147  21.281  14.376  0.1768  0.1215  0.0334
 2995DOPE   C1A35139   2.690  21.277  14.308  0.0352  0.1212  0.1027
 2995DOPE   D2A35140   2.888  20.883  14.287 -0.1564  0.0601  0.2104
 2995DOPE   C3A35141   2.768  20.975  13.781 -0.0570  0.1511  0.1050
 2995DOPE   C4A35142   2.495  20.880  13.413  0.2270 -0.2395 -0.1612
 2995DOPE   C1B35143   2.241  21.372  13.907  0.0844 -0.1965 -0.0714
 2995DOPE   D2B35144   2.517  21.426  13.543  0.0457  0.1494  0.0318
 2995DOPE   C3B35145   2.347  21.567  13.132  0.1065 -0.0006  0.0698
 2995DOPE   C4B35146   2.183  21.916  12.882  0.1174 -0.0525  0.0143
 2996DOPS   CNO35147  25.174  17.106  14.080  0.0273  0.2619 -0.0151
 2996DOPS   PO435148  25.393  17.330  13.817  0.3604 -0.0361  0.2264
 2996DOPS   GL135149  25.422  17.451  13.457 -0.3402 -0.0159 -0.0729
 2996DOPS   GL235150  25.246  17.447  13.258  0.0395  0.1733 -0.0005
 2996DOPS   C1A35151  25.839  17.534  13.359 -0.1679 -0.2370 -0.0965
 2996DOPS   D2A35152  26.209  17.304  13.306  0.1790 -0.3572 -0.1147
 2996DOPS   C3A35153  26.619  17.267  13.087  0.0834 -0.1591 -0.0019
 2996DOPS   C4A35154  26.958  17.485  13.371 -0.0159 -0.1411 -0.1774
 2996DOPS   C1B35155  25.506  17.406  12.816  0.0697  0.0204  0.0572
 2996DOPS   D2B35156  25.602  17.131  12.457  0.1510 -0.1372  0.0090
 2996DOPS   C3B35157  25.690  17.502  12.152 -0.0875  0.0293  0.1416
 2996DOPS   C4B35158  25.617  17.661  11.750 -0.1174  0.1659  0.2622
 2997POSM   NC335159  29.002  22.814  13.326  0.1714  0.0271  0.1254
 2997POSM   PO435160  28.611  22.821  13.436  0.0954 -0.0545  0.2463
 2997POSM   AM135161  28.420  22.792  13.184 -0.0663 -0.3623 -0.1179
 2997POSM   AM235162  28.232  22.940  13.042 -0.1447  0.1847  0.0095
 2997POSM   T1A35163  28.306  22.435  12.814  0.0220 -0.4080 -0.1419
 2997POSM   C2A35164  27.961  22.161  12.772  0.0181 -0.0852  0.0351
 2997POSM   C3A35165  28.004  21.772  12.528  0.1615  0.1096  0.0793
 2997POSM   C1B35166  28.359  22.909  12.802  0.2994  0.3826  0.0962
 2997POSM   D2B35167  28.553  22.850  12.427  0.2224 -0.0650  0.0358
 2997POSM   C3B35168  28.203  22.821  12.112 -0.1474  0.0294  0.1895
 2997POSM   C4B35169  28.089  23.091  11.794  0.2263 -0.4648 -0.3178
 2998DOPC   NC335170  20.954  18.587  12.601 -0.0011 -0.0495 -0.0763
 2998DOPC   PO435171  21.202  18.887  12.532  0.0484  0.0433 -0.0326
 2998DOPC   GL135172  21.420  18.860  12.225  0.0144  0.5370  0.1472
 2998DOPC   GL235173  21.446  19.210  12.149  0.0890  0.0842 -0.1087
 2998DOPC   C1A35174  21.444  18.525  11.905  0.0603 -0.0308  0.3212
 2998DOPC   D2A35175  21.579  18.263  11.549  0.1875  0.0896  0.0150
 2998DOPC   C3A35176  21.938  18.058  11.405  0.1457  0.2180  0.0006
 2998DOPC   C4A35177  22.107  17.654  11.322 -0.1044 -0.3199  0.3376
 2998DOPC   C1B35178  21.273  19.001  11.747 -0.1436  0.0354 -0.4539
 2998DOPC   D2B35179  21.319  18.674  11.439 -0.0717  0.4920 -0.0430
 2998DOPC   C3B35180  21.506  18.879  11.055 -0.0117 -0.3252 -0.3385
 2998DOPC   C4B35181  21.332  19.028  10.669 -0.4305  0.2393  0.1819
 2999DOPC   NC335182  28.581  16.625  14.887 -0.0483 -0.0900  0.0611
 2999DOPC   PO435183  28.558  16.351  14.665  0.0186 -0.0877  0.1513
 2999DOPC   GL135184  28.263  16.409  14.488  0.2151 -0.4302  0.2829
 2999DOPC   GL235185  28.407  16.719  14.366  0.0355 -0.0826 -0.0100
 2999DOPC   C1A35186  27.955  16.581  14.176  0.0015  0.1959 -0.0773
 2999DOPC   D2A35187  27.634  16.589  13.844  0.1363  0.1137  0.1824
 2999DOPC   C3A35188  27.564  16.657  13.423  0.2847  0.1877 -0.2491
 2999DOPC   C4A35189  27.541  16.669  12.947 -0.0402  0.0195 -0.0682
 2999DOPC   C1B35190  28.481  16.555  13.903 -0.1262  0.2094 -0.1809
 2999DOPC   D2B35191  28.577  16.740  13.465  0.3009 -0.0864 -0.4036
 2999DOPC   C3B35192  28.261  16.884  13.161 -0.1558  0.1109  0.1322
 2999DOPC   C4B35193  27.820  17.030  13.256 -0.2446 -0.1769 -0.0936
 3000DOPS   CNO35194  27.244  14.538  13.662 -0.3619 -0.5502  0.2429
 3000DOPS   PO435195  26.904  14.433  13.831  0.3844 -0.0099 -0.2628
 3000DOPS   GL135196  26.811  14.310  13.473  0.1991 -0.1240  0.2600
 3000DOPS   GL235197  26.543  14.177  13.486  0.1663 -0.0141 -0.2902
 3000DOPS   C1A35198  26.888  13.895  13.280  0.1995 -0.0166 -0.0654
 3000DOPS   D2A35199  27.138  13.622  13.086 -0.2153  0.0469  0.3047
 3000DOPS   C3A35200  27.184  13.573  12.647 -0.0723 -0.2381  0.1278
 3000DOPS   C4A35201  27.090  13.649  12.200  0.1707  0.2606 -0.1884
 3000DOPS   C1B35202  26.676  14.253  13.049 -0.0670  0.2764 -0.2292
 3000DOPS   D2B35203  26.680  14.561  12.744  0.1783  0.2507 -0.1700
 3000DOPS   C3B35204  26.386  14.841  12.470 -0.2027  0.2144 -0.1450
 3000DOPS   C4B35205  26.377  15.262  12.264 -0.0763 -0.2846 -0.0561
 3001DOPC   NC335206  34.708  23.941  13.988  0.1361 -0.1404  0.2188
 3001DOPC   PO435207  35.005  24.109  14.165 -0.1675 -0.0752  0.1468
 3001DOPC   GL135208  35.165  24.034  13.860 -0.0710 -0.2243 -0.2925
 3001DOPC   GL235209  35.026  23.919  13.629  0.0621 -0.0229 -0.2303
 3001DOPC   C1A35210  35.288  24.319  13.492  0.0796  0.0830  0.0510
 3001DOPC   D2A35211  35.477  24.667  13.229 -0.1167  0.0312 -0.0165
 3001DOPC   C3A35212  35.165  24.586  12.871 -0.2678 -0.1738 -0.1087
 3001DOPC   C4A35213  35.466  24.393  12.581 -0.0479 -0.1380 -0.0433
 3001DOPC   C1B35214  34.902  23.982  13.207 -0.2254  0.1016 -0.2033
 3001DOPC   D2B35215  35.109  24.019  12.785  0.1417 -0.3393 -0.1885
 3001DOPC   C3B35216  34.867  23.838  12.504  0.0014  0.3200 -0.2701
 3001DOPC   C4B35217  34.619  24.036  12.143  0.2635 -0.1028 -0.2735
 3002POSM   NC335218  32.673  15.823  15.578 -0.0483  0.2509  0.2156
 3002POSM   PO435219  32.336  15.674  15.448  0.0162  0.1542  0.2503
 3002POSM   AM135220  32.318  15.806  15.130  0.2911  0.0169 -0.3398
 3002POSM   AM235221  32.228  15.757  14.871 -0.0508 -0.1406  0.1328
 3002POSM   T1A35222  32.319  16.281  14.961 -0.0529  0.2273 -0.2575
 3002POSM   C2A35223  32.367  16.619  14.660 -0.2411 -0.0104 -0.2032
 3002POSM   C3A35224  32.638  16.686  14.291 -0.2655 -0.1632  0.1236
 3002POSM   C1B35225  32.405  15.932  14.605 -0.0561 -0.0859  0.5753
 3002POSM   D2B35226  32.456  16.180  14.200  0.1690 -0.6019  0.1474
 3002POSM   C3B35227  32.918  16.373  14.103  0.0517  0.4577 -0.1076
 3002POSM   C4B35228  33.296  16.385  13.825 -0.1265 -0.0800  0.0510
 3003DOPC   NC335229  31.505  14.244  15.219  0.0313 -0.1417 -0.1146
 3003DOPC   PO435230  31.216  14.202  14.947  0.0297  0.2440  0.2864
 3003DOPC   GL135231  31.079  14.293  14.584 -0.1257  0.1891  0.1329
 3003DOPC   GL235232  30.851  14.209  14.381  0.2905 -0.0339 -0.1279
 3003DOPC   C1A35233  31.199  14.649  14.263 -0.2009 -0.0106  0.1488
 3003DOPC   D2A35234  31.296  14.675  13.852 -0.1881 -0.2398 -0.0713
 3003DOPC   C3A35235  31.002  14.609  13.522 -0.0114 -0.4234 -0.1410
 3003DOPC   C4A35236  30.849  14.459  13.093 -0.1984  0.0200 -0.1376
 3003DOPC   C1B35237  30.963  14.080  13.951 -0.0157  0.1684 -0.0271
 3003DOPC   D2B35238  31.071  13.952  13.521  0.0062  0.2519  0.0191
 3003DOPC   C3B35239  31.145  13.515  13.429  0.0099 -0.3604  0.0272
 3003DOPC   C4B35240  31.096  13.230  13.095 -0.2527 -0.0931 -0.3451
 3004DOPC   NC335241  33.532  12.707  14.904  0.1161  0.0069  0.3285
 3004DOPC   PO435242  33.513  12.433  15.153 -0.0543 -0.4938  0.0995
 3004DOPC   GL135243  33.183  12.365  14.830  0.0612  0.0095 -0.3302
 3004DOPC   GL235244  32.977  12.295  14.773 -0.1757 -0.0551  0.3084
 3004DOPC   C1A35245  33.481  12.245  14.530  0.0248 -0.3272  0.1949
 3004DOPC   D2A35246  33.549  12.059  14.100 -0.0756 -0.1144  0.3347
 3004DOPC   C3A35247  33.492  12.188  13.702  0.1472  0.2772 -0.1543
 3004DOPC   C4A35248  33.228  12.162  13.267  0.1622  0.1449 -0.6525
 3004DOPC   C1B35249  32.672  12.355  14.400  0.2419  0.0287  0.1297
 3004DOPC   D2B35250  32.590  12.099  13.997 -0.0701  0.1254  0.2629
 3004DOPC   C3B35251  32.903  11.752  14.008  0.3439  0.0917 -0.1040
 3004DOPC   C4B35252  33.369  11.618  14.070 -0.0171 -0.2340  0.0658
 3005DOPE   NH335253  29.013  14.084  15.023 -0.1757  0.0403  0.1764
 3005DOPE   PO435254  28.901  14.192  14.718 -0.0114 -0.0449  0.0313
 3005DOPE   GL135255  28.895  14.286  14.437 -0.1015 -0.1763  0.0416
 3005DOPE   GL235256  28.713  14.202  14.233 -0.0223 -0.0540 -0.2173
 3005DOPE   C1A35257  29.199  14.308  14.081 -0.2317  0.2461  0.0782
 3005DOPE   D2A35258  29.510  14.546  13.764  0.0563 -0.0230  0.1499
 3005DOPE   C3A35259  29.527  14.667  13.333 -0.0318 -0.1390 -0.1517
 3005DOPE   C4A35260  29.572  14.867  12.943 -0.2414  0.3724 -0.3621
 3005DOPE   C1B35261  28.804  14.183  13.806  0.0879  0.1789 -0.1090
 3005DOPE   D2B35262  29.041  14.530  13.610 -0.0851  0.1608  0.0084
 3005DOPE   C3B35263  29.057  14.611  13.176 -0.3022  0.2368  0.1399
 3005DOPE   C4B35264  28.851  14.267  12.918 -0.0227 -0.0288 -0.1904
 3006POSM   NC335265  34.382  12.612  15.663 -0.1034 -0.1217  0.0891
 3006POSM   PO435266  34.750  12.586  15.853 -0.0188  0.1774 -0.3714
 3006POSM   AM135267  34.770  12.462  15.512  0.3912  0.0784 -0.3155
 3006POSM   AM235268  34.694  12.457  15.272 -0.0717 -0.0978 -0.1944
 3006POSM   T1A35269  35.119  12.242  15.271 -0.0708 -0.0293  0.1594
 3006POSM   C2A35270  35.249  11.900  15.028 -0.4040 -0.1145  0.0911
 3006POSM   C3A35271  35.382  11.499  14.835  0.0193 -0.2579 -0.1172
 3006POSM   C1B35272  34.957  12.663  15.132  0.0337  0.0866 -0.1465
 3006POSM   D2B35273  35.322  12.733  14.863  0.0108 -0.2301 -0.1617
 3006POSM   C3B35274  35.221  13.043  14.498  0.1757 -0.0334  0.2773
 3006POSM   C4B35275  34.978  13.372  14.250  0.0871  0.3093  0.0927
 3007POSM   NC335276  24.519  22.190  13.509 -0.0694  0.0803  0.1500
 3007POSM   PO435277  24.827  21.988  13.311 -0.4992 -0.3140  0.1073
 3007POSM   AM135278  24.910  22.189  13.028 -0.7233  0.1149  0.0763
 3007POSM   AM235279  25.156  22.288  12.946  0.0607  0.1289 -0.1673
 3007POSM   T1A35280  24.766  22.378  12.587 -0.1128 -0.1603 -0.0337
 3007POSM   C2A35281  24.687  22.639  12.182 -0.3984 -0.4211 -0.0417
 3007POSM   C3A35282  24.768  23.061  12.092  0.5088  0.2714 -0.0908
 3007POSM   C1B35283  25.275  22.440  12.683 -0.0087  0.2248 -0.3261
 3007POSM   D2B35284  25.146  22.645  12.356 -0.2663  0.3461  0.0159
 3007POSM   C3B35285  25.507  22.914  12.185  0.0071  0.3688 -0.0357
 3007POSM   C4B35286  25.783  23.214  12.240 -0.2940 -0.2618 -0.1066
 3008DOPE   NH335287  24.668  15.945  13.645 -0.0198  0.0235  0.0585
 3008DOPE   PO435288  24.792  15.685  13.730 -0.0432  0.2303  0.0005
 3008DOPE   GL135289  24.896  15.604  13.386 -0.3716 -0.0256  0.1122
 3008DOPE   GL235290  24.739  15.751  13.186  0.0448 -0.3831 -0.1933
 3008DOPE   C1A35291  25.158  15.469  13.087 -0.0760  0.0017  0.1149
 3008DOPE   D2A35292  25.452  15.352  12.785  0.0181  0.1786 -0.2104
 3008DOPE   C3A35293  25.448  15.816  12.730  0.0252  0.0687  0.2051
 3008DOPE   C4A35294  25.368  16.273  12.600  0.1333 -0.1322 -0.0760
 3008DOPE   C1B35295  24.709  15.316  12.954  0.3403  0.1440  0.2207
 3008DOPE   D2B35296  24.479  14.929  13.117 -0.0373 -0.6433 -0.0301
 3008DOPE   C3B35297  24.740  14.613  12.971 -0.2270  0.0002  0.0175
 3008DOPE   C4B35298  25.197  14.453  12.973 -0.4468 -0.2005  0.2266
 3009POSM   NC335299  22.665  17.327  13.528 -0.2280  0.2973 -0.0287
 3009POSM   PO435300  22.585  16.961  13.371  0.1720 -0.1388 -0.3327
 3009POSM   AM135301  22.690  16.706  13.147 -0.3350  0.0634 -0.1794
 3009POSM   AM235302  22.669  16.689  12.854 -0.0536  0.0911  0.3267
 3009POSM   T1A35303  23.010  16.362  12.990  0.1930  0.3120 -0.2277
 3009POSM   C2A35304  23.381  16.198  12.790 -0.2549 -0.0610 -0.0271
 3009POSM   C3A35305  23.664  15.918  12.593 -0.0511 -0.0043 -0.0810
 3009POSM   C1B35306  22.568  16.464  12.577 -0.1219  0.1148 -0.1280
 3009POSM   D2B35307  22.651  16.258  12.124 -0.0327 -0.2055 -0.0836
 3009POSM   C3B35308  22.380  16.029  11.790  0.0641 -0.0041 -0.3973
 3009POSM   C4B35309  22.107  15.925  11.433  0.1061 -0.4527  0.0221
 3010DOPE   NH335310  31.228  20.666  14.100 -0.1772  0.1228 -0.4314
 3010DOPE   PO435311  30.992  20.754  14.284  0.0163  0.1185 -0.0585
 3010DOPE   GL135312  30.837  20.920  13.913 -0.4025 -0.0005 -0.3506
 3010DOPE   GL235313  31.031  21.121  13.710 -0.3667 -0.0506 -0.1914
 3010DOPE   C1A35314  30.859  20.750  13.447 -0.0255  0.0005 -0.1037
 3010DOPE   D2A35315  30.694  20.465  13.172 -0.4605 -0.0871 -0.0610
 3010DOPE   C3A35316  30.565  20.534  12.763  0.1900  0.0912  0.0650
 3010DOPE   C4A35317  30.346  20.786  12.534 -0.2270  0.1156  0.2443
 3010DOPE   C1B35318  31.005  21.240  13.250 -0.0220 -0.2157 -0.3652
 3010DOPE   D2B35319  31.061  21.367  12.789  0.1338  0.0219  0.1489
 3010DOPE   C3B35320  31.220  21.814  12.631  0.1569  0.0637  0.1424
 3010DOPE   C4B35321  31.283  22.079  12.277  0.2354 -0.1303  0.1170
 3011POSM   NC335322  25.224  18.212  13.621 -0.1735  0.1026 -0.3958
 3011POSM   PO435323  24.817  18.305  13.645 -0.0452 -0.0561 -0.2719
 3011POSM   AM135324  24.881  18.324  13.325  0.0611  0.0208  0.0642
 3011POSM   AM235325  25.122  18.359  13.144 -0.0319  0.2497 -0.2998
 3011POSM   T1A35326  24.640  18.107  12.890 -0.2587  0.2140 -0.1500
 3011POSM   C2A35327  24.357  18.194  12.539  0.5480  0.0850 -0.1424
 3011POSM   C3A35328  24.152  18.211  12.136 -0.0421 -0.0215  0.4079
 3011POSM   C1B35329  25.109  18.289  12.843 -0.1614  0.1268  0.3459
 3011POSM   D2B35330  24.958  18.180  12.402 -0.0236  0.0935 -0.1613
 3011POSM   C3B35331  24.697  18.109  12.067  0.2138  0.2049 -0.0766
 3011POSM   C4B35332  24.441  18.076  11.689 -0.1584 -0.1043 -0.1196
 3012DOPS   CNO35333  32.129  13.502  15.359 -0.0586  0.0147 -0.3136
 3012DOPS   PO435334  32.431  13.458  15.126  0.2663 -0.1547  0.5702
 3012DOPS   GL135335  32.473  13.514  14.771  0.0947 -0.0096  0.2124
 3012DOPS   GL235336  32.624  13.718  14.786  0.1107 -0.1995  0.1339
 3012DOPS   C1A35337  32.632  13.354  14.358  0.0720  0.2129 -0.0046
 3012DOPS   D2A35338  32.884  13.059  14.220 -0.0601 -0.0506 -0.2518
 3012DOPS   C3A35339  33.272  13.164  14.485 -0.0679 -0.1947  0.2018
 3012DOPS   C4A35340  33.644  13.422  14.436  0.2067 -0.3275  0.0754
 3012DOPS   C1B35341  32.648  13.952  14.473  0.1919  0.0419  0.0746
 3012DOPS   D2B35342  32.826  14.378  14.277  0.3928 -0.2329  0.1956
 3012DOPS   C3B35343  32.754  14.348  13.843  0.1460  0.1776 -0.0373
 3012DOPS   C4B35344  32.557  14.556  13.498  0.1716  0.3017 -0.0134
 3013DOPC   NC335345  30.615  20.520  14.517 -0.0928  0.0030 -0.1727
 3013DOPC   PO435346  30.730  20.226  14.312  0.0188  0.2775 -0.0250
 3013DOPC   GL135347  30.717  20.453  14.016  0.0326  0.0836  0.0146
 3013DOPC   GL235348  30.913  20.418  13.857 -0.0693 -0.1553 -0.0381
 3013DOPC   C1A35349  30.429  20.681  13.703 -0.0158 -0.2606  0.1477
 3013DOPC   D2A35350  30.192  20.542  13.325  0.1753 -0.1347 -0.0548
 3013DOPC   C3A35351  30.245  20.094  13.195  0.2465 -0.2511 -0.5264
 3013DOPC   C4A35352  30.424  19.783  12.907 -0.1249 -0.0282 -0.1418
 3013DOPC   C1B35353  31.108  20.171  13.580 -0.0541 -0.1503  0.0340
 3013DOPC   D2B35354  31.463  20.114  13.288  0.0816 -0.0350 -0.1500
 3013DOPC   C3B35355  31.497  20.414  12.929  0.0845 -0.3380 -0.2914
 3013DOPC   C4B35356  31.593  20.430  12.414 -0.0951 -0.1081  0.1744
 3014DOPS   CNO35357  28.481  23.780  13.742  0.0694  0.1972  0.0330
 3014DOPS   PO435358  28.634  24.066  13.545  0.1189 -0.0431  0.1593
 3014DOPS   GL135359  28.665  24.051  13.090 -0.0090  0.0436 -0.0948
 3014DOPS   GL235360  28.979  23.940  13.024 -0.1777  0.0144 -0.2943
 3014DOPS   C1A35361  28.703  24.061  12.665  0.1682  0.4222  0.1384
 3014DOPS   D2A35362  28.567  24.014  12.193  0.1342  0.1300  0.0158
 3014DOPS   C3A35363  28.113  24.084  12.010  0.4493  0.0972 -0.0451
 3014DOPS   C4A35364  27.684  23.917  12.085 -0.0108  0.3400  0.2545
 3014DOPS   C1B35365  29.044  23.547  12.804  0.2548 -0.0450  0.1375
 3014DOPS   D2B35366  28.980  23.140  12.565 -0.1139 -0.0080  0.5912
 3014DOPS   C3B35367  28.839  22.737  12.773 -0.1331  0.1902 -0.1743
 3014DOPS   C4B35368  28.738  22.266  12.746 -0.0729  0.0308 -0.0054
 3015DOPE   NH335369  34.507  19.641  15.044 -0.1508 -0.2367  0.3234
 3015DOPE   PO435370  34.780  19.424  15.083 -0.1202 -0.1479  0.2377
 3015DOPE   GL135371  34.819  19.450  14.662  0.2875 -0.0895  0.3895
 3015DOPE   GL235372  34.563  19.527  14.594  0.0647 -0.1610  0.0803
 3015DOPE   C1A35373  34.867  19.127  14.316  0.2847 -0.2167  0.3387
 3015DOPE   D2A35374  34.811  18.786  14.074 -0.1596  0.2350  0.0074
 3015DOPE   C3A35375  34.934  18.725  13.629  0.0549  0.1086  0.0949
 3015DOPE   C4A35376  34.697  18.618  13.294  0.2294  0.1168  0.1160
 3015DOPE   C1B35377  34.492  19.400  14.152 -0.0303  0.0845  0.3374
 3015DOPE   D2B35378  34.676  19.181  13.806 -0.0022  0.1940  0.2044
 3015DOPE   C3B35379  34.571  19.088  13.363  0.2485 -0.1091  0.5659
 3015DOPE   C4B35380  34.402  19.385  13.028 -0.1560 -0.2330  0.1491
 3016DOPC   NC335381  24.467  19.536  13.105 -0.0466  0.2388 -0.0269
 3016DOPC   PO435382  24.623  19.879  12.981 -0.1840 -0.0554 -0.1654
 3016DOPC   GL135383  24.852  19.685  12.762 -0.0281 -0.1291 -0.0625
 3016DOPC   GL235384  24.766  19.680  12.459  0.0994 -0.1836  0.0121
 3016DOPC   C1A35385  25.237  19.853  12.575 -0.1738  0.0565  0.1423
 3016DOPC   D2A35386  25.691  20.034  12.531 -0.2205 -0.1048 -0.0889
 3016DOPC   C3A35387  25.963  19.750  12.306  0.1949  0.1210 -0.0503
 3016DOPC   C4A35388  26.153  19.437  12.041 -0.2491  0.1708 -0.2602
 3016DOPC   C1B35389  25.089  19.457  12.156 -0.1880 -0.0921 -0.0901
 3016DOPC   D2B35390  25.211  19.057  11.954  0.3229  0.0785 -0.0115
 3016DOPC   C3B35391  24.881  18.752  11.933  0.0502  0.0617 -0.0470
 3016DOPC   C4B35392  24.508  18.567  11.905 -0.0729 -0.1747 -0.1104
 3017DOPS   CNO35393  21.772  18.272  13.328  0.0558  0.2346 -0.2199
 3017DOPS   PO435394  22.051  18.253  13.133 -0.0019 -0.0693 -0.3519
 3017DOPS   GL135395  22.050  18.224  12.720 -0.0653  0.1451  0.1820
 3017DOPS   GL235396  21.889  18.018  12.664  0.1534  0.2105 -0.0790
 3017DOPS   C1A35397  22.341  18.278  12.349  0.1506  0.3865 -0.3592
 3017DOPS   D2A35398  22.271  18.479  11.943  0.0017 -0.0223  0.1800
 3017DOPS   C3A35399  22.658  18.437  11.756  0.0011 -0.2006 -0.0542
 3017DOPS   C4A35400  22.920  18.217  11.483 -0.3103 -0.4436 -0.0443
 3017DOPS   C1B35401  22.082  17.748  12.347 -0.1822  0.1935  0.0348
 3017DOPS   D2B35402  22.228  17.347  12.285 -0.1131 -0.0283  0.0792
 3017DOPS   C3B35403  22.425  17.055  11.926 -0.1454  0.1756  0.2369
 3017DOPS   C4B35404  22.402  16.610  11.782  0.4708  0.1133 -0.0808
 3018DOPC   NC335405  28.305  18.302  14.313 -0.1908 -0.0533 -0.0307
 3018DOPC   PO435406  28.392  17.977  14.155 -0.1302  0.0274 -0.0807
 3018DOPC   GL135407  28.609  17.893  13.776 -0.3844 -0.1211  0.1283
 3018DOPC   GL235408  28.370  17.922  13.644 -0.1872  0.0176  0.1934
 3018DOPC   C1A35409  28.811  18.022  13.396 -0.2423 -0.3784 -0.1446
 3018DOPC   D2A35410  28.863  17.917  12.971 -0.0285  0.0197 -0.2818
 3018DOPC   C3A35411  28.589  17.556  12.864  0.2192 -0.1053 -0.0285
 3018DOPC   C4A35412  28.459  17.151  12.633  0.0179 -0.0146  0.0627
 3018DOPC   C1B35413  28.521  17.589  13.350  0.0588 -0.1869  0.1400
 3018DOPC   D2B35414  28.653  17.187  13.244 -0.0455  0.4867 -0.1168
 3018DOPC   C3B35415  28.726  16.836  12.946 -0.4201 -0.0272 -0.1397
 3018DOPC   C4B35416  28.384  16.611  12.708  0.2627  0.0657 -0.1378
 3019DOPE   NH335417  34.277  21.267  14.062 -0.2987  0.2379 -0.0166
 3019DOPE   PO435418  33.986  21.178  14.015  0.0064  0.1974 -0.0284
 3019DOPE   GL135419  34.113  21.002  13.635  0.1452 -0.0205  0.3127
 3019DOPE   GL235420  34.315  21.129  13.527  0.0132 -0.0336 -0.1394
 3019DOPE   C1A35421  33.964  21.007  13.190  0.1014 -0.2361  0.1760
 3019DOPE   D2A35422  33.714  20.917  12.804 -0.1550  0.0178 -0.0215
 3019DOPE   C3A35423  33.677  20.507  12.581 -0.0889  0.2282 -0.1839
 3019DOPE   C4A35424  33.544  20.033  12.604 -0.1814 -0.2991  0.0783
 3019DOPE   C1B35425  34.452  21.048  13.039  0.2675  0.0459  0.2014
 3019DOPE   D2B35426  34.642  20.746  12.721 -0.1991  0.3109  0.3091
 3019DOPE   C3B35427  35.074  20.523  12.677  0.0881  0.0333 -0.0212
 3019DOPE   C4B35428  35.274  20.212  12.482  0.1014  0.0819 -0.1086
 3020POSM   NC335429  32.699  20.762  13.858 -0.3162 -0.1017  0.1871
 3020POSM   PO435430  32.473  20.949  14.120  0.0114 -0.1252  0.0118
 3020POSM   AM135431  32.333  21.050  13.835  0.0721  0.0219  0.3188
 3020POSM   AM235432  32.442  21.038  13.529 -0.2743 -0.3281  0.1759
 3020POSM   T1A35433  31.935  21.002  13.540  0.0936  0.4231  0.1684
 3020POSM   C2A35434  31.759  21.042  13.131  0.3771  0.2900 -0.3680
 3020POSM   C3A35435  31.514  20.917  12.801 -0.3020  0.1041  0.2749
 3020POSM   C1B35436  32.574  21.158  13.231  0.2379  0.0485  0.2462
 3020POSM   D2B35437  32.609  21.409  12.840 -0.5216  0.1758  0.0800
 3020POSM   C3B35438  32.921  21.469  12.531 -0.2607  0.1080 -0.2806
 3020POSM   C4B35439  32.943  21.670  12.134 -0.2290  0.1637  0.2768
 3021DOPE   NH335440  31.372  21.944  13.914  0.2467 -0.3031 -0.1096
 3021DOPE   PO435441  31.522  21.672  13.968  0.0359  0.0774  0.1752
 3021DOPE   GL135442  31.615  21.571  13.602 -0.3375 -0.0836  0.1531
 3021DOPE   GL235443  31.558  21.335  13.540  0.1309  0.0896 -0.1642
 3021DOPE   C1A35444  32.007  21.398  13.315  0.1580 -0.0039 -0.1717
 3021DOPE   D2A35445  32.174  21.325  12.931 -0.1526  0.0139  0.0592
 3021DOPE   C3A35446  31.954  21.108  12.598  0.0509  0.2472  0.2183
 3021DOPE   C4A35447  31.729  20.879  12.273  0.0895 -0.1304  0.2175
 3021DOPE   C1B35448  31.475  21.473  13.050  0.1615  0.1034 -0.0379
 3021DOPE   D2B35449  31.573  21.453  12.593  0.1318  0.2039  0.3910
 3021DOPE   C3B35450  31.794  21.801  12.347 -0.0869 -0.1211  0.1338
 3021DOPE   C4B35451  31.907  21.897  11.866 -0.3571  0.0441  0.2646
 3022POSM   NC335452  31.861  20.229  13.888 -0.0047 -0.0617  0.0359
 3022POSM   PO435453  32.147  19.982  14.048 -0.1924 -0.1194  0.0396
 3022POSM   AM135454  32.146  19.734  13.813  0.2063  0.0276  0.0370
 3022POSM   AM235455  32.077  19.467  13.725 -0.1775 -0.0210  0.4448
 3022POSM   T1A35456  32.134  19.750  13.277 -0.1009  0.0698 -0.3325
 3022POSM   C2A35457  32.074  19.632  12.819  0.2278 -0.0823  0.2220
 3022POSM   C3A35458  32.111  19.707  12.342 -0.1059 -0.2177  0.0061
 3022POSM   C1B35459  32.005  19.196  13.587  0.0850  0.2069 -0.1152
 3022POSM   D2B35460  31.887  18.803  13.400 -0.0263 -0.0898 -0.2155
 3022POSM   C3B35461  31.482  18.605  13.298  0.1135 -0.1698  0.2986
 3022POSM   C4B35462  31.176  18.264  13.206  0.0637  0.0176 -0.0927
 3023DOPC   NC335463  29.969  16.906  15.058  0.0001  0.1177 -0.1161
 3023DOPC   PO435464  29.742  16.966  14.751 -0.1612 -0.0742  0.3716
 3023DOPC   GL135465  29.694  16.825  14.395  0.2489 -0.0107 -0.0246
 3023DOPC   GL235466  29.703  16.975  14.137 -0.1242 -0.0625 -0.0139
 3023DOPC   C1A35467  29.936  16.494  14.158 -0.1985 -0.1031  0.2244
 3023DOPC   D2A35468  30.367  16.371  13.952 -0.1185  0.0701  0.0797
 3023DOPC   C3A35469  30.425  16.607  13.553  0.0872 -0.1754 -0.0850
 3023DOPC   C4A35470  30.672  16.632  13.183 -0.2026 -0.0545 -0.2957
 3023DOPC   C1B35471  29.700  17.248  13.808  0.1035 -0.0757  0.1453
 3023DOPC   D2B35472  29.958  17.314  13.452 -0.3252  0.0454  0.1467
 3023DOPC   C3B35473  30.207  17.043  13.246 -0.1348  0.1260  0.1412
 3023DOPC   C4B35474  30.321  16.891  12.856  0.2071 -0.0577  0.0733
 3024DOPE   NH335475  30.863  25.073  13.580  0.1593 -0.3383  0.0330
 3024DOPE   PO435476  31.096  24.906  13.509 -0.2759 -0.1935  0.0746
 3024DOPE   GL135477  31.134  24.814  13.171 -0.1383 -0.1575  0.3210
 3024DOPE   GL235478  31.240  24.561  13.227 -0.0331  0.2529  0.0354
 3024DOPE   C1A35479  30.985  24.666  12.770 -0.1872 -0.0308 -0.1140
 3024DOPE   D2A35480  30.773  24.476  12.415  0.2755  0.0075  0.1613
 3024DOPE   C3A35481  30.311  24.497  12.386  0.0014 -0.0590  0.0923
 3024DOPE   C4A35482  30.055  24.828  12.566  0.0546 -0.0755 -0.0599
 3024DOPE   C1B35483  31.467  24.444  12.882  0.2336  0.1310 -0.0835
 3024DOPE   D2B35484  31.730  24.503  12.521  0.0909  0.0507 -0.0153
 3024DOPE   C3B35485  31.846  24.098  12.385  0.0940 -0.1232  0.1967
 3024DOPE   C4B35486  32.008  23.975  11.906 -0.0684  0.1773  0.3117
 3025POSM   NC335487  30.846  12.985  15.060  0.0492 -0.1517 -0.3914
 3025POSM   PO435488  30.687  12.984  14.719  0.1269 -0.2166 -0.2343
 3025POSM   AM135489  30.506  13.072  14.487  0.0649 -0.1671 -0.0161
 3025POSM   AM235490  30.176  13.109  14.461 -0.1145 -0.0859 -0.2954
 3025POSM   T1A35491  30.485  12.938  13.981 -0.0568 -0.1009  0.2140
 3025POSM   C2A35492  30.419  12.888  13.488 -0.1155 -0.2566 -0.1282
 3025POSM   C3A35493  30.678  12.711  13.172  0.1870 -0.0113 -0.1145
 3025POSM   C1B35494  30.002  13.275  14.273 -0.0694  0.1750  0.0815
 3025POSM   D2B35495  29.885  13.373  13.852 -0.0286  0.4079 -0.2230
 3025POSM   C3B35496  30.061  13.188  13.438  0.0164  0.0215 -0.5040
 3025POSM   C4B35497  30.147  12.858  13.061  0.0353 -0.0662  0.0760
 3026DOPE   NH335498  33.514  18.696  14.686  0.5305 -0.2768  0.0787
 3026DOPE   PO435499  33.297  18.923  14.569 -0.0921 -0.0452  0.0577
 3026DOPE   GL135500  33.391  18.713  14.213 -0.0815 -0.0369  0.0497
 3026DOPE   GL235501  33.503  18.955  14.038  0.3465  0.1528 -0.0462
 3026DOPE   C1A35502  33.270  18.602  13.764  0.0094  0.0926  0.0958
 3026DOPE   D2A35503  33.047  18.323  13.421 -0.1617  0.0939 -0.1677
 3026DOPE   C3A35504  33.149  18.037  13.099  0.1197 -0.0236  0.3769
 3026DOPE   C4A35505  32.961  17.790  12.761  0.5430  0.0825  0.0510
 3026DOPE   C1B35506  33.915  19.266  14.021 -0.0318  0.0564  0.3999
 3026DOPE   D2B35507  34.232  19.253  13.653  0.0068 -0.0959 -0.1711
 3026DOPE   C3B35508  34.102  19.074  13.274 -0.0898  0.0757 -0.0114
 3026DOPE   C4B35509  34.277  18.711  13.051 -0.2078  0.0795  0.3017
 3027DOPE   NH335510  24.983  17.205  13.569 -0.0960 -0.0480 -0.2198
 3027DOPE   PO435511  25.219  16.967  13.513  0.0742 -0.0664  0.3384
 3027DOPE   GL135512  25.437  17.013  13.113  0.2362 -0.4564  0.0770
 3027DOPE   GL235513  25.657  17.116  13.224 -0.3600 -0.0790  0.0657
 3027DOPE   C1A35514  25.455  16.748  12.767 -0.0990  0.4173  0.3530
 3027DOPE   D2A35515  25.434  16.640  12.305 -0.0971  0.1468 -0.2867
 3027DOPE   C3A35516  25.649  16.856  11.970 -0.1843  0.3548 -0.1575
 3027DOPE   C4A35517  25.542  17.091  11.586 -0.3688  0.1210  0.1057
 3027DOPE   C1B35518  25.933  17.199  12.868  0.2604  0.1609  0.1954
 3027DOPE   D2B35519  26.355  17.195  12.648 -0.2275 -0.0785 -0.0978
 3027DOPE   C3B35520  26.371  17.240  12.208 -0.1124  0.0264 -0.2731
 3027DOPE   C4B35521  26.505  17.285  11.778  0.1627 -0.1418 -0.0381
 3028DOPE   NH335522   0.709  14.189  15.926  0.1982  0.0376  0.3052
 3028DOPE   PO435523   0.694  13.992  15.620 -0.1871 -0.1074 -0.1078
 3028DOPE   GL135524   0.715  13.859  15.233 -0.0945  0.1801  0.2024
 3028DOPE   GL235525   0.583  13.701  15.073  0.0644 -0.3776 -0.4078
 3028DOPE   C1A35526   0.702  14.202  14.910  0.1889  0.1220  0.1657
 3028DOPE   D2A35527   0.893  14.396  14.503 -0.1871  0.0779 -0.0430
 3028DOPE   C3A35528   0.829  14.498  14.091  0.0368 -0.0255 -0.0420
 3028DOPE   C4A35529   0.828  14.945  13.872  0.1056  0.1255 -0.0171
 3028DOPE   C1B35530   0.514  13.603  14.629  0.1582 -0.3204 -0.0678
 3028DOPE   D2B35531   0.755  13.563  14.235 -0.0127 -0.0365 -0.2982
 3028DOPE   C3B35532   0.660  13.693  13.782 -0.0136  0.0164  0.0969
 3028DOPE   C4B35533   0.419  13.640  13.441  0.0472 -0.3671 -0.0677
 3029DOPE   NH335534  24.271  16.268  13.643 -0.0159  0.0831 -0.0254
 3029DOPE   PO435535  24.435  16.503  13.769  0.0649  0.2424 -0.1604
 3029DOPE   GL135536  24.425  16.716  13.480  0.1972 -0.2057  0.1169
 3029DOPE   GL235537  24.211  16.692  13.297  0.1212  0.0062  0.2722
 3029DOPE   C1A35538  24.631  16.660  13.046  0.0689 -0.2342  0.1240
 3029DOPE   D2A35539  24.776  16.818  12.620  0.0493  0.1176  0.0830
 3029DOPE   C3A35540  24.956  16.496  12.267 -0.0418  0.0515 -0.0619
 3029DOPE   C4A35541  24.661  16.169  12.050 -0.0875 -0.1758 -0.0181
 3029DOPE   C1B35542  24.237  16.681  12.822 -0.1459 -0.1393 -0.0282
 3029DOPE   D2B35543  24.192  16.954  12.488 -0.1872 -0.1209  0.3074
 3029DOPE   C3B35544  24.172  17.388  12.341  0.1900  0.0572  0.2446
 3029DOPE   C4B35545  24.401  17.690  12.033 -0.2480 -0.2896 -0.3560
 3030POSM   NC335546  34.754  15.104  15.827  0.0123 -0.1890  0.2279
 3030POSM   PO435547  34.519  15.135  15.537  0.1852 -0.2248  0.1541
 3030POSM   AM135548  34.619  15.049  15.239 -0.1102  0.2068  0.2286
 3030POSM   AM235549  34.583  14.881  15.035 -0.1126  0.2695 -0.0600
 3030POSM   T1A35550  34.840  15.237  14.835 -0.1191  0.0721 -0.1857
 3030POSM   C2A35551  35.066  15.186  14.449  0.3060  0.0875 -0.1717
 3030POSM   C3A35552  35.337  15.286  14.083  0.2984  0.0284 -0.2232
 3030POSM   C1B35553  34.524  14.784  14.745  0.3404 -0.1738 -0.2879
 3030POSM   D2B35554  34.738  14.768  14.375 -0.0800  0.0961 -0.0921
 3030POSM   C3B35555  35.029  14.911  14.055 -0.0399  0.0905  0.0637
 3030POSM   C4B35556  35.089  14.885  13.633  0.2870 -0.1452  0.1537
 3031DOPE   NH335557  32.624  17.765  15.152 -0.1368  0.1487  0.0232
 3031DOPE   PO435558  32.369  17.576  15.037 -0.3680 -0.2669  0.0677
 3031DOPE   GL135559  32.337  17.484  14.665  0.0515  0.2905 -0.1965
 3031DOPE   GL235560  32.378  17.741  14.495 -0.4361  0.1141 -0.1427
 3031DOPE   C1A35561  32.538  17.202  14.399 -0.0785 -0.0679 -0.3680
 3031DOPE   D2A35562  32.630  17.064  13.920 -0.0150 -0.0315 -0.0710
 3031DOPE   C3A35563  32.781  17.405  13.655 -0.1663  0.1439 -0.0502
 3031DOPE   C4A35564  33.097  17.699  13.417  0.1445  0.1116 -0.1415
 3031DOPE   C1B35565  32.320  17.480  14.079  0.0023  0.3239  0.0407
 3031DOPE   D2B35566  32.180  17.279  13.663 -0.0587 -0.2514  0.0937
 3031DOPE   C3B35567  32.355  17.444  13.282  0.4644  0.0957  0.0782
 3031DOPE   C4B35568  32.786  17.484  13.093 -0.0925 -0.1505  0.0265
 3032DOPE   NH335569  32.049  22.173  14.104 -0.1805 -0.1791 -0.2072
 3032DOPE   PO435570  32.011  21.840  14.041 -0.0856 -0.4463 -0.1203
 3032DOPE   GL135571  32.118  21.879  13.742 -0.0659 -0.0975 -0.3237
 3032DOPE   GL235572  32.312  22.121  13.679  0.1805 -0.1602  0.1614
 3032DOPE   C1A35573  32.408  21.684  13.420 -0.1208  0.3159  0.5648
 3032DOPE   D2A35574  32.855  21.653  13.183  0.2872  0.2296  0.1305
 3032DOPE   C3A35575  32.935  21.869  12.792  0.0073  0.0866 -0.0911
 3032DOPE   C4A35576  33.231  22.052  12.535  0.3258 -0.2673  0.4794
 3032DOPE   C1B35577  32.475  22.256  13.277  0.1375  0.2775  0.0492
 3032DOPE   D2B35578  32.470  22.051  12.877  0.0577 -0.2731  0.3430
 3032DOPE   C3B35579  32.395  21.712  12.584 -0.1017 -0.0932  0.2409
 3032DOPE   C4B35580  32.387  21.810  12.120  0.2219 -0.2578 -0.0872
 3033POSM   NC335581  31.498  16.466  15.133  0.1897  0.0872  0.1061
 3033POSM   PO435582  31.323  16.538  14.799  0.1297 -0.3016  0.1768
 3033POSM   AM135583  31.427  16.550  14.523  0.0010  0.0161  0.3809
 3033POSM   AM235584  31.480  16.346  14.354  0.0467  0.1952 -0.1935
 3033POSM   T1A35585  31.572  16.713  14.062  0.0764  0.1193 -0.1381
 3033POSM   C2A35586  31.400  16.583  13.654  0.1698 -0.1695  0.0810
 3033POSM   C3A35587  31.191  16.751  13.250 -0.1316 -0.1963 -0.0883
 3033POSM   C1B35588  31.446  16.236  14.016 -0.2138  0.3772 -0.2609
 3033POSM   D2B35589  31.603  15.939  13.667 -0.1198  0.0139  0.1609
 3033POSM   C3B35590  31.864  16.113  13.302 -0.0015 -0.1463  0.1675
 3033POSM   C4B35591  32.030  16.492  13.012  0.1998 -0.0399 -0.1749
 3034DOPC   NC335592  26.546  21.302  13.520 -0.1188  0.0062  0.1546
 3034DOPC   PO435593  26.863  21.106  13.477 -0.1074 -0.0385  0.0814
 3034DOPC   GL135594  26.940  20.895  13.142 -0.1198  0.1578  0.2070
 3034DOPC   GL235595  26.718  20.757  13.137  0.1650  0.3554 -0.0604
 3034DOPC   C1A35596  27.361  20.750  12.992  0.1958 -0.1122 -0.0058
 3034DOPC   D2A35597  27.629  20.657  12.652 -0.0351  0.1814  0.2686
 3034DOPC   C3A35598  27.627  20.367  12.271  0.1491  0.0937  0.0700
 3034DOPC   C4A35599  27.758  20.122  11.898  0.0949  0.0649  0.4333
 3034DOPC   C1B35600  26.537  21.097  12.844  0.1497 -0.1651  0.1991
 3034DOPC   D2B35601  26.224  21.403  12.569 -0.3598 -0.0008  0.0438
 3034DOPC   C3B35602  26.193  21.407  12.098  0.1616 -0.0205 -0.4191
 3034DOPC   C4B35603  25.777  21.269  11.863  0.0458 -0.0230  0.1156
 3035DOPE   NH335604  26.427  16.940  14.507  0.0245  0.0850 -0.1504
 3035DOPE   PO435605  26.214  16.794  14.317 -0.0748 -0.1638  0.0869
 3035DOPE   GL135606  26.312  16.662  13.957  0.0272  0.4762  0.3707
 3035DOPE   GL235607  26.037  16.709  13.824 -0.0719  0.1145 -0.1684
 3035DOPE   C1A35608  26.689  16.477  13.741 -0.3468  0.1305  0.0435
 3035DOPE   D2A35609  27.059  16.446  13.483  0.0392  0.2449  0.2142
 3035DOPE   C3A35610  27.100  16.353  13.009  0.1254  0.0340 -0.2670
 3035DOPE   C4A35611  27.402  16.289  12.648 -0.0242  0.1554 -0.0879
 3035DOPE   C1B35612  26.185  16.395  13.494  0.1391  0.1529 -0.2953
 3035DOPE   D2B35613  26.113  16.155  13.148 -0.3618 -0.0359 -0.2055
 3035DOPE   C3B35614  25.741  16.238  12.908 -0.0126 -0.4929  0.2918
 3035DOPE   C4B35615  25.374  16.146  13.110 -0.1895  0.0635 -0.1998
 3036DOPC   NC335616   2.366  19.457  15.367  0.0924  0.3671  0.1916
 3036DOPC   PO435617   2.466  19.282  15.018 -0.0874 -0.0910  0.0544
 3036DOPC   GL135618   2.699  19.314  14.651 -0.3174  0.2812 -0.1168
 3036DOPC   GL235619   2.980  19.232  14.685 -0.0057  0.0887  0.0802
 3036DOPC   C1A35620   2.907  19.433  14.246  0.0629 -0.1972 -0.0698
 3036DOPC   D2A35621   3.247  19.346  13.944 -0.3164  0.1833 -0.0008
 3036DOPC   C3A35622   3.110  19.226  13.478 -0.1636  0.3344  0.0645
 3036DOPC   C4A35623   3.208  19.024  13.112 -0.0356  0.0214  0.0139
 3036DOPC   C1B35624   3.139  18.993  14.276 -0.0422 -0.1497 -0.2683
 3036DOPC   D2B35625   3.227  18.789  13.882 -0.1826 -0.1039  0.2211
 3036DOPC   C3B35626   3.074  18.735  13.460 -0.0884 -0.0226 -0.1612
 3036DOPC   C4B35627   3.096  18.427  13.068 -0.2048  0.2436  0.3376
 3037POSM   NC335628  25.598  14.707  13.728 -0.3600 -0.0279 -0.3203
 3037POSM   PO435629  25.947  14.503  13.842  0.0396 -0.0735 -0.3746
 3037POSM   AM135630  26.102  14.518  13.529 -0.0011  0.2672  0.3099
 3037POSM   AM235631  26.210  14.649  13.293 -0.2843  0.2629  0.2146
 3037POSM   T1A35632  26.168  14.134  13.231  0.3456 -0.2154 -0.3064
 3037POSM   C2A35633  26.246  13.953  12.818  0.1465 -0.2210  0.0140
 3037POSM   C3A35634  26.255  13.869  12.349  0.0974 -0.2301 -0.0767
 3037POSM   C1B35635  26.230  14.535  12.949  0.0541 -0.2401  0.2774
 3037POSM   D2B35636  26.183  14.394  12.548 -0.0796 -0.0788  0.1120
 3037POSM   C3B35637  25.802  14.244  12.395 -0.1344 -0.0220  0.0229
 3037POSM   C4B35638  25.345  14.320  12.415 -0.0153 -0.1197 -0.0167
 3038DOPE   NH335639  31.735  11.210  14.756 -0.0339 -0.3633 -0.2043
 3038DOPE   PO435640  31.910  11.466  14.921 -0.0364  0.2591  0.0430
 3038DOPE   GL135641  31.978  11.789  14.822  0.1644  0.1256  0.0082
 3038DOPE   GL235642  32.209  11.798  14.711  0.0629  0.2452 -0.1330
 3038DOPE   C1A35643  31.764  11.963  14.441  0.2963 -0.1547 -0.1069
 3038DOPE   D2A35644  31.334  12.031  14.452  0.1519  0.3231  0.0148
 3038DOPE   C3A35645  31.176  12.224  14.053 -0.0073 -0.2657 -0.1967
 3038DOPE   C4A35646  31.348  12.357  13.632 -0.0353 -0.2306 -0.2940
 3038DOPE   C1B35647  32.262  12.078  14.381  0.0346 -0.0042 -0.1803
 3038DOPE   D2B35648  32.080  12.498  14.229  0.3348 -0.1601  0.0086
 3038DOPE   C3B35649  31.987  12.591  13.778  0.2017  0.1008 -0.0963
 3038DOPE   C4B35650  32.060  12.801  13.409 -0.0309  0.2163 -0.2175
 3039DOPE   NH335651   2.656  16.513  16.016  0.0955 -0.2283  0.0890
 3039DOPE   PO435652   2.706  16.269  15.835  0.1023 -0.3996  0.3706
 3039DOPE   GL135653   2.796  16.274  15.437 -0.1338  0.1699  0.2190
 3039DOPE   GL235654   2.544  16.088  15.418 -0.1269 -0.1500  0.1113
 3039DOPE   C1A35655   2.681  16.333  14.979  0.2960  0.1921 -0.0019
 3039DOPE   D2A35656   2.659  16.350  14.541  0.2294 -0.1514  0.0861
 3039DOPE   C3A35657   2.345  16.202  14.255 -0.2490 -0.1884 -0.1333
 3039DOPE   C4A35658   2.198  16.440  13.860 -0.0085 -0.0670  0.1749
 3039DOPE   C1B35659   2.768  15.785  15.244 -0.2779 -0.2636  0.0317
 3039DOPE   D2B35660   2.757  15.444  14.943  0.2638 -0.0734 -0.2831
 3039DOPE   C3B35661   2.318  15.253  14.866 -0.1927 -0.0640  0.0150
 3039DOPE   C4B35662   2.002  15.344  14.541  0.1076  0.4618 -0.1904
 3040POSM   NC335663  26.653  12.860  14.116 -0.1081  0.2060 -0.1574
 3040POSM   PO435664  26.481  12.509  14.166  0.0254  0.1491 -0.1476
 3040POSM   AM135665  26.399  12.523  13.851  0.0194 -0.0751 -0.2487
 3040POSM   AM235666  26.577  12.593  13.660  0.0159 -0.2572 -0.4145
 3040POSM   T1A35667  26.288  12.288  13.441 -0.0739  0.1139  0.2604
 3040POSM   C2A35668  26.125  11.996  13.152 -0.0793  0.3487 -0.1888
 3040POSM   C3A35669  26.233  11.729  12.792 -0.1131 -0.3226  0.4145
 3040POSM   C1B35670  26.618  12.682  13.327 -0.0012 -0.1204  0.1654
 3040POSM   D2B35671  26.765  12.621  12.893  0.2150 -0.0886  0.4126
 3040POSM   C3B35672  26.819  12.887  12.558  0.0028  0.2681  0.1490
 3040POSM   C4B35673  26.551  12.978  12.200 -0.2059 -0.0050 -0.0857
 3041DOPS   CNO35674  31.800  13.873  15.167  0.0867  0.5180  0.0756
 3041DOPS   PO435675  32.150  13.882  15.029 -0.1047  0.2951  0.3629
 3041DOPS   GL135676  32.179  14.010  14.634 -0.2546  0.1579  0.4612
 3041DOPS   GL235677  32.120  13.782  14.549  0.0916  0.0624 -0.2157
 3041DOPS   C1A35678  32.295  14.344  14.297  0.2096 -0.0896  0.0150
 3041DOPS   D2A35679  32.320  14.692  13.979 -0.1045 -0.0100  0.3556
 3041DOPS   C3A35680  31.906  14.943  13.848 -0.0163 -0.0580  0.0475
 3041DOPS   C4A35681  31.503  15.171  13.946 -0.4349  0.1028 -0.3553
 3041DOPS   C1B35682  32.292  13.648  14.168  0.0156  0.4477 -0.2416
 3041DOPS   D2B35683  32.602  13.860  13.888  0.1364  0.0985  0.1431
 3041DOPS   C3B35684  32.432  13.943  13.457  0.0907  0.0394 -0.2329
 3041DOPS   C4B35685  32.642  14.189  13.127  0.0192 -0.0098  0.1512
 3042DOPC   NC335686  27.397  25.164  13.314  0.1072 -0.0894 -0.2655
 3042DOPC   PO435687  27.734  25.169  13.189 -0.3267 -0.0905  0.1677
 3042DOPC   GL135688  28.042  25.178  12.892  0.5483  0.1309 -0.5777
 3042DOPC   GL235689  28.097  25.231  12.665  0.1088 -0.1029  0.1764
 3042DOPC   C1A35690  28.117  24.714  12.714  0.0209 -0.1073  0.0455
 3042DOPC   D2A35691  28.196  24.434  12.411  0.0290 -0.1212 -0.0409
 3042DOPC   C3A35692  27.956  24.562  12.044 -0.0927  0.0813 -0.3654
 3042DOPC   C4A35693  27.739  24.838  11.753  0.3679  0.2450 -0.0653
 3042DOPC   C1B35694  27.880  25.467  12.273  0.0659  0.3193  0.1812
 3042DOPC   D2B35695  28.093  25.305  11.924  0.0283  0.0824 -0.1092
 3042DOPC   C3B35696  28.331  25.418  11.566  0.1636  0.0208  0.1111
 3042DOPC   C4B35697  28.469  25.794  11.306  0.0033 -0.2080 -0.0272
 3043POSM   NC335698  30.370  18.585  13.996  0.0923 -0.0110  0.1884
 3043POSM   PO435699  30.614  18.899  14.133  0.2329  0.0659  0.0759
 3043POSM   AM135700  30.699  18.890  13.817  0.1014 -0.0662 -0.2100
 3043POSM   AM235701  30.535  18.804  13.590  0.0311 -0.2180 -0.2015
 3043POSM   T1A35702  30.995  18.865  13.367  0.0402 -0.1981  0.1188
 3043POSM   C2A35703  31.100  18.720  12.988 -0.0029  0.1262 -0.1220
 3043POSM   C3A35704  31.427  18.488  12.733  0.1863 -0.1580  0.1523
 3043POSM   C1B35705  30.475  18.880  13.253 -0.0541  0.1245 -0.0346
 3043POSM   D2B35706  30.553  18.721  12.823 -0.0617 -0.1833  0.2115
 3043POSM   C3B35707  30.859  18.406  12.714  0.0121 -0.2875  0.0518
 3043POSM   C4B35708  31.141  18.045  12.774  0.1972  0.2903 -0.1146
 3044DOPE   NH335709  29.475  16.542  14.685 -0.1886  0.0325 -0.5721
 3044DOPE   PO435710  29.462  16.267  14.668  0.0616 -0.0990  0.1406
 3044DOPE   GL135711  29.768  16.139  14.434 -0.1734  0.0175  0.3018
 3044DOPE   GL235712  29.720  16.013  14.191 -0.4601 -0.1659  0.0792
 3044DOPE   C1A35713  30.222  16.122  14.325 -0.0720  0.2004  0.1077
 3044DOPE   D2A35714  30.463  16.467  14.432 -0.1308 -0.3023 -0.0844
 3044DOPE   C3A35715  30.829  16.420  14.117 -0.1630 -0.0871  0.0582
 3044DOPE   C4A35716  30.878  16.540  13.678 -0.1551  0.0296  0.2453
 3044DOPE   C1B35717  29.919  15.984  13.803  0.0071  0.0914 -0.0841
 3044DOPE   D2B35718  29.866  15.725  13.440  0.3731  0.0045  0.1396
 3044DOPE   C3B35719  29.826  15.723  12.970 -0.1976 -0.3181 -0.0277
 3044DOPE   C4B35720  30.054  15.639  12.541 -0.0723 -0.3521  0.2307
 3045DOPS   CNO35721  26.774  13.396  14.460 -0.1593  0.0148  0.3517
 3045DOPS   PO435722  26.514  13.319  14.187  0.0613 -0.0353 -0.0883
 3045DOPS   GL135723  26.663  13.422  13.885 -0.4692  0.0164  0.2742
 3045DOPS   GL235724  26.916  13.301  13.851 -0.1511  0.0184  0.0465
 3045DOPS   C1A35725  26.731  13.282  13.399 -0.3163 -0.0916  0.0218
 3045DOPS   D2A35726  26.855  13.188  12.931 -0.1521  0.1197 -0.0737
 3045DOPS   C3A35727  26.689  13.416  12.574 -0.1611 -0.1121  0.1528
 3045DOPS   C4A35728  26.611  13.543  12.196 -0.0830 -0.0326 -0.4111
 3045DOPS   C1B35729  27.217  13.216  13.502  0.1035 -0.1808  0.0879
 3045DOPS   D2B35730  27.429  13.202  13.088 -0.0467 -0.0483  0.3345
 3045DOPS   C3B35731  27.850  13.286  13.220  0.1886 -0.0072 -0.3371
 3045DOPS   C4B35732  28.322  13.350  13.249  0.1000  0.3064  0.0684
 3046DOPS   CNO35733  29.670  21.880  13.485 -0.0553  0.3670 -0.0333
 3046DOPS   PO435734  29.403  22.116  13.650 -0.1558  0.1221 -0.1137
 3046DOPS   GL135735  29.325  21.987  13.247 -0.1884 -0.0295  0.0287
 3046DOPS   GL235736  29.002  22.023  13.094 -0.1382  0.1436  0.1535
 3046DOPS   C1A35737  29.504  21.710  12.932 -0.0880  0.0557 -0.0994
 3046DOPS   D2A35738  29.489  21.362  12.605 -0.1643 -0.1132 -0.1441
 3046DOPS   C3A35739  29.435  21.418  12.148 -0.1741 -0.2187  0.1664
 3046DOPS   C4A35740  28.996  21.269  12.004 -0.0431  0.2628 -0.0399
 3046DOPS   C1B35741  29.117  21.884  12.646 -0.0521 -0.0104 -0.0536
 3046DOPS   D2B35742  29.114  21.723  12.186 -0.1985 -0.4385  0.2132
 3046DOPS   C3B35743  28.955  21.871  11.840 -0.0556 -0.1036 -0.1268
 3046DOPS   C4B35744  28.851  22.290  11.684 -0.1366  0.2853  0.0161
 3047DOPE   NH335745  34.076  13.922  15.384 -0.0330 -0.0586  0.2457
 3047DOPE   PO435746  34.315  13.778  15.303 -0.2073 -0.1103  0.0726
 3047DOPE   GL135747  34.286  14.011  14.987  0.2504 -0.3428 -0.3190
 3047DOPE   GL235748  34.339  13.849  14.786  0.2513 -0.2568 -0.2271
 3047DOPE   C1A35749  34.191  14.274  14.581  0.0829  0.1079 -0.0672
 3047DOPE   D2A35750  33.973  14.354  14.166  0.0863 -0.1234  0.0083
 3047DOPE   C3A35751  33.789  14.088  13.874  0.1603  0.0066 -0.2746
 3047DOPE   C4A35752  33.509  14.020  13.509 -0.2228 -0.0628  0.2634
 3047DOPE   C1B35753  34.689  13.816  14.498 -0.1782  0.0738  0.1274
 3047DOPE   D2B35754  34.902  13.900  14.050 -0.3159  0.1601  0.4298
 3047DOPE   C3B35755  34.975  13.510  13.799 -0.1247  0.0248  0.2308
 3047DOPE   C4B35756  34.890  13.148  13.519 -0.1572 -0.2727  0.4346
 3048DOPC   NC335757  30.564  14.352  14.823  0.3404  0.3351  0.0222
 3048DOPC   PO435758  30.628  14.773  14.902  0.0095 -0.0800  0.3190
 3048DOPC   GL135759  30.628  14.835  14.484 -0.0120  0.0473  0.0487
 3048DOPC   GL235760  30.407  15.061  14.491  0.0705  0.1194 -0.0533
 3048DOPC   C1A35761  30.721  14.626  14.093  0.2536 -0.0569 -0.1102
 3048DOPC   D2A35762  30.495  14.319  13.850 -0.1276 -0.1654 -0.0732
 3048DOPC   C3A35763  30.402  14.376  13.425 -0.2239  0.3229  0.2974
 3048DOPC   C4A35764  30.400  14.190  12.997 -0.0982  0.1962  0.3589
 3048DOPC   C1B35765  30.354  14.991  14.041 -0.0883  0.2236 -0.1150
 3048DOPC   D2B35766  30.531  14.857  13.672 -0.2207  0.3890  0.0711
 3048DOPC   C3B35767  30.278  14.934  13.264  0.0681  0.0274 -0.1312
 3048DOPC   C4B35768  30.182  15.035  12.790  0.1550 -0.1251 -0.3733
 3049DOPS   CNO35769   3.108  20.462  15.225  0.2705  0.0471 -0.1226
 3049DOPS   PO435770   2.976  20.226  14.928 -0.1782  0.0498 -0.2050
 3049DOPS   GL135771   2.974  20.030  14.659 -0.0500 -0.1093  0.0136
 3049DOPS   GL235772   3.156  20.221  14.482 -0.0406 -0.0237  0.3041
 3049DOPS   C1A35773   2.708  20.056  14.277 -0.0127 -0.2142 -0.0298
 3049DOPS   D2A35774   2.723  20.059  13.805  0.2079 -0.0631  0.0462
 3049DOPS   C3A35775   2.547  19.606  13.655 -0.0691  0.0393  0.2157
 3049DOPS   C4A35776   2.572  19.281  13.377 -0.2783 -0.0850  0.1329
 3049DOPS   C1B35777   3.122  20.364  14.043  0.2305 -0.1514 -0.1623
 3049DOPS   D2B35778   3.243  20.237  13.652 -0.0618 -0.1486 -0.0438
 3049DOPS   C3B35779   3.664  20.117  13.467 -0.0245 -0.1759  0.0179
 3049DOPS   C4B35780   4.056  20.184  13.563 -0.0605 -0.0264 -0.1656
 3050DOPE   NH335781  28.107  23.504  13.557 -0.3357 -0.2671 -0.0165
 3050DOPE   PO435782  28.373  23.335  13.414  0.0850 -0.1827 -0.0746
 3050DOPE   GL135783  28.385  23.473  13.039 -0.0829  0.0863  0.0283
 3050DOPE   GL235784  28.529  23.615  12.860  0.1647  0.4064 -0.1496
 3050DOPE   C1A35785  28.123  23.372  12.667 -0.1105 -0.2460  0.0920
 3050DOPE   D2A35786  27.950  23.176  12.328  0.0043  0.0158  0.1463
 3050DOPE   C3A35787  27.674  22.841  12.074  0.0391  0.0122 -0.0012
 3050DOPE   C4A35788  27.594  22.928  11.594  0.0226 -0.0537 -0.1278
 3050DOPE   C1B35789  28.558  23.570  12.379 -0.1638 -0.2016 -0.2306
 3050DOPE   D2B35790  28.677  23.604  11.964 -0.0786 -0.1827  0.3444
 3050DOPE   C3B35791  29.049  23.705  11.713 -0.0231  0.1591 -0.4618
 3050DOPE   C4B35792  29.269  23.973  11.459  0.0348 -0.1023  0.3093
 3051DOPE   NH335793   1.384  20.550  14.593  0.0621 -0.3790 -0.1508
 3051DOPE   PO435794   1.531  20.259  14.527 -0.1010 -0.1184  0.3716
 3051DOPE   GL135795   1.663  20.270  14.195  0.3703  0.0192 -0.2917
 3051DOPE   GL235796   1.390  20.336  13.985 -0.3065  0.3811  0.2908
 3051DOPE   C1A35797   1.718  19.948  13.833 -0.3335  0.3157  0.0608
 3051DOPE   D2A35798   1.434  19.774  13.533 -0.2933  0.3695  0.2183
 3051DOPE   C3A35799   1.513  19.382  13.446 -0.2885 -0.0617  0.1211
 3051DOPE   C4A35800   1.645  18.896  13.413  0.0516 -0.1459  0.3654
 3051DOPE   C1B35801   1.166  20.234  13.615 -0.1135 -0.0400  0.3547
 3051DOPE   D2B35802   0.998  19.901  13.302  0.0941  0.0862  0.1825
 3051DOPE   C3B35803   1.355  19.600  13.046  0.1511  0.0946 -0.0033
 3051DOPE   C4B35804   1.556  19.603  12.606  0.0779 -0.1854 -0.0512
 3052DOPE   NH335805  30.716  17.284  15.084  0.0301  0.1302  0.0727
 3052DOPE   PO435806  30.707  17.080  14.852 -0.1497 -0.0275 -0.0323
 3052DOPE   GL135807  30.551  16.890  14.537  0.4530  0.0809  0.0954
 3052DOPE   GL235808  30.832  16.722  14.583  0.2157  0.0405 -0.0805
 3052DOPE   C1A35809  30.509  16.832  14.075  0.0034 -0.2028  0.0245
 3052DOPE   D2A35810  30.452  17.107  13.697 -0.1593  0.0764  0.0874
 3052DOPE   C3A35811  30.706  17.504  13.562  0.1395 -0.0065 -0.4045
 3052DOPE   C4A35812  31.138  17.516  13.571 -0.1722  0.1226  0.0691
 3052DOPE   C1B35813  31.069  16.858  14.187  0.2300  0.4941  0.0931
 3052DOPE   D2B35814  31.307  17.232  13.969 -0.4000 -0.0973 -0.2364
 3052DOPE   C3B35815  31.448  17.088  13.545 -0.0434  0.0085  0.2797
 3052DOPE   C4B35816  31.823  17.263  13.335 -0.2646  0.1709  0.0945
 3053DOPC   NC335817  33.931  22.048  13.676 -0.0551  0.2037 -0.1501
 3053DOPC   PO435818  33.919  22.419  13.674 -0.0942  0.2071 -0.0204
 3053DOPC   GL135819  33.629  22.461  13.390 -0.1526 -0.1576 -0.1837
 3053DOPC   GL235820  33.862  22.440  13.139  0.0728 -0.1166 -0.4007
 3053DOPC   C1A35821  33.499  22.816  13.059 -0.0039  0.0301 -0.0839
 3053DOPC   D2A35822  33.158  23.005  12.756  0.1661  0.0331 -0.2774
 3053DOPC   C3A35823  32.849  22.818  12.414 -0.3422 -0.0281  0.0081
 3053DOPC   C4A35824  32.420  22.663  12.317  0.2809 -0.1428  0.1181
 3053DOPC   C1B35825  34.261  22.464  12.796 -0.3579  0.0519 -0.1624
 3053DOPC   D2B35826  34.485  22.399  12.408  0.1487 -0.0246  0.1314
 3053DOPC   C3B35827  34.175  22.534  12.112  0.3092  0.2346 -0.1896
 3053DOPC   C4B35828  33.977  22.971  12.202 -0.1115 -0.0568  0.1278
 3054POSM   NC335829  25.470  20.709  13.462 -0.0113  0.0694  0.0287
 3054POSM   PO435830  25.266  20.830  13.134  0.4020  0.3761 -0.2035
 3054POSM   AM135831  25.311  20.780  12.824  0.2078  0.1625  0.2816
 3054POSM   AM235832  25.521  20.704  12.628 -0.1727  0.1388  0.0618
 3054POSM   T1A35833  25.108  20.761  12.350  0.2124  0.0901 -0.0090
 3054POSM   C2A35834  25.025  20.749  11.819  0.3165  0.4091 -0.1972
 3054POSM   C3A35835  25.188  20.944  11.391 -0.0367 -0.1441  0.0322
 3054POSM   C1B35836  25.602  20.503  12.367  0.0351 -0.3882 -0.2024
 3054POSM   D2B35837  25.938  20.256  12.214  0.1883  0.0762  0.2213
 3054POSM   C3B35838  25.975  19.937  11.883  0.0046  0.0562 -0.0152
 3054POSM   C4B35839  26.296  19.725  11.599  0.1121  0.2312 -0.1573
 3055POSM   NC335840  22.283  23.395  12.938 -0.0614 -0.0571 -0.4468
 3055POSM   PO435841  22.261  23.048  12.887  0.2598  0.0186  0.0972
 3055POSM   AM135842  22.302  22.868  12.559  0.4491  0.1572 -0.1212
 3055POSM   AM235843  22.495  22.661  12.521 -0.0492  0.2113  0.1047
 3055POSM   T1A35844  22.303  22.810  12.057 -0.1379  0.1708  0.2602
 3055POSM   C2A35845  22.184  22.517  11.697  0.2221 -0.1487 -0.0317
 3055POSM   C3A35846  22.345  22.554  11.264 -0.0612  0.1162  0.1657
 3055POSM   C1B35847  22.743  22.853  12.410  0.1793 -0.1570  0.2608
 3055POSM   D2B35848  22.906  22.965  11.996 -0.2304  0.0887 -0.0121
 3055POSM   C3B35849  23.376  23.092  11.952  0.0682  0.2515  0.1101
 3055POSM   C4B35850  23.811  23.148  11.765 -0.1395 -0.1309 -0.0388
 3056DOPC   NC335851  29.868  17.792  14.636 -0.5162  0.2852 -0.1868
 3056DOPC   PO435852  30.273  17.803  14.608 -0.1713  0.1890  0.0833
 3056DOPC   GL135853  30.317  17.855  14.232  0.1287  0.2021 -0.4303
 3056DOPC   GL235854  30.382  18.084  14.063  0.0539  0.3005 -0.1716
 3056DOPC   C1A35855  30.706  17.728  14.006 -0.1818  0.0831  0.2273
 3056DOPC   D2A35856  30.824  17.322  14.068 -0.0874  0.0661 -0.4451
 3056DOPC   C3A35857  30.955  17.017  13.708 -0.2340 -0.2867 -0.2471
 3056DOPC   C4A35858  30.870  17.096  13.238  0.3275  0.0015  0.1487
 3056DOPC   C1B35859  30.385  18.181  13.653  0.1108 -0.0015 -0.0063
 3056DOPC   D2B35860  30.552  18.322  13.306 -0.4089 -0.3123  0.0172
 3056DOPC   C3B35861  30.668  18.019  12.945 -0.0782 -0.1293 -0.1247
 3056DOPC   C4B35862  30.855  17.631  12.808 -0.2162 -0.4102  0.1537
 3057DOPC   NC335863  34.787  18.076  15.378 -0.1136 -0.1971  0.0409
 3057DOPC   PO435864  34.422  18.106  15.409 -0.0857 -0.0205 -0.2530
 3057DOPC   GL135865  34.528  17.928  14.989 -0.0300  0.0347 -0.0801
 3057DOPC   GL235866  34.602  17.640  14.847 -0.0879  0.3809  0.0710
 3057DOPC   C1A35867  34.563  18.127  14.570  0.0727 -0.0549  0.0702
 3057DOPC   D2A35868  34.587  18.326  14.115 -0.1529  0.2811 -0.0239
 3057DOPC   C3A35869  34.417  17.896  13.972  0.1332  0.0186  0.0116
 3057DOPC   C4A35870  34.309  17.542  13.706  0.1645  0.3601  0.0966
 3057DOPC   C1B35871  35.025  17.411  14.764  0.0284 -0.1412  0.0351
 3057DOPC   D2B35872  35.375  17.184  14.735 -0.0803 -0.1858  0.0640
 3057DOPC   C3B35873  35.743  17.138  14.456  0.2150 -0.0229  0.0484
 3057DOPC   C4B35874  36.101  17.300  14.330  0.2589  0.0411  0.1099
 3058DOPS   CNO35875  25.133  22.762  13.617 -0.2738 -0.1961  0.1161
 3058DOPS   PO435876  25.148  22.909  13.277  0.1966  0.1973 -0.0942
 3058DOPS   GL135877  25.070  23.250  12.975 -0.2620 -0.2880 -0.1482
 3058DOPS   GL235878  24.776  23.238  12.913  0.0551  0.0243 -0.2817
 3058DOPS   C1A35879  25.183  23.162  12.519 -0.2314  0.2023  0.0077
 3058DOPS   D2A35880  25.375  23.377  12.146 -0.2726  0.0214  0.0603
 3058DOPS   C3A35881  25.521  23.189  11.727  0.2617  0.2114  0.0101
 3058DOPS   C4A35882  25.859  22.961  11.718  0.0083  0.1644  0.5113
 3058DOPS   C1B35883  24.574  23.218  12.541 -0.0062  0.1044 -0.4134
 3058DOPS   D2B35884  24.252  23.281  12.191  0.0700 -0.0260  0.1034
 3058DOPS   C3B35885  24.180  22.885  12.010  0.1722 -0.1192 -0.0725
 3058DOPS   C4B35886  24.209  22.571  11.666  0.1063 -0.0494 -0.2195
 3059DOPE   NH335887  30.546  11.594  14.684 -0.2133 -0.0493  0.2472
 3059DOPE   PO435888  30.698  11.390  14.515  0.1614 -0.0001  0.1373
 3059DOPE   GL135889  30.727  11.413  14.219 -0.0507  0.1867  0.3375
 3059DOPE   GL235890  30.525  11.654  14.109 -0.1167 -0.3556 -0.0945
 3059DOPE   C1A35891  30.812  11.428  13.765 -0.1322 -0.0423 -0.3775
 3059DOPE   D2A35892  30.523  11.640  13.495 -0.0008  0.2003  0.3415
 3059DOPE   C3A35893  30.274  11.926  13.182 -0.3024  0.1858 -0.0770
 3059DOPE   C4A35894  29.900  12.002  12.869 -0.0834 -0.1102 -0.0654
 3059DOPE   C1B35895  30.809  11.904  13.787 -0.0816  0.0607 -0.2354
 3059DOPE   D2B35896  30.983  12.070  13.397 -0.0357  0.0330 -0.1030
 3059DOPE   C3B35897  30.857  12.080  12.999 -0.1406 -0.2308 -0.1036
 3059DOPE   C4B35898  30.736  11.912  12.572  0.1372 -0.0301 -0.1639
 3060DOPS   CNO35899  33.921  16.174  15.397  0.1156  0.0578  0.2106
 3060DOPS   PO435900  34.164  16.411  15.530 -0.4848  0.1052  0.4430
 3060DOPS   GL135901  34.013  16.506  15.116 -0.1750 -0.2664  0.1704
 3060DOPS   GL235902  33.844  16.328  14.889 -0.1494 -0.0979  0.0534
 3060DOPS   C1A35903  34.025  16.818  14.750  0.1766 -0.1154  0.2844
 3060DOPS   D2A35904  34.351  16.854  14.401 -0.2501  0.1259  0.1309
 3060DOPS   C3A35905  34.582  16.547  14.166 -0.1497  0.1389  0.1659
 3060DOPS   C4A35906  34.765  16.581  13.711 -0.0576 -0.3377  0.0898
 3060DOPS   C1B35907  34.122  16.021  14.740 -0.2653  0.1876 -0.0923
 3060DOPS   D2B35908  34.285  15.650  14.513  0.1431 -0.1217 -0.0454
 3060DOPS   C3B35909  34.469  15.706  14.057  0.0636  0.2197 -0.1255
 3060DOPS   C4B35910  34.534  15.755  13.617  0.1392 -0.0912  0.0344
 3061DOPE   NH335911   2.404  13.065  11.917  0.0537  0.2668 -0.1145
 3061DOPE   PO435912   2.234  12.845  12.033  0.1611 -0.3821 -0.0116
 3061DOPE   GL135913   2.186  13.006  12.379  0.1872 -0.1618 -0.0959
 3061DOPE   GL235914   2.464  12.947  12.482 -0.1238  0.1584 -0.0626
 3061DOPE   C1A35915   2.149  13.420  12.557  0.2051 -0.0610  0.0623
 3061DOPE   D2A35916   2.225  13.636  12.975  0.1233 -0.0043  0.0816
 3061DOPE   C3A35917   2.671  13.790  13.064  0.1063 -0.1125 -0.1445
 3061DOPE   C4A35918   2.925  13.685  13.470  0.4762  0.0706  0.1112
 3061DOPE   C1B35919   2.483  13.054  12.930 -0.0870  0.2351 -0.3144
 3061DOPE   D2B35920   2.529  13.338  13.266  0.5119  0.1386 -0.3236
 3061DOPE   C3B35921   2.288  13.764  13.454  0.2385  0.2316 -0.1140
 3061DOPE   C4B35922   1.970  14.006  13.743 -0.1802 -0.0357  0.1080
 3062DOPS   CNO35923  24.780  17.471   9.494  0.2620 -0.0428 -0.0274
 3062DOPS   PO435924  24.794  17.198   9.760  0.1907 -0.0837 -0.2084
 3062DOPS   GL135925  24.924  17.267  10.216 -0.0273  0.1467 -0.2667
 3062DOPS   GL235926  24.849  17.540  10.310 -0.1262  0.1620  0.1118
 3062DOPS   C1A35927  24.948  17.276  10.669  0.4136 -0.0720 -0.0849
 3062DOPS   D2A35928  25.029  17.639  10.971  0.1652  0.1200 -0.3012
 3062DOPS   C3A35929  25.052  18.074  11.226 -0.2782  0.2972 -0.1859
 3062DOPS   C4A35930  24.878  18.286  11.595 -0.4825  0.2249  0.1860
 3062DOPS   C1B35931  24.706  17.789  10.647  0.0303 -0.4332 -0.1254
 3062DOPS   D2B35932  24.558  17.911  11.018 -0.0758 -0.0644 -0.1079
 3062DOPS   C3B35933  24.462  18.295  11.250 -0.2003  0.0317 -0.2088
 3062DOPS   C4B35934  24.160  18.528  11.525 -0.0310  0.2759 -0.2472
 3063DOPE   NH335935  34.011  13.558  11.293  0.1004 -0.0193  0.3553
 3063DOPE   PO435936  34.186  13.451  11.580  0.0148  0.0024  0.0254
 3063DOPE   GL135937  33.956  13.637  11.846  0.0963  0.0607  0.0713
 3063DOPE   GL235938  33.804  13.465  12.071 -0.0137 -0.3468  0.2981
 3063DOPE   C1A35939  34.137  13.877  12.243  0.1529 -0.2125  0.0952
 3063DOPE   D2A35940  34.187  13.765  12.728  0.0896 -0.4958  0.0953
 3063DOPE   C3A35941  34.240  13.726  13.198 -0.1598 -0.0692 -0.2437
 3063DOPE   C4A35942  34.111  13.825  13.596 -0.1213 -0.1096 -0.1462
 3063DOPE   C1B35943  33.612  13.666  12.367  0.3099  0.0051  0.1876
 3063DOPE   D2B35944  33.396  13.732  12.793  0.0628 -0.1064 -0.1987
 3063DOPE   C3B35945  33.752  13.659  13.098  0.0345  0.0132 -0.1541
 3063DOPE   C4B35946  33.868  13.372  13.424 -0.2936  0.2349  0.1212
 3064DOPE   NH335947   0.325  14.752  12.067 -0.0242  0.0692  0.2749
 3064DOPE   PO435948   0.095  14.988  11.978 -0.0234 -0.0237 -0.3411
 3064DOPE   GL135949  -0.079  14.845  12.283  0.0098 -0.2577  0.1853
 3064DOPE   GL235950  -0.106  14.550  12.232 -0.0123 -0.0771 -0.0083
 3064DOPE   C1A35951  -0.099  14.924  12.738 -0.2120 -0.2269 -0.1033
 3064DOPE   D2A35952  -0.448  15.048  13.018  0.0934 -0.1593 -0.1979
 3064DOPE   C3A35953  -0.639  14.834  13.316 -0.1466  0.0398 -0.1092
 3064DOPE   C4A35954  -0.767  14.574  13.711 -0.2952  0.2330 -0.1219
 3064DOPE   C1B35955  -0.285  14.254  12.546 -0.0563 -0.4452  0.4456
 3064DOPE   D2B35956  -0.633  14.239  12.865  0.0714  0.0121 -0.0608
 3064DOPE   C3B35957  -0.896  14.661  12.971 -0.1688  0.0590  0.2042
 3064DOPE   C4B35958  -0.924  15.110  13.006 -0.1015  0.4793  0.2519
 3065DOPC   NC335959  32.069  15.763  10.890  0.2118  0.2935  0.0358
 3065DOPC   PO435960  31.958  15.547  11.196  0.3879  0.0258 -0.0275
 3065DOPC   GL135961  31.852  15.527  11.635 -0.1447 -0.0978 -0.1842
 3065DOPC   GL235962  31.623  15.703  11.660 -0.1311  0.0964 -0.3044
 3065DOPC   C1A35963  31.720  15.098  11.820  0.1789  0.1317  0.2927
 3065DOPC   D2A35964  31.567  14.827  12.238 -0.0502  0.3859  0.0410
 3065DOPC   C3A35965  31.374  15.164  12.500  0.2273 -0.0558  0.1709
 3065DOPC   C4A35966  31.449  15.461  12.801  0.2895 -0.0180 -0.2438
 3065DOPC   C1B35967  31.231  15.815  11.926 -0.1629  0.0041 -0.2119
 3065DOPC   D2B35968  31.133  15.678  12.345 -0.1902  0.0291 -0.1396
 3065DOPC   C3B35969  30.914  15.334  12.465 -0.1139 -0.0056 -0.0609
 3065DOPC   C4B35970  30.561  14.964  12.448 -0.1994 -0.1333 -0.1995
 3066DOPC   NC335971  28.833  21.016  10.350 -0.3932  0.2299 -0.0401
 3066DOPC   PO435972  29.160  21.057  10.151 -0.2864 -0.3179  0.0859
 3066DOPC   GL135973  29.321  21.000  10.497 -0.0524  0.3957 -0.0077
 3066DOPC   GL235974  29.273  21.306  10.617  0.2507  0.1634 -0.1707
 3066DOPC   C1A35975  29.601  20.877  10.908 -0.1513  0.0024 -0.1898
 3066DOPC   D2A35976  29.976  20.837  11.197  0.3397 -0.1780 -0.1732
 3066DOPC   C3A35977  30.058  21.213  11.457  0.1021  0.2268 -0.1738
 3066DOPC   C4A35978  29.991  21.647  11.421  0.1327 -0.3789 -0.1774
 3066DOPC   C1B35979  29.161  21.002  10.912 -0.0087 -0.0249 -0.0144
 3066DOPC   D2B35980  29.055  21.068  11.402  0.0781  0.2733 -0.2367
 3066DOPC   C3B35981  28.874  21.430  11.569 -0.1498  0.2536 -0.1744
 3066DOPC   C4B35982  28.510  21.750  11.573  0.1341 -0.0248  0.1412
 3067DOPE   NH335983  23.098  19.039   8.993 -0.0470  0.0132 -0.0055
 3067DOPE   PO435984  23.262  19.023   9.278 -0.2618 -0.0602 -0.0989
 3067DOPE   GL135985  23.031  19.070   9.516  0.3459  0.2464 -0.4491
 3067DOPE   GL235986  22.799  19.268   9.426  0.0662  0.2728 -0.0174
 3067DOPE   C1A35987  22.985  19.394   9.911  0.0705 -0.1904  0.0249
 3067DOPE   D2A35988  23.136  19.684  10.263 -0.0845  0.1656 -0.2376
 3067DOPE   C3A35989  23.116  19.599  10.760 -0.0839  0.3038 -0.0377
 3067DOPE   C4A35990  22.889  19.632  11.158  0.2044  0.0638  0.0311
 3067DOPE   C1B35991  22.615  19.015   9.755  0.0584 -0.2101 -0.2165
 3067DOPE   D2B35992  22.589  19.067  10.183  0.2890 -0.0759  0.0204
 3067DOPE   C3B35993  22.979  19.113  10.460 -0.1226 -0.0445 -0.0108
 3067DOPE   C4B35994  23.398  19.299  10.365 -0.0036 -0.0106  0.0199
 3068DOPE   NH335995  32.616  19.629  10.552  0.0353  0.1602 -0.1838
 3068DOPE   PO435996  32.407  19.673  10.758 -0.1513 -0.1035 -0.2669
 3068DOPE   GL135997  32.385  19.750  11.241  0.1215  0.0904  0.0321
 3068DOPE   GL235998  32.552  19.503  11.246 -0.0908  0.0176 -0.1798
 3068DOPE   C1A35999  32.273  19.943  11.608  0.0863  0.2247 -0.1134
 3068DOPE   D2A36000  32.476  19.810  11.990 -0.1293  0.2197 -0.0516
 3068DOPE   C3A36001  32.498  20.062  12.389  0.2780 -0.0332 -0.0288
 3068DOPE   C4A36002  32.493  20.450  12.627  0.4037  0.1814 -0.5149
 3068DOPE   C1B36003  32.698  19.464  11.639  0.1856  0.2101 -0.0533
 3068DOPE   D2B36004  33.118  19.388  11.846 -0.0867  0.1902 -0.0703
 3068DOPE   C3B36005  33.383  19.732  11.819 -0.1557  0.1572  0.3704
 3068DOPE   C4B36006  33.357  20.099  11.622  0.0650 -0.1160  0.2667
 3069DOPE   NH336007  28.530  16.152  10.901  0.0637 -0.1540  0.0499
 3069DOPE   PO436008  28.798  16.048  10.719 -0.3713  0.0784  0.1184
 3069DOPE   GL136009  29.039  16.108  11.073 -0.2620  0.3863  0.1057
 3069DOPE   GL236010  29.061  15.889  11.329 -0.2443 -0.0597 -0.2012
 3069DOPE   C1A36011  29.483  16.107  11.290  0.1192  0.0104 -0.0603
 3069DOPE   D2A36012  29.709  15.970  11.685  0.1793 -0.0368  0.1220
 3069DOPE   C3A36013  29.622  16.017  12.145  0.2525 -0.1126  0.0034
 3069DOPE   C4A36014  29.795  16.066  12.544  0.1056  0.0255  0.0115
 3069DOPE   C1B36015  29.221  16.086  11.780 -0.0569  0.1823 -0.2321
 3069DOPE   D2B36016  29.093  16.275  12.168  0.0283  0.1159 -0.1546
 3069DOPE   C3B36017  28.655  16.155  12.275 -0.1326 -0.0347 -0.0608
 3069DOPE   C4B36018  28.360  16.118  12.591 -0.3917 -0.2936 -0.3180
 3070POSM   NC336019  27.081  20.287   9.915  0.1424 -0.0723  0.0910
 3070POSM   PO436020  27.352  20.085  10.070  0.0594 -0.0902  0.1827
 3070POSM   AM136021  27.179  20.210  10.366  0.2317  0.0472 -0.1336
 3070POSM   AM236022  26.906  20.242  10.475  0.1233  0.4055  0.2002
 3070POSM   T1A36023  27.273  20.419  10.800  0.1090  0.1261 -0.0674
 3070POSM   C2A36024  27.455  20.510  11.200  0.1516 -0.2299 -0.3170
 3070POSM   C3A36025  27.847  20.463  11.492  0.0980 -0.0953 -0.2042
 3070POSM   C1B36026  26.735  19.948  10.504  0.2264  0.1062 -0.1689
 3070POSM   D2B36027  26.744  19.494  10.627 -0.1467 -0.2716 -0.1926
 3070POSM   C3B36028  26.704  19.186  10.964  0.0211  0.0695  0.1350
 3070POSM   C4B36029  26.383  19.055  11.242 -0.1489 -0.1538  0.1034
 3071DOPE   NH336030  30.404  20.006  10.331 -0.0213 -0.0136 -0.0322
 3071DOPE   PO436031  30.218  19.812  10.503  0.2931 -0.1337 -0.3993
 3071DOPE   GL136032  30.061  19.555  10.821  0.1022 -0.0936  0.0666
 3071DOPE   GL236033  29.862  19.746  10.802  0.0131 -0.1805  0.0241
 3071DOPE   C1A36034  30.235  19.367  11.228  0.2091  0.1752  0.1909
 3071DOPE   D2A36035  30.239  19.298  11.677  0.0965 -0.0195 -0.0185
 3071DOPE   C3A36036  30.171  18.859  11.693 -0.0850 -0.2600 -0.0784
 3071DOPE   C4A36037  30.283  18.507  11.965  0.0522 -0.0033  0.2806
 3071DOPE   C1B36038  29.995  19.855  11.223  0.1165  0.3355  0.2351
 3071DOPE   D2B36039  29.853  20.223  11.545 -0.0343 -0.1638 -0.1757
 3071DOPE   C3B36040  29.652  20.062  11.971 -0.0642  0.2073 -0.1290
 3071DOPE   C4B36041  29.267  20.186  12.135 -0.2359  0.1309 -0.1190
 3072POSM   NC336042  31.553  16.387  10.959  0.2339  0.0144 -0.2584
 3072POSM   PO436043  31.810  16.581  11.192  0.0661 -0.1411  0.2901
 3072POSM   AM136044  31.802  16.545  11.521  0.2718 -0.3537 -0.1500
 3072POSM   AM236045  31.774  16.338  11.745  0.0306 -0.3539  0.0427
 3072POSM   T1A36046  31.805  16.800  11.935  0.1366  0.1460 -0.0131
 3072POSM   C2A36047  31.463  17.082  12.039  0.3272 -0.1293  0.1424
 3072POSM   C3A36048  31.121  17.433  12.154 -0.0469 -0.5340  0.2620
 3072POSM   C1B36049  31.675  16.142  12.018 -0.0181  0.1890  0.0457
 3072POSM   D2B36050  31.433  15.996  12.447 -0.0559 -0.1338 -0.0045
 3072POSM   C3B36051  31.117  16.225  12.617 -0.0864 -0.0384 -0.0195
 3072POSM   C4B36052  31.063  16.683  12.774  0.2869  0.2089 -0.2519
 3073POSM   NC336053  24.087  10.800   9.609 -0.1229  0.1988  0.0351
 3073POSM   PO436054  23.927  10.634   9.928 -0.0623 -0.1987  0.0200
 3073POSM   AM136055  23.988  10.823  10.172 -0.2914 -0.0276 -0.3551
 3073POSM   AM236056  24.072  10.679  10.442  0.0436 -0.0771  0.0185
 3073POSM   T1A36057  24.030  11.244  10.422  0.1067 -0.0201  0.0280
 3073POSM   C2A36058  24.059  11.675  10.580  0.0074  0.1863 -0.1069
 3073POSM   C3A36059  24.122  11.904  11.028  0.1652  0.1277  0.2018
 3073POSM   C1B36060  24.277  10.562  10.681  0.0201  0.1885  0.3059
 3073POSM   D2B36061  24.533  10.620  11.088 -0.0919 -0.1260  0.2565
 3073POSM   C3B36062  24.524  10.615  11.581 -0.0335 -0.2644 -0.0076
 3073POSM   C4B36063  24.529  10.628  12.018 -0.1861 -0.0424  0.2051
 3074DOPC   NC336064  33.212  20.151  10.434 -0.1184  0.1102  0.2152
 3074DOPC   PO436065  33.052  19.834  10.668 -0.2125  0.1527 -0.0287
 3074DOPC   GL136066  33.054  20.075  10.923 -0.0799  0.3001  0.1875
 3074DOPC   GL236067  32.868  19.943  11.138  0.4386 -0.0735 -0.0546
 3074DOPC   C1A36068  33.396  20.329  11.076  0.0313 -0.2513  0.1422
 3074DOPC   D2A36069  33.534  20.795  11.133  0.0241 -0.0570 -0.0509
 3074DOPC   C3A36070  33.483  21.183  11.380 -0.1481 -0.0869 -0.1205
 3074DOPC   C4A36071  33.549  21.604  11.643  0.2114 -0.1538  0.0348
 3074DOPC   C1B36072  32.826  19.900  11.582 -0.1992  0.1293  0.0760
 3074DOPC   D2B36073  32.978  19.905  12.019  0.2557 -0.1299  0.3525
 3074DOPC   C3B36074  33.309  20.118  12.222 -0.0422 -0.0672 -0.0927
 3074DOPC   C4B36075  33.388  20.623  12.166 -0.2133 -0.2738  0.1973
 3075DOPC   NC336076  32.799  18.047  11.449 -0.1062  0.0999  0.0288
 3075DOPC   PO436077  32.541  17.948  11.192 -0.5147 -0.0114 -0.0821
 3075DOPC   GL136078  32.413  18.255  11.409  0.2957  0.0349  0.1613
 3075DOPC   GL236079  32.291  18.077  11.595  0.1736  0.1700  0.2833
 3075DOPC   C1A36080  32.474  18.519  11.794 -0.0735  0.3417 -0.0437
 3075DOPC   D2A36081  32.508  18.836  12.141 -0.1585  0.4960 -0.0230
 3075DOPC   C3A36082  32.921  18.941  12.288 -0.0429  0.2996  0.0446
 3075DOPC   C4A36083  33.336  18.806  12.508  0.1232 -0.2542  0.0584
 3075DOPC   C1B36084  31.937  18.324  11.620 -0.0587  0.2404 -0.1327
 3075DOPC   D2B36085  31.561  18.165  11.893 -0.0680 -0.1722 -0.1058
 3075DOPC   C3B36086  31.369  17.883  12.184  0.1884 -0.3568  0.1921
 3075DOPC   C4B36087  30.929  17.797  12.377  0.0529  0.0685  0.0354
 3076DOPC   NC336088  27.162  16.876  10.252  0.0682  0.0282  0.1036
 3076DOPC   PO436089  26.799  16.800  10.360 -0.0336  0.1265 -0.3380
 3076DOPC   GL136090  26.781  16.882  10.821 -0.1387 -0.3983  0.0020
 3076DOPC   GL236091  26.604  17.119  10.657  0.1994  0.1938  0.2333
 3076DOPC   C1A36092  26.467  16.709  11.104 -0.2838  0.1335  0.0701
 3076DOPC   D2A36093  26.453  16.689  11.555 -0.1914  0.0424 -0.1354
 3076DOPC   C3A36094  26.348  16.812  11.938  0.0195  0.1000  0.0246
 3076DOPC   C4A36095  26.124  16.863  12.287  0.2068  0.3988 -0.1123
 3076DOPC   C1B36096  26.448  17.250  11.090  0.1059 -0.0620  0.0706
 3076DOPC   D2B36097  26.111  17.225  11.355  0.0762  0.1625 -0.0861
 3076DOPC   C3B36098  26.154  17.578  11.638 -0.0389  0.0232  0.1875
 3076DOPC   C4B36099  26.332  17.695  12.066  0.0631 -0.1649 -0.1241
 3077DOPE   NH336100  29.628  12.691  10.761 -0.1577 -0.1680  0.0713
 3077DOPE   PO436101  29.321  12.748  10.834  0.1774  0.2214 -0.0300
 3077DOPE   GL136102  29.449  12.642  11.195 -0.1518  0.0185  0.1506
 3077DOPE   GL236103  29.512  12.920  11.293  0.0111  0.2519  0.0199
 3077DOPE   C1A36104  29.567  12.572  11.648 -0.2330 -0.1681  0.0477
 3077DOPE   D2A36105  29.785  12.333  11.947 -0.1836  0.0787 -0.0279
 3077DOPE   C3A36106  30.078  11.951  11.921  0.1360  0.0205 -0.4018
 3077DOPE   C4A36107  30.490  11.796  12.134 -0.2423 -0.1660  0.2608
 3077DOPE   C1B36108  29.669  13.064  11.663  0.0000  0.2273 -0.0139
 3077DOPE   D2B36109  29.440  12.941  12.032 -0.2881  0.1433 -0.0681
 3077DOPE   C3B36110  29.524  13.170  12.455 -0.0270 -0.1503  0.2769
 3077DOPE   C4B36111  29.470  13.378  12.829  0.2329  0.2806 -0.0426
 3078POSM   NC336112  30.438  13.674  10.841  0.0435  0.0894  0.2299
 3078POSM   PO436113  30.086  13.501  10.811  0.1473 -0.2044  0.1429
 3078POSM   AM136114  30.042  13.528  11.138 -0.1102 -0.2785  0.2706
 3078POSM   AM236115  29.894  13.696  11.252 -0.4166  0.1774 -0.1651
 3078POSM   T1A36116  30.087  13.291  11.568 -0.1784  0.2795  0.0418
 3078POSM   C2A36117  29.987  13.251  12.047  0.1644 -0.0334 -0.3452
 3078POSM   C3A36118  29.987  13.581  12.328 -0.4450 -0.1151  0.0511
 3078POSM   C1B36119  29.727  13.717  11.544 -0.1562 -0.0656  0.0602
 3078POSM   D2B36120  29.596  13.490  11.851  0.0422  0.0646 -0.2340
 3078POSM   C3B36121  29.383  13.630  12.256 -0.0188 -0.1587  0.2104
 3078POSM   C4B36122  29.076  13.461  12.568  0.2729 -0.0488  0.1721
 3079DOPE   NH336123  25.168  21.317   9.615 -0.0006  0.1517  0.3228
 3079DOPE   PO436124  24.994  21.025   9.698 -0.1344  0.0620 -0.2052
 3079DOPE   GL136125  25.027  21.218  10.056  0.2374  0.1208 -0.0484
 3079DOPE   GL236126  25.381  21.138  10.149 -0.0798  0.1630  0.0942
 3079DOPE   C1A36127  25.071  21.373  10.503 -0.0519 -0.2005 -0.4194
 3079DOPE   D2A36128  24.902  21.820  10.604  0.1287  0.2674  0.1171
 3079DOPE   C3A36129  24.558  21.927  10.944 -0.0189 -0.2102  0.1101
 3079DOPE   C4A36130  24.075  22.005  10.986  0.4470  0.0289 -0.2396
 3079DOPE   C1B36131  25.862  21.249  10.214 -0.0343  0.1693  0.1772
 3079DOPE   D2B36132  26.269  21.223  10.409 -0.0104 -0.0151 -0.1412
 3079DOPE   C3B36133  26.354  20.892  10.641  0.1689 -0.0286 -0.0615
 3079DOPE   C4B36134  26.400  20.827  11.090 -0.0923  0.0303  0.0563
 3080DOPC   NC336135   0.007  12.891  11.922  0.1231 -0.1306  0.0248
 3080DOPC   PO436136   0.288  13.149  11.861 -0.0847  0.1288 -0.2287
 3080DOPC   GL136137   0.382  13.030  12.219  0.0212  0.3949 -0.1108
 3080DOPC   GL236138   0.464  12.744  12.132  0.0031  0.0463  0.4437
 3080DOPC   C1A36139   0.271  13.236  12.595 -0.0309 -0.1689 -0.0738
 3080DOPC   D2A36140   0.279  13.313  13.048 -0.2177 -0.0687 -0.0871
 3080DOPC   C3A36141   0.591  13.199  13.429  0.0881  0.1934  0.0367
 3080DOPC   C4A36142   0.559  13.173  13.880  0.0465 -0.2736  0.0960
 3080DOPC   C1B36143   0.755  12.562  12.383 -0.1717 -0.0519  0.1523
 3080DOPC   D2B36144   0.979  12.670  12.742  0.1537  0.0300 -0.0693
 3080DOPC   C3B36145   1.016  12.403  13.114 -0.1225  0.1425  0.7680
 3080DOPC   C4B36146   0.909  12.328  13.514  0.2677  0.0894  0.1088
 3081POSM   NC336147  34.183  12.445  11.837 -0.3244  0.0320 -0.3645
 3081POSM   PO436148  33.802  12.378  11.907 -0.2353  0.0053  0.2246
 3081POSM   AM136149  33.537  12.554  12.039  0.0831 -0.5715 -0.4314
 3081POSM   AM236150  33.562  12.850  12.058 -0.4568 -0.2412  0.2935
 3081POSM   T1A36151  33.358  12.663  12.510 -0.1031  0.1544  0.1285
 3081POSM   C2A36152  33.210  12.550  12.929 -0.0573 -0.1891 -0.1923
 3081POSM   C3A36153  33.303  12.614  13.392  0.0855  0.2546 -0.1410
 3081POSM   C1B36154  33.546  13.151  12.249  0.1913  0.1098 -0.3877
 3081POSM   D2B36155  33.752  13.272  12.635 -0.1910  0.1828 -0.0626
 3081POSM   C3B36156  33.636  13.135  13.025  0.1270 -0.1211  0.1329
 3081POSM   C4B36157  33.346  13.126  13.454  0.1559  0.0222 -0.1938
 3082DOPE   NH336158  33.642  16.533  11.522 -0.0778  0.0336 -0.0514
 3082DOPE   PO436159  33.497  16.804  11.533  0.2609 -0.1659  0.0273
 3082DOPE   GL136160  33.076  16.723  11.707 -0.3051  0.5047 -0.3416
 3082DOPE   GL236161  33.181  16.580  11.931 -0.1091 -0.1917  0.1913
 3082DOPE   C1A36162  32.745  16.955  11.969 -0.0534 -0.3564  0.3751
 3082DOPE   D2A36163  32.855  17.208  12.366  0.1461  0.0494 -0.0346
 3082DOPE   C3A36164  32.539  17.176  12.753  0.0613  0.0255 -0.1903
 3082DOPE   C4A36165  32.272  16.923  12.980  0.1316  0.0794  0.0256
 3082DOPE   C1B36166  33.118  16.723  12.337 -0.2509  0.2129 -0.0347
 3082DOPE   D2B36167  33.060  16.960  12.750 -0.0468  0.2919 -0.1702
 3082DOPE   C3B36168  33.134  16.669  13.179 -0.0919  0.2140  0.1449
 3082DOPE   C4B36169  32.983  16.365  13.472 -0.0026  0.1787 -0.1742
 3083DOPE   NH336170  21.724  18.841   9.317  0.0190  0.2470  0.4456
 3083DOPE   PO436171  21.485  18.763   9.520 -0.1178  0.1260 -0.1614
 3083DOPE   GL136172  21.400  18.821   9.876  0.1366 -0.1590  0.0684
 3083DOPE   GL236173  21.664  18.638  10.002 -0.2928 -0.2421  0.2002
 3083DOPE   C1A36174  21.171  18.841  10.249 -0.1241  0.0086  0.1977
 3083DOPE   D2A36175  20.812  18.728  10.510  0.0188 -0.3423 -0.4696
 3083DOPE   C3A36176  20.983  18.719  10.964  0.1086 -0.4565 -0.1561
 3083DOPE   C4A36177  21.076  19.106  11.252 -0.2528  0.1772 -0.0237
 3083DOPE   C1B36178  21.682  19.087  10.230  0.2144 -0.1881 -0.0437
 3083DOPE   D2B36179  21.649  19.413  10.513  0.1071 -0.1563 -0.1013
 3083DOPE   C3B36180  21.909  19.489  10.866 -0.0180  0.4389  0.0323
 3083DOPE   C4B36181  22.235  19.676  11.123  0.2252  0.1566 -0.2365
 3084DOPC   NC336182  28.723  22.175   9.686  0.2550  0.0162  0.0019
 3084DOPC   PO436183  28.918  21.890   9.922  0.3982 -0.1056 -0.0526
 3084DOPC   GL136184  28.812  21.777  10.307  0.1334  0.0851 -0.2384
 3084DOPC   GL236185  28.784  21.504  10.315  0.2318 -0.1638 -0.2405
 3084DOPC   C1A36186  28.516  21.786  10.665 -0.3545  0.0541  0.1276
 3084DOPC   D2A36187  28.146  21.543  10.898  0.0358 -0.5059  0.4187
 3084DOPC   C3A36188  28.070  21.808  11.266 -0.0421  0.2443 -0.1112
 3084DOPC   C4A36189  27.815  21.982  11.601 -0.3397 -0.0086 -0.2499
 3084DOPC   C1B36190  28.750  21.284  10.782  0.1352 -0.0608 -0.1429
 3084DOPC   D2B36191  28.567  20.932  11.173 -0.1025 -0.0607  0.1295
 3084DOPC   C3B36192  28.551  21.071  11.663  0.2269 -0.0729  0.0143
 3084DOPC   C4B36193  28.459  21.355  12.004 -0.1995 -0.1553  0.2904
 3085DOPE   NH336194  25.451  20.747   9.753  0.1788  0.1796 -0.1891
 3085DOPE   PO436195  25.597  20.539   9.914 -0.2638 -0.0614  0.1518
 3085DOPE   GL136196  25.554  20.660  10.278  0.2280 -0.0031  0.2863
 3085DOPE   GL236197  25.425  20.401  10.350 -0.1390 -0.1600  0.2212
 3085DOPE   C1A36198  25.582  20.987  10.580  0.2105 -0.1040 -0.2883
 3085DOPE   D2A36199  25.585  20.948  11.054 -0.0123 -0.0704  0.1018
 3085DOPE   C3A36200  25.942  20.724  11.156 -0.1438 -0.2271  0.0472
 3085DOPE   C4A36201  26.169  20.384  11.081  0.0776  0.1503  0.0028
 3085DOPE   C1B36202  25.363  19.949  10.447  0.0029  0.2085  0.1601
 3085DOPE   D2B36203  25.302  19.566  10.678  0.0955  0.1119  0.0082
 3085DOPE   C3B36204  25.093  19.629  11.106 -0.0012  0.1343  0.0825
 3085DOPE   C4B36205  24.708  19.731  11.316 -0.1389  0.5570 -0.4514
 3086POSM   NC336206  30.166  14.091  11.108  0.1761  0.3803  0.0642
 3086POSM   PO436207  29.952  14.382  10.996  0.0280 -0.2080  0.0555
 3086POSM   AM136208  30.162  14.500  11.244  0.1839  0.4775  0.0857
 3086POSM   AM236209  30.337  14.388  11.471  0.1263  0.1641 -0.0311
 3086POSM   T1A36210  30.237  14.793  11.714  0.2196 -0.0320  0.3733
 3086POSM   C2A36211  30.179  14.756  12.157 -0.1732  0.0117  0.1993
 3086POSM   C3A36212  29.849  14.773  12.519 -0.1486 -0.1005  0.1684
 3086POSM   C1B36213  30.304  14.264  11.806 -0.0807 -0.0255 -0.2103
 3086POSM   D2B36214  30.085  14.245  12.197 -0.0612 -0.1618 -0.0663
 3086POSM   C3B36215  30.370  14.482  12.485 -0.1247  0.0719  0.1399
 3086POSM   C4B36216  30.456  14.661  12.859 -0.2813 -0.0398  0.0705
 3087DOPC   NC336217  33.956  18.238  10.356  0.0353 -0.1040 -0.0790
 3087DOPC   PO436218  34.061  18.534  10.597 -0.1855  0.0595  0.0124
 3087DOPC   GL136219  33.741  18.649  10.883 -0.0597  0.0733 -0.1777
 3087DOPC   GL236220  33.875  18.846  10.997 -0.0092 -0.1703  0.2827
 3087DOPC   C1A36221  33.540  18.615  11.355  0.2260 -0.3269  0.1386
 3087DOPC   D2A36222  33.702  18.515  11.748  0.0603 -0.0469 -0.0062
 3087DOPC   C3A36223  34.133  18.324  11.772  0.1786 -0.2584  0.3255
 3087DOPC   C4A36224  34.398  18.222  12.105  0.0926 -0.1367 -0.2378
 3087DOPC   C1B36225  33.987  18.835  11.450 -0.2708  0.0226 -0.2912
 3087DOPC   D2B36226  34.017  18.998  11.825 -0.0385  0.1548 -0.0348
 3087DOPC   C3B36227  34.186  18.686  12.129 -0.1365 -0.1140  0.1539
 3087DOPC   C4B36228  34.431  18.477  12.508  0.0871  0.1619 -0.2546
 3088POSM   NC336229  32.722  22.892  10.315  0.0200  0.2420  0.0400
 3088POSM   PO436230  32.634  22.528  10.301 -0.0002  0.1463 -0.0140
 3088POSM   AM136231  32.656  22.537  10.638 -0.1628  0.1252  0.3171
 3088POSM   AM236232  32.497  22.406  10.865  0.0862  0.0201 -0.0729
 3088POSM   T1A36233  32.945  22.502  11.061 -0.2306 -0.2811  0.2787
 3088POSM   C2A36234  32.910  22.551  11.496  0.0344 -0.1552  0.0925
 3088POSM   C3A36235  32.947  22.753  11.910  0.1857 -0.3698 -0.1410
 3088POSM   C1B36236  32.370  22.344  11.213 -0.1665 -0.3011  0.0794
 3088POSM   D2B36237  32.242  22.261  11.670  0.0093 -0.0323 -0.1258
 3088POSM   C3B36238  32.485  22.610  11.857  0.1468  0.3887 -0.0842
 3088POSM   C4B36239  32.476  23.010  11.939 -0.0374 -0.3883 -0.0260
 3089DOPE   NH336240  32.613  11.956  11.445  0.1782 -0.0825  0.3218
 3089DOPE   PO436241  32.293  11.902  11.515 -0.3047  0.1291  0.0613
 3089DOPE   GL136242  32.323  11.799  11.890 -0.1621 -0.1463 -0.0753
 3089DOPE   GL236243  32.454  11.484  11.830 -0.3412  0.3774  0.0739
 3089DOPE   C1A36244  32.489  11.784  12.338 -0.0656  0.0323  0.2691
 3089DOPE   D2A36245  32.533  11.942  12.777  0.3260  0.3698  0.1460
 3089DOPE   C3A36246  32.552  12.372  12.844  0.2725  0.1805  0.0884
 3089DOPE   C4A36247  32.364  12.697  13.035  0.0506 -0.1527  0.0935
 3089DOPE   C1B36248  32.284  11.294  12.206  0.0162 -0.0704 -0.0179
 3089DOPE   D2B36249  31.991  10.947  12.309 -0.0139  0.0442  0.1560
 3089DOPE   C3B36250  32.028  10.554  12.533  0.1091 -0.1525  0.3016
 3089DOPE   C4B36251  31.937  10.099  12.496  0.1656 -0.0203  0.2429
 3090DOPC   NC336252  33.397  16.072  11.248 -0.2511  0.0394  0.1321
 3090DOPC   PO436253  33.247  16.260  11.547 -0.1963  0.0097  0.4063
 3090DOPC   GL136254  32.990  16.117  11.926 -0.1816 -0.2202 -0.1353
 3090DOPC   GL236255  32.940  15.875  12.102  0.3499 -0.0042 -0.4000
 3090DOPC   C1A36256  32.724  16.436  12.111  0.2266  0.0696  0.2481
 3090DOPC   D2A36257  32.541  16.795  12.382 -0.0534 -0.0428 -0.0347
 3090DOPC   C3A36258  32.694  16.653  12.859  0.0651 -0.1220 -0.0027
 3090DOPC   C4A36259  32.556  16.470  13.233  0.2673  0.0626 -0.2855
 3090DOPC   C1B36260  32.734  16.047  12.497  0.4003  0.2292  0.0326
 3090DOPC   D2B36261  32.771  16.195  12.944 -0.0971 -0.2443  0.0488
 3090DOPC   C3B36262  32.349  15.956  13.126 -0.2288 -0.1219 -0.1310
 3090DOPC   C4B36263  32.157  15.730  13.521  0.1870  0.0413 -0.1167
 3091DOPE   NH336264  34.028  12.967  11.694  0.3797  0.0480 -0.1207
 3091DOPE   PO436265  34.339  12.939  11.679  0.3459 -0.0443 -0.2590
 3091DOPE   GL136266  34.382  12.831  12.068  0.0816  0.0587  0.0176
 3091DOPE   GL236267  34.150  12.770  12.226 -0.1977  0.1476  0.0450
 3091DOPE   C1A36268  34.720  12.914  12.393  0.1095 -0.2606  0.0995
 3091DOPE   D2A36269  34.765  12.958  12.881  0.0537  0.1183 -0.2538
 3091DOPE   C3A36270  34.965  12.744  13.210 -0.1164 -0.2204 -0.3642
 3091DOPE   C4A36271  34.925  12.328  13.369 -0.0111  0.0798 -0.3571
 3091DOPE   C1B36272  34.361  12.525  12.509 -0.0127  0.2773 -0.0854
 3091DOPE   D2B36273  34.729  12.468  12.859 -0.3736 -0.2900  0.4048
 3091DOPE   C3B36274  34.586  12.140  13.079  0.1077  0.0819  0.0331
 3091DOPE   C4B36275  34.201  11.864  13.151  0.0674 -0.0640  0.2182
 3092POSM   NC336276  23.196  17.060  10.038  0.1801 -0.4514  0.0081
 3092POSM   PO436277  23.091  17.301   9.738 -0.2520  0.1263 -0.1198
 3092POSM   AM136278  22.928  17.580   9.920 -0.2486 -0.0678  0.2473
 3092POSM   AM236279  22.896  17.884   9.896  0.1069 -0.0458 -0.2194
 3092POSM   T1A36280  22.522  17.734  10.204 -0.2030 -0.1026  0.0259
 3092POSM   C2A36281  22.107  17.694  10.379  0.1305  0.1121  0.3391
 3092POSM   C3A36282  21.965  17.683  10.827  0.1278  0.4043 -0.2071
 3092POSM   C1B36283  22.732  18.143  10.113  0.2467 -0.2286 -0.1365
 3092POSM   D2B36284  22.567  18.532  10.210 -0.0004  0.2003 -0.0273
 3092POSM   C3B36285  22.744  18.517  10.639  0.0707  0.1142  0.0571
 3092POSM   C4B36286  22.720  18.567  11.065 -0.0606  0.0830  0.0805
 3093DOPC   NC336287  29.523  17.064  10.991  0.1291  0.2455 -0.3142
 3093DOPC   PO436288  29.270  16.949  10.715  0.2609  0.1733 -0.2684
 3093DOPC   GL136289  28.972  16.949  11.025 -0.3847  0.0096 -0.1528
 3093DOPC   GL236290  29.112  16.939  11.326  0.0756  0.0297  0.0108
 3093DOPC   C1A36291  28.669  16.598  11.162  0.2431 -0.2293 -0.0575
 3093DOPC   D2A36292  28.331  16.410  11.483 -0.1679 -0.0402  0.2947
 3093DOPC   C3A36293  28.165  16.585  11.896 -0.0237  0.2475  0.0323
 3093DOPC   C4A36294  28.227  16.880  12.291  0.0921 -0.1649  0.3050
 3093DOPC   C1B36295  28.696  16.932  11.543  0.2974  0.0250  0.0513
 3093DOPC   D2B36296  28.525  17.086  11.944 -0.3629 -0.1150 -0.3661
 3093DOPC   C3B36297  28.782  16.867  12.291 -0.1849  0.1663  0.0689
 3093DOPC   C4B36298  29.003  16.630  12.584 -0.2815 -0.1397  0.0361
 3094POSM   NC336299  31.956  12.310  11.577  0.2673 -0.1101  0.0300
 3094POSM   PO436300  32.185  12.618  11.625  0.0183  0.0818  0.2164
 3094POSM   AM136301  31.978  12.649  11.918 -0.0188 -0.0757 -0.2509
 3094POSM   AM236302  31.787  12.793  12.015  0.1730  0.1639 -0.1312
 3094POSM   T1A36303  31.951  12.480  12.372  0.1669  0.2611  0.0849
 3094POSM   C2A36304  32.052  12.196  12.676  0.1216 -0.0035  0.1670
 3094POSM   C3A36305  32.170  12.152  13.142 -0.0965 -0.0785 -0.0022
 3094POSM   C1B36306  31.685  12.955  12.323 -0.0269  0.0245 -0.0055
 3094POSM   D2B36307  31.556  13.158  12.741 -0.0772  0.0597 -0.1443
 3094POSM   C3B36308  31.126  13.395  12.622  0.3401 -0.1314 -0.3582
 3094POSM   C4B36309  30.689  13.542  12.625  0.1213  0.1704  0.1004
 3095POSM   NC336310  22.390  20.112   8.993 -0.3437 -0.2123  0.1443
 3095POSM   PO436311  22.734  19.970   9.151 -0.0685 -0.1190  0.3722
 3095POSM   AM136312  22.599  20.123   9.387  0.2092 -0.1885  0.3570
 3095POSM   AM236313  22.470  20.032   9.659 -0.3255  0.0295  0.1923
 3095POSM   T1A36314  22.633  20.459   9.815 -0.1477  0.2664  0.0329
 3095POSM   C2A36315  22.613  20.570  10.251 -0.0343 -0.2789 -0.1649
 3095POSM   C3A36316  22.541  20.494  10.749 -0.2490  0.1599  0.1047
 3095POSM   C1B36317  22.306  20.124   9.941 -0.2295 -0.2807  0.0267
 3095POSM   D2B36318  22.110  20.260  10.348  0.3699  0.1271 -0.1813
 3095POSM   C3B36319  21.672  20.350  10.357 -0.2290 -0.0781  0.1724
 3095POSM   C4B36320  21.337  20.661  10.350  0.0108 -0.2241  0.4415
 3096DOPC   NC336321  27.501  14.908  10.706  0.1608  0.2586  0.0749
 3096DOPC   PO436322  27.621  14.572  10.785  0.0643  0.0049  0.2084
 3096DOPC   GL136323  27.620  14.341  11.061 -0.0252 -0.1136 -0.2825
 3096DOPC   GL236324  27.705  14.078  10.944  0.2236 -0.2416 -0.3425
 3096DOPC   C1A36325  27.706  14.510  11.464 -0.2358 -0.0400 -0.0226
 3096DOPC   D2A36326  27.841  14.465  11.896  0.1146 -0.1922  0.1773
 3096DOPC   C3A36327  27.658  14.664  12.300  0.0702 -0.0407 -0.1737
 3096DOPC   C4A36328  27.442  14.957  12.596  0.1532 -0.1113  0.3535
 3096DOPC   C1B36329  27.424  13.740  11.027  0.3433  0.2278  0.0855
 3096DOPC   D2B36330  27.240  13.702  11.435  0.0427  0.4102 -0.0656
 3096DOPC   C3B36331  27.549  14.062  11.571  0.3289 -0.1474  0.1946
 3096DOPC   C4B36332  28.011  13.991  11.710 -0.0134 -0.0321 -0.3920
 3097DOPE   NH336333  23.856  16.354  10.070 -0.0224 -0.0055 -0.0321
 3097DOPE   PO436334  24.079  16.223   9.874  0.0948  0.0316 -0.5757
 3097DOPE   GL136335  24.274  16.160  10.308  0.2610 -0.2557  0.3024
 3097DOPE   GL236336  24.194  15.836  10.403 -0.2090 -0.2427 -0.2349
 3097DOPE   C1A36337  24.125  16.155  10.729  0.4537 -0.1370  0.1440
 3097DOPE   D2A36338  24.023  16.095  11.151  0.4493 -0.0076 -0.2208
 3097DOPE   C3A36339  24.169  15.880  11.501  0.0802 -0.0042 -0.0489
 3097DOPE   C4A36340  24.393  15.784  11.846  0.0922  0.1285 -0.0844
 3097DOPE   C1B36341  23.909  15.468  10.597  0.2030 -0.1452  0.3138
 3097DOPE   D2B36342  23.770  15.083  10.809 -0.2525 -0.0771  0.1802
 3097DOPE   C3B36343  24.022  14.958  11.243 -0.2619 -0.2676 -0.2909
 3097DOPE   C4B36344  24.331  14.968  11.589  0.0265 -0.0392 -0.0273
 3098POSM   NC336345  26.607  22.723   9.340  0.1116  0.1556 -0.1824
 3098POSM   PO436346  26.709  22.751   9.703 -0.1044 -0.0669 -0.2041
 3098POSM   AM136347  26.721  22.899   9.991 -0.0828 -0.3593  0.0014
 3098POSM   AM236348  26.912  23.044  10.129 -0.0006 -0.1022 -0.1888
 3098POSM   T1A36349  26.632  22.952  10.498 -0.3806  0.0403  0.1782
 3098POSM   C2A36350  26.655  22.784  10.924 -0.2014 -0.1371  0.5330
 3098POSM   C3A36351  26.499  22.587  11.314  0.0494  0.2265 -0.1750
 3098POSM   C1B36352  27.110  22.919  10.353  0.1390  0.1580  0.0683
 3098POSM   D2B36353  27.103  22.882  10.852  0.2646 -0.0424 -0.0180
 3098POSM   C3B36354  27.059  23.140  11.232 -0.1226  0.3964 -0.0637
 3098POSM   C4B36355  27.236  23.420  11.489 -0.0941  0.0400  0.1845
 3099POSM   NC336356  26.751  13.546   9.916  0.0566 -0.1698  0.0533
 3099POSM   PO436357  26.702  13.201  10.079 -0.0215  0.0389 -0.1628
 3099POSM   AM136358  26.690  13.278  10.428 -0.1542  0.1856 -0.0329
 3099POSM   AM236359  26.809  13.183  10.667  0.0564  0.1853  0.3950
 3099POSM   T1A36360  26.460  13.382  10.875 -0.0383  0.0398 -0.0513
 3099POSM   C2A36361  26.405  13.503  11.287  0.2668  0.0813 -0.1751
 3099POSM   C3A36362  26.547  13.338  11.641 -0.0450  0.1276 -0.0367
 3099POSM   C1B36363  26.997  12.919  10.786 -0.0490 -0.2287  0.2331
 3099POSM   D2B36364  27.357  12.842  11.092  0.1241  0.0756  0.0940
 3099POSM   C3B36365  27.271  13.167  11.427 -0.2897  0.1575 -0.1160
 3099POSM   C4B36366  27.023  13.309  11.749  0.0196  0.1813  0.0302
 3100DOPS   CNO36367  28.093  15.712  10.628 -0.0734 -0.1803  0.1367
 3100DOPS   PO436368  28.080  15.999  10.817 -0.1444  0.3243  0.2468
 3100DOPS   GL136369  28.082  15.938  11.157 -0.0188 -0.1508 -0.0849
 3100DOPS   GL236370  27.857  16.116  11.312 -0.0150  0.0596  0.1391
 3100DOPS   C1A36371  28.195  15.928  11.646  0.0729 -0.1204  0.0154
 3100DOPS   D2A36372  28.181  16.114  12.102  0.0823  0.1796 -0.0870
 3100DOPS   C3A36373  27.909  15.939  12.397  0.0018  0.2091  0.2364
 3100DOPS   C4A36374  27.592  15.822  12.728 -0.0606 -0.1214  0.1075
 3100DOPS   C1B36375  27.763  16.207  11.795 -0.1630  0.1972  0.1297
 3100DOPS   D2B36376  27.674  16.380  12.211  0.2905 -0.4998  0.0662
 3100DOPS   C3B36377  27.653  16.763  12.434  0.0561  0.0116 -0.3573
 3100DOPS   C4B36378  27.352  17.138  12.432  0.0210 -0.2127 -0.5118
 3101DOPC   NC336379  27.603  21.988   9.770  0.0774  0.0495 -0.1926
 3101DOPC   PO436380  27.351  21.702   9.872  0.2926  0.0119  0.0729
 3101DOPC   GL136381  27.045  21.711  10.086 -0.0894  0.1594 -0.4756
 3101DOPC   GL236382  27.154  21.473  10.329  0.1762 -0.0735 -0.1579
 3101DOPC   C1A36383  26.952  21.866  10.509  0.0130  0.0055  0.0058
 3101DOPC   D2A36384  27.075  21.889  10.948  0.2948  0.0282  0.0600
 3101DOPC   C3A36385  27.481  21.831  11.195 -0.0216  0.1054  0.2814
 3101DOPC   C4A36386  27.685  21.508  11.461  0.2146 -0.3037 -0.1453
 3101DOPC   C1B36387  27.016  21.447  10.768  0.0885 -0.1585  0.1277
 3101DOPC   D2B36388  27.025  21.473  11.263 -0.0924 -0.3251 -0.3141
 3101DOPC   C3B36389  27.211  21.492  11.647 -0.0443  0.0886 -0.1366
 3101DOPC   C4B36390  27.527  21.203  11.855 -0.0526  0.0578 -0.0617
 3102POSM   NC336391  22.104  20.970   8.880 -0.3267  0.0773 -0.3652
 3102POSM   PO436392  22.312  20.594   8.844 -0.0253 -0.1718 -0.1646
 3102POSM   AM136393  22.225  20.555   9.175  0.2238  0.0626 -0.2377
 3102POSM   AM236394  22.246  20.411   9.389 -0.1542  0.0366 -0.0138
 3102POSM   T1A36395  21.737  20.589   9.401 -0.2312  0.0724 -0.1683
 3102POSM   C2A36396  21.322  20.357   9.437  0.0426 -0.1799 -0.1086
 3102POSM   C3A36397  20.918  20.251   9.302 -0.3210 -0.2760  0.2154
 3102POSM   C1B36398  22.206  20.542   9.688  0.1687  0.1832  0.1049
 3102POSM   D2B36399  22.069  20.710  10.111 -0.0897 -0.1710 -0.1449
 3102POSM   C3B36400  21.708  20.992  10.226  0.2163  0.0506  0.0765
 3102POSM   C4B36401  21.632  21.356  10.539 -0.2133 -0.1398 -0.1201
 3103DOPE   NH336402  28.776  15.280  10.584 -0.4192  0.1789  0.1628
 3103DOPE   PO436403  28.862  15.047  10.733 -0.2152  0.0289 -0.2228
 3103DOPE   GL136404  28.995  15.145  11.007  0.0463  0.4140 -0.0520
 3103DOPE   GL236405  29.196  15.000  11.124 -0.2001 -0.0603 -0.0120
 3103DOPE   C1A36406  28.758  15.299  11.401 -0.1297 -0.1434 -0.2052
 3103DOPE   D2A36407  28.728  15.615  11.717 -0.2030 -0.1150 -0.2139
 3103DOPE   C3A36408  28.651  16.107  11.741 -0.1135  0.2037 -0.3353
 3103DOPE   C4A36409  28.619  16.499  11.961 -0.0815 -0.0874 -0.0648
 3103DOPE   C1B36410  29.242  15.421  11.338  0.2605  0.3951  0.2873
 3103DOPE   D2B36411  29.379  15.554  11.740 -0.2255  0.0775  0.3245
 3103DOPE   C3B36412  29.203  15.751  12.124  0.0585 -0.2249 -0.2340
 3103DOPE   C4B36413  29.275  15.965  12.548 -0.0619  0.1238 -0.0670
 3104POSM   NC336414  21.244  21.907   8.899 -0.0764  0.1453  0.0722
 3104POSM   PO436415  21.015  22.198   8.913  0.0332 -0.2020 -0.1477
 3104POSM   AM136416  21.007  22.144   9.250 -0.2332 -0.2461  0.0476
 3104POSM   AM236417  20.803  22.018   9.380 -0.1136  0.0114  0.1326
 3104POSM   T1A36418  21.210  21.849   9.631 -0.2095  0.0669  0.0407
 3104POSM   C2A36419  21.365  21.778  10.044 -0.0526 -0.1019  0.3271
 3104POSM   C3A36420  21.818  21.787  10.306 -0.0834  0.1573 -0.0952
 3104POSM   C1B36421  20.754  21.967   9.692  0.0887  0.3794  0.1677
 3104POSM   D2B36422  20.807  21.707  10.060 -0.0692 -0.1201  0.0893
 3104POSM   C3B36423  21.112  21.423  10.345 -0.2737  0.1969  0.2211
 3104POSM   C4B36424  21.189  21.111  10.657 -0.0329  0.0525  0.2325
 3105POSM   NC336425  29.594  19.958   9.825  0.3083 -0.1368 -0.0769
 3105POSM   PO436426  29.555  20.322   9.976 -0.2445  0.0582 -0.2063
 3105POSM   AM136427  29.574  20.407  10.285 -0.0420 -0.0206  0.3008
 3105POSM   AM236428  29.556  20.547  10.533 -0.0103 -0.0771 -0.0296
 3105POSM   T1A36429  29.482  20.078  10.713 -0.1687 -0.0713  0.0385
 3105POSM   C2A36430  29.468  19.960  11.109 -0.4446 -0.0866 -0.1070
 3105POSM   C3A36431  29.333  20.131  11.548  0.2068  0.0667 -0.2122
 3105POSM   C1B36432  29.218  20.516  10.585 -0.3336  0.0764 -0.2848
 3105POSM   D2B36433  28.760  20.596  10.626  0.1467 -0.1842 -0.3888
 3105POSM   C3B36434  28.611  20.425  10.995 -0.2441  0.2907  0.1661
 3105POSM   C4B36435  28.274  20.197  11.329  0.1417  0.1351  0.0791
 3106POSM   NC336436  26.816  19.190   9.828 -0.3088 -0.5043 -0.2030
 3106POSM   PO436437  27.085  18.897   9.904 -0.1026  0.2904 -0.3330
 3106POSM   AM136438  26.977  18.909  10.218 -0.2808  0.1214 -0.1887
 3106POSM   AM236439  26.979  19.141  10.380 -0.0434  0.1654  0.0520
 3106POSM   T1A36440  26.569  18.862  10.549  0.2901  0.0321 -0.0908
 3106POSM   C2A36441  26.146  18.796  10.531 -0.4121 -0.1995  0.2745
 3106POSM   C3A36442  25.878  18.451  10.656  0.0118  0.0786 -0.1579
 3106POSM   C1B36443  27.078  18.987  10.697  0.1080 -0.2806  0.0780
 3106POSM   D2B36444  27.417  18.881  10.943 -0.0599  0.0885 -0.1006
 3106POSM   C3B36445  27.551  19.064  11.389 -0.0660 -0.0302  0.2809
 3106POSM   C4B36446  27.390  19.167  11.798  0.1921 -0.3089 -0.1761
 3107DOPS   CNO36447  32.962  17.640  11.050 -0.0039  0.1042  0.2103
 3107DOPS   PO436448  33.173  17.707  11.331 -0.1445  0.1143 -0.4484
 3107DOPS   GL136449  33.049  17.665  11.705 -0.1719 -0.0070 -0.1538
 3107DOPS   GL236450  33.166  17.666  12.000 -0.1265 -0.0551 -0.0054
 3107DOPS   C1A36451  32.811  17.974  12.004  0.2377  0.1862  0.5385
 3107DOPS   D2A36452  32.855  18.383  12.173  0.2538 -0.1091 -0.0283
 3107DOPS   C3A36453  32.717  18.575  12.534 -0.0024  0.0432  0.2587
 3107DOPS   C4A36454  32.542  18.882  12.831 -0.0450  0.1353  0.0468
 3107DOPS   C1B36455  33.373  17.885  12.332  0.0027  0.1982  0.0489
 3107DOPS   D2B36456  33.557  18.041  12.743 -0.2279 -0.0642 -0.1918
 3107DOPS   C3B36457  33.634  18.471  12.752  0.0639 -0.2424 -0.6653
 3107DOPS   C4B36458  33.903  18.744  12.540  0.2747  0.0893 -0.1152
 3108POSM   NC336459  31.434  13.593  11.691  0.4047  0.1926 -0.0523
 3108POSM   PO436460  31.207  13.555  11.344 -0.5298 -0.0340  0.0989
 3108POSM   AM136461  31.036  13.818  11.506  0.0990 -0.1323 -0.3293
 3108POSM   AM236462  31.028  14.129  11.536 -0.2316  0.1037 -0.2316
 3108POSM   T1A36463  30.698  13.908  11.861 -0.0803 -0.0455  0.0862
 3108POSM   C2A36464  30.517  14.008  12.273 -0.3085 -0.1851 -0.2349
 3108POSM   C3A36465  30.274  13.815  12.635 -0.0298 -0.0532  0.1453
 3108POSM   C1B36466  31.114  14.217  11.826 -0.0148 -0.3001 -0.1529
 3108POSM   D2B36467  31.284  14.470  12.188 -0.0511 -0.2041 -0.0593
 3108POSM   C3B36468  31.016  14.835  12.199 -0.0866 -0.0852  0.3102
 3108POSM   C4B36469  30.642  14.981  11.983  0.0843  0.0307  0.2071
 3109DOPE   NH336470   0.500  15.446  12.122  0.0326  0.0609  0.0347
 3109DOPE   PO436471   0.628  15.145  12.088 -0.2278  0.0947  0.4711
 3109DOPE   GL136472   0.283  15.167  12.431  0.1326  0.1404 -0.0540
 3109DOPE   GL236473   0.387  14.986  12.575 -0.1134 -0.1985 -0.2060
 3109DOPE   C1A36474   0.184  15.447  12.840 -0.0392  0.0689 -0.1039
 3109DOPE   D2A36475   0.085  15.565  13.252 -0.4683 -0.0090 -0.0010
 3109DOPE   C3A36476   0.478  15.724  13.337  0.1507  0.1757  0.0945
 3109DOPE   C4A36477   0.894  15.710  13.120  0.2505 -0.2428 -0.0372
 3109DOPE   C1B36478   0.283  14.776  13.012  0.3225 -0.0371 -0.1671
 3109DOPE   D2B36479   0.261  14.474  13.324  0.1029  0.3727 -0.3630
 3109DOPE   C3B36480   0.159  14.087  13.531  0.2553  0.1168 -0.2068
 3109DOPE   C4B36481  -0.134  13.790  13.573  0.0199  0.2048 -0.0981
 3110DOPE   NH336482  34.234  18.930  10.361 -0.0291  0.0607 -0.0637
 3110DOPE   PO436483  34.220  19.067  10.658  0.0340 -0.1474  0.0238
 3110DOPE   GL136484  34.174  19.188  11.043  0.3385  0.0592  0.3861
 3110DOPE   GL236485  34.426  19.137  11.203  0.1072  0.2128  0.2945
 3110DOPE   C1A36486  34.092  19.385  11.482 -0.3863 -0.0267  0.1990
 3110DOPE   D2A36487  33.791  19.440  11.826 -0.0156 -0.0795 -0.1399
 3110DOPE   C3A36488  33.828  19.212  12.212 -0.0927  0.0645 -0.0985
 3110DOPE   C4A36489  34.158  19.187  12.556  0.2889  0.0429 -0.1867
 3110DOPE   C1B36490  34.674  19.371  11.536  0.3369 -0.0443  0.0441
 3110DOPE   D2B36491  34.705  19.701  11.907  0.1641  0.2570  0.1834
 3110DOPE   C3B36492  34.807  19.960  12.275 -0.2999 -0.1677  0.0224
 3110DOPE   C4B36493  34.609  20.251  12.562  0.1258  0.3268  0.2432
 3111DOPE   NH336494  29.927  17.852  10.426  0.0211  0.2415  0.0305
 3111DOPE   PO436495  29.935  18.140  10.631  0.1350  0.3092 -0.1618
 3111DOPE   GL136496  29.923  18.005  10.931 -0.0114 -0.0985  0.0320
 3111DOPE   GL236497  30.237  18.073  11.035 -0.1443 -0.0826  0.0227
 3111DOPE   C1A36498  29.979  17.854  11.381 -0.1298  0.0214  0.3803
 3111DOPE   D2A36499  29.895  17.773  11.812 -0.2074  0.1538  0.0473
 3111DOPE   C3A36500  29.996  18.094  12.133  0.3418  0.1701 -0.1088
 3111DOPE   C4A36501  29.806  18.111  12.582 -0.0973  0.0462 -0.1500
 3111DOPE   C1B36502  30.159  18.322  11.410 -0.2724 -0.0741 -0.0257
 3111DOPE   D2B36503  29.923  18.358  11.755 -0.2259 -0.2946  0.0697
 3111DOPE   C3B36504  29.618  18.531  12.037  0.1277  0.3280  0.0300
 3111DOPE   C4B36505  29.432  18.446  12.454  0.1532  0.0764 -0.0025
 3112DOPE   NH336506  25.563  16.142  10.176  0.2165  0.1260  0.3293
 3112DOPE   PO436507  25.737  15.946  10.319  0.2537 -0.0075  0.1441
 3112DOPE   GL136508  25.632  15.659  10.650 -0.0031  0.0649 -0.0683
 3112DOPE   GL236509  25.686  15.373  10.712  0.0898  0.1482 -0.0408
 3112DOPE   C1A36510  25.518  15.728  11.093 -0.4094  0.1115 -0.0756
 3112DOPE   D2A36511  25.732  15.591  11.524  0.1330 -0.1243 -0.1783
 3112DOPE   C3A36512  25.669  15.994  11.808 -0.1590 -0.2573  0.1692
 3112DOPE   C4A36513  25.692  16.055  12.272 -0.0730 -0.3901 -0.2183
 3112DOPE   C1B36514  25.626  15.200  11.092  0.4322 -0.1912 -0.1183
 3112DOPE   D2B36515  25.739  15.051  11.482  0.2143  0.0460 -0.0971
 3112DOPE   C3B36516  25.450  15.061  11.829 -0.2367  0.2538  0.1615
 3112DOPE   C4B36517  25.066  15.267  11.961 -0.1914 -0.0087  0.2329
 3113POSM   NC336518  24.890  15.748   9.790  0.3370 -0.0395  0.0845
 3113POSM   PO436519  24.966  15.348   9.928  0.1105 -0.2712  0.0598
 3113POSM   AM136520  24.840  15.399  10.231  0.1008  0.2895 -0.1527
 3113POSM   AM236521  24.582  15.566  10.269 -0.1056 -0.1697  0.3978
 3113POSM   T1A36522  24.811  15.288  10.676 -0.0594 -0.2664 -0.0546
 3113POSM   C2A36523  25.078  15.345  11.041 -0.1122 -0.3213 -0.2415
 3113POSM   C3A36524  25.199  15.485  11.451 -0.3949  0.1356  0.3414
 3113POSM   C1B36525  24.388  15.326  10.425  0.0614  0.2223 -0.6835
 3113POSM   D2B36526  24.223  15.204  10.864 -0.0989 -0.3331  0.2881
 3113POSM   C3B36527  24.505  15.361  11.238  0.1060  0.1673  0.0890
 3113POSM   C4B36528  24.735  15.419  11.580  0.2816  0.2154  0.4380
 3114DOPC   NC336529  30.601  21.738  10.031 -0.3722 -0.1332  0.1267
 3114DOPC   PO436530  30.964  21.794  10.230  0.2040 -0.2050 -0.0609
 3114DOPC   GL136531  30.859  21.918  10.631  0.0406 -0.1829 -0.0604
 3114DOPC   GL236532  31.027  21.708  10.722 -0.1758  0.1744 -0.2331
 3114DOPC   C1A36533  31.090  22.124  10.946 -0.3158  0.0411  0.0384
 3114DOPC   D2A36534  31.381  22.355  11.133  0.0386  0.1622 -0.0402
 3114DOPC   C3A36535  31.243  22.714  11.452  0.3526 -0.1140  0.0008
 3114DOPC   C4A36536  30.926  22.987  11.640  0.0467  0.3006  0.1411
 3114DOPC   C1B36537  30.933  21.713  11.140 -0.2052 -0.4763  0.0914
 3114DOPC   D2B36538  31.043  21.791  11.589 -0.0648 -0.1232 -0.1150
 3114DOPC   C3B36539  31.277  21.704  11.944 -0.1741  0.0336  0.0956
 3114DOPC   C4B36540  31.215  21.379  12.321  0.0723  0.2468  0.2172
 3115DOPC   NC336541  31.264  19.886  10.034 -0.0365 -0.3984 -0.1483
 3115DOPC   PO436542  31.320  19.695  10.353 -0.0592 -0.4278 -0.2702
 3115DOPC   GL136543  31.211  19.465  10.673 -0.0208 -0.1164 -0.2913
 3115DOPC   GL236544  30.926  19.380  10.596  0.2416 -0.2381 -0.1335
 3115DOPC   C1A36545  31.149  19.463  11.135  0.0278  0.1921 -0.2696
 3115DOPC   D2A36546  31.363  19.621  11.572 -0.3599  0.1889 -0.2708
 3115DOPC   C3A36547  31.218  19.574  12.003 -0.0330  0.1077  0.1656
 3115DOPC   C4A36548  31.241  19.465  12.438 -0.4499 -0.0304 -0.1167
 3115DOPC   C1B36549  30.695  19.436  10.965  0.1305 -0.4576  0.1876
 3115DOPC   D2B36550  30.526  19.731  11.355 -0.1283  0.0667  0.1934
 3115DOPC   C3B36551  30.215  19.822  11.700  0.1185 -0.0546 -0.1472
 3115DOPC   C4B36552  30.154  19.830  12.100  0.0923 -0.0494  0.0893
 3116POSM   NC336553  25.965  19.574   9.630  0.0557 -0.0182  0.1675
 3116POSM   PO436554  25.723  19.664   9.952  0.2871 -0.0807 -0.2608
 3116POSM   AM136555  25.839  19.767  10.248 -0.0436  0.2503 -0.1792
 3116POSM   AM236556  25.815  19.593  10.518  0.1824  0.2460 -0.2605
 3116POSM   T1A36557  25.850  20.024  10.707 -0.4815 -0.3374  0.0411
 3116POSM   C2A36558  25.956  19.973  11.182  0.1021 -0.0962 -0.1585
 3116POSM   C3A36559  25.904  20.330  11.502  0.2177  0.0546 -0.0013
 3116POSM   C1B36560  25.780  19.553  10.859  0.0957  0.1110  0.0886
 3116POSM   D2B36561  25.578  19.521  11.306 -0.0239 -0.1021  0.2084
 3116POSM   C3B36562  25.519  19.912  11.576  0.1481  0.0815  0.0461
 3116POSM   C4B36563  25.440  19.842  12.053 -0.1421  0.3318 -0.0270
 3117POSM   NC336564  34.476  16.594  11.681 -0.1025 -0.1542  0.0083
 3117POSM   PO436565  34.139  16.600  11.557 -0.1714  0.2212 -0.1045
 3117POSM   AM136566  34.014  16.523  11.861 -0.2406 -0.2350  0.1662
 3117POSM   AM236567  33.780  16.415  11.960  0.2121  0.0251  0.0930
 3117POSM   T1A36568  34.057  16.688  12.360 -0.1321  0.1448 -0.0433
 3117POSM   C2A36569  33.898  17.037  12.588  0.3420  0.0577  0.0676
 3117POSM   C3A36570  33.890  17.304  12.953  0.2635  0.0496  0.2048
 3117POSM   C1B36571  33.611  16.570  12.189 -0.2933  0.3820 -0.1134
 3117POSM   D2B36572  33.636  16.582  12.630  0.0267 -0.3458  0.1223
 3117POSM   C3B36573  33.571  16.933  12.949  0.1459  0.1486  0.0438
 3117POSM   C4B36574  33.190  17.185  13.176 -0.2321 -0.3602 -0.4897
 3118DOPS   CNO36575  34.596  15.936  11.402  0.2292  0.0674 -0.0878
 3118DOPS   PO436576  34.309  16.143  11.490 -0.3665 -0.1691  0.3999
 3118DOPS   GL136577  34.216  16.155  11.872  0.0590  0.1351  0.0870
 3118DOPS   GL236578  34.316  16.332  12.127 -0.2349 -0.1552  0.0562
 3118DOPS   C1A36579  33.910  16.061  12.234  0.1900 -0.1463 -0.0976
 3118DOPS   D2A36580  33.707  16.075  12.667 -0.0660 -0.1706  0.0803
 3118DOPS   C3A36581  34.011  16.334  12.875  0.0205 -0.1814  0.0518
 3118DOPS   C4A36582  34.042  16.714  13.011  0.0304 -0.1148 -0.4306
 3118DOPS   C1B36583  34.425  16.324  12.546 -0.3178 -0.1816 -0.0044
 3118DOPS   D2B36584  34.611  16.277  12.886  0.2447 -0.1926  0.2085
 3118DOPS   C3B36585  34.734  16.731  12.842  0.0365  0.3219 -0.4378
 3118DOPS   C4B36586  34.904  17.162  12.892  0.3725  0.2367 -0.3868
 3119DOPE   NH336587  32.277  17.566  11.121 -0.1304  0.3242 -0.5460
 3119DOPE   PO436588  32.325  17.263  11.182 -0.0457 -0.0175  0.0796
 3119DOPE   GL136589  32.327  17.291  11.604 -0.2569  0.4215 -0.0168
 3119DOPE   GL236590  32.214  17.609  11.660 -0.3952 -0.0946  0.2764
 3119DOPE   C1A36591  32.135  17.218  12.026  0.0536  0.0555  0.1032
 3119DOPE   D2A36592  32.147  17.225  12.511  0.0449 -0.1994  0.0653
 3119DOPE   C3A36593  32.254  17.579  12.806 -0.1650 -0.1822  0.0216
 3119DOPE   C4A36594  32.128  17.939  13.042 -0.2321 -0.1888  0.1949
 3119DOPE   C1B36595  32.557  17.500  12.005 -0.0410  0.1808 -0.1530
 3119DOPE   D2B36596  32.567  17.637  12.430  0.1033  0.2560  0.0332
 3119DOPE   C3B36597  32.508  18.093  12.451  0.2389 -0.2100  0.3042
 3119DOPE   C4B36598  32.157  18.326  12.668  0.0153 -0.0989  0.0026
 3120DOPC   NC336599  30.667  16.408  10.627  0.1032 -0.1105  0.1733
 3120DOPC   PO436600  30.316  16.432  10.559  0.0101 -0.0385  0.1745
 3120DOPC   GL136601  30.251  16.454  10.983 -0.1071  0.1906 -0.0916
 3120DOPC   GL236602  30.473  16.546  11.094  0.0329 -0.1095 -0.0500
 3120DOPC   C1A36603  29.936  16.337  11.297  0.0944 -0.0799  0.3225
 3120DOPC   D2A36604  29.950  16.361  11.762 -0.1313 -0.0280  0.1921
 3120DOPC   C3A36605  29.932  16.443  12.153 -0.2773  0.1710 -0.1438
 3120DOPC   C4A36606  29.538  16.494  12.463 -0.3654 -0.1809 -0.2443
 3120DOPC   C1B36607  30.523  16.294  11.436  0.1742  0.0690  0.0597
 3120DOPC   D2B36608  30.758  16.116  11.794 -0.0362 -0.3384 -0.1035
 3120DOPC   C3B36609  30.800  15.939  12.200  0.1089  0.0191  0.1551
 3120DOPC   C4B36610  30.731  15.843  12.615  0.3017 -0.1002  0.0121
 3121DOPC   NC336611  31.656  19.282  10.388 -0.0377 -0.0216 -0.2318
 3121DOPC   PO436612  31.756  19.557  10.629  0.2381 -0.2264  0.2102
 3121DOPC   GL136613  32.051  19.584  11.022 -0.1735  0.0498 -0.3353
 3121DOPC   GL236614  31.849  19.672  11.276  0.0264 -0.1971 -0.2143
 3121DOPC   C1A36615  32.127  19.229  11.316  0.2554 -0.0005 -0.1162
 3121DOPC   D2A36616  32.302  19.030  11.675  0.0313  0.2169 -0.2738
 3121DOPC   C3A36617  32.338  19.329  12.060  0.1680  0.4497  0.4533
 3121DOPC   C4A36618  32.301  19.268  12.519 -0.3645 -0.1109  0.0653
 3121DOPC   C1B36619  31.980  20.133  11.288  0.1247  0.0537 -0.2518
 3121DOPC   D2B36620  32.061  20.541  11.122  0.0555  0.1038 -0.2975
 3121DOPC   C3B36621  31.979  20.967  11.310  0.0059  0.2821 -0.1906
 3121DOPC   C4B36622  32.306  21.375  11.251 -0.2112  0.3407  0.1931
 3122DOPC   NC336623  28.565  21.452   9.828  0.4014 -0.1461  0.2942
 3122DOPC   PO436624  28.644  21.048   9.861  0.1610 -0.2395  0.0190
 3122DOPC   GL136625  28.398  21.201  10.189  0.2431 -0.4418 -0.0312
 3122DOPC   GL236626  28.188  21.426  10.194  0.3118  0.2871 -0.1052
 3122DOPC   C1A36627  28.287  21.073  10.631 -0.1572  0.1787  0.2967
 3122DOPC   D2A36628  28.211  20.651  10.860 -0.0031 -0.2601  0.0951
 3122DOPC   C3A36629  27.930  20.304  10.998  0.1645  0.1441 -0.2528
 3122DOPC   C4A36630  27.602  19.962  11.031  0.0272 -0.2956  0.0264
 3122DOPC   C1B36631  27.906  21.355  10.489 -0.1911  0.1262 -0.2432
 3122DOPC   D2B36632  27.625  21.554  10.822  0.2134  0.0196 -0.0265
 3122DOPC   C3B36633  27.412  21.252  11.122 -0.1445 -0.1861 -0.1583
 3122DOPC   C4B36634  27.126  21.006  11.446  0.0373 -0.1603 -0.0267
 3123DOPE   NH336635  30.820  12.142  11.146  0.0418  0.2611  0.2349
 3123DOPE   PO436636  30.917  12.451  11.085 -0.0882  0.1730  0.0644
 3123DOPE   GL136637  30.767  12.584  11.390 -0.0188 -0.0787  0.1174
 3123DOPE   GL236638  30.487  12.479  11.470 -0.1664  0.2163 -0.0095
 3123DOPE   C1A36639  30.600  12.935  11.567 -0.0833 -0.2082  0.0405
 3123DOPE   D2A36640  30.520  13.019  12.030  0.0192  0.0253  0.0452
 3123DOPE   C3A36641  30.828  13.204  12.258 -0.1648 -0.0845 -0.0491
 3123DOPE   C4A36642  31.194  12.993  12.397  0.1845 -0.0045  0.0630
 3123DOPE   C1B36643  30.090  12.692  11.727  0.0269  0.3858 -0.1713
 3123DOPE   D2B36644  30.091  12.783  12.150  0.1099 -0.1795 -0.1211
 3123DOPE   C3B36645  29.662  12.604  12.330 -0.1304 -0.0797  0.1044
 3123DOPE   C4B36646  29.711  12.188  12.471 -0.1980  0.1667 -0.1924
 3124DOPC   NC336647  34.044  17.465  11.465  0.0163 -0.2655 -0.2119
 3124DOPC   PO436648  33.950  17.095  11.438  0.2282 -0.0933 -0.0715
 3124DOPC   GL136649  34.012  17.061  11.863  0.1396  0.2896  0.2856
 3124DOPC   GL236650  33.786  16.927  11.942  0.0305  0.1531  0.0753
 3124DOPC   C1A36651  34.145  17.337  12.196  0.0528  0.0489 -0.0629
 3124DOPC   D2A36652  34.364  17.724  12.331 -0.1901 -0.1444 -0.0140
 3124DOPC   C3A36653  34.084  18.118  12.474  0.0139 -0.1321  0.0364
 3124DOPC   C4A36654  33.798  18.361  12.220 -0.0215  0.1341 -0.0996
 3124DOPC   C1B36655  33.501  17.176  12.135 -0.3367 -0.2472  0.1813
 3124DOPC   D2B36656  33.408  17.277  12.627  0.0004 -0.0072  0.0843
 3124DOPC   C3B36657  33.506  17.556  13.000 -0.1248  0.1796 -0.4391
 3124DOPC   C4B36658  33.578  17.906  13.263  0.2497 -0.0195 -0.2028
 3125POSM   NC336659  27.151  15.906  10.391 -0.1961 -0.1498  0.3230
 3125POSM   PO436660  27.064  15.836  10.793 -0.0987 -0.0079  0.2492
 3125POSM   AM136661  26.989  15.803  11.096  0.2007  0.5729  0.0867
 3125POSM   AM236662  26.754  15.745  11.244  0.1590 -0.5902  0.1540
 3125POSM   T1A36663  26.990  15.699  11.630 -0.0422 -0.0689 -0.2527
 3125POSM   C2A36664  26.899  15.595  12.053  0.0009  0.0469 -0.2101
 3125POSM   C3A36665  26.993  15.353  12.419  0.1715  0.0666  0.2207
 3125POSM   C1B36666  26.491  15.659  11.510  0.2704 -0.3442 -0.0501
 3125POSM   D2B36667  26.118  15.711  11.766 -0.3109  0.2185 -0.0529
 3125POSM   C3B36668  26.252  15.781  12.148 -0.0335 -0.0261 -0.1801
 3125POSM   C4B36669  26.682  15.898  12.393 -0.1827 -0.0440  0.1014
 3126DOPS   CNO36670  26.885  11.749  10.073 -0.1142  0.1291  0.4117
 3126DOPS   PO436671  26.513  11.875  10.174  0.1194 -0.0092 -0.0601
 3126DOPS   GL136672  26.368  11.774  10.600 -0.3078 -0.3954  0.0828
 3126DOPS   GL236673  26.337  12.064  10.729  0.2313 -0.2315  0.1428
 3126DOPS   C1A36674  26.393  11.644  11.059 -0.2975 -0.0053  0.0558
 3126DOPS   D2A36675  26.578  11.541  11.496 -0.0161 -0.0907 -0.0227
 3126DOPS   C3A36676  26.809  11.795  11.690 -0.2422  0.0381 -0.2682
 3126DOPS   C4A36677  26.684  12.193  11.960  0.0783 -0.3650  0.3263
 3126DOPS   C1B36678  26.396  12.199  11.172 -0.0533  0.0185  0.1203
 3126DOPS   D2B36679  26.162  12.374  11.595  0.0678  0.3234  0.1756
 3126DOPS   C3B36680  26.483  12.611  11.792  0.0173 -0.0352 -0.2892
 3126DOPS   C4B36681  26.806  12.885  11.779  0.0316 -0.0308  0.1364
 3127DOPE   NH336682  23.951  19.303   9.610  0.1320 -0.1569  0.0569
 3127DOPE   PO436683  24.036  19.061   9.798 -0.0379 -0.2379  0.5506
 3127DOPE   GL136684  23.875  18.963  10.047  0.1493 -0.0462 -0.0350
 3127DOPE   GL236685  23.890  19.232  10.256  0.4104  0.1239 -0.0175
 3127DOPE   C1A36686  23.706  18.626  10.284  0.3281  0.2780  0.1485
 3127DOPE   D2A36687  23.586  18.235  10.487  0.0927  0.1349  0.0371
 3127DOPE   C3A36688  23.358  18.350  10.901 -0.0987 -0.1790 -0.5887
 3127DOPE   C4A36689  23.160  18.599  11.237 -0.0927 -0.0602  0.1183
 3127DOPE   C1B36690  23.807  18.967  10.604 -0.0122 -0.1101 -0.0313
 3127DOPE   D2B36691  23.877  18.528  10.770  0.1522  0.0578 -0.3761
 3127DOPE   C3B36692  23.791  18.349  11.163  0.0250  0.4023 -0.0840
 3127DOPE   C4B36693  23.491  18.052  11.307 -0.0580  0.0074 -0.2199
 3128POSM   NC336694  23.064  14.780   9.443  0.2011 -0.2262  0.0520
 3128POSM   PO436695  22.798  14.511   9.449  0.0732  0.2644  0.0509
 3128POSM   AM136696  22.806  14.392   9.734 -0.4645  0.0186 -0.2928
 3128POSM   AM236697  22.632  14.291   9.924 -0.0608 -0.0068 -0.2168
 3128POSM   T1A36698  23.079  14.130  10.037 -0.0091  0.1730  0.0004
 3128POSM   C2A36699  23.430  13.931  10.256  0.0455 -0.2155  0.0437
 3128POSM   C3A36700  23.648  13.967  10.658  0.0762  0.2427 -0.1520
 3128POSM   C1B36701  22.437  14.334  10.173  0.1856  0.3070 -0.0991
 3128POSM   D2B36702  22.139  14.294  10.491  0.0951 -0.1142  0.1091
 3128POSM   C3B36703  22.282  13.986  10.840 -0.0598  0.2789  0.0818
 3128POSM   C4B36704  22.213  14.000  11.347 -0.1416 -0.1645 -0.0823
 3129DOPC   NC336705  27.092  17.249  10.611  0.1480 -0.0597 -0.4446
 3129DOPC   PO436706  27.307  17.475  10.403  0.2787 -0.2031 -0.2367
 3129DOPC   GL136707  27.066  17.768  10.563  0.3024  0.0060 -0.1262
 3129DOPC   GL236708  27.122  18.054  10.696 -0.1048  0.4528 -0.0622
 3129DOPC   C1A36709  26.966  17.708  11.049 -0.1544 -0.0105  0.2947
 3129DOPC   D2A36710  27.361  17.515  11.282  0.1676 -0.0746 -0.0628
 3129DOPC   C3A36711  27.739  17.757  11.406  0.0567 -0.1874 -0.2556
 3129DOPC   C4A36712  27.905  17.681  11.843 -0.0286  0.3687 -0.3743
 3129DOPC   C1B36713  27.129  18.429  10.964 -0.3579  0.3706 -0.0124
 3129DOPC   D2B36714  26.850  18.742  11.087  0.2106 -0.1353  0.0128
 3129DOPC   C3B36715  26.407  18.620  10.935  0.0747 -0.0467 -0.2110
 3129DOPC   C4B36716  25.930  18.736  11.046  0.1000  0.1320 -0.0494
 3130DOPS   CNO36717  25.463  15.612   9.992 -0.5247  0.0955  0.1851
 3130DOPS   PO436718  25.501  15.353  10.224 -0.1711 -0.0133 -0.0513
 3130DOPS   GL136719  25.195  15.086  10.253  0.2030 -0.2453  0.1143
 3130DOPS   GL236720  25.263  15.013  10.532  0.0800  0.2474  0.0975
 3130DOPS   C1A36721  24.733  14.935  10.360  0.3453 -0.1698  0.2437
 3130DOPS   D2A36722  24.484  14.790  10.689  0.0170 -0.4715  0.2856
 3130DOPS   C3A36723  24.635  14.862  11.152  0.1849  0.0318 -0.0222
 3130DOPS   C4A36724  25.007  15.031  11.408 -0.0928 -0.0817 -0.1982
 3130DOPS   C1B36725  24.987  14.818  10.812 -0.3087  0.0567 -0.7512
 3130DOPS   D2B36726  25.011  14.553  11.197  0.1710  0.0801 -0.1717
 3130DOPS   C3B36727  25.023  14.561  11.665 -0.2408  0.2334  0.2403
 3130DOPS   C4B36728  25.200  14.764  12.103  0.0635 -0.0053 -0.2570
 3131DOPC   NC336729  23.420  19.659   8.810  0.0351  0.0140 -0.0779
 3131DOPC   PO436730  23.077  19.531   8.969 -0.1600 -0.2439  0.1440
 3131DOPC   GL136731  23.152  19.673   9.315 -0.4320  0.1945 -0.0951
 3131DOPC   GL236732  22.955  19.719   9.510  0.1537 -0.0593 -0.1320
 3131DOPC   C1A36733  23.363  19.894   9.661  0.0705 -0.1407  0.0288
 3131DOPC   D2A36734  23.421  20.037  10.079 -0.2389 -0.0993 -0.1352
 3131DOPC   C3A36735  23.637  19.782  10.411 -0.0828  0.1038 -0.0612
 3131DOPC   C4A36736  23.610  19.495  10.745 -0.0435 -0.0942  0.0371
 3131DOPC   C1B36737  22.910  19.973   9.928 -0.0265  0.0462  0.0574
 3131DOPC   D2B36738  22.654  20.014  10.313 -0.0056  0.0200 -0.0865
 3131DOPC   C3B36739  22.919  20.037  10.729  0.1584  0.0826 -0.0809
 3131DOPC   C4B36740  23.381  20.088  10.716  0.2037 -0.0684 -0.0260
 3132DOPC   NC336741  27.739  15.405  10.650  0.2236 -0.0871 -0.0670
 3132DOPC   PO436742  27.364  15.450  10.743  0.1504 -0.1791  0.2958
 3132DOPC   GL136743  27.415  15.227  11.004  0.2913 -0.0545  0.5366
 3132DOPC   GL236744  27.611  15.156  11.090 -0.3968  0.1067  0.1816
 3132DOPC   C1A36745  27.232  15.337  11.419 -0.1393 -0.1402  0.1070
 3132DOPC   D2A36746  27.349  15.399  11.858  0.2476  0.2338 -0.0778
 3132DOPC   C3A36747  27.631  15.118  12.068 -0.0982 -0.4421  0.3455
 3132DOPC   C4A36748  27.951  15.117  12.413 -0.0782  0.0725  0.0193
 3132DOPC   C1B36749  27.809  15.038  11.533  0.0243 -0.2937  0.0266
 3132DOPC   D2B36750  28.100  14.981  11.856  0.2211  0.2276 -0.2449
 3132DOPC   C3B36751  28.330  15.267  11.584 -0.2398 -0.1729 -0.0121
 3132DOPC   C4B36752  28.414  15.640  11.305  0.0040  0.1038  0.0993
 3133DOPE   NH336753  28.925  14.394  11.274 -0.1662  0.0850 -0.0123
 3133DOPE   PO436754  28.843  14.600  11.032  0.1103 -0.0653 -0.3161
 3133DOPE   GL136755  28.640  14.693  11.421  0.2702 -0.0058 -0.3857
 3133DOPE   GL236756  28.886  14.855  11.433  0.0618 -0.1184 -0.1522
 3133DOPE   C1A36757  28.318  14.500  11.690  0.3588  0.1000 -0.2685
 3133DOPE   D2A36758  28.266  14.533  12.187  0.2275  0.3647  0.1638
 3133DOPE   C3A36759  28.504  14.727  12.532 -0.1931 -0.0492 -0.0380
 3133DOPE   C4A36760  28.563  14.890  12.915 -0.0570  0.0125  0.1017
 3133DOPE   C1B36761  28.637  14.900  11.820  0.1229 -0.3867  0.0507
 3133DOPE   D2B36762  28.519  15.117  12.216  0.1804 -0.0567  0.0052
 3133DOPE   C3B36763  28.754  15.255  12.584  0.3946 -0.0314 -0.2541
 3133DOPE   C4B36764  29.031  15.053  12.930 -0.1661 -0.0850  0.0160
 3134DOPC   NC336765  26.057  15.309  10.341 -0.1914  0.0551  0.0779
 3134DOPC   PO436766  26.156  15.606  10.569 -0.0832  0.0904  0.0678
 3134DOPC   GL136767  25.980  15.802  10.927  0.0203  0.1314 -0.0573
 3134DOPC   GL236768  25.824  16.039  10.875 -0.0928  0.1493 -0.4371
 3134DOPC   C1A36769  26.103  15.970  11.370 -0.2725  0.1218 -0.1696
 3134DOPC   D2A36770  26.126  16.217  11.770 -0.2915 -0.0340  0.1404
 3134DOPC   C3A36771  25.961  16.404  12.083 -0.0140  0.1021  0.0598
 3134DOPC   C4A36772  25.880  16.520  12.528  0.2935  0.2704  0.1463
 3134DOPC   C1B36773  25.648  16.176  11.271  0.1357 -0.0974  0.1524
 3134DOPC   D2B36774  25.663  16.442  11.611 -0.0817  0.0325  0.0031
 3134DOPC   C3B36775  25.971  16.818  11.632  0.1823  0.1114 -0.2624
 3134DOPC   C4B36776  26.008  17.164  11.879 -0.2685  0.1226 -0.0126
 3135DOPC   NC336777  30.241  23.696  10.120 -0.1793 -0.0903 -0.2165
 3135DOPC   PO436778  30.626  23.629  10.133  0.1311  0.2071 -0.2059
 3135DOPC   GL136779  30.649  23.812  10.444  0.1256 -0.0768 -0.3705
 3135DOPC   GL236780  30.426  23.855  10.553  0.0722  0.3349 -0.0973
 3135DOPC   C1A36781  30.856  24.026  10.808 -0.0023 -0.2446  0.2607
 3135DOPC   D2A36782  30.948  24.383  11.094 -0.0362 -0.2757 -0.4381
 3135DOPC   C3A36783  31.054  24.344  11.523 -0.0708 -0.4543  0.0911
 3135DOPC   C4A36784  30.955  24.282  11.995  0.2726 -0.1896 -0.2545
 3135DOPC   C1B36785  30.437  23.738  10.957 -0.1027  0.1359 -0.0106
 3135DOPC   D2B36786  30.298  23.627  11.383  0.0222  0.0997  0.0177
 3135DOPC   C3B36787  30.481  23.872  11.760  0.5145  0.0575 -0.0159
 3135DOPC   C4B36788  30.514  24.163  12.112 -0.2025  0.0833  0.0064
 3136POSM   NC336789  30.687  23.003   9.943  0.1362  0.0900  0.0408
 3136POSM   PO436790  30.353  23.182   9.959  0.2649  0.2039 -0.2610
 3136POSM   AM136791  30.310  23.247  10.297  0.2648  0.0218 -0.0331
 3136POSM   AM236792  30.115  23.298  10.522 -0.0024 -0.3139 -0.3749
 3136POSM   T1A36793  30.521  23.268  10.774  0.2044 -0.3557  0.4619
 3136POSM   C2A36794  30.676  23.259  11.208  0.1849  0.0325 -0.2785
 3136POSM   C3A36795  30.776  23.451  11.630  0.2162 -0.1509 -0.2915
 3136POSM   C1B36796  30.075  23.351  10.863 -0.0289 -0.1367  0.0837
 3136POSM   D2B36797  29.935  23.330  11.304 -0.0830 -0.0368  0.2414
 3136POSM   C3B36798  29.886  22.991  11.600 -0.0987 -0.1402  0.0037
 3136POSM   C4B36799  29.724  22.540  11.608 -0.2611  0.0318 -0.0446
 3137DOPE   NH336800  28.688  13.985  11.013 -0.2571  0.3355 -0.4907
 3137DOPE   PO436801  28.512  14.174  10.873  0.1980  0.3452 -0.0640
 3137DOPE   GL136802  28.509  14.220  11.379  0.4821  0.2107  0.2069
 3137DOPE   GL236803  28.409  13.871  11.405 -0.4427  0.2199 -0.3446
 3137DOPE   C1A36804  28.733  14.167  11.773 -0.1927  0.0894  0.2433
 3137DOPE   D2A36805  28.837  13.859  12.109 -0.0269  0.0469  0.0461
 3137DOPE   C3A36806  28.529  13.569  12.301 -0.0252 -0.2804  0.1920
 3137DOPE   C4A36807  28.438  13.457  12.734 -0.1862  0.1683  0.1574
 3137DOPE   C1B36808  28.390  13.711  11.845 -0.1825  0.0454  0.1211
 3137DOPE   D2B36809  28.049  13.673  12.191  0.0101 -0.1789  0.2217
 3137DOPE   C3B36810  28.104  13.803  12.631 -0.2421 -0.4011 -0.0987
 3137DOPE   C4B36811  28.282  14.159  12.801  0.1287 -0.1199 -0.0947
 3138DOPS   CNO36812  26.209  18.691   9.628  0.0201 -0.1600  0.2582
 3138DOPS   PO436813  26.086  18.808   9.970  0.1615 -0.3416  0.0335
 3138DOPS   GL136814  25.799  18.755  10.236  0.1449 -0.1404 -0.2293
 3138DOPS   GL236815  25.522  18.744  10.170 -0.2118 -0.0022 -0.0771
 3138DOPS   C1A36816  25.739  19.023  10.614  0.2343  0.0870 -0.1833
 3138DOPS   D2A36817  25.430  19.146  10.963 -0.0326  0.0735 -0.1047
 3138DOPS   C3A36818  25.051  19.019  10.920 -0.4606  0.1710  0.1522
 3138DOPS   C4A36819  24.776  18.785  10.691  0.2682 -0.1351  0.0013
 3138DOPS   C1B36820  25.388  18.628  10.573  0.1903  0.2833  0.1708
 3138DOPS   D2B36821  25.283  18.601  11.021 -0.2948 -0.0902 -0.2246
 3138DOPS   C3B36822  24.834  18.619  11.134 -0.2589 -0.0783 -0.0391
 3138DOPS   C4B36823  24.384  18.777  11.063  0.1223  0.1527  0.0009
 3139DOPC   NC336824  29.975  20.518   9.962  0.1130  0.0681  0.0346
 3139DOPC   PO436825  30.023  20.358  10.335 -0.1091  0.1363 -0.3149
 3139DOPC   GL136826  30.029  20.217  10.641 -0.1300  0.0819  0.2717
 3139DOPC   GL236827  30.177  20.153  10.896 -0.0474  0.2136 -0.0098
 3139DOPC   C1A36828  29.805  20.449  10.992 -0.1982  0.1479  0.1045
 3139DOPC   D2A36829  29.491  20.559  11.339 -0.1403  0.1667 -0.0443
 3139DOPC   C3A36830  29.848  20.691  11.674 -0.0776 -0.0484  0.3549
 3139DOPC   C4A36831  29.835  20.708  12.143 -0.1024 -0.1933 -0.1227
 3139DOPC   C1B36832  30.222  20.335  11.307 -0.0217 -0.2517  0.0109
 3139DOPC   D2B36833  30.415  20.365  11.716 -0.1930 -0.1639  0.0438
 3139DOPC   C3B36834  30.072  20.309  12.005  0.2484  0.0581 -0.2303
 3139DOPC   C4B36835  29.873  20.254  12.436  0.0203 -0.1617 -0.2672
 3140DOPE   NH336836  25.354  17.665   9.673  0.2697 -0.1139 -0.2041
 3140DOPE   PO436837  25.121  17.618   9.902  0.1073  0.2649 -0.0547
 3140DOPE   GL136838  25.312  17.604  10.240  0.1878 -0.0413 -0.0799
 3140DOPE   GL236839  25.321  17.763  10.459  0.0102  0.1897  0.1234
 3140DOPE   C1A36840  25.566  17.261  10.436  0.0500  0.0996 -0.1058
 3140DOPE   D2A36841  25.567  16.849  10.647  0.0800 -0.0075  0.1803
 3140DOPE   C3A36842  25.791  16.727  11.040 -0.3029 -0.2058  0.1902
 3140DOPE   C4A36843  26.065  16.420  11.284  0.0579  0.0616 -0.2256
 3140DOPE   C1B36844  25.548  17.628  10.810  0.1331 -0.1737  0.0730
 3140DOPE   D2B36845  25.641  17.226  11.002 -0.0138 -0.2908 -0.1308
 3140DOPE   C3B36846  25.206  17.135  11.138 -0.1580 -0.1002 -0.0199
 3140DOPE   C4B36847  24.850  17.164  11.387 -0.1864 -0.1331  0.2262
 3141DOPE   NH336848  29.230  18.824  10.761 -0.0410 -0.0172 -0.2844
 3141DOPE   PO436849  28.999  18.713  10.601  0.0189 -0.1841  0.0333
 3141DOPE   GL136850  28.778  18.881  10.852 -0.0318  0.2262  0.2917
 3141DOPE   GL236851  28.821  18.622  11.055 -0.0130 -0.2442  0.2331
 3141DOPE   C1A36852  28.853  19.272  11.070  0.0203  0.0920  0.1122
 3141DOPE   D2A36853  29.019  19.586  11.409  0.1694  0.1448 -0.1995
 3141DOPE   C3A36854  28.908  19.790  11.831 -0.1471 -0.2511  0.0099
 3141DOPE   C4A36855  28.585  19.707  12.188 -0.0662  0.1460  0.1235
 3141DOPE   C1B36856  28.905  18.847  11.440  0.0721  0.0354 -0.4875
 3141DOPE   D2B36857  29.050  18.818  11.864  0.2029 -0.1120 -0.1449
 3141DOPE   C3B36858  29.362  18.968  12.190 -0.0776  0.0869  0.2388
 3141DOPE   C4B36859  29.620  18.893  12.573  0.1027 -0.1426 -0.0946
 3142POSM   NC336860  32.048  15.193  11.463  0.0256  0.1798 -0.0182
 3142POSM   PO436861  32.336  15.455  11.489 -0.2517 -0.2179 -0.1620
 3142POSM   AM136862  32.278  15.512  11.803  0.1613  0.1292  0.2875
 3142POSM   AM236863  32.155  15.358  12.010 -0.0599 -0.0526  0.1544
 3142POSM   T1A36864  32.460  15.693  12.199  0.1500 -0.1715  0.0006
 3142POSM   C2A36865  32.287  15.889  12.569  0.0891  0.1264  0.3006
 3142POSM   C3A36866  31.932  16.139  12.574  0.1403 -0.1026 -0.0218
 3142POSM   C1B36867  31.995  15.213  12.301  0.2010  0.0696 -0.1966
 3142POSM   D2B36868  31.846  15.133  12.769  0.2062 -0.1195  0.1279
 3142POSM   C3B36869  31.803  14.715  13.003  0.0510 -0.1661 -0.0106
 3142POSM   C4B36870  31.792  14.264  12.993 -0.2223  0.3729  0.0486
 3143POSM   NC336871  32.470  18.392  10.836 -0.3113 -0.0105  0.0966
 3143POSM   PO436872  32.202  18.694  10.782 -0.1393  0.2199  0.1025
 3143POSM   AM136873  32.174  18.818  11.080  0.0533 -0.2270  0.1446
 3143POSM   AM236874  32.322  18.706  11.286  0.1387  0.1514  0.3155
 3143POSM   T1A36875  31.844  18.822  11.478 -0.0157  0.1307 -0.2249
 3143POSM   C2A36876  31.855  19.080  11.818 -0.1078 -0.2517 -0.1943
 3143POSM   C3A36877  31.797  19.585  11.909  0.0238  0.1389 -0.2483
 3143POSM   C1B36878  32.590  18.979  11.297 -0.1479  0.2255  0.1869
 3143POSM   D2B36879  33.056  19.081  11.249 -0.1644 -0.2110  0.0275
 3143POSM   C3B36880  33.127  19.569  11.343  0.1611  0.1131 -0.3095
 3143POSM   C4B36881  33.574  19.715  11.278  0.4596 -0.0376 -0.1841
 3144DOPC   NC336882  26.193  20.018   9.993  0.4095  0.0573  0.4271
 3144DOPC   PO436883  26.245  20.419  10.057  0.1773 -0.0109  0.1183
 3144DOPC   GL136884  26.175  20.447  10.418 -0.1936  0.1570 -0.5148
 3144DOPC   GL236885  26.431  20.360  10.565  0.2619 -0.1245 -0.1804
 3144DOPC   C1A36886  25.793  20.563  10.702 -0.2452  0.1596 -0.0745
 3144DOPC   D2A36887  25.464  20.429  11.054  0.0919  0.0798 -0.1374
 3144DOPC   C3A36888  25.429  20.503  11.484 -0.0516  0.1130  0.0509
 3144DOPC   C4A36889  25.594  20.331  11.886  0.1812  0.1578  0.0156
 3144DOPC   C1B36890  26.753  20.591  10.831 -0.2040 -0.1308 -0.0993
 3144DOPC   D2B36891  26.970  20.488  11.225 -0.3735 -0.2065 -0.1242
 3144DOPC   C3B36892  26.715  20.723  11.531 -0.0640 -0.1407  0.0165
 3144DOPC   C4B36893  26.805  21.071  11.814  0.0627  0.0516  0.0556
 3145DOPC   NC336894  30.185  22.401  10.008  0.1191 -0.0157 -0.3906
 3145DOPC   PO436895  30.041  22.771   9.941  0.1594  0.1349  0.1065
 3145DOPC   GL136896  30.372  22.812  10.216  0.0520 -0.0161  0.2285
 3145DOPC   GL236897  30.384  22.586  10.407  0.1332  0.6909 -0.1166
 3145DOPC   C1A36898  30.700  22.938  10.464  0.2529  0.0448  0.1463
 3145DOPC   D2A36899  30.967  22.902  10.881 -0.0033 -0.0926  0.1864
 3145DOPC   C3A36900  30.711  22.637  11.225 -0.0250  0.0946 -0.0256
 3145DOPC   C4A36901  30.777  22.234  11.433 -0.0436 -0.3364 -0.1700
 3145DOPC   C1B36902  30.359  22.759  10.810 -0.0600  0.1617 -0.0041
 3145DOPC   D2B36903  30.273  22.943  11.228  0.1773 -0.0966 -0.1144
 3145DOPC   C3B36904  30.457  22.894  11.614  0.2585 -0.1377 -0.1950
 3145DOPC   C4B36905  30.669  22.541  11.833 -0.0871  0.0171  0.1686
 3146DOPC   NC336906  29.484  17.777  10.969  0.2596  0.1574 -0.1034
 3146DOPC   PO436907  29.714  17.550  10.750  0.1023 -0.1824  0.0276
 3146DOPC   GL136908  29.780  17.496  11.168 -0.2130  0.1637  0.4269
 3146DOPC   GL236909  29.989  17.232  11.016  0.1417  0.0522 -0.2383
 3146DOPC   C1A36910  30.076  17.290  11.464 -0.3974 -0.1074  0.1719
 3146DOPC   D2A36911  30.320  17.372  11.766  0.3550  0.1505 -0.3203
 3146DOPC   C3A36912  29.999  17.407  12.064 -0.0639  0.1486  0.2183
 3146DOPC   C4A36913  29.807  17.645  12.404  0.1753  0.3558 -0.2645
 3146DOPC   C1B36914  29.970  16.838  11.279 -0.0636 -0.0299  0.3082
 3146DOPC   D2B36915  30.289  16.732  11.594 -0.1482 -0.1142 -0.3379
 3146DOPC   C3B36916  30.343  16.961  11.964 -0.0014  0.2568  0.3526
 3146DOPC   C4B36917  30.046  16.952  12.323  0.0417 -0.1012 -0.1130
 3147POSM   NC336918  26.373  16.073  10.953  0.0114 -0.1981  0.2618
 3147POSM   PO436919  26.545  15.736  10.792  0.2143 -0.0539 -0.1873
 3147POSM   AM136920  26.415  15.521  10.978 -0.0037  0.1530  0.1589
 3147POSM   AM236921  26.191  15.353  10.980  0.2372  0.1244  0.0304
 3147POSM   T1A36922  26.604  15.192  11.289 -0.2200  0.1605 -0.1579
 3147POSM   C2A36923  26.454  14.866  11.486 -0.0140 -0.3469 -0.2054
 3147POSM   C3A36924  26.465  14.827  11.961  0.0987  0.3160  0.0234
 3147POSM   C1B36925  26.138  15.322  11.325  0.1431  0.0316 -0.0610
 3147POSM   D2B36926  26.185  15.226  11.747  0.3050  0.1324 -0.0151
 3147POSM   C3B36927  25.816  15.357  11.980 -0.1187  0.0600 -0.0000
 3147POSM   C4B36928  25.401  15.615  12.006 -0.0791  0.0281 -0.0161
 3148DOPC   NC336929  25.400  22.877   9.878  0.1950 -0.0772 -0.1569
 3148DOPC   PO436930  25.125  22.799   9.677  0.2603 -0.1889 -0.0139
 3148DOPC   GL136931  24.883  22.490   9.851  0.0298  0.1551  0.3752
 3148DOPC   GL236932  25.068  22.442  10.039  0.3946 -0.1645 -0.0373
 3148DOPC   C1A36933  24.501  22.427  10.076  0.1442  0.2068  0.2523
 3148DOPC   D2A36934  24.081  22.261  10.117 -0.0942 -0.1953  0.1380
 3148DOPC   C3A36935  23.884  22.092  10.501 -0.1275  0.3451 -0.1866
 3148DOPC   C4A36936  23.552  21.930  10.855  0.2323 -0.1728 -0.2372
 3148DOPC   C1B36937  25.189  22.183  10.366 -0.0753 -0.0191 -0.1700
 3148DOPC   D2B36938  25.474  21.936  10.673 -0.2668  0.0720  0.0320
 3148DOPC   C3B36939  25.841  21.919  10.972 -0.3191  0.0256 -0.1316
 3148DOPC   C4B36940  26.240  21.704  11.154  0.1685  0.1609 -0.1913
 3149POSM   NC336941   1.165  19.934  10.714  0.1246 -0.1196 -0.1751
 3149POSM   PO436942   1.013  19.751  11.069  0.1788  0.1205  0.2385
 3149POSM   AM136943   1.015  19.736  11.389 -0.3107  0.1214  0.0352
 3149POSM   AM236944   0.863  19.576  11.536 -0.0202  0.1341 -0.1418
 3149POSM   T1A36945   0.862  19.992  11.813  0.1767  0.1603  0.3336
 3149POSM   C2A36946   0.762  20.329  12.112  0.0411  0.0013 -0.0037
 3149POSM   C3A36947   0.604  20.747  12.383  0.0903  0.2661  0.1040
 3149POSM   C1B36948   0.871  19.454  11.841  0.0316 -0.3581  0.1063
 3149POSM   D2B36949   0.799  19.235  12.242 -0.0098 -0.0830 -0.2627
 3149POSM   C3B36950   0.772  19.217  12.663 -0.0503  0.0898  0.2462
 3149POSM   C4B36951   0.698  18.962  13.076  0.1403 -0.1556 -0.2108
 3150DOPS   CNO36952  33.019  14.580  11.363  0.0360 -0.5534 -0.2047
 3150DOPS   PO436953  32.818  14.449  11.642 -0.1231  0.1757 -0.1847
 3150DOPS   GL136954  32.512  14.565  11.930  0.1305  0.0769 -0.0333
 3150DOPS   GL236955  32.750  14.778  12.059 -0.4072  0.1429  0.1664
 3150DOPS   C1A36956  32.366  14.382  12.327 -0.0778  0.1287 -0.0785
 3150DOPS   D2A36957  32.181  14.192  12.763  0.0333 -0.0035 -0.3092
 3150DOPS   C3A36958  31.996  13.842  12.661  0.0477 -0.0090 -0.1338
 3150DOPS   C4A36959  31.873  13.423  12.438  0.0562  0.1555  0.1222
 3150DOPS   C1B36960  32.515  14.916  12.442 -0.1138 -0.0749  0.1497
 3150DOPS   D2B36961  32.379  15.199  12.723  0.0690 -0.0703 -0.2463
 3150DOPS   C3B36962  32.209  15.120  13.147  0.2671 -0.1183 -0.4999
 3150DOPS   C4B36963  32.134  14.850  13.450 -0.0484  0.2811  0.0014
 3151DOPC   NC336964  27.425  16.239  10.683 -0.2990 -0.0980  0.0820
 3151DOPC   PO436965  27.607  15.895  10.688 -0.2726  0.1861 -0.2043
 3151DOPC   GL136966  27.718  15.664  11.007  0.0147 -0.0060  0.0410
 3151DOPC   GL236967  27.453  15.696  11.164 -0.1341  0.0527 -0.2086
 3151DOPC   C1A36968  27.827  15.578  11.468 -0.1702  0.0332  0.2503
 3151DOPC   D2A36969  27.859  15.573  11.944 -0.1261 -0.2484 -0.0610
 3151DOPC   C3A36970  28.338  15.591  11.967 -0.1514 -0.0398  0.0183
 3151DOPC   C4A36971  28.733  15.674  12.230  0.0308  0.1873 -0.0285
 3151DOPC   C1B36972  27.437  15.853  11.617  0.0164 -0.1268 -0.1222
 3151DOPC   D2B36973  27.401  15.913  12.096  0.3588  0.1830  0.0445
 3151DOPC   C3B36974  27.432  15.548  12.345  0.2664 -0.2330 -0.0141
 3151DOPC   C4B36975  27.308  15.447  12.807  0.1924 -0.2196  0.2123
 3152DOPS   CNO36976  22.959  22.320   9.201  0.0767  0.2492  0.2442
 3152DOPS   PO436977  23.241  22.412   9.414  0.1039  0.0898  0.0815
 3152DOPS   GL136978  23.113  22.511   9.789 -0.3049 -0.1041  0.3407
 3152DOPS   GL236979  23.044  22.190   9.867  0.0688 -0.0775 -0.2015
 3152DOPS   C1A36980  23.146  22.544  10.243 -0.0105  0.1500 -0.1269
 3152DOPS   D2A36981  23.465  22.788  10.375  0.1915  0.0192  0.3145
 3152DOPS   C3A36982  23.538  22.440  10.677  0.1754 -0.5699  0.0700
 3152DOPS   C4A36983  23.143  22.296  10.863  0.2294  0.0364 -0.0198
 3152DOPS   C1B36984  23.046  21.775  10.050  0.3887 -0.1897  0.0095
 3152DOPS   D2B36985  23.154  21.506  10.415 -0.0220  0.0686 -0.1320
 3152DOPS   C3B36986  23.095  21.769  10.844 -0.0091 -0.0602  0.0933
 3152DOPS   C4B36987  23.174  21.940  11.292 -0.1826  0.1445  0.1187
 3153DOPE   NH336988  30.978  18.119  10.801 -0.2174 -0.0515  0.3250
 3153DOPE   PO436989  30.758  18.320  10.802 -0.0678 -0.0379  0.1969
 3153DOPE   GL136990  30.632  18.472  11.224  0.1538  0.0035  0.2865
 3153DOPE   GL236991  30.515  18.737  11.235 -0.1103  0.0269 -0.0350
 3153DOPE   C1A36992  30.643  18.277  11.654  0.0767  0.0005  0.2126
 3153DOPE   D2A36993  30.669  18.146  12.073 -0.1392 -0.0460  0.0661
 3153DOPE   C3A36994  30.430  18.272  12.433 -0.0773  0.1145 -0.1427
 3153DOPE   C4A36995  30.269  18.283  12.934  0.0858  0.1001 -0.0499
 3153DOPE   C1B36996  30.703  19.170  11.363  0.1229 -0.2142 -0.0997
 3153DOPE   D2B36997  30.786  19.415  11.721  0.0814 -0.3468 -0.1510
 3153DOPE   C3B36998  30.498  19.470  12.049  0.0241  0.0446  0.0821
 3153DOPE   C4B36999  30.331  19.601  12.484 -0.0137 -0.4852  0.2835
 3154DOPE   NH337000  33.816  16.070  11.596 -0.2531 -0.1561 -0.0728
 3154DOPE   PO437001  33.640  15.812  11.575 -0.0275  0.4304  0.3582
 3154DOPE   GL137002  33.628  15.742  11.973  0.0795 -0.1146  0.1809
 3154DOPE   GL237003  33.418  15.931  11.980  0.2907 -0.0585  0.4292
 3154DOPE   C1A37004  33.786  15.604  12.367 -0.0063 -0.2689 -0.0325
 3154DOPE   D2A37005  33.622  15.506  12.844 -0.1048 -0.1742  0.0079
 3154DOPE   C3A37006  33.247  15.391  12.900 -0.3217 -0.0991 -0.0768
 3154DOPE   C4A37007  32.883  15.157  12.795  0.0921 -0.1674 -0.0255
 3154DOPE   C1B37008  33.244  16.197  12.328 -0.0855 -0.0207  0.4018
 3154DOPE   D2B37009  33.200  16.352  12.758 -0.0986 -0.0198 -0.3066
 3154DOPE   C3B37010  33.539  16.389  13.119 -0.0213  0.2682 -0.2410
 3154DOPE   C4B37011  33.851  16.259  13.421  0.0566  0.0890 -0.0726
 3155DOPE   NH337012  33.488  15.376  11.725 -0.3136 -0.0958 -0.1729
 3155DOPE   PO437013  33.188  15.309  11.688 -0.2416  0.0534  0.1337
 3155DOPE   GL137014  33.177  15.424  12.117 -0.0469  0.0837  0.2752
 3155DOPE   GL237015  33.344  15.335  12.402  0.0510 -0.0467  0.0062
 3155DOPE   C1A37016  32.865  15.490  12.448 -0.3442 -0.1445 -0.4231
 3155DOPE   D2A37017  32.811  15.683  12.870 -0.3023  0.0943 -0.0875
 3155DOPE   C3A37018  32.527  15.564  13.263  0.0124  0.1884  0.0784
 3155DOPE   C4A37019  32.424  15.254  13.619 -0.0455 -0.2565 -0.1255
 3155DOPE   C1B37020  33.289  15.766  12.607 -0.2040 -0.1151  0.1026
 3155DOPE   D2B37021  33.402  15.907  13.048 -0.0283  0.2103 -0.0005
 3155DOPE   C3B37022  33.003  15.870  13.267 -0.2314  0.2669  0.3086
 3155DOPE   C4B37023  32.713  15.813  13.626 -0.0481 -0.0538  0.2720
 3156DOPC   NC337024  29.719  15.208  11.056  0.2397  0.0894  0.1139
 3156DOPC   PO437025  30.059  14.992  10.968  0.1871 -0.2465  0.0820
 3156DOPC   GL137026  30.060  15.094  11.350 -0.5378  0.1040  0.1584
 3156DOPC   GL237027  29.870  14.825  11.384 -0.1858 -0.0063 -0.2218
 3156DOPC   C1A37028  29.848  15.141  11.758 -0.3671  0.0748 -0.0640
 3156DOPC   D2A37029  29.533  15.149  12.052 -0.0935 -0.0596  0.2563
 3156DOPC   C3A37030  29.370  14.967  12.506  0.1205 -0.0323  0.1318
 3156DOPC   C4A37031  29.023  14.635  12.630 -0.1954  0.1669 -0.0326
 3156DOPC   C1B37032  29.474  14.999  11.534  0.1217 -0.0807 -0.2193
 3156DOPC   D2B37033  29.111  15.095  11.785 -0.0746 -0.0243  0.1149
 3156DOPC   C3B37034  29.073  15.279  12.184 -0.2609  0.0301 -0.0351
 3156DOPC   C4B37035  29.155  15.515  12.619 -0.1208 -0.2632  0.0710
 3157DOPS   CNO37036   0.760  19.033  10.704 -0.0249 -0.3633 -0.3317
 3157DOPS   PO437037   0.419  19.131  10.800 -0.2160 -0.1164  0.1132
 3157DOPS   GL137038   0.365  19.136  11.259 -0.3581  0.3423 -0.0687
 3157DOPS   GL237039   0.330  19.399  11.368 -0.1417  0.5569 -0.1838
 3157DOPS   C1A37040   0.155  18.952  11.680  0.4678 -0.0618  0.4477
 3157DOPS   D2A37041   0.237  18.912  12.103 -0.1941  0.2659  0.3146
 3157DOPS   C3A37042   0.266  19.037  12.522  0.0991  0.1013 -0.2143
 3157DOPS   C4A37043   0.274  19.356  12.912  0.0436  0.1970  0.3857
 3157DOPS   C1B37044   0.396  19.783  11.623 -0.3766 -0.1831 -0.2940
 3157DOPS   D2B37045   0.414  19.856  12.081 -0.0312 -0.2278 -0.0780
 3157DOPS   C3B37046   0.537  19.607  12.425 -0.1332  0.0880  0.0806
 3157DOPS   C4B37047   0.720  19.758  12.828  0.0872 -0.0905  0.4070
 3158DOPS   CNO37048  31.585  20.964  10.458  0.1702 -0.1109 -0.1153
 3158DOPS   PO437049  31.323  20.693  10.508 -0.0908  0.2655  0.1510
 3158DOPS   GL137050  31.456  20.709  10.886 -0.1173 -0.2140  0.0684
 3158DOPS   GL237051  31.686  20.887  10.920  0.3676  0.1680 -0.0064
 3158DOPS   C1A37052  31.148  20.591  11.232 -0.1290  0.1054 -0.2508
 3158DOPS   D2A37053  30.985  20.467  11.631  0.0478  0.4123 -0.2380
 3158DOPS   C3A37054  30.997  20.352  12.048 -0.0340 -0.0184 -0.0380
 3158DOPS   C4A37055  31.186  19.979  12.346 -0.2246  0.1063 -0.0693
 3158DOPS   C1B37056  31.441  20.999  11.221 -0.2097  0.1031  0.1020
 3158DOPS   D2B37057  31.247  21.376  11.434  0.1825  0.1599 -0.1742
 3158DOPS   C3B37058  31.278  21.201  11.838  0.1298  0.0657  0.0519
 3158DOPS   C4B37059  31.255  20.827  12.110  0.1900 -0.0165 -0.1059
 3159DOPC   NC337060  31.480  17.498  11.350  0.1883 -0.1031 -0.2308
 3159DOPC   PO437061  31.836  17.412  11.342 -0.0919  0.0706  0.0032
 3159DOPC   GL137062  31.691  17.356  11.801 -0.3213  0.4390 -0.1432
 3159DOPC   GL237063  31.457  17.564  11.813  0.1262 -0.1519  0.1201
 3159DOPC   C1A37064  31.729  17.369  12.306 -0.2417 -0.0715  0.0506
 3159DOPC   D2A37065  31.729  17.020  12.673 -0.1714  0.0321  0.0493
 3159DOPC   C3A37066  32.079  16.766  12.532 -0.2380  0.0926  0.3501
 3159DOPC   C4A37067  32.375  16.359  12.613 -0.0457 -0.1840 -0.4009
 3159DOPC   C1B37068  31.842  17.741  11.998  0.0573  0.0470 -0.0869
 3159DOPC   D2B37069  32.277  17.987  12.065  0.2603 -0.0344  0.1985
 3159DOPC   C3B37070  32.238  18.397  12.205 -0.1713 -0.3418 -0.1493
 3159DOPC   C4B37071  32.069  18.813  12.357  0.0537  0.0278 -0.1473
 3160DOPS   CNO37072  24.956  19.735   9.555 -0.0307 -0.1956  0.1746
 3160DOPS   PO437073  24.896  19.339   9.483 -0.0665 -0.1629 -0.1970
 3160DOPS   GL137074  24.667  19.435   9.791  0.0954 -0.4198  0.5225
 3160DOPS   GL237075  24.800  19.370  10.099 -0.4981 -0.2835  0.0823
 3160DOPS   C1A37076  24.708  19.824  10.068 -0.1780 -0.2852 -0.0363
 3160DOPS   D2A37077  24.825  19.864  10.537  0.1022 -0.3043 -0.1846
 3160DOPS   C3A37078  24.503  19.842  10.856 -0.0311  0.2222 -0.3462
 3160DOPS   C4A37079  24.202  20.040  11.181  0.3596 -0.0554 -0.2381
 3160DOPS   C1B37080  24.503  19.077  10.404  0.0540 -0.0460  0.1652
 3160DOPS   D2B37081  24.254  18.687  10.499 -0.2304 -0.3664 -0.0680
 3160DOPS   C3B37082  24.546  18.339  10.735 -0.2995 -0.1526  0.1373
 3160DOPS   C4B37083  25.019  18.273  10.731 -0.0096 -0.1569  0.0703
 3161DOPS   CNO37084  27.809  17.354  10.600  0.0591 -0.0768 -0.0695
 3161DOPS   PO437085  27.580  17.086  10.504  0.0905 -0.1231  0.0191
 3161DOPS   GL137086  27.472  17.103  10.936  0.1027  0.0121  0.3748
 3161DOPS   GL237087  27.721  17.283  11.097 -0.0075 -0.0708  0.4212
 3161DOPS   C1A37088  27.023  17.157  11.074 -0.0627 -0.0844  0.0748
 3161DOPS   D2A37089  26.807  17.389  11.379  0.1759 -0.0600  0.1093
 3161DOPS   C3A37090  26.994  17.490  11.812 -0.1083 -0.1441 -0.1521
 3161DOPS   C4A37091  27.151  17.565  12.251 -0.1636 -0.1359  0.0601
 3161DOPS   C1B37092  27.880  17.335  11.527  0.1617  0.0496  0.1127
 3161DOPS   D2B37093  28.004  17.082  11.861 -0.1395 -0.1293 -0.2844
 3161DOPS   C3B37094  27.859  17.214  12.296  0.3181  0.1497  0.2035
 3161DOPS   C4B37095  27.890  17.055  12.753 -0.2230 -0.0080 -0.2075
 3162DOPC   NC337096  26.851  21.285   9.959 -0.0270  0.2222 -0.2153
 3162DOPC   PO437097  26.694  21.628   9.887  0.3676 -0.1795  0.2093
 3162DOPC   GL137098  26.637  21.569  10.286  0.3404 -0.2533 -0.0204
 3162DOPC   GL237099  26.356  21.688  10.271 -0.1392  0.0851  0.0779
 3162DOPC   C1A37100  26.537  21.765  10.730  0.1147  0.1346  0.1012
 3162DOPC   D2A37101  26.639  21.920  11.190 -0.1954 -0.2436  0.1882
 3162DOPC   C3A37102  26.651  21.771  11.625  0.1979 -0.2468 -0.0993
 3162DOPC   C4A37103  26.780  21.535  11.913  0.0251 -0.1623  0.1492
 3162DOPC   C1B37104  26.061  21.617  10.612 -0.0185 -0.0292 -0.0594
 3162DOPC   D2B37105  25.997  21.243  10.794  0.4539 -0.1123 -0.3251
 3162DOPC   C3B37106  26.074  21.181  11.259  0.0051 -0.1844 -0.1326
 3162DOPC   C4B37107  26.311  21.140  11.681 -0.0749 -0.3469 -0.1025
 3163DOPE   NH337108   0.318  12.096  11.549  0.0250 -0.0642  0.1403
 3163DOPE   PO437109   0.058  12.000  11.725  0.2363 -0.3336  0.0991
 3163DOPE   GL137110   0.062  11.832  12.166 -0.0863 -0.3057  0.0805
 3163DOPE   GL237111   0.357  11.728  12.272  0.0795 -0.1882 -0.0673
 3163DOPE   C1A37112  -0.050  12.005  12.584 -0.2211  0.1622  0.0348
 3163DOPE   D2A37113  -0.483  12.020  12.690  0.0892 -0.0137  0.1619
 3163DOPE   C3A37114  -0.730  12.322  12.946  0.1202 -0.1954 -0.1936
 3163DOPE   C4A37115  -1.127  12.591  13.047  0.1051  0.3048 -0.0238
 3163DOPE   C1B37116   0.520  11.595  12.668 -0.4272 -0.0464 -0.1869
 3163DOPE   D2B37117   0.485  11.235  12.944  0.3112  0.0578 -0.0033
 3163DOPE   C3B37118   0.314  11.389  13.379  0.1346  0.2028 -0.4189
 3163DOPE   C4B37119  -0.094  11.217  13.502 -0.1607 -0.1321  0.1417
 3164DOPE   NH337120  24.981  24.125   9.458  0.1159  0.2022  0.3195
 3164DOPE   PO437121  24.779  24.202   9.662 -0.1327 -0.2057  0.0600
 3164DOPE   GL137122  24.823  24.283  10.038  0.0734  0.0864 -0.3160
 3164DOPE   GL237123  24.802  24.484  10.263 -0.2383 -0.2043  0.0507
 3164DOPE   C1A37124  25.096  24.117  10.391  0.1929 -0.1993  0.0018
 3164DOPE   D2A37125  25.165  24.091  10.851  0.5105  0.2929  0.0298
 3164DOPE   C3A37126  24.948  23.761  11.063  0.2605 -0.2025 -0.2770
 3164DOPE   C4A37127  24.764  23.484  11.374 -0.0099 -0.2821  0.1117
 3164DOPE   C1B37128  25.208  24.597  10.348  0.2076  0.1730 -0.1311
 3164DOPE   D2B37129  25.465  24.559  10.709 -0.0429  0.1953 -0.0818
 3164DOPE   C3B37130  25.164  24.550  11.081  0.1132 -0.0928  0.0213
 3164DOPE   C4B37131  25.183  24.717  11.547  0.0375  0.1365  0.1934
 3165POSM   NC337132  26.856  15.375  10.903  0.0419 -0.2428  0.0860
 3165POSM   PO437133  26.962  15.067  10.656 -0.1433  0.0763  0.2748
 3165POSM   AM137134  27.010  14.866  10.908  0.0436 -0.1270 -0.2453
 3165POSM   AM237135  27.219  14.707  11.029 -0.2764 -0.1994  0.1691
 3165POSM   T1A37136  26.743  14.529  11.178  0.0176  0.1627  0.1330
 3165POSM   C2A37137  26.690  14.464  11.638  0.0780  0.4324  0.1236
 3165POSM   C3A37138  26.941  14.519  12.030 -0.3125 -0.3421 -0.3122
 3165POSM   C1B37139  27.353  14.825  11.305 -0.0500 -0.1193 -0.2071
 3165POSM   D2B37140  27.418  14.859  11.751 -0.0976 -0.2224 -0.1922
 3165POSM   C3B37141  27.174  15.031  12.086  0.0753 -0.2649  0.0699
 3165POSM   C4B37142  26.896  14.913  12.442  0.2248  0.1640 -0.3325
 3166DOPS   CNO37143  33.035  22.285  10.135 -0.1375  0.3378  0.0115
 3166DOPS   PO437144  33.344  22.457  10.037 -0.2368 -0.1427  0.0533
 3166DOPS   GL137145  33.385  22.457  10.461  0.0660 -0.2389 -0.1207
 3166DOPS   GL237146  33.109  22.608  10.562  0.0881 -0.2496 -0.3688
 3166DOPS   C1A37147  33.433  22.350  10.896  0.3318  0.0173  0.3103
 3166DOPS   D2A37148  33.369  22.559  11.347  0.2998  0.2129 -0.1124
 3166DOPS   C3A37149  33.344  22.524  11.819 -0.2393 -0.2124  0.1509
 3166DOPS   C4A37150  33.692  22.402  12.091 -0.1848 -0.0092 -0.1962
 3166DOPS   C1B37151  32.834  22.938  10.795  0.0007 -0.2501 -0.1379
 3166DOPS   D2B37152  32.606  22.938  11.151  0.0341 -0.0750  0.0010
 3166DOPS   C3B37153  32.797  23.048  11.545  0.0866  0.1108 -0.0637
 3166DOPS   C4B37154  32.977  23.209  11.908  0.1774 -0.0085  0.3144
 3167DOPC   NC337155  31.988  11.517  11.481 -0.0576  0.0505 -0.1466
 3167DOPC   PO437156  31.636  11.365  11.385 -0.1952  0.2760 -0.2024
 3167DOPC   GL137157  31.551  11.241  11.721  0.0755 -0.1296  0.5324
 3167DOPC   GL237158  31.430  11.424  11.854  0.1044  0.3192  0.2743
 3167DOPC   C1A37159  31.489  11.047  12.154 -0.1366  0.2568  0.0543
 3167DOPC   D2A37160  31.211  11.249  12.447  0.1755  0.0165  0.1776
 3167DOPC   C3A37161  31.149  11.667  12.616  0.1157 -0.0980 -0.0098
 3167DOPC   C4A37162  31.204  12.101  12.608 -0.2967  0.1732  0.0221
 3167DOPC   C1B37163  31.457  11.746  12.194  0.0198  0.0334 -0.2080
 3167DOPC   D2B37164  31.677  12.063  12.370  0.1552  0.2302 -0.0641
 3167DOPC   C3B37165  31.656  11.915  12.843  0.5479 -0.2496 -0.0004
 3167DOPC   C4B37166  31.375  11.776  13.206 -0.1909 -0.1733 -0.0075
 3168DOPE   NH337167  24.507  19.665   9.264  0.2558  0.1206 -0.4151
 3168DOPE   PO437168  24.258  19.647   9.423  0.0869  0.3219 -0.3351
 3168DOPE   GL137169  24.318  19.686   9.803  0.3453 -0.0684 -0.3436
 3168DOPE   GL237170  24.253  19.446  10.061 -0.2679  0.3309  0.1040
 3168DOPE   C1A37171  24.263  20.007  10.122  0.2867 -0.0094 -0.0526
 3168DOPE   D2A37172  24.346  20.375  10.349  0.0701  0.2428  0.1850
 3168DOPE   C3A37173  24.118  20.684  10.614 -0.1127 -0.0230  0.1179
 3168DOPE   C4A37174  24.246  21.033  10.876  0.1447 -0.0407  0.2445
 3168DOPE   C1B37175  24.307  19.593  10.461  0.1673  0.3425 -0.0247
 3168DOPE   D2B37176  24.022  19.905  10.680  0.0804 -0.0493  0.2189
 3168DOPE   C3B37177  23.771  19.882  11.035 -0.2122  0.0914 -0.0032
 3168DOPE   C4B37178  23.794  20.083  11.425 -0.2190 -0.2177  0.1091
 3169DOPS   CNO37179  30.813  14.375  10.979  0.1300 -0.1327 -0.0500
 3169DOPS   PO437180  30.661  14.089  11.165 -0.3110 -0.0510  0.0852
 3169DOPS   GL137181  30.583  13.729  11.267  0.0023 -0.4603 -0.2806
 3169DOPS   GL237182  30.371  13.834  11.469  0.2480 -0.3127 -0.1293
 3169DOPS   C1A37183  30.634  13.486  11.708  0.0129 -0.0546  0.1507
 3169DOPS   D2A37184  30.436  13.547  12.128  0.1064 -0.0592  0.0191
 3169DOPS   C3A37185  30.324  13.170  12.452 -0.0613  0.1028 -0.2655
 3169DOPS   C4A37186  30.359  12.744  12.563 -0.2386 -0.2383 -0.2494
 3169DOPS   C1B37187  30.074  13.789  11.870 -0.2599 -0.0630 -0.0211
 3169DOPS   D2B37188  29.676  13.966  12.082 -0.3205  0.0659 -0.3071
 3169DOPS   C3B37189  29.748  13.963  12.547  0.1065  0.1752 -0.3625
 3169DOPS   C4B37190  29.873  13.719  12.875 -0.0733  0.1491  0.0244
 3170DOPS   CNO37191  34.002  19.743  10.509  0.2647 -0.0240  0.1781
 3170DOPS   PO437192  34.143  19.959  10.234  0.0477  0.1278 -0.4774
 3170DOPS   GL137193  33.897  20.250  10.415 -0.1161  0.2822  0.0248
 3170DOPS   GL237194  34.021  20.336  10.661 -0.0303 -0.0331 -0.1485
 3170DOPS   C1A37195  33.563  20.563  10.617 -0.3099 -0.0462 -0.2326
 3170DOPS   D2A37196  33.159  20.690  10.805 -0.2216  0.1118  0.2603
 3170DOPS   C3A37197  33.099  21.006  11.130 -0.0310  0.0286 -0.3545
 3170DOPS   C4A37198  33.032  20.902  11.569 -0.1798 -0.1627 -0.0730
 3170DOPS   C1B37199  33.964  20.439  11.107  0.0939 -0.2826 -0.2636
 3170DOPS   D2B37200  33.800  20.318  11.483  0.0443  0.1094  0.1415
 3170DOPS   C3B37201  33.846  19.956  11.637 -0.0503 -0.1864  0.1849
 3170DOPS   C4B37202  33.846  19.867  12.137  0.2379  0.0951  0.0014
 3171DOPE   NH337203  25.932  23.393   9.873 -0.1875  0.2951 -0.3087
 3171DOPE   PO437204  25.579  23.325   9.914 -0.2178  0.2446  0.1401
 3171DOPE   GL137205  25.443  23.148  10.254  0.0861 -0.2171  0.2107
 3171DOPE   GL237206  25.652  23.271  10.458 -0.1945  0.2517 -0.2234
 3171DOPE   C1A37207  25.040  23.183  10.498  0.0977  0.1548  0.0446
 3171DOPE   D2A37208  24.924  23.260  10.910  0.0075  0.0350  0.0698
 3171DOPE   C3A37209  25.109  23.136  11.335  0.3263 -0.0222 -0.0549
 3171DOPE   C4A37210  25.114  22.889  11.719 -0.1878  0.1457 -0.2498
 3171DOPE   C1B37211  26.057  23.269  10.728 -0.2428  0.1365  0.3723
 3171DOPE   D2B37212  26.445  23.311  10.958 -0.2148  0.2208 -0.0469
 3171DOPE   C3B37213  26.407  23.723  11.130  0.0703 -0.0933 -0.1363
 3171DOPE   C4B37214  26.461  24.109  11.287 -0.1285 -0.5380  0.0087
 3172DOPE   NH337215  28.085  19.407  10.528 -0.2276  0.1989 -0.1081
 3172DOPE   PO437216  27.895  19.424  10.268 -0.0953 -0.2106  0.3143
 3172DOPE   GL137217  27.569  19.465  10.415  0.1790  0.1582  0.0668
 3172DOPE   GL237218  27.411  19.287  10.569  0.2100  0.1651  0.2011
 3172DOPE   C1A37219  27.267  19.786  10.627  0.2120  0.0002  0.2649
 3172DOPE   D2A37220  27.050  19.923  11.001  0.3388  0.0742 -0.0800
 3172DOPE   C3A37221  26.831  19.632  11.254  0.1078 -0.1541  0.2171
 3172DOPE   C4A37222  26.776  19.289  11.494  0.2247 -0.1958 -0.0553
 3172DOPE   C1B37223  27.221  19.407  10.970 -0.1316  0.3769  0.0227
 3172DOPE   D2B37224  27.283  19.495  11.416  0.0730  0.2326  0.0426
 3172DOPE   C3B37225  27.334  19.913  11.470  0.0218 -0.1960 -0.1971
 3172DOPE   C4B37226  27.243  20.295  11.600 -0.0707  0.2018  0.2667
 3173POSM   NC337227  34.511  11.591  11.305 -0.2389 -0.2179 -0.0649
 3173POSM   PO437228  34.661  11.320  11.553  0.1807 -0.1447  0.2127
 3173POSM   AM137229  34.620  11.530  11.815 -0.0946 -0.0346 -0.1254
 3173POSM   AM237230  34.448  11.735  11.892 -0.2247  0.3880  0.0539
 3173POSM   T1A37231  34.575  11.526  12.303 -0.2693  0.1382 -0.1267
 3173POSM   C2A37232  34.825  11.497  12.664  0.1149  0.0402  0.0375
 3173POSM   C3A37233  34.959  11.766  13.024 -0.0339  0.1207 -0.3701
 3173POSM   C1B37234  34.238  11.862  12.167  0.1387  0.1560  0.0856
 3173POSM   D2B37235  33.909  11.864  12.426  0.3404  0.1387  0.0390
 3173POSM   C3B37236  33.817  11.708  12.855 -0.0228  0.0416 -0.0746
 3173POSM   C4B37237  33.685  11.587  13.225 -0.1698  0.0843  0.2066
 3174DOPC   NC337238  31.895  14.350  11.319  0.1015 -0.1448 -0.4592
 3174DOPC   PO437239  31.586  14.112  11.151 -0.1739 -0.0546 -0.0773
 3174DOPC   GL137240  31.503  14.056  11.497  0.1302 -0.1975 -0.0739
 3174DOPC   GL237241  31.757  13.965  11.678 -0.0423 -0.1268  0.0722
 3174DOPC   C1A37242  31.579  14.404  11.804 -0.0996 -0.3967 -0.1273
 3174DOPC   D2A37243  31.333  14.783  11.758  0.1928  0.1012  0.1941
 3174DOPC   C3A37244  31.247  15.178  11.965  0.1256  0.2720  0.0666
 3174DOPC   C4A37245  31.553  15.497  12.131 -0.0282  0.0169  0.0362
 3174DOPC   C1B37246  31.470  13.978  12.047 -0.0057  0.0226  0.2919
 3174DOPC   D2B37247  31.496  13.921  12.509 -0.1298 -0.1394 -0.0662
 3174DOPC   C3B37248  31.277  14.245  12.783  0.1544 -0.1212  0.1404
 3174DOPC   C4B37249  31.314  14.425  13.210  0.2346  0.3167 -0.1353
 3175DOPC   NC337250  27.970  16.933  10.792 -0.0095  0.1083 -0.1687
 3175DOPC   PO437251  27.719  16.632  10.736 -0.1825 -0.1418 -0.0190
 3175DOPC   GL137252  27.615  16.474  11.116 -0.1257 -0.0215 -0.1110
 3175DOPC   GL237253  27.419  16.678  11.152 -0.1858 -0.0545  0.2030
 3175DOPC   C1A37254  27.366  16.358  11.556 -0.2911 -0.0861  0.0032
 3175DOPC   D2A37255  27.058  16.254  11.877 -0.1999 -0.2290 -0.2244
 3175DOPC   C3A37256  26.785  16.585  12.003  0.4514 -0.2636 -0.0787
 3175DOPC   C4A37257  26.631  16.795  12.374  0.0613 -0.1498  0.0367
 3175DOPC   C1B37258  27.422  17.064  11.405 -0.2214 -0.1764 -0.0329
 3175DOPC   D2B37259  27.497  17.229  11.849 -0.2453  0.1441  0.1062
 3175DOPC   C3B37260  27.432  17.655  11.769 -0.3443  0.4272 -0.2288
 3175DOPC   C4B37261  27.555  18.088  11.716 -0.0323 -0.0640 -0.0152
 3176DOPE   NH337262  30.424  24.679   9.906 -0.1982  0.2602 -0.0821
 3176DOPE   PO437263  30.226  24.925   9.942 -0.0049 -0.1290  0.1430
 3176DOPE   GL137264  30.232  25.026  10.247 -0.0133  0.1170  0.0461
 3176DOPE   GL237265  30.253  25.333  10.300  0.0333 -0.2620  0.1056
 3176DOPE   C1A37266  30.512  25.044  10.623 -0.3750 -0.0545 -0.1222
 3176DOPE   D2A37267  30.812  24.812  10.879  0.1462 -0.1388  0.0768
 3176DOPE   C3A37268  31.248  24.821  11.016  0.0706 -0.3009 -0.1975
 3176DOPE   C4A37269  31.636  24.758  11.184  0.0735  0.0442  0.0893
 3176DOPE   C1B37270  30.309  25.493  10.760 -0.0588 -0.6145  0.0690
 3176DOPE   D2B37271  30.171  25.381  11.131  0.0817 -0.1341  0.0949
 3176DOPE   C3B37272  29.899  25.015  11.110 -0.2812  0.0318 -0.0482
 3176DOPE   C4B37273  29.887  24.570  11.172  0.1800 -0.1040 -0.2627
 3177POSM   NC337274  32.389  23.740  10.059  0.2065  0.0844 -0.0341
 3177POSM   PO437275  32.240  23.359  10.170 -0.1435  0.0690 -0.0262
 3177POSM   AM137276  32.132  23.289  10.510 -0.2145  0.3832 -0.7270
 3177POSM   AM237277  32.036  23.467  10.730 -0.2774 -0.0897 -0.2161
 3177POSM   T1A37278  32.163  23.013  10.923  0.1144  0.0164  0.0537
 3177POSM   C2A37279  31.876  23.036  11.311 -0.3304  0.0696  0.0133
 3177POSM   C3A37280  31.534  23.084  11.642 -0.0782  0.0396  0.2197
 3177POSM   C1B37281  32.140  23.488  11.054 -0.0972  0.0545  0.0227
 3177POSM   D2B37282  32.394  23.326  11.461 -0.0546  0.1441 -0.1132
 3177POSM   C3B37283  32.053  23.102  11.738  0.1848 -0.5561  0.0256
 3177POSM   C4B37284  32.024  22.836  12.052  0.2201 -0.0039  0.2420
 3178DOPE   NH337285  28.895  17.183  10.448  0.2469  0.0051 -0.2042
 3178DOPE   PO437286  28.805  17.328  10.769  0.0923  0.2495 -0.2445
 3178DOPE   GL137287  28.644  17.391  11.111  0.2512 -0.1013 -0.0108
 3178DOPE   GL237288  28.668  17.740  11.123  0.1939  0.0884 -0.2161
 3178DOPE   C1A37289  28.855  17.419  11.548  0.2225  0.0633 -0.0765
 3178DOPE   D2A37290  28.865  17.647  12.002  0.2078 -0.1055  0.1680
 3178DOPE   C3A37291  28.924  18.017  11.821  0.0414 -0.0563  0.0266
 3178DOPE   C4A37292  28.952  18.358  11.469 -0.4245 -0.2032  0.2727
 3178DOPE   C1B37293  29.108  17.864  11.346 -0.2187  0.5481 -0.1229
 3178DOPE   D2B37294  29.299  17.663  11.731  0.1198  0.1669  0.2535
 3178DOPE   C3B37295  29.617  17.284  11.637 -0.0010 -0.0446  0.1972
 3178DOPE   C4B37296  29.829  16.938  11.793  0.1039 -0.0446 -0.4225
 3179DOPC   NC337297  30.520  17.434  10.468 -0.3435  0.2932  0.2043
 3179DOPC   PO437298  30.861  17.682  10.562 -0.0582  0.1857  0.3584
 3179DOPC   GL137299  30.742  17.705  10.905  0.2590  0.0068 -0.0757
 3179DOPC   GL237300  30.686  17.387  10.927  0.0144  0.2738 -0.3543
 3179DOPC   C1A37301  30.438  17.623  11.310 -0.2823 -0.3609 -0.0548
 3179DOPC   D2A37302  30.400  17.880  11.737  0.3387 -0.2011  0.0199
 3179DOPC   C3A37303  30.396  17.790  12.180 -0.1346  0.1537 -0.0431
 3179DOPC   C4A37304  30.378  17.832  12.647 -0.0194 -0.1114  0.2052
 3179DOPC   C1B37305  30.455  17.143  11.233  0.1005  0.3493  0.4360
 3179DOPC   D2B37306  30.779  16.821  11.363 -0.2481  0.2195 -0.0124
 3179DOPC   C3B37307  30.712  16.643  11.784  0.0673  0.0010  0.0177
 3179DOPC   C4B37308  30.416  16.454  12.013 -0.0458  0.0472  0.2288
 3180DOPS   CNO37309  22.675  16.085   9.283  0.1435  0.0145  0.1307
 3180DOPS   PO437310  22.784  15.972   9.631  0.0419 -0.1287  0.0449
 3180DOPS   GL137311  22.624  15.945  10.045 -0.1359  0.0616 -0.2395
 3180DOPS   GL237312  22.806  16.052  10.220 -0.0863 -0.0015 -0.4561
 3180DOPS   C1A37313  22.404  15.893  10.491  0.2165 -0.0724 -0.1350
 3180DOPS   D2A37314  22.292  16.079  10.926  0.1779  0.0189  0.4260
 3180DOPS   C3A37315  21.965  16.385  10.926 -0.0051  0.1688 -0.0811
 3180DOPS   C4A37316  21.743  16.691  11.142 -0.2160 -0.2354  0.1508
 3180DOPS   C1B37317  23.148  16.037  10.463 -0.0105 -0.0814 -0.1357
 3180DOPS   D2B37318  23.607  16.078  10.548 -0.1342 -0.0753 -0.3862
 3180DOPS   C3B37319  23.616  15.831  10.952  0.1484 -0.0828 -0.0516
 3180DOPS   C4B37320  23.669  15.828  11.405  0.0043 -0.2373  0.0057
 3181DOPE   NH337321  29.594  23.377   9.915  0.1391  0.3146  0.2651
 3181DOPE   PO437322  29.884  23.330  10.058 -0.0253  0.2055 -0.1241
 3181DOPE   GL137323  29.730  23.633  10.263  0.1093  0.0455  0.1872
 3181DOPE   GL237324  29.543  23.414  10.410  0.2998  0.1177  0.1148
 3181DOPE   C1A37325  29.837  23.804  10.648  0.0073  0.1203  0.0479
 3181DOPE   D2A37326  29.952  23.770  11.103  0.2555 -0.0243  0.1391
 3181DOPE   C3A37327  29.870  23.775  11.578 -0.0364  0.1111 -0.0197
 3181DOPE   C4A37328  29.534  23.836  11.928 -0.2164  0.0145 -0.4624
 3181DOPE   C1B37329  29.621  23.136  10.773  0.0943  0.0669 -0.1270
 3181DOPE   D2B37330  29.831  22.840  11.046  0.0116  0.2103 -0.1178
 3181DOPE   C3B37331  29.515  22.507  11.156 -0.0879  0.0513  0.0784
 3181DOPE   C4B37332  29.169  22.595  11.430 -0.1654 -0.4509 -0.1493
 3182DOPE   NH337333  25.428  15.090   9.817 -0.0079 -0.2551 -0.0541
 3182DOPE   PO437334  25.370  14.806   9.944  0.2607 -0.3056  0.0002
 3182DOPE   GL137335  25.105  14.584  10.162  0.2317  0.0511  0.2143
 3182DOPE   GL237336  25.300  14.372  10.278  0.1905 -0.1494 -0.2915
 3182DOPE   C1A37337  24.912  14.388  10.552 -0.1790 -0.2073 -0.0573
 3182DOPE   D2A37338  24.583  14.341  10.902  0.0752  0.0340 -0.4289
 3182DOPE   C3A37339  24.334  14.486  11.313 -0.0566 -0.1665  0.1597
 3182DOPE   C4A37340  24.284  14.484  11.788  0.0498  0.0777 -0.1501
 3182DOPE   C1B37341  25.225  13.987  10.568 -0.0326  0.1272 -0.0276
 3182DOPE   D2B37342  25.041  14.067  11.013 -0.0837 -0.5045  0.0774
 3182DOPE   C3B37343  25.282  14.050  11.418 -0.0010 -0.1546 -0.1058
 3182DOPE   C4B37344  25.213  14.125  11.876  0.1673  0.0231  0.1393
 3183DOPS   CNO37345  33.650  23.740  10.029 -0.0037 -0.2296  0.0754
 3183DOPS   PO437346  33.616  24.025  10.293 -0.0602 -0.0538 -0.0886
 3183DOPS   GL137347  33.650  23.991  10.692  0.0185 -0.1245  0.0213
 3183DOPS   GL237348  33.528  24.226  10.835 -0.4175 -0.1631  0.0116
 3183DOPS   C1A37349  33.695  23.695  11.028  0.1682  0.1048 -0.2323
 3183DOPS   D2A37350  33.949  23.304  10.940 -0.3156  0.1105 -0.0903
 3183DOPS   C3A37351  33.844  22.943  11.211  0.0356  0.2077  0.0821
 3183DOPS   C4A37352  33.808  22.764  11.655 -0.0237 -0.3168  0.0239
 3183DOPS   C1B37353  33.922  24.214  11.112 -0.1513 -0.0768 -0.2379
 3183DOPS   D2B37354  34.217  24.210  11.441  0.1857 -0.1821 -0.1843
 3183DOPS   C3B37355  34.154  24.076  11.843 -0.0140  0.0754  0.1976
 3183DOPS   C4B37356  33.892  24.094  12.221  0.1991 -0.0730  0.0580
 3184DOPE   NH337357  34.711  16.153  11.878  0.0895  0.0809 -0.2614
 3184DOPE   PO437358  34.708  15.849  11.929  0.2001  0.2861 -0.0155
 3184DOPE   GL137359  34.787  15.496  12.176 -0.1057  0.0168  0.1536
 3184DOPE   GL237360  34.964  15.685  12.407 -0.0272  0.1053 -0.5609
 3184DOPE   C1A37361  34.593  15.363  12.547 -0.4243  0.0748  0.1352
 3184DOPE   D2A37362  34.209  15.469  12.789  0.0701  0.0795  0.0042
 3184DOPE   C3A37363  34.214  15.430  13.258  0.3198  0.1334  0.0268
 3184DOPE   C4A37364  34.153  15.342  13.742 -0.0816 -0.0381  0.0427
 3184DOPE   C1B37365  34.717  15.859  12.682 -0.3674 -0.2699 -0.3218
 3184DOPE   D2B37366  34.511  15.757  13.083 -0.1284 -0.1546 -0.1011
 3184DOPE   C3B37367  34.331  16.143  13.238 -0.1306 -0.3308  0.0223
 3184DOPE   C4B37368  34.359  16.303  13.696  0.0727 -0.3997  0.0141
 3185DOPS   CNO37369  29.913  13.139  10.462  0.4145 -0.1908  0.1084
 3185DOPS   PO437370  29.576  13.167  10.641  0.2245 -0.1591 -0.4795
 3185DOPS   GL137371  29.314  13.209  11.032 -0.1270  0.1808 -0.0073
 3185DOPS   GL237372  28.992  13.031  11.109 -0.0787 -0.2194 -0.3016
 3185DOPS   C1A37373  29.288  13.316  11.496  0.2083 -0.0848 -0.1828
 3185DOPS   D2A37374  29.165  13.306  11.989 -0.0638  0.1805  0.0372
 3185DOPS   C3A37375  28.984  12.931  12.206  0.3175 -0.2242 -0.2657
 3185DOPS   C4A37376  28.614  13.000  12.502  0.0518 -0.1214 -0.0088
 3185DOPS   C1B37377  28.647  12.722  11.132  0.2072  0.1463  0.0952
 3185DOPS   D2B37378  28.306  12.430  11.236 -0.0105 -0.0857 -0.3262
 3185DOPS   C3B37379  28.225  12.347  11.635 -0.4317  0.2536  0.0880
 3185DOPS   C4B37380  28.091  12.308  12.108  0.0349  0.0357  0.0453
 3186DOPS   CNO37381   0.222  12.519  11.315  0.1044 -0.0506  0.0920
 3186DOPS   PO437382   0.411  12.668  11.614 -0.0438  0.1818 -0.0267
 3186DOPS   GL137383   0.185  12.400  11.919 -0.0169 -0.2262 -0.4458
 3186DOPS   GL237384   0.418  12.199  12.083 -0.1317  0.0721  0.1038
 3186DOPS   C1A37385   0.082  12.457  12.357 -0.1659  0.3825 -0.1472
 3186DOPS   D2A37386   0.402  12.598  12.702 -0.1661  0.1315 -0.2468
 3186DOPS   C3A37387   0.442  12.286  13.007  0.2109 -0.1921  0.3127
 3186DOPS   C4A37388   0.626  11.991  13.303 -0.2464 -0.0008 -0.0555
 3186DOPS   C1B37389   0.479  12.107  12.502 -0.0843 -0.4756  0.0249
 3186DOPS   D2B37390   0.786  11.984  12.822  0.0966 -0.2539  0.0573
 3186DOPS   C3B37391   0.820  11.604  13.109  0.1339  0.0163 -0.0364
 3186DOPS   C4B37392   0.795  11.322  13.412 -0.0058  0.2423 -0.0417
 3187DOPC   NC337393  24.568  13.445   9.703 -0.1583  0.0766 -0.0404
 3187DOPC   PO437394  24.848  13.420   9.920 -0.0036 -0.0278 -0.4592
 3187DOPC   GL137395  24.572  13.332  10.181 -0.1337  0.0042 -0.3849
 3187DOPC   GL237396  24.665  13.070  10.273  0.1585  0.2996  0.1128
 3187DOPC   C1A37397  24.533  13.400  10.606 -0.0079  0.0265 -0.1223
 3187DOPC   D2A37398  24.356  13.518  11.008  0.3398  0.1116  0.5586
 3187DOPC   C3A37399  24.045  13.252  11.185  0.2058  0.2073 -0.3960
 3187DOPC   C4A37400  23.859  13.142  11.594  0.2657  0.3143  0.4470
 3187DOPC   C1B37401  24.983  13.007  10.596  0.0673 -0.3693  0.0921
 3187DOPC   D2B37402  25.004  13.104  11.097  0.3285  0.3307  0.2761
 3187DOPC   C3B37403  25.381  13.257  11.256  0.1173 -0.0094  0.0163
 3187DOPC   C4B37404  25.811  13.090  11.263 -0.1521  0.2403 -0.1127
 3188DOPC   NC337405   0.025  18.817  11.166 -0.1201  0.1463  0.3391
 3188DOPC   PO437406   0.242  18.493  11.032  0.1840  0.1455 -0.0903
 3188DOPC   GL137407  -0.155  18.437  11.273 -0.3672 -0.0169  0.0487
 3188DOPC   GL237408  -0.013  18.305  11.497 -0.3219 -0.1563 -0.0379
 3188DOPC   C1A37409  -0.304  18.734  11.597  0.2200  0.1989 -0.0521
 3188DOPC   D2A37410  -0.264  19.010  11.912  0.3338  0.1360  0.0650
 3188DOPC   C3A37411  -0.250  18.926  12.381  0.2370  0.1949 -0.1637
 3188DOPC   C4A37412  -0.110  18.782  12.816 -0.1180 -0.3259  0.1654
 3188DOPC   C1B37413   0.011  18.410  12.017 -0.1031  0.0756  0.1614
 3188DOPC   D2B37414   0.125  18.545  12.440 -0.0040 -0.0273 -0.0250
 3188DOPC   C3B37415   0.069  18.345  12.792  0.2456  0.0172 -0.1198
 3188DOPC   C4B37416  -0.307  18.240  13.097  0.0083 -0.1286 -0.2965
 3189DOPE   NH337417  31.679  13.645  11.244 -0.1456 -0.1718  0.0954
 3189DOPE   PO437418  31.860  13.485  11.434  0.1620  0.1136 -0.1082
 3189DOPE   GL137419  31.909  13.506  11.746  0.2567 -0.2048  0.0719
 3189DOPE   GL237420  31.787  13.306  11.903 -0.0320 -0.1098  0.0147
 3189DOPE   C1A37421  31.951  13.768  12.078  0.1725  0.1251 -0.0576
 3189DOPE   D2A37422  31.896  14.170  12.225  0.0064 -0.0197 -0.0193
 3189DOPE   C3A37423  31.693  14.416  12.532 -0.2109  0.3614 -0.0015
 3189DOPE   C4A37424  31.333  14.715  12.686 -0.1167  0.0702 -0.1711
 3189DOPE   C1B37425  31.439  13.462  12.209 -0.1736  0.3193 -0.2915
 3189DOPE   D2B37426  31.040  13.651  12.113  0.1672 -0.0251 -0.0906
 3189DOPE   C3B37427  31.006  14.017  12.374 -0.2450 -0.2391 -0.2986
 3189DOPE   C4B37428  30.817  14.054  12.736 -0.1121  0.0983  0.2226
 3190DOPC   NC337429  33.209  23.465  10.124  0.1250 -0.1572 -0.2081
 3190DOPC   PO437430  32.806  23.458  10.188  0.2006  0.2241 -0.1636
 3190DOPC   GL137431  32.579  23.531  10.487 -0.1707  0.1574 -0.0033
 3190DOPC   GL237432  32.543  23.295  10.675  0.2712 -0.2868  0.0811
 3190DOPC   C1A37433  32.404  23.877  10.735  0.2464 -0.0465 -0.0699
 3190DOPC   D2A37434  32.392  24.006  11.153 -0.1626 -0.3216  0.0797
 3190DOPC   C3A37435  32.347  23.831  11.604 -0.2042  0.2062  0.0692
 3190DOPC   C4A37436  32.658  23.616  11.879 -0.0042 -0.0569  0.0476
 3190DOPC   C1B37437  32.687  23.538  11.007 -0.0459 -0.2464 -0.2526
 3190DOPC   D2B37438  32.859  23.674  11.441  0.2996 -0.0703 -0.1662
 3190DOPC   C3B37439  33.021  24.007  11.708  0.2655 -0.0498 -0.0202
 3190DOPC   C4B37440  32.990  24.282  12.071 -0.0763  0.0703 -0.2011
 3191POSM   NC337441  26.673  13.845  10.580  0.1141  0.0109 -0.1378
 3191POSM   PO437442  26.982  14.040  10.433  0.0091  0.1191  0.0599
 3191POSM   AM137443  27.043  14.028  10.706 -0.0733  0.1519 -0.3459
 3191POSM   AM237444  27.218  14.140  10.863 -0.0897 -0.0465 -0.1243
 3191POSM   T1A37445  26.950  13.610  11.007 -0.0043  0.1199  0.0169
 3191POSM   C2A37446  26.810  13.197  11.169  0.0223  0.3521  0.2992
 3191POSM   C3A37447  26.834  12.724  11.321 -0.1748 -0.3353  0.3254
 3191POSM   C1B37448  27.252  14.184  11.194 -0.4116 -0.3847 -0.1092
 3191POSM   D2B37449  27.213  14.456  11.560  0.0951  0.0456 -0.2542
 3191POSM   C3B37450  26.933  14.861  11.612 -0.0046 -0.3185  0.0794
 3191POSM   C4B37451  26.734  15.238  11.779  0.0557 -0.2414 -0.0355
 3192DOPC   NC337452  25.928  22.551   9.990 -0.1732 -0.0378 -0.0905
 3192DOPC   PO437453  25.848  22.960  10.051  0.2833  0.2213 -0.0356
 3192DOPC   GL137454  25.931  22.941  10.447 -0.6364 -0.0216 -0.1743
 3192DOPC   GL237455  25.992  22.634  10.532  0.0247  0.1662 -0.1477
 3192DOPC   C1A37456  25.691  22.954  10.855 -0.1204  0.1493 -0.0702
 3192DOPC   D2A37457  25.508  22.879  11.313 -0.2072  0.1847  0.2186
 3192DOPC   C3A37458  25.219  22.546  11.418  0.2399 -0.0441  0.1147
 3192DOPC   C4A37459  25.171  22.128  11.715 -0.3638  0.1539  0.0932
 3192DOPC   C1B37460  26.183  22.768  10.947  0.2560  0.1728  0.0742
 3192DOPC   D2B37461  26.168  22.942  11.312 -0.0588  0.2636  0.0549
 3192DOPC   C3B37462  25.861  22.585  11.447 -0.1809 -0.0316 -0.3061
 3192DOPC   C4B37463  25.580  22.537  11.821  0.0283  0.2822 -0.1709
 3193DOPC   NC337464  31.031  20.381  10.783 -0.0800 -0.2113  0.1133
 3193DOPC   PO437465  31.014  19.963  10.662  0.2421 -0.0492  0.2876
 3193DOPC   GL137466  31.214  19.848  10.957  0.2410  0.0831 -0.4666
 3193DOPC   GL237467  31.503  19.810  10.940 -0.0480 -0.1938  0.0872
 3193DOPC   C1A37468  31.352  20.080  11.350 -0.0641  0.1161 -0.0797
 3193DOPC   D2A37469  31.381  20.038  11.847 -0.0212 -0.1071 -0.1558
 3193DOPC   C3A37470  31.549  20.484  11.896  0.2207 -0.0221 -0.0956
 3193DOPC   C4A37471  31.635  20.918  11.692  0.0097  0.2942 -0.0291
 3193DOPC   C1B37472  31.553  20.283  10.941 -0.0240  0.3451  0.1219
 3193DOPC   D2B37473  31.589  20.506  11.360 -0.0322 -0.1661 -0.3568
 3193DOPC   C3B37474  31.970  20.505  11.618 -0.0075 -0.0552 -0.0355
 3193DOPC   C4B37475  32.117  20.889  11.780  0.2139 -0.0790 -0.1625
 3194DOPE   NH337476  29.323  22.113   9.712  0.1881 -0.4826  0.2118
 3194DOPE   PO437477  29.203  22.379   9.817  0.0776  0.0500  0.1610
 3194DOPE   GL137478  29.333  22.278  10.243  0.2741  0.5177 -0.1581
 3194DOPE   GL237479  29.318  22.044  10.440 -0.0797 -0.2589  0.2353
 3194DOPE   C1A37480  29.058  22.408  10.609  0.1908  0.1053  0.2389
 3194DOPE   D2A37481  29.024  22.341  11.057 -0.1061  0.1953 -0.1759
 3194DOPE   C3A37482  28.830  21.931  11.181  0.1254 -0.0110 -0.0701
 3194DOPE   C4A37483  28.621  21.588  11.123  0.2229 -0.3342  0.1802
 3194DOPE   C1B37484  29.078  21.819  10.712 -0.1128  0.0766  0.2095
 3194DOPE   D2B37485  29.180  21.494  11.076  0.1180  0.0211 -0.0956
 3194DOPE   C3B37486  29.353  21.550  11.540  0.2093 -0.2357 -0.2733
 3194DOPE   C4B37487  29.638  21.756  11.853  0.0669  0.1059  0.3067
 3195DOPE   NH337488  27.036  22.035   9.747 -0.1993  0.1867  0.0418
 3195DOPE   PO437489  27.119  22.333   9.844 -0.2991  0.0311 -0.3067
 3195DOPE   GL137490  27.113  22.538  10.117 -0.4726 -0.5776 -0.0916
 3195DOPE   GL237491  26.813  22.518  10.194  0.0919 -0.2406 -0.0345
 3195DOPE   C1A37492  27.208  22.452  10.540 -0.1322  0.1145 -0.3075
 3195DOPE   D2A37493  27.490  22.086  10.730 -0.0261  0.1516 -0.2160
 3195DOPE   C3A37494  27.936  22.177  10.872  0.0354  0.1518  0.1598
 3195DOPE   C4A37495  28.363  22.066  11.010 -0.3705  0.1692 -0.0824
 3195DOPE   C1B37496  26.729  22.347  10.666 -0.0576  0.0451 -0.1467
 3195DOPE   D2B37497  26.839  22.358  11.103 -0.1427  0.0424 -0.1372
 3195DOPE   C3B37498  27.272  22.499  11.126 -0.1027 -0.3869 -0.2342
 3195DOPE   C4B37499  27.720  22.390  11.277  0.1291  0.0178 -0.2433
 3196DOPC   NC337500  23.070  20.847   9.041 -0.0914 -0.1695  0.2343
 3196DOPC   PO437501  23.228  20.534   9.259  0.3288  0.0616 -0.0403
 3196DOPC   GL137502  22.995  20.679   9.602  0.3037  0.0695  0.1752
 3196DOPC   GL237503  22.807  20.972   9.553 -0.1662 -0.0611 -0.2385
 3196DOPC   C1A37504  23.048  20.789  10.048  0.1806  0.0600  0.1230
 3196DOPC   D2A37505  23.149  20.911  10.456  0.0904 -0.0496  0.1219
 3196DOPC   C3A37506  23.041  20.569  10.857  0.1420  0.0779  0.3202
 3196DOPC   C4A37507  22.886  20.573  11.303 -0.1432  0.1136 -0.2239
 3196DOPC   C1B37508  22.484  20.982   9.898 -0.0051 -0.2483 -0.2659
 3196DOPC   D2B37509  22.152  21.236  10.089  0.6154 -0.0624  0.1028
 3196DOPC   C3B37510  22.195  21.280  10.558 -0.0388 -0.1648 -0.0474
 3196DOPC   C4B37511  22.065  21.255  10.956  0.2131  0.1945 -0.1100
 3197DOPE   NH337512   0.367  17.230  11.449  0.1829  0.0509 -0.0124
 3197DOPE   PO437513   0.488  17.478  11.261 -0.4016 -0.1110  0.0185
 3197DOPE   GL137514   0.158  17.641  11.491 -0.0635 -0.1042  0.0543
 3197DOPE   GL237515   0.246  17.556  11.768 -0.1452 -0.1790  0.1694
 3197DOPE   C1A37516   0.291  18.056  11.775 -0.1558  0.1657 -0.0564
 3197DOPE   D2A37517   0.486  18.327  12.115 -0.1605 -0.0782 -0.0873
 3197DOPE   C3A37518   0.443  18.155  12.538  0.0555 -0.0872  0.0696
 3197DOPE   C4A37519   0.519  18.169  12.984  0.0021  0.0558 -0.0948
 3197DOPE   C1B37520   0.381  17.750  12.182 -0.0270  0.1455 -0.0902
 3197DOPE   D2B37521   0.498  17.626  12.640  0.1102  0.0543 -0.1114
 3197DOPE   C3B37522   0.198  17.780  12.997 -0.0644 -0.1732 -0.1323
 3197DOPE   C4B37523  -0.141  17.773  13.342  0.0544  0.0496  0.0563
 3198DOPS   CNO37524  30.618  22.243   9.697 -0.1177 -0.3310 -0.2630
 3198DOPS   PO437525  30.696  22.491   9.980  0.2910  0.1654 -0.3214
 3198DOPS   GL137526  30.859  22.566  10.316 -0.0462 -0.1727  0.1756
 3198DOPS   GL237527  31.030  22.260  10.337  0.0381 -0.2555 -0.0988
 3198DOPS   C1A37528  30.737  22.484  10.780  0.0569  0.3049  0.0225
 3198DOPS   D2A37529  30.620  22.053  10.979 -0.1265 -0.0946  0.0803
 3198DOPS   C3A37530  30.351  21.976  11.390 -0.1677 -0.1613 -0.1562
 3198DOPS   C4A37531  30.465  21.889  11.835  0.1696 -0.1379  0.0727
 3198DOPS   C1B37532  31.235  22.498  10.674  0.1313  0.2279  0.1009
 3198DOPS   D2B37533  31.459  22.792  10.970  0.0527  0.2017 -0.1900
 3198DOPS   C3B37534  31.239  23.149  11.206 -0.0081 -0.1814 -0.1615
 3198DOPS   C4B37535  31.260  23.484  11.507  0.0234  0.2759  0.2537
 3199DOPC   NC337536  26.295  21.942   9.799 -0.0692  0.2296 -0.1018
 3199DOPC   PO437537  25.974  22.158   9.754 -0.4153 -0.0314 -0.1982
 3199DOPC   GL137538  26.025  22.066  10.182  0.0541  0.3518  0.3232
 3199DOPC   GL237539  25.810  22.158  10.375 -0.0118  0.1929  0.2647
 3199DOPC   C1A37540  26.290  22.178  10.559  0.1821 -0.1146  0.1565
 3199DOPC   D2A37541  26.258  22.210  11.051  0.2842  0.2411  0.0667
 3199DOPC   C3A37542  26.120  22.108  11.468 -0.0611  0.3064 -0.1202
 3199DOPC   C4A37543  26.049  21.722  11.653 -0.1532 -0.0084  0.1786
 3199DOPC   C1B37544  25.542  22.510  10.319  0.3613 -0.0490  0.1189
 3199DOPC   D2B37545  25.232  22.734  10.474  0.0088 -0.2831  0.1896
 3199DOPC   C3B37546  25.220  22.841  10.917  0.2539  0.1441 -0.1876
 3199DOPC   C4B37547  24.799  22.799  11.150  0.1880 -0.0465 -0.2884
 3200POSM   NC337548   0.737  17.730  11.608  0.0290  0.1764 -0.3375
 3200POSM   PO437549   0.790  17.382  11.727 -0.0595  0.2975  0.1336
 3200POSM   AM137550   0.583  17.234  11.904  0.1691  0.2957  0.0057
 3200POSM   AM237551   0.616  17.168  12.172 -0.1384  0.1536 -0.1062
 3200POSM   T1A37552   0.196  17.320  12.244  0.0670 -0.0134  0.2676
 3200POSM   C2A37553  -0.020  17.540  12.576  0.1990  0.4126 -0.0243
 3200POSM   C3A37554  -0.280  17.827  12.834 -0.0473 -0.0047  0.1932
 3200POSM   C1B37555   0.811  17.066  12.403 -0.1440 -0.1425  0.1217
 3200POSM   D2B37556   0.896  16.728  12.667  0.0033 -0.4483  0.0318
 3200POSM   C3B37557   0.931  16.717  13.143  0.0439 -0.0971  0.1266
 3200POSM   C4B37558   0.836  17.026  13.488  0.4813  0.2486  0.1251
 3201DOPC   NC337559  24.000  22.602   9.696  0.0006  0.3959  0.2650
 3201DOPC   PO437560  24.195  22.444   9.371  0.1014 -0.0589 -0.1673
 3201DOPC   GL137561  24.265  22.140   9.554 -0.3810  0.2698  0.0156
 3201DOPC   GL237562  24.506  22.106   9.687 -0.0291 -0.2672 -0.1361
 3201DOPC   C1A37563  23.991  21.910   9.845  0.0184  0.3985 -0.1366
 3201DOPC   D2A37564  23.941  21.599  10.219 -0.2665 -0.0921  0.2730
 3201DOPC   C3A37565  23.660  21.554  10.494 -0.3535 -0.1003  0.2387
 3201DOPC   C4A37566  23.403  21.357  10.845  0.2004 -0.1027  0.0568
 3201DOPC   C1B37567  24.426  21.915  10.114 -0.0386 -0.1466  0.1238
 3201DOPC   D2B37568  24.336  21.762  10.525  0.1997 -0.2190  0.0277
 3201DOPC   C3B37569  24.538  21.456  10.821  0.0529 -0.1009 -0.1861
 3201DOPC   C4B37570  24.979  21.345  10.967  0.1958 -0.0515  0.1147
 3202POSM   NC337571  29.383  18.523  10.348 -0.1611 -0.0365 -0.1661
 3202POSM   PO437572  29.575  18.485  10.691  0.1587 -0.0352  0.4443
 3202POSM   AM137573  29.602  18.583  10.972 -0.2131 -0.3335  0.0541
 3202POSM   AM237574  29.639  18.863  11.062 -0.1027  0.1156 -0.1282
 3202POSM   T1A37575  29.379  18.581  11.438 -0.2969 -0.0747 -0.0336
 3202POSM   C2A37576  29.418  18.222  11.701  0.2716  0.0138  0.0909
 3202POSM   C3A37577  29.453  18.057  12.104  0.0846  0.0941  0.4311
 3202POSM   C1B37578  29.793  18.974  11.342  0.1959  0.0509  0.4696
 3202POSM   D2B37579  29.660  19.004  11.772  0.0295 -0.2951  0.1212
 3202POSM   C3B37580  29.948  18.883  12.109 -0.1806 -0.2926  0.0034
 3202POSM   C4B37581  29.975  18.546  12.378 -0.0500  0.0441 -0.2341
 3203DOPE   NH337582  28.499  18.662  10.519 -0.2643 -0.0578  0.1777
 3203DOPE   PO437583  28.408  18.958  10.543 -0.2499 -0.2555 -0.0638
 3203DOPE   GL137584  28.392  19.078  10.864 -0.1907  0.2018 -0.1540
 3203DOPE   GL237585  28.270  19.288  10.961  0.0212  0.1158 -0.0559
 3203DOPE   C1A37586  28.450  18.847  11.296  0.1548  0.0061  0.3718
 3203DOPE   D2A37587  28.467  18.401  11.409 -0.2684 -0.0416 -0.0213
 3203DOPE   C3A37588  28.566  18.444  11.870 -0.2973  0.1027  0.1174
 3203DOPE   C4A37589  28.609  18.772  12.176  0.1137 -0.0962 -0.3768
 3203DOPE   C1B37590  28.128  19.267  11.361  0.0395 -0.4829  0.1615
 3203DOPE   D2B37591  28.057  19.511  11.761 -0.0370  0.1251  0.0835
 3203DOPE   C3B37592  27.646  19.597  11.831 -0.1148  0.3602 -0.5022
 3203DOPE   C4B37593  27.177  19.637  11.904  0.1242  0.1827 -0.3522
 3204DOPE   NH337594   0.846  16.843  11.885 -0.1570 -0.2360  0.1896
 3204DOPE   PO437595   0.579  16.823  11.682 -0.0124 -0.3531 -0.1799
 3204DOPE   GL137596   0.345  16.803  12.079 -0.1471  0.0518  0.0047
 3204DOPE   GL237597   0.111  16.812  11.976 -0.2064  0.4140  0.0755
 3204DOPE   C1A37598   0.383  16.861  12.540  0.0965 -0.0202  0.1568
 3204DOPE   D2A37599   0.634  17.085  12.890  0.0856 -0.1924  0.5792
 3204DOPE   C3A37600   0.393  17.369  13.184  0.2621 -0.0696  0.4421
 3204DOPE   C4A37601   0.427  17.373  13.693  0.0015 -0.0576  0.2751
 3204DOPE   C1B37602  -0.004  16.556  12.350  0.1247 -0.0468  0.0396
 3204DOPE   D2B37603   0.265  16.318  12.625  0.2391 -0.1810 -0.0329
 3204DOPE   C3B37604   0.484  16.587  12.947 -0.1948  0.0304  0.0717
 3204DOPE   C4B37605   0.353  16.880  13.306 -0.1741 -0.1951  0.0547
 3205DOPS   CNO37606  30.530  10.664  10.396 -0.3238 -0.0284 -0.2698
 3205DOPS   PO437607  30.498  11.021  10.591 -0.3287 -0.1080 -0.0298
 3205DOPS   GL137608  30.265  10.857  10.809  0.1247  0.1696  0.6072
 3205DOPS   GL237609  30.150  10.572  10.687  0.3095 -0.2071  0.1407
 3205DOPS   C1A37610  30.192  11.103  11.233 -0.2562 -0.1773  0.0734
 3205DOPS   D2A37611  30.284  11.142  11.682 -0.5040 -0.3392 -0.0530
 3205DOPS   C3A37612  30.338  10.783  12.025  0.2606  0.0223  0.2013
 3205DOPS   C4A37613  30.394  10.511  12.366  0.1735 -0.0685 -0.0360
 3205DOPS   C1B37614  29.942  10.699  11.119 -0.0831 -0.2225  0.0066
 3205DOPS   D2B37615  30.010  10.744  11.582 -0.3423  0.0903  0.0019
 3205DOPS   C3B37616  29.862  11.120  11.877 -0.1478  0.2010  0.2188
 3205DOPS   C4B37617  29.886  11.441  12.161 -0.0671  0.3172  0.2711
 3206DOPE   NH337618  22.974  15.492   9.557 -0.1802  0.0694  0.0932
 3206DOPE   PO437619  23.033  15.186   9.684  0.1502 -0.2853 -0.0849
 3206DOPE   GL137620  22.795  15.140   9.979 -0.4058 -0.1436  0.2956
 3206DOPE   GL237621  22.792  14.821   9.950  0.1340 -0.1304 -0.0708
 3206DOPE   C1A37622  22.615  14.989  10.438  0.2112 -0.0010  0.0197
 3206DOPE   D2A37623  22.498  14.680  10.753 -0.0517 -0.0062 -0.2999
 3206DOPE   C3A37624  22.639  14.273  10.666 -0.1473  0.0069 -0.0771
 3206DOPE   C4A37625  22.849  13.845  10.761 -0.1841 -0.1483  0.2996
 3206DOPE   C1B37626  22.923  14.621  10.340 -0.2159 -0.1096 -0.1740
 3206DOPE   D2B37627  23.144  14.295  10.514  0.0567  0.0112  0.1130
 3206DOPE   C3B37628  23.258  14.142  11.014 -0.4089 -0.0778  0.2198
 3206DOPE   C4B37629  23.448  13.923  11.375  0.2042 -0.1218 -0.0434
 3207DOPE   NH337630  32.714  13.212  11.702  0.0785 -0.1457 -0.1629
 3207DOPE   PO437631  32.726  13.503  11.772 -0.0914 -0.0886  0.2670
 3207DOPE   GL137632  32.928  13.524  12.077 -0.0898  0.4729  0.1830
 3207DOPE   GL237633  32.860  13.713  12.236  0.3413 -0.1644  0.1297
 3207DOPE   C1A37634  33.115  13.331  12.439 -0.0121  0.1657 -0.0431
 3207DOPE   D2A37635  33.075  12.996  12.706  0.1015 -0.1052 -0.0175
 3207DOPE   C3A37636  32.855  12.882  13.117  0.0591  0.0379 -0.0204
 3207DOPE   C4A37637  32.545  12.883  13.471 -0.1522  0.0956 -0.0821
 3207DOPE   C1B37638  33.160  13.974  12.409 -0.0848  0.0556  0.3435
 3207DOPE   D2B37639  33.267  14.227  12.734 -0.1584  0.0200  0.1925
 3207DOPE   C3B37640  33.600  14.141  13.017 -0.0292  0.1069 -0.0359
 3207DOPE   C4B37641  33.922  14.133  13.294 -0.0744  0.1913 -0.0002
 3208POSM   NC337642  31.955  20.824  10.134  0.0806 -0.0915  0.2309
 3208POSM   PO437643  32.262  21.098  10.162 -0.0938  0.2762  0.4550
 3208POSM   AM137644  32.493  21.085  10.437 -0.0113  0.0205 -0.0038
 3208POSM   AM237645  32.540  20.949  10.719 -0.2834 -0.3492 -0.1966
 3208POSM   T1A37646  32.981  21.156  10.663  0.1555 -0.2006 -0.1445
 3208POSM   C2A37647  33.480  21.120  10.696  0.1408 -0.0489 -0.0553
 3208POSM   C3A37648  33.898  20.922  10.768 -0.0052 -0.1576  0.1561
 3208POSM   C1B37649  32.450  20.886  11.067  0.1197  0.1231 -0.0708
 3208POSM   D2B37650  32.527  20.885  11.492 -0.2562 -0.0047 -0.1179
 3208POSM   C3B37651  32.646  21.180  11.824 -0.3143  0.0704 -0.1082
 3208POSM   C4B37652  32.542  21.346  12.229  0.0352  0.0509  0.1009
 3209DOPC   NC337653  31.012  18.695  10.385 -0.0266 -0.0440 -0.1515
 3209DOPC   PO437654  31.243  18.486  10.576  0.0930 -0.3559 -0.0189
 3209DOPC   GL137655  31.202  18.610  10.981  0.1324 -0.0597 -0.3491
 3209DOPC   GL237656  31.042  18.445  11.227 -0.0523 -0.0577 -0.3168
 3209DOPC   C1A37657  31.364  18.870  11.319  0.6392  0.2341  0.2665
 3209DOPC   D2A37658  31.194  19.121  11.679  0.0809 -0.1417 -0.2582
 3209DOPC   C3A37659  31.396  19.120  12.121 -0.2581  0.1127  0.0607
 3209DOPC   C4A37660  31.785  19.314  12.303 -0.0658  0.0437  0.0911
 3209DOPC   C1B37661  30.894  18.695  11.599  0.3782 -0.0612  0.0457
 3209DOPC   D2B37662  30.642  18.961  11.826  0.0760  0.1943  0.2525
 3209DOPC   C3B37663  30.845  19.107  12.206  0.1308  0.2752 -0.1608
 3209DOPC   C4B37664  30.880  19.192  12.655  0.0728  0.1637 -0.0977
 3210DOPC   NC337665  26.223  14.510   9.998 -0.0876 -0.2864  0.1504
 3210DOPC   PO437666  26.215  14.825  10.238 -0.2595 -0.0916 -0.1778
 3210DOPC   GL137667  26.177  14.844  10.664  0.0760  0.1065  0.1098
 3210DOPC   GL237668  26.236  14.583  10.650  0.0327 -0.0761  0.0047
 3210DOPC   C1A37669  26.047  14.872  11.130 -0.0853  0.0579  0.0343
 3210DOPC   D2A37670  25.968  14.546  11.487  0.0824 -0.0211 -0.2518
 3210DOPC   C3A37671  26.064  14.428  11.945  0.1354  0.0125  0.3111
 3210DOPC   C4A37672  26.465  14.286  12.119 -0.1363 -0.0791  0.1798
 3210DOPC   C1B37673  26.271  14.360  11.023  0.0226 -0.0418  0.0285
 3210DOPC   D2B37674  26.323  14.116  11.435  0.4700  0.4308  0.1463
 3210DOPC   C3B37675  26.481  13.873  11.779 -0.0677 -0.0807 -0.1561
 3210DOPC   C4B37676  26.196  13.509  11.922  0.0177 -0.0031  0.0384
 3211DOPE   NH337677  25.979  18.300   9.998  0.1592 -0.1927  0.1779
 3211DOPE   PO437678  25.764  18.125  10.024 -0.0553  0.1410 -0.0436
 3211DOPE   GL137679  25.666  18.046  10.417  0.0224  0.2156 -0.3488
 3211DOPE   GL237680  25.870  17.847  10.470 -0.1010  0.3255  0.2048
 3211DOPE   C1A37681  25.512  18.138  10.795 -0.1705 -0.2526  0.5123
 3211DOPE   D2A37682  25.618  18.298  11.228  0.1735 -0.2406  0.2353
 3211DOPE   C3A37683  25.639  18.594  11.571 -0.0199 -0.1405 -0.0168
 3211DOPE   C4A37684  25.692  18.864  11.941  0.0122 -0.0433  0.0662
 3211DOPE   C1B37685  26.025  18.001  10.854  0.3104  0.1824  0.1501
 3211DOPE   D2B37686  26.151  18.306  11.203 -0.1440 -0.1288 -0.0011
 3211DOPE   C3B37687  26.164  18.064  11.589  0.0442 -0.1942  0.1061
 3211DOPE   C4B37688  25.930  18.012  11.982  0.4016  0.0350 -0.1880
 3212DOPE   NH337689  30.519  15.274  10.935 -0.1664 -0.0777 -0.3902
 3212DOPE   PO437690  30.478  15.576  10.784 -0.2993  0.0541  0.0136
 3212DOPE   GL137691  30.394  15.701  11.187 -0.1453  0.0498  0.1945
 3212DOPE   GL237692  30.099  15.520  11.162 -0.1647  0.1155 -0.0039
 3212DOPE   C1A37693  30.217  15.898  11.588 -0.0627  0.1761 -0.2350
 3212DOPE   D2A37694  30.244  15.977  12.022 -0.2289  0.1838 -0.1308
 3212DOPE   C3A37695  30.389  16.147  12.452  0.0439  0.0191  0.0320
 3212DOPE   C4A37696  30.668  16.307  12.801 -0.0627 -0.3216  0.0548
 3212DOPE   C1B37697  29.834  15.530  11.507 -0.0830 -0.0583 -0.1165
 3212DOPE   D2B37698  29.908  15.563  12.006  0.0262 -0.0657  0.1799
 3212DOPE   C3B37699  29.620  15.599  12.362 -0.1084  0.1498 -0.0801
 3212DOPE   C4B37700  29.674  15.355  12.724 -0.0848  0.1053  0.0810
 3213POSM   NC337701  31.347  12.674  11.179 -0.0974  0.3792  0.0336
 3213POSM   PO437702  31.552  12.613  11.544  0.3946 -0.1083  0.1266
 3213POSM   AM137703  31.343  12.634  11.790  0.1963  0.1825 -0.1801
 3213POSM   AM237704  31.259  12.858  11.929 -0.0760 -0.0883 -0.2315
 3213POSM   T1A37705  31.313  12.508  12.264 -0.3318 -0.3052  0.0245
 3213POSM   C2A37706  31.431  12.583  12.690  0.2768 -0.0362  0.0101
 3213POSM   C3A37707  31.315  12.348  13.034 -0.1723 -0.0197 -0.3604
 3213POSM   C1B37708  30.935  12.688  11.959 -0.2438  0.3117  0.2811
 3213POSM   D2B37709  30.497  12.471  12.041  0.1539 -0.1047  0.2436
 3213POSM   C3B37710  30.271  12.316  12.289  0.2689  0.0381  0.1478
 3213POSM   C4B37711  30.101  11.937  12.419  0.2530  0.2203 -0.0052
 3214POSM   NC337712  31.005  16.513  11.073 -0.0853  0.2837 -0.1680
 3214POSM   PO437713  31.080  16.251  10.774  0.0813 -0.0565 -0.0615
 3214POSM   AM137714  31.159  16.060  11.052 -0.4456 -0.5390 -0.2421
 3214POSM   AM237715  31.328  16.082  11.302  0.1414 -0.0272 -0.2086
 3214POSM   T1A37716  30.872  15.800  11.400 -0.2326  0.2107 -0.0626
 3214POSM   C2A37717  30.573  15.402  11.427  0.0267  0.2311  0.2219
 3214POSM   C3A37718  30.276  15.350  11.744 -0.1139  0.1515  0.0059
 3214POSM   C1B37719  31.168  16.222  11.598  0.1918 -0.3371  0.0026
 3214POSM   D2B37720  31.119  16.277  12.038  0.3948 -0.3214  0.0521
 3214POSM   C3B37721  30.795  16.428  12.327  0.1729 -0.1384 -0.0648
 3214POSM   C4B37722  30.546  16.749  12.434  0.1266 -0.1080 -0.1577
 3215POSM   NC337723  24.764  21.631   9.120 -0.1002  0.4051  0.1691
 3215POSM   PO437724  24.878  21.731   9.505  0.0802 -0.0217  0.1893
 3215POSM   AM137725  24.871  21.710   9.846  0.1675 -0.3165  0.2003
 3215POSM   AM237726  25.011  21.820  10.054  0.2908 -0.0908 -0.1176
 3215POSM   T1A37727  24.690  21.464  10.237 -0.0988  0.0420 -0.1835
 3215POSM   C2A37728  24.299  21.207  10.321  0.4443 -0.0029  0.1352
 3215POSM   C3A37729  23.855  21.071  10.506  0.0078  0.1717  0.0891
 3215POSM   C1B37730  25.318  21.741  10.194 -0.0369  0.1435  0.0981
 3215POSM   D2B37731  25.575  21.500  10.498 -0.2767  0.1196 -0.2966
 3215POSM   C3B37732  25.549  21.446  10.917  0.0248  0.1272 -0.0105
 3215POSM   C4B37733  25.569  21.345  11.357  0.1400 -0.0149 -0.2701
 3216POSM   NC337734   1.450  16.364  12.005  0.3406  0.2069  0.0045
 3216POSM   PO437735   1.253  16.654  12.107  0.1942  0.1912  0.0977
 3216POSM   AM137736   1.185  16.453  12.345 -0.0518 -0.3331  0.1223
 3216POSM   AM237737   1.294  16.397  12.565  0.0314 -0.1491 -0.1595
 3216POSM   T1A37738   0.798  16.251  12.650  0.2333  0.0956  0.0299
 3216POSM   C2A37739   0.708  16.185  13.072  0.0414  0.3210 -0.3506
 3216POSM   C3A37740   0.616  16.486  13.447 -0.0869  0.2664 -0.0882
 3216POSM   C1B37741   1.238  16.423  12.903  0.2681 -0.0900 -0.2253
 3216POSM   D2B37742   1.110  16.218  13.303 -0.1804  0.0875  0.2596
 3216POSM   C3B37743   0.884  15.940  13.575 -0.0445  0.2653  0.0934
 3216POSM   C4B37744   0.798  15.459  13.690 -0.0341  0.2394 -0.0420
 3217DOPC   NC337745  28.255  18.540  10.949 -0.2529  0.1938 -0.0830
 3217DOPC   PO437746  28.109  18.206  10.724  0.0893 -0.2655  0.0075
 3217DOPC   GL137747  28.294  18.019  11.135  0.1840 -0.0637  0.0733
 3217DOPC   GL237748  28.071  18.103  11.334 -0.0939  0.0806  0.3009
 3217DOPC   C1A37749  28.544  17.933  11.557  0.1892  0.0190  0.1609
 3217DOPC   D2A37750  28.418  17.935  11.971 -0.0016 -0.1298  0.2618
 3217DOPC   C3A37751  28.321  18.299  12.268 -0.1929 -0.0033 -0.0647
 3217DOPC   C4A37752  28.367  18.396  12.688  0.0432  0.4367 -0.3205
 3217DOPC   C1B37753  28.051  18.160  11.786  0.0694  0.0994 -0.0990
 3217DOPC   D2B37754  27.814  18.415  12.087  0.1178  0.1407 -0.0329
 3217DOPC   C3B37755  27.432  18.359  12.395 -0.0980  0.0275  0.3635
 3217DOPC   C4B37756  27.379  18.018  12.646  0.0867  0.1002  0.3179
 3218DOPC   NC337757   1.113  11.637  11.929 -0.0054  0.3112  0.2115
 3218DOPC   PO437758   0.732  11.803  11.819  0.2043 -0.1528  0.0044
 3218DOPC   GL137759   0.748  11.530  12.180  0.1232  0.2175  0.0271
 3218DOPC   GL237760   0.626  11.320  12.201 -0.1312  0.0857 -0.0235
 3218DOPC   C1A37761   0.992  11.609  12.546  0.0599  0.0748 -0.0299
 3218DOPC   D2A37762   1.378  11.406  12.717  0.2623 -0.0595  0.1784
 3218DOPC   C3A37763   1.662  11.614  13.102 -0.2503 -0.0604  0.3106
 3218DOPC   C4A37764   1.986  11.441  13.366  0.2176  0.0745 -0.1157
 3218DOPC   C1B37765   0.575  10.976  12.482 -0.1365  0.3416 -0.2167
 3218DOPC   D2B37766   0.374  10.801  12.889 -0.2937  0.2770  0.1439
 3218DOPC   C3B37767   0.146  10.771  13.320  0.0170 -0.2956 -0.0286
 3218DOPC   C4B37768  -0.033  10.802  13.755 -0.0306 -0.0120 -0.1545
 3219DOPE   NH337769  31.882  17.061  10.969 -0.0682 -0.1026  0.0964
 3219DOPE   PO437770  31.624  17.015  11.067  0.2159 -0.0119  0.0171
 3219DOPE   GL137771  31.381  16.731  11.330  0.2803  0.1096 -0.1942
 3219DOPE   GL237772  31.560  16.942  11.553 -0.2376  0.0743  0.2868
 3219DOPE   C1A37773  31.258  16.695  11.801 -0.1762  0.0483 -0.3040
 3219DOPE   D2A37774  31.088  16.818  12.242  0.0995 -0.1334  0.0318
 3219DOPE   C3A37775  31.296  17.177  12.515 -0.0380  0.1417  0.2893
 3219DOPE   C4A37776  31.326  17.622  12.587  0.1522  0.1380 -0.1008
 3219DOPE   C1B37777  31.158  17.196  11.611  0.1038 -0.1068 -0.1093
 3219DOPE   D2B37778  30.762  17.150  11.880 -0.1018 -0.2085 -0.0373
 3219DOPE   C3B37779  30.647  17.276  12.305  0.2076  0.2306  0.0529
 3219DOPE   C4B37780  30.795  17.174  12.748 -0.4220  0.1511  0.2054
 3220DOPC   NC337781  27.990  17.749  10.926 -0.0824 -0.2159  0.0392
 3220DOPC   PO437782  28.268  17.481  10.818  0.3968  0.1993  0.1229
 3220DOPC   GL137783  28.195  17.343  11.132 -0.0718 -0.4292  0.2695
 3220DOPC   GL237784  28.266  17.563  11.322 -0.2449 -0.3568  0.0599
 3220DOPC   C1A37785  28.183  16.932  11.433  0.1864 -0.0082 -0.1383
 3220DOPC   D2A37786  27.854  16.627  11.495 -0.1699  0.1981  0.1828
 3220DOPC   C3A37787  27.578  16.765  11.852 -0.1577  0.1970 -0.1117
 3220DOPC   C4A37788  27.258  16.817  12.124  0.2739 -0.1472 -0.0232
 3220DOPC   C1B37789  28.331  17.471  11.751  0.1880 -0.2771 -0.0182
 3220DOPC   D2B37790  28.422  17.508  12.207 -0.0831  0.3891 -0.2577
 3220DOPC   C3B37791  28.018  17.780  12.287 -0.0619  0.0276 -0.1509
 3220DOPC   C4B37792  27.571  17.929  12.188  0.1450  0.1792  0.1602
 3221DOPC   NC337793  33.479  19.150  10.218 -0.2345  0.1558  0.1078
 3221DOPC   PO437794  33.811  19.261  10.438  0.0624 -0.0322 -0.2850
 3221DOPC   GL137795  33.770  19.335  10.835 -0.0496 -0.0494  0.1806
 3221DOPC   GL237796  33.907  19.558  10.944 -0.1594 -0.0941 -0.1440
 3221DOPC   C1A37797  33.532  19.089  11.201  0.0924 -0.1109 -0.2775
 3221DOPC   D2A37798  33.480  19.115  11.638 -0.3202 -0.1222  0.0495
 3221DOPC   C3A37799  33.384  18.857  11.948 -0.0294  0.0075 -0.0128
 3221DOPC   C4A37800  33.290  18.389  12.126 -0.0912  0.1379 -0.0682
 3221DOPC   C1B37801  34.034  19.961  11.157  0.0277 -0.2908  0.1833
 3221DOPC   D2B37802  34.309  20.218  11.427 -0.2146  0.0986  0.0358
 3221DOPC   C3B37803  34.157  20.465  11.790 -0.2197  0.0150  0.3203
 3221DOPC   C4B37804  33.927  20.462  12.138  0.3300 -0.2536  0.0477
 3222DOPS   CNO37805  32.718  21.876  10.049 -0.1183 -0.0188 -0.0787
 3222DOPS   PO437806  33.001  21.812  10.283 -0.1822  0.0946  0.2330
 3222DOPS   GL137807  33.037  21.734  10.674  0.0391 -0.0456  0.0450
 3222DOPS   GL237808  33.156  21.895  10.991 -0.1895  0.1316 -0.0630
 3222DOPS   C1A37809  32.750  21.593  11.007  0.0510 -0.0535  0.0884
 3222DOPS   D2A37810  32.763  21.337  11.340 -0.0588 -0.0058  0.2186
 3222DOPS   C3A37811  32.582  21.625  11.624  0.0563 -0.0549  0.0015
 3222DOPS   C4A37812  32.652  22.066  11.717 -0.2970 -0.1497 -0.2616
 3222DOPS   C1B37813  33.356  21.540  11.039  0.1203 -0.1818  0.0816
 3222DOPS   D2B37814  33.820  21.397  11.027  0.3388  0.1340 -0.0920
 3222DOPS   C3B37815  33.991  21.391  11.493  0.1303  0.0111  0.0063
 3222DOPS   C4B37816  34.340  21.200  11.738  0.1113  0.0032 -0.0618
 3223POSM   NC337817   2.796  19.842  10.893  0.1855  0.0670  0.1004
 3223POSM   PO437818   2.770  19.461  11.000  0.0304  0.0378  0.3378
 3223POSM   AM137819   2.695  19.467  11.323  0.0880 -0.0740  0.1047
 3223POSM   AM237820   2.635  19.254  11.540  0.1091 -0.1212 -0.0126
 3223POSM   T1A37821   2.709  19.658  11.781  0.0539  0.0179 -0.0309
 3223POSM   C2A37822   2.778  19.970  12.147 -0.2184  0.0133  0.3799
 3223POSM   C3A37823   2.791  20.409  12.200 -0.1016  0.1517  0.3464
 3223POSM   C1B37824   2.515  19.236  11.870 -0.1754 -0.1531 -0.0844
 3223POSM   D2B37825   2.390  19.572  12.216  0.0301 -0.0677 -0.1176
 3223POSM   C3B37826   2.621  19.532  12.616  0.1200 -0.2451  0.2456
 3223POSM   C4B37827   2.814  19.614  13.037  0.2773 -0.0201  0.1505
 3224DOPS   CNO37828  34.461  17.577  10.854 -0.0399  0.0741 -0.1760
 3224DOPS   PO437829  34.198  17.745  11.049 -0.1794  0.1766  0.0700
 3224DOPS   GL137830  34.101  17.953  11.422 -0.4318 -0.0634 -0.1362
 3224DOPS   GL237831  34.419  18.022  11.466 -0.0894 -0.1079 -0.0336
 3224DOPS   C1A37832  33.737  18.081  11.615 -0.1176  0.0779  0.1595
 3224DOPS   D2A37833  33.241  18.052  11.747  0.0119  0.0720 -0.0573
 3224DOPS   C3A37834  32.976  18.477  11.717  0.0804 -0.0233  0.2305
 3224DOPS   C4A37835  32.868  18.930  11.732  0.0004  0.3887 -0.1452
 3224DOPS   C1B37836  34.187  17.756  11.849  0.0204  0.5665 -0.1838
 3224DOPS   D2B37837  33.731  17.625  11.984 -0.0296  0.0927 -0.0701
 3224DOPS   C3B37838  33.814  17.660  12.445  0.0842  0.2527  0.1951
 3224DOPS   C4B37839  34.030  17.783  12.853  0.1856 -0.0106  0.3123
 3225POSM   NC337840  23.853  20.475   9.165  0.2213  0.2653 -0.2284
 3225POSM   PO437841  23.849  20.822   9.322  0.0865 -0.2129  0.1875
 3225POSM   AM137842  23.992  20.732   9.623  0.3003 -0.1935  0.4275
 3225POSM   AM237843  24.256  20.605   9.698  0.1337  0.2080  0.0554
 3225POSM   T1A37844  23.954  20.500  10.070 -0.0071  0.0472  0.0091
 3225POSM   C2A37845  23.850  20.324  10.511 -0.0594  0.0242  0.0057
 3225POSM   C3A37846  23.757  20.337  10.928 -0.1128 -0.1035 -0.2869
 3225POSM   C1B37847  24.345  20.789   9.958  0.1043  0.0176 -0.1064
 3225POSM   D2B37848  24.662  20.758  10.306  0.1073 -0.0685 -0.5280
 3225POSM   C3B37849  24.720  21.004  10.695  0.0114  0.0667 -0.2049
 3225POSM   C4B37850  24.641  20.970  11.120  0.2155 -0.0905 -0.1221
 3226DOPC   NC337851  24.821  22.571   9.373  0.0627 -0.0801 -0.1898
 3226DOPC   PO437852  24.532  22.746   9.530  0.0944  0.1333 -0.1256
 3226DOPC   GL137853  24.535  23.056   9.819  0.1338 -0.0076  0.4752
 3226DOPC   GL237854  24.741  22.851  10.055  0.0451 -0.1611 -0.1711
 3226DOPC   C1A37855  24.212  22.871  10.115  0.0946  0.1339  0.1437
 3226DOPC   D2A37856  23.973  22.657  10.440  0.0675  0.0313 -0.3448
 3226DOPC   C3A37857  23.915  22.799  10.931 -0.0260  0.1322 -0.0439
 3226DOPC   C4A37858  24.065  22.939  11.331 -0.0231  0.0993 -0.1632
 3226DOPC   C1B37859  24.751  22.773  10.448 -0.2359 -0.0893 -0.0588
 3226DOPC   D2B37860  24.859  22.494  10.812  0.1955 -0.2680 -0.0655
 3226DOPC   C3B37861  25.275  22.339  10.868 -0.0059 -0.1537 -0.3269
 3226DOPC   C4B37862  25.685  22.474  10.964  0.1948  0.3209  0.4339
 3227DOPC   NC337863  34.502  13.781  11.856 -0.0142  0.2747 -0.1562
 3227DOPC   PO437864  34.903  13.688  11.951 -0.0954 -0.2290 -0.1437
 3227DOPC   GL137865  34.896  13.766  12.399 -0.2150 -0.1265  0.1405
 3227DOPC   GL237866  34.594  13.788  12.383 -0.2659 -0.1869 -0.0266
 3227DOPC   C1A37867  34.740  13.683  12.845 -0.2524 -0.0531 -0.0380
 3227DOPC   D2A37868  34.568  13.380  13.159 -0.2683  0.1162  0.1303
 3227DOPC   C3A37869  34.443  13.317  13.629 -0.1884 -0.4723  0.0355
 3227DOPC   C4A37870  33.992  13.329  13.884  0.0684  0.2688 -0.1800
 3227DOPC   C1B37871  34.426  13.364  12.541 -0.1198  0.0869  0.0081
 3227DOPC   D2B37872  34.188  13.197  12.898  0.0176  0.0564 -0.1115
 3227DOPC   C3B37873  34.183  12.898  13.277 -0.0864 -0.1404  0.0431
 3227DOPC   C4B37874  34.195  12.470  13.422 -0.0811 -0.0771 -0.2956
 3228DOPC   NC337875  26.216  13.147  10.112 -0.2456 -0.3087 -0.0574
 3228DOPC   PO437876  26.213  12.801  10.321  0.1287 -0.0095  0.2696
 3228DOPC   GL137877  26.153  12.570  10.651  0.2903  0.1446 -0.4278
 3228DOPC   GL237878  25.928  12.377  10.598  0.0655 -0.1225 -0.1382
 3228DOPC   C1A37879  26.070  12.612  11.097  0.4672 -0.1072 -0.1408
 3228DOPC   D2A37880  25.789  12.658  11.454 -0.0983  0.0821 -0.0585
 3228DOPC   C3A37881  25.624  12.917  11.845  0.0834  0.0834  0.1357
 3228DOPC   C4A37882  25.300  13.115  12.098 -0.2220  0.1377 -0.4074
 3228DOPC   C1B37883  25.608  12.422  10.912 -0.0293  0.1306  0.3140
 3228DOPC   D2B37884  25.315  12.689  11.068  0.0608 -0.1512  0.3659
 3228DOPC   C3B37885  25.288  12.845  11.492  0.2083 -0.2268  0.0209
 3228DOPC   C4B37886  25.131  12.680  11.871  0.0960 -0.0953 -0.0604
 3229POSM   NC337887  31.192  21.293  10.495 -0.0471  0.0029  0.0901
 3229POSM   PO437888  31.437  21.541  10.270  0.2950  0.0999 -0.0596
 3229POSM   AM137889  31.487  21.704  10.587  0.0500  0.0511  0.0423
 3229POSM   AM237890  31.435  21.977  10.645 -0.0211  0.2457  0.1900
 3229POSM   T1A37891  31.449  21.799  11.087 -0.0376  0.1799 -0.0312
 3229POSM   C2A37892  31.507  22.024  11.502 -0.1952  0.1846 -0.0675
 3229POSM   C3A37893  31.215  22.282  11.719  0.0980 -0.0360  0.4436
 3229POSM   C1B37894  31.690  22.155  10.810  0.0475 -0.1023  0.1011
 3229POSM   D2B37895  31.946  22.155  11.159  0.0343 -0.1255  0.3545
 3229POSM   C3B37896  32.113  21.832  11.431  0.1499  0.3569  0.3165
 3229POSM   C4B37897  32.107  21.433  11.678 -0.2537  0.1139 -0.4392
 3230POSM   NC337898  27.503  19.150  10.066 -0.2625  0.0901  0.0910
 3230POSM   PO437899  27.727  18.943  10.307 -0.1434  0.1061  0.1962
 3230POSM   AM137900  27.783  19.016  10.618  0.0358  0.0939 -0.6472
 3230POSM   AM237901  27.974  18.941  10.752 -0.2261  0.1927 -0.0532
 3230POSM   T1A37902  27.716  19.362  10.923  0.3335 -0.1700 -0.2314
 3230POSM   C2A37903  27.753  19.585  11.333  0.2290  0.0968  0.4702
 3230POSM   C3A37904  27.869  19.967  11.455 -0.2428  0.0256 -0.0264
 3230POSM   C1B37905  27.886  18.878  11.079 -0.0492 -0.0550 -0.0551
 3230POSM   D2B37906  28.066  18.641  11.483 -0.2631 -0.0924 -0.3142
 3230POSM   C3B37907  28.301  18.942  11.719 -0.0369  0.0207 -0.0298
 3230POSM   C4B37908  28.331  19.219  12.058  0.0100 -0.0619 -0.0634
 3231DOPE   NH337909  29.265  16.079  10.384  0.0267  0.1644  0.1341
 3231DOPE   PO437910  29.240  16.392  10.600 -0.3065 -0.0135  0.0895
 3231DOPE   GL137911  29.150  16.573  11.003 -0.1865 -0.0801  0.3928
 3231DOPE   GL237912  29.463  16.571  11.044 -0.5235  0.0873 -0.3066
 3231DOPE   C1A37913  29.102  16.414  11.404 -0.4962  0.0752 -0.1410
 3231DOPE   D2A37914  29.070  16.732  11.807 -0.2436 -0.2007  0.1105
 3231DOPE   C3A37915  29.140  17.208  11.881  0.0101 -0.1319  0.1181
 3231DOPE   C4A37916  29.392  17.495  12.154 -0.0563  0.0573 -0.0146
 3231DOPE   C1B37917  29.533  16.609  11.501  0.0665 -0.3356  0.0718
 3231DOPE   D2B37918  29.485  16.502  11.943  0.1609 -0.2476 -0.0340
 3231DOPE   C3B37919  29.414  16.910  12.192  0.1584 -0.2187 -0.0105
 3231DOPE   C4B37920  29.559  17.182  12.554 -0.0199  0.1839  0.2885
 3232DOPS   CNO37921   1.048  16.085  12.183  0.2121  0.0275  0.0671
 3232DOPS   PO437922   0.796  15.820  12.008 -0.0026  0.2209 -0.0453
 3232DOPS   GL137923   0.764  15.802  12.397 -0.0756  0.2076  0.1585
 3232DOPS   GL237924   0.804  15.550  12.533  0.0239  0.0538 -0.3693
 3232DOPS   C1A37925   0.522  15.819  12.788 -0.2048 -0.2068  0.2786
 3232DOPS   D2A37926   0.226  16.001  13.049  0.2905 -0.2175 -0.1497
 3232DOPS   C3A37927   0.098  16.453  13.286  0.0738 -0.0953 -0.0391
 3232DOPS   C4A37928  -0.266  16.808  13.341  0.2906  0.2355  0.1184
 3232DOPS   C1B37929   0.664  15.306  12.920  0.1314 -0.4622  0.1727
 3232DOPS   D2B37930   0.587  15.149  13.325 -0.1903 -0.0625  0.2375
 3232DOPS   C3B37931   0.762  14.718  13.432  0.3050  0.1189 -0.0363
 3232DOPS   C4B37932   1.043  14.376  13.207 -0.0370 -0.0259  0.1381
 3233DOPE   NH337933  34.633  23.834  10.229  0.2374 -0.0642  0.0760
 3233DOPE   PO437934  34.579  24.077  10.384  0.2099  0.2283  0.0096
 3233DOPE   GL137935  34.341  24.175  10.627 -0.0991  0.1741 -0.1114
 3233DOPE   GL237936  34.107  24.182  10.655 -0.1202  0.2784  0.3555
 3233DOPE   C1A37937  34.487  24.265  11.046  0.0304 -0.0243  0.2422
 3233DOPE   D2A37938  34.527  24.591  11.345  0.1700  0.2079  0.0621
 3233DOPE   C3A37939  34.674  24.974  11.641 -0.2754  0.1432  0.0223
 3233DOPE   C4A37940  34.992  25.276  11.744 -0.2034  0.0764 -0.1464
 3233DOPE   C1B37941  34.150  24.545  10.838 -0.0066 -0.0874 -0.0321
 3233DOPE   D2B37942  33.904  24.737  11.213 -0.0027  0.0875  0.0158
 3233DOPE   C3B37943  34.085  24.656  11.605  0.1935  0.2801  0.1003
 3233DOPE   C4B37944  34.012  24.572  12.020 -0.0991 -0.2298 -0.1572
 3234DOPC   NC337945  24.227  18.087   9.933  0.0007  0.3712 -0.0089
 3234DOPC   PO437946  24.553  18.312   9.788  0.1177  0.2320  0.3091
 3234DOPC   GL137947  24.459  18.373  10.175  0.0682  0.3388 -0.1381
 3234DOPC   GL237948  24.645  18.209  10.295  0.1857 -0.0476 -0.1103
 3234DOPC   C1A37949  24.088  18.190  10.418  0.0288  0.0823  0.0378
 3234DOPC   D2A37950  24.083  18.098  10.902 -0.0626  0.0803  0.0655
 3234DOPC   C3A37951  23.745  17.878  10.894 -0.1677 -0.0625  0.1156
 3234DOPC   C4A37952  23.311  17.761  10.769 -0.3986 -0.4276  0.0394
 3234DOPC   C1B37953  24.999  18.542  10.303 -0.1001 -0.0921 -0.3495
 3234DOPC   D2B37954  25.122  19.029  10.335 -0.0869 -0.0843  0.0022
 3234DOPC   C3B37955  24.868  19.318  10.597 -0.0738  0.1459 -0.1404
 3234DOPC   C4B37956  24.628  19.238  10.942 -0.0602  0.1636  0.1014
 3235DOPC   NC337957  25.189  14.459   9.643 -0.2165  0.2084  0.1947
 3235DOPC   PO437958  25.582  14.366   9.787 -0.2151  0.0432  0.0607
 3235DOPC   GL137959  25.732  14.566  10.193 -0.0758 -0.0840 -0.0169
 3235DOPC   GL237960  25.712  14.927  10.272 -0.2082  0.1009  0.1135
 3235DOPC   C1A37961  25.779  14.330  10.590 -0.0039 -0.0293  0.2472
 3235DOPC   D2A37962  25.752  14.144  11.019 -0.2768 -0.1225  0.0246
 3235DOPC   C3A37963  25.838  14.061  11.458  0.1174  0.2309 -0.1517
 3235DOPC   C4A37964  25.854  13.881  11.918 -0.0677 -0.0998 -0.5758
 3235DOPC   C1B37965  25.659  14.801  10.725  0.5199 -0.3908  0.1600
 3235DOPC   D2B37966  25.346  14.453  10.864 -0.0320  0.0807 -0.0772
 3235DOPC   C3B37967  25.471  14.525  11.305 -0.2346  0.0077 -0.0655
 3235DOPC   C4B37968  25.510  14.494  11.772  0.0097  0.2742  0.1100
 3236POSM   NC337969   4.112  19.437  11.222  0.0713 -0.0361  0.0305
 3236POSM   PO437970   3.932  19.075  11.310  0.0322 -0.3970  0.1849
 3236POSM   AM137971   3.881  19.187  11.595 -0.3568 -0.4494 -0.4241
 3236POSM   AM237972   4.009  19.419  11.725 -0.3151 -0.1372  0.1921
 3236POSM   T1A37973   3.554  19.312  11.929 -0.3375  0.0561 -0.0439
 3236POSM   C2A37974   3.465  19.603  12.274  0.0563 -0.3532 -0.2499
 3236POSM   C3A37975   3.569  19.866  12.712  0.1649 -0.0901 -0.1424
 3236POSM   C1B37976   4.031  19.567  12.025  0.0232  0.0813 -0.1081
 3236POSM   D2B37977   3.934  19.838  12.401 -0.3018  0.0557  0.1647
 3236POSM   C3B37978   4.160  19.888  12.764  0.3187  0.0047 -0.0311
 3236POSM   C4B37979   4.385  19.881  13.173 -0.0202 -0.0445 -0.0544
 3237POSM   NC337980  27.349  20.870   9.379 -0.1415  0.0983  0.2085
 3237POSM   PO437981  27.425  20.612   9.646 -0.0929 -0.0661 -0.0522
 3237POSM   AM137982  27.420  20.691   9.991  0.0702  0.0448  0.2552
 3237POSM   AM237983  27.304  20.643  10.287 -0.2285 -0.0928 -0.1073
 3237POSM   T1A37984  27.548  21.127  10.269 -0.0671 -0.2357  0.1200
 3237POSM   C2A37985  27.374  21.098  10.703  0.1269  0.0421 -0.0671
 3237POSM   C3A37986  27.049  20.964  10.996 -0.1004 -0.4681 -0.0623
 3237POSM   C1B37987  27.067  20.896  10.332 -0.2099 -0.5154  0.0906
 3237POSM   D2B37988  26.744  21.124  10.472 -0.0537  0.2837  0.3240
 3237POSM   C3B37989  26.542  21.255  10.885 -0.1999  0.0159 -0.1512
 3237POSM   C4B37990  26.554  21.280  11.335 -0.0507  0.1863  0.2120
 3238DOPS   CNO37991  33.438  14.926  11.465  0.2705  0.0003  0.1108
 3238DOPS   PO437992  33.727  14.901  11.675 -0.2938 -0.1627 -0.0601
 3238DOPS   GL137993  33.802  14.919  12.095 -0.3317  0.2553  0.2753
 3238DOPS   GL237994  33.490  14.955  12.107  0.1972 -0.0390 -0.0764
 3238DOPS   C1A37995  33.687  14.932  12.566  0.1289 -0.0696  0.2240
 3238DOPS   D2A37996  33.400  14.783  12.877 -0.1185  0.0471  0.1328
 3238DOPS   C3A37997  33.208  14.914  13.262  0.1673  0.2223 -0.0636
 3238DOPS   C4A37998  33.263  15.084  13.661  0.1859 -0.0414  0.2160
 3238DOPS   C1B37999  33.178  14.874  12.451 -0.3316 -0.2825  0.1248
 3238DOPS   D2B38000  32.958  14.613  12.763 -0.3732 -0.3356  0.2363
 3238DOPS   C3B38001  33.163  14.447  13.133 -0.0125 -0.1793  0.5405
 3238DOPS   C4B38002  33.126  14.553  13.586  0.2022  0.1957  0.0403
 3239POSM   NC338003  25.036  12.205  10.034 -0.0836 -0.0537 -0.0591
 3239POSM   PO438004  25.437  12.169   9.907  0.3617  0.2542  0.1649
 3239POSM   AM138005  25.443  12.226  10.251 -0.1111 -0.0279  0.1169
 3239POSM   AM238006  25.405  12.363  10.459 -0.2815 -0.2293 -0.1527
 3239POSM   T1A38007  25.636  12.001  10.650 -0.1664  0.1069  0.0368
 3239POSM   C2A38008  25.901  12.049  11.043  0.0025  0.0111 -0.0173
 3239POSM   C3A38009  25.782  12.068  11.479  0.0446  0.0190  0.0810
 3239POSM   C1B38010  25.474  12.663  10.486 -0.2527  0.1441 -0.0851
 3239POSM   D2B38011  25.621  12.968  10.830  0.0838 -0.3031 -0.1541
 3239POSM   C3B38012  25.392  13.349  10.764 -0.1692  0.2163  0.0287
 3239POSM   C4B38013  25.399  13.740  11.001 -0.1802  0.1366 -0.0429
 3240DOPE   NH338014  29.935  19.418  10.396  0.1860  0.0179 -0.1146
 3240DOPE   PO438015  29.615  19.467  10.402  0.1623  0.1813 -0.0915
 3240DOPE   GL138016  29.643  19.348  10.740  0.1629  0.0406 -0.2293
 3240DOPE   GL238017  29.345  19.317  10.869 -0.2812 -0.0537  0.2302
 3240DOPE   C1A38018  29.695  19.453  11.215  0.1148  0.0511 -0.2537
 3240DOPE   D2A38019  29.643  19.707  11.564  0.2277  0.2746 -0.1706
 3240DOPE   C3A38020  29.800  19.441  11.898 -0.3989  0.1575  0.2003
 3240DOPE   C4A38021  29.958  19.318  12.284  0.2211 -0.2719 -0.2499
 3240DOPE   C1B38022  29.312  19.167  11.324  0.0455  0.2821  0.2788
 3240DOPE   D2B38023  29.340  19.358  11.744 -0.2039 -0.0246  0.0262
 3240DOPE   C3B38024  29.312  19.554  12.088  0.0512  0.0032  0.1978
 3240DOPE   C4B38025  29.619  19.814  12.381 -0.1374  0.0470 -0.3063
 3241DOPE   NH338026  26.261  16.669  10.126 -0.2409 -0.0347 -0.2244
 3241DOPE   PO438027  26.003  16.477  10.103  0.0897  0.0403  0.1031
 3241DOPE   GL138028  25.955  16.651  10.474 -0.1098 -0.0786 -0.0056
 3241DOPE   GL238029  25.761  16.398  10.558  0.0198  0.1483 -0.0399
 3241DOPE   C1A38030  26.086  17.050  10.758  0.0512  0.1290  0.0602
 3241DOPE   D2A38031  26.101  17.491  10.889  0.3604 -0.0298  0.0462
 3241DOPE   C3A38032  25.852  17.699  11.229  0.0001 -0.0887 -0.0914
 3241DOPE   C4A38033  25.398  17.706  11.312 -0.0592 -0.3809  0.1224
 3241DOPE   C1B38034  25.421  16.443  10.855 -0.3238  0.1021 -0.2261
 3241DOPE   D2B38035  25.325  16.574  11.271  0.1204  0.1587  0.0695
 3241DOPE   C3B38036  25.136  16.837  11.655 -0.0211 -0.2491  0.2043
 3241DOPE   C4B38037  24.768  16.848  11.851  0.1608  0.1374  0.2080
 3242DOPE   NH338038  23.935  13.072   9.776 -0.0717  0.0433  0.3196
 3242DOPE   PO438039  24.188  13.178   9.919  0.1621 -0.3118  0.2613
 3242DOPE   GL138040  24.106  13.282  10.314 -0.1710  0.0899  0.0970
 3242DOPE   GL238041  24.205  13.076  10.519 -0.0091  0.2681  0.2203
 3242DOPE   C1A38042  24.166  13.721  10.531  0.0218  0.0263  0.2013
 3242DOPE   D2A38043  24.209  14.022  10.882  0.2431 -0.0845 -0.0350
 3242DOPE   C3A38044  24.476  13.998  11.284  0.1044 -0.0127  0.2405
 3242DOPE   C4A38045  24.765  14.139  11.612 -0.2248  0.2714 -0.0766
 3242DOPE   C1B38046  24.408  13.046  10.944  0.1521  0.2323  0.3965
 3242DOPE   D2B38047  24.547  13.164  11.345  0.0061 -0.0403 -0.0067
 3242DOPE   C3B38048  24.579  13.522  11.520 -0.2603  0.2055 -0.1487
 3242DOPE   C4B38049  25.037  13.655  11.513 -0.4392 -0.1877 -0.0910
 3243DOPS   CNO38050  28.456  13.604  10.251 -0.0901  0.1695  0.3587
 3243DOPS   PO438051  28.410  13.724  10.609  0.2132 -0.3932 -0.0468
 3243DOPS   GL138052  28.279  13.769  10.997 -0.3501  0.4080 -0.1156
 3243DOPS   GL238053  28.319  13.499  11.083 -0.1889 -0.0606  0.1041
 3243DOPS   C1A38054  27.910  13.798  11.281  0.1070  0.3752 -0.3112
 3243DOPS   D2A38055  27.659  13.555  11.681  0.1523 -0.1977 -0.0928
 3243DOPS   C3A38056  27.514  13.824  12.013 -0.0662 -0.3304 -0.0783
 3243DOPS   C4A38057  27.424  14.274  12.087  0.2029  0.0568  0.2267
 3243DOPS   C1B38058  28.594  13.235  11.380  0.0989 -0.4086 -0.1919
 3243DOPS   D2B38059  28.931  13.021  11.607 -0.2513  0.0312  0.1209
 3243DOPS   C3B38060  28.822  12.640  11.795  0.4730  0.2122 -0.1203
 3243DOPS   C4B38061  28.685  12.201  11.807  0.3395  0.1919 -0.1367
 3244POSM   NC338062  32.565  14.694  11.327 -0.0975  0.3130  0.2010
 3244POSM   PO438063  32.187  14.749  11.309  0.2341  0.0549 -0.2591
 3244POSM   AM138064  32.157  14.621  11.585  0.1742 -0.0910 -0.0197
 3244POSM   AM238065  32.024  14.658  11.809  0.0175 -0.2481 -0.0111
 3244POSM   T1A38066  32.207  14.223  11.880 -0.0755  0.0467  0.0769
 3244POSM   C2A38067  32.681  14.114  12.016 -0.1553 -0.2541  0.1621
 3244POSM   C3A38068  33.019  14.388  12.225  0.1139 -0.0141  0.2122
 3244POSM   C1B38069  32.114  14.786  12.144 -0.0665  0.3660 -0.3058
 3244POSM   D2B38070  32.080  14.732  12.586 -0.0359 -0.0817  0.1147
 3244POSM   C3B38071  32.455  14.700  12.917 -0.0279 -0.1007  0.0845
 3244POSM   C4B38072  32.697  14.929  13.220 -0.1397 -0.0789  0.2200
 3245POSM   NC338073   1.907  18.117  11.164 -0.2504 -0.0593  0.4332
 3245POSM   PO438074   1.650  17.898  11.342  0.1808  0.3010 -0.1375
 3245POSM   AM138075   1.617  17.872  11.662 -0.2701 -0.1116  0.1480
 3245POSM   AM238076   1.798  17.865  11.937 -0.0520  0.2580 -0.2364
 3245POSM   T1A38077   1.304  17.797  12.080  0.2331 -0.2144 -0.2407
 3245POSM   C2A38078   1.014  17.570  12.312 -0.0548  0.1776  0.3476
 3245POSM   C3A38079   0.995  17.441  12.762  0.0482 -0.0474 -0.2956
 3245POSM   C1B38080   1.744  17.850  12.273 -0.0098  0.2278  0.1775
 3245POSM   D2B38081   1.820  17.862  12.732 -0.0138  0.2147 -0.1426
 3245POSM   C3B38082   1.888  18.085  13.140  0.1148 -0.0561 -0.0111
 3245POSM   C4B38083   1.812  18.437  13.457 -0.2947 -0.0167  0.0134
 3246DOPE   NH338084  31.280  15.239  10.817 -0.2772 -0.1464  0.1390
 3246DOPE   PO438085  31.396  14.984  11.002 -0.0299  0.2040 -0.0987
 3246DOPE   GL138086  31.314  15.071  11.391  0.0281 -0.2152  0.0342
 3246DOPE   GL238087  31.540  15.259  11.414  0.3816 -0.1616  0.1708
 3246DOPE   C1A38088  30.918  14.945  11.570  0.1020 -0.1021 -0.0687
 3246DOPE   D2A38089  30.720  14.538  11.716  0.0267 -0.0169  0.0492
 3246DOPE   C3A38090  30.733  14.428  12.151  0.0488 -0.0902  0.0789
 3246DOPE   C4A38091  30.884  14.539  12.596  0.1734 -0.0179 -0.1683
 3246DOPE   C1B38092  31.164  15.468  11.543  0.0193  0.0096 -0.1131
 3246DOPE   D2B38093  30.852  15.484  11.918 -0.2537  0.2171 -0.0449
 3246DOPE   C3B38094  30.505  15.479  12.225  0.2661  0.1196  0.0914
 3246DOPE   C4B38095  30.104  15.196  12.249  0.1055 -0.0021  0.0959
 3247DOPS   CNO38096  25.928  24.523   9.386  0.0925  0.1852 -0.1223
 3247DOPS   PO438097  25.699  24.391   9.652 -0.1498  0.1606  0.0810
 3247DOPS   GL138098  25.767  24.397  10.016 -0.1445 -0.1793 -0.3756
 3247DOPS   GL238099  25.625  24.232  10.161 -0.1691 -0.0049  0.0792
 3247DOPS   C1A38100  25.859  24.572  10.411 -0.1187  0.4005  0.1137
 3247DOPS   D2A38101  26.012  24.738  10.811  0.2402  0.0528 -0.3055
 3247DOPS   C3A38102  26.366  24.645  11.068 -0.0840  0.0405  0.1760
 3247DOPS   C4A38103  26.813  24.628  11.158  0.1816 -0.0172 -0.0967
 3247DOPS   C1B38104  25.658  24.118  10.593 -0.3030 -0.1096  0.3438
 3247DOPS   D2B38105  25.676  24.255  11.031 -0.0158 -0.0955  0.0141
 3247DOPS   C3B38106  25.336  24.182  11.381 -0.0418 -0.1053 -0.1750
 3247DOPS   C4B38107  24.994  24.059  11.544  0.3971 -0.3973 -0.3323
 3248DOPE   NH338108  32.404  16.593  11.304 -0.0514 -0.0152 -0.1113
 3248DOPE   PO438109  32.280  16.353  11.433  0.1099  0.5731 -0.1571
 3248DOPE   GL138110  32.192  16.232  11.843  0.1750  0.0429  0.1791
 3248DOPE   GL238111  32.065  15.934  11.735  0.1870  0.0024  0.3287
 3248DOPE   C1A38112  32.049  16.411  12.196 -0.2019  0.0136 -0.2673
 3248DOPE   D2A38113  31.648  16.570  12.320  0.2432 -0.1572 -0.1221
 3248DOPE   C3A38114  31.563  16.597  12.770 -0.0442  0.1660  0.0476
 3248DOPE   C4A38115  31.458  16.307  13.155 -0.0545 -0.2517  0.2675
 3248DOPE   C1B38116  31.971  15.792  12.188 -0.0920  0.0454  0.0255
 3248DOPE   D2B38117  31.874  15.639  12.620  0.2950 -0.2843 -0.0559
 3248DOPE   C3B38118  31.664  15.915  12.920  0.1617 -0.2979  0.0040
 3248DOPE   C4B38119  31.156  15.928  13.023  0.1675 -0.1023 -0.0362
 3249POSM   NC338120  23.220  16.870   9.521  0.0268 -0.0041  0.3248
 3249POSM   PO438121  23.495  16.644   9.764 -0.0071 -0.0926 -0.2356
 3249POSM   AM138122  23.501  16.667  10.072  0.0259  0.1063 -0.1455
 3249POSM   AM238123  23.662  16.743  10.269  0.0909 -0.0303 -0.1460
 3249POSM   T1A38124  23.169  16.634  10.425 -0.1531 -0.0263  0.1333
 3249POSM   C2A38125  23.108  16.641  10.842 -0.1348 -0.1821  0.1827
 3249POSM   C3A38126  23.217  16.962  11.186  0.3877 -0.2740  0.3910
 3249POSM   C1B38127  23.637  16.707  10.618  0.1067  0.0640 -0.0370
 3249POSM   D2B38128  23.590  16.405  10.934  0.2742 -0.2073 -0.1346
 3249POSM   C3B38129  23.204  16.099  10.977 -0.0071  0.3536  0.0357
 3249POSM   C4B38130  22.786  15.917  10.842 -0.2166 -0.1283  0.3252
 3250POSM   NC338131  23.893  23.628   9.525  0.1372 -0.0580  0.0748
 3250POSM   PO438132  23.826  23.355   9.255  0.0955 -0.0270  0.0793
 3250POSM   AM138133  23.793  23.167   9.542 -0.1519  0.3326 -0.2051
 3250POSM   AM238134  23.995  23.149   9.773  0.1114  0.2435  0.1729
 3250POSM   T1A38135  23.575  22.842   9.842 -0.0624  0.0313  0.1072
 3250POSM   C2A38136  23.633  22.447  10.024  0.1242  0.1497 -0.1418
 3250POSM   C3A38137  23.551  21.948  10.170 -0.1860 -0.1003  0.1013
 3250POSM   C1B38138  23.859  23.170  10.101 -0.1971 -0.1587  0.0401
 3250POSM   D2B38139  23.815  23.217  10.540 -0.0030  0.1917  0.1309
 3250POSM   C3B38140  24.050  23.297  10.901 -0.1192 -0.0177 -0.0401
 3250POSM   C4B38141  24.451  23.202  11.144 -0.1127 -0.1464  0.1047
 3251DOPC   NC338142  28.669  20.215  10.228  0.2316  0.0185 -0.1148
 3251DOPC   PO438143  28.679  19.916   9.943 -0.1502  0.0203 -0.1280
 3251DOPC   GL138144  28.768  19.811  10.385  0.6568 -0.0586 -0.1619
 3251DOPC   GL238145  28.607  19.615  10.544  0.0549 -0.0632 -0.1342
 3251DOPC   C1A38146  28.924  20.117  10.666  0.0081  0.2709 -0.0051
 3251DOPC   D2A38147  29.119  20.271  11.007 -0.0089 -0.0018 -0.1095
 3251DOPC   C3A38148  28.917  20.577  11.321 -0.0796 -0.1197  0.3156
 3251DOPC   C4A38149  28.497  20.547  11.605  0.0126 -0.0431 -0.1387
 3251DOPC   C1B38150  28.721  19.804  10.949 -0.4972 -0.0246 -0.0293
 3251DOPC   D2B38151  28.763  20.004  11.365  0.1646 -0.2247 -0.0252
 3251DOPC   C3B38152  28.955  20.309  11.723  0.2816  0.2249  0.0400
 3251DOPC   C4B38153  28.920  20.725  11.819  0.0389  0.1220  0.0961
 3252POSM   NC338154  25.375  20.088   9.920 -0.2669 -0.1374 -0.1481
 3252POSM   PO438155  25.235  20.290   9.651 -0.0277  0.3067 -0.0612
 3252POSM   AM138156  25.070  20.429   9.888 -0.0796  0.0393 -0.0600
 3252POSM   AM238157  25.062  20.635  10.079 -0.1269 -0.0776  0.1757
 3252POSM   T1A38158  24.936  20.308  10.406  0.1840  0.1243 -0.0994
 3252POSM   C2A38159  25.146  20.215  10.799 -0.1677 -0.0360  0.4101
 3252POSM   C3A38160  25.471  19.948  10.963 -0.1915  0.1124 -0.0886
 3252POSM   C1B38161  25.105  20.795  10.389 -0.2257 -0.4681 -0.0752
 3252POSM   D2B38162  25.152  20.860  10.861 -0.0185 -0.1335  0.1792
 3252POSM   C3B38163  24.939  20.558  11.122 -0.1339  0.0401 -0.1907
 3252POSM   C4B38164  24.628  20.304  11.339  0.0675 -0.0471  0.1417
 3253DOPE   NH338165  26.727  16.121  10.473  0.0567 -0.0267 -0.1348
 3253DOPE   PO438166  26.943  16.325  10.626 -0.1422  0.1617  0.0328
 3253DOPE   GL138167  27.020  16.455  11.013  0.1797  0.0263  0.2705
 3253DOPE   GL238168  26.855  16.240  11.129 -0.0512  0.5956 -0.3338
 3253DOPE   C1A38169  26.916  16.657  11.399 -0.2216  0.2791  0.0242
 3253DOPE   D2A38170  27.018  16.987  11.660 -0.2373 -0.0150 -0.6654
 3253DOPE   C3A38171  26.862  17.142  12.125 -0.1914 -0.0008 -0.0437
 3253DOPE   C4A38172  26.827  17.238  12.562  0.3388 -0.0696  0.0798
 3253DOPE   C1B38173  26.541  16.161  11.461 -0.2593 -0.3636 -0.0186
 3253DOPE   D2B38174  26.557  16.002  11.861 -0.4053  0.2167 -0.0104
 3253DOPE   C3B38175  26.437  16.319  12.264  0.2437  0.1210 -0.0443
 3253DOPE   C4B38176  26.385  16.445  12.683 -0.1821 -0.1183 -0.0979
 3254DOPS   CNO38177  26.136  17.808   9.835 -0.0651  0.0651 -0.1714
 3254DOPS   PO438178  26.294  17.838  10.175 -0.2123  0.0125  0.2217
 3254DOPS   GL138179  26.345  17.905  10.562 -0.1062 -0.2689 -0.0526
 3254DOPS   GL238180  26.462  17.753  10.762  0.0281 -0.1695 -0.2102
 3254DOPS   C1A38181  26.576  18.202  10.862 -0.0540 -0.2428 -0.1229
 3254DOPS   D2A38182  26.754  18.251  11.287  0.0229  0.2368  0.1858
 3254DOPS   C3A38183  27.118  18.393  11.476  0.0690 -0.3181  0.0501
 3254DOPS   C4A38184  27.108  18.866  11.543  0.0029 -0.2329  0.1966
 3254DOPS   C1B38185  26.417  17.756  11.224 -0.0331 -0.1788 -0.2150
 3254DOPS   D2B38186  26.595  17.800  11.668 -0.1912  0.3127  0.2769
 3254DOPS   C3B38187  26.599  18.262  11.772  0.0664 -0.1266  0.0954
 3254DOPS   C4B38188  26.664  18.629  11.529  0.0724  0.1428  0.0679
 3255DOPC   NC338189  27.888  20.005  10.037 -0.0707  0.1419 -0.3500
 3255DOPC   PO438190  28.222  19.839  10.233  0.1961 -0.1458 -0.0200
 3255DOPC   GL138191  28.017  19.982  10.532 -0.1516 -0.1311  0.2769
 3255DOPC   GL238192  27.722  19.953  10.499 -0.2131 -0.2733 -0.1581
 3255DOPC   C1A38193  28.067  19.801  10.964 -0.3186 -0.4520  0.0125
 3255DOPC   D2A38194  28.353  19.699  11.358  0.2481  0.0958 -0.0100
 3255DOPC   C3A38195  28.590  19.308  11.490 -0.0343 -0.2856  0.0410
 3255DOPC   C4A38196  28.810  19.303  11.907  0.0243  0.0568  0.1327
 3255DOPC   C1B38197  27.665  20.381  10.515  0.1656 -0.0467 -0.1071
 3255DOPC   D2B38198  27.779  20.780  10.598  0.0394  0.1064 -0.1627
 3255DOPC   C3B38199  27.891  20.969  11.013 -0.3143 -0.0611 -0.0085
 3255DOPC   C4B38200  28.171  20.790  11.360 -0.1856 -0.2225 -0.1415
 3256DOPC   NC338201  31.931  19.993  10.749 -0.0299 -0.2916  0.1403
 3256DOPC   PO438202  32.199  20.065  10.447  0.5628  0.2560 -0.3601
 3256DOPC   GL138203  32.316  20.322  10.710  0.0414 -0.0072  0.2283
 3256DOPC   GL238204  32.343  20.158  10.971 -0.0437 -0.1122 -0.4090
 3256DOPC   C1A38205  32.733  20.421  10.978 -0.1508  0.2418 -0.3286
 3256DOPC   D2A38206  33.037  20.471  11.346 -0.3711 -0.0219 -0.0353
 3256DOPC   C3A38207  32.963  20.444  11.810  0.0761  0.5080 -0.0311
 3256DOPC   C4A38208  32.888  20.337  12.259 -0.2191 -0.1040  0.1287
 3256DOPC   C1B38209  32.522  20.322  11.412 -0.1574 -0.0981 -0.3561
 3256DOPC   D2B38210  32.460  20.337  11.896 -0.3233 -0.4759  0.0922
 3256DOPC   C3B38211  32.615  20.745  12.088  0.3202  0.0156  0.1025
 3256DOPC   C4B38212  32.913  20.997  12.358 -0.3711 -0.1476 -0.3810
 3257DOPC   NC338213  25.974  19.227  10.226  0.2158  0.0426 -0.2925
 3257DOPC   PO438214  26.200  19.505  10.062 -0.2243 -0.0085  0.4559
 3257DOPC   GL138215  26.318  19.521  10.423  0.0890  0.1070  0.0636
 3257DOPC   GL238216  26.280  19.841  10.415  0.1760  0.0871 -0.0598
 3257DOPC   C1A38217  26.197  19.291  10.821  0.3846  0.3373  0.0569
 3257DOPC   D2A38218  25.900  19.178  11.189  0.0824  0.2729  0.0178
 3257DOPC   C3A38219  26.000  18.885  11.558 -0.1516 -0.1738  0.1922
 3257DOPC   C4A38220  26.154  18.531  11.808 -0.2098  0.1381 -0.0449
 3257DOPC   C1B38221  26.338  19.785  10.851 -0.2048  0.1385  0.0785
 3257DOPC   D2B38222  26.471  19.966  11.216  0.2474  0.2501  0.0178
 3257DOPC   C3B38223  26.436  20.284  11.538 -0.3489 -0.0573 -0.1023
 3257DOPC   C4B38224  26.306  20.313  11.931 -0.1327  0.0672  0.0380
 3258DOPS   CNO38225  31.603  18.175  10.902 -0.0519 -0.3173 -0.2168
 3258DOPS   PO438226  31.370  17.937  11.061 -0.0834  0.0756  0.0223
 3258DOPS   GL138227  31.385  18.107  11.417 -0.0046 -0.0523  0.0272
 3258DOPS   GL238228  31.547  18.398  11.360 -0.3329  0.0441 -0.1627
 3258DOPS   C1A38229  31.111  18.109  11.750 -0.0576 -0.0995 -0.1099
 3258DOPS   D2A38230  31.154  18.345  12.203  0.0571 -0.2286 -0.0850
 3258DOPS   C3A38231  30.756  18.613  12.191  0.0949 -0.3991 -0.3041
 3258DOPS   C4A38232  30.371  18.874  12.320  0.0989  0.2324 -0.3642
 3258DOPS   C1B38233  31.448  18.601  11.750  0.1279  0.2267  0.1289
 3258DOPS   D2B38234  31.635  18.584  12.186  0.1256  0.0922  0.1787
 3258DOPS   C3B38235  31.721  18.133  12.376 -0.0026 -0.1023  0.1750
 3258DOPS   C4B38236  31.972  17.814  12.455  0.0078  0.0485 -0.2127
 3259POSM   NC338237  23.672  16.136   9.634 -0.2188 -0.1270 -0.1292
 3259POSM   PO438238  23.312  15.909   9.639 -0.1797  0.1681 -0.2946
 3259POSM   AM138239  23.196  15.755   9.910  0.0208 -0.1749  0.2745
 3259POSM   AM238240  23.037  15.592  10.092 -0.0366  0.2385 -0.1396
 3259POSM   T1A38241  23.393  15.587  10.398  0.1578 -0.0629  0.0026
 3259POSM   C2A38242  23.336  15.408  10.836 -0.2320 -0.1653 -0.1188
 3259POSM   C3A38243  23.617  15.351  11.249 -0.0095  0.0246 -0.0097
 3259POSM   C1B38244  22.866  15.478  10.381  0.1659  0.0130  0.1608
 3259POSM   D2B38245  22.616  15.445  10.770  0.1492  0.2380 -0.2746
 3259POSM   C3B38246  22.751  15.149  11.043 -0.1288 -0.1036 -0.1991
 3259POSM   C4B38247  22.592  14.775  11.296  0.0553 -0.0276  0.1448
 3260POSM   NC338248  30.289  21.368  10.387 -0.1819  0.0191  0.0786
 3260POSM   PO438249  30.667  21.342  10.368 -0.2891  0.0202 -0.1516
 3260POSM   AM138250  30.667  21.377  10.701  0.1944 -0.0104  0.2092
 3260POSM   AM238251  30.579  21.620  10.814  0.1500 -0.0430 -0.1971
 3260POSM   T1A38252  30.991  21.257  11.040 -0.0480  0.2868 -0.0887
 3260POSM   C2A38253  30.894  20.956  11.378  0.1101  0.1247  0.0016
 3260POSM   C3A38254  30.767  21.088  11.829 -0.0200  0.4556  0.2180
 3260POSM   C1B38255  30.478  21.537  11.140 -0.0641 -0.1077  0.4093
 3260POSM   D2B38256  30.581  21.459  11.563 -0.0400  0.0080  0.1536
 3260POSM   C3B38257  30.261  21.420  11.885  0.0237  0.1243 -0.1580
 3260POSM   C4B38258  29.884  21.144  11.957  0.1263  0.1396 -0.0359
 3261DOPE   NH338259  21.652  19.211   8.897  0.4577  0.1069  0.1333
 3261DOPE   PO438260  21.617  19.514   8.907 -0.1131 -0.0652  0.0992
 3261DOPE   GL138261  21.734  19.579   9.276 -0.0580  0.0611  0.2423
 3261DOPE   GL238262  21.643  19.277   9.420  0.0818 -0.1705 -0.0395
 3261DOPE   C1A38263  21.603  19.928   9.544  0.2608  0.3357  0.2944
 3261DOPE   D2A38264  21.811  20.181   9.873  0.4254 -0.2463  0.2010
 3261DOPE   C3A38265  21.613  20.588   9.916  0.0928  0.4171 -0.1007
 3261DOPE   C4A38266  21.126  20.630   9.859  0.0091  0.0114  0.4782
 3261DOPE   C1B38267  21.654  19.399   9.839  0.1910 -0.1679 -0.1245
 3261DOPE   D2B38268  21.383  19.663  10.132 -0.0488  0.1542  0.1889
 3261DOPE   C3B38269  21.158  19.721  10.476  0.1947 -0.3118 -0.1815
 3261DOPE   C4B38270  20.943  19.994  10.728  0.1952 -0.0558 -0.1011
 3262DOPC   NC338271  29.660  14.742  10.948 -0.1045  0.0028  0.3659
 3262DOPC   PO438272  29.409  14.491  11.131 -0.0442  0.1357  0.1132
 3262DOPC   GL138273  29.510  14.328  11.476 -0.3777 -0.1180  0.5297
 3262DOPC   GL238274  29.791  14.322  11.515  0.2571  0.0691 -0.1918
 3262DOPC   C1A38275  29.155  14.443  11.731 -0.2133  0.1853 -0.2221
 3262DOPC   D2A38276  28.959  14.588  12.123 -0.0506  0.1991 -0.0158
 3262DOPC   C3A38277  28.717  14.301  12.372  0.0444 -0.1816 -0.0789
 3262DOPC   C4A38278  28.340  14.080  12.294  0.0512 -0.1025  0.0974
 3262DOPC   C1B38279  29.758  14.635  11.874 -0.1760 -0.0395 -0.0013
 3262DOPC   D2B38280  29.438  14.592  12.166 -0.1604 -0.0138 -0.0328
 3262DOPC   C3B38281  29.468  14.475  12.603  0.3013  0.1096 -0.2067
 3262DOPC   C4B38282  29.447  14.229  13.033  0.1987  0.3091  0.1102
 3263POSM   NC338283   2.081  16.984  12.077 -0.0014 -0.2717  0.1393
 3263POSM   PO438284   1.718  16.847  12.038  0.1955 -0.1396  0.0845
 3263POSM   AM138285   1.538  17.008  12.266  0.1413  0.2900  0.0535
 3263POSM   AM238286   1.378  16.966  12.492 -0.1136 -0.0888 -0.1581
 3263POSM   T1A38287   1.544  17.465  12.521  0.0509 -0.1145 -0.0158
 3263POSM   C2A38288   1.334  17.825  12.608  0.2153 -0.3055 -0.3329
 3263POSM   C3A38289   0.903  17.943  12.715  0.0625 -0.0570  0.0307
 3263POSM   C1B38290   1.289  16.963  12.795 -0.1158  0.2665  0.0591
 3263POSM   D2B38291   1.181  17.210  13.180  0.0835  0.2109 -0.3110
 3263POSM   C3B38292   0.947  17.497  13.492  0.1248 -0.0737  0.3736
 3263POSM   C4B38293   0.569  17.782  13.330  0.1752 -0.1329  0.0674
 3264POSM   NC338294  27.340  18.116  10.240 -0.2732 -0.2592 -0.2733
 3264POSM   PO438295  27.607  18.065  10.541  0.0212 -0.0358 -0.1927
 3264POSM   AM138296  27.623  18.147  10.858  0.2840 -0.0740 -0.1944
 3264POSM   AM238297  27.671  18.391  10.964 -0.0913  0.1589 -0.0534
 3264POSM   T1A38298  27.339  18.018  11.288 -0.1847  0.0683  0.1295
 3264POSM   C2A38299  27.037  17.932  11.618  0.1259  0.1583  0.0637
 3264POSM   C3A38300  26.915  17.961  12.031  0.0605  0.3368  0.2443
 3264POSM   C1B38301  27.569  18.445  11.268  0.2238  0.2827 -0.2392
 3264POSM   D2B38302  27.506  18.619  11.676  0.0636 -0.0915 -0.2215
 3264POSM   C3B38303  27.802  18.931  11.853 -0.1511 -0.0087  0.3642
 3264POSM   C4B38304  27.771  19.116  12.312  0.0105 -0.0282 -0.0031
 3265DOPC   NC338305  27.609  30.882  12.282  0.1205 -0.1017  0.1165
 3265DOPC   PO438306  27.447  30.543  12.124  0.5270 -0.0692 -0.1074
 3265DOPC   GL138307  27.474  30.408  11.787 -0.0152 -0.3649 -0.1281
 3265DOPC   GL238308  27.150  30.562  11.734  0.1363  0.0783 -0.2620
 3265DOPC   C1A38309  27.355  30.037  11.526 -0.3660  0.0732 -0.0594
 3265DOPC   D2A38310  27.161  29.612  11.505 -0.0529 -0.1141  0.0876
 3265DOPC   C3A38311  27.210  29.166  11.538  0.0933 -0.0933  0.1173
 3265DOPC   C4A38312  26.899  28.886  11.718 -0.1793  0.1393  0.3169
 3265DOPC   C1B38313  27.249  30.593  11.284 -0.0709  0.0021 -0.0346
 3265DOPC   D2B38314  27.469  30.613  10.918  0.1085  0.0790 -0.1733
 3265DOPC   C3B38315  27.596  30.226  10.627  0.4582  0.1263 -0.0463
 3265DOPC   C4B38316  27.420  29.850  10.683  0.1324 -0.1919 -0.0643
 3266DOPC   NC338317  33.945  25.365  13.991  0.2572  0.2247  0.0379
 3266DOPC   PO438318  33.677  25.165  13.831 -0.2985 -0.2196 -0.2350
 3266DOPC   GL138319  33.892  25.312  13.488 -0.5658 -0.0235 -0.0450
 3266DOPC   GL238320  33.691  25.458  13.328 -0.1788 -0.1027  0.2704
 3266DOPC   C1A38321  34.185  25.362  13.120  0.0825  0.0523 -0.1834
 3266DOPC   D2A38322  34.460  25.531  12.816  0.3122 -0.3455  0.1375
 3266DOPC   C3A38323  34.598  25.549  12.411 -0.3068  0.1337 -0.1279
 3266DOPC   C4A38324  34.630  25.566  11.879  0.0306  0.0701  0.0679
 3266DOPC   C1B38325  33.875  25.714  12.936 -0.3008 -0.1675 -0.0909
 3266DOPC   D2B38326  34.155  25.885  12.630  0.3222 -0.1593 -0.0588
 3266DOPC   C3B38327  34.019  25.722  12.216 -0.0987 -0.1174  0.0474
 3266DOPC   C4B38328  33.688  25.856  11.902 -0.3491  0.2337 -0.0823
 3267DOPE   NH338329  30.335   0.874  13.109 -0.1423 -0.2313  0.1624
 3267DOPE   PO438330  30.463   0.636  12.967  0.1830  0.1206  0.0480
 3267DOPE   GL138331  30.601   0.338  12.784  0.0245 -0.0691  0.0697
 3267DOPE   GL238332  30.403   0.328  12.584  0.0575  0.1050 -0.1688
 3267DOPE   C1A38333  31.014   0.204  12.538  0.3963 -0.3852  0.0177
 3267DOPE   D2A38334  31.402   0.011  12.468  0.0701  0.0609  0.2185
 3267DOPE   C3A38335  31.096  -0.275  12.266 -0.4275 -0.1384  0.2205
 3267DOPE   C4A38336  30.809  -0.575  12.199 -0.1302 -0.0419 -0.1220
 3267DOPE   C1B38337  30.198  -0.058  12.418 -0.4676 -0.1690 -0.1387
 3267DOPE   D2B38338  30.369  -0.361  12.177  0.0960  0.2573  0.4114
 3267DOPE   C3B38339  29.996  -0.556  12.029  0.1087  0.2253  0.1674
 3267DOPE   C4B38340  29.567  -0.445  11.845  0.0595 -0.0080 -0.0164
 3268DOPE   NH338341  23.963  31.859  13.021  0.1281 -0.0021 -0.2035
 3268DOPE   PO438342  23.908  32.121  12.830  0.2472  0.1347  0.0147
 3268DOPE   GL138343  24.057  32.025  12.471 -0.1361  0.2760  0.0001
 3268DOPE   GL238344  23.833  32.223  12.362 -0.3018  0.0772  0.0095
 3268DOPE   C1A38345  24.085  31.794  12.046 -0.1143 -0.0499  0.4474
 3268DOPE   D2A38346  24.148  31.936  11.564  0.0024 -0.0411  0.2424
 3268DOPE   C3A38347  24.323  32.285  11.332 -0.0823  0.0589  0.0730
 3268DOPE   C4A38348  24.506  32.484  10.961  0.2944 -0.0972 -0.0128
 3268DOPE   C1B38349  23.630  31.964  12.023 -0.1339  0.3374 -0.2775
 3268DOPE   D2B38350  23.778  31.642  11.723 -0.2007  0.2045  0.1060
 3268DOPE   C3B38351  23.463  31.301  11.797 -0.0399  0.1614 -0.1262
 3268DOPE   C4B38352  23.047  31.170  11.791  0.0803 -0.1036 -0.2076
 3269DOPC   NC338353  31.675   1.817  14.061 -0.1364  0.2619 -0.2342
 3269DOPC   PO438354  31.632   2.072  13.724 -0.4442  0.5655 -0.1500
 3269DOPC   GL138355  31.711   2.115  13.391  0.0172 -0.2259  0.1749
 3269DOPC   GL238356  31.713   2.327  13.241 -0.1361  0.0137  0.0188
 3269DOPC   C1A38357  31.798   1.987  12.940  0.0441 -0.0129  0.1300
 3269DOPC   D2A38358  31.579   1.699  12.642  0.2344 -0.0839  0.4015
 3269DOPC   C3A38359  31.546   1.950  12.232 -0.1927  0.1503  0.1345
 3269DOPC   C4A38360  31.458   1.939  11.800  0.1359 -0.0567 -0.0567
 3269DOPC   C1B38361  32.025   2.540  12.891 -0.1255  0.2051 -0.1943
 3269DOPC   D2B38362  32.181   2.948  12.995  0.1087 -0.1436  0.0991
 3269DOPC   C3B38363  32.381   3.066  12.593 -0.0539 -0.1435 -0.1990
 3269DOPC   C4B38364  32.682   2.872  12.273 -0.2166  0.1420  0.3829
 3270DOPC   NC338365  31.171  34.597  12.840 -0.0049  0.1553 -0.5737
 3270DOPC   PO438366  31.496  34.752  13.029 -0.2014  0.0377 -0.2464
 3270DOPC   GL138367  31.819  34.516  12.745  0.1711 -0.2667  0.1086
 3270DOPC   GL238368  31.861  34.745  12.605  0.2150  0.1268 -0.1164
 3270DOPC   C1A38369  31.590  34.205  12.550 -0.0863 -0.3233 -0.0019
 3270DOPC   D2A38370  31.388  34.090  12.209 -0.1292  0.2545 -0.0029
 3270DOPC   C3A38371  31.266  34.199  11.799  0.2552  0.0322 -0.3083
 3270DOPC   C4A38372  31.210  34.568  11.613 -0.1939  0.0912  0.0052
 3270DOPC   C1B38373  32.237  34.851  12.422  0.0588 -0.0558 -0.0863
 3270DOPC   D2B38374  32.242  35.308  12.204 -0.0082 -0.1950  0.0919
 3270DOPC   C3B38375  32.408  35.585  11.918 -0.0416 -0.2231  0.1386
 3270DOPC   C4B38376  32.398  36.039  12.136 -0.0699 -0.1219  0.1047
 3271POSM   NC338377  27.446  25.915  12.781  0.1611  0.3768  0.1896
 3271POSM   PO438378  27.608  26.224  12.865  0.1436 -0.3805  0.0420
 3271POSM   AM138379  27.571  26.292  12.529 -0.3140 -0.0576  0.1555
 3271POSM   AM238380  27.329  26.253  12.383 -0.0682  0.0270  0.0959
 3271POSM   T1A38381  27.766  26.343  12.082 -0.2592  0.3005  0.0986
 3271POSM   C2A38382  27.896  26.198  11.696  0.0701 -0.4894  0.1300
 3271POSM   C3A38383  28.106  26.155  11.312 -0.2849  0.0670  0.1097
 3271POSM   C1B38384  27.106  26.292  12.118 -0.1855  0.0154  0.3680
 3271POSM   D2B38385  26.867  26.141  11.731 -0.0915  0.1661 -0.0887
 3271POSM   C3B38386  26.964  25.772  11.473 -0.1731 -0.3234  0.1963
 3271POSM   C4B38387  27.073  25.739  11.015 -0.2033 -0.1893  0.0833
 3272DOPS   CNO38388  29.540  34.727  13.170  0.1932  0.0687  0.2083
 3272DOPS   PO438389  29.484  34.414  12.896  0.0199 -0.1676 -0.1151
 3272DOPS   GL138390  29.668  34.388  12.523  0.0930 -0.0569 -0.0997
 3272DOPS   GL238391  29.638  34.152  12.338  0.0380  0.1887  0.1124
 3272DOPS   C1A38392  29.613  34.691  12.187 -0.2161  0.0842 -0.1651
 3272DOPS   D2A38393  29.616  34.944  11.848  0.1809  0.0358 -0.0033
 3272DOPS   C3A38394  29.661  34.820  11.404  0.0391  0.1832 -0.2661
 3272DOPS   C4A38395  29.965  34.580  11.224  0.1394  0.0299 -0.0397
 3272DOPS   C1B38396  29.216  34.003  12.133 -0.1535  0.1568 -0.3521
 3272DOPS   D2B38397  28.919  34.192  11.878 -0.0183 -0.0539 -0.0531
 3272DOPS   C3B38398  29.109  34.227  11.464  0.0208 -0.2226 -0.2581
 3272DOPS   C4B38399  29.500  34.339  11.247 -0.2501 -0.3297  0.1436
 3273DOPC   NC338400  29.642  25.255  13.460  0.3769  0.1901 -0.0012
 3273DOPC   PO438401  29.407  25.560  13.412  0.0449 -0.5676  0.0367
 3273DOPC   GL138402  29.526  25.478  13.041  0.3175  0.0781 -0.2108
 3273DOPC   GL238403  29.576  25.678  12.856 -0.0153  0.0227 -0.0996
 3273DOPC   C1A38404  29.259  25.283  12.714 -0.3468  0.0675  0.0943
 3273DOPC   D2A38405  29.073  25.038  12.394 -0.0288 -0.0652 -0.1010
 3273DOPC   C3A38406  29.119  24.651  12.103 -0.0346 -0.1713 -0.1351
 3273DOPC   C4A38407  29.101  24.740  11.631  0.1910  0.2928  0.0057
 3273DOPC   C1B38408  29.577  25.647  12.383 -0.0085  0.0110 -0.3073
 3273DOPC   D2B38409  29.975  25.786  12.208 -0.0929 -0.3038 -0.2834
 3273DOPC   C3B38410  29.867  26.025  11.883 -0.5450  0.1017  0.0042
 3273DOPC   C4B38411  29.564  25.987  11.495  0.0419  0.0473  0.1921
 3274DOPE   NH338412  29.632  29.335  13.027 -0.1578  0.0177 -0.2030
 3274DOPE   PO438413  29.540  29.326  12.742 -0.1581 -0.0315  0.2197
 3274DOPE   GL138414  29.664  29.266  12.300  0.3720  0.0329 -0.0666
 3274DOPE   GL238415  29.583  29.595  12.320 -0.0369 -0.2465  0.0158
 3274DOPE   C1A38416  29.599  29.209  11.857  0.2109 -0.0748 -0.1852
 3274DOPE   D2A38417  29.618  29.247  11.377 -0.1765  0.2764  0.2254
 3274DOPE   C3A38418  29.323  29.185  11.017 -0.1631 -0.2751 -0.0934
 3274DOPE   C4A38419  28.949  29.399  10.866  0.3280 -0.0158 -0.1505
 3274DOPE   C1B38420  29.634  29.737  11.852  0.0545 -0.0699  0.0796
 3274DOPE   D2B38421  29.700  29.787  11.412  0.2622 -0.1096  0.0774
 3274DOPE   C3B38422  29.801  29.563  11.025  0.0727  0.0579  0.2146
 3274DOPE   C4B38423  30.083  29.570  10.705  0.3570  0.2416  0.0035
 3275POSM   NC338424  29.874   0.716  13.287 -0.1722  0.2957 -0.0466
 3275POSM   PO438425  29.543   0.991  13.267  0.0365  0.3798  0.2860
 3275POSM   AM138426  29.448   1.057  12.954  0.1480  0.3991  0.0918
 3275POSM   AM238427  29.491   0.865  12.785  0.0785  0.2291 -0.1389
 3275POSM   T1A38428  29.408   1.463  12.691  0.0517  0.0030 -0.1260
 3275POSM   C2A38429  29.159   1.893  12.620  0.0094  0.0443  0.1238
 3275POSM   C3A38430  28.971   2.246  12.328 -0.3314 -0.0560  0.1108
 3275POSM   C1B38431  29.562   0.774  12.458  0.1465 -0.0037 -0.1533
 3275POSM   D2B38432  29.695   0.739  11.989 -0.2237  0.0798 -0.0034
 3275POSM   C3B38433  30.163   0.702  11.960 -0.3098 -0.4673  0.0370
 3275POSM   C4B38434  30.448   0.557  11.693  0.0335 -0.0522 -0.2348
 3276DOPS   CNO38435  26.270  34.613  13.119  0.1604  0.2768 -0.2976
 3276DOPS   PO438436  26.349  34.221  13.073 -0.1411  0.1033 -0.2388
 3276DOPS   GL138437  26.375  34.413  12.644 -0.0825  0.3141  0.0151
 3276DOPS   GL238438  26.104  34.538  12.659  0.2059  0.0190  0.1234
 3276DOPS   C1A38439  26.388  34.444  12.185  0.0073 -0.2407  0.0891
 3276DOPS   D2A38440  26.481  34.098  11.914 -0.0062 -0.1419  0.2038
 3276DOPS   C3A38441  26.239  33.946  11.496 -0.1634  0.1453  0.3521
 3276DOPS   C4A38442  26.118  33.797  11.078 -0.1590 -0.4961 -0.0394
 3276DOPS   C1B38443  25.780  34.832  12.521 -0.1954  0.2518  0.5889
 3276DOPS   D2B38444  25.366  35.071  12.428  0.5504  0.1183 -0.2024
 3276DOPS   C3B38445  25.301  34.986  11.989 -0.1542  0.2878 -0.1849
 3276DOPS   C4B38446  25.114  34.667  11.705 -0.0699 -0.1011 -0.2059
 3277DOPC   NC338447   0.834  26.922  13.756  0.1622 -0.0030 -0.2017
 3277DOPC   PO438448   1.116  26.706  13.902 -0.3642  0.0287  0.1766
 3277DOPC   GL138449   1.202  26.796  13.503  0.2785  0.0812 -0.0183
 3277DOPC   GL238450   1.367  26.524  13.477 -0.1432  0.2580 -0.0218
 3277DOPC   C1A38451   1.395  27.066  13.160  0.1535  0.2000  0.0017
 3277DOPC   D2A38452   1.387  27.255  12.704  0.0208 -0.0851  0.1745
 3277DOPC   C3A38453   1.671  26.991  12.361 -0.2765 -0.0249 -0.0963
 3277DOPC   C4A38454   2.102  26.907  12.135 -0.0956  0.4970 -0.0828
 3277DOPC   C1B38455   1.176  26.490  13.021 -0.3074 -0.1206  0.1203
 3277DOPC   D2B38456   1.345  26.209  12.726  0.1238 -0.3269  0.3585
 3277DOPC   C3B38457   1.165  26.157  12.254  0.2115  0.2370 -0.0489
 3277DOPC   C4B38458   0.846  26.422  12.041 -0.0914 -0.0920 -0.2262
 3278DOPE   NH338459  28.455  30.943  12.388 -0.3905  0.2882 -0.3514
 3278DOPE   PO438460  28.598  31.074  12.655 -0.0965  0.0683  0.1014
 3278DOPE   GL138461  28.916  31.150  12.331 -0.0059 -0.2161 -0.1833
 3278DOPE   GL238462  28.978  30.944  12.262 -0.1962  0.0604 -0.2193
 3278DOPE   C1A38463  28.748  31.260  11.873  0.0282  0.2603 -0.1185
 3278DOPE   D2A38464  28.476  31.525  11.629  0.1110  0.3118 -0.0759
 3278DOPE   C3A38465  28.422  31.304  11.206  0.3693 -0.3159 -0.0445
 3278DOPE   C4A38466  28.026  31.176  10.972 -0.0392 -0.0479 -0.1239
 3278DOPE   C1B38467  29.049  30.860  11.825  0.0140 -0.0898  0.0857
 3278DOPE   D2B38468  29.253  30.654  11.405  0.0924 -0.1453  0.2173
 3278DOPE   C3B38469  29.428  30.813  11.020 -0.3430  0.2004  0.2578
 3278DOPE   C4B38470  29.426  31.000  10.572  0.0594 -0.1374 -0.1951
 3279DOPE   NH338471  28.385  32.360  12.523  0.2213  0.1360 -0.1386
 3279DOPE   PO438472  28.713  32.496  12.503 -0.1216  0.0728 -0.0607
 3279DOPE   GL138473  28.828  32.343  12.128 -0.3986  0.2025 -0.0772
 3279DOPE   GL238474  29.041  32.221  12.046  0.0566  0.0060  0.0440
 3279DOPE   C1A38475  28.760  32.395  11.651  0.1335 -0.0573  0.1220
 3279DOPE   D2A38476  28.731  32.445  11.136 -0.1414  0.3560  0.0245
 3279DOPE   C3A38477  28.436  32.314  10.849 -0.0461 -0.0600 -0.0553
 3279DOPE   C4A38478  28.040  32.094  10.791  0.2783 -0.2421 -0.0801
 3279DOPE   C1B38479  28.762  31.944  11.828  0.0158 -0.1279 -0.0851
 3279DOPE   D2B38480  28.747  31.885  11.387 -0.4320  0.0304  0.2009
 3279DOPE   C3B38481  28.868  31.480  11.165 -0.0867  0.0682 -0.1423
 3279DOPE   C4B38482  29.249  31.287  10.973 -0.0883 -0.0027 -0.0388
 3280DOPC   NC338483  27.595   1.073  12.485 -0.1297  0.0927 -0.1031
 3280DOPC   PO438484  27.788   0.863  12.757  0.0928  0.0343 -0.0205
 3280DOPC   GL138485  27.999   0.905  12.444  0.2323 -0.1014  0.0998
 3280DOPC   GL238486  28.225   0.668  12.499 -0.1711  0.1947 -0.0271
 3280DOPC   C1A38487  28.134   1.272  12.205 -0.0452 -0.2553  0.1093
 3280DOPC   D2A38488  28.358   1.302  11.777  0.2765 -0.0586  0.1690
 3280DOPC   C3A38489  28.102   1.576  11.522 -0.0762 -0.0394  0.4946
 3280DOPC   C4A38490  28.074   1.997  11.299  0.0428  0.1492  0.0727
 3280DOPC   C1B38491  28.053   0.677  12.041 -0.0691  0.1829 -0.0073
 3280DOPC   D2B38492  27.588   0.548  11.918  0.4081  0.2304 -0.0688
 3280DOPC   C3B38493  27.310   0.175  11.883  0.0121  0.0909  0.0606
 3280DOPC   C4B38494  27.094  -0.075  11.613 -0.3250  0.2955 -0.1502
 3281POSM   NC338495  28.973  32.771  12.807 -0.2857  0.3502  0.0178
 3281POSM   PO438496  29.065  33.149  12.732 -0.0448  0.1537  0.0542
 3281POSM   AM138497  29.056  33.053  12.418 -0.2278 -0.0457 -0.1807
 3281POSM   AM238498  29.019  32.831  12.235  0.3954 -0.1641  0.2299
 3281POSM   T1A38499  29.151  33.230  11.963  0.2460 -0.0733 -0.0021
 3281POSM   C2A38500  29.074  33.236  11.517 -0.0973  0.0479 -0.0685
 3281POSM   C3A38501  29.107  33.392  11.100 -0.1442  0.2372  0.0376
 3281POSM   C1B38502  28.975  32.764  11.905  0.4507 -0.0813 -0.1808
 3281POSM   D2B38503  28.638  32.958  11.658  0.1979 -0.1424  0.0057
 3281POSM   C3B38504  28.595  32.946  11.215  0.2190  0.2967  0.1101
 3281POSM   C4B38505  28.789  33.092  10.824 -0.2251  0.3000 -0.1360
 3282DOPE   NH338506  20.352  34.798  13.598 -0.0097 -0.0451 -0.0729
 3282DOPE   PO438507  20.274  34.516  13.472 -0.0774  0.0887 -0.0079
 3282DOPE   GL138508  20.393  34.434  13.044  0.1278 -0.1733  0.1565
 3282DOPE   GL238509  20.349  34.727  12.891  0.0518 -0.0266 -0.1868
 3282DOPE   C1A38510  20.268  34.279  12.667  0.0498  0.0053 -0.1719
 3282DOPE   D2A38511  20.325  34.162  12.253  0.2665 -0.1387 -0.3401
 3282DOPE   C3A38512  20.198  34.398  11.924 -0.0335 -0.2100 -0.1139
 3282DOPE   C4A38513  19.937  34.579  11.588  0.3130 -0.3912 -0.1017
 3282DOPE   C1B38514  20.437  34.690  12.440 -0.0436  0.2421  0.0594
 3282DOPE   D2B38515  20.635  34.728  12.049  0.0024 -0.1252 -0.0727
 3282DOPE   C3B38516  20.534  34.652  11.620  0.1250  0.1775 -0.1806
 3282DOPE   C4B38517  20.409  34.198  11.549 -0.0621 -0.0381  0.1185
 3283DOPS   CNO38518  31.172  23.821  13.709  0.2580 -0.2428  0.1135
 3283DOPS   PO438519  30.859  23.910  13.974  0.0083  0.1735  0.0734
 3283DOPS   GL138520  30.750  23.889  13.627  0.0082  0.3847 -0.1361
 3283DOPS   GL238521  30.528  24.092  13.534 -0.1519  0.0192 -0.4261
 3283DOPS   C1A38522  31.006  23.776  13.234  0.0859 -0.2955  0.0066
 3283DOPS   D2A38523  31.086  23.673  12.762  0.0372  0.3293 -0.2325
 3283DOPS   C3A38524  30.892  23.887  12.369 -0.2906  0.4066  0.0044
 3283DOPS   C4A38525  30.929  23.790  11.938 -0.0771  0.0225  0.2334
 3283DOPS   C1B38526  30.385  24.006  13.063  0.2345  0.3840  0.0868
 3283DOPS   D2B38527  30.513  24.151  12.663 -0.1871  0.2355  0.0249
 3283DOPS   C3B38528  30.251  23.799  12.550 -0.2112  0.2281 -0.2522
 3283DOPS   C4B38529  30.150  23.358  12.425 -0.2515 -0.4847  0.1454
 3284POSM   NC338530  30.254   0.030  12.939  0.3511 -0.0009  0.1495
 3284POSM   PO438531  30.021   0.299  13.097 -0.2206  0.2548 -0.3636
 3284POSM   AM138532  29.992   0.447  12.841  0.1102 -0.2266 -0.0990
 3284POSM   AM238533  29.981   0.747  12.757  0.0621  0.1473  0.2430
 3284POSM   T1A38534  29.957   0.420  12.307 -0.1165  0.0590 -0.1991
 3284POSM   C2A38535  30.138   0.190  11.920  0.0767  0.0703  0.1362
 3284POSM   C3A38536  30.120   0.197  11.482 -0.3070 -0.1365 -0.2008
 3284POSM   C1B38537  30.095   0.889  12.446 -0.1724  0.0455  0.2044
 3284POSM   D2B38538  30.404   1.078  12.115  0.0396 -0.3159  0.0057
 3284POSM   C3B38539  30.476   1.108  11.665  0.0699 -0.0143 -0.1803
 3284POSM   C4B38540  30.355   1.161  11.259 -0.2347 -0.1891  0.0437
 3285POSM   NC338541  25.350  32.012  13.468 -0.1648 -0.1220 -0.0614
 3285POSM   PO438542  25.431  31.639  13.398 -0.1801 -0.1198  0.0963
 3285POSM   AM138543  25.422  31.608  13.052 -0.2644  0.0307 -0.2114
 3285POSM   AM238544  25.599  31.664  12.843 -0.1362 -0.0530 -0.1126
 3285POSM   T1A38545  25.303  31.277  12.672 -0.1040  0.1525  0.0923
 3285POSM   C2A38546  25.279  31.307  12.239 -0.1125  0.0117 -0.0159
 3285POSM   C3A38547  25.067  31.110  11.868  0.0817 -0.0555  0.0242
 3285POSM   C1B38548  25.378  31.822  12.611  0.1727 -0.2876 -0.0601
 3285POSM   D2B38549  25.175  32.184  12.402 -0.5574 -0.0598 -0.0445
 3285POSM   C3B38550  25.373  32.542  12.176  0.1274 -0.2590  0.2199
 3285POSM   C4B38551  25.667  32.770  11.945  0.3532 -0.3748 -0.0401
 3286DOPC   NC338552  28.365  24.991  13.099 -0.0148 -0.0746 -0.3213
 3286DOPC   PO438553  28.584  25.065  13.401 -0.0787  0.1612 -0.1808
 3286DOPC   GL138554  28.812  25.069  13.165 -0.0755 -0.0493 -0.0591
 3286DOPC   GL238555  28.792  25.143  12.892 -0.2086 -0.0759 -0.2094
 3286DOPC   C1A38556  29.045  24.705  13.024 -0.1638  0.4238  0.2411
 3286DOPC   D2A38557  29.110  24.484  12.651 -0.1641 -0.0668 -0.1665
 3286DOPC   C3A38558  29.056  24.150  12.295  0.1493 -0.1715 -0.1527
 3286DOPC   C4A38559  29.145  23.688  12.227  0.2567  0.1037 -0.0947
 3286DOPC   C1B38560  28.603  24.971  12.540  0.3328 -0.0152 -0.1214
 3286DOPC   D2B38561  28.268  24.873  12.274 -0.0627 -0.0981 -0.0413
 3286DOPC   C3B38562  27.802  24.983  12.312  0.2311 -0.0593  0.3477
 3286DOPC   C4B38563  27.431  25.258  12.266 -0.3638 -0.1094 -0.1269
 3287DOPS   CNO38564  31.898  25.938  13.826 -0.0112  0.2511 -0.0994
 3287DOPS   PO438565  31.701  26.087  13.590 -0.0582 -0.0125 -0.3015
 3287DOPS   GL138566  31.765  25.914  13.217 -0.1075  0.0892 -0.1221
 3287DOPS   GL238567  31.965  26.127  13.114 -0.1634  0.1553  0.1025
 3287DOPS   C1A38568  31.598  26.036  12.831  0.0393  0.0320  0.2029
 3287DOPS   D2A38569  31.584  25.959  12.375  0.0540  0.4867 -0.0118
 3287DOPS   C3A38570  31.422  26.192  12.046 -0.1123  0.3662 -0.1039
 3287DOPS   C4A38571  31.584  26.499  11.729  0.0803 -0.1770 -0.0214
 3287DOPS   C1B38572  32.128  26.117  12.615 -0.0584 -0.2294 -0.0354
 3287DOPS   D2B38573  32.496  26.116  12.302 -0.1895 -0.0554  0.2778
 3287DOPS   C3B38574  32.983  26.176  12.359  0.1781 -0.2959 -0.3452
 3287DOPS   C4B38575  33.382  26.244  12.129 -0.0985 -0.1572 -0.0278
 3288DOPE   NH338576  29.945  34.409  13.156 -0.4136  0.0178  0.0152
 3288DOPE   PO438577  30.282  34.352  13.143 -0.5293  0.2912 -0.0795
 3288DOPE   GL138578  30.343  34.411  12.720  0.0357 -0.0042 -0.3945
 3288DOPE   GL238579  30.596  34.194  12.675  0.1955  0.1706 -0.0251
 3288DOPE   C1A38580  30.678  34.667  12.508 -0.0438 -0.0222  0.1656
 3288DOPE   D2A38581  30.660  34.941  12.144  0.1157  0.0793  0.4725
 3288DOPE   C3A38582  30.716  34.589  11.836 -0.0797 -0.1999 -0.0728
 3288DOPE   C4A38583  30.755  34.343  11.448 -0.4615 -0.1294  0.1403
 3288DOPE   C1B38584  30.366  34.008  12.376  0.0411  0.1496 -0.0891
 3288DOPE   D2B38585  30.366  33.828  12.007  0.0408 -0.0922 -0.0883
 3288DOPE   C3B38586  30.006  33.824  11.740  0.2902 -0.1963  0.0497
 3288DOPE   C4B38587  29.795  33.986  11.410  0.1369  0.1045  0.0504
 3289POSM   NC338588  30.512  29.459  12.805  0.2053  0.1262  0.2336
 3289POSM   PO438589  30.437  29.075  12.856 -0.0716  0.0400  0.0232
 3289POSM   AM138590  30.515  29.027  12.522  0.2014 -0.2622 -0.2613
 3289POSM   AM238591  30.495  29.196  12.282 -0.0374  0.0325 -0.0722
 3289POSM   T1A38592  30.888  28.798  12.228 -0.2003 -0.0541  0.0160
 3289POSM   C2A38593  31.082  28.910  11.827  0.1748 -0.0635 -0.0536
 3289POSM   C3A38594  31.337  29.171  11.599  0.2485 -0.3853  0.1786
 3289POSM   C1B38595  30.498  29.067  12.002 -0.0687  0.3178  0.2049
 3289POSM   D2B38596  30.510  29.208  11.537 -0.1502 -0.1937 -0.0264
 3289POSM   C3B38597  30.155  29.073  11.239  0.0643 -0.0598  0.1518
 3289POSM   C4B38598  29.825  29.054  10.942  0.0953  0.1331  0.1361
 3290POSM   NC338599   0.314  26.074  14.199  0.2143 -0.1223 -0.0985
 3290POSM   PO438600   0.573  25.922  13.987  0.3044 -0.2027 -0.0913
 3290POSM   AM138601   0.683  25.981  13.650 -0.0214  0.2851 -0.1997
 3290POSM   AM238602   0.640  25.901  13.377  0.0171 -0.0276  0.0159
 3290POSM   T1A38603   1.070  26.139  13.321  0.0395 -0.1617  0.0477
 3290POSM   C2A38604   1.525  26.151  13.200  0.3954  0.3471 -0.1334
 3290POSM   C3A38605   1.937  26.240  13.013  0.0876 -0.0311  0.1727
 3290POSM   C1B38606   0.608  25.989  13.088  0.0992 -0.1762  0.4748
 3290POSM   D2B38607   0.422  26.067  12.659  0.0796  0.1058 -0.1196
 3290POSM   C3B38608   0.618  25.981  12.299  0.0839 -0.4379 -0.1909
 3290POSM   C4B38609   0.481  26.136  11.912  0.0755  0.1479 -0.1434
 3291DOPC   NC338610  24.667  31.166  13.428 -0.3226  0.1731  0.4525
 3291DOPC   PO438611  24.792  30.834  13.217 -0.0350 -0.1733 -0.1720
 3291DOPC   GL138612  24.972  30.927  12.827 -0.0445  0.1666  0.0654
 3291DOPC   GL238613  25.279  30.742  12.770 -0.0282 -0.0490  0.0208
 3291DOPC   C1A38614  25.005  30.899  12.400 -0.1254  0.0552  0.0695
 3291DOPC   D2A38615  24.933  30.617  12.072 -0.1642  0.2674  0.0927
 3291DOPC   C3A38616  24.676  30.852  11.772 -0.0978 -0.0481 -0.1388
 3291DOPC   C4A38617  24.717  31.121  11.392 -0.0641  0.0286 -0.4045
 3291DOPC   C1B38618  25.520  30.855  12.372  0.0130  0.1130  0.0321
 3291DOPC   D2B38619  25.842  30.931  12.063 -0.3931 -0.3268  0.1053
 3291DOPC   C3B38620  25.526  30.947  11.678  0.1089 -0.0780 -0.3078
 3291DOPC   C4B38621  25.161  30.717  11.505  0.4282  0.0019 -0.5306
 3292DOPC   NC338622  24.192  26.517  12.918  0.3948 -0.1143  0.1453
 3292DOPC   PO438623  24.441  26.783  13.050 -0.2139 -0.0725 -0.0894
 3292DOPC   GL138624  24.576  26.575  12.697  0.0910  0.1891 -0.1150
 3292DOPC   GL238625  24.844  26.576  12.777  0.0705 -0.2772  0.0088
 3292DOPC   C1A38626  24.650  26.413  12.262 -0.1498 -0.1369 -0.2077
 3292DOPC   D2A38627  24.997  26.247  12.022  0.0207 -0.0630 -0.0700
 3292DOPC   C3A38628  24.897  26.158  11.606 -0.1362 -0.3687  0.0487
 3292DOPC   C4A38629  24.614  25.865  11.379 -0.1909  0.3072  0.1816
 3292DOPC   C1B38630  25.152  26.434  12.496 -0.0215  0.2381  0.0142
 3292DOPC   D2B38631  25.443  26.264  12.188  0.0220  0.2463  0.0967
 3292DOPC   C3B38632  25.510  26.374  11.729  0.0885  0.1353  0.0592
 3292DOPC   C4B38633  25.370  26.146  11.335  0.1324  0.2389  0.2421
 3293POSM   NC338634  30.066  21.676  14.418 -0.3569  0.0664  0.2498
 3293POSM   PO438635  30.283  21.373  14.355  0.0341 -0.0778 -0.0096
 3293POSM   AM138636  30.286  21.351  14.003 -0.0173 -0.3730 -0.0314
 3293POSM   AM238637  30.444  21.245  13.763 -0.1685  0.0304  0.2372
 3293POSM   T1A38638  30.180  21.558  13.555 -0.0581 -0.0779 -0.0765
 3293POSM   C2A38639  29.936  21.690  13.172  0.0682 -0.2140 -0.2748
 3293POSM   C3A38640  30.023  21.529  12.778  0.2057  0.6302 -0.0961
 3293POSM   C1B38641  30.419  21.133  13.447 -0.2719  0.2763  0.0411
 3293POSM   D2B38642  30.399  21.455  13.100  0.1236  0.2912 -0.0155
 3293POSM   C3B38643  30.485  21.300  12.679  0.1388  0.1597 -0.1596
 3293POSM   C4B38644  30.461  21.178  12.310 -0.2434 -0.1930  0.0446
 3294POSM   NC338645  33.325  28.217  13.821 -0.0091 -0.2593  0.0707
 3294POSM   PO438646  33.218  27.856  13.673  0.1716 -0.3088 -0.0137
 3294POSM   AM138647  33.261  27.805  13.346 -0.2829  0.2789  0.4215
 3294POSM   AM238648  33.159  27.577  13.189 -0.0592  0.3561 -0.0924
 3294POSM   T1A38649  33.299  27.950  12.838  0.0792 -0.1855 -0.0364
 3294POSM   C2A38650  33.101  28.156  12.446 -0.2403 -0.1407 -0.0741
 3294POSM   C3A38651  32.876  28.181  12.044 -0.1121 -0.2117  0.2173
 3294POSM   C1B38652  33.237  27.414  12.874  0.3667  0.1131 -0.1952
 3294POSM   D2B38653  33.125  27.129  12.576 -0.0120  0.3075  0.0085
 3294POSM   C3B38654  32.967  27.114  12.124  0.0130 -0.0325 -0.0015
 3294POSM   C4B38655  32.797  26.873  11.734 -0.1234 -0.1442  0.1460
 3295DOPE   NH338656  32.483  34.538  13.380 -0.4776  0.0336  0.1709
 3295DOPE   PO438657  32.679  34.541  13.574  0.1433 -0.2905  0.2449
 3295DOPE   GL138658  32.905  34.739  13.367  0.0849  0.1266  0.0229
 3295DOPE   GL238659  32.804  34.964  13.286  0.2510  0.0456 -0.0938
 3295DOPE   C1A38660  33.122  34.604  12.977 -0.0883 -0.1217  0.2525
 3295DOPE   D2A38661  33.473  34.633  12.606  0.2118  0.0344  0.1218
 3295DOPE   C3A38662  33.483  34.637  12.124  0.2077 -0.0447 -0.0675
 3295DOPE   C4A38663  33.401  34.559  11.629 -0.0410  0.1019 -0.0952
 3295DOPE   C1B38664  32.969  35.078  12.831  0.0067 -0.2503  0.0414
 3295DOPE   D2B38665  33.137  34.952  12.368  0.1197  0.1010  0.1805
 3295DOPE   C3B38666  33.188  35.019  11.907  0.1661  0.1278  0.2318
 3295DOPE   C4B38667  33.125  35.091  11.427 -0.1195  0.1625 -0.1191
 3296DOPC   NC338668  27.963  34.585  12.497  0.3152 -0.1194 -0.0645
 3296DOPC   PO438669  28.142  34.942  12.552 -0.0117  0.0232 -0.2338
 3296DOPC   GL138670  28.477  34.838  12.354  0.1241  0.0664  0.0801
 3296DOPC   GL238671  28.288  34.952  12.085  0.1176 -0.2721 -0.0667
 3296DOPC   C1A38672  28.535  34.551  11.992  0.0548 -0.3058 -0.0084
 3296DOPC   D2A38673  28.656  34.497  11.577 -0.2137  0.2109  0.0673
 3296DOPC   C3A38674  28.647  34.896  11.270 -0.1282  0.1637  0.1980
 3296DOPC   C4A38675  28.874  35.086  10.904 -0.4394  0.0545 -0.3998
 3296DOPC   C1B38676  28.234  34.763  11.666 -0.0158  0.2104  0.1857
 3296DOPC   D2B38677  28.178  34.789  11.208 -0.1952 -0.0218  0.1415
 3296DOPC   C3B38678  27.960  35.197  11.013 -0.0252  0.2837 -0.1139
 3296DOPC   C4B38679  27.819  35.641  11.026  0.0396 -0.2094  0.0718
 3297DOPE   NH338680  30.017  29.234  12.612 -0.1430 -0.0593  0.2161
 3297DOPE   PO438681  30.031  29.561  12.687 -0.0475 -0.0351  0.0040
 3297DOPE   GL138682  30.343  29.662  12.374 -0.1277  0.1556 -0.2291
 3297DOPE   GL238683  30.128  29.712  12.126  0.1355 -0.1619 -0.0112
 3297DOPE   C1A38684  30.561  29.580  11.924 -0.0991  0.0721  0.2605
 3297DOPE   D2A38685  30.700  29.687  11.493  0.0365  0.0542  0.1073
 3297DOPE   C3A38686  31.038  29.465  11.272  0.0721  0.0882  0.5040
 3297DOPE   C4A38687  31.295  29.148  11.053  0.0501 -0.0093  0.2415
 3297DOPE   C1B38688  30.221  29.953  11.756 -0.0605 -0.3516 -0.2012
 3297DOPE   D2B38689  30.112  30.151  11.379  0.0265 -0.1303  0.4123
 3297DOPE   C3B38690  30.289  30.004  10.952  0.4036  0.1986 -0.0829
 3297DOPE   C4B38691  30.685  29.775  10.876  0.0356 -0.0049 -0.5394
 3298DOPE   NH338692   2.792  26.341  13.787 -0.1247  0.1359  0.0403
 3298DOPE   PO438693   2.476  26.427  13.678 -0.2003  0.0587 -0.0645
 3298DOPE   GL138694   2.602  26.341  13.340  0.1550  0.0563 -0.1074
 3298DOPE   GL238695   2.821  26.156  13.339 -0.1674  0.1917 -0.2018
 3298DOPE   C1A38696   2.469  26.140  12.910  0.1908  0.1055  0.0437
 3298DOPE   D2A38697   2.437  25.771  12.588 -0.2787 -0.2382 -0.1535
 3298DOPE   C3A38698   2.615  25.768  12.132 -0.2933  0.0971 -0.1285
 3298DOPE   C4A38699   2.696  25.731  11.630 -0.1913 -0.1490  0.0046
 3298DOPE   C1B38700   2.907  25.974  12.902 -0.0272  0.1096 -0.0219
 3298DOPE   D2B38701   2.830  26.107  12.441 -0.1051  0.2954 -0.2073
 3298DOPE   C3B38702   3.091  25.880  12.113  0.0614 -0.0834  0.0334
 3298DOPE   C4B38703   3.223  25.797  11.685  0.3533  0.1468  0.0741
 3299DOPE   NH338704  30.793  26.401  13.278 -0.0732  0.0961  0.3727
 3299DOPE   PO438705  30.495  26.260  13.274 -0.1261  0.0705 -0.1657
 3299DOPE   GL138706  30.540  26.323  12.890  0.1620 -0.2360  0.1645
 3299DOPE   GL238707  30.290  26.143  12.750 -0.0841 -0.1023  0.2902
 3299DOPE   C1A38708  30.818  26.431  12.476  0.1402 -0.2941 -0.1776
 3299DOPE   D2A38709  30.915  26.163  12.063  0.0878  0.1053 -0.0788
 3299DOPE   C3A38710  30.881  26.141  11.634  0.2879 -0.1675 -0.2635
 3299DOPE   C4A38711  30.567  26.223  11.312  0.3263 -0.2535 -0.3236
 3299DOPE   C1B38712  30.643  25.882  12.703  0.0047 -0.0957  0.0688
 3299DOPE   D2B38713  30.926  25.715  12.478 -0.2071  0.1459  0.1608
 3299DOPE   C3B38714  31.193  25.714  12.093 -0.0889  0.1251  0.0286
 3299DOPE   C4B38715  31.263  25.827  11.700 -0.2295  0.3128 -0.0422
 3300DOPS   CNO38716  26.525  30.641  12.158  0.1141 -0.0249 -0.0028
 3300DOPS   PO438717  26.183  30.527  12.262  0.1518  0.0350  0.2058
 3300DOPS   GL138718  26.282  30.313  11.927  0.1545  0.1059 -0.1781
 3300DOPS   GL238719  26.019  30.169  11.883  0.0082 -0.0880  0.1040
 3300DOPS   C1A38720  26.266  30.132  11.485  0.0594 -0.0895 -0.1547
 3300DOPS   D2A38721  26.451  30.016  11.106  0.2274 -0.0885 -0.0592
 3300DOPS   C3A38722  26.225  29.783  10.712  0.3175 -0.2223  0.2347
 3300DOPS   C4A38723  26.061  29.591  10.326 -0.1499 -0.0767 -0.3463
 3300DOPS   C1B38724  25.845  30.445  11.594  0.0193  0.0892 -0.1343
 3300DOPS   D2B38725  25.997  30.782  11.332 -0.1191 -0.0347 -0.1822
 3300DOPS   C3B38726  25.623  31.027  11.155 -0.1574  0.0280 -0.0095
 3300DOPS   C4B38727  25.459  31.443  11.001  0.0869 -0.1854  0.0555
 3301DOPE   NH338728  27.238  31.643  12.613 -0.0606  0.0772 -0.1243
 3301DOPE   PO438729  27.476  31.870  12.560 -0.2567  0.1874  0.1483
 3301DOPE   GL138730  27.439  31.941  12.205 -0.0536  0.0604 -0.2595
 3301DOPE   GL238731  27.674  31.915  12.017  0.1270  0.1778 -0.2567
 3301DOPE   C1A38732  27.336  32.295  11.989  0.4312  0.0978  0.0715
 3301DOPE   D2A38733  27.143  32.715  11.900 -0.0564  0.0276  0.0673
 3301DOPE   C3A38734  27.289  32.866  11.494 -0.2612  0.0002 -0.0511
 3301DOPE   C4A38735  27.212  32.894  11.030  0.0309  0.0099 -0.0057
 3301DOPE   C1B38736  27.713  31.922  11.579  0.0822  0.1897 -0.1136
 3301DOPE   D2B38737  27.622  31.976  11.152 -0.1480 -0.2085 -0.0736
 3301DOPE   C3B38738  27.205  32.179  11.035  0.0580 -0.0272  0.2600
 3301DOPE   C4B38739  26.902  31.925  10.735 -0.1858  0.0911  0.0566
 3302DOPE   NH338740  28.196  30.449  12.617  0.0781  0.2147 -0.3095
 3302DOPE   PO438741  27.967  30.605  12.450 -0.1825 -0.0025 -0.0179
 3302DOPE   GL138742  28.134  30.581  12.131 -0.0539  0.2806  0.0653
 3302DOPE   GL238743  27.895  30.423  11.967 -0.0534 -0.0736 -0.2293
 3302DOPE   C1A38744  28.474  30.794  11.893  0.2959 -0.1111 -0.4223
 3302DOPE   D2A38745  28.630  30.958  11.518 -0.1978 -0.1346  0.1456
 3302DOPE   C3A38746  28.430  30.847  11.087  0.3267 -0.2676  0.1266
 3302DOPE   C4A38747  28.209  30.745  10.693  0.2583 -0.0174  0.0833
 3302DOPE   C1B38748  27.722  30.708  11.555 -0.0539  0.1240  0.0354
 3302DOPE   D2B38749  27.605  31.071  11.290  0.3489 -0.2077 -0.0203
 3302DOPE   C3B38750  27.204  31.139  11.003  0.2112  0.0122  0.0892
 3302DOPE   C4B38751  26.967  30.755  10.833 -0.0527  0.1840 -0.0314
 3303POSM   NC338752  25.735  25.062  13.607  0.0972 -0.0953 -0.2064
 3303POSM   PO438753  26.086  24.978  13.496  0.0878 -0.0053  0.4383
 3303POSM   AM138754  26.231  24.977  13.171 -0.1808 -0.3704  0.0020
 3303POSM   AM238755  26.442  24.821  13.036  0.3744  0.1255  0.2490
 3303POSM   T1A38756  26.142  24.995  12.708 -0.1872 -0.0704  0.0032
 3303POSM   C2A38757  26.477  25.190  12.468 -0.1008  0.3103 -0.0749
 3303POSM   C3A38758  26.956  25.284  12.429  0.1446 -0.1012 -0.0118
 3303POSM   C1B38759  26.576  24.767  12.729  0.5452 -0.0664 -0.0136
 3303POSM   D2B38760  26.800  24.774  12.321  0.2011  0.1574  0.2847
 3303POSM   C3B38761  26.554  24.771  11.969  0.0902  0.1473 -0.3641
 3303POSM   C4B38762  26.488  24.555  11.572 -0.0643  0.1816  0.0630
 3304POSM   NC338763  28.947  24.782  13.538 -0.2283  0.3778  0.1437
 3304POSM   PO438764  29.297  24.920  13.676 -0.0418 -0.0792 -0.0620
 3304POSM   AM138765  29.417  24.743  13.408  0.2012  0.1473  0.2702
 3304POSM   AM238766  29.513  24.484  13.317 -0.1610 -0.0363  0.2100
 3304POSM   T1A38767  29.509  24.817  12.897  0.1600  0.1892 -0.0293
 3304POSM   C2A38768  29.589  24.665  12.463  0.1306 -0.0131 -0.0081
 3304POSM   C3A38769  29.788  24.329  12.402  0.0498  0.1088  0.1280
 3304POSM   C1B38770  29.544  24.311  13.065  0.1096 -0.2032 -0.0454
 3304POSM   D2B38771  29.348  23.985  12.719  0.0958 -0.0124  0.1294
 3304POSM   C3B38772  29.714  23.864  12.433 -0.2197 -0.2604 -0.2229
 3304POSM   C4B38773  30.026  23.812  12.146  0.0639  0.0469 -0.0223
 3305DOPC   NC338774  28.179  31.357  12.640  0.3429 -0.1286  0.0211
 3305DOPC   PO438775  27.950  31.154  12.387  0.1758  0.3042  0.0239
 3305DOPC   GL138776  27.854  31.207  12.034  0.0759 -0.1841 -0.2369
 3305DOPC   GL238777  27.893  30.933  11.916  0.0970 -0.0555  0.0421
 3305DOPC   C1A38778  27.548  31.288  11.703  0.1962  0.0595 -0.0461
 3305DOPC   D2A38779  27.363  31.566  11.471  0.2911  0.1778  0.1724
 3305DOPC   C3A38780  27.096  31.664  11.083 -0.1904 -0.2386  0.2589
 3305DOPC   C4A38781  27.299  31.639  10.606  0.2523 -0.0470  0.0037
 3305DOPC   C1B38782  28.083  31.009  11.445 -0.1810  0.1389  0.1931
 3305DOPC   D2B38783  27.989  30.661  11.142 -0.2280  0.0171 -0.0970
 3305DOPC   C3B38784  27.696  30.247  11.135 -0.2173 -0.0701  0.1435
 3305DOPC   C4B38785  27.488  29.786  11.145  0.1767  0.1754 -0.0283
 3306DOPC   NC338786  26.026  32.177  12.813  0.2342 -0.1149  0.3668
 3306DOPC   PO438787  26.116  31.796  12.867 -0.0009 -0.1075 -0.1149
 3306DOPC   GL138788  26.142  31.914  12.419  0.4639  0.2389  0.3592
 3306DOPC   GL238789  25.847  32.002  12.336  0.0967  0.2259  0.2382
 3306DOPC   C1A38790  26.482  32.190  12.320 -0.0428 -0.1226  0.0983
 3306DOPC   D2A38791  26.595  32.619  12.236 -0.3622 -0.0770  0.1757
 3306DOPC   C3A38792  26.694  32.828  11.828  0.0516 -0.2241 -0.0478
 3306DOPC   C4A38793  26.831  32.818  11.392  0.1013  0.2864  0.0376
 3306DOPC   C1B38794  25.560  32.065  11.976  0.2485 -0.1331 -0.0934
 3306DOPC   D2B38795  25.406  32.329  11.642 -0.2527 -0.0003  0.1563
 3306DOPC   C3B38796  25.491  32.308  11.219  0.1160 -0.1624  0.1181
 3306DOPC   C4B38797  25.730  32.630  10.996  0.0916 -0.1063 -0.1960
 3307POSM   NC338798  22.604  33.066  12.923  0.1320  0.0484  0.1961
 3307POSM   PO438799  22.716  32.710  13.059  0.0825  0.0644 -0.1983
 3307POSM   AM138800  22.719  32.658  12.737  0.1560 -0.0474  0.0099
 3307POSM   AM238801  22.562  32.620  12.538 -0.0567 -0.0874 -0.0465
 3307POSM   T1A38802  23.058  32.730  12.410  0.0745 -0.5155 -0.0468
 3307POSM   C2A38803  23.434  32.846  12.249 -0.0646  0.2545 -0.2467
 3307POSM   C3A38804  23.837  32.646  12.108 -0.1366 -0.0179  0.2587
 3307POSM   C1B38805  22.568  32.816  12.314  0.1143  0.0544 -0.1993
 3307POSM   D2B38806  22.502  33.141  11.972  0.2104  0.0999  0.2896
 3307POSM   C3B38807  22.677  33.555  11.828 -0.1895 -0.2472  0.1861
 3307POSM   C4B38808  22.806  33.773  11.368  0.2675  0.2443  0.2119
 3308DOPC   NC338809  31.667  27.576  12.766  0.0499 -0.3569  0.4215
 3308DOPC   PO438810  31.715  27.459  13.135 -0.3890 -0.2740 -0.1613
 3308DOPC   GL138811  31.952  27.226  12.976  0.0113 -0.1643  0.2305
 3308DOPC   GL238812  31.840  27.000  13.034 -0.1162  0.3406  0.0012
 3308DOPC   C1A38813  32.334  27.006  13.128  0.1440  0.2448  0.1507
 3308DOPC   D2A38814  32.324  26.560  13.134 -0.2694  0.2022  0.2521
 3308DOPC   C3A38815  32.491  26.188  12.950  0.0037 -0.3913 -0.1925
 3308DOPC   C4A38816  32.735  25.918  12.724 -0.0151  0.2378 -0.0737
 3308DOPC   C1B38817  31.755  26.954  12.583 -0.0219  0.0359 -0.2398
 3308DOPC   D2B38818  31.402  27.005  12.317 -0.0261  0.0656 -0.1484
 3308DOPC   C3B38819  31.303  27.022  11.842 -0.1753 -0.0701  0.0197
 3308DOPC   C4B38820  31.038  27.032  11.485 -0.0227  0.0766  0.0799
 3309POSM   NC338821  25.859  29.892  13.065 -0.1063  0.0992 -0.2296
 3309POSM   PO438822  26.065  29.667  12.842 -0.1206  0.1801 -0.2299
 3309POSM   AM138823  25.905  29.622  12.541 -0.1821  0.1036 -0.1816
 3309POSM   AM238824  25.684  29.489  12.441  0.4159  0.1296 -0.0207
 3309POSM   T1A38825  25.981  29.765  12.111 -0.2514  0.0753 -0.1097
 3309POSM   C2A38826  26.089  29.636  11.688  0.0252  0.2382  0.1026
 3309POSM   C3A38827  26.113  29.586  11.250 -0.3757  0.2141  0.0404
 3309POSM   C1B38828  25.370  29.467  12.525 -0.1349  0.1085  0.4107
 3309POSM   D2B38829  24.892  29.335  12.427  0.0780 -0.1831 -0.0682
 3309POSM   C3B38830  24.699  29.138  12.096  0.0925  0.1890 -0.0499
 3309POSM   C4B38831  24.749  29.129  11.667 -0.0003 -0.1923  0.1895
 3310DOPC   NC338832  27.356  28.956  12.787 -0.0709  0.2624  0.1105
 3310DOPC   PO438833  27.042  29.192  12.719 -0.2555 -0.3870 -0.1979
 3310DOPC   GL138834  26.961  29.170  12.264  0.3301 -0.4007  0.2023
 3310DOPC   GL238835  26.679  29.122  12.301 -0.2996 -0.0873  0.2493
 3310DOPC   C1A38836  26.816  29.339  11.858 -0.3177  0.0703  0.0298
 3310DOPC   D2A38837  26.436  29.238  11.621  0.1932  0.0890 -0.0379
 3310DOPC   C3A38838  26.006  29.142  11.442  0.2633  0.1153  0.0520
 3310DOPC   C4A38839  25.666  28.877  11.211  0.0604  0.0901 -0.0117
 3310DOPC   C1B38840  26.813  28.680  12.134  0.1262 -0.1519 -0.0720
 3310DOPC   D2B38841  26.616  28.376  11.877 -0.3412 -0.0812 -0.0044
 3310DOPC   C3B38842  26.249  28.189  11.565 -0.3850  0.0605  0.2190
 3310DOPC   C4B38843  25.920  28.458  11.355  0.0063 -0.0128 -0.2163
 3311POSM   NC338844  24.364   1.162  13.225  0.3528  0.0602 -0.0397
 3311POSM   PO438845  24.467   0.735  13.223  0.0970  0.0594 -0.4609
 3311POSM   AM138846  24.565   0.743  12.911 -0.1938 -0.0520 -0.0139
 3311POSM   AM238847  24.731   0.542  12.821  0.0718 -0.0096  0.2182
 3311POSM   T1A38848  24.819   0.962  12.491 -0.1701  0.1570 -0.1173
 3311POSM   C2A38849  24.851   0.997  12.008 -0.0589  0.0187 -0.0349
 3311POSM   C3A38850  24.734   0.886  11.619 -0.2539  0.1676  0.0561
 3311POSM   C1B38851  24.693   0.264  12.637  0.3299 -0.0136 -0.0477
 3311POSM   D2B38852  24.489   0.122  12.280  0.1679  0.1728 -0.1143
 3311POSM   C3B38853  24.736   0.219  11.870  0.2582 -0.0597  0.3285
 3311POSM   C4B38854  24.832   0.249  11.401 -0.0870  0.2233 -0.0826
 3312DOPE   NH338855  27.035  32.749  12.490  0.3214  0.0005  0.2061
 3312DOPE   PO438856  26.914  32.528  12.674 -0.0541  0.1145 -0.3982
 3312DOPE   GL138857  26.923  32.343  12.356  0.4518  0.1133  0.2594
 3312DOPE   GL238858  26.990  32.048  12.299 -0.0544 -0.4041  0.2522
 3312DOPE   C1A38859  26.785  32.297  11.913 -0.2228  0.2136  0.0770
 3312DOPE   D2A38860  26.521  32.440  11.533 -0.2397 -0.0225 -0.0372
 3312DOPE   C3A38861  26.153  32.192  11.324  0.1992 -0.2300 -0.3145
 3312DOPE   C4A38862  25.939  31.923  10.990  0.3704  0.6544 -0.0536
 3312DOPE   C1B38863  26.734  31.814  12.054 -0.0650 -0.1545  0.1248
 3312DOPE   D2B38864  26.523  31.852  11.625 -0.0276 -0.2131  0.2372
 3312DOPE   C3B38865  26.728  32.012  11.249  0.1471  0.1068  0.1134
 3312DOPE   C4B38866  26.694  32.421  11.019 -0.1831  0.3252 -0.1185
 3313DOPC   NC338867   0.764  26.373  14.039  0.1131 -0.2288 -0.1764
 3313DOPC   PO438868   0.429  26.600  13.914 -0.4359  0.3003 -0.1128
 3313DOPC   GL138869   0.311  26.563  13.441 -0.0748 -0.0749  0.2087
 3313DOPC   GL238870   0.334  26.235  13.533 -0.0415  0.0615  0.3564
 3313DOPC   C1A38871   0.626  26.484  13.050  0.2376 -0.1810  0.0842
 3313DOPC   D2A38872   0.828  26.252  12.687 -0.1198 -0.1694  0.2272
 3313DOPC   C3A38873   0.989  25.871  12.662 -0.2777  0.0335 -0.1560
 3313DOPC   C4A38874   1.364  25.704  12.752  0.2861  0.0634  0.1545
 3313DOPC   C1B38875   0.094  26.174  13.179  0.4133  0.1100  0.2315
 3313DOPC   D2B38876  -0.282  25.910  13.082  0.0954  0.0626 -0.2165
 3313DOPC   C3B38877  -0.584  26.246  13.169 -0.4250 -0.0128 -0.0419
 3313DOPC   C4B38878  -0.873  26.325  13.475 -0.0461 -0.2127 -0.2175
 3314DOPC   NC338879  31.399  27.014  13.433  0.2684  0.0267  0.2023
 3314DOPC   PO438880  31.369  26.689  13.260  0.2607  0.1219  0.0854
 3314DOPC   GL138881  31.489  26.337  13.100 -0.0641  0.4592 -0.3037
 3314DOPC   GL238882  31.399  26.463  12.802 -0.1169  0.2045 -0.1397
 3314DOPC   C1A38883  31.871  26.543  12.880 -0.0594 -0.0678  0.2005
 3314DOPC   D2A38884  32.210  26.608  12.557 -0.1982 -0.2673 -0.0673
 3314DOPC   C3A38885  31.967  26.818  12.170  0.3518  0.1586  0.2490
 3314DOPC   C4A38886  31.817  26.968  11.780 -0.1922 -0.1644 -0.4651
 3314DOPC   C1B38887  31.721  26.417  12.445 -0.1270 -0.1798 -0.3837
 3314DOPC   D2B38888  31.983  26.231  12.120  0.0419  0.0787 -0.0802
 3314DOPC   C3B38889  32.255  26.538  11.852 -0.0641 -0.1201 -0.1250
 3314DOPC   C4B38890  32.328  26.994  11.930  0.3343 -0.0421  0.1831
 3315DOPC   NC338891  28.021  29.235  13.170  0.1831  0.0286 -0.3012
 3315DOPC   PO438892  27.909  29.086  12.814  0.3200  0.0624  0.0322
 3315DOPC   GL138893  27.659  29.040  12.409  0.2867 -0.1941 -0.0246
 3315DOPC   GL238894  27.413  29.219  12.356  0.1322 -0.0399  0.1810
 3315DOPC   C1A38895  27.827  29.084  11.969  0.1380  0.0340  0.0987
 3315DOPC   D2A38896  27.829  29.143  11.495  0.1790 -0.1076  0.4578
 3315DOPC   C3A38897  27.571  28.915  11.189  0.0955 -0.1607  0.1562
 3315DOPC   C4A38898  27.231  28.602  11.163  0.4081  0.0284 -0.1763
 3315DOPC   C1B38899  27.322  28.892  12.011 -0.2817 -0.1753  0.0476
 3315DOPC   D2B38900  27.584  28.719  11.652  0.1257  0.1513  0.1272
 3315DOPC   C3B38901  27.907  28.349  11.731  0.1864 -0.0271  0.1146
 3315DOPC   C4B38902  28.269  28.130  11.867  0.1408  0.0283 -0.0703
 3316DOPC   NC338903  31.611  34.281  13.072  0.0576  0.1936  0.1881
 3316DOPC   PO438904  31.969  34.461  13.148 -0.1188 -0.0329 -0.0678
 3316DOPC   GL138905  32.134  34.820  13.024  0.1299  0.2669  0.2544
 3316DOPC   GL238906  31.962  35.078  12.947  0.0532 -0.3773  0.1222
 3316DOPC   C1A38907  32.529  34.772  12.833  0.3893 -0.0203 -0.1472
 3316DOPC   D2A38908  32.715  34.702  12.471 -0.2548 -0.0655  0.2732
 3316DOPC   C3A38909  32.507  34.421  12.121 -0.0704  0.0562  0.2343
 3316DOPC   C4A38910  32.301  34.240  11.749 -0.0371  0.1267  0.0317
 3316DOPC   C1B38911  32.383  35.244  12.766  0.1784 -0.2317 -0.1950
 3316DOPC   D2B38912  32.676  35.228  12.442 -0.0843 -0.1440  0.2885
 3316DOPC   C3B38913  32.584  34.944  12.027  0.3015 -0.1178 -0.1143
 3316DOPC   C4B38914  32.330  35.120  11.631  0.0727 -0.0324 -0.0678
 3317DOPS   CNO38915  31.396  31.426  13.213  0.2703  0.0912  0.2302
 3317DOPS   PO438916  31.427  31.060  13.135 -0.0444  0.0026  0.0733
 3317DOPS   GL138917  31.328  31.277  12.768 -0.1689 -0.0688  0.3144
 3317DOPS   GL238918  31.599  31.292  12.610  0.2915  0.0310 -0.0000
 3317DOPS   C1A38919  31.274  31.572  12.377 -0.0534 -0.1373  0.2969
 3317DOPS   D2A38920  31.041  31.778  12.045 -0.3375 -0.2148  0.2247
 3317DOPS   C3A38921  31.236  31.988  11.692  0.1492 -0.1578 -0.3106
 3317DOPS   C4A38922  31.450  32.058  11.356  0.2304 -0.2607  0.1585
 3317DOPS   C1B38923  31.504  31.017  12.224 -0.1631  0.2730 -0.1825
 3317DOPS   D2B38924  31.663  30.818  11.858  0.0577 -0.0931 -0.1322
 3317DOPS   C3B38925  31.325  31.010  11.601 -0.1389  0.1908  0.1082
 3317DOPS   C4B38926  30.862  30.987  11.375 -0.0585  0.1254 -0.2400
 3318DOPC   NC338927  28.122  26.332  12.474 -0.2581 -0.2110  0.1629
 3318DOPC   PO438928  28.417  26.376  12.762  0.1833 -0.2811  0.1092
 3318DOPC   GL138929  28.519  26.080  12.502 -0.1237  0.2813  0.1817
 3318DOPC   GL238930  28.759  25.969  12.671 -0.2299 -0.0748  0.1227
 3318DOPC   C1A38931  28.673  25.917  12.105 -0.1978  0.1743 -0.1411
 3318DOPC   D2A38932  28.848  25.750  11.717 -0.0717  0.4168 -0.0378
 3318DOPC   C3A38933  29.252  25.565  11.580  0.1156  0.0952 -0.0173
 3318DOPC   C4A38934  29.516  25.411  11.305 -0.0072 -0.1011 -0.2399
 3318DOPC   C1B38935  28.951  26.256  12.377 -0.1666 -0.0537  0.0216
 3318DOPC   D2B38936  29.138  26.353  11.937 -0.1662  0.0543 -0.0940
 3318DOPC   C3B38937  29.115  26.153  11.480  0.1830 -0.3822 -0.2252
 3318DOPC   C4B38938  28.820  26.142  11.114  0.2034 -0.1690 -0.0589
 3319DOPS   CNO38939  29.386  32.196  12.850 -0.2787 -0.0207 -0.1509
 3319DOPS   PO438940  29.534  32.080  12.514 -0.1659  0.3471 -0.0165
 3319DOPS   GL138941  29.504  32.267  12.197 -0.3856 -0.0762 -0.0390
 3319DOPS   GL238942  29.509  32.563  12.137 -0.0340 -0.4629  0.0002
 3319DOPS   C1A38943  29.544  31.898  11.857  0.0000 -0.0873  0.0737
 3319DOPS   D2A38944  29.631  31.558  11.655  0.0131 -0.3060  0.4092
 3319DOPS   C3A38945  29.976  31.263  11.661  0.1158 -0.1132  0.2657
 3319DOPS   C4A38946  30.379  30.982  11.552  0.0229  0.0318 -0.2207
 3319DOPS   C1B38947  29.409  32.435  11.685 -0.1664 -0.0024  0.0329
 3319DOPS   D2B38948  29.117  32.195  11.372 -0.3634  0.0806 -0.0418
 3319DOPS   C3B38949  29.083  32.135  10.940 -0.4865  0.1166  0.0116
 3319DOPS   C4B38950  28.924  32.384  10.596 -0.0343 -0.2167  0.0319
 3320POSM   NC338951   0.864  25.486  13.663  0.0412  0.0722 -0.4681
 3320POSM   PO438952   1.017  25.196  13.867  0.2930 -0.1368 -0.0943
 3320POSM   AM138953   1.158  25.065  13.602  0.1287 -0.0650  0.4385
 3320POSM   AM238954   1.098  25.037  13.330 -0.1595 -0.2464  0.3608
 3320POSM   T1A38955   1.529  24.816  13.287  0.1332 -0.0356  0.0386
 3320POSM   C2A38956   1.549  24.768  12.843  0.0555 -0.2542  0.2701
 3320POSM   C3A38957   1.822  24.876  12.453 -0.0684 -0.0991  0.0811
 3320POSM   C1B38958   1.088  25.001  12.999  0.0783  0.2979 -0.0563
 3320POSM   D2B38959   1.072  24.756  12.604  0.1846 -0.0515  0.0747
 3320POSM   C3B38960   1.361  24.628  12.305  0.1356 -0.1267 -0.0204
 3320POSM   C4B38961   1.609  24.741  11.932 -0.0991 -0.0539 -0.0742
 3321DOPS   CNO38962  29.438  30.351  12.649  0.0550  0.1666  0.0433
 3321DOPS   PO438963  29.329  30.093  12.414 -0.0834  0.2689 -0.1090
 3321DOPS   GL138964  29.417  30.199  12.079  0.2168 -0.0886  0.0079
 3321DOPS   GL238965  29.413  30.490  12.001 -0.1918 -0.0764  0.0053
 3321DOPS   C1A38966  29.712  30.256  11.712 -0.2257 -0.3489  0.1424
 3321DOPS   D2A38967  29.662  30.379  11.243 -0.2779  0.1706  0.3766
 3321DOPS   C3A38968  29.757  30.057  10.947  0.1578  0.0609 -0.1954
 3321DOPS   C4A38969  29.678  29.821  10.617  0.2079 -0.0697  0.0253
 3321DOPS   C1B38970  29.678  30.774  11.711  0.0817 -0.0315  0.1416
 3321DOPS   D2B38971  29.875  30.799  11.218 -0.0623  0.0234 -0.0225
 3321DOPS   C3B38972  29.803  30.605  10.811 -0.0351 -0.2250  0.1704
 3321DOPS   C4B38973  29.410  30.457  10.568 -0.1102 -0.0402 -0.0744
 3322DOPS   CNO38974  26.098  26.617  13.676 -0.1974 -0.1463 -0.0310
 3322DOPS   PO438975  26.143  26.377  13.390  0.0740  0.0999  0.3850
 3322DOPS   GL138976  26.519  26.476  13.129 -0.2964 -0.2447 -0.0366
 3322DOPS   GL238977  26.500  26.241  13.029  0.0873 -0.1858  0.0938
 3322DOPS   C1A38978  26.569  26.711  12.743  0.2519  0.1633  0.2238
 3322DOPS   D2A38979  26.584  27.073  12.440 -0.0860  0.0459 -0.2610
 3322DOPS   C3A38980  26.368  27.050  12.004 -0.1209  0.3377  0.1888
 3322DOPS   C4A38981  26.179  27.075  11.577 -0.2586  0.3137 -0.3011
 3322DOPS   C1B38982  26.258  26.075  12.697 -0.3491 -0.3126 -0.1823
 3322DOPS   D2B38983  26.155  25.631  12.645 -0.5487  0.0325 -0.0529
 3322DOPS   C3B38984  26.002  25.369  12.306 -0.0769  0.1342  0.0343
 3322DOPS   C4B38985  25.905  25.003  12.025  0.0789  0.1164  0.0127
 3323DOPE   NH338986  28.625  29.965  12.810  0.0891  0.1932  0.0396
 3323DOPE   PO438987  28.883  30.047  12.654 -0.0081 -0.0864 -0.1244
 3323DOPE   GL138988  28.766  29.815  12.345  0.1973  0.1130 -0.0301
 3323DOPE   GL238989  28.512  29.855  12.211  0.0449 -0.1373 -0.2696
 3323DOPE   C1A38990  29.035  29.529  12.147  0.1132 -0.2926  0.1694
 3323DOPE   D2A38991  29.136  29.382  11.794 -0.0659 -0.1414  0.4088
 3323DOPE   C3A38992  29.181  29.540  11.404  0.1174  0.2627 -0.0959
 3323DOPE   C4A38993  29.382  29.723  10.998  0.0421  0.1221 -0.0306
 3323DOPE   C1B38994  28.640  29.605  11.853 -0.0703  0.2361 -0.0307
 3323DOPE   D2B38995  28.659  29.413  11.415  0.1135 -0.1259 -0.0657
 3323DOPE   C3B38996  28.503  29.645  11.054 -0.1415  0.0710 -0.1685
 3323DOPE   C4B38997  28.698  29.918  10.734  0.0533  0.2184  0.1377
 3324DOPE   NH338998  33.242  22.027  13.951  0.3149  0.2070  0.0486
 3324DOPE   PO438999  33.392  22.188  13.753 -0.2088  0.0360 -0.2868
 3324DOPE   GL139000  33.183  22.299  13.393  0.1739 -0.1883  0.0599
 3324DOPE   GL239001  32.959  22.103  13.339  0.1875 -0.0642 -0.0286
 3324DOPE   C1A39002  33.045  22.691  13.284 -0.2242 -0.1197  0.0499
 3324DOPE   D2A39003  32.760  22.764  12.942 -0.0046  0.3985 -0.3259
 3324DOPE   C3A39004  32.329  22.610  12.839 -0.0820 -0.2270  0.1861
 3324DOPE   C4A39005  32.048  22.812  12.548 -0.1924  0.1434 -0.0777
 3324DOPE   C1B39006  32.860  22.319  12.949  0.2947 -0.0009 -0.1113
 3324DOPE   D2B39007  32.737  22.258  12.477 -0.2589  0.1221 -0.2207
 3324DOPE   C3B39008  33.039  22.329  12.150  0.2454  0.0609  0.1716
 3324DOPE   C4B39009  33.378  22.044  12.054  0.0655  0.0613  0.1236
 3325DOPE   NH339010  27.761  32.855  12.413 -0.0226 -0.0698  0.2421
 3325DOPE   PO439011  28.040  32.686  12.274 -0.2903 -0.0956 -0.1585
 3325DOPE   GL139012  27.997  32.973  12.007  0.1397  0.0618  0.1212
 3325DOPE   GL239013  28.188  33.134  11.788 -0.3367  0.0889 -0.1011
 3325DOPE   C1A39014  27.809  32.881  11.572 -0.2222 -0.1566  0.1376
 3325DOPE   D2A39015  27.774  32.877  11.111 -0.0323 -0.1907  0.0155
 3325DOPE   C3A39016  27.657  32.470  10.883  0.1318 -0.3605 -0.0505
 3325DOPE   C4A39017  27.512  32.124  10.631 -0.1571  0.3072 -0.4222
 3325DOPE   C1B39018  28.093  33.233  11.419 -0.0437 -0.0106 -0.2518
 3325DOPE   D2B39019  28.028  33.321  10.960 -0.1989  0.1775 -0.0119
 3325DOPE   C3B39020  27.745  33.400  10.572  0.1069  0.1666  0.0284
 3325DOPE   C4B39021  27.771  33.608  10.203  0.4163 -0.1214  0.0070
 3326DOPC   NC339022  24.793  33.068  13.195  0.1106 -0.0956 -0.0689
 3326DOPC   PO439023  24.968  32.756  13.341  0.0790  0.1855  0.1753
 3326DOPC   GL139024  25.060  32.680  12.955 -0.1243  0.2661 -0.0521
 3326DOPC   GL239025  24.937  32.448  12.842 -0.1294  0.0751 -0.0498
 3326DOPC   C1A39026  25.093  32.979  12.576 -0.0243  0.2034 -0.3725
 3326DOPC   D2A39027  25.003  32.918  12.181  0.5014 -0.1058  0.0406
 3326DOPC   C3A39028  25.094  32.742  11.726  0.1866 -0.5826  0.0348
 3326DOPC   C4A39029  24.881  32.392  11.465 -0.1179  0.1347  0.1033
 3326DOPC   C1B39030  24.782  32.526  12.506 -0.2410  0.0726  0.2134
 3326DOPC   D2B39031  24.701  32.420  12.093 -0.0777 -0.1661 -0.0269
 3326DOPC   C3B39032  25.011  32.148  11.911 -0.1580  0.1051 -0.2392
 3326DOPC   C4B39033  25.204  31.769  12.137  0.0329  0.0040  0.4181
 3327DOPC   NC339034   2.197  26.806  13.527  0.1409 -0.0571 -0.0997
 3327DOPC   PO439035   1.925  26.549  13.587  0.0324  0.1498  0.2354
 3327DOPC   GL139036   1.873  26.679  13.213  0.2023  0.5909  0.4417
 3327DOPC   GL239037   1.895  26.995  13.207 -0.1333 -0.1254 -0.0023
 3327DOPC   C1A39038   1.643  26.662  12.794  0.0273  0.1568 -0.1583
 3327DOPC   D2A39039   1.669  26.368  12.428  0.0451 -0.2456 -0.0119
 3327DOPC   C3A39040   1.930  26.426  12.004  0.1508 -0.0312 -0.1867
 3327DOPC   C4A39041   1.763  26.421  11.574 -0.0801  0.1031  0.0156
 3327DOPC   C1B39042   1.925  27.084  12.756  0.0779 -0.0860 -0.1796
 3327DOPC   D2B39043   1.967  27.468  12.485  0.0293  0.0568 -0.1987
 3327DOPC   C3B39044   2.280  27.419  12.123 -0.1838  0.1525 -0.2850
 3327DOPC   C4B39045   2.565  27.264  11.767 -0.2021 -0.0804 -0.0710
 3328POSM   NC339046  28.110  28.315  13.006  0.0725 -0.0741 -0.3526
 3328POSM   PO439047  28.492  28.358  13.097  0.0444 -0.1297  0.3003
 3328POSM   AM139048  28.500  28.310  12.749 -0.1954 -0.4178  0.1529
 3328POSM   AM239049  28.580  28.352  12.486  0.2110 -0.1618  0.2195
 3328POSM   T1A39050  28.072  28.312  12.391  0.0470  0.0050 -0.0397
 3328POSM   C2A39051  27.811  27.997  12.180  0.1316 -0.0542 -0.0039
 3328POSM   C3A39052  27.711  27.812  11.808 -0.2545 -0.0696 -0.0018
 3328POSM   C1B39053  28.687  28.200  12.157 -0.0642 -0.1424 -0.2539
 3328POSM   D2B39054  28.895  28.163  11.715  0.2072 -0.1657 -0.0687
 3328POSM   C3B39055  28.864  27.799  11.394  0.0861 -0.2379 -0.0064
 3328POSM   C4B39056  28.999  27.779  10.884  0.0345  0.1763 -0.2469
 3329POSM   NC339057  26.059  31.008  12.542  0.2681  0.1086  0.1847
 3329POSM   PO439058  26.403  31.040  12.426  0.3230 -0.1613 -0.1276
 3329POSM   AM139059  26.439  31.143  12.085 -0.1723 -0.0403  0.5121
 3329POSM   AM239060  26.700  31.305  11.930  0.0370  0.1919  0.1126
 3329POSM   T1A39061  26.133  31.127  11.712 -0.0204 -0.0199 -0.1996
 3329POSM   C2A39062  25.909  31.439  11.387 -0.3538 -0.2235  0.0956
 3329POSM   C3A39063  25.638  31.752  11.391  0.0547 -0.0547  0.1446
 3329POSM   C1B39064  26.638  31.042  11.685  0.0840 -0.1009 -0.2142
 3329POSM   D2B39065  26.731  30.960  11.274  0.3979  0.1506  0.0519
 3329POSM   C3B39066  26.738  31.304  10.975  0.0158 -0.2150  0.1905
 3329POSM   C4B39067  27.009  31.261  10.562  0.0099 -0.4480 -0.0784
 3330DOPE   NH339068  26.733  28.168  13.233 -0.1536 -0.3350 -0.3279
 3330DOPE   PO439069  26.686  28.472  13.204  0.0342 -0.2011  0.0263
 3330DOPE   GL139070  26.613  28.378  12.786  0.2866  0.0260  0.1794
 3330DOPE   GL239071  26.851  28.221  12.753  0.1414 -0.2097 -0.2006
 3330DOPE   C1A39072  26.427  28.469  12.383  0.3569 -0.1142 -0.1249
 3330DOPE   D2A39073  26.299  28.788  11.999 -0.0706  0.1580 -0.0432
 3330DOPE   C3A39074  26.409  28.711  11.547  0.2028  0.1000 -0.0169
 3330DOPE   C4A39075  26.409  28.425  11.156  0.1737 -0.2997  0.0573
 3330DOPE   C1B39076  26.951  28.196  12.288  0.1269  0.1251 -0.3996
 3330DOPE   D2B39077  26.789  27.882  11.906  0.3531 -0.1773 -0.0798
 3330DOPE   C3B39078  26.835  27.725  11.448  0.2000  0.0458  0.3800
 3330DOPE   C4B39079  27.116  27.892  11.111 -0.0509  0.1639 -0.0355
 3331DOPE   NH339080  25.315  28.519  12.890  0.0894  0.0525 -0.1237
 3331DOPE   PO439081  25.652  28.468  12.952  0.3951 -0.1075  0.1799
 3331DOPE   GL139082  25.692  28.418  12.567  0.3858  0.2962 -0.1395
 3331DOPE   GL239083  25.981  28.425  12.580  0.0450  0.2565 -0.0615
 3331DOPE   C1A39084  25.815  28.743  12.227  0.3858  0.0172 -0.1654
 3331DOPE   D2A39085  25.756  28.914  11.823  0.0549  0.0528  0.1512
 3331DOPE   C3A39086  25.365  28.741  11.704  0.0443  0.1175 -0.1603
 3331DOPE   C4A39087  25.064  28.852  11.438  0.1260  0.1325 -0.2811
 3331DOPE   C1B39088  25.927  28.216  12.196  0.0392  0.0767  0.0747
 3331DOPE   D2B39089  25.709  28.175  11.767 -0.1531 -0.1366 -0.2827
 3331DOPE   C3B39090  25.537  27.760  11.621  0.0957 -0.1033  0.1630
 3331DOPE   C4B39091  25.686  27.349  11.556 -0.2093  0.1319  0.1594
 3332DOPE   NH339092  27.651   2.704  13.369 -0.1191 -0.0356 -0.0617
 3332DOPE   PO439093  27.884   2.910  13.423  0.0852  0.3456  0.1170
 3332DOPE   GL139094  27.991   3.028  13.086 -0.0201 -0.3091 -0.1424
 3332DOPE   GL239095  28.308   2.959  13.011 -0.3004  0.1056  0.1845
 3332DOPE   C1A39096  27.828   2.872  12.636  0.2382 -0.0046 -0.2035
 3332DOPE   D2A39097  27.908   2.543  12.278 -0.1445 -0.0897  0.0300
 3332DOPE   C3A39098  28.291   2.555  11.990 -0.3466  0.0034 -0.0450
 3332DOPE   C4A39099  28.648   2.844  11.972  0.1144  0.0208 -0.0763
 3332DOPE   C1B39100  28.039   3.317  12.745 -0.1300  0.0280 -0.0140
 3332DOPE   D2B39101  27.859   3.314  12.275 -0.3312  0.1025 -0.2716
 3332DOPE   C3B39102  28.058   2.966  11.989  0.0062 -0.0109  0.3508
 3332DOPE   C4B39103  28.047   2.911  11.516 -0.0698  0.1235  0.0953
 3333DOPC   NC339104  24.674  23.002  13.307 -0.2785 -0.0229 -0.1689
 3333DOPC   PO439105  24.522  22.738  13.521  0.2024  0.0760  0.0998
 3333DOPC   GL139106  24.356  22.709  13.098  0.4585 -0.1651 -0.2006
 3333DOPC   GL239107  24.461  22.775  12.847  0.0181  0.1345  0.0774
 3333DOPC   C1A39108  23.980  22.709  12.845 -0.1942  0.0241 -0.5391
 3333DOPC   D2A39109  23.874  22.868  12.405 -0.0448 -0.1899 -0.0669
 3333DOPC   C3A39110  23.662  23.272  12.316  0.1078  0.0714 -0.3376
 3333DOPC   C4A39111  23.506  23.591  11.928 -0.2611 -0.0401 -0.0939
 3333DOPC   C1B39112  24.261  22.503  12.465 -0.3859 -0.1351 -0.1848
 3333DOPC   D2B39113  24.037  22.223  12.182 -0.2797 -0.0222  0.1722
 3333DOPC   C3B39114  24.255  21.992  11.848  0.3236 -0.2255  0.0130
 3333DOPC   C4B39115  24.554  21.784  11.547 -0.0169  0.0395  0.0885
 3334DOPC   NC339116  24.139  29.471  13.123  0.0045  0.0250 -0.1988
 3334DOPC   PO439117  24.231  29.769  13.373 -0.1763 -0.1165  0.1993
 3334DOPC   GL139118  24.113  30.108  13.068  0.2030  0.1314 -0.3776
 3334DOPC   GL239119  24.253  29.936  12.875  0.0062 -0.0863  0.0158
 3334DOPC   C1A39120  24.155  30.440  12.673 -0.3093 -0.0030 -0.1581
 3334DOPC   D2A39121  24.053  30.323  12.250  0.2225 -0.0663  0.0915
 3334DOPC   C3A39122  24.027  30.490  11.842 -0.1052 -0.1631 -0.2356
 3334DOPC   C4A39123  24.204  30.630  11.411 -0.0865  0.0954  0.0179
 3334DOPC   C1B39124  24.240  29.788  12.394  0.1309  0.1203  0.0130
 3334DOPC   D2B39125  24.186  29.814  11.934 -0.1492  0.2623  0.0227
 3334DOPC   C3B39126  23.838  29.914  11.720  0.0347 -0.0669  0.1309
 3334DOPC   C4B39127  23.510  29.848  11.431  0.2279 -0.2054  0.1658
 3335POSM   NC339128  29.842  25.685  13.281 -0.0532  0.0071 -0.4045
 3335POSM   PO439129  30.118  25.483  13.448 -0.2708  0.1895  0.0192
 3335POSM   AM139130  30.069  25.244  13.266  0.1219 -0.2867  0.3213
 3335POSM   AM239131  29.887  25.215  13.059  0.0629  0.2570 -0.1170
 3335POSM   T1A39132  29.940  24.777  13.260  0.1526 -0.2535  0.1096
 3335POSM   C2A39133  30.047  24.434  13.049 -0.0508 -0.0129 -0.4320
 3335POSM   C3A39134  29.913  24.085  12.788  0.1060  0.2867  0.0386
 3335POSM   C1B39135  29.797  25.240  12.696 -0.1697  0.0208 -0.2297
 3335POSM   D2B39136  29.622  25.175  12.285 -0.1309  0.2364 -0.0644
 3335POSM   C3B39137  29.671  24.812  11.994 -0.0554  0.0866 -0.0856
 3335POSM   C4B39138  29.564  24.859  11.512 -0.3342  0.4334 -0.3932
 3336DOPC   NC339139  24.615   5.313  12.869 -0.0303  0.0484  0.0533
 3336DOPC   PO439140  24.892   5.211  13.132 -0.1787 -0.0106 -0.3025
 3336DOPC   GL139141  25.011   5.115  12.753 -0.2247  0.0449  0.0936
 3336DOPC   GL239142  24.828   5.041  12.496 -0.1146 -0.2175  0.2212
 3336DOPC   C1A39143  25.346   5.136  12.456 -0.0158 -0.2220 -0.0747
 3336DOPC   D2A39144  25.775   5.186  12.510  0.2000  0.1704  0.1665
 3336DOPC   C3A39145  25.979   5.528  12.289 -0.1201 -0.2016  0.1093
 3336DOPC   C4A39146  26.289   5.797  12.062 -0.1826  0.2536 -0.2640
 3336DOPC   C1B39147  24.943   5.263  12.140 -0.0216  0.1053 -0.0925
 3336DOPC   D2B39148  25.270   5.183  11.800 -0.1175  0.1281  0.0873
 3336DOPC   C3B39149  25.191   5.249  11.361  0.0189  0.1190 -0.0370
 3336DOPC   C4B39150  25.112   5.054  10.963 -0.1767 -0.2029  0.0753
 3337DOPE   NH339151  31.445  25.175  13.777 -0.2766 -0.1885 -0.2480
 3337DOPE   PO439152  31.664  25.039  13.624  0.1004  0.1654  0.2625
 3337DOPE   GL139153  31.583  24.996  13.253 -0.2285  0.3433  0.3005
 3337DOPE   GL239154  31.795  24.743  13.206 -0.1946  0.0246  0.1163
 3337DOPE   C1A39155  31.425  25.017  12.867  0.0606  0.2918  0.1573
 3337DOPE   D2A39156  31.483  24.884  12.429  0.1657 -0.3023 -0.2170
 3337DOPE   C3A39157  31.649  24.904  11.996  0.0526  0.1462 -0.2447
 3337DOPE   C4A39158  31.882  24.980  11.550 -0.1542  0.0067 -0.2076
 3337DOPE   C1B39159  32.152  24.640  12.914  0.1343  0.3422 -0.1480
 3337DOPE   D2B39160  32.226  24.495  12.467  0.0715  0.0518 -0.2751
 3337DOPE   C3B39161  32.560  24.546  12.115 -0.0640 -0.2339 -0.4584
 3337DOPE   C4B39162  32.961  24.798  12.045 -0.0410  0.1899  0.1366
 3338DOPC   NC339163  25.521  32.818  12.741  0.2391  0.2328 -0.1466
 3338DOPC   PO439164  25.861  32.701  12.674 -0.0588 -0.0363  0.1106
 3338DOPC   GL139165  26.061  32.703  12.361 -0.0220  0.1626 -0.2833
 3338DOPC   GL239166  26.070  32.409  12.236  0.1555 -0.0357  0.2279
 3338DOPC   C1A39167  26.167  32.794  11.907  0.0231  0.0422  0.0857
 3338DOPC   D2A39168  26.130  32.942  11.465 -0.0144 -0.0406  0.1810
 3338DOPC   C3A39169  26.472  33.146  11.127 -0.0990  0.1403  0.1014
 3338DOPC   C4A39170  26.712  32.907  10.874 -0.4230  0.1157 -0.0610
 3338DOPC   C1B39171  26.182  32.143  11.945 -0.2332 -0.1466  0.1315
 3338DOPC   D2B39172  25.976  31.753  11.895 -0.0975 -0.0617  0.2913
 3338DOPC   C3B39173  25.589  31.531  11.856  0.0813  0.2089 -0.1545
 3338DOPC   C4B39174  25.358  31.375  11.494  0.2740  0.0729  0.1564
 3339DOPE   NH339175  22.509  32.281  12.935  0.0166 -0.0183 -0.0464
 3339DOPE   PO439176  22.736  32.139  12.791  0.0050  0.0378  0.0686
 3339DOPE   GL139177  22.885  32.210  12.447 -0.3193  0.1021  0.0593
 3339DOPE   GL239178  22.820  31.946  12.297 -0.0765 -0.0378  0.1853
 3339DOPE   C1A39179  23.288  32.285  12.231 -0.0946  0.1087 -0.0810
 3339DOPE   D2A39180  23.476  32.411  11.829 -0.0573 -0.4400 -0.0984
 3339DOPE   C3A39181  23.784  32.262  11.538 -0.2354 -0.1031  0.2696
 3339DOPE   C4A39182  23.882  32.337  11.099  0.0551  0.1147  0.1497
 3339DOPE   C1B39183  22.745  31.594  12.071 -0.1051 -0.0745  0.1727
 3339DOPE   D2B39184  22.596  31.440  11.716  0.2255  0.1957 -0.0763
 3339DOPE   C3B39185  22.977  31.601  11.515 -0.1566 -0.0398  0.0708
 3339DOPE   C4B39186  23.069  31.943  11.155 -0.1327  0.1995  0.1491
 3340DOPE   NH339187   0.102  21.767  14.219 -0.1299  0.0602 -0.2053
 3340DOPE   PO439188  -0.083  21.568  14.057 -0.0234  0.3528 -0.4860
 3340DOPE   GL139189  -0.389  21.559  13.723  0.4191  0.0147  0.1708
 3340DOPE   GL239190  -0.634  21.576  13.643  0.3634  0.1691 -0.0389
 3340DOPE   C1A39191  -0.241  21.537  13.255  0.1086  0.0388 -0.1514
 3340DOPE   D2A39192   0.047  21.528  12.984  0.1707 -0.0868  0.1257
 3340DOPE   C3A39193  -0.175  21.364  12.591 -0.3779  0.0753 -0.4032
 3340DOPE   C4A39194  -0.408  21.055  12.391  0.2635  0.2119 -0.3031
 3340DOPE   C1B39195  -0.724  21.494  13.181  0.6037  0.1895 -0.0511
 3340DOPE   D2B39196  -0.748  21.302  12.739 -0.0339  0.5977 -0.1913
 3340DOPE   C3B39197  -1.009  21.549  12.542  0.0302 -0.0816  0.1562
 3340DOPE   C4B39198  -1.419  21.533  12.254 -0.4230 -0.1385  0.1702
 3341DOPC   NC339199  26.611  27.276  12.999 -0.1303  0.1330  0.0444
 3341DOPC   PO439200  26.961  27.316  13.239  0.0071 -0.0523 -0.0276
 3341DOPC   GL139201  27.093  27.137  12.871 -0.0764  0.3487  0.0421
 3341DOPC   GL239202  26.983  26.853  12.920  0.0453 -0.0670 -0.2780
 3341DOPC   C1A39203  27.162  27.333  12.433  0.0444  0.0569  0.0672
 3341DOPC   D2A39204  27.469  27.377  12.077  0.0758 -0.1680  0.1779
 3341DOPC   C3A39205  27.446  27.112  11.704  0.2446 -0.0634  0.3734
 3341DOPC   C4A39206  27.340  26.939  11.272 -0.0448 -0.1398  0.1042
 3341DOPC   C1B39207  27.315  26.851  12.593  0.2208  0.0976 -0.0777
 3341DOPC   D2B39208  27.534  26.828  12.129  0.0287 -0.3089  0.1111
 3341DOPC   C3B39209  27.318  26.589  11.743 -0.2310 -0.2290 -0.3148
 3341DOPC   C4B39210  26.973  26.542  11.464  0.4369 -0.3600 -0.1435
 3342DOPC   NC339211  27.880  27.453  12.973 -0.2292  0.2163  0.0697
 3342DOPC   PO439212  28.135  27.728  13.137  0.3684  0.1578 -0.1254
 3342DOPC   GL139213  28.108  27.804  12.687 -0.2357  0.0641 -0.1527
 3342DOPC   GL239214  28.414  27.867  12.653 -0.3622 -0.1019  0.0626
 3342DOPC   C1A39215  27.990  27.578  12.256 -0.0629  0.2723  0.2453
 3342DOPC   D2A39216  27.885  27.309  11.862 -0.1175  0.0424  0.3341
 3342DOPC   C3A39217  27.703  27.455  11.461  0.1841 -0.0073  0.0358
 3342DOPC   C4A39218  27.733  27.802  11.192 -0.0644  0.1540  0.1505
 3342DOPC   C1B39219  28.547  27.570  12.261 -0.0077  0.0351  0.0487
 3342DOPC   D2B39220  28.565  27.565  11.765 -0.3256  0.1440  0.0943
 3342DOPC   C3B39221  28.200  27.784  11.526  0.0309 -0.1743 -0.1955
 3342DOPC   C4B39222  28.102  28.182  11.282 -0.0299  0.2767  0.0512
 3343DOPC   NC339223  31.150  30.038  13.296  0.2627  0.0684 -0.1044
 3343DOPC   PO439224  30.799  29.923  13.074 -0.2253  0.1813  0.1026
 3343DOPC   GL139225  30.800  30.038  12.657  0.2757  0.0664  0.0635
 3343DOPC   GL239226  31.120  30.145  12.757 -0.0566 -0.1235 -0.0005
 3343DOPC   C1A39227  31.080  30.003  12.258  0.0344 -0.0785 -0.1293
 3343DOPC   D2A39228  31.452  29.998  12.011  0.1883  0.0193 -0.0879
 3343DOPC   C3A39229  31.793  30.305  11.961 -0.1885  0.0205 -0.1787
 3343DOPC   C4A39230  32.100  30.694  11.924  0.2015  0.0960 -0.2503
 3343DOPC   C1B39231  31.354  30.354  12.512  0.1391 -0.2993 -0.0150
 3343DOPC   D2B39232  31.318  30.525  12.081 -0.2847  0.2896  0.4267
 3343DOPC   C3B39233  31.305  30.285  11.680 -0.1198  0.2322 -0.1220
 3343DOPC   C4B39234  31.206  29.934  11.448 -0.2418 -0.2750  0.0149
 3344DOPC   NC339235  24.451  24.957  13.368 -0.0932  0.0929  0.0065
 3344DOPC   PO439236  24.072  24.761  13.311  0.0052 -0.1757 -0.2163
 3344DOPC   GL139237  23.980  24.772  12.891  0.2179 -0.5478 -0.0821
 3344DOPC   GL239238  23.711  24.912  12.869 -0.0657  0.1259 -0.0263
 3344DOPC   C1A39239  23.914  24.528  12.494 -0.1788  0.0207  0.1684
 3344DOPC   D2A39240  23.865  24.610  12.038  0.1390 -0.0863 -0.0033
 3344DOPC   C3A39241  23.994  24.635  11.584  0.0877  0.2208 -0.1980
 3344DOPC   C4A39242  23.738  24.668  11.228 -0.0301 -0.1344 -0.2259
 3344DOPC   C1B39243  23.544  24.859  12.443 -0.1158 -0.1025 -0.1308
 3344DOPC   D2B39244  23.431  24.968  12.023  0.0194 -0.3719 -0.0219
 3344DOPC   C3B39245  23.737  25.197  11.740  0.0047  0.1393 -0.1650
 3344DOPC   C4B39246  23.995  25.102  11.365 -0.1129  0.0351 -0.0729
 3345DOPC   NC339247  28.758  26.797  12.757 -0.2118 -0.1144  0.0648
 3345DOPC   PO439248  28.410  26.923  12.798 -0.3449  0.0983  0.0492
 3345DOPC   GL139249  28.294  26.749  12.502  0.3113  0.0791 -0.5374
 3345DOPC   GL239250  28.510  26.640  12.349 -0.1597 -0.3681  0.2467
 3345DOPC   C1A39251  28.000  26.758  12.181 -0.0315  0.0176 -0.0681
 3345DOPC   D2A39252  27.794  26.768  11.720 -0.0491  0.0764  0.1896
 3345DOPC   C3A39253  27.662  26.488  11.397 -0.0079  0.0112  0.2164
 3345DOPC   C4A39254  27.907  26.497  11.016  0.2718 -0.1606 -0.0288
 3345DOPC   C1B39255  28.297  26.441  11.996 -0.0870 -0.0475 -0.2405
 3345DOPC   D2B39256  28.250  26.578  11.558 -0.3283  0.3363 -0.1352
 3345DOPC   C3B39257  28.546  26.516  11.192  0.0282  0.1491  0.0514
 3345DOPC   C4B39258  28.357  26.240  10.913 -0.0937  0.0635  0.0585
 3346DOPE   NH339259  30.758  32.800  13.108 -0.0151  0.3080  0.0045
 3346DOPE   PO439260  30.530  32.576  13.048  0.2151  0.1264  0.0574
 3346DOPE   GL139261  30.704  32.345  12.670  0.3248  0.3073  0.0402
 3346DOPE   GL239262  30.581  32.094  12.638  0.2107  0.0673 -0.1931
 3346DOPE   C1A39263  30.819  32.267  12.183  0.1857 -0.0613  0.0089
 3346DOPE   D2A39264  30.850  32.333  11.743 -0.2610 -0.1732  0.2338
 3346DOPE   C3A39265  30.873  32.780  11.539  0.0727 -0.3620  0.2431
 3346DOPE   C4A39266  31.224  32.941  11.232  0.1425 -0.2262 -0.2300
 3346DOPE   C1B39267  30.300  32.275  12.356  0.1707  0.2927 -0.1843
 3346DOPE   D2B39268  29.956  32.233  11.990  0.0848  0.1172 -0.0096
 3346DOPE   C3B39269  30.080  32.324  11.563  0.0522 -0.1045  0.1927
 3346DOPE   C4B39270  30.454  32.250  11.286 -0.4491  0.0972  0.3355
 3347DOPE   NH339271  29.677  27.634  12.324 -0.0805 -0.0457 -0.1007
 3347DOPE   PO439272  30.012  27.533  12.420 -0.0941 -0.1143  0.0538
 3347DOPE   GL139273  30.015  27.471  11.997 -0.1120  0.4519 -0.0659
 3347DOPE   GL239274  30.067  27.354  11.770 -0.2020 -0.1784 -0.2845
 3347DOPE   C1A39275  29.555  27.486  11.782  0.2178  0.0701 -0.2042
 3347DOPE   D2A39276  29.112  27.421  11.746 -0.1775 -0.3893  0.0346
 3347DOPE   C3A39277  28.819  27.094  12.018  0.0459  0.0666 -0.0857
 3347DOPE   C4A39278  28.761  26.678  11.945 -0.0025  0.1368  0.2211
 3347DOPE   C1B39279  30.349  27.484  11.427  0.0131 -0.0857 -0.1262
 3347DOPE   D2B39280  30.658  27.751  11.172  0.1591 -0.0819  0.0073
 3347DOPE   C3B39281  30.984  27.875  11.485 -0.2866  0.0509  0.1997
 3347DOPE   C4B39282  30.977  28.059  11.865 -0.2711  0.0568  0.0496
 3348POSM   NC339283  28.995  34.522  12.815 -0.0938  0.1410  0.0335
 3348POSM   PO439284  28.877  34.812  12.549  0.1899 -0.1717  0.3624
 3348POSM   AM139285  28.867  34.788  12.263 -0.1995 -0.3787  0.1256
 3348POSM   AM239286  29.043  34.782  12.022 -0.3377 -0.1583 -0.0601
 3348POSM   T1A39287  28.701  35.004  11.777 -0.0144 -0.1395  0.0511
 3348POSM   C2A39288  28.304  35.259  11.610  0.0909 -0.0265 -0.0749
 3348POSM   C3A39289  27.830  35.148  11.570 -0.3256  0.1850 -0.4675
 3348POSM   C1B39290  29.150  34.750  11.723 -0.2434  0.0433  0.2039
 3348POSM   D2B39291  29.150  34.824  11.226 -0.1413 -0.1339  0.3043
 3348POSM   C3B39292  29.419  35.151  11.047 -0.1591 -0.0868 -0.0319
 3348POSM   C4B39293  29.855  35.162  11.048 -0.2128 -0.0017 -0.3381
 3349DOPC   NC339294  31.136  23.311  14.035 -0.0462  0.1064  0.0286
 3349DOPC   PO439295  31.535  23.180  14.151 -0.2595  0.0790  0.0439
 3349DOPC   GL139296  31.497  23.206  13.693 -0.4256 -0.2222  0.1672
 3349DOPC   GL239297  31.259  22.959  13.623 -0.2609  0.1202  0.2278
 3349DOPC   C1A39298  31.350  23.304  13.225 -0.0401 -0.0990 -0.0156
 3349DOPC   D2A39299  31.597  23.478  12.819 -0.1101  0.1391  0.2245
 3349DOPC   C3A39300  31.339  23.439  12.422  0.1286  0.1503  0.1126
 3349DOPC   C4A39301  31.069  23.370  12.040 -0.0564  0.0853  0.0670
 3349DOPC   C1B39302  31.691  22.806  13.576 -0.0453 -0.2819  0.2891
 3349DOPC   D2B39303  32.048  22.518  13.382 -0.1477  0.0368  0.0866
 3349DOPC   C3B39304  32.075  22.272  13.017  0.2091  0.0014 -0.2940
 3349DOPC   C4B39305  31.634  22.137  12.810  0.0292  0.1861 -0.0283
 3350POSM   NC339306  28.325  25.923  12.930  0.0737 -0.1603  0.0758
 3350POSM   PO439307  27.922  25.804  12.899  0.0368 -0.0512 -0.0840
 3350POSM   AM139308  27.954  25.833  12.581 -0.0356 -0.0051  0.1053
 3350POSM   AM239309  27.751  25.921  12.363 -0.1188 -0.1726 -0.2240
 3350POSM   T1A39310  28.181  25.875  12.142 -0.0064  0.0724  0.1025
 3350POSM   C2A39311  28.336  25.954  11.731 -0.0507  0.0765 -0.0887
 3350POSM   C3A39312  28.637  26.241  11.635 -0.1988 -0.1498 -0.1364
 3350POSM   C1B39313  27.553  25.906  12.124  0.3458 -0.2372 -0.1428
 3350POSM   D2B39314  27.345  26.038  11.753  0.4112 -0.2673 -0.2073
 3350POSM   C3B39315  27.480  25.769  11.436 -0.0118 -0.1937  0.0841
 3350POSM   C4B39316  27.368  25.370  11.222  0.1669 -0.0032 -0.0923
 3351POSM   NC339317  22.025  32.844  13.347 -0.2277 -0.0973 -0.0927
 3351POSM   PO439318  22.214  32.750  12.996  0.0522  0.1992  0.0026
 3351POSM   AM139319  22.199  32.918  12.730  0.4071  0.1327  0.2897
 3351POSM   AM239320  22.090  32.882  12.473 -0.1566 -0.1577 -0.1466
 3351POSM   T1A39321  22.344  33.302  12.454  0.2422 -0.2817  0.1019
 3351POSM   C2A39322  22.619  33.695  12.304 -0.0134  0.1353  0.0577
 3351POSM   C3A39323  22.814  34.081  12.125  0.0078 -0.2294 -0.1121
 3351POSM   C1B39324  22.087  32.929  12.102  0.4166  0.1942 -0.1821
 3351POSM   D2B39325  22.112  32.746  11.679  0.0350 -0.0592 -0.0413
 3351POSM   C3B39326  22.316  32.507  11.329  0.0069  0.0004 -0.2958
 3351POSM   C4B39327  22.534  32.272  11.046 -0.1577  0.0904  0.3586
 3352DOPS   CNO39328  27.191  34.459  12.763 -0.0531  0.1029 -0.0542
 3352DOPS   PO439329  27.578  34.383  12.761  0.2115 -0.0264  0.2697
 3352DOPS   GL139330  27.433  34.403  12.408 -0.1321  0.3434  0.0501
 3352DOPS   GL239331  27.348  34.097  12.229  0.1155 -0.5684  0.4541
 3352DOPS   C1A39332  27.433  34.549  11.977 -0.0253 -0.2309  0.6927
 3352DOPS   D2A39333  27.561  34.665  11.607 -0.2336  0.0504  0.0294
 3352DOPS   C3A39334  27.372  34.851  11.226 -0.2018 -0.0248  0.2440
 3352DOPS   C4A39335  27.437  34.999  10.785 -0.0021 -0.1004  0.1415
 3352DOPS   C1B39336  27.098  33.930  11.890  0.0743  0.0393 -0.1632
 3352DOPS   D2B39337  27.206  33.761  11.511 -0.0637 -0.0615  0.4583
 3352DOPS   C3B39338  27.109  33.921  11.059 -0.1815 -0.2891 -0.0775
 3352DOPS   C4B39339  26.864  33.851  10.640 -0.4175 -0.3332  0.0558
 3353DOPC   NC339340  23.152  33.057  13.578  0.2342  0.0050 -0.3716
 3353DOPC   PO439341  22.994  33.189  13.238  0.2801 -0.1051 -0.2221
 3353DOPC   GL139342  22.971  33.405  12.844  0.1089 -0.7517 -0.1675
 3353DOPC   GL239343  23.169  33.515  12.715  0.0298 -0.0273  0.0586
 3353DOPC   C1A39344  22.881  33.249  12.392  0.1515 -0.5806  0.2198
 3353DOPC   D2A39345  22.961  33.071  11.976 -0.3041 -0.2394  0.1663
 3353DOPC   C3A39346  22.694  32.793  11.666  0.1495  0.2394 -0.0576
 3353DOPC   C4A39347  22.826  32.380  11.490  0.2905  0.1186 -0.0401
 3353DOPC   C1B39348  23.107  33.732  12.277  0.0256  0.2091  0.0862
 3353DOPC   D2B39349  23.135  33.761  11.821 -0.2351 -0.0984  0.1083
 3353DOPC   C3B39350  23.100  33.381  11.518  0.0679  0.1702  0.0526
 3353DOPC   C4B39351  22.733  33.207  11.421 -0.1303  0.1643  0.0348
 3354DOPE   NH339352  24.574  30.046  13.274  0.1041 -0.1802  0.2181
 3354DOPE   PO439353  24.527  30.363  13.177 -0.1357  0.1668  0.2320
 3354DOPE   GL139354  24.565  30.402  12.847 -0.1521 -0.2024  0.0941
 3354DOPE   GL239355  24.671  30.601  12.680 -0.2201  0.2672  0.1172
 3354DOPE   C1A39356  24.500  30.216  12.431  0.1823  0.2157  0.1308
 3354DOPE   D2A39357  24.457  30.358  11.981  0.1230  0.0146 -0.1642
 3354DOPE   C3A39358  24.340  30.184  11.542 -0.2578  0.0437 -0.0356
 3354DOPE   C4A39359  24.351  30.134  11.047  0.1026  0.4142 -0.0329
 3354DOPE   C1B39360  24.476  30.772  12.293 -0.1795 -0.0827 -0.1828
 3354DOPE   D2B39361  24.218  30.925  11.992  0.0875 -0.3374 -0.2664
 3354DOPE   C3B39362  23.872  30.905  11.669  0.0158  0.3355 -0.1937
 3354DOPE   C4B39363  23.606  30.684  11.419  0.2124 -0.0315  0.0875
 3355DOPE   NH339364  31.059  27.873  12.568 -0.0034  0.0402  0.0617
 3355DOPE   PO439365  31.208  27.590  12.663 -0.2809  0.1018 -0.1693
 3355DOPE   GL139366  31.062  27.512  12.290 -0.0711  0.0556 -0.0673
 3355DOPE   GL239367  30.944  27.243  12.300  0.0513 -0.1696  0.1841
 3355DOPE   C1A39368  31.177  27.529  11.844  0.1786  0.0172 -0.0894
 3355DOPE   D2A39369  31.594  27.483  11.575  0.0951 -0.0184 -0.1132
 3355DOPE   C3A39370  31.680  27.353  11.135 -0.1137 -0.0224  0.2120
 3355DOPE   C4A39371  32.074  27.189  10.937 -0.3490  0.1863 -0.0269
 3355DOPE   C1B39372  30.724  26.927  12.079  0.0467 -0.0542  0.1489
 3355DOPE   D2B39373  30.508  26.483  12.112 -0.2105  0.0167  0.0476
 3355DOPE   C3B39374  30.299  26.282  11.763 -0.0808  0.3548 -0.3907
 3355DOPE   C4B39375  30.030  26.296  11.393  0.0474 -0.0432  0.2769
 3356DOPC   NC339376  30.476  25.840  13.636 -0.0379 -0.0531  0.0348
 3356DOPC   PO439377  30.790  25.894  13.407 -0.1832  0.1707 -0.0257
 3356DOPC   GL139378  30.933  25.806  13.044  0.1729  0.4012 -0.2143
 3356DOPC   GL239379  31.107  26.061  12.995  0.0659  0.1770 -0.1886
 3356DOPC   C1A39380  31.273  25.597  12.770  0.1006 -0.0817  0.0823
 3356DOPC   D2A39381  31.587  25.390  12.515  0.0761 -0.3660  0.1466
 3356DOPC   C3A39382  31.963  25.596  12.444 -0.0327 -0.5785 -0.1051
 3356DOPC   C4A39383  32.435  25.587  12.519 -0.2174  0.0790 -0.2411
 3356DOPC   C1B39384  31.186  26.166  12.528  0.0736 -0.2289  0.0306
 3356DOPC   D2B39385  31.233  26.553  12.310 -0.0564  0.0072  0.1343
 3356DOPC   C3B39386  31.091  26.603  11.917 -0.3396 -0.3295 -0.0651
 3356DOPC   C4B39387  30.687  26.650  11.595  0.0249 -0.2523  0.0976
 3357POSM   NC339388  28.033  33.657  12.688 -0.2518  0.0332 -0.0615
 3357POSM   PO439389  28.365  33.748  12.593 -0.2983  0.2133  0.1678
 3357POSM   AM139390  28.328  33.814  12.266 -0.1492  0.0142  0.3206
 3357POSM   AM239391  28.221  33.675  12.041 -0.1944  0.1890 -0.1031
 3357POSM   T1A39392  28.383  34.092  11.919 -0.2208  0.1249 -0.1932
 3357POSM   C2A39393  28.643  34.020  11.492 -0.0910  0.3130  0.2829
 3357POSM   C3A39394  28.816  33.888  11.052  0.0735  0.1298  0.0172
 3357POSM   C1B39395  28.381  33.604  11.752  0.0126 -0.1236 -0.2223
 3357POSM   D2B39396  28.641  33.457  11.352  0.1643 -0.2908 -0.0019
 3357POSM   C3B39397  28.515  33.562  10.870  0.2350 -0.0017 -0.0836
 3357POSM   C4B39398  28.410  33.945  10.719 -0.2787  0.2547 -0.2102
 3358POSM   NC339399  24.063   2.671  12.959  0.1112 -0.0077 -0.0276
 3358POSM   PO439400  24.386   2.867  12.850  0.1125  0.0061  0.0722
 3358POSM   AM139401  24.307   2.743  12.564 -0.3789 -0.0428 -0.1641
 3358POSM   AM239402  24.101   2.749  12.384 -0.0892  0.2961  0.2035
 3358POSM   T1A39403  24.417   2.360  12.236 -0.2719 -0.2784 -0.1443
 3358POSM   C2A39404  24.842   2.201  12.048 -0.1564 -0.2343 -0.0764
 3358POSM   C3A39405  25.215   2.148  11.817  0.1285 -0.3317 -0.1249
 3358POSM   C1B39406  24.147   2.873  12.079  0.4691  0.0379 -0.0833
 3358POSM   D2B39407  24.374   3.049  11.713  0.0437 -0.0951  0.0152
 3358POSM   C3B39408  24.151   2.993  11.317 -0.1281 -0.1626 -0.3537
 3358POSM   C4B39409  24.270   2.748  10.920 -0.4025  0.2650 -0.1847
 3359DOPC   NC339410  29.709   1.452  13.131  0.2736 -0.2413 -0.0368
 3359DOPC   PO439411  29.985   1.206  13.156 -0.1224 -0.0049  0.1729
 3359DOPC   GL139412  30.086   1.202  12.749  0.0410  0.1080  0.1591
 3359DOPC   GL239413  29.863   1.328  12.584 -0.3674  0.1506  0.1218
 3359DOPC   C1A39414  30.239   1.590  12.470 -0.0889  0.2586 -0.1042
 3359DOPC   D2A39415  30.138   1.650  12.031 -0.1610 -0.1259 -0.2943
 3359DOPC   C3A39416  30.162   1.556  11.573 -0.3320 -0.2177  0.0705
 3359DOPC   C4A39417  29.948   1.391  11.204  0.0633 -0.1508 -0.1390
 3359DOPC   C1B39418  29.803   1.194  12.132  0.0729  0.3120  0.0933
 3359DOPC   D2B39419  29.934   1.124  11.681  0.1829  0.2752 -0.0465
 3359DOPC   C3B39420  29.570   1.075  11.382  0.0640 -0.1783  0.0891
 3359DOPC   C4B39421  29.366   0.813  11.074 -0.0284 -0.0567  0.0130
 3360DOPS   CNO39422  28.277  32.095  12.939 -0.2351  0.0196  0.2072
 3360DOPS   PO439423  28.315  31.853  12.607  0.2551 -0.0566 -0.1114
 3360DOPS   GL139424  28.337  31.887  12.149 -0.2564  0.1082  0.2103
 3360DOPS   GL239425  28.313  32.197  12.045  0.3769  0.0360  0.3129
 3360DOPS   C1A39426  28.062  31.633  11.847 -0.1041 -0.0587 -0.4222
 3360DOPS   D2A39427  27.911  31.527  11.372 -0.1926  0.1493 -0.5217
 3360DOPS   C3A39428  27.633  31.482  11.028 -0.0448 -0.0583  0.4495
 3360DOPS   C4A39429  27.818  31.642  10.609 -0.0329  0.4101  0.1713
 3360DOPS   C1B39430  28.282  32.094  11.595 -0.3388 -0.1939 -0.0390
 3360DOPS   D2B39431  28.314  31.882  11.161 -0.2152  0.2878  0.1222
 3360DOPS   C3B39432  28.686  31.832  10.912 -0.0199  0.0398  0.1398
 3360DOPS   C4B39433  29.100  31.707  10.758 -0.1097 -0.0870  0.1824
 3361DOPE   NH339434  32.154  28.978  13.058 -0.1325  0.0756 -0.4167
 3361DOPE   PO439435  32.046  29.221  12.864  0.0421 -0.0274 -0.0308
 3361DOPE   GL139436  31.991  29.024  12.504  0.1241 -0.0320 -0.2968
 3361DOPE   GL239437  32.005  29.283  12.375 -0.2809 -0.3588 -0.1320
 3361DOPE   C1A39438  32.113  28.793  12.120  0.1612  0.0457 -0.1768
 3361DOPE   D2A39439  32.103  28.720  11.696  0.2587  0.1466 -0.0435
 3361DOPE   C3A39440  31.992  28.336  11.437  0.3947  0.2191  0.0014
 3361DOPE   C4A39441  32.136  28.130  11.044  0.0082 -0.4221  0.2716
 3361DOPE   C1B39442  32.143  29.194  11.922 -0.0501 -0.1297 -0.2178
 3361DOPE   D2B39443  32.383  29.082  11.506  0.1431 -0.0239 -0.0893
 3361DOPE   C3B39444  32.794  29.010  11.325 -0.0569  0.2169 -0.0363
 3361DOPE   C4B39445  33.065  29.035  11.023 -0.3891  0.0990 -0.0212
 3362DOPS   CNO39446  25.183  33.711  12.657  0.2701 -0.1131 -0.0693
 3362DOPS   PO439447  25.322  33.585  13.003  0.5111 -0.0281  0.1015
 3362DOPS   GL139448  25.477  33.325  12.712 -0.3449 -0.0305 -0.0495
 3362DOPS   GL239449  25.705  33.545  12.642  0.1817  0.0586 -0.1716
 3362DOPS   C1A39450  25.465  33.172  12.239  0.2197 -0.1437  0.1768
 3362DOPS   D2A39451  25.437  33.177  11.778  0.1542  0.3031 -0.0526
 3362DOPS   C3A39452  25.588  32.851  11.447 -0.1217  0.0803  0.4248
 3362DOPS   C4A39453  25.869  32.486  11.578  0.1151 -0.1664  0.2272
 3362DOPS   C1B39454  25.737  33.601  12.216  0.0382 -0.0196  0.1701
 3362DOPS   D2B39455  25.972  33.978  11.987  0.1109 -0.0577 -0.0124
 3362DOPS   C3B39456  25.722  34.142  11.625  0.1789  0.0650 -0.0039
 3362DOPS   C4B39457  25.458  34.468  11.418 -0.1312 -0.0302  0.0550
 3363DOPS   CNO39458  24.050  26.506  13.453  0.0900  0.1650  0.0129
 3363DOPS   PO439459  23.924  26.226  13.252  0.0405 -0.0219  0.0188
 3363DOPS   GL139460  23.938  26.068  12.887 -0.3841  0.4549 -0.1783
 3363DOPS   GL239461  24.185  25.936  12.862  0.0224  0.0368  0.1999
 3363DOPS   C1A39462  24.145  26.259  12.506 -0.1596 -0.1804 -0.1809
 3363DOPS   D2A39463  24.095  26.423  12.083 -0.0888 -0.0187 -0.0915
 3363DOPS   C3A39464  23.747  26.567  11.748  0.1163  0.3053 -0.2282
 3363DOPS   C4A39465  23.531  26.997  11.796 -0.0049 -0.1489  0.0836
 3363DOPS   C1B39466  24.479  25.567  12.654 -0.2876 -0.2010  0.0651
 3363DOPS   D2B39467  24.424  25.377  12.252 -0.4443  0.0818  0.2443
 3363DOPS   C3B39468  23.903  25.349  12.164  0.0256 -0.1238  0.0695
 3363DOPS   C4B39469  23.630  25.604  11.978 -0.0213 -0.0201 -0.0575
 3364POSM   NC339470  23.289  31.286  13.747 -0.2502  0.1822 -0.1204
 3364POSM   PO439471  23.516  31.164  13.469 -0.0442  0.2635  0.0438
 3364POSM   AM139472  23.504  31.184  13.120  0.3377  0.3468  0.2784
 3364POSM   AM239473  23.254  31.222  12.933 -0.5943 -0.4092 -0.2354
 3364POSM   T1A39474  23.580  30.821  12.721  0.2253 -0.2515  0.0704
 3364POSM   C2A39475  23.648  30.402  12.677 -0.1777  0.0550 -0.2055
 3364POSM   C3A39476  23.755  29.971  12.808 -0.1118  0.0212  0.1805
 3364POSM   C1B39477  23.443  31.282  12.662  0.0275  0.1319 -0.0839
 3364POSM   D2B39478  23.646  31.198  12.293 -0.0456 -0.0618 -0.0327
 3364POSM   C3B39479  24.025  31.350  12.039  0.1740  0.0844 -0.2774
 3364POSM   C4B39480  24.348  31.282  11.715  0.0685  0.2805 -0.0627
 3365POSM   NC339481  28.652  27.845  13.076 -0.1084  0.0843  0.1675
 3365POSM   PO439482  28.849  28.074  12.847 -0.0264  0.2106  0.0356
 3365POSM   AM139483  28.938  27.882  12.574  0.0176  0.1013  0.4212
 3365POSM   AM239484  29.068  27.939  12.374  0.3224 -0.0749 -0.0163
 3365POSM   T1A39485  29.153  27.475  12.371 -0.0139  0.0102 -0.1746
 3365POSM   C2A39486  29.406  27.144  12.156  0.1718 -0.0576  0.0336
 3365POSM   C3A39487  29.747  26.985  11.852  0.2003 -0.2639 -0.3277
 3365POSM   C1B39488  29.129  27.861  12.069  0.0237 -0.0629  0.1920
 3365POSM   D2B39489  29.376  27.907  11.669  0.0598 -0.0074 -0.1215
 3365POSM   C3B39490  29.722  28.169  11.477 -0.2543  0.0034 -0.3134
 3365POSM   C4B39491  30.112  28.156  11.218 -0.0098  0.1143  0.0295
 3366DOPC   NC339492  27.231  27.635  13.555 -0.0443  0.2670  0.0963
 3366DOPC   PO439493  26.856  27.748  13.478  0.0358 -0.0222  0.1068
 3366DOPC   GL139494  26.832  27.741  13.082 -0.4518  0.3485 -0.4912
 3366DOPC   GL239495  26.572  27.806  12.920 -0.2081 -0.1801 -0.1335
 3366DOPC   C1A39496  27.076  27.810  12.689 -0.0591 -0.2863 -0.0319
 3366DOPC   D2A39497  27.284  27.806  12.252  0.0569  0.2608 -0.0100
 3366DOPC   C3A39498  27.253  27.758  11.770  0.1939 -0.3214  0.1259
 3366DOPC   C4A39499  27.446  28.087  11.470 -0.2042  0.2335  0.3136
 3366DOPC   C1B39500  26.688  27.574  12.560  0.0695  0.2339  0.2163
 3366DOPC   D2B39501  26.784  27.411  12.130 -0.1954 -0.1594  0.0157
 3366DOPC   C3B39502  27.011  27.324  11.709 -0.1592  0.0203  0.1231
 3366DOPC   C4B39503  26.910  27.191  11.275  0.4052 -0.2299  0.1559
 3367POSM   NC339504  25.698   1.374  13.243 -0.0560  0.0882 -0.1530
 3367POSM   PO439505  25.868   1.522  12.910  0.0688  0.0016 -0.2139
 3367POSM   AM139506  25.842   1.347  12.606  0.3015  0.1061 -0.3279
 3367POSM   AM239507  26.043   1.311  12.423 -0.5158 -0.0448 -0.1517
 3367POSM   T1A39508  25.620   1.038  12.343 -0.2199  0.3563 -0.0807
 3367POSM   C2A39509  25.267   0.799  12.253  0.2874  0.1237 -0.0411
 3367POSM   C3A39510  24.918   0.508  12.217  0.0017 -0.1496  0.1282
 3367POSM   C1B39511  26.090   1.459  12.138 -0.0479  0.4191  0.2633
 3367POSM   D2B39512  25.996   1.549  11.659 -0.1192  0.1445  0.1325
 3367POSM   C3B39513  25.674   1.170  11.489 -0.2083  0.0356 -0.1637
 3367POSM   C4B39514  25.563   0.803  11.217  0.0570 -0.0193 -0.0973
 3368DOPC   NC339515  29.172  31.773  12.567  0.1299 -0.0541  0.4442
 3368DOPC   PO439516  29.139  31.389  12.644  0.2491  0.1979 -0.0192
 3368DOPC   GL139517  29.318  31.364  12.295 -0.2136 -0.2306 -0.1204
 3368DOPC   GL239518  29.153  31.530  12.116 -0.0747  0.2137  0.2418
 3368DOPC   C1A39519  29.434  31.190  11.890  0.2913  0.0925 -0.0215
 3368DOPC   D2A39520  29.457  31.156  11.408 -0.1283 -0.2853 -0.0633
 3368DOPC   C3A39521  29.802  31.443  11.186  0.0579 -0.2534  0.2458
 3368DOPC   C4A39522  29.632  31.726  10.816 -0.1195  0.0041 -0.0354
 3368DOPC   C1B39523  29.168  31.576  11.680  0.1797  0.1854 -0.0281
 3368DOPC   D2B39524  29.305  31.712  11.264 -0.1970 -0.0227  0.1392
 3368DOPC   C3B39525  29.518  32.092  11.118  0.2013 -0.1144 -0.2345
 3368DOPC   C4B39526  29.697  32.544  11.281 -0.1881  0.1177  0.1365
 3369POSM   NC339527  30.767  31.596  13.342  0.2935 -0.2920 -0.4054
 3369POSM   PO439528  31.078  31.808  13.252 -0.1726  0.1448  0.1706
 3369POSM   AM139529  31.194  31.880  12.962 -0.0738 -0.0052 -0.1567
 3369POSM   AM239530  31.424  31.782  12.829  0.0956  0.0243 -0.2148
 3369POSM   T1A39531  31.060  32.003  12.511  0.1288 -0.2710  0.1204
 3369POSM   C2A39532  31.374  32.145  12.134 -0.1635 -0.1100  0.0202
 3369POSM   C3A39533  31.788  32.188  11.860 -0.1461  0.0381 -0.0766
 3369POSM   C1B39534  31.644  31.875  12.573  0.2942 -0.0804  0.1494
 3369POSM   D2B39535  31.910  32.165  12.388  0.1928 -0.0145 -0.0432
 3369POSM   C3B39536  32.196  31.991  12.076  0.0985 -0.5431  0.0682
 3369POSM   C4B39537  32.310  31.723  11.749 -0.1430  0.1226  0.2018
 3370POSM   NC339538  30.766  21.272  14.142  0.0378  0.3016 -0.1166
 3370POSM   PO439539  30.925  21.571  13.942  0.0539 -0.0129 -0.4549
 3370POSM   AM139540  31.086  21.691  13.654  0.4067  0.1756 -0.3162
 3370POSM   AM239541  31.216  21.630  13.421  0.0826 -0.2582  0.1928
 3370POSM   T1A39542  31.210  22.104  13.410  0.0041  0.1649 -0.1215
 3370POSM   C2A39543  31.108  22.507  13.335  0.2705  0.1699 -0.2555
 3370POSM   C3A39544  31.233  22.827  12.995  0.1450  0.0943  0.0828
 3370POSM   C1B39545  31.019  21.715  13.164 -0.0216 -0.1033  0.0393
 3370POSM   D2B39546  30.708  21.755  12.809 -0.2000 -0.1952 -0.0979
 3370POSM   C3B39547  30.780  22.003  12.421 -0.1987  0.1414 -0.1895
 3370POSM   C4B39548  30.876  22.093  11.985 -0.0418  0.2625  0.0142
 3371DOPC   NC339549  26.621  25.688  13.253 -0.0312 -0.2719  0.1102
 3371DOPC   PO439550  26.917  25.883  13.135 -0.1182  0.0953  0.2531
 3371DOPC   GL139551  26.937  25.690  12.795 -0.0281  0.3707 -0.0103
 3371DOPC   GL239552  26.696  25.624  12.726  0.1822 -0.1109 -0.2075
 3371DOPC   C1A39553  27.121  25.812  12.384  0.0524  0.3142 -0.0365
 3371DOPC   D2A39554  27.182  25.539  11.956 -0.0398 -0.3481 -0.1207
 3371DOPC   C3A39555  27.561  25.332  11.826 -0.2294 -0.3730  0.0954
 3371DOPC   C4A39556  27.864  25.194  11.463 -0.2272 -0.1920 -0.1696
 3371DOPC   C1B39557  26.521  25.657  12.286  0.1204 -0.3460  0.2018
 3371DOPC   D2B39558  26.716  25.703  11.918  0.0038 -0.0079  0.0303
 3371DOPC   C3B39559  26.508  25.533  11.493 -0.0155  0.0138 -0.0731
 3371DOPC   C4B39560  26.283  25.878  11.341 -0.1261  0.0685 -0.4898
 3372DOPE   NH339561  25.949  28.433  13.382 -0.0116  0.0804 -0.3339
 3372DOPE   PO439562  26.249  28.317  13.403 -0.0622  0.1665  0.1174
 3372DOPE   GL139563  26.272  28.097  13.054 -0.0371  0.0254  0.0017
 3372DOPE   GL239564  26.008  28.076  13.024 -0.1896  0.0111 -0.0989
 3372DOPE   C1A39565  26.328  28.069  12.589  0.0106 -0.1186 -0.1157
 3372DOPE   D2A39566  26.333  27.945  12.106 -0.0727 -0.1644 -0.3532
 3372DOPE   C3A39567  26.014  27.805  11.824  0.2680 -0.0904 -0.0920
 3372DOPE   C4A39568  25.999  27.785  11.347 -0.2880  0.1597 -0.2391
 3372DOPE   C1B39569  25.836  27.899  12.678 -0.2671  0.3468 -0.0975
 3372DOPE   D2B39570  25.554  27.944  12.321 -0.0136 -0.2027 -0.2844
 3372DOPE   C3B39571  25.561  27.603  12.069 -0.0138 -0.1021 -0.0972
 3372DOPE   C4B39572  25.900  27.262  11.991  0.0977 -0.0011  0.0411
 3373DOPC   NC339573  25.772  26.964  13.561 -0.0367  0.2395 -0.2447
 3373DOPC   PO439574  25.371  26.908  13.568 -0.2119  0.0487 -0.2850
 3373DOPC   GL139575  25.486  26.992  13.252 -0.3702  0.2837 -0.1388
 3373DOPC   GL239576  25.284  27.123  13.095 -0.0507  0.1346 -0.1924
 3373DOPC   C1A39577  25.752  26.954  12.886  0.2213 -0.1459 -0.2045
 3373DOPC   D2A39578  25.911  27.043  12.444 -0.3206  0.1663  0.1216
 3373DOPC   C3A39579  25.881  26.714  12.073  0.0024 -0.1309 -0.1057
 3373DOPC   C4A39580  26.018  26.263  12.112 -0.0822  0.0392 -0.0452
 3373DOPC   C1B39581  25.275  26.907  12.690 -0.1651  0.2258 -0.2267
 3373DOPC   D2B39582  25.600  26.576  12.590  0.0457  0.1005 -0.2001
 3373DOPC   C3B39583  26.111  26.593  12.504  0.0468 -0.0315 -0.2277
 3373DOPC   C4B39584  26.455  26.625  12.226 -0.1138 -0.0301  0.2096
 3374POSM   NC339585  31.850  30.791  13.449  0.0588  0.1131 -0.1726
 3374POSM   PO439586  32.193  30.927  13.377  0.0280 -0.0789 -0.3422
 3374POSM   AM139587  32.291  30.819  13.054  0.2542  0.0133 -0.6356
 3374POSM   AM239588  32.302  30.957  12.818 -0.4416 -0.2771  0.3186
 3374POSM   T1A39589  32.333  30.456  12.711 -0.0131 -0.2035  0.0822
 3374POSM   C2A39590  32.223  30.241  12.295 -0.0631 -0.2580 -0.1270
 3374POSM   C3A39591  32.414  29.913  12.012 -0.1870 -0.2639  0.1682
 3374POSM   C1B39592  32.410  31.112  12.537 -0.0272 -0.1028  0.1395
 3374POSM   D2B39593  32.317  31.347  12.141 -0.1119 -0.3167 -0.4815
 3374POSM   C3B39594  31.903  31.369  11.918  0.0228 -0.0712  0.0946
 3374POSM   C4B39595  31.810  31.593  11.542  0.2182  0.2376  0.4905
 3375POSM   NC339596  21.419  31.933  12.704  0.1272  0.4604 -0.0593
 3375POSM   PO439597  21.518  32.331  12.811  0.2809  0.0868  0.2826
 3375POSM   AM139598  21.605  32.531  12.537  0.2325 -0.1347 -0.2354
 3375POSM   AM239599  21.627  32.788  12.386  0.1771 -0.1817 -0.0677
 3375POSM   T1A39600  21.976  32.500  12.208  0.1779  0.1086  0.0111
 3375POSM   C2A39601  22.402  32.453  11.986  0.1217  0.0317  0.0721
 3375POSM   C3A39602  22.863  32.421  12.007 -0.0307 -0.1414  0.1663
 3375POSM   C1B39603  21.466  32.654  12.043  0.0205 -0.0569 -0.3742
 3375POSM   D2B39604  21.577  32.500  11.646  0.1514 -0.0363  0.0840
 3375POSM   C3B39605  21.601  32.225  11.338  0.0815  0.0628  0.1080
 3375POSM   C4B39606  21.702  31.813  11.581  0.2083 -0.3373  0.1619
 3376POSM   NC339607  29.160  29.577  12.673  0.0878 -0.3621 -0.0357
 3376POSM   PO439608  28.786  29.458  12.689  0.2043  0.1443  0.1375
 3376POSM   AM139609  28.670  29.357  12.391 -0.4481 -0.4408 -0.4823
 3376POSM   AM239610  28.412  29.254  12.325  0.0285  0.0918  0.1682
 3376POSM   T1A39611  28.778  29.112  11.971  0.0067 -0.0657  0.0563
 3376POSM   C2A39612  28.693  28.844  11.627  0.1607  0.3946 -0.0938
 3376POSM   C3A39613  28.435  28.446  11.510  0.0652 -0.2367  0.1049
 3376POSM   C1B39614  28.255  29.333  12.035  0.0971 -0.1028  0.0557
 3376POSM   D2B39615  28.229  29.552  11.654 -0.2560  0.1801 -0.2007
 3376POSM   C3B39616  28.465  29.896  11.472  0.0330 -0.2368  0.0866
 3376POSM   C4B39617  28.856  29.962  11.268  0.0056 -0.1536  0.3650
 3377POSM   NC339618  23.834   1.816  13.052  0.1272  0.0379  0.0334
 3377POSM   PO439619  24.015   2.159  13.168 -0.0086  0.0940 -0.0895
 3377POSM   AM139620  24.009   2.265  12.880 -0.0393  0.3875 -0.1331
 3377POSM   AM239621  24.137   2.249  12.642  0.3715  0.2441 -0.1885
 3377POSM   T1A39622  23.665   2.510  12.587 -0.1930  0.1518 -0.2791
 3377POSM   C2A39623  23.724   2.551  12.110  0.2450 -0.0207  0.2923
 3377POSM   C3A39624  24.012   2.248  11.913  0.0288  0.0603 -0.0615
 3377POSM   C1B39625  24.017   2.097  12.390  0.1746 -0.0338 -0.0559
 3377POSM   D2B39626  23.791   1.851  12.071  0.0008  0.0374 -0.0616
 3377POSM   C3B39627  23.548   1.563  11.839  0.3303  0.2411 -0.0011
 3377POSM   C4B39628  23.239   1.764  11.510 -0.2266 -0.2116  0.2647
 3378DOPC   NC339629  30.064  31.083  13.050  0.1472  0.2083 -0.1201
 3378DOPC   PO439630  29.988  31.450  12.921  0.1333 -0.1050  0.0627
 3378DOPC   GL139631  30.038  31.550  12.601 -0.4231 -0.2344 -0.0429
 3378DOPC   GL239632  30.320  31.703  12.612  0.2169  0.1518 -0.0631
 3378DOPC   C1A39633  30.247  31.383  12.199  0.0085  0.3373 -0.1091
 3378DOPC   D2A39634  30.598  31.463  11.859  0.1299  0.2248 -0.0546
 3378DOPC   C3A39635  30.541  31.419  11.393  0.1201  0.1932 -0.1116
 3378DOPC   C4A39636  30.352  31.631  11.056  0.2783  0.2617 -0.0484
 3378DOPC   C1B39637  30.496  31.799  12.210 -0.0582 -0.0652  0.1584
 3378DOPC   D2B39638  30.409  32.083  11.849 -0.5541  0.0046 -0.1450
 3378DOPC   C3B39639  30.699  31.872  11.561 -0.1153 -0.1471  0.1740
 3378DOPC   C4B39640  30.898  32.041  11.140 -0.1062  0.0997 -0.0678
 3379POSM   NC339641  33.294  30.651  13.458  0.0637  0.1667  0.1686
 3379POSM   PO439642  33.306  30.459  13.117  0.0958 -0.2757  0.0890
 3379POSM   AM139643  33.363  30.461  12.814  0.1760 -0.1343 -0.3091
 3379POSM   AM239644  33.302  30.542  12.550 -0.5670 -0.0844  0.0187
 3379POSM   T1A39645  33.270  30.103  12.492 -0.2938  0.0993  0.0527
 3379POSM   C2A39646  33.258  29.994  12.000  0.0981 -0.2397 -0.0402
 3379POSM   C3A39647  32.926  29.954  11.705  0.1240  0.1401 -0.2598
 3379POSM   C1B39648  33.464  30.584  12.261 -0.1717 -0.0754 -0.1709
 3379POSM   D2B39649  33.513  30.381  11.884 -0.3057  0.1513 -0.2826
 3379POSM   C3B39650  33.834  30.620  11.905  0.2308  0.0643 -0.0480
 3379POSM   C4B39651  33.872  31.014  11.734  0.2467  0.0370 -0.1223
 3380DOPS   CNO39652  27.576  27.030  12.982 -0.1573  0.3987 -0.1804
 3380DOPS   PO439653  27.957  26.989  13.014 -0.1483 -0.0180 -0.0434
 3380DOPS   GL139654  27.998  27.117  12.574  0.3345 -0.0428  0.0021
 3380DOPS   GL239655  27.695  27.151  12.487 -0.1606 -0.1123 -0.0540
 3380DOPS   C1A39656  28.320  27.128  12.178  0.1690  0.0963 -0.4490
 3380DOPS   D2A39657  28.376  27.011  11.721  0.0258 -0.1799 -0.2545
 3380DOPS   C3A39658  28.233  27.304  11.458  0.0328 -0.0108  0.4354
 3380DOPS   C4A39659  28.098  27.449  11.042  0.3599 -0.0317 -0.3385
 3380DOPS   C1B39660  27.599  27.562  12.577 -0.3832  0.3488 -0.0375
 3380DOPS   D2B39661  27.719  27.943  12.869  0.2288 -0.0645 -0.1758
 3380DOPS   C3B39662  27.519  28.249  12.596 -0.3505  0.0444 -0.1293
 3380DOPS   C4B39663  27.323  28.549  12.397  0.2866  0.0502  0.1491
 3381DOPS   CNO39664  22.394  31.195  13.014  0.0378  0.1276 -0.0822
 3381DOPS   PO439665  22.742  31.265  13.077 -0.1691 -0.1224 -0.0685
 3381DOPS   GL139666  22.697  31.213  12.657  0.3184 -0.1959 -0.3124
 3381DOPS   GL239667  22.939  31.268  12.553 -0.2018  0.1427 -0.1991
 3381DOPS   C1A39668  22.642  31.145  12.173 -0.1269 -0.1193 -0.2297
 3381DOPS   D2A39669  22.253  31.076  11.944  0.0764 -0.2913  0.0986
 3381DOPS   C3A39670  22.281  31.166  11.529 -0.3396 -0.1807 -0.1955
 3381DOPS   C4A39671  22.398  31.423  11.110 -0.2935 -0.0057 -0.0294
 3381DOPS   C1B39672  23.209  31.479  12.215 -0.2573  0.0747  0.1519
 3381DOPS   D2B39673  23.179  31.854  11.932 -0.2251  0.0472 -0.1147
 3381DOPS   C3B39674  23.399  31.965  11.521 -0.1419 -0.0738  0.0798
 3381DOPS   C4B39675  23.380  32.344  11.253  0.0654 -0.0778  0.2594
 3382DOPS   CNO39676  26.690   0.793  13.128  0.1899 -0.0965  0.0458
 3382DOPS   PO439677  26.606   1.058  12.888  0.2789  0.1973  0.0595
 3382DOPS   GL139678  26.485   0.920  12.544  0.2027 -0.2339  0.1463
 3382DOPS   GL239679  26.530   1.133  12.406  0.1841 -0.2106 -0.3652
 3382DOPS   C1A39680  26.597   0.627  12.191  0.1558  0.1633 -0.0581
 3382DOPS   D2A39681  26.482   0.671  11.771  0.1011  0.1294 -0.0701
 3382DOPS   C3A39682  26.504   0.576  11.326 -0.1027 -0.1117 -0.0452
 3382DOPS   C4A39683  26.428   0.364  10.909 -0.2116  0.0084 -0.0040
 3382DOPS   C1B39684  26.441   1.192  11.920 -0.1347  0.0900 -0.1374
 3382DOPS   D2B39685  26.279   1.100  11.497 -0.0936 -0.0961  0.3169
 3382DOPS   C3B39686  26.517   1.425  11.209 -0.1092  0.1185  0.0310
 3382DOPS   C4B39687  26.533   1.870  10.943  0.1954  0.3101 -0.1245
 3383POSM   NC339688  30.863  27.258  12.798 -0.1032  0.2058  0.1175
 3383POSM   PO439689  30.665  27.626  12.783  0.0564  0.0374 -0.0186
 3383POSM   AM139690  30.638  27.610  12.439 -0.0739  0.4921 -0.3859
 3383POSM   AM239691  30.660  27.818  12.280 -0.2028 -0.1775  0.3400
 3383POSM   T1A39692  30.650  27.425  11.966  0.0130  0.1991  0.2370
 3383POSM   C2A39693  30.515  27.120  11.672 -0.1111 -0.2341  0.2601
 3383POSM   C3A39694  30.386  26.960  11.245 -0.2637  0.0644 -0.1897
 3383POSM   C1B39695  30.530  27.870  11.954 -0.0115 -0.0368 -0.3379
 3383POSM   D2B39696  30.499  28.183  11.554 -0.0299 -0.1081 -0.0333
 3383POSM   C3B39697  30.703  28.253  11.146 -0.1646 -0.3142  0.1591
 3383POSM   C4B39698  30.990  28.294  10.820 -0.5043 -0.3872  0.1846
 3384DOPE   NH339699  28.362   1.755  13.164 -0.0383 -0.0608  0.1881
 3384DOPE   PO439700  28.137   1.983  13.105  0.1647  0.1930  0.3079
 3384DOPE   GL139701  27.887   1.957  12.867  0.1477  0.0007 -0.2128
 3384DOPE   GL239702  28.004   2.145  12.660  0.1069  0.3590  0.0096
 3384DOPE   C1A39703  27.858   1.659  12.412  0.0834  0.1205 -0.0698
 3384DOPE   D2A39704  27.988   1.677  11.967 -0.2010  0.1897  0.2358
 3384DOPE   C3A39705  28.432   1.691  12.127 -0.4216 -0.0228  0.0827
 3384DOPE   C4A39706  28.554   1.978  12.474 -0.1190  0.0046 -0.0495
 3384DOPE   C1B39707  28.143   2.123  12.245  0.0508 -0.1178  0.3259
 3384DOPE   D2B39708  28.268   2.072  11.784 -0.1159  0.2829 -0.0615
 3384DOPE   C3B39709  28.545   1.755  11.557  0.1995 -0.1755  0.1393
 3384DOPE   C4B39710  28.866   1.743  11.207  0.0321 -0.1092  0.0275
 3385POSM   NC339711  28.482  24.435  13.825 -0.4012  0.4221 -0.0927
 3385POSM   PO439712  28.192  24.582  13.584  0.1443 -0.2872 -0.3836
 3385POSM   AM139713  28.319  24.457  13.304  0.5354  0.0548 -0.2093
 3385POSM   AM239714  28.581  24.519  13.163 -0.1577  0.1482 -0.1374
 3385POSM   T1A39715  28.248  24.256  12.906  0.0458 -0.0026 -0.0986
 3385POSM   C2A39716  28.247  23.966  12.536  0.1926  0.0609 -0.1232
 3385POSM   C3A39717  28.115  23.660  12.182  0.0470  0.0996 -0.0066
 3385POSM   C1B39718  28.621  24.556  12.835 -0.0795  0.0569 -0.2577
 3385POSM   D2B39719  28.672  24.493  12.407  0.0308 -0.0041 -0.1126
 3385POSM   C3B39720  28.611  24.683  11.979 -0.0289 -0.0155  0.1795
 3385POSM   C4B39721  28.236  24.859  11.701  0.1878 -0.3670  0.0243
 3386DOPS   CNO39722  28.179  33.289  12.320  0.3041  0.3483 -0.0828
 3386DOPS   PO439723  27.826  33.356  12.341 -0.1316 -0.0848  0.0661
 3386DOPS   GL139724  27.744  33.487  11.958 -0.8015 -0.2189 -0.2423
 3386DOPS   GL239725  27.559  33.751  11.939 -0.2170 -0.1169 -0.2242
 3386DOPS   C1A39726  27.596  33.352  11.528  0.1470  0.3114  0.1693
 3386DOPS   D2A39727  27.540  33.620  11.169  0.0427  0.1241  0.2254
 3386DOPS   C3A39728  27.619  34.081  11.131 -0.0189 -0.0204  0.1582
 3386DOPS   C4A39729  27.739  34.511  11.154  0.1171  0.0297  0.1035
 3386DOPS   C1B39730  27.968  33.856  11.633  0.1558 -0.1368 -0.0893
 3386DOPS   D2B39731  28.242  33.701  11.245  0.2216 -0.0530 -0.1354
 3386DOPS   C3B39732  27.962  33.829  10.898 -0.0844  0.0245 -0.0000
 3386DOPS   C4B39733  27.592  33.829  10.663  0.0444  0.3396  0.0067
 3387POSM   NC339734  29.479  27.327  13.145 -0.2363 -0.1007  0.0165
 3387POSM   PO439735  29.205  27.057  13.071  0.1841  0.0750 -0.2321
 3387POSM   AM139736  29.232  26.897  12.784  0.0622  0.1288 -0.3618
 3387POSM   AM239737  29.460  26.751  12.682  0.1421  0.1799  0.1571
 3387POSM   T1A39738  29.097  26.809  12.280  0.1801 -0.1569  0.0466
 3387POSM   C2A39739  29.200  26.810  11.815  0.2201 -0.0447  0.4335
 3387POSM   C3A39740  28.961  26.629  11.455  0.1209 -0.0163  0.1128
 3387POSM   C1B39741  29.562  26.621  12.361 -0.0641  0.1595  0.2442
 3387POSM   D2B39742  29.782  26.502  11.952  0.1173  0.0571 -0.3882
 3387POSM   C3B39743  29.504  26.470  11.589 -0.0816  0.0615 -0.1197
 3387POSM   C4B39744  29.464  26.294  11.142  0.2250 -0.1258 -0.0234
 3388POSM   NC339745  27.995  25.589  13.327 -0.2154 -0.0494  0.1895
 3388POSM   PO439746  28.349  25.469  13.109 -0.3567  0.0097 -0.0273
 3388POSM   AM139747  28.507  25.491  12.827 -0.3355 -0.0882  0.2664
 3388POSM   AM239748  28.371  25.589  12.549 -0.4239  0.1383  0.0371
 3388POSM   T1A39749  28.837  25.479  12.427 -0.0418  0.0447 -0.3414
 3388POSM   C2A39750  29.154  25.482  12.127  0.0138  0.3238 -0.0623
 3388POSM   C3A39751  29.307  25.167  11.877  0.0523 -0.2327 -0.3876
 3388POSM   C1B39752  28.385  25.424  12.288  0.1880 -0.1818 -0.0084
 3388POSM   D2B39753  28.591  25.189  11.962 -0.0079  0.1392 -0.0211
 3388POSM   C3B39754  28.885  25.237  11.603  0.1739 -0.1761  0.1333
 3388POSM   C4B39755  29.035  25.188  11.180 -0.1453 -0.0009 -0.1248
 3389POSM   NC339756  24.892  31.649  13.329  0.0385 -0.1742 -0.2618
 3389POSM   PO439757  24.701  31.917  13.095 -0.3820  0.0100  0.0029
 3389POSM   AM139758  24.561  31.754  12.832 -0.0041  0.2984 -0.2081
 3389POSM   AM239759  24.651  31.776  12.565  0.0997 -0.1624 -0.2644
 3389POSM   T1A39760  24.207  31.609  12.498  0.1868  0.0554  0.1204
 3389POSM   C2A39761  23.785  31.680  12.444  0.1080  0.0238 -0.1668
 3389POSM   C3A39762  23.382  31.817  12.473 -0.0662 -0.1225 -0.3419
 3389POSM   C1B39763  24.547  31.985  12.312  0.2632 -0.1726 -0.1412
 3389POSM   D2B39764  24.578  31.970  11.844  0.1859  0.4124  0.1853
 3389POSM   C3B39765  24.612  31.656  11.503  0.0668 -0.1253 -0.0750
 3389POSM   C4B39766  24.946  31.549  11.101  0.0357  0.0409 -0.0691
 3390DOPE   NH339767  32.141  33.045  12.986 -0.0327 -0.1751  0.0292
 3390DOPE   PO439768  32.420  32.908  13.065 -0.1498 -0.0841  0.1322
 3390DOPE   GL139769  32.571  32.781  12.717 -0.1194  0.1305 -0.1923
 3390DOPE   GL239770  32.391  32.880  12.562  0.1737 -0.1940 -0.1936
 3390DOPE   C1A39771  32.840  32.976  12.366  0.1611  0.2611  0.2542
 3390DOPE   D2A39772  33.027  33.138  11.990  0.2432 -0.0688 -0.4480
 3390DOPE   C3A39773  33.077  33.155  11.495  0.1319  0.0975 -0.1280
 3390DOPE   C4A39774  33.387  33.183  11.187  0.0967  0.1340  0.2416
 3390DOPE   C1B39775  32.434  33.002  12.068  0.0528 -0.0609  0.0653
 3390DOPE   D2B39776  32.499  33.229  11.628  0.0772 -0.1931  0.1380
 3390DOPE   C3B39777  32.754  32.813  11.653 -0.0410 -0.2229  0.0655
 3390DOPE   C4B39778  33.031  32.447  11.856  0.1283  0.0449  0.2779
 3391DOPE   NH339779  22.592  30.798  13.356 -0.5579  0.1552 -0.1424
 3391DOPE   PO439780  22.797  30.581  13.230 -0.4910  0.0212 -0.0112
 3391DOPE   GL139781  23.042  30.304  13.028 -0.1342  0.1269 -0.0139
 3391DOPE   GL239782  23.109  30.394  12.779  0.3685 -0.0421  0.1500
 3391DOPE   C1A39783  23.251  29.929  12.909  0.3555 -0.3735  0.0105
 3391DOPE   D2A39784  23.083  29.643  12.603  0.0875 -0.1330 -0.1374
 3391DOPE   C3A39785  23.203  29.745  12.150  0.0365 -0.1591  0.2487
 3391DOPE   C4A39786  22.951  29.786  11.729  0.0718 -0.1467 -0.2691
 3391DOPE   C1B39787  23.306  30.153  12.446  0.5602  0.1922  0.3223
 3391DOPE   D2B39788  23.722  29.878  12.330 -0.2020 -0.1326 -0.1314
 3391DOPE   C3B39789  23.871  29.532  12.613 -0.0337 -0.1425  0.2294
 3391DOPE   C4B39790  23.997  29.119  12.790  0.1229  0.1250 -0.1234
 3392DOPS   CNO39791  34.363  20.992  14.677 -0.0280 -0.1449 -0.2441
 3392DOPS   PO439792  34.348  20.766  14.351 -0.1088 -0.0585  0.1244
 3392DOPS   GL139793  34.437  20.419  14.233 -0.0109  0.0110 -0.0021
 3392DOPS   GL239794  34.368  20.104  14.376  0.0413  0.2404 -0.1969
 3392DOPS   C1A39795  34.447  20.393  13.759 -0.0410  0.0310 -0.3238
 3392DOPS   D2A39796  34.543  20.600  13.338  0.1138 -0.0185 -0.0459
 3392DOPS   C3A39797  34.272  20.532  12.977 -0.1849 -0.0049  0.1590
 3392DOPS   C4A39798  34.101  20.733  12.584 -0.1413  0.0051  0.1041
 3392DOPS   C1B39799  34.509  19.893  13.977  0.2930 -0.0594 -0.1990
 3392DOPS   D2B39800  34.568  19.657  13.589  0.0314 -0.2479 -0.2010
 3392DOPS   C3B39801  34.759  19.692  13.193  0.0899  0.1823 -0.1835
 3392DOPS   C4B39802  34.957  19.886  12.824  0.1669  0.1730 -0.2523
 3393DOPS   CNO39803  22.256  26.618  12.987 -0.1109 -0.0849 -0.1025
 3393DOPS   PO439804  22.053  26.356  12.805  0.1309 -0.0568  0.0205
 3393DOPS   GL139805  21.759  26.218  12.560  0.2486 -0.3571 -0.0627
 3393DOPS   GL239806  21.727  26.440  12.418  0.2290 -0.1658  0.0705
 3393DOPS   C1A39807  21.681  25.853  12.315 -0.1136  0.0468 -0.0433
 3393DOPS   D2A39808  21.654  25.559  12.047 -0.0394 -0.0595 -0.1051
 3393DOPS   C3A39809  21.528  25.449  11.599  0.0800  0.0369 -0.3288
 3393DOPS   C4A39810  21.216  25.308  11.237 -0.1985  0.3481  0.4696
 3393DOPS   C1B39811  21.794  26.732  12.124 -0.1394 -0.0771 -0.0857
 3393DOPS   D2B39812  22.186  26.800  11.859  0.3259  0.4437  0.1632
 3393DOPS   C3B39813  22.351  27.108  11.613  0.1710 -0.0842 -0.0695
 3393DOPS   C4B39814  22.250  27.477  11.348  0.1326 -0.1174 -0.2328
 3394DOPE   NH339815  24.146  32.930  13.051  0.2501  0.0609 -0.1846
 3394DOPE   PO439816  23.941  33.158  13.111 -0.0402 -0.3057  0.3376
 3394DOPE   GL139817  23.638  33.283  12.710 -0.0587 -0.0363  0.0375
 3394DOPE   GL239818  23.727  33.032  12.583  0.2085  0.2004  0.2240
 3394DOPE   C1A39819  23.403  33.343  12.368 -0.1048 -0.0055  0.1654
 3394DOPE   D2A39820  23.445  33.334  11.910  0.2929  0.2082  0.1205
 3394DOPE   C3A39821  23.590  32.946  11.792 -0.1229 -0.0893  0.1207
 3394DOPE   C4A39822  23.678  32.735  11.407  0.1132  0.1647 -0.0955
 3394DOPE   C1B39823  23.879  33.122  12.188  0.0766  0.1467 -0.3032
 3394DOPE   D2B39824  24.269  32.909  11.986  0.0741 -0.0844 -0.1492
 3394DOPE   C3B39825  24.661  33.078  11.851  0.1081 -0.2508  0.0311
 3394DOPE   C4B39826  24.986  33.300  11.606 -0.0020 -0.0462  0.0723
 3395DOPC   NC339827  25.951  33.697  13.069 -0.1769  0.0956  0.0590
 3395DOPC   PO439828  26.192  33.450  12.880  0.0572 -0.0842 -0.2507
 3395DOPC   GL139829  26.227  33.196  12.543 -0.0137 -0.4874  0.3141
 3395DOPC   GL239830  25.968  33.147  12.423 -0.4497  0.0981  0.0185
 3395DOPC   C1A39831  26.438  33.149  12.145 -0.1652 -0.1180  0.1362
 3395DOPC   D2A39832  26.599  33.270  11.657  0.2133  0.1304  0.1009
 3395DOPC   C3A39833  26.596  33.635  11.394  0.0821  0.0152 -0.0309
 3395DOPC   C4A39834  26.724  34.030  11.464 -0.0165  0.0815 -0.0509
 3395DOPC   C1B39835  25.919  33.241  11.964  0.1928 -0.2696 -0.3115
 3395DOPC   D2B39836  25.724  33.610  11.666  0.0441  0.2147 -0.0330
 3395DOPC   C3B39837  25.282  33.730  11.869  0.0198  0.0020 -0.1291
 3395DOPC   C4B39838  25.067  34.123  11.860  0.0725 -0.2557 -0.0948
 3396DOPE   NH339839  28.608   0.359  12.740  0.1850 -0.0379  0.1888
 3396DOPE   PO439840  28.622   0.658  12.873  0.1432 -0.0894  0.0695
 3396DOPE   GL139841  28.888   0.779  12.597 -0.0298 -0.4387 -0.0032
 3396DOPE   GL239842  29.083   1.036  12.645 -0.3139 -0.1913 -0.0058
 3396DOPE   C1A39843  29.098   0.689  12.208  0.0121 -0.0540 -0.1111
 3396DOPE   D2A39844  29.253   0.461  11.838 -0.2957 -0.1845 -0.2618
 3396DOPE   C3A39845  29.615   0.569  11.527  0.3609 -0.1574 -0.0180
 3396DOPE   C4A39846  30.042   0.731  11.421  0.0959 -0.2149  0.0726
 3396DOPE   C1B39847  29.335   1.202  12.278 -0.3302 -0.1102  0.1232
 3396DOPE   D2B39848  29.350   1.199  11.821 -0.0981  0.2154  0.0598
 3396DOPE   C3B39849  29.080   0.910  11.606  0.0033 -0.2152 -0.0900
 3396DOPE   C4B39850  28.934   0.489  11.389 -0.1188  0.1704  0.2009
 3397DOPC   NC339851  26.467  27.373  13.481  0.2760  0.1473  0.2335
 3397DOPC   PO439852  26.059  27.448  13.541  0.1058  0.0223 -0.1022
 3397DOPC   GL139853  26.151  27.546  13.138 -0.1775  0.3239 -0.1995
 3397DOPC   GL239854  25.870  27.442  13.002  0.4770  0.2913 -0.1870
 3397DOPC   C1A39855  26.212  27.412  12.649 -0.0823  0.2940 -0.0456
 3397DOPC   D2A39856  26.291  27.479  12.194 -0.1541 -0.1069 -0.0563
 3397DOPC   C3A39857  26.453  27.534  11.738 -0.2541  0.0741  0.0474
 3397DOPC   C4A39858  26.423  27.443  11.324  0.1384 -0.0370 -0.1798
 3397DOPC   C1B39859  25.552  27.424  12.635  0.0730  0.0170 -0.0998
 3397DOPC   D2B39860  25.275  27.272  12.251 -0.0146 -0.1584  0.1454
 3397DOPC   C3B39861  25.152  27.484  11.825 -0.0530 -0.0327 -0.0014
 3397DOPC   C4B39862  25.107  27.742  11.409  0.2374  0.0123  0.0553
 3398DOPE   NH339863  31.480  28.367  12.709  0.0129 -0.0370 -0.2900
 3398DOPE   PO439864  31.556  28.045  12.632 -0.0182 -0.0950 -0.0917
 3398DOPE   GL139865  31.637  27.799  12.312 -0.5977  0.1992 -0.1898
 3398DOPE   GL239866  31.520  27.559  12.255 -0.1773  0.1565 -0.0714
 3398DOPE   C1A39867  31.451  27.919  11.933 -0.0751 -0.3389  0.0088
 3398DOPE   D2A39868  31.561  28.099  11.521  0.2590  0.0913  0.1180
 3398DOPE   C3A39869  31.449  27.799  11.234  0.1365  0.1191 -0.2528
 3398DOPE   C4A39870  31.202  27.463  11.235  0.0802  0.1338 -0.0682
 3398DOPE   C1B39871  31.875  27.311  12.278  0.2852 -0.1097 -0.1334
 3398DOPE   D2B39872  32.317  27.177  12.388  0.4112 -0.0393  0.0950
 3398DOPE   C3B39873  32.568  27.339  12.745  0.0329  0.3034  0.2851
 3398DOPE   C4B39874  32.734  27.299  13.160  0.3731 -0.3426  0.0821
 3399DOPE   NH339875  27.586  33.744  12.477 -0.0822  0.0325  0.1116
 3399DOPE   PO439876  27.801  33.996  12.410  0.0275 -0.0626  0.3160
 3399DOPE   GL139877  27.761  34.246  12.134 -0.1541  0.0172 -0.3863
 3399DOPE   GL239878  27.967  34.439  12.018  0.1964 -0.1306  0.0604
 3399DOPE   C1A39879  27.529  34.152  11.730 -0.1575 -0.0123 -0.1025
 3399DOPE   D2A39880  27.216  34.283  11.427  0.1168 -0.1733 -0.2195
 3399DOPE   C3A39881  26.916  34.527  11.142  0.2454  0.1553  0.1721
 3399DOPE   C4A39882  26.868  34.869  10.827 -0.0654 -0.1598  0.2936
 3399DOPE   C1B39883  28.011  34.320  11.549  0.2068 -0.0284 -0.0007
 3399DOPE   D2B39884  28.295  34.231  11.207  0.0283 -0.3311  0.1721
 3399DOPE   C3B39885  28.686  34.440  11.096  0.2218 -0.1279 -0.2203
 3399DOPE   C4B39886  29.055  34.358  10.886  0.2147 -0.0860 -0.3196
 3400DOPC   NC339887  27.762  24.379  12.882  0.2395  0.1265  0.0010
 3400DOPC   PO439888  27.489  24.532  13.092 -0.0954 -0.0822 -0.1832
 3400DOPC   GL139889  27.317  24.453  12.690 -0.0505  0.0936  0.2788
 3400DOPC   GL239890  27.073  24.318  12.759 -0.0711  0.1542  0.2795
 3400DOPC   C1A39891  27.288  24.754  12.309 -0.2028 -0.4230 -0.1519
 3400DOPC   D2A39892  27.261  24.958  11.892 -0.0737 -0.0566 -0.2683
 3400DOPC   C3A39893  26.818  25.154  11.917 -0.2118  0.3122  0.0137
 3400DOPC   C4A39894  26.389  25.231  11.986  0.0064 -0.0863 -0.0506
 3400DOPC   C1B39895  27.026  24.224  12.324  0.2028  0.0148 -0.2517
 3400DOPC   D2B39896  26.993  24.548  11.943 -0.2163  0.1001  0.0252
 3400DOPC   C3B39897  26.933  24.829  11.581  0.1276 -0.0100  0.0410
 3400DOPC   C4B39898  26.941  25.296  11.453  0.1792 -0.4879  0.0239
 3401DOPC   NC339899  32.762  27.724  13.523 -0.1128  0.0378  0.3308
 3401DOPC   PO439900  32.433  27.968  13.516 -0.0530 -0.0483 -0.1412
 3401DOPC   GL139901  32.478  27.805  13.156 -0.0737 -0.0431  0.4642
 3401DOPC   GL239902  32.228  27.617  13.087  0.1942 -0.0435  0.0927
 3401DOPC   C1A39903  32.787  27.793  12.810  0.1896 -0.3651 -0.0247
 3401DOPC   D2A39904  33.013  27.570  12.451  0.0586  0.1705 -0.0935
 3401DOPC   C3A39905  32.603  27.457  12.208  0.3904  0.5975  0.1693
 3401DOPC   C4A39906  32.596  27.397  11.715 -0.0118 -0.2574 -0.0729
 3401DOPC   C1B39907  32.197  27.620  12.632 -0.2078 -0.4849 -0.4108
 3401DOPC   D2B39908  32.090  27.711  12.191 -0.4300  0.2382  0.3869
 3401DOPC   C3B39909  32.099  27.412  11.812  0.1667  0.1470  0.0609
 3401DOPC   C4B39910  32.125  27.163  11.453  0.0765 -0.0283 -0.1566
 3402DOPE   NH339911  32.338  25.751  13.698 -0.3917  0.0268  0.1502
 3402DOPE   PO439912  32.165  25.757  13.432 -0.3242 -0.3906  0.0502
 3402DOPE   GL139913  32.264  25.370  13.356  0.1249  0.3816  0.4169
 3402DOPE   GL239914  31.989  25.274  13.319  0.1784 -0.2522 -0.1199
 3402DOPE   C1A39915  32.480  24.968  13.284  0.1675 -0.0863 -0.4721
 3402DOPE   D2A39916  32.711  24.609  13.102  0.1046 -0.0895 -0.0179
 3402DOPE   C3A39917  32.582  24.262  12.771 -0.3239 -0.0087  0.2141
 3402DOPE   C4A39918  32.726  23.956  12.431 -0.2017  0.0520  0.1163
 3402DOPE   C1B39919  31.967  25.130  12.871 -0.2012 -0.1069  0.1651
 3402DOPE   D2B39920  32.043  25.018  12.440 -0.1037  0.0177 -0.1104
 3402DOPE   C3B39921  32.454  25.030  12.205 -0.0746  0.1232 -0.1839
 3402DOPE   C4B39922  32.796  25.353  12.272 -0.1025 -0.1881 -0.1914
 3403DOPE   NH339923  31.621  29.489  12.845 -0.2364  0.3365  0.2179
 3403DOPE   PO439924  31.499  29.262  12.600  0.0700  0.1727  0.0017
 3403DOPE   GL139925  31.595  29.189  12.188 -0.0714 -0.0755 -0.1048
 3403DOPE   GL239926  31.710  29.474  12.010  0.1483  0.0259 -0.0776
 3403DOPE   C1A39927  31.679  28.926  11.829  0.0251 -0.0172  0.1619
 3403DOPE   D2A39928  31.472  28.598  11.583  0.1004  0.2248 -0.0685
 3403DOPE   C3A39929  31.596  28.751  11.155 -0.0947 -0.1763  0.2730
 3403DOPE   C4A39930  31.711  28.969  10.797 -0.2414 -0.0933  0.5634
 3403DOPE   C1B39931  31.549  29.698  11.629 -0.1604  0.0309 -0.0156
 3403DOPE   D2B39932  31.716  30.051  11.324 -0.2334  0.2279  0.0516
 3403DOPE   C3B39933  31.318  30.336  11.212 -0.0515 -0.3192  0.0745
 3403DOPE   C4B39934  31.260  30.767  11.044  0.1245  0.1495  0.0066
 3404DOPS   CNO39935  27.233  31.218  12.886 -0.0790  0.1506  0.0730
 3404DOPS   PO439936  27.213  31.102  12.499  0.3329 -0.0526  0.1908
 3404DOPS   GL139937  27.098  31.143  12.146 -0.0884 -0.1098 -0.0098
 3404DOPS   GL239938  27.258  30.968  11.956  0.0665 -0.4196 -0.0084
 3404DOPS   C1A39939  27.121  31.532  11.931  0.0275 -0.0250 -0.0295
 3404DOPS   D2A39940  27.038  31.986  11.722 -0.0168  0.2418  0.5338
 3404DOPS   C3A39941  27.262  32.349  11.516 -0.3606  0.2135  0.0940
 3404DOPS   C4A39942  27.673  32.407  11.483 -0.1634 -0.1553 -0.2209
 3404DOPS   C1B39943  27.078  31.162  11.592  0.2369  0.0100 -0.0525
 3404DOPS   D2B39944  26.823  31.503  11.437  0.2203 -0.1686 -0.0685
 3404DOPS   C3B39945  26.408  31.435  11.463  0.1540  0.0611 -0.1105
 3404DOPS   C4B39946  26.247  31.164  11.147  0.1234 -0.1327  0.1678
 3405POSM   NC339947  27.484   3.689  13.472  0.5527 -0.0063  0.0733
 3405POSM   PO439948  27.240   3.421  13.571  0.0111 -0.0234  0.2018
 3405POSM   AM139949  27.146   3.482  13.267 -0.0404 -0.1355  0.0090
 3405POSM   AM239950  27.161   3.316  13.059  0.1331 -0.1005  0.1807
 3405POSM   T1A39951  27.182   3.765  12.849 -0.2405  0.0454 -0.3585
 3405POSM   C2A39952  27.012   3.774  12.430 -0.1273  0.1418 -0.2408
 3405POSM   C3A39953  27.065   3.488  12.073  0.2183  0.0461 -0.2827
 3405POSM   C1B39954  27.163   3.260  12.727 -0.2966  0.0450  0.0004
 3405POSM   D2B39955  27.380   3.304  12.368 -0.3154 -0.0600  0.0651
 3405POSM   C3B39956  27.502   3.342  11.883 -0.1534 -0.2018 -0.3902
 3405POSM   C4B39957  27.594   3.335  11.461  0.0695 -0.0348  0.0541
 3406DOPC   NC339958  22.087  27.978  13.604 -0.0718 -0.0918  0.1529
 3406DOPC   PO439959  21.942  28.114  13.240  0.2781  0.1551  0.3795
 3406DOPC   GL139960  21.713  28.386  12.998  0.2182  0.1204 -0.0204
 3406DOPC   GL239961  21.987  28.372  12.828 -0.3277 -0.0404 -0.3601
 3406DOPC   C1A39962  21.609  28.336  12.548  0.0046 -0.0630  0.0251
 3406DOPC   D2A39963  21.547  28.509  12.147 -0.0972 -0.1222  0.3209
 3406DOPC   C3A39964  21.186  28.520  11.909  0.2762 -0.2692  0.1659
 3406DOPC   C4A39965  20.857  28.376  11.624 -0.1141  0.1314 -0.0713
 3406DOPC   C1B39966  22.302  28.334  12.451 -0.0049 -0.3561 -0.0711
 3406DOPC   D2B39967  22.732  28.452  12.295  0.4395 -0.0518 -0.3185
 3406DOPC   C3B39968  22.903  28.514  11.878 -0.0226 -0.0755 -0.0984
 3406DOPC   C4B39969  22.876  28.758  11.480 -0.1684  0.2521  0.0471
 3407DOPC   NC339970  29.918  28.469  12.269  0.1290 -0.0771  0.3638
 3407DOPC   PO439971  30.145  28.759  12.404  0.2415  0.1777 -0.3312
 3407DOPC   GL139972  30.005  28.937  12.071  0.1936 -0.1100  0.0889
 3407DOPC   GL239973  30.063  29.178  12.119  0.1970 -0.2052 -0.2775
 3407DOPC   C1A39974  29.760  28.790  11.676  0.0008  0.2133 -0.0198
 3407DOPC   D2A39975  29.579  28.731  11.284 -0.1643  0.1048 -0.2144
 3407DOPC   C3A39976  29.439  28.691  10.869  0.2339  0.0183 -0.3049
 3407DOPC   C4A39977  29.241  28.927  10.545 -0.0707 -0.0670  0.2111
 3407DOPC   C1B39978  30.064  29.398  11.719 -0.0538 -0.2877  0.2043
 3407DOPC   D2B39979  30.229  29.576  11.362 -0.1880  0.0386  0.0656
 3407DOPC   C3B39980  30.510  29.390  11.041  0.0512 -0.1713  0.1447
 3407DOPC   C4B39981  30.867  29.314  10.794 -0.0068  0.1281 -0.3417
 3408DOPS   CNO39982  25.261  25.062  13.749  0.1650 -0.1913 -0.1648
 3408DOPS   PO439983  24.897  25.021  13.730 -0.5327  0.0576  0.0245
 3408DOPS   GL139984  24.967  24.865  13.320  0.0050 -0.0996  0.0285
 3408DOPS   GL239985  25.224  24.908  13.264  0.0991 -0.0134 -0.0580
 3408DOPS   C1A39986  24.910  24.665  12.870  0.1103  0.0949 -0.1084
 3408DOPS   D2A39987  24.997  24.210  12.793 -0.0286  0.0018 -0.1657
 3408DOPS   C3A39988  25.207  24.050  12.400  0.0150 -0.1834  0.0236
 3408DOPS   C4A39989  25.273  23.824  11.963 -0.1021  0.3217  0.0126
 3408DOPS   C1B39990  25.277  25.100  12.821 -0.0462 -0.4293 -0.4230
 3408DOPS   D2B39991  25.170  25.022  12.382  0.0029  0.0436  0.0266
 3408DOPS   C3B39992  25.386  24.862  11.995  0.1125  0.2380 -0.1142
 3408DOPS   C4B39993  25.686  24.595  11.814  0.2906  0.1000 -0.0105
 3409DOPC   NC339994  31.483   0.392  13.302 -0.1674  0.1647  0.0963
 3409DOPC   PO439995  31.410   0.766  13.220  0.0021  0.1558 -0.1898
 3409DOPC   GL139996  31.595   0.937  12.996  0.4559  0.1754  0.2088
 3409DOPC   GL239997  31.839   0.802  12.847  0.0964 -0.2021 -0.0794
 3409DOPC   C1A39998  31.546   1.074  12.528 -0.1849  0.1216  0.0181
 3409DOPC   D2A39999  31.513   1.214  12.119 -0.1902  0.2475 -0.0141
 3409DOPC   C3A40000  31.528   1.038  11.684  0.2066 -0.0361 -0.0024
 3409DOPC   C4A40001  31.614   0.760  11.272  0.0921 -0.0890 -0.2157
 3409DOPC   C1B40002  31.808   0.521  12.453 -0.2553  0.2905 -0.4203
 3409DOPC   D2B40003  31.829   0.205  12.146  0.2736 -0.2768 -0.0743
 3409DOPC   C3B40004  32.100  -0.031  11.941 -0.2475 -0.0836 -0.0641
 3409DOPC   C4B40005  32.143  -0.129  11.460  0.0483  0.1355 -0.5021
 3410POSM   NC340006  30.215  27.888  12.668 -0.0687  0.2148 -0.0882
 3410POSM   PO440007  29.888  28.020  12.521  0.2327  0.0699  0.0485
 3410POSM   AM140008  29.980  28.032  12.204 -0.0678 -0.0178  0.4443
 3410POSM   AM240009  29.915  27.912  12.001  0.1512  0.1116  0.1140
 3410POSM   T1A40010  30.059  28.313  11.791  0.1119 -0.0583  0.3216
 3410POSM   C2A40011  30.122  28.618  11.398  0.0581 -0.0621  0.0593
 3410POSM   C3A40012  30.435  28.742  11.043  0.1867 -0.3785  0.1293
 3410POSM   C1B40013  29.930  27.807  11.689  0.0847 -0.0650  0.0976
 3410POSM   D2B40014  29.882  27.636  11.240  0.1853  0.2770  0.0960
 3410POSM   C3B40015  29.777  27.208  11.411  0.0241 -0.0072 -0.0925
 3410POSM   C4B40016  29.324  27.066  11.431  0.0012  0.1136 -0.0560
 3411DOPC   NC340017  31.002  24.302  13.678 -0.1391 -0.0986  0.0084
 3411DOPC   PO440018  30.778  24.580  13.628 -0.0651  0.0457  0.0263
 3411DOPC   GL140019  30.554  24.493  13.290  0.0614 -0.0127 -0.3236
 3411DOPC   GL240020  30.755  24.321  13.154 -0.3229  0.4393  0.0006
 3411DOPC   C1A40021  30.442  24.662  12.861  0.0832  0.2026  0.1121
 3411DOPC   D2A40022  30.547  24.949  12.474  0.0683  0.2315 -0.0552
 3411DOPC   C3A40023  30.784  24.888  12.080  0.0397 -0.0451  0.1213
 3411DOPC   C4A40024  31.146  24.737  11.831  0.2258 -0.4310  0.2881
 3411DOPC   C1B40025  31.046  24.157  12.778 -0.4265  0.2291 -0.1730
 3411DOPC   D2B40026  31.237  24.412  12.422  0.0601  0.0087  0.1060
 3411DOPC   C3B40027  31.529  24.356  12.073  0.0273 -0.1185 -0.0011
 3411DOPC   C4B40028  31.586  24.528  11.604 -0.0990  0.1725  0.0919
 3412DOPC   NC340029  32.249  20.551  14.324  0.0065  0.2982 -0.4282
 3412DOPC   PO440030  32.568  20.434  14.175 -0.0969  0.1110 -0.0529
 3412DOPC   GL140031  32.513  20.223  13.837 -0.1342  0.3152 -0.3413
 3412DOPC   GL240032  32.784  20.130  13.756  0.2102 -0.3588 -0.1977
 3412DOPC   C1A40033  32.518  20.494  13.458  0.0169  0.1684  0.0342
 3412DOPC   D2A40034  32.321  20.689  13.092  0.4610  0.2840  0.0103
 3412DOPC   C3A40035  32.000  20.643  12.782  0.0251  0.2756  0.2108
 3412DOPC   C4A40036  32.128  20.605  12.344  0.1133 -0.0280  0.0599
 3412DOPC   C1B40037  32.604  19.862  13.381  0.0368 -0.1833 -0.1980
 3412DOPC   D2B40038  32.524  20.033  12.946  0.0315 -0.2281 -0.0673
 3412DOPC   C3B40039  32.559  19.697  12.654 -0.0825  0.2098 -0.1541
 3412DOPC   C4B40040  32.786  19.390  12.369  0.0501 -0.3074 -0.1956
 3413DOPE   NH340041  29.789  22.767  14.160  0.0378  0.2230  0.4315
 3413DOPE   PO440042  29.702  23.033  14.003  0.0889  0.0003  0.0960
 3413DOPE   GL140043  29.867  22.840  13.552  0.1852 -0.4028  0.2043
 3413DOPE   GL240044  30.145  22.737  13.493 -0.2213 -0.0258  0.0321
 3413DOPE   C1A40045  29.661  22.988  13.141  0.1845  0.0283  0.4091
 3413DOPE   D2A40046  29.336  22.972  12.894  0.0365 -0.0955  0.1818
 3413DOPE   C3A40047  29.312  22.772  12.522 -0.1605  0.3133  0.0421
 3413DOPE   C4A40048  29.107  22.682  12.119  0.1502 -0.1523  0.0092
 3413DOPE   C1B40049  30.057  22.665  13.079  0.1323 -0.0888 -0.0505
 3413DOPE   D2B40050  29.746  22.605  12.718 -0.3783  0.1780  0.2808
 3413DOPE   C3B40051  29.971  22.473  12.390  0.2137 -0.0820  0.0536
 3413DOPE   C4B40052  30.386  22.305  12.207  0.3071 -0.0209  0.1280
 3414POSM   NC340053   0.521  25.419  14.102 -0.1581 -0.0006 -0.1425
 3414POSM   PO440054   0.150  25.282  14.010 -0.0491 -0.0558  0.3498
 3414POSM   AM140055   0.030  25.273  13.724 -0.0804 -0.2055 -0.0105
 3414POSM   AM240056  -0.042  25.106  13.526  0.1448  0.5926  0.0919
 3414POSM   T1A40057  -0.073  25.502  13.295  0.0862  0.0417  0.0004
 3414POSM   C2A40058   0.132  25.732  12.962 -0.0604  0.2881 -0.2411
 3414POSM   C3A40059  -0.060  25.955  12.632  0.1321 -0.1560 -0.1365
 3414POSM   C1B40060   0.051  25.032  13.247  0.2794 -0.5080  0.1411
 3414POSM   D2B40061   0.139  25.244  12.873 -0.1214  0.1108 -0.0091
 3414POSM   C3B40062   0.060  25.080  12.456  0.3048  0.1069 -0.4377
 3414POSM   C4B40063   0.259  24.855  12.068  0.0423 -0.0624  0.2161
 3415POSM   NC340064  25.892  30.586  12.739 -0.0778 -0.1922 -0.2231
 3415POSM   PO440065  25.618  30.365  12.935 -0.3907 -0.3605  0.1417
 3415POSM   AM140066  25.502  30.219  12.697  0.0237 -0.3042 -0.4347
 3415POSM   AM240067  25.492  29.908  12.705 -0.1494  0.0616 -0.0234
 3415POSM   T1A40068  25.450  30.390  12.220  0.0949 -0.0274  0.0207
 3415POSM   C2A40069  25.372  30.351  11.779  0.2176 -0.0205 -0.4557
 3415POSM   C3A40070  25.296  30.154  11.362  0.1180  0.0249  0.2056
 3415POSM   C1B40071  25.503  29.910  12.374  0.3691 -0.1712  0.0138
 3415POSM   D2B40072  25.486  29.886  11.911  0.0756  0.1603  0.0120
 3415POSM   C3B40073  25.689  29.900  11.559  0.0503  0.2339 -0.0998
 3415POSM   C4B40074  25.780  30.115  11.195  0.1086  0.1415 -0.1004
 3416DOPE   NH340075  24.761  26.279  13.249 -0.0865  0.1951 -0.2927
 3416DOPE   PO440076  24.587  26.209  13.000 -0.0138 -0.2441 -0.3959
 3416DOPE   GL140077  24.670  26.030  12.763 -0.0026  0.2513 -0.2962
 3416DOPE   GL240078  24.948  25.975  12.762 -0.0008 -0.1637  0.2146
 3416DOPE   C1A40079  24.734  25.905  12.333  0.0308  0.0749  0.2858
 3416DOPE   D2A40080  24.612  25.747  11.886 -0.0895 -0.0832  0.0183
 3416DOPE   C3A40081  24.476  26.175  11.851  0.2102 -0.1889 -0.1701
 3416DOPE   C4A40082  24.509  26.568  11.530  0.0362  0.0359 -0.0316
 3416DOPE   C1B40083  25.252  25.938  12.446 -0.3078  0.1717 -0.1990
 3416DOPE   D2B40084  25.233  25.844  11.980 -0.1599 -0.0934 -0.2232
 3416DOPE   C3B40085  25.267  25.711  11.566 -0.1697  0.0122 -0.2054
 3416DOPE   C4B40086  25.686  25.615  11.310 -0.3413  0.2726 -0.1486
 3417POSM   NC340087  24.992  24.547  13.741  0.0296 -0.1313  0.0055
 3417POSM   PO440088  24.646  24.543  13.496 -0.2307  0.2683  0.1732
 3417POSM   AM140089  24.583  24.531  13.152  0.3037  0.0117  0.0452
 3417POSM   AM240090  24.413  24.631  12.988 -0.1283  0.2206 -0.0067
 3417POSM   T1A40091  24.446  24.202  12.817 -0.0705  0.0005 -0.3336
 3417POSM   C2A40092  24.673  24.118  12.422  0.1272 -0.1822  0.4153
 3417POSM   C3A40093  24.759  24.154  12.010  0.1196 -0.0180  0.1212
 3417POSM   C1B40094  24.418  24.641  12.628  0.2652 -0.1016  0.1606
 3417POSM   D2B40095  24.437  24.589  12.169  0.1491  0.0284  0.1776
 3417POSM   C3B40096  24.273  24.291  11.874 -0.2961 -0.1527  0.1062
 3417POSM   C4B40097  23.835  24.145  11.764 -0.0756  0.0388 -0.1603
 3418DOPE   NH340098  24.521  32.411  13.191 -0.0550 -0.3672 -0.0285
 3418DOPE   PO440099  24.248  32.428  13.090  0.2853  0.0342 -0.2034
 3418DOPE   GL140100  24.139  32.592  12.723  0.0793 -0.2261 -0.0748
 3418DOPE   GL240101  24.149  32.780  12.574 -0.1857 -0.0662  0.0663
 3418DOPE   C1A40102  24.276  32.426  12.288 -0.2054 -0.1764 -0.2669
 3418DOPE   D2A40103  24.193  32.389  11.826 -0.2971  0.0028 -0.0341
 3418DOPE   C3A40104  24.465  32.671  11.592  0.0125 -0.0498 -0.0423
 3418DOPE   C4A40105  24.755  32.893  11.342  0.3367  0.1258 -0.1141
 3418DOPE   C1B40106  24.493  33.040  12.474  0.1689 -0.1777  0.1272
 3418DOPE   D2B40107  24.798  33.399  12.360 -0.0704  0.1445 -0.1259
 3418DOPE   C3B40108  24.710  33.627  11.930 -0.1290 -0.1624  0.0803
 3418DOPE   C4B40109  24.570  33.551  11.467  0.2159  0.1105  0.0703
 3419POSM   NC340110  25.807  28.892  12.700 -0.2234 -0.1857  0.2525
 3419POSM   PO440111  26.033  29.140  12.908  0.1072  0.0281  0.1038
 3419POSM   AM140112  26.127  29.253  12.619 -0.1138 -0.2226 -0.0772
 3419POSM   AM240113  26.038  29.174  12.324  0.0883  0.1922 -0.0378
 3419POSM   T1A40114  26.394  29.551  12.298 -0.1168 -0.0416  0.0414
 3419POSM   C2A40115  26.474  29.832  11.919 -0.2011 -0.2242 -0.0902
 3419POSM   C3A40116  26.581  29.682  11.513  0.1333 -0.0192  0.0095
 3419POSM   C1B40117  25.979  29.274  12.073 -0.3447 -0.1214  0.0944
 3419POSM   D2B40118  25.626  29.428  11.805  0.1111 -0.2286  0.0492
 3419POSM   C3B40119  25.418  29.195  11.476  0.2885 -0.1917  0.2405
 3419POSM   C4B40120  25.319  29.211  11.058  0.0791  0.1565  0.1556
 3420DOPS   CNO40121  34.197  25.996  13.890 -0.2021 -0.1594 -0.3525
 3420DOPS   PO440122  34.282  25.723  14.153 -0.1398 -0.2111  0.0313
 3420DOPS   GL140123  34.513  25.564  13.781 -0.1620  0.3614 -0.0040
 3420DOPS   GL240124  34.275  25.516  13.624  0.0069 -0.0065  0.0285
 3420DOPS   C1A40125  34.652  25.942  13.564 -0.2018 -0.0128  0.1371
 3420DOPS   D2A40126  34.510  26.396  13.528 -0.1663  0.2149  0.2407
 3420DOPS   C3A40127  34.679  26.568  13.143  0.1586 -0.2971 -0.1788
 3420DOPS   C4A40128  34.942  26.535  12.782 -0.1510 -0.2271  0.1276
 3420DOPS   C1B40129  34.064  25.843  13.373 -0.1436  0.0804 -0.2816
 3420DOPS   D2B40130  33.610  26.014  13.298  0.0931  0.0145  0.1087
 3420DOPS   C3B40131  33.475  26.064  12.861  0.0735  0.1633  0.0597
 3420DOPS   C4B40132  33.611  25.980  12.448  0.1285  0.0655 -0.0612
 3421DOPC   NC340133  25.352   0.425  13.585 -0.2920  0.0018  0.2879
 3421DOPC   PO440134  25.512   0.579  13.265  0.2494 -0.2314  0.2837
 3421DOPC   GL140135  25.314   0.624  12.883 -0.2385  0.0590  0.1317
 3421DOPC   GL240136  25.547   0.621  12.677 -0.1901 -0.2029  0.1997
 3421DOPC   C1A40137  25.281   1.063  12.729  0.0521 -0.1895  0.0642
 3421DOPC   D2A40138  25.173   1.335  12.369  0.0622  0.3048 -0.1255
 3421DOPC   C3A40139  25.332   1.218  11.924 -0.1992 -0.0418  0.1085
 3421DOPC   C4A40140  25.217   1.052  11.526 -0.4389  0.1848 -0.0437
 3421DOPC   C1B40141  25.712   0.537  12.208  0.1557  0.1886 -0.1878
 3421DOPC   D2B40142  26.015   0.558  11.835  0.1720 -0.0683  0.0216
 3421DOPC   C3B40143  25.783   0.423  11.449  0.0015 -0.0277 -0.1295
 3421DOPC   C4B40144  25.352   0.229  11.377  0.1289  0.2121  0.1035
 3422DOPS   CNO40145  24.015  31.545  13.439  0.1682 -0.0350  0.0021
 3422DOPS   PO440146  24.304  31.508  13.192  0.1820 -0.0100 -0.1999
 3422DOPS   GL140147  24.444  31.265  12.898 -0.1234 -0.0507 -0.1991
 3422DOPS   GL240148  24.382  30.961  12.889 -0.1678 -0.0200 -0.2639
 3422DOPS   C1A40149  24.659  31.283  12.457 -0.4597  0.0493 -0.3764
 3422DOPS   D2A40150  24.656  31.535  12.036  0.3281 -0.0471 -0.2868
 3422DOPS   C3A40151  25.017  31.607  11.730  0.2109 -0.0572 -0.0528
 3422DOPS   C4A40152  25.193  31.970  11.429 -0.1237 -0.1081  0.2244
 3422DOPS   C1B40153  24.094  31.027  12.501  0.0960  0.0024 -0.4392
 3422DOPS   D2B40154  23.814  30.737  12.269 -0.2422 -0.2664 -0.2581
 3422DOPS   C3B40155  23.603  30.335  12.074  0.0459  0.0983  0.4017
 3422DOPS   C4B40156  23.371  30.312  11.687 -0.0584 -0.1074 -0.1570
 3423DOPE   NH340157  32.362  33.575  13.202  0.1174 -0.1342  0.2206
 3423DOPE   PO440158  32.043  33.539  13.092 -0.2979 -0.0699 -0.0526
 3423DOPE   GL140159  32.044  33.512  12.687  0.1284 -0.3774 -0.3118
 3423DOPE   GL240160  31.859  33.347  12.656  0.0415  0.1015 -0.1509
 3423DOPE   C1A40161  31.854  33.835  12.411 -0.0353 -0.2364 -0.1100
 3423DOPE   D2A40162  31.854  33.947  12.011  0.2219  0.0518 -0.1779
 3423DOPE   C3A40163  31.759  34.289  11.721  0.1705  0.2081 -0.1054
 3423DOPE   C4A40164  31.689  34.731  11.632  0.1479  0.0483 -0.1305
 3423DOPE   C1B40165  31.931  33.084  12.262  0.1565  0.1778  0.0049
 3423DOPE   D2B40166  31.901  32.869  11.870 -0.2142 -0.0081 -0.0916
 3423DOPE   C3B40167  31.981  33.126  11.557  0.0913 -0.0265  0.1539
 3423DOPE   C4B40168  31.693  33.323  11.320  0.0551 -0.2568 -0.0393
 3424DOPC   NC340169  24.983  30.430  13.006 -0.0708 -0.0913 -0.2709
 3424DOPC   PO440170  24.905  30.062  12.862 -0.2535  0.0475  0.0794
 3424DOPC   GL140171  25.004  29.854  12.525 -0.0948  0.1553 -0.2158
 3424DOPC   GL240172  24.702  29.761  12.535 -0.1651  0.0921 -0.2369
 3424DOPC   C1A40173  25.069  30.036  12.143  0.2024  0.1288 -0.4070
 3424DOPC   D2A40174  24.825  30.013  11.732 -0.0784  0.3480  0.0665
 3424DOPC   C3A40175  24.796  30.430  11.487  0.0637  0.2995 -0.1391
 3424DOPC   C4A40176  24.681  30.620  11.113  0.1387  0.1407  0.2672
 3424DOPC   C1B40177  24.690  29.693  12.090 -0.0309 -0.0248 -0.0999
 3424DOPC   D2B40178  24.555  29.622  11.626  0.2494  0.0279 -0.1724
 3424DOPC   C3B40179  24.172  29.746  11.313 -0.1657 -0.1614 -0.1437
 3424DOPC   C4B40180  23.805  29.894  11.023 -0.2671 -0.2252 -0.0385
 3425DOPS   CNO40181  23.659  27.239  13.390  0.2402  0.0729 -0.5199
 3425DOPS   PO440182  23.972  27.039  13.323 -0.0538  0.0634  0.0687
 3425DOPS   GL140183  24.070  26.955  12.816  0.1195  0.1564 -0.3054
 3425DOPS   GL240184  23.826  26.860  12.595  0.2830 -0.1041  0.1563
 3425DOPS   C1A40185  24.324  26.825  12.435 -0.1154  0.0822  0.2932
 3425DOPS   D2A40186  24.480  26.907  12.051  0.0981  0.1814  0.1929
 3425DOPS   C3A40187  24.763  27.008  11.708 -0.2156  0.1078  0.1991
 3425DOPS   C4A40188  24.843  27.291  11.368  0.1268  0.1435  0.2476
 3425DOPS   C1B40189  23.636  26.759  12.168  0.2146  0.0329 -0.2400
 3425DOPS   D2B40190  23.454  26.336  12.070  0.0752 -0.0144  0.3697
 3425DOPS   C3B40191  23.390  26.123  11.628 -0.1717 -0.1391 -0.1182
 3425DOPS   C4B40192  23.643  26.421  11.256 -0.1409  0.3421  0.0764
 3426DOPC   NC340193  27.311  26.126  13.279 -0.3230  0.1762 -0.2000
 3426DOPC   PO440194  27.057  26.461  13.212  0.0773 -0.3569 -0.2920
 3426DOPC   GL140195  26.893  26.370  12.871  0.0039  0.2105 -0.0300
 3426DOPC   GL240196  26.995  26.203  12.774  0.1110 -0.2696 -0.0449
 3426DOPC   C1A40197  26.933  26.628  12.461  0.1258  0.0902  0.4218
 3426DOPC   D2A40198  26.992  26.934  12.143  0.1814 -0.4590  0.2095
 3426DOPC   C3A40199  26.778  26.848  11.823 -0.0794 -0.2959 -0.0111
 3426DOPC   C4A40200  26.469  26.467  11.715  0.0691  0.1659  0.2433
 3426DOPC   C1B40201  26.728  26.121  12.436 -0.1709  0.2436 -0.1064
 3426DOPC   D2B40202  26.495  26.161  12.108  0.1647 -0.1596  0.3153
 3426DOPC   C3B40203  26.247  25.824  11.890  0.0288 -0.2243  0.0505
 3426DOPC   C4B40204  26.034  25.406  11.673 -0.0255  0.1820  0.0080
 3427DOPE   NH340205  33.177  29.490  13.115 -0.2437  0.1613  0.0682
 3427DOPE   PO440206  32.922  29.610  13.108  0.1189 -0.0666 -0.2391
 3427DOPE   GL140207  32.730  29.699  12.801  0.0348  0.1424  0.4491
 3427DOPE   GL240208  32.748  29.479  12.624 -0.2737 -0.0820 -0.3735
 3427DOPE   C1A40209  32.625  29.983  12.434 -0.1250 -0.0677  0.1713
 3427DOPE   D2A40210  32.850  30.263  12.160 -0.0074  0.0878  0.1515
 3427DOPE   C3A40211  32.628  30.426  11.812 -0.1116 -0.1415  0.0213
 3427DOPE   C4A40212  32.201  30.299  11.688  0.3215 -0.1198 -0.0717
 3427DOPE   C1B40213  32.925  29.709  12.237 -0.0426  0.0753 -0.2534
 3427DOPE   D2B40214  33.265  29.485  11.978  0.3773 -0.1703 -0.1383
 3427DOPE   C3B40215  33.497  29.663  11.593  0.0516  0.1785 -0.0107
 3427DOPE   C4B40216  33.557  30.058  11.357  0.1599  0.1687  0.1155
 3428POSM   NC340217  30.326  32.715  12.634 -0.0142 -0.2064  0.2730
 3428POSM   PO440218  30.407  33.017  12.855  0.1547 -0.3686  0.1540
 3428POSM   AM140219  30.352  33.146  12.549  0.1135  0.0380 -0.0440
 3428POSM   AM240220  30.487  33.252  12.317 -0.2239 -0.0907 -0.4646
 3428POSM   T1A40221  30.162  32.924  12.129  0.1521 -0.3407 -0.0505
 3428POSM   C2A40222  29.881  32.769  11.823 -0.0652  0.2340 -0.0469
 3428POSM   C3A40223  29.481  32.929  11.620 -0.1433  0.1928 -0.0806
 3428POSM   C1B40224  30.416  33.361  12.010 -0.2447 -0.2245 -0.1215
 3428POSM   D2B40225  30.411  33.556  11.588 -0.1943 -0.1759  0.3347
 3428POSM   C3B40226  30.155  33.501  11.247 -0.1629  0.1389 -0.0847
 3428POSM   C4B40227  30.047  33.730  10.843 -0.3165 -0.2460 -0.0200
 3429DOPE   NH340228  24.206  33.739  13.049  0.0553 -0.0916  0.1400
 3429DOPE   PO440229  24.412  33.464  13.078 -0.0936 -0.1550 -0.0187
 3429DOPE   GL140230  24.491  33.548  12.708 -0.1321  0.1970  0.0674
 3429DOPE   GL240231  24.554  33.806  12.563 -0.0008  0.0258 -0.2568
 3429DOPE   C1A40232  24.324  33.447  12.240  0.3180  0.2669  0.0447
 3429DOPE   D2A40233  24.060  33.440  11.831 -0.1423  0.2983  0.1295
 3429DOPE   C3A40234  23.988  33.035  11.627 -0.2325 -0.0257 -0.2925
 3429DOPE   C4A40235  24.085  32.753  11.234  0.0180 -0.3387 -0.3227
 3429DOPE   C1B40236  24.669  34.132  12.225  0.1458 -0.1592  0.1935
 3429DOPE   D2B40237  24.710  34.509  11.931  0.0087 -0.0218  0.2201
 3429DOPE   C3B40238  24.680  34.545  11.447 -0.2406 -0.0113 -0.0765
 3429DOPE   C4B40239  24.415  34.756  11.084 -0.4051 -0.2501  0.1123
 3430POSM   NC340240  29.214  33.505  12.415 -0.0183 -0.0862  0.2888
 3430POSM   PO440241  29.578  33.459  12.541  0.1908  0.1050 -0.3362
 3430POSM   AM140242  29.672  33.504  12.217  0.1181 -0.1388  0.2280
 3430POSM   AM240243  29.834  33.405  11.990 -0.1513 -0.2855 -0.5527
 3430POSM   T1A40244  29.484  33.645  11.771 -0.1201  0.1500 -0.1214
 3430POSM   C2A40245  29.570  33.442  11.374 -0.0121 -0.4996  0.0343
 3430POSM   C3A40246  29.699  33.372  10.930  0.2907  0.0362  0.1314
 3430POSM   C1B40247  29.990  33.271  11.735  0.1535 -0.2018 -0.0480
 3430POSM   D2B40248  29.855  33.055  11.325 -0.1387 -0.1831  0.1762
 3430POSM   C3B40249  29.429  32.966  11.136  0.0596 -0.0016  0.0422
 3430POSM   C4B40250  29.098  32.749  11.317  0.1231  0.0978  0.3021
 3431DOPC   NC340251  31.323  25.824  13.381  0.1294  0.1636  0.0579
 3431DOPC   PO440252  31.114  25.575  13.659 -0.1081  0.1156 -0.4440
 3431DOPC   GL140253  31.086  25.373  13.268 -0.2007  0.0585 -0.1787
 3431DOPC   GL240254  31.361  25.380  13.207  0.1301  0.4524  0.3416
 3431DOPC   C1A40255  30.928  25.144  12.891 -0.3425 -0.0893  0.2217
 3431DOPC   D2A40256  30.986  25.203  12.435 -0.0599 -0.0250 -0.0972
 3431DOPC   C3A40257  31.248  25.227  12.127 -0.0002 -0.2747 -0.0868
 3431DOPC   C4A40258  31.558  25.399  11.864  0.0135 -0.3088 -0.1361
 3431DOPC   C1B40259  31.694  25.544  13.002 -0.0120  0.3457 -0.0122
 3431DOPC   D2B40260  32.089  25.670  12.895  0.1521  0.0858 -0.1121
 3431DOPC   C3B40261  32.443  25.367  12.982 -0.0358 -0.0701 -0.3069
 3431DOPC   C4B40262  32.449  24.986  12.746  0.2490 -0.0043 -0.1143
 3432DOPE   NH340263  26.607  33.496  12.593 -0.1287 -0.1674 -0.2141
 3432DOPE   PO440264  26.797  33.674  12.788  0.1172 -0.1936 -0.2512
 3432DOPE   GL140265  26.590  34.015  12.681  0.2455  0.4350 -0.0824
 3432DOPE   GL240266  26.337  33.884  12.701 -0.2273 -0.2493  0.1573
 3432DOPE   C1A40267  26.824  34.191  12.314 -0.1624  0.0862 -0.0516
 3432DOPE   D2A40268  26.924  34.408  11.958 -0.1365  0.1222 -0.3378
 3432DOPE   C3A40269  26.542  34.583  11.665  0.0713  0.0054 -0.1136
 3432DOPE   C4A40270  26.135  34.430  11.657  0.0576 -0.0634 -0.0643
 3432DOPE   C1B40271  25.963  33.999  12.505  0.0567  0.0591  0.0073
 3432DOPE   D2B40272  25.740  34.338  12.487  0.0484  0.0373 -0.0208
 3432DOPE   C3B40273  25.892  34.482  12.076 -0.0276 -0.1169  0.0800
 3432DOPE   C4B40274  25.804  34.863  11.817  0.1626  0.1734 -0.1340
 3433POSM   NC340275  31.715  23.302  14.614 -0.2797 -0.1586  0.1632
 3433POSM   PO440276  32.018  23.144  14.415 -0.1563 -0.0929 -0.0698
 3433POSM   AM140277  32.010  23.247  14.102 -0.0852 -0.1465  0.1953
 3433POSM   AM240278  31.952  23.168  13.814  0.0372  0.1700 -0.0986
 3433POSM   T1A40279  32.110  23.632  13.778  0.1806 -0.1745 -0.2606
 3433POSM   C2A40280  32.412  23.884  13.642 -0.0122 -0.0735 -0.0929
 3433POSM   C3A40281  32.663  24.050  13.270 -0.0998 -0.0541  0.0180
 3433POSM   C1B40282  32.167  23.030  13.555  0.1277  0.0599  0.0881
 3433POSM   D2B40283  32.347  22.956  13.120 -0.0806 -0.2193 -0.2406
 3433POSM   C3B40284  32.601  23.165  12.784  0.2758  0.3197  0.2892
 3433POSM   C4B40285  32.722  23.507  12.483 -0.0916 -0.0184  0.2064
 3434DOPE   NH340286  30.933   1.337  13.227  0.0898  0.2096  0.1082
 3434DOPE   PO440287  30.850   1.022  13.175  0.0671  0.3855  0.1036
 3434DOPE   GL140288  31.140   0.914  12.905  0.2008 -0.2334  0.0427
 3434DOPE   GL240289  31.030   1.090  12.631  0.0511 -0.1038 -0.4685
 3434DOPE   C1A40290  31.200   0.684  12.479  0.0268  0.1030  0.1252
 3434DOPE   D2A40291  31.439   0.560  12.110 -0.1029 -0.0461 -0.1910
 3434DOPE   C3A40292  31.750   0.619  11.779 -0.0585 -0.1009 -0.2131
 3434DOPE   C4A40293  31.834   0.347  11.412 -0.0677 -0.1917 -0.0193
 3434DOPE   C1B40294  31.026   1.039  12.174 -0.0350  0.1116 -0.1146
 3434DOPE   D2B40295  30.952   1.008  11.704  0.3337 -0.1475  0.0037
 3434DOPE   C3B40296  31.225   0.585  11.660 -0.0359  0.1989  0.0894
 3434DOPE   C4B40297  31.307   0.230  11.434  0.1328 -0.0536 -0.1049
 3435DOPE   NH340298  22.593  27.386  13.326 -0.1552  0.0164 -0.3094
 3435DOPE   PO440299  22.663  27.640  13.172 -0.1864 -0.2868  0.1202
 3435DOPE   GL140300  22.861  27.357  12.922 -0.0566  0.3857  0.2254
 3435DOPE   GL240301  23.129  27.383  12.992 -0.1075  0.3633 -0.2419
 3435DOPE   C1A40302  22.790  27.450  12.498 -0.0036 -0.3081  0.1410
 3435DOPE   D2A40303  23.033  27.514  12.141  0.3230  0.0580 -0.1882
 3435DOPE   C3A40304  23.084  27.243  11.749  0.0097 -0.2498  0.1437
 3435DOPE   C4A40305  22.910  27.066  11.451 -0.2256 -0.0115 -0.0181
 3435DOPE   C1B40306  23.377  27.363  12.608 -0.1986 -0.0306  0.4072
 3435DOPE   D2B40307  23.508  27.332  12.195 -0.2503  0.3216  0.0990
 3435DOPE   C3B40308  23.567  27.753  11.932 -0.0523 -0.0160 -0.1988
 3435DOPE   C4B40309  23.842  28.055  11.710  0.0855  0.1736 -0.0537
 3436DOPE   NH340310  29.792  31.894  12.936  0.2112 -0.1259  0.2462
 3436DOPE   PO440311  29.549  31.685  12.865 -0.3441 -0.0985 -0.0445
 3436DOPE   GL140312  29.601  31.478  12.580  0.1434  0.1888  0.0686
 3436DOPE   GL240313  29.675  31.207  12.593 -0.2548 -0.0234 -0.1090
 3436DOPE   C1A40314  29.760  31.541  12.158 -0.0623  0.0260 -0.0768
 3436DOPE   D2A40315  30.060  31.730  11.914 -0.2093  0.0644  0.0558
 3436DOPE   C3A40316  30.156  31.784  11.473 -0.0977  0.0592 -0.1744
 3436DOPE   C4A40317  30.026  32.026  11.077  0.0237 -0.0546  0.1449
 3436DOPE   C1B40318  29.820  31.002  12.163  0.1776  0.1815  0.0911
 3436DOPE   D2B40319  30.136  30.835  11.950 -0.2120  0.0086 -0.0930
 3436DOPE   C3B40320  30.139  30.562  11.580 -0.0947 -0.3587  0.0858
 3436DOPE   C4B40321  30.295  30.497  11.103 -0.0797  0.1581 -0.1812
 3437DOPE   NH340322  24.015  25.288  13.421 -0.1184  0.1095 -0.3539
 3437DOPE   PO440323  24.151  25.556  13.350  0.2595  0.0121  0.0850
 3437DOPE   GL140324  24.319  25.376  13.049  0.2064 -0.0192  0.0687
 3437DOPE   GL240325  24.137  25.190  12.932 -0.0203  0.2041 -0.0675
 3437DOPE   C1A40326  24.654  25.127  12.844 -0.4274  0.1921 -0.1243
 3437DOPE   D2A40327  24.697  24.945  12.391 -0.0743  0.0416  0.1978
 3437DOPE   C3A40328  24.902  24.767  12.042  0.0531 -0.0647 -0.0199
 3437DOPE   C4A40329  24.723  24.564  11.723  0.0915  0.1061 -0.0907
 3437DOPE   C1B40330  24.057  25.048  12.498 -0.2692 -0.3075  0.1145
 3437DOPE   D2B40331  24.245  25.014  11.999 -0.0162 -0.0850  0.0747
 3437DOPE   C3B40332  24.598  25.050  11.697  0.0905  0.1076 -0.1157
 3437DOPE   C4B40333  24.646  25.341  11.349  0.0038 -0.1755 -0.2686
 3438POSM   NC340334  33.001  25.598  14.149 -0.0452  0.2143 -0.0582
 3438POSM   PO440335  32.875  25.847  13.853  0.0168 -0.0514  0.1184
 3438POSM   AM140336  33.047  25.834  13.569 -0.1268  0.1709  0.2622
 3438POSM   AM240337  33.072  25.624  13.358  0.1044  0.1179  0.1723
 3438POSM   T1A40338  33.041  26.075  13.104  0.0337 -0.3985 -0.1480
 3438POSM   C2A40339  32.918  26.437  12.858  0.1082 -0.1660  0.0756
 3438POSM   C3A40340  32.631  26.809  12.834 -0.1440  0.0240  0.1319
 3438POSM   C1B40341  33.280  25.625  13.052 -0.1561  0.1066  0.1136
 3438POSM   D2B40342  33.439  25.406  12.706 -0.2042  0.0383  0.2785
 3438POSM   C3B40343  33.582  25.476  12.280  0.0391  0.2347 -0.3083
 3438POSM   C4B40344  33.628  25.376  11.829 -0.0968 -0.2497  0.2704
 3439DOPE   NH340345  31.264  33.286  12.847 -0.0760 -0.1673  0.3246
 3439DOPE   PO440346  31.081  33.542  12.729 -0.3436  0.3602  0.1966
 3439DOPE   GL140347  30.908  33.414  12.313 -0.0062 -0.0472 -0.1277
 3439DOPE   GL240348  30.826  33.674  12.202 -0.1419 -0.0620 -0.3407
 3439DOPE   C1A40349  31.129  33.156  11.960  0.1868  0.1400 -0.2081
 3439DOPE   D2A40350  31.120  33.307  11.559 -0.2057  0.1250  0.1403
 3439DOPE   C3A40351  30.763  33.350  11.272 -0.0083  0.0687  0.2050
 3439DOPE   C4A40352  30.631  33.509  10.861 -0.2611 -0.1963  0.1624
 3439DOPE   C1B40353  30.841  33.978  11.812  0.1189 -0.0313  0.1375
 3439DOPE   D2B40354  30.892  33.807  11.370 -0.3300  0.0261 -0.2363
 3439DOPE   C3B40355  31.219  34.076  11.200  0.2798  0.1197  0.0186
 3439DOPE   C4B40356  31.581  34.361  11.267  0.0710  0.0063  0.1528
 3440DOPE   NH340357  32.755  34.018  13.616 -0.0476 -0.0506  0.4193
 3440DOPE   PO440358  32.790  33.894  13.318 -0.0286  0.1460  0.3045
 3440DOPE   GL140359  32.851  33.879  12.899  0.0591  0.4369 -0.0041
 3440DOPE   GL240360  33.093  33.675  12.782  0.2284  0.0289 -0.2755
 3440DOPE   C1A40361  32.577  33.806  12.572  0.2596  0.0501  0.0828
 3440DOPE   D2A40362  32.274  33.943  12.223 -0.0952 -0.1246  0.0335
 3440DOPE   C3A40363  32.514  33.700  11.889 -0.2626 -0.0697  0.1855
 3440DOPE   C4A40364  32.912  33.539  11.777 -0.1600 -0.0124  0.2248
 3440DOPE   C1B40365  33.302  33.910  12.413 -0.0991 -0.3294  0.0146
 3440DOPE   D2B40366  33.445  34.079  12.027 -0.1275 -0.1328 -0.1129
 3440DOPE   C3B40367  33.415  33.948  11.561 -0.1085  0.3094 -0.0031
 3440DOPE   C4B40368  33.589  33.857  11.140 -0.0253 -0.0103  0.1005
 3441POSM   NC340369  33.356  24.795  14.002  0.1042 -0.2428 -0.0566
 3441POSM   PO440370  33.134  25.092  13.974 -0.0590  0.0036 -0.0422
 3441POSM   AM140371  33.235  25.107  13.659 -0.1539  0.2125 -0.1726
 3441POSM   AM240372  33.377  25.090  13.416  0.1661 -0.2520  0.1466
 3441POSM   T1A40373  32.961  25.116  13.194  0.2070 -0.0975 -0.1014
 3441POSM   C2A40374  32.938  25.377  12.790 -0.1832  0.0211 -0.2292
 3441POSM   C3A40375  33.131  25.675  12.490  0.0630 -0.0563  0.0472
 3441POSM   C1B40376  33.443  25.044  13.049 -0.2826 -0.0193  0.1286
 3441POSM   D2B40377  33.590  24.926  12.606  0.3339 -0.1333  0.2206
 3441POSM   C3B40378  33.889  24.568  12.520 -0.0174  0.2422  0.1697
 3441POSM   C4B40379  34.310  24.324  12.424 -0.0407  0.0285 -0.0966
 3442DOPC   NC340380  29.002  30.504  12.401  0.3005 -0.1178 -0.0583
 3442DOPC   PO440381  28.609  30.363  12.355 -0.1159 -0.3655 -0.0247
 3442DOPC   GL140382  28.823  30.168  12.090 -0.0577  0.0629 -0.0383
 3442DOPC   GL240383  28.964  30.352  11.926  0.2261 -0.2918 -0.0328
 3442DOPC   C1A40384  29.031  29.926  11.747 -0.5848 -0.0185 -0.1942
 3442DOPC   D2A40385  29.291  30.067  11.372  0.1394  0.0647 -0.0833
 3442DOPC   C3A40386  29.178  30.246  10.980 -0.2922 -0.0787  0.0757
 3442DOPC   C4A40387  28.915  30.346  10.635 -0.1160  0.4367  0.1921
 3442DOPC   C1B40388  28.778  30.419  11.544  0.2086 -0.1516  0.4056
 3442DOPC   D2B40389  28.841  30.576  11.106  0.0500 -0.0616 -0.1491
 3442DOPC   C3B40390  28.900  30.928  10.882 -0.1797 -0.1043  0.2323
 3442DOPC   C4B40391  28.824  31.287  10.675 -0.1328 -0.3274  0.1644
 3443DOPE   NH340392  24.561  29.416  13.682 -0.0542 -0.0218  0.0694
 3443DOPE   PO440393  24.503  29.310  13.369  0.0382  0.0139 -0.1621
 3443DOPE   GL140394  24.387  29.033  13.035  0.0006 -0.2176 -0.2525
 3443DOPE   GL240395  24.597  29.147  12.830  0.2332  0.0351 -0.0895
 3443DOPE   C1A40396  24.375  28.718  12.712  0.2935  0.1209 -0.3309
 3443DOPE   D2A40397  24.031  28.500  12.439  0.2350  0.0252 -0.1384
 3443DOPE   C3A40398  24.195  28.677  12.062  0.0746  0.0938 -0.1897
 3443DOPE   C4A40399  24.195  28.430  11.711  0.3789  0.4031 -0.0301
 3443DOPE   C1B40400  24.363  29.279  12.463  0.1236  0.1122  0.1729
 3443DOPE   D2B40401  24.215  29.356  12.026 -0.1614 -0.0815 -0.2009
 3443DOPE   C3B40402  24.277  29.064  11.717  0.2183  0.0571  0.1101
 3443DOPE   C4B40403  24.307  29.177  11.309 -0.2884 -0.1508  0.0039
 3444DOPC   NC340404  30.969  31.216  13.088  0.0829 -0.3562  0.0256
 3444DOPC   PO440405  30.992  30.831  13.146 -0.1291 -0.0292 -0.4705
 3444DOPC   GL140406  31.109  30.646  12.797 -0.3171  0.3154  0.3445
 3444DOPC   GL240407  31.373  30.843  12.708  0.1243  0.0367 -0.2014
 3444DOPC   C1A40408  30.872  30.531  12.406 -0.0842 -0.3113 -0.0371
 3444DOPC   D2A40409  30.865  30.640  11.961 -0.1318 -0.0417 -0.2491
 3444DOPC   C3A40410  30.841  30.443  11.534 -0.2131  0.0956 -0.0022
 3444DOPC   C4A40411  30.731  30.177  11.206 -0.1785 -0.0221 -0.0235
 3444DOPC   C1B40412  31.045  31.011  12.470 -0.0945  0.2935  0.2592
 3444DOPC   D2B40413  31.047  31.160  12.071 -0.0345  0.3543 -0.1393
 3444DOPC   C3B40414  31.389  31.429  11.907  0.3115 -0.0486  0.1588
 3444DOPC   C4B40415  31.642  31.755  12.125 -0.2123 -0.3123  0.0908
 3445POSM   NC340416  25.238  25.695  14.119  0.1698 -0.0969  0.0970
 3445POSM   PO440417  25.062  25.523  13.824 -0.2527  0.1184 -0.2237
 3445POSM   AM140418  25.116  25.486  13.494  0.1975  0.2030  0.4415
 3445POSM   AM240419  24.948  25.336  13.290  0.3113 -0.0379  0.2913
 3445POSM   T1A40420  25.542  25.327  13.190  0.0377 -0.0503  0.2134
 3445POSM   C2A40421  25.781  25.279  12.759  0.0039 -0.1290 -0.2010
 3445POSM   C3A40422  25.717  24.939  12.469  0.1896 -0.0278  0.1294
 3445POSM   C1B40423  24.979  25.481  12.967 -0.1136 -0.1036 -0.1144
 3445POSM   D2B40424  24.948  25.455  12.543 -0.0408 -0.1011 -0.0792
 3445POSM   C3B40425  25.028  25.372  12.078 -0.1841  0.0327 -0.2032
 3445POSM   C4B40426  25.040  25.292  11.625 -0.1362 -0.0164 -0.1821
 3446DOPE   NH340427  33.657  23.771  14.023 -0.1626  0.0404 -0.3614
 3446DOPE   PO440428  33.813  24.048  14.110  0.1084  0.2021 -0.1988
 3446DOPE   GL140429  33.749  24.300  13.782  0.2377  0.0050  0.1770
 3446DOPE   GL240430  33.675  24.105  13.557 -0.1448 -0.1027  0.1275
 3446DOPE   C1A40431  33.448  24.535  13.546 -0.0101  0.0483  0.0737
 3446DOPE   D2A40432  33.132  24.608  13.221 -0.1271  0.0214 -0.2512
 3446DOPE   C3A40433  33.157  24.707  12.798 -0.1333 -0.0638 -0.0248
 3446DOPE   C4A40434  32.818  24.664  12.520 -0.0472 -0.0576  0.0531
 3446DOPE   C1B40435  33.963  24.250  13.211 -0.0914  0.2555  0.1283
 3446DOPE   D2B40436  34.128  24.495  12.931  0.1487  0.0720 -0.2243
 3446DOPE   C3B40437  34.001  24.949  12.885 -0.2948  0.1307 -0.3676
 3446DOPE   C4B40438  33.982  25.278  12.636  0.3033  0.0810 -0.0023
 3447DOPE   NH340439  33.293  26.472  14.050  0.0997  0.1358 -0.2321
 3447DOPE   PO440440  33.276  26.733  13.793  0.0125 -0.0107 -0.1211
 3447DOPE   GL140441  33.458  26.816  13.453  0.5899  0.1553  0.2434
 3447DOPE   GL240442  33.319  26.988  13.280  0.3018  0.0950  0.2295
 3447DOPE   C1A40443  33.906  26.778  13.267  0.1731 -0.0530  0.1164
 3447DOPE   D2A40444  34.210  26.649  12.924 -0.2272  0.3011 -0.1312
 3447DOPE   C3A40445  34.376  26.317  12.696 -0.0675 -0.2950 -0.1535
 3447DOPE   C4A40446  34.444  26.144  12.287 -0.2964  0.4622  0.2393
 3447DOPE   C1B40447  33.352  26.594  13.033 -0.2100 -0.1877 -0.1008
 3447DOPE   D2B40448  33.382  26.443  12.595  0.2747  0.1710  0.2827
 3447DOPE   C3B40449  33.033  26.687  12.389 -0.3053 -0.0926 -0.0396
 3447DOPE   C4B40450  32.652  26.762  12.214  0.0957  0.2257 -0.0584
 3448POSM   NC340451  25.117  26.603  14.043 -0.0047  0.0847 -0.4365
 3448POSM   PO440452  25.170  26.443  13.641 -0.5282 -0.0283 -0.0659
 3448POSM   AM140453  25.240  26.254  13.369 -0.1336  0.0788 -0.0723
 3448POSM   AM240454  25.246  26.355  13.091 -0.1544 -0.3541  0.0281
 3448POSM   T1A40455  25.216  25.820  13.220  0.0482 -0.0109 -0.4572
 3448POSM   C2A40456  25.446  25.657  12.817 -0.1490  0.2420  0.1413
 3448POSM   C3A40457  25.476  25.477  12.390 -0.1274  0.0324 -0.2301
 3448POSM   C1B40458  25.391  26.173  12.859  0.3569 -0.0910  0.0333
 3448POSM   D2B40459  25.775  26.001  12.616 -0.1088  0.2569  0.0200
 3448POSM   C3B40460  25.746  25.830  12.145 -0.2938 -0.3448 -0.0276
 3448POSM   C4B40461  25.772  25.927  11.648  0.1303  0.2131  0.1128
 3449DOPS   CNO40462  33.200  23.544  14.587  0.0330 -0.2524  0.1469
 3449DOPS   PO440463  33.243  23.574  14.225 -0.1402  0.0443  0.2660
 3449DOPS   GL140464  33.107  23.532  13.913  0.0571  0.2269  0.0383
 3449DOPS   GL240465  32.946  23.738  13.834 -0.0335  0.2130 -0.1100
 3449DOPS   C1A40466  33.420  23.665  13.545 -0.2562 -0.0784  0.2357
 3449DOPS   D2A40467  33.649  23.790  13.154  0.1610  0.2204 -0.1011
 3449DOPS   C3A40468  33.498  24.145  12.950 -0.1648  0.0147 -0.1056
 3449DOPS   C4A40469  33.626  24.539  12.977 -0.0571 -0.0404  0.0985
 3449DOPS   C1B40470  32.943  23.622  13.429 -0.1043 -0.0233 -0.0759
 3449DOPS   D2B40471  32.785  23.618  13.007  0.2595 -0.0054 -0.0652
 3449DOPS   C3B40472  32.473  23.794  12.779 -0.0238 -0.3007  0.1407
 3449DOPS   C4B40473  32.235  23.803  12.361  0.1693 -0.3916  0.3160
 3450DOPC   NC340474  23.943   3.637  12.712 -0.1687 -0.0693 -0.1849
 3450DOPC   PO440475  24.126   3.991  12.820 -0.1186  0.2996  0.2353
 3450DOPC   GL140476  23.997   4.080  12.327  0.2167 -0.1428 -0.0975
 3450DOPC   GL240477  23.767   3.879  12.277  0.2909  0.0077  0.1712
 3450DOPC   C1A40478  24.199   4.000  11.898  0.3020  0.1406 -0.0309
 3450DOPC   D2A40479  24.210   3.974  11.439 -0.2726  0.0287  0.3171
 3450DOPC   C3A40480  24.555   3.664  11.259  0.1246 -0.1665  0.1898
 3450DOPC   C4A40481  24.976   3.602  11.145  0.2735 -0.1131 -0.2794
 3450DOPC   C1B40482  23.691   4.132  11.920  0.0169 -0.1561  0.1277
 3450DOPC   D2B40483  23.810   4.416  11.604 -0.0907  0.3343 -0.1342
 3450DOPC   C3B40484  24.000   4.534  11.254  0.0674  0.2589 -0.1049
 3450DOPC   C4B40485  24.114   4.900  11.014 -0.0672  0.0968  0.3590
 3451POSM   NC340486  29.442  30.811  12.410 -0.1282  0.1027 -0.0399
 3451POSM   PO440487  29.671  30.747  12.772  0.1034 -0.1688 -0.3096
 3451POSM   AM140488  29.885  30.567  12.549  0.0191 -0.1639  0.4571
 3451POSM   AM240489  29.808  30.422  12.315 -0.1739  0.2217 -0.1343
 3451POSM   T1A40490  30.332  30.638  12.354 -0.0916 -0.1689  0.0025
 3451POSM   C2A40491  30.573  31.017  12.222  0.0601 -0.3047 -0.1359
 3451POSM   C3A40492  30.690  31.414  12.464  0.1746 -0.2120  0.2067
 3451POSM   C1B40493  30.065  30.377  12.089  0.1522  0.0279 -0.0299
 3451POSM   D2B40494  30.485  30.368  11.876 -0.2083  0.0578  0.1265
 3451POSM   C3B40495  30.765  30.038  11.800  0.0105  0.2518  0.0411
 3451POSM   C4B40496  31.040  29.665  11.907  0.0816 -0.2442 -0.0471
 3452DOPE   NH340497  32.020  24.454  13.974  0.1262  0.0323 -0.0663
 3452DOPE   PO440498  32.262  24.649  14.092 -0.2539 -0.0317  0.0161
 3452DOPE   GL140499  32.531  24.437  13.891  0.1101 -0.2327  0.0841
 3452DOPE   GL240500  32.500  24.438  13.589  0.0385  0.0337  0.0681
 3452DOPE   C1A40501  32.927  24.258  13.735 -0.2148 -0.0395 -0.2265
 3452DOPE   D2A40502  33.169  24.058  13.389  0.3095  0.2574 -0.2480
 3452DOPE   C3A40503  33.045  23.994  12.889 -0.0688  0.1364  0.1769
 3452DOPE   C4A40504  33.191  24.156  12.533 -0.3700 -0.2496  0.0261
 3452DOPE   C1B40505  32.123  24.231  13.451  0.1988  0.0338 -0.0672
 3452DOPE   D2B40506  31.903  24.150  13.032 -0.0777  0.0111  0.2568
 3452DOPE   C3B40507  31.961  23.772  12.760  0.2833  0.1769  0.2637
 3452DOPE   C4B40508  31.844  23.481  12.376  0.1787  0.1056 -0.0161
 3453DOPS   CNO40509  32.918  22.217  14.289 -0.1237  0.3313 -0.0816
 3453DOPS   PO440510  33.305  22.342  14.330  0.1706  0.0249 -0.1131
 3453DOPS   GL140511  33.180  22.507  14.017  0.0669  0.1104 -0.1250
 3453DOPS   GL240512  32.974  22.480  13.803 -0.0670  0.7098  0.1682
 3453DOPS   C1A40513  33.348  22.814  13.652 -0.1466  0.3172 -0.0569
 3453DOPS   D2A40514  33.126  23.160  13.467  0.1076  0.2216 -0.0128
 3453DOPS   C3A40515  32.734  23.078  13.399 -0.0899 -0.1223  0.0318
 3453DOPS   C4A40516  32.572  22.706  13.608  0.1142 -0.1033  0.1164
 3453DOPS   C1B40517  32.875  22.946  13.864  0.0813  0.1440 -0.1008
 3453DOPS   D2B40518  32.641  23.337  13.766 -0.2660  0.2011 -0.0895
 3453DOPS   C3B40519  32.407  23.431  13.394  0.1837 -0.4330  0.0110
 3453DOPS   C4B40520  32.184  23.758  13.220 -0.1419  0.2966 -0.3389
 3454DOPS   CNO40521  27.007  33.228  12.677  0.1147 -0.0726 -0.3503
 3454DOPS   PO440522  27.344  33.187  12.493 -0.2474  0.0528 -0.1408
 3454DOPS   GL140523  27.315  33.429  12.218  0.1727 -0.2351  0.3943
 3454DOPS   GL240524  27.069  33.591  12.356  0.1757 -0.0626 -0.1341
 3454DOPS   C1A40525  27.129  33.334  11.811  0.1929  0.0545  0.1754
 3454DOPS   D2A40526  27.016  33.264  11.335 -0.0313 -0.2029 -0.3671
 3454DOPS   C3A40527  26.833  33.481  10.963 -0.3140  0.1944 -0.0090
 3454DOPS   C4A40528  26.432  33.547  10.788 -0.2022 -0.1178 -0.0448
 3454DOPS   C1B40529  26.734  33.612  11.989  0.3001  0.0636  0.0243
 3454DOPS   D2B40530  26.285  33.653  11.838  0.1146 -0.0293 -0.0485
 3454DOPS   C3B40531  26.148  33.462  11.429 -0.1752  0.3521 -0.1867
 3454DOPS   C4B40532  26.014  33.292  11.050 -0.1583  0.2776 -0.1666
 3455DOPE   NH340533  33.260  21.452  13.449 -0.1533 -0.3778  0.1048
 3455DOPE   PO440534  33.157  21.706  13.583  0.3095  0.3003 -0.0991
 3455DOPE   GL140535  33.335  21.863  13.231  0.2420 -0.2651  0.3128
 3455DOPE   GL240536  33.593  21.993  13.326  0.1176  0.2372 -0.0616
 3455DOPE   C1A40537  33.417  22.238  12.971  0.2210  0.0269 -0.0697
 3455DOPE   D2A40538  33.181  22.523  12.660  0.0276  0.0784  0.1772
 3455DOPE   C3A40539  33.321  22.806  12.274  0.0251 -0.0754  0.3210
 3455DOPE   C4A40540  33.484  23.271  12.250  0.1781  0.3719 -0.2059
 3455DOPE   C1B40541  33.729  21.899  12.880  0.0052 -0.2565  0.2244
 3455DOPE   D2B40542  33.902  22.197  12.614  0.2717  0.0522 -0.4578
 3455DOPE   C3B40543  33.805  22.670  12.538  0.1445 -0.2020 -0.0447
 3455DOPE   C4B40544  33.712  23.107  12.672  0.0078  0.0518 -0.3923
 3456DOPC   NC340545  29.158  23.763  13.517  0.1519  0.1061  0.3286
 3456DOPC   PO440546  29.519  23.885  13.630  0.1877 -0.1077  0.2943
 3456DOPC   GL140547  29.548  23.804  13.243  0.0510  0.0239 -0.2101
 3456DOPC   GL240548  29.884  23.894  13.214  0.0844  0.1255  0.1907
 3456DOPC   C1A40549  29.594  23.454  12.861 -0.0433 -0.1395 -0.0698
 3456DOPC   D2A40550  29.419  23.317  12.440  0.1746  0.0219  0.1719
 3456DOPC   C3A40551  29.248  23.246  12.039 -0.0004  0.2639 -0.0173
 3456DOPC   C4A40552  29.119  23.028  11.652 -0.1526 -0.3873  0.2899
 3456DOPC   C1B40553  30.122  23.539  12.957 -0.1800  0.0489  0.1499
 3456DOPC   D2B40554  29.954  23.101  12.792  0.0848  0.2341 -0.2813
 3456DOPC   C3B40555  29.832  23.005  12.383  0.1752  0.0154 -0.0394
 3456DOPC   C4B40556  29.619  22.723  12.074 -0.0152 -0.0059  0.4113
 3457DOPS   CNO40557  31.784  32.727  13.020  0.2142  0.2732 -0.0275
 3457DOPS   PO440558  31.384  32.774  12.986 -0.1036 -0.2005 -0.1734
 3457DOPS   GL140559  31.532  32.859  12.612  0.0306  0.0838  0.1118
 3457DOPS   GL240560  31.349  33.055  12.419  0.0514 -0.1937 -0.0300
 3457DOPS   C1A40561  31.754  32.615  12.281 -0.2954  0.0491  0.2512
 3457DOPS   D2A40562  32.139  32.498  12.109 -0.1275 -0.0551 -0.1363
 3457DOPS   C3A40563  32.277  32.491  11.696 -0.1288 -0.4115 -0.1230
 3457DOPS   C4A40564  32.317  32.691  11.321  0.0788  0.0436 -0.0947
 3457DOPS   C1B40565  31.461  33.446  12.260  0.0753  0.1637 -0.0996
 3457DOPS   D2B40566  31.237  33.700  11.920  0.1685  0.1374 -0.4214
 3457DOPS   C3B40567  31.409  33.690  11.483 -0.0638  0.0366  0.1080
 3457DOPS   C4B40568  31.286  33.559  11.040 -0.0491 -0.2233  0.0796
 3458DOPE   NH340569  23.308  34.491  13.165  0.0065  0.0780 -0.0547
 3458DOPE   PO440570  23.582  34.335  13.130 -0.2180  0.1589  0.0192
 3458DOPE   GL140571  23.442  34.246  12.788 -0.0296 -0.0583 -0.2019
 3458DOPE   GL240572  23.717  34.191  12.697 -0.2861  0.0969 -0.1646
 3458DOPE   C1A40573  23.311  34.154  12.357  0.1101 -0.1321  0.0437
 3458DOPE   D2A40574  23.384  34.257  11.899  0.1859  0.0440  0.3851
 3458DOPE   C3A40575  22.993  34.248  11.663 -0.1112  0.0772  0.0497
 3458DOPE   C4A40576  22.687  34.531  11.797 -0.0300  0.1272  0.0237
 3458DOPE   C1B40577  23.836  34.283  12.247  0.3220  0.0958 -0.3224
 3458DOPE   D2B40578  23.921  34.225  11.837  0.2825 -0.1000 -0.2111
 3458DOPE   C3B40579  23.864  34.628  11.590  0.1901 -0.0535 -0.0397
 3458DOPE   C4B40580  23.950  34.918  11.196  0.1752  0.0715 -0.3884
 3459DOPE   NH340581  28.194  32.916  12.697 -0.1964  0.0003 -0.0121
 3459DOPE   PO440582  28.506  32.875  12.733  0.2376  0.4336  0.1624
 3459DOPE   GL140583  28.517  32.866  12.296  0.1857 -0.0373  0.1143
 3459DOPE   GL240584  28.486  32.653  12.058 -0.2317 -0.1025  0.2335
 3459DOPE   C1A40585  28.669  33.260  12.094 -0.0795 -0.0273 -0.4478
 3459DOPE   D2A40586  28.824  33.666  12.009  0.1241  0.0741  0.0022
 3459DOPE   C3A40587  29.021  33.723  11.559  0.1183 -0.1827  0.1841
 3459DOPE   C4A40588  29.295  33.805  11.244  0.0877 -0.1668 -0.3446
 3459DOPE   C1B40589  28.284  32.542  11.677  0.2828  0.1838 -0.0617
 3459DOPE   D2B40590  28.175  32.551  11.213 -0.1501  0.0082 -0.2043
 3459DOPE   C3B40591  28.226  32.853  10.891 -0.1221 -0.2401 -0.0230
 3459DOPE   C4B40592  28.393  33.172  10.539 -0.2314  0.1688 -0.0020
 3460DOPE   NH340593  29.769  26.969  13.146 -0.2225  0.1296 -0.1249
 3460DOPE   PO440594  29.902  26.998  12.872 -0.1806  0.1499 -0.3047
 3460DOPE   GL140595  30.000  26.633  12.642  0.0743 -0.1245 -0.0714
 3460DOPE   GL240596  30.245  26.718  12.456 -0.3154 -0.4715  0.2782
 3460DOPE   C1A40597  30.099  26.300  12.277 -0.1378  0.1989  0.0018
 3460DOPE   D2A40598  30.451  26.002  12.278 -0.0615  0.1775 -0.1891
 3460DOPE   C3A40599  30.679  25.720  11.984 -0.1787 -0.1602  0.1474
 3460DOPE   C4A40600  30.957  25.442  11.764  0.1825  0.0742 -0.4056
 3460DOPE   C1B40601  30.217  26.855  12.041 -0.1910  0.2042 -0.2382
 3460DOPE   D2B40602  30.088  26.793  11.540  0.1997 -0.0323  0.0076
 3460DOPE   C3B40603  29.712  26.767  11.231 -0.1409 -0.0188 -0.2475
 3460DOPE   C4B40604  29.462  26.814  10.807 -0.2671  0.1415  0.0322
 3461DOPC   NC340605  32.628   1.697  14.035  0.2483  0.1786  0.0049
 3461DOPC   PO440606  32.723   1.442  13.741 -0.1789 -0.1978 -0.0417
 3461DOPC   GL140607  32.697   1.496  13.414 -0.1233  0.0215  0.0910
 3461DOPC   GL240608  32.633   1.191  13.299 -0.1271  0.1958 -0.3127
 3461DOPC   C1A40609  32.770   1.783  12.996  0.0932  0.0413 -0.0059
 3461DOPC   D2A40610  32.861   2.246  12.816 -0.2259 -0.1085 -0.0626
 3461DOPC   C3A40611  32.934   2.423  12.339 -0.0483  0.0664  0.0507
 3461DOPC   C4A40612  33.343   2.300  12.338  0.5173  0.0504  0.1686
 3461DOPC   C1B40613  32.662   1.267  12.840  0.0454 -0.0228  0.1508
 3461DOPC   D2B40614  32.735   1.595  12.477 -0.1266  0.4329  0.1524
 3461DOPC   C3B40615  33.032   1.468  12.231  0.1217  0.0335 -0.0854
 3461DOPC   C4B40616  33.336   1.550  11.847  0.0819  0.1586  0.0884
 3462POSM   NC340617  26.421  30.149  12.351  0.2492  0.3810  0.0785
 3462POSM   PO440618  26.798  30.176  12.245 -0.0868 -0.0319  0.3913
 3462POSM   AM140619  26.730  30.299  11.958 -0.0844 -0.0708  0.0071
 3462POSM   AM240620  26.888  30.126  11.750 -0.0146 -0.2344  0.4654
 3462POSM   T1A40621  26.516  30.560  11.592  0.1391 -0.2590 -0.0107
 3462POSM   C2A40622  26.423  30.594  11.132 -0.1583 -0.1068  0.0112
 3462POSM   C3A40623  26.435  30.873  10.796 -0.0617 -0.1796 -0.0676
 3462POSM   C1B40624  26.866  30.185  11.433 -0.0772 -0.0853  0.2034
 3462POSM   D2B40625  27.065  30.097  10.994 -0.2102 -0.0275  0.1470
 3462POSM   C3B40626  26.954  29.653  11.124 -0.0088 -0.3190  0.0226
 3462POSM   C4B40627  26.808  29.225  11.268 -0.0958  0.3223  0.0082
 3463POSM   NC340628  20.545  32.113  13.164 -0.4371 -0.1067  0.3760
 3463POSM   PO440629  20.384  31.735  13.141 -0.3868  0.1264 -0.0068
 3463POSM   AM140630  20.396  31.784  12.828  0.1919 -0.1665 -0.2066
 3463POSM   AM240631  20.517  31.970  12.645 -0.0685 -0.0997  0.0782
 3463POSM   T1A40632  20.396  31.659  12.314  0.0082  0.4492 -0.1320
 3463POSM   C2A40633  20.416  31.768  11.835  0.1625  0.0692  0.0425
 3463POSM   C3A40634  20.317  31.894  11.419  0.1526 -0.0395 -0.1191
 3463POSM   C1B40635  20.616  32.302  12.470  0.2657  0.0202  0.1911
 3463POSM   D2B40636  20.491  32.742  12.306 -0.0190 -0.5855 -0.1814
 3463POSM   C3B40637  20.426  32.885  11.894 -0.3006 -0.2662  0.0166
 3463POSM   C4B40638  20.071  32.962  11.586 -0.1152 -0.1141  0.1921
 3464DOPC   NC340639  28.928  28.560  12.803 -0.2064  0.2520 -0.0985
 3464DOPC   PO440640  29.209  28.525  12.519 -0.0435  0.1238  0.2853
 3464DOPC   GL140641  29.358  28.621  12.183  0.1200 -0.0326  0.2214
 3464DOPC   GL240642  29.482  28.774  12.072 -0.0497 -0.1001 -0.0007
 3464DOPC   C1A40643  29.370  28.409  11.764  0.1996  0.0469 -0.0033
 3464DOPC   D2A40644  29.142  28.541  11.316 -0.1569  0.3158 -0.2963
 3464DOPC   C3A40645  28.768  28.321  11.110  0.2524 -0.1789  0.0344
 3464DOPC   C4A40646  28.480  28.019  10.982 -0.0163  0.2367  0.0683
 3464DOPC   C1B40647  29.237  28.869  11.677  0.1710 -0.1406 -0.5974
 3464DOPC   D2B40648  29.009  29.092  11.402 -0.2280 -0.0207  0.1316
 3464DOPC   C3B40649  28.944  28.897  10.964 -0.0462 -0.0358  0.1390
 3464DOPC   C4B40650  28.877  28.584  10.673  0.0181  0.0118  0.0625
 3465DOPC   NC340651  28.445  29.134  12.799  0.1331 -0.1884 -0.0632
 3465DOPC   PO440652  28.281  28.848  12.985  0.3500  0.1179  0.0608
 3465DOPC   GL140653  28.258  28.683  12.557  0.2129  0.2323  0.1346
 3465DOPC   GL240654  28.097  28.883  12.415  0.3157  0.1870  0.4265
 3465DOPC   C1A40655  28.323  28.677  12.083  0.1523 -0.1674 -0.0769
 3465DOPC   D2A40656  28.172  28.873  11.708  0.2525  0.2218 -0.3231
 3465DOPC   C3A40657  28.274  29.117  11.327 -0.0252 -0.1686  0.1215
 3465DOPC   C4A40658  28.452  29.143  10.882 -0.1093  0.0404 -0.3595
 3465DOPC   C1B40659  27.762  28.593  12.175 -0.0276  0.2178  0.2224
 3465DOPC   D2B40660  27.462  28.272  11.973 -0.0101 -0.0718  0.1199
 3465DOPC   C3B40661  27.103  28.382  11.796 -0.1223  0.2454 -0.0571
 3465DOPC   C4B40662  26.823  28.270  11.475  0.1626 -0.1999  0.0291
 3466DOPS   CNO40663  21.990  30.654  13.272  0.0419  0.1609 -0.1507
 3466DOPS   PO440664  22.185  30.683  12.958 -0.1605 -0.1914  0.1214
 3466DOPS   GL140665  22.362  30.873  12.657  0.0125 -0.3461  0.1210
 3466DOPS   GL240666  22.251  30.803  12.389 -0.3334  0.0284 -0.2572
 3466DOPS   C1A40667  22.750  30.718  12.453 -0.2449  0.1026  0.0988
 3466DOPS   D2A40668  23.222  30.746  12.332 -0.0429 -0.1834  0.0937
 3466DOPS   C3A40669  23.417  30.767  11.901 -0.2679 -0.0827  0.0424
 3466DOPS   C4A40670  23.112  30.757  11.531  0.0746  0.1127 -0.1007
 3466DOPS   C1B40671  21.952  30.675  12.071 -0.0403  0.2341 -0.0208
 3466DOPS   D2B40672  21.812  30.527  11.679 -0.1446  0.0701  0.0752
 3466DOPS   C3B40673  21.875  30.454  11.239  0.1223 -0.0713 -0.0123
 3466DOPS   C4B40674  22.117  30.460  10.781 -0.0701  0.0632 -0.1933
 3467DOPE   NH340675  34.147  24.426  14.265  0.3328 -0.4645 -0.1118
 3467DOPE   PO440676  34.386  24.222  14.226  0.3012  0.1418 -0.1767
 3467DOPE   GL140677  34.260  24.237  13.809 -0.1687  0.1606  0.1641
 3467DOPE   GL240678  34.128  23.981  13.744 -0.2337 -0.0192 -0.0980
 3467DOPE   C1A40679  34.479  24.188  13.362  0.0207 -0.2737  0.0171
 3467DOPE   D2A40680  34.351  23.953  12.973 -0.3034  0.2125  0.1695
 3467DOPE   C3A40681  33.948  23.980  12.771  0.0290 -0.1607 -0.0200
 3467DOPE   C4A40682  33.563  23.846  12.506 -0.0323  0.0597  0.2765
 3467DOPE   C1B40683  33.993  23.629  13.465 -0.2517 -0.2169 -0.1193
 3467DOPE   D2B40684  34.056  23.471  13.013 -0.0831  0.1025 -0.3244
 3467DOPE   C3B40685  33.937  23.506  12.573 -0.5612  0.3340  0.1380
 3467DOPE   C4B40686  33.834  23.552  12.133 -0.2578 -0.3470  0.1241
 3468DOPS   CNO40687  29.361  26.584  13.253  0.0497 -0.3288 -0.1618
 3468DOPS   PO440688  29.595  26.300  13.116  0.2227  0.0016  0.1904
 3468DOPS   GL140689  29.901  26.077  12.926  0.0834  0.0797  0.6155
 3468DOPS   GL240690  29.786  26.223  12.659 -0.1802 -0.0338  0.1298
 3468DOPS   C1A40691  30.060  25.677  12.810  0.1387 -0.2687 -0.1719
 3468DOPS   D2A40692  30.359  25.458  12.487 -0.2218  0.0855  0.2285
 3468DOPS   C3A40693  30.091  25.182  12.194 -0.2457  0.2209 -0.0277
 3468DOPS   C4A40694  30.227  24.751  11.998  0.0087 -0.2160 -0.1098
 3468DOPS   C1B40695  29.565  26.175  12.308  0.1396  0.1615  0.0849
 3468DOPS   D2B40696  29.387  25.916  11.957 -0.0632 -0.2583 -0.1702
 3468DOPS   C3B40697  29.660  25.546  11.890 -0.1853  0.0454 -0.3182
 3468DOPS   C4B40698  29.886  25.229  11.706  0.1898  0.0155 -0.1425
 3469DOPE   NH340699  34.550  25.539  10.221 -0.1172  0.0024  0.3440
 3469DOPE   PO440700  34.292  25.708  10.209  0.1967 -0.0595 -0.2439
 3469DOPE   GL140701  34.456  25.999  10.309 -0.2509 -0.2374  0.1392
 3469DOPE   GL240702  34.540  25.877  10.585 -0.1541 -0.1325 -0.0008
 3469DOPE   C1A40703  34.464  26.357  10.555  0.1385  0.0943 -0.1866
 3469DOPE   D2A40704  34.387  26.568  10.955  0.0183  0.2032  0.2481
 3469DOPE   C3A40705  34.004  26.718  11.140  0.2013 -0.0574 -0.1406
 3469DOPE   C4A40706  33.911  26.775  11.598 -0.1102 -0.0160 -0.1750
 3469DOPE   C1B40707  34.661  26.158  10.959  0.0161 -0.2275  0.2587
 3469DOPE   D2B40708  34.707  26.462  11.293 -0.1142  0.2410 -0.1186
 3469DOPE   C3B40709  34.381  26.570  11.510  0.0337  0.3803 -0.2149
 3469DOPE   C4B40710  34.225  26.595  11.956  0.0741  0.2004 -0.2749
 3470DOPS   CNO40711  25.176  28.392   9.556  0.0093  0.0170 -0.1143
 3470DOPS   PO440712  25.462  28.643   9.517  0.1738 -0.0484 -0.2492
 3470DOPS   GL140713  25.626  28.794   9.824  0.3596  0.1150  0.0150
 3470DOPS   GL240714  25.545  29.073   9.855 -0.2821  0.0504  0.2947
 3470DOPS   C1A40715  25.502  28.816  10.254 -0.1058 -0.0150  0.0737
 3470DOPS   D2A40716  25.705  28.921  10.669  0.2794  0.0778 -0.2709
 3470DOPS   C3A40717  26.013  28.661  10.882 -0.1469 -0.2692  0.0176
 3470DOPS   C4A40718  26.317  28.919  11.083  0.3806 -0.1689  0.0374
 3470DOPS   C1B40719  25.546  29.386  10.151 -0.2280  0.2529  0.0568
 3470DOPS   D2B40720  25.275  29.690  10.383  0.0783 -0.0479  0.0282
 3470DOPS   C3B40721  24.843  29.721  10.489  0.0956 -0.0007  0.0134
 3470DOPS   C4B40722  24.580  30.052  10.403 -0.1088 -0.0803  0.2676
 3471DOPE   NH340723  32.694  25.810   9.887 -0.3111  0.3317 -0.2367
 3471DOPE   PO440724  32.534  26.069  10.005  0.2746 -0.0303  0.0232
 3471DOPE   GL140725  32.711  26.310  10.323  0.1364  0.2499  0.0201
 3471DOPE   GL240726  32.827  26.529  10.173 -0.4368 -0.2961 -0.1779
 3471DOPE   C1A40727  33.009  26.348  10.681  0.4547 -0.0672  0.2271
 3471DOPE   D2A40728  33.161  26.308  11.089 -0.2275 -0.1510 -0.1566
 3471DOPE   C3A40729  32.931  25.983  11.244 -0.0931  0.2447 -0.2362
 3471DOPE   C4A40730  33.018  25.532  11.257  0.1326  0.1739 -0.1796
 3471DOPE   C1B40731  32.544  26.617  10.578 -0.0557 -0.3725  0.0380
 3471DOPE   D2B40732  32.429  26.861  10.945  0.0531  0.0603  0.1505
 3471DOPE   C3B40733  32.704  27.099  11.260 -0.2056  0.4003  0.0380
 3471DOPE   C4B40734  32.955  27.441  11.443  0.2934  0.0765  0.1680
 3472DOPE   NH340735  33.866  25.388  10.274  0.0983  0.1103 -0.2544
 3472DOPE   PO440736  34.102  25.235  10.146  0.2045 -0.0366  0.2140
 3472DOPE   GL140737  34.243  25.424  10.557 -0.0633  0.5147  0.1451
 3472DOPE   GL240738  34.454  25.189  10.529 -0.2692 -0.4561  0.1703
 3472DOPE   C1A40739  34.244  25.672  10.949  0.3035  0.1883  0.2026
 3472DOPE   D2A40740  34.027  25.693  11.332 -0.1131  0.0791  0.0981
 3472DOPE   C3A40741  34.202  25.563  11.688  0.0846 -0.0543 -0.4322
 3472DOPE   C4A40742  34.373  25.195  11.950  0.1332  0.0112 -0.5133
 3472DOPE   C1B40743  34.655  25.423  10.861  0.0502  0.0631  0.2084
 3472DOPE   D2B40744  34.658  25.483  11.326 -0.0374  0.1353  0.0920
 3472DOPE   C3B40745  34.520  25.900  11.355 -0.0101 -0.0032 -0.0246
 3472DOPE   C4B40746  34.316  26.085  11.737 -0.0255  0.0990  0.1325
 3473DOPC   NC340747  33.161  24.275  10.461  0.1914  0.3198  0.7001
 3473DOPC   PO440748  33.317  24.634  10.445 -0.0856 -0.0219 -0.1706
 3473DOPC   GL140749  33.212  24.771  10.780 -0.0636 -0.1389  0.1598
 3473DOPC   GL240750  33.508  24.724  10.889 -0.2694  0.1493 -0.0804
 3473DOPC   C1A40751  33.031  24.499  11.087 -0.2121  0.0152 -0.1800
 3473DOPC   D2A40752  32.990  24.557  11.563 -0.4458  0.1418  0.4904
 3473DOPC   C3A40753  33.358  24.524  11.845 -0.0738 -0.1201 -0.3692
 3473DOPC   C4A40754  33.392  24.542  12.301  0.1041 -0.1007 -0.2584
 3473DOPC   C1B40755  33.464  24.714  11.335  0.2704 -0.1126 -0.1848
 3473DOPC   D2B40756  33.677  24.863  11.732 -0.5290  0.0788  0.1282
 3473DOPC   C3B40757  33.476  24.973  12.106 -0.0369  0.2306 -0.3620
 3473DOPC   C4B40758  33.173  25.099  12.480 -0.0760 -0.1400 -0.0134
 3474DOPC   NC340759  28.056  31.328   8.990 -0.1528 -0.0644  0.0687
 3474DOPC   PO440760  27.851  31.160   8.699 -0.3871  0.1615  0.2114
 3474DOPC   GL140761  27.668  31.074   8.949 -0.1903  0.1255  0.3804
 3474DOPC   GL240762  27.553  31.242   9.117  0.0820  0.1078 -0.0635
 3474DOPC   C1A40763  27.654  30.724   9.239 -0.0625 -0.1451 -0.0263
 3474DOPC   D2A40764  27.519  30.579   9.621  0.1370 -0.0450  0.0056
 3474DOPC   C3A40765  27.729  30.793  10.006  0.3340  0.1538 -0.1001
 3474DOPC   C4A40766  27.776  30.685  10.438  0.1922  0.0904  0.0811
 3474DOPC   C1B40767  27.728  31.577   9.438  0.0618 -0.1165 -0.0517
 3474DOPC   D2B40768  28.005  31.820   9.745  0.0861  0.1370  0.0627
 3474DOPC   C3B40769  28.441  31.814   9.872 -0.0811 -0.0594 -0.0508
 3474DOPC   C4B40770  28.908  31.961   9.838  0.3669  0.3697 -0.1741
 3475DOPE   NH340771  22.779  30.196   9.040 -0.0771  0.0508 -0.0839
 3475DOPE   PO440772  22.880  30.385   9.293  0.0277 -0.1052  0.1034
 3475DOPE   GL140773  23.068  30.454   9.658  0.1245  0.3699  0.0851
 3475DOPE   GL240774  23.038  30.172   9.745  0.0336 -0.1015 -0.2032
 3475DOPE   C1A40775  22.845  30.563  10.005 -0.4908  0.3363  0.1140
 3475DOPE   D2A40776  22.627  30.638  10.416  0.0554 -0.2239 -0.0565
 3475DOPE   C3A40777  22.602  30.594  10.911  0.0033 -0.2308 -0.2333
 3475DOPE   C4A40778  22.432  30.643  11.317 -0.1280 -0.0445 -0.2163
 3475DOPE   C1B40779  22.629  30.104   9.940  0.1577 -0.1996  0.2252
 3475DOPE   D2B40780  22.189  29.984   9.915 -0.0351 -0.0171  0.2587
 3475DOPE   C3B40781  21.833  30.128  10.128  0.1760  0.0713  0.2891
 3475DOPE   C4B40782  21.365  30.011  10.192  0.0955 -0.1494 -0.1869
 3476DOPE   NH340783  33.975  32.232   9.867  0.1317 -0.2572  0.2758
 3476DOPE   PO440784  33.824  31.929   9.783 -0.1829 -0.3751  0.0030
 3476DOPE   GL140785  33.750  32.022  10.231 -0.2492 -0.0567  0.1738
 3476DOPE   GL240786  33.970  32.182  10.395  0.2722 -0.1534 -0.0374
 3476DOPE   C1A40787  33.444  31.741  10.463 -0.0097 -0.0992  0.2222
 3476DOPE   D2A40788  33.582  31.505  10.893  0.3138 -0.0196 -0.3213
 3476DOPE   C3A40789  33.963  31.542  11.091  0.1708  0.2909  0.1186
 3476DOPE   C4A40790  34.273  31.774  11.344  0.1765 -0.2636 -0.1407
 3476DOPE   C1B40791  33.754  32.000  10.762  0.1250  0.0066  0.1929
 3476DOPE   D2B40792  33.791  32.088  11.181  0.0467 -0.0667  0.1025
 3476DOPE   C3B40793  33.666  31.822  11.516 -0.0424  0.1421 -0.0857
 3476DOPE   C4B40794  33.959  31.532  11.686  0.1015 -0.4072 -0.0522
 3477DOPE   NH340795  29.416  31.185   8.609 -0.1441  0.0453 -0.3133
 3477DOPE   PO440796  29.608  31.089   8.855  0.3548  0.1581  0.0912
 3477DOPE   GL140797  29.564  31.220   9.207 -0.2317 -0.2515 -0.0002
 3477DOPE   GL240798  29.286  31.349   9.291 -0.0151  0.3048 -0.1373
 3477DOPE   C1A40799  29.624  31.117   9.662 -0.0281 -0.1024 -0.0252
 3477DOPE   D2A40800  29.397  31.047  10.053  0.1303  0.3011 -0.0719
 3477DOPE   C3A40801  29.417  30.574  10.072 -0.1500  0.1645  0.0996
 3477DOPE   C4A40802  29.565  30.169  10.212  0.1105 -0.2976  0.0017
 3477DOPE   C1B40803  29.236  31.719   9.613 -0.0007 -0.1581  0.3514
 3477DOPE   D2B40804  29.410  31.809  10.041 -0.0982 -0.1163  0.0288
 3477DOPE   C3B40805  29.830  32.002  10.203 -0.0968 -0.2725  0.3200
 3477DOPE   C4B40806  30.051  31.746  10.606  0.0575 -0.0786  0.0967
 3478POSM   NC340807  25.466  34.142   9.036  0.0071  0.3772  0.1930
 3478POSM   PO440808  25.171  34.417   9.139 -0.0302 -0.1552 -0.1453
 3478POSM   AM140809  25.260  34.376   9.446  0.1124  0.0949  0.1012
 3478POSM   AM240810  25.120  34.396   9.657 -0.1547 -0.2738 -0.3197
 3478POSM   T1A40811  25.419  34.038   9.846  0.3531  0.0336  0.0955
 3478POSM   C2A40812  25.238  33.984  10.312 -0.4600 -0.1749 -0.1469
 3478POSM   C3A40813  24.840  34.093  10.537 -0.2524  0.4495 -0.3789
 3478POSM   C1B40814  25.424  34.488   9.860 -0.1309  0.1549 -0.0138
 3478POSM   D2B40815  25.672  34.672  10.192  0.1657  0.1791  0.3719
 3478POSM   C3B40816  25.602  35.028  10.478 -0.0966  0.4682 -0.1119
 3478POSM   C4B40817  25.552  35.125  10.910  0.1242  0.0290 -0.1376
 3479DOPE   NH340818  28.613  32.443   8.713  0.2672 -0.3645  0.0785
 3479DOPE   PO440819  28.567  32.141   8.567 -0.0575 -0.1976  0.1688
 3479DOPE   GL140820  28.559  32.051   9.009  0.2157  0.2113  0.1302
 3479DOPE   GL240821  28.739  32.118   9.099 -0.0551 -0.1942  0.2794
 3479DOPE   C1A40822  28.287  31.785   9.271  0.2220  0.0832 -0.5321
 3479DOPE   D2A40823  28.238  31.457   9.481 -0.1105  0.1917  0.4108
 3479DOPE   C3A40824  28.121  31.339   9.907  0.0901 -0.3014  0.1840
 3479DOPE   C4A40825  28.015  31.192  10.288 -0.1268 -0.0912 -0.2109
 3479DOPE   C1B40826  28.533  32.186   9.496  0.1187 -0.0617 -0.0842
 3479DOPE   D2B40827  28.270  32.246   9.877  0.0233 -0.1931 -0.2380
 3479DOPE   C3B40828  28.623  32.188  10.184 -0.3740  0.2619 -0.0202
 3479DOPE   C4B40829  28.996  31.943  10.317  0.1563 -0.0519 -0.2452
 3480POSM   NC340830  30.993  33.406   8.716  0.1302  0.1305  0.3046
 3480POSM   PO440831  31.142  33.290   9.031 -0.0607  0.1576 -0.1638
 3480POSM   AM140832  30.957  33.328   9.291  0.2012 -0.4399  0.1292
 3480POSM   AM240833  30.967  33.527   9.503  0.0566 -0.0299 -0.1590
 3480POSM   T1A40834  30.871  33.098   9.733  0.1411 -0.1324  0.0979
 3480POSM   C2A40835  30.517  32.926  10.042 -0.0200  0.1515  0.2766
 3480POSM   C3A40836  30.162  33.001  10.255 -0.2266 -0.0401 -0.0865
 3480POSM   C1B40837  31.045  33.687   9.800 -0.0985  0.5709  0.1622
 3480POSM   D2B40838  31.385  33.731  10.119  0.0360 -0.1675 -0.1036
 3480POSM   C3B40839  31.457  33.868  10.557  0.0092 -0.0787 -0.0918
 3480POSM   C4B40840  31.661  33.989  10.937 -0.0456 -0.0396  0.1922
 3481POSM   NC340841  24.075  26.640   8.932  0.0400  0.2071 -0.0784
 3481POSM   PO440842  23.929  26.745   9.303  0.0499  0.1882  0.2980
 3481POSM   AM140843  23.926  26.867   9.598  0.0090 -0.2712 -0.0024
 3481POSM   AM240844  24.184  26.998   9.778 -0.1477 -0.2110  0.0425
 3481POSM   T1A40845  23.700  27.041  10.031 -0.3685  0.3148 -0.0585
 3481POSM   C2A40846  23.380  27.282  10.274 -0.2978 -0.0920  0.0294
 3481POSM   C3A40847  23.117  27.418  10.590 -0.1577 -0.4098 -0.1630
 3481POSM   C1B40848  24.218  27.120  10.105  0.3102  0.3549  0.1324
 3481POSM   D2B40849  24.407  27.220  10.553  0.2929 -0.0717 -0.0141
 3481POSM   C3B40850  24.478  27.392  10.956 -0.1985  0.0190  0.0329
 3481POSM   C4B40851  24.635  27.786  11.263  0.0093  0.1322  0.1932
 3482DOPC   NC340852  34.661   0.007  10.278 -0.1110  0.2053  0.1704
 3482DOPC   PO440853  34.580  -0.006   9.905 -0.1323  0.0417  0.2142
 3482DOPC   GL140854  34.337  -0.201  10.095  0.6009 -0.2539  0.1194
 3482DOPC   GL240855  34.298  -0.457  10.161 -0.0946 -0.4302 -0.2714
 3482DOPC   C1A40856  34.248  -0.092  10.519  0.1352  0.0927  0.0790
 3482DOPC   D2A40857  34.233  -0.185  10.927  0.0891  0.0713 -0.0294
 3482DOPC   C3A40858  34.195  -0.079  11.351 -0.0536 -0.1758 -0.2359
 3482DOPC   C4A40859  34.501  -0.010  11.731  0.0365  0.2243  0.4012
 3482DOPC   C1B40860  34.096  -0.586  10.576 -0.0933  0.2322 -0.0481
 3482DOPC   D2B40861  33.690  -0.504  10.828  0.1129 -0.0436 -0.1249
 3482DOPC   C3B40862  33.836  -0.583  11.308  0.0737  0.0480 -0.1042
 3482DOPC   C4B40863  33.838  -0.656  11.759  0.0307 -0.0899 -0.3023
 3483DOPC   NC340864  29.552  34.237   9.349  0.2297  0.0050  0.2485
 3483DOPC   PO440865  29.787  34.006   9.112 -0.1761  0.0762  0.1018
 3483DOPC   GL140866  29.921  33.830   9.404 -0.0605 -0.2316 -0.0739
 3483DOPC   GL240867  29.869  34.000   9.648 -0.0116 -0.1173  0.0499
 3483DOPC   C1A40868  29.790  33.483   9.637  0.2264 -0.0544 -0.2965
 3483DOPC   D2A40869  29.529  33.497  10.036 -0.2121  0.2229 -0.2051
 3483DOPC   C3A40870  29.621  33.706  10.432 -0.1323 -0.0344  0.3771
 3483DOPC   C4A40871  29.592  33.933  10.863  0.0885  0.2013  0.0738
 3483DOPC   C1B40872  29.998  33.953  10.063 -0.1417  0.3978  0.2316
 3483DOPC   D2B40873  30.010  33.443  10.154  0.0103  0.2629  0.3160
 3483DOPC   C3B40874  29.714  33.194  10.397 -0.1268 -0.1075 -0.2026
 3483DOPC   C4B40875  29.365  33.082  10.707 -0.0843  0.0258 -0.0421
 3484DOPC   NC340876  27.680  30.204   8.850  0.1105  0.1096  0.0471
 3484DOPC   PO440877  27.772  29.852   8.643  0.0609 -0.1268  0.2210
 3484DOPC   GL140878  27.978  29.743   9.090  0.0028 -0.0684  0.3994
 3484DOPC   GL240879  28.122  29.927   9.062 -0.1881 -0.1327  0.1706
 3484DOPC   C1A40880  28.420  29.638   9.323  0.0015  0.1019  0.0885
 3484DOPC   D2A40881  28.645  29.243   9.464 -0.1475 -0.0661 -0.1075
 3484DOPC   C3A40882  28.799  29.142   9.902 -0.1876  0.3891  0.0344
 3484DOPC   C4A40883  28.835  28.841  10.259 -0.2080 -0.0603 -0.1612
 3484DOPC   C1B40884  28.439  30.161   9.368  0.3312 -0.0396 -0.0594
 3484DOPC   D2B40885  28.435  30.589   9.555  0.2951  0.1495  0.1412
 3484DOPC   C3B40886  28.756  30.677   9.935 -0.2745 -0.3534  0.1357
 3484DOPC   C4B40887  28.975  30.926  10.211 -0.2258  0.3403  0.2187
 3485DOPE   NH340888  30.283  20.633  10.705 -0.2236 -0.0660 -0.1548
 3485DOPE   PO440889  30.520  20.473  10.575 -0.2041  0.2294  0.1613
 3485DOPE   GL140890  30.582  20.385  10.963  0.2690 -0.0403  0.0487
 3485DOPE   GL240891  30.578  20.667  11.086 -0.3408 -0.0080  0.1429
 3485DOPE   C1A40892  30.832  20.160  11.296 -0.1074  0.0397 -0.0605
 3485DOPE   D2A40893  30.907  19.911  11.669 -0.0342  0.1544 -0.3435
 3485DOPE   C3A40894  30.769  19.884  12.142 -0.1743  0.0231  0.0061
 3485DOPE   C4A40895  30.827  19.698  12.541 -0.1652 -0.0242  0.2864
 3485DOPE   C1B40896  30.417  20.864  11.441 -0.1521 -0.2181 -0.1233
 3485DOPE   D2B40897  30.302  20.806  11.888 -0.2064  0.0948  0.0044
 3485DOPE   C3B40898  30.697  20.763  12.142 -0.2372  0.0035  0.1947
 3485DOPE   C4B40899  30.891  20.901  12.490 -0.1590  0.1363  0.2485
 3486POSM   NC340900  29.720  24.936   9.702  0.1453 -0.0878 -0.2220
 3486POSM   PO440901  29.421  24.703   9.635  0.0113 -0.0963 -0.0715
 3486POSM   AM140902  29.337  24.787   9.915 -0.0677 -0.1420  0.4471
 3486POSM   AM240903  29.313  24.777  10.215 -0.2359  0.1107  0.1807
 3486POSM   T1A40904  29.349  25.230  10.230 -0.0133  0.4904 -0.0146
 3486POSM   C2A40905  29.520  25.712  10.014  0.1216 -0.1431  0.2871
 3486POSM   C3A40906  29.599  26.148  10.012 -0.0133 -0.0111 -0.1824
 3486POSM   C1B40907  29.418  24.755  10.501 -0.0189  0.1193 -0.3287
 3486POSM   D2B40908  29.495  24.717  10.976  0.2381  0.0786 -0.1473
 3486POSM   C3B40909  29.211  24.459  11.240  0.0069 -0.1013  0.1534
 3486POSM   C4B40910  28.804  24.194  11.242  0.0079  0.0105 -0.0055
 3487DOPE   NH340911  24.476  33.412   9.027  0.1947  0.0122  0.1367
 3487DOPE   PO440912  24.696  33.196   9.229 -0.2608 -0.3526  0.0816
 3487DOPE   GL140913  24.996  33.101   9.540  0.1592  0.0116 -0.0311
 3487DOPE   GL240914  24.759  32.906   9.647 -0.3246  0.0272 -0.1862
 3487DOPE   C1A40915  25.119  32.981   9.989  0.2086  0.0288  0.0453
 3487DOPE   D2A40916  24.945  33.107  10.445 -0.1864 -0.3807 -0.2898
 3487DOPE   C3A40917  24.947  32.955  10.901  0.0008  0.1436 -0.0009
 3487DOPE   C4A40918  25.164  32.660  11.242 -0.3667 -0.0939 -0.1422
 3487DOPE   C1B40919  24.654  32.848  10.095 -0.0453  0.1653  0.1484
 3487DOPE   D2B40920  24.358  32.790  10.445 -0.0366  0.1281 -0.3311
 3487DOPE   C3B40921  24.235  33.166  10.706 -0.0685 -0.3030 -0.2936
 3487DOPE   C4B40922  24.240  33.391  11.103 -0.0442 -0.0256  0.4993
 3488DOPC   NC340923  32.037  25.011  10.162  0.0029 -0.1637  0.0088
 3488DOPC   PO440924  31.710  25.141  10.081  0.1440 -0.0213  0.1080
 3488DOPC   GL140925  31.557  25.441  10.312  0.0604  0.1244 -0.1488
 3488DOPC   GL240926  31.261  25.446  10.458  0.0587 -0.3597  0.3441
 3488DOPC   C1A40927  31.715  25.664  10.683 -0.2374 -0.0971  0.0800
 3488DOPC   D2A40928  31.533  25.890  11.018  0.0434 -0.4266 -0.5269
 3488DOPC   C3A40929  31.710  25.793  11.481 -0.0053 -0.2810  0.2513
 3488DOPC   C4A40930  31.787  25.830  11.927  0.4343  0.0290 -0.2037
 3488DOPC   C1B40931  31.004  25.326  10.801 -0.1887 -0.0860 -0.0643
 3488DOPC   D2B40932  30.730  25.248  11.118 -0.1485 -0.0382 -0.1452
 3488DOPC   C3B40933  30.807  24.800  11.366  0.0012 -0.2271 -0.2140
 3488DOPC   C4B40934  30.593  24.395  11.508 -0.0923  0.0076 -0.0718
 3489POSM   NC340935  29.731  24.299   9.557 -0.0433 -0.2951 -0.0111
 3489POSM   PO440936  29.849  24.504   9.868  0.0519  0.1944 -0.0988
 3489POSM   AM140937  29.851  24.658  10.150 -0.2910  0.1726 -0.0636
 3489POSM   AM240938  29.767  24.945  10.247 -0.1103  0.1848 -0.0846
 3489POSM   T1A40939  30.001  24.669  10.604 -0.1752  0.1923  0.0832
 3489POSM   C2A40940  30.293  24.734  11.002 -0.0928 -0.4096 -0.2931
 3489POSM   C3A40941  30.165  24.757  11.499 -0.3291 -0.2129 -0.0375
 3489POSM   C1B40942  29.860  25.156  10.506  0.1619  0.0980 -0.1092
 3489POSM   D2B40943  29.867  25.544  10.771  0.2395  0.0287  0.1849
 3489POSM   C3B40944  29.692  25.821  11.061  0.1170 -0.0038 -0.1950
 3489POSM   C4B40945  29.244  25.834  11.132  0.1243  0.3338 -0.0363
 3490DOPE   NH340946  32.637  30.626   9.512 -0.2513 -0.1223 -0.1364
 3490DOPE   PO440947  32.516  30.906   9.622  0.1003 -0.0837 -0.2091
 3490DOPE   GL140948  32.547  30.758   9.954 -0.1911  0.0593  0.0253
 3490DOPE   GL240949  32.688  30.507  10.015 -0.1036 -0.1737 -0.0350
 3490DOPE   C1A40950  32.551  30.786  10.413  0.0351  0.1990  0.2855
 3490DOPE   D2A40951  32.606  30.951  10.811  0.0477 -0.0717 -0.3592
 3490DOPE   C3A40952  32.232  30.953  11.149 -0.2671  0.0865  0.1218
 3490DOPE   C4A40953  31.936  30.982  11.501 -0.0569 -0.0487  0.0840
 3490DOPE   C1B40954  32.630  30.319  10.411  0.4597  0.2667 -0.1254
 3490DOPE   D2B40955  32.594  30.491  10.874  0.0667  0.0891 -0.0149
 3490DOPE   C3B40956  32.566  30.064  11.082  0.0094  0.0452 -0.3723
 3490DOPE   C4B40957  32.447  29.901  11.442 -0.2372 -0.2861 -0.4620
 3491DOPE   NH340958  23.251  29.034   9.277 -0.1783 -0.1594  0.2151
 3491DOPE   PO440959  23.212  29.165   9.596  0.2537  0.0938 -0.1407
 3491DOPE   GL140960  23.275  29.065   9.988 -0.2090 -0.2279 -0.0630
 3491DOPE   GL240961  23.436  29.019  10.207  0.1216 -0.3715 -0.1768
 3491DOPE   C1A40962  23.193  28.619  10.103 -0.0571  0.0038  0.2518
 3491DOPE   D2A40963  23.439  28.328  10.372  0.0230  0.0248 -0.1918
 3491DOPE   C3A40964  23.564  28.137  10.819  0.1177  0.0189  0.0422
 3491DOPE   C4A40965  23.551  28.382  11.182 -0.2391  0.1353 -0.2535
 3491DOPE   C1B40966  23.251  28.785  10.551 -0.1514  0.3772 -0.1646
 3491DOPE   D2B40967  23.145  28.370  10.751  0.0033  0.2474 -0.1148
 3491DOPE   C3B40968  23.064  28.436  11.213  0.1684 -0.1210 -0.1816
 3491DOPE   C4B40969  22.813  28.197  11.507 -0.0351  0.0631 -0.2947
 3492DOPC   NC340970  29.370   0.025   8.944 -0.2153  0.2091  0.0372
 3492DOPC   PO440971  29.199  -0.189   9.223  0.2156  0.3150 -0.3552
 3492DOPC   GL140972  29.118   0.022   9.574  0.1607 -0.2349 -0.2565
 3492DOPC   GL240973  29.109   0.249   9.498  0.0580  0.1998  0.3840
 3492DOPC   C1A40974  28.905  -0.261   9.896 -0.0626  0.2195  0.0498
 3492DOPC   D2A40975  29.040  -0.456  10.324  0.1274  0.1859  0.2689
 3492DOPC   C3A40976  29.488  -0.514  10.543  0.2735 -0.2555  0.0464
 3492DOPC   C4A40977  29.947  -0.593  10.701  0.0712  0.3473 -0.0870
 3492DOPC   C1B40978  28.643   0.068   9.610  0.0143  0.1540 -0.3692
 3492DOPC   D2B40979  28.223   0.227   9.739 -0.0512 -0.3970  0.0738
 3492DOPC   C3B40980  28.131   0.182  10.183 -0.0422  0.0112 -0.1850
 3492DOPC   C4B40981  28.010   0.035  10.616 -0.0574  0.1221  0.1683
 3493DOPE   NH340982  27.899  34.635   8.970  0.1382 -0.2289 -0.3311
 3493DOPE   PO440983  27.825  34.372   9.058  0.2131  0.2714 -0.1511
 3493DOPE   GL140984  27.761  34.301   9.362 -0.3661 -0.1777 -0.0010
 3493DOPE   GL240985  27.874  34.023   9.438  0.2404 -0.0404  0.1120
 3493DOPE   C1A40986  27.323  34.355   9.512 -0.0230 -0.0307  0.0208
 3493DOPE   D2A40987  26.896  34.522   9.679 -0.0524 -0.0581  0.2402
 3493DOPE   C3A40988  26.934  34.391  10.096 -0.1255  0.0091 -0.0193
 3493DOPE   C4A40989  26.724  34.004  10.184  0.3022 -0.1606  0.2182
 3493DOPE   C1B40990  27.650  33.687   9.601 -0.1603 -0.1798  0.4847
 3493DOPE   D2B40991  27.667  33.265   9.736  0.1543  0.1256  0.2244
 3493DOPE   C3B40992  27.459  33.031  10.074 -0.2558 -0.1648  0.0355
 3493DOPE   C4B40993  27.431  32.647  10.339  0.3696  0.0077  0.3385
 3494POSM   NC340994  32.440  29.060   9.293  0.1434 -0.0835  0.2605
 3494POSM   PO440995  32.135  28.908   9.142 -0.2250  0.0776  0.3633
 3494POSM   AM140996  32.050  28.942   9.464 -0.1622  0.2231 -0.0353
 3494POSM   AM240997  31.976  29.130   9.627 -0.0330 -0.0168 -0.2019
 3494POSM   T1A40998  31.990  28.703   9.906  0.0551 -0.2647 -0.1845
 3494POSM   C2A40999  31.751  28.672  10.313 -0.0475 -0.0074  0.0791
 3494POSM   C3A41000  31.412  28.569  10.666  0.0145 -0.1266  0.1691
 3494POSM   C1B41001  31.721  29.191   9.850  0.2051 -0.0012 -0.1220
 3494POSM   D2B41002  31.479  29.479  10.078 -0.1119 -0.1071 -0.1377
 3494POSM   C3B41003  31.702  29.801  10.301 -0.0386 -0.4733 -0.2165
 3494POSM   C4B41004  31.837  30.226  10.222  0.1277 -0.0277 -0.0729
 3495DOPC   NC341005  30.695  33.648   9.065 -0.1879  0.3324  0.2203
 3495DOPC   PO441006  30.632  33.937   9.352 -0.0031  0.0074 -0.0624
 3495DOPC   GL141007  30.672  33.942   9.645 -0.0317  0.0407 -0.3880
 3495DOPC   GL241008  30.521  34.185   9.760 -0.1353  0.0827  0.2708
 3495DOPC   C1A41009  30.612  33.847  10.088 -0.0520  0.0774  0.1981
 3495DOPC   D2A41010  30.446  33.586  10.390 -0.0381 -0.0306 -0.0090
 3495DOPC   C3A41011  30.180  33.298  10.719 -0.1109  0.2611 -0.1661
 3495DOPC   C4A41012  30.338  33.046  11.030  0.0726  0.1227 -0.1006
 3495DOPC   C1B41013  30.385  34.306  10.205 -0.2146 -0.0158  0.0246
 3495DOPC   D2B41014  30.420  34.151  10.656  0.0338 -0.1186 -0.0584
 3495DOPC   C3B41015  30.334  34.248  11.143  0.1994  0.1751  0.0351
 3495DOPC   C4B41016  30.347  34.087  11.553 -0.3934 -0.1027  0.3545
 3496POSM   NC341017  32.927   0.908   9.274  0.4032 -0.4019  0.3366
 3496POSM   PO441018  32.654   1.212   9.316  0.0163  0.4118  0.3499
 3496POSM   AM141019  32.648   1.098   9.625  0.1591  0.5113  0.3127
 3496POSM   AM241020  32.784   1.108   9.888 -0.1963  0.1449  0.0403
 3496POSM   T1A41021  32.429   0.752   9.949 -0.3965 -0.1597 -0.0859
 3496POSM   C2A41022  32.371   0.745  10.426 -0.2816  0.5062  0.0347
 3496POSM   C3A41023  32.449   0.512  10.777 -0.0999 -0.2748 -0.1490
 3496POSM   C1B41024  32.836   0.969  10.163  0.0239 -0.1897 -0.2005
 3496POSM   D2B41025  32.921   0.804  10.554 -0.0616  0.0001 -0.0271
 3496POSM   C3B41026  32.829   0.797  11.017 -0.3821 -0.2914  0.0992
 3496POSM   C4B41027  32.603   0.806  11.426  0.2735  0.2367  0.1415
 3497DOPE   NH341028  28.352  25.370   9.005  0.2073 -0.0105  0.2749
 3497DOPE   PO441029  28.147  25.395   9.264 -0.0315 -0.1550 -0.0688
 3497DOPE   GL141030  28.104  25.371   9.608  0.0062  0.1210 -0.1865
 3497DOPE   GL241031  28.202  25.331   9.806 -0.0119  0.0050  0.0465
 3497DOPE   C1A41032  27.767  25.373   9.981  0.0366 -0.2306  0.2556
 3497DOPE   D2A41033  27.561  25.376  10.382  0.0833  0.1683 -0.0557
 3497DOPE   C3A41034  27.729  25.057  10.698 -0.1428  0.0265  0.1803
 3497DOPE   C4A41035  27.833  24.903  11.089 -0.1768 -0.2812  0.0280
 3497DOPE   C1B41036  28.598  25.407  10.000 -0.0660 -0.0757 -0.0259
 3497DOPE   D2B41037  28.901  25.453  10.326 -0.1034 -0.4478  0.0556
 3497DOPE   C3B41038  29.024  25.101  10.606  0.2387  0.0695 -0.2073
 3497DOPE   C4B41039  29.451  25.247  10.754 -0.0622  0.0760  0.1642
 3498DOPC   NC341040  33.841  28.262   9.307  0.1015 -0.0017 -0.1283
 3498DOPC   PO441041  33.724  28.535   9.542  0.4627 -0.0181 -0.0732
 3498DOPC   GL141042  33.505  28.753   9.805 -0.3250 -0.0487  0.0340
 3498DOPC   GL241043  33.438  28.563  10.019  0.0156 -0.2490  0.0342
 3498DOPC   C1A41044  33.478  29.134  10.030  0.1741  0.2387 -0.1815
 3498DOPC   D2A41045  33.352  29.610   9.960  0.0551  0.2692  0.1131
 3498DOPC   C3A41046  33.454  29.823  10.390  0.2605  0.2376 -0.1470
 3498DOPC   C4A41047  33.488  29.890  10.873  0.1027 -0.2676  0.1540
 3498DOPC   C1B41048  33.146  28.667  10.303  0.0384 -0.0361  0.1749
 3498DOPC   D2B41049  32.796  28.934  10.482  0.0221 -0.1053  0.0229
 3498DOPC   C3B41050  32.684  29.305  10.783 -0.0576 -0.0310  0.2888
 3498DOPC   C4B41051  32.581  29.481  11.207  0.0724  0.0198 -0.1267
 3499DOPE   NH341052   1.463  24.227   9.953 -0.0923  0.0293  0.1394
 3499DOPE   PO441053   1.582  24.174  10.262 -0.0495  0.1678  0.2112
 3499DOPE   GL141054   1.326  24.207  10.458  0.2123 -0.0938 -0.2650
 3499DOPE   GL241055   1.076  24.026  10.445 -0.1368  0.1206  0.0754
 3499DOPE   C1A41056   1.097  24.383  10.827 -0.0420  0.1879 -0.0211
 3499DOPE   D2A41057   1.019  24.518  11.283  0.0781 -0.0757 -0.1013
 3499DOPE   C3A41058   1.046  24.781  11.702  0.4103 -0.2983  0.0145
 3499DOPE   C4A41059   0.796  24.738  12.111  0.0229  0.0033 -0.2756
 3499DOPE   C1B41060   0.902  23.711  10.780 -0.0974  0.2945 -0.2649
 3499DOPE   D2B41061   0.456  23.664  10.925  0.0723  0.2072 -0.2227
 3499DOPE   C3B41062   0.103  23.769  11.207 -0.2742 -0.1629 -0.1774
 3499DOPE   C4B41063  -0.153  23.998  11.439  0.1411 -0.2031 -0.0239
 3500POSM   NC341064  25.720  27.630   9.170  0.1901 -0.0207 -0.0059
 3500POSM   PO441065  25.354  27.500   9.237  0.1837  0.0475 -0.1873
 3500POSM   AM141066  25.335  27.566   9.560 -0.4318 -0.0360  0.2845
 3500POSM   AM241067  25.583  27.571   9.739 -0.0271  0.4282 -0.1475
 3500POSM   T1A41068  25.143  27.552  10.028  0.4332  0.0755  0.0134
 3500POSM   C2A41069  24.933  27.262  10.349  0.0205  0.3749  0.0370
 3500POSM   C3A41070  24.915  27.079  10.819 -0.1721 -0.0788  0.2330
 3500POSM   C1B41071  25.674  27.325  10.027 -0.1535 -0.3027 -0.3095
 3500POSM   D2B41072  25.965  27.419  10.411  0.0459  0.2797 -0.2285
 3500POSM   C3B41073  26.335  27.150  10.614  0.3811  0.1538  0.2983
 3500POSM   C4B41074  26.702  26.978  10.786  0.2272  0.0920 -0.0183
 3501DOPC   NC341075  29.951  32.868   8.773 -0.4118 -0.0634 -0.0933
 3501DOPC   PO441076  29.620  33.086   8.747  0.5073  0.1591 -0.0772
 3501DOPC   GL141077  29.489  33.053   9.148  0.0189  0.1880 -0.3648
 3501DOPC   GL241078  29.720  33.010   9.328  0.0419 -0.1614  0.0848
 3501DOPC   C1A41079  29.276  33.229   9.571 -0.0923  0.1731  0.3338
 3501DOPC   D2A41080  28.986  32.975   9.787  0.0980 -0.0846  0.1585
 3501DOPC   C3A41081  28.892  32.848  10.268 -0.1578  0.0175 -0.0862
 3501DOPC   C4A41082  28.591  32.705  10.593 -0.0342  0.0910  0.0081
 3501DOPC   C1B41083  29.686  32.995   9.810  0.0513  0.2229 -0.0053
 3501DOPC   D2B41084  29.334  33.047  10.134 -0.1112  0.3423  0.1161
 3501DOPC   C3B41085  29.350  32.695  10.453 -0.0242  0.0077  0.3520
 3501DOPC   C4B41086  29.388  32.584  10.863 -0.1672 -0.0648 -0.1238
 3502POSM   NC341087  30.288  25.644   9.458  0.0595 -0.0246 -0.1446
 3502POSM   PO441088  30.388  26.033   9.486  0.3764 -0.0738 -0.1756
 3502POSM   AM141089  30.302  26.039   9.832  0.1626 -0.2372 -0.0333
 3502POSM   AM241090  30.217  25.796   9.923  0.3433  0.0553  0.2485
 3502POSM   T1A41091  30.232  26.254  10.248  0.0386  0.1047 -0.2318
 3502POSM   C2A41092  29.880  26.570  10.270  0.0729  0.0721 -0.1879
 3502POSM   C3A41093  29.755  26.971  10.459 -0.0092 -0.0003 -0.1795
 3502POSM   C1B41094  30.010  25.791  10.146  0.0459 -0.0349 -0.0637
 3502POSM   D2B41095  29.736  25.966  10.468  0.1545 -0.2256  0.3608
 3502POSM   C3B41096  29.433  25.698  10.552 -0.0894 -0.0929 -0.0711
 3502POSM   C4B41097  29.046  25.599  10.762 -0.2176 -0.1424  0.1724
 3503POSM   NC341098  22.106  30.436   9.411  0.4140 -0.2360  0.1634
 3503POSM   PO441099  21.764  30.656   9.352 -0.1047 -0.0051 -0.1243
 3503POSM   AM141100  21.739  30.611   9.668 -0.0809  0.0391  0.0261
 3503POSM   AM241101  21.893  30.753   9.895  0.0441 -0.0298  0.1235
 3503POSM   T1A41102  21.421  30.492  10.049 -0.3131  0.0438 -0.1025
 3503POSM   C2A41103  21.244  30.509  10.457  0.1804  0.1200  0.0808
 3503POSM   C3A41104  20.885  30.638  10.674  0.1901  0.0548 -0.1941
 3503POSM   C1B41105  21.884  30.621  10.243 -0.1059 -0.0297 -0.0070
 3503POSM   D2B41106  21.709  30.323  10.575 -0.0550 -0.0912 -0.2462
 3503POSM   C3B41107  21.500  30.435  10.934 -0.3744  0.2384  0.3053
 3503POSM   C4B41108  21.046  30.377  11.061 -0.3258  0.2528  0.1933
 3504DOPC   NC341109  27.570  23.855   9.090  0.0849 -0.0899 -0.0905
 3504DOPC   PO441110  27.574  23.612   9.434  0.0136 -0.0512  0.2178
 3504DOPC   GL141111  27.534  23.627   9.913  0.1274 -0.2827  0.1160
 3504DOPC   GL241112  27.562  23.307   9.875  0.0599  0.1837 -0.2337
 3504DOPC   C1A41113  27.200  23.435  10.222 -0.1501 -0.1430 -0.0419
 3504DOPC   D2A41114  27.056  23.327  10.654 -0.3500 -0.2211 -0.0252
 3504DOPC   C3A41115  26.869  23.611  10.930  0.0388  0.3856  0.2561
 3504DOPC   C4A41116  26.711  24.063  10.826  0.1490  0.3968 -0.0655
 3504DOPC   C1B41117  27.852  23.455  10.174 -0.1902  0.1706 -0.1119
 3504DOPC   D2B41118  28.188  23.202  10.294 -0.3000 -0.0308 -0.0825
 3504DOPC   C3B41119  28.033  22.930  10.636 -0.2491  0.0839  0.3702
 3504DOPC   C4B41120  28.152  22.650  10.999  0.3719  0.2766 -0.0641
 3505DOPE   NH341121  27.934  29.302   8.822 -0.0268 -0.1221 -0.1287
 3505DOPE   PO441122  28.079  29.188   9.058  0.1160  0.3583  0.0696
 3505DOPE   GL141123  27.952  29.284   9.332 -0.0164  0.0320  0.2695
 3505DOPE   GL241124  27.705  29.427   9.326 -0.1007  0.1981 -0.0040
 3505DOPE   C1A41125  27.826  29.383   9.796 -0.2714  0.2888 -0.2062
 3505DOPE   D2A41126  27.956  29.469  10.250  0.0208  0.1691 -0.0290
 3505DOPE   C3A41127  27.606  29.406  10.520 -0.1418  0.0788 -0.2289
 3505DOPE   C4A41128  27.473  29.325  10.927 -0.3046 -0.0618 -0.1386
 3505DOPE   C1B41129  28.001  29.758   9.569  0.2561 -0.1317  0.0560
 3505DOPE   D2B41130  27.911  29.912  10.013  0.0270  0.1247 -0.0160
 3505DOPE   C3B41131  27.523  29.718  10.174  0.0638  0.0395  0.0632
 3505DOPE   C4B41132  27.368  29.279  10.064  0.0405  0.1932 -0.0456
 3506POSM   NC341133  23.181   1.132   9.218  0.1243 -0.0201 -0.0035
 3506POSM   PO441134  23.540   1.248   9.348  0.2310 -0.1381 -0.2321
 3506POSM   AM141135  23.568   1.319   9.668  0.0040 -0.1852 -0.0980
 3506POSM   AM241136  23.554   1.324   9.930  0.1621 -0.2043  0.2737
 3506POSM   T1A41137  23.945   1.599   9.919  0.2462 -0.1253  0.0641
 3506POSM   C2A41138  24.174   1.555  10.331  0.1118 -0.2655  0.1684
 3506POSM   C3A41139  24.339   1.445  10.725  0.1862  0.1907  0.1358
 3506POSM   C1B41140  23.732   1.172  10.183 -0.2727  0.0790 -0.0383
 3506POSM   D2B41141  24.109   1.092  10.470  0.0977  0.5281 -0.2434
 3506POSM   C3B41142  24.373   0.906  10.764  0.1836  0.0248  0.1702
 3506POSM   C4B41143  24.345   0.946  11.200 -0.0550  0.0587  0.0247
 3507POSM   NC341144  28.750  26.185   9.139 -0.1251  0.3646  0.2471
 3507POSM   PO441145  28.715  26.280   9.546 -0.2362 -0.0400 -0.1249
 3507POSM   AM141146  28.549  26.271   9.811  0.2332 -0.1673  0.2639
 3507POSM   AM241147  28.447  26.470   9.984 -0.1472 -0.2175  0.2409
 3507POSM   T1A41148  28.268  26.174  10.248  0.0453 -0.0630  0.0507
 3507POSM   C2A41149  27.937  26.220  10.599  0.3943  0.3450  0.0107
 3507POSM   C3A41150  27.649  26.078  10.926 -0.3681  0.2640 -0.1121
 3507POSM   C1B41151  28.402  26.646  10.280  0.1216  0.1273  0.3039
 3507POSM   D2B41152  28.386  26.704  10.727 -0.0744 -0.0022  0.3363
 3507POSM   C3B41153  28.154  26.926  11.041 -0.0130  0.2066  0.0248
 3507POSM   C4B41154  27.869  26.992  11.316 -0.1663 -0.2724 -0.1309
 3508DOPS   CNO41155  29.260  32.318   8.731  0.1448  0.0802  0.0075
 3508DOPS   PO441156  29.516  32.075   8.779 -0.2616  0.2348 -0.4347
 3508DOPS   GL141157  29.459  32.114   9.104  0.3437  0.1654  0.0088
 3508DOPS   GL241158  29.265  31.922   9.168  0.1340  0.1636  0.2168
 3508DOPS   C1A41159  29.673  31.996   9.530  0.0544  0.1739 -0.1439
 3508DOPS   D2A41160  29.813  31.678   9.846  0.2437 -0.0908 -0.1567
 3508DOPS   C3A41161  29.718  31.495  10.249  0.2313  0.0656 -0.1785
 3508DOPS   C4A41162  29.264  31.401  10.373  0.0290 -0.1659 -0.4322
 3508DOPS   C1B41163  29.147  32.243   9.433 -0.1850 -0.0099 -0.0381
 3508DOPS   D2B41164  28.856  32.465   9.771  0.0965  0.2373 -0.2102
 3508DOPS   C3B41165  29.108  32.379  10.113  0.0870  0.1465 -0.1810
 3508DOPS   C4B41166  29.374  32.190  10.435  0.0985 -0.1533 -0.1606
 3509DOPC   NC341167  27.083  33.732   8.826  0.2378 -0.0665 -0.0531
 3509DOPC   PO441168  27.388  33.478   8.780 -0.0132  0.0837 -0.0524
 3509DOPC   GL141169  27.494  33.420   9.228  0.2152 -0.2409 -0.1522
 3509DOPC   GL241170  27.490  33.168   9.149  0.3922  0.3192 -0.0421
 3509DOPC   C1A41171  27.920  33.321   9.318 -0.0424  0.0766 -0.1064
 3509DOPC   D2A41172  28.077  33.052   9.651 -0.3714 -0.2643 -0.2201
 3509DOPC   C3A41173  27.890  32.751   9.923 -0.0357  0.0188 -0.0089
 3509DOPC   C4A41174  27.713  32.338  10.053 -0.1843 -0.3447 -0.0064
 3509DOPC   C1B41175  27.133  33.136   9.478 -0.0315 -0.0739 -0.1405
 3509DOPC   D2B41176  27.039  33.081   9.930  0.0352  0.0991  0.1380
 3509DOPC   C3B41177  26.965  32.706  10.169 -0.2009  0.1263 -0.2808
 3509DOPC   C4B41178  26.949  32.570  10.605 -0.1941  0.0453  0.3450
 3510POSM   NC341179  26.764  32.125   8.946 -0.0773  0.1529  0.1353
 3510POSM   PO441180  26.519  31.967   8.646 -0.0644  0.2686 -0.1298
 3510POSM   AM141181  26.473  31.753   8.911  0.1219 -0.2515 -0.3732
 3510POSM   AM241182  26.667  31.651   9.041  0.0121 -0.2610  0.2087
 3510POSM   T1A41183  26.279  31.402   9.254  0.0793 -0.0825  0.0951
 3510POSM   C2A41184  25.893  31.135   9.355  0.1948 -0.1614  0.3054
 3510POSM   C3A41185  25.627  30.776   9.479  0.5391 -0.3469  0.2842
 3510POSM   C1B41186  26.823  31.786   9.355  0.2308 -0.0774  0.0869
 3510POSM   D2B41187  26.906  31.940   9.803  0.1764  0.2968 -0.1457
 3510POSM   C3B41188  26.708  31.722  10.171 -0.4445  0.1586  0.4179
 3510POSM   C4B41189  26.600  31.511  10.570 -0.1398  0.1037  0.1350
 3511DOPE   NH341190  28.201  28.004   9.142 -0.3489  0.0581 -0.0503
 3511DOPE   PO441191  28.056  27.753   9.010 -0.2753  0.0393 -0.0924
 3511DOPE   GL141192  28.070  27.619   9.447 -0.0894 -0.1816 -0.3892
 3511DOPE   GL241193  27.783  27.424   9.502  0.4693 -0.0069 -0.1681
 3511DOPE   C1A41194  28.233  27.529   9.877  0.0248  0.3042 -0.0794
 3511DOPE   D2A41195  28.145  27.606  10.288  0.3256 -0.1140 -0.1193
 3511DOPE   C3A41196  28.407  27.586  10.666 -0.1269 -0.1933 -0.2495
 3511DOPE   C4A41197  28.601  27.511  11.095 -0.0071  0.2344 -0.0753
 3511DOPE   C1B41198  27.475  27.415   9.871  0.0686 -0.1142 -0.0982
 3511DOPE   D2B41199  27.092  27.605  10.100  0.0731  0.2696 -0.2045
 3511DOPE   C3B41200  26.830  27.512  10.474 -0.2843  0.0171 -0.0969
 3511DOPE   C4B41201  26.661  27.489  10.886 -0.3987  0.1383 -0.3232
 3512POSM   NC341202  25.143  32.950   9.155 -0.5416 -0.0086  0.3861
 3512POSM   PO441203  25.219  33.348   9.181  0.3929  0.2419  0.0614
 3512POSM   AM141204  25.236  33.429   9.537  0.3990  0.2473 -0.0655
 3512POSM   AM241205  25.379  33.450   9.762  0.1314  0.1473 -0.3061
 3512POSM   T1A41206  24.938  33.446   9.995  0.1785  0.0307 -0.0826
 3512POSM   C2A41207  24.903  33.627  10.402 -0.2675  0.2525  0.1751
 3512POSM   C3A41208  24.541  33.664  10.675  0.1607 -0.0963 -0.0687
 3512POSM   C1B41209  25.423  33.423  10.083  0.1252  0.0919 -0.0734
 3512POSM   D2B41210  25.435  33.542  10.529  0.1704  0.1921  0.1843
 3512POSM   C3B41211  25.174  33.493  10.896  0.1495 -0.1517  0.0283
 3512POSM   C4B41212  24.746  33.357  11.023 -0.2051 -0.1162 -0.1196
 3513POSM   NC341213  27.053  32.799   8.521 -0.0235  0.1327  0.0272
 3513POSM   PO441214  26.965  32.517   8.750 -0.0925 -0.1089 -0.1322
 3513POSM   AM141215  27.004  32.497   9.081 -0.4013 -0.2092  0.0403
 3513POSM   AM241216  27.256  32.487   9.257  0.1120  0.2230 -0.2622
 3513POSM   T1A41217  26.899  32.718   9.518  0.0246 -0.2966  0.1150
 3513POSM   C2A41218  26.712  32.448   9.866  0.1720  0.2985 -0.2351
 3513POSM   C3A41219  26.473  32.329  10.134 -0.2591 -0.1065  0.2492
 3513POSM   C1B41220  27.198  32.206   9.439  0.0316  0.1677  0.1347
 3513POSM   D2B41221  27.452  31.879   9.716  0.1864  0.3793 -0.0324
 3513POSM   C3B41222  27.666  31.764  10.122  0.1907 -0.2021 -0.1251
 3513POSM   C4B41223  28.115  31.889  10.254  0.1278  0.1040  0.2815
 3514POSM   NC341224  26.650  31.494   8.455  0.0588  0.0501 -0.3217
 3514POSM   PO441225  26.831  31.258   8.725 -0.2750  0.2163 -0.0570
 3514POSM   AM141226  27.095  31.415   8.964  0.5458 -0.1128  0.0584
 3514POSM   AM241227  27.060  31.381   9.240 -0.0344  0.2993  0.0356
 3514POSM   T1A41228  27.292  31.872   9.064  0.0140  0.1787  0.1410
 3514POSM   C2A41229  27.662  32.057   9.242 -0.2610  0.2279 -0.0616
 3514POSM   C3A41230  28.017  32.364   9.331 -0.0065  0.1495 -0.0345
 3514POSM   C1B41231  27.296  31.349   9.496  0.0319  0.2729  0.2529
 3514POSM   D2B41232  27.565  31.330   9.876 -0.2145  0.1667 -0.2540
 3514POSM   C3B41233  27.529  31.246  10.351 -0.0738  0.0372  0.1011
 3514POSM   C4B41234  27.621  31.015  10.763 -0.2680 -0.0958  0.4607
 3515DOPS   CNO41235  31.543  26.145   9.406  0.1487 -0.2545  0.1997
 3515DOPS   PO441236  31.643  25.949   9.719  0.1740  0.0837  0.1014
 3515DOPS   GL141237  31.382  25.930  10.053 -0.0052 -0.1983  0.3390
 3515DOPS   GL241238  31.179  26.090   9.972 -0.0573 -0.0679 -0.0503
 3515DOPS   C1A41239  31.251  25.954  10.490  0.0065  0.0703 -0.0895
 3515DOPS   D2A41240  31.216  26.264  10.873  0.1068 -0.0404  0.2068
 3515DOPS   C3A41241  31.023  25.959  11.194  0.1258  0.1712  0.0265
 3515DOPS   C4A41242  31.241  25.542  11.176 -0.0881 -0.2198  0.0572
 3515DOPS   C1B41243  31.056  26.402  10.321  0.1485 -0.0046 -0.0092
 3515DOPS   D2B41244  31.185  26.759  10.509 -0.3901  0.1839 -0.3542
 3515DOPS   C3B41245  31.018  27.011  10.920  0.0443 -0.0580  0.0435
 3515DOPS   C4B41246  30.751  27.304  11.190 -0.0286 -0.0872 -0.1650
 3516POSM   NC341247  31.373  24.153   9.895 -0.1025 -0.2486  0.2182
 3516POSM   PO441248  31.727  24.177  10.054  0.3299  0.1807 -0.0020
 3516POSM   AM141249  31.807  24.366  10.331  0.1644 -0.2609 -0.0607
 3516POSM   AM241250  31.960  24.607  10.409  0.0037 -0.1391 -0.0711
 3516POSM   T1A41251  31.594  24.500  10.741  0.0204  0.1554 -0.1899
 3516POSM   C2A41252  31.548  24.302  11.117 -0.3141  0.0028  0.3047
 3516POSM   C3A41253  31.286  23.963  11.200  0.0950  0.0781 -0.1515
 3516POSM   C1B41254  32.036  24.760  10.726 -0.0554  0.0520  0.0747
 3516POSM   D2B41255  32.160  24.927  11.154  0.0273 -0.1042 -0.0076
 3516POSM   C3B41256  32.508  25.190  11.303  0.2396 -0.0500 -0.0473
 3516POSM   C4B41257  32.566  25.475  11.637  0.1682  0.3654 -0.3590
 3517DOPE   NH341258   0.611  25.562  10.264  0.0103 -0.0739 -0.1086
 3517DOPE   PO441259   0.697  25.873  10.196 -0.1057 -0.2596 -0.0591
 3517DOPE   GL141260   0.726  26.041  10.472  0.0231  0.0754  0.1239
 3517DOPE   GL241261   0.832  25.872  10.690 -0.2314  0.0204 -0.2967
 3517DOPE   C1A41262   0.552  26.266  10.836  0.4771 -0.0585  0.3857
 3517DOPE   D2A41263   0.345  26.269  11.242 -0.2431 -0.0502  0.0235
 3517DOPE   C3A41264   0.659  26.429  11.540 -0.0162  0.0006 -0.2812
 3517DOPE   C4A41265   1.031  26.191  11.705 -0.0610  0.3722  0.0777
 3517DOPE   C1B41266   0.850  25.571  11.087 -0.0885 -0.1902 -0.3394
 3517DOPE   D2B41267   1.202  25.605  11.373  0.0465  0.0062 -0.0439
 3517DOPE   C3B41268   1.237  25.303  11.715  0.1371  0.1518  0.1463
 3517DOPE   C4B41269   1.243  25.067  12.098 -0.1633 -0.0335  0.1250
 3518DOPE   NH341270  32.274  32.681   9.306 -0.2074  0.0198 -0.1913
 3518DOPE   PO441271  32.333  32.760   9.635  0.2985 -0.0421 -0.1015
 3518DOPE   GL141272  32.318  33.077   9.851 -0.0952 -0.0652  0.3193
 3518DOPE   GL241273  32.472  33.343   9.917  0.1986  0.3984  0.0880
 3518DOPE   C1A41274  32.186  33.070  10.268  0.0064  0.2780 -0.0363
 3518DOPE   D2A41275  32.287  33.251  10.691 -0.1963  0.2627 -0.0862
 3518DOPE   C3A41276  32.348  33.225  11.149  0.1603  0.0713  0.1400
 3518DOPE   C4A41277  32.586  33.586  11.300  0.1038  0.0660 -0.0139
 3518DOPE   C1B41278  32.241  33.557  10.304 -0.0092 -0.0918 -0.0613
 3518DOPE   D2B41279  32.073  33.823  10.703 -0.0312  0.0034  0.1003
 3518DOPE   C3B41280  32.098  33.697  11.138 -0.1088  0.2366 -0.2090
 3518DOPE   C4B41281  32.002  33.803  11.611  0.0673 -0.1148 -0.0390
 3519DOPE   NH341282  31.454  30.431   8.845 -0.0187  0.0187  0.2035
 3519DOPE   PO441283  31.255  30.231   8.938 -0.0469  0.3617 -0.0830
 3519DOPE   GL141284  30.993  30.184   9.203 -0.4492  0.0755  0.0083
 3519DOPE   GL241285  30.728  30.351   9.119  0.1203 -0.0475  0.1276
 3519DOPE   C1A41286  30.874  30.171   9.656 -0.2580  0.1774 -0.0164
 3519DOPE   D2A41287  30.903  30.255  10.110 -0.1891  0.0137  0.0258
 3519DOPE   C3A41288  30.633  30.493  10.352  0.2653  0.0291 -0.0494
 3519DOPE   C4A41289  30.320  30.690  10.620 -0.1386  0.1052 -0.0336
 3519DOPE   C1B41290  30.579  30.557   9.491 -0.3314  0.2175 -0.2994
 3519DOPE   D2B41291  30.577  30.630   9.902  0.0852 -0.0015  0.0176
 3519DOPE   C3B41292  30.254  30.860  10.106  0.0472 -0.0900  0.0096
 3519DOPE   C4B41293  29.849  31.010  10.300  0.1548  0.2420 -0.0799
 3520DOPE   NH341294  24.456  27.297   9.481  0.0261 -0.1015 -0.0483
 3520DOPE   PO441295  24.146  27.352   9.430 -0.1275 -0.3266 -0.2591
 3520DOPE   GL141296  24.228  27.475   9.862 -0.1926 -0.1537 -0.0076
 3520DOPE   GL241297  23.879  27.492   9.929 -0.0591  0.0294 -0.0912
 3520DOPE   C1A41298  24.480  27.580  10.268 -0.1075 -0.0880  0.3392
 3520DOPE   D2A41299  24.866  27.733  10.474 -0.0020  0.0763  0.1007
 3520DOPE   C3A41300  25.027  27.532  10.837  0.4922 -0.0035 -0.1271
 3520DOPE   C4A41301  25.419  27.488  11.060  0.0046 -0.1154 -0.0301
 3520DOPE   C1B41302  23.848  27.417  10.433  0.2093  0.0246  0.0121
 3520DOPE   D2B41303  23.971  27.361  10.889  0.0055 -0.1445 -0.1858
 3520DOPE   C3B41304  23.759  27.582  11.246  0.0005  0.1379  0.1958
 3520DOPE   C4B41305  23.885  27.491  11.687 -0.1285 -0.0452  0.0083
 3521POSM   NC341306  25.221  27.947   9.163 -0.7558 -0.0437 -0.1086
 3521POSM   PO441307  24.915  28.025   9.378 -0.0174  0.1639  0.2404
 3521POSM   AM141308  24.900  28.020   9.725 -0.4129 -0.1277 -0.0052
 3521POSM   AM241309  24.695  27.903   9.915 -0.2618  0.2560  0.1026
 3521POSM   T1A41310  25.169  28.021  10.134 -0.4206  0.2433 -0.0871
 3521POSM   C2A41311  25.305  27.967  10.571 -0.0641 -0.0978  0.2401
 3521POSM   C3A41312  25.024  28.058  10.957 -0.0611  0.2214 -0.0178
 3521POSM   C1B41313  24.614  28.103  10.183 -0.2446  0.0330  0.1218
 3521POSM   D2B41314  24.610  28.335  10.513 -0.2542  0.0338  0.1247
 3521POSM   C3B41315  24.458  28.311  10.984  0.4198  0.0338 -0.0320
 3521POSM   C4B41316  24.052  28.456  11.193  0.0840  0.1921  0.0479
 3522DOPC   NC341317  34.624  31.625   9.636  0.1839  0.6546  0.0112
 3522DOPC   PO441318  34.612  31.458   9.988 -0.0685  0.0269 -0.0080
 3522DOPC   GL141319  34.405  31.396  10.368  0.3209  0.0172 -0.0904
 3522DOPC   GL241320  34.347  31.723  10.485  0.1214  0.0767 -0.3487
 3522DOPC   C1A41321  34.389  30.935  10.542  0.1059 -0.1925 -0.2361
 3522DOPC   D2A41322  34.320  30.860  11.032  0.0448 -0.0613 -0.1282
 3522DOPC   C3A41323  33.903  31.024  11.242  0.1107 -0.0664  0.2013
 3522DOPC   C4A41324  33.564  31.265  11.322 -0.0264 -0.1418  0.1960
 3522DOPC   C1B41325  34.299  32.002  10.831  0.0858 -0.1573  0.0722
 3522DOPC   D2B41326  34.336  32.379  11.153  0.0500  0.2810 -0.0225
 3522DOPC   C3B41327  33.920  32.511  11.349  0.3778  0.0758 -0.1740
 3522DOPC   C4B41328  33.632  32.408  11.712 -0.0236  0.0149  0.0219
 3523DOPC   NC341329  29.135   2.656   9.673  0.1885  0.0371 -0.2266
 3523DOPC   PO441330  29.499   2.793   9.734 -0.2755  0.1983  0.0223
 3523DOPC   GL141331  29.370   2.722  10.107  0.4146 -0.0085 -0.2530
 3523DOPC   GL241332  29.470   2.991  10.178 -0.0903 -0.2874 -0.2899
 3523DOPC   C1A41333  29.395   2.311  10.345  0.0900  0.3210  0.0188
 3523DOPC   D2A41334  29.333   1.884  10.380 -0.0729 -0.1521 -0.0685
 3523DOPC   C3A41335  29.204   1.613  10.697 -0.0709  0.4418 -0.0916
 3523DOPC   C4A41336  29.147   1.297  11.127  0.0766  0.2395  0.0797
 3523DOPC   C1B41337  29.273   3.019  10.612  0.2898  0.2700 -0.0505
 3523DOPC   D2B41338  29.423   2.980  11.065  0.0473  0.2287  0.2031
 3523DOPC   C3B41339  29.312   3.345  11.351 -0.1465  0.1213  0.1312
 3523DOPC   C4B41340  29.282   3.766  11.354  0.1406  0.0742 -0.1316
 3524POSM   NC341341  23.690  29.829   9.379  0.2753  0.1245 -0.0463
 3524POSM   PO441342  24.032  29.663   9.477  0.1284  0.0614  0.2339
 3524POSM   AM141343  24.017  29.746   9.784 -0.5102 -0.0645 -0.0976
 3524POSM   AM241344  23.942  29.979   9.879  0.0535  0.0014  0.1450
 3524POSM   T1A41345  24.033  29.577  10.268 -0.1355  0.0995  0.2281
 3524POSM   C2A41346  24.234  29.799  10.645  0.1093 -0.0154  0.0700
 3524POSM   C3A41347  24.475  29.601  10.972  0.1080  0.0485 -0.1929
 3524POSM   C1B41348  24.053  30.114  10.179  0.1923 -0.3549  0.0758
 3524POSM   D2B41349  24.004  30.233  10.613 -0.0385 -0.2649 -0.0351
 3524POSM   C3B41350  23.979  30.484  10.993 -0.0810 -0.0430 -0.2040
 3524POSM   C4B41351  23.827  30.259  11.367 -0.0155  0.1576  0.1347
 3525POSM   NC341352  28.944  31.878   8.747 -0.0765  0.1550 -0.0140
 3525POSM   PO441353  29.138  31.537   8.876  0.1499  0.1110  0.2341
 3525POSM   AM141354  28.898  31.458   9.077  0.0772  0.2584  0.0975
 3525POSM   AM241355  28.777  31.661   9.262 -0.1642  0.1090 -0.1403
 3525POSM   T1A41356  28.574  31.146   9.324 -0.0128 -0.0538  0.0012
 3525POSM   C2A41357  28.587  31.083   9.740 -0.3914  0.0713  0.1878
 3525POSM   C3A41358  28.579  31.182  10.193  0.2214  0.0642 -0.0676
 3525POSM   C1B41359  28.803  31.475   9.572  0.0294  0.3727 -0.0957
 3525POSM   D2B41360  28.871  31.530  10.010  0.3364  0.1004 -0.1319
 3525POSM   C3B41361  28.568  31.662  10.328 -0.1143 -0.0705  0.1834
 3525POSM   C4B41362  28.329  31.523  10.687 -0.1249  0.1463 -0.0933
 3526DOPS   CNO41363  33.678  26.069   9.765 -0.0495 -0.0459  0.0080
 3526DOPS   PO441364  33.813  25.830  10.031 -0.1388 -0.1363 -0.0661
 3526DOPS   GL141365  33.731  25.859  10.431 -0.1207 -0.1579  0.1904
 3526DOPS   GL241366  33.997  25.987  10.561 -0.1304  0.0247 -0.1052
 3526DOPS   C1A41367  33.775  25.540  10.773 -0.0274  0.0146 -0.0566
 3526DOPS   D2A41368  33.616  25.180  10.987 -0.0336  0.2346  0.2838
 3526DOPS   C3A41369  33.421  25.233  11.414 -0.0350 -0.1746  0.0221
 3526DOPS   C4A41370  33.179  25.224  11.800 -0.1488  0.0802  0.0092
 3526DOPS   C1B41371  34.186  26.134  10.991  0.0470 -0.0511  0.3823
 3526DOPS   D2B41372  33.950  26.247  11.342  0.1045  0.0220  0.0660
 3526DOPS   C3B41373  33.825  26.314  11.778  0.2701  0.2151 -0.0968
 3526DOPS   C4B41374  33.972  26.241  12.217 -0.3483  0.2729  0.0429
 3527DOPE   NH341375  33.288  31.864   9.690 -0.3011  0.1740 -0.3768
 3527DOPE   PO441376  33.152  32.141   9.670  0.0442 -0.1481 -0.2570
 3527DOPE   GL141377  33.030  32.210  10.011 -0.0770  0.3272 -0.0960
 3527DOPE   GL241378  33.228  31.999  10.146  0.2080 -0.0219  0.1086
 3527DOPE   C1A41379  32.626  32.285  10.260 -0.0751 -0.0859  0.2560
 3527DOPE   D2A41380  32.383  32.308  10.657  0.0359 -0.1792  0.4616
 3527DOPE   C3A41381  32.498  32.068  10.974  0.2172 -0.2891 -0.0706
 3527DOPE   C4A41382  32.341  31.686  11.238  0.3520 -0.0176  0.1816
 3527DOPE   C1B41383  33.436  32.264  10.484 -0.5176 -0.2039  0.2306
 3527DOPE   D2B41384  33.504  32.785  10.591  0.0601  0.1212 -0.0249
 3527DOPE   C3B41385  33.181  32.927  10.838  0.1216  0.1214  0.2655
 3527DOPE   C4B41386  32.917  32.792  11.188 -0.1287  0.1567 -0.0241
 3528DOPC   NC341387  29.267  29.607   8.765 -0.2152  0.1631 -0.1940
 3528DOPC   PO441388  29.451  29.246   8.713  0.4364 -0.1438  0.2045
 3528DOPC   GL141389  29.433  29.214   9.144  0.0252 -0.0503  0.3351
 3528DOPC   GL241390  29.613  29.427   9.239 -0.1686  0.0050 -0.1203
 3528DOPC   C1A41391  29.535  28.968   9.495 -0.1942 -0.2032  0.2723
 3528DOPC   D2A41392  29.670  28.556   9.633  0.2071 -0.1694  0.4278
 3528DOPC   C3A41393  29.322  28.334   9.834  0.0457 -0.1034  0.5337
 3528DOPC   C4A41394  28.902  28.209   9.737  0.1816  0.0955  0.1161
 3528DOPC   C1B41395  29.383  29.788   9.297 -0.2427 -0.2146 -0.2580
 3528DOPC   D2B41396  29.427  29.938   9.756  0.3002  0.0698 -0.3642
 3528DOPC   C3B41397  29.361  29.692  10.137  0.3153 -0.0852  0.0088
 3528DOPC   C4B41398  29.394  29.413  10.525  0.4079 -0.1252  0.0719
 3529DOPC   NC341399  27.809  33.683   8.979 -0.2825  0.1602  0.2408
 3529DOPC   PO441400  28.203  33.859   9.015  0.0070  0.3974 -0.2096
 3529DOPC   GL141401  28.486  33.696   9.271 -0.1612  0.0195  0.5676
 3529DOPC   GL241402  28.604  33.461   9.147  0.2585  0.0797 -0.2463
 3529DOPC   C1A41403  28.372  33.441   9.617  0.1429  0.0240 -0.0428
 3529DOPC   D2A41404  28.140  33.458   9.926 -0.1644 -0.0916 -0.0213
 3529DOPC   C3A41405  27.953  33.134  10.207  0.3200 -0.0349  0.0529
 3529DOPC   C4A41406  27.856  32.898  10.544 -0.0946  0.1988 -0.2616
 3529DOPC   C1B41407  28.703  33.104   9.371 -0.1574  0.0764  0.0356
 3529DOPC   D2B41408  28.479  32.774   9.618 -0.0801 -0.0511 -0.0614
 3529DOPC   C3B41409  28.403  32.671  10.081 -0.0291 -0.0414 -0.1562
 3529DOPC   C4B41410  28.109  32.474  10.374  0.0188  0.0296 -0.1135
 3530DOPC   NC341411  28.163   1.146   9.479  0.1995  0.3125 -0.0110
 3530DOPC   PO441412  27.861   1.413   9.493  0.0859 -0.1314  0.2306
 3530DOPC   GL141413  27.861   1.632   9.789  0.4513  0.3296  0.0274
 3530DOPC   GL241414  27.550   1.639   9.821 -0.1393  0.1614  0.1480
 3530DOPC   C1A41415  27.891   1.479  10.233  0.0343 -0.1293 -0.2264
 3530DOPC   D2A41416  27.844   1.751  10.576  0.2005 -0.0088  0.2665
 3530DOPC   C3A41417  27.859   1.514  10.936 -0.1558  0.0901  0.0474
 3530DOPC   C4A41418  27.732   1.275  11.304 -0.1064  0.0117 -0.1047
 3530DOPC   C1B41419  27.362   1.770  10.231 -0.1235  0.2663  0.1625
 3530DOPC   D2B41420  27.351   1.787  10.699 -0.2181 -0.1099  0.2668
 3530DOPC   C3B41421  27.074   2.030  10.997  0.1859 -0.2303 -0.0281
 3530DOPC   C4B41422  26.925   2.406  10.979  0.2199 -0.0100 -0.0702
 3531DOPE   NH341423  30.530  24.224   9.641 -0.0996 -0.1647  0.0481
 3531DOPE   PO441424  30.262  24.194   9.789 -0.1168  0.1341 -0.2126
 3531DOPE   GL141425  30.214  24.450  10.224 -0.2489  0.2156 -0.2472
 3531DOPE   GL241426  30.139  24.237  10.370 -0.1093 -0.1891 -0.0808
 3531DOPE   C1A41427  30.525  24.436  10.606 -0.1841  0.0014  0.0488
 3531DOPE   D2A41428  30.479  24.274  11.031 -0.1165 -0.0406  0.1656
 3531DOPE   C3A41429  30.146  24.173  11.357 -0.1734 -0.2387 -0.1095
 3531DOPE   C4A41430  30.094  24.196  11.818  0.2214  0.0874 -0.3665
 3531DOPE   C1B41431  30.050  24.235  10.835 -0.0377  0.0491 -0.0138
 3531DOPE   D2B41432  29.625  24.183  11.060 -0.1012  0.0601  0.1129
 3531DOPE   C3B41433  29.689  24.215  11.507 -0.0802  0.1329 -0.0079
 3531DOPE   C4B41434  29.485  24.325  11.868 -0.2791  0.1829  0.2322
 3532DOPC   NC341435  32.734  32.464   9.542 -0.1710  0.0355 -0.0583
 3532DOPC   PO441436  32.420  32.248   9.512  0.4001  0.0281 -0.0699
 3532DOPC   GL141437  32.370  32.312   9.894  0.0664 -0.2088  0.2477
 3532DOPC   GL241438  32.090  32.441   9.982  0.2776 -0.1482 -0.1330
 3532DOPC   C1A41439  32.208  32.025  10.268  0.0613  0.2741  0.2082
 3532DOPC   D2A41440  32.256  31.754  10.641 -0.5937 -0.0640 -0.0916
 3532DOPC   C3A41441  32.654  31.592  10.881  0.0489 -0.1186  0.0600
 3532DOPC   C4A41442  32.702  31.248  11.174  0.3189  0.0878  0.3639
 3532DOPC   C1B41443  32.050  32.551  10.436 -0.0707  0.2107 -0.1745
 3532DOPC   D2B41444  32.155  32.735  10.822 -0.2995  0.1011  0.0486
 3532DOPC   C3B41445  32.074  32.351  11.057 -0.1624  0.3313  0.2535
 3532DOPC   C4B41446  32.055  32.059  11.456  0.2157  0.0723 -0.1844
 3533POSM   NC341447  25.945  28.827   9.490 -0.0992 -0.3054 -0.0029
 3533POSM   PO441448  26.286  28.762   9.266  0.0002 -0.2011 -0.0866
 3533POSM   AM141449  26.426  28.735   9.570  0.0129  0.0266  0.3093
 3533POSM   AM241450  26.386  28.548   9.762 -0.0344 -0.2450  0.0069
 3533POSM   T1A41451  26.676  28.943  10.001  0.0021 -0.0056  0.0574
 3533POSM   C2A41452  27.078  28.959  10.271 -0.1453  0.2474 -0.1149
 3533POSM   C3A41453  27.380  28.902  10.589 -0.3142 -0.1157  0.1534
 3533POSM   C1B41454  26.483  28.542  10.090 -0.0328  0.3566  0.2238
 3533POSM   D2B41455  26.797  28.511  10.400 -0.2837 -0.1252  0.4736
 3533POSM   C3B41456  26.639  28.671  10.828 -0.1202 -0.1398  0.1200
 3533POSM   C4B41457  26.779  28.731  11.243 -0.1575  0.0494 -0.0206
 3534DOPS   CNO41458  30.224  21.908   9.776  0.0749 -0.3031 -0.4786
 3534DOPS   PO441459  30.153  21.889  10.153 -0.1203 -0.0925 -0.1093
 3534DOPS   GL141460  30.057  21.787  10.513 -0.1346 -0.0442  0.0407
 3534DOPS   GL241461  29.785  21.664  10.543 -0.1913 -0.2995  0.2401
 3534DOPS   C1A41462  30.039  21.862  10.979  0.1842 -0.2661  0.0741
 3534DOPS   D2A41463  29.889  22.139  11.348 -0.0798 -0.0619 -0.0762
 3534DOPS   C3A41464  29.978  22.111  11.757 -0.1784 -0.0705 -0.4004
 3534DOPS   C4A41465  29.974  21.967  12.147  0.0533 -0.0127 -0.0613
 3534DOPS   C1B41466  29.843  21.388  10.947  0.1587 -0.0209  0.1119
 3534DOPS   D2B41467  29.597  21.189  11.319  0.0634 -0.2350  0.0967
 3534DOPS   C3B41468  29.428  21.012  11.697 -0.1210  0.0046 -0.0436
 3534DOPS   C4B41469  29.394  20.630  11.966  0.0228 -0.0511  0.3164
 3535DOPE   NH341470  23.976  28.759   9.385 -0.2579  0.0396  0.0111
 3535DOPE   PO441471  24.273  28.715   9.536 -0.0609 -0.2456  0.0542
 3535DOPE   GL141472  24.138  28.710   9.850 -0.1675  0.2049 -0.0538
 3535DOPE   GL241473  24.324  28.636  10.013  0.1164 -0.2046  0.1706
 3535DOPE   C1A41474  23.983  29.036  10.170  0.0453 -0.1148 -0.2354
 3535DOPE   D2A41475  23.773  29.224  10.517 -0.0487  0.1598 -0.2243
 3535DOPE   C3A41476  23.607  29.627  10.570 -0.0269 -0.0404 -0.0968
 3535DOPE   C4A41477  23.545  30.086  10.484  0.0071  0.3927 -0.0851
 3535DOPE   C1B41478  24.319  28.699  10.446 -0.0555  0.0399  0.2713
 3535DOPE   D2B41479  24.274  28.799  10.940  0.0886  0.0515 -0.0678
 3535DOPE   C3B41480  24.485  28.704  11.373  0.1877 -0.0036 -0.2266
 3535DOPE   C4B41481  24.705  28.564  11.775  0.1207 -0.0646 -0.1421
 3536POSM   NC341482  23.304  28.273   9.297  0.2570 -0.0758 -0.1087
 3536POSM   PO441483  23.523  28.594   9.306 -0.1645 -0.4807 -0.3434
 3536POSM   AM141484  23.558  28.480   9.598 -0.1623  0.0829 -0.5024
 3536POSM   AM241485  23.488  28.275   9.803  0.2063 -0.0188 -0.3505
 3536POSM   T1A41486  23.771  28.548  10.069 -0.1060 -0.0830 -0.0956
 3536POSM   C2A41487  23.798  28.713  10.531 -0.1799 -0.3436  0.1407
 3536POSM   C3A41488  23.707  28.881  10.928 -0.3099 -0.2473 -0.3505
 3536POSM   C1B41489  23.716  28.066   9.899  0.0901 -0.1297 -0.1089
 3536POSM   D2B41490  23.748  27.955  10.278  0.1337  0.1091  0.2652
 3536POSM   C3B41491  24.101  27.863  10.551 -0.1509  0.1182  0.1083
 3536POSM   C4B41492  24.439  27.857  10.784 -0.2172  0.0757  0.3515
 3537DOPC   NC341493  29.179  28.926   8.892  0.0748 -0.2343  0.1718
 3537DOPC   PO441494  28.922  29.015   9.138  0.0226 -0.2139 -0.3973
 3537DOPC   GL141495  28.862  28.773   9.374  0.2317  0.1571 -0.2645
 3537DOPC   GL241496  29.094  28.633   9.457 -0.1801 -0.2406  0.1182
 3537DOPC   C1A41497  28.534  28.677   9.698 -0.4261 -0.0168  0.1273
 3537DOPC   D2A41498  28.608  28.401  10.053 -0.0636  0.0064  0.1660
 3537DOPC   C3A41499  28.286  28.168  10.224 -0.0543 -0.1728  0.2301
 3537DOPC   C4A41500  27.966  27.993  10.521 -0.0762 -0.1341  0.0166
 3537DOPC   C1B41501  29.181  28.810   9.838  0.0087 -0.2565  0.0296
 3537DOPC   D2B41502  29.253  29.154  10.123 -0.1162 -0.0645 -0.4593
 3537DOPC   C3B41503  28.886  29.359  10.331 -0.3650  0.1970 -0.2183
 3537DOPC   C4B41504  28.459  29.163  10.391  0.2879  0.0517  0.1165
 3538DOPS   CNO41505  24.383  25.331   9.656  0.2997  0.0294 -0.0625
 3538DOPS   PO441506  24.720  25.465   9.583  0.0634  0.0731 -0.0455
 3538DOPS   GL141507  24.590  25.467  10.044 -0.0491  0.0606  0.0477
 3538DOPS   GL241508  24.600  25.758  10.081 -0.1200  0.1795 -0.3574
 3538DOPS   C1A41509  24.705  25.511  10.498  0.0560  0.0861  0.0366
 3538DOPS   D2A41510  24.702  25.194  10.845  0.3254  0.1365 -0.0091
 3538DOPS   C3A41511  24.379  24.978  11.053  0.0317 -0.4940 -0.1499
 3538DOPS   C4A41512  24.394  24.524  11.277  0.1742 -0.0395  0.0757
 3538DOPS   C1B41513  24.355  25.827  10.468  0.1422 -0.3371 -0.2282
 3538DOPS   D2B41514  24.186  25.975  10.841  0.3057  0.1029  0.3735
 3538DOPS   C3B41515  24.374  26.270  11.097 -0.1591  0.1070  0.0134
 3538DOPS   C4B41516  24.103  26.627  11.310  0.0671  0.2327 -0.1009
 3539DOPC   NC341517  26.199  27.067   8.907  0.0668 -0.2252 -0.2493
 3539DOPC   PO441518  25.964  27.060   9.188  0.1566 -0.0450  0.0957
 3539DOPC   GL141519  26.005  26.784   9.476 -0.1940  0.3284  0.0918
 3539DOPC   GL241520  25.772  26.601   9.491 -0.1825  0.2529 -0.0020
 3539DOPC   C1A41521  26.179  26.621   9.886 -0.3012 -0.2778 -0.2782
 3539DOPC   D2A41522  25.957  26.314  10.186  0.2379  0.1106 -0.2311
 3539DOPC   C3A41523  25.919  26.379  10.653 -0.0404  0.3310 -0.0478
 3539DOPC   C4A41524  25.685  26.509  11.025  0.0932 -0.0805 -0.1172
 3539DOPC   C1B41525  25.724  26.801   9.885 -0.1765 -0.0010 -0.0675
 3539DOPC   D2B41526  25.742  26.736  10.357  0.0822  0.1098  0.0302
 3539DOPC   C3B41527  25.714  27.109  10.690 -0.2698  0.0442 -0.0755
 3539DOPC   C4B41528  25.830  27.126  11.130  0.1741 -0.4138 -0.3552
 3540DOPC   NC341529  29.577  22.846  10.016 -0.0282  0.3001 -0.0252
 3540DOPC   PO441530  29.278  23.081  10.125 -0.0916  0.1264 -0.0680
 3540DOPC   GL141531  29.228  23.112  10.459  0.0219  0.0824  0.0146
 3540DOPC   GL241532  29.087  23.251  10.638  0.1624 -0.0601  0.2019
 3540DOPC   C1A41533  29.062  22.846  10.851  0.0561  0.0248 -0.3717
 3540DOPC   D2A41534  28.699  22.985  11.103  0.2026 -0.0070  0.0838
 3540DOPC   C3A41535  28.760  22.782  11.512 -0.0568 -0.2349  0.1721
 3540DOPC   C4A41536  28.450  22.630  11.753  0.1091  0.0346  0.1174
 3540DOPC   C1B41537  28.880  23.593  10.840  0.0728 -0.0856 -0.3470
 3540DOPC   D2B41538  28.654  23.595  11.242 -0.2188  0.0406  0.0257
 3540DOPC   C3B41539  28.667  23.300  11.592 -0.0521 -0.1015 -0.1208
 3540DOPC   C4B41540  28.748  23.105  11.999 -0.4397 -0.0770 -0.1563
 3541DOPE   NH341541  29.322  26.494   9.003  0.3982  0.1310  0.2013
 3541DOPE   PO441542  29.134  26.466   9.283  0.0839  0.0407 -0.1459
 3541DOPE   GL141543  29.100  26.521   9.711 -0.1249 -0.0866 -0.3126
 3541DOPE   GL241544  29.107  26.358   9.921  0.0686 -0.1199  0.0266
 3541DOPE   C1A41545  28.921  26.851  10.009  0.0057  0.1085  0.1583
 3541DOPE   D2A41546  29.097  26.971  10.421  0.2467  0.0643 -0.0703
 3541DOPE   C3A41547  28.667  27.135  10.680  0.3195 -0.4219  0.0002
 3541DOPE   C4A41548  28.221  27.127  10.511  0.3529  0.1889  0.1442
 3541DOPE   C1B41549  28.880  26.425  10.306 -0.0533  0.2902  0.1727
 3541DOPE   D2B41550  29.060  26.487  10.751  0.1055  0.0199  0.1481
 3541DOPE   C3B41551  28.933  26.840  10.985  0.1885 -0.1551  0.0145
 3541DOPE   C4B41552  28.808  27.145  11.348 -0.0507  0.3964 -0.0094
 3542DOPC   NC341553  26.717  25.498   9.641  0.0855 -0.1557 -0.2112
 3542DOPC   PO441554  26.906  25.316   9.366 -0.0340 -0.2148  0.1146
 3542DOPC   GL141555  27.205  25.307   9.615 -0.1179 -0.2466  0.3595
 3542DOPC   GL241556  27.207  25.429   9.840  0.0294  0.0198  0.0824
 3542DOPC   C1A41557  27.414  25.006   9.960 -0.1127  0.0985  0.1678
 3542DOPC   D2A41558  27.775  24.956  10.214 -0.2134  0.3432 -0.3408
 3542DOPC   C3A41559  28.046  25.292  10.354  0.1136 -0.2475 -0.0648
 3542DOPC   C4A41560  28.412  25.504  10.472 -0.1818 -0.1671  0.0187
 3542DOPC   C1B41561  27.053  25.621  10.189 -0.5888 -0.0557 -0.1043
 3542DOPC   D2B41562  26.879  25.977  10.439 -0.0357 -0.0025 -0.1016
 3542DOPC   C3B41563  27.154  26.182  10.772  0.2142  0.3750  0.0222
 3542DOPC   C4B41564  27.240  26.267  11.181 -0.1185 -0.1707 -0.1315
 3543DOPC   NC341565  28.715   0.532   9.346 -0.0145  0.0632  0.4006
 3543DOPC   PO441566  28.481   0.827   9.337 -0.1090 -0.1762 -0.0357
 3543DOPC   GL141567  28.447   0.591   9.726 -0.1142 -0.4618 -0.0583
 3543DOPC   GL241568  28.589   0.781   9.883  0.1938  0.1208  0.0606
 3543DOPC   C1A41569  28.684   0.317  10.046 -0.1770  0.1524 -0.1445
 3543DOPC   D2A41570  28.898   0.050  10.363  0.1580 -0.0135 -0.1355
 3543DOPC   C3A41571  29.266  -0.011  10.646 -0.0101  0.0416 -0.2467
 3543DOPC   C4A41572  29.684  -0.026  10.830  0.1164 -0.0179  0.0684
 3543DOPC   C1B41573  28.833   1.132  10.024  0.0386  0.0134  0.0206
 3543DOPC   D2B41574  28.971   1.355  10.351 -0.1423 -0.0523 -0.1526
 3543DOPC   C3B41575  28.773   1.390  10.839  0.0230 -0.6549 -0.1280
 3543DOPC   C4B41576  28.450   1.264  11.149 -0.6258  0.3528 -0.2166
 3544POSM   NC341577  30.374   2.527  10.138  0.0687 -0.0634  0.0708
 3544POSM   PO441578  30.302   2.854   9.953 -0.1918 -0.2614  0.1054
 3544POSM   AM141579  30.068   2.916  10.185 -0.2336  0.1780 -0.6289
 3544POSM   AM241580  29.953   3.117  10.372  0.5110 -0.1715  0.0248
 3544POSM   T1A41581  29.742   2.742  10.544  0.0101  0.1341  0.1982
 3544POSM   C2A41582  29.645   2.529  10.959 -0.0057  0.1077 -0.2858
 3544POSM   C3A41583  29.693   2.296  11.352  0.1743 -0.1517 -0.1771
 3544POSM   C1B41584  30.214   3.150  10.604  0.0633  0.1154 -0.2002
 3544POSM   D2B41585  30.655   3.175  10.762  0.1681 -0.2915 -0.0914
 3544POSM   C3B41586  30.753   2.801  10.992  0.3379 -0.0090  0.1866
 3544POSM   C4B41587  30.648   2.796  11.461 -0.2033 -0.0644 -0.0491
 3545DOPE   NH341588  28.058  28.743   8.841  0.2808  0.3209 -0.2928
 3545DOPE   PO441589  28.083  28.469   8.996  0.0239  0.0446 -0.1798
 3545DOPE   GL141590  27.965  28.352   9.386  0.0645 -0.0164 -0.2055
 3545DOPE   GL241591  27.695  28.447   9.518 -0.0187 -0.0006 -0.0610
 3545DOPE   C1A41592  28.104  28.494   9.823  0.2520 -0.3402  0.0502
 3545DOPE   D2A41593  28.259  28.796  10.117  0.0730 -0.1284 -0.2994
 3545DOPE   C3A41594  28.397  28.546  10.532 -0.3083 -0.0993  0.0949
 3545DOPE   C4A41595  28.458  28.646  10.994 -0.1814  0.3041 -0.1071
 3545DOPE   C1B41596  27.655  28.316   9.940  0.0951  0.0939 -0.0639
 3545DOPE   D2B41597  27.850  28.473  10.313  0.2786 -0.0393  0.1768
 3545DOPE   C3B41598  27.852  28.568  10.800 -0.0405 -0.0994  0.0832
 3545DOPE   C4B41599  28.006  28.664  11.264  0.1090  0.0230 -0.1139
 3546DOPS   CNO41600  28.396  27.444   8.941 -0.1289  0.0632 -0.1200
 3546DOPS   PO441601  28.463  27.589   9.309 -0.0733  0.0350 -0.3488
 3546DOPS   GL141602  28.812  27.630   9.465 -0.1209 -0.2182 -0.0031
 3546DOPS   GL241603  28.931  27.682   9.790 -0.1522  0.0288  0.1422
 3546DOPS   C1A41604  28.975  27.207   9.602 -0.0049 -0.1609  0.0417
 3546DOPS   D2A41605  29.319  26.908   9.625  0.2831  0.1871  0.0659
 3546DOPS   C3A41606  29.434  26.798  10.045 -0.1085  0.0143 -0.3575
 3546DOPS   C4A41607  29.420  26.507  10.396 -0.2491 -0.0382  0.1084
 3546DOPS   C1B41608  28.667  27.873  10.097 -0.1950 -0.0572  0.5597
 3546DOPS   D2B41609  28.739  28.123  10.546  0.0571  0.2486  0.1343
 3546DOPS   C3B41610  29.201  28.230  10.746 -0.0286  0.0299 -0.1482
 3546DOPS   C4B41611  29.343  28.124  11.196 -0.1209  0.1486 -0.1755
 3547DOPC   NC341612  28.622   2.411   9.870  0.1009  0.1541 -0.2422
 3547DOPC   PO441613  28.744   2.820   9.889  0.0670  0.1203 -0.2985
 3547DOPC   GL141614  28.706   2.826  10.242  0.0542 -0.1819 -0.4529
 3547DOPC   GL241615  28.997   2.689  10.337 -0.3005 -0.0706 -0.0998
 3547DOPC   C1A41616  28.552   2.517  10.535  0.3359 -0.1662  0.1900
 3547DOPC   D2A41617  28.309   2.338  10.833  0.3088  0.2805 -0.0185
 3547DOPC   C3A41618  27.934   2.196  10.906 -0.0697  0.0248  0.1937
 3547DOPC   C4A41619  27.580   1.986  11.157 -0.0487  0.2220  0.1037
 3547DOPC   C1B41620  29.174   2.540  10.755  0.2927  0.1417  0.1255
 3547DOPC   D2B41621  29.198   2.564  11.233 -0.3525 -0.0281 -0.2717
 3547DOPC   C3B41622  29.327   2.858  11.592 -0.2705 -0.2073 -0.0073
 3547DOPC   C4B41623  29.151   2.772  12.008 -0.2592 -0.1041  0.0135
 3548DOPE   NH341624  25.269  26.591   9.549 -0.1254 -0.1008  0.2677
 3548DOPE   PO441625  25.389  26.294   9.491  0.3104 -0.0803  0.1579
 3548DOPE   GL141626  25.452  26.133   9.869 -0.1942  0.1467 -0.2233
 3548DOPE   GL241627  25.458  26.399  10.010 -0.0079  0.2579  0.0826
 3548DOPE   C1A41628  25.451  25.934  10.273  0.2914  0.4103 -0.0856
 3548DOPE   D2A41629  25.183  25.690  10.562 -0.1462 -0.1436 -0.3300
 3548DOPE   C3A41630  25.143  26.045  10.865 -0.2024  0.2912 -0.0680
 3548DOPE   C4A41631  24.942  26.305  11.154  0.0251  0.0059 -0.2232
 3548DOPE   C1B41632  25.389  26.395  10.481 -0.1085  0.0253  0.1243
 3548DOPE   D2B41633  25.156  26.628  10.737  0.2600 -0.0401  0.3553
 3548DOPE   C3B41634  25.362  26.946  11.037 -0.0834 -0.1653  0.1428
 3548DOPE   C4B41635  25.294  27.157  11.387 -0.0575 -0.1315  0.2287
 3549DOPE   NH341636  27.602  28.610   9.028  0.2798  0.0695 -0.1726
 3549DOPE   PO441637  27.640  28.956   9.016 -0.0527 -0.0220  0.1114
 3549DOPE   GL141638  27.790  28.888   9.373 -0.0933  0.0295  0.2455
 3549DOPE   GL241639  28.076  28.809   9.408  0.3190  0.1325  0.2108
 3549DOPE   C1A41640  27.654  28.849   9.818 -0.0919  0.0263 -0.0186
 3549DOPE   D2A41641  27.745  28.984  10.254  0.0961  0.1045 -0.2105
 3549DOPE   C3A41642  28.040  29.141  10.619 -0.2153 -0.4179 -0.2186
 3549DOPE   C4A41643  27.930  29.326  11.029 -0.2944  0.2452  0.2506
 3549DOPE   C1B41644  28.241  29.123   9.702 -0.1194  0.2852  0.0505
 3549DOPE   D2B41645  28.351  29.460   9.944 -0.2261 -0.1933 -0.0111
 3549DOPE   C3B41646  28.439  29.873   9.742  0.2264  0.1013  0.3843
 3549DOPE   C4B41647  28.603  30.191   9.974  0.0320  0.0207  0.2307
 3550POSM   NC341648  32.455  30.296   9.040  0.0979 -0.0193 -0.0816
 3550POSM   PO441649  32.256  30.576   9.234 -0.0917  0.2183 -0.0086
 3550POSM   AM141650  32.180  30.460   9.526  0.1967  0.2872  0.0682
 3550POSM   AM241651  32.100  30.555   9.752 -0.3222 -0.0890 -0.0105
 3550POSM   T1A41652  31.812  30.144   9.747  0.0141  0.0349  0.0088
 3550POSM   C2A41653  31.472  29.813   9.729  0.1460 -0.0725 -0.0413
 3550POSM   C3A41654  31.021  29.672   9.636 -0.1835  0.3744 -0.1964
 3550POSM   C1B41655  32.162  30.519  10.103 -0.0947  0.1228  0.1531
 3550POSM   D2B41656  32.155  30.498  10.538 -0.2428 -0.1984 -0.2751
 3550POSM   C3B41657  32.111  30.395  11.012  0.1447 -0.1588  0.1192
 3550POSM   C4B41658  32.462  30.494  11.344  0.1600  0.0500  0.2183
 3551POSM   NC341659  33.330  33.894   9.758 -0.0422  0.3075  0.1888
 3551POSM   PO441660  33.375  33.547   9.576  0.0943 -0.0453  0.0051
 3551POSM   AM141661  33.420  33.446   9.899 -0.1406  0.2402 -0.2164
 3551POSM   AM241662  33.481  33.541  10.151 -0.3984 -0.2357 -0.2281
 3551POSM   T1A41663  33.638  33.065  10.169  0.0503  0.0693 -0.1466
 3551POSM   C2A41664  33.903  32.655  10.350 -0.1764 -0.0900 -0.0548
 3551POSM   C3A41665  33.923  32.444  10.784 -0.0373  0.0777  0.1419
 3551POSM   C1B41666  33.190  33.769  10.274  0.0845 -0.2677 -0.1715
 3551POSM   D2B41667  32.823  33.945  10.460 -0.1401 -0.3716  0.0390
 3551POSM   C3B41668  32.568  33.905  10.078  0.1059  0.1424 -0.1628
 3551POSM   C4B41669  32.650  33.916   9.664 -0.0924  0.0965  0.0601
 3552DOPC   NC341670  22.421  29.689   9.453  0.1627  0.1847 -0.0265
 3552DOPC   PO441671  22.777  29.753   9.311  0.1588 -0.0991  0.5049
 3552DOPC   GL141672  22.896  29.550   9.632  0.1370 -0.1718 -0.0923
 3552DOPC   GL241673  23.022  29.624   9.797 -0.2894 -0.0892  0.1418
 3552DOPC   C1A41674  22.580  29.551   9.960 -0.1995  0.0608 -0.0363
 3552DOPC   D2A41675  22.515  29.754  10.360  0.2927  0.0956  0.2380
 3552DOPC   C3A41676  22.606  30.117  10.640  0.2780 -0.1712 -0.1701
 3552DOPC   C4A41677  22.940  30.240  10.869  0.0594 -0.0514 -0.1546
 3552DOPC   C1B41678  23.079  29.426  10.213 -0.2938  0.1263  0.3528
 3552DOPC   D2B41679  23.257  29.260  10.606 -0.2952  0.1817 -0.3891
 3552DOPC   C3B41680  23.418  29.414  11.007  0.2110  0.0545 -0.1570
 3552DOPC   C4B41681  23.704  29.253  11.355  0.2191 -0.2558 -0.1872
 3553DOPC   NC341682  26.140   1.842   8.991 -0.0069  0.1928  0.0422
 3553DOPC   PO441683  26.184   1.608   9.310 -0.3584 -0.1524  0.1394
 3553DOPC   GL141684  26.443   1.525   9.616 -0.0869  0.1165 -0.0622
 3553DOPC   GL241685  26.252   1.422   9.887 -0.0334  0.0748 -0.0782
 3553DOPC   C1A41686  26.628   1.825   9.942  0.1386  0.3313  0.1706
 3553DOPC   D2A41687  26.937   2.007  10.177  0.1418 -0.0156  0.0510
 3553DOPC   C3A41688  27.125   2.228  10.506  0.2674  0.2674  0.1037
 3553DOPC   C4A41689  27.412   2.353  10.824 -0.0742  0.0496 -0.1411
 3553DOPC   C1B41690  25.821   1.311  10.055  0.2258 -0.1369 -0.2314
 3553DOPC   D2B41691  25.656   1.150  10.422 -0.0869  0.2445 -0.1285
 3553DOPC   C3B41692  25.971   1.108  10.731  0.0444 -0.1597 -0.0453
 3553DOPC   C4B41693  26.017   1.321  11.166 -0.1090 -0.1212  0.0828
 3554DOPC   NC341694  31.802  32.428   9.556  0.0995  0.0871  0.1570
 3554DOPC   PO441695  31.766  32.846   9.454  0.0481  0.0804  0.1819
 3554DOPC   GL141696  31.667  33.197   9.697 -0.1076 -0.2210  0.2689
 3554DOPC   GL241697  31.787  33.004   9.900 -0.3901 -0.2062 -0.2661
 3554DOPC   C1A41698  31.306  33.182   9.990 -0.1605 -0.1640  0.0326
 3554DOPC   D2A41699  31.090  32.864  10.236  0.1577 -0.1213  0.2948
 3554DOPC   C3A41700  30.711  32.673  10.413  0.1562 -0.1279 -0.1717
 3554DOPC   C4A41701  30.243  32.636  10.583  0.0607  0.3788 -0.2116
 3554DOPC   C1B41702  31.641  32.960  10.315 -0.2230 -0.3480 -0.1664
 3554DOPC   D2B41703  31.457  33.002  10.769 -0.1671  0.0986  0.2528
 3554DOPC   C3B41704  31.135  32.681  10.734  0.3290 -0.1419 -0.2593
 3554DOPC   C4B41705  30.815  32.528  11.032  0.0217 -0.0127 -0.2519
 3555POSM   NC341706  27.332  27.341   9.352 -0.1151  0.0213 -0.2733
 3555POSM   PO441707  27.054  27.498   9.166 -0.0790  0.0566  0.0373
 3555POSM   AM141708  27.210  27.775   9.317  0.1796  0.0968  0.4883
 3555POSM   AM241709  27.499  27.831   9.334 -0.0595  0.0553  0.3189
 3555POSM   T1A41710  27.246  27.998   9.790  0.0440 -0.0066  0.0355
 3555POSM   C2A41711  27.369  28.018  10.216  0.2348 -0.3052  0.0140
 3555POSM   C3A41712  27.301  27.763  10.605 -0.1599 -0.2912  0.1983
 3555POSM   C1B41713  27.707  27.924   9.551 -0.0696 -0.0254  0.0291
 3555POSM   D2B41714  27.914  27.874   9.963 -0.0670  0.0621  0.0255
 3555POSM   C3B41715  27.663  27.650  10.290  0.2439 -0.2567  0.0619
 3555POSM   C4B41716  27.707  27.376  10.697 -0.1089  0.1519 -0.0606
 3556DOPC   NC341717  23.946  31.152   9.574  0.2023  0.1712  0.1488
 3556DOPC   PO441718  24.284  31.044   9.514 -0.0218  0.0356  0.0714
 3556DOPC   GL141719  24.388  31.175   9.862 -0.2327  0.1459  0.3597
 3556DOPC   GL241720  24.209  31.162  10.035  0.2643 -0.2151 -0.2203
 3556DOPC   C1A41721  24.422  31.553  10.135 -0.1322 -0.2992  0.1724
 3556DOPC   D2A41722  24.192  31.978  10.255  0.0072  0.1157  0.1369
 3556DOPC   C3A41723  24.423  32.085  10.612  0.4060  0.0288  0.0954
 3556DOPC   C4A41724  24.605  32.032  11.038  0.0354  0.0243  0.0972
 3556DOPC   C1B41725  24.356  31.036  10.497 -0.0421  0.4623  0.0584
 3556DOPC   D2B41726  24.645  31.027  10.865 -0.0374 -0.0616  0.0891
 3556DOPC   C3B41727  24.318  31.022  11.149 -0.0789 -0.1166  0.0833
 3556DOPC   C4B41728  23.859  30.993  11.154  0.1316  0.2594 -0.0001
 3557POSM   NC341729  32.959  27.336   9.733 -0.0107  0.1733 -0.1193
 3557POSM   PO441730  33.354  27.315   9.629 -0.1171  0.2307  0.0595
 3557POSM   AM141731  33.369  27.592   9.786 -0.0929  0.0018  0.1736
 3557POSM   AM241732  33.243  27.722   9.945 -0.1265 -0.1491 -0.0071
 3557POSM   T1A41733  33.695  27.856  10.070  0.1186  0.0495 -0.1913
 3557POSM   C2A41734  34.041  27.859  10.413 -0.0401 -0.1419 -0.0191
 3557POSM   C3A41735  34.519  27.737  10.493 -0.1376 -0.0271  0.0306
 3557POSM   C1B41736  33.194  27.697  10.267  0.2152  0.2215  0.1406
 3557POSM   D2B41737  33.126  27.584  10.715 -0.0205 -0.0726 -0.1271
 3557POSM   C3B41738  32.838  27.686  11.031  0.0890 -0.0295  0.2930
 3557POSM   C4B41739  32.900  27.973  11.468  0.1056  0.3435 -0.1019
 3558DOPS   CNO41740  32.513  24.656   9.731  0.0138  0.2088 -0.2417
 3558DOPS   PO441741  32.505  24.789  10.102 -0.0106  0.0426 -0.3303
 3558DOPS   GL141742  32.423  24.935  10.493 -0.1675  0.2119  0.1275
 3558DOPS   GL241743  32.502  25.180  10.480 -0.2250 -0.3494  0.4500
 3558DOPS   C1A41744  32.616  24.875  10.923  0.2532 -0.0625 -0.3148
 3558DOPS   D2A41745  32.522  24.629  11.291 -0.0007  0.2020  0.0819
 3558DOPS   C3A41746  32.577  24.263  11.568  0.1618 -0.2452 -0.1652
 3558DOPS   C4A41747  32.544  24.069  11.985 -0.2531  0.0407 -0.1824
 3558DOPS   C1B41748  32.162  25.285  10.787  0.1588  0.1126  0.1037
 3558DOPS   D2B41749  32.049  25.566  11.106  0.0647  0.2281 -0.1653
 3558DOPS   C3B41750  32.071  25.426  11.610 -0.2148 -0.0168 -0.0155
 3558DOPS   C4B41751  32.043  25.303  12.020  0.0632  0.2685 -0.2694
 3559DOPC   NC341752  28.554  30.061   8.889  0.0442 -0.1214  0.1038
 3559DOPC   PO441753  28.756  29.765   8.720  0.0198 -0.0405  0.2902
 3559DOPC   GL141754  28.800  29.749   9.123 -0.1479 -0.1376  0.2397
 3559DOPC   GL241755  28.991  29.499   9.171  0.0621 -0.1710  0.1512
 3559DOPC   C1A41756  28.895  29.907   9.528  0.2834  0.0731 -0.2012
 3559DOPC   D2A41757  28.932  29.653   9.890 -0.0659  0.0962 -0.0638
 3559DOPC   C3A41758  28.622  29.773  10.257  0.0752  0.4053  0.0781
 3559DOPC   C4A41759  28.405  29.575  10.595 -0.0586 -0.0424 -0.0432
 3559DOPC   C1B41760  29.175  29.403   9.580  0.0274 -0.1070 -0.1893
 3559DOPC   D2B41761  29.593  29.419   9.742  0.2262 -0.0771 -0.1225
 3559DOPC   C3B41762  29.772  29.363  10.169  0.1153 -0.6678 -0.0035
 3559DOPC   C4B41763  29.961  29.093  10.453  0.1372  0.1020 -0.1275
 3560DOPS   CNO41764  22.753  30.732   8.810  0.1620  0.1415  0.0935
 3560DOPS   PO441765  22.508  30.799   9.110 -0.2210 -0.2106  0.0313
 3560DOPS   GL141766  22.505  30.566   9.446  0.0174 -0.0574  0.0951
 3560DOPS   GL241767  22.672  30.736   9.603 -0.0841  0.1954 -0.1514
 3560DOPS   C1A41768  22.337  30.559   9.892  0.0646  0.1177  0.1228
 3560DOPS   D2A41769  22.286  30.316  10.294  0.2180 -0.0438 -0.0894
 3560DOPS   C3A41770  22.104  29.986  10.535 -0.1005 -0.0343  0.5774
 3560DOPS   C4A41771  21.906  29.997  10.915  0.2062  0.0741 -0.0212
 3560DOPS   C1B41772  22.705  31.025  10.006  0.1276  0.0987  0.1046
 3560DOPS   D2B41773  22.896  31.282  10.355  0.0780 -0.0355  0.0736
 3560DOPS   C3B41774  23.096  30.965  10.641 -0.0658 -0.1527  0.0103
 3560DOPS   C4B41775  23.096  30.781  11.027  0.1602  0.2398  0.1864
 3561DOPE   NH341776  27.157   1.069   9.161  0.1159 -0.2219  0.0496
 3561DOPE   PO441777  27.049   0.814   9.309 -0.0752  0.0791 -0.0660
 3561DOPE   GL141778  27.499   0.671   9.425  0.2738  0.0029 -0.0077
 3561DOPE   GL241779  27.678   0.825   9.678 -0.0019  0.0237 -0.0997
 3561DOPE   C1A41780  27.772   0.366   9.728  0.1939  0.0548 -0.0599
 3561DOPE   D2A41781  27.626   0.109  10.189 -0.0511 -0.1532  0.2427
 3561DOPE   C3A41782  27.464  -0.275  10.030 -0.0100  0.0638  0.1616
 3561DOPE   C4A41783  27.765  -0.661   9.949 -0.3106 -0.0176 -0.2619
 3561DOPE   C1B41784  27.395   0.590   9.957 -0.1009 -0.2421  0.2649
 3561DOPE   D2B41785  27.171   0.234  10.128 -0.2696  0.2112 -0.2584
 3561DOPE   C3B41786  27.185  -0.096  10.454  0.2210  0.0725 -0.0440
 3561DOPE   C4B41787  27.350  -0.263  10.846  0.1833 -0.3805  0.0970
 3562DOPE   NH341788   3.323  26.257  10.144  0.2340  0.5961  0.2400
 3562DOPE   PO441789   3.494  25.977  10.081  0.2703 -0.3701 -0.0222
 3562DOPE   GL141790   3.192  25.826  10.337 -0.0733 -0.2662  0.0503
 3562DOPE   GL241791   2.967  26.011  10.330  0.0617  0.0787  0.0277
 3562DOPE   C1A41792   3.083  25.592  10.728 -0.1587 -0.0681  0.1664
 3562DOPE   D2A41793   2.886  25.220  10.923 -0.0319  0.1681 -0.0554
 3562DOPE   C3A41794   2.625  25.222  11.326 -0.1013 -0.3403 -0.0597
 3562DOPE   C4A41795   2.243  24.962  11.479 -0.1512 -0.0715 -0.0501
 3562DOPE   C1B41796   2.719  25.961  10.671  0.2331 -0.0051 -0.1508
 3562DOPE   D2B41797   2.471  26.097  11.038  0.1970 -0.1066 -0.1569
 3562DOPE   C3B41798   2.570  26.166  11.454 -0.0352 -0.1157 -0.0024
 3562DOPE   C4B41799   2.748  26.225  11.855 -0.1641 -0.2798  0.1481
 3563DOPE   NH341800  30.169  27.946   8.920 -0.1635 -0.0057  0.1175
 3563DOPE   PO441801  30.073  27.654   9.055 -0.1054 -0.0309 -0.1265
 3563DOPE   GL141802  29.982  27.709   9.476 -0.0281 -0.5283 -0.0024
 3563DOPE   GL241803  29.924  27.470   9.601  0.2563 -0.1307 -0.3308
 3563DOPE   C1A41804  29.947  28.075   9.783 -0.0468 -0.2007  0.1458
 3563DOPE   D2A41805  29.683  28.316  10.135  0.1954 -0.2202 -0.0755
 3563DOPE   C3A41806  29.800  28.583  10.510  0.1302 -0.1819  0.0711
 3563DOPE   C4A41807  29.977  28.595  10.929  0.1282  0.0139 -0.1349
 3563DOPE   C1B41808  30.216  27.672   9.924  0.0264 -0.0579  0.0641
 3563DOPE   D2B41809  30.231  28.071  10.200 -0.2216  0.0099  0.2812
 3563DOPE   C3B41810  30.054  28.167  10.607 -0.0653 -0.3387 -0.0529
 3563DOPE   C4B41811  29.744  28.168  10.899  0.0667  0.2203  0.0065
 3564DOPC   NC341812  29.087  24.401   9.856  0.3320  0.1846 -0.5614
 3564DOPC   PO441813  29.390  24.251  10.015  0.1319 -0.0657  0.1870
 3564DOPC   GL141814  29.159  24.132  10.330 -0.2281  0.0110 -0.2551
 3564DOPC   GL241815  29.368  23.949  10.485 -0.3013  0.3736 -0.0051
 3564DOPC   C1A41816  28.743  23.924  10.510 -0.2401 -0.1698  0.1876
 3564DOPC   D2A41817  28.377  23.963  10.867  0.0994  0.0602 -0.3418
 3564DOPC   C3A41818  28.302  23.871  11.296 -0.0791  0.1773 -0.1864
 3564DOPC   C4A41819  28.532  23.932  11.671 -0.1588  0.0693 -0.0611
 3564DOPC   C1B41820  29.395  23.714  10.864 -0.4881 -0.0830 -0.3039
 3564DOPC   D2B41821  29.271  23.433  11.236 -0.0748 -0.1500 -0.0027
 3564DOPC   C3B41822  29.520  23.392  11.626 -0.1604  0.0542 -0.3111
 3564DOPC   C4B41823  29.727  23.332  12.071 -0.1217 -0.0783 -0.0115
 3565DOPS   CNO41824  32.212  27.924   9.194 -0.1370 -0.0068  0.1118
 3565DOPS   PO441825  31.988  28.244   9.299 -0.0625  0.0695  0.4006
 3565DOPS   GL141826  32.178  28.178   9.630 -0.1542 -0.2232  0.1359
 3565DOPS   GL241827  32.268  27.921   9.673  0.0860 -0.0637  0.2085
 3565DOPS   C1A41828  32.284  28.315  10.025 -0.0309 -0.2302  0.1987
 3565DOPS   D2A41829  32.334  28.588  10.418 -0.3336  0.0353 -0.4408
 3565DOPS   C3A41830  32.262  29.018  10.562  0.0075  0.0353  0.0189
 3565DOPS   C4A41831  32.182  29.243  10.970  0.1068 -0.1629  0.0020
 3565DOPS   C1B41832  32.210  27.832  10.153 -0.1678 -0.0877 -0.0794
 3565DOPS   D2B41833  32.332  27.941  10.572 -0.0619 -0.3678  0.1731
 3565DOPS   C3B41834  32.585  28.292  10.815  0.2913 -0.3674 -0.2073
 3565DOPS   C4B41835  32.692  28.748  10.920 -0.0596  0.1403  0.1931
 3566DOPS   CNO41836  28.146  32.705   8.685  0.0249 -0.1443  0.1624
 3566DOPS   PO441837  28.387  32.968   8.775 -0.1095  0.1889 -0.0828
 3566DOPS   GL141838  28.404  32.806   9.123 -0.0456 -0.0735  0.1631
 3566DOPS   GL241839  28.149  32.836   9.197  0.3011 -0.0969 -0.0607
 3566DOPS   C1A41840  28.757  32.602   9.259 -0.0316 -0.1958 -0.1388
 3566DOPS   D2A41841  29.158  32.728   9.264  0.2419  0.0906  0.3437
 3566DOPS   C3A41842  29.379  32.623   9.670  0.0214  0.3544 -0.2291
 3566DOPS   C4A41843  29.580  32.282   9.922  0.0299 -0.0423 -0.0564
 3566DOPS   C1B41844  27.715  32.887   9.412  0.2156  0.2589  0.0481
 3566DOPS   D2B41845  27.345  32.690   9.718 -0.0027  0.5647  0.0233
 3566DOPS   C3B41846  27.249  32.292   9.955  0.0966 -0.3624 -0.1096
 3566DOPS   C4B41847  26.940  32.207  10.257 -0.1674  0.2198 -0.1844
 3567DOPC   NC341848  30.066   0.680   9.255 -0.1674  0.1467 -0.0647
 3567DOPC   PO441849  29.806   0.386   9.138 -0.0618 -0.2439  0.0959
 3567DOPC   GL141850  29.711   0.583   9.498 -0.3483 -0.3201  0.1738
 3567DOPC   GL241851  29.449   0.744   9.513 -0.3721  0.3266 -0.1061
 3567DOPC   C1A41852  29.518   0.410   9.892  0.0747  0.0241 -0.3241
 3567DOPC   D2A41853  29.208   0.140   9.990 -0.1383 -0.0359 -0.1574
 3567DOPC   C3A41854  29.412  -0.272   9.944 -0.1241 -0.0370 -0.2624
 3567DOPC   C4A41855  29.387  -0.803   9.966  0.0583 -0.1769 -0.0163
 3567DOPC   C1B41856  29.325   1.057   9.886 -0.2117 -0.2772  0.1394
 3567DOPC   D2B41857  29.346   0.899  10.301  0.1891  0.0780  0.1978
 3567DOPC   C3B41858  29.115   0.956  10.673 -0.1311  0.2010  0.0103
 3567DOPC   C4B41859  28.818   0.878  11.030  0.0883 -0.1624 -0.3085
 3568DOPS   CNO41860  27.586  26.191   8.891  0.0824  0.1728  0.3316
 3568DOPS   PO441861  27.747  26.190   9.207  0.0064 -0.0025 -0.1371
 3568DOPS   GL141862  27.661  26.239   9.533 -0.0413  0.2026 -0.1704
 3568DOPS   GL241863  27.553  25.965   9.666 -0.1538 -0.0178 -0.0152
 3568DOPS   C1A41864  27.450  26.516   9.786  0.2819 -0.1905 -0.0863
 3568DOPS   D2A41865  27.306  26.758  10.125  0.1681  0.1821  0.0821
 3568DOPS   C3A41866  26.906  27.005  10.254  0.1786 -0.0592 -0.0220
 3568DOPS   C4A41867  26.521  27.260  10.137 -0.2292  0.4423  0.1149
 3568DOPS   C1B41868  27.552  25.805  10.113  0.0905 -0.0246  0.1700
 3568DOPS   D2B41869  27.474  25.824  10.525  0.3278  0.0575 -0.1107
 3568DOPS   C3B41870  27.732  25.513  10.838 -0.0471 -0.2772  0.4393
 3568DOPS   C4B41871  28.133  25.322  10.948 -0.2301  0.0357  0.0781
 3569DOPS   CNO41872  26.214  30.597   8.781  0.2787 -0.1433 -0.1855
 3569DOPS   PO441873  26.488  30.366   8.694 -0.1458 -0.1872  0.2632
 3569DOPS   GL141874  26.553  30.303   9.033 -0.2611 -0.1685 -0.5016
 3569DOPS   GL241875  26.401  30.459   9.194 -0.0971 -0.1363 -0.0415
 3569DOPS   C1A41876  26.931  30.131   9.239  0.0965 -0.0560 -0.1263
 3569DOPS   D2A41877  27.032  30.002   9.669 -0.0202 -0.3470  0.1228
 3569DOPS   C3A41878  27.026  29.984  10.123  0.1537  0.1520 -0.4869
 3569DOPS   C4A41879  27.084  30.303  10.458  0.1947  0.1182  0.0925
 3569DOPS   C1B41880  26.420  30.937   9.165 -0.0569 -0.1186  0.1639
 3569DOPS   D2B41881  26.665  31.227   9.426 -0.1821 -0.1173 -0.0221
 3569DOPS   C3B41882  26.917  31.359   9.795  0.0079  0.2316 -0.1861
 3569DOPS   C4B41883  27.179  31.584  10.133  0.1103 -0.1733  0.0667
 3570DOPC   NC341884  26.226  33.962   8.946  0.0526 -0.0254 -0.0458
 3570DOPC   PO441885  26.586  33.827   9.131  0.4342  0.0215  0.2029
 3570DOPC   GL141886  26.634  33.724   9.444  0.1879  0.1091  0.1072
 3570DOPC   GL241887  26.822  33.955   9.612  0.1303 -0.1216 -0.1005
 3570DOPC   C1A41888  26.391  33.871   9.813 -0.0043 -0.1933 -0.2057
 3570DOPC   D2A41889  26.223  33.966  10.223 -0.0085  0.1171  0.3202
 3570DOPC   C3A41890  26.322  33.990  10.613 -0.2508 -0.0744 -0.0327
 3570DOPC   C4A41891  26.539  34.131  10.967  0.0386  0.0348 -0.0446
 3570DOPC   C1B41892  27.152  33.998   9.859 -0.0644  0.3456 -0.2312
 3570DOPC   D2B41893  27.414  33.959  10.205 -0.1201 -0.1988  0.2313
 3570DOPC   C3B41894  27.222  34.178  10.569 -0.3091 -0.1517  0.0082
 3570DOPC   C4B41895  26.859  34.411  10.677  0.1039  0.1924  0.2503
 3571DOPE   NH341896  32.322  22.143  10.238 -0.3462 -0.1771  0.1483
 3571DOPE   PO441897  32.519  22.037  10.437 -0.2179  0.1088 -0.1205
 3571DOPE   GL141898  32.548  21.882  10.796 -0.1014  0.0027  0.0192
 3571DOPE   GL241899  32.349  21.862  10.969 -0.0247 -0.0367  0.0834
 3571DOPE   C1A41900  32.751  21.985  11.269  0.2994 -0.0897  0.3022
 3571DOPE   D2A41901  33.091  21.756  11.487  0.0061 -0.1646  0.0512
 3571DOPE   C3A41902  33.076  21.381  11.740 -0.0232 -0.2979 -0.4387
 3571DOPE   C4A41903  33.315  21.101  11.942 -0.2210  0.2897 -0.1412
 3571DOPE   C1B41904  31.917  21.683  10.893  0.1238  0.2071 -0.0114
 3571DOPE   D2B41905  31.800  21.427  11.199 -0.1363  0.0769 -0.0387
 3571DOPE   C3B41906  31.634  21.551  11.637 -0.2086 -0.0077 -0.5030
 3571DOPE   C4B41907  31.733  21.402  12.067 -0.0654 -0.0840  0.0670
 3572DOPE   NH341908  23.602  31.734   9.050  0.5045  0.0160 -0.1129
 3572DOPE   PO441909  23.762  31.516   9.236  0.2151  0.1384 -0.0190
 3572DOPE   GL141910  23.847  31.720   9.489 -0.0228  0.2435  0.1121
 3572DOPE   GL241911  23.848  32.006   9.579 -0.0954 -0.3074 -0.3135
 3572DOPE   C1A41912  23.978  31.634   9.929 -0.0760 -0.2356  0.1975
 3572DOPE   D2A41913  24.024  31.472  10.373  0.2472  0.1344  0.2352
 3572DOPE   C3A41914  24.372  31.593  10.647 -0.0821  0.1330  0.1101
 3572DOPE   C4A41915  24.463  31.497  11.095  0.3751  0.1849  0.1572
 3572DOPE   C1B41916  24.268  32.089   9.762  0.0934  0.0234  0.0811
 3572DOPE   D2B41917  24.604  31.838   9.772  0.2290 -0.0297  0.1464
 3572DOPE   C3B41918  24.820  31.880  10.201 -0.2259 -0.2191 -0.0677
 3572DOPE   C4B41919  24.889  31.949  10.648  0.0486 -0.1790  0.1423
 3573POSM   NC341920  28.691  24.525   8.754  0.0582  0.0548 -0.3827
 3573POSM   PO441921  28.535  24.402   9.103  0.1941 -0.2246 -0.0385
 3573POSM   AM141922  28.365  24.455   9.360  0.1421 -0.2143  0.0169
 3573POSM   AM241923  28.424  24.605   9.574  0.3593 -0.0677 -0.0220
 3573POSM   T1A41924  28.141  24.321   9.848 -0.2084  0.1945 -0.1859
 3573POSM   C2A41925  28.002  24.463  10.233  0.0303 -0.1813 -0.0987
 3573POSM   C3A41926  28.106  24.505  10.707 -0.1295  0.1438 -0.2051
 3573POSM   C1B41927  28.683  24.699   9.806  0.4701  0.0842 -0.0765
 3573POSM   D2B41928  28.869  24.926  10.158  0.0191 -0.0647 -0.1507
 3573POSM   C3B41929  28.945  24.502  10.440  0.0838 -0.0055  0.3832
 3573POSM   C4B41930  29.156  24.255  10.784  0.1248  0.2332  0.1265
 3574DOPS   CNO41931  31.905   0.702   9.124 -0.0313 -0.0653 -0.4097
 3574DOPS   PO441932  31.691   0.993   9.291 -0.1871  0.0001  0.0500
 3574DOPS   GL141933  31.613   0.805   9.607  0.0163  0.0827  0.0681
 3574DOPS   GL241934  31.522   0.541   9.598 -0.3494  0.1152  0.3662
 3574DOPS   C1A41935  31.894   0.709   9.941  0.2050 -0.1676  0.0885
 3574DOPS   D2A41936  31.881   0.645  10.401 -0.3015  0.0237  0.0088
 3574DOPS   C3A41937  32.043   0.258  10.581 -0.0860  0.0087 -0.1003
 3574DOPS   C4A41938  32.183   0.059  11.047 -0.1573 -0.1389  0.0612
 3574DOPS   C1B41939  31.683   0.248   9.934  0.2794 -0.5183 -0.2590
 3574DOPS   D2B41940  31.597   0.227  10.373  0.0340 -0.0792  0.1890
 3574DOPS   C3B41941  31.418  -0.222  10.377 -0.2501 -0.1586 -0.0788
 3574DOPS   C4B41942  31.366  -0.408  10.816  0.2589 -0.0331  0.2006
 3575DOPC   NC341943  31.902  23.037  10.177  0.0349 -0.2393  0.2607
 3575DOPC   PO441944  31.613  23.165   9.979  0.0146  0.3664 -0.0882
 3575DOPC   GL141945  31.613  23.391  10.361 -0.0274  0.3176  0.0092
 3575DOPC   GL241946  31.488  23.708  10.305 -0.0132 -0.2768 -0.2626
 3575DOPC   C1A41947  31.578  23.322  10.816  0.0863  0.1770  0.0862
 3575DOPC   D2A41948  31.641  23.500  11.219 -0.3108 -0.1210  0.0065
 3575DOPC   C3A41949  31.922  23.537  11.587  0.3422  0.0133 -0.1023
 3575DOPC   C4A41950  32.188  23.507  11.954 -0.2801 -0.0194  0.2399
 3575DOPC   C1B41951  31.544  23.993  10.673 -0.0062  0.1463  0.2193
 3575DOPC   D2B41952  31.898  23.978  10.958 -0.0129 -0.1119  0.1553
 3575DOPC   C3B41953  31.915  23.988  11.405  0.2486  0.4659  0.3552
 3575DOPC   C4B41954  31.552  24.037  11.683  0.0083  0.0782  0.1953
 3576DOPE   NH341955  25.045  27.126   9.324  0.2347 -0.1560 -0.1980
 3576DOPE   PO441956  24.838  26.984   9.490 -0.2817 -0.0934 -0.1435
 3576DOPE   GL141957  24.877  26.839   9.769  0.1117 -0.2336 -0.3769
 3576DOPE   GL241958  24.598  26.800   9.911 -0.2488 -0.1118 -0.3017
 3576DOPE   C1A41959  25.141  26.707  10.143 -0.0443 -0.1212  0.1741
 3576DOPE   D2A41960  25.315  26.944  10.453  0.2406 -0.0195 -0.1436
 3576DOPE   C3A41961  25.424  27.442  10.440  0.2275  0.2229 -0.2544
 3576DOPE   C4A41962  25.710  27.793  10.661  0.0108  0.4449  0.1021
 3576DOPE   C1B41963  24.554  26.749  10.361 -0.0487 -0.1353  0.1051
 3576DOPE   D2B41964  24.620  26.615  10.819  0.3329 -0.2413 -0.0052
 3576DOPE   C3B41965  24.904  26.778  11.194  0.1022 -0.0504 -0.3261
 3576DOPE   C4B41966  25.074  26.650  11.576 -0.0279 -0.0856 -0.2720
 3577DOPS   CNO41967  31.059  24.364   9.595 -0.2836 -0.2047 -0.2897
 3577DOPS   PO441968  30.928  24.498   9.867 -0.0918 -0.0343  0.0904
 3577DOPS   GL141969  30.808  24.717  10.234  0.3772 -0.1032  0.0710
 3577DOPS   GL241970  30.768  25.045  10.200  0.0560 -0.0984  0.0001
 3577DOPS   C1A41971  31.174  24.882  10.485 -0.3010 -0.1088 -0.0850
 3577DOPS   D2A41972  31.638  24.996  10.616  0.0765  0.0546 -0.1088
 3577DOPS   C3A41973  31.611  25.227  11.026  0.1157  0.1982  0.1345
 3577DOPS   C4A41974  31.286  25.146  11.439  0.2349 -0.2535  0.2036
 3577DOPS   C1B41975  30.708  25.453  10.463 -0.1407 -0.1022 -0.1620
 3577DOPS   D2B41976  30.751  25.717  10.862  0.0305 -0.1301  0.0635
 3577DOPS   C3B41977  30.562  25.733  11.284  0.0240  0.1732 -0.0929
 3577DOPS   C4B41978  30.471  25.287  11.558 -0.3306  0.2218  0.4385
 3578DOPS   CNO41979  31.359  31.744   8.747 -0.0504  0.1565 -0.0468
 3578DOPS   PO441980  31.128  31.632   8.991  0.2531 -0.0731  0.0597
 3578DOPS   GL141981  31.114  31.834   9.451  0.1209  0.3235  0.2191
 3578DOPS   GL241982  31.154  31.685   9.676  0.2157  0.1581  0.1873
 3578DOPS   C1A41983  31.243  32.131   9.837 -0.0971 -0.0281 -0.0171
 3578DOPS   D2A41984  31.032  32.301  10.218  0.0329  0.2579  0.0493
 3578DOPS   C3A41985  30.886  32.182  10.604 -0.2027  0.0298  0.2559
 3578DOPS   C4A41986  30.439  32.124  10.788  0.0795  0.1700 -0.0496
 3578DOPS   C1B41987  31.126  31.519  10.132  0.3116  0.2869 -0.0413
 3578DOPS   D2B41988  31.109  31.429  10.606 -0.2391 -0.2628 -0.1504
 3578DOPS   C3B41989  30.747  31.309  10.911  0.0843 -0.1097 -0.0566
 3578DOPS   C4B41990  30.326  31.053  10.969 -0.1345 -0.0363  0.1175
 3579DOPE   NH341991  21.206  32.226   9.234  0.2315 -0.1310 -0.0236
 3579DOPE   PO441992  20.928  32.377   9.210  0.1350  0.6487  0.0709
 3579DOPE   GL141993  20.915  32.428   9.589 -0.0349 -0.2174  0.2771
 3579DOPE   GL241994  20.814  32.594   9.718 -0.1879 -0.0348  0.1499
 3579DOPE   C1A41995  20.773  32.182   9.987 -0.0403 -0.1922  0.0979
 3579DOPE   D2A41996  21.003  32.043  10.380 -0.2939 -0.1071  0.0960
 3579DOPE   C3A41997  21.148  32.155  10.788 -0.0235  0.0655 -0.0012
 3579DOPE   C4A41998  21.157  32.448  11.234 -0.1512  0.3395  0.3372
 3579DOPE   C1B41999  21.212  32.698   9.881  0.0205  0.1540 -0.0729
 3579DOPE   D2B42000  21.667  32.727   9.899 -0.0879  0.0996  0.2213
 3579DOPE   C3B42001  21.939  33.048  10.057 -0.3509  0.1106  0.3123
 3579DOPE   C4B42002  21.840  33.281  10.438  0.0369  0.1482  0.1897
 3580DOPE   NH342003  26.047  30.107   8.824 -0.0913  0.4843  0.1216
 3580DOPE   PO442004  26.284  29.946   8.813  0.0698 -0.0267  0.2986
 3580DOPE   GL142005  26.428  29.848   9.149 -0.2558  0.1221  0.1235
 3580DOPE   GL242006  26.479  29.546   9.179 -0.2665  0.0066  0.2207
 3580DOPE   C1A42007  26.453  30.106   9.544 -0.1339 -0.0783 -0.2310
 3580DOPE   D2A42008  26.409  30.358   9.977  0.0432 -0.1821 -0.1452
 3580DOPE   C3A42009  26.564  30.173  10.378  0.2099 -0.2671  0.2144
 3580DOPE   C4A42010  26.673  30.325  10.811  0.0104  0.3023 -0.4405
 3580DOPE   C1B42011  26.539  29.673   9.626 -0.0563  0.0635 -0.1781
 3580DOPE   D2B42012  26.569  29.806  10.092 -0.2171  0.2240  0.1737
 3580DOPE   C3B42013  26.588  29.513  10.462  0.3038 -0.1271 -0.0606
 3580DOPE   C4B42014  26.485  29.398  10.926 -0.2175  0.0692 -0.0577
 3581POSM   NC342015  34.691  24.633  10.004 -0.1417  0.1538 -0.0831
 3581POSM   PO442016  34.741  24.995  10.183 -0.0977  0.2102 -0.2927
 3581POSM   AM142017  34.801  24.843  10.477 -0.4051 -0.4326  0.2738
 3581POSM   AM242018  34.872  24.588  10.538 -0.3008  0.0778  0.1899
 3581POSM   T1A42019  34.543  24.860  10.907 -0.1328 -0.2027 -0.1690
 3581POSM   C2A42020  34.188  25.123  11.068  0.0966  0.0242  0.2435
 3581POSM   C3A42021  33.996  25.201  11.522  0.0120 -0.1997  0.0658
 3581POSM   C1B42022  34.879  24.545  10.888 -0.4667 -0.1195 -0.1702
 3581POSM   D2B42023  34.982  24.383  11.307 -0.0833  0.0944  0.0424
 3581POSM   C3B42024  34.835  24.410  11.755  0.0625 -0.1599  0.1705
 3581POSM   C4B42025  34.489  24.508  11.963  0.4525  0.3776 -0.2077
 3582DOPC   NC342026  31.000  25.544  10.048  0.1272  0.0283 -0.1506
 3582DOPC   PO442027  30.768  25.803   9.879  0.1163 -0.1144 -0.1390
 3582DOPC   GL142028  30.554  25.780  10.256 -0.3061  0.0068 -0.0711
 3582DOPC   GL242029  30.734  25.999  10.367  0.0652 -0.1198 -0.0117
 3582DOPC   C1A42030  30.316  25.932  10.606 -0.0384  0.0108 -0.2092
 3582DOPC   D2A42031  30.182  25.979  11.023  0.3755  0.0163 -0.1986
 3582DOPC   C3A42032  30.086  25.814  11.467 -0.1687 -0.1467 -0.0975
 3582DOPC   C4A42033  30.189  25.599  11.844  0.0075  0.2803  0.0059
 3582DOPC   C1B42034  30.705  26.209  10.785 -0.1838 -0.3892 -0.3395
 3582DOPC   D2B42035  30.848  26.560  11.034 -0.0200 -0.2319 -0.2911
 3582DOPC   C3B42036  31.161  26.520  11.321 -0.0354 -0.1381 -0.2060
 3582DOPC   C4B42037  31.616  26.463  11.186 -0.1523 -0.2149 -0.1878
 3583DOPC   NC342038  26.021  31.952   8.945  0.1883  0.0609 -0.1458
 3583DOPC   PO442039  26.288  32.262   8.990 -0.2637 -0.2713  0.1319
 3583DOPC   GL142040  26.114  32.204   9.350 -0.1583 -0.0315  0.1205
 3583DOPC   GL242041  26.338  31.962   9.398  0.2063 -0.1618  0.1551
 3583DOPC   C1A42042  26.034  32.074   9.816 -0.0736  0.2778  0.0840
 3583DOPC   D2A42043  26.133  32.000  10.202  0.0212 -0.0247 -0.0127
 3583DOPC   C3A42044  26.120  31.543  10.239  0.0283 -0.1194 -0.0298
 3583DOPC   C4A42045  26.177  31.103  10.343  0.1284 -0.2000  0.1336
 3583DOPC   C1B42046  26.481  31.666   9.680 -0.1062 -0.3172  0.0010
 3583DOPC   D2B42047  26.404  31.299   9.926  0.0602 -0.1355  0.1381
 3583DOPC   C3B42048  26.671  31.114  10.185 -0.3718  0.0801 -0.0296
 3583DOPC   C4B42049  26.747  30.657  10.310 -0.0681  0.1448 -0.2173
 3584DOPE   NH342050  33.163   3.722  10.087  0.1336  0.0849 -0.4580
 3584DOPE   PO442051  33.196   3.425  10.172  0.1854  0.2971 -0.1864
 3584DOPE   GL142052  33.146   3.247  10.513  0.2741  0.0926  0.1752
 3584DOPE   GL242053  33.023   2.971  10.481  0.1006  0.1674 -0.0303
 3584DOPE   C1A42054  33.301   3.125  10.941  0.1283  0.3357 -0.0809
 3584DOPE   D2A42055  33.192   2.920  11.372  0.0795  0.0912  0.0111
 3584DOPE   C3A42056  33.441   2.826  11.824  0.0724 -0.2406 -0.3617
 3584DOPE   C4A42057  33.512   2.779  12.239  0.0357  0.1055 -0.0007
 3584DOPE   C1B42058  33.178   2.646  10.765 -0.0537 -0.0391  0.3403
 3584DOPE   D2B42059  33.287   2.490  11.158  0.0794  0.3054  0.2299
 3584DOPE   C3B42060  33.267   2.193  11.468  0.1272  0.0952 -0.0826
 3584DOPE   C4B42061  33.582   2.253  11.781  0.0780 -0.2673  0.0091
 3585POSM   NC342062  33.223  33.054   9.733  0.0117 -0.1627  0.3025
 3585POSM   PO442063  33.227  32.642   9.798  0.0193 -0.1202 -0.0243
 3585POSM   AM142064  33.154  32.608  10.110 -0.1128  0.2045 -0.0499
 3585POSM   AM242065  33.079  32.807  10.297 -0.2668 -0.0063 -0.0524
 3585POSM   T1A42066  32.962  32.444  10.579  0.0114  0.0747 -0.0747
 3585POSM   C2A42067  33.007  32.337  11.052 -0.0235 -0.0920 -0.3098
 3585POSM   C3A42068  33.310  32.146  11.397 -0.1384  0.3247  0.1567
 3585POSM   C1B42069  33.177  33.120  10.388  0.1153 -0.1134 -0.0357
 3585POSM   D2B42070  33.321  33.452  10.701  0.0803  0.0403 -0.1144
 3585POSM   C3B42071  33.270  33.897  10.786 -0.2422  0.0452  0.1400
 3585POSM   C4B42072  33.102  34.299  10.874  0.0364  0.1664 -0.0542
 3586DOPE   NH342073  27.939  30.322   8.391 -0.1289 -0.0412 -0.1792
 3586DOPE   PO442074  28.142  30.173   8.577  0.0915 -0.3503 -0.2008
 3586DOPE   GL142075  28.152  30.367   8.839 -0.1648  0.0003 -0.1151
 3586DOPE   GL242076  27.977  30.612   8.838  0.0477  0.1196 -0.1136
 3586DOPE   C1A42077  27.996  30.375   9.300 -0.1883 -0.1151  0.1193
 3586DOPE   D2A42078  27.987  30.377   9.798 -0.0026  0.5096 -0.1819
 3586DOPE   C3A42079  28.138  30.353  10.208 -0.2110 -0.4496  0.2072
 3586DOPE   C4A42080  28.370  30.314  10.594 -0.0930 -0.1477 -0.0597
 3586DOPE   C1B42081  28.152  30.878   9.194  0.0235  0.0196  0.3009
 3586DOPE   D2B42082  28.000  30.917   9.613 -0.1276 -0.1283 -0.1851
 3586DOPE   C3B42083  28.224  30.829   9.970  0.3194  0.0947 -0.1206
 3586DOPE   C4B42084  28.539  30.702  10.340  0.2262 -0.0959  0.0205
 3587DOPC   NC342085  28.121  26.180   9.591 -0.0249 -0.1566  0.1035
 3587DOPC   PO442086  28.013  25.835   9.479  0.0166 -0.0117 -0.0951
 3587DOPC   GL142087  27.923  25.791   9.845 -0.4087 -0.0798  0.0719
 3587DOPC   GL242088  28.175  25.734  10.076 -0.2016  0.3545 -0.1353
 3587DOPC   C1A42089  27.814  26.232   9.990 -0.0113  0.1200 -0.3077
 3587DOPC   D2A42090  27.945  26.651  10.102 -0.2117  0.0099 -0.0925
 3587DOPC   C3A42091  27.902  26.770  10.529  0.1502  0.2321 -0.1617
 3587DOPC   C4A42092  27.605  26.874  10.853  0.1230 -0.3174  0.1868
 3587DOPC   C1B42093  27.989  25.789  10.458 -0.0461  0.1481  0.2435
 3587DOPC   D2B42094  28.123  25.823  10.888 -0.0624  0.0685 -0.0218
 3587DOPC   C3B42095  27.953  25.668  11.336 -0.3332 -0.0844  0.1805
 3587DOPC   C4B42096  27.883  25.709  11.790  0.1321 -0.2064  0.2584
 3588DOPS   CNO42097  26.796  26.501   8.999 -0.2814 -0.3106  0.0745
 3588DOPS   PO442098  26.913  26.165   9.167 -0.1433 -0.2124  0.0997
 3588DOPS   GL142099  26.982  26.284   9.559  0.0994 -0.0697  0.0614
 3588DOPS   GL242100  27.128  26.159   9.704 -0.0267 -0.1588  0.0051
 3588DOPS   C1A42101  26.863  26.524   9.928 -0.4073 -0.1465 -0.1601
 3588DOPS   D2A42102  26.760  26.558  10.388  0.1707  0.0346 -0.0911
 3588DOPS   C3A42103  26.696  26.344  10.838  0.1727 -0.1762  0.0421
 3588DOPS   C4A42104  26.639  26.159  11.261  0.1419  0.1973 -0.2279
 3588DOPS   C1B42105  27.233  26.171  10.139 -0.0462 -0.2660  0.1049
 3588DOPS   D2B42106  27.518  26.415  10.404 -0.1271  0.0235  0.3460
 3588DOPS   C3B42107  27.160  26.680  10.579 -0.3055 -0.2676 -0.0717
 3588DOPS   C4B42108  27.032  26.684  10.999  0.2809  0.1020 -0.2374
 3589DOPE   NH342109  26.258   0.779   9.134 -0.0702  0.0374 -0.2571
 3589DOPE   PO442110  25.965   0.815   9.256  0.6646  0.2018 -0.3140
 3589DOPE   GL142111  26.028   0.811   9.656 -0.2000  0.1372  0.1608
 3589DOPE   GL242112  25.814   0.851   9.811 -0.1163  0.0874 -0.3890
 3589DOPE   C1A42113  26.291   0.924  10.028  0.0434 -0.1347  0.1208
 3589DOPE   D2A42114  26.268   1.256  10.388 -0.0433  0.0692 -0.1555
 3589DOPE   C3A42115  26.563   1.352  10.736  0.2085 -0.0409 -0.1957
 3589DOPE   C4A42116  26.937   1.572  10.862 -0.1915  0.3310  0.1792
 3589DOPE   C1B42117  25.903   0.710  10.265  0.0924 -0.3432 -0.1233
 3589DOPE   D2B42118  25.793   0.674  10.698 -0.1651 -0.2386 -0.0124
 3589DOPE   C3B42119  26.079   0.697  11.032 -0.0891 -0.1121 -0.0769
 3589DOPE   C4B42120  26.466   0.970  11.027  0.0843  0.2518  0.1204
 3590DOPE   NH342121  26.786  29.974   8.773 -0.2032  0.2230 -0.1018
 3590DOPE   PO442122  26.968  30.112   8.576 -0.1233  0.1468 -0.0257
 3590DOPE   GL142123  26.990  30.431   8.797 -0.1072  0.0802  0.0946
 3590DOPE   GL242124  27.237  30.444   8.912 -0.0879 -0.1278 -0.3670
 3590DOPE   C1A42125  26.847  30.630   9.217 -0.2431  0.1450 -0.2182
 3590DOPE   D2A42126  27.024  30.935   9.497 -0.1811  0.0385 -0.0469
 3590DOPE   C3A42127  27.153  30.995   9.973 -0.3848 -0.0169 -0.3090
 3590DOPE   C4A42128  27.259  30.786  10.376 -0.0355 -0.1843  0.1169
 3590DOPE   C1B42129  27.428  30.200   9.275 -0.1138  0.0660 -0.0271
 3590DOPE   D2B42130  27.603  29.952   9.609  0.2180  0.1704 -0.2986
 3590DOPE   C3B42131  27.355  29.583   9.605 -0.1467  0.0726  0.2076
 3590DOPE   C4B42132  27.325  29.129   9.572 -0.1170  0.0906  0.0275
 3591DOPS   CNO42133  34.432  33.561   9.414 -0.1488  0.2905 -0.1273
 3591DOPS   PO442134  34.244  33.318   9.625  0.4592 -0.2834  0.4449
 3591DOPS   GL142135  33.972  33.386   9.954 -0.1628 -0.0283 -0.0914
 3591DOPS   GL242136  33.929  33.648   9.863  0.0685  0.1217  0.2270
 3591DOPS   C1A42137  33.992  33.284  10.421 -0.1953 -0.2150 -0.0595
 3591DOPS   D2A42138  33.732  33.244  10.799 -0.1861 -0.0814 -0.0534
 3591DOPS   C3A42139  33.846  33.448  11.234  0.2678  0.2189  0.2064
 3591DOPS   C4A42140  34.074  33.790  11.449 -0.0277 -0.0732 -0.2445
 3591DOPS   C1B42141  34.167  33.766  10.254  0.0128 -0.0475 -0.0827
 3591DOPS   D2B42142  34.564  33.918  10.367 -0.0046 -0.1131 -0.3135
 3591DOPS   C3B42143  34.534  34.141  10.833 -0.0149  0.1528 -0.0994
 3591DOPS   C4B42144  34.288  34.132  11.181  0.0354  0.1180  0.1603
 3592DOPE   NH342145  34.722  26.112   9.938 -0.0476 -0.1312 -0.3377
 3592DOPE   PO442146  34.908  25.917  10.091 -0.1578  0.0222 -0.1744
 3592DOPE   GL142147  34.951  26.125  10.461  0.1933  0.3620 -0.0959
 3592DOPE   GL242148  34.932  26.366  10.365  0.4665 -0.1045 -0.0422
 3592DOPE   C1A42149  35.047  25.915  10.889  0.2387 -0.2909 -0.0472
 3592DOPE   D2A42150  35.048  25.732  11.246  0.3148 -0.0265 -0.0857
 3592DOPE   C3A42151  34.907  25.961  11.638  0.0466  0.2266 -0.3805
 3592DOPE   C4A42152  34.843  26.352  11.769 -0.2039 -0.3325 -0.1723
 3592DOPE   C1B42153  34.885  26.624  10.760  0.0166 -0.2975  0.1213
 3592DOPE   D2B42154  34.845  26.921  11.110 -0.0202  0.0884 -0.0837
 3592DOPE   C3B42155  34.993  26.791  11.562 -0.0473  0.0627  0.1059
 3592DOPE   C4B42156  35.179  26.694  11.930 -0.4496  0.1721 -0.0670
 3593DOPS   CNO42157  29.114  23.605   9.473 -0.0446 -0.1508  0.2776
 3593DOPS   PO442158  29.054  23.351   9.740 -0.0480  0.0094  0.2276
 3593DOPS   GL142159  28.714  23.364   9.921  0.3124  0.0570 -0.2678
 3593DOPS   GL242160  28.758  23.239  10.160 -0.1553  0.0315 -0.0969
 3593DOPS   C1A42161  28.342  23.658   9.881  0.2517 -0.0394 -0.1512
 3593DOPS   D2A42162  27.931  23.735   9.776  0.0079  0.1395 -0.1384
 3593DOPS   C3A42163  27.728  24.045  10.095  0.1821  0.0593  0.2325
 3593DOPS   C4A42164  27.262  24.008  10.114 -0.1769  0.1494  0.0700
 3593DOPS   C1B42165  28.482  23.567  10.316 -0.2907  0.1343 -0.1393
 3593DOPS   D2B42166  28.084  23.616  10.599 -0.2381  0.1097 -0.2434
 3593DOPS   C3B42167  27.929  23.655  11.033  0.1662  0.0451  0.1646
 3593DOPS   C4B42168  27.778  23.353  11.324 -0.0505 -0.1205  0.3550
 3594DOPS   CNO42169   0.961  23.899   9.924 -0.1726  0.1834  0.2663
 3594DOPS   PO442170   0.957  24.298   9.957  0.1071 -0.1513 -0.0208
 3594DOPS   GL142171   0.925  24.463  10.292 -0.3835  0.0996  0.0595
 3594DOPS   GL242172   1.237  24.608  10.316  0.1116  0.0280  0.1389
 3594DOPS   C1A42173   0.829  24.810  10.535  0.2488 -0.1110  0.0725
 3594DOPS   D2A42174   1.212  25.022  10.738 -0.2144  0.1477  0.0053
 3594DOPS   C3A42175   1.293  24.963  11.196  0.1778 -0.1168 -0.0009
 3594DOPS   C4A42176   1.630  25.018  11.520 -0.1107 -0.0551  0.1568
 3594DOPS   C1B42177   1.569  24.730  10.654 -0.0362 -0.2013  0.1096
 3594DOPS   D2B42178   1.798  24.906  11.029 -0.1402  0.0539  0.1213
 3594DOPS   C3B42179   1.832  24.572  11.394 -0.2476 -0.0512  0.3824
 3594DOPS   C4B42180   2.100  24.595  11.738 -0.2796 -0.1166 -0.0610
 3595DOPC   NC342181  28.748  24.132   9.487 -0.2177 -0.0283  0.1221
 3595DOPC   PO442182  28.892  23.970   9.837 -0.1441  0.4192  0.2615
 3595DOPC   GL142183  28.542  24.174   9.979 -0.2335 -0.0731  0.1219
 3595DOPC   GL242184  28.535  24.409  10.249  0.2877 -0.0447 -0.0600
 3595DOPC   C1A42185  28.199  24.021  10.250  0.0917 -0.1885 -0.0394
 3595DOPC   D2A42186  27.872  24.058  10.586 -0.0527  0.0908  0.1667
 3595DOPC   C3A42187  27.908  24.130  11.019 -0.2701  0.0769 -0.0185
 3595DOPC   C4A42188  28.005  24.306  11.470  0.0084 -0.2281  0.0955
 3595DOPC   C1B42189  28.585  24.400  10.747  0.2871 -0.1109 -0.1236
 3595DOPC   D2B42190  28.340  24.486  11.134  0.1251  0.3149  0.0462
 3595DOPC   C3B42191  28.559  24.452  11.540 -0.4000  0.0448  0.1752
 3595DOPC   C4B42192  28.958  24.313  11.771 -0.0555  0.0056 -0.4244
 3596DOPC   NC342193  31.661  29.025   9.106  0.0290 -0.0458  0.2818
 3596DOPC   PO442194  31.369  28.775   9.111 -0.0076 -0.1637 -0.1010
 3596DOPC   GL142195  31.159  28.481   9.294 -0.3102 -0.0805  0.5669
 3596DOPC   GL242196  31.254  28.428   9.581  0.0700 -0.1625  0.1730
 3596DOPC   C1A42197  30.815  28.673   9.572  0.0009 -0.0351  0.0099
 3596DOPC   D2A42198  30.593  28.856   9.863  0.1579 -0.2420 -0.1169
 3596DOPC   C3A42199  30.503  29.021  10.227  0.0978 -0.0154  0.0560
 3596DOPC   C4A42200  30.467  29.029  10.633  0.0673 -0.0534  0.3991
 3596DOPC   C1B42201  31.459  28.732   9.797  0.0817  0.1671 -0.0446
 3596DOPC   D2B42202  31.385  28.965  10.198  0.3340 -0.1501 -0.0517
 3596DOPC   C3B42203  31.325  29.237  10.511  0.2028  0.0744  0.2731
 3596DOPC   C4B42204  31.181  29.677  10.723  0.0281 -0.0617 -0.2482
 3597DOPE   NH342205  28.304  27.089   9.528  0.1765 -0.4154  0.1610
 3597DOPE   PO442206  28.157  26.817   9.647  0.1870  0.4435  0.0960
 3597DOPE   GL142207  28.095  27.036   9.941 -0.1239 -0.0414 -0.4163
 3597DOPE   GL242208  28.380  27.048  10.028 -0.0309  0.2494  0.2239
 3597DOPE   C1A42209  27.761  27.154  10.202  0.3150  0.0322  0.0984
 3597DOPE   D2A42210  27.336  27.227  10.334 -0.0111 -0.1458  0.2161
 3597DOPE   C3A42211  27.190  27.235  10.765 -0.1751 -0.0592  0.0944
 3597DOPE   C4A42212  27.380  27.447  11.099  0.4779 -0.2588  0.3796
 3597DOPE   C1B42213  28.616  27.313  10.216  0.2865 -0.3595 -0.0526
 3597DOPE   D2B42214  28.947  27.547  10.456 -0.1093 -0.1560 -0.0487
 3597DOPE   C3B42215  29.139  27.935  10.330 -0.4923 -0.1466  0.2095
 3597DOPE   C4B42216  29.088  28.394  10.241 -0.0913  0.0024  0.1900
 3598DOPC   NC342217  34.156  33.957   9.431 -0.1440 -0.0608 -0.0455
 3598DOPC   PO442218  33.786  34.013   9.508 -0.0912 -0.0992  0.1305
 3598DOPC   GL142219  33.988  34.110   9.899 -0.2146 -0.0312  0.0931
 3598DOPC   GL242220  33.875  34.380   9.866 -0.1835  0.0219  0.2781
 3598DOPC   C1A42221  33.706  34.117  10.221  0.0129  0.1325 -0.1974
 3598DOPC   D2A42222  33.383  34.323  10.423  0.2546 -0.1406 -0.2002
 3598DOPC   C3A42223  33.409  34.680  10.686  0.1184 -0.1934  0.0214
 3598DOPC   C4A42224  33.275  34.742  11.097  0.1060 -0.2859 -0.0808
 3598DOPC   C1B42225  33.789  34.670  10.243 -0.0244 -0.0851  0.0717
 3598DOPC   D2B42226  33.776  35.030  10.481 -0.0328 -0.0042  0.2591
 3598DOPC   C3B42227  33.863  34.932  10.932  0.0465 -0.0954 -0.1118
 3598DOPC   C4B42228  33.677  34.892  11.343  0.2368  0.2341  0.1976
 3599POSM   NC342229  26.939  28.109   9.115 -0.2817  0.0492  0.4330
 3599POSM   PO442230  27.245  28.278   9.251 -0.1736 -0.0693 -0.0635
 3599POSM   AM142231  27.066  28.363   9.509 -0.0235 -0.0872 -0.0751
 3599POSM   AM242232  26.829  28.345   9.654 -0.1954  0.0247 -0.2281
 3599POSM   T1A42233  27.075  28.648   9.904 -0.0173 -0.1489  0.1663
 3599POSM   C2A42234  27.301  28.488  10.327  0.0651 -0.3800 -0.1292
 3599POSM   C3A42235  27.349  28.264  10.718 -0.0498  0.1081  0.0600
 3599POSM   C1B42236  26.779  28.140   9.935 -0.4344 -0.1931  0.1890
 3599POSM   D2B42237  26.854  28.000  10.381 -0.1041 -0.0405  0.0348
 3599POSM   C3B42238  26.735  28.144  10.788  0.3746  0.2164 -0.1317
 3599POSM   C4B42239  26.476  27.942  11.109 -0.0015  0.0433 -0.0648
 3600DOPC   NC342240  26.074  33.009   9.326  0.0557 -0.0252  0.0185
 3600DOPC   PO442241  26.246  32.633   9.421 -0.0449 -0.0879  0.1467
 3600DOPC   GL142242  26.021  32.774   9.696 -0.1924  0.1202  0.2873
 3600DOPC   GL242243  25.969  32.524   9.886  0.1669 -0.1445  0.2196
 3600DOPC   C1A42244  25.866  33.183   9.916 -0.2862 -0.2144  0.0759
 3600DOPC   D2A42245  25.750  33.144  10.398 -0.1792 -0.2026  0.1512
 3600DOPC   C3A42246  25.446  33.045  10.753 -0.4162  0.1793  0.1362
 3600DOPC   C4A42247  25.302  33.146  11.184  0.0500 -0.2873 -0.1094
 3600DOPC   C1B42248  26.078  32.691  10.304 -0.1674 -0.3364 -0.0729
 3600DOPC   D2B42249  26.423  32.536  10.610 -0.2519 -0.1316 -0.2007
 3600DOPC   C3B42250  26.417  32.065  10.801  0.0474  0.0564  0.2820
 3600DOPC   C4B42251  26.324  31.619  10.988 -0.1510 -0.1926 -0.2406
 3601DOPC   NC342252  32.320  31.796   9.410  0.2004 -0.3117 -0.0874
 3601DOPC   PO442253  31.963  31.972   9.388 -0.2722 -0.0592  0.0987
 3601DOPC   GL142254  32.040  32.079   9.763 -0.1256 -0.1136  0.1662
 3601DOPC   GL242255  32.145  31.789   9.850  0.0980  0.0585 -0.1334
 3601DOPC   C1A42256  31.705  32.024  10.120 -0.0994  0.1508 -0.0152
 3601DOPC   D2A42257  31.379  31.974  10.453 -0.4439 -0.1592  0.0226
 3601DOPC   C3A42258  31.348  32.139  10.860  0.1474 -0.1509  0.0971
 3601DOPC   C4A42259  31.518  32.543  11.023  0.4115  0.2374 -0.4107
 3601DOPC   C1B42260  32.230  31.516  10.156  0.2000  0.2562 -0.1498
 3601DOPC   D2B42261  32.169  31.060  10.116 -0.1413 -0.2790 -0.0576
 3601DOPC   C3B42262  31.832  30.886  10.267  0.0798  0.0115 -0.1163
 3601DOPC   C4B42263  31.630  30.561  10.551  0.0968  0.1616  0.0961
 3602DOPE   NH342264  26.488   1.134   9.478 -0.0382  0.0143  0.2172
 3602DOPE   PO442265  26.706   1.316   9.298  0.0832 -0.0784 -0.1342
 3602DOPE   GL142266  26.932   1.159   9.597  0.1679  0.0034 -0.1517
 3602DOPE   GL242267  27.278   1.181   9.671  0.0279 -0.1837  0.1654
 3602DOPE   C1A42268  26.916   0.840   9.919  0.2039 -0.0777 -0.1260
 3602DOPE   D2A42269  27.150   0.835  10.331 -0.0150 -0.0932  0.2800
 3602DOPE   C3A42270  27.436   0.575  10.457 -0.2660 -0.0209  0.0814
 3602DOPE   C4A42271  27.908   0.535  10.512 -0.2566 -0.1844  0.0356
 3602DOPE   C1B42272  27.525   1.109  10.090  0.0580  0.1133 -0.0208
 3602DOPE   D2B42273  27.607   1.042  10.511  0.0503 -0.0578  0.1310
 3602DOPE   C3B42274  27.445   1.222  10.889 -0.1803  0.1247 -0.0758
 3602DOPE   C4B42275  27.330   1.550  11.191  0.0209 -0.0589  0.1695
 3603DOPE   NH342276  26.818  34.752   9.223 -0.0227  0.0884 -0.3357
 3603DOPE   PO442277  26.538  34.857   9.118 -0.3405 -0.0767 -0.2379
 3603DOPE   GL142278  26.484  34.678   9.528  0.2264 -0.0901 -0.0116
 3603DOPE   GL242279  26.219  34.707   9.618 -0.0136 -0.3024 -0.1967
 3603DOPE   C1A42280  26.612  34.877   9.923 -0.2067 -0.0258 -0.1989
 3603DOPE   D2A42281  26.740  34.859  10.370  0.1475 -0.0692  0.4455
 3603DOPE   C3A42282  26.451  34.660  10.706  0.1724  0.0788  0.2616
 3603DOPE   C4A42283  26.351  34.568  11.160 -0.0642 -0.2124 -0.1443
 3603DOPE   C1B42284  26.124  34.726  10.055 -0.0370 -0.1245 -0.1328
 3603DOPE   D2B42285  26.192  35.068  10.424 -0.0036 -0.1779  0.1404
 3603DOPE   C3B42286  26.016  34.971  10.819 -0.0240 -0.0727 -0.0705
 3603DOPE   C4B42287  25.822  34.676  11.163  0.0738  0.0844 -0.1980
 3604DOPC   NC342288  24.347  30.558   9.438 -0.2648  0.1895 -0.0625
 3604DOPC   PO442289  23.982  30.684   9.338 -0.0638 -0.0092 -0.2686
 3604DOPC   GL142290  24.013  30.765   9.748  0.2914 -0.0734  0.1840
 3604DOPC   GL242291  24.150  30.592   9.912  0.1888  0.0846  0.1043
 3604DOPC   C1A42292  23.711  30.978  10.001 -0.0441  0.1470 -0.0707
 3604DOPC   D2A42293  23.492  31.224  10.355 -0.1750  0.1933  0.4308
 3604DOPC   C3A42294  23.469  31.189  10.830 -0.2312 -0.3339  0.1126
 3604DOPC   C4A42295  23.436  31.161  11.317 -0.0178 -0.0061 -0.2292
 3604DOPC   C1B42296  24.055  30.665  10.339 -0.0229  0.0619  0.1488
 3604DOPC   D2B42297  23.880  31.013  10.607  0.0213  0.0813 -0.1613
 3604DOPC   C3B42298  23.910  31.425  10.842 -0.1330 -0.1327 -0.3096
 3604DOPC   C4B42299  23.973  31.536  11.312 -0.0511  0.1425 -0.1983
 3605DOPE   NH342300  31.999  25.492   9.728 -0.2004  0.0396  0.1808
 3605DOPE   PO442301  32.154  25.733   9.788  0.3570  0.1303 -0.0033
 3605DOPE   GL142302  32.119  25.900  10.179  0.1136  0.1167  0.0784
 3605DOPE   GL242303  31.801  25.898  10.183  0.2729 -0.1076  0.2132
 3605DOPE   C1A42304  32.174  25.933  10.632  0.2635  0.3180 -0.0944
 3605DOPE   D2A42305  32.591  26.054  10.695  0.2648 -0.1470  0.0702
 3605DOPE   C3A42306  32.579  26.355  11.041 -0.0087 -0.2287  0.0250
 3605DOPE   C4A42307  32.665  26.534  11.442 -0.2447  0.0977 -0.0308
 3605DOPE   C1B42308  31.577  26.350  10.245  0.2485  0.1209  0.2645
 3605DOPE   D2B42309  31.690  26.773  10.446 -0.0718 -0.0507 -0.0479
 3605DOPE   C3B42310  31.583  26.935  10.880  0.2593 -0.1893 -0.1496
 3605DOPE   C4B42311  31.532  26.891  11.376 -0.1551  0.0085  0.0368
 3606DOPS   CNO42312  28.358  34.240   8.701  0.1893  0.2213  0.1553
 3606DOPS   PO442313  28.451  34.557   8.938  0.0024  0.0121 -0.1864
 3606DOPS   GL142314  28.271  34.345   9.220 -0.2605  0.3160 -0.2976
 3606DOPS   GL242315  28.212  34.509   9.433 -0.1664 -0.2590  0.0400
 3606DOPS   C1A42316  28.444  34.108   9.560  0.1741 -0.3792 -0.2234
 3606DOPS   D2A42317  28.294  33.934  10.010 -0.0475  0.0563 -0.1147
 3606DOPS   C3A42318  28.609  33.585  10.126 -0.0861  0.1853  0.0061
 3606DOPS   C4A42319  28.589  33.144   9.963  0.3501 -0.0331 -0.2065
 3606DOPS   C1B42320  28.378  34.492   9.888 -0.1057 -0.0806  0.0647
 3606DOPS   D2B42321  28.518  34.367  10.351 -0.1142 -0.2003  0.0827
 3606DOPS   C3B42322  28.207  34.370  10.713  0.0542  0.0470  0.0936
 3606DOPS   C4B42323  27.698  34.367  10.578 -0.0087 -0.0888 -0.2236
 3607DOPC   NC342324  25.630   1.665   9.261 -0.1785  0.0684 -0.1979
 3607DOPC   PO442325  25.747   2.037   9.322 -0.0113  0.3230  0.0912
 3607DOPC   GL142326  25.745   1.946   9.698  0.0586  0.0884  0.4813
 3607DOPC   GL242327  25.914   1.726   9.729 -0.4069  0.2293  0.0017
 3607DOPC   C1A42328  25.642   2.119  10.083  0.2188  0.2388 -0.0798
 3607DOPC   D2A42329  25.594   2.231  10.492  0.0178 -0.2111  0.0768
 3607DOPC   C3A42330  25.556   1.951  10.907 -0.1657  0.2871  0.1833
 3607DOPC   C4A42331  25.664   1.689  11.259  0.0466  0.2729  0.0906
 3607DOPC   C1B42332  25.982   1.727  10.190  0.3856 -0.2031 -0.1821
 3607DOPC   D2B42333  26.405   1.726  10.402  0.1249 -0.0392 -0.0434
 3607DOPC   C3B42334  26.821   1.580  10.369  0.1000  0.0546  0.1713
 3607DOPC   C4B42335  27.186   1.307  10.398  0.0968 -0.1875 -0.2716
 3608POSM   NC342336  30.933  30.872   8.635 -0.1022  0.1302  0.2909
 3608POSM   PO442337  31.150  30.860   8.944  0.2680 -0.2107  0.0417
 3608POSM   AM142338  31.016  30.742   9.224 -0.4501  0.0145  0.1126
 3608POSM   AM242339  31.109  30.678   9.452  0.1431 -0.1110  0.0222
 3608POSM   T1A42340  30.708  31.027   9.548  0.2482 -0.3199  0.3338
 3608POSM   C2A42341  30.592  31.400   9.818  0.1343 -0.0292 -0.0281
 3608POSM   C3A42342  30.245  31.602  10.096 -0.1861  0.0476  0.1398
 3608POSM   C1B42343  31.043  30.599   9.790 -0.0872 -0.3645  0.3279
 3608POSM   D2B42344  31.229  30.640  10.189  0.1851 -0.2415  0.0463
 3608POSM   C3B42345  30.993  30.806  10.592  0.2036 -0.2222 -0.0336
 3608POSM   C4B42346  30.741  30.711  10.989  0.1588  0.0536 -0.0556
 3609DOPC   NC342347  25.245  29.896   9.409 -0.0561 -0.2003 -0.2705
 3609DOPC   PO442348  25.110  30.172   9.219  0.0481  0.1760 -0.0948
 3609DOPC   GL142349  25.238  30.478   9.485  0.0451 -0.4715  0.0178
 3609DOPC   GL242350  25.511  30.312   9.540  0.0753 -0.3526 -0.2523
 3609DOPC   C1A42351  25.058  30.758   9.851 -0.2500 -0.3741 -0.1423
 3609DOPC   D2A42352  25.284  31.051  10.202 -0.1207 -0.3099  0.4374
 3609DOPC   C3A42353  25.355  30.966  10.691  0.1397 -0.1647 -0.1084
 3609DOPC   C4A42354  25.116  31.011  11.066 -0.1656  0.0400  0.0672
 3609DOPC   C1B42355  25.368  30.348   9.984 -0.0630 -0.2677  0.3527
 3609DOPC   D2B42356  25.309  30.591  10.355  0.3368  0.2595  0.2044
 3609DOPC   C3B42357  24.901  30.685  10.542  0.2949 -0.0082  0.3778
 3609DOPC   C4B42358  24.476  30.468  10.655  0.3262  0.1188 -0.2373
 3610POSM   NC342359  30.289  34.246   9.226  0.2583 -0.1475 -0.0016
 3610POSM   PO442360  30.551  34.516   9.145 -0.0482 -0.1287 -0.2661
 3610POSM   AM142361  30.605  34.497   9.454 -0.0783  0.2080 -0.2414
 3610POSM   AM242362  30.806  34.583   9.646  0.1403 -0.0399  0.0583
 3610POSM   T1A42363  30.429  34.658   9.912 -0.0443 -0.0870  0.0957
 3610POSM   C2A42364  30.184  34.776  10.237  0.5524  0.0527  0.1295
 3610POSM   C3A42365  30.191  34.640  10.745  0.1745  0.2043  0.2556
 3610POSM   C1B42366  30.885  34.542   9.941 -0.0516  0.4428 -0.1336
 3610POSM   D2B42367  30.782  34.660  10.350  0.2607  0.1583 -0.0981
 3610POSM   C3B42368  30.889  34.316  10.614  0.0680  0.1632 -0.4287
 3610POSM   C4B42369  30.755  34.043  10.941 -0.1815  0.1453 -0.2638
 3611DOPE   NH342370  26.602  32.738   9.052 -0.1065  0.0673 -0.1480
 3611DOPE   PO442371  26.500  33.009   9.067  0.3698  0.1587 -0.0354
 3611DOPE   GL142372  26.488  33.319   9.436  0.3114 -0.3987  0.3715
 3611DOPE   GL242373  26.531  33.050   9.600 -0.0851 -0.1323 -0.4892
 3611DOPE   C1A42374  26.807  33.498   9.762  0.0216  0.0625 -0.1104
 3611DOPE   D2A42375  27.214  33.529   9.921  0.0774  0.1644  0.3022
 3611DOPE   C3A42376  27.310  33.510  10.393 -0.1773  0.1273  0.0231
 3611DOPE   C4A42377  27.265  33.431  10.811 -0.1086  0.2027 -0.0569
 3611DOPE   C1B42378  26.487  32.825   9.973 -0.0151  0.0350  0.1468
 3611DOPE   D2B42379  26.373  33.117  10.319  0.0276 -0.0051  0.0968
 3611DOPE   C3B42380  26.201  32.960  10.707  0.1542 -0.0986 -0.0474
 3611DOPE   C4B42381  26.251  32.656  11.091 -0.0671 -0.0110 -0.0358
 3612DOPE   NH342382  32.064  31.108   9.242 -0.0413  0.1790 -0.0504
 3612DOPE   PO442383  31.935  31.378   9.305 -0.3144  0.0048  0.1820
 3612DOPE   GL142384  31.772  31.258   9.613 -0.3728  0.1045 -0.2357
 3612DOPE   GL242385  31.816  30.970   9.712  0.1492  0.1777 -0.2715
 3612DOPE   C1A42386  31.796  31.389  10.029  0.2687  0.2469  0.0837
 3612DOPE   D2A42387  31.771  31.617  10.457 -0.0018 -0.0861  0.0845
 3612DOPE   C3A42388  31.479  31.591  10.847 -0.0396 -0.1317  0.2336
 3612DOPE   C4A42389  31.161  31.522  11.117  0.0854  0.2471 -0.0230
 3612DOPE   C1B42390  31.611  30.625   9.848 -0.1118  0.1524 -0.2037
 3612DOPE   D2B42391  31.372  30.246   9.980  0.1952  0.0396 -0.1227
 3612DOPE   C3B42392  31.287  30.195  10.434 -0.0731  0.0305 -0.1615
 3612DOPE   C4B42393  31.009  30.298  10.781 -0.0478 -0.1284  0.2233
 3613DOPS   CNO42394  28.377  21.930  10.025  0.3170 -0.1180 -0.2011
 3613DOPS   PO442395  28.068  21.825   9.865  0.1294  0.0421 -0.0821
 3613DOPS   GL142396  28.040  22.187  10.098 -0.1533 -0.0780 -0.2007
 3613DOPS   GL242397  27.886  22.119  10.290 -0.1449  0.5286  0.1555
 3613DOPS   C1A42398  28.292  22.219  10.492 -0.2382 -0.0076  0.0430
 3613DOPS   D2A42399  28.622  22.484  10.736 -0.2260  0.2508 -0.1915
 3613DOPS   C3A42400  28.550  22.479  11.229  0.1004 -0.0821 -0.1396
 3613DOPS   C4A42401  28.322  22.210  11.498  0.3557 -0.1979 -0.1443
 3613DOPS   C1B42402  27.702  22.455  10.460 -0.0404 -0.2146  0.0917
 3613DOPS   D2B42403  27.596  22.613  10.778  0.0073  0.0268  0.2902
 3613DOPS   C3B42404  27.778  22.888  11.154 -0.0600  0.2072 -0.3195
 3613DOPS   C4B42405  28.016  22.646  11.490 -0.2928  0.0735  0.1885
 3614DOPE   NH342406  23.937  25.569   9.608  0.1384 -0.1346 -0.1248
 3614DOPE   PO442407  23.773  25.279   9.677 -0.1123  0.1734  0.0118
 3614DOPE   GL142408  23.738  25.421  10.011  0.0703 -0.3760  0.0390
 3614DOPE   GL242409  23.735  25.708  10.155  0.2741 -0.0920 -0.3990
 3614DOPE   C1A42410  23.919  25.403  10.431 -0.3079 -0.1120 -0.0893
 3614DOPE   D2A42411  24.241  25.387  10.729 -0.2575 -0.0321  0.2297
 3614DOPE   C3A42412  24.194  25.547  11.177 -0.2230  0.1466  0.1948
 3614DOPE   C4A42413  24.168  25.660  11.622 -0.2590 -0.1122 -0.2429
 3614DOPE   C1B42414  23.642  25.764  10.611 -0.1718  0.0424 -0.4601
 3614DOPE   D2B42415  23.713  25.891  11.064  0.1320 -0.0651  0.3180
 3614DOPE   C3B42416  23.618  25.659  11.474 -0.3215  0.1013  0.1608
 3614DOPE   C4B42417  23.212  25.499  11.680  0.3332 -0.2057 -0.1086
 3615DOPE   NH342418  32.951  24.546  10.103  0.0089  0.2236  0.2209
 3615DOPE   PO442419  32.757  24.288   9.979  0.4020  0.0239  0.0811
 3615DOPE   GL142420  32.709  24.330  10.484 -0.0575 -0.0089  0.4562
 3615DOPE   GL242421  32.787  24.542  10.626 -0.0267 -0.0829  0.0699
 3615DOPE   C1A42422  32.838  24.081  10.845  0.2661 -0.0495  0.3033
 3615DOPE   D2A42423  33.212  23.856  11.041 -0.1962 -0.2286  0.0135
 3615DOPE   C3A42424  33.450  24.137  11.327 -0.0050 -0.1962  0.0412
 3615DOPE   C4A42425  33.728  24.325  11.685 -0.4236  0.1750 -0.0115
 3615DOPE   C1B42426  32.384  24.417  10.828 -0.0199  0.1360 -0.0690
 3615DOPE   D2B42427  32.068  24.406  11.149 -0.0103  0.4239  0.0090
 3615DOPE   C3B42428  32.073  24.487  11.564  0.0018  0.1572 -0.1850
 3615DOPE   C4B42429  31.979  24.485  12.019  0.3817  0.2348 -0.2131
 3616POSM   NC342430   1.846  34.410  10.073  0.0456  0.0411 -0.0138
 3616POSM   PO442431   1.957  34.701  10.313 -0.0159 -0.3855  0.1265
 3616POSM   AM142432   1.943  34.705  10.657 -0.0648 -0.0950 -0.1523
 3616POSM   AM242433   2.105  34.616  10.895 -0.0983 -0.2610 -0.3022
 3616POSM   T1A42434   1.788  34.954  11.034  0.1987  0.4406 -0.4950
 3616POSM   C2A42435   1.523  35.031  11.419  0.1411  0.1718  0.0064
 3616POSM   C3A42436   1.485  35.395  11.712 -0.1107  0.0401 -0.4836
 3616POSM   C1B42437   2.199  34.504  11.163 -0.1470 -0.1456  0.1776
 3616POSM   D2B42438   2.346  34.229  11.488  0.0702  0.3657 -0.1521
 3616POSM   C3B42439   2.561  34.300  11.901 -0.1526  0.2550 -0.2291
 3616POSM   C4B42440   2.516  34.582  12.218 -0.2870  0.1687 -0.1750
 3617DOPC   NC342441  31.438  31.447   9.332  0.0409  0.0438  0.3210
 3617DOPC   PO442442  31.459  31.023   9.345  0.0183  0.1441 -0.1358
 3617DOPC   GL142443  31.262  31.046   9.628 -0.1183  0.0860 -0.2142
 3617DOPC   GL242444  31.357  31.248   9.801  0.0082  0.0245  0.0552
 3617DOPC   C1A42445  30.959  31.031   9.997 -0.2535 -0.1385 -0.0130
 3617DOPC   D2A42446  30.677  31.183  10.317 -0.3271 -0.2867 -0.0814
 3617DOPC   C3A42447  30.281  31.312  10.578  0.0575  0.0958  0.0058
 3617DOPC   C4A42448  29.844  31.175  10.796  0.0969 -0.3214 -0.3224
 3617DOPC   C1B42449  31.410  31.172  10.257 -0.0787  0.0111 -0.1932
 3617DOPC   D2B42450  31.612  31.143  10.691  0.0980 -0.1698  0.2227
 3617DOPC   C3B42451  31.766  30.817  11.004  0.3000  0.0458 -0.1531
 3617DOPC   C4B42452  31.709  30.588  11.348 -0.2840  0.1561 -0.0836
 3618DOPC   NC342453  27.931  23.226   9.489  0.3356 -0.0040  0.1805
 3618DOPC   PO442454  27.814  22.911   9.671  0.4817  0.2722  0.0239
 3618DOPC   GL142455  27.846  22.824  10.089  0.0411 -0.3661 -0.0139
 3618DOPC   GL242456  28.049  22.662  10.180  0.1782  0.0044  0.2146
 3618DOPC   C1A42457  27.570  22.972  10.426 -0.0618 -0.0067 -0.3899
 3618DOPC   D2A42458  27.571  23.218  10.803  0.3456 -0.4556  0.1683
 3618DOPC   C3A42459  27.415  23.628  10.959  0.1283 -0.6272 -0.0901
 3618DOPC   C4A42460  27.154  23.886  11.239 -0.1658  0.1988  0.0814
 3618DOPC   C1B42461  28.509  22.705  10.291  0.0992 -0.2836 -0.0099
 3618DOPC   D2B42462  28.599  23.087  10.570  0.0841  0.0824  0.0878
 3618DOPC   C3B42463  28.328  23.251  10.905  0.1695  0.0398 -0.0335
 3618DOPC   C4B42464  28.267  23.047  11.294 -0.1369  0.0193  0.0069
 3619DOPE   NH342465  26.344  24.245   9.208  0.2046 -0.2289 -0.0179
 3619DOPE   PO442466  26.344  24.116   9.523  0.1591 -0.1873 -0.0896
 3619DOPE   GL142467  26.215  24.335   9.877  0.2295  0.0366  0.1153
 3619DOPE   GL242468  26.399  24.414  10.019 -0.1206 -0.1158 -0.2243
 3619DOPE   C1A42469  26.080  24.116  10.272 -0.0264  0.0103 -0.0419
 3619DOPE   D2A42470  25.952  23.733  10.546 -0.1825 -0.0559 -0.0114
 3619DOPE   C3A42471  25.862  23.731  10.987 -0.1678 -0.2225 -0.0573
 3619DOPE   C4A42472  25.839  23.870  11.391 -0.0328 -0.1271  0.0332
 3619DOPE   C1B42473  26.763  24.142  10.177 -0.1141 -0.0943  0.2943
 3619DOPE   D2B42474  26.888  23.781  10.416 -0.1180  0.3020  0.3090
 3619DOPE   C3B42475  26.443  23.780  10.542  0.1648  0.3897 -0.2084
 3619DOPE   C4B42476  26.261  23.391  10.278 -0.3512  0.0879 -0.0189
 3620DOPE   NH342477  30.631  29.272   8.437  0.1999 -0.3689  0.0682
 3620DOPE   PO442478  30.618  29.594   8.481 -0.1064 -0.0461  0.2408
 3620DOPE   GL142479  30.469  29.685   8.819 -0.0157  0.5719 -0.2962
 3620DOPE   GL242480  30.262  29.452   8.804 -0.3482  0.1597 -0.0239
 3620DOPE   C1A42481  30.582  29.872   9.218 -0.2045 -0.1239 -0.0626
 3620DOPE   D2A42482  30.419  29.805   9.637 -0.0958  0.2373 -0.2080
 3620DOPE   C3A42483  30.711  29.716  10.008 -0.2813 -0.2134 -0.1810
 3620DOPE   C4A42484  31.149  29.808  10.137  0.0378 -0.1587 -0.0516
 3620DOPE   C1B42485  30.493  29.390   9.186  0.0266 -0.0003 -0.1058
 3620DOPE   D2B42486  30.692  29.258   9.575 -0.0191  0.1722 -0.1133
 3620DOPE   C3B42487  30.346  29.353   9.862  0.2216  0.1680  0.1588
 3620DOPE   C4B42488  30.206  29.600  10.179  0.0845 -0.1723  0.1668
 3621POSM   NC342489  30.530  26.474   9.508 -0.0881 -0.1288 -0.2309
 3621POSM   PO442490  30.364  26.831   9.441  0.0136 -0.0731 -0.4336
 3621POSM   AM142491  30.337  27.082   9.633  0.1594 -0.1857 -0.2802
 3621POSM   AM242492  30.516  27.270   9.770  0.4828  0.0465 -0.1134
 3621POSM   T1A42493  30.080  27.068  10.059  0.2317 -0.0118  0.0038
 3621POSM   C2A42494  30.226  26.905  10.448  0.0929  0.0483 -0.0428
 3621POSM   C3A42495  30.039  26.921  10.883 -0.1539  0.1200 -0.1689
 3621POSM   C1B42496  30.679  27.264  10.029  0.1306 -0.1180 -0.3075
 3621POSM   D2B42497  30.941  27.206  10.323 -0.1591 -0.1577  0.0434
 3621POSM   C3B42498  30.860  27.471  10.695  0.1992 -0.1818  0.0975
 3621POSM   C4B42499  31.066  27.799  10.880 -0.0610  0.2071 -0.0424
 3622POSM   NC342500  33.315  28.894   9.393  0.1629  0.0893  0.2938
 3622POSM   PO442501  32.909  28.816   9.355  0.2538  0.3250 -0.1656
 3622POSM   AM142502  32.686  28.786   9.618 -0.3712  0.0603 -0.0057
 3622POSM   AM242503  32.432  28.899   9.722  0.0812 -0.1782  0.2333
 3622POSM   T1A42504  32.717  28.634  10.091 -0.3701  0.0940 -0.0487
 3622POSM   C2A42505  32.760  28.334  10.364  0.0322  0.2960 -0.0772
 3622POSM   C3A42506  32.831  27.901  10.498 -0.4593 -0.0749  0.0108
 3622POSM   C1B42507  32.503  29.038  10.008  0.0540 -0.1976  0.1062
 3622POSM   D2B42508  32.566  29.381  10.313  0.1701 -0.2275 -0.4984
 3622POSM   C3B42509  32.280  29.558  10.641 -0.0075  0.1390  0.1110
 3622POSM   C4B42510  32.148  29.730  11.087  0.0463  0.0851 -0.2725
 3623POSM   NC342511  25.379  31.441   8.883  0.0084  0.1319  0.1903
 3623POSM   PO442512  25.766  31.455   8.922 -0.2083  0.1489 -0.0503
 3623POSM   AM142513  25.707  31.530   9.256 -0.4305  0.4056  0.2990
 3623POSM   AM242514  25.918  31.688   9.480 -0.0984  0.1845  0.1149
 3623POSM   T1A42515  25.507  31.603   9.713 -0.1247 -0.1620  0.1572
 3623POSM   C2A42516  25.654  31.797  10.077  0.3102 -0.0509  0.3420
 3623POSM   C3A42517  25.755  31.791  10.537 -0.1383  0.1354  0.1293
 3623POSM   C1B42518  25.980  31.518   9.771 -0.2222 -0.0432  0.1797
 3623POSM   D2B42519  25.808  31.191  10.021  0.0519 -0.2403 -0.0281
 3623POSM   C3B42520  25.661  31.367  10.386  0.1499  0.1313  0.0611
 3623POSM   C4B42521  25.871  31.354  10.764 -0.2128 -0.1354  0.1590
 3624POSM   NC342522  30.909  26.070   9.250 -0.0918  0.1032  0.3108
 3624POSM   PO442523  30.992  26.300   9.510 -0.0016  0.4089  0.0412
 3624POSM   AM142524  30.961  26.573   9.689  0.3483  0.0792 -0.1706
 3624POSM   AM242525  30.774  26.755   9.791 -0.0263 -0.0319  0.0138
 3624POSM   T1A42526  31.217  26.873  10.001 -0.1821 -0.2727  0.1730
 3624POSM   C2A42527  31.397  27.224  10.253 -0.1587  0.0755  0.2105
 3624POSM   C3A42528  31.361  27.378  10.714  0.0447  0.1829 -0.1552
 3624POSM   C1B42529  30.771  26.790  10.150  0.1567  0.3499  0.0211
 3624POSM   D2B42530  30.700  26.800  10.590 -0.2443 -0.1296  0.0048
 3624POSM   C3B42531  30.473  27.157  10.786 -0.2567  0.0295 -0.1107
 3624POSM   C4B42532  30.288  27.554  10.860  0.1490  0.0300 -0.0782
 3625DOPC   NC342533  25.815  30.928   8.857 -0.0743 -0.4126  0.0949
 3625DOPC   PO442534  25.734  30.509   8.881 -0.1607  0.1195 -0.1477
 3625DOPC   GL142535  25.896  30.519   9.257  0.0209  0.5383  0.1099
 3625DOPC   GL242536  25.978  30.237   9.335 -0.0386 -0.2115  0.0375
 3625DOPC   C1A42537  26.163  30.755   9.598 -0.0427 -0.0637 -0.1452
 3625DOPC   D2A42538  26.649  30.732   9.803 -0.2201  0.1136 -0.1068
 3625DOPC   C3A42539  27.069  30.536   9.820  0.0119 -0.0268 -0.3131
 3625DOPC   C4A42540  27.467  30.337  10.037 -0.1655 -0.0304  0.0313
 3625DOPC   C1B42541  25.910  30.366   9.811  0.0248  0.0051 -0.1420
 3625DOPC   D2B42542  26.032  30.689  10.070 -0.2207 -0.0412 -0.1313
 3625DOPC   C3B42543  26.222  30.582  10.451  0.2549  0.3165 -0.2423
 3625DOPC   C4B42544  26.160  30.303  10.805  0.0546  0.0585 -0.0340
 3626DOPC   NC342545   1.483  25.026  10.279  0.0630  0.0092 -0.2816
 3626DOPC   PO442546   1.270  25.154   9.986  0.0256 -0.1769  0.0796
 3626DOPC   GL142547   1.010  25.235  10.254  0.0455  0.1829  0.0005
 3626DOPC   GL242548   1.156  25.449  10.454 -0.0305  0.2456 -0.3463
 3626DOPC   C1A42549   0.759  25.263  10.667 -0.1756 -0.0164  0.1553
 3626DOPC   D2A42550   0.432  25.412  10.923 -0.1489  0.1528  0.0679
 3626DOPC   C3A42551   0.529  25.335  11.382  0.1043  0.0082  0.1144
 3626DOPC   C4A42552   0.714  25.301  11.808  0.1785  0.0216  0.0364
 3626DOPC   C1B42553   1.242  25.653  10.797  0.2132  0.0594  0.0340
 3626DOPC   D2B42554   1.427  25.894  11.048 -0.1070 -0.0196 -0.0730
 3626DOPC   C3B42555   1.429  26.093  11.449  0.2805 -0.0220  0.0199
 3626DOPC   C4B42556   1.530  26.133  11.900 -0.1557 -0.1130  0.1343
 3627DOPE   NH342557  29.036  30.747   8.592  0.1195 -0.1594  0.0152
 3627DOPE   PO442558  29.330  30.710   8.479  0.0412 -0.1631 -0.1352
 3627DOPE   GL142559  29.516  30.584   8.701  0.1374  0.2223  0.5203
 3627DOPE   GL242560  29.480  30.626   8.973  0.1051 -0.2500 -0.0314
 3627DOPE   C1A42561  29.688  30.224   8.970 -0.1268  0.3494 -0.1232
 3627DOPE   D2A42562  29.785  30.230   9.439 -0.2354 -0.1389  0.2706
 3627DOPE   C3A42563  30.188  30.236   9.677 -0.3368 -0.4221  0.0906
 3627DOPE   C4A42564  30.409  30.148  10.075 -0.4122  0.0813 -0.0020
 3627DOPE   C1B42565  29.474  30.713   9.453  0.0691 -0.0040 -0.4038
 3627DOPE   D2B42566  29.815  30.699   9.775  0.0007 -0.1574  0.4556
 3627DOPE   C3B42567  29.905  30.469  10.113 -0.0520 -0.1978  0.1098
 3627DOPE   C4B42568  30.098  30.192  10.470 -0.2169 -0.2138  0.0785
 3628DOPC   NC342569  30.680  32.473   9.053 -0.0698  0.2082  0.1232
 3628DOPC   PO442570  30.397  32.611   8.834 -0.0460  0.2899  0.0450
 3628DOPC   GL142571  30.138  32.750   9.131 -0.2421 -0.1307 -0.1498
 3628DOPC   GL242572  30.329  32.850   9.239 -0.1202 -0.1643  0.1256
 3628DOPC   C1A42573  30.023  32.411   9.441  0.2955 -0.2874  0.0879
 3628DOPC   D2A42574  30.147  32.107   9.781 -0.3074  0.0247 -0.1127
 3628DOPC   C3A42575  30.297  31.797   9.534  0.0912  0.2300 -0.0570
 3628DOPC   C4A42576  30.435  31.422   9.294 -0.2404  0.2531 -0.2783
 3628DOPC   C1B42577  30.509  32.538   9.530  0.0884  0.0820 -0.0903
 3628DOPC   D2B42578  30.656  32.072   9.563 -0.0128  0.0240 -0.3164
 3628DOPC   C3B42579  30.651  31.979   9.999  0.0300  0.0390 -0.1662
 3628DOPC   C4B42580  30.612  31.794  10.433  0.0761 -0.3684 -0.1068
 3629DOPC   NC342581   0.117  29.793   9.632  0.1929  0.0343 -0.0866
 3629DOPC   PO442582   0.219  29.396   9.524 -0.1298 -0.1497 -0.5872
 3629DOPC   GL142583   0.210  29.269   9.917  0.1151 -0.2595  0.2376
 3629DOPC   GL242584   0.235  29.538  10.043 -0.0217  0.0431 -0.2029
 3629DOPC   C1A42585   0.392  29.135  10.304  0.1576 -0.1450 -0.2153
 3629DOPC   D2A42586   0.194  28.829  10.575 -0.2096  0.1320 -0.1515
 3629DOPC   C3A42587  -0.273  29.061  10.718 -0.0071 -0.1861 -0.1344
 3629DOPC   C4A42588  -0.610  29.354  10.608  0.0444 -0.1559  0.2209
 3629DOPC   C1B42589   0.099  29.947  10.149 -0.2290 -0.0385  0.0038
 3629DOPC   D2B42590  -0.040  30.099  10.591  0.2699 -0.0288 -0.1732
 3629DOPC   C3B42591  -0.150  29.759  10.893  0.0896 -0.2125 -0.2422
 3629DOPC   C4B42592  -0.361  29.424  11.054  0.0901  0.2507 -0.4634
 3630DOPS   CNO42593  31.237   2.526   9.646 -0.3335 -0.1113  0.0148
 3630DOPS   PO442594  31.191   2.543  10.030  0.0872  0.2813 -0.0118
 3630DOPS   GL142595  30.907   2.435  10.189 -0.1806 -0.1552  0.0424
 3630DOPS   GL242596  30.767   2.192  10.153 -0.1019  0.3618 -0.0417
 3630DOPS   C1A42597  30.665   2.658  10.515  0.0204 -0.2453  0.2240
 3630DOPS   D2A42598  30.225   2.556  10.581 -0.0444  0.0388  0.0174
 3630DOPS   C3A42599  30.296   2.500  11.054 -0.0719 -0.1134 -0.1160
 3630DOPS   C4A42600  30.291   2.483  11.502  0.2137 -0.2777 -0.1129
 3630DOPS   C1B42601  30.903   2.056  10.609  0.0077 -0.0750 -0.1511
 3630DOPS   D2B42602  30.805   1.810  11.017  0.1920 -0.2939  0.1288
 3630DOPS   C3B42603  31.177   1.498  11.068  0.0036 -0.0065  0.4147
 3630DOPS   C4B42604  31.411   1.565  11.494  0.0383  0.1166 -0.5052
 3631POSM   NC342605  33.311  28.175   9.320  0.2893  0.0791  0.1922
 3631POSM   PO442606  33.162  28.458   9.590 -0.1522  0.2228  0.0521
 3631POSM   AM142607  33.071  28.195   9.749  0.1454 -0.1237  0.0579
 3631POSM   AM242608  33.045  28.225  10.024  0.0612 -0.2283 -0.1016
 3631POSM   T1A42609  32.750  27.846   9.863 -0.0034  0.3692  0.2315
 3631POSM   C2A42610  32.641  27.522  10.141 -0.1969 -0.0544 -0.4984
 3631POSM   C3A42611  32.296  27.370  10.455  0.1252 -0.0266  0.0084
 3631POSM   C1B42612  33.351  28.168  10.219  0.0224  0.0520 -0.2731
 3631POSM   D2B42613  33.484  28.070  10.666  0.1829 -0.1310 -0.1994
 3631POSM   C3B42614  33.336  28.030  11.100  0.3080  0.0669  0.2311
 3631POSM   C4B42615  33.353  28.213  11.574  0.1473  0.1006  0.1739
 3632DOPS   CNO42616  31.547   0.333   9.196 -0.0954  0.6880  0.0667
 3632DOPS   PO442617  31.638  -0.054   9.251  0.2764 -0.1039 -0.1265
 3632DOPS   GL142618  31.578  -0.315   9.595 -0.0144  0.2062 -0.0349
 3632DOPS   GL242619  31.836  -0.193   9.723 -0.1097  0.0795 -0.1271
 3632DOPS   C1A42620  31.395  -0.548   9.934  0.1316  0.1878 -0.1139
 3632DOPS   D2A42621  31.092  -0.718  10.198 -0.2078  0.2878 -0.0656
 3632DOPS   C3A42622  30.942  -1.020  10.538 -0.4433  0.1110  0.0168
 3632DOPS   C4A42623  31.129  -1.477  10.569  0.1688  0.1072  0.0888
 3632DOPS   C1B42624  31.951  -0.115  10.211 -0.0556 -0.1968 -0.1603
 3632DOPS   D2B42625  32.238  -0.224  10.534 -0.0940  0.0348  0.2523
 3632DOPS   C3B42626  32.578   0.069  10.378 -0.0923 -0.0580 -0.1109
 3632DOPS   C4B42627  32.764   0.472  10.225 -0.2551  0.1161 -0.1246
 3633POSM   NC342628  25.016  28.797   9.385 -0.1590  0.0907  0.0754
 3633POSM   PO442629  24.641  28.954   9.348  0.1981  0.0382 -0.0990
 3633POSM   AM142630  24.668  29.041   9.663 -0.2700  0.0714  0.0812
 3633POSM   AM242631  24.886  29.209   9.783 -0.0548 -0.1144 -0.0198
 3633POSM   T1A42632  24.530  29.186  10.138 -0.1104 -0.1555  0.1023
 3633POSM   C2A42633  24.328  29.243  10.547 -0.0416 -0.1288  0.2430
 3633POSM   C3A42634  24.055  29.282  10.914 -0.0177 -0.0617  0.1303
 3633POSM   C1B42635  25.029  29.259  10.119 -0.0988 -0.2430 -0.0528
 3633POSM   D2B42636  25.212  29.204  10.522  0.1370 -0.0712  0.0510
 3633POSM   C3B42637  25.604  29.416  10.702 -0.1900  0.0556 -0.1684
 3633POSM   C4B42638  25.966  29.275  10.855  0.0289 -0.1430 -0.2719
 3634DOPC   NC342639  24.311  31.479   9.025 -0.0378 -0.0053  0.1180
 3634DOPC   PO442640  24.615  31.421   9.275 -0.2418  0.0560 -0.0572
 3634DOPC   GL142641  24.893  31.538   9.529  0.3086  0.2510  0.2228
 3634DOPC   GL242642  25.161  31.441   9.339 -0.2834  0.2927  0.1178
 3634DOPC   C1A42643  25.078  31.892   9.744 -0.1208 -0.3100  0.0057
 3634DOPC   D2A42644  25.443  32.159   9.894 -0.2759 -0.1807  0.1220
 3634DOPC   C3A42645  25.716  32.278  10.279  0.0500 -0.0761 -0.0608
 3634DOPC   C4A42646  25.992  32.330  10.691  0.4105  0.0346 -0.4379
 3634DOPC   C1B42647  25.339  31.129   9.646  0.1113  0.1696 -0.2511
 3634DOPC   D2B42648  25.556  30.782   9.945 -0.1890  0.1861  0.1152
 3634DOPC   C3B42649  25.750  30.854  10.396  0.0741  0.0753 -0.1530
 3634DOPC   C4B42650  25.940  30.755  10.871  0.1840 -0.0917  0.0088
 3635DOPC   NC342651  30.898  29.384   8.879 -0.2988  0.0623  0.1659
 3635DOPC   PO442652  31.278  29.303   8.926  0.0420  0.3058 -0.2221
 3635DOPC   GL142653  31.093  29.247   9.288 -0.0188 -0.0478 -0.2407
 3635DOPC   GL242654  30.915  29.015   9.220 -0.0287 -0.0760  0.0404
 3635DOPC   C1A42655  31.138  29.156   9.749 -0.0640  0.0769  0.3419
 3635DOPC   D2A42656  30.947  29.309  10.178 -0.2695  0.1704 -0.2863
 3635DOPC   C3A42657  30.590  29.480  10.421  0.1700 -0.3563 -0.1777
 3635DOPC   C4A42658  30.410  29.846  10.514 -0.1928  0.1052  0.2119
 3635DOPC   C1B42659  30.485  28.868   9.285  0.2835 -0.2561 -0.1405
 3635DOPC   D2B42660  30.089  29.096   9.348  0.0665 -0.0794  0.1897
 3635DOPC   C3B42661  29.920  29.023   9.775 -0.1868  0.0197 -0.1047
 3635DOPC   C4B42662  29.628  28.795  10.099  0.3512 -0.1783 -0.2178
 3636DOPC   NC342663  25.952  24.797   9.824 -0.1429  0.1233 -0.3150
 3636DOPC   PO442664  25.872  25.165   9.840 -0.1795 -0.2000  0.1434
 3636DOPC   GL142665  25.994  25.112  10.233  0.1534  0.0749  0.2955
 3636DOPC   GL242666  26.057  25.339  10.419  0.0142 -0.3049 -0.1702
 3636DOPC   C1A42667  25.668  25.017  10.517 -0.0639  0.0963 -0.0247
 3636DOPC   D2A42668  25.651  25.065  10.980 -0.1134  0.3360  0.1349
 3636DOPC   C3A42669  25.680  24.686  11.271 -0.0671 -0.0711 -0.2893
 3636DOPC   C4A42670  25.973  24.384  11.418 -0.1696  0.0506 -0.0789
 3636DOPC   C1B42671  26.447  25.190  10.615  0.3806  0.0029 -0.2550
 3636DOPC   D2B42672  26.776  25.073  10.900  0.2509  0.3011  0.4792
 3636DOPC   C3B42673  26.511  25.054  11.282  0.2484  0.0122 -0.1318
 3636DOPC   C4B42674  26.115  24.900  11.505  0.1666  0.2689 -0.1687
 3637POSM   NC342675  31.830  33.994   8.855  0.2020  0.1085  0.0349
 3637POSM   PO442676  32.213  34.031   8.896  0.3002 -0.0121  0.2585
 3637POSM   AM142677  32.160  33.982   9.213  0.1516 -0.2469 -0.0010
 3637POSM   AM242678  32.192  33.850   9.466 -0.1058 -0.2467  0.3088
 3637POSM   T1A42679  32.270  34.287   9.625 -0.1698  0.0629  0.0208
 3637POSM   C2A42680  32.343  34.643   9.920  0.2901  0.0456  0.0710
 3637POSM   C3A42681  32.225  35.057  10.037  0.0735  0.3309  0.0684
 3637POSM   C1B42682  32.145  33.752   9.781 -0.1212  0.0132  0.0011
 3637POSM   D2B42683  31.778  33.562   9.952  0.2314  0.1045  0.1930
 3637POSM   C3B42684  31.743  33.437  10.422 -0.0743 -0.0619 -0.1819
 3637POSM   C4B42685  31.794  33.438  10.857 -0.1001 -0.1723  0.0970
 3638POSM   NC342686  26.114  28.354   9.392 -0.1069 -0.0281 -0.1910
 3638POSM   PO442687  26.401  28.137   9.408 -0.0079  0.1836  0.0348
 3638POSM   AM142688  26.410  27.979   9.725  0.1995 -0.0609  0.0577
 3638POSM   AM242689  26.270  28.095   9.936  0.0597 -0.0526 -0.2147
 3638POSM   T1A42690  26.575  27.743  10.119  0.0165 -0.1804  0.0972
 3638POSM   C2A42691  26.322  27.637  10.575 -0.2529  0.3376  0.0463
 3638POSM   C3A42692  26.102  27.487  10.972 -0.1949  0.0802 -0.0928
 3638POSM   C1B42693  26.298  28.142  10.264 -0.1714 -0.2106  0.1648
 3638POSM   D2B42694  26.278  28.300  10.679 -0.2191  0.3603 -0.0466
 3638POSM   C3B42695  25.951  28.089  10.938  0.0344  0.0851 -0.4034
 3638POSM   C4B42696  25.576  28.000  11.194  0.0259 -0.1267 -0.0611
 3639DOPE   NH342697  28.975  27.407   9.078 -0.0726 -0.1480  0.1984
 3639DOPE   PO442698  29.079  27.697   9.046  0.1621  0.2347  0.1384
 3639DOPE   GL142699  29.218  27.695   9.435 -0.2520  0.0139 -0.0009
 3639DOPE   GL242700  29.519  27.825   9.489 -0.1881 -0.2960 -0.2444
 3639DOPE   C1A42701  29.399  27.426   9.751  0.0675  0.1064 -0.0206
 3639DOPE   D2A42702  29.614  27.280  10.070  0.1231  0.0270  0.2910
 3639DOPE   C3A42703  29.431  27.337  10.511 -0.0295  0.1593 -0.0069
 3639DOPE   C4A42704  29.162  27.265  10.876 -0.0220  0.0463 -0.2438
 3639DOPE   C1B42705  29.556  27.858   9.938 -0.0789  0.1576  0.0297
 3639DOPE   D2B42706  29.633  27.861  10.395  0.0770 -0.1105  0.0590
 3639DOPE   C3B42707  29.508  27.740  10.839  0.0144  0.2006 -0.1488
 3639DOPE   C4B42708  29.380  27.545  11.268 -0.3299  0.0616  0.0002
 3640DOPS   CNO42709  33.497  26.859   9.804  0.1653 -0.4533 -0.0058
 3640DOPS   PO442710  33.321  26.589  10.057 -0.1155 -0.0514  0.2049
 3640DOPS   GL142711  33.154  26.903  10.181  0.4461  0.1699  0.1468
 3640DOPS   GL242712  33.223  27.201  10.139 -0.0752  0.0653  0.2590
 3640DOPS   C1A42713  33.285  27.090  10.604 -0.0706 -0.0711  0.0764
 3640DOPS   D2A42714  33.295  27.227  11.054  0.2970  0.1075 -0.2781
 3640DOPS   C3A42715  33.471  27.587  11.328  0.0160  0.0802  0.1919
 3640DOPS   C4A42716  33.679  27.644  11.731  0.0254  0.1690  0.1334
 3640DOPS   C1B42717  33.555  27.430  10.421 -0.0339  0.1749  0.1089
 3640DOPS   D2B42718  33.648  27.642  10.871  0.1301 -0.0241 -0.0495
 3640DOPS   C3B42719  33.955  27.983  10.900  0.2704  0.1338 -0.2064
 3640DOPS   C4B42720  33.896  28.434  10.870  0.1657  0.2185 -0.0675
 3641DOPE   NH342721   0.289  34.668   9.885  0.4860 -0.0366 -0.1132
 3641DOPE   PO442722   0.443  34.726  10.167  0.2306  0.0247  0.1595
 3641DOPE   GL142723   0.811  34.561  10.355 -0.5974 -0.1058  0.0853
 3641DOPE   GL242724   0.658  34.405  10.546  0.0090 -0.1586  0.0086
 3641DOPE   C1A42725   0.947  34.834  10.738 -0.4634  0.2213 -0.4023
 3641DOPE   D2A42726   1.107  34.866  11.180 -0.0335  0.2162  0.0222
 3641DOPE   C3A42727   0.977  35.176  11.541  0.0109  0.1673 -0.1094
 3641DOPE   C4A42728   1.007  35.540  11.771 -0.0700 -0.2524 -0.1686
 3641DOPE   C1B42729   0.472  34.717  10.793 -0.0507 -0.1698  0.0071
 3641DOPE   D2B42730   0.542  34.741  11.277 -0.2520 -0.1949  0.0366
 3641DOPE   C3B42731   0.629  34.631  11.755 -0.3906  0.0040 -0.2568
 3641DOPE   C4B42732   0.585  34.751  12.224  0.1121 -0.0648 -0.0015
 3642DOPC   NC342733  23.357  30.529   9.277  0.0710  0.0840  0.2519
 3642DOPC   PO442734  23.636  30.338   9.093 -0.1766 -0.1513  0.0040
 3642DOPC   GL142735  23.612  30.257   9.568  0.2845 -0.0634 -0.1393
 3642DOPC   GL242736  23.643  30.479   9.730  0.0650  0.1930 -0.2307
 3642DOPC   C1A42737  23.490  30.068   9.966  0.0399  0.3300  0.1615
 3642DOPC   D2A42738  23.155  29.934  10.278  0.1640 -0.2559 -0.1740
 3642DOPC   C3A42739  22.929  29.715  10.613 -0.0330  0.0515 -0.1796
 3642DOPC   C4A42740  22.668  29.347  10.720  0.0995  0.2648  0.2154
 3642DOPC   C1B42741  23.623  30.487  10.170 -0.1979  0.2256 -0.1699
 3642DOPC   D2B42742  23.640  30.604  10.611  0.0057 -0.1224  0.1903
 3642DOPC   C3B42743  23.526  30.312  10.918 -0.0412  0.0029 -0.1384
 3642DOPC   C4B42744  23.272  29.876  10.916 -0.1200  0.0951 -0.1597
 3643DOPC   NC342745  26.053  25.510   8.998 -0.2530 -0.0128 -0.0219
 3643DOPC   PO442746  26.270  25.814   9.164 -0.0633 -0.1581  0.1305
 3643DOPC   GL142747  26.358  25.896   9.543  0.1360  0.2969  0.3062
 3643DOPC   GL242748  26.663  25.979   9.572 -0.0216 -0.0007 -0.1840
 3643DOPC   C1A42749  26.109  25.803   9.959 -0.1446 -0.1560  0.0205
 3643DOPC   D2A42750  26.000  25.789  10.434 -0.0397  0.0300  0.1282
 3643DOPC   C3A42751  26.024  25.637  10.843  0.1461 -0.0011  0.0582
 3643DOPC   C4A42752  26.142  25.273  11.094  0.2377  0.3782  0.0976
 3643DOPC   C1B42753  26.601  26.065  10.005 -0.2499  0.1931  0.0910
 3643DOPC   D2B42754  26.385  26.168  10.404  0.1657  0.0560 -0.2629
 3643DOPC   C3B42755  26.380  25.980  10.796  0.0653 -0.4190  0.2561
 3643DOPC   C4B42756  26.564  25.616  10.967 -0.2245 -0.0940 -0.4214
 3644POSM   NC342757  34.354  28.134  10.081  0.2681 -0.0406  0.3186
 3644POSM   PO442758  34.110  28.182   9.784 -0.2699  0.1057 -0.0480
 3644POSM   AM142759  33.973  28.398  10.008 -0.2110 -0.0312 -0.1486
 3644POSM   AM242760  33.911  28.418  10.294  0.1831 -0.1244  0.1282
 3644POSM   T1A42761  33.887  28.885  10.098  0.4563 -0.0258 -0.2032
 3644POSM   C2A42762  34.207  29.238  10.098  0.1247 -0.3967  0.1266
 3644POSM   C3A42763  34.631  29.205  10.212 -0.0574 -0.1388 -0.1797
 3644POSM   C1B42764  33.634  28.524  10.457  0.0108 -0.0374  0.2137
 3644POSM   D2B42765  33.467  28.644  10.832 -0.1275  0.0624 -0.1812
 3644POSM   C3B42766  33.538  28.440  11.207  0.2449  0.1511  0.0678
 3644POSM   C4B42767  33.760  28.033  11.366 -0.0941 -0.2206  0.0992
 3645POSM   NC342768  22.231  31.645   9.002  0.3275  0.1510 -0.1485
 3645POSM   PO442769  22.460  31.805   9.225 -0.0049  0.0036  0.3108
 3645POSM   AM142770  22.509  31.784   9.572  0.1849  0.0635  0.0418
 3645POSM   AM242771  22.463  31.973   9.773 -0.2220  0.3799  0.2282
 3645POSM   T1A42772  22.439  31.495   9.980 -0.0982  0.0147 -0.1456
 3645POSM   C2A42773  22.128  31.155  10.161 -0.2327 -0.1717 -0.1272
 3645POSM   C3A42774  22.151  30.871  10.577 -0.0149  0.2685  0.0560
 3645POSM   C1B42775  22.489  31.956  10.137 -0.0653  0.3445 -0.0647
 3645POSM   D2B42776  22.506  32.134  10.588  0.0253  0.1406 -0.1006
 3645POSM   C3B42777  22.472  32.583  10.597  0.2023 -0.0082 -0.1103
 3645POSM   C4B42778  22.111  32.818  10.830  0.1616 -0.4266 -0.1379
 3646DOPS   CNO42779  30.926  27.762   8.727  0.2219  0.0667 -0.1513
 3646DOPS   PO442780  30.661  27.999   8.874 -0.1071  0.1038  0.2426
 3646DOPS   GL142781  30.445  28.178   9.211  0.0176 -0.0015 -0.3170
 3646DOPS   GL242782  30.424  27.917   9.366 -0.2354  0.1211  0.0769
 3646DOPS   C1A42783  30.139  28.434   9.501 -0.0593  0.1757  0.1259
 3646DOPS   D2A42784  30.146  28.604   9.905 -0.2172 -0.2648 -0.1938
 3646DOPS   C3A42785  30.267  28.624  10.368  0.3841 -0.0485  0.1103
 3646DOPS   C4A42786  30.490  28.419  10.666 -0.0719  0.2446  0.2665
 3646DOPS   C1B42787  30.463  28.177   9.747  0.1256  0.0235  0.1935
 3646DOPS   D2B42788  30.690  28.405  10.085  0.4947  0.0488 -0.2504
 3646DOPS   C3B42789  30.812  28.087  10.383 -0.2445  0.2095  0.3381
 3646DOPS   C4B42790  30.519  27.919  10.668  0.5551 -0.1428  0.2098
 3647POSM   NC342791  24.930  26.183   9.213 -0.0042 -0.1392 -0.2627
 3647POSM   PO442792  24.798  26.429   9.478 -0.2775  0.0272  0.1541
 3647POSM   AM142793  24.772  26.366   9.798 -0.0091 -0.0365 -0.0857
 3647POSM   AM242794  24.928  26.214   9.955  0.0491 -0.0578  0.0696
 3647POSM   T1A42795  24.489  26.294  10.205  0.1544 -0.2755  0.2015
 3647POSM   C2A42796  24.238  26.413  10.588 -0.0447 -0.2256  0.2431
 3647POSM   C3A42797  23.821  26.265  10.815  0.2497  0.0042 -0.1338
 3647POSM   C1B42798  24.962  26.079  10.263 -0.2162 -0.4655 -0.2440
 3647POSM   D2B42799  24.741  26.136  10.621  0.2515 -0.1728  0.1030
 3647POSM   C3B42800  24.745  25.759  10.921 -0.1766  0.2823  0.1573
 3647POSM   C4B42801  25.076  25.501  11.135 -0.3097  0.1958 -0.0520
 3648DOPE   NH342802  28.832   1.197   9.117  0.0705 -0.0331 -0.0782
 3648DOPE   PO442803  29.157   1.126   9.072  0.1872 -0.0399 -0.1147
 3648DOPE   GL142804  29.102   1.182   9.511 -0.1045  0.4554  0.1707
 3648DOPE   GL242805  28.955   0.871   9.576 -0.1830 -0.1608 -0.4490
 3648DOPE   C1A42806  29.092   1.510   9.843  0.1516  0.2177  0.0711
 3648DOPE   D2A42807  28.702   1.684  10.099 -0.2506  0.0709 -0.1753
 3648DOPE   C3A42808  28.463   1.626  10.511  0.1670 -0.0623  0.2271
 3648DOPE   C4A42809  28.407   1.715  11.001 -0.2079  0.1667  0.3559
 3648DOPE   C1B42810  29.063   0.675  10.004  0.3158  0.0394 -0.1467
 3648DOPE   D2B42811  28.770   0.662  10.371  0.0960 -0.3911 -0.1602
 3648DOPE   C3B42812  28.584   0.959  10.608  0.0931 -0.2611  0.1645
 3648DOPE   C4B42813  28.139   1.089  10.680 -0.0870  0.0735 -0.0113
 3649DOPE   NH342814  25.546  25.588   9.832 -0.1514  0.1591  0.1797
 3649DOPE   PO442815  25.332  25.363   9.755 -0.0752  0.2411 -0.0476
 3649DOPE   GL142816  25.463  25.244  10.113 -0.0285 -0.1040  0.1322
 3649DOPE   GL242817  25.251  25.221  10.325  0.2157 -0.1956  0.0113
 3649DOPE   C1A42818  25.601  25.486  10.507 -0.2591  0.0256 -0.0833
 3649DOPE   D2A42819  25.612  25.916  10.746 -0.0866  0.0214  0.2646
 3649DOPE   C3A42820  25.895  26.047  11.044 -0.0404  0.1228 -0.0012
 3649DOPE   C4A42821  26.133  26.338  11.304  0.2016 -0.1682 -0.1537
 3649DOPE   C1B42822  25.205  25.097  10.742 -0.1904 -0.2738 -0.0702
 3649DOPE   D2B42823  25.236  25.016  11.163  0.0857 -0.0270 -0.1644
 3649DOPE   C3B42824  25.523  25.155  11.451  0.1698 -0.1011 -0.1764
 3649DOPE   C4B42825  25.519  25.397  11.905  0.1317  0.1286 -0.1155
 3650DOPE   NH342826  26.802  24.183   9.616 -0.0188  0.0205  0.1879
 3650DOPE   PO442827  27.012  24.457   9.662 -0.1297  0.0245 -0.1956
 3650DOPE   GL142828  26.857  24.713   9.880 -0.0924 -0.2523  0.1279
 3650DOPE   GL242829  26.907  24.995   9.839  0.0979 -0.0975  0.0239
 3650DOPE   C1A42830  26.899  24.626  10.319  0.0780 -0.0522  0.2076
 3650DOPE   D2A42831  26.978  24.495  10.709 -0.4489 -0.1556  0.3234
 3650DOPE   C3A42832  27.264  24.101  10.664  0.0442  0.0173 -0.2785
 3650DOPE   C4A42833  27.515  23.725  10.460 -0.1918  0.0557 -0.0341
 3650DOPE   C1B42834  26.971  25.102  10.281  0.0300  0.1848 -0.1485
 3650DOPE   D2B42835  27.320  24.893  10.464  0.0608 -0.0410  0.0734
 3650DOPE   C3B42836  27.278  24.850  10.940 -0.0989  0.0145  0.0520
 3650DOPE   C4B42837  27.399  24.954  11.390  0.1105  0.0912  0.2917
 3651DOPS   CNO42838  28.013  24.238   9.173  0.0786 -0.1312 -0.2135
 3651DOPS   PO442839  27.681  24.336   8.982  0.2419 -0.0685 -0.2970
 3651DOPS   GL142840  27.666  24.528   9.397 -0.2687 -0.2911 -0.0702
 3651DOPS   GL242841  27.913  24.565   9.512 -0.1678 -0.0503 -0.1061
 3651DOPS   C1A42842  27.600  24.473   9.855  0.0237  0.2396 -0.0054
 3651DOPS   D2A42843  27.493  24.474  10.261 -0.0812 -0.0248  0.1324
 3651DOPS   C3A42844  27.582  24.489  10.742 -0.0167  0.0480  0.1744
 3651DOPS   C4A42845  27.499  24.485  11.169 -0.1805  0.1821 -0.1722
 3651DOPS   C1B42846  28.056  24.858   9.865 -0.3158  0.3168  0.2305
 3651DOPS   D2B42847  28.393  24.878  10.161 -0.0743  0.2190  0.0057
 3651DOPS   C3B42848  28.601  24.856  10.620  0.0768  0.1724 -0.1266
 3651DOPS   C4B42849  28.878  24.718  11.022  0.0368  0.0419  0.1397
 3652POSM   NC342850  30.437  27.400   9.283 -0.3130 -0.2379  0.0748
 3652POSM   PO442851  30.762  27.617   9.189  0.0203  0.2243 -0.0710
 3652POSM   AM142852  30.867  27.586   9.488  0.1427  0.2652 -0.0983
 3652POSM   AM242853  30.841  27.776   9.712 -0.0213 -0.1577  0.2697
 3652POSM   T1A42854  31.139  27.419   9.896  0.0686 -0.1001 -0.2396
 3652POSM   C2A42855  31.237  27.682  10.321 -0.1560 -0.1720 -0.0647
 3652POSM   C3A42856  31.407  28.096  10.526  0.0986 -0.0149  0.1975
 3652POSM   C1B42857  30.688  27.755  10.023  0.0506 -0.0744 -0.0606
 3652POSM   D2B42858  30.404  27.529  10.342 -0.2244  0.1364 -0.3766
 3652POSM   C3B42859  29.955  27.454  10.497  0.0329 -0.0441 -0.2650
 3652POSM   C4B42860  29.777  27.298  10.916 -0.1317  0.1196 -0.1668
 3653POSM   NC342861  30.500  30.095   8.342 -0.2699 -0.4585 -0.1425
 3653POSM   PO442862  30.121  29.936   8.363 -0.0190  0.2575  0.0734
 3653POSM   AM142863  30.153  29.957   8.682  0.1085  0.0205  0.0454
 3653POSM   AM242864  30.282  30.108   8.876 -0.0093  0.0162 -0.0673
 3653POSM   T1A42865  30.013  29.744   9.093  0.1206  0.0222 -0.2838
 3653POSM   C2A42866  29.991  29.584   9.543  0.2318  0.0624 -0.1220
 3653POSM   C3A42867  29.887  29.885   9.887  0.2647 -0.0284  0.1387
 3653POSM   C1B42868  30.236  30.307   9.115  0.0865  0.0754 -0.0138
 3653POSM   D2B42869  30.048  30.668   9.366 -0.2139 -0.1153 -0.1075
 3653POSM   C3B42870  30.200  31.008   9.536 -0.1981  0.2585 -0.2037
 3653POSM   C4B42871  30.023  31.223   9.851 -0.1571  0.2096 -0.1272
 3654DOPE   NH342872  33.698  26.331  10.213  0.0581 -0.1282  0.2815
 3654DOPE   PO442873  33.446  26.118  10.225  0.3436  0.0235 -0.3265
 3654DOPE   GL142874  33.467  26.327  10.591 -0.0543 -0.4078  0.2884
 3654DOPE   GL242875  33.545  26.642  10.576  0.0013 -0.0660 -0.2193
 3654DOPE   C1A42876  33.608  26.184  10.976 -0.0483 -0.0577 -0.0397
 3654DOPE   D2A42877  33.608  25.931  11.381  0.1550 -0.2694 -0.0519
 3654DOPE   C3A42878  33.221  25.940  11.663  0.0748 -0.1224 -0.0429
 3654DOPE   C4A42879  32.918  25.792  11.968  0.1664 -0.1797  0.3665
 3654DOPE   C1B42880  33.489  26.772  11.014 -0.0113 -0.0422  0.3028
 3654DOPE   D2B42881  33.517  26.512  11.382  0.0560 -0.0637  0.0001
 3654DOPE   C3B42882  33.236  26.478  11.708  0.1799  0.0824  0.0777
 3654DOPE   C4B42883  32.884  26.406  11.917  0.1607 -0.2052 -0.0947
 3655DOPS   CNO42884  21.375  34.758   9.363  0.1791  0.0430  0.1846
 3655DOPS   PO442885  21.484  34.538   9.625  0.0534  0.0358  0.1908
 3655DOPS   GL142886  21.565  34.487  10.016  0.0670  0.0291  0.2367
 3655DOPS   GL242887  21.373  34.283  10.171 -0.4426  0.3080  0.1825
 3655DOPS   C1A42888  21.861  34.462  10.421 -0.0576  0.0554  0.0880
 3655DOPS   D2A42889  22.199  34.692  10.708 -0.1043  0.2564  0.2494
 3655DOPS   C3A42890  22.049  34.856  11.084 -0.0811  0.1424 -0.1957
 3655DOPS   C4A42891  21.736  34.711  11.430  0.0367  0.1938  0.2356
 3655DOPS   C1B42892  21.606  34.029  10.512 -0.3932  0.0680 -0.1692
 3655DOPS   D2B42893  21.672  33.794  10.893  0.0403  0.2671 -0.2122
 3655DOPS   C3B42894  21.355  33.579  11.170 -0.0021 -0.0251 -0.0375
 3655DOPS   C4B42895  21.108  33.389  11.545  0.3666  0.0127  0.3116
 3656DOPE   NH342896  32.551  33.248   9.384 -0.0470 -0.0697 -0.2332
 3656DOPE   PO442897  32.778  33.121   9.585  0.0137 -0.0694 -0.1951
 3656DOPE   GL142898  32.868  33.052   9.997 -0.0817  0.0634 -0.2407
 3656DOPE   GL242899  32.699  32.762   9.990  0.0042 -0.1198  0.0120
 3656DOPE   C1A42900  32.750  33.409  10.336 -0.3198  0.1705 -0.0709
 3656DOPE   D2A42901  32.563  33.629  10.736 -0.2197 -0.0453 -0.2141
 3656DOPE   C3A42902  32.725  33.982  10.949 -0.1676 -0.2833 -0.4044
 3656DOPE   C4A42903  32.555  34.342  11.249 -0.0657 -0.0902 -0.3196
 3656DOPE   C1B42904  32.548  32.727  10.443  0.3157  0.2718 -0.4210
 3656DOPE   D2B42905  32.766  33.110  10.712  0.0561 -0.3592 -0.1164
 3656DOPE   C3B42906  32.948  33.393  11.027  0.0820  0.0985  0.0475
 3656DOPE   C4B42907  33.085  33.749  11.279 -0.0057  0.0680 -0.1661
 3657POSM   NC342908  24.363  24.281   9.822 -0.1301  0.2197  0.1742
 3657POSM   PO442909  24.481  24.616   9.760 -0.1200  0.0971 -0.2203
 3657POSM   AM142910  24.509  24.877   9.974 -0.1318  0.0951  0.3505
 3657POSM   AM242911  24.339  25.055  10.133  0.0249  0.0429 -0.1106
 3657POSM   T1A42912  24.719  24.972  10.419  0.3730 -0.1537  0.1401
 3657POSM   C2A42913  24.807  24.724  10.795 -0.0571 -0.0939  0.1464
 3657POSM   C3A42914  24.808  24.859  11.266  0.0566  0.2562 -0.2423
 3657POSM   C1B42915  24.171  24.977  10.410 -0.0185 -0.1075 -0.1725
 3657POSM   D2B42916  23.873  25.038  10.730  0.1056  0.0018  0.1511
 3657POSM   C3B42917  23.704  25.409  10.972  0.0116  0.1145  0.2867
 3657POSM   C4B42918  23.256  25.575  11.081  0.0700  0.1853  0.2230
 3658POSM   NC342919  22.922  31.660   9.330 -0.0774  0.0036  0.2007
 3658POSM   PO442920  23.139  31.378   9.103 -0.2132  0.0934  0.0657
 3658POSM   AM142921  23.192  31.300   9.432  0.0869  0.1134  0.1507
 3658POSM   AM242922  23.449  31.357   9.578 -0.0505  0.1683 -0.2102
 3658POSM   T1A42923  23.151  31.244   9.925  0.0780 -0.2050 -0.2323
 3658POSM   C2A42924  23.203  30.890  10.162 -0.1573  0.0726 -0.2472
 3658POSM   C3A42925  23.141  30.501  10.393  0.0862  0.1158  0.0007
 3658POSM   C1B42926  23.492  31.551   9.896 -0.1826  0.1654  0.1870
 3658POSM   D2B42927  23.537  31.759  10.308 -0.2323  0.0387 -0.2986
 3658POSM   C3B42928  23.868  31.836  10.630  0.3062 -0.1692  0.0457
 3658POSM   C4B42929  24.113  31.929  10.976 -0.1590 -0.1650 -0.2627
 3659DOPC   NC342930  26.104  34.704   9.107  0.0333  0.1909 -0.1903
 3659DOPC   PO442931  25.930  34.340   9.025 -0.1668  0.1312  0.0619
 3659DOPC   GL142932  26.206  34.305   9.365  0.0411  0.2277 -0.2759
 3659DOPC   GL242933  26.533  34.271   9.407  0.0659  0.1684  0.4704
 3659DOPC   C1A42934  26.007  34.232   9.784  0.2109 -0.0372 -0.2597
 3659DOPC   D2A42935  25.760  34.214  10.176 -0.1066  0.4067 -0.2856
 3659DOPC   C3A42936  25.660  34.052  10.582 -0.0866  0.1090 -0.2148
 3659DOPC   C4A42937  25.317  34.077  10.844  0.0583 -0.0942  0.4377
 3659DOPC   C1B42938  26.482  34.323   9.822  0.0048  0.1124 -0.0888
 3659DOPC   D2B42939  26.457  34.385  10.264  0.0700  0.3186  0.1251
 3659DOPC   C3B42940  26.055  34.477  10.500 -0.1563 -0.1533  0.1975
 3659DOPC   C4B42941  25.961  34.286  10.933 -0.0718  0.1581  0.5310
 3660POSM   NC342942  22.005  33.001   9.028  0.1039  0.1294  0.1154
 3660POSM   PO442943  22.018  32.786   9.355 -0.1487  0.2813 -0.0787
 3660POSM   AM142944  22.076  32.536   9.552  0.4612 -0.0960  0.0625
 3660POSM   AM242945  22.249  32.565   9.784  0.0148  0.0549  0.2601
 3660POSM   T1A42946  21.890  32.257   9.942 -0.0822 -0.1940 -0.2329
 3660POSM   C2A42947  22.076  32.202  10.399  0.3301  0.0736  0.2686
 3660POSM   C3A42948  22.060  32.327  10.801  0.0535 -0.1382  0.0934
 3660POSM   C1B42949  22.159  32.638  10.074 -0.2603 -0.0598  0.0553
 3660POSM   D2B42950  21.816  32.651  10.420 -0.3550 -0.0732 -0.0196
 3660POSM   C3B42951  21.668  32.947  10.733  0.2200 -0.0165 -0.1551
 3660POSM   C4B42952  21.484  33.084  11.126 -0.0183  0.0439 -0.1852
 3661DOPE   NH342953  29.241  26.026   9.558 -0.0355  0.1705 -0.1057
 3661DOPE   PO442954  29.026  25.747   9.499 -0.2527 -0.0100 -0.0150
 3661DOPE   GL142955  29.087  25.740   9.904  0.0737 -0.1467 -0.0012
 3661DOPE   GL242956  28.828  25.845  10.013  0.0585  0.1902 -0.1222
 3661DOPE   C1A42957  29.182  26.007  10.275 -0.2105  0.3388  0.2160
 3661DOPE   D2A42958  29.353  26.113  10.723 -0.2689 -0.3247  0.0674
 3661DOPE   C3A42959  29.782  26.395  10.756  0.0027  0.2572  0.0457
 3661DOPE   C4A42960  30.251  26.476  10.734 -0.2947  0.2656 -0.1149
 3661DOPE   C1B42961  28.650  25.946  10.426 -0.0588  0.0776 -0.1527
 3661DOPE   D2B42962  28.636  25.793  10.841  0.0144  0.3441 -0.2071
 3661DOPE   C3B42963  28.664  25.328  10.871  0.2839  0.0929  0.0440
 3661DOPE   C4B42964  28.471  25.009  11.213 -0.0072 -0.0540  0.1615
 3662DOPS   CNO42965  25.505  29.108   9.384 -0.0552  0.0402  0.1839
 3662DOPS   PO442966  25.575  29.455   9.260 -0.0791 -0.3043 -0.0712
 3662DOPS   GL142967  25.710  29.811   9.523  0.1264 -0.0383  0.1131
 3662DOPS   GL242968  25.567  29.675   9.782 -0.0438 -0.1820  0.0168
 3662DOPS   C1A42969  26.092  29.893   9.803 -0.2874  0.0891  0.0271
 3662DOPS   D2A42970  26.130  30.062  10.200 -0.0743 -0.1205  0.1140
 3662DOPS   C3A42971  25.769  30.315  10.341  0.2248 -0.0681 -0.1119
 3662DOPS   C4A42972  25.620  30.391  10.779 -0.0035  0.0415  0.0526
 3662DOPS   C1B42973  25.683  29.914  10.128 -0.0298 -0.1406 -0.1856
 3662DOPS   D2B42974  25.683  29.902  10.608  0.1154 -0.1062 -0.0104
 3662DOPS   C3B42975  25.315  29.842  10.892 -0.1070  0.1008 -0.1144
 3662DOPS   C4B42976  25.009  29.500  10.882 -0.1683  0.3205 -0.2868
 3663DOPC   NC342977  25.620  32.192   9.446  0.1514  0.2866  0.1588
 3663DOPC   PO442978  25.707  32.605   9.397  0.2638  0.1329  0.1680
 3663DOPC   GL142979  25.453  32.594   9.738  0.0535  0.0208 -0.2824
 3663DOPC   GL242980  25.210  32.611   9.608  0.2840  0.0897  0.0414
 3663DOPC   C1A42981  25.493  32.726  10.161  0.0799  0.0408 -0.0853
 3663DOPC   D2A42982  25.458  32.595  10.590 -0.1166 -0.5401 -0.1343
 3663DOPC   C3A42983  25.487  32.203  10.721 -0.4977  0.1884  0.0525
 3663DOPC   C4A42984  25.293  31.845  10.945  0.0433  0.2167  0.1856
 3663DOPC   C1B42985  25.077  32.479  10.000  0.2117 -0.0885  0.2265
 3663DOPC   D2B42986  25.156  32.274  10.363 -0.0579  0.0318  0.4583
 3663DOPC   C3B42987  25.283  31.819  10.455 -0.0996  0.2605 -0.2234
 3663DOPC   C4B42988  25.089  31.415  10.644  0.0067  0.1656  0.0856
 3664DOPC   NC342989  32.709  31.241  10.012  0.0991  0.0600  0.2738
 3664DOPC   PO442990  33.015  31.505  10.012  0.2024  0.1106 -0.1410
 3664DOPC   GL142991  32.836  31.560  10.397  0.3636  0.0174  0.0000
 3664DOPC   GL242992  32.616  31.740  10.337 -0.0564 -0.0948  0.1035
 3664DOPC   C1A42993  33.019  31.941  10.615  0.2033 -0.0463  0.2113
 3664DOPC   D2A42994  33.334  32.016  10.940  0.3968 -0.2391 -0.1529
 3664DOPC   C3A42995  33.467  32.440  11.082 -0.3360  0.1918  0.0563
 3664DOPC   C4A42996  33.411  32.735  11.438 -0.0504  0.0255  0.0551
 3664DOPC   C1B42997  32.534  31.313  10.512  0.2060  0.1421  0.1746
 3664DOPC   D2B42998  32.173  31.145  10.678 -0.1996  0.0638 -0.2068
 3664DOPC   C3B42999  31.959  31.366  11.027 -0.0774 -0.0911 -0.0408
 3664DOPC   C4B43000  31.584  31.263  11.251  0.1066  0.0632 -0.2126
 3665DOPC   NC343001  26.463  27.540   9.611  0.1834  0.1735  0.3215
 3665DOPC   PO443002  26.202  27.491   9.339 -0.1331 -0.0563  0.1169
 3665DOPC   GL143003  25.990  27.389   9.609 -0.1937 -0.4663 -0.7046
 3665DOPC   GL243004  26.102  27.142   9.710 -0.2784  0.0961  0.1827
 3665DOPC   C1A43005  26.031  27.631   9.988 -0.0579  0.0550  0.0916
 3665DOPC   D2A43006  25.762  27.979  10.217 -0.1357 -0.1652  0.2152
 3665DOPC   C3A43007  25.669  28.313  10.491 -0.0293  0.3897 -0.3166
 3665DOPC   C4A43008  25.552  28.480  10.886  0.0058 -0.2633  0.2190
 3665DOPC   C1B43009  26.111  26.991  10.161 -0.1582 -0.1384 -0.0386
 3665DOPC   D2B43010  26.320  26.694  10.479  0.5134 -0.1623 -0.1179
 3665DOPC   C3B43011  26.227  26.681  10.928 -0.1448  0.2972 -0.0823
 3665DOPC   C4B43012  26.498  26.804  11.328 -0.3051 -0.1806  0.1533
 3666DOPS   CNO43013  30.351  33.100   8.724  0.0005 -0.3399 -0.0025
 3666DOPS   PO443014  30.611  33.191   8.990 -0.1728 -0.3098  0.1444
 3666DOPS   GL143015  30.423  33.349   9.364 -0.0788  0.1363 -0.1395
 3666DOPS   GL243016  30.333  33.618   9.518  0.1249 -0.1941  0.0596
 3666DOPS   C1A43017  30.205  33.103   9.687  0.0522 -0.1409 -0.1587
 3666DOPS   D2A43018  30.045  32.656   9.872 -0.0036 -0.0785  0.2398
 3666DOPS   C3A43019  29.790  32.545  10.294 -0.0240  0.1334  0.0289
 3666DOPS   C4A43020  29.801  32.349  10.741  0.2748  0.0142 -0.0545
 3666DOPS   C1B43021  30.582  33.438   9.862  0.1987  0.0782 -0.0195
 3666DOPS   D2B43022  30.875  33.385  10.184  0.0367  0.1784  0.3197
 3666DOPS   C3B43023  30.660  33.174  10.530 -0.0436 -0.3080  0.4106
 3666DOPS   C4B43024  30.846  32.997  10.951  0.0451  0.3307  0.1286
 3667POSM   NC343025  26.590  24.899   9.374  0.0171 -0.1973 -0.0986
 3667POSM   PO443026  26.454  24.610   9.550  0.1886 -0.2219 -0.4451
 3667POSM   AM143027  26.447  24.812   9.831 -0.2407  0.3570 -0.3174
 3667POSM   AM243028  26.397  25.113   9.838  0.0592  0.1932  0.3942
 3667POSM   T1A43029  26.429  24.782  10.292  0.5438 -0.1998 -0.0325
 3667POSM   C2A43030  26.371  24.393  10.545 -0.3787 -0.2265 -0.2152
 3667POSM   C3A43031  26.175  24.125  10.869 -0.0141 -0.1528  0.0590
 3667POSM   C1B43032  26.392  25.331  10.098 -0.1093 -0.1782 -0.2490
 3667POSM   D2B43033  26.451  25.653  10.407 -0.2796  0.0790 -0.1290
 3667POSM   C3B43034  26.841  25.476  10.605  0.0180 -0.2186 -0.1202
 3667POSM   C4B43035  27.207  25.330  10.757  0.0826 -0.1976 -0.1398
 3668POSM   NC343036  30.082   0.142   8.818 -0.1569  0.0863  0.0478
 3668POSM   PO443037  30.287   0.196   9.114 -0.2642  0.0557 -0.1833
 3668POSM   AM143038  30.217   0.155   9.419  0.0126  0.0870 -0.2008
 3668POSM   AM243039  30.173  -0.146   9.515 -0.3276 -0.1866  0.0797
 3668POSM   T1A43040  30.020   0.257   9.855 -0.4827 -0.1937 -0.0944
 3668POSM   C2A43041  29.935   0.406  10.260  0.0675  0.1496  0.0292
 3668POSM   C3A43042  29.828   0.747  10.521  0.0554 -0.0524  0.1827
 3668POSM   C1B43043  29.998  -0.333   9.751  0.1216 -0.3467 -0.0526
 3668POSM   D2B43044  29.860  -0.379  10.178 -0.0784  0.5300 -0.1721
 3668POSM   C3B43045  29.654  -0.002  10.288  0.2926 -0.4065 -0.0774
 3668POSM   C4B43046  29.406   0.353  10.421  0.0048 -0.1377  0.1295
 3669DOPE   NH343047  24.600  29.453   9.419 -0.4176 -0.1357  0.0563
 3669DOPE   PO443048  24.758  29.729   9.551  0.2014  0.1760 -0.1730
 3669DOPE   GL143049  24.949  30.042   9.790 -0.0711 -0.0266 -0.1562
 3669DOPE   GL243050  25.078  29.935  10.030 -0.0267  0.1043 -0.0173
 3669DOPE   C1A43051  24.806  30.384  10.113 -0.1709 -0.0674 -0.3738
 3669DOPE   D2A43052  24.582  30.733  10.102  0.0007 -0.4319 -0.0703
 3669DOPE   C3A43053  24.801  31.142  10.138  0.1189 -0.0325 -0.0611
 3669DOPE   C4A43054  25.109  31.460   9.946 -0.1099  0.0867  0.0279
 3669DOPE   C1B43055  25.135  30.157  10.462 -0.1328  0.0641  0.1527
 3669DOPE   D2B43056  24.872  30.230  10.797  0.0180  0.0573 -0.0658
 3669DOPE   C3B43057  25.166  30.488  10.975 -0.0431 -0.3828  0.2403
 3669DOPE   C4B43058  25.541  30.575  11.208 -0.0113 -0.2043  0.1286
 3670DOPC   NC343059  29.822  21.552  10.009  0.2612  0.1661 -0.0228
 3670DOPC   PO443060  29.651  21.907  10.030  0.0184  0.2331 -0.2134
 3670DOPC   GL143061  29.757  22.082  10.383  0.1037  0.1399 -0.0183
 3670DOPC   GL243062  29.776  22.407  10.324 -0.2135  0.0442 -0.3349
 3670DOPC   C1A43063  29.678  22.178  10.838 -0.1343  0.0629  0.2313
 3670DOPC   D2A43064  29.423  21.951  11.103  0.1789 -0.2842  0.1997
 3670DOPC   C3A43065  29.406  22.077  11.547 -0.0885  0.1627 -0.1309
 3670DOPC   C4A43066  29.483  22.263  12.017 -0.0662  0.2978  0.1817
 3670DOPC   C1B43067  29.957  22.537  10.722  0.4282 -0.4304  0.1754
 3670DOPC   D2B43068  30.245  22.392  11.087  0.3089  0.1319  0.0445
 3670DOPC   C3B43069  30.292  22.477  11.528 -0.0358  0.2894 -0.1167
 3670DOPC   C4B43070  30.189  22.677  11.972 -0.1856 -0.1181  0.5242
 3671POSM   NC343071  33.292  25.277  10.075  0.0677 -0.0293  0.0403
 3671POSM   PO443072  32.941  25.403  10.148 -0.1331  0.3250 -0.1630
 3671POSM   AM143073  32.926  25.478  10.464  0.0295 -0.5729  0.1909
 3671POSM   AM243074  33.079  25.389  10.714  0.3124 -0.2187 -0.3842
 3671POSM   T1A43075  32.612  25.547  10.841 -0.0803  0.1400 -0.4388
 3671POSM   C2A43076  32.456  25.753  11.241 -0.0290  0.1779  0.2235
 3671POSM   C3A43077  32.573  26.020  11.642 -0.1333  0.1961 -0.1230
 3671POSM   C1B43078  33.047  25.133  10.960  0.1276  0.0550 -0.1168
 3671POSM   D2B43079  32.963  24.997  11.387  0.2170  0.1088 -0.0038
 3671POSM   C3B43080  32.667  24.977  11.685 -0.1537  0.0357  0.0899
 3671POSM   C4B43081  32.247  24.861  11.815  0.2788  0.2625  0.0918
 3672POSM   NC343082  29.169  30.294   8.143  0.0271  0.2836  0.1560
 3672POSM   PO443083  28.997  30.258   8.470  0.1384 -0.3226  0.1496
 3672POSM   AM143084  28.925  30.335   8.792 -0.0077  0.2354  0.1171
 3672POSM   AM243085  29.062  30.168   8.950  0.2150 -0.1436 -0.2304
 3672POSM   T1A43086  28.707  30.607   9.102  0.0736  0.0556 -0.1808
 3672POSM   C2A43087  28.899  30.787   9.454  0.1368 -0.0622  0.3570
 3672POSM   C3A43088  29.109  31.108   9.706  0.0831 -0.0628 -0.3443
 3672POSM   C1B43089  29.084  30.283   9.247 -0.2525 -0.0337  0.1899
 3672POSM   D2B43090  29.092  30.399   9.690 -0.1051  0.0718  0.1697
 3672POSM   C3B43091  29.063  30.198  10.136 -0.3346  0.0387  0.0528
 3672POSM   C4B43092  29.185  29.939  10.537 -0.3881 -0.0305 -0.1046
 3673G2FFO Head43093  17.656  16.711  15.450  0.0859  0.2212 -0.0646
 3673G2FFO Head43094  17.544  16.967  15.581  0.0189  0.1493 -0.2949
 3673G2FFO Head43095  17.044  16.570  16.010 -0.4837 -0.2224  0.0667
 3673G2FFO Head43096  17.180  16.773  15.813  0.2936 -0.2348 -0.1054
 3673G2FFO Head43097  17.440  16.986  15.919  0.3355  0.1946 -0.1063
 3673G2FFO Head43098  16.644  17.406  15.679  0.2641 -0.0115 -0.0375
 3673G2FFO Head43099  16.929  17.472  15.864  0.2772  0.0552  0.4080
 3673G2FFO Head43100  16.568  17.328  16.300  0.0606  0.3706 -0.3989
 3673G2FFO Head43101  16.922  17.383  16.281  0.0654 -0.4062  0.1085
 3673G2FFO Head43102  17.112  17.225  16.033  0.4164  0.0342  0.0891
 3673G2FFO link43103  17.368  17.226  16.027 -0.1091 -0.0266  0.5875
 3673G2FFO link43104  17.561  17.404  16.143 -0.0621  0.1266  0.0488
 3673G2FFO Tail43105  17.622  17.377  16.468  0.4395  0.2673 -0.4565
 3673G2FFO Tail43106  17.314  17.279  16.595 -0.4839 -0.0434  0.5263
 3673G2FFO Tail43107  17.228  17.349  16.825  0.0290  0.1084 -0.1271
 3673G2FFO Tail43108  17.167  17.162  17.003  0.1150 -0.0663 -0.1033
 3673G2FFO Tail43109  17.089  16.961  17.144 -0.0915 -0.1025 -0.0085
 3673G2FFO Tail43110  17.065  16.749  17.235  0.1671 -0.0108 -0.2071
 3673G2FFO Tail43111  17.638  17.699  16.530 -0.1634 -0.0552 -0.0449
 3673G2FFO Tail43112  17.856  17.827  16.563  0.0902 -0.4914  0.3143
 3673G2FFO Tail43113  17.959  17.828  16.796 -0.1787  0.1267 -0.2943
 3673G2FFO Tail43114  18.055  17.791  17.036 -0.0875 -0.1137 -0.3523
 3673G2FFO Tail43115  18.084  17.724  17.267 -0.3241 -0.1507  0.0804
 3674G2FFO Head43116  16.416  18.156  18.385  0.4048 -0.1153  0.1061
 3674G2FFO Head43117  16.265  17.965  18.619 -0.3753 -0.1196 -0.0545
 3674G2FFO Head43118  16.445  18.428  18.809 -0.2437 -0.1468  0.0829
 3674G2FFO Head43119  16.137  18.373  18.701 -0.0475  0.2653 -0.2855
 3674G2FFO Head43120  15.995  18.079  18.789  0.2701 -0.0774 -0.1096
 3674G2FFO Head43121  16.122  18.319  19.266  0.0781 -0.0177 -0.0604
 3674G2FFO Head43122  15.899  18.476  19.058 -0.0648  0.2972  0.5596
 3674G2FFO Head43123  15.567  18.545  19.357  0.0919  0.0651  0.0245
 3674G2FFO Head43124  15.486  18.324  19.157  0.3746  0.4060 -0.0102
 3674G2FFO Head43125  15.660  18.302  18.856  0.2198  0.3598 -0.1739
 3674G2FFO link43126  15.732  18.086  18.734  0.1863  0.2544  0.1467
 3674G2FFO link43127  15.559  17.862  18.668 -0.3345 -0.3322 -0.1557
 3674G2FFO Tail43128  15.555  17.723  18.384 -0.0227 -0.1195  0.4394
 3674G2FFO Tail43129  15.898  17.776  18.271 -0.1833 -0.0490 -0.2905
 3674G2FFO Tail43130  15.972  18.023  18.212  0.0736  0.1112  0.1028
 3674G2FFO Tail43131  15.869  18.226  18.342  0.0170  0.1612  0.1480
 3674G2FFO Tail43132  15.797  18.451  18.433 -0.1384 -0.3127 -0.0468
 3674G2FFO Tail43133  15.669  18.645  18.494  0.1962  0.0878 -0.3582
 3674G2FFO Tail43134  15.391  17.960  18.209 -0.1574 -0.0261  0.0034
 3674G2FFO Tail43135  15.532  18.114  18.043  0.0840 -0.0810  0.2970
 3674G2FFO Tail43136  15.646  17.984  17.843  0.0409 -0.0974  0.2217
 3674G2FFO Tail43137  15.798  17.876  17.670  0.0022  0.1283 -0.1801
 3674G2FFO Tail43138  15.994  17.833  17.532  0.3797  0.2961 -0.0852
 3675G2FFO Head43139  18.407  19.531  17.215  0.1230  0.2496 -0.0287
 3675G2FFO Head43140  18.246  19.422  16.945 -0.1921 -0.0977  0.1532
 3675G2FFO Head43141  18.687  19.466  16.362 -0.1103 -0.2446 -0.0162
 3675G2FFO Head43142  18.558  19.446  16.641  0.2380 -0.1427  0.0397
 3675G2FFO Head43143  18.411  19.167  16.780 -0.0324  0.0316 -0.1260
 3675G2FFO Head43144  18.207  19.587  16.252  0.1288  0.0115  0.2279
 3675G2FFO Head43145  18.066  19.483  16.521  0.2338 -0.0958 -0.0687
 3675G2FFO Head43146  17.606  19.085  16.275  0.0915  0.0954  0.3008
 3675G2FFO Head43147  17.880  19.146  16.300 -0.1290 -0.3756  0.3120
 3675G2FFO Head43148  18.039  19.147  16.605  0.3169  0.1814  0.0367
 3675G2FFO link43149  18.264  19.011  16.637 -0.1737 -0.1096 -0.0871
 3675G2FFO link43150  18.277  18.721  16.674  0.2613  0.0868 -0.0144
 3675G2FFO Tail43151  18.508  18.614  16.886 -0.0300 -0.0920  0.0123
 3675G2FFO Tail43152  18.429  18.279  16.928  0.2380  0.1015 -0.1639
 3675G2FFO Tail43153  18.213  18.188  16.809  0.3669 -0.0449 -0.2086
 3675G2FFO Tail43154  17.992  18.309  16.870 -0.1088  0.2096  0.0069
 3675G2FFO Tail43155  17.812  18.459  16.961 -0.0086  0.0393 -0.0230
 3675G2FFO Tail43156  17.656  18.568  17.085  0.0752 -0.1129 -0.1922
 3675G2FFO Tail43157  18.411  18.773  17.167  0.1860 -0.1685 -0.0417
 3675G2FFO Tail43158  18.306  19.020  17.161 -0.0661  0.1849  0.0748
 3675G2FFO Tail43159  18.052  19.060  17.129  0.0317  0.1443  0.2073
 3675G2FFO Tail43160  17.797  19.079  17.073 -0.0749  0.3096  0.0539
 3675G2FFO Tail43161  17.574  19.024  17.029 -0.2588  0.1010  0.1688
 3676G2FFO Head43162  13.255  15.880  20.324  0.0281 -0.4754 -0.0040
 3676G2FFO Head43163  13.565  15.980  20.335 -0.2471  0.1562 -0.2290
 3676G2FFO Head43164  14.143  15.849  20.646 -0.0544  0.3058 -0.1624
 3676G2FFO Head43165  13.909  15.720  20.458  0.2856  0.4872  0.0335
 3676G2FFO Head43166  13.827  15.842  20.150  0.2655 -0.0784  0.0047
 3676G2FFO Head43167  13.884  15.007  20.159  0.1298  0.2837 -0.1954
 3676G2FFO Head43168  13.696  15.266  20.243 -0.1558 -0.0751  0.0653
 3676G2FFO Head43169  13.363  15.010  19.908 -0.1256 -0.1259 -0.1114
 3676G2FFO Head43170  13.589  15.222  19.831  0.0553  0.0544  0.0466
 3676G2FFO Head43171  13.628  15.507  20.009  0.1989  0.1343 -0.0126
 3676G2FFO link43172  13.784  15.696  19.948  0.1473  0.5879  0.0617
 3676G2FFO link43173  13.792  15.771  19.683  0.3064 -0.0185  0.4075
 3676G2FFO Tail43174  13.976  15.655  19.438 -0.3747 -0.1408 -0.1252
 3676G2FFO Tail43175  14.023  15.343  19.537 -0.2730  0.0381  0.0418
 3676G2FFO Tail43176  14.163  15.300  19.760 -0.0374  0.0900 -0.1717
 3676G2FFO Tail43177  14.213  15.504  19.921  0.0555 -0.2222  0.1604
 3676G2FFO Tail43178  14.251  15.705  20.062 -0.0366  0.0599 -0.0202
 3676G2FFO Tail43179  14.332  15.906  20.140 -0.1581 -0.6261  0.2436
 3676G2FFO Tail43180  14.283  15.796  19.515 -0.3634 -0.0361 -0.3736
 3676G2FFO Tail43181  14.509  15.650  19.488 -0.1085  0.0556  0.3046
 3676G2FFO Tail43182  14.633  15.589  19.711 -0.0476  0.0719  0.2255
 3676G2FFO Tail43183  14.732  15.492  19.926 -0.1230 -0.0515  0.2649
 3676G2FFO Tail43184  14.878  15.403  20.090  0.0800  0.1478 -0.0278
 3677G2FFO Head43185  14.791  14.113  19.896 -0.0618  0.2747 -0.2592
 3677G2FFO Head43186  14.685  14.392  19.891  0.2838 -0.1772  0.4578
 3677G2FFO Head43187  14.236  14.525  19.798  0.0222 -0.0821  0.1776
 3677G2FFO Head43188  14.431  14.634  19.558  0.0580 -0.3506 -0.0107
 3677G2FFO Head43189  14.776  14.593  19.618  0.1217  0.2489 -0.2872
 3677G2FFO Head43190  15.547  14.289  19.793  0.4114  0.2095 -0.5010
 3677G2FFO Head43191  15.238  14.393  19.833  0.7421 -0.4753  0.2312
 3677G2FFO Head43192  14.923  14.170  19.401 -0.1599 -0.2687  0.1842
 3677G2FFO Head43193  15.158  14.383  19.426 -0.1033 -0.1991 -0.1696
 3677G2FFO Head43194  15.154  14.660  19.636 -0.4187 -0.2780  0.3131
 3677G2FFO link43195  14.931  14.786  19.646 -1.1496  0.1231 -0.2537
 3677G2FFO link43196  14.889  15.070  19.688 -0.1058  0.0545  0.0152
 3677G2FFO Tail43197  14.575  15.159  19.664  0.1080 -0.2738 -0.0391
 3677G2FFO Tail43198  14.414  14.968  19.909  0.0476  0.3133  0.1583
 3677G2FFO Tail43199  14.531  14.853  20.108  0.0639  0.1811  0.1082
 3677G2FFO Tail43200  14.789  14.852  20.117  0.1258 -0.3607  0.1126
 3677G2FFO Tail43201  15.037  14.826  20.121  0.0539 -0.1508  0.2429
 3677G2FFO Tail43202  15.263  14.793  20.071 -0.1026  0.1128 -0.1330
 3677G2FFO Tail43203  14.434  15.045  19.335 -0.0750  0.3634  0.1026
 3677G2FFO Tail43204  14.602  14.939  19.160 -0.2659 -0.0467 -0.0663
 3677G2FFO Tail43205  14.846  14.910  19.231 -0.0339  0.1242  0.1104
 3677G2FFO Tail43206  15.100  14.912  19.254  0.1007 -0.0986  0.0481
 3677G2FFO Tail43207  15.313  14.953  19.338 -0.0736  0.2675  0.1239
 3678G2FFO Head43208  16.944  17.919  19.166 -0.3682  0.1233  0.0627
 3678G2FFO Head43209  17.180  18.052  19.253 -0.2876  0.0452  0.1404
 3678G2FFO Head43210  17.477  18.156  19.640  0.2056 -0.2652 -0.2356
 3678G2FFO Head43211  17.612  18.105  19.398  0.0523  0.1067  0.2061
 3678G2FFO Head43212  17.496  17.943  19.120  0.1281 -0.0014 -0.0446
 3678G2FFO Head43213  17.039  17.193  19.126 -0.2700 -0.1292  0.0051
 3678G2FFO Head43214  17.087  17.484  19.248  0.1564  0.0703 -0.4381
 3678G2FFO Head43215  17.049  17.556  19.703  0.2334  0.3544  0.0009
 3678G2FFO Head43216  17.318  17.716  19.581 -0.6400  0.1146  0.0527
 3678G2FFO Head43217  17.421  17.578  19.281  0.2044 -0.1422  0.0867
 3678G2FFO link43218  17.548  17.688  19.097  0.0870  0.0521 -0.0625
 3678G2FFO link43219  17.667  17.553  18.873  0.2396  0.0094  0.0928
 3678G2FFO Tail43220  17.520  17.277  18.780  0.1267  0.1345  0.0705
 3678G2FFO Tail43221  17.216  17.407  18.756  0.0401  0.0861  0.0996
 3678G2FFO Tail43222  17.139  17.663  18.762 -0.1507 -0.0591 -0.2865
 3678G2FFO Tail43223  17.311  17.852  18.702 -0.3396 -0.0063 -0.0938
 3678G2FFO Tail43224  17.500  18.018  18.691  0.0624  0.0939 -0.0040
 3678G2FFO Tail43225  17.717  18.100  18.690  0.0678 -0.0144  0.3337
 3678G2FFO Tail43226  17.515  17.129  19.097  0.0279  0.0569 -0.0153
 3678G2FFO Tail43227  17.702  17.170  19.268 -0.2675  0.0273 -0.0260
 3678G2FFO Tail43228  17.942  17.227  19.202 -0.1592 -0.1379 -0.0088
 3678G2FFO Tail43229  18.172  17.272  19.103 -0.3988 -0.0517 -0.0312
 3678G2FFO Tail43230  18.400  17.329  19.053 -0.1282 -0.1769  0.0960
 3679G2FFO Head43231  17.321  15.868  23.203  0.1193  0.0875  0.0865
 3679G2FFO Head43232  17.614  15.937  23.154  0.7927 -0.3020 -0.2005
 3679G2FFO Head43233  17.405  16.210  23.817 -0.1959  0.3848 -0.1563
 3679G2FFO Head43234  17.479  16.050  23.568 -0.2477 -0.2010  0.0621
 3679G2FFO Head43235  17.739  16.164  23.378 -0.3695  0.6606 -0.1835
 3679G2FFO Head43236  17.864  16.951  23.899  0.0447  0.0652 -0.0665
 3679G2FFO Head43237  17.851  16.843  23.635 -0.0312  0.4553  0.2093
 3679G2FFO Head43238  17.336  16.892  23.824 -0.1032 -0.3068 -0.3055
 3679G2FFO Head43239  17.411  16.720  23.592 -0.2896  0.1475 -0.1819
 3679G2FFO Head43240  17.706  16.540  23.557  0.1830  0.2191 -0.2050
 3679G2FFO link43241  17.774  16.420  23.326  0.4091  0.3112 -0.3117
 3679G2FFO link43242  17.994  16.508  23.169  0.1133 -0.0224  0.1685
 3679G2FFO Tail43243  17.958  16.492  22.828  0.1840  0.1589 -0.5045
 3679G2FFO Tail43244  17.654  16.633  22.845 -0.0631  0.1353 -0.3238
 3679G2FFO Tail43245  17.527  16.747  22.651  0.1449  0.0987  0.0788
 3679G2FFO Tail43246  17.664  16.838  22.443 -0.0097 -0.0310  0.1014
 3679G2FFO Tail43247  17.753  16.931  22.226  0.1938  0.0294  0.0113
 3679G2FFO Tail43248  17.841  16.953  22.011  0.1056  0.0563  0.1862
 3679G2FFO Tail43249  17.857  16.155  22.788  0.0522 -0.2168  0.1321
 3679G2FFO Tail43250  17.985  15.974  22.642  0.1157 -0.4197 -0.3299
 3679G2FFO Tail43251  17.850  15.847  22.462  0.0121  0.1266  0.1820
 3679G2FFO Tail43252  17.736  15.721  22.268  0.0369 -0.1695  0.3181
 3679G2FFO Tail43253  17.606  15.655  22.085  0.0918 -0.1244 -0.2174
 3680G2FFO Head43254  20.323  16.963  22.850  0.2524 -0.0966  0.3008
 3680G2FFO Head43255  20.080  16.839  22.692 -0.1575  0.1232 -0.0773
 3680G2FFO Head43256  19.988  17.222  23.026 -0.1841 -0.0430 -0.0289
 3680G2FFO Head43257  19.922  17.256  22.700 -0.7221 -0.1513 -0.2995
 3680G2FFO Head43258  19.930  17.004  22.450 -0.5967  0.0553 -0.2636
 3680G2FFO Head43259  20.621  17.390  22.595  0.1674  0.2394  0.4291
 3680G2FFO Head43260  20.334  17.346  22.577 -0.0693 -0.1138  0.3982
 3680G2FFO Head43261  20.664  17.068  21.962  0.1200  0.0756 -0.4828
 3680G2FFO Head43262  20.523  17.292  22.194  0.0713  0.0480 -0.1439
 3680G2FFO Head43263  20.184  17.290  22.252 -0.2790 -0.1486  0.4733
 3680G2FFO link43264  20.072  17.054  22.209  0.0879 -0.0791 -0.3679
 3680G2FFO link43265  20.175  16.848  22.040  0.0491  0.1606 -0.2863
 3680G2FFO Tail43266  20.210  16.882  21.718 -0.4772 -0.1436 -0.1352
 3680G2FFO Tail43267  20.207  16.565  21.631 -0.1373 -0.1363  0.0439
 3680G2FFO Tail43268  20.035  16.479  21.447 -0.0347  0.3088  0.0055
 3680G2FFO Tail43269  19.788  16.489  21.492  0.1854 -0.1390  0.0765
 3680G2FFO Tail43270  19.541  16.516  21.506  0.0509 -0.1537 -0.0810
 3680G2FFO Tail43271  19.314  16.502  21.570 -0.2090  0.0061  0.1265
 3680G2FFO Tail43272  19.888  16.987  21.664  0.0372  0.1419 -0.0193
 3680G2FFO Tail43273  19.789  17.220  21.713  0.7900 -0.3451  0.3585
 3680G2FFO Tail43274  19.739  17.387  21.515 -0.1146 -0.0435  0.2145
 3680G2FFO Tail43275  19.660  17.568  21.355 -0.0724 -0.2586 -0.0688
 3680G2FFO Tail43276  19.561  17.679  21.173  0.1841 -0.0563  0.1692
 3681G2FFO Head43277  18.805  14.728  16.791 -0.2072  0.3822 -0.1677
 3681G2FFO Head43278  18.924  14.992  16.718 -0.3296 -0.1367 -0.2204
 3681G2FFO Head43279  19.162  15.079  16.359 -0.0355  0.2783  0.2791
 3681G2FFO Head43280  18.986  15.324  16.429  0.2582 -0.1640  0.0791
 3681G2FFO Head43281  18.774  15.305  16.715  0.3496  0.1643 -0.1176
 3681G2FFO Head43282  19.241  16.088  16.741 -0.0063 -0.0839  0.1758
 3681G2FFO Head43283  19.022  15.938  16.868  0.1301 -0.5165  0.2118
 3681G2FFO Head43284  19.375  15.886  17.210 -0.2451 -0.2517  0.1480
 3681G2FFO Head43285  19.268  15.607  17.101  0.2788 -0.2421  0.1847
 3681G2FFO Head43286  19.010  15.582  16.874  0.1851  0.0875 -0.2172
 3681G2FFO link43287  18.777  15.448  16.910 -0.1921  0.2036  0.2898
 3681G2FFO link43288  18.560  15.567  17.046  0.0721  0.1144 -0.4589
 3681G2FFO Tail43289  18.415  15.433  17.320 -0.2571  0.0116  0.3125
 3681G2FFO Tail43290  18.402  15.696  17.556  0.1152 -0.2345 -0.1270
 3681G2FFO Tail43291  18.548  15.694  17.773  0.1235 -0.0234 -0.1753
 3681G2FFO Tail43292  18.745  15.870  17.799 -0.0922  0.1671  0.2519
 3681G2FFO Tail43293  18.964  15.990  17.822  0.0878  0.0811  0.0861
 3681G2FFO Tail43294  19.194  16.057  17.809  0.0379 -0.2186  0.0245
 3681G2FFO Tail43295  18.080  15.452  17.215  0.0623  0.3818 -0.2023
 3681G2FFO Tail43296  17.919  15.633  17.314  0.1613 -0.1419  0.1715
 3681G2FFO Tail43297  17.937  15.736  17.552 -0.0874  0.1625  0.1542
 3681G2FFO Tail43298  17.912  15.798  17.803  0.0274 -0.0743  0.0076
 3681G2FFO Tail43299  17.883  15.919  18.002 -0.0592  0.0532 -0.4007
 3682G2FFO Head43300  15.105  16.941  20.231  0.2819 -0.1382 -0.1324
 3682G2FFO Head43301  14.971  16.867  20.506  0.2303 -0.2002  0.1235
 3682G2FFO Head43302  14.300  16.737  20.821 -0.0070 -0.2207  0.0414
 3682G2FFO Head43303  14.511  16.819  20.597  0.2315  0.1487  0.0839
 3682G2FFO Head43304  14.770  16.602  20.510  0.1158 -0.0360  0.1388
 3682G2FFO Head43305  14.544  16.328  20.894 -0.0897  0.1128  0.3692
 3682G2FFO Head43306  14.594  16.157  20.703 -0.7013 -0.1513  0.1481
 3682G2FFO Head43307  14.626  15.739  20.467  0.0883 -0.0421 -0.0533
 3682G2FFO Head43308  14.759  15.970  20.331 -0.1382  0.2493 -0.0155
 3682G2FFO Head43309  14.612  16.275  20.360  0.2261  0.1183 -0.1613
 3682G2FFO link43310  14.743  16.474  20.297 -0.1070 -0.2493  0.4131
 3682G2FFO link43311  14.792  16.557  20.028 -0.0146  0.0243  0.0353
 3682G2FFO Tail43312  15.098  16.583  19.898 -0.4892  0.4423 -0.0286
 3682G2FFO Tail43313  15.063  16.390  19.613 -0.0300  0.0767  0.0321
 3682G2FFO Tail43314  15.144  16.479  19.381  0.3829 -0.1386 -0.0265
 3682G2FFO Tail43315  14.950  16.555  19.216 -0.0357  0.0517  0.0476
 3682G2FFO Tail43316  14.775  16.580  19.036  0.1818 -0.1775  0.2256
 3682G2FFO Tail43317  14.671  16.602  18.826  0.3992 -0.1192  0.0063
 3682G2FFO Tail43318  15.243  16.324  20.078  0.0800  0.2430 -0.0469
 3682G2FFO Tail43319  15.099  16.199  20.258  0.2006  0.1237  0.4388
 3682G2FFO Tail43320  15.191  16.129  20.490  0.1763 -0.0283 -0.1137
 3682G2FFO Tail43321  15.300  16.074  20.711  0.1461 -0.0495 -0.3348
 3682G2FFO Tail43322  15.359  15.997  20.925  0.0081 -0.1160  0.2511
 3683G2FFO Head43323  15.063  18.347  22.487  0.2890 -0.0705 -0.1079
 3683G2FFO Head43324  15.066  18.215  22.763  0.2394 -0.0914 -0.0982
 3683G2FFO Head43325  14.774  17.863  22.606  0.2931 -0.2249 -0.0081
 3683G2FFO Head43326  14.981  17.770  22.837 -0.3168 -0.2611  0.3128
 3683G2FFO Head43327  15.276  17.962  22.855  0.0968  0.2861 -0.0770
 3683G2FFO Head43328  16.233  17.949  22.844  0.2294 -0.1515 -0.1113
 3683G2FFO Head43329  16.010  17.773  22.808 -0.2564 -0.3743 -0.2176
 3683G2FFO Head43330  15.865  18.077  23.395  0.0169  0.3348 -0.0242
 3683G2FFO Head43331  15.882  18.093  23.082  0.0537 -0.0974  0.4105
 3683G2FFO Head43332  15.682  17.854  22.909 -0.3197 -0.4615 -0.1977
 3683G2FFO link43333  15.492  17.901  22.728 -0.1624  0.0129 -0.2922
 3683G2FFO link43334  15.556  17.982  22.469 -0.2286 -0.1716 -0.1006
 3683G2FFO Tail43335  15.834  17.935  22.306 -0.1179 -0.0602 -0.3644
 3683G2FFO Tail43336  16.009  18.224  22.399  0.2806  0.2272 -0.2871
 3683G2FFO Tail43337  16.138  18.362  22.210 -0.0803 -0.1051 -0.2611
 3683G2FFO Tail43338  16.017  18.411  21.982 -0.1206  0.1309 -0.0263
 3683G2FFO Tail43339  15.921  18.441  21.746 -0.1250 -0.0942  0.1096
 3683G2FFO Tail43340  15.846  18.531  21.551 -0.0089 -0.2359  0.1788
 3683G2FFO Tail43341  15.737  18.006  21.984 -0.2474 -0.3802  0.2400
 3683G2FFO Tail43342  15.533  17.883  21.859  0.2078 -0.2598 -0.0783
 3683G2FFO Tail43343  15.596  17.726  21.674  0.0335  0.1473 -0.0815
 3683G2FFO Tail43344  15.614  17.553  21.485  0.0486 -0.0333 -0.1636
 3683G2FFO Tail43345  15.631  17.347  21.364 -0.1046 -0.0051  0.1195
 3684G2FFO Head43346  17.211  20.488  18.801 -0.2785 -0.1210 -0.3335
 3684G2FFO Head43347  17.496  20.345  18.733 -0.2377 -0.1313 -0.3417
 3684G2FFO Head43348  17.719  20.228  19.263  0.1348  0.3498 -0.1336
 3684G2FFO Head43349  17.481  20.149  19.115  0.1592 -0.0249  0.1077
 3684G2FFO Head43350  17.549  20.008  18.795 -0.4417 -0.4028 -0.0103
 3684G2FFO Head43351  16.726  20.322  18.687 -0.1989  0.1037 -0.1582
 3684G2FFO Head43352  16.924  20.100  18.576 -0.1848 -0.1711  0.2033
 3684G2FFO Head43353  16.569  19.830  18.671 -0.2212  0.1994  0.1290
 3684G2FFO Head43354  16.844  19.750  18.831 -0.1396 -0.1730  0.1619
 3684G2FFO Head43355  17.141  19.955  18.803 -0.4188  0.0239 -0.4005
 3684G2FFO link43356  17.384  19.855  18.714 -0.0595  0.2243  0.1470
 3684G2FFO link43357  17.434  19.710  18.483 -0.4037 -0.1482  0.2760
 3684G2FFO Tail43358  17.275  19.783  18.208 -0.4135 -0.1688  0.3066
 3684G2FFO Tail43359  16.941  19.746  18.310  0.3903 -0.1635  0.0569
 3684G2FFO Tail43360  16.866  19.527  18.439  0.0984  0.0832 -0.0748
 3684G2FFO Tail43361  16.641  19.407  18.386 -0.0557 -0.0586 -0.1149
 3684G2FFO Tail43362  16.426  19.304  18.309  0.0823  0.0496 -0.0004
 3684G2FFO Tail43363  16.268  19.195  18.194 -0.3223  0.0248  0.2589
 3684G2FFO Tail43364  17.323  19.481  18.040 -0.3383 -0.0011  0.1509
 3684G2FFO Tail43365  17.373  19.483  17.781 -0.2686 -0.2613  0.0488
 3684G2FFO Tail43366  17.182  19.501  17.602 -0.0346  0.1225 -0.2947
 3684G2FFO Tail43367  16.987  19.540  17.444 -0.1120 -0.2914  0.0523
 3684G2FFO Tail43368  16.833  19.528  17.266  0.1228  0.1495 -0.0075
 3685G2FFO Head43369  16.906  20.546  17.075 -0.5124  0.0362 -0.2342
 3685G2FFO Head43370  16.670  20.462  16.849  0.1255 -0.1537 -0.3577
 3685G2FFO Head43371  16.435  20.704  16.595  0.0161 -0.2806  0.3275
 3685G2FFO Head43372  16.515  20.403  16.455 -0.2198 -0.3610  0.0473
 3685G2FFO Head43373  16.729  20.188  16.644 -0.1236 -0.0114 -0.0513
 3685G2FFO Head43374  17.079  20.441  16.025  0.0269 -0.1070  0.3342
 3685G2FFO Head43375  16.943  20.142  16.075 -0.0806  0.2284 -0.2016
 3685G2FFO Head43376  17.327  20.009  15.969  0.1498  0.1046 -0.1193
 3685G2FFO Head43377  17.283  19.925  16.228  0.0752  0.1087  0.0543
 3685G2FFO Head43378  16.988  19.992  16.392 -0.1593 -0.0138 -0.0659
 3685G2FFO link43379  16.984  20.147  16.606  0.0532 -0.1521  0.0313
 3685G2FFO link43380  17.176  20.132  16.813  0.3851  0.0501 -0.0723
 3685G2FFO Tail43381  17.160  19.907  17.063 -0.5423 -0.0609  0.0086
 3685G2FFO Tail43382  17.476  19.968  17.195  0.3228  0.0961 -0.1321
 3685G2FFO Tail43383  17.540  19.888  17.439 -0.3932 -0.0159  0.0711
 3685G2FFO Tail43384  17.352  19.917  17.631  0.0356 -0.4333  0.1335
 3685G2FFO Tail43385  17.189  19.994  17.812  0.0627 -0.1422  0.3962
 3685G2FFO Tail43386  16.994  20.080  17.913 -0.0901  0.2065 -0.1252
 3685G2FFO Tail43387  17.189  19.617  16.901  0.2904 -0.4489  0.3697
 3685G2FFO Tail43388  17.294  19.418  17.051 -0.2898 -0.0867  0.1231
 3685G2FFO Tail43389  17.474  19.442  17.222  0.0866  0.2119  0.1623
 3685G2FFO Tail43390  17.639  19.447  17.423  0.1472  0.0078  0.1460
 3685G2FFO Tail43391  17.824  19.498  17.568  0.2176  0.2472  0.1930
 3686G2FFO Head43392  17.053  14.096  19.543 -0.1974  0.1446  0.0869
 3686G2FFO Head43393  16.954  14.345  19.346 -0.0709  0.1575 -0.1364
 3686G2FFO Head43394  16.781  14.301  19.865  0.3896  0.1983 -0.4020
 3686G2FFO Head43395  16.796  14.593  19.695 -0.1381 -0.1750  0.0888
 3686G2FFO Head43396  17.041  14.683  19.435  0.1264  0.2169  0.2536
 3686G2FFO Head43397  17.969  14.308  19.465  0.1834  0.0515  0.3683
 3686G2FFO Head43398  17.738  14.501  19.569 -0.0102 -0.3622 -0.1239
 3686G2FFO Head43399  17.742  14.453  18.979  0.0963  0.1375 -0.2342
 3686G2FFO Head43400  17.657  14.657  19.153 -0.0476 -0.0542 -0.1847
 3686G2FFO Head43401  17.440  14.569  19.406 -0.0665 -0.0502 -0.2317
 3686G2FFO link43402  17.276  14.750  19.509  0.4223  0.1324  0.0852
 3686G2FFO link43403  17.357  14.936  19.707  0.1716  0.1766  0.4319
 3686G2FFO Tail43404  17.440  14.825  20.017  0.0988 -0.0391  0.3538
 3686G2FFO Tail43405  17.321  15.087  20.207 -0.2809 -0.0183 -0.1846
 3686G2FFO Tail43406  17.114  15.219  20.121  0.0564  0.0175  0.1411
 3686G2FFO Tail43407  17.133  15.323  19.886  0.0096  0.1110  0.0148
 3686G2FFO Tail43408  17.115  15.426  19.660  0.1066  0.1841  0.0184
 3686G2FFO Tail43409  17.057  15.509  19.451  0.2026 -0.1345 -0.2644
 3686G2FFO Tail43410  17.777  14.897  20.011 -0.0643 -0.0045 -0.3673
 3686G2FFO Tail43411  17.866  15.099  19.879 -0.0867  0.2081 -0.0765
 3686G2FFO Tail43412  18.102  15.190  19.940 -0.1205  0.1578 -0.0460
 3686G2FFO Tail43413  18.307  15.317  20.006 -0.1287  0.0964 -0.1299
 3686G2FFO Tail43414  18.454  15.464  20.114 -0.1465  0.5527 -0.0595
 3687G2FFO Head43415  17.944  19.081  22.636  0.1995  0.3501 -0.1945
 3687G2FFO Head43416  17.747  19.064  22.458  0.1912 -0.0147 -0.0744
 3687G2FFO Head43417  18.370  19.105  22.098  0.0395 -0.2843  0.3893
 3687G2FFO Head43418  18.130  18.933  22.202  0.0449  0.0656 -0.3773
 3687G2FFO Head43419  17.811  19.030  22.117 -0.1492  0.2063  0.0812
 3687G2FFO Head43420  17.443  18.750  22.623  0.1638 -0.3262  0.5057
 3687G2FFO Head43421  17.657  18.660  22.464 -0.3343  0.0968 -0.1832
 3687G2FFO Head43422  18.106  18.531  22.525 -0.1410  0.2336 -0.0869
 3687G2FFO Head43423  17.950  18.471  22.218  0.1528 -0.3318 -0.3589
 3687G2FFO Head43424  17.657  18.639  22.115  0.0823 -0.0225 -0.0668
 3687G2FFO link43425  17.684  18.864  21.976 -0.1266  0.3877 -0.0189
 3687G2FFO link43426  17.591  18.913  21.709  0.1571  0.0522 -0.1114
 3687G2FFO Tail43427  17.581  19.193  21.540 -0.4276 -0.1952 -0.3545
 3687G2FFO Tail43428  17.854  19.134  21.344 -0.2242  0.0494  0.1108
 3687G2FFO Tail43429  17.910  18.895  21.273 -0.3471  0.1690  0.1462
 3687G2FFO Tail43430  17.730  18.721  21.309 -0.0253  0.1081  0.2498
 3687G2FFO Tail43431  17.531  18.564  21.299 -0.1383 -0.1840 -0.1584
 3687G2FFO Tail43432  17.314  18.483  21.292  0.1687 -0.2488 -0.0938
 3687G2FFO Tail43433  17.359  19.130  21.277  0.1322 -0.2856  0.2475
 3687G2FFO Tail43434  17.360  19.249  21.049 -0.2870  0.1186  0.1702
 3687G2FFO Tail43435  17.475  19.478  21.006  0.1513 -0.2528 -0.0201
 3687G2FFO Tail43436  17.542  19.716  20.982 -0.1849 -0.2825  0.0840
 3687G2FFO Tail43437  17.540  19.948  20.931 -0.0389  0.1167  0.3213
 3688G2FFO Head43438  20.979  17.692  18.200  0.0493 -0.2984 -0.0334
 3688G2FFO Head43439  20.975  18.008  18.240 -0.2802  0.0488 -0.2060
 3688G2FFO Head43440  20.616  17.611  18.524 -0.1867 -0.0706  0.0083
 3688G2FFO Head43441  20.571  17.862  18.369 -0.0424 -0.6080 -0.1314
 3688G2FFO Head43442  20.743  18.166  18.460 -0.3567 -0.1902  0.0730
 3688G2FFO Head43443  20.554  19.031  18.636 -0.0766  0.0592 -0.4820
 3688G2FFO Head43444  20.798  18.865  18.582 -0.4945  0.2922  0.0043
 3688G2FFO Head43445  21.273  18.341  18.450 -0.2190 -0.0666  0.0529
 3688G2FFO Head43446  21.092  18.589  18.485  0.0082  0.4269  0.1164
 3688G2FFO Head43447  20.774  18.586  18.359  0.0328  0.3840  0.4489
 3688G2FFO link43448  20.624  18.384  18.398 -0.5957 -0.6344  0.1171
 3688G2FFO link43449  20.356  18.411  18.377  0.3060 -0.0213  0.1819
 3688G2FFO Tail43450  20.213  18.627  18.176 -0.0292  0.2173  0.3800
 3688G2FFO Tail43451  20.448  18.697  17.933  0.0219  0.0155  0.3371
 3688G2FFO Tail43452  20.380  18.703  17.670 -0.0822 -0.1394 -0.1126
 3688G2FFO Tail43453  20.146  18.607  17.597 -0.0735 -0.1297 -0.2187
 3688G2FFO Tail43454  19.943  18.474  17.514  0.1410 -0.2576 -0.2667
 3688G2FFO Tail43455  19.759  18.406  17.393  0.2742 -0.0062  0.0450
 3688G2FFO Tail43456  20.197  18.915  18.366  0.2248  0.1901  0.0379
 3688G2FFO Tail43457  20.067  19.114  18.241 -0.0662 -0.0795 -0.1930
 3688G2FFO Tail43458  20.183  19.354  18.245  0.1057  0.0746  0.0986
 3688G2FFO Tail43459  20.312  19.575  18.209  0.0542 -0.0550 -0.2419
 3688G2FFO Tail43460  20.483  19.737  18.190  0.0887  0.0827  0.3240
 3689G2FFO Head43461  15.496  15.490  19.295  0.0939 -0.0925  0.0523
 3689G2FFO Head43462  15.385  15.773  19.226 -0.3953  0.3639 -0.0220
 3689G2FFO Head43463  15.772  15.816  19.574  0.0679 -0.3633  0.3264
 3689G2FFO Head43464  15.837  15.869  19.270 -0.0670 -0.0920 -0.3969
 3689G2FFO Head43465  15.580  16.012  19.063  0.1588  0.4042  0.2222
 3689G2FFO Head43466  16.242  16.623  19.266 -0.2458 -0.1350 -0.0699
 3689G2FFO Head43467  16.040  16.391  19.119  0.4245  0.1442  0.1077
 3689G2FFO Head43468  16.086  16.452  19.669  0.0801 -0.2595 -0.1640
 3689G2FFO Head43469  15.867  16.274  19.478  0.5405  0.0643  0.2170
 3689G2FFO Head43470  15.690  16.407  19.196 -0.0267 -0.3630  0.0615
 3689G2FFO link43471  15.511  16.264  19.073  0.3172 -0.0543  0.3313
 3689G2FFO link43472  15.304  16.384  18.908 -0.1145 -0.1944 -0.0078
 3689G2FFO Tail43473  15.380  16.606  18.666 -0.2503  0.1901  0.0355
 3689G2FFO Tail43474  15.390  16.391  18.396  0.0348  0.0412  0.0199
 3689G2FFO Tail43475  15.487  16.152  18.411  0.1780 -0.0242 -0.2887
 3689G2FFO Tail43476  15.679  16.091  18.574 -0.1641  0.0803 -0.1359
 3689G2FFO Tail43477  15.868  16.040  18.744  0.0311 -0.1221 -0.3679
 3689G2FFO Tail43478  16.017  16.039  18.922 -0.0532 -0.1601 -0.0764
 3689G2FFO Tail43479  15.052  16.730  18.624 -0.1176  0.4536 -0.0162
 3689G2FFO Tail43480  14.978  16.856  18.411  0.0841 -0.3068  0.3793
 3689G2FFO Tail43481  14.997  17.116  18.419 -0.0140 -0.0961 -0.0785
 3689G2FFO Tail43482  15.018  17.369  18.403 -0.0872  0.1355  0.1545
 3689G2FFO Tail43483  15.068  17.581  18.324  0.3041 -0.2203  0.2539
 3690G2FFO Head43484  14.752  18.173  16.784  0.0789  0.1866  0.1572
 3690G2FFO Head43485  15.024  18.012  16.736  0.0673  0.1149 -0.4286
 3690G2FFO Head43486  15.306  18.492  16.733 -0.0162  0.0441  0.0647
 3690G2FFO Head43487  15.439  18.229  16.871 -0.1447 -0.6197  0.3748
 3690G2FFO Head43488  15.240  17.987  17.014  0.0131  0.2075  0.1244
 3690G2FFO Head43489  14.705  17.416  16.860  0.4916 -0.2872  0.1237
 3690G2FFO Head43490  14.770  17.717  16.985  0.0439 -0.1019 -0.3928
 3690G2FFO Head43491  15.213  17.583  16.723 -0.0415 -0.1917  0.2403
 3690G2FFO Head43492  15.168  17.524  17.038  0.3450  0.1611  0.0357
 3690G2FFO Head43493  15.004  17.746  17.246 -0.3008  0.0965 -0.3213
 3690G2FFO link43494  15.131  17.973  17.270 -0.2289  0.0340  0.0357
 3690G2FFO link43495  15.238  18.086  17.505 -0.0764  0.1222 -0.2577
 3690G2FFO Tail43496  15.157  17.969  17.801  0.1764  0.2096 -0.4227
 3690G2FFO Tail43497  15.095  17.647  17.720 -0.0743 -0.3522  0.0419
 3690G2FFO Tail43498  15.270  17.497  17.581 -0.2772  0.0146 -0.1705
 3690G2FFO Tail43499  15.419  17.637  17.397  0.0985  0.0440 -0.1190
 3690G2FFO Tail43500  15.567  17.782  17.248 -0.0259  0.2113 -0.0328
 3690G2FFO Tail43501  15.676  17.866  17.065  0.0188 -0.2189  0.0813
 3690G2FFO Tail43502  14.818  18.063  17.832  0.2857 -0.2597  0.0991
 3690G2FFO Tail43503  14.618  17.891  17.822 -0.0562  0.6511 -0.0404
 3690G2FFO Tail43504  14.656  17.667  17.952  0.0576  0.2567 -0.2061
 3690G2FFO Tail43505  14.667  17.444  18.075 -0.0634 -0.1700  0.0375
 3690G2FFO Tail43506  14.632  17.230  18.165  0.0255  0.0971  0.1288
 3691G2FFO Head43507  17.994  19.889  21.978 -0.0584  0.2966  0.2208
 3691G2FFO Head43508  17.883  19.909  21.657 -0.0855  0.0341  0.0623
 3691G2FFO Head43509  17.508  19.925  21.440  0.0273  0.0848 -0.1385
 3691G2FFO Head43510  17.604  19.686  21.420 -0.2118 -0.0777 -0.4618
 3691G2FFO Head43511  17.944  19.626  21.438 -0.5374 -0.0716 -0.4141
 3691G2FFO Head43512  18.587  20.096  21.533  0.1802 -0.0843 -0.2346
 3691G2FFO Head43513  18.344  19.921  21.517 -0.1071  0.1420 -0.2215
 3691G2FFO Head43514  18.859  19.825  21.129  0.2167 -0.0160 -0.0344
 3691G2FFO Head43515  18.588  19.671  21.260 -0.4082  0.2926  0.2949
 3691G2FFO Head43516  18.263  19.785  21.215 -0.5595  0.1752 -0.4451
 3691G2FFO link43517  18.076  19.618  21.205  0.0192 -0.4459 -0.2608
 3691G2FFO link43518  17.995  19.497  20.966  0.0409 -0.0108  0.0075
 3691G2FFO Tail43519  17.800  19.224  20.906  0.0987  0.0396 -0.3902
 3691G2FFO Tail43520  17.687  19.309  20.580  0.0268 -0.2034 -0.0398
 3691G2FFO Tail43521  17.805  19.238  20.361  0.0772 -0.5159  0.1876
 3691G2FFO Tail43522  18.047  19.322  20.318 -0.3352  0.0004  0.3284
 3691G2FFO Tail43523  18.289  19.398  20.294  0.1391  0.0835  0.1516
 3691G2FFO Tail43524  18.518  19.456  20.313 -0.1895 -0.1193 -0.2686
 3691G2FFO Tail43525  18.063  19.023  20.833 -0.4171  0.0950 -0.1148
 3691G2FFO Tail43526  18.274  18.993  20.983  0.0301 -0.2904  0.1171
 3691G2FFO Tail43527  18.306  19.176  21.169 -0.2784 -0.0935  0.0436
 3691G2FFO Tail43528  18.317  19.338  21.370  0.1568  0.0455 -0.0680
 3691G2FFO Tail43529  18.370  19.434  21.571  0.1337 -0.1032 -0.3740
 3692G2FFO Head43530  19.882  17.066  17.094 -0.0275  0.0774  0.3740
 3692G2FFO Head43531  19.880  17.179  17.393 -0.2104 -0.0327  0.1004
 3692G2FFO Head43532  20.231  16.525  17.416 -0.0958  0.0081  0.0061
 3692G2FFO Head43533  20.123  16.797  17.364 -0.2435  0.0937 -0.1895
 3692G2FFO Head43534  20.050  17.013  17.634  0.2048 -0.1836  0.1436
 3692G2FFO Head43535  20.908  17.401  17.755  0.2405  0.2409 -0.0351
 3692G2FFO Head43536  20.674  17.378  17.620 -0.1194  0.1648 -0.0005
 3692G2FFO Head43537  20.741  16.754  17.998 -0.3520  0.2984 -0.1105
 3692G2FFO Head43538  20.759  16.959  17.754  0.0119 -0.4009  0.6003
 3692G2FFO Head43539  20.452  17.096  17.616 -0.2471  0.1470  0.0973
 3692G2FFO link43540  20.227  17.115  17.778 -0.3751 -0.5451  0.1399
 3692G2FFO link43541  20.231  17.070  18.058 -0.1452 -0.3490  0.2801
 3692G2FFO Tail43542  20.319  16.779  18.192 -0.3871  0.1749 -0.0287
 3692G2FFO Tail43543  20.020  16.712  18.317  0.0738  0.1811 -0.1915
 3692G2FFO Tail43544  19.819  16.870  18.254  0.4338  0.2072  0.1476
 3692G2FFO Tail43545  19.752  16.883  18.001  0.1610  0.0351  0.1731
 3692G2FFO Tail43546  19.673  16.850  17.756 -0.1725  0.1266 -0.0613
 3692G2FFO Tail43547  19.659  16.773  17.538 -0.0927 -0.0107  0.4565
 3692G2FFO Tail43548  20.486  16.864  18.494  0.2640 -0.0600 -0.1675
 3692G2FFO Tail43549  20.448  17.095  18.620  0.1338 -0.0776 -0.0628
 3692G2FFO Tail43550  20.257  17.241  18.520 -0.0404  0.0512  0.0778
 3692G2FFO Tail43551  20.050  17.371  18.444  0.0583 -0.0887 -0.0185
 3692G2FFO Tail43552  19.839  17.422  18.352  0.1210  0.0665  0.1852
 3693G2FFO Head43553  18.674  18.723  19.573  0.2525  0.0533  0.1450
 3693G2FFO Head43554  18.618  18.782  19.886  0.0254  0.0421 -0.1361
 3693G2FFO Head43555  18.603  19.307  19.846  0.2224 -0.2124  0.3613
 3693G2FFO Head43556  18.548  19.116  20.077  0.2062  0.0082 -0.1995
 3693G2FFO Head43557  18.314  18.860  20.032  0.4297 -0.2302  0.2244
 3693G2FFO Head43558  18.952  18.423  20.374 -0.2384  0.2535  0.1677
 3693G2FFO Head43559  18.715  18.446  20.126  0.0630 -0.0126 -0.2450
 3693G2FFO Head43560  18.624  18.025  20.483 -0.2056  0.3685  0.2064
 3693G2FFO Head43561  18.517  18.322  20.478 -0.1282  0.0371  0.1814
 3693G2FFO Head43562  18.355  18.476  20.190  0.3538  0.6305 -0.1735
 3693G2FFO link43563  18.232  18.712  20.231  0.0087 -0.5243  0.0839
 3693G2FFO link43564  17.986  18.757  20.364  0.1516  0.2156  0.1785
 3693G2FFO Tail43565  17.701  18.590  20.300  0.1214  0.1099  0.3399
 3693G2FFO Tail43566  17.741  18.550  19.969  0.1204  0.2437  0.3268
 3693G2FFO Tail43567  17.931  18.646  19.805  0.1954 -0.0637 -0.1472
 3693G2FFO Tail43568  18.149  18.505  19.740 -0.2487  0.0021 -0.1815
 3693G2FFO Tail43569  18.369  18.363  19.733 -0.1840  0.1627 -0.0860
 3693G2FFO Tail43570  18.545  18.239  19.664  0.1129 -0.0900  0.1108
 3693G2FFO Tail43571  17.507  18.868  20.285  0.1780  0.2594 -0.1217
 3693G2FFO Tail43572  17.537  19.054  20.108 -0.0778 -0.2563 -0.0363
 3693G2FFO Tail43573  17.763  19.077  19.987 -0.4048 -0.0664  0.0016
 3693G2FFO Tail43574  17.987  19.141  19.880 -0.1962 -0.0654  0.2153
 3693G2FFO Tail43575  18.181  19.142  19.744  0.2437 -0.0235  0.1582
 3694G2FFO Head43576  16.625  17.756  19.677 -0.0708 -0.0245  0.1079
 3694G2FFO Head43577  16.510  17.879  19.399 -0.0182 -0.0916 -0.2987
 3694G2FFO Head43578  15.944  17.790  19.856 -0.1858  0.1710  0.1334
 3694G2FFO Head43579  16.199  17.716  19.656 -0.1022  0.3763 -0.1837
 3694G2FFO Head43580  16.180  17.838  19.327 -0.2505  0.1149 -0.0635
 3694G2FFO Head43581  16.333  17.085  19.437 -0.2499  0.2688  0.2129
 3694G2FFO Head43582  16.118  17.300  19.511  0.0822 -0.1845  0.2236
 3694G2FFO Head43583  15.614  17.400  19.715  0.2745 -0.4634 -0.2158
 3694G2FFO Head43584  15.764  17.614  19.523 -0.0645  0.4408  0.0705
 3694G2FFO Head43585  15.978  17.491  19.272 -0.0498  0.0340  0.3727
 3694G2FFO link43586  16.139  17.664  19.135 -0.0309 -0.3196 -0.3450
 3694G2FFO link43587  16.320  17.584  18.925 -0.1342 -0.1958 -0.2067
 3694G2FFO Tail43588  16.642  17.609  18.921  0.0362  0.1445 -0.1278
 3694G2FFO Tail43589  16.686  17.898  18.739 -0.0825 -0.1745  0.1417
 3694G2FFO Tail43590  16.878  17.958  18.593 -0.2112 -0.0243  0.4194
 3694G2FFO Tail43591  16.850  17.900  18.335 -0.1321  0.2516 -0.0740
 3694G2FFO Tail43592  16.765  17.848  18.107 -0.0905  0.2430  0.0758
 3694G2FFO Tail43593  16.676  17.849  17.887  0.1033  0.0884 -0.1544
 3694G2FFO Tail43594  16.710  17.414  18.638 -0.3498 -0.1413  0.3996
 3694G2FFO Tail43595  16.672  17.479  18.390 -0.1220  0.1128  0.0065
 3694G2FFO Tail43596  16.819  17.378  18.193 -0.1269  0.1057 -0.3430
 3694G2FFO Tail43597  16.988  17.322  18.024  0.1360  0.3052 -0.0516
 3694G2FFO Tail43598  17.180  17.326  17.876  0.0380 -0.1237 -0.2785
 3695G2FFO Head43599  19.253  16.985  15.943  0.2766  0.1585  0.0192
 3695G2FFO Head43600  19.075  16.720  15.984 -0.2454 -0.2605 -0.0958
 3695G2FFO Head43601  18.799  17.000  15.726  0.2611  0.0339 -0.3506
 3695G2FFO Head43602  18.659  16.838  15.973 -0.1760 -0.3020 -0.0904
 3695G2FFO Head43603  18.856  16.687  16.231 -0.4700  0.1477  0.0670
 3695G2FFO Head43604  19.483  16.626  16.254 -0.0669  0.0719  0.0520
 3695G2FFO Head43605  19.290  16.379  16.246 -0.2294 -0.2024 -0.2276
 3695G2FFO Head43606  18.893  15.774  16.435 -0.1690  0.1426 -0.0411
 3695G2FFO Head43607  19.057  16.020  16.307 -0.1761  0.6795  0.0555
 3695G2FFO Head43608  19.005  16.354  16.429 -0.2284 -0.2340 -0.1399
 3695G2FFO link43609  18.786  16.455  16.349 -0.0923  0.0466 -0.2020
 3695G2FFO link43610  18.545  16.312  16.297 -0.0247  0.2236  0.2575
 3695G2FFO Tail43611  18.404  16.340  16.002  0.1791 -0.3384  0.4021
 3695G2FFO Tail43612  18.155  16.568  16.059 -0.1284 -0.1289 -0.2966
 3695G2FFO Tail43613  17.914  16.604  15.963  0.1592  0.2414  0.1280
 3695G2FFO Tail43614  17.858  16.850  15.914 -0.0794  0.1917  0.0026
 3695G2FFO Tail43615  17.852  17.099  15.892  0.1616  0.0971  0.0385
 3695G2FFO Tail43616  17.915  17.321  15.903 -0.0701 -0.0203  0.1186
 3695G2FFO Tail43617  18.192  16.072  16.011  0.0463  0.2729  0.0388
 3695G2FFO Tail43618  18.063  15.995  16.220 -0.1274 -0.0511  0.1300
 3695G2FFO Tail43619  18.218  15.970  16.440 -0.0546  0.0175 -0.0487
 3695G2FFO Tail43620  18.394  15.967  16.625 -0.1270 -0.0698 -0.2705
 3695G2FFO Tail43621  18.576  15.905  16.760 -0.0442 -0.1354 -0.3032
 3696G2FFO Head43622  15.705  15.367  16.219 -0.2001  0.0610  0.0484
 3696G2FFO Head43623  15.875  15.614  16.130  0.2047 -0.1840 -0.1848
 3696G2FFO Head43624  15.360  16.098  16.085  0.2305 -0.3500  0.3737
 3696G2FFO Head43625  15.635  15.974  16.031 -0.2140 -0.1808  0.4460
 3696G2FFO Head43626  15.823  15.886  16.301 -0.0745  0.2386 -0.0725
 3696G2FFO Head43627  15.216  15.397  16.926  0.5397 -0.3042 -0.1179
 3696G2FFO Head43628  15.287  15.662  16.783 -0.4933  0.0206 -0.5710
 3696G2FFO Head43629  14.898  15.779  16.524  0.0572  0.1686  0.0499
 3696G2FFO Head43630  15.198  15.781  16.355  0.2027  0.2940  0.4169
 3696G2FFO Head43631  15.503  15.686  16.508 -0.0364  0.2825 -0.3177
 3696G2FFO link43632  15.694  15.854  16.533  0.3956  0.2120  0.0391
 3696G2FFO link43633  15.806  15.952  16.776  0.0792  0.2218  0.2252
 3696G2FFO Tail43634  16.095  16.074  16.755 -0.1615 -0.1692 -0.1050
 3696G2FFO Tail43635  16.055  16.296  16.482  0.3560  0.1756  0.2412
 3696G2FFO Tail43636  15.833  16.307  16.337 -0.1048  0.2690 -0.0909
 3696G2FFO Tail43637  15.598  16.262  16.452 -0.3295 -0.1074  0.4217
 3696G2FFO Tail43638  15.402  16.182  16.587 -0.0119  0.0993 -0.3291
 3696G2FFO Tail43639  15.247  16.091  16.736 -0.1826  0.2008  0.0678
 3696G2FFO Tail43640  16.249  15.828  16.564 -0.1259 -0.3241 -0.1297
 3696G2FFO Tail43641  16.308  15.844  16.316 -0.1533  0.0302  0.1264
 3696G2FFO Tail43642  16.544  15.749  16.229 -0.0578  0.0197  0.0174
 3696G2FFO Tail43643  16.746  15.667  16.100 -0.1013 -0.2043  0.1567
 3696G2FFO Tail43644  16.950  15.560  16.039  0.2564  0.0071  0.0630
 3697G2FFO Head43645  14.851  19.059  22.933 -0.0999  0.1293  0.2717
 3697G2FFO Head43646  14.805  18.883  22.673  0.0351  0.2813  0.1102
 3697G2FFO Head43647  14.514  18.285  22.395  0.1741  0.1974  0.3435
 3697G2FFO Head43648  14.668  18.574  22.436  0.0807  0.0071  0.1051
 3697G2FFO Head43649  14.506  18.877  22.489 -0.3121  0.1889  0.3697
 3697G2FFO Head43650  13.806  18.778  22.375 -0.2760 -0.0829 -0.3286
 3697G2FFO Head43651  13.959  18.900  22.183  0.2761  0.4297 -0.0906
 3697G2FFO Head43652  13.996  19.045  21.693  0.1213 -0.0568  0.2914
 3697G2FFO Head43653  14.086  19.239  21.951 -0.2162  0.1952 -0.0918
 3697G2FFO Head43654  14.207  19.118  22.262 -0.2963 -0.0601 -0.2805
 3697G2FFO link43655  14.466  19.029  22.288 -0.1641  0.0856  0.2501
 3697G2FFO link43656  14.599  18.979  22.042 -0.1135 -0.3057 -0.1053
 3697G2FFO Tail43657  14.554  18.703  21.867  0.0093 -0.4598 -0.2007
 3697G2FFO Tail43658  14.816  18.509  22.016  0.1432  0.0206 -0.0840
 3697G2FFO Tail43659  15.056  18.607  22.077 -0.2029  0.1069 -0.0213
 3697G2FFO Tail43660  15.077  18.804  22.235 -0.2578 -0.1985  0.0331
 3697G2FFO Tail43661  15.086  19.020  22.361  0.1722 -0.0041 -0.0641
 3697G2FFO Tail43662  15.039  19.204  22.509 -0.1337  0.1612 -0.3595
 3697G2FFO Tail43663  14.684  18.792  21.553  0.1292 -0.0503  0.0780
 3697G2FFO Tail43664  14.579  18.953  21.373  0.0602  0.0417  0.2176
 3697G2FFO Tail43665  14.732  18.964  21.152 -0.1178  0.0813  0.0319
 3697G2FFO Tail43666  14.870  18.921  20.941  0.3645  0.2257  0.4509
 3697G2FFO Tail43667  14.998  18.819  20.774 -0.0299 -0.0977  0.0989
 3698G2FFO Head43668  15.667  14.341  17.725 -0.1477  0.4232 -0.2393
 3698G2FFO Head43669  15.978  14.287  17.720 -0.0847 -0.1319  0.0727
 3698G2FFO Head43670  16.252  14.017  18.023  0.3871 -0.0988  0.2688
 3698G2FFO Head43671  16.199  14.323  18.075  0.0681 -0.0250  0.1773
 3698G2FFO Head43672  16.196  14.529  17.797 -0.0513 -0.0598 -0.0404
 3698G2FFO Head43673  16.406  13.778  17.521  0.1727  0.1568  0.0212
 3698G2FFO Head43674  16.285  14.036  17.587 -0.1619  0.0446 -0.5709
 3698G2FFO Head43675  16.853  14.241  17.216 -0.2223  0.1563  0.0830
 3698G2FFO Head43676  16.602  14.169  17.334  0.0416  0.2872  0.2268
 3698G2FFO Head43677  16.510  14.287  17.659 -0.1815 -0.3114  0.0136
 3698G2FFO link43678  16.441  14.546  17.676 -0.5200 -0.0440  0.4674
 3698G2FFO link43679  16.526  14.741  17.472 -0.0576 -0.2317 -0.0352
 3698G2FFO Tail43680  16.338  14.980  17.369  0.1630 -0.3212  0.0152
 3698G2FFO Tail43681  16.443  15.272  17.530  0.0283 -0.1714  0.1983
 3698G2FFO Tail43682  16.503  15.511  17.422  0.1540  0.0427 -0.0602
 3698G2FFO Tail43683  16.758  15.581  17.407  0.1111  0.2928 -0.0815
 3698G2FFO Tail43684  17.016  15.610  17.392  0.0614  0.3391 -0.0881
 3698G2FFO Tail43685  17.242  15.617  17.452 -0.2184  0.0634  0.1475
 3698G2FFO Tail43686  16.418  15.057  17.030  0.1593 -0.2137 -0.2441
 3698G2FFO Tail43687  16.305  15.264  16.914 -0.1518  0.1887  0.1076
 3698G2FFO Tail43688  16.257  15.485  17.047 -0.0905  0.0481 -0.0497
 3698G2FFO Tail43689  16.186  15.670  17.206  0.4266  0.0100  0.0962
 3698G2FFO Tail43690  16.097  15.778  17.392 -0.0590 -0.1541 -0.3297
 3699G2FFO Head43691  19.672  17.053  16.228  0.0642  0.0378  0.1942
 3699G2FFO Head43692  19.367  17.027  16.370  0.1068  0.9087  0.1277
 3699G2FFO Head43693  19.524  17.656  16.584  0.0945 -0.4692 -0.1396
 3699G2FFO Head43694  19.542  17.378  16.627 -0.2085  0.0775  0.0441
 3699G2FFO Head43695  19.254  17.191  16.649 -0.3091 -0.0775 -0.5580
 3699G2FFO Head43696  19.832  16.545  16.979 -0.0796 -0.1773 -0.1672
 3699G2FFO Head43697  19.558  16.735  17.101 -0.0237 -0.0362 -0.3313
 3699G2FFO Head43698  19.974  17.004  16.605  0.2567 -0.3112  0.1082
 3699G2FFO Head43699  19.647  16.883  16.676 -0.1593 -0.2906  0.2738
 3699G2FFO Head43700  19.455  17.009  16.929  0.0458 -0.5550  0.1557
 3699G2FFO link43701  19.200  17.053  16.876 -0.0376  0.1208 -0.0115
 3699G2FFO link43702  19.033  17.142  17.085 -0.0219 -0.1467 -0.1125
 3699G2FFO Tail43703  18.724  17.015  17.117 -0.4587 -0.2510 -0.0065
 3699G2FFO Tail43704  18.632  16.987  16.775 -0.1026  0.1227  0.1578
 3699G2FFO Tail43705  18.792  16.869  16.603 -0.1462  0.4182  0.2260
 3699G2FFO Tail43706  19.028  16.770  16.666 -0.0059 -0.0506 -0.0608
 3699G2FFO Tail43707  19.251  16.659  16.730 -0.1758 -0.0825 -0.1044
 3699G2FFO Tail43708  19.436  16.512  16.761  0.1837  0.2771 -0.3091
 3699G2FFO Tail43709  18.550  17.291  17.204  0.2944  0.0868  0.1722
 3699G2FFO Tail43710  18.526  17.499  17.042  0.1264 -0.1638 -0.0160
 3699G2FFO Tail43711  18.688  17.524  16.838  0.1160  0.1621 -0.1192
 3699G2FFO Tail43712  18.836  17.522  16.640 -0.0309  0.2035  0.1188
 3699G2FFO Tail43713  18.968  17.584  16.463  0.0276  0.0796  0.2930
 3700G2FFO Head43714  14.112  18.976  21.144 -0.0767  0.5432  0.0488
 3700G2FFO Head43715  14.291  18.943  20.898 -0.0489 -0.1948 -0.3356
 3700G2FFO Head43716  14.178  19.479  21.105 -0.3122 -0.1367  0.0511
 3700G2FFO Head43717  14.076  19.350  20.843  0.0336  0.1901 -0.1778
 3700G2FFO Head43718  14.270  19.165  20.633 -0.3067  0.4290 -0.3006
 3700G2FFO Head43719  13.864  19.131  20.323 -0.0146  0.0286  0.2107
 3700G2FFO Head43720  14.127  19.301  20.165  0.7175  0.5057 -0.0549
 3700G2FFO Head43721  13.878  19.611  20.451  0.2669  0.1060  0.0451
 3700G2FFO Head43722  14.181  19.645  20.442  0.0122 -0.1162  0.0421
 3700G2FFO Head43723  14.406  19.404  20.340 -0.3716 -0.0001  0.1006
 3700G2FFO link43724  14.494  19.242  20.512  0.1339  0.2981 -0.1637
 3700G2FFO link43725  14.752  19.101  20.501 -0.0437  0.2091 -0.2123
 3700G2FFO Tail43726  14.970  19.199  20.286  0.0990  0.3644  0.3811
 3700G2FFO Tail43727  14.892  18.949  20.053 -0.1395 -0.0405 -0.1389
 3700G2FFO Tail43728  15.064  18.746  20.018  0.4534  0.0875  0.1049
 3700G2FFO Tail43729  15.141  18.635  20.240  0.1719 -0.0202 -0.0115
 3700G2FFO Tail43730  15.209  18.565  20.473  0.0132 -0.0335 -0.1385
 3700G2FFO Tail43731  15.323  18.476  20.663 -0.1973  0.1615  0.3496
 3700G2FFO Tail43732  15.263  19.080  20.427 -0.0613 -0.2197 -0.1004
 3700G2FFO Tail43733  15.445  18.960  20.296 -0.0967  0.3923  0.0025
 3700G2FFO Tail43734  15.708  18.999  20.336 -0.0197 -0.1140 -0.3821
 3700G2FFO Tail43735  15.948  19.075  20.352 -0.2440 -0.2982  0.1392
 3700G2FFO Tail43736  16.143  19.214  20.377  0.0817 -0.0028  0.0982
 3701G2FFO Head43737  13.717  17.884  19.654  0.3147  0.1888 -0.1550
 3701G2FFO Head43738  13.955  17.851  19.417  0.1943  0.0417 -0.3616
 3701G2FFO Head43739  14.013  17.358  19.598 -0.0152  0.0526  0.0634
 3701G2FFO Head43740  14.038  17.408  19.320  0.0617 -0.0000  0.1864
 3701G2FFO Head43741  13.878  17.653  19.125 -0.3056 -0.2893 -0.2838
 3701G2FFO Head43742  13.292  17.998  18.704 -0.4372 -0.4328  0.0391
 3701G2FFO Head43743  13.302  18.030  19.002 -0.0853 -0.0222  0.2360
 3701G2FFO Head43744  13.172  18.006  19.571  0.1275  0.3407  0.2679
 3701G2FFO Head43745  13.241  17.805  19.371  0.2425  0.0619 -0.1631
 3701G2FFO Head43746  13.532  17.843  19.188 -0.2226  0.3325  0.2687
 3701G2FFO link43747  13.628  17.632  19.078  0.0006  0.2027 -0.0018
 3701G2FFO link43748  13.544  17.470  18.856  0.2035  0.2945  0.1017
 3701G2FFO Tail43749  13.764  17.306  18.668 -0.1229  0.3486  0.0819
 3701G2FFO Tail43750  13.578  17.016  18.572 -0.0557 -0.2752 -0.0065
 3701G2FFO Tail43751  13.511  16.947  18.337  0.2305 -0.0148  0.4529
 3701G2FFO Tail43752  13.438  16.686  18.309 -0.1929 -0.2256  0.2396
 3701G2FFO Tail43753  13.423  16.440  18.276 -0.0828  0.0900  0.0582
 3701G2FFO Tail43754  13.434  16.209  18.300 -0.5823 -0.1570  0.1815
 3701G2FFO Tail43755  13.945  17.150  18.920 -0.0051  0.1483  0.0165
 3701G2FFO Tail43756  13.959  16.892  18.942  0.2227 -0.1177 -0.1024
 3701G2FFO Tail43757  14.091  16.769  18.760  0.1901  0.1441  0.1400
 3701G2FFO Tail43758  14.209  16.673  18.554 -0.1420  0.1659  0.2206
 3701G2FFO Tail43759  14.277  16.543  18.375  0.0174 -0.2203  0.1831
 3702G2FFO Head43760  14.972  20.274  17.559 -0.2167 -0.1001  0.1431
 3702G2FFO Head43761  14.907  19.979  17.627  0.3739  0.0758  0.0638
 3702G2FFO Head43762  14.669  20.360  18.006 -0.3645 -0.1794  0.1265
 3702G2FFO Head43763  14.630  20.051  17.961 -0.0144  0.2279 -0.0533
 3702G2FFO Head43764  14.901  19.836  17.947 -0.1169  0.4339 -0.2766
 3702G2FFO Head43765  14.398  19.816  18.303 -0.0437  0.3184  0.1785
 3702G2FFO Head43766  14.674  19.783  18.473  0.0134  0.2507 -0.3355
 3702G2FFO Head43767  14.733  20.327  18.678 -0.0553 -0.1516  0.1704
 3702G2FFO Head43768  14.794  20.187  18.393 -0.1270 -0.2570 -0.1808
 3702G2FFO Head43769  14.978  19.892  18.369  0.1478  0.0602  0.1311
 3702G2FFO link43770  15.079  19.823  18.132  0.0793  0.2271  0.2432
 3702G2FFO link43771  15.310  19.659  18.097  0.0144 -0.3003 -0.3869
 3702G2FFO Tail43772  15.422  19.485  18.349 -0.1058 -0.2587 -0.2749
 3702G2FFO Tail43773  15.427  19.175  18.218 -0.0883 -0.0061 -0.0386
 3702G2FFO Tail43774  15.383  18.969  18.368 -0.2237  0.2288  0.0416
 3702G2FFO Tail43775  15.285  18.750  18.267  0.1666  0.1099 -0.1221
 3702G2FFO Tail43776  15.232  18.515  18.189  0.0959  0.1284  0.0375
 3702G2FFO Tail43777  15.180  18.327  18.063  0.0384  0.0456 -0.0619
 3702G2FFO Tail43778  15.118  19.433  18.485 -0.4843 -0.1986  0.1359
 3702G2FFO Tail43779  15.145  19.345  18.733 -0.0074 -0.2885 -0.1732
 3702G2FFO Tail43780  15.277  19.134  18.769  0.2522  0.2212 -0.2490
 3702G2FFO Tail43781  15.388  18.925  18.847 -0.0001 -0.1204  0.0819
 3702G2FFO Tail43782  15.468  18.707  18.864 -0.0287 -0.1269 -0.0229
 3703G2FFO Head43783  16.168  18.767  22.557 -0.1669 -0.0101 -0.2228
 3703G2FFO Head43784  16.488  18.872  22.568 -0.1060 -0.2063 -0.2880
 3703G2FFO Head43785  16.081  19.252  22.398  0.1822  0.0280 -0.1048
 3703G2FFO Head43786  16.210  19.245  22.660 -0.3097  0.3313 -0.2158
 3703G2FFO Head43787  16.566  19.192  22.663  0.1130  0.0548 -0.0266
 3703G2FFO Head43788  17.360  19.228  22.670 -0.0203 -0.1340  0.1312
 3703G2FFO Head43789  17.212  19.438  22.803  0.3736 -0.2137 -0.2690
 3703G2FFO Head43790  17.113  19.241  23.217 -0.1524 -0.0855  0.2618
 3703G2FFO Head43791  16.847  19.360  23.074  0.0421  0.2780 -0.3077
 3703G2FFO Head43792  16.862  19.481  22.748 -0.0120  0.1006  0.0400
 3703G2FFO link43793  16.732  19.359  22.541 -0.0351 -0.1240  0.2185
 3703G2FFO link43794  16.877  19.268  22.311 -0.3805 -0.6183  0.0058
 3703G2FFO Tail43795  17.206  19.347  22.269 -0.3000 -0.0678  0.1624
 3703G2FFO Tail43796  17.192  19.491  21.957  0.4452  0.3210 -0.0917
 3703G2FFO Tail43797  17.394  19.591  21.816  0.2216 -0.2471 -0.0898
 3703G2FFO Tail43798  17.641  19.510  21.853 -0.0636  0.1903  0.3574
 3703G2FFO Tail43799  17.875  19.392  21.840 -0.0938  0.0336  0.0061
 3703G2FFO Tail43800  18.049  19.240  21.861  0.1420  0.1270 -0.0895
 3703G2FFO Tail43801  17.329  19.016  22.194 -0.0243 -0.1190  0.0213
 3703G2FFO Tail43802  17.176  18.805  22.141  0.1015  0.0744 -0.0554
 3703G2FFO Tail43803  17.246  18.637  21.954 -0.2181 -0.2022  0.2840
 3703G2FFO Tail43804  17.339  18.454  21.808  0.1119  0.0047 -0.4138
 3703G2FFO Tail43805  17.375  18.291  21.654  0.2897  0.0615  0.2590
 3704G2FFO Head43806  16.564  14.908  16.593 -0.2030  0.0658  0.4031
 3704G2FFO Head43807  16.834  15.002  16.788 -0.0729 -0.5866 -0.1332
 3704G2FFO Head43808  16.604  14.562  16.963 -0.1582  0.1239 -0.0506
 3704G2FFO Head43809  16.847  14.685  17.065  0.0555  0.1903  0.1662
 3704G2FFO Head43810  17.095  14.790  16.814 -0.1799 -0.1764 -0.1733
 3704G2FFO Head43811  17.037  14.336  16.761 -0.0281 -0.1287  0.0828
 3704G2FFO Head43812  17.369  14.359  16.761 -0.1045  0.1954 -0.2897
 3704G2FFO Head43813  17.835  14.760  16.318  0.1716  0.0112 -0.1104
 3704G2FFO Head43814  17.556  14.625  16.463  0.1203 -0.1826  0.1022
 3704G2FFO Head43815  17.506  14.697  16.800  0.1452  0.3887  0.0615
 3704G2FFO link43816  17.327  14.863  16.874 -0.2721 -0.4329 -0.2934
 3704G2FFO link43817  17.365  15.054  17.088  0.2426 -0.1060  0.0984
 3704G2FFO Tail43818  17.668  15.195  17.126 -0.2745 -0.0446  0.0473
 3704G2FFO Tail43819  17.640  15.290  17.479  0.0903 -0.1742 -0.1713
 3704G2FFO Tail43820  17.718  15.114  17.659  0.0155  0.1896  0.0530
 3704G2FFO Tail43821  17.653  14.862  17.612 -0.1498  0.0505 -0.0008
 3704G2FFO Tail43822  17.599  14.614  17.607 -0.0352 -0.1517  0.0901
 3704G2FFO Tail43823  17.562  14.383  17.669 -0.0604 -0.4980 -0.3035
 3704G2FFO Tail43824  17.630  15.501  16.981  0.0456  0.4197  0.0034
 3704G2FFO Tail43825  17.436  15.541  16.816  0.1129 -0.0865 -0.1787
 3704G2FFO Tail43826  17.193  15.460  16.875  0.0980  0.1456  0.2329
 3704G2FFO Tail43827  16.957  15.400  16.940  0.0274  0.1644  0.2769
 3704G2FFO Tail43828  16.743  15.415  17.039 -0.4370  0.1852  0.1264
 3705G2FFO Head43829  20.087  19.329  20.489  0.0390 -0.1652  0.0140
 3705G2FFO Head43830  20.286  19.386  20.227 -0.0349  0.0039 -0.5233
 3705G2FFO Head43831  19.810  19.943  20.044 -0.0661 -0.2412 -0.1614
 3705G2FFO Head43832  19.986  19.666  20.157 -0.2342  0.4741 -0.0941
 3705G2FFO Head43833  20.131  19.445  19.926 -0.0058 -0.0474  0.3157
 3705G2FFO Head43834  19.933  19.853  19.584  0.2602  0.3217  0.0583
 3705G2FFO Head43835  19.830  19.604  19.461 -0.0953  0.0738  0.0313
 3705G2FFO Head43836  20.203  19.675  19.181  0.0350 -0.1600 -0.3312
 3705G2FFO Head43837  20.231  19.419  19.398  0.1754 -0.0001  0.0430
 3705G2FFO Head43838  19.955  19.294  19.579 -0.1174 -0.1178 -0.2220
 3705G2FFO link43839  19.986  19.260  19.824 -0.5117  0.8653 -0.2884
 3705G2FFO link43840  19.894  19.030  19.988 -0.1730 -0.3736  0.0848
 3705G2FFO Tail43841  19.867  18.739  19.866  0.0393  0.3373 -0.1289
 3705G2FFO Tail43842  20.179  18.615  19.981 -0.3470 -0.0190  0.2120
 3705G2FFO Tail43843  20.355  18.568  19.785  0.0123  0.1573 -0.2217
 3705G2FFO Tail43844  20.548  18.405  19.844  0.0391  0.0475 -0.1013
 3705G2FFO Tail43845  20.718  18.214  19.864 -0.0089  0.0640  0.2395
 3705G2FFO Tail43846  20.911  18.083  19.885 -0.1934  0.1932 -0.1548
 3705G2FFO Tail43847  19.987  18.741  19.520  0.3592  0.1557  0.1253
 3705G2FFO Tail43848  20.214  18.845  19.446  0.2673  0.0120 -0.0517
 3705G2FFO Tail43849  20.330  19.014  19.598 -0.0445 -0.1195  0.1229
 3705G2FFO Tail43850  20.474  19.193  19.712 -0.2026 -0.0899  0.1506
 3705G2FFO Tail43851  20.531  19.379  19.842 -0.2932  0.1257  0.1789
 3706G2FFO Head43852  17.829  15.031  18.496  0.2438  0.2437  0.0579
 3706G2FFO Head43853  17.600  15.163  18.367 -0.5187  0.0776  0.2478
 3706G2FFO Head43854  17.420  14.701  18.604 -0.0181  0.1297  0.1732
 3706G2FFO Head43855  17.517  14.743  18.318  0.2402 -0.1605 -0.1447
 3706G2FFO Head43856  17.442  15.004  18.103 -0.1457  0.1946 -0.2169
 3706G2FFO Head43857  16.964  14.593  17.525 -0.0580  0.0007 -0.3159
 3706G2FFO Head43858  17.196  14.794  17.538 -0.0166 -0.0972  0.2101
 3706G2FFO Head43859  16.922  15.082  17.289  0.2184  0.0041  0.0263
 3706G2FFO Head43860  16.939  15.178  17.558  0.1097 -0.3163  0.3007
 3706G2FFO Head43861  17.201  15.074  17.762 -0.2931 -0.0395 -0.0812
 3706G2FFO link43862  17.185  15.049  18.026 -0.2530 -0.6785  0.5255
 3706G2FFO link43863  17.017  15.215  18.179  0.1160  0.2385 -0.3405
 3706G2FFO Tail43864  16.700  15.236  18.131  0.3610 -0.3843 -0.1360
 3706G2FFO Tail43865  16.668  14.977  17.916 -0.1589 -0.0402 -0.1274
 3706G2FFO Tail43866  16.431  14.885  17.871 -0.1291 -0.0082 -0.1474
 3706G2FFO Tail43867  16.226  15.035  17.910  0.2331  0.0413 -0.0154
 3706G2FFO Tail43868  16.036  15.205  17.964 -0.0316 -0.0710 -0.0350
 3706G2FFO Tail43869  15.835  15.310  18.036 -0.0798  0.1366  0.1599
 3706G2FFO Tail43870  16.681  15.497  17.891  0.1719  0.1094  0.2340
 3706G2FFO Tail43871  16.895  15.644  17.831  0.3047  0.1485  0.2111
 3706G2FFO Tail43872  17.134  15.525  17.848 -0.0705  0.0116  0.1188
 3706G2FFO Tail43873  17.367  15.444  17.882  0.0946 -0.1134 -0.1775
 3706G2FFO Tail43874  17.594  15.415  17.948  0.1239  0.1986  0.0341
 3707G2FFO Head43875  19.773  18.474  16.227 -0.3740  0.0355 -0.1124
 3707G2FFO Head43876  19.816  18.550  16.569 -0.1040 -0.1957 -0.0100
 3707G2FFO Head43877  20.063  18.798  16.915 -0.0997  0.0369  0.1219
 3707G2FFO Head43878  19.933  18.556  17.026 -0.0404 -0.1143 -0.3668
 3707G2FFO Head43879  19.695  18.371  16.844 -0.1749 -0.0494 -0.1090
 3707G2FFO Head43880  19.204  17.982  16.449  0.1114  0.0543 -0.0781
 3707G2FFO Head43881  19.167  18.272  16.484 -0.0230 -0.2380  0.1516
 3707G2FFO Head43882  19.458  18.975  16.634  0.0250 -0.1846  0.0470
 3707G2FFO Head43883  19.415  18.691  16.517 -0.0289  0.1194  0.1516
 3707G2FFO Head43884  19.283  18.451  16.742  0.0327  0.2434  0.0808
 3707G2FFO link43885  19.439  18.342  16.920 -0.2647 -0.3797  0.0031
 3707G2FFO link43886  19.378  18.334  17.198  0.2520  0.1729  0.2243
 3707G2FFO Tail43887  19.343  18.042  17.350  0.0211 -0.5231  0.2687
 3707G2FFO Tail43888  19.461  18.182  17.646  0.1268 -0.0901  0.0323
 3707G2FFO Tail43889  19.348  18.120  17.879  0.4173  0.0949 -0.1820
 3707G2FFO Tail43890  19.382  18.272  18.084 -0.0308 -0.0739  0.3481
 3707G2FFO Tail43891  19.374  18.450  18.274  0.0318 -0.0012  0.2156
 3707G2FFO Tail43892  19.376  18.657  18.390  0.2234  0.1423 -0.0746
 3707G2FFO Tail43893  18.989  18.010  17.391  0.0016 -0.2123 -0.0415
 3707G2FFO Tail43894  18.820  18.160  17.259  0.2204  0.2577  0.0070
 3707G2FFO Tail43895  18.648  18.308  17.387  0.1273 -0.1383  0.0098
 3707G2FFO Tail43896  18.523  18.458  17.539  0.0296 -0.1148 -0.1530
 3707G2FFO Tail43897  18.385  18.531  17.713 -0.1502 -0.2907 -0.0068
 3708G2FFO Head43898  20.443  20.054  18.511  0.1290 -0.0428 -0.2711
 3708G2FFO Head43899  20.295  19.981  18.744 -0.1920  0.1896  0.3372
 3708G2FFO Head43900  20.495  19.555  18.618  0.1511  0.1748 -0.1286
 3708G2FFO Head43901  20.223  19.531  18.739  0.5195 -0.2933  0.5980
 3708G2FFO Head43902  19.998  19.801  18.717  0.2479 -0.2638  0.5021
 3708G2FFO Head43903  19.668  20.533  18.467 -0.1104 -0.3818 -0.2384
 3708G2FFO Head43904  19.677  20.232  18.295 -0.6401  0.3379  0.2235
 3708G2FFO Head43905  19.977  20.301  18.876 -0.2526  0.0738 -0.0609
 3708G2FFO Head43906  20.040  20.283  18.553  0.1170 -0.0648  0.3546
 3708G2FFO Head43907  19.922  19.995  18.380 -0.1932  0.0497  0.3371
 3708G2FFO link43908  19.853  19.802  18.501  0.0116  0.6717  0.4933
 3708G2FFO link43909  19.735  19.559  18.383 -0.1215 -0.2333  0.1123
 3708G2FFO Tail43910  19.584  19.339  18.558  0.0869  0.2617 -0.1267
 3708G2FFO Tail43911  19.858  19.139  18.656 -0.0846  0.0047 -0.0127
 3708G2FFO Tail43912  19.815  18.895  18.761 -0.1533  0.1131  0.2777
 3708G2FFO Tail43913  19.825  18.671  18.623 -0.1190 -0.2025  0.2656
 3708G2FFO Tail43914  19.832  18.447  18.513 -0.1646 -0.0455 -0.2637
 3708G2FFO Tail43915  19.883  18.264  18.378  0.3650  0.0666 -0.0068
 3708G2FFO Tail43916  19.477  19.115  18.314 -0.0561 -0.0428 -0.0009
 3708G2FFO Tail43917  19.632  19.059  18.118 -0.0613 -0.1133  0.0782
 3708G2FFO Tail43918  19.706  18.813  18.088  0.1374  0.1903  0.0324
 3708G2FFO Tail43919  19.800  18.579  18.048  0.0718  0.0627  0.2591
 3708G2FFO Tail43920  19.910  18.384  17.964 -0.3478  0.1236  0.1663
 3709G2FFO Head43921  18.803  18.726  19.092  0.2363 -0.0738 -0.3601
 3709G2FFO Head43922  18.512  18.817  18.961  0.0986 -0.4947 -0.2255
 3709G2FFO Head43923  18.949  18.747  18.422 -0.0311 -0.3471 -0.0345
 3709G2FFO Head43924  18.778  18.691  18.639  0.1425  0.5216 -0.0158
 3709G2FFO Head43925  18.433  18.789  18.610 -0.1527 -0.3210 -0.0222
 3709G2FFO Head43926  18.063  18.015  18.264 -0.2833  0.0679  0.1302
 3709G2FFO Head43927  18.023  18.316  18.263  0.1398  0.3160  0.2758
 3709G2FFO Head43928  17.923  18.612  17.909 -0.1353 -0.0585  0.0476
 3709G2FFO Head43929  18.172  18.713  18.049  0.0335  0.1027  0.0652
 3709G2FFO Head43930  18.255  18.549  18.344 -0.2267 -0.0599  0.3562
 3709G2FFO link43931  18.240  18.636  18.571  0.0258  0.0614 -0.0492
 3709G2FFO link43932  18.095  18.510  18.787 -0.2433  0.1092  0.2272
 3709G2FFO Tail43933  18.209  18.255  18.965  0.2259  0.0835  0.2302
 3709G2FFO Tail43934  17.922  18.071  19.077 -0.2686  0.1657  0.1282
 3709G2FFO Tail43935  17.950  17.807  19.134 -0.2331 -0.0420  0.1399
 3709G2FFO Tail43936  17.855  17.690  19.345  0.3032 -0.1740  0.1933
 3709G2FFO Tail43937  17.763  17.637  19.563  0.2894  0.0813 -0.2437
 3709G2FFO Tail43938  17.711  17.571  19.793 -0.4088  0.1175  0.1044
 3709G2FFO Tail43939  18.295  18.427  19.258  0.2116  0.2630 -0.0943
 3709G2FFO Tail43940  18.301  18.680  19.306  0.0280 -0.2716 -0.2253
 3709G2FFO Tail43941  18.083  18.810  19.389 -0.0611 -0.1725  0.0018
 3709G2FFO Tail43942  17.864  18.924  19.437  0.3771 -0.3818  0.1065
 3709G2FFO Tail43943  17.682  19.076  19.474 -0.0600  0.0262 -0.0289
 3710G2FFO Head43944  18.723  14.927  21.448  0.0373  0.2089  0.0637
 3710G2FFO Head43945  18.649  15.110  21.198  0.2827 -0.1044 -0.1339
 3710G2FFO Head43946  18.240  14.813  21.491  0.2559 -0.0784  0.1183
 3710G2FFO Head43947  18.313  14.846  21.187 -0.1580  0.2465 -0.2361
 3710G2FFO Head43948  18.318  15.168  21.061  0.0139 -0.1652 -0.0276
 3710G2FFO Head43949  18.250  14.750  20.153  0.2362  0.1817  0.0436
 3710G2FFO Head43950  18.388  14.948  20.332  0.0884 -0.4855 -0.2553
 3710G2FFO Head43951  18.040  14.452  20.458 -0.1040 -0.1956 -0.1899
 3710G2FFO Head43952  18.042  14.780  20.567 -0.3038 -0.1191 -0.2346
 3710G2FFO Head43953  18.334  14.967  20.670 -0.2444  0.2312 -0.0689
 3710G2FFO link43954  18.297  15.216  20.785 -0.2103  0.0454  0.0616
 3710G2FFO link43955  18.301  15.470  20.666 -0.1992 -0.3633  0.1562
 3710G2FFO Tail43956  18.106  15.515  20.414  0.1485 -0.2889 -0.1156
 3710G2FFO Tail43957  17.839  15.699  20.545  0.0084 -0.0531  0.1553
 3710G2FFO Tail43958  17.608  15.665  20.417 -0.0826 -0.1153  0.0495
 3710G2FFO Tail43959  17.608  15.544  20.201 -0.2606  0.0363 -0.0360
 3710G2FFO Tail43960  17.579  15.432  19.974  0.0736 -0.1817  0.1601
 3710G2FFO Tail43961  17.588  15.388  19.749  0.3121  0.4179 -0.0196
 3710G2FFO Tail43962  17.959  15.199  20.405 -0.1619 -0.3956  0.1846
 3710G2FFO Tail43963  17.807  15.114  20.598 -0.1398  0.2037  0.0798
 3710G2FFO Tail43964  17.592  15.241  20.672 -0.2803  0.0460  0.1930
 3710G2FFO Tail43965  17.399  15.396  20.708  0.3723 -0.3932  0.0923
 3710G2FFO Tail43966  17.192  15.493  20.782 -0.2003 -0.1972  0.0552
 3711G2FFO Head43967  19.211  20.302  19.387  0.0385  0.0047  0.0345
 3711G2FFO Head43968  19.346  20.013  19.417 -0.2444 -0.0644  0.2041
 3711G2FFO Head43969  18.892  19.474  19.419  0.0507 -0.0236 -0.0076
 3711G2FFO Head43970  19.185  19.595  19.445 -0.0542  0.3004  0.2324
 3711G2FFO Head43971  19.272  19.818  19.705  0.1429  0.2358 -0.2478
 3711G2FFO Head43972  18.974  20.040  20.495  0.0803 -0.4334  0.4149
 3711G2FFO Head43973  19.131  19.813  20.334  0.3115  0.1503  0.1780
 3711G2FFO Head43974  18.986  20.270  19.902  0.0426 -0.0338  0.2844
 3711G2FFO Head43975  19.176  20.196  20.109 -0.1307  0.3511 -0.0680
 3711G2FFO Head43976  19.387  19.911  20.116  0.2405 -0.0780  0.1945
 3711G2FFO link43977  19.442  19.788  19.881 -0.0636 -0.2837 -0.2568
 3711G2FFO link43978  19.599  19.556  19.859  0.4273  0.0969  0.1607
 3711G2FFO Tail43979  19.472  19.256  19.788 -0.0960  0.0765  0.0110
 3711G2FFO Tail43980  19.129  19.335  19.840  0.3640 -0.6629 -0.1240
 3711G2FFO Tail43981  19.010  19.225  20.053 -0.1572 -0.0190 -0.0169
 3711G2FFO Tail43982  19.036  19.316  20.289  0.0372  0.0400 -0.2040
 3711G2FFO Tail43983  19.027  19.376  20.546 -0.2005 -0.1282  0.0853
 3711G2FFO Tail43984  19.006  19.371  20.778  0.0975  0.1041  0.2853
 3711G2FFO Tail43985  19.539  19.241  19.449  0.1853 -0.1024  0.1826
 3711G2FFO Tail43986  19.643  19.039  19.316  0.1571 -0.2686  0.4198
 3711G2FFO Tail43987  19.861  19.086  19.189 -0.1239 -0.1049 -0.1713
 3711G2FFO Tail43988  20.098  19.118  19.104 -0.1261  0.2162  0.1468
 3711G2FFO Tail43989  20.281  19.135  18.961 -0.1324 -0.1592  0.2743
 3712G2FFO Head43990  18.140  18.187  15.383  0.1518  0.2060 -0.2324
 3712G2FFO Head43991  17.947  18.283  15.618  0.1417  0.2539 -0.5244
 3712G2FFO Head43992  17.647  18.593  16.009  0.0888 -0.0262 -0.0169
 3712G2FFO Head43993  17.584  18.498  15.723  0.2588 -0.1910  0.0426
 3712G2FFO Head43994  17.640  18.149  15.649 -0.0693 -0.0572 -0.0645
 3712G2FFO Head43995  16.862  17.892  15.682  0.1175 -0.0857  0.0347
 3712G2FFO Head43996  16.986  17.977  15.428 -0.0639  0.0105 -0.4363
 3712G2FFO Head43997  17.093  18.598  15.807 -0.1224 -0.2374  0.0522
 3712G2FFO Head43998  17.096  18.303  15.698 -0.1088 -0.4503 -0.0583
 3712G2FFO Head43999  17.286  18.171  15.419  0.1506  0.0098 -0.1249
 3712G2FFO link44000  17.507  18.047  15.464 -0.5683  0.2069 -0.4242
 3712G2FFO link44001  17.596  17.826  15.308  0.0646  0.0441 -0.4184
 3712G2FFO Tail44002  17.816  17.620  15.414 -0.1272 -0.1033  0.1262
 3712G2FFO Tail44003  17.614  17.402  15.572  0.2909 -0.1932 -0.1321
 3712G2FFO Tail44004  17.395  17.456  15.712  0.0982  0.0622  0.1753
 3712G2FFO Tail44005  17.358  17.703  15.791 -0.0062 -0.1381 -0.1757
 3712G2FFO Tail44006  17.316  17.940  15.875 -0.4123 -0.0243 -0.2098
 3712G2FFO Tail44007  17.346  18.145  15.986  0.1968  0.0135 -0.2187
 3712G2FFO Tail44008  17.916  17.788  15.702 -0.1325 -0.0392 -0.0522
 3712G2FFO Tail44009  17.771  17.783  15.923 -0.2011 -0.1412 -0.1096
 3712G2FFO Tail44010  17.776  18.001  16.062 -0.1358  0.1424  0.0038
 3712G2FFO Tail44011  17.797  18.180  16.234 -0.0697 -0.2160  0.1326
 3712G2FFO Tail44012  17.832  18.307  16.425  0.1633 -0.1438 -0.2055
 3713G2FFO Head44013  16.668  17.689  20.634  0.2068  0.1959  0.0692
 3713G2FFO Head44014  16.365  17.782  20.542 -0.3672 -0.3910  0.1700
 3713G2FFO Head44015  16.442  18.227  20.357 -0.0261  0.4517 -0.1202
 3713G2FFO Head44016  16.268  18.230  20.630 -0.0199 -0.2419 -0.0713
 3713G2FFO Head44017  16.164  17.926  20.783  0.0640 -0.2470  0.1919
 3713G2FFO Head44018  15.861  18.212  20.095  0.0195 -0.3452 -0.4241
 3713G2FFO Head44019  16.000  18.072  20.339 -0.1265  0.1343  0.0649
 3713G2FFO Head44020  15.722  17.403  20.400  0.0283  0.1510  0.2077
 3713G2FFO Head44021  15.899  17.641  20.364  0.2864  0.3462 -0.2401
 3713G2FFO Head44022  15.827  17.896  20.580 -0.2127 -0.2595  0.3689
 3713G2FFO link44023  15.933  17.872  20.824  0.3857 -0.1446  0.0479
 3713G2FFO link44024  15.809  17.759  21.039 -0.0376  0.1005  0.0294
 3713G2FFO Tail44025  15.992  17.697  21.301  0.1877  0.0271 -0.0658
 3713G2FFO Tail44026  15.976  18.006  21.466  0.1283 -0.0577  0.1033
 3713G2FFO Tail44027  16.104  18.198  21.352  0.0951  0.1929 -0.2872
 3713G2FFO Tail44028  16.048  18.263  21.110 -0.1605 -0.2891  0.3294
 3713G2FFO Tail44029  15.954  18.328  20.883 -0.0893 -0.0609  0.1307
 3713G2FFO Tail44030  15.822  18.319  20.687 -0.1511  0.3111 -0.3270
 3713G2FFO Tail44031  16.320  17.715  21.192 -0.1239  0.0871 -0.0528
 3713G2FFO Tail44032  16.444  17.935  21.229  0.1233 -0.4936  0.3515
 3713G2FFO Tail44033  16.574  18.033  21.015 -0.1346  0.0747  0.0810
 3713G2FFO Tail44034  16.703  18.152  20.834  0.1689  0.1496  0.1000
 3713G2FFO Tail44035  16.819  18.321  20.715  0.2392  0.0351 -0.0183
 3714G2FFO Head44036  15.432  20.009  18.419 -0.1804  0.0681  0.0733
 3714G2FFO Head44037  15.650  20.149  18.595  0.0052 -0.0891 -0.1958
 3714G2FFO Head44038  16.140  20.383  19.071  0.3579  0.3494 -0.1298
 3714G2FFO Head44039  15.891  20.266  18.957  0.2230 -0.0125 -0.4025
 3714G2FFO Head44040  15.861  19.945  18.810 -0.4541  0.1437  0.3601
 3714G2FFO Head44041  16.001  19.378  19.500  0.3994 -0.0806  0.0701
 3714G2FFO Head44042  15.796  19.617  19.447  0.1094  0.2680  0.0699
 3714G2FFO Head44043  16.178  19.863  19.580 -0.0750 -0.2873 -0.3298
 3714G2FFO Head44044  16.116  19.945  19.258  0.1544  0.1799  0.2456
 3714G2FFO Head44045  15.796  19.843  19.174  0.1830  0.1836  0.3079
 3714G2FFO link44046  15.757  19.759  18.935  0.8448 -0.3086  0.0601
 3714G2FFO link44047  15.504  19.662  18.842  0.1034  0.0648  0.1314
 3714G2FFO Tail44048  15.300  19.523  19.051 -0.2307 -0.2336  0.1300
 3714G2FFO Tail44049  15.535  19.323  19.209  0.4411  0.2532 -0.6018
 3714G2FFO Tail44050  15.752  19.208  19.091  0.1561 -0.0801  0.0231
 3714G2FFO Tail44051  15.937  19.365  19.010  0.1960  0.0504  0.0335
 3714G2FFO Tail44052  16.100  19.555  18.940 -0.1376 -0.1616  0.2793
 3714G2FFO Tail44053  16.204  19.764  18.901  0.1704  0.2629  0.3167
 3714G2FFO Tail44054  15.268  19.781  19.292 -0.2271  0.1960 -0.1133
 3714G2FFO Tail44055  15.343  19.771  19.539  0.2945  0.2607  0.1173
 3714G2FFO Tail44056  15.310  19.549  19.680  0.0184 -0.4587 -0.1574
 3714G2FFO Tail44057  15.327  19.340  19.812 -0.0242 -0.0112  0.1792
 3714G2FFO Tail44058  15.373  19.161  19.977  0.0944 -0.0893  0.4232
 3715G2FFO Head44059  13.442  18.864  18.058  0.0442  0.1042 -0.0269
 3715G2FFO Head44060  13.642  18.673  18.178 -0.1748  0.3128  0.3228
 3715G2FFO Head44061  13.804  18.589  17.480  0.2544 -0.0919 -0.2211
 3715G2FFO Head44062  13.714  18.638  17.741  0.3487 -0.1953 -0.1269
 3715G2FFO Head44063  13.944  18.614  18.005  0.1379  0.3294 -0.1652
 3715G2FFO Head44064  13.965  19.572  18.208  0.2295  0.2395  0.1160
 3715G2FFO Head44065  14.145  19.322  18.018 -0.3520  0.2346  0.2163
 3715G2FFO Head44066  14.258  19.285  17.543 -0.3057 -0.0048  0.3067
 3715G2FFO Head44067  14.029  19.105  17.611 -0.0160 -0.2612 -0.0966
 3715G2FFO Head44068  14.020  19.010  17.940 -0.0571 -0.2148 -0.4150
 3715G2FFO link44069  14.152  18.790  18.026 -0.1808 -0.3298  0.0907
 3715G2FFO link44070  14.386  18.774  18.193  0.0015 -0.0458 -0.2100
 3715G2FFO Tail44071  14.456  18.967  18.452  0.1331 -0.4914  0.1404
 3715G2FFO Tail44072  14.472  19.305  18.305  0.2008  0.1104  0.2776
 3715G2FFO Tail44073  14.713  19.383  18.230  0.2866  0.3373  0.2360
 3715G2FFO Tail44074  14.835  19.220  18.058  0.2895 -0.0863 -0.3260
 3715G2FFO Tail44075  14.976  19.048  17.938  0.1417  0.2121  0.1237
 3715G2FFO Tail44076  15.137  18.889  17.873 -0.0955  0.1349 -0.0109
 3715G2FFO Tail44077  14.787  18.904  18.478 -0.0847 -0.0627 -0.0826
 3715G2FFO Tail44078  14.925  18.830  18.690  0.0094 -0.0097  0.0027
 3715G2FFO Tail44079  15.053  18.611  18.686 -0.0027 -0.1216 -0.1119
 3715G2FFO Tail44080  15.212  18.417  18.656 -0.1673 -0.0015  0.4773
 3715G2FFO Tail44081  15.335  18.240  18.556  0.0815  0.0973 -0.1573
 3716G2FFO Head44082  21.060  16.542  20.664 -0.1315 -0.2900  0.3110
 3716G2FFO Head44083  21.031  16.507  20.378  0.2723  0.0650 -0.0436
 3716G2FFO Head44084  21.328  16.047  20.712 -0.1475 -0.2369  0.0581
 3716G2FFO Head44085  21.040  16.106  20.542 -0.0130 -0.0981 -0.0792
 3716G2FFO Head44086  21.041  16.207  20.216  0.1005 -0.0275 -0.2032
 3716G2FFO Head44087  20.687  15.757  20.467  0.2679 -0.2531 -0.2869
 3716G2FFO Head44088  20.600  16.025  20.456  0.4087 -0.1344  0.2123
 3716G2FFO Head44089  20.628  16.365  20.700 -0.0536 -0.2860 -0.1910
 3716G2FFO Head44090  20.592  16.423  20.409  0.2189 -0.1256 -0.2396
 3716G2FFO Head44091  20.643  16.196  20.152  0.4962  0.2026 -0.6109
 3716G2FFO link44092  20.849  16.151  20.029  0.0091  0.0476 -0.5027
 3716G2FFO link44093  20.889  16.143  19.752  0.3194 -0.0910 -0.0401
 3716G2FFO Tail44094  20.639  16.044  19.567 -0.0293  0.0831 -0.1591
 3716G2FFO Tail44095  20.507  16.339  19.423  0.1582  0.4731 -0.4039
 3716G2FFO Tail44096  20.428  16.385  19.189 -0.2435  0.0276  0.1415
 3716G2FFO Tail44097  20.171  16.378  19.139  0.1697  0.0119  0.0101
 3716G2FFO Tail44098  19.917  16.358  19.095  0.1166  0.0108  0.1287
 3716G2FFO Tail44099  19.690  16.417  19.068  0.1071  0.1487 -0.0573
 3716G2FFO Tail44100  20.373  15.978  19.796  0.3876 -0.1082  0.2124
 3716G2FFO Tail44101  20.429  15.868  20.031  0.1151  0.0975  0.2045
 3716G2FFO Tail44102  20.359  15.631  20.103  0.1834  0.0203  0.0232
 3716G2FFO Tail44103  20.275  15.398  20.120 -0.1896 -0.0688  0.1645
 3716G2FFO Tail44104  20.239  15.159  20.084 -0.0051 -0.1928  0.0505
 3717G2FFO Head44105  17.937  20.914  20.641 -0.4262  0.0026  0.0109
 3717G2FFO Head44106  18.131  20.829  20.867 -0.1883  0.3144 -0.5603
 3717G2FFO Head44107  18.436  20.980  20.530 -0.2050 -0.2042 -0.2105
 3717G2FFO Head44108  18.519  20.707  20.641 -0.5900  0.1496  0.1279
 3717G2FFO Head44109  18.301  20.518  20.824  0.0901 -0.0447 -0.1054
 3717G2FFO Head44110  17.886  20.353  21.627 -0.1059 -0.1343 -0.1796
 3717G2FFO Head44111  18.104  20.256  21.469 -0.4962 -0.3351  0.4465
 3717G2FFO Head44112  17.695  20.736  21.051  0.1212 -0.1437 -0.1860
 3717G2FFO Head44113  17.846  20.453  21.141 -0.1620 -0.1119 -0.0269
 3717G2FFO Head44114  18.187  20.442  21.195 -0.1595 -0.1027 -0.0159
 3717G2FFO link44115  18.363  20.366  21.016  0.1291 -0.4229  0.2986
 3717G2FFO link44116  18.510  20.122  21.006 -0.3154 -0.1953 -0.1614
 3717G2FFO Tail44117  18.582  19.981  20.725  0.1249 -0.5105  0.3957
 3717G2FFO Tail44118  18.410  20.211  20.520  0.1670 -0.0413 -0.1802
 3717G2FFO Tail44119  18.151  20.194  20.556 -0.0612 -0.1809 -0.1008
 3717G2FFO Tail44120  18.079  20.114  20.795 -0.1004  0.2520  0.0165
 3717G2FFO Tail44121  17.975  20.022  21.005 -0.0729  0.3642  0.2447
 3717G2FFO Tail44122  17.882  19.987  21.218 -0.0952  0.3007 -0.1131
 3717G2FFO Tail44123  18.358  19.721  20.745 -0.1796  0.0469  0.1985
 3717G2FFO Tail44124  18.455  19.505  20.883  0.1624 -0.0261 -0.0360
 3717G2FFO Tail44125  18.512  19.300  20.731  0.1277 -0.3496  0.0968
 3717G2FFO Tail44126  18.522  19.096  20.576  0.3561 -0.0677 -0.1025
 3717G2FFO Tail44127  18.458  18.919  20.441 -0.3570  0.0417 -0.1584
 3718G2FFO Head44128  15.592  19.651  21.079  0.1870 -0.1664  0.3202
 3718G2FFO Head44129  15.854  19.527  20.967 -0.0093 -0.0243  0.0381
 3718G2FFO Head44130  15.385  19.599  20.662  0.3774 -0.1474  0.0032
 3718G2FFO Head44131  15.549  19.364  20.712  0.0200 -0.2009  0.2302
 3718G2FFO Head44132  15.892  19.396  20.652  0.0617  0.1675  0.7661
 3718G2FFO Head44133  15.792  20.201  20.312  0.2680  0.1747  0.3761
 3718G2FFO Head44134  15.629  19.900  20.299 -0.4442  0.0512  0.1000
 3718G2FFO Head44135  15.292  19.707  20.144  0.0333 -0.2097  0.0902
 3718G2FFO Head44136  15.501  19.498  20.239  0.0203  0.2364 -0.0179
 3718G2FFO Head44137  15.837  19.617  20.278  0.2041  0.0234 -0.2895
 3718G2FFO link44138  15.995  19.546  20.477  0.2392 -0.0386 -0.4205
 3718G2FFO link44139  16.263  19.631  20.522  0.3813  0.0154  0.0857
 3718G2FFO Tail44140  16.513  19.495  20.691 -0.3123 -0.2494  0.2207
 3718G2FFO Tail44141  16.371  19.236  20.870  0.0671  0.3206  0.0788
 3718G2FFO Tail44142  16.179  19.265  21.039  0.0804  0.2551 -0.0457
 3718G2FFO Tail44143  16.217  19.200  21.287 -0.3405  0.1272 -0.0695
 3718G2FFO Tail44144  16.264  19.159  21.538  0.1064 -0.0230 -0.0284
 3718G2FFO Tail44145  16.239  19.084  21.761 -0.1461  0.0498  0.0012
 3718G2FFO Tail44146  16.682  19.309  20.449  0.2919  0.1177  0.2205
 3718G2FFO Tail44147  16.643  19.342  20.186  0.5054  0.2555 -0.2499
 3718G2FFO Tail44148  16.744  19.167  20.021 -0.1602 -0.1516 -0.0784
 3718G2FFO Tail44149  16.879  19.031  19.851  0.0269 -0.2937 -0.2025
 3718G2FFO Tail44150  16.958  18.933  19.661  0.3747  0.2118  0.0617
 3719G2FFO Head44151  15.912  16.736  22.813 -0.1760  0.0276  0.0831
 3719G2FFO Head44152  15.994  16.972  22.615 -0.0057 -0.1757  0.1274
 3719G2FFO Head44153  16.326  17.167  22.373 -0.3612  0.2481 -0.1690
 3719G2FFO Head44154  16.090  17.186  22.235 -0.2823  0.0372 -0.0668
 3719G2FFO Head44155  15.780  17.051  22.354  0.3686  0.2443 -0.0042
 3719G2FFO Head44156  15.478  16.164  22.460 -0.0577  0.0962  0.1708
 3719G2FFO Head44157  15.571  16.327  22.271  0.3940 -0.1098  0.1303
 3719G2FFO Head44158  15.961  16.253  22.746  0.1926  0.1342 -0.1099
 3719G2FFO Head44159  15.930  16.460  22.466 -0.0228  0.0836  0.3568
 3719G2FFO Head44160  15.645  16.655  22.398  0.3419 -0.1792  0.2521
 3719G2FFO link44161  15.664  16.858  22.224 -0.5448  0.4400  0.3908
 3719G2FFO link44162  15.461  16.889  22.029 -0.0160  0.4647  0.0140
 3719G2FFO Tail44163  15.483  17.174  21.850 -0.0417  0.2525  0.0486
 3719G2FFO Tail44164  15.526  17.378  22.121 -0.1607 -0.3172  0.3156
 3719G2FFO Tail44165  15.734  17.540  22.142 -0.1063 -0.1113  0.2008
 3719G2FFO Tail44166  15.928  17.514  21.975 -0.0337  0.1737  0.0882
 3719G2FFO Tail44167  16.092  17.522  21.776  0.1607 -0.1479 -0.2217
 3719G2FFO Tail44168  16.285  17.509  21.639 -0.0109 -0.1089 -0.2596
 3719G2FFO Tail44169  15.809  17.124  21.753  0.4998  0.2886  0.1522
 3719G2FFO Tail44170  15.879  16.914  21.633  0.0136  0.1297  0.0251
 3719G2FFO Tail44171  15.852  16.896  21.373  0.0296  0.0396 -0.3497
 3719G2FFO Tail44172  15.801  16.847  21.133 -0.1511 -0.0376 -0.1602
 3719G2FFO Tail44173  15.691  16.774  20.933  0.2101  0.3531  0.1518
 3720G2FFO Head44174  18.715  18.426  20.950  0.0289  0.0968 -0.3021
 3720G2FFO Head44175  18.880  18.238  21.141 -0.1643  0.2177 -0.2905
 3720G2FFO Head44176  19.036  18.247  21.780 -0.1915  0.1967  0.6069
 3720G2FFO Head44177  18.973  18.355  21.521  0.3426 -0.2926  0.0307
 3720G2FFO Head44178  19.202  18.335  21.265  0.1573  0.2865  0.1874
 3720G2FFO Head44179  19.059  17.973  20.765 -0.0632 -0.1259  0.0535
 3720G2FFO Head44180  19.317  17.883  20.861 -0.2147 -0.0526 -0.1162
 3720G2FFO Head44181  19.187  18.474  20.837 -0.0589  0.0690  0.2817
 3720G2FFO Head44182  19.436  18.330  20.838 -0.1428 -0.0158 -0.4059
 3720G2FFO Head44183  19.498  18.095  21.078  0.2429 -0.1699  0.1512
 3720G2FFO link44184  19.393  18.152  21.322 -0.1624  0.0563  0.1450
 3720G2FFO link44185  19.559  18.221  21.547 -0.1072  0.2372 -0.0421
 3720G2FFO Tail44186  19.859  18.085  21.595  0.4718 -0.2470 -0.1527
 3720G2FFO Tail44187  19.786  17.785  21.781  0.2812 -0.2278 -0.0985
 3720G2FFO Tail44188  19.970  17.697  21.944  0.2447 -0.1800  0.1348
 3720G2FFO Tail44189  20.121  17.508  21.851 -0.0758  0.2377  0.0933
 3720G2FFO Tail44190  20.288  17.348  21.754  0.1619 -0.0857 -0.5116
 3720G2FFO Tail44191  20.408  17.216  21.609  0.0779 -0.1674  0.3887
 3720G2FFO Tail44192  19.938  17.964  21.269  0.0703 -0.1503 -0.1936
 3720G2FFO Tail44193  20.154  17.829  21.210  0.1332 -0.1350 -0.1081
 3720G2FFO Tail44194  20.154  17.573  21.245  0.0297 -0.2405 -0.1022
 3720G2FFO Tail44195  20.161  17.319  21.235 -0.0835 -0.0232 -0.1956
 3720G2FFO Tail44196  20.130  17.104  21.282  0.1851  0.3336  0.0951
 3721G2FFO Head44197  20.274  15.471  18.245  0.0265 -0.1462 -0.2590
 3721G2FFO Head44198  20.248  15.740  18.240 -0.1742 -0.0658 -0.0787
 3721G2FFO Head44199  19.586  15.725  18.092 -0.1226 -0.1458 -0.2089
 3721G2FFO Head44200  19.820  15.627  18.255 -0.0406 -0.1622  0.4924
 3721G2FFO Head44201  19.993  15.870  18.436 -0.6414  0.4899 -0.1029
 3721G2FFO Head44202  20.631  16.370  18.341 -0.0006  0.0999  0.3359
 3721G2FFO Head44203  20.445  16.121  18.324  0.2939  0.1523 -0.0866
 3721G2FFO Head44204  19.903  15.950  17.764  0.4290  0.0234  0.0621
 3721G2FFO Head44205  20.163  16.057  17.928 -0.2849  0.0504  0.5307
 3721G2FFO Head44206  20.110  16.205  18.239  0.3614 -0.1284 -0.0993
 3721G2FFO link44207  19.919  16.123  18.388  0.0996 -0.4788  0.5232
 3721G2FFO link44208  19.781  16.269  18.580  0.1650 -0.0610  0.3020
 3721G2FFO Tail44209  19.605  16.112  18.787  0.1833 -0.2220 -0.0580
 3721G2FFO Tail44210  19.536  15.834  18.602  0.3493 -0.0418  0.2346
 3721G2FFO Tail44211  19.569  15.585  18.697  0.0173  0.3575  0.1026
 3721G2FFO Tail44212  19.484  15.517  18.935 -0.0381 -0.0731 -0.2329
 3721G2FFO Tail44213  19.369  15.502  19.160 -0.0102 -0.1431 -0.2003
 3721G2FFO Tail44214  19.251  15.558  19.359 -0.2460  0.0204  0.2989
 3721G2FFO Tail44215  19.317  16.264  18.775  0.1979 -0.2918  0.0190
 3721G2FFO Tail44216  19.095  16.134  18.703 -0.0877 -0.2083  0.1762
 3721G2FFO Tail44217  19.066  15.877  18.715  0.1716  0.1216  0.0751
 3721G2FFO Tail44218  19.037  15.631  18.757  0.0856 -0.4534 -0.2257
 3721G2FFO Tail44219  19.033  15.421  18.844 -0.0482  0.1709 -0.0372
 3722G2FFO Head44220  18.398  16.449  21.624  0.2189  0.1959 -0.2164
 3722G2FFO Head44221  18.504  16.348  21.888 -0.3822 -0.2002  0.1814
 3722G2FFO Head44222  18.886  16.396  21.519  0.0112 -0.0443  0.2763
 3722G2FFO Head44223  18.889  16.216  21.821  0.0178  0.1568 -0.0081
 3722G2FFO Head44224  18.620  16.031  21.912 -0.2299 -0.1948  0.0695
 3722G2FFO Head44225  18.072  15.216  21.886 -0.1375  0.2073  0.1978
 3722G2FFO Head44226  18.097  15.513  21.922 -0.3802  0.1562 -0.2578
 3722G2FFO Head44227  18.127  15.430  22.396 -0.6404 -0.3714  0.1954
 3722G2FFO Head44228  18.323  15.659  22.255 -0.1401 -0.4182  0.1002
 3722G2FFO Head44229  18.434  15.649  21.920 -0.4172 -0.1322  0.1294
 3722G2FFO link44230  18.489  15.861  21.765 -0.1976 -0.0851 -0.4362
 3722G2FFO link44231  18.350  15.924  21.534  0.1084  0.1667  0.4835
 3722G2FFO Tail44232  18.344  15.696  21.288 -0.0715 -0.3870  0.2694
 3722G2FFO Tail44233  18.013  15.752  21.167 -0.0226  0.2211 -0.0237
 3722G2FFO Tail44234  17.899  15.584  20.992 -0.2234 -0.2866 -0.0350
 3722G2FFO Tail44235  17.895  15.336  21.037 -0.2791  0.0169 -0.0215
 3722G2FFO Tail44236  17.901  15.085  21.043 -0.0496  0.2327 -0.0214
 3722G2FFO Tail44237  17.932  14.862  20.988 -0.1789  0.0022  0.2524
 3722G2FFO Tail44238  18.245  15.401  21.453 -0.2421 -0.3209  0.4308
 3722G2FFO Tail44239  17.987  15.317  21.466 -0.1918 -0.3130  0.0614
 3722G2FFO Tail44240  17.828  15.502  21.539  0.1382  0.1994  0.0089
 3722G2FFO Tail44241  17.637  15.659  21.615 -0.3183 -0.0750 -0.0261
 3722G2FFO Tail44242  17.510  15.840  21.669  0.2177 -0.2182 -0.1209
 3723G2FFO Head44243  14.498  17.215  17.694  0.0592  0.1329 -0.2446
 3723G2FFO Head44244  14.269  17.347  17.813 -0.2756 -0.1341 -0.0585
 3723G2FFO Head44245  14.155  17.386  17.272  0.0594  0.2395  0.2145
 3723G2FFO Head44246  14.044  17.539  17.490 -0.3061 -0.0876  0.1091
 3723G2FFO Head44247  14.232  17.690  17.718  0.2790 -0.0206  0.3133
 3723G2FFO Head44248  13.725  17.326  17.685 -0.3182 -0.2498 -0.3783
 3723G2FFO Head44249  13.683  17.657  17.636 -0.2910 -0.0131 -0.0032
 3723G2FFO Head44250  13.354  17.659  17.913  0.1370  0.1122  0.1553
 3723G2FFO Head44251  13.605  17.870  18.001  0.0420 -0.1771  0.1787
 3723G2FFO Head44252  13.870  17.888  17.800 -0.1576 -0.1980  0.2223
 3723G2FFO link44253  14.112  17.865  17.869 -0.2311  0.6881  0.3396
 3723G2FFO link44254  14.221  17.951  18.115 -0.1136 -0.2456 -0.4462
 3723G2FFO Tail44255  14.270  18.273  18.137  0.4415  0.1642 -0.3540
 3723G2FFO Tail44256  14.279  18.359  17.795  0.0831  0.3464 -0.0552
 3723G2FFO Tail44257  14.225  18.589  17.675  0.1903 -0.1537  0.1381
 3723G2FFO Tail44258  14.394  18.785  17.685 -0.0351  0.3804  0.1070
 3723G2FFO Tail44259  14.577  18.960  17.651 -0.1454  0.1512  0.1462
 3723G2FFO Tail44260  14.719  19.120  17.561  0.4156 -0.0605  0.4077
 3723G2FFO Tail44261  14.608  18.302  18.231  0.1876  0.0887 -0.2131
 3723G2FFO Tail44262  14.747  18.522  18.201  0.0532 -0.0603 -0.1678
 3723G2FFO Tail44263  14.822  18.572  17.956  0.1549  0.2236  0.1571
 3723G2FFO Tail44264  14.864  18.578  17.703 -0.0153 -0.0681  0.0528
 3723G2FFO Tail44265  14.959  18.528  17.491  0.4414 -0.1204 -0.3403
 3724G2FFO Head44266  14.288  17.162  22.124 -0.0562  0.3097 -0.0948
 3724G2FFO Head44267  14.339  17.477  22.110 -0.1674 -0.0756 -0.0870
 3724G2FFO Head44268  14.523  17.308  22.626  0.3965  0.0733  0.1170
 3724G2FFO Head44269  14.725  17.393  22.402 -0.2321 -0.1855  0.2921
 3724G2FFO Head44270  14.643  17.619  22.152  0.0915 -0.0638  0.1138
 3724G2FFO Head44271  14.184  17.988  22.040 -0.0399  0.0335 -0.3111
 3724G2FFO Head44272  14.339  17.858  21.790 -0.1272  0.3444  0.4684
 3724G2FFO Head44273  14.374  17.972  21.358 -0.0012  0.1600  0.0265
 3724G2FFO Head44274  14.629  17.829  21.470  0.2804  0.5259  0.0209
 3724G2FFO Head44275  14.678  17.850  21.811  0.2292  0.2076  0.1297
 3724G2FFO link44276  14.790  17.661  21.942  0.0389  0.3881  0.5361
 3724G2FFO link44277  15.073  17.582  21.933  0.1406 -0.1899  0.1493
 3724G2FFO Tail44278  15.304  17.743  22.122  0.0623  0.0394 -0.0674
 3724G2FFO Tail44279  15.193  17.589  22.414 -0.2749 -0.1705 -0.1714
 3724G2FFO Tail44280  15.343  17.571  22.632 -0.1055  0.4817  0.2186
 3724G2FFO Tail44281  15.596  17.508  22.602  0.1799  0.0502 -0.0540
 3724G2FFO Tail44282  15.827  17.436  22.593  0.0669 -0.0008  0.0481
 3724G2FFO Tail44283  16.065  17.389  22.623  0.2412 -0.2143  0.1118
 3724G2FFO Tail44284  15.160  18.073  22.113 -0.3297  0.0844 -0.1098
 3724G2FFO Tail44285  15.033  18.136  21.898 -0.4001  0.0428  0.0770
 3724G2FFO Tail44286  15.091  17.994  21.692 -0.2751 -0.0144 -0.0423
 3724G2FFO Tail44287  15.121  17.871  21.471  0.0376 -0.1278  0.2116
 3724G2FFO Tail44288  15.178  17.711  21.311 -0.1211 -0.2012 -0.0270
 3725G2FFO Head44289  17.592  14.727  20.460  0.3103  0.1842  0.0324
 3725G2FFO Head44290  17.689  14.582  20.696 -0.3138  0.0188  0.1196
 3725G2FFO Head44291  17.928  14.445  21.371  0.2304 -0.0861  0.0312
 3725G2FFO Head44292  17.783  14.444  21.073  0.2959 -0.0318  0.1237
 3725G2FFO Head44293  17.511  14.657  20.994 -0.0090 -0.0294 -0.2857
 3725G2FFO Head44294  16.781  15.125  20.985 -0.1475  0.0107 -0.0995
 3725G2FFO Head44295  17.070  15.192  21.068 -0.6465 -0.3174 -0.1487
 3725G2FFO Head44296  16.898  14.687  20.769 -0.0625 -0.0193  0.0324
 3725G2FFO Head44297  17.163  14.880  20.706  0.1641 -0.1050 -0.0733
 3725G2FFO Head44298  17.357  15.025  20.960 -0.1601  0.1455 -0.5125
 3725G2FFO link44299  17.497  14.892  21.102 -0.4064  0.4694 -0.7486
 3725G2FFO link44300  17.526  14.943  21.377  0.7180  0.0504  0.0751
 3725G2FFO Tail44301  17.396  15.233  21.500 -0.5302  0.3903 -0.3483
 3725G2FFO Tail44302  17.079  15.156  21.549  0.0660 -0.2236  0.1346
 3725G2FFO Tail44303  16.887  15.323  21.472 -0.1086 -0.3452 -0.1395
 3725G2FFO Tail44304  16.950  15.568  21.436 -0.1620  0.0431 -0.2197
 3725G2FFO Tail44305  17.062  15.802  21.414  0.0077 -0.0670  0.0265
 3725G2FFO Tail44306  17.203  15.989  21.361  0.0523  0.2932  0.0247
 3725G2FFO Tail44307  17.411  15.423  21.204 -0.0566  0.1471  0.3473
 3725G2FFO Tail44308  17.505  15.668  21.205  0.1379 -0.2340  0.1667
 3725G2FFO Tail44309  17.467  15.815  20.985  0.1968 -0.0480  0.2255
 3725G2FFO Tail44310  17.409  15.923  20.767  0.0890  0.0319 -0.0056
 3725G2FFO Tail44311  17.422  16.026  20.564  0.1309  0.1864 -0.1611
 3726G2FFO Head44312  15.933  14.588  19.953  0.2418  0.2873 -0.1492
 3726G2FFO Head44313  15.897  14.772  20.220 -0.0525 -0.2692  0.1520
 3726G2FFO Head44314  15.740  14.252  20.303 -0.2478  0.0124 -0.3272
 3726G2FFO Head44315  15.539  14.495  20.200 -0.0273 -0.0103  0.2508
 3726G2FFO Head44316  15.569  14.797  20.351 -0.0332 -0.2133 -0.0847
 3726G2FFO Head44317  16.064  14.179  20.693  0.0607 -0.0124  0.3741
 3726G2FFO Head44318  15.829  14.343  20.728  0.2235 -0.1047  0.0527
 3726G2FFO Head44319  16.109  14.410  21.097  0.0351  0.2429  0.1680
 3726G2FFO Head44320  15.940  14.656  20.985  0.2127  0.3879 -0.3081
 3726G2FFO Head44321  15.811  14.685  20.656  0.0907 -0.0319 -0.0541
 3726G2FFO link44322  15.582  14.818  20.616 -0.1630  0.3888 -0.2885
 3726G2FFO link44323  15.526  15.065  20.742  0.2388 -0.0864 -0.0166
 3726G2FFO Tail44324  15.737  15.318  20.708  0.0525 -0.2923  0.0284
 3726G2FFO Tail44325  15.540  15.507  20.476  0.1300  0.1705  0.4164
 3726G2FFO Tail44326  15.522  15.760  20.481 -0.4046 -0.0034  0.3461
 3726G2FFO Tail44327  15.550  15.889  20.261 -0.1513 -0.0555 -0.2247
 3726G2FFO Tail44328  15.616  16.022  20.052 -0.2332  0.1295  0.2190
 3726G2FFO Tail44329  15.627  16.161  19.871  0.0946  0.1323 -0.0612
 3726G2FFO Tail44330  15.981  15.173  20.501 -0.0302  0.3351  0.6496
 3726G2FFO Tail44331  15.978  15.234  20.252 -0.4512 -0.3009 -0.0109
 3726G2FFO Tail44332  15.763  15.201  20.119  0.1623 -0.0756 -0.0841
 3726G2FFO Tail44333  15.531  15.170  20.038  0.0230  0.0468 -0.0314
 3726G2FFO Tail44334  15.296  15.190  20.011 -0.1114 -0.4131  0.2214
 3727G2FFO Head44335  14.500  15.015  18.041  0.0658 -0.1318 -0.0054
 3727G2FFO Head44336  14.334  15.198  18.223 -0.0998  0.1096  0.2716
 3727G2FFO Head44337  13.881  14.856  18.201  0.1366 -0.1909 -0.1890
 3727G2FFO Head44338  13.905  15.163  18.238 -0.1043  0.0377 -0.2575
 3727G2FFO Head44339  14.108  15.369  18.042  0.1941 -0.0347  0.7027
 3727G2FFO Head44340  13.528  15.244  18.061  0.2586  0.2437  0.0288
 3727G2FFO Head44341  13.588  15.575  17.980 -0.2928  0.5146  0.1295
 3727G2FFO Head44342  13.573  16.162  17.884  0.1118  0.1573  0.1275
 3727G2FFO Head44343  13.726  15.976  18.072 -0.2955  0.1579  0.0549
 3727G2FFO Head44344  13.920  15.709  17.954  0.2596 -0.0526 -0.5189
 3727G2FFO link44345  14.116  15.628  18.102 -0.5081 -0.1539 -0.0429
 3727G2FFO link44346  14.367  15.775  18.143  0.2677  0.3922  0.0031
 3727G2FFO Tail44347  14.391  16.096  18.091  0.0672 -0.2941  0.1602
 3727G2FFO Tail44348  14.673  16.089  17.866  0.0381  0.2905  0.0407
 3727G2FFO Tail44349  14.691  15.906  17.684  0.2644  0.1543 -0.0927
 3727G2FFO Tail44350  14.906  15.790  17.608  0.0446  0.2569  0.0585
 3727G2FFO Tail44351  15.112  15.667  17.526 -0.3173 -0.1733  0.1384
 3727G2FFO Tail44352  15.275  15.562  17.400 -0.1731  0.3802  0.2242
 3727G2FFO Tail44353  14.134  16.134  17.868  0.0697  0.1775  0.1640
 3727G2FFO Tail44354  14.085  15.977  17.659  0.0389 -0.1748 -0.2151
 3727G2FFO Tail44355  14.230  15.766  17.640 -0.1512 -0.0248 -0.0949
 3727G2FFO Tail44356  14.396  15.575  17.656  0.0349  0.2967 -0.2587
 3727G2FFO Tail44357  14.495  15.371  17.708 -0.3111 -0.0183  0.1152
 3728G2FFO Head44358  21.010  19.202  19.774  0.1098 -0.0395  0.4381
 3728G2FFO Head44359  20.937  18.986  19.547 -0.0560  0.1412 -0.0476
 3728G2FFO Head44360  21.161  18.745  19.938  0.0693 -0.0188 -0.0010
 3728G2FFO Head44361  20.938  18.596  19.782  0.1428  0.3607 -0.3901
 3728G2FFO Head44362  20.683  18.747  19.591  0.1111 -0.4521  0.3520
 3728G2FFO Head44363  20.698  19.284  19.024 -0.1123  0.3997 -0.0270
 3728G2FFO Head44364  20.621  19.144  19.254 -0.0351  0.1681  0.0843
 3728G2FFO Head44365  21.095  19.058  19.148  0.2506 -0.0017  0.1300
 3728G2FFO Head44366  20.889  18.870  19.037  0.2818  0.0199  0.2591
 3728G2FFO Head44367  20.573  18.796  19.190 -0.2472 -0.1529  0.2033
 3728G2FFO link44368  20.559  18.644  19.383  0.6037  0.7795 -0.1140
 3728G2FFO link44369  20.423  18.397  19.347 -0.2040 -0.1382  0.0091
 3728G2FFO Tail44370  20.123  18.384  19.227 -0.3769 -0.4677  0.0102
 3728G2FFO Tail44371  20.150  18.129  18.989  0.2025  0.0153  0.0239
 3728G2FFO Tail44372  20.228  18.176  18.736 -0.1488  0.1182 -0.1766
 3728G2FFO Tail44373  20.164  17.995  18.555 -0.1697  0.1051 -0.0031
 3728G2FFO Tail44374  20.104  17.856  18.356  0.1061  0.2958  0.2754
 3728G2FFO Tail44375  20.014  17.785  18.156 -0.3710  0.0427  0.0033
 3728G2FFO Tail44376  20.109  18.648  19.019  0.0458  0.0841  0.0695
 3728G2FFO Tail44377  20.264  18.656  18.806 -0.1768 -0.1945 -0.1434
 3728G2FFO Tail44378  20.494  18.542  18.823 -0.0026 -0.0677 -0.1084
 3728G2FFO Tail44379  20.733  18.474  18.833  0.1565  0.0060 -0.1207
 3728G2FFO Tail44380  20.939  18.365  18.884  0.0335  0.3131 -0.2536
 3729G2FFO Head44381  17.255  18.747  18.602 -0.2119  0.2857  0.0368
 3729G2FFO Head44382  17.224  18.614  18.320 -0.1157  0.1926 -0.5466
 3729G2FFO Head44383  17.205  18.178  18.289 -0.1604 -0.3599 -0.2521
 3729G2FFO Head44384  17.065  18.345  18.043  0.4773 -0.0967  0.0501
 3729G2FFO Head44385  16.999  18.692  18.071 -0.3952  0.0029  0.0284
 3729G2FFO Head44386  16.645  18.855  17.165 -0.1924 -0.0706  0.1137
 3729G2FFO Head44387  16.830  18.713  17.376  0.4368  0.0004  0.6410
 3729G2FFO Head44388  16.462  19.285  17.637  0.3063  0.1641  0.0304
 3729G2FFO Head44389  16.729  19.149  17.557  0.3090 -0.0565  0.0238
 3729G2FFO Head44390  16.844  18.850  17.697  0.3473 -0.0637  0.1267
 3729G2FFO link44391  17.039  18.842  17.843 -0.0868  0.5304 -0.3129
 3729G2FFO link44392  17.248  19.026  17.836  0.1044 -0.1333 -0.0690
 3729G2FFO Tail44393  17.388  19.113  17.548  0.1663 -0.2177  0.0385
 3729G2FFO Tail44394  17.130  19.093  17.319  0.0740  0.3706  0.0567
 3729G2FFO Tail44395  17.161  18.949  17.107  0.1610 -0.1864  0.1521
 3729G2FFO Tail44396  17.211  18.691  17.145 -0.0213  0.1485 -0.1507
 3729G2FFO Tail44397  17.214  18.437  17.171 -0.1173 -0.1049  0.1339
 3729G2FFO Tail44398  17.165  18.214  17.216 -0.1464 -0.0161 -0.3005
 3729G2FFO Tail44399  17.574  18.824  17.463 -0.2624  0.1176  0.4226
 3729G2FFO Tail44400  17.839  18.816  17.437  0.0566 -0.0526  0.1296
 3729G2FFO Tail44401  17.945  18.588  17.416 -0.1595  0.1312  0.1835
 3729G2FFO Tail44402  18.021  18.341  17.378  0.1810 -0.0022 -0.0283
 3729G2FFO Tail44403  18.135  18.154  17.305 -0.0939  0.2378 -0.1106
 3730G2FFO Head44404  17.379  14.764  21.810  0.4292 -0.2284 -0.2382
 3730G2FFO Head44405  17.592  14.959  21.849 -0.1700  0.2582  0.1361
 3730G2FFO Head44406  17.613  14.876  22.257  0.0503 -0.1052 -0.2046
 3730G2FFO Head44407  17.614  15.171  22.216 -0.0742  0.2741  0.1510
 3730G2FFO Head44408  17.495  15.286  21.920  0.1481 -0.3508  0.2071
 3730G2FFO Head44409  16.704  14.782  22.110  0.0403  0.3227  0.0359
 3730G2FFO Head44410  16.944  14.918  21.904  0.3599 -0.1080 -0.2952
 3730G2FFO Head44411  16.815  15.504  22.431  0.0290  0.7548 -0.4684
 3730G2FFO Head44412  16.866  15.198  22.241 -0.3494 -0.2215 -0.1717
 3730G2FFO Head44413  17.153  15.159  22.042 -0.1870 -0.0758  0.2650
 3730G2FFO link44414  17.253  15.358  21.891  0.4216 -0.3002 -0.3908
 3730G2FFO link44415  17.146  15.623  21.890  0.0714 -0.0498  0.0089
 3730G2FFO Tail44416  16.843  15.675  22.012 -0.0430  0.2916  0.0025
 3730G2FFO Tail44417  16.764  15.991  21.864  0.0945  0.5857 -0.0101
 3730G2FFO Tail44418  16.935  16.173  21.784  0.0110  0.1450 -0.2366
 3730G2FFO Tail44419  17.196  16.157  21.837  0.1571 -0.2126  0.1852
 3730G2FFO Tail44420  17.439  16.169  21.934 -0.0485 -0.0358  0.1067
 3730G2FFO Tail44421  17.633  16.115  22.048 -0.0194 -0.1528 -0.0874
 3730G2FFO Tail44422  16.660  15.455  21.822 -0.1018  0.3820 -0.1468
 3730G2FFO Tail44423  16.514  15.524  21.625 -0.1364  0.1470  0.1388
 3730G2FFO Tail44424  16.446  15.766  21.585  0.0594 -0.2440  0.1115
 3730G2FFO Tail44425  16.413  16.004  21.509  0.1335 -0.3147  0.0619
 3730G2FFO Tail44426  16.424  16.205  21.392  0.2043 -0.0157 -0.2184
 3731G2FFO Head44427  16.834  16.073  18.630 -0.0035  0.3688  0.4303
 3731G2FFO Head44428  16.899  15.849  18.854 -0.1607  0.1897  0.0215
 3731G2FFO Head44429  17.128  15.471  18.989  0.0944 -0.1431  0.3291
 3731G2FFO Head44430  16.845  15.511  19.085 -0.2922 -0.0301 -0.5627
 3731G2FFO Head44431  16.711  15.819  19.135 -0.0976 -0.2136 -0.6905
 3731G2FFO Head44432  15.833  15.566  18.986  0.2854  0.2956 -0.0634
 3731G2FFO Head44433  16.089  15.638  18.838 -0.3054  0.3074  0.0288
 3731G2FFO Head44434  16.688  15.259  18.713  0.5432  0.0193  0.1844
 3731G2FFO Head44435  16.489  15.530  18.726  0.0470  0.2191 -0.0586
 3731G2FFO Head44436  16.369  15.652  19.035  0.3174  0.2069  0.1996
 3731G2FFO link44437  16.455  15.858  19.149  0.0279  0.0485 -0.0894
 3731G2FFO link44438  16.315  16.053  19.314  0.1847 -0.4198  0.1112
 3731G2FFO Tail44439  16.458  16.199  19.559 -0.3667  0.0992 -0.1859
 3731G2FFO Tail44440  16.374  15.987  19.810 -0.3543  0.0683 -0.0245
 3731G2FFO Tail44441  16.130  15.959  19.886 -0.2484 -0.0642 -0.0892
 3731G2FFO Tail44442  16.070  15.894  20.127 -0.2256 -0.2176  0.1229
 3731G2FFO Tail44443  16.066  15.796  20.370  0.2757 -0.1971 -0.0354
 3731G2FFO Tail44444  16.000  15.686  20.565 -0.2801  0.2877  0.1323
 3731G2FFO Tail44445  16.806  16.143  19.515 -0.1492 -0.1879 -0.2810
 3731G2FFO Tail44446  16.917  15.909  19.567  0.2409 -0.0669  0.2721
 3731G2FFO Tail44447  16.867  15.809  19.802  0.1099  0.0090  0.2652
 3731G2FFO Tail44448  16.821  15.681  20.010 -0.2446  0.4496  0.0078
 3731G2FFO Tail44449  16.840  15.538  20.203 -0.0445  0.2118 -0.0168
 3732G2FFO Head44450  15.742  17.605  23.314 -0.0062 -0.2027  0.1100
 3732G2FFO Head44451  15.913  17.431  23.076 -0.3523 -0.2083 -0.1686
 3732G2FFO Head44452  15.940  17.114  23.443  0.2384  0.0207  0.1479
 3732G2FFO Head44453  15.834  16.954  23.221  0.0184 -0.5587  0.2768
 3732G2FFO Head44454  15.770  17.160  22.933 -0.1587 -0.1285  0.2210
 3732G2FFO Head44455  15.403  16.982  23.565 -0.1482  0.0859  0.1528
 3732G2FFO Head44456  15.405  17.267  23.403  0.0575  0.3332 -0.1846
 3732G2FFO Head44457  15.179  17.720  23.258  0.2033  0.1939 -0.2733
 3732G2FFO Head44458  15.357  17.593  23.081  0.2250  0.1298 -0.0589
 3732G2FFO Head44459  15.353  17.247  23.044 -0.2358 -0.0086 -0.2105
 3732G2FFO link44460  15.516  17.168  22.856  0.2063 -0.3870 -0.6649
 3732G2FFO link44461  15.421  17.069  22.615 -0.0053  0.2626  0.0424
 3732G2FFO Tail44462  15.112  16.961  22.551  0.1052  0.4461  0.5785
 3732G2FFO Tail44463  15.061  17.149  22.239 -0.1032 -0.0744 -0.2675
 3732G2FFO Tail44464  14.971  17.059  22.005  0.1890  0.3718  0.0288
 3732G2FFO Tail44465  14.771  17.187  21.894 -0.2637  0.1344  0.0740
 3732G2FFO Tail44466  14.614  17.316  21.743  0.1623 -0.0353 -0.0440
 3732G2FFO Tail44467  14.458  17.454  21.643 -0.4371  0.2074 -0.1474
 3732G2FFO Tail44468  15.194  16.648  22.439  0.3201  0.3884 -0.0195
 3732G2FFO Tail44469  15.220  16.561  22.193  0.2263  0.5732 -0.2302
 3732G2FFO Tail44470  15.031  16.601  22.026  0.1315  0.0467  0.3066
 3732G2FFO Tail44471  14.814  16.646  21.899 -0.0074  0.0231  0.3196
 3732G2FFO Tail44472  14.627  16.752  21.807  0.2143 -0.1663 -0.1822
 3733G2FFO Head44473  21.259  16.866  21.133 -0.1499  0.1116  0.1192
 3733G2FFO Head44474  20.987  16.977  20.993 -0.0652  0.3666 -0.1435
 3733G2FFO Head44475  20.983  16.271  21.157 -0.3378 -0.1533  0.0658
 3733G2FFO Head44476  20.875  16.574  21.189  0.0770  0.3803 -0.0608
 3733G2FFO Head44477  20.714  16.751  20.946 -0.4229 -0.4364  0.2522
 3733G2FFO Head44478  20.891  16.905  21.500 -0.0423  0.2684  0.0247
 3733G2FFO Head44479  20.614  16.759  21.520 -0.0884  0.1698 -0.0939
 3733G2FFO Head44480  20.638  16.271  21.517  0.4738  0.2475  0.1033
 3733G2FFO Head44481  20.494  16.370  21.263 -0.2021 -0.4470 -0.1280
 3733G2FFO Head44482  20.415  16.720  21.235 -0.0052 -0.2053  0.2838
 3733G2FFO link44483  20.465  16.810  20.996 -0.1256  0.0933  0.4505
 3733G2FFO link44484  20.333  16.993  20.848  0.1442 -0.1212 -0.0895
 3733G2FFO Tail44485  20.004  17.036  20.874  0.1672 -0.1349 -0.1484
 3733G2FFO Tail44486  19.910  16.787  21.114  0.2407 -0.3261 -0.1569
 3733G2FFO Tail44487  19.707  16.639  21.058  0.1560  0.0155 -0.4879
 3733G2FFO Tail44488  19.471  16.740  21.060  0.0412 -0.1939  0.2880
 3733G2FFO Tail44489  19.231  16.834  21.076 -0.0186 -0.0731 -0.0023
 3733G2FFO Tail44490  18.996  16.851  21.089  0.0214 -0.3480  0.1133
 3733G2FFO Tail44491  19.886  16.871  20.601 -0.1296 -0.0163  0.2412
 3733G2FFO Tail44492  19.803  16.616  20.617  0.2024 -0.0990  0.1895
 3733G2FFO Tail44493  19.549  16.575  20.603  0.0903 -0.0923  0.1353
 3733G2FFO Tail44494  19.290  16.559  20.592 -0.2047 -0.1529  0.2315
 3733G2FFO Tail44495  19.061  16.576  20.644 -0.1530  0.2704  0.0706
 3734G2FFO Head44496  18.550  15.767  16.048 -0.0509 -0.0411  0.3427
 3734G2FFO Head44497  18.345  15.590  15.974 -0.2610  0.0615  0.3559
 3734G2FFO Head44498  18.108  15.772  15.663  0.0369 -0.1688 -0.0626
 3734G2FFO Head44499  17.947  15.697  15.904  0.6440  0.0349  0.1462
 3734G2FFO Head44500  18.079  15.534  16.175 -0.0505  0.0065  0.2573
 3734G2FFO Head44501  17.226  15.092  15.968 -0.1343  0.1842  0.2736
 3734G2FFO Head44502  17.527  15.049  16.160 -0.0161 -0.2505  0.3078
 3734G2FFO Head44503  17.578  15.300  15.696  0.2352 -0.0933  0.3602
 3734G2FFO Head44504  17.565  15.424  16.005  0.3621 -0.0658 -0.0666
 3734G2FFO Head44505  17.758  15.297  16.241 -0.1979  0.2762 -0.1884
 3734G2FFO link44506  18.009  15.281  16.211 -0.2982 -0.0945 -0.4976
 3734G2FFO link44507  18.180  15.073  16.303 -0.1831  0.2637 -0.0326
 3734G2FFO Tail44508  18.452  15.143  16.470 -0.1030  0.0236  0.2935
 3734G2FFO Tail44509  18.394  15.015  16.774 -0.2208  0.0734  0.1749
 3734G2FFO Tail44510  18.226  15.123  16.950  0.0450  0.1500  0.4623
 3734G2FFO Tail44511  18.055  14.954  17.033  0.1661  0.2845 -0.2093
 3734G2FFO Tail44512  17.855  14.819  17.116 -0.1675  0.0330 -0.0939
 3734G2FFO Tail44513  17.734  14.638  17.203  0.0855 -0.1260  0.5092
 3734G2FFO Tail44514  18.432  15.480  16.495  0.0331  0.0520  0.0671
 3734G2FFO Tail44515  18.227  15.578  16.625  0.0548 -0.1633 -0.3334
 3734G2FFO Tail44516  18.028  15.413  16.654 -0.1622  0.1058 -0.0745
 3734G2FFO Tail44517  17.865  15.213  16.669  0.0212 -0.1252 -0.0703
 3734G2FFO Tail44518  17.778  15.000  16.715  0.2146 -0.0375  0.2943
 3735G2FFO Head44519  16.214  18.982  17.320  0.4381  0.1911  0.0445
 3735G2FFO Head44520  15.993  18.773  17.262 -0.2935 -0.3391 -0.0429
 3735G2FFO Head44521  16.175  18.860  17.852  0.2476  0.5133 -0.1025
 3735G2FFO Head44522  15.962  18.885  17.664  0.2047  0.1113 -0.1590
 3735G2FFO Head44523  15.846  18.588  17.512  0.0168  0.0352 -0.2800
 3735G2FFO Head44524  15.574  18.599  17.140  0.0214 -0.2667 -0.2179
 3735G2FFO Head44525  15.759  18.346  17.122 -0.2096  0.0239  0.0277
 3735G2FFO Head44526  16.031  18.050  16.894 -0.0456 -0.0738 -0.1329
 3735G2FFO Head44527  16.047  18.009  17.179 -0.3020 -0.1907  0.3017
 3735G2FFO Head44528  15.846  18.195  17.403  0.3046 -0.0146  0.1633
 3735G2FFO link44529  15.956  18.365  17.578  0.0198  0.4830  0.3938
 3735G2FFO link44530  16.056  18.324  17.837 -0.0494 -0.0970 -0.0837
 3735G2FFO Tail44531  16.336  18.153  17.894 -0.0005 -0.0167  0.1435
 3735G2FFO Tail44532  16.573  18.409  17.942 -0.2893 -0.0364  0.0296
 3735G2FFO Tail44533  16.553  18.618  17.793  0.0796 -0.0231  0.2042
 3735G2FFO Tail44534  16.435  18.583  17.561 -0.1104 -0.0805 -0.2036
 3735G2FFO Tail44535  16.313  18.515  17.348  0.3281  0.2120 -0.0767
 3735G2FFO Tail44536  16.185  18.403  17.187  0.2339  0.1973  0.2085
 3735G2FFO Tail44537  16.396  18.056  17.557  0.1066 -0.1701 -0.2021
 3735G2FFO Tail44538  16.434  17.807  17.503  0.1198 -0.0147  0.0615
 3735G2FFO Tail44539  16.447  17.712  17.271 -0.1867  0.1260  0.1873
 3735G2FFO Tail44540  16.403  17.626  17.032  0.2056  0.1574  0.2958
 3735G2FFO Tail44541  16.326  17.500  16.846 -0.0675 -0.0270  0.1984
 3736G2FFO Head44542  20.175  15.088  21.174 -0.2149 -0.2095  0.0251
 3736G2FFO Head44543  19.991  15.308  21.052 -0.1297 -0.2420 -0.0773
 3736G2FFO Head44544  19.608  15.688  20.737  0.1935 -0.0355  0.2288
 3736G2FFO Head44545  19.777  15.684  20.994  0.1001  0.2506  0.2076
 3736G2FFO Head44546  20.128  15.606  20.952 -0.1996 -0.1892  0.0719
 3736G2FFO Head44547  20.658  15.506  21.209  0.1427 -0.1546  0.1257
 3736G2FFO Head44548  20.565  15.339  21.023  0.1905 -0.0207  0.1490
 3736G2FFO Head44549  20.543  14.956  20.798 -0.1423  0.0027 -0.2222
 3736G2FFO Head44550  20.510  15.152  20.600  0.0675  0.0867 -0.0865
 3736G2FFO Head44551  20.451  15.469  20.717 -0.3187  0.1528 -0.4009
 3736G2FFO link44552  20.224  15.612  20.726 -0.2328  0.1638  0.4389
 3736G2FFO link44553  20.135  15.786  20.514 -0.1112  0.0328  0.3533
 3736G2FFO Tail44554  20.102  16.102  20.580  0.1682 -0.1299  0.2069
 3736G2FFO Tail44555  19.773  16.155  20.563 -0.2077  0.3641  0.0368
 3736G2FFO Tail44556  19.620  16.127  20.351  0.2701  0.0855 -0.4221
 3736G2FFO Tail44557  19.642  16.308  20.173  0.1509  0.0729  0.3722
 3736G2FFO Tail44558  19.619  16.486  19.988 -0.2103 -0.0232 -0.2248
 3736G2FFO Tail44559  19.614  16.686  19.879 -0.1176 -0.3374  0.0732
 3736G2FFO Tail44560  20.187  16.235  20.263  0.3767  0.0058 -0.3300
 3736G2FFO Tail44561  20.033  16.199  20.050 -0.4019 -0.2201 -0.0481
 3736G2FFO Tail44562  19.936  15.956  20.020  0.0924  0.1678 -0.0510
 3736G2FFO Tail44563  19.883  15.704  19.974  0.0799 -0.0046  0.1377
 3736G2FFO Tail44564  19.826  15.496  19.876  0.1506  0.3954 -0.2404
 3737G2FFO Head44565  15.615  17.568  16.270  0.0149  0.0504  0.0555
 3737G2FFO Head44566  15.483  17.365  16.456  0.5609 -0.1369  0.1546
 3737G2FFO Head44567  15.040  16.865  16.282 -0.1519  0.1419 -0.0302
 3737G2FFO Head44568  15.253  17.084  16.253  0.1610 -0.2010 -0.1495
 3737G2FFO Head44569  15.550  17.026  16.395 -0.2919 -0.3389 -0.2121
 3737G2FFO Head44570  15.495  17.108  15.446 -0.0819  0.0444 -0.1891
 3737G2FFO Head44571  15.618  16.946  15.694 -0.1009  0.2326  0.0678
 3737G2FFO Head44572  16.215  17.206  15.923 -0.0702 -0.1165 -0.1414
 3737G2FFO Head44573  15.925  17.199  15.799  0.0822 -0.0991 -0.1647
 3737G2FFO Head44574  15.664  17.097  16.005  0.1329  0.0040 -0.1456
 3737G2FFO link44575  15.747  16.968  16.213 -0.0839  0.1334 -0.0054
 3737G2FFO link44576  15.960  16.767  16.249  0.0867 -0.2020  0.2042
 3737G2FFO Tail44577  16.260  16.858  16.190 -0.0414 -0.0487 -0.0636
 3737G2FFO Tail44578  16.394  16.585  15.998  0.2487  0.2864 -0.4903
 3737G2FFO Tail44579  16.372  16.337  16.098 -0.4107  0.0425  0.0137
 3737G2FFO Tail44580  16.198  16.175  16.007 -0.1908  0.0256  0.0063
 3737G2FFO Tail44581  16.040  16.023  15.880  0.1502 -0.0447 -0.0482
 3737G2FFO Tail44582  15.932  15.883  15.731 -0.0048  0.1442  0.0572
 3737G2FFO Tail44583  16.431  16.797  16.485  0.3711 -0.3055  0.2581
 3737G2FFO Tail44584  16.390  16.949  16.697  0.1095 -0.1716  0.0293
 3737G2FFO Tail44585  16.151  17.023  16.758  0.2485 -0.1547 -0.2933
 3737G2FFO Tail44586  15.898  17.069  16.785 -0.1444  0.1245 -0.0263
 3737G2FFO Tail44587  15.697  17.157  16.841  0.1924  0.0960 -0.1215
 3738G2FFO Head44588  21.243  18.046  20.258  0.1059  0.0831  0.1365
 3738G2FFO Head44589  20.998  18.003  20.446 -0.2587  0.1036  0.1441
 3738G2FFO Head44590  20.869  17.663  19.942  0.0055  0.2337 -0.1816
 3738G2FFO Head44591  20.707  17.685  20.210  0.2301 -0.0014 -0.3305
 3738G2FFO Head44592  20.650  18.003  20.365  0.0306 -0.1556  0.0151
 3738G2FFO Head44593  20.920  18.288  20.804 -0.2155  0.0285  0.2027
 3738G2FFO Head44594  20.637  18.438  20.768 -0.1457 -0.0370 -0.2822
 3738G2FFO Head44595  20.566  18.777  20.508 -0.0363  0.0390 -0.1342
 3738G2FFO Head44596  20.492  18.529  20.376 -0.0061 -0.0160  0.0014
 3738G2FFO Head44597  20.407  18.272  20.575  0.0218 -0.0728 -0.0496
 3738G2FFO link44598  20.443  18.024  20.520  0.2575 -0.5244  0.1517
 3738G2FFO link44599  20.264  17.807  20.549 -0.1353  0.2204  0.0206
 3738G2FFO Tail44600  20.071  17.809  20.823  0.2244  0.1023  0.2523
 3738G2FFO Tail44601  19.911  17.521  20.812  0.0485  0.3687  0.1495
 3738G2FFO Tail44602  19.930  17.348  20.600 -0.0964 -0.2901  0.0004
 3738G2FFO Tail44603  20.139  17.345  20.448  0.1338 -0.0480 -0.1394
 3738G2FFO Tail44604  20.330  17.378  20.287  0.0715 -0.0354  0.0392
 3738G2FFO Tail44605  20.506  17.340  20.139  0.1966  0.1441 -0.0323
 3738G2FFO Tail44606  19.831  18.037  20.697  0.0402 -0.0238  0.2012
 3738G2FFO Tail44607  19.893  18.231  20.520 -0.1931 -0.4284  0.0778
 3738G2FFO Tail44608  20.022  18.175  20.309 -0.0443  0.0569  0.0912
 3738G2FFO Tail44609  20.192  18.112  20.123  0.2156 -0.3506  0.0646
 3738G2FFO Tail44610  20.367  18.029  19.991 -0.0903  0.3078 -0.1484
 3739G2FFO Head44611  16.984  14.642  20.301 -0.2180 -0.3046  0.1105
 3739G2FFO Head44612  16.817  14.766  20.062  0.0255 -0.1786 -0.2277
 3739G2FFO Head44613  16.912  15.297  20.564  0.1252 -0.2263  0.4733
 3739G2FFO Head44614  16.804  15.034  20.438 -0.0050 -0.0603  0.2862
 3739G2FFO Head44615  16.647  15.077  20.122  0.0510  0.1701 -0.3136
 3739G2FFO Head44616  16.340  14.656  20.719 -0.0058  0.1253  0.0927
 3739G2FFO Head44617  16.410  14.889  20.593  0.4090 -0.0477 -0.4636
 3739G2FFO Head44618  16.257  14.327  20.212 -0.0403 -0.0330  0.1749
 3739G2FFO Head44619  16.432  14.586  20.300 -0.3169 -0.1139 -0.0436
 3739G2FFO Head44620  16.294  14.916  20.268 -0.2631  0.1357 -0.1637
 3739G2FFO link44621  16.374  15.088  20.092 -0.1110  0.1596  0.3469
 3739G2FFO link44622  16.221  15.162  19.869 -0.0218  0.4025 -0.0476
 3739G2FFO Tail44623  15.979  14.974  19.768  0.3064  0.2223  0.2722
 3739G2FFO Tail44624  16.124  14.787  19.508  0.1201  0.1085 -0.0867
 3739G2FFO Tail44625  16.004  14.702  19.289 -0.1180 -0.3191  0.1343
 3739G2FFO Tail44626  15.867  14.872  19.140  0.4585  0.2675  0.0081
 3739G2FFO Tail44627  15.715  15.053  19.045 -0.1660  0.1816  0.3135
 3739G2FFO Tail44628  15.552  15.199  18.999 -0.1829 -0.0420  0.2098
 3739G2FFO Tail44629  15.769  15.189  19.615 -0.0964  0.0950  0.0127
 3739G2FFO Tail44630  15.860  15.358  19.437 -0.1163 -0.0588 -0.2274
 3739G2FFO Tail44631  16.097  15.321  19.346 -0.0833 -0.1159  0.0374
 3739G2FFO Tail44632  16.335  15.250  19.285 -0.2479  0.0623  0.1845
 3739G2FFO Tail44633  16.525  15.195  19.154  0.1766  0.0584  0.1537
 3740G2FFO Head44634  17.018  15.571  18.487  0.0058 -0.3232  0.1794
 3740G2FFO Head44635  17.090  15.700  18.231 -0.0943 -0.3652  0.1126
 3740G2FFO Head44636  17.850  15.539  18.289  0.0410  0.2478  0.2825
 3740G2FFO Head44637  17.518  15.585  18.358  0.1508 -0.2041 -0.1509
 3740G2FFO Head44638  17.385  15.885  18.238  0.1556 -0.0940  0.2915
 3740G2FFO Head44639  17.594  16.774  18.264 -0.2107 -0.0690  0.0314
 3740G2FFO Head44640  17.445  16.515  18.112  0.0788  0.2609  0.3055
 3740G2FFO Head44641  17.969  16.606  17.916  0.1057  0.0623  0.1479
 3740G2FFO Head44642  17.754  16.417  17.828  0.1092 -0.0470 -0.0820
 3740G2FFO Head44643  17.621  16.224  18.090  0.2109 -0.3991 -0.2728
 3740G2FFO link44644  17.503  16.003  18.030  0.1058 -0.6197 -0.1430
 3740G2FFO link44645  17.453  15.933  17.763  0.1227  0.0968  0.5420
 3740G2FFO Tail44646  17.448  16.166  17.520  0.3662  0.0460 -0.1429
 3740G2FFO Tail44647  17.345  16.429  17.701 -0.2242  0.0843  0.0336
 3740G2FFO Tail44648  17.102  16.505  17.695  0.1984  0.0288  0.0279
 3740G2FFO Tail44649  17.044  16.755  17.666  0.3390 -0.0648 -0.1455
 3740G2FFO Tail44650  16.971  17.000  17.646  0.0946 -0.0907  0.2623
 3740G2FFO Tail44651  16.849  17.199  17.611 -0.2102 -0.3266  0.1774
 3740G2FFO Tail44652  17.150  16.098  17.379  0.2445  0.3844  0.0042
 3740G2FFO Tail44653  16.944  16.026  17.511 -0.0588  0.1129  0.0570
 3740G2FFO Tail44654  16.955  16.081  17.771 -0.0409  0.1026 -0.3266
 3740G2FFO Tail44655  16.994  16.158  18.009  0.2352  0.1017  0.0123
 3740G2FFO Tail44656  17.006  16.160  18.242 -0.0165  0.1067 -0.0234
 3741G2FFO Head44657  15.132  14.110  18.448  0.1571  0.0993 -0.0232
 3741G2FFO Head44658  15.054  14.359  18.297 -0.5710 -0.4226  0.1244
 3741G2FFO Head44659  14.666  14.501  18.142 -0.0358 -0.0360  0.3524
 3741G2FFO Head44660  14.847  14.725  18.296  0.0007  0.0006 -0.0470
 3741G2FFO Head44661  15.177  14.667  18.378 -0.5727 -0.0341  0.1303
 3741G2FFO Head44662  15.187  14.101  17.896  0.0805 -0.0808  0.2746
 3741G2FFO Head44663  15.214  14.395  17.925 -0.0971 -0.3719 -0.0714
 3741G2FFO Head44664  15.819  14.091  18.160 -0.1551  0.2529  0.5437
 3741G2FFO Head44665  15.535  14.260  18.252 -0.0520 -0.0063 -0.0934
 3741G2FFO Head44666  15.451  14.569  18.100 -0.1714  0.4165  0.0119
 3741G2FFO link44667  15.369  14.775  18.240 -0.6879  0.2681  0.2789
 3741G2FFO link44668  15.421  15.059  18.211  0.1256  0.0646  0.0018
 3741G2FFO Tail44669  15.485  15.270  18.464 -0.2427  0.0763 -0.2960
 3741G2FFO Tail44670  15.823  15.241  18.500  0.0983 -0.1342 -0.5313
 3741G2FFO Tail44671  15.926  14.999  18.506 -0.1530 -0.0113  0.1972
 3741G2FFO Tail44672  15.755  14.811  18.574 -0.0621  0.1605 -0.1553
 3741G2FFO Tail44673  15.580  14.646  18.644  0.2265  0.0629 -0.2164
 3741G2FFO Tail44674  15.423  14.468  18.658  0.2425 -0.2656  0.3507
 3741G2FFO Tail44675  15.461  15.578  18.305  0.0966 -0.0415 -0.3100
 3741G2FFO Tail44676  15.391  15.601  18.058  0.2278 -0.3295  0.1595
 3741G2FFO Tail44677  15.195  15.454  17.961 -0.0858 -0.0661 -0.2895
 3741G2FFO Tail44678  15.032  15.301  17.851  0.0045 -0.1335  0.1251
 3741G2FFO Tail44679  14.851  15.162  17.824  0.3235  0.1770  0.0672
 3742G2FFO Head44680  16.388  19.480  16.127 -0.0162  0.0352  0.0631
 3742G2FFO Head44681  16.588  19.264  16.111  0.0255  0.4762  0.0247
 3742G2FFO Head44682  16.507  19.260  15.614 -0.0368 -0.0730  0.5121
 3742G2FFO Head44683  16.771  19.365  15.677 -0.0535 -0.0361 -0.4593
 3742G2FFO Head44684  16.916  19.335  16.002 -0.0411 -0.0376 -0.0184
 3742G2FFO Head44685  16.966  20.138  15.619  0.3973  0.0193  0.0668
 3742G2FFO Head44686  16.953  19.854  15.680  0.6638 -0.0324 -0.0867
 3742G2FFO Head44687  16.486  19.976  15.758 -0.0590 -0.2518  0.3403
 3742G2FFO Head44688  16.606  19.729  15.873  0.1388  0.2094  0.0666
 3742G2FFO Head44689  16.928  19.740  16.015 -0.2432 -0.1930 -0.1575
 3742G2FFO link44690  17.046  19.534  16.097  0.2111 -0.0416  0.6276
 3742G2FFO link44691  17.221  19.528  16.310 -0.2793  0.1583 -0.2053
 3742G2FFO Tail44692  17.135  19.362  16.583 -0.1554 -0.1258  0.1663
 3742G2FFO Tail44693  17.464  19.267  16.674  0.4842 -0.3980 -0.0041
 3742G2FFO Tail44694  17.656  19.444  16.652  0.2461 -0.0860  0.0971
 3742G2FFO Tail44695  17.771  19.546  16.864  0.1626  0.3808  0.0443
 3742G2FFO Tail44696  17.878  19.680  17.050 -0.1387 -0.1326 -0.0505
 3742G2FFO Tail44697  17.962  19.851  17.191 -0.0004  0.0059 -0.1416
 3742G2FFO Tail44698  17.003  19.076  16.413 -0.1368 -0.0550 -0.4688
 3742G2FFO Tail44699  17.132  18.917  16.251  0.1812 -0.1349 -0.0506
 3742G2FFO Tail44700  17.142  18.653  16.296  0.0179  0.0833  0.1342
 3742G2FFO Tail44701  17.210  18.403  16.343 -0.0506  0.1768 -0.0877
 3742G2FFO Tail44702  17.291  18.209  16.448  0.2457 -0.1094  0.0444
 3743G2FFO Head44703  21.107  19.202  17.663 -0.2550  0.3718 -0.1712
 3743G2FFO Head44704  20.809  19.062  17.796  0.0697 -0.4084 -0.3248
 3743G2FFO Head44705  20.769  19.311  18.306  0.4403  0.0001  0.0807
 3743G2FFO Head44706  20.551  19.143  18.118  0.4884  0.0292  0.3298
 3743G2FFO Head44707  20.487  19.206  17.776 -0.2714 -0.0017  0.1919
 3743G2FFO Head44708  20.370  19.434  16.962 -0.3243 -0.2684  0.1207
 3743G2FFO Head44709  20.233  19.160  17.115  0.2804 -0.2621  0.0301
 3743G2FFO Head44710  20.758  19.416  17.396 -0.2852  0.3478 -0.2228
 3743G2FFO Head44711  20.651  19.168  17.284  0.1072  0.3183 -0.2048
 3743G2FFO Head44712  20.352  19.030  17.415  0.0001  0.1169  0.3997
 3743G2FFO link44713  20.261  19.116  17.637  0.1488  0.5543 -0.1609
 3743G2FFO link44714  20.021  19.039  17.767 -0.2874  0.0478  0.4715
 3743G2FFO Tail44715  19.770  18.882  17.628 -0.1334  0.0631 -0.5226
 3743G2FFO Tail44716  19.477  19.046  17.738  0.1003 -0.0157  0.1530
 3743G2FFO Tail44717  19.446  19.306  17.803  0.2100 -0.0700 -0.0406
 3743G2FFO Tail44718  19.664  19.428  17.861 -0.1525  0.1150  0.2628
 3743G2FFO Tail44719  19.858  19.587  17.938  0.0094 -0.0328  0.0503
 3743G2FFO Tail44720  19.991  19.775  17.993 -0.0341  0.0775 -0.1127
 3743G2FFO Tail44721  19.826  19.055  17.324 -0.0555  0.0668 -0.4129
 3743G2FFO Tail44722  19.863  19.310  17.318  0.0889 -0.2314  0.0100
 3743G2FFO Tail44723  20.029  19.421  17.472 -0.0477  0.1681 -0.0005
 3743G2FFO Tail44724  20.224  19.542  17.594  0.0717 -0.0270 -0.1038
 3743G2FFO Tail44725  20.351  19.676  17.737 -0.0245  0.1979 -0.2216
 3744G2FFO Head44726  16.541  18.593  23.427  0.1862 -0.3374 -0.0592
 3744G2FFO Head44727  16.710  18.351  23.280 -0.0177  0.2144  0.3009
 3744G2FFO Head44728  16.908  18.789  23.106 -0.3905 -0.1867  0.0325
 3744G2FFO Head44729  16.729  18.651  22.893  0.1371 -0.2488 -0.0637
 3744G2FFO Head44730  16.657  18.317  22.950  0.4123  0.0936  0.1578
 3744G2FFO Head44731  17.262  17.850  22.963 -0.3010  0.1264 -0.1407
 3744G2FFO Head44732  17.267  18.042  22.787  0.2566  0.3035  0.0429
 3744G2FFO Head44733  17.389  18.448  23.019 -0.1197  0.1047 -0.2154
 3744G2FFO Head44734  17.126  18.413  23.009 -0.0160  0.2029 -0.3045
 3744G2FFO Head44735  16.975  18.239  22.743  0.1050  0.2160 -0.4358
 3744G2FFO link44736  16.756  18.132  22.788 -0.2019 -0.3325  0.3555
 3744G2FFO link44737  16.639  17.947  22.604 -0.2679  0.2667 -0.0666
 3744G2FFO Tail44738  16.421  18.075  22.406  0.1455  0.1764  0.2495
 3744G2FFO Tail44739  16.564  17.949  22.114  0.3419  0.0981  0.0728
 3744G2FFO Tail44740  16.815  17.868  22.113  0.0094  0.0953 -0.4722
 3744G2FFO Tail44741  16.991  18.046  22.196 -0.1013  0.1604 -0.0587
 3744G2FFO Tail44742  17.161  18.223  22.283 -0.1453  0.1179  0.0521
 3744G2FFO Tail44743  17.258  18.403  22.382 -0.2794 -0.1854  0.1773
 3744G2FFO Tail44744  16.547  18.390  22.403 -0.0018  0.2892 -0.1094
 3744G2FFO Tail44745  16.803  18.429  22.392  0.1978  0.0123  0.2006
 3744G2FFO Tail44746  16.893  18.659  22.466 -0.0955 -0.2585 -0.0515
 3744G2FFO Tail44747  16.954  18.875  22.594  0.0977 -0.2885  0.0529
 3744G2FFO Tail44748  16.954  19.042  22.757  0.1012 -0.0884 -0.0113
 3745G2FFO Head44749  16.416  20.587  19.475  0.1849  0.2955  0.1506
 3745G2FFO Head44750  16.783  20.543  19.516  0.4163 -0.1534  0.0254
 3745G2FFO Head44751  17.373  20.401  19.581 -0.0776  0.0388 -0.1477
 3745G2FFO Head44752  17.170  20.537  19.772  0.0162  0.0010  0.2476
 3745G2FFO Head44753  16.845  20.399  19.814  0.0658 -0.2271 -0.3148
 3745G2FFO Head44754  17.134  20.194  20.545 -0.2661  0.5122 -0.1354
 3745G2FFO Head44755  17.038  20.298  20.309  0.0607  0.2542  0.1146
 3745G2FFO Head44756  16.679  20.410  20.585  0.1682  0.1283  0.1672
 3745G2FFO Head44757  16.604  20.328  20.291  0.5286 -0.1632 -0.1026
 3745G2FFO Head44758  16.806  20.120  20.104  0.0115  0.2355 -0.3669
 3745G2FFO link44759  16.824  20.149  19.842  0.0825 -0.3597 -0.5994
 3745G2FFO link44760  16.724  19.973  19.646 -0.4376  0.0381  0.5831
 3745G2FFO Tail44761  16.667  19.660  19.740 -0.3023  0.1176  0.4681
 3745G2FFO Tail44762  16.881  19.635  19.995  0.2225  0.2189  0.0493
 3745G2FFO Tail44763  17.097  19.489  19.973 -0.0321 -0.0491 -0.1238
 3745G2FFO Tail44764  17.134  19.308  20.159 -0.2404  0.2544 -0.0891
 3745G2FFO Tail44765  17.161  19.185  20.377 -0.0523 -0.0036 -0.0085
 3745G2FFO Tail44766  17.139  19.124  20.600  0.1414  0.1179  0.0496
 3745G2FFO Tail44767  16.868  19.470  19.518  0.1047 -0.2147  0.1391
 3745G2FFO Tail44768  17.125  19.453  19.504 -0.1845 -0.0384  0.3519
 3745G2FFO Tail44769  17.233  19.268  19.346  0.1653  0.0649 -0.3461
 3745G2FFO Tail44770  17.319  19.060  19.238  0.1103  0.0280  0.0568
 3745G2FFO Tail44771  17.337  18.847  19.132 -0.1593 -0.0999  0.0796
 3746G2FFO Head44772  20.775  17.153  18.857 -0.1900  0.1123  0.0203
 3746G2FFO Head44773  20.795  17.173  19.180 -0.1244  0.1115 -0.2884
 3746G2FFO Head44774  21.016  17.425  19.474  0.0049 -0.1400  0.0164
 3746G2FFO Head44775  20.753  17.304  19.603 -0.0521  0.1788  0.2272
 3746G2FFO Head44776  20.549  17.090  19.408 -0.2940  0.2697  0.1649
 3746G2FFO Head44777  21.139  16.391  19.452  0.0585  0.3279 -0.0714
 3746G2FFO Head44778  20.948  16.550  19.319 -0.1715  0.3332  0.1340
 3746G2FFO Head44779  21.183  16.920  19.383  0.0937 -0.0421  0.0431
 3746G2FFO Head44780  21.004  16.910  19.584  0.2066  0.4718 -0.3156
 3746G2FFO Head44781  20.720  16.723  19.547 -0.3392  0.0257 -0.1422
 3746G2FFO link44782  20.490  16.846  19.457  0.0872  0.2144  0.0949
 3746G2FFO link44783  20.226  16.723  19.461  0.1412 -0.2278 -0.2109
 3746G2FFO Tail44784  20.099  16.582  19.731  0.0763 -0.0155  0.1153
 3746G2FFO Tail44785  20.390  16.457  19.879  0.0676  0.0613  0.0487
 3746G2FFO Tail44786  20.547  16.592  20.042 -0.5354  0.3376  0.4633
 3746G2FFO Tail44787  20.806  16.571  19.997 -0.0032 -0.1370 -0.1912
 3746G2FFO Tail44788  21.050  16.533  19.937  0.2561  0.0942  0.1167
 3746G2FFO Tail44789  21.274  16.471  19.927 -0.4953 -0.0864  0.1630
 3746G2FFO Tail44790  20.007  16.269  19.598 -0.1028  0.0717  0.0007
 3746G2FFO Tail44791  19.753  16.189  19.612 -0.1495 -0.1468  0.1209
 3746G2FFO Tail44792  19.652  16.063  19.416  0.0206 -0.0265  0.0848
 3746G2FFO Tail44793  19.501  15.959  19.241  0.1057 -0.2411  0.0203
 3746G2FFO Tail44794  19.347  15.933  19.071 -0.0532  0.0237  0.1539
 3747G2FFO Head44795  14.388  16.523  17.105  0.2062 -0.2425  0.0899
 3747G2FFO Head44796  14.591  16.420  16.896  0.0243  0.0999 -0.3038
 3747G2FFO Head44797  14.073  15.894  16.763  0.0092  0.0758 -0.2067
 3747G2FFO Head44798  14.244  16.126  16.843 -0.1720  0.3093  0.0041
 3747G2FFO Head44799  14.586  16.072  16.878  0.1152  0.1652 -0.1826
 3747G2FFO Head44800  13.984  16.058  17.233  0.1079 -0.1513 -0.2273
 3747G2FFO Head44801  14.265  16.117  17.321 -0.4959  0.4554 -0.1399
 3747G2FFO Head44802  14.200  15.411  17.196 -0.2728  0.1199  0.3304
 3747G2FFO Head44803  14.222  15.695  17.173 -0.3200  0.3596  0.0708
 3747G2FFO Head44804  14.500  15.882  17.258 -0.6594  0.2249 -0.2216
 3747G2FFO link44805  14.692  15.947  17.083  0.0086  0.3711  0.0148
 3747G2FFO link44806  14.952  15.858  17.089 -0.1590  0.1565 -0.1751
 3747G2FFO Tail44807  15.195  16.011  17.275  0.0342  0.0718  0.4816
 3747G2FFO Tail44808  15.204  16.338  17.157  0.1884 -0.0610  0.1708
 3747G2FFO Tail44809  15.395  16.425  17.015 -0.0554 -0.4338  0.2479
 3747G2FFO Tail44810  15.640  16.351  17.067 -0.2210 -0.1523 -0.0357
 3747G2FFO Tail44811  15.860  16.257  17.147  0.1585 -0.2017  0.2534
 3747G2FFO Tail44812  16.045  16.120  17.161  0.0617  0.0571  0.0566
 3747G2FFO Tail44813  15.451  15.872  17.101 -0.2099 -0.2694  0.3042
 3747G2FFO Tail44814  15.589  15.651  17.151 -0.2080 -0.0120  0.0087
 3747G2FFO Tail44815  15.742  15.541  16.957  0.2508 -0.0628 -0.2513
 3747G2FFO Tail44816  15.860  15.466  16.742 -0.0148 -0.1362 -0.0012
 3747G2FFO Tail44817  15.979  15.345  16.582 -0.0201  0.1492  0.1093
 3748G2FFO Head44818  13.658  18.322  20.693 -0.1227 -0.2529 -0.1679
 3748G2FFO Head44819  13.572  18.266  20.351  0.1986  0.1273  0.0337
 3748G2FFO Head44820  14.096  17.732  20.472  0.4938 -0.4447 -0.0826
 3748G2FFO Head44821  13.904  18.008  20.445 -0.2810 -0.3427 -0.1628
 3748G2FFO Head44822  13.815  18.135  20.126 -0.3711 -0.0116  0.4275
 3748G2FFO Head44823  13.600  18.695  20.250  0.0410  0.1730 -0.1866
 3748G2FFO Head44824  13.890  18.646  20.354  0.1368  0.0585 -0.0996
 3748G2FFO Head44825  14.158  18.502  20.726  0.4900  0.0838 -0.1565
 3748G2FFO Head44826  14.206  18.312  20.485  0.2638 -0.2629  0.2846
 3748G2FFO Head44827  14.112  18.447  20.159 -0.0138 -0.3368 -0.1651
 3748G2FFO link44828  14.004  18.272  19.970  0.1520  0.0492 -0.7081
 3748G2FFO link44829  14.163  18.174  19.769 -0.2218  0.1752  0.1914
 3748G2FFO Tail44830  14.490  18.187  19.763  0.0379  0.1747 -0.1258
 3748G2FFO Tail44831  14.508  18.472  19.961 -0.3374  0.0619 -0.0094
 3748G2FFO Tail44832  14.702  18.506  20.139 -0.0564  0.0353 -0.2649
 3748G2FFO Tail44833  14.636  18.571  20.394  0.0724  0.0482  0.1082
 3748G2FFO Tail44834  14.625  18.611  20.635 -0.1941 -0.1104 -0.1403
 3748G2FFO Tail44835  14.589  18.580  20.867 -0.2417  0.0774  0.1373
 3748G2FFO Tail44836  14.545  18.352  19.452  0.3534 -0.1569 -0.3009
 3748G2FFO Tail44837  14.390  18.547  19.365  0.1041  0.1782  0.0294
 3748G2FFO Tail44838  14.227  18.640  19.547  0.1169  0.0339 -0.0649
 3748G2FFO Tail44839  14.069  18.689  19.732  0.0014  0.1057 -0.0235
 3748G2FFO Tail44840  13.972  18.767  19.926 -0.1647 -0.1184 -0.0158
 3749G2FFO Head44841  18.802  17.740  15.510  0.1106  0.0002 -0.0819
 3749G2FFO Head44842  18.649  17.508  15.687 -0.1255 -0.1617  0.1088
 3749G2FFO Head44843  18.413  17.193  15.412  0.1982 -0.1801 -0.2794
 3749G2FFO Head44844  18.216  17.418  15.591  0.3530 -0.3341  0.3127
 3749G2FFO Head44845  18.361  17.617  15.851 -0.0290 -0.1669  0.0573
 3749G2FFO Head44846  18.916  17.159  16.250  0.2051  0.0700  0.0145
 3749G2FFO Head44847  18.809  17.417  16.099 -0.0740  0.1950  0.1262
 3749G2FFO Head44848  19.035  17.782  16.033 -0.1122  0.2113  0.0862
 3749G2FFO Head44849  18.749  17.861  16.105  0.0874  0.1745  0.0017
 3749G2FFO Head44850  18.533  17.609  16.209  0.0349 -0.1394  0.1624
 3749G2FFO link44851  18.314  17.583  16.106  0.3918  0.1028 -0.5307
 3749G2FFO link44852  18.060  17.601  16.238 -0.1682  0.0489  0.1535
 3749G2FFO Tail44853  18.005  17.411  16.500  0.0443  0.2462  0.2998
 3749G2FFO Tail44854  17.963  17.103  16.356  0.0445  0.1397 -0.2506
 3749G2FFO Tail44855  18.089  16.883  16.438  0.2759 -0.0060  0.4747
 3749G2FFO Tail44856  18.142  16.857  16.695  0.1955  0.2713 -0.0816
 3749G2FFO Tail44857  18.207  16.889  16.946  0.0334  0.0300  0.4305
 3749G2FFO Tail44858  18.277  16.846  17.167  0.1173 -0.0937 -0.0304
 3749G2FFO Tail44859  18.331  17.362  16.577 -0.3931  0.2188  0.0218
 3749G2FFO Tail44860  18.486  17.186  16.432  0.1827 -0.1237 -0.1425
 3749G2FFO Tail44861  18.409  17.149  16.194  0.0439 -0.2277  0.2552
 3749G2FFO Tail44862  18.304  17.095  15.973  0.1314  0.1939 -0.0443
 3749G2FFO Tail44863  18.262  17.015  15.762 -0.1298  0.4032 -0.3300
 3750G2FFO Head44864  18.928  17.992  22.497  0.4143 -0.1281  0.0601
 3750G2FFO Head44865  19.211  18.065  22.444 -0.0873 -0.1854  0.0788
 3750G2FFO Head44866  19.543  18.345  22.622  0.0206 -0.0646 -0.0541
 3750G2FFO Head44867  19.631  18.056  22.608  0.0387 -0.0957  0.1963
 3750G2FFO Head44868  19.459  17.821  22.429  0.1365 -0.2125  0.3605
 3750G2FFO Head44869  19.339  17.657  23.176  0.1330 -0.0108 -0.1639
 3750G2FFO Head44870  19.558  17.548  23.062  0.0457  0.1079 -0.1248
 3750G2FFO Head44871  20.109  17.686  22.849 -0.0085 -0.0617  0.0399
 3750G2FFO Head44872  19.807  17.755  22.786  0.1542  0.1441 -0.3271
 3750G2FFO Head44873  19.558  17.524  22.709 -0.2225  0.1601 -0.2137
 3750G2FFO link44874  19.385  17.592  22.513 -0.1921 -0.3000 -0.0988
 3750G2FFO link44875  19.207  17.428  22.380  0.1858 -0.0141  0.1296
 3750G2FFO Tail44876  19.009  17.555  22.130 -0.0698  0.3265 -0.0844
 3750G2FFO Tail44877  19.133  17.358  21.869 -0.1786 -0.1133 -0.1308
 3750G2FFO Tail44878  19.396  17.380  21.830 -0.0122  0.0961 -0.0095
 3750G2FFO Tail44879  19.561  17.424  22.025 -0.1824  0.0045 -0.2009
 3750G2FFO Tail44880  19.686  17.488  22.233 -0.0925  0.0405  0.2503
 3750G2FFO Tail44881  19.855  17.538  22.382 -0.0094 -0.1026  0.0785
 3750G2FFO Tail44882  19.179  17.839  22.050 -0.0431 -0.0523  0.1408
 3750G2FFO Tail44883  19.327  17.880  21.835 -0.1587 -0.0333 -0.0216
 3750G2FFO Tail44884  19.230  17.851  21.598 -0.0760 -0.1217 -0.0306
 3750G2FFO Tail44885  19.097  17.865  21.380 -0.0913  0.1370 -0.0838
 3750G2FFO Tail44886  18.971  17.825  21.195  0.0224 -0.1905  0.1002
 3751G2FFO Head44887  13.989  14.819  19.379 -0.1422 -0.0747 -0.1114
 3751G2FFO Head44888  14.105  14.661  19.144  0.0241 -0.0879  0.3191
 3751G2FFO Head44889  13.997  14.510  18.549  0.0548  0.0637  0.1433
 3751G2FFO Head44890  14.175  14.491  18.798 -0.0539 -0.1076  0.1288
 3751G2FFO Head44891  14.317  14.778  18.906 -0.0494 -0.3863  0.5062
 3751G2FFO Head44892  13.543  15.170  18.565  0.1497  0.3137  0.2384
 3751G2FFO Head44893  13.833  15.265  18.642  0.3042 -0.1788 -0.1059
 3751G2FFO Head44894  13.614  14.996  19.019  0.3625 -0.0433 -0.0240
 3751G2FFO Head44895  13.810  14.854  18.797 -0.3796  0.3211 -0.0238
 3751G2FFO Head44896  14.083  15.013  18.664  0.1727  0.1278  0.0364
 3751G2FFO link44897  14.302  15.020  18.803  0.3469  0.3656 -0.4366
 3751G2FFO link44898  14.527  15.179  18.744 -0.1118 -0.0552 -0.0134
 3751G2FFO Tail44899  14.499  15.435  18.536  0.2647  0.1183 -0.0875
 3751G2FFO Tail44900  14.697  15.682  18.678  0.0873  0.2103  0.1101
 3751G2FFO Tail44901  14.659  15.779  18.911 -0.4125  0.2571  0.0185
 3751G2FFO Tail44902  14.421  15.862  18.977 -0.0078 -0.2000  0.2352
 3751G2FFO Tail44903  14.209  15.956  19.082  0.0421  0.2864 -0.0158
 3751G2FFO Tail44904  14.017  16.063  19.145 -0.2241 -0.1034  0.0386
 3751G2FFO Tail44905  14.751  15.350  18.281 -0.0757  0.1199  0.2368
 3751G2FFO Tail44906  14.974  15.224  18.359  0.1727 -0.1687 -0.0763
 3751G2FFO Tail44907  15.064  15.300  18.596 -0.0623  0.1347  0.0921
 3751G2FFO Tail44908  15.105  15.396  18.831 -0.0142  0.1602  0.1832
 3751G2FFO Tail44909  15.152  15.427  19.048 -0.3915 -0.0586 -0.2901
 3752G2FFO Head44910  15.689  19.304  15.629  0.2771  0.0991  0.4324
 3752G2FFO Head44911  15.696  19.514  15.858  0.0296 -0.0983  0.0657
 3752G2FFO Head44912  15.326  19.772  15.959  0.4615  0.1325 -0.0465
 3752G2FFO Head44913  15.536  19.678  16.241 -0.6379 -0.2767 -0.2512
 3752G2FFO Head44914  15.798  19.437  16.174 -0.1757 -0.1064 -0.2370
 3752G2FFO Head44915  15.322  18.951  15.650  0.0752 -0.1513  0.1731
 3752G2FFO Head44916  15.545  18.912  15.872  0.1151 -0.0888 -0.2753
 3752G2FFO Head44917  15.031  19.266  15.893  0.1775  0.2381  0.1404
 3752G2FFO Head44918  15.340  19.317  15.959  0.1237  0.2457  0.2351
 3752G2FFO Head44919  15.534  19.100  16.158 -0.2811 -0.2749  0.0343
 3752G2FFO link44920  15.768  19.187  16.256  0.0411 -0.1200 -0.3026
 3752G2FFO link44921  15.942  19.059  16.448 -0.0683 -0.2384 -0.0262
 3752G2FFO Tail44922  16.268  19.124  16.480  0.2937  0.0874  0.1078
 3752G2FFO Tail44923  16.324  19.459  16.597  0.1366 -0.2398  0.2329
 3752G2FFO Tail44924  16.142  19.653  16.586  0.0659 -0.0450  0.2259
 3752G2FFO Tail44925  16.200  19.891  16.668  0.0214 -0.2591  0.1723
 3752G2FFO Tail44926  16.247  20.113  16.798 -0.2510  0.3199  0.0638
 3752G2FFO Tail44927  16.298  20.269  16.969  0.1055  0.0022 -0.1296
 3752G2FFO Tail44928  16.340  18.983  16.784  0.1132 -0.4682 -0.3887
 3752G2FFO Tail44929  16.259  18.755  16.888  0.0001  0.2312 -0.1683
 3752G2FFO Tail44930  16.062  18.613  16.771 -0.0091 -0.2214 -0.0759
 3752G2FFO Tail44931  15.895  18.450  16.664 -0.1415  0.0748  0.2079
 3752G2FFO Tail44932  15.808  18.261  16.550  0.1831  0.3270  0.3436
 3753G2FFO Head44933  17.328  17.650  20.071 -0.1630  0.5109 -0.1016
 3753G2FFO Head44934  17.505  17.421  20.226 -0.3144 -0.3649  0.2541
 3753G2FFO Head44935  17.608  17.231  20.639  0.2349 -0.0522  0.0583
 3753G2FFO Head44936  17.855  17.324  20.491  0.3399 -0.1437 -0.4432
 3753G2FFO Head44937  17.843  17.388  20.152  0.3753  0.1085  0.1799
 3753G2FFO Head44938  17.781  17.942  20.743 -0.1785  0.1554 -0.1779
 3753G2FFO Head44939  17.762  17.758  20.490  0.1642 -0.3672  0.3643
 3753G2FFO Head44940  18.205  17.573  20.717 -0.0338  0.2651  0.0646
 3753G2FFO Head44941  18.212  17.799  20.499  0.3452 -0.0603 -0.4195
 3753G2FFO Head44942  17.988  17.799  20.236 -0.0777  0.0682  0.0278
 3753G2FFO link44943  17.998  17.575  20.063  0.3222 -0.3848 -0.3000
 3753G2FFO link44944  18.193  17.550  19.865 -0.3026  0.4074  0.1481
 3753G2FFO Tail44945  18.146  17.354  19.600 -0.1080  0.2634 -0.2910
 3753G2FFO Tail44946  17.871  17.147  19.723 -0.1061  0.3436 -0.0698
 3753G2FFO Tail44947  17.905  16.879  19.717 -0.0557  0.4380  0.3228
 3753G2FFO Tail44948  18.095  16.788  19.856  0.0396  0.1630 -0.2461
 3753G2FFO Tail44949  18.255  16.670  20.018 -0.2438  0.1830 -0.1786
 3753G2FFO Tail44950  18.368  16.531  20.176  0.3223  0.2953 -0.3940
 3753G2FFO Tail44951  18.402  17.110  19.650  0.0494 -0.0572  0.0079
 3753G2FFO Tail44952  18.393  16.887  19.532 -0.3430 -0.0412  0.2264
 3753G2FFO Tail44953  18.194  16.837  19.354 -0.0458 -0.1510 -0.0249
 3753G2FFO Tail44954  18.009  16.761  19.190 -0.0172 -0.0704 -0.0759
 3753G2FFO Tail44955  17.821  16.748  19.059  0.0323  0.0520  0.2201
 3754G2FFO Head44956  16.649  17.114  22.728 -0.2541  0.3319  0.2396
 3754G2FFO Head44957  16.452  16.853  22.760 -0.2543  0.0523  0.3794
 3754G2FFO Head44958  16.273  16.698  23.235  0.1148  0.0301  0.2366
 3754G2FFO Head44959  16.293  16.529  22.999 -0.4171 -0.3295  0.2943
 3754G2FFO Head44960  16.590  16.533  22.811  0.3675 -0.5198  0.0826
 3754G2FFO Head44961  16.653  16.323  23.246 -0.1331  0.1033 -0.2187
 3754G2FFO Head44962  16.859  16.190  23.032  0.4133 -0.1787 -0.1024
 3754G2FFO Head44963  16.971  15.688  22.857 -0.0305 -0.0927  0.2090
 3754G2FFO Head44964  16.753  15.880  22.729  0.0255 -0.0544 -0.0951
 3754G2FFO Head44965  16.806  16.222  22.696  0.0939  0.0274  0.0935
 3754G2FFO link44966  16.600  16.375  22.612 -0.4469  0.3227 -0.1383
 3754G2FFO link44967  16.381  16.294  22.470 -0.0182  0.0982  0.2272
 3754G2FFO Tail44968  16.269  15.982  22.493 -0.3243 -0.1721  0.0356
 3754G2FFO Tail44969  15.996  16.039  22.299  0.1120  0.4725 -0.1740
 3754G2FFO Tail44970  15.997  16.114  22.056 -0.1780  0.2785  0.3721
 3754G2FFO Tail44971  16.214  16.239  21.971 -0.2010 -0.0767  0.1851
 3754G2FFO Tail44972  16.418  16.328  21.842 -0.2539  0.0182 -0.0400
 3754G2FFO Tail44973  16.590  16.378  21.693 -0.1416 -0.1590 -0.2564
 3754G2FFO Tail44974  16.474  15.828  22.244  0.0042  0.3763  0.0127
 3754G2FFO Tail44975  16.342  15.648  22.088 -0.1513 -0.1635 -0.2822
 3754G2FFO Tail44976  16.151  15.731  21.943 -0.0620  0.0906  0.0497
 3754G2FFO Tail44977  15.986  15.788  21.761  0.1439 -0.2126 -0.0755
 3754G2FFO Tail44978  15.881  15.884  21.570  0.2724 -0.2079 -0.2066
 3755G2FFO Head44979  20.652  15.620  22.149 -0.3154 -0.1906 -0.0636
 3755G2FFO Head44980  20.621  15.890  22.051 -0.5455  0.0130 -0.2218
 3755G2FFO Head44981  20.481  15.712  22.575  0.0402 -0.0802 -0.0337
 3755G2FFO Head44982  20.497  15.997  22.465 -0.5481 -0.3000  0.3757
 3755G2FFO Head44983  20.363  16.073  22.159  0.1276 -0.2118  0.0295
 3755G2FFO Head44984  20.338  15.881  21.363 -0.3412 -0.0610 -0.1140
 3755G2FFO Head44985  20.401  15.872  21.665  0.1745 -0.2070 -0.3074
 3755G2FFO Head44986  20.326  15.398  21.604 -0.3080  0.0945 -0.1901
 3755G2FFO Head44987  20.309  15.532  21.877 -0.3046  0.1475  0.0200
 3755G2FFO Head44988  20.129  15.818  21.885 -0.3078 -0.0755 -0.1586
 3755G2FFO link44989  20.125  15.977  22.088  0.3639 -0.1654  0.3643
 3755G2FFO link44990  19.895  16.049  22.220  0.0079  0.1864  0.1339
 3755G2FFO Tail44991  19.871  16.315  22.390 -0.1757  0.2511 -0.0614
 3755G2FFO Tail44992  19.560  16.248  22.500  0.0845  0.1345  0.0034
 3755G2FFO Tail44993  19.358  16.407  22.447 -0.0335 -0.0515 -0.3373
 3755G2FFO Tail44994  19.403  16.661  22.468  0.0398 -0.1135  0.1794
 3755G2FFO Tail44995  19.495  16.899  22.474  0.0268 -0.1242 -0.0384
 3755G2FFO Tail44996  19.530  17.133  22.520 -0.0609  0.0814  0.0120
 3755G2FFO Tail44997  19.754  16.553  22.131  0.0101  0.2574  0.0347
 3755G2FFO Tail44998  19.644  16.403  21.941 -0.3881  0.1258  0.2004
 3755G2FFO Tail44999  19.481  16.215  22.006 -0.1037 -0.1109 -0.0746
 3755G2FFO Tail45000  19.295  16.042  22.023  0.1504 -0.0791  0.0355
 3755G2FFO Tail45001  19.143  15.879  21.970  0.1367 -0.0510 -0.0814
 3756G2FFO Head45002  15.913  18.864  22.006  0.1387  0.0455  0.1448
 3756G2FFO Head45003  15.612  18.810  21.860 -0.1381 -0.3038 -0.2596
 3756G2FFO Head45004  15.379  19.263  22.072 -0.3079 -0.3265  0.1499
 3756G2FFO Head45005  15.282  19.092  21.864 -0.4442 -0.0638 -0.0156
 3756G2FFO Head45006  15.486  19.015  21.600 -0.1428  0.2088  0.1806
 3756G2FFO Head45007  15.025  19.388  20.929 -0.0233  0.0670 -0.1064
 3756G2FFO Head45008  15.239  19.295  21.132 -0.0741  0.1893 -0.0724
 3756G2FFO Head45009  14.952  19.517  21.412 -0.2414  0.1053 -0.0446
 3756G2FFO Head45010  15.032  19.209  21.485  0.1304 -0.1323  0.0199
 3756G2FFO Head45011  15.221  18.988  21.279 -0.0670  0.1257 -0.1399
 3756G2FFO link45012  15.405  18.875  21.386  0.1121  0.1745 -0.2403
 3756G2FFO link45013  15.575  18.697  21.243 -0.3566  0.1355 -0.2586
 3756G2FFO Tail45014  15.432  18.446  21.071 -0.5119 -0.0514  0.3574
 3756G2FFO Tail45015  15.103  18.455  21.188  0.1960  0.2303  0.3674
 3756G2FFO Tail45016  15.012  18.269  21.342  0.0402  0.0857 -0.0184
 3756G2FFO Tail45017  14.791  18.296  21.491 -0.1589 -0.0203  0.1096
 3756G2FFO Tail45018  14.590  18.270  21.641 -0.2883  0.2065 -0.0382
 3756G2FFO Tail45019  14.397  18.317  21.784 -0.0990  0.1191  0.2356
 3756G2FFO Tail45020  15.540  18.161  21.249 -0.2848 -0.1454  0.2108
 3756G2FFO Tail45021  15.553  18.200  21.510  0.3156  0.1660  0.3106
 3756G2FFO Tail45022  15.397  18.382  21.607 -0.2099  0.0185 -0.1643
 3756G2FFO Tail45023  15.259  18.598  21.658 -0.2214 -0.1496  0.1019
 3756G2FFO Tail45024  15.094  18.762  21.707 -0.0212 -0.1058  0.1535
 3757G2FFO Head45025  17.509  17.401  23.005 -0.0764  0.0390  0.0481
 3757G2FFO Head45026  17.557  17.144  22.873 -0.1227 -0.0587 -0.0577
 3757G2FFO Head45027  17.948  17.176  23.365 -0.2066 -0.1271 -0.0377
 3757G2FFO Head45028  17.922  17.280  23.047  0.2537 -0.2333  0.1542
 3757G2FFO Head45029  17.896  17.041  22.798 -0.0479  0.4190  0.2490
 3757G2FFO Head45030  17.715  17.791  22.721  0.0312 -0.1619 -0.0992
 3757G2FFO Head45031  17.979  17.612  22.622  0.1884  0.0609 -0.0248
 3757G2FFO Head45032  17.335  17.160  22.501 -0.1185 -0.0063 -0.1335
 3757G2FFO Head45033  17.574  17.408  22.449 -0.1852  0.4201  0.1171
 3757G2FFO Head45034  17.914  17.305  22.466 -0.3290  0.1966  0.4751
 3757G2FFO link45035  18.009  17.078  22.576  0.2548 -0.1203  0.0364
 3757G2FFO link45036  18.142  16.856  22.449  0.0375 -0.0050  0.1179
 3757G2FFO Tail45037  17.995  16.568  22.382 -0.1727  0.1046  0.1799
 3757G2FFO Tail45038  18.244  16.368  22.506 -0.1387  0.1388 -0.0518
 3757G2FFO Tail45039  18.379  16.230  22.342  0.2901  0.1662 -0.0727
 3757G2FFO Tail45040  18.263  16.093  22.157  0.0998  0.3523  0.0713
 3757G2FFO Tail45041  18.136  15.991  21.958 -0.0548  0.1766 -0.2401
 3757G2FFO Tail45042  17.967  15.899  21.833  0.0672  0.2380  0.1496
 3757G2FFO Tail45043  18.079  16.525  22.042  0.0800 -0.2481  0.0389
 3757G2FFO Tail45044  17.884  16.527  21.865  0.2022 -0.1284 -0.0860
 3757G2FFO Tail45045  17.865  16.330  21.693 -0.1632  0.0462 -0.0295
 3757G2FFO Tail45046  17.797  16.157  21.524  0.2193 -0.0013  0.3077
 3757G2FFO Tail45047  17.747  16.033  21.323  0.0839 -0.2553 -0.1666
 3758G2FFO Head45048  15.194  17.423  20.092  0.0217 -0.2445 -0.0587
 3758G2FFO Head45049  15.102  17.487  19.777  0.2637  0.0435 -0.0634
 3758G2FFO Head45050  14.583  17.480  20.070 -0.1039  0.1617  0.0183
 3758G2FFO Head45051  14.623  17.624  19.775 -0.1425 -0.0716  0.0107
 3758G2FFO Head45052  14.932  17.788  19.690  0.4187  0.1933  0.3874
 3758G2FFO Head45053  15.033  17.118  19.285  0.2233 -0.1522  0.0162
 3758G2FFO Head45054  14.901  17.370  19.428  0.2054  0.4544  0.1897
 3758G2FFO Head45055  14.401  17.769  19.440  0.0979  0.0849  0.2725
 3758G2FFO Head45056  14.577  17.612  19.289 -0.1484  0.0072  0.4511
 3758G2FFO Head45057  14.920  17.699  19.286 -0.2250  0.2928  0.4643
 3758G2FFO link45058  14.988  17.896  19.444 -0.2778  0.4185  0.0220
 3758G2FFO link45059  15.198  18.090  19.405  0.1802 -0.3040  0.3294
 3758G2FFO Tail45060  15.215  18.382  19.535  0.0631 -0.2665 -0.1503
 3758G2FFO Tail45061  15.486  18.301  19.767  0.1004 -0.0378  0.2538
 3758G2FFO Tail45062  15.661  18.110  19.705  0.3749 -0.1121 -0.0596
 3758G2FFO Tail45063  15.678  18.042  19.452  0.2158 -0.1927 -0.1920
 3758G2FFO Tail45064  15.719  17.952  19.216  0.0206  0.0580 -0.0344
 3758G2FFO Tail45065  15.744  17.798  19.034 -0.0952  0.0788  0.2982
 3758G2FFO Tail45066  14.938  18.378  19.742  0.6727  0.0077  0.1255
 3758G2FFO Tail45067  14.907  18.187  19.930 -0.1412 -0.1078 -0.0331
 3758G2FFO Tail45068  15.107  18.167  20.106  0.0031 -0.3032  0.0834
 3758G2FFO Tail45069  15.314  18.144  20.245 -0.0900 -0.0085 -0.0705
 3758G2FFO Tail45070  15.508  18.176  20.369  0.0172 -0.0428 -0.0397
 3759G2FFO Head45071  13.880  16.964  19.866 -0.0600  0.3358  0.0229
 3759G2FFO Head45072  13.940  16.684  19.811  0.3597 -0.1248 -0.0665
 3759G2FFO Head45073  13.755  16.973  19.380  0.2104 -0.0430  0.3355
 3759G2FFO Head45074  14.079  16.916  19.434 -0.0664 -0.1456  0.0338
 3759G2FFO Head45075  14.183  16.611  19.569 -0.2012 -0.0002 -0.0780
 3759G2FFO Head45076  13.862  16.276  19.655  0.1680  0.2691 -0.1298
 3759G2FFO Head45077  14.127  16.179  19.826  0.3812 -0.1583 -0.0271
 3759G2FFO Head45078  14.851  16.036  19.840 -0.0983  0.1166 -0.1854
 3759G2FFO Head45079  14.568  16.050  19.800  0.4512  0.1221 -0.2465
 3759G2FFO Head45080  14.420  16.364  19.821  0.3603  0.6983  0.3288
 3759G2FFO link45081  14.434  16.557  19.623  0.1005  0.1388 -0.3429
 3759G2FFO link45082  14.671  16.701  19.557 -0.3073  0.0555  0.3341
 3759G2FFO Tail45083  14.634  16.920  19.317  0.0172  0.3262  0.1794
 3759G2FFO Tail45084  14.353  16.787  19.145 -0.1426 -0.0318  0.0395
 3759G2FFO Tail45085  14.296  16.527  19.157  0.2962  0.0491  0.0017
 3759G2FFO Tail45086  14.332  16.379  18.942  0.0167 -0.1584  0.2442
 3759G2FFO Tail45087  14.385  16.275  18.720 -0.0573  0.0117  0.1144
 3759G2FFO Tail45088  14.485  16.156  18.544  0.2398 -0.0661  0.2118
 3759G2FFO Tail45089  14.458  17.161  19.473 -0.2664 -0.4558 -0.1093
 3759G2FFO Tail45090  14.460  17.194  19.728  0.1094 -0.2503  0.2214
 3759G2FFO Tail45091  14.378  17.000  19.873 -0.0268  0.1709  0.1096
 3759G2FFO Tail45092  14.343  16.792  20.003  0.1482  0.2475 -0.0115
 3759G2FFO Tail45093  14.251  16.620  20.145  0.1481  0.0533  0.1691
 3760G2FFO Head45094  14.903  19.858  19.803 -0.3184 -0.3827  0.2495
 3760G2FFO Head45095  14.789  19.682  19.539 -0.1882  0.0336 -0.3049
 3760G2FFO Head45096  14.642  19.401  19.876 -0.1471 -0.0345  0.0787
 3760G2FFO Head45097  14.883  19.303  19.743  0.3710  0.1117 -0.0289
 3760G2FFO Head45098  14.983  19.421  19.440 -0.2545  0.0367 -0.3674
 3760G2FFO Head45099  14.479  19.936  18.898 -0.0172  0.4582  0.0899
 3760G2FFO Head45100  14.559  19.659  19.086  0.0954 -0.0892  0.0498
 3760G2FFO Head45101  14.340  19.469  18.736 -0.3619 -0.0479 -0.2296
 3760G2FFO Head45102  14.658  19.382  18.771  0.2076  0.2600 -0.2071
 3760G2FFO Head45103  14.871  19.490  19.035 -0.0569 -0.0806 -0.3525
 3760G2FFO link45104  14.946  19.303  19.212 -0.2207 -0.0764  0.1720
 3760G2FFO link45105  14.954  19.028  19.158  0.3004  0.3220  0.0339
 3760G2FFO Tail45106  14.739  18.794  19.243 -0.2452 -0.0333 -0.5938
 3760G2FFO Tail45107  14.708  18.839  19.601 -0.1930  0.0248 -0.0707
 3760G2FFO Tail45108  14.534  19.012  19.704 -0.1789  0.4582  0.1613
 3760G2FFO Tail45109  14.432  18.942  19.936  0.0474 -0.0323  0.0762
 3760G2FFO Tail45110  14.344  18.916  20.165 -0.1346 -0.2109 -0.0819
 3760G2FFO Tail45111  14.273  18.846  20.372 -0.1391 -0.1178 -0.0613
 3760G2FFO Tail45112  14.965  18.519  19.217  0.1985 -0.0865 -0.1784
 3760G2FFO Tail45113  14.943  18.328  19.038  0.1988  0.0066  0.2312
 3760G2FFO Tail45114  14.732  18.180  19.031  0.1490 -0.0399  0.1600
 3760G2FFO Tail45115  14.511  18.055  19.057 -0.0658 -0.0072 -0.0774
 3760G2FFO Tail45116  14.279  17.990  19.060 -0.3724 -0.0217  0.1859
 3761G2FFO Head45117  21.096  15.280  18.782  0.0364  0.0839  0.2993
 3761G2FFO Head45118  20.974  15.549  18.679  0.1913  0.2068  0.0971
 3761G2FFO Head45119  20.591  15.739  19.253 -0.1235 -0.2412  0.2298
 3761G2FFO Head45120  20.811  15.633  19.113  0.0915 -0.1088 -0.4503
 3761G2FFO Head45121  20.938  15.827  18.865  0.1018 -0.2555 -0.1140
 3761G2FFO Head45122  20.791  15.485  18.306 -0.1076 -0.2671 -0.4906
 3761G2FFO Head45123  20.666  15.712  18.350  0.2986 -0.4016  0.2682
 3761G2FFO Head45124  21.134  15.745  18.071  0.1543 -0.1486 -0.0560
 3761G2FFO Head45125  21.136  15.914  18.333  0.0633 -0.1448  0.3073
 3761G2FFO Head45126  20.821  15.989  18.513 -0.2870  0.3604 -0.1307
 3761G2FFO link45127  20.811  16.034  18.783  0.2481  0.2355 -0.2178
 3761G2FFO link45128  20.778  16.284  18.916 -0.0562 -0.0278  0.2769
 3761G2FFO Tail45129  20.630  16.549  18.762  0.1543  0.4039  0.0064
 3761G2FFO Tail45130  20.311  16.438  18.668 -0.0840 -0.2754  0.1773
 3761G2FFO Tail45131  20.207  16.208  18.745  0.4052 -0.0013  0.0832
 3761G2FFO Tail45132  20.349  15.991  18.761 -0.0765  0.0484  0.0543
 3761G2FFO Tail45133  20.469  15.768  18.747 -0.0117  0.0639  0.2620
 3761G2FFO Tail45134  20.525  15.535  18.724 -0.1585 -0.1870 -0.1502
 3761G2FFO Tail45135  20.550  16.761  19.056 -0.1857  0.3262  0.3025
 3761G2FFO Tail45136  20.327  16.920  19.056  0.1123 -0.0140 -0.1412
 3761G2FFO Tail45137  20.122  16.817  18.923 -0.1747 -0.0406 -0.2428
 3761G2FFO Tail45138  19.902  16.777  18.798 -0.1420  0.0606  0.2172
 3761G2FFO Tail45139  19.682  16.746  18.737 -0.2121  0.0402  0.0291
 3762G2FFO Head45140  15.908  17.488  18.603 -0.0397  0.0723 -0.0123
 3762G2FFO Head45141  15.681  17.429  18.788  0.1673 -0.2453 -0.0959
 3762G2FFO Head45142  15.635  17.088  18.459  0.3295 -0.1035  0.1653
 3762G2FFO Head45143  15.461  17.348  18.427 -0.0141  0.2262  0.0973
 3762G2FFO Head45144  15.337  17.485  18.720  0.1292  0.3642 -0.0224
 3762G2FFO Head45145  15.759  16.735  18.887  0.1263 -0.0393 -0.1242
 3762G2FFO Head45146  15.631  17.032  18.879 -0.1020 -0.3957  0.7355
 3762G2FFO Head45147  15.430  16.786  19.227  0.0266 -0.3869  0.1873
 3762G2FFO Head45148  15.241  16.840  19.021  0.1957  0.0804 -0.0957
 3762G2FFO Head45149  15.291  17.099  18.810 -0.1926 -0.0292 -0.4394
 3762G2FFO link45150  15.172  17.335  18.855 -0.0688 -0.5135  0.2570
 3762G2FFO link45151  14.926  17.404  18.948 -0.1056  0.0653 -0.0323
 3762G2FFO Tail45152  14.771  17.687  18.879 -0.7023 -0.1393 -0.1389
 3762G2FFO Tail45153  14.665  17.608  18.577 -0.1662 -0.1715  0.1912
 3762G2FFO Tail45154  14.468  17.750  18.475  0.1080  0.3145 -0.2149
 3762G2FFO Tail45155  14.397  17.983  18.561 -0.2569 -0.0196  0.0356
 3762G2FFO Tail45156  14.281  18.190  18.649  0.0065  0.0305 -0.2155
 3762G2FFO Tail45157  14.206  18.347  18.801  0.0932 -0.1978 -0.3007
 3762G2FFO Tail45158  15.072  17.889  18.837  0.0413 -0.0416  0.3950
 3762G2FFO Tail45159  15.252  17.890  19.037  0.0892 -0.0697  0.0462
 3762G2FFO Tail45160  15.311  17.658  19.135  0.0655 -0.0730  0.2061
 3762G2FFO Tail45161  15.395  17.431  19.185  0.1538 -0.1512  0.0719
 3762G2FFO Tail45162  15.509  17.243  19.270  0.1231  0.2089 -0.3907
 3763G2FFO Head45163  19.195  14.165  19.363  0.2505  0.3123  0.0915
 3763G2FFO Head45164  19.037  13.958  19.229 -0.2259 -0.1467 -0.2244
 3763G2FFO Head45165  19.474  14.171  18.855  0.1754 -0.0719 -0.1348
 3763G2FFO Head45166  19.185  14.266  18.903  0.2061  0.1174  0.1570
 3763G2FFO Head45167  18.927  14.039  18.905 -0.1401  0.2195 -0.4883
 3763G2FFO Head45168  18.025  14.031  18.908  0.0004 -0.0166 -0.1264
 3763G2FFO Head45169  18.229  14.058  19.172 -0.0826 -0.0294  0.1260
 3763G2FFO Head45170  18.456  13.771  19.547 -0.0450  0.4217 -0.1757
 3763G2FFO Head45171  18.654  13.973  19.397 -0.4686 -0.0288 -0.1192
 3763G2FFO Head45172  18.560  14.157  19.112  0.2100  0.1465  0.0579
 3763G2FFO link45173  18.671  14.116  18.879  0.1092 -0.1009 -0.4319
 3763G2FFO link45174  18.545  14.142  18.625  0.2942 -0.1779 -0.3290
 3763G2FFO Tail45175  18.732  14.237  18.360  0.6101 -0.0924  0.2006
 3763G2FFO Tail45176  19.058  14.189  18.450 -0.0201  0.2567 -0.0486
 3763G2FFO Tail45177  19.244  14.372  18.395  0.0291 -0.2164  0.0491
 3763G2FFO Tail45178  19.262  14.585  18.535  0.0405 -0.0882 -0.0145
 3763G2FFO Tail45179  19.283  14.829  18.621  0.1073  0.2047 -0.1244
 3763G2FFO Tail45180  19.264  15.067  18.649  0.3454  0.2701  0.0313
 3763G2FFO Tail45181  18.698  14.564  18.382 -0.1588 -0.1740 -0.0655
 3763G2FFO Tail45182  18.840  14.702  18.564  0.2494 -0.0070 -0.0331
 3763G2FFO Tail45183  18.832  14.595  18.807  0.0147 -0.0873 -0.0322
 3763G2FFO Tail45184  18.852  14.522  19.058  0.0778  0.0468  0.2077
 3763G2FFO Tail45185  18.875  14.394  19.253 -0.0950 -0.0470  0.0051
 3764G2FFO Head45186  16.205  17.272  20.381 -0.2000 -0.0228 -0.0200
 3764G2FFO Head45187  16.308  17.014  20.176  0.1892 -0.3047 -0.2271
 3764G2FFO Head45188  16.592  16.653  19.789  0.2416 -0.2224  0.3702
 3764G2FFO Head45189  16.333  16.841  19.788  0.2237 -0.3131 -0.1092
 3764G2FFO Head45190  16.091  16.786  20.031 -0.2145 -0.1138  0.2228
 3764G2FFO Head45191  15.609  16.982  20.127 -0.0709 -0.3188  0.0350
 3764G2FFO Head45192  15.574  16.699  20.091 -0.1845 -0.0870 -0.3715
 3764G2FFO Head45193  15.418  16.547  20.475 -0.4118  0.0671  0.1695
 3764G2FFO Head45194  15.658  16.364  20.372  0.1576 -0.3389 -0.2057
 3764G2FFO Head45195  15.834  16.468  20.096 -0.2818 -0.1046  0.2634
 3764G2FFO link45196  16.091  16.539  20.132  0.3186  0.1149 -0.1429
 3764G2FFO link45197  16.316  16.355  20.123 -0.0554 -0.0652  0.2537
 3764G2FFO Tail45198  16.465  16.296  20.410  0.0212 -0.1921  0.0214
 3764G2FFO Tail45199  16.545  15.975  20.378 -0.0122  0.3245 -0.2094
 3764G2FFO Tail45200  16.570  15.826  20.593  0.0524  0.3313 -0.2934
 3764G2FFO Tail45201  16.420  15.875  20.794  0.0511 -0.0759 -0.1899
 3764G2FFO Tail45202  16.265  15.967  20.971  0.1132 -0.2258 -0.1435
 3764G2FFO Tail45203  16.090  16.009  21.119 -0.3201  0.0783  0.0255
 3764G2FFO Tail45204  16.184  16.273  20.603  0.0448 -0.1951  0.1713
 3764G2FFO Tail45205  16.061  16.466  20.747 -0.0819  0.0729  0.0499
 3764G2FFO Tail45206  16.102  16.460  21.011  0.1537  0.3918 -0.0404
 3764G2FFO Tail45207  16.103  16.482  21.262  0.1334  0.1385  0.1234
 3764G2FFO Tail45208  16.125  16.539  21.486  0.0512 -0.1085  0.1438
 3765G2FFO Head45209  17.356  15.847  18.766 -0.0496 -0.2294 -0.3556
 3765G2FFO Head45210  17.565  15.745  18.968  0.1517 -0.2237  0.0661
 3765G2FFO Head45211  17.958  16.254  18.799  0.0321 -0.0288 -0.1803
 3765G2FFO Head45212  17.721  16.131  18.880  0.5810 -0.1354  0.0709
 3765G2FFO Head45213  17.727  15.966  19.182 -0.3090  0.2329  0.2856
 3765G2FFO Head45214  17.492  15.462  19.317  0.2926 -0.0682 -0.0882
 3765G2FFO Head45215  17.797  15.437  19.187 -0.1341  0.4822  0.4084
 3765G2FFO Head45216  18.172  15.785  18.629  0.1401  0.1431 -0.2278
 3765G2FFO Head45217  18.000  15.638  18.843  0.1370 -0.2753  0.1869
 3765G2FFO Head45218  18.018  15.711  19.201 -0.1300  0.0996 -0.0003
 3765G2FFO link45219  17.948  15.925  19.309 -0.1848 -0.1694  0.0916
 3765G2FFO link45220  17.985  15.981  19.596 -0.2664  0.0307  0.0988
 3765G2FFO Tail45221  17.834  15.772  19.808 -0.5170 -0.0136  0.0414
 3765G2FFO Tail45222  18.073  15.764  20.040  0.1598  0.0895  0.0644
 3765G2FFO Tail45223  18.238  15.962  20.055  0.0052 -0.5439  0.0418
 3765G2FFO Tail45224  18.491  15.906  20.031 -0.1755 -0.0317  0.0895
 3765G2FFO Tail45225  18.741  15.866  19.975  0.1761 -0.2086  0.1584
 3765G2FFO Tail45226  18.962  15.804  19.979  0.0233 -0.1970 -0.3056
 3765G2FFO Tail45227  17.585  16.010  19.906  0.1230  0.1775  0.1226
 3765G2FFO Tail45228  17.459  16.025  20.139  0.0794  0.2093 -0.1311
 3765G2FFO Tail45229  17.199  16.072  20.132  0.0148  0.3089 -0.0244
 3765G2FFO Tail45230  16.962  16.149  20.109  0.3321 -0.0789  0.3441
 3765G2FFO Tail45231  16.757  16.256  20.061 -0.1064 -0.0888  0.2790
 3766G2FFO Head45232  19.932  19.987  17.565 -0.2534 -0.2621 -0.1656
 3766G2FFO Head45233  19.636  20.003  17.689 -0.2751 -0.0212  0.0269
 3766G2FFO Head45234  19.590  20.362  17.214 -0.2945  0.1650 -0.2367
 3766G2FFO Head45235  19.364  20.242  17.467 -0.0251  0.3176  0.3570
 3766G2FFO Head45236  19.339  19.908  17.524 -0.1011 -0.0061 -0.2620
 3766G2FFO Head45237  18.703  20.257  18.231  0.0127 -0.4008 -0.1710
 3766G2FFO Head45238  18.905  20.005  18.122  0.0033 -0.1321 -0.5193
 3766G2FFO Head45239  19.063  20.570  17.595 -0.1770 -0.0418 -0.2542
 3766G2FFO Head45240  18.914  20.303  17.754  0.2516  0.0658  0.0513
 3766G2FFO Head45241  19.105  20.028  17.829  0.0696  0.1071  0.1091
 3766G2FFO link45242  19.144  19.833  17.668  0.0184  0.5412  0.1352
 3766G2FFO link45243  19.097  19.560  17.740 -0.2123 -0.1525  0.0534
 3766G2FFO Tail45244  19.087  19.449  18.040  0.1395  0.0479  0.0578
 3766G2FFO Tail45245  19.004  19.126  17.956 -0.3772 -0.0009 -0.4959
 3766G2FFO Tail45246  19.121  18.899  18.043 -0.1352 -0.0247  0.0107
 3766G2FFO Tail45247  19.025  18.679  17.943 -0.1842  0.1744 -0.0017
 3766G2FFO Tail45248  18.942  18.447  17.879  0.1322 -0.0733 -0.1433
 3766G2FFO Tail45249  18.887  18.242  17.774  0.2146  0.4928  0.3196
 3766G2FFO Tail45250  18.768  19.583  18.133  0.4718 -0.0194  0.1596
 3766G2FFO Tail45251  18.555  19.435  18.146  0.2208 -0.1188  0.0044
 3766G2FFO Tail45252  18.581  19.169  18.170  0.0370  0.1330  0.1069
 3766G2FFO Tail45253  18.574  18.917  18.195 -0.0255 -0.0592 -0.0201
 3766G2FFO Tail45254  18.613  18.686  18.153  0.3421  0.0592 -0.1853
 3767G2FFO Head45255  18.973  15.008  19.908 -0.3397 -0.4226 -0.0101
 3767G2FFO Head45256  18.994  15.004  19.581 -0.3323 -0.1033 -0.4644
 3767G2FFO Head45257  18.665  14.644  19.937  0.0525 -0.1532 -0.0494
 3767G2FFO Head45258  18.628  14.839  19.712  0.1726 -0.2135  0.4881
 3767G2FFO Head45259  18.791  14.802  19.408  0.2790  0.4425  0.1807
 3767G2FFO Head45260  18.190  14.715  19.677  0.1141 -0.1213  0.1320
 3767G2FFO Head45261  18.240  14.902  19.452  0.2287  0.0779 -0.1286
 3767G2FFO Head45262  18.514  14.364  19.557 -0.0931 -0.0806  0.1676
 3767G2FFO Head45263  18.326  14.511  19.313  0.3007 -0.1117  0.1648
 3767G2FFO Head45264  18.437  14.806  19.178  0.0509 -0.1350 -0.3496
 3767G2FFO link45265  18.685  14.879  19.188 -0.5031  0.0634 -0.4664
 3767G2FFO link45266  18.809  15.053  18.997  0.1029 -0.0906 -0.2298
 3767G2FFO Tail45267  18.636  15.206  18.768 -0.4246 -0.2378 -0.2583
 3767G2FFO Tail45268  18.420  14.933  18.713  0.0323  0.2122 -0.1005
 3767G2FFO Tail45269  18.307  14.883  18.479 -0.0474 -0.0025  0.0841
 3767G2FFO Tail45270  18.175  14.667  18.448  0.0010  0.0224 -0.1196
 3767G2FFO Tail45271  18.008  14.475  18.451 -0.2724  0.1368  0.1906
 3767G2FFO Tail45272  17.864  14.308  18.508 -0.0017  0.4956 -0.3131
 3767G2FFO Tail45273  18.838  15.135  18.501 -0.1762 -0.0835  0.2242
 3767G2FFO Tail45274  18.784  15.026  18.257 -0.0842 -0.2796  0.0698
 3767G2FFO Tail45275  18.981  14.893  18.142  0.2722 -0.0129  0.1061
 3767G2FFO Tail45276  19.180  14.754  18.079  0.3519  0.0351  0.0671
 3767G2FFO Tail45277  19.392  14.686  18.026 -0.1421  0.0692 -0.2524
 3768G2FFO Head45278  14.844  17.223  20.725 -0.3569  0.1008  0.1984
 3768G2FFO Head45279  14.643  17.422  20.835 -0.0201  0.3690 -0.2676
 3768G2FFO Head45280  14.162  17.270  20.710 -0.0737 -0.2899  0.1423
 3768G2FFO Head45281  14.387  17.384  20.513 -0.1926 -0.1033  0.0865
 3768G2FFO Head45282  14.540  17.677  20.624 -0.2742  0.2778 -0.1545
 3768G2FFO Head45283  13.901  18.075  21.158  0.0370 -0.0897 -0.3060
 3768G2FFO Head45284  14.019  17.798  21.163 -0.0855 -0.0587  0.0599
 3768G2FFO Head45285  14.415  17.199  21.162 -0.0402  0.0130  0.3173
 3768G2FFO Head45286  14.387  17.509  21.187  0.0441 -0.1983  0.0894
 3768G2FFO Head45287  14.245  17.682  20.911 -0.0512  0.0294 -0.0610
 3768G2FFO link45288  14.392  17.846  20.740 -0.1638 -0.2537  0.1120
 3768G2FFO link45289  14.474  18.122  20.806 -0.2725  0.0209  0.0754
 3768G2FFO Tail45290  14.701  18.168  21.037  0.4535 -0.1559  0.5731
 3768G2FFO Tail45291  14.806  17.842  21.070 -0.0848  0.3720  0.2656
 3768G2FFO Tail45292  15.002  17.735  20.924  0.1810 -0.3242 -0.2300
 3768G2FFO Tail45293  14.992  17.757  20.672  0.0209 -0.0859  0.3577
 3768G2FFO Tail45294  14.977  17.730  20.410  0.1749  0.1343  0.0519
 3768G2FFO Tail45295  14.948  17.757  20.173  0.0923 -0.1813 -0.1252
 3768G2FFO Tail45296  14.932  18.257  20.799 -0.2686  0.0014 -0.1308
 3768G2FFO Tail45297  14.962  18.194  20.542 -0.1302  0.1378 -0.2350
 3768G2FFO Tail45298  14.749  18.144  20.412 -0.0892  0.3130 -0.1301
 3768G2FFO Tail45299  14.557  18.082  20.253  0.0991 -0.0390  0.1218
 3768G2FFO Tail45300  14.357  18.095  20.140  0.0918 -0.0180  0.1035
 3769G2FFO Head45301  15.322  16.810  17.421  0.3366 -0.4424  0.2333
 3769G2FFO Head45302  15.609  16.713  17.355 -0.1507 -0.2021 -0.2926
 3769G2FFO Head45303  15.261  16.381  17.644  0.0726 -0.4223  0.1876
 3769G2FFO Head45304  15.505  16.356  17.501 -0.1179  0.0459  0.2852
 3769G2FFO Head45305  15.792  16.529  17.568  0.1011  0.1730  0.0084
 3769G2FFO Head45306  15.495  15.949  17.627  0.1138 -0.2167 -0.2962
 3769G2FFO Head45307  15.743  15.964  17.461 -0.4623  0.0427  0.0684
 3769G2FFO Head45308  15.826  15.777  17.973 -0.3913  0.2100  0.1684
 3769G2FFO Head45309  16.005  16.041  17.890 -0.1563 -0.1913  0.3831
 3769G2FFO Head45310  16.011  16.172  17.565  0.2794  0.3603  0.3254
 3769G2FFO link45311  16.025  16.417  17.517  0.5397 -0.5120 -0.0841
 3769G2FFO link45312  16.197  16.533  17.332 -0.3805  0.1175 -0.1658
 3769G2FFO Tail45313  16.427  16.349  17.179  0.2685 -0.0539 -0.2229
 3769G2FFO Tail45314  16.708  16.433  17.411  0.0063  0.0729  0.0529
 3769G2FFO Tail45315  16.670  16.464  17.667  0.1823  0.2422  0.1694
 3769G2FFO Tail45316  16.422  16.507  17.764 -0.0874 -0.4715 -0.0391
 3769G2FFO Tail45317  16.207  16.515  17.897  0.1201 -0.3522 -0.0578
 3769G2FFO Tail45318  15.986  16.534  17.966  0.0227  0.0995 -0.1014
 3769G2FFO Tail45319  16.532  16.556  16.886 -0.3007  0.0178 -0.0641
 3769G2FFO Tail45320  16.772  16.655  16.931  0.0344  0.2890 -0.0758
 3769G2FFO Tail45321  16.881  16.772  16.733 -0.1549  0.0139 -0.0966
 3769G2FFO Tail45322  16.972  16.883  16.516 -0.1975  0.2094  0.0922
 3769G2FFO Tail45323  17.099  16.942  16.338  0.2031 -0.1219  0.0027
 3770G2FFO Head45324  20.222  17.407  17.275 -0.1642  0.0889  0.1048
 3770G2FFO Head45325  20.134  17.686  17.230  0.0877 -0.0379  0.0384
 3770G2FFO Head45326  19.800  17.981  17.066 -0.0399  0.3710 -0.2656
 3770G2FFO Head45327  20.076  18.148  17.156 -0.3997  0.0617 -0.6098
 3770G2FFO Head45328  20.361  17.956  17.225 -0.0826  0.3957  0.0808
 3770G2FFO Head45329  20.602  18.710  17.193 -0.2385  0.2664  0.2816
 3770G2FFO Head45330  20.409  18.497  17.230  0.3949  0.0145  0.0148
 3770G2FFO Head45331  20.957  18.396  17.421  0.0942 -0.1718 -0.1867
 3770G2FFO Head45332  20.707  18.481  17.581  0.3256  0.1841  0.1390
 3770G2FFO Head45333  20.426  18.282  17.496 -0.0577 -0.0758  0.1831
 3770G2FFO link45334  20.470  18.004  17.457  0.3804 -0.7495  0.0150
 3770G2FFO link45335  20.711  17.881  17.545  0.1516  0.1115 -0.3424
 3770G2FFO Tail45336  20.747  17.818  17.870 -0.2160 -0.1303  0.0874
 3770G2FFO Tail45337  20.449  17.632  17.932 -0.1268  0.0990 -0.0028
 3770G2FFO Tail45338  20.294  17.608  17.725  0.2764 -0.1006  0.1469
 3770G2FFO Tail45339  20.052  17.514  17.770  0.2328 -0.1808 -0.0539
 3770G2FFO Tail45340  19.818  17.438  17.841  0.0063 -0.0139  0.1593
 3770G2FFO Tail45341  19.620  17.318  17.858  0.1380  0.0819  0.0715
 3770G2FFO Tail45342  20.642  18.109  17.988 -0.0510  0.1143  0.3175
 3770G2FFO Tail45343  20.376  18.134  18.015 -0.0223  0.2587 -0.4739
 3770G2FFO Tail45344  20.203  18.063  17.831 -0.0765  0.1038 -0.0469
 3770G2FFO Tail45345  20.042  17.985  17.650 -0.0072  0.1578  0.0194
 3770G2FFO Tail45346  19.857  17.925  17.522  0.1277  0.0907 -0.1821
 3771G2FFO Head45347  13.072  17.347  18.836 -0.1803 -0.1050  0.0950
 3771G2FFO Head45348  13.087  17.532  18.590  0.4990 -0.2932  0.0073
 3771G2FFO Head45349  12.875  17.890  18.372  0.1985  0.2589 -0.0160
 3771G2FFO Head45350  13.167  17.840  18.273  0.0152 -0.0227  0.0499
 3771G2FFO Head45351  13.379  17.599  18.421 -0.6738 -0.3820  0.3741
 3771G2FFO Head45352  12.798  17.091  18.473  0.0119  0.0522 -0.0703
 3771G2FFO Head45353  13.083  17.044  18.336  0.5618  0.5678 -0.0083
 3771G2FFO Head45354  13.117  16.764  17.961 -0.1021 -0.1590  0.0703
 3771G2FFO Head45355  13.240  17.037  17.916 -0.0864 -0.3825 -0.1909
 3771G2FFO Head45356  13.240  17.284  18.160  0.1959  0.3397  0.4201
 3771G2FFO link45357  13.457  17.397  18.261 -0.0538  0.0755 -0.0914
 3771G2FFO link45358  13.722  17.358  18.188  0.2046  0.2887 -0.1120
 3771G2FFO Tail45359  13.950  17.607  18.181  0.2071  0.0170 -0.0016
 3771G2FFO Tail45360  13.840  17.766  18.461 -0.0938  0.0196  0.0800
 3771G2FFO Tail45361  13.992  17.818  18.667 -0.1134  0.2040  0.2974
 3771G2FFO Tail45362  14.137  17.632  18.764 -0.0258  0.3415 -0.1310
 3771G2FFO Tail45363  14.306  17.484  18.893 -0.1095 -0.1716  0.0051
 3771G2FFO Tail45364  14.408  17.319  19.020  0.2470 -0.2161 -0.0493
 3771G2FFO Tail45365  14.211  17.441  18.286  0.1281 -0.2982  0.1658
 3771G2FFO Tail45366  14.192  17.206  18.400  0.1036  0.1028  0.1071
 3771G2FFO Tail45367  14.403  17.114  18.518  0.0270 -0.0831  0.0096
 3771G2FFO Tail45368  14.587  17.058  18.679  0.0189 -0.0851 -0.1858
 3771G2FFO Tail45369  14.701  17.033  18.884  0.0004 -0.2654 -0.1226
 3772G2FFO Head45370  18.500  17.773  22.582  0.4978 -0.2183  0.2790
 3772G2FFO Head45371  18.358  17.583  22.424  0.0470  0.3537 -0.1623
 3772G2FFO Head45372  18.681  18.014  21.956  0.0023  0.4291  0.1024
 3772G2FFO Head45373  18.597  17.822  22.153  0.1788  0.3042  0.1448
 3772G2FFO Head45374  18.333  17.601  22.074 -0.2255  0.3901  0.4841
 3772G2FFO Head45375  18.510  18.102  21.384  0.3378  0.0660 -0.1045
 3772G2FFO Head45376  18.468  17.859  21.608 -0.4064 -0.2781 -0.1932
 3772G2FFO Head45377  18.562  17.494  21.335  0.0754 -0.0237 -0.2045
 3772G2FFO Head45378  18.323  17.442  21.522 -0.5298 -0.0528  0.2343
 3772G2FFO Head45379  18.161  17.706  21.697  0.1132 -0.0224  0.2932
 3772G2FFO link45380  18.113  17.659  21.950  0.0852  0.0540 -0.3288
 3772G2FFO link45381  17.860  17.655  22.066 -0.0634  0.2098  0.0521
 3772G2FFO Tail45382  17.752  17.894  22.267  0.8679  0.1027  0.2680
 3772G2FFO Tail45383  17.661  18.132  22.046  0.1524 -0.0235  0.0940
 3772G2FFO Tail45384  17.741  18.129  21.802  0.2885  0.2119 -0.2095
 3772G2FFO Tail45385  17.716  17.901  21.676  0.1178 -0.0293 -0.2699
 3772G2FFO Tail45386  17.722  17.683  21.544  0.0993  0.0117  0.2070
 3772G2FFO Tail45387  17.804  17.507  21.411  0.2919 -0.0256  0.0445
 3772G2FFO Tail45388  18.058  18.021  22.362 -0.1565  0.1750  0.1075
 3772G2FFO Tail45389  18.257  18.057  22.189  0.1539  0.1446  0.1704
 3772G2FFO Tail45390  18.185  18.107  21.936 -0.0070 -0.2186  0.2859
 3772G2FFO Tail45391  18.162  18.153  21.691 -0.0037 -0.1388  0.2602
 3772G2FFO Tail45392  18.079  18.198  21.481 -0.1315 -0.1981  0.0485
 3773G2FFO Head45393  13.573  19.418  19.390  0.0870 -0.0507 -0.1207
 3773G2FFO Head45394  13.540  19.161  19.553  0.0746 -0.1073 -0.0662
 3773G2FFO Head45395  13.331  18.824  19.833  0.0771  0.1026  0.1731
 3773G2FFO Head45396  13.582  18.740  19.701  0.2268 -0.3216  0.1562
 3773G2FFO Head45397  13.641  18.857  19.396 -0.0868  0.1861 -0.0415
 3773G2FFO Head45398  14.557  19.268  19.342  0.0190 -0.4525 -0.0742
 3773G2FFO Head45399  14.368  19.024  19.306 -0.6083 -0.3852 -0.0535
 3773G2FFO Head45400  14.178  19.359  19.688 -0.2545 -0.0376  0.4716
 3773G2FFO Head45401  14.031  19.141  19.649  0.3833 -0.1666 -0.1173
 3773G2FFO Head45402  14.021  19.026  19.326 -0.0568 -0.1918  0.0036
 3773G2FFO link45403  13.879  18.808  19.273 -0.2121 -0.2008 -0.4857
 3773G2FFO link45404  13.961  18.599  19.092  0.1259 -0.4329  0.0598
 3773G2FFO Tail45405  13.989  18.300  19.224 -0.2599  0.0718  0.0917
 3773G2FFO Tail45406  13.800  18.128  18.981  0.1442 -0.0062 -0.3508
 3773G2FFO Tail45407  13.639  18.271  18.843  0.0536  0.3548 -0.3526
 3773G2FFO Tail45408  13.653  18.260  18.585 -0.2794 -0.0436 -0.0212
 3773G2FFO Tail45409  13.718  18.253  18.338 -0.0149 -0.0027  0.0221
 3773G2FFO Tail45410  13.831  18.218  18.134  0.1020 -0.0076 -0.0180
 3773G2FFO Tail45411  13.739  18.334  19.478 -0.0768  0.1239  0.4387
 3773G2FFO Tail45412  13.482  18.336  19.423  0.1269  0.0564  0.0124
 3773G2FFO Tail45413  13.403  18.429  19.200 -0.1980  0.0884  0.0007
 3773G2FFO Tail45414  13.276  18.492  18.987 -0.0390 -0.1503  0.0946
 3773G2FFO Tail45415  13.205  18.526  18.771  0.2450 -0.0955  0.2879
 3774G2FFO Head45416  16.882  17.369  21.771  0.1480 -0.1964 -0.3570
 3774G2FFO Head45417  17.065  17.564  21.898  0.1838 -0.2509  0.0174
 3774G2FFO Head45418  17.319  17.721  22.290  0.1343  0.0811 -0.1016
 3774G2FFO Head45419  17.438  17.750  21.991 -0.0525  0.1178 -0.2305
 3774G2FFO Head45420  17.231  17.829  21.725  0.2205 -0.1447  0.4712
 3774G2FFO Head45421  17.664  17.145  21.433 -0.0649 -0.0188 -0.3628
 3774G2FFO Head45422  17.400  17.256  21.558  0.2923 -0.0914 -0.0689
 3774G2FFO Head45423  17.655  17.587  21.020  0.1888 -0.1784  0.3021
 3774G2FFO Head45424  17.424  17.410  21.145  0.2971  0.1181 -0.1898
 3774G2FFO Head45425  17.238  17.545  21.411 -0.2112 -0.2429  0.0425
 3774G2FFO link45426  17.301  17.787  21.492  0.2426 -0.1431 -0.3508
 3774G2FFO link45427  17.394  17.993  21.316 -0.1314 -0.1658 -0.2626
 3774G2FFO Tail45428  17.381  17.960  20.984 -0.1468  0.1932 -0.3723
 3774G2FFO Tail45429  17.355  18.288  20.881 -0.0260 -0.5683 -0.0854
 3774G2FFO Tail45430  17.384  18.330  20.623 -0.2062  0.0180 -0.0686
 3774G2FFO Tail45431  17.230  18.526  20.528 -0.1741  0.2527  0.1820
 3774G2FFO Tail45432  17.050  18.697  20.467 -0.0792  0.1255 -0.0289
 3774G2FFO Tail45433  16.896  18.819  20.359 -0.0615  0.0243  0.0348
 3774G2FFO Tail45434  17.062  17.839  20.961 -0.2402  0.2570 -0.0143
 3774G2FFO Tail45435  16.928  17.721  21.164 -0.0855  0.2635 -0.1526
 3774G2FFO Tail45436  16.908  17.880  21.370 -0.1104 -0.2596  0.0667
 3774G2FFO Tail45437  16.850  18.025  21.574 -0.0539  0.1551  0.0917
 3774G2FFO Tail45438  16.864  18.181  21.744 -0.0385  0.2209 -0.2820
 3775G2FFO Head45439  17.214  13.832  18.424  0.3659 -0.0694  0.3852
 3775G2FFO Head45440  16.876  13.795  18.488  0.5580 -0.3824  0.2870
 3775G2FFO Head45441  16.966  14.015  18.902 -0.1697 -0.1732 -0.0208
 3775G2FFO Head45442  16.683  14.111  18.723 -0.0763 -0.2712  0.0718
 3775G2FFO Head45443  16.664  14.045  18.376 -0.0646 -0.0952 -0.0186
 3775G2FFO Head45444  16.881  13.920  17.570 -0.1828  0.0134  0.0919
 3775G2FFO Head45445  17.018  14.150  17.785 -0.3974 -0.2084  0.0748
 3775G2FFO Head45446  16.776  13.649  18.031 -0.1304 -0.0332  0.2859
 3775G2FFO Head45447  16.998  13.818  18.050  0.2854  0.4321 -0.1894
 3775G2FFO Head45448  16.979  14.147  18.136  0.2618  0.4292 -0.3524
 3775G2FFO link45449  16.745  14.240  18.204  0.0220 -0.3351  0.2602
 3775G2FFO link45450  16.636  14.472  18.073  0.0797  0.5239 -0.1109
 3775G2FFO Tail45451  16.410  14.655  18.238  0.1681  0.3936 -0.1935
 3775G2FFO Tail45452  16.607  14.890  18.399 -0.0950  0.0085 -0.4437
 3775G2FFO Tail45453  16.864  14.836  18.438  0.0459  0.1332  0.0047
 3775G2FFO Tail45454  16.995  14.743  18.244 -0.2701  0.3388 -0.0038
 3775G2FFO Tail45455  17.131  14.616  18.080 -0.2831  0.0712 -0.0057
 3775G2FFO Tail45456  17.302  14.515  17.972 -0.0682 -0.1618  0.1838
 3775G2FFO Tail45457  16.358  14.437  18.491 -0.1977 -0.0459  0.1366
 3775G2FFO Tail45458  16.200  14.512  18.686 -0.1470 -0.0694  0.0749
 3775G2FFO Tail45459  16.221  14.749  18.790 -0.1144  0.0116  0.0825
 3775G2FFO Tail45460  16.231  14.996  18.846  0.4056  0.1682 -0.0755
 3775G2FFO Tail45461  16.174  15.218  18.882  0.0772 -0.0996 -0.2808
 3776G2FFO Head45462  14.379  15.922  21.450  0.0500  0.1612  0.1894
 3776G2FFO Head45463  14.591  16.099  21.320 -0.0388 -0.1919 -0.1383
 3776G2FFO Head45464  14.207  16.460  21.743 -0.0634 -0.1199 -0.0693
 3776G2FFO Head45465  14.429  16.279  21.737  0.0320  0.2395  0.1751
 3776G2FFO Head45466  14.705  16.365  21.521 -0.2158  0.0415 -0.3935
 3776G2FFO Head45467  14.234  16.943  21.623  0.2143  0.3393 -0.1092
 3776G2FFO Head45468  14.254  16.826  21.336  0.0894 -0.2852 -0.1962
 3776G2FFO Head45469  14.015  16.372  21.083 -0.1992 -0.2009 -0.0317
 3776G2FFO Head45470  14.263  16.376  21.285 -0.0453 -0.1072 -0.0405
 3776G2FFO Head45471  14.526  16.611  21.263  0.4041 -0.2211  0.1580
 3776G2FFO link45472  14.715  16.602  21.423 -0.0869  0.1451 -0.3676
 3776G2FFO link45473  14.957  16.738  21.392  0.1002  0.0444  0.0965
 3776G2FFO Tail45474  15.114  16.857  21.656 -0.1454 -0.4252  0.0361
 3776G2FFO Tail45475  15.140  17.202  21.603  0.1549 -0.0272 -0.4179
 3776G2FFO Tail45476  15.234  17.283  21.376  0.1686 -0.1486 -0.0029
 3776G2FFO Tail45477  15.262  17.100  21.179  0.0478 -0.0384 -0.1040
 3776G2FFO Tail45478  15.239  16.932  20.987  0.0581 -0.1308  0.0819
 3776G2FFO Tail45479  15.280  16.798  20.808 -0.2352  0.1495  0.0595
 3776G2FFO Tail45480  15.433  16.773  21.542  0.1038 -0.2081  0.1664
 3776G2FFO Tail45481  15.440  16.647  21.312 -0.2230 -0.0004 -0.2347
 3776G2FFO Tail45482  15.561  16.412  21.311 -0.3647 -0.0031  0.0724
 3776G2FFO Tail45483  15.651  16.176  21.268  0.1773 -0.1727  0.1733
 3776G2FFO Tail45484  15.670  15.945  21.220  0.1942 -0.0711 -0.1400
 3777G2FFO Head45485  19.314  16.302  22.940  0.2051 -0.0144  0.0648
 3777G2FFO Head45486  19.097  16.583  22.880  0.2358  0.4258 -0.4772
 3777G2FFO Head45487  18.697  16.754  23.100  0.0488  0.4763 -0.5105
 3777G2FFO Head45488  18.737  16.838  22.791  0.1368 -0.0983  0.2809
 3777G2FFO Head45489  18.960  16.662  22.587  0.1815 -0.6462 -0.0590
 3777G2FFO Head45490  19.070  15.839  22.474 -0.0715 -0.3421  0.1678
 3777G2FFO Head45491  18.812  16.002  22.390  0.0168  0.2706  0.1937
 3777G2FFO Head45492  18.872  16.291  23.099  0.3942  0.1104 -0.4062
 3777G2FFO Head45493  18.906  16.152  22.785 -0.0451  0.0776  0.0361
 3777G2FFO Head45494  18.775  16.308  22.507  0.2156 -0.3408  0.0304
 3777G2FFO link45495  18.895  16.514  22.389 -0.4062 -0.0182  0.3428
 3777G2FFO link45496  19.059  16.496  22.151 -0.2271 -0.0810  0.1407
 3777G2FFO Tail45497  19.213  16.770  22.047 -0.0598  0.1243  0.4783
 3777G2FFO Tail45498  19.068  16.988  22.274 -0.2073  0.2461  0.0414
 3777G2FFO Tail45499  18.853  17.125  22.230  0.4825 -0.0157 -0.2793
 3777G2FFO Tail45500  18.694  17.160  22.440  0.1334  0.1435 -0.0108
 3777G2FFO Tail45501  18.534  17.227  22.619  0.1507 -0.1183  0.0087
 3777G2FFO Tail45502  18.334  17.258  22.739 -0.0932  0.2110 -0.1928
 3777G2FFO Tail45503  19.044  16.871  21.750 -0.2176  0.1659  0.0981
 3777G2FFO Tail45504  18.770  16.862  21.759 -0.0550  0.3154 -0.2036
 3777G2FFO Tail45505  18.662  16.788  21.974 -0.0389 -0.0198  0.0193
 3777G2FFO Tail45506  18.591  16.699  22.197  0.0041 -0.1568 -0.0582
 3777G2FFO Tail45507  18.557  16.677  22.431 -0.3191  0.1803  0.0615
 3778G2FFO Head45508  16.371  19.709  21.693  0.0615 -0.3431 -0.0254
 3778G2FFO Head45509  16.648  19.626  21.583 -0.2044  0.0121  0.2868
 3778G2FFO Head45510  16.254  19.749  21.052 -0.1496  0.0086  0.0959
 3778G2FFO Head45511  16.525  19.591  21.136 -0.1997 -0.1419 -0.3619
 3778G2FFO Head45512  16.790  19.770  21.305 -0.0656  0.2895  0.2399
 3778G2FFO Head45513  16.667  20.066  20.930  0.0501 -0.3280  0.1824
 3778G2FFO Head45514  16.946  20.118  20.939 -0.0054  0.0665  0.3042
 3778G2FFO Head45515  16.730  20.212  21.456 -0.0028  0.4396  0.1226
 3778G2FFO Head45516  17.027  20.209  21.360 -0.0427  0.2207  0.1451
 3778G2FFO Head45517  17.142  19.929  21.173  0.0948  0.1481  0.1499
 3778G2FFO link45518  17.036  19.693  21.250 -0.0571  0.2951  0.3314
 3778G2FFO link45519  17.158  19.521  21.429 -0.0030 -0.0227 -0.2013
 3778G2FFO Tail45520  16.953  19.359  21.622  0.4674  0.1758 -0.2493
 3778G2FFO Tail45521  17.114  19.063  21.707 -0.1483 -0.0454 -0.0019
 3778G2FFO Tail45522  17.106  18.833  21.567  0.1641  0.3469  0.0639
 3778G2FFO Tail45523  16.870  18.774  21.450 -0.1882 -0.2401  0.4514
 3778G2FFO Tail45524  16.654  18.770  21.328  0.1093 -0.0698  0.2207
 3778G2FFO Tail45525  16.479  18.790  21.161  0.1662 -0.1201 -0.0339
 3778G2FFO Tail45526  16.716  19.265  21.382  0.0314 -0.2982 -0.0522
 3778G2FFO Tail45527  16.780  19.190  21.139 -0.5822 -0.2044  0.0534
 3778G2FFO Tail45528  16.911  19.363  20.999  0.2895 -0.0116 -0.1677
 3778G2FFO Tail45529  16.994  19.572  20.882  0.1334  0.0491 -0.0652
 3778G2FFO Tail45530  17.130  19.725  20.775 -0.1178  0.0917 -0.0388
 3779G2FFO Head45531  15.747  13.760  19.546 -0.4013 -0.1958  0.0896
 3779G2FFO Head45532  15.998  13.962  19.433 -0.5379  0.0699  0.1013
 3779G2FFO Head45533  16.327  14.105  19.701  0.0207  0.1040  0.1317
 3779G2FFO Head45534  16.139  14.346  19.602  0.0237 -0.4934  0.5102
 3779G2FFO Head45535  15.947  14.278  19.311  0.0289 -0.3194  0.5460
 3779G2FFO Head45536  15.520  14.142  19.303 -0.0940  0.0178  0.1466
 3779G2FFO Head45537  15.548  14.282  19.013 -0.2810  0.6002  0.2328
 3779G2FFO Head45538  15.602  13.989  18.614 -0.0611  0.2345 -0.3925
 3779G2FFO Head45539  15.823  14.194  18.642 -0.1144  0.0040  0.1734
 3779G2FFO Head45540  15.868  14.389  18.921  0.0001 -0.0262 -0.3587
 3779G2FFO link45541  16.064  14.333  19.081  0.1007 -0.5501  0.2146
 3779G2FFO link45542  16.307  14.230  19.000  0.2643  0.2397  0.0056
 3779G2FFO Tail45543  16.616  14.312  19.086  0.0455 -0.1561 -0.1233
 3779G2FFO Tail45544  16.516  14.513  19.344 -0.3208 -0.1399 -0.1112
 3779G2FFO Tail45545  16.510  14.774  19.302 -0.0921 -0.0062 -0.1404
 3779G2FFO Tail45546  16.599  14.936  19.495 -0.0626  0.0924 -0.0111
 3779G2FFO Tail45547  16.644  15.111  19.661 -0.1910 -0.0704 -0.0543
 3779G2FFO Tail45548  16.639  15.321  19.774  0.2814 -0.1921  0.2714
 3779G2FFO Tail45549  16.702  14.554  18.837 -0.0548  0.2131 -0.1829
 3779G2FFO Tail45550  16.672  14.806  18.895 -0.0265 -0.1262  0.4050
 3779G2FFO Tail45551  16.851  14.915  19.050 -0.0526 -0.0466  0.0358
 3779G2FFO Tail45552  17.006  15.064  19.191 -0.2286 -0.0563  0.0408
 3779G2FFO Tail45553  17.167  15.136  19.341 -0.1576  0.1137 -0.0531
 3780G2FFO Head45554  15.379  20.486  17.749  0.4103  0.1959 -0.0594
 3780G2FFO Head45555  15.605  20.253  17.839 -0.2823  0.0650 -0.1763
 3780G2FFO Head45556  15.872  20.610  17.338 -0.3107  0.2880  0.0633
 3780G2FFO Head45557  15.817  20.471  17.597  0.2436 -0.1581 -0.1540
 3780G2FFO Head45558  15.876  20.142  17.621  0.3880  0.1486  0.1371
 3780G2FFO Head45559  16.684  20.240  18.177 -0.0244 -0.3295  0.5576
 3780G2FFO Head45560  16.388  20.197  18.183 -0.2646 -0.0700 -0.2931
 3780G2FFO Head45561  16.531  20.671  18.006 -0.3682  0.3781  0.0291
 3780G2FFO Head45562  16.470  20.439  17.813 -0.1597 -0.0264 -0.0674
 3780G2FFO Head45563  16.181  20.239  17.885 -0.1368  0.0922 -0.0035
 3780G2FFO link45564  16.079  20.045  17.738 -0.5360  0.2037  0.1388
 3780G2FFO link45565  16.180  19.795  17.684 -0.2439 -0.2028 -0.0019
 3780G2FFO Tail45566  16.268  19.556  17.907  0.2123 -0.6774  0.4193
 3780G2FFO Tail45567  16.299  19.760  18.197 -0.0706  0.0350  0.2976
 3780G2FFO Tail45568  16.142  19.778  18.406  0.0518  0.1303  0.0059
 3780G2FFO Tail45569  15.986  19.573  18.475 -0.0834 -0.0765 -0.0240
 3780G2FFO Tail45570  15.818  19.388  18.499 -0.1303  0.1142 -0.2277
 3780G2FFO Tail45571  15.682  19.220  18.592 -0.0218  0.0544 -0.2876
 3780G2FFO Tail45572  15.951  19.413  17.973  0.3510 -0.0477 -0.2707
 3780G2FFO Tail45573  15.746  19.577  17.989  0.0075  0.0388 -0.2504
 3780G2FFO Tail45574  15.787  19.816  18.081 -0.2037 -0.1500  0.0111
 3780G2FFO Tail45575  15.870  20.042  18.161  0.0471 -0.0722 -0.0920
 3780G2FFO Tail45576  15.888  20.258  18.252 -0.1422  0.2001  0.2099
 3781G2FFO Head45577  16.879  16.722  20.347  0.1428  0.2396  0.4626
 3781G2FFO Head45578  17.108  16.880  20.512 -0.1166  0.2889  0.2639
 3781G2FFO Head45579  17.433  16.942  21.057 -0.2837 -0.1527 -0.0733
 3781G2FFO Head45580  17.370  16.725  20.872 -0.1160 -0.3102  0.2595
 3781G2FFO Head45581  17.443  16.754  20.529  0.0842 -0.4886  0.4348
 3781G2FFO Head45582  17.913  16.168  20.901  0.1622  0.0931 -0.0926
 3781G2FFO Head45583  17.781  16.168  20.670  0.3493 -0.2050 -0.0087
 3781G2FFO Head45584  17.915  16.904  20.856  0.3946  0.1233 -0.1548
 3781G2FFO Head45585  17.837  16.598  20.813 -0.1441 -0.3284  0.0988
 3781G2FFO Head45586  17.739  16.470  20.509  0.1855 -0.1702  0.1116
 3781G2FFO link45587  17.515  16.546  20.397  0.0801 -0.0857  0.2383
 3781G2FFO link45588  17.439  16.464  20.146 -0.0215  0.0554  0.1538
 3781G2FFO Tail45589  17.137  16.562  20.047 -0.0715  0.1811  0.1586
 3781G2FFO Tail45590  17.224  16.890  19.980  0.1386  0.2054 -0.2315
 3781G2FFO Tail45591  17.474  16.987  19.974 -0.0638  0.0106  0.2498
 3781G2FFO Tail45592  17.653  16.927  20.162 -0.1889  0.0406 -0.1471
 3781G2FFO Tail45593  17.850  16.881  20.302 -0.1449 -0.1241 -0.0228
 3781G2FFO Tail45594  18.042  16.771  20.398  0.0320 -0.0988 -0.0114
 3781G2FFO Tail45595  17.135  16.411  19.726  0.1529  0.0651 -0.0132
 3781G2FFO Tail45596  17.310  16.229  19.658  0.0654  0.1933  0.1026
 3781G2FFO Tail45597  17.521  16.307  19.538 -0.1954  0.2841 -0.0922
 3781G2FFO Tail45598  17.736  16.359  19.418  0.1461  0.1081 -0.0996
 3781G2FFO Tail45599  17.944  16.353  19.320 -0.0734 -0.0415 -0.1359
 3782G2FFO Head45600  19.137  18.401  18.822 -0.3965  0.1246  0.1304
 3782G2FFO Head45601  19.439  18.470  18.783  0.0300  0.0021  0.3465
 3782G2FFO Head45602  19.326  18.707  19.265 -0.1237 -0.4315  0.0499
 3782G2FFO Head45603  19.614  18.653  19.124 -0.2539  0.1719 -0.3372
 3782G2FFO Head45604  19.665  18.345  19.014 -0.1458  0.1029  0.6080
 3782G2FFO Head45605  19.503  17.972  18.409 -0.1157 -0.0474  0.2839
 3782G2FFO Head45606  19.696  17.982  18.661  0.0777 -0.0108 -0.3347
 3782G2FFO Head45607  19.178  17.652  18.721 -0.1640  0.3416 -0.0157
 3782G2FFO Head45608  19.281  17.935  18.802 -0.2455 -0.1256 -0.1300
 3782G2FFO Head45609  19.571  17.939  18.994  0.1447 -0.4897  0.0617
 3782G2FFO link45610  19.607  18.131  19.179 -0.1856  0.1624 -0.3786
 3782G2FFO link45611  19.647  18.111  19.456 -0.0275 -0.0550 -0.0523
 3782G2FFO Tail45612  19.755  18.377  19.598  0.3567 -0.2813 -0.2925
 3782G2FFO Tail45613  20.084  18.266  19.662 -0.1007  0.0551 -0.1128
 3782G2FFO Tail45614  20.208  18.069  19.550 -0.0461  0.0343  0.1275
 3782G2FFO Tail45615  20.075  17.903  19.411  0.0522  0.0971  0.0082
 3782G2FFO Tail45616  19.914  17.731  19.314 -0.2558  0.0667  0.0083
 3782G2FFO Tail45617  19.755  17.562  19.297 -0.2790 -0.0300  0.2715
 3782G2FFO Tail45618  19.620  18.336  19.913  0.1711  0.2113  0.0059
 3782G2FFO Tail45619  19.687  18.125  20.039  0.0650  0.0418  0.0666
 3782G2FFO Tail45620  19.729  17.887  19.924  0.5117  0.0064 -0.0697
 3782G2FFO Tail45621  19.808  17.681  19.801 -0.0259  0.2086 -0.0746
 3782G2FFO Tail45622  19.843  17.464  19.727  0.1766  0.1526  0.0367
 3783G2FFO Head45623  15.475  18.938  16.598 -0.1865  0.1970 -0.1708
 3783G2FFO Head45624  15.375  19.054  16.849  0.5211  0.0308  0.3433
 3783G2FFO Head45625  14.693  19.123  16.552  0.3951 -0.0941 -0.2901
 3783G2FFO Head45626  14.969  19.121  16.730 -0.1558 -0.1338 -0.2831
 3783G2FFO Head45627  15.081  18.883  16.955 -0.5327 -0.1430  0.6888
 3783G2FFO Head45628  14.412  18.347  17.060  0.0523 -0.2523  0.2118
 3783G2FFO Head45629  14.563  18.544  17.277  0.3151 -0.1021  0.2098
 3783G2FFO Head45630  14.199  18.816  16.778 -0.3052 -0.0237  0.0350
 3783G2FFO Head45631  14.551  18.776  16.856  0.4831  0.3702 -0.2652
 3783G2FFO Head45632  14.709  18.847  17.180  0.0606 -0.1701 -0.2507
 3783G2FFO link45633  14.979  18.871  17.193  0.4078  0.2343 -0.0794
 3783G2FFO link45634  15.118  18.924  17.439 -0.0148 -0.0197  0.1114
 3783G2FFO Tail45635  15.442  18.837  17.482 -0.2479 -0.3332  0.0435
 3783G2FFO Tail45636  15.541  19.064  17.728 -0.2258 -0.1781  0.1582
 3783G2FFO Tail45637  15.468  19.315  17.688  0.0306 -0.0751 -0.0341
 3783G2FFO Tail45638  15.220  19.373  17.664  0.1532  0.1038  0.1481
 3783G2FFO Tail45639  14.985  19.470  17.625 -0.1052  0.1818  0.0721
 3783G2FFO Tail45640  14.776  19.537  17.527 -0.0327  0.0619 -0.1220
 3783G2FFO Tail45641  15.414  18.540  17.659 -0.0138  0.3132 -0.0461
 3783G2FFO Tail45642  15.595  18.480  17.836 -0.1562  0.4649 -0.0109
 3783G2FFO Tail45643  15.721  18.661  17.970 -0.4890  0.0104 -0.1328
 3783G2FFO Tail45644  15.794  18.853  18.122 -0.3689 -0.0218  0.0950
 3783G2FFO Tail45645  15.932  18.992  18.266  0.0661  0.2544  0.0731
 3784G2FFO Head45646  18.273  18.555  15.719  0.3758  0.0871 -0.1185
 3784G2FFO Head45647  18.081  18.476  15.965 -0.1987 -0.1271  0.2346
 3784G2FFO Head45648  17.799  18.723  16.550 -0.3892 -0.0454 -0.4831
 3784G2FFO Head45649  17.982  18.692  16.305 -0.0248 -0.2657 -0.3897
 3784G2FFO Head45650  18.233  18.444  16.285  0.0933 -0.0347 -0.1141
 3784G2FFO Head45651  18.939  18.943  15.972  0.0589 -0.0346  0.0301
 3784G2FFO Head45652  18.887  18.656  15.950  0.2810 -0.4842 -0.1927
 3784G2FFO Head45653  18.301  19.053  16.057  0.0351  0.3936 -0.2283
 3784G2FFO Head45654  18.495  18.859  15.921  0.0152 -0.0660 -0.2282
 3784G2FFO Head45655  18.575  18.532  16.055 -0.0364 -0.5331 -0.1899
 3784G2FFO link45656  18.504  18.466  16.295 -0.0666  0.2248  0.4543
 3784G2FFO link45657  18.671  18.354  16.489  0.0890  0.1338  0.0354
 3784G2FFO Tail45658  18.785  18.039  16.508  0.1317 -0.4357  0.0159
 3784G2FFO Tail45659  18.484  17.898  16.582 -0.0171  0.0049 -0.1118
 3784G2FFO Tail45660  18.270  17.974  16.451 -0.1700  0.0604 -0.0941
 3784G2FFO Tail45661  18.289  18.016  16.199 -0.2158 -0.0451  0.1612
 3784G2FFO Tail45662  18.322  18.094  15.955  0.0297  0.0217  0.1052
 3784G2FFO Tail45663  18.396  18.105  15.729  0.1086 -0.3616  0.0418
 3784G2FFO Tail45664  18.904  18.070  16.836 -0.1184 -0.1954  0.1672
 3784G2FFO Tail45665  19.153  18.068  16.920 -0.2430 -0.0806  0.0483
 3784G2FFO Tail45666  19.262  17.838  16.958 -0.0958  0.0169  0.0332
 3784G2FFO Tail45667  19.311  17.598  16.999 -0.1282  0.3879  0.1735
 3784G2FFO Tail45668  19.437  17.399  17.044 -0.0282 -0.0035  0.2840
 3785G2FFO Head45669  17.688  19.997  18.024 -0.0426 -0.0114  0.1289
 3785G2FFO Head45670  17.750  19.679  18.131 -0.0780  0.1555 -0.1299
 3785G2FFO Head45671  18.171  19.630  17.853  0.1009 -0.1324 -0.4603
 3785G2FFO Head45672  18.097  19.462  18.119  0.2955  0.1994  0.6056
 3785G2FFO Head45673  17.986  19.629  18.390  0.0732 -0.0180  0.1772
 3785G2FFO Head45674  18.045  20.133  18.931 -0.0597 -0.0877  0.0964
 3785G2FFO Head45675  17.911  19.866  18.956  0.0413 -0.0756 -0.2601
 3785G2FFO Head45676  18.418  19.820  19.025  0.1117 -0.0128  0.0517
 3785G2FFO Head45677  18.285  19.782  18.774 -0.0889  0.0461  0.0268
 3785G2FFO Head45678  18.011  19.564  18.786 -0.2168 -0.1721  0.3076
 3785G2FFO link45679  17.897  19.484  18.577  0.0082 -0.4979 -0.1173
 3785G2FFO link45680  17.714  19.277  18.549  0.3744 -0.3960  0.1642
 3785G2FFO Tail45681  17.554  19.165  18.814  0.1919 -0.2766 -0.2897
 3785G2FFO Tail45682  17.702  19.339  19.066  0.1789 -0.2745 -0.2162
 3785G2FFO Tail45683  17.659  19.601  19.114 -0.0746  0.2291  0.0178
 3785G2FFO Tail45684  17.417  19.678  19.148  0.2717  0.1151  0.1457
 3785G2FFO Tail45685  17.175  19.752  19.224 -0.0737  0.1474 -0.1515
 3785G2FFO Tail45686  16.961  19.818  19.234 -0.2715 -0.0380  0.1307
 3785G2FFO Tail45687  17.736  18.872  18.846 -0.0662  0.4804  0.7475
 3785G2FFO Tail45688  17.945  18.857  18.989 -0.1747 -0.1714  0.0396
 3785G2FFO Tail45689  18.120  19.046  18.964  0.0169  0.1241  0.0765
 3785G2FFO Tail45690  18.290  19.236  18.973  0.2390 -0.0194 -0.0226
 3785G2FFO Tail45691  18.468  19.378  19.046 -0.2565  0.2495 -0.2167
 3786G2FFO Head45692  16.310  19.479  19.926  0.0079 -0.0817  0.3201
 3786G2FFO Head45693  16.177  19.193  19.959 -0.6571  0.3656  0.1648
 3786G2FFO Head45694  15.955  18.524  19.690  0.1456 -0.0121  0.0786
 3786G2FFO Head45695  16.006  18.765  19.898  0.0673 -0.3130  0.1247
 3786G2FFO Head45696  16.347  18.887  19.929  0.1356 -0.0714 -0.4779
 3786G2FFO Head45697  16.382  18.622  19.515 -0.2008 -0.1521  0.2774
 3786G2FFO Head45698  16.667  18.553  19.679 -0.1841 -0.2255  0.1019
 3786G2FFO Head45699  16.394  18.188  19.815 -0.1247 -0.3446 -0.3005
 3786G2FFO Head45700  16.640  18.298  19.994 -0.1068 -0.3727  0.1517
 3786G2FFO Head45701  16.669  18.650  20.016  0.0716  0.0456 -0.2134
 3786G2FFO link45702  16.473  18.776  20.118  0.3791 -0.4609 -0.0717
 3786G2FFO link45703  16.439  18.869  20.389  0.0508 -0.0183  0.0117
 3786G2FFO Tail45704  16.523  18.685  20.644  0.0767  0.3953  0.0642
 3786G2FFO Tail45705  16.224  18.716  20.806 -0.6543  0.2043 -0.4765
 3786G2FFO Tail45706  16.023  18.839  20.702  0.0021  0.2377 -0.1676
 3786G2FFO Tail45707  15.858  18.975  20.854 -0.0596  0.3676 -0.0679
 3786G2FFO Tail45708  15.731  19.090  21.040  0.1472 -0.1936  0.0079
 3786G2FFO Tail45709  15.656  19.226  21.220  0.1214  0.0297 -0.0560
 3786G2FFO Tail45710  16.740  18.896  20.810  0.1178 -0.1831 -0.0281
 3786G2FFO Tail45711  16.916  18.812  20.987 -0.1949  0.2733 -0.2586
 3786G2FFO Tail45712  17.169  18.803  20.908  0.1879  0.2005 -0.0486
 3786G2FFO Tail45713  17.419  18.830  20.868 -0.2332  0.1148  0.4196
 3786G2FFO Tail45714  17.627  18.884  20.766  0.2195  0.1368 -0.0509
 3787G2FFO Head45715  17.961  16.726  17.444  0.0887 -0.1669 -0.2901
 3787G2FFO Head45716  17.841  16.818  17.180  0.4772 -0.3764  0.2481
 3787G2FFO Head45717  17.601  16.430  17.137  0.0551  0.1776 -0.0998
 3787G2FFO Head45718  17.486  16.690  17.300  0.1906  0.0888 -0.1986
 3787G2FFO Head45719  17.575  17.019  17.227 -0.2924  0.0660 -0.0113
 3787G2FFO Head45720  18.149  17.576  17.719 -0.2094 -0.1457 -0.0303
 3787G2FFO Head45721  17.917  17.372  17.702  0.1245  0.0359 -0.1854
 3787G2FFO Head45722  18.290  17.057  17.641 -0.2602  0.1139 -0.0706
 3787G2FFO Head45723  18.054  17.158  17.365 -0.1350  0.1672 -0.1634
 3787G2FFO Head45724  17.753  17.321  17.401 -0.2067  0.1635  0.1163
 3787G2FFO link45725  17.541  17.201  17.411  0.7109 -0.1905  0.1547
 3787G2FFO link45726  17.288  17.331  17.450  0.0391 -0.2561  0.2802
 3787G2FFO Tail45727  17.284  17.628  17.593  0.3684 -0.0441  0.2169
 3787G2FFO Tail45728  17.360  17.808  17.325 -0.0323  0.0026 -0.0387
 3787G2FFO Tail45729  17.368  17.678  17.096  0.0644 -0.0307  0.0820
 3787G2FFO Tail45730  17.580  17.528  17.065 -0.0838  0.0692  0.0020
 3787G2FFO Tail45731  17.806  17.418  16.996 -0.0379  0.2736  0.0007
 3787G2FFO Tail45732  18.027  17.346  16.969 -0.2590 -0.3656  0.0700
 3787G2FFO Tail45733  16.947  17.709  17.599  0.2386 -0.1166  0.5563
 3787G2FFO Tail45734  16.837  17.934  17.511  0.1859  0.0645  0.1248
 3787G2FFO Tail45735  16.946  18.161  17.574 -0.1803 -0.0690  0.1388
 3787G2FFO Tail45736  17.042  18.403  17.598  0.0959 -0.1294 -0.3180
 3787G2FFO Tail45737  17.167  18.605  17.584 -0.1685  0.3873  0.2664
 3788G2FFO Head45738  17.351  16.770  21.610 -0.2272 -0.0052 -0.2720
 3788G2FFO Head45739  17.462  16.657  21.866  0.2160  0.0296  0.0897
 3788G2FFO Head45740  16.855  16.742  21.752 -0.0216 -0.1548  0.0718
 3788G2FFO Head45741  17.058  16.583  21.937  0.4114  0.1558 -0.2061
 3788G2FFO Head45742  17.281  16.693  22.162 -0.1059 -0.2743  0.0424
 3788G2FFO Head45743  16.966  17.003  22.173  0.3475  0.5718  0.1820
 3788G2FFO Head45744  16.905  16.864  22.452 -0.2021  0.0127  0.7588
 3788G2FFO Head45745  17.209  16.878  22.936 -0.0807  0.2600  0.0694
 3788G2FFO Head45746  17.138  16.630  22.835  0.0719  0.0939 -0.2084
 3788G2FFO Head45747  17.094  16.563  22.504 -0.1186  0.3725  0.2138
 3788G2FFO link45748  17.311  16.551  22.363 -0.3603  0.2713 -0.4230
 3788G2FFO link45749  17.509  16.361  22.390  0.0107 -0.1449  0.2181
 3788G2FFO Tail45750  17.438  16.074  22.525  0.1092 -0.0903  0.1957
 3788G2FFO Tail45751  17.194  15.954  22.303 -0.0773  0.0132  0.0931
 3788G2FFO Tail45752  16.937  15.997  22.326 -0.0781  0.1834  0.3034
 3788G2FFO Tail45753  16.854  16.229  22.264  0.1059 -0.1831  0.1175
 3788G2FFO Tail45754  16.736  16.443  22.185 -0.0289 -0.1701 -0.1353
 3788G2FFO Tail45755  16.652  16.661  22.163  0.1722 -0.0673  0.0316
 3788G2FFO Tail45756  17.248  16.178  22.784  0.1132 -0.0156 -0.1043
 3788G2FFO Tail45757  17.368  16.288  22.991 -0.4114 -0.0995 -0.0202
 3788G2FFO Tail45758  17.224  16.399  23.185 -0.2687 -0.0874 -0.2041
 3788G2FFO Tail45759  17.091  16.535  23.354 -0.2903  0.3553  0.1630
 3788G2FFO Tail45760  16.939  16.591  23.519  0.1894 -0.2663 -0.0755
 3789G2FFO Head45761  16.822  15.152  16.247  0.6888 -0.0056 -0.0778
 3789G2FFO Head45762  16.954  15.355  16.482 -0.0503  0.2150 -0.1481
 3789G2FFO Head45763  17.336  15.132  16.557  0.0353  0.3096 -0.0223
 3789G2FFO Head45764  17.361  15.374  16.391  0.6301 -0.4291 -0.4138
 3789G2FFO Head45765  17.126  15.647  16.393  0.1039  0.5823 -0.2637
 3789G2FFO Head45766  16.524  15.444  16.621 -0.1416 -0.0113 -0.2211
 3789G2FFO Head45767  16.663  15.714  16.751 -0.0903  0.0610 -0.0585
 3789G2FFO Head45768  16.952  16.304  16.998  0.2101  0.3893 -0.1420
 3789G2FFO Head45769  16.749  16.176  16.806 -0.3886  0.0135 -0.2104
 3789G2FFO Head45770  16.861  15.934  16.568  0.3103  0.0630  0.0771
 3789G2FFO link45771  17.117  15.862  16.563 -0.1266  0.0696 -0.2456
 3789G2FFO link45772  17.328  16.036  16.610  0.1698 -0.1944  0.3183
 3789G2FFO Tail45773  17.615  15.932  16.708 -0.2468  0.2814 -0.2092
 3789G2FFO Tail45774  17.828  16.235  16.695 -0.3376  0.1276  0.0004
 3789G2FFO Tail45775  17.889  16.348  16.474  0.1953 -0.1025 -0.1116
 3789G2FFO Tail45776  17.756  16.565  16.426  0.1845 -0.1625  0.0130
 3789G2FFO Tail45777  17.621  16.782  16.425  0.0736  0.0570  0.1395
 3789G2FFO Tail45778  17.519  16.985  16.353 -0.0383 -0.0464  0.3532
 3789G2FFO Tail45779  17.695  15.748  16.425 -0.1185 -0.1074 -0.0548
 3789G2FFO Tail45780  17.622  15.830  16.190  0.4211 -0.1641  0.5349
 3789G2FFO Tail45781  17.591  16.088  16.144  0.0131  0.1869 -0.5197
 3789G2FFO Tail45782  17.525  16.329  16.072  0.1587  0.0913  0.0515
 3789G2FFO Tail45783  17.475  16.558  16.056  0.2769  0.0669  0.0960
 3790G2FFO Head45784  16.646  18.371  15.759  0.3949 -0.1500  0.2117
 3790G2FFO Head45785  16.575  18.435  16.041 -0.0363  0.0536  0.0524
 3790G2FFO Head45786  17.008  17.847  16.221 -0.1351 -0.4242 -0.0679
 3790G2FFO Head45787  16.903  18.102  16.114  0.3972  0.2804  0.2078
 3790G2FFO Head45788  16.699  18.270  16.338  0.0314 -0.3041  0.2269
 3790G2FFO Head45789  16.669  18.731  16.365  0.0251  0.2317  0.1051
 3790G2FFO Head45790  16.396  18.638  16.475 -0.3052 -0.4110 -0.2244
 3790G2FFO Head45791  16.200  18.107  16.011 -0.1817 -0.3028  0.4088
 3790G2FFO Head45792  16.117  18.316  16.245 -0.0106 -0.0844 -0.1337
 3790G2FFO Head45793  16.331  18.297  16.536  0.1458 -0.3457  0.3823
 3790G2FFO link45794  16.544  18.126  16.508 -0.0382 -0.4242 -0.1886
 3790G2FFO link45795  16.607  17.878  16.634 -0.3865 -0.1215  0.0394
 3790G2FFO Tail45796  16.861  17.691  16.565  0.0632 -0.0969 -0.1484
 3790G2FFO Tail45797  17.167  17.844  16.696  0.0715  0.1174  0.0699
 3790G2FFO Tail45798  17.161  18.078  16.818  0.1630 -0.0266 -0.1054
 3790G2FFO Tail45799  16.968  18.251  16.760 -0.0638  0.0169  0.3232
 3790G2FFO Tail45800  16.776  18.417  16.756  0.0723 -0.0485 -0.0124
 3790G2FFO Tail45801  16.609  18.553  16.828  0.0541 -0.2399 -0.0165
 3790G2FFO Tail45802  16.812  17.439  16.821 -0.2226  0.0532  0.1064
 3790G2FFO Tail45803  16.715  17.198  16.804 -0.2273  0.0878 -0.1167
 3790G2FFO Tail45804  16.641  17.093  17.031  0.1187 -0.1740 -0.1453
 3790G2FFO Tail45805  16.602  16.958  17.246  0.0414 -0.0273 -0.0789
 3790G2FFO Tail45806  16.527  16.863  17.451  0.0426  0.0745  0.0480
 3791G2FFO Head45807  19.480  14.665  16.844  0.1593  0.0715 -0.0234
 3791G2FFO Head45808  19.195  14.763  16.981  0.0557  0.0231  0.0760
 3791G2FFO Head45809  19.611  14.456  17.560  0.0978  0.4011  0.3339
 3791G2FFO Head45810  19.432  14.516  17.298  0.4603 -0.1510 -0.2194
 3791G2FFO Head45811  19.120  14.687  17.324  0.1450 -0.0169  0.1816
 3791G2FFO Head45812  19.734  15.062  17.144 -0.0460 -0.0814 -0.3408
 3791G2FFO Head45813  19.603  14.875  17.327 -0.0417  0.2627  0.0239
 3791G2FFO Head45814  19.586  15.531  17.571 -0.0196 -0.1104 -0.2848
 3791G2FFO Head45815  19.411  15.292  17.394 -0.1998 -0.3585  0.0766
 3791G2FFO Head45816  19.331  14.991  17.522  0.0053  0.2573  0.2028
 3791G2FFO link45817  19.093  14.880  17.477 -0.1156 -0.0732  0.1421
 3791G2FFO link45818  18.899  14.895  17.674  0.1263  0.0654 -0.5433
 3791G2FFO Tail45819  18.576  14.939  17.605 -0.2887 -0.4112  0.1734
 3791G2FFO Tail45820  18.591  14.978  17.255  0.2704  0.2797 -0.1997
 3791G2FFO Tail45821  18.808  15.092  17.153  0.3946  0.0838  0.0307
 3791G2FFO Tail45822  18.915  15.308  17.264 -0.1146  0.1657 -0.0039
 3791G2FFO Tail45823  18.991  15.496  17.407 -0.1004 -0.0753 -0.1400
 3791G2FFO Tail45824  19.034  15.710  17.503  0.0502  0.1048  0.0197
 3791G2FFO Tail45825  18.540  15.265  17.733 -0.1594  0.0416 -0.1459
 3791G2FFO Tail45826  18.640  15.336  17.973  0.0623 -0.0785 -0.1501
 3791G2FFO Tail45827  18.474  15.368  18.169 -0.2737 -0.0999  0.1123
 3791G2FFO Tail45828  18.335  15.390  18.375  0.0507  0.1020  0.0544
 3791G2FFO Tail45829  18.198  15.341  18.563 -0.0761 -0.0326  0.1457
 3792G2FFO Head45830  20.979  17.432  21.447 -0.1504 -0.0095  0.0694
 3792G2FFO Head45831  21.186  17.297  21.241  0.1524 -0.0224 -0.1091
 3792G2FFO Head45832  21.095  17.895  21.151 -0.0219  0.0274  0.2225
 3792G2FFO Head45833  21.299  17.646  21.051  0.0408 -0.0465  0.1381
 3792G2FFO Head45834  21.153  17.361  20.903  0.1311  0.4662  0.2627
 3792G2FFO Head45835  21.731  17.664  21.020 -0.3344  0.1051  0.0016
 3792G2FFO Head45836  21.700  17.616  20.706  0.3556 -0.1403 -0.0722
 3792G2FFO Head45837  21.414  17.969  20.745  0.0356  0.5347 -0.1307
 3792G2FFO Head45838  21.256  17.734  20.626  0.0007  0.3066  0.1467
 3792G2FFO Head45839  21.418  17.435  20.607  0.0271  0.3107  0.4765
 3792G2FFO link45840  21.324  17.241  20.741  0.5379  0.5814  0.0313
 3792G2FFO link45841  21.262  17.004  20.602 -0.1453  0.3317  0.0995
 3792G2FFO Tail45842  21.079  16.956  20.331  0.2215  0.1132  0.2893
 3792G2FFO Tail45843  21.038  17.295  20.268 -0.5394 -0.4429 -0.2641
 3792G2FFO Tail45844  20.992  17.457  20.476 -0.1494 -0.1180  0.1253
 3792G2FFO Tail45845  20.771  17.425  20.619  0.0655 -0.0057  0.0356
 3792G2FFO Tail45846  20.563  17.431  20.752 -0.1019 -0.2309  0.0154
 3792G2FFO Tail45847  20.346  17.455  20.831  0.2229 -0.1355 -0.2201
 3792G2FFO Tail45848  20.767  16.896  20.488  0.2727 -0.2289 -0.2948
 3792G2FFO Tail45849  20.560  17.019  20.403  0.0372  0.0291 -0.2750
 3792G2FFO Tail45850  20.343  16.884  20.336  0.1415 -0.1859  0.3814
 3792G2FFO Tail45851  20.152  16.758  20.237  0.1600  0.3598 -0.1417
 3792G2FFO Tail45852  19.935  16.681  20.181  0.0414 -0.0800  0.0470
 3793G2FFO Head45853  20.279  18.084  21.904 -0.2040  0.2190 -0.0898
 3793G2FFO Head45854  20.321  18.340  21.756  0.3384 -0.0732  0.2474
 3793G2FFO Head45855  20.582  18.702  21.121 -0.2616 -0.1973 -0.3123
 3793G2FFO Head45856  20.475  18.446  21.358 -0.2600  0.2561  0.1679
 3793G2FFO Head45857  20.148  18.385  21.450 -0.1122 -0.0965  0.1660
 3793G2FFO Head45858  20.024  18.451  22.121  0.1386 -0.0919 -0.3252
 3793G2FFO Head45859  19.846  18.375  21.881 -0.0206  0.2025  0.3768
 3793G2FFO Head45860  19.448  18.902  21.946  0.1699 -0.1094 -0.2562
 3793G2FFO Head45861  19.765  18.791  21.869  0.0125  0.0082  0.1121
 3793G2FFO Head45862  19.803  18.574  21.597 -0.2675  0.4104  0.1193
 3793G2FFO link45863  19.990  18.582  21.411 -0.0811 -0.5014  0.2054
 3793G2FFO link45864  20.039  18.813  21.258 -0.1699  0.4384  0.2116
 3793G2FFO Tail45865  20.189  18.783  20.967 -0.1358  0.0876  0.5308
 3793G2FFO Tail45866  19.954  18.941  20.772 -0.4496  0.3435  0.1830
 3793G2FFO Tail45867  19.703  18.891  20.790 -0.1771 -0.0394 -0.0972
 3793G2FFO Tail45868  19.580  18.732  20.631 -0.2081 -0.0161  0.3321
 3793G2FFO Tail45869  19.496  18.560  20.465  0.0654  0.1050  0.1570
 3793G2FFO Tail45870  19.478  18.369  20.339  0.1805  0.1177  0.0879
 3793G2FFO Tail45871  20.143  18.453  20.868  0.1964  0.1972  0.1364
 3793G2FFO Tail45872  20.187  18.253  21.023  0.0161  0.3240 -0.1850
 3793G2FFO Tail45873  20.406  18.103  20.990 -0.2196  0.1463  0.1060
 3793G2FFO Tail45874  20.595  17.943  20.912  0.0733 -0.2195 -0.1442
 3793G2FFO Tail45875  20.805  17.866  20.860  0.2793  0.1279 -0.1543
 3794G2FFO Head45876  16.218  14.727  22.114 -0.1202  0.2497  0.2353
 3794G2FFO Head45877  16.027  14.966  21.988 -0.1045 -0.3238 -0.1338
 3794G2FFO Head45878  16.531  14.974  21.524  0.2540  0.0406 -0.0044
 3794G2FFO Head45879  16.434  15.037  21.796 -0.1774 -0.2413  0.0421
 3794G2FFO Head45880  16.170  15.264  21.862 -0.1410  0.4207 -0.2713
 3794G2FFO Head45881  15.843  15.107  21.146  0.1377  0.1688 -0.2074
 3794G2FFO Head45882  15.679  15.247  21.352 -0.2809 -0.0033  0.3840
 3794G2FFO Head45883  15.564  14.900  21.638  0.1291  0.0791  0.0943
 3794G2FFO Head45884  15.670  15.089  21.768  0.1368  0.2986 -0.1183
 3794G2FFO Head45885  15.833  15.360  21.624 -0.7039 -0.3040  0.0242
 3794G2FFO link45886  16.090  15.370  21.622 -0.0883  0.0968 -0.3015
 3794G2FFO link45887  16.219  15.325  21.380 -0.1744  0.2849 -0.3860
 3794G2FFO Tail45888  16.284  15.596  21.178  0.3876  0.5653 -0.1632
 3794G2FFO Tail45889  16.204  15.419  20.899  0.2518 -0.1469 -0.2004
 3794G2FFO Tail45890  16.372  15.293  20.735  0.0468 -0.2016 -0.0832
 3794G2FFO Tail45891  16.413  15.366  20.485  0.0645 -0.1279 -0.0324
 3794G2FFO Tail45892  16.398  15.452  20.243 -0.0047 -0.1765 -0.0548
 3794G2FFO Tail45893  16.383  15.573  20.050  0.1144 -0.1480  0.0150
 3794G2FFO Tail45894  16.625  15.542  21.121 -0.2356 -0.0439 -0.0634
 3794G2FFO Tail45895  16.779  15.596  20.916 -0.0417 -0.0978 -0.0363
 3794G2FFO Tail45896  16.908  15.824  20.914  0.1525 -0.1183 -0.3370
 3794G2FFO Tail45897  16.990  16.068  20.930 -0.0874  0.2353 -0.1019
 3794G2FFO Tail45898  17.014  16.301  20.924  0.1439 -0.1527 -0.0732
 3795G2FFO Head45899  18.968  18.020  18.484 -0.0894 -0.2606 -0.0900
 3795G2FFO Head45900  18.775  17.791  18.599  0.3563  0.1846  0.2197
 3795G2FFO Head45901  18.724  18.227  19.113 -0.2452  0.1273  0.2169
 3795G2FFO Head45902  18.901  18.009  18.972  0.2797 -0.0862 -0.0310
 3795G2FFO Head45903  18.738  17.705  18.950  0.2650  0.1224  0.1432
 3795G2FFO Head45904  19.240  16.934  18.685  0.2711  0.2629  0.2274
 3795G2FFO Head45905  19.204  17.191  18.849 -0.1601  0.3643  0.3478
 3795G2FFO Head45906  18.580  16.901  19.054  0.1046 -0.0838 -0.1218
 3795G2FFO Head45907  18.834  16.992  18.917 -0.1808 -0.0573 -0.2036
 3795G2FFO Head45908  18.898  17.326  18.857  0.0618  0.1362  0.1274
 3795G2FFO link45909  18.842  17.481  19.051 -0.0680  0.1273 -0.1821
 3795G2FFO link45910  18.753  17.382  19.306 -0.2479  0.1028  0.0659
 3795G2FFO Tail45911  18.484  17.504  19.469 -0.0142 -0.3486 -0.4825
 3795G2FFO Tail45912  18.387  17.768  19.267  0.0349  0.4919  0.2111
 3795G2FFO Tail45913  18.275  18.003  19.342  0.1099  0.2492  0.2447
 3795G2FFO Tail45914  18.117  18.007  19.554 -0.2933 -0.1838  0.3604
 3795G2FFO Tail45915  17.947  18.047  19.738 -0.2377  0.0150 -0.1261
 3795G2FFO Tail45916  17.818  18.083  19.934 -0.1811  0.3256 -0.1476
 3795G2FFO Tail45917  18.652  17.731  19.658 -0.0599  0.0612  0.0152
 3795G2FFO Tail45918  18.825  17.906  19.543 -0.1319 -0.1762  0.3729
 3795G2FFO Tail45919  19.014  17.823  19.382  0.1301 -0.0621 -0.0708
 3795G2FFO Tail45920  19.174  17.692  19.236 -0.0661 -0.2474  0.1235
 3795G2FFO Tail45921  19.340  17.548  19.149 -0.0348 -0.3816  0.0235
 3796G2FFO Head45922  16.157  17.001  18.562  0.0205 -0.4128 -0.2523
 3796G2FFO Head45923  16.426  16.862  18.482 -0.3344  0.0887  0.0686
 3796G2FFO Head45924  16.134  16.506  18.713 -0.1661  0.0524  0.0876
 3796G2FFO Head45925  16.398  16.414  18.668  0.1062 -0.3066  0.1824
 3796G2FFO Head45926  16.642  16.657  18.680 -0.1047  0.1319  0.1863
 3796G2FFO Head45927  16.590  16.296  19.053 -0.1279  0.0307  0.1698
 3796G2FFO Head45928  16.862  16.369  19.082  0.0346 -0.1255  0.3013
 3796G2FFO Head45929  17.185  16.686  19.354  0.0702  0.0942  0.0610
 3796G2FFO Head45930  17.142  16.782  19.064  0.0179 -0.0659  0.4727
 3796G2FFO Head45931  17.022  16.544  18.835 -0.3027  0.0164  0.2911
 3796G2FFO link45932  16.896  16.584  18.604  0.7172  0.1257 -0.0759
 3796G2FFO link45933  17.011  16.614  18.351 -0.2588  0.3000 -0.3192
 3796G2FFO Tail45934  16.837  16.579  18.080 -0.0068 -0.1159 -0.0111
 3796G2FFO Tail45935  16.696  16.894  18.087  0.0594  0.0798 -0.0105
 3796G2FFO Tail45936  16.523  17.000  17.915  0.2143 -0.1010 -0.0760
 3796G2FFO Tail45937  16.302  17.087  18.005 -0.2318 -0.1959  0.1940
 3796G2FFO Tail45938  16.085  17.190  18.088 -0.0326 -0.2102 -0.0761
 3796G2FFO Tail45939  15.909  17.292  18.213 -0.2543 -0.0150 -0.1558
 3796G2FFO Tail45940  16.560  16.400  18.229  0.0752 -0.3120  0.0040
 3796G2FFO Tail45941  16.516  16.135  18.206  0.2451  0.3166  0.2983
 3796G2FFO Tail45942  16.507  16.033  17.964  0.1428  0.1721 -0.0970
 3796G2FFO Tail45943  16.505  15.973  17.717 -0.1786 -0.1390 -0.1894
 3796G2FFO Tail45944  16.474  15.973  17.489  0.3162 -0.0470  0.1356
 3797G2FFO Head45945  20.175  14.851  18.868 -0.0259  0.2099 -0.1575
 3797G2FFO Head45946  20.120  15.013  19.116 -0.0565 -0.0605  0.2090
 3797G2FFO Head45947  20.506  15.243  19.067  0.0698 -0.0785 -0.0744
 3797G2FFO Head45948  20.259  15.410  19.154 -0.0247  0.3233 -0.3069
 3797G2FFO Head45949  19.938  15.289  19.096 -0.0154  0.0920 -0.4658
 3797G2FFO Head45950  19.460  15.141  19.881  0.0352  0.0291  0.1216
 3797G2FFO Head45951  19.382  15.136  19.586 -0.0667  0.1808  0.1133
 3797G2FFO Head45952  19.619  14.682  19.674  0.1599  0.0966 -0.1167
 3797G2FFO Head45953  19.764  14.844  19.463  0.1520 -0.4472 -0.2611
 3797G2FFO Head45954  19.615  15.129  19.332 -0.2902 -0.3048  0.1259
 3797G2FFO link45955  19.767  15.349  19.279  0.1690  0.6847  0.2131
 3797G2FFO link45956  19.743  15.584  19.431 -0.2483  0.2691 -0.0502
 3797G2FFO Tail45957  19.989  15.795  19.481  0.0612  0.2522 -0.1376
 3797G2FFO Tail45958  20.109  15.870  19.164  0.0462  0.1411 -0.0256
 3797G2FFO Tail45959  19.948  15.857  18.965  0.0596  0.4229 -0.2047
 3797G2FFO Tail45960  19.969  15.641  18.830 -0.0244 -0.1080  0.0507
 3797G2FFO Tail45961  20.001  15.451  18.669  0.2037  0.1405 -0.2854
 3797G2FFO Tail45962  19.955  15.257  18.540 -0.1660 -0.0543 -0.0813
 3797G2FFO Tail45963  20.184  15.533  19.618  0.3548  0.2259 -0.0593
 3797G2FFO Tail45964  20.430  15.511  19.543  0.0009  0.3918  0.5268
 3797G2FFO Tail45965  20.618  15.592  19.701  0.1486  0.1681 -0.2791
 3797G2FFO Tail45966  20.801  15.660  19.869 -0.1249 -0.1487 -0.2577
 3797G2FFO Tail45967  20.923  15.772  20.039  0.0248  0.1790 -0.0939
 3798G2FFO Head45968  17.710  20.289  16.809 -0.2474  0.1669  0.3214
 3798G2FFO Head45969  17.470  20.354  17.007  0.4413  0.4724  0.2436
 3798G2FFO Head45970  17.926  20.044  17.579  0.2430  0.2373 -0.1115
 3798G2FFO Head45971  17.810  20.231  17.320 -0.1601  0.2086  0.2310
 3798G2FFO Head45972  17.511  20.395  17.351 -0.6306  0.1491  0.0948
 3798G2FFO Head45973  17.527  20.906  17.982 -0.0486  0.0613 -0.2353
 3798G2FFO Head45974  17.618  20.659  17.802  0.0656  0.0358  0.3249
 3798G2FFO Head45975  17.070  20.770  17.826  0.1130  0.2430  0.3637
 3798G2FFO Head45976  17.191  20.527  17.962 -0.4212 -0.1741  0.1748
 3798G2FFO Head45977  17.426  20.364  17.746  0.0226  0.1297 -0.3543
 3798G2FFO link45978  17.323  20.288  17.506 -0.0662 -0.1083  0.6815
 3798G2FFO link45979  17.052  20.273  17.424  0.0851  0.0773  0.0631
 3798G2FFO Tail45980  16.911  19.971  17.406  0.2713  0.0407 -0.0356
 3798G2FFO Tail45981  16.646  20.041  17.623  0.2365 -0.1155 -0.1249
 3798G2FFO Tail45982  16.609  19.913  17.850 -0.0515 -0.0112 -0.0946
 3798G2FFO Tail45983  16.717  19.677  17.876 -0.1768  0.1006  0.0359
 3798G2FFO Tail45984  16.805  19.436  17.884  0.1536  0.1631  0.0249
 3798G2FFO Tail45985  16.856  19.214  17.948  0.1618  0.1567  0.2553
 3798G2FFO Tail45986  16.740  20.046  17.125 -0.2127  0.0239  0.2235
 3798G2FFO Tail45987  16.597  19.871  17.010 -0.0461  0.1134 -0.1055
 3798G2FFO Tail45988  16.679  19.784  16.786 -0.3898  0.1564 -0.0601
 3798G2FFO Tail45989  16.756  19.656  16.574  0.0629  0.0036  0.0456
 3798G2FFO Tail45990  16.772  19.559  16.353 -0.2734 -0.0107  0.1167
 3799G2FFO Head45991  17.832  17.214  18.520 -0.2987  0.2420  0.2628
 3799G2FFO Head45992  17.910  17.100  18.758 -0.1873  0.1473 -0.1641
 3799G2FFO Head45993  18.524  17.345  18.625 -0.4006  0.2332  0.0181
 3799G2FFO Head45994  18.288  17.169  18.575 -0.0023  0.4219  0.3326
 3799G2FFO Head45995  18.208  16.902  18.800  0.2493 -0.1449  0.2762
 3799G2FFO Head45996  18.137  16.237  18.199  0.2199 -0.2967 -0.0837
 3799G2FFO Head45997  17.893  16.414  18.336  0.1354  0.1863 -0.1892
 3799G2FFO Head45998  17.389  16.803  18.740 -0.1843 -0.1430  0.1363
 3799G2FFO Head45999  17.673  16.581  18.687  0.3949  0.0156 -0.1658
 3799G2FFO Head46000  17.972  16.680  18.562 -0.1376 -0.0182  0.1127
 3799G2FFO link46001  18.187  16.668  18.705 -0.6751  0.1665  0.0667
 3799G2FFO link46002  18.375  16.468  18.790 -0.0061  0.0192 -0.0633
 3799G2FFO Tail46003  18.385  16.418  19.114  0.3182  0.0279  0.2357
 3799G2FFO Tail46004  18.723  16.350  19.181  0.3046  0.1431  0.0385
 3799G2FFO Tail46005  18.877  16.174  19.044  0.2008  0.0583  0.2214
 3799G2FFO Tail46006  18.874  15.932  19.141 -0.0783  0.0034 -0.1828
 3799G2FFO Tail46007  18.866  15.701  19.218 -0.1409  0.0780 -0.2218
 3799G2FFO Tail46008  18.824  15.478  19.239 -0.1183 -0.0209  0.3835
 3799G2FFO Tail46009  18.275  16.104  19.108 -0.2277  0.3420  0.1295
 3799G2FFO Tail46010  18.426  15.947  18.949 -0.2996  0.3980 -0.0541
 3799G2FFO Tail46011  18.432  15.691  19.001 -0.0740 -0.3301  0.0344
 3799G2FFO Tail46012  18.396  15.447  19.028  0.1951  0.2405  0.3917
 3799G2FFO Tail46013  18.387  15.225  19.118 -0.0760 -0.4324  0.1114
 3800G2FFO Head46014  18.718  16.849  20.630  0.0643  0.2314 -0.0390
 3800G2FFO Head46015  18.795  17.112  20.495  0.0747  0.1433  0.4524
 3800G2FFO Head46016  18.870  17.547  20.596  0.2377 -0.0214 -0.1228
 3800G2FFO Head46017  18.991  17.452  20.338 -0.2725 -0.2071  0.3303
 3800G2FFO Head46018  19.099  17.118  20.301 -0.1769  0.0188 -0.3562
 3800G2FFO Head46019  19.138  17.440  20.985  0.2239 -0.1524 -0.2904
 3800G2FFO Head46020  19.098  17.180  20.828 -0.0732 -0.5023 -0.0846
 3800G2FFO Head46021  19.411  17.582  20.563 -0.1605  0.1849  0.2429
 3800G2FFO Head46022  19.486  17.332  20.726 -0.1071  0.2959  0.3070
 3800G2FFO Head46023  19.344  17.036  20.636  0.1366 -0.0074 -0.1217
 3800G2FFO link46024  19.310  16.993  20.393 -0.0831  0.9101  0.0263
 3800G2FFO link46025  19.529  16.918  20.228  0.2865  0.1024  0.0719
 3800G2FFO Tail46026  19.801  17.101  20.194  0.2366  0.1602  0.4445
 3800G2FFO Tail46027  19.610  17.405  20.167 -0.0479 -0.1763 -0.2604
 3800G2FFO Tail46028  19.371  17.403  20.069  0.1946 -0.0347  0.1128
 3800G2FFO Tail46029  19.282  17.630  19.966  0.0637  0.2440  0.0108
 3800G2FFO Tail46030  19.238  17.848  19.834 -0.0670  0.1756  0.1891
 3800G2FFO Tail46031  19.251  18.067  19.756 -0.3844  0.1191  0.0838
 3800G2FFO Tail46032  19.893  17.016  19.862  0.4160 -0.1083 -0.0996
 3800G2FFO Tail46033  20.101  17.117  19.746 -0.2942  0.1076 -0.0752
 3800G2FFO Tail46034  20.342  17.052  19.820 -0.0966  0.0998  0.0395
 3800G2FFO Tail46035  20.589  17.004  19.871 -0.0385  0.3516  0.4367
 3800G2FFO Tail46036  20.801  17.002  19.957 -0.0463 -0.0740 -0.1759
 3801G2FFO Head46037  19.744  16.742  19.431  0.0560  0.0582  0.1532
 3801G2FFO Head46038  19.450  16.666  19.462  0.3737  0.2204  0.2111
 3801G2FFO Head46039  19.193  16.590  19.107 -0.2009  0.0614  0.0366
 3801G2FFO Head46040  19.223  16.334  19.308 -0.3225  0.2201 -0.1724
 3801G2FFO Head46041  19.359  16.363  19.630 -0.1410  0.3581 -0.0301
 3801G2FFO Head46042  19.409  15.655  19.848  0.1044 -0.1828 -0.1635
 3801G2FFO Head46043  19.434  15.954  19.932 -0.0068 -0.0269 -0.1272
 3801G2FFO Head46044  19.222  15.825  20.379 -0.0286  0.2018 -0.0006
 3801G2FFO Head46045  19.171  16.120  20.284 -0.0462 -0.0552  0.2596
 3801G2FFO Head46046  19.175  16.167  19.932  0.1546 -0.0654  0.0797
 3801G2FFO link46047  19.206  16.394  19.841 -0.3896  0.0913  0.1291
 3801G2FFO link46048  19.196  16.622  20.003 -0.0848 -0.1016  0.1037
 3801G2FFO Tail46049  18.938  16.635  20.213 -0.2770  0.1884 -0.1198
 3801G2FFO Tail46050  18.800  16.335  20.118  0.1595 -0.2474  0.3514
 3801G2FFO Tail46051  18.678  16.322  19.882  0.0878  0.1446  0.2457
 3801G2FFO Tail46052  18.757  16.495  19.714  0.1748  0.1007  0.1234
 3801G2FFO Tail46053  18.827  16.700  19.578  0.0456 -0.0114 -0.1373
 3801G2FFO Tail46054  18.850  16.918  19.482  0.2215 -0.0364 -0.0219
 3801G2FFO Tail46055  18.731  16.862  20.083 -0.2777 -0.6363 -0.1012
 3801G2FFO Tail46056  18.831  17.063  19.946  0.0893  0.1043 -0.1119
 3801G2FFO Tail46057  19.081  17.062  19.866 -0.1086  0.1787  0.0758
 3801G2FFO Tail46058  19.305  17.064  19.735  0.0663 -0.1696 -0.1798
 3801G2FFO Tail46059  19.508  17.108  19.622 -0.0177 -0.0018 -0.0148
 3802G2FFO Head46060  19.651  16.316  18.045 -0.1315 -0.0820  0.1587
 3802G2FFO Head46061  19.424  16.472  17.924  0.0189  0.2943  0.1473
 3802G2FFO Head46062  19.425  16.616  18.372 -0.4272 -0.0910  0.0729
 3802G2FFO Head46063  19.151  16.550  18.303 -0.3719 -0.2743 -0.1994
 3802G2FFO Head46064  19.103  16.389  18.002  0.6535 -0.1319 -0.2373
 3802G2FFO Head46065  18.839  16.993  18.425  0.2199  0.0492  0.1681
 3802G2FFO Head46066  18.975  16.901  18.184  0.1207  0.4656  0.1257
 3802G2FFO Head46067  18.588  16.275  18.390 -0.2318  0.1263  0.3621
 3802G2FFO Head46068  18.683  16.563  18.304  0.0917 -0.2869  0.0386
 3802G2FFO Head46069  18.789  16.666  17.983  0.2602  0.2805  0.0476
 3802G2FFO link46070  18.899  16.465  17.856  0.5286 -0.0677  0.2607
 3802G2FFO link46071  18.844  16.418  17.577  0.0711 -0.4072  0.2237
 3802G2FFO Tail46072  19.014  16.209  17.408 -0.0871 -0.2357  0.6212
 3802G2FFO Tail46073  18.759  16.014  17.270  0.0382 -0.1562 -0.1041
 3802G2FFO Tail46074  18.518  16.102  17.281  0.0591 -0.0161  0.1012
 3802G2FFO Tail46075  18.332  16.003  17.142 -0.1105  0.2099 -0.0096
 3802G2FFO Tail46076  18.110  15.927  17.034 -0.1925  0.0734 -0.3140
 3802G2FFO Tail46077  17.950  15.792  16.923  0.1128 -0.0916  0.2033
 3802G2FFO Tail46078  19.085  16.399  17.108  0.3463 -0.1212 -0.1768
 3802G2FFO Tail46079  19.153  16.659  17.136 -0.0337  0.0883  0.0636
 3802G2FFO Tail46080  19.173  16.741  17.387 -0.1697  0.1192  0.0559
 3802G2FFO Tail46081  19.183  16.764  17.634 -0.0291  0.0232  0.2057
 3802G2FFO Tail46082  19.224  16.854  17.850 -0.4452 -0.1128 -0.0402
 3803G2FFO Head46083  18.357  16.809  21.066 -0.1677 -0.0888  0.1027
 3803G2FFO Head46084  18.602  16.644  21.217  0.3359  0.1640 -0.0243
 3803G2FFO Head46085  18.272  16.335  21.185 -0.2802  0.0590  0.0434
 3803G2FFO Head46086  18.504  16.336  20.945  0.0848 -0.0685  0.2651
 3803G2FFO Head46087  18.817  16.442  21.005 -0.2609 -0.2684 -0.2091
 3803G2FFO Head46088  18.665  15.532  21.036 -0.4310  0.0436 -0.1899
 3803G2FFO Head46089  18.878  15.742  21.090 -0.0925  0.3398 -0.1026
 3803G2FFO Head46090  18.857  15.645  21.564 -0.0932 -0.0224  0.0740
 3803G2FFO Head46091  18.770  15.961  21.483  0.2132  0.5833 -0.3618
 3803G2FFO Head46092  18.811  16.070  21.161 -0.1464  0.1443  0.5321
 3803G2FFO link46093  18.986  16.267  21.096 -0.0921  0.5013  0.2321
 3803G2FFO link46094  19.253  16.321  21.194  0.0013 -0.0767  0.1918
 3803G2FFO Tail46095  19.522  16.283  21.009 -0.0045 -0.2164  0.0953
 3803G2FFO Tail46096  19.368  16.071  20.781 -0.2791 -0.0017 -0.1568
 3803G2FFO Tail46097  19.121  15.978  20.790  0.0150 -0.1497 -0.3591
 3803G2FFO Tail46098  18.929  16.129  20.693  0.0080  0.0045 -0.1182
 3803G2FFO Tail46099  18.714  16.228  20.596 -0.0024  0.0070 -0.1245
 3803G2FFO Tail46100  18.529  16.278  20.456 -0.0740  0.5292 -0.0070
 3803G2FFO Tail46101  19.732  16.089  21.204 -0.2242 -0.4819  0.0452
 3803G2FFO Tail46102  19.991  16.143  21.192 -0.0609  0.0624 -0.4078
 3803G2FFO Tail46103  20.094  16.323  21.034  0.0127  0.0661  0.0531
 3803G2FFO Tail46104  20.180  16.466  20.842  0.1612 -0.1180  0.0635
 3803G2FFO Tail46105  20.239  16.549  20.621  0.4103  0.0739 -0.0750
 3804G2FFO Head46106  18.548  20.014  17.082  0.4455 -0.0916 -0.1060
 3804G2FFO Head46107  18.465  19.910  17.343  0.2508  0.2401 -0.0336
 3804G2FFO Head46108  18.902  20.207  17.325 -0.3226  0.1814  0.0865
 3804G2FFO Head46109  18.954  19.907  17.362 -0.3923  0.3287 -0.2019
 3804G2FFO Head46110  18.712  19.712  17.506  0.1621 -0.3316 -0.0254
 3804G2FFO Head46111  18.958  19.134  16.829  0.1675 -0.0195 -0.0599
 3804G2FFO Head46112  18.761  19.244  17.028 -0.1837  0.3892  0.2475
 3804G2FFO Head46113  19.425  19.388  17.284  0.1018  0.2882 -0.2718
 3804G2FFO Head46114  19.146  19.514  17.225 -0.4638 -0.1783 -0.0644
 3804G2FFO Head46115  18.858  19.348  17.345  0.2425  0.3149  0.2012
 3804G2FFO link46116  18.706  19.460  17.518 -0.0514  0.0506  0.3361
 3804G2FFO link46117  18.559  19.323  17.724  0.1133 -0.3700  0.2093
 3804G2FFO Tail46118  18.542  18.993  17.757 -0.5731  0.0245  0.2456
 3804G2FFO Tail46119  18.771  18.900  17.510  0.1435  0.3251 -0.0318
 3804G2FFO Tail46120  19.017  18.982  17.529 -0.2025 -0.0355 -0.0420
 3804G2FFO Tail46121  19.192  18.930  17.332  0.0838 -0.1156 -0.0929
 3804G2FFO Tail46122  19.388  18.887  17.179  0.0332  0.0708  0.2408
 3804G2FFO Tail46123  19.549  18.774  17.062  0.1090  0.3926  0.1442
 3804G2FFO Tail46124  18.242  18.946  17.609  0.4925 -0.2304  0.2151
 3804G2FFO Tail46125  18.052  19.133  17.622 -0.1597 -0.1842 -0.2222
 3804G2FFO Tail46126  17.883  19.135  17.826 -0.1095  0.0869 -0.3124
 3804G2FFO Tail46127  17.705  19.152  18.007  0.2082  0.2349 -0.0763
 3804G2FFO Tail46128  17.555  19.100  18.175  0.0191  0.3870 -0.2470
 3805G2FFO Head46129  15.652  14.175  17.028 -0.0921  0.0088  0.1034
 3805G2FFO Head46130  15.724  14.396  17.243  0.0705  0.1208 -0.1864
 3805G2FFO Head46131  16.157  14.468  17.369 -0.1167  0.1779 -0.2054
 3805G2FFO Head46132  15.998  14.728  17.344 -0.0915 -0.3891  0.3405
 3805G2FFO Head46133  15.706  14.736  17.143  0.3373 -0.2767 -0.3556
 3805G2FFO Head46134  15.153  14.261  17.073 -0.0237  0.0377 -0.4012
 3805G2FFO Head46135  15.076  14.565  17.058  0.0500  0.0492 -0.1377
 3805G2FFO Head46136  14.825  14.901  16.914 -0.1420 -0.5485  0.1576
 3805G2FFO Head46137  15.089  14.974  16.842 -0.4871  0.0067 -0.5843
 3805G2FFO Head46138  15.332  14.791  16.987  0.1376 -0.1345  0.0534
 3805G2FFO link46139  15.482  14.893  17.192 -0.1606  0.1711 -0.0687
 3805G2FFO link46140  15.481  15.170  17.258  0.0217  0.1665  0.1289
 3805G2FFO Tail46141  15.425  15.225  17.578  0.6208  0.1072  0.0165
 3805G2FFO Tail46142  15.529  14.905  17.691 -0.2847 -0.2354  0.1335
 3805G2FFO Tail46143  15.778  14.871  17.743  0.1076 -0.3078  0.1716
 3805G2FFO Tail46144  15.842  14.716  17.946 -0.1688  0.2072  0.3290
 3805G2FFO Tail46145  15.900  14.595  18.160  0.0883  0.3392  0.1052
 3805G2FFO Tail46146  15.896  14.464  18.361  0.1982 -0.0680 -0.0489
 3805G2FFO Tail46147  15.681  15.455  17.624  0.0612 -0.2482 -0.1092
 3805G2FFO Tail46148  15.921  15.405  17.549 -0.0030 -0.0827  0.1713
 3805G2FFO Tail46149  15.949  15.240  17.346  0.0566  0.1533 -0.0320
 3805G2FFO Tail46150  15.953  15.103  17.126 -0.0340  0.2135 -0.1166
 3805G2FFO Tail46151  15.919  15.029  16.909  0.1766 -0.1655 -0.1614
 3806G2FFO Head46152  14.707  14.470  20.422  0.1643 -0.0228  0.0284
 3806G2FFO Head46153  14.950  14.511  20.635  0.0922  0.1891  0.3803
 3806G2FFO Head46154  15.417  14.410  20.858  0.1024  0.1652  0.5826
 3806G2FFO Head46155  15.325  14.665  20.840 -0.0488 -0.1586 -0.4045
 3806G2FFO Head46156  15.179  14.772  20.560  0.2136 -0.5475 -0.7285
 3806G2FFO Head46157  14.968  15.226  21.299 -0.1583  0.0960  0.1533
 3806G2FFO Head46158  14.823  15.256  21.022 -0.3527  0.2813  0.1889
 3806G2FFO Head46159  14.950  14.497  21.126 -0.2496  0.0942  0.1735
 3806G2FFO Head46160  14.939  14.855  21.083 -0.5358  0.0085  0.1763
 3806G2FFO Head46161  14.875  14.993  20.773 -0.0332 -0.0860  0.0634
 3806G2FFO link46162  15.065  15.007  20.584 -0.2602 -0.0318 -0.1129
 3806G2FFO link46163  15.129  15.233  20.423 -0.1945 -0.2542 -0.1063
 3806G2FFO Tail46164  14.975  15.515  20.482 -0.0557 -0.4875 -0.1216
 3806G2FFO Tail46165  15.120  15.738  20.231  0.1252  0.3424  0.1698
 3806G2FFO Tail46166  15.210  15.630  20.011 -0.0556  0.1141  0.0303
 3806G2FFO Tail46167  15.284  15.798  19.824 -0.0025 -0.0978  0.2335
 3806G2FFO Tail46168  15.313  15.968  19.642 -0.3334  0.0719 -0.1402
 3806G2FFO Tail46169  15.394  16.117  19.462  0.0333  0.1527 -0.0574
 3806G2FFO Tail46170  15.161  15.599  20.776 -0.0750 -0.0881  0.3342
 3806G2FFO Tail46171  15.260  15.413  20.941 -0.0012 -0.0824 -0.0737
 3806G2FFO Tail46172  15.358  15.502  21.173  0.0429 -0.0911  0.0433
 3806G2FFO Tail46173  15.426  15.621  21.386  0.2033 -0.0890 -0.2635
 3806G2FFO Tail46174  15.502  15.669  21.607 -0.1535 -0.0768 -0.0401
 3807G2FFO Head46175  19.080  20.105  18.931 -0.0117  0.1142 -0.1086
 3807G2FFO Head46176  19.054  19.851  19.096 -0.0968  0.0555  0.0502
 3807G2FFO Head46177  18.671  19.953  18.630  0.1658  0.1364  0.1327
 3807G2FFO Head46178  18.889  19.785  18.692 -0.1186  0.0953 -0.1702
 3807G2FFO Head46179  18.868  19.590  18.985  0.0590  0.3709  0.3278
 3807G2FFO Head46180  19.727  19.513  18.982  0.2800 -0.5003 -0.1175
 3807G2FFO Head46181  19.432  19.608  18.994 -0.0321 -0.2494 -0.0636
 3807G2FFO Head46182  19.291  18.921  18.785 -0.0218  0.0323  0.2659
 3807G2FFO Head46183  19.426  19.123  18.942  0.6377 -0.4852  0.1170
 3807G2FFO Head46184  19.197  19.364  19.090 -0.2401 -0.1779  0.2722
 3807G2FFO link46185  18.955  19.366  19.003 -0.4094 -0.6843  0.1647
 3807G2FFO link46186  18.829  19.131  18.918 -0.3230 -0.0449  0.2205
 3807G2FFO Tail46187  18.715  19.135  18.618  0.0509  0.0838  0.0537
 3807G2FFO Tail46188  18.552  19.431  18.593  0.0932 -0.5770  0.2152
 3807G2FFO Tail46189  18.309  19.425  18.515  0.3058 -0.0806  0.2931
 3807G2FFO Tail46190  18.203  19.202  18.468 -0.0585  0.0338  0.2212
 3807G2FFO Tail46191  18.075  18.992  18.423 -0.1342  0.0864 -0.2447
 3807G2FFO Tail46192  17.909  18.822  18.373 -0.3262 -0.1097  0.1583
 3807G2FFO Tail46193  19.003  19.255  18.473 -0.1375 -0.2519  0.2648
 3807G2FFO Tail46194  19.113  19.452  18.586 -0.3593  0.0559 -0.1081
 3807G2FFO Tail46195  19.232  19.636  18.445  0.1018  0.0960  0.1847
 3807G2FFO Tail46196  19.311  19.816  18.283 -0.0266  0.2021 -0.1530
 3807G2FFO Tail46197  19.411  19.939  18.123 -0.1374 -0.2331  0.0834
 3808G2FFO Head46198  19.717  19.401  20.892 -0.0673 -0.0645  0.1588
 3808G2FFO Head46199  19.421  19.334  20.836  0.0067  0.3126  0.1519
 3808G2FFO Head46200  18.961  18.904  20.714 -0.4846  0.0013  0.2048
 3808G2FFO Head46201  19.240  18.942  20.859  0.2086 -0.1164 -0.1927
 3808G2FFO Head46202  19.259  19.185  21.113  0.2657  0.1380 -0.2817
 3808G2FFO Head46203  19.686  19.565  21.376  0.2953  0.3020  0.1222
 3808G2FFO Head46204  19.403  19.549  21.492 -0.1850 -0.1385 -0.0369
 3808G2FFO Head46205  19.306  19.783  20.768  0.1342 -0.1151 -0.0277
 3808G2FFO Head46206  19.364  19.689  21.079  0.0847 -0.4436  0.3117
 3808G2FFO Head46207  19.129  19.510  21.282 -0.2337  0.4319  0.2755
 3808G2FFO link46208  19.044  19.283  21.211  0.1893  0.4428  0.4508
 3808G2FFO link46209  18.779  19.198  21.142 -0.1085  0.0548  0.0136
 3808G2FFO Tail46210  18.661  18.901  21.204 -0.2381  0.1611  0.2732
 3808G2FFO Tail46211  18.968  18.731  21.219 -0.0098 -0.0118  0.0260
 3808G2FFO Tail46212  19.194  18.831  21.300 -0.1416 -0.2535  0.1187
 3808G2FFO Tail46213  19.410  18.718  21.221 -0.1508 -0.0358 -0.0106
 3808G2FFO Tail46214  19.620  18.583  21.177 -0.0436  0.0510  0.1185
 3808G2FFO Tail46215  19.784  18.421  21.143 -0.0720 -0.3637 -0.0355
 3808G2FFO Tail46216  18.613  18.927  21.539 -0.2414 -0.0116 -0.1193
 3808G2FFO Tail46217  18.393  19.015  21.647  0.1058  0.3584  0.1907
 3808G2FFO Tail46218  18.205  18.835  21.680 -0.0582  0.0157  0.1962
 3808G2FFO Tail46219  18.030  18.651  21.715  0.0292  0.4136  0.1534
 3808G2FFO Tail46220  17.839  18.514  21.690 -0.2025  0.0868 -0.1009
 3809G2FFO Head46221  18.483  19.678  19.571 -0.0305  0.3471 -0.0483
 3809G2FFO Head46222  18.349  19.725  19.846 -0.0133 -0.2902 -0.1122
 3809G2FFO Head46223  18.053  19.709  19.355 -0.4541 -0.0775 -0.1046
 3809G2FFO Head46224  18.026  19.538  19.604 -0.1011  0.1746  0.0578
 3809G2FFO Head46225  18.003  19.701  19.907 -0.0615 -0.4615 -0.1320
 3809G2FFO Head46226  18.136  20.630  20.307  0.0869 -0.6298 -0.0284
 3809G2FFO Head46227  17.913  20.405  20.160 -0.2523  0.2234 -0.1659
 3809G2FFO Head46228  18.526  20.144  19.874  0.1013 -0.2921 -0.1450
 3809G2FFO Head46229  18.277  20.273  19.973  0.3201  0.2400  0.2136
 3809G2FFO Head46230  18.023  20.078  20.083 -0.1570  0.0032 -0.0575
 3809G2FFO link46231  17.878  19.918  19.928  0.5175  0.0114 -0.6317
 3809G2FFO link46232  17.743  20.034  19.717 -0.1630  0.2413  0.1466
 3809G2FFO Tail46233  17.524  19.883  19.535 -0.3181  0.5476  0.2170
 3809G2FFO Tail46234  17.248  19.886  19.712 -0.1639  0.0128  0.0824
 3809G2FFO Tail46235  17.196  20.097  19.852 -0.1878 -0.0182  0.1173
 3809G2FFO Tail46236  17.349  20.123  20.070  0.0437 -0.0336 -0.0398
 3809G2FFO Tail46237  17.517  20.127  20.251 -0.1149 -0.0033 -0.2663
 3809G2FFO Tail46238  17.715  20.095  20.374 -0.0391 -0.3777  0.2716
 3809G2FFO Tail46239  17.577  19.538  19.576  0.0544 -0.1870 -0.2369
 3809G2FFO Tail46240  17.633  19.433  19.811 -0.4222 -0.1285  0.3176
 3809G2FFO Tail46241  17.593  19.543  20.040  0.0918 -0.0812 -0.0528
 3809G2FFO Tail46242  17.516  19.657  20.261  0.1631  0.1036  0.0694
 3809G2FFO Tail46243  17.419  19.712  20.471  0.0925  0.3661 -0.3695
 3810G2FFO Head46244  15.508  20.184  17.329 -0.1591  0.0657 -0.1363
 3810G2FFO Head46245  15.248  20.049  17.292  0.1617  0.3145 -0.3693
 3810G2FFO Head46246  14.808  20.019  17.190 -0.3004 -0.3073 -0.1806
 3810G2FFO Head46247  14.969  19.749  17.140  0.1387  0.4275  0.3093
 3810G2FFO Head46248  15.257  19.692  17.325 -0.0145  0.0419 -0.0454
 3810G2FFO Head46249  15.665  19.412  16.602 -0.0232 -0.1053  0.3063
 3810G2FFO Head46250  15.775  19.658  16.809  0.0045 -0.3095 -0.1260
 3810G2FFO Head46251  15.584  19.984  16.595 -0.2416  0.1029 -0.4655
 3810G2FFO Head46252  15.459  19.982  16.881  0.1555  0.0405  0.4557
 3810G2FFO Head46253  15.587  19.736  17.098  0.2688  0.1149 -0.0720
 3810G2FFO link46254  15.430  19.567  17.189  0.0913  0.4158 -0.4409
 3810G2FFO link46255  15.450  19.272  17.203  0.0231 -0.1020 -0.2338
 3810G2FFO Tail46256  15.707  19.082  17.295  0.0267 -0.3950 -0.2316
 3810G2FFO Tail46257  15.892  19.336  17.486  0.0877  0.1103 -0.1011
 3810G2FFO Tail46258  15.850  19.588  17.426  0.0433  0.4167  0.0601
 3810G2FFO Tail46259  15.679  19.725  17.568  0.2733 -0.2339 -0.1125
 3810G2FFO Tail46260  15.482  19.845  17.678 -0.0042  0.3724  0.1667
 3810G2FFO Tail46261  15.316  19.954  17.805 -0.2396  0.0553  0.2228
 3810G2FFO Tail46262  15.868  19.095  16.984 -0.1082 -0.0147 -0.2258
 3810G2FFO Tail46263  15.988  19.315  16.900  0.0352  0.0966 -0.0714
 3810G2FFO Tail46264  16.144  19.442  17.070  0.2481 -0.2369 -0.2056
 3810G2FFO Tail46265  16.317  19.583  17.186 -0.2358 -0.1218 -0.1599
 3810G2FFO Tail46266  16.463  19.683  17.351 -0.1218 -0.2250  0.2902
 3811G2FFO Head46267  13.742  16.521  19.195  0.1051 -0.2989  0.3236
 3811G2FFO Head46268  13.867  16.407  18.892  0.1966  0.2796  0.3024
 3811G2FFO Head46269  13.198  16.540  18.752  0.1039  0.1471 -0.0615
 3811G2FFO Head46270  13.450  16.382  18.745  0.0351  0.1473  0.1229
 3811G2FFO Head46271  13.742  16.521  18.584  0.3977  0.1743  0.1014
 3811G2FFO Head46272  14.392  16.511  17.894  0.0296 -0.2730 -0.0877
 3811G2FFO Head46273  14.058  16.588  17.901 -0.0022 -0.2356 -0.3001
 3811G2FFO Head46274  14.268  16.933  18.065 -0.0847 -0.1508 -0.0478
 3811G2FFO Head46275  14.004  16.881  18.220 -0.0448  0.1279 -0.3192
 3811G2FFO Head46276  13.849  16.572  18.170 -0.2713  0.1195 -0.3426
 3811G2FFO link46277  13.856  16.400  18.372 -0.0168 -0.1239  0.3408
 3811G2FFO link46278  14.033  16.166  18.394  0.2299  0.1314  0.0499
 3811G2FFO Tail46279  14.065  16.015  18.689 -0.0288 -0.3771  0.1885
 3811G2FFO Tail46280  14.128  15.708  18.567 -0.2872 -0.3002 -0.0433
 3811G2FFO Tail46281  13.949  15.584  18.425  0.3661 -0.2221 -0.2101
 3811G2FFO Tail46282  13.717  15.669  18.434  0.0954 -0.0917  0.1131
 3811G2FFO Tail46283  13.474  15.747  18.429  0.1526  0.0591  0.0634
 3811G2FFO Tail46284  13.265  15.826  18.486  0.3449 -0.0806  0.1379
 3811G2FFO Tail46285  13.722  15.980  18.774  0.1253 -0.2005  0.0031
 3811G2FFO Tail46286  13.644  15.777  18.925  0.2189  0.3363 -0.1291
 3811G2FFO Tail46287  13.840  15.608  18.990 -0.0554  0.1416 -0.0854
 3811G2FFO Tail46288  14.048  15.481  19.066 -0.1967  0.1789 -0.0119
 3811G2FFO Tail46289  14.265  15.419  19.120  0.0025  0.4217 -0.0826
 3812G2FFO Head46290  17.929  14.215  17.470  0.0306  0.4374  0.2969
 3812G2FFO Head46291  17.854  14.085  17.741 -0.0205 -0.2691  0.2102
 3812G2FFO Head46292  17.884  13.845  18.424  0.0236  0.3818  0.3684
 3812G2FFO Head46293  17.963  13.953  18.126  0.6478  0.1082  0.1964
 3812G2FFO Head46294  17.844  14.281  18.035  0.0557 -0.2590  0.2798
 3812G2FFO Head46295  18.478  13.900  18.178 -0.4071 -0.1657  0.2426
 3812G2FFO Head46296  18.298  14.151  18.259 -0.1622 -0.2587  0.0014
 3812G2FFO Head46297  18.459  14.167  17.580  0.0868 -0.1754 -0.3465
 3812G2FFO Head46298  18.284  14.146  17.826  0.0092  0.3333  0.3177
 3812G2FFO Head46299  18.215  14.412  18.030 -0.2534  0.4088 -0.4052
 3812G2FFO link46300  17.985  14.511  18.044  0.2303 -0.1238 -0.4375
 3812G2FFO link46301  17.916  14.782  18.008 -0.1999 -0.1809  0.3792
 3812G2FFO Tail46302  18.100  15.022  18.145 -0.1081 -0.4050  0.0183
 3812G2FFO Tail46303  18.421  14.900  18.055  0.4993  0.0272  0.4147
 3812G2FFO Tail46304  18.434  14.708  17.881 -0.0934  0.3240 -0.0391
 3812G2FFO Tail46305  18.629  14.531  17.902  0.0681  0.2103 -0.0582
 3812G2FFO Tail46306  18.804  14.351  17.948  0.0054  0.0522 -0.0403
 3812G2FFO Tail46307  18.997  14.221  18.013  0.2423 -0.0067  0.0442
 3812G2FFO Tail46308  18.091  15.298  17.912 -0.0343  0.1898  0.0451
 3812G2FFO Tail46309  18.102  15.274  17.646 -0.1249  0.0769 -0.0563
 3812G2FFO Tail46310  18.129  15.022  17.568 -0.0305 -0.1041  0.0758
 3812G2FFO Tail46311  18.176  14.778  17.517  0.2415 -0.0728 -0.1178
 3812G2FFO Tail46312  18.173  14.547  17.516  0.1798 -0.0590 -0.1409
 3813G2FFO Head46313  15.234  15.183  21.720  0.0735 -0.2259 -0.3573
 3813G2FFO Head46314  15.079  15.453  21.696  0.4368 -0.1275 -0.0421
 3813G2FFO Head46315  14.875  15.744  21.394  0.0863  0.3207  0.0661
 3813G2FFO Head46316  15.083  15.890  21.614 -0.0257  0.2998  0.2095
 3813G2FFO Head46317  15.131  15.719  21.923  0.0226  0.3852 -0.5681
 3813G2FFO Head46318  15.577  14.987  22.271 -0.0702  0.1674  0.0324
 3813G2FFO Head46319  15.364  15.212  22.213  0.2057 -0.0255 -0.0301
 3813G2FFO Head46320  15.912  15.525  22.301 -0.2344  0.0481  0.0824
 3813G2FFO Head46321  15.780  15.372  22.084 -0.0179  0.2968 -0.0611
 3813G2FFO Head46322  15.454  15.476  21.999 -0.1746 -0.0629 -0.4631
 3813G2FFO link46323  15.380  15.730  22.037  0.2746 -0.3010  0.4069
 3813G2FFO link46324  15.562  15.942  21.979  0.1722 -0.3024 -0.2631
 3813G2FFO Tail46325  15.561  16.097  21.693 -0.0797 -0.0547 -0.0095
 3813G2FFO Tail46326  15.812  16.315  21.730  0.0084  0.0087  0.5587
 3813G2FFO Tail46327  15.753  16.557  21.842  0.0196  0.2999 -0.1872
 3813G2FFO Tail46328  15.936  16.646  22.004 -0.1351  0.1018 -0.0513
 3813G2FFO Tail46329  16.137  16.697  22.160  0.1339  0.1041 -0.1301
 3813G2FFO Tail46330  16.272  16.735  22.353  0.2577 -0.0413  0.3128
 3813G2FFO Tail46331  15.293  16.298  21.769 -0.1403 -0.0751  0.1675
 3813G2FFO Tail46332  15.149  16.402  21.570 -0.3460  0.0225  0.2400
 3813G2FFO Tail46333  15.113  16.257  21.360 -0.0400 -0.1800  0.3562
 3813G2FFO Tail46334  15.024  16.156  21.139 -0.3018  0.1986  0.3149
 3813G2FFO Tail46335  14.897  16.061  20.969  0.0135  0.2989 -0.2897
 3814LEFL  Drug46336  18.699  16.247  18.003 -0.0107  0.7813 -0.0756
 3814LEFL  Drug46337  18.444  16.389  17.973 -0.2639  0.3176 -0.1705
 3814LEFL  Drug46338  18.422  16.319  17.794 -0.1533  0.1428 -0.1169
 3814LEFL  Drug46339  18.264  16.142  17.762 -0.2965  0.0368  0.2623
 3814LEFL  Drug46340  18.276  15.935  17.888  0.1512 -0.0924  0.2058
 3814LEFL  Drug46341  18.254  15.694  18.067  0.4222  0.0556  0.4423
 3814LEFL  Drug46342  18.398  15.957  18.073  0.1815  0.1956  0.1526
 3814LEFL  Drug46343  18.438  15.891  18.297  0.0279  0.0233  0.1306
 3815LEFL  Drug46344  14.795  17.889  18.255  0.1094  0.7395 -0.3301
 3815LEFL  Drug46345  15.024  18.071  18.277  0.3936  0.3510 -0.0129
 3815LEFL  Drug46346  14.975  18.118  18.457  0.1485  0.5277 -0.1233
 3815LEFL  Drug46347  14.828  18.199  18.636  0.2842  0.5364  0.2743
 3815LEFL  Drug46348  14.721  18.420  18.667 -0.2057  0.0029  0.0700
 3815LEFL  Drug46349  14.496  18.590  18.563 -0.3867 -0.0268  0.4059
 3815LEFL  Drug46350  14.643  18.560  18.822  0.1781  0.1711  0.1149
 3815LEFL  Drug46351  14.496  18.729  18.898  0.0623  0.0963  0.0574
 3816LEFL  Drug46352  16.761  19.095  21.896 -0.2560  0.1309  0.1721
 3816LEFL  Drug46353  16.571  19.279  21.769 -0.0812  0.1698 -0.0353
 3816LEFL  Drug46354  16.557  19.382  21.931 -0.0646  0.3043 -0.1189
 3816LEFL  Drug46355  16.465  19.340  22.159 -0.0229 -0.4810  0.3134
 3816LEFL  Drug46356  16.442  19.142  22.288  0.1952  0.1902 -0.2558
 3816LEFL  Drug46357  16.658  18.946  22.212  0.0936 -0.0010 -0.0558
 3816LEFL  Drug46358  16.358  18.954  22.205  0.0972  0.1454 -0.0581
 3816LEFL  Drug46359  16.381  18.751  22.086 -0.0777  0.1077 -0.0287
 3817LEFL  Drug46360  15.362  15.008  18.639 -0.2281  0.0647 -0.1232
 3817LEFL  Drug46361  15.201  14.967  18.880 -0.1178  0.1097 -0.0414
 3817LEFL  Drug46362  15.318  14.825  18.939 -0.0044  0.2225  0.0073
 3817LEFL  Drug46363  15.478  14.688  19.086 -0.2702 -0.2844  0.3538
 3817LEFL  Drug46364  15.542  14.648  19.313 -0.3715 -0.1072  0.2067
 3817LEFL  Drug46365  15.724  14.500  19.502  0.3367  0.2631 -0.1678
 3817LEFL  Drug46366  15.503  14.702  19.525  0.2570  0.1312  0.2716
 3817LEFL  Drug46367  15.554  14.729  19.755  0.2384  0.4652  0.2373
 3818LEFL  Drug46368  18.034  19.270  19.356  0.0632  0.0636 -0.5944
 3818LEFL  Drug46369  18.305  19.350  19.435  0.0024 -0.0824 -0.2330
 3818LEFL  Drug46370  18.374  19.176  19.390 -0.0733 -0.2041  0.1037
 3818LEFL  Drug46371  18.577  19.078  19.350  0.1366 -0.1413 -0.4334
 3818LEFL  Drug46372  18.800  19.094  19.354 -0.1325 -0.2507  0.1723
 3818LEFL  Drug46373  19.085  19.052  19.266 -0.1911 -0.2053 -0.0434
 3818LEFL  Drug46374  18.934  19.051  19.525 -0.0259 -0.3969  0.0537
 3818LEFL  Drug46375  19.138  18.974  19.619  0.0787 -0.2582 -0.0590
 3819LEFL  Drug46376  15.537  17.408  17.038  0.7750  0.5898  0.3454
 3819LEFL  Drug46377  15.399  17.171  17.141  0.3642  0.4098 -0.5736
 3819LEFL  Drug46378  15.392  17.247  17.318 -0.1596  0.0413 -0.4241
 3819LEFL  Drug46379  15.590  17.204  17.456 -0.0373  0.2803 -0.0096
 3819LEFL  Drug46380  15.819  17.234  17.369 -0.2340  0.0571  0.0139
 3819LEFL  Drug46381  15.810  17.519  17.466 -0.0539 -0.0381  0.3185
 3819LEFL  Drug46382  15.896  17.376  17.217 -0.2962  0.1870  0.1020
 3819LEFL  Drug46383  15.969  17.590  17.147 -0.0080  0.0597  0.0024
 3820LEFL  Drug46384  17.260  15.647  20.083  0.2403 -0.1778  0.0403
 3820LEFL  Drug46385  17.220  15.532  20.350 -0.1442 -0.2709 -0.0541
 3820LEFL  Drug46386  17.202  15.708  20.427  0.2897 -0.2736  0.0658
 3820LEFL  Drug46387  16.994  15.827  20.446  0.1388  0.0079 -0.1186
 3820LEFL  Drug46388  16.934  16.053  20.524  0.3750 -0.1618  0.3725
 3820LEFL  Drug46389  16.821  16.327  20.580  0.2508 -0.1307 -0.0217
 3820LEFL  Drug46390  17.086  16.213  20.496  0.2339 -0.1063 -0.1080
 3820LEFL  Drug46391  17.181  16.429  20.523 -0.1139  0.0179  0.1552
 3821LEFL  Drug46392  15.381  18.692  19.825 -0.3655 -0.2135 -0.3175
 3821LEFL  Drug46393  15.633  18.762  19.958 -0.3257 -0.0050 -0.5000
 3821LEFL  Drug46394  15.602  18.629  20.095 -0.2543  0.1638 -0.3182
 3821LEFL  Drug46395  15.635  18.572  20.345 -0.0172 -0.7493  0.4108
 3821LEFL  Drug46396  15.655  18.691  20.550  0.1789 -0.0271  0.2833
 3821LEFL  Drug46397  15.649  18.639  20.846  0.0769  0.5653  0.3917
 3821LEFL  Drug46398  15.538  18.845  20.659 -0.0810  0.0489 -0.0954
 3821LEFL  Drug46399  15.389  18.904  20.834  0.0518  0.1312 -0.0099
 3822LEFL  Drug46400  19.403  18.562  19.630  0.0579 -0.5468  0.2174
 3822LEFL  Drug46401  19.589  18.772  19.546 -0.2191 -0.4441 -0.1530
 3822LEFL  Drug46402  19.542  18.880  19.699 -0.5138 -0.1380 -0.4510
 3822LEFL  Drug46403  19.435  18.847  19.916  0.8577  0.0570 -0.6644
 3822LEFL  Drug46404  19.330  18.964  20.114 -0.0734 -0.0827 -0.0141
 3822LEFL  Drug46405  19.257  18.955  20.405  0.1185 -0.7697  0.0213
 3822LEFL  Drug46406  19.487  19.055  20.241 -0.0205 -0.3210  0.0938
 3822LEFL  Drug46407  19.537  19.194  20.426  0.2406 -0.1542 -0.1004
 3823LEFL  Drug46408  19.852  17.233  19.430 -0.1640  0.1046 -0.5647
 3823LEFL  Drug46409  20.043  17.061  19.291  0.0802 -0.0902 -0.0004
 3823LEFL  Drug46410  20.192  17.156  19.369 -0.0502 -0.1548  0.3334
 3823LEFL  Drug46411  20.225  17.391  19.438 -0.0953 -0.4025  0.2706
 3823LEFL  Drug46412  20.436  17.517  19.478  0.0510 -0.2120 -0.2106
 3823LEFL  Drug46413  20.658  17.582  19.286  0.0904 -0.2142 -0.1657
 3823LEFL  Drug46414  20.420  17.724  19.400  0.2689 -0.0914  0.0572
 3823LEFL  Drug46415  20.518  17.909  19.289  0.0919  0.0281  0.0965
 3824LEFL  Drug46416  19.719  17.212  20.969  0.0530  0.3388  0.4699
 3824LEFL  Drug46417  19.459  17.188  21.101  0.0363  0.0573  0.3907
 3824LEFL  Drug46418  19.542  17.120  21.261 -0.0145 -0.5996  0.1518
 3824LEFL  Drug46419  19.501  16.965  21.450  0.1051 -0.0336  0.2204
 3824LEFL  Drug46420  19.413  16.996  21.690  0.0357  0.2623  0.0289
 3824LEFL  Drug46421  19.516  16.751  21.830 -0.3089 -0.0318 -0.2233
 3824LEFL  Drug46422  19.519  17.047  21.878 -0.1303 -0.1021  0.2255
 3824LEFL  Drug46423  19.615  16.991  22.087  0.4758  0.3376  0.0780
 3825LEFL  Drug46424  20.181  17.846  21.644 -0.0448  0.1661  0.5015
 3825LEFL  Drug46425  20.335  18.034  21.481 -0.1081 -0.0666  0.1672
 3825LEFL  Drug46426  20.499  17.940  21.520 -0.0807  0.0381  0.3099
 3825LEFL  Drug46427  20.659  17.811  21.381 -0.4407 -0.4697 -0.1242
 3825LEFL  Drug46428  20.648  17.665  21.192 -0.3991  0.0640  0.4426
 3825LEFL  Drug46429  20.818  17.454  21.061 -0.4685  0.2463  0.0523
 3825LEFL  Drug46430  20.548  17.467  21.191 -0.3152  0.0217  0.3993
 3825LEFL  Drug46431  20.555  17.233  21.154  0.0220  0.1077 -0.1211
 3826LEFL  Drug46432  18.790  19.689  20.676 -0.4391 -0.1486  0.2100
 3826LEFL  Drug46433  18.802  19.701  20.384 -0.0384  0.0339  0.2311
 3826LEFL  Drug46434  18.644  19.812  20.378 -0.1861 -0.1806  0.0718
 3826LEFL  Drug46435  18.417  19.849  20.247  0.1647 -0.1700 -0.0684
 3826LEFL  Drug46436  18.205  19.800  20.363 -0.1071 -0.2812  0.0057
 3826LEFL  Drug46437  17.931  19.740  20.252 -0.3044 -0.1197  0.3944
 3826LEFL  Drug46438  18.053  19.776  20.524  0.1366 -0.3380  0.2298
 3826LEFL  Drug46439  17.833  19.771  20.610 -0.0295  0.3973 -0.1148
 3827LEFL  Drug46440  19.444  18.582  17.846  0.0888 -0.3289 -0.0879
 3827LEFL  Drug46441  19.406  18.676  17.571  0.3183  0.0881  0.0180
 3827LEFL  Drug46442  19.226  18.606  17.568  0.3043  0.1300 -0.2228
 3827LEFL  Drug46443  19.056  18.493  17.440  0.1278  0.0397  0.3769
 3827LEFL  Drug46444  18.931  18.558  17.248 -0.2639 -0.0187 -0.0299
 3827LEFL  Drug46445  18.814  18.773  17.073 -0.3714  0.0963  0.1818
 3827LEFL  Drug46446  18.919  18.495  17.036 -0.1300  0.2256 -0.1125
 3827LEFL  Drug46447  18.900  18.543  16.804 -0.1217 -0.5595 -0.2906
 3828LEFL  Drug46448  15.875  18.958  21.450  0.1690  0.3598  0.0544
 3828LEFL  Drug46449  15.986  18.819  21.217  0.0993  0.0062  0.2295
 3828LEFL  Drug46450  16.078  18.693  21.332 -0.3002 -0.1544  0.3812
 3828LEFL  Drug46451  16.239  18.685  21.527  0.1603 -0.2066  0.1185
 3828LEFL  Drug46452  16.379  18.569  21.678 -0.0125 -0.5076 -0.2117
 3828LEFL  Drug46453  16.482  18.388  21.895  0.0472  0.1911  0.3611
 3828LEFL  Drug46454  16.588  18.618  21.735 -0.1435 -0.0420 -0.1089
 3828LEFL  Drug46455  16.743  18.629  21.914 -0.0306  0.1057 -0.2140
 3829LEFL  Drug46456  16.569  19.392  16.910 -0.1379 -0.1316 -0.0290
 3829LEFL  Drug46457  16.852  19.316  16.908 -0.0858  0.0654 -0.2453
 3829LEFL  Drug46458  16.808  19.139  16.847 -0.0113  0.0286 -0.1926
 3829LEFL  Drug46459  16.874  18.898  16.790  0.1199 -0.3032 -0.2337
 3829LEFL  Drug46460  17.094  18.830  16.706 -0.4077 -0.3437 -0.0223
 3829LEFL  Drug46461  17.394  18.855  16.717 -0.4343  0.0130 -0.0594
 3829LEFL  Drug46462  17.193  18.634  16.739 -0.1828 -0.1910  0.2264
 3829LEFL  Drug46463  17.374  18.482  16.756 -0.0853 -0.1309 -0.2366
 3830LEFL  Drug46464  16.704  17.433  17.403  0.1015  0.0722  0.1804
 3830LEFL  Drug46465  16.939  17.389  17.234 -0.1936 -0.0949 -0.1914
 3830LEFL  Drug46466  16.918  17.563  17.153 -0.1499 -0.0462 -0.0980
 3830LEFL  Drug46467  16.940  17.830  17.127 -0.3962  0.3334  0.2126
 3830LEFL  Drug46468  16.849  18.046  17.111  0.1343  0.2449 -0.6033
 3830LEFL  Drug46469  16.697  18.294  17.189 -0.4133 -0.1831 -0.2801
 3830LEFL  Drug46470  16.640  18.042  17.036  0.0031 -0.3053 -0.2376
 3830LEFL  Drug46471  16.449  18.161  16.962 -0.0146 -0.1409  0.0631
 3831LEFL  Drug46472  15.590  17.688  20.693  0.3250 -0.0584  0.1470
 3831LEFL  Drug46473  15.367  17.619  20.516  0.4745 -0.3226  0.0579
 3831LEFL  Drug46474  15.388  17.784  20.418 -0.1150  0.0350  0.4979
 3831LEFL  Drug46475  15.535  17.778  20.208  0.2989 -0.2375 -0.1943
 3831LEFL  Drug46476  15.529  17.893  19.983  0.1943  0.2231 -0.3947
 3831LEFL  Drug46477  15.236  17.850  19.927  0.1557 -0.0310 -0.0190
 3831LEFL  Drug46478  15.496  17.796  19.787  0.0323  0.0241 -0.2713
 3831LEFL  Drug46479  15.348  17.758  19.605 -0.3481 -0.2059  0.0783
 3832LEFL  Drug46480  17.017  18.805  19.337 -0.1575  0.2653 -0.2764
 3832LEFL  Drug46481  16.777  18.657  19.258 -0.2244  0.2689 -0.0831
 3832LEFL  Drug46482  16.769  18.752  19.090 -0.2271  0.1100 -0.1744
 3832LEFL  Drug46483  16.943  18.829  18.940  0.2697  0.1043  0.0410
 3832LEFL  Drug46484  17.069  19.049  18.885 -0.3897  0.2734  0.4717
 3832LEFL  Drug46485  16.940  19.255  18.707  0.3599  0.2571 -0.1146
 3832LEFL  Drug46486  17.183  19.239  18.882  0.1870 -0.0630  0.1015
 3832LEFL  Drug46487  17.222  19.450  18.781  0.1301 -0.0968  0.0083
 3833LEFL  Drug46488  19.476  18.066  20.535 -0.1549  0.0226  0.1562
 3833LEFL  Drug46489  19.476  17.932  20.274  0.2147  0.4439 -0.0676
 3833LEFL  Drug46490  19.632  17.829  20.323  0.0130  0.2019  0.0774
 3833LEFL  Drug46491  19.866  17.738  20.339  0.4715  0.1809 -0.1160
 3833LEFL  Drug46492  20.017  17.633  20.178 -0.0845  0.2030  0.0527
 3833LEFL  Drug46493  20.029  17.387  20.005  0.2830  0.1849  0.1010
 3833LEFL  Drug46494  20.164  17.654  20.013 -0.1594  0.4151  0.0124
 3833LEFL  Drug46495  20.272  17.576  19.817  0.0762  0.2195  0.2168
 3834LEFL  Drug46496  18.433  17.107  21.738  0.3967 -0.1184  0.2003
 3834LEFL  Drug46497  18.440  16.853  21.592  0.1955  0.0040 -0.0242
 3834LEFL  Drug46498  18.502  16.943  21.432  0.0590  0.1257 -0.0089
 3834LEFL  Drug46499  18.712  17.062  21.394 -0.1815 -0.2340 -0.0516
 3834LEFL  Drug46500  18.824  17.244  21.513  0.1542 -0.3185  0.2014
 3834LEFL  Drug46501  18.925  17.526  21.544  0.2383 -0.3708  0.4148
 3834LEFL  Drug46502  19.030  17.267  21.435 -0.0740 -0.1767 -0.3852
 3834LEFL  Drug46503  19.238  17.381  21.439 -0.0106 -0.2959 -0.2171
 3835LEFL  Drug46504  19.225  18.135  20.314 -0.2985  0.0551  0.1188
 3835LEFL  Drug46505  19.101  17.875  20.368  0.0950 -0.2069 -0.2104
 3835LEFL  Drug46506  18.990  17.890  20.211 -0.0399 -0.1008 -0.1057
 3835LEFL  Drug46507  18.848  18.040  20.077  0.1191 -0.1168  0.0657
 3835LEFL  Drug46508  18.908  18.174  19.866 -0.0928  0.0236  0.0705
 3835LEFL  Drug46509  19.134  18.307  20.015  0.0431 -0.0229 -0.0925
 3835LEFL  Drug46510  18.951  18.377  19.788  0.4548 -0.3025 -0.5198
 3835LEFL  Drug46511  19.051  18.591  19.806 -0.0044 -0.1290  0.1851
 3836LEFL  Drug46512  18.662  15.838  18.661  0.0431 -0.1078  0.2397
 3836LEFL  Drug46513  18.630  15.547  18.644 -0.0790 -0.0789 -0.0625
 3836LEFL  Drug46514  18.728  15.542  18.478 -0.4852  0.1062 -0.3146
 3836LEFL  Drug46515  18.778  15.692  18.298 -0.0321 -0.0625  0.4100
 3836LEFL  Drug46516  19.003  15.768  18.214  0.0397 -0.2180  0.7667
 3836LEFL  Drug46517  18.920  16.057  18.233  0.0755 -0.1672  0.2168
 3836LEFL  Drug46518  19.178  15.903  18.234  0.0718 -0.1731  0.2366
 3836LEFL  Drug46519  19.280  16.106  18.302  0.2745 -0.3036  0.3267
 3837LEFL  Drug46520  15.949  16.828  17.158  0.1112  0.1908  0.2568
 3837LEFL  Drug46521  16.233  16.881  17.110  0.0225  0.1408 -0.3624
 3837LEFL  Drug46522  16.208  17.069  17.146  0.2110  0.0783  0.1302
 3837LEFL  Drug46523  16.266  17.282  17.242 -0.0758  0.0370  0.4628
 3837LEFL  Drug46524  16.209  17.337  17.456  0.1074  0.0948 -0.1443
 3837LEFL  Drug46525  16.454  17.192  17.552 -0.0709 -0.3202 -0.3036
 3837LEFL  Drug46526  16.318  17.453  17.610  0.4095 -0.0824 -0.2223
 3837LEFL  Drug46527  16.485  17.485  17.775  0.0797  0.0962  0.0843
 3838LEFL  Drug46528  15.549  15.505  19.749 -0.1550  0.2121 -0.0074
 3838LEFL  Drug46529  15.639  15.575  20.019  0.0206  0.1132 -0.0390
 3838LEFL  Drug46530  15.798  15.657  19.949 -0.2433  0.5464 -0.1493
 3838LEFL  Drug46531  15.957  15.500  19.858  0.0765 -0.0469  0.3178
 3838LEFL  Drug46532  16.137  15.497  19.682  0.2015 -0.8240 -0.5923
 3838LEFL  Drug46533  16.143  15.692  19.453 -0.1655 -0.3034 -0.1697
 3838LEFL  Drug46534  16.344  15.552  19.625  0.1030  0.1762 -0.0860
 3838LEFL  Drug46535  16.502  15.668  19.492  0.2029 -0.0813 -0.1957
 3839LEFL  Drug46536  14.647  16.538  18.434  0.1043  0.1484  0.2648
 3839LEFL  Drug46537  14.575  16.807  18.341  0.0540  0.0366 -0.0248
 3839LEFL  Drug46538  14.676  16.782  18.179  0.1314 -0.0863  0.0416
 3839LEFL  Drug46539  14.719  16.870  17.967  0.1500 -0.1859 -0.6955
 3839LEFL  Drug46540  14.859  17.006  17.824 -0.0054  0.1554  0.5528
 3839LEFL  Drug46541  15.026  17.221  17.954 -0.0475  0.6034 -0.1128
 3839LEFL  Drug46542  15.070  16.999  17.756 -0.2300  0.7071 -0.2712
 3839LEFL  Drug46543  15.275  17.114  17.724  0.2418 -0.0024  0.0674
 3840LEFL  Drug46544  15.259  15.228  19.621  0.2828  0.2977  0.8176
 3840LEFL  Drug46545  15.077  15.424  19.741 -0.6154 -0.0305  0.0464
 3840LEFL  Drug46546  15.033  15.496  19.567  0.2025  0.0526 -0.1412
 3840LEFL  Drug46547  15.006  15.742  19.491  0.3528  0.1870  0.2592
 3840LEFL  Drug46548  15.063  15.909  19.345 -0.0968  0.0058  0.1054
 3840LEFL  Drug46549  15.204  16.072  19.135 -0.1120  0.2167  0.2581
 3840LEFL  Drug46550  15.008  15.846  19.140  0.2357 -0.0935  0.0441
 3840LEFL  Drug46551  15.047  15.834  18.907 -0.2379 -0.3663 -0.0283
 3841LEFL  Drug46552  18.712  19.275  21.755 -0.3967  0.2343 -0.5261
 3841LEFL  Drug46553  18.920  19.376  21.575 -0.1732 -0.0382 -0.4228
 3841LEFL  Drug46554  18.985  19.197  21.543  0.3200 -0.0458  0.4705
 3841LEFL  Drug46555  19.213  19.128  21.619 -0.3054  0.3378 -0.0748
 3841LEFL  Drug46556  19.447  19.073  21.549  0.2695  0.0388  0.0732
 3841LEFL  Drug46557  19.689  18.912  21.470  0.2751  0.1123 -0.0612
 3841LEFL  Drug46558  19.544  19.153  21.366 -0.2849 -0.3636 -0.4113
 3841LEFL  Drug46559  19.695  19.121  21.187  0.0807 -0.0307 -0.1676
 3842LEFL  Drug46560  16.638  17.601  21.537  0.2265  0.0519  0.0633
 3842LEFL  Drug46561  16.579  17.760  21.776  0.1942  0.1826 -0.0310
 3842LEFL  Drug46562  16.555  17.600  21.882 -0.1533  0.2343 -0.0244
 3842LEFL  Drug46563  16.459  17.392  21.995  0.0735 -0.0474  0.3091
 3842LEFL  Drug46564  16.500  17.141  22.023  0.0775 -0.3483  0.3429
 3842LEFL  Drug46565  16.257  17.113  21.848  0.1207  0.1671  0.1941
 3842LEFL  Drug46566  16.508  16.957  21.899 -0.1968 -0.3232  0.2851
 3842LEFL  Drug46567  16.418  16.801  21.745 -0.3184 -0.0035  0.0276
 3843LEFL  Drug46568  15.073  17.127  16.623  0.2377  0.1191 -0.4506
 3843LEFL  Drug46569  15.138  17.085  16.906 -0.0684  0.2102 -0.3651
 3843LEFL  Drug46570  15.305  17.000  16.859 -0.2518 -0.2752 -0.1718
 3843LEFL  Drug46571  15.456  16.812  16.789 -0.1575 -0.0664 -0.2366
 3843LEFL  Drug46572  15.657  16.703  16.867  0.2196  0.2621 -0.1758
 3843LEFL  Drug46573  15.788  16.622  16.609 -0.2512 -0.0179 -0.3318
 3843LEFL  Drug46574  15.863  16.629  16.899 -0.1189 -0.8198 -0.3377
 3843LEFL  Drug46575  16.087  16.609  16.823  0.0490 -0.1971 -0.0342
 3844LEFL  Drug46576  19.775  18.057  18.058  0.2996 -0.1507  0.3049
 3844LEFL  Drug46577  19.652  17.827  17.925  0.3517 -0.2377  0.4067
 3844LEFL  Drug46578  19.633  17.735  18.093 -0.1972  0.0880  0.5343
 3844LEFL  Drug46579  19.461  17.568  18.213 -0.1103  0.1724 -0.1227
 3844LEFL  Drug46580  19.461  17.437  18.435 -0.0237 -0.3915  0.1124
 3844LEFL  Drug46581  19.575  17.230  18.621  0.2034 -0.1179  0.2822
 3844LEFL  Drug46582  19.542  17.528  18.620  0.2984 -0.1050 -0.1607
 3844LEFL  Drug46583  19.617  17.508  18.844  0.0537 -0.2701 -0.0912
 3845LEFL  Drug46584  17.281  15.814  19.764  0.3683 -0.0172  0.3318
 3845LEFL  Drug46585  17.452  15.832  19.526  0.2973  0.0667  0.2873
 3845LEFL  Drug46586  17.300  15.877  19.416  0.2327 -0.0909  0.3113
 3845LEFL  Drug46587  17.176  15.894  19.194  0.1771  0.2933  0.3154
 3845LEFL  Drug46588  17.120  16.093  19.064 -0.0885  0.1193  0.2139
 3845LEFL  Drug46589  17.191  16.260  19.304  0.1198  0.1750  0.1149
 3845LEFL  Drug46590  17.314  16.198  19.038 -0.2181  0.2940 -0.0708
 3845LEFL  Drug46591  17.452  16.388  19.071 -0.0657  0.1581  0.0848
 3846LEFL  Drug46592  15.747  19.518  19.824 -0.0586  0.2203  0.0561
 3846LEFL  Drug46593  15.843  19.310  20.006  0.6645  0.2565 -0.2655
 3846LEFL  Drug46594  15.826  19.176  19.867  0.2562  0.2555 -0.2212
 3846LEFL  Drug46595  15.708  19.025  19.703 -0.0878  0.6082 -0.2784
 3846LEFL  Drug46596  15.520  19.041  19.545 -0.0869 -0.1363 -0.1669
 3846LEFL  Drug46597  15.245  19.153  19.497  0.0137  0.2888  0.2109
 3846LEFL  Drug46598  15.369  18.880  19.519 -0.2938  0.0910 -0.3938
 3846LEFL  Drug46599  15.144  18.808  19.542 -0.2725  0.1140 -0.0884
 3847LEFL  Drug46600  17.944  16.583  16.923  0.3074 -0.0417  0.2356
 3847LEFL  Drug46601  18.052  16.469  17.170 -0.1658 -0.1467  0.3984
 3847LEFL  Drug46602  18.211  16.409  17.078  0.1264  0.1062  0.7220
 3847LEFL  Drug46603  18.276  16.381  16.858 -0.1654  0.1099  0.0872
 3847LEFL  Drug46604  18.424  16.485  16.712  0.0646 -0.3426 -0.4135
 3847LEFL  Drug46605  18.245  16.514  16.472  0.2130  0.2925 -0.4565
 3847LEFL  Drug46606  18.484  16.657  16.584  0.0383  0.1123  0.1620
 3847LEFL  Drug46607  18.482  16.764  16.373 -0.1192 -0.0039  0.1038
 3848LEFL  Drug46608  15.380  16.444  20.883  0.0789 -0.0864 -0.4258
 3848LEFL  Drug46609  15.662  16.371  20.908  0.0544 -0.0632 -0.0557
 3848LEFL  Drug46610  15.664  16.299  20.729  0.3164  0.0115 -0.0856
 3848LEFL  Drug46611  15.804  16.100  20.666 -0.0282 -0.0120  0.1978
 3848LEFL  Drug46612  15.811  15.889  20.793  0.3066 -0.1868  0.3436
 3848LEFL  Drug46613  15.576  15.724  20.882 -0.1295  0.2031 -0.0606
 3848LEFL  Drug46614  15.872  15.723  20.928 -0.1316 -0.6302  0.0152
 3848LEFL  Drug46615  15.827  15.569  21.103  0.1025 -0.1587  0.5044
 3849LEFL  Drug46616  16.552  15.669  15.714  0.0783  0.0340  0.0297
 3849LEFL  Drug46617  16.428  15.933  15.686  0.1171  0.0747  0.2310
 3849LEFL  Drug46618  16.543  16.006  15.824 -0.1839 -0.1570  0.6123
 3849LEFL  Drug46619  16.725  16.078  15.980  0.2410 -0.0748 -0.0792
 3849LEFL  Drug46620  16.745  16.098  16.217  0.2945  0.1964  0.1611
 3849LEFL  Drug46621  16.724  16.397  16.194 -0.2435  0.1339 -0.2545
 3849LEFL  Drug46622  16.590  16.181  16.353  0.0425  0.0957 -0.0610
 3849LEFL  Drug46623  16.520  16.361  16.489  0.1580  0.1689 -0.0982
 3850LEFL  Drug46624  19.467  17.754  19.514  0.2371 -0.1899  0.7261
 3850LEFL  Drug46625  19.461  17.483  19.625  0.4240 -0.5057 -0.0039
 3850LEFL  Drug46626  19.291  17.447  19.540  0.1071 -0.1408  0.4483
 3850LEFL  Drug46627  19.040  17.456  19.658  0.2482  0.2766 -0.0676
 3850LEFL  Drug46628  18.926  17.425  19.860  0.1572 -0.4583  0.2736
 3850LEFL  Drug46629  18.630  17.393  19.898  0.0932 -0.0127  0.1769
 3850LEFL  Drug46630  18.845  17.574  20.003  0.1978  0.1616 -0.3193
 3850LEFL  Drug46631  18.672  17.655  20.144  0.1810 -0.1659 -0.1459
 3851LEFL  Drug46632  18.557  15.906  20.889 -0.0655 -0.0312  0.4092
 3851LEFL  Drug46633  18.274  15.910  20.964 -0.1033  0.4342  0.2560
 3851LEFL  Drug46634  18.223  15.840  20.792 -0.0929  0.1968  0.3472
 3851LEFL  Drug46635  18.235  15.927  20.575  0.1119 -0.5165  0.4456
 3851LEFL  Drug46636  18.088  15.933  20.381  0.1645 -0.0813  0.1058
 3851LEFL  Drug46637  17.805  16.023  20.335  0.1124 -0.1696  0.2494
 3851LEFL  Drug46638  18.078  16.146  20.320  0.0726 -0.1053  0.0350
 3851LEFL  Drug46639  17.981  16.321  20.193 -0.2568 -0.3668 -0.0815
 3852LEFL  Drug46640  14.742  16.086  18.300  0.0466  0.1740  0.0860
 3852LEFL  Drug46641  14.982  16.136  18.460  0.0700 -0.2526  0.1888
 3852LEFL  Drug46642  14.895  16.069  18.619 -0.0854 -0.1860  0.1326
 3852LEFL  Drug46643  14.818  16.170  18.844 -0.2722 -0.0422 -0.0942
 3852LEFL  Drug46644  14.736  16.150  19.076 -0.0157  0.3285  0.0930
 3852LEFL  Drug46645  14.821  16.175  19.363  0.1292 -0.1159  0.0924
 3852LEFL  Drug46646  14.571  16.225  19.205  0.1784  0.5548  0.2130
 3852LEFL  Drug46647  14.459  16.234  19.413 -0.3805  0.0655 -0.0523
 3853LEFL  Drug46648  20.556  17.819  19.694  0.0222  0.2120 -0.1131
 3853LEFL  Drug46649  20.782  17.754  19.519  0.2318 -0.0306  0.2431
 3853LEFL  Drug46650  20.862  17.927  19.552  0.1919  0.0156  0.1018
 3853LEFL  Drug46651  20.851  18.131  19.403  0.4979  0.3583 -0.3132
 3853LEFL  Drug46652  20.737  18.175  19.181 -0.2713 -0.2182  0.0340
 3853LEFL  Drug46653  20.870  17.952  19.027 -0.1403  0.1912 -0.4588
 3853LEFL  Drug46654  20.633  18.132  18.989 -0.0963  0.3080 -0.1862
 3853LEFL  Drug46655  20.592  17.985  18.809 -0.1129 -0.0596  0.1128
 3854LEFL  Drug46656  16.493  15.969  16.927 -0.0543  0.1219  0.1617
 3854LEFL  Drug46657  16.594  15.809  17.151 -0.1541  0.1283  0.2112
 3854LEFL  Drug46658  16.745  15.927  17.171 -0.1822  0.1496  0.2993
 3854LEFL  Drug46659  16.939  15.849  17.025 -0.1136  0.2077  0.2644
 3854LEFL  Drug46660  17.168  15.938  16.951  0.1583 -0.0765 -0.0477
 3854LEFL  Drug46661  17.357  16.162  17.022  0.1882 -0.1477  0.0982
 3854LEFL  Drug46662  17.345  15.865  17.064 -0.0361 -0.1205  0.2317
 3854LEFL  Drug46663  17.543  15.907  17.187  0.1824 -0.0961 -0.1263
 3855LEFL  Drug46664  18.101  17.510  18.769  0.3050  0.0836  0.3236
 3855LEFL  Drug46665  17.985  17.774  18.715  0.5059  0.1172  0.0477
 3855LEFL  Drug46666  17.943  17.722  18.534 -0.0614 -0.2443  0.2693
 3855LEFL  Drug46667  17.735  17.709  18.427 -0.3072 -0.1554 -0.1363
 3855LEFL  Drug46668  17.612  17.902  18.324  0.2858  0.2563  0.0282
 3855LEFL  Drug46669  17.457  17.953  18.072  0.2786 -0.2484 -0.0752
 3855LEFL  Drug46670  17.652  18.104  18.242  0.1382  0.1654 -0.2748
 3855LEFL  Drug46671  17.643  18.262  18.066 -0.1597  0.2320 -0.2029
 3856LEFL  Drug46672  17.299  16.463  16.372  0.0545  0.1273 -0.2414
 3856LEFL  Drug46673  17.427  16.414  16.631  0.2236  0.2278 -0.3049
 3856LEFL  Drug46674  17.264  16.459  16.724 -0.0259 -0.6920 -0.2492
 3856LEFL  Drug46675  17.270  16.627  16.892  0.1025  0.0773 -0.1510
 3856LEFL  Drug46676  17.429  16.810  16.963  0.4421 -0.4532  0.0954
 3856LEFL  Drug46677  17.668  16.722  16.802  0.5228  0.1290 -0.1168
 3856LEFL  Drug46678  17.539  16.983  16.875  0.1607 -0.1619  0.3061
 3856LEFL  Drug46679  17.700  17.086  16.736 -0.2884  0.0638 -0.0587
 3857LEFL  Drug46680  20.195  16.719  17.855  0.2909  0.0543 -0.2201
 3857LEFL  Drug46681  19.995  16.528  17.951  0.2219  0.2606  0.0507
 3857LEFL  Drug46682  20.024  16.415  17.797 -0.0513  0.1940  0.0454
 3857LEFL  Drug46683  19.868  16.392  17.623  0.0798  0.1760 -0.5238
 3857LEFL  Drug46684  19.649  16.287  17.577 -0.2946 -0.0474  0.4692
 3857LEFL  Drug46685  19.361  16.332  17.500 -0.2589  0.0559  0.3949
 3857LEFL  Drug46686  19.621  16.285  17.357 -0.2720 -0.2446  0.4675
 3857LEFL  Drug46687  19.493  16.305  17.158  0.2628 -0.1652  0.1239
 3858LEFL  Drug46688  18.098  15.544  19.711  0.2126  0.1910  0.0643
 3858LEFL  Drug46689  18.091  15.302  19.545  0.0029  0.1103  0.1894
 3858LEFL  Drug46690  18.271  15.335  19.482  0.0080 -0.0425  0.1214
 3858LEFL  Drug46691  18.483  15.250  19.564  0.0346 -0.0317  0.1122
 3858LEFL  Drug46692  18.684  15.393  19.557 -0.2162  0.2125  0.0931
 3858LEFL  Drug46693  18.714  15.430  19.854  0.0321  0.2346  0.0662
 3858LEFL  Drug46694  18.897  15.391  19.620 -0.1572  0.3259 -0.0982
 3858LEFL  Drug46695  19.067  15.401  19.785 -0.3112  0.0786  0.0779
 3859LEFL  Drug46696  18.641  18.527  21.376 -0.5535 -0.1463 -0.3145
 3859LEFL  Drug46697  18.465  18.493  21.608  0.0473  0.0051  0.1764
 3859LEFL  Drug46698  18.616  18.454  21.722  0.3486  0.0752 -0.1905
 3859LEFL  Drug46699  18.780  18.638  21.808 -0.0931  0.5384  0.2053
 3859LEFL  Drug46700  18.973  18.758  21.739  0.2694  0.3625 -0.3330
 3859LEFL  Drug46701  19.149  18.591  21.918 -0.2156 -0.1186 -0.2928
 3859LEFL  Drug46702  19.161  18.696  21.637  0.3124  0.1989 -0.1591
 3859LEFL  Drug46703  19.392  18.647  21.648  0.2039 -0.3007  0.0229
 3860LEFL  Drug46704  18.779  16.148  16.586 -0.1339 -0.3630  0.5280
 3860LEFL  Drug46705  18.723  16.246  16.857  0.3566  0.2411  0.4219
 3860LEFL  Drug46706  18.777  16.425  16.808 -0.1209  0.2289 -0.1934
 3860LEFL  Drug46707  18.684  16.600  16.974 -0.1287 -0.0121 -0.5056
 3860LEFL  Drug46708  18.664  16.612  17.209  0.0793 -0.2356  0.2097
 3860LEFL  Drug46709  18.559  16.756  17.451  0.2493 -0.1360  0.2248
 3860LEFL  Drug46710  18.506  16.495  17.313 -0.0255 -0.0816  0.2251
 3860LEFL  Drug46711  18.316  16.477  17.452 -0.2161 -0.1027 -0.0353
 3861LEFL  Drug46712  17.143  19.854  20.297  0.4061  0.0930  0.2431
 3861LEFL  Drug46713  17.059  19.607  20.430 -0.0257 -0.0282 -0.2426
 3861LEFL  Drug46714  16.901  19.693  20.499  0.2113  0.1646  0.0689
 3861LEFL  Drug46715  16.733  19.886  20.527 -0.0269 -0.0703 -0.6020
 3861LEFL  Drug46716  16.531  19.960  20.410 -0.2647 -0.1219  0.1904
 3861LEFL  Drug46717  16.508  19.780  20.169 -0.2867 -0.0054  0.1047
 3861LEFL  Drug46718  16.349  20.003  20.291 -0.3838 -0.2029  0.3438
 3861LEFL  Drug46719  16.219  19.982  20.094 -0.0911  0.1431  0.1083
 3862LEFL  Drug46720  16.691  15.977  21.215 -0.6261 -0.1501  0.1593
 3862LEFL  Drug46721  16.751  16.264  21.222 -0.0414 -0.2580 -0.1711
 3862LEFL  Drug46722  16.900  16.234  21.341 -0.1008 -0.4245 -0.1380
 3862LEFL  Drug46723  17.061  16.397  21.471  0.0459  0.0192 -0.0004
 3862LEFL  Drug46724  17.309  16.399  21.438  0.2123 -0.2463 -0.0493
 3862LEFL  Drug46725  17.225  16.517  21.174 -0.0726 -0.4847 -0.0665
 3862LEFL  Drug46726  17.448  16.343  21.275  0.4738  0.2337 -0.0015
 3862LEFL  Drug46727  17.494  16.310  21.044  0.2508  0.0681 -0.0241
 3863LEFL  Drug46728  18.753  17.778  17.140  0.0071 -0.1397  0.1419
 3863LEFL  Drug46729  18.496  17.877  17.041  0.2604  0.3755 -0.0166
 3863LEFL  Drug46730  18.439  17.919  17.220 -0.0837 -0.2842  0.0426
 3863LEFL  Drug46731  18.436  17.901  17.462 -0.1027  0.1029  0.0243
 3863LEFL  Drug46732  18.438  18.005  17.691  0.0228 -0.0807 -0.0214
 3863LEFL  Drug46733  18.276  17.912  17.927  0.1029  0.1461  0.1235
 3863LEFL  Drug46734  18.252  18.124  17.716  0.1595  0.1141  0.0845
 3863LEFL  Drug46735  18.043  18.168  17.818  0.0368  0.0203 -0.1214
 3864LEFL  Drug46736  18.466  15.643  19.674 -0.4170 -0.1315 -0.0839
 3864LEFL  Drug46737  18.336  15.731  19.426 -0.0307 -0.0764 -0.2704
 3864LEFL  Drug46738  18.495  15.825  19.371  0.1376 -0.2682 -0.1172
 3864LEFL  Drug46739  18.564  16.043  19.473  0.0378 -0.4057 -0.0913
 3864LEFL  Drug46740  18.767  16.076  19.605  0.3214  0.1824  0.6868
 3864LEFL  Drug46741  18.866  15.792  19.610  0.1331  0.0918 -0.1142
 3864LEFL  Drug46742  18.985  16.063  19.564  0.0862  0.0101 -0.7642
 3864LEFL  Drug46743  19.182  15.934  19.542  0.1457 -0.0106 -0.1932
 3865LEFL  Drug46744  17.893  18.528  19.153  0.2843  0.1165 -0.3215
 3865LEFL  Drug46745  17.932  18.428  19.426 -0.1614 -0.2418 -0.3841
 3865LEFL  Drug46746  17.747  18.461  19.469 -0.1320  0.1113 -0.5130
 3865LEFL  Drug46747  17.545  18.607  19.446  0.0049 -0.0635 -0.0171
 3865LEFL  Drug46748  17.401  18.743  19.547  0.3553 -0.1471  0.0711
 3865LEFL  Drug46749  17.508  18.813  19.819 -0.2470  0.0182  0.2701
 3865LEFL  Drug46750  17.350  18.951  19.604  0.4563 -0.0198 -0.2872
 3865LEFL  Drug46751  17.298  19.105  19.776  0.3084 -0.3010 -0.0763
 3866LEFL  Drug46752  19.204  15.672  17.893  0.0709 -0.0976 -0.1151
 3866LEFL  Drug46753  18.996  15.467  17.880  0.1073 -0.1425  0.0012
 3866LEFL  Drug46754  19.128  15.327  17.876  0.1377 -0.1098 -0.1717
 3866LEFL  Drug46755  19.366  15.293  17.915  0.0119  0.0217 -0.0035
 3866LEFL  Drug46756  19.473  15.263  18.133  0.4182  0.1420  0.0879
 3866LEFL  Drug46757  19.585  15.246  18.412  0.0176  0.2702  0.2593
 3866LEFL  Drug46758  19.537  15.056  18.184 -0.0418  0.0790  0.4304
 3866LEFL  Drug46759  19.592  14.883  18.336 -0.2188 -0.4962 -0.1444
 3867LEFL  Drug46760  16.680  18.525  20.980  0.1434  0.1087 -0.3224
 3867LEFL  Drug46761  16.405  18.441  21.035  0.2786 -0.6184 -0.7052
 3867LEFL  Drug46762  16.453  18.386  21.214  0.0478  0.1537 -0.3880
 3867LEFL  Drug46763  16.518  18.320  21.433  0.0585  0.1311  0.1740
 3867LEFL  Drug46764  16.399  18.228  21.597 -0.2490  0.0521 -0.4545
 3867LEFL  Drug46765  16.366  17.929  21.597 -0.1416  0.0375 -0.0866
 3867LEFL  Drug46766  16.271  18.159  21.765  0.1666  0.1637 -0.0830
 3867LEFL  Drug46767  16.188  17.992  21.912  0.2350  0.1889 -0.0160
 3868LEFL  Drug46768  16.290  17.611  18.498 -0.1386 -0.4510  0.0375
 3868LEFL  Drug46769  16.317  17.502  18.227 -0.3405  0.1283 -0.2222
 3868LEFL  Drug46770  16.357  17.677  18.157  0.0871  0.2093  0.2039
 3868LEFL  Drug46771  16.221  17.723  17.934  0.3288 -0.2538 -0.5222
 3868LEFL  Drug46772  16.054  17.566  17.872  0.0592  0.1176  0.3887
 3868LEFL  Drug46773  15.943  17.322  17.735  0.5443  0.0850  0.0431
 3868LEFL  Drug46774  15.835  17.547  17.901 -0.0014 -0.0431 -0.1294
 3868LEFL  Drug46775  15.622  17.477  17.822 -0.0076  0.0417 -0.1895
 3869LEFL  Drug46776  15.282  17.458  18.038  0.3391  0.3659 -0.0481
 3869LEFL  Drug46777  15.354  17.183  18.109 -0.0832  0.2110 -0.2022
 3869LEFL  Drug46778  15.540  17.220  18.075  0.0162  0.0393  0.1324
 3869LEFL  Drug46779  15.677  17.027  17.991 -0.1142 -0.0882  0.1602
 3869LEFL  Drug46780  15.849  16.892  18.117  0.3080  0.4845  0.4424
 3869LEFL  Drug46781  16.069  16.766  18.280  0.0364 -0.3831  0.1584
 3869LEFL  Drug46782  15.770  16.743  18.261  0.0230  0.0168 -0.1810
 3869LEFL  Drug46783  15.786  16.608  18.455 -0.3607  0.0280 -0.1386
 3870LEFL  Drug46784  19.871  18.555  20.278 -0.1843  0.2420  0.4039
 3870LEFL  Drug46785  20.108  18.592  20.445  0.0535 -0.1268  0.1551
 3870LEFL  Drug46786  20.141  18.766  20.367  0.3923 -0.2846 -0.0630
 3870LEFL  Drug46787  20.232  18.963  20.286  0.0545 -0.3789 -0.2613
 3870LEFL  Drug46788  20.330  19.031  20.073  0.1613 -0.1169  0.2746
 3870LEFL  Drug46789  20.600  19.101  20.187  0.4275  0.1222 -0.4800
 3870LEFL  Drug46790  20.483  18.878  20.024  0.3712  0.4050 -0.8330
 3870LEFL  Drug46791  20.697  18.783  20.062  0.0724 -0.0650 -0.2360
 3871LEFL  Drug46792  17.154  17.688  17.994 -0.4120  0.1118  0.0996
 3871LEFL  Drug46793  17.251  17.732  18.266 -0.3461 -0.2725  0.1411
 3871LEFL  Drug46794  17.382  17.592  18.246 -0.1146 -0.0142 -0.2135
 3871LEFL  Drug46795  17.426  17.383  18.355 -0.1591  0.0657 -0.0983
 3871LEFL  Drug46796  17.268  17.194  18.364 -0.0627 -0.0166  0.1267
 3871LEFL  Drug46797  17.018  17.030  18.328 -0.1564  0.1543 -0.0076
 3871LEFL  Drug46798  17.293  17.037  18.208 -0.0329 -0.1369  0.2512
 3871LEFL  Drug46799  17.211  16.891  18.041  0.1150 -0.0155  0.0708
 3872LEFL  Drug46800  16.238  18.987  18.511  0.5998 -0.1200  0.5745
 3872LEFL  Drug46801  16.127  19.188  18.694 -0.0998 -0.0960  0.1432
 3872LEFL  Drug46802  16.304  19.257  18.730 -0.2925  0.3025  0.3432
 3872LEFL  Drug46803  16.492  19.401  18.802  0.1013  0.4864  0.3159
 3872LEFL  Drug46804  16.695  19.351  18.924  0.0634 -0.1631  0.1151
 3872LEFL  Drug46805  16.932  19.402  19.103  0.0083 -0.5125  0.2903
 3872LEFL  Drug46806  16.718  19.193  19.078 -0.1753 -0.2951  0.0172
 3872LEFL  Drug46807  16.823  19.098  19.268  0.0493  0.1735  0.1327
 3873LEFL  Drug46808  14.697  15.542  17.953  0.0438  0.2154 -0.5131
 3873LEFL  Drug46809  14.882  15.756  18.032 -0.1316  0.2130 -0.0806
 3873LEFL  Drug46810  14.810  15.758  18.211 -0.1745 -0.1681 -0.0905
 3873LEFL  Drug46811  14.995  15.749  18.366  0.3879  0.1359  0.0156
 3873LEFL  Drug46812  15.169  15.827  18.523 -0.0862 -0.2181 -0.3941
 3873LEFL  Drug46813  15.321  15.995  18.721 -0.1615  0.1975 -0.6831
 3873LEFL  Drug46814  15.313  15.706  18.642 -0.3711 -0.0375  0.1495
 3873LEFL  Drug46815  15.447  15.676  18.834  0.0859  0.0911 -0.1419
 3874LEFL  Drug46816  14.982  16.376  20.773 -0.7033 -0.2226  0.1576
 3874LEFL  Drug46817  14.953  16.552  21.006  0.1876  0.2607 -0.0740
 3874LEFL  Drug46818  14.851  16.679  20.902  0.1624  0.2575 -0.0534
 3874LEFL  Drug46819  14.753  16.878  20.987  0.3634 -0.5957  0.0512
 3874LEFL  Drug46820  14.791  17.042  21.151  0.1287 -0.0096  0.1359
 3874LEFL  Drug46821  14.757  17.076  21.448 -0.5088  0.1946  0.0461
 3874LEFL  Drug46822  14.807  17.255  21.212  0.6485 -0.0304  0.0946
 3874LEFL  Drug46823  14.806  17.432  21.370  0.0343 -0.0194  0.0879
 3875LEFL  Drug46824  17.613  16.783  19.425 -0.4845  0.2947 -0.0761
 3875LEFL  Drug46825  17.482  16.721  19.680 -0.1408  0.0503  0.0464
 3875LEFL  Drug46826  17.645  16.647  19.751  0.0426  0.2779 -0.1302
 3875LEFL  Drug46827  17.790  16.469  19.860  0.0784  0.3353 -0.1586
 3875LEFL  Drug46828  17.973  16.318  19.785 -0.0770 -0.2999 -0.0707
 3875LEFL  Drug46829  18.257  16.243  19.853 -0.0282  0.1770  0.2790
 3875LEFL  Drug46830  18.120  16.436  19.668 -0.1298 -0.1047  0.0566
 3875LEFL  Drug46831  18.339  16.472  19.583 -0.1255 -0.0356  0.0973
 3876LEFL  Drug46832  15.016  16.156  16.378 -0.3206 -0.1173 -0.1376
 3876LEFL  Drug46833  14.827  16.211  16.595 -0.0732 -0.1320  0.0838
 3876LEFL  Drug46834  14.921  16.374  16.641 -0.1711  0.0003 -0.1801
 3876LEFL  Drug46835  15.075  16.575  16.645  0.0677  0.2031 -0.0207
 3876LEFL  Drug46836  15.272  16.590  16.527  0.1022 -0.6033  0.0525
 3876LEFL  Drug46837  15.214  16.491  16.249  0.0419 -0.3338 -0.0328
 3876LEFL  Drug46838  15.442  16.626  16.389 -0.1021 -0.0491 -0.0691
 3876LEFL  Drug46839  15.532  16.651  16.171  0.0142 -0.2398 -0.0441
 3877LEFL  Drug46840  19.942  17.215  18.797 -0.0622  0.3084 -0.1327
 3877LEFL  Drug46841  20.012  17.346  19.049 -0.1415  0.1559 -0.0308
 3877LEFL  Drug46842  20.197  17.295  19.028 -0.1228  0.2272 -0.0378
 3877LEFL  Drug46843  20.435  17.365  18.984 -0.0345 -0.2830  0.0422
 3877LEFL  Drug46844  20.446  17.588  18.859 -0.3437 -0.7001 -0.5758
 3877LEFL  Drug46845  20.298  17.682  19.104  0.2614 -0.0252 -0.4544
 3877LEFL  Drug46846  20.249  17.675  18.808 -0.0127  0.1911 -0.4153
 3877LEFL  Drug46847  20.018  17.684  18.863  0.0596  0.2358 -0.1132
 3878LEFL  Drug46848  17.605  18.137  16.691 -0.0569 -0.0360  0.0356
 3878LEFL  Drug46849  17.576  17.916  16.882 -0.0735 -0.0986 -0.0389
 3878LEFL  Drug46850  17.685  18.009  17.011  0.0436 -0.2081 -0.0576
 3878LEFL  Drug46851  17.649  18.105  17.233 -0.1744  0.2243  0.2258
 3878LEFL  Drug46852  17.561  18.270  17.390  0.1505 -0.2467 -0.2592
 3878LEFL  Drug46853  17.681  18.308  17.664  0.2141  0.6145 -0.3921
 3878LEFL  Drug46854  17.446  18.162  17.546  0.2904  0.0901  0.0844
 3878LEFL  Drug46855  17.394  18.122  17.774 -0.1246 -0.0087 -0.0249
 3879LEFL  Drug46856  20.110  16.391  22.042 -0.0880  0.2793  0.0650
 3879LEFL  Drug46857  20.200  16.210  21.830 -0.0214  0.1278  0.2217
 3879LEFL  Drug46858  20.018  16.179  21.774 -0.0059  0.0687  0.2028
 3879LEFL  Drug46859  19.854  16.059  21.674 -0.3559 -0.1034  0.5783
 3879LEFL  Drug46860  19.603  16.027  21.675  0.1258  0.1876 -0.0246
 3879LEFL  Drug46861  19.441  15.784  21.600  0.4115 -0.1777  0.5082
 3879LEFL  Drug46862  19.410  16.082  21.580 -0.0339 -0.2487  0.0352
 3879LEFL  Drug46863  19.180  16.040  21.544 -0.0507 -0.0594 -0.0869
 3880LEFL  Drug46864  17.691  17.644  17.467  0.0127  0.0604  0.0269
 3880LEFL  Drug46865  17.803  17.913  17.505 -0.1715  0.2219 -0.5267
 3880LEFL  Drug46866  17.688  17.943  17.657 -0.0514  0.3779 -0.4655
 3880LEFL  Drug46867  17.759  17.793  17.853 -0.0332  0.4425  0.0619
 3880LEFL  Drug46868  17.638  17.666  18.016  0.1289  0.1721 -0.0557
 3880LEFL  Drug46869  17.815  17.448  18.125  0.1700  0.1654 -0.1360
 3880LEFL  Drug46870  17.569  17.464  17.954  0.1344  0.1782 -0.0838
 3880LEFL  Drug46871  17.557  17.231  17.997 -0.0992  0.2430  0.2132
 3881W        W46872  25.229  27.008  25.044  0.2732 -0.0240 -0.2679
 3882W        W46873  29.972  26.844  15.619 -0.0524 -0.3179 -0.1044
 3883W        W46874  13.796   3.602  21.668  0.2106 -0.0300  0.1796
 3884W        W46875   1.533   0.181  20.044  0.0726 -0.1986  0.1807
 3885W        W46876  12.462  31.387   1.407  0.0749  0.0245 -0.1099
 3886W        W46877  31.511   6.776  21.023 -0.0781 -0.1238 -0.0831
 3887W        W46878   9.619  21.294  24.655 -0.0340 -0.3302 -0.1110
 3888W        W46879   3.693   8.909  16.163  0.1173  0.0332 -0.2999
 3889W        W46880  11.008  29.088  22.782  0.1648  0.0584 -0.0225
 3890W        W46881  22.770   4.027  15.066  0.3425 -0.3085  0.3174
 3891W        W46882   8.981  32.854  23.143  0.0081  0.0920 -0.2733
 3892W        W46883   4.386  12.271  23.155 -0.2535 -0.0818  0.2447
 3893W        W46884  10.653   2.446  24.578  0.1429  0.0936  0.0186
 3894W        W46885  29.742  28.691  19.639  0.0505 -0.1960  0.2962
 3895W        W46886  34.698   4.537  18.980  0.2118 -0.0095 -0.2391
 3896W        W46887  15.021   1.752  20.079  0.0620  0.3159 -0.0377
 3897W        W46888  31.339   3.230  21.386 -0.0757 -0.1079  0.1381
 3898W        W46889   9.420   5.830  17.624 -0.3433 -0.2367 -0.2184
 3899W        W46890  27.305  15.518  14.743 -0.2682 -0.3233  0.2128
 3900W        W46891  30.086  12.214  25.188 -0.2267 -0.1108  0.0769
 3901W        W46892  12.263  32.722  26.869  0.1600 -0.1875 -0.1821
 3902W        W46893  27.345  17.168  13.692 -0.0538  0.4098  0.2943
 3903W        W46894  31.085   3.981  28.887  0.5079 -0.0465  0.2736
 3904W        W46895  21.319  17.061   4.262 -0.2107 -0.1073 -0.0095
 3905W        W46896  27.145  13.239  24.762  0.2453  0.1645  0.0808
 3906W        W46897   3.807  29.634  19.470  0.0997 -0.0986  0.0107
 3907W        W46898  19.585   6.481   1.280 -0.0063  0.4101  0.1595
 3908W        W46899   1.566  11.640  17.196  0.0446 -0.0215 -0.0744
 3909W        W46900  13.411  12.183  24.778 -0.1177  0.2334 -0.1722
 3910W        W46901   0.025  28.731  18.045  0.1342 -0.1730  0.0773
 3911W        W46902   9.709   8.073  24.026  0.1687 -0.0161 -0.1482
 3912W        W46903   2.170  14.355  27.462  0.3095 -0.1772 -0.2268
 3913W        W46904   5.316  32.835  26.498 -0.4493  0.1911  0.0844
 3914W        W46905   3.683   7.407  24.105 -0.4163 -0.3308  0.1709
 3915W        W46906   0.760  27.650  24.451 -0.2246 -0.3590 -0.2740
 3916W        W46907   1.974   5.487  14.951  0.0754  0.1335 -0.2188
 3917W        W46908   5.912  33.143  21.305 -0.1311 -0.0211  0.0633
 3918W        W46909   0.538  34.501  18.984 -0.0268  0.1759  0.1057
 3919W        W46910  25.100  23.820  16.785  0.0153  0.1410  0.2028
 3920W        W46911   1.518  29.800  16.598  0.3179  0.1615 -0.3716
 3921W        W46912  10.412   7.807  23.026 -0.1694 -0.3672 -0.2684
 3922W        W46913  31.849  30.721  12.861  0.2300 -0.1647 -0.2949
 3923W        W46914  33.842  25.418   3.888 -0.0274 -0.0247 -0.0381
 3924W        W46915   5.079  13.315  25.655  0.1526 -0.0498 -0.0175
 3925W        W46916  34.694   7.342  15.381 -0.1372 -0.1459  0.0024
 3926W        W46917  32.349  30.607  20.998  0.1289 -0.4044  0.0518
 3927W        W46918   0.290  30.268  26.768  0.1090 -0.2435 -0.2584
 3928W        W46919   9.246  14.306  29.098  0.2046  0.2256 -0.4542
 3929W        W46920   0.847  33.597  22.877 -0.1223 -0.0555  0.0849
 3930W        W46921   5.122   9.358  27.893 -0.0452  0.2410 -0.0327
 3931W        W46922  33.571  27.107  24.172 -0.0510  0.1487 -0.1656
 3932W        W46923  10.845  14.626  14.748  0.2042  0.0155 -0.3363
 3933W        W46924   3.591  33.235   1.151  0.3664 -0.2139  0.0727
 3934W        W46925  11.403  23.373  20.474  0.1736  0.3828 -0.1775
 3935W        W46926  20.467  29.533  19.056  0.0828 -0.0554  0.0414
 3936W        W46927  22.485  10.876   2.713  0.0026  0.0464 -0.0850
 3937W        W46928  33.294   2.725   1.142  0.0278  0.2086  0.0962
 3938W        W46929  33.433  31.855  17.037 -0.3920 -0.0442  0.3737
 3939W        W46930   4.968   2.498  16.609 -0.0773  0.0024 -0.4706
 3940W        W46931  32.969  33.938  17.154  0.0261 -0.2031  0.0244
 3941W        W46932  11.444   2.451   6.423 -0.0873  0.0906  0.2311
 3942W        W46933  16.636   3.991  26.907  0.1560 -0.0957  0.1908
 3943W        W46934  20.716   2.598  15.911 -0.2884 -0.0156 -0.1757
 3944W        W46935   2.907  32.154  16.333 -0.1471 -0.1007 -0.2333
 3945W        W46936   9.670  33.365  16.318 -0.1493  0.1594  0.0387
 3946W        W46937   1.724  28.111  18.311 -0.2081 -0.1136  0.1497
 3947W        W46938  29.246   5.072   0.333 -0.2314  0.0676  0.0639
 3948W        W46939  32.586  34.410  16.491 -0.0811 -0.1571  0.2113
 3949W        W46940  33.774  29.313  27.475 -0.2140  0.0785 -0.0533
 3950W        W46941  30.588   1.786  23.866  0.1441 -0.1000 -0.6300
 3951W        W46942  28.383  28.580  18.323  0.1841 -0.0730  0.2411
 3952W        W46943   9.354   9.483  19.691 -0.1917  0.5909 -0.2437
 3953W        W46944   3.434  31.842  16.078  0.4497 -0.1577 -0.2187
 3954W        W46945  11.078   2.844  28.010 -0.2036 -0.1604  0.1206
 3955W        W46946  34.498   7.140  20.714 -0.2574  0.0596  0.2194
 3956W        W46947   4.165   3.842  18.871  0.0170  0.1900  0.2441
 3957W        W46948  16.197  10.303  20.628 -0.2326 -0.0643  0.0201
 3958W        W46949  30.506   2.122  28.587 -0.1991 -0.0354  0.0425
 3959W        W46950   0.105   7.653   5.886  0.1990 -0.2150  0.2705
 3960W        W46951   9.281  31.175  19.422 -0.1696  0.0374 -0.1670
 3961W        W46952  11.464   1.520  18.611 -0.1141 -0.0175 -0.1686
 3962W        W46953   1.200  28.865  19.863  0.0404 -0.2293 -0.0770
 3963W        W46954  23.995  33.003  24.946  0.1710  0.0498 -0.0156
 3964W        W46955  14.986   5.354  16.392  0.3680  0.0039 -0.1656
 3965W        W46956   9.204  24.529  15.421 -0.0674 -0.1907 -0.4658
 3966W        W46957   5.167   2.318  21.096  0.1803  0.1275  0.1349
 3967W        W46958   8.451   0.110  14.656  0.2368  0.2084  0.3758
 3968W        W46959   7.424   6.755  23.591 -0.0200  0.0388 -0.3359
 3969W        W46960  25.344   6.154  12.791  0.0111  0.0253 -0.0351
 3970W        W46961  11.472   3.009  17.637 -0.0747 -0.1469 -0.1567
 3971W        W46962  27.749  33.374   5.328 -0.3499  0.0063  0.1318
 3972W        W46963   0.816   1.404  14.424 -0.2967 -0.2636  0.3770
 3973W        W46964   4.792   3.254   2.153 -0.2639 -0.2067  0.0492
 3974W        W46965  30.100  13.349  21.800 -0.0130 -0.0442  0.0518
 3975W        W46966  33.563  14.646  18.618 -0.0900  0.1628 -0.1563
 3976W        W46967   5.411  24.179   6.361 -0.1508  0.2094  0.0910
 3977W        W46968   3.139   8.957   1.992  0.3301  0.1070  0.0993
 3978W        W46969  29.331   4.743  18.461 -0.2859  0.2693  0.6635
 3979W        W46970  31.434  26.590  21.817  0.1447 -0.3858  0.3301
 3980W        W46971  23.125  28.524  21.216  0.0505  0.0055  0.0964
 3981W        W46972  28.818  10.929  25.692  0.1696  0.0469  0.0962
 3982W        W46973  27.841  28.238  14.133 -0.0497 -0.2773 -0.0459
 3983W        W46974  25.294  28.202  24.712  0.0898 -0.1277  0.3142
 3984W        W46975   4.059   4.031  16.156 -0.1329  0.2061  0.2944
 3985W        W46976  29.719   3.082  19.166 -0.1465  0.0131 -0.0717
 3986W        W46977   3.590   0.228  23.877  0.2395  0.0518 -0.1753
 3987W        W46978  30.030  26.080  15.144 -0.1484 -0.0652 -0.2665
 3988W        W46979  31.043  34.556  15.739  0.1889  0.2705 -0.1570
 3989W        W46980  31.952  33.837  13.831 -0.0709  0.0373  0.0379
 3990W        W46981   7.344  21.347  20.287 -0.1120  0.1697 -0.1545
 3991W        W46982  13.564   8.471   0.262 -0.0539 -0.0023 -0.0657
 3992W        W46983  10.690  14.760  26.038 -0.1899 -0.2891 -0.1997
 3993W        W46984  30.475   3.830  20.501  0.3038  0.2040 -0.2833
 3994W        W46985   6.872   3.201  18.412  0.1516 -0.0491  0.4450
 3995W        W46986  25.250   9.078  20.374  0.1278 -0.0730 -0.0314
 3996W        W46987  21.740  31.699  13.506  0.1006 -0.1366  0.3601
 3997W        W46988  16.531   5.544   5.685  0.0769  0.1550 -0.1292
 3998W        W46989   3.871  30.499  15.884  0.3544  0.0831  0.0194
 3999W        W46990  27.246  16.411  15.943 -0.2220 -0.0867  0.0770
 4000W        W46991  29.970   6.800  18.645  0.1820 -0.3196  0.3791
 4001W        W46992   9.190   4.565  20.324  0.1351 -0.0756  0.1441
 4002W        W46993  22.462  16.672  14.002  0.4059  0.2781  0.0201
 4003W        W46994   4.215  34.780   2.024  0.0846  0.1993  0.3159
 4004W        W46995  12.817   4.160   2.237 -0.2370 -0.4025  0.0535
 4005W        W46996  29.860   4.802   3.745  0.0210 -0.0670  0.1786
 4006W        W46997  17.129   4.742  17.679 -0.1589  0.0508 -0.4023
 4007W        W46998  31.844   8.672  19.688 -0.3935 -0.0985 -0.0427
 4008W        W46999  24.669  31.396  27.506  0.2491  0.3628  0.1252
 4009W        W47000   2.146  33.678  28.698 -0.1159  0.0706 -0.2062
 4010W        W47001   4.035  33.398  27.294 -0.2742  0.0389  0.0337
 4011W        W47002   3.433  32.067  24.928  0.1164  0.0770 -0.3159
 4012W        W47003   9.780   7.399  15.471  0.0315 -0.1814  0.3075
 4013W        W47004  12.158  33.001  20.337 -0.0155 -0.1187  0.1250
 4014W        W47005  25.744   0.874  19.192 -0.0549  0.2059 -0.2569
 4015W        W47006   1.924  26.001  22.527 -0.1096 -0.0670 -0.0652
 4016W        W47007   2.560   4.373  15.553 -0.0536  0.3776 -0.0324
 4017W        W47008   5.788  32.158  16.094 -0.0233 -0.0236  0.0714
 4018W        W47009   0.700  31.308  19.297  0.1319 -0.2560 -0.1509
 4019W        W47010   6.142  22.199  21.891 -0.1614  0.0280  0.3668
 4020W        W47011   6.092   5.445  17.721 -0.0032 -0.0000  0.1818
 4021W        W47012   5.566   5.349  17.230 -0.1322  0.3613 -0.0969
 4022W        W47013  26.072  33.540  17.741 -0.3196  0.0128 -0.0978
 4023W        W47014  16.974  28.624  19.905 -0.2370  0.1293  0.2188
 4024W        W47015  29.031  31.413  14.850 -0.0893  0.0427  0.0932
 4025W        W47016  31.948  24.384  18.057  0.3471 -0.2150  0.3179
 4026W        W47017  16.292   3.349  24.417  0.0886  0.2414 -0.0823
 4027W        W47018   8.672  25.124  19.621  0.1207  0.0392  0.0416
 4028W        W47019   4.452  31.941  15.539 -0.1292  0.1708  0.1132
 4029W        W47020  22.727  10.555  14.769 -0.0387 -0.0579 -0.0337
 4030W        W47021   2.848  30.312   0.093 -0.0515  0.0162  0.1768
 4031W        W47022   5.272  13.684  17.085  0.1780 -0.1959  0.0595
 4032W        W47023   5.281   5.364  17.686 -0.0755  0.1979  0.3753
 4033W        W47024  31.355   9.724  18.393 -0.2661  0.1182 -0.2535
 4034W        W47025  21.209   1.747  22.564 -0.0497  0.2875  0.1404
 4035W        W47026  13.021  13.396   7.066  0.2724 -0.1963  0.1261
 4036W        W47027  20.784   9.392  13.186  0.2622  0.3190 -0.3548
 4037W        W47028   3.220   1.444  17.002  0.2258  0.2102 -0.0041
 4038W        W47029  16.050  29.047  27.920  0.6157 -0.1313 -0.1022
 4039W        W47030   7.875  23.485  18.166  0.1394 -0.1250  0.1047
 4040W        W47031   0.298  19.400  24.893  0.0395  0.3597 -0.0559
 4041W        W47032  12.950  32.389  15.535 -0.1110  0.1174 -0.1277
 4042W        W47033  12.952  30.554  16.969 -0.1727  0.0691  0.0369
 4043W        W47034  32.913   1.968  17.319  0.0581  0.2236 -0.1676
 4044W        W47035  25.770   7.375  14.204 -0.3242  0.0120 -0.0035
 4045W        W47036  27.924  29.203  22.758  0.0294  0.2127  0.3872
 4046W        W47037   7.594  31.641  14.826  0.1852 -0.2089 -0.0617
 4047W        W47038   8.830  33.296  21.821  0.0869  0.0622 -0.2034
 4048W        W47039   8.322  21.878  20.698 -0.1691  0.1791  0.1935
 4049W        W47040  29.015  31.293  15.590  0.0191  0.0627 -0.0332
 4050W        W47041   5.803  34.271  20.843  0.2006 -0.2482 -0.0525
 4051W        W47042   1.342  13.289  25.672 -0.2560  0.2003  0.0886
 4052W        W47043   4.070  27.339   8.265  0.0982 -0.0428 -0.0813
 4053W        W47044   9.637  31.017  18.556 -0.1091  0.1166  0.0383
 4054W        W47045  22.386   3.248  23.531  0.1017 -0.0236  0.0528
 4055W        W47046   7.066   3.441  18.013  0.1153 -0.0453 -0.2575
 4056W        W47047   9.716  33.227  20.453  0.3153  0.4947  0.1715
 4057W        W47048   5.112  12.796   0.100  0.2942 -0.2631  0.0469
 4058W        W47049  16.178   5.395   2.635 -0.1836  0.0941 -0.1747
 4059W        W47050  13.973  33.304   1.705 -0.1300 -0.2147  0.2045
 4060W        W47051  30.134   2.862  19.518 -0.0948 -0.2537 -0.2821
 4061W        W47052   4.088  27.418  15.339  0.1462 -0.6313 -0.0289
 4062W        W47053  25.778   3.262   2.555  0.0040  0.2804  0.1803
 4063W        W47054   9.978   4.674  19.724  0.0079 -0.0294  0.1363
 4064W        W47055  29.269   0.665  19.676  0.2371 -0.1650  0.0317
 4065W        W47056  26.051   9.949  21.701 -0.1273  0.1749 -0.3049
 4066W        W47057   5.783  27.693  14.209  0.1701  0.1778 -0.2745
 4067W        W47058   6.938  29.249  19.233 -0.1863 -0.0983  0.1895
 4068W        W47059  12.312   1.699  18.611 -0.0617  0.0226  0.2632
 4069W        W47060  23.013   2.169  15.298  0.4326 -0.0841 -0.1363
 4070W        W47061   6.128  14.652   0.917 -0.1504  0.0740 -0.0186
 4071W        W47062  30.573  17.986  17.748  0.1407  0.2828  0.0247
 4072W        W47063   6.705  10.177   9.247  0.3161 -0.0561  0.0729
 4073W        W47064  21.214  23.039  28.339  0.0708  0.1689  0.0897
 4074W        W47065   3.481  32.132  19.017  0.0664 -0.1818  0.0823
 4075W        W47066  12.055  11.173   2.937 -0.1724  0.2641 -0.0380
 4076W        W47067  16.505  19.125  14.594 -0.2744  0.2080 -0.0868
 4077W        W47068  34.035  21.396  21.428  0.2508 -0.0431 -0.0131
 4078W        W47069  23.950  23.890   3.211 -0.0635 -0.2000 -0.3703
 4079W        W47070  15.930   7.909  16.430 -0.0910 -0.2807 -0.6347
 4080W        W47071   6.622  33.048  28.478  0.1018  0.1459 -0.0031
 4081W        W47072  30.648  32.904  26.165  0.0658 -0.0707 -0.4657
 4082W        W47073  34.627   2.675  10.235  0.2450 -0.0326 -0.0183
 4083W        W47074  32.528  30.801   1.253  0.1089  0.2346 -0.0956
 4084W        W47075   2.159  27.289  25.813  0.1157 -0.0795 -0.1748
 4085W        W47076  10.983  25.962  26.167  0.1965  0.2827 -0.0265
 4086W        W47077  11.507  34.195  17.530 -0.4339  0.2432 -0.0443
 4087W        W47078   9.508   9.267  17.807 -0.2460 -0.0149 -0.0369
 4088W        W47079  33.897   7.741  16.476  0.1516 -0.0588 -0.1388
 4089W        W47080   7.723  34.382  18.363  0.2225 -0.3251 -0.0957
 4090W        W47081   5.214  33.523  20.923  0.1918 -0.0079  0.0338
 4091W        W47082  32.162   4.888   9.327  0.3909  0.1986 -0.0030
 4092W        W47083  22.018   2.530  20.044  0.1234 -0.0183 -0.0071
 4093W        W47084  24.722   6.586  16.322 -0.2836  0.0253  0.1705
 4094W        W47085   6.066   3.791  27.500  0.1176 -0.0656 -0.0925
 4095W        W47086  14.043  29.018   3.020  0.0100 -0.2035 -0.0638
 4096W        W47087   4.075  24.403  15.740 -0.1800  0.2297  0.2403
 4097W        W47088  30.944  21.815  20.170 -0.2813  0.2026 -0.0417
 4098W        W47089  22.057  18.923  21.505  0.2557  0.1377 -0.3763
 4099W        W47090  12.103   2.995  14.776 -0.0794  0.1022  0.2051
 4100W        W47091  25.675  25.854  26.265  0.0374  0.0730 -0.2057
 4101W        W47092  32.992  28.300  22.989  0.2398  0.0772  0.1269
 4102W        W47093  32.228   3.109  15.992 -0.0444  0.0864  0.1063
 4103W        W47094  18.923   4.355   0.275 -0.0081 -0.4446  0.0814
 4104W        W47095  34.449   3.993   6.705  0.2128  0.2110  0.2681
 4105W        W47096   5.721   5.134  19.443 -0.1155 -0.0542 -0.0948
 4106W        W47097  32.414   8.588  21.495  0.0815  0.2939  0.1438
 4107W        W47098   9.802  32.716  20.190  0.0621  0.1660  0.0181
 4108W        W47099  26.526   0.484  19.340 -0.1507 -0.0458 -0.1593
 4109W        W47100  32.733  10.676  27.317  0.1129 -0.0144 -0.0609
 4110W        W47101  14.118  29.150   1.534 -0.0635 -0.2786 -0.0888
 4111W        W47102  16.978  31.170  15.326 -0.1693  0.1387 -0.0949
 4112W        W47103   3.010  34.058  17.729 -0.2069 -0.1049  0.1552
 4113W        W47104  32.565  28.968  22.757 -0.1735  0.1101 -0.1147
 4114W        W47105  22.421   8.854  19.297 -0.1330 -0.3018 -0.1751
 4115W        W47106  21.063   3.689  19.117  0.1413  0.0074  0.1702
 4116W        W47107  11.677   5.871   1.763 -0.0580 -0.4581 -0.3451
 4117W        W47108  31.383  28.259  25.182  0.2765 -0.0562  0.0412
 4118W        W47109  31.698   4.044  21.487 -0.1254 -0.0339 -0.1943
 4119W        W47110  22.114  27.946  26.445  0.3018 -0.1210  0.1232
 4120W        W47111  29.905   5.747  17.328 -0.0794  0.2730 -0.0112
 4121W        W47112  33.000  18.456  24.009 -0.2475  0.2734  0.1428
 4122W        W47113  34.061   4.634  17.656 -0.2813 -0.1958  0.1676
 4123W        W47114   6.270  15.193  16.898 -0.0810 -0.0505  0.1484
 4124W        W47115  34.450  26.863  25.791  0.0220 -0.2469  0.0645
 4125W        W47116  12.497  30.536  20.730 -0.2001  0.0735  0.0235
 4126W        W47117   3.212   0.057  17.200  0.3360 -0.1971 -0.1664
 4127W        W47118  15.557   5.873  18.736 -0.3477  0.0994  0.2904
 4128W        W47119  27.120   6.400  20.198 -0.0505  0.5325  0.1727
 4129W        W47120   0.340  29.113  15.617 -0.1962 -0.0508  0.1136
 4130W        W47121  33.032  19.404  19.527 -0.0966  0.0263 -0.1089
 4131W        W47122   1.517   2.579  26.985 -0.1935 -0.4035  0.0176
 4132W        W47123  19.798  27.654  19.744  0.1120  0.3029  0.1210
 4133W        W47124  33.772  13.447  16.244 -0.1140  0.1222 -0.0206
 4134W        W47125  28.987  27.073  25.722 -0.0978  0.0722 -0.0698
 4135W        W47126  31.386  31.239  13.990  0.1947 -0.1326  0.1456
 4136W        W47127  33.449   5.883  22.460 -0.0976  0.1956 -0.2390
 4137W        W47128  16.458  26.317  20.144 -0.0850  0.1554  0.1978
 4138W        W47129  34.419  30.010  13.715  0.0470  0.0145 -0.0608
 4139W        W47130  30.727  11.105   1.594 -0.3528  0.0241  0.1217
 4140W        W47131  15.196  19.535   7.697  0.4029 -0.0370  0.1310
 4141W        W47132  25.418   2.047   2.529 -0.1272  0.1351 -0.0132
 4142W        W47133  13.073  22.838  27.456 -0.0527 -0.0285  0.0328
 4143W        W47134   2.889  30.074  20.399  0.2663  0.0294 -0.1102
 4144W        W47135  21.038  34.651  22.335 -0.1336  0.0376  0.0964
 4145W        W47136  30.755   1.513  24.830 -0.3137  0.0104  0.2019
 4146W        W47137  33.369   6.883  16.325 -0.1248 -0.1920  0.1225
 4147W        W47138   8.503  17.528  15.256  0.0636  0.1852 -0.1369
 4148W        W47139  13.620   8.720  24.081  0.2380 -0.2437 -0.1417
 4149W        W47140  26.864  21.479  26.505  0.1600 -0.1603  0.2479
 4150W        W47141  33.384  33.778  14.895  0.0481  0.0255 -0.3214
 4151W        W47142  24.997  13.819  15.127 -0.3296 -0.0220 -0.3144
 4152W        W47143  28.792   9.923  17.118  0.1845 -0.0654 -0.1340
 4153W        W47144  24.838  10.014  20.679  0.1549  0.0726  0.0169
 4154W        W47145  28.233  33.196  20.460 -0.0289 -0.1963  0.0138
 4155W        W47146   4.731  19.941  15.699  0.0844  0.0285 -0.0476
 4156W        W47147  21.943  10.999  27.372  0.3410 -0.1325 -0.1557
 4157W        W47148   9.452  10.431  23.661 -0.0169 -0.1833  0.0120
 4158W        W47149   1.507   5.866  20.396 -0.0642  0.1613  0.2610
 4159W        W47150  29.386  10.237  26.014 -0.0063  0.1018  0.1098
 4160W        W47151   0.300   4.935  25.541 -0.0839  0.4031  0.0348
 4161W        W47152  23.248  29.489  23.492  0.2167  0.2395  0.0439
 4162W        W47153   8.492   7.744  17.594  0.0099  0.1473  0.0485
 4163W        W47154   5.819   9.176  15.437  0.0145 -0.1270  0.1491
 4164W        W47155  16.436   5.742  19.839 -0.1519 -0.2746 -0.1479
 4165W        W47156  11.109   2.723  17.963 -0.3723 -0.4151  0.0588
 4166W        W47157  18.596  29.547  24.528 -0.1894  0.0850 -0.1236
 4167W        W47158   3.450   3.205  22.486 -0.0838  0.2202  0.0792
 4168W        W47159   4.438  24.398  20.306  0.1044  0.2184  0.2734
 4169W        W47160  21.993  13.278  22.017 -0.1324 -0.2120 -0.1408
 4170W        W47161  31.523  16.520  22.640 -0.0217 -0.0153  0.0307
 4171W        W47162   1.916  11.098  16.756  0.0232  0.1612  0.1382
 4172W        W47163   8.438  13.838  20.953  0.0700  0.0774 -0.1246
 4173W        W47164   7.300  33.959  17.594  0.2697  0.1369 -0.0383
 4174W        W47165   4.860   6.386   0.904  0.1290  0.0300 -0.0243
 4175W        W47166  12.565  17.430  18.888  0.1526 -0.1034  0.3814
 4176W        W47167  28.052  28.657  17.223 -0.1003  0.0613  0.2402
 4177W        W47168   2.978  23.444  18.767 -0.0364 -0.0808  0.1427
 4178W        W47169   5.677   3.261   7.105 -0.5964 -0.0981 -0.0428
 4179W        W47170  11.539  17.611  21.997 -0.2434  0.2094  0.1789
 4180W        W47171  10.425   8.353  27.585  0.0012 -0.2680  0.0180
 4181W        W47172  11.335  25.318  19.535 -0.2476 -0.0160 -0.0483
 4182W        W47173  32.886  34.757  15.651 -0.2487 -0.2919 -0.1080
 4183W        W47174  30.882  25.403  22.963  0.1283  0.0537  0.2221
 4184W        W47175  24.334  23.209  28.239  0.0106  0.0498  0.0106
 4185W        W47176  34.682  34.568  21.478 -0.1153 -0.2774 -0.0920
 4186W        W47177  15.964  19.457  23.809  0.0568 -0.1301  0.2292
 4187W        W47178  22.063  13.001  23.801 -0.3080  0.1271  0.2668
 4188W        W47179   7.357   8.440  11.196 -0.2062 -0.2242 -0.0047
 4189W        W47180  25.748  30.734  24.088  0.0282 -0.0850 -0.1325
 4190W        W47181  15.921   3.209  19.062  0.2192 -0.0650  0.0986
 4191W        W47182  14.149   0.832  15.484 -0.0167 -0.2008  0.0090
 4192W        W47183  29.237  34.316  17.242 -0.2897 -0.0728 -0.0100
 4193W        W47184  32.722   1.437  24.992 -0.2521 -0.0068  0.2479
 4194W        W47185   8.799  11.011  20.851  0.1617 -0.3106 -0.2763
 4195W        W47186   6.605  30.585  18.937  0.1560 -0.0134  0.0599
 4196W        W47187  30.908   4.646  17.251 -0.0272  0.0537 -0.2119
 4197W        W47188   4.867  25.567  22.750  0.1151  0.0194  0.0136
 4198W        W47189   4.420  30.029  25.806 -0.0019  0.0155  0.0068
 4199W        W47190  11.556  18.520  18.009  0.2651  0.0144  0.1136
 4200W        W47191  15.102  33.933  28.796 -0.3257  0.2496 -0.0299
 4201W        W47192  31.688  27.218  18.565  0.0218 -0.0736 -0.0419
 4202W        W47193  29.884   0.194  23.265  0.1216 -0.3652  0.0283
 4203W        W47194  29.405   1.671  13.557  0.0303  0.0179 -0.0429
 4204W        W47195  30.038  30.558  24.297  0.0750  0.0258 -0.1977
 4205W        W47196  21.658  28.853  17.249 -0.0820  0.1685  0.2297
 4206W        W47197  31.492  15.434  16.535  0.1703 -0.0006  0.1583
 4207W        W47198  23.475  33.025  17.303 -0.3692 -0.2127  0.1169
 4208W        W47199   7.067   6.752  15.740 -0.1921  0.1558  0.0476
 4209W        W47200  10.581   5.610  24.959  0.1026  0.0518 -0.0112
 4210W        W47201  27.328  14.705  16.875 -0.0432  0.0499  0.3486
 4211W        W47202  10.956   8.590   4.614 -0.1843 -0.3853 -0.0981
 4212W        W47203  10.329   5.421   1.248  0.0822 -0.3479  0.1838
 4213W        W47204  30.437   5.518  14.370  0.2271  0.0704 -0.1209
 4214W        W47205   7.944   2.084  24.658  0.4598  0.0301  0.2412
 4215W        W47206  28.884  30.277  14.717  0.0480  0.0435 -0.2102
 4216W        W47207  18.366   4.734  25.368 -0.2034  0.1713 -0.1477
 4217W        W47208  21.648  29.326  25.715  0.0564 -0.0927 -0.1511
 4218W        W47209  29.674   8.048  24.433  0.5915 -0.3976 -0.0735
 4219W        W47210  28.008   0.636  24.811 -0.0046 -0.0699  0.3873
 4220W        W47211   2.156  10.636  26.769 -0.1677 -0.1732  0.1258
 4221W        W47212   1.300   1.145  22.464  0.2329  0.0492  0.2529
 4222W        W47213  16.995  33.563  25.505 -0.0351 -0.2376 -0.2131
 4223W        W47214   4.199  24.996   6.595  0.0698 -0.0124  0.0488
 4224W        W47215   4.519   0.510  18.543  0.1315  0.2281  0.4456
 4225W        W47216  14.175  10.011  16.382  0.1098  0.0250  0.1800
 4226W        W47217   1.731  27.561  25.381  0.1041 -0.1087  0.2892
 4227W        W47218  33.830  30.341  16.206 -0.0394 -0.3416 -0.2196
 4228W        W47219  34.284   2.649  16.258  0.2967 -0.1718  0.2329
 4229W        W47220  11.008  31.158  21.866  0.0416  0.1039 -0.3213
 4230W        W47221  31.894  16.134  14.997 -0.1652 -0.3353 -0.4928
 4231W        W47222  32.390   1.689  17.255  0.0084 -0.0084 -0.0014
 4232W        W47223   2.040  30.648   6.065 -0.0838 -0.2301  0.0423
 4233W        W47224   8.073  29.398  25.477  0.0980 -0.1717 -0.0245
 4234W        W47225  25.270  16.633  27.118  0.1053 -0.1225  0.3094
 4235W        W47226  29.834  10.115  24.491  0.1490  0.0212 -0.1141
 4236W        W47227   2.495   2.249  23.447 -0.0495  0.2703  0.0717
 4237W        W47228  25.651   8.046  17.544 -0.1793  0.3796 -0.1629
 4238W        W47229  33.561  22.260  18.511 -0.2031  0.1562 -0.1128
 4239W        W47230   1.394  28.174  14.242  0.0798 -0.1718  0.0956
 4240W        W47231  17.552  10.341  26.050  0.3780 -0.2967  0.1857
 4241W        W47232   6.681  12.162  25.097  0.1245  0.0870  0.3934
 4242W        W47233  16.438   4.699  27.626  0.0386 -0.0151  0.3955
 4243W        W47234   0.984  12.135   0.694 -0.0908 -0.3339  0.3363
 4244W        W47235  26.631  28.728  22.813 -0.1362 -0.1549 -0.0447
 4245W        W47236  14.731  27.118  16.974  0.0288  0.0888  0.1960
 4246W        W47237  22.617   7.605  22.497 -0.0311  0.1685  0.1504
 4247W        W47238  32.623   8.947  19.464  0.2667  0.1073  0.0982
 4248W        W47239   9.915  27.460  23.814  0.1367 -0.1088 -0.2431
 4249W        W47240   4.703  16.345  20.522 -0.0206 -0.1905  0.0387
 4250W        W47241  14.742  31.995  20.424 -0.1342  0.0436  0.0336
 4251W        W47242  29.383  33.414  25.745  0.1306  0.1433  0.2003
 4252W        W47243  23.984   9.782   0.127 -0.2550 -0.3770 -0.0513
 4253W        W47244   7.883  28.241  15.899 -0.1833  0.0811 -0.1881
 4254W        W47245  27.136   4.888  21.838 -0.1585  0.0372  0.3083
 4255W        W47246   1.688  29.715  13.507  0.0705  0.3406  0.5180
 4256W        W47247  30.912  27.968  13.083  0.0499  0.3809 -0.0513
 4257W        W47248   0.263   6.451  19.974 -0.0882  0.0238 -0.0693
 4258W        W47249  27.747   8.135  27.258  0.1256  0.3897 -0.1219
 4259W        W47250   7.854   7.080  26.095 -0.3081  0.0357  0.2523
 4260W        W47251  23.854  31.643  14.434 -0.0215  0.0944  0.0986
 4261W        W47252   0.840  28.638  14.250 -0.0357 -0.0137 -0.0079
 4262W        W47253   2.181  34.011  16.005  0.0724  0.0986 -0.1525
 4263W        W47254   8.390  10.794  16.212  0.0145  0.1228  0.0556
 4264W        W47255  17.451   0.261  17.777  0.2096  0.3888  0.1541
 4265W        W47256   7.059   0.380   3.252  0.2343 -0.0064 -0.0932
 4266W        W47257  10.489   9.433  17.007 -0.2878  0.4545  0.2534
 4267W        W47258  30.136  10.032  17.577  0.0135  0.0208  0.0884
 4268W        W47259   1.328  16.920  25.559 -0.0755  0.1869  0.0402
 4269W        W47260  20.552   1.247  14.961  0.0732 -0.2438 -0.3638
 4270W        W47261   2.682   1.408  25.380  0.0701  0.1659 -0.0131
 4271W        W47262   0.179   7.130  23.542 -0.0197 -0.2221  0.0110
 4272W        W47263   8.750   7.534  18.659  0.4802  0.0403  0.2671
 4273W        W47264  11.894   3.366  19.963 -0.1574  0.1087  0.0994
 4274W        W47265  28.107   9.539  13.818  0.3183  0.0192 -0.3241
 4275W        W47266  28.996  31.190  13.090  0.2221  0.0179  0.1815
 4276W        W47267  24.010  12.940  21.441 -0.2150 -0.0641 -0.0387
 4277W        W47268  27.963   2.604  27.287  0.1034  0.2823 -0.1568
 4278W        W47269   9.949   0.543  18.469  0.2756 -0.0699 -0.0619
 4279W        W47270  30.340   8.525  14.466  0.0592  0.0153  0.0206
 4280W        W47271  27.547  33.814  14.777 -0.2428 -0.0279  0.0146
 4281W        W47272  12.728  30.143  25.392 -0.2816 -0.0237 -0.2711
 4282W        W47273  28.656  32.607  18.146 -0.3318  0.1764 -0.2558
 4283W        W47274  14.888  25.931  22.351 -0.1637 -0.0390 -0.0445
 4284W        W47275  26.285  19.651  15.857 -0.2720  0.0189  0.0680
 4285W        W47276   4.858  21.046  22.682 -0.0109  0.0799 -0.2393
 4286W        W47277  22.760  33.618  19.173  0.1619  0.1540 -0.0525
 4287W        W47278  32.567  23.167  27.921  0.1262  0.0213  0.0394
 4288W        W47279  16.202   0.180  16.818 -0.0662 -0.1502  0.0959
 4289W        W47280  33.306  11.570  28.850  0.0279  0.2135 -0.2475
 4290W        W47281  25.815  30.920  26.585 -0.0661  0.1834 -0.4167
 4291W        W47282   5.003  14.644  19.809 -0.0760 -0.2361 -0.3663
 4292W        W47283   6.293  24.597  26.606  0.3614 -0.3266 -0.1129
 4293W        W47284  27.060   3.923  13.260 -0.1434 -0.1405  0.1962
 4294W        W47285  21.409  31.266  19.294 -0.1525 -0.0316  0.1593
 4295W        W47286  24.683  19.833  18.663  0.3055  0.2468 -0.0058
 4296W        W47287   2.678  33.401  15.214 -0.0561 -0.1788  0.0429
 4297W        W47288   4.134  30.761  20.324 -0.0721 -0.0589  0.0742
 4298W        W47289   8.836  23.938  10.315  0.2515  0.1411 -0.0771
 4299W        W47290   3.968  19.109  22.346  0.1112  0.1837 -0.0455
 4300W        W47291   4.650  27.865  23.940  0.0484 -0.1804  0.2590
 4301W        W47292  13.197  20.836  18.351 -0.3206  0.3015  0.2888
 4302W        W47293  25.721   2.626   5.870 -0.0527 -0.0683 -0.1227
 4303W        W47294  22.704   5.745  14.574  0.0322  0.1376 -0.1868
 4304W        W47295  11.591  10.958   1.722  0.0666 -0.0185  0.1852
 4305W        W47296   2.164  23.479  15.428 -0.1945 -0.2829  0.2771
 4306W        W47297  33.246   0.073  17.943  0.0051 -0.0480 -0.3128
 4307W        W47298   0.594   6.369  20.853 -0.0520 -0.1769 -0.1534
 4308W        W47299  28.709   0.579  19.791  0.3274  0.1901 -0.2618
 4309W        W47300  25.350  12.389  16.413  0.3413 -0.2872  0.0921
 4310W        W47301  33.623   6.110  20.199 -0.1696 -0.1008  0.1214
 4311W        W47302  12.113   2.457  24.611  0.1559  0.0880 -0.1219
 4312W        W47303   0.423   2.816  28.588  0.4695  0.0043  0.2530
 4313W        W47304  28.635  20.085  16.776  0.0759  0.1137  0.2649
 4314W        W47305   9.258  19.348   4.907  0.1284 -0.2331  0.0775
 4315W        W47306  10.496  13.444  20.645 -0.0130 -0.0903  0.0854
 4316W        W47307  31.556  11.510  18.379  0.3933 -0.0248 -0.0082
 4317W        W47308  28.354  15.294  15.409 -0.1980 -0.1104  0.0817
 4318W        W47309  23.147   2.886   5.475  0.0007 -0.1547 -0.3744
 4319W        W47310  15.204  23.822   4.546 -0.0131  0.2468  0.4256
 4320W        W47311  16.599   1.136  22.013 -0.0435 -0.0193 -0.3153
 4321W        W47312  16.076  11.830  22.630 -0.1437  0.2380 -0.0542
 4322W        W47313  26.560   8.243  22.935 -0.1367 -0.0052 -0.2285
 4323W        W47314  20.009   3.956  27.773  0.4860 -0.1631  0.1219
 4324W        W47315  19.353  34.213   2.219  0.2034  0.2473 -0.0087
 4325W        W47316   1.881   9.931  23.955  0.0128 -0.0195 -0.0103
 4326W        W47317   8.791   0.341  14.367 -0.1679 -0.0431 -0.0173
 4327W        W47318   0.239   2.140  19.244  0.0266  0.1827  0.1219
 4328W        W47319   8.910  16.742  16.298  0.2261 -0.1319 -0.1701
 4329W        W47320  25.930  14.770  26.112  0.0256  0.0632 -0.0569
 4330W        W47321  18.542  34.661  24.809 -0.1193  0.0580  0.1033
 4331W        W47322  28.414  28.756   4.307  0.0580 -0.2002  0.1237
 4332W        W47323  22.308  26.749  18.533  0.0316  0.0388 -0.0419
 4333W        W47324  29.278   1.512  24.387 -0.0954 -0.0384  0.0920
 4334W        W47325   0.960  21.970  18.098 -0.0539  0.0008 -0.1940
 4335W        W47326  33.910   1.207  20.135  0.3570 -0.1934 -0.1793
 4336W        W47327  31.713   4.000  27.298  0.0968  0.3020  0.0350
 4337W        W47328  12.663  12.004  18.796  0.0771 -0.0853  0.0476
 4338W        W47329  21.579   6.427  22.781  0.1240 -0.2202 -0.2398
 4339W        W47330  34.114  31.984  13.536 -0.1687  0.0930  0.1158
 4340W        W47331   3.182  11.505  25.596  0.1597 -0.1933  0.2137
 4341W        W47332   2.072  26.899  15.052  0.0455  0.1036 -0.0480
 4342W        W47333  28.456   1.909  15.976 -0.0173  0.2671 -0.3684
 4343W        W47334   6.511   5.511  20.050 -0.1167 -0.0947  0.2008
 4344W        W47335  20.514   3.073  23.480  0.4735 -0.0790  0.1220
 4345W        W47336  26.446  22.821  16.289  0.1443 -0.0567 -0.3912
 4346W        W47337   6.325   5.685   0.283 -0.4101  0.1700 -0.0855
 4347W        W47338  32.429  12.322  24.704 -0.0546  0.0939  0.1838
 4348W        W47339   7.821  31.205  20.507  0.1553  0.1296  0.1005
 4349W        W47340  11.145  23.803  23.471  0.0350  0.4636 -0.1149
 4350W        W47341  12.735   1.859  14.832 -0.0005 -0.0428  0.0145
 4351W        W47342  34.101   1.990  16.242  0.3354 -0.0149  0.0274
 4352W        W47343   1.946  30.908  16.422 -0.2752 -0.0713 -0.1611
 4353W        W47344  28.518   3.884   2.798  0.0532 -0.1505 -0.5884
 4354W        W47345  23.193  21.676  16.402 -0.0649 -0.1442  0.2738
 4355W        W47346  31.704  34.046  23.670  0.1346 -0.2730  0.2268
 4356W        W47347  27.315  11.972   1.931 -0.1253 -0.0408 -0.3027
 4357W        W47348  15.231   4.407  16.363  0.2073  0.0607  0.0601
 4358W        W47349  27.773  32.133  18.033  0.1753  0.0573  0.0677
 4359W        W47350   6.960  13.559  24.873  0.1447  0.0852  0.3204
 4360W        W47351  30.501  12.197   0.653  0.1660  0.2792 -0.2493
 4361W        W47352   8.444   6.009  28.189 -0.2900 -0.0081 -0.3229
 4362W        W47353  23.359  10.397  16.896 -0.2177  0.0657 -0.4920
 4363W        W47354  24.634   5.671  24.126 -0.1742  0.2238 -0.2259
 4364W        W47355  12.577   3.044  23.428  0.2220  0.0627 -0.0200
 4365W        W47356  24.464   8.684  28.572  0.2614 -0.5381 -0.0826
 4366W        W47357   7.927  25.256  20.897  0.0450 -0.1272  0.4558
 4367W        W47358   2.918  14.418  22.022  0.1526  0.2424  0.1205
 4368W        W47359  31.521   7.714  16.965 -0.1259  0.2387 -0.0020
 4369W        W47360   6.897  12.669  21.439  0.2471 -0.2471  0.0201
 4370W        W47361  30.474  24.780  27.091  0.1809 -0.1279 -0.2856
 4371W        W47362  26.004  31.533  23.575 -0.2780 -0.2165  0.3433
 4372W        W47363   5.782  32.181  25.214  0.0038  0.3002  0.1415
 4373W        W47364  22.044   7.419  19.987  0.0694  0.0999  0.3658
 4374W        W47365  15.657  33.904  17.000  0.0910 -0.1720  0.5688
 4375W        W47366   2.195   2.289  16.657 -0.0556 -0.3236  0.1452
 4376W        W47367  33.815  29.773  23.309 -0.3657  0.1239  0.3880
 4377W        W47368  32.884  29.982  13.955 -0.0133 -0.0727 -0.1741
 4378W        W47369  25.614   9.182  16.718 -0.0641 -0.0202  0.0811
 4379W        W47370   1.005  24.230  18.187  0.3718  0.3324 -0.0196
 4380W        W47371  13.827  24.184  27.516 -0.3662 -0.3116 -0.1854
 4381W        W47372   5.400   8.081   7.670 -0.1761  0.0693 -0.0306
 4382W        W47373  12.766  34.632  17.216 -0.3335 -0.2059  0.2247
 4383W        W47374   4.242  12.624  22.081 -0.1135  0.0984  0.1199
 4384W        W47375   5.492  33.898  21.338 -0.4329  0.0643  0.3116
 4385W        W47376  13.850  12.569  21.570 -0.2166  0.1382  0.0953
 4386W        W47377  11.439  20.750  14.981  0.1104 -0.1767 -0.1185
 4387W        W47378   9.184   6.232  21.876  0.3830  0.2963  0.0148
 4388W        W47379   1.963   2.928  19.557  0.1524 -0.3592 -0.1464
 4389W        W47380   8.236  32.050  16.949  0.2068  0.1665 -0.2835
 4390W        W47381  29.268  20.313   0.538 -0.0492  0.1901  0.0706
 4391W        W47382  17.551  34.024  27.461 -0.1347  0.1207 -0.1376
 4392W        W47383  18.942  27.159   2.036  0.2615  0.3273  0.3943
 4393W        W47384  33.561   5.188  25.503  0.2120 -0.0322  0.2173
 4394W        W47385  12.468   0.562  28.437 -0.0187 -0.0712  0.1596
 4395W        W47386   3.468   0.510  22.006 -0.2028 -0.2465  0.4633
 4396W        W47387  29.045   6.671  28.804  0.0420  0.1785 -0.1536
 4397W        W47388   2.951  22.195  19.983  0.0181  0.1156  0.2395
 4398W        W47389   7.605   9.742  24.261  0.0826  0.3209  0.0060
 4399W        W47390  25.372   2.679  16.561  0.0549  0.0896  0.0711
 4400W        W47391   5.738  29.188  26.950  0.4487  0.3785  0.0224
 4401W        W47392  30.500  30.822  13.225  0.0144 -0.0296 -0.2461
 4402W        W47393  21.681   8.378  25.675  0.1597  0.0790 -0.1434
 4403W        W47394   1.772   4.466  28.743 -0.2700 -0.2663 -0.0329
 4404W        W47395  29.145  29.172  28.211 -0.3087 -0.3504 -0.0107
 4405W        W47396  12.941  14.176  21.449  0.1610 -0.2594  0.5916
 4406W        W47397  31.853  32.430  17.148  0.0824 -0.2334  0.0941
 4407W        W47398   5.589   2.806  19.224  0.1445 -0.1238 -0.0955
 4408W        W47399  23.891  33.565   2.808 -0.0934  0.1796 -0.0131
 4409W        W47400  15.451  13.801  16.826  0.0266 -0.3605  0.1859
 4410W        W47401   1.054  16.269  17.581 -0.2233 -0.3197  0.2206
 4411W        W47402   6.077  21.367  15.917  0.1181  0.0434  0.1717
 4412W        W47403   1.155   9.445  21.334  0.1403 -0.4011 -0.0465
 4413W        W47404  26.360  23.434  21.977  0.3012  0.0400 -0.4000
 4414W        W47405  30.988   1.540  29.036 -0.0587  0.0681 -0.1959
 4415W        W47406   8.873  20.325  18.191  0.1321  0.1650 -0.0479
 4416W        W47407  24.114  28.907  21.475 -0.0930  0.0257  0.1161
 4417W        W47408   7.622   2.090  22.325  0.0389  0.1934  0.2647
 4418W        W47409  12.235  32.808  15.209  0.0573  0.3262 -0.0656
 4419W        W47410  26.093  14.272  27.795  0.0606  0.1527 -0.1264
 4420W        W47411   9.485  11.000  17.124 -0.0918  0.1093  0.2607
 4421W        W47412   4.252  26.634  20.378  0.0536  0.0174  0.1810
 4422W        W47413   4.399   8.467  15.579 -0.1774  0.1854  0.1813
 4423W        W47414   1.944   1.410  16.734  0.0016 -0.4051  0.0884
 4424W        W47415   4.394  10.193  26.657  0.0583 -0.2173 -0.0703
 4425W        W47416   5.411   1.272  21.399  0.0346  0.0038  0.1034
 4426W        W47417  27.146  25.526  20.111  0.1877  0.1248  0.2392
 4427W        W47418   1.094   1.484  21.141  0.0417 -0.2728  0.0497
 4428W        W47419  17.361   4.138  15.153 -0.0448  0.1708 -0.0730
 4429W        W47420  32.928   7.908   4.555  0.2840 -0.0991  0.1970
 4430W        W47421   2.273   1.980  28.473  0.0666 -0.0744  0.2605
 4431W        W47422  32.231  13.825  19.020  0.2513  0.0215 -0.1358
 4432W        W47423   7.449   2.819  23.354  0.1189 -0.1989  0.3979
 4433W        W47424  10.059   6.750  18.990 -0.2811 -0.0962  0.0505
 4434W        W47425  25.381  10.307  15.177 -0.3583 -0.3626  0.1947
 4435W        W47426  26.484  14.197  13.982  0.1625  0.0970 -0.2814
 4436W        W47427  25.185  14.924  21.878  0.0611  0.0841  0.1644
 4437W        W47428   7.915  19.057  25.059  0.0600  0.3240  0.1966
 4438W        W47429  33.384   3.196  15.082 -0.0522 -0.0458 -0.1198
 4439W        W47430  24.905  32.988  26.152 -0.2465 -0.0820 -0.1457
 4440W        W47431  33.300   2.849  15.865  0.0666 -0.0999 -0.1018
 4441W        W47432  26.455  33.577   2.791 -0.1252  0.1449 -0.1002
 4442W        W47433  32.077   5.715  24.958 -0.0407  0.2044  0.0560
 4443W        W47434   4.295   9.125  25.647 -0.2047 -0.1180  0.0832
 4444W        W47435  32.584   6.006   2.268  0.1445 -0.2774 -0.1289
 4445W        W47436  22.944  13.006  18.398  0.0638 -0.1290  0.0918
 4446W        W47437  30.683  33.065  28.890 -0.2713 -0.0498 -0.0288
 4447W        W47438   0.030   6.751  25.696  0.2044 -0.0228 -0.2782
 4448W        W47439   5.931   7.255  20.707 -0.2440 -0.1438  0.0728
 4449W        W47440  30.676   0.168  16.556  0.0786  0.3345 -0.2424
 4450W        W47441  32.805   8.206   7.097  0.1796 -0.1123 -0.2572
 4451W        W47442   4.407  29.861  19.575  0.0262 -0.0439  0.1244
 4452W        W47443  20.070  19.573  29.189  0.1431  0.1270 -0.1574
 4453W        W47444  32.523  11.139   7.416 -0.0235  0.1519  0.1019
 4454W        W47445  32.155  12.338  27.780 -0.0243 -0.1074  0.1130
 4455W        W47446  34.777  30.634  23.431 -0.2151 -0.0053  0.2657
 4456W        W47447   9.471   5.292   1.096 -0.1845 -0.3158 -0.0822
 4457W        W47448  23.686   7.246  18.038 -0.1422  0.2215  0.0590
 4458W        W47449  23.597   5.949  26.425 -0.2009  0.1697 -0.0799
 4459W        W47450  27.572  12.543  18.743  0.3842 -0.1246 -0.1189
 4460W        W47451  15.558  30.451   0.250 -0.1693 -0.0633  0.1630
 4461W        W47452   0.443   9.998  18.585 -0.3096 -0.1725 -0.2869
 4462W        W47453   4.527   9.148  17.485 -0.0681  0.0895 -0.0047
 4463W        W47454  10.431   8.768  24.247  0.2141  0.3345 -0.1455
 4464W        W47455   8.910   3.272   1.128  0.1081  0.4763 -0.3225
 4465W        W47456  29.715   0.709  16.656 -0.1401 -0.2100 -0.3424
 4466W        W47457  31.464   6.568  18.132 -0.2335  0.1212 -0.0094
 4467W        W47458   5.812  29.279  15.966 -0.1576  0.2219 -0.1306
 4468W        W47459  21.353   9.046  17.122  0.0159 -0.1120  0.1343
 4469W        W47460  24.270  32.692  19.464  0.2292 -0.0301 -0.2133
 4470W        W47461  29.549  28.620   4.417 -0.0173 -0.2057  0.0510
 4471W        W47462  23.736   3.734   1.072  0.1853 -0.1478 -0.1389
 4472W        W47463  14.014  19.960  20.861  0.1558  0.0542  0.1842
 4473W        W47464  12.952  26.446  19.734 -0.0397 -0.1112  0.0108
 4474W        W47465  12.308  24.133  26.009  0.1106 -0.2181  0.4146
 4475W        W47466  13.231   9.013  16.796 -0.1633 -0.0626  0.0475
 4476W        W47467  33.961  22.147  15.037  0.1310 -0.1412 -0.1585
 4477W        W47468  27.160  31.420  14.569 -0.1402  0.2211 -0.3625
 4478W        W47469  32.579  14.880  27.448 -0.1096  0.1238  0.2835
 4479W        W47470  13.889   2.888  15.825 -0.3533 -0.1481 -0.0126
 4480W        W47471   5.880  29.408   5.954 -0.0836 -0.0802  0.1378
 4481W        W47472  24.035   1.254   5.856 -0.0215 -0.1329  0.2222
 4482W        W47473   3.492  33.101  23.547 -0.0638  0.0048  0.0963
 4483W        W47474  30.684   1.164  18.288 -0.0806 -0.0297 -0.0317
 4484W        W47475  14.581  23.240  14.211 -0.2424 -0.0848 -0.0132
 4485W        W47476   0.218   1.290  16.196  0.0580  0.1076  0.1772
 4486W        W47477  18.143  29.941  21.512  0.0843  0.1765  0.2354
 4487W        W47478   8.899   9.655  17.174 -0.4409  0.0052 -0.2114
 4488W        W47479  13.368  12.535  19.759  0.0763 -0.1578 -0.2928
 4489W        W47480  34.456   6.064  21.795 -0.0802 -0.1962  0.1703
 4490W        W47481  10.732  31.471   1.326 -0.1109  0.0411  0.1423
 4491W        W47482   8.730  10.807   1.216  0.1344  0.1543  0.1458
 4492W        W47483   6.867  16.134  20.195 -0.0889  0.1020  0.0170
 4493W        W47484  31.736   2.938   8.946 -0.1573  0.2224  0.1155
 4494W        W47485   1.375   9.451   1.275 -0.1977  0.0731  0.3193
 4495W        W47486  28.539  11.141  18.334  0.2481  0.3982  0.2151
 4496W        W47487  12.078   5.989  10.149  0.2403 -0.0349  0.1598
 4497W        W47488  30.116  15.954  14.803  0.1486 -0.2890  0.0133
 4498W        W47489   3.022  30.823  17.048  0.0263  0.1328 -0.1765
 4499W        W47490  11.810  27.157  17.601 -0.0273  0.4392 -0.2877
 4500W        W47491  29.755   3.866  28.035  0.0210 -0.1624 -0.1998
 4501W        W47492  33.766   5.263  27.163  0.0751  0.1369  0.0094
 4502W        W47493   1.780   2.826  23.627  0.0319 -0.1651 -0.0656
 4503W        W47494  24.175  20.042   2.510 -0.1104  0.0464 -0.1198
 4504W        W47495   1.825  33.513  17.281  0.0105 -0.1174  0.0246
 4505W        W47496  33.464  33.790  21.733  0.2416  0.2537 -0.2971
 4506W        W47497   8.314  27.115  24.001  0.1923 -0.0368  0.0721
 4507W        W47498  27.479   5.389  15.961  0.0942 -0.1093 -0.1033
 4508W        W47499   1.830  29.605  20.058 -0.0089  0.0698  0.3938
 4509W        W47500   0.724   5.591  20.442 -0.0204 -0.1072 -0.1366
 4510W        W47501  31.867  34.302  24.532 -0.2559 -0.1499 -0.1535
 4511W        W47502   6.769  32.327  20.987  0.1323 -0.0410 -0.2124
 4512W        W47503  16.570   4.158  22.933  0.0316  0.0031 -0.1189
 4513W        W47504  14.121  30.337  18.351 -0.0900  0.3806  0.2758
 4514W        W47505   2.514  31.253  17.586  0.2319 -0.0372  0.1352
 4515W        W47506   9.066  33.112  18.803  0.1397 -0.0042  0.0741
 4516W        W47507   5.558  11.854  18.249 -0.0729 -0.4887  0.2589
 4517W        W47508  24.687  28.932  13.548  0.2627 -0.0019 -0.0697
 4518W        W47509   9.899  28.834  24.330 -0.0405 -0.3656 -0.1411
 4519W        W47510  30.101   7.617  19.256 -0.3812  0.0429 -0.4921
 4520W        W47511   3.559  27.431  22.546 -0.2341 -0.2065  0.4250
 4521W        W47512   0.822  11.644  24.624  0.3467  0.1579  0.0093
 4522W        W47513   7.571  28.517  26.489  0.1244 -0.1098 -0.1094
 4523W        W47514   2.844  32.710  21.772 -0.2122 -0.0780  0.2605
 4524W        W47515  27.374  14.725   0.417 -0.3078  0.1158 -0.1571
 4525W        W47516  27.847  32.724  13.791 -0.2840 -0.3402 -0.2870
 4526W        W47517   1.813  28.047  13.968 -0.1501  0.2584 -0.2385
 4527W        W47518   6.769  25.981  18.910  0.0809  0.0342  0.0027
 4528W        W47519   4.689  34.167  20.925  0.0483 -0.2823  0.2429
 4529W        W47520  15.592  16.422   4.436  0.0468  0.0760  0.0818
 4530W        W47521  10.973   7.614   0.883  0.2849 -0.2370  0.0221
 4531W        W47522   1.420  12.212   6.449 -0.2401  0.0173 -0.0971
 4532W        W47523  18.559  13.587  16.973  0.3256  0.0379 -0.3123
 4533W        W47524  12.798   7.248  19.354 -0.0562  0.1369 -0.2001
 4534W        W47525  17.907   1.356  24.838 -0.0964  0.1238 -0.0731
 4535W        W47526  34.608  19.514  29.093 -0.0496 -0.1173  0.0378
 4536W        W47527   9.486  20.859  17.149  0.1819  0.0127 -0.1784
 4537W        W47528   2.195  24.641  20.393  0.1406  0.4902  0.0037
 4538W        W47529  34.659   7.940  21.328  0.0289  0.0967  0.1620
 4539W        W47530  12.206  15.121  15.306 -0.1654  0.0831  0.0750
 4540W        W47531   9.976   9.015  23.276  0.1017  0.0892 -0.3118
 4541W        W47532   6.475   3.181   2.012 -0.4390  0.0648  0.0311
 4542W        W47533   8.986   2.706  16.659  0.2307  0.1430  0.0126
 4543W        W47534  20.270  10.638  18.776 -0.3064  0.2257  0.2005
 4544W        W47535   2.454  20.588  16.470 -0.0430  0.1469  0.1856
 4545W        W47536   6.215   8.256   3.000 -0.1747 -0.1802 -0.0885
 4546W        W47537   9.312  10.975  22.124 -0.1493 -0.5200 -0.3652
 4547W        W47538   8.763   2.759   8.241  0.1175  0.1308 -0.2868
 4548W        W47539  33.087   9.168  26.598 -0.2811 -0.0123 -0.0470
 4549W        W47540  30.625   3.022  21.943  0.1630 -0.0224 -0.2278
 4550W        W47541  25.901  24.346  26.445 -0.2318  0.3891  0.1321
 4551W        W47542   8.874  22.174  18.733  0.1103  0.0278 -0.0725
 4552W        W47543  15.719   0.801  14.724 -0.1394  0.0063  0.1033
 4553W        W47544  11.007   3.932   2.799  0.2737  0.1051  0.1748
 4554W        W47545   5.074  21.241   0.245 -0.1852 -0.0251 -0.3028
 4555W        W47546  22.238  20.083  14.165 -0.2100  0.0268  0.0493
 4556W        W47547  31.788   8.964  18.671  0.0305  0.0230 -0.0932
 4557W        W47548   2.008  19.370  19.290  0.3812  0.0113 -0.3806
 4558W        W47549  11.744  34.265  17.069  0.1384 -0.0968 -0.3432
 4559W        W47550   1.610  23.041  14.709 -0.2449 -0.1280  0.1173
 4560W        W47551  16.078  28.701  20.341 -0.0237  0.0265  0.0353
 4561W        W47552  21.390  12.356  25.745  0.3216  0.0630 -0.1234
 4562W        W47553  26.139  18.113  20.349 -0.0680  0.0544 -0.0389
 4563W        W47554  25.416  24.990  23.879 -0.0126 -0.1241 -0.0145
 4564W        W47555  11.389  32.920  22.674  0.4548 -0.0952  0.1915
 4565W        W47556   7.854   2.437  22.611  0.0146 -0.2803  0.0183
 4566W        W47557  30.490   0.836  22.043 -0.4018 -0.1591  0.3641
 4567W        W47558  24.669  32.257  28.060  0.1273 -0.2563  0.3171
 4568W        W47559  23.363  33.490  17.587  0.0107 -0.1369 -0.1280
 4569W        W47560  12.283  25.553   2.622 -0.1938  0.2098  0.0510
 4570W        W47561  26.303   2.293  27.599  0.0936 -0.1683 -0.1908
 4571W        W47562  10.291  28.100  17.554  0.1418  0.0992 -0.1118
 4572W        W47563  11.062  26.349  24.947 -0.3885 -0.1503  0.2023
 4573W        W47564  29.406   7.288  20.542 -0.0040 -0.0251 -0.2100
 4574W        W47565  15.897   1.633  24.051 -0.2247  0.2541 -0.1100
 4575W        W47566  11.197  17.497  21.610  0.1496 -0.0706  0.0598
 4576W        W47567  24.209   2.722  18.076 -0.3930 -0.2456 -0.0135
 4577W        W47568  22.528   5.377  16.198 -0.1529  0.1000 -0.0494
 4578W        W47569   6.341  28.620   1.008  0.3861 -0.1043  0.0676
 4579W        W47570  29.611  31.858   7.573 -0.3043 -0.0674  0.0467
 4580W        W47571   7.188   1.015  17.475 -0.0204  0.0889  0.0620
 4581W        W47572  20.895  10.461  24.137 -0.2278  0.1489  0.1684
 4582W        W47573  11.162  34.420  18.373 -0.5014 -0.0769  0.1188
 4583W        W47574   7.114   3.782   4.246 -0.1001 -0.0251 -0.0230
 4584W        W47575  30.232  20.429  14.208 -0.0020  0.2693  0.3851
 4585W        W47576   1.029  14.623  20.465 -0.3556 -0.1186 -0.2936
 4586W        W47577   5.766   1.460  21.959 -0.1009  0.3280  0.4683
 4587W        W47578   2.727  25.894  28.778  0.3871 -0.1692 -0.0305
 4588W        W47579   9.199   3.216  24.662 -0.0348  0.0231 -0.3596
 4589W        W47580  33.495  19.240  14.938 -0.0144  0.2347 -0.0699
 4590W        W47581  30.586   9.097  18.810  0.3199 -0.0253 -0.0656
 4591W        W47582  31.180  20.895   4.170 -0.0169  0.1213 -0.0103
 4592W        W47583  18.591   4.751  15.132 -0.0142  0.1513  0.0638
 4593W        W47584   5.250  34.758  22.096  0.0617  0.0996 -0.3284
 4594W        W47585   5.082  11.150  28.131  0.0093  0.1522  0.2455
 4595W        W47586  29.940  11.097  23.553 -0.0491 -0.1821 -0.2200
 4596W        W47587  29.433  28.321  22.027  0.1488  0.2419  0.2192
 4597W        W47588   9.395  26.156  16.654 -0.2056  0.1048  0.0335
 4598W        W47589  24.316   5.637  19.889 -0.4641 -0.0318 -0.3378
 4599W        W47590   6.439  12.998  26.030  0.1178  0.2657  0.0126
 4600W        W47591  28.377  11.632  17.227 -0.0581  0.1782  0.2652
 4601W        W47592  23.148   6.035  29.247  0.1503 -0.1280  0.3126
 4602W        W47593   2.498   7.972  19.375  0.2164 -0.3736  0.1250
 4603W        W47594  34.099   2.448  21.131  0.0938 -0.1095 -0.0493
 4604W        W47595   0.485  30.716  15.875  0.0465  0.0548  0.0515
 4605W        W47596   8.278   5.352   2.644 -0.1299 -0.0235  0.0890
 4606W        W47597  23.622   5.500   1.645 -0.1730  0.2387  0.0499
 4607W        W47598   0.729  32.408  18.443  0.1158  0.0855 -0.0010
 4608W        W47599   8.751   0.505  15.722  0.1894 -0.1209  0.0743
 4609W        W47600  27.642  30.888  17.361  0.0710  0.1696 -0.0121
 4610W        W47601   8.592   1.372  22.897  0.1450 -0.0153 -0.2278
 4611W        W47602  33.955  33.303  21.022 -0.0615 -0.0116 -0.3995
 4612W        W47603  32.597  20.676  25.407 -0.0393  0.2430  0.0387
 4613W        W47604   2.188  18.889  28.097  0.1088 -0.3579 -0.0228
 4614W        W47605   0.482  13.876  20.695 -0.2380  0.2272 -0.0442
 4615W        W47606  16.062  10.159  16.168 -0.3011 -0.4208  0.2027
 4616W        W47607   7.651   6.337  17.241 -0.0670  0.2797 -0.1373
 4617W        W47608  34.625   1.614  17.442 -0.1815  0.0967  0.0448
 4618W        W47609   9.740  21.654  16.167  0.4269 -0.1695 -0.4048
 4619W        W47610  30.811   5.441  13.999 -0.0274  0.0323  0.1265
 4620W        W47611  16.142  16.261  15.504  0.3883  0.0664 -0.0881
 4621W        W47612  33.056  20.988  23.044  0.0404  0.1528  0.1124
 4622W        W47613  14.357   8.673  19.214  0.2691 -0.0342  0.1953
 4623W        W47614   7.288   6.231  19.300  0.2037  0.0786 -0.1731
 4624W        W47615  30.903  28.146   5.450  0.1580 -0.1708  0.1321
 4625W        W47616  32.897   2.440  21.567 -0.1648  0.0217 -0.1329
 4626W        W47617   2.627   0.211  25.693  0.0530 -0.1234  0.0601
 4627W        W47618  26.429  12.785  18.726 -0.1657 -0.0450 -0.2442
 4628W        W47619  21.883  30.335  25.691  0.0415 -0.1256 -0.1665
 4629W        W47620  26.608   3.599  28.186  0.0129 -0.1045 -0.0258
 4630W        W47621   3.564  31.378  14.668 -0.4167 -0.0441  0.0382
 4631W        W47622  30.141  11.833  28.312  0.1605 -0.0474 -0.0532
 4632W        W47623   3.226  27.910  21.461  0.0619 -0.0745 -0.1371
 4633W        W47624  32.121  31.212  15.277 -0.1201 -0.1153  0.1020
 4634W        W47625  21.173   4.779  17.279  0.1699 -0.2014 -0.0252
 4635W        W47626   4.731  32.271  14.424  0.3558 -0.1478 -0.1114
 4636W        W47627   4.285   8.630  17.025 -0.0478 -0.0012  0.0244
 4637W        W47628  25.430   1.327  18.373 -0.4433 -0.2600 -0.2903
 4638W        W47629  28.404  10.599   5.889  0.1719  0.1214  0.2020
 4639W        W47630  33.457   1.891  25.720  0.0619  0.2855 -0.0781
 4640W        W47631  28.227  19.495  16.251  0.0179  0.1714 -0.0599
 4641W        W47632  33.586   1.801  19.383 -0.1748 -0.1622 -0.1443
 4642W        W47633  30.357  23.947  17.813  0.2692 -0.0685  0.1527
 4643W        W47634  25.934   5.583  23.893  0.2022  0.0430  0.1143
 4644W        W47635  18.003  33.158   0.555  0.3153  0.2456 -0.4059
 4645W        W47636  12.129   0.276   0.856 -0.3010 -0.0756  0.1360
 4646W        W47637   4.806  27.657  28.845 -0.0368  0.0726 -0.4925
 4647W        W47638  27.008   1.205  27.361  0.0485  0.0010  0.1568
 4648W        W47639  13.613  33.218  23.611 -0.0243  0.1434  0.3159
 4649W        W47640   6.155  23.384  16.763  0.0698 -0.0925  0.0619
 4650W        W47641  30.760  20.047  19.988  0.1358  0.3896  0.2863
 4651W        W47642   1.082   1.515  27.491 -0.0965  0.0889 -0.1240
 4652W        W47643   8.643  13.496   2.202 -0.1425 -0.1906 -0.0445
 4653W        W47644  26.346   8.204  27.839  0.2663  0.4911 -0.1353
 4654W        W47645  27.670  33.214  20.717  0.1167  0.1760 -0.1071
 4655W        W47646  19.805  26.760  22.214  0.0580 -0.0074  0.0977
 4656W        W47647  33.126  16.807  19.969  0.1027  0.0625 -0.1074
 4657W        W47648  26.950  13.778  15.182  0.3085  0.0598 -0.0853
 4658W        W47649  31.979  28.291  12.431  0.1746 -0.4945  0.0232
 4659W        W47650  14.385   0.189   6.721  0.1053  0.1165 -0.0855
 4660W        W47651   9.855  29.329   4.329  0.0411 -0.2873 -0.0772
 4661W        W47652  27.684  34.115  17.631 -0.1111  0.3803 -0.4149
 4662W        W47653   1.058  31.264  14.343  0.0200 -0.1376  0.1546
 4663W        W47654   8.855  31.294  14.139 -0.1327 -0.0140 -0.5860
 4664W        W47655  31.489   5.032  25.424 -0.2029 -0.0347  0.0777
 4665W        W47656  21.372   7.703  18.711  0.2209 -0.0801 -0.3017
 4666W        W47657  23.427  32.370  20.118  0.1683 -0.0684  0.3793
 4667W        W47658  27.298  14.112  20.729 -0.2564 -0.3085  0.2216
 4668W        W47659   3.812   1.749  21.651 -0.2546 -0.3308  0.1748
 4669W        W47660  30.399  31.559  21.061  0.1085 -0.1184 -0.1603
 4670W        W47661  15.435  32.055  18.955  0.0620 -0.3320 -0.0517
 4671W        W47662   1.998   7.137   0.176  0.2479 -0.1044  0.2840
 4672W        W47663  29.020  27.677   5.050  0.1415  0.0421 -0.0251
 4673W        W47664  11.178   0.984   0.598  0.2487 -0.0768  0.1031
 4674W        W47665   5.627   1.280  18.693 -0.2529  0.2159  0.1946
 4675W        W47666   0.978  32.080  22.016  0.4082 -0.1100 -0.0301
 4676W        W47667  32.376  25.013  19.904 -0.3053  0.1629  0.1537
 4677W        W47668   8.719  18.495  15.818 -0.0380 -0.1445  0.1257
 4678W        W47669   6.954   0.887  22.031 -0.0891  0.0573 -0.1443
 4679W        W47670  34.755   1.299  14.317 -0.0854  0.1683  0.1835
 4680W        W47671  24.901   8.826  26.384  0.1930  0.0617 -0.0992
 4681W        W47672   9.323  28.236   7.450  0.2341  0.0230 -0.0888
 4682W        W47673  26.802   0.228  27.346 -0.2440 -0.0216 -0.3059
 4683W        W47674   5.167   1.031  24.223 -0.3099  0.0675 -0.2046
 4684W        W47675  13.609  10.051  18.362  0.2144 -0.0640  0.0458
 4685W        W47676  32.216  33.711  16.957  0.1468  0.0689  0.0158
 4686W        W47677  25.643   6.372   0.250  0.0026 -0.0385  0.2144
 4687W        W47678   3.012   8.205   4.125 -0.3622  0.3007 -0.1577
 4688W        W47679  32.100  24.725  17.227 -0.1060 -0.1218 -0.1567
 4689W        W47680  10.981  32.266   1.748 -0.0027  0.0686  0.2352
 4690W        W47681  29.155  14.655   0.156 -0.2440  0.2090  0.0671
 4691W        W47682  11.165   3.709   0.794  0.4847 -0.0270 -0.3137
 4692W        W47683   9.553   4.351  26.213  0.1130  0.1052  0.1485
 4693W        W47684  24.833  12.814  13.970 -0.4203 -0.1714  0.2200
 4694W        W47685  30.593  25.870  24.294 -0.2031  0.3279 -0.1577
 4695W        W47686   4.569  14.485   7.635 -0.0179 -0.1210 -0.2637
 4696W        W47687  31.284   0.310  14.957  0.0516 -0.0407  0.0458
 4697W        W47688  19.455   4.303   0.106  0.3914 -0.0048 -0.2907
 4698W        W47689  12.132  29.153   8.095 -0.0590 -0.0315 -0.1956
 4699W        W47690  12.634  30.263  19.762  0.0181  0.1768 -0.1641
 4700W        W47691  32.539   0.012  15.248 -0.2150 -0.2138  0.1624
 4701W        W47692  11.137  30.986   8.265 -0.0213 -0.0158  0.1289
 4702W        W47693   1.639  30.480  16.148  0.2512 -0.2448 -0.0231
 4703W        W47694   2.357   6.381  19.053 -0.0294  0.0057  0.0629
 4704W        W47695  22.125  12.032  27.439  0.3211 -0.1376  0.1743
 4705W        W47696  22.293   6.945  12.953  0.4009  0.2891  0.0292
 4706W        W47697  32.272  15.772  17.353  0.0415  0.4232  0.0524
 4707W        W47698   0.026  25.043  14.449  0.1760 -0.0268 -0.2232
 4708W        W47699  12.565   4.692   2.643  0.0538 -0.1555 -0.1837
 4709W        W47700  22.755   2.941   1.377 -0.2258 -0.0012 -0.0473
 4710W        W47701  34.169   4.726  20.241 -0.1505  0.1115  0.1385
 4711W        W47702  34.183   8.236  21.910  0.1046  0.1364 -0.2050
 4712W        W47703  23.287  23.708  23.999 -0.2320  0.0827 -0.1194
 4713W        W47704  27.276   9.050  25.223  0.2431 -0.0979 -0.1042
 4714W        W47705  24.672   5.740  27.362 -0.2865  0.3857 -0.0583
 4715W        W47706  10.117  12.658  24.734 -0.3231  0.3001  0.0568
 4716W        W47707  27.150   8.347  20.386 -0.1486  0.0162 -0.0555
 4717W        W47708  29.228  31.338  28.788 -0.2050  0.0899 -0.2268
 4718W        W47709   2.733   0.719  18.682  0.1462 -0.1914 -0.2211
 4719W        W47710   5.115  25.565  25.651  0.0117 -0.1674  0.4916
 4720W        W47711  27.842  12.779  27.134  0.1059 -0.1254 -0.0654
 4721W        W47712   3.300   0.497  14.217 -0.0836  0.1617 -0.0457
 4722W        W47713   5.857   0.581  15.667  0.1461 -0.2463 -0.3304
 4723W        W47714  16.870   6.347  15.496  0.2511  0.1007  0.1277
 4724W        W47715   0.060  25.397  16.203 -0.0349  0.2577  0.3943
 4725W        W47716  31.095  26.131  21.865 -0.1125 -0.0598  0.0051
 4726W        W47717   4.552  13.013  27.055  0.0124  0.0582 -0.0163
 4727W        W47718   3.311  31.770  14.902 -0.1041 -0.2168 -0.0714
 4728W        W47719  13.001  23.669  25.599  0.0860  0.0379  0.1529
 4729W        W47720  28.828  16.520  25.980 -0.2788  0.0004  0.1236
 4730W        W47721  33.592  34.069  20.465  0.3569 -0.0343  0.4731
 4731W        W47722  28.507  10.569  17.997 -0.0062 -0.0913 -0.0190
 4732W        W47723  30.490  13.173  24.278  0.0497  0.1249 -0.2262
 4733W        W47724  30.756  30.285  28.625 -0.2498 -0.3460  0.3053
 4734W        W47725  16.540  33.672  18.137  0.2798 -0.0594  0.1488
 4735W        W47726  27.420  30.565  16.611 -0.0502 -0.1212  0.2123
 4736W        W47727  14.100  33.577  22.698  0.3032  0.0831 -0.0111
 4737W        W47728  32.441  34.624  14.031 -0.3147 -0.2017  0.0668
 4738W        W47729  13.554  10.224   0.971  0.1492  0.0374 -0.0241
 4739W        W47730   9.674   3.254  22.084 -0.2250  0.2901 -0.3713
 4740W        W47731  12.400   4.851  11.622 -0.0525  0.1724 -0.0990
 4741W        W47732  29.008  34.622  28.514 -0.0115 -0.1623  0.0551
 4742W        W47733  34.175   1.487  22.299 -0.2623  0.0788  0.1594
 4743W        W47734  30.398  32.311  26.117  0.1464  0.1431  0.0330
 4744W        W47735   9.864   1.181   5.375 -0.0670 -0.0950 -0.3769
 4745W        W47736  26.157   8.305  19.821  0.2265  0.1568 -0.0793
 4746W        W47737  20.477  34.614  21.849  0.1402  0.0138 -0.0626
 4747W        W47738  20.421  13.117  28.415  0.1675  0.0509 -0.0339
 4748W        W47739  20.722  29.398  17.134 -0.0860  0.0983  0.0362
 4749W        W47740  30.558  27.641  13.919  0.3010 -0.3132  0.1403
 4750W        W47741  26.985   2.375  17.011 -0.2027 -0.1989  0.0182
 4751W        W47742  33.950  25.479  18.115 -0.1095 -0.0426  0.3320
 4752W        W47743  11.782  15.256  23.222 -0.2727 -0.0778  0.1112
 4753W        W47744  13.313   0.489   5.982 -0.3387 -0.2403 -0.1059
 4754W        W47745  32.447  22.856  20.597  0.1574  0.1548 -0.1577
 4755W        W47746  27.048  29.518  22.722  0.2269  0.1167 -0.0585
 4756W        W47747  33.619  27.076  29.134 -0.1478 -0.1629  0.4017
 4757W        W47748  29.842  20.846   2.712 -0.1996 -0.2253 -0.0266
 4758W        W47749  10.238  26.060   1.186 -0.1633  0.2038 -0.1981
 4759W        W47750  15.568  24.119   4.918  0.2287  0.2607 -0.0006
 4760W        W47751   7.409   6.214   1.017  0.1295  0.4234  0.2879
 4761W        W47752   0.102   7.504   4.954 -0.1216 -0.1255 -0.0644
 4762W        W47753  30.772  26.691  18.803 -0.0577 -0.0453 -0.0063
 4763W        W47754  28.898   3.276  21.921 -0.1175 -0.0429  0.1743
 4764W        W47755   4.378   6.811  18.330  0.1864 -0.0514 -0.2547
 4765W        W47756   5.358   2.969  10.076 -0.1218 -0.3505 -0.0218
 4766W        W47757  16.120   6.483  28.282  0.0467 -0.2181  0.1187
 4767W        W47758  28.616  10.491  22.623 -0.0022 -0.1551  0.2580
 4768W        W47759   2.927  28.717  16.543 -0.1710  0.0319  0.1173
 4769W        W47760  15.487  30.145  20.522 -0.0693 -0.0567  0.0101
 4770W        W47761  24.355  28.367  21.588 -0.1426 -0.2149  0.0749
 4771W        W47762  25.804   4.040  17.559 -0.0017 -0.1503  0.0082
 4772W        W47763   0.587   4.709  17.644  0.0622 -0.1802  0.0905
 4773W        W47764  27.860   0.705  26.599 -0.0809  0.0545 -0.1408
 4774W        W47765  29.754   5.386  24.549 -0.1594 -0.0288 -0.1490
 4775W        W47766  30.665  27.510  13.298  0.3304 -0.1490  0.0501
 4776W        W47767   9.358  32.564   5.217 -0.0872  0.4078 -0.2593
 4777W        W47768   7.247   2.655  14.422 -0.1348  0.0692 -0.3291
 4778W        W47769   0.902  26.102  22.983 -0.1590  0.4016  0.3134
 4779W        W47770  19.923  33.107  19.077 -0.0776 -0.1124  0.2409
 4780W        W47771   8.156  12.111   0.726  0.0186 -0.2803 -0.1493
 4781W        W47772  30.930  34.484  17.845  0.1668  0.0289  0.1046
 4782W        W47773  29.513  18.498   9.781  0.3384  0.0593 -0.0158
 4783W        W47774  34.095  15.142  23.566  0.0467 -0.4220  0.1833
 4784W        W47775  10.672   5.396  22.228  0.1157 -0.0424 -0.1371
 4785W        W47776  23.263  29.433  19.035 -0.0770 -0.0126 -0.1247
 4786W        W47777  23.111   2.158   4.309 -0.0838 -0.1157 -0.0778
 4787W        W47778  28.853   5.365  25.057 -0.0151  0.0549 -0.2871
 4788W        W47779  18.548   8.080  19.968  0.0025 -0.0211  0.1105
 4789W        W47780  23.101  28.642  20.732 -0.0509  0.3222 -0.0747
 4790W        W47781  14.513  31.384   3.630  0.1175  0.2054  0.0885
 4791W        W47782  32.457  33.514  17.874  0.2044 -0.0225 -0.1781
 4792W        W47783  20.332  32.465  17.842  0.0006  0.1616  0.0195
 4793W        W47784   8.694   5.358  27.347  0.1296  0.0126  0.0146
 4794W        W47785   5.098   5.498  25.307 -0.1434  0.0060  0.1850
 4795W        W47786  16.907   5.637  25.048  0.2203  0.2892 -0.0741
 4796W        W47787  29.818  27.055  23.897 -0.2331 -0.0131 -0.3575
 4797W        W47788  11.979  18.406  21.690 -0.0557 -0.0711  0.1773
 4798W        W47789   1.739   3.798  19.086  0.1323 -0.3492  0.0921
 4799W        W47790  32.907   5.452  23.919 -0.3748 -0.2888 -0.0295
 4800W        W47791  26.804   5.680  27.721 -0.2783  0.1682  0.0713
 4801W        W47792   6.912  33.227  23.356  0.0837 -0.1235  0.3977
 4802W        W47793   9.347  34.199  18.497  0.0426 -0.1420  0.1064
 4803W        W47794  31.569   1.694  18.626  0.1221  0.2779  0.2413
 4804W        W47795  33.120  25.305  25.333  0.2015  0.2408 -0.2001
 4805W        W47796   7.845  29.267  25.994  0.1488  0.1650 -0.0036
 4806W        W47797  13.490  28.033  27.794 -0.0363  0.1521 -0.0244
 4807W        W47798  14.249  32.513  23.981  0.0699 -0.1992 -0.0691
 4808W        W47799   2.626  17.329  23.002 -0.1575  0.1797 -0.0266
 4809W        W47800  28.995   5.746   7.902 -0.0770 -0.1382  0.3699
 4810W        W47801  10.556   2.739  26.115 -0.1079  0.0944 -0.0108
 4811W        W47802  26.944  27.198  15.863 -0.3457 -0.0386  0.2224
 4812W        W47803   8.198   1.286  14.093  0.1874  0.1416 -0.0626
 4813W        W47804   1.854   5.479   5.654  0.0617  0.3834  0.2479
 4814W        W47805  33.715  13.937   7.719 -0.0540  0.0775 -0.3160
 4815W        W47806  19.780   5.516   5.143  0.1284 -0.0413 -0.3246
 4816W        W47807  26.358  24.554  26.235 -0.0703 -0.0594  0.1213
 4817W        W47808  34.520   3.740  21.568 -0.2846 -0.3662  0.1304
 4818W        W47809   0.891   4.948  14.808 -0.2351 -0.3488 -0.1398
 4819W        W47810   5.018  11.440   2.741 -0.0546 -0.1487 -0.0631
 4820W        W47811  13.164  14.568   2.934  0.1850 -0.3037 -0.2190
 4821W        W47812  34.084   6.631  28.239  0.3682 -0.3029 -0.0701
 4822W        W47813  23.757  33.740  15.848  0.3605  0.0545 -0.1366
 4823W        W47814  22.747  21.289  15.079 -0.1401 -0.0999  0.0255
 4824W        W47815  16.171  34.435  15.516  0.2298  0.3251  0.1520
 4825W        W47816  33.761  29.160  21.829 -0.2598 -0.1233  0.1694
 4826W        W47817   0.600   1.658  23.758 -0.0994 -0.0125 -0.3936
 4827W        W47818   5.932   6.049  23.591  0.1205 -0.4029 -0.0489
 4828W        W47819  22.890   1.870  25.200  0.2425 -0.0596  0.0123
 4829W        W47820   8.074  33.785  25.271 -0.2370  0.3200 -0.2745
 4830W        W47821  17.339  30.793  23.125  0.2228 -0.0650 -0.0743
 4831W        W47822   2.300   8.989  22.930 -0.0562  0.0229 -0.1211
 4832W        W47823  31.637   8.648   6.185 -0.0300  0.1052  0.1481
 4833W        W47824   7.538  33.929  28.677  0.2124  0.0425 -0.0565
 4834W        W47825  20.470  16.036   6.760  0.1763 -0.2088  0.0865
 4835W        W47826  29.066   5.689  15.769  0.2555 -0.2794 -0.0336
 4836W        W47827   8.688  26.171  20.341 -0.1644 -0.1991 -0.3436
 4837W        W47828  23.022   3.715   0.999 -0.1148 -0.0294 -0.2970
 4838W        W47829   4.925  21.968  24.299  0.3338 -0.1514  0.0655
 4839W        W47830  29.813   0.937  28.955  0.2674 -0.0447  0.1009
 4840W        W47831  16.550  24.152   0.003 -0.1315 -0.0665 -0.0094
 4841W        W47832   3.316  33.345  21.309  0.1001  0.0629 -0.0421
 4842W        W47833   8.119   2.400   0.568 -0.0164 -0.0883  0.0129
 4843W        W47834   5.567  31.359   8.173  0.0564 -0.2356  0.0238
 4844W        W47835  17.064  34.381  21.646  0.2474 -0.3324 -0.0971
 4845W        W47836  33.846   3.177  19.785  0.0045  0.0619 -0.0596
 4846W        W47837   6.334   7.313   0.106  0.0657  0.0567 -0.1212
 4847W        W47838  32.662  31.966  25.782  0.0189 -0.1772  0.1501
 4848W        W47839   6.995  14.363  26.520  0.0666  0.5021  0.2220
 4849W        W47840  30.963  12.953   2.341  0.1920  0.3098 -0.3780
 4850W        W47841   0.478   5.665  28.257 -0.0219  0.1560  0.2127
 4851W        W47842   4.153  23.154  21.992 -0.0367  0.0117  0.1922
 4852W        W47843   3.614   4.044  18.199 -0.1081 -0.2236  0.0694
 4853W        W47844   9.355  31.532   1.870  0.1664 -0.2270  0.2499
 4854W        W47845  10.127   8.643  16.820 -0.2369  0.0151 -0.1908
 4855W        W47846   6.670   1.609   7.514 -0.3877  0.3116  0.0211
 4856W        W47847   9.717  32.152  15.398 -0.1656 -0.2868 -0.3365
 4857W        W47848  33.993  20.286  28.393  0.0730  0.0300  0.2383
 4858W        W47849  28.399   4.535   6.175  0.0052 -0.1387  0.1339
 4859W        W47850  14.058   2.328  25.637  0.0932  0.0177  0.0302
 4860W        W47851  31.597   4.040  18.474  0.0126 -0.0628  0.0396
 4861W        W47852  29.172  33.847  28.372  0.0667 -0.2226  0.1443
 4862W        W47853  14.899  10.491  15.704 -0.0185 -0.2214  0.0044
 4863W        W47854  33.798  33.403   0.363  0.0563  0.0376  0.3573
 4864W        W47855   1.523   9.059   7.425 -0.3714  0.0985 -0.3779
 4865W        W47856   9.451   2.164   7.710 -0.0598 -0.1047 -0.0589
 4866W        W47857  30.166   8.700  24.926 -0.2605 -0.1686  0.1142
 4867W        W47858  31.924  33.107   6.205 -0.1839 -0.1292 -0.1223
 4868W        W47859  25.560   2.764  24.251  0.0195  0.2665 -0.1545
 4869W        W47860   3.833  17.496  18.890 -0.2006  0.2502 -0.0786
 4870W        W47861   6.056   9.531  25.414  0.0203  0.0912 -0.3921
 4871W        W47862  15.111   6.403  22.329  0.3222 -0.0828  0.0794
 4872W        W47863  11.385   3.009  26.290 -0.2373  0.0092  0.0053
 4873W        W47864  10.390  25.233   3.794  0.0977  0.1475 -0.2193
 4874W        W47865   7.735  22.029  18.088  0.3392 -0.0404  0.2331
 4875W        W47866  31.703  23.462   1.267 -0.0621  0.1949 -0.1942
 4876W        W47867   6.340  31.215  26.514 -0.0818  0.0556 -0.0466
 4877W        W47868  12.007  16.810  26.434  0.2519 -0.0429  0.3208
 4878W        W47869  34.710  12.930  25.068  0.1987 -0.1988  0.2254
 4879W        W47870   1.468  30.392  14.867  0.2636  0.2891  0.1960
 4880W        W47871  33.673   2.614  17.596  0.2770  0.0869 -0.5281
 4881W        W47872  26.770  34.642  18.772  0.0320 -0.0607  0.2216
 4882W        W47873  33.092  12.898  20.927  0.1511  0.2751  0.0745
 4883W        W47874   2.053  12.462  11.409  0.1580 -0.0255 -0.0329
 4884W        W47875  34.471  25.228  21.845  0.0917  0.1240  0.1645
 4885W        W47876  34.491  13.261   9.263 -0.0371 -0.0316 -0.4075
 4886W        W47877  14.058   7.258  19.788 -0.0831  0.1048 -0.0139
 4887W        W47878  15.152  29.519   3.223  0.2774 -0.2553  0.1115
 4888W        W47879  23.743  14.273   0.631 -0.1137 -0.0728 -0.2098
 4889W        W47880  32.119   0.041  17.211 -0.1880  0.4094  0.4634
 4890W        W47881  24.520  10.806  28.008 -0.0141  0.4381 -0.0359
 4891W        W47882   6.164  17.940  17.182  0.1493  0.0776 -0.1162
 4892W        W47883   5.512  33.037   0.666 -0.2133  0.1936 -0.1100
 4893W        W47884  28.566  11.624  19.037 -0.1152  0.4310 -0.1270
 4894W        W47885  29.485  13.862  23.555 -0.1110 -0.0881 -0.0936
 4895W        W47886   8.269   8.491  19.518  0.4070 -0.1905 -0.3088
 4896W        W47887  14.185  23.709  27.283 -0.1143  0.0344  0.0973
 4897W        W47888   0.519  17.958  27.412  0.1119  0.1597 -0.1965
 4898W        W47889   2.576  30.973  28.213 -0.2019  0.0606 -0.1438
 4899W        W47890  22.203  12.781  27.282 -0.0779 -0.1596  0.1534
 4900W        W47891   6.054  17.332  16.372 -0.0322  0.0528 -0.0809
 4901W        W47892   1.421  30.271   4.119  0.2406 -0.0650  0.0127
 4902W        W47893   1.477  34.210  25.354  0.1080 -0.3745  0.0876
 4903W        W47894  27.521   0.059  20.642  0.0108 -0.0486 -0.2236
 4904W        W47895  16.684   6.105   0.815 -0.2652 -0.0477 -0.0888
 4905W        W47896   6.176  28.043   3.706 -0.0107  0.0749 -0.0782
 4906W        W47897  29.164  32.788  21.779 -0.1110 -0.1323  0.2253
 4907W        W47898  32.326   3.685  24.527  0.1338 -0.1394 -0.1775
 4908W        W47899   5.181  29.984   2.345  0.0067 -0.2566  0.1448
 4909W        W47900   7.307  22.198  20.306 -0.1204  0.0606  0.0962
 4910W        W47901   4.772  28.535  23.047  0.0873  0.0325 -0.1021
 4911W        W47902  30.811  23.070  27.909 -0.0216  0.0618 -0.0088
 4912W        W47903  13.092  13.313   4.922 -0.3238 -0.1847 -0.1040
 4913W        W47904  10.012  22.864  14.810  0.3252 -0.1308 -0.0219
 4914W        W47905  18.169   0.936   1.284  0.0378 -0.2823  0.3472
 4915W        W47906  30.978  32.476  18.200 -0.2720  0.2475  0.3007
 4916W        W47907  33.194   9.479  17.083 -0.2088 -0.0752 -0.2003
 4917W        W47908  26.327   4.769  23.065 -0.0736  0.1060 -0.0316
 4918W        W47909  18.116  25.215  18.526  0.1088 -0.3215  0.0365
 4919W        W47910  27.500  32.612  21.677  0.2827  0.0842  0.2339
 4920W        W47911   1.481  23.943   5.943 -0.2175 -0.1087  0.1691
 4921W        W47912  16.429   8.183  16.547  0.2932  0.0515  0.0847
 4922W        W47913   6.351  24.102  17.457  0.0913 -0.0186 -0.2152
 4923W        W47914   8.978  17.199  24.609 -0.1153 -0.0074 -0.2339
 4924W        W47915   5.911   6.997  15.668  0.1574 -0.0504 -0.0296
 4925W        W47916   1.874  11.837   7.799  0.0310 -0.0134 -0.1272
 4926W        W47917   5.915   6.191  17.810 -0.0178 -0.2193 -0.0488
 4927W        W47918  26.158   3.591  16.847  0.2459 -0.0313 -0.0661
 4928W        W47919  11.247  31.785  22.545 -0.1639  0.2004  0.0757
 4929W        W47920  31.610   6.512  17.629 -0.3037  0.0601  0.3397
 4930W        W47921  34.350   7.662  24.558  0.1159  0.1064  0.1313
 4931W        W47922  34.654  30.493  25.637 -0.0189  0.0261 -0.2057
 4932W        W47923   8.912   6.030  28.207  0.0210 -0.1605  0.0754
 4933W        W47924   3.098   8.751  22.858 -0.0012 -0.1306 -0.0843
 4934W        W47925   9.083   5.603   0.947 -0.1151 -0.1311 -0.0558
 4935W        W47926   0.362  23.683  20.599 -0.3648  0.0651 -0.1137
 4936W        W47927   1.580  20.283  16.096 -0.0184 -0.2437  0.1355
 4937W        W47928  31.524  34.705  15.531  0.1620 -0.1881 -0.0228
 4938W        W47929  30.308  14.284  25.861 -0.3533 -0.3367  0.0592
 4939W        W47930  29.639  23.262  21.391 -0.0668  0.0803 -0.2570
 4940W        W47931   1.496  13.227   5.627 -0.0027 -0.1257  0.0430
 4941W        W47932  13.947  12.449  27.693  0.1196 -0.1378 -0.0143
 4942W        W47933  13.282  30.215  22.283 -0.0425  0.0837 -0.1980
 4943W        W47934  33.566  11.666  23.892  0.1372 -0.4079  0.0875
 4944W        W47935  12.224   2.340  23.966 -0.2380 -0.1599  0.2545
 4945W        W47936  22.994  10.037  14.139  0.1782  0.3169 -0.0533
 4946W        W47937  17.786   0.781  24.573 -0.0675  0.2998  0.0557
 4947W        W47938   6.333  29.639   4.647 -0.1582 -0.0259  0.1475
 4948W        W47939   6.063  25.822  17.697 -0.0042  0.0007  0.0806
 4949W        W47940  30.349   3.918   3.451  0.0155  0.1052  0.1424
 4950W        W47941  23.826  22.275  27.332 -0.2901 -0.0198 -0.0609
 4951W        W47942  29.453  33.653  23.454 -0.0548 -0.0348 -0.1664
 4952W        W47943  30.020  17.709  26.634 -0.1131  0.0396 -0.3532
 4953W        W47944   0.810  32.797  27.430  0.0787 -0.0746  0.0610
 4954W        W47945   5.421  15.682   9.381 -0.2721  0.0701  0.1628
 4955W        W47946   5.925  29.351  26.230 -0.1553 -0.2697  0.0258
 4956W        W47947  31.749  24.227   5.116  0.2072 -0.0668  0.1976
 4957W        W47948   3.142  13.728  18.125 -0.1168 -0.0679 -0.0083
 4958W        W47949  15.446  21.186  28.088 -0.2710 -0.2218  0.2037
 4959W        W47950  10.982  14.401   4.500  0.0557  0.0381  0.2337
 4960W        W47951   3.396  23.208  16.069  0.1470 -0.2905 -0.2234
 4961W        W47952  30.501  28.553  17.958 -0.0220  0.0259 -0.0740
 4962W        W47953  24.006   7.164   6.649  0.3823  0.1610 -0.0505
 4963W        W47954  29.198   6.156  22.051 -0.2038 -0.0208  0.2384
 4964W        W47955  22.915  30.869   8.245 -0.2140 -0.1733  0.1063
 4965W        W47956  26.579   6.805  15.680  0.1862 -0.0822  0.0226
 4966W        W47957  12.854  34.703  16.370 -0.0257  0.0152 -0.2841
 4967W        W47958  30.199  17.877   5.500 -0.2210  0.0109 -0.2438
 4968W        W47959  23.319  12.883   7.110 -0.1674  0.0494  0.0828
 4969W        W47960  32.008  11.459  22.402 -0.3055 -0.0577 -0.1839
 4970W        W47961  21.640  15.120   5.623  0.0062 -0.0038  0.0965
 4971W        W47962   2.657   7.421  24.421  0.1809  0.1114  0.2349
 4972W        W47963  16.178  19.342  25.452  0.3020  0.0955  0.3023
 4973W        W47964  20.405  25.795  14.041 -0.0242 -0.0829  0.2718
 4974W        W47965  24.575   6.218   3.886 -0.0895  0.0525 -0.2950
 4975W        W47966  32.913   3.665  21.643  0.1236  0.0850  0.1367
 4976W        W47967  25.710   6.783   2.644 -0.0383 -0.2091 -0.0972
 4977W        W47968  31.775  18.890   3.128  0.2172  0.0216  0.1214
 4978W        W47969   6.965  24.490  25.738  0.1069 -0.1931  0.1633
 4979W        W47970  11.368  27.295   5.185 -0.1985 -0.2995 -0.3430
 4980W        W47971   5.655   4.917  19.952 -0.0513 -0.0131 -0.0613
 4981W        W47972   7.884   8.673  25.001  0.2440 -0.1398  0.1130
 4982W        W47973  27.978  28.264  13.659 -0.2736 -0.2911  0.1033
 4983W        W47974  10.430  14.467  18.325 -0.1362 -0.3366 -0.1088
 4984W        W47975   0.345  27.077  18.047  0.0292 -0.1462  0.1065
 4985W        W47976  11.296   1.034  25.115  0.1465  0.0159 -0.2150
 4986W        W47977   2.646  28.220  17.350  0.0679  0.0648 -0.2081
 4987W        W47978   8.035   6.599  25.147 -0.1053 -0.2087  0.1076
 4988W        W47979   5.853  12.320  23.584 -0.1518  0.2427  0.2917
 4989W        W47980  34.594  15.481  27.537  0.1888  0.4002  0.1257
 4990W        W47981   2.323   3.242  14.958 -0.1404 -0.0482 -0.0432
 4991W        W47982   3.471  33.888  20.456 -0.1823  0.1629  0.1377
 4992W        W47983  31.520  31.654   0.590 -0.0556 -0.1584 -0.0900
 4993W        W47984   3.259   5.771   7.468  0.0830  0.1323 -0.0978
 4994W        W47985  22.201   4.538   7.047  0.1786  0.1343 -0.0320
 4995W        W47986  26.877  30.176   7.331 -0.0815 -0.0250 -0.0915
 4996W        W47987  33.310  13.679  10.417 -0.3011 -0.0118  0.1220
 4997W        W47988  11.116  30.977  17.958  0.1263 -0.3840  0.4404
 4998W        W47989   8.997  26.221  16.071  0.1576 -0.0987 -0.2307
 4999W        W47990  31.560  31.854  17.888  0.1653  0.0876 -0.4307
 5000W        W47991  32.692  25.266  26.583 -0.2022  0.4755 -0.0331
 5001W        W47992   7.545  17.057  16.743 -0.2851 -0.1230  0.1632
 5002W        W47993   4.524  12.289  15.879  0.1556 -0.2795 -0.3307
 5003W        W47994  17.058  32.837  20.237  0.1074  0.0986 -0.0022
 5004W        W47995  34.295   1.048  20.380  0.0056 -0.0512 -0.1093
 5005W        W47996   4.876   5.581  19.735 -0.0484 -0.0147 -0.1744
 5006W        W47997  28.852  30.685  13.217 -0.0268 -0.2210  0.1310
 5007W        W47998  29.981   5.462  14.216  0.0422  0.0838  0.2313
 5008W        W47999  29.931   0.749  22.219  0.4603 -0.3358 -0.1580
 5009W        W48000  14.635  34.566   5.046 -0.0793  0.4527 -0.4053
 5010W        W48001   1.401  29.453  14.449  0.0774  0.1440  0.2317
 5011W        W48002  11.724  32.587   2.735 -0.1202 -0.0272 -0.2137
 5012W        W48003   0.528   2.419   0.108 -0.5504 -0.0242  0.0709
 5013W        W48004   1.210  26.658  24.092 -0.1475  0.1960 -0.0758
 5014W        W48005   7.351   6.069  16.013  0.2428  0.0176  0.2781
 5015W        W48006  33.721   7.235   3.171  0.0868  0.0481 -0.1647
 5016W        W48007  17.162   9.366  21.456  0.2169  0.1886  0.1664
 5017W        W48008   0.114  33.259  26.395  0.2022  0.3080  0.1676
 5018W        W48009   1.200  11.025  18.983 -0.1619  0.1634  0.0258
 5019W        W48010  11.292   3.252  16.090 -0.3387  0.1668  0.0389
 5020W        W48011   1.425   9.060  26.435  0.1035 -0.3162  0.1788
 5021W        W48012  14.123  13.012   4.948  0.3894 -0.1545  0.0183
 5022W        W48013  32.319   1.850  22.996  0.1668 -0.0281  0.1329
 5023W        W48014  25.565   9.381  22.174  0.1481  0.2538  0.1525
 5024W        W48015  33.984  25.366  21.846 -0.0037  0.1689 -0.2200
 5025W        W48016  31.921   5.825  15.100 -0.2088 -0.3290 -0.0062
 5026W        W48017  32.950  27.275   6.461 -0.3935  0.2920 -0.2679
 5027W        W48018   1.141  31.355  15.784 -0.4126 -0.1592  0.0554
 5028W        W48019  30.983   2.337  15.256  0.0933 -0.0927 -0.0122
 5029W        W48020  30.519  26.063  16.580  0.0530  0.0583  0.1924
 5030W        W48021   0.074   4.233   3.878 -0.0859  0.2283 -0.0793
 5031W        W48022  11.240  22.625  22.439  0.2443  0.1259  0.2710
 5032W        W48023   3.202  18.748  21.796 -0.4991 -0.0289 -0.2327
 5033W        W48024  23.393  24.981   7.817 -0.0288  0.0475 -0.1984
 5034W        W48025  10.973  12.889  28.874  0.1814 -0.0154  0.1331
 5035W        W48026  32.474  32.126   4.626 -0.1571 -0.1446  0.0417
 5036W        W48027  32.726   1.361  16.545 -0.2726  0.0934  0.2565
 5037W        W48028   9.789  20.278  15.935 -0.2754 -0.2205 -0.1143
 5038W        W48029  29.043   1.094   6.556  0.1708  0.2248 -0.0078
 5039W        W48030   6.346  27.402  19.080 -0.1651 -0.0582 -0.2468
 5040W        W48031  15.215   9.876  19.538 -0.3785 -0.1491 -0.3913
 5041W        W48032   7.277  11.856  26.330  0.0158  0.4098 -0.0773
 5042W        W48033   0.488   0.106  16.661 -0.0121  0.1857 -0.0539
 5043W        W48034   7.613  15.188   7.127 -0.0606  0.0868  0.1860
 5044W        W48035  24.256   3.028  24.699  0.2530 -0.2693 -0.2872
 5045W        W48036  22.804  28.838   2.211 -0.0898 -0.0543 -0.1371
 5046W        W48037   2.806   2.289  16.880 -0.0328 -0.2224 -0.1295
 5047W        W48038  11.542  26.924  28.109 -0.2112 -0.0519  0.3679
 5048W        W48039  22.424  27.384   2.614  0.1865  0.2050 -0.0164
 5049W        W48040   9.622  30.282   4.746  0.2130  0.3236  0.0265
 5050W        W48041   6.668   1.769  17.981 -0.0392  0.1312 -0.1396
 5051W        W48042   5.405  11.932   0.514 -0.1716  0.2130 -0.2948
 5052W        W48043  28.291   5.792   3.373  0.1461 -0.1182  0.2122
 5053W        W48044   7.513  29.419  18.174  0.1944  0.1297  0.0375
 5054W        W48045  32.964   0.134  16.242 -0.1012  0.2583  0.1003
 5055W        W48046  24.358   0.824  21.407  0.1032 -0.2351 -0.0772
 5056W        W48047  30.452  15.852  19.987  0.1450 -0.2248  0.0895
 5057W        W48048   4.838  20.056  22.366 -0.1044 -0.0353 -0.1234
 5058W        W48049   2.160   0.869  19.248 -0.0993 -0.1198 -0.0477
 5059W        W48050  30.516  14.537  20.713  0.0661 -0.0708 -0.1341
 5060W        W48051  31.954  13.386  21.864  0.1849  0.1495 -0.0223
 5061W        W48052   3.454  32.440  19.993  0.1675 -0.1410 -0.1633
 5062W        W48053  17.768  32.499  17.088 -0.0088 -0.2766 -0.0300
 5063W        W48054  18.393  13.482  15.400 -0.0554 -0.4032 -0.4077
 5064W        W48055  26.263   1.639  28.703 -0.5039  0.3061  0.3375
 5065W        W48056   0.575  31.398  16.498 -0.1202 -0.0078  0.4053
 5066W        W48057   5.205   0.974  20.098  0.1199  0.2634 -0.1771
 5067W        W48058  22.975   5.205  22.488 -0.2163 -0.1212  0.1174
 5068W        W48059   7.609  14.475   4.332 -0.3886 -0.1118 -0.0379
 5069W        W48060  23.262   4.697   8.070  0.0713  0.2941  0.1335
 5070W        W48061   0.483   7.616  24.915  0.0043 -0.1713 -0.3819
 5071W        W48062   6.724   6.122  16.594  0.1021  0.1944 -0.1935
 5072W        W48063  28.039  11.607   5.435 -0.2856 -0.1919  0.2413
 5073W        W48064  28.054  15.931  15.802 -0.1431 -0.3000 -0.2073
 5074W        W48065  15.320   5.875  25.207  0.1651  0.0053 -0.0581
 5075W        W48066   9.546  33.150  17.939 -0.1014  0.0621  0.0725
 5076W        W48067  32.015   4.872  27.639  0.2344  0.1991 -0.1761
 5077W        W48068  25.175  34.010  13.584  0.0630 -0.0029  0.0090
 5078W        W48069   0.379  11.086  17.355  0.1443 -0.0269  0.2837
 5079W        W48070   0.399   1.644  24.248 -0.1226 -0.1925  0.1899
 5080W        W48071  17.869  32.796  29.112  0.3257 -0.0079  0.3317
 5081W        W48072  34.031   6.068  14.084  0.1219  0.0615 -0.1900
 5082W        W48073  33.290   2.646  17.209  0.0392 -0.0106 -0.0158
 5083W        W48074  15.465   1.283  16.391  0.2076 -0.2054  0.0359
 5084W        W48075  11.819  18.743  26.310  0.2326  0.0625 -0.0031
 5085W        W48076  29.686  11.353   4.674  0.0574 -0.2603  0.2165
 5086W        W48077  30.712   0.404  26.501  0.4441 -0.3021 -0.2415
 5087W        W48078   1.067  28.291  16.225  0.2940  0.1150  0.2084
 5088W        W48079  19.618   3.989   5.701 -0.2101  0.0030  0.1445
 5089W        W48080  34.537  24.096  28.964  0.1048 -0.0405  0.2591
 5090W        W48081  29.541  33.626  16.145  0.1123 -0.0081  0.1402
 5091W        W48082   9.516   3.966  24.309 -0.0954  0.0664  0.0650
 5092W        W48083   0.959   6.701   4.536  0.1509 -0.0249  0.1820
 5093W        W48084  17.816  32.457   6.255  0.1753 -0.1926  0.0886
 5094W        W48085  15.037   0.626  18.500 -0.2852  0.1137 -0.1379
 5095W        W48086  15.989  27.979  24.374 -0.2529 -0.0487  0.0645
 5096W        W48087  28.599  14.297   8.001  0.0638 -0.0265  0.1575
 5097W        W48088   3.425  34.512  16.566 -0.2538  0.1522  0.3745
 5098W        W48089   1.461   4.918  22.262  0.0983  0.1330  0.1119
 5099W        W48090  29.999  34.643  20.648  0.2687 -0.1675  0.1035
 5100W        W48091  32.178   4.105  14.358  0.0076  0.0569  0.2489
 5101W        W48092   0.703  30.171   0.835  0.0688  0.1824 -0.0855
 5102W        W48093   1.085   2.874  22.650 -0.1616  0.1119  0.3748
 5103W        W48094  21.526  24.725   2.883 -0.0860 -0.0682  0.1140
 5104W        W48095  12.886  32.347  14.238 -0.3452 -0.2341  0.0269
 5105W        W48096  31.034   2.807  16.114  0.3181 -0.0496 -0.1161
 5106W        W48097   6.161   1.216  22.337 -0.2543 -0.0021  0.1260
 5107W        W48098   6.646   1.614  18.732 -0.0314 -0.1241 -0.1330
 5108W        W48099   1.505  20.809   7.280 -0.0333  0.1354  0.0542
 5109W        W48100  33.125   4.397   2.872 -0.0301  0.1694  0.1959
 5110W        W48101  10.847  13.836   2.366  0.0041  0.1311  0.1144
 5111W        W48102  13.901   9.244   3.542 -0.2808  0.0977 -0.1823
 5112W        W48103  23.277  27.101  23.695 -0.2239  0.3566 -0.3939
 5113W        W48104  33.950   3.845   8.290  0.2254 -0.3865  0.1523
 5114W        W48105   2.856   4.746   2.181 -0.2035  0.0603  0.0528
 5115W        W48106   1.021   5.245   0.373  0.0645 -0.2909 -0.1365
 5116W        W48107  27.113   8.217  22.647  0.1436 -0.1666  0.0019
 5117W        W48108   2.898  23.119  24.136  0.1206 -0.0696 -0.2680
 5118W        W48109   6.910  32.853   4.341 -0.0538 -0.0966  0.1563
 5119W        W48110   3.648  16.431  24.376 -0.3703 -0.2411 -0.0020
 5120W        W48111   3.007   8.429  23.329 -0.0731  0.2390  0.0678
 5121W        W48112  20.582  34.596   0.666  0.3753  0.1536  0.0811
 5122W        W48113  24.012   8.517  15.878  0.1768  0.1274  0.0149
 5123W        W48114  26.611  27.961   4.989 -0.0206  0.1051 -0.2283
 5124W        W48115  27.318   1.699  19.546 -0.1639  0.1148  0.0801
 5125W        W48116  22.291  33.814  27.159  0.0024  0.0927  0.1238
 5126W        W48117   1.091  30.474   2.252 -0.0281  0.0725 -0.0110
 5127W        W48118   1.101   8.497   0.200 -0.1687 -0.1490  0.0102
 5128W        W48119  11.993  10.374   4.777  0.0009 -0.1737 -0.1103
 5129W        W48120  28.908  24.053   9.022  0.4640 -0.0829 -0.0441
 5130W        W48121   5.573  25.226  25.547 -0.0547  0.1909 -0.3085
 5131W        W48122   1.709   6.983  15.055 -0.2199  0.2082 -0.3326
 5132W        W48123  33.839   9.169   8.624 -0.2969  0.0946  0.1561
 5133W        W48124  27.928  23.953  22.659 -0.2429 -0.0862  0.1732
 5134W        W48125  34.040  31.051  26.443 -0.0971 -0.0091 -0.1048
 5135W        W48126  12.194   2.661  21.781 -0.3225  0.1341 -0.0381
 5136W        W48127   9.475  26.996  26.688  0.0372 -0.1472 -0.1148
 5137W        W48128   7.060   1.367   2.955 -0.1901 -0.1071 -0.1418
 5138W        W48129  25.657  32.682   2.367 -0.0565 -0.0367 -0.0851
 5139W        W48130   5.178   4.413  28.882  0.0423  0.0961 -0.1350
 5140W        W48131   7.362  26.026  20.471 -0.2445  0.1201  0.0480
 5141W        W48132  31.425  34.436  18.029 -0.0660  0.0815 -0.2462
 5142W        W48133  34.533  10.252  10.029 -0.3196 -0.0853  0.3531
 5143W        W48134  11.145  11.120  17.852 -0.4166 -0.4393  0.1374
 5144W        W48135  19.790   3.406  27.116 -0.0394 -0.2863  0.1300
 5145W        W48136  12.944  30.651   2.443  0.0997  0.0258 -0.1323
 5146W        W48137  15.087   8.909  20.321 -0.0638 -0.0635  0.0183
 5147W        W48138   6.597   9.838  26.687  0.0554 -0.2608 -0.1443
 5148W        W48139   2.462   2.721   5.633  0.0396  0.0982  0.2183
 5149W        W48140  32.073  22.789   9.515  0.2144  0.1261 -0.0284
 5150W        W48141  31.935   2.938  15.509  0.0080  0.3848 -0.2056
 5151W        W48142   5.169  27.334  17.610  0.2325  0.2225 -0.3770
 5152W        W48143   3.211  34.797  21.651  0.0601 -0.0878  0.2742
 5153W        W48144   2.199  10.619   5.122 -0.2181  0.0218 -0.3354
 5154W        W48145  10.169   4.810  19.232 -0.3236  0.0760 -0.1005
 5155W        W48146  16.735  32.585   5.349 -0.0351 -0.0347  0.0586
 5156W        W48147  30.338  21.000  27.110  0.2511  0.0145  0.1421
 5157W        W48148  10.641  32.379  26.278 -0.2203  0.0049  0.0724
 5158W        W48149  21.139  11.955  29.234 -0.2272  0.2495 -0.0182
 5159W        W48150  14.315  18.431  24.925 -0.2549 -0.0691  0.1144
 5160W        W48151   8.939  34.649  28.621 -0.1753 -0.1301 -0.0191
 5161W        W48152  21.490  30.637  24.741  0.1264 -0.2618  0.0711
 5162W        W48153   4.563  34.659  23.155  0.2355  0.0302 -0.0444
 5163W        W48154  30.299  30.401   5.739 -0.1275 -0.3517  0.0387
 5164W        W48155   0.225  30.624   2.072  0.1152 -0.0217  0.0183
 5165W        W48156  33.454  31.918   2.284 -0.3097 -0.3764  0.4104
 5166W        W48157  12.270   2.214  21.066 -0.0717  0.2651  0.1480
 5167W        W48158   0.086   9.692  18.821 -0.1771  0.2768  0.0226
 5168W        W48159  19.302  30.999  13.774  0.0341  0.2034  0.4263
 5169W        W48160   5.457   5.513  19.640 -0.2629 -0.0239  0.1225
 5170W        W48161  29.076  11.012  20.756  0.0501  0.1141 -0.2024
 5171W        W48162  18.703  30.032  26.813  0.2050  0.0411  0.2992
 5172W        W48163   8.980  27.644  23.549 -0.2436  0.1500 -0.2242
 5173W        W48164   3.934   5.015  22.167  0.1799  0.1732 -0.1481
 5174W        W48165  34.765  15.800   9.620  0.3563 -0.1168 -0.4806
 5175W        W48166  32.837   6.923   1.195  0.1168  0.1023 -0.5339
 5176W        W48167  25.854   0.756   3.375  0.0788  0.0729 -0.2873
 5177W        W48168  11.007  11.317  28.462 -0.0518  0.1306  0.1429
 5178W        W48169   4.923  30.564  24.618  0.0385  0.0464  0.0629
 5179W        W48170  27.658  16.408  25.227  0.1977  0.3412  0.2570
 5180W        W48171  29.591  26.690  23.105 -0.0489  0.1142 -0.2050
 5181W        W48172  16.713  25.312   8.979 -0.1292 -0.0840  0.1160
 5182W        W48173  33.140  33.420   0.743  0.3399 -0.0466 -0.0881
 5183W        W48174  10.750   1.559   2.704  0.0041 -0.1681  0.1399
 5184W        W48175  20.881   6.068  25.743 -0.1646  0.3623  0.1429
 5185W        W48176  19.025   7.993  23.491 -0.1824 -0.0426 -0.0866
 5186W        W48177  22.358  15.748  29.097 -0.1558 -0.2876 -0.0926
 5187W        W48178   4.307   5.351   2.282 -0.0170  0.1146  0.1196
 5188W        W48179  28.236  27.982  13.979 -0.3295 -0.1305 -0.0806
 5189W        W48180   0.563  27.217  24.692  0.1029  0.2550 -0.2839
 5190W        W48181  19.629  19.125  24.056 -0.1694  0.0375  0.1488
 5191W        W48182   2.323  24.012   3.738  0.2238  0.4294  0.3595
 5192W        W48183  20.511  30.743  15.534 -0.0176 -0.2154  0.2413
 5193W        W48184   3.787   0.878  23.524  0.5576  0.0754  0.0271
 5194W        W48185  32.917   3.873   9.388 -0.2917  0.1238 -0.1557
 5195W        W48186   2.067  11.780  19.840 -0.2529 -0.0547 -0.0909
 5196W        W48187   9.472   7.973  19.307  0.1136 -0.2120  0.0804
 5197W        W48188  11.327  19.122   5.653 -0.1136  0.1391 -0.0827
 5198W        W48189  15.384  29.817   9.347  0.0929  0.3243 -0.1193
 5199W        W48190   6.969  26.790   4.587  0.2185 -0.0585  0.0821
 5200W        W48191  13.773   8.542  17.537  0.2505 -0.1160 -0.0483
 5201W        W48192   1.875  17.657  23.871 -0.2516  0.2406  0.1850
 5202W        W48193   0.249   5.528   8.594  0.0039  0.2805 -0.0782
 5203W        W48194  32.732  16.255   5.172  0.1853 -0.3044  0.3188
 5204W        W48195  13.075  33.160  27.102  0.2105  0.0156  0.1742
 5205W        W48196  11.695  34.414   0.534 -0.0478  0.2890  0.1496
 5206W        W48197   4.466  15.678  23.833 -0.2834 -0.0333 -0.2341
 5207W        W48198  17.662   8.219  23.527 -0.2153 -0.1668  0.4570
 5208W        W48199   6.849  19.708  26.443  0.2314 -0.4399 -0.1141
 5209W        W48200  16.252  21.532  26.753 -0.1288 -0.0073 -0.7582
 5210W        W48201  27.191  30.634   2.110  0.2232 -0.2211 -0.0174
 5211W        W48202  31.535  13.587  19.381  0.3229 -0.0856  0.0801
 5212W        W48203  34.762   0.030   7.141 -0.0461  0.1453 -0.3018
 5213W        W48204   4.087   2.692   2.605  0.4635 -0.0445  0.1520
 5214W        W48205   6.599   8.237  15.512  0.0283  0.0649  0.1757
 5215W        W48206  15.137   4.704   0.893  0.0286  0.0996 -0.0682
 5216W        W48207  26.053   1.472  17.560 -0.1779  0.1422 -0.1861
 5217W        W48208   6.709   1.023   3.336 -0.1955  0.0883 -0.2940
 5218W        W48209  10.379  25.189  16.563 -0.1620  0.2463  0.2347
 5219W        W48210  34.789  14.522   0.119 -0.4120 -0.0135 -0.3343
 5220W        W48211  25.140   5.423   8.424 -0.1720 -0.1534  0.0824
 5221W        W48212   1.575  32.870  24.721 -0.1875  0.0500 -0.1423
 5222W        W48213  19.961   0.194   4.234  0.1904 -0.1047  0.2174
 5223W        W48214   6.024  28.489  23.237 -0.3224 -0.3736 -0.2525
 5224W        W48215  29.799  13.409  28.110  0.1001  0.4474 -0.1693
 5225W        W48216   0.499  20.694   7.925  0.0832  0.4503 -0.3971
 5226W        W48217   4.403   5.659   0.060  0.0091  0.2585 -0.2946
 5227W        W48218   8.875  29.210  18.239 -0.4553 -0.2291  0.5111
 5228W        W48219  10.672   3.495  22.784 -0.2882  0.1166 -0.3960
 5229W        W48220  10.907  22.094  20.325  0.1739  0.1887  0.2632
 5230W        W48221  31.366  21.308  25.882 -0.0332 -0.0689  0.0538
 5231W        W48222   1.603  29.502  24.103  0.0615  0.0324 -0.0583
 5232W        W48223  26.015  31.332   0.784  0.0594  0.3512 -0.2528
 5233W        W48224  30.348   9.484  24.228  0.2363  0.0325 -0.1137
 5234W        W48225   4.143  21.080  20.966  0.3127 -0.1260  0.4957
 5235W        W48226  14.548   9.529  18.979 -0.0458  0.0124  0.1072
 5236W        W48227  11.066  26.656  22.206  0.1236  0.2369 -0.0565
 5237W        W48228   5.661   1.447   1.303 -0.1423 -0.0508  0.3042
 5238W        W48229   5.016   7.003  21.868  0.0299  0.0402  0.0271
 5239W        W48230   0.068   1.838   9.958 -0.1794 -0.0945  0.1984
 5240W        W48231  25.644   7.154  24.099  0.0658  0.2200 -0.0297
 5241W        W48232  11.151  29.589  21.281  0.0200  0.0482 -0.1190
 5242W        W48233  33.871   5.418  22.640  0.0130  0.0750 -0.0356
 5243W        W48234   5.266  29.842   4.957 -0.0173  0.1037  0.1320
 5244W        W48235  33.225  11.907  15.044  0.0452  0.1413  0.1116
 5245W        W48236  18.982  34.026  25.614  0.2182  0.3743  0.2906
 5246W        W48237  31.826  28.126  24.979  0.0070 -0.0251 -0.4672
 5247W        W48238  20.204   8.809   1.956 -0.3161 -0.0355 -0.2097
 5248W        W48239  15.144   6.911  28.281 -0.3686 -0.3777  0.0366
 5249W        W48240  17.627   9.373  21.798 -0.3952 -0.0158  0.1681
 5250W        W48241  34.426   2.905   5.406 -0.0977  0.2037  0.1592
 5251W        W48242  15.342   7.254  27.458 -0.1940  0.0962 -0.1479
 5252W        W48243   6.980  22.622   2.928 -0.1559  0.3059  0.0119
 5253W        W48244   6.031   2.244  14.702 -0.0500 -0.2325  0.1016
 5254W        W48245   0.120   4.773  20.292 -0.0941 -0.0864 -0.0327
 5255W        W48246  16.603  34.311   3.799  0.1045  0.0832 -0.3790
 5256W        W48247   2.377  29.568  15.378  0.0225 -0.2001  0.0790
 5257W        W48248  29.539  21.370  28.697  0.0684 -0.3045 -0.2241
 5258W        W48249   6.760  34.652   9.334  0.1323  0.2965  0.0051
 5259W        W48250  19.246  15.831  23.844 -0.0133  0.0479  0.1575
 5260W        W48251  26.144  32.906  23.121  0.2169 -0.5465  0.0921
 5261W        W48252  15.594  10.141  25.783 -0.0517  0.0101  0.1560
 5262W        W48253  22.118  16.825   2.130 -0.0566 -0.2012 -0.3066
 5263W        W48254  24.231   9.641  25.454 -0.1267 -0.2918 -0.0403
 5264W        W48255  31.943  27.838  15.256  0.5177  0.1979 -0.2389
 5265W        W48256  29.647  22.223  23.884 -0.1288  0.2036 -0.1706
 5266W        W48257  34.028   5.272  21.268  0.3266 -0.2121  0.2439
 5267W        W48258  17.824   0.955  23.259 -0.1690 -0.1394  0.1267
 5268W        W48259   3.476  27.158  25.818 -0.2581 -0.0268  0.0545
 5269W        W48260   5.216   6.180   7.812  0.0327  0.2884  0.1657
 5270W        W48261  23.184  28.120  15.643  0.0072 -0.0925  0.0065
 5271W        W48262  18.605   1.226  21.687  0.1152  0.2086  0.0699
 5272W        W48263   8.601   0.721   0.264  0.0338 -0.0017  0.0044
 5273W        W48264  28.915  18.750  20.036 -0.1142 -0.1941 -0.4670
 5274W        W48265   8.116   6.569   8.702 -0.0991  0.0305 -0.0241
 5275W        W48266   1.268   9.535  20.313 -0.1002 -0.2579  0.3279
 5276W        W48267  32.931  34.551  26.942 -0.1004  0.1665  0.0700
 5277W        W48268  10.351   1.293  28.134  0.1271  0.0715  0.1912
 5278W        W48269  14.368  10.412  20.953  0.2501  0.1852  0.2370
 5279W        W48270  25.684  18.335  28.767 -0.0936 -0.0046  0.0978
 5280W        W48271   2.588  24.802  15.815  0.0974 -0.3175  0.0526
 5281W        W48272   8.244   1.005   6.782 -0.1895 -0.0652 -0.0524
 5282W        W48273  30.757  34.521  26.756  0.2370 -0.2744  0.2390
 5283W        W48274   6.031  12.883   6.066 -0.0424 -0.1144  0.1781
 5284W        W48275  29.716   5.187  18.842  0.3067 -0.0418 -0.0575
 5285W        W48276  11.134   0.705  16.082  0.0865 -0.3349 -0.0227
 5286W        W48277   0.312   4.931  25.020  0.1417 -0.1108 -0.2283
 5287W        W48278  24.130  20.624  25.813  0.1678 -0.1252  0.2198
 5288W        W48279  12.694  27.729  21.620 -0.0908  0.0371 -0.0091
 5289W        W48280   4.927   2.358  29.183 -0.0477 -0.1824  0.0975
 5290W        W48281  33.415   4.463  27.376  0.0909 -0.0907 -0.1620
 5291W        W48282  15.108  10.545   6.933 -0.0434  0.0472 -0.1372
 5292W        W48283  24.304  28.069  20.802 -0.2833 -0.0348 -0.1010
 5293W        W48284   9.632  22.164   9.932  0.1979  0.1943 -0.2729
 5294W        W48285   5.039   0.072  14.745  0.1175  0.0962  0.1940
 5295W        W48286   4.895  27.957  16.256 -0.0988  0.0519 -0.2100
 5296W        W48287   7.360  24.159  19.889  0.0213  0.1450  0.2285
 5297W        W48288  20.376   8.248  25.826  0.1113  0.1605  0.4431
 5298W        W48289  23.351  34.018   6.412  0.0633  0.0954 -0.0892
 5299W        W48290   3.195  14.264   0.767  0.0602  0.1602 -0.0493
 5300W        W48291  20.099  32.157   2.055 -0.1833 -0.1081 -0.2179
 5301W        W48292  17.179   0.516   0.791 -0.0364  0.0259  0.2248
 5302W        W48293   0.563  22.486  16.555  0.2016  0.2944 -0.1562
 5303W        W48294  18.276  25.169  17.422  0.0013 -0.0543 -0.0229
 5304W        W48295  11.695  34.690  16.649 -0.1033  0.0333  0.0210
 5305W        W48296   7.255  31.950   1.613  0.2255  0.1843  0.0456
 5306W        W48297  27.703   5.086  22.996  0.0168 -0.0566 -0.0981
 5307W        W48298  21.788  31.168  13.175  0.1503 -0.2057 -0.3616
 5308W        W48299  29.379   7.185   6.276 -0.0674 -0.2079  0.2048
 5309W        W48300   9.575   6.931  25.717  0.0849 -0.3128 -0.0388
 5310W        W48301   0.428   1.396   7.374 -0.0424  0.2614 -0.0158
 5311W        W48302  11.798  10.623   0.929  0.2128 -0.1677 -0.0376
 5312W        W48303   4.518   8.575  26.642 -0.0277  0.2324  0.0874
 5313W        W48304  18.363  29.877  17.658 -0.0709 -0.0340 -0.1534
 5314W        W48305  19.028  25.828  17.247  0.2106  0.1003  0.1319
 5315W        W48306  26.065  26.499  26.910  0.0917 -0.0852 -0.3399
 5316W        W48307   5.635  32.087  23.303 -0.0684  0.0240 -0.0947
 5317W        W48308   3.738  25.942  22.458  0.0043  0.2621  0.2248
 5318W        W48309  12.888   7.883  18.001 -0.0032  0.1509 -0.1467
 5319W        W48310  10.906  30.859  19.862 -0.3564  0.1304 -0.0114
 5320W        W48311   7.271  30.522   4.822 -0.0550  0.0527  0.1432
 5321W        W48312   2.074  13.701  26.080 -0.1665 -0.1215 -0.0938
 5322W        W48313   6.027   6.479  20.339 -0.0953 -0.2469 -0.0556
 5323W        W48314  26.372  33.027   7.971  0.0438  0.0706 -0.0597
 5324W        W48315   4.689  20.959  27.700 -0.1152  0.2546  0.0697
 5325W        W48316   1.987   6.749  24.437 -0.0674  0.0638 -0.0679
 5326W        W48317  13.140   5.912  19.605  0.1791  0.0781  0.1238
 5327W        W48318  11.331  34.615  16.982  0.0868 -0.1783 -0.0637
 5328W        W48319  16.458   6.917   5.859 -0.0336 -0.1225  0.0013
 5329W        W48320  26.316   5.815  27.608 -0.2073 -0.2321 -0.1953
 5330W        W48321   6.798  30.193   0.799 -0.0392  0.2260  0.0321
 5331W        W48322   9.639   0.417  15.490 -0.0727  0.1496  0.1281
 5332W        W48323  24.932   7.619  17.777 -0.0900 -0.1163  0.2068
 5333W        W48324  23.388   3.470   8.499  0.0706 -0.0370  0.0439
 5334W        W48325  29.358  16.498   7.139  0.1425 -0.1116  0.0692
 5335W        W48326  31.673  12.656  20.587 -0.1611 -0.3794  0.0780
 5336W        W48327   8.973   1.843   9.442 -0.1110 -0.0421  0.4170
 5337W        W48328  19.326  29.307  24.443  0.0411 -0.0484 -0.0404
 5338W        W48329   5.561  34.759  21.060  0.1144 -0.1751 -0.3337
 5339W        W48330   5.389   3.094  25.756  0.2464  0.1864 -0.0332
 5340W        W48331  28.157  30.049  14.168  0.0514  0.0393  0.1186
 5341W        W48332  15.470  30.852  15.264  0.2127  0.0539  0.0325
 5342W        W48333   6.830   1.266  23.273  0.2696  0.0180 -0.0246
 5343W        W48334   6.794  29.638  28.289 -0.2548  0.0085  0.0913
 5344W        W48335  21.240  11.181   5.916  0.1895 -0.2191 -0.1486
 5345W        W48336   7.000   1.796  16.825  0.0120 -0.0927 -0.3505
 5346W        W48337   5.254  30.868  22.883 -0.0211  0.1262  0.2229
 5347W        W48338  24.655   6.544  18.822 -0.1015 -0.0051  0.0631
 5348W        W48339  34.139  23.913  10.228 -0.1254  0.0728  0.0300
 5349W        W48340  33.021  15.327   2.871  0.2493 -0.3631  0.1979
 5350W        W48341  16.362   8.603  24.997  0.0575  0.0396  0.0962
 5351W        W48342  11.058  24.212  23.789  0.0711 -0.0570 -0.2709
 5352W        W48343  32.532  19.210   2.643 -0.0348  0.1404  0.0279
 5353W        W48344  27.260   5.795  25.477  0.2315 -0.2477 -0.0448
 5354W        W48345  23.705  23.891  14.426  0.3310 -0.1955 -0.0006
 5355W        W48346  23.660  29.896   6.054 -0.1346  0.2969 -0.1239
 5356W        W48347  13.970  27.180   1.187  0.1378 -0.1007 -0.2679
 5357W        W48348  14.574  22.267  13.464  0.0704 -0.0342  0.1968
 5358W        W48349  26.572  10.087  19.006  0.0753  0.0621  0.2148
 5359W        W48350  10.540   1.342   1.153 -0.0797  0.0213  0.1843
 5360W        W48351  15.020  33.639  25.696 -0.1735  0.1647  0.1149
 5361W        W48352  28.968  15.152  22.526 -0.1281 -0.3101 -0.0124
 5362W        W48353  33.867  28.663  21.968 -0.1389 -0.1605  0.0769
 5363W        W48354  33.822  24.877  24.060 -0.5117 -0.0268 -0.0328
 5364W        W48355   5.008  26.395   0.646  0.3096  0.2208  0.5664
 5365W        W48356  32.109  30.235  23.975  0.0098  0.3212 -0.2738
 5366W        W48357  26.363  15.489   5.920 -0.3661 -0.2855 -0.0636
 5367W        W48358  27.614  34.718   2.558 -0.2020  0.0192 -0.0004
 5368W        W48359   2.952   9.587  24.221 -0.1269  0.3642  0.0153
 5369W        W48360  33.403   4.644  26.787 -0.1550 -0.0894 -0.2084
 5370W        W48361   2.424   0.329   8.715 -0.0843  0.1409 -0.3731
 5371W        W48362  32.592  22.006  16.277 -0.1389 -0.3642  0.0390
 5372W        W48363  29.176  11.672   0.227 -0.5279 -0.0093  0.3628
 5373W        W48364  31.795  29.982  20.980  0.1806 -0.3592 -0.1763
 5374W        W48365   6.808  21.377  28.943 -0.1919 -0.0842  0.0098
 5375W        W48366   2.536   5.152  29.105  0.2353  0.0984 -0.0549
 5376W        W48367  27.576  29.638  22.977  0.0742 -0.0323 -0.0227
 5377W        W48368  18.145  32.740   7.089  0.0446  0.1650 -0.0500
 5378W        W48369   4.805  19.867  23.875  0.2175  0.2506  0.0167
 5379W        W48370  13.857   2.995  28.052  0.0189 -0.1469 -0.0702
 5380W        W48371  34.673   6.187   3.904 -0.0464 -0.2476 -0.2776
 5381W        W48372   0.059   4.015  26.891 -0.2443 -0.1095  0.1354
 5382W        W48373   6.268  34.547   9.973 -0.1181  0.2444  0.2635
 5383W        W48374   3.131   2.072  20.815  0.1012  0.3733 -0.0951
 5384W        W48375   3.074  29.200   8.013 -0.0982  0.0786  0.0619
 5385W        W48376   9.088   4.564   1.500  0.0321 -0.0820 -0.2216
 5386W        W48377   5.401  12.672   3.187  0.1866 -0.0341  0.1316
 5387W        W48378  29.740   3.342   3.601 -0.1233  0.2103  0.1800
 5388W        W48379  21.188  27.454   8.673  0.0739  0.1825 -0.2098
 5389W        W48380  19.204  24.492  28.870 -0.0170  0.0269 -0.0727
 5390W        W48381   8.527  10.717   6.583 -0.0208  0.0373  0.2225
 5391W        W48382  32.341  26.203  14.029  0.1416 -0.1173  0.0521
 5392W        W48383   6.351   9.592   7.288 -0.0307  0.0062  0.0525
 5393W        W48384  28.126  13.084  23.415 -0.4171 -0.0095  0.1527
 5394W        W48385  13.869  26.896   9.591 -0.1944 -0.0395  0.1758
 5395W        W48386   4.123   1.434   5.318 -0.0584  0.0788 -0.0887
 5396W        W48387  13.461  13.038   7.135  0.1129  0.1356 -0.0798
 5397W        W48388   1.174  15.948   0.989  0.0536  0.0483  0.1530
 5398W        W48389  31.930   2.623  20.175 -0.0703 -0.1758 -0.0818
 5399W        W48390  32.885   5.645   1.047  0.0460 -0.0970  0.1310
 5400W        W48391   8.461  27.742   3.207  0.1346  0.1434  0.1346
 5401W        W48392   3.476  28.900  26.275  0.0582  0.0681 -0.0517
 5402W        W48393   4.438  28.661   5.280 -0.0045 -0.2983 -0.0248
 5403W        W48394  14.650  20.189   4.495  0.4840  0.1523  0.0128
 5404W        W48395  32.518  24.463  20.039 -0.0961  0.0373 -0.1405
 5405W        W48396   1.490   5.173   0.608  0.8627 -0.1155 -0.0817
 5406W        W48397  30.050   6.693  27.963 -0.1575  0.0541 -0.0638
 5407W        W48398  30.553   3.166   1.581 -0.3177 -0.1615  0.0093
 5408W        W48399  34.479  16.332  21.292  0.0845  0.0449  0.0140
 5409W        W48400   2.630   9.153  19.688 -0.1723 -0.1166  0.0508
 5410W        W48401  34.668  19.642  24.759  0.3404 -0.1080  0.2288
 5411W        W48402   9.759   4.428   1.944 -0.1714  0.0323  0.0421
 5412W        W48403  32.051  31.028   7.703  0.0189 -0.0734  0.0666
 5413W        W48404  34.283   1.353  25.749  0.1246 -0.0847 -0.0891
 5414W        W48405   1.955  22.940   8.039 -0.2130  0.0084  0.1070
 5415W        W48406  31.619  32.062  25.689 -0.0378 -0.0790  0.2370
 5416W        W48407  22.801   0.390   0.934  0.3843  0.0954  0.1343
 5417W        W48408  10.112  27.699   3.184 -0.2333  0.0935 -0.1016
 5418W        W48409   3.113  33.233  19.723 -0.1459 -0.1636  0.0453
 5419W        W48410  25.685  25.230  20.881  0.1648  0.1817  0.0644
 5420W        W48411  11.702   5.142   8.946  0.1000  0.0821 -0.0204
 5421W        W48412  11.170   6.546  22.270 -0.2545 -0.1479  0.0979
 5422W        W48413  14.939   5.591  27.893 -0.1114 -0.0419 -0.1820
 5423W        W48414   1.667   3.017  24.149 -0.1623 -0.2189  0.3131
 5424W        W48415  27.665  22.329  15.884  0.2346 -0.2335 -0.0911
 5425W        W48416   5.125   1.226  18.624  0.3475 -0.1084  0.2327
 5426W        W48417  20.234   4.861   1.218 -0.1840 -0.0857 -0.0810
 5427W        W48418   5.130   5.480   1.957  0.1315 -0.0782 -0.2795
 5428W        W48419   7.187  26.456  15.483  0.0081 -0.1657 -0.1193
 5429W        W48420  29.489   8.548   0.176 -0.1171 -0.0668  0.0318
 5430W        W48421   9.384  11.715   8.099 -0.1562  0.1635 -0.0512
 5431W        W48422   8.471  16.607  27.241  0.1432  0.0222 -0.2021
 5432W        W48423  17.787   8.798   4.361  0.0231  0.1062  0.2811
 5433W        W48424  15.372  32.368   2.845 -0.0751 -0.0091 -0.1791
 5434W        W48425   3.364   3.194  18.417  0.1587  0.1546 -0.0974
 5435W        W48426  24.669   6.481   1.692  0.2522 -0.1702  0.0006
 5436W        W48427   4.513  25.599  21.050  0.4632 -0.2715 -0.1686
 5437W        W48428  16.462   0.358  20.247  0.6103 -0.2671 -0.2735
 5438W        W48429  33.869   8.595   5.123 -0.0006  0.3277 -0.1513
 5439W        W48430   5.074  10.897  23.369  0.0271 -0.0230 -0.1204
 5440W        W48431  10.061  18.304  20.881 -0.2292  0.1720 -0.0956
 5441W        W48432   3.580  12.857  25.129  0.2044 -0.2980 -0.0214
 5442W        W48433  26.659  34.402   3.323 -0.4710  0.0480 -0.2850
 5443W        W48434  17.510   6.933  16.347  0.0850  0.0744  0.0551
 5444W        W48435  10.266   3.308   2.832 -0.0674 -0.2190  0.0952
 5445W        W48436   1.738   8.287  16.508  0.3386  0.0218 -0.0417
 5446W        W48437   8.025   4.829  23.788 -0.0759 -0.3249  0.1247
 5447W        W48438  14.891  15.833  28.867 -0.3799 -0.1126 -0.3114
 5448W        W48439  13.865  19.823  19.336  0.1765 -0.2600 -0.0810
 5449W        W48440  27.802   2.645  25.190  0.0673 -0.1368  0.1051
 5450W        W48441  28.310   2.318   3.844 -0.0575 -0.2771 -0.0120
 5451W        W48442  24.723   5.863  17.967 -0.1928  0.0026  0.0306
 5452W        W48443   7.420  13.378   3.923 -0.0349 -0.1145  0.0476
 5453W        W48444   6.801  21.820  24.694  0.1173  0.2726 -0.4043
 5454W        W48445  29.460  18.176   2.692 -0.2066 -0.2019 -0.1009
 5455W        W48446  32.599  11.324   1.324 -0.1052  0.1726 -0.0472
 5456W        W48447   7.065   1.340  20.371  0.2611 -0.3276  0.1695
 5457W        W48448  29.385   4.578   0.218 -0.0738  0.0419 -0.0104
 5458W        W48449  15.830  29.634  22.384  0.0213  0.1785 -0.6256
 5459W        W48450  12.242  20.417   4.820 -0.0131  0.1362  0.0972
 5460W        W48451  33.835  10.968  27.882 -0.2852 -0.1973 -0.0462
 5461W        W48452   8.031   6.495  22.668 -0.1516  0.1178  0.2258
 5462W        W48453  23.749  23.571  15.266 -0.1497  0.1741  0.3742
 5463W        W48454   7.885   3.090   8.062 -0.0629 -0.1240  0.1699
 5464W        W48455  29.027  21.799  20.462  0.0941  0.0296  0.2074
 5465W        W48456   5.571  24.900  21.355  0.0256  0.0934 -0.1982
 5466W        W48457   0.694  31.901  21.531 -0.1946  0.0034 -0.1013
 5467W        W48458  34.665   4.607  16.119 -0.0838  0.1522  0.1726
 5468W        W48459  12.409   9.034  21.764  0.1018  0.1773 -0.1906
 5469W        W48460   4.717  13.935   6.766 -0.0828  0.1099  0.0464
 5470W        W48461  15.893  34.528  28.638  0.0568  0.1801 -0.0660
 5471W        W48462  31.151  32.496   5.347 -0.1372 -0.2823 -0.2420
 5472W        W48463  21.340  30.142  27.443 -0.0444 -0.1927 -0.0047
 5473W        W48464  30.749   0.083  27.889 -0.2842 -0.1714 -0.0753
 5474W        W48465   7.292  34.696  11.224 -0.1786  0.1187 -0.0060
 5475W        W48466  10.055  18.656  26.251  0.3935 -0.1757 -0.1645
 5476W        W48467  16.260  25.383   7.377 -0.2474 -0.1153 -0.2375
 5477W        W48468  15.160   4.697  17.202  0.0261 -0.0720  0.0425
 5478W        W48469   5.707  23.907  15.250  0.1548 -0.0779 -0.3659
 5479W        W48470   2.983   0.331   3.856 -0.2580 -0.1760 -0.1033
 5480W        W48471  33.810  19.172  21.220 -0.0211 -0.2066  0.2309
 5481W        W48472  11.436  23.269   0.092  0.3766  0.0593  0.2291
 5482W        W48473  12.134   7.998   4.379  0.2893 -0.2304  0.1889
 5483W        W48474  26.457  28.349  15.188 -0.0282  0.1838 -0.1100
 5484W        W48475   9.173  28.526  29.263  0.4607 -0.2145 -0.0828
 5485W        W48476  12.171  24.378  22.782  0.1297  0.0133  0.0670
 5486W        W48477   3.996   9.945  25.702 -0.0288  0.2469  0.1401
 5487W        W48478   2.270  11.427   2.321 -0.1864  0.0102 -0.1348
 5488W        W48479   6.739   3.459   6.209  0.0740  0.0020 -0.0063
 5489W        W48480  34.722  18.717  24.658  0.2362 -0.2558 -0.2823
 5490W        W48481  32.513  27.169  19.698 -0.3341 -0.0928 -0.0041
 5491W        W48482   7.181  11.368   8.291  0.2863  0.1459 -0.1576
 5492W        W48483   3.558  26.062   0.205  0.1459 -0.1588  0.2461
 5493W        W48484  34.339  33.724  24.404 -0.0152  0.2868 -0.1877
 5494W        W48485   4.306  21.093   0.024  0.0230 -0.0779 -0.1392
 5495W        W48486   3.558  10.400   3.993  0.1134 -0.1866 -0.1015
 5496W        W48487   1.581  23.116   7.508  0.0604  0.0105  0.1654
 5497W        W48488   2.142  23.221  14.090 -0.1780  0.0761  0.1643
 5498W        W48489   6.825  17.927  14.882 -0.1340 -0.4515 -0.1662
 5499W        W48490  20.615  34.780  14.883 -0.1723  0.1320  0.0646
 5500W        W48491   7.480   4.889   9.359 -0.2169  0.0896 -0.0829
 5501W        W48492  26.857   2.207  28.222  0.2407 -0.0282 -0.3214
 5502W        W48493  14.050  21.522   7.814  0.4969  0.0428  0.2155
 5503W        W48494  27.939   3.702   6.146 -0.0488  0.1151 -0.0437
 5504W        W48495  13.792  12.106   1.447 -0.0924 -0.1080 -0.2494
 5505W        W48496  13.433  33.793   4.868 -0.0693  0.1272  0.1925
 5506W        W48497  16.790  14.529  13.507 -0.2371 -0.0890 -0.0839
 5507W        W48498   2.898  27.303  26.590  0.6101 -0.3797 -0.3124
 5508W        W48499  26.535  16.245   2.827 -0.3520 -0.1750  0.0784
 5509W        W48500   5.140   4.278   4.380  0.2281 -0.1947 -0.2589
 5510W        W48501  13.858  30.021   3.706 -0.3052  0.2803  0.1699
 5511W        W48502   6.322   3.502  10.457 -0.0573  0.1229 -0.1015
 5512W        W48503   6.656   0.433  16.294 -0.0659  0.2685  0.0861
 5513W        W48504  11.775   3.247  22.621 -0.1267 -0.1490 -0.0710
 5514W        W48505   7.624  11.666   3.209  0.0072 -0.1370 -0.3558
 5515W        W48506   0.625  28.523  24.951 -0.1838  0.1216 -0.0561
 5516W        W48507  32.406  14.007   8.369  0.0226  0.0524  0.1868
 5517W        W48508   1.634   5.675   8.088 -0.1380 -0.2450  0.0862
 5518W        W48509   1.664  16.906  10.737 -0.2871  0.2727  0.2923
 5519W        W48510  19.501   7.515  13.243 -0.2018  0.0918  0.4201
 5520W        W48511  27.298  11.043  15.162 -0.0053 -0.1563 -0.0340
 5521W        W48512  30.404  29.353  13.567  0.2045 -0.4495  0.0130
 5522W        W48513  22.217   0.021   8.135  0.1783 -0.4151 -0.0088
 5523W        W48514  13.683  30.993  23.014  0.0235  0.1277 -0.1639
 5524W        W48515  24.286  31.705  28.597  0.3084 -0.0370  0.1680
 5525W        W48516  11.652  20.334   3.359 -0.3454  0.0873 -0.2395
 5526W        W48517   8.418  19.911  23.890 -0.2293 -0.0068 -0.1484
 5527W        W48518   6.332  28.418  19.206 -0.1036 -0.1287  0.2452
 5528W        W48519  29.829   5.493  25.496  0.0339 -0.0441  0.1658
 5529W        W48520  32.148   4.323  28.725 -0.0414 -0.1890  0.0249
 5530W        W48521  28.924  30.394   1.458 -0.1455 -0.1289 -0.3927
 5531W        W48522   8.193  24.473  10.034  0.1269  0.1621 -0.2028
 5532W        W48523  11.396   1.911   7.809 -0.1865  0.0328  0.0021
 5533W        W48524  30.934  13.509   5.273 -0.1334  0.2409 -0.3142
 5534W        W48525   9.970  14.478   6.510  0.3120  0.1451 -0.1794
 5535W        W48526   1.982   4.895  16.492  0.0225 -0.1460 -0.0428
 5536W        W48527   0.424   7.437  20.070  0.1937 -0.1316  0.0919
 5537W        W48528  24.396  33.066  26.062  0.2221 -0.2077  0.1204
 5538W        W48529   6.150  11.680  22.434 -0.1739  0.1546 -0.1404
 5539W        W48530  24.215  11.226  28.172 -0.0087  0.1309 -0.3293
 5540W        W48531  27.810  22.107   7.962 -0.0357  0.0149 -0.1509
 5541W        W48532  27.008  32.617  20.985 -0.2812 -0.1820  0.0110
 5542W        W48533  23.972   1.007   6.293  0.2518  0.3087 -0.0464
 5543W        W48534  32.216   6.218   4.047  0.2555 -0.5535 -0.3953
 5544W        W48535   8.107  31.605  21.974 -0.1305  0.2152 -0.0193
 5545W        W48536  26.948  33.874   5.515  0.0363 -0.0857 -0.0096
 5546W        W48537  32.948  16.744   9.593 -0.0967  0.0483 -0.1692
 5547W        W48538  26.164  22.694  13.833  0.1346  0.0009  0.0514
 5548W        W48539   3.015  33.456  17.519  0.3076 -0.0855 -0.1822
 5549W        W48540   2.554  30.995  16.219  0.3223  0.2046  0.2372
 5550W        W48541   6.533  13.174  17.473  0.4048 -0.2388  0.0864
 5551W        W48542  11.032  14.575  19.329  0.1446 -0.0175 -0.0045
 5552W        W48543  24.873   2.965  18.476  0.1334 -0.0580 -0.1355
 5553W        W48544  13.426  20.385  18.323  0.1101  0.0562 -0.1730
 5554W        W48545  28.668   1.154  19.136 -0.0879 -0.3334 -0.2151
 5555W        W48546  19.987   6.118  22.127  0.1918  0.1368  0.0200
 5556W        W48547   3.613  11.997   5.869  0.0422  0.0349 -0.0449
 5557W        W48548  12.360  27.619  15.420 -0.1215 -0.7020  0.1475
 5558W        W48549   7.844  34.043  21.820  0.1147 -0.2281  0.4223
 5559W        W48550   6.397  13.976  18.377 -0.1823  0.0383  0.0969
 5560W        W48551   3.513   9.228  17.803 -0.1425  0.1949 -0.1437
 5561W        W48552   9.039   1.806  25.632  0.2859  0.0657  0.0748
 5562W        W48553  26.159  31.954  19.006 -0.0435 -0.3136 -0.1287
 5563W        W48554   0.435   9.410  15.545 -0.2651 -0.0771  0.2301
 5564W        W48555   6.626   5.061  16.912 -0.0897  0.0675 -0.5085
 5565W        W48556   5.769  17.566  17.335  0.0643  0.2495 -0.0550
 5566W        W48557   7.001   6.511  16.890 -0.2464 -0.0551  0.1539
 5567W        W48558  20.921   9.261  14.596  0.2905 -0.0257 -0.1521
 5568W        W48559  25.070   0.132   2.253  0.1618  0.1217  0.2518
 5569W        W48560   1.106   9.051  28.900  0.1319  0.1010 -0.1404
 5570W        W48561  31.702  18.369  15.490 -0.0889  0.1009  0.1673
 5571W        W48562  28.576  34.574   7.352  0.1977  0.0102  0.0957
 5572W        W48563   4.126  29.865  16.807 -0.1122 -0.2690 -0.0373
 5573W        W48564  34.050  33.863  21.600 -0.0665 -0.0324 -0.1307
 5574W        W48565  29.924   4.573  28.841 -0.1417 -0.1711 -0.1504
 5575W        W48566  26.663  11.520  16.862  0.0331 -0.0629 -0.1160
 5576W        W48567   7.968  23.367  17.192 -0.2429  0.0030  0.0133
 5577W        W48568   7.211   5.816  26.117  0.2881  0.0497  0.2780
 5578W        W48569  30.650   4.936  21.116  0.1254  0.1031  0.3688
 5579W        W48570  15.166   4.341  24.067 -0.0967 -0.1641  0.0474
 5580W        W48571  33.873   5.596   3.796  0.1232  0.0453  0.0292
 5581W        W48572   2.983   2.274  25.823 -0.2972  0.2222  0.0163
 5582W        W48573  23.687   9.025  24.681 -0.2197 -0.0538  0.0586
 5583W        W48574  17.646   2.371   3.420 -0.0002 -0.0128  0.0474
 5584W        W48575  32.043  33.641  18.943 -0.1013 -0.0438 -0.3722
 5585W        W48576  32.625   6.474  15.029  0.2281 -0.2634  0.1697
 5586W        W48577   4.287  34.304  17.782 -0.1341  0.1772  0.0578
 5587W        W48578  26.462   1.817  26.733 -0.2593 -0.0080  0.2349
 5588W        W48579  34.703  33.236  19.722  0.0615 -0.2837  0.1519
 5589W        W48580  33.970  33.827  18.236 -0.2178  0.1068  0.2492
 5590W        W48581  27.891   0.949  13.907 -0.1889  0.0029 -0.0631
 5591W        W48582  30.603  23.040  25.811  0.0282 -0.0209  0.1357
 5592W        W48583  20.286   2.019  18.365  0.1156  0.0840  0.1407
 5593W        W48584  28.202  13.331  19.626  0.3108  0.0739  0.2361
 5594W        W48585   1.111  10.704  16.759 -0.0151 -0.0015 -0.0099
 5595W        W48586  23.396   5.822  14.063  0.0917 -0.0097  0.0240
 5596W        W48587  33.726   7.158  23.552  0.1398  0.0801 -0.0962
 5597W        W48588  32.691  12.551  19.339 -0.3610  0.2527 -0.1283
 5598W        W48589  21.906  14.390  23.012 -0.2197 -0.1036 -0.1809
 5599W        W48590   6.833   9.166  17.288  0.0327 -0.0468  0.2307
 5600W        W48591  23.759  18.638  22.600 -0.1029  0.2899 -0.0560
 5601W        W48592  34.452  23.258  15.253  0.1156 -0.0190  0.2069
 5602W        W48593  26.246  17.270   1.465  0.0588 -0.1386  0.1101
 5603W        W48594  29.987   7.560  17.348  0.0216  0.1056  0.2017
 5604W        W48595   6.620   4.081  22.578  0.0035 -0.0171 -0.1264
 5605W        W48596  11.247   8.099  23.431  0.1788  0.2498 -0.0470
 5606W        W48597  14.814   1.254  19.829 -0.3438 -0.1022 -0.0388
 5607W        W48598   6.962  24.268   6.186  0.0600  0.0234 -0.1375
 5608W        W48599  25.816   0.438  26.047 -0.0648  0.2858  0.0218
 5609W        W48600   7.171  16.132  14.942 -0.1556 -0.0401 -0.5386
 5610W        W48601  20.150   1.419  20.231  0.2125 -0.2458  0.0025
 5611W        W48602   1.110  13.644  23.407  0.1578  0.0169 -0.2469
 5612W        W48603   3.155   0.312  14.720 -0.1837 -0.0635  0.1597
 5613W        W48604  13.692   2.645   9.013  0.1953  0.0352  0.0398
 5614W        W48605  23.037  17.522  17.661 -0.1364  0.1600 -0.0056
 5615W        W48606  25.723   0.224  27.503 -0.1531 -0.3274  0.2710
 5616W        W48607   5.996  11.525  19.092  0.2494  0.0402 -0.0358
 5617W        W48608   2.335   1.764  21.307 -0.1201 -0.1366 -0.1394
 5618W        W48609  31.298  12.314  23.310  0.0197 -0.1523 -0.1307
 5619W        W48610  12.790   0.740   7.400 -0.3395 -0.2316 -0.0850
 5620W        W48611   4.147  26.440  25.402  0.2857 -0.1914  0.0654
 5621W        W48612   6.032   2.696  18.779  0.1259 -0.2047 -0.1634
 5622W        W48613   0.810   7.487   5.164 -0.1606  0.1636 -0.3051
 5623W        W48614   7.885  12.598  17.509 -0.1939  0.2190 -0.0752
 5624W        W48615   3.448   3.870  17.603 -0.1375  0.1697  0.0939
 5625W        W48616   5.354  32.212   3.045 -0.2122  0.0096 -0.0384
 5626W        W48617   3.484   6.371  23.307  0.3163  0.1319  0.1526
 5627W        W48618  11.134   2.685   2.690  0.0350  0.0642  0.2008
 5628W        W48619   7.526   7.263   6.283  0.0046 -0.2500 -0.4076
 5629W        W48620  31.323  12.037   1.467 -0.3359  0.1540  0.3157
 5630W        W48621  10.864  10.718   0.588  0.0819 -0.1905  0.0637
 5631W        W48622   0.586  30.125  19.208 -0.1631  0.0842 -0.1881
 5632W        W48623  13.220  26.758  28.375 -0.0044 -0.0092  0.2509
 5633W        W48624   6.134  13.793  26.270 -0.1537  0.1177  0.1704
 5634W        W48625   1.512  18.070   3.631 -0.0521 -0.3402 -0.2618
 5635W        W48626  29.895  33.492  25.471 -0.2716 -0.0549 -0.0455
 5636W        W48627  26.431   5.815  18.856  0.1142  0.0842  0.0426
 5637W        W48628  29.198  23.111  28.863 -0.0579 -0.0484 -0.3310
 5638W        W48629   9.317  30.396  22.869  0.3940 -0.1485  0.4117
 5639W        W48630  17.437  34.135  21.333  0.0549  0.0493  0.1909
 5640W        W48631  34.170  23.810   4.375 -0.0670  0.2132 -0.2255
 5641W        W48632   8.830   1.983  29.137 -0.0114  0.1914  0.3771
 5642W        W48633  29.230  15.150  27.213  0.1466  0.2061  0.0007
 5643W        W48634   0.126   8.935  26.079 -0.0598 -0.3627  0.0822
 5644W        W48635  11.072  13.285  19.945 -0.3777 -0.3252  0.0170
 5645W        W48636  10.057   1.867  28.075 -0.0824  0.1245 -0.1334
 5646W        W48637  21.879   2.101  17.764  0.3045  0.0495  0.0063
 5647W        W48638  23.967  13.303  14.016 -0.0199  0.0895  0.1197
 5648W        W48639  21.040   3.047   6.093  0.0228 -0.0062 -0.2183
 5649W        W48640  32.402   9.846  25.801  0.2793 -0.1658 -0.0418
 5650W        W48641  19.223  11.969  19.026  0.0163 -0.1746 -0.0555
 5651W        W48642  27.306   5.546  18.530  0.2227 -0.3150 -0.0651
 5652W        W48643  18.525  32.971  27.147 -0.1837 -0.1128 -0.0021
 5653W        W48644  29.643  34.791  24.148  0.0182  0.1516 -0.0861
 5654W        W48645  13.589  29.610  17.992 -0.2356 -0.2107 -0.1830
 5655W        W48646  34.342   0.085  23.014  0.0171 -0.0104 -0.1048
 5656W        W48647   5.180   2.392  15.312  0.1684  0.0736 -0.2711
 5657W        W48648  14.250   8.280  15.681 -0.0611 -0.1194 -0.0428
 5658W        W48649  12.490   9.164  16.065  0.0719  0.2023  0.1607
 5659W        W48650   1.150  11.417  17.395 -0.0829  0.1396 -0.2530
 5660W        W48651  28.762  33.127  16.137  0.3303 -0.0018  0.2495
 5661W        W48652   0.778   9.765  17.549 -0.0403 -0.2120  0.1804
 5662W        W48653  31.114   4.375  22.878  0.3536  0.0505  0.0019
 5663W        W48654  25.851   7.883  19.870  0.0840 -0.1294 -0.2674
 5664W        W48655   3.975   4.507  23.871 -0.3315 -0.3936 -0.1907
 5665W        W48656  27.008   2.413  27.755  0.0555 -0.1084 -0.0392
 5666W        W48657  22.227  13.866   2.372  0.1997  0.3949 -0.1324
 5667W        W48658   2.563  26.771  15.117 -0.0656 -0.0879  0.2557
 5668W        W48659  19.558  20.236  13.678  0.3553  0.1985 -0.1594
 5669W        W48660   7.348  31.459  20.453 -0.3285 -0.0327  0.0555
 5670W        W48661   9.740  31.955  18.111  0.1172 -0.1901 -0.2052
 5671W        W48662  32.900  32.767  16.834  0.2446 -0.2185 -0.2657
 5672W        W48663  21.470   3.714  13.764  0.1439  0.2513 -0.1982
 5673W        W48664  25.390  10.166  21.089 -0.2379 -0.3338 -0.0407
 5674W        W48665   9.698  30.061  23.497 -0.0073  0.0952 -0.0696
 5675W        W48666   9.266  33.059  17.049 -0.1095  0.1232 -0.1459
 5676W        W48667  23.470  28.083  23.364 -0.2592 -0.1748 -0.2261
 5677W        W48668  20.848  27.184  21.234  0.2538 -0.1582  0.0870
 5678W        W48669  11.477   5.608  25.043 -0.0997  0.0636 -0.1760
 5679W        W48670  31.582  17.485  28.257 -0.0268  0.0418 -0.3246
 5680W        W48671   0.959   0.762  27.850  0.0170  0.1401 -0.1221
 5681W        W48672  11.934  20.538  17.875 -0.1230 -0.3126 -0.0008
 5682W        W48673   8.385   2.390  16.852 -0.0029  0.2174 -0.1596
 5683W        W48674  18.354  10.190  22.223  0.0150 -0.3479 -0.0069
 5684W        W48675  29.608  34.789  17.357 -0.2417  0.4188  0.2989
 5685W        W48676  29.157  15.740  24.720 -0.0822  0.0589  0.3631
 5686W        W48677  32.300   4.099  17.790  0.1694 -0.1078 -0.0684
 5687W        W48678   2.478   4.102  25.382 -0.1409 -0.1039 -0.0300
 5688W        W48679  28.491  33.795  16.774 -0.1294  0.0487  0.1251
 5689W        W48680  16.014   6.069  25.143  0.4362 -0.0749 -0.1957
 5690W        W48681  12.019   6.299  26.409 -0.0754  0.0195  0.0323
 5691W        W48682  27.435  30.452  23.064  0.0244 -0.1934  0.0113
 5692W        W48683   8.108   0.155  22.699  0.0738  0.0092 -0.0928
 5693W        W48684   0.928  13.760  25.072 -0.1812 -0.0286  0.0064
 5694W        W48685  10.912  17.255  21.223 -0.2247 -0.2453 -0.0930
 5695W        W48686  25.970   6.096  16.244 -0.2175  0.3341 -0.0207
 5696W        W48687  13.088   3.377  19.499  0.0275  0.4254 -0.2709
 5697W        W48688   7.888   9.080  27.696  0.0221 -0.0668 -0.3879
 5698W        W48689  22.284   6.045  18.104 -0.0573 -0.1680 -0.2355
 5699W        W48690  22.661  13.113   1.838 -0.0062 -0.0217 -0.1872
 5700W        W48691  33.954   6.088  20.592 -0.1637 -0.0151  0.1591
 5701W        W48692  33.195  14.381  27.999 -0.3333  0.0513  0.0054
 5702W        W48693  26.874  19.580  16.305  0.1159  0.0406  0.0271
 5703W        W48694   4.193  32.679  18.030  0.1328  0.1503 -0.0750
 5704W        W48695  12.499  30.403  21.563 -0.1451  0.0083  0.3036
 5705W        W48696   9.753  31.139  17.779  0.0306  0.1367  0.1145
 5706W        W48697  26.227  12.815  20.750 -0.0927 -0.1663 -0.0196
 5707W        W48698   9.360  11.123  20.883  0.3182  0.1413  0.2250
 5708W        W48699  16.323  33.930  18.804 -0.0789 -0.2278 -0.1599
 5709W        W48700  25.868   4.412  15.379  0.2877 -0.2384 -0.0963
 5710W        W48701   3.525   7.428  15.864 -0.1141  0.4284  0.0574
 5711W        W48702   0.221   1.542  21.686  0.1649  0.0881 -0.2112
 5712W        W48703   8.067  25.262  19.819 -0.0436  0.0716 -0.1782
 5713W        W48704  10.849   9.836  19.913  0.0329  0.1266 -0.0561
 5714W        W48705  11.709  30.891  15.267  0.0931  0.0578 -0.1195
 5715W        W48706  28.286  33.284  19.111  0.3265 -0.1164 -0.0998
 5716W        W48707  33.120  27.122  15.337 -0.0986  0.0902  0.0426
 5717W        W48708  10.882   0.448  28.789 -0.2257  0.0138  0.4208
 5718W        W48709   3.205  34.438  29.077 -0.2176  0.1881  0.2405
 5719W        W48710   9.790   8.024  25.086  0.0714  0.1371 -0.2995
 5720W        W48711  32.884  11.365  15.094 -0.1723  0.0052  0.1495
 5721W        W48712  32.744  32.112  21.292  0.1228 -0.0700 -0.0137
 5722W        W48713   3.509  34.708  27.871 -0.1050  0.2941 -0.2116
 5723W        W48714  27.014  26.348  26.765 -0.2120 -0.1407  0.1032
 5724W        W48715   0.415  25.000  25.670 -0.2415  0.2009  0.1827
 5725W        W48716  15.486  33.375  27.073  0.2332  0.0638 -0.1918
 5726W        W48717   7.671  16.097  22.595 -0.1801  0.2581  0.3808
 5727W        W48718  32.080   6.507  25.210  0.1935  0.1097 -0.2004
 5728W        W48719   1.734  27.898  21.088  0.0476  0.1360  0.0142
 5729W        W48720  25.545  28.163  16.670 -0.0907  0.3619  0.2736
 5730W        W48721   8.698  30.931  17.678 -0.0517 -0.0047 -0.0764
 5731W        W48722   2.455  10.222  27.721 -0.3162  0.4518 -0.2857
 5732W        W48723  25.810   7.309  15.473 -0.2013  0.2097 -0.0732
 5733W        W48724  26.476   6.370  23.918 -0.2629  0.1839  0.2840
 5734W        W48725  33.684  29.956  16.902  0.2486 -0.1709 -0.0502
 5735W        W48726  22.337   4.068  14.613  0.0123 -0.1361  0.0824
 5736W        W48727   3.555   7.755  17.491 -0.1930 -0.0323  0.1633
 5737W        W48728  31.362   3.549  28.275  0.1574  0.0379 -0.1148
 5738W        W48729  11.608   0.340  20.302 -0.0505 -0.1347 -0.0970
 5739W        W48730  29.640  28.140  17.219  0.1533 -0.3302  0.0729
 5740W        W48731  28.209  10.360  24.277  0.0645 -0.2495  0.1196
 5741W        W48732  25.704   7.637  22.025 -0.0714 -0.0653 -0.0015
 5742W        W48733  21.446   7.782   1.966 -0.2595 -0.0650 -0.0515
 5743W        W48734   8.112   1.810  18.445  0.0664  0.2021  0.0938
 5744W        W48735  34.300   5.463   4.062 -0.0754  0.2260 -0.0503
 5745W        W48736  32.880  18.233  17.744 -0.0002 -0.2414  0.1205
 5746W        W48737  30.153   5.544   0.610 -0.1064  0.2552  0.0236
 5747W        W48738   2.432  11.530  18.239 -0.0961 -0.0955  0.0697
 5748W        W48739   0.342  14.672  28.205 -0.0314  0.0517  0.0630
 5749W        W48740   4.822  32.433  21.699  0.0595  0.3340  0.1391
 5750W        W48741   6.934  10.278  19.899  0.2094  0.0243 -0.0815
 5751W        W48742  32.764   5.979  21.156 -0.2628  0.0183 -0.0665
 5752W        W48743   7.800  34.182  16.296  0.4424 -0.3391  0.1143
 5753W        W48744  25.582  17.784   2.226 -0.2218 -0.0760 -0.1163
 5754W        W48745  27.314  34.275   0.917 -0.0860 -0.2205 -0.1128
 5755W        W48746   5.611   6.657  15.767  0.3426  0.1169  0.1480
 5756W        W48747   2.488  34.340  22.020 -0.4524  0.0771 -0.1970
 5757W        W48748   6.157  34.187  24.456  0.0513  0.0339 -0.1015
 5758W        W48749   1.564   2.394  23.845  0.0187 -0.0652 -0.2536
 5759W        W48750  25.762  19.577   3.667 -0.1682  0.0231 -0.2362
 5760W        W48751   5.574  11.006  17.352 -0.0947 -0.2909  0.0124
 5761W        W48752  27.878   1.237   1.786 -0.1772 -0.0921 -0.2269
 5762W        W48753  29.808   3.429  15.258  0.0159 -0.0708  0.0570
 5763W        W48754   2.142   0.993  15.252  0.0952 -0.0036  0.0858
 5764W        W48755  23.528  32.880  18.300  0.0126 -0.0897  0.4383
 5765W        W48756  30.008   9.622  24.661  0.1761  0.1430 -0.0186
 5766W        W48757   9.367  24.347  20.966  0.2185  0.0686  0.0239
 5767W        W48758  30.376   5.125  15.739 -0.0375 -0.2877  0.3059
 5768W        W48759  10.709   8.345  19.697  0.0323 -0.0385 -0.1433
 5769W        W48760  30.470   4.512  21.371 -0.2388 -0.1493 -0.1242
 5770W        W48761  28.467   5.571  19.244 -0.0641  0.1554  0.3480
 5771W        W48762  13.667  27.977  15.152 -0.1196  0.0941  0.0266
 5772W        W48763  16.763  31.296  19.698  0.3120  0.0308 -0.3358
 5773W        W48764  19.877  10.566  23.542  0.1839  0.1094  0.0400
 5774W        W48765  10.814   2.920  21.778 -0.1097 -0.1634 -0.2138
 5775W        W48766  27.680   0.098  22.473 -0.1122  0.1910  0.1353
 5776W        W48767  32.596   0.764  20.009 -0.1067  0.2276  0.1598
 5777W        W48768  31.409   4.350  20.343 -0.2899  0.0446 -0.2504
 5778W        W48769  18.345  12.724  26.174  0.1665  0.1340  0.2382
 5779W        W48770  16.631   9.240  20.020  0.1015 -0.0970  0.1107
 5780W        W48771   3.881  33.359  19.964  0.1488  0.0374 -0.2526
 5781W        W48772  33.730  29.366  23.569  0.0659 -0.1453  0.2817
 5782W        W48773  12.510  16.733  19.956 -0.3642 -0.2374  0.0185
 5783W        W48774   9.996  29.831   2.365 -0.3382 -0.0950 -0.0345
 5784W        W48775   1.224  19.389  19.928  0.1903  0.0192 -0.1239
 5785W        W48776  24.502   4.481  27.576 -0.0770  0.0837 -0.1044
 5786W        W48777  12.430  29.478  20.668  0.1080 -0.0758 -0.0523
 5787W        W48778   5.482  12.251  25.531 -0.0648  0.1663 -0.1278
 5788W        W48779  17.431   2.554  20.533  0.1642  0.0887 -0.1774
 5789W        W48780   6.946  13.548   0.755 -0.3122 -0.1294 -0.1698
 5790W        W48781  19.967   1.640  18.306 -0.1333  0.2160 -0.3825
 5791W        W48782   9.288  31.616  21.534 -0.1084 -0.0077 -0.1198
 5792W        W48783   1.526  32.674  27.874 -0.1281 -0.4112  0.1927
 5793W        W48784  29.299  28.851  20.032 -0.1419 -0.1020 -0.2924
 5794W        W48785   0.442   3.626  19.942  0.1264  0.1775  0.3044
 5795W        W48786   3.210   5.981   0.753 -0.0494  0.0805 -0.1243
 5796W        W48787   5.892   3.420   5.723 -0.2119 -0.2918  0.0928
 5797W        W48788   5.249   1.990  20.240  0.2002 -0.2986 -0.1244
 5798W        W48789  10.533  20.586  17.533 -0.2358 -0.0228 -0.0506
 5799W        W48790   9.400   6.677  15.092  0.2267 -0.3571  0.0849
 5800W        W48791  17.641   4.400  22.717 -0.0087 -0.1667  0.2104
 5801W        W48792  33.572  33.752   0.677 -0.0862  0.1461  0.3660
 5802W        W48793   1.997   4.464  16.705  0.1791  0.0197 -0.1542
 5803W        W48794   1.127  34.789  23.454  0.1899  0.0372 -0.0854
 5804W        W48795  20.336  22.000  14.684  0.0294 -0.1442 -0.2222
 5805W        W48796  27.491  10.583  17.116 -0.2695  0.0430  0.2023
 5806W        W48797  31.750  28.191  22.467  0.1419 -0.1660 -0.1747
 5807W        W48798   2.229  17.688  16.165 -0.1472  0.3003 -0.2972
 5808W        W48799  25.375   2.836  18.569  0.1231 -0.1974 -0.2757
 5809W        W48800  34.233   0.868  27.542 -0.0945  0.0044  0.1940
 5810W        W48801  33.134  32.783  20.583 -0.2278 -0.2570  0.2527
 5811W        W48802   1.654  11.575  19.734  0.1894  0.1465  0.0812
 5812W        W48803  19.845  13.512  22.894  0.1286 -0.4697 -0.1087
 5813W        W48804  13.872  20.838   4.161  0.1188 -0.2972 -0.4852
 5814W        W48805   5.653  13.275  18.702  0.2120  0.0890  0.0475
 5815W        W48806  13.483   9.689   1.053 -0.0934 -0.3995  0.1498
 5816W        W48807   4.117   5.451  23.905 -0.0140 -0.3959 -0.1503
 5817W        W48808   7.340  13.765  23.324 -0.0526 -0.0248  0.0747
 5818W        W48809   4.070  19.381  22.756 -0.2302  0.3966 -0.4612
 5819W        W48810  17.397   8.601  20.814 -0.0616  0.1246  0.0065
 5820W        W48811  31.347   2.994  21.935 -0.1642  0.1178  0.0095
 5821W        W48812  34.323  31.130  24.603 -0.0188  0.1224 -0.1278
 5822W        W48813  31.523   9.579  26.307  0.2075 -0.1327  0.0839
 5823W        W48814  26.236  10.542  25.548 -0.1452 -0.1215 -0.0206
 5824W        W48815   8.863  25.173  20.616  0.0382 -0.2544  0.0084
 5825W        W48816  28.515   6.866  15.899  0.1642 -0.1667  0.1402
 5826W        W48817  26.961  13.734  20.509 -0.1155 -0.0655 -0.0210
 5827W        W48818  34.246  15.401  20.281  0.0589 -0.0007 -0.0371
 5828W        W48819   2.787   5.618  18.269  0.3315 -0.2821 -0.1124
 5829W        W48820  29.833  24.561  18.867 -0.2212  0.1760 -0.2913
 5830W        W48821   3.372  12.038  17.106  0.1483 -0.2083  0.0651
 5831W        W48822  11.261  18.927  17.945 -0.0279 -0.0591 -0.2060
 5832W        W48823  10.704  30.064  16.827  0.0461 -0.0127  0.2294
 5833W        W48824  22.935   0.568  15.745 -0.2848  0.1764  0.1767
 5834W        W48825  10.092   6.324  17.158 -0.0206 -0.1844  0.3782
 5835W        W48826   0.936  12.809  23.564 -0.1799 -0.0434  0.2374
 5836W        W48827   1.514   0.709  23.093  0.1600  0.0891 -0.2096
 5837W        W48828  15.911  30.319   0.580  0.1646  0.0360 -0.2187
 5838W        W48829  14.537  11.055   8.418  0.2597  0.1191 -0.1814
 5839W        W48830   9.239  33.225  15.318  0.0582 -0.0237 -0.2153
 5840W        W48831  28.369  17.372  14.884  0.1495  0.2238 -0.0515
 5841W        W48832  22.721  33.325  26.931 -0.2095 -0.1070 -0.0514
 5842W        W48833  15.814  34.527  25.769  0.3440  0.5238 -0.1895
 5843W        W48834  32.206   9.931  24.098  0.0094  0.0845  0.1796
 5844W        W48835   7.026  12.379  16.040  0.1389 -0.1099 -0.0635
 5845W        W48836   2.587   8.774  16.068  0.2696 -0.1867 -0.0686
 5846W        W48837   3.098  30.124  19.542 -0.0876  0.0600  0.1593
 5847W        W48838   5.648  16.239  20.260  0.1193 -0.0762 -0.1490
 5848W        W48839  13.625  30.463  18.923  0.1888 -0.1469 -0.1066
 5849W        W48840  26.374  28.429  18.463  0.0815  0.1995 -0.0948
 5850W        W48841   5.177   7.100  23.243 -0.2073  0.3228  0.1622
 5851W        W48842  13.250   6.127  25.300  0.3432  0.0096  0.0930
 5852W        W48843  30.847   5.924  21.089 -0.0273 -0.1103 -0.2581
 5853W        W48844   6.790   9.879  17.412 -0.0195 -0.0104 -0.2679
 5854W        W48845  25.406  23.240  27.024  0.0083  0.3014  0.2158
 5855W        W48846  29.130  31.086  14.393  0.1539 -0.3829  0.1339
 5856W        W48847   1.723   8.670  18.034  0.0099  0.2191 -0.0174
 5857W        W48848   1.692  28.159  17.273 -0.0752  0.2492 -0.0042
 5858W        W48849  26.428  12.592  17.495  0.1560  0.0574  0.0439
 5859W        W48850  25.928  20.045  27.211 -0.0522 -0.0008  0.0804
 5860W        W48851  23.869   2.814  13.455 -0.0076  0.0841 -0.0944
 5861W        W48852  12.427  27.817  14.912 -0.0171  0.2049  0.0801
 5862W        W48853  32.736  33.071  15.377 -0.0012  0.3200  0.2383
 5863W        W48854  24.621  24.170  13.880  0.1205 -0.0863 -0.1253
 5864W        W48855  33.778   9.086  27.504  0.0497 -0.0084 -0.0380
 5865W        W48856   0.115   7.370  17.934 -0.2892 -0.2501 -0.1531
 5866W        W48857  32.902   8.874  17.961 -0.1433  0.1925 -0.1477
 5867W        W48858   6.225  19.742  16.805  0.0393  0.0320 -0.0663
 5868W        W48859   1.041   5.465  23.879 -0.0937 -0.0880  0.3425
 5869W        W48860  14.765  10.119  28.034  0.0011  0.0476 -0.0168
 5870W        W48861   5.349  11.409  26.305  0.4010  0.0105  0.3649
 5871W        W48862  33.649   7.663  19.710 -0.1114 -0.0637 -0.1279
 5872W        W48863  29.409   5.563  19.073 -0.0341 -0.1813  0.2138
 5873W        W48864   5.976   0.377  21.089  0.2029  0.1244 -0.0718
 5874W        W48865   0.800  30.319   3.162 -0.1006 -0.0453  0.2788
 5875W        W48866  32.063  15.257   4.303  0.0504  0.3676 -0.1283
 5876W        W48867  11.711  11.193  22.328  0.0619  0.0895 -0.1932
 5877W        W48868  31.522  24.094   5.548 -0.1644 -0.1275 -0.1684
 5878W        W48869   0.416   7.140  20.560 -0.0850  0.1880  0.1039
 5879W        W48870   2.477  33.784  28.396 -0.0012  0.2056  0.2844
 5880W        W48871  29.290   1.737   0.221 -0.0654 -0.2005  0.0223
 5881W        W48872   2.098  34.364  21.115  0.0427  0.0194  0.0661
 5882W        W48873  27.213  26.566  15.805  0.2388  0.0821  0.0886
 5883W        W48874   0.987   6.902  24.794  0.2213  0.1277 -0.0479
 5884W        W48875  26.231  10.809  26.215  0.3447 -0.2359 -0.1176
 5885W        W48876   6.344   6.597  20.825 -0.0783  0.1757  0.0883
 5886W        W48877   0.587   4.710  17.123  0.1896 -0.0445 -0.3276
 5887W        W48878   9.713   6.022  25.897  0.0756 -0.0863  0.0375
 5888W        W48879   5.679   3.904  26.711  0.0946  0.1298  0.0247
 5889W        W48880   7.127  23.463  19.633  0.0839  0.0882  0.1327
 5890W        W48881  28.100  29.585  17.427 -0.1562  0.1161  0.1208
 5891W        W48882   5.316   8.865  17.904 -0.1387  0.1276  0.0476
 5892W        W48883   5.744  11.409  24.381  0.1537  0.0216  0.0692
 5893W        W48884   1.984  13.173   8.577 -0.0705  0.1565 -0.0423
 5894W        W48885   0.101  33.683  19.508  0.0900 -0.0939  0.1364
 5895W        W48886  30.677  11.146  20.773 -0.1572 -0.1870  0.0257
 5896W        W48887  13.194  11.403  20.926  0.2863 -0.0747  0.0481
 5897W        W48888  32.129  14.299  23.846  0.1444  0.2307  0.3879
 5898W        W48889  25.525  15.577  14.256 -0.1841 -0.2505  0.1129
 5899W        W48890  28.905  16.631  19.806  0.1860  0.0106  0.2018
 5900W        W48891   7.096   4.577  18.134  0.0123 -0.2156  0.0731
 5901W        W48892  33.816  29.823  23.811  0.1748  0.3341  0.0761
 5902W        W48893   0.119  11.874  22.095  0.2897 -0.1343  0.1126
 5903W        W48894   9.982  33.250  25.419  0.2473 -0.0221  0.0239
 5904W        W48895   0.729  10.147  22.300 -0.0583  0.1243 -0.0653
 5905W        W48896   0.894   3.658  24.263  0.0374  0.1010 -0.1634
 5906W        W48897   1.311  15.400  24.304 -0.0891  0.0290 -0.2738
 5907W        W48898  23.618   0.736   0.258 -0.0817  0.1218 -0.3049
 5908W        W48899  28.119  32.217  26.929 -0.1819  0.0974 -0.0301
 5909W        W48900   6.976  33.020   1.676  0.2379  0.3374 -0.4977
 5910W        W48901   2.001   7.026  28.243  0.2078 -0.0404 -0.2846
 5911W        W48902  27.455   1.321  18.007  0.0423 -0.0496 -0.2178
 5912W        W48903  15.182   0.714  23.208 -0.2048  0.2291 -0.0271
 5913W        W48904   6.418   3.850  10.834 -0.0529 -0.0567  0.0468
 5914W        W48905  27.404  33.428  18.548  0.1346 -0.1631  0.2174
 5915W        W48906  27.697   9.995   0.183  0.0080  0.2322 -0.3949
 5916W        W48907  14.071   3.949  19.002 -0.4467 -0.0803  0.1936
 5917W        W48908  15.707   2.511  18.019 -0.1200 -0.1215 -0.1904
 5918W        W48909  34.568   6.200  18.023 -0.3605  0.0786  0.0465
 5919W        W48910  14.569  10.005  26.406 -0.0630 -0.0596  0.1265
 5920W        W48911  24.414  32.103  14.094 -0.1605 -0.0181 -0.0218
 5921W        W48912   0.101  12.296  17.961 -0.0356 -0.0420 -0.2995
 5922W        W48913  14.548  30.038  20.190  0.0797 -0.4029  0.1417
 5923W        W48914  27.674  23.691  18.098  0.1871 -0.4316 -0.0131
 5924W        W48915  30.020  12.211  20.171  0.1446 -0.0035 -0.1764
 5925W        W48916  29.444   3.238  19.656  0.1038 -0.1699 -0.0449
 5926W        W48917   7.821   1.711  20.527 -0.0773  0.0886 -0.1295
 5927W        W48918  19.050   5.225  14.466 -0.0891  0.0736 -0.0369
 5928W        W48919   8.746  29.453  22.947 -0.0149  0.1575 -0.2890
 5929W        W48920  12.036  28.849  27.553  0.1350  0.3048 -0.3731
 5930W        W48921  33.718  29.159  18.444 -0.0022 -0.3839  0.0537
 5931W        W48922   4.807  31.493  20.503  0.0183  0.0932  0.1932
 5932W        W48923  28.072   3.803  16.635  0.2028  0.2832  0.2015
 5933W        W48924   1.058  31.780  25.568 -0.1175  0.0020  0.0140
 5934W        W48925  12.347  33.802   4.838 -0.1822  0.1450 -0.0248
 5935W        W48926   5.584  29.035  18.027  0.1103 -0.1475  0.3468
 5936W        W48927   7.069  26.751  16.015 -0.0688 -0.0979  0.0435
 5937W        W48928  19.081   8.510  24.190 -0.3018 -0.2606  0.1616
 5938W        W48929  29.933   4.954  20.108 -0.0093 -0.1238  0.0923
 5939W        W48930  32.134   4.400   2.794 -0.0399 -0.2330  0.1449
 5940W        W48931  33.686  29.487  28.121  0.1352  0.0155  0.0743
 5941W        W48932   8.722   1.591  28.287 -0.0638  0.1081  0.2260
 5942W        W48933  25.728  15.440  20.581  0.0336  0.1047 -0.0153
 5943W        W48934   9.554   6.695  28.316  0.1822 -0.0988 -0.2413
 5944W        W48935   9.481   7.668  15.716  0.1171  0.0381  0.0570
 5945W        W48936  32.665  30.246  20.939 -0.0758  0.1567 -0.2074
 5946W        W48937  31.502  11.804  19.627  0.0412  0.1266 -0.0053
 5947W        W48938   4.238   8.893  18.761  0.2470  0.1305  0.0110
 5948W        W48939  30.219  18.611  18.671  0.3019 -0.0246  0.1167
 5949W        W48940  25.669  29.627  19.923 -0.4671  0.0921 -0.0034
 5950W        W48941  29.037  27.981  22.141  0.1257 -0.3990  0.4251
 5951W        W48942  33.031   2.817  15.054  0.0035  0.1375  0.2589
 5952W        W48943   2.909   4.700  17.789  0.3065 -0.0154 -0.2383
 5953W        W48944  33.432   5.365  21.176  0.1956 -0.0436 -0.1609
 5954W        W48945   1.612   4.757  16.021 -0.2100 -0.1775 -0.1922
 5955W        W48946  15.407   6.580  17.429  0.1836  0.1820 -0.3198
 5956W        W48947  18.585  14.672   4.411  0.2102 -0.3289  0.0976
 5957W        W48948  11.667   1.698   1.689 -0.0567  0.3213 -0.2220
 5958W        W48949   2.888  31.189  21.141  0.3185  0.1448 -0.0587
 5959W        W48950   0.170  29.574   3.957 -0.1434  0.2678  0.2344
 5960W        W48951  26.682  11.798  22.687  0.0497 -0.1929  0.0385
 5961W        W48952   5.037  10.316  15.373  0.0934 -0.0477  0.1089
 5962W        W48953  33.572   9.303   1.633 -0.1436 -0.2440  0.0200
 5963W        W48954   2.140  29.011  14.204  0.0513  0.0523 -0.0877
 5964W        W48955  26.259  21.708  18.542  0.1103  0.0311 -0.0916
 5965W        W48956  31.342  17.146  18.136  0.1113  0.1030  0.0925
 5966W        W48957   2.925   3.257  23.089 -0.0608 -0.2401  0.2470
 5967W        W48958  32.732  21.449  21.682 -0.3580 -0.0051 -0.1476
 5968W        W48959   1.333  11.438  15.740  0.1376  0.2008  0.0582
 5969W        W48960   9.297  10.693  19.375 -0.0247  0.1883  0.0631
 5970W        W48961  11.048   6.523  18.666  0.0303 -0.1528 -0.1860
 5971W        W48962   2.334  34.328   8.744  0.0402 -0.0880  0.1527
 5972W        W48963  17.987  11.277  20.727  0.1194  0.2434  0.0505
 5973W        W48964  17.720  27.992  22.758 -0.3198 -0.0196  0.0772
 5974W        W48965  32.308  31.918   8.922  0.1853 -0.4196  0.0937
 5975W        W48966  31.309  28.517  27.648  0.1338  0.1786 -0.1309
 5976W        W48967   1.700  22.685  23.070 -0.2457 -0.1297  0.2592
 5977W        W48968   7.711  32.291  20.576 -0.0051  0.1390  0.1413
 5978W        W48969   7.749  31.789  20.491  0.0282  0.1016 -0.1076
 5979W        W48970   5.556  32.858  17.527 -0.1601 -0.0380 -0.1072
 5980W        W48971   4.176   8.757  16.419 -0.1610 -0.0300  0.1288
 5981W        W48972  29.342  19.120  17.506  0.0026  0.1734  0.0573
 5982W        W48973  24.790   9.478  20.470 -0.0967 -0.0238  0.2280
 5983W        W48974   7.436   8.065  28.360 -0.0099  0.2978  0.0721
 5984W        W48975  24.919  11.386  17.066  0.0945  0.1094  0.2060
 5985W        W48976  26.327   5.801  20.262  0.0184  0.0217  0.0866
 5986W        W48977   6.506  16.633  22.849 -0.0212 -0.1398 -0.0521
 5987W        W48978   2.893  10.444   7.128  0.1258 -0.1174 -0.1212
 5988W        W48979  28.309   8.043  16.995 -0.1335 -0.2247  0.1194
 5989W        W48980  15.499  29.042  15.161  0.3297  0.1825 -0.0419
 5990W        W48981  32.262  21.647  10.218 -0.0729 -0.2064  0.1285
 5991W        W48982  20.522  32.809  27.340  0.4675  0.2072  0.1461
 5992W        W48983   2.274  11.044  21.023  0.5061 -0.3389  0.1071
 5993W        W48984   1.643  32.701  16.556  0.2141 -0.1470 -0.2244
 5994W        W48985   2.989  32.605  19.309 -0.1369 -0.1039  0.0257
 5995W        W48986  28.066   2.074   2.333 -0.0427 -0.2814 -0.1031
 5996W        W48987   8.303   5.853  21.033 -0.0494  0.1196 -0.0274
 5997W        W48988  19.078  30.965  22.540  0.0435  0.3851  0.0496
 5998W        W48989   4.963  13.395   0.681  0.2674  0.1289 -0.3270
 5999W        W48990  19.476  28.594  17.627  0.0642 -0.1254  0.1787
 6000W        W48991  29.867  24.679   0.433 -0.1852 -0.2007  0.0589
 6001W        W48992   4.562  34.496   7.159  0.2037  0.3284 -0.0415
 6002W        W48993   1.831   7.459  29.117  0.1727 -0.1269  0.2519
 6003W        W48994   5.414   4.299   0.962 -0.1407 -0.1996  0.0222
 6004W        W48995  34.067  13.697  28.766 -0.0417  0.0175 -0.1475
 6005W        W48996   1.636   1.210  20.040 -0.0826  0.1620  0.3501
 6006W        W48997   2.906   2.837  16.198 -0.0379  0.0638 -0.1948
 6007W        W48998   4.264  31.062   3.814 -0.1052  0.4053  0.2268
 6008W        W48999   7.977  10.305  21.705 -0.0921 -0.0617  0.1164
 6009W        W49000  13.966  32.800  27.672 -0.1040 -0.3169 -0.2391
 6010W        W49001  26.794  16.074   1.078  0.1909  0.3347  0.3666
 6011W        W49002   9.029  19.152   1.339 -0.2908 -0.3227 -0.1564
 6012W        W49003  34.771  24.267  17.398 -0.1688  0.0183 -0.4212
 6013W        W49004  14.492  23.479  22.559  0.0322  0.0063  0.0879
 6014W        W49005  28.686   9.286  21.247  0.2900 -0.1715  0.0066
 6015W        W49006   9.551   4.447   9.960  0.0857 -0.0452 -0.0954
 6016W        W49007  29.390  28.237  22.971  0.3297 -0.0416 -0.1485
 6017W        W49008  23.244  12.124  26.693  0.0226 -0.0932  0.1300
 6018W        W49009  21.502   3.201  18.260  0.3664 -0.5602 -0.2114
 6019W        W49010   4.911  13.449  25.188  0.2356  0.0050  0.0431
 6020W        W49011  29.342   3.340  18.854  0.0948 -0.0825 -0.0159
 6021W        W49012  28.502  15.382  16.532 -0.2983  0.2381 -0.1917
 6022W        W49013   2.017   4.590   9.075 -0.0779  0.0032  0.2017
 6023W        W49014   8.378  17.886  18.872  0.0819 -0.0283 -0.1668
 6024W        W49015   2.369   8.393  16.838  0.0465 -0.1130 -0.3212
 6025W        W49016  32.815   4.581  17.107 -0.1244 -0.0151  0.0109
 6026W        W49017  27.725   9.036  26.430  0.2164  0.0914  0.0352
 6027W        W49018  17.926   1.645  21.648 -0.1075 -0.0900  0.0187
 6028W        W49019  24.074  15.593  20.643 -0.0598 -0.3623  0.3108
 6029W        W49020  13.030   6.452  21.779  0.0362 -0.0225 -0.0703
 6030W        W49021  20.823  10.953  27.761  0.3274  0.3553 -0.3224
 6031W        W49022  34.114   1.340  27.782 -0.2395  0.4066  0.1289
 6032W        W49023  15.803  23.676  26.784 -0.4730  0.2820 -0.1939
 6033W        W49024  33.357  16.035  21.826 -0.1896  0.2385 -0.0181
 6034W        W49025  10.960   7.005  17.754  0.1367 -0.2147  0.3466
 6035W        W49026   8.474   7.756  15.786 -0.3191 -0.0226  0.1421
 6036W        W49027  24.924  32.811  17.342  0.0290 -0.1018 -0.4364
 6037W        W49028  14.828   4.438   3.282  0.4341 -0.0478 -0.1529
 6038W        W49029  28.011   2.599  27.815  0.0763 -0.0356  0.1350
 6039W        W49030   2.659  13.614  24.517  0.0091 -0.1074  0.0814
 6040W        W49031  26.598   9.443  22.347 -0.0053 -0.1302 -0.1384
 6041W        W49032  34.401   0.870   0.293  0.1831  0.1283  0.2385
 6042W        W49033  25.810  29.686   2.487 -0.0338 -0.1609 -0.3522
 6043W        W49034  15.353   1.397  28.357  0.0036  0.1063 -0.0331
 6044W        W49035  10.959  30.732   3.584 -0.1602 -0.1832  0.2756
 6045W        W49036  14.270   3.730  21.393 -0.0302  0.0277 -0.2183
 6046W        W49037  30.043   0.405  23.681  0.3191 -0.0408  0.0369
 6047W        W49038   8.127  25.125  25.616 -0.1336  0.0013 -0.1303
 6048W        W49039  22.375  26.991  17.320  0.1333 -0.0300  0.0055
 6049W        W49040   7.190   8.370   4.510 -0.0187  0.1435 -0.0945
 6050W        W49041   1.024  14.135   8.932  0.2376 -0.0805  0.1359
 6051W        W49042  27.217  16.485  21.027 -0.0559 -0.1943 -0.0122
 6052W        W49043  13.773  29.146  28.620 -0.1883  0.2274 -0.1434
 6053W        W49044  31.947   3.197  14.581 -0.0554  0.0022 -0.1045
 6054W        W49045   0.802   2.810  15.568 -0.2444  0.1593 -0.3093
 6055W        W49046  30.215  25.302   0.759 -0.0633 -0.2956  0.2623
 6056W        W49047  19.784   0.058  14.835  0.0329  0.0769 -0.0825
 6057W        W49048   1.300  11.461  18.734 -0.1175 -0.0160 -0.1643
 6058W        W49049  31.284  33.558  21.004  0.0816  0.1569 -0.0207
 6059W        W49050   2.212   8.214  24.740 -0.1798 -0.1536 -0.2200
 6060W        W49051  30.989   7.472  21.772 -0.1362  0.0626  0.0928
 6061W        W49052   0.944  27.604  14.637  0.0356 -0.0152 -0.1640
 6062W        W49053  33.123  31.726  18.317 -0.1172 -0.0975  0.2194
 6063W        W49054  27.370   6.960  16.034  0.0348 -0.0536 -0.1619
 6064W        W49055  10.037   5.575  18.378  0.1248  0.2120 -0.3754
 6065W        W49056  33.096  24.795  27.950 -0.0779 -0.0841  0.1478
 6066W        W49057  22.586  13.856   1.319  0.1084  0.1091 -0.1869
 6067W        W49058   5.573   8.086  16.151  0.3908 -0.1432 -0.0312
 6068W        W49059  33.406  15.072  21.128  0.1595  0.1339  0.1095
 6069W        W49060   6.738  26.823  17.489 -0.1012 -0.1559 -0.0268
 6070W        W49061   4.534  18.917  20.025 -0.1566 -0.0263  0.1071
 6071W        W49062   2.113  13.842  18.290 -0.0344  0.2990 -0.1925
 6072W        W49063  33.231   6.859  27.537 -0.0839 -0.2766 -0.1960
 6073W        W49064   4.837   8.519   5.596 -0.0689  0.0579 -0.0495
 6074W        W49065   5.420   4.302  16.809  0.0325 -0.1794 -0.0236
 6075W        W49066   3.716  10.942  21.237  0.0613 -0.2210  0.0457
 6076W        W49067   3.932  27.676  17.576 -0.1762  0.2334 -0.5508
 6077W        W49068  33.551   2.456  25.988  0.3053  0.2581 -0.1014
 6078W        W49069  19.107  30.558  13.050  0.0816 -0.0686 -0.2636
 6079W        W49070   0.504  10.073  23.790 -0.0787  0.2660  0.3061
 6080W        W49071  29.646  32.346  23.360 -0.0757 -0.0683  0.2025
 6081W        W49072   7.616  25.013   4.601 -0.2960  0.5013 -0.0709
 6082W        W49073  32.352  24.430  27.745 -0.0942 -0.2301  0.0134
 6083W        W49074  13.327  27.507  18.260  0.1086  0.1268 -0.1393
 6084W        W49075  23.857   6.685   0.502  0.2171 -0.0458 -0.1827
 6085W        W49076  17.388  21.374  13.080  0.1206  0.3248 -0.2894
 6086W        W49077  11.966  28.759  18.856 -0.1078 -0.3435 -0.1281
 6087W        W49078  34.446  20.908  25.217 -0.0140  0.2986  0.0270
 6088W        W49079  11.887   3.468  18.639 -0.1772  0.2158  0.1853
 6089W        W49080  24.742  11.633  25.195 -0.2001  0.0726  0.3418
 6090W        W49081   9.596  11.124  21.330  0.0641  0.2667 -0.2822
 6091W        W49082   4.260  27.882  15.289 -0.1111 -0.0621  0.2223
 6092W        W49083  16.403  28.588  19.419 -0.0729  0.1711  0.1305
 6093W        W49084  23.845  22.192  20.978  0.1381  0.1978  0.1274
 6094W        W49085   9.098  10.086  27.584  0.1142 -0.1734 -0.0483
 6095W        W49086  28.814   4.402  17.954 -0.0401 -0.1087  0.1893
 6096W        W49087   7.244  30.111  10.336 -0.2046  0.0718 -0.1845
 6097W        W49088   5.858  34.323  14.763 -0.0489 -0.0757  0.0059
 6098W        W49089  28.653   6.969  13.936 -0.2473  0.3491 -0.0700
 6099W        W49090   9.457   1.251   7.134 -0.0110  0.1024  0.2276
 6100W        W49091  18.412  23.191  21.423  0.0070  0.0122 -0.0194
 6101W        W49092   8.505   7.647  19.693 -0.2496  0.1378  0.1398
 6102W        W49093  10.118  11.505   4.066  0.2811  0.0890 -0.0430
 6103W        W49094  34.617  32.299  19.982  0.3879 -0.2009 -0.1297
 6104W        W49095   9.487   3.494  16.187 -0.0039 -0.3492 -0.0171
 6105W        W49096   6.059  34.292  26.884  0.1959  0.2194  0.0082
 6106W        W49097   8.411  13.778  26.669 -0.1820 -0.0957 -0.0005
 6107W        W49098  33.048  24.182  15.550 -0.3594 -0.1365  0.0521
 6108W        W49099  33.301  13.185   4.358  0.2657 -0.5964 -0.1139
 6109W        W49100  27.447   6.751   2.541 -0.2909  0.0836 -0.2358
 6110W        W49101  13.828  16.393  17.529  0.0477 -0.0736  0.1981
 6111W        W49102  11.283  19.309   1.829  0.0396  0.1160  0.0945
 6112W        W49103  16.969   0.127  19.689  0.1236 -0.0115 -0.1006
 6113W        W49104  29.871   2.579  21.880 -0.0475 -0.0947  0.0631
 6114W        W49105  22.979  23.296  27.653 -0.1438  0.1193  0.0991
 6115W        W49106  33.974   8.549  26.843 -0.0679 -0.0212 -0.1460
 6116W        W49107  28.357   4.957  21.560  0.1948 -0.1352  0.0056
 6117W        W49108   6.502   7.096  26.302 -0.0178  0.1423 -0.0550
 6118W        W49109  27.191  34.572  19.064 -0.1522 -0.1311  0.1883
 6119W        W49110  15.375  30.614   6.709 -0.3146 -0.0725  0.1108
 6120W        W49111  24.483   5.268   2.546  0.1268  0.0349 -0.1406
 6121W        W49112   2.426  12.451  25.634  0.2899  0.2783  0.0196
 6122W        W49113  22.847   1.145  25.864  0.0105  0.1091 -0.1952
 6123W        W49114  30.578   9.434  16.777  0.0089  0.0394 -0.0482
 6124W        W49115  26.346   6.020  23.615 -0.0140  0.2673  0.0612
 6125W        W49116  20.187  27.164   1.500 -0.2514 -0.1357 -0.0909
 6126W        W49117   7.310  21.499  23.512 -0.1752  0.3967  0.2499
 6127W        W49118  19.359   9.405   3.613  0.0384  0.0643  0.0399
 6128W        W49119   9.153  28.823  23.752 -0.1419  0.1991 -0.0827
 6129W        W49120  15.119  11.225  23.789  0.0454  0.0503 -0.1765
 6130W        W49121  16.089   2.823  18.193  0.2925 -0.2439  0.2846
 6131W        W49122  32.763   4.469  22.299  0.1004  0.1785 -0.0003
 6132W        W49123  27.557  33.737  16.945  0.0723 -0.1939 -0.0654
 6133W        W49124   4.785   4.680   8.827  0.3182 -0.3292  0.0050
 6134W        W49125  32.420  24.873   1.686 -0.1190 -0.3175  0.1331
 6135W        W49126  32.843   0.901   7.411 -0.0271 -0.2039  0.0621
 6136W        W49127  28.925  17.464   9.380  0.0349 -0.3919  0.0417
 6137W        W49128   4.639  15.361  21.347 -0.2220  0.1029 -0.1218
 6138W        W49129  15.040   0.055  26.462 -0.0793 -0.1038 -0.5596
 6139W        W49130   3.014  15.526   2.273 -0.0413 -0.1129  0.1001
 6140W        W49131  18.022  31.295  20.070 -0.2732  0.0764  0.0188
 6141W        W49132   3.470  34.160  25.503 -0.2977  0.1006 -0.0677
 6142W        W49133   5.080  27.278  22.782  0.3378  0.2230 -0.3710
 6143W        W49134   0.053   3.582  14.195 -0.0322  0.2913  0.1206
 6144W        W49135  10.689  26.742   1.930 -0.1252 -0.0348 -0.0617
 6145W        W49136   9.998   4.928  16.495 -0.1131 -0.0424 -0.0244
 6146W        W49137   7.215  32.884   5.051  0.0002  0.1755  0.1009
 6147W        W49138  30.776  31.957  25.071  0.0314  0.0051  0.0772
 6148W        W49139  13.902   8.250  22.324 -0.2549 -0.1346 -0.2041
 6149W        W49140  30.398  17.208   1.884  0.2140 -0.1722  0.4951
 6150W        W49141   1.120   6.858  22.682  0.1138 -0.0063  0.0095
 6151W        W49142  21.138  22.131  22.649  0.1447 -0.0700 -0.1480
 6152W        W49143  10.237   5.858  21.712  0.0199  0.3873 -0.1093
 6153W        W49144   7.756  33.375  15.120  0.0681  0.2940 -0.2666
 6154W        W49145  34.133   4.192   2.779  0.2326  0.0775 -0.1608
 6155W        W49146  32.901   0.003   3.745 -0.1696 -0.0582  0.0015
 6156W        W49147   8.408  12.261  26.219  0.0218  0.3795  0.0307
 6157W        W49148  26.489   5.825  16.072  0.6127  0.0565  0.1980
 6158W        W49149   2.423   0.383  23.197 -0.0729 -0.1082 -0.0958
 6159W        W49150  34.798  27.006  16.417 -0.2601  0.3113  0.0287
 6160W        W49151  31.818  11.001   8.069  0.0797 -0.0122  0.3589
 6161W        W49152   0.269  29.925  15.286  0.4695  0.0382 -0.0180
 6162W        W49153   1.971  13.275  17.370 -0.3063 -0.0211 -0.1456
 6163W        W49154   3.766  11.600  19.664  0.2615  0.2586 -0.0761
 6164W        W49155  32.448  13.298  15.697  0.0536  0.1639 -0.2176
 6165W        W49156  16.203   9.974  18.040  0.0582 -0.0071 -0.1758
 6166W        W49157   0.341  29.803  22.375  0.1447  0.0116  0.2014
 6167W        W49158  29.541  20.773  20.083  0.0979 -0.2134  0.3009
 6168W        W49159   8.221  13.374  21.628 -0.2478 -0.1724 -0.0785
 6169W        W49160  32.238  10.850  20.563  0.0284 -0.1690 -0.0464
 6170W        W49161  27.035  28.514  21.288 -0.3677  0.0311 -0.3706
 6171W        W49162   9.482  21.579  21.341  0.2323 -0.2570 -0.1074
 6172W        W49163   0.076   2.640  20.541  0.2940  0.1745 -0.2079
 6173W        W49164  17.531   6.096   0.749 -0.5629  0.0409 -0.1588
 6174W        W49165   1.770  11.971  17.501  0.0884 -0.2450  0.0612
 6175W        W49166   1.674   0.867  27.398  0.3728 -0.0813 -0.1307
 6176W        W49167  33.756  15.475  23.099 -0.0728 -0.0367  0.1630
 6177W        W49168  10.982  30.766  23.323 -0.1558 -0.0255 -0.2401
 6178W        W49169  33.447   2.955  21.718 -0.1128 -0.1479  0.0684
 6179W        W49170   8.832  15.072   6.583 -0.0371 -0.3028 -0.2063
 6180W        W49171  30.010   0.142  21.026  0.0966  0.0025  0.3071
 6181W        W49172   0.791  22.277   5.667  0.1775  0.1017  0.2144
 6182W        W49173   9.205  18.551  24.874  0.2089  0.0565  0.1119
 6183W        W49174   8.828  17.126  23.791 -0.1170 -0.3122  0.3465
 6184W        W49175  28.546   7.283  14.602  0.1765 -0.0343 -0.0193
 6185W        W49176  30.305  22.371   3.166 -0.0932 -0.1204  0.0158
 6186W        W49177   2.959   7.749  20.095 -0.0298  0.0849  0.3246
 6187W        W49178  23.600   5.622   2.241  0.1757  0.1920 -0.0742
 6188W        W49179   3.882  14.551  20.265 -0.0540  0.0860 -0.1390
 6189W        W49180   0.794  33.878  16.239 -0.0793  0.1253 -0.1492
 6190W        W49181  31.181   7.020  16.674  0.1303 -0.3084  0.0594
 6191W        W49182   1.278  12.067  23.931  0.1061 -0.4268 -0.0076
 6192W        W49183  14.415   8.350  24.242 -0.3865  0.0386 -0.1929
 6193W        W49184  14.094  15.464  21.746 -0.1430  0.0190 -0.0624
 6194W        W49185  32.891  21.502  19.906  0.3261 -0.0611  0.1004
 6195W        W49186  18.972  14.089  24.013  0.0174  0.0637  0.1486
 6196W        W49187  13.540   4.911   3.360 -0.2436  0.3011 -0.0742
 6197W        W49188  20.620   8.182  13.040  0.1139 -0.1091  0.3991
 6198W        W49189  19.510  28.013   3.723  0.5340  0.0003  0.0126
 6199W        W49190  12.574  28.037  22.759 -0.0848 -0.0368  0.3212
 6200W        W49191  14.898  32.108  17.047  0.4425  0.0103 -0.2481
 6201W        W49192   6.851  27.392  24.123 -0.0789  0.2392 -0.0176
 6202W        W49193  25.437  10.058  27.362 -0.0344 -0.0437  0.0795
 6203W        W49194  21.779  17.417  16.983 -0.2884 -0.1425  0.0153
 6204W        W49195  29.068   1.084   2.758 -0.0914  0.0786 -0.0022
 6205W        W49196  32.669  27.098  13.967 -0.3930  0.1675 -0.4545
 6206W        W49197   0.268   6.429  22.214  0.1492 -0.0235  0.3238
 6207W        W49198   4.701   5.543  11.581  0.1689 -0.1720 -0.2048
 6208W        W49199  24.817  30.269  21.709  0.0239 -0.0093 -0.0431
 6209W        W49200   5.242  31.966  21.239  0.0128  0.0993 -0.1791
 6210W        W49201  28.137   8.257  21.385 -0.0299  0.0720 -0.0259
 6211W        W49202  15.284   8.442  20.431 -0.0599 -0.1590  0.2747
 6212W        W49203   0.529  20.027  21.999  0.1441  0.1489 -0.1663
 6213W        W49204   4.072  30.731   9.429  0.0768  0.1363 -0.1058
 6214W        W49205   5.417  31.698   3.123  0.3331 -0.3006 -0.2866
 6215W        W49206   9.767  34.206  15.427  0.2190  0.0251 -0.0330
 6216W        W49207  18.163   6.541  28.361  0.2241  0.0922  0.3905
 6217W        W49208  14.449  30.387  19.355 -0.1509  0.2684 -0.1231
 6218W        W49209  20.763   7.115   3.815  0.1475  0.2499  0.1358
 6219W        W49210   7.724   6.807   2.088 -0.0877  0.1709 -0.1692
 6220W        W49211  29.304  12.462  15.136 -0.0981 -0.0682  0.1330
 6221W        W49212  12.386   7.985   5.076  0.3460  0.0058 -0.3092
 6222W        W49213   2.682   7.324  16.019  0.1427  0.3109 -0.0098
 6223W        W49214   6.965   8.748   4.827 -0.1375  0.0695  0.1004
 6224W        W49215  15.072  26.217  25.182 -0.2867 -0.2709  0.0393
 6225W        W49216  16.292  16.949   4.402  0.2518  0.0148 -0.0846
 6226W        W49217   6.523   9.893  25.979 -0.3280  0.1108  0.1871
 6227W        W49218   2.827  30.820   6.089  0.2609  0.4038 -0.0763
 6228W        W49219   7.220  28.726   1.260 -0.0602  0.0359  0.0705
 6229W        W49220  10.251   7.746  16.976 -0.1625 -0.0975  0.0160
 6230W        W49221  13.546   5.394  18.278 -0.4200  0.0770  0.4752
 6231W        W49222  18.426  21.999   4.608 -0.3561  0.1694 -0.0457
 6232W        W49223  33.187  31.503  14.573  0.3019  0.0345 -0.1709
 6233W        W49224  14.342  21.471  20.273  0.0648  0.3062  0.0355
 6234W        W49225  26.118  12.289  21.542  0.0623 -0.2610  0.0374
 6235W        W49226  17.534  31.495   6.188  0.1039 -0.2452  0.0569
 6236W        W49227  10.910  18.270  24.856 -0.1606  0.1196  0.3276
 6237W        W49228   7.911  33.369  25.591 -0.2118 -0.2191  0.2608
 6238W        W49229   6.536   3.744   4.343 -0.1161  0.0599  0.3057
 6239W        W49230   9.095   8.006  16.989 -0.0301 -0.0202 -0.1302
 6240W        W49231  26.511  28.960   3.718 -0.1085  0.3475 -0.1224
 6241W        W49232  33.336   2.646  14.114 -0.1141  0.0220 -0.1767
 6242W        W49233  27.603   9.024  14.443  0.3495 -0.0268  0.0436
 6243W        W49234  20.811  27.704  23.201 -0.0056  0.2953  0.2083
 6244W        W49235   1.979  12.352   0.290  0.1739  0.0488  0.1022
 6245W        W49236  15.163  11.646  14.801 -0.2897 -0.0081 -0.0446
 6246W        W49237  11.346  10.844  16.987  0.1750 -0.1718  0.3877
 6247W        W49238  33.887  11.463  20.182  0.0642  0.0098  0.1629
 6248W        W49239  26.972  33.035  17.185  0.2128 -0.2889 -0.2896
 6249W        W49240   9.058  29.762  23.814 -0.1201 -0.4320 -0.2049
 6250W        W49241  12.162   1.508   1.530 -0.1408 -0.3215 -0.1252
 6251W        W49242  31.285   4.777  29.200  0.3631  0.0188 -0.1919
 6252W        W49243  26.131  33.363   8.316 -0.2865  0.1757 -0.2769
 6253W        W49244  33.520  33.673  24.972 -0.0814 -0.0462  0.0023
 6254W        W49245  24.125   0.766  18.113  0.1419  0.1046 -0.1381
 6255W        W49246  27.667  23.387  15.673  0.1464  0.0552 -0.0001
 6256W        W49247  27.153   1.188   0.100  0.1235  0.0712  0.0017
 6257W        W49248   9.368  20.816   2.837 -0.3347 -0.2826 -0.3429
 6258W        W49249  33.829  33.093  19.312  0.0820 -0.1298  0.1730
 6259W        W49250  27.004  15.699   9.540  0.0853  0.0897 -0.1546
 6260W        W49251   1.596  10.521   0.582  0.1895  0.1353 -0.1776
 6261W        W49252  29.074  29.908  22.938  0.0161 -0.1078 -0.0664
 6262W        W49253   7.132   0.086  15.273  0.0298 -0.0924  0.0587
 6263W        W49254  29.157  33.979  17.930  0.2667  0.2041 -0.1813
 6264W        W49255  33.398   9.098  16.435  0.1742 -0.1050 -0.1795
 6265W        W49256  15.421   6.717  18.216 -0.0741 -0.1070 -0.1494
 6266W        W49257  22.443  16.089  18.238 -0.2039 -0.0477 -0.1393
 6267W        W49258  20.509  28.639  24.062 -0.2552 -0.0821 -0.0134
 6268W        W49259  10.316  22.961   2.203 -0.1659  0.3365 -0.2557
 6269W        W49260  19.814  28.846  19.067 -0.1154 -0.2260  0.0914
 6270W        W49261  29.872  10.058  23.720  0.2919  0.0201 -0.1736
 6271W        W49262  10.130   2.777   0.364  0.1657 -0.1758  0.1525
 6272W        W49263  25.601  19.635  27.482  0.0409 -0.1304 -0.1714
 6273W        W49264  12.642   3.561  22.782  0.4134  0.0286  0.1394
 6274W        W49265  29.380  12.164   4.766  0.1387 -0.3119 -0.1329
 6275W        W49266  31.804   4.996   6.730 -0.1686  0.0741 -0.2394
 6276W        W49267  19.802  15.236   3.098 -0.0797 -0.0248 -0.4161
 6277W        W49268  27.062   4.492  16.273  0.2446 -0.2468  0.2130
 6278W        W49269  31.655  11.499   3.787  0.5756  0.2340  0.0164
 6279W        W49270  29.861  17.010   8.395 -0.0271 -0.0141 -0.0143
 6280W        W49271   4.020   6.312   4.534  0.1645  0.2990 -0.2249
 6281W        W49272   1.868  17.843  20.364  0.1785  0.1350  0.2127
 6282W        W49273  23.818  28.708  15.265 -0.1192 -0.0332  0.1094
 6283W        W49274  18.310   7.384  14.890  0.1283  0.1505 -0.0433
 6284W        W49275   3.171  22.895  15.099  0.4000  0.1179  0.1365
 6285W        W49276  33.241  11.367  22.458 -0.1918 -0.4171 -0.2610
 6286W        W49277  25.302  21.547  14.690  0.0292  0.0552  0.2033
 6287W        W49278  20.472  12.542   5.112  0.0748 -0.2342  0.4357
 6288W        W49279   0.282   0.994  27.878 -0.0575  0.0726 -0.5450
 6289W        W49280  33.403   3.391  13.822 -0.0745 -0.1377  0.0874
 6290W        W49281  25.679  33.800  23.540  0.1677  0.1982 -0.3000
 6291W        W49282  16.236   6.296  26.287 -0.0347  0.0243 -0.2706
 6292W        W49283  33.862  30.280  14.194  0.1562 -0.2551  0.1002
 6293W        W49284  29.158  15.898  17.632 -0.1399  0.1587 -0.0767
 6294W        W49285   2.396  13.783   4.838  0.3385 -0.2764 -0.4498
 6295W        W49286   6.225  23.177  15.931 -0.1501 -0.2403  0.1488
 6296W        W49287   3.054   9.120  19.401 -0.1800 -0.3231  0.3701
 6297W        W49288  16.297   6.200  15.312  0.1526 -0.0032 -0.0986
 6298W        W49289   5.968  21.513  26.325  0.0080  0.1397 -0.3099
 6299W        W49290   2.062  10.528  15.981 -0.3510  0.1832 -0.0945
 6300W        W49291  31.005  19.611  25.766 -0.2393  0.2651 -0.2178
 6301W        W49292   2.384   2.393   9.353 -0.1286  0.0672  0.1538
 6302W        W49293  12.958   7.509   0.251  0.3134 -0.1118  0.3332
 6303W        W49294  27.264   1.995  15.284 -0.1073  0.0291 -0.0723
 6304W        W49295  23.841  15.552  24.927  0.0726  0.0882  0.1289
 6305W        W49296  25.858   1.491  16.474  0.0467  0.2419  0.0137
 6306W        W49297  33.302   4.057   6.880  0.3678 -0.3813  0.1885
 6307W        W49298  31.984   7.235  17.331 -0.1584  0.0917 -0.0926
 6308W        W49299   2.818   2.366  25.370  0.0347 -0.1546  0.0270
 6309W        W49300   6.870  28.284  23.473 -0.3256 -0.1136  0.1341
 6310W        W49301   1.734  32.567  20.537 -0.0038 -0.1629 -0.1723
 6311W        W49302   1.649   2.555  18.781 -0.0909  0.0484  0.1039
 6312W        W49303   0.699   3.170  26.028  0.0458 -0.0883  0.0221
 6313W        W49304  19.237  10.634  19.099 -0.0453  0.1964  0.0210
 6314W        W49305  14.606  13.412  21.612  0.2079 -0.0849  0.2944
 6315W        W49306  23.810  23.766  13.918  0.3900 -0.2518 -0.0426
 6316W        W49307   3.273   8.467  19.408  0.1341 -0.0441 -0.0981
 6317W        W49308  32.749   2.764  14.630  0.0661 -0.1115 -0.0884
 6318W        W49309   4.621  10.013   3.268 -0.0342  0.1991  0.4159
 6319W        W49310   7.752  17.289  21.697  0.3528 -0.3458  0.0005
 6320W        W49311   1.380  14.941  18.553 -0.0667  0.0306 -0.0269
 6321W        W49312  27.280   0.286  22.259  0.1100 -0.0202  0.0760
 6322W        W49313   4.113  34.723  20.266  0.0397  0.4323  0.0458
 6323W        W49314  16.844   5.370  22.194 -0.1808 -0.0611  0.0356
 6324W        W49315  10.927  12.444  22.176 -0.1381  0.1267  0.1055
 6325W        W49316  16.399  16.772  29.256  0.1862 -0.1087 -0.2930
 6326W        W49317  13.373  29.493  23.924  0.2639  0.1510  0.1355
 6327W        W49318  20.334   5.821  25.452 -0.0104 -0.1884  0.0314
 6328W        W49319  14.987  21.232  27.917  0.2349 -0.0435 -0.1980
 6329W        W49320   0.582  32.335  19.522 -0.3693 -0.2449 -0.0242
 6330W        W49321  25.783   0.783  21.880 -0.0131 -0.3768 -0.1327
 6331W        W49322  27.735  24.627  14.448  0.1322  0.0110 -0.3385
 6332W        W49323  26.618   4.886   8.364  0.2211 -0.3969  0.0831
 6333W        W49324  28.285  32.145  17.803 -0.0986 -0.4968  0.1701
 6334W        W49325  13.111   2.028   0.078  0.1995 -0.0031  0.4946
 6335W        W49326  17.120   9.628  19.220  0.0306  0.1898 -0.4145
 6336W        W49327  20.966  12.751  14.642 -0.0182  0.1008  0.2713
 6337W        W49328   1.686   1.036  16.879  0.1536  0.1451 -0.0282
 6338W        W49329  11.351  29.687   6.539  0.0898 -0.0842 -0.1508
 6339W        W49330   5.499   4.657  25.038  0.1637  0.1132  0.1081
 6340W        W49331  12.124  23.526   5.431  0.0462 -0.1188  0.4092
 6341W        W49332   4.921  25.848  23.206  0.0468  0.0178 -0.1648
 6342W        W49333  21.078   4.530  20.673 -0.1290  0.2774  0.1889
 6343W        W49334  28.648   3.295  17.133 -0.1765  0.0673  0.0629
 6344W        W49335  26.644   9.871  20.897  0.0546 -0.2091 -0.0170
 6345W        W49336  28.994  17.105  24.120 -0.1542 -0.0301  0.0272
 6346W        W49337  23.331   4.247  26.410 -0.0705  0.0589 -0.0801
 6347W        W49338   2.143  11.884  21.468 -0.2644 -0.0657 -0.0536
 6348W        W49339   3.567   5.619   8.408  0.0442 -0.2900 -0.1925
 6349W        W49340   1.269  26.519  15.172 -0.1238 -0.0891  0.1213
 6350W        W49341  28.454  14.022  20.333  0.1445  0.0282  0.1176
 6351W        W49342  10.819  11.846   6.891 -0.1169  0.1338 -0.0234
 6352W        W49343   4.987   3.274  18.973  0.2572  0.0186  0.1303
 6353W        W49344  23.225   3.204   1.418  0.0133  0.0138 -0.0217
 6354W        W49345   3.320  20.354  21.372  0.1668 -0.2088 -0.0846
 6355W        W49346  11.784  33.220  27.470 -0.1127 -0.2298  0.1267
 6356W        W49347  27.758   4.170  26.447 -0.3770  0.1393  0.0635
 6357W        W49348  33.718   9.949  16.157 -0.1105 -0.0319 -0.0031
 6358W        W49349  34.430  33.380   8.303  0.0556 -0.0240  0.2563
 6359W        W49350  10.354  31.383  15.068 -0.0177 -0.1737  0.1954
 6360W        W49351  18.302   5.708  28.833  0.2390  0.1416 -0.0657
 6361W        W49352  13.820  30.659  27.130 -0.0230 -0.4310  0.2524
 6362W        W49353  30.612   1.556  15.181 -0.1471 -0.2416 -0.0446
 6363W        W49354  26.380  24.118  15.230  0.4182 -0.2543  0.3858
 6364W        W49355  11.393  10.668   6.843  0.3513 -0.1521 -0.0839
 6365W        W49356   7.552  11.006  27.310 -0.0329  0.2057  0.0903
 6366W        W49357   4.785  21.120  27.248 -0.1079 -0.1660 -0.2463
 6367W        W49358  11.853  34.214  24.769 -0.0297  0.1497  0.1647
 6368W        W49359  24.042  15.535  23.120  0.0918  0.1288  0.0166
 6369W        W49360  32.209   0.398  19.900 -0.2033 -0.1394 -0.0506
 6370W        W49361  17.179   7.278  20.425  0.0351  0.1239  0.0634
 6371W        W49362   2.936  11.435  27.019 -0.2539  0.0161 -0.2280
 6372W        W49363  31.090  31.317   3.869  0.1902  0.1863  0.3027
 6373W        W49364  17.193  30.732   8.015 -0.4153  0.2627 -0.1875
 6374W        W49365   9.933  31.130   6.588 -0.1029  0.0192 -0.0458
 6375W        W49366   1.293   1.611  23.430 -0.0931  0.2283 -0.0656
 6376W        W49367  27.815   7.397  25.763  0.0562  0.1457  0.2118
 6377W        W49368  16.586  22.034   2.975  0.0873 -0.2349  0.1731
 6378W        W49369   8.185  17.489  21.909  0.4104  0.2306  0.0576
 6379W        W49370  29.054  10.012   0.283 -0.1428  0.2541  0.4189
 6380W        W49371   0.501  10.299  25.066 -0.4172 -0.0156  0.0137
 6381W        W49372   9.551  16.583  24.017 -0.0018  0.0411 -0.2328
 6382W        W49373   5.772   8.476   4.101 -0.0548  0.1663 -0.1323
 6383W        W49374   0.107  28.644  21.248 -0.1146 -0.0876 -0.4888
 6384W        W49375  28.296  10.634  27.670 -0.2339  0.2034 -0.1475
 6385W        W49376   5.971  29.165  25.685  0.0913  0.1425  0.0943
 6386W        W49377  34.269  26.597  23.083  0.0032  0.1167 -0.1617
 6387W        W49378   5.245  12.460   6.741 -0.1755 -0.1418  0.2485
 6388W        W49379  11.015   6.332   6.586  0.1779  0.0701  0.0731
 6389W        W49380  22.902   0.103  13.966  0.0070  0.0365  0.3545
 6390W        W49381  33.622   0.954  17.727 -0.0657  0.0628 -0.4028
 6391W        W49382   8.028  14.388  27.647 -0.0073 -0.1125 -0.0894
 6392W        W49383  32.587   7.751  16.895 -0.1504 -0.1289 -0.1365
 6393W        W49384   6.486   8.323  20.112 -0.0543 -0.0346  0.3289
 6394W        W49385  17.815  32.397   7.328  0.1733  0.2422  0.0972
 6395W        W49386   1.103   1.083  25.528  0.0265 -0.2893  0.1171
 6396W        W49387   8.299  32.411   3.484 -0.1029  0.2866  0.0487
 6397W        W49388   1.839   1.040  14.860 -0.2597  0.0385 -0.0438
 6398W        W49389  28.381   0.517   3.201 -0.3839  0.1214  0.2193
 6399W        W49390   3.900   4.470  22.095  0.1681 -0.1380 -0.2221
 6400W        W49391   5.085   9.740   3.098 -0.1493 -0.0697 -0.0243
 6401W        W49392  19.852  11.710  23.596  0.0101  0.2635 -0.5719
 6402W        W49393  32.723  22.381   4.783 -0.3072 -0.0060 -0.2140
 6403W        W49394   4.151  32.378  17.173 -0.1181 -0.0117  0.1170
 6404W        W49395   8.354   1.078  18.498  0.0007  0.1436  0.3309
 6405W        W49396   6.361   8.809  19.125 -0.1585 -0.0778 -0.1291
 6406W        W49397   1.804  14.330  16.503  0.0620  0.2116 -0.3230
 6407W        W49398   2.791   1.695  18.303 -0.1803 -0.0907 -0.1771
 6408W        W49399   0.482  33.603  14.518  0.3536  0.0395 -0.2031
 6409W        W49400   8.703  14.686  23.387 -0.0650 -0.1424  0.1008
 6410W        W49401  10.358   7.243   3.864  0.1862  0.0507  0.1231
 6411W        W49402  29.294   6.696   0.423  0.3109  0.0089  0.0878
 6412W        W49403   6.439   3.453   3.545 -0.1976 -0.5766 -0.1272
 6413W        W49404   2.542   3.925  28.154  0.1588 -0.1180 -0.0072
 6414W        W49405  30.095   1.305   6.989 -0.0826  0.0986  0.0293
 6415W        W49406  32.400  34.579  26.744  0.2050  0.1584  0.2824
 6416W        W49407   0.224   0.773  26.382  0.2941 -0.0916  0.1929
 6417W        W49408   0.715   9.796  16.966 -0.1453  0.1932 -0.3359
 6418W        W49409   4.812   8.353  17.387  0.3171 -0.0684  0.1129
 6419W        W49410   3.069   3.274  25.645 -0.2933 -0.3737 -0.0553
 6420W        W49411  11.991  14.494  15.963 -0.1351 -0.0758  0.0031
 6421W        W49412  34.395  30.490  17.788 -0.1076 -0.1577  0.2374
 6422W        W49413  33.511   5.746   1.775  0.0992 -0.0309  0.0019
 6423W        W49414  21.339  22.388  21.764  0.0435  0.0484  0.2237
 6424W        W49415   4.400   7.123   3.697 -0.0037 -0.0650  0.0787
 6425W        W49416  15.101  28.776  28.720  0.2684  0.1502  0.0008
 6426W        W49417  23.827  32.783  13.910  0.0383 -0.0974  0.0775
 6427W        W49418  29.940  15.182  28.866  0.2947  0.0637  0.3184
 6428W        W49419  12.119  10.795  20.087 -0.3237  0.2953 -0.1119
 6429W        W49420  13.139  11.022  16.139  0.0596  0.2550  0.0102
 6430W        W49421  23.957  33.515  13.974  0.3685  0.0371  0.4932
 6431W        W49422  14.976  27.901  20.979  0.1790  0.2047 -0.0475
 6432W        W49423  30.234  33.718  14.624  0.4250  0.2381 -0.0047
 6433W        W49424   5.658   6.377  21.949 -0.1384 -0.1584 -0.2178
 6434W        W49425   0.524   5.407  15.190 -0.0079  0.1836 -0.0247
 6435W        W49426  30.445  17.004   8.514  0.1012  0.0956  0.4608
 6436W        W49427   2.174   9.673   2.535 -0.1533 -0.2121 -0.2695
 6437W        W49428   0.581  17.450  20.599 -0.0098  0.0357  0.2414
 6438W        W49429  14.779   7.904  24.034 -0.0485 -0.1683  0.1093
 6439W        W49430  29.649  33.244   4.572  0.0904  0.0346 -0.1045
 6440W        W49431  25.206   1.993  23.752  0.1455  0.0858  0.1686
 6441W        W49432  27.762   9.394  28.789  0.2252 -0.2758  0.1153
 6442W        W49433  33.234  30.056  14.919  0.0250  0.0342 -0.0238
 6443W        W49434  14.019   4.569   7.697  0.2365 -0.0286 -0.1397
 6444W        W49435  11.816  19.745   0.624 -0.2432  0.1921  0.0228
 6445W        W49436   8.850  23.510  16.762 -0.1355 -0.2982 -0.2020
 6446W        W49437  15.692   8.044   1.103 -0.2465 -0.1220  0.1152
 6447W        W49438  17.663  32.625   9.627 -0.0899  0.0138  0.5765
 6448W        W49439   9.078   0.110  16.404  0.1008 -0.1676  0.0362
 6449W        W49440   0.108  12.734   3.448 -0.0102 -0.1138  0.1260
 6450W        W49441  20.275   0.800  23.130 -0.0381  0.1283 -0.2975
 6451W        W49442   3.132  34.543   5.709 -0.0160 -0.1141 -0.0204
 6452W        W49443   3.758  18.712  27.833  0.0258  0.1557  0.2016
 6453W        W49444  21.319  25.784   4.426  0.1348  0.0757  0.1518
 6454W        W49445   8.286   0.563  21.445  0.0346 -0.0903 -0.2093
 6455W        W49446   0.771  10.578  27.609  0.2740 -0.0045  0.1486
 6456W        W49447  10.184   3.981  17.727  0.2405 -0.1874 -0.2206
 6457W        W49448  24.481  32.164  16.777 -0.0261 -0.0374  0.3102
 6458W        W49449  28.567   4.616  16.251  0.0713  0.1438  0.2046
 6459W        W49450  10.041  13.525  20.909  0.1053  0.0870 -0.0995
 6460W        W49451  26.451   9.830  19.420 -0.1934  0.1215  0.1185
 6461W        W49452   6.619  28.062   4.636 -0.1666 -0.2582  0.0229
 6462W        W49453  25.652   3.535  16.821 -0.0226 -0.0900  0.1689
 6463W        W49454   7.072  14.559   5.758  0.1468 -0.0339 -0.0163
 6464W        W49455  31.401  20.404   1.822  0.0304 -0.2334 -0.0899
 6465W        W49456  32.189   8.786   9.189 -0.0662  0.2047 -0.0638
 6466W        W49457  10.966   3.767   9.602  0.2463  0.0565  0.1032
 6467W        W49458  27.732   4.076  22.959 -0.2383  0.2152  0.0594
 6468W        W49459   9.779   3.905  26.367 -0.1177 -0.0032  0.2828
 6469W        W49460  12.957   6.992  27.773 -0.0194  0.3066 -0.0732
 6470W        W49461   9.728   4.076  28.302  0.0620  0.0965  0.2349
 6471W        W49462   6.606   8.180  18.659 -0.0873  0.2833 -0.3326
 6472W        W49463   8.486   2.419  24.700  0.1269  0.0760  0.0656
 6473W        W49464   4.612  30.683  23.151 -0.0351  0.1654  0.0755
 6474W        W49465  13.401   4.019   9.352  0.0107  0.1865  0.0753
 6475W        W49466   6.216   0.229  20.151 -0.1857 -0.1816  0.0606
 6476W        W49467   1.147  12.252  19.095 -0.2581  0.1504 -0.1685
 6477W        W49468  33.701  15.490  19.268 -0.3822  0.2353  0.0830
 6478W        W49469  11.951  34.597   1.790  0.1470  0.1463  0.0477
 6479W        W49470   4.582  12.846   3.785  0.4371 -0.1374  0.1283
 6480W        W49471   2.825   6.642   7.019 -0.0887  0.2001 -0.2986
 6481W        W49472  28.599  19.263   9.358 -0.2901 -0.0013 -0.0498
 6482W        W49473   7.284  33.526  19.797  0.2506  0.0122  0.3847
 6483W        W49474  31.789  22.811  15.419 -0.2952  0.4521  0.2134
 6484W        W49475  31.371  21.701  26.199 -0.0856 -0.0398  0.2397
 6485W        W49476   9.292  16.337  15.045  0.2325  0.0296 -0.1539
 6486W        W49477  29.812  33.236  20.627  0.0930  0.0420 -0.0070
 6487W        W49478  32.449   4.594  17.478 -0.0010  0.2537  0.0986
 6488W        W49479  19.774   6.726  28.320 -0.0429 -0.0343  0.1107
 6489W        W49480  32.150  34.278  21.727 -0.1900  0.2177  0.0162
 6490W        W49481  12.436  21.431  23.826 -0.1895  0.0622 -0.4164
 6491W        W49482  34.023  31.466  17.558  0.1973  0.1443  0.2104
 6492W        W49483  22.576  11.536  24.453  0.4332  0.0487 -0.0921
 6493W        W49484   9.065  17.413  22.346 -0.1329  0.0388 -0.0700
 6494W        W49485  28.759  18.251  20.281 -0.0364 -0.1870  0.0165
 6495W        W49486  29.929   6.508   4.249 -0.2525 -0.3408 -0.1018
 6496W        W49487   6.378   6.183  21.213  0.1609  0.1350 -0.1586
 6497W        W49488  30.726   8.784  28.338 -0.0213  0.2100 -0.1320
 6498W        W49489  10.175  17.292  26.469  0.2141 -0.0494  0.1027
 6499W        W49490  13.915   2.700   9.481 -0.0805  0.2190  0.0543
 6500W        W49491   4.386  28.664  20.171  0.0231  0.0578  0.1206
 6501W        W49492   4.737  12.928  25.847  0.0883 -0.1259 -0.0317
 6502W        W49493  21.977  26.054  17.210  0.0891 -0.0287 -0.0567
 6503W        W49494  29.282   9.623   1.090 -0.2066  0.0618  0.0030
 6504W        W49495  33.545   2.742  18.556 -0.0778 -0.0051  0.0675
 6505W        W49496  34.342  33.856  23.916  0.1896 -0.2162 -0.0454
 6506W        W49497  29.881  14.132  17.778 -0.2419  0.0338 -0.0967
 6507W        W49498   5.509  12.957  21.027  0.0210 -0.0791 -0.0746
 6508W        W49499  16.647   0.258  19.218 -0.1212 -0.1069 -0.0872
 6509W        W49500  27.902   8.219  22.626  0.0319  0.1470 -0.1723
 6510W        W49501  26.268   8.375  14.776  0.0172 -0.0753  0.0768
 6511W        W49502   2.368   2.658  16.952  0.1203  0.2519  0.0831
 6512W        W49503   3.707   5.877  10.953  0.3655 -0.0474  0.2612
 6513W        W49504  15.217  13.373  24.812 -0.0329 -0.3248 -0.1089
 6514W        W49505  20.479  23.794   6.800  0.0880 -0.1742 -0.2106
 6515W        W49506  33.595  34.568  23.527 -0.1958  0.2089  0.0248
 6516W        W49507  15.914  12.541  25.247 -0.0721  0.2976 -0.0270
 6517W        W49508  26.052   3.428   0.265 -0.3194  0.0065  0.1626
 6518W        W49509  21.307   9.099  14.147 -0.2683 -0.1106 -0.1478
 6519W        W49510  31.613  13.349  15.288  0.2530  0.1648 -0.0885
 6520W        W49511  17.669   8.684  22.169 -0.1591 -0.1448 -0.1521
 6521W        W49512   2.280  30.627  16.897  0.0227  0.0054 -0.0005
 6522W        W49513   4.515   2.968  20.843 -0.0580 -0.2722 -0.1615
 6523W        W49514  13.040  16.697  19.944  0.0411 -0.1763 -0.3521
 6524W        W49515  13.144  34.109  24.003  0.0627  0.1210  0.1405
 6525W        W49516  26.933   4.165  28.911  0.0913 -0.0553 -0.1515
 6526W        W49517  32.422  11.557  21.524 -0.3160 -0.2576  0.0181
 6527W        W49518   8.314   8.134  15.494 -0.2817 -0.1134 -0.1782
 6528W        W49519  17.243  12.470  14.933 -0.0868  0.2281  0.0435
 6529W        W49520   2.524   8.048  15.889  0.0790  0.0081  0.1070
 6530W        W49521   6.643  14.088  27.377 -0.2090 -0.0308 -0.0658
 6531W        W49522   6.818  21.705  20.656 -0.1744  0.0596 -0.1814
 6532W        W49523  34.126  27.525  19.256  0.0987 -0.0472 -0.3064
 6533W        W49524  25.451  29.965  20.156  0.0609 -0.2002 -0.2841
 6534W        W49525   9.221   4.006   4.589 -0.0335 -0.0334  0.2145
 6535W        W49526   4.332  16.718   8.417 -0.2385 -0.3439 -0.2453
 6536W        W49527  22.081  31.437  20.773 -0.1047  0.0653 -0.0516
 6537W        W49528  24.537  30.792   3.354 -0.3642 -0.0176 -0.2815
 6538W        W49529  22.006  14.088  19.030  0.2233  0.0344  0.2749
 6539W        W49530   7.523   5.929   3.939 -0.1875 -0.2196 -0.2294
 6540W        W49531  18.486   2.421  28.793 -0.0599  0.3099 -0.1382
 6541W        W49532   3.276   7.852   3.824 -0.0008 -0.0287 -0.0318
 6542W        W49533   2.751  10.102  27.226  0.1743 -0.0584 -0.2606
 6543W        W49534   1.747  28.184  28.037 -0.1407 -0.1189  0.3767
 6544W        W49535  27.322  15.298  21.234 -0.1410 -0.2227 -0.0226
 6545W        W49536  34.418   0.596  20.450 -0.2652  0.0510 -0.2602
 6546W        W49537  12.075   1.448   4.911  0.1625 -0.1984 -0.1605
 6547W        W49538   2.525  12.121  20.593  0.1445  0.0419 -0.0641
 6548W        W49539   5.390  31.793  17.014  0.2471 -0.0393 -0.1020
 6549W        W49540  34.068  33.835   0.564 -0.0791 -0.3028 -0.3039
 6550W        W49541  32.184   3.519  25.004  0.2910 -0.0591 -0.1631
 6551W        W49542  30.957   3.168   3.166 -0.0442  0.1447  0.0181
 6552W        W49543  13.717  12.430  20.182  0.0576 -0.3179  0.1936
 6553W        W49544   6.831   4.085  24.458  0.0174 -0.3836  0.0624
 6554W        W49545   1.813  25.869  21.591  0.0521  0.0438  0.1919
 6555W        W49546   9.052  14.649  21.273  0.0072 -0.3092  0.2128
 6556W        W49547  32.687  19.824  18.856  0.0112 -0.2427 -0.3041
 6557W        W49548   5.098  33.305  22.176  0.1591 -0.0572 -0.3465
 6558W        W49549  12.919   1.052  16.730  0.0485 -0.0469 -0.2959
 6559W        W49550  27.852  21.598  26.254 -0.0455  0.1394 -0.1131
 6560W        W49551  34.163  27.746  16.447  0.1956  0.1291 -0.0532
 6561W        W49552  12.180  23.821  26.525  0.1416  0.0120  0.2104
 6562W        W49553  11.113  25.261  24.137 -0.3165 -0.0694  0.1324
 6563W        W49554  30.505  27.245  25.901 -0.1408  0.0550  0.4604
 6564W        W49555   4.016  20.307  17.581  0.1724 -0.1917 -0.3451
 6565W        W49556  17.935  28.177  16.582  0.2340  0.2662 -0.0536
 6566W        W49557  11.647   9.972   1.609  0.0169 -0.1214 -0.0920
 6567W        W49558   5.364   8.804  23.563  0.0778  0.1293  0.0095
 6568W        W49559  15.433  29.455  13.991  0.1704  0.1162  0.0166
 6569W        W49560  28.731  17.066  14.177  0.0666  0.1914 -0.1020
 6570W        W49561  24.209   0.040  21.631  0.0234 -0.2065  0.0336
 6571W        W49562   5.571   5.832  26.555 -0.2382 -0.1053  0.0493
 6572W        W49563   5.002   0.396  22.280 -0.1417 -0.0282 -0.1896
 6573W        W49564  20.848  13.768   1.599 -0.1635 -0.1398  0.2428
 6574W        W49565  33.460  32.724   7.963 -0.2099 -0.2110 -0.2173
 6575W        W49566   1.833   0.778  29.195  0.0104 -0.0327  0.0311
 6576W        W49567  25.475  26.416  18.271 -0.4295 -0.2218 -0.2703
 6577W        W49568  10.553  21.559  15.874 -0.2790  0.3392  0.1860
 6578W        W49569  32.734   7.599  19.249  0.1300 -0.0023  0.1312
 6579W        W49570   4.931  34.535  23.674 -0.1871 -0.2185 -0.1403
 6580W        W49571  10.757   0.123  27.010  0.1493 -0.0541  0.0755
 6581W        W49572  26.652   5.627  23.529  0.0620  0.1698 -0.2193
 6582W        W49573  31.963   4.912  21.878  0.2288  0.2853  0.0713
 6583W        W49574   8.031   6.022  20.633 -0.0735 -0.2963 -0.1661
 6584W        W49575  29.062  32.954  27.306  0.1017 -0.1641  0.1190
 6585W        W49576  15.128   6.154   1.239 -0.2363 -0.1763 -0.2091
 6586W        W49577   1.854   1.369  17.981 -0.1582  0.0719  0.1487
 6587W        W49578  18.849   0.158   6.830  0.0244 -0.0528 -0.0766
 6588W        W49579  30.189   9.418  19.265 -0.2278 -0.2623 -0.0774
 6589W        W49580  13.949   7.422  27.384  0.1565 -0.3820  0.0402
 6590W        W49581  24.928  32.043  22.542 -0.0217 -0.0548  0.1731
 6591W        W49582  20.772   7.860   3.686  0.1787  0.1546  0.0760
 6592W        W49583   1.606  15.819  11.155  0.0667 -0.1408  0.0298
 6593W        W49584   5.525   8.577  27.122 -0.0437 -0.0110  0.2215
 6594W        W49585  32.213   2.139  19.478 -0.0092  0.5130  0.0650
 6595W        W49586   4.141  33.515  24.221  0.0234  0.2294 -0.0835
 6596W        W49587   0.108  12.638   1.971 -0.2357 -0.1981 -0.1173
 6597W        W49588  27.948  26.812   4.014  0.2418 -0.2599  0.1027
 6598W        W49589   9.715   6.721   1.282  0.3652  0.1118 -0.0010
 6599W        W49590   1.142   9.649  24.454  0.1558 -0.0606 -0.0262
 6600W        W49591  27.926   0.988  24.214  0.0341  0.0852  0.1679
 6601W        W49592  19.238   6.483  20.395  0.1554  0.2295  0.1251
 6602W        W49593   3.187  15.587  25.925  0.0753  0.0777 -0.1550
 6603W        W49594   4.959   7.738  14.772 -0.0592  0.3435  0.0541
 6604W        W49595  26.203  25.473   5.591 -0.3678  0.2013  0.0071
 6605W        W49596  27.901   4.991  19.725  0.1258  0.0311 -0.0525
 6606W        W49597   4.907   5.956   2.211 -0.1705 -0.2093  0.0925
 6607W        W49598   1.979  31.975  27.353  0.1458 -0.1837 -0.2912
 6608W        W49599   1.434   4.592  21.785  0.1423  0.3260 -0.2611
 6609W        W49600  28.540   6.491  24.264 -0.1167 -0.0669  0.0009
 6610W        W49601  12.816  11.882   7.002  0.0749  0.1680  0.0637
 6611W        W49602  30.417  28.241  14.479  0.0925  0.1381 -0.1131
 6612W        W49603  26.199   6.761   0.704  0.0296  0.0015  0.3284
 6613W        W49604   9.713  11.277  27.049  0.0543 -0.1261 -0.3102
 6614W        W49605   0.786  25.569   1.643  0.0330  0.2324  0.1248
 6615W        W49606   4.543   6.140  16.910 -0.0785  0.1228  0.0529
 6616W        W49607  33.521  16.793  21.151 -0.2165 -0.0919 -0.1343
 6617W        W49608  30.310  21.691  15.619 -0.0500 -0.2013 -0.3454
 6618W        W49609  34.792  11.484   6.055  0.0123  0.5471  0.0397
 6619W        W49610   2.565  13.667   9.202  0.0424  0.1580 -0.2865
 6620W        W49611  28.296   3.799   4.150  0.0414  0.1210  0.1586
 6621W        W49612   3.796  16.613   9.386  0.1254  0.0704 -0.1796
 6622W        W49613  10.922  34.725   1.602 -0.2813  0.0338 -0.1096
 6623W        W49614  28.780   5.064   4.730  0.0258 -0.1970  0.0737
 6624W        W49615  15.948  33.717  23.163  0.2680 -0.2124 -0.1380
 6625W        W49616  31.074  33.376  25.264  0.0861 -0.0475  0.0752
 6626W        W49617   5.134  10.193  22.533  0.3373 -0.0372 -0.2856
 6627W        W49618   2.278   9.133  28.484 -0.1210  0.0690  0.0816
 6628W        W49619   3.969  29.583  22.446 -0.1291 -0.0041 -0.2240
 6629W        W49620  34.129   4.176   8.614  0.0188  0.0911  0.1141
 6630W        W49621  11.727   5.756  16.687  0.0897  0.3377  0.1303
 6631W        W49622  34.542  11.937   1.282  0.0442 -0.5328  0.0866
 6632W        W49623   2.152   1.117  28.264 -0.1138 -0.0741 -0.0434
 6633W        W49624  13.961  32.261   0.312  0.4361 -0.0172  0.1014
 6634W        W49625  29.198   3.257   4.098  0.0100 -0.0663  0.1756
 6635W        W49626   3.357  28.769  23.813 -0.1600  0.1313  0.1699
 6636W        W49627   1.899   1.850  26.561 -0.1560 -0.1148 -0.1350
 6637W        W49628   5.313  18.946  29.176 -0.1213  0.1538  0.1314
 6638W        W49629  30.752   8.423  17.213 -0.2926  0.2252 -0.2396
 6639W        W49630   9.157  33.892   2.322 -0.1086  0.0961  0.1609
 6640W        W49631  11.956  31.343  15.307  0.0581  0.1792 -0.1265
 6641W        W49632   0.650  25.162   1.926  0.3485 -0.2033  0.3172
 6642W        W49633  12.855   4.643  23.830 -0.0727 -0.0835  0.0467
 6643W        W49634  32.736  25.989  17.203  0.1910  0.0221  0.2472
 6644W        W49635   1.202   3.554  20.949  0.1034  0.0721  0.3425
 6645W        W49636  14.318  15.545   0.272  0.2736 -0.2015  0.1156
 6646W        W49637  17.184  13.927  21.436  0.1003  0.0625 -0.1361
 6647W        W49638  16.959  29.178  13.513 -0.0179 -0.0614  0.1314
 6648W        W49639  16.846  30.302  26.448 -0.1293  0.0077  0.1874
 6649W        W49640   4.687   8.932  18.507 -0.2246  0.1999  0.1380
 6650W        W49641  32.838  20.151  22.855 -0.1587 -0.3050 -0.1185
 6651W        W49642  25.763  31.243   5.345 -0.2944 -0.0278 -0.1720
 6652W        W49643  34.377   8.804  23.277  0.1144 -0.2158 -0.4168
 6653W        W49644  11.422   5.318   9.343 -0.2552  0.1059 -0.0326
 6654W        W49645  31.929  10.196   2.586 -0.1512  0.3958 -0.1837
 6655W        W49646   9.940  32.286  22.079  0.0628  0.1511  0.1233
 6656W        W49647  18.564  34.650  21.809  0.1727 -0.0050  0.1366
 6657W        W49648   4.448  24.276  28.708  0.0592  0.0920  0.0436
 6658W        W49649  32.981  30.295  26.550  0.1168 -0.1987 -0.1544
 6659W        W49650  14.479   0.360  17.246  0.0494 -0.1331 -0.0778
 6660W        W49651  28.465  29.324  20.358 -0.0040 -0.1619  0.1318
 6661W        W49652  31.569   5.405  25.731 -0.0254  0.0240  0.3785
 6662W        W49653  27.262   7.059  26.853 -0.2459 -0.1157 -0.0445
 6663W        W49654  32.993  25.395  23.084 -0.1811 -0.1090  0.0442
 6664W        W49655   0.908   2.881  22.196 -0.1929  0.4395  0.0456
 6665W        W49656  25.028  11.393   6.590 -0.1961  0.0937  0.4223
 6666W        W49657  28.019   1.001  13.432 -0.3099 -0.1541  0.3623
 6667W        W49658  24.118   7.702  23.549 -0.1104  0.0683  0.4085
 6668W        W49659  27.617   1.544  18.414  0.0821  0.1511 -0.4211
 6669W        W49660  10.709  10.889  17.670  0.0417  0.3614  0.0890
 6670W        W49661   4.331   5.230  25.197 -0.2021  0.2516 -0.1294
 6671W        W49662  29.519  10.928  15.258  0.1867  0.0152  0.2690
 6672W        W49663  23.550  11.610  19.634 -0.1232 -0.0903 -0.1268
 6673W        W49664  16.957   1.026  24.995  0.0348 -0.2718  0.2639
 6674W        W49665   5.735  34.302  10.151 -0.1149  0.1403 -0.0035
 6675W        W49666  16.575   6.635   3.846 -0.1998  0.1986  0.2030
 6676W        W49667   9.101  18.798   9.386 -0.3666  0.0116 -0.0956
 6677W        W49668  34.073   6.324  22.131  0.0176 -0.1884  0.0174
 6678W        W49669  20.265  28.341  24.783 -0.1971  0.0045 -0.1193
 6679W        W49670  31.408  11.868  18.065 -0.0950  0.1996 -0.0262
 6680W        W49671  27.732   8.250  21.838  0.2682  0.2221  0.3431
 6681W        W49672  25.211  10.382  26.369 -0.2123 -0.3763  0.0535
 6682W        W49673   3.773  30.412   3.301  0.2475 -0.0960 -0.1478
 6683W        W49674   9.690   6.904  22.054  0.0848 -0.1142 -0.2738
 6684W        W49675   8.330   3.106   6.882  0.2679 -0.1638  0.1120
 6685W        W49676  16.800   3.568   4.672  0.1662 -0.2022  0.0791
 6686W        W49677   0.901  22.006  28.059  0.1364  0.1555  0.0720
 6687W        W49678  31.668   7.056  22.240  0.1239 -0.1199 -0.3976
 6688W        W49679   1.109   0.600   1.054  0.2991  0.3489  0.2955
 6689W        W49680   8.263  25.527  27.420  0.0344 -0.0663  0.1552
 6690W        W49681   9.936  10.274  27.178  0.0850 -0.2153  0.1712
 6691W        W49682   8.366  29.846   2.260  0.1226 -0.1148  0.0995
 6692W        W49683  17.053   5.104  17.289 -0.1275 -0.1583 -0.1786
 6693W        W49684   2.587  32.098  20.168  0.0132 -0.0069  0.0384
 6694W        W49685   1.369  10.626   5.400  0.1498  0.2366 -0.1836
 6695W        W49686  20.992   2.069  15.161  0.0726  0.0642  0.1773
 6696W        W49687  28.436  11.709  24.721  0.1258 -0.1593  0.0817
 6697W        W49688  34.208  26.433  18.626 -0.2157 -0.0139  0.3638
 6698W        W49689   7.257   7.343  21.791 -0.1499  0.0813 -0.2012
 6699W        W49690  10.281   3.392   0.876  0.1574  0.3537  0.0557
 6700W        W49691  33.464   1.950  16.638 -0.1721 -0.1807  0.1224
 6701W        W49692  22.320   4.878  16.873  0.0731 -0.0854  0.1362
 6702W        W49693   4.295   9.454  19.064  0.0214  0.1119  0.0581
 6703W        W49694  26.561   7.386  18.712 -0.0588 -0.3702  0.0251
 6704W        W49695   0.178  15.718   3.951  0.0053  0.1353  0.2657
 6705W        W49696   9.915   4.872  27.475 -0.0199  0.0920  0.0913
 6706W        W49697   8.165  25.251  20.447  0.1877 -0.0167 -0.0505
 6707W        W49698   3.101   8.254   5.463 -0.0941  0.1501  0.0283
 6708W        W49699  27.712  32.326   3.327 -0.0690 -0.0980 -0.0473
 6709W        W49700   4.161  29.114  24.920  0.3205  0.1302 -0.0186
 6710W        W49701  15.579  32.711   3.268 -0.0194  0.3372  0.3490
 6711W        W49702  32.733  16.916  16.501 -0.1890  0.1802 -0.3538
 6712W        W49703  33.971  30.203  23.599  0.3069  0.2954 -0.3918
 6713W        W49704  33.472  27.183  17.534 -0.1790  0.0117  0.0928
 6714W        W49705  16.469  26.283  28.203 -0.2227  0.1783 -0.1467
 6715W        W49706  34.085  27.185  21.419  0.1750 -0.0953 -0.2963
 6716W        W49707   2.392   0.373  20.009 -0.2229  0.1227  0.3998
 6717W        W49708   0.231   7.658  22.124  0.5065  0.1535 -0.1556
 6718W        W49709  14.261  31.389  27.806  0.0946 -0.1394 -0.1058
 6719W        W49710   0.835  29.330  28.862  0.4375 -0.0854 -0.0648
 6720W        W49711  22.408   4.891  28.771  0.2299  0.0715 -0.1341
 6721W        W49712   4.926  30.966   7.446 -0.0493  0.1941  0.0900
 6722W        W49713  16.176   4.389  24.385 -0.0028 -0.0734  0.0160
 6723W        W49714  30.498   0.440   5.615  0.4014 -0.0893  0.2147
 6724W        W49715  26.826   7.813  26.589  0.0622  0.2656 -0.0236
 6725W        W49716  29.870   5.477  19.226  0.1516 -0.1422 -0.0731
 6726W        W49717  16.831  29.622  22.925  0.4989  0.1809  0.1829
 6727W        W49718  27.074   1.484   2.363  0.0620 -0.2586 -0.2623
 6728W        W49719   9.806  14.008  21.015 -0.2648  0.1277  0.2934
 6729W        W49720   7.856  32.655   7.034 -0.1481 -0.0437  0.0261
 6730W        W49721   0.652   3.890   0.860 -0.0953  0.0407 -0.0576
 6731W        W49722  13.831  31.120  16.395 -0.0186 -0.0662 -0.2582
 6732W        W49723  25.374   6.794   4.150  0.2091 -0.0311 -0.0252
 6733W        W49724   1.045  10.437  28.470  0.0094  0.2586 -0.0414
 6734W        W49725   4.523  25.849   8.028  0.0955  0.1694  0.0198
 6735W        W49726  15.402  13.351  17.070 -0.0845  0.1097 -0.0026
 6736W        W49727  21.461  13.385  25.757 -0.2640  0.0583 -0.2262
 6737W        W49728   4.455  11.635  26.681 -0.1708 -0.3299 -0.1105
 6738W        W49729  25.852   4.410   7.081  0.1551 -0.2775  0.2604
 6739W        W49730   4.289   3.309  23.734  0.2126 -0.4305 -0.1589
 6740W        W49731  11.694  10.471  23.755 -0.0269 -0.0755  0.1221
 6741W        W49732   6.144   9.722  28.461 -0.1013 -0.0768  0.3002
 6742W        W49733  32.833   6.932  16.466 -0.1749  0.2464  0.0163
 6743W        W49734   8.599   6.889   9.225 -0.2501 -0.0984 -0.1804
 6744W        W49735   8.229  30.898  16.281  0.2045  0.0018  0.3319
 6745W        W49736   0.858  12.915  27.376 -0.0092 -0.2447  0.1299
 6746W        W49737   1.179  12.713  18.981  0.0201  0.0837  0.0108
 6747W        W49738  30.712  14.309  28.006 -0.0968  0.4187  0.3491
 6748W        W49739  33.289   2.361  15.746 -0.2232 -0.0498 -0.0949
 6749W        W49740  12.959   0.473   6.417 -0.1036 -0.0160  0.0602
 6750W        W49741  23.881  33.228  29.059 -0.0377  0.2298  0.0061
 6751W        W49742  32.460  16.848   1.482 -0.2102 -0.2628 -0.2389
 6752W        W49743  24.851  25.815  15.370  0.1301  0.2254 -0.4032
 6753W        W49744   1.074   3.962   6.931  0.2404  0.1073  0.0515
 6754W        W49745   0.101  34.050  13.454  0.1797  0.3209  0.3073
 6755W        W49746  32.031  33.413  13.529  0.0701  0.0787  0.1179
 6756W        W49747  27.331   1.666  13.555 -0.1808 -0.0636  0.0520
 6757W        W49748  26.245   3.282  23.137 -0.1348 -0.0475  0.0166
 6758W        W49749   9.379  33.673  18.312  0.1758 -0.2312 -0.0959
 6759W        W49750  32.837  25.765  22.789  0.3105  0.1578  0.0109
 6760W        W49751   8.796  26.327  23.637  0.0090 -0.0538 -0.0251
 6761W        W49752  24.128  26.992  14.634 -0.1115  0.1060 -0.0295
 6762W        W49753  34.127   6.388  18.171 -0.0155  0.1784 -0.0705
 6763W        W49754  14.445  29.932  19.712  0.0460 -0.3609  0.1133
 6764W        W49755  28.255  32.364  27.757  0.1398 -0.0958  0.0961
 6765W        W49756  16.901  26.857  22.936  0.2074 -0.2104 -0.2031
 6766W        W49757   8.443  10.158  16.813  0.2168  0.0769  0.5061
 6767W        W49758  28.425   8.801   5.962  0.0374 -0.0558  0.2652
 6768W        W49759  21.652  12.504   6.448  0.0941 -0.0927  0.0012
 6769W        W49760   6.596  31.247  18.178 -0.1854  0.1240 -0.1159
 6770W        W49761   0.036   5.307  15.666  0.1189 -0.0750  0.0443
 6771W        W49762  28.787   8.025  14.575  0.0100  0.2093  0.0389
 6772W        W49763  10.505   1.796   0.853 -0.0429  0.0003  0.2533
 6773W        W49764  24.900  34.303   0.006 -0.0688 -0.1079 -0.0416
 6774W        W49765  10.703  11.852   3.541 -0.0150 -0.1700 -0.2915
 6775W        W49766  17.212   3.382  23.855  0.2882 -0.2579  0.1313
 6776W        W49767  15.211   7.568  20.525  0.2236  0.1133 -0.0559
 6777W        W49768  34.488  26.968   1.298  0.3694  0.2540  0.0117
 6778W        W49769   5.136  12.187  28.204 -0.1974 -0.0048  0.0810
 6779W        W49770  10.460   6.724  28.602 -0.0726 -0.1439  0.1928
 6780W        W49771  18.028  20.909  21.966 -0.1119 -0.0732  0.0614
 6781W        W49772  29.496   7.288   3.483  0.0762  0.2993  0.0018
 6782W        W49773   7.029  29.522  14.423  0.1716  0.0092  0.1761
 6783W        W49774  32.785  19.421  16.560  0.0144  0.1967 -0.1189
 6784W        W49775   6.155  24.166   2.556  0.1234  0.1374  0.1341
 6785W        W49776   1.954   2.157  28.040  0.3178 -0.0131  0.2894
 6786W        W49777   9.156  28.270  27.409 -0.2589 -0.2917 -0.0267
 6787W        W49778  28.084   9.542  19.662 -0.0405  0.1538  0.3000
 6788W        W49779  23.370  18.019  28.268 -0.0870  0.5310  0.0092
 6789W        W49780  24.450  29.582  19.716 -0.2675 -0.0446 -0.1714
 6790W        W49781  25.047  10.613  21.991  0.0269  0.1520 -0.0201
 6791W        W49782   3.631  17.249  22.106  0.2689  0.1928  0.0434
 6792W        W49783   7.634  14.564   9.014  0.0868  0.1531 -0.2926
 6793W        W49784  25.921   8.233   0.874 -0.4830 -0.1717  0.1709
 6794W        W49785  11.822   8.737  24.108  0.1958  0.0322  0.0310
 6795W        W49786   3.673  25.443  22.385  0.0158  0.1744 -0.3527
 6796W        W49787  10.865  10.183   1.655 -0.0795  0.0829 -0.1514
 6797W        W49788  22.187  24.403  23.843  0.3769  0.2807  0.0491
 6798W        W49789  34.229  10.812  10.556  0.0565 -0.1105  0.2551
 6799W        W49790   6.077  19.965   2.106 -0.2476  0.1926 -0.2676
 6800W        W49791  28.381  11.048   1.728 -0.2101 -0.1477  0.1058
 6801W        W49792  23.458   4.003  20.537  0.1835  0.0958  0.2201
 6802W        W49793  16.322   3.687  25.802 -0.1049  0.1409 -0.2205
 6803W        W49794  30.193  16.001  17.296  0.0260  0.1403  0.4097
 6804W        W49795   4.756   9.432   6.221  0.0830  0.0096 -0.0630
 6805W        W49796   0.163  33.446  14.163 -0.0871  0.1362  0.0214
 6806W        W49797  25.484  24.320   1.068  0.0211 -0.2257  0.1217
 6807W        W49798   0.356  11.999  24.288  0.0283  0.2636  0.0325
 6808W        W49799  31.022  26.932   4.117 -0.1530 -0.3551 -0.1846
 6809W        W49800  27.216  10.909   9.973  0.4100  0.5921  0.0509
 6810W        W49801   5.019  14.128  26.637 -0.0375  0.0101  0.2247
 6811W        W49802  31.282  25.626   8.076  0.1165  0.0271 -0.2158
 6812W        W49803  34.071  34.792   3.331  0.2598  0.2073 -0.1638
 6813W        W49804  32.607  23.994   8.356 -0.4074 -0.1067  0.1110
 6814W        W49805  27.003   8.564  15.274 -0.1290 -0.0838  0.0638
 6815W        W49806   3.293   4.301  17.935  0.0121 -0.2169 -0.1361
 6816W        W49807  28.601  31.653   1.892  0.1508 -0.1107 -0.1505
 6817W        W49808   9.340   7.962  25.377 -0.4118  0.1710  0.1258
 6818W        W49809   0.923   5.638   2.556  0.1250  0.1220 -0.0591
 6819W        W49810  24.762  26.721  16.694  0.3083  0.0059 -0.1387
 6820W        W49811   4.025  26.002  25.108 -0.2134  0.4320  0.0010
 6821W        W49812   0.579  32.599  17.437 -0.1899  0.1192  0.0352
 6822W        W49813  27.714  20.646  15.252 -0.0858  0.0243  0.1677
 6823W        W49814   1.934  32.959   0.162  0.0335  0.0223  0.0376
 6824W        W49815  17.436  30.437   9.068 -0.0158 -0.1687  0.0407
 6825W        W49816  15.432   7.858  19.564 -0.3577 -0.5303 -0.1331
 6826W        W49817   1.897  15.537  19.464 -0.2065  0.1032 -0.3878
 6827W        W49818  14.569  26.794   3.694  0.0801  0.0729 -0.0494
 6828W        W49819  19.402  10.800  28.969 -0.1021  0.0500  0.1830
 6829W        W49820   7.338  12.124  17.214 -0.0587  0.0717  0.1264
 6830W        W49821  15.919   6.773  26.703 -0.1043  0.1422  0.0553
 6831W        W49822  18.400  32.276   5.354 -0.0248 -0.0711  0.1483
 6832W        W49823  26.016  18.401   8.751  0.1598  0.1274 -0.0259
 6833W        W49824   7.797  16.035  23.636  0.1159  0.4756  0.1762
 6834W        W49825   9.810  26.278  24.432  0.2370  0.1394  0.3712
 6835W        W49826  12.225  11.973   5.361  0.0303 -0.0912  0.2285
 6836W        W49827   3.910  14.643   8.653  0.0133  0.1377  0.2788
 6837W        W49828   7.451  18.347  16.502 -0.2601 -0.4682  0.3545
 6838W        W49829  12.832  28.321  27.094  0.2547 -0.1073  0.2762
 6839W        W49830  27.791  11.332  15.413  0.1307  0.0127 -0.1472
 6840W        W49831  28.666  13.995  16.683 -0.1937  0.0571  0.1820
 6841W        W49832  28.858  17.945  16.677  0.4188 -0.1316  0.4357
 6842W        W49833  33.894   2.456  26.586 -0.1146 -0.1178  0.3306
 6843W        W49834  18.700  33.700  28.788 -0.0719  0.0755  0.0671
 6844W        W49835   7.655  32.563   8.974 -0.0302 -0.3630 -0.0157
 6845W        W49836   0.501   7.148  16.431 -0.1133 -0.1902 -0.0231
 6846W        W49837   5.829   3.539   9.019  0.0789 -0.0194 -0.0091
 6847W        W49838  32.535   1.301  29.128 -0.1417  0.1148  0.3212
 6848W        W49839   3.254   6.239   5.680  0.1214  0.0618  0.0986
 6849W        W49840  11.873   0.527   8.458 -0.0025  0.0325  0.1550
 6850W        W49841   0.581   0.971  16.035 -0.0301  0.1623  0.0039
 6851W        W49842  14.453  10.390   1.361 -0.1433 -0.3697  0.2011
 6852W        W49843  29.639   8.070  17.228  0.1272  0.1540 -0.2972
 6853W        W49844  30.086  25.066  14.953  0.0471  0.0463 -0.3091
 6854W        W49845   0.188  14.163  28.444  0.0437  0.1131 -0.1139
 6855W        W49846   9.581  21.962  19.046  0.1274  0.0229 -0.0503
 6856W        W49847  13.703  20.144  19.756 -0.0803  0.1247 -0.3911
 6857W        W49848  30.388   2.767  14.743  0.0181  0.0378 -0.1968
 6858W        W49849  13.822  22.732   3.962 -0.0866 -0.4516  0.2914
 6859W        W49850   7.351   1.791   1.097 -0.1615  0.1879 -0.0792
 6860W        W49851   4.923  30.390  19.801  0.3168  0.0251  0.0142
 6861W        W49852  10.975  27.132   9.185  0.0431  0.0972  0.2108
 6862W        W49853   7.960  31.817  25.444 -0.1739  0.2144  0.1597
 6863W        W49854   8.201   4.036   3.383  0.0762  0.0234  0.0913
 6864W        W49855   1.841   1.036   6.842  0.3626 -0.0739  0.0946
 6865W        W49856  21.238   3.784  23.692  0.0539  0.1067  0.0771
 6866W        W49857  18.524  21.618  17.628 -0.0023  0.1100 -0.4145
 6867W        W49858  26.555   1.178  23.256  0.0175 -0.0470  0.0389
 6868W        W49859  25.405  11.607  14.338  0.0442 -0.0996  0.4268
 6869W        W49860  18.627  34.529  24.269  0.1284 -0.0310  0.0300
 6870W        W49861  32.324   2.360  26.052  0.0729  0.1268 -0.1235
 6871W        W49862  28.333   3.299   4.497 -0.2636 -0.2144  0.0751
 6872W        W49863  27.604   6.452   1.039  0.1061 -0.4663 -0.0208
 6873W        W49864  21.010  21.671  25.839 -0.3054  0.0276 -0.0693
 6874W        W49865  31.322  10.518  20.763 -0.0949  0.3587 -0.0867
 6875W        W49866  20.878   7.566  27.807  0.1411 -0.0610 -0.1344
 6876W        W49867   6.991  10.317   3.210 -0.3208  0.0918 -0.0999
 6877W        W49868   9.714   8.940   2.420  0.2648  0.0905  0.1161
 6878W        W49869   3.329  34.189   2.222 -0.0836 -0.0437  0.2692
 6879W        W49870  27.506   7.564  18.779 -0.1163 -0.0135  0.1845
 6880W        W49871   5.553   0.693   2.357  0.1909 -0.0837  0.1415
 6881W        W49872  30.682   8.969  17.089 -0.1551  0.0802  0.2125
 6882W        W49873  29.338   9.072   9.855  0.0699 -0.0518 -0.0178
 6883W        W49874   8.643   1.030   9.546  0.2865  0.4277  0.0116
 6884W        W49875  32.995   1.795   6.082  0.0135 -0.3496 -0.3125
 6885W        W49876  23.030   8.372  28.498 -0.0181  0.2482 -0.1937
 6886W        W49877  23.572  10.912  25.734 -0.2953 -0.0606 -0.1630
 6887W        W49878  31.213   1.108  29.196  0.1716 -0.0196  0.0273
 6888W        W49879  12.631   4.821  25.653  0.1941 -0.0600 -0.0515
 6889W        W49880  31.104  17.186  28.924  0.0548 -0.2808 -0.3340
 6890W        W49881  31.180   1.783   4.759 -0.0566 -0.0817 -0.2134
 6891W        W49882  29.713  10.120  14.426  0.1028 -0.0757 -0.0626
 6892W        W49883   0.114   7.268  18.764  0.0797  0.2099 -0.2885
 6893W        W49884  27.219   3.641  18.075 -0.3059 -0.0780 -0.0314
 6894W        W49885   1.649   3.873  20.774 -0.0635  0.2631 -0.1782
 6895W        W49886  30.917  11.036  23.778 -0.1048 -0.3337  0.2166
 6896W        W49887  14.343   6.926   8.927  0.1203  0.0756  0.0073
 6897W        W49888  11.563  11.563  21.443  0.2057 -0.0152  0.1215
 6898W        W49889  34.646   3.498  16.838 -0.1461  0.0205 -0.0196
 6899W        W49890  22.983   7.074  21.475  0.0723  0.0721  0.0585
 6900W        W49891   5.791  27.460   1.291 -0.0460 -0.1686 -0.2644
 6901W        W49892   5.366   4.955  20.346  0.0150 -0.4753  0.1559
 6902W        W49893  11.063  23.846  16.818  0.0560 -0.1057 -0.1427
 6903W        W49894  29.526  13.977   1.700  0.0405 -0.0462  0.2687
 6904W        W49895  22.904  28.321   0.196  0.0460  0.2841 -0.2897
 6905W        W49896   6.873  27.207  14.635 -0.1282 -0.4073  0.1213
 6906W        W49897   1.191  18.534  24.383  0.1267  0.4593  0.1050
 6907W        W49898   9.046   6.103   4.310 -0.1295  0.2223  0.0224
 6908W        W49899   5.258   6.204   6.831 -0.0138 -0.0897 -0.0194
 6909W        W49900  12.061  19.664   5.899 -0.2875  0.0356  0.1641
 6910W        W49901  27.355  21.017  20.680 -0.0286 -0.0143  0.0011
 6911W        W49902  26.736   3.239  23.010  0.2990  0.0298  0.1061
 6912W        W49903   4.106  20.209  20.739  0.1475  0.0672 -0.3267
 6913W        W49904  22.411  17.757  23.059  0.0408 -0.0340  0.1299
 6914W        W49905  30.880   2.785  22.656  0.0126 -0.0450  0.0217
 6915W        W49906  19.225  10.288  22.702 -0.0138  0.2165 -0.0070
 6916W        W49907   5.484   5.547   1.564  0.2636 -0.0409  0.0324
 6917W        W49908  34.351  24.878  26.543 -0.4240  0.1296  0.1685
 6918W        W49909   7.416   9.275  15.376 -0.2822 -0.0347  0.0338
 6919W        W49910   1.110  31.213   4.899 -0.2382  0.1038 -0.1255
 6920W        W49911  33.847  23.408  28.767  0.0906 -0.0259 -0.0372
 6921W        W49912  19.515  33.660   3.041  0.1897 -0.0930  0.0758
 6922W        W49913  33.452  20.826  27.771  0.0941 -0.0800  0.0679
 6923W        W49914   9.518  17.173  25.032  0.2053 -0.0947  0.0239
 6924W        W49915   3.510   8.370  23.016  0.0422  0.1109  0.4059
 6925W        W49916  31.738   6.711  26.531  0.0964  0.2829  0.3497
 6926W        W49917  13.582   5.311  28.812  0.0481  0.0534  0.4341
 6927W        W49918  10.857  27.245   1.694  0.3143 -0.2914 -0.2099
 6928W        W49919  31.500   7.729  27.735  0.2708 -0.1045 -0.0587
 6929W        W49920  31.954  15.076  25.987 -0.0301 -0.0144  0.1143
 6930W        W49921   3.582  12.089  24.534 -0.0772 -0.2407  0.1942
 6931W        W49922  14.171   7.383  29.002 -0.1620 -0.1950 -0.0466
 6932W        W49923  31.903  23.754   0.673 -0.0927 -0.0916  0.0550
 6933W        W49924  33.003  15.411  22.231  0.0070  0.1125  0.0990
 6934W        W49925  31.191  10.297  22.805 -0.2844 -0.1564 -0.0380
 6935W        W49926  22.656   2.302  20.696  0.0202 -0.1008  0.1470
 6936W        W49927  34.585  10.472  29.234  0.2343  0.0911  0.0613
 6937W        W49928  15.909   9.704  25.790 -0.0325 -0.4303  0.1801
 6938W        W49929  34.144   6.502   3.696 -0.3280 -0.2084 -0.3505
 6939W        W49930  14.849  11.196  24.872 -0.0321 -0.3106 -0.0940
 6940W        W49931  25.017   4.235   6.924  0.2498 -0.1915 -0.2081
 6941W        W49932   2.512  29.533  26.542 -0.5025  0.0059 -0.1586
 6942W        W49933  29.768   5.718   3.593  0.6056  0.0003 -0.2210
 6943W        W49934  12.889  13.840  23.963 -0.1266 -0.1758  0.0337
 6944W        W49935  24.981   2.385   8.534  0.5128 -0.0377 -0.2110
 6945W        W49936  20.759   7.375  29.207 -0.0162  0.3173  0.1208
 6946W        W49937  19.983   0.612  17.695  0.2554 -0.1529  0.1903
 6947W        W49938   9.222   5.979   8.670 -0.0484  0.0551 -0.1245
 6948W        W49939   7.240   0.736  21.237 -0.1689  0.1455 -0.1184
 6949W        W49940  22.866   0.968  16.035 -0.2220  0.0087 -0.4285
 6950W        W49941  31.161  34.792   0.719 -0.0447 -0.1491  0.4000
 6951W        W49942   8.191  29.924  23.633  0.3219 -0.1745 -0.2076
 6952W        W49943  28.526  26.678  15.910 -0.1370  0.0351  0.1549
 6953W        W49944  33.684  23.318  26.464 -0.1078 -0.1306  0.0303
 6954W        W49945  15.601  11.027  23.774  0.2799 -0.0388  0.0369
 6955W        W49946  15.445  10.604  23.032  0.3080  0.4846  0.1684
 6956W        W49947  26.081   0.222   8.379 -0.2086  0.2620 -0.1580
 6957W        W49948   2.918   7.262   0.304 -0.0635 -0.0404  0.2346
 6958W        W49949   5.402  17.241  29.113 -0.0421 -0.2214  0.2406
 6959W        W49950   2.908   8.696  18.525  0.2256 -0.0337  0.1927
 6960W        W49951  26.246  18.266  21.967 -0.3734 -0.1186  0.0629
 6961W        W49952  29.079   1.315   5.734  0.0375  0.2087 -0.2923
 6962W        W49953   7.479   2.037   4.230 -0.0185  0.0317 -0.2455
 6963W        W49954  33.348  33.768  28.918 -0.3124 -0.3504 -0.2107
 6964W        W49955  31.051  16.319  21.603 -0.1047  0.1060  0.1283
 6965W        W49956   7.791  21.275  21.247  0.1681  0.0649  0.0933
 6966W        W49957   0.478  28.420  14.630 -0.3643  0.3705 -0.0600
 6967W        W49958  17.224  31.000   6.465 -0.1443 -0.0665 -0.0576
 6968W        W49959  23.077  33.701  28.734 -0.0504 -0.3243  0.0624
 6969W        W49960  11.769   4.234  17.620  0.1485  0.1428 -0.0807
 6970W        W49961  34.506   8.660  26.922  0.0055 -0.2745 -0.1131
 6971W        W49962   6.065  10.588  20.570  0.1411  0.0269  0.0008
 6972W        W49963  26.088  28.229   2.050 -0.1210  0.1928 -0.1090
 6973W        W49964  15.640   9.804  24.809  0.0775  0.0452  0.0244
 6974W        W49965   2.236   7.700   3.794  0.1336 -0.2909  0.1792
 6975W        W49966   2.069  17.411  10.357 -0.1979 -0.2258 -0.0060
 6976W        W49967  12.716  28.275  14.201  0.1001  0.0097  0.0042
 6977W        W49968  22.696  26.805   8.243 -0.0583 -0.1969  0.2265
 6978W        W49969  22.534   3.858   0.919  0.1253 -0.1325  0.2594
 6979W        W49970  21.632  14.373   1.434 -0.0954 -0.2830  0.3722
 6980W        W49971  11.965   2.428   1.283  0.0091 -0.1769 -0.3131
 6981W        W49972   2.540   4.311  26.673  0.3137 -0.1959 -0.1435
 6982W        W49973   3.513  10.274   8.372  0.5503 -0.2894 -0.2200
 6983W        W49974  16.784  34.134   1.896 -0.1979 -0.2442  0.1085
 6984W        W49975   7.749  26.882  18.958  0.1121  0.0351 -0.0263
 6985W        W49976   6.392  10.797  22.711 -0.1859 -0.1230  0.1270
 6986W        W49977   7.085  33.404  28.329  0.4347 -0.0995 -0.0615
 6987W        W49978  33.499  26.480  23.533 -0.2291 -0.0152 -0.2404
 6988W        W49979   6.473  28.895   4.261  0.2352  0.2062 -0.0417
 6989W        W49980   3.976   5.477  20.087 -0.0306 -0.0274 -0.0420
 6990W        W49981  34.007  29.096   0.540  0.0280 -0.1221 -0.2828
 6991W        W49982  20.749  34.748  27.168  0.2022 -0.0302 -0.2888
 6992W        W49983  16.345   2.421  24.371  0.2003 -0.0415 -0.4101
 6993W        W49984  15.621  32.491  20.912 -0.0076  0.2686 -0.4047
 6994W        W49985   4.810  34.100  17.084 -0.0658 -0.0340 -0.1492
 6995W        W49986  16.336  33.179   6.078  0.0834 -0.3852 -0.0635
 6996W        W49987   8.162   9.798   4.271  0.1131 -0.1798  0.2446
 6997W        W49988  21.381  24.581   2.397 -0.1230  0.0795  0.1145
 6998W        W49989   9.490   5.569  23.487 -0.1991  0.0149 -0.0286
 6999W        W49990  28.947   5.708  10.211  0.2316 -0.0107 -0.1396
 7000W        W49991  33.867   4.697  25.879 -0.0605  0.2439 -0.2984
 7001W        W49992  31.597  32.010   5.042  0.2595  0.1927  0.0215
 7002W        W49993   6.593  27.854   6.069  0.1819 -0.1853 -0.0416
 7003W        W49994  29.197  33.027   8.447  0.0654  0.0638  0.0617
 7004W        W49995  17.155  12.313  24.711  0.1505 -0.4444  0.1807
 7005W        W49996   1.043   3.176   0.104 -0.2245 -0.3461  0.1044
 7006W        W49997  31.187   6.959  27.416 -0.2426  0.1205  0.2731
 7007W        W49998   2.078  32.087  14.193  0.0036 -0.1351 -0.1453
 7008W        W49999  16.766  22.542  21.292  0.0296  0.0868 -0.1193
 7009W        W50000   8.592  29.865  27.416  0.1147  0.0945 -0.0176
 7010W        W50001  14.834  17.556  23.557 -0.1751  0.2666  0.0128
 7011W        W50002  16.931   0.002  20.204  0.2464  0.1780  0.1490
 7012W        W50003   1.887  11.092   4.181 -0.2303  0.0607  0.2651
 7013W        W50004   4.723   9.940  26.089 -0.0888 -0.1641 -0.2090
 7014W        W50005  33.383  23.810  27.993  0.4957  0.3171  0.1074
 7015W        W50006   0.434  20.890   3.969  0.1421 -0.0622  0.1603
 7016W        W50007  18.722  24.890   8.590 -0.1356  0.0825  0.0234
 7017W        W50008   2.720  25.616  22.310  0.1208  0.1091 -0.0711
 7018W        W50009   1.400  30.590  23.490  0.1784  0.0431  0.1134
 7019W        W50010   4.497  10.602  15.956  0.1501  0.1014 -0.1081
 7020W        W50011  28.360  16.578  27.292  0.1828 -0.0801  0.0214
 7021W        W50012  27.111   7.868  23.090  0.0032 -0.0676  0.2796
 7022W        W50013  28.459  17.958   0.973  0.2660 -0.1218  0.3204
 7023W        W50014   4.933  33.473   9.188  0.0942  0.3113  0.1068
 7024W        W50015  32.338  33.754  21.793 -0.0197 -0.2081 -0.0177
 7025W        W50016  11.767   1.171   4.603 -0.1693  0.0372 -0.2022
 7026W        W50017  16.242  21.803  26.331 -0.0110  0.1171  0.3113
 7027W        W50018  26.148   5.094   3.926 -0.0877  0.0448  0.2872
 7028W        W50019  27.539   8.106  22.295 -0.3930 -0.2986 -0.2936
 7029W        W50020   3.418   9.756  29.237  0.0601  0.0921  0.0504
 7030W        W50021   7.405  11.428   1.251  0.1510  0.1010 -0.1551
 7031W        W50022  15.970   9.673  27.640  0.1011  0.0825 -0.0224
 7032W        W50023  20.629  32.511   1.412  0.1865 -0.3643  0.0299
 7033W        W50024  22.718   8.061   0.584  0.1303  0.1269 -0.0400
 7034W        W50025   3.074  34.441  17.998  0.0573  0.0422 -0.1161
 7035W        W50026   6.304  10.053  19.073  0.1490 -0.3056 -0.0502
 7036W        W50027  15.588  14.783  24.210 -0.1341  0.0115  0.0631
 7037W        W50028  22.591  25.862  22.482 -0.0281 -0.0117 -0.1002
 7038W        W50029   7.565  21.783  17.704  0.1191 -0.0976 -0.0312
 7039W        W50030  32.686  24.615   5.262  0.1681 -0.2005  0.1631
 7040W        W50031  32.812  33.107  26.466  0.2680 -0.5315  0.2198
 7041W        W50032   2.017   4.252  23.427  0.0954 -0.2553 -0.1706
 7042W        W50033  29.794  34.189   2.648 -0.0138  0.0461  0.0925
 7043W        W50034  12.948  20.288   9.333  0.1081  0.0833 -0.1830
 7044W        W50035   8.610   2.527   4.160 -0.1496 -0.0726  0.0718
 7045W        W50036   7.451   9.961  20.572  0.1011 -0.0188 -0.1944
 7046W        W50037  11.135  30.721  21.578 -0.2989  0.0207  0.0381
 7047W        W50038  33.847  32.062   9.110 -0.3796  0.0438 -0.3406
 7048W        W50039  31.952  10.430   0.225  0.0294 -0.2059 -0.2012
 7049W        W50040   0.193  24.138  20.789 -0.3228 -0.0531 -0.1189
 7050W        W50041  10.341  24.355  28.403 -0.0259  0.1768  0.0194
 7051W        W50042  16.106  30.992   8.771  0.0574 -0.0188 -0.0057
 7052W        W50043  11.941   0.100   6.629  0.1372  0.2283 -0.1545
 7053W        W50044  25.884  31.084   4.337 -0.0258 -0.2013  0.2210
 7054W        W50045  13.976  30.286  23.717 -0.1435  0.0612 -0.1590
 7055W        W50046   7.281   3.708   4.704 -0.2955 -0.0326  0.1162
 7056W        W50047  33.855  19.242  24.409  0.0157  0.0648  0.0853
 7057W        W50048  11.433  34.636   6.254  0.0339 -0.0788  0.2184
 7058W        W50049  20.121   8.421   1.700  0.1510 -0.1050 -0.1075
 7059W        W50050  33.393   7.240  24.382 -0.2324 -0.1892  0.0461
 7060W        W50051  24.962  13.748  17.193 -0.0767  0.1524 -0.0909
 7061W        W50052  17.216   5.693  19.388 -0.0113 -0.0533  0.1520
 7062W        W50053   6.898  13.296   4.575  0.1084 -0.1709 -0.2654
 7063W        W50054  16.288  33.814  27.022  0.0415 -0.3299 -0.1008
 7064W        W50055   3.367   2.830  29.008  0.1769  0.0726 -0.1511
 7065W        W50056   4.444   6.480   7.460  0.3360  0.0031 -0.1720
 7066W        W50057  16.790  33.138   2.731  0.3796  0.2862 -0.1148
 7067W        W50058  32.850  31.212   1.527 -0.1323  0.1070  0.0404
 7068W        W50059   9.842   3.207  28.034 -0.1021  0.2280  0.0184
 7069W        W50060  30.685   1.156  17.101  0.1122 -0.2433  0.1551
 7070W        W50061  15.122  25.699  14.291 -0.2314  0.0658  0.2068
 7071W        W50062   8.789  24.752  17.089  0.0367  0.0218 -0.1491
 7072W        W50063  25.897  16.595   8.276 -0.0003 -0.2345  0.2271
 7073W        W50064   7.108  29.643  18.614  0.0528 -0.1138  0.1156
 7074W        W50065   6.476  18.018  27.469 -0.2690  0.0583 -0.1564
 7075W        W50066   4.013  10.716  11.066  0.0969 -0.2421  0.0705
 7076W        W50067   8.491  28.856  17.623  0.1915  0.0189 -0.4067
 7077W        W50068   0.632   5.559   0.212 -0.1589 -0.1993 -0.1978
 7078W        W50069   6.158  16.300  15.140 -0.0411  0.2079  0.1627
 7079W        W50070   5.322   5.108   9.834  0.0068  0.0727 -0.4321
 7080W        W50071  11.087  15.895   3.564 -0.3640  0.1232  0.0237
 7081W        W50072  33.042  15.200  27.419 -0.0599  0.1113 -0.0519
 7082W        W50073  34.009   4.350  20.526 -0.1233 -0.1294 -0.0973
 7083W        W50074  16.787   2.166   0.262  0.2773 -0.4149  0.2928
 7084W        W50075  33.327  14.187   3.332 -0.1166 -0.1219  0.1315
 7085W        W50076   2.653   5.426  20.901  0.2596 -0.1805 -0.1219
 7086W        W50077  33.857   4.313  21.027  0.1523 -0.0536  0.1185
 7087W        W50078   1.381   2.959  28.461  0.0712  0.1258 -0.1568
 7088W        W50079   0.867  15.513   1.601 -0.4751 -0.1662 -0.3299
 7089W        W50080  34.711  28.221  24.361 -0.0571  0.2629  0.0391
 7090W        W50081  21.937  29.008  25.417 -0.1924 -0.0154 -0.1151
 7091W        W50082  10.805   2.320  21.454 -0.3733  0.1317  0.0926
 7092W        W50083  16.069  25.014   1.384 -0.0455 -0.0446  0.1994
 7093W        W50084   4.595  13.636  18.208 -0.0854  0.1597  0.0785
 7094W        W50085  29.766   9.660  27.100 -0.2960 -0.6020 -0.1645
 7095W        W50086   9.502   7.723  24.887 -0.1046  0.5162 -0.3138
 7096W        W50087  33.202  16.502  22.990  0.1745 -0.0994  0.1549
 7097W        W50088  29.778   1.151   4.315  0.1438 -0.0489 -0.1143
 7098W        W50089   4.441   5.782   3.165 -0.0940 -0.2381 -0.3032
 7099W        W50090  31.187   1.289  15.835 -0.1134 -0.1664 -0.0785
 7100W        W50091  30.104  31.997  17.485 -0.2230  0.1624  0.2431
 7101W        W50092  27.511  33.694  17.428  0.2737 -0.0213 -0.2002
 7102W        W50093  33.264   9.177  24.615 -0.0643  0.2604 -0.0507
 7103W        W50094  23.345  27.259  25.275 -0.4858 -0.2921  0.2174
 7104W        W50095   2.547   6.269  15.015  0.2324  0.1316 -0.3369
 7105W        W50096  33.144  17.845   3.018 -0.2603 -0.0621  0.1964
 7106W        W50097  12.004   6.555  18.344 -0.2275 -0.0415 -0.2906
 7107W        W50098   2.030  11.307  27.684  0.2021 -0.5242  0.0706
 7108W        W50099   7.967   3.616  19.010  0.1468 -0.2896  0.1476
 7109W        W50100  30.086   9.386   6.940 -0.1433 -0.2764 -0.2510
 7110W        W50101  23.384  20.039  27.126  0.1345 -0.0777  0.0986
 7111W        W50102  33.915   2.778  19.367 -0.1142  0.2473  0.1176
 7112W        W50103   7.838  11.240  18.320 -0.2655 -0.1750  0.1418
 7113W        W50104   0.355  23.099  18.459 -0.3306  0.0988 -0.3887
 7114W        W50105   9.019  17.063   0.202 -0.1594  0.1332 -0.0880
 7115W        W50106  25.691  14.274  26.954  0.0871  0.2071  0.0164
 7116W        W50107  11.594  21.205  24.225  0.0334 -0.0006 -0.2374
 7117W        W50108  25.409  33.081   0.290 -0.3302 -0.0745  0.0254
 7118W        W50109   3.190   8.716  26.139 -0.0835 -0.0451 -0.3629
 7119W        W50110  29.239  20.623  24.579  0.0735  0.1779 -0.1600
 7120W        W50111  12.890   6.145   2.285  0.2391  0.2248  0.1543
 7121W        W50112  14.297  24.125   8.635  0.1990 -0.0063 -0.2602
 7122W        W50113   2.544   4.830   0.280  0.1006 -0.4677 -0.1277
 7123W        W50114  29.389  15.854   6.382 -0.1947 -0.0897 -0.0233
 7124W        W50115  20.996  22.610  27.457 -0.1638 -0.1339  0.2450
 7125W        W50116   9.644  34.466  28.952 -0.0457  0.3042 -0.1956
 7126W        W50117  12.611   6.030  24.015 -0.1422 -0.2903 -0.0413
 7127W        W50118  10.910  27.278   2.188 -0.2019 -0.1335  0.1519
 7128W        W50119  15.069   4.396   4.759  0.2941 -0.1315  0.1142
 7129W        W50120  20.978  12.463  22.183 -0.2720  0.1934  0.1278
 7130W        W50121   3.937   4.310   4.602  0.0445  0.2641  0.0273
 7131W        W50122  11.350  32.388   7.802  0.0827 -0.0429 -0.0669
 7132W        W50123  31.603  18.919   8.547  0.0845 -0.0937  0.3695
 7133W        W50124  10.452  22.883   7.747  0.1213 -0.0680 -0.1940
 7134W        W50125  16.225   4.395  16.537  0.0618 -0.1006  0.0926
 7135W        W50126  28.730   1.748  12.842  0.1720  0.1850 -0.1411
 7136W        W50127   5.498  21.056  16.515 -0.3697 -0.2888  0.1007
 7137W        W50128  33.612   9.768  28.194  0.1564 -0.1441  0.2369
 7138W        W50129  28.742   1.683  17.324 -0.0274 -0.1985  0.1353
 7139W        W50130  25.673  34.202  16.995  0.1300  0.4456  0.1350
 7140W        W50131   9.482  25.541   0.345  0.1197  0.0487  0.2629
 7141W        W50132  13.217   2.790   3.834  0.2558 -0.0144  0.1663
 7142W        W50133  24.877   9.347  21.324  0.2310  0.0214 -0.1052
 7143W        W50134  34.213  20.252  16.706  0.0931 -0.1337 -0.0252
 7144W        W50135  11.376  14.274  19.030  0.2327 -0.0694  0.2231
 7145W        W50136  25.385  26.686  27.303  0.0267  0.2547  0.1310
 7146W        W50137  28.326  19.656   8.625  0.2082 -0.4075  0.1494
 7147W        W50138  10.219   5.219   4.234 -0.4003 -0.1630  0.1732
 7148W        W50139   2.044   2.685  25.722  0.1141  0.2627  0.1610
 7149W        W50140  14.632   5.613  23.751  0.0856  0.1027  0.2785
 7150W        W50141  23.113  12.297   8.636  0.0538  0.4165  0.1063
 7151W        W50142  14.865   4.964   9.663 -0.0890  0.2958  0.0012
 7152W        W50143  34.298   9.637  28.806  0.2855  0.0181  0.3855
 7153W        W50144   7.417  19.974   0.410 -0.0316  0.1858  0.1984
 7154W        W50145   0.196   4.699   5.603 -0.0718  0.0040 -0.0588
 7155W        W50146  19.790   0.784   7.528 -0.1140  0.1269 -0.1151
 7156W        W50147   9.988  13.229   8.414  0.1316 -0.3665 -0.3090
 7157W        W50148  28.627  31.139   4.919 -0.1969  0.0816 -0.1227
 7158W        W50149  29.675  11.368  27.337  0.0362  0.3017  0.2057
 7159W        W50150  12.254   8.090  16.408 -0.1654  0.1595 -0.2746
 7160W        W50151  27.577  20.105  28.038 -0.3103 -0.0165 -0.1708
 7161W        W50152   0.427  28.373  17.582 -0.0892 -0.1737  0.3750
 7162W        W50153  33.637   0.310  20.922 -0.2481  0.0038 -0.0559
 7163W        W50154  34.436   3.113   5.887  0.0328  0.0253 -0.0205
 7164W        W50155  10.604   7.961   0.757 -0.1723  0.0006 -0.0214
 7165W        W50156  29.824   7.320  26.597 -0.0664 -0.1577  0.0541
 7166W        W50157  11.635   9.161  27.199 -0.0054 -0.2429  0.2519
 7167W        W50158  26.061  13.053  28.238  0.0241 -0.4275  0.0197
 7168W        W50159  11.912  16.436  26.106  0.0742 -0.0905  0.1858
 7169W        W50160  27.486   8.038   0.205 -0.1064  0.0413  0.0041
 7170W        W50161  23.806  15.779   6.944  0.1057 -0.0224 -0.3433
 7171W        W50162  30.379  12.341  10.397  0.5337 -0.0476  0.3245
 7172W        W50163  28.240  27.278  13.330  0.3061 -0.1210 -0.1488
 7173W        W50164   7.658   3.969  21.998  0.0501  0.0628 -0.0722
 7174W        W50165  14.353   4.423   0.763 -0.0041 -0.2047  0.0247
 7175W        W50166   4.065  16.000   8.899 -0.0560  0.0372 -0.0669
 7176W        W50167  29.671  22.083  25.846 -0.2281 -0.0697  0.0656
 7177W        W50168   1.469   2.984  10.087 -0.1498 -0.4801  0.0766
 7178W        W50169   0.304   8.574  28.153 -0.1810 -0.4810 -0.0383
 7179W        W50170   0.642   9.566   9.142 -0.1409 -0.0042 -0.2389
 7180W        W50171  24.239  12.393   7.237  0.2290  0.1052 -0.0586
 7181W        W50172   9.574  32.369  23.221  0.0102 -0.0437 -0.0066
 7182W        W50173  27.608   5.881  25.107 -0.0771  0.1880 -0.1516
 7183W        W50174  27.604   9.767   9.651  0.2433  0.1327  0.2398
 7184W        W50175   3.661  14.054   7.549 -0.1945  0.1121  0.0144
 7185W        W50176  32.186  13.669  29.038 -0.2722  0.1419  0.1259
 7186W        W50177  16.153  27.051  21.744 -0.0046 -0.3040  0.4227
 7187W        W50178   7.336  12.228   6.741  0.1424  0.0828 -0.1436
 7188W        W50179  12.211  15.539  28.343 -0.1844 -0.0733  0.2574
 7189W        W50180   4.262  34.336   3.238  0.0769  0.1999  0.1151
 7190W        W50181  19.414  13.055  21.096 -0.0216 -0.3874 -0.2095
 7191W        W50182  11.985   6.609  26.804  0.0930  0.1708  0.1137
 7192W        W50183  20.673   7.652   2.934 -0.1273  0.0050  0.0412
 7193W        W50184  20.262   2.323  25.035  0.0251  0.2137 -0.0892
 7194W        W50185  29.929  28.194  27.518 -0.3181  0.2862 -0.2040
 7195W        W50186  22.365   3.098   9.166  0.1204  0.1228 -0.4363
 7196W        W50187   0.138  17.556   3.164 -0.0519  0.0593 -0.1893
 7197W        W50188  21.485  14.422  22.183 -0.0085 -0.0193 -0.2363
 7198W        W50189  32.896   3.044   1.286  0.2141 -0.0579  0.0008
 7199W        W50190  31.646  13.216  18.633  0.3702 -0.0438 -0.1939
 7200W        W50191  30.096  22.126  22.989 -0.0369 -0.1462  0.1271
 7201W        W50192  33.651  17.298  24.145 -0.0162  0.2883  0.0326
 7202W        W50193  22.427  10.647  19.498 -0.0092 -0.0718  0.1318
 7203W        W50194   1.609  12.004  10.535 -0.0366 -0.0306  0.1002
 7204W        W50195  22.515   7.515  20.686  0.1072 -0.0608 -0.1489
 7205W        W50196   3.634  33.265   7.723 -0.0239  0.2673 -0.0971
 7206W        W50197  17.503  33.709  28.585  0.0027 -0.1004 -0.1178
 7207W        W50198  26.633  32.272   7.716  0.3537  0.1408 -0.1804
 7208W        W50199  26.015  16.366   2.862 -0.2837  0.0563  0.1530
 7209W        W50200   1.490   2.492  25.597 -0.2079  0.2370  0.0936
 7210W        W50201  31.334  31.325  21.479  0.1625 -0.1406  0.2209
 7211W        W50202  28.122  12.756  28.134  0.1645 -0.2943 -0.0278
 7212W        W50203   2.832   0.193  18.977  0.0429 -0.3933  0.2824
 7213W        W50204   3.565   5.396   6.915  0.1431  0.1863  0.0606
 7214W        W50205   5.678   5.614  26.079  0.0224 -0.0944 -0.0849
 7215W        W50206   0.953   6.882  21.487  0.1482 -0.3721  0.0712
 7216W        W50207  33.094  32.644  16.355 -0.2670  0.3306  0.0887
 7217W        W50208  16.263   9.433   3.709 -0.1276 -0.1010 -0.3426
 7218W        W50209  24.215  10.063  16.246 -0.0270 -0.0697 -0.1702
 7219W        W50210  21.494  14.942  13.971  0.0546  0.1776  0.0740
 7220W        W50211   4.718   8.034  18.150  0.0601 -0.1035  0.0170
 7221W        W50212  34.239  14.712  22.653 -0.3913  0.2567  0.2464
 7222W        W50213  20.250  13.527  15.356  0.1171 -0.3066  0.0375
 7223W        W50214   4.119  26.326  15.163 -0.2995 -0.2271  0.0856
 7224W        W50215  31.385  13.354  27.320 -0.0761 -0.0454  0.2906
 7225W        W50216  17.540   7.233  26.258 -0.3370  0.1617  0.1432
 7226W        W50217   6.334  15.851  20.293 -0.2507 -0.0730 -0.1946
 7227W        W50218   7.871   0.377  25.140 -0.0805  0.0405  0.1178
 7228W        W50219  24.850   7.796  19.691  0.0926  0.0098  0.0625
 7229W        W50220  28.922   9.910  22.128 -0.1173 -0.3292  0.1083
 7230W        W50221   8.454   6.956  24.571  0.1023  0.5722 -0.1999
 7231W        W50222  10.140  13.761  25.809 -0.0012 -0.1028  0.1969
 7232W        W50223  24.686   1.533  21.367 -0.0129  0.1319  0.2950
 7233W        W50224   0.395  23.943  22.364 -0.3464 -0.0093  0.1015
 7234W        W50225   9.529  15.345  17.810 -0.2370 -0.2300 -0.1010
 7235W        W50226  34.322   0.169  20.175  0.3814  0.2140 -0.0347
 7236W        W50227  23.439   9.137  20.030  0.0509 -0.2328  0.3464
 7237W        W50228   1.490   1.529  18.526  0.2372 -0.2290 -0.1144
 7238W        W50229  21.488  32.564  21.125 -0.0505  0.0296  0.2908
 7239W        W50230  27.573  10.905  15.759  0.0901 -0.4763  0.0848
 7240W        W50231  15.833  10.111  16.652 -0.1547  0.1976 -0.0280
 7241W        W50232   8.088  13.466  24.637  0.1097  0.1187  0.3540
 7242W        W50233  32.883  34.280  14.085  0.4040  0.2523 -0.0498
 7243W        W50234   4.273   6.327  24.268 -0.0240  0.1185 -0.2616
 7244W        W50235  26.807   4.043  16.415 -0.2982  0.0610  0.1513
 7245W        W50236  33.101  13.880  22.375 -0.2432 -0.1540  0.1109
 7246W        W50237  24.155   2.301  14.717 -0.2043  0.0912 -0.0556
 7247W        W50238  31.913  12.689  22.462 -0.0808  0.2109  0.1540
 7248W        W50239  16.303   0.242  15.064  0.1248 -0.0638 -0.0482
 7249W        W50240  12.154   1.678  14.896 -0.1753  0.0470 -0.2879
 7250W        W50241   9.372   0.640  18.347 -0.0608  0.0676 -0.1867
 7251W        W50242   7.191   7.513  15.265 -0.0339  0.0282  0.0634
 7252W        W50243   5.657  31.213  16.160  0.3636 -0.1571 -0.0298
 7253W        W50244  22.425   0.783  24.487 -0.1725 -0.1698  0.0957
 7254W        W50245  29.718   7.941  26.483 -0.0098 -0.1366 -0.1364
 7255W        W50246   7.430  10.195  22.559 -0.1403 -0.1092  0.1725
 7256W        W50247  11.716   7.655  22.914  0.5009  0.0228 -0.1405
 7257W        W50248  26.915  19.920  27.115  0.1973  0.2082  0.0486
 7258W        W50249  12.162   1.118  19.944  0.1597 -0.1537 -0.2340
 7259W        W50250  28.415   4.071  13.384  0.1875  0.0990  0.0732
 7260W        W50251   8.257  30.273  21.860  0.4678  0.0659  0.2422
 7261W        W50252  20.688  14.372  16.672 -0.2049 -0.1217 -0.0562
 7262W        W50253   2.601   3.474  27.094 -0.0443 -0.0177  0.2923
 7263W        W50254   2.443  14.034  27.736 -0.0069 -0.3492 -0.1870
 7264W        W50255   3.040  11.578  20.285 -0.0704 -0.1742  0.3972
 7265W        W50256  18.072  10.463  22.765 -0.2633 -0.1948  0.1588
 7266W        W50257  13.265  32.860  18.855 -0.1712 -0.1762  0.1922
 7267W        W50258   5.961   8.536  21.299  0.2669 -0.1010 -0.1771
 7268W        W50259   2.595  16.374  27.200  0.3973 -0.0682  0.0318
 7269W        W50260  13.969  13.693  19.890 -0.3390 -0.1357  0.0527
 7270W        W50261  20.774  13.048  27.481 -0.0042 -0.0708  0.0122
 7271W        W50262   1.661  10.568  22.466  0.4195  0.2159  0.0644
 7272W        W50263  27.231   8.531  14.427  0.0618 -0.0282  0.1600
 7273W        W50264  29.786  16.780   7.855  0.3403  0.0297 -0.1532
 7274W        W50265   4.280  24.716  17.955 -0.0920 -0.0360  0.3474
 7275W        W50266   0.616  29.863  17.210 -0.1367 -0.0965 -0.0328
 7276W        W50267   6.714  18.698  16.405 -0.2724 -0.0021  0.1817
 7277W        W50268   2.337   5.650  25.951  0.1180  0.1595 -0.2074
 7278W        W50269  23.025  15.180  19.760  0.1186  0.2166 -0.4421
 7279W        W50270  32.354  34.175  13.885 -0.2515  0.0853  0.1362
 7280W        W50271   8.513   8.036  19.414 -0.0116  0.1149  0.2228
 7281W        W50272  34.680  15.428  18.360  0.1940 -0.1412 -0.2265
 7282W        W50273  32.730   3.763  17.987 -0.0143  0.0944 -0.0725
 7283W        W50274   4.997   7.754  23.018 -0.1460  0.1774  0.0327
 7284W        W50275  12.324  13.632  15.598  0.5109 -0.0797 -0.0119
 7285W        W50276   6.068   5.589  20.370  0.1161 -0.0991  0.0133
 7286W        W50277   1.174   1.136  20.829 -0.4400 -0.2360  0.1855
 7287W        W50278  11.614   7.295   9.476  0.1887 -0.2103 -0.1695
 7288W        W50279  33.767  20.424  20.997 -0.0130 -0.0301  0.0682
 7289W        W50280  30.462  34.455   8.104 -0.0190 -0.2594  0.2395
 7290W        W50281  25.895   7.339  16.969  0.2161  0.0488 -0.2726
 7291W        W50282  23.655  14.731  27.978 -0.3106 -0.1088  0.1267
 7292W        W50283   5.941  34.284   3.101  0.2569 -0.1588 -0.0861
 7293W        W50284  31.629  12.732   5.442  0.0065 -0.1866  0.1558
 7294W        W50285  31.921   8.004  19.074 -0.3110 -0.4096  0.0051
 7295W        W50286   7.514  12.789  21.505  0.2073 -0.1768 -0.2222
 7296W        W50287  30.024   7.475   1.573  0.0413 -0.2109 -0.0206
 7297W        W50288   3.906  26.853  15.160 -0.4224 -0.1173 -0.0637
 7298W        W50289   1.573  16.256  23.465 -0.2753 -0.0901  0.0418
 7299W        W50290  10.726  32.224  19.649  0.0956 -0.2428 -0.0383
 7300W        W50291   6.034  25.486  14.399  0.1605 -0.0014  0.0119
 7301W        W50292  10.538  28.525  18.782  0.3941  0.1590 -0.0150
 7302W        W50293   6.835  32.841  21.045  0.1280  0.0190  0.3880
 7303W        W50294  20.650  12.236  23.466  0.1553 -0.0875 -0.3985
 7304W        W50295   0.655   5.320  22.950  0.0351  0.1192 -0.1193
 7305W        W50296  12.180   6.663  16.262  0.0678  0.0774 -0.1932
 7306W        W50297  26.824   9.487  14.524 -0.1261  0.2740 -0.2458
 7307W        W50298  27.678   4.003  17.384 -0.1802 -0.0089  0.1518
 7308W        W50299  11.675   8.398  20.057  0.2850 -0.1586  0.0818
 7309W        W50300  25.362   1.730  16.193  0.0443  0.0189 -0.0685
 7310W        W50301  22.857  13.392   1.473 -0.6424 -0.1413  0.1587
 7311W        W50302   2.424  15.270  19.430  0.1862 -0.1487  0.2246
 7312W        W50303  25.413  34.045  26.944 -0.2509  0.2104  0.1572
 7313W        W50304   9.711  10.247   4.105  0.2236 -0.0067  0.0043
 7314W        W50305  18.026  29.406  21.855 -0.1283 -0.2713 -0.0334
 7315W        W50306  26.119   8.506  17.920 -0.2052  0.1050  0.1093
 7316W        W50307   7.751   6.406  16.303  0.2732 -0.0876 -0.3076
 7317W        W50308  22.126   0.000  27.618  0.0994 -0.1432 -0.1527
 7318W        W50309  28.276   0.616  14.573  0.2862  0.0007  0.0600
 7319W        W50310   4.743   6.588  16.792  0.1216  0.1020 -0.2256
 7320W        W50311  31.048   0.031  16.220  0.0576  0.0669 -0.0164
 7321W        W50312   3.534  15.168  21.504  0.4126 -0.1610 -0.3648
 7322W        W50313  23.905  16.008  18.405 -0.0726  0.0145  0.0133
 7323W        W50314  20.497  16.475  15.576  0.2095  0.0182 -0.1128
 7324W        W50315  15.291  11.710  19.080  0.2014 -0.3831  0.2048
 7325W        W50316  11.580   9.758  18.965 -0.1835 -0.0808 -0.0729
 7326W        W50317   5.464  34.443  20.533 -0.2427 -0.0341  0.1584
 7327W        W50318  28.349   4.341  18.211 -0.0584 -0.3155 -0.5453
 7328W        W50319  34.436  31.118  17.481 -0.0122 -0.1526  0.0383
 7329W        W50320  32.425   0.783  18.467 -0.0252 -0.1453  0.0562
 7330W        W50321  31.975  33.863  15.149 -0.1498 -0.1057  0.2040
 7331W        W50322  34.541  32.581  19.463 -0.1116  0.1632 -0.1104
 7332W        W50323  23.511  19.666   1.376  0.3138  0.0972  0.2916
 7333W        W50324   3.525  12.822  26.091  0.1602 -0.2846 -0.0929
 7334W        W50325  19.939   3.439  27.824 -0.0508 -0.2132  0.0929
 7335W        W50326  31.281   3.804  14.212 -0.1863  0.0810 -0.1750
 7336W        W50327  28.691  17.979  18.159  0.1986  0.1298 -0.1897
 7337W        W50328  27.004  11.827  22.287 -0.0034 -0.0194  0.4509
 7338W        W50329   4.778  26.486  20.317 -0.0142  0.4419 -0.2106
 7339W        W50330  20.183   7.480  14.150  0.0151 -0.1024 -0.1870
 7340W        W50331  29.936  23.300  18.835  0.0759  0.0121  0.4063
 7341W        W50332  24.978   5.882  15.676  0.0930  0.0640 -0.5826
 7342W        W50333  32.104   7.105  16.622  0.1439 -0.0564  0.1533
 7343W        W50334  12.737  15.476  17.052 -0.2186  0.3745 -0.2151
 7344W        W50335  31.527  27.266  25.341  0.0386 -0.2511  0.0638
 7345W        W50336   0.195   6.600  26.801  0.1429 -0.3225  0.2364
 7346W        W50337  19.482  21.410  22.763  0.2102 -0.1486  0.0900
 7347W        W50338   2.641   7.415  20.429  0.0964 -0.3131  0.4798
 7348W        W50339  25.074  20.431  27.384 -0.1242 -0.1317 -0.2871
 7349W        W50340   5.517  20.862  19.135 -0.1910  0.1705 -0.0868
 7350W        W50341  31.595  11.740  17.028  0.0889 -0.2643  0.0705
 7351W        W50342  12.237  10.712   2.912  0.2113  0.1066  0.2806
 7352W        W50343  25.347   8.933  18.093 -0.1606  0.3879  0.1054
 7353W        W50344   0.324  19.415  18.549  0.1382  0.0136  0.0599
 7354W        W50345  31.062  30.444  21.362  0.0354 -0.0713  0.1479
 7355W        W50346   2.690   4.821  15.914 -0.0573  0.1983 -0.3145
 7356W        W50347   5.102   8.467   0.667  0.1488  0.2850 -0.0179
 7357W        W50348  15.870  18.068  27.928 -0.1939  0.3389  0.2077
 7358W        W50349   3.351   3.976  24.917  0.1644  0.1082 -0.1555
 7359W        W50350   5.037  21.285  26.490  0.0811  0.3301 -0.1734
 7360W        W50351  32.777  21.269  15.398  0.1220  0.0272 -0.1643
 7361W        W50352   9.273  31.945  18.605 -0.2083  0.1101 -0.3247
 7362W        W50353  33.738   2.982  15.982  0.0542 -0.0896 -0.0420
 7363W        W50354  27.359   4.660  27.286  0.1870 -0.0819  0.0582
 7364W        W50355   3.299   8.331  17.375 -0.0633  0.1192  0.2983
 7365W        W50356  22.738   9.828  22.516  0.0878  0.1466  0.2852
 7366W        W50357  34.391   8.102  22.690 -0.1935  0.1599 -0.1669
 7367W        W50358  17.464  10.525  18.047 -0.1062  0.3223  0.0672
 7368W        W50359  29.103  31.002  17.737 -0.0897  0.3144  0.2734
 7369W        W50360   3.699  13.561  17.847  0.0705  0.0589  0.2557
 7370W        W50361   8.337   1.309  25.799 -0.0045 -0.3974  0.0338
 7371W        W50362  31.418   6.715  25.171 -0.2506 -0.2144  0.0084
 7372W        W50363  34.508  10.443  22.256  0.1850  0.0653  0.3638
 7373W        W50364  10.863  24.522  27.529  0.0781 -0.0589 -0.2832
 7374W        W50365  28.527  26.659  14.491  0.0517  0.1182 -0.1790
 7375W        W50366   6.152  10.238  27.918  0.0733 -0.0819 -0.1626
 7376W        W50367   8.055   5.763  14.649  0.0077 -0.0697  0.0198
 7377W        W50368   0.822  15.624  25.242  0.1763  0.0201 -0.3972
 7378W        W50369  34.702   5.513  19.373 -0.0030 -0.0615  0.3402
 7379W        W50370  18.433  10.036  20.108 -0.1582 -0.1266 -0.0716
 7380W        W50371  12.037  18.674  26.865  0.1286 -0.0448  0.0753
 7381W        W50372  34.040  32.515  13.745 -0.3754  0.0364 -0.1343
 7382W        W50373  10.159   2.141  10.943  0.1082  0.1559 -0.0296
 7383W        W50374  21.950   6.084  17.713  0.0790 -0.0122  0.2844
 7384W        W50375   9.756  25.557  14.627  0.2080  0.0315 -0.2160
 7385W        W50376  14.739   6.182   3.689 -0.0903 -0.0413  0.2706
 7386W        W50377  30.291  25.571  26.765  0.1703 -0.0002  0.1369
 7387W        W50378   9.385   9.946  17.149 -0.1393  0.0011 -0.2642
 7388W        W50379   1.029  14.181  15.349 -0.1573  0.2218  0.0706
 7389W        W50380   9.792  16.279   2.568  0.0657  0.1855  0.0614
 7390W        W50381  17.881  34.153   0.473 -0.0527  0.0381 -0.1126
 7391W        W50382  30.443   9.286   0.353  0.1300 -0.0805 -0.1489
 7392W        W50383  16.785   8.678  27.026 -0.2372  0.1823 -0.1208
 7393W        W50384   1.939   8.780  19.334  0.1152  0.0954  0.1167
 7394W        W50385  31.134  14.361  18.469 -0.0418 -0.0219  0.1336
 7395W        W50386  10.340   4.388  21.710 -0.3679  0.0836 -0.1521
 7396W        W50387  24.243   1.927  17.409 -0.2685  0.1373 -0.1466
 7397W        W50388  30.691  33.898  21.807  0.0564  0.1242 -0.1289
 7398W        W50389  28.386  12.692  18.163 -0.0976 -0.0384  0.2004
 7399W        W50390  29.399  17.124  20.173  0.0858  0.1720  0.1433
 7400W        W50391  32.408  12.531   8.233 -0.0763 -0.0275 -0.0251
 7401W        W50392   3.289  29.668  27.932 -0.1218 -0.2217  0.0172
 7402W        W50393   8.677   4.676  24.656 -0.1478  0.1091 -0.3412
 7403W        W50394  20.932  34.454  27.605 -0.1028 -0.0316 -0.1383
 7404W        W50395   0.888   1.442  18.857 -0.2759 -0.0886  0.0301
 7405W        W50396  10.645  31.475  27.001 -0.0334 -0.4673  0.1970
 7406W        W50397   1.968  14.531  20.053 -0.2524  0.1880 -0.1771
 7407W        W50398  31.216  12.219  16.265 -0.0882  0.1054  0.2132
 7408W        W50399   2.685  18.291  26.091  0.2072 -0.3660 -0.0649
 7409W        W50400   4.500  16.837  20.898  0.0067 -0.4520  0.1315
 7410W        W50401  28.315   6.390  24.781 -0.1975 -0.1884 -0.0217
 7411W        W50402   0.025  23.412  25.317 -0.1387  0.2320  0.0930
 7412W        W50403  29.676  11.619  14.959  0.4145  0.1204 -0.2749
 7413W        W50404   6.439  19.515   5.636  0.1245  0.0788 -0.1209
 7414W        W50405  33.426   2.862  16.763 -0.1465 -0.0798  0.2910
 7415W        W50406   1.122  33.884  24.443 -0.0138  0.0100 -0.2513
 7416W        W50407   1.603  10.949  25.115 -0.2046 -0.0748  0.0135
 7417W        W50408  27.748  17.103  18.283  0.0070 -0.1770 -0.1613
 7418W        W50409   8.377   5.278  19.240  0.0224  0.1163  0.1499
 7419W        W50410  28.786   6.624  24.858  0.1956 -0.0338 -0.0635
 7420W        W50411   4.839   0.050   9.483  0.1453  0.0338 -0.1973
 7421W        W50412  13.963  26.342   8.401  0.1032 -0.3216 -0.0071
 7422W        W50413   7.481   8.030  22.208  0.0805 -0.0603  0.0362
 7423W        W50414   4.596   9.594  14.815 -0.3026 -0.3294  0.2459
 7424W        W50415  27.509  31.410  17.285 -0.0430 -0.1308  0.0324
 7425W        W50416   1.908  15.080   0.857 -0.0931 -0.2242  0.1545
 7426W        W50417  29.582  27.580  27.685 -0.3447  0.1875  0.0237
 7427W        W50418  28.177  31.796   2.746 -0.2844 -0.1385  0.0686
 7428W        W50419   1.252   9.922  21.247 -0.0044  0.0956  0.3982
 7429W        W50420   4.462  34.796  26.330  0.0696  0.1504  0.1247
 7430W        W50421  33.656  32.599  15.684 -0.2811  0.1573  0.0202
 7431W        W50422   4.439   8.858  15.898 -0.2177 -0.1284 -0.2345
 7432W        W50423  13.891  18.634  16.011  0.0530 -0.2560  0.1550
 7433W        W50424   5.414  31.642   9.454 -0.0769  0.1441  0.1440
 7434W        W50425  26.278   1.267  17.960  0.1599 -0.0961 -0.0445
 7435W        W50426  33.343   7.966  10.070 -0.2154  0.0422  0.1429
 7436W        W50427   6.275   7.583  22.649 -0.1387 -0.1770 -0.2405
 7437W        W50428  31.787   9.106  18.193 -0.2823  0.1041 -0.1840
 7438W        W50429   1.127  11.356  28.498  0.0027 -0.0818  0.0179
 7439W        W50430   1.882  34.215   9.541  0.3416  0.1805 -0.4737
 7440W        W50431  12.994  18.098  17.900  0.1071 -0.0326  0.1320
 7441W        W50432   3.412  15.211  18.647 -0.0937 -0.0604 -0.1313
 7442W        W50433   8.834  11.237  22.951 -0.4756  0.0172  0.1875
 7443W        W50434   5.703   7.617   0.494 -0.2387  0.0315  0.0947
 7444W        W50435  23.696  16.959  19.747 -0.3546 -0.2458 -0.0540
 7445W        W50436   3.479  12.116  24.023  0.0287  0.0537 -0.1056
 7446W        W50437  32.294  13.446  16.835 -0.1926  0.3609 -0.0395
 7447W        W50438  23.387   3.884  29.132 -0.1540  0.3906  0.1104
 7448W        W50439  15.397  13.153  16.114  0.1479  0.2420  0.4076
 7449W        W50440   0.255   9.770   3.232 -0.1713 -0.1397 -0.0573
 7450W        W50441  21.250   5.297  17.595  0.0147  0.0032 -0.1265
 7451W        W50442   0.649  24.195  18.525  0.0936 -0.0168 -0.2261
 7452W        W50443  31.103  29.654  27.275 -0.1807  0.3430 -0.1350
 7453W        W50444   9.449   8.444  17.291 -0.1773 -0.2474 -0.0267
 7454W        W50445  18.742  15.882  13.721 -0.1559 -0.0609 -0.1863
 7455W        W50446  11.031  29.645   9.261  0.5286 -0.2100  0.3036
 7456W        W50447  32.308  11.028  21.191  0.2643  0.0719 -0.2233
 7457W        W50448   9.465   7.649  15.162 -0.0928  0.2313  0.0925
 7458W        W50449  31.261  32.358   3.011 -0.0845  0.0304 -0.0176
 7459W        W50450   8.941   6.564  21.600  0.4306  0.0631  0.0683
 7460W        W50451   0.333   5.658  14.826 -0.1094 -0.0418  0.6383
 7461W        W50452   4.696  11.144   4.030 -0.0059  0.0184 -0.2304
 7462W        W50453  11.103   5.076  23.051 -0.3683  0.3048 -0.0786
 7463W        W50454  28.231   4.483  18.702  0.2129 -0.2634 -0.1293
 7464W        W50455  31.699  23.072  22.883 -0.1002  0.2148  0.4040
 7465W        W50456   5.604  11.846   4.899  0.0955  0.3534 -0.1643
 7466W        W50457  16.554   4.429  26.324  0.3012  0.0105 -0.2251
 7467W        W50458  24.675  12.804  17.926  0.1252  0.4705 -0.1211
 7468W        W50459  16.112   6.100  17.056  0.0139  0.1006 -0.0881
 7469W        W50460  34.345  23.770  24.504 -0.0815  0.2751 -0.0137
 7470W        W50461  26.672  11.073  13.828 -0.1424  0.1430  0.0772
 7471W        W50462  11.194  28.357   4.770 -0.0934 -0.0592 -0.2846
 7472W        W50463   1.432   6.756  23.060  0.3970  0.1086  0.0263
 7473W        W50464   3.729   6.822  16.789  0.0001  0.1069  0.0236
 7474W        W50465   4.052  21.036  15.700 -0.1127  0.2822 -0.1451
 7475W        W50466  28.188   1.334  13.840  0.3009 -0.1677  0.0180
 7476W        W50467  19.189   0.655  28.466  0.2355  0.0834  0.2696
 7477W        W50468  31.298   9.386  14.699 -0.1317 -0.1780  0.0409
 7478W        W50469   0.772  14.175  18.676 -0.2510 -0.0837  0.2978
 7479W        W50470  17.668  12.168  13.146  0.0116  0.0909  0.1483
 7480W        W50471  25.564  15.644  26.740 -0.0511 -0.1627  0.1413
 7481W        W50472   7.672  14.706  18.649  0.0353  0.0876 -0.0618
 7482W        W50473  26.922   5.862  16.424 -0.0620  0.4756 -0.1055
 7483W        W50474  31.564   8.793  17.384 -0.0220  0.1459  0.2136
 7484W        W50475  25.073   7.582  23.159  0.1211  0.1109 -0.1291
 7485W        W50476  25.475  10.158  14.723 -0.0722 -0.0404 -0.0044
 7486W        W50477  10.169   4.194  17.127  0.0097 -0.1600 -0.0769
 7487W        W50478  17.312   0.716  17.941 -0.0755  0.1852 -0.2495
 7488W        W50479  18.063   6.511  21.671  0.0907  0.1069  0.0401
 7489W        W50480   2.477  24.533  19.459  0.1017 -0.4369 -0.1847
 7490W        W50481  32.462  24.171  19.040  0.2316 -0.2341 -0.1494
 7491W        W50482  25.943  14.388  17.506 -0.1350 -0.0505  0.1484
 7492W        W50483  23.560   1.232  20.874  0.0291  0.0108  0.0518
 7493W        W50484  33.721   8.313  22.705  0.1746 -0.0926  0.1133
 7494W        W50485  11.224  27.426  26.660 -0.0205 -0.1681 -0.0083
 7495W        W50486   5.300  24.495  18.998 -0.0837 -0.0504 -0.1742
 7496W        W50487  18.214   8.757  17.544  0.2873 -0.0395 -0.0920
 7497W        W50488  24.936   6.801   2.181  0.0923  0.1968  0.0329
 7498W        W50489  14.663   5.724  24.732  0.2510  0.2795 -0.1347
 7499W        W50490  31.533  15.376   0.794 -0.1910  0.1454  0.2410
 7500W        W50491  29.526   8.645  26.849 -0.1950 -0.1801 -0.2208
 7501W        W50492  24.151  21.361  14.914  0.0206  0.5015 -0.2166
 7502W        W50493  16.347   8.658  16.536  0.3669  0.2320  0.0868
 7503W        W50494  11.876  10.875   3.845  0.0031 -0.1936 -0.0365
 7504W        W50495   2.735   0.420   6.896 -0.1678 -0.0198  0.0940
 7505W        W50496   4.262  15.311   7.812  0.1207  0.1025 -0.0293
 7506W        W50497   1.080   9.836  22.465 -0.0792 -0.2437  0.2559
 7507W        W50498  15.222  10.636  29.219  0.0302 -0.5339  0.3976
 7508W        W50499   6.567   7.696  27.817  0.2111  0.1926  0.1404
 7509W        W50500   6.708  14.321  16.678 -0.2571  0.0212 -0.3432
 7510W        W50501  27.462   7.261  23.363  0.0655 -0.3009 -0.3650
 7511W        W50502   6.699   7.311  18.551  0.0520 -0.1823  0.1739
 7512W        W50503  28.492   9.527  22.211 -0.2433 -0.2057 -0.0041
 7513W        W50504  33.590  21.075  25.243 -0.0669 -0.0858 -0.0895
 7514W        W50505  15.778  20.520   2.539  0.1337  0.1723  0.1558
 7515W        W50506  31.256   7.553  15.945  0.1595  0.1153  0.0024
 7516W        W50507  17.847   7.303  29.018  0.0003  0.1519  0.1182
 7517W        W50508   0.676  34.498  27.129  0.0031 -0.3338  0.0870
 7518W        W50509   5.038  31.498  23.641 -0.0734 -0.0121  0.2329
 7519W        W50510  33.481  13.235  17.908 -0.0709  0.1904 -0.0576
 7520W        W50511  30.079   6.102  28.114 -0.0158  0.0794  0.1219
 7521W        W50512  29.886   9.611  18.429  0.3391  0.1340 -0.1917
 7522W        W50513  33.352  10.194  20.462 -0.3560  0.1991  0.0515
 7523W        W50514   6.097   8.869  21.849  0.1399 -0.2467  0.0225
 7524W        W50515  25.330  13.082   0.937  0.1090  0.1039  0.0668
 7525W        W50516  18.033  15.286  15.340  0.2334  0.0702 -0.1685
 7526W        W50517  28.775  26.496  17.831  0.0161  0.0635  0.0613
 7527W        W50518  13.459   0.969  23.320 -0.2538  0.0139 -0.2423
 7528W        W50519  24.986   3.049  20.682 -0.1517  0.2912 -0.4409
 7529W        W50520  29.478  29.684  17.297 -0.1160  0.2986  0.2557
 7530W        W50521   3.351   7.598  26.300 -0.0994  0.0429 -0.0048
 7531W        W50522  18.816  13.524  23.837 -0.1240 -0.1884  0.0654
 7532W        W50523  17.289   8.743  18.996  0.0480 -0.0823 -0.1810
 7533W        W50524  30.239  14.515  14.341  0.2871 -0.0528  0.0808
 7534W        W50525  14.438   7.145  20.154  0.2181 -0.0472 -0.1785
 7535W        W50526   7.848   1.008  18.714 -0.2154  0.3425 -0.3209
 7536W        W50527  12.871  18.013  27.556 -0.0651  0.2297  0.1549
 7537W        W50528  18.060   9.291  25.477 -0.1689  0.0081  0.1499
 7538W        W50529  28.997  11.686  18.122 -0.3268 -0.0603 -0.1590
 7539W        W50530  29.366   9.146  28.562  0.0117 -0.2425  0.2982
 7540W        W50531  34.090  20.540  21.335 -0.0303  0.1629  0.1633
 7541W        W50532  26.283   7.451  15.233  0.1149 -0.0785 -0.0357
 7542W        W50533  33.611   4.324  17.605 -0.1504  0.1876  0.0690
 7543W        W50534  31.189  29.640   0.695 -0.4049 -0.0052  0.0831
 7544W        W50535  33.946   4.365  15.924 -0.1216  0.3890  0.0826
 7545W        W50536  27.900   5.996  22.434  0.1663 -0.1985  0.0170
 7546W        W50537   9.041   7.450  16.700  0.1169  0.0108 -0.0976
 7547W        W50538   6.127   5.432  18.757  0.0034  0.4010 -0.4234
 7548W        W50539  13.682  16.218  27.803 -0.1076  0.0365  0.1912
 7549W        W50540   3.323  22.717  21.156 -0.1387 -0.0184  0.0399
 7550W        W50541  29.046  32.180  20.321  0.1106  0.2359 -0.0669
 7551W        W50542   2.409  15.806  22.589  0.2199 -0.1472 -0.1964
 7552W        W50543   5.107   7.164  18.095  0.3262 -0.2763  0.1553
 7553W        W50544  25.141  22.467  20.134  0.2545  0.1934 -0.0420
 7554W        W50545  31.033  11.199  22.636 -0.3735 -0.0117  0.4562
 7555W        W50546   5.548   7.620  16.419 -0.1849  0.0487 -0.1082
 7556W        W50547  33.856   6.926  14.528  0.1726  0.3845 -0.0222
 7557W        W50548  33.670  10.495  20.161 -0.2380  0.0315 -0.1810
 7558W        W50549   6.167  13.254  26.367  0.0269 -0.0420 -0.2208
 7559W        W50550   9.484  26.848  16.104  0.1066  0.1002 -0.0127
 7560W        W50551   3.666  12.761  20.900  0.0723 -0.0448  0.4164
 7561W        W50552  24.855   7.452  17.227  0.0095 -0.1713  0.2534
 7562W        W50553  28.649  16.012  15.109 -0.1012  0.1109 -0.1152
 7563W        W50554  30.280   6.208   4.015 -0.1868  0.3371 -0.2935
 7564W        W50555   3.148   0.629   3.402 -0.1264 -0.2004 -0.0458
 7565W        W50556  27.130   3.860  21.117  0.1462  0.0848 -0.0544
 7566W        W50557   6.994  29.303  20.832  0.0446 -0.1626 -0.0143
 7567W        W50558  20.218   9.890  13.109  0.2541 -0.0898 -0.0604
 7568W        W50559   4.497  32.432  22.592 -0.0803  0.0426 -0.2031
 7569W        W50560   4.170   2.451  19.993  0.0252  0.3538  0.0767
 7570W        W50561   0.468  32.026  14.971  0.2443 -0.0333  0.0741
 7571W        W50562  32.674  33.178  24.874 -0.1529  0.0930  0.3953
 7572W        W50563  28.361  13.516  16.388  0.1314  0.0974 -0.1134
 7573W        W50564  31.321   9.027  27.356 -0.0919 -0.0878  0.0932
 7574W        W50565  16.762  11.376  26.733 -0.5733  0.0788 -0.0481
 7575W        W50566  28.400   8.092  13.921 -0.0378  0.1615  0.0555
 7576W        W50567   2.908   4.001  22.112 -0.1299  0.1490 -0.0745
 7577W        W50568  28.253   7.626  26.953 -0.1670 -0.2539 -0.0476
 7578W        W50569  22.186  11.937  20.459 -0.2157  0.2349 -0.0170
 7579W        W50570  34.163  10.436  20.945  0.0627 -0.0933  0.1407
 7580W        W50571  29.342  32.000  17.994 -0.1324 -0.0699 -0.0466
 7581W        W50572  27.475   1.614  18.876  0.0475 -0.0300 -0.1089
 7582W        W50573   7.201   1.708   8.043  0.2399 -0.0722  0.3079
 7583W        W50574   1.808   9.303  23.586  0.1883  0.1630  0.2054
 7584W        W50575  27.316  14.256   2.648  0.1762 -0.1636  0.0958
 7585W        W50576  25.190   1.402  14.379  0.1151 -0.0253 -0.1718
 7586W        W50577   2.113  18.586  10.436  0.3854 -0.0995 -0.0163
 7587W        W50578  10.677  25.445  23.669 -0.0754  0.3938  0.1170
 7588W        W50579   3.242  29.693  17.812  0.0178 -0.3191  0.2661
 7589W        W50580   2.420  25.669  20.713 -0.0012 -0.1057  0.1289
 7590W        W50581  14.032  34.467  19.344 -0.2417  0.1996 -0.0991
 7591W        W50582  30.496   5.080  24.101  0.1742 -0.3384  0.0806
 7592W        W50583  18.365   9.314  22.208 -0.0255  0.2030  0.0872
 7593W        W50584  32.814  30.024  15.395  0.1916  0.1908 -0.1472
 7594W        W50585  14.693  18.066  13.364 -0.3614 -0.3413  0.2403
 7595W        W50586  14.267  26.438  21.960 -0.0484 -0.1990 -0.4134
 7596W        W50587  31.004  12.672  23.082  0.0984 -0.2352  0.0243
 7597W        W50588   3.558  11.133  20.200 -0.3327 -0.0218  0.2399
 7598W        W50589   0.269   8.576  26.751  0.0449  0.2293 -0.2548
 7599W        W50590  12.187  31.245  21.924  0.0743 -0.2946  0.0463
 7600W        W50591  33.158   7.562  20.518 -0.0305 -0.5041  0.2380
 7601W        W50592   2.520  19.467  16.148  0.2664  0.0438 -0.1976
 7602W        W50593  29.193  33.247  26.327  0.0353 -0.1370 -0.4497
 7603W        W50594   1.851   8.151   1.811 -0.1716  0.2367  0.0027
 7604W        W50595  34.288   9.603  26.470  0.1380  0.2939 -0.0549
 7605W        W50596  29.339  21.482  21.462  0.0671  0.3590 -0.0376
 7606W        W50597   6.537   7.531  15.938 -0.2805  0.6071  0.2509
 7607W        W50598   2.170   7.162  20.199 -0.1785  0.0244  0.2444
 7608W        W50599  34.749  15.647  26.129  0.3230  0.2603 -0.0235
 7609W        W50600   4.886   4.316   7.542  0.1252 -0.0297 -0.2149
 7610W        W50601  29.291  13.768  19.789  0.2386  0.1415 -0.3801
 7611W        W50602  34.033  16.506  18.434 -0.2068 -0.0067  0.0433
 7612W        W50603  31.148   2.652  28.078  0.1316 -0.4044 -0.1709
 7613W        W50604  20.381  26.711  20.995  0.0856  0.1378 -0.1166
 7614W        W50605  29.425  15.573  27.829 -0.2906 -0.0238 -0.1936
 7615W        W50606  33.405   7.522   8.426  0.2229  0.2011  0.1131
 7616W        W50607  25.405   7.978  17.957 -0.0826  0.0503 -0.3879
 7617W        W50608  17.330   6.320  23.646  0.2308  0.1310 -0.2266
 7618W        W50609  21.180   0.507   7.313  0.1154  0.2531 -0.2144
 7619W        W50610  19.418   5.063  15.581 -0.1946 -0.3525  0.0468
 7620W        W50611   5.103  21.278  16.006  0.0562  0.0861 -0.0233
 7621W        W50612  34.187  34.249  14.060  0.0835  0.0926  0.4112
 7622W        W50613   5.784  18.459  23.943 -0.0324 -0.0105 -0.0249
 7623W        W50614  32.977  15.284   3.619  0.0367  0.2289  0.0682
 7624W        W50615  32.830  11.324  15.645 -0.0312 -0.1437 -0.0105
 7625W        W50616  33.115   5.574  29.155  0.0241 -0.1139 -0.3472
 7626W        W50617   1.209  30.399  13.956 -0.2297 -0.1382  0.0482
 7627W        W50618  23.941  15.369  17.055 -0.1017  0.0270  0.1486
 7628W        W50619  14.212  14.058  28.224  0.1718 -0.1446 -0.2559
 7629W        W50620   1.607  23.053  20.522 -0.2743  0.1846  0.0495
 7630W        W50621  29.885   7.986  19.603  0.1510  0.1676  0.0732
 7631W        W50622  26.246  29.903  22.603  0.0294  0.0384 -0.0126
 7632W        W50623   2.190  13.346  18.386 -0.2195  0.1528 -0.1495
 7633W        W50624  11.706  16.149  18.435  0.0716 -0.2684 -0.0371
 7634W        W50625  24.634  29.618  13.036 -0.1121  0.0084  0.0496
 7635W        W50626  32.133  10.330  14.951  0.1449  0.1040  0.2368
 7636W        W50627  29.110  31.708  19.811 -0.3401 -0.1606 -0.0192
 7637W        W50628  10.853   1.469   1.490 -0.1730 -0.1455 -0.0912
 7638W        W50629   5.597  14.157  19.796 -0.1697 -0.2522  0.0180
 7639W        W50630   8.608  17.411  17.169 -0.1050  0.0810  0.0672
 7640W        W50631  34.187   2.313  22.328  0.0122 -0.1109  0.2063
 7641W        W50632   4.626  10.013  16.589 -0.0966  0.0923 -0.2502
 7642W        W50633   1.675  32.861   3.522  0.0723 -0.2306 -0.2583
 7643W        W50634  25.257  33.395  18.782 -0.1872 -0.1248  0.0944
 7644W        W50635   0.027   7.969   7.709  0.0471  0.2538  0.1373
 7645W        W50636   3.479  11.107   2.791 -0.3210  0.0047 -0.1127
 7646W        W50637  33.188  15.691  28.591 -0.0130  0.1910 -0.2208
 7647W        W50638  34.438  19.333  25.581  0.2636 -0.2935 -0.1354
 7648W        W50639   4.009   0.023   8.603 -0.0223  0.0493 -0.2242
 7649W        W50640  30.870   6.289  20.238  0.0836  0.0114  0.0583
 7650W        W50641   6.026   6.671  21.148  0.0765 -0.4125  0.1121
 7651W        W50642   4.931  20.295  16.783  0.1183 -0.0456  0.0002
 7652W        W50643  14.204   2.726   1.234 -0.0072  0.2320 -0.1433
 7653W        W50644   0.061   7.583  28.307  0.2897 -0.3394  0.2216
 7654W        W50645  25.842   6.982  16.516  0.0136 -0.1768  0.0930
 7655W        W50646  18.271   0.126  27.133 -0.0576 -0.3539 -0.1128
 7656W        W50647  11.363  22.907  21.369  0.2022 -0.1606  0.5741
 7657W        W50648   5.486  20.399  17.839 -0.5012 -0.0792  0.0573
 7658W        W50649  18.457   7.403  16.995  0.2143 -0.3190 -0.1234
 7659W        W50650  21.432   3.853   0.469 -0.0961 -0.0709  0.0417
 7660W        W50651  26.177  11.450  23.246 -0.0052  0.0214 -0.0944
 7661W        W50652  33.724   2.828  24.007  0.0879  0.1335 -0.1393
 7662W        W50653  29.610  33.345  17.446 -0.1936 -0.1558 -0.2337
 7663W        W50654   3.823  13.761  21.830 -0.0376 -0.0409 -0.2124
 7664W        W50655  32.844   5.895  28.858 -0.0509 -0.1916  0.1037
 7665W        W50656   0.273   1.331  17.512 -0.1664 -0.0578 -0.0818
 7666W        W50657  29.901   6.164  21.436  0.0003  0.0707  0.0208
 7667W        W50658   3.113  11.680   5.469  0.2519 -0.1548 -0.0104
 7668W        W50659   8.179  19.629  27.687  0.2491  0.1389  0.1889
 7669W        W50660  14.996   7.531  22.581 -0.0941  0.1923  0.0939
 7670W        W50661  18.558  14.435  21.406 -0.0504  0.0612 -0.4948
 7671W        W50662   5.952  15.383  24.204  0.0693  0.2410 -0.2994
 7672W        W50663  18.616   1.759  23.689 -0.1897 -0.1564 -0.2142
 7673W        W50664  12.297  12.530  15.998 -0.0229  0.1176 -0.1013
 7674W        W50665   5.689  18.514  15.469 -0.1260 -0.1591 -0.0141
 7675W        W50666  14.096   8.883  14.976 -0.0887 -0.2428  0.0309
 7676W        W50667  30.924   7.340  17.492  0.0501 -0.0849 -0.0731
 7677W        W50668   4.436   7.676  20.756 -0.2532  0.4374  0.0877
 7678W        W50669  17.269   4.555  17.260 -0.0254  0.1252 -0.3085
 7679W        W50670  26.442  14.158  21.236  0.0052  0.1011  0.0217
 7680W        W50671  19.000   6.415   3.709  0.0221 -0.2285 -0.0511
 7681W        W50672   4.443  12.861  20.122  0.4187  0.4248  0.0048
 7682W        W50673   6.702   8.123   0.462  0.1543 -0.2572  0.1140
 7683W        W50674  22.820  31.146  16.468  0.2636 -0.0324  0.4540
 7684W        W50675   6.466  21.484   8.916  0.0828 -0.0082 -0.1850
 7685W        W50676   3.509  14.015  23.287 -0.0637 -0.1332  0.2787
 7686W        W50677   1.381  22.206  15.920 -0.0562 -0.0200  0.1478
 7687W        W50678   1.021  15.209  22.710  0.1109  0.2997 -0.2715
 7688W        W50679   2.258   6.131  25.810  0.0655 -0.0498 -0.0727
 7689W        W50680  11.430   6.595  21.830  0.2704 -0.0226 -0.0484
 7690W        W50681  30.464  31.899  13.677 -0.1593 -0.1428 -0.0288
 7691W        W50682  34.371   2.298  17.030 -0.1552 -0.0277  0.0401
 7692W        W50683   8.792  22.547  20.512 -0.3561  0.1072  0.1182
 7693W        W50684   2.309  21.463  17.059 -0.1621  0.0704 -0.1341
 7694W        W50685   1.836  29.218  25.233  0.0565 -0.5345  0.0251
 7695W        W50686   4.810   3.411  16.441 -0.5396  0.1574  0.0885
 7696W        W50687  22.555  32.864  22.284  0.2928 -0.0978 -0.2062
 7697W        W50688  30.072  12.901  21.025  0.4883 -0.0002  0.0316
 7698W        W50689   1.045  12.646  17.319  0.1973  0.0594 -0.0462
 7699W        W50690   5.293  19.142   5.862  0.2423  0.0252 -0.1237
 7700W        W50691  21.826   5.471  22.461  0.2413  0.3285  0.0208
 7701W        W50692  23.135   9.432  23.223  0.0794  0.0955 -0.0647
 7702W        W50693  17.870  22.027   4.631 -0.1268 -0.1526  0.1861
 7703W        W50694   9.773  18.556  26.965 -0.1418 -0.2471 -0.1177
 7704W        W50695   5.650  11.846  26.957 -0.1742  0.2469 -0.1951
 7705W        W50696   0.144   7.178  25.975  0.4114  0.0204  0.2887
 7706W        W50697  33.118  16.300   1.450 -0.3309 -0.2651 -0.2514
 7707W        W50698   7.724   5.000  22.043  0.2873  0.3404  0.1166
 7708W        W50699   1.240   6.693  27.511 -0.0027  0.5659 -0.1060
 7709W        W50700  29.531  12.277  17.170 -0.0399  0.1819  0.2396
 7710W        W50701   9.578  14.358  16.466  0.4346  0.0230  0.0728
 7711W        W50702  28.246   8.790  22.277  0.2553  0.2024 -0.1505
 7712W        W50703  33.866   2.258  22.788  0.0933 -0.0583  0.0459
 7713W        W50704   2.941   2.698  24.397  0.2042  0.1538 -0.4771
 7714W        W50705  18.471  10.709  28.990 -0.0752  0.3440 -0.1679
 7715W        W50706   9.749   8.746  17.608 -0.4223  0.1063 -0.1192
 7716W        W50707  33.331  33.860  15.749 -0.0972 -0.0097  0.2279
 7717W        W50708  26.344  27.439  20.946  0.0072  0.0148 -0.1013
 7718W        W50709  31.216   1.295  18.422 -0.0428 -0.2386 -0.1011
 7719W        W50710  18.767   2.834  25.763 -0.1941 -0.0168 -0.0185
 7720W        W50711   0.492  32.323   0.228  0.1026  0.1312  0.3360
 7721W        W50712  30.643  28.498  27.086 -0.1939  0.1926 -0.2735
 7722W        W50713   7.536   6.510  26.936  0.0227  0.0229 -0.0954
 7723W        W50714  12.316  25.427  26.222  0.0780 -0.3228  0.2463
 7724W        W50715   6.841   7.212  19.051  0.2205 -0.1814 -0.1281
 7725W        W50716  29.898  12.097  22.604 -0.0490  0.0682 -0.1889
 7726W        W50717  13.979   7.351  18.289  0.1642  0.0736 -0.2994
 7727W        W50718  22.199   5.026  27.810 -0.0884 -0.1296  0.1710
 7728W        W50719   3.552   3.960  20.486 -0.2754  0.2569  0.0967
 7729W        W50720  22.493  24.524  14.966  0.2535  0.0918  0.3329
 7730W        W50721  10.645  12.892  24.310  0.1746  0.0332 -0.1252
 7731W        W50722  17.914  13.736  14.626 -0.0651 -0.3292 -0.3788
 7732W        W50723   4.063  13.910  16.338 -0.0774  0.0668 -0.0254
 7733W        W50724  21.433   6.281  16.628  0.2122 -0.0053  0.1206
 7734W        W50725  28.197  17.788  25.204 -0.1893 -0.0775  0.1797
 7735W        W50726  30.911  32.075  13.651  0.1437 -0.0274  0.0031
 7736W        W50727  25.409  17.612  20.318 -0.0492  0.0931 -0.0329
 7737W        W50728   7.185  20.227   3.961 -0.0812  0.2630  0.0269
 7738W        W50729   8.146  11.621  29.015 -0.1784 -0.1659 -0.1015
 7739W        W50730   2.753   3.028  18.632  0.0843  0.0794  0.0677
 7740W        W50731   9.117  24.751  24.834  0.0595  0.2856  0.0956
 7741W        W50732   5.410  33.729  17.818  0.3979 -0.0049 -0.1080
 7742W        W50733   2.838  29.064  18.467  0.2127  0.1960 -0.0804
 7743W        W50734  32.286  11.733  28.579  0.3701  0.0423  0.3236
 7744W        W50735  21.047  14.891  27.214 -0.0566  0.1298 -0.0084
 7745W        W50736  20.457  30.086  28.204  0.0914 -0.2629  0.0917
 7746W        W50737  12.254  21.857  15.391 -0.0270 -0.0340  0.2251
 7747W        W50738   2.573  33.478  28.853 -0.0998  0.0647  0.1015
 7748W        W50739  15.884   8.763  15.174  0.3559 -0.0496  0.0785
 7749W        W50740   4.239  19.156  16.852  0.3250  0.0928 -0.3522
 7750W        W50741  18.264   8.670   1.413 -0.0217  0.1885 -0.0805
 7751W        W50742   2.648  14.210  28.276  0.0597 -0.2904 -0.0459
 7752W        W50743   1.738   2.671  18.046  0.1977  0.4063 -0.1870
 7753W        W50744  16.980  25.066  16.032  0.1405  0.0600 -0.2042
 7754W        W50745   8.138  19.826  14.973 -0.0092  0.3853  0.1834
 7755W        W50746  30.710  34.627  18.610  0.0125  0.1305 -0.2111
 7756W        W50747   6.718  33.851  26.452 -0.1493 -0.3850 -0.0399
 7757W        W50748  23.769  24.993  27.823 -0.1228 -0.1644 -0.0047
 7758W        W50749  32.544  32.368  28.764  0.0079 -0.0126 -0.4019
 7759W        W50750  31.467   7.499  25.937  0.0331 -0.2626  0.1581
 7760W        W50751   3.515  28.030  13.787 -0.0164 -0.2338 -0.0779
 7761W        W50752   6.596  11.595  16.305 -0.0996 -0.1504  0.1252
 7762W        W50753  31.406  33.662  21.526 -0.0788 -0.0597 -0.1609
 7763W        W50754  32.895  19.982   2.533  0.1870 -0.2184 -0.0501
 7764W        W50755  23.179  20.722  16.884  0.2218 -0.1700 -0.1219
 7765W        W50756  26.511   8.801  18.464  0.0341 -0.1637 -0.2160
 7766W        W50757  33.147  25.836  15.461  0.2191 -0.1319  0.1039
 7767W        W50758   7.892   3.364  19.983 -0.2056  0.1386 -0.0758
 7768W        W50759   4.286  12.881  15.098 -0.3550  0.3810 -0.1891
 7769W        W50760   2.728  13.933  19.045 -0.3275 -0.3687 -0.1307
 7770W        W50761   3.548  18.639  14.994  0.1513 -0.0786  0.2235
 7771W        W50762  27.275   2.055  16.746 -0.1194  0.0833  0.1955
 7772W        W50763  32.512  30.711  26.591 -0.1252  0.1966 -0.0976
 7773W        W50764  23.146  27.731  20.008  0.0074 -0.2410  0.3544
 7774W        W50765  24.761   4.619  16.121  0.0370 -0.1246  0.0031
 7775W        W50766  26.729  25.499  19.313  0.0668  0.0524 -0.2943
 7776W        W50767  32.265   4.257  19.764 -0.0457  0.3202  0.0088
 7777W        W50768  15.169   6.550  26.458  0.0701 -0.0036 -0.0018
 7778W        W50769   6.256   7.183  24.643  0.0473 -0.2488  0.0424
 7779W        W50770   1.950   0.042  15.412 -0.0794 -0.2287 -0.0075
 7780W        W50771  10.046  24.238   0.014  0.1469  0.0485 -0.2676
 7781W        W50772  34.530   2.263  26.224  0.4384 -0.0509 -0.0011
 7782W        W50773   9.004  19.025  24.616 -0.0555  0.0234 -0.3854
 7783W        W50774  32.723  29.621  20.638 -0.1663 -0.0659 -0.2122
 7784W        W50775  12.738   9.358  19.197  0.0655  0.0583 -0.3066
 7785W        W50776   1.109  16.489  16.003  0.3381  0.0188 -0.2529
 7786W        W50777  26.601  19.378  22.518  0.1619  0.2364 -0.1550
 7787W        W50778   6.019   8.305  20.822 -0.1651 -0.2783 -0.0799
 7788W        W50779  27.264  22.111   5.730  0.1728 -0.0659  0.3667
 7789W        W50780  27.791   7.517   1.042  0.1887  0.1587  0.0606
 7790W        W50781   8.257   5.766  18.111 -0.0909  0.2667 -0.1962
 7791W        W50782  13.702   6.246   1.648 -0.0641 -0.1540  0.3770
 7792W        W50783   9.829   3.659   1.260 -0.0130  0.2672 -0.3405
 7793W        W50784  21.004  30.014  23.798  0.2691 -0.4163  0.0490
 7794W        W50785   3.289  29.848  21.389  0.3699  0.0318  0.0059
 7795W        W50786  29.110  33.356  18.264 -0.2661  0.0333  0.0711
 7796W        W50787  23.536  18.035  15.602 -0.0766  0.2864  0.1344
 7797W        W50788  23.561  32.952   3.031  0.0958  0.2236 -0.0681
 7798W        W50789  33.533  32.990  18.506  0.0347 -0.1071  0.1843
 7799W        W50790  26.230  13.606   9.805  0.0033  0.2776 -0.2925
 7800W        W50791  24.235  25.072  15.678 -0.2709  0.0448  0.5835
 7801W        W50792  12.381  10.424  23.210 -0.0835  0.0165  0.2011
 7802W        W50793  23.553  15.777   0.788 -0.3252 -0.1482  0.1315
 7803W        W50794  33.249  16.198  26.365  0.1275 -0.1106  0.2668
 7804W        W50795  31.135  11.979  21.002  0.2412 -0.0096 -0.0464
 7805W        W50796  19.356   7.493  24.665 -0.2217 -0.0125 -0.0344
 7806W        W50797   1.453  17.666  23.546 -0.0264  0.3575 -0.0566
 7807W        W50798   6.826  16.574  26.251 -0.1042 -0.2013 -0.2538
 7808W        W50799  32.783   7.158  21.323 -0.0363 -0.0253  0.2128
 7809W        W50800  30.153  32.629   2.399 -0.1346  0.0845 -0.0805
 7810W        W50801  27.329  11.261  18.206 -0.1431  0.1260 -0.2151
 7811W        W50802  28.618   8.036  19.600  0.2418  0.0135 -0.0066
 7812W        W50803   2.465  29.442  14.879 -0.0049 -0.2834 -0.0682
 7813W        W50804  29.654  30.080  15.398 -0.1184  0.1260  0.1395
 7814W        W50805   0.597   2.596  21.892  0.1753  0.0275 -0.0087
 7815W        W50806  32.218   8.532  24.444 -0.2816 -0.1831  0.2334
 7816W        W50807  31.744   3.138  16.179 -0.0291 -0.1247 -0.1150
 7817W        W50808  29.975   2.933  21.091 -0.0667 -0.1504 -0.0940
 7818W        W50809   9.520  12.267  21.734  0.5066  0.1971 -0.0650
 7819W        W50810  15.100  17.010  15.119 -0.0256 -0.1516 -0.0489
 7820W        W50811  13.772   9.611  25.448 -0.1532 -0.1891 -0.0393
 7821W        W50812  10.565  28.618  24.786 -0.1273 -0.2334  0.1886
 7822W        W50813  29.808  33.734  17.149 -0.0489 -0.0464 -0.0238
 7823W        W50814  24.485  31.510  20.092  0.3081  0.3115 -0.1166
 7824W        W50815  30.306   5.239   4.261 -0.0569  0.1093 -0.0530
 7825W        W50816  29.818  22.486  16.590 -0.0917  0.0381  0.0853
 7826W        W50817   0.155  34.672  17.252  0.2937  0.0434 -0.1199
 7827W        W50818  10.881  28.702  20.221 -0.2541 -0.0900  0.3045
 7828W        W50819   3.368  32.785  16.733  0.3040 -0.0725 -0.2884
 7829W        W50820   4.222  16.963   2.100  0.0494 -0.1463  0.0950
 7830W        W50821  33.102  27.000  14.210  0.1731  0.0443  0.1997
 7831W        W50822  33.855   0.288  25.983 -0.0585  0.1165  0.2570
 7832W        W50823  22.963   5.566  24.306 -0.2970 -0.1119  0.0621
 7833W        W50824  19.003  17.198  23.238 -0.1356 -0.0113 -0.4673
 7834W        W50825  27.678  11.301  28.103  0.0522 -0.2298  0.3080
 7835W        W50826  28.865  31.205  18.091 -0.3209 -0.2054  0.1922
 7836W        W50827  25.562   5.294  16.882  0.1364  0.1285  0.1267
 7837W        W50828   0.530  31.468  14.256  0.4463  0.0453  0.0110
 7838W        W50829  22.228   6.785  14.993 -0.2056  0.0398  0.1393
 7839W        W50830  21.808  32.980  20.789 -0.2064 -0.1897 -0.2462
 7840W        W50831   1.443   4.291   5.139 -0.2100  0.4233 -0.2367
 7841W        W50832   8.942  21.622  26.130  0.4789 -0.2107 -0.2149
 7842W        W50833  27.668   8.011   5.029  0.0889 -0.0002 -0.0031
 7843W        W50834   0.793  26.574  22.234  0.1133  0.0122  0.1744
 7844W        W50835  21.825   0.572  13.887 -0.1061 -0.0232 -0.0891
 7845W        W50836  12.649  19.514   3.479  0.0377 -0.2497  0.0098
 7846W        W50837  30.558  22.668  16.232  0.2264 -0.1079 -0.0449
 7847W        W50838   6.170  23.100  19.444  0.0147 -0.2420  0.2732
 7848W        W50839  24.746   7.988  25.258 -0.1370 -0.2826  0.0386
 7849W        W50840  10.807   9.725  23.367  0.3295 -0.1373  0.0851
 7850W        W50841  14.536  24.438   2.578  0.1020 -0.3000 -0.0434
 7851W        W50842   0.123   7.870   1.632  0.0993  0.1111 -0.1400
 7852W        W50843  31.551  20.740  17.004 -0.0920  0.2626 -0.0100
 7853W        W50844  33.423  27.344  15.004 -0.0941 -0.2235 -0.0163
 7854W        W50845   8.232  25.572   9.010 -0.0794  0.1312  0.1204
 7855W        W50846   0.945  21.036  20.841 -0.0004  0.1879 -0.0371
 7856W        W50847  11.615   0.298  19.087  0.1561 -0.0401  0.1730
 7857W        W50848   6.252   6.971   2.313  0.1724  0.4998  0.0999
 7858W        W50849  29.514   8.521  24.183 -0.2524 -0.0312  0.0297
 7859W        W50850  18.898  18.916   7.934 -0.2160  0.1956 -0.3532
 7860W        W50851   9.640   6.766   5.761  0.1107 -0.1137  0.0790
 7861W        W50852  29.151   1.132  21.172  0.2684  0.1020  0.1499
 7862W        W50853  32.925  19.061  27.639  0.2716  0.4481 -0.0403
 7863W        W50854   7.492   8.464   5.700  0.0857  0.0357  0.1431
 7864W        W50855   2.371  33.721   0.375 -0.0820 -0.0022  0.1276
 7865W        W50856   4.674   6.453  17.319  0.2179 -0.0300  0.2141
 7866W        W50857  27.450  32.392  28.150 -0.2248 -0.3655 -0.1440
 7867W        W50858   5.706  29.382  29.191 -0.1350 -0.1743 -0.1338
 7868W        W50859   2.095  17.918   0.723  0.0099 -0.1104 -0.0855
 7869W        W50860  24.549   5.817  26.528  0.1132 -0.0476 -0.1264
 7870W        W50861  32.336  12.897  18.440  0.2980  0.2042 -0.0966
 7871W        W50862  26.269  13.217  24.862  0.1536  0.2835 -0.1766
 7872W        W50863   4.534  20.313  15.380  0.2130 -0.0276  0.0550
 7873W        W50864  27.437   4.358  26.837 -0.2329  0.4118 -0.1316
 7874W        W50865  29.528   7.084   6.729 -0.0969  0.0278  0.0463
 7875W        W50866  22.175  13.813  14.035 -0.2107  0.1898 -0.0849
 7876W        W50867   6.342  14.937  24.177  0.0715  0.2887  0.1497
 7877W        W50868  31.156  30.569  26.196 -0.2002  0.2803  0.1776
 7878W        W50869   4.305   1.902  22.893  0.0695 -0.3078 -0.0725
 7879W        W50870  24.494  12.728  15.751 -0.2191  0.1029  0.0089
 7880W        W50871   6.356  10.862  10.517  0.1657  0.2310  0.2757
 7881W        W50872  21.190  16.779   7.580 -0.0264  0.2810 -0.1501
 7882W        W50873  32.722  15.505  17.309  0.2135  0.0256 -0.0511
 7883W        W50874  27.832  26.012  17.543  0.2975 -0.0205 -0.2051
 7884W        W50875   1.538  34.262  17.153 -0.0632 -0.0730  0.1309
 7885W        W50876  10.820  13.492  18.391  0.0485  0.0963 -0.1524
 7886W        W50877  31.066   1.729  26.047  0.2813  0.0096 -0.0106
 7887W        W50878   1.797  24.284  16.838 -0.1416 -0.3158 -0.0424
 7888W        W50879  26.045   1.303  13.667 -0.1547  0.1755 -0.1462
 7889W        W50880  31.387  18.041  20.200  0.0394 -0.1983  0.1486
 7890W        W50881  33.854   8.216  20.900 -0.0029  0.0215 -0.0544
 7891W        W50882  31.620  10.238  23.103  0.4157 -0.0896 -0.1637
 7892W        W50883   3.326  11.612  23.293  0.0409  0.1287 -0.2694
 7893W        W50884  10.619  22.622   6.079 -0.1303  0.1320  0.2913
 7894W        W50885   3.661   2.211  23.468  0.1177 -0.0627 -0.0823
 7895W        W50886  25.930  19.027  20.434 -0.2175 -0.3333 -0.0193
 7896W        W50887  28.409  19.097   8.504  0.0435 -0.0818  0.4875
 7897W        W50888   0.794   4.409  23.135  0.0754  0.0722  0.1370
 7898W        W50889  25.866  17.534  13.880  0.2207  0.0514  0.0726
 7899W        W50890   9.415  28.735  26.053 -0.0700  0.0647  0.4475
 7900W        W50891   1.717   1.889  24.775  0.1600 -0.1494 -0.0091
 7901W        W50892  11.356  28.464  20.081  0.1679  0.0498  0.4351
 7902W        W50893   1.899   0.769  19.799 -0.0685 -0.0931 -0.1311
 7903W        W50894   3.912  18.733   0.015 -0.1916  0.1177  0.3208
 7904W        W50895  28.524   6.755   6.630  0.0365  0.0182 -0.2719
 7905W        W50896  17.976  14.377  19.957  0.0345  0.1353 -0.2110
 7906W        W50897   5.040  11.912  21.701 -0.0287 -0.0574 -0.0619
 7907W        W50898   1.425  10.405  28.146  0.0698  0.1805  0.0417
 7908W        W50899   3.851   1.518  24.632  0.1231 -0.3601  0.0013
 7909W        W50900   1.070  30.451  13.442  0.3140 -0.1630  0.0348
 7910W        W50901   0.652  24.561  26.036 -0.4193 -0.1590  0.1120
 7911W        W50902  14.553  11.393  21.023 -0.1426 -0.1221  0.2528
 7912W        W50903  34.419  19.818  16.404  0.1143  0.0411  0.1724
 7913W        W50904  30.877  24.734  15.917 -0.1840 -0.1569  0.1830
 7914W        W50905   4.195  12.559  24.050 -0.0339 -0.1867 -0.3254
 7915W        W50906  23.166  10.654  26.031 -0.0895 -0.5841  0.1965
 7916W        W50907   9.790  12.698   8.612  0.1112  0.0649 -0.1173
 7917W        W50908   2.753   5.272  22.141 -0.1911 -0.2842 -0.0675
 7918W        W50909  19.625  16.894  13.714 -0.1125 -0.1273 -0.2253
 7919W        W50910  25.132   1.798  12.201 -0.1096 -0.0875  0.0510
 7920W        W50911   0.163   7.109  19.658 -0.1454 -0.1569  0.0449
 7921W        W50912  24.141  11.132  23.453  0.0266 -0.0451  0.3033
 7922W        W50913  31.629  19.411  16.387  0.0984  0.3529  0.0019
 7923W        W50914   4.221  13.132  23.378 -0.1485 -0.2628  0.1611
 7924W        W50915  22.017   2.777  15.583  0.0296  0.0380 -0.0954
 7925W        W50916  34.736  24.073   7.598 -0.2131 -0.1087  0.3326
 7926W        W50917  22.317   9.973  20.407 -0.1785  0.0850 -0.0266
 7927W        W50918   3.720  19.673   1.058  0.2630 -0.1572 -0.2681
 7928W        W50919   8.535  30.992  15.286  0.1496 -0.1926 -0.3358
 7929W        W50920  33.384   2.883  26.787  0.3612  0.1449  0.2406
 7930W        W50921  28.770   5.957  16.749 -0.0343 -0.1964 -0.0041
 7931W        W50922   5.241  27.261  24.059  0.1978 -0.0765 -0.0446
 7932W        W50923   2.278  13.571  20.453  0.1814 -0.0824  0.0977
 7933W        W50924  13.392   3.173  23.966 -0.1464  0.2429 -0.1501
 7934W        W50925   0.198  31.451   9.399  0.0445 -0.4062  0.1023
 7935W        W50926  29.360  31.343  17.350 -0.1046  0.2917  0.1504
 7936W        W50927  33.210  11.499  21.071  0.2738  0.0268  0.2612
 7937W        W50928  30.092   5.976  26.858 -0.0775  0.2098  0.2411
 7938W        W50929  11.250  15.136  25.126 -0.1958 -0.0190  0.0819
 7939W        W50930   3.082   9.635  28.292  0.3028  0.0334  0.0660
 7940W        W50931   0.783  27.289  19.264  0.2425 -0.0329  0.1885
 7941W        W50932  20.716  21.510  23.285  0.2544 -0.1606 -0.2507
 7942W        W50933   0.822   6.639  20.064  0.1374  0.2410 -0.4926
 7943W        W50934  27.607   0.848  27.172  0.3097 -0.0043 -0.0728
 7944W        W50935   4.187   6.102  22.992 -0.0809  0.3143 -0.3956
 7945W        W50936   1.740  12.694  21.174  0.1281 -0.0662  0.0134
 7946W        W50937   7.695   3.654  16.070  0.2692 -0.1209 -0.2909
 7947W        W50938   7.131   2.845   3.912  0.1175 -0.0738 -0.0779
 7948W        W50939  18.751   4.556  16.853  0.2142 -0.2377  0.0506
 7949W        W50940  10.006  16.636   0.944  0.3119  0.0223  0.1428
 7950W        W50941  10.628  10.444  26.316  0.0104  0.0739 -0.1937
 7951W        W50942   2.790  11.111  17.086  0.0550  0.1873  0.1493
 7952W        W50943  24.345  14.095  15.864  0.0574  0.0856 -0.1322
 7953W        W50944   5.406  14.192  18.545 -0.1343 -0.3929 -0.2248
 7954W        W50945   5.630  19.833  15.710 -0.0311 -0.0352  0.0881
 7955W        W50946  13.194   3.283  15.756 -0.1977  0.1554  0.0980
 7956W        W50947  24.864  20.553  22.777  0.4205 -0.1783  0.2251
 7957W        W50948  12.670   9.011   3.076 -0.0646 -0.0618 -0.4076
 7958W        W50949   4.325  14.350  15.426  0.0827  0.2596 -0.1863
 7959W        W50950  28.625  19.743  18.493 -0.1079  0.0510 -0.1139
 7960W        W50951   1.497  17.296  19.348  0.0920  0.3005  0.2549
 7961W        W50952   4.106   8.510   0.971  0.2713  0.0622 -0.1240
 7962W        W50953   2.167   5.900  24.558  0.0358  0.2573  0.0661
 7963W        W50954  25.022  31.797  18.087 -0.0160 -0.0000 -0.1917
 7964W        W50955  19.323  31.295  19.663 -0.2070  0.1171 -0.0297
 7965W        W50956  32.626  10.281  24.025  0.0043  0.1037  0.0277
 7966W        W50957  24.109  25.611  18.459  0.1510 -0.0397  0.0827
 7967W        W50958   0.660   7.281   1.581 -0.2197  0.1664 -0.0299
 7968W        W50959  25.457  10.722  25.403 -0.2333 -0.1136  0.1416
 7969W        W50960  20.787  30.340  24.779  0.0960 -0.1634  0.3451
 7970W        W50961  22.765  32.727  27.788  0.2744 -0.0525  0.0252
 7971W        W50962   1.071  18.869  27.757 -0.1094 -0.3448  0.1398
 7972W        W50963  24.790   3.353  16.417 -0.2964  0.1504  0.0595
 7973W        W50964   2.233  12.046  26.557  0.0773  0.0413  0.3512
 7974W        W50965  13.354   1.815   3.572 -0.1368  0.0146 -0.0335
 7975W        W50966  18.072   6.362  14.975 -0.1372 -0.0804  0.4263
 7976W        W50967  10.574   9.366  28.143 -0.3712 -0.1421  0.0684
 7977W        W50968  28.664  18.822  26.776  0.0028 -0.2133 -0.0508
 7978W        W50969  11.462   0.459  16.360 -0.4815 -0.0923  0.0351
 7979W        W50970   9.311  34.284   7.323  0.1267 -0.0567  0.0825
 7980W        W50971  12.701  11.241  21.035  0.0510  0.2729 -0.1221
 7981W        W50972  23.681  34.663  18.520  0.3494 -0.1278 -0.0691
 7982W        W50973  21.353  11.860  27.586 -0.1360 -0.2017 -0.0661
 7983W        W50974  29.603   7.676  18.848 -0.1010 -0.0485 -0.1849
 7984W        W50975   0.570  18.851  20.107 -0.0234  0.1076  0.0027
 7985W        W50976   4.465  32.128  19.117 -0.3609  0.0208 -0.1302
 7986W        W50977  16.476  10.296  18.306  0.2536 -0.2164 -0.0941
 7987W        W50978  13.278  11.533  20.461 -0.2357 -0.1353  0.4498
 7988W        W50979   8.788  13.542  15.867 -0.1993  0.1557 -0.0251
 7989W        W50980   1.140   0.755  22.775  0.3772 -0.1537 -0.4140
 7990W        W50981   4.976   7.121  26.841  0.3137  0.1892  0.0225
 7991W        W50982  31.249  18.973  24.127  0.0715 -0.1215  0.2267
 7992W        W50983   6.081  12.447  27.938  0.3955 -0.1133  0.0057
 7993W        W50984  25.303  17.434  17.733  0.0398  0.0544  0.0218
 7994W        W50985   9.035  11.920  21.060  0.1202 -0.0258  0.0701
 7995W        W50986   8.416   1.863  18.894  0.2514  0.2969 -0.0695
 7996W        W50987  13.607  16.070  26.777 -0.1122 -0.1088 -0.2091
 7997W        W50988  29.256   2.149  14.366  0.0230  0.0863 -0.1720
 7998W        W50989  15.934   0.084  18.298  0.2719 -0.1057 -0.3069
 7999W        W50990  27.171   6.276   0.765  0.1324  0.1106  0.2944
 8000W        W50991  27.861   0.528  23.941 -0.0833  0.0718 -0.0102
 8001W        W50992   1.949  26.835  26.059 -0.1888 -0.0460  0.1357
 8002W        W50993   4.529  17.097  21.584 -0.0172 -0.1092  0.1818
 8003W        W50994  29.107  24.419  21.971  0.0027 -0.4031  0.1540
 8004W        W50995   9.922  17.990  19.516  0.1804  0.1380  0.1021
 8005W        W50996  33.275  20.063  16.861  0.2928  0.0439  0.2137
 8006W        W50997  32.304   2.966  25.243 -0.2868  0.1204 -0.1457
 8007W        W50998   4.230  24.468  25.454 -0.2963 -0.0404 -0.1134
 8008W        W50999   5.252  11.628  17.928 -0.1294  0.1108  0.1379
 8009W        W51000  25.068   4.673  20.072 -0.0098 -0.1351 -0.0630
 8010W        W51001  13.877  10.510  25.857  0.1050 -0.1269  0.3713
 8011W        W51002  27.766  25.670  14.998  0.3875  0.0507  0.2468
 8012W        W51003  14.224  31.485  17.236  0.2914 -0.1479 -0.0526
 8013W        W51004  26.049   2.877  17.791  0.1201  0.1058  0.0410
 8014W        W51005  32.607   7.249   0.936 -0.0590  0.0916 -0.0835
 8015W        W51006  11.371   0.534  23.002 -0.3037 -0.0534 -0.4672
 8016W        W51007  30.361  15.791  21.151 -0.1209  0.0018 -0.3853
 8017W        W51008  32.352  12.974  23.998  0.1977  0.0300  0.0250
 8018W        W51009  26.921  11.656  24.584  0.1980  0.3652  0.0655
 8019W        W51010   6.194  30.494  20.977  0.0412  0.1194 -0.0884
 8020W        W51011  16.235   9.201  23.971  0.0318  0.2304 -0.0720
 8021W        W51012   9.332  12.713  21.848  0.1290 -0.0354  0.2363
 8022W        W51013   1.815   1.927  15.264 -0.3767  0.1114 -0.1981
 8023W        W51014  17.985   6.711   8.226 -0.0678  0.1231 -0.0575
 8024W        W51015  26.747  12.304   0.276  0.2327 -0.3113 -0.2727
 8025W        W51016  28.366  18.265  16.111  0.3350  0.0435 -0.0583
 8026W        W51017  27.959   2.670  28.879  0.0907 -0.0652 -0.0106
 8027W        W51018  31.174  33.613  21.971 -0.1400 -0.1657  0.2232
 8028W        W51019  33.218   5.285  20.046  0.1139 -0.0003 -0.1057
 8029W        W51020  17.921  23.001  16.095  0.2635 -0.0294  0.1577
 8030W        W51021   0.260  13.555   6.271  0.0141  0.1165 -0.0133
 8031W        W51022  32.553  14.631  16.093  0.2089 -0.0450  0.2075
 8032W        W51023  30.338  31.513  15.460  0.2257  0.1993  0.0861
 8033W        W51024   2.101  23.201  14.583 -0.2151 -0.2114  0.0599
 8034W        W51025  32.707  10.521  23.112 -0.1113  0.0943 -0.2853
 8035W        W51026  28.999  25.507   2.529  0.3680 -0.3436  0.0667
 8036W        W51027   2.255  12.911  27.618  0.1510  0.0221  0.0603
 8037W        W51028   5.495  32.813  19.319 -0.0730  0.2412 -0.1522
 8038W        W51029   3.672   3.893   2.268 -0.1262  0.1835  0.1996
 8039W        W51030   7.749   4.503  17.388 -0.0658 -0.0656  0.1132
 8040W        W51031   5.594   3.234  23.647 -0.0215 -0.1556 -0.1673
 8041W        W51032  15.644  19.214  14.402  0.2715  0.2514  0.1394
 8042W        W51033   1.269  27.545  27.285  0.3447  0.2081 -0.1301
 8043W        W51034   8.751   5.239  19.617 -0.0635 -0.0624 -0.2513
 8044W        W51035  34.047  24.620   3.398 -0.0646  0.3057 -0.1342
 8045W        W51036  28.971  15.216   4.387  0.2572  0.0216 -0.0547
 8046W        W51037   9.748  23.504  15.248  0.0011  0.0472 -0.2774
 8047W        W51038  14.660  24.263  19.087  0.3228  0.0527  0.2129
 8048W        W51039  12.056  16.064  14.563  0.0093 -0.1247  0.0609
 8049W        W51040  18.154  23.464   3.895 -0.1157  0.0318  0.2134
 8050W        W51041  31.619  31.131   4.271  0.1918 -0.0973  0.2826
 8051W        W51042   1.958   8.900  17.427 -0.1209  0.1493 -0.2217
 8052W        W51043  24.134   5.107  25.939 -0.2757  0.3282 -0.1706
 8053W        W51044  28.272  22.445  15.079  0.0455  0.0664  0.3423
 8054W        W51045  27.036   0.059   5.203 -0.0552  0.0165  0.1799
 8055W        W51046  13.093  10.099  26.526 -0.0393  0.2153 -0.3086
 8056W        W51047   4.360  12.147  27.396 -0.0361  0.5341 -0.1812
 8057W        W51048   7.885  28.901   0.391  0.1798  0.1443 -0.2890
 8058W        W51049   1.675   4.202  27.723  0.1122  0.0231  0.1276
 8059W        W51050   1.229  14.319  15.816 -0.1647  0.1169  0.0037
 8060W        W51051  12.053  33.764  29.246 -0.2316  0.0872  0.0685
 8061W        W51052   0.258   6.655  26.279  0.2267 -0.0666 -0.0404
 8062W        W51053  30.557  30.512   4.838  0.0914  0.1704 -0.0422
 8063W        W51054   1.222   2.723  14.492 -0.1333  0.0289  0.0486
 8064W        W51055   8.192  12.430  26.643  0.0383  0.3925  0.3682
 8065W        W51056  34.680  33.642   6.012  0.3059 -0.1654 -0.1207
 8066W        W51057   3.894  21.114   1.456 -0.0160  0.0343  0.1281
 8067W        W51058   9.276   5.261  29.256  0.1470  0.3220 -0.0657
 8068W        W51059   3.911   2.949  22.242  0.1252 -0.1237  0.1647
 8069W        W51060  22.984   7.659  17.603 -0.1359 -0.2779 -0.1294
 8070W        W51061   4.715  11.814   1.016  0.0343 -0.1415  0.0280
 8071W        W51062  11.801  16.606  18.086 -0.2557  0.0806 -0.1564
 8072W        W51063   6.777   3.621  17.477 -0.0771 -0.0263  0.0317
 8073W        W51064   2.560  11.157  27.812 -0.1511 -0.0640  0.0864
 8074W        W51065  32.950  13.959  17.268  0.0241  0.2086 -0.0749
 8075W        W51066  27.371  15.246   6.623 -0.1905  0.1955 -0.0914
 8076W        W51067  11.371  18.846   1.276 -0.1576  0.2445 -0.0898
 8077W        W51068  21.303   3.367   1.819 -0.0786 -0.0526 -0.0557
 8078W        W51069  12.305  23.715   3.149  0.3009 -0.0935  0.1588
 8079W        W51070   4.742  10.021  15.609 -0.0829 -0.1621  0.1230
 8080W        W51071  21.977  21.176   0.868 -0.1197 -0.1273 -0.0273
 8081W        W51072  24.907  31.194   5.089  0.0325 -0.1799  0.0178
 8082W        W51073   3.841  31.355  20.757 -0.1145 -0.0175  0.4279
 8083W        W51074   1.609  11.392   7.548 -0.4397  0.3038 -0.0484
 8084W        W51075   9.809   5.343   8.026 -0.0687  0.1031  0.0054
 8085W        W51076  34.779   3.990   4.425  0.1958  0.0671  0.1223
 8086W        W51077  29.443   2.455  14.785 -0.1357  0.0691 -0.0135
 8087W        W51078   9.188   2.887   6.642 -0.1078  0.0551  0.3240
 8088W        W51079  11.521   1.847  26.506 -0.2291  0.1256 -0.0077
 8089W        W51080  31.088   0.481  14.061  0.2177  0.1823  0.0712
 8090W        W51081   3.068   8.404  15.158 -0.0871 -0.1339 -0.1832
 8091W        W51082  32.834  32.728  14.652 -0.3051  0.1232 -0.0439
 8092W        W51083   8.409  10.153   1.772 -0.1581 -0.1216  0.1667
 8093W        W51084  11.967  31.740  28.096  0.1080  0.1900  0.0005
 8094W        W51085   1.272  11.854  17.678  0.0797  0.3517 -0.0936
 8095W        W51086   0.449  25.926   1.605 -0.0704  0.0253  0.0172
 8096W        W51087  30.394  30.986  22.645 -0.0610  0.1160 -0.1794
 8097W        W51088   1.267  33.328  23.751  0.1782  0.4114  0.3678
 8098W        W51089   8.544  31.976   3.436 -0.1336 -0.0872  0.0071
 8099W        W51090   5.463  33.901  23.321 -0.2631 -0.0054 -0.2314
 8100W        W51091  30.948   4.798  13.400  0.1261  0.0445 -0.1552
 8101W        W51092  26.613   0.242   1.509  0.1747 -0.4914 -0.0267
 8102W        W51093  24.018  30.589  20.135  0.1494  0.2781 -0.1778
 8103W        W51094   5.885  24.016   0.660  0.0401 -0.1958  0.1492
 8104W        W51095  21.276   2.514  16.011 -0.0434 -0.0710 -0.1366
 8105W        W51096   3.889  23.171  10.178  0.1911 -0.1290 -0.1158
 8106W        W51097   8.342  29.695  17.297  0.3706 -0.1738  0.2534
 8107W        W51098  28.451  11.870  23.305  0.0506 -0.2879 -0.0704
 8108W        W51099  27.850   2.657  19.476 -0.0635  0.1034  0.1212
 8109W        W51100   6.388  10.548  17.440  0.1480 -0.0555 -0.3194
 8110W        W51101  23.033   1.705  18.160 -0.1931 -0.0690  0.3101
 8111W        W51102  22.795   1.950   0.030 -0.2229  0.1647  0.0053
 8112W        W51103   1.981   6.132   5.472 -0.1595 -0.1848 -0.3138
 8113W        W51104   2.010   4.887   3.429 -0.2174 -0.1429 -0.0515
 8114W        W51105  31.424   5.590  15.134  0.1734 -0.1238 -0.0632
 8115W        W51106  33.253  13.690  28.419 -0.0825 -0.2704 -0.1366
 8116W        W51107  17.588   4.209   1.478 -0.1082  0.1009 -0.2230
 8117W        W51108  31.879  21.254  20.751  0.1500 -0.0505 -0.1118
 8118W        W51109   3.382   4.834  18.957 -0.1681  0.1141  0.3656
 8119W        W51110  32.942  15.064  26.877  0.0584  0.2211  0.2239
 8120W        W51111  23.373   6.068  25.715 -0.0534 -0.1210  0.0340
 8121W        W51112   6.015  11.095  28.591  0.0115 -0.0858  0.1689
 8122W        W51113  28.840  21.364  28.328 -0.0935  0.0990 -0.2045
 8123W        W51114  13.941   4.521   0.375 -0.2697 -0.0219  0.0544
 8124W        W51115  14.657   1.288  20.422 -0.0783 -0.0870  0.2142
 8125W        W51116   0.197   1.805  20.867 -0.0973 -0.0475 -0.2214
 8126W        W51117  30.789  14.814  27.120 -0.1189  0.0388  0.0816
 8127W        W51118   5.086  13.163  21.136  0.0583  0.0263 -0.1037
 8128W        W51119  28.132   1.898   8.967  0.3299 -0.0666 -0.1847
 8129W        W51120  19.350   4.944  28.382  0.3101 -0.0215 -0.1193
 8130W        W51121   2.089  13.876   4.443  0.2023  0.0550 -0.0957
 8131W        W51122   2.405  16.335   3.588  0.0442  0.4185 -0.0367
 8132W        W51123  13.547  10.610  19.074 -0.0598 -0.1938 -0.2547
 8133W        W51124  22.895  25.179   1.986 -0.0167 -0.0494 -0.0392
 8134W        W51125   4.295  21.268  18.973 -0.0835  0.1114  0.0866
 8135W        W51126   3.051  34.109  20.577  0.2589 -0.0805 -0.1660
 8136W        W51127   9.903  11.419   7.220 -0.1057  0.1618 -0.0707
 8137W        W51128   3.459   7.954  27.400  0.0192 -0.0109 -0.1052
 8138W        W51129  14.799   0.639  24.889  0.1472  0.2247  0.1434
 8139W        W51130  25.380  12.963  26.953 -0.3494  0.2604 -0.2031
 8140W        W51131   2.299   9.689  28.413 -0.1108 -0.1354  0.0381
 8141W        W51132  26.561  15.326  18.842 -0.1702 -0.1972  0.0325
 8142W        W51133  22.301   9.045  13.492 -0.0337 -0.1750 -0.2265
 8143W        W51134  12.272  24.942   1.809 -0.2687 -0.2225 -0.0643
 8144W        W51135  10.992   7.229  26.976 -0.1565 -0.0824 -0.2010
 8145W        W51136  33.551  18.481  25.235  0.0667 -0.0873 -0.3248
 8146W        W51137   5.891  26.101  17.289  0.0336 -0.0921  0.1521
 8147W        W51138   9.549  34.292   6.343  0.1347 -0.0225 -0.1837
 8148W        W51139  23.767   1.598  18.226  0.0548 -0.0985  0.0650
 8149W        W51140   5.229   7.270   2.319  0.1558  0.6053 -0.2818
 8150W        W51141  15.257  15.607  23.521 -0.3015  0.0719  0.0006
 8151W        W51142  25.441  13.114  18.209  0.0448  0.3064 -0.2434
 8152W        W51143   4.747  31.806  24.599 -0.0571  0.2364  0.1185
 8153W        W51144  13.181  19.870   3.274  0.1877 -0.1430  0.0628
 8154W        W51145  14.640  21.362  22.464  0.0480 -0.0435  0.1471
 8155W        W51146  34.422  30.750  18.810  0.0593  0.3690  0.1229
 8156W        W51147   6.162   8.426  14.211 -0.4020  0.0311 -0.2534
 8157W        W51148  30.392  18.370  24.799 -0.0255  0.2073 -0.2155
 8158W        W51149  25.571  20.666   8.876  0.1258 -0.0304 -0.3024
 8159W        W51150   8.484  12.868  15.747  0.0741 -0.1090  0.1390
 8160W        W51151   5.265  29.698  14.747  0.2296  0.0661  0.1629
 8161W        W51152   0.256  26.543   2.617 -0.0965  0.2239 -0.1039
 8162W        W51153  14.244  17.384  16.641  0.3023  0.0795  0.1427
 8163W        W51154   2.668   6.198  26.084 -0.4776 -0.1083 -0.1357
 8164W        W51155   0.111  34.591   4.784 -0.0612  0.0878  0.0719
 8165W        W51156  30.835   4.630  22.523  0.0838  0.0857  0.0547
 8166W        W51157   6.574  13.421  26.646  0.1008 -0.1761  0.0015
 8167W        W51158  13.416  18.018  21.103 -0.3202 -0.1036 -0.3744
 8168W        W51159  25.600  30.764  15.138  0.0091  0.1290 -0.0356
 8169W        W51160   0.277   2.812  18.741  0.2253 -0.3895 -0.1158
 8170W        W51161   6.931  11.564  26.752 -0.1008  0.3811 -0.1202
 8171W        W51162  33.622  32.752  21.790 -0.0639 -0.0805 -0.0066
 8172W        W51163  17.813   9.034  14.397  0.0145  0.2564  0.2611
 8173W        W51164   3.496  31.931  23.119  0.0964  0.1075 -0.0760
 8174W        W51165  34.210   2.173  21.776  0.2951  0.0560 -0.1600
 8175W        W51166  30.752  19.225  14.528  0.1521 -0.1298 -0.1533
 8176W        W51167   5.598  17.273  22.418  0.1960  0.0748  0.3246
 8177W        W51168   4.336   5.844  16.574 -0.1437  0.0838  0.3438
 8178W        W51169   1.093  17.317  26.875 -0.1059 -0.0911  0.1806
 8179W        W51170  10.682   0.782  26.655  0.3641  0.2205 -0.0175
 8180W        W51171  24.851  10.790   5.198 -0.2356 -0.1503  0.0230
 8181W        W51172  18.591  13.791   8.537  0.2961 -0.2023  0.0304
 8182W        W51173  26.752   2.707  15.447 -0.1832  0.1759  0.1243
 8183W        W51174  20.818  24.226  21.756  0.2083 -0.0376 -0.0232
 8184W        W51175   4.316  10.304  22.228 -0.0461 -0.1934  0.0129
 8185W        W51176  26.911  34.123  21.269 -0.0729  0.1583  0.1788
 8186W        W51177  13.938  30.559  22.002 -0.3435 -0.1336 -0.2572
 8187W        W51178   0.514   9.882  15.568 -0.4571 -0.3212 -0.2430
 8188W        W51179   0.984   1.087   0.797  0.0662 -0.0512  0.0284
 8189W        W51180   6.077   2.063  10.023 -0.1276 -0.1570 -0.2227
 8190W        W51181   6.329   8.706  14.939 -0.2592  0.3514 -0.0937
 8191W        W51182  25.690   5.069  19.789 -0.2264 -0.1314  0.0369
 8192W        W51183  28.801   2.825  22.975  0.1184  0.1607  0.1197
 8193W        W51184  21.171  11.144  22.939 -0.0450  0.2083 -0.1921
 8194W        W51185  11.632  31.473   3.651  0.2508 -0.0913  0.0764
 8195W        W51186  29.473  20.948   5.192 -0.0649 -0.2572 -0.1392
 8196W        W51187   0.394   6.324  27.180 -0.0756  0.3317 -0.1109
 8197W        W51188   3.098  29.324  16.569  0.2412 -0.1674  0.1317
 8198W        W51189   7.896   5.288  24.665 -0.2586  0.4359 -0.0139
 8199W        W51190  18.237  31.112  22.461  0.0968  0.2962  0.0052
 8200W        W51191  30.259   9.637  27.022  0.0789  0.3091  0.2237
 8201W        W51192  26.793  13.104  18.889  0.0186 -0.1868 -0.0597
 8202W        W51193  31.255   4.386  22.361  0.0033  0.1474 -0.1600
 8203W        W51194  29.608   0.439  17.055 -0.0250  0.0629 -0.1676
 8204W        W51195   1.520   7.208  21.919  0.0166 -0.0011  0.2242
 8205W        W51196  24.462  29.619  17.085 -0.1544  0.2917 -0.0663
 8206W        W51197  11.201   6.288  19.103  0.1615  0.2915  0.2473
 8207W        W51198  29.140  28.104  17.031  0.0626  0.4691 -0.0718
 8208W        W51199   7.540  23.747  24.173 -0.2822  0.0336 -0.1482
 8209W        W51200  24.376  12.758  22.666  0.1686  0.0693  0.0991
 8210W        W51201  31.597  16.171  21.585  0.0136  0.1866 -0.2188
 8211W        W51202   5.797   5.590   6.357  0.4682  0.1098  0.0307
 8212W        W51203  28.428  14.553  22.030 -0.2341 -0.0189  0.6215
 8213W        W51204  31.347   1.346  20.417 -0.0073  0.0265 -0.0016
 8214W        W51205  25.478  27.767  17.643  0.2857  0.0524  0.0255
 8215W        W51206  19.489  33.392  19.235 -0.1206 -0.2242 -0.2008
 8216W        W51207   6.057   9.390  22.729 -0.0601 -0.4151  0.0049
 8217W        W51208  34.714  22.921   1.678 -0.0389  0.5265  0.1112
 8218W        W51209  18.432  13.827  29.256 -0.1386 -0.2845  0.2050
 8219W        W51210   6.256  33.367  23.395 -0.1854  0.0922 -0.0852
 8220W        W51211  21.327  14.142  26.024 -0.2950  0.2033  0.1287
 8221W        W51212  34.667  14.650   2.541  0.0993  0.0319 -0.1206
 8222W        W51213  11.566   0.253  25.221 -0.1952 -0.2041  0.3188
 8223W        W51214  10.919  18.833  19.466  0.2024  0.1050 -0.0866
 8224W        W51215  30.992   2.288   4.215  0.0547  0.2834 -0.3589
 8225W        W51216  30.182  15.545  26.053  0.1556 -0.3027 -0.0850
 8226W        W51217   0.004  23.448  24.275 -0.0480  0.2263  0.2646
 8227W        W51218  12.140   1.285   4.098 -0.0547  0.0727 -0.1196
 8228W        W51219  13.236  34.411  21.105 -0.2414 -0.0578 -0.1846
 8229W        W51220  26.738  27.829  25.631 -0.0676 -0.3258  0.0203
 8230W        W51221  14.588  11.658  28.719  0.1196  0.3605 -0.2528
 8231W        W51222   0.664  30.949  14.263  0.0583  0.2103 -0.1394
 8232W        W51223   7.104  17.898   5.115 -0.1115 -0.0565 -0.3366
 8233W        W51224  21.902  20.748   5.544  0.0128  0.1030  0.1513
 8234W        W51225   8.675  12.592   2.710  0.1976  0.1860  0.3674
 8235W        W51226  33.807   3.429   9.557 -0.1133  0.0042  0.0954
 8236W        W51227  28.304  32.455   0.846  0.1131 -0.0844  0.0526
 8237W        W51228   3.794  33.960  22.658  0.0995  0.1894  0.1128
 8238W        W51229   0.392   3.766  24.545 -0.1510 -0.2795  0.2463
 8239W        W51230   7.425  12.291  24.729 -0.0693 -0.0090 -0.2170
 8240W        W51231   9.658  21.528  20.906 -0.2523 -0.3613  0.3058
 8241W        W51232  21.752  15.095  16.828 -0.1183  0.0460  0.0445
 8242W        W51233  23.488   0.404   2.990  0.0925 -0.2426  0.1187
 8243W        W51234  11.448  32.085   9.825 -0.1890 -0.0197  0.0025
 8244W        W51235  34.240  32.982  10.072 -0.0696  0.0029 -0.0777
 8245W        W51236   3.186   7.006  18.834  0.0438  0.0188 -0.2450
 8246W        W51237  31.799  14.168   8.930 -0.1728 -0.0222  0.3088
 8247W        W51238   0.617   0.119  18.797 -0.1281 -0.1905 -0.3067
 8248W        W51239  10.164  14.765  16.830  0.1912  0.0846 -0.2472
 8249W        W51240   2.480  17.216  18.804 -0.0136  0.4281  0.1754
 8250W        W51241   2.668   6.730  22.940  0.0058  0.3788  0.1318
 8251W        W51242   4.539   9.653   3.783 -0.3727 -0.0303  0.0052
 8252W        W51243  19.468  22.655  27.018 -0.1094 -0.0984  0.0422
 8253W        W51244  33.163   0.509  19.907  0.2473 -0.1252  0.1974
 8254W        W51245  10.102  24.806   0.544 -0.0264 -0.1465  0.0362
 8255W        W51246  18.411  29.950  15.530 -0.1252 -0.1164  0.1288
 8256W        W51247   0.957   4.307   6.168 -0.1018  0.1700 -0.0826
 8257W        W51248   6.856  19.179  20.034  0.4532  0.4026  0.2980
 8258W        W51249   5.484  28.063  13.976  0.4047 -0.0880 -0.2286
 8259W        W51250  13.583   4.277   1.702  0.1847  0.0215 -0.3965
 8260W        W51251  20.170   0.425  14.877 -0.0299  0.1477 -0.2675
 8261W        W51252  28.277  20.710   9.674 -0.1698  0.0778 -0.1097
 8262W        W51253  10.191   9.838  21.908 -0.0053  0.1281  0.2265
 8263W        W51254  22.051  15.088   2.616  0.0438 -0.1413 -0.2097
 8264W        W51255  25.248   1.192   1.975  0.2279  0.1907 -0.1323
 8265W        W51256   2.763  17.221  18.323  0.0346  0.1703 -0.0881
 8266W        W51257  10.330   8.931  20.364 -0.1970  0.0981 -0.0615
 8267W        W51258   7.856   1.348   4.437  0.0980  0.3193 -0.0383
 8268W        W51259  34.776  12.306  21.907  0.0417 -0.3727 -0.1467
 8269W        W51260  22.046  33.765  27.829  0.1452  0.0447  0.0993
 8270W        W51261   2.535  11.375  25.985  0.3333  0.5830 -0.2647
 8271W        W51262  34.188   8.540  20.559  0.0967 -0.0557 -0.0725
 8272W        W51263  31.836  31.371  17.864  0.1773 -0.0461  0.1629
 8273W        W51264   5.337  16.014  22.099  0.0348  0.0833  0.3528
 8274W        W51265   8.759   8.618  17.759 -0.0138  0.2699 -0.0091
 8275W        W51266   5.031  12.252   7.420 -0.1432 -0.1750 -0.0212
 8276W        W51267  33.707   1.981   7.916  0.2498 -0.1334  0.4801
 8277W        W51268  12.531  32.760  26.246  0.1325 -0.1463  0.0897
 8278W        W51269  31.577   6.825   3.304  0.0863 -0.0247 -0.1473
 8279W        W51270   4.125  26.775  19.919 -0.1713 -0.4001 -0.1436
 8280W        W51271  22.276  21.729   4.967  0.2619  0.0886  0.0893
 8281W        W51272   5.894  14.913  22.451  0.1005  0.0995 -0.2340
 8282W        W51273  26.881  21.470   0.859 -0.1240 -0.1008 -0.0587
 8283W        W51274  28.872   7.467   9.826  0.0786 -0.1291  0.1233
 8284W        W51275   7.341  24.605  26.039  0.0795 -0.0385 -0.0199
 8285W        W51276  24.328  29.511   6.617 -0.2253 -0.1342  0.0387
 8286W        W51277  11.657  20.545  21.086  0.1554  0.1150 -0.0484
 8287W        W51278  33.911  16.620  24.660  0.2754 -0.3428  0.0263
 8288W        W51279  18.902  13.182  21.300 -0.4392 -0.0097  0.0578
 8289W        W51280   0.366  27.332  16.422 -0.0360 -0.0011  0.0929
 8290W        W51281  34.337  33.030  26.156 -0.0081  0.1287 -0.0044
 8291W        W51282   4.310  11.430  19.673  0.1168  0.2086  0.1020
 8292W        W51283  34.009  32.429  16.006  0.2836 -0.3203 -0.2489
 8293W        W51284  17.413   1.946  27.314  0.1424  0.2134 -0.0894
 8294W        W51285  31.311  20.882  27.393 -0.1230 -0.1461 -0.0008
 8295W        W51286  12.903   4.151  19.983 -0.1495 -0.0196 -0.0637
 8296W        W51287   4.473   7.963   0.457 -0.0009  0.1893 -0.1059
 8297W        W51288  25.162  16.556  17.188 -0.2672  0.0413 -0.0550
 8298W        W51289  12.578  29.983  27.004  0.4967  0.1774  0.1838
 8299W        W51290  11.932  14.692   4.603 -0.1032  0.1247  0.0923
 8300W        W51291   7.837  10.276   3.529  0.1698  0.0843  0.1054
 8301W        W51292   5.680   0.288  23.767 -0.2125  0.1890 -0.0170
 8302W        W51293  26.013  14.000  24.927 -0.0591 -0.1842 -0.3049
 8303W        W51294  27.410  21.001  23.799  0.0086  0.1118 -0.0948
 8304W        W51295   3.480   5.282  18.047  0.3411 -0.1406 -0.0411
 8305W        W51296   7.740  19.295   2.213 -0.0279  0.0544  0.1414
 8306W        W51297   2.063  14.422  22.028  0.0823  0.0204  0.1568
 8307W        W51298  34.498  32.983   6.773  0.1306 -0.0444  0.0417
 8308W        W51299   5.100  28.652   7.406  0.1928  0.2536 -0.0864
 8309W        W51300   3.688   0.692  18.219  0.3017 -0.4027 -0.1992
 8310W        W51301  11.360   9.016  21.335  0.0150  0.1501 -0.1740
 8311W        W51302   8.790  27.945   0.578 -0.1914  0.1146 -0.2645
 8312W        W51303   6.707  16.123   6.675  0.1818 -0.1841  0.1244
 8313W        W51304   3.536  33.228  21.850 -0.1218 -0.0428  0.0672
 8314W        W51305  10.641  24.239  19.717 -0.0966 -0.0394  0.1596
 8315W        W51306  12.795  15.835  14.868  0.0111  0.1674  0.4584
 8316W        W51307  10.692  18.799  14.764 -0.1130  0.0534 -0.0815
 8317W        W51308  17.954   5.854   0.683 -0.2964  0.2564 -0.3379
 8318W        W51309  30.459  27.415  17.061  0.4282 -0.0095  0.3872
 8319W        W51310  34.434  15.191  25.066  0.0144 -0.1947 -0.0048
 8320W        W51311   8.901   0.299  16.849 -0.0752 -0.1364  0.1055
 8321W        W51312  11.412  25.041  26.483  0.1465 -0.1568  0.0528
 8322W        W51313  28.104   2.008  27.091  0.2313  0.0185 -0.1686
 8323W        W51314   5.440  12.475  22.218  0.0113  0.1929  0.3865
 8324W        W51315   6.066  24.516  25.619  0.0194  0.1898  0.2151
 8325W        W51316  34.100  22.208   0.296 -0.1147  0.0975  0.0736
 8326W        W51317  29.568  25.525  28.452 -0.2915  0.0340  0.0169
 8327W        W51318  18.665  32.933  21.901 -0.1045 -0.2020 -0.1505
 8328W        W51319  12.553   7.898  27.137  0.0165  0.2708 -0.1562
 8329W        W51320   2.231  23.592  19.679 -0.0477 -0.1960 -0.0183
 8330W        W51321  32.999  18.564  27.503  0.0246 -0.0874 -0.4489
 8331W        W51322   2.847   2.423  14.750  0.0088 -0.1676 -0.2602
 8332W        W51323  34.065  24.335  17.106  0.2367  0.2008 -0.0401
 8333W        W51324   1.621   5.200  19.574 -0.0509  0.1863  0.1651
 8334W        W51325  34.422  31.729  22.687 -0.1169  0.0299 -0.0682
 8335W        W51326  29.234  30.151  24.389  0.0678 -0.1228  0.0158
 8336W        W51327  30.458  26.187  23.880  0.0734 -0.1306 -0.5526
 8337W        W51328   2.402   0.864   0.026 -0.0183  0.1638 -0.4393
 8338W        W51329  31.717  19.882  22.509  0.0732 -0.6054 -0.2264
 8339W        W51330  19.073  19.881  25.945  0.1690 -0.1339  0.0747
 8340W        W51331   4.443  11.482  23.673 -0.1705  0.0142 -0.2698
 8341W        W51332  34.676  33.724   3.495 -0.0047 -0.2036  0.2334
 8342W        W51333  27.409  11.562   0.939 -0.1256 -0.0214 -0.0368
 8343W        W51334  34.440  14.195  21.693 -0.1240 -0.0419  0.0131
 8344W        W51335  32.321  19.130  14.003 -0.2380 -0.2451 -0.0707
 8345W        W51336  22.861  14.582   2.356 -0.0273 -0.0715  0.1068
 8346W        W51337  30.633   7.560  26.516  0.0544  0.1180 -0.0438
 8347W        W51338   3.441  14.922   4.551  0.0635 -0.4153  0.1658
 8348W        W51339  29.337  19.129  22.327  0.3136  0.0839 -0.1336
 8349W        W51340   0.692  12.447  18.079  0.2037 -0.1082 -0.2445
 8350W        W51341  33.690  10.433  20.703 -0.4022 -0.2564  0.0671
 8351W        W51342  27.662   3.719  20.969 -0.1261  0.1987 -0.0972
 8352W        W51343   2.574  12.435   0.269 -0.1043 -0.0311 -0.0806
 8353W        W51344   3.727   9.136   7.151 -0.0468 -0.1916  0.0209
 8354W        W51345  19.506  34.795  15.786 -0.0874 -0.0127  0.0244
 8355W        W51346  15.616   7.283  27.896 -0.0164 -0.1763  0.0285
 8356W        W51347  11.767  17.608  24.671 -0.1313  0.2021  0.1164
 8357W        W51348  34.034  10.074  17.052 -0.2727  0.0144  0.1381
 8358W        W51349  34.083  16.565   9.988 -0.0953 -0.0376 -0.2718
 8359W        W51350  28.887   4.758  21.570 -0.0565  0.0640 -0.0346
 8360W        W51351  19.717   0.088  16.748  0.0435  0.2403 -0.0094
 8361W        W51352  27.564  15.162  15.657  0.3724 -0.0370 -0.1444
 8362W        W51353  28.697   1.609  26.242  0.3002  0.2144 -0.2053
 8363W        W51354   8.838  31.922  15.133  0.1797 -0.0263 -0.1286
 8364W        W51355  21.313  28.470   6.453 -0.0118  0.0530 -0.1333
 8365W        W51356   8.513  24.968   5.919  0.0377 -0.2650 -0.0237
 8366W        W51357  23.854   5.119  18.784 -0.3100  0.0418  0.1279
 8367W        W51358  33.626  21.272  14.819  0.1846  0.1955  0.1031
 8368W        W51359  19.834   3.640  17.639  0.1610 -0.1729 -0.0626
 8369W        W51360  34.177  22.812  20.280 -0.4812 -0.1949  0.1740
 8370W        W51361  16.455   3.529  23.546  0.2206  0.0211 -0.0161
 8371W        W51362  10.285   5.444  28.326  0.0510 -0.3318 -0.1055
 8372W        W51363  30.367  18.675   1.966 -0.1038  0.1498 -0.0106
 8373W        W51364  24.118   1.586  26.905  0.2561  0.0617  0.0303
 8374W        W51365   9.841  26.519   7.504 -0.2262  0.0823 -0.3067
 8375W        W51366   4.553  30.348  26.186  0.0446 -0.0958 -0.1926
 8376W        W51367  32.334  11.466  18.016 -0.1054  0.1196 -0.3753
 8377W        W51368   9.684   3.670  22.888 -0.1740 -0.3631  0.2053
 8378W        W51369  17.316  11.366  23.789  0.1751  0.0510  0.2806
 8379W        W51370   6.121   6.738  27.438 -0.0105  0.0089 -0.0144
 8380W        W51371   2.083  33.775  16.586 -0.1342 -0.1440  0.1018
 8381W        W51372  26.207  10.806   6.954 -0.2208 -0.1223  0.1530
 8382W        W51373   4.248  16.882  10.617  0.2907  0.1449  0.1563
 8383W        W51374  14.509   2.478  19.849 -0.1202 -0.1021 -0.2743
 8384W        W51375  25.317  12.205   2.534 -0.0313 -0.0640  0.2239
 8385W        W51376  10.463   4.922  28.252 -0.2774 -0.0779  0.1453
 8386W        W51377  21.068  10.870  23.888 -0.3600 -0.2190 -0.0042
 8387W        W51378  25.536   6.172  22.005  0.1841 -0.1049  0.3613
 8388W        W51379  27.423  12.422  20.298  0.2721 -0.0628 -0.1612
 8389W        W51380   0.701  24.631  24.751  0.2870  0.2147 -0.3427
 8390W        W51381  25.135  31.974  25.982  0.2929  0.1771  0.1333
 8391W        W51382  32.952  18.556  14.984  0.0100  0.0015  0.1970
 8392W        W51383   0.296  15.954   6.606 -0.0392 -0.0015  0.1441
 8393W        W51384  30.761  32.087  17.385  0.1508 -0.2261 -0.1772
 8394W        W51385  32.311   7.574  16.428  0.1301 -0.0377 -0.3099
 8395W        W51386   2.350  13.095  23.834  0.0666  0.0061 -0.1615
 8396W        W51387  22.629  32.944   0.552 -0.1579 -0.0962 -0.2202
 8397W        W51388   4.434  33.732  19.952 -0.0694 -0.0296  0.0300
 8398W        W51389  12.276  19.763  22.174 -0.1764  0.0772 -0.1885
 8399W        W51390   3.296  23.572  24.048  0.1592  0.1061  0.1777
 8400W        W51391   7.370  10.219   6.809  0.0070  0.0717 -0.2714
 8401W        W51392   3.128  27.932  28.725  0.1270  0.3721 -0.0770
 8402W        W51393   1.078  30.856  24.850  0.0420 -0.1445  0.4025
 8403W        W51394  12.328   9.663  27.757  0.0867 -0.1923 -0.1779
 8404W        W51395   6.382   2.505  16.592 -0.0136  0.1794 -0.0133
 8405W        W51396  28.382   7.192   2.823  0.2319 -0.0942 -0.2714
 8406W        W51397   1.999   9.862   4.761  0.0586  0.0122  0.2459
 8407W        W51398   7.401  34.468   0.777 -0.0460  0.2546  0.2323
 8408W        W51399  32.582  10.028  16.366  0.0168  0.1683 -0.2194
 8409W        W51400   7.531   0.496  20.215 -0.0944 -0.2375 -0.0615
 8410W        W51401  31.072  13.493  21.843 -0.0924 -0.1744 -0.1130
 8411W        W51402  34.149  33.305  27.561 -0.0740  0.0747  0.1288
 8412W        W51403  29.734   1.444  15.645 -0.4203  0.1657 -0.1088
 8413W        W51404  34.049  13.574  15.765 -0.0249  0.1046 -0.0398
 8414W        W51405   9.028  16.862   3.645 -0.3612  0.2978  0.1623
 8415W        W51406   3.655   3.882  19.028  0.1310  0.2108 -0.3190
 8416W        W51407  29.077  11.812  28.514 -0.1240  0.1272  0.1143
 8417W        W51408   7.972   7.467  22.865 -0.0508  0.0449  0.0447
 8418W        W51409  33.126  33.855   7.728  0.2923 -0.1318  0.1815
 8419W        W51410   1.889  12.854  22.675  0.2158 -0.0875 -0.3267
 8420W        W51411  15.518  27.122   3.514 -0.0018  0.0931 -0.2976
 8421W        W51412   6.947  14.110  19.437 -0.2035 -0.1769 -0.1225
 8422W        W51413   1.474  10.857   7.205  0.3128  0.0650  0.0546
 8423W        W51414  13.031  11.417  17.110 -0.0499  0.3408 -0.3757
 8424W        W51415  31.224  16.210   5.990  0.0364  0.2872  0.2900
 8425W        W51416  31.768   0.549  26.840 -0.2998 -0.0066  0.3735
 8426W        W51417   3.862  18.202  25.231 -0.0939  0.0414 -0.2209
 8427W        W51418  17.880  23.298   8.291 -0.1961  0.1906  0.2090
 8428W        W51419  23.984   5.824  16.564  0.1033 -0.2327  0.3567
 8429W        W51420  34.345   0.080   8.248  0.0218 -0.2721 -0.2723
 8430W        W51421  25.729   8.754  16.564 -0.0115  0.2305 -0.0846
 8431W        W51422  23.709  15.133  27.287 -0.0651 -0.1016  0.0205
 8432W        W51423  33.201  30.706  27.889  0.1264 -0.0026 -0.0863
 8433W        W51424  24.501  34.439  26.795 -0.3299 -0.0977  0.1713
 8434W        W51425  31.703   8.604  27.333 -0.1237 -0.2259  0.0223
 8435W        W51426  30.711  13.693   8.194  0.1988 -0.5518  0.2180
 8436W        W51427  31.924  20.583  27.980  0.1961  0.1907 -0.4057
 8437W        W51428   2.544   0.964  23.101  0.2260  0.0618  0.0564
 8438W        W51429  29.086   4.940   1.413  0.2464 -0.2609  0.0806
 8439W        W51430  28.681  12.319  21.033 -0.0041 -0.1568  0.2151
 8440W        W51431   5.043   6.041  11.471 -0.0659  0.1074  0.0571
 8441W        W51432   3.847  12.632   2.097  0.3547 -0.2810 -0.1247
 8442W        W51433  13.152  32.077  10.992  0.1111 -0.2895  0.1948
 8443W        W51434  34.161   8.059   8.201 -0.1021 -0.2574 -0.1644
 8444W        W51435   3.669  20.880  21.851 -0.0637  0.2207 -0.2034
 8445W        W51436   1.706   3.994  24.034  0.0064  0.4030 -0.0960
 8446W        W51437  31.399  26.393   2.770  0.0924  0.0086  0.1979
 8447W        W51438  24.801  23.409   0.591  0.2357  0.2547 -0.2866
 8448W        W51439  25.241  17.590  22.326  0.4543 -0.0270  0.1495
 8449W        W51440   5.878   9.300   5.888 -0.0474  0.3568  0.1016
 8450W        W51441  29.287  10.614   1.138  0.1095 -0.3737  0.1920
 8451W        W51442  25.552   5.916  18.056 -0.3231  0.3130 -0.2506
 8452W        W51443  34.314  17.675   2.420 -0.0075 -0.2622  0.2609
 8453W        W51444  30.108  20.649  27.378  0.1841 -0.0425 -0.2754
 8454W        W51445  27.273  10.348   0.761  0.0929  0.2268  0.0855
 8455W        W51446   9.211  14.472  15.117  0.1738  0.0324  0.1273
 8456W        W51447   1.201   5.776   3.425  0.0194  0.0099 -0.2621
 8457W        W51448  11.121  29.715   1.476 -0.2930 -0.0299 -0.1574
 8458W        W51449   6.217  30.603   3.855 -0.0129  0.3780  0.3389
 8459W        W51450  34.384   0.555   3.591  0.0257 -0.0840  0.2076
 8460W        W51451   3.203  14.380  24.105 -0.1884  0.2320  0.0592
 8461W        W51452  29.935  33.250  21.834  0.1351  0.0368 -0.0170
 8462W        W51453   3.428  15.998  27.936 -0.2971  0.1263  0.2264
 8463W        W51454   8.222  30.307  24.033  0.0370  0.0318  0.0835
 8464W        W51455  12.754   1.116   7.077  0.1571 -0.1480 -0.1455
 8465W        W51456  28.330   4.779  17.116  0.0374 -0.2547  0.0867
 8466W        W51457  31.021   4.323   2.960 -0.1264  0.1029  0.2263
 8467W        W51458  33.091   5.682  20.235  0.0696 -0.2764  0.2245
 8468W        W51459  24.067  27.425  25.086  0.0143 -0.0648  0.2006
 8469W        W51460  24.812  12.533   3.610  0.0001 -0.2537  0.2488
 8470W        W51461   0.538  34.393   9.560 -0.2217  0.2750 -0.2818
 8471W        W51462  34.697   0.624  25.974  0.0632  0.0695  0.0708
 8472W        W51463  26.611  34.036   2.592  0.2035 -0.1658  0.3411
 8473W        W51464  15.729  32.858   8.379  0.1921 -0.2292  0.1704
 8474W        W51465   3.551  16.774  19.966  0.0981  0.0965  0.3839
 8475W        W51466   6.357  34.633  26.657  0.3219 -0.0615 -0.1355
 8476W        W51467   6.546   4.326  27.093  0.0689  0.1552  0.1780
 8477W        W51468   3.700  13.763  19.121  0.0392  0.2553 -0.0572
 8478W        W51469   1.508   4.002  26.799  0.3177 -0.0586 -0.1655
 8479W        W51470   5.398   9.138  28.745 -0.0226  0.2430 -0.1201
 8480W        W51471  31.691  13.852  28.960  0.1777 -0.1132 -0.1924
 8481W        W51472  29.094   3.261   7.469  0.0750  0.0906 -0.0388
 8482W        W51473   8.075  34.720  15.339 -0.0216  0.3285  0.1785
 8483W        W51474   2.999  16.780  16.748  0.2564 -0.2006 -0.1853
 8484W        W51475  32.697  10.254   1.983 -0.0516 -0.0207 -0.1041
 8485W        W51476  33.895  20.455   3.552  0.0671 -0.2021 -0.1778
 8486W        W51477   4.641   4.563  17.227  0.3963  0.0425  0.1619
 8487W        W51478  24.713   8.111   8.578  0.1625  0.0201 -0.1134
 8488W        W51479   7.419   9.388  21.826 -0.0669  0.1338 -0.4072
 8489W        W51480   6.514   2.249   0.895 -0.2845  0.2208 -0.1045
 8490W        W51481  33.264   9.679   6.313  0.1288  0.1268 -0.1646
 8491W        W51482  32.636  34.728  18.822 -0.0087  0.0511  0.1181
 8492W        W51483  29.284  23.528  24.751 -0.2774  0.1585  0.0600
 8493W        W51484  23.274  15.155   5.163 -0.1764  0.1493 -0.0423
 8494W        W51485  12.616   7.878   0.154  0.1747 -0.2562  0.2089
 8495W        W51486  27.628  14.749  14.331  0.2129  0.0376  0.0309
 8496W        W51487   4.419   9.365  10.839 -0.0325  0.0579 -0.0545
 8497W        W51488   8.696   9.333  19.576 -0.1812 -0.1430  0.1046
 8498W        W51489   8.300   9.676   1.342  0.2628  0.2949 -0.1362
 8499W        W51490  10.098  17.021   0.357  0.1263  0.4149  0.3358
 8500W        W51491  27.917  21.194   3.814 -0.2635 -0.1440  0.4546
 8501W        W51492   0.071  17.026  16.637 -0.2375 -0.0163 -0.1599
 8502W        W51493  12.957   7.411  10.739 -0.2670 -0.2880 -0.0336
 8503W        W51494  16.159   5.610   8.203 -0.2261 -0.1766 -0.3694
 8504W        W51495   8.409  20.901  15.199 -0.1492 -0.1405  0.0174
 8505W        W51496  26.212  25.912  25.292  0.1292 -0.2114  0.0028
 8506W        W51497   8.147   7.540   1.768 -0.0106  0.0956  0.3463
 8507W        W51498  26.625   6.690  21.375 -0.2876  0.0824 -0.0176
 8508W        W51499   2.056  18.949   4.980  0.0925  0.1957  0.2728
 8509W        W51500  32.053  11.320  24.929  0.0911  0.0308 -0.2799
 8510W        W51501  26.782   9.823  27.082  0.0881 -0.0891  0.3531
 8511W        W51502  11.786  13.035  24.618  0.1797 -0.1659 -0.0578
 8512W        W51503  21.212  14.843   0.792 -0.0982  0.1582 -0.0137
 8513W        W51504  21.777  10.623  17.044 -0.0113 -0.0262  0.1084
 8514W        W51505   8.802   2.846   5.548 -0.3587  0.2179  0.1149
 8515W        W51506  33.027  28.548  17.156 -0.1086  0.1418 -0.0071
 8516W        W51507  13.690   5.793  10.007  0.0548  0.1641 -0.1620
 8517W        W51508  20.585  29.023   0.632 -0.3748 -0.1691  0.0738
 8518W        W51509  10.568  13.912   0.148 -0.0356 -0.2087 -0.1004
 8519W        W51510  31.512  13.460  20.326  0.3070  0.0704  0.2018
 8520W        W51511  30.101  29.055  23.818  0.2117 -0.1576 -0.0131
 8521W        W51512  34.681  18.350  22.588 -0.0296 -0.1683  0.2210
 8522W        W51513  26.259   8.641  25.897 -0.1176  0.0392  0.0825
 8523W        W51514  23.559   6.044  20.957  0.1003  0.0895 -0.0448
 8524W        W51515   7.124   4.021  14.722 -0.1257  0.0794  0.1827
 8525W        W51516  12.554  16.207  29.081  0.0381 -0.2235 -0.1985
 8526W        W51517   3.445   8.257   9.771  0.0936  0.2248 -0.0925
 8527W        W51518  33.845  19.495   5.797  0.0925  0.0625  0.1051
 8528W        W51519   0.547   8.354   6.524 -0.0312  0.1390  0.3369
 8529W        W51520   0.413  29.168  29.229  0.0873  0.2901  0.0352
 8530W        W51521  33.249   7.133  28.367  0.0748 -0.4260  0.3537
 8531W        W51522  32.625   2.094  15.783 -0.3591 -0.1606  0.0602
 8532W        W51523   7.149  33.380   0.698 -0.1401 -0.0505 -0.1077
 8533W        W51524   1.637  17.565  27.234  0.1132  0.0685 -0.1140
 8534W        W51525  27.632  12.852  25.838 -0.4664 -0.1458  0.1794
 8535W        W51526  29.708   1.198   8.616  0.2559 -0.1761 -0.5266
 8536W        W51527  30.787  28.634  14.150  0.0786 -0.3374  0.0520
 8537W        W51528  24.368   0.772   6.918 -0.0409 -0.1850 -0.3055
 8538W        W51529  10.707  14.310  25.159 -0.1706  0.1947 -0.1214
 8539W        W51530  24.261   6.824  26.877  0.4941 -0.1434  0.0516
 8540W        W51531  32.923  22.170  25.429  0.3016 -0.0387  0.0079
 8541W        W51532   5.722   9.479   3.646  0.0691  0.1011 -0.2475
 8542W        W51533  12.234   9.200   6.850  0.1439  0.1117  0.3040
 8543W        W51534  32.266   2.542   0.236 -0.3625  0.0294 -0.1433
 8544W        W51535   3.122  21.535  17.618  0.0202 -0.1375 -0.0775
 8545W        W51536   5.017   2.376  18.373  0.1563  0.1677 -0.0148
 8546W        W51537  15.604   7.900  29.010  0.2565  0.4230  0.3140
 8547W        W51538  24.294   5.587  20.581 -0.0134 -0.0417 -0.0016
 8548W        W51539   4.840  28.703  27.022  0.0228  0.2768 -0.3190
 8549W        W51540   5.963   6.025  26.271 -0.1222 -0.1590  0.0566
 8550W        W51541   5.288   3.865  28.089  0.0788  0.1126  0.2834
 8551W        W51542  28.194  14.911  15.729  0.4045  0.3269  0.0193
 8552W        W51543   7.806  22.571  29.127 -0.1610  0.0912  0.1603
 8553W        W51544  12.137  14.512   1.331  0.0427  0.0227  0.1485
 8554W        W51545  21.110   7.637  13.590  0.1094  0.0209 -0.1749
 8555W        W51546   3.094  28.883  20.788  0.0014  0.0873 -0.1403
 8556W        W51547  12.457  10.040  24.764  0.0480  0.0977 -0.1165
 8557W        W51548   2.838  33.543   6.463 -0.2766  0.0179  0.5441
 8558W        W51549   4.128   6.371   6.075 -0.2189  0.0720  0.0671
 8559W        W51550   7.580  14.362   7.138 -0.1873 -0.0188  0.2487
 8560W        W51551  12.662   7.148  24.786  0.1669  0.1847 -0.0194
 8561W        W51552   1.346  24.623  23.505  0.0412  0.1690 -0.2868
 8562W        W51553   6.627  25.856   9.990  0.1194 -0.1095  0.1421
 8563W        W51554   1.881   0.361   8.508  0.1222  0.1042 -0.0138
 8564W        W51555  14.653  17.260  28.022 -0.1299  0.0580  0.5162
 8565W        W51556   8.376  16.508  17.440 -0.0777  0.0337 -0.0264
 8566W        W51557  25.185  13.445  26.877  0.2019  0.4305  0.0960
 8567W        W51558  24.190  13.109  15.523  0.3726  0.0548 -0.0549
 8568W        W51559  15.774  18.688   4.237 -0.1912 -0.1498  0.0899
 8569W        W51560  33.613  29.547   3.349  0.3086  0.0187 -0.2957
 8570W        W51561  10.104  10.559  22.522 -0.0851  0.2832 -0.2436
 8571W        W51562  15.929   8.655  16.066  0.0790  0.0649 -0.0481
 8572W        W51563   9.735  29.822  14.757  0.3462 -0.2157 -0.2777
 8573W        W51564  24.940  17.782  18.779  0.1792  0.0725 -0.0871
 8574W        W51565  24.635  15.832   7.238 -0.1139 -0.1679  0.0042
 8575W        W51566  10.147  30.920  15.700 -0.0547  0.0755 -0.1426
 8576W        W51567  19.209   1.554  14.524  0.3014  0.0442  0.2452
 8577W        W51568  27.060  11.371  26.177 -0.0756  0.2097  0.0310
 8578W        W51569  25.308   3.904  24.249 -0.1420 -0.4317  0.4459
 8579W        W51570   7.874   8.869   6.751 -0.1333  0.0755  0.1127
 8580W        W51571   3.188  18.012   0.133  0.2856 -0.2459 -0.0869
 8581W        W51572   0.416   5.472   3.685 -0.1346 -0.0502 -0.0384
 8582W        W51573  10.488   6.704   1.945 -0.2870  0.3467 -0.0764
 8583W        W51574  33.747  23.139   6.330  0.0107  0.0665 -0.1975
 8584W        W51575   1.928  33.060  21.453 -0.0010  0.0873  0.0360
 8585W        W51576  13.825  29.286   4.323 -0.0011  0.2826  0.2297
 8586W        W51577   7.190   7.372  26.803 -0.1811 -0.2209 -0.1593
 8587W        W51578  25.819  33.115  20.363  0.1028 -0.1930 -0.0087
 8588W        W51579   7.974  11.983  26.905  0.2633 -0.0115  0.0983
 8589W        W51580   1.779  17.289  26.165  0.4268  0.0157 -0.0804
 8590W        W51581   2.484   6.796  24.576 -0.0143 -0.0284  0.3210
 8591W        W51582  27.614   3.721  26.468 -0.3529  0.0487 -0.2942
 8592W        W51583  17.509  24.203  18.970 -0.3066 -0.0564  0.0209
 8593W        W51584   4.437   0.958   3.114  0.0959  0.1844  0.1390
 8594W        W51585  28.866  21.333  21.195  0.0686 -0.3128  0.0669
 8595W        W51586  10.165  25.571  24.417  0.0605  0.2051 -0.2430
 8596W        W51587  19.734  34.470  19.622 -0.3007  0.1561 -0.2140
 8597W        W51588   8.905  34.463  14.265  0.0396 -0.2055 -0.0954
 8598W        W51589   4.350   4.637   8.324 -0.2974  0.1304  0.1998
 8599W        W51590   0.243   8.337  24.205  0.1213  0.1956  0.0321
 8600W        W51591  25.598   7.762  26.809 -0.0672 -0.0250  0.1441
 8601W        W51592  32.829  31.671  19.375 -0.0551  0.0262  0.0051
 8602W        W51593   4.619  30.443   9.519 -0.0674  0.2949 -0.0035
 8603W        W51594  22.117   9.580  21.463  0.0448 -0.1099 -0.0712
 8604W        W51595  31.175  32.158  18.511 -0.2237 -0.0056  0.0293
 8605W        W51596   8.326  11.386  16.889 -0.1502 -0.1585  0.2110
 8606W        W51597  31.149   7.500  28.342 -0.3288  0.6151 -0.1447
 8607W        W51598   0.994  10.561  21.952  0.1169  0.0319 -0.2649
 8608W        W51599   0.608  31.477   7.568 -0.1807  0.2118 -0.1026
 8609W        W51600  19.291  23.629  21.807 -0.2302  0.0496  0.1108
 8610W        W51601  13.700   5.139  22.786  0.0747  0.1745  0.1688
 8611W        W51602  16.843  31.878   0.481 -0.1663  0.3425  0.2336
 8612W        W51603  34.573  21.571  26.149  0.2219  0.1571  0.0701
 8613W        W51604   4.151  23.274  21.423 -0.0556 -0.2004  0.0779
 8614W        W51605   0.601  25.993  19.393 -0.0859 -0.0680  0.2266
 8615W        W51606  10.527  13.080   8.256 -0.1998  0.1704 -0.3017
 8616W        W51607  29.504  11.642   1.910  0.2181  0.0511 -0.1056
 8617W        W51608  13.154   6.984  10.641  0.3053  0.0679 -0.2931
 8618W        W51609   7.809   0.770  28.191 -0.2842 -0.0902  0.1018
 8619W        W51610  31.094   8.524  20.982 -0.3457  0.0677  0.5506
 8620W        W51611  29.752  12.612  21.916  0.0726 -0.0218  0.0027
 8621W        W51612   4.458   5.109   9.646  0.0568 -0.3811 -0.2280
 8622W        W51613   2.415  27.477   1.599  0.1300 -0.2124  0.0013
 8623W        W51614  15.190   5.485   8.442 -0.1556  0.0253 -0.0980
 8624W        W51615   7.720   2.158  27.679  0.1012  0.1370  0.0495
 8625W        W51616  30.883  12.468   2.663  0.0837 -0.1189  0.0437
 8626W        W51617   8.633   9.116  19.109  0.1815 -0.0829  0.1610
 8627W        W51618  31.871   2.432  21.800 -0.0923  0.3663  0.1862
 8628W        W51619  11.050   6.216  10.482 -0.0051 -0.2131 -0.0326
 8629W        W51620  16.811  16.399  23.912  0.2411  0.1860  0.0671
 8630W        W51621   5.318   2.940   8.791  0.1167  0.0212 -0.1066
 8631W        W51622   6.543  28.696  23.286 -0.1852  0.2046 -0.1173
 8632W        W51623  20.038   7.868  21.063 -0.0421  0.4574 -0.1072
 8633W        W51624   1.933  25.596   2.372  0.1635 -0.0095 -0.1006
 8634W        W51625  24.821  15.138  21.079  0.3806 -0.1594  0.0647
 8635W        W51626  26.033   3.914  15.010 -0.3836 -0.0671  0.1313
 8636W        W51627   0.639  10.166   5.786  0.1314  0.0789 -0.0855
 8637W        W51628  29.548  27.887  23.938  0.2746 -0.0925  0.0908
 8638W        W51629  33.986  11.199  20.726 -0.1953  0.1572  0.0063
 8639W        W51630   3.706  24.275  16.072 -0.0598  0.0904  0.0403
 8640W        W51631  15.730   3.171  16.974  0.0689  0.2969  0.2243
 8641W        W51632  31.805   3.401   3.405  0.0738 -0.2028 -0.2284
 8642W        W51633  25.808  25.663  28.513 -0.0832  0.1309  0.0659
 8643W        W51634   8.839   3.061  24.083  0.1345  0.0881  0.0830
 8644W        W51635  10.262   2.909   8.227 -0.0307  0.1626 -0.2101
 8645W        W51636  21.550  14.844  15.980 -0.0568  0.1340  0.1307
 8646W        W51637   0.851  29.936   7.137 -0.0737  0.2120  0.0596
 8647W        W51638  29.647  13.567  21.729 -0.0134  0.2299 -0.0697
 8648W        W51639   5.889  14.320  15.378  0.0626 -0.0673  0.0673
 8649W        W51640  14.413   5.246   0.892  0.0282 -0.0325  0.0461
 8650W        W51641   5.920  11.113  27.678 -0.1426 -0.1295 -0.1884
 8651W        W51642   7.839   4.610  22.774  0.0005  0.0116  0.2036
 8652W        W51643  34.357  27.641   8.457  0.3261 -0.0363 -0.2271
 8653W        W51644   5.725  28.385   6.473 -0.2619 -0.0974  0.0918
 8654W        W51645   1.092   3.057  28.067 -0.0973 -0.2846  0.3380
 8655W        W51646  30.710  23.596  23.856 -0.0485  0.2683  0.0475
 8656W        W51647  31.191  10.655  18.643  0.1155 -0.1587  0.0267
 8657W        W51648   3.170  17.562  16.097  0.0758  0.0514  0.0831
 8658W        W51649  29.581   7.406  22.608  0.1292  0.0651  0.0335
 8659W        W51650  11.890  13.291  21.501  0.1585 -0.1555  0.2014
 8660W        W51651  19.456  11.842   8.230  0.3779  0.0657 -0.1704
 8661W        W51652   1.877   8.486  17.123  0.0618  0.1701 -0.1153
 8662W        W51653  24.946  14.763  19.194 -0.0323 -0.0339 -0.1059
 8663W        W51654   1.754  25.041  26.366 -0.0785 -0.1155  0.3615
 8664W        W51655   2.722  24.338  23.588  0.1820  0.3230 -0.0084
 8665W        W51656   8.707   9.856  26.926  0.0639  0.1110 -0.0040
 8666W        W51657  20.742   4.225  20.485  0.2364  0.0433 -0.1910
 8667W        W51658   9.692  28.324  22.126 -0.2302  0.0131 -0.1770
 8668W        W51659  30.397  22.242   1.161  0.1062  0.1449 -0.0415
 8669W        W51660   7.342  34.318  27.605  0.2521  0.0007  0.2427
 8670W        W51661  26.443  16.509  10.641 -0.2469 -0.0878  0.1190
 8671W        W51662  30.702   4.711   2.504 -0.0030 -0.0029 -0.1200
 8672W        W51663  13.204   4.523  16.488 -0.2525  0.1779  0.2603
 8673W        W51664   0.818  25.561  22.777  0.1558  0.0449 -0.0174
 8674W        W51665   4.979   6.805   9.816  0.2100 -0.1481  0.3726
 8675W        W51666   0.614   9.376  19.122 -0.0175  0.0430 -0.0569
 8676W        W51667  33.893  34.490  26.564  0.3310  0.4405  0.0495
 8677W        W51668  32.716  33.075  27.847  0.1973 -0.1191 -0.2397
 8678W        W51669  29.131  23.125   3.988 -0.0044 -0.1546  0.0430
 8679W        W51670  11.778   4.126  11.282  0.0855 -0.1087 -0.0386
 8680W        W51671  31.836  11.656   8.879  0.1454 -0.0727  0.2091
 8681W        W51672   8.923   9.607   3.705  0.1938  0.1072  0.0105
 8682W        W51673  31.759  10.905   5.211 -0.2089 -0.0015  0.2682
 8683W        W51674  16.357  33.908  26.228 -0.3590 -0.2101  0.0488
 8684W        W51675  26.746   2.214  28.785  0.0679  0.0587 -0.2548
 8685W        W51676  31.680   3.753   0.402 -0.0384 -0.1053 -0.0781
 8686W        W51677  11.718  25.388   2.324 -0.6182 -0.0320  0.1227
 8687W        W51678  30.494   8.841   1.989 -0.2238  0.0001 -0.0996
 8688W        W51679   0.546  22.905  27.777 -0.0805 -0.3688 -0.0465
 8689W        W51680   4.731  11.719   3.842 -0.3953  0.1271 -0.2878
 8690W        W51681   4.395  11.234  11.010 -0.3361 -0.2529 -0.1682
 8691W        W51682   4.098  20.967   4.338  0.0531  0.2683  0.1498
 8692W        W51683   0.846  16.937  21.548  0.4437  0.0136 -0.0387
 8693W        W51684   5.633  10.504   6.433  0.0153  0.1015 -0.1426
 8694W        W51685  33.952   2.249  25.141 -0.0048  0.0431 -0.1312
 8695W        W51686   2.632  27.501  23.660  0.0779  0.2330  0.4602
 8696W        W51687  17.986   9.081  21.929  0.6262  0.1697  0.2137
 8697W        W51688  14.133  23.817  16.008 -0.1491 -0.2141  0.0094
 8698W        W51689   0.928  19.703   8.867 -0.1534 -0.2454 -0.1653
 8699W        W51690   1.324   3.519   9.803 -0.1198  0.0073  0.3815
 8700W        W51691   3.758   2.708  16.852  0.1431 -0.1942  0.0588
 8701W        W51692  27.181  14.934  25.680  0.2869  0.2010  0.0050
 8702W        W51693   1.309  15.611  18.547  0.1810  0.3391  0.0236
 8703W        W51694  28.848   6.857   8.032  0.3119 -0.0259 -0.1282
 8704W        W51695  34.345  10.998  18.829  0.2515 -0.1113 -0.2446
 8705W        W51696   4.895  21.905  25.177  0.0500  0.1410 -0.3066
 8706W        W51697  29.540  32.789  22.637  0.2004  0.4248 -0.0269
 8707W        W51698   5.384   2.157  28.088 -0.2144 -0.0260  0.1752
 8708W        W51699  31.905  20.243  18.681 -0.2759  0.0516  0.3073
 8709W        W51700   5.664  18.878  24.345 -0.0557 -0.0609  0.0355
 8710W        W51701   7.791   1.014  15.036  0.0674 -0.2124  0.0567
 8711W        W51702   0.467  17.522  17.818 -0.2718  0.0079  0.2042
 8712W        W51703  32.348  11.033  22.217  0.3377  0.3411 -0.0242
 8713W        W51704  26.570  16.879  20.091  0.0290 -0.0866  0.4693
 8714W        W51705   8.768  30.369   4.418 -0.2663  0.0120 -0.0737
 8715W        W51706  33.550  27.419   6.729  0.1137 -0.4204 -0.0180
 8716W        W51707  33.451  10.751  22.510  0.0422 -0.1007  0.2789
 8717W        W51708  30.757  11.717   9.303  0.0653  0.0290  0.0430
 8718W        W51709   1.585  27.376   3.674  0.0308  0.2884  0.2253
 8719W        W51710   0.032  13.141   0.291 -0.2809 -0.0001  0.0470
 8720W        W51711  21.827   4.707  25.989  0.4182  0.2724 -0.3079
 8721W        W51712  17.100  12.199   4.596  0.1991  0.2666  0.1780
 8722W        W51713   1.010  29.308  27.770 -0.0660 -0.0691 -0.0411
 8723W        W51714   0.428   0.841  17.749 -0.3780 -0.1580 -0.3369
 8724W        W51715   6.247  33.140   8.979 -0.3473 -0.0673  0.0867
 8725W        W51716  10.103  13.912  24.420 -0.1498  0.0126  0.1652
 8726W        W51717  27.569   6.457  14.112  0.1853  0.1661 -0.2294
 8727W        W51718  21.374   6.046  26.525 -0.1570 -0.2422  0.0051
 8728W        W51719  33.662  16.736  23.331  0.0428 -0.0037  0.2258
 8729W        W51720  30.158   5.477   2.706  0.0415 -0.0178  0.1400
 8730W        W51721  31.300   9.341  25.019  0.0053  0.1393  0.2994
 8731W        W51722  27.482   7.430   5.176 -0.0097  0.2809  0.1341
 8732W        W51723  34.109  24.836  14.853  0.1761  0.4247 -0.1806
 8733W        W51724  34.599  10.160   8.921  0.0142  0.0217  0.1861
 8734W        W51725   4.351   0.998  26.700 -0.0815 -0.1544  0.1584
 8735W        W51726  14.373  32.745  18.015 -0.0665 -0.2410 -0.2053
 8736W        W51727   6.529  28.667   4.687  0.2849  0.1121 -0.1328
 8737W        W51728   1.659   1.728  20.821  0.0383 -0.2034  0.1406
 8738W        W51729   1.105   4.486  19.401 -0.1251  0.1700 -0.1744
 8739W        W51730   1.856  25.472  26.661 -0.2192 -0.0088 -0.1401
 8740W        W51731   0.216   5.685  17.983  0.1754  0.3443 -0.3259
 8741W        W51732   2.095  15.792  24.413  0.1931 -0.0824  0.0439
 8742W        W51733  30.126  32.975   8.299 -0.0684 -0.1965 -0.1888
 8743W        W51734  28.627  16.137   7.431  0.0349 -0.1428 -0.0097
 8744W        W51735  25.589  15.718  21.023 -0.1579 -0.3122  0.1047
 8745W        W51736  15.726  28.895   1.979  0.1379 -0.3329  0.1273
 8746W        W51737  21.730  19.237   5.701 -0.1497 -0.0170 -0.0353
 8747W        W51738  18.926   3.809  19.037 -0.1260  0.0344 -0.0630
 8748W        W51739  28.409   7.074   5.077 -0.0853 -0.0562 -0.0475
 8749W        W51740  10.903  15.538  27.572  0.1263  0.2749  0.2473
 8750W        W51741   2.694   6.480   0.010  0.1852 -0.0443 -0.2289
 8751W        W51742  20.201   9.103  25.988 -0.2625  0.0360 -0.0753
 8752W        W51743   4.833  30.037  28.751 -0.2209 -0.2059  0.1973
 8753W        W51744  26.270  12.685  22.196 -0.0806 -0.3653  0.0708
 8754W        W51745   0.177  12.657  26.934  0.0778  0.0937  0.2906
 8755W        W51746  25.105   1.094  25.827 -0.1251  0.1639  0.1600
 8756W        W51747  29.329  27.513   1.823 -0.0011 -0.0307  0.0994
 8757W        W51748  32.943  27.471  13.971  0.0549  0.0915  0.1579
 8758W        W51749  10.884   0.797  24.924  0.0323  0.0299 -0.0109
 8759W        W51750  33.571  11.300  16.669 -0.1561  0.0224  0.1550
 8760W        W51751  17.960   2.795  27.209  0.2023 -0.1486  0.2700
 8761W        W51752  34.122  17.233  26.028  0.2099 -0.1378 -0.2072
 8762W        W51753  27.065   0.138  23.179 -0.1619  0.2543 -0.2922
 8763W        W51754  29.780   0.828  17.714 -0.1134  0.1786  0.1618
 8764W        W51755   4.653   7.532  28.142 -0.1853 -0.0306  0.2250
 8765W        W51756  31.557   7.602   4.727  0.2030 -0.1836 -0.3140
 8766W        W51757   3.418   6.994  16.109  0.2841  0.1061  0.1377
 8767W        W51758  29.497  33.907  29.060  0.0547  0.1168  0.2021
 8768W        W51759  28.180   7.315   4.423  0.1591 -0.1841  0.2929
 8769W        W51760  23.921   6.674  28.091 -0.1662  0.0923 -0.1656
 8770W        W51761   6.303  13.805  21.788 -0.1559  0.1631  0.0326
 8771W        W51762  27.553   7.697  24.877  0.2589  0.1763  0.0476
 8772W        W51763  12.030   4.678   4.735  0.1103  0.0574 -0.0253
 8773W        W51764   1.160  19.397  23.091  0.2653 -0.4792  0.1322
 8774W        W51765  20.168   5.706  17.758 -0.1606  0.0360 -0.0444
 8775W        W51766   0.002   8.658  19.684 -0.0244  0.0872 -0.1484
 8776W        W51767  19.541  17.887  16.102  0.0637 -0.0126  0.4500
 8777W        W51768  24.781  15.573  23.762 -0.3507  0.2038 -0.0983
 8778W        W51769   0.157  14.491  24.314  0.0515 -0.3073 -0.1141
 8779W        W51770   1.182  26.069  18.149 -0.0184 -0.4499  0.1906
 8780W        W51771   0.979  29.586   4.893 -0.1263 -0.2159  0.0307
 8781W        W51772  33.801  24.474  20.216 -0.1399  0.0234 -0.0697
 8782W        W51773   2.533  18.267  10.354 -0.1764  0.0462 -0.0714
 8783W        W51774  29.116  15.614   2.097 -0.0201  0.0990 -0.1197
 8784W        W51775  10.648   5.005   9.836  0.4251 -0.0457  0.0064
 8785W        W51776  16.089   8.101   7.843  0.1667 -0.1078  0.0072
 8786W        W51777  29.291  33.257  24.488  0.1286 -0.0885  0.0329
 8787W        W51778   5.056  22.459  16.554  0.3625  0.0724  0.0348
 8788W        W51779  27.101  12.242   0.606  0.2744 -0.0790  0.0531
 8789W        W51780  33.372  15.557   4.668 -0.2943  0.0067  0.0200
 8790W        W51781  29.221   6.993   9.025 -0.2460  0.0507  0.2522
 8791W        W51782   1.839  19.587   8.475 -0.1805  0.2613  0.0237
 8792W        W51783   9.195  14.418  26.830  0.1342 -0.2856 -0.1386
 8793W        W51784  25.415  34.223  24.605  0.0445 -0.0240  0.2914
 8794W        W51785  20.277  23.781  21.718  0.0406 -0.1294 -0.1880
 8795W        W51786  12.022  18.811  16.396 -0.1311  0.0727 -0.2261
 8796W        W51787  24.908  12.887   7.264  0.2350  0.1373 -0.0235
 8797W        W51788  26.552   4.719  17.815  0.0619  0.0279  0.0253
 8798W        W51789   6.580   2.699   0.578  0.0384 -0.0854 -0.1671
 8799W        W51790   6.819   8.057  21.278 -0.0156 -0.0795  0.0631
 8800W        W51791   6.920  27.236   4.238  0.0962 -0.1768  0.0234
 8801W        W51792   0.891  17.730  21.232 -0.0700 -0.2015  0.2008
 8802W        W51793  19.175   2.056   2.345  0.2346  0.2880 -0.1455
 8803W        W51794   2.462  15.849  29.120  0.2038  0.0968  0.0342
 8804W        W51795   5.523   9.978  22.769 -0.0192 -0.2069 -0.1622
 8805W        W51796  14.819  15.062  16.428 -0.1774 -0.0475  0.3009
 8806W        W51797  20.909   3.766  27.861  0.1490  0.2062  0.2406
 8807W        W51798  24.813  24.420  20.644 -0.1960  0.4222  0.0857
 8808W        W51799  33.084   8.005  27.451  0.2120  0.1372  0.0883
 8809W        W51800  20.064  21.248   1.626  0.3894 -0.0372 -0.0021
 8810W        W51801  13.484   4.328   3.845  0.2182 -0.1197 -0.1458
 8811W        W51802  27.133   3.104   7.093  0.1793  0.1028  0.0296
 8812W        W51803  25.211  25.077   7.267 -0.1455 -0.2201  0.0670
 8813W        W51804   2.225  13.726  29.203 -0.3636  0.2549  0.4945
 8814W        W51805   1.546   1.400  10.564 -0.0820  0.0690 -0.1184
 8815W        W51806  18.975  16.516  14.980 -0.0446 -0.6964 -0.2229
 8816W        W51807  21.799  19.380   3.560 -0.0848  0.2578 -0.2244
 8817W        W51808  10.394   9.813  23.682  0.0997 -0.0335 -0.0894
 8818W        W51809  33.428   1.883  18.227  0.2195 -0.0985  0.4906
 8819W        W51810  26.256  13.420  19.574  0.3114  0.0912  0.0310
 8820W        W51811  17.336  28.084  22.284 -0.3377 -0.4621 -0.3002
 8821W        W51812   0.968  11.283   3.279 -0.0768 -0.1265  0.1249
 8822W        W51813   3.681  11.915   1.680 -0.0360 -0.1824 -0.3760
 8823W        W51814   2.743  29.746   9.910 -0.1043  0.1635 -0.0132
 8824W        W51815  30.191  17.937  22.101  0.2213 -0.3567 -0.2430
 8825W        W51816  17.674   7.568  24.833 -0.0275 -0.0217 -0.2718
 8826W        W51817   8.244  13.184  28.100  0.2673  0.0058  0.1663
 8827W        W51818  15.472  14.484   1.764 -0.3004  0.1518  0.4468
 8828W        W51819  31.599  11.607  10.927  0.1644 -0.1657  0.0850
 8829W        W51820   0.842   1.337  20.431 -0.0987 -0.1361  0.2109
 8830W        W51821  28.266  24.517  22.051 -0.2533 -0.1667  0.2358
 8831W        W51822  31.368  28.168  18.720 -0.0400 -0.2150 -0.1160
 8832W        W51823   5.969  34.393  28.317 -0.3501  0.0960  0.0218
 8833W        W51824  31.356   0.816  27.050  0.0071 -0.0954 -0.3071
 8834W        W51825   2.486  13.952  23.192 -0.0883  0.0297 -0.1462
 8835W        W51826  28.345   0.965  25.534 -0.1088  0.1964  0.2544
 8836W        W51827   4.075  33.499  10.540  0.0559 -0.0847  0.1623
 8837W        W51828   3.821  23.667  22.647 -0.5061 -0.0890  0.4170
 8838W        W51829   3.220   7.417  18.287  0.0511  0.0439 -0.0386
 8839W        W51830  25.862   9.734   3.960 -0.1052  0.2373 -0.0178
 8840W        W51831  17.307   1.322  14.688 -0.1684  0.1044  0.3149
 8841W        W51832  13.147  13.001  24.988 -0.2548  0.1011  0.1431
 8842W        W51833   9.766   7.373   0.014 -0.3745  0.0431  0.1268
 8843W        W51834  24.007   3.614   8.419  0.2601  0.1712 -0.1251
 8844W        W51835  31.233   4.084   4.676  0.1568 -0.2853  0.2058
 8845W        W51836  15.646  29.332  24.039  0.1212  0.0523 -0.1446
 8846W        W51837   2.981   7.051   3.026  0.1359 -0.0791  0.2984
 8847W        W51838  28.615  22.322  16.916 -0.0176 -0.1734  0.4761
 8848W        W51839  24.801  15.353  24.324  0.1363 -0.1967  0.1193
 8849W        W51840  28.289   2.534  14.419 -0.2105  0.0821 -0.1419
 8850W        W51841   5.485   0.415  21.293 -0.4202 -0.0529 -0.0223
 8851W        W51842  13.675  13.422  27.789  0.0951 -0.0814  0.0732
 8852W        W51843  16.845  33.403   2.282  0.4302 -0.1774 -0.0480
 8853W        W51844  29.765  15.225  24.099 -0.0959  0.0987  0.1942
 8854W        W51845  26.805  13.303  14.971  0.1522  0.3052 -0.0617
 8855W        W51846  27.557  11.541   4.461 -0.3218  0.0427 -0.2664
 8856W        W51847   8.811   0.593   8.545  0.0550  0.0888  0.0046
 8857W        W51848   9.458  30.109  26.835  0.3122 -0.1557  0.1769
 8858W        W51849   2.305  15.432  16.679  0.1462 -0.0348 -0.0740
 8859W        W51850  17.327  29.649  20.677  0.1069  0.0763  0.0880
 8860W        W51851  26.842  29.105   3.349  0.1584 -0.0888 -0.0611
 8861W        W51852  29.538  13.764   5.358  0.1235 -0.1423  0.1985
 8862W        W51853   5.216  32.709  18.871 -0.0648  0.2997 -0.2633
 8863W        W51854  13.966   3.763  27.671  0.2009  0.0100 -0.1275
 8864W        W51855  26.101   4.763  23.609  0.1570  0.2563  0.2276
 8865W        W51856  24.672  26.924  19.257 -0.0957 -0.0182 -0.1706
 8866W        W51857   0.173  10.384   4.929  0.3016 -0.1924  0.0258
 8867W        W51858  33.395  16.996   2.174  0.0061  0.0891  0.0941
 8868W        W51859   4.632   0.755  14.883  0.0334  0.1089  0.2284
 8869W        W51860  34.307   7.880  25.925 -0.3044 -0.1486 -0.2173
 8870W        W51861   0.976   4.292  22.178 -0.1209  0.1855 -0.5200
 8871W        W51862   2.905  15.073   5.266 -0.1235  0.2491 -0.0383
 8872W        W51863   1.660   9.718  19.955 -0.3104  0.1513  0.2647
 8873W        W51864  16.385   4.012   4.025  0.0349 -0.1474  0.1100
 8874W        W51865   7.388  19.513   6.299 -0.2160  0.2850  0.0994
 8875W        W51866  20.261   5.958  27.235 -0.0176  0.0313 -0.0082
 8876W        W51867   5.561  11.186   1.929 -0.1627  0.1267  0.1615
 8877W        W51868   3.098  13.286  15.626  0.0561  0.0411 -0.1877
 8878W        W51869  30.149  14.372   9.250 -0.0834  0.0043 -0.2256
 8879W        W51870   5.621  10.764  28.646 -0.2408 -0.0831  0.0710
 8880W        W51871  34.638   6.914   8.449  0.0968 -0.1998  0.0188
 8881W        W51872  16.528   7.733  21.934  0.2476  0.1669 -0.0038
 8882W        W51873  14.178   5.847  22.456 -0.2000  0.1443 -0.0209
 8883W        W51874   4.690  23.578  23.841  0.0572  0.3058  0.1502
 8884W        W51875   6.406  34.493   2.468  0.1206 -0.2569  0.0341
 8885W        W51876  23.346  27.290  17.465  0.2152  0.1552 -0.1901
 8886W        W51877  19.255  30.935  16.855 -0.0981 -0.0236  0.1294
 8887W        W51878  32.371  21.214   0.613  0.2141  0.1041  0.0864
 8888W        W51879  11.475  13.379  14.605 -0.2185  0.0423  0.4326
 8889W        W51880  30.983  27.838  15.570 -0.1896  0.0309  0.0121
 8890W        W51881  22.599  14.691  23.510  0.1435  0.3182 -0.1739
 8891W        W51882   1.311  19.718  23.449  0.2328 -0.3045 -0.0994
 8892W        W51883   2.173  33.988  18.025  0.3016  0.0489  0.1291
 8893W        W51884   2.387  11.961   0.170 -0.2273  0.2114  0.0701
 8894W        W51885   2.181   4.773  15.980 -0.1258  0.0002 -0.0191
 8895W        W51886  11.775  11.595  22.582 -0.3887 -0.0531 -0.3337
 8896W        W51887  30.156  12.862  21.895 -0.0898 -0.1843 -0.1929
 8897W        W51888  34.150  21.884  28.328  0.1622 -0.3662 -0.3649
 8898W        W51889  23.459   3.991  19.912 -0.0365 -0.0761  0.0542
 8899W        W51890   9.134  15.627  23.054 -0.2188  0.0609 -0.1442
 8900W        W51891  21.845  28.185  16.481  0.1001  0.2109  0.0858
 8901W        W51892   9.006  22.085  14.586  0.0851 -0.3217  0.4433
 8902W        W51893   6.103   6.009   8.536  0.0023  0.2211 -0.1022
 8903W        W51894  25.141  32.948  18.048 -0.1643 -0.1847 -0.0036
 8904W        W51895  11.034  17.490  22.109  0.1200  0.1861  0.2130
 8905W        W51896  26.876   8.748  14.846 -0.0007 -0.0019 -0.2993
 8906W        W51897   2.047  15.684  27.689 -0.2456  0.3235  0.1642
 8907W        W51898  29.403  21.380  17.963 -0.0436  0.1167 -0.1805
 8908W        W51899   9.810  25.455  25.095  0.0158  0.2551 -0.0502
 8909W        W51900  28.893  34.547  15.642 -0.1036  0.1938 -0.2055
 8910W        W51901  10.791  11.498  22.406  0.1507  0.0476 -0.1504
 8911W        W51902   7.580   3.897  14.876 -0.0887  0.2536  0.2310
 8912W        W51903  30.077  16.785   9.669  0.2199  0.1084  0.0182
 8913W        W51904  26.467  22.235  23.186  0.1105  0.2651  0.1934
 8914W        W51905  34.198  12.601  16.756 -0.0658  0.0842 -0.0100
 8915W        W51906   2.316  14.145  17.983 -0.0214 -0.0886 -0.1291
 8916W        W51907  11.198  20.570  14.032 -0.0632  0.1717 -0.3524
 8917W        W51908  31.348  25.220  29.001  0.0497  0.1735 -0.1571
 8918W        W51909  34.245  11.546  18.229  0.1277  0.0738  0.1913
 8919W        W51910   9.833  16.882  18.615  0.1260  0.1799 -0.0921
 8920W        W51911   8.993  22.673  18.663 -0.4764  0.1884 -0.4257
 8921W        W51912  20.953  13.702  22.953 -0.0916 -0.0911  0.2154
 8922W        W51913   5.480  28.411  21.390  0.0147  0.1207  0.0321
 8923W        W51914  14.696   4.945  22.014  0.3098  0.3345 -0.5557
 8924W        W51915   5.181  22.653  20.988  0.0819  0.0251  0.0438
 8925W        W51916  24.168  16.586  22.088  0.1810  0.0566  0.0009
 8926W        W51917  14.722  25.976  17.361  0.1204  0.0567  0.0942
 8927W        W51918   8.534   2.584  26.228  0.4128  0.2147 -0.2516
 8928W        W51919  10.764  15.923  21.258 -0.2080 -0.0055  0.0126
 8929W        W51920   5.224  15.595  18.732 -0.0779 -0.0845  0.0538
 8930W        W51921   6.264  10.692  26.308 -0.3096  0.0844  0.1355
 8931W        W51922  33.410   2.598  16.303  0.0526 -0.0088  0.4257
 8932W        W51923  32.641   9.529  20.607  0.5442  0.1257 -0.1979
 8933W        W51924  27.788  14.163  10.465  0.0872  0.1507  0.0259
 8934W        W51925  17.079   6.729  19.295 -0.0282  0.1047 -0.4076
 8935W        W51926  31.928  11.440  21.783 -0.0571  0.2031 -0.0194
 8936W        W51927   7.974  12.956  21.272  0.1910  0.1971  0.0500
 8937W        W51928  21.170  10.972  19.654  0.0676  0.2536 -0.3774
 8938W        W51929   2.515  11.513  17.746  0.1243 -0.2768  0.0280
 8939W        W51930  17.946   6.293  17.080  0.2831  0.0710 -0.0598
 8940W        W51931  10.366  23.799  19.623 -0.1672  0.0161  0.0232
 8941W        W51932  31.108  12.943  16.907 -0.2298  0.0997 -0.5089
 8942W        W51933   4.533  26.726  24.636  0.0931  0.1618  0.0731
 8943W        W51934  29.190  11.871  15.183 -0.0139 -0.0946  0.2817
 8944W        W51935  20.541   1.588   1.132  0.2829 -0.1044 -0.0153
 8945W        W51936  31.703  11.374   0.593  0.3312  0.0096 -0.0974
 8946W        W51937   0.834  19.096  19.729 -0.0130 -0.0612 -0.0643
 8947W        W51938   6.823  20.753  17.442 -0.0278 -0.0270  0.0503
 8948W        W51939   1.597   9.016   0.568  0.1682 -0.0909  0.1619
 8949W        W51940  26.566  22.492  17.665 -0.1635 -0.0384 -0.0149
 8950W        W51941   2.253  18.631  17.947  0.0266 -0.0499  0.0648
 8951W        W51942  11.658  12.050  18.862  0.1353  0.1900 -0.2057
 8952W        W51943  19.634   9.107  18.633  0.2224 -0.0341  0.0484
 8953W        W51944  21.754   1.006  19.531  0.2211 -0.0666  0.2764
 8954W        W51945   6.455  16.962  25.043 -0.2931  0.1309  0.1061
 8955W        W51946  34.537  15.729  18.739 -0.0655  0.1120  0.0116
 8956W        W51947  32.484   3.302  16.953 -0.2504  0.3013 -0.0020
 8957W        W51948  28.760  14.657  14.798 -0.1317  0.1290  0.1821
 8958W        W51949  29.976  15.464  25.447  0.0087 -0.0431 -0.0911
 8959W        W51950  28.433  34.613  12.718  0.3536  0.1546  0.1469
 8960W        W51951   7.549   7.955  25.901  0.3546 -0.1652  0.2256
 8961W        W51952  24.039  22.845  19.667 -0.0323  0.2301 -0.0059
 8962W        W51953   1.981   6.930  17.992 -0.1161 -0.2367 -0.3199
 8963W        W51954  30.678   8.373  25.258 -0.0692  0.3900 -0.1479
 8964W        W51955  12.337  11.532  26.145 -0.0919  0.0261  0.0092
 8965W        W51956   4.010  13.008  20.337  0.1816 -0.0937 -0.2125
 8966W        W51957   4.963  25.845  21.294 -0.0763 -0.0497  0.1002
 8967W        W51958   5.387  16.809  19.319 -0.3822  0.1612 -0.2310
 8968W        W51959  27.773  30.155  28.942  0.2670  0.2839 -0.0984
 8969W        W51960   2.594   0.710  19.708 -0.1283 -0.2345 -0.0657
 8970W        W51961  30.117   1.368  15.299 -0.2270 -0.2015  0.1768
 8971W        W51962  33.907  20.244  24.914 -0.1282 -0.2199  0.3394
 8972W        W51963   1.869  13.313  24.485  0.0327 -0.2827  0.3161
 8973W        W51964  28.538   9.547  14.897  0.1061 -0.1237 -0.2724
 8974W        W51965   3.023  15.768  19.737 -0.0365 -0.1568 -0.1172
 8975W        W51966  33.084  14.839  22.092 -0.0345  0.2391 -0.2020
 8976W        W51967   3.632  21.634  28.980 -0.4136  0.0099 -0.1604
 8977W        W51968  25.452  18.842  17.145  0.3751 -0.1418 -0.0503
 8978W        W51969   2.594  16.658  23.079 -0.0978  0.0698  0.1183
 8979W        W51970  34.551   4.739  19.903 -0.0033 -0.1283 -0.1073
 8980W        W51971  27.252  22.936  23.115 -0.3815 -0.1595  0.1142
 8981W        W51972   4.410  31.770  22.366  0.2616  0.1158 -0.1160
 8982W        W51973  20.743   9.779  23.449 -0.1809 -0.1111  0.0379
 8983W        W51974  31.064  15.347  24.459 -0.1888 -0.1530 -0.0603
 8984W        W51975   0.563   1.628  18.499 -0.1632  0.1600 -0.2036
 8985W        W51976   9.142   5.118  20.051 -0.2182 -0.1971  0.1599
 8986W        W51977  33.608  11.405  21.328 -0.3722 -0.2573  0.0292
 8987W        W51978   6.339  14.505   0.140 -0.3376  0.1510  0.0778
 8988W        W51979  31.931  32.771  21.511 -0.0952  0.0442 -0.3793
 8989W        W51980  17.295  17.475  12.571  0.0417 -0.1291 -0.2031
 8990W        W51981  12.132  21.717  22.052 -0.0430  0.0339 -0.1135
 8991W        W51982  33.367   0.229  16.519  0.1301 -0.1213 -0.0411
 8992W        W51983   9.674  14.737  22.937 -0.2347  0.1059 -0.2566
 8993W        W51984   9.621  29.262  22.635  0.0199  0.2871 -0.0270
 8994W        W51985   5.561  23.859  28.450  0.0124 -0.0054  0.1865
 8995W        W51986  17.706  12.618  21.619 -0.0219 -0.1432  0.1298
 8996W        W51987  11.589   3.928  15.458 -0.1742  0.0888 -0.0247
 8997W        W51988  19.688  10.897  21.347  0.0076 -0.1335  0.1050
 8998W        W51989  33.969  15.593  16.782  0.0980  0.1641 -0.1523
 8999W        W51990  24.700   6.298  18.375  0.1491 -0.1175 -0.1077
 9000W        W51991   7.620   7.942  17.279  0.1577  0.1556  0.2098
 9001W        W51992  32.670   9.851  17.733  0.1028  0.3399  0.2700
 9002W        W51993  25.408  24.060  21.959 -0.3490 -0.1220  0.2110
 9003W        W51994  34.390  21.245  20.196  0.0764 -0.1840  0.0424
 9004W        W51995  16.044   9.421  18.391  0.1462 -0.1628 -0.1074
 9005W        W51996  23.551  28.273  26.102 -0.2378 -0.0660  0.0570
 9006W        W51997  30.662  28.225   8.086  0.0484  0.0389 -0.2859
 9007W        W51998   9.767   7.017  25.185  0.3054  0.0112 -0.0468
 9008W        W51999  34.667  18.119  20.735  0.0638  0.0473  0.2997
 9009W        W52000   2.278  26.311  16.462 -0.0044 -0.0845  0.0413
 9010W        W52001  32.460   6.243  28.130  0.1228 -0.0204  0.2515
 9011W        W52002  26.734  15.058  28.627  0.3084 -0.0226 -0.1064
 9012W        W52003   1.382  28.218  26.072 -0.1829  0.0839 -0.1782
 9013W        W52004  29.995  14.634  23.375  0.4586  0.1406  0.3305
 9014W        W52005  19.885  27.109   2.271  0.4079  0.0109  0.0386
 9015W        W52006  25.167   4.225  13.667  0.0799 -0.4980  0.4856
 9016W        W52007  26.405  21.152  14.700 -0.0458 -0.0007  0.2758
 9017W        W52008  26.603  32.911   0.897 -0.1541  0.0204  0.0259
 9018W        W52009   9.719  32.316  17.287 -0.0144  0.0408  0.1014
 9019W        W52010  21.895  20.915  15.736 -0.1900  0.1143  0.2766
 9020W        W52011  13.424   9.364   5.809  0.0623 -0.3771 -0.0590
 9021W        W52012   9.554  26.078  26.772  0.0993 -0.3122  0.0515
 9022W        W52013   8.972  22.280  18.137  0.1183 -0.1170 -0.0351
 9023W        W52014   5.371   8.686  15.209  0.2907 -0.0673  0.0631
 9024W        W52015  33.013   9.993  22.957  0.0673  0.2496 -0.0451
 9025W        W52016  33.097   7.062  18.040  0.1068  0.1825  0.0604
 9026W        W52017  32.016   9.197  21.871 -0.1642 -0.3226 -0.1660
 9027W        W52018  10.596   0.269  16.727  0.1183 -0.1510  0.2102
 9028W        W52019  14.611  16.872  23.520  0.1215 -0.0454  0.2007
 9029W        W52020  28.431  14.384  14.601  0.3192 -0.2288 -0.0010
 9030W        W52021   7.210  10.551  18.162 -0.1352 -0.0127 -0.1644
 9031W        W52022  26.262  12.385  14.999  0.1286  0.0182  0.1495
 9032W        W52023   2.539   6.787  27.398  0.1282  0.1921 -0.1677
 9033W        W52024  29.900  16.709  23.233 -0.0538  0.1192 -0.0237
 9034W        W52025   1.171  11.577  23.906  0.1175  0.1293 -0.2093
 9035W        W52026   5.584  23.808   7.584  0.2145 -0.2590 -0.1563
 9036W        W52027   2.006  10.767  16.430 -0.0379  0.1303 -0.0029
 9037W        W52028   9.351  16.657  23.498  0.2950  0.1697 -0.0146
 9038W        W52029   5.663  34.106  16.370 -0.1858 -0.1231 -0.1969
 9039W        W52030   8.210  18.672  23.254 -0.1186 -0.2816 -0.0055
 9040W        W52031  25.221   5.517  13.453  0.0232  0.1262  0.4145
 9041W        W52032  13.208  19.183  17.621 -0.0319 -0.0609 -0.1676
 9042W        W52033  17.991  33.014  22.227  0.0411 -0.0043  0.2071
 9043W        W52034  32.505  16.551   9.999  0.1773  0.1323  0.1853
 9044W        W52035   5.028  11.511  19.033 -0.0385  0.0557  0.1831
 9045W        W52036  14.190  21.697  22.543 -0.0248 -0.0734 -0.0053
 9046W        W52037  10.344  15.270  24.666 -0.0210  0.2279  0.0337
 9047W        W52038   8.152  15.833  15.838 -0.0307  0.1774  0.0577
 9048W        W52039   0.154  28.161  20.278  0.1315  0.3092  0.3816
 9049W        W52040  31.000  13.806  19.455  0.1051  0.2705 -0.0585
 9050W        W52041  33.054  15.324  20.217 -0.0919  0.3396 -0.0621
 9051W        W52042  12.133  11.091  21.919 -0.0611 -0.0879 -0.0902
 9052W        W52043   2.238   8.261  21.950 -0.0591 -0.5386 -0.2962
 9053W        W52044  27.692  19.394  15.533  0.1745  0.2043 -0.1195
 9054W        W52045   0.428  15.741  22.241  0.0952 -0.0347  0.0413
 9055W        W52046  26.331  34.191  17.032 -0.1400 -0.1343 -0.0038
 9056W        W52047  24.002   8.547  24.855  0.0564 -0.0521  0.0830
 9057W        W52048   9.307   3.714  15.634 -0.1378 -0.1849  0.0918
 9058W        W52049   6.355  12.220  24.311  0.1169 -0.2747 -0.2565
 9059W        W52050  18.500   9.804  27.959  0.0331  0.0266  0.0401
 9060W        W52051  12.990   4.202  21.295  0.1000  0.1856 -0.1335
 9061W        W52052  21.717  12.641  15.919 -0.0665 -0.1994 -0.0020
 9062W        W52053   5.054  10.264  17.956  0.0809  0.0260 -0.0568
 9063W        W52054  31.994  23.368   4.067 -0.0947  0.0624  0.0812
 9064W        W52055   5.553   9.612  26.827 -0.2008  0.0456  0.0673
 9065W        W52056   2.964   8.092  28.387 -0.1212 -0.1136  0.1388
 9066W        W52057  34.742  19.999  20.898 -0.0563  0.1617  0.1355
 9067W        W52058   2.104  17.433  17.120 -0.1803 -0.0858 -0.1156
 9068W        W52059  29.643   7.039  20.024 -0.0053  0.0658 -0.0783
 9069W        W52060   3.580   6.339  20.190 -0.2564 -0.3183 -0.0979
 9070W        W52061  29.087   1.203  28.372 -0.1794 -0.1932 -0.0625
 9071W        W52062   7.007  13.874  15.207  0.1300  0.0831  0.1698
 9072W        W52063   0.696  15.759   0.642  0.1651  0.1635 -0.3959
 9073W        W52064   9.929   8.097  20.226 -0.1783 -0.1538 -0.2735
 9074W        W52065  19.647  11.761  17.681  0.1630  0.0327 -0.0284
 9075W        W52066  10.904  11.586  19.572 -0.0907  0.1611  0.0638
 9076W        W52067  32.165  20.742  15.767 -0.1064  0.1548  0.0422
 9077W        W52068   3.722  12.849  18.640  0.1744 -0.1762  0.0197
 9078W        W52069  14.294  10.089  25.926 -0.2487 -0.0119 -0.4293
 9079W        W52070  13.653  24.775  26.349 -0.2523 -0.3850 -0.0194
 9080W        W52071  19.517  22.715  19.363 -0.0298  0.1233  0.0589
 9081W        W52072  34.057  30.196  28.858 -0.0255  0.0388  0.0984
 9082W        W52073   0.864  23.250  15.548 -0.0239  0.2102 -0.0876
 9083W        W52074  29.495  15.742  25.287  0.1962 -0.1161  0.1400
 9084W        W52075  14.206  30.186  16.193  0.1663  0.1106 -0.1097
 9085W        W52076  27.652  19.193  24.565  0.3015 -0.0134 -0.0716
 9086W        W52077   2.832  25.742  21.026  0.0894  0.0414 -0.0020
 9087W        W52078  11.615  12.914  16.593 -0.2002 -0.0884  0.0268
 9088W        W52079   6.709  33.964  22.815 -0.2166  0.1242 -0.1123
 9089W        W52080   6.372  24.333  28.954 -0.0486  0.4353  0.0305
 9090W        W52081  18.417   7.394  13.938  0.0129 -0.1839 -0.2240
 9091W        W52082   2.809   9.184  20.165 -0.3851  0.1244  0.1812
 9092W        W52083  15.038  14.985  17.409 -0.1082  0.2850 -0.4409
 9093W        W52084  34.800  20.432   5.009 -0.0238 -0.0733  0.1727
 9094W        W52085  12.189  12.908  22.903  0.1320 -0.0647 -0.2126
 9095W        W52086  29.947  11.638  15.768 -0.4229 -0.0394  0.2046
 9096W        W52087  17.256  33.920   1.198  0.0381 -0.0598 -0.1009
 9097W        W52088  19.383  24.869  27.724  0.2605  0.2239  0.0803
 9098W        W52089   3.563  13.943  28.411 -0.0015 -0.2354 -0.0531
 9099W        W52090   8.609   5.086  24.407  0.3509  0.1822 -0.1026
 9100W        W52091  18.964  33.817  17.250  0.4133 -0.0975 -0.0052
 9101W        W52092  29.470  11.293  16.491 -0.1497 -0.2570 -0.0306
 9102W        W52093   9.096   4.674  25.998 -0.1261  0.0481  0.1608
 9103W        W52094   3.724  21.949  15.816 -0.0917  0.2698 -0.0161
 9104W        W52095   0.004  12.759  17.765 -0.3572 -0.1521  0.0214
 9105W        W52096  21.886   7.222  23.011 -0.0455  0.2540 -0.0116
 9106W        W52097   4.376   2.855   4.456 -0.2589 -0.4257 -0.0288
 9107W        W52098  33.065  28.131  22.530  0.1529  0.3686  0.2831
 9108W        W52099  20.191  28.721  22.841  0.2665 -0.0214 -0.2292
 9109W        W52100  34.152   1.179  20.925 -0.1742 -0.3522  0.2137
 9110W        W52101  20.734  24.736  14.014  0.0296 -0.3457 -0.3169
 9111W        W52102  34.791  12.161  21.339 -0.1249  0.1127 -0.1006
 9112W        W52103  21.222  24.499  20.222  0.3706  0.1393 -0.2040
 9113W        W52104   8.695  16.306  26.922 -0.0443 -0.0784  0.0385
 9114W        W52105   7.042  14.665  16.853 -0.0021  0.0721 -0.0040
 9115W        W52106  32.297  11.728  15.655 -0.3047  0.0813 -0.1332
 9116W        W52107  32.889   1.006  16.931  0.0302  0.1152 -0.0600
 9117W        W52108   4.719  26.121  22.815  0.2404 -0.1743  0.4591
 9118W        W52109  14.456   9.010  28.803 -0.2293 -0.2383  0.1529
 9119W        W52110  31.952   1.401  18.515  0.0289 -0.0032 -0.2484
 9120W        W52111  28.058  25.353  23.120  0.0115  0.0776 -0.2240
 9121W        W52112  23.292   6.954  22.757 -0.2140 -0.0265  0.3914
 9122W        W52113   2.192  22.740  21.983 -0.2796  0.0632 -0.3387
 9123W        W52114  22.436  28.251  16.274  0.0815 -0.1685 -0.0057
 9124W        W52115  32.266  13.538  22.708 -0.0172  0.1209  0.1509
 9125W        W52116   6.311  27.962  17.719  0.5651 -0.1017 -0.1795
 9126W        W52117  13.820  25.269  17.817 -0.3203 -0.2060  0.0722
 9127W        W52118   9.627  18.566  14.923 -0.0270  0.4167 -0.2281
 9128W        W52119   8.311   3.892  14.219  0.0503  0.1070 -0.1071
 9129W        W52120  30.729   2.665  18.785 -0.1154  0.2985 -0.0920
 9130W        W52121   2.633  23.226   5.515 -0.4722 -0.2980 -0.2974
 9131W        W52122  26.962   1.419  13.967  0.0718  0.0172 -0.1396
 9132W        W52123   4.801  17.295  24.273 -0.3150 -0.0735 -0.3735
 9133W        W52124  28.222  22.044  14.085 -0.1253 -0.0626 -0.3471
 9134W        W52125  16.339  27.223  16.406 -0.0751 -0.2013  0.0906
 9135W        W52126   2.055  14.995  20.326  0.4171 -0.0873  0.5794
 9136W        W52127  32.949  25.280   5.670 -0.0072  0.2139  0.0630
 9137W        W52128  15.236  30.894  16.346  0.2551  0.1456  0.1387
 9138W        W52129   9.254  11.813  28.420 -0.0707  0.2417 -0.5418
 9139W        W52130  29.420   7.716   2.272  0.1228  0.0686 -0.2377
 9140W        W52131   6.086   1.602  28.076 -0.2086 -0.0390  0.2801
 9141W        W52132  28.328  22.427   9.846 -0.1061  0.0239 -0.2419
 9142W        W52133   9.487  20.118  17.481 -0.3478  0.0674 -0.5029
 9143W        W52134   6.005   9.410  21.873 -0.3707  0.1150  0.0841
 9144W        W52135   2.419   2.666  17.431 -0.1316  0.0418 -0.3120
 9145W        W52136   3.039   8.617  18.041  0.2470  0.1739 -0.0718
 9146W        W52137  17.779  16.992   3.244 -0.0794 -0.1581  0.0151
 9147W        W52138  22.130  15.145  26.212 -0.1165  0.0172 -0.1038
 9148W        W52139  26.713  15.145  25.682 -0.2268  0.2255  0.4662
 9149W        W52140  11.643  18.624  15.589  0.0459 -0.1058 -0.1411
 9150W        W52141  33.487  29.147  22.664  0.2828  0.0909  0.0393
 9151W        W52142  12.700  12.150  23.486  0.0625  0.1473  0.0082
 9152W        W52143  29.640  20.610  27.220  0.0930  0.4231  0.1499
 9153W        W52144   3.353   8.889  19.119 -0.2656 -0.0092  0.1399
 9154W        W52145  30.555  29.354  24.651 -0.1272  0.0874 -0.0365
 9155W        W52146   3.185   9.249  28.642  0.0293  0.2635 -0.0657
 9156W        W52147  32.348  20.381  24.547 -0.4141  0.0104 -0.2527
 9157W        W52148  25.101  11.547  25.640 -0.4581  0.1206  0.1844
 9158W        W52149  26.886  11.647  28.409 -0.2138  0.0318  0.2003
 9159W        W52150  11.714   7.522   7.402 -0.4142 -0.1884  0.0928
 9160W        W52151  11.403  26.627  24.114  0.0591 -0.0779 -0.1892
 9161W        W52152  31.294  12.360  19.672  0.2491  0.1827 -0.0854
 9162W        W52153   1.927   3.043  16.218  0.0455 -0.3747 -0.0679
 9163W        W52154   8.759   1.999  14.881 -0.0875  0.0120  0.3123
 9164W        W52155   7.032   0.717  26.345 -0.0376  0.1243 -0.0055
 9165W        W52156   2.942  26.638  24.563  0.1322  0.0574  0.0767
 9166W        W52157   2.181   0.750  14.742 -0.1439  0.3825 -0.1496
 9167W        W52158  23.710   7.908   1.394 -0.2432  0.1396  0.3616
 9168W        W52159  29.614  14.868  21.633 -0.0410 -0.1140 -0.0668
 9169W        W52160  34.060   8.662  19.143  0.1907 -0.3300 -0.1320
 9170W        W52161  30.960   5.007  17.595  0.0999 -0.0444 -0.3510
 9171W        W52162  19.919  17.473   8.604 -0.0544 -0.2683 -0.0246
 9172W        W52163  33.870  14.982   1.971  0.0109 -0.2935 -0.1858
 9173W        W52164   2.905   5.520   8.685  0.1930  0.1611  0.0524
 9174W        W52165   2.819   5.942  21.693  0.3794  0.2011  0.1941
 9175W        W52166  33.903  15.431  20.673  0.2551  0.0866 -0.1448
 9176W        W52167   4.974  33.410  14.932  0.0891 -0.0659 -0.0611
 9177W        W52168  24.801  14.011  20.974  0.1379 -0.1912 -0.0226
 9178W        W52169  30.429  20.936  25.923  0.0476 -0.0084  0.1123
 9179W        W52170   4.719  16.820  17.957  0.0409 -0.0868 -0.1456
 9180W        W52171   2.079  27.674  16.794  0.1552 -0.0482  0.0921
 9181W        W52172  34.713  15.506  28.473  0.1617  0.1866 -0.1806
 9182W        W52173   7.238   4.494  17.169  0.0674 -0.0616 -0.1057
 9183W        W52174   6.656   6.785  17.175 -0.0209 -0.0805  0.0558
 9184W        W52175  27.565  22.957  19.682 -0.0463 -0.0527 -0.1237
 9185W        W52176   4.633   5.122   0.064 -0.3429  0.1759 -0.1565
 9186W        W52177  20.270  11.321  26.162 -0.0409  0.1766  0.0077
 9187W        W52178  17.093  22.096  23.262 -0.1964  0.1077  0.0238
 9188W        W52179  30.643  12.136  17.075  0.0657 -0.1155  0.0018
 9189W        W52180  11.721  15.091  25.623  0.0463 -0.2544  0.0088
 9190W        W52181  12.408  23.017   0.124  0.0672 -0.0057  0.1836
 9191W        W52182  32.336  10.733   0.604  0.0048 -0.2948 -0.2338
 9192W        W52183  22.488  19.790   2.569 -0.3248  0.0974  0.3518
 9193W        W52184  32.401  12.987  22.700  0.0197  0.0551 -0.0467
 9194W        W52185   3.890  27.248  24.183 -0.4752 -0.2454  0.1563
 9195W        W52186   1.059  27.433   0.528 -0.0741 -0.1955 -0.0360
 9196W        W52187  34.353   8.432   1.323  0.0311 -0.1954  0.2625
 9197W        W52188  33.313   2.507  21.977 -0.1654 -0.0164 -0.1215
 9198W        W52189  13.587  27.409  15.144 -0.1180 -0.2925  0.0630
 9199W        W52190  23.670   0.031  18.029 -0.0332 -0.0536  0.0232
 9200W        W52191  27.566   2.580  20.454 -0.0956  0.2086 -0.0952
 9201W        W52192  22.093  34.166  29.067  0.1295  0.0480  0.3140
 9202W        W52193  12.503   6.360  19.849 -0.3499 -0.2173  0.0711
 9203W        W52194  12.501  18.467  14.694 -0.2152  0.1124 -0.2599
 9204W        W52195  10.265  16.783  26.176 -0.2468 -0.0107  0.0362
 9205W        W52196  34.455   8.355  15.422  0.1308 -0.1419 -0.0827
 9206W        W52197  16.441  29.558  15.944  0.0884 -0.0017  0.1821
 9207W        W52198  33.475  15.496  19.866  0.3397 -0.1447 -0.2348
 9208W        W52199  27.342  18.000  20.169  0.0501 -0.0314 -0.4475
 9209W        W52200  22.389   0.617  18.537  0.2761  0.2764  0.0487
 9210W        W52201  26.941   9.502  19.525 -0.3327 -0.1264  0.0651
 9211W        W52202   1.031   8.098  19.145  0.1150 -0.1015  0.1158
 9212W        W52203   6.956  12.445  17.310  0.0868  0.2660 -0.1246
 9213W        W52204  16.213  20.852  17.597 -0.0641 -0.1997 -0.0091
 9214W        W52205  19.042   7.704  25.912 -0.1727 -0.1697  0.0539
 9215W        W52206   0.741  33.964  13.908 -0.3598  0.1303  0.0530
 9216W        W52207  25.041  19.618  17.375  0.3128  0.2946 -0.1954
 9217W        W52208  10.494   6.885  17.416 -0.0077 -0.0074  0.0989
 9218W        W52209   0.276  15.269  23.812 -0.1318  0.1743  0.2009
 9219W        W52210   6.131  21.470  20.850 -0.1974  0.3411  0.0115
 9220W        W52211  32.721   2.398   3.129  0.0044 -0.2214 -0.0716
 9221W        W52212   2.461   6.098  16.542 -0.0704  0.1725  0.3264
 9222W        W52213  34.689   9.577  22.085 -0.0407  0.1462  0.0913
 9223W        W52214   5.885  34.599  18.713  0.3770 -0.1403 -0.0676
 9224W        W52215  32.358  13.813  20.498  0.3064 -0.2656  0.1196
 9225W        W52216  34.384  23.754  18.338  0.3359 -0.0320  0.0081
 9226W        W52217  32.053   4.219  18.246 -0.1976 -0.1135  0.0968
 9227W        W52218  23.791  10.149  15.925  0.4285 -0.1372  0.0673
 9228W        W52219   4.911  14.892  19.409 -0.4135  0.2752 -0.0489
 9229W        W52220  30.190   3.675   7.645 -0.1024 -0.2341  0.0772
 9230W        W52221  27.234  19.629  23.206 -0.0442 -0.3935  0.1526
 9231W        W52222   2.034  14.632   0.393 -0.2851  0.0694 -0.1398
 9232W        W52223  23.714   8.660  23.649  0.1559  0.0648  0.3804
 9233W        W52224   5.030  16.360  26.851 -0.0094  0.0715 -0.0627
 9234W        W52225  24.014  29.201  15.192 -0.0695 -0.0267 -0.2365
 9235W        W52226   9.935   8.916   4.292 -0.0553  0.0507 -0.1288
 9236W        W52227   5.430   3.143  26.403 -0.0506  0.3252  0.4689
 9237W        W52228  32.355   6.667  26.423 -0.0705  0.0632  0.1136
 9238W        W52229   1.386   4.698  22.698  0.1120 -0.0256 -0.0257
 9239W        W52230   5.208   1.298  22.366 -0.0871 -0.1060 -0.2391
 9240W        W52231   8.811  18.232  16.246 -0.0982  0.1113  0.2938
 9241W        W52232  29.947  23.362  17.703  0.1345 -0.2347 -0.0407
 9242W        W52233   1.146   8.821  25.999 -0.1631  0.0289  0.0808
 9243W        W52234  33.959  18.775  18.527 -0.1634 -0.0571  0.0746
 9244W        W52235  26.328  14.581  22.762 -0.2289 -0.3532 -0.0380
 9245W        W52236  33.447  11.372  17.793 -0.2288 -0.3763 -0.1285
 9246W        W52237  28.091  10.919  21.468 -0.2827 -0.1235 -0.3322
 9247W        W52238   3.638   8.097  15.934 -0.1865  0.1689  0.3158
 9248W        W52239  33.084   1.085   4.310 -0.1640 -0.0793  0.0687
 9249W        W52240  23.213  18.590  23.723  0.4862 -0.2640  0.2126
 9250W        W52241   1.100   8.872   0.580  0.0510  0.0433 -0.2125
 9251W        W52242   3.007  18.084   7.038  0.0331 -0.2750 -0.0982
 9252W        W52243  29.588   7.130  18.337 -0.2251 -0.3710 -0.1001
 9253W        W52244   7.171  20.550  15.252  0.1580 -0.1015 -0.0939
 9254W        W52245  26.663  29.087  16.730  0.2461  0.1413  0.0830
 9255W        W52246  16.479   7.715  18.279 -0.2346 -0.1329 -0.1888
 9256W        W52247   4.148  13.650   8.439  0.0703  0.0608  0.5330
 9257W        W52248   8.039  21.636  24.296  0.1157 -0.1164  0.2415
 9258W        W52249  22.793  18.781  23.569  0.0562  0.2493 -0.0426
 9259W        W52250  33.169  11.334  23.375 -0.3074 -0.0378  0.1847
 9260W        W52251   7.838  32.594  17.700 -0.0967 -0.1428  0.1748
 9261W        W52252   2.620   2.589  26.689  0.1171  0.1739 -0.0164
 9262W        W52253   4.231   3.451  21.480  0.1290 -0.0845 -0.2781
 9263W        W52254   0.698  21.840  17.697 -0.0747 -0.0263  0.2110
 9264W        W52255   9.335  12.311  21.266  0.1358  0.2085 -0.1519
 9265W        W52256  25.790  34.078   6.556  0.0957 -0.2526 -0.1199
 9266W        W52257  34.677  29.021  16.400  0.0482  0.0649 -0.0707
 9267W        W52258  19.664  34.768  22.890  0.0655  0.2044 -0.0606
 9268W        W52259  17.931   9.018  27.448  0.0280 -0.2642  0.1854
 9269W        W52260  29.235  17.628  16.853 -0.0720  0.0095 -0.0924
 9270W        W52261   9.173  24.852  23.454 -0.1601  0.1861  0.0811
 9271W        W52262  32.191  10.751  17.937 -0.3600 -0.0295  0.2071
 9272W        W52263   1.845  14.752  21.122  0.1112 -0.1352  0.1681
 9273W        W52264   5.304   2.331  18.773  0.2019  0.2101  0.2633
 9274W        W52265   0.482  18.321  18.495 -0.3155  0.0763  0.1924
 9275W        W52266  23.880  14.364  21.813 -0.0539  0.0549  0.3789
 9276W        W52267  26.441  18.038  22.865  0.2724  0.2282 -0.1798
 9277W        W52268  12.389  11.074  19.253 -0.1431 -0.0339  0.0376
 9278W        W52269   1.165   6.049  23.778 -0.0258  0.0394 -0.3752
 9279W        W52270  21.607   4.931  24.939 -0.1393 -0.3014 -0.0072
 9280W        W52271  19.355  21.655  21.599  0.1669  0.2648  0.2357
 9281W        W52272  33.462  19.719  23.101 -0.1699  0.4257 -0.1653
 9282W        W52273   0.802  20.080  21.601 -0.3085  0.0657  0.3009
 9283W        W52274  11.646  32.434  21.348 -0.0641  0.2843  0.0782
 9284W        W52275  22.192   5.015  17.670  0.0156 -0.1201 -0.3533
 9285W        W52276  20.863  16.586  22.985 -0.1809 -0.3032  0.2153
 9286W        W52277   6.065  18.107  18.533  0.0777  0.3327  0.0004
 9287W        W52278  31.619  14.557  28.201 -0.1259 -0.2445  0.0612
 9288W        W52279  16.674  21.777  26.904  0.2895 -0.0537  0.1288
 9289W        W52280   2.950  20.307  21.773 -0.2147  0.0773 -0.1173
 9290W        W52281   8.777  14.517  28.132 -0.0826  0.0946 -0.0057
 9291W        W52282  33.468   0.755  19.557 -0.0359 -0.0645  0.0076
 9292W        W52283   0.998   5.638   4.278  0.1795  0.0648  0.0168
 9293W        W52284   6.211  18.460  17.703 -0.2694  0.1220 -0.0003
 9294W        W52285  11.463  29.571  14.155 -0.1988 -0.3405 -0.1948
 9295W        W52286  14.207   0.872  22.753  0.3447  0.0430 -0.2659
 9296W        W52287  29.204  17.124  19.694  0.1352 -0.0216 -0.1145
 9297W        W52288  16.624   9.082  25.528  0.2570  0.0942  0.0347
 9298W        W52289  25.261  12.260  25.700  0.1328 -0.3094  0.0494
 9299W        W52290  34.444   9.474  16.382 -0.1276 -0.0066 -0.0641
 9300W        W52291   1.827   3.400  20.727  0.0077  0.1286  0.1926
 9301W        W52292   5.584  27.008  23.467  0.3251 -0.0225  0.0136
 9302W        W52293   6.059   6.528  26.130 -0.1691 -0.1090 -0.3387
 9303W        W52294  22.937   5.368  27.034  0.1303  0.1042 -0.1166
 9304W        W52295  33.780  32.159  16.703  0.1988 -0.0961 -0.2092
 9305W        W52296   5.408  12.315  19.254  0.0020 -0.0647  0.2510
 9306W        W52297   5.502   9.718  18.302 -0.0187 -0.0883  0.0435
 9307W        W52298   8.778  16.083  18.970 -0.1513 -0.3318 -0.0387
 9308W        W52299  10.046  12.488  10.273  0.2184  0.3104  0.2034
 9309W        W52300  16.912   8.003  19.341 -0.2262 -0.1716 -0.0398
 9310W        W52301   6.932   5.398  20.249 -0.2533  0.0415 -0.3185
 9311W        W52302   8.373   7.187  15.838 -0.0289  0.1399  0.0133
 9312W        W52303  28.936  19.983  27.399  0.0529 -0.1063  0.0247
 9313W        W52304  21.851  21.309  22.741 -0.0016 -0.0172  0.0743
 9314W        W52305  22.128  13.762  16.632 -0.1825  0.0071 -0.1804
 9315W        W52306   9.877  23.321  13.934  0.2192 -0.3787  0.1173
 9316W        W52307  34.091  14.341  19.842 -0.0171 -0.1578 -0.0178
 9317W        W52308  15.606   5.085  18.475 -0.0933  0.1391  0.2817
 9318W        W52309  30.929  26.688  20.946  0.1748  0.1442 -0.2509
 9319W        W52310  29.447  21.731  22.311  0.0289  0.0531  0.0810
 9320W        W52311  33.340   3.665  15.359 -0.1133  0.2446  0.2839
 9321W        W52312   6.032  13.080  19.858  0.0249  0.1660 -0.1632
 9322W        W52313   1.715  29.844  27.788  0.1774 -0.0030 -0.0222
 9323W        W52314  31.914   7.032  27.929 -0.0091  0.1359  0.0841
 9324W        W52315  30.917  10.743  20.957 -0.0158 -0.2127 -0.0803
 9325W        W52316  20.664  27.520   4.400  0.2304  0.1306  0.0061
 9326W        W52317   4.957  11.641   1.529 -0.2732 -0.0294  0.1598
 9327W        W52318  12.424  28.471   5.957 -0.0026 -0.3870 -0.1351
 9328W        W52319   6.972   5.300  27.012  0.0361  0.0752 -0.0197
 9329W        W52320   3.624   6.172  16.098 -0.2270  0.2089 -0.2839
 9330W        W52321  22.688   0.594  20.402 -0.1358 -0.1362  0.2655
 9331W        W52322  30.255   8.317  15.002 -0.0243 -0.0044  0.1914
 9332W        W52323   9.198  15.904  24.207  0.1908  0.1989 -0.1590
 9333W        W52324  29.656  19.722   8.959 -0.0655  0.2601 -0.3836
 9334W        W52325  32.833  21.378  26.529 -0.1137  0.1402 -0.1345
 9335W        W52326  30.917   4.516  20.954  0.0448 -0.1254  0.2058
 9336W        W52327  30.822  10.549  21.607 -0.1273  0.1115 -0.2297
 9337W        W52328  31.295  19.439  21.375  0.1962 -0.2546  0.4069
 9338W        W52329   3.138   8.587   9.639  0.4038 -0.1584  0.1836
 9339W        W52330  30.940   7.118  15.765 -0.1265 -0.2129  0.0264
 9340W        W52331  29.997   3.896  18.188 -0.0034 -0.1063 -0.1657
 9341W        W52332  14.273   6.487  23.745  0.2279 -0.0953 -0.2254
 9342W        W52333  11.166   6.938  26.316  0.1552 -0.2319  0.2015
 9343W        W52334   5.460  10.100  27.728 -0.0536 -0.0590  0.1067
 9344W        W52335   3.942  11.090  16.135  0.2969  0.0297 -0.0165
 9345W        W52336   1.454  34.421  23.529  0.0491 -0.0722 -0.1903
 9346W        W52337  26.148  24.337  13.859  0.0551 -0.1128 -0.3259
 9347W        W52338   2.228  13.228  23.352 -0.1027 -0.3179 -0.0019
 9348W        W52339  30.262  11.370  25.584 -0.1462 -0.0637 -0.1357
 9349W        W52340   4.438  10.003  29.180  0.0123 -0.1863 -0.2247
 9350W        W52341  33.541  13.539  21.209  0.1433  0.0356  0.1542
 9351W        W52342   6.364  23.782  16.452 -0.3645 -0.1939 -0.0762
 9352W        W52343   4.929  10.225  16.927  0.0585 -0.0049  0.2897
 9353W        W52344  20.782   9.677  17.792  0.3013  0.0812 -0.0720
 9354W        W52345   3.114  14.283  23.360 -0.1385  0.0241 -0.0382
 9355W        W52346  27.847  12.405  15.458  0.1742 -0.0957 -0.0039
 9356W        W52347  23.218  14.572  26.715  0.4101 -0.2342  0.1279
 9357W        W52348   4.142   8.433  19.465 -0.1260  0.3142  0.1478
 9358W        W52349   3.715   8.387   8.587 -0.2000 -0.2089 -0.0746
 9359W        W52350  28.335  13.757  29.225  0.1369 -0.3176  0.0516
 9360W        W52351  26.792   3.543  18.658 -0.1775 -0.2326 -0.1006
 9361W        W52352  13.906   5.454  20.167 -0.2027  0.1212  0.0606
 9362W        W52353  22.524   8.166   5.627 -0.0209  0.0810  0.1430
 9363W        W52354  23.093  29.585   4.346 -0.0957  0.0161 -0.1859
 9364W        W52355   5.473   1.522  24.075  0.3386  0.1768 -0.0982
 9365W        W52356   1.134  17.623   0.706 -0.3659  0.0091  0.0335
 9366W        W52357   3.458   8.756  24.289 -0.1931 -0.2383  0.0451
 9367W        W52358  28.663  29.160  21.070 -0.0703  0.0750 -0.2843
 9368W        W52359   7.051   7.593   2.425  0.4256  0.2624 -0.0047
 9369W        W52360  32.883  33.513  13.585  0.0998  0.0283  0.1760
 9370W        W52361  28.829  16.422  25.513  0.2868 -0.1716 -0.0557
 9371W        W52362  23.402  25.084  19.295 -0.0779  0.1581 -0.0983
 9372W        W52363  13.709  22.774  18.324 -0.2914 -0.3360  0.1610
 9373W        W52364   0.460  14.431  19.131  0.1061  0.1472 -0.3816
 9374W        W52365   7.255  28.080   5.602 -0.4387  0.0358  0.3928
 9375W        W52366  29.547  11.946  15.902  0.1797 -0.0002 -0.0162
 9376W        W52367  29.380   4.809  14.344  0.0404  0.2593 -0.0103
 9377W        W52368   4.513  12.256  22.337  0.0984 -0.1521 -0.0922
 9378W        W52369  10.478  34.765  24.425  0.0669 -0.0311 -0.0670
 9379W        W52370  28.637   5.409  15.718  0.1618 -0.0585  0.2632
 9380W        W52371  27.755   1.719  15.306  0.1073 -0.1740  0.2322
 9381W        W52372  31.100  15.241  28.772 -0.1653  0.2075  0.0866
 9382W        W52373  22.464   7.920   1.579 -0.4530 -0.0468  0.3983
 9383W        W52374  12.520   2.125  23.618 -0.0105  0.4155  0.1948
 9384W        W52375  29.202  18.623  19.633  0.1957 -0.2101 -0.3496
 9385W        W52376   9.339   6.604  28.767  0.1800 -0.0994 -0.0644
 9386W        W52377  29.003  28.514  14.918  0.1223  0.3336  0.0100
 9387W        W52378   0.269  29.668  13.585  0.3176  0.0919  0.1053
 9388W        W52379   7.155  31.113  16.592 -0.0382  0.0005  0.1726
 9389W        W52380  29.058   4.030  22.209 -0.1045 -0.0236  0.0841
 9390W        W52381   1.806  15.352   3.965  0.1554 -0.0449  0.0600
 9391W        W52382   5.757  20.001   0.241  0.2417  0.3682  0.1536
 9392W        W52383   8.183  23.523   5.383 -0.4560 -0.2552 -0.0281
 9393W        W52384  19.780   4.213  19.073  0.3088 -0.0324 -0.1581
 9394W        W52385   3.167   7.660  16.656 -0.0519 -0.2020  0.1075
 9395W        W52386  19.399  26.760  13.601  0.0660  0.3965  0.0109
 9396W        W52387   7.678  34.237  17.868 -0.3876  0.1939 -0.1491
 9397W        W52388   9.205  27.842  16.892  0.0176  0.0336  0.1728
 9398W        W52389   6.245  12.979   1.376 -0.1305  0.0746  0.0230
 9399W        W52390  13.950  23.296  18.168 -0.1273 -0.0208  0.2300
 9400W        W52391  34.244   3.191  25.265  0.1039 -0.2698 -0.0944
 9401W        W52392  18.070   7.225   8.219  0.1480  0.0359  0.2432
 9402W        W52393   7.563  19.765  24.210  0.0234 -0.0676 -0.0650
 9403W        W52394   5.375  14.670   6.478 -0.0956 -0.1728 -0.0064
 9404W        W52395  27.921  18.519  28.420  0.1109 -0.0890 -0.1985
 9405W        W52396  27.047  12.953   2.576 -0.0283 -0.0121 -0.0304
 9406W        W52397  21.222  11.635  15.064 -0.1407 -0.2002 -0.0738
 9407W        W52398  15.838   6.102  23.627 -0.0246  0.1954  0.3214
 9408W        W52399  30.524  17.007  18.465  0.0711  0.2357 -0.0181
 9409W        W52400  10.366  29.555   5.937 -0.2580  0.3315  0.0797
 9410W        W52401  13.610   2.649  28.897 -0.0241  0.1533  0.0733
 9411W        W52402  27.782   0.633  14.297 -0.0028  0.2440  0.0109
 9412W        W52403  23.639   8.822  14.333 -0.0551  0.2256 -0.3769
 9413W        W52404   9.330   9.442  23.356  0.0828 -0.1533  0.2511
 9414W        W52405  12.919  34.798  17.736 -0.1325  0.3172 -0.0257
 9415W        W52406   5.226  24.052  15.955 -0.0910  0.0098 -0.4820
 9416W        W52407   3.839   7.446  27.610 -0.3066 -0.0682  0.2850
 9417W        W52408   7.866  22.208  17.633 -0.1395 -0.0160 -0.2504
 9418W        W52409   5.309  11.869  24.732 -0.0054 -0.1495 -0.3170
 9419W        W52410   8.246  22.921  22.413  0.0377 -0.3141 -0.2492
 9420W        W52411   7.065   6.485  22.746 -0.1101  0.0642  0.1033
 9421W        W52412  20.352  24.023  16.223  0.1068  0.1794  0.0224
 9422W        W52413   1.895  21.159  15.636  0.0631  0.0802  0.0152
 9423W        W52414   3.558  34.213  17.916  0.1846  0.1266  0.1322
 9424W        W52415   9.783  15.374  14.384 -0.1036 -0.1489 -0.0251
 9425W        W52416  12.555  26.032   2.800  0.5074  0.1858  0.1687
 9426W        W52417  21.288  20.138  24.136 -0.1048 -0.2528 -0.2864
 9427W        W52418   0.401  31.194  15.705 -0.0530  0.3308 -0.1665
 9428W        W52419  16.094  26.968  25.705 -0.1319  0.2685 -0.0580
 9429W        W52420   1.624  13.029  20.748 -0.0690 -0.2798  0.1036
 9430W        W52421  28.877  10.478  14.622 -0.1235 -0.0952  0.1069
 9431W        W52422  11.371  24.445  15.861  0.0280  0.3192  0.0993
 9432W        W52423  22.164  13.755  27.486  0.0854  0.1285 -0.2840
 9433W        W52424   7.411  18.385  20.982  0.0695  0.3768  0.1140
 9434W        W52425  31.622   3.029   1.061  0.4349  0.1032 -0.0101
 9435W        W52426  34.044  15.470  24.406  0.0030 -0.4238 -0.2404
 9436W        W52427  20.502  23.012  19.934  0.0661 -0.0509 -0.3546
 9437W        W52428   4.988   8.871  17.527  0.0960 -0.0037  0.2522
 9438W        W52429  26.453   9.225  24.616  0.3008 -0.2731 -0.1215
 9439W        W52430  27.511   9.702  20.182 -0.0517  0.2470 -0.2050
 9440W        W52431  27.964  10.672  17.943 -0.0995 -0.0017 -0.1660
 9441W        W52432  31.425  16.021  23.419 -0.2428  0.0306 -0.0281
 9442W        W52433  10.281  16.232  15.112 -0.1944 -0.0208 -0.0071
 9443W        W52434   0.430  19.753  19.944  0.2480 -0.2883  0.0584
 9444W        W52435  21.326  24.103  16.460 -0.1732 -0.3251  0.3719
 9445W        W52436  19.064  21.099  13.674  0.1247  0.1403  0.0522
 9446W        W52437  19.775   4.860  16.018 -0.0034  0.0091  0.1107
 9447W        W52438  34.658  14.050  27.536 -0.0552 -0.2628  0.0576
 9448W        W52439  22.331   3.091  24.994  0.0552  0.0490  0.1180
 9449W        W52440   5.324  29.176  28.868 -0.3070 -0.0487  0.0220
 9450W        W52441   0.806   8.225  24.847 -0.0418  0.2166 -0.1168
 9451W        W52442  32.456  15.836  18.313  0.1466 -0.2344 -0.1148
 9452W        W52443  33.017   0.028  19.755 -0.1687  0.0350 -0.0731
 9453W        W52444  33.513  19.975  17.461 -0.2387 -0.2570 -0.1551
 9454W        W52445  32.158   9.625  16.659  0.1454  0.1500  0.1222
 9455W        W52446  23.140  27.125  16.751 -0.0372 -0.1856 -0.0106
 9456W        W52447  31.796  15.041  16.345 -0.2007  0.2267 -0.1265
 9457W        W52448  13.563   5.884   9.524 -0.4165 -0.1747  0.1379
 9458W        W52449   5.104   2.057  17.002  0.4325  0.0161  0.1314
 9459W        W52450  32.962  13.750  10.978  0.1893  0.2255  0.0699
 9460W        W52451  29.123   7.539  20.124 -0.0818 -0.1464  0.3745
 9461W        W52452  11.045  19.706  20.513 -0.0555 -0.1982 -0.1979
 9462W        W52453  17.570   2.247  22.435 -0.1053  0.0261  0.3247
 9463W        W52454  10.811  11.045  20.048  0.0055  0.0847  0.4157
 9464W        W52455  34.532   8.663  27.882  0.0200 -0.3393 -0.3331
 9465W        W52456   1.492  13.923  27.706  0.0570 -0.0596 -0.0634
 9466W        W52457   9.873  23.638   0.609 -0.1958  0.1684  0.3699
 9467W        W52458  14.986   3.240  18.118  0.1232  0.0553  0.1154
 9468W        W52459   8.613  10.231  18.415 -0.1169  0.0923 -0.1257
 9469W        W52460   5.969  18.228   6.289  0.2406 -0.2347  0.1370
 9470W        W52461   2.483  15.701  27.996 -0.1328 -0.1815  0.2408
 9471W        W52462   5.288  30.348  15.939  0.0007 -0.0489 -0.1910
 9472W        W52463  18.541   9.649  16.601 -0.0132 -0.1709 -0.0160
 9473W        W52464  11.811   2.245  17.222  0.1466 -0.0078  0.2593
 9474W        W52465   3.434  24.011  15.137 -0.3532 -0.0669 -0.0532
 9475W        W52466   5.939   4.292  17.035 -0.3691  0.2275 -0.2500
 9476W        W52467  15.673  14.009  21.018  0.0509  0.2216  0.2685
 9477W        W52468  21.819   2.874  14.835  0.0192  0.1116 -0.0576
 9478W        W52469  31.423  17.033  20.537 -0.1567 -0.2607 -0.0770
 9479W        W52470  23.276  11.004  15.178  0.1593  0.1345 -0.1341
 9480W        W52471  15.679  20.810  16.296 -0.0139 -0.3465  0.1739
 9481W        W52472   5.797  21.171  14.986  0.0646 -0.2018  0.0612
 9482W        W52473  12.002  15.791  15.885 -0.0476  0.0176 -0.0729
 9483W        W52474  20.693  20.029  17.658  0.0223  0.3287 -0.0094
 9484W        W52475   4.434  20.292  23.143  0.0716  0.1263  0.0035
 9485W        W52476  28.264   2.383  28.605 -0.2339  0.2123  0.3228
 9486W        W52477  33.947  22.019  25.611  0.2239 -0.0715  0.1679
 9487W        W52478  16.855  20.535  13.986  0.1616 -0.1590 -0.1319
 9488W        W52479   9.156   6.502  17.516  0.1217  0.1711  0.2096
 9489W        W52480   0.861  18.892  20.779 -0.1250  0.3092 -0.0417
 9490W        W52481  26.187  25.664   0.259 -0.3246  0.1969 -0.1265
 9491W        W52482  18.309  14.554  13.617  0.0093  0.0223 -0.2562
 9492W        W52483  31.875   1.189  16.484  0.0324  0.0003  0.2069
 9493W        W52484   6.479   9.649  21.832 -0.3399  0.0233 -0.3967
 9494W        W52485   1.768  14.976  25.572  0.4968 -0.0936  0.3489
 9495W        W52486   9.445  11.730  22.202 -0.0740  0.1871 -0.1897
 9496W        W52487   8.267   9.532  23.530 -0.1030  0.2035 -0.0928
 9497W        W52488  22.128   2.530  17.855 -0.1065 -0.1684  0.1618
 9498W        W52489   6.291   8.934  15.424 -0.1974  0.0612 -0.0320
 9499W        W52490   5.305  33.191  14.117 -0.0147  0.0387 -0.0188
 9500W        W52491  29.831  18.906  22.306 -0.0554  0.0755 -0.0017
 9501W        W52492  15.714  23.136  24.092  0.1666  0.1057 -0.1204
 9502W        W52493   8.339   1.037  19.316 -0.1996 -0.3078 -0.0544
 9503W        W52494   1.117  20.901   2.803 -0.0218  0.0979  0.0975
 9504W        W52495   2.174  19.148  17.979  0.0430 -0.2018  0.0660
 9505W        W52496   3.439  21.183  28.709 -0.0471  0.0773 -0.1681
 9506W        W52497  21.886   9.989  18.336  0.1735 -0.3114  0.0352
 9507W        W52498  19.857  23.616   0.479 -0.0398  0.2612  0.0759
 9508W        W52499  23.198  18.490  22.726 -0.0066  0.1493  0.1880
 9509W        W52500  27.630   7.113  20.136  0.0388  0.0869 -0.0039
 9510W        W52501  30.474  17.301  23.777 -0.1139 -0.0972 -0.2864
 9511W        W52502  33.180  11.880   1.338 -0.0383 -0.0949 -0.4932
 9512W        W52503  28.147  29.102   7.448  0.0772 -0.0534  0.1151
 9513W        W52504  30.826  17.171  15.697  0.0849  0.0787 -0.0921
 9514W        W52505  22.715   5.626  13.658  0.0709  0.1890 -0.1043
 9515W        W52506  25.890   4.651  19.055 -0.0055 -0.1278  0.2069
 9516W        W52507   0.207  20.760   0.104 -0.1005 -0.3761  0.0755
 9517W        W52508  26.294  14.678  28.749  0.1854  0.2144 -0.3787
 9518W        W52509  14.912  32.936  26.773  0.1780 -0.0984 -0.1359
 9519W        W52510  33.495  22.515  17.665  0.3723  0.2020  0.0274
 9520W        W52511  28.766  19.038  19.286  0.3065  0.0252  0.3310
 9521W        W52512  18.226  25.056   5.370 -0.1049 -0.1811  0.3228
 9522W        W52513   9.716  17.169  26.912 -0.1639 -0.1594  0.4245
 9523W        W52514  26.365  10.024  23.531  0.1075 -0.2725  0.0548
 9524W        W52515  15.783   9.651  19.673 -0.3059  0.0802  0.1117
 9525W        W52516  26.165  16.450  14.644  0.1200 -0.0344  0.4778
 9526W        W52517   5.952  14.077  20.737  0.0731 -0.1833 -0.1248
 9527W        W52518   6.868   0.817   5.163  0.2964 -0.2424 -0.2547
 9528W        W52519   3.673  23.869  19.864  0.1355  0.1653  0.0411
 9529W        W52520   3.472   7.788  17.001  0.1507  0.0249 -0.3811
 9530W        W52521  26.009  17.103   1.937 -0.4040  0.0200  0.0314
 9531W        W52522  21.163   5.828  22.208  0.1341 -0.5160  0.0106
 9532W        W52523  30.260  16.415  17.510 -0.0378 -0.0037  0.1877
 9533W        W52524   5.233  32.750  16.583  0.1320 -0.1470  0.0466
 9534W        W52525  10.706   8.262  15.400  0.1692 -0.0529 -0.1009
 9535W        W52526   7.518   2.239  16.096 -0.2295  0.5068  0.2991
 9536W        W52527   1.154  18.409  22.039  0.1492  0.0301 -0.2389
 9537W        W52528   0.708  28.080  19.732  0.1159  0.0489  0.0614
 9538W        W52529  34.788   0.067  14.394 -0.5921  0.0961 -0.3494
 9539W        W52530  31.278  14.889  19.337  0.2183  0.3094  0.1658
 9540W        W52531   0.646   2.684   3.497 -0.0668  0.0477 -0.4971
 9541W        W52532  27.336   7.597  19.225  0.1983 -0.2520  0.0351
 9542W        W52533   7.316   7.756  16.826  0.1589 -0.3823 -0.1516
 9543W        W52534   5.585  11.947  14.971  0.3528  0.0366 -0.0082
 9544W        W52535   3.161  20.951  16.094  0.0557 -0.1575  0.1656
 9545W        W52536   4.212  12.600  18.382  0.1959 -0.1323 -0.0713
 9546W        W52537  14.389  18.740  24.076 -0.0904 -0.0469  0.3000
 9547W        W52538   1.046  20.619  17.305 -0.1680  0.0067  0.0613
 9548W        W52539   4.331   1.119   8.729 -0.1651  0.1193 -0.2436
 9549W        W52540   6.164  13.315  21.955 -0.2085 -0.1533  0.1134
 9550W        W52541  30.264  11.739  16.524 -0.2357 -0.2749  0.3523
 9551W        W52542   3.886  22.109  23.477 -0.0067  0.0872 -0.0371
 9552W        W52543   7.973   9.899  25.700 -0.2233  0.0759 -0.0910
 9553W        W52544   9.261  13.660  23.928  0.0426 -0.0433 -0.1330
 9554W        W52545   3.024  16.775  18.173  0.5397 -0.0318 -0.0798
 9555W        W52546   3.002  28.330   1.110  0.2267 -0.2548 -0.1185
 9556W        W52547   7.835   8.106  14.685 -0.1977  0.1182 -0.0624
 9557W        W52548  24.972  11.456  22.185  0.2356 -0.2662 -0.1368
 9558W        W52549  31.823   9.627  18.175 -0.2794 -0.0615 -0.1936
 9559W        W52550   0.009   9.823  18.365 -0.1476  0.0762  0.0190
 9560W        W52551  28.413   4.181   2.458  0.0201 -0.1349  0.1528
 9561W        W52552   5.587  32.846  22.196  0.0766 -0.0032 -0.0310
 9562W        W52553  34.205  13.466  19.789 -0.1079  0.3503  0.1183
 9563W        W52554  15.102   3.450  20.473 -0.1461 -0.1752  0.1731
 9564W        W52555   1.940  21.694  22.765 -0.1191 -0.2575 -0.2867
 9565W        W52556  19.541  26.964  16.976  0.0554  0.0194 -0.3693
 9566W        W52557   3.562  12.910   3.571  0.1352  0.1678 -0.2246
 9567W        W52558  30.433  11.099   0.328 -0.3448  0.1279  0.0703
 9568W        W52559  32.819  28.388  21.559  0.0734  0.1061 -0.0463
 9569W        W52560  28.341   2.362  22.056 -0.2741 -0.2018  0.2055
 9570W        W52561  27.801   6.468  15.393 -0.1186  0.0698 -0.0728
 9571W        W52562   7.916  33.467  17.004 -0.1685 -0.0350 -0.0431
 9572W        W52563  30.250  17.376  14.943  0.0181 -0.1097 -0.1108
 9573W        W52564  17.497   8.906  15.749  0.1755 -0.0033 -0.1273
 9574W        W52565  27.380  29.691  21.211 -0.1383  0.0656  0.4369
 9575W        W52566   4.683   0.633  17.123  0.0276 -0.0249 -0.3302
 9576W        W52567   8.446  31.978  26.649  0.0963 -0.0945  0.0017
 9577W        W52568   4.006   3.654  16.987  0.2119 -0.1649  0.1288
 9578W        W52569  28.155  28.767  23.794 -0.1618  0.2803 -0.0711
 9579W        W52570  31.011  32.940  16.305 -0.1247  0.0166 -0.0481
 9580W        W52571  33.934  10.293  19.300 -0.0183  0.3136 -0.1172
 9581W        W52572  22.327  20.042  29.083 -0.0026 -0.0200  0.0650
 9582W        W52573  27.564   0.391  18.489  0.1561  0.3674 -0.0468
 9583W        W52574  23.956   5.852  23.302  0.3992 -0.1193 -0.2143
 9584W        W52575  21.809  14.431  25.726 -0.3757 -0.1547 -0.1761
 9585W        W52576  28.287  29.699  14.475  0.2275  0.1345  0.1211
 9586W        W52577  12.916   7.609  28.641  0.0090 -0.0001 -0.1229
 9587W        W52578  27.872  28.705   7.486 -0.0138  0.0335  0.1391
 9588W        W52579   0.719   2.995   0.823  0.0271 -0.0911  0.5723
 9589W        W52580  29.645  16.352  16.230  0.2540  0.0489  0.2040
 9590W        W52581  19.401  12.339   1.167 -0.0803  0.2196 -0.1488
 9591W        W52582  32.618   3.031   5.849 -0.0932  0.1187 -0.0753
 9592W        W52583  32.865   5.549  17.036  0.0328 -0.0559 -0.0123
 9593W        W52584  30.905  17.089  23.008  0.0973  0.1085  0.0204
 9594W        W52585  28.025   8.502  25.633 -0.3939 -0.1655 -0.1868
 9595W        W52586  13.687  32.621  21.138  0.1999 -0.1876  0.0700
 9596W        W52587  29.738  19.177  22.739  0.1835 -0.1102 -0.4025
 9597W        W52588  15.374  11.759   0.650 -0.2894 -0.0912 -0.2801
 9598W        W52589  23.907  13.845   2.914 -0.1442  0.3312  0.1366
 9599W        W52590   0.378  11.913  19.736  0.0177 -0.0965  0.1618
 9600W        W52591  24.415  20.942  12.660  0.1222 -0.1419 -0.0440
 9601W        W52592   1.848  32.639  23.501 -0.0078  0.0011  0.1091
 9602W        W52593   1.147  31.039  19.245 -0.2091 -0.0210  0.0102
 9603W        W52594   1.624   4.138  16.724 -0.2227 -0.1317 -0.0848
 9604W        W52595  32.364  17.113  16.756  0.5412 -0.0404 -0.2872
 9605W        W52596   8.458  14.703  18.329  0.0005 -0.2848 -0.2816
 9606W        W52597  33.592  26.685  19.341  0.0289 -0.0361  0.1096
 9607W        W52598  24.038   7.310  23.947  0.3214  0.4489 -0.0514
 9608W        W52599  24.245   7.865  21.577  0.2704 -0.2925  0.1367
 9609W        W52600  16.046  20.154   0.138 -0.0110  0.2423 -0.3353
 9610W        W52601  33.319  31.724  20.583  0.2252 -0.2004  0.0016
 9611W        W52602   9.905   3.898  16.839  0.3002 -0.3380 -0.2047
 9612W        W52603   5.212  10.807  28.438  0.2306 -0.0421 -0.0263
 9613W        W52604  29.226  28.292  14.056  0.1195 -0.0476 -0.0455
 9614W        W52605  23.837  15.433  15.192  0.1999 -0.3198  0.0384
 9615W        W52606  31.197  33.099   6.883 -0.2560  0.1445  0.1934
 9616W        W52607   3.145   4.694  17.381  0.0650 -0.0577 -0.1201
 9617W        W52608  30.556   8.673  26.481 -0.2039 -0.2257 -0.1719
 9618W        W52609   8.114  15.503   5.690  0.1302  0.0215 -0.2195
 9619W        W52610  26.322  11.561  15.976  0.0702 -0.1613 -0.2089
 9620W        W52611   4.473  13.091  27.576 -0.0962 -0.0483  0.0079
 9621W        W52612  24.989  31.529  23.422 -0.3604 -0.2308 -0.2732
 9622W        W52613  11.126  30.668   0.497 -0.0406  0.1834 -0.1161
 9623W        W52614  13.317  10.408   9.096 -0.0885 -0.2716 -0.0440
 9624W        W52615  30.355   1.548   6.710 -0.1420 -0.2045  0.4506
 9625W        W52616  30.313  22.771  16.694 -0.2123  0.1193 -0.2546
 9626W        W52617   4.100  22.641  22.026 -0.0878 -0.2129 -0.2647
 9627W        W52618  31.418   0.440  12.804  0.1008 -0.2898 -0.1620
 9628W        W52619  20.090  16.029  22.667 -0.0415 -0.2592 -0.0519
 9629W        W52620   2.591   9.148  17.477  0.1358 -0.2268  0.1269
 9630W        W52621   3.783   9.492  22.043 -0.3978 -0.1263 -0.1466
 9631W        W52622  33.147  17.391   0.070  0.3050 -0.2855 -0.2707
 9632W        W52623   1.090  19.197   2.140  0.1577  0.2735 -0.0652
 9633W        W52624   5.095  27.002  21.897 -0.4485  0.0577  0.2234
 9634W        W52625  29.982   8.380  22.428  0.1439 -0.2623 -0.0722
 9635W        W52626  28.331  12.683  21.262 -0.0276 -0.2753 -0.2265
 9636W        W52627   1.088  24.212  21.832 -0.3196  0.2227 -0.0017
 9637W        W52628  26.699  16.702  28.859 -0.3103 -0.0925 -0.0635
 9638W        W52629  32.665  13.115  19.088 -0.2780  0.2998  0.2665
 9639W        W52630  19.083  11.779  14.482 -0.0331 -0.4639 -0.1652
 9640W        W52631  29.347  10.771  18.681 -0.1199  0.0055  0.0838
 9641W        W52632   8.169   6.237  18.310 -0.0021  0.0180 -0.0282
 9642W        W52633  32.626  22.906  24.972  0.1402  0.1232  0.0686
 9643W        W52634  13.002  13.233  21.555  0.2664 -0.1561  0.1536
 9644W        W52635  13.017   7.520   1.901 -0.3063  0.0459  0.1614
 9645W        W52636  12.942   9.977  29.000  0.0193 -0.1889 -0.0476
 9646W        W52637  16.620  13.234  14.581 -0.1980 -0.0329  0.0147
 9647W        W52638   9.059  12.671  23.284  0.3091 -0.2535  0.0810
 9648W        W52639   2.230  29.308  24.914 -0.1210  0.2462  0.2793
 9649W        W52640  29.179   3.329  21.468  0.0573 -0.1252 -0.2532
 9650W        W52641   9.540  17.006  21.009 -0.0285 -0.1276  0.2637
 9651W        W52642  10.705  13.122  19.040  0.3122  0.2890  0.1255
 9652W        W52643  26.645  19.777  25.789 -0.1723  0.1121  0.0824
 9653W        W52644   5.701   5.837  16.078  0.4377  0.1771 -0.1850
 9654W        W52645  18.749  23.576  19.112  0.0163  0.1192 -0.1745
 9655W        W52646  28.730   2.481  15.248  0.1764  0.0544  0.0833
 9656W        W52647  29.140   0.485  22.639  0.0990 -0.0431  0.0619
 9657W        W52648   0.345  24.466  26.425  0.1429  0.1769 -0.0390
 9658W        W52649   4.400   7.484  16.497 -0.0357 -0.2443  0.0168
 9659W        W52650   4.212  12.955   1.997  0.0138  0.1146  0.2114
 9660W        W52651  14.007  31.523  16.745 -0.2346  0.2565 -0.2380
 9661W        W52652  11.132  14.890   1.952  0.2120 -0.3831  0.0617
 9662W        W52653   3.094  13.095  18.812 -0.0762 -0.1642  0.0115
 9663W        W52654   1.082   3.149  15.838 -0.1585 -0.0155 -0.4358
 9664W        W52655  12.782   9.145  18.287 -0.2842 -0.1634 -0.3099
 9665W        W52656  30.088   4.243  17.873 -0.1972  0.0748  0.0617
 9666W        W52657  29.147  21.042  25.777  0.2186  0.3227 -0.0820
 9667W        W52658  34.117  22.359  14.214  0.1003 -0.2482  0.0830
 9668W        W52659  11.922   0.974  27.495 -0.2425 -0.0239 -0.4232
 9669W        W52660   8.493  13.617  23.036  0.1588  0.1117 -0.0530
 9670W        W52661   2.856   4.829  20.848 -0.0999 -0.1073  0.3746
 9671W        W52662  11.572   1.644  19.067  0.0901  0.0781  0.2375
 9672W        W52663  31.750   2.154  27.618  0.0986 -0.0701  0.0589
 9673W        W52664   4.207   8.189  27.959  0.1077  0.2418 -0.0285
 9674W        W52665  22.294  13.179  25.023 -0.0843 -0.0320  0.1175
 9675W        W52666  24.125   8.272  20.763 -0.1150 -0.1793  0.2904
 9676W        W52667  34.013  24.535  15.229  0.5124  0.0819  0.0150
 9677W        W52668   0.101  32.924  14.082  0.1513 -0.2688 -0.0928
 9678W        W52669  11.730  30.593  23.035 -0.0595 -0.3222 -0.0040
 9679W        W52670  32.207   9.020  26.377  0.2075  0.4089 -0.0906
 9680W        W52671   4.807  14.716   7.237 -0.0416  0.1121  0.2697
 9681W        W52672  18.248   5.476  22.690  0.1972 -0.1873  0.1020
 9682W        W52673  20.583  22.984  18.178  0.0585 -0.2111 -0.1483
 9683W        W52674   7.193   9.212  15.945  0.3564  0.0592  0.1316
 9684W        W52675   1.317   2.334   0.763  0.0609 -0.3987 -0.1458
 9685W        W52676   6.624   0.825  16.715 -0.2924  0.0391 -0.1316
 9686W        W52677   8.045  25.919  22.911  0.1389  0.0406  0.3985
 9687W        W52678  30.150   5.216  29.080  0.0704  0.1007 -0.1253
 9688W        W52679  25.545   2.931  24.717  0.3830 -0.1814  0.1146
 9689W        W52680   4.287  27.109  26.316 -0.0332  0.3816 -0.2012
 9690W        W52681   9.346  23.825  20.674  0.1850  0.0374 -0.4457
 9691W        W52682   6.930  15.762  23.799 -0.0025  0.0651 -0.0135
 9692W        W52683   8.552   7.809  20.427 -0.0674  0.3399 -0.1553
 9693W        W52684  14.332   9.848   1.506 -0.1588  0.1014 -0.0063
 9694W        W52685   5.396   2.407  20.689  0.0178  0.0627  0.1570
 9695W        W52686   7.254  13.269  16.370 -0.1598  0.1800  0.3471
 9696W        W52687  31.258  10.815  15.668 -0.0937  0.0083  0.1941
 9697W        W52688   7.777  12.297  15.575 -0.0825 -0.0600 -0.1138
 9698W        W52689   5.700  22.967  15.112  0.1695 -0.1776 -0.0166
 9699W        W52690  17.096  33.823   2.113  0.1619 -0.0711 -0.2334
 9700W        W52691   1.702  19.714  17.487  0.2128  0.0912  0.0527
 9701W        W52692   4.467   9.815  20.675  0.1405 -0.0423 -0.0616
 9702W        W52693  10.158   6.769  26.495 -0.0333 -0.2658 -0.1284
 9703W        W52694   6.086  15.678   4.371 -0.1637 -0.3225  0.1371
 9704W        W52695  30.662   3.988   3.858  0.2156  0.0577  0.0518
 9705W        W52696   6.393  30.404  18.065  0.2155 -0.0179 -0.1769
 9706W        W52697  17.596  14.891  27.212  0.3582 -0.0052  0.0721
 9707W        W52698  32.770  11.225  21.292 -0.0078 -0.0447  0.2810
 9708W        W52699  32.748  16.150  20.107  0.1415  0.1857  0.2552
 9709W        W52700   7.061  18.292  10.367  0.1022 -0.0384  0.1566
 9710W        W52701  31.878   8.966  28.761 -0.0734 -0.0339 -0.2301
 9711W        W52702  30.154  22.339  26.047  0.1987 -0.0771  0.1910
 9712W        W52703   1.356   2.955  19.497  0.0457  0.1091  0.0381
 9713W        W52704  34.311  16.364  25.043 -0.1042 -0.1221  0.2538
 9714W        W52705  33.644  15.967   8.075 -0.2003  0.1016  0.1283
 9715W        W52706  32.325   6.734  16.336 -0.1565  0.0862  0.1948
 9716W        W52707   3.412  11.785  22.694 -0.4540  0.1623 -0.1293
 9717W        W52708  10.362   2.354  14.971 -0.1950 -0.1914  0.0074
 9718W        W52709  27.194  16.125  20.455  0.1882 -0.0510 -0.1233
 9719W        W52710   0.302  10.337   1.087  0.0620  0.0423  0.0806
 9720W        W52711   6.884  27.684  27.874 -0.0783  0.0146 -0.0825
 9721W        W52712   0.700   6.191  21.981  0.2707  0.0616  0.0073
 9722W        W52713  34.455  11.500   7.011  0.1455 -0.0046  0.1539
 9723W        W52714  32.560  31.845  16.502  0.2542  0.0369  0.2208
 9724W        W52715  24.498  11.963  22.297  0.1207 -0.2459  0.2939
 9725W        W52716   4.204  23.400  22.418 -0.2235  0.1201 -0.3164
 9726W        W52717  32.581  28.210  22.631  0.0832  0.0440  0.1271
 9727W        W52718  24.456  31.322  22.654 -0.0114 -0.1960 -0.1915
 9728W        W52719   1.928  20.150  22.096 -0.1036 -0.0823  0.0901
 9729W        W52720   4.722  14.746  10.536 -0.3377  0.1093  0.1218
 9730W        W52721  22.556  17.660  20.193  0.2236  0.0292  0.1856
 9731W        W52722  22.809  10.665   1.026 -0.0733 -0.1324  0.2432
 9732W        W52723  29.646  24.201   1.213 -0.1170 -0.2183  0.2526
 9733W        W52724  23.983  26.307  18.217  0.2135  0.0677 -0.2883
 9734W        W52725   6.160  17.958  20.034 -0.3150  0.1643 -0.1555
 9735W        W52726  24.245   8.804  18.908 -0.0002 -0.2662  0.1081
 9736W        W52727  11.877   5.324  18.025  0.4570  0.0223 -0.0080
 9737W        W52728  34.583   9.490   8.124 -0.1039 -0.1500 -0.1031
 9738W        W52729   0.819  29.170  26.504  0.2800 -0.0511 -0.1533
 9739W        W52730  27.001  19.836  28.380  0.0050  0.1170 -0.1528
 9740W        W52731  26.942  18.318  22.845  0.2727 -0.0230  0.0618
 9741W        W52732  30.521  18.886  20.416 -0.1380  0.2136 -0.4442
 9742W        W52733  16.178  13.626  22.474  0.1190  0.0164  0.1531
 9743W        W52734  31.299  12.485   0.561  0.1580  0.0686  0.1272
 9744W        W52735   0.658  27.658  23.903 -0.0654  0.0244 -0.1428
 9745W        W52736  27.814  14.882  28.571  0.1118  0.0127 -0.0238
 9746W        W52737  30.850  10.737  18.344 -0.0302 -0.2686  0.0344
 9747W        W52738  33.627  18.506  19.705  0.0290  0.2616  0.0758
 9748W        W52739  31.430  10.355  15.662  0.0507 -0.0030 -0.3450
 9749W        W52740  26.804  21.422   3.124 -0.1791 -0.0045 -0.1351
 9750W        W52741   0.989  12.103  21.324 -0.2535  0.1007 -0.1722
 9751W        W52742  10.437   8.473  14.554  0.1980 -0.0061  0.0839
 9752W        W52743   7.579  24.554  19.635 -0.2638  0.1250 -0.1437
 9753W        W52744   0.328  32.028  25.417 -0.0203  0.2533 -0.1643
 9754W        W52745  26.531  34.514   7.066 -0.0317 -0.2999 -0.0300
 9755W        W52746  12.424   4.916  17.241 -0.1164 -0.1158  0.1060
 9756W        W52747  27.496  15.001   2.450 -0.3113 -0.1174  0.1136
 9757W        W52748  29.686   1.769  14.343 -0.1636  0.1010  0.3970
 9758W        W52749  26.454  20.592   0.835 -0.0666  0.1609 -0.1075
 9759W        W52750  22.655  11.356  15.482  0.0714 -0.0030 -0.2230
 9760W        W52751  22.481  14.838  27.558  0.1143  0.1240  0.2987
 9761W        W52752  34.745  19.090  21.678 -0.0049  0.3314  0.0272
 9762W        W52753  25.355  19.220   0.401  0.1033  0.2885 -0.0370
 9763W        W52754  23.877   5.331  27.128 -0.1188 -0.0637  0.1175
 9764W        W52755   6.065  17.189  24.102  0.0541  0.2719 -0.2222
 9765W        W52756  20.816   4.689  27.616 -0.1398 -0.4606  0.0768
 9766W        W52757   1.371  19.845  14.262  0.2138 -0.2058 -0.0581
 9767W        W52758   4.400   7.074  26.838 -0.2392 -0.0596 -0.1598
 9768W        W52759  19.367  14.940  13.657  0.3706  0.1080 -0.0641
 9769W        W52760   0.222   3.650  14.727 -0.0230  0.0066 -0.0766
 9770W        W52761  27.238  32.666  25.981  0.1415 -0.1293 -0.5031
 9771W        W52762   3.670  28.216  22.356 -0.2752  0.1365  0.1564
 9772W        W52763  10.728  25.956  17.889  0.3822  0.0820  0.0481
 9773W        W52764  30.807  10.133  16.598  0.4809  0.0797 -0.1437
 9774W        W52765  30.838  18.278  18.867 -0.1229  0.1176 -0.1017
 9775W        W52766  14.579  10.800   2.809  0.1444  0.1024  0.0921
 9776W        W52767  10.459  11.264  10.002 -0.1085 -0.2477 -0.0689
 9777W        W52768  21.842  14.102  22.069 -0.1008 -0.4686  0.1731
 9778W        W52769  15.043  17.188  23.860 -0.1414 -0.0283 -0.3574
 9779W        W52770   3.170  12.730  21.803  0.2348  0.2141  0.2835
 9780W        W52771  13.625  24.237  17.711 -0.3931 -0.0010 -0.0235
 9781W        W52772  29.323  13.950   6.100 -0.0343 -0.0007  0.5604
 9782W        W52773   3.671  16.695  23.928  0.3669 -0.0190  0.1596
 9783W        W52774   1.672   7.597   6.541 -0.3384 -0.3664  0.3701
 9784W        W52775  28.505  18.874  14.925  0.2572 -0.2136  0.1106
 9785W        W52776  12.086  17.114  21.334  0.0252 -0.0581  0.1501
 9786W        W52777   6.414  13.841   7.860 -0.0820  0.1261  0.0073
 9787W        W52778   0.742   8.241   8.431 -0.0809 -0.0871 -0.0120
 9788W        W52779  24.918   3.526  20.850  0.1359 -0.0356 -0.0700
 9789W        W52780  25.713   9.527  24.010  0.2237  0.1204 -0.2788
 9790W        W52781   6.093  22.047   2.895  0.1106 -0.2064  0.0743
 9791W        W52782   3.751  21.231  15.322  0.2599  0.0829  0.1760
 9792W        W52783  25.049   2.989  18.953  0.2204 -0.1780  0.2669
 9793W        W52784   2.196  16.417  19.972  0.2415  0.1003 -0.0216
 9794W        W52785  27.270  13.527  27.496 -0.1301  0.1040 -0.0892
 9795W        W52786  28.568  30.431  20.923 -0.1205 -0.0227  0.1655
 9796W        W52787  30.160   1.100  19.780 -0.3177  0.4569 -0.2429
 9797W        W52788  12.925  13.486  18.967 -0.3302 -0.1432 -0.4466
 9798W        W52789  32.769  31.774   5.486  0.0875  0.0830  0.2870
 9799W        W52790  17.375  14.100   4.312  0.2511  0.4036 -0.1822
 9800W        W52791  33.416   3.158  18.355 -0.0619  0.2973 -0.0591
 9801W        W52792  29.225  17.628   7.221 -0.1944  0.2478 -0.0881
 9802W        W52793  27.735  23.673  16.089 -0.1250  0.0422  0.3287
 9803W        W52794  13.648  22.377  13.729 -0.0873 -0.3422  0.1133
 9804W        W52795  29.277  28.767  26.800  0.2807  0.2191  0.3683
 9805W        W52796  25.790  15.339  15.474  0.0691  0.0925 -0.3845
 9806W        W52797   4.052   7.490  18.332 -0.0734 -0.0800  0.1274
 9807W        W52798   0.609   8.371  19.089  0.0031  0.3443  0.2334
 9808W        W52799  13.982  12.564  18.279 -0.4754  0.1358 -0.1182
 9809W        W52800  29.625  16.784  18.375 -0.0846  0.3312  0.2544
 9810W        W52801  30.380  25.646  25.901  0.1297 -0.1079 -0.0633
 9811W        W52802   9.170   8.132  28.274  0.0309  0.1445  0.0194
 9812W        W52803   6.556  18.947   7.611  0.1049 -0.1799  0.1353
 9813W        W52804  11.640  11.436  16.399 -0.2887 -0.2504  0.1727
 9814W        W52805  32.292  32.724  14.703 -0.1873 -0.2116 -0.1769
 9815W        W52806   6.386  10.197  16.122 -0.1208 -0.0803 -0.2966
 9816W        W52807  32.332  19.751  27.099 -0.1424  0.0106  0.0496
 9817W        W52808   6.483  10.670   1.876 -0.1912 -0.2717  0.0809
 9818W        W52809  13.057  18.734  12.626  0.0582 -0.1238  0.0689
 9819W        W52810   5.113  29.569   1.744  0.0494 -0.0758 -0.1808
 9820W        W52811  18.283   7.427  16.166  0.0011  0.3406  0.0851
 9821W        W52812  32.182   5.896  25.890 -0.1009  0.0708  0.2559
 9822W        W52813  29.623  31.809  17.546 -0.0019 -0.0407 -0.0948
 9823W        W52814  33.012  33.676  22.655  0.2071  0.1773 -0.0542
 9824W        W52815  22.760  15.182  23.667  0.3675 -0.0709 -0.2547
 9825W        W52816  31.263  10.661  25.524 -0.1502  0.2152 -0.2038
 9826W        W52817   5.561  13.682  20.097 -0.0240  0.0643 -0.0904
 9827W        W52818   8.504  26.179  21.377 -0.1420 -0.1750  0.0341
 9828W        W52819  13.403   2.490   9.436  0.3915  0.0210  0.0838
 9829W        W52820  20.861  23.109  20.438  0.1093 -0.0877 -0.4390
 9830W        W52821   4.582  12.573  11.034  0.1332 -0.0617  0.2196
 9831W        W52822   3.632   3.942  16.988 -0.1562 -0.0273  0.2964
 9832W        W52823  11.515   1.451  26.845 -0.1355  0.1238 -0.2536
 9833W        W52824  10.920  34.726  28.997  0.0206  0.0512  0.1751
 9834W        W52825  10.719   5.550  19.027  0.2092  0.2666 -0.2387
 9835W        W52826   3.281   9.447  25.411 -0.2504  0.0765  0.1049
 9836W        W52827  25.941   2.806   6.337 -0.1305  0.1570 -0.0584
 9837W        W52828   2.235   9.503  25.527  0.0758 -0.1781  0.3411
 9838W        W52829   1.493  14.955  27.505  0.3548  0.1989  0.0716
 9839W        W52830  15.959  18.437   5.368 -0.2279 -0.0335 -0.0472
 9840W        W52831  27.676  27.428   8.229 -0.0456 -0.0171  0.1217
 9841W        W52832  29.241  31.745  26.667 -0.0129 -0.4183  0.1091
 9842W        W52833  29.689  33.364  27.922  0.0628  0.0690  0.3439
 9843W        W52834  15.738   2.207  16.506 -0.0984  0.1399  0.2287
 9844W        W52835  27.738  13.174  19.741 -0.2052  0.0223 -0.1335
 9845W        W52836   8.400  16.790   0.156  0.2655  0.3503 -0.0216
 9846W        W52837   2.283  31.812  26.976 -0.0980  0.1762  0.2707
 9847W        W52838  12.558   3.641  27.512  0.1553  0.0629  0.3348
 9848W        W52839   5.826   2.171  19.555  0.1268 -0.1851 -0.1358
 9849W        W52840  10.510  18.114  19.326  0.1654  0.0808 -0.1078
 9850W        W52841  22.456  30.162   1.432  0.1306  0.3622 -0.2796
 9851W        W52842  11.150  33.488  19.567 -0.2204  0.2419 -0.0491
 9852W        W52843  11.377  19.674  16.561  0.0655 -0.0466  0.3125
 9853W        W52844  30.408   9.196  26.621 -0.0818 -0.0315 -0.1283
 9854W        W52845  22.202  27.550  18.596 -0.2299 -0.0615  0.0350
 9855W        W52846   8.161  34.080  28.631 -0.0863  0.4448  0.0945
 9856W        W52847   0.918  15.125  24.570 -0.3290 -0.3233  0.3092
 9857W        W52848   3.066  11.937  25.346 -0.0858  0.1420 -0.1440
 9858W        W52849  24.690  21.570  20.745 -0.1294 -0.0374  0.4583
 9859W        W52850  29.602  21.546  14.286  0.3236  0.0253 -0.1876
 9860W        W52851  25.992  23.485  15.836 -0.2482  0.0444  0.2271
 9861W        W52852  14.255  19.016  28.235 -0.0375  0.0443  0.2516
 9862W        W52853   8.000  10.483  25.394 -0.3600 -0.0537 -0.1128
 9863W        W52854  24.862  25.835   6.900 -0.2241  0.0545  0.0099
 9864W        W52855  28.980  23.219   0.711  0.2146 -0.1858 -0.1576
 9865W        W52856  30.710  24.330  20.413 -0.0624  0.1469  0.0152
 9866W        W52857  21.580  31.074  16.884 -0.1903 -0.1727 -0.1428
 9867W        W52858  25.850  14.493  28.720  0.1843 -0.1293  0.1609
 9868W        W52859  15.606  24.320  14.305 -0.0123 -0.0360 -0.0066
 9869W        W52860   9.183  34.554  19.365 -0.0283 -0.1158 -0.0639
 9870W        W52861  28.628   8.543  19.213 -0.2069  0.2888  0.0158
 9871W        W52862  10.024  14.596   3.395 -0.1373  0.2421 -0.0066
 9872W        W52863  20.668   4.640  13.340  0.2328  0.0875  0.2305
 9873W        W52864  18.847  28.817  20.612  0.1497  0.2753  0.1881
 9874W        W52865   8.199  13.480  26.175 -0.0388  0.2896 -0.1952
 9875W        W52866  28.106   5.512   5.872 -0.1896 -0.2926 -0.0043
 9876W        W52867   3.205  25.346   8.289  0.4279  0.1638  0.0864
 9877W        W52868   1.519  11.060   7.993 -0.0685  0.2156  0.2632
 9878W        W52869  11.347  21.510  15.499  0.0567 -0.1714 -0.1658
 9879W        W52870  20.709   3.263  24.468 -0.0783  0.1181 -0.1058
 9880W        W52871  32.322  17.249  23.451  0.2648 -0.0351 -0.1654
 9881W        W52872  25.982  24.008   6.133  0.3155  0.0154 -0.3230
 9882W        W52873   6.694  20.351   2.230 -0.0372  0.3034  0.0060
 9883W        W52874  14.560   9.531  10.229 -0.0852  0.1638  0.3464
 9884W        W52875  19.667  14.836   4.833  0.0743 -0.3876  0.3176
 9885W        W52876   1.082  12.873  26.928 -0.0082 -0.0941  0.1221
 9886W        W52877  30.501  24.842  15.233 -0.2343 -0.1305  0.0358
 9887W        W52878  13.203  18.962  19.285  0.2690 -0.1260  0.1092
 9888W        W52879  12.851   8.080  24.974  0.1074 -0.1631  0.1492
 9889W        W52880  24.251   8.546   2.758 -0.0684 -0.0479 -0.0789
 9890W        W52881  20.477  11.864  27.381  0.1617  0.2333 -0.1596
 9891W        W52882   3.788  30.052  24.620  0.3230  0.2324 -0.1034
 9892W        W52883   3.669  33.745  21.910  0.1240  0.0459  0.2022
 9893W        W52884  33.642  31.048   2.188  0.1211 -0.2266  0.1787
 9894W        W52885  31.775  26.460  22.654  0.0192 -0.0315  0.0151
 9895W        W52886  21.258  13.144  17.681 -0.2453 -0.1080 -0.0534
 9896W        W52887   2.213   5.037   0.607  0.0199  0.0329 -0.1034
 9897W        W52888   1.508   9.787   4.580 -0.3606 -0.4151  0.2711
 9898W        W52889   4.972  16.073  22.533 -0.0974  0.1185 -0.1357
 9899W        W52890  30.999  31.493  11.620 -0.1358 -0.2082 -0.1041
 9900W        W52891  31.252   1.725   6.295  0.1862  0.0641 -0.0271
 9901W        W52892   5.354  10.539  17.209  0.1726  0.0501 -0.0616
 9902W        W52893  34.436  27.787   4.571  0.2894  0.2554 -0.2405
 9903W        W52894   2.676   1.117  18.324  0.0016 -0.2819 -0.0237
 9904W        W52895  20.452  29.121  16.128 -0.0716  0.2626 -0.1515
 9905W        W52896   0.974   5.915  17.346 -0.0907 -0.1367 -0.2642
 9906W        W52897  18.520   9.382  27.414  0.1118  0.0692  0.0719
 9907W        W52898   0.365  12.970  27.371  0.0761 -0.2531  0.2492
 9908W        W52899   6.117  17.766   7.612  0.0224  0.1792 -0.0905
 9909W        W52900  29.278   7.494   9.217  0.3699  0.1027  0.0456
 9910W        W52901  16.530  13.878  23.580 -0.1513 -0.0325  0.0141
 9911W        W52902   1.589   5.874   5.629  0.0482 -0.2402  0.1419
 9912W        W52903   2.906  23.341  28.290  0.0756  0.4584  0.0807
 9913W        W52904   2.553   1.510   7.919 -0.0509  0.1431  0.1217
 9914W        W52905  24.049   8.207  19.860  0.0070  0.1060 -0.0971
 9915W        W52906  23.479  12.106   1.685 -0.2126 -0.1694  0.2003
 9916W        W52907  24.093  17.575  22.681 -0.1882  0.1573  0.1069
 9917W        W52908  32.248  11.429  19.093 -0.0016 -0.1316  0.5389
 9918W        W52909   9.480  16.204  25.273  0.1379  0.1984  0.0394
 9919W        W52910   4.113   2.033  27.391  0.2438  0.0488  0.0741
 9920W        W52911  30.819  16.910  10.862 -0.0384 -0.0189 -0.0854
 9921W        W52912   2.958   7.080  24.642 -0.2646 -0.2176  0.3486
 9922W        W52913  13.617   1.078  25.941  0.3205  0.1173  0.1862
 9923W        W52914   2.504  33.217   6.721  0.2538 -0.0012 -0.0159
 9924W        W52915   4.568  17.679  20.313  0.3150 -0.1640  0.1494
 9925W        W52916  24.022  17.189  23.955  0.2609 -0.0185 -0.1440
 9926W        W52917  10.752  19.792  19.945 -0.0342 -0.0748  0.0138
 9927W        W52918  32.474  25.565  21.361 -0.0345  0.0211 -0.2915
 9928W        W52919   4.006  34.227  15.559 -0.2863 -0.0591 -0.0472
 9929W        W52920  31.044  27.720   1.864 -0.3239  0.1345  0.2019
 9930W        W52921   2.597  34.135  17.488  0.2194  0.1896 -0.5270
 9931W        W52922  27.201  31.266   1.099  0.0428 -0.3734 -0.1819
 9932W        W52923   0.891  26.793  19.139 -0.2322 -0.0814  0.1480
 9933W        W52924   2.980  18.468  26.455 -0.2404  0.0432  0.0049
 9934W        W52925  11.977   6.576   2.256 -0.1963  0.1942 -0.0444
 9935W        W52926   9.033  18.536   0.062  0.1037  0.0869 -0.0202
 9936W        W52927  11.407  31.646  23.127 -0.1699  0.1255  0.0697
 9937W        W52928  12.083  20.022  16.978 -0.2407  0.0327  0.1559
 9938W        W52929   9.312  12.066   1.428 -0.1729 -0.1758 -0.1801
 9939W        W52930  34.032  30.466  24.456 -0.2296 -0.4078 -0.1379
 9940W        W52931   9.580  13.363  17.388  0.1175 -0.0142  0.0151
 9941W        W52932  15.241   4.945  25.370  0.2522  0.0516 -0.1022
 9942W        W52933  32.912  18.266   1.518  0.1385  0.0910  0.0032
 9943W        W52934  29.360  34.742  26.679 -0.1223  0.2301 -0.1799
 9944W        W52935  25.562  11.893  17.330  0.0817 -0.4092 -0.1168
 9945W        W52936  15.893  13.938  19.006  0.0862 -0.0648 -0.3834
 9946W        W52937  32.169  26.812  19.670  0.0310  0.0771  0.0381
 9947W        W52938   5.454  17.750  29.041  0.0808  0.0161 -0.1326
 9948W        W52939  31.045  29.531  15.912  0.1112  0.0051  0.1188
 9949W        W52940   5.526  26.506  17.935  0.1074 -0.1495  0.1838
 9950W        W52941   9.705   3.826  18.963 -0.1826  0.0159  0.4377
 9951W        W52942  30.794   3.054  21.440  0.1306 -0.4449 -0.3009
 9952W        W52943  10.479  27.787  28.357 -0.1952  0.0102  0.1613
 9953W        W52944  11.774   2.405  27.127  0.4050  0.0306 -0.0180
 9954W        W52945  28.328  19.470  19.812 -0.0241 -0.0208  0.2179
 9955W        W52946  25.330  24.526   9.403 -0.1022 -0.0085 -0.0349
 9956W        W52947   1.158  23.363  22.783  0.0630 -0.3268  0.0720
 9957W        W52948  15.713  27.355   1.382 -0.2244  0.1137  0.0955
 9958W        W52949  33.911   4.206  19.534 -0.3586  0.0002 -0.0777
 9959W        W52950   0.657  17.729  19.183 -0.3209 -0.1482 -0.2002
 9960W        W52951  19.601  14.380   7.463  0.1673 -0.2132  0.2083
 9961W        W52952  30.139  31.651  17.844 -0.4467  0.4614  0.1783
 9962W        W52953  10.622  12.400  28.768  0.4373 -0.4717  0.0425
 9963W        W52954   5.228  20.102  19.647 -0.3855  0.0308 -0.1337
 9964W        W52955  30.697  18.750  16.253  0.0633 -0.1396 -0.1867
 9965W        W52956   5.669   3.284   0.957  0.1297 -0.1654 -0.1479
 9966W        W52957  32.142  15.794   3.085  0.0937 -0.0823 -0.4415
 9967W        W52958  12.145  17.121  17.004 -0.0022 -0.0975 -0.1130
 9968W        W52959  10.538   4.903   4.081 -0.1941  0.2213  0.2250
 9969W        W52960  24.480  28.076  25.855 -0.0523 -0.2588 -0.2529
 9970W        W52961  25.479  22.112  16.990  0.0067 -0.1511  0.3012
 9971W        W52962  34.131  29.252  27.857 -0.0530  0.3934 -0.2051
 9972W        W52963   8.656  24.675   1.569 -0.1586  0.1031 -0.4207
 9973W        W52964  10.633  17.359  17.263 -0.0293 -0.2360  0.0688
 9974W        W52965   8.169   1.734  14.302 -0.2590 -0.1867  0.1434
 9975W        W52966   2.434  13.576   0.434  0.1683  0.2395  0.0016
 9976W        W52967  10.416   3.659  27.141  0.1439 -0.0504  0.0824
 9977W        W52968  11.252  16.471   1.502  0.2240 -0.1240  0.0328
 9978W        W52969  18.943  11.481  26.089 -0.0929 -0.0476 -0.1284
 9979W        W52970  33.199  22.377  18.163 -0.0519 -0.0285 -0.0041
 9980W        W52971   1.018  22.876  16.991 -0.0643 -0.2013  0.3177
 9981W        W52972  17.478  12.822  16.897 -0.0497  0.3222  0.1360
 9982W        W52973  22.357  27.802  19.048  0.0192  0.1647  0.1710
 9983W        W52974   3.468   3.490  22.058  0.0445  0.1158  0.0394
 9984W        W52975   5.893  31.169   0.090 -0.3214  0.1065 -0.0977
 9985W        W52976  16.929  12.292  26.599 -0.4076  0.0695 -0.2229
 9986W        W52977  31.297   9.867  25.193  0.0520 -0.0080  0.1764
 9987W        W52978   9.492   8.970  24.128 -0.3130  0.0534 -0.2399
 9988W        W52979   4.564  23.516   3.809 -0.1043  0.1887 -0.1913
 9989W        W52980  29.342   6.708  18.438  0.5985 -0.1369  0.1022
 9990W        W52981  19.637  11.919  15.579  0.1310  0.2573  0.0545
 9991W        W52982  19.594   4.396   7.496  0.0883  0.1601 -0.2208
 9992W        W52983   5.366  16.763  20.179 -0.3305 -0.0849  0.0028
 9993W        W52984   6.974   3.558   7.472  0.1730  0.0423  0.0037
 9994W        W52985  33.102  33.139  24.076 -0.0305  0.1469  0.2492
 9995W        W52986  26.573   2.509  22.858  0.2428 -0.1136 -0.1144
 9996W        W52987  28.781  10.990  26.980  0.3357 -0.0671  0.1394
 9997W        W52988  30.279   4.187   1.992  0.1056  0.0170 -0.2302
 9998W        W52989  32.690   3.469  24.964  0.3061  0.0813 -0.0574
 9999W        W52990   8.133   4.237   1.293 -0.3956  0.1632 -0.2658
10000W        W52991  31.620  11.690  26.695  0.1626 -0.1092  0.0304
10001W        W52992  12.839   5.591   9.328 -0.2931  0.1623  0.1734
10002W        W52993  22.982  10.372  18.930  0.1463  0.0095  0.3008
10003W        W52994   2.126  27.146  15.458  0.1441  0.1828  0.0786
10004W        W52995  25.837  14.299  21.429 -0.3436 -0.1602 -0.3406
10005W        W52996   4.355  18.523  17.792 -0.0495 -0.0602  0.1365
10006W        W52997  29.488  13.067  27.994  0.2307  0.0840  0.2147
10007W        W52998  30.670  22.567  14.037  0.1633 -0.1014 -0.0495
10008W        W52999   1.445  32.884  19.190 -0.1394 -0.0791 -0.1310
10009W        W53000   6.358   9.807  25.060 -0.3185  0.1906 -0.2830
10010W        W53001   6.122   4.883  19.060 -0.0160 -0.0964 -0.3969
10011W        W53002   0.760  21.630   5.162  0.0769 -0.1030 -0.0793
10012W        W53003   7.733  28.020  23.555 -0.3220 -0.2010  0.0320
10013W        W53004   4.759  20.647  21.319  0.1974  0.0597 -0.3475
10014W        W53005   4.272   2.907   6.966 -0.1531 -0.2800 -0.1278
10015W        W53006   6.118  14.758  26.353 -0.1532 -0.0603 -0.2715
10016W        W53007  20.485  15.711  16.438  0.2274 -0.0286 -0.1917
10017W        W53008  18.431  25.545  18.250  0.0529 -0.0852 -0.1283
10018W        W53009  19.746  15.214   7.469  0.2618  0.1101 -0.0985
10019W        W53010  14.271   6.041  25.546  0.1481 -0.2456  0.3531
10020W        W53011   5.106  13.449  20.184  0.1627  0.2498 -0.0648
10021W        W53012  32.745  10.291  28.667 -0.2394  0.3246 -0.0490
10022W        W53013  11.931   6.081  18.652 -0.0223  0.3365  0.3937
10023W        W53014  18.007  12.465  22.633  0.1494  0.2322 -0.4275
10024W        W53015   7.437   7.961  24.895 -0.0888 -0.0839  0.1046
10025W        W53016  25.622  14.092  13.985  0.2443 -0.0181  0.1375
10026W        W53017  27.373   0.898  26.370  0.3653  0.1399  0.1368
10027W        W53018   5.605  12.021  22.590  0.2589 -0.1165  0.2604
10028W        W53019   1.427  29.259  20.066  0.0992 -0.0357  0.0218
10029W        W53020  30.870  16.046  25.647  0.1293 -0.0550  0.0410
10030W        W53021  32.389  18.254   6.704  0.2225 -0.0965  0.1692
10031W        W53022   8.002   9.870   2.211 -0.3616 -0.0538  0.1918
10032W        W53023   8.262  16.879   2.310  0.3874 -0.0940 -0.0699
10033W        W53024  27.442  14.804  18.729  0.0181  0.0653 -0.1920
10034W        W53025   7.124   7.226  23.528 -0.1443  0.0605  0.2512
10035W        W53026   2.633  15.258  17.312 -0.0187 -0.1902 -0.0947
10036W        W53027   3.669  19.230  24.259  0.0883 -0.0899 -0.0077
10037W        W53028  30.097   9.800  25.983  0.0944  0.3818  0.0244
10038W        W53029   6.243  25.266   1.520 -0.0854 -0.0533  0.0536
10039W        W53030   4.775  25.082  29.176 -0.2663 -0.1500  0.3685
10040W        W53031  32.798  33.043  25.341  0.3272 -0.0472 -0.1378
10041W        W53032  14.951   4.699  24.320 -0.1371  0.2316  0.0994
10042W        W53033  12.270   8.932  23.856  0.0133 -0.0679  0.0226
10043W        W53034   9.634   3.181  19.779 -0.2165  0.0219 -0.1046
10044W        W53035  33.918  11.831  18.455 -0.0705 -0.3628  0.2172
10045W        W53036  25.857  18.534  16.139 -0.1622  0.0017 -0.1557
10046W        W53037  33.009   1.528   1.669  0.3183 -0.3448  0.2259
10047W        W53038  32.093  21.057  20.261 -0.0015 -0.3589 -0.0333
10048W        W53039   8.257  12.967   5.464  0.0854  0.0690 -0.0956
10049W        W53040   1.177  19.827  17.297  0.0981  0.1669  0.2418
10050W        W53041  17.049   9.713  23.344 -0.0332 -0.0673  0.1891
10051W        W53042   6.537   9.080  29.145  0.1679 -0.0555  0.1574
10052W        W53043  10.929  13.116   9.092  0.0233  0.0506 -0.1855
10053W        W53044  11.441  13.752  25.692  0.1172 -0.0525  0.2369
10054W        W53045  12.763  26.469  17.077  0.0039 -0.1980  0.2029
10055W        W53046   5.926   6.636  16.791  0.0263  0.1129 -0.0255
10056W        W53047  24.896   0.806  25.421  0.3750  0.0397 -0.0637
10057W        W53048  14.013  10.029  14.983  0.0836 -0.0392  0.1524
10058W        W53049   0.726  16.032  18.881  0.1881  0.2562  0.0392
10059W        W53050  21.596   2.657  25.579  0.0049  0.2911  0.3231
10060W        W53051   2.829  14.050  17.900 -0.2447  0.0525  0.1616
10061W        W53052   3.566   5.279  15.976 -0.2241 -0.0759 -0.3103
10062W        W53053  26.310  15.238   2.236 -0.2251 -0.0653 -0.0437
10063W        W53054  15.792   4.173  28.637  0.2425 -0.0224 -0.2646
10064W        W53055   3.063  13.069  20.210  0.1399 -0.0150  0.1250
10065W        W53056   9.983   8.170  22.003 -0.1381 -0.2284  0.0254
10066W        W53057  13.931  16.386  24.481 -0.1125  0.1485 -0.0943
10067W        W53058  33.900  16.754  17.499  0.0244  0.1327 -0.0396
10068W        W53059  32.710   8.056  23.676  0.0464 -0.0009 -0.3129
10069W        W53060  28.663  33.153  18.195 -0.2225 -0.4814  0.1276
10070W        W53061  19.547  26.638  24.344  0.2618  0.2683  0.0056
10071W        W53062   4.658   7.190   8.840 -0.1682 -0.2895 -0.0056
10072W        W53063   9.036  32.182  16.534 -0.3153  0.1685  0.2151
10073W        W53064  30.767  11.152  17.122 -0.1526 -0.1126 -0.1326
10074W        W53065  32.837  15.381  24.466  0.1294 -0.2084  0.0704
10075W        W53066  22.823  24.813   1.537 -0.1272 -0.0642 -0.0412
10076W        W53067  27.034  14.252  24.509  0.4025  0.0240 -0.3219
10077W        W53068  29.449  10.053   3.935 -0.0014  0.0190 -0.0077
10078W        W53069  20.580  10.512  28.872 -0.0261  0.0955  0.0800
10079W        W53070   5.450   8.839   4.237 -0.2829 -0.3098 -0.1097
10080W        W53071  31.669  12.992  20.210 -0.2909  0.2449  0.0338
10081W        W53072  32.821  13.406   1.021  0.1169 -0.3376  0.1925
10082W        W53073   6.090  20.738  29.140  0.0105  0.1565  0.0438
10083W        W53074  28.972   6.835   2.308 -0.2084 -0.2039  0.2320
10084W        W53075   1.595   9.631   5.056  0.1426  0.3008 -0.0250
10085W        W53076  25.485  14.807  25.240  0.0136 -0.3793  0.1800
10086W        W53077   2.415   1.177  14.185 -0.2500  0.0300 -0.0473
10087W        W53078  19.783   9.191  24.683 -0.1479 -0.1480  0.1306
10088W        W53079  33.731  16.138  24.988 -0.0085  0.1717 -0.2653
10089W        W53080  34.544   7.838   6.965 -0.0168  0.0318 -0.2249
10090W        W53081   8.070  11.523  26.816 -0.2604 -0.0122  0.0136
10091W        W53082   6.615  15.359  23.248 -0.0981  0.1151 -0.2730
10092W        W53083  28.495  17.568   1.453  0.1026 -0.3413 -0.0798
10093W        W53084  27.533  22.188   5.267 -0.1091  0.2833  0.0585
10094W        W53085  34.701  17.812  16.926 -0.0057  0.1133 -0.1450
10095W        W53086  32.941   5.231   6.059 -0.2686  0.2665 -0.1956
10096W        W53087  34.485  17.663  16.478  0.2053  0.0911  0.1026
10097W        W53088  31.480  21.752  27.935  0.0567  0.1234  0.1464
10098W        W53089  31.615  14.472  29.078  0.0518  0.2820  0.1051
10099W        W53090   2.579  11.702   4.233  0.2053  0.0380 -0.0444
10100W        W53091  10.270   6.252   9.909  0.0658 -0.0931 -0.0109
10101W        W53092  13.382  32.771  17.458  0.0383 -0.0608 -0.1648
10102W        W53093  23.829   7.966  28.765 -0.0377 -0.2535 -0.1895
10103W        W53094  13.715  34.225  25.262 -0.2967 -0.1778  0.1504
10104W        W53095   5.415  19.499  16.364 -0.1612  0.0968 -0.0377
10105W        W53096   4.316  14.359  21.560 -0.0154 -0.0172  0.1095
10106W        W53097   9.104   9.670  27.197  0.1000  0.1678  0.3373
10107W        W53098  22.848  22.044  17.013  0.1853  0.1927  0.1006
10108W        W53099   4.978  20.640  17.701 -0.0652 -0.3118 -0.0584
10109W        W53100   7.021  11.403   6.819 -0.0597 -0.1456  0.1864
10110W        W53101   6.760  21.340   1.146 -0.0216 -0.0840  0.2430
10111W        W53102   0.181  19.506  20.349  0.1758 -0.1082 -0.2673
10112W        W53103   3.416  33.498  28.909 -0.0653  0.1035 -0.2010
10113W        W53104   4.214  17.720  20.760  0.3192  0.0331 -0.0556
10114W        W53105  25.799  10.778  10.108 -0.1276  0.0635  0.0228
10115W        W53106  29.759  10.636  24.326  0.0387 -0.3223  0.1553
10116W        W53107   3.421   8.264   9.268  0.1352  0.0224  0.2239
10117W        W53108  31.811  27.043   3.004  0.1052 -0.0889  0.1892
10118W        W53109   9.141  18.556  14.654  0.0595 -0.1728 -0.2266
10119W        W53110  27.615  31.842  24.538  0.0423  0.0025  0.0924
10120W        W53111   6.390  15.816  15.537  0.1155  0.3328  0.0633
10121W        W53112  22.415  33.727  28.511 -0.1744  0.1713  0.1346
10122W        W53113   1.985   8.665   9.040  0.0339 -0.1349 -0.0959
10123W        W53114  25.639   0.091   1.117  0.3247 -0.3175 -0.1918
10124W        W53115   8.841  14.920  25.271 -0.0114  0.1545 -0.1474
10125W        W53116   0.498  17.559  22.544 -0.1683  0.0496  0.1332
10126W        W53117  34.285  16.799  21.477  0.0411 -0.0079  0.3480
10127W        W53118   9.464  31.986   0.839  0.0447  0.1519  0.4311
10128W        W53119  28.550  22.518  18.611 -0.0795 -0.1341  0.1112
10129W        W53120  22.041  26.525  20.564  0.0423 -0.1587  0.0963
10130W        W53121  23.525  27.448  28.461  0.1115  0.2623  0.2497
10131W        W53122  34.270  34.727  18.156  0.0294  0.0260  0.1837
10132W        W53123  28.417  13.774  28.405  0.2444 -0.1106  0.0836
10133W        W53124  29.126  16.921  25.005 -0.2217 -0.2058  0.0245
10134W        W53125   0.533   8.194  20.495  0.2394  0.1776  0.0411
10135W        W53126  34.062  22.717  25.737 -0.5910 -0.2543 -0.3681
10136W        W53127   3.318   2.481  26.131 -0.0796 -0.3091  0.0494
10137W        W53128  15.063   6.555   2.647  0.0472 -0.0840  0.1424
10138W        W53129   7.199  12.990   4.288  0.0571 -0.1811 -0.1973
10139W        W53130  30.001   0.707  21.042  0.1624  0.2931 -0.1782
10140W        W53131   1.479  16.006  17.747  0.0511  0.2169 -0.0542
10141W        W53132  11.043   0.028  26.264  0.0413 -0.1958  0.0036
10142W        W53133  29.917   7.786  22.734 -0.1576 -0.1444  0.0084
10143W        W53134   5.301   1.693  14.871  0.0493  0.0811  0.1743
10144W        W53135   7.573  17.426  16.343  0.1804  0.0752 -0.3857
10145W        W53136  31.535   7.318   3.314 -0.0222 -0.1998  0.0782
10146W        W53137  25.101   9.780  14.528  0.0733  0.0673  0.0338
10147W        W53138  21.302   5.762  26.154  0.3586 -0.1564  0.0808
10148W        W53139   7.527   4.076  16.998 -0.0899 -0.2557 -0.1880
10149W        W53140  34.705  31.863  15.014 -0.3549  0.3763 -0.1825
10150W        W53141  32.311   8.987   3.289 -0.0873  0.0657  0.1373
10151W        W53142  34.615  13.262  26.587 -0.0332  0.0989  0.1128
10152W        W53143  11.136  22.036   1.110 -0.2582 -0.2066  0.1263
10153W        W53144  13.624  33.318  21.870 -0.2346 -0.0480 -0.2355
10154W        W53145   4.464  16.281  24.846  0.0054  0.1752  0.3888
10155W        W53146  34.427  19.497  22.342  0.0524  0.4151 -0.5542
10156W        W53147   3.504  15.410  24.159 -0.5211 -0.4447  0.0620
10157W        W53148  32.631  29.817  17.335  0.3176 -0.2268 -0.5309
10158W        W53149  33.182  23.293   0.921  0.2929  0.0098 -0.1939
10159W        W53150  27.224   3.503   1.357  0.2364 -0.2551 -0.0513
10160W        W53151  33.523  16.031  25.954 -0.3212 -0.0551  0.0001
10161W        W53152  22.173   5.145  19.100 -0.0783  0.2729 -0.1044
10162W        W53153  30.031  15.315   2.114 -0.0579  0.3478  0.1748
10163W        W53154  23.729  29.799  13.336 -0.2671 -0.0913 -0.2610
10164W        W53155  15.448  31.331  23.258 -0.0926 -0.1921  0.2627
10165W        W53156   8.774  21.004   8.106  0.1734  0.1006 -0.1705
10166W        W53157  29.038   4.112  25.482 -0.2654  0.0684 -0.1770
10167W        W53158   1.891  11.891  26.965  0.0706 -0.1447  0.3055
10168W        W53159   7.156  15.320  22.121  0.3240  0.0087 -0.0198
10169W        W53160  14.065  11.448  19.972 -0.0780 -0.1835 -0.1235
10170W        W53161  13.748   4.106   2.553  0.0893 -0.0632 -0.1699
10171W        W53162   6.224   8.338  29.038 -0.2160 -0.0753  0.1199
10172W        W53163   0.260   1.901  13.785 -0.0192 -0.1111 -0.0450
10173W        W53164  33.034   2.900  19.360  0.1177 -0.3794  0.1080
10174W        W53165   0.835  11.986  23.086 -0.4549 -0.1486  0.1174
10175W        W53166   3.190   4.277  21.519 -0.2472  0.1249 -0.2289
10176W        W53167   5.303   9.655   1.202 -0.0752  0.1037  0.1680
10177W        W53168   7.109  26.197   3.292  0.2442  0.0006  0.0728
10178W        W53169  28.793  32.088  27.105 -0.2503 -0.0076  0.2925
10179W        W53170  16.353  17.646  29.164 -0.2352 -0.0416 -0.3135
10180W        W53171   9.345   8.823  18.116 -0.1513 -0.1375  0.1012
10181W        W53172  32.608  14.410  10.556 -0.0278  0.0785  0.0884
10182W        W53173   8.042  32.770   8.364 -0.5050 -0.0399  0.2834
10183W        W53174  33.754   7.570   4.920 -0.1286  0.2435 -0.0348
10184W        W53175   2.938  20.926   2.298  0.0001 -0.2649 -0.0028
10185W        W53176  16.178  16.112  12.722 -0.1964 -0.0580 -0.3218
10186W        W53177   5.596  16.680   0.270  0.2185 -0.1084 -0.0146
10187W        W53178   9.681   4.477  27.979  0.1625  0.0761  0.0554
10188W        W53179   3.108  14.685  22.825 -0.6175 -0.0272 -0.1733
10189W        W53180  24.957  18.980   2.599 -0.3170 -0.0712  0.4524
10190W        W53181   2.397  20.889  15.339  0.0564 -0.3599  0.1773
10191W        W53182   9.786  26.766  19.930  0.0271  0.3692 -0.1328
10192W        W53183  31.886  33.100  23.539  0.1520  0.0841 -0.2328
10193W        W53184  15.028  14.861  13.859 -0.1701  0.0671  0.2029
10194W        W53185  18.061   9.957  22.828  0.0911  0.3100 -0.0680
10195W        W53186  13.090  34.033  16.903 -0.0609  0.1536 -0.0264
10196W        W53187   8.657  11.075  16.604 -0.1880 -0.0141 -0.0784
10197W        W53188  32.965  14.215  27.129 -0.0366  0.2214 -0.0380
10198W        W53189  13.660  23.192   3.528  0.2843 -0.2318  0.0893
10199W        W53190  15.221  20.649  25.711  0.0089 -0.1104  0.2231
10200W        W53191   5.871  33.313   0.229  0.0053  0.1988 -0.0488
10201W        W53192  33.967  11.796   1.681 -0.0666 -0.0348 -0.0028
10202W        W53193   7.877  18.654   3.180 -0.0715  0.1190  0.1774
10203W        W53194   0.074   5.599  16.085  0.1481 -0.2948  0.0050
10204W        W53195  11.565  28.088  17.833  0.2449  0.0486 -0.4300
10205W        W53196   0.923  12.476   5.737 -0.0529 -0.1272 -0.0120
10206W        W53197  29.162  15.024  24.734  0.1678 -0.2632 -0.1105
10207W        W53198   8.050  11.369   5.244  0.0783  0.0677  0.3495
10208W        W53199  33.382  13.303  20.221  0.0808 -0.2472  0.2528
10209W        W53200   4.923  29.079   1.071 -0.3696  0.2973  0.1919
10210W        W53201  14.533   0.232   3.763  0.1652  0.0916 -0.0145
10211W        W53202   2.624  20.010  11.366  0.0149  0.1910  0.1074
10212W        W53203  32.626  12.686  11.904 -0.1406 -0.0821  0.2827
10213W        W53204   6.965   8.378  20.394  0.1194  0.0121  0.0549
10214W        W53205  23.108  34.301  21.699 -0.2052  0.2787  0.0302
10215W        W53206   6.086  18.821   1.169  0.2163 -0.0446 -0.0588
10216W        W53207   6.618  16.433  23.557  0.1263  0.2077  0.0303
10217W        W53208  29.111   8.009  19.694 -0.0078  0.4243  0.0450
10218W        W53209   4.525  10.028   4.183 -0.3596 -0.0550  0.0515
10219W        W53210   1.437   0.873  28.797 -0.1163  0.2274  0.3123
10220W        W53211  23.902   2.527   0.322  0.0447  0.1214 -0.0073
10221W        W53212  31.998  19.402  24.980 -0.0506  0.2883  0.0510
10222W        W53213  15.424   1.871  15.352 -0.0835 -0.0727 -0.1067
10223W        W53214  25.683  17.894   3.647  0.3279  0.1834  0.1142
10224W        W53215  21.319   4.369  26.761  0.4808  0.1805 -0.0379
10225W        W53216  27.258  17.153  26.387  0.0842 -0.2295 -0.0509
10226W        W53217  12.235  13.258  26.469  0.3280 -0.2260 -0.1432
10227W        W53218  16.544  27.353   9.239  0.1230 -0.0523 -0.1011
10228W        W53219   9.572  20.314  26.089 -0.0680  0.3213  0.1676
10229W        W53220  18.307  10.190  27.674 -0.3001 -0.0577  0.1763
10230W        W53221  26.440  23.092   3.746 -0.3150 -0.2225 -0.3261
10231W        W53222   3.238  32.104  22.168  0.1163 -0.0429 -0.0145
10232W        W53223   0.099  25.386   9.379  0.0247 -0.4636 -0.2023
10233W        W53224  12.922  12.404  19.662 -0.0781  0.1218  0.3360
10234W        W53225  34.614  20.540  23.719 -0.0866 -0.1616  0.0500
10235W        W53226   9.359   7.410  23.885 -0.0587 -0.1077  0.1125
10236W        W53227   6.701  16.274   8.765  0.0128  0.2399 -0.0901
10237W        W53228   8.050  10.544  20.603  0.2381  0.0549  0.1327
10238W        W53229  27.802  33.687   6.152  0.0055  0.0518 -0.1757
10239W        W53230  23.758  20.349  27.080  0.1117 -0.0687  0.2023
10240W        W53231  26.745   5.892   2.490  0.1330 -0.0086 -0.1358
10241W        W53232   9.002  12.889   6.250  0.0940  0.1241  0.2782
10242W        W53233   1.431   0.522  17.989  0.2708  0.0213 -0.1407
10243W        W53234   2.230  12.934   2.838 -0.1018  0.3409  0.1782
10244W        W53235   6.982  23.547  17.747 -0.2799 -0.3850  0.1809
10245W        W53236  24.765   1.753  25.229  0.3353  0.0181  0.0068
10246W        W53237  24.092   8.748   0.504 -0.2677  0.0245  0.2095
10247W        W53238   1.319  13.501  18.391 -0.3203  0.2623  0.0674
10248W        W53239   7.533  12.332   6.020 -0.0608 -0.1239  0.5610
10249W        W53240   6.286  30.074   3.685  0.0586  0.1625 -0.3228
10250W        W53241  11.657  15.078  24.157  0.2049 -0.1311 -0.1106
10251W        W53242   3.881  24.708   1.716 -0.1799  0.0828 -0.2871
10252W        W53243  17.284   7.779  24.639 -0.1582 -0.2392  0.3516
10253W        W53244  33.570   8.120  27.497  0.2618 -0.1757 -0.0619
10254W        W53245  11.270  11.843  21.746  0.0978  0.0175 -0.0305
10255W        W53246  32.634  15.518  23.633  0.1755  0.2679  0.0486
10256W        W53247  34.002   8.803   5.664 -0.1644  0.2502  0.1417
10257W        W53248  26.196  26.085  14.701 -0.3459  0.1568  0.1188
10258W        W53249  11.071   8.529  21.238  0.1264 -0.1133  0.1115
10259W        W53250   3.736  16.178   1.993  0.0356  0.1022 -0.0827
10260W        W53251  30.943  16.208   0.306 -0.0226  0.1140 -0.3439
10261W        W53252  28.062   9.649  23.666 -0.1396 -0.0035 -0.4532
10262W        W53253   4.196  14.681   2.153  0.1702  0.0238  0.2358
10263W        W53254  16.533  28.749   1.969 -0.1001 -0.1844  0.0790
10264W        W53255  34.733  11.661   7.445 -0.1241  0.1312 -0.0191
10265W        W53256  32.688   3.583   5.698  0.0041 -0.1557 -0.0450
10266W        W53257  13.207   2.225   2.927  0.0265  0.1136  0.1080
10267W        W53258   4.159   6.558  28.930  0.0410 -0.3067 -0.1406
10268W        W53259   1.678   6.239  18.403 -0.0338  0.0616  0.1591
10269W        W53260  27.001   6.500  23.279 -0.0071  0.0421  0.1342
10270W        W53261   9.055  10.780   0.084  0.1159 -0.0363 -0.0560
10271W        W53262   6.251  32.900   3.004  0.1101  0.0265  0.1722
10272W        W53263  19.454  23.904  26.511  0.2926  0.0240  0.0105
10273W        W53264   4.036  28.368  16.513  0.0385 -0.1185  0.2074
10274W        W53265   2.189  29.482  28.562 -0.0211  0.0584 -0.0060
10275W        W53266   5.747  26.431  15.895 -0.1968  0.0803 -0.0033
10276W        W53267   5.571  12.369   7.252  0.1532  0.3250  0.0704
10277W        W53268  20.555  19.501   7.858 -0.2108 -0.2119  0.2793
10278W        W53269  12.923  20.775  27.676  0.2188 -0.1284 -0.0357
10279W        W53270  27.712  23.748  22.245 -0.2271  0.0710  0.0530
10280W        W53271  33.646   3.394   5.114 -0.3625 -0.0373  0.0350
10281W        W53272   8.760  15.843   3.544 -0.3120 -0.0420  0.2197
10282W        W53273  11.712  13.970   0.829  0.3147 -0.1597 -0.1351
10283W        W53274   5.175   2.194   3.445 -0.0897  0.0259  0.1189
10284W        W53275  26.965   7.967  27.054 -0.0537  0.0105 -0.1133
10285W        W53276  14.479  14.413  23.240  0.0576  0.1125 -0.1316
10286W        W53277   8.153  10.400   2.120  0.1891  0.2471 -0.1365
10287W        W53278   4.922  27.814  17.984  0.1329  0.0521 -0.1946
10288W        W53279   3.591  18.222  16.741 -0.1057 -0.0004 -0.3276
10289W        W53280   2.237  29.751  24.108  0.0423  0.1689  0.0365
10290W        W53281   4.892  16.349   0.461  0.1010  0.1382 -0.2074
10291W        W53282  11.435  33.186  28.230 -0.1087  0.2222  0.0131
10292W        W53283   4.840   0.868  23.367  0.1944  0.2293 -0.1159
10293W        W53284   0.217  22.072  21.431 -0.1054  0.1343 -0.1798
10294W        W53285  32.507  17.415   8.187  0.1399  0.0444  0.2075
10295W        W53286  30.328  16.606  26.988 -0.0984 -0.3686 -0.0900
10296W        W53287  33.177   5.718   2.211  0.3605 -0.2611  0.4473
10297W        W53288  25.709  26.039  13.348 -0.1156 -0.3267  0.1747
10298W        W53289   1.157  23.693  21.803 -0.0302  0.0496 -0.1450
10299W        W53290  31.002  13.946   0.600 -0.0417  0.0611 -0.2630
10300W        W53291  30.070   3.976   0.422 -0.1541  0.0923 -0.0338
10301W        W53292  15.798   1.409  16.085 -0.3130 -0.2997 -0.2350
10302W        W53293  11.376  29.228  15.709  0.1875  0.0785  0.0383
10303W        W53294  33.259  27.658  17.453  0.0180 -0.2390  0.1898
10304W        W53295  28.272  12.184  18.104 -0.0765 -0.1296 -0.3337
10305W        W53296   8.530  11.461  21.791 -0.0368 -0.1367  0.3870
10306W        W53297  27.457   7.025  16.892  0.1607  0.0595  0.2710
10307W        W53298   2.262  10.981  20.476 -0.2182 -0.0290  0.1385
10308W        W53299  26.542  10.818  28.427  0.0596 -0.0427  0.1183
10309W        W53300  21.613  23.575  26.434  0.1840 -0.2838 -0.0137
10310W        W53301   3.247  25.091  28.698 -0.5404  0.0650  0.0880
10311W        W53302   4.215  10.244  23.789 -0.0623 -0.1828 -0.1831
10312W        W53303   3.089  11.263  23.994  0.2942 -0.2637  0.0893
10313W        W53304   1.050  18.236  25.528  0.3534  0.0510 -0.0233
10314W        W53305   7.847  13.155  24.314 -0.0737 -0.1762 -0.0723
10315W        W53306   7.595   5.238  25.365  0.1634  0.1566  0.2726
10316W        W53307   9.739   6.694   7.826  0.2433 -0.2485  0.0437
10317W        W53308  24.814   7.279  25.553 -0.3009  0.1633 -0.1930
10318W        W53309   7.170  16.117  27.956 -0.1418 -0.0693  0.0837
10319W        W53310   5.438  25.604  19.624 -0.0248  0.1363  0.0589
10320W        W53311  18.283  33.599  16.077  0.0118  0.0580 -0.5017
10321W        W53312   0.553  15.380  19.798  0.1813  0.1517  0.0669
10322W        W53313  15.188  16.942   0.822  0.2975 -0.2074 -0.0002
10323W        W53314  21.242  20.750  24.867 -0.2099  0.0850  0.1266
10324W        W53315   0.884   1.870   1.391 -0.2117  0.1965 -0.0156
10325W        W53316  31.158  17.391   6.072  0.0831  0.4043 -0.1556
10326W        W53317   0.031  15.444   0.410  0.1225  0.1123  0.0647
10327W        W53318  26.159  15.129  28.883 -0.1087 -0.2648 -0.1736
10328W        W53319  15.039  32.142  25.224 -0.2637  0.0612 -0.1134
10329W        W53320  32.214  12.140   0.421  0.0681 -0.2456 -0.1947
10330W        W53321  10.752  19.217  15.988  0.1069  0.1088 -0.0741
10331W        W53322   6.207  13.576  23.711  0.0801  0.0704  0.1003
10332W        W53323   1.925   6.453   2.801  0.2258 -0.0604  0.1205
10333W        W53324   1.134   7.051   3.406  0.4483  0.1363  0.1502
10334W        W53325   3.186  16.701  19.629  0.2123 -0.2097  0.3117
10335W        W53326  21.695  16.976  26.961  0.2221  0.2546  0.0674
10336W        W53327   3.995   8.110   0.514 -0.0120  0.2043  0.0215
10337W        W53328   3.805  19.981  23.834 -0.0562  0.0074 -0.1104
10338W        W53329  18.745  14.302   7.281  0.1127  0.1903 -0.1277
10339W        W53330  10.633  11.156  23.975 -0.1288  0.6445  0.1108
10340W        W53331  22.598  23.016  20.111  0.1226  0.2204 -0.0262
10341W        W53332  10.810  19.135   5.575 -0.0396 -0.0159  0.1725
10342W        W53333  30.955  15.265  11.173  0.1623 -0.0984  0.3279
10343W        W53334  14.091  17.792  16.335  0.1012  0.3331 -0.1161
10344W        W53335   1.465  34.620   9.669  0.0085  0.2906  0.0571
10345W        W53336   6.847  29.442  27.791 -0.1622  0.0961 -0.1231
10346W        W53337   2.002  21.275   4.411  0.0089 -0.1560  0.0740
10347W        W53338  16.062  30.678   5.469  0.0348  0.1889  0.0928
10348W        W53339  33.065  12.467  27.942 -0.4055  0.1756 -0.0253
10349W        W53340  20.120  12.811  14.001 -0.0828 -0.3369 -0.3969
10350W        W53341  22.957   8.900   6.149 -0.0135  0.3200  0.1196
10351W        W53342   9.150  12.555  19.443 -0.0235  0.2960  0.0295
10352W        W53343   7.358   1.248  10.671  0.0777  0.1497  0.0145
10353W        W53344   5.725  23.654   1.521  0.1091 -0.4067  0.0367
10354W        W53345   9.240  18.838  18.207  0.2648  0.0985 -0.1427
10355W        W53346  30.917  18.344   5.200 -0.0738  0.1282  0.1535
10356W        W53347   1.353  12.517  28.422 -0.2379  0.0977 -0.1405
10357W        W53348   3.071  12.983  21.236 -0.3214 -0.1196 -0.0485
10358W        W53349  33.422  15.547   1.969 -0.0019 -0.2537  0.0033
10359W        W53350   5.566  12.561   5.695  0.1050 -0.0682 -0.0815
10360W        W53351  10.434   8.954  29.098 -0.0483  0.2948  0.0996
10361W        W53352  17.273  13.396  23.180  0.2938 -0.0490 -0.0007
10362W        W53353  24.231  25.812  27.972 -0.1399 -0.1920  0.1962
10363W        W53354   2.263   3.451  26.774 -0.0480  0.1641 -0.0175
10364W        W53355   4.658  12.652   6.116  0.2396  0.1148 -0.0478
10365W        W53356   3.502   7.059  28.674 -0.2547 -0.0890  0.4184
10366W        W53357  31.556   3.329  23.943  0.1094 -0.1410  0.1352
10367W        W53358   5.779  19.750  23.361  0.0178 -0.0054 -0.1220
10368W        W53359  33.706   5.653  25.745  0.1674 -0.1058 -0.0837
10369W        W53360   5.621  26.577  21.155  0.2355 -0.2470 -0.0128
10370W        W53361  15.743   9.675   2.629  0.1010  0.0584 -0.3266
10371W        W53362   1.831  25.504   0.633 -0.1998  0.1524  0.1506
10372W        W53363   0.024  12.575  25.382 -0.1183  0.0427  0.3582
10373W        W53364  11.377   6.551  19.497  0.1905  0.2854 -0.0882
10374W        W53365   6.341  31.257  29.118 -0.2320 -0.0789 -0.3059
10375W        W53366  10.855  18.509   1.876 -0.3785  0.1155 -0.0808
10376W        W53367   9.560   1.785  25.697  0.0229 -0.0188  0.0486
10377W        W53368  26.813  11.981  15.199  0.2128 -0.2662  0.0141
10378W        W53369  31.460   8.009  14.470 -0.0604 -0.2492  0.2821
10379W        W53370   6.640   1.864  22.945 -0.3101 -0.2927  0.0536
10380W        W53371   5.418  17.926  25.517 -0.1870  0.0919 -0.2332
10381W        W53372   2.870  17.629  18.817 -0.0036  0.1834 -0.0173
10382W        W53373  10.399  24.378   5.403  0.0524  0.0892 -0.0914
10383W        W53374  23.637   6.242  27.210  0.0427  0.0891  0.0254
10384W        W53375   6.507   5.925   1.231  0.1825  0.3911 -0.1384
10385W        W53376  13.309  34.553  27.382 -0.1755  0.1692 -0.1025
10386W        W53377  17.769   8.975  20.811  0.1377 -0.2160 -0.0204
10387W        W53378  13.945   5.616   1.697  0.2905 -0.1515 -0.0829
10388W        W53379   0.609  13.290  10.208  0.0807  0.1173  0.1414
10389W        W53380  28.455  14.409   4.664  0.1354  0.3311  0.1479
10390W        W53381   2.993  21.924  27.177 -0.2627  0.2855  0.0460
10391W        W53382  14.680  33.761  22.778 -0.0315  0.0269  0.0889
10392W        W53383   1.958  14.220  20.963 -0.0222 -0.1652 -0.2549
10393W        W53384  20.443   6.814   3.944  0.3255  0.0261 -0.2196
10394W        W53385   3.790   6.521   7.362  0.0758  0.0050  0.0339
10395W        W53386   6.108  34.069  19.653  0.2369 -0.0058 -0.0309
10396W        W53387   0.677  10.987  10.079 -0.3017 -0.2178 -0.2420
10397W        W53388  18.773  21.577  25.041  0.4661 -0.1035 -0.1152
10398W        W53389  33.703  20.617  26.128 -0.2826 -0.1509  0.1485
10399W        W53390  30.529  21.642   9.484  0.1024 -0.0102 -0.0251
10400W        W53391  33.837  34.120   1.652  0.0235  0.1525  0.1011
10401W        W53392  19.666  15.171  26.952  0.0023 -0.1134  0.2419
10402W        W53393  34.168  23.068  16.190  0.2052  0.4578  0.0745
10403W        W53394  33.812  15.136  28.355 -0.2572  0.0646 -0.2092
10404W        W53395   2.910   8.006  10.737 -0.1946 -0.2856 -0.0404
10405W        W53396   3.233  10.006   7.819  0.1053  0.1368  0.0688
10406W        W53397  12.974  18.608  17.782 -0.2970  0.0391  0.0850
10407W        W53398  23.633  15.253   7.000  0.1379  0.0299  0.0251
10408W        W53399  13.020   8.843  22.494  0.2419 -0.0188  0.1045
10409W        W53400  29.280  12.103   6.145 -0.2116  0.6538  0.0351
10410W        W53401  29.643   9.692   2.747 -0.3368  0.1014 -0.0915
10411W        W53402  34.356   7.127   8.069  0.0314 -0.0127 -0.0130
10412W        W53403  30.681  18.980  10.172 -0.0497  0.2628 -0.0019
10413W        W53404  21.882  10.470   3.224  0.1401  0.2543  0.2246
10414W        W53405  10.681   4.833  20.617  0.0531 -0.1400  0.0350
10415W        W53406   2.823  17.904   3.684 -0.2534  0.0339  0.2421
10416W        W53407  16.837  13.804   8.193 -0.0825  0.2618 -0.2623
10417W        W53408  33.810  15.223  20.172  0.0191  0.1698  0.0667
10418W        W53409  30.419   7.886  25.197  0.0369 -0.1104  0.3450
10419W        W53410   4.926  14.240  20.252  0.2066  0.1221 -0.1229
10420W        W53411   0.613   1.556  13.721  0.0504  0.1362  0.1204
10421W        W53412   3.223  24.271  18.909  0.0279  0.1222 -0.0959
10422W        W53413   5.139   3.729   9.560 -0.0502 -0.0025  0.1829
10423W        W53414  16.014  26.206  18.566  0.2229  0.1258  0.0195
10424W        W53415  22.502   1.858   0.915 -0.0383 -0.4576 -0.0898
10425W        W53416  24.460  29.147  19.176  0.0725 -0.1004  0.1394
10426W        W53417   9.063  26.381  28.867  0.0658  0.1685  0.0111
10427W        W53418   7.125  28.637  25.723 -0.0236  0.2262 -0.2695
10428W        W53419   1.227  15.114  22.275  0.2252  0.1736  0.3319
10429W        W53420  13.760   8.604  21.524 -0.0052 -0.0760 -0.2797
10430W        W53421  34.421  16.098  23.510 -0.2095 -0.1248  0.2444
10431W        W53422  15.345   3.111  21.963 -0.0883 -0.0809 -0.3034
10432W        W53423  28.442  13.337   4.180 -0.1528  0.1160 -0.1099
10433W        W53424  11.683   8.036   7.186  0.0280  0.1099 -0.0373
10434W        W53425   0.572   1.728  28.117 -0.5859 -0.1665 -0.0477
10435W        W53426   8.052  17.088  22.181 -0.0470 -0.1836  0.2705
10436W        W53427  13.513  10.693  24.627 -0.3506  0.0594 -0.1006
10437W        W53428  23.843  25.415  14.405 -0.2433  0.0847  0.3446
10438W        W53429  25.786  12.627   6.182 -0.0168  0.3844  0.2042
10439W        W53430  29.433  22.154  24.923 -0.0964  0.0982  0.1179
10440W        W53431  10.402  11.363  21.862 -0.0324  0.3324 -0.0937
10441W        W53432  21.242   5.716  24.623 -0.1206  0.1494 -0.3409
10442W        W53433  28.881  31.751  20.691  0.2131  0.0981  0.1652
10443W        W53434   4.800   5.867  27.932  0.2202 -0.1326 -0.0298
10444W        W53435  25.551  16.360   5.363 -0.0694  0.1112  0.1706
10445W        W53436  27.075  15.497   8.514 -0.0651  0.3418 -0.1481
10446W        W53437   1.684  15.489  17.110  0.2515 -0.0837 -0.2864
10447W        W53438  27.121  18.375   6.002  0.0745 -0.0104  0.0336
10448W        W53439  14.765   8.888  26.811  0.0866  0.1891  0.0067
10449W        W53440  33.829   1.903   6.320  0.0917 -0.0589 -0.2272
10450W        W53441  25.490  21.428   7.805 -0.0275  0.2914  0.0330
10451W        W53442   5.423  15.757   8.661 -0.0643  0.3126  0.5024
10452W        W53443   2.933  25.707  24.326  0.0526  0.2419  0.0321
10453W        W53444   1.630  15.605  28.726 -0.1888 -0.3623 -0.0440
10454W        W53445  33.149  16.550   2.063  0.1743 -0.1522 -0.0755
10455W        W53446  23.221  18.913  16.510 -0.0606  0.1966 -0.1088
10456W        W53447  12.567   6.512  23.750  0.3976 -0.2619  0.2316
10457W        W53448   0.590   0.322  10.472 -0.0309  0.2000  0.0505
10458W        W53449  10.596  10.225   4.048  0.2305  0.1019  0.1668
10459W        W53450  31.851  17.888  22.180  0.0103 -0.0679 -0.1122
10460W        W53451   7.984  23.723   4.100 -0.1856 -0.0671  0.1562
10461W        W53452   7.902  29.695   0.009 -0.1698 -0.1216 -0.0588
10462W        W53453  33.345  20.179   8.612  0.3547 -0.0717  0.0974
10463W        W53454  16.917  17.967   9.018 -0.3568 -0.1103 -0.0272
10464W        W53455   7.357  26.511   0.669 -0.0246 -0.1677  0.0553
10465W        W53456  22.735  27.274  28.186  0.2299  0.1860 -0.0366
10466W        W53457  33.476   2.771  20.409 -0.1770  0.2152 -0.0181
10467W        W53458   3.028  27.132   2.479  0.0753  0.1030  0.1072
10468W        W53459  32.271  22.134   1.755 -0.2943  0.2396  0.0095
10469W        W53460  29.908  33.038   4.971  0.0651 -0.4220  0.0728
10470W        W53461   3.176  16.188  23.597  0.0176  0.1570 -0.1156
10471W        W53462  18.835  11.818  18.360 -0.0547 -0.3676  0.0716
10472W        W53463   5.400  27.802  17.664  0.1255  0.3634  0.2791
10473W        W53464  25.093  15.726   8.461 -0.3525 -0.0326 -0.1481
10474W        W53465  31.399   0.132   6.108 -0.0656 -0.1636 -0.0708
10475W        W53466   7.108  21.709  19.278 -0.1050 -0.1309 -0.0114
10476W        W53467  29.042  20.879   3.886 -0.4523  0.0185 -0.1799
10477W        W53468  15.816  33.375  18.553  0.0070 -0.2367 -0.1659
10478W        W53469   4.599  13.140  11.416 -0.2185  0.0392 -0.1730
10479W        W53470  12.657  16.884   0.797 -0.2675  0.1038  0.0555
10480W        W53471  12.105  15.374  24.145 -0.0904 -0.0923  0.0664
10481W        W53472   0.099  18.496  22.977  0.1719  0.1307 -0.0753
10482W        W53473  32.099  34.375  28.927  0.0236  0.2726 -0.0220
10483W        W53474  10.115  32.981  22.168 -0.0793 -0.1763  0.2958
10484W        W53475  23.089  13.795   6.714 -0.0770  0.2892 -0.0863
10485W        W53476   8.127  14.781   4.448 -0.0630  0.1937  0.2242
10486W        W53477  28.245   5.006   2.659  0.2009  0.1852 -0.3571
10487W        W53478   3.748   9.921  27.802 -0.1844  0.1104  0.0433
10488W        W53479  13.354  18.871  14.820 -0.1827  0.1940 -0.2014
10489W        W53480  33.933  32.972  15.882 -0.3838 -0.0450 -0.1214
10490W        W53481  24.642  14.077  17.917 -0.2991 -0.1089 -0.1191
10491W        W53482  29.463  15.315   7.224 -0.0574  0.3112  0.2483
10492W        W53483  32.342  21.693   3.878  0.1137 -0.0942 -0.1712
10493W        W53484   7.323  11.535   2.448  0.0337  0.2212 -0.1638
10494W        W53485  34.067  14.774   5.214  0.0130  0.1227 -0.2231
10495W        W53486  27.360   2.112   7.564 -0.0716  0.1917 -0.3110
10496W        W53487   0.784  28.612  23.919  0.2640  0.0914 -0.0686
10497W        W53488   0.775   1.055  18.118  0.1433  0.2303  0.1669
10498W        W53489   2.912  19.775   2.271 -0.0153  0.1758 -0.2596
10499W        W53490  14.379  11.452  22.751  0.1084 -0.1632  0.2052
10500W        W53491   1.011  19.068  16.100 -0.0272  0.0042 -0.3057
10501W        W53492  30.917  30.794   1.426 -0.1735  0.4147 -0.0801
10502W        W53493  25.527   7.313   3.708  0.1006 -0.0772 -0.2623
10503W        W53494  29.191   7.998   4.701 -0.0638 -0.3867  0.0407
10504W        W53495   5.215   9.162   6.835 -0.0877 -0.0580 -0.2843
10505W        W53496  33.639  12.476  28.442 -0.1320  0.1122 -0.1747
10506W        W53497   0.286  10.080  10.126  0.1018 -0.0282  0.0737
10507W        W53498   4.851  33.248   8.262  0.0195  0.1784  0.0419
10508W        W53499  13.360  12.571   9.187  0.1683  0.1529  0.3307
10509W        W53500  27.061  10.978   4.093  0.1697  0.0469 -0.1445
10510W        W53501  10.071  17.205  20.220 -0.2532 -0.0058 -0.1050
10511W        W53502  15.317   8.049   9.322  0.0279 -0.2276  0.5089
10512W        W53503   9.170  16.990   4.150 -0.1577 -0.0321  0.1505
10513W        W53504  32.813  33.476  18.474 -0.1015  0.2979  0.2267
10514W        W53505   9.941   0.217   7.008  0.2090  0.3526  0.0265
10515W        W53506  33.067  15.408   0.755 -0.0735  0.1442  0.2465
10516W        W53507  33.356  34.180   6.116  0.0826  0.0250 -0.2083
10517W        W53508  28.373  13.835   8.245  0.0227 -0.2720 -0.1919
10518W        W53509  10.258   7.913  10.634 -0.2700 -0.1296 -0.1304
10519W        W53510   3.000  22.411   2.334  0.0843  0.3491 -0.0491
10520W        W53511  27.607  14.286   6.758  0.0307 -0.2233  0.0799
10521W        W53512  16.975  13.028  23.043  0.0148  0.2512  0.0722
10522W        W53513  10.410   7.648  24.982 -0.2345  0.1152 -0.2294
10523W        W53514  28.348  15.997   2.107 -0.0132  0.1630 -0.3149
10524W        W53515   4.862  12.534   9.181 -0.0919 -0.0674 -0.1701
10525W        W53516  20.721  19.216  16.782 -0.0773  0.0219 -0.3216
10526W        W53517   4.939  28.005  15.767  0.1507  0.3104  0.2599
10527W        W53518   8.011  17.328   2.568 -0.0676  0.0482 -0.2540
10528W        W53519  27.268  18.592  21.827  0.0963  0.1334  0.4267
10529W        W53520  29.521   5.404  27.380 -0.4042 -0.0953 -0.1442
10530W        W53521  28.742  18.014  28.557 -0.2264 -0.0431  0.1071
10531W        W53522  22.931   0.124  16.516 -0.2821  0.0552 -0.0048
10532W        W53523  10.915  12.785  22.653 -0.0180 -0.1130 -0.1335
10533W        W53524  20.286  10.169  18.392  0.3705 -0.0740  0.2057
10534W        W53525  28.361  33.295  15.796  0.1056  0.3430 -0.1533
10535W        W53526  24.350   2.878  28.166 -0.0409  0.2395 -0.0874
10536W        W53527  33.786   8.267   3.461  0.1835  0.1725 -0.1721
10537W        W53528  16.475  15.705   3.690 -0.2700 -0.1440  0.2893
10538W        W53529  12.210   4.136  28.950 -0.1026  0.1597 -0.0058
10539W        W53530  20.682  14.869  23.001 -0.3185 -0.0670  0.0233
10540W        W53531   1.335  10.888  28.298 -0.0576  0.0935 -0.2501
10541W        W53532  20.143  30.360  24.140 -0.0327 -0.2012  0.0418
10542W        W53533  13.608  14.597   2.142 -0.0715  0.1395 -0.2370
10543W        W53534   2.268  12.836   0.616 -0.1651  0.1986 -0.1535
10544W        W53535   8.495  10.438  23.523  0.1069 -0.1672  0.1424
10545W        W53536   3.760   4.855   7.727  0.0858  0.0645 -0.2556
10546W        W53537   0.071  10.936  24.717 -0.0746  0.1261  0.1165
10547W        W53538  32.919  15.533  15.940  0.0814  0.0566  0.1097
10548W        W53539   0.470   3.197   4.179 -0.0068 -0.0275 -0.1203
10549W        W53540  22.759  26.542  19.233 -0.1819 -0.0562  0.3917
10550W        W53541  27.346   1.499  28.312 -0.1161 -0.3324 -0.2128
10551W        W53542  13.517  10.614  20.750 -0.0463  0.1247 -0.1529
10552W        W53543   7.129  15.809  16.577  0.1818 -0.2563 -0.0954
10553W        W53544   1.299   0.960  16.545 -0.3736  0.0687  0.0050
10554W        W53545   3.453  22.134  18.378 -0.2054 -0.0512  0.0273
10555W        W53546  21.234   8.467  26.104 -0.0613 -0.0567 -0.0330
10556W        W53547  29.654  23.721  28.096  0.2136  0.0804  0.0240
10557W        W53548   3.572   4.415  18.946 -0.4625  0.1029  0.0003
10558W        W53549   8.521  23.057   0.663  0.1272  0.1917 -0.2901
10559W        W53550  32.092  21.708  16.736 -0.1728  0.2263 -0.0937
10560W        W53551  34.241  19.950  14.790 -0.1348 -0.1013 -0.0046
10561W        W53552   1.218  17.779  18.552 -0.1422 -0.0415  0.3639
10562W        W53553   0.383   0.416  14.569  0.0029 -0.2324 -0.2073
10563W        W53554  32.107  33.516  20.422  0.1421  0.1381 -0.0593
10564W        W53555  27.885  14.034  20.317  0.0433 -0.5329  0.2209
10565W        W53556   4.219  13.537  25.119  0.0690  0.1824  0.1192
10566W        W53557   9.902  13.058   4.265  0.2872  0.0829 -0.1315
10567W        W53558  12.343   5.091  26.002 -0.0533  0.3423  0.1040
10568W        W53559   0.511  25.089  14.536 -0.1640  0.2189  0.0313
10569W        W53560   4.749   7.864  26.181  0.2753  0.1796 -0.0455
10570W        W53561   2.191  19.909  24.811 -0.0195  0.0335 -0.2344
10571W        W53562  22.872  14.611   4.169  0.0343  0.2246  0.0532
10572W        W53563   3.067  29.379  24.270  0.0109 -0.0499  0.1150
10573W        W53564   3.875  34.400  17.277 -0.0596 -0.1093 -0.3436
10574W        W53565  26.580  20.739   5.389 -0.3876  0.1191 -0.1092
10575W        W53566  10.390  11.683  26.074 -0.1653 -0.3770  0.0032
10576W        W53567  11.005  25.908  21.712  0.1535  0.3788  0.0507
10577W        W53568  11.825   3.611  24.699 -0.0552  0.1191 -0.2580
10578W        W53569  31.966   8.761  21.498  0.3869  0.0292  0.2305
10579W        W53570  17.679  20.798   0.859  0.3558  0.0289 -0.0300
10580W        W53571  30.658  24.979  19.731 -0.0138  0.2162  0.3730
10581W        W53572   1.498  11.769  25.801 -0.1174 -0.0584 -0.1498
10582W        W53573   0.024  28.244  15.981 -0.0202  0.0937 -0.0637
10583W        W53574  19.834   2.411  13.126  0.1326  0.1434  0.1786
10584W        W53575  33.600  17.971  15.368 -0.2413  0.2215 -0.1544
10585W        W53576  32.137  23.968  23.687  0.1652  0.2941  0.3302
10586W        W53577   3.961  24.890  18.400 -0.0373 -0.0226  0.2136
10587W        W53578   0.693  19.778  16.478  0.0231  0.0055 -0.0129
10588W        W53579  33.370   5.948  20.592 -0.1665 -0.4429  0.0476
10589W        W53580   1.117  11.117  27.440 -0.0068  0.0217 -0.1252
10590W        W53581   5.357  23.919  18.456 -0.2265  0.3497  0.2161
10591W        W53582  27.973  28.733  20.725  0.2848 -0.0438  0.1423
10592W        W53583  30.401  23.329  21.334  0.1020 -0.0660 -0.3331
10593W        W53584  22.297  19.579  13.878  0.1203 -0.0181  0.1077
10594W        W53585   0.494  11.833  16.976 -0.0501 -0.0751  0.0673
10595W        W53586  11.426  21.986  23.806 -0.0040  0.1991  0.1947
10596W        W53587  32.032  25.402  13.812  0.1510  0.0622 -0.4986
10597W        W53588  33.562  16.382  21.485 -0.1854  0.1707 -0.0648
10598W        W53589  15.182   1.571   5.078 -0.1539  0.3921  0.0760
10599W        W53590   8.463  12.292  27.421 -0.0315  0.1175 -0.1931
10600W        W53591  27.217  30.819  13.105  0.1398 -0.4263 -0.0397
10601W        W53592  16.714  31.361  20.240  0.1813  0.0077  0.0934
10602W        W53593   6.370  13.103  20.974 -0.0084  0.0735  0.0569
10603W        W53594   1.661  31.493  25.064 -0.2196  0.3378 -0.3631
10604W        W53595  10.139   5.532  20.820  0.4292 -0.0279 -0.1912
10605W        W53596  26.847  17.401  17.737  0.3571  0.0107 -0.3836
10606W        W53597  34.192   9.170  15.563  0.1144  0.1284 -0.3669
10607W        W53598  25.829  29.873  14.734 -0.0925  0.1941  0.0588
10608W        W53599  32.495  26.652  15.850  0.0786 -0.2152 -0.2170
10609W        W53600  19.938   9.448  27.206 -0.1654  0.2420  0.0381
10610W        W53601  32.863  16.584  28.858  0.0595 -0.0994 -0.0475
10611W        W53602  11.452  10.151  24.690  0.1952  0.1695  0.2447
10612W        W53603  30.582  16.107  21.823 -0.3026 -0.1928  0.3060
10613W        W53604  26.600  11.835  14.721 -0.3578 -0.3099 -0.2116
10614W        W53605  29.226   6.019  14.686  0.2424  0.0537  0.1762
10615W        W53606  24.742   7.766  25.704  0.4303  0.1560 -0.1192
10616W        W53607   4.798  32.845  16.895  0.0265 -0.0970  0.0559
10617W        W53608   2.753  13.749  21.159 -0.0902 -0.0134 -0.1780
10618W        W53609  30.266   0.247  26.605 -0.0543  0.0578  0.1774
10619W        W53610  31.456   1.596  17.534 -0.3238  0.2147  0.2510
10620W        W53611  28.613  12.730  26.142 -0.1173  0.4503  0.0283
10621W        W53612   7.954  29.642  17.900  0.0081 -0.2655 -0.3400
10622W        W53613  34.246  11.812  29.149  0.2009 -0.1454 -0.1733
10623W        W53614  24.605  18.345  22.606 -0.0820  0.1710 -0.0863
10624W        W53615  10.549  12.421  22.726  0.2736 -0.0346 -0.1360
10625W        W53616   8.925   8.785  26.523  0.2826 -0.1585 -0.1090
10626W        W53617  18.481   3.680  23.936  0.1605 -0.0379  0.0693
10627W        W53618  30.756  24.919  23.187 -0.0698  0.1304  0.1264
10628W        W53619  32.181  25.100  25.119 -0.1424  0.0735  0.0277
10629W        W53620   0.100  12.019  18.900  0.3051 -0.1528 -0.0887
10630W        W53621  27.704  34.059  26.004 -0.3421 -0.2215 -0.0844
10631W        W53622  32.824  29.540   6.990  0.0854  0.0509  0.0998
10632W        W53623   9.892  16.999  19.102  0.1208 -0.3909  0.1307
10633W        W53624  27.658  28.030  21.911 -0.0534 -0.0329  0.0651
10634W        W53625  16.519  11.915  17.553 -0.3289 -0.3817  0.1001
10635W        W53626  18.271  23.463  15.953 -0.1957  0.0756  0.2572
10636W        W53627   7.668  19.100  21.726 -0.2154 -0.0906 -0.2702
10637W        W53628   7.132  19.360  16.460  0.3482  0.3217 -0.0698
10638W        W53629  24.639  33.494  16.895  0.1021  0.0742  0.0534
10639W        W53630  11.744   1.685  23.656  0.0371 -0.0377 -0.0588
10640W        W53631  32.789  25.322  13.669 -0.2212 -0.0834  0.0735
10641W        W53632   2.861   0.662  16.248  0.1627  0.1399 -0.0679
10642W        W53633   7.868  18.905   0.603  0.0296 -0.0774  0.0490
10643W        W53634  12.872  16.126  18.553 -0.1887  0.5997  0.1650
10644W        W53635  31.965  11.489  14.395  0.0474  0.1778 -0.0220
10645W        W53636  28.042  14.988  20.093  0.1499 -0.3469 -0.0507
10646W        W53637  13.873  34.088  23.912 -0.2448 -0.5833 -0.1242
10647W        W53638   4.211  11.044  19.315 -0.1368  0.1006  0.0642
10648W        W53639   2.243  34.014  14.595  0.2703 -0.2381  0.0524
10649W        W53640   0.935  32.024  27.719  0.0420 -0.0641  0.0905
10650W        W53641   5.670  22.374  25.578 -0.0103 -0.3521  0.0826
10651W        W53642  29.606  27.772  13.324 -0.1220 -0.2965 -0.1252
10652W        W53643  33.259  23.996   0.612  0.1245  0.1087  0.0158
10653W        W53644  28.316  27.464  14.036 -0.2391  0.0664  0.0650
10654W        W53645  34.203  15.504  15.581 -0.4175  0.0335  0.1769
10655W        W53646  25.889  29.712  25.666  0.2572  0.2755 -0.2723
10656W        W53647  25.569  10.250  26.771 -0.2666 -0.0274  0.1135
10657W        W53648   8.311  17.914  23.837 -0.1539  0.1722 -0.0934
10658W        W53649  26.211  13.380   8.013  0.1530  0.1092  0.1498
10659W        W53650  33.981  13.763  17.703  0.1523 -0.0864 -0.3262
10660W        W53651   1.292  22.858  22.723 -0.0407  0.0865 -0.0311
10661W        W53652  33.124  32.746  15.466 -0.2480 -0.1357  0.0257
10662W        W53653  23.307   7.720  26.103  0.0991  0.4763  0.1649
10663W        W53654  11.635   9.343  20.052 -0.3189 -0.0377 -0.1133
10664W        W53655  25.062  26.666  17.480  0.1424 -0.0523 -0.3975
10665W        W53656   9.958  11.386  18.406  0.1041  0.2887 -0.1311
10666W        W53657  26.668  20.431  14.418 -0.2472 -0.0756  0.0278
10667W        W53658   7.510  18.280  16.999  0.1321 -0.2267 -0.3263
10668W        W53659   3.275  20.420  25.814  0.2079  0.4964  0.0379
10669W        W53660   5.004  17.077  22.124 -0.0403  0.0294  0.2017
10670W        W53661  31.121  21.434   4.048  0.0572 -0.3299  0.0842
10671W        W53662  18.671  25.898  25.974  0.1192  0.0871  0.0136
10672W        W53663   3.531  30.013  21.841 -0.1089  0.2576  0.0095
10673W        W53664   1.012   9.539  23.958  0.0908 -0.0164 -0.4647
10674W        W53665  27.950   3.130  27.240  0.0044 -0.0279  0.0038
10675W        W53666   0.647  33.942  20.694  0.1469 -0.0511 -0.1675
10676W        W53667  33.386  30.887  16.556  0.0607  0.0825 -0.0720
10677W        W53668  25.401  31.641  15.948  0.2979  0.0164 -0.0373
10678W        W53669  32.951  22.517  17.763  0.0513  0.0642 -0.0393
10679W        W53670   6.184  16.340  16.369  0.1575 -0.0753  0.5206
10680W        W53671  34.703   5.996   0.328  0.1422  0.1692 -0.1378
10681W        W53672  17.880   4.541   0.330 -0.0065 -0.2763 -0.0616
10682W        W53673  10.077  11.101  22.611  0.1482  0.0611  0.0263
10683W        W53674  32.426   4.664  26.125 -0.1121 -0.1708 -0.2859
10684W        W53675   1.809  19.123  18.397 -0.2921 -0.4158 -0.1617
10685W        W53676  32.397  19.992  21.029 -0.1125 -0.2525  0.1917
10686W        W53677  26.109   4.606   3.847 -0.3825  0.0555  0.4117
10687W        W53678   1.098   0.483  16.610  0.0120 -0.0708 -0.2158
10688W        W53679   0.170  32.623  16.663 -0.0082 -0.0269 -0.1559
10689W        W53680  33.385  11.274  24.165  0.1521 -0.0681 -0.1447
10690W        W53681   8.151   9.336   0.914 -0.0941 -0.0413 -0.1150
10691W        W53682   9.034  14.798  21.741  0.1645  0.2402 -0.1312
10692W        W53683  19.797  17.092  28.448 -0.1402  0.2324 -0.1577
10693W        W53684   2.179  20.211  15.472 -0.1297  0.2377 -0.3340
10694W        W53685  31.925  24.664  24.367 -0.3094  0.1775 -0.0406
10695W        W53686  29.929  10.018  18.756  0.3004  0.0267  0.2146
10696W        W53687   7.871  32.844  21.781  0.2438 -0.1022  0.0378
10697W        W53688   8.314  16.275  14.563  0.1091 -0.0398  0.1533
10698W        W53689  26.360   9.237  22.764  0.2374  0.0852  0.0803
10699W        W53690  29.750  10.567   1.458  0.2576  0.0178 -0.0378
10700W        W53691  12.791  33.326   3.323  0.2049  0.3210  0.3579
10701W        W53692   9.528  22.124  14.449  0.0735 -0.0624 -0.0824
10702W        W53693  27.677  33.284  24.761 -0.1332 -0.1856  0.1144
10703W        W53694  26.456  25.568   6.589  0.1364  0.1117 -0.1592
10704W        W53695  23.942  19.534  14.542  0.1435  0.0350  0.0593
10705W        W53696  30.331  15.468  19.316 -0.2690 -0.2446  0.4061
10706W        W53697  31.490  17.423  15.852 -0.3644 -0.1075  0.2352
10707W        W53698  28.747  25.892  13.171 -0.0073  0.1462  0.1199
10708W        W53699  27.985  23.692  18.568  0.2880 -0.0252 -0.1563
10709W        W53700   4.306  25.315  17.116 -0.0836  0.2405 -0.1974
10710W        W53701  29.050  18.046  14.738  0.0055 -0.1335 -0.1566
10711W        W53702  28.722  19.953  24.970 -0.2541 -0.1391  0.1902
10712W        W53703   9.436  20.794  24.912  0.0996  0.2369  0.0823
10713W        W53704   7.161  19.102   7.966 -0.0043 -0.1087  0.1150
10714W        W53705   9.275  15.776  28.302 -0.2521 -0.2018 -0.1271
10715W        W53706   7.802  21.510  25.168  0.0287 -0.1788 -0.0085
10716W        W53707  32.755  15.285  26.094 -0.0702 -0.3973 -0.4032
10717W        W53708  21.186   2.057  15.781 -0.2009 -0.0178 -0.2229
10718W        W53709   3.655   8.922   0.867  0.0633  0.0011  0.0815
10719W        W53710  26.969   0.825  28.943 -0.1231  0.3058  0.0087
10720W        W53711   3.200  26.970  14.306 -0.0330  0.0329  0.0008
10721W        W53712   5.485  13.237   9.264 -0.1205 -0.0135  0.2530
10722W        W53713   6.113  21.498  22.689 -0.1457 -0.1527  0.3453
10723W        W53714  27.835  12.872  17.840  0.2186  0.0017 -0.0776
10724W        W53715  30.383  24.924  22.217 -0.2372 -0.0369 -0.2030
10725W        W53716   9.502  10.304  27.344 -0.3526  0.0525 -0.0343
10726W        W53717  32.443   2.106  27.941  0.0031  0.1755  0.3605
10727W        W53718  19.241  11.044  26.058  0.1587 -0.3887 -0.0546
10728W        W53719  33.031  21.294  26.997  0.1723 -0.1531  0.0567
10729W        W53720  31.885  14.788  23.931 -0.2935 -0.0491  0.0544
10730W        W53721  33.424  16.196   3.226 -0.0008  0.1970 -0.2112
10731W        W53722  28.740  22.386  17.916  0.0941 -0.0389  0.0957
10732W        W53723   1.422  16.405  25.835  0.1172 -0.0703 -0.2876
10733W        W53724   2.489  25.983  17.862 -0.1321  0.0636  0.1685
10734W        W53725   9.108   9.319  15.738 -0.3312 -0.1131  0.1272
10735W        W53726  27.789  33.735  19.857 -0.1404 -0.1372 -0.1820
10736W        W53727   4.237   7.233  28.189 -0.0706 -0.0985  0.1669
10737W        W53728  25.084  21.615  17.545  0.0565  0.1352  0.1090
10738W        W53729  33.147  20.135  24.294 -0.0044  0.2736 -0.0156
10739W        W53730   5.257  19.349  20.523 -0.3421 -0.0367  0.1284
10740W        W53731  27.109   9.895  28.325  0.0251  0.0116 -0.1152
10741W        W53732   3.521  19.161  17.008  0.2829 -0.1031  0.1587
10742W        W53733  20.287  25.726  23.210  0.3735  0.1482  0.0273
10743W        W53734   5.664  27.221  26.486  0.0458 -0.0181 -0.4362
10744W        W53735  32.235  26.014  20.156 -0.3621  0.0396  0.2079
10745W        W53736   2.006  12.470  26.822  0.0727  0.0495 -0.1208
10746W        W53737   4.584   3.280   6.610  0.1854  0.1413  0.2868
10747W        W53738  15.177  12.257   4.963 -0.1853 -0.0522 -0.1407
10748W        W53739  27.780  22.016   5.632 -0.0113 -0.1016  0.0808
10749W        W53740  27.921  15.907   1.324 -0.2951 -0.2938  0.1253
10750W        W53741  12.053  22.944  19.404  0.3152 -0.2496 -0.3278
10751W        W53742  33.377   6.745  17.713  0.1621  0.0872  0.0146
10752W        W53743  30.031  16.972  21.612  0.1867 -0.3677  0.3993
10753W        W53744   4.349  15.063   1.813 -0.0021 -0.2642 -0.3148
10754W        W53745   3.134  29.615  15.688  0.3811  0.3982  0.0278
10755W        W53746  10.248  34.653  17.678 -0.1070  0.3889  0.1170
10756W        W53747  16.872  13.848  16.495  0.0399  0.2072 -0.3746
10757W        W53748   6.727  29.628  21.188 -0.1532 -0.1491  0.3537
10758W        W53749   0.903   6.520  15.667 -0.1874  0.1163  0.0761
10759W        W53750  10.260   8.536  19.565 -0.0140  0.0434 -0.0476
10760W        W53751   0.939  17.002  17.581  0.0587  0.2023  0.1168
10761W        W53752  34.742  19.973  15.964 -0.5855 -0.0474 -0.0561
10762W        W53753   6.890  29.719   3.826  0.1213 -0.0907  0.0979
10763W        W53754  31.235  20.735  18.232 -0.3104  0.1132  0.0392
10764W        W53755  29.153  20.243  16.584 -0.1069 -0.1952  0.3931
10765W        W53756  30.359  18.135  23.095 -0.2172 -0.0672  0.1179
10766W        W53757  15.764  19.957  21.690 -0.0312 -0.1751 -0.0327
10767W        W53758  32.794  16.110  23.079  0.1384 -0.0857  0.0892
10768W        W53759  32.435   2.320  23.237  0.0367 -0.0321 -0.2477
10769W        W53760  28.949  15.146   5.970  0.2743  0.0096  0.0011
10770W        W53761  30.851  22.742  27.559  0.2561  0.1460 -0.1526
10771W        W53762  31.088  14.427  24.398 -0.1790  0.0104  0.0972
10772W        W53763   0.448   4.757  26.983  0.2812 -0.2079 -0.1303
10773W        W53764  27.728  21.773  22.206 -0.0112 -0.0708 -0.0386
10774W        W53765   6.849  28.277  14.876  0.1656  0.2086 -0.1666
10775W        W53766  32.823  16.424  19.580  0.0697 -0.2147 -0.1943
10776W        W53767  15.181  10.603  16.118 -0.0672 -0.1566  0.1921
10777W        W53768  31.605  21.529  15.330  0.0717 -0.1050 -0.1211
10778W        W53769  10.060  13.216  16.415 -0.2208 -0.2665 -0.1372
10779W        W53770  19.200  14.372  15.584  0.0780 -0.0704 -0.3173
10780W        W53771  30.941  11.348  20.187 -0.0624 -0.2501  0.1603
10781W        W53772   7.902  20.262  25.744 -0.1785 -0.1329  0.3861
10782W        W53773   3.156  12.230  24.427  0.1983  0.1078 -0.2429
10783W        W53774   5.762  32.250  29.062  0.0266  0.1074 -0.1557
10784W        W53775  30.553   9.533  21.933 -0.3553 -0.1155  0.5906
10785W        W53776  15.000  24.516  16.035 -0.1059 -0.1238  0.2589
10786W        W53777  30.930  14.533  16.024  0.1679  0.0778 -0.4979
10787W        W53778   9.760  12.036  17.965  0.2939 -0.2305 -0.2534
10788W        W53779  10.949   1.593  18.553  0.0579 -0.3602  0.1767
10789W        W53780  12.163   0.231  19.224 -0.1445  0.2830  0.1191
10790W        W53781  28.317   6.560  17.502  0.0663 -0.1507 -0.0104
10791W        W53782  11.635  21.206  14.620  0.0386  0.5300  0.0352
10792W        W53783  16.508  27.286  18.439  0.1444  0.0379 -0.2484
10793W        W53784  10.984  18.869  18.796 -0.0019 -0.0735  0.0956
10794W        W53785  15.113   4.349   1.391 -0.0666 -0.0196 -0.5789
10795W        W53786  29.344  27.146  20.981  0.0203  0.2441  0.1448
10796W        W53787  19.506  14.482  14.705 -0.1125  0.1462  0.0749
10797W        W53788  13.150  11.868  17.399  0.0071 -0.1757 -0.2938
10798W        W53789  22.437  24.354  16.541  0.0039  0.0239 -0.0604
10799W        W53790   5.885  15.457  22.692  0.0087 -0.0442  0.1845
10800W        W53791  18.026  27.973  19.500  0.0216  0.3250 -0.2332
10801W        W53792   3.652  10.537  17.333  0.2778  0.0856  0.1138
10802W        W53793  21.363  25.254  19.528 -0.1011 -0.2077  0.0073
10803W        W53794  33.057  16.209  25.801  0.1107 -0.0891 -0.0815
10804W        W53795  18.168  22.819  18.785  0.0217  0.0239  0.2746
10805W        W53796  33.436   3.072  22.267 -0.0985 -0.0757  0.2936
10806W        W53797   6.245  23.103  17.823 -0.0769 -0.0748 -0.1050
10807W        W53798   6.424  26.965  14.584  0.1957  0.0300 -0.1241
10808W        W53799  22.317  15.766  15.260  0.0415  0.1310  0.0021
10809W        W53800  31.533   9.402  17.022 -0.2812 -0.0512 -0.0730
10810W        W53801  19.281  33.800  14.066  0.1022  0.0651  0.0707
10811W        W53802  22.648   0.577   5.700  0.1646 -0.0821  0.2310
10812W        W53803   8.134  15.392  20.494  0.0670  0.1371  0.0024
10813W        W53804  10.480  23.171  16.835 -0.3282  0.2013 -0.2735
10814W        W53805  21.216   7.105   7.044  0.1513 -0.2082 -0.0586
10815W        W53806  27.562  30.923  13.763 -0.1263 -0.2572 -0.1532
10816W        W53807  10.289  25.707  14.563  0.1924  0.0818 -0.1295
10817W        W53808   2.976   6.603  19.732  0.4020 -0.0188 -0.0482
10818W        W53809  24.226  29.630  15.535 -0.2306 -0.0362 -0.1844
10819W        W53810  30.849  14.963  15.696 -0.1122  0.3112 -0.2824
10820W        W53811  27.591   5.862   2.531  0.0362  0.1696  0.0831
10821W        W53812  24.003  14.499  22.317 -0.1233 -0.1230  0.0463
10822W        W53813  29.502   3.896  18.393 -0.0993 -0.2285  0.1148
10823W        W53814  11.162  13.644  17.679 -0.4007 -0.0375  0.1151
10824W        W53815   4.678  14.730  24.490 -0.1502 -0.0445  0.0275
10825W        W53816  18.459   9.992  18.652  0.1833  0.2480  0.0030
10826W        W53817   1.133  13.626  20.083  0.0423  0.0274  0.1264
10827W        W53818  27.773  24.399  20.301  0.3556 -0.1445 -0.0640
10828W        W53819  17.852  13.262   3.761  0.1325  0.0996 -0.1066
10829W        W53820   1.666  28.765  13.322 -0.4310  0.3926  0.1627
10830W        W53821   1.608  22.146  24.350  0.0172 -0.0098  0.5139
10831W        W53822  33.171  20.483   1.812 -0.3366 -0.0123  0.0901
10832W        W53823  34.705  13.220  18.390 -0.1625 -0.0713  0.3610
10833W        W53824  33.780   7.153  21.207 -0.0467 -0.2050 -0.1150
10834W        W53825  31.805  26.221  16.194 -0.0229  0.2496  0.0733
10835W        W53826   9.102   9.265  19.247  0.0345 -0.1700 -0.0074
10836W        W53827  33.793  29.235  26.796  0.2922 -0.0978 -0.0736
10837W        W53828  14.192  15.160  22.604 -0.0977 -0.2692  0.3808
10838W        W53829  18.681  12.050  14.075 -0.1591  0.0405  0.0388
10839W        W53830   1.060   7.190  16.277 -0.3011 -0.1192 -0.0444
10840W        W53831  26.771  15.747   6.089  0.2573 -0.0513  0.0575
10841W        W53832  31.368  16.789  20.086  0.1440  0.2682  0.0560
10842W        W53833  29.883  17.366  15.458  0.0581 -0.0313 -0.2211
10843W        W53834  32.505  17.420  16.437 -0.0270  0.5418 -0.2309
10844W        W53835  15.745   4.664  22.323 -0.1688  0.1227  0.2986
10845W        W53836  24.161  26.223  16.964 -0.1490  0.0570 -0.2399
10846W        W53837   8.372  16.284  18.839  0.1101  0.3978 -0.0682
10847W        W53838   8.553  16.689  18.477  0.1104  0.1451 -0.0834
10848W        W53839  15.870   6.349   2.106  0.1144  0.2628  0.0287
10849W        W53840  32.919  13.955  23.591 -0.1595  0.1459 -0.1267
10850W        W53841  20.645   5.769  17.342 -0.0277  0.1512 -0.0610
10851W        W53842  28.266  25.695  17.518  0.1269 -0.1505  0.4699
10852W        W53843  28.144  18.697  23.565  0.3358 -0.1576  0.0835
10853W        W53844  28.402  13.709  22.549  0.0116 -0.1080  0.0158
10854W        W53845   3.931   7.908  17.247 -0.0448 -0.0437 -0.1288
10855W        W53846  29.620  16.382  15.615 -0.0602  0.0754 -0.0913
10856W        W53847  27.706  34.560  17.831  0.2235  0.0984 -0.1845
10857W        W53848  24.152   3.956  17.413 -0.0663 -0.4257 -0.1809
10858W        W53849   9.432  15.688   0.472  0.4207 -0.2980  0.1228
10859W        W53850  33.073   4.206  24.551 -0.1252  0.1710  0.0110
10860W        W53851  14.774  16.086  15.475  0.3128  0.2100  0.2822
10861W        W53852   1.275  25.473  16.512  0.0862  0.2180  0.0111
10862W        W53853  30.473  13.679  25.040  0.1088 -0.0083  0.2993
10863W        W53854   6.295  17.655  27.037 -0.1698 -0.2179 -0.0049
10864W        W53855  14.172  23.253  20.983 -0.1425 -0.1209  0.1715
10865W        W53856  13.442   4.600  17.726 -0.2512 -0.1513 -0.2092
10866W        W53857  29.492  16.421  16.957 -0.3704  0.1332 -0.0577
10867W        W53858  14.017  12.733  16.459 -0.1065 -0.2322  0.3632
10868W        W53859   0.609  12.521  27.191 -0.0290 -0.2399  0.3933
10869W        W53860  16.148   2.785  15.198  0.5070  0.0625  0.1683
10870W        W53861   1.578  20.231  25.471  0.3812  0.1557  0.3323
10871W        W53862  30.073  27.306  14.623  0.1061  0.2725  0.0671
10872W        W53863  25.748   1.404  23.363  0.0358 -0.1099  0.0416
10873W        W53864  12.617  14.580  21.635  0.1799 -0.2565  0.1676
10874W        W53865  34.420  21.519  15.789 -0.1962  0.1324 -0.3459
10875W        W53866  27.933  17.828  18.475  0.0527 -0.0067  0.0172
10876W        W53867  34.755  16.582  21.980 -0.1279 -0.1084 -0.0584
10877W        W53868  22.904  27.943  15.179  0.1985  0.0485 -0.1736
10878W        W53869  10.055  19.917  18.997  0.1492 -0.0087 -0.3041
10879W        W53870   9.087  19.563  24.522  0.2102 -0.1441  0.0101
10880W        W53871   5.302   8.041  17.166 -0.2238 -0.3262  0.0296
10881W        W53872  32.265  20.512  17.516  0.0031 -0.1793  0.1312
10882W        W53873   7.789  23.940   1.812 -0.0034 -0.3491  0.1669
10883W        W53874  28.705  10.950  14.544 -0.1225  0.2592 -0.1014
10884W        W53875  18.312  11.564  15.713 -0.0600  0.3193 -0.0978
10885W        W53876   3.612   4.474  20.845 -0.5896  0.0827 -0.1369
10886W        W53877  22.219  25.721  22.066 -0.1428 -0.1193 -0.5495
10887W        W53878  29.677   8.921  16.268  0.0010  0.1155 -0.3686
10888W        W53879   8.711   9.584  25.076 -0.1846  0.1157 -0.0430
10889W        W53880  27.069   3.082  18.620 -0.0773 -0.2200  0.2544
10890W        W53881   4.860  16.884  23.145  0.3114 -0.0577 -0.1341
10891W        W53882  12.940  34.084  19.375 -0.0549  0.1398  0.1180
10892W        W53883  10.633   0.290  26.535  0.0636 -0.3408 -0.0484
10893W        W53884   6.185   4.620   2.992 -0.0306 -0.1978 -0.0843
10894W        W53885   0.649  22.451  17.018 -0.2171 -0.2281  0.0684
10895W        W53886  12.598   5.861  20.688 -0.2376  0.0450  0.1227
10896W        W53887   3.212  12.965  15.987 -0.0956  0.2937  0.0849
10897W        W53888   0.673  34.173  14.422 -0.2572 -0.1123  0.0537
10898W        W53889   0.151   7.466  26.362  0.1176 -0.0082  0.1653
10899W        W53890   4.852  10.955  23.896 -0.0411 -0.3346  0.2436
10900W        W53891  29.249  32.156  17.515 -0.1482 -0.1817 -0.1807
10901W        W53892  16.660   9.648  14.541  0.4007  0.1461  0.0844
10902W        W53893  27.314  27.953   8.878  0.0857  0.2288 -0.0140
10903W        W53894  25.047   2.586  20.383 -0.3963  0.0209  0.0595
10904W        W53895   1.416   4.174  17.949  0.0187 -0.2760  0.2395
10905W        W53896  10.887  22.345  19.440 -0.3345 -0.1414  0.1438
10906W        W53897  22.276  23.963  14.422 -0.2089 -0.2408  0.1071
10907W        W53898   1.970  17.249  16.039 -0.0178 -0.2617 -0.0771
10908W        W53899  23.007  16.942  22.903  0.0631  0.2227  0.3047
10909W        W53900  23.419   7.506  14.035  0.0463  0.0840 -0.1189
10910W        W53901  28.203  18.123  27.704 -0.0973  0.3012 -0.1608
10911W        W53902   2.669   0.713  19.198 -0.1789 -0.1473  0.1215
10912W        W53903  16.551  10.507  13.701 -0.1255 -0.2416  0.3183
10913W        W53904  31.912   8.309  28.370  0.3267  0.1863  0.2288
10914W        W53905  30.094  26.750  23.179  0.2124  0.1999 -0.0593
10915W        W53906  12.245   2.382  16.587 -0.1101  0.0345 -0.0180
10916W        W53907  13.555  19.188  27.882 -0.0454 -0.3046  0.2620
10917W        W53908   4.251  10.849  21.051  0.0935  0.5551  0.1996
10918W        W53909   6.232   1.073  28.073 -0.2587 -0.1148  0.0474
10919W        W53910   8.383  33.416  19.456  0.1637 -0.4503  0.3710
10920W        W53911  30.982   9.366  27.777 -0.4551  0.2240 -0.0348
10921W        W53912   5.760  17.997  11.470  0.1584  0.0713 -0.0720
10922W        W53913  10.284  16.384  25.859 -0.0328  0.5752 -0.3788
10923W        W53914  31.403   2.461  21.905  0.0854  0.3032  0.1737
10924W        W53915  26.514  25.279  13.519  0.6600 -0.2131  0.0781
10925W        W53916  20.095   0.723   2.925  0.1945 -0.0035  0.1515
10926W        W53917   8.236  12.381  15.857 -0.1591  0.1989 -0.0449
10927W        W53918   9.230   8.664  14.903  0.1041  0.1216  0.1389
10928W        W53919  20.381  16.784  29.139  0.0248  0.2150  0.1051
10929W        W53920   8.093   6.756  16.053  0.0428 -0.5037 -0.0933
10930W        W53921   6.728  23.357   1.674  0.0641 -0.1674 -0.2500
10931W        W53922  33.828  24.664  19.552 -0.2466  0.1546 -0.0093
10932W        W53923  19.195   7.146   3.270  0.0524  0.0082  0.4541
10933W        W53924   6.209  23.747  15.410 -0.0510  0.1193  0.1566
10934W        W53925  33.024   8.308  20.600 -0.0068  0.2854 -0.1633
10935W        W53926   2.100  16.227  18.792 -0.0844  0.1333  0.1238
10936W        W53927   8.115  24.715  16.931 -0.4561  0.2252 -0.0315
10937W        W53928  30.079  27.969  18.676 -0.0844  0.3134 -0.2792
10938W        W53929  26.202   8.119  24.609  0.2068  0.1358  0.1206
10939W        W53930   6.691  16.064   4.994  0.0538  0.2367  0.2879
10940W        W53931  20.872   0.886  15.125 -0.1313  0.0095  0.1977
10941W        W53932  21.184  16.117  19.079 -0.1155 -0.2330 -0.0141
10942W        W53933  26.682  19.575  10.129 -0.1274  0.0886  0.1064
10943W        W53934  26.981  14.755   2.599  0.1707  0.1091  0.1447
10944W        W53935  14.301  13.415  24.582 -0.1137  0.0373  0.0570
10945W        W53936  25.547  16.976  17.130  0.0586 -0.1778  0.0181
10946W        W53937  32.491  28.306  13.081  0.0608  0.2963 -0.1745
10947W        W53938   2.954  24.455  21.947  0.1745 -0.1803 -0.1516
10948W        W53939  12.757  26.287   1.771  0.0730  0.0998 -0.0749
10949W        W53940   7.666  16.461  18.003  0.1002 -0.1149  0.3246
10950W        W53941   3.248  11.264  20.658 -0.3040 -0.0047 -0.1983
10951W        W53942   1.379   2.006  23.185  0.1276  0.1420  0.3367
10952W        W53943  16.809   6.485  20.233  0.1101  0.0091 -0.0691
10953W        W53944  22.737   6.759   4.520 -0.1154  0.1933  0.1449
10954W        W53945  28.846  24.555  16.443 -0.0860 -0.3134  0.0017
10955W        W53946   6.199  18.719   0.298 -0.3401  0.1011  0.0356
10956W        W53947  28.327  20.698  20.854  0.0236 -0.1017 -0.1963
10957W        W53948   0.194   8.743  28.651  0.1802  0.0118  0.2104
10958W        W53949  11.705  28.086  16.454  0.0806 -0.2713 -0.1013
10959W        W53950   8.300   7.987  20.869 -0.1590  0.0910 -0.0604
10960W        W53951  29.421   3.928   2.278 -0.0375 -0.4432 -0.4901
10961W        W53952   2.339   7.304  24.846 -0.0388  0.0898  0.1363
10962W        W53953  14.893  12.531  14.491  0.1172  0.2137 -0.5152
10963W        W53954   5.633   4.994  15.853 -0.0171 -0.1569  0.0363
10964W        W53955   2.260  12.463  19.377 -0.1414 -0.2325  0.1942
10965W        W53956  29.073  29.991  20.664 -0.3060 -0.2117  0.0575
10966W        W53957   6.563  34.130  23.659 -0.2955 -0.2276 -0.1744
10967W        W53958  22.618   7.399  26.881 -0.1139  0.1147 -0.2469
10968W        W53959   4.586   6.182   1.313  0.0054  0.1652 -0.1334
10969W        W53960  21.323   9.937  18.374 -0.0716 -0.1096 -0.0909
10970W        W53961  29.873   0.354  17.736  0.2584  0.0783  0.0248
10971W        W53962  31.977  24.728  20.456  0.0670  0.0236  0.0672
10972W        W53963  33.519   3.737   8.603 -0.0855  0.4238 -0.0022
10973W        W53964  11.729  14.567  18.873  0.0866 -0.0324 -0.0001
10974W        W53965  33.744  17.274   9.712 -0.0070 -0.0315 -0.0016
10975W        W53966   9.259  12.708   0.259 -0.2882 -0.1207 -0.1728
10976W        W53967  11.298  27.437  14.924  0.2812  0.0854  0.1711
10977W        W53968   9.705  34.442  18.318 -0.2147  0.1648 -0.0729
10978W        W53969   3.484   9.555  18.612 -0.2551  0.4572  0.1706
10979W        W53970  33.656  16.164  16.108  0.2239 -0.3914  0.2228
10980W        W53971  11.626   6.404  27.142  0.1390 -0.1423  0.4138
10981W        W53972   6.815   5.932  18.666 -0.1479  0.1134  0.1022
10982W        W53973  22.652   7.027  15.292  0.1205 -0.1552  0.2868
10983W        W53974  33.268  21.251  26.152 -0.1780 -0.1286  0.3046
10984W        W53975  26.991  23.238  24.995 -0.0022  0.0397  0.0444
10985W        W53976   4.141  17.380  17.088 -0.1672  0.3052 -0.2852
10986W        W53977  31.173  29.334  21.485  0.0540  0.2623 -0.1272
10987W        W53978  29.407   2.237  19.983  0.1662 -0.0294 -0.1175
10988W        W53979  30.796  19.189  16.386  0.1103 -0.0499 -0.1967
10989W        W53980  28.756  17.500  16.924  0.1558  0.1173 -0.2484
10990W        W53981   0.248   9.939  17.857  0.1278 -0.0192 -0.1372
10991W        W53982  22.872   6.980  13.846  0.2683 -0.0109  0.1500
10992W        W53983  12.338   9.021  20.880 -0.3161  0.0222  0.0831
10993W        W53984  15.831  11.660  18.244 -0.1224  0.3197 -0.0051
10994W        W53985  21.690  28.120  25.800  0.2161  0.1607  0.0734
10995W        W53986   1.876   8.644   7.609  0.0631  0.3309 -0.2091
10996W        W53987  27.581  18.424  24.225 -0.1613  0.1669 -0.0503
10997W        W53988  33.005  29.805  21.558  0.2803 -0.1171  0.3523
10998W        W53989   1.991  10.522  19.236 -0.1529 -0.2716 -0.2121
10999W        W53990  29.264   4.331  18.717  0.1238  0.0107 -0.0631
11000W        W53991  23.913  24.361  12.920  0.0897  0.0230 -0.0015
11001W        W53992  31.725  26.819  20.041  0.1013 -0.1920 -0.0116
11002W        W53993   4.237  24.244  21.963 -0.1980 -0.2438 -0.0744
11003W        W53994  33.035  16.742  22.540  0.0971 -0.1434 -0.1686
11004W        W53995   8.184  25.412  10.414  0.0774  0.0702  0.0938
11005W        W53996   0.471  20.971   8.355  0.0055  0.0308  0.1316
11006W        W53997   3.911  12.373  27.406 -0.4346 -0.0972  0.0895
11007W        W53998  29.597  34.272  22.637  0.4310  0.1205 -0.1078
11008W        W53999   7.302  13.920   5.140 -0.0326 -0.0627  0.0527
11009W        W54000   8.320  32.386  17.365  0.4576 -0.0169  0.2043
11010W        W54001   8.163  12.099  21.973  0.0251 -0.0000  0.0991
11011W        W54002  21.280   6.738  16.351 -0.2090 -0.1691  0.0979
11012W        W54003   2.146   4.875  18.432 -0.1482  0.0069  0.0325
11013W        W54004  10.368  19.959  14.931 -0.0162 -0.0558 -0.1904
11014W        W54005  10.232  10.325  15.923 -0.0613  0.0137  0.1881
11015W        W54006   2.527  18.508  18.972  0.5154 -0.2183  0.0704
11016W        W54007  19.735  18.068  16.502 -0.6693 -0.0525  0.1896
11017W        W54008  22.989  13.857  21.575 -0.2151 -0.4082  0.5619
11018W        W54009  19.674  11.371  16.119 -0.0015  0.0228 -0.0460
11019W        W54010  34.459  25.459   1.791 -0.1270  0.0839 -0.1184
11020W        W54011   3.203   6.508  18.013  0.2650  0.0488 -0.2516
11021W        W54012   1.589  12.607  24.369 -0.0578 -0.1695 -0.0384
11022W        W54013  31.537   9.671  21.223 -0.0639  0.1567  0.0056
11023W        W54014   1.596  28.431   3.740 -0.1775  0.2710 -0.0234
11024W        W54015  32.934  13.569  22.061 -0.0513 -0.0623  0.0090
11025W        W54016   8.950  24.210  24.067  0.0769  0.1495 -0.2968
11026W        W54017  30.261  10.873  20.776  0.1675  0.0099 -0.0211
11027W        W54018  30.593  34.564  27.484  0.0383 -0.2492 -0.0153
11028W        W54019  29.679  33.904  21.403  0.0037 -0.0952 -0.0179
11029W        W54020  14.600   7.396  16.253  0.2805 -0.3484 -0.0081
11030W        W54021  33.986  21.225  24.970 -0.2603 -0.0392 -0.0634
11031W        W54022   1.114  13.772  28.027 -0.3594  0.0920  0.0990
11032W        W54023   2.932  29.053  23.859  0.1463  0.1268  0.0342
11033W        W54024  29.633  17.492  28.609  0.1158  0.4048 -0.0299
11034W        W54025   4.445  16.190  17.269 -0.0327  0.0127  0.2717
11035W        W54026  26.740   7.408  24.726  0.2802  0.2371  0.0679
11036W        W54027  22.634  15.123  20.072 -0.2262 -0.0275  0.1429
11037W        W54028   2.223  21.236  21.449  0.0779  0.0593 -0.1993
11038W        W54029  19.491   2.688  17.809 -0.1075 -0.1240  0.0075
11039W        W54030  31.923  12.597  17.466  0.2291  0.0426  0.2668
11040W        W54031  18.451  30.168  15.945 -0.1003  0.1856 -0.0675
11041W        W54032   4.657  17.578  28.465 -0.2445 -0.0882  0.2998
11042W        W54033   5.971  11.511  18.200  0.0534 -0.1172  0.1119
11043W        W54034   3.598  17.350   4.485 -0.0825  0.0093 -0.2732
11044W        W54035  32.022   2.968  17.048  0.0722 -0.1247  0.0930
11045W        W54036  19.337  18.151  12.500  0.0471  0.1851  0.0071
11046W        W54037  21.289  15.195  17.011 -0.0503 -0.0881 -0.0716
11047W        W54038  32.013  23.275  25.382  0.0615 -0.0693  0.0264
11048W        W54039  29.403  25.832  18.724 -0.1951 -0.0185  0.1264
11049W        W54040  33.986  16.232  17.555 -0.1104 -0.0411  0.1016
11050W        W54041   1.332  13.302  15.902  0.1343 -0.2466  0.3355
11051W        W54042   4.993  11.944  25.661  0.0078  0.0326 -0.1865
11052W        W54043  33.448   9.447  26.897  0.3236 -0.0159 -0.2705
11053W        W54044  11.452  20.889  18.499 -0.1872  0.3247  0.0360
11054W        W54045   6.438  24.303  16.225 -0.0330 -0.0524 -0.0134
11055W        W54046  29.998   9.184  18.690 -0.0375  0.2376  0.2327
11056W        W54047   1.630  20.338  28.614  0.0465  0.2001  0.2450
11057W        W54048  27.603  24.794  13.602 -0.1102 -0.1496 -0.2466
11058W        W54049  17.022  12.858  14.066 -0.2549  0.2726 -0.2855
11059W        W54050   8.338  27.342  17.126  0.0145  0.2284  0.1662
11060W        W54051  24.909  18.587  14.377  0.0189 -0.2964  0.0486
11061W        W54052  26.520  31.788  16.357  0.0146  0.0802  0.1888
11062W        W54053  18.053  20.453   7.294 -0.2276  0.2046 -0.0129
11063W        W54054  24.730   2.725  22.400 -0.0886 -0.0637 -0.0137
11064W        W54055   4.122  18.005  19.067  0.0936  0.2033  0.1281
11065W        W54056   3.599   9.783   3.448 -0.1093 -0.0669  0.2105
11066W        W54057  28.747  25.509  25.422  0.1708  0.1981  0.0468
11067W        W54058  17.974  10.773  18.719 -0.0449  0.0488  0.1120
11068W        W54059  31.247  17.637  24.231  0.1502  0.0892 -0.1011
11069W        W54060   5.118  19.685  16.006  0.0474 -0.1758  0.1652
11070W        W54061  30.219  16.017  17.819 -0.1856 -0.0937 -0.1515
11071W        W54062  31.414  12.775  19.277  0.2911  0.2272  0.1427
11072W        W54063  31.686  10.272  26.919  0.1049  0.1377  0.4070
11073W        W54064  13.697  11.858  20.135 -0.0074  0.0244  0.1635
11074W        W54065   9.845  25.478  19.070  0.1086 -0.3718 -0.0625
11075W        W54066  27.973  13.572  22.019 -0.0042  0.3418 -0.3465
11076W        W54067   7.188  15.414  15.845  0.1464 -0.0120 -0.2052
11077W        W54068  33.266  20.113  28.380 -0.0897 -0.2772  0.0563
11078W        W54069  31.889  24.208  24.611 -0.0560 -0.0470  0.0012
11079W        W54070  15.631  28.971   8.434 -0.0397 -0.3536 -0.3685
11080W        W54071  31.478  12.110  22.772  0.2458 -0.1152 -0.3833
11081W        W54072  12.464  33.868  20.712  0.0386 -0.3551  0.0803
11082W        W54073  29.355  13.204   1.719 -0.1194  0.0254 -0.2453
11083W        W54074  28.554  12.176   5.173  0.0991 -0.0209 -0.1604
11084W        W54075  32.925   4.045  15.870  0.1059  0.1017 -0.0143
11085W        W54076   9.711  18.396  17.583  0.0495  0.1955 -0.1555
11086W        W54077  33.378  14.638  15.657 -0.3406 -0.1661  0.2300
11087W        W54078   6.871  18.716  20.760 -0.0265  0.3269 -0.0628
11088W        W54079  28.552  32.346  26.732 -0.1860  0.1429  0.0633
11089W        W54080  25.993  20.379  17.504 -0.0344  0.1405 -0.3440
11090W        W54081  33.519   6.983  18.307 -0.2401  0.1781 -0.1771
11091W        W54082  27.199   8.756  16.923 -0.1980 -0.0006 -0.0355
11092W        W54083   1.598  31.930  26.409  0.1257 -0.0822 -0.2895
11093W        W54084   1.420  11.970  20.500 -0.0832  0.0669 -0.1459
11094W        W54085  15.625  13.962   9.300 -0.1661  0.1183  0.3957
11095W        W54086   5.046  19.116  23.813  0.0573 -0.0429  0.0691
11096W        W54087   3.501  22.808  26.956  0.1724  0.2028  0.1507
11097W        W54088  29.831  14.734  20.772 -0.2740  0.0533  0.0246
11098W        W54089  34.458   9.195  27.804 -0.3710 -0.0897 -0.1783
11099W        W54090   1.056  15.554  25.758  0.3596 -0.0402  0.0065
11100W        W54091   2.468  14.471  21.682 -0.2865  0.0268  0.1287
11101W        W54092   9.205  29.453   5.540 -0.3280  0.0977 -0.1492
11102W        W54093   5.987  10.068  18.122 -0.1097 -0.0325  0.2063
11103W        W54094  30.653  14.849   2.618  0.1576  0.0024  0.1020
11104W        W54095  25.565   7.892  24.685 -0.0942 -0.0788  0.0743
11105W        W54096  29.256  24.417  16.850 -0.0051  0.1667 -0.2112
11106W        W54097  15.566  27.583  20.040 -0.0629 -0.0653 -0.0098
11107W        W54098   0.403   2.208  20.571  0.0308 -0.1662  0.2102
11108W        W54099   5.215  32.946  23.978 -0.2650 -0.0914  0.0499
11109W        W54100  24.674  12.443   4.536  0.2950  0.0065  0.1158
11110W        W54101  34.131  20.284  20.463 -0.2708 -0.3114  0.1130
11111W        W54102  24.623  34.710  24.000  0.1814  0.1924 -0.1943
11112W        W54103   3.788  25.187  19.439  0.0761 -0.0682 -0.2971
11113W        W54104  27.739  33.928  19.353 -0.2712 -0.1045  0.0779
11114W        W54105   5.994  28.119  15.123 -0.1867  0.2266  0.0452
11115W        W54106   1.133   4.546  16.153  0.2513  0.0366 -0.1929
11116W        W54107  31.235  22.243  20.071 -0.1014 -0.1120  0.0553
11117W        W54108  34.769  30.357   2.446 -0.1383  0.1631  0.1188
11118W        W54109   6.824  16.792  24.369  0.0975  0.1635 -0.1988
11119W        W54110  27.378  23.479  17.555 -0.1114 -0.0009 -0.0212
11120W        W54111   5.413  19.640   3.385  0.1148 -0.2310  0.1144
11121W        W54112   9.066  24.395  23.629  0.2336  0.0393  0.2104
11122W        W54113   0.387  10.127   1.726 -0.0501  0.3699  0.5452
11123W        W54114   3.259  13.883  21.647  0.1249 -0.2359  0.1660
11124W        W54115  32.923  22.028   0.208 -0.2035  0.0411 -0.0517
11125W        W54116   4.660  19.614  19.792  0.4576  0.0937 -0.1132
11126W        W54117   9.901  12.572  27.372 -0.1724 -0.0229  0.0076
11127W        W54118  32.838  25.405  24.050 -0.1219 -0.0649  0.2048
11128W        W54119  12.676  12.835  23.094  0.0901  0.0581  0.0803
11129W        W54120   7.279  33.883   2.801  0.2881 -0.0786 -0.2166
11130W        W54121  25.663  34.651  23.868 -0.0411 -0.2533  0.0541
11131W        W54122  18.053  22.643  18.311 -0.0891  0.2445 -0.2583
11132W        W54123   5.982  12.277  17.714 -0.0573  0.3480  0.4850
11133W        W54124  25.914  22.141  26.054 -0.0790  0.2171  0.0125
11134W        W54125  14.880  22.729   0.961 -0.3572  0.1830 -0.0027
11135W        W54126   0.049  17.358  19.897 -0.1305  0.0175  0.4015
11136W        W54127   3.905  31.183  18.988  0.0758 -0.0186 -0.0449
11137W        W54128   2.685  11.992  17.609  0.1163 -0.1366  0.0257
11138W        W54129   4.657  10.491  16.389 -0.1019 -0.2542 -0.1568
11139W        W54130  21.578  16.811  27.451 -0.1453 -0.0329  0.0006
11140W        W54131  33.674   2.267  19.002 -0.1878  0.0682 -0.2890
11141W        W54132  10.327  17.243  19.102  0.0125  0.0503 -0.0561
11142W        W54133  17.370  23.124  22.278  0.0084  0.1780 -0.1412
11143W        W54134   4.528  32.211  24.121  0.0359  0.1414 -0.2004
11144W        W54135  23.579  34.619  19.613  0.0116  0.0876 -0.1154
11145W        W54136  27.915  13.277  28.277 -0.1156  0.0563  0.1479
11146W        W54137  10.615   9.721  18.263 -0.1836 -0.1796 -0.0073
11147W        W54138   0.671  16.520  21.822 -0.1950 -0.0367 -0.0663
11148W        W54139  18.611   8.736  18.296  0.1040 -0.3054 -0.3487
11149W        W54140  27.612   2.085   1.246 -0.2516 -0.0437 -0.1487
11150W        W54141  26.206   5.090  14.503  0.1522  0.1524 -0.2206
11151W        W54142  26.415  11.726  14.275  0.1285  0.1200 -0.3093
11152W        W54143   7.230  23.264   1.510 -0.0017  0.0490 -0.0571
11153W        W54144   7.235  11.036   3.345  0.1520 -0.0536 -0.2890
11154W        W54145  33.052   1.389  15.679 -0.0208 -0.0928 -0.1792
11155W        W54146   6.921  10.517   4.995 -0.1643 -0.1871  0.1531
11156W        W54147   6.663  16.806   7.601 -0.1002  0.3323  0.0541
11157W        W54148   5.806   7.229   2.204 -0.2534 -0.0450 -0.1471
11158W        W54149  27.209   2.482  15.240  0.0012  0.0147 -0.1683
11159W        W54150   1.128  22.254  26.227 -0.1022 -0.1197  0.2518
11160W        W54151  30.428  10.783  19.707 -0.1189  0.1229 -0.1143
11161W        W54152   5.969  12.478  16.710 -0.3957 -0.1602 -0.2502
11162W        W54153  31.434  10.865  27.637  0.0788 -0.0302 -0.3314
11163W        W54154   1.051  17.413   2.010 -0.2148 -0.0591  0.0537
11164W        W54155   0.626  16.645  19.452 -0.0377 -0.1728  0.4369
11165W        W54156  12.168  25.867  26.751 -0.0640  0.1734  0.0301
11166W        W54157  31.484  16.924  19.622  0.2726  0.0674 -0.1693
11167W        W54158   0.582   4.329  16.802  0.1463 -0.2730 -0.1198
11168W        W54159  10.866  30.081   1.761 -0.4005  0.2132  0.2901
11169W        W54160  18.178  20.953  17.811  0.0013  0.0826 -0.1875
11170W        W54161  14.709   0.650  28.224 -0.1121 -0.1376 -0.1915
11171W        W54162   2.751   7.104  16.500 -0.4889  0.1084 -0.0921
11172W        W54163   4.287  14.131  20.234 -0.1385 -0.0591  0.0850
11173W        W54164  30.477   6.382  22.128 -0.2719 -0.3217 -0.2286
11174W        W54165  21.201   5.416  14.558  0.3035 -0.2986  0.2108
11175W        W54166  22.912  16.972  19.249 -0.1175 -0.2561  0.0126
11176W        W54167   1.071  30.778   4.187 -0.2433  0.1850  0.0207
11177W        W54168  26.466  27.536   7.813  0.1398 -0.0151  0.0408
11178W        W54169   3.253  11.832  19.300 -0.2054  0.1031 -0.0622
11179W        W54170  22.777  23.539  21.023 -0.1043  0.1335  0.1759
11180W        W54171  21.484  28.760  15.789 -0.1601  0.0882 -0.0575
11181W        W54172   4.692  24.112   4.444  0.1394  0.1640 -0.2399
11182W        W54173   9.631   7.858  14.776  0.1408  0.0427  0.1609
11183W        W54174   7.321  10.256  24.603 -0.3315  0.0031 -0.2552
11184W        W54175   5.022  20.689  19.183 -0.0545  0.2621  0.0095
11185W        W54176  25.693   9.973  18.072 -0.3991 -0.0900 -0.0601
11186W        W54177   9.086   5.680  19.879  0.0451  0.0633 -0.0366
11187W        W54178  14.240   8.116  16.702 -0.1403 -0.1827  0.1976
11188W        W54179  10.141  32.854  25.967  0.1719  0.0177  0.1514
11189W        W54180  15.764  18.872   2.072  0.0848  0.1703 -0.2166
11190W        W54181   0.291   1.238  21.230  0.2527 -0.1137 -0.2334
11191W        W54182  27.062  25.904  16.490  0.0453 -0.0820 -0.1941
11192W        W54183   2.460  34.440  14.881  0.1401  0.1491 -0.0899
11193W        W54184  17.904   9.534   0.567  0.0599  0.1046 -0.3641
11194W        W54185  34.764  32.252  26.296  0.2717  0.1505 -0.1501
11195W        W54186  25.857  12.532  26.087 -0.0223 -0.1601 -0.1267
11196W        W54187  33.980  12.544  18.094 -0.0256 -0.0743  0.2253
11197W        W54188   5.205  10.665  20.554  0.3613  0.0646  0.0186
11198W        W54189   4.307  31.236  21.252 -0.2699  0.0787 -0.0226
11199W        W54190  10.349  13.529  18.749 -0.3310  0.1308  0.0583
11200W        W54191   6.890  22.838  23.623  0.1470 -0.1111 -0.0462
11201W        W54192   7.848  15.894  24.258 -0.0429 -0.2433  0.1327
11202W        W54193  13.480  34.499  22.810  0.1799 -0.2143 -0.2351
11203W        W54194  30.111  22.308  22.147  0.0519 -0.1158  0.0633
11204W        W54195  13.407  25.075  17.314 -0.3132 -0.0435  0.0170
11205W        W54196   7.653   9.624  25.069  0.0477 -0.0394  0.1030
11206W        W54197   7.436  15.382  27.335 -0.1559 -0.2414  0.2025
11207W        W54198   2.918   9.160  25.152  0.1846  0.2953  0.0078
11208W        W54199   4.623  12.867   8.924 -0.1036 -0.2061 -0.0967
11209W        W54200  29.326   9.251  27.978 -0.0766 -0.1523  0.5518
11210W        W54201  10.481  20.124  17.724 -0.1566  0.1016 -0.1851
11211W        W54202  27.623  23.335  14.990 -0.0981 -0.4209 -0.1252
11212W        W54203   0.860   2.502   1.058  0.3319 -0.2588  0.0699
11213W        W54204  34.751   0.657   2.455 -0.1430 -0.0329 -0.2263
11214W        W54205  20.463  22.077  19.176 -0.3005 -0.2208 -0.3118
11215W        W54206  26.128  19.393  26.303  0.1692  0.1116 -0.0994
11216W        W54207  21.603   4.540  15.414  0.0218  0.1237  0.0986
11217W        W54208   0.415  12.360  18.571  0.0592 -0.0352  0.0625
11218W        W54209  30.328  19.008  21.164  0.2038  0.0607 -0.1581
11219W        W54210  18.131  33.694  16.599 -0.0874 -0.0420  0.2841
11220W        W54211   1.124  11.619   5.243  0.1869  0.3325  0.0656
11221W        W54212   3.530  29.560   2.396 -0.0778  0.0665 -0.2422
11222W        W54213   1.723  28.646  17.401 -0.0859 -0.2580  0.1747
11223W        W54214  10.730  20.619  16.095 -0.0752 -0.0787  0.0672
11224W        W54215  34.019  15.005   7.935 -0.2580 -0.1060  0.0823
11225W        W54216  19.491   8.861  14.194  0.2252  0.1904  0.0901
11226W        W54217   8.184  12.846  23.487 -0.0021  0.0395  0.0297
11227W        W54218   0.387  23.389  21.805 -0.0560 -0.0965  0.1423
11228W        W54219  14.926  20.227  20.217 -0.0878  0.2866 -0.1883
11229W        W54220  11.055  22.290  17.079  0.0158 -0.0262 -0.0009
11230W        W54221   8.764  21.504  16.417  0.1535 -0.0511 -0.1782
11231W        W54222   8.594  18.199  27.241  0.1196  0.0529  0.0795
11232W        W54223  25.661   4.053  17.050 -0.0547 -0.1746  0.3454
11233W        W54224   7.493   4.949   7.454 -0.0894 -0.2142  0.1152
11234W        W54225  29.348   5.251  24.841 -0.1682  0.0365  0.0294
11235W        W54226  33.014  16.697  20.852  0.0151 -0.4663 -0.0835
11236W        W54227  19.129  19.989  24.577 -0.0857  0.2755 -0.1142
11237W        W54228  29.564   1.098  28.242 -0.2859  0.0553  0.0876
11238W        W54229  26.824  27.684  23.666 -0.1664  0.1769 -0.1155
11239W        W54230  28.402  19.223  15.472  0.2716 -0.1498  0.0330
11240W        W54231  11.635   8.206  28.484  0.3507  0.0523 -0.0030
11241W        W54232   8.339  22.447   2.260  0.1114  0.1352 -0.0132
11242W        W54233  32.496  13.869  17.118  0.3362 -0.0906  0.1487
11243W        W54234  34.068  13.503  26.949 -0.2031  0.0520  0.1319
11244W        W54235  22.222   2.300  26.351  0.0415  0.0228  0.0623
11245W        W54236  25.560  12.078  23.205  0.0934  0.3342  0.0351
11246W        W54237  27.840  18.216  15.295 -0.1581 -0.1261  0.0694
11247W        W54238  12.645   1.782   1.843 -0.0825 -0.4393 -0.0160
11248W        W54239  29.833  30.957  18.533  0.1499  0.1335  0.1838
11249W        W54240  22.606  13.097  17.947  0.0056  0.1144  0.0831
11250W        W54241  31.987  30.045   3.332 -0.0166 -0.1282 -0.3318
11251W        W54242  33.844  18.026  25.980  0.2174  0.2099  0.0925
11252W        W54243   7.325  28.875  23.782  0.1800  0.2234  0.0705
11253W        W54244  23.655  32.181  26.998 -0.2104  0.2170  0.0142
11254W        W54245  21.828   0.908  18.670 -0.2625  0.1173  0.0722
11255W        W54246  11.646  11.196  24.880 -0.0638 -0.1624  0.0907
11256W        W54247  11.376  15.522  20.620  0.1077  0.0772  0.1973
11257W        W54248  25.883  10.727  21.471 -0.0861  0.1709  0.2201
11258W        W54249  33.690  24.717   8.344  0.3130 -0.0061  0.0169
11259W        W54250  30.276   0.153  21.541  0.3479 -0.0703 -0.3909
11260W        W54251  18.690  27.984   8.201 -0.3900  0.0025 -0.3286
11261W        W54252   7.295  14.316  18.233 -0.2335 -0.1058 -0.1438
11262W        W54253  31.362  18.214  19.776 -0.0468 -0.1189 -0.2412
11263W        W54254  27.433  26.420  19.402  0.0678  0.0165  0.4116
11264W        W54255  13.024   9.667  20.729 -0.0552 -0.3019 -0.0436
11265W        W54256  29.739  12.208   1.844 -0.0365 -0.1067 -0.1340
11266W        W54257  31.947  17.743  21.311 -0.3689  0.1565  0.0969
11267W        W54258  32.599  27.603  18.280 -0.0377  0.0470 -0.3844
11268W        W54259   1.331  23.954  21.430  0.3663 -0.1054 -0.0223
11269W        W54260  20.323  26.415  17.196 -0.0148 -0.0408 -0.0918
11270W        W54261   3.590  25.487   4.701  0.0755 -0.0579 -0.0950
11271W        W54262   2.388  28.921  18.295 -0.1695  0.0615 -0.4523
11272W        W54263   5.704   9.614  15.039  0.1025 -0.0853 -0.0562
11273W        W54264  18.732   9.712  23.011 -0.1513 -0.3676 -0.1523
11274W        W54265   2.368  12.709   5.732  0.2255 -0.0937  0.0527
11275W        W54266  33.594   9.523   4.365 -0.3346  0.2247  0.1095
11276W        W54267  22.671  19.849  24.846 -0.0875  0.2677 -0.1656
11277W        W54268  33.223  19.728  16.486  0.0227  0.0569  0.0630
11278W        W54269  14.142  14.736  26.616 -0.1801  0.0274  0.0220
11279W        W54270   6.531  20.627   5.834  0.0675  0.1996  0.2310
11280W        W54271  28.845  14.957  28.220  0.2859 -0.1658  0.1412
11281W        W54272  12.799   8.763  27.818  0.4431 -0.0826 -0.2245
11282W        W54273  34.727  29.867   3.509 -0.1379 -0.1339 -0.2078
11283W        W54274  29.217  25.390  22.334  0.0919  0.0498 -0.1114
11284W        W54275   9.909   9.900  18.184  0.1058  0.0425 -0.0490
11285W        W54276  26.182  21.557  15.569  0.0493 -0.3427  0.1707
11286W        W54277   0.751   2.153  16.257 -0.2312 -0.3518 -0.1568
11287W        W54278  18.796   6.773  22.984 -0.2327 -0.1180 -0.1024
11288W        W54279  13.609   5.462  17.195 -0.0950 -0.1380 -0.0446
11289W        W54280  10.527   5.059   4.650 -0.0790 -0.1616  0.1868
11290W        W54281   2.574  22.820  16.224  0.0298 -0.0398  0.1437
11291W        W54282   5.144  15.110  17.502 -0.2166 -0.2071  0.1353
11292W        W54283  33.406  25.506   2.408  0.0090 -0.0027 -0.0470
11293W        W54284  12.320  11.446  26.719  0.0674 -0.1139 -0.2999
11294W        W54285   6.984   0.308  22.763  0.0532  0.0390  0.1486
11295W        W54286  19.382   4.621  23.076  0.2557 -0.4798  0.0766
11296W        W54287  31.251   9.976  20.791 -0.2890  0.0997  0.1027
11297W        W54288  15.970   0.302  14.704  0.0062  0.0929 -0.0065
11298W        W54289   8.558  24.049   2.382  0.0055  0.1545 -0.1304
11299W        W54290  10.033   6.906  28.442  0.0250 -0.2510  0.1367
11300W        W54291  26.968  14.634  23.660 -0.0122  0.4517 -0.4005
11301W        W54292  29.427   4.004  23.165  0.0944  0.1545 -0.2512
11302W        W54293   4.696  33.973   0.439 -0.0313  0.2315  0.1981
11303W        W54294  33.067   9.712   7.878  0.1095  0.1096 -0.3005
11304W        W54295  23.809  17.051  19.204  0.1502 -0.3104  0.0426
11305W        W54296  24.854   3.767  16.204 -0.0072  0.1152  0.1595
11306W        W54297  17.584  22.059  19.735  0.1099 -0.0711  0.2964
11307W        W54298   1.061   4.248  14.432 -0.1148 -0.0993 -0.1180
11308W        W54299  32.317  14.005   4.251 -0.5508  0.2278 -0.0765
11309W        W54300  29.777  21.584  20.675  0.0263 -0.0001 -0.0101
11310W        W54301  33.151   3.150  22.852 -0.1649 -0.1197  0.3974
11311W        W54302   5.536  20.636  16.873  0.5156 -0.1400  0.2150
11312W        W54303   3.354  11.092  15.611  0.0669 -0.3796  0.0073
11313W        W54304  30.080  11.684  20.023  0.0887 -0.2689 -0.1258
11314W        W54305   4.328   4.919  25.740 -0.3833 -0.0471  0.0052
11315W        W54306  26.661  17.039  14.110  0.0211 -0.0580  0.0316
11316W        W54307  14.720   6.265  24.494 -0.0453 -0.0368  0.2022
11317W        W54308   1.554  29.026  23.594 -0.3954 -0.0827 -0.0338
11318W        W54309  13.247   9.100  16.244 -0.2043  0.0180 -0.2780
11319W        W54310  30.994  28.426  15.697  0.1243  0.0044  0.0237
11320W        W54311   5.820  10.195  18.885  0.1613  0.1047  0.0756
11321W        W54312  15.673  16.422  14.015 -0.0034  0.0473 -0.0792
11322W        W54313   5.159  20.048  17.966 -0.1973  0.4703 -0.3220
11323W        W54314   8.793  12.887  24.292  0.0521  0.3577  0.1450
11324W        W54315  15.211   8.025  22.724 -0.0541  0.1658 -0.0057
11325W        W54316   7.442  12.604  17.386 -0.2181 -0.0548  0.0222
11326W        W54317   5.789  14.948  17.528  0.1015  0.1103 -0.3402
11327W        W54318  23.846  17.895  14.605 -0.2170  0.2213  0.3597
11328W        W54319   0.221   0.425  24.856 -0.0230 -0.1906 -0.2832
11329W        W54320  21.292   1.567  25.927  0.0233  0.1388  0.1643
11330W        W54321   0.069   5.627  26.391  0.0987  0.0677 -0.2569
11331W        W54322  19.333  24.878  15.832  0.1125  0.0320 -0.1434
11332W        W54323   4.308  20.756  26.242 -0.1571 -0.1232 -0.2224
11333W        W54324  18.711  19.288  27.896 -0.1774 -0.2068 -0.0543
11334W        W54325  11.059  26.673  14.939  0.1988  0.3023  0.3144
11335W        W54326   3.780   2.694  23.113 -0.0736  0.4470  0.2250
11336W        W54327  32.576  32.820   7.647  0.0990  0.1031 -0.1104
11337W        W54328   7.537  20.213   2.285 -0.2621 -0.1599 -0.1112
11338W        W54329  28.482   6.866   0.738  0.3035  0.0087  0.1203
11339W        W54330  17.375  25.631   2.164 -0.1044  0.1446  0.2325
11340W        W54331  10.852  11.470  18.147 -0.1167 -0.0377  0.0405
11341W        W54332  28.669  20.836  23.037  0.0270  0.2503  0.2398
11342W        W54333  24.839  10.449  18.603  0.0005  0.1594  0.2627
11343W        W54334   3.109  11.541  15.479 -0.0053 -0.2239 -0.1720
11344W        W54335   3.430  23.475  13.902  0.0347 -0.1161  0.2627
11345W        W54336  32.537  34.609   2.112  0.0416 -0.1811 -0.1692
11346W        W54337  32.037  16.550  25.615  0.1272 -0.1796 -0.3128
11347W        W54338  18.429  26.831  16.419 -0.0542 -0.2062  0.1708
11348W        W54339  32.471  30.565  18.219  0.0452 -0.5720  0.1837
11349W        W54340  31.292  18.971  22.650 -0.1909 -0.2772 -0.0739
11350W        W54341   3.819  14.675  23.820 -0.0880 -0.2117  0.2821
11351W        W54342   2.510  18.018  18.870  0.1696  0.1679  0.1012
11352W        W54343  28.633  16.055  18.151  0.0388  0.1099  0.0333
11353W        W54344  32.655  20.463  25.972  0.1496  0.2029 -0.0404
11354W        W54345   4.458   5.990  27.084  0.2083 -0.3369 -0.2559
11355W        W54346   9.525  30.577  26.553  0.2036 -0.0082 -0.0139
11356W        W54347   0.197  25.488  20.015  0.3274  0.0525  0.0164
11357W        W54348  13.495  19.136  23.197  0.0396  0.4014 -0.2615
11358W        W54349  16.716  26.722  27.520  0.1572  0.0213  0.3602
11359W        W54350  33.676  24.659   0.113  0.1707 -0.1264 -0.4992
11360W        W54351   3.116   7.415  16.229  0.2579  0.0756 -0.0688
11361W        W54352  19.026  21.576  22.614  0.2978  0.1447 -0.2229
11362W        W54353   4.107  31.017  23.576  0.3347 -0.2363  0.3201
11363W        W54354  31.805  21.061  16.510  0.1231  0.0087  0.1404
11364W        W54355  19.287  27.435  18.179 -0.2752 -0.0572 -0.0672
11365W        W54356  33.223  16.896  26.367 -0.2694  0.1086  0.0969
11366W        W54357  30.141  18.922  23.176  0.0751 -0.0112  0.3451
11367W        W54358   3.921  32.517  15.827  0.0586 -0.2243  0.1500
11368W        W54359   9.716  13.452  16.786 -0.1374  0.0385 -0.1638
11369W        W54360   7.561  33.474  16.189 -0.0058 -0.1329 -0.2972
11370W        W54361  13.904  33.457  18.913 -0.0839 -0.3333 -0.2412
11371W        W54362  21.444  14.796  21.815  0.1036  0.0302  0.0019
11372W        W54363  21.812   6.503  21.698  0.1617 -0.0272 -0.2012
11373W        W54364  10.557  14.456   7.895  0.0547  0.0149  0.0940
11374W        W54365   4.937  16.623  22.637 -0.1554  0.1154  0.2097
11375W        W54366   4.756  21.724   5.227  0.0223  0.2033 -0.1441
11376W        W54367   8.255  18.560   0.407  0.2692  0.1380 -0.2476
11377W        W54368  31.588  24.198  16.219  0.0490 -0.1508 -0.0439
11378W        W54369  27.214  18.292   5.342 -0.0074  0.0028 -0.0884
11379W        W54370   9.375  11.652  27.140  0.1714  0.0925  0.1120
11380W        W54371  21.773  25.022   9.222  0.1456  0.0224  0.1467
11381W        W54372   7.720   3.670   4.340  0.0802 -0.2345 -0.2624
11382W        W54373   3.621  29.613  21.016  0.1478 -0.0228 -0.0220
11383W        W54374   7.194   3.391   7.866 -0.0661 -0.1235 -0.0790
11384W        W54375   0.045  25.367  18.455  0.0022 -0.2340 -0.1270
11385W        W54376   4.286  24.347  22.868  0.1469 -0.0463 -0.0505
11386W        W54377  30.200  14.105  22.924  0.0100  0.0400  0.1682
11387W        W54378  20.756  27.285  16.549  0.1924 -0.3899  0.2436
11388W        W54379  26.505  28.631  21.299  0.2312  0.0195  0.2614
11389W        W54380   6.070   6.219  19.184 -0.0748 -0.2728  0.0679
11390W        W54381  30.589   8.951  14.425 -0.1833 -0.0640  0.1290
11391W        W54382   0.293  11.444  18.876  0.0597  0.0500  0.0750
11392W        W54383  14.258  13.327  24.006  0.3843  0.1132 -0.0551
11393W        W54384  33.022  28.162  15.326 -0.0532 -0.1927  0.0977
11394W        W54385   1.682  18.489  22.142  0.2380 -0.0976 -0.0492
11395W        W54386   0.933  16.624  23.602 -0.0181  0.2565 -0.1427
11396W        W54387   3.031  14.474  16.769 -0.2913  0.2706  0.1440
11397W        W54388  32.292   7.201   7.829  0.2673 -0.0867 -0.0443
11398W        W54389  34.371  11.516  23.296  0.1121  0.1663  0.2029
11399W        W54390  33.127  20.778  15.420  0.2129  0.1168  0.2040
11400W        W54391  15.949  29.699  25.316  0.0015 -0.1807 -0.0533
11401W        W54392   7.711  10.844   2.831 -0.2302 -0.4489  0.0069
11402W        W54393   7.513  18.726   8.341  0.1215 -0.0070 -0.0741
11403W        W54394  28.958  14.637  15.521 -0.1095 -0.3355  0.2855
11404W        W54395  26.176  15.651  26.030  0.2681 -0.2561  0.1197
11405W        W54396   5.531  15.263  20.380 -0.1784  0.0693  0.0785
11406W        W54397  29.715  29.909  19.518 -0.0066  0.0481 -0.0944
11407W        W54398  30.078  14.078  27.100  0.1324  0.5734 -0.1201
11408W        W54399  13.621   2.249   0.423 -0.3455  0.2741  0.1423
11409W        W54400  23.613  21.104  21.503 -0.1917 -0.1488 -0.3917
11410W        W54401  28.605  17.298   9.004 -0.1168 -0.3557  0.0351
11411W        W54402   8.114  22.738  15.061 -0.0610 -0.2178  0.1003
11412W        W54403  34.437  30.245  18.810  0.0626  0.3091  0.1859
11413W        W54404  11.712  21.842  24.244 -0.1354  0.0510 -0.3952
11414W        W54405  17.166   3.432  17.862  0.0114  0.4605 -0.0790
11415W        W54406   0.282  32.771   1.888  0.1481  0.0688  0.1617
11416W        W54407  23.480  29.428  24.746  0.0074 -0.0269  0.3155
11417W        W54408   8.109  11.283  19.350  0.3245 -0.1436 -0.1212
11418W        W54409  31.203  10.551  21.964  0.0316  0.0713 -0.4483
11419W        W54410  29.541  18.025  26.770 -0.0807  0.0804 -0.2272
11420W        W54411  30.293   7.286  22.954  0.3709 -0.0794 -0.3507
11421W        W54412  29.963   0.230  28.511 -0.1273  0.0923  0.0686
11422W        W54413  32.913  13.975  27.582  0.3851  0.1205  0.3397
11423W        W54414  31.928  20.342  22.528  0.1051  0.0990  0.0702
11424W        W54415   6.935  23.711   1.366  0.4155  0.0030  0.1187
11425W        W54416  30.989   9.465  17.125 -0.3367  0.1811  0.0924
11426W        W54417  31.093  12.837   8.049  0.1965  0.0950  0.0237
11427W        W54418  15.352  28.543  16.418 -0.1817  0.0703 -0.1465
11428W        W54419   7.743  16.593   2.325 -0.1969  0.2542 -0.0292
11429W        W54420   0.097  10.214   0.257 -0.1295 -0.1090  0.0070
11430W        W54421   8.278  25.731  24.600  0.0182  0.1382  0.1748
11431W        W54422  30.052  16.862  22.113 -0.0056 -0.0744 -0.2665
11432W        W54423   5.153  22.875  18.761  0.3917 -0.0876 -0.1796
11433W        W54424   7.637   2.542   9.001  0.3578  0.0251  0.0169
11434W        W54425   0.835  33.173  21.039  0.0142  0.1802 -0.3178
11435W        W54426  26.553  24.196  20.398  0.3787  0.3065 -0.1587
11436W        W54427   0.562  14.104  17.331  0.0601 -0.0519  0.0810
11437W        W54428  32.233   8.192  17.577 -0.1649  0.0284  0.1361
11438W        W54429  20.094   9.865  24.290 -0.0160  0.2587 -0.0940
11439W        W54430  30.665   5.877   1.707 -0.1244 -0.1296  0.2138
11440W        W54431   8.836   9.624  15.439 -0.3909  0.1532 -0.3599
11441W        W54432  12.136   8.344  22.351  0.1112  0.0196 -0.1765
11442W        W54433  30.086  19.847  19.958 -0.2215 -0.1589  0.2333
11443W        W54434  32.432  24.000  22.136 -0.1613  0.0817 -0.3184
11444W        W54435  32.828   0.477   6.438  0.1817  0.0014 -0.0281
11445W        W54436  13.727   0.250   8.380  0.2793 -0.1551  0.0229
11446W        W54437   9.307  16.203   2.412 -0.3254 -0.0950  0.0344
11447W        W54438  10.741   2.954   8.994 -0.1502  0.2580 -0.0791
11448W        W54439   8.627  27.196  24.971  0.2242 -0.2897  0.3553
11449W        W54440  33.538  18.889  21.515 -0.3236  0.1380 -0.1302
11450W        W54441   8.001   4.278   5.244 -0.2151  0.0297  0.1703
11451W        W54442  30.763  15.612  24.095  0.0649 -0.1314  0.1157
11452W        W54443   4.086  20.822  15.136  0.1208 -0.1416 -0.1268
11453W        W54444   8.509   9.680  28.879 -0.1838  0.0011  0.3380
11454W        W54445   9.676  18.951  25.582 -0.0808 -0.1553  0.0184
11455W        W54446   7.167  13.251  21.025  0.0813  0.0266  0.0709
11456W        W54447  26.648  13.382   1.426  0.2125  0.0365 -0.2034
11457W        W54448   1.206  31.987   1.685 -0.2782 -0.2621 -0.0120
11458W        W54449   6.146  14.537   3.180  0.1518  0.0341  0.2817
11459W        W54450  28.901  14.226  20.615  0.0964 -0.1820  0.1782
11460W        W54451   8.866   5.453  23.743 -0.0008  0.0744  0.3741
11461W        W54452   7.793  21.065  18.332  0.2033  0.3838 -0.2790
11462W        W54453  20.482  12.053  14.235  0.0974  0.4013  0.2036
11463W        W54454   5.619   7.087  19.531  0.1514 -0.0254  0.0016
11464W        W54455  22.500  23.598  19.125 -0.1056  0.0443 -0.2234
11465W        W54456  31.707   3.737  15.008  0.0974 -0.0708 -0.1642
11466W        W54457  26.382  22.357  10.008  0.3766  0.2872 -0.2631
11467W        W54458  31.352  10.362  14.683 -0.0780 -0.0144  0.0529
11468W        W54459  25.432  11.009  26.453 -0.0831 -0.1245  0.1587
11469W        W54460   5.193  17.137  25.948 -0.0375 -0.1034  0.0811
11470W        W54461  14.907  17.149   4.078  0.1718  0.0327  0.1131
11471W        W54462   0.127  23.170  25.882 -0.1970 -0.1807 -0.0666
11472W        W54463  28.944   1.397  16.131  0.2344 -0.0341  0.3618
11473W        W54464  14.468  23.769  25.599  0.3564  0.4300  0.3349
11474W        W54465   3.327   4.986   0.480  0.0236  0.0548 -0.2071
11475W        W54466   3.060  24.531   9.326 -0.1217 -0.1079  0.2788
11476W        W54467  18.860  23.242  14.205 -0.0299 -0.1563  0.0484
11477W        W54468  18.848  33.850   2.838  0.2258 -0.2327 -0.2659
11478W        W54469   3.531  13.395  18.505  0.0341 -0.0488  0.1515
11479W        W54470   3.959  27.738  28.451 -0.1364 -0.0657 -0.2404
11480W        W54471  34.468  32.996  21.589 -0.1591  0.1408  0.1264
11481W        W54472  12.429  24.031  21.073 -0.5144 -0.1266  0.1387
11482W        W54473  25.656  32.060   0.704  0.1187 -0.1368  0.1314
11483W        W54474  32.627   4.245   3.015  0.0101 -0.0614  0.1747
11484W        W54475  30.445   7.309   1.770 -0.4241  0.3721  0.2684
11485W        W54476  23.961   0.943  17.465  0.0633  0.0201 -0.0707
11486W        W54477  25.235  19.544  21.479  0.0043  0.1182  0.1272
11487W        W54478  24.512  15.285  18.700  0.0476 -0.3636 -0.0491
11488W        W54479  28.451  13.158  23.782  0.0372  0.3382 -0.1247
11489W        W54480  17.932  13.003  16.594 -0.0308 -0.1833  0.0417
11490W        W54481  16.508  17.854   8.626 -0.0126 -0.2094  0.0601
11491W        W54482  17.146  28.360  26.826 -0.2457 -0.1096 -0.1724
11492W        W54483   0.719  26.125  16.190 -0.2469  0.1289  0.1037
11493W        W54484  25.778   4.565  25.863 -0.2582 -0.0728  0.1934
11494W        W54485   9.452  30.004  21.536  0.0415 -0.1272  0.1550
11495W        W54486  30.120  32.810  20.463 -0.3948  0.0943 -0.3299
11496W        W54487  30.340  28.013  19.849 -0.3979 -0.0196  0.4341
11497W        W54488   2.863  14.003   1.124 -0.2210 -0.1804  0.1447
11498W        W54489  29.008  21.863  17.507  0.0864  0.0902 -0.0303
11499W        W54490  23.078  13.364  20.128 -0.0608  0.1433 -0.1152
11500W        W54491  13.344  15.360   1.868 -0.0625 -0.4892  0.1037
11501W        W54492  25.597   6.191  17.114 -0.0486  0.0521  0.2222
11502W        W54493   0.860  21.341   0.257 -0.1420 -0.0127  0.0714
11503W        W54494  11.026  25.650  28.702  0.1623  0.1193 -0.1181
11504W        W54495   8.293  18.559   1.478 -0.2628 -0.1981 -0.3423
11505W        W54496   7.037  14.667  15.832  0.0103  0.0106 -0.1080
11506W        W54497  25.978  18.862  17.000 -0.3207 -0.3235  0.2054
11507W        W54498   7.193  23.441  15.719 -0.1769 -0.0162 -0.2192
11508W        W54499  11.793  15.786  26.382  0.0284 -0.1665  0.1981
11509W        W54500   3.959  20.139  11.345 -0.2018  0.1565  0.0786
11510W        W54501   8.323  17.557  27.241 -0.1241 -0.2188  0.1034
11511W        W54502   4.964  26.585  24.910 -0.2271 -0.3828  0.1042
11512W        W54503  11.593  23.094  25.570 -0.1277  0.0603 -0.3238
11513W        W54504  28.466   9.349   7.808 -0.0219 -0.0414  0.2957
11514W        W54505  11.032  18.939  23.717  0.1607 -0.1189  0.0952
11515W        W54506  34.199   9.112  29.125  0.1384 -0.0187  0.2378
11516W        W54507  14.489  26.556  26.663  0.0282 -0.0452 -0.1555
11517W        W54508  34.428   7.802  22.290 -0.3167 -0.0214  0.0563
11518W        W54509  29.345  21.488  18.478 -0.1597 -0.4321  0.0510
11519W        W54510  11.066  17.311  15.524 -0.0046  0.2388  0.1738
11520W        W54511   2.890  14.296   3.550 -0.1112  0.1021  0.0938
11521W        W54512   0.059   1.614   3.931 -0.1536  0.2326 -0.1572
11522W        W54513  22.135  20.446  23.036  0.2199  0.0210  0.1022
11523W        W54514  28.247  11.479  22.624 -0.3136 -0.1505 -0.0753
11524W        W54515  12.651   2.910  22.946  0.0371 -0.0516  0.0043
11525W        W54516  29.430   7.768   8.274  0.3470 -0.1274 -0.0420
11526W        W54517   1.103  14.229   0.615 -0.3138  0.1366 -0.0089
11527W        W54518  27.908  19.475  26.866 -0.0850  0.3795  0.3106
11528W        W54519   7.486  25.773  21.654  0.0097  0.0418 -0.0750
11529W        W54520   1.457  10.171   8.196  0.0161  0.0886 -0.1762
11530W        W54521  20.158  33.881   6.864  0.0093  0.1170 -0.1804
11531W        W54522  31.535  16.965  16.033  0.1116 -0.2866  0.0601
11532W        W54523  33.186  12.350  19.345 -0.0232 -0.0622  0.0253
11533W        W54524   4.328   0.492  26.603 -0.2405 -0.0025  0.4626
11534W        W54525   8.928   3.280  28.466 -0.2164 -0.0614 -0.2247
11535W        W54526  21.984   1.090  25.987 -0.1217  0.1093  0.0448
11536W        W54527   2.647  13.871   3.711 -0.1270  0.2630 -0.2394
11537W        W54528  12.592  23.620  17.595 -0.2359 -0.1872  0.1435
11538W        W54529  25.470  25.242  16.908 -0.1250 -0.1352 -0.2410
11539W        W54530   5.989   9.471  27.219  0.0544  0.1529 -0.0007
11540W        W54531  13.878  13.668  28.644 -0.1706  0.1057  0.4650
11541W        W54532   8.397   6.514   7.451 -0.1380 -0.0541 -0.1276
11542W        W54533  29.888  14.390  24.984 -0.0271 -0.2339  0.1696
11543W        W54534  13.844  26.177  15.081 -0.0508  0.0947  0.0638
11544W        W54535  32.105  14.183  18.676  0.1550  0.2655 -0.1012
11545W        W54536  33.963  21.372  21.982  0.2284  0.1014 -0.1907
11546W        W54537  32.026  20.295  15.006  0.1365  0.0034  0.0721
11547W        W54538  27.088  15.978   1.979  0.1255 -0.2958  0.4998
11548W        W54539  34.483   5.221  15.263  0.0801  0.2204 -0.3598
11549W        W54540  13.627  14.307  18.246  0.6458 -0.2404  0.2149
11550W        W54541  28.450  20.324  21.167  0.1251 -0.2076  0.0512
11551W        W54542   0.854  12.967  11.910 -0.0592  0.1494 -0.0128
11552W        W54543  14.280  12.979  21.361  0.1720 -0.1381  0.1867
11553W        W54544   5.628  31.369  25.423  0.1002  0.2874  0.0057
11554W        W54545  34.352  27.871  23.501 -0.2656  0.4041 -0.1030
11555W        W54546  12.505  13.368   7.785  0.2592  0.1230  0.4096
11556W        W54547  11.869  10.641  21.904 -0.1115 -0.0326 -0.0183
11557W        W54548  30.679  26.990  27.361  0.1141  0.1443 -0.1503
11558W        W54549  14.305  19.261  12.972  0.0545  0.4791 -0.2101
11559W        W54550  32.713  13.801  28.871 -0.3679  0.1539  0.0162
11560W        W54551  31.810   8.888  24.332  0.0253  0.1058  0.1405
11561W        W54552  25.500  34.547   0.686  0.2882 -0.1795  0.0104
11562W        W54553  25.349  33.874  27.820 -0.0149  0.0778  0.2037
11563W        W54554  20.247   9.643   1.791  0.0328 -0.3900  0.4729
11564W        W54555  31.792  11.240  18.776 -0.1105 -0.1883  0.3284
11565W        W54556   8.145  19.351  26.726 -0.2915  0.1257 -0.0108
11566W        W54557   2.721   0.680  25.778  0.2532 -0.1194 -0.0163
11567W        W54558   5.733   8.119   2.204  0.2697 -0.0645  0.1014
11568W        W54559  34.216  17.223   4.750 -0.4877  0.1167 -0.0609
11569W        W54560  21.259  28.573   1.140 -0.3128  0.2609 -0.1683
11570W        W54561  23.484   8.999   1.287 -0.2614 -0.0050 -0.2801
11571W        W54562  20.903  10.064  21.400 -0.0996 -0.3778  0.1678
11572W        W54563  25.258  22.535  23.515 -0.1887 -0.1103  0.4533
11573W        W54564  31.346  26.036  13.909 -0.0957  0.2107  0.0952
11574W        W54565   0.811  11.584   5.880  0.1586 -0.1161  0.0054
11575W        W54566  29.478  21.624  17.417  0.1172 -0.0431  0.4531
11576W        W54567  32.436  17.173  15.981 -0.0243  0.0278  0.2066
11577W        W54568  16.059  20.892  22.364 -0.1347  0.2794  0.0886
11578W        W54569   0.471  20.714  20.922  0.0700  0.1286  0.1147
11579W        W54570   5.384   6.891  28.600 -0.1281 -0.3505 -0.0783
11580W        W54571   7.852  20.973   0.373 -0.0767 -0.2197 -0.1175
11581W        W54572   3.996  34.411  10.472  0.3181 -0.0295  0.1552
11582W        W54573   3.224  15.287  22.560  0.0445  0.1662 -0.0149
11583W        W54574  31.057  30.675   5.546  0.0679  0.3014 -0.0378
11584W        W54575  33.062  22.452  15.758  0.2440 -0.1190 -0.0369
11585W        W54576  17.075   4.321  25.959 -0.1704 -0.0224 -0.0906
11586W        W54577   3.683  31.897  13.575 -0.0283  0.1309  0.1978
11587W        W54578   7.009  13.968   4.516  0.2685  0.2201  0.0565
11588W        W54579  23.561  29.616  27.800 -0.1397 -0.0270 -0.2035
11589W        W54580  34.086  11.238  28.305  0.0679  0.0115 -0.0725
11590W        W54581   8.924   0.821  17.200  0.3029  0.0372 -0.0325
11591W        W54582  22.103  15.267   6.767 -0.0353 -0.0196  0.2127
11592W        W54583  27.407  11.190  19.901  0.2837  0.1554  0.0609
11593W        W54584  33.693   7.475  25.053  0.0350  0.1515  0.2559
11594W        W54585  25.086  33.461  13.396 -0.0326  0.1013  0.0169
11595W        W54586  21.403  30.574  15.297  0.1172  0.0247  0.0511
11596W        W54587  21.988  15.112  27.869  0.0601 -0.2937  0.2756
11597W        W54588  25.242  20.012  18.646  0.1608  0.3315  0.0447
11598W        W54589  11.939  32.435  27.522  0.1308  0.3392 -0.0591
11599W        W54590  14.649  24.521   4.201 -0.1453 -0.0384 -0.1309
11600W        W54591  21.968  11.609  16.064  0.1836 -0.1766  0.5818
11601W        W54592  32.296  20.987  16.731  0.2125  0.1561 -0.1979
11602W        W54593   4.770   9.378  28.773 -0.0478 -0.3586  0.0659
11603W        W54594  30.189  12.725  19.365 -0.2331 -0.0058 -0.2812
11604W        W54595  12.533  26.396  17.521  0.0532 -0.0047 -0.1716
11605W        W54596  32.681  12.981   0.241  0.4150  0.0254  0.1229
11606W        W54597   2.673  13.113   0.768  0.2445  0.1524  0.1917
11607W        W54598  15.648  11.058  25.573 -0.0542 -0.0349  0.1640
11608W        W54599   7.770  11.752  22.324  0.1015  0.1908 -0.1201
11609W        W54600   3.665   2.343  27.144 -0.0859 -0.1712  0.6549
11610W        W54601  31.387  28.003   8.632 -0.2281  0.0965  0.0186
11611W        W54602  33.395  25.607  19.359 -0.0406  0.3034  0.0436
11612W        W54603  20.179  15.355  26.128  0.0867  0.1758  0.2683
11613W        W54604  31.002   8.316   8.154 -0.2461  0.1091  0.0803
11614W        W54605   4.153  10.577  20.591 -0.3403  0.0432 -0.1654
11615W        W54606  13.876  20.505   2.127  0.1356 -0.2383  0.2939
11616W        W54607   7.292   6.062  21.169 -0.1829 -0.3140  0.4678
11617W        W54608   3.171   3.820   2.598 -0.1076  0.1224  0.1683
11618W        W54609  18.834  32.372  18.839  0.0640 -0.2811 -0.1000
11619W        W54610   7.899  22.857  18.006 -0.4952 -0.1822 -0.2883
11620W        W54611  18.582  20.812  14.602  0.2534  0.0200  0.2859
11621W        W54612  28.350   4.656  22.856 -0.0366 -0.3466 -0.1227
11622W        W54613  10.808   9.425  16.635 -0.1563  0.0591  0.0271
11623W        W54614  33.664  23.386   1.994  0.1593 -0.1327 -0.3465
11624W        W54615   9.629  28.390  16.258 -0.3965 -0.1200 -0.0751
11625W        W54616   4.828  19.255  25.910  0.0270 -0.0649 -0.0504
11626W        W54617   7.635  19.125  25.553 -0.1251 -0.0210  0.0736
11627W        W54618   4.393  14.357  27.992  0.1364 -0.1275 -0.0012
11628W        W54619   0.296   3.558  22.699  0.1357 -0.3079 -0.1914
11629W        W54620  21.994  21.942  20.918 -0.1879 -0.0339 -0.0361
11630W        W54621  31.889  22.154  28.184  0.0031  0.0830 -0.3689
11631W        W54622  14.595  24.924  23.247  0.2826  0.0127  0.1782
11632W        W54623   4.685  15.519  25.522 -0.1537  0.0988 -0.0648
11633W        W54624   7.858  18.517  16.680 -0.1098  0.5594  0.2236
11634W        W54625  33.709  20.313  18.222  0.4114 -0.2156 -0.2201
11635W        W54626  23.168  10.490   9.574  0.0472  0.1597  0.0609
11636W        W54627  28.669  33.602   7.053  0.3740  0.1646  0.1392
11637W        W54628  16.673  26.360   8.650  0.0361 -0.0985  0.1794
11638W        W54629   7.324  16.434   7.688  0.0374 -0.4218  0.0331
11639W        W54630  31.924  31.284  23.481 -0.1262  0.1301 -0.1506
11640W        W54631  34.007   3.740  21.734  0.0610 -0.1167  0.1935
11641W        W54632   8.703  34.498  20.544  0.4940 -0.0980  0.0091
11642W        W54633   2.962  30.874  25.209  0.1950 -0.3469  0.3545
11643W        W54634   1.986  28.076  19.087 -0.0036 -0.1652 -0.0050
11644W        W54635  19.278  30.380  13.548  0.1298 -0.0754  0.1484
11645W        W54636   9.982   2.812  21.103  0.3756  0.3851  0.2319
11646W        W54637   4.694  32.633   7.438 -0.0408  0.1095  0.4590
11647W        W54638  21.417  13.765  14.852 -0.0264 -0.1823 -0.0049
11648W        W54639  26.212  25.273  18.310 -0.0054  0.0694 -0.1219
11649W        W54640   1.616   3.620  21.792 -0.1209  0.2729 -0.0725
11650W        W54641  26.464  19.726  19.884  0.0655 -0.1547 -0.2248
11651W        W54642   8.136  21.607  16.297  0.1284  0.1836 -0.0258
11652W        W54643   6.966  11.120  28.968  0.0923 -0.0400  0.0775
11653W        W54644  21.086   0.953  23.441  0.1827 -0.2142 -0.1318
11654W        W54645  32.204  22.640  14.392 -0.0108  0.0477 -0.2399
11655W        W54646  22.474   4.182  16.039  0.0919 -0.4578 -0.3884
11656W        W54647  34.664  29.018  22.207  0.1106 -0.0260 -0.0404
11657W        W54648   3.939  34.429  16.367 -0.2369 -0.0763  0.1190
11658W        W54649   1.539   7.117   3.810  0.1813  0.1004  0.0088
11659W        W54650   3.817  32.950  20.545 -0.1889  0.0792 -0.1375
11660W        W54651  14.851  22.895   3.551 -0.1451 -0.1255  0.0423
11661W        W54652   9.053   5.773  17.963 -0.2161  0.0184  0.0148
11662W        W54653   2.519  29.296  17.296  0.2298  0.1415  0.0656
11663W        W54654   3.008  19.026  21.430  0.3671  0.1026 -0.0366
11664W        W54655   2.093  20.277   1.457 -0.1756  0.1105  0.1681
11665W        W54656   6.930  10.176  18.346 -0.2585  0.0044  0.0428
11666W        W54657  12.077  18.393   8.778 -0.0585 -0.1897  0.2974
11667W        W54658   2.265  13.166  24.701 -0.0510 -0.2340 -0.0306
11668W        W54659   4.106  21.508  18.225 -0.0549 -0.2478 -0.2631
11669W        W54660  27.740   9.942   3.344 -0.1047  0.0072 -0.0350
11670W        W54661  30.062  24.616  22.499  0.1635  0.0718 -0.0410
11671W        W54662   3.096  24.352  18.355  0.0985 -0.0745  0.1616
11672W        W54663  25.749  14.742  22.627 -0.1325  0.0967  0.0263
11673W        W54664  34.456  23.376  28.212 -0.1198  0.4507  0.1094
11674W        W54665  29.304  11.955   1.579 -0.2801 -0.0325 -0.2474
11675W        W54666   1.155  17.309  18.963 -0.0462 -0.2280 -0.0635
11676W        W54667  23.322  34.251  28.031 -0.1661  0.1784 -0.1532
11677W        W54668  13.408  25.031  16.587 -0.0155 -0.0929 -0.2348
11678W        W54669   4.321  14.679  23.642  0.1393  0.0697  0.1336
11679W        W54670   1.693  17.201  16.876  0.2446  0.1796 -0.4524
11680W        W54671   4.070  19.906  21.195 -0.1964  0.0537  0.0958
11681W        W54672   7.201  10.494  26.888 -0.0087  0.1893 -0.0680
11682W        W54673  10.455  22.463  17.432 -0.0754 -0.0256 -0.2228
11683W        W54674  34.673  25.716  22.901 -0.0662  0.1276 -0.0158
11684W        W54675  32.714  25.530  14.565  0.0184  0.1745  0.0422
11685W        W54676  30.600  26.792   0.537  0.0974  0.0520 -0.2017
11686W        W54677   0.091  30.666  26.493 -0.0496  0.2164 -0.1136
11687W        W54678  29.403  19.993  17.954  0.2907  0.0654  0.2467
11688W        W54679   2.471  28.552   5.977 -0.0520  0.0840 -0.0240
11689W        W54680   0.784  14.939  21.917  0.4061  0.2203 -0.0148
11690W        W54681  21.945  22.987  19.005 -0.0308  0.0243  0.3919
11691W        W54682   8.064  14.104  19.141 -0.1717 -0.1667 -0.0151
11692W        W54683  11.054  12.362  24.927 -0.0330 -0.2406  0.3619
11693W        W54684  13.066  17.377  21.170  0.0873  0.2662 -0.1529
11694W        W54685  26.463  30.491  17.302  0.4277 -0.3638  0.0817
11695W        W54686  33.827  11.359   3.073 -0.1244 -0.1396 -0.0713
11696W        W54687   1.124  11.749   4.247 -0.3512  0.2506  0.1283
11697W        W54688   4.970  15.253  23.697  0.1051 -0.2199  0.0436
11698W        W54689  29.014  20.513   4.490 -0.0193 -0.3562  0.3989
11699W        W54690   6.972   5.407   8.663  0.3752  0.2231  0.2367
11700W        W54691  31.003  21.097   1.530  0.1131 -0.0391 -0.1164
11701W        W54692   7.841   5.900  17.371  0.0596 -0.1256 -0.2534
11702W        W54693   6.616   8.230  22.047 -0.1646  0.0711  0.0444
11703W        W54694   6.659  23.327  20.837  0.1523  0.0196  0.2004
11704W        W54695   2.997  19.050  18.151  0.1316 -0.0559 -0.0004
11705W        W54696  17.193  12.258  21.353  0.1699 -0.1514 -0.2520
11706W        W54697  29.979  24.212  21.517  0.0499 -0.1102 -0.0398
11707W        W54698  25.387   4.770  24.994 -0.1537  0.2248 -0.1200
11708W        W54699   0.735  15.136   2.847  0.0930  0.1447 -0.0182
11709W        W54700   7.414  27.088  15.927  0.0702  0.0479 -0.0568
11710W        W54701  20.589   5.438   2.616 -0.4753  0.3252 -0.2419
11711W        W54702  23.503  21.945   3.999  0.2134  0.1686  0.1619
11712W        W54703   9.379   6.211  28.365 -0.1591  0.2178 -0.2515
11713W        W54704  23.790   6.421  18.894  0.0877  0.1768 -0.2504
11714W        W54705  11.192  19.371  15.790 -0.0849 -0.1805  0.3042
11715W        W54706  23.784   0.175   1.434  0.1193  0.0814 -0.0624
11716W        W54707  20.698   3.482   4.435 -0.4197  0.1351 -0.2985
11717W        W54708  27.761  16.476  20.940 -0.0310  0.1370  0.1591
11718W        W54709   8.426  23.886  16.924  0.0209  0.0917  0.3060
11719W        W54710   8.052  15.474  17.033 -0.1039 -0.1402 -0.1675
11720W        W54711  30.293  25.006  17.620 -0.0496 -0.0790  0.1149
11721W        W54712  13.663  28.473  26.118 -0.1700  0.2088 -0.1916
11722W        W54713  28.783  24.409  17.654  0.1737 -0.4861 -0.2431
11723W        W54714   9.636   1.184  22.405 -0.1171 -0.2028  0.1730
11724W        W54715   1.357  18.107  18.142  0.3084  0.0432 -0.1918
11725W        W54716  31.773  12.188  19.721 -0.3572 -0.0041  0.4083
11726W        W54717  21.237  28.112  23.081  0.0044 -0.1272 -0.1085
11727W        W54718  28.302  26.982  28.948 -0.1348  0.1622 -0.1565
11728W        W54719  30.172  16.082  25.751 -0.1892  0.0183 -0.3638
11729W        W54720  25.979  33.470  15.705  0.2827 -0.3870 -0.0107
11730W        W54721  20.274  20.329  23.185 -0.2452 -0.0355  0.1531
11731W        W54722  22.975  11.778  27.050  0.1811  0.1211 -0.0597
11732W        W54723  16.250  27.143  17.741  0.0162 -0.1083 -0.1702
11733W        W54724  15.588   6.689   5.691  0.0619 -0.2893  0.0974
11734W        W54725   7.332  13.953  26.380  0.4705  0.0426 -0.1436
11735W        W54726  32.909  10.740  28.475  0.0303 -0.2618  0.5061
11736W        W54727  10.768   2.234  25.407  0.0362 -0.3297  0.1100
11737W        W54728  13.213   0.517  10.301 -0.0466  0.2040 -0.1497
11738W        W54729   5.436  23.584  24.878  0.0503 -0.2415 -0.0325
11739W        W54730  26.780  23.376  27.182  0.0520  0.3680  0.4371
11740W        W54731  10.440  11.986   0.439 -0.1384 -0.2858 -0.0766
11741W        W54732  28.712  13.513  16.841 -0.0548 -0.1674  0.3751
11742W        W54733  23.062  21.565  26.503 -0.3763  0.0194  0.4075
11743W        W54734  11.900  33.004  28.409 -0.0811 -0.3519  0.1771
11744W        W54735  14.182   8.905  14.496 -0.2570 -0.0842  0.2782
11745W        W54736  27.223  23.225  23.654  0.1198  0.2648  0.1356
11746W        W54737   8.089   3.587  29.165 -0.3975  0.1090 -0.1428
11747W        W54738  15.683  27.102  17.073 -0.2501  0.1381  0.1942
11748W        W54739   0.107  21.986   6.853 -0.1738 -0.1527 -0.2992
11749W        W54740  28.839  27.382   0.351  0.2747 -0.1679 -0.2101
11750W        W54741  30.155   7.572  16.080  0.0132  0.2314 -0.0247
11751W        W54742  27.667  10.382  28.537 -0.0557 -0.2176 -0.1846
11752W        W54743   2.660   3.311  14.585 -0.0443  0.4732 -0.0614
11753W        W54744  16.921  27.765  24.479 -0.0735  0.1581 -0.2386
11754W        W54745   6.176   3.836  15.548  0.0636 -0.1430  0.0644
11755W        W54746  28.027  12.574  22.143 -0.1329  0.2155  0.0080
11756W        W54747  19.938  21.094  17.564 -0.1682  0.1591  0.1356
11757W        W54748   1.352  21.247  24.574  0.1599  0.3097  0.2872
11758W        W54749   5.696  14.391  25.469 -0.0358 -0.2342  0.2698
11759W        W54750  15.155  24.747  28.543 -0.3446 -0.1935  0.1078
11760W        W54751  14.739  31.129  19.985 -0.1797  0.0009  0.1570
11761W        W54752  34.471  20.257   1.934 -0.1688 -0.0693 -0.1301
11762W        W54753  26.448  14.077  25.911 -0.1877  0.3243  0.1540
11763W        W54754   1.368  20.083   8.075  0.2178 -0.1431 -0.0819
11764W        W54755   0.206  23.870  27.731 -0.1910 -0.1475 -0.5970
11765W        W54756   6.653  20.256  28.555  0.0715 -0.0781 -0.1359
11766W        W54757  10.993  24.979  19.759 -0.0707 -0.4616  0.0982
11767W        W54758   5.265  24.202   5.889 -0.0035  0.1859 -0.0320
11768W        W54759   5.240   0.098   6.429  0.1208  0.3541 -0.0624
11769W        W54760   4.175   5.706   6.840 -0.0227  0.0521 -0.3030
11770W        W54761   5.564   4.703  19.152 -0.0388  0.0250 -0.3270
11771W        W54762  28.604  13.358  23.318  0.1021  0.0379 -0.0429
11772W        W54763  27.610  14.467  20.069  0.0308 -0.0614 -0.2037
11773W        W54764   4.574  28.676   3.859  0.0597 -0.1802  0.1839
11774W        W54765  30.876  26.149   4.743 -0.1854  0.1823  0.0794
11775W        W54766   0.551  32.021  18.637 -0.1237  0.0735 -0.2705
11776W        W54767   5.348  11.230  23.041 -0.1705 -0.0164  0.0566
11777W        W54768  24.948  12.440  17.194  0.0667  0.1903 -0.2532
11778W        W54769  27.551  12.805  28.198  0.2685 -0.0423  0.0398
11779W        W54770  33.981  22.638  17.666 -0.1139 -0.0546 -0.2134
11780W        W54771   4.262  23.919  14.918  0.2401  0.0818 -0.1881
11781W        W54772  14.554   2.902  10.269 -0.3957 -0.0986 -0.0513
11782W        W54773   0.130  23.744  21.996 -0.1777 -0.0116  0.0091
11783W        W54774  17.088   7.183  16.567  0.0404 -0.2150  0.0966
11784W        W54775  24.336   7.363  25.763  0.3702 -0.1146  0.2176
11785W        W54776  31.718  23.020  28.411 -0.0475 -0.1357 -0.1307
11786W        W54777   0.720  18.519  25.992 -0.3469  0.0894  0.0526
11787W        W54778   4.281  24.501  29.176  0.1017 -0.0394  0.0292
11788W        W54779   9.940  10.877   0.155  0.0939  0.2539  0.0519
11789W        W54780   1.421  21.373   0.208 -0.0908  0.2315  0.2615
11790W        W54781  18.120  21.677  22.302 -0.0950 -0.1642  0.0759
11791W        W54782  32.058  19.136  21.849 -0.3189  0.1193 -0.0673
11792W        W54783   2.135  26.590   5.067 -0.0574  0.0189  0.1732
11793W        W54784   3.573  27.182  23.688  0.0437 -0.1590  0.0871
11794W        W54785  29.682  27.614   8.141  0.0516  0.0465 -0.1192
11795W        W54786  21.164  23.343  27.854 -0.0352 -0.1220 -0.3753
11796W        W54787   4.028  26.418  24.031 -0.0819 -0.1359 -0.0353
11797W        W54788   6.887  18.066   0.325 -0.1911 -0.0658 -0.2903
11798W        W54789  16.012  10.249  28.157  0.0384  0.0113 -0.1340
11799W        W54790   7.841  11.166  26.621  0.0026  0.0975  0.1001
11800W        W54791   4.066  17.517  25.916  0.0875 -0.0587 -0.1373
11801W        W54792  27.365  17.850   2.704  0.1972  0.0040  0.0024
11802W        W54793   0.805  19.415   0.464 -0.0907 -0.1656  0.3100
11803W        W54794  28.620  17.351  24.389  0.0931 -0.0785 -0.0116
11804W        W54795  15.322   9.433  28.446 -0.2295 -0.2976  0.5502
11805W        W54796   2.366   8.708  17.192  0.0980  0.1642 -0.0184
11806W        W54797   6.680  22.229  22.024  0.1395 -0.4028  0.0955
11807W        W54798  10.513  17.104  26.876  0.1940 -0.0441 -0.1609
11808W        W54799  26.805  17.662   7.695  0.0088  0.1750  0.1722
11809W        W54800  33.846   6.628  16.294  0.0951  0.1676  0.2535
11810W        W54801  28.372  18.930  23.931  0.0424  0.1007  0.1942
11811W        W54802  28.706   5.956  20.130 -0.2337 -0.0648 -0.4180
11812W        W54803  27.525  21.195   4.127 -0.3303 -0.1125  0.2213
11813W        W54804  11.706  17.077   6.201  0.1331  0.0162  0.0699
11814W        W54805   9.536  15.516  20.915  0.0668  0.2070  0.0672
11815W        W54806   5.561  20.498  27.449 -0.3726 -0.0234  0.0828
11816W        W54807  22.928   3.123  18.536 -0.0649  0.3444 -0.0231
11817W        W54808  29.114  18.046  21.690  0.1111  0.0082  0.0544
11818W        W54809   7.222  34.102  21.333  0.0242  0.0298 -0.1557
11819W        W54810  13.537  19.907  16.851  0.1995 -0.1720 -0.1480
11820W        W54811  15.861  13.074  18.995  0.0630  0.0695 -0.1575
11821W        W54812  23.619  22.424  18.425  0.1525 -0.0206 -0.0278
11822W        W54813  22.652  12.894  27.829 -0.0823 -0.2798  0.1249
11823W        W54814   0.127  17.727  27.233  0.0525  0.2160 -0.1791
11824W        W54815  23.665  20.736  28.743 -0.1341 -0.2750 -0.1570
11825W        W54816   8.215  11.547  27.701  0.1556 -0.0707  0.1160
11826W        W54817  15.349  16.448   0.822  0.1154 -0.0314 -0.2723
11827W        W54818  11.615   7.747  24.682 -0.1244  0.1729  0.0834
11828W        W54819   9.817  19.317  25.171  0.0426 -0.1082  0.2884
11829W        W54820   2.182  16.660   1.450  0.0972 -0.3188 -0.0004
11830W        W54821   7.671  17.897  16.518  0.1167  0.0125  0.0705
11831W        W54822  11.050  21.588   9.724  0.1302 -0.1163  0.4385
11832W        W54823  34.630  16.373  15.568 -0.2506 -0.2093  0.1707
11833W        W54824   4.641   7.302  21.045  0.2365  0.2844 -0.2338
11834W        W54825  33.815  19.880  16.911 -0.0633  0.2665  0.1990
11835W        W54826  21.167  18.797  21.795 -0.2961  0.1176  0.0899
11836W        W54827  12.582  20.696  13.952 -0.0065 -0.1192 -0.1059
11837W        W54828  13.317  27.842  20.925 -0.0583 -0.2078  0.1110
11838W        W54829  30.580  12.644  18.112  0.1101  0.1637  0.3029
11839W        W54830  26.966  15.649  21.529  0.1291  0.0624  0.0913
11840W        W54831  30.035  18.209  26.612  0.1403 -0.3356 -0.0430
11841W        W54832  22.028   9.500   7.132 -0.0482  0.3459 -0.1662
11842W        W54833   9.504  28.726  20.511  0.3644 -0.3096  0.3479
11843W        W54834   2.761  11.953   0.488  0.3141 -0.0789  0.1110
11844W        W54835  20.225  14.350  28.907  0.0976  0.1103 -0.0757
11845W        W54836   6.472  34.387   6.999 -0.1919  0.1187  0.0469
11846W        W54837   1.992   0.849   7.651  0.3543 -0.1038 -0.1267
11847W        W54838  20.335  28.431  19.573  0.1960  0.2554 -0.2488
11848W        W54839   9.448   7.173  28.175 -0.0921  0.0033 -0.2468
11849W        W54840  26.308  13.614  19.027 -0.0335  0.0210  0.3602
11850W        W54841  32.050  24.329  19.332 -0.0347 -0.0853  0.1326
11851W        W54842   4.686  22.628  15.336  0.2286  0.1055 -0.2892
11852W        W54843   7.597  24.335  23.828 -0.0533 -0.0835 -0.3669
11853W        W54844  32.927  17.860   3.900  0.1238  0.2188  0.0295
11854W        W54845  31.118  20.739  15.869 -0.3059 -0.2212 -0.1796
11855W        W54846  32.880  14.761  15.715  0.1713 -0.0678  0.0822
11856W        W54847  32.777   9.151  20.901  0.1535 -0.0822  0.0982
11857W        W54848  31.162   1.924   2.921  0.1478  0.1117 -0.2368
11858W        W54849   8.960   1.934  28.575 -0.2570 -0.4615  0.1362
11859W        W54850   5.304  19.743  18.318 -0.0205 -0.1330 -0.0917
11860W        W54851  22.283  17.169  20.371 -0.1221  0.2633  0.1677
11861W        W54852  10.491   4.832  19.666 -0.1064  0.1284  0.0174
11862W        W54853   9.630  30.860  22.889  0.0726  0.0892 -0.0638
11863W        W54854  33.595   1.940   2.282 -0.1379 -0.0854  0.0492
11864W        W54855   7.011  20.202  16.319  0.3919 -0.0589 -0.0569
11865W        W54856   9.407   8.112   8.585 -0.0948  0.0970 -0.2682
11866W        W54857  30.989  17.463  17.319 -0.2317  0.0322  0.2788
11867W        W54858   2.077  15.455  22.695  0.0382  0.2222 -0.2637
11868W        W54859  25.465   8.642   5.794  0.0303 -0.1681 -0.1354
11869W        W54860  34.739  23.682  15.478  0.1267  0.0310  0.4709
11870W        W54861  19.726   8.037  26.663 -0.0817  0.2098  0.0136
11871W        W54862  31.373   8.738  18.588 -0.1437  0.2820  0.0156
11872W        W54863  22.873  11.593  25.941 -0.0332  0.0141 -0.1102
11873W        W54864  24.073  18.469   8.945 -0.3486  0.1735 -0.0039
11874W        W54865   8.821  34.776   4.416  0.0300  0.2812  0.0737
11875W        W54866  24.269  14.111  13.592  0.1438 -0.1174 -0.0314
11876W        W54867  31.271  18.065  20.990  0.1433  0.0548  0.1788
11877W        W54868   9.464  16.420  17.374  0.1045  0.1473  0.2441
11878W        W54869  15.361   8.949  19.040 -0.1820 -0.1985 -0.2152
11879W        W54870   3.304  30.523  20.419  0.1575 -0.3178 -0.3452
11880W        W54871  14.171  14.204  20.989  0.0645 -0.0191 -0.0575
11881W        W54872  31.995   5.428  26.776  0.0733  0.1876 -0.0400
11882W        W54873  24.744  20.549  18.598  0.1909 -0.0694  0.1116
11883W        W54874  30.974   2.358   7.290 -0.0132  0.1883  0.1157
11884W        W54875  32.138  23.856  17.596  0.2729 -0.1192 -0.5439
11885W        W54876   2.407   7.221   1.772 -0.1091  0.1297 -0.0526
11886W        W54877  33.282   4.988  25.034  0.0600 -0.1579  0.0380
11887W        W54878  13.196  25.415  24.989 -0.2934  0.3105  0.1805
11888W        W54879  13.736  30.743  22.467  0.2385  0.2640  0.2209
11889W        W54880   8.725  14.714   4.442 -0.1262 -0.1865 -0.0338
11890W        W54881   2.162  30.638   3.637  0.0214 -0.1351 -0.0976
11891W        W54882  28.286  31.239  11.995 -0.0458  0.1723  0.2375
11892W        W54883  10.920  19.741  27.485  0.2778 -0.1365 -0.1430
11893W        W54884   9.132  28.684   4.023 -0.1564  0.0560 -0.1282
11894W        W54885  32.195  25.880  14.363 -0.0665 -0.1351 -0.0696
11895W        W54886  31.592  10.154  16.094 -0.0586 -0.0542  0.0467
11896W        W54887  25.914  13.414  26.393  0.0849 -0.0155 -0.0637
11897W        W54888   5.021  19.252  17.592  0.0438 -0.1817 -0.1309
11898W        W54889   6.698   5.330   9.143  0.3852 -0.0559 -0.1723
11899W        W54890   0.245  16.349  25.252  0.1226  0.0051  0.1584
11900W        W54891  27.443  32.561  23.443 -0.1012  0.4425 -0.4285
11901W        W54892  22.429   9.540   3.323  0.1538  0.2514 -0.1165
11902W        W54893  16.108   6.840  26.255 -0.0529 -0.0235  0.0709
11903W        W54894  12.477  31.752   8.957  0.0760  0.1391  0.2230
11904W        W54895  11.711  12.208   6.556 -0.0686 -0.1419 -0.2448
11905W        W54896  18.733  21.356   6.623  0.1294  0.4808 -0.1586
11906W        W54897  24.928  19.854  22.985  0.2535 -0.2206 -0.1034
11907W        W54898  34.759   0.910   9.567  0.0237 -0.0248 -0.1735
11908W        W54899  28.991  29.390  26.058  0.0181 -0.2038 -0.2926
11909W        W54900   0.514  16.793   7.724 -0.0801  0.3124 -0.2015
11910W        W54901  10.738   7.932   9.681  0.1082  0.0774  0.1072
11911W        W54902  24.690  19.684  21.179  0.3663 -0.2627  0.2244
11912W        W54903  16.094  18.946  12.467  0.0673 -0.1116  0.0133
11913W        W54904  27.832  20.738   8.394 -0.0729  0.0596  0.1742
11914W        W54905  33.408  15.008  28.694 -0.1181 -0.0530  0.1319
11915W        W54906  33.121  19.461  15.721 -0.1230  0.1116  0.3911
11916W        W54907  17.653  30.968  24.447  0.1734  0.2644 -0.2633
11917W        W54908   8.974   3.283  26.341 -0.1692 -0.0769  0.0633
11918W        W54909   9.824  29.930   1.887 -0.0191 -0.1137 -0.2548
11919W        W54910  17.720   1.201  23.916 -0.0550 -0.1843 -0.1841
11920W        W54911  32.548  22.712  27.656 -0.0802  0.2147 -0.0313
11921W        W54912  10.124  22.830   7.357  0.1228 -0.4441 -0.0172
11922W        W54913   5.384   0.973  19.004  0.1777 -0.1561  0.2232
11923W        W54914  25.064  18.296   0.422  0.0369  0.1811  0.0399
11924W        W54915  32.349  28.516  20.747  0.1505 -0.1258  0.0338
11925W        W54916  20.809  16.209  27.455 -0.1159  0.1933 -0.2030
11926W        W54917  26.618  10.735   6.130 -0.0409  0.1751  0.3874
11927W        W54918   8.823  32.901  23.746  0.1429  0.0316  0.0760
11928W        W54919  15.133   6.880  20.644 -0.0577 -0.0280 -0.1047
11929W        W54920  30.457  19.138  19.264 -0.0872 -0.0688 -0.0244
11930W        W54921  11.472  19.191  26.297 -0.1136  0.2206  0.1842
11931W        W54922  23.147  19.114  23.806  0.0876  0.1834 -0.3013
11932W        W54923   1.403  24.666  20.853  0.0828  0.1771 -0.2252
11933W        W54924  10.603  20.029  18.199 -0.0230 -0.0653 -0.0466
11934W        W54925  11.411  33.336   7.527  0.0919 -0.0144  0.0943
11935W        W54926   2.620  12.330  27.964 -0.1696  0.0622  0.3226
11936W        W54927   6.684  15.569  22.345 -0.5103 -0.2578 -0.1413
11937W        W54928   5.459   1.210  17.050 -0.0755 -0.0049  0.3606
11938W        W54929  32.718  19.144   1.430 -0.0206 -0.3410  0.1202
11939W        W54930  34.729  24.004   0.366  0.1053 -0.2551 -0.1051
11940W        W54931  27.498  10.011   2.722  0.0686  0.2380  0.0757
11941W        W54932  22.502  20.206  18.483  0.0640  0.2504  0.0778
11942W        W54933  11.651   6.350   9.060 -0.1383  0.0897  0.1647
11943W        W54934  23.511  30.592  17.950  0.0830  0.1024 -0.0698
11944W        W54935  32.394   0.493  24.462 -0.0832 -0.0851  0.0748
11945W        W54936  21.654  31.570  17.102 -0.3324 -0.0891 -0.0616
11946W        W54937  12.528  16.049   2.059 -0.1333  0.1214 -0.3232
11947W        W54938   1.547  23.372  20.864  0.1739  0.2472 -0.3523
11948W        W54939   5.969  21.514   8.100 -0.0551  0.2134  0.1391
11949W        W54940  20.415   9.347   2.728  0.4717 -0.1149 -0.0111
11950W        W54941  32.711   1.705   3.585  0.2304 -0.0167  0.0569
11951W        W54942  32.995  18.749   1.583  0.0506  0.0379  0.2383
11952W        W54943   1.987  24.772   5.996  0.0799  0.0375 -0.1379
11953W        W54944  29.891  19.961   8.508  0.1113 -0.2249  0.3911
11954W        W54945  19.792   0.654  26.075 -0.1937 -0.3018  0.2021
11955W        W54946  22.265  32.945  21.772  0.2346  0.3638 -0.2204
11956W        W54947  13.361  23.574  20.708 -0.1789  0.2949  0.1220
11957W        W54948  26.961   7.972   4.305 -0.0659  0.0197  0.0543
11958W        W54949  27.619  13.974   9.493  0.1267  0.3856  0.1401
11959W        W54950   4.578  12.989   6.500  0.0454  0.0961  0.2809
11960W        W54951  10.058  16.874  26.713  0.2845 -0.0718 -0.0624
11961W        W54952  11.166  22.800  19.498 -0.2167 -0.2327 -0.5059
11962W        W54953  31.520  13.282   8.771 -0.0417  0.3393  0.2390
11963W        W54954  31.074  12.385  11.592 -0.1707 -0.6120  0.0248
11964W        W54955  25.312  13.890  18.775 -0.0683 -0.0907 -0.0353
11965W        W54956   6.222  17.210   7.415  0.3570 -0.0938  0.1080
11966W        W54957   5.693  15.456  16.189 -0.1280  0.2015  0.3657
11967W        W54958  31.518   5.519  18.029  0.2720  0.2102 -0.2624
11968W        W54959   3.354  22.125   4.347  0.1570 -0.1743 -0.0029
11969W        W54960   3.570   2.031  21.974 -0.0359  0.0939  0.4328
11970W        W54961  31.099  27.979  20.322 -0.1326 -0.4027 -0.0562
11971W        W54962   7.823  24.307  15.367  0.0114  0.1291  0.1973
11972W        W54963  28.389  16.579  20.835  0.0324 -0.1605 -0.0291
11973W        W54964   1.938  17.336   2.998  0.0355 -0.0821  0.2925
11974W        W54965   8.791   8.974  24.089  0.0605 -0.1800  0.2999
11975W        W54966  20.313  30.135   2.743  0.1690 -0.2021 -0.0682
11976W        W54967  19.984   1.606   7.160  0.3987 -0.2148  0.1504
11977W        W54968   3.612  28.996   0.728  0.2690  0.1039  0.1892
11978W        W54969  34.082   0.260   5.566 -0.0373  0.1261  0.2220
11979W        W54970   2.065  17.991  16.499 -0.3173 -0.1029  0.2701
11980W        W54971   1.033  31.485  26.075  0.2079 -0.1869 -0.3919
11981W        W54972   4.216   8.430  18.457  0.0201  0.2173 -0.0489
11982W        W54973   1.189  21.547  26.940  0.3654 -0.0800 -0.0565
11983W        W54974  31.566  26.543  15.179  0.0201 -0.1890  0.1139
11984W        W54975  10.445   9.519  28.951  0.1599  0.1994  0.0226
11985W        W54976  26.037  17.279  23.067 -0.0742  0.0087 -0.1490
11986W        W54977  11.917  16.341  27.365 -0.1333 -0.0799  0.1962
11987W        W54978  34.078   3.942  18.447 -0.0681  0.1446 -0.3319
11988W        W54979  12.227  15.030   4.792 -0.0370 -0.4434  0.0690
11989W        W54980   4.450   2.890  25.322  0.2898 -0.4793 -0.2598
11990W        W54981  11.400  26.605   6.903  0.2550  0.1973  0.0715
11991W        W54982  10.103  13.581  27.585 -0.1605 -0.2329  0.1228
11992W        W54983  31.089  12.346  18.590  0.3805 -0.0888 -0.1202
11993W        W54984   2.021  20.823   3.121  0.1588 -0.3975  0.0798
11994W        W54985  17.648  19.849  24.806 -0.0365  0.2856 -0.0376
11995W        W54986  30.311  15.683  16.061 -0.2261 -0.2877  0.1908
11996W        W54987  21.226  16.430  21.527 -0.2778 -0.2395 -0.3058
11997W        W54988   2.306  12.528  20.351  0.1017  0.2638  0.2204
11998W        W54989  11.328  11.014   0.744 -0.1116 -0.1328  0.0255
11999W        W54990  13.969   8.529   2.588 -0.1977  0.1161  0.5300
12000W        W54991  10.931   0.738   8.348 -0.0012  0.2876 -0.0499
12001W        W54992   8.868  28.491  21.259 -0.0526 -0.0839  0.0757
12002W        W54993   2.628  19.087   8.327 -0.0076 -0.0548 -0.0303
12003W        W54994  26.796  20.433   0.496 -0.3131 -0.2506  0.4268
12004W        W54995  29.222  13.888  21.950  0.1829  0.0864  0.0556
12005W        W54996  28.363  16.137  23.534  0.1709  0.0956 -0.1281
12006W        W54997   4.409  23.736  23.364  0.1284 -0.0920  0.0168
12007W        W54998   8.468   3.604  27.725 -0.1255  0.0726 -0.2080
12008W        W54999  24.978  28.204  25.938 -0.1625 -0.0186  0.0330
12009W        W55000   3.738  10.749   7.239 -0.1813 -0.0165 -0.2384
12010W        W55001  26.119   6.888  27.406 -0.0551  0.0240 -0.1811
12011W        W55002  33.728   1.566  23.771  0.3209 -0.0599 -0.0242
12012W        W55003  16.323  18.670  25.839  0.0304 -0.0117 -0.3958
12013W        W55004  34.361  13.930   4.026 -0.1976 -0.1674 -0.0312
12014W        W55005  31.220  18.123  25.013 -0.0072 -0.0259 -0.1848
12015W        W55006   4.422  21.320   8.231 -0.0729 -0.0216  0.1871
12016W        W55007  30.188  13.505  28.407 -0.1703  0.3760 -0.1807
12017W        W55008  19.040  19.457  26.720  0.0383 -0.0329  0.0779
12018W        W55009   6.016  30.145  26.581 -0.0550  0.0275  0.1761
12019W        W55010  32.222  34.084   3.614 -0.2184 -0.1425  0.1912
12020W        W55011  32.100  33.979  18.493  0.3409 -0.1145 -0.0946
12021W        W55012  29.745   3.664   5.706 -0.2809  0.0171  0.1082
12022W        W55013  17.777   6.512   3.610  0.1332  0.2622 -0.0184
12023W        W55014   8.404   3.967   5.086 -0.1232  0.1505  0.1546
12024W        W55015  31.437  18.906  17.937 -0.1417  0.2751 -0.1149
12025W        W55016   0.298  14.055  29.192 -0.2550 -0.1831 -0.0442
12026W        W55017   5.447  22.249  22.479  0.0502  0.1177 -0.0721
12027W        W55018  21.675  16.213  16.143 -0.0607  0.2489 -0.1891
12028W        W55019   8.529  16.481   3.016  0.5986 -0.2348 -0.1466
12029W        W55020  14.269  22.767  19.810  0.0974 -0.2794  0.1096
12030W        W55021  18.232   4.624  18.695 -0.1023  0.1384  0.0365
12031W        W55022  14.947   5.355   4.262 -0.2437 -0.0937 -0.0646
12032W        W55023  16.133   4.946  20.375 -0.0531  0.3553  0.0682
12033W        W55024   7.763   7.699  28.541 -0.0111 -0.1125 -0.1130
12034W        W55025   2.144  19.071   7.121 -0.1630  0.0243  0.0060
12035W        W55026   5.317   4.157  27.554  0.1934 -0.0775 -0.1878
12036W        W55027  31.527   8.358  16.423  0.1474  0.1700 -0.0863
12037W        W55028  33.323  25.541  13.809  0.3623  0.1783  0.4215
12038W        W55029  26.079  20.906   4.075  0.1068 -0.1639 -0.2050
12039W        W55030  22.682   0.863   1.680 -0.1435  0.3109 -0.1183
12040W        W55031  30.257  33.917  15.606 -0.1636 -0.1736  0.0930
12041W        W55032   3.873   8.376  16.266 -0.0289 -0.4110  0.0214
12042W        W55033   3.318  20.593  24.501  0.3166  0.1893 -0.3335
12043W        W55034  33.093  16.713  27.596 -0.0917  0.1624  0.3318
12044W        W55035  12.436   8.486   8.559  0.0001 -0.1914  0.0294
12045W        W55036  31.996   6.848  15.776 -0.2305 -0.3328 -0.1509
12046W        W55037  30.055  31.226  16.966  0.0354 -0.1114 -0.2305
12047W        W55038  18.614  20.583   1.592 -0.0137  0.0194  0.0361
12048W        W55039  19.395  24.553   1.080 -0.1808 -0.1852  0.3964
12049W        W55040   0.116  12.884   1.502  0.0563  0.0870 -0.1439
12050W        W55041   4.274  11.585   4.037 -0.0373 -0.0503 -0.2573
12051W        W55042  21.816   5.613  26.062 -0.1295 -0.1131  0.0194
12052W        W55043  13.920  33.296   8.297  0.1606  0.0949  0.1096
12053W        W55044  23.017  17.930  15.827 -0.2229 -0.0039  0.3523
12054W        W55045   3.769  10.520  22.164 -0.1339  0.4136  0.0541
12055W        W55046  10.749  10.211  19.244  0.1450  0.0624  0.0349
12056W        W55047   8.202  15.240  28.626 -0.2402  0.1395  0.0833
12057W        W55048  13.504   4.275  19.548  0.1539  0.1415 -0.1817
12058W        W55049  32.825  21.572   4.770  0.1283  0.0772  0.1207
12059W        W55050   2.056  12.315   7.098  0.0430  0.0735  0.0628
12060W        W55051   5.508  11.737   1.577  0.0400  0.1648  0.2340
12061W        W55052  10.232   3.282   1.477 -0.1836  0.1285 -0.2617
12062W        W55053   0.306  25.244  23.679  0.2899 -0.1720  0.1154
12063W        W55054   7.660  25.018   0.488 -0.3132 -0.2954  0.0970
12064W        W55055   9.544  33.274  29.032 -0.3404 -0.0625  0.2731
12065W        W55056  34.328  23.646  26.004 -0.1226 -0.1015 -0.0606
12066W        W55057   3.669   7.800  21.767 -0.0905 -0.0878  0.3067
12067W        W55058   5.144  34.582  17.191  0.1658  0.0965  0.1784
12068W        W55059  31.336   4.850  22.618 -0.3556  0.2098  0.0084
12069W        W55060   2.685   1.053  15.896  0.1558 -0.3279 -0.0829
12070W        W55061   9.607   5.881  21.820  0.2575  0.1150 -0.1643
12071W        W55062  19.797  14.539   2.077  0.1103  0.3561  0.0963
12072W        W55063  31.693   3.140  26.153  0.0548  0.2742 -0.2103
12073W        W55064   0.069  18.349   1.874 -0.2463  0.0851  0.1379
12074W        W55065   1.022  14.614  26.294 -0.0390  0.1087  0.2181
12075W        W55066   3.543   8.816  18.197  0.0097  0.4113 -0.1173
12076W        W55067  27.437  16.437   7.323 -0.2652  0.1252 -0.6732
12077W        W55068  33.953  27.091   1.849 -0.2759  0.2442  0.1212
12078W        W55069  26.754  13.753  21.481 -0.0375  0.3789  0.2791
12079W        W55070   7.406  10.892  26.447 -0.0986  0.2269  0.2102
12080W        W55071   2.182   8.064   7.801 -0.3138 -0.3737 -0.0641
12081W        W55072   9.836  14.995  29.174  0.0314  0.0039  0.1051
12082W        W55073   8.867  22.463  23.395  0.2153 -0.3574 -0.0336
12083W        W55074  18.118  18.443  24.386 -0.2168 -0.0624 -0.2016
12084W        W55075  34.594   7.151   4.666 -0.0731 -0.0433  0.2747
12085W        W55076  13.821  15.678  14.599  0.1158 -0.1950 -0.0951
12086W        W55077  30.980  28.162   0.844  0.0277  0.2463  0.1161
12087W        W55078  16.698   0.919   4.178  0.0695  0.0032 -0.1615
12088W        W55079  19.489  28.371  24.190 -0.3973  0.1138 -0.0782
12089W        W55080  26.113  17.063  25.801  0.0988 -0.4440 -0.1081
12090W        W55081  30.607   7.231  19.992  0.0721 -0.0289 -0.1043
12091W        W55082  31.412  14.499  21.948 -0.0163  0.0860  0.1347
12092W        W55083  34.147  20.256  27.718  0.1344  0.0578  0.0877
12093W        W55084  13.945  18.045  25.055 -0.2099  0.1805 -0.1662
12094W        W55085  26.524   0.422  24.555  0.1438 -0.0937  0.0492
12095W        W55086   9.320  23.608  21.135 -0.1484 -0.0194  0.0191
12096W        W55087   1.359  21.414  16.640  0.2207  0.0150 -0.0202
12097W        W55088  25.524  21.187  13.626 -0.0168  0.0575  0.0470
12098W        W55089  27.374   7.715   4.182  0.0976  0.0636 -0.1354
12099W        W55090   0.920  22.846  27.338  0.0560  0.0017 -0.0372
12100W        W55091  12.738  23.055  20.638  0.0561  0.0885 -0.2772
12101W        W55092  19.803  32.582   3.829  0.1253 -0.0113 -0.2275
12102W        W55093  29.218   2.573   3.500  0.0635 -0.1791  0.3620
12103W        W55094   1.184  15.622  10.654 -0.0164 -0.0928 -0.0295
12104W        W55095   8.300  20.295  15.672 -0.3906 -0.0398 -0.3258
12105W        W55096  10.831  22.536  14.454 -0.0957  0.0026  0.0515
12106W        W55097  31.471  13.712  10.075 -0.1492 -0.4091 -0.1707
12107W        W55098  31.690   7.328   1.920  0.0593  0.0456  0.0788
12108W        W55099  25.292  28.762   2.190  0.1714  0.1696 -0.1410
12109W        W55100  34.557  22.666  13.168 -0.1099 -0.1386  0.0321
12110W        W55101   9.057  28.067   7.097 -0.3343 -0.3844  0.2160
12111W        W55102   3.954   2.046  22.525 -0.1952  0.0886  0.0613
12112W        W55103  21.358  20.860  27.075 -0.1827  0.0611 -0.2816
12113W        W55104   1.337   7.582  27.365 -0.0157  0.4678  0.0031
12114W        W55105  31.969   3.955  23.816  0.1309 -0.3650  0.3251
12115W        W55106  27.596  17.506  19.376  0.0565 -0.2069 -0.2239
12116W        W55107  10.778  16.940  10.163  0.1509  0.0138  0.3785
12117W        W55108   1.613  17.852  10.779 -0.1872 -0.1205 -0.3543
12118W        W55109   7.263  23.015   4.213 -0.0890 -0.2622  0.0824
12119W        W55110  16.468  15.120  13.643  0.1902  0.2526  0.0833
12120W        W55111   3.915  18.647  25.560  0.0446  0.1774  0.1201
12121W        W55112  30.668  22.597  26.163 -0.2706 -0.1810  0.2402
12122W        W55113   9.073  17.090  21.351  0.0145  0.2085  0.1030
12123W        W55114  28.358  24.947  27.506 -0.2647  0.0092  0.0992
12124W        W55115  11.668  25.018  24.173  0.1615  0.4298 -0.3044
12125W        W55116   5.902  11.002  19.075  0.1635  0.1095 -0.3498
12126W        W55117  27.458   7.594  17.289  0.0922  0.0685  0.0927
12127W        W55118  33.556  21.386  26.822  0.0452  0.0255 -0.2018
12128W        W55119   2.366   6.205  23.579  0.0096 -0.0222  0.1655
12129W        W55120  34.793  14.045   8.610  0.2125  0.1452 -0.1049
12130W        W55121   1.256  18.667   9.480 -0.3530  0.1562 -0.0918
12131W        W55122   2.294  18.817  28.903 -0.3531 -0.1118 -0.1618
12132W        W55123  23.226  10.207  25.773  0.3847 -0.0471  0.0283
12133W        W55124  28.642   8.315   1.319 -0.1142 -0.1730  0.0659
12134W        W55125   0.217  23.891  29.250 -0.0906 -0.1822  0.0513
12135W        W55126   4.145  13.461  18.365 -0.1925 -0.1731  0.1694
12136W        W55127   6.478  12.812   5.720 -0.3609 -0.0606  0.2411
12137W        W55128  26.501  10.695  22.088 -0.1112  0.4288  0.1949
12138W        W55129   8.701  11.946   4.355 -0.0991 -0.1896 -0.3205
12139W        W55130  11.894  17.636  13.946  0.0561  0.0187  0.1942
12140W        W55131   4.568  31.724  17.890 -0.0541 -0.0419  0.0016
12141W        W55132   9.217  16.709   9.718  0.0676  0.0059  0.3724
12142W        W55133   6.201  11.013  18.233  0.3331 -0.1404  0.3695
12143W        W55134  31.499   6.628   9.827 -0.1244 -0.1001  0.1283
12144W        W55135   5.740  18.271   9.836  0.3236  0.3407  0.0020
12145W        W55136  13.648  15.794  17.571  0.1576  0.1858 -0.2672
12146W        W55137   8.965  19.501  17.758  0.0411 -0.0371  0.0351
12147W        W55138   5.962  27.012   1.236 -0.1528 -0.0357  0.0784
12148W        W55139  31.753  33.759   1.463 -0.1775  0.0887  0.0115
12149W        W55140  12.886   5.595  21.308  0.0395 -0.0606  0.1340
12150W        W55141  34.640  11.824  26.582  0.3166  0.0194 -0.2350
12151W        W55142  21.780  22.447   3.148 -0.0800 -0.1794 -0.0975
12152W        W55143  13.816  26.857   8.581  0.0826 -0.1566  0.2415
12153W        W55144  27.958   4.675   2.997 -0.1462  0.1145 -0.2963
12154W        W55145   2.112  19.675  27.762  0.3163 -0.2078 -0.0482
12155W        W55146  14.759  15.491  13.286  0.0289 -0.3084 -0.1470
12156W        W55147  16.396  20.928   8.450  0.1001 -0.3762 -0.2240
12157W        W55148   0.271   2.303  10.059  0.0525  0.0215 -0.1650
12158W        W55149  11.390  11.525   8.630  0.0917  0.1381 -0.0289
12159W        W55150  13.987  20.822   8.887 -0.1970  0.2700  0.0039
12160W        W55151  10.966  21.040  28.347  0.2085  0.3464 -0.0711
12161W        W55152   1.652  13.117  19.774  0.0829  0.1792 -0.0576
12162W        W55153  31.841  10.299  25.855 -0.4530  0.0173  0.0461
12163W        W55154  22.599  18.629   6.041 -0.1583 -0.1353  0.0975
12164W        W55155   8.743  11.629   6.986 -0.1082 -0.1280 -0.1298
12165W        W55156   6.092  13.947  24.516 -0.1191  0.0936  0.1064
12166W        W55157  18.328  18.985  24.976 -0.0371  0.0543 -0.3396
12167W        W55158   1.699  24.455   7.215 -0.2761 -0.0225  0.0469
12168W        W55159  26.476  27.554   0.100 -0.4722  0.1991  0.3256
12169W        W55160  27.683  18.474   4.182 -0.0693 -0.0459 -0.0272
12170W        W55161  11.256  11.116   9.873  0.0724 -0.1912  0.2112
12171W        W55162  14.869  16.731   3.299 -0.0342  0.3197  0.0852
12172W        W55163  26.638  19.152   0.347 -0.0059  0.2241  0.0989
12173W        W55164   9.441  17.606   8.164 -0.0209 -0.1374  0.0493
12174W        W55165   5.966   8.069   8.246  0.2127 -0.0694  0.1248
12175W        W55166  16.623  23.798   7.168  0.1231 -0.2097 -0.1026
12176W        W55167  11.861   5.164   4.616  0.3323 -0.0453  0.3147
12177W        W55168  29.192   5.366   8.899  0.2797  0.0606 -0.0305
12178W        W55169  30.027  22.047  19.186  0.0038 -0.0156  0.1368
12179W        W55170  29.542  23.861   4.554  0.3253 -0.0988 -0.1083
12180W        W55171   3.588  29.062  28.537  0.1116 -0.0574 -0.0196
12181W        W55172  21.817   7.745   0.130  0.1353  0.0418 -0.0947
12182W        W55173  22.104  23.255   7.405 -0.1252  0.0298  0.0507
12183W        W55174  15.274  18.414  13.822  0.0029 -0.1965  0.0099
12184W        W55175  25.866  31.752   0.376  0.0954  0.3662  0.1063
12185W        W55176   9.323  12.617   9.230  0.1018  0.0293  0.0971
12186W        W55177   4.305  21.139  20.444  0.0838 -0.1102  0.2040
12187W        W55178   2.712   7.582   3.646 -0.0015  0.0248 -0.0118
12188W        W55179  20.352   7.770   1.062  0.1701 -0.0579  0.1571
12189W        W55180  29.268   9.066  24.486 -0.0985 -0.0751 -0.1375
12190W        W55181  29.893   3.806   8.736  0.2311 -0.2323 -0.3275
12191W        W55182  16.870  13.178   1.407 -0.1526 -0.3673  0.3072
12192W        W55183   5.402  23.214   3.793  0.0903  0.2377  0.2602
12193W        W55184  33.722  19.026  20.715 -0.0176  0.0562 -0.2465
12194W        W55185   5.083  24.709  21.565  0.1838  0.2648 -0.2690
12195W        W55186   4.709  20.469  22.112 -0.0211  0.1372  0.0918
12196W        W55187  33.929  21.282   5.221 -0.2685  0.0437 -0.0810
12197W        W55188   2.663  28.651  25.299  0.1920 -0.1112 -0.1147
12198W        W55189  25.907  16.916  16.736  0.4079  0.0088  0.2165
12199W        W55190  23.073  25.138  27.366 -0.0317  0.1899 -0.1220
12200W        W55191  33.891   6.155   5.923  0.0390  0.2866 -0.4517
12201W        W55192  25.689  26.992  29.059 -0.1625 -0.1126 -0.0988
12202W        W55193   1.473   9.353   8.428 -0.3208  0.1291 -0.0009
12203W        W55194   8.225  24.707  24.645  0.0810  0.1598 -0.1008
12204W        W55195  11.948  11.325   1.873 -0.1841  0.0648  0.3670
12205W        W55196   1.421  13.743   7.616 -0.2696  0.2488  0.0676
12206W        W55197   8.653  19.889   6.818 -0.0378  0.0338 -0.2215
12207W        W55198  10.007   5.264  20.331 -0.0334  0.0859  0.0745
12208W        W55199   7.040  10.022  29.002  0.1767  0.2595  0.2566
12209W        W55200   4.792  14.842   6.656 -0.0097  0.0467  0.0836
12210W        W55201   8.183  26.118   4.930 -0.0124 -0.0054 -0.2059
12211W        W55202   9.416   9.495  10.230 -0.0080  0.4109  0.1045
12212W        W55203  31.621  15.472   2.176  0.0651 -0.1741  0.0718
12213W        W55204  26.866   1.719  23.485 -0.0398 -0.0201 -0.0476
12214W        W55205  31.436  10.875  26.360 -0.2757 -0.1831  0.0392
12215W        W55206   2.898  14.757   3.295  0.0045  0.0435  0.1144
12216W        W55207  25.908  16.958   1.157  0.0861 -0.1503  0.0375
12217W        W55208   4.857  25.541  16.368  0.0470  0.0424  0.2723
12218W        W55209   9.754  13.534  15.599 -0.2899  0.2922 -0.2199
12219W        W55210   3.335  27.763  23.768 -0.1812 -0.1726  0.0610
12220W        W55211  10.481  15.613  22.832 -0.0265 -0.1432 -0.2562
12221W        W55212  27.162  29.944  18.797 -0.0419 -0.0235 -0.0031
12222W        W55213   3.081  13.254  18.117 -0.1340  0.0098 -0.1394
12223W        W55214  33.685  19.316   0.337  0.0411 -0.2940  0.1344
12224W        W55215  29.196  11.480  27.189  0.1046 -0.0009 -0.0570
12225W        W55216  26.756  32.004  28.731 -0.3053 -0.1856  0.1531
12226W        W55217  29.510  15.279   4.413  0.0826 -0.4477  0.1235
12227W        W55218   4.374  17.512  19.203  0.0050 -0.0621 -0.2535
12228W        W55219  30.689  21.042  14.568 -0.3152  0.0586 -0.0321
12229W        W55220  23.269  19.679  13.601 -0.1247 -0.0266 -0.1943
12230W        W55221  32.652  10.643  15.852 -0.0506  0.1183 -0.3828
12231W        W55222  28.601  34.191  23.008  0.0882 -0.0514 -0.0479
12232W        W55223   0.483  24.232  14.810  0.1297 -0.5602  0.1156
12233W        W55224  32.571  21.396  19.096 -0.1235  0.0950 -0.2244
12234W        W55225  10.146   2.736  17.093 -0.0879  0.1242  0.0498
12235W        W55226   2.508  26.830  27.762 -0.0352 -0.3228 -0.0064
12236W        W55227  30.577  23.620  16.566  0.1861 -0.1592  0.1330
12237W        W55228   4.964  27.431  26.805  0.2638  0.0322  0.0173
12238W        W55229   1.406  28.993  28.214 -0.0900 -0.1528 -0.1799
12239W        W55230   1.217   5.369  21.224  0.0380  0.0710  0.3299
12240W        W55231  29.741   8.618  15.161 -0.1642  0.0901 -0.4862
12241W        W55232   0.587   8.592  17.885  0.0640  0.2334 -0.2691
12242W        W55233   9.082  17.332  16.974  0.0005 -0.1417 -0.1693
12243W        W55234  27.760  20.710  22.818  0.1581 -0.4247  0.0390
12244W        W55235  26.574  26.646  23.344 -0.3346  0.0400 -0.0581
12245W        W55236   3.718  27.266  21.123  0.3147  0.2484 -0.1892
12246W        W55237  23.792  29.117  23.318  0.1591 -0.2115 -0.4782
12247W        W55238  28.846  14.340  27.440  0.1453 -0.0284  0.4982
12248W        W55239  10.107  22.583  14.028 -0.0916 -0.0307 -0.0154
12249W        W55240  22.421  19.282  14.888  0.1130  0.0925  0.2468
12250W        W55241   5.934   5.967   0.459 -0.0833  0.2805 -0.1471
12251W        W55242  31.116   1.989  14.604  0.0374 -0.0550 -0.0885
12252W        W55243  34.465  20.100  28.505  0.1481 -0.0916 -0.0150
12253W        W55244   8.246  19.663  17.931  0.1327 -0.0508 -0.0419
12254W        W55245  29.648  31.041  19.295 -0.2039 -0.0495  0.0554
12255W        W55246   8.509  22.390  20.877  0.0963  0.1740 -0.5228
12256W        W55247  14.896  29.088  19.941 -0.2060 -0.0909  0.0747
12257W        W55248  31.767  29.217  13.319 -0.0180  0.0229  0.0377
12258W        W55249   2.745  23.567  18.248 -0.2280  0.0945  0.2085
12259W        W55250  25.977  11.408  19.683 -0.0966  0.0120 -0.0496
12260W        W55251  33.835  24.000  23.314  0.2681 -0.2575  0.3009
12261W        W55252   0.382  17.270  24.169  0.3663 -0.2149 -0.2118
12262W        W55253  16.255  34.227  19.850 -0.1599  0.1597 -0.2144
12263W        W55254  20.548  23.502  15.932 -0.2639  0.0591 -0.0009
12264W        W55255   2.097  15.189  23.653 -0.1168 -0.0385 -0.2560
12265W        W55256  20.247  32.776  22.915 -0.1696  0.3595 -0.0977
12266W        W55257  11.638   1.742  17.173  0.1314  0.2395  0.1053
12267W        W55258   3.735  26.807  20.547  0.0143 -0.3004 -0.1305
12268W        W55259  11.311  23.117  17.732 -0.2003 -0.1105  0.0796
12269W        W55260  31.773  16.619  22.238  0.0651 -0.0881 -0.1136
12270W        W55261   1.456  28.395  13.744 -0.0370  0.0783 -0.0839
12271W        W55262   0.311  18.784  21.561  0.0795 -0.1087 -0.2205
12272W        W55263  33.480  15.420  20.465  0.0971 -0.0475  0.0354
12273W        W55264   3.818   2.625  25.886 -0.1419  0.0503  0.0979
12274W        W55265  26.345  17.447  26.840  0.0424 -0.2182  0.0207
12275W        W55266   6.740   0.622  22.372  0.3355 -0.2536 -0.0634
12276W        W55267  18.873   1.811  25.665 -0.3463  0.2048 -0.0273
12277W        W55268  27.779  24.628   1.401  0.0683  0.1471  0.0119
12278W        W55269  33.462  33.284  14.823  0.0820 -0.0793  0.1776
12279W        W55270  33.872  15.254  25.970  0.0088 -0.0774  0.1564
12280W        W55271  20.985  30.622  19.502 -0.0294  0.1530 -0.2724
12281W        W55272  15.827  23.963  21.860  0.2950  0.0980 -0.2041
12282W        W55273  24.870   0.892  21.632 -0.1615  0.2385 -0.0313
12283W        W55274  28.716  34.384  14.411 -0.0905  0.1268  0.1227
12284W        W55275  28.116  20.421  26.992 -0.2698 -0.6206 -0.0386
12285W        W55276  33.272  11.087  21.503  0.1813  0.0473 -0.1803
12286W        W55277  31.273   5.599  16.000  0.0276  0.1878  0.3492
12287W        W55278   1.179  22.465  16.728 -0.0617  0.1245 -0.0868
12288W        W55279  20.742  14.851  28.113  0.0044  0.0525 -0.2412
12289W        W55280  26.719  17.913  17.094  0.1464  0.0076  0.1428
12290W        W55281  32.482  22.602  28.815 -0.1781  0.2590 -0.0931
12291W        W55282  33.832   5.944  21.915 -0.0097  0.1452  0.0374
12292W        W55283   0.301  21.129  14.707 -0.0042 -0.0384  0.0785
12293W        W55284  15.576  10.952  15.865  0.1850 -0.2738 -0.4143
12294W        W55285   7.149  30.032  14.207 -0.0082 -0.3862  0.0003
12295W        W55286  25.820   0.573   2.842 -0.0187  0.3327 -0.0962
12296W        W55287  30.624   2.518  25.407 -0.0673  0.0697  0.0777
12297W        W55288  21.143  24.297  19.739  0.0889  0.1272 -0.0413
12298W        W55289  26.600  13.041  21.416  0.0644  0.1410  0.0950
12299W        W55290  19.038  27.021  22.279 -0.0850  0.2015  0.3108
12300W        W55291   3.893  23.078  19.395 -0.0381 -0.2119 -0.0963
12301W        W55292  12.098  20.645   0.443 -0.1222 -0.2776  0.1042
12302W        W55293  33.272  23.034  16.662 -0.1870  0.1196  0.2970
12303W        W55294  27.157   5.998  18.842 -0.1087  0.0680  0.0548
12304W        W55295  25.503  19.391  16.474 -0.1811 -0.2917  0.1335
12305W        W55296   0.812  15.378  21.210  0.1660 -0.1699 -0.0492
12306W        W55297  24.263  23.304  19.845  0.1460 -0.1958  0.1593
12307W        W55298  22.896  24.311  20.235 -0.0838 -0.0196 -0.3035
12308W        W55299   8.019  29.187  24.500 -0.0200 -0.3776 -0.1646
12309W        W55300  26.685  16.495   0.446 -0.0084 -0.2244 -0.1131
12310W        W55301   6.301  13.309  20.515 -0.1016  0.0692  0.0226
12311W        W55302  33.342  18.453  21.507 -0.0935  0.0550 -0.0146
12312W        W55303   0.018  10.146  15.649 -0.1196  0.2234  0.2088
12313W        W55304  20.990  28.519  20.925  0.0890 -0.3859 -0.0734
12314W        W55305   6.620  18.321  17.409  0.0975  0.1461 -0.0419
12315W        W55306  33.263  25.167  23.933 -0.0705 -0.1232  0.1198
12316W        W55307  29.105  15.611   0.700 -0.0240  0.0737 -0.2240
12317W        W55308  28.183   3.643  22.866  0.2034 -0.1339 -0.1268
12318W        W55309   6.137  20.953  18.915  0.2195  0.2825 -0.0919
12319W        W55310   0.478  12.149  22.416  0.0138 -0.2294 -0.0603
12320W        W55311   3.917  26.748   0.854 -0.1845  0.0811  0.0434
12321W        W55312   8.346  12.606  24.045 -0.1159  0.0985  0.0881
12322W        W55313  11.058   7.441  20.750 -0.1304  0.3791  0.1090
12323W        W55314  34.629  24.995  15.002 -0.1176 -0.0750 -0.0136
12324W        W55315  16.294  20.422  12.802  0.0405 -0.1870 -0.0069
12325W        W55316   8.454  15.690   0.310 -0.0986 -0.1006 -0.0175
12326W        W55317   4.876  28.167   0.368 -0.1658  0.1502  0.4542
12327W        W55318  22.080  15.222  19.856  0.0141 -0.1270 -0.2005
12328W        W55319  31.086  24.229  15.954 -0.0944  0.0601 -0.0846
12329W        W55320  27.977  13.641  20.913 -0.0200  0.0177 -0.1302
12330W        W55321  27.422   5.272  17.491 -0.0538  0.0870 -0.1787
12331W        W55322  32.722  18.423  16.829 -0.4013 -0.2059 -0.1085
12332W        W55323  25.120  18.222  17.840 -0.1245  0.4249 -0.3106
12333W        W55324  31.168  31.998  14.537 -0.0098 -0.0623  0.0692
12334W        W55325   1.967  29.100   6.626 -0.2315 -0.0886  0.2640
12335W        W55326   9.506  10.285  24.430  0.1370 -0.2071  0.1921
12336W        W55327   8.738  28.688  20.678 -0.0910  0.2386 -0.0394
12337W        W55328  11.867  26.080  17.848  0.1296  0.0149  0.1065
12338W        W55329  34.535  19.201  23.616 -0.1873 -0.0200  0.1735
12339W        W55330  32.907  33.510  20.007 -0.2057  0.3051  0.0356
12340W        W55331  30.093  19.670  21.702 -0.1575  0.1256  0.2552
12341W        W55332  29.354  19.632  26.999  0.1577  0.1061  0.0906
12342W        W55333  31.638  20.192  16.880 -0.2033  0.0291  0.3813
12343W        W55334  25.566  30.666  24.637 -0.0081  0.4674 -0.0529
12344W        W55335   1.632   0.543  16.651  0.0332  0.0789  0.0108
12345W        W55336  33.545  28.292   3.786 -0.0227 -0.2403 -0.1691
12346W        W55337   0.086  24.658  22.834 -0.0212 -0.0410  0.4189
12347W        W55338   1.743  10.286  25.356  0.0726 -0.3484 -0.0876
12348W        W55339   6.959  30.954  14.450  0.0669  0.1618  0.1812
12349W        W55340   6.247  13.281  15.524 -0.2001 -0.1472 -0.1726
12350W        W55341  30.799   0.004  20.017 -0.2516  0.2714  0.3410
12351W        W55342   7.876  18.582  18.900 -0.1619  0.1779 -0.1504
12352W        W55343   4.535  16.841  22.034  0.3125  0.0031  0.1014
12353W        W55344  31.942   0.508  20.779  0.1127 -0.3067  0.3044
12354W        W55345  25.087  11.472  29.127 -0.0299 -0.2256 -0.0639
12355W        W55346  11.982  21.676  19.526  0.2944  0.0383 -0.4661
12356W        W55347  15.577  22.325  18.259  0.1120 -0.0491 -0.0468
12357W        W55348  14.547  13.698  22.880 -0.1714 -0.1339 -0.0508
12358W        W55349  23.223   8.289  24.309 -0.1167 -0.3096  0.1901
12359W        W55350  22.028   1.971  17.257 -0.0199 -0.0542 -0.0975
12360W        W55351   9.664  18.387  19.253  0.0284 -0.1598 -0.1687
12361W        W55352  22.138  14.970  14.058 -0.0912  0.1436  0.0158
12362W        W55353   1.569  15.010  17.226 -0.2069 -0.0593  0.0492
12363W        W55354  28.427  13.106  17.842 -0.2608  0.0315  0.2608
12364W        W55355  32.066  11.723  16.970  0.0422 -0.2014 -0.2610
12365W        W55356  12.163  10.216  20.212 -0.1256 -0.1100  0.0818
12366W        W55357   5.971  30.399  15.224 -0.5822 -0.0686  0.4663
12367W        W55358   4.926  16.192  23.352 -0.0313 -0.0715  0.0414
12368W        W55359  32.398  15.278  18.266  0.1116 -0.0393 -0.1704
12369W        W55360  25.468  33.036  21.687  0.0960 -0.1640 -0.1000
12370W        W55361  33.538   4.453  19.726 -0.3881  0.2583  0.0840
12371W        W55362   3.271   9.534  19.094 -0.2086  0.0949  0.1734
12372W        W55363  31.910   5.332  28.580 -0.2268  0.2770 -0.0898
12373W        W55364  26.690  26.010  23.946 -0.0553 -0.0024  0.0140
12374W        W55365   9.799  21.730  14.422 -0.0015 -0.2326  0.0990
12375W        W55366  12.362  16.565  19.194 -0.0899  0.2836  0.0528
12376W        W55367   7.006  24.019  18.995  0.1653  0.1248  0.0067
12377W        W55368  17.353  24.411  26.004  0.3529  0.0972 -0.0935
12378W        W55369  34.133  12.987  19.560 -0.0441  0.0189 -0.1601
12379W        W55370   3.318  32.423  24.016  0.2127  0.0934  0.2509
12380W        W55371   1.222  21.392   3.729  0.3780 -0.2293 -0.0473
12381W        W55372  16.250  21.300  15.815  0.3844 -0.0685  0.0285
12382W        W55373   0.316  32.890  27.293  0.2439  0.0280  0.3545
12383W        W55374   3.413  10.692  22.927 -0.0328  0.2575  0.1502
12384W        W55375   1.054  19.795  19.078 -0.0671 -0.0248 -0.0100
12385W        W55376  12.690  25.033  20.258 -0.0601  0.3047  0.0824
12386W        W55377  30.013  12.667  21.487 -0.1431  0.1104  0.1654
12387W        W55378  14.278  22.506  16.250 -0.0944 -0.1350  0.2379
12388W        W55379   5.806  10.089  16.088  0.2453 -0.1818  0.1575
12389W        W55380  11.296   2.521   8.325 -0.0328  0.1627 -0.0186
12390W        W55381  12.128  20.436  13.737  0.4210 -0.2032 -0.1638
12391W        W55382  34.032  19.707  15.194 -0.1402  0.0528 -0.2335
12392W        W55383   1.723  24.167  21.242 -0.3572 -0.0484 -0.1372
12393W        W55384  34.747  25.741  25.561  0.0035 -0.1569  0.1551
12394W        W55385  27.224   7.069  24.737  0.1390 -0.0421  0.1105
12395W        W55386  24.002  20.833  20.622 -0.1024  0.1166  0.1027
12396W        W55387   3.171   7.959  21.191  0.0192 -0.5074 -0.1258
12397W        W55388  34.443  14.896   0.015 -0.0353 -0.2444 -0.2832
12398W        W55389  33.654  26.758  15.083  0.1195 -0.0636 -0.2752
12399W        W55390   9.389  32.752  19.550  0.0624  0.0484 -0.0930
12400W        W55391  22.677  29.596  28.437 -0.0833 -0.1576 -0.0725
12401W        W55392   1.318   6.221  27.756  0.1985 -0.2809  0.0582
12402W        W55393   7.420  14.509  23.849  0.0197  0.2748  0.1723
12403W        W55394   2.710  18.090  16.929  0.0509  0.0400  0.2310
12404W        W55395  18.564  26.411  26.503  0.1510  0.2524 -0.0304
12405W        W55396  33.266   1.466  20.386 -0.0758 -0.0575 -0.0005
12406W        W55397  29.700   3.997  16.024  0.1583  0.0666  0.1383
12407W        W55398   1.384  22.198  20.357 -0.0502  0.0801  0.0181
12408W        W55399  21.252  20.788  20.584 -0.4397 -0.0259  0.2017
12409W        W55400  18.426   1.139  26.793  0.0923 -0.0359  0.1022
12410W        W55401  33.122  32.108  16.270  0.4794 -0.1368  0.3205
12411W        W55402   0.681  14.339   0.889  0.0498  0.1425 -0.2239
12412W        W55403   1.035  20.181  14.406  0.0384  0.2111  0.1919
12413W        W55404  29.013  25.732  14.270  0.0733  0.0413 -0.3501
12414W        W55405  34.225  19.710   1.954  0.0308  0.1355  0.0191
12415W        W55406  29.565  23.315  15.148 -0.1634  0.0008  0.0274
12416W        W55407   2.026  16.285  25.065  0.2774 -0.1766  0.0964
12417W        W55408   9.130  22.952  16.001 -0.0485  0.1420 -0.1992
12418W        W55409   2.176   3.906  18.816 -0.2333  0.3695  0.0231
12419W        W55410   7.313  26.236  25.386  0.1546  0.2369  0.1635
12420W        W55411  32.282   3.323  20.914 -0.0678 -0.0508  0.1911
12421W        W55412   7.091  18.087  16.798  0.0054  0.0568 -0.0485
12422W        W55413  28.131   9.492  21.855  0.0247  0.2590  0.2078
12423W        W55414  20.230  32.565  19.800  0.0407  0.0054  0.0425
12424W        W55415   3.892  11.140  18.158 -0.1251  0.2278 -0.0727
12425W        W55416  20.184  12.104   5.941  0.2380  0.3796 -0.3320
12426W        W55417   7.424  17.875  24.202 -0.0729 -0.0287  0.1562
12427W        W55418  25.067  11.428   1.942  0.3656  0.1692 -0.4232
12428W        W55419  24.203  15.379  16.626  0.0559  0.5669  0.3973
12429W        W55420  33.614  22.923  24.017  0.1475 -0.0216 -0.2516
12430W        W55421   5.220  23.860  15.077  0.1444 -0.0970 -0.1208
12431W        W55422  25.827   2.238  12.679 -0.2112 -0.0753 -0.0822
12432W        W55423   2.692   3.069  18.101  0.0473  0.2489 -0.0701
12433W        W55424  11.732   0.459  18.570  0.1628 -0.2631  0.0596
12434W        W55425   1.772  23.016  17.669  0.0968 -0.1109 -0.2813
12435W        W55426  19.884  31.295   0.073 -0.0762  0.1491  0.1583
12436W        W55427  26.054  21.058  26.250  0.2939  0.1275 -0.1993
12437W        W55428   6.213  10.094  18.562  0.0219  0.3449  0.0628
12438W        W55429  26.086   9.402  23.640 -0.0746 -0.0393 -0.1495
12439W        W55430  23.402  10.643  22.920  0.0008  0.3134 -0.0281
12440W        W55431  29.583   2.884  15.180 -0.0868 -0.4415  0.0936
12441W        W55432  28.953  29.875  16.775  0.0686  0.1670 -0.1240
12442W        W55433  28.072  13.164  20.154 -0.1278  0.3798  0.0822
12443W        W55434   0.265  23.169  13.826 -0.0243 -0.5886 -0.4550
12444W        W55435   3.123  13.617  19.055 -0.2472  0.0252  0.1993
12445W        W55436   2.958  26.258  25.502  0.2968 -0.1061  0.1497
12446W        W55437   3.885  31.139  20.125  0.1833  0.1339  0.0105
12447W        W55438   7.307  30.306  14.928 -0.0006  0.2140 -0.0875
12448W        W55439   6.231  33.600  26.328 -0.2758 -0.0618  0.2814
12449W        W55440  31.250  17.076  24.280  0.0737  0.0720  0.5482
12450W        W55441   2.523  30.638  13.525  0.2009  0.0710  0.2423
12451W        W55442   1.742  28.825  18.092  0.2337  0.0575 -0.2607
12452W        W55443   3.514  15.362  26.518 -0.0242 -0.2967 -0.1919
12453W        W55444   3.163   7.325  29.088  0.0868 -0.1159  0.1166
12454W        W55445  29.330   7.729  16.856 -0.1436 -0.2535 -0.2338
12455W        W55446   8.513  23.648  15.116 -0.1867 -0.2491  0.0307
12456W        W55447  31.737  10.496   8.234 -0.2050  0.0137  0.2537
12457W        W55448   7.860   2.219   7.508  0.1528 -0.0636 -0.1306
12458W        W55449  33.602  29.777   1.713  0.1376  0.1200  0.0571
12459W        W55450   0.074   8.230  27.156  0.1682 -0.3579  0.0572
12460W        W55451  26.785  28.195  22.125  0.1731 -0.0273  0.0222
12461W        W55452  32.319   5.563  25.490  0.1787 -0.0601  0.1721
12462W        W55453   2.062  22.644  19.825  0.2507 -0.3809 -0.0442
12463W        W55454  27.920  27.769  27.077  0.0141 -0.1300 -0.1581
12464W        W55455  34.262   2.576  20.217 -0.0897  0.1987  0.0003
12465W        W55456  21.736  21.555  15.165  0.0453 -0.2596  0.2171
12466W        W55457  27.506   7.134  26.439  0.0623  0.2012 -0.0441
12467W        W55458  15.609  14.138  16.208 -0.0526  0.2610 -0.0793
12468W        W55459  31.321   8.588   2.357  0.1987 -0.3180 -0.2239
12469W        W55460  32.929   1.848  16.612  0.2513  0.0072 -0.0951
12470W        W55461  19.376  20.480  16.554  0.1589 -0.0934  0.2722
12471W        W55462  12.287  28.387   1.812 -0.0203  0.1384 -0.1194
12472W        W55463   9.792   4.547  15.023  0.0257  0.1215  0.1436
12473W        W55464   8.151  17.844  20.942  0.0128  0.0592  0.0754
12474W        W55465   1.800  18.315  18.165  0.0544  0.0164  0.2360
12475W        W55466  22.931  33.149   1.818  0.0601  0.1614 -0.0684
12476W        W55467   0.843  16.512  20.622 -0.1452  0.1137  0.0931
12477W        W55468  10.393  17.652  19.502  0.0804 -0.1643  0.0077
12478W        W55469  18.774  10.931  16.221 -0.0762  0.0007 -0.4071
12479W        W55470   1.893  26.019  18.948 -0.1621  0.2949 -0.0573
12480W        W55471   9.898   2.971   7.127  0.2841 -0.3565  0.1675
12481W        W55472   5.148  31.511  27.861  0.1065 -0.1196  0.0583
12482W        W55473  24.209  20.022  13.249 -0.4022  0.0792 -0.0878
12483W        W55474  28.895   1.548  19.413  0.2906 -0.2542 -0.2099
12484W        W55475   3.377  26.507  14.551 -0.0129 -0.1669  0.0128
12485W        W55476   9.947  15.990  22.862 -0.1966 -0.0744 -0.0959
12486W        W55477  32.148  22.925  24.009  0.1977 -0.0848 -0.0955
12487W        W55478   2.586  27.855  18.883 -0.0774 -0.1644 -0.1767
12488W        W55479  32.874   7.636  14.925 -0.1616 -0.1455  0.2602
12489W        W55480  33.388  22.556  28.224  0.0396  0.2833  0.1194
12490W        W55481  31.354  26.870  15.862  0.0840  0.0044 -0.0781
12491W        W55482  32.557  25.593  23.720 -0.0698  0.1126 -0.0089
12492W        W55483  28.271   1.138  22.031 -0.0375  0.1302 -0.3753
12493W        W55484   3.803  22.873   1.037 -0.2240 -0.1191  0.0539
12494W        W55485   0.600   6.984  17.327 -0.0748 -0.1589 -0.1769
12495W        W55486  33.604  34.134  25.707  0.1923  0.0147  0.2953
12496W        W55487  23.903  16.158   1.805 -0.1805 -0.2445  0.0312
12497W        W55488  32.311  27.032  23.756  0.0905 -0.4882 -0.2966
12498W        W55489   4.919  10.508  28.813 -0.0722 -0.1035  0.0984
12499W        W55490   3.796  19.769  16.114  0.2103 -0.0592 -0.0324
12500W        W55491  26.447  29.657   2.997 -0.0410 -0.1584  0.3297
12501W        W55492  11.072  23.373  20.092  0.0498 -0.0574  0.2243
12502W        W55493  15.089  13.833  20.193 -0.0420 -0.0379 -0.0275
12503W        W55494  29.404  11.931  18.133 -0.0672 -0.0355  0.1595
12504W        W55495  33.522   8.988   0.556 -0.2041 -0.0145  0.1010
12505W        W55496   0.738  28.534  18.536  0.1922  0.1995  0.1478
12506W        W55497   0.457  12.198  21.475 -0.1303 -0.0489  0.3080
12507W        W55498   0.271   9.425  16.957  0.0885  0.3972  0.1743
12508W        W55499   0.560  26.094  18.852  0.0367  0.0145 -0.0532
12509W        W55500  30.844  10.801  17.429  0.3917  0.2723 -0.2078
12510W        W55501   3.979   2.442   9.113 -0.0790 -0.1238 -0.2117
12511W        W55502  16.770  11.586  18.917 -0.0709  0.2700  0.3563
12512W        W55503  12.676  15.160  18.387 -0.1518  0.1385  0.0083
12513W        W55504  10.824  17.109  15.925 -0.0975 -0.2015  0.1029
12514W        W55505  34.518  32.771  18.882  0.1285 -0.3353  0.0613
12515W        W55506  16.663  30.424  13.479  0.4218 -0.0944  0.0057
12516W        W55507  11.721   9.016  15.320 -0.1040  0.0216  0.1759
12517W        W55508  13.355  12.815  18.455  0.1263 -0.1006  0.0767
12518W        W55509   2.424   5.518  23.357 -0.0019 -0.4698 -0.0198
12519W        W55510   1.628  16.132  16.812 -0.1125  0.1368 -0.0159
12520W        W55511  28.854  19.933   4.677  0.1716  0.5354 -0.0130
12521W        W55512  32.144  23.440  23.518  0.0049 -0.2350 -0.0042
12522W        W55513   0.988  16.485   0.906  0.1421 -0.0444  0.2292
12523W        W55514   6.860  12.840  15.866  0.1740 -0.1015  0.0681
12524W        W55515  27.072  19.558  24.638 -0.0093  0.1508 -0.0020
12525W        W55516   3.046  22.021  17.959  0.0600 -0.3944 -0.0391
12526W        W55517   7.176  17.826  26.052  0.3151  0.1288  0.1918
12527W        W55518   3.209  34.005  18.270 -0.3776 -0.0394 -0.1471
12528W        W55519   2.052  19.648  18.226 -0.0385  0.2881 -0.1537
12529W        W55520  34.412  20.652  16.523 -0.0410 -0.3332  0.1688
12530W        W55521  21.833  20.615   2.558 -0.0007  0.0120 -0.3569
12531W        W55522  25.199  11.121  19.699 -0.1862  0.0809 -0.1126
12532W        W55523  11.158  15.087  20.089 -0.0665  0.6646  0.0113
12533W        W55524  32.020  22.013  24.938  0.1299 -0.2596 -0.2874
12534W        W55525  27.677  21.177  14.426 -0.0105 -0.0910  0.1488
12535W        W55526  22.912  29.208  17.062 -0.0612 -0.1947 -0.2098
12536W        W55527  26.123  25.917  18.203  0.0905  0.2051  0.2722
12537W        W55528   6.902   4.235  20.135 -0.0804 -0.2030 -0.2896
12538W        W55529   0.378   0.943  17.155  0.0465  0.2093 -0.0535
12539W        W55530  11.947  19.489  25.988  0.2511  0.1723 -0.2766
12540W        W55531  32.592   9.335  19.105  0.2409 -0.0878  0.0850
12541W        W55532  14.745  14.960  22.371  0.1708  0.3153 -0.0191
12542W        W55533  29.383  27.094  19.916 -0.1416  0.0787 -0.0478
12543W        W55534  29.250  13.391  22.001 -0.0615  0.1765 -0.2209
12544W        W55535  33.257  14.160  22.763  0.1282 -0.0859 -0.1295
12545W        W55536  29.863  15.847  26.443  0.1009  0.0156 -0.0070
12546W        W55537   3.362  28.720   2.573 -0.2313 -0.3493 -0.1191
12547W        W55538  21.648  27.595  15.353 -0.0495  0.1302 -0.1718
12548W        W55539  21.333  20.673  16.690 -0.3044 -0.3371 -0.0728
12549W        W55540  25.589  20.208  16.719 -0.0898 -0.1717 -0.4618
12550W        W55541  14.722  27.797  14.819  0.0606  0.2681  0.0097
12551W        W55542  29.105  26.507  20.251 -0.0219 -0.0644 -0.0883
12552W        W55543  25.627  26.515   0.028 -0.3338  0.2120  0.2409
12553W        W55544   1.898  30.456  18.480 -0.1365  0.1548 -0.3497
12554W        W55545  33.904   9.340  16.351  0.0140 -0.1679 -0.1961
12555W        W55546  13.642  30.496  22.864  0.2716 -0.0509 -0.0752
12556W        W55547  33.849  20.143  26.202  0.1504  0.1455  0.0416
12557W        W55548  14.023  22.043  15.496  0.0697  0.2173 -0.0786
12558W        W55549  28.024   1.354  22.824  0.0024  0.0468  0.2982
12559W        W55550  31.116  14.130   3.284 -0.1529  0.0823 -0.2465
12560W        W55551   8.964   5.506   1.990  0.0209 -0.1728 -0.0531
12561W        W55552   5.552   5.051  20.813  0.0645  0.1464 -0.2768
12562W        W55553  18.318  30.646  15.946  0.2883 -0.0743  0.1061
12563W        W55554  27.544  11.583  24.434  0.0105 -0.1265  0.0150
12564W        W55555   1.500  28.717  24.618  0.0170 -0.3043 -0.2910
12565W        W55556  17.089  17.003  23.399 -0.1363  0.0949 -0.0477
12566W        W55557   6.840  34.523   0.947  0.1287 -0.0567 -0.0666
12567W        W55558   5.914  24.350  22.010  0.0025  0.0754 -0.1046
12568W        W55559  29.700  13.313  15.716 -0.0056 -0.0656  0.0879
12569W        W55560  15.711  11.585  14.393  0.0379  0.2245  0.0336
12570W        W55561   7.821  15.217  15.904  0.2207 -0.0770  0.0851
12571W        W55562  13.145  26.828  13.619 -0.1581 -0.1006  0.1407
12572W        W55563  11.158  21.518   1.304  0.3134 -0.0474 -0.3267
12573W        W55564  33.448   7.471  15.041 -0.0123 -0.0924 -0.1588
12574W        W55565   3.049   3.846  27.693  0.3783 -0.3675  0.3205
12575W        W55566  13.535  20.496  19.375 -0.1247  0.1093  0.1342
12576W        W55567  32.096  13.058  24.421  0.0456 -0.2682 -0.0973
12577W        W55568  29.157   1.072  19.332 -0.3041 -0.0713 -0.0535
12578W        W55569  21.663  17.222  24.151  0.1022  0.1828  0.3682
12579W        W55570   5.526  25.277  20.868 -0.4111  0.0450 -0.0567
12580W        W55571  20.421  30.333   0.630 -0.0909  0.0526 -0.1420
12581W        W55572  10.352  21.071  23.038  0.1178 -0.1727  0.0189
12582W        W55573   3.579  16.597  19.313 -0.0164 -0.2623  0.0829
12583W        W55574  29.235  11.894  16.276 -0.1753  0.2866 -0.2291
12584W        W55575   3.230  21.085   7.603 -0.5071 -0.2115  0.1629
12585W        W55576  10.012  19.359  16.916 -0.0020 -0.0243 -0.1894
12586W        W55577  34.312   0.702  21.300  0.1926  0.0461  0.0429
12587W        W55578  31.654  19.871  21.197  0.0492  0.1535 -0.1116
12588W        W55579   7.777  12.015  24.938  0.0033 -0.2034 -0.1172
12589W        W55580  31.780  28.204  25.480  0.4402  0.2126 -0.1547
12590W        W55581  10.231  31.749  19.540 -0.4545 -0.1938  0.1369
12591W        W55582   0.762   0.837  14.484 -0.0032 -0.3224 -0.1661
12592W        W55583  11.215  13.239  17.379 -0.1175  0.0299  0.1167
12593W        W55584   0.592  24.482  21.513 -0.1027  0.2516  0.0046
12594W        W55585  26.750  30.570   0.414  0.2084 -0.0399 -0.0541
12595W        W55586  34.454  31.688  13.205  0.3549  0.1011  0.0078
12596W        W55587   2.988  28.174  21.900  0.0985  0.1061 -0.0385
12597W        W55588  12.022  13.958  18.125 -0.3054 -0.0978 -0.2343
12598W        W55589  12.965  11.604  16.112  0.0905  0.1479 -0.1016
12599W        W55590   5.685  23.252  16.892  0.2241 -0.0155 -0.2477
12600W        W55591  21.500  22.782  26.174 -0.1696  0.5110  0.3045
12601W        W55592   2.101  19.612  26.737  0.2690  0.1923 -0.1053
12602W        W55593  34.022  13.485  21.338  0.1070 -0.1953 -0.1589
12603W        W55594  15.635   8.784  14.328 -0.2840 -0.2410 -0.0544
12604W        W55595  17.364  10.692  27.048 -0.0676  0.3022 -0.2159
12605W        W55596   4.000  16.764  19.711 -0.2378  0.2554 -0.0809
12606W        W55597  13.582  23.365  14.591 -0.1164 -0.1609 -0.0290
12607W        W55598  25.954   2.427   3.826 -0.2173 -0.2489 -0.3172
12608W        W55599  30.085   5.316  18.270  0.2063 -0.0063  0.1946
12609W        W55600  30.901  21.102  25.844  0.3865 -0.2060 -0.0240
12610W        W55601   3.603  26.288  25.336  0.0876  0.0784  0.0452
12611W        W55602   1.501  23.059  19.181  0.1070  0.0013 -0.1176
12612W        W55603   0.004  30.303  24.109 -0.1054 -0.1658  0.0531
12613W        W55604  25.598  29.127  14.537  0.1661  0.0897  0.0760
12614W        W55605  14.403  25.834  23.460 -0.0194  0.0917 -0.2526
12615W        W55606  11.014  23.063  20.483 -0.0441 -0.2313  0.0242
12616W        W55607   4.436  20.735  19.260 -0.2182 -0.1221  0.1836
12617W        W55608   1.201  15.547  12.125  0.3069  0.6159  0.3369
12618W        W55609   9.302  24.820  17.839 -0.0438  0.3506 -0.1131
12619W        W55610   8.921  22.331  21.191  0.2067  0.5355  0.6772
12620W        W55611  19.862   6.740   1.633  0.2634  0.1072  0.1278
12621W        W55612  14.254  24.059  18.320  0.3552 -0.0772 -0.1025
12622W        W55613   1.706  34.095   0.918 -0.1348  0.1858 -0.2357
12623W        W55614  15.543  30.140  15.828  0.2871 -0.3204 -0.0032
12624W        W55615  30.161  17.791   8.873  0.0781 -0.0393  0.0094
12625W        W55616  13.409  34.093  14.460 -0.1784 -0.3347  0.0479
12626W        W55617   4.614   7.885  23.422  0.0062  0.2713 -0.1439
12627W        W55618  10.603  19.204  17.753  0.2595  0.1138  0.4398
12628W        W55619  14.003  14.953  21.082  0.0538 -0.1416  0.0309
12629W        W55620   1.084  25.054  22.073 -0.0843 -0.1765 -0.0660
12630W        W55621  12.049   6.995  20.117  0.0819 -0.0827  0.1481
12631W        W55622  20.204  13.298  17.113  0.0078  0.2422  0.0137
12632W        W55623  28.834   5.465  24.054  0.0380 -0.0998 -0.0834
12633W        W55624  28.829  19.018  26.363  0.0468  0.1384 -0.0841
12634W        W55625  18.932  32.955   0.681  0.1060  0.2658 -0.1123
12635W        W55626  31.969  18.991  16.562  0.1681  0.0102 -0.0000
12636W        W55627   1.682  28.273  24.830  0.0472 -0.0594 -0.1139
12637W        W55628  28.827  21.042  20.732  0.1831 -0.2588 -0.0446
12638W        W55629  34.025   9.253  22.316 -0.1435  0.0488 -0.0801
12639W        W55630  16.854  11.230  28.103  0.0510 -0.1577  0.1385
12640W        W55631   0.218  24.295  28.958 -0.1073  0.0998  0.1751
12641W        W55632  20.579  26.843  17.280  0.2070 -0.0214 -0.1019
12642W        W55633  28.885  26.485  25.451  0.0194  0.2534  0.0385
12643W        W55634   3.724  23.716  14.825  0.0646 -0.0125 -0.1218
12644W        W55635  17.671   7.038  24.307 -0.3536 -0.2949  0.1420
12645W        W55636   1.454  18.914  18.748  0.1123 -0.0315 -0.3134
12646W        W55637   3.636   0.592  26.090  0.2006 -0.0309 -0.1699
12647W        W55638  32.880  20.588   2.317  0.2862  0.1385  0.2589
12648W        W55639   3.007  19.826  20.164  0.0212 -0.1509  0.0074
12649W        W55640   8.709  16.206  18.475 -0.3053  0.1284 -0.2616
12650W        W55641   9.100  22.556  14.567 -0.1044 -0.0601  0.0938
12651W        W55642  27.208  13.963  16.977 -0.1005  0.2037  0.0548
12652W        W55643  20.240  10.676  23.851 -0.2385  0.0490  0.0993
12653W        W55644   5.697  19.965  27.915 -0.1340  0.1281 -0.3321
12654W        W55645   5.724  31.416   1.002 -0.1343  0.2351 -0.0609
12655W        W55646  23.547   9.297  26.119  0.1147 -0.2370  0.3152
12656W        W55647  31.463  24.346  17.955  0.2411 -0.4599 -0.1252
12657W        W55648  29.602   3.102  26.052  0.1180  0.0287  0.1134
12658W        W55649  34.127   6.594   6.630  0.0590 -0.2080 -0.0394
12659W        W55650  20.535   0.064  27.570  0.1302 -0.1223  0.1013
12660W        W55651   0.210   9.457  21.643  0.0565 -0.0750 -0.0486
12661W        W55652   5.343  24.212  26.410 -0.0598  0.1394 -0.3178
12662W        W55653  25.979  34.614   0.418  0.3171 -0.0536  0.1823
12663W        W55654  28.346   6.125  27.843  0.0654 -0.1392  0.0951
12664W        W55655  33.088  25.993  19.112 -0.2612  0.1288  0.1854
12665W        W55656  33.387  17.760  16.935  0.2935  0.1237 -0.3021
12666W        W55657   6.900  23.911  14.868  0.3137  0.0597  0.2832
12667W        W55658  32.610  23.884  17.785  0.1518  0.0988  0.2360
12668W        W55659   6.909   6.966  25.862  0.3726 -0.0173  0.2534
12669W        W55660  20.513  28.335  17.568 -0.2098  0.1462  0.1531
12670W        W55661  22.935  12.644  17.164  0.0658 -0.1428 -0.1739
12671W        W55662   6.593  15.468  19.834 -0.0036  0.4186 -0.2332
12672W        W55663  28.170  13.086  20.711  0.0260  0.1341  0.0996
12673W        W55664   1.170   2.941  26.875 -0.4207 -0.0546 -0.4029
12674W        W55665  30.897  12.196  28.527  0.0598 -0.1005 -0.0450
12675W        W55666   3.305  23.241  17.461 -0.0011  0.3522  0.1076
12676W        W55667  26.787  11.174  18.118 -0.0320 -0.2639  0.4322
12677W        W55668  26.743   5.089   6.309 -0.1166  0.4245  0.0300
12678W        W55669   4.454   0.528  17.587  0.1698  0.0157  0.1727
12679W        W55670   8.357  15.782  16.594  0.0438  0.1097  0.1058
12680W        W55671  25.026  10.773  26.131 -0.3911  0.0901  0.0838
12681W        W55672   5.183  30.295  21.822  0.0532  0.0563  0.1458
12682W        W55673   1.577  29.666  12.994  0.2400  0.0975 -0.0583
12683W        W55674   5.818  24.050  19.712 -0.2974 -0.3690 -0.1463
12684W        W55675  34.143  13.761   2.463 -0.0243 -0.2624 -0.3259
12685W        W55676  12.840   3.965  18.203 -0.0709  0.1071 -0.2500
12686W        W55677  33.216  19.671   3.759 -0.0585  0.1657 -0.2188
12687W        W55678   6.953  19.201  19.062  0.2148 -0.0822 -0.1090
12688W        W55679   7.867   5.277  18.908  0.2303  0.1059  0.2254
12689W        W55680  30.257  14.946   7.120 -0.0688  0.1181 -0.1204
12690W        W55681  23.128  27.663  25.696 -0.0592 -0.0540  0.1181
12691W        W55682  16.188  23.366   3.267 -0.1386 -0.1530  0.0989
12692W        W55683   5.470   6.752  27.785  0.1159 -0.2336  0.0349
12693W        W55684  32.867  27.289  23.104  0.1618 -0.3474 -0.4127
12694W        W55685   9.936  17.928  10.363 -0.3496 -0.1980 -0.1977
12695W        W55686  20.716   1.772  23.089 -0.2425  0.0520  0.1487
12696W        W55687   2.640   9.238  16.178 -0.0098  0.1442  0.0684
12697W        W55688  32.173  18.919  15.286 -0.0948  0.0828  0.3397
12698W        W55689   2.952  26.471  14.313 -0.0023  0.2425 -0.0603
12699W        W55690  19.328  27.308  20.529  0.1193  0.1120 -0.1639
12700W        W55691  11.012  24.476  21.461 -0.1163 -0.3044  0.2706
12701W        W55692   8.216  12.134  18.371 -0.2404  0.0971 -0.1919
12702W        W55693  12.220   5.008   1.563 -0.0912  0.0014  0.1026
12703W        W55694  25.107   0.747  15.375  0.3346  0.1546  0.0071
12704W        W55695   1.607  20.179  23.596 -0.0913 -0.0248  0.0534
12705W        W55696  22.481  28.229   3.294 -0.1409  0.0842  0.1034
12706W        W55697  34.489  20.697  16.002  0.2541 -0.1444  0.0557
12707W        W55698   0.111  18.202  18.868  0.2091  0.1885 -0.0050
12708W        W55699  11.771  16.844  17.309 -0.3609 -0.2238  0.3002
12709W        W55700   1.170  27.110  21.091 -0.0315  0.0405 -0.2289
12710W        W55701   2.144  25.544  28.092  0.1208 -0.1159  0.0600
12711W        W55702  30.243  26.776   1.557 -0.0326  0.1364  0.1117
12712W        W55703  16.069   4.110  22.157  0.0647 -0.0814  0.0740
12713W        W55704   3.125  27.370   8.223 -0.3149 -0.1223  0.0248
12714W        W55705   6.144  32.349  25.562  0.0087 -0.1861 -0.2390
12715W        W55706  28.279  18.169  19.688  0.1367 -0.0823  0.1307
12716W        W55707  34.175  26.577   5.164 -0.0710 -0.1961 -0.2345
12717W        W55708  16.894  22.607  18.780  0.0127  0.4590  0.0173
12718W        W55709  31.618  14.561  16.150 -0.4338 -0.2332 -0.2141
12719W        W55710  23.072  14.828  22.158  0.1421  0.1178  0.1271
12720W        W55711  33.367   8.494   0.457 -0.2540 -0.1618 -0.0518
12721W        W55712   5.097  30.482  24.098 -0.0318  0.1989 -0.1310
12722W        W55713  15.072  25.961  21.190 -0.2849  0.0845 -0.0960
12723W        W55714  15.052  22.379  13.758 -0.1929  0.1931  0.0878
12724W        W55715  24.131  30.699  13.945 -0.2214 -0.1503  0.0339
12725W        W55716  24.342  13.457  26.095  0.0133  0.0190  0.4779
12726W        W55717  19.980  22.131  15.385  0.0891 -0.0347 -0.2043
12727W        W55718   5.513  17.390  22.923 -0.0354 -0.0423 -0.0464
12728W        W55719  11.291  23.353  14.722 -0.0115  0.3860  0.0157
12729W        W55720  19.165   8.664  19.740 -0.0455  0.1850 -0.0466
12730W        W55721  11.826  17.333  26.596  0.2635 -0.1100  0.3269
12731W        W55722   5.798  29.619  27.412  0.1873 -0.2128 -0.2522
12732W        W55723  28.528  25.069  21.887 -0.1164  0.4660  0.1581
12733W        W55724  31.051  15.829  23.673  0.1837 -0.0991  0.2587
12734W        W55725  23.167  25.631  27.450  0.0196 -0.1591 -0.4145
12735W        W55726  33.513  11.879  20.158  0.1126 -0.0837  0.2202
12736W        W55727   4.685  12.765  18.540 -0.1900 -0.3134  0.0936
12737W        W55728  12.850  22.210  16.840 -0.0661  0.0436  0.1467
12738W        W55729   6.167   9.976   4.240 -0.3023 -0.2469 -0.1434
12739W        W55730  33.211   5.771  18.848  0.1498  0.1307 -0.2618
12740W        W55731  27.954  14.878   1.702 -0.0858 -0.5034 -0.0326
12741W        W55732   8.461  30.033  22.315 -0.0532 -0.3326 -0.0374
12742W        W55733  12.568   3.343   4.167  0.1933 -0.0114  0.0803
12743W        W55734   8.908   8.694  27.624 -0.0416  0.1295  0.4132
12744W        W55735  15.376  29.701  23.825 -0.1268  0.0442  0.4492
12745W        W55736  26.591  22.485  24.322  0.2191 -0.0044  0.0777
12746W        W55737  32.131  12.219  21.213 -0.1416  0.2881 -0.0218
12747W        W55738  11.004  11.325  15.928  0.2729  0.3027 -0.0700
12748W        W55739   1.994   8.297  19.172 -0.1307  0.1888 -0.4282
12749W        W55740  30.401  24.604  16.181  0.4345 -0.0528 -0.0955
12750W        W55741  12.348   4.141  19.427  0.2334  0.2589 -0.1916
12751W        W55742  25.188  29.989  22.502 -0.1028  0.0440  0.4144
12752W        W55743  29.791   1.276  22.526  0.0611 -0.0881  0.1064
12753W        W55744  25.500   9.780  14.201  0.3104 -0.0905  0.2295
12754W        W55745   3.602  28.173  20.460  0.1471  0.1816  0.1304
12755W        W55746  24.546  17.801   1.097 -0.2384  0.0687 -0.1258
12756W        W55747  12.027  19.347  18.710 -0.3198 -0.0651  0.0504
12757W        W55748  11.636  12.934  17.117 -0.1931  0.2776  0.1307
12758W        W55749  22.775   4.355  12.996 -0.4663 -0.1308  0.1176
12759W        W55750  31.591   8.601  28.559  0.0428 -0.1348  0.0150
12760W        W55751  17.951  10.264  25.796 -0.1817 -0.0835  0.0007
12761W        W55752  30.479  17.642  16.686 -0.3053  0.0297  0.2629
12762W        W55753  34.188  20.314  15.236 -0.0912  0.1280 -0.0515
12763W        W55754  34.262  24.693   8.206 -0.0244 -0.2869 -0.3363
12764W        W55755   4.350  15.967  17.703  0.2533  0.1313  0.3055
12765W        W55756   2.560  24.611  21.669 -0.1113  0.3979  0.0642
12766W        W55757   4.401  10.941  15.177 -0.0920 -0.1654  0.1724
12767W        W55758   7.497   6.323   2.916  0.1390 -0.2442 -0.0587
12768W        W55759  26.297  15.180  16.092 -0.0479 -0.2117 -0.4119
12769W        W55760   7.370  30.624  16.649  0.1021 -0.0646  0.1182
12770W        W55761   9.609  16.199  28.710  0.2407 -0.0423 -0.1649
12771W        W55762   3.334  16.938  16.126  0.2876 -0.2110  0.1359
12772W        W55763   4.369  21.591  19.829  0.1572 -0.2628 -0.1217
12773W        W55764   3.260  26.315  21.871 -0.2476  0.2212 -0.2284
12774W        W55765  30.594  23.204   4.323  0.1870  0.1552 -0.2844
12775W        W55766   2.199  19.245  24.066  0.0761 -0.2401 -0.1086
12776W        W55767  32.952  21.534  15.806 -0.0301  0.0221 -0.1199
12777W        W55768  23.977  18.819  22.987  0.1685  0.2443 -0.1793
12778W        W55769  16.130  20.890  14.939  0.1712 -0.1133  0.0123
12779W        W55770   6.390  28.771  22.327  0.1935 -0.0400  0.1128
12780W        W55771  18.706  20.877  17.474  0.0656  0.0591 -0.0275
12781W        W55772   0.417  10.712  20.263 -0.1666 -0.2945  0.0717
12782W        W55773   6.809   9.924  16.092 -0.3211  0.0216  0.1145
12783W        W55774   3.569  32.342  15.456 -0.0165  0.2585 -0.1354
12784W        W55775   4.512  33.340  27.546 -0.1394 -0.0196 -0.1180
12785W        W55776   0.733  23.393  17.169  0.1669  0.0411 -0.2426
12786W        W55777  17.406  30.956  16.762 -0.0728 -0.2148  0.0065
12787W        W55778  18.003   5.649   3.535 -0.0750  0.0718 -0.1214
12788W        W55779  25.428  27.259  21.411  0.1431  0.0583 -0.4381
12789W        W55780  33.421   2.138  17.361 -0.3856 -0.1423 -0.1247
12790W        W55781   6.247  21.824  23.083 -0.0039  0.2458 -0.0488
12791W        W55782  31.456  16.572  23.303  0.0143  0.0768 -0.1705
12792W        W55783  20.442  25.968  14.534 -0.0181  0.1183  0.0380
12793W        W55784  12.931  17.644  24.073  0.1012  0.1332  0.0137
12794W        W55785  26.356  33.442  14.067 -0.2690  0.4073  0.1216
12795W        W55786  28.899  23.679  17.919  0.2449  0.1087  0.1140
12796W        W55787   4.380  30.807   5.828  0.1599  0.1170  0.3229
12797W        W55788  13.275  27.943  21.399 -0.0291 -0.1756  0.0011
12798W        W55789   0.076  16.129  20.990  0.1103 -0.2134 -0.0568
12799W        W55790   5.346  10.877   6.209  0.0344 -0.0078 -0.0787
12800W        W55791  33.400  24.720  19.830  0.1909  0.1822 -0.2901
12801W        W55792  34.391   8.581   3.841 -0.0341  0.0168 -0.2256
12802W        W55793   5.974  29.354  28.087 -0.2361  0.1623  0.0878
12803W        W55794  16.287  28.317   0.164  0.0528 -0.0577  0.1221
12804W        W55795   4.025  20.018  26.699 -0.3167 -0.0774  0.2588
12805W        W55796  28.293  20.576   0.779 -0.1906 -0.0006 -0.1402
12806W        W55797   5.627   5.692  21.661  0.0693  0.1003 -0.0406
12807W        W55798   2.906  24.499  23.124 -0.0604  0.1766  0.0107
12808W        W55799  31.693  25.283  27.709  0.2994  0.0917  0.0849
12809W        W55800   9.710  31.031  16.151  0.0257  0.0529  0.0854
12810W        W55801  27.905  15.358  19.256  0.0152  0.1006 -0.0673
12811W        W55802   7.467  15.009  15.547 -0.0538  0.0211 -0.0257
12812W        W55803  19.120   8.730  18.462  0.1777  0.1649  0.2787
12813W        W55804  33.216  25.568   4.151  0.0834 -0.0596  0.0194
12814W        W55805  21.603  17.465  15.344  0.1719 -0.1462 -0.4307
12815W        W55806  29.473  17.543  20.530  0.2641 -0.2344 -0.0557
12816W        W55807  10.175  18.545  20.103 -0.0732 -0.1593  0.1227
12817W        W55808  27.746   3.639  22.569 -0.4018  0.1161 -0.2302
12818W        W55809  14.099  12.618  22.053 -0.0074 -0.4720 -0.0490
12819W        W55810  25.121  11.124   3.148 -0.2876 -0.1263  0.0293
12820W        W55811  27.406  17.151   1.400  0.0174 -0.1514 -0.1130
12821W        W55812  32.286  19.144  26.513 -0.1574  0.0414 -0.0156
12822W        W55813   2.168  27.760  13.274  0.1208 -0.1950  0.2438
12823W        W55814  27.943   2.444  23.377 -0.0808  0.1820 -0.3210
12824W        W55815   7.549  25.246  29.200 -0.0178  0.1101 -0.1334
12825W        W55816  11.773  18.979  23.658  0.0938  0.2323 -0.2675
12826W        W55817  32.672   5.549   0.134  0.1244  0.0716 -0.0646
12827W        W55818  27.055   0.505  16.462  0.1068 -0.1762 -0.1641
12828W        W55819  29.210  18.848  28.859 -0.0278 -0.2625  0.1549
12829W        W55820  27.886  12.293   2.245  0.0435  0.2162 -0.5054
12830W        W55821  10.500  17.606  27.826 -0.1003  0.0978  0.0310
12831W        W55822  34.329  33.393  13.720 -0.2396 -0.0616  0.2179
12832W        W55823  26.418  34.467  22.733 -0.0966 -0.0622  0.0494
12833W        W55824  29.453  32.025  18.814 -0.0398  0.1839  0.0520
12834W        W55825  33.289   7.205   6.836  0.0152 -0.2075  0.3273
12835W        W55826  20.818  18.588  13.103 -0.1635  0.0365 -0.1314
12836W        W55827  19.894  21.519  21.725 -0.0088  0.1102  0.2851
12837W        W55828   9.925  16.840  23.247 -0.0469 -0.2524  0.0346
12838W        W55829  28.613  18.109  19.274 -0.2400  0.0279  0.4571
12839W        W55830   4.637  22.273  28.015  0.1072  0.0341  0.1204
12840W        W55831   8.690  21.855  27.909  0.3592 -0.1517  0.3041
12841W        W55832   2.738  23.265  10.018 -0.2809 -0.1603  0.1628
12842W        W55833  28.571   0.967  24.243 -0.1345  0.1324 -0.0557
12843W        W55834  15.483  16.907  13.281 -0.1154  0.0246 -0.0099
12844W        W55835  27.216  22.768  26.591 -0.3302 -0.0257 -0.1202
12845W        W55836   1.743  21.824  27.494 -0.1452  0.0439 -0.4240
12846W        W55837   5.402  21.738   7.053 -0.0553  0.0211 -0.0659
12847W        W55838   4.213  27.294   4.579 -0.0248 -0.2226 -0.0180
12848W        W55839  33.357   2.307   0.867  0.5410  0.0529 -0.0804
12849W        W55840   4.190   3.762   1.966 -0.0311  0.2370 -0.4338
12850W        W55841   5.948  18.030  15.236  0.0533  0.0968  0.0651
12851W        W55842   0.844  23.833  18.944  0.1040 -0.0648  0.0194
12852W        W55843  26.701   6.893  23.029  0.2634 -0.1188  0.1936
12853W        W55844  14.208   8.492  24.725 -0.0552 -0.1067  0.1843
12854W        W55845  29.565  31.252  20.639  0.0242 -0.0638 -0.0113
12855W        W55846  33.958  22.924  16.829  0.0111  0.0868  0.2893
12856W        W55847   2.179  24.097   2.748 -0.0508 -0.3188 -0.1360
12857W        W55848  32.110  20.384   5.891  0.0326 -0.1854  0.0705
12858W        W55849  24.044   4.038  18.451  0.1236  0.1894  0.1967
12859W        W55850  23.631  19.688  23.258  0.0081 -0.3358 -0.0833
12860W        W55851  10.865  27.827   7.901  0.0154  0.2739  0.0623
12861W        W55852  26.944  29.572  20.976  0.1135  0.2048 -0.1619
12862W        W55853  30.969  14.816   1.557  0.0565  0.0396  0.2323
12863W        W55854  26.758  17.275  25.297  0.2056 -0.0680  0.1847
12864W        W55855  13.007  18.202  17.382 -0.0345  0.0582 -0.0617
12865W        W55856  28.723  25.723  18.989  0.0929  0.1871 -0.4732
12866W        W55857  27.548  15.157  17.751  0.3982  0.2403  0.1576
12867W        W55858   7.830  25.088  14.090 -0.0806 -0.2499  0.1125
12868W        W55859  22.482  18.265  28.498 -0.2269 -0.1426 -0.3597
12869W        W55860  31.762  27.977   6.615  0.0211  0.1710 -0.2768
12870W        W55861  11.388  19.541  23.759  0.0645 -0.0926  0.4087
12871W        W55862  30.649  10.898  14.745  0.4555 -0.1902  0.1955
12872W        W55863   0.454  15.050  21.558  0.2119  0.2210 -0.1906
12873W        W55864  11.992  24.339  21.213  0.0970  0.1740  0.2473
12874W        W55865  17.884   8.064  27.119  0.0466 -0.2371 -0.2687
12875W        W55866   1.651  34.749  16.367 -0.0901  0.0758 -0.0408
12876W        W55867  26.649  16.774  18.716  0.0209 -0.0754 -0.1241
12877W        W55868  31.206  10.358  25.127  0.0463  0.3161  0.0095
12878W        W55869   6.372  33.021  23.738 -0.2163 -0.1096 -0.1774
12879W        W55870   0.420  10.954  27.891  0.3316 -0.1034 -0.1356
12880W        W55871  30.028  11.410  18.488 -0.1843  0.0498  0.1161
12881W        W55872  26.364  32.006   0.313  0.1773 -0.2432  0.2928
12882W        W55873  10.377  17.812  22.934 -0.0220 -0.1049  0.3734
12883W        W55874  33.487   8.182  18.829  0.0248  0.0466  0.1394
12884W        W55875  32.262  29.141   2.979 -0.0456  0.0807  0.0628
12885W        W55876   3.943  29.425  22.916 -0.4412  0.1076 -0.2703
12886W        W55877   0.261  27.927   2.238  0.1344 -0.2400 -0.2405
12887W        W55878  33.537   1.681  15.831 -0.0338 -0.0682 -0.0391
12888W        W55879  31.129  21.546  22.452  0.2390 -0.1070 -0.1488
12889W        W55880  18.518  13.994  21.558  0.0272  0.3097 -0.1430
12890W        W55881  18.812  13.936  12.907  0.3664  0.0787  0.1928
12891W        W55882  27.917  18.811   5.974 -0.1586  0.0053 -0.2794
12892W        W55883  28.962   3.159  20.128 -0.3455 -0.1190  0.3620
12893W        W55884   5.864  27.723  18.389 -0.0708 -0.0367 -0.3106
12894W        W55885  33.705  17.836  25.116  0.2771  0.0468 -0.3189
12895W        W55886   5.341  34.012  28.528 -0.2482  0.1519  0.2588
12896W        W55887   8.324  16.935  22.650 -0.2595  0.0352  0.0452
12897W        W55888  31.365  33.012  20.906 -0.1800 -0.0602  0.0549
12898W        W55889   4.974  23.186  28.845 -0.0497  0.0475 -0.1625
12899W        W55890   5.255  29.158  17.672 -0.1889  0.0590 -0.1310
12900W        W55891  27.162   9.910  19.898  0.2537  0.0311 -0.0449
12901W        W55892   1.388  23.879   1.118 -0.3257  0.0975 -0.1120
12902W        W55893   6.968  18.004  21.779 -0.0810  0.0446  0.2470
12903W        W55894   6.286  16.050  27.024 -0.2554  0.0791 -0.1948
12904W        W55895  12.918  24.983  19.835  0.1016 -0.0185  0.4699
12905W        W55896  10.653  17.559  15.786 -0.0010  0.2552  0.1534
12906W        W55897  28.956  13.619  25.899  0.0405  0.1456  0.0266
12907W        W55898  14.107  17.135  15.579 -0.0653 -0.0637 -0.1143
12908W        W55899  13.021  18.102  16.881  0.1647 -0.0909  0.0957
12909W        W55900  11.052  11.866  19.971 -0.0688 -0.1665 -0.1322
12910W        W55901  31.600  15.449   3.184 -0.1038  0.4771 -0.2011
12911W        W55902  12.808   8.551  14.905  0.3162 -0.2686  0.4350
12912W        W55903   0.576  11.960  18.949  0.1085  0.0758  0.1185
12913W        W55904  12.517   3.002   3.825  0.0406 -0.0147  0.0123
12914W        W55905   0.453   6.789  28.040  0.0685 -0.1376  0.0626
12915W        W55906  28.814  12.649  16.726  0.2654 -0.0004  0.0501
12916W        W55907   3.694   6.908  22.689  0.3026 -0.2547  0.0483
12917W        W55908   6.310  30.039  22.753 -0.0950 -0.3231  0.1272
12918W        W55909   8.474  11.984  27.801 -0.4223 -0.1166 -0.1385
12919W        W55910  14.520  19.880  16.470  0.2672  0.0798  0.2835
12920W        W55911  33.250  16.635   0.356  0.0582 -0.0122  0.3179
12921W        W55912   0.279   4.768  16.386 -0.1195  0.2639 -0.1056
12922W        W55913  12.101  25.152  18.316 -0.1414  0.2033  0.0666
12923W        W55914   1.818  16.454  17.763  0.0462  0.0998 -0.0273
12924W        W55915  29.353  11.203  22.394 -0.0102 -0.0874  0.2347
12925W        W55916   0.606  12.122   2.967  0.0387  0.0993  0.0219
12926W        W55917  25.381  28.653  16.507 -0.1003 -0.0207  0.3021
12927W        W55918  28.233  17.382  19.965 -0.1245 -0.0146  0.2301
12928W        W55919  31.618  25.428   6.871  0.0682  0.1323  0.0935
12929W        W55920  34.219  24.420   1.050  0.2355  0.2583 -0.2141
12930W        W55921  13.595  13.567  16.038 -0.0648 -0.1116 -0.0219
12931W        W55922   3.986  25.863   1.901 -0.0453  0.0727 -0.0190
12932W        W55923   8.738  14.765  16.945  0.1920  0.2433  0.0171
12933W        W55924   4.909  24.296   0.370  0.1331  0.0210  0.0349
12934W        W55925  14.573  28.165  16.049  0.1094 -0.1812 -0.0074
12935W        W55926   6.422   3.039  20.197  0.1071  0.0029 -0.1637
12936W        W55927  29.756  10.640  14.864 -0.1942  0.0097 -0.2231
12937W        W55928  30.207  13.273  15.743  0.1595  0.3120  0.3629
12938W        W55929   9.253  25.232  25.915  0.0639 -0.4239 -0.0655
12939W        W55930  27.368  20.977  15.627 -0.0036 -0.2218 -0.1265
12940W        W55931   4.624  12.164   9.583 -0.2359 -0.1941 -0.1499
12941W        W55932   3.011  25.034  23.002  0.2716  0.0276  0.0420
12942W        W55933  31.305  10.853  23.462  0.0446  0.1111  0.0363
12943W        W55934  11.160  18.638  25.483 -0.0829 -0.1958 -0.2264
12944W        W55935  12.142  19.638  19.083  0.3453  0.1952 -0.1103
12945W        W55936   6.139  15.987  29.036  0.3843 -0.2608 -0.0075
12946W        W55937  31.104   8.587  16.685 -0.0666 -0.1486 -0.0164
12947W        W55938  33.318   3.814   2.603 -0.2316 -0.0615  0.1443
12948W        W55939  14.502  27.783   1.654 -0.0963 -0.0081 -0.0266
12949W        W55940  30.997   8.318  24.139 -0.3358  0.2338 -0.0505
12950W        W55941  30.064  12.143  16.326  0.0389  0.2423  0.0923
12951W        W55942  29.354  14.279  29.110 -0.0396 -0.0688  0.1370
12952W        W55943   8.019  24.703   5.834  0.2117 -0.3146 -0.4042
12953W        W55944  28.881   3.103  13.836  0.1520 -0.0531  0.2536
12954W        W55945   5.757  32.457  26.752  0.3766  0.2517  0.0190
12955W        W55946   0.487  27.136  22.104  0.3987 -0.0072 -0.3783
12956W        W55947   8.209   6.686  16.563 -0.3875  0.0642  0.2417
12957W        W55948   9.310  25.133  24.476 -0.1732 -0.1070 -0.0936
12958W        W55949  15.591   7.621  21.924  0.0235  0.1000 -0.0456
12959W        W55950  21.170   9.835  15.450 -0.1340  0.1595  0.0190
12960W        W55951  10.688  29.289  16.023  0.4702 -0.3303 -0.2463
12961W        W55952  18.231  11.176  19.729  0.1056 -0.2358 -0.0408
12962W        W55953  27.832  26.775  13.597  0.0558  0.1194 -0.1136
12963W        W55954  25.557  26.837  14.449 -0.2743 -0.3217  0.1792
12964W        W55955  29.467  18.902   1.468 -0.2147  0.3144 -0.2403
12965W        W55956  10.664  23.400  23.577 -0.1212 -0.0187  0.0738
12966W        W55957  13.721  23.005  26.416 -0.4117  0.1977 -0.0659
12967W        W55958  30.458   3.222  20.556 -0.2218  0.1990  0.3477
12968W        W55959   1.620  22.508  17.643 -0.3593  0.0841 -0.0609
12969W        W55960  31.898  25.103  20.816 -0.2319  0.1610  0.2454
12970W        W55961  29.177   2.955   3.084 -0.1153 -0.0364 -0.2330
12971W        W55962  12.727  19.730  26.839  0.1851 -0.2740 -0.1618
12972W        W55963  33.035  22.014  20.429 -0.3431 -0.1636 -0.0096
12973W        W55964  13.084  17.783  23.254 -0.0696  0.1211  0.4648
12974W        W55965   6.218   2.873  28.641  0.0199 -0.1896  0.0432
12975W        W55966   5.233  12.649   1.077 -0.2636  0.2472  0.0292
12976W        W55967   4.930  16.286  16.456  0.0204 -0.1150 -0.3021
12977W        W55968   1.153  20.662  18.248  0.2415 -0.6176  0.1062
12978W        W55969   5.802  32.657  13.806 -0.2050  0.2333 -0.2487
12979W        W55970   2.173  22.718  22.923  0.3953 -0.2311  0.1710
12980W        W55971   8.049  19.394  15.166  0.0884 -0.5512  0.1852
12981W        W55972   7.033  13.041  23.570 -0.1999 -0.3157 -0.0241
12982W        W55973  29.664  18.666  17.349 -0.1556  0.3033 -0.3705
12983W        W55974   0.296  20.207  22.454 -0.0515  0.0425  0.1773
12984W        W55975  33.281  22.370  24.161 -0.2931 -0.2301 -0.0783
12985W        W55976  34.598  15.056  17.597 -0.2495  0.0487  0.1286
12986W        W55977   1.478  21.334   7.213 -0.0393 -0.2266  0.0210
12987W        W55978   1.522   3.729   1.190  0.2603 -0.2804 -0.3135
12988W        W55979   6.258   6.597   1.607  0.3322  0.1266  0.0428
12989W        W55980   5.188  29.278  27.224 -0.0226  0.0287 -0.0450
12990W        W55981  16.602  14.712  16.063 -0.3014 -0.3862  0.0157
12991W        W55982  22.518  11.827  23.114 -0.1157  0.1299 -0.1479
12992W        W55983   1.850   7.128  25.890 -0.0807  0.1217 -0.0811
12993W        W55984  11.952  28.295  23.798 -0.2718  0.1372 -0.0002
12994W        W55985   1.971  20.031  20.251 -0.0023 -0.0565  0.0115
12995W        W55986   0.574  18.038  22.357 -0.0290 -0.2294 -0.1328
12996W        W55987   3.649  24.907  24.209  0.1868 -0.1682  0.2071
12997W        W55988   4.795   3.520  22.908  0.2599 -0.0876 -0.1114
12998W        W55989  23.585   4.235  23.122  0.2039 -0.0177  0.1789
12999W        W55990  32.165   1.956  23.529 -0.0616  0.0931 -0.0232
13000W        W55991  33.270  13.662   0.831 -0.1901 -0.0384  0.0175
13001W        W55992  32.827  11.909  23.994  0.0506  0.4405 -0.0730
13002W        W55993   2.176   0.116  18.443 -0.0021  0.2407  0.1220
13003W        W55994  34.626  19.699  25.285  0.1187 -0.0668  0.3732
13004W        W55995  34.270   9.142  18.304 -0.4076  0.0867 -0.0314
13005W        W55996   5.885  29.041  15.334 -0.0218 -0.0463 -0.0332
13006W        W55997  28.594  21.834   3.601 -0.0654  0.0313 -0.2843
13007W        W55998  31.365  17.392  19.406 -0.0786  0.0765  0.1397
13008W        W55999  31.465  10.762   4.461  0.2170 -0.1172 -0.3134
13009W        W56000  26.991  21.328   0.230 -0.0372  0.0734 -0.3408
13010W        W56001   8.686  14.181  16.889  0.0409  0.0919  0.0389
13011W        W56002  33.080   5.634   7.592 -0.0835 -0.3375  0.0762
13012W        W56003   1.725  30.972  20.570  0.2894 -0.0269 -0.2222
13013W        W56004   7.172  23.616  15.164 -0.0414  0.3071 -0.0732
13014W        W56005   2.535  15.886  16.628 -0.2251  0.0367 -0.1178
13015W        W56006   3.423   8.550  16.464  0.2060  0.2877 -0.2006
13016W        W56007  23.432   1.314   0.099  0.0786  0.0067 -0.2600
13017W        W56008   5.270  12.292  27.301 -0.1393 -0.0302  0.0798
13018W        W56009  19.175  22.877  24.104  0.0287  0.2822  0.1055
13019W        W56010   5.060  34.641  20.777 -0.0648 -0.0158  0.2180
13020W        W56011  33.000  25.264   2.556  0.2364 -0.2077 -0.0883
13021W        W56012  24.711  13.071  18.692  0.1866 -0.0986  0.0106
13022W        W56013  14.410  32.328  19.062  0.0195 -0.0653  0.0105
13023W        W56014   3.996  18.277  21.486  0.2688  0.1402  0.3913
13024W        W56015  14.612   6.391  25.309  0.4240 -0.1421  0.1516
13025W        W56016   0.123  24.050  16.083  0.3080  0.0027  0.0865
13026W        W56017   6.678  10.127  25.559  0.1685  0.2269 -0.0332
13027W        W56018  24.928  33.801  22.075  0.0246 -0.3979 -0.1027
13028W        W56019   6.930  17.545  19.010 -0.0876 -0.2461  0.3354
13029W        W56020   7.795  10.992  17.073  0.3993 -0.0084 -0.1051
13030W        W56021  22.327   7.876  26.428  0.0238 -0.1685  0.1860
13031W        W56022  25.872   9.166   1.304 -0.1140 -0.1983  0.1747
13032W        W56023  10.975  17.954  16.209 -0.3429 -0.2867  0.1435
13033W        W56024   7.257  25.794  17.522 -0.0075 -0.1811 -0.0370
13034W        W56025  31.951  14.542   0.909  0.0069  0.3250 -0.0536
13035W        W56026  24.784  21.981   4.776 -0.2946  0.0184  0.2452
13036W        W56027  13.470   7.952  15.913 -0.0806  0.0860 -0.2164
13037W        W56028   3.955  21.081  25.305  0.0700 -0.0193  0.3229
13038W        W56029  20.540  23.932  19.231  0.0475  0.0708 -0.1780
13039W        W56030   0.569  28.158  12.868 -0.3903 -0.0656 -0.0749
13040W        W56031  14.482   1.236   2.720 -0.2987  0.2960  0.0860
13041W        W56032   4.087  14.269  19.798 -0.0085 -0.1277  0.0183
13042W        W56033  29.007  24.913  20.677  0.0076  0.4178  0.0762
13043W        W56034   1.366  16.348   5.528  0.3169 -0.0807 -0.1973
13044W        W56035  16.926  33.613  26.178 -0.1270  0.0042  0.1338
13045W        W56036  15.295  19.200  15.217 -0.1516  0.2126  0.2733
13046W        W56037  31.002  11.999  23.506  0.0178  0.3692 -0.2175
13047W        W56038   5.646  14.183  23.930  0.3482  0.0768  0.3636
13048W        W56039  23.579  33.720  18.542 -0.2152  0.2030  0.0882
13049W        W56040   5.014  19.040   6.779  0.1491 -0.1321 -0.0249
13050W        W56041   4.247  19.369  27.687  0.1321  0.0584  0.2148
13051W        W56042   0.754   1.845  22.938 -0.1161  0.2233 -0.1140
13052W        W56043   3.471  21.406  21.718 -0.2606 -0.0184 -0.0362
13053W        W56044  27.242  12.616   4.228 -0.1285  0.3244  0.1530
13054W        W56045   8.330   3.852  24.799  0.0494 -0.2351 -0.1595
13055W        W56046  30.415  21.785   0.172 -0.1306  0.0839  0.1191
13056W        W56047  30.682  34.535  13.026 -0.0408  0.2586 -0.0619
13057W        W56048  14.589  30.934   1.949  0.0350 -0.4277 -0.0672
13058W        W56049   8.110  26.812  20.350  0.0178 -0.0371 -0.5182
13059W        W56050  19.936  28.930  23.158  0.1397 -0.0369  0.1597
13060W        W56051  11.405  21.210  28.646  0.2450 -0.1796 -0.0777
13061W        W56052  13.715  23.194   0.458 -0.0172  0.0385 -0.1440
13062W        W56053  29.367  32.726   0.783 -0.0596 -0.1039  0.2323
13063W        W56054  16.702  18.655   1.946 -0.2550 -0.1417  0.2309
13064W        W56055  34.193  19.070  16.541  0.0901  0.0071 -0.0235
13065W        W56056  28.714  10.920   4.960 -0.0245 -0.1514 -0.0150
13066W        W56057   4.766  29.517   5.681  0.2524  0.0522  0.2532
13067W        W56058   6.914  21.457  15.010 -0.0574  0.1129 -0.0458
13068W        W56059  31.449  22.936  28.856 -0.0901 -0.1506 -0.2494
13069W        W56060   9.644  20.851   0.262 -0.1728 -0.0208  0.3310
13070W        W56061   2.405  31.521  16.933 -0.3306  0.0957 -0.0742
13071W        W56062   6.828  23.918  24.494  0.2247 -0.2118 -0.2260
13072W        W56063   3.226  22.747  29.060 -0.0923 -0.4306 -0.1324
13073W        W56064  28.469  27.602   4.830 -0.1037 -0.0155  0.0453
13074W        W56065  27.169  27.937  27.491  0.0456  0.1462 -0.0624
13075W        W56066  22.993  10.195   3.849  0.1623  0.1346  0.2140
13076W        W56067  15.874  12.577   5.394 -0.1411  0.0559  0.1501
13077W        W56068  29.775  21.647  18.453 -0.2064 -0.0811  0.0483
13078W        W56069   7.868  10.216   6.663 -0.0618  0.1368  0.1496
13079W        W56070   0.553   2.799  19.665  0.1254  0.1381 -0.0981
13080W        W56071   0.828  21.726   2.640 -0.2303  0.3460  0.0496
13081W        W56072  22.599   3.151  26.549 -0.1569  0.1494  0.0816
13082W        W56073   9.284  18.093  15.273  0.0065 -0.2318 -0.0999
13083W        W56074  29.519  33.453  29.201  0.1406 -0.3204 -0.0515
13084W        W56075   7.903  28.368  19.791  0.0474 -0.1639  0.1109
13085W        W56076  31.748   5.353   4.326  0.0351  0.1091  0.1670
13086W        W56077   2.167  14.000  21.682 -0.0915  0.0049 -0.0236
13087W        W56078  10.841   7.639   4.107  0.0359  0.4674  0.3771
13088W        W56079   4.417  11.807  15.263  0.0335 -0.0151 -0.4105
13089W        W56080  31.633  25.039   2.762 -0.2109 -0.5126 -0.1753
13090W        W56081   4.123   3.349   5.915 -0.1939 -0.1910  0.2053
13091W        W56082  32.421  29.979  23.053  0.1201  0.1792 -0.2721
13092W        W56083  24.175  22.003  28.849 -0.0033 -0.1730 -0.2438
13093W        W56084  28.093   0.074  24.045 -0.0793  0.1195 -0.2487
13094W        W56085  26.388   7.018  22.596 -0.1826 -0.0063  0.0133
13095W        W56086   1.405  13.791  22.380 -0.4237 -0.0446  0.1387
13096W        W56087  29.266  12.037  25.877 -0.2854  0.1010  0.0189
13097W        W56088  24.131  14.044  14.189 -0.0825  0.0334  0.0722
13098W        W56089   1.918  30.487  20.152 -0.1789  0.2115 -0.4201
13099W        W56090  23.656   7.996  18.718 -0.0073  0.1943  0.1169
13100W        W56091  31.507  20.060  18.940  0.3731  0.2116 -0.0695
13101W        W56092  14.841   3.019  17.125  0.0819  0.1510 -0.0254
13102W        W56093  13.072   1.087  21.859  0.3328  0.1171  0.0084
13103W        W56094   0.612   2.288  26.161 -0.2415 -0.1560  0.1026
13104W        W56095   7.517  20.027  20.542  0.1295  0.1330 -0.3295
13105W        W56096   8.865   0.206  22.900  0.2924 -0.1683 -0.1806
13106W        W56097  12.645  15.228  20.333  0.0005 -0.2759  0.0698
13107W        W56098   5.923   2.580   3.250 -0.0590  0.1078 -0.0329
13108W        W56099  27.751  13.533  21.485  0.0694 -0.0364 -0.1475
13109W        W56100   3.115   3.596  16.055  0.1419 -0.3912 -0.2184
13110W        W56101  34.232  20.336  18.659 -0.2479 -0.3155  0.2028
13111W        W56102   8.838  10.900   5.998 -0.1373  0.2298 -0.2025
13112W        W56103   1.246  28.068  19.749  0.2906  0.1242 -0.3313
13113W        W56104  32.137  19.792  24.738 -0.0375 -0.2473 -0.2838
13114W        W56105   3.095   0.487  16.781 -0.1541 -0.3113 -0.3543
13115W        W56106  28.351  31.207   3.586  0.1422 -0.0544  0.3121
13116W        W56107  10.498  23.361  21.852  0.2431  0.2159  0.1738
13117W        W56108   3.507  17.496   1.455 -0.1589 -0.1367  0.1554
13118W        W56109   7.876   8.385   6.938 -0.2358  0.0974  0.0086
13119W        W56110  33.486   9.146   4.670 -0.3201 -0.2053 -0.0978
13120W        W56111   9.028  20.075  27.293 -0.0988 -0.0133  0.0537
13121W        W56112  12.482   7.408   4.856 -0.1413  0.3442  0.1220
13122W        W56113   3.466   4.459  18.415 -0.0244 -0.1043  0.0239
13123W        W56114  12.223  15.772  18.223 -0.2351 -0.0671 -0.2831
13124W        W56115  16.249  30.198  17.214  0.0168  0.0075 -0.1504
13125W        W56116   2.940  24.700  19.234 -0.0803  0.0792  0.1859
13126W        W56117  13.486  28.605  19.441  0.2147 -0.1544 -0.0686
13127W        W56118   6.924  18.499  21.229 -0.1488  0.1466 -0.0723
13128W        W56119   7.905   6.604  20.031  0.2752  0.0010  0.0016
13129W        W56120  33.696   6.489   5.656 -0.1295 -0.0367 -0.1762
13130W        W56121   8.955  10.866   0.669  0.1972 -0.0109 -0.1230
13131W        W56122  34.444  27.919  16.996 -0.0365  0.1874 -0.1409
13132W        W56123  18.404   0.727  19.225 -0.3173 -0.0881  0.1622
13133W        W56124  11.080  21.738  18.860  0.0175 -0.0856 -0.0574
13134W        W56125  31.392  34.238   8.613 -0.0921  0.0339  0.3001
13135W        W56126  34.522   2.146  18.093  0.0458  0.1927 -0.0419
13136W        W56127  25.884  15.932  22.895 -0.3784 -0.4919  0.0085
13137W        W56128  29.423  21.763   1.881 -0.2321  0.2133 -0.0078
13138W        W56129   6.536  19.988  26.121  0.0115  0.0324 -0.1967
13139W        W56130  30.545  18.649  23.269  0.3439  0.2162 -0.0714
13140W        W56131   0.833  15.107   5.844 -0.2146 -0.1636 -0.1137
13141W        W56132  33.454   3.939  23.419 -0.2376 -0.0095 -0.0071
13142W        W56133  19.345   2.205  24.534 -0.0116  0.2435  0.3547
13143W        W56134  21.313   8.191  15.516  0.1738  0.2429  0.3861
13144W        W56135  31.884  19.032  26.773 -0.0501  0.1619  0.1568
13145W        W56136   7.782  25.490   8.486 -0.1076 -0.3232 -0.0102
13146W        W56137   1.141  27.530  24.115  0.3629  0.1003 -0.3533
13147W        W56138  23.445  22.070  20.606 -0.0781  0.2162  0.0090
13148W        W56139  13.674  25.782  20.032 -0.3010 -0.1127 -0.0786
13149W        W56140  24.449  20.655  13.645  0.2873 -0.1099 -0.2598
13150W        W56141   3.991  14.379  23.421  0.2767 -0.2316  0.0062
13151W        W56142   9.610  28.907  15.933 -0.0130 -0.0195 -0.1242
13152W        W56143  28.717  19.796  27.889 -0.0384 -0.0295  0.0362
13153W        W56144  22.430  13.676   9.284 -0.2890  0.2355  0.0168
13154W        W56145  11.202  27.602  19.362  0.3984  0.3002 -0.0509
13155W        W56146  12.633   8.932  10.538  0.1318  0.0001 -0.3207
13156W        W56147  23.758  18.851   0.328 -0.1890 -0.2030 -0.0585
13157W        W56148  33.203  21.401  14.619 -0.0694  0.0636 -0.1466
13158W        W56149   7.511  18.780  19.175  0.2745  0.0150  0.1608
13159W        W56150  15.248   9.353  26.266  0.0899  0.0821 -0.0992
13160W        W56151  21.604  26.482  17.695  0.3037  0.1567  0.0944
13161W        W56152   9.576   8.833  27.949 -0.0442  0.1929  0.2652
13162W        W56153  14.434  23.096  13.751 -0.1642  0.2022 -0.1195
13163W        W56154  24.997   7.347  28.259 -0.1781 -0.2821 -0.2895
13164W        W56155  30.232  33.838  17.464  0.0079 -0.2487 -0.1835
13165W        W56156  15.285  29.299  20.130  0.3798  0.1313  0.2016
13166W        W56157  29.539  19.403  16.326 -0.2137  0.1975  0.2307
13167W        W56158   1.116  13.208   2.345 -0.1380 -0.1061 -0.2253
13168W        W56159   4.490   3.317  27.494 -0.0702  0.1842  0.3547
13169W        W56160  31.005  31.339  25.731  0.1049  0.0712  0.2006
13170W        W56161  19.965  16.753  25.673 -0.0296 -0.0372  0.1448
13171W        W56162   9.595  19.645   0.191 -0.3176 -0.1671 -0.1632
13172W        W56163   9.710  16.789  20.253  0.0596 -0.0697  0.0667
13173W        W56164   2.765  15.076  25.734  0.2380  0.0885  0.0532
13174W        W56165  28.575  26.458  16.332 -0.1805  0.1865  0.0376
13175W        W56166  14.555  15.469  25.170 -0.2658 -0.1746 -0.0889
13176W        W56167  19.742  21.971  13.740  0.1557  0.0249 -0.2898
13177W        W56168  10.640  12.775  28.436  0.2033  0.2104  0.0853
13178W        W56169  12.792  23.892  19.298 -0.0445 -0.1707  0.0027
13179W        W56170  25.483   6.478  26.493  0.1159 -0.1239  0.0752
13180W        W56171  28.455  24.440  16.884 -0.1755  0.1019 -0.0376
13181W        W56172   1.880  12.979  26.908 -0.1095  0.3605 -0.0787
13182W        W56173  28.951  16.802   6.266  0.1361  0.0614  0.0201
13183W        W56174  31.544  25.594  14.065  0.1309  0.2312 -0.1173
13184W        W56175  19.278  19.734  23.253  0.0017 -0.0003  0.1321
13185W        W56176   4.813  33.355  20.052  0.4210  0.2282 -0.2999
13186W        W56177  27.406  18.239   6.532  0.1007  0.0743 -0.2518
13187W        W56178  33.486  26.967  21.989  0.2005  0.2265  0.1844
13188W        W56179   8.858  29.837  17.230  0.2209 -0.1713 -0.2846
13189W        W56180   9.366  24.252  24.580  0.0215  0.0012  0.2158
13190W        W56181  31.148  31.203  13.545 -0.0319  0.0125 -0.0229
13191W        W56182  31.132  25.052  21.126  0.1294 -0.2432 -0.1004
13192W        W56183  23.399  19.572  15.648 -0.0381 -0.2488 -0.0433
13193W        W56184  23.290   1.280  16.045  0.1823  0.1734  0.1994
13194W        W56185   2.187  28.943   2.055  0.1252 -0.1225  0.3248
13195W        W56186  31.092  34.276  13.257 -0.2584 -0.2602  0.2155
13196W        W56187   3.690  12.888  21.921  0.0484 -0.1556  0.1865
13197W        W56188   0.092  11.579   1.826  0.1719 -0.0047  0.1614
13198W        W56189   9.747  27.904  17.698 -0.1269  0.1333  0.1607
13199W        W56190  10.540  14.433  27.194 -0.0418 -0.1751 -0.3775
13200W        W56191  30.732  23.703  17.542 -0.1438 -0.0105 -0.0503
13201W        W56192   1.438  26.649  23.602  0.0801  0.0260  0.0484
13202W        W56193  16.042  21.921  23.771 -0.0058 -0.1474 -0.2089
13203W        W56194  15.514  24.045  20.626  0.3776  0.0215 -0.0627
13204W        W56195   8.593   5.650  20.669  0.2927 -0.2350 -0.0191
13205W        W56196   0.293  24.894  24.770  0.0912  0.0234  0.0885
13206W        W56197   0.584   5.293   7.065 -0.1040  0.3373 -0.0065
13207W        W56198   0.814  21.079  23.233 -0.0627  0.0419  0.0440
13208W        W56199  13.169  21.964  21.658 -0.0769  0.2557 -0.0002
13209W        W56200   8.144  14.583  11.605 -0.0241  0.0214  0.3186
13210W        W56201  28.870  11.103   1.557  0.1486 -0.1164  0.0373
13211W        W56202   6.070  33.848  20.631  0.2320  0.0507  0.2000
13212W        W56203  18.002  23.906  13.613  0.0874  0.3099 -0.0548
13213W        W56204  21.764   8.624   3.047 -0.1400 -0.3050  0.1903
13214W        W56205  27.255  30.132   7.671 -0.0049  0.1330  0.2596
13215W        W56206   5.565   7.623  17.279 -0.2351 -0.1585 -0.1124
13216W        W56207   1.959   7.150   6.314  0.2542  0.2066  0.0502
13217W        W56208  30.299  21.302  17.318  0.2913 -0.3313  0.1226
13218W        W56209  15.762   5.154  28.176  0.1143 -0.2694 -0.0979
13219W        W56210  29.114  24.432  20.592  0.0920 -0.1253 -0.4358
13220W        W56211  29.844  33.335  25.942  0.2155  0.1435  0.0112
13221W        W56212  33.552  32.639  19.998 -0.0014 -0.3314  0.4236
13222W        W56213  10.089  26.858  20.337  0.1899 -0.1337  0.2329
13223W        W56214  23.451  30.098  15.645  0.0918  0.0430 -0.1990
13224W        W56215  31.676  12.964  26.128 -0.0244 -0.5640  0.2411
13225W        W56216   3.195   4.612  10.373 -0.0448 -0.3304  0.1402
13226W        W56217  33.665  23.761  24.695 -0.4027 -0.2563 -0.3302
13227W        W56218   1.792  33.506  21.281 -0.0417  0.1831 -0.2106
13228W        W56219  33.905  26.834  22.291 -0.2172 -0.1647  0.1160
13229W        W56220  27.751  20.601  25.652 -0.3226  0.0393 -0.1003
13230W        W56221  16.414  23.786  28.423 -0.0224  0.1058 -0.4341
13231W        W56222   7.868  17.868  25.590 -0.3715  0.1660  0.2192
13232W        W56223  34.057   3.865   3.335  0.0001  0.0133  0.0428
13233W        W56224   2.509  19.920  18.480 -0.3003 -0.5332 -0.1541
13234W        W56225   2.336  18.370   8.346  0.1102 -0.1766 -0.1910
13235W        W56226  30.020  31.488  23.660 -0.0917  0.0183  0.0899
13236W        W56227  10.661  28.845  28.833 -0.2961  0.2964  0.4976
13237W        W56228  11.360  28.041   1.569  0.2189 -0.0646  0.3304
13238W        W56229  27.381  26.385  17.143 -0.1330 -0.1225  0.0512
13239W        W56230   9.116  18.539  17.164 -0.3549  0.3644  0.3289
13240W        W56231  30.783  23.902   2.652 -0.2068  0.1289 -0.0241
13241W        W56232   8.325  15.992   3.225  0.1538  0.1962  0.1287
13242W        W56233  32.049  31.915  20.170  0.2948 -0.0489  0.1129
13243W        W56234   5.843  26.887  15.272 -0.0810  0.0279 -0.2068
13244W        W56235   1.961  25.277   1.112  0.0981 -0.1198  0.3194
13245W        W56236   9.941  34.321   1.532 -0.0901 -0.0315 -0.1350
13246W        W56237  11.755   4.117   8.723  0.2090 -0.0521 -0.1757
13247W        W56238  27.568  31.000  16.844 -0.0203  0.1763  0.2280
13248W        W56239  30.782  20.770  20.502 -0.1772 -0.4698 -0.4357
13249W        W56240  20.812  25.383  28.896 -0.2785 -0.1863 -0.0845
13250W        W56241   9.535  11.291  10.085 -0.0166  0.2153  0.1757
13251W        W56242   3.939   4.856  17.484 -0.0156  0.0952 -0.0248
13252W        W56243  26.167  33.421   5.157  0.0387  0.1714 -0.0579
13253W        W56244  23.516  30.236   5.752  0.1712 -0.1681 -0.0642
13254W        W56245   9.570  15.707  27.875 -0.0527 -0.3823 -0.2258
13255W        W56246  18.732  18.817   2.498 -0.1977  0.1291 -0.0870
13256W        W56247   8.171  22.698  25.364  0.5095  0.0664  0.3048
13257W        W56248   1.958   2.957  20.582 -0.1156  0.3611 -0.1512
13258W        W56249   2.412  17.633   6.337 -0.1560  0.0620 -0.3826
13259W        W56250  29.171  34.015   4.582 -0.3001 -0.1550  0.2279
13260W        W56251   8.199   6.822  19.111 -0.1998  0.2691 -0.1742
13261W        W56252  20.789  24.248  24.027  0.1823  0.1858 -0.1632
13262W        W56253  33.059  16.896  19.482  0.0886  0.0135  0.1181
13263W        W56254   5.599  16.502  26.685  0.0870  0.1464  0.0438
13264W        W56255  11.168  32.307  21.442  0.2248  0.0735  0.0937
13265W        W56256  29.505  19.390  20.642  0.0707  0.3103 -0.2447
13266W        W56257   5.830  18.875  17.269 -0.1980 -0.1310 -0.3519
13267W        W56258  28.364  10.126  19.527 -0.0285  0.3373  0.1395
13268W        W56259  11.275  24.366  29.178  0.1031  0.0968 -0.0653
13269W        W56260   9.841  17.615   2.734 -0.1944 -0.0574 -0.4187
13270W        W56261   0.575  24.676   0.376  0.1167  0.0401 -0.0124
13271W        W56262  30.659  25.400  14.322 -0.0572 -0.2331  0.3251
13272W        W56263   0.107  14.409  11.064 -0.0719  0.2247  0.2660
13273W        W56264   3.238  17.650  26.244 -0.1663  0.5418 -0.0285
13274W        W56265   2.940  11.901   9.269 -0.0650 -0.4535  0.1001
13275W        W56266  17.625  16.026   0.187 -0.1705 -0.0375 -0.0527
13276W        W56267  13.726   7.529  25.895  0.2910 -0.2030 -0.2390
13277W        W56268  29.717  16.030   7.912  0.1243  0.0064  0.1442
13278W        W56269   9.278   6.573   0.349 -0.1862 -0.0540 -0.2635
13279W        W56270  24.307  11.642  20.546  0.0510 -0.0120 -0.0427
13280W        W56271  30.784  15.796  19.419 -0.0413  0.2251  0.3173
13281W        W56272  18.468   1.435  23.153  0.0212 -0.0497 -0.0740
13282W        W56273  28.877  17.738   7.515  0.1395  0.1340 -0.0789
13283W        W56274   2.003   8.303  21.145  0.0104 -0.0052  0.1060
13284W        W56275  33.585   8.211   8.887 -0.0087 -0.1323 -0.1725
13285W        W56276   3.667  15.209  26.016 -0.0416 -0.0282  0.1551
13286W        W56277   0.564  15.010   1.925 -0.1170 -0.2559  0.1339
13287W        W56278   3.131  20.329  16.732 -0.0101  0.2061  0.0390
13288W        W56279  24.353  23.930  26.092 -0.0023 -0.0831 -0.2540
13289W        W56280  19.652   5.386  27.339  0.1621  0.1441  0.0206
13290W        W56281  22.235  16.275  19.111  0.1509  0.3252 -0.1751
13291W        W56282  24.080  21.150  25.555 -0.1436  0.1141  0.3823
13292W        W56283  34.542  24.158  20.635  0.1481 -0.1224  0.1797
13293W        W56284  11.144   1.852  19.287 -0.0939 -0.0204 -0.0091
13294W        W56285   7.999  19.206  18.028 -0.1113 -0.0086  0.1464
13295W        W56286  15.977  22.574  18.935  0.0707  0.1018  0.1280
13296W        W56287   7.422  33.151  15.470 -0.1161  0.0853 -0.0329
13297W        W56288  27.915  14.275  19.285  0.1264 -0.0520  0.1391
13298W        W56289  32.343  22.166  19.465 -0.2155  0.0272  0.3080
13299W        W56290   8.985  19.725   4.647 -0.1801  0.2593 -0.0922
13300W        W56291  19.487  33.781  24.055 -0.2610 -0.1732 -0.0345
13301W        W56292  27.906   9.562   3.013 -0.1738  0.2910 -0.0538
13302W        W56293  34.118  26.482  27.918  0.4388 -0.0959  0.1828
13303W        W56294  14.407  24.811  20.682  0.0570  0.0502 -0.0532
13304W        W56295   2.893  24.532   6.118 -0.0349  0.1516 -0.3565
13305W        W56296   4.727  23.698   8.102 -0.3218  0.1827 -0.1678
13306W        W56297   5.578  17.080  26.428  0.0613 -0.0197  0.2163
13307W        W56298  26.007  11.006  28.192  0.1636 -0.1580  0.0163
13308W        W56299   3.405  29.216  23.580 -0.0676 -0.4646 -0.1055
13309W        W56300   6.842  25.086  15.031 -0.0193 -0.0100 -0.1963
13310W        W56301  15.186  26.298   4.080  0.4819 -0.0492 -0.0041
13311W        W56302  27.126  18.724  27.871  0.0288 -0.2546 -0.0618
13312W        W56303  31.856  11.716  17.863  0.0362  0.0025  0.0971
13313W        W56304   2.171  30.522  17.482  0.2940 -0.0374 -0.1838
13314W        W56305  31.884  31.428   0.907 -0.1008  0.4048  0.1581
13315W        W56306  31.628  27.058  13.922  0.0241 -0.0350 -0.1079
13316W        W56307  28.928   3.427   0.318  0.1969  0.3225  0.1347
13317W        W56308   1.165   2.086  17.008 -0.1002 -0.0462 -0.0139
13318W        W56309  29.587  14.546  17.039  0.1927 -0.0161 -0.1376
13319W        W56310  11.097  32.638  24.237  0.0257  0.0528 -0.3213
13320W        W56311  13.482  25.790  24.149 -0.0299 -0.0109 -0.1884
13321W        W56312  33.219   0.223   4.088  0.1276 -0.1109 -0.0774
13322W        W56313   3.884   1.530  19.743  0.1780  0.0546  0.1578
13323W        W56314   4.544  12.471  28.228 -0.0120 -0.3831  0.1919
13324W        W56315  21.946  10.788  26.954 -0.2771  0.0395 -0.2263
13325W        W56316  22.130  15.728  13.936 -0.3801  0.2782  0.0040
13326W        W56317  10.752  13.742  22.291  0.0968 -0.0015 -0.1598
13327W        W56318  32.067  31.138  22.198  0.0001 -0.1254  0.2755
13328W        W56319  18.494  26.933  20.362  0.1000 -0.1988  0.1526
13329W        W56320  29.427  21.326  23.187 -0.0164 -0.1196 -0.2931
13330W        W56321  33.716   8.979  22.673 -0.0671  0.1603  0.0359
13331W        W56322   2.983  15.828  21.367  0.0681  0.1127 -0.2217
13332W        W56323  33.161  28.967   1.037 -0.2259 -0.1867 -0.0394
13333W        W56324  33.004  18.052  26.222 -0.1768  0.1577 -0.1350
13334W        W56325   1.691  23.010  19.699  0.1280 -0.3940 -0.1289
13335W        W56326  33.045  30.492  19.176  0.0147  0.1833  0.3006
13336W        W56327  28.927   7.201  23.013  0.1410  0.2742 -0.2160
13337W        W56328  20.595  22.163  27.224 -0.0928  0.1570  0.0878
13338W        W56329  19.341  33.040  17.582 -0.1956 -0.2803  0.2246
13339W        W56330  31.029  21.712   9.446  0.0227 -0.1870 -0.3517
13340W        W56331   8.696   6.650  19.580  0.1590 -0.1027 -0.0011
13341W        W56332  30.662  27.017  17.256  0.2414  0.3406 -0.1145
13342W        W56333  11.128  10.532  21.111  0.1919 -0.0618 -0.1872
13343W        W56334   2.617   1.810  19.222 -0.0148 -0.4697  0.1035
13344W        W56335  33.703  14.416   3.649  0.1848 -0.0743  0.1261
13345W        W56336   5.086  13.208  23.058  0.0421 -0.3229 -0.0073
13346W        W56337  12.845  26.543  23.971 -0.2267 -0.5884  0.0683
13347W        W56338  12.120  13.931  24.319  0.1529 -0.0620  0.1044
13348W        W56339  34.488   7.138  19.611  0.2570 -0.2886  0.0896
13349W        W56340   4.140  24.161  23.296 -0.0406 -0.0546 -0.0965
13350W        W56341   2.499  27.871  17.721  0.2298 -0.4023  0.0105
13351W        W56342   6.083  22.065  17.086 -0.2785 -0.0276  0.0090
13352W        W56343  34.661  14.202  21.216  0.1291 -0.0938  0.0147
13353W        W56344  28.754  27.359  16.071 -0.1659  0.0904  0.3511
13354W        W56345   6.137  22.952  25.981  0.1749 -0.0143  0.0007
13355W        W56346   9.099  12.724  27.774  0.1714  0.2792  0.0230
13356W        W56347  31.012  21.288  25.343  0.1814  0.0978  0.0288
13357W        W56348  13.981  11.665  28.658  0.0210 -0.1737  0.1238
13358W        W56349   7.138   4.578   4.919 -0.1799 -0.1702 -0.1215
13359W        W56350   1.514  29.444  15.452 -0.0575 -0.0368  0.2787
13360W        W56351  13.720  19.693  21.155  0.1250  0.1681 -0.3314
13361W        W56352  34.408  19.302   9.355  0.0588 -0.0955 -0.2593
13362W        W56353   2.424  19.507  21.133 -0.1243 -0.0761 -0.0320
13363W        W56354  34.563  11.131  24.282  0.0537  0.0891 -0.2604
13364W        W56355  10.649   1.348  23.780 -0.2695 -0.3855 -0.2414
13365W        W56356   0.497  26.422  28.531  0.0145  0.2957 -0.2319
13366W        W56357   6.424   2.797  26.220  0.1325 -0.0180 -0.0736
13367W        W56358  32.200  17.248   1.677  0.0350  0.1360  0.2981
13368W        W56359  11.258  27.546  16.009  0.1874  0.0633  0.0174
13369W        W56360   2.543  33.318  22.037 -0.2029  0.0221  0.2769
13370W        W56361  29.221  14.951  15.847  0.1901  0.0163  0.0245
13371W        W56362  26.931   5.439  17.689 -0.0987 -0.0670  0.3237
13372W        W56363   3.248  28.339  16.650  0.0747 -0.0958  0.2623
13373W        W56364   2.778  26.909   3.297 -0.2877  0.1030 -0.1889
13374W        W56365  32.814  21.574  22.513 -0.0504 -0.0772  0.0620
13375W        W56366  20.065  12.955  13.520  0.0499  0.2692  0.3617
13376W        W56367  27.426  26.478  14.696 -0.0360 -0.3646 -0.1271
13377W        W56368  12.062  10.275   7.696 -0.1004  0.0219 -0.3106
13378W        W56369  14.396  20.157  16.889  0.0057  0.0377  0.5595
13379W        W56370   7.408  17.710  20.415  0.0872 -0.0257  0.0810
13380W        W56371   3.530  27.054  16.651 -0.0176 -0.2651  0.0057
13381W        W56372   4.776  16.406   7.139 -0.2255  0.2903 -0.1842
13382W        W56373   8.431  23.974  17.499 -0.0807  0.0401 -0.2045
13383W        W56374  31.699  22.698  21.876 -0.0518 -0.1765  0.0580
13384W        W56375  19.621  22.191  24.209 -0.1579  0.0763  0.0588
13385W        W56376  28.787  32.505   0.781  0.0242  0.0449  0.0698
13386W        W56377  26.267   3.424  25.033  0.1539 -0.0416  0.1240
13387W        W56378  33.868  24.309  25.336 -0.1418  0.2453 -0.0312
13388W        W56379  23.998  33.401  22.144 -0.1015 -0.2006 -0.0178
13389W        W56380  30.988  13.639  10.007 -0.0840 -0.0817 -0.1724
13390W        W56381   2.109  29.362  10.092 -0.0536  0.0581 -0.1601
13391W        W56382  13.453  12.041  17.009 -0.3430 -0.2570  0.1214
13392W        W56383   0.313  27.800  20.668 -0.0002 -0.1746 -0.2414
13393W        W56384  31.887   9.327  19.834 -0.3464  0.0000 -0.0450
13394W        W56385   0.901  22.194  29.181 -0.1019 -0.2794 -0.2225
13395W        W56386  23.066  23.574   7.986  0.0589 -0.2675  0.3116
13396W        W56387  10.963  16.119  17.799 -0.1946 -0.0730  0.3822
13397W        W56388   4.345  15.538   7.342 -0.0920 -0.0531  0.0082
13398W        W56389  34.143  21.231   6.819 -0.2244 -0.0454  0.2838
13399W        W56390   4.927  24.911  22.917  0.1290  0.0586 -0.2289
13400W        W56391   1.793  28.492  14.178  0.0232 -0.0986 -0.0591
13401W        W56392  20.774   8.785   9.320 -0.0901  0.1780 -0.1450
13402W        W56393   5.639  10.397   0.691  0.0591  0.2304 -0.0940
13403W        W56394  27.140  10.698   3.012 -0.0876  0.0634 -0.2324
13404W        W56395  27.530  15.674  22.775  0.1428 -0.1631  0.1500
13405W        W56396   4.674  10.888  26.741  0.0601  0.3705 -0.0862
13406W        W56397   3.658  25.048  25.074 -0.0460  0.0081  0.1492
13407W        W56398  28.569  25.985   1.188  0.0286 -0.2511 -0.3535
13408W        W56399  29.743  26.442  25.887  0.1946  0.2750  0.1729
13409W        W56400  33.308   1.059  14.463 -0.5432  0.0726  0.0031
13410W        W56401   8.044  12.003  27.564  0.0570 -0.1090  0.2399
13411W        W56402  32.181  14.814   0.492  0.0389  0.0897  0.1715
13412W        W56403   3.469  24.294  25.039  0.0634  0.0638  0.2205
13413W        W56404   3.403   8.077  20.761 -0.0090  0.1935 -0.1046
13414W        W56405  29.643   0.469   6.884  0.0439 -0.0865  0.1552
13415W        W56406  31.650   5.543  22.202 -0.1233  0.0482 -0.3077
13416W        W56407  12.548  29.572   7.985 -0.2551  0.1997 -0.0663
13417W        W56408  28.615  21.377   0.458 -0.1056  0.0402  0.1916
13418W        W56409  11.839   7.131  19.103  0.1645 -0.0191 -0.0713
13419W        W56410   2.485   9.400  27.649 -0.0380  0.1846  0.4266
13420W        W56411  10.040  11.953  19.446 -0.1484  0.0376 -0.0500
13421W        W56412  20.305  22.579  14.630 -0.0969 -0.1573  0.2601
13422W        W56413   9.494  23.698  16.196  0.0299 -0.0210 -0.2803
13423W        W56414  10.164  24.882  19.811  0.0611 -0.1999  0.1567
13424W        W56415  15.814  28.429  15.521 -0.3394 -0.2702  0.0617
13425W        W56416  34.656  30.628  28.891  0.3284  0.0401  0.2337
13426W        W56417  32.414   6.500   4.414 -0.0440  0.1050  0.1767
13427W        W56418  25.646  10.079   7.476 -0.2238  0.0667 -0.3328
13428W        W56419   2.392  11.014  21.513 -0.1683 -0.0933 -0.1872
13429W        W56420   3.230   4.005   7.797 -0.1114  0.1810 -0.2993
13430W        W56421  12.384  31.709  25.946  0.3656  0.0547  0.0086
13431W        W56422  31.912  26.983  15.216  0.1154  0.5618  0.0764
13432W        W56423  23.296  15.585   6.682  0.1237  0.0986  0.0105
13433W        W56424  33.017  11.559  26.336 -0.0090 -0.1595 -0.1467
13434W        W56425  19.672  27.604  18.831  0.1281  0.1434  0.4334
13435W        W56426  16.275   5.792  22.965  0.3754  0.0238 -0.2624
13436W        W56427  13.752  27.913  22.709  0.0431  0.2076  0.1998
13437W        W56428  16.259  13.995   4.293 -0.2937 -0.0278 -0.1271
13438W        W56429   9.229  10.555   5.352  0.1366 -0.1678 -0.3130
13439W        W56430   6.544  26.188   2.365  0.2336 -0.1908  0.2254
13440W        W56431   9.977  19.935  26.930  0.2181  0.0027  0.0442
13441W        W56432   6.503  14.503   4.520 -0.0801 -0.2289 -0.1608
13442W        W56433  29.428  21.372   2.235  0.0033  0.3948  0.2169
13443W        W56434   9.078   0.379   6.114 -0.0416 -0.1850  0.1560
13444W        W56435   7.418  12.151   7.246 -0.5243 -0.2581  0.1317
13445W        W56436  22.687  12.206   7.403 -0.2550 -0.1482  0.0824
13446W        W56437  10.694  28.184  21.997  0.1837 -0.0055 -0.0448
13447W        W56438  15.164  23.372   4.181 -0.1628 -0.0470 -0.1156
13448W        W56439  26.257  16.112  23.459  0.1562  0.0178  0.3401
13449W        W56440  10.478  22.010  17.214  0.3426  0.2584 -0.3838
13450W        W56441   4.490   9.595  15.928 -0.0747 -0.1542  0.0433
13451W        W56442  33.992  21.554   2.072  0.0618 -0.2096 -0.0361
13452W        W56443  34.083  14.243   2.558  0.0261 -0.3191  0.2992
13453W        W56444   4.690  31.688   9.216  0.1022 -0.2910 -0.2155
13454W        W56445  30.610   5.425  28.230  0.2187 -0.1221 -0.0268
13455W        W56446   4.291  29.710   1.927 -0.1960  0.0181 -0.0694
13456W        W56447  11.460  14.950  16.737 -0.0263 -0.1920 -0.0722
13457W        W56448  11.564   1.933   3.619  0.2251 -0.1407 -0.1020
13458W        W56449  32.068  26.502  18.743  0.0075 -0.0782  0.2685
13459W        W56450  31.044  32.013  23.522 -0.0963  0.3315  0.1187
13460W        W56451  27.746  17.608   7.642 -0.0457 -0.0998 -0.2541
13461W        W56452  12.820  28.436  24.347 -0.2750  0.1805  0.0129
13462W        W56453  12.075  22.043  14.708  0.1923  0.1104 -0.1014
13463W        W56454  12.066  20.929   3.824 -0.6175  0.2195 -0.1397
13464W        W56455  31.391  34.332  24.510  0.1126 -0.4678 -0.1225
13465W        W56456  10.401   3.396  15.102 -0.0260 -0.2448 -0.0933
13466W        W56457   2.684  19.414  16.595  0.1298 -0.2876 -0.2178
13467W        W56458  32.116  28.942   6.289  0.1408 -0.2915  0.1318
13468W        W56459  13.197  18.653  25.690 -0.2140 -0.4033 -0.1694
13469W        W56460   2.807  31.784  26.234  0.4578  0.0509  0.1249
13470W        W56461  29.050  14.609   3.604 -0.0023  0.1523 -0.1237
13471W        W56462   0.275  10.852   9.367 -0.1672 -0.0810  0.3119
13472W        W56463   7.104  25.979  27.672 -0.3658 -0.1504 -0.0507
13473W        W56464  23.386   2.314   8.798  0.0921  0.0113  0.0093
13474W        W56465   4.925  29.413   6.550 -0.2728  0.2398 -0.1553
13475W        W56466  30.052  13.952   1.748  0.0639  0.1177  0.0043
13476W        W56467  23.809   2.685  15.502  0.0388 -0.1882  0.0401
13477W        W56468  24.872  12.343  21.009 -0.1190 -0.0809  0.0888
13478W        W56469   4.068  16.460  26.665 -0.1151  0.2940 -0.2863
13479W        W56470  12.727  22.352  20.470 -0.4659 -0.0212 -0.0021
13480W        W56471  10.015  10.466  24.825  0.0441  0.1954  0.2448
13481W        W56472  31.946  31.252  16.582 -0.2727 -0.3798 -0.4719
13482W        W56473  30.102  14.550  24.550  0.0695 -0.1058 -0.2247
13483W        W56474   1.658   0.741   2.542 -0.1195 -0.1283  0.0608
13484W        W56475  12.610  17.529   3.876 -0.2097 -0.1574  0.1354
13485W        W56476  33.662  18.867   4.218  0.1770  0.5232 -0.1650
13486W        W56477  24.323   9.825  17.953  0.3507 -0.1672 -0.4185
13487W        W56478  18.340   8.164  27.339  0.0557 -0.1838  0.2971
13488W        W56479   1.774  29.737   4.831  0.3055 -0.4380 -0.0239
13489W        W56480   6.010   7.143   2.763 -0.0358  0.0226  0.2810
13490W        W56481  27.765  10.323   6.214  0.2935  0.1482 -0.3510
13491W        W56482   8.396  15.276   1.675  0.0781 -0.4931 -0.0619
13492W        W56483   9.236  21.377  23.615  0.0860  0.1793  0.0685
13493W        W56484  14.094  25.270   1.374 -0.2307 -0.0122  0.0566
13494W        W56485  34.771  19.686   6.209 -0.4788  0.0303 -0.0451
13495W        W56486   3.657  22.501   4.371 -0.0791  0.1642 -0.1220
13496W        W56487   5.938  22.618  16.110 -0.0894 -0.2632  0.1204
13497W        W56488   4.729  18.915   5.055  0.1288 -0.0269 -0.2725
13498W        W56489  34.773  10.629  22.755 -0.0602 -0.0056 -0.0165
13499W        W56490  13.384  18.421  16.531 -0.2355 -0.1232  0.1458
13500W        W56491   1.146  24.950   7.793  0.1748 -0.0303 -0.3439
13501W        W56492  32.790  21.430  23.022  0.2855  0.0643 -0.0973
13502W        W56493  21.187  28.444  28.886  0.1685 -0.1552  0.2608
13503W        W56494  12.211  13.474   4.845  0.1507 -0.0239  0.0795
13504W        W56495   9.643  16.695  22.614 -0.0618  0.0079 -0.0480
13505W        W56496  31.655  26.995   2.238  0.1956 -0.1820  0.1593
13506W        W56497  33.979  17.562   9.351 -0.0979 -0.3635 -0.2772
13507W        W56498  34.026  32.855   7.163 -0.1236 -0.1436  0.3142
13508W        W56499  26.244  17.835  18.064 -0.2781 -0.0710  0.2162
13509W        W56500  25.381  26.277  20.726  0.1833 -0.1578 -0.1470
13510W        W56501  17.578   6.719   5.230  0.1307  0.0958 -0.0253
13511W        W56502  24.707  21.260   2.014 -0.3843  0.0849  0.2331
13512W        W56503  22.106  26.130  14.801  0.2520 -0.1573 -0.1024
13513W        W56504   5.917  16.019  22.910 -0.1021 -0.0226  0.5717
13514W        W56505   3.654  31.948   4.577 -0.0139 -0.1334  0.1764
13515W        W56506   5.303  12.708  26.605  0.0143  0.4519  0.0623
13516W        W56507  32.333  27.606  21.912  0.0617  0.0991  0.2685
13517W        W56508   4.443   8.996  27.599 -0.2104 -0.0668 -0.0681
13518W        W56509  31.820  14.696  27.738  0.1481 -0.1425  0.0633
13519W        W56510   9.394  18.634   2.762 -0.1308  0.1488 -0.0180
13520W        W56511   5.693  15.748  24.011  0.0219 -0.1210  0.0170
13521W        W56512  25.129  30.965  21.152  0.2727  0.1537 -0.0836
13522W        W56513  23.609  23.394   5.808  0.0586  0.0696 -0.1523
13523W        W56514  11.114  33.559   8.256  0.1595 -0.3164  0.1891
13524W        W56515  13.733  25.776   4.415  0.0326 -0.2033 -0.6598
13525W        W56516   0.115  16.291   3.561  0.1649  0.0415  0.0640
13526W        W56517   1.152  17.960  11.425 -0.1669  0.1396 -0.0803
13527W        W56518   6.841  11.774  20.698  0.0228 -0.0243  0.0597
13528W        W56519   2.106  18.758  16.690 -0.2831 -0.3043 -0.1962
13529W        W56520  30.790  22.227  16.402 -0.2971 -0.0463 -0.0981
13530W        W56521  21.724  14.003  29.150 -0.0115 -0.1611  0.3473
13531W        W56522   3.006  11.211   9.493  0.1092  0.0768  0.1648
13532W        W56523   1.240   6.594   2.232 -0.0610  0.0552  0.2161
13533W        W56524  11.830  17.544   2.273  0.1939  0.3442 -0.0854
13534W        W56525   1.403  15.436  17.650 -0.2279 -0.1031  0.1365
13535W        W56526  10.068  32.902  10.151  0.0004 -0.0502  0.1326
13536W        W56527  34.454  33.445  21.997  0.0103 -0.3834 -0.0862
13537W        W56528   0.455  17.582   7.300  0.0715  0.1306  0.1532
13538W        W56529  17.555  14.778  23.789 -0.1522 -0.0323 -0.0147
13539W        W56530   5.559   9.944   0.328 -0.1303  0.0036 -0.1538
13540W        W56531  31.111  21.419  23.329 -0.0358  0.1538  0.0027
13541W        W56532   3.915  19.154   0.362 -0.1234 -0.0947 -0.1008
13542W        W56533   9.475  14.517  25.446 -0.2728 -0.4206  0.0897
13543W        W56534   9.390  29.597   6.017 -0.0588  0.0509 -0.1301
13544W        W56535  15.286  19.251   5.434  0.0501  0.1238  0.0510
13545W        W56536  34.550  18.257  26.637  0.4704 -0.0754  0.2899
13546W        W56537  28.861  20.904  19.555  0.0163  0.1380 -0.0622
13547W        W56538  29.047  25.180  22.743 -0.2299  0.2282  0.0053
13548W        W56539  23.063  31.439  29.220  0.0233 -0.2186 -0.3240
13549W        W56540  32.691  12.840  18.107 -0.0580  0.2868  0.1138
13550W        W56541  27.181  17.769  18.022  0.1304  0.0611 -0.4058
13551W        W56542  14.045  21.382  13.141 -0.0012  0.1476  0.1008
13552W        W56543   1.453  25.045  29.007  0.2417  0.0511 -0.0585
13553W        W56544  10.304  32.705  26.486 -0.0977 -0.0119  0.2450
13554W        W56545   5.210  22.349   1.658  0.1123 -0.0292 -0.2067
13555W        W56546   3.906  32.511  29.014  0.3058  0.0537  0.1886
13556W        W56547  10.171  13.671  29.211  0.0605  0.3947 -0.1752
13557W        W56548   1.125  24.884   2.152 -0.0226 -0.3849 -0.0277
13558W        W56549  31.867  27.067   6.488 -0.3207  0.0902 -0.3225
13559W        W56550   4.418  14.965   9.203  0.1310 -0.3572  0.3610
13560W        W56551  11.870  23.460   0.010 -0.0868 -0.0039  0.3106
13561W        W56552   2.743  21.239   5.936  0.1570 -0.0208  0.0716
13562W        W56553   4.638  20.500  16.396  0.1905 -0.2489  0.0355
13563W        W56554   7.420  24.777   5.029 -0.2237 -0.1752 -0.0556
13564W        W56555  33.309  16.677  24.121  0.2591  0.2194 -0.2294
13565W        W56556  32.405  31.779  26.558  0.2473 -0.1017  0.2487
13566W        W56557  23.694  29.382  16.316  0.1019  0.0663 -0.0196
13567W        W56558  34.111  16.771  26.270 -0.2011 -0.5452 -0.1911
13568W        W56559  25.842  13.262   7.047 -0.0719  0.2731 -0.1138
13569W        W56560  31.139  19.221  10.187 -0.2594  0.2398 -0.2186
13570W        W56561  30.152  26.518   2.786  0.0976 -0.1807  0.4489
13571W        W56562   5.844   5.019  10.048 -0.0759 -0.1269 -0.0431
13572W        W56563  27.897  20.652   9.340  0.1643 -0.0541  0.1017
13573W        W56564  18.538  17.888   5.262 -0.0430 -0.2068 -0.1138
13574W        W56565  26.702  27.642   6.700  0.0861  0.2816 -0.2076
13575W        W56566  34.359   8.989  28.267  0.0018 -0.2806  0.0519
13576W        W56567   5.851  12.578  11.605  0.3755 -0.1270 -0.3447
13577W        W56568   1.279  29.414  28.557  0.3777 -0.1614  0.1093
13578W        W56569  34.400  13.663   0.262  0.1434 -0.1211 -0.0388
13579W        W56570  29.059   4.433  28.998  0.2454 -0.0915 -0.0507
13580W        W56571   5.571  26.946   0.409 -0.0077 -0.0694 -0.0298
13581W        W56572  11.699  19.778  24.060  0.0711 -0.2750 -0.3019
13582W        W56573   3.576  14.289  20.624  0.1148  0.3162 -0.0537
13583W        W56574  11.183  26.069  20.754 -0.0969  0.0829  0.2511
13584W        W56575   4.343   1.208   1.316  0.0869 -0.0299  0.0539
13585W        W56576  12.523  14.439  26.433 -0.0481 -0.1635  0.0566
13586W        W56577   5.649  22.547  27.343 -0.0645 -0.0689  0.0305
13587W        W56578  10.645  19.346  22.543 -0.0620 -0.2325 -0.1181
13588W        W56579   6.337  23.191   5.636  0.1319 -0.3716  0.1625
13589W        W56580  18.105  29.684   3.841 -0.1591 -0.3429 -0.1812
13590W        W56581  30.886   1.818   9.238  0.0900 -0.3089  0.0886
13591W        W56582   0.101  21.753   4.624 -0.1388 -0.0804 -0.0551
13592W        W56583  27.486  21.786   2.691 -0.0796 -0.0997 -0.1185
13593W        W56584  24.236  17.716  25.585 -0.0140  0.3654  0.3456
13594W        W56585  22.690  18.114  24.260  0.0017 -0.0658  0.0281
13595W        W56586  27.164  13.357   5.162  0.2761 -0.1510  0.1938
13596W        W56587  27.710  23.565  26.900 -0.0938  0.1407  0.0799
13597W        W56588   0.754  12.069  15.579 -0.1686 -0.0075 -0.3585
13598W        W56589  12.993  28.851  18.785  0.1030  0.1547 -0.0266
13599W        W56590   8.452   8.996  26.770  0.0230 -0.0438  0.2688
13600W        W56591  28.508   7.733  24.025  0.1441  0.0496 -0.0217
13601W        W56592   4.021   9.069   9.919 -0.2581 -0.1470 -0.2816
13602W        W56593  28.232  26.057  28.261  0.4364  0.1092 -0.3089
13603W        W56594   2.242  16.684   6.903  0.5991  0.2041  0.1692
13604W        W56595   9.521  15.772  25.019 -0.2105  0.0852 -0.0523
13605W        W56596   0.267  30.813  26.939  0.1447 -0.2399  0.2510
13606W        W56597  14.608  16.855  26.341 -0.1113  0.0427  0.0591
13607W        W56598  14.600   4.502   2.573 -0.4792 -0.3061  0.3037
13608W        W56599   4.511  15.667  17.082  0.1168  0.3877 -0.2548
13609W        W56600  11.322   4.654  19.774  0.0439 -0.1701 -0.0171
13610W        W56601   3.233   4.798  26.225  0.0462 -0.0659 -0.1481
13611W        W56602   8.436   7.100  27.181  0.1482  0.3565 -0.1205
13612W        W56603   6.484  21.607  20.114  0.0324  0.1340 -0.1900
13613W        W56604   1.852  23.927   1.402  0.1183  0.0444 -0.2048
13614W        W56605  23.597  12.762   5.284 -0.1548 -0.4107  0.0624
13615W        W56606  29.851  17.713   9.938 -0.0475  0.1598 -0.1481
13616W        W56607  25.200  16.444  20.580 -0.1310 -0.1439 -0.0633
13617W        W56608  19.639  29.938   2.986  0.0902  0.1460 -0.3828
13618W        W56609  13.173  22.543   4.819 -0.0986  0.2525 -0.0383
13619W        W56610   0.472   7.781  17.634 -0.3354 -0.2018 -0.0330
13620W        W56611   5.488  27.688  25.332 -0.0737  0.3751  0.1930
13621W        W56612  33.703  27.724  26.363  0.1607  0.0581  0.3740
13622W        W56613   0.609  30.434   2.397 -0.1111  0.1733 -0.1159
13623W        W56614  34.219  12.343  26.654  0.1261 -0.0974 -0.0075
13624W        W56615  12.949  17.850   0.741 -0.4070  0.1809 -0.0965
13625W        W56616   8.505   4.148  22.958  0.1259 -0.0464 -0.2230
13626W        W56617  13.919   2.554  21.726 -0.2499 -0.2357  0.1742
13627W        W56618   1.698  14.470  18.661 -0.2275 -0.2364  0.0540
13628W        W56619   3.364  30.567  27.402  0.0950 -0.1047  0.0276
13629W        W56620  28.182  20.349  26.393  0.0582 -0.3632 -0.2664
13630W        W56621   2.721  23.708  15.416 -0.1299  0.0112 -0.0488
13631W        W56622   3.281  15.252  19.687 -0.1388  0.0410 -0.2072
13632W        W56623  25.854  26.780   3.273 -0.1282  0.1082 -0.0797
13633W        W56624   7.261   4.277  26.230 -0.2375  0.0122 -0.0008
13634W        W56625  19.924   8.097  24.783  0.1252 -0.0844 -0.0406
13635W        W56626  16.828  15.670   8.308 -0.1500  0.0289  0.0518
13636W        W56627  26.682   0.194   8.153 -0.1422 -0.1426  0.0186
13637W        W56628  13.457  16.757  20.214 -0.0138 -0.1876  0.2803
13638W        W56629  10.187   9.995  25.065  0.2739 -0.0250 -0.0209
13639W        W56630  28.968   9.968   8.655  0.2072 -0.0616  0.1420
13640W        W56631  28.501  31.562  22.852 -0.2758 -0.0315  0.1137
13641W        W56632  30.683  19.195   7.586  0.1073 -0.0750 -0.2384
13642W        W56633  29.756  27.182  27.424 -0.2319 -0.0791  0.2874
13643W        W56634   0.429  11.448   7.884 -0.0018 -0.0225 -0.4493
13644W        W56635  32.828  29.517  26.997 -0.0938 -0.0031  0.0956
13645W        W56636  11.786  27.641   2.570  0.3721  0.2720  0.1634
13646W        W56637   8.064  22.573  16.734 -0.0455 -0.1043 -0.3179
13647W        W56638  32.755  25.589  24.548  0.2179  0.1194  0.0183
13648W        W56639   2.633   6.385  21.041 -0.2850  0.1572  0.2571
13649W        W56640  32.393   8.836   7.709  0.1281  0.2696  0.0418
13650W        W56641  19.974  33.978  15.763 -0.1028 -0.2117  0.0867
13651W        W56642  25.707  29.319  17.499  0.0902 -0.1498 -0.0865
13652W        W56643  12.347   3.820   1.370 -0.0857  0.0992  0.3581
13653W        W56644  29.656  12.791  15.497 -0.1596 -0.0773 -0.0747
13654W        W56645   5.086  14.522   7.687 -0.0538 -0.0600  0.2503
13655W        W56646   7.262  13.784  16.240  0.1511  0.0653  0.1592
13656W        W56647  28.481  19.599  25.571  0.0777  0.0985  0.4288
13657W        W56648   4.219  19.710   1.123 -0.1704 -0.2303  0.0812
13658W        W56649   1.653   3.324   2.706  0.3764  0.1329  0.1073
13659W        W56650  28.166  13.429  26.318  0.0933  0.1080  0.2345
13660W        W56651  33.623   5.789  24.443  0.0370 -0.3947 -0.0714
13661W        W56652  32.367  15.060   6.218  0.1398 -0.3901  0.0472
13662W        W56653   2.187   4.292  26.291 -0.0876 -0.1321  0.1944
13663W        W56654   0.653  11.737  21.307 -0.1277 -0.0169 -0.4317
13664W        W56655  30.513  25.737  20.952 -0.1507 -0.0778  0.1174
13665W        W56656  30.644  20.807  15.042 -0.2628 -0.1345 -0.3332
13666W        W56657  23.015  23.485  14.086  0.4379 -0.0749 -0.0799
13667W        W56658  19.147  12.160  26.700  0.2164 -0.0772 -0.0726
13668W        W56659  22.068  17.361   3.662 -0.0491  0.1421 -0.1772
13669W        W56660   6.531  31.701   9.635  0.1612 -0.1312  0.2058
13670W        W56661   5.081  25.222   7.703 -0.1191  0.1869  0.0312
13671W        W56662   7.694  31.657  16.689 -0.1363  0.0679  0.2235
13672W        W56663   1.738  12.489  28.085  0.1195  0.0111  0.1981
13673W        W56664  13.842  17.060  28.863 -0.0665 -0.1950 -0.2693
13674W        W56665  30.179  23.264   8.821 -0.0126 -0.2506  0.2241
13675W        W56666   7.042  22.546   6.130 -0.1198  0.1586  0.2228
13676W        W56667   2.026  16.906  24.451  0.2861  0.1396 -0.1209
13677W        W56668  22.842  19.782   4.612  0.2287 -0.2145 -0.0165
13678W        W56669  30.250  23.246  20.522  0.1124  0.3531  0.1780
13679W        W56670  11.931  24.895  19.812 -0.1140 -0.4344  0.4605
13680W        W56671  10.850  29.557  21.816  0.1592  0.0730 -0.4509
13681W        W56672  11.164   7.471  19.862  0.1867 -0.0406 -0.0449
13682W        W56673  22.230   6.417  27.285  0.3578 -0.1632 -0.1206
13683W        W56674   6.398  24.848  18.655 -0.0915 -0.2083 -0.0207
13684W        W56675  21.347   0.848  18.142  0.2145 -0.0368  0.0190
13685W        W56676  32.332  28.369  25.190 -0.0802 -0.2416  0.3273
13686W        W56677   2.142   1.564  20.886  0.1790 -0.1007 -0.3316
13687W        W56678   6.452   4.286  28.500  0.1023 -0.2132 -0.2388
13688W        W56679  32.504  18.207   8.953 -0.1264 -0.2074 -0.1649
13689W        W56680   6.530  11.388   6.867  0.0373 -0.1244 -0.0368
13690W        W56681  19.495   9.756  25.105  0.0161  0.1488  0.0481
13691W        W56682   6.538  25.082  21.112 -0.0941 -0.2670  0.1775
13692W        W56683   8.076  30.307  21.329  0.2501  0.2346 -0.1150
13693W        W56684   5.072  11.961  10.310  0.0114  0.0531 -0.2444
13694W        W56685  12.740  18.168  26.238  0.2820  0.1627  0.2863
13695W        W56686  17.787   8.746  21.232 -0.3672 -0.0391  0.1582
13696W        W56687  23.650  17.649  25.543 -0.1019 -0.5385 -0.1667
13697W        W56688   0.983  20.461   9.431 -0.0258  0.3459  0.0396
13698W        W56689  33.368  21.828   2.735  0.0683  0.2024 -0.0771
13699W        W56690   7.827  23.320   4.851 -0.1768  0.0417 -0.0075
13700W        W56691  24.401  19.292  25.344  0.1320 -0.0243 -0.3349
13701W        W56692  17.915  16.390   2.487  0.2640 -0.1274  0.0703
13702W        W56693   5.629  23.970   7.097  0.3471 -0.0236  0.0603
13703W        W56694   3.896   6.085  16.552  0.2077  0.2664  0.0039
13704W        W56695  27.536  22.307  28.281 -0.1976  0.1190 -0.1852
13705W        W56696  27.589  21.559   8.884 -0.0553  0.0417 -0.2992
13706W        W56697  18.988   9.118   0.003 -0.3069 -0.2201  0.0688
13707W        W56698   3.892  12.338  23.059 -0.2351  0.2228 -0.2012
13708W        W56699  14.491   7.453  26.054  0.0038 -0.0928  0.0921
13709W        W56700  27.524  18.835   7.518 -0.1396  0.0122  0.1250
13710W        W56701  11.895  21.239   7.268 -0.0320  0.0066  0.0395
13711W        W56702   8.918  32.343  17.338  0.0233  0.0023  0.1411
13712W        W56703   3.387  17.213  23.213 -0.2531  0.0893  0.2733
13713W        W56704   8.925  18.671  26.786  0.3703 -0.1278 -0.1568
13714W        W56705   4.531  17.367   3.611 -0.3123 -0.0920  0.3391
13715W        W56706   5.110  19.946   0.647  0.2696 -0.1678  0.1054
13716W        W56707   8.179  30.014   5.161 -0.0101 -0.0740  0.0788
13717W        W56708  33.555  24.371  16.960  0.2485  0.2326 -0.0974
13718W        W56709   8.708  13.906  28.412  0.2109  0.2668  0.0308
13719W        W56710  28.374  16.218  29.079  0.3397 -0.0879  0.1401
13720W        W56711  11.331  11.965  23.178 -0.1810  0.2152  0.1196
13721W        W56712  34.112  25.040  15.323  0.1003  0.1683 -0.2787
13722W        W56713   2.667   9.371   0.397  0.1075 -0.2223  0.3463
13723W        W56714   1.054  24.971  25.063 -0.0284 -0.1667  0.1362
13724W        W56715   6.769   0.848   1.548 -0.1201  0.1529  0.2807
13725W        W56716  22.324  13.438  17.005 -0.1110 -0.0219  0.0711
13726W        W56717   0.799   9.424  28.503  0.1561  0.0140 -0.1068
13727W        W56718   0.674  19.313   6.775  0.0292  0.1970  0.1544
13728W        W56719  29.204  25.206   0.032  0.1444 -0.0040  0.0783
13729W        W56720  34.081  21.349  18.659 -0.0087 -0.1192  0.1820
13730W        W56721  25.760  26.116  22.818  0.0821  0.2236 -0.0702
13731W        W56722   7.980  16.877   3.894 -0.0242  0.0564  0.0148
13732W        W56723  11.240  27.255   8.562 -0.0723 -0.0362  0.1545
13733W        W56724   6.374   4.028   7.006  0.1573  0.0620 -0.1781
13734W        W56725  21.171  29.094   2.779 -0.0259  0.1037 -0.0317
13735W        W56726  13.538  21.414  21.150  0.0978  0.0782  0.1868
13736W        W56727  14.273  22.863  14.142  0.3172  0.1187 -0.1338
13737W        W56728  25.103  16.590  16.276  0.0055  0.3734 -0.2877
13738W        W56729  24.101  29.929   6.511 -0.0682  0.1501  0.1512
13739W        W56730  16.933  11.003   7.729  0.2775 -0.1082 -0.0993
13740W        W56731  13.898  20.648   1.408 -0.0492  0.1823  0.3107
13741W        W56732  17.940   0.168  28.048  0.0847 -0.0090  0.0996
13742W        W56733  10.021  13.194   3.551  0.2139  0.0981  0.0143
13743W        W56734  11.232  17.802  24.715 -0.1866 -0.1546 -0.0127
13744W        W56735   4.493  26.101  17.266  0.1653  0.1027  0.0138
13745W        W56736   1.038   8.402  27.612 -0.0496  0.0034  0.1273
13746W        W56737  31.540  15.332  24.244 -0.1276 -0.1377  0.0299
13747W        W56738  34.054  29.590  13.450  0.3873  0.2310 -0.1017
13748W        W56739  22.336  24.567   5.424  0.2576 -0.1023 -0.0938
13749W        W56740   0.588  30.480  26.379 -0.0425 -0.2521  0.3485
13750W        W56741  12.097  27.708   3.613 -0.2784  0.0351  0.2039
13751W        W56742   3.484  19.179  26.602 -0.2454  0.1598  0.0264
13752W        W56743   0.564   9.221  21.945 -0.2682  0.1440 -0.1562
13753W        W56744  11.333  26.110  14.296  0.0741  0.0436 -0.1526
13754W        W56745   4.430  20.816  25.734 -0.1116  0.0292 -0.2269
13755W        W56746  18.041  19.040   3.905  0.1875 -0.1232 -0.2512
13756W        W56747   3.138  18.930  28.410 -0.1660 -0.1605 -0.0802
13757W        W56748  20.966  24.310   5.146  0.0088  0.1779 -0.1135
13758W        W56749   2.153  15.606  27.143  0.0845 -0.1694 -0.4491
13759W        W56750  14.284  18.198  16.623 -0.0672 -0.1659 -0.0820
13760W        W56751   3.694   1.341  28.823  0.1013 -0.0547  0.0811
13761W        W56752  32.431  14.058  21.872 -0.0317 -0.4313 -0.3356
13762W        W56753   8.335  17.468  27.826  0.2880  0.0652  0.1509
13763W        W56754   1.244  11.102   1.458 -0.1480 -0.1397 -0.0423
13764W        W56755   9.270  28.923  29.049  0.1221  0.1971  0.1031
13765W        W56756   9.372  31.793  27.331 -0.0481  0.0805 -0.0767
13766W        W56757  27.231  14.135   1.293 -0.0850  0.1529 -0.0750
13767W        W56758  19.848  15.684   7.653  0.1283  0.0047 -0.1006
13768W        W56759   4.577   9.875  21.288  0.0295  0.0626  0.2418
13769W        W56760  10.534  22.060  25.471 -0.0080  0.0804 -0.0621
13770W        W56761   5.562  10.919  26.854 -0.0006  0.3106  0.1536
13771W        W56762   4.000  17.157  17.947  0.0450  0.1299 -0.0221
13772W        W56763   4.961   8.965  15.770 -0.0221  0.0997  0.1287
13773W        W56764  27.915   6.458   0.118 -0.0856  0.2264  0.2348
13774W        W56765   5.212  27.014   3.401  0.6170  0.3284  0.2763
13775W        W56766  34.582   2.927   2.586  0.1533  0.1266  0.0663
13776W        W56767   7.703  29.678  16.489 -0.2219 -0.0591 -0.1048
13777W        W56768   1.680   1.533  24.416 -0.0753  0.0799  0.2275
13778W        W56769  27.894  24.336  16.710  0.0587 -0.0945  0.0307
13779W        W56770  13.891  11.610  22.090 -0.0840 -0.1817  0.2624
13780W        W56771  32.912   9.590  26.935 -0.0736 -0.1714  0.1196
13781W        W56772   1.116  23.631  17.372 -0.3518  0.1939 -0.2679
13782W        W56773  13.313  13.382  19.359 -0.0326 -0.0541  0.0510
13783W        W56774   3.950   8.228   4.591 -0.2528  0.0098  0.1868
13784W        W56775  32.692  21.299  18.561  0.4444  0.1071  0.0158
13785W        W56776  10.235  28.766  23.419  0.1712  0.0103  0.2128
13786W        W56777  23.219  11.149   4.745  0.2703 -0.0013  0.3964
13787W        W56778  15.539   0.695   0.234  0.0629  0.0581  0.1748
13788W        W56779   4.774  19.570  18.734  0.0751  0.1448 -0.0288
13789W        W56780   6.069  34.122   9.790  0.1950  0.0945  0.1100
13790W        W56781  21.889  12.430   2.022 -0.1268  0.0355  0.1504
13791W        W56782   8.836  16.222  23.422 -0.0851 -0.1071  0.1488
13792W        W56783   3.991  18.480  18.996 -0.1320 -0.1730 -0.2918
13793W        W56784  23.973  19.731  23.641 -0.0475  0.4685 -0.0191
13794W        W56785  18.562  30.135   0.686  0.0198  0.2514 -0.0055
13795W        W56786  34.230   8.131  26.700  0.2696 -0.0187  0.0565
13796W        W56787  26.228   9.495  26.400  0.0805 -0.0567  0.0096
13797W        W56788  26.736  15.407  27.629 -0.1880  0.0898  0.2781
13798W        W56789  12.048  20.595   4.258  0.1580 -0.0974  0.1003
13799W        W56790   3.742  11.613   7.353  0.1774 -0.2067 -0.0990
13800W        W56791  16.239  18.285   6.757 -0.2904  0.1540 -0.0856
13801W        W56792  22.372   6.964   3.609 -0.1930 -0.3372  0.0893
13802W        W56793  30.287  12.178   1.561  0.0995 -0.0519  0.1093
13803W        W56794   0.829  24.699  18.345 -0.0047  0.1023  0.0070
13804W        W56795  14.082  23.963   3.101 -0.3151  0.1535 -0.2971
13805W        W56796  16.696  24.494  22.266 -0.1278 -0.1185 -0.1460
13806W        W56797  13.147   8.484  10.731 -0.3068  0.0711 -0.0180
13807W        W56798   0.032  17.302  11.071  0.0682  0.0098 -0.0940
13808W        W56799  19.410  14.172   5.183 -0.2960  0.1540 -0.0396
13809W        W56800   4.903  28.331   2.792  0.2980  0.1823 -0.2830
13810W        W56801  34.245  10.900   4.705  0.0447  0.1598  0.0962
13811W        W56802  24.968  10.586  24.213 -0.2051 -0.0167  0.2445
13812W        W56803   9.456  19.286   6.456  0.2094 -0.0080 -0.1551
13813W        W56804  14.215  12.445  13.725 -0.2304  0.0581 -0.1924
13814W        W56805   2.729  27.268  22.666  0.1644  0.0638  0.0266
13815W        W56806   8.606  21.505  20.874 -0.0121 -0.1089  0.2481
13816W        W56807   1.993  14.646  25.182 -0.3342  0.2547  0.1069
13817W        W56808   6.125  14.167  27.120 -0.0669 -0.0248  0.0454
13818W        W56809  23.017  22.087   4.071 -0.1161 -0.0576 -0.1254
13819W        W56810  17.438  19.583   4.111 -0.2915 -0.1204  0.1748
13820W        W56811  25.770  20.738  28.261 -0.1597  0.0312  0.1036
13821W        W56812  27.897  20.684  27.893  0.1821 -0.2101  0.4291
13822W        W56813  10.460   9.296  27.548 -0.1322 -0.2341  0.2624
13823W        W56814   6.581   7.400   2.402  0.1199  0.1490  0.2363
13824W        W56815  29.923   4.597   8.261  0.0725 -0.0513  0.0958
13825W        W56816  20.080   2.000  26.342 -0.1341  0.2417  0.1624
13826W        W56817  27.495  12.457   0.380  0.1156 -0.1514  0.2291
13827W        W56818  30.044  13.941  25.188 -0.1822  0.0835  0.0270
13828W        W56819   3.406  26.536   1.653  0.2079 -0.0222 -0.0808
13829W        W56820   9.391  23.374  24.057 -0.1796 -0.1315 -0.0359
13830W        W56821  33.302  16.347   7.966 -0.2228 -0.1202  0.0817
13831W        W56822   9.985  30.927   5.766 -0.1356  0.1480 -0.1275
13832W        W56823  26.748  10.458  23.771 -0.1508 -0.1408  0.2943
13833W        W56824  30.209  23.811   6.384  0.1063  0.1561  0.1214
13834W        W56825   5.031  18.044  29.001  0.1417  0.0211 -0.0656
13835W        W56826  27.220  22.039  17.141 -0.0536 -0.2127  0.2974
13836W        W56827  14.511  28.759   5.976 -0.0432  0.2667 -0.2968
13837W        W56828  32.552  17.214   6.246 -0.2900  0.0977 -0.0110
13838W        W56829   8.680  16.002  14.307 -0.2083  0.2169  0.2162
13839W        W56830   0.997  24.087   6.881 -0.1184 -0.1274 -0.0625
13840W        W56831   2.699  11.043  23.425  0.0284  0.3326  0.1093
13841W        W56832   1.334  20.617   1.333 -0.1035 -0.1422 -0.1516
13842W        W56833   0.908  34.237   4.888 -0.0916 -0.0360  0.0224
13843W        W56834  33.079  14.615  26.650 -0.1022  0.0061  0.0202
13844W        W56835   8.000  29.115  26.667 -0.0835 -0.0094  0.1081
13845W        W56836  23.389  12.755  23.746 -0.2334 -0.0342  0.1474
13846W        W56837   3.232   8.838   9.163 -0.2523 -0.2461  0.0236
13847W        W56838  27.527  23.330  14.208  0.0189 -0.1028 -0.1249
13848W        W56839   6.644  19.763   3.948 -0.2083 -0.0147 -0.2446
13849W        W56840   3.784  16.160  24.807 -0.0362 -0.3962 -0.3851
13850W        W56841  32.220   3.437   2.988 -0.1424  0.1065  0.2448
13851W        W56842  14.620   1.619   7.389  0.1211  0.0392 -0.0258
13852W        W56843   9.325  15.373   6.219  0.2454 -0.1499  0.0902
13853W        W56844  27.617  14.959   9.891 -0.1807 -0.1648 -0.1219
13854W        W56845  34.628  24.489   2.943 -0.2230  0.2213 -0.3102
13855W        W56846   0.440   9.756   9.602 -0.1537 -0.1270  0.1668
13856W        W56847  29.324  34.730   5.670  0.1166  0.0591  0.1929
13857W        W56848  15.996  15.788   5.711  0.0752 -0.2054  0.0316
13858W        W56849  11.808  23.365  25.244  0.0755 -0.0697 -0.0500
13859W        W56850  11.889   9.213  28.068 -0.1112 -0.0065 -0.0168
13860W        W56851   0.861  13.621  22.372 -0.1131 -0.1383  0.1109
13861W        W56852   5.621  20.460  26.290 -0.3946 -0.2255  0.1220
13862W        W56853   6.699   8.293  10.652 -0.0532  0.0727 -0.1144
13863W        W56854   1.150  31.309   1.487 -0.2146  0.0573 -0.0105
13864W        W56855  15.352  14.120   9.777 -0.1239  0.0948  0.1139
13865W        W56856   7.159  26.097  23.402 -0.2110 -0.3136 -0.0251
13866W        W56857  22.159   7.939  22.444 -0.2651  0.2309  0.0503
13867W        W56858   9.913  17.373  18.375  0.2527 -0.0578 -0.1018
13868W        W56859   5.248  11.252  24.212 -0.5301  0.1186  0.0570
13869W        W56860  22.777  20.445   6.572 -0.3613  0.2030 -0.3190
13870W        W56861   7.614  31.602  19.631 -0.0898 -0.2516  0.1507
13871W        W56862  13.553   7.779  16.453 -0.0086  0.0739  0.2762
13872W        W56863   0.912  27.342  15.720  0.0140  0.1159 -0.1195
13873W        W56864  28.105  12.879  24.166  0.0896  0.0795  0.1576
13874W        W56865  10.907  25.987  16.257 -0.0652  0.1429  0.0748
13875W        W56866  34.550   0.278   4.301  0.2196 -0.0916 -0.0248
13876W        W56867  28.822   9.833  23.055 -0.0646  0.1428 -0.2455
13877W        W56868  22.741  24.729  28.415  0.2499  0.2180  0.0978
13878W        W56869  32.337  21.705   0.139  0.0731 -0.3536  0.1633
13879W        W56870   7.851  22.766  25.832  0.3629 -0.0625  0.0155
13880W        W56871   1.480   4.615   8.012 -0.0104  0.1993  0.0937
13881W        W56872   8.930  16.150   0.192  0.0274 -0.2090  0.1890
13882W        W56873  18.576  20.576  24.213 -0.1626  0.0168 -0.0441
13883W        W56874  14.355  10.908  21.091  0.0791 -0.2048  0.0241
13884W        W56875   0.553  14.104  10.206 -0.0247 -0.0384  0.1684
13885W        W56876  11.162  24.244  27.215 -0.1463 -0.0355 -0.1188
13886W        W56877  17.500   2.431  21.558  0.1450 -0.0893  0.2884
13887W        W56878  29.355  25.876  24.686 -0.0584  0.0671 -0.0265
13888W        W56879   0.398   8.662   1.275  0.0034  0.1863  0.0181
13889W        W56880  15.283  14.505  16.031 -0.2434 -0.1643 -0.0809
13890W        W56881  34.528  14.506   1.971  0.3335 -0.3859  0.1116
13891W        W56882  24.050  25.463  15.910 -0.0308  0.2068 -0.0727
13892W        W56883   3.335   6.851  18.345  0.0637  0.0982 -0.1418
13893W        W56884   9.210  19.735  14.728  0.1905  0.5230 -0.0554
13894W        W56885   3.439  34.053  26.303 -0.0561  0.2367 -0.0979
13895W        W56886  33.655  23.143   2.423 -0.3162  0.1951  0.0488
13896W        W56887  30.983  16.951  25.336 -0.0304  0.0800 -0.1945
13897W        W56888  22.286   2.071  13.278  0.1545 -0.1286  0.0245
13898W        W56889  30.519  27.961   0.008  0.1420 -0.0171  0.2226
13899W        W56890  30.831  13.492  15.008  0.1096  0.2565 -0.2729
13900W        W56891  13.520  23.600  15.445 -0.0741  0.1349 -0.0704
13901W        W56892  29.001  24.875  26.259 -0.0752  0.0985 -0.1277
13902W        W56893   9.034   8.870  19.521 -0.1039  0.1958  0.0900
13903W        W56894  31.310  24.919  14.757 -0.0644 -0.0011 -0.0017
13904W        W56895  27.654  24.600  23.475 -0.1222 -0.0692 -0.0350
13905W        W56896  30.825  19.838   6.603 -0.0370 -0.0125  0.0331
13906W        W56897  28.188   0.304  16.600  0.3682  0.0380  0.1218
13907W        W56898   5.566  21.376  27.587  0.0476 -0.2688  0.0617
13908W        W56899  30.774  22.956  17.090 -0.1683  0.1741 -0.2289
13909W        W56900  22.287  22.826  16.507 -0.1339 -0.2629 -0.3713
13910W        W56901  32.661  29.770  26.565 -0.0132  0.1051  0.0801
13911W        W56902   3.888  13.710  24.804 -0.0518 -0.1200 -0.0845
13912W        W56903   9.558  11.888   9.008 -0.1643  0.0304 -0.1537
13913W        W56904  13.796  20.906  22.444 -0.0158  0.4648 -0.1787
13914W        W56905   4.516  16.517  25.793  0.1590 -0.2665 -0.0934
13915W        W56906   2.686  19.924  21.374 -0.1370 -0.0237  0.3874
13916W        W56907  31.181  27.467  13.196 -0.1974  0.0043  0.2510
13917W        W56908   0.595   9.636  28.922 -0.1414 -0.1441 -0.1655
13918W        W56909  33.293  20.827  17.781 -0.1364  0.0609 -0.0078
13919W        W56910  30.913   8.083  21.278  0.4829 -0.0597 -0.2766
13920W        W56911  27.704  12.053   9.950 -0.0486 -0.1163 -0.0759
13921W        W56912  14.029   6.505  19.966 -0.1884  0.2071 -0.1810
13922W        W56913   3.091  23.408  21.116  0.0180 -0.2902 -0.3038
13923W        W56914  27.875  29.246  23.969  0.0136  0.1745 -0.0922
13924W        W56915  33.754  17.478  19.016  0.3048  0.0435 -0.1856
13925W        W56916  28.298   2.598  20.879 -0.0100 -0.2618 -0.0766
13926W        W56917  14.925   4.118  23.606 -0.2406  0.0504 -0.0983
13927W        W56918   4.472  23.484  17.612 -0.2283 -0.1310 -0.1673
13928W        W56919   3.735  11.563  28.588  0.2197 -0.0348  0.2460
13929W        W56920  30.593   0.530  14.060 -0.0588  0.0148  0.3430
13930W        W56921  32.363   1.277  17.710 -0.1478 -0.1563 -0.0858
13931W        W56922  28.122  27.294  16.787  0.1491 -0.2565 -0.1230
13932W        W56923   1.822  27.916   1.584  0.1949  0.2956 -0.1085
13933W        W56924  28.249  16.721  18.696  0.0268 -0.2448 -0.1491
13934W        W56925  32.993   4.950  14.828 -0.2888 -0.1375  0.1363
13935W        W56926   0.075  20.639  16.920  0.0605  0.0633  0.1260
13936W        W56927   1.451  33.016   1.845 -0.4271 -0.4416  0.1123
13937W        W56928  30.776  21.607  23.662 -0.1792  0.0646  0.0960
13938W        W56929   0.211  34.112  19.128  0.1820 -0.0408 -0.5812
13939W        W56930  21.641  33.539  14.651  0.2859 -0.0440  0.0264
13940W        W56931   5.423   9.718  23.771 -0.1540 -0.0316 -0.0421
13941W        W56932  10.394  31.322  15.577 -0.0006  0.1259 -0.2151
13942W        W56933  10.187  29.781   0.038 -0.1458 -0.2956  0.3527
13943W        W56934  12.203  22.516  26.049 -0.1072 -0.2884  0.1017
13944W        W56935  26.011   1.651  21.840 -0.1409  0.3846  0.1609
13945W        W56936  32.054  24.614  19.976 -0.0296  0.0707 -0.1685
13946W        W56937  28.782   8.407  15.019  0.0214  0.1443 -0.1214
13947W        W56938  22.799  16.478  20.730  0.1850 -0.1589  0.1454
13948W        W56939  31.621  16.119  18.510  0.5124 -0.0466 -0.1718
13949W        W56940  31.808  22.288  19.539 -0.1294 -0.0295  0.0792
13950W        W56941  25.721  26.419  19.280  0.0276  0.1201  0.2477
13951W        W56942   3.942  26.441  18.442 -0.2240 -0.0064 -0.3448
13952W        W56943  19.688   8.483  20.871  0.0844  0.1656  0.0634
13953W        W56944  34.361  21.977  20.198  0.4601  0.4046  0.0327
13954W        W56945   4.394  22.408   1.838  0.1881 -0.2367  0.1623
13955W        W56946  30.141   8.141  21.976  0.2023 -0.1325 -0.1055
13956W        W56947  28.615  18.586  25.354 -0.2008 -0.1410  0.0402
13957W        W56948  20.277  23.973  23.958 -0.2382 -0.3168  0.1195
13958W        W56949   8.349  31.497  15.230 -0.0220  0.0582 -0.0900
13959W        W56950   3.905   0.429  15.423  0.3121 -0.2510 -0.1953
13960W        W56951  21.081  19.723  25.867  0.0996 -0.3204 -0.0016
13961W        W56952  29.508  19.245  16.776 -0.0253  0.1174 -0.2459
13962W        W56953  31.844   8.524  18.988  0.0954 -0.1977 -0.1918
13963W        W56954   8.182  13.909  20.089  0.1352 -0.0118  0.0871
13964W        W56955   5.252   4.282  17.733 -0.0578  0.3087 -0.2544
13965W        W56956  34.313   3.890  15.896 -0.1591  0.0039  0.0752
13966W        W56957  22.964  17.589  25.343  0.2127  0.0688  0.1685
13967W        W56958   1.937  14.956  22.796  0.1398 -0.0158 -0.2118
13968W        W56959  13.017  33.208  18.554 -0.2002 -0.1008  0.0416
13969W        W56960  24.543  22.837  21.300  0.3225 -0.0881 -0.0581
13970W        W56961  32.459  13.766  24.384 -0.0012  0.1718 -0.1923
13971W        W56962   6.700   3.992  15.539 -0.0911  0.0367 -0.1243
13972W        W56963   1.736   5.993  27.483  0.0278 -0.2234  0.2495
13973W        W56964  10.023   0.375  18.941 -0.0635  0.3882 -0.4877
13974W        W56965   0.643  20.280  15.022  0.1806  0.0277 -0.1498
13975W        W56966  24.506  33.894  26.429  0.0984 -0.2892 -0.0333
13976W        W56967   6.300  31.633  26.844 -0.0940  0.2269 -0.2012
13977W        W56968  31.524   2.727  18.031 -0.0838  0.0317  0.0790
13978W        W56969  27.188  30.833  24.920  0.1596  0.2191 -0.0483
13979W        W56970  14.287  14.924   2.217 -0.1118  0.2919 -0.2013
13980W        W56971   8.540  29.893  16.347 -0.1740 -0.2140  0.0362
13981W        W56972  31.668   5.217  22.565 -0.0012 -0.1095  0.4270
13982W        W56973  28.496  20.977  17.155  0.0681 -0.1256  0.0594
13983W        W56974  27.018  28.029  19.160  0.3774 -0.0613  0.0444
13984W        W56975  23.923  12.815   1.107 -0.2859  0.0591 -0.0276
13985W        W56976  22.941   5.700  21.208 -0.0847 -0.2844 -0.0384
13986W        W56977  18.052  22.850  14.533 -0.0320  0.0923  0.1347
13987W        W56978   7.399  21.819  22.384  0.1217 -0.1264  0.0376
13988W        W56979  30.933  26.271  23.197 -0.1665 -0.0236 -0.4022
13989W        W56980   3.575  22.596  15.442  0.2009 -0.0643 -0.1785
13990W        W56981   0.803  26.716  24.686 -0.0381  0.0054  0.1572
13991W        W56982  10.916  31.316  15.363  0.0609 -0.1493  0.1628
13992W        W56983  28.748  22.503  21.104  0.1441 -0.1440 -0.3064
13993W        W56984  26.369   0.545  23.503 -0.1357 -0.2867 -0.2113
13994W        W56985   6.867   8.430  16.593  0.0307  0.1011 -0.1275
13995W        W56986  27.278  24.534  18.490  0.0054  0.2336 -0.1360
13996W        W56987  28.493  33.024  20.888 -0.1442 -0.1746 -0.0750
13997W        W56988  32.706  27.558   3.015  0.2186 -0.0260  0.0943
13998W        W56989  19.804  13.172  26.441 -0.4519  0.1054  0.0443
13999W        W56990  33.499   6.955  23.165 -0.0372  0.0032 -0.0930
14000W        W56991   2.390   7.372  17.623 -0.1117  0.1006 -0.2337
14001W        W56992  34.330  33.561   2.032  0.0077  0.3022  0.0470
14002W        W56993  26.713  28.568  24.147 -0.0714  0.2098 -0.2994
14003W        W56994   8.453  15.067  24.556 -0.0048  0.0594 -0.1449
14004W        W56995  34.641  20.866  28.389 -0.1784  0.2828 -0.0765
14005W        W56996   2.937  32.555  26.825 -0.1171 -0.2062 -0.0711
14006W        W56997   1.914  11.471  17.874  0.0461 -0.0651  0.0535
14007W        W56998   6.894  28.068  25.780  0.2341 -0.2058 -0.1187
14008W        W56999  19.171  12.941   3.160  0.0275 -0.0647  0.0090
14009W        W57000   2.062  16.637   8.899 -0.1023 -0.3292  0.0589
14010W        W57001   1.017  21.953  22.694  0.0204 -0.1040  0.0525
14011W        W57002  27.472   9.487  21.140 -0.1060 -0.3372  0.0004
14012W        W57003   6.718  29.327  18.350 -0.0551  0.0643  0.1080
14013W        W57004   1.769  20.249  20.733 -0.1894 -0.1458 -0.2481
14014W        W57005   1.402  16.083  21.278 -0.1756 -0.2699  0.1719
14015W        W57006   2.562  25.939  15.007 -0.3109 -0.1962 -0.1441
14016W        W57007  20.635  24.812  15.931  0.3644  0.0532  0.1116
14017W        W57008  27.822  21.715  20.403  0.2932  0.2633  0.1261
14018W        W57009   8.504  22.214  16.931 -0.0654  0.0856 -0.0204
14019W        W57010   4.811  21.825  21.981  0.0469  0.0159 -0.0526
14020W        W57011   5.722  25.935  18.730  0.2323  0.0985 -0.0667
14021W        W57012   2.600   4.174  21.619 -0.3066 -0.1237  0.3162
14022W        W57013  33.509  28.565  17.999 -0.1495 -0.1802 -0.1255
14023W        W57014  27.141  26.753  28.708  0.1381  0.0924 -0.1467
14024W        W57015  24.233  31.901  16.373  0.0881 -0.2329  0.2356
14025W        W57016  24.837  27.818  19.308 -0.0190  0.0536 -0.1826
14026W        W57017  10.799  29.693  17.257  0.2073  0.0205  0.1929
14027W        W57018  34.173  29.302   6.801  0.0298 -0.0162  0.1872
14028W        W57019  22.224  22.578  13.334  0.4218  0.2276  0.2078
14029W        W57020   8.980  24.891  16.303 -0.0758  0.0019  0.1007
14030W        W57021  21.987  22.158  29.212 -0.2931  0.1751 -0.0629
14031W        W57022   5.395  14.854  28.848 -0.0534  0.2563 -0.3126
14032W        W57023   2.590  27.527   2.129  0.1658  0.1577  0.2002
14033W        W57024  24.642  14.129   1.189  0.0565 -0.0349 -0.3221
14034W        W57025   4.377   2.340  22.726 -0.0715  0.1503  0.2237
14035W        W57026  22.465   9.025  25.692 -0.1469  0.0422  0.0682
14036W        W57027  32.446  32.765  13.779 -0.0098  0.4496  0.0786
14037W        W57028   1.643   8.964  28.973 -0.1121  0.0966  0.0349
14038W        W57029   7.677  25.625  16.341 -0.1675 -0.2893 -0.0310
14039W        W57030  20.406  11.733  18.250 -0.4493 -0.4629 -0.0927
14040W        W57031  19.417  26.309  15.528 -0.1896 -0.2263  0.2751
14041W        W57032  16.360  10.985  22.517  0.2146 -0.2121  0.1104
14042W        W57033   4.359  23.885  27.039  0.2695  0.0734 -0.2002
14043W        W57034  33.708   1.646   1.785 -0.1861  0.3223 -0.1245
14044W        W57035  34.786   6.970  26.567 -0.0557 -0.0153 -0.0356
14045W        W57036  29.228  29.010  16.133 -0.0004  0.2416 -0.2322
14046W        W57037   4.419  17.521  21.201 -0.2339  0.1041 -0.0139
14047W        W57038  29.877  12.367  15.241 -0.2275  0.3188 -0.2226
14048W        W57039  18.108  21.512  15.767 -0.0675  0.2453 -0.1256
14049W        W57040  17.399  19.788  13.189  0.0322 -0.1277  0.3751
14050W        W57041  25.411  26.061  15.135  0.1279 -0.0664  0.1153
14051W        W57042  22.748  28.059  17.366  0.1566 -0.0401 -0.3296
14052W        W57043  30.906  15.940  27.410 -0.1357 -0.0004 -0.2849
14053W        W57044  21.408  24.969  20.245  0.0916 -0.1468  0.0166
14054W        W57045   2.163  32.467  18.104 -0.0666 -0.1509  0.2942
14055W        W57046  28.774  11.884  16.107  0.2833 -0.0752 -0.0187
14056W        W57047  34.532  20.793  15.095  0.0818 -0.1677  0.1508
14057W        W57048  16.997  22.027  14.096  0.2559 -0.1039 -0.2657
14058W        W57049  19.847  27.577  14.728  0.1422  0.0446 -0.0187
14059W        W57050   5.586   2.429  19.889 -0.1981 -0.0695  0.2939
14060W        W57051  33.674  24.860  17.169  0.2968 -0.1521  0.5321
14061W        W57052  19.530  30.753   2.638  0.0517  0.0663  0.3263
14062W        W57053   4.224  26.974  21.628 -0.1771  0.0813  0.0446
14063W        W57054  10.594  21.992  21.987  0.0574 -0.0461  0.1085
14064W        W57055   6.320   2.625  23.217  0.2029  0.1521  0.1788
14065W        W57056   6.173   3.474   1.695 -0.0846 -0.1103 -0.3342
14066W        W57057  34.691  25.691  23.755  0.0117  0.0821 -0.1204
14067W        W57058   2.721   5.406  27.788 -0.2158  0.5420  0.1656
14068W        W57059  31.760  14.970  15.818 -0.0781  0.1668  0.0308
14069W        W57060  11.003  27.746  17.166 -0.3170 -0.1866  0.1223
14070W        W57061  33.282  23.754  24.400 -0.2398  0.1297 -0.2314
14071W        W57062   7.578  28.376  17.776 -0.0353  0.1400 -0.0467
14072W        W57063   0.648   1.006  27.493  0.0984 -0.0286  0.0029
14073W        W57064  32.155  21.730  19.134 -0.0870 -0.2231  0.2325
14074W        W57065  14.048  19.691  15.222  0.0265  0.0757 -0.0798
14075W        W57066  23.992  21.457  13.590 -0.0194 -0.3400 -0.1015
14076W        W57067   0.078  24.054  19.423  0.0583 -0.3452 -0.1850
14077W        W57068   1.813  24.216  14.057 -0.1746  0.0008  0.1965
14078W        W57069  11.295   5.131  24.849  0.0096  0.0039  0.0112
14079W        W57070   8.485  24.376  20.131 -0.1352 -0.4190  0.0618
14080W        W57071   6.658  10.645  23.118 -0.0051  0.0508  0.1013
14081W        W57072  32.340  15.554  15.920 -0.0853  0.2770 -0.1151
14082W        W57073   3.479   0.838  23.916 -0.0520 -0.0060  0.0227
14083W        W57074  27.584  28.827  23.043 -0.2431 -0.1496  0.1120
14084W        W57075  17.086  26.670  21.437 -0.0364 -0.1550 -0.2353
14085W        W57076   3.447  21.036   0.072  0.0532 -0.2615  0.0740
14086W        W57077  32.674  16.684   2.510  0.1765  0.3291  0.0051
14087W        W57078  34.462  10.612  17.508 -0.0333  0.3319  0.1876
14088W        W57079  11.520  27.151  21.536 -0.3087  0.2204  0.4015
14089W        W57080  12.791  19.607  17.948  0.0557 -0.0735 -0.1498
14090W        W57081   2.407   2.735  23.541 -0.0008  0.3378 -0.2127
14091W        W57082   3.314  19.589  16.100 -0.1373  0.0465  0.0700
14092W        W57083  17.406  25.221  21.362  0.0371  0.1829  0.2007
14093W        W57084   6.935  27.114  24.551  0.1786  0.0583 -0.1428
14094W        W57085  30.998  30.905  23.472 -0.3084 -0.0187 -0.2079
14095W        W57086  10.874   5.089  17.024  0.4440 -0.2101 -0.1647
14096W        W57087   1.667  16.006   3.998  0.3960  0.2191  0.0102
14097W        W57088   7.544  17.554  23.784  0.3434 -0.2836 -0.1339
14098W        W57089   7.989  23.246  24.814  0.1565 -0.0436 -0.1597
14099W        W57090  34.608  11.480  22.179  0.3857  0.1431 -0.4026
14100W        W57091  27.782  28.617  12.849 -0.0883 -0.2771 -0.0319
14101W        W57092  31.127   3.128  18.097  0.2857 -0.1382 -0.2524
14102W        W57093  19.456   7.362   0.589  0.2584 -0.1397 -0.0977
14103W        W57094  27.766  24.571  16.286  0.2229 -0.0135  0.0535
14104W        W57095  27.358   4.770  19.096  0.1652  0.1243  0.1849
14105W        W57096  22.949  11.347  17.433 -0.0852 -0.2380  0.1870
14106W        W57097  19.174  11.779  13.999  0.0814 -0.0479 -0.1569
14107W        W57098  34.256  26.845  28.260 -0.2141  0.1842  0.1227
14108W        W57099  17.589   8.449  21.633  0.3688  0.3262 -0.1976
14109W        W57100   6.031  21.991  20.862 -0.0651  0.1450  0.2284
14110W        W57101   7.135  12.352  24.307  0.0934  0.0049  0.2067
14111W        W57102  34.405  24.994   2.364  0.1862 -0.0856  0.2902
14112W        W57103  32.781  26.498  13.945  0.1508  0.3027  0.0511
14113W        W57104   3.897  17.839  21.720  0.1720 -0.1056 -0.1027
14114W        W57105  33.796  31.465  17.128  0.2130 -0.0486 -0.1912
14115W        W57106   3.165  32.107  22.661  0.2164 -0.0421  0.2835
14116W        W57107  30.473  23.886  26.234 -0.0272 -0.0916  0.1621
14117W        W57108  31.247  22.327   3.287  0.3629 -0.2355 -0.4911
14118W        W57109  31.358  19.578  15.435  0.0588 -0.2309 -0.4311
14119W        W57110  17.103   1.015  15.754 -0.0120  0.2089 -0.0286
14120W        W57111   3.261  17.731  27.073  0.1719 -0.0356 -0.1913
14121W        W57112  20.787  16.926  27.041 -0.0653  0.0055 -0.2870
14122W        W57113  15.341  14.288   0.682  0.0317  0.1151 -0.1511
14123W        W57114   2.435  20.021  23.077  0.2227 -0.0117 -0.0227
14124W        W57115   6.474  15.839  16.321 -0.1086 -0.1536  0.3713
14125W        W57116   0.344  20.325  18.186 -0.1100  0.0945  0.1526
14126W        W57117  16.910  33.282  26.621  0.1959  0.0367  0.1432
14127W        W57118  22.017  19.615  28.713 -0.1553  0.1924 -0.3249
14128W        W57119   6.941  17.151  21.252 -0.4807  0.3756 -0.1809
14129W        W57120   3.562   0.940  29.024 -0.3003  0.0651  0.3788
14130W        W57121   3.860  34.093  27.686 -0.0412 -0.0498 -0.1075
14131W        W57122   0.537  27.099  18.889 -0.1439 -0.0961  0.1900
14132W        W57123  34.095  14.866  25.223 -0.5306  0.1371 -0.1092
14133W        W57124   2.775  25.234  21.054 -0.0452  0.3039 -0.2200
14134W        W57125  25.829   5.599  23.402  0.0789 -0.0367 -0.0491
14135W        W57126   1.317  32.178  20.355  0.2541  0.0821 -0.0683
14136W        W57127  33.476   5.312   3.257 -0.0646 -0.3063  0.2048
14137W        W57128  29.912  29.924  14.939  0.0861 -0.0487  0.1621
14138W        W57129   3.166   9.771  15.420 -0.5342 -0.0965  0.1402
14139W        W57130   7.508  10.519  19.990 -0.1503  0.3912  0.0342
14140W        W57131   4.217  23.516  19.217  0.2085 -0.1364 -0.1283
14141W        W57132   8.218  17.664  23.020 -0.2569 -0.1439  0.1164
14142W        W57133   9.154   3.739  24.724 -0.3193 -0.0091 -0.1028
14143W        W57134  12.616  19.205  19.164 -0.1603 -0.0938  0.1704
14144W        W57135  23.339  23.832  18.015  0.0078 -0.2359  0.0539
14145W        W57136  30.576  18.679  14.596  0.1520 -0.0527  0.2811
14146W        W57137  13.178  27.322  16.537 -0.1715 -0.1936  0.5216
14147W        W57138   3.868   9.193  16.896  0.3868 -0.0531  0.1707
14148W        W57139  12.922   9.980  25.053 -0.1889 -0.1686 -0.1637
14149W        W57140   6.982  12.092  16.813 -0.1513  0.0944 -0.2401
14150W        W57141  12.769  16.791  21.772 -0.0233  0.0499 -0.2451
14151W        W57142   3.514  25.500  19.830  0.0712 -0.1727 -0.3591
14152W        W57143  28.500   9.259  16.272  0.2050  0.0537 -0.0041
14153W        W57144  31.370  29.992  24.120 -0.1340  0.0970 -0.1287
14154W        W57145  28.078  26.742  27.670 -0.1519  0.0137  0.1760
14155W        W57146  26.108  27.972  15.045 -0.0036 -0.2876 -0.0348
14156W        W57147  27.243   4.619  21.408 -0.0691 -0.1953  0.4667
14157W        W57148  12.663  28.251  19.380 -0.0116 -0.2137  0.1191
14158W        W57149   9.653  19.344  20.590 -0.0545 -0.0366  0.1844
14159W        W57150   0.481   7.933  22.554  0.0786  0.1131 -0.1246
14160W        W57151  31.628  26.858   6.875  0.0004  0.0833 -0.2069
14161W        W57152  13.687  20.317  18.901  0.0660  0.0518 -0.0927
14162W        W57153  31.791   2.697  18.999 -0.0065  0.3469  0.3367
14163W        W57154   1.986  13.784   0.379 -0.0511 -0.1840 -0.0473
14164W        W57155  14.071  22.050  16.030  0.2030 -0.3054  0.0707
14165W        W57156  27.194  25.375   1.064  0.1827 -0.3509 -0.2202
14166W        W57157   7.166  23.505  26.614  0.0215  0.2045  0.0279
14167W        W57158  33.663  19.699  23.585  0.2854 -0.1685 -0.0523
14168W        W57159  33.216  20.423  18.375 -0.2830 -0.0429 -0.1771
14169W        W57160  23.305   4.600  26.732  0.0406 -0.0939 -0.2997
14170W        W57161  31.760  19.638  18.123 -0.0083  0.0481  0.0181
14171W        W57162  33.758  21.488  22.847  0.1318 -0.2703  0.1848
14172W        W57163   7.121  31.952  18.794  0.0170 -0.1411  0.0069
14173W        W57164  16.554  29.122   1.647 -0.0115 -0.0253 -0.1290
14174W        W57165  11.652   0.957   1.003  0.0804 -0.0479  0.1720
14175W        W57166  31.715  21.093   6.421  0.3188  0.1640  0.0758
14176W        W57167   4.950  18.015  18.601  0.1294  0.2379  0.0507
14177W        W57168  16.098  33.013  26.002 -0.1737 -0.3696 -0.1791
14178W        W57169   3.671  32.909  13.613 -0.0720 -0.2102 -0.0759
14179W        W57170   4.530  26.647  25.163 -0.2756 -0.1808 -0.0951
14180W        W57171  23.519  24.188  26.323  0.5202 -0.2256  0.0181
14181W        W57172  33.653  10.403  17.109  0.0537 -0.0979  0.1534
14182W        W57173  34.242  30.154   6.877  0.2245  0.1450  0.3822
14183W        W57174   1.751  14.163  17.011  0.1816 -0.1944  0.1711
14184W        W57175  14.377  25.610  15.417 -0.2338 -0.0069 -0.1070
14185W        W57176   0.343  22.860  21.870 -0.0476 -0.0576 -0.0233
14186W        W57177   5.798  34.150   3.795 -0.0697 -0.1501 -0.0724
14187W        W57178  32.726  31.146  16.004 -0.2670  0.1343  0.0840
14188W        W57179   9.498   3.322  15.343 -0.2367  0.0720  0.0877
14189W        W57180  12.170   8.596  19.530  0.0116 -0.5047  0.1486
14190W        W57181   8.885  30.893  19.137 -0.1838 -0.2940 -0.0361
14191W        W57182  27.317  26.548  13.636 -0.1077 -0.0321  0.1278
14192W        W57183  29.531   7.272   2.502  0.0117  0.1235 -0.1519
14193W        W57184  31.297  19.054  21.084  0.2447 -0.3020 -0.0711
14194W        W57185  15.552   6.522  24.423 -0.2686  0.0556  0.0906
14195W        W57186  28.376  20.543  18.858  0.0993 -0.0885 -0.3042
14196W        W57187  27.341  26.550  21.376  0.1078 -0.3676  0.2075
14197W        W57188   3.078   4.043  18.326  0.3713  0.0946  0.3513
14198W        W57189  13.605  26.249  24.711 -0.0052 -0.1635 -0.3969
14199W        W57190   3.662  20.922  23.500  0.2924 -0.0653 -0.0206
14200W        W57191   6.062  17.410  19.119  0.0480  0.1148 -0.0746
14201W        W57192   5.266  18.220  16.291  0.2830 -0.2231  0.1607
14202W        W57193  17.088  23.275  16.820 -0.0609  0.0439 -0.2532
14203W        W57194   0.597   0.954  25.258  0.0349  0.3694 -0.3250
14204W        W57195   0.671  11.979  18.415  0.0301 -0.0257  0.1268
14205W        W57196  13.806  28.007  17.272 -0.1227  0.0938 -0.1665
14206W        W57197   5.319   9.425  16.093  0.2762 -0.1343 -0.0143
14207W        W57198   6.824  15.015   0.457  0.0163 -0.4162  0.4094
14208W        W57199   5.100  20.821  22.338  0.0469 -0.1796  0.1330
14209W        W57200  33.778  20.631   6.023  0.1211 -0.0705  0.2620
14210W        W57201  13.019  19.659  22.955  0.1068  0.3379  0.2753
14211W        W57202   0.047  21.379  15.630  0.0553 -0.2925 -0.0940
14212W        W57203  13.820  25.417  24.900 -0.1467  0.0309  0.2138
14213W        W57204   5.895  25.169   2.720 -0.0353 -0.1143 -0.0967
14214W        W57205   6.713  23.180  18.049  0.1912  0.2910  0.1029
14215W        W57206  25.755   5.852  17.498  0.1925 -0.0416  0.0332
14216W        W57207   7.287  32.368  17.428 -0.1430 -0.1073  0.1380
14217W        W57208  31.362   5.707  20.917  0.1065 -0.1041 -0.1344
14218W        W57209  30.799  13.871  21.489  0.1149 -0.2554 -0.0044
14219W        W57210  15.712  10.213  20.184 -0.3085  0.0080  0.0427
14220W        W57211  25.855  20.264  23.126 -0.0868 -0.0277 -0.0668
14221W        W57212   4.946  23.722  21.707 -0.1118 -0.2474  0.0980
14222W        W57213   4.256  10.154   4.646  0.2608 -0.0717  0.1796
14223W        W57214  11.119  24.818  25.501 -0.2313 -0.2474 -0.0241
14224W        W57215   7.609  34.532  15.475 -0.1162  0.0045 -0.1151
14225W        W57216   2.720  17.868  16.326  0.1450 -0.1592 -0.0385
14226W        W57217   2.540  24.305  26.336 -0.0123 -0.0882 -0.1688
14227W        W57218  28.000   1.509  24.375 -0.0315  0.0187 -0.0902
14228W        W57219   2.516  24.271   1.851  0.3347 -0.0570 -0.1315
14229W        W57220  28.715  27.954  13.845  0.1686  0.0099 -0.0765
14230W        W57221   4.092   0.971  17.084  0.2352 -0.1720 -0.0917
14231W        W57222  30.448  21.652  20.488 -0.0664 -0.0543 -0.1695
14232W        W57223   9.274  31.157  20.796 -0.2594 -0.1369 -0.2392
14233W        W57224  29.794  19.058  15.757  0.1595 -0.2576  0.1041
14234W        W57225   8.769  24.405  18.934 -0.2304 -0.0656  0.2332
14235W        W57226   9.965  21.589  22.479 -0.0678 -0.0089  0.2078
14236W        W57227  23.411  31.628  16.379 -0.0131  0.2508  0.2955
14237W        W57228  21.739   9.821  28.930 -0.0923  0.1241 -0.0195
14238W        W57229  33.069   2.986  23.397  0.1138 -0.0553 -0.0873
14239W        W57230   3.468  21.337  20.387 -0.0866  0.0690 -0.0154
14240W        W57231  14.027   5.032   4.644 -0.0384 -0.0977 -0.0364
14241W        W57232  27.243  22.111   1.356 -0.0401  0.0055 -0.2596
14242W        W57233  34.760  11.040  17.609  0.1643  0.0601 -0.1480
14243W        W57234  24.245  32.511   1.811  0.2273  0.0551 -0.1043
14244W        W57235  22.995  19.933  21.787  0.0302 -0.1395 -0.1011
14245W        W57236   4.399  11.618  16.932 -0.0097 -0.0360  0.0543
14246W        W57237   0.463  10.412  15.499 -0.0524 -0.3730  0.1344
14247W        W57238  12.847  28.077  21.072  0.2691 -0.2242 -0.1387
14248W        W57239  24.488  20.672  18.178 -0.0633  0.0340  0.0033
14249W        W57240  24.407  25.062  14.828  0.0717 -0.2210  0.1126
14250W        W57241  27.778  33.198  12.830  0.3302 -0.0869 -0.1391
14251W        W57242  17.081   0.479  17.534 -0.0612  0.0458 -0.0828
14252W        W57243  26.881  24.915  16.196 -0.1550  0.1714 -0.0475
14253W        W57244  27.459  23.992  20.901  0.1166  0.1422 -0.1800
14254W        W57245  20.886  23.544   7.700 -0.2680  0.2253 -0.1083
14255W        W57246   8.064  30.511   4.000 -0.2371  0.0995 -0.0135
14256W        W57247  11.842  21.165  18.155 -0.0004  0.1376  0.1245
14257W        W57248  21.876  17.152  21.446  0.1169  0.0992  0.1967
14258W        W57249  17.656  34.420  19.330 -0.0400  0.4001 -0.4178
14259W        W57250  32.200  28.227  18.840  0.0419  0.3121  0.2698
14260W        W57251   3.026  12.750  25.169 -0.3465 -0.1688  0.0910
14261W        W57252  26.448  27.809  24.793  0.1187 -0.1097  0.2819
14262W        W57253  22.786  18.683  14.678 -0.3399 -0.0991 -0.1141
14263W        W57254   6.356  23.420   0.209  0.1769  0.3289 -0.0045
14264W        W57255  23.573   4.495  13.606  0.0957 -0.1093 -0.2174
14265W        W57256  31.787  18.146  21.024 -0.2806  0.4100 -0.3223
14266W        W57257  16.778  26.959  27.054 -0.1723  0.2384  0.1548
14267W        W57258  27.270  24.699  14.488 -0.1554 -0.1313 -0.1532
14268W        W57259   5.570   4.123  17.282  0.0337  0.1765  0.0402
14269W        W57260  23.292  29.050  29.000  0.0661 -0.1527 -0.1319
14270W        W57261  33.773  13.223  19.873  0.2333  0.2025 -0.1280
14271W        W57262  16.640   2.818  20.759 -0.0780  0.1551  0.1926
14272W        W57263  31.262  22.911  16.918 -0.0673 -0.0277 -0.0386
14273W        W57264   6.708  21.265   2.586 -0.2020  0.0127 -0.2491
14274W        W57265   0.666   6.392  26.122 -0.2067 -0.1271  0.0347
14275W        W57266   8.245  34.022  27.038  0.0367 -0.1022  0.0193
14276W        W57267   3.887  20.095  23.298 -0.3014 -0.1401 -0.0786
14277W        W57268   5.271  24.301  15.477  0.1282 -0.0092 -0.0936
14278W        W57269   9.855  28.568  21.615 -0.0542  0.3199 -0.1813
14279W        W57270   8.134  19.548  24.203 -0.2395  0.0592  0.0668
14280W        W57271   2.117   6.801  19.323  0.1853  0.2309 -0.2227
14281W        W57272  25.639  24.037  16.656  0.2894 -0.1479 -0.1148
14282W        W57273  34.172  15.869  22.109 -0.1484 -0.2281 -0.2077
14283W        W57274  33.914  27.882  19.553  0.0198  0.1267 -0.3028
14284W        W57275  15.309  20.458  16.500 -0.1549 -0.1259 -0.1301
14285W        W57276  31.880  25.215  23.709 -0.2450 -0.1333 -0.3951
14286W        W57277   7.854  20.552  24.213 -0.1773  0.0176  0.0732
14287W        W57278  17.862  26.389  27.929  0.1158  0.0046 -0.0490
14288W        W57279  27.955   2.125  14.610  0.0144 -0.0058  0.4810
14289W        W57280  28.145  27.414  17.887 -0.2112  0.2028 -0.0402
14290W        W57281  11.324  19.405   3.132 -0.0643  0.0409  0.2775
14291W        W57282  33.240  30.988  23.257 -0.1521  0.0730 -0.2158
14292W        W57283  22.815  31.444  20.656 -0.1404  0.2460 -0.2466
14293W        W57284   2.992  33.413  22.369  0.2006  0.1610 -0.0208
14294W        W57285   3.476  18.503  18.792  0.0563  0.1171 -0.2054
14295W        W57286  27.528   1.432   4.893  0.0700  0.1500 -0.3292
14296W        W57287  32.158  11.947  19.236 -0.3810 -0.3069  0.1013
14297W        W57288  34.006  20.798  18.477 -0.0745  0.1930  0.0744
14298W        W57289  10.414   5.831  25.409 -0.2197 -0.3369  0.3397
14299W        W57290  25.689  19.023  15.961 -0.0592  0.1346  0.2752
14300W        W57291  29.186   0.105  22.288 -0.0698  0.0420  0.0602
14301W        W57292   3.583  32.537  19.271  0.1369 -0.0776 -0.2366
14302W        W57293  27.895  29.647  25.830 -0.0143  0.0350 -0.0148
14303W        W57294   2.278  29.640  21.468  0.0928 -0.0535 -0.1250
14304W        W57295  30.567   6.987  25.730  0.2234  0.2070 -0.0939
14305W        W57296   5.520  30.594  29.047 -0.1337  0.0529 -0.2207
14306W        W57297   1.266  32.983   3.232  0.0188 -0.0310 -0.2977
14307W        W57298  31.541  14.639  18.449  0.2659 -0.3148  0.3686
14308W        W57299   3.323  11.364  18.943 -0.1379 -0.0763 -0.0035
14309W        W57300  28.034   0.104  14.005  0.0762  0.0781  0.3093
14310W        W57301   2.226  23.101  16.072 -0.0150 -0.3055  0.0813
14311W        W57302  24.270  31.520  18.596  0.4175 -0.1539  0.4701
14312W        W57303  28.256  34.023  16.292  0.2073 -0.0396 -0.0112
14313W        W57304   4.050  33.075   7.438  0.1410  0.0956  0.1781
14314W        W57305   7.752  24.934  27.618  0.3649 -0.0253 -0.1024
14315W        W57306  31.971  29.881   2.372 -0.0740  0.0088 -0.1159
14316W        W57307   4.527   2.325  14.704  0.1545 -0.1861  0.0832
14317W        W57308   3.015  15.662  18.508  0.1208  0.1957  0.2095
14318W        W57309   4.630   0.184  19.081 -0.0874  0.2233  0.2509
14319W        W57310  30.239  11.401  24.175  0.2543  0.1021  0.1372
14320W        W57311  31.381   2.231  14.249  0.2507 -0.1724  0.0001
14321W        W57312  21.418   9.338   6.383 -0.1177 -0.1677 -0.1354
14322W        W57313  28.305   9.519  20.990 -0.4514  0.1532  0.3108
14323W        W57314   0.868  22.853   0.313  0.1964 -0.2328 -0.1516
14324W        W57315  30.246  26.579  25.481 -0.3949  0.2830  0.3635
14325W        W57316  18.478  28.661  18.383 -0.0063 -0.0735 -0.1561
14326W        W57317  11.459  33.446   1.506  0.4942 -0.1098 -0.0244
14327W        W57318  29.185  28.506   0.966  0.3632 -0.0329 -0.0172
14328W        W57319  22.488  25.903  20.183  0.0335  0.1070 -0.2199
14329W        W57320   3.638  33.405  18.749 -0.0826 -0.1211  0.0596
14330W        W57321  31.815  16.179  19.078 -0.1652  0.1341 -0.1599
14331W        W57322   2.652   1.255  24.472 -0.0150  0.1907 -0.0559
14332W        W57323   4.520  16.117   3.784  0.1592 -0.0744  0.0652
14333W        W57324  14.961  16.405  15.080 -0.1087  0.1204 -0.0940
14334W        W57325   9.209  24.892  14.229 -0.0925 -0.0235 -0.0557
14335W        W57326  30.449  17.428  18.169  0.0255 -0.1890 -0.0028
14336W        W57327  27.161  16.814  23.630  0.1824  0.0995 -0.3909
14337W        W57328  14.334  13.900  15.538  0.0314 -0.0280  0.2375
14338W        W57329  26.993  22.347  23.585  0.3161 -0.2269  0.1427
14339W        W57330  27.541  16.419  15.142  0.1168 -0.1656  0.1612
14340W        W57331  34.611  16.731  28.169  0.1275 -0.0532  0.0323
14341W        W57332  25.878  32.554  25.861 -0.0818 -0.1359 -0.0449
14342W        W57333  28.666  13.535  19.515 -0.0503 -0.3670 -0.2043
14343W        W57334  18.996  27.979  14.536  0.1317  0.1435  0.2744
14344W        W57335   8.308   9.731  15.778 -0.3013  0.1444 -0.0130
14345W        W57336  20.845  25.511  16.497  0.0196  0.3389 -0.3008
14346W        W57337  10.487  29.313   0.268  0.0882 -0.2652  0.1761
14347W        W57338   1.795  11.685   1.600 -0.0077  0.1209 -0.0459
14348W        W57339   4.137  10.480   1.234 -0.1547 -0.0072 -0.1157
14349W        W57340   1.254  30.848  15.822  0.4008 -0.0771 -0.2063
14350W        W57341  33.998  21.827   0.885 -0.1199 -0.0556 -0.0577
14351W        W57342  34.267  19.098  17.199 -0.2239  0.1660 -0.2751
14352W        W57343  25.742  19.395   7.259 -0.0768  0.1398 -0.5468
14353W        W57344   1.251  22.791  22.028 -0.1478  0.2114 -0.1377
14354W        W57345  33.560  30.811  17.954  0.0503 -0.4705  0.0364
14355W        W57346   1.576  14.511  16.081  0.0166  0.0674 -0.1567
14356W        W57347  17.456  31.687  25.919 -0.0244 -0.0923  0.2297
14357W        W57348   6.577  33.930  28.706  0.0159  0.2669  0.0019
14358W        W57349   3.167  18.858  22.943  0.0111 -0.3515 -0.1260
14359W        W57350  10.692  16.621   4.158  0.1614 -0.1210  0.0796
14360W        W57351   1.509  15.832   1.489 -0.1615 -0.2370 -0.0347
14361W        W57352  23.797  20.755  19.836  0.1292  0.1987  0.2590
14362W        W57353  34.784  31.475  21.747  0.2242 -0.2462  0.0713
14363W        W57354   5.371  31.404  24.092  0.2176 -0.3365  0.2842
14364W        W57355  29.072  20.738  17.598 -0.0099 -0.3751 -0.1162
14365W        W57356   5.807   2.317  22.828 -0.1845 -0.0076 -0.0183
14366W        W57357   6.094  17.027  21.050 -0.1022  0.1328  0.3231
14367W        W57358   1.146   0.292  14.818  0.0314  0.3117  0.1528
14368W        W57359  24.279  27.779  25.502 -0.0668  0.0757 -0.3107
14369W        W57360  23.099  30.973  21.417 -0.0705  0.2217 -0.0827
14370W        W57361  34.301   3.191  14.371  0.3302 -0.0608  0.0216
14371W        W57362   1.948  16.408  23.796  0.1843  0.1370  0.0483
14372W        W57363   3.630   9.888   4.972 -0.2215 -0.0786  0.0371
14373W        W57364  34.583  26.593  15.270  0.0469 -0.0883 -0.1147
14374W        W57365  26.018  29.931   2.990 -0.0875 -0.0854  0.3306
14375W        W57366  23.588   8.109  21.362 -0.2548 -0.1222 -0.2062
14376W        W57367   6.081  30.592  17.067  0.1818  0.3125  0.1700
14377W        W57368  32.948  25.375  21.071  0.0497  0.0194  0.0353
14378W        W57369  10.996  27.099  19.603 -0.1180  0.3185  0.2171
14379W        W57370  19.655  22.381   3.571  0.0107 -0.2177 -0.0352
14380W        W57371  13.588  24.550  24.586  0.0223 -0.1064  0.0980
14381W        W57372   2.102  25.464  17.971  0.2316 -0.2410  0.2087
14382W        W57373  29.891  18.669  21.158  0.1677 -0.0081 -0.0591
14383W        W57374   0.555  19.150  24.292  0.0135  0.5644  0.0189
14384W        W57375   7.124  29.366  17.113  0.2267  0.2145  0.1341
14385W        W57376  17.407   0.444  20.521  0.0401 -0.0806  0.3332
14386W        W57377  26.448  32.101   2.142  0.2823  0.2909  0.0002
14387W        W57378   7.880   2.003  21.713  0.1341 -0.0007  0.3747
14388W        W57379  11.956  31.387  20.984  0.2216 -0.0432 -0.4197
14389W        W57380  10.287  20.183  21.000  0.0593  0.1054  0.0072
14390W        W57381   4.177  25.549  24.503  0.1793 -0.1548  0.0883
14391W        W57382  27.165  22.897   7.295  0.1109 -0.0461  0.0188
14392W        W57383  34.725   1.366  23.809  0.0209 -0.1545  0.0182
14393W        W57384   5.858  32.099  17.042  0.2969  0.0047  0.2910
14394W        W57385   8.581  29.625   3.364  0.1459 -0.1703  0.0690
14395W        W57386  30.294   0.530  26.968 -0.0572  0.0612 -0.1010
14396W        W57387  11.284  29.217  20.729  0.2634 -0.0223  0.1658
14397W        W57388   8.641  30.366   8.329  0.2022 -0.1286  0.1870
14398W        W57389   1.748   7.170  23.125  0.1496  0.0545 -0.0578
14399W        W57390  34.047  19.145   9.891 -0.2384 -0.1175  0.3449
14400W        W57391   6.235  20.162  22.103 -0.1399 -0.5246  0.0685
14401W        W57392  15.348   1.499  27.234  0.1571  0.1038  0.1085
14402W        W57393  33.367  26.384  18.977  0.0513 -0.0418  0.0533
14403W        W57394   5.934   9.938  15.483  0.3570 -0.2722 -0.0284
14404W        W57395  27.804   6.973  15.017 -0.3878 -0.1260  0.2256
14405W        W57396  33.299  24.409  21.120  0.0733  0.0273 -0.2269
14406W        W57397  32.407  28.668  14.645  0.3007 -0.0336 -0.1708
14407W        W57398  11.041  20.945  26.881  0.0990 -0.0804  0.1874
14408W        W57399  21.973   2.142  23.178 -0.1957  0.2042 -0.0685
14409W        W57400  23.656  25.688  16.741  0.3965 -0.2011  0.3702
14410W        W57401  10.517  19.880  27.727  0.3070  0.1132  0.3580
14411W        W57402   1.479  18.260  28.842  0.4366  0.1571 -0.0114
14412W        W57403   4.461  17.248  18.210  0.3775  0.1088 -0.0671
14413W        W57404  27.529  20.148   8.183  0.0149  0.2761 -0.2677
14414W        W57405  31.605  12.365  18.718  0.0462  0.0169 -0.0542
14415W        W57406  32.122  14.444  19.195  0.1331  0.1259 -0.0045
14416W        W57407   5.851  21.361  17.686 -0.1462  0.0148 -0.1465
14417W        W57408  28.459  19.916  26.561  0.2327 -0.1665  0.3139
14418W        W57409  15.814   5.230  16.688  0.2033  0.4173 -0.2071
14419W        W57410  21.195   4.310  17.322 -0.1663 -0.1139 -0.3199
14420W        W57411  16.732  24.047  20.551  0.0894  0.1942 -0.1435
14421W        W57412   3.759  25.017   0.869  0.3427  0.3738 -0.2423
14422W        W57413  12.694   7.226  19.916 -0.0657  0.2536 -0.1722
14423W        W57414  20.161  34.184  24.684 -0.3377  0.2805 -0.0324
14424W        W57415  12.426  16.228  22.012 -0.1227  0.2320  0.3173
14425W        W57416  33.406  29.478  23.133 -0.2942 -0.1781  0.0946
14426W        W57417   5.983  19.715  24.863 -0.0951  0.1351  0.1414
14427W        W57418   5.446  28.363  24.892  0.1999 -0.0927 -0.1826
14428W        W57419  22.189  18.683  12.849 -0.2345  0.0508 -0.1055
14429W        W57420   6.344  15.316   1.281  0.1383 -0.0997 -0.0304
14430W        W57421   6.996   5.361  15.494  0.1094 -0.3923 -0.1131
14431W        W57422  19.612  27.077  18.357 -0.1582 -0.2378  0.1778
14432W        W57423  31.199  24.555  21.227  0.2120 -0.2800 -0.1413
14433W        W57424  34.654  14.323  19.372  0.0148 -0.0844 -0.0397
14434W        W57425   6.052   2.437   1.894  0.0362  0.3372  0.1127
14435W        W57426  30.770  27.319  29.140  0.0908  0.0101  0.2289
14436W        W57427  28.845  30.447  15.566  0.2099  0.2142 -0.2493
14437W        W57428  34.186  30.273  15.296  0.0838  0.0079 -0.4497
14438W        W57429  32.804  27.160  15.788  0.0921  0.1737 -0.0698
14439W        W57430  19.110  23.721  15.997 -0.0031 -0.2770 -0.0141
14440W        W57431   8.571  12.703   4.667  0.2936  0.0294  0.3513
14441W        W57432  33.573  34.455  24.594  0.1742  0.1202 -0.1211
14442W        W57433   4.449  21.496  27.436 -0.0387  0.2534 -0.3013
14443W        W57434  16.441   8.794  21.847  0.0871  0.0693 -0.0257
14444W        W57435  22.985  27.136   8.487  0.5247 -0.0670 -0.0783
14445W        W57436  14.322  30.752  20.299  0.0378  0.1696  0.2467
14446W        W57437  16.945  28.584  25.149 -0.4280 -0.0980 -0.2866
14447W        W57438   1.793   1.802   7.610 -0.1450  0.1919  0.2131
14448W        W57439  25.527   8.124  27.340 -0.1578 -0.1417  0.1965
14449W        W57440  24.953  26.142  16.730  0.0126 -0.0330  0.2562
14450W        W57441   9.509  33.079  26.467 -0.0656 -0.0604  0.0676
14451W        W57442   1.629  22.243   2.752  0.0083 -0.0306 -0.1426
14452W        W57443   3.584  10.308   3.438 -0.0218 -0.0802  0.1073
14453W        W57444  21.304  12.741  18.499 -0.1038 -0.1155 -0.1306
14454W        W57445   7.254  30.351  22.892 -0.0149  0.0365  0.1452
14455W        W57446  12.529  25.859   0.516 -0.0905  0.0257 -0.0496
14456W        W57447  18.101  17.967  12.267 -0.1002  0.0736 -0.2624
14457W        W57448   3.997   1.653  28.202 -0.1832 -0.1051 -0.2834
14458W        W57449   1.203  14.201  22.657 -0.0903 -0.0237  0.2992
14459W        W57450   0.704   3.825  15.743 -0.0708 -0.2378 -0.1769
14460W        W57451   2.682   2.897  14.805  0.1648  0.2714  0.0875
14461W        W57452  23.232  24.553  16.110 -0.0732 -0.4345 -0.2563
14462W        W57453   3.032  28.053   3.420 -0.2447 -0.2327 -0.1541
14463W        W57454   3.817   5.543  29.165  0.2278 -0.1276 -0.1463
14464W        W57455   3.398  33.655   6.374  0.1886  0.0381  0.0237
14465W        W57456   8.728  25.076   9.603 -0.2624 -0.1288  0.0469
14466W        W57457  31.790  34.624  18.949  0.4186 -0.1544  0.0385
14467W        W57458  21.177  26.093  23.160 -0.1427  0.1022  0.0758
14468W        W57459  25.126  28.074   1.725 -0.0269 -0.1513 -0.0211
14469W        W57460   3.991  21.161  22.322 -0.0217 -0.0486  0.0626
14470W        W57461   8.055  24.154  17.192  0.2248  0.2433 -0.1368
14471W        W57462   2.215  24.835  22.568 -0.1934  0.2032  0.6376
14472W        W57463  14.814  13.714  19.373 -0.1890 -0.0498 -0.3226
14473W        W57464   0.082  23.461  26.284 -0.1326  0.1727  0.2187
14474W        W57465  25.241  23.516  27.387  0.0061  0.0634 -0.0679
14475W        W57466  30.335  27.905  20.825 -0.0238  0.5012  0.3307
14476W        W57467   6.296  14.285  20.476 -0.1588  0.0660 -0.2888
14477W        W57468  29.333  17.858   3.106 -0.1011 -0.1238 -0.2911
14478W        W57469  20.007  29.366  19.130  0.0105  0.2915  0.1439
14479W        W57470  32.281  20.433   5.051 -0.1338  0.1259  0.1300
14480W        W57471  29.953  26.394  21.057  0.1785 -0.0861 -0.0503
14481W        W57472  18.969  10.917  22.080 -0.1376 -0.3647 -0.2433
14482W        W57473  30.296  14.867  21.536  0.2158 -0.1293 -0.0584
14483W        W57474  16.321  21.938  16.603 -0.0476  0.1582  0.0721
14484W        W57475  33.644  12.838  15.456  0.1448 -0.2315  0.0563
14485W        W57476  12.166  29.151  19.108  0.0563  0.0539 -0.0418
14486W        W57477   8.513  21.998  21.248 -0.3191  0.3613  0.0868
14487W        W57478  14.971  28.242  23.258 -0.2077  0.0867 -0.2479
14488W        W57479   2.284   0.624  16.197  0.0126  0.0481  0.0244
14489W        W57480  16.791  24.605  23.354  0.1328 -0.0033 -0.4465
14490W        W57481   3.405  30.718  20.925 -0.0202 -0.0419 -0.1482
14491W        W57482  26.835  29.382  25.001 -0.2294  0.1025 -0.0474
14492W        W57483  11.543   7.527   6.160  0.0184 -0.0692  0.4553
14493W        W57484  13.513  28.104  19.295 -0.0402  0.1500  0.1201
14494W        W57485  32.706  28.264  14.525  0.2620 -0.2523  0.1675
14495W        W57486   8.512  30.667  17.253  0.1014 -0.3358 -0.1094
14496W        W57487  31.773  26.772   5.976 -0.1437 -0.0378 -0.4611
14497W        W57488   1.865  22.478  23.914  0.4351  0.0159  0.0858
14498W        W57489  31.102  21.160  28.501  0.1614  0.1134 -0.2053
14499W        W57490   8.295  14.485  23.218 -0.3302 -0.0493  0.0772
14500W        W57491  22.877  28.460   1.554 -0.0722 -0.1177  0.2885
14501W        W57492  11.439  12.939  28.738 -0.1414  0.3440 -0.2285
14502W        W57493  24.744  28.890  18.696 -0.1146  0.0903  0.0523
14503W        W57494   3.041  18.371  24.677  0.2016 -0.0139 -0.2321
14504W        W57495  31.713   8.974  14.809  0.2240 -0.0406  0.0472
14505W        W57496   3.276  14.604   8.006 -0.0909 -0.0127 -0.0207
14506W        W57497  27.056   0.134  27.755  0.0695  0.0722  0.0703
14507W        W57498  16.757  20.541  13.032 -0.2492  0.3037  0.2699
14508W        W57499  16.406  20.747  17.109  0.2521  0.2754 -0.0573
14509W        W57500  28.145  15.856  19.654  0.2053  0.2245  0.2401
14510W        W57501  31.722  29.922  27.181  0.1426 -0.0470  0.1663
14511W        W57502   2.375  21.237  16.573  0.0736  0.0640 -0.2723
14512W        W57503   1.803  13.790  16.663 -0.0185 -0.0160 -0.1628
14513W        W57504  32.995   1.099  18.365 -0.0076  0.1241  0.1252
14514W        W57505   2.984  22.931   2.769 -0.1772  0.0836 -0.0199
14515W        W57506   5.213   1.665  28.099 -0.0157 -0.1347  0.0396
14516W        W57507   2.797  14.657  20.728  0.0338 -0.2580 -0.3114
14517W        W57508  19.218  31.052  15.882 -0.2172  0.2328 -0.2309
14518W        W57509   1.230   7.982  18.648 -0.1851  0.0373 -0.3435
14519W        W57510  30.461  30.107  24.735  0.1202  0.1650 -0.0409
14520W        W57511  33.492  30.112  25.566  0.1900  0.0550 -0.0108
14521W        W57512   2.473  24.051   4.718  0.0124  0.1617 -0.0463
14522W        W57513   0.777  10.473   2.737 -0.0135 -0.0208 -0.0556
14523W        W57514  28.801  17.149   1.237  0.1262 -0.2446  0.0179
14524W        W57515   1.159  32.755  15.278  0.0858 -0.0030  0.0030
14525W        W57516  29.889  25.501  27.499 -0.2986  0.4220  0.1557
14526W        W57517   3.056  34.411   1.699 -0.2505  0.1139 -0.1563
14527W        W57518  25.212   5.371  14.422  0.1843  0.1684 -0.2473
14528W        W57519  30.747   2.652  13.316 -0.0944  0.2482 -0.1149
14529W        W57520   8.931  27.126  20.540  0.1214 -0.2610  0.0548
14530W        W57521   8.929  18.071  29.184  0.0875 -0.2310 -0.0579
14531W        W57522  27.313  29.646  27.286  0.0580  0.0028  0.2579
14532W        W57523  31.594   4.467  26.865  0.0139 -0.0925  0.0532
14533W        W57524  22.625  11.991  15.249 -0.0961  0.0614  0.0573
14534W        W57525   5.561  23.422   3.388  0.2503 -0.1125 -0.3074
14535W        W57526   5.649  31.458  15.479  0.0429  0.1534  0.2231
14536W        W57527   7.651   7.546  17.557 -0.1509 -0.0943  0.4971
14537W        W57528  16.377  32.531  16.757 -0.1974 -0.3965 -0.3510
14538W        W57529  20.011   1.504  22.703  0.0093 -0.1163  0.0419
14539W        W57530  21.136  27.898  18.596 -0.1750  0.1169 -0.5238
14540W        W57531  34.305  23.878  14.629 -0.1958 -0.3070  0.1552
14541W        W57532  25.962  20.474  16.925 -0.0268  0.2473  0.0505
14542W        W57533   7.275  22.962  27.987 -0.2239 -0.3218  0.4038
14543W        W57534   0.889   1.656  21.751  0.0031  0.0032 -0.0387
14544W        W57535  29.821  27.870  15.998 -0.1125  0.0204  0.0524
14545W        W57536  27.701  33.869  20.977 -0.1605  0.0082  0.2758
14546W        W57537   2.749  32.478  22.905 -0.2996  0.0181  0.1378
14547W        W57538   9.248   1.866  15.158  0.0915  0.1001 -0.0322
14548W        W57539   6.383  11.379  22.044 -0.0585  0.0580  0.0505
14549W        W57540  15.588  25.767  20.221  0.3183 -0.1878  0.0993
14550W        W57541   4.748  27.371   5.627  0.2232 -0.2023  0.2414
14551W        W57542   6.337  11.705  24.169 -0.0632 -0.1252  0.3534
14552W        W57543   5.554  34.443   0.508  0.2304  0.1664  0.0642
14553W        W57544   9.834  27.420  14.949 -0.0812 -0.1218  0.4225
14554W        W57545  14.303  26.111  22.278 -0.0277 -0.0531 -0.1881
14555W        W57546  27.456  18.638  24.702 -0.1048 -0.0513  0.0906
14556W        W57547  13.673  31.122  20.403  0.1371 -0.1932 -0.0037
14557W        W57548   6.943   7.896   4.562 -0.2536  0.0133  0.0478
14558W        W57549   4.213  21.247   2.189  0.0104  0.0270 -0.0046
14559W        W57550   2.886   3.984  17.882 -0.0286 -0.2223 -0.0783
14560W        W57551   2.229  24.843  14.748 -0.3427 -0.1145 -0.2798
14561W        W57552   9.009   9.821  19.566  0.2500 -0.2153  0.0777
14562W        W57553  14.281  24.427  18.760  0.0669  0.0856 -0.5607
14563W        W57554  29.080  18.371  23.270 -0.1782 -0.0476  0.2745
14564W        W57555  27.948  32.968  22.994  0.3205  0.0141 -0.0496
14565W        W57556  22.474  34.514   2.678 -0.1563  0.1020  0.2071
14566W        W57557   5.442  19.374  23.158  0.0705 -0.2696 -0.5441
14567W        W57558  34.669  28.387  15.492  0.0526 -0.2054  0.0279
14568W        W57559  21.475  26.129  15.472  0.0970 -0.0081 -0.2535
14569W        W57560   1.046  25.514  23.816  0.0285  0.2610  0.2339
14570W        W57561   4.024  18.095  22.327 -0.2307  0.1950  0.0460
14571W        W57562   2.353  14.967   6.147 -0.2035  0.0164 -0.2268
14572W        W57563  34.199  27.552  17.384 -0.0942 -0.1676 -0.1041
14573W        W57564   6.755  26.294  20.648 -0.0359 -0.0739 -0.1290
14574W        W57565   8.178  21.362  20.674  0.0360 -0.1947  0.2716
14575W        W57566  28.735  17.916  26.435  0.0241 -0.0763 -0.0051
14576W        W57567  19.262  23.005   6.661  0.0949 -0.2003  0.1889
14577W        W57568  12.113  26.184  15.513  0.1061  0.0571  0.1245
14578W        W57569   6.845  13.113  22.673 -0.1027  0.0742  0.2450
14579W        W57570  17.113  25.601  25.185  0.0289  0.0465 -0.0969
14580W        W57571  32.705  13.980  24.968 -0.2894  0.2337  0.1459
14581W        W57572  29.582  10.092   1.081  0.3164  0.1651 -0.1198
14582W        W57573   3.327  32.900   6.736  0.1372  0.0629 -0.3440
14583W        W57574  13.371  33.980  24.937  0.1428  0.3488 -0.0593
14584W        W57575   2.492  12.320  28.620 -0.1354 -0.0181 -0.1022
14585W        W57576   8.183  29.247   1.283  0.3090  0.5122  0.0193
14586W        W57577   7.129  23.847  20.891  0.0387 -0.1070 -0.0441
14587W        W57578  20.078   7.874  20.322  0.4284  0.0282 -0.2969
14588W        W57579  27.781  31.799  18.883  0.2105  0.0820 -0.3241
14589W        W57580   1.923  24.388   0.544  0.0557  0.5475  0.1485
14590W        W57581  13.513  19.852  13.981  0.0571 -0.1290 -0.1025
14591W        W57582  32.484  28.254  16.587 -0.1844  0.3373 -0.4501
14592W        W57583   4.421  25.876  23.049 -0.3873  0.2267  0.0521
14593W        W57584  28.917  13.121  26.261  0.0794  0.0595 -0.1085
14594W        W57585   9.768  21.223   3.622  0.2735  0.0613  0.1582
14595W        W57586  18.776   4.322  18.158 -0.0901 -0.2477  0.1594
14596W        W57587   7.458  12.256  21.591  0.5390 -0.3403 -0.1351
14597W        W57588  34.064  27.873  14.909 -0.1143 -0.0883 -0.0190
14598W        W57589   1.598  25.827  18.011  0.0400 -0.0254  0.0414
14599W        W57590   3.646   5.671  17.813 -0.2725  0.3790 -0.0724
14600W        W57591   9.111  19.650  26.816  0.0359  0.3253 -0.3605
14601W        W57592  14.977  28.325  15.762  0.2251 -0.1517 -0.0455
14602W        W57593   9.425   2.458  16.961 -0.0962  0.0554 -0.1236
14603W        W57594  16.789  31.724  24.380  0.2487 -0.1152 -0.0138
14604W        W57595  30.883  15.850  20.778  0.0787  0.1733 -0.1712
14605W        W57596   9.096   7.628   1.740 -0.1671  0.1041 -0.1057
14606W        W57597   3.079  21.997  19.011  0.5278 -0.1857 -0.2046
14607W        W57598   0.231  27.876  16.848 -0.1655  0.1323  0.0783
14608W        W57599   1.425  26.952  26.057  0.3324 -0.0067 -0.0617
14609W        W57600  15.196  27.063  14.079  0.0834  0.3032  0.1966
14610W        W57601  10.107  22.609  16.169 -0.3585 -0.0419  0.1774
14611W        W57602   5.301   5.562  16.861  0.0769  0.0619  0.2005
14612W        W57603   8.002  24.050   3.744  0.0041 -0.3832 -0.0038
14613W        W57604  23.644  25.012   0.159  0.0877  0.0330 -0.0177
14614W        W57605  12.742   1.296  16.326 -0.2176 -0.0503 -0.0219
14615W        W57606  11.034  29.816  22.825  0.3608  0.1172 -0.3589
14616W        W57607   9.003   0.594  19.844  0.2215 -0.0237  0.2335
14617W        W57608  29.471  25.594  23.936  0.0943  0.0666  0.1898
14618W        W57609  25.697  27.515  15.794 -0.0480  0.4121  0.1116
14619W        W57610  10.118  32.599   4.844  0.2293  0.1704  0.1174
14620W        W57611  20.594  15.822  14.205  0.0106  0.1797  0.1546
14621W        W57612  34.147   0.694  20.035  0.0608  0.2254  0.0001
14622W        W57613  12.755  21.927  20.100  0.5420  0.0156 -0.2348
14623W        W57614   1.323  16.672  20.572 -0.1719  0.2988  0.0666
14624W        W57615   6.376  18.878  17.970 -0.0893  0.0366  0.1744
14625W        W57616  32.065  24.677  25.930  0.2633  0.0670  0.1324
14626W        W57617   6.507  13.767   7.357 -0.1292  0.2024  0.0392
14627W        W57618   5.829  24.109  27.781 -0.3954 -0.1040  0.0318
14628W        W57619   1.930  20.159  22.880  0.3289 -0.0851 -0.0081
14629W        W57620   9.018  10.596  28.140 -0.0869 -0.0377 -0.3403
14630W        W57621  30.116  20.588  16.706  0.0181 -0.1681 -0.0662
14631W        W57622  32.077  22.530  26.260  0.1165  0.3205  0.0581
14632W        W57623  33.540  24.609  26.581  0.4366 -0.2505 -0.1219
14633W        W57624  24.225  23.391  29.148 -0.0751 -0.2930  0.1741
14634W        W57625  26.598  26.954   0.855  0.0403  0.1960 -0.2636
14635W        W57626  23.225  13.112  17.991 -0.1840  0.2951 -0.1183
14636W        W57627  12.994  29.687  16.037 -0.1636  0.0458 -0.0829
14637W        W57628   1.600  19.142  21.548  0.2630  0.0833 -0.0924
14638W        W57629   6.329   3.929  23.981  0.0864  0.2741 -0.0808
14639W        W57630  32.314  20.691   0.115  0.2330  0.1520  0.1494
14640W        W57631   0.609   1.396  17.177 -0.0661  0.0404 -0.0086
14641W        W57632  29.041  21.597  24.042 -0.3317 -0.4129 -0.1433
14642W        W57633   8.499   9.525  27.269  0.0271 -0.2879  0.1626
14643W        W57634  17.304  16.909   3.419 -0.0279 -0.2269 -0.0896
14644W        W57635  10.189  16.908  22.647  0.0058  0.2317 -0.2202
14645W        W57636  28.217  11.594  17.680 -0.1130  0.0021  0.0718
14646W        W57637   3.531   9.955  17.114 -0.0728 -0.1114 -0.0895
14647W        W57638  23.760  31.316  16.999 -0.2007 -0.1132 -0.0522
14648W        W57639  31.383   2.030  24.706 -0.4010  0.2802  0.1249
14649W        W57640  22.210  26.257   6.013 -0.2782 -0.1706  0.3199
14650W        W57641   1.137  13.786  19.336 -0.0098  0.3436  0.0608
14651W        W57642  33.428   4.218  28.160 -0.0226 -0.1793  0.0194
14652W        W57643  25.171  11.293  18.067 -0.1069  0.2830 -0.1512
14653W        W57644  22.053  29.573  14.508 -0.0372  0.4865  0.1322
14654W        W57645  30.330  24.549  21.102 -0.0778 -0.0421  0.0555
14655W        W57646  15.963  18.588  15.710 -0.0303  0.1567  0.1425
14656W        W57647  26.128  18.609   1.375  0.0674  0.2842  0.0855
14657W        W57648  22.776  26.590  13.749 -0.0784  0.1322  0.2212
14658W        W57649  33.874   8.402  14.832 -0.0736  0.0249  0.1848
14659W        W57650   5.892   4.574  25.848 -0.5194  0.0083 -0.2736
14660W        W57651   5.834  12.913  24.250  0.1124  0.1889  0.4013
14661W        W57652   0.315  22.090  14.515 -0.1774 -0.0099 -0.2398
14662W        W57653   6.691  14.936  19.697 -0.0978 -0.0718 -0.3888
14663W        W57654   7.755  20.930  14.666  0.0416  0.0619  0.0628
14664W        W57655   5.488  17.917  20.281  0.0998  0.0763  0.0325
14665W        W57656   2.035  12.342  16.483 -0.1907 -0.4713  0.3033
14666W        W57657  24.311  19.372  17.661 -0.1247 -0.2946  0.0238
14667W        W57658  14.160   4.769  25.540 -0.0403  0.1470 -0.1820
14668W        W57659   1.115   0.224  18.195 -0.1389 -0.3721  0.1189
14669W        W57660   0.830   4.763  25.348 -0.0551  0.0572  0.1372
14670W        W57661   3.303  14.782  28.722 -0.2245 -0.0345  0.0837
14671W        W57662   0.599  19.527  17.524 -0.0207  0.0507  0.0296
14672W        W57663   4.620  32.709   5.649 -0.1907  0.2164 -0.0576
14673W        W57664   0.027  27.649  17.246  0.1070  0.1285  0.3003
14674W        W57665   4.346  18.142  22.778 -0.0901 -0.0136  0.0558
14675W        W57666  25.034  10.803  26.728  0.1017  0.1494  0.1743
14676W        W57667   6.864  34.543   4.726 -0.0512 -0.1872 -0.1875
14677W        W57668   6.926  27.623  17.114  0.0622 -0.2397  0.1710
14678W        W57669  10.007  28.336  28.712 -0.0437 -0.1667  0.0729
14679W        W57670   8.188  18.093  23.272 -0.0637  0.0740  0.3423
14680W        W57671   0.954  28.206  19.110  0.1592  0.0796  0.0012
14681W        W57672  19.923  16.374  26.745 -0.2553  0.0327  0.2995
14682W        W57673   6.969  31.083  23.004  0.3379 -0.0288 -0.1645
14683W        W57674  16.924  14.974  13.367  0.1688  0.1181  0.1484
14684W        W57675   3.340  14.508  20.165 -0.3134  0.1518  0.0484
14685W        W57676   6.527  29.686  14.385  0.0681  0.0496  0.0907
14686W        W57677  32.034  23.437  19.854  0.0398  0.3353 -0.0517
14687W        W57678  29.664   3.431  13.452 -0.1771 -0.1066 -0.1193
14688W        W57679  34.430  22.378  21.802  0.0652 -0.2892 -0.0171
14689W        W57680  34.755   7.093  28.199 -0.1033  0.0510 -0.0367
14690W        W57681   2.869  12.621  16.088 -0.4816  0.0057  0.0648
14691W        W57682  13.057  30.813  23.616  0.1654  0.1242  0.2528
14692W        W57683   1.903  28.554  16.913  0.0520 -0.1865  0.0512
14693W        W57684  30.300  24.426  18.974  0.2076 -0.1392  0.1787
14694W        W57685   1.199   2.099  14.975  0.0999  0.2598  0.0879
14695W        W57686   3.527  14.270  10.964 -0.0453 -0.0656  0.0259
14696W        W57687  21.116  32.797   9.369 -0.2917 -0.2428 -0.2200
14697W        W57688  11.898  11.582   2.593 -0.3519  0.2071 -0.2283
14698W        W57689  26.149  25.644  17.364 -0.1698  0.0429 -0.3622
14699W        W57690  32.867  24.147   0.976 -0.0437  0.1248 -0.0334
14700W        W57691   4.765  25.735   6.655  0.1601  0.1418  0.6630
14701W        W57692  30.660  15.546  22.058  0.1865 -0.1182  0.1333
14702W        W57693   0.346  19.681   1.921  0.1146  0.3836 -0.3253
14703W        W57694  12.013  20.198  21.299  0.2645 -0.0924  0.0209
14704W        W57695   4.509  17.766   1.032  0.1838  0.3921  0.4139
14705W        W57696   5.321  33.905  15.977 -0.1370  0.2120 -0.0120
14706W        W57697  25.600   3.186  17.684 -0.1383 -0.0231 -0.0510
14707W        W57698  31.682  25.161  16.586  0.1166 -0.0677 -0.1826
14708W        W57699   1.015   9.632   2.370  0.0966  0.3677  0.4620
14709W        W57700   0.445  28.320  14.088  0.2534 -0.0513  0.0423
14710W        W57701   2.058  27.207  18.547  0.0402  0.1093  0.0280
14711W        W57702  32.267  26.366  22.578  0.0770 -0.2100 -0.0860
14712W        W57703   8.186  27.850  23.372  0.3815  0.1282 -0.0567
14713W        W57704  34.572   2.693   4.650  0.2896  0.2867 -0.2820
14714W        W57705   9.972  26.258  14.335  0.1822 -0.0113 -0.1688
14715W        W57706   0.629  24.735   0.969 -0.0497 -0.3550  0.0662
14716W        W57707   3.516  17.798  22.215  0.0310  0.0463  0.3574
14717W        W57708  13.395  28.735  16.511  0.0907 -0.1600 -0.1562
14718W        W57709  23.088   2.364  26.095 -0.2313  0.2721 -0.0422
14719W        W57710   7.597   4.008   7.714  0.1331  0.0069  0.1321
14720W        W57711  30.382  10.471  23.094  0.0812  0.2971  0.2840
14721W        W57712   4.457  13.979  25.443 -0.0789 -0.1540 -0.0473
14722W        W57713   1.428  23.111  27.338  0.2737 -0.2519 -0.1194
14723W        W57714   9.780  18.354  19.818 -0.1718 -0.1676  0.1235
14724W        W57715  27.418  15.431  18.553 -0.0842  0.1219  0.2357
14725W        W57716  26.524  11.061  23.874  0.0743 -0.3691  0.0646
14726W        W57717   7.344  28.590  22.397  0.1408 -0.0004  0.1285
14727W        W57718   3.883   1.540  24.115 -0.5098  0.0690 -0.5132
14728W        W57719  34.730  19.180  17.447  0.1390  0.2575  0.2568
14729W        W57720   2.736   0.171  28.795  0.1535  0.0770 -0.1622
14730W        W57721  17.148  27.165  20.161  0.2412  0.0511 -0.0529
14731W        W57722   0.009  30.139  22.384 -0.2846 -0.0399 -0.3068
14732W        W57723   0.957  18.742  18.764  0.0692  0.1092 -0.4822
14733W        W57724  10.617   8.901  19.921  0.3115  0.0266 -0.2709
14734W        W57725  32.162  13.169  21.004  0.2486 -0.1883 -0.0500
14735W        W57726   4.870   0.024   6.090 -0.4334  0.0039 -0.0376
14736W        W57727  16.015  34.635  27.521  0.0960 -0.0552 -0.3135
14737W        W57728   7.105  16.882  22.576 -0.1459  0.0817  0.0058
14738W        W57729   6.511   1.229  19.113 -0.1378 -0.1839  0.0814
14739W        W57730   2.535  30.321  15.072  0.1241 -0.0905  0.1568
14740W        W57731  18.381   5.035  18.437  0.3586 -0.0009 -0.0289
14741W        W57732   5.584   0.370  17.630  0.0404 -0.0873 -0.2367
14742W        W57733  20.307  33.135  18.700 -0.1514 -0.1765  0.3200
14743W        W57734  12.432   4.657  26.232  0.0903 -0.1454 -0.3082
14744W        W57735   9.900  26.784  16.848 -0.1736  0.1017  0.2695
14745W        W57736  16.386  23.263  21.722 -0.0327 -0.0685  0.3358
14746W        W57737  24.224  24.699  16.968  0.0141  0.1220 -0.1129
14747W        W57738  22.260  28.026  25.436  0.0713  0.2117 -0.2287
14748W        W57739   1.373  21.122  27.985  0.0842  0.2771 -0.3687
14749W        W57740   3.444  22.326   3.355  0.0612  0.1225 -0.2716
14750W        W57741  31.756   8.142  26.514  0.2655  0.1759 -0.0594
14751W        W57742  19.314  15.847  21.188  0.0062  0.2042 -0.2224
14752W        W57743  31.928  15.702  28.661 -0.1054 -0.0500  0.1354
14753W        W57744   4.017   6.091  19.253  0.0520 -0.2182  0.1160
14754W        W57745  25.429  16.997  26.792  0.3649  0.0211 -0.1382
14755W        W57746   1.573  31.495  26.159  0.0540 -0.1690 -0.0837
14756W        W57747  16.797   0.026  24.814 -0.3764 -0.1503  0.1642
14757W        W57748  16.663  22.506   8.890  0.0702 -0.0916  0.2323
14758W        W57749  11.155  32.626   0.694  0.0487  0.1701  0.1616
14759W        W57750  20.255  27.790  15.422 -0.1696  0.1473  0.2151
14760W        W57751   8.618  30.054  19.537 -0.4246  0.0114 -0.0133
14761W        W57752   7.695  17.744  18.558 -0.1393  0.1402 -0.1900
14762W        W57753   0.167  18.351  16.468  0.0330  0.0302 -0.0235
14763W        W57754  32.358  22.397  25.104 -0.2208 -0.0134  0.1121
14764W        W57755  25.480  33.313  28.660  0.0130 -0.2674 -0.1058
14765W        W57756  10.136  21.359  15.586  0.2920 -0.2247  0.0523
14766W        W57757  34.789  13.380  16.255 -0.3683  0.1473  0.3854
14767W        W57758   6.832  12.843   0.883 -0.1130  0.1333  0.0175
14768W        W57759  14.705  33.517   1.247 -0.4863  0.0259  0.0533
14769W        W57760   6.504  13.086   2.942  0.4026 -0.1275  0.2842
14770W        W57761  15.477  17.972   0.389 -0.7013 -0.0883  0.0326
14771W        W57762   8.188  22.820  18.421  0.0997  0.0280  0.2351
14772W        W57763  30.337   5.979  21.826  0.0411  0.3411 -0.0491
14773W        W57764  22.030  24.606   1.083 -0.1836  0.2402  0.2977
14774W        W57765   6.364  34.303  18.443 -0.2668 -0.0864 -0.1328
14775W        W57766  14.119   1.918  18.977 -0.1505  0.2323  0.0994
14776W        W57767   3.637  19.167  21.614  0.2109  0.0190 -0.0632
14777W        W57768   5.811  26.691   6.205 -0.4382 -0.1202 -0.0781
14778W        W57769  23.436  16.572  26.504 -0.1769 -0.2606 -0.4132
14779W        W57770  32.127  24.163  22.877  0.1974  0.3090  0.4701
14780W        W57771  11.209  12.460  17.958 -0.0828 -0.2398 -0.3658
14781W        W57772  29.175  27.502  19.743  0.1510  0.1966 -0.1160
14782W        W57773   7.143  25.054  17.062 -0.2276  0.1593 -0.1074
14783W        W57774  23.481   7.728   5.879  0.3585  0.0229 -0.1781
14784W        W57775  28.504  24.324  27.009  0.1349 -0.0349  0.1824
14785W        W57776  33.092   1.729  24.715 -0.1908 -0.1400 -0.3085
14786W        W57777  14.366  23.514  19.545  0.1234 -0.1548  0.0657
14787W        W57778  33.592  18.903  20.113  0.0653  0.0637  0.3715
14788W        W57779  12.308  11.674   3.696 -0.1357  0.0701  0.0974
14789W        W57780  31.998  12.221  24.986 -0.0464  0.4057  0.1914
14790W        W57781  31.906  30.962  23.918  0.3146  0.0817 -0.0498
14791W        W57782  34.447  34.567  17.147  0.1282  0.1159  0.1925
14792W        W57783  30.219   5.079  16.682 -0.2147 -0.0343  0.1756
14793W        W57784   1.783  31.924  22.658 -0.1085 -0.1654 -0.2020
14794W        W57785  33.521  21.033  24.050 -0.3989  0.2078 -0.0138
14795W        W57786  27.449  10.911   5.641 -0.1727 -0.0160 -0.1621
14796W        W57787  11.334  16.712  20.274 -0.0170  0.0872 -0.4634
14797W        W57788  30.978   8.219  18.425 -0.2513  0.1172 -0.1471
14798W        W57789   0.897  28.819  22.629  0.0234  0.2472  0.2464
14799W        W57790  14.752  19.825  12.961  0.0279  0.1009 -0.2602
14800W        W57791   6.270  10.428  21.066  0.0419 -0.1477 -0.2317
14801W        W57792  33.969  32.055  13.977  0.1167  0.0074  0.0356
14802W        W57793   9.138   8.669   5.794 -0.0973 -0.4217  0.1798
14803W        W57794  33.073  22.612   6.703  0.0659  0.0586 -0.1768
14804W        W57795   9.802  28.069  24.736  0.0139  0.3217  0.1846
14805W        W57796   0.263  20.480   6.289  0.0049 -0.1556 -0.1492
14806W        W57797   3.028  22.158  25.750 -0.0799 -0.2005  0.2379
14807W        W57798  19.565  16.555   2.468  0.2079 -0.3858 -0.1130
14808W        W57799  29.431  29.839  20.309 -0.1781 -0.2547 -0.2101
14809W        W57800   9.351  21.738  10.316 -0.1007  0.2225  0.1882
14810W        W57801   4.211  29.052  27.350 -0.0747  0.1410  0.0520
14811W        W57802  21.138  34.395  16.407  0.0712  0.2401 -0.1746
14812W        W57803  29.180  22.492  23.838  0.1376 -0.1476 -0.0400
14813W        W57804   0.637  18.348   6.732  0.0634 -0.1224  0.0509
14814W        W57805  23.236  27.643  21.710  0.1008 -0.1060 -0.0509
14815W        W57806  31.324  28.348  24.353 -0.0554 -0.0519  0.0505
14816W        W57807  12.884  31.403   0.000  0.1548  0.0045  0.1058
14817W        W57808   6.617   8.719  17.269 -0.1193  0.2573 -0.0875
14818W        W57809   0.238  11.099  24.176 -0.0258 -0.1403  0.3409
14819W        W57810  30.023  25.350  20.137  0.0424 -0.0545  0.1426
14820W        W57811  22.048  32.355  22.689 -0.2508 -0.0433 -0.1175
14821W        W57812  10.686   4.336  26.348 -0.0801 -0.0156  0.1032
14822W        W57813   4.788  32.203  16.052  0.0744  0.1929 -0.0324
14823W        W57814   2.196  13.896  10.195  0.0070 -0.2021 -0.0647
14824W        W57815   0.506  13.958  18.205 -0.2047 -0.4318 -0.1994
14825W        W57816   6.831  21.157  19.435  0.1505 -0.0896  0.1296
14826W        W57817   6.767  31.341  21.316 -0.2742 -0.2660  0.0559
14827W        W57818   0.137   4.207  20.914  0.1962 -0.0951 -0.3230
14828W        W57819  12.638   5.557   7.935 -0.1330 -0.1646 -0.1524
14829W        W57820   5.747  10.458  24.007 -0.2392  0.2645  0.0889
14830W        W57821  26.406  25.275   1.286  0.0953 -0.0805  0.2015
14831W        W57822  23.552  15.575  21.917 -0.3486 -0.1566  0.1703
14832W        W57823   7.994  11.337  20.393  0.0026 -0.1330  0.1690
14833W        W57824   4.190   0.255  23.140  0.1069  0.1121  0.4939
14834W        W57825   7.734   1.931   2.127 -0.1350  0.2454 -0.0217
14835W        W57826   4.071  14.786  19.255  0.1810  0.1608  0.2923
14836W        W57827  16.880  31.605  19.201  0.2401  0.0934 -0.1051
14837W        W57828  11.344  24.194  18.776 -0.4693 -0.2076  0.0673
14838W        W57829  23.755   6.287   4.590  0.0522  0.0921 -0.2457
14839W        W57830   0.981  21.919  28.719 -0.1411  0.0861  0.0147
14840W        W57831   2.007  21.736  14.625  0.0136  0.3745  0.0315
14841W        W57832  30.697  32.411  29.027  0.2127  0.0465 -0.0237
14842W        W57833  20.482  32.265  21.202  0.1706  0.0372 -0.2353
14843W        W57834  33.021  29.067  22.468  0.1574 -0.3363 -0.2686
14844W        W57835  29.564   6.706  23.416 -0.3264  0.3590  0.0103
14845W        W57836  24.734   4.839  20.931  0.2097  0.1689  0.1740
14846W        W57837  11.982   1.037   9.692 -0.1637  0.0489 -0.0410
14847W        W57838  31.360   9.029  25.452  0.0725 -0.2300 -0.0134
14848W        W57839  21.967   9.293   4.919 -0.0741  0.0736 -0.1813
14849W        W57840   7.312   3.339  20.702  0.2425 -0.2179 -0.0830
14850W        W57841   0.276   8.166  25.015  0.2581 -0.1277  0.1482
14851W        W57842  24.709  29.251  21.999  0.1188 -0.0393  0.2880
14852W        W57843   1.671  20.398  13.573  0.2772 -0.3198  0.0998
14853W        W57844   9.847  20.606  26.516 -0.1901 -0.3283  0.0303
14854W        W57845   9.221  22.562   0.477 -0.1638 -0.0377  0.1021
14855W        W57846  28.766  10.351  17.560  0.1241 -0.0400  0.2808
14856W        W57847  26.002  21.504  23.737 -0.0193 -0.3751 -0.0109
14857W        W57848   3.801  16.249   3.273 -0.0178 -0.1103 -0.3042
14858W        W57849   8.711  10.474  28.503  0.1578 -0.0871 -0.2352
14859W        W57850   6.049   4.726   6.457 -0.1522 -0.0794 -0.2987
14860W        W57851  13.873  30.862  15.886 -0.2041 -0.0673  0.2511
14861W        W57852   5.791  18.658   9.489 -0.1838  0.1973  0.0479
14862W        W57853  17.137  28.986  20.776  0.0315  0.1877  0.1358
14863W        W57854  32.147  23.868  25.338 -0.0004  0.0765  0.0360
14864W        W57855   8.766  28.021   8.872 -0.0149 -0.2307  0.0950
14865W        W57856  32.486   1.625  23.724 -0.1168  0.1661  0.2288
14866W        W57857  10.271  27.974  22.279  0.0259 -0.1600 -0.0282
14867W        W57858   4.790  22.496  27.362  0.1331 -0.0157 -0.1015
14868W        W57859   0.517  16.222  22.226 -0.0941 -0.2506 -0.0774
14869W        W57860  15.183  23.373  17.831 -0.0370  0.0081 -0.0106
14870W        W57861  32.554   9.122   2.502 -0.0682 -0.2099 -0.2231
14871W        W57862  29.173   9.721   5.038  0.1201  0.1863  0.1107
14872W        W57863  30.575   1.333   4.144 -0.2349 -0.1384  0.1921
14873W        W57864  10.335  27.506  18.282  0.1513 -0.2235 -0.1111
14874W        W57865   9.625   5.933  20.060  0.0469 -0.0051 -0.2181
14875W        W57866   1.849  24.684  14.998 -0.2871 -0.2695 -0.1495
14876W        W57867  34.036  16.126  27.620  0.0414 -0.2045 -0.0584
14877W        W57868   6.503  10.081  21.550 -0.0016 -0.1045  0.0687
14878W        W57869  33.668  30.345   1.847  0.0590  0.2313  0.1088
14879W        W57870  24.750   6.589  20.946 -0.3191  0.3092  0.0322
14880W        W57871  10.976  28.821  24.655  0.1400  0.0490 -0.1127
14881W        W57872  34.442  30.045  17.604 -0.3395  0.1420  0.4317
14882W        W57873   2.382  28.112  14.101 -0.1821  0.2330  0.0989
14883W        W57874  22.000  16.108  13.657 -0.1539  0.2215 -0.1231
14884W        W57875  31.011   0.404  15.901 -0.0662  0.0403 -0.2701
14885W        W57876  22.637  18.800  15.688  0.2985 -0.2770  0.0707
14886W        W57877  22.155  28.782  19.236  0.1560 -0.0110 -0.1264
14887W        W57878  21.475  10.517  27.620  0.1662 -0.2376  0.3657
14888W        W57879  28.560  12.395   2.507 -0.0628  0.3535 -0.0445
14889W        W57880  29.939  33.219   7.766 -0.1740  0.0809 -0.0248
14890W        W57881  32.995  17.714  15.554  0.4025  0.2323 -0.0167
14891W        W57882  25.302  16.849   3.069  0.2749  0.1014  0.3795
14892W        W57883   5.190  17.813  18.099  0.0723  0.1426 -0.1669
14893W        W57884   9.530  19.156  23.199  0.0255  0.0929  0.1990
14894W        W57885   9.641  20.632  18.493  0.1251 -0.0689 -0.1686
14895W        W57886  27.951  27.942  27.559  0.0212 -0.0040 -0.3345
14896W        W57887  31.355   2.482   8.239 -0.1951 -0.2858  0.0389
14897W        W57888  29.099  30.324  24.871 -0.1739 -0.1476 -0.1453
14898W        W57889  22.651  23.860  15.736 -0.0536 -0.2537 -0.2603
14899W        W57890  13.284  17.273  17.508  0.1012 -0.2956  0.0423
14900W        W57891  24.980  24.329  19.675 -0.1384  0.0400 -0.0495
14901W        W57892   9.367  22.537  18.359 -0.3980  0.1950 -0.1194
14902W        W57893   5.794  21.687  23.082 -0.1675  0.0689  0.0672
14903W        W57894   2.273  11.551  23.327  0.4781 -0.0472 -0.0323
14904W        W57895  13.247   9.601  28.096  0.2308 -0.2259 -0.2228
14905W        W57896  30.912  26.646  15.997 -0.2086  0.0268 -0.0873
14906W        W57897  15.439  25.063  24.891  0.0620 -0.1130  0.1442
14907W        W57898   0.091  33.799   5.163 -0.0062 -0.0866  0.0269
14908W        W57899   5.307  26.409  17.229 -0.1503 -0.1691  0.0408
14909W        W57900  27.556  25.709  24.584  0.2469 -0.0055  0.0766
14910W        W57901  26.611  11.614   5.788 -0.0175 -0.0528  0.0166
14911W        W57902  28.021   6.283  28.409  0.2149  0.4057  0.0097
14912W        W57903  21.665  32.839  25.196  0.1294 -0.1179  0.0437
14913W        W57904  31.474  26.189  18.172  0.4466 -0.1666 -0.0452
14914W        W57905  14.091  34.559   2.651  0.1223  0.1826 -0.1331
14915W        W57906  24.956  20.544   0.020 -0.0569  0.2479 -0.1789
14916W        W57907  22.186  20.366   5.231 -0.2262  0.3413  0.2449
14917W        W57908   8.387   1.040   6.175 -0.1385 -0.0401 -0.0123
14918W        W57909  34.517   0.209  13.973  0.3643 -0.0008 -0.1889
14919W        W57910   3.087  11.438  15.975  0.0977  0.3906  0.0687
14920W        W57911   6.111   4.291  15.867  0.0755 -0.2709  0.0386
14921W        W57912  28.108  26.071  28.784 -0.1518 -0.5004  0.0541
14922W        W57913   4.826  25.139  21.795 -0.0408  0.2080 -0.0769
14923W        W57914  31.753  21.708  20.533  0.1909  0.1681  0.0301
14924W        W57915   0.520  17.024   9.017 -0.1091  0.1611 -0.1026
14925W        W57916  32.627  19.602  28.354  0.0037  0.2903 -0.1416
14926W        W57917  32.943  18.616   8.064 -0.0140 -0.1720 -0.3229
14927W        W57918   4.648  17.168  26.243  0.0697 -0.2135  0.2655
14928W        W57919   8.042   4.805  21.568 -0.2898 -0.0194  0.2280
14929W        W57920  34.101  11.404  18.694  0.1968  0.2847  0.2555
14930W        W57921   3.384  28.016  29.171  0.1887  0.0192 -0.0539
14931W        W57922  20.754  27.474  21.914  0.0602  0.0498  0.0439
14932W        W57923   0.393  32.069  23.936 -0.1267  0.0476 -0.1935
14933W        W57924   5.579  28.714   5.523  0.1915 -0.1144 -0.1881
14934W        W57925  30.081   1.979  23.233 -0.0982  0.0694 -0.1446
14935W        W57926  18.033   3.188  16.745 -0.5025  0.4648 -0.1122
14936W        W57927  15.004   2.061  25.246  0.0288  0.0385 -0.2201
14937W        W57928   6.707  12.397  15.644 -0.1609  0.0046  0.2071
14938W        W57929   7.003  28.804   7.153 -0.1752 -0.1367 -0.0469
14939W        W57930   0.478   1.435  24.700 -0.1068  0.1993 -0.1196
14940W        W57931  34.341  28.605  14.512 -0.1268 -0.0454  0.0557
14941W        W57932  27.011  12.612  14.367  0.1074 -0.2392  0.0446
14942W        W57933  30.360  20.209  16.996  0.1286  0.0121 -0.2345
14943W        W57934  32.032  14.665  18.681  0.1549 -0.1607  0.1680
14944W        W57935  10.902  14.291  24.672  0.3557  0.1781  0.0754
14945W        W57936   8.084  11.882   3.199 -0.1131 -0.3841 -0.0082
14946W        W57937   8.273  24.057  15.517  0.1645 -0.3835 -0.1270
14947W        W57938  31.782  19.161  28.751  0.2856 -0.0746  0.0595
14948W        W57939  27.012  17.536  13.890  0.1281 -0.1188  0.0111
14949W        W57940  17.279  25.317  23.417 -0.0945 -0.1436 -0.2378
14950W        W57941   8.202  10.489  18.299  0.0702 -0.2751  0.1121
14951W        W57942   4.322  32.784  15.018  0.0261  0.2405  0.0431
14952W        W57943   4.957   7.308  20.478 -0.0938 -0.0982  0.0232
14953W        W57944  18.266   7.656  27.251 -0.0030 -0.1046  0.1766
14954W        W57945  25.007  25.032  14.710  0.0159 -0.0389 -0.3315
14955W        W57946  32.228  22.635  15.139  0.0177  0.2033  0.2609
14956W        W57947   5.778  26.983  17.146  0.0480  0.3115  0.0446
14957W        W57948  12.044  16.997  14.692  0.0558 -0.2670 -0.2603
14958W        W57949   8.243  32.050  25.103 -0.2617 -0.1041  0.2024
14959W        W57950  17.376  25.815  28.281  0.2614  0.0915 -0.2081
14960W        W57951   4.119  27.906  25.328 -0.4576 -0.5034 -0.1206
14961W        W57952   5.261  25.074  18.381  0.0380  0.1033 -0.1014
14962W        W57953  33.063  17.509  20.251 -0.0130  0.2305  0.2265
14963W        W57954   2.889  15.364  15.505  0.0608 -0.2713 -0.0829
14964W        W57955   8.380   7.504   2.292 -0.0383  0.3703 -0.1398
14965W        W57956  12.869  19.707  15.818  0.0351 -0.3047  0.0922
14966W        W57957   9.243   9.568  16.174  0.2608 -0.0968  0.1078
14967W        W57958  19.298  25.919   5.465  0.1627 -0.0327 -0.2054
14968W        W57959   7.384  28.059  22.697  0.0746 -0.2974 -0.2610
14969W        W57960   7.628  18.143  28.512  0.0231  0.3133 -0.1160
14970W        W57961   2.762  17.167   6.961  0.0974 -0.0235  0.3269
14971W        W57962   4.152  30.410  24.435  0.1042  0.1654  0.0285
14972W        W57963   8.141  20.097   8.124  0.1671  0.0326 -0.1103
14973W        W57964   0.546   1.187  28.273 -0.1567 -0.0055  0.1686
14974W        W57965   4.767  28.044  15.295  0.0057  0.0012 -0.1541
14975W        W57966  19.740  21.113  13.790  0.0903  0.1157  0.0703
14976W        W57967   4.172  32.888  29.174  0.2194  0.0826 -0.0887
14977W        W57968  31.803  30.325  15.935 -0.1909  0.4670  0.0026
14978W        W57969  21.337  20.101  22.809  0.4584 -0.0070  0.0489
14979W        W57970   8.512  19.756  26.242 -0.1225  0.1215  0.0800
14980W        W57971   7.560  24.590  22.100 -0.1050 -0.0900 -0.1511
14981W        W57972   5.220  21.842  22.238 -0.2505  0.2142 -0.1254
14982W        W57973   4.149   7.035   8.695  0.0087 -0.1449 -0.0719
14983W        W57974  23.078  33.414  23.734 -0.1664 -0.3166  0.1263
14984W        W57975  12.615   4.887  21.952 -0.0002  0.1183  0.1484
14985W        W57976   4.442   3.783  27.794 -0.0404 -0.4391 -0.0428
14986W        W57977  34.319  33.028  26.619  0.3444  0.1971  0.3921
14987W        W57978  27.275  26.099  20.295  0.2804 -0.1352  0.0362
14988W        W57979  13.020  20.239   5.322  0.1135 -0.2028 -0.3202
14989W        W57980  31.088  30.930  22.958 -0.4518 -0.1822  0.3608
14990W        W57981  30.375  19.437  28.375  0.5651  0.0061  0.4255
14991W        W57982   3.724  24.504  18.731 -0.3628  0.0089 -0.0402
14992W        W57983  19.164  22.450  19.740  0.1435 -0.2735  0.3480
14993W        W57984   4.562  22.782  21.743 -0.0387 -0.1414 -0.0433
14994W        W57985  29.885  29.138  18.093  0.2386  0.0962 -0.1416
14995W        W57986  31.191  21.384  18.799 -0.0085  0.0247  0.0369
14996W        W57987   3.621  29.488  24.538  0.2989  0.0044 -0.0278
14997W        W57988  26.913  23.890  28.973  0.2598  0.1665  0.3552
14998W        W57989  12.306  22.254  21.196  0.0418 -0.1041  0.2697
14999W        W57990  22.131  20.241  19.450  0.0204 -0.3068  0.5353
15000W        W57991  32.455  31.912  21.865 -0.1029 -0.1975  0.2346
15001W        W57992  28.432  23.157  24.533  0.1089  0.0667 -0.1437
15002W        W57993   1.710  25.868  23.899  0.0419  0.2733  0.0233
15003W        W57994  11.785  29.169   3.614 -0.0503 -0.0117  0.1470
15004W        W57995  13.876   1.082  22.022  0.0931 -0.4078 -0.0066
15005W        W57996   5.699  24.102  15.711 -0.0102  0.0165 -0.0420
15006W        W57997  10.236   6.981  18.337  0.2260  0.0465 -0.3796
15007W        W57998  32.909  19.917  19.916 -0.1080  0.0202 -0.1107
15008W        W57999   7.479  26.235  24.347  0.0070 -0.0900 -0.2630
15009W        W58000   0.553  10.558  28.728 -0.0669 -0.0601 -0.2763
15010W        W58001  30.182  24.392  26.295 -0.0171 -0.1339  0.1396
15011W        W58002  26.824  13.284  20.249 -0.2976  0.1166  0.0163
15012W        W58003   1.591  28.934  16.946  0.2457 -0.0005 -0.1183
15013W        W58004  19.335  20.128  21.218  0.2470  0.0736 -0.0089
15014W        W58005   2.297   2.728   2.959 -0.1156 -0.1066 -0.2998
15015W        W58006  14.934   7.044   1.375  0.1265 -0.0986  0.1689
15016W        W58007   5.840   7.232  17.450 -0.1462 -0.0857  0.0777
15017W        W58008  18.089  32.476  15.400 -0.0400  0.0634  0.0007
15018W        W58009  10.580  26.309  24.792  0.0913 -0.1475 -0.1945
15019W        W58010  33.282  23.971  20.855  0.1533 -0.2293  0.0445
15020W        W58011  14.458   1.653  17.135  0.1079  0.3502  0.1823
15021W        W58012  34.177  21.863  18.370 -0.1159  0.1340  0.0105
15022W        W58013  11.510   8.222  18.048  0.0144 -0.2200 -0.0387
15023W        W58014  25.969  19.734  23.370  0.0054 -0.1730 -0.1431
15024W        W58015  12.026   0.093  18.569 -0.0120 -0.0547  0.3992
15025W        W58016   0.485  18.214  26.932 -0.1066 -0.0717  0.1505
15026W        W58017  29.663  22.223  16.088  0.0285  0.2076  0.2155
15027W        W58018  13.615  16.638  13.654  0.2488  0.2090  0.2175
15028W        W58019  30.352  15.073  26.027  0.0803  0.2527  0.1534
15029W        W58020   4.703  32.695  15.492 -0.1033  0.1336  0.1498
15030W        W58021  22.019  10.267  17.951 -0.1784  0.4048 -0.3456
15031W        W58022  33.234   9.924   8.345 -0.2522  0.4048  0.1258
15032W        W58023   4.787  11.450  21.763 -0.4016  0.2678 -0.0210
15033W        W58024  31.963  18.582  19.257  0.1092  0.0348  0.0690
15034W        W58025  27.963  32.572  23.326  0.0163 -0.1536 -0.1297
15035W        W58026   8.337   2.415   1.057  0.3285  0.1462 -0.1474
15036W        W58027   6.383  34.742   7.755  0.2510  0.2122  0.2481
15037W        W58028  25.368  30.410  27.985 -0.1148 -0.2245 -0.1508
15038W        W58029  30.556  24.135  14.533  0.1372 -0.3542 -0.0753
15039W        W58030   4.573  27.850  19.756 -0.3730 -0.2040  0.0320
15040W        W58031  33.084  30.033  17.138 -0.1294  0.2084 -0.0795
15041W        W58032  26.876  18.032  21.225 -0.0971 -0.4330  0.5085
15042W        W58033   6.904  29.207   4.007  0.3454 -0.0772 -0.1009
15043W        W58034  32.774  34.712   5.782  0.1508 -0.1857 -0.1101
15044W        W58035  34.444  17.700   2.950 -0.2788  0.2114 -0.1747
15045W        W58036  32.042  16.608  15.251 -0.2217 -0.0767  0.1091
15046W        W58037  10.257  26.708  23.112  0.1595  0.0877  0.1212
15047W        W58038  33.622  23.326  23.679 -0.1758 -0.0441  0.0192
15048W        W58039   2.782  27.205   7.242 -0.3201  0.1757  0.0939
15049W        W58040  32.739  22.608  25.422  0.2493 -0.0478  0.2143
15050W        W58041   0.075  16.744  22.815 -0.1699 -0.2189 -0.1874
15051W        W58042   6.783  25.099  23.695  0.2038 -0.1056 -0.2011
15052W        W58043  22.763  11.991   3.266 -0.0942 -0.0003  0.0416
15053W        W58044  34.504  32.544   3.941  0.0172 -0.0206  0.1182
15054W        W58045  10.253  12.644   9.351 -0.0823 -0.0076 -0.1373
15055W        W58046  31.183  18.801   5.117 -0.1180  0.0269  0.4786
15056W        W58047  33.769  15.973  16.979  0.0178  0.1126 -0.1535
15057W        W58048  33.929   2.702  25.354 -0.5020 -0.0697 -0.0577
15058W        W58049  12.274   4.723  23.721  0.4321  0.0463 -0.0007
15059W        W58050  34.290  12.286   6.948  0.1550  0.2923  0.1986
15060W        W58051   2.401  24.120  28.193 -0.1658 -0.2932  0.0158
15061W        W58052  25.087  14.948   1.707  0.1636  0.0030 -0.2196
15062W        W58053   2.632   8.269  18.052 -0.0921  0.3081  0.1180
15063W        W58054  22.365  28.040  17.099 -0.0483  0.0882  0.1358
15064W        W58055   5.652  27.312   5.371  0.0482  0.2720 -0.0184
15065W        W58056  33.587  25.202  26.130  0.3923  0.0447  0.0736
15066W        W58057  28.464  25.834  27.111 -0.0076  0.1825 -0.1539
15067W        W58058  27.342  27.466  14.357 -0.1562  0.2798 -0.2314
15068W        W58059  31.602  15.383   8.477 -0.1716  0.1756 -0.1040
15069W        W58060  15.081  26.649   1.375 -0.1586 -0.3449  0.3655
15070W        W58061   5.218   2.559  23.949  0.1471 -0.1731 -0.1982
15071W        W58062  34.073  32.405  14.293  0.1873 -0.1330 -0.3569
15072W        W58063  34.117  33.369  23.647  0.2376 -0.3063  0.0526
15073W        W58064  31.905  28.399  28.066  0.0062 -0.0838 -0.1214
15074W        W58065   3.387  29.009  26.732  0.0285 -0.0191 -0.0748
15075W        W58066  28.361  27.395  12.697 -0.0862 -0.2156 -0.0297
15076W        W58067  17.456  23.147  17.623  0.3397 -0.0923  0.1523
15077W        W58068  31.562  28.694  18.038  0.0726  0.2819 -0.0753
15078W        W58069   8.534  20.485  19.178 -0.0810 -0.0793  0.0849
15079W        W58070  31.661  20.979  21.523  0.0595  0.3761 -0.0222
15080W        W58071   9.365  26.367  23.344 -0.1341  0.0260  0.1574
15081W        W58072   9.880   0.704   5.232 -0.1521 -0.4062  0.0853
15082W        W58073  23.784  26.184  25.340 -0.0828 -0.1217 -0.0698
15083W        W58074   8.714  28.549  28.218  0.0533  0.0104 -0.2458
15084W        W58075  16.836   8.946  26.564  0.2091  0.1665 -0.1419
15085W        W58076  11.019   2.385   7.607  0.0792 -0.1049 -0.2452
15086W        W58077   3.701   0.448  28.947  0.2535  0.0754 -0.0371
15087W        W58078   2.670  26.955  20.367  0.1183  0.2036 -0.1165
15088W        W58079  11.221  21.685   6.028  0.0809  0.2795 -0.1767
15089W        W58080  19.106  25.302  27.689  0.2679  0.0796 -0.2237
15090W        W58081  14.010  29.898  24.217  0.1306 -0.2007  0.2790
15091W        W58082   9.316   5.965  16.395  0.0786 -0.0831  0.2040
15092W        W58083  33.966  34.040  20.982  0.0520 -0.2932  0.2427
15093W        W58084  23.578   0.460  14.374 -0.0973 -0.1624  0.0046
15094W        W58085  33.990  19.789   1.458 -0.0694 -0.0513  0.0484
15095W        W58086  13.837  34.152   7.327 -0.2708 -0.1392 -0.0271
15096W        W58087  34.642  29.772   8.542 -0.1205  0.2006 -0.1645
15097W        W58088  34.042   3.738   6.478 -0.2833  0.0045 -0.0112
15098W        W58089  10.338  17.980  26.963  0.1805  0.1032 -0.2280
15099W        W58090  32.137  22.191  26.995 -0.0968 -0.3595 -0.1197
15100W        W58091  31.512  24.997  20.314 -0.0474 -0.0871  0.2827
15101W        W58092  15.296  26.353  19.495  0.0404  0.1261 -0.0328
15102W        W58093  14.937   1.700  24.259  0.0413 -0.1529  0.4855
15103W        W58094  11.635  13.987   5.658 -0.3806 -0.0859 -0.0500
15104W        W58095   9.322  34.106   8.150  0.2959  0.1587  0.2219
15105W        W58096  26.078  11.712  21.920  0.2999  0.0194  0.0898
15106W        W58097  32.803   1.199   6.452 -0.2445 -0.1193  0.3309
15107W        W58098  11.680  21.274   1.890  0.1511  0.0213 -0.1562
15108W        W58099  33.446  18.474   7.022 -0.3725  0.2122 -0.2205
15109W        W58100  33.895  27.121  19.026 -0.2006  0.1764  0.1854
15110W        W58101  33.183   3.350  21.918  0.2406  0.2972  0.0982
15111W        W58102  20.943  25.449   4.096 -0.0122  0.3456 -0.1213
15112W        W58103  16.614  28.015  21.893  0.2240  0.3590  0.0642
15113W        W58104  34.510  33.597  18.167 -0.0965 -0.2428  0.4504
15114W        W58105  30.769  21.895  28.986 -0.1039 -0.1324  0.1634
15115W        W58106  32.563  17.824   8.658  0.0852  0.0159 -0.0429
15116W        W58107   0.530  34.614  20.042 -0.1574 -0.1066  0.5305
15117W        W58108   4.487  27.064   2.939 -0.1534  0.4491  0.2085
15118W        W58109  31.969  12.217  22.497 -0.2401  0.1067  0.2906
15119W        W58110  23.885  22.163  22.624  0.0593  0.1697 -0.0784
15120W        W58111  12.373  29.518  16.094  0.0718 -0.3370 -0.0149
15121W        W58112  28.447  18.526   7.572  0.0772 -0.0150 -0.0185
15122W        W58113  10.484  29.367  24.100  0.1408  0.3104 -0.0044
15123W        W58114   7.865   4.934  19.257 -0.1827  0.2540 -0.1073
15124W        W58115  31.582  29.958  12.921  0.1749  0.0330  0.1303
15125W        W58116  18.914   6.985  20.153  0.2265  0.3224  0.0255
15126W        W58117  26.620  29.206   6.985 -0.1690  0.1971  0.1604
15127W        W58118  32.658  21.219  16.098 -0.2129 -0.0006  0.0226
15128W        W58119   8.716  27.336   5.201  0.2277 -0.2813 -0.2177
15129W        W58120  26.440   0.599  22.614 -0.0722 -0.0803 -0.0840
15130W        W58121  33.089  33.368  21.580  0.2456 -0.0669 -0.0580
15131W        W58122  28.344  15.613  18.113  0.0276  0.2390 -0.0216
15132W        W58123  15.031  21.297  22.831 -0.2620  0.3168 -0.0200
15133W        W58124   6.126  16.928  20.485  0.0922 -0.0029  0.1095
15134W        W58125   3.306  24.218   5.923  0.1831 -0.0561  0.0249
15135W        W58126  30.574  12.356  26.897  0.3281 -0.0801  0.1722
15136W        W58127  28.558  24.395   1.806  0.2893  0.3154 -0.1558
15137W        W58128   5.616  17.962  24.157 -0.0713 -0.2857 -0.1544
15138W        W58129  26.346  17.599  18.543 -0.0970  0.0682 -0.0711
15139W        W58130  28.809  18.580  27.347  0.1802  0.1386 -0.1003
15140W        W58131   5.090  15.613   7.321  0.0112  0.3826  0.0059
15141W        W58132  34.203  18.338  14.813  0.1537 -0.0903 -0.1207
15142W        W58133  26.444   8.750  25.032 -0.3504 -0.1296 -0.1023
15143W        W58134   9.342  30.437  29.117  0.0410 -0.3052 -0.1894
15144W        W58135   5.341  29.456  22.556  0.0872 -0.0896 -0.2383
15145W        W58136  26.518  13.001   5.850  0.2593 -0.1460  0.0640
15146W        W58137  30.788  13.895  14.742 -0.3261 -0.0782 -0.2152
15147W        W58138  30.486  22.282   5.025 -0.0934  0.1406 -0.0031
15148W        W58139   8.170   7.368   8.471 -0.1980 -0.4577  0.2086
15149W        W58140  33.243  25.723  16.374  0.2103  0.0945  0.4032
15150W        W58141  16.156   0.151   6.164 -0.1887  0.0634  0.0448
15151W        W58142  33.022   3.897   7.955  0.0432 -0.0158  0.0031
15152W        W58143  28.757  23.041  21.850  0.1118 -0.1258  0.0122
15153W        W58144  12.104  32.966  16.855  0.0282  0.0839 -0.2050
15154W        W58145  23.905  13.092  18.501  0.1191 -0.3822  0.1736
15155W        W58146   2.873   0.677   7.924  0.4113 -0.0735  0.0489
15156W        W58147  31.657   7.943  21.378 -0.1027  0.1168 -0.2078
15157W        W58148  23.672  12.483   7.363  0.0530  0.4227 -0.0602
15158W        W58149   4.083  30.918  20.829  0.0652 -0.1699 -0.0815
15159W        W58150  22.010  21.274  28.818 -0.0960 -0.0937 -0.3061
15160W        W58151  34.140  23.188   2.677  0.0491 -0.1238  0.0405
15161W        W58152  28.070  27.724   8.287  0.1447  0.0078 -0.2346
15162W        W58153  15.838  11.886   5.464 -0.4063  0.1285 -0.0093
15163W        W58154  24.006  23.330  22.731  0.0498  0.1138 -0.1077
15164W        W58155  19.770  16.550  24.123  0.1849  0.4534  0.0740
15165W        W58156  22.146   1.843   0.547 -0.0464  0.1021  0.2038
15166W        W58157   4.705   0.034  25.095  0.0036 -0.1154 -0.0392
15167W        W58158  31.228  22.920  15.362  0.3000  0.3695 -0.1638
15168W        W58159   5.669  29.978   1.501  0.0507 -0.1263  0.3591
15169W        W58160   3.306  27.252  21.974 -0.1496  0.0349  0.0248
15170W        W58161  14.178  31.412   4.697 -0.0593  0.1334 -0.1198
15171W        W58162  29.811  23.006  24.929  0.1649 -0.1132  0.0265
15172W        W58163  30.397  17.821  28.472 -0.1317  0.1932  0.0864
15173W        W58164  16.773  22.592  23.477  0.4554  0.2447 -0.1988
15174W        W58165  32.937   6.757  19.986  0.2451 -0.2438  0.0194
15175W        W58166  33.819  19.389  23.065  0.0459 -0.1027  0.1310
15176W        W58167  17.033  27.130   3.116  0.0374 -0.2348  0.0188
15177W        W58168  28.209  19.166   4.222  0.0754 -0.0208 -0.0928
15178W        W58169  28.298  23.144  22.900  0.2249  0.2969 -0.3449
15179W        W58170  15.518  24.765   5.514 -0.0499  0.3531  0.0004
15180W        W58171  23.442  22.753  13.888  0.2045 -0.3372 -0.0132
15181W        W58172  27.908  15.534  15.451  0.1103  0.3212 -0.2663
15182W        W58173  31.401  28.862  13.461 -0.2124 -0.0962  0.1931
15183W        W58174  31.415  19.902  14.558 -0.2640 -0.1412  0.0726
15184W        W58175   1.444  13.963  28.819  0.2599  0.1687 -0.0596
15185W        W58176   7.793  30.321  24.996  0.1039  0.3826 -0.2190
15186W        W58177  30.148  26.412  28.576 -0.0021 -0.0403  0.2005
15187W        W58178  22.060  17.099   7.905  0.0907  0.1809 -0.0539
15188W        W58179  29.221   0.742  28.610 -0.1221  0.0226  0.2310
15189W        W58180  32.549  25.835   3.041 -0.2873  0.5349  0.0124
15190W        W58181  33.444   8.081   6.252 -0.2324 -0.0465  0.0537
15191W        W58182  25.880  31.705   1.056  0.2692  0.0255 -0.0629
15192W        W58183   4.487  17.602  17.306  0.1752 -0.0768 -0.2456
15193W        W58184  31.520   7.676  20.799  0.0517 -0.1451  0.0992
15194W        W58185   2.592  27.649  16.410 -0.1426  0.0287  0.0188
15195W        W58186  28.007  14.118   6.971 -0.0182  0.5357  0.3325
15196W        W58187  21.486  19.793  28.766  0.0627  0.1395  0.0914
15197W        W58188   1.977  34.507   2.673 -0.3035 -0.0694  0.3519
15198W        W58189  12.189  27.979  24.060  0.0030  0.2382 -0.0341
15199W        W58190  28.680  10.719  28.607 -0.0779 -0.3014  0.0771
15200W        W58191  29.844  19.906  21.142 -0.2492 -0.2365 -0.0069
15201W        W58192   0.168  34.406  25.487  0.2497 -0.2428 -0.2966
15202W        W58193   9.593  26.301  15.122 -0.1337  0.0192 -0.0170
15203W        W58194  33.378  22.288  27.727  0.3057  0.1055 -0.0765
15204W        W58195  16.983  17.407  24.275 -0.1519  0.2708  0.1211
15205W        W58196  22.442  15.829  19.979 -0.2038 -0.2381 -0.0457
15206W        W58197  18.666  29.453  17.844  0.4759  0.1942  0.1604
15207W        W58198  11.483   3.762  25.057 -0.1452 -0.0588  0.0153
15208W        W58199   2.151  23.943  21.370 -0.0414  0.0546  0.1544
15209W        W58200   4.323  30.111  18.965 -0.0044 -0.2038  0.0628
15210W        W58201  33.049  16.234  20.597 -0.2892  0.2509 -0.0227
15211W        W58202  30.253  18.768   0.925  0.2583  0.0294 -0.0076
15212W        W58203   8.232  27.169  21.918  0.0959 -0.0330 -0.2209
15213W        W58204  12.201  19.422  26.971 -0.1163 -0.0938  0.2468
15214W        W58205   2.890  30.307  24.317  0.0481 -0.2992  0.3147
15215W        W58206   6.299  23.225  20.495  0.0325 -0.0963  0.1525
15216W        W58207  11.162  19.304  24.678  0.1280  0.1504 -0.1697
15217W        W58208  27.387  25.502   3.094 -0.2194  0.1132  0.0762
15218W        W58209   0.965   5.122  15.897 -0.0633 -0.1004  0.1614
15219W        W58210  32.673  15.464  23.125 -0.0353 -0.5069  0.5346
15220W        W58211   6.117   7.845   6.046 -0.1020 -0.1271 -0.1871
15221W        W58212  26.157  18.742  21.654 -0.1229  0.2597  0.0633
15222W        W58213  20.803  13.773  24.278 -0.0169 -0.1527  0.1007
15223W        W58214   6.778  10.753   7.532  0.1806 -0.3384 -0.3594
15224W        W58215  28.970  29.823  15.139  0.0168 -0.2917 -0.3462
15225W        W58216   7.949  24.111  24.038 -0.0759 -0.2480  0.1125
15226W        W58217  32.676  29.427   4.337 -0.0046  0.0687  0.0096
15227W        W58218   3.638   7.873   4.709 -0.2225  0.0210  0.0572
15228W        W58219   2.622  28.419   3.438 -0.0252  0.1491 -0.1431
15229W        W58220   5.489  32.569   6.637 -0.1310  0.3872  0.1807
15230W        W58221   1.033  22.632  21.072  0.1790  0.0093  0.0531
15231W        W58222   7.303  20.695   4.725 -0.0446 -0.4500 -0.0073
15232W        W58223  33.888  19.507  26.111  0.1623  0.0019 -0.0369
15233W        W58224  33.983  33.367  18.507  0.0357  0.0940  0.1517
15234W        W58225   1.584   3.329  18.857  0.2119  0.1232 -0.0045
15235W        W58226   0.824  22.125   2.169  0.2266 -0.0590 -0.0366
15236W        W58227   7.171  17.405  26.287 -0.2624  0.2509  0.1878
15237W        W58228  21.088  30.740  23.094  0.0218 -0.0079  0.1908
15238W        W58229  13.909  30.885  20.007 -0.3440  0.3061 -0.1938
15239W        W58230   0.277  22.506   9.769  0.2359  0.2313  0.0258
15240W        W58231  24.145  28.870  27.277 -0.1115 -0.0137  0.1632
15241W        W58232   5.085  27.560   5.267 -0.1672  0.4083 -0.0461
15242W        W58233  20.016  31.063  19.900 -0.2541  0.2424  0.1262
15243W        W58234  26.323  12.800   1.065  0.3779 -0.4689 -0.0421
15244W        W58235  27.332  16.657  24.921  0.0360  0.2430  0.2459
15245W        W58236  23.288   2.942  17.676  0.1920 -0.0035  0.2861
15246W        W58237  13.690  18.818  26.923  0.0663  0.0204 -0.4020
15247W        W58238  32.931  31.824  17.886  0.1043  0.1797 -0.2592
15248W        W58239   2.579   7.240   6.269 -0.1041 -0.0003 -0.1860
15249W        W58240  13.239   2.927  29.176 -0.0424 -0.2944 -0.2480
15250W        W58241  23.115  23.921  15.225 -0.3070  0.2013 -0.2708
15251W        W58242  19.976  23.224   2.869 -0.0302 -0.0460 -0.0076
15252W        W58243  15.198  21.988   0.108 -0.0923  0.2770  0.1128
15253W        W58244   9.423  29.797   2.559 -0.4978 -0.4059  0.0249
15254W        W58245  31.583  31.295   8.093  0.4401 -0.4278  0.0646
15255W        W58246   2.313  20.137   0.615 -0.0295  0.1213  0.0489
15256W        W58247  13.457  29.623   6.371  0.1649 -0.1223 -0.0167
15257W        W58248   2.399  16.114   9.796 -0.4634  0.0256  0.1886
15258W        W58249   3.138   0.557  29.006  0.1879  0.0287  0.2458
15259W        W58250  29.463  29.344   7.971  0.0958 -0.2045  0.1055
15260W        W58251   4.816  34.507  16.770 -0.0500 -0.0302 -0.0453
15261W        W58252  32.968  29.323  18.262  0.2913  0.2694 -0.1152
15262W        W58253   6.578  21.195   6.956 -0.0550 -0.2270  0.0255
15263W        W58254   8.350  29.690  18.788  0.3627 -0.2127 -0.0648
15264W        W58255   2.685  20.432  19.678  0.2684 -0.1161  0.2189
15265W        W58256   8.893  29.174  22.032 -0.2472  0.2754 -0.0554
15266W        W58257   6.565  23.680   8.517 -0.3757 -0.2505  0.1659
15267W        W58258   7.830  23.754   0.996 -0.1952  0.1379 -0.1702
15268W        W58259   5.644  29.501   5.182 -0.4344  0.1752  0.1576
15269W        W58260  10.534  16.906   1.008  0.0543  0.1432  0.2660
15270W        W58261  33.983  16.103  16.570  0.0549 -0.0157  0.0664
15271W        W58262  32.743  11.157  27.225  0.3052 -0.1531  0.0456
15272W        W58263   4.941  22.707  28.834 -0.0472 -0.1236  0.0270
15273W        W58264  25.879   0.271  13.743 -0.2798 -0.0116 -0.0247
15274W        W58265   1.212  27.528   8.456 -0.2539  0.4204 -0.0994
15275W        W58266   1.577  23.605  18.768 -0.0384 -0.2675  0.1549
15276W        W58267   3.059  18.694  16.354 -0.0103  0.0960 -0.0611
15277W        W58268  16.921   1.484  17.484 -0.0828 -0.0741  0.1548
15278W        W58269   4.691  26.164  27.455  0.1732  0.1115  0.1371
15279W        W58270   6.618  18.211   2.934  0.0231  0.1173  0.1619
15280W        W58271  32.618   8.195  15.955 -0.1166 -0.0699 -0.2084
15281W        W58272  23.842  10.318   7.719 -0.1405  0.0781  0.3435
15282W        W58273  14.877  24.196  22.028  0.0817  0.0912 -0.2231
15283W        W58274  15.215   3.133  19.845  0.2184  0.2272  0.2359
15284W        W58275  17.239  32.093  17.871 -0.0273 -0.1316  0.3236
15285W        W58276   8.211  28.053  23.958  0.1366  0.1476  0.1166
15286W        W58277  34.580   0.260  17.197 -0.0458  0.2108  0.1575
15287W        W58278  33.269   4.398  15.833 -0.1251  0.2041 -0.3529
15288W        W58279  31.564  21.105   5.170  0.0774 -0.1126  0.3574
15289W        W58280  23.592   3.460  23.334  0.0100  0.0935 -0.0228
15290W        W58281  14.836  22.429  19.521 -0.0432  0.1493 -0.2780
15291W        W58282  25.812  16.489   8.751 -0.3656 -0.0147 -0.0552
15292W        W58283  30.026  11.178  29.251  0.1079 -0.3759 -0.3216
15293W        W58284   0.880  13.971   9.399 -0.2536  0.0093 -0.1172
15294W        W58285   9.875  17.390  17.599  0.0385 -0.3728 -0.6839
15295W        W58286  24.581  25.410  13.580 -0.0832  0.1283 -0.2206
15296W        W58287   3.443  23.934  25.492  0.0472 -0.3597 -0.1083
15297W        W58288   6.151  28.448   2.425  0.1004  0.0860 -0.2267
15298W        W58289  34.089  23.216   2.172  0.2293 -0.1041  0.2004
15299W        W58290  23.949  26.427   1.277 -0.1435  0.0308 -0.0186
15300W        W58291   4.769  24.421  18.949 -0.0739 -0.0373 -0.2774
15301W        W58292  25.390  25.974  17.447 -0.0682 -0.0646 -0.1789
15302W        W58293  32.875  31.817  24.926  0.1372 -0.0120  0.2517
15303W        W58294  32.502  34.692  18.247  0.2520  0.0573  0.1215
15304W        W58295  26.367  29.045   4.243  0.1524  0.3703  0.0739
15305W        W58296  31.910  22.740  28.907 -0.1181 -0.1228 -0.0414
15306W        W58297  32.470  24.299  16.875  0.1524  0.0568 -0.2528
15307W        W58298   3.274  28.507   3.434 -0.2129 -0.0584 -0.0649
15308W        W58299   4.792  20.258  19.980  0.1169 -0.0821 -0.1323
15309W        W58300  16.097  29.299  23.580  0.0374  0.0141 -0.2277
15310W        W58301  30.385  25.970  19.735  0.0088  0.1434 -0.2420
15311W        W58302  11.789  28.216   7.672  0.1178  0.0103 -0.0798
15312W        W58303  15.579  34.341  16.726  0.1267  0.1273 -0.2038
15313W        W58304  31.455   9.083  19.604 -0.0384 -0.0245 -0.1475
15314W        W58305  32.766  17.840  16.900 -0.0614 -0.1418  0.0022
15315W        W58306  11.655  20.744  24.109 -0.0053 -0.0624  0.1597
15316W        W58307  15.362  30.579   2.418 -0.0562  0.0797 -0.3503
15317W        W58308  23.474  15.859   9.084  0.1845 -0.3448 -0.2143
15318W        W58309  30.799   0.821  18.651  0.1011 -0.0033  0.0887
15319W        W58310  32.687  16.124  16.784  0.1056  0.1600 -0.1054
15320W        W58311   5.365  23.046  22.674 -0.0616  0.0649  0.0090
15321W        W58312   8.816  27.547  25.243  0.0397  0.3241  0.1764
15322W        W58313   1.407   0.569  24.264  0.0739 -0.0128 -0.4060
15323W        W58314   4.676  26.461  19.479  0.1310  0.1162  0.1472
15324W        W58315  32.847  22.542  28.467  0.0606 -0.1895  0.1194
15325W        W58316  13.288   1.763  28.846  0.0020  0.5318 -0.1891
15326W        W58317  32.365   1.639  19.394  0.1479  0.3316 -0.1401
15327W        W58318  32.235  19.657  28.030 -0.1198 -0.0444 -0.0338
15328W        W58319   5.238  24.014  17.564  0.1651 -0.0323 -0.1163
15329W        W58320  14.021  22.755   0.372 -0.1934 -0.1592 -0.2241
15330W        W58321  30.756  25.284   7.251 -0.0355 -0.1718 -0.1640
15331W        W58322  17.024  26.175  22.237  0.1012  0.2305  0.1529
15332W        W58323  23.911  17.160  22.424 -0.0522  0.1710 -0.0833
15333W        W58324   1.481  26.587   1.722  0.1183 -0.2065 -0.4746
15334W        W58325   5.927  28.389  25.073  0.0866  0.0031 -0.2109
15335W        W58326  27.551  12.445   1.895  0.0487 -0.6716  0.0891
15336W        W58327   3.413  17.198   5.657  0.4769 -0.0870 -0.0366
15337W        W58328   0.730  13.447   5.462  0.0483 -0.1734  0.0549
15338W        W58329   3.447   1.516  25.944  0.0413  0.0069  0.0999
15339W        W58330   8.735  24.515  14.734 -0.1114  0.2165  0.0153
15340W        W58331   2.328  27.631  28.675 -0.1032  0.1287  0.3230
15341W        W58332   3.949  32.619  20.875 -0.2483 -0.1045  0.0742
15342W        W58333   8.776  10.534  22.116  0.0325  0.3067  0.0597
15343W        W58334  28.053   2.864   9.193  0.2021 -0.0511 -0.3413
15344W        W58335  15.015   6.518   2.017  0.1319  0.0964 -0.0070
15345W        W58336   1.216  22.104   2.497  0.0152  0.0338 -0.3796
15346W        W58337  11.190  27.016   0.504  0.0103  0.0660 -0.2645
15347W        W58338  19.001  29.276   4.733 -0.3785  0.1573 -0.0672
15348W        W58339  23.903   0.611   1.721  0.2032 -0.1884  0.0407
15349W        W58340   3.434  27.543   1.498 -0.3406 -0.0488  0.4352
15350W        W58341   1.910   0.406  27.359 -0.0758 -0.0459 -0.2322
15351W        W58342  11.409  24.928  22.521  0.0400 -0.0360  0.0647
15352W        W58343  34.732  18.888  23.279  0.2427  0.2429  0.0414
15353W        W58344  24.037  24.498   2.289 -0.5702  0.2164  0.0646
15354W        W58345   5.360   2.473  23.124 -0.3853 -0.2529 -0.0732
15355W        W58346  31.577  31.098   2.319  0.2380 -0.3055 -0.1877
15356W        W58347  19.855  22.945  28.643 -0.2677  0.0526 -0.4068
15357W        W58348  28.590   5.681   5.941 -0.2401  0.0654  0.0330
15358W        W58349   2.585   7.616   0.450  0.2623 -0.0369  0.2729
15359W        W58350   4.292   4.643  18.939  0.2046 -0.1237 -0.0699
15360W        W58351  22.698  27.216  13.822  0.3861  0.0026  0.0174
15361W        W58352  31.413   8.313  29.167  0.0608  0.1321 -0.2802
15362W        W58353   7.426  27.389   0.718 -0.1348 -0.0380  0.0276
15363W        W58354  30.405  33.661   7.147 -0.0209 -0.0936  0.0224
15364W        W58355  28.387  26.435  25.199 -0.1213 -0.1989  0.0951
15365W        W58356   3.850  25.139  14.424 -0.0735 -0.0545 -0.0328
15366W        W58357   2.817  11.989   8.347 -0.0612  0.0084  0.4958
15367W        W58358  25.556   8.323  22.623 -0.1432 -0.1486  0.0761
15368W        W58359   1.071  25.978  17.641  0.0972  0.0268 -0.1032
15369W        W58360  33.103  16.438   4.878  0.2098  0.0701 -0.1108
15370W        W58361  12.565  11.019  24.980 -0.0806  0.0053  0.3289
15371W        W58362  31.437  12.305  28.512  0.2752 -0.2044  0.3280
15372W        W58363  33.408  15.755  27.188  0.0890  0.0189 -0.2573
15373W        W58364  24.195  31.598  29.142 -0.1414  0.0819 -0.1487
15374W        W58365   8.348  27.876  28.994 -0.1235  0.0618  0.0394
15375W        W58366  34.032  17.779  27.498  0.0053 -0.3757  0.1275
15376W        W58367  11.428   4.935   5.998 -0.1338 -0.1976  0.0383
15377W        W58368  31.248  12.407   5.246 -0.0416  0.6232  0.1870
15378W        W58369   9.880   2.102  27.618 -0.0994 -0.1213 -0.0904
15379W        W58370  10.107   5.384  16.043 -0.2566 -0.1574 -0.2556
15380W        W58371  19.965  22.103  17.500  0.0579  0.0190  0.0013
15381W        W58372  24.401  33.701  28.176  0.0982 -0.1404  0.0618
15382W        W58373  19.541  25.135  21.715 -0.3219  0.2717 -0.0342
15383W        W58374  25.283  24.175   9.873 -0.0835  0.2402  0.2239
15384W        W58375   6.929  27.179  15.756  0.0530  0.0297 -0.1842
15385W        W58376  32.609  30.909   8.894  0.0588  0.0428 -0.1785
15386W        W58377   1.506  11.411   4.236  0.1436  0.1487  0.1840
15387W        W58378   2.861   7.253  17.505  0.2635  0.2186 -0.1519
15388W        W58379  28.194  13.030   3.046  0.3341 -0.0369  0.1136
15389W        W58380  30.865  10.075   0.366 -0.0088 -0.3512 -0.3942
15390W        W58381  22.801   1.388  15.784  0.1253 -0.1077 -0.1472
15391W        W58382  11.120  16.087  13.699  0.1457  0.1706  0.3585
15392W        W58383   2.821  34.243  18.529  0.0539  0.0540  0.0537
15393W        W58384  24.332  24.434  19.235 -0.3165  0.1079 -0.5409
15394W        W58385   4.611   1.691  23.591 -0.0953 -0.0430  0.1646
15395W        W58386  25.107  12.254  20.608 -0.0335 -0.0970 -0.0818
15396W        W58387  19.089   2.739  18.807 -0.2067  0.3403 -0.0621
15397W        W58388  32.831  23.786   3.583  0.0518 -0.2960 -0.1309
15398W        W58389   0.403  19.804   3.487 -0.3838 -0.1631 -0.0977
15399W        W58390  31.696  24.242  29.260 -0.1470 -0.1062 -0.2519
15400W        W58391  14.231  17.172  26.610  0.1747  0.2160 -0.0634
15401W        W58392  12.639  21.994  23.314  0.1685 -0.1297 -0.1517
15402W        W58393   9.239  16.457   3.249  0.1145 -0.0392  0.2505
15403W        W58394   5.492  22.527  16.342 -0.2057 -0.2739 -0.0119
15404W        W58395  11.397  28.944  24.118 -0.2492 -0.1172  0.1561
15405W        W58396  23.633   3.228  20.546 -0.0584  0.0665 -0.0863
15406W        W58397  23.137  24.778   9.369  0.1253 -0.1672 -0.0892
15407W        W58398   3.644  24.387  24.186  0.2035 -0.1149 -0.3273
15408W        W58399  21.044  26.834  27.263 -0.0421 -0.2698  0.3370
15409W        W58400   9.487  19.284   8.247 -0.1178  0.1597  0.1393
15410W        W58401  25.197   9.259  22.665 -0.1281 -0.4702 -0.2327
15411W        W58402   9.100  19.040  21.482 -0.2657 -0.3549  0.2026
15412W        W58403   8.196   6.755   8.269 -0.2487 -0.1611  0.4081
15413W        W58404   2.153  32.752   3.362  0.0184  0.0657 -0.3294
15414W        W58405  18.643  18.324  28.932  0.1271  0.1438  0.0342
15415W        W58406  24.755  30.268   7.078 -0.0534  0.1168  0.1524
15416W        W58407  32.581  19.094   6.821 -0.0174  0.0648 -0.0301
15417W        W58408   3.387   6.419   3.179 -0.1299 -0.6339  0.2133
15418W        W58409  27.824   8.593  24.678  0.1525 -0.4548 -0.3615
15419W        W58410  25.766  20.756   5.464  0.0103  0.3029  0.0007
15420W        W58411   0.622   7.074  23.815  0.0160 -0.0445 -0.1234
15421W        W58412  32.697  18.321  17.290 -0.0325  0.3002 -0.3004
15422W        W58413  33.741  23.211   0.097 -0.2443 -0.0141  0.2400
15423W        W58414   1.812   9.877   3.465  0.1118 -0.0605  0.2415
15424W        W58415   2.190  15.350  19.885 -0.0313  0.1034 -0.3313
15425W        W58416  26.245  16.027  25.609  0.0553  0.0669 -0.1599
15426W        W58417  28.506  22.730  24.682  0.0102  0.0485 -0.1867
15427W        W58418  33.719  33.631   7.574  0.2619 -0.1645  0.0184
15428W        W58419  32.433  23.379   0.493  0.3484 -0.4561 -0.0027
15429W        W58420  33.864  10.889  22.319  0.1920  0.1208 -0.0431
15430W        W58421  30.876  31.737  20.598  0.1117 -0.2040  0.0511
15431W        W58422   0.381  19.437  16.743  0.0514 -0.1736  0.2645
15432W        W58423   2.876  16.490   9.770  0.2735 -0.0141  0.0691
15433W        W58424  23.772  32.190   1.639 -0.0176  0.1817  0.1900
15434W        W58425  31.054  33.119  16.999 -0.0852  0.1786 -0.1078
15435W        W58426   0.928  28.386  20.058 -0.3362 -0.1578 -0.2737
15436W        W58427  14.880  18.670  16.566  0.3628 -0.2549 -0.1480
15437W        W58428  24.075  29.988   4.025 -0.2522 -0.0489 -0.2737
15438W        W58429  12.776  12.736  20.345 -0.1025 -0.3243  0.1166
15439W        W58430   7.131  20.000  27.210 -0.3571  0.0476  0.0149
15440W        W58431  13.141  24.410   7.177 -0.4171 -0.0927  0.0593
15441W        W58432  17.222  25.973  23.739 -0.1615 -0.0847 -0.2617
15442W        W58433  10.388   1.912  17.963 -0.0606  0.1184 -0.1750
15443W        W58434  31.015   8.136  14.194  0.0555 -0.1256 -0.0862
15444W        W58435  15.662  17.325   2.937 -0.1119  0.2734 -0.0823
15445W        W58436  19.195  15.418   1.151  0.0880 -0.0393 -0.2194
15446W        W58437   2.909  21.753  17.192 -0.2834  0.1312 -0.1273
15447W        W58438  32.604  25.685  23.240 -0.0179 -0.0233  0.1117
15448W        W58439   9.254  25.189  13.806 -0.2223  0.0559 -0.1580
15449W        W58440   1.934  25.004  18.995 -0.1333  0.1743  0.4545
15450W        W58441  13.386  30.185   6.188  0.0614  0.0420 -0.1348
15451W        W58442   3.443  24.085  20.883  0.1934  0.1381  0.2198
15452W        W58443  30.424  14.357  26.825  0.2953  0.0138  0.2782
15453W        W58444   0.554  31.590  27.075 -0.0853 -0.4179 -0.1222
15454W        W58445  27.644  24.944   3.938  0.2249 -0.2920  0.1363
15455W        W58446   5.925  34.749  25.866  0.1280  0.1123  0.2831
15456W        W58447  30.979  26.459  21.417 -0.0501 -0.0187  0.3468
15457W        W58448  30.513   4.112  14.057 -0.0412 -0.1306  0.0136
15458W        W58449  29.240  32.684   7.254 -0.1366  0.1422  0.0657
15459W        W58450   4.724  22.616  18.338 -0.0880 -0.0495 -0.0467
15460W        W58451   7.630  32.498   8.464  0.0321  0.2100 -0.0462
15461W        W58452   4.709  25.001  21.325 -0.0044 -0.2550 -0.2246
15462W        W58453  23.868  28.720  14.317 -0.1134 -0.0381 -0.0363
15463W        W58454  13.099  24.034  24.118  0.1203 -0.1213 -0.0049
15464W        W58455  27.540  27.108   5.841  0.0509  0.0289  0.4145
15465W        W58456  16.225  18.102  12.454  0.0656  0.2069 -0.1739
15466W        W58457  32.447  28.532  23.003 -0.2342 -0.0605 -0.0570
15467W        W58458  10.357  25.554   3.229 -0.2284  0.1116 -0.2590
15468W        W58459   1.276   5.669  23.454  0.2556  0.0970 -0.1166
15469W        W58460  31.938  31.190   5.402  0.0702 -0.4108 -0.2226
15470W        W58461  17.440  23.502  24.749  0.0342  0.2859  0.5449
15471W        W58462   8.413  22.923  15.405 -0.0246  0.0988 -0.0440
15472W        W58463   6.155   1.311   3.621  0.1457 -0.0542  0.2007
15473W        W58464   0.260  26.180   2.210 -0.1740  0.1623  0.1017
15474W        W58465  13.399  30.312   0.229  0.3602 -0.4641  0.4778
15475W        W58466  15.469  11.352   9.992 -0.1963 -0.1378 -0.0534
15476W        W58467  32.241  32.417  16.600  0.0903  0.1026 -0.2782
15477W        W58468   3.100  28.334   2.502 -0.2921  0.0023  0.0965
15478W        W58469   2.686   2.536  23.864 -0.1977  0.1728 -0.2159
15479W        W58470  23.404  28.717   3.247  0.0285  0.0503 -0.1577
15480W        W58471  33.047  22.068   8.116  0.4873  0.1668 -0.1021
15481W        W58472  34.171  14.026  26.854 -0.0926  0.1181 -0.5203
15482W        W58473   5.803  17.015  27.276 -0.3538  0.0286  0.0207
15483W        W58474  34.583  26.051   8.481  0.0555  0.1635 -0.2562
15484W        W58475   1.064  25.296   4.162  0.0694  0.1461  0.1504
15485W        W58476  24.357  25.095   7.907  0.2092  0.0424  0.5792
15486W        W58477  32.066  25.765   3.049  0.1490  0.0915  0.1707
15487W        W58478  31.619  30.845   7.954  0.2360 -0.3189 -0.1199
15488W        W58479  32.967  33.417   5.743 -0.0440 -0.0676  0.3318
15489W        W58480   1.213  19.910   2.841 -0.1030 -0.0855  0.2105
15490W        W58481   0.861  26.955  27.799  0.0918 -0.0129  0.0491
15491W        W58482  23.469  25.933  28.546  0.0530  0.0050 -0.0052
15492W        W58483   8.068  29.341  10.287 -0.1206 -0.4583 -0.0196
15493W        W58484  28.332  12.738  20.261  0.4354  0.2060  0.1405
15494W        W58485   7.517  15.655   0.186  0.1330 -0.2762 -0.1379
15495W        W58486  31.414   3.473   1.860 -0.3120 -0.0125 -0.2686
15496W        W58487   6.182  14.116  21.237  0.2162 -0.1066  0.0153
15497W        W58488  33.059  17.728  10.487  0.1456  0.0186  0.0540
15498W        W58489   4.616  22.427  25.178 -0.1401  0.0720  0.3872
15499W        W58490  31.788   2.492   1.026  0.2375 -0.0368  0.2138
15500W        W58491  19.848  28.307  25.373 -0.2470  0.0745  0.1083
15501W        W58492  20.765  34.216  28.592  0.1857  0.5131 -0.0731
15502W        W58493  29.533  13.471   7.200  0.0788  0.3975 -0.0884
15503W        W58494   7.059   1.390   1.059 -0.0553 -0.2412  0.2391
15504W        W58495  13.290  32.127   9.318 -0.3517  0.0491  0.2604
15505W        W58496  31.002  22.210  15.321 -0.3155  0.1060  0.3812
15506W        W58497  11.565  15.139  20.926  0.2422  0.0857 -0.0217
15507W        W58498   5.753   6.532   5.029 -0.0884  0.0939  0.2470
15508W        W58499   7.802  16.056  23.086  0.2456 -0.2538 -0.0696
15509W        W58500  28.664  16.126  16.425 -0.1274  0.0766 -0.2345
15510W        W58501  12.273  15.631   2.347 -0.1006  0.0355  0.1776
15511W        W58502  28.030  28.140  14.647 -0.0616 -0.1415 -0.3113
15512W        W58503  28.724  15.882  27.606 -0.2481  0.0946 -0.1628
15513W        W58504  32.467   4.257   6.959 -0.1927 -0.0786  0.0471
15514W        W58505   6.157  26.996  26.515  0.0549  0.0975 -0.0873
15515W        W58506  33.634  30.939   3.241  0.0863 -0.0940 -0.0569
15516W        W58507  10.479  22.924   9.899  0.0126 -0.0333 -0.1630
15517W        W58508  21.374  28.044  29.181  0.2356  0.0861 -0.0479
15518W        W58509   1.450  25.092   9.520  0.0310 -0.4063 -0.2056
15519W        W58510  10.386  10.847  20.180  0.0725  0.1386  0.1541
15520W        W58511  10.860   1.092   0.227 -0.1261  0.1759  0.1696
15521W        W58512  14.077  19.408  19.151  0.1789  0.1102  0.0316
15522W        W58513  28.592   2.544  20.441  0.1247 -0.0435 -0.0176
15523W        W58514  12.516  18.935  27.538 -0.0664  0.3204 -0.0785
15524W        W58515  23.534  22.233   9.021 -0.2016 -0.0434  0.4865
15525W        W58516  10.533  11.081  20.807 -0.0439  0.2893  0.1915
15526W        W58517  28.233  25.169  29.100 -0.1741 -0.0978 -0.3372
15527W        W58518  30.892  12.752   3.728  0.0486  0.2670 -0.1898
15528W        W58519  22.904  14.096  28.748  0.1486  0.0300 -0.1803
15529W        W58520   2.418   7.629   8.394 -0.4374  0.0104 -0.0390
15530W        W58521   4.139  32.473   6.813 -0.0338 -0.0155 -0.0285
15531W        W58522  33.121  11.441  27.992  0.3437  0.2690  0.1397
15532W        W58523  15.831   7.646   2.647 -0.0361  0.0669 -0.1651
15533W        W58524   8.679   5.501   7.557  0.2018  0.1879 -0.0323
15534W        W58525   6.702  20.051  16.768  0.0846  0.0644 -0.0217
15535W        W58526  18.311  27.694   0.388  0.2349 -0.0945  0.0046
15536W        W58527  33.446  27.463  20.351  0.1128 -0.0415 -0.0466
15537W        W58528  25.247   4.937   0.191 -0.1359  0.1262  0.3565
15538W        W58529  13.778   9.567  26.431 -0.0181  0.3778  0.1103
15539W        W58530  30.384  22.710  24.330 -0.0472  0.3745 -0.1322
15540W        W58531  11.015   8.314  10.101  0.1389 -0.2968  0.2553
15541W        W58532   6.403   5.379   7.334 -0.4091  0.2209 -0.0017
15542W        W58533  23.931  16.164  27.590 -0.0886 -0.0535 -0.0704
15543W        W58534   4.344  24.370  10.001 -0.0951 -0.0062 -0.3236
15544W        W58535  17.154  28.896  24.731 -0.2105  0.1071 -0.2818
15545W        W58536  25.200  31.251   3.459  0.1189 -0.2555 -0.0146
15546W        W58537  28.998  22.182   4.900  0.0374 -0.0723  0.0379
15547W        W58538  26.124  29.346   6.550  0.0217 -0.0257 -0.0067
15548W        W58539   2.073  31.324   8.576  0.1286  0.1505 -0.2959
15549W        W58540   4.935   0.970   6.267 -0.0025 -0.1548 -0.0699
15550W        W58541  21.271  25.205  23.036 -0.1202 -0.1641 -0.0546
15551W        W58542   1.347   3.495  14.843 -0.0174  0.4021  0.0277
15552W        W58543  28.618  19.386  24.323  0.0705  0.1322  0.0787
15553W        W58544   5.123  34.115  25.296  0.0773 -0.1145 -0.1757
15554W        W58545  27.857  31.057   1.562  0.0168  0.2057 -0.1359
15555W        W58546  34.106   0.590   7.518  0.1359 -0.4188  0.1653
15556W        W58547  31.313  31.869  27.683 -0.0001  0.0248  0.0880
15557W        W58548  33.245   2.694  27.233 -0.3681  0.1516 -0.0464
15558W        W58549  10.548  29.233  21.991  0.0250  0.0349 -0.0222
15559W        W58550   6.970   6.871  18.686  0.2626 -0.2023 -0.0652
15560W        W58551  20.104  31.290  28.080  0.2447  0.2233  0.1075
15561W        W58552   4.221  26.278  18.061  0.1827  0.1060 -0.2876
15562W        W58553  28.266  23.670  22.923 -0.2046  0.0219  0.1575
15563W        W58554  25.730  27.611  16.733  0.0131 -0.1505  0.3055
15564W        W58555  26.201  29.894  15.048  0.3371  0.2577 -0.1939
15565W        W58556  26.057   4.234  13.167  0.1733 -0.1791  0.0393
15566W        W58557   5.294  12.788   4.352 -0.0546 -0.0448 -0.0560
15567W        W58558  33.653   9.476  22.766 -0.0680  0.1256  0.0062
15568W        W58559  32.092  23.117  20.364  0.0613  0.3169  0.0363
15569W        W58560  12.219  29.217  20.345  0.3235  0.2767  0.1100
15570W        W58561  29.391  10.852  21.415  0.1923  0.5859 -0.2725
15571W        W58562  34.490  30.983  15.267  0.3983 -0.1017 -0.0924
15572W        W58563   3.679  25.917  26.218  0.1311 -0.2092 -0.0869
15573W        W58564  31.609   2.657  15.855  0.2683 -0.3977  0.0659
15574W        W58565   2.604  27.031   1.531 -0.2473 -0.1596 -0.0314
15575W        W58566   7.257  27.134  18.986  0.1370 -0.0013 -0.2322
15576W        W58567   0.333  34.280  15.626  0.1074  0.0650 -0.1846
15577W        W58568  33.438  31.672  15.958 -0.1905  0.0708  0.0210
15578W        W58569  18.029  21.812  20.176 -0.1855 -0.1404 -0.4001
15579W        W58570  11.012   0.839  21.479  0.0285 -0.4428  0.3867
15580W        W58571   1.901  32.439  21.009  0.1844 -0.2308 -0.3117
15581W        W58572  32.824   7.446  22.498  0.2714  0.3670  0.1656
15582W        W58573   2.669  14.161  16.451  0.0684 -0.0094 -0.1232
15583W        W58574  15.941  27.224  22.733 -0.0445 -0.2696 -0.0191
15584W        W58575  26.839  13.754  28.870 -0.1777  0.0492  0.1196
15585W        W58576   6.375  25.314  23.989 -0.1891  0.0646 -0.0052
15586W        W58577  18.534  29.863   6.834 -0.0666  0.0057 -0.0988
15587W        W58578  11.910  29.032  21.422 -0.0624  0.0470 -0.0407
15588W        W58579   3.099  17.547  28.625 -0.0171  0.3167  0.1654
15589W        W58580  30.988  15.693  26.045  0.0244  0.0477  0.2500
15590W        W58581   5.493   2.157  23.463 -0.0551  0.1878  0.0180
15591W        W58582  30.424  14.792  24.249  0.0238  0.0961  0.3098
15592W        W58583  19.739  20.142  27.616  0.4260 -0.3669  0.1447
15593W        W58584  11.363  19.283  20.314  0.2295  0.0240 -0.4591
15594W        W58585  29.629  34.699  22.384  0.0255 -0.0675  0.2172
15595W        W58586  26.362   9.460  20.959 -0.0314  0.0643 -0.0111
15596W        W58587  12.009  20.708  27.505  0.1249  0.0428  0.1882
15597W        W58588  33.770  31.272  13.745  0.0988  0.1434 -0.0115
15598W        W58589   5.981   8.220  25.011  0.2143  0.0419 -0.1679
15599W        W58590   1.610  15.812  24.411 -0.0121 -0.1311 -0.1915
15600W        W58591  25.081  30.913  19.892 -0.2323  0.1838  0.0909
15601W        W58592  25.206   3.614   3.263 -0.1606  0.0427 -0.1024
15602W        W58593  14.022   0.093  16.046  0.0449 -0.0326 -0.1153
15603W        W58594  15.666  17.583  15.574  0.0577 -0.1697 -0.0563
15604W        W58595  19.240  29.786  20.285  0.1057 -0.2441 -0.1018
15605W        W58596  33.317  26.524   7.054  0.0197  0.5284 -0.0041
15606W        W58597  31.947  30.019  22.866  0.1348  0.4014  0.0400
15607W        W58598  26.731  14.951  16.005 -0.0020  0.0612 -0.1697
15608W        W58599   7.071  30.038  18.304  0.0355 -0.0011  0.3432
15609W        W58600  34.333  31.890   0.050 -0.1048 -0.0076  0.0652
15610W        W58601  15.769  26.967  16.588 -0.5187  0.0136 -0.0655
15611W        W58602  11.664  23.465  15.583 -0.2770 -0.1095 -0.0642
15612W        W58603  24.149  32.087   2.078 -0.1417  0.1038 -0.0782
15613W        W58604   6.527  14.363   4.074  0.1000  0.0055  0.1959
15614W        W58605   4.786  16.349  17.950  0.1520  0.1962  0.0529
15615W        W58606  22.002  10.300  22.721 -0.0318  0.1207 -0.1223
15616W        W58607  19.314  30.732  21.690  0.1305  0.0485 -0.0522
15617W        W58608  17.864  26.956  17.055  0.1383  0.1556  0.0191
15618W        W58609  33.297   1.375  19.014 -0.1008 -0.1083 -0.1084
15619W        W58610  30.236   3.200  19.961 -0.1124  0.2437  0.2307
15620W        W58611  34.643  19.676  19.120  0.0239 -0.0098 -0.1197
15621W        W58612  32.739  27.892  17.417 -0.0954 -0.1572 -0.3570
15622W        W58613  31.641  24.555  13.697 -0.1113  0.1693 -0.0259
15623W        W58614  13.892   7.294  17.294  0.1364  0.0328 -0.1845
15624W        W58615   5.680  32.710  16.245 -0.0258 -0.1516  0.2419
15625W        W58616  27.412   8.590   3.777  0.0089  0.0346  0.0709
15626W        W58617  10.649   3.070  28.326 -0.1036 -0.2161 -0.0433
15627W        W58618  29.279  20.878  27.686  0.1670  0.0680  0.0283
15628W        W58619  32.208   0.150  17.900  0.1926 -0.0606 -0.1567
15629W        W58620  24.298  33.852  22.580 -0.1669 -0.3160  0.1097
15630W        W58621  22.339  23.035  17.478 -0.2647  0.3688 -0.2213
15631W        W58622   2.220  28.597  26.736 -0.1248  0.1191  0.4856
15632W        W58623  27.449  13.516  15.795 -0.1383  0.2161 -0.2008
15633W        W58624  17.567  19.897  16.663 -0.1153 -0.3362  0.1838
15634W        W58625  24.694   1.337  16.616 -0.2012 -0.0986  0.2596
15635W        W58626   4.982  28.427  17.104 -0.1270 -0.1714  0.0057
15636W        W58627  34.745  26.744  20.089  0.1403 -0.0042 -0.1686
15637W        W58628   0.082  27.784  15.357  0.1887  0.0183  0.0792
15638W        W58629  32.300  19.465  18.038 -0.0558 -0.3153  0.0551
15639W        W58630  31.673  18.784   4.212  0.3026  0.0825 -0.3182
15640W        W58631   2.965  27.232  25.893 -0.0007  0.0040 -0.2516
15641W        W58632   6.160  29.000  20.971 -0.0512 -0.1983 -0.2733
15642W        W58633  33.110  10.065  23.504 -0.2647 -0.1097 -0.1006
15643W        W58634   8.377   8.255   0.879 -0.2967 -0.1009  0.1154
15644W        W58635  26.643  15.068  23.731  0.1873  0.0744  0.0183
15645W        W58636   2.421  13.781  19.696  0.1077 -0.1605 -0.4709
15646W        W58637  33.029  24.131  16.994  0.0305 -0.1403  0.0087
15647W        W58638   1.648  15.060  23.937 -0.0337 -0.3333  0.1466
15648W        W58639  14.028  32.782   0.460  0.2282  0.4819  0.2315
15649W        W58640   8.860  19.022  17.936  0.2189 -0.1212 -0.1506
15650W        W58641  25.264   2.505  19.480 -0.1054  0.1732 -0.0660
15651W        W58642  29.612  14.945  14.967  0.0785 -0.0311  0.0674
15652W        W58643   0.844  19.836  25.297 -0.0977  0.0902 -0.2245
15653W        W58644  21.881  11.507  16.538  0.2035  0.1834  0.0395
15654W        W58645  26.374  33.819  20.247 -0.1296  0.0470 -0.0431
15655W        W58646  31.676  20.600  18.978 -0.2997 -0.1064 -0.2677
15656W        W58647  32.868   8.752  23.292  0.1808 -0.1314  0.1781
15657W        W58648  11.255  30.502  27.192  0.3745  0.0742  0.0125
15658W        W58649  14.465   2.058  24.947  0.0184 -0.2452  0.1895
15659W        W58650  19.608  20.918  15.338  0.3256  0.0349 -0.0189
15660W        W58651  29.854  26.163  19.481 -0.0205  0.0893  0.2183
15661W        W58652  24.971   2.134  24.412  0.0403  0.0248  0.2731
15662W        W58653  27.271  10.915  17.365 -0.2123 -0.1068 -0.0599
15663W        W58654  24.066  11.776  20.150  0.3154  0.5361 -0.0132
15664W        W58655  28.400  15.164  22.215 -0.4003  0.2063  0.0177
15665W        W58656  30.920  15.078  20.254 -0.1605 -0.7595  0.0036
15666W        W58657   4.113  23.266  24.517 -0.0556  0.0657  0.0075
15667W        W58658   7.838  24.550  28.401  0.0071 -0.0595  0.0372
15668W        W58659  10.783   6.080  14.957 -0.0836  0.4698 -0.1563
15669W        W58660  11.578  32.626  26.170  0.1000 -0.0801  0.1668
15670W        W58661   9.327  33.547  26.727 -0.0748 -0.0464 -0.0578
15671W        W58662   0.365  31.115  14.636  0.0551  0.1230  0.1990
15672W        W58663  31.446   2.253  16.574  0.2466  0.2231 -0.1485
15673W        W58664  26.395  11.243  16.381  0.1410 -0.0449 -0.0945
15674W        W58665  27.242  18.802  16.586 -0.3062  0.1796  0.1190
15675W        W58666   4.643   7.673  16.137  0.0390 -0.2593  0.1176
15676W        W58667   2.619  21.748  23.446 -0.2394 -0.5024 -0.0637
15677W        W58668  29.806  34.621  17.767  0.1050 -0.5593  0.0743
15678W        W58669  30.937   4.344  23.869 -0.0470 -0.0724 -0.0256
15679W        W58670   6.786  30.057  23.689 -0.3169 -0.2107 -0.1581
15680W        W58671  26.347  33.975  17.987  0.0088  0.0964  0.0164
15681W        W58672  30.245  25.542  22.308  0.3942  0.1292 -0.3609
15682W        W58673   7.962  11.961  25.929 -0.1907 -0.0783 -0.1555
15683W        W58674  16.767   5.262   2.595 -0.0970 -0.3344  0.0206
15684W        W58675  34.435   1.925  22.200 -0.1996  0.0085  0.3569
15685W        W58676   8.269  20.101   6.518 -0.1263 -0.1983  0.1513
15686W        W58677  22.389   0.570  20.899  0.0670 -0.4322  0.0299
15687W        W58678   2.759  29.110  19.086 -0.0671 -0.3834 -0.2112
15688W        W58679   9.137  34.544  15.083 -0.0460  0.0873  0.0053
15689W        W58680  24.407  23.768  21.898  0.0789 -0.3115 -0.2463
15690W        W58681   2.229  33.773  14.177  0.0864 -0.1795  0.4003
15691W        W58682   2.696  28.118  16.413 -0.1290  0.0974 -0.2629
15692W        W58683  34.299  34.338  15.898 -0.0556  0.3409  0.2644
15693W        W58684   4.576  30.721  23.741  0.2584  0.1216 -0.0745
15694W        W58685   0.218  23.195  17.108 -0.0274 -0.2201 -0.0224
15695W        W58686  33.388  25.133  20.976  0.0846 -0.1785  0.0161
15696W        W58687  11.601  17.855  26.060  0.0535 -0.2690 -0.1742
15697W        W58688  11.055  20.320  14.572  0.0139 -0.1355  0.3135
15698W        W58689  29.445  15.782  24.105  0.1484  0.0459 -0.2061
15699W        W58690   4.220  16.637  17.094 -0.1404  0.1354 -0.1914
15700W        W58691  28.467  22.952  15.280  0.0015 -0.1439  0.0377
15701W        W58692  31.391  25.055  14.256  0.0286  0.2558  0.1833
15702W        W58693  24.151  19.600  23.170 -0.1676  0.3032 -0.0938
15703W        W58694  27.298  24.528  20.765  0.3132 -0.0646  0.0546
15704W        W58695  10.898   1.852   7.697  0.0492  0.0093 -0.0848
15705W        W58696  31.354  14.114  23.416 -0.1173  0.3398 -0.2111
15706W        W58697   0.081  25.870  19.145  0.0680 -0.0306 -0.1941
15707W        W58698   0.339   9.770  17.350  0.3342  0.1269  0.0060
15708W        W58699  34.165   0.038  15.630 -0.0659 -0.2797  0.1542
15709W        W58700  27.199  29.314  17.349 -0.3393  0.0213 -0.0283
15710W        W58701  30.701   6.157  20.712  0.2007  0.2895  0.1789
15711W        W58702  16.176   5.402  17.212  0.0712  0.2298  0.1066
15712W        W58703  32.201   2.383  22.263  0.0353  0.1145  0.1509
15713W        W58704  26.851  24.937  19.238  0.3442 -0.2935 -0.1472
15714W        W58705  12.871  30.916  14.218  0.0228  0.1299  0.0224
15715W        W58706  12.995  16.366  21.960  0.1096 -0.0589  0.0202
15716W        W58707   0.644  17.964  15.239 -0.1213  0.0079 -0.0789
15717W        W58708  33.319  31.404   3.007  0.1592  0.2305  0.1157
15718W        W58709  26.853  28.255  15.512 -0.2295 -0.1460 -0.1487
15719W        W58710   0.180  32.547  25.598 -0.1275 -0.1187 -0.2335
15720W        W58711  31.617   2.965  19.381  0.0825  0.3646  0.0726
15721W        W58712  20.141  30.313  12.795  0.0352 -0.1025 -0.3069
15722W        W58713  22.465  20.769  18.582 -0.0066  0.1484 -0.0197
15723W        W58714  12.672  23.407  19.106  0.2024 -0.1268 -0.1557
15724W        W58715  28.496   6.706   2.731  0.0793 -0.0394 -0.0640
15725W        W58716  24.715   3.784  28.216 -0.1941 -0.2272 -0.3153
15726W        W58717   6.274   2.266  22.893 -0.0239 -0.3043 -0.1593
15727W        W58718   3.956  21.282  18.660 -0.1601  0.0921 -0.0152
15728W        W58719   1.806  26.759  16.799  0.1801  0.1339  0.4547
15729W        W58720  21.598   7.680   1.027  0.0736 -0.0741  0.2883
15730W        W58721   0.486  16.785  16.502  0.0050 -0.1571 -0.0121
15731W        W58722   9.290  19.318   3.518 -0.1802  0.2598 -0.3495
15732W        W58723  15.415   8.295  27.552 -0.1558 -0.1041 -0.2524
15733W        W58724  33.545  29.925   2.203  0.6333 -0.2712 -0.1642
15734W        W58725  30.538  27.482  20.620  0.1813 -0.5564  0.2189
15735W        W58726  27.321  32.976  16.525  0.1532  0.0733 -0.0479
15736W        W58727  14.658  33.973  22.320  0.1714 -0.2717  0.2677
15737W        W58728  10.107   6.517  18.512  0.0540  0.0828  0.0358
15738W        W58729  30.984  26.305  24.094 -0.0838  0.2205 -0.0212
15739W        W58730  10.819   3.048  23.244 -0.1389  0.1861  0.0398
15740W        W58731   3.819  33.685  15.599 -0.1180 -0.0133  0.0606
15741W        W58732  33.958  32.811  13.327  0.1568 -0.0438  0.2214
15742W        W58733  34.025  28.661  13.675 -0.1391  0.0241  0.1163
15743W        W58734  33.136  28.067  18.990 -0.1347  0.2421 -0.0426
15744W        W58735   1.582  31.945  20.940  0.1180 -0.0472 -0.1362
15745W        W58736   8.577  28.957  22.910 -0.1100 -0.1098  0.2082
15746W        W58737  26.509  29.160  15.255 -0.1222 -0.0494  0.1721
15747W        W58738  33.636  31.830  18.229 -0.0936 -0.1371 -0.1815
15748W        W58739  22.945  19.907  27.430  0.3172 -0.3441  0.0781
15749W        W58740  28.866  13.524  17.783 -0.2914 -0.0462 -0.1374
15750W        W58741   4.431  34.383  15.303 -0.0091 -0.2245 -0.0309
15751W        W58742  12.309   1.084  27.152  0.2341 -0.1716 -0.3283
15752W        W58743  19.745  33.377  19.806 -0.3590 -0.0208  0.0725
15753W        W58744  26.286  26.417  16.019  0.0764  0.0934  0.2267
15754W        W58745   7.387  25.778  26.267 -0.0330 -0.3331 -0.1836
15755W        W58746  32.632  29.938  16.146  0.0986  0.2787  0.1366
15756W        W58747  15.805  31.146  16.541  0.0548 -0.2568  0.1800
15757W        W58748  27.140  28.239  13.581 -0.1065  0.4873 -0.1568
15758W        W58749  31.969   3.264  28.894 -0.3604 -0.0115  0.4149
15759W        W58750  20.811  31.352  14.084  0.2216 -0.2448 -0.0222
15760W        W58751   3.958  23.070  15.298  0.1617 -0.2882 -0.3389
15761W        W58752  34.720  29.729  25.125  0.2596  0.3032  0.1169
15762W        W58753  31.699  30.414  16.387 -0.0381 -0.2036  0.0658
15763W        W58754   0.525   0.773  24.023 -0.3920  0.0215 -0.3290
15764W        W58755  16.355  15.158  12.110  0.2392 -0.2396  0.0234
15765W        W58756   5.645  30.127  28.258 -0.3264  0.2721 -0.0021
15766W        W58757   3.886  20.843  19.523 -0.2449 -0.1158  0.3204
15767W        W58758  19.418   0.434   8.805 -0.1874 -0.1628  0.0914
15768W        W58759  19.304  32.697  14.312 -0.2539  0.2395  0.2670
15769W        W58760  28.167  27.049  18.265  0.3374  0.2603  0.0846
15770W        W58761  25.288  30.761  22.003  0.1174  0.2912  0.0028
15771W        W58762  29.591  23.038   0.114 -0.3482  0.1020  0.1507
15772W        W58763  25.115  30.006  17.772 -0.5813  0.3255 -0.0431
15773W        W58764  10.178   0.842   2.710  0.0195 -0.2050 -0.0681
15774W        W58765  29.773  19.034  24.403 -0.0465  0.0563  0.0537
15775W        W58766   2.613  23.975  18.052  0.0114 -0.1567 -0.2256
15776W        W58767   6.823  11.691  28.556 -0.0223  0.0340  0.2188
15777W        W58768  30.330  21.747  21.269 -0.3343  0.0665 -0.0618
15778W        W58769  22.059   3.011  21.459 -0.1330  0.1157  0.1224
15779W        W58770  32.030   0.119  13.958 -0.0550 -0.0094 -0.2183
15780W        W58771  28.414   2.726  18.566 -0.1887 -0.0403 -0.2024
15781W        W58772  25.746   7.278   0.161 -0.1759 -0.3500 -0.2376
15782W        W58773   2.277  31.653  14.242 -0.1138  0.2555  0.3029
15783W        W58774   1.748  24.385  15.391 -0.2714  0.0733 -0.0698
15784W        W58775   9.011   9.607  22.473  0.2178  0.4701 -0.1203
15785W        W58776   3.080  33.749   2.327 -0.0332  0.1871 -0.0275
15786W        W58777  24.816  14.964   0.865  0.0096 -0.1773 -0.2807
15787W        W58778   2.007  34.787  22.640 -0.0656  0.0239  0.2695
15788W        W58779  29.064   1.755  23.570  0.2110  0.0637  0.0899
15789W        W58780  29.906  25.523  23.632  0.3135  0.0007 -0.2775
15790W        W58781  26.208  32.107   0.761  0.1642  0.0054  0.1585
15791W        W58782   2.955  22.994  15.891 -0.5115 -0.0616  0.0572
15792W        W58783   7.069  15.598  17.025 -0.1016 -0.0603  0.1451
15793W        W58784  30.994  29.646  17.165  0.1920 -0.1929  0.0671
15794W        W58785  30.359  27.252  18.055 -0.0885  0.0233 -0.0554
15795W        W58786  23.774  27.408  20.768  0.0738 -0.1320  0.4851
15796W        W58787  34.786  24.647  19.718 -0.0855 -0.1231 -0.0557
15797W        W58788  31.004   5.883   0.887 -0.3518  0.0709 -0.1229
15798W        W58789  28.987  28.596  15.894 -0.0744 -0.1245 -0.2112
15799W        W58790  30.571  30.349  21.062 -0.3280  0.0900  0.2360
15800W        W58791  28.132   4.673  28.785  0.0476 -0.0143 -0.0812
15801W        W58792  19.411  24.271  22.731  0.0723 -0.1533 -0.1869
15802W        W58793  12.463  27.866  20.839  0.3923  0.1878  0.2303
15803W        W58794   4.282  24.420  14.677  0.2378 -0.0438  0.2241
15804W        W58795   5.810   7.362  22.567  0.1635 -0.0790  0.0106
15805W        W58796   9.778  20.219  22.042  0.1631  0.0050  0.2392
15806W        W58797  31.617   9.882  15.558  0.0918  0.3328 -0.1538
15807W        W58798  30.331  32.891  21.534  0.2249  0.0057 -0.1340
15808W        W58799  26.919  24.742  19.768  0.2215 -0.3292  0.2453
15809W        W58800  17.348  25.221  15.163 -0.1228  0.0838  0.0205
15810W        W58801  30.163   0.393  14.309  0.0021 -0.3013  0.2448
15811W        W58802   1.398  28.376   6.606  0.1768  0.0200 -0.0779
15812W        W58803   4.287  23.450  10.113  0.0895 -0.0082  0.2921
15813W        W58804  16.017  25.587  16.820 -0.2777 -0.2122 -0.1543
15814W        W58805   8.310  21.479  27.496  0.1964  0.0459  0.1593
15815W        W58806   6.452  33.642  24.473  0.0810 -0.1664  0.0861
15816W        W58807  20.825  26.420  17.151 -0.0031 -0.1005  0.2324
15817W        W58808   3.865  25.157   4.412  0.0137  0.1318  0.3455
15818W        W58809   6.954  33.855  15.397 -0.1424  0.0798  0.2158
15819W        W58810   9.485  31.771  14.673 -0.0638 -0.1801  0.3789
15820W        W58811  10.965  26.753  19.217  0.1031 -0.0797 -0.1433
15821W        W58812  13.612  10.084  19.344  0.4285 -0.1735 -0.0134
15822W        W58813  20.454   3.065   0.551  0.3082  0.0595 -0.1370
15823W        W58814   7.416  18.816  20.696 -0.1963 -0.2454  0.0333
15824W        W58815  22.496  33.238   0.946 -0.1510 -0.1119 -0.0830
15825W        W58816   2.881  21.450   5.402 -0.1315  0.1936 -0.3117
15826W        W58817   7.635  19.736  18.704  0.2111 -0.1212 -0.4212
15827W        W58818  34.683  26.097  15.090 -0.2669  0.4922  0.0088
15828W        W58819   2.448  19.071  26.722 -0.0481  0.0992 -0.2532
15829W        W58820   3.684  26.451  27.648 -0.0673  0.0638  0.1225
15830W        W58821  33.501  33.648   8.625  0.0082 -0.1135 -0.1412
15831W        W58822  27.428   5.626  14.013 -0.1871 -0.0937 -0.0067
15832W        W58823   4.581  34.486  18.712 -0.1990  0.2217  0.1156
15833W        W58824   9.682  29.513  18.008 -0.3477 -0.0782  0.1081
15834W        W58825  13.162  26.811  17.102  0.1547 -0.0384  0.1568
15835W        W58826  27.455  24.145  22.056  0.1836 -0.1155 -0.3685
15836W        W58827   4.059  34.373  28.574 -0.1834  0.1677 -0.1792
15837W        W58828  13.469  18.982  16.136  0.1092  0.0694 -0.0220
15838W        W58829   0.332  31.085  26.510  0.1019 -0.0881 -0.2207
15839W        W58830  32.529  20.463  28.291 -0.2277  0.0626  0.0451
15840W        W58831   1.298   1.103  19.593  0.1787 -0.0281 -0.0183
15841W        W58832   1.634  33.871  15.898  0.2069 -0.0835  0.1023
15842W        W58833   3.630  32.032  20.358 -0.0604 -0.1429  0.1737
15843W        W58834  25.239  25.292  25.837 -0.1742  0.2614 -0.1117
15844W        W58835   6.824  24.638  23.449  0.2117  0.0184  0.3185
15845W        W58836  14.334  31.935  20.938 -0.0414 -0.0784 -0.0037
15846W        W58837  26.578  23.550  16.880  0.0305  0.4066 -0.0634
15847W        W58838   6.069   0.969  16.811 -0.0544 -0.1654 -0.2266
15848W        W58839  30.417  19.846  15.265 -0.4314  0.1662 -0.0612
15849W        W58840  21.846   3.494  17.958 -0.2654  0.0414 -0.1418
15850W        W58841   0.022  32.222  18.529 -0.1964 -0.1320  0.1470
15851W        W58842  11.283  25.470  27.370  0.1958  0.2630  0.2270
15852W        W58843  32.578  29.110  27.153 -0.0977  0.2209  0.0508
15853W        W58844   3.959  24.916  16.938 -0.0481  0.0477  0.0483
15854W        W58845  25.950  30.882   0.048  0.1849  0.0531  0.1304
15855W        W58846  26.336  24.413  17.929 -0.0712 -0.0808  0.1263
15856W        W58847   1.049  25.577   5.347 -0.0357  0.0372  0.0123
15857W        W58848   8.984  26.678   2.199  0.0547  0.2090 -0.1351
15858W        W58849   2.097  34.237  10.586  0.1721  0.1510 -0.0959
15859W        W58850   0.490  32.127  13.721 -0.1708 -0.1462  0.4639
15860W        W58851  34.612  12.716   0.508  0.2579  0.0644  0.3409
15861W        W58852  28.553   7.602  15.424  0.0254 -0.3245 -0.1128
15862W        W58853   3.120  27.201  17.845  0.2056 -0.0956 -0.1017
15863W        W58854   9.446  28.847  25.151 -0.0380 -0.1185  0.0096
15864W        W58855   2.347  15.479  24.072 -0.1313 -0.2338  0.0702
15865W        W58856  32.033  16.072  19.697  0.0050  0.0209  0.1185
15866W        W58857  26.620  23.158  18.271 -0.3367  0.0709  0.4675
15867W        W58858   3.008  25.827  18.289 -0.2606 -0.1761  0.1472
15868W        W58859  34.123   1.823  19.848  0.2584  0.1572 -0.0192
15869W        W58860  31.141  16.236  24.717  0.1347  0.1057 -0.1781
15870W        W58861  31.371   2.114  18.869 -0.1958  0.2480 -0.0298
15871W        W58862   9.747  14.942  18.073 -0.2930  0.0294  0.0824
15872W        W58863   0.854  32.685   4.746 -0.0052 -0.1962  0.0737
15873W        W58864  31.956  33.285  26.198  0.2772 -0.0821 -0.0337
15874W        W58865  19.289  27.312  16.602  0.4758  0.0454 -0.1322
15875W        W58866   3.207  23.905  16.766  0.1381 -0.2196 -0.1652
15876W        W58867   5.053  18.606  21.619 -0.0693 -0.2775  0.1648
15877W        W58868  11.245  20.559   3.623  0.2901 -0.2520 -0.0190
15878W        W58869  16.998   0.748   1.911  0.4357 -0.0590  0.0063
15879W        W58870   1.346  23.376  16.995  0.0543 -0.1819  0.0013
15880W        W58871   9.678  14.811  20.350 -0.1003 -0.2310  0.1208
15881W        W58872   0.677  26.701  18.007 -0.1594 -0.1000 -0.1689
15882W        W58873  30.781  24.472  18.422 -0.1829  0.0682  0.1351
15883W        W58874   5.581  19.948  20.009  0.1855  0.0775 -0.1090
15884W        W58875   0.125   7.182  25.128  0.0674 -0.0073  0.0560
15885W        W58876  10.197  13.339  20.289 -0.2077  0.3256 -0.0902
15886W        W58877  25.259  16.044  15.869 -0.0605 -0.0592  0.2557
15887W        W58878   1.942   3.139  25.603 -0.1686  0.0411 -0.2447
15888W        W58879   8.460  12.206  16.272  0.0513 -0.1142  0.5101
15889W        W58880   5.539   1.898  18.709  0.4219 -0.2041  0.2224
15890W        W58881   1.088  22.841  25.507 -0.0045  0.1952  0.1887
15891W        W58882  26.622  18.667  15.864  0.0631 -0.0254  0.0423
15892W        W58883   6.861   7.265  15.599 -0.1349 -0.0588 -0.1217
15893W        W58884  32.675   0.917  28.654  0.2468  0.0603 -0.1919
15894W        W58885   6.823   6.662  26.276 -0.1670 -0.3804 -0.0993
15895W        W58886   2.918  26.612  22.718  0.0177  0.0927  0.1489
15896W        W58887  29.876  29.560  25.615 -0.0799 -0.0569  0.1419
15897W        W58888   5.762   0.682  15.190 -0.2151  0.0745 -0.0667
15898W        W58889  24.476  30.012  20.033  0.0686 -0.3227  0.1849
15899W        W58890   3.815  11.230  16.744  0.0069  0.1332 -0.2008
15900W        W58891   8.116  22.944  21.243 -0.0454  0.1569  0.1353
15901W        W58892   5.777  20.549  18.737  0.1474 -0.1372 -0.1092
15902W        W58893   4.146  33.917  14.660 -0.1529  0.3133  0.0020
15903W        W58894   4.222  26.820  14.090 -0.2048  0.0947 -0.2891
15904W        W58895  21.785  30.243  21.037  0.1483 -0.0587 -0.0288
15905W        W58896   2.336  19.243  20.584  0.2593 -0.2217 -0.3737
15906W        W58897  17.456  24.383  21.791  0.0685  0.1293  0.0375
15907W        W58898  34.744   9.441  25.103  0.1556  0.1157 -0.1857
15908W        W58899  26.703  18.851  14.509 -0.3803  0.2167  0.0851
15909W        W58900   5.751  29.318  18.487 -0.2676  0.2723 -0.0343
15910W        W58901  30.822  24.135  22.639  0.3514 -0.3031  0.3104
15911W        W58902  32.308  18.158  18.793  0.1093 -0.2225  0.2911
15912W        W58903   5.370  25.266  27.460 -0.1940  0.4688 -0.0651
15913W        W58904  26.455  25.102  18.859 -0.1194  0.0445  0.1528
15914W        W58905   7.777  26.256  14.788  0.3457  0.1329 -0.0199
15915W        W58906  24.499   6.891  17.086  0.4396  0.0564 -0.0251
15916W        W58907  23.772  34.198  19.744 -0.1222  0.3493 -0.0127
15917W        W58908   6.670  28.316  17.952 -0.2497 -0.3976  0.1751
15918W        W58909  33.697   0.262  14.667  0.2715  0.2250  0.1317
15919W        W58910  26.799  23.791  23.668  0.3616 -0.0984 -0.1082
15920W        W58911   5.994  32.094  19.229 -0.1668 -0.3208  0.1720
15921W        W58912  31.923  33.211   1.482  0.2202 -0.2340 -0.1478
15922W        W58913   0.022  29.196  18.375  0.2929 -0.1321 -0.0110
15923W        W58914  16.578  21.877  23.135 -0.1738  0.3366  0.0353
15924W        W58915  33.421  33.532  15.307 -0.4038  0.0153  0.1061
15925W        W58916  34.334  25.724  23.390  0.5279 -0.0341 -0.2559
15926W        W58917  29.241  29.961  14.416  0.0016 -0.0231 -0.0467
15927W        W58918   5.938  15.903  16.222  0.2376 -0.0009 -0.0898
15928W        W58919  29.458  26.968  15.469  0.1373  0.0210 -0.1472
15929W        W58920  30.739  29.116  21.090 -0.1164  0.2748  0.2724
15930W        W58921  34.643  31.285  27.894 -0.0528 -0.0065 -0.3807
15931W        W58922  12.209  29.982  19.635  0.1511  0.1458  0.1207
15932W        W58923   9.139  29.306  19.420  0.3599  0.2152 -0.0402
15933W        W58924  32.852  31.725  15.244  0.1237 -0.1358  0.1362
15934W        W58925   2.370   3.719  10.801  0.0174 -0.2184  0.1249
15935W        W58926  24.768  27.457  15.336 -0.2838  0.1128  0.1655
15936W        W58927  33.404  13.009  21.319  0.1188  0.1466  0.2862
15937W        W58928  33.410  22.808   2.160  0.0871  0.1127 -0.0975
15938W        W58929  10.895  30.353  27.850 -0.1112  0.2766  0.1973
15939W        W58930  17.728   1.214  22.365  0.3279 -0.1980  0.0370
15940W        W58931  16.058   0.736  20.746  0.0728 -0.0517  0.1570
15941W        W58932   3.801  27.364  22.078  0.3609 -0.1957  0.0653
15942W        W58933   4.407  30.040  15.414 -0.1114  0.0252 -0.0394
15943W        W58934   0.444  21.671  15.666  0.0302 -0.3294 -0.0173
15944W        W58935   2.563  34.677  19.310 -0.0236 -0.2405 -0.3192
15945W        W58936  30.798  21.117  16.954  0.1573 -0.1235  0.0468
15946W        W58937  28.759  18.343  17.055  0.0455  0.0118 -0.3588
15947W        W58938   0.263  18.836  28.565  0.0773  0.1703 -0.1905
15948W        W58939   6.846   4.480  16.465 -0.1072 -0.2407 -0.0040
15949W        W58940   4.401  19.464  25.663  0.1604 -0.2404 -0.1406
15950W        W58941  13.933  33.922   2.111  0.0778  0.1988  0.0396
15951W        W58942  20.173  22.342  15.873  0.1546 -0.0454 -0.2842
15952W        W58943  32.448  12.703  18.947  0.2224 -0.0369 -0.2208
15953W        W58944  24.863   2.183  12.560  0.1520 -0.0675 -0.0279
15954W        W58945  30.992   8.509  22.528 -0.0681 -0.0888 -0.0736
15955W        W58946  14.438  26.045   1.153  0.1013 -0.1844  0.0150
15956W        W58947   8.784  29.558  19.734 -0.2115  0.0244  0.1510
15957W        W58948  14.002  22.507  29.173 -0.0408  0.0460  0.1183
15958W        W58949  33.505   2.794   0.158  0.0536  0.2349  0.0638
15959W        W58950  19.987  23.828  19.909 -0.0172  0.0066 -0.0559
15960W        W58951  30.722  15.832   0.684  0.0858  0.0930 -0.1624
15961W        W58952  32.726  32.456  13.094 -0.2740  0.3744  0.0425
15962W        W58953   7.625  14.318  21.104  0.0538  0.0553 -0.2749
15963W        W58954  10.300  14.623  15.774  0.1048 -0.0273 -0.2394
15964W        W58955   6.858  30.929   0.167  0.4112 -0.2019 -0.0093
15965W        W58956  28.132  33.390  17.722  0.2318 -0.1981 -0.1545
15966W        W58957   1.141  23.464  19.146  0.1622 -0.0548  0.0143
15967W        W58958  17.747  14.351   1.473 -0.1751  0.1654  0.2233
15968W        W58959   1.788  32.377  21.756 -0.1635 -0.2329 -0.0266
15969W        W58960  12.693  23.189  25.944  0.1460 -0.2744  0.2096
15970W        W58961   6.665  31.707  20.275 -0.0219  0.1352  0.2246
15971W        W58962  28.158  14.006  16.396 -0.0337 -0.2755 -0.0519
15972W        W58963   7.367   2.983  18.599  0.5002 -0.2837  0.1948
15973W        W58964   8.392  23.855  24.017  0.0127 -0.0671 -0.0159
15974W        W58965  20.386  32.782  14.776  0.2924  0.0421 -0.1634
15975W        W58966  34.298  28.688   4.378 -0.0341 -0.3368 -0.1777
15976W        W58967   5.142  16.768  19.745 -0.1957 -0.1093 -0.0308
15977W        W58968   0.712  34.384   1.568 -0.1558 -0.1830  0.0013
15978W        W58969  34.075  25.947  24.375 -0.1084  0.1029  0.0053
15979W        W58970  32.042  22.554   4.270 -0.0811  0.0427 -0.1689
15980W        W58971   0.797  31.329  15.370  0.2280  0.0625  0.3299
15981W        W58972  31.449  34.254  13.612 -0.1537  0.2474 -0.0824
15982W        W58973   0.534  23.560  15.344  0.2191  0.0073 -0.0271
15983W        W58974  31.865  31.241  24.521 -0.0301 -0.1552  0.0051
15984W        W58975  15.267   1.465  21.558 -0.2688 -0.0733 -0.0079
15985W        W58976   1.898   2.028  17.120  0.0967 -0.0454  0.0473
15986W        W58977  31.666  22.125  20.990  0.0348  0.2697 -0.3242
15987W        W58978   7.625  33.672  14.273  0.3085 -0.3570  0.0083
15988W        W58979  25.750  33.183  25.079  0.1674 -0.2207 -0.0763
15989W        W58980  28.100  31.488  28.204  0.0053 -0.0140 -0.1893
15990W        W58981  33.528  29.702  14.687 -0.1257 -0.0835 -0.2809
15991W        W58982  30.436  14.227  24.956 -0.1993 -0.2697  0.0461
15992W        W58983  10.048   6.274  26.234  0.2368  0.2559 -0.1909
15993W        W58984   3.700  29.654  17.584  0.0171  0.1082  0.2480
15994W        W58985  33.934  34.500  20.349  0.0042 -0.0131  0.1539
15995W        W58986  11.812  23.066  21.704 -0.0191 -0.0251  0.0584
15996W        W58987   1.383  27.023  16.527  0.0342 -0.0454  0.0243
15997W        W58988  24.245  34.006  28.541 -0.1310 -0.1575 -0.1827
15998W        W58989  33.831  25.992  20.569 -0.1548 -0.3119 -0.0037
15999W        W58990  32.379  27.114  16.084  0.3333 -0.1713  0.3576
16000W        W58991  15.656   8.897   3.099 -0.0549 -0.2330 -0.3188
16001W        W58992   9.085  34.543  20.902  0.1705 -0.4039  0.0605
16002W        W58993  28.870  20.554  18.703 -0.0665 -0.0282 -0.0796
16003W        W58994  34.063  34.318  22.316  0.0005 -0.3679 -0.0188
16004W        W58995  29.540  32.036   5.601  0.2141  0.2089 -0.1667
16005W        W58996  25.123  18.512  23.177 -0.3625 -0.0718 -0.0783
16006W        W58997   6.068  28.793  20.001  0.1749  0.1891  0.0519
16007W        W58998   9.707  30.735   2.516 -0.1252 -0.5245  0.0558
16008W        W58999   8.067   4.511  21.065 -0.0577 -0.1547 -0.1222
16009W        W59000  27.856  11.197  18.949  0.0876 -0.2017  0.3750
16010W        W59001  23.935   4.577  19.684  0.0306 -0.0117  0.3409
16011W        W59002  16.512  25.111  19.303 -0.2949  0.1406  0.0296
16012W        W59003   3.197  28.394  16.146  0.0702 -0.0456  0.0806
16013W        W59004  33.165  16.663  16.657  0.0624  0.2176  0.0474
16014W        W59005  31.098  22.341  19.280  0.3009  0.0081  0.1162
16015W        W59006   3.460  33.188  14.513 -0.2250  0.0918  0.0920
16016W        W59007   0.362  11.198  26.376  0.0724 -0.0749 -0.0868
16017W        W59008  33.548  22.346  15.896 -0.2387  0.4023 -0.0684
16018W        W59009  12.166  22.295  20.156 -0.0216  0.1165  0.2633
16019W        W59010   4.224  30.747  13.795  0.0241  0.0913 -0.1920
16020W        W59011  31.372  29.802  13.750  0.4478  0.1864  0.0984
16021W        W59012   6.497  10.854  29.093  0.1345  0.0950  0.1154
16022W        W59013  33.171   7.544  13.972  0.2806 -0.0127 -0.1780
16023W        W59014  27.868  32.163  12.395 -0.3110 -0.2618 -0.0633
16024W        W59015   1.335  22.641  20.675  0.0217 -0.1836 -0.0902
16025W        W59016   0.863  33.236  14.425 -0.0706 -0.3382  0.2949
16026W        W59017  22.187  11.296  18.238 -0.2123  0.0873 -0.1179
16027W        W59018  33.711  30.916  24.556  0.0619 -0.2031 -0.0559
16028W        W59019  14.743  16.282  13.487 -0.4454  0.2493 -0.4648
16029W        W59020   4.249  30.409   0.653 -0.0591  0.3364 -0.0092
16030W        W59021   5.636  24.517  18.417 -0.0402 -0.0049  0.2092
16031W        W59022   0.595  34.648  28.179  0.2595  0.0579  0.0779
16032W        W59023   0.625  34.752  22.481  0.0190 -0.0596  0.1769
16033W        W59024  12.515  25.743  16.566 -0.3755 -0.0922  0.0917
16034W        W59025  15.983  19.419   1.441 -0.3244  0.0796 -0.2920
16035W        W59026  27.960   4.414  14.946  0.2156 -0.2036 -0.2719
16036W        W59027  31.045  13.929  23.852  0.1792  0.0160  0.0114
16037W        W59028  15.921  32.045   8.927 -0.0805  0.2140 -0.1135
16038W        W59029  11.694  20.050  27.927 -0.0283 -0.3709 -0.0791
16039W        W59030  13.871   1.075  16.360  0.1328 -0.0048 -0.3143
16040W        W59031  10.172  25.977  20.446 -0.3720  0.0394 -0.1787
16041W        W59032  19.674   7.654  17.523  0.0530 -0.1052  0.1031
16042W        W59033  30.279   8.875   9.307 -0.2318  0.2062 -0.0358
16043W        W59034   7.180  13.606  29.198 -0.0009 -0.1186  0.4331
16044W        W59035  27.806  27.224   0.194 -0.1959  0.1927 -0.1808
16045W        W59036   7.393  24.148   4.399 -0.1421  0.1400 -0.1271
16046W        W59037  30.764  32.989  25.436 -0.2491 -0.1864 -0.0162
16047W        W59038  29.581  15.890   0.932 -0.0595  0.0600 -0.1002
16048W        W59039   3.438  32.557  20.483  0.0375  0.2324 -0.2613
16049W        W59040  34.695  34.282   1.148  0.0017 -0.2060 -0.0956
16050W        W59041   4.483  33.547   8.011  0.1974  0.1667  0.1010
16051W        W59042  32.807  22.369   0.587  0.2007 -0.2551  0.1336
16052W        W59043   4.774  26.924  18.435 -0.0158 -0.1215 -0.2108
16053W        W59044  31.712   0.292  17.566 -0.1424 -0.2401 -0.0165
16054W        W59045  18.047  21.782  27.222  0.1473  0.0687 -0.0364
16055W        W59046   4.740  24.681  16.216  0.0545  0.0498 -0.3508
16056W        W59047  29.671   3.629   4.734  0.0071 -0.0131 -0.1894
16057W        W59048   3.252   8.084  16.346 -0.0246 -0.1531  0.0353
16058W        W59049  25.745  29.822   1.239 -0.2040  0.0288 -0.0360
16059W        W59050   8.221  26.300  20.480  0.1110  0.1908 -0.1044
16060W        W59051   1.868  24.141  23.171  0.0363  0.1245  0.1318
16061W        W59052  30.709  31.278  22.964 -0.1060  0.0004 -0.2771
16062W        W59053   2.329  33.055  28.564  0.0593 -0.0917 -0.0186
16063W        W59054  26.911  16.948   0.400 -0.1083  0.2055  0.1152
16064W        W59055  30.946  24.600  17.100  0.2029  0.0834  0.3796
16065W        W59056   4.022  28.416  24.269 -0.1443  0.1378  0.0986
16066W        W59057   4.487   9.878  25.415 -0.5299  0.1258 -0.0055
16067W        W59058  20.632  27.928  18.651 -0.2524 -0.2668 -0.0238
16068W        W59059  13.135   7.075  21.818  0.0478  0.0026 -0.2737
16069W        W59060   7.261  19.610  29.118  0.3142  0.2951  0.0578
16070W        W59061   0.263  19.551   0.514 -0.3396  0.3004 -0.2066
16071W        W59062   2.263  34.231  23.041 -0.1599 -0.1315 -0.1227
16072W        W59063  17.578  10.164  19.825 -0.2604 -0.0408  0.2388
16073W        W59064  32.443   0.222  13.669 -0.0706  0.0536  0.1249
16074W        W59065   5.232  20.287  21.973  0.0491 -0.3092 -0.2782
16075W        W59066   8.072  12.353  20.033  0.2221 -0.1638 -0.1099
16076W        W59067  24.861  29.561  20.068  0.3057 -0.0778  0.3058
16077W        W59068   6.819  21.300  24.190 -0.2791 -0.1878 -0.3968
16078W        W59069  19.177  26.779   7.731 -0.0303  0.2193 -0.0223
16079W        W59070   6.304  12.664  23.289  0.0049  0.2081  0.3241
16080W        W59071   0.077   6.244  17.005  0.1330 -0.0411 -0.0019
16081W        W59072  22.873  30.142  27.227  0.0262 -0.0969  0.0341
16082W        W59073   5.504  30.798   6.624  0.0449  0.2031 -0.3527
16083W        W59074  15.009  32.413  20.347  0.1880  0.1986  0.2281
16084W        W59075  16.848  25.846  13.810 -0.0644 -0.2339  0.0027
16085W        W59076  13.601  34.310  20.183  0.1806 -0.0110 -0.1951
16086W        W59077  17.628  10.330   0.310  0.2532  0.1521  0.0346
16087W        W59078   5.102   6.357  20.178  0.1690 -0.1529  0.2844
16088W        W59079  32.646  24.780  17.900 -0.0877 -0.3368  0.0123
16089W        W59080  25.479  31.038  27.907  0.0461 -0.3517 -0.0339
16090W        W59081  29.521  26.242  27.768 -0.0182 -0.2743  0.1512
16091W        W59082  31.326  24.308  15.462  0.1467  0.0526 -0.0704
16092W        W59083   2.371  21.972  17.901  0.0527  0.1534  0.0763
16093W        W59084   7.666   4.431  25.096 -0.0409  0.1625 -0.1448
16094W        W59085  11.917  30.818  20.503 -0.0537  0.0136 -0.2572
16095W        W59086   7.731  29.903  20.571  0.0216  0.0138  0.2649
16096W        W59087  17.138  33.988  25.833 -0.0293 -0.2495 -0.2326
16097W        W59088  26.952   8.454   4.629 -0.1614  0.1255 -0.2415
16098W        W59089  32.452  32.343  23.719 -0.0835  0.0087  0.0623
16099W        W59090  29.470   8.709  14.582 -0.0444  0.0447  0.2697
16100W        W59091  32.359  24.464   6.532 -0.0349  0.1881  0.1070
16101W        W59092  28.391  26.383  27.177  0.0667 -0.1292 -0.0949
16102W        W59093  23.579  24.219  19.620 -0.3392  0.0021 -0.0252
16103W        W59094  32.617  32.515  20.086  0.2693  0.2948 -0.0674
16104W        W59095   3.836  33.294  23.196  0.0849  0.1019 -0.0987
16105W        W59096  28.004   0.354  18.789  0.0705  0.0999 -0.0906
16106W        W59097   1.255   5.852  26.848 -0.1254  0.1084 -0.1087
16107W        W59098   0.990  20.403   2.280  0.1683  0.1244  0.1018
16108W        W59099  14.947  32.159  14.586  0.1443 -0.3304  0.0199
16109W        W59100  11.101   7.612  24.276 -0.0941 -0.1201  0.2626
16110W        W59101   7.971  29.082  14.366  0.3009 -0.1589 -0.0984
16111W        W59102  32.024  25.810  27.081  0.0647 -0.2328  0.0847
16112W        W59103   8.590   0.942  19.955 -0.0843 -0.1468  0.2226
16113W        W59104  18.362  21.826  27.617 -0.0320  0.2075  0.1946
16114W        W59105   3.636  25.249  18.140 -0.0744 -0.0093  0.3504
16115W        W59106   9.125  21.478  20.789 -0.1308 -0.2716 -0.2318
16116W        W59107   0.644  27.603  18.864 -0.1268  0.0953 -0.0114
16117W        W59108   1.378  29.777  14.911 -0.0446 -0.3846 -0.3878
16118W        W59109  28.225  29.961  15.001  0.0449 -0.1794 -0.1241
16119W        W59110  23.323  31.425  17.236 -0.2650 -0.0337 -0.1216
16120W        W59111   1.249  24.387  16.872 -0.1320  0.3714  0.0206
16121W        W59112  14.085  21.724  17.962  0.2997  0.1576 -0.0684
16122W        W59113   2.882  34.299  27.388 -0.0694  0.2324 -0.1319
16123W        W59114  34.641  23.221  21.692  0.0770 -0.0673  0.2670
16124W        W59115   8.803  14.245  18.131  0.0463  0.0060 -0.0397
16125W        W59116   6.309  28.713  21.354 -0.0753  0.0403 -0.1802
16126W        W59117  16.821  28.448  15.964  0.1838  0.0568 -0.0993
16127W        W59118  31.837  23.859   4.430 -0.1991 -0.0737 -0.3096
16128W        W59119   4.542   6.074   9.159  0.0978  0.1799  0.1860
16129W        W59120   8.239  30.217  23.214 -0.3305  0.0020 -0.3448
16130W        W59121  15.647  17.389   1.110 -0.1513  0.1439  0.2725
16131W        W59122  13.560  32.758  19.756  0.0258  0.0779  0.0724
16132W        W59123   6.371   1.868  14.998 -0.1328 -0.3337  0.1872
16133W        W59124  20.834  24.751  20.056  0.3993 -0.2718  0.0948
16134W        W59125  21.422  18.072  22.256 -0.2175  0.1878  0.1397
16135W        W59126  30.926  33.513   0.294 -0.0590  0.3090 -0.2566
16136W        W59127  28.120  17.382  20.925  0.1148  0.0317 -0.1144
16137W        W59128  28.170  16.886  16.344  0.1198 -0.0705 -0.2186
16138W        W59129   2.358  20.516   2.811 -0.2865  0.1076 -0.0597
16139W        W59130  29.688  26.187   1.549 -0.0916  0.0271 -0.2653
16140W        W59131   8.343  30.506  19.548  0.1987  0.2107  0.2727
16141W        W59132   5.541  28.494  23.511 -0.0156  0.0872 -0.1246
16142W        W59133  23.355   1.857  18.734  0.0234  0.1317 -0.0485
16143W        W59134   2.343  28.494  19.708  0.2875 -0.2720 -0.3743
16144W        W59135  31.525   4.364  24.860 -0.1241  0.0439 -0.0851
16145W        W59136   4.713  22.974  21.277 -0.5101 -0.3286  0.3185
16146W        W59137   1.758  26.124  14.750  0.2553  0.3838  0.1931
16147W        W59138   5.977  32.435  16.547 -0.1737  0.0966  0.2078
16148W        W59139   1.017   2.855  23.157 -0.0872  0.1995  0.0908
16149W        W59140  30.495  23.970  19.274 -0.3915 -0.0126 -0.1408
16150W        W59141  13.088  22.578  14.362 -0.2092  0.1154  0.3019
16151W        W59142   6.335  22.807  25.237 -0.1614  0.1293 -0.1772
16152W        W59143   1.326  21.705  20.642 -0.3216  0.1434 -0.3017
16153W        W59144   0.110  28.906   1.924  0.2436  0.0209 -0.0563
16154W        W59145   7.567  33.358  20.667  0.2344  0.2874 -0.2623
16155W        W59146  34.513  17.691   1.850  0.1087 -0.0364 -0.1365
16156W        W59147   6.400   0.340  19.233 -0.2648  0.3713  0.0817
16157W        W59148   3.999  31.426  17.697 -0.3560 -0.0364  0.0277
16158W        W59149  24.802   5.851  19.395  0.1356  0.2288  0.3158
16159W        W59150   2.448   8.608  25.628 -0.0458 -0.1480 -0.1605
16160W        W59151   4.867  21.658  16.107 -0.1910 -0.1001  0.0779
16161W        W59152  33.325   3.689  16.260  0.1735  0.1405 -0.2460
16162W        W59153  32.249  19.230  19.794 -0.0754  0.1753 -0.0470
16163W        W59154   6.974  26.117  15.830 -0.2071  0.0761 -0.2970
16164W        W59155  31.212   1.889  13.932 -0.0694 -0.2122  0.1592
16165W        W59156  26.780  34.130  18.591 -0.0569 -0.1720  0.0809
16166W        W59157   2.747  25.457  14.068  0.0279 -0.2061  0.1465
16167W        W59158  31.730  24.919  19.035  0.1705  0.2174  0.0877
16168W        W59159  30.461  18.486  27.278  0.0167  0.2829  0.1313
16169W        W59160  28.752  31.497  13.482  0.0581  0.1691  0.3629
16170W        W59161  31.006  31.251  16.793 -0.1746 -0.2590 -0.0280
16171W        W59162  18.224  28.813   2.641 -0.1599  0.1465 -0.0922
16172W        W59163  32.356   3.725  17.375  0.3751 -0.1423  0.1529
16173W        W59164   0.871  31.909   3.662  0.2640  0.0148  0.1492
16174W        W59165   3.759  34.730  19.467 -0.1082 -0.3960 -0.3334
16175W        W59166  33.171  29.714  20.157  0.0847 -0.0880 -0.1315
16176W        W59167  11.308  22.085  16.063  0.1172 -0.0600 -0.0276
16177W        W59168  28.020  34.162  29.098 -0.1098 -0.1851 -0.0859
16178W        W59169   4.501  13.791  16.527 -0.1151  0.1067  0.1130
16179W        W59170  16.653  12.235  17.018  0.2267 -0.1113 -0.0445
16180W        W59171   3.077  24.888  15.117  0.0174 -0.2271  0.5145
16181W        W59172  29.007  30.927  29.080  0.0290 -0.2796 -0.0895
16182W        W59173  31.550  25.818   7.176 -0.0643 -0.2198  0.2877
16183W        W59174   9.449   4.530  19.766 -0.0658 -0.3422 -0.2692
16184W        W59175  22.610  30.064  17.930  0.2695 -0.0551 -0.0878
16185W        W59176  29.743  33.571   2.039 -0.1644 -0.1673 -0.1259
16186W        W59177  11.210  17.305  18.410 -0.4398  0.0634  0.1658
16187W        W59178  23.117  30.941  28.410 -0.2732  0.0016  0.5051
16188W        W59179  33.876  26.736  23.345  0.0153  0.3381 -0.4926
16189W        W59180   8.079  33.198  24.612 -0.1943  0.3104 -0.0519
16190W        W59181  26.796  34.760  18.225 -0.1099  0.0671 -0.0596
16191W        W59182  24.484  30.544  22.402  0.1150 -0.1377 -0.2562
16192W        W59183   5.281  30.533   7.231  0.0913  0.2625 -0.0505
16193W        W59184  20.211  12.313  21.785 -0.3589  0.0866  0.1819
16194W        W59185  16.150  19.733  24.179 -0.0043 -0.0183  0.1902
16195W        W59186  13.589  28.797  25.232 -0.2420 -0.2081 -0.1567
16196W        W59187  34.373  30.613  26.534 -0.4790  0.0494 -0.1556
16197W        W59188  16.551  24.614  14.124  0.0091  0.1531  0.1615
16198W        W59189   6.478  29.189   9.175  0.0319  0.1320  0.0127
16199W        W59190  33.051   9.438   0.354 -0.0060 -0.1387  0.1717
16200W        W59191  14.398  27.461  14.028  0.0592  0.0650 -0.3601
16201W        W59192  18.386  34.104  22.021  0.0164  0.1310 -0.2244
16202W        W59193   4.816   4.904  23.903  0.0274  0.0430 -0.0158
16203W        W59194   7.433   2.242  18.070  0.2010 -0.0535  0.1706
16204W        W59195  10.097  27.497  21.446  0.0469  0.3362 -0.2777
16205W        W59196   6.958  26.351  24.200 -0.1038  0.0646  0.1461
16206W        W59197  13.536  12.294  22.708 -0.2064  0.0361 -0.0566
16207W        W59198   2.771  20.616  24.579  0.4591  0.2031 -0.2356
16208W        W59199  29.166   6.208  14.167 -0.1621 -0.0200 -0.1022
16209W        W59200  26.755  27.764  18.312 -0.2120  0.0993 -0.0503
16210W        W59201  12.359   3.142  28.126 -0.0799  0.1078 -0.1460
16211W        W59202   5.939   1.068  26.058  0.0243  0.1072 -0.0074
16212W        W59203   6.332  12.053  16.279  0.2577 -0.1792 -0.2898
16213W        W59204  13.320  31.021  16.204 -0.0766  0.1155  0.3706
16214W        W59205   4.544  24.270   1.907 -0.0443 -0.2763 -0.2471
16215W        W59206  11.561  28.301   5.540 -0.2453 -0.1581 -0.4072
16216W        W59207   5.902  15.137  21.553  0.0030 -0.0363 -0.0845
16217W        W59208  21.977  11.637  23.224  0.0964 -0.2765  0.3829
16218W        W59209  30.557  29.971  27.233 -0.0479 -0.0572  0.0330
16219W        W59210   2.618  13.328  26.796 -0.3007  0.0366  0.3809
16220W        W59211  31.353  25.045  19.730 -0.0747 -0.0953  0.0953
16221W        W59212   0.092  18.643  19.917 -0.0363  0.2256  0.2388
16222W        W59213   0.156  17.935  22.636  0.2987 -0.2025  0.0361
16223W        W59214  27.560   8.969  28.811 -0.0617 -0.0283  0.1921
16224W        W59215  27.380   5.370   2.691  0.3011  0.2778 -0.3021
16225W        W59216  25.326  26.567  26.814 -0.0319 -0.0199 -0.0070
16226W        W59217  26.933  25.301  18.930 -0.1338 -0.5074 -0.0002
16227W        W59218  26.990  20.028  18.384  0.0249  0.2277  0.0077
16228W        W59219  30.260  27.611   3.525 -0.0300 -0.0747  0.0301
16229W        W59220   2.100   0.838  16.692 -0.0906  0.0236 -0.0692
16230W        W59221  32.436  25.410  22.728 -0.0334  0.2553 -0.2595
16231W        W59222   9.872  15.458  17.440  0.0832 -0.1718  0.3485
16232W        W59223  19.797  30.623  22.907 -0.1446  0.0167 -0.0629
16233W        W59224  22.675  26.603  17.270  0.0128  0.1519 -0.0041
16234W        W59225   0.445  31.629  13.816  0.0242 -0.1283 -0.0434
16235W        W59226   8.143   9.709   8.670  0.0308  0.0470 -0.1420
16236W        W59227   6.297  24.779  24.103 -0.4242 -0.0992 -0.2213
16237W        W59228   3.239   0.779   1.824 -0.2702  0.0588 -0.0043
16238W        W59229  12.273  30.195  17.979  0.2737 -0.2190 -0.0411
16239W        W59230  28.421   7.818  29.174 -0.0883  0.0580  0.1250
16240W        W59231  31.251  32.936  24.463  0.1616 -0.1702 -0.1532
16241W        W59232  24.229   0.437   0.131 -0.0953  0.5791 -0.0984
16242W        W59233  22.653  22.904  13.445  0.0228  0.0276  0.3718
16243W        W59234  33.515  20.180  23.431  0.0716  0.0093  0.0346
16244W        W59235   6.497   3.564  15.187  0.2892  0.0946  0.0184
16245W        W59236   8.160  21.199  16.931  0.4580 -0.1665  0.1532
16246W        W59237   6.982  27.071  16.797 -0.0317 -0.1783 -0.0175
16247W        W59238  34.715   9.138  15.649 -0.1257 -0.0178 -0.0478
16248W        W59239   1.256  12.759   5.906  0.0870 -0.0577 -0.0179
16249W        W59240   9.348  23.407  24.631  0.0772  0.0185 -0.0410
16250W        W59241  28.708  31.430  19.888 -0.1950  0.0801  0.0286
16251W        W59242  13.545   3.129  19.379  0.3772 -0.3339  0.2264
16252W        W59243   4.654   1.682   0.423 -0.0173  0.0752 -0.0884
16253W        W59244  29.661   1.439  21.190 -0.1126  0.1374  0.2142
16254W        W59245  24.124  20.781  17.793  0.1603  0.0034  0.0013
16255W        W59246  25.226  25.780  17.890  0.3599  0.0484  0.3148
16256W        W59247  11.714  15.822  22.374  0.0430 -0.0664  0.3285
16257W        W59248  29.282  21.863  17.008  0.0272  0.1531 -0.2013
16258W        W59249  16.608  24.218  21.207  0.1928  0.4065 -0.0963
16259W        W59250   1.659   0.923  18.348  0.1338  0.1075 -0.2962
16260W        W59251  24.201   5.016  20.413 -0.2510 -0.0371  0.0326
16261W        W59252  24.950  20.381   3.072 -0.1502 -0.2351  0.1039
16262W        W59253   7.385  15.517  18.297  0.0479 -0.0398 -0.2849
16263W        W59254  19.709  24.353  16.874 -0.0110 -0.0828  0.0639
16264W        W59255  20.725  22.605   0.210 -0.0240 -0.0769 -0.0730
16265W        W59256  18.404  32.543  19.019  0.1060  0.1933  0.0906
16266W        W59257  31.609  24.814  21.344 -0.3140  0.0999 -0.1384
16267W        W59258  10.615  29.125  22.480  0.2034 -0.0244 -0.0343
16268W        W59259  30.949  19.202  20.106 -0.1730  0.1503 -0.1608
16269W        W59260  25.945   8.637   0.079  0.1494  0.1465 -0.0016
16270W        W59261  26.401  20.841  22.221 -0.1028  0.4451 -0.0575
16271W        W59262   5.449  12.954  21.497 -0.0633  0.0096  0.1458
16272W        W59263  15.727  33.448  22.410 -0.0153  0.2537  0.0330
16273W        W59264   5.068   5.614   4.253  0.0495 -0.1600 -0.1402
16274W        W59265  10.229  14.143  21.633 -0.0794 -0.1030 -0.1223
16275W        W59266  22.282  15.830  16.003 -0.1661  0.0203 -0.1682
16276W        W59267   1.869  28.107  15.981  0.0350  0.1052  0.2978
16277W        W59268   5.586  33.901  27.034 -0.1411  0.0264  0.0639
16278W        W59269   8.605   8.916  20.560  0.2403  0.1047  0.2440
16279W        W59270  18.498  24.284  23.011 -0.1382  0.0688  0.1572
16280W        W59271   9.099  12.261  11.337 -0.0862  0.0409 -0.2358
16281W        W59272   0.087  28.727  14.708  0.0741  0.2577  0.2023
16282W        W59273   9.929   4.783   7.152  0.0478  0.1107 -0.4477
16283W        W59274  28.269  33.307  15.285 -0.3153  0.1092 -0.1441
16284W        W59275   3.007  32.262  26.397 -0.1048 -0.0045 -0.0948
16285W        W59276  25.154   8.007   7.562 -0.0180 -0.0460 -0.2648
16286W        W59277   8.822  33.876  17.639  0.1645 -0.1121 -0.2929
16287W        W59278   1.468  24.168  24.233 -0.3064  0.1406  0.2524
16288W        W59279  14.058  29.554  17.254 -0.0590 -0.3642  0.1308
16289W        W59280   3.450  33.991  24.517  0.2005  0.0850 -0.2165
16290W        W59281  11.532  20.584  26.105 -0.1831  0.1099  0.1888
16291W        W59282  30.035  24.876  28.690  0.0649  0.1522 -0.2470
16292W        W59283   7.631  33.958  15.311  0.0943  0.3764  0.0315
16293W        W59284  13.328   3.788  15.972 -0.1407 -0.2834 -0.2156
16294W        W59285   0.698  28.958  23.024  0.1987  0.0757  0.3312
16295W        W59286  29.132  29.691  18.120 -0.0545  0.1647 -0.2173
16296W        W59287   2.820  34.406  15.194  0.0692  0.0434 -0.2713
16297W        W59288  32.216  20.428  18.348 -0.1952 -0.0109  0.2326
16298W        W59289   4.185  32.238  27.803 -0.1219 -0.4572  0.0627
16299W        W59290  30.909  20.298  15.798 -0.0017 -0.2058 -0.0327
16300W        W59291  28.210  23.484  18.978  0.2191 -0.0419 -0.2776
16301W        W59292  21.562  22.376  14.067  0.3260 -0.1475  0.1992
16302W        W59293   8.044  28.683  16.245 -0.1657 -0.0308  0.0787
16303W        W59294   3.217  34.493  15.610 -0.0301 -0.2686  0.0325
16304W        W59295  28.935   5.695   4.134 -0.0917  0.0722  0.0321
16305W        W59296  13.412   3.948  28.376  0.0479 -0.0332  0.0239
16306W        W59297   0.476  29.004  25.591 -0.0364  0.0383  0.1714
16307W        W59298   9.667  13.979  18.167  0.3526  0.1294  0.3918
16308W        W59299   8.977  28.688  18.560  0.1557 -0.1028 -0.1185
16309W        W59300   2.870  21.033  28.535  0.0372  0.1940 -0.0473
16310W        W59301  29.113  19.576  19.737 -0.4130 -0.1264 -0.1688
16311W        W59302   1.427   5.277  15.786  0.1763  0.0140  0.2643
16312W        W59303  34.781  28.566  16.728  0.1459  0.3317 -0.0122
16313W        W59304   3.211  30.626  15.713 -0.2300 -0.1020  0.0350
16314W        W59305  11.568   5.504   2.132 -0.1706 -0.1876 -0.5208
16315W        W59306  15.739  23.918  22.878 -0.4544 -0.2631  0.1291
16316W        W59307  24.906  33.464  17.925  0.3174 -0.2832 -0.3427
16317W        W59308   1.447  25.671  21.356 -0.2592  0.3950 -0.1548
16318W        W59309   8.764   0.203  20.614 -0.1243 -0.0999 -0.0193
16319W        W59310   0.329  33.958  14.159  0.2302 -0.2292 -0.1779
16320W        W59311  31.586   5.222  16.081  0.2664 -0.1066 -0.0073
16321W        W59312  11.921  33.960  22.943 -0.0173 -0.0828  0.2135
16322W        W59313  34.545  28.038  12.579  0.0813  0.2030 -0.1845
16323W        W59314   4.184   3.344  20.028 -0.3151  0.0578 -0.2934
16324W        W59315  20.153  29.519  24.395 -0.0989  0.0708 -0.0499
16325W        W59316   7.558  29.949  23.572 -0.0998  0.1019  0.0088
16326W        W59317  28.770  20.753  13.243  0.1056 -0.1734 -0.2113
16327W        W59318   5.547  16.238  17.434 -0.0813 -0.0498 -0.0351
16328W        W59319   3.661  16.855  26.696 -0.2201 -0.2429 -0.4677
16329W        W59320   2.611  28.162  18.257  0.2602 -0.0200  0.0756
16330W        W59321  20.363  26.096  22.687 -0.0710 -0.1238  0.2944
16331W        W59322   8.096   5.216  24.097 -0.2472  0.0412 -0.0685
16332W        W59323  34.731  14.810  22.567  0.0497 -0.1751 -0.0273
16333W        W59324   9.258  25.412  27.432  0.0547  0.0110  0.2637
16334W        W59325  10.074  13.671  25.296 -0.2212  0.3292 -0.0669
16335W        W59326   2.425  28.354  18.708 -0.1269 -0.0562 -0.1514
16336W        W59327  10.705  24.923   1.628  0.1990 -0.4179 -0.0842
16337W        W59328  15.113  21.428  14.401 -0.2044  0.1077 -0.3043
16338W        W59329  19.810  27.027  14.875  0.0705  0.1404 -0.3833
16339W        W59330  25.094  19.863  13.150 -0.1642  0.2410  0.0162
16340W        W59331   1.461   1.550   1.289 -0.1055  0.2127  0.0144
16341W        W59332  29.264  18.651  14.679  0.0069 -0.0957 -0.1994
16342W        W59333   6.369  15.585  15.979  0.2124 -0.0878 -0.0619
16343W        W59334  31.671  13.822  27.376 -0.1635  0.0918 -0.1928
16344W        W59335  31.262  18.215  28.822  0.0984  0.1209 -0.1226
16345W        W59336  26.066   0.811  14.017  0.1489 -0.1193  0.0808
16346W        W59337  32.816  29.143  19.470  0.1963  0.0633  0.0477
16347W        W59338  31.278   5.709  13.779  0.0484 -0.0321  0.1024
16348W        W59339  13.050  25.545  17.266 -0.0487  0.0308  0.1527
16349W        W59340  34.338  16.099  23.053 -0.1223 -0.2285  0.3318
16350W        W59341  10.637  16.594  18.616  0.1173  0.1627 -0.0851
16351W        W59342  24.298  26.395  25.497 -0.0616  0.1777 -0.1430
16352W        W59343  28.481  28.317  14.804  0.1784  0.1734  0.3609
16353W        W59344   9.064  24.216  25.025 -0.1152 -0.0548 -0.0086
16354W        W59345   0.689  30.722   0.937  0.3858  0.1717  0.3395
16355W        W59346   4.737   1.310  16.660  0.2667  0.0784 -0.1079
16356W        W59347   5.071  30.837   5.233 -0.2351  0.1235 -0.3636
16357W        W59348   4.952  23.253  24.072 -0.0637  0.1128  0.1018
16358W        W59349   0.383  22.513  15.664 -0.0496 -0.0742 -0.1714
16359W        W59350   1.240  29.128  15.834  0.0749  0.0423  0.1121
16360W        W59351  16.599  31.482   2.219 -0.3206 -0.0391 -0.0503
16361W        W59352   0.340  24.506   3.680 -0.1103  0.1954 -0.1296
16362W        W59353   0.965  11.209   4.876 -0.1827  0.1348 -0.1006
16363W        W59354  30.115  27.206  20.603  0.1044 -0.2677 -0.2433
16364W        W59355   8.239  27.473  16.334  0.1469 -0.3968 -0.1370
16365W        W59356   6.960  29.963  17.044 -0.1338  0.0992 -0.2945
16366W        W59357  32.718  31.392  29.072  0.1059 -0.1016 -0.0680
16367W        W59358   6.557  25.103  15.461 -0.0928 -0.0592 -0.1535
16368W        W59359   9.351  25.331  16.055  0.4000  0.1648  0.1486
16369W        W59360  33.075   1.917  15.775 -0.2184  0.3332  0.1395
16370W        W59361  22.846  27.843  13.561  0.3570 -0.0610 -0.0360
16371W        W59362  12.050  26.964  21.272  0.2168  0.1762 -0.0142
16372W        W59363  17.014  25.510  14.883  0.3276 -0.1146 -0.1641
16373W        W59364  26.653  27.368  20.510  0.0994  0.4089  0.0522
16374W        W59365  29.629  30.472  21.748  0.1730 -0.3753 -0.0046
16375W        W59366  25.830  15.831  25.411  0.3728 -0.3060 -0.0060
16376W        W59367  14.479  27.465  24.845 -0.0080 -0.0941  0.0373
16377W        W59368  32.691  22.225   3.394 -0.3139 -0.0276 -0.1722
16378W        W59369   7.408  25.651  22.182 -0.1091 -0.0750  0.1806
16379W        W59370  29.991   6.918  20.960  0.3653  0.1046  0.0864
16380W        W59371   2.750  18.598  21.756 -0.0001  0.1084  0.0585
16381W        W59372   9.938   1.632   3.098  0.2387  0.0204 -0.0392
16382W        W59373  26.575  29.755  17.972 -0.1283  0.0248 -0.0552
16383W        W59374   6.965  25.704  27.300 -0.1394  0.1728 -0.1307
16384W        W59375   2.447  32.993   7.222 -0.0161  0.0027 -0.0610
16385W        W59376   8.333  22.848  25.873 -0.0756  0.1184  0.1661
16386W        W59377   3.368  18.314   7.460 -0.0757  0.0842 -0.0317
16387W        W59378  24.218  26.550   5.007  0.2043  0.2310  0.3009
16388W        W59379   9.122   3.519  14.525  0.1241  0.2125  0.1934
16389W        W59380  28.710  24.261  23.963  0.0353 -0.1216 -0.0424
16390W        W59381  29.126   0.478  17.054 -0.0883  0.0924 -0.1035
16391W        W59382  23.787  15.369  23.510  0.1041  0.0021 -0.2550
16392W        W59383  32.080  15.101  16.903  0.0081 -0.0558  0.2849
16393W        W59384   0.401  11.837   0.309  0.2035  0.1454  0.1765
16394W        W59385  29.866   0.981  15.523 -0.1162 -0.0609 -0.0146
16395W        W59386  11.496  25.589  24.252  0.0401  0.0984  0.0710
16396W        W59387  24.079  19.099   2.851 -0.0014  0.0524  0.1111
16397W        W59388   6.030  17.983  25.303  0.1536 -0.2199  0.2563
16398W        W59389   1.097   4.994   2.036 -0.2064 -0.1490  0.2131
16399W        W59390  11.944  13.820  26.913  0.1675 -0.0019  0.0821
16400W        W59391  25.176  15.496   3.054  0.0640 -0.0083 -0.3515
16401W        W59392  10.316  23.636  25.305  0.0625  0.0899 -0.0891
16402W        W59393   5.289  18.254  16.789 -0.1448 -0.1718  0.1178
16403W        W59394   2.461  28.187  21.681  0.0599  0.0800 -0.3040
16404W        W59395  28.526  23.922  17.039  0.0930  0.4395 -0.0516
16405W        W59396  12.155  34.135   0.395  0.0843 -0.0578  0.0286
16406W        W59397  29.095   7.270  22.528  0.1956 -0.2491  0.0909
16407W        W59398  33.921  33.696   0.978 -0.1380 -0.0131 -0.3382
16408W        W59399   3.059  33.369   0.956  0.0009  0.2093 -0.0050
16409W        W59400   0.528   4.177   8.540 -0.2242  0.2696  0.4700
16410W        W59401   8.820   8.870   3.464  0.4318  0.1514  0.3000
16411W        W59402  12.078  32.580  14.787  0.0090  0.1312  0.4245
16412W        W59403  33.284  25.456   9.380  0.1186  0.2159  0.0635
16413W        W59404  32.016   6.592  22.469 -0.2008  0.1289 -0.0442
16414W        W59405   9.000  30.357  22.374 -0.0325 -0.0945  0.1488
16415W        W59406   8.331  33.639  24.876 -0.0721  0.0483 -0.3414
16416W        W59407  31.560  31.250  20.954  0.0803  0.0215 -0.1307
16417W        W59408  12.052  16.765   3.270  0.0247 -0.1676  0.1487
16418W        W59409   2.451  16.768  26.859 -0.1643 -0.0536  0.0492
16419W        W59410   8.994  30.803   4.591  0.0435 -0.0153  0.1316
16420W        W59411   3.442   6.969  20.960  0.0754  0.3576  0.2936
16421W        W59412   4.841  23.986  15.541  0.1157  0.2640 -0.3520
16422W        W59413  29.228  24.855  25.811  0.0943  0.0489  0.0277
16423W        W59414  33.611  25.377  25.581 -0.0670  0.2444  0.0519
16424W        W59415   7.824  30.817  16.584  0.0890 -0.2005 -0.1596
16425W        W59416  29.444  27.160  17.923  0.0553  0.1077  0.1588
16426W        W59417   0.235  17.426   1.137 -0.0942  0.0218 -0.1098
16427W        W59418  33.451  17.530  28.096 -0.0606 -0.2413 -0.1526
16428W        W59419  34.072   2.521   5.418 -0.1694 -0.2315  0.2023
16429W        W59420   8.938  25.282  19.163  0.0303  0.0770 -0.2891
16430W        W59421  23.357  31.629  25.464 -0.2280  0.0481 -0.1888
16431W        W59422  34.021  20.636   1.681  0.1620 -0.1056  0.2748
16432W        W59423  25.474  29.115   0.559  0.2082 -0.1276 -0.2451
16433W        W59424   2.446  23.048  10.313  0.0968  0.1126  0.2928
16434W        W59425   6.357  32.085   4.781 -0.0033  0.2884 -0.1842
16435W        W59426  16.730  30.763  14.684 -0.4021 -0.1619  0.1005
16436W        W59427  32.667  23.565  19.804 -0.2906 -0.0282 -0.0540
16437W        W59428  13.770  21.948  25.860 -0.0248  0.1513  0.0663
16438W        W59429   1.251   6.436  29.118 -0.1603 -0.0699  0.1745
16439W        W59430   0.216   9.182  11.532  0.1281 -0.2394 -0.1418
16440W        W59431  33.362  31.740  26.378  0.6588 -0.3598  0.1095
16441W        W59432  12.284  33.527  20.412 -0.1794  0.0408 -0.1833
16442W        W59433  32.957  17.169  27.323 -0.0920  0.1174  0.2522
16443W        W59434  18.288  20.718  14.111  0.2530 -0.0249  0.0360
16444W        W59435  32.434   9.287   3.709 -0.2108  0.0151 -0.1367
16445W        W59436   5.254  18.265  19.960 -0.1888 -0.0346  0.2693
16446W        W59437  27.177  26.766  23.963  0.1427  0.0048  0.1475
16447W        W59438   4.392   2.996   5.645  0.0074 -0.1400 -0.0408
16448W        W59439  23.956  27.998  24.639 -0.0235 -0.0485  0.2931
16449W        W59440  25.526  21.971   3.796  0.1729  0.2333 -0.1787
16450W        W59441   4.761  10.737  27.235  0.0620 -0.0991  0.0332
16451W        W59442   8.366   1.030  28.419  0.1027  0.3031 -0.2792
16452W        W59443   2.759   5.589  16.497 -0.3836 -0.0223 -0.2011
16453W        W59444   4.521  23.908  19.310  0.0067 -0.0271 -0.0679
16454W        W59445  13.198  26.360  25.952 -0.0185 -0.0431  0.2392
16455W        W59446  15.414  15.082  25.605 -0.1780  0.0661  0.2785
16456W        W59447  14.045  31.832   4.441  0.0300 -0.1044  0.2559
16457W        W59448   8.049  31.097   3.976  0.0655  0.2678  0.0711
16458W        W59449  18.930  31.567  18.267  0.1126 -0.1482  0.1405
16459W        W59450  27.371  23.990  13.970 -0.0307  0.1830  0.1080
16460W        W59451   1.744  19.918  25.894  0.2262  0.0814 -0.2001
16461W        W59452   5.646  18.827   3.649 -0.1207 -0.1182  0.0681
16462W        W59453   5.082  21.284   1.784 -0.1411 -0.3656  0.0774
16463W        W59454   7.165  27.595  18.972  0.0282 -0.0375 -0.0199
16464W        W59455   5.545  27.286  22.979 -0.0141  0.1710 -0.0779
16465W        W59456  25.204   5.007  14.055  0.4922 -0.0647  0.0753
16466W        W59457  18.952  21.403   7.668  0.2417  0.2039  0.3470
16467W        W59458   0.675  17.451   8.098 -0.1737  0.2052 -0.0804
16468W        W59459   3.198  26.866  18.560  0.2015 -0.0261  0.0154
16469W        W59460   2.440  27.169  28.803 -0.0462  0.0214 -0.0793
16470W        W59461  15.806  25.392  21.393 -0.1712  0.2771 -0.1416
16471W        W59462   5.493  31.065  21.105  0.0098 -0.0499 -0.2893
16472W        W59463  14.961   7.964   2.551 -0.0167 -0.2588  0.1627
16473W        W59464  29.581   2.894   0.851 -0.0567  0.0964  0.0137
16474W        W59465  26.975  28.257  19.683  0.3027 -0.2855  0.1899
16475W        W59466  31.482   8.721  22.467 -0.0676  0.0584 -0.0311
16476W        W59467  29.496   3.792  15.012 -0.0601  0.2519 -0.1802
16477W        W59468  32.272  19.775   0.477  0.1148 -0.4263  0.4049
16478W        W59469  13.336  17.006  26.597  0.2752  0.1215  0.0870
16479W        W59470   3.310  25.565  21.805 -0.1792 -0.0365  0.0015
16480W        W59471  27.350  33.652  26.668  0.2236  0.0664 -0.1492
16481W        W59472   7.750  26.442  19.243 -0.3464 -0.0279  0.1108
16482W        W59473  22.042   0.132  21.053 -0.0652 -0.3174  0.0273
16483W        W59474   9.356  34.554  15.880 -0.2073 -0.0179 -0.2523
16484W        W59475   6.478  34.106   4.455  0.1064 -0.1171  0.2311
16485W        W59476  33.278  15.603  18.062 -0.0524  0.1711 -0.1148
16486W        W59477  31.298   9.972  29.135 -0.1533 -0.0345 -0.1148
16487W        W59478  22.680  31.893  20.052 -0.0001 -0.1000 -0.0360
16488W        W59479   6.035  30.876  17.621 -0.1105 -0.2439  0.0657
16489W        W59480  12.742  24.489  17.668 -0.2208  0.1003  0.3446
16490W        W59481  32.635  22.924   0.654  0.1971  0.0551  0.3678
16491W        W59482   2.538  21.693  19.541  0.3155 -0.1848 -0.1272
16492W        W59483   0.670   6.864  22.415 -0.0616 -0.0292 -0.0141
16493W        W59484  28.740   8.491   3.193  0.0917 -0.0662  0.0672
16494W        W59485   5.749  32.547  23.442 -0.0869  0.0254  0.0432
16495W        W59486   2.735  21.874   1.200  0.3341 -0.1557 -0.4834
16496W        W59487   8.156  25.031   5.489  0.1750  0.0604  0.2826
16497W        W59488  18.663  18.769   0.953 -0.3635 -0.0392 -0.0021
16498W        W59489  32.391  26.322   4.807  0.0628 -0.3045 -0.0568
16499W        W59490  14.750   5.531  27.345 -0.0293  0.3231  0.1725
16500W        W59491  24.713  26.582  14.694 -0.0440  0.2160 -0.3337
16501W        W59492   2.671  21.070   4.476  0.2124  0.3398 -0.3476
16502W        W59493  20.406  23.781  18.243  0.2314  0.0664 -0.0038
16503W        W59494  11.492  28.346  23.529 -0.0240  0.1370  0.4604
16504W        W59495   4.083  10.371  16.457  0.1120 -0.1558 -0.1423
16505W        W59496  25.247  11.772  20.325 -0.4751 -0.0102  0.4171
16506W        W59497   5.447   3.735  16.840  0.0039 -0.2434 -0.0408
16507W        W59498  21.565  22.426  25.791 -0.2963  0.2055 -0.2482
16508W        W59499   5.571  21.301  25.672 -0.3721 -0.0433  0.1127
16509W        W59500  10.528   2.401  26.982  0.0203  0.2349  0.2804
16510W        W59501   8.261  28.859  16.651 -0.0011  0.0243  0.0321
16511W        W59502  14.549  34.785  15.971  0.3262 -0.0341  0.1214
16512W        W59503   3.254   2.216  21.329  0.1041  0.0446  0.4884
16513W        W59504  17.547   0.749  24.130  0.3716  0.2493 -0.2608
16514W        W59505  29.939   7.963  21.105  0.2314  0.1942 -0.3262
16515W        W59506   7.283  29.118  20.518  0.3282 -0.0047 -0.1150
16516W        W59507  22.253  25.447  16.539  0.2756 -0.0697  0.0897
16517W        W59508  34.212  31.969   5.448 -0.0046 -0.0909  0.1777
16518W        W59509  23.912  29.928  15.199 -0.1162 -0.1763 -0.0330
16519W        W59510   1.285   2.730  26.379  0.0054 -0.3869 -0.4220
16520W        W59511   4.429  31.530  22.882 -0.0458 -0.2048  0.1686
16521W        W59512   3.773  33.265  25.762  0.1352  0.1588 -0.2154
16522W        W59513  34.571  29.197   8.395  0.2556 -0.1563 -0.0854
16523W        W59514   0.877   8.108   1.475  0.0029 -0.4173  0.1369
16524W        W59515  24.974  32.884  25.194  0.1036  0.0077  0.3197
16525W        W59516  10.059  30.177  15.094 -0.2657 -0.1305  0.0269
16526W        W59517  27.142   2.884  26.534 -0.0506 -0.1783 -0.1400
16527W        W59518  30.074   3.278  16.587 -0.0947  0.0013  0.0135
16528W        W59519  24.210  32.775  15.254  0.1811 -0.2636  0.1359
16529W        W59520   6.027  28.025  21.896  0.1331  0.0530 -0.0903
16530W        W59521   3.072  20.955  25.932  0.0777  0.1340  0.1905
16531W        W59522  29.801  28.243  20.804  0.1943  0.0215 -0.1436
16532W        W59523   1.373  19.118  15.645 -0.0569  0.2075 -0.0497
16533W        W59524   8.610  26.682  27.121  0.1038 -0.4389 -0.0080
16534W        W59525  13.218  21.194  22.621  0.1826  0.2123 -0.3034
16535W        W59526  29.608  23.245  14.408 -0.2725 -0.0734 -0.2309
16536W        W59527   0.762  18.771  27.379 -0.0862 -0.1232 -0.1827
16537W        W59528  25.488  11.254   9.535  0.3907  0.1371  0.3233
16538W        W59529   2.190  18.969  20.967  0.0290  0.2694 -0.1546
16539W        W59530  28.485   3.664  24.693 -0.2415  0.3312 -0.0766
16540W        W59531  29.453  33.326  21.870 -0.0485 -0.0207 -0.1422
16541W        W59532  12.224   6.069  25.551 -0.1047  0.0090 -0.0123
16542W        W59533   7.751  28.337  18.642 -0.1359 -0.3625  0.0825
16543W        W59534  32.785  34.208  18.585  0.2027  0.1566 -0.0715
16544W        W59535   9.594  30.818  25.567  0.0093 -0.1329 -0.0262
16545W        W59536  33.113  22.768  21.908  0.0561  0.0252 -0.3200
16546W        W59537   2.762   5.277   4.170 -0.3977  0.1037 -0.0397
16547W        W59538  26.397  32.597  15.824  0.0891  0.0517  0.1145
16548W        W59539  12.849  26.938  18.985  0.0054 -0.0212  0.0952
16549W        W59540  28.928   6.770   0.916  0.1777 -0.0728 -0.0572
16550W        W59541   5.596   4.546  27.460  0.1158  0.2549 -0.0879
16551W        W59542  26.331  24.998  26.437  0.0891  0.6529  0.0028
16552W        W59543  15.246   0.972  21.809  0.4459 -0.1199 -0.2012
16553W        W59544  12.128  18.637   7.919  0.1497  0.0196  0.0969
16554W        W59545  34.389  29.292  28.846 -0.3011  0.3538  0.2560
16555W        W59546  12.919   3.959  25.346  0.1394  0.1555 -0.0905
16556W        W59547  19.710  16.849  27.390 -0.0309  0.0761  0.1818
16557W        W59548  28.308   8.583  17.597 -0.2782 -0.0281 -0.1227
16558W        W59549  26.085   9.245  14.197 -0.0586  0.1269  0.0552
16559W        W59550  14.690   0.762  19.637  0.2135 -0.1958 -0.1327
16560W        W59551   1.409   0.973   0.700  0.0576 -0.1095 -0.2596
16561W        W59552   5.077  22.224  23.848  0.2683 -0.0695 -0.0580
16562W        W59553   0.120   0.570  19.543 -0.1939 -0.0713 -0.2625
16563W        W59554   4.427  29.994  25.289  0.0759  0.2443  0.1474
16564W        W59555  33.069  22.498  20.155  0.1711 -0.3204 -0.2525
16565W        W59556  33.348  29.323  16.301  0.1091 -0.1173  0.0061
16566W        W59557   3.172  30.634  18.627  0.2305 -0.1175  0.1161
16567W        W59558   0.056  28.363  12.686 -0.0794  0.1199  0.2916
16568W        W59559  19.475  18.338  25.824 -0.3597  0.0964 -0.0481
16569W        W59560   2.826   8.684  17.551 -0.1366  0.0642 -0.0758
16570W        W59561   6.434   7.363  10.456  0.3010 -0.0704 -0.2079
16571W        W59562   3.013   0.989   1.062  0.0755  0.0030 -0.0398
16572W        W59563  22.405  32.000  15.552 -0.1340  0.0820  0.2333
16573W        W59564  19.689  21.298  18.871 -0.3987 -0.1652  0.0884
16574W        W59565  26.918  29.842   0.459  0.0254  0.1763 -0.0701
16575W        W59566  12.590  12.266  24.429 -0.0216 -0.0313 -0.3109
16576W        W59567   0.102  17.195  15.690  0.1060  0.4847 -0.1086
16577W        W59568  27.987   1.526   7.961  0.0582 -0.0166 -0.0686
16578W        W59569   2.762   1.847  17.160  0.0299 -0.2259  0.2764
16579W        W59570  12.639  26.467  27.597  0.0206 -0.1027 -0.0135
16580W        W59571  11.192  27.331  15.528  0.0026  0.1763  0.2536
16581W        W59572   0.580  19.623  18.034  0.0619 -0.0514  0.0993
16582W        W59573  31.717   1.704   1.986 -0.0765 -0.0481 -0.2569
16583W        W59574  34.054  27.687  14.394 -0.1345 -0.0623 -0.3392
16584W        W59575  15.574  24.979  21.629  0.1336  0.3385  0.1706
16585W        W59576  29.462  26.170  20.511 -0.0884 -0.0315 -0.3154
16586W        W59577   4.061  11.425   2.701  0.0450 -0.0628 -0.1004
16587W        W59578  21.697  25.864  21.289 -0.1266  0.0575  0.2249
16588W        W59579  10.991  25.551  23.277  0.0590 -0.2755 -0.0819
16589W        W59580   4.797  22.006  27.608  0.0726 -0.1091 -0.2452
16590W        W59581   2.186  27.110  22.605  0.1371  0.0036  0.0940
16591W        W59582  11.790  24.510  14.755  0.2465 -0.1527 -0.1892
16592W        W59583  32.564  12.845  26.494 -0.1078  0.0067 -0.0250
16593W        W59584   4.457   7.974  22.864 -0.2717 -0.2368  0.1535
16594W        W59585   4.001   0.613  17.413 -0.1779  0.0868 -0.1758
16595W        W59586   1.037   5.940   6.232 -0.1321 -0.1815  0.0660
16596W        W59587  23.010   9.020   1.073 -0.4060  0.0172 -0.0004
16597W        W59588   5.489  30.923  22.446 -0.0187  0.1331 -0.1976
16598W        W59589  32.344  24.796   7.858 -0.0609  0.1753 -0.2907
16599W        W59590  22.170  27.410   8.595 -0.0782  0.1624  0.2090
16600W        W59591   2.662  25.527   3.605 -0.1869 -0.1366 -0.1263
16601W        W59592   9.318  20.777   1.916  0.0665  0.0163 -0.0443
16602W        W59593  12.443  15.911  25.619  0.3552 -0.1220  0.0858
16603W        W59594  27.351  25.402  25.141 -0.0352 -0.0324  0.0768
16604W        W59595  18.172  15.524  14.429 -0.0832 -0.2106  0.0710
16605W        W59596  31.614   0.948  18.278  0.3276 -0.0665  0.1786
16606W        W59597   1.292  17.412  25.325 -0.0632  0.1028 -0.0892
16607W        W59598  17.946  30.061  27.971 -0.1494  0.1651 -0.0732
16608W        W59599   9.367  20.455  26.579  0.2386 -0.0895  0.0066
16609W        W59600  20.450  29.392  28.981  0.1231 -0.3275 -0.3272
16610W        W59601   3.715  24.378  21.951 -0.2823  0.0919  0.2383
16611W        W59602  20.617  20.829  18.954 -0.1220 -0.0946  0.1037
16612W        W59603  19.302  23.798   2.279  0.2876 -0.0448 -0.3628
16613W        W59604  31.974  30.823  26.526 -0.0270 -0.0316 -0.3421
16614W        W59605  28.437  25.931  16.330  0.0795  0.1337 -0.0378
16615W        W59606  20.821   3.448  23.422 -0.0958  0.1183  0.0882
16616W        W59607  26.805   9.362  17.556 -0.1251  0.1244 -0.0663
16617W        W59608   5.195  21.838  26.630  0.0220  0.1534 -0.1167
16618W        W59609   6.469  15.713  23.555  0.0304  0.3098  0.1598
16619W        W59610  10.999  21.646  17.902  0.2244  0.2793  0.0361
16620W        W59611  11.605   5.943  16.142  0.1596 -0.0317 -0.1335
16621W        W59612  18.289  21.439  16.788 -0.1854 -0.2117 -0.0049
16622W        W59613  29.645   9.277   0.689  0.0411 -0.0191  0.1754
16623W        W59614  23.185  11.887  15.277 -0.0090 -0.1380  0.1096
16624W        W59615  10.859  32.838  21.004  0.1147  0.0277  0.0131
16625W        W59616   3.847  23.926  26.042 -0.0638  0.0559 -0.2587
16626W        W59617  30.530  23.303  22.528  0.2681  0.0309  0.1494
16627W        W59618  28.730  24.729  22.190  0.2068  0.1431  0.0904
16628W        W59619   3.357  26.961  24.694 -0.0346 -0.4183 -0.2204
16629W        W59620  27.048  26.368  19.776  0.0389  0.0847  0.1616
16630W        W59621  30.789  23.687   4.225 -0.2361  0.2878  0.0260
16631W        W59622  29.904   5.700   7.492 -0.1012 -0.0045 -0.1549
16632W        W59623  26.950  27.802   2.638  0.1089 -0.2040  0.4043
16633W        W59624  11.847  19.753  19.923  0.0604  0.3433  0.2403
16634W        W59625  10.191  31.242  27.627  0.2488 -0.2187 -0.2965
16635W        W59626  25.620  21.647  15.623 -0.0277 -0.5679 -0.0882
16636W        W59627   3.916  33.788  26.121  0.1176  0.0654 -0.0797
16637W        W59628  10.760  11.632  28.131 -0.0530  0.0732  0.1366
16638W        W59629   9.484  19.916  15.179  0.2154  0.2551  0.1200
16639W        W59630   0.746  13.314   4.842 -0.2088  0.1014  0.0842
16640W        W59631   1.994   5.982  24.128 -0.0931  0.0757  0.3172
16641W        W59632  22.924  27.420  22.859  0.1034  0.0422  0.3228
16642W        W59633  11.851  19.488  17.018 -0.0451 -0.1069 -0.0459
16643W        W59634  33.763   5.447  26.197  0.1084  0.2060  0.1202
16644W        W59635   5.435  17.914   1.684 -0.2111 -0.4418  0.0856
16645W        W59636  24.585  14.031  24.518  0.2166  0.0107 -0.1465
16646W        W59637  25.023   0.025  14.113  0.1200 -0.1420 -0.1264
16647W        W59638   3.124   0.245  16.258 -0.2623  0.0338 -0.2654
16648W        W59639  18.351   6.093   1.227 -0.0720  0.2111 -0.0874
16649W        W59640   9.417  33.813   1.891  0.3100 -0.0579 -0.2045
16650W        W59641   5.325  18.037  15.823  0.1447 -0.0971 -0.0525
16651W        W59642  32.824  19.840  10.143  0.1245  0.0052  0.0438
16652W        W59643  28.579  25.317  20.022  0.2605 -0.1110 -0.1388
16653W        W59644  34.743  20.557  18.899 -0.0085  0.1132 -0.0324
16654W        W59645  30.253  14.330  17.518  0.1244 -0.1294 -0.6123
16655W        W59646   6.971   9.435  27.346  0.0535  0.2107 -0.1354
16656W        W59647   2.322   5.243  28.639 -0.1567 -0.2289  0.0296
16657W        W59648   3.378  14.164  22.019 -0.1161 -0.0546 -0.2897
16658W        W59649  20.361   0.279  25.337  0.0545  0.1082  0.2330
16659W        W59650  33.153   0.066  29.098 -0.0756  0.2101 -0.2018
16660W        W59651   8.555  24.221  21.206 -0.3490  0.2088 -0.1133
16661W        W59652   4.070   3.985   9.746 -0.1266  0.1604 -0.1383
16662W        W59653  15.213   3.084  22.485 -0.0780  0.0399  0.0125
16663W        W59654   5.618  29.425  16.870 -0.1983  0.1124 -0.0131
16664W        W59655  16.811  22.795  15.334  0.1303 -0.0745  0.2276
16665W        W59656   5.204  26.434  15.994 -0.1113  0.0022 -0.0762
16666W        W59657  20.617  32.280   3.723  0.3680  0.2787 -0.0332
16667W        W59658   3.532  20.990  22.496 -0.1038  0.0955 -0.0775
16668W        W59659  24.283   5.925   1.011  0.0569  0.1145  0.2892
16669W        W59660  26.553  23.164  15.390 -0.1767  0.0864 -0.0741
16670W        W59661   7.122  30.100  23.277  0.3107  0.0651  0.2674
16671W        W59662  14.732  17.567  14.049 -0.1148  0.2516 -0.0598
16672W        W59663   2.913  12.009  20.154 -0.2228  0.3790  0.0041
16673W        W59664   5.034   5.029  25.048 -0.2007  0.1170  0.3169
16674W        W59665  30.012  25.427   0.295 -0.1296 -0.0249 -0.0035
16675W        W59666   4.568  30.333  26.679  0.1208 -0.0017 -0.2951
16676W        W59667  28.884  34.025  16.999  0.4070  0.0915  0.3287
16677W        W59668   3.037  11.076   2.313 -0.1151  0.0657 -0.1392
16678W        W59669  15.638  31.903  21.615  0.0818  0.2489  0.0015
16679W        W59670   0.973   9.153   7.320  0.0035 -0.1772 -0.1675
16680W        W59671  13.516  24.110  20.722  0.1692  0.3462 -0.1200
16681W        W59672   1.964  26.096  27.462  0.0682 -0.1208 -0.3264
16682W        W59673  29.017  17.534   1.505  0.3458 -0.0750  0.3178
16683W        W59674  10.755  32.631  25.354 -0.0129  0.2593  0.3783
16684W        W59675   3.734   7.642  19.911 -0.1288  0.1293 -0.4099
16685W        W59676   2.606  26.638  18.723 -0.0718 -0.2572 -0.1456
16686W        W59677  32.924  29.264  24.646  0.1655  0.2759  0.1683
16687W        W59678   3.956   1.259  19.323 -0.2384  0.2360  0.2598
16688W        W59679   5.889  22.221  14.728 -0.0680  0.0748  0.1464
16689W        W59680  33.306  25.725  14.477  0.2597 -0.0430  0.0917
16690W        W59681  33.989   8.268   3.948 -0.2197  0.0270 -0.0036
16691W        W59682   5.442  23.518  19.319  0.1160 -0.2209  0.1699
16692W        W59683  28.913   2.910  18.761  0.1169  0.1395 -0.1136
16693W        W59684  34.312  18.918   3.955  0.0864  0.0011  0.0702
16694W        W59685  34.536  25.483  20.686 -0.4112  0.1117  0.1905
16695W        W59686  29.260   9.078  16.977 -0.2399 -0.1259  0.3909
16696W        W59687  13.972   1.887  26.439  0.4119 -0.1988  0.0068
16697W        W59688   1.253  10.955  19.561 -0.4300  0.0041 -0.0770
16698W        W59689  34.479  29.610  18.330  0.0217  0.1455 -0.1172
16699W        W59690   3.886  17.826  24.890  0.0408  0.0260 -0.1072
16700W        W59691   4.440  26.006   2.563 -0.0244 -0.3124 -0.0151
16701W        W59692  19.389  15.418  21.610  0.0320  0.1232  0.2024
16702W        W59693   6.859  34.621   2.777  0.0428  0.4479 -0.2570
16703W        W59694  33.854   5.758  24.894  0.0959 -0.1205 -0.2453
16704W        W59695   7.785  21.801  21.451 -0.0999  0.2411  0.0258
16705W        W59696  28.343  20.975   2.475  0.0854  0.1936  0.1876
16706W        W59697  29.517  29.303  25.997  0.4002 -0.0640  0.1941
16707W        W59698  31.612  10.180  21.048 -0.0837 -0.2617 -0.0538
16708W        W59699   2.065  15.948   8.386  0.1572  0.1485  0.0274
16709W        W59700   4.770  22.629   2.273  0.2287 -0.2382  0.1741
16710W        W59701  32.020  19.753  25.920  0.2653  0.1694 -0.2495
16711W        W59702   4.352  25.394   4.014 -0.0427 -0.1739 -0.0038
16712W        W59703  30.086  26.937  13.801 -0.0653  0.3375  0.3444
16713W        W59704  13.907  29.420   6.267  0.2317  0.0327 -0.0640
16714W        W59705   6.456  22.726  17.319 -0.1306  0.1590 -0.1507
16715W        W59706  29.288   3.217   9.689  0.1440  0.0932  0.4707
16716W        W59707   4.143   3.503  28.771 -0.1541 -0.0596 -0.0146
16717W        W59708   2.004   2.945  20.091  0.0176  0.0500 -0.2172
16718W        W59709   4.615  22.369  16.745 -0.2974 -0.0507  0.1429
16719W        W59710  23.491  21.152   5.119 -0.1857  0.0964  0.3736
16720W        W59711  11.470   1.055  28.562 -0.0513 -0.0767 -0.2715
16721W        W59712  23.523  20.666   5.949 -0.0527 -0.2048  0.0902
16722W        W59713  25.518  33.961  20.543  0.0097 -0.3038 -0.1612
16723W        W59714   1.583  23.354  23.857 -0.2703  0.0947 -0.2065
16724W        W59715  20.738  28.728  27.099 -0.0414 -0.1294 -0.0518
16725W        W59716   2.467  13.578  28.314  0.4326 -0.0492  0.0898
16726W        W59717   4.415   5.393  28.908 -0.2119  0.0354  0.1101
16727W        W59718   2.192  31.934   5.451  0.1307  0.0749 -0.1235
16728W        W59719  26.743  26.448  21.994 -0.1232 -0.3427 -0.2002
16729W        W59720  28.347  32.286   1.284  0.0914  0.1369 -0.0311
16730W        W59721   7.692  27.636   3.314 -0.1010  0.2878  0.0153
16731W        W59722  14.083  16.729  22.372 -0.2708  0.0524  0.0762
16732W        W59723   0.486  25.564  28.107 -0.6973  0.2301  0.0052
16733W        W59724  30.957   2.730  18.310 -0.2674 -0.0306  0.1691
16734W        W59725  23.001  25.764  14.892  0.1588  0.2743  0.0826
16735W        W59726  13.410  33.516   5.992  0.0453  0.1203 -0.0649
16736W        W59727   0.388  25.277   3.249 -0.1458  0.2673  0.2506
16737W        W59728  12.292  27.011  15.419  0.0282  0.0840  0.1103
16738W        W59729  28.478   0.513   4.545 -0.1639 -0.2195 -0.3442
16739W        W59730  17.580  22.800   0.486 -0.2928  0.3230  0.1738
16740W        W59731  32.132  18.179  27.964 -0.1388 -0.0210 -0.1948
16741W        W59732  10.827  24.845  17.820  0.0218 -0.1957 -0.2174
16742W        W59733  25.614  23.595  22.118  0.1924  0.1251 -0.2916
16743W        W59734   5.802   1.417  27.702  0.1105 -0.1307  0.1258
16744W        W59735  12.406  14.119  19.352  0.1128 -0.0970  0.0195
16745W        W59736  24.488  21.864  24.305  0.3843  0.0521 -0.0349
16746W        W59737  29.040  24.468  26.987 -0.2210 -0.2204 -0.2724
16747W        W59738   7.776   9.762   1.226  0.0400 -0.1809 -0.0730
16748W        W59739  25.883   3.628   7.846 -0.0225  0.0789 -0.0223
16749W        W59740   1.288  15.543   4.127  0.0585  0.2884  0.0266
16750W        W59741  31.577  29.336   0.532  0.2197 -0.3547  0.0622
16751W        W59742  17.107   6.779   1.926 -0.0337  0.0877  0.1699
16752W        W59743  26.328  21.619  13.861 -0.2851 -0.2463 -0.0861
16753W        W59744  32.274  17.307   0.630 -0.0464  0.1008 -0.0159
16754W        W59745  33.435  20.639   2.998 -0.2303  0.0759  0.2176
16755W        W59746   3.531  33.758  16.999  0.4565  0.0537  0.0923
16756W        W59747   2.998  10.345  27.729 -0.0771 -0.0845 -0.0826
16757W        W59748  21.465  26.904  21.974  0.2052  0.0912  0.1877
16758W        W59749   5.082  28.829   8.237  0.2244 -0.2168 -0.0419
16759W        W59750  10.465  27.423   4.422 -0.0918 -0.1057 -0.2472
16760W        W59751  25.001  16.033   6.220 -0.3437  0.1994 -0.1385
16761W        W59752  25.388  25.145   3.161  0.1733 -0.1410  0.2735
16762W        W59753   0.482  22.848  29.020  0.0422 -0.0251  0.0655
16763W        W59754   2.986  24.285  26.148 -0.0567 -0.2418 -0.0867
16764W        W59755  12.104  24.049  29.044  0.4704  0.0808  0.0983
16765W        W59756   6.316  19.093  27.405 -0.0743 -0.0704  0.0987
16766W        W59757  32.938   0.663   8.843  0.1282  0.0898 -0.0593
16767W        W59758  21.070  14.189  28.351  0.1260 -0.1483 -0.0790
16768W        W59759  34.587  29.892  24.200  0.1261 -0.1061 -0.0643
16769W        W59760  22.541  24.218   9.183 -0.0234 -0.0758 -0.1222
16770W        W59761  21.893  33.271  18.113  0.3077  0.1040  0.0308
16771W        W59762  15.886   9.769  28.775 -0.0503  0.0422 -0.0401
16772W        W59763  16.990   2.483  26.790  0.1161  0.0983 -0.2503
16773W        W59764  16.279  13.820   8.085 -0.0582 -0.2238  0.0196
16774W        W59765   5.727   3.649  25.090 -0.0103  0.0811  0.0776
16775W        W59766   5.401   1.773  25.398 -0.0634  0.0203  0.2807
16776W        W59767  27.044  11.338   9.046  0.0061  0.1372  0.3386
16777W        W59768  25.815  22.960  17.147  0.0120  0.5704  0.1659
16778W        W59769   5.414  16.372  27.143  0.1390 -0.0224  0.4539
16779W        W59770  17.648  27.090  21.321  0.2467 -0.3025 -0.3975
16780W        W59771   3.914  18.003   2.958 -0.0415 -0.0436  0.2007
16781W        W59772   8.219  27.669  17.648 -0.0897  0.0433 -0.0579
16782W        W59773  19.106   6.798  21.278 -0.1053  0.0990  0.2039
16783W        W59774  21.922  26.611  27.451 -0.1904  0.1283 -0.1315
16784W        W59775  26.937  28.757  13.918  0.0411  0.0030  0.2761
16785W        W59776  26.033  28.696   6.053  0.1248  0.2347  0.0142
16786W        W59777  18.440   0.609  24.384  0.0225 -0.2906 -0.1471
16787W        W59778  32.795  16.513   1.706  0.3471 -0.1933 -0.0863
16788W        W59779   5.378  29.135   9.567 -0.0869  0.0576 -0.1952
16789W        W59780  27.964  30.594  18.631 -0.0485  0.0521 -0.3709
16790W        W59781   3.981  24.002   6.220 -0.0179  0.0987 -0.2028
16791W        W59782  29.941  28.755  23.405 -0.1222  0.1577 -0.2270
16792W        W59783   2.897  19.455   0.638  0.0161 -0.2514 -0.6453
16793W        W59784  33.859   0.592  28.830 -0.0599  0.0979 -0.0704
16794W        W59785  32.960  24.955  27.481 -0.0934 -0.1038 -0.1761
16795W        W59786  30.115  24.607  27.410  0.1186  0.1589 -0.3783
16796W        W59787  30.733  25.079  21.835 -0.3294 -0.0525  0.3390
16797W        W59788  25.508  21.754   2.148  0.1852  0.3104 -0.1070
16798W        W59789  26.770  31.825   8.020 -0.1138  0.2887 -0.0379
16799W        W59790  10.620  31.561  19.822  0.0841 -0.2879  0.3346
16800W        W59791  29.903  17.797   9.391 -0.2108 -0.1343 -0.3548
16801W        W59792  29.889   0.867  14.080  0.2962  0.0941  0.3210
16802W        W59793   8.733  23.277   6.294  0.0505  0.0599 -0.1691
16803W        W59794  13.492  21.500  19.015 -0.1212  0.0538  0.2216
16804W        W59795  29.953  33.662  26.226  0.0929 -0.0429 -0.0951
16805W        W59796  30.978  18.293  26.279 -0.3216 -0.1080  0.2321
16806W        W59797  28.042  19.209  17.518 -0.1941  0.0842  0.3230
16807W        W59798  17.257  12.800  28.982  0.0343 -0.1188 -0.0149
16808W        W59799  22.148   5.122   1.953 -0.2357  0.2057 -0.0400
16809W        W59800  10.571  21.790   2.611  0.0078 -0.1616 -0.1849
16810W        W59801   6.328   1.290  24.118 -0.0299  0.0659  0.2166
16811W        W59802   3.469  25.232  14.775 -0.0619 -0.1418 -0.0237
16812W        W59803  29.633   8.592  10.125 -0.2694 -0.1894  0.1416
16813W        W59804  33.622  17.386   7.610  0.1574  0.1762  0.3109
16814W        W59805   0.357  27.490  27.381  0.0221 -0.1713 -0.0968
16815W        W59806  33.727  25.084   2.204  0.1518 -0.3026  0.3402
16816W        W59807  34.491  27.794   3.515 -0.3204 -0.3837 -0.2546
16817W        W59808   0.335  16.296  24.806  0.0609  0.2171  0.1194
16818W        W59809   8.130  33.899  17.130  0.0334 -0.2561  0.3004
16819W        W59810  34.678  18.587  27.838 -0.0590  0.0729  0.1462
16820W        W59811  34.717   7.781  16.502  0.0516  0.2160  0.0390
16821W        W59812  29.307  11.546   2.873 -0.3618 -0.0375 -0.1699
16822W        W59813  31.438   3.966   1.778  0.1151 -0.0575 -0.0633
16823W        W59814  25.605  11.918  20.673  0.1574 -0.3976  0.1811
16824W        W59815  21.510  14.939  15.013  0.1511  0.2250 -0.3148
16825W        W59816   6.333  29.451  16.524  0.1359 -0.0950  0.1021
16826W        W59817  31.326  30.149   6.072 -0.1259  0.0714  0.0021
16827W        W59818  30.700  20.876   3.372  0.2291  0.4616 -0.1881
16828W        W59819   2.834   7.250  18.586 -0.0737  0.1842  0.2141
16829W        W59820   1.160  10.832   0.409 -0.0495  0.0149 -0.0128
16830W        W59821  25.883   1.398  15.655 -0.2846 -0.1938 -0.1685
16831W        W59822   9.156  13.199  29.098  0.0426 -0.1831  0.3664
16832W        W59823   0.067  34.348  28.353  0.2365  0.0901  0.1363
16833W        W59824  28.076  14.062  17.948 -0.1065 -0.2798 -0.0099
16834W        W59825  28.494  29.645  20.908  0.3950 -0.0855  0.1196
16835W        W59826  27.531  27.018  20.049 -0.1445 -0.1227  0.2294
16836W        W59827   1.053   0.577  23.435 -0.1661  0.1330 -0.0052
16837W        W59828   0.714  27.396   5.184 -0.1910 -0.0119 -0.1156
16838W        W59829  10.719  25.197  20.189 -0.1299  0.0751 -0.1835
16839W        W59830  28.645  33.508  20.754 -0.3181 -0.2257 -0.2612
16840W        W59831  26.175  30.158  17.033 -0.0245 -0.2581  0.0905
16841W        W59832  31.989  18.500   5.478  0.2886  0.1543 -0.0825
16842W        W59833  28.000   4.848  28.329 -0.0107 -0.0049 -0.2126
16843W        W59834  11.260   3.463  26.283  0.0221 -0.0541  0.2148
16844W        W59835   2.046  33.613  25.090  0.1935 -0.0913 -0.1425
16845W        W59836  11.380  25.901   0.941  0.1219 -0.0465 -0.1857
16846W        W59837  31.587  23.448   4.593  0.2138  0.1598 -0.0132
16847W        W59838   3.854  20.630  18.350  0.1276 -0.0710  0.0518
16848W        W59839   0.358  34.181  26.928  0.4340 -0.1324  0.2905
16849W        W59840  31.612  32.388  21.682  0.0438  0.0490  0.0536
16850W        W59841   0.462   1.320  26.188 -0.3363  0.2227 -0.0836
16851W        W59842   6.375  24.413   0.197  0.1441  0.0997 -0.0566
16852W        W59843  33.280  23.380  15.573 -0.0740 -0.0850  0.2826
16853W        W59844  10.920   3.410  28.112 -0.0105 -0.0601 -0.2611
16854W        W59845  25.662  15.840   0.764  0.1640  0.4137 -0.2048
16855W        W59846  32.832  19.664   5.569  0.1120  0.1742  0.0034
16856W        W59847  32.520  12.679  27.806 -0.1290 -0.0598 -0.1985
16857W        W59848   0.499  21.580   1.369  0.1102 -0.3766 -0.0498
16858W        W59849  34.446  27.284  28.149 -0.0636 -0.0261 -0.2810
16859W        W59850   9.902  18.532   2.673  0.2928  0.0489  0.2460
16860W        W59851  30.780  24.390  14.156 -0.1078 -0.1634  0.0746
16861W        W59852   1.395  30.555  15.446 -0.0557  0.3142  0.0163
16862W        W59853  26.969  23.519   8.251 -0.1442  0.3548  0.2536
16863W        W59854  12.952  24.527  24.974  0.1067 -0.2453  0.1627
16864W        W59855  29.038  21.906   8.341 -0.3376  0.4325  0.0044
16865W        W59856  18.516  27.430  27.180  0.1938  0.3296  0.1165
16866W        W59857  14.995  21.837   1.410 -0.3802 -0.1001  0.1766
16867W        W59858   9.218  10.159  18.083 -0.1240 -0.0503 -0.0025
16868W        W59859  14.322  23.907   6.609  0.1798 -0.0961  0.2040
16869W        W59860   8.033  30.710  17.141  0.2169  0.0487 -0.1417
16870W        W59861  22.822  32.241  24.333  0.0897 -0.0585  0.0729
16871W        W59862   1.701  25.838   8.968 -0.1686 -0.5408 -0.0656
16872W        W59863   4.057  33.468  14.806  0.1730 -0.1589  0.0696
16873W        W59864  29.038  30.835  25.691 -0.2687  0.0405  0.4728
16874W        W59865   6.485   1.695   3.454  0.0539  0.3200  0.0530
16875W        W59866  29.413   0.426  24.516  0.1934  0.1428  0.1025
16876W        W59867   1.192  30.680   6.610  0.1004 -0.0375  0.3459
16877W        W59868   9.365  22.358   9.570 -0.0895  0.1324 -0.2146
16878W        W59869   7.327  17.598  16.784 -0.0693  0.0926  0.0788
16879W        W59870  29.566   2.793   7.262  0.0086  0.1053  0.1908
16880W        W59871  30.479   4.429  19.855  0.0095 -0.0981  0.1365
16881W        W59872  21.162  24.567   1.089 -0.0229 -0.0152  0.1067
16882W        W59873  13.011  18.198  22.320 -0.1545 -0.2193 -0.2208
16883W        W59874  16.188  30.223   1.017  0.0551  0.0698 -0.0570
16884W        W59875   1.825  26.980   4.387 -0.0376  0.0042 -0.2124
16885W        W59876   2.125  24.228  23.667  0.0399 -0.2464 -0.1975
16886W        W59877   0.124  15.791  19.161 -0.1020  0.0587  0.0686
16887W        W59878   3.558   5.248  19.307 -0.3159  0.0678  0.1424
16888W        W59879  27.551   4.212  24.821 -0.0385  0.3110  0.0619
16889W        W59880  24.155  30.951   7.480  0.0257 -0.1761  0.0894
16890W        W59881  28.088  16.032   0.211  0.2813 -0.1361 -0.1718
16891W        W59882  10.009  16.734   3.599 -0.1492  0.1579 -0.0104
16892W        W59883  14.514  29.353  17.094  0.1160  0.1501 -0.2464
16893W        W59884  19.715   4.186  24.492  0.0353  0.1808 -0.1857
16894W        W59885  27.965   4.620   1.249  0.0657 -0.1976  0.3006
16895W        W59886   5.592   6.238   4.272 -0.1191 -0.0488  0.2465
16896W        W59887  26.457  29.862  13.151 -0.1815  0.3280 -0.2206
16897W        W59888  12.347  17.732  26.726  0.1172  0.1051 -0.1597
16898W        W59889  33.277  31.126  29.059 -0.0360 -0.3457  0.0727
16899W        W59890   5.307  13.097  25.258  0.1467  0.1620  0.1139
16900W        W59891   5.114  17.092  25.203  0.1196  0.0741 -0.1751
16901W        W59892   3.079  31.643  20.960 -0.1659 -0.3027 -0.0085
16902W        W59893  29.063   1.424  25.775 -0.1050 -0.1536  0.1137
16903W        W59894  25.094  19.851   7.739  0.2980 -0.2601 -0.0721
16904W        W59895   2.541   1.146  27.156  0.2762 -0.2389  0.0373
16905W        W59896  30.315  29.916  27.716 -0.2928  0.1427 -0.1892
16906W        W59897  28.341  11.900  22.840  0.1110 -0.4526  0.3330
16907W        W59898  14.374   2.718   5.173  0.3251 -0.0106  0.3330
16908W        W59899  10.028   6.912  14.922  0.2451  0.1308 -0.2058
16909W        W59900   0.913  29.020  24.388  0.1441 -0.0700  0.0197
16910W        W59901   9.335  19.704  27.359  0.0811  0.1409  0.0028
16911W        W59902   0.803  24.616   1.921  0.2528 -0.0412  0.4378
16912W        W59903  26.950  14.886  22.330 -0.0297  0.0448  0.0023
16913W        W59904  25.081  23.468   4.608 -0.0608 -0.2494 -0.0265
16914W        W59905  28.584  18.476  23.910 -0.0034  0.0638  0.1809
16915W        W59906  24.078   0.059  20.694  0.0437  0.0044  0.1408
16916W        W59907   4.443  34.632   6.617 -0.1805 -0.1846 -0.3369
16917W        W59908  23.315  32.145  28.295  0.4124 -0.1204 -0.1323
16918W        W59909  17.881   8.786  14.886  0.1412  0.0432  0.0881
16919W        W59910   2.392  29.101   9.210 -0.1896  0.0535 -0.3834
16920W        W59911   3.197   7.780   9.154 -0.1749  0.3340 -0.0253
16921W        W59912   6.706  18.184  19.222 -0.2916  0.0864 -0.2451
16922W        W59913   6.698  24.513  15.643 -0.0657  0.1909 -0.0048
16923W        W59914  21.033  29.914  21.154 -0.0028 -0.0536  0.2065
16924W        W59915  10.194  21.198  28.808 -0.0869 -0.2843 -0.2392
16925W        W59916  32.716  20.224  18.339 -0.4480 -0.2249  0.4619
16926W        W59917  29.897   0.011   2.965 -0.2175 -0.0923 -0.2155
16927W        W59918  15.607  14.864  16.074  0.1817  0.0677  0.1301
16928W        W59919  29.559  20.146  23.843  0.1386 -0.0038  0.1134
16929W        W59920  14.447  17.762  28.710 -0.1573  0.0937  0.2884
16930W        W59921  24.217  32.813   0.593  0.2409  0.0682 -0.2143
16931W        W59922  33.480   8.902  21.528 -0.2113 -0.0363 -0.1259
16932W        W59923  24.069   9.826  26.459 -0.0388  0.0755 -0.3574
16933W        W59924  32.656  28.244  18.565  0.0459  0.1493 -0.1931
16934W        W59925   3.281  20.321  27.992  0.2187 -0.0864  0.1763
16935W        W59926  23.295   9.414  21.352 -0.1221  0.2487 -0.0336
16936W        W59927  16.056  25.001  29.129  0.1556 -0.2150  0.0263
16937W        W59928  10.676  25.044   2.119 -0.0610  0.1557 -0.0630
16938W        W59929  28.713  19.825   6.047 -0.0839 -0.2172 -0.0322
16939W        W59930  27.725  14.367   7.331 -0.2997  0.1558  0.4259
16940W        W59931  34.074   9.377   9.960 -0.0233  0.0131  0.0247
16941W        W59932   1.893  16.679  20.886  0.0538  0.0179  0.2018
16942W        W59933  25.991  22.077   0.647 -0.1284  0.1299  0.3331
16943W        W59934  34.421  17.194   2.579  0.3296  0.0289 -0.3214
16944W        W59935  26.692  29.660   4.741 -0.4583  0.0296 -0.0563
16945W        W59936  27.544  29.613   8.062  0.2442  0.0652 -0.3625
16946W        W59937   0.491  20.939  25.122 -0.2700 -0.2869  0.2838
16947W        W59938   6.991  15.248  23.540  0.0385 -0.0207  0.1064
16948W        W59939   3.735  19.250  15.967  0.0218 -0.3886 -0.0966
16949W        W59940   5.559  30.903   3.254 -0.2831 -0.1772 -0.0663
16950W        W59941  11.178   5.926  27.937  0.1887  0.0219 -0.1339
16951W        W59942   9.380  32.011  14.233  0.1615 -0.1998 -0.1051
16952W        W59943  10.494  20.840   8.172  0.0139 -0.1942 -0.4412
16953W        W59944   3.127   8.212  22.767 -0.2673  0.0182 -0.0463
16954W        W59945  25.606  28.671  20.980 -0.1152 -0.1245 -0.0163
16955W        W59946  26.091   7.243  14.850  0.0053 -0.2931  0.1185
16956W        W59947  14.704  26.274   8.514  0.0819  0.2556 -0.2759
16957W        W59948  26.229  25.241  27.401  0.0583  0.0428  0.2900
16958W        W59949   4.818  16.754   1.850  0.0922 -0.1225  0.1317
16959W        W59950  33.262  17.143  23.288  0.3152  0.0427  0.3727
16960W        W59951  15.093  33.949  22.571 -0.0950 -0.2949  0.1985
16961W        W59952  32.464  15.721  26.353  0.0153  0.0221  0.3973
16962W        W59953  11.693   0.621   6.020 -0.2250  0.2489 -0.1312
16963W        W59954  28.311  23.194   9.160  0.0549 -0.2348 -0.0326
16964W        W59955  33.116  13.340  18.668  0.3007 -0.1334 -0.1282
16965W        W59956   2.857   6.159  19.521 -0.2300 -0.2815 -0.0915
16966W        W59957   2.256  25.895   0.539  0.0976 -0.0580 -0.0431
16967W        W59958  19.827   6.109   5.743 -0.1218 -0.2487 -0.0277
16968W        W59959  12.528  31.797  21.345  0.0299 -0.0619 -0.0539
16969W        W59960   8.765  12.056  24.701  0.0899 -0.0879  0.0136
16970W        W59961   5.348  26.659  14.593 -0.2971 -0.3691 -0.0976
16971W        W59962  19.253   3.861  21.538 -0.0917  0.4713  0.0489
16972W        W59963   2.802  26.322  20.829  0.2867  0.0268 -0.0703
16973W        W59964   1.489  24.720   3.045 -0.1370  0.2718  0.1326
16974W        W59965  10.373  10.607  28.206 -0.1006 -0.0135  0.1056
16975W        W59966   7.372  26.582   7.472  0.0487 -0.1460 -0.2950
16976W        W59967   7.970  14.573  28.167  0.2103 -0.2157  0.1499
16977W        W59968  19.708  21.842  26.396 -0.0200  0.0497  0.0468
16978W        W59969   7.166  17.967   2.971  0.0352 -0.2794  0.3870
16979W        W59970  30.948   5.067   0.226  0.0004  0.0567  0.0207
16980W        W59971  12.493  29.485  27.023 -0.0727  0.0106 -0.1494
16981W        W59972  24.190  15.149   4.136  0.4365 -0.0049 -0.1478
16982W        W59973   7.643  31.163   1.618 -0.1394  0.2438 -0.1314
16983W        W59974   9.253  24.307   8.052  0.0837  0.1648  0.1271
16984W        W59975  10.072  15.612  18.938  0.1560  0.0987  0.2198
16985W        W59976   8.940  30.743   4.074 -0.4550  0.0876 -0.0840
16986W        W59977   2.886   0.264  19.788 -0.3484  0.0764 -0.1920
16987W        W59978   3.492   2.106  17.575 -0.1995 -0.0059  0.0750
16988W        W59979  31.994  17.117  18.233 -0.0321  0.0654 -0.1231
16989W        W59980   4.182  28.545   6.141 -0.0883 -0.2751  0.2570
16990W        W59981   7.352  31.607  29.118 -0.0431 -0.0935 -0.1258
16991W        W59982   7.269  30.752  17.645  0.2315  0.0299  0.2079
16992W        W59983  24.457   2.204  27.523  0.4832  0.0417  0.3534
16993W        W59984  13.086  25.483  22.850 -0.0116  0.0119  0.0873
16994W        W59985  32.330  14.634   2.688  0.0119  0.2502  0.0745
16995W        W59986  31.926   3.579  26.854 -0.1358 -0.2665 -0.1855
16996W        W59987  11.108  20.802  25.538 -0.2698 -0.0205 -0.0484
16997W        W59988  33.157   5.347  10.322 -0.0280 -0.1229  0.2668
16998W        W59989   6.113  18.384  15.708 -0.0915  0.4109  0.2911
16999W        W59990  13.372  28.985  22.255 -0.2425  0.3499 -0.0208
17000W        W59991   1.552  15.978   9.964 -0.1380 -0.0056  0.1882
17001W        W59992   2.832  21.673  19.991  0.3753  0.0077  0.1430
17002W        W59993  12.436  27.156  21.506  0.1221  0.3047 -0.0198
17003W        W59994  25.813   4.775  13.853 -0.2991 -0.4946 -0.1653
17004W        W59995   0.128  26.999   1.029 -0.3885 -0.1469 -0.3827
17005W        W59996  12.631  26.882   2.405 -0.0346  0.0693 -0.1984
17006W        W59997  12.898  23.082   0.396 -0.0514 -0.0169 -0.2947
17007W        W59998  30.861  17.437  19.692  0.1495 -0.1712  0.2519
17008W        W59999  32.402  25.291  24.349 -0.0536  0.1326 -0.1386
17009W        W60000  28.541   8.512   3.845 -0.2353  0.0103  0.2389
17010W        W60001  11.000  28.696  22.246  0.1280  0.0782  0.1562
17011W        W60002  29.904  23.412   1.369  0.1316 -0.0354 -0.0348
17012W        W60003   3.094  19.636  19.164  0.0616 -0.1313  0.0080
17013W        W60004  11.745  20.053  24.822 -0.4139 -0.2854 -0.1374
17014W        W60005  34.085  17.181  26.938  0.1272 -0.0373  0.2699
17015W        W60006  33.811  14.408  27.691  0.3045  0.1881  0.0959
17016W        W60007   7.166  24.052   2.648 -0.2330 -0.2707  0.2769
17017W        W60008   1.034   1.901  26.077 -0.1207  0.1785 -0.1887
17018W        W60009  33.364  31.600  28.271  0.0686 -0.2090  0.0526
17019W        W60010  26.909  30.077  13.197  0.0002  0.4097  0.0913
17020W        W60011  34.524  26.068  21.400 -0.4193 -0.0133 -0.1948
17021W        W60012  19.352  27.473  27.074 -0.3560 -0.1777  0.0912
17022W        W60013   6.564   3.392   4.019  0.3287  0.0284 -0.2063
17023W        W60014  20.004   2.226   7.817 -0.2117 -0.1471 -0.1277
17024W        W60015  26.253  25.439   9.524 -0.1043  0.1344 -0.0265
17025W        W60016  25.182  34.769  16.205 -0.1354 -0.2507  0.1202
17026W        W60017   5.101  24.380  26.848 -0.1092  0.1824 -0.1077
17027W        W60018  19.272  24.062  24.130 -0.1824  0.1355 -0.0244
17028W        W60019  31.011  32.276   9.336 -0.2168 -0.3872  0.2385
17029W        W60020  26.935   2.310  16.527  0.1201  0.1953 -0.1670
17030W        W60021  24.820  23.897  23.368 -0.1514  0.1260  0.2159
17031W        W60022   4.089   9.558  25.290  0.1977  0.1526 -0.3496
17032W        W60023  26.927  25.152   7.650 -0.1231  0.3770  0.1927
17033W        W60024  12.235  27.950  18.292 -0.0816  0.0216 -0.1363
17034W        W60025  20.173   0.825  18.064  0.0257  0.1253  0.0667
17035W        W60026  30.101   0.964   4.986 -0.0578 -0.0071  0.1434
17036W        W60027  10.338  34.284   1.136  0.0554 -0.2030  0.2871
17037W        W60028   6.923   0.560  25.694  0.1468 -0.1864 -0.3362
17038W        W60029  13.136  33.328  27.936  0.3067  0.2658  0.0559
17039W        W60030  12.128  23.278  17.339 -0.1525  0.0031  0.0241
17040W        W60031   0.992   1.968  22.380 -0.0015  0.0652  0.2087
17041W        W60032   7.562   3.945  17.533 -0.4094  0.1162 -0.3174
17042W        W60033  24.028  28.171   5.303 -0.0205  0.1181 -0.0493
17043W        W60034  33.554   0.595   0.112 -0.0380  0.0229  0.0042
17044W        W60035   2.767  22.762  27.498  0.1558 -0.0262  0.1841
17045W        W60036  33.212  26.890   6.023 -0.3127  0.2090  0.3996
17046W        W60037   8.037  21.080  25.444 -0.0119 -0.1588  0.0641
17047W        W60038   4.672  11.113  19.008 -0.0545 -0.3321 -0.1661
17048W        W60039  24.406  31.982  18.264  0.1226 -0.4711  0.1571
17049W        W60040   6.396  22.842   1.402 -0.0774 -0.0546  0.4130
17050W        W60041  20.003  27.188   8.149 -0.1115  0.1324  0.0987
17051W        W60042  26.271  34.445  20.925  0.0847 -0.1028 -0.0917
17052W        W60043   5.546  24.699  26.296  0.1153 -0.0789 -0.1276
17053W        W60044   4.668  18.941  24.920  0.0948  0.4990 -0.2081
17054W        W60045   7.019  11.599  16.602  0.1445  0.0569 -0.0877
17055W        W60046  34.744   5.292  14.799 -0.2937  0.0429  0.1176
17056W        W60047  30.242  33.908  23.276 -0.2405 -0.0174  0.1470
17057W        W60048   6.471   1.354  25.981  0.3647  0.0032 -0.0574
17058W        W60049  11.002  21.338   0.288  0.0980 -0.0090  0.1330
17059W        W60050  32.892  10.715  21.396  0.3833  0.1730  0.0105
17060W        W60051  31.007  20.140  23.716 -0.0875  0.2040 -0.5478
17061W        W60052  18.136  27.637  13.439 -0.1473  0.1564 -0.1650
17062W        W60053  15.764  31.377  20.018  0.2779 -0.1171 -0.1351
17063W        W60054  24.022  33.667  27.720  0.1471  0.0872  0.0470
17064W        W60055   4.991  27.420  22.123 -0.2227 -0.2030 -0.0086
17065W        W60056   4.224  11.765   2.312  0.0733 -0.1758 -0.0674
17066W        W60057  20.025  26.523   2.968  0.1220 -0.3808 -0.0612
17067W        W60058  10.581  21.598  17.521  0.3954  0.0403 -0.2035
17068W        W60059  31.850  32.666  18.599 -0.0020 -0.0900 -0.0452
17069W        W60060  30.111  15.077  19.073 -0.1678 -0.1163  0.0509
17070W        W60061   6.276   8.253  25.631 -0.1535  0.0426 -0.0542
17071W        W60062  15.210  31.508   8.693  0.1062  0.3890 -0.2207
17072W        W60063   5.057  17.651  20.373 -0.2580 -0.1637 -0.2641
17073W        W60064   3.372  31.937   1.895  0.0812 -0.0510 -0.1025
17074W        W60065  31.366  28.501  20.525 -0.1608 -0.1062  0.2185
17075W        W60066  32.968  23.048  14.758 -0.0427  0.1260  0.3248
17076W        W60067  23.608  29.656   3.467 -0.0437  0.1106 -0.1018
17077W        W60068  14.124  17.111  26.122  0.1608 -0.0345  0.2215
17078W        W60069  33.234   1.437  25.111  0.1131 -0.0804  0.3079
17079W        W60070   9.274  14.361   3.197 -0.1137  0.3499  0.1229
17080W        W60071   8.479  28.042   5.264 -0.1375 -0.1470  0.4117
17081W        W60072  13.118  18.409  13.397  0.0966  0.0900  0.2052
17082W        W60073   2.815  24.852  27.563  0.2891  0.0137  0.1910
17083W        W60074   6.443  12.842  27.407 -0.1270  0.0248  0.1251
17084W        W60075  28.903  20.982   2.884 -0.1343 -0.1180 -0.3216
17085W        W60076   6.892  30.667   0.662 -0.0428  0.0594  0.1078
17086W        W60077   0.402  28.482   7.897 -0.3157  0.0581 -0.1514
17087W        W60078  25.701  28.110   7.712  0.0868 -0.1675  0.1928
17088W        W60079  28.682   5.034  13.652  0.1238 -0.0713 -0.3852
17089W        W60080  30.442  21.914  28.125  0.1559  0.1226  0.1191
17090W        W60081   2.033  22.973  26.809 -0.1245  0.2454 -0.2995
17091W        W60082  22.772  32.915  23.216 -0.1623  0.3415 -0.0353
17092W        W60083   0.269   6.072   3.615 -0.0833 -0.2327 -0.1127
17093W        W60084  30.919  17.622  15.328 -0.1217 -0.1311 -0.2194
17094W        W60085  14.980  11.001  18.118 -0.0331  0.4668  0.3559
17095W        W60086   6.845   6.758   1.660  0.0420  0.4510  0.0670
17096W        W60087  31.259  28.231   2.096 -0.0377 -0.3044  0.3001
17097W        W60088   2.160  16.355  22.935 -0.2382 -0.1512  0.0330
17098W        W60089   3.932  24.210  21.046 -0.1059  0.2161  0.0279
17099W        W60090  33.759  21.382  17.355 -0.2517  0.3749 -0.0548
17100W        W60091  32.550   4.200   9.173 -0.3643 -0.3795  0.0824
17101W        W60092  26.519  18.983   5.214  0.1858 -0.2250 -0.3268
17102W        W60093  20.070  19.673  15.605 -0.0285  0.1040 -0.1029
17103W        W60094   4.956   3.755  25.420  0.1566  0.1073  0.0077
17104W        W60095  11.081   7.187   2.533  0.1336 -0.0658  0.0317
17105W        W60096  22.980  21.649  17.438  0.2761 -0.2593 -0.0401
17106W        W60097  22.022  26.361  25.071 -0.2927 -0.3185 -0.4424
17107W        W60098  30.069  30.315  21.964  0.0006  0.2697  0.0708
17108W        W60099   1.141   6.705   2.940  0.2948  0.1122  0.0215
17109W        W60100  18.919  23.820   1.469  0.1035  0.1209  0.2431
17110W        W60101  12.293  34.000  14.573 -0.0736  0.0521 -0.1582
17111W        W60102  28.890  23.950  24.398  0.3299 -0.1753 -0.0766
17112W        W60103   4.824  20.280  25.170  0.1988 -0.0764 -0.2679
17113W        W60104  27.875  17.572  24.591  0.0128 -0.1350  0.0172
17114W        W60105  11.682  24.371  28.862  0.1077  0.4068  0.2010
17115W        W60106  14.573  23.314  15.742 -0.0934  0.3178 -0.3078
17116W        W60107  12.960  31.425  26.872  0.1043  0.1780 -0.1274
17117W        W60108   9.577  28.813  28.586 -0.0110  0.1257  0.0643
17118W        W60109   9.922  11.039   1.743  0.0139  0.0386  0.3035
17119W        W60110  11.975   7.640  28.776  0.1425  0.0181  0.1299
17120W        W60111  10.440  13.655   3.642 -0.1189 -0.0563  0.2294
17121W        W60112   7.609  15.920  17.862  0.0371  0.0186  0.2669
17122W        W60113   4.770   2.801  17.594 -0.1426  0.1730  0.0325
17123W        W60114  29.536  33.194  21.007  0.1847  0.1480  0.0441
17124W        W60115   2.558   0.891   5.933  0.0227  0.1059 -0.1172
17125W        W60116  12.120   3.136  27.022  0.1863  0.0186  0.0552
17126W        W60117   4.896  26.787  18.993  0.0429 -0.0994  0.2422
17127W        W60118  25.969   8.613  22.459  0.0096  0.0076  0.2682
17128W        W60119  11.934  18.491   3.768 -0.0662 -0.1832 -0.0138
17129W        W60120  33.434  12.274  21.583 -0.0571 -0.1339 -0.3984
17130W        W60121  33.190  29.399  28.867  0.3534  0.0033 -0.0128
17131W        W60122   3.223  24.761   2.363 -0.1844 -0.1050 -0.1934
17132W        W60123  29.466  14.882  18.209 -0.0396 -0.2042 -0.0501
17133W        W60124  10.903   5.021   0.449 -0.0397  0.3592 -0.2142
17134W        W60125  18.162  32.004  22.081  0.2568  0.3430  0.1990
17135W        W60126   3.088   6.746  21.996 -0.0108 -0.3909  0.1602
17136W        W60127  22.662  29.900  19.716  0.2227 -0.2291  0.0644
17137W        W60128  29.752  32.400   3.385  0.0588 -0.2359  0.1848
17138W        W60129  33.165  31.536  21.601  0.1208  0.2031  0.2543
17139W        W60130  27.468  26.919   8.992  0.0874  0.2233 -0.0816
17140W        W60131   8.935  19.861  16.644  0.2134 -0.0612  0.0013
17141W        W60132   2.645  31.134   3.046 -0.0117  0.0692 -0.4192
17142W        W60133   2.799  30.277  27.248 -0.1052 -0.4597  0.1350
17143W        W60134   3.191   5.578  28.582  0.1668 -0.0839 -0.0750
17144W        W60135  17.067  21.974  29.211  0.2032  0.1268 -0.1797
17145W        W60136  10.889  11.504  25.954 -0.0259 -0.2333  0.0908
17146W        W60137   3.638  23.443  18.143  0.0024  0.2155  0.1458
17147W        W60138   9.521  28.516  23.653 -0.2992 -0.2778  0.2351
17148W        W60139   6.982  34.448  22.756 -0.0434  0.0354  0.3727
17149W        W60140  29.300   8.470  19.846  0.3810 -0.0097  0.1839
17150W        W60141  23.582  23.383  20.738  0.0404 -0.1027  0.0124
17151W        W60142  11.112   0.503   6.367 -0.0059  0.0686 -0.0643
17152W        W60143   5.167  34.373   6.209  0.1468 -0.3052 -0.0786
17153W        W60144   2.772  32.919   2.127  0.0498  0.0358 -0.2151
17154W        W60145  34.436  33.942   7.319  0.2109 -0.1816  0.1719
17155W        W60146  33.223  25.445  27.428  0.3365  0.1965 -0.1677
17156W        W60147  32.042  26.980  25.206 -0.1567 -0.2670 -0.2015
17157W        W60148  26.856   1.388   3.360 -0.0898  0.1972  0.0556
17158W        W60149  33.068  31.509  13.268 -0.2592 -0.3439 -0.2335
17159W        W60150  33.823   1.684  18.519 -0.2665  0.3272  0.2581
17160W        W60151   3.223  33.008  26.316 -0.4534 -0.1607  0.0286
17161W        W60152  34.733  21.740   6.342  0.2591 -0.3892  0.0972
17162W        W60153  18.197  28.255  28.685  0.1164 -0.2154 -0.1466
17163W        W60154  34.619  28.345   4.753  0.0176 -0.3175  0.3370
17164W        W60155  27.186  16.086  27.308 -0.0831 -0.2424  0.1021
17165W        W60156  12.907   8.550  17.884 -0.1477 -0.4106 -0.0383
17166W        W60157   0.401  24.708   8.594  0.0106 -0.1551  0.0644
17167W        W60158   2.192  27.137  20.011 -0.2064  0.1414  0.0043
17168W        W60159   3.578  22.570  20.676  0.1600  0.0078  0.4332
17169W        W60160  13.092   8.051   1.975  0.2505  0.2404 -0.0637
17170W        W60161  33.526  30.148  29.231 -0.0361  0.3092  0.1100
17171W        W60162  16.164  32.616   4.621  0.0998  0.1341 -0.1394
17172W        W60163  13.779  31.598   1.089 -0.3467 -0.2524  0.0521
17173W        W60164  31.057  26.373  20.485  0.4430 -0.2672 -0.1387
17174W        W60165   8.694  28.943  25.040  0.2029  0.1527 -0.0838
17175W        W60166  31.879  25.788  26.597 -0.3402 -0.0887 -0.0278
17176W        W60167  11.775  15.073  25.123  0.2749 -0.0721  0.0773
17177W        W60168   0.834  20.651  19.478  0.1723 -0.1925  0.4431
17178W        W60169  29.505   1.557  22.159 -0.2702 -0.1555 -0.1079
17179W        W60170   2.919  15.735  23.298 -0.2363 -0.2493 -0.0509
17180W        W60171  10.781   4.247   8.477  0.2742  0.2594 -0.3508
17181W        W60172   3.914  14.353  10.162 -0.0575  0.4187  0.0359
17182W        W60173   9.359  27.249  15.447 -0.0788  0.3287  0.2163
17183W        W60174   3.669  19.388   8.890 -0.0481  0.1082  0.5411
17184W        W60175  16.466  27.399  20.796  0.0747 -0.2197  0.0991
17185W        W60176  30.920  11.903  26.168 -0.3158 -0.0288  0.2605
17186W        W60177  21.213  18.808   4.643 -0.1189  0.1464  0.4295
17187W        W60178  33.752  33.917  24.577  0.0086 -0.2662 -0.0858
17188W        W60179  34.681   1.085   6.698 -0.0993 -0.0074 -0.0941
17189W        W60180   1.372   8.413  24.781 -0.0211  0.1527 -0.2130
17190W        W60181  13.086  20.084  17.079 -0.0433  0.2010 -0.0206
17191W        W60182  10.752   6.775  23.817  0.0086  0.3561 -0.0643
17192W        W60183   4.295  32.842  27.687  0.1877 -0.2507  0.0072
17193W        W60184  23.406  32.202   4.370  0.2072  0.2595 -0.1152
17194W        W60185  26.786  20.281  17.392  0.1800 -0.0312 -0.0009
17195W        W60186  21.977  17.718  21.406 -0.2287 -0.0890 -0.1769
17196W        W60187   0.784  23.229  29.210 -0.2470  0.0335 -0.2900
17197W        W60188  33.098   6.408  14.702  0.4072 -0.0319 -0.2238
17198W        W60189   5.832  26.427   2.013 -0.0662 -0.1560  0.5154
17199W        W60190   0.907  30.419   1.222  0.2039  0.0283  0.2750
17200W        W60191  29.274   1.968  16.651 -0.0740  0.1412 -0.2023
17201W        W60192   7.877  18.149   0.987  0.2061 -0.0015  0.3753
17202W        W60193  33.808   1.259   4.270 -0.1700 -0.2262  0.0451
17203W        W60194  28.359  23.993   2.068 -0.2983  0.2751 -0.3761
17204W        W60195  21.149  33.087   0.744  0.0830 -0.2451 -0.3298
17205W        W60196  12.449  26.705   1.043 -0.2625  0.3258  0.0336
17206W        W60197   1.106  18.035  10.614  0.1981  0.0633 -0.5104
17207W        W60198  10.283   4.206  27.046  0.1502  0.0940  0.2714
17208W        W60199  14.577  17.173  27.498  0.1001 -0.4678 -0.2539
17209W        W60200  32.603   1.075   8.862  0.1748  0.1885 -0.1600
17210W        W60201   5.353  17.959  27.277  0.1651  0.0423  0.0397
17211W        W60202   1.139   1.782  10.907  0.2188 -0.3081  0.0486
17212W        W60203  34.351   7.293   0.495 -0.2378 -0.0285 -0.2006
17213W        W60204  10.701  16.201  19.732  0.1774 -0.2188 -0.1573
17214W        W60205   2.023  28.613  22.166  0.2424  0.1623 -0.0896
17215W        W60206  32.758  24.275  26.105  0.0545 -0.5978 -0.0571
17216W        W60207  30.479  16.458  25.881  0.3071  0.0061 -0.0037
17217W        W60208   9.257  31.312  21.916 -0.1024  0.0347  0.1273
17218W        W60209  25.816   3.599  24.965  0.1568  0.2266 -0.0128
17219W        W60210  21.891  24.752  24.883  0.1481  0.0409 -0.1534
17220W        W60211  10.683  24.570  16.308 -0.0207  0.0773 -0.1468
17221W        W60212  31.216   3.572  26.871  0.0866  0.1647  0.1298
17222W        W60213  29.588   6.701  25.032 -0.0837 -0.1196 -0.4354
17223W        W60214  18.007   7.256  25.119  0.1170  0.2369 -0.0264
17224W        W60215   0.046  13.855  23.517  0.1180 -0.1003 -0.1646
17225W        W60216  27.844   0.933  26.123 -0.1691  0.4125 -0.2227
17226W        W60217  24.334  26.323  14.762 -0.0558 -0.0322 -0.0089
17227W        W60218  23.627  27.226   1.067  0.3336  0.3548  0.3600
17228W        W60219  13.182  33.107  20.921 -0.0112 -0.2468 -0.1191
17229W        W60220   1.117   5.926  22.054 -0.2198 -0.2315  0.1215
17230W        W60221  23.996   2.036  28.228  0.1051  0.2889 -0.0531
17231W        W60222   9.205  23.367  17.919 -0.0817 -0.1917  0.0633
17232W        W60223   0.379  28.734  26.522 -0.1444  0.1700  0.2208
17233W        W60224  29.732  16.565  17.426  0.0864 -0.0066  0.1031
17234W        W60225  15.131   8.455  27.978  0.2613 -0.3368  0.0830
17235W        W60226   2.232  30.456  21.271 -0.1708 -0.1827  0.0374
17236W        W60227  12.391  30.269  15.765 -0.1410 -0.4671  0.3223
17237W        W60228  32.478  28.846  17.961 -0.2209  0.1849  0.1054
17238W        W60229   6.352   4.372  15.452 -0.0440  0.0787  0.1943
17239W        W60230  30.923   2.920  14.520 -0.2907 -0.0829 -0.3460
17240W        W60231   1.664  26.165  16.406  0.0942 -0.0689 -0.5324
17241W        W60232  19.173   0.763  25.887 -0.1133  0.0535  0.0555
17242W        W60233   1.201  27.300  17.018 -0.1967 -0.2598 -0.0968
17243W        W60234   4.143   2.291  23.201 -0.0392 -0.1705 -0.2593
17244W        W60235   9.091   0.859  19.439 -0.0096  0.2952  0.1595
17245W        W60236  16.378  33.199  16.001  0.1933  0.0141  0.2072
17246W        W60237  13.142   7.086  27.268 -0.1225  0.3198  0.6415
17247W        W60238  25.789  23.837  16.202 -0.1097 -0.1202 -0.2756
17248W        W60239  21.228  23.751  13.193 -0.0550  0.3081  0.1572
17249W        W60240   6.568  26.806  23.158 -0.0089 -0.1134 -0.1349
17250W        W60241  27.807  22.080  14.476 -0.1797 -0.2289 -0.0049
17251W        W60242   8.493  24.497   2.539  0.2490 -0.1027 -0.1184
17252W        W60243   2.892  24.193  19.816 -0.1843 -0.2828 -0.1417
17253W        W60244  11.915  21.389   6.792  0.2135 -0.0418  0.2356
17254W        W60245  16.095  31.104  18.102 -0.2307 -0.3914 -0.0054
17255W        W60246  12.425   3.544  21.455  0.1990 -0.1374 -0.0518
17256W        W60247  11.293  11.371  10.403  0.0299 -0.0133  0.1881
17257W        W60248  21.277   9.711  28.785 -0.1987  0.1259 -0.2919
17258W        W60249   3.517  15.178   0.551 -0.1328 -0.0186  0.0996
17259W        W60250  15.879  29.771   6.365 -0.2660  0.0218 -0.0293
17260W        W60251  26.089  26.637  22.337 -0.0494  0.3323 -0.1042
17261W        W60252  29.200  18.291  20.534 -0.2194  0.1175  0.0742
17262W        W60253   1.632   4.913  23.933 -0.1993  0.0562  0.0724
17263W        W60254  30.211  28.440  19.547  0.1364 -0.0389  0.3152
17264W        W60255  27.401  13.733  22.716 -0.0383 -0.0208 -0.3425
17265W        W60256  30.246  27.697  13.519 -0.3917 -0.3908 -0.2735
17266W        W60257  31.076  29.714  15.429 -0.0270 -0.1991 -0.3819
17267W        W60258   7.443  18.188   0.114 -0.0198 -0.2273  0.0059
17268W        W60259   1.002  32.559  19.330 -0.2498 -0.1996  0.2327
17269W        W60260  11.374  17.574  17.947 -0.1395  0.1989  0.0515
17270W        W60261   5.966  23.334  20.020 -0.0422 -0.2559 -0.0581
17271W        W60262   9.961  31.950  20.628 -0.3033 -0.2500 -0.0638
17272W        W60263  16.205  31.634  13.995  0.2321 -0.1296 -0.1608
17273W        W60264  30.696  30.801  23.940  0.1430 -0.0958  0.1234
17274W        W60265  12.652   0.910  25.032 -0.0966 -0.0515 -0.0042
17275W        W60266   5.553   1.720  16.920  0.1619  0.0001 -0.0717
17276W        W60267   4.003  34.665  22.242 -0.0576 -0.2097  0.0619
17277W        W60268   9.821  15.076  20.800 -0.1460  0.0634  0.4280
17278W        W60269  21.274  32.982  25.487  0.0948 -0.0572 -0.1220
17279W        W60270   2.774  16.890  19.055 -0.0930  0.0903  0.1339
17280W        W60271  24.172  17.405  19.167  0.2482 -0.0123  0.0627
17281W        W60272   0.756  20.698  26.689  0.1967  0.2266  0.3298
17282W        W60273  33.905   5.057  14.504 -0.0121  0.2624 -0.1116
17283W        W60274  24.914  28.160   8.790 -0.2610  0.1539 -0.1756
17284W        W60275  29.539   0.191  19.686  0.1747 -0.1035 -0.0072
17285W        W60276  26.972  27.310  16.697 -0.0266  0.1831  0.2864
17286W        W60277  16.209  21.461  23.051 -0.4007  0.0503  0.5711
17287W        W60278   3.230   0.801  27.487 -0.0396  0.2316 -0.1550
17288W        W60279  25.926  20.792  18.171  0.2360  0.0218  0.0146
17289W        W60280   0.320   5.607  25.435  0.1150 -0.0008 -0.0256
17290W        W60281  30.797   4.733  18.135 -0.0172 -0.1099 -0.0543
17291W        W60282  11.276  18.965  19.849  0.0757  0.2611  0.0557
17292W        W60283  21.907   1.259  15.869  0.2148 -0.0859 -0.0179
17293W        W60284  17.817  32.674  21.940 -0.2471 -0.2923 -0.0731
17294W        W60285  30.800  24.550  23.656 -0.0242  0.1202  0.0178
17295W        W60286   0.556  25.669  20.936  0.0603 -0.0030 -0.0943
17296W        W60287  31.625  30.232   7.436 -0.0506  0.0963 -0.0876
17297W        W60288  29.784  33.406  14.672 -0.2104  0.0601 -0.0093
17298W        W60289  28.065  14.798  18.604 -0.1248 -0.0050 -0.2329
17299W        W60290   5.363   4.159  23.195 -0.2380  0.1070  0.0952
17300W        W60291  25.396  12.587  26.108  0.0856  0.0247  0.0543
17301W        W60292  32.701   7.940  18.185  0.2355  0.1214  0.0228
17302W        W60293   9.275  23.010  18.339 -0.0936  0.2954  0.1168
17303W        W60294   8.658  34.636  16.411 -0.1161  0.0550 -0.0843
17304W        W60295  31.715  27.767  24.618 -0.2033 -0.0076  0.0867
17305W        W60296   8.046  28.321  15.453 -0.0273 -0.2532 -0.1317
17306W        W60297  10.610  10.593  19.645  0.1999 -0.0936 -0.0714
17307W        W60298   4.380   4.228  18.595 -0.1250 -0.0169  0.1180
17308W        W60299   5.786  16.631  21.205  0.3287  0.0313 -0.1787
17309W        W60300  23.320  23.199   2.318 -0.1669 -0.1129 -0.3251
17310W        W60301  22.444  33.837   5.893  0.1153  0.0042 -0.0526
17311W        W60302   8.200   6.540   2.290 -0.3821  0.1104  0.1753
17312W        W60303  30.140  20.708  14.631 -0.3521 -0.0238  0.2095
17313W        W60304  15.115  30.233  23.644 -0.0221 -0.1414  0.3382
17314W        W60305  34.396  31.417  26.969 -0.1347 -0.3923 -0.1267
17315W        W60306   1.229  34.294  15.434  0.0282  0.0607  0.2227
17316W        W60307  18.047  25.684   3.339  0.0034  0.0765  0.0062
17317W        W60308   0.817   5.349  24.455  0.3080  0.0100 -0.0294
17318W        W60309   4.585  19.295  26.581  0.1143  0.2461 -0.1170
17319W        W60310  28.266   4.791  20.715 -0.0594 -0.0916  0.1011
17320W        W60311   0.176  25.229  15.762 -0.1495 -0.1652 -0.1578
17321W        W60312  27.028   4.631  19.521  0.1178 -0.0825 -0.0690
17322W        W60313  34.680   1.953  15.691  0.1668  0.0142 -0.1681
17323W        W60314  10.344   4.613   8.538  0.2525 -0.2094  0.0772
17324W        W60315   6.662  34.773  15.940 -0.1748  0.0640 -0.0726
17325W        W60316  21.218   6.704  22.602 -0.0014 -0.2915  0.0651
17326W        W60317  25.509  28.696  28.066  0.1646 -0.0169  0.2058
17327W        W60318  33.940   1.727  25.775 -0.2122 -0.0210  0.0040
17328W        W60319  31.174   6.421  14.997 -0.1172  0.0027  0.0133
17329W        W60320   8.961  23.822   3.829  0.0072 -0.2606 -0.1421
17330W        W60321  11.196   7.867   4.418  0.1038  0.1152  0.0511
17331W        W60322   9.308   8.040  27.333 -0.2770 -0.1572 -0.1809
17332W        W60323   5.057  32.514  22.750  0.1436  0.0978 -0.0021
17333W        W60324   7.147  28.523  17.886  0.0087 -0.2825 -0.0458
17334W        W60325  12.071  28.111  16.091 -0.1277 -0.0112 -0.2076
17335W        W60326   6.565   3.726  25.752 -0.1877 -0.0023  0.1413
17336W        W60327  13.313   5.583  23.527 -0.0040  0.0393  0.2386
17337W        W60328  31.709   7.240  16.885  0.3935  0.1073  0.1763
17338W        W60329  33.933   7.396  28.526  0.0274 -0.1640 -0.1472
17339W        W60330  22.351  21.669  17.349 -0.3653  0.0951  0.0645
17340W        W60331  12.606  28.602  16.446  0.1981  0.0463 -0.1259
17341W        W60332   1.314   1.763  18.116  0.0276  0.1940 -0.1682
17342W        W60333  34.378   1.630  24.680 -0.2197 -0.2970 -0.0001
17343W        W60334   9.318   3.341  21.220 -0.1818 -0.2530  0.1224
17344W        W60335   5.017  21.721  17.216  0.0252  0.0157 -0.0305
17345W        W60336   6.866  22.218  25.701 -0.0236 -0.4275 -0.2061
17346W        W60337  34.029  23.650  22.847  0.3357 -0.0703  0.2182
17347W        W60338   2.366   2.669  17.903 -0.0274 -0.1891  0.0680
17348W        W60339  10.351  23.985  18.773 -0.1101  0.1783 -0.0239
17349W        W60340  31.398   0.864  16.565  0.0417  0.0229  0.0049
17350W        W60341   9.234  12.060  17.819  0.1443  0.0674  0.0101
17351W        W60342  20.078  31.010   0.434 -0.0321 -0.2259  0.0125
17352W        W60343   3.318  15.982  16.994  0.0456  0.2717  0.0035
17353W        W60344  28.472  28.977  16.129  0.0516  0.1924 -0.3137
17354W        W60345  31.103  24.164  19.248  0.1721  0.0151  0.0492
17355W        W60346  25.382  13.842  20.754 -0.4957 -0.2589 -0.1257
17356W        W60347  12.270  33.356  19.446  0.0996 -0.0670  0.1952
17357W        W60348   4.864  32.803   5.236 -0.1594 -0.2165 -0.3516
17358W        W60349  11.713  11.147   4.300  0.1309  0.0501 -0.1417
17359W        W60350   2.484   4.305  17.926  0.1424  0.0265 -0.1382
17360W        W60351  30.321   4.576  14.059  0.1621 -0.1280  0.1340
17361W        W60352   3.478  28.728  18.980 -0.1024  0.3622  0.4612
17362W        W60353  32.727  26.644  22.518 -0.2381  0.0584 -0.2244
17363W        W60354  24.418  32.174  12.729 -0.2310  0.3075 -0.1958
17364W        W60355   3.243  24.567  16.159 -0.0682 -0.3134  0.0395
17365W        W60356   6.393  32.725  23.258  0.1001  0.5597 -0.3035
17366W        W60357   7.791  11.082   4.907 -0.1954  0.0994  0.0448
17367W        W60358  13.831   0.977   6.279  0.1692  0.1763  0.2878
17368W        W60359   4.112  11.942  22.236  0.1743  0.0760 -0.0763
17369W        W60360   3.621  29.693  15.543  0.1639  0.0159  0.0718
17370W        W60361  18.100  33.336  24.474  0.1538 -0.0162  0.3288
17371W        W60362  10.973   5.265  16.496  0.4204  0.0267 -0.1611
17372W        W60363  30.831   0.975  21.625 -0.1448  0.0008  0.1854
17373W        W60364  21.642  11.092  16.433  0.3183 -0.1218  0.0821
17374W        W60365   9.221   3.884  18.669 -0.3729  0.0166 -0.0723
17375W        W60366   6.288  26.822  25.749 -0.1309  0.2657 -0.1394
17376W        W60367   4.891  26.984  22.429 -0.1716 -0.0187 -0.1304
17377W        W60368  20.495   3.565  25.123 -0.1281  0.0176  0.1013
17378W        W60369   0.091   5.192   0.045 -0.2034  0.1243 -0.0388
17379W        W60370   4.004   9.828  26.528  0.1455  0.0063 -0.0705
17380W        W60371  16.330  25.993  18.981 -0.0921  0.2697  0.3331
17381W        W60372  23.023  29.271  16.123 -0.2903  0.0938  0.1110
17382W        W60373   0.963  19.822  25.788 -0.0158 -0.1544 -0.0067
17383W        W60374   3.163  29.343  19.315 -0.0564  0.1662 -0.0063
17384W        W60375  34.656   0.614  24.503  0.3927  0.2438 -0.1720
17385W        W60376  31.483   3.401  22.208  0.0633 -0.1139 -0.1652
17386W        W60377  19.454   2.407  29.090  0.0571 -0.0545 -0.0073
17387W        W60378   5.836  33.498  15.789 -0.0421 -0.0580  0.0695
17388W        W60379  19.517   6.293  28.558 -0.2247 -0.1369 -0.1561
17389W        W60380  15.862   4.198  27.208  0.4286  0.0180 -0.0493
17390W        W60381  34.442  26.458  16.625 -0.1800 -0.1197  0.1971
17391W        W60382  27.228   9.944  15.729  0.1836  0.3407 -0.0489
17392W        W60383  26.621  28.160  13.724 -0.1600 -0.1173  0.0021
17393W        W60384  34.301  27.530  27.295  0.1435 -0.1789 -0.0948
17394W        W60385  31.993  18.981  23.093  0.1645 -0.0304 -0.0056
17395W        W60386  34.170   1.226  14.899  0.1330  0.1901 -0.0183
17396W        W60387  30.011   5.039  23.189 -0.0795  0.0041  0.1535
17397W        W60388  16.746  24.984  18.800  0.3449  0.0963  0.1606
17398W        W60389  30.302   0.103  18.446 -0.0243  0.1986  0.0902
17399W        W60390   9.631  20.393  15.337 -0.0124  0.0494  0.2437
17400W        W60391   1.977  32.151  15.374 -0.0099  0.1688 -0.2781
17401W        W60392   1.399   4.436  23.232 -0.0005 -0.0896 -0.1662
17402W        W60393  31.289   9.618   6.571 -0.0037 -0.3124  0.1659
17403W        W60394  34.752   0.688   9.132  0.2351  0.0407  0.0882
17404W        W60395   5.299  29.332  23.063 -0.1476 -0.1312  0.1461
17405W        W60396  22.868  17.292  19.762 -0.0390  0.2434 -0.1991
17406W        W60397  23.416  31.638  28.041 -0.0599  0.1488 -0.1376
17407W        W60398  10.757  23.511  19.283 -0.0806 -0.0208 -0.0554
17408W        W60399   8.031  23.279  27.689 -0.0924  0.0232  0.0003
17409W        W60400  26.603  28.575  19.512  0.0529  0.1122  0.1205
17410W        W60401   7.258  34.715  21.436 -0.1831  0.1359  0.2244
17411W        W60402  27.720   6.587   2.999  0.3409  0.1563 -0.3355
17412W        W60403  25.548   5.095  27.470 -0.0366 -0.1967  0.0579
17413W        W60404   9.521  24.683  16.329  0.1761  0.1483 -0.0505
17414W        W60405   0.898  22.440  20.528  0.2568 -0.0478 -0.0536
17415W        W60406  34.557   3.052  15.410 -0.1533  0.2218 -0.0195
17416W        W60407  32.582  17.856  17.967  0.0391 -0.0641 -0.0327
17417W        W60408   1.876  33.189   2.035  0.0204 -0.3355 -0.0971
17418W        W60409  11.352  21.944  20.818  0.2565 -0.2013 -0.2307
17419W        W60410  12.578  23.591  22.970 -0.1840 -0.2131  0.2820
17420W        W60411  30.285  25.295  21.876  0.1498 -0.2236  0.0473
17421W        W60412  20.567  33.302  27.705 -0.1889  0.1410 -0.2447
17422W        W60413  32.455  26.368  15.421  0.2633 -0.2157 -0.0937
17423W        W60414  15.280  26.600  15.313  0.3176 -0.4972 -0.2577
17424W        W60415  31.102  22.126  21.573 -0.0870  0.3061 -0.2292
17425W        W60416  30.994  18.863  19.761  0.1026  0.1127 -0.0487
17426W        W60417  32.918  20.333  26.870  0.1878 -0.0164  0.1134
17427W        W60418  15.437   1.270  17.894  0.0827 -0.0754  0.0090
17428W        W60419  13.833  22.662  16.795 -0.0452  0.1027  0.0573
17429W        W60420  13.770  11.004  26.595  0.4122  0.0660  0.0838
17430W        W60421  32.477  10.545  16.713  0.2516  0.0251 -0.2068
17431W        W60422   0.087  23.799   8.374  0.2921 -0.1607  0.1949
17432W        W60423   5.334   0.994  23.279 -0.0664 -0.0308 -0.0244
17433W        W60424  32.251   0.775  17.684  0.1585  0.1786 -0.0185
17434W        W60425  31.442  19.185  24.660 -0.4059 -0.1103  0.2125
17435W        W60426  30.391  31.955   1.080 -0.2226 -0.0043 -0.0846
17436W        W60427  16.025  23.760   9.974 -0.0796 -0.0371 -0.1362
17437W        W60428  30.001  26.281  18.149 -0.2869  0.2535 -0.1186
17438W        W60429   1.484   0.147  26.494  0.0548 -0.1203  0.0276
17439W        W60430  29.506  10.679  23.024  0.0227  0.1125 -0.0205
17440W        W60431  28.190  25.227  19.697 -0.2260  0.0683  0.0453
17441W        W60432  33.515  25.330  18.980 -0.0471  0.0414 -0.0863
17442W        W60433  28.851  32.273  20.995 -0.1462 -0.2883  0.1667
17443W        W60434   0.884   3.404  17.575  0.1867  0.1227  0.1110
17444W        W60435  14.702  31.188  21.974  0.0638  0.0171 -0.0042
17445W        W60436  25.718  19.378   2.290  0.0503  0.2779  0.4402
17446W        W60437   8.861  31.439  15.363 -0.3072 -0.1043  0.1203
17447W        W60438   3.424  17.305  26.820 -0.1386  0.1266 -0.0439
17448W        W60439  12.282  20.113  14.512 -0.0719 -0.0040 -0.1487
17449W        W60440   3.402   1.101  16.565  0.0043 -0.2614  0.1866
17450W        W60441   1.248  31.641  23.346  0.1744 -0.0695 -0.0049
17451W        W60442  25.245  27.769  18.735  0.2385  0.0407 -0.2379
17452W        W60443  29.266  29.448  25.581  0.0268  0.0628  0.0871
17453W        W60444   1.373  12.457  22.139 -0.2007 -0.0656  0.0473
17454W        W60445   5.533  16.570  28.683  0.0075  0.1116  0.1691
17455W        W60446   9.515  31.261  23.242  0.1663 -0.0315  0.0627
17456W        W60447  15.627   2.278  21.075 -0.0300  0.1474 -0.3642
17457W        W60448  32.567  32.530  16.162  0.0974  0.1143 -0.0452
17458W        W60449   4.381  33.356  16.940  0.0901  0.0192 -0.1140
17459W        W60450  30.424   4.106  15.235  0.0009 -0.0162  0.0401
17460W        W60451  21.980   1.710  20.216  0.1524  0.2573 -0.3045
17461W        W60452  23.968  34.715  13.854 -0.0486 -0.1340 -0.1335
17462W        W60453  24.652   3.711  14.159  0.2962 -0.0648 -0.0088
17463W        W60454  30.130   9.037  14.453  0.1223  0.0441  0.1685
17464W        W60455  11.466   7.014  17.581  0.2093 -0.0447 -0.0314
17465W        W60456   7.574  33.956  19.806  0.1667 -0.0762  0.1439
17466W        W60457   5.733  31.926  22.592  0.0963  0.1308 -0.1934
17467W        W60458  12.335   5.268  18.181  0.0365  0.0374  0.5183
17468W        W60459  28.814  31.017  15.202 -0.0100  0.1836 -0.1253
17469W        W60460   2.708  20.223  27.978  0.0097 -0.4199 -0.2143
17470W        W60461   6.918   6.199  16.152  0.3394 -0.1337 -0.3128
17471W        W60462  34.258  29.902  19.358 -0.1277  0.2122 -0.1395
17472W        W60463  30.437   2.918  22.902  0.1843  0.1168  0.1873
17473W        W60464  28.915  21.634  17.983  0.0358 -0.2267 -0.2854
17474W        W60465   0.962  12.459  27.617  0.3312 -0.1956 -0.1831
17475W        W60466   6.700  12.413   1.077 -0.0312 -0.2252  0.1417
17476W        W60467  27.108  18.736  19.195 -0.0594 -0.3348  0.0051
17477W        W60468   7.013  14.834  22.054 -0.1080  0.1703  0.1167
17478W        W60469   7.660  30.395  20.284 -0.1825 -0.0166 -0.0364
17479W        W60470  27.834  33.090  28.325 -0.1353  0.1517  0.0856
17480W        W60471   1.584  28.829  27.769 -0.1043  0.0855  0.0311
17481W        W60472   4.372  27.257  27.855 -0.0915  0.2243 -0.1930
17482W        W60473  32.785  29.459  14.000  0.1131 -0.0445  0.0400
17483W        W60474   8.316   1.246  24.187 -0.1166  0.0445  0.1731
17484W        W60475  18.034  29.523  28.058  0.0041  0.0932 -0.0276
17485W        W60476   1.389  29.644  27.343 -0.2046 -0.0314  0.0471
17486W        W60477  21.710   5.526  15.416  0.2801  0.3095  0.0367
17487W        W60478  19.811   1.560  26.688 -0.2054  0.1635  0.1519
17488W        W60479   1.320  33.734  14.840 -0.0750  0.0088 -0.0529
17489W        W60480  22.683  23.896  13.205  0.2897  0.0465  0.1718
17490W        W60481  21.541  20.691   2.136  0.1334  0.1127 -0.2775
17491W        W60482  22.987   4.315   4.812  0.4989 -0.1116  0.2005
17492W        W60483  11.137  10.475   2.423 -0.0528 -0.3105 -0.1165
17493W        W60484  29.446   9.592  18.693 -0.4096  0.1999  0.0779
17494W        W60485   8.734  33.892  27.354  0.1319  0.0349 -0.1293
17495W        W60486   8.716  27.521  21.929 -0.0036  0.1896  0.1481
17496W        W60487  28.106   7.073   0.367  0.2113 -0.0648 -0.0850
17497W        W60488   2.709   8.001  20.891 -0.0634 -0.1273  0.1445
17498W        W60489  34.349  30.647  20.140 -0.0497 -0.0752  0.1519
17499W        W60490  18.713   1.475   9.287  0.1769 -0.0874  0.1374
17500W        W60491  20.085  30.679  23.748 -0.1352 -0.3319  0.2086
17501W        W60492  17.828  12.071   6.643  0.4348 -0.0902 -0.0795
17502W        W60493   1.954  32.141   4.964  0.0064  0.1085 -0.3509
17503W        W60494   7.717   9.584  19.347 -0.2169 -0.0848 -0.0031
17504W        W60495  23.538   0.845  16.196  0.1592 -0.1391  0.0474
17505W        W60496   9.230   0.036  24.242 -0.0554 -0.0450 -0.0310
17506W        W60497  30.247   3.409  28.995  0.0072  0.3884 -0.1927
17507W        W60498  27.687  32.610  11.904 -0.0795  0.3871 -0.1662
17508W        W60499  17.184  30.810  21.818 -0.1202  0.1641  0.1035
17509W        W60500  28.183   0.272  20.849 -0.1835  0.0351  0.2723
17510W        W60501  19.296  27.936  15.621 -0.2253  0.2332  0.0391
17511W        W60502  23.007  34.363  16.509  0.1153 -0.0132 -0.0518
17512W        W60503  26.374  33.080  23.634 -0.0727 -0.0602  0.0301
17513W        W60504   4.626   0.511   6.991  0.0014 -0.2360  0.0218
17514W        W60505   6.829  12.602  19.315 -0.0294 -0.1957 -0.2211
17515W        W60506  30.856  33.030  20.660  0.2360 -0.0471  0.0889
17516W        W60507   8.252  31.575  16.091 -0.1685 -0.3291 -0.3000
17517W        W60508   3.729   1.841  17.125 -0.1963 -0.1625  0.2393
17518W        W60509   5.791  28.108  22.910 -0.1678 -0.1544  0.0493
17519W        W60510   3.725  12.594  18.143  0.1949 -0.2294  0.1819
17520W        W60511   7.896   2.166  19.671 -0.2352 -0.0502  0.0466
17521W        W60512   2.977   1.560  19.556  0.1945  0.0538  0.1866
17522W        W60513   8.908   2.395  28.355  0.2298  0.0902 -0.1272
17523W        W60514   0.962  32.950  24.728  0.0396  0.1009 -0.2184
17524W        W60515   4.867  33.735  23.599  0.2257 -0.0750  0.1470
17525W        W60516  19.147  23.412  14.946  0.1321 -0.2088 -0.1696
17526W        W60517   3.144  20.752  14.745 -0.1055  0.1357 -0.3636
17527W        W60518  10.230   4.242   0.169  0.0142 -0.1674  0.0654
17528W        W60519   0.876  31.395  18.451 -0.0616  0.0456 -0.0477
17529W        W60520  18.647  31.744  22.003 -0.1930  0.0785 -0.2522
17530W        W60521   3.493   0.452  19.725 -0.0021  0.0069 -0.1489
17531W        W60522   4.371   0.979  18.729 -0.2142 -0.0584 -0.1547
17532W        W60523   4.217  19.146  19.648  0.0606  0.0119  0.1660
17533W        W60524  13.489   7.499  23.278 -0.0730  0.0655  0.2414
17534W        W60525  33.786  20.585  22.812 -0.0285  0.1592  0.0381
17535W        W60526  32.519   3.156  22.740 -0.1033 -0.2183  0.0337
17536W        W60527  18.307  30.147  14.547  0.0726  0.0144  0.2199
17537W        W60528   0.871  31.395  19.810 -0.1862  0.0146  0.1186
17538W        W60529  15.406  24.159  13.756 -0.0707  0.4167 -0.0442
17539W        W60530  27.840  25.441  20.849 -0.2996 -0.1258  0.2184
17540W        W60531  29.637   6.712  17.276 -0.0376  0.1483 -0.0604
17541W        W60532   1.449  11.087  16.547  0.1328  0.0064  0.0043
17542W        W60533  29.646  28.676  18.130  0.2937 -0.2656  0.1250
17543W        W60534   8.701  11.393  15.676  0.2211  0.1155  0.0330
17544W        W60535  12.018   0.075  22.261  0.0669 -0.0899 -0.1776
17545W        W60536   5.569  27.311   9.833  0.0626 -0.2523  0.0794
17546W        W60537  28.291   8.520  18.141  0.0866  0.1095 -0.1560
17547W        W60538  16.913  13.163  17.863 -0.0135 -0.0095 -0.4479
17548W        W60539   8.960   6.544  28.380  0.1261 -0.1039  0.3054
17549W        W60540  13.980  32.772  25.930  0.1316 -0.0054 -0.0459
17550W        W60541  25.501  22.942  26.552 -0.0615 -0.1429 -0.1101
17551W        W60542   3.183  24.864  25.282 -0.0105 -0.2671  0.0645
17552W        W60543  16.282  27.578  25.095  0.1157  0.2008 -0.1516
17553W        W60544   5.015  23.045  18.246  0.1140  0.2344  0.2039
17554W        W60545  18.007  33.613  18.005  0.0884 -0.2369 -0.0149
17555W        W60546  34.301  33.799  17.767  0.2083  0.1755 -0.0150
17556W        W60547  10.597   1.960  18.815 -0.2770 -0.0815  0.2070
17557W        W60548   2.204   0.869  21.606 -0.1674 -0.1153  0.3136
17558W        W60549   8.706   2.260   1.365 -0.0686  0.2269 -0.1670
17559W        W60550  30.750   5.789  23.988  0.0376 -0.0353  0.0300
17560W        W60551  16.011   2.065  27.847 -0.0884 -0.3593 -0.2461
17561W        W60552  21.501  21.184  16.572  0.0251 -0.1360 -0.0243
17562W        W60553  24.587  27.982  14.747 -0.1346  0.0261  0.3334
17563W        W60554  34.606   3.608  23.448 -0.0337 -0.0293 -0.0903
17564W        W60555  29.145  11.288  27.670 -0.1174 -0.1626  0.1057
17565W        W60556  26.209  28.597  12.988 -0.2449  0.2601 -0.0585
17566W        W60557  29.074  21.639  18.932  0.0669 -0.2098 -0.0857
17567W        W60558  25.634   8.729  20.439 -0.1894 -0.0482 -0.0258
17568W        W60559  25.976   8.302   2.124 -0.0579  0.0784  0.1824
17569W        W60560   5.143  24.954  21.081  0.0891  0.0327  0.0539
17570W        W60561   4.497  11.664  22.460  0.0962  0.0830 -0.1344
17571W        W60562  33.223  30.612  23.986  0.0009 -0.0977  0.1530
17572W        W60563  28.064   8.856  14.378  0.1395 -0.2619 -0.2448
17573W        W60564  20.285  25.021  22.946  0.2786  0.0707  0.0430
17574W        W60565  25.884   8.201  27.689  0.1479 -0.0577  0.1002
17575W        W60566  27.523  21.905  16.079 -0.0629 -0.1305 -0.1079
17576W        W60567  11.373  31.620  17.439  0.2037 -0.0266  0.0088
17577W        W60568  32.695  16.596  17.019 -0.1723 -0.2295  0.0273
17578W        W60569  27.008   4.926  17.899 -0.4182 -0.0902 -0.1679
17579W        W60570   5.950  14.057   6.263  0.2842 -0.0709 -0.3524
17580W        W60571  31.153  29.240  18.910 -0.0555 -0.3116 -0.1063
17581W        W60572  20.816  30.767  16.579 -0.1112 -0.2386 -0.4761
17582W        W60573   4.344   0.572  16.767 -0.3127 -0.0564  0.0780
17583W        W60574  30.288  33.390  17.659 -0.0380  0.2590 -0.1751
17584W        W60575  16.186   2.027  24.756 -0.0288 -0.1397  0.2387
17585W        W60576  24.309   1.472  25.020  0.0070  0.0425 -0.1343
17586W        W60577   4.960   4.457  23.062 -0.0344  0.2315  0.0616
17587W        W60578   2.001  25.384  20.734  0.0447 -0.0606 -0.1405
17588W        W60579  24.203   5.946  24.299  0.0682  0.0440  0.0473
17589W        W60580   4.635   7.994  22.255 -0.0549 -0.1943  0.0427
17590W        W60581  18.387   0.653   3.986  0.4262 -0.2629 -0.0251
17591W        W60582   9.153  27.165  26.316 -0.0955  0.1780 -0.1672
17592W        W60583   4.447   5.189  21.822 -0.2786  0.0293 -0.0301
17593W        W60584  19.740  27.723  21.776 -0.3235 -0.0419 -0.0068
17594W        W60585   9.392  29.050  15.479 -0.2399 -0.0649  0.1137
17595W        W60586  28.501  20.095  27.023 -0.0194 -0.1122  0.0767
17596W        W60587  29.127   9.716  15.044  0.2355  0.1565 -0.2756
17597W        W60588   2.666   5.464  17.190 -0.0874  0.4244  0.2541
17598W        W60589  12.529   8.473  21.034 -0.0222 -0.1265 -0.0983
17599W        W60590   7.942  30.986  27.505  0.2063  0.0631 -0.1524
17600W        W60591  30.308   9.291  15.024 -0.0890  0.1266  0.1691
17601W        W60592   8.614  15.460  23.535  0.3318  0.2117 -0.1501
17602W        W60593   4.318  24.589   1.526  0.0660  0.3949 -0.3338
17603W        W60594   5.892  29.184  21.502 -0.2140  0.2055  0.0125
17604W        W60595   1.302  26.628  15.648 -0.2983 -0.1728  0.1426
17605W        W60596   5.794  26.768  28.291  0.0714 -0.0870 -0.0554
17606W        W60597   8.756  33.325   0.760  0.1182  0.3068 -0.1199
17607W        W60598  26.031  34.656  24.825 -0.3560 -0.0512  0.2079
17608W        W60599   5.479  30.905  26.465  0.0519 -0.0210 -0.1929
17609W        W60600   3.381  24.471  17.825 -0.0149 -0.0587 -0.2453
17610W        W60601  10.875  21.222  25.730 -0.1197 -0.0564 -0.1502
17611W        W60602  18.346  34.678  16.798 -0.3833 -0.1052 -0.0861
17612W        W60603  27.303  16.883  18.419 -0.3524  0.4887 -0.4035
17613W        W60604  32.295  27.765  19.776  0.0534 -0.3100 -0.0049
17614W        W60605  33.665   8.448  19.267 -0.2400 -0.1500  0.0603
17615W        W60606   3.726  26.001  15.403  0.0384 -0.0398 -0.0041
17616W        W60607  23.564  14.416  18.827  0.0495  0.0828 -0.1900
17617W        W60608  12.469  32.612  14.436  0.1509 -0.0630 -0.0367
17618W        W60609   8.480   0.146  21.637 -0.1373 -0.2419 -0.1726
17619W        W60610  22.099  15.117  21.466  0.2627 -0.0748  0.1469
17620W        W60611   1.476  23.965  19.078 -0.1791  0.2156  0.2459
17621W        W60612   0.668   0.667  13.618 -0.2812 -0.1600  0.3666
17622W        W60613  32.102   1.898  17.841  0.1749  0.0079 -0.1805
17623W        W60614   1.191  24.172  26.077 -0.2242 -0.2689  0.1912
17624W        W60615   5.544   6.964  18.245 -0.0703  0.0577  0.0750
17625W        W60616   4.757  33.347  22.771  0.0386 -0.1537 -0.0338
17626W        W60617  32.593  30.683  16.002 -0.0357  0.0632  0.2115
17627W        W60618  33.463  33.073  17.459  0.3102  0.2197  0.1152
17628W        W60619   6.000  18.891   8.665  0.0647 -0.1400 -0.1841
17629W        W60620  26.059   3.300   7.531 -0.1756  0.2485 -0.1412
17630W        W60621   2.445  32.419  24.221 -0.1318 -0.0017  0.1857
17631W        W60622  22.771  32.972  17.992 -0.0101  0.1464  0.1941
17632W        W60623  14.076  21.500  18.855  0.0996  0.1279 -0.0610
17633W        W60624   5.790   3.702  20.220  0.2772  0.2452  0.2143
17634W        W60625   5.288  22.001  20.266 -0.2197 -0.1504  0.1860
17635W        W60626  16.426  34.017  23.892 -0.2954  0.0445 -0.0202
17636W        W60627  33.064  20.054  15.137  0.0189  0.0623  0.0312
17637W        W60628  31.316  33.686   1.048  0.1803 -0.1258 -0.2763
17638W        W60629   9.719  13.030  25.376  0.0475  0.1041 -0.2967
17639W        W60630  10.935  28.705  15.207 -0.0750 -0.2644  0.0134
17640W        W60631   8.831   2.192  25.882 -0.1441 -0.0238  0.1633
17641W        W60632   6.827   3.116   7.209 -0.0591  0.1714 -0.0307
17642W        W60633   4.998  23.658  27.926  0.1383  0.0085  0.1495
17643W        W60634   7.129  28.520  26.255 -0.0037  0.2288 -0.2655
17644W        W60635  11.070  33.992  16.700  0.3874  0.2621 -0.0954
17645W        W60636   9.733  31.321  21.710  0.0851 -0.0541  0.1394
17646W        W60637  19.364  32.108   1.122  0.0683 -0.0445 -0.1105
17647W        W60638  31.759  34.509  23.349  0.0721  0.0464 -0.1662
17648W        W60639  34.264  28.523  18.914  0.0288  0.2159 -0.0586
17649W        W60640  27.437   5.047  28.401  0.1946 -0.2011  0.0825
17650W        W60641   9.074  21.650  27.351 -0.3039 -0.0653  0.0705
17651W        W60642   0.569  26.571  26.407 -0.1373  0.2777  0.0628
17652W        W60643  31.275   6.193  25.160 -0.1260  0.0861  0.1680
17653W        W60644   9.260  23.761  16.992 -0.1780 -0.1353  0.1040
17654W        W60645  27.128   9.534  27.977  0.0518 -0.2004  0.1017
17655W        W60646   4.007  13.839  23.794  0.0472 -0.1290  0.0422
17656W        W60647  27.261  26.624  28.235  0.1328  0.2462 -0.1219
17657W        W60648  24.791  22.016   0.432 -0.0208  0.0808  0.1350
17658W        W60649  21.021  31.855  17.567  0.2222  0.0181 -0.0284
17659W        W60650  18.731   5.502  27.869 -0.3534  0.2696 -0.1270
17660W        W60651  14.191  34.637  29.170  0.1231 -0.0967 -0.2115
17661W        W60652  33.862  19.705  21.883 -0.0460 -0.2613 -0.1023
17662W        W60653   3.657   5.428  23.149  0.2320  0.0586 -0.2498
17663W        W60654  28.565   5.853  14.532 -0.0189 -0.2106  0.1447
17664W        W60655   2.076  24.610  16.265  0.2272  0.0300 -0.0493
17665W        W60656   4.470  30.610  16.530  0.0915 -0.0424  0.0113
17666W        W60657  33.312  28.572  27.880  0.0434 -0.0476 -0.1552
17667W        W60658  10.334  33.654  17.585 -0.1485  0.0128  0.0256
17668W        W60659   5.813  26.069  20.853  0.1386 -0.1788 -0.1017
17669W        W60660  10.541   6.057  29.061  0.3781 -0.2568  0.0756
17670W        W60661  23.257  33.009  19.570  0.0032  0.1601  0.0640
17671W        W60662   1.331  30.744  20.294  0.0050  0.2224  0.0381
17672W        W60663  11.434  22.940  26.407  0.5944 -0.4088  0.1972
17673W        W60664   6.524  32.683   4.074  0.0135 -0.1389  0.0221
17674W        W60665  33.204  19.416  18.466  0.3672 -0.3721  0.3404
17675W        W60666  28.547  32.879  18.839 -0.0978 -0.0715  0.1057
17676W        W60667  31.574  15.703  19.862  0.2441 -0.1076  0.1471
17677W        W60668  24.255  12.735  13.984 -0.1865  0.3016 -0.2137
17678W        W60669  32.649  29.222  18.916  0.1732 -0.1940 -0.0932
17679W        W60670  19.815  21.558  25.013  0.1268  0.0199  0.4042
17680W        W60671   4.236  20.973  24.380  0.0961 -0.4166 -0.0253
17681W        W60672   4.700  26.717  22.049 -0.2578  0.3093 -0.4200
17682W        W60673   4.893  11.396  17.060 -0.0179 -0.3302  0.3368
17683W        W60674   1.626  28.048  25.309  0.2192 -0.1247 -0.0628
17684W        W60675  17.340  14.665  13.622 -0.0813 -0.3370 -0.0811
17685W        W60676   0.152  15.989  18.672 -0.3421 -0.1738  0.1974
17686W        W60677  14.546  27.102  19.733 -0.1423 -0.0069 -0.0253
17687W        W60678  16.042  29.746  13.406 -0.1803  0.0820  0.0573
17688W        W60679   1.041  25.559  26.208 -0.0784 -0.1083  0.5354
17689W        W60680  32.600   4.906  21.131  0.1506 -0.1109  0.2658
17690W        W60681  12.603  23.383  14.267  0.0103  0.4707 -0.3064
17691W        W60682  25.500  33.301  15.370 -0.1859 -0.0155  0.0641
17692W        W60683   6.974   0.641  23.933  0.1630 -0.0402 -0.2593
17693W        W60684  14.914   0.602  21.693  0.4895  0.0062 -0.3034
17694W        W60685  32.624  20.886   2.731  0.0873  0.1637 -0.1748
17695W        W60686  25.936   8.076  21.903 -0.2278 -0.1749  0.2022
17696W        W60687  26.529   6.099  16.548  0.0468  0.0866 -0.1887
17697W        W60688  27.694   1.516  13.913  0.0329 -0.0269  0.0406
17698W        W60689  19.721  31.836   1.738  0.2299 -0.1013  0.2460
17699W        W60690  34.375   6.739  19.062 -0.1906 -0.3162  0.1514
17700W        W60691  26.504   3.847  25.303  0.2027  0.2219  0.0315
17701W        W60692   5.418  21.669   5.034 -0.1682 -0.2220 -0.2839
17702W        W60693  12.306  30.427   7.781  0.1198  0.2338 -0.1366
17703W        W60694  19.412   0.547  19.836  0.0428  0.0421 -0.0339
17704W        W60695   7.565   3.779  27.919  0.1021 -0.1090  0.0325
17705W        W60696   2.185   0.117  20.923 -0.0989 -0.1067  0.0654
17706W        W60697  31.622  14.524  19.435  0.0110 -0.1656 -0.1132
17707W        W60698   0.873  30.542  17.514 -0.0920 -0.2170 -0.1740
17708W        W60699  21.733  29.128   6.773 -0.2494 -0.1396  0.2778
17709W        W60700  13.466   0.585  16.189  0.1760 -0.1413  0.0720
17710W        W60701  25.066  21.197  14.296 -0.0500 -0.1367 -0.1160
17711W        W60702  32.401   5.988  14.987  0.0613 -0.1481  0.1879
17712W        W60703  30.606   0.231  23.771  0.1829 -0.2619 -0.2712
17713W        W60704  24.073  13.379   2.276 -0.0974 -0.1529  0.1789
17714W        W60705   6.177   2.725   9.429 -0.1500 -0.0286  0.0924
17715W        W60706  33.690   4.061  17.147 -0.0265  0.1142  0.2037
17716W        W60707   4.437  29.179  28.043 -0.0738 -0.0461  0.0552
17717W        W60708  34.446  32.102  25.871  0.5432  0.1891 -0.2771
17718W        W60709  28.694   7.993  22.946 -0.1682  0.0069 -0.1734
17719W        W60710   9.260   3.942  16.131 -0.1050 -0.2336 -0.0057
17720W        W60711  31.224   8.143  22.756 -0.1707  0.1621 -0.0246
17721W        W60712  13.957  26.379  13.980  0.0309  0.1229  0.3598
17722W        W60713  19.722   7.321  20.283 -0.1015 -0.0404 -0.2253
17723W        W60714  25.613  23.652  18.514 -0.3110 -0.2048 -0.1318
17724W        W60715   5.205  27.819  15.386 -0.1035 -0.1587  0.0914
17725W        W60716  29.779  27.928  29.106 -0.2782  0.1019  0.0059
17726W        W60717  11.040  24.259  27.940 -0.0451 -0.0019 -0.1987
17727W        W60718   4.985  32.520  26.713  0.1673 -0.1842  0.0137
17728W        W60719  33.795  32.069  23.109 -0.3211 -0.0187 -0.0875
17729W        W60720   9.927   5.720  26.279  0.0573  0.0060 -0.0864
17730W        W60721  33.803  15.068  27.163  0.0736  0.0692 -0.1464
17731W        W60722  34.248   2.890  15.745  0.0770 -0.0201  0.1313
17732W        W60723   9.511   2.248  21.822  0.2062 -0.0113  0.2247
17733W        W60724  15.938  28.628  21.224  0.1164 -0.2320  0.1482
17734W        W60725  30.748  32.389   6.794  0.0772  0.0970 -0.0712
17735W        W60726   3.932  31.960  15.740 -0.1599 -0.0317 -0.0247
17736W        W60727  26.966   8.807  16.324  0.1152 -0.2550  0.0689
17737W        W60728  31.113  34.541  23.167 -0.1399 -0.2334 -0.3276
17738W        W60729  18.515  21.482   2.289  0.2498  0.0249  0.3165
17739W        W60730   0.917  21.859  15.969  0.1394  0.1534 -0.0813
17740W        W60731   2.089  19.594  26.034 -0.0293  0.0641  0.1942
17741W        W60732   4.918   7.911  20.393  0.2160  0.0437  0.3333
17742W        W60733  28.925  24.042  16.728 -0.0698 -0.2398  0.1113
17743W        W60734   1.949  16.239  22.415  0.2034 -0.0434 -0.2108
17744W        W60735  32.144  28.940  22.998  0.3016 -0.2368  0.2764
17745W        W60736   6.906   1.895  20.648  0.3055  0.0959 -0.0187
17746W        W60737   3.421  29.174  27.957  0.0357 -0.2273 -0.3290
17747W        W60738  25.130  25.481  17.262 -0.0103  0.0786  0.1953
17748W        W60739   9.217  28.719  19.458 -0.2428 -0.0021  0.3206
17749W        W60740  29.225   0.806  23.553 -0.0104  0.0155  0.2982
17750W        W60741   6.956   1.839   0.776  0.0458 -0.1255  0.0915
17751W        W60742  29.879   8.234   0.176  0.2657 -0.4446  0.1288
17752W        W60743  26.797  12.959   1.271  0.0802  0.0702  0.0660
17753W        W60744  21.828  26.983  13.955  0.2916 -0.0327  0.1901
17754W        W60745   6.543   4.815   1.453 -0.1292 -0.0531  0.3648
17755W        W60746   9.796   7.541  16.857 -0.0189 -0.1846 -0.4048
17756W        W60747  28.867   4.920  23.938 -0.0948 -0.0321  0.0917
17757W        W60748   6.702  26.365  15.180  0.2077 -0.0630 -0.1722
17758W        W60749  26.500  33.740  18.456  0.0170  0.0903 -0.0768
17759W        W60750   6.923  29.336  27.327  0.1799 -0.1372  0.1012
17760W        W60751  24.051   6.394   0.925 -0.2071  0.0544 -0.3234
17761W        W60752  28.859  26.700  17.377 -0.1902 -0.1388  0.3109
17762W        W60753  13.749   1.747  23.913 -0.2812 -0.1962 -0.1615
17763W        W60754  15.061  27.594  19.322 -0.0335 -0.0324 -0.0993
17764W        W60755   3.404  24.393  21.252 -0.0330 -0.0349  0.0120
17765W        W60756  24.659  33.976  26.944  0.2684 -0.2377 -0.0379
17766W        W60757   6.719  19.292  23.791 -0.3385 -0.1742 -0.1363
17767W        W60758  24.339  27.411  15.616  0.0726 -0.5575  0.0161
17768W        W60759   5.818  12.208  26.066  0.1843  0.4168 -0.0115
17769W        W60760   6.982  21.236  21.630  0.2449  0.1018  0.0242
17770W        W60761  33.169   0.941   3.574  0.0487  0.2541 -0.3028
17771W        W60762   5.135  30.837  23.666 -0.0636 -0.0523 -0.2335
17772W        W60763   8.421  27.098  20.665  0.3475  0.2488 -0.1711
17773W        W60764   1.968  30.925  21.008  0.1724  0.0975 -0.1452
17774W        W60765  29.115  28.543  19.501 -0.1000  0.1818  0.0607
17775W        W60766  33.186   5.572  15.755 -0.0726 -0.0949  0.0923
17776W        W60767  26.748  26.135  23.388 -0.0306 -0.1889 -0.0365
17777W        W60768  17.405  30.540   1.893  0.1453  0.0644  0.1726
17778W        W60769  28.815   3.977  26.492 -0.1750 -0.0348  0.0810
17779W        W60770   0.525  24.165  20.371  0.0189  0.0648  0.3343
17780W        W60771  27.572  29.195  14.147 -0.2704  0.2646 -0.1138
17781W        W60772   4.329  14.753   6.542 -0.1324 -0.2389 -0.0790
17782W        W60773  21.471  12.639  14.407 -0.2307  0.2044 -0.0919
17783W        W60774  32.667   3.325  17.532  0.1564 -0.3768 -0.3283
17784W        W60775   3.954  24.525  16.621  0.0732  0.5263  0.1446
17785W        W60776  30.482  10.965  20.196  0.0183 -0.2821 -0.1481
17786W        W60777   6.790  25.421  27.630 -0.1468 -0.0195 -0.0378
17787W        W60778   3.318  25.992  14.319  0.1279  0.1145  0.1711
17788W        W60779   0.857   8.210  17.720  0.4088 -0.1673 -0.0727
17789W        W60780  20.560  33.512   6.934  0.2167  0.0906  0.0673
17790W        W60781  31.222  33.763  27.599  0.2771 -0.0643  0.0121
17791W        W60782  32.540   4.360  21.173 -0.0451  0.1111 -0.0384
17792W        W60783  27.339  18.067  22.032  0.1444 -0.0810  0.2029
17793W        W60784  11.848   7.596   3.921  0.2727 -0.1577  0.1160
17794W        W60785  14.068   6.002  16.633  0.0744  0.0263  0.0621
17795W        W60786   9.010   3.492  25.472 -0.3696  0.1548  0.0899
17796W        W60787  33.964   4.066  15.170  0.0379  0.0280  0.1466
17797W        W60788   5.572  28.236  15.362  0.2587 -0.0798  0.0905
17798W        W60789  17.619   4.634  19.986 -0.0398 -0.1263 -0.4381
17799W        W60790  22.417   4.030  22.304 -0.0412  0.2381 -0.0787
17800W        W60791  19.788  29.988  14.054  0.1042  0.1823  0.0493
17801W        W60792   9.198  25.752  25.921  0.3679 -0.0464 -0.1246
17802W        W60793  13.327  30.590  27.115 -0.1633  0.1476 -0.0034
17803W        W60794   6.291  32.887  24.628 -0.1865  0.1123  0.2412
17804W        W60795  34.486  28.941  19.030  0.1828  0.0090 -0.0908
17805W        W60796   3.583  27.001  26.859 -0.0586  0.1697 -0.1006
17806W        W60797  19.223  11.633  15.389  0.2245  0.1473 -0.1691
17807W        W60798  19.632  30.018  26.299 -0.1762 -0.2346 -0.2853
17808W        W60799  29.000  31.803  16.536  0.0032  0.2410  0.1088
17809W        W60800  30.219   0.401  22.949 -0.2816  0.1437 -0.3458
17810W        W60801   3.458   1.570  22.063  0.0580  0.0611  0.1743
17811W        W60802   4.947  12.619   0.527  0.0577 -0.0672 -0.0330
17812W        W60803  10.003  21.937  23.933  0.0795 -0.0479 -0.2366
17813W        W60804  16.494  30.243  14.515 -0.2124  0.1262  0.1560
17814W        W60805   5.645   2.037  21.992 -0.2978 -0.2025 -0.0057
17815W        W60806  12.589  30.052  22.780 -0.0784  0.2899  0.0348
17816W        W60807   6.152  12.614  19.117 -0.1773 -0.0491 -0.2378
17817W        W60808  11.681  22.310  22.421  0.1724  0.2205 -0.2496
17818W        W60809  15.282   7.479  18.652  0.0888 -0.2561  0.1789
17819W        W60810  16.164   9.206  19.651 -0.2442 -0.4702 -0.4191
17820W        W60811   5.551  16.974  25.616 -0.1901 -0.0349 -0.2553
17821W        W60812  19.283  28.555  22.618 -0.0716  0.0298 -0.3013
17822W        W60813  23.964  33.133  21.227  0.2037  0.0287 -0.0128
17823W        W60814  14.943  31.674  19.847 -0.3268  0.0288 -0.2761
17824W        W60815  26.172  26.574  25.771  0.0679 -0.4427  0.1138
17825W        W60816   5.267  25.491   6.681 -0.0735 -0.0706  0.1014
17826W        W60817  16.148  27.108  13.828  0.0221  0.1027 -0.0826
17827W        W60818  23.813   5.229  23.956 -0.1230  0.1026  0.2300
17828W        W60819  20.350  26.120   1.975 -0.0344 -0.0503  0.0263
17829W        W60820   2.097  29.737  22.661  0.0510  0.0533 -0.1864
17830W        W60821  31.881   7.184  15.363  0.0690  0.2657 -0.0411
17831W        W60822   1.585  19.166  20.991 -0.1822 -0.0739  0.0249
17832W        W60823  28.674  14.521  20.209  0.0682 -0.0341  0.2120
17833W        W60824  27.169  27.881  15.380 -0.2597 -0.1001  0.1152
17834W        W60825  27.544   4.082  16.833  0.0845  0.0815  0.2707
17835W        W60826  27.798  23.442   1.290 -0.1488 -0.1015  0.1166
17836W        W60827   3.166  32.491  27.841  0.1728 -0.4995 -0.0047
17837W        W60828   8.772  27.024  15.589  0.2232  0.1313  0.1430
17838W        W60829   0.750   5.806  28.720 -0.1331  0.3386 -0.0359
17839W        W60830   9.070  28.525  17.523  0.2013 -0.2174  0.0774
17840W        W60831   3.795  25.129   9.138 -0.0858 -0.0122 -0.3049
17841W        W60832  34.452  13.734   9.418  0.0873 -0.0326 -0.4128
17842W        W60833  16.946   2.138   1.902 -0.1876 -0.3885  0.0243
17843W        W60834  31.601   0.284  14.061  0.1455  0.1786 -0.2209
17844W        W60835   8.784  31.572  21.881 -0.0892  0.2922 -0.0436
17845W        W60836  31.424  31.985   1.901  0.0258 -0.3040  0.3601
17846W        W60837  32.959   3.855  25.856  0.2857  0.1698 -0.2107
17847W        W60838  27.655   1.621   4.471  0.1311 -0.1820  0.2674
17848W        W60839   4.145  33.863  18.576  0.0103 -0.1427 -0.1706
17849W        W60840  29.625  12.261  21.539  0.2721 -0.2452  0.0527
17850W        W60841  29.048  29.474  17.577  0.1135  0.0019  0.1586
17851W        W60842   6.763  25.299   4.058  0.3646 -0.2502  0.1621
17852W        W60843  13.549  27.950  22.228 -0.1439 -0.1965 -0.0106
17853W        W60844  26.838  29.728  21.414  0.1946  0.0733 -0.2465
17854W        W60845  23.347  25.739  17.399 -0.1418  0.0122  0.0676
17855W        W60846  32.503  24.214  20.496 -0.2045  0.3233 -0.0564
17856W        W60847  32.552   7.007  26.143 -0.0080 -0.2654  0.3384
17857W        W60848   8.757  25.566  26.139 -0.1053  0.0177 -0.1434
17858W        W60849   1.403  27.469  20.233 -0.2110 -0.0868  0.0177
17859W        W60850  30.180   5.324  16.163 -0.1217 -0.0386  0.2715
17860W        W60851  22.502  34.770  15.934 -0.0183 -0.0949 -0.1359
17861W        W60852  28.011   7.866  24.882 -0.2412 -0.0755  0.1770
17862W        W60853   6.554  27.610  22.702 -0.3636 -0.2852  0.2199
17863W        W60854  33.047  17.794  23.873  0.1557 -0.3043 -0.3110
17864W        W60855  11.242  23.626  18.907  0.2696  0.1823 -0.2955
17865W        W60856  20.922  29.260  20.047 -0.0879  0.2381 -0.1316
17866W        W60857   6.297  23.121  22.157 -0.1831  0.2176  0.1980
17867W        W60858  34.284  14.824  21.344  0.0513 -0.0401  0.1620
17868W        W60859  25.659   1.341  14.678  0.2032 -0.0397 -0.1652
17869W        W60860   7.094  16.859  14.885  0.2764  0.2912  0.1581
17870W        W60861  14.931  29.723   1.447 -0.1524  0.0942 -0.0375
17871W        W60862  20.949  32.671  28.148  0.1458  0.3504  0.2659
17872W        W60863  34.464  32.136  20.456  0.0955  0.1831 -0.0065
17873W        W60864  33.389  27.789  21.234  0.0580 -0.1651 -0.1538
17874W        W60865  12.759  29.316  15.813  0.0639 -0.0914  0.0675
17875W        W60866  32.743  27.683  14.459 -0.0702  0.1471 -0.2395
17876W        W60867  11.883  31.860   8.264 -0.3540 -0.0181  0.0221
17877W        W60868  20.238  23.562  13.450 -0.1135  0.0144 -0.0298
17878W        W60869  29.151  12.687  17.174 -0.0902 -0.0556 -0.1978
17879W        W60870   1.207  10.259  24.927  0.0796  0.0291 -0.0561
17880W        W60871  19.493   1.317  15.245  0.1164  0.3842  0.2544
17881W        W60872  14.558   0.308  19.389  0.1548  0.1418  0.2988
17882W        W60873  31.336   2.011  20.784  0.2658  0.2182  0.0836
17883W        W60874  12.420   9.381  24.684 -0.2829 -0.1865 -0.1741
17884W        W60875  33.251   5.043  17.799 -0.1264  0.0047 -0.0075
17885W        W60876   7.868  31.365  18.769 -0.1151 -0.0301  0.0050
17886W        W60877  28.806  13.517  24.573 -0.2882 -0.1234 -0.1297
17887W        W60878  18.448  12.572  19.894  0.3161  0.1987 -0.0043
17888W        W60879  24.830  31.369  28.528  0.1191  0.0512 -0.1247
17889W        W60880  18.468  10.537  17.968  0.1555 -0.1374  0.3572
17890W        W60881  12.844  30.466  22.885 -0.1431  0.0443 -0.2700
17891W        W60882  32.509  21.545  16.498  0.0082 -0.0986 -0.0308
17892W        W60883   7.863  33.765  16.621 -0.2095 -0.0716  0.1137
17893W        W60884  10.387  32.116  23.881 -0.1356 -0.0116  0.0993
17894W        W60885  29.530  29.834  28.582  0.2079  0.3920 -0.0202
17895W        W60886  31.544  15.038  19.717  0.0790  0.1602  0.1067
17896W        W60887   3.642  16.669  28.607  0.0676 -0.0060 -0.1158
17897W        W60888  17.891  26.490  24.340 -0.3567  0.1514 -0.2013
17898W        W60889  23.272  30.636  14.340 -0.0295 -0.1962  0.1209
17899W        W60890  29.575  22.787  18.072  0.3353 -0.0945 -0.1652
17900W        W60891   0.562   9.296  17.713 -0.0656 -0.0978  0.2495
17901W        W60892  22.909   7.993  18.939  0.1770  0.2936 -0.0690
17902W        W60893   7.858   5.308  15.077  0.1710  0.1322  0.2151
17903W        W60894   8.413   2.114  16.446 -0.0384 -0.2339 -0.0974
17904W        W60895  31.388   2.484  19.921  0.2581  0.3086 -0.0887
17905W        W60896  29.625   7.760   1.846 -0.0620 -0.0695 -0.0165
17906W        W60897   0.564  26.812  23.403 -0.0585  0.1875 -0.0132
17907W        W60898   0.504   6.402  23.909  0.0043  0.1876 -0.0146
17908W        W60899  34.498  27.661  28.674  0.1032 -0.1258 -0.2985
17909W        W60900  30.416   5.459  20.449  0.0701 -0.0794  0.2046
17910W        W60901   5.501  29.657  28.874  0.1815 -0.1844  0.2391
17911W        W60902  24.084  17.896  15.590 -0.1911  0.0702 -0.0837
17912W        W60903  32.091   8.908   2.840 -0.2059 -0.1708 -0.0233
17913W        W60904  15.009   7.949   4.274  0.0516  0.0062  0.2128
17914W        W60905  33.098  25.618  20.209 -0.1876  0.1994  0.1465
17915W        W60906  15.726  27.927  23.116 -0.0550 -0.2249 -0.0536
17916W        W60907  16.900  33.144  27.911 -0.0761  0.0072 -0.3255
17917W        W60908  22.362  26.619  22.576  0.0558  0.1437  0.2147
17918W        W60909   2.814  31.189  23.767  0.3080 -0.2167  0.5123
17919W        W60910  24.291   2.106  25.060 -0.0198  0.0471 -0.1281
17920W        W60911   0.989  25.291  21.652  0.3609 -0.1952 -0.1043
17921W        W60912   1.293  22.117  21.378  0.1603 -0.0113  0.2438
17922W        W60913  19.850  31.741  21.537  0.0790  0.0402 -0.0441
17923W        W60914  10.437   4.970  22.361  0.2344  0.0104 -0.1616
17924W        W60915  22.654  17.856  17.298  0.1708  0.1510  0.0680
17925W        W60916  34.498  10.063  20.894 -0.2047  0.2381  0.1770
17926W        W60917  17.009  30.128   1.809  0.0512 -0.1778  0.2891
17927W        W60918  14.112   0.330  21.479  0.1601  0.3474  0.1740
17928W        W60919  23.025  13.091  15.756  0.1172  0.1972  0.1536
17929W        W60920  12.852  25.344   9.127 -0.1192  0.0492 -0.1288
17930W        W60921   4.417   1.401  16.029 -0.1652 -0.1351  0.0636
17931W        W60922   5.224   7.850  28.958  0.0488 -0.0960 -0.2924
17932W        W60923   1.689   4.381  20.569  0.0141 -0.1967 -0.0622
17933W        W60924  29.472  28.343   6.580  0.0534 -0.1224 -0.0091
17934W        W60925   8.998  32.875  26.520  0.4506  0.2925  0.0834
17935W        W60926  28.470   1.011   0.037  0.1458 -0.0553  0.0633
17936W        W60927   0.237  26.844  15.441 -0.1644 -0.1224  0.0946
17937W        W60928  29.515  33.567   1.226  0.0074 -0.0864 -0.1741
17938W        W60929   0.442  32.886  17.071  0.2617 -0.1323  0.0448
17939W        W60930  33.975   6.247   8.352 -0.1765 -0.4347 -0.1028
17940W        W60931   6.161  28.941  28.285 -0.2547 -0.1566 -0.0177
17941W        W60932  15.823  22.200  20.398  0.3662  0.1007 -0.2830
17942W        W60933   4.450   1.814  27.042  0.4173 -0.1418 -0.0423
17943W        W60934   3.173  22.804  20.653 -0.0013  0.2070 -0.0130
17944W        W60935  30.855   6.472  19.499 -0.0396 -0.2233  0.3464
17945W        W60936  33.024  33.455  22.210 -0.2071  0.4040  0.1581
17946W        W60937  29.863  18.991   2.152 -0.2223 -0.1496  0.1577
17947W        W60938  33.117   1.006  28.366  0.2567 -0.0239 -0.0218
17948W        W60939   5.300  32.915  22.618  0.0831  0.0428 -0.3649
17949W        W60940   2.063   9.936  18.412  0.1434 -0.0462  0.1661
17950W        W60941  29.612   3.716  14.444  0.0387 -0.0705  0.1125
17951W        W60942  12.702   5.986  19.297  0.1207  0.0057  0.0701
17952W        W60943  10.686  23.729  24.972  0.0954 -0.1510 -0.2440
17953W        W60944   1.186  23.595   0.350  0.2351 -0.2261 -0.2536
17954W        W60945  34.104   0.586  16.284  0.1341  0.2835  0.0838
17955W        W60946   4.534  14.871  26.383  0.3552  0.2752  0.1693
17956W        W60947   9.268  21.314   3.725  0.0799  0.1777  0.3625
17957W        W60948  31.669  34.732  16.604  0.1682  0.0193  0.0445
17958W        W60949   6.149  32.559  16.001  0.2248 -0.0312  0.0889
17959W        W60950  24.902   1.275  20.345  0.0833 -0.1816  0.0830
17960W        W60951   3.105   9.847   3.389 -0.0159  0.3452 -0.1350
17961W        W60952  26.802  29.120  13.597 -0.0537 -0.3016 -0.0304
17962W        W60953   6.362  32.114  16.253 -0.0134  0.1516  0.0028
17963W        W60954   8.750  20.045   1.683  0.1304 -0.5374  0.1267
17964W        W60955   8.331  32.099  20.260 -0.0846 -0.3898  0.0966
17965W        W60956  26.729  10.750  20.878  0.5553 -0.0005  0.2511
17966W        W60957   1.144   8.085  10.566  0.0449  0.0216  0.0387
17967W        W60958   3.342  26.135  28.112 -0.0594  0.1291 -0.1828
17968W        W60959  33.787   5.499  22.122  0.1341  0.2684 -0.0427
17969W        W60960  33.893  11.992  21.414 -0.3783  0.1445  0.2320
17970W        W60961  32.300  31.705  19.697 -0.0610 -0.0878 -0.0119
17971W        W60962   6.654  30.578   7.666 -0.1285  0.0816 -0.2167
17972W        W60963  19.380  20.423  12.744  0.0105 -0.1312  0.1733
17973W        W60964   3.759  22.731  18.890 -0.2026  0.1378 -0.1311
17974W        W60965   0.628   5.574  14.167  0.0285 -0.0145 -0.1195
17975W        W60966  11.990  14.203  26.379  0.1493 -0.0630 -0.0230
17976W        W60967  21.459   8.586  20.531 -0.1517  0.2382  0.1605
17977W        W60968  32.214  29.801  13.914  0.0119  0.1806 -0.0063
17978W        W60969   5.864  17.494  21.019 -0.2439  0.2291 -0.1119
17979W        W60970  22.360   7.505   3.456  0.0084 -0.3231  0.0124
17980W        W60971  33.734  21.052  26.486  0.0209  0.1058  0.2661
17981W        W60972   7.495  17.703  15.922  0.1456 -0.4685  0.1163
17982W        W60973   2.646   5.348  19.205 -0.2304 -0.1680 -0.1258
17983W        W60974   5.671   3.233  15.516 -0.2708  0.0225  0.0185
17984W        W60975  11.716  27.326   3.384  0.0362  0.2777 -0.1006
17985W        W60976   3.548  33.389   0.117  0.1595  0.0113  0.2343
17986W        W60977  28.093   2.293  18.697 -0.0455 -0.0484 -0.0109
17987W        W60978   3.602  12.401  25.834 -0.1345  0.0369 -0.0678
17988W        W60979  13.676  33.516  14.208  0.2619  0.0072 -0.0724
17989W        W60980  33.629  13.948  29.178  0.3026 -0.0171 -0.1000
17990W        W60981  28.615   3.396   3.379 -0.2849 -0.2508  0.2675
17991W        W60982  29.721  20.649  20.525  0.2682 -0.2836 -0.0103
17992W        W60983  28.431  31.078  22.262  0.0018 -0.1474 -0.0920
17993W        W60984  29.167   1.901   4.526  0.0746 -0.0437  0.0888
17994W        W60985   7.647  32.150  22.596 -0.0129 -0.1366 -0.2089
17995W        W60986   0.745  29.838  15.582 -0.2441 -0.2122 -0.0657
17996W        W60987  31.872  27.514  13.970 -0.2122  0.3029 -0.0252
17997W        W60988  18.315  25.100  23.608 -0.0382 -0.3035  0.1213
17998W        W60989  21.212   6.641   1.018  0.1882 -0.0252  0.0281
17999W        W60990   6.834  24.849  16.647 -0.1681 -0.0342  0.1313
18000W        W60991   3.562  28.966  14.874 -0.0797 -0.1366  0.0792
18001W        W60992  30.194  30.080  23.929 -0.2368 -0.0952  0.1070
18002W        W60993  32.392  28.705  22.361  0.2503  0.1089  0.1007
18003W        W60994   3.342  13.492  16.284  0.1584 -0.2608  0.3202
18004W        W60995  13.370  27.630  22.554 -0.0253  0.0464  0.1359
18005W        W60996  19.169   8.911   1.097  0.2143  0.2885 -0.0932
18006W        W60997   3.250  20.915  15.443  0.1600  0.2655 -0.0374
18007W        W60998  26.063   3.854   0.523 -0.1232 -0.0550 -0.1913
18008W        W60999  16.013  33.829  21.710 -0.0619 -0.1250  0.2195
18009W        W61000   0.434  29.778  25.014 -0.2552  0.0402  0.0400
18010W        W61001  34.721  25.953  14.641  0.0602 -0.0438 -0.1554
18011W        W61002  26.618   4.881  21.988  0.1125 -0.0033  0.0412
18012W        W61003  31.976   0.306  16.526 -0.0090 -0.3453  0.0369
18013W        W61004  34.372  19.793  17.903 -0.4298  0.3842 -0.0063
18014W        W61005  32.781  11.753  19.809  0.2579 -0.0381 -0.0611
18015W        W61006   6.989  30.570   4.334 -0.0802 -0.0610 -0.4503
18016W        W61007  20.078   0.947  27.931 -0.1883 -0.3415  0.1396
18017W        W61008  29.785  33.154  19.772 -0.1382 -0.0917  0.2732
18018W        W61009  19.691   3.517  22.289  0.2961  0.0226 -0.2242
18019W        W61010   1.955  15.163  11.451  0.2352  0.0002 -0.1552
18020W        W61011   1.431  21.620  21.631  0.2337 -0.3117 -0.3022
18021W        W61012  13.917  12.044   1.901 -0.3712 -0.0911  0.1085
18022W        W61013  14.168   3.657  15.708 -0.2541  0.1791 -0.1178
18023W        W61014  14.214   2.394   3.532  0.1387  0.2722  0.1793
18024W        W61015  32.206  30.896  14.791  0.2284  0.0130 -0.1870
18025W        W61016   0.665   2.471  28.777 -0.0635 -0.2419 -0.0499
18026W        W61017   1.514  30.734  18.488 -0.4452 -0.2297  0.1525
18027W        W61018   2.785   4.521  29.218  0.1824 -0.1873  0.2194
18028W        W61019  24.040  32.563  18.949  0.0338  0.2822  0.1174
18029W        W61020   8.997  21.587   2.915  0.0754  0.3995  0.0883
18030W        W61021   0.749   1.464  27.096  0.3970 -0.0306  0.0335
18031W        W61022   5.543   4.299  24.550  0.0764 -0.2261 -0.0711
18032W        W61023   2.310  29.021   2.641  0.4256 -0.0924 -0.0923
18033W        W61024  22.519  27.844   1.329  0.1043  0.4192 -0.1124
18034W        W61025   4.298  32.255  18.701  0.2572  0.0805 -0.1213
18035W        W61026   0.439  19.520  14.831  0.3062 -0.1266 -0.0107
18036W        W61027   4.199   3.518  25.118  0.0394 -0.0044  0.0895
18037W        W61028  31.284  31.446  19.633  0.0394 -0.2639 -0.0803
18038W        W61029  33.006  33.420  15.597  0.0852  0.1968  0.0059
18039W        W61030  15.803   1.900  22.042  0.0632  0.0125 -0.2061
18040W        W61031  10.999   1.011  11.354  0.0122  0.1158 -0.0350
18041W        W61032   4.759  11.537  16.583 -0.0180  0.2074 -0.0831
18042W        W61033  31.254   0.240  26.290  0.3889  0.0538  0.0062
18043W        W61034   4.586   3.400  18.254 -0.0550  0.1017 -0.0662
18044W        W61035  21.567  27.088   2.838 -0.0847 -0.1126 -0.0916
18045W        W61036   6.811  33.683  24.831  0.1321  0.0125  0.1277
18046W        W61037  31.761   2.542  26.088  0.0980 -0.0517  0.2084
18047W        W61038   0.864  31.411   0.316 -0.1884  0.1525 -0.3208
18048W        W61039  21.494   9.964  25.894 -0.0246  0.1342  0.2167
18049W        W61040  24.623   0.335   1.049 -0.0326  0.2109 -0.0906
18050W        W61041  12.272  29.948  24.433 -0.0202  0.0211 -0.1346
18051W        W61042   3.985  32.224   5.258 -0.1346  0.0695 -0.3406
18052W        W61043   7.548  31.226  27.560 -0.3014 -0.0313 -0.1862
18053W        W61044  25.951   2.833  13.323 -0.1008  0.0975 -0.0881
18054W        W61045   3.897  29.176  26.349  0.0413  0.3062 -0.0673
18055W        W61046   6.069  25.880   8.397  0.0558 -0.0246 -0.2888
18056W        W61047  30.678  30.925  12.742  0.1234 -0.0948  0.0327
18057W        W61048  27.481  21.149  23.256  0.0170 -0.2203  0.1943
18058W        W61049   1.881  10.186  23.535 -0.4652 -0.0640 -0.3534
18059W        W61050  34.505  17.438  24.253  0.0477 -0.3174  0.0129
18060W        W61051   1.841  24.076  14.976  0.1086  0.1392  0.1221
18061W        W61052   2.762  20.406  25.666  0.2667 -0.2328 -0.2033
18062W        W61053   6.683  27.133   6.916 -0.2756 -0.3253  0.1940
18063W        W61054  22.197  17.222  17.955  0.1954  0.3743 -0.2817
18064W        W61055  26.259   3.180  26.469 -0.1350  0.1599  0.0615
18065W        W61056  29.560   5.475  22.793  0.0903  0.4409 -0.1059
18066W        W61057   2.628  29.157  17.969  0.0010  0.0575 -0.2816
18067W        W61058  32.603   4.176  14.744 -0.1755  0.0387  0.1215
18068W        W61059  24.745  25.188  19.989  0.1046 -0.0576 -0.1257
18069W        W61060  33.037   7.197  15.083  0.0450  0.0635  0.0163
18070W        W61061   8.371  18.526  16.549 -0.2666  0.0536 -0.1841
18071W        W61062  30.440   4.825  22.824 -0.0705 -0.0912  0.0528
18072W        W61063  14.276   7.655  21.091 -0.2288  0.0806 -0.0317
18073W        W61064   1.759  24.488   5.612 -0.1258 -0.1567  0.2752
18074W        W61065   2.859  19.831  16.332 -0.0938 -0.1161 -0.0536
18075W        W61066  33.397   4.237   0.717  0.0510 -0.0091 -0.0713
18076W        W61067  29.733  26.053  28.271 -0.0967  0.0094 -0.1667
18077W        W61068  12.522  10.367  24.234 -0.0843 -0.0345 -0.1322
18078W        W61069  33.567  22.503  20.471 -0.1674  0.2730 -0.3080
18079W        W61070   8.497  31.088  28.774 -0.0061  0.0358  0.0104
18080W        W61071  30.693  12.601   4.958 -0.1147  0.0823  0.3507
18081W        W61072   2.873  10.280  16.484 -0.1777  0.0401  0.1714
18082W        W61073  31.021  26.290  26.681  0.2335  0.1319  0.0971
18083W        W61074  11.684   0.972   5.028 -0.0638  0.0166  0.0592
18084W        W61075  13.576  27.116  15.668  0.1760  0.0723 -0.0612
18085W        W61076  23.317  15.213  28.762  0.0576 -0.1225  0.1186
18086W        W61077  13.100  33.700   5.382  0.0179  0.0643  0.2122
18087W        W61078  13.032   2.825  23.742  0.1517  0.2056  0.2864
18088W        W61079  34.119  22.144  24.321 -0.0621 -0.0999 -0.0775
18089W        W61080  31.496  15.044  10.120  0.0713  0.0004  0.1925
18090W        W61081   4.502   3.574  22.391  0.1119 -0.1101  0.1377
18091W        W61082   9.802  27.088  25.076  0.0819 -0.3080  0.1594
18092W        W61083  11.669   1.780  28.311 -0.2506  0.3113  0.2799
18093W        W61084  13.769  32.468   3.895 -0.2836 -0.1247  0.2632
18094W        W61085  13.155  11.673   2.481 -0.4743  0.1326  0.0785
18095W        W61086  11.342  28.255  17.326 -0.0642  0.2098  0.3095
18096W        W61087  29.881  21.434  19.359  0.3161 -0.0041 -0.1381
18097W        W61088   3.099  17.239  17.951  0.1053 -0.2451  0.0159
18098W        W61089  31.746   3.743  17.544  0.2878 -0.1208 -0.2592
18099W        W61090   6.227  30.225  27.947 -0.0382 -0.0824 -0.0951
18100W        W61091   1.830   6.478  23.022  0.0411 -0.2118 -0.3374
18101W        W61092  23.309   6.938  24.683  0.3675 -0.0107  0.1102
18102W        W61093  22.849  20.904  24.034 -0.0921 -0.3069 -0.0505
18103W        W61094  31.155  28.737   6.299  0.0129  0.1702 -0.3463
18104W        W61095  28.311  21.984  17.864  0.4414  0.1164  0.0929
18105W        W61096  19.204  34.557  28.267 -0.1719  0.2283 -0.2152
18106W        W61097   1.028  23.449  28.582  0.1382 -0.0229  0.5442
18107W        W61098  14.450   4.027  24.687 -0.1244  0.0038  0.0832
18108W        W61099   6.145  18.819  23.108 -0.4600 -0.1131  0.0476
18109W        W61100  19.989  23.972  13.104 -0.1641  0.1394  0.0743
18110W        W61101  11.168  30.286  18.799 -0.1984 -0.1467 -0.1524
18111W        W61102  33.607  11.124  19.336 -0.1365  0.0140  0.1488
18112W        W61103   4.492  10.364   8.332 -0.2510  0.0208 -0.0658
18113W        W61104  13.817  27.519  14.620  0.1225  0.0226 -0.0300
18114W        W61105  11.259  30.384   8.745  0.0068 -0.0217 -0.3179
18115W        W61106  11.148  27.816  17.630 -0.0295  0.2441  0.3372
18116W        W61107   9.275  23.956  21.965 -0.1166  0.1742  0.0310
18117W        W61108  33.884  10.773  19.044 -0.2019 -0.0598 -0.0127
18118W        W61109  24.868  28.481  24.478 -0.0329  0.0332  0.1843
18119W        W61110  20.058   4.598  26.484  0.1295 -0.1430  0.0564
18120W        W61111  14.071   3.528  22.853 -0.0438 -0.2710  0.0642
18121W        W61112  33.112  10.403  24.065  0.1013  0.0950 -0.2231
18122W        W61113  19.989   2.511   7.025 -0.4180  0.0513  0.1721
18123W        W61114   2.937   6.459  15.374  0.2506 -0.1173 -0.1288
18124W        W61115  34.188  30.572   1.161 -0.2575 -0.0089  0.2329
18125W        W61116   1.513   4.553  26.896  0.0813  0.0693  0.0444
18126W        W61117   4.538  12.296  23.762 -0.2600 -0.1985 -0.0057
18127W        W61118   9.025  10.357  21.681 -0.0498 -0.0342  0.2422
18128W        W61119   3.503  27.027   2.662 -0.2445 -0.1514  0.1245
18129W        W61120  33.570   6.683  21.347 -0.0440 -0.0246 -0.0676
18130W        W61121  13.164  29.330  19.977  0.1660 -0.2223  0.1446
18131W        W61122   7.638   5.429  22.434  0.0404  0.0033 -0.4091
18132W        W61123  31.006  16.023  18.458  0.1792  0.0885 -0.2144
18133W        W61124   6.320  15.832   1.488  0.2024  0.0351  0.2785
18134W        W61125   5.259  23.697  27.009 -0.2497  0.1143 -0.2868
18135W        W61126   0.300  25.933  24.917 -0.3191  0.2719  0.0959
18136W        W61127   7.034   9.893  25.270 -0.1126  0.0965 -0.3371
18137W        W61128  27.589  33.679  16.371  0.2201 -0.0845 -0.2245
18138W        W61129  32.615  32.519   3.561  0.2325  0.1426  0.0032
18139W        W61130  30.300  28.173  23.509 -0.0065 -0.0964  0.0329
18140W        W61131  25.211  30.829  27.485 -0.2495 -0.0291  0.2865
18141W        W61132  32.595  27.352  21.476  0.2710 -0.2059  0.2459
18142W        W61133  25.754  26.451   2.023  0.2040  0.0278  0.0933
18143W        W61134  10.000   8.761  21.286  0.1742  0.0802  0.0236
18144W        W61135   5.691  28.339   0.834 -0.2084 -0.0244 -0.0889
18145W        W61136  20.178  21.185  23.480 -0.2833 -0.1950 -0.1797
18146W        W61137  16.211  20.970  20.853 -0.2586  0.0359 -0.1152
18147W        W61138   0.069  13.175   1.952 -0.3846  0.2057  0.1402
18148W        W61139  31.733  26.834  22.216  0.0071 -0.2821 -0.2391
18149W        W61140   9.892   2.526  25.165 -0.1157  0.0432  0.1826
18150W        W61141   7.118   5.869  24.287  0.3398 -0.0808 -0.0633
18151W        W61142  34.282  31.600  24.739  0.0295 -0.0681 -0.0752
18152W        W61143   4.159  19.924   4.140  0.0113  0.3406  0.0360
18153W        W61144  26.228  14.228   2.342  0.0181  0.1390  0.0381
18154W        W61145   2.975  14.244   8.679  0.1313  0.2173  0.2777
18155W        W61146  14.373  33.697  20.945 -0.0897  0.2205 -0.3415
18156W        W61147   5.124   5.814  27.146 -0.2518 -0.2028 -0.1638
18157W        W61148  28.808  32.662   4.145  0.6444 -0.1451  0.2507
18158W        W61149  25.460  17.420  25.983  0.0835 -0.2254 -0.5708
18159W        W61150  10.084  30.630  26.286 -0.2864 -0.0465 -0.3973
18160W        W61151   9.857  10.277  16.420 -0.2511 -0.1332 -0.1553
18161W        W61152  34.652  14.926  16.326  0.0074  0.0222 -0.1332
18162W        W61153   7.475  20.553  23.402 -0.1498  0.3332 -0.0548
18163W        W61154  32.119  27.885  22.586 -0.1303 -0.0043 -0.0741
18164W        W61155   5.405  13.268  23.682 -0.0977  0.1127 -0.0930
18165W        W61156   3.027   3.094  24.681  0.0607  0.0036  0.3820
18166W        W61157   9.597   3.935  24.806  0.1445 -0.0282  0.3129
18167W        W61158  19.985  26.775  16.063 -0.2412 -0.0803 -0.1765
18168W        W61159   4.660   1.703   8.541 -0.1738  0.0908 -0.2763
18169W        W61160   2.873   0.579  15.769  0.0860  0.0723 -0.0543
18170W        W61161  17.383   9.683  26.936 -0.1200  0.4290 -0.1070
18171W        W61162  31.329  31.497  18.677 -0.1016 -0.0696  0.0154
18172W        W61163  13.914  32.444  24.805 -0.2555 -0.1808  0.2393
18173W        W61164  15.933  31.424  23.981 -0.0383 -0.0552  0.1643
18174W        W61165  31.827  32.904   4.511  0.3997 -0.1293  0.0334
18175W        W61166  33.712  13.817  26.705 -0.1484 -0.0488  0.1160
18176W        W61167  28.344  23.643   3.814  0.0608 -0.0063 -0.3655
18177W        W61168   5.298  13.710  22.992 -0.2393 -0.0502  0.0315
18178W        W61169  31.048   9.993  23.642 -0.1041 -0.3590  0.2597
18179W        W61170   9.184  30.918   5.103 -0.0889  0.3223 -0.0749
18180W        W61171  25.861  14.695  29.222 -0.3656  0.0178  0.0545
18181W        W61172  33.903   3.069  21.848 -0.1945  0.0767  0.0695
18182W        W61173  31.309  13.137   3.670  0.5225  0.0587  0.0010
18183W        W61174  29.991  29.621   7.676  0.1943  0.0766 -0.1166
18184W        W61175  19.144  33.414  28.797  0.1256 -0.1586  0.2119
18185W        W61176  27.416  25.655  26.451  0.2671  0.1032  0.3388
18186W        W61177   4.318  15.537   1.923  0.2744  0.0954 -0.2244
18187W        W61178  28.302   7.678  20.773 -0.0329  0.3372 -0.0041
18188W        W61179   6.221  16.035   2.871  0.0168 -0.1954  0.2570
18189W        W61180   2.225  27.707  21.881 -0.0323 -0.2234 -0.3123
18190W        W61181  33.616  24.949  17.633 -0.1512  0.1716  0.0779
18191W        W61182   4.803   7.681  15.262  0.1827  0.1490  0.3077
18192W        W61183  34.208   8.747  22.048  0.1470 -0.0432  0.1897
18193W        W61184  30.954   3.752  16.341 -0.1143  0.3444  0.0891
18194W        W61185  28.080  30.163   1.496 -0.0018 -0.1194 -0.0015
18195W        W61186  10.303  32.340  20.570  0.3056 -0.2312 -0.1423
18196W        W61187   3.023  19.846  21.709 -0.0852  0.3232  0.3324
18197W        W61188  30.969  11.603  17.961 -0.2964  0.0493 -0.0153
18198W        W61189  25.635   8.481  14.827 -0.5038 -0.3231 -0.0277
18199W        W61190  31.108   5.556  18.458 -0.1770  0.1208  0.1296
18200W        W61191  34.250  28.082   4.957 -0.1403  0.4236  0.0041
18201W        W61192  33.010  27.028  27.824 -0.2549 -0.1383  0.1748
18202W        W61193  26.173  31.152  16.820 -0.1251  0.2419  0.0736
18203W        W61194  26.811  15.961  24.875  0.1179 -0.1194  0.0509
18204W        W61195  11.346  11.561  28.830  0.1599 -0.0652 -0.0393
18205W        W61196  21.811   0.959   6.003  0.3054  0.1061 -0.0103
18206W        W61197  26.116   6.730  14.802  0.3577 -0.1082  0.1341
18207W        W61198   9.207  34.640  22.912 -0.2667  0.0033  0.0063
18208W        W61199  16.560  27.819  27.442  0.3695 -0.1223  0.2830
18209W        W61200   7.127  32.209   4.969  0.0615  0.4836 -0.2118
18210W        W61201  25.600  30.397  17.110  0.1219 -0.2551 -0.0378
18211W        W61202   5.621  27.099  21.229  0.2650  0.0145 -0.1567
18212W        W61203  26.617  30.763  28.481  0.3462 -0.1028 -0.2842
18213W        W61204   2.040  32.750  24.403  0.0279  0.1006 -0.1408
18214W        W61205  31.064  23.066  25.645 -0.0479  0.0859 -0.2313
18215W        W61206   2.848   9.432  21.907  0.2184  0.2070 -0.1394
18216W        W61207   4.427  30.940   9.077  0.1855  0.0288 -0.0353
18217W        W61208  19.747  23.730  19.482  0.0074  0.1419 -0.1462
18218W        W61209  33.060  28.865  13.192  0.0527 -0.3225 -0.5249
18219W        W61210  13.248  15.993  20.855  0.1727  0.0952 -0.2349
18220W        W61211  15.448   8.491   0.069 -0.0415 -0.0581  0.1079
18221W        W61212  26.943   6.429   7.379  0.1172  0.1805 -0.2151
18222W        W61213   4.329  28.028   8.947  0.0150  0.1773  0.0982
18223W        W61214   5.346  34.618  13.840  0.0744  0.1478 -0.2848
18224W        W61215  34.662  30.165  15.408  0.0769 -0.1116 -0.1119
18225W        W61216   7.731   8.333  24.667 -0.0172 -0.0747 -0.0113
18226W        W61217  25.107  26.663  23.663  0.5073  0.1475 -0.0649
18227W        W61218   1.655  12.327  23.523  0.0421  0.0994 -0.1543
18228W        W61219   5.192  14.521  16.650  0.1148 -0.0419 -0.2449
18229W        W61220  33.159  29.965  28.913 -0.2451  0.1442  0.2596
18230W        W61221   0.903  22.276  16.275 -0.1101 -0.0931 -0.0785
18231W        W61222   3.032   1.419  22.442 -0.0378 -0.0696  0.1386
18232W        W61223  22.437  26.879  26.469 -0.2604 -0.0230  0.0516
18233W        W61224   9.614   6.914   4.521  0.0641  0.1368 -0.1596
18234W        W61225   4.676  33.550  28.584 -0.2509  0.1671 -0.2819
18235W        W61226   3.790   0.478  19.253  0.1309  0.0663  0.0703
18236W        W61227  15.523   3.428   4.353  0.0291 -0.1312 -0.1612
18237W        W61228   1.586  11.998  16.717  0.2570 -0.0058 -0.0172
18238W        W61229   9.635   3.134  27.577 -0.0614 -0.0150 -0.0570
18239W        W61230  30.922  26.858  24.722  0.1690 -0.0745  0.1432
18240W        W61231  32.206  33.590  26.507 -0.1334 -0.1280  0.2456
18241W        W61232   2.295   7.401  26.659  0.2099 -0.0822 -0.1334
18242W        W61233  27.443   2.783   2.022 -0.0147  0.2677 -0.1618
18243W        W61234   4.408   1.076  17.599  0.3025  0.0515  0.1066
18244W        W61235  10.455  33.409  28.400 -0.0147 -0.6836  0.5885
18245W        W61236   0.905  19.302  26.523  0.0274 -0.1906  0.1614
18246W        W61237   9.167   0.738  24.841  0.0549  0.3290 -0.1519
18247W        W61238   4.502  23.901  10.308  0.3593  0.0593 -0.3096
18248W        W61239   6.975  20.745  21.573 -0.1428  0.0290  0.0118
18249W        W61240   2.936   2.614  15.597  0.4132  0.0125 -0.0917
18250W        W61241  20.420  24.072  20.491  0.2001 -0.2785  0.0778
18251W        W61242   0.085  25.180  17.931 -0.0854 -0.1590 -0.0837
18252W        W61243  24.532  30.135   1.002  0.3448  0.1199 -0.0848
18253W        W61244  34.021  33.437  19.687 -0.0273 -0.0312 -0.2032
18254W        W61245  28.711   0.811  14.784 -0.0812  0.2614 -0.2207
18255W        W61246  20.613  23.940  17.022 -0.0011 -0.2845  0.0556
18256W        W61247   5.013   8.651   4.702 -0.0279 -0.2464 -0.3321
18257W        W61248   5.898   3.359  22.820  0.4342  0.1101 -0.3200
18258W        W61249  30.523  30.327  17.216  0.3110 -0.0399 -0.1996
18259W        W61250   2.681  30.904   1.066 -0.2645  0.2488  0.1921
18260W        W61251   1.376  32.785  17.497  0.1356  0.0638 -0.1551
18261W        W61252  28.270   9.287   8.590  0.2176 -0.1892 -0.1294
18262W        W61253  18.251  22.322   5.900 -0.2116 -0.1331  0.1640
18263W        W61254   6.300   8.867  27.768 -0.1225  0.0876  0.1937
18264W        W61255   1.368  22.376  19.059  0.0899  0.1236 -0.0671
18265W        W61256  14.673   3.326   3.207  0.0190 -0.1791  0.0884
18266W        W61257  31.964  31.546  15.652  0.0073  0.3608  0.0949
18267W        W61258   4.022   6.983   2.728  0.1267  0.1909 -0.0026
18268W        W61259   2.396  33.268  21.242 -0.1992  0.4401 -0.0443
18269W        W61260   0.258  24.340  24.865 -0.3591  0.0921  0.0990
18270W        W61261  25.564  23.801   0.711 -0.1706  0.1528  0.2568
18271W        W61262  12.259   6.515  16.778  0.0452  0.0768 -0.1845
18272W        W61263   9.115   8.468   0.185 -0.0051  0.1752  0.0040
18273W        W61264   6.551  34.701  16.579 -0.2187 -0.2560  0.0086
18274W        W61265   3.811   0.131  17.293 -0.0104 -0.0479 -0.2295
18275W        W61266   1.702  24.257   2.926  0.1514 -0.4658  0.0567
18276W        W61267  12.003   7.083   0.254  0.0065 -0.0360  0.1799
18277W        W61268  29.081  25.121  15.797 -0.3480 -0.0983  0.1859
18278W        W61269  30.843  21.610  19.750 -0.0325  0.0136 -0.1177
18279W        W61270   4.592   0.026   9.069  0.3298  0.2457 -0.1721
18280W        W61271  18.964  25.244  19.260 -0.0529 -0.1000 -0.0622
18281W        W61272  32.447  19.737  16.914  0.1438  0.0393 -0.0577
18282W        W61273   5.328  33.279  18.431 -0.2284  0.0724  0.2632
18283W        W61274  26.447  26.903   0.402  0.1523 -0.2805  0.3548
18284W        W61275   8.591   4.972   2.790  0.0132  0.1464  0.1509
18285W        W61276  28.250   2.804  17.953  0.2990 -0.4650 -0.2569
18286W        W61277   1.337  31.073  17.773 -0.0924  0.1974 -0.0200
18287W        W61278  24.262  11.649  18.770  0.1060 -0.1643 -0.1471
18288W        W61279   2.831  19.068  28.061 -0.2992 -0.1977  0.4493
18289W        W61280  26.468  22.538  28.326 -0.0775  0.1368  0.3268
18290W        W61281   5.972   9.133  18.744  0.1569 -0.0007 -0.2609
18291W        W61282   2.868  27.948  23.641 -0.1359  0.1023 -0.0330
18292W        W61283  11.796   9.546  26.271  0.0357 -0.0210  0.0994
18293W        W61284  31.737  32.798  22.462 -0.1714 -0.2911  0.1686
18294W        W61285  29.573  21.419   9.056  0.0830 -0.4438  0.0743
18295W        W61286  27.579  33.208   1.100  0.3209 -0.0184  0.1487
18296W        W61287   2.446   1.110  26.613  0.0254  0.0642 -0.0854
18297W        W61288  28.483   8.821  24.072  0.2532 -0.0974 -0.3606
18298W        W61289  19.063   1.133  25.526 -0.1541  0.3278 -0.2670
18299W        W61290  18.090   0.976   2.152 -0.1281  0.0840 -0.2206
18300W        W61291   5.551  23.113   6.024  0.0521  0.3151 -0.1642
18301W        W61292   3.423  19.886  18.841  0.3319 -0.1324 -0.0460
18302W        W61293   4.329  27.543  18.061 -0.1469 -0.1806 -0.2230
18303W        W61294  28.049  10.063   3.779 -0.0458  0.0239  0.0161
18304W        W61295   6.123   2.420   0.653  0.2207  0.0845 -0.0750
18305W        W61296  33.194  17.922  28.496  0.0668  0.2632 -0.1647
18306W        W61297  33.696  26.737   9.334  0.3332 -0.0308  0.2044
18307W        W61298   4.679  31.011  20.648 -0.1028 -0.0175  0.0807
18308W        W61299   5.699  33.929  24.697  0.4693 -0.1300  0.0071
18309W        W61300   6.946  28.339   5.892  0.0344 -0.2258  0.1416
18310W        W61301  21.111  15.591  17.313 -0.2287  0.0755 -0.1843
18311W        W61302  12.129  26.060  19.770  0.0281  0.2365 -0.3335
18312W        W61303   3.290  30.890  16.165 -0.3309  0.0997 -0.1167
18313W        W61304   8.659  25.315  14.638 -0.1684  0.1761  0.1173
18314W        W61305  26.049  23.452   1.048 -0.0693 -0.2428  0.0245
18315W        W61306  32.670  10.488  24.904 -0.0261  0.0586 -0.1793
18316W        W61307   5.686  33.713  18.277 -0.1177 -0.0458 -0.1641
18317W        W61308   7.787   6.119  19.090  0.1644  0.1366 -0.0172
18318W        W61309  26.397  27.701  23.255  0.1528 -0.2316  0.1744
18319W        W61310  28.169  14.003  15.874 -0.1439 -0.2163  0.1290
18320W        W61311  18.179  17.228   3.620 -0.2014  0.1992  0.1485
18321W        W61312  14.148  28.157  20.610 -0.0839 -0.1936 -0.3284
18322W        W61313  32.569  13.537   6.020  0.2009  0.2095 -0.2176
18323W        W61314  33.983   5.241   3.412 -0.0510  0.3933 -0.0549
18324W        W61315  30.849  23.222  27.211 -0.0188  0.2463 -0.1106
18325W        W61316  33.539  21.237   2.126  0.1781  0.0578  0.1954
18326W        W61317  10.548  14.880  20.043 -0.1639  0.2392 -0.0527
18327W        W61318  28.285  27.905  20.846 -0.0631  0.1539  0.1718
18328W        W61319   3.469   3.016  21.701  0.5333  0.2073  0.0616
18329W        W61320  28.176  19.921   9.490 -0.1560  0.0767  0.1287
18330W        W61321  28.725  34.036  19.510 -0.0176  0.0747 -0.1357
18331W        W61322  33.050  12.317   1.715 -0.3537  0.0161 -0.1260
18332W        W61323  26.135  16.823  18.881 -0.0980  0.0338 -0.0599
18333W        W61324   4.249   4.997   2.562 -0.0260  0.0965  0.0493
18334W        W61325  32.256  14.422   2.247 -0.1805 -0.0206 -0.0647
18335W        W61326  17.013   1.941  15.915  0.0014  0.2117 -0.0334
18336W        W61327  32.811  31.525   9.559  0.1104 -0.0773  0.2001
18337W        W61328  12.318   6.376   7.251  0.0632  0.1191 -0.2454
18338W        W61329  31.584  34.026  26.802 -0.0516 -0.1875  0.0785
18339W        W61330   0.331   2.323   4.004 -0.0478  0.1223 -0.1125
18340W        W61331  31.949  16.712   1.706 -0.0457 -0.0111 -0.3947
18341W        W61332   9.784  31.846  18.600  0.2962 -0.3041  0.1045
18342W        W61333   2.112  23.393  17.559 -0.0959  0.1645 -0.2190
18343W        W61334  34.616  27.735  14.549  0.0748  0.0385 -0.1152
18344W        W61335  20.267  33.971  21.296  0.0460 -0.2136 -0.1707
18345W        W61336   4.391   1.796  24.267  0.1355 -0.0914 -0.1374
18346W        W61337  28.074  10.960  21.005  0.0237  0.0856  0.2467
18347W        W61338  33.827  14.037   2.154 -0.2439 -0.0479 -0.2731
18348W        W61339  13.615   4.205  19.038  0.0219  0.2416 -0.0475
18349W        W61340  31.318  24.537   5.195  0.3284 -0.2234 -0.2944
18350W        W61341  27.553  33.562   3.432 -0.2165 -0.0711 -0.2552
18351W        W61342  26.970   0.328  24.732  0.0591  0.0730  0.1526
18352W        W61343  34.377   6.659  19.932 -0.2195 -0.0801  0.0759
18353W        W61344   3.966   6.526  21.201 -0.0010 -0.1202  0.1526
18354W        W61345  32.141   3.571   5.523  0.2069  0.0177 -0.0615
18355W        W61346  29.427  24.209  24.246  0.0243 -0.2408  0.0580
18356W        W61347  12.109  21.120  28.835  0.0072 -0.1588 -0.0104
18357W        W61348   7.488  22.282  21.574  0.0087 -0.0324 -0.1922
18358W        W61349  22.222  32.971  19.611 -0.1825  0.1172 -0.2908
18359W        W61350  28.558  12.475   1.666 -0.0988  0.0145 -0.2001
18360W        W61351   7.745   0.837  15.636  0.1489  0.2565  0.2144
18361W        W61352  34.352  32.089  27.323  0.0429 -0.0576 -0.1443
18362W        W61353  11.303  34.313   0.986 -0.0120  0.3112 -0.0299
18363W        W61354  33.243  34.326  17.052  0.0283  0.3174  0.1034
18364W        W61355  17.027  31.073  18.049  0.2033 -0.1553 -0.1863
18365W        W61356  28.771  23.582  13.301  0.3392 -0.1882  0.2045
18366W        W61357   8.826  14.530  16.466  0.2380 -0.2681 -0.1080
18367W        W61358  26.350  24.673  14.180 -0.0105 -0.3439 -0.1353
18368W        W61359   3.078  32.161  21.695  0.1570  0.0715 -0.2077
18369W        W61360  27.777   8.107  28.237  0.1408 -0.0321 -0.0840
18370W        W61361  19.637  28.589   7.177  0.2336 -0.0025 -0.0961
18371W        W61362   5.015  31.959  14.707  0.1142 -0.2759  0.2304
18372W        W61363  10.005   5.634  18.907  0.1232 -0.1431  0.2005
18373W        W61364  21.733   8.348  17.468 -0.0621 -0.1360  0.1694
18374W        W61365  11.129  27.611  27.135  0.1708 -0.2108 -0.0527
18375W        W61366   5.875   2.156   4.169 -0.0852  0.0337  0.0542
18376W        W61367   9.827  31.866   2.289  0.2419  0.2707  0.2082
18377W        W61368   4.423  17.540  19.868 -0.0249  0.0266 -0.0732
18378W        W61369  16.552  33.114  22.622  0.0178 -0.1650  0.2263
18379W        W61370  18.927  30.874  19.193  0.0336  0.4120 -0.1872
18380W        W61371  27.383  24.300   1.355 -0.0983 -0.1078  0.2695
18381W        W61372   1.132  18.916  22.911  0.2178  0.0521  0.0209
18382W        W61373   0.580   4.110  20.096 -0.2195  0.1636 -0.0097
18383W        W61374  27.890  23.907   0.670  0.1978  0.0658 -0.3511
18384W        W61375  12.612   0.269  17.304  0.2348  0.0610  0.2654
18385W        W61376  15.898  27.706  26.096  0.1585 -0.0949  0.0283
18386W        W61377  31.207   8.969  17.041  0.0994 -0.3332  0.0513
18387W        W61378   7.411  30.526  21.225  0.1023 -0.3200  0.2181
18388W        W61379   7.371  29.856  14.659 -0.0050  0.1021 -0.0447
18389W        W61380   5.581   4.493  22.862 -0.0539  0.2610  0.2194
18390W        W61381   6.071  20.971  24.958  0.1997 -0.0186 -0.1115
18391W        W61382  23.316  21.129  25.457 -0.0405 -0.1328  0.2444
18392W        W61383  32.521   6.421  23.041 -0.1239 -0.2615  0.0385
18393W        W61384  29.102   9.435   9.518 -0.1657  0.3377 -0.1900
18394W        W61385  22.618  24.910  25.174  0.0048 -0.0795 -0.0432
18395W        W61386  30.053   3.641  21.835  0.1074  0.0962 -0.1410
18396W        W61387   6.353   4.623  17.829 -0.0069  0.0271  0.0715
18397W        W61388  17.919  27.601  26.256 -0.1871 -0.3623  0.2168
18398W        W61389  22.481  11.572   3.926  0.1476 -0.0361 -0.1065
18399W        W61390  27.519  21.095  15.009  0.0383  0.3933 -0.0349
18400W        W61391   2.897  11.501  17.433  0.0163 -0.0111  0.0632
18401W        W61392  12.713   3.337  19.064  0.3373  0.2317  0.2386
18402W        W61393  33.112   7.289  14.575  0.0152 -0.2033  0.2441
18403W        W61394  11.850   5.211  16.638  0.2830  0.1984 -0.0132
18404W        W61395   1.163  23.535  15.289  0.1602  0.1599  0.0665
18405W        W61396  20.329   4.079  16.283 -0.0035 -0.1733 -0.0450
18406W        W61397  33.877   2.494   0.655 -0.0178 -0.0837 -0.1410
18407W        W61398   1.804  15.819  23.229  0.2259  0.3759  0.2245
18408W        W61399  17.705  24.817   6.321 -0.2170  0.2442 -0.1991
18409W        W61400   1.488   3.726  17.716 -0.0250 -0.0202 -0.1417
18410W        W61401   6.002  27.030   2.203 -0.2442 -0.0122  0.2124
18411W        W61402  24.404   9.964  20.310  0.2708  0.0261 -0.0887
18412W        W61403   5.694  31.196  14.970  0.1599 -0.2067 -0.2128
18413W        W61404  31.343   1.670   0.934 -0.0091  0.2034 -0.0704
18414W        W61405  11.841  28.994  23.328  0.0345 -0.0242 -0.2052
18415W        W61406   8.905   1.056  25.379 -0.1373  0.0336 -0.0463
18416W        W61407  24.200  32.866  22.267  0.2659  0.1280 -0.1359
18417W        W61408  32.430  31.389   7.618 -0.1124  0.0358  0.0275
18418W        W61409   1.987   7.881  11.744  0.0843 -0.2330  0.2384
18419W        W61410   4.067  10.483  27.227 -0.0430  0.1750 -0.2542
18420W        W61411  32.605  19.716   1.323 -0.1047  0.2819 -0.0803
18421W        W61412   2.644   0.110   2.653 -0.4580  0.2750  0.1133
18422W        W61413  17.200  28.733   5.398 -0.1186  0.1975 -0.0077
18423W        W61414  10.066   0.400  14.714  0.0022  0.0727 -0.2580
18424W        W61415  10.373  12.915  23.380 -0.1170  0.0379 -0.2028
18425W        W61416  17.270  33.112  25.504  0.0361 -0.0921  0.1477
18426W        W61417  22.332  32.983  18.761 -0.2931  0.0017 -0.1360
18427W        W61418  32.780   0.930  17.494 -0.0266 -0.2464 -0.1159
18428W        W61419  24.915   7.661  27.868 -0.1239  0.4172  0.0790
18429W        W61420  13.765  31.552  10.576  0.3340  0.0790 -0.1012
18430W        W61421  29.237   0.168   4.698 -0.0447  0.0610 -0.2986
18431W        W61422   9.297  25.218  10.219  0.1383 -0.0594 -0.1431
18432W        W61423  28.556  30.000   8.320  0.0609  0.2688  0.0560
18433W        W61424  34.355   5.558   2.060 -0.0298 -0.1788 -0.0478
18434W        W61425  30.559  30.117  15.258 -0.1660 -0.2088  0.1116
18435W        W61426  34.780  32.622  18.035 -0.0859 -0.0549  0.0119
18436W        W61427   1.004  24.752  21.638  0.2630 -0.2178  0.3421
18437W        W61428  10.889  24.440   0.458  0.3514  0.3287  0.0518
18438W        W61429   2.223   2.820   0.395  0.4045 -0.2311  0.1240
18439W        W61430   4.705   0.348  23.272 -0.2295  0.2170  0.2775
18440W        W61431  33.003  24.409  23.244  0.0924  0.0530  0.1154
18441W        W61432   0.139  21.660  14.712 -0.0639  0.0145 -0.0240
18442W        W61433   0.948   2.672   0.090  0.2500 -0.0102 -0.2190
18443W        W61434  31.769  26.262   1.713  0.3152 -0.3757  0.0517
18444W        W61435  10.668  32.787  28.037 -0.1651  0.1920  0.0995
18445W        W61436  31.851   3.233   6.810 -0.0738 -0.1612 -0.2854
18446W        W61437   0.504  28.967  27.902  0.2350  0.0022  0.1565
18447W        W61438   4.493   3.794   5.217  0.0728  0.3766 -0.0068
18448W        W61439  19.051   7.670  28.888 -0.2184  0.2457  0.1174
18449W        W61440  20.666   6.252   2.013  0.1705  0.3117  0.4150
18450W        W61441  16.290  20.608  25.106  0.0195  0.0473 -0.1496
18451W        W61442  29.054   3.517   2.484  0.0368  0.4110 -0.0083
18452W        W61443   7.921   4.766   6.047 -0.1581  0.0991  0.1971
18453W        W61444   6.963   2.286  25.822 -0.0082  0.0330 -0.1634
18454W        W61445  32.447  33.470   2.599 -0.0780  0.1452  0.0589
18455W        W61446  31.641   9.109   1.033 -0.2085  0.0117 -0.0170
18456W        W61447   1.824  24.676  25.923 -0.0094  0.0974 -0.1521
18457W        W61448   4.687   1.089   0.471 -0.3661 -0.1118 -0.2452
18458W        W61449  20.306  11.586  23.467  0.2383  0.2045  0.2360
18459W        W61450   8.339  22.209   1.336  0.3022  0.4000 -0.1477
18460W        W61451  15.281   6.938   2.368 -0.1492  0.4656  0.0378
18461W        W61452   1.669  32.837  25.331 -0.1895  0.1833 -0.0485
18462W        W61453   4.916  24.711  19.819 -0.2513 -0.0079 -0.1091
18463W        W61454   3.841  28.795  26.706  0.1822  0.2590  0.0660
18464W        W61455  32.365  31.506  17.312  0.0087 -0.0368 -0.0884
18465W        W61456  18.291   2.379   6.366  0.1402 -0.1725 -0.0120
18466W        W61457  28.263  16.797   0.983  0.0384  0.4331  0.0461
18467W        W61458  22.620   0.614  21.773  0.0227  0.3731 -0.0070
18468W        W61459  14.600   3.356   9.344  0.3554  0.1308  0.3732
18469W        W61460  25.539  17.287  16.181  0.0343  0.1264  0.1861
18470W        W61461   6.160   7.770  16.267  0.1533  0.2332  0.0688
18471W        W61462   4.945  24.406   3.875 -0.0215 -0.1927 -0.0282
18472W        W61463   3.711   2.582  24.125 -0.0228  0.2092  0.0578
18473W        W61464   1.234  19.495   0.216 -0.0489  0.0596  0.0829
18474W        W61465   8.582  31.613   2.964 -0.0049 -0.1242 -0.1654
18475W        W61466  28.053   3.486   5.691  0.1304 -0.2932  0.3202
18476W        W61467  19.015  28.213   3.746  0.0379  0.1332  0.0195
18477W        W61468  26.470   4.821   2.056  0.1460 -0.0610 -0.1058
18478W        W61469  27.668  12.199  25.082  0.1073  0.0785 -0.1487
18479W        W61470  30.805  31.435  21.386 -0.1477  0.0058  0.1032
18480W        W61471   6.620  10.343  29.034 -0.0045  0.1029  0.0496
18481W        W61472  11.990  28.920  25.334  0.1253 -0.0203 -0.3597
18482W        W61473   9.617  33.645  19.916  0.2026 -0.0091  0.1183
18483W        W61474  30.790  30.534   2.497  0.1660  0.5600 -0.0617
18484W        W61475   5.892  16.870   6.339  0.0783  0.1362  0.0010
18485W        W61476  32.854  12.548  16.340 -0.0351 -0.2007 -0.2043
18486W        W61477   6.402  10.379   4.068 -0.1509  0.1934  0.1491
18487W        W61478   9.738  27.479  24.712 -0.3140  0.2945  0.1717
18488W        W61479  28.417   5.370  27.459  0.1766 -0.0286  0.0971
18489W        W61480  17.162  12.713  27.688  0.1128 -0.1577 -0.1923
18490W        W61481   7.909  34.552   0.377 -0.0922 -0.1248  0.2735
18491W        W61482  21.483  24.374  18.891 -0.0753  0.0197 -0.0759
18492W        W61483  28.230  29.541   6.830  0.1821  0.0687  0.1406
18493W        W61484  13.996  30.919  10.083  0.0807 -0.0840  0.0235
18494W        W61485  30.484  31.813  16.578  0.3334  0.0696  0.1366
18495W        W61486  17.191  27.928   7.328 -0.0409 -0.0460 -0.0807
18496W        W61487   3.381  23.902  26.182  0.1083 -0.1377 -0.0644
18497W        W61488  27.130  24.484  13.564 -0.0524  0.1683  0.5032
18498W        W61489   7.738  11.854  21.765  0.3968 -0.0140  0.2782
18499W        W61490  22.037   3.263  26.479  0.0182  0.3622  0.4437
18500W        W61491  30.740   5.049  20.573 -0.1477  0.0903  0.0179
18501W        W61492  13.305  25.426  19.928  0.1977  0.0570 -0.1207
18502W        W61493  31.940   2.604  25.166  0.0786  0.2237  0.0276
18503W        W61494  20.994   3.619  25.962  0.2066  0.0330  0.0542
18504W        W61495   0.524  10.375  23.165  0.2266 -0.2159  0.0072
18505W        W61496  11.599   7.188   3.707  0.2585 -0.0572 -0.0955
18506W        W61497   7.093   6.104  10.622  0.0635 -0.0037  0.0113
18507W        W61498   9.198  28.487  20.845 -0.2004  0.2236 -0.4790
18508W        W61499  17.186   5.946   6.212  0.0904  0.1678  0.2434
18509W        W61500   0.948   7.672  18.931  0.1130 -0.4056 -0.0791
18510W        W61501  30.930  33.726  18.442  0.2666  0.1424  0.0666
18511W        W61502   1.413   4.420  15.747 -0.2716 -0.0054 -0.0958
18512W        W61503   4.340  17.420   8.285  0.0801  0.0353  0.0694
18513W        W61504   2.871  14.253   6.040  0.0443 -0.1571 -0.0714
18514W        W61505   4.703  12.861   4.351 -0.0106 -0.0076  0.1705
18515W        W61506  13.985   5.438  15.554 -0.1202  0.0198 -0.1452
18516W        W61507  34.664  16.374  26.513  0.2635 -0.0630 -0.2660
18517W        W61508   9.274   2.370  23.337  0.2086  0.0705  0.0672
18518W        W61509  15.274  18.764  22.715 -0.2511 -0.1080 -0.1533
18519W        W61510  34.046  28.457   7.328  0.2484 -0.2620 -0.0429
18520W        W61511   1.756  34.455  20.179  0.1054  0.0067  0.0498
18521W        W61512   2.055   2.920  17.231 -0.3391  0.0422 -0.2425
18522W        W61513  27.531  23.222  18.070  0.1178 -0.1683  0.1710
18523W        W61514   5.373  28.010  23.512 -0.2733  0.1854 -0.3016
18524W        W61515  11.016  18.804  17.479  0.2534 -0.0690  0.0504
18525W        W61516   7.194   0.499   0.133 -0.2161  0.1050  0.1528
18526W        W61517   0.818  27.405   4.251  0.0701 -0.1264 -0.1574
18527W        W61518  31.516  34.515  26.958 -0.2795 -0.1316 -0.2952
18528W        W61519  31.812  12.414   1.167 -0.2593 -0.0395 -0.3680
18529W        W61520  19.397  16.406   0.402  0.4991  0.2538  0.0155
18530W        W61521  15.212  32.863   6.315  0.3210  0.2734  0.3281
18531W        W61522  34.332  25.205  24.383  0.2739  0.1674  0.2840
18532W        W61523   5.413  34.369   4.108 -0.2246  0.0091 -0.0372
18533W        W61524   2.463  31.373  26.209 -0.1332 -0.1117 -0.1335
18534W        W61525  14.773   9.484   0.630 -0.1392 -0.1470 -0.2702
18535W        W61526   7.754  24.463  10.247 -0.1430  0.2186 -0.2275
18536W        W61527  28.451  33.329   8.060  0.0526 -0.1736 -0.0584
18537W        W61528   4.515  23.116   3.314  0.0165  0.2291  0.1414
18538W        W61529  29.866  13.509  27.192 -0.0134  0.0616  0.1175
18539W        W61530  10.772  30.738  24.802  0.0186  0.3159  0.0032
18540W        W61531  18.705  12.904   0.050  0.0011 -0.2116  0.0016
18541W        W61532  13.977  27.124  27.071  0.0627 -0.1715  0.1651
18542W        W61533   3.629  23.567   5.310  0.1379 -0.2306 -0.1678
18543W        W61534   7.264  31.860  16.435  0.0521 -0.4481  0.1986
18544W        W61535   9.680  21.079  26.615  0.3635  0.2430 -0.0017
18545W        W61536  22.199  29.486  24.410 -0.0338 -0.1747 -0.4019
18546W        W61537  10.006  32.547   9.292 -0.0596 -0.3622 -0.0488
18547W        W61538   5.966  13.136  26.827  0.0478  0.0340  0.0276
18548W        W61539  10.676  25.146  29.156  0.0936  0.0301  0.0381
18549W        W61540  34.644  28.273  19.786  0.1167  0.0275  0.0748
18550W        W61541   2.090   3.499  28.821 -0.2081  0.0707 -0.2495
18551W        W61542   7.661  20.915  10.279  0.0518 -0.0106  0.1122
18552W        W61543  14.181  30.379   6.503  0.1294 -0.1234  0.0053
18553W        W61544  11.558   4.998  24.143 -0.3584  0.0684  0.0945
18554W        W61545   2.325  18.593  25.916 -0.1342  0.1488  0.1722
18555W        W61546  23.327  10.176   0.448 -0.3496  0.1033 -0.2686
18556W        W61547  31.391  27.898  13.119 -0.1787 -0.2595  0.0522
18557W        W61548   8.707  24.249   1.966 -0.0253 -0.0487  0.0332
18558W        W61549   1.110  23.176   0.920 -0.2145 -0.0073  0.0938
18559W        W61550  28.151  30.640   1.691 -0.3556  0.1303  0.0884
18560W        W61551  28.292  32.932  13.816  0.1697  0.4449  0.0254
18561W        W61552   9.521  26.886  20.424  0.0355 -0.1089  0.0257
18562W        W61553  10.017  26.374  26.686  0.3048 -0.2354  0.1170
18563W        W61554  33.776  27.345  27.607 -0.0467  0.2271  0.0489
18564W        W61555  12.103  15.434  25.034  0.1494 -0.0637 -0.1470
18565W        W61556  30.214   4.852  26.860  0.1968 -0.2797 -0.0938
18566W        W61557  32.791  15.760   9.297  0.0094 -0.2193  0.2234
18567W        W61558  29.873  32.508   6.100 -0.1227  0.2017 -0.0799
18568W        W61559  23.338   5.757  15.161  0.1300  0.2117 -0.3099
18569W        W61560  10.805  25.911  21.011 -0.2354 -0.3276  0.0918
18570W        W61561  23.270  33.992  19.647  0.0616  0.0391  0.1909
18571W        W61562  25.782  22.462   3.148 -0.2291 -0.0068  0.0235
18572W        W61563   8.278   1.347  19.707 -0.1449 -0.1842  0.0027
18573W        W61564   0.775   3.676   4.001  0.1363  0.0122  0.1439
18574W        W61565   0.235  33.489   7.921 -0.1638  0.3210  0.0204
18575W        W61566  31.737   9.707  23.223 -0.3818 -0.4807  0.0067
18576W        W61567   1.673   3.401  21.253 -0.1355  0.0285 -0.0541
18577W        W61568   5.868   9.978  23.169 -0.1048 -0.0212  0.0576
18578W        W61569   2.502  31.004   9.573 -0.0728  0.2253 -0.0763
18579W        W61570   4.296  17.321  10.988 -0.1062  0.0005  0.1973
18580W        W61571  30.170   1.216  26.366 -0.3949  0.0560  0.0067
18581W        W61572   1.688  30.838  21.884  0.3794 -0.2598 -0.4135
18582W        W61573  10.584  24.963  27.569 -0.0259 -0.3196 -0.0889
18583W        W61574   5.937  34.361  24.860 -0.3422  0.1599  0.0685
18584W        W61575  12.087   1.923   4.794 -0.3221  0.1727  0.1626
18585W        W61576  24.325   9.289  24.148  0.1377  0.1006 -0.0237
18586W        W61577   3.714   4.643  21.332  0.1077  0.0193  0.2449
18587W        W61578  15.852  15.033  28.257 -0.0640 -0.1282  0.2119
18588W        W61579  13.247  33.682  15.310 -0.2857 -0.0529  0.1033
18589W        W61580   6.896  28.559  19.846 -0.1698 -0.0082  0.3498
18590W        W61581  29.240   3.944  23.650 -0.0713 -0.1934  0.0108
18591W        W61582  19.451   4.122  28.825  0.2129  0.2589  0.0432
18592W        W61583  12.015  34.528  26.740  0.0494 -0.1245 -0.1437
18593W        W61584  22.820   5.720  17.082  0.4176 -0.0050 -0.2341
18594W        W61585  20.854   4.307   5.902 -0.1668 -0.0452  0.1210
18595W        W61586  34.439   7.228  16.247 -0.1851 -0.1467  0.1338
18596W        W61587  14.757  29.803   6.195  0.2614  0.0356 -0.0258
18597W        W61588  19.760   3.934  26.770  0.0240 -0.2511 -0.1277
18598W        W61589  33.619  34.320   6.568  0.1015 -0.0063 -0.0274
18599W        W61590  32.886  15.777  25.291 -0.0658 -0.3360 -0.0751
18600W        W61591  21.341  21.352  18.825 -0.0441 -0.1419 -0.1614
18601W        W61592  26.672  24.195  13.645 -0.0293  0.2026  0.2117
18602W        W61593  33.917   9.891  10.925 -0.1466  0.0541 -0.1883
18603W        W61594   5.676  28.831  25.074 -0.2761 -0.0261 -0.0719
18604W        W61595  23.469  15.208  18.905  0.0038 -0.0081  0.1835
18605W        W61596  34.004  23.679  21.668  0.0326  0.0083  0.0015
18606W        W61597  20.201  25.115  20.504 -0.0955 -0.2286 -0.2717
18607W        W61598   5.486  34.007  26.199  0.2444 -0.0043 -0.2373
18608W        W61599  16.690   5.436   4.359 -0.0480  0.0563  0.1434
18609W        W61600  32.255  10.956  27.216  0.2634  0.0759  0.0254
18610W        W61601   8.363   0.278  10.026  0.1403  0.0633 -0.3920
18611W        W61602  19.008  33.937   8.323  0.0071  0.3152  0.0881
18612W        W61603  21.892  29.415  27.781 -0.1976  0.0519  0.2533
18613W        W61604  18.372  21.321  21.919 -0.0874 -0.1407 -0.0424
18614W        W61605  25.470  31.080   4.813  0.0164 -0.0099 -0.0005
18615W        W61606  32.458  19.145   5.593 -0.1092 -0.0444  0.2649
18616W        W61607   6.890   9.497  24.025  0.0542 -0.1676 -0.0426
18617W        W61608   5.456  33.085   1.138 -0.0341  0.1180 -0.2509
18618W        W61609   9.602  27.988   9.622 -0.0258 -0.1411 -0.1235
18619W        W61610  30.303   6.094  17.400 -0.0898  0.0226 -0.0009
18620W        W61611   4.165   0.775  19.438 -0.3954 -0.2103 -0.3241
18621W        W61612   5.302  25.347   4.871 -0.2679  0.4025  0.2631
18622W        W61613  28.339   3.252  20.713 -0.1147  0.3510  0.2183
18623W        W61614   7.445  32.354  16.220 -0.4376  0.0385 -0.1780
18624W        W61615   7.529  19.995  26.366 -0.0321 -0.3367 -0.0721
18625W        W61616  24.986  25.906   1.376  0.1880 -0.2778  0.2051
18626W        W61617  30.712   2.796   0.226 -0.0726 -0.0661  0.1128
18627W        W61618  28.105  27.257  24.638  0.1102  0.1304 -0.0947
18628W        W61619   3.766   2.964   0.145 -0.0610  0.3093  0.2351
18629W        W61620   8.631   2.100  26.987 -0.1597 -0.1335  0.1278
18630W        W61621   0.013   4.118  20.433 -0.0141  0.0562  0.0439
18631W        W61622  20.182  11.153   3.610  0.0325  0.2997  0.1631
18632W        W61623   6.707   5.293  23.798 -0.1183  0.0631  0.1706
18633W        W61624  33.177   5.157  23.113 -0.1247  0.2111  0.0121
18634W        W61625   5.541   2.341   5.717  0.1005 -0.1012 -0.2313
18635W        W61626  17.437  29.585  16.821 -0.1282  0.2388  0.0515
18636W        W61627  19.301  17.832   4.637  0.0980  0.2114 -0.1344
18637W        W61628  16.179  31.865  20.941  0.0435 -0.0206 -0.2670
18638W        W61629   8.739   9.002   2.402  0.0275 -0.1857  0.2241
18639W        W61630  32.952  25.534  18.065 -0.0328  0.2184 -0.0374
18640W        W61631   1.877  22.998  24.017  0.0319 -0.0568  0.4175
18641W        W61632  28.748  15.101  29.239 -0.1368 -0.1032  0.1205
18642W        W61633   0.549  24.873  23.517 -0.2934 -0.1398 -0.0139
18643W        W61634  31.923  12.664   9.873  0.0193 -0.2750  0.3452
18644W        W61635  14.821   1.595   0.855  0.0670  0.5792  0.0958
18645W        W61636  14.795  32.905  25.755 -0.2198 -0.1075  0.0705
18646W        W61637  10.586   6.464  16.296  0.2922 -0.2760  0.1118
18647W        W61638  26.461   2.577  28.492 -0.1901  0.2324 -0.1746
18648W        W61639  12.866  29.488  10.413 -0.2113  0.1552  0.0044
18649W        W61640   7.751   8.792   4.143  0.0357 -0.0042 -0.0970
18650W        W61641   0.095   9.505  28.897 -0.0621  0.0663 -0.1711
18651W        W61642   0.388  28.794   4.813 -0.1955 -0.4897  0.2215
18652W        W61643  19.027  27.953  25.883  0.0803  0.0155 -0.1708
18653W        W61644  24.614   3.989   9.071  0.0347 -0.1608 -0.0990
18654W        W61645   5.141  19.302   5.005  0.1959  0.1800  0.1035
18655W        W61646  26.849  32.622   2.892  0.3824  0.3263 -0.0858
18656W        W61647  10.419  22.142  29.062  0.3750  0.2132 -0.2746
18657W        W61648   8.866   6.601   4.038  0.0073  0.0681  0.1324
18658W        W61649   7.453   3.100  23.897 -0.0509 -0.0258  0.0683
18659W        W61650  16.947  27.077  18.327 -0.0468 -0.0889 -0.0475
18660W        W61651  27.544  27.375  26.875  0.0079  0.1275 -0.1771
18661W        W61652  23.373  16.234  17.112  0.1832 -0.0302  0.1187
18662W        W61653  25.260  31.883   6.050 -0.1119  0.0256 -0.0124
18663W        W61654  30.789  30.367   1.259 -0.0783 -0.2662 -0.2853
18664W        W61655   6.498  20.673  18.176 -0.1683 -0.1296  0.2588
18665W        W61656  31.797  23.623  25.083  0.0000  0.1636 -0.1060
18666W        W61657  34.635  30.683  26.105  0.0858 -0.0289  0.1620
18667W        W61658  23.718   8.151  18.204 -0.2913  0.0390  0.3026
18668W        W61659  25.566  28.978  17.037 -0.0477 -0.0457 -0.0691
18669W        W61660  20.971  18.494  28.582  0.1203 -0.3181  0.0189
18670W        W61661  27.900  26.094   4.385  0.0579  0.0289 -0.1952
18671W        W61662   1.653  30.193  28.089  0.0094 -0.0637  0.2008
18672W        W61663   9.845  30.306   9.814 -0.0643 -0.1426  0.2331
18673W        W61664   4.340  13.813  11.109 -0.0756  0.0217  0.0983
18674W        W61665   7.639  29.755  27.794 -0.1216  0.3738 -0.0967
18675W        W61666   1.415  21.119   8.278 -0.1633 -0.2548 -0.0580
18676W        W61667  25.531  27.135   3.512  0.1006 -0.1251  0.2171
18677W        W61668   3.794  21.034   8.308  0.0788 -0.0631  0.1054
18678W        W61669   3.156   4.537  19.372 -0.4145  0.0366 -0.3876
18679W        W61670  34.060  10.809  24.412  0.3641 -0.1719  0.1877
18680W        W61671   8.770   0.487  17.697  0.0435  0.3405  0.3322
18681W        W61672  22.365  29.106  26.786  0.0146  0.3158 -0.0226
18682W        W61673   7.162  20.266   1.873  0.1746 -0.0447 -0.3716
18683W        W61674  26.344  33.721  24.636 -0.1371  0.0795 -0.0240
18684W        W61675   0.869  27.475  15.128  0.0305  0.2413  0.2979
18685W        W61676   6.597  26.088  20.131  0.0479 -0.1095  0.2542
18686W        W61677  18.654  17.667   8.613 -0.1724  0.0209 -0.1305
18687W        W61678  27.436   1.132  25.899  0.0208 -0.2161  0.2061
18688W        W61679  34.685   2.216  22.658 -0.0090 -0.1011 -0.1373
18689W        W61680  21.441  12.660  28.054 -0.3474 -0.3577  0.2341
18690W        W61681  20.893  24.462   8.733 -0.0657  0.1846 -0.0539
18691W        W61682  20.417  25.101  21.953 -0.0816  0.0630  0.4287
18692W        W61683   8.215   1.472   4.798  0.1754 -0.1454 -0.2005
18693W        W61684   9.448  17.716  25.854 -0.0654  0.2236 -0.1885
18694W        W61685  32.615  30.326  22.682  0.2818  0.0498  0.0818
18695W        W61686  19.919   9.122  14.105  0.0213  0.0607  0.1780
18696W        W61687   3.652  19.664   2.599  0.0746  0.2001 -0.0501
18697W        W61688   2.204  27.284  24.738  0.2182  0.0384 -0.2319
18698W        W61689  32.503  33.023  15.897  0.1720 -0.2650 -0.3828
18699W        W61690   9.159   6.613   1.225  0.0881 -0.1384  0.0198
18700W        W61691   4.656  20.685  17.141 -0.2630  0.1479  0.0312
18701W        W61692  18.388   8.230  24.776  0.2949  0.1839  0.0456
18702W        W61693  30.239   9.624   7.761 -0.1258 -0.2100 -0.1696
18703W        W61694  31.731  16.158  25.799 -0.2384 -0.3069 -0.0437
18704W        W61695   6.648  33.086   7.178 -0.0554  0.2512 -0.0234
18705W        W61696   3.428  29.644   5.657  0.1383 -0.0582  0.1788
18706W        W61697  32.407   1.978  18.951 -0.0798 -0.0410 -0.2686
18707W        W61698  29.260  19.526  21.988 -0.1391 -0.1574  0.1661
18708W        W61699  34.677  33.537  25.506 -0.0831 -0.2513 -0.1838
18709W        W61700  33.934  18.153  24.235  0.1391 -0.1234 -0.3397
18710W        W61701  18.155  26.877  24.125  0.2705  0.0421 -0.2019
18711W        W61702   4.075   5.506  17.989 -0.1421  0.0040  0.1324
18712W        W61703   8.992  21.243  18.982  0.0734  0.3540  0.0455
18713W        W61704  24.784  14.066  23.681  0.1972  0.1279 -0.1261
18714W        W61705  10.749   4.955  25.256 -0.0082  0.2750 -0.1016
18715W        W61706  27.406   6.275  29.258 -0.1334  0.1910  0.3624
18716W        W61707  29.318   5.270  26.160  0.1477  0.0597 -0.0790
18717W        W61708  29.639  28.453   5.687  0.1299 -0.2534  0.0203
18718W        W61709  14.673   8.827  27.307  0.2027 -0.3785  0.0800
18719W        W61710  33.470   4.564  28.533  0.1494  0.1724  0.0475
18720W        W61711   6.399   0.177  21.896  0.2110  0.1189 -0.1292
18721W        W61712  29.215  29.455  27.359 -0.2559  0.0944 -0.1146
18722W        W61713   1.815  30.791  25.494  0.1770  0.0325 -0.1573
18723W        W61714  28.731  31.312   4.455  0.2123  0.1305  0.1103
18724W        W61715  32.612   3.861  22.992 -0.0081 -0.2239  0.1768
18725W        W61716  21.535  20.900   8.971  0.0302 -0.1213 -0.1280
18726W        W61717  15.372   7.324   1.558  0.1479 -0.2616 -0.2555
18727W        W61718  33.094  34.775   5.399  0.1536  0.0400  0.2003
18728W        W61719  33.780   4.525   4.593  0.0858 -0.2143  0.0463
18729W        W61720  23.882  24.011  19.149  0.0409  0.0719  0.2801
18730W        W61721  30.294  30.700   4.485  0.1957  0.1755  0.1454
18731W        W61722  28.501  13.683   5.651 -0.0609  0.0357  0.3185
18732W        W61723  30.292  26.863  24.029  0.0190 -0.3095 -0.1922
18733W        W61724  26.506   8.976   0.584 -0.0409  0.0848 -0.0853
18734W        W61725  26.358  19.500  23.603 -0.0584 -0.1037  0.1288
18735W        W61726  25.799   1.938  17.665 -0.0686  0.4353 -0.1575
18736W        W61727   1.393   2.986   1.586 -0.3151  0.3629 -0.4179
18737W        W61728   4.541  31.450   0.133 -0.0365 -0.2015  0.0007
18738W        W61729  26.597  30.376   1.866 -0.1867  0.1712 -0.0170
18739W        W61730   7.235   0.475  14.965 -0.0353 -0.3087  0.1937
18740W        W61731  27.695   3.227   5.411 -0.3589 -0.0488  0.1720
18741W        W61732  14.449  24.142  22.399  0.2044 -0.3501  0.4998
18742W        W61733  23.424  11.069  20.534  0.1166  0.0711  0.1809
18743W        W61734  26.008  22.534  23.036 -0.0928  0.0496  0.3553
18744W        W61735  28.572  15.778   9.330  0.0189 -0.4076  0.2393
18745W        W61736  25.444  27.759   8.006 -0.5172  0.0385  0.1120
18746W        W61737  20.501  30.622  27.128  0.0169 -0.0295 -0.2433
18747W        W61738  16.966  10.562  28.612 -0.1396 -0.2638  0.2606
18748W        W61739  28.976   4.532  14.386  0.0764 -0.2779 -0.0434
18749W        W61740   6.426  25.495  17.880 -0.1798 -0.1010 -0.2249
18750W        W61741   4.808   8.994  16.597  0.0293 -0.1167 -0.0944
18751W        W61742  27.148  34.177   1.426 -0.1759 -0.1150 -0.2554
18752W        W61743   4.231  22.663  16.080 -0.4468  0.0431  0.3004
18753W        W61744  27.957  33.356  13.802  0.2910 -0.2248 -0.0570
18754W        W61745  14.364  31.775   0.243  0.0133 -0.1248 -0.1141
18755W        W61746   4.303  24.143   2.337 -0.0452  0.0827  0.0167
18756W        W61747   2.184  30.751  22.022  0.0158  0.0855  0.0068
18757W        W61748   7.215  22.767   6.549 -0.3456  0.1165  0.0715
18758W        W61749  24.538  26.431  18.483 -0.0879  0.3340  0.0906
18759W        W61750  13.561  24.911  23.060 -0.1224  0.0815 -0.0479
18760W        W61751   8.745   6.328  25.748 -0.0392 -0.0915  0.1772
18761W        W61752  34.599  21.965  24.430 -0.0179  0.0135  0.0333
18762W        W61753  23.841  14.128   6.920 -0.4979 -0.0702  0.1194
18763W        W61754   1.458  25.470  21.870  0.0742 -0.0903  0.0920
18764W        W61755   1.931  10.279   5.960 -0.1286 -0.0600  0.2580
18765W        W61756   9.375  15.675  25.742  0.0853  0.0712  0.1052
18766W        W61757   3.760  12.062  20.579  0.0188  0.0186  0.1800
18767W        W61758  22.709   5.083   0.390 -0.1332 -0.2560  0.2548
18768W        W61759  33.176  15.990   8.961 -0.1879 -0.1738 -0.1171
18769W        W61760   7.420  30.861   7.590 -0.0358  0.3550 -0.0883
18770W        W61761  18.063   6.582  17.798  0.1494 -0.0958  0.0380
18771W        W61762  25.339  29.436  26.216 -0.1038 -0.0060  0.1853
18772W        W61763   9.441  10.967   0.312  0.0237 -0.2567  0.0314
18773W        W61764   6.032  25.464  27.548 -0.0435 -0.0698  0.3143
18774W        W61765   0.991  19.808  22.009  0.5977 -0.3579 -0.1124
18775W        W61766   2.844  27.545   2.714  0.1945 -0.1874 -0.2888
18776W        W61767  33.251  29.831   0.746 -0.0099  0.0376  0.0590
18777W        W61768   1.149  28.028  25.665 -0.0733  0.3636 -0.2191
18778W        W61769  31.955  31.385  14.831  0.1221 -0.2938  0.0787
18779W        W61770  29.736   9.707  24.105 -0.4018 -0.0530  0.1159
18780W        W61771  30.518  24.470   5.509  0.3226 -0.0905  0.1419
18781W        W61772  30.017  26.530   8.343  0.0237  0.0882 -0.0800
18782W        W61773  34.408   1.158  24.445  0.1166 -0.0050 -0.1971
18783W        W61774   6.530  26.080  27.045  0.0471 -0.0629 -0.0601
18784W        W61775   3.992  33.732   8.367  0.0722  0.1229  0.2798
18785W        W61776   7.595  26.917  29.165 -0.0695  0.2861  0.2719
18786W        W61777  19.578  20.418   2.255  0.2533 -0.0588  0.0605
18787W        W61778   3.085  13.857  24.139  0.4115 -0.0785  0.0348
18788W        W61779   4.192  25.872  19.919 -0.3455 -0.2718 -0.1244
18789W        W61780   2.107  31.799   1.870 -0.1062  0.1095 -0.0143
18790W        W61781  12.834  31.779   7.675 -0.2873  0.1688 -0.2472
18791W        W61782  33.383  34.651   3.689 -0.1017 -0.0175  0.0710
18792W        W61783  23.363  33.797   0.977 -0.1314  0.0999  0.3265
18793W        W61784   0.249  29.441  28.082  0.3217  0.1271  0.2749
18794W        W61785   5.098   7.140  19.879  0.0111  0.1033 -0.2649
18795W        W61786  17.044   5.253   8.404 -0.1804  0.2535 -0.3106
18796W        W61787   7.502  24.809  16.852 -0.1086 -0.1147 -0.3269
18797W        W61788  34.799  34.160  17.131 -0.1197  0.0838 -0.0351
18798W        W61789   5.445  25.258  15.532  0.1952  0.1007  0.2527
18799W        W61790   0.205   1.796   7.259  0.2120 -0.2303  0.1727
18800W        W61791   3.292  28.824   8.275 -0.2169 -0.4096 -0.1006
18801W        W61792  24.200  30.600   8.886  0.0146  0.0317 -0.0599
18802W        W61793  29.073   8.278  28.628 -0.1903  0.2404  0.2892
18803W        W61794  23.645  15.035  26.163  0.0540  0.1762  0.0926
18804W        W61795  12.051  27.599  17.446  0.0138 -0.3815 -0.1175
18805W        W61796   4.826  20.380  24.618  0.1725 -0.1562 -0.3262
18806W        W61797   4.750  18.380  17.485  0.2052  0.3345 -0.0035
18807W        W61798  22.678  30.388  19.045  0.1000  0.0958 -0.1120
18808W        W61799   2.695  30.939   7.649 -0.0174  0.1193  0.0139
18809W        W61800   0.666  26.374   0.008 -0.1590  0.0273  0.1951
18810W        W61801  34.092  30.459  19.171  0.1387 -0.1069  0.0419
18811W        W61802  11.913  34.541   5.916  0.4259 -0.1235 -0.0256
18812W        W61803   0.832  33.191  15.803  0.0924  0.0070  0.2107
18813W        W61804   6.022  26.653  27.853  0.0921  0.1985 -0.1340
18814W        W61805   1.002  14.865   1.728 -0.0605  0.3071 -0.1353
18815W        W61806   2.494   2.309   8.737  0.1686  0.1913  0.1384
18816W        W61807  34.467  29.680  28.173 -0.3303  0.4497 -0.1029
18817W        W61808  33.462   7.274  17.853  0.2395 -0.0445  0.3547
18818W        W61809  29.979  29.590  25.016  0.1347 -0.2502 -0.1587
18819W        W61810  10.970   2.468   3.618  0.1807 -0.0952 -0.5587
18820W        W61811   7.198  18.539   8.027  0.1065 -0.1143  0.1560
18821W        W61812  24.719   9.159  26.928  0.1553 -0.0609  0.0327
18822W        W61813  29.263  22.271   0.789  0.0428  0.0045  0.1295
18823W        W61814   7.012  27.766   4.848  0.1031 -0.0625  0.1313
18824W        W61815   9.683  26.083   7.784  0.2037  0.1627 -0.2572
18825W        W61816   6.935  24.413   4.842  0.4635 -0.0502 -0.0535
18826W        W61817   0.592  21.658  28.199 -0.0941  0.1664  0.1700
18827W        W61818   9.305  25.478  24.924  0.0037 -0.0107 -0.0490
18828W        W61819   6.202  23.090  28.507 -0.1082 -0.0275  0.0287
18829W        W61820   3.704  10.785  27.399  0.1159 -0.1021  0.1458
18830W        W61821   0.095   9.960  28.103  0.1044  0.2028 -0.0856
18831W        W61822  34.170  29.921   8.636  0.1864 -0.2195  0.1596
18832W        W61823   4.166  25.335  10.074 -0.2921 -0.1265  0.0115
18833W        W61824   6.004  15.731  28.565  0.0346 -0.0752 -0.1589
18834W        W61825  14.345  20.858  13.913  0.0273 -0.0932  0.1281
18835W        W61826   3.973  11.046   8.597  0.0407 -0.3884 -0.0442
18836W        W61827  24.640  10.108  18.230  0.0197 -0.0952 -0.1844
18837W        W61828  25.163  11.397   4.088 -0.1536  0.3110 -0.1092
18838W        W61829  28.753   5.655  16.251  0.1088  0.1253 -0.1052
18839W        W61830   6.762  30.586  23.744  0.0929  0.2476 -0.1814
18840W        W61831  20.096  26.648  27.445  0.0442  0.0666 -0.1675
18841W        W61832   6.819  33.403   1.322  0.0539  0.0765 -0.3259
18842W        W61833   6.764   3.233  20.588  0.2290 -0.2667  0.0399
18843W        W61834  27.604  19.102   2.996  0.3194 -0.0609 -0.2443
18844W        W61835   7.383   7.160   2.311 -0.2760 -0.0456 -0.0981
18845W        W61836  12.555   3.730   0.236  0.1567  0.2017  0.0375
18846W        W61837   3.944  19.858  10.092  0.2828  0.1150  0.0454
18847W        W61838  26.306   1.353  22.167  0.1602  0.1487  0.2983
18848W        W61839  27.202   0.948  22.773  0.0122  0.1863 -0.0171
18849W        W61840  32.475   3.655  14.734 -0.1938  0.2206 -0.0675
18850W        W61841  27.176  20.751   4.092  0.1008  0.2331 -0.0267
18851W        W61842  30.709  28.802  28.663 -0.0332  0.1342  0.1463
18852W        W61843  26.094   7.292   7.031  0.0338 -0.0501  0.0272
18853W        W61844   6.198   5.634   8.841  0.1800  0.1540 -0.0383
18854W        W61845  14.383  22.732   2.805  0.0326  0.1556  0.1058
18855W        W61846   8.903   7.881  10.577  0.0155 -0.0973  0.2808
18856W        W61847   5.781  10.221  20.193 -0.0328  0.2638 -0.0408
18857W        W61848  10.457  27.980   6.320  0.0330  0.1878  0.0732
18858W        W61849  30.269  13.555  25.920  0.0878 -0.1062 -0.0091
18859W        W61850  23.820  32.971   3.910 -0.1706  0.0565  0.0220
18860W        W61851   8.789  29.103   5.381 -0.1089 -0.1799  0.1305
18861W        W61852  26.228  26.228  21.964 -0.3173  0.2381 -0.1649
18862W        W61853   1.361   7.014   0.379 -0.1062  0.2991 -0.0460
18863W        W61854  17.690  31.289  26.229 -0.0093 -0.1302  0.1765
18864W        W61855  31.093  10.739  22.440 -0.0275 -0.1061  0.1045
18865W        W61856   2.464  21.736  14.305 -0.0326  0.0487  0.0417
18866W        W61857  28.131  15.854  27.966 -0.2046 -0.2164  0.1958
18867W        W61858  34.753  27.071  14.480 -0.1505 -0.0332 -0.0451
18868W        W61859  23.707  32.978  22.110 -0.1550  0.2781 -0.0433
18869W        W61860   7.067  29.321   0.733  0.2286  0.2090  0.1495
18870W        W61861   3.741  11.385  18.654 -0.2771 -0.3328 -0.0082
18871W        W61862   6.123   5.435  10.010  0.1164  0.0081 -0.0390
18872W        W61863  33.708  20.612  19.575 -0.1751  0.3707 -0.2036
18873W        W61864   3.926  34.146  26.633 -0.1272 -0.2558  0.0198
18874W        W61865   5.537  24.367   4.816  0.3194 -0.3305 -0.4782
18875W        W61866  34.186  17.267   6.890  0.0140 -0.1489 -0.0075
18876W        W61867   7.037   3.235  22.302 -0.1095  0.1778  0.0581
18877W        W61868   2.783  23.781   9.946  0.0253  0.0208 -0.2084
18878W        W61869   9.498  30.993   2.943  0.2744  0.0792  0.0444
18879W        W61870   0.156  12.605  21.556  0.0771  0.2387  0.0054
18880W        W61871   5.348  31.142  16.586  0.1317 -0.2353  0.3379
18881W        W61872  32.461  32.241  22.947 -0.4217  0.0522  0.0708
18882W        W61873  31.755  33.609   7.787  0.0003  0.3367 -0.3989
18883W        W61874   7.851  18.135  23.981 -0.1481  0.0643  0.2252
18884W        W61875  14.603   3.684   3.898 -0.3096 -0.0394 -0.1892
18885W        W61876   7.150   9.227  21.307 -0.3329 -0.0301  0.2212
18886W        W61877   2.570  11.147  18.474  0.1846  0.1218 -0.1188
18887W        W61878  34.357  25.660  24.680 -0.0160  0.0508  0.0595
18888W        W61879  26.038   5.609  28.025 -0.0467  0.2891  0.0091
18889W        W61880  26.699  11.056  19.405 -0.4726  0.0280  0.0566
18890W        W61881  15.320  10.629  19.969  0.0907  0.0665 -0.3929
18891W        W61882   7.170   7.567  19.010 -0.0491  0.0922  0.0577
18892W        W61883  30.624  34.621  17.488 -0.3602 -0.0439  0.0664
18893W        W61884  29.922  11.721  19.500  0.3551 -0.1706 -0.3029
18894W        W61885  20.213  27.647  26.506 -0.1499  0.0111  0.0757
18895W        W61886   1.686  34.754  15.863 -0.2091 -0.0408 -0.1665
18896W        W61887   8.127   5.960  16.909  0.0210 -0.0743 -0.1789
18897W        W61888  33.936  22.426  26.341  0.0405 -0.2047 -0.1291
18898W        W61889   7.747   6.000   9.522 -0.1425  0.0746 -0.1176
18899W        W61890   9.201   7.789  26.840 -0.1366 -0.0420  0.0685
18900W        W61891   2.037  32.558  28.322  0.1328 -0.0012  0.1697
18901W        W61892  27.797  31.497  22.748  0.1881  0.1001  0.0512
18902W        W61893  10.873  26.939  16.987 -0.0179  0.0420 -0.5202
18903W        W61894  19.949  31.469  13.113  0.4293 -0.0857 -0.0858
18904W        W61895  32.629  33.080  18.096 -0.3029  0.2586  0.2594
18905W        W61896  34.733  29.131  19.404 -0.0164  0.1513 -0.3328
18906W        W61897  31.117   0.068  21.993  0.1437 -0.0171  0.0595
18907W        W61898  22.373   8.257  27.222  0.0781  0.0428  0.3876
18908W        W61899  32.180  30.934  18.176 -0.2197  0.1640 -0.0016
18909W        W61900   0.376  29.470   0.813  0.0553  0.1602  0.1529
18910W        W61901  10.411  20.497  24.475  0.1701 -0.0373  0.1322
18911W        W61902   8.626   0.374  16.198  0.1398 -0.1946 -0.3259
18912W        W61903  14.674  33.092  18.306  0.2222  0.1922  0.0568
18913W        W61904   9.940   0.136  15.121 -0.1562  0.1724  0.0139
18914W        W61905  17.276  23.824  15.005 -0.0379 -0.1695 -0.0221
18915W        W61906  21.770   2.191  21.127  0.1006 -0.0121 -0.1071
18916W        W61907  29.952   2.126  24.715 -0.1140 -0.2508 -0.1924
18917W        W61908  33.639  26.386  24.161  0.1145  0.1701 -0.0298
18918W        W61909  19.722  11.206  22.131 -0.1595  0.1983 -0.0153
18919W        W61910   2.940  30.455  14.799 -0.0355  0.0399 -0.2181
18920W        W61911  31.380   0.063  24.803 -0.0337  0.0628 -0.2565
18921W        W61912   8.625  12.297  18.611  0.0714  0.0242  0.2545
18922W        W61913   5.074  24.354   3.006 -0.5244 -0.1617 -0.1493
18923W        W61914   1.453  16.930  19.926  0.1618 -0.1413  0.2538
18924W        W61915  30.652  33.524  15.763 -0.0268  0.0330 -0.0712
18925W        W61916  21.740   8.331  28.693  0.0064  0.2631  0.0207
18926W        W61917  33.112  12.031  26.541 -0.0245 -0.1570  0.3656
18927W        W61918  15.578  22.971  21.627 -0.2336  0.0885  0.0549
18928W        W61919  26.699  33.126  22.314 -0.2476 -0.0504  0.1192
18929W        W61920  16.044  23.049  26.556 -0.1494  0.2898 -0.0899
18930W        W61921   7.700  22.184  22.848  0.1523  0.0129 -0.0045
18931W        W61922  31.153  24.371  25.146 -0.2123  0.2053 -0.0496
18932W        W61923  30.649  10.758  22.106 -0.1370  0.0775 -0.2471
18933W        W61924  32.689  13.573  18.855  0.1377  0.1684  0.2136
18934W        W61925   6.519  33.860  19.334  0.2035  0.2149  0.1123
18935W        W61926  22.154  31.531  13.211 -0.1440  0.0555 -0.1584
18936W        W61927  17.691  33.645  18.481  0.2294 -0.0295 -0.1308
18937W        W61928   4.606   6.425  20.073  0.0606  0.0491  0.1206
18938W        W61929   2.248  33.384  17.582 -0.0286 -0.1479  0.0834
18939W        W61930  33.977   6.202  17.314 -0.0209 -0.0052  0.1046
18940W        W61931  31.559   8.571  25.195  0.1081 -0.1161  0.1211
18941W        W61932  14.743   6.844   5.603  0.1388 -0.2327 -0.1512
18942W        W61933  25.601  34.742  16.990  0.0811 -0.0814 -0.1106
18943W        W61934  18.836  32.241  14.431  0.1193  0.3770 -0.3556
18944W        W61935  11.616  12.156  22.638  0.0228  0.0032  0.2866
18945W        W61936   7.623  25.066  19.419 -0.0412  0.0972  0.1728
18946W        W61937  32.279   5.698  17.700  0.2470  0.1792  0.1234
18947W        W61938   7.506   2.694  16.973  0.2018  0.0489  0.0360
18948W        W61939  33.439  30.989  21.464 -0.3556 -0.0061  0.0118
18949W        W61940   2.817  30.772  18.090  0.1804 -0.2630 -0.2169
18950W        W61941  31.966   2.281  22.957  0.1776  0.1178  0.0764
18951W        W61942  19.452  32.569   5.034  0.2913 -0.0327 -0.0900
18952W        W61943  25.580  31.281  27.414  0.0589  0.0960  0.0551
18953W        W61944   8.466   8.414  17.296  0.0702 -0.1874 -0.0168
18954W        W61945  26.560   0.190  16.867 -0.0152  0.0964  0.3971
18955W        W61946   9.655  23.646  15.715  0.0673  0.1242 -0.0805
18956W        W61947   0.146  31.655  17.082 -0.2023  0.0542 -0.2910
18957W        W61948  31.922   1.059  20.956 -0.1760  0.1848 -0.2933
18958W        W61949  34.032  24.118   2.309  0.2305  0.4206  0.1615
18959W        W61950   9.861  15.586  24.088  0.0271 -0.0519  0.1325
18960W        W61951   9.244  31.726  22.778 -0.1153  0.0826  0.3860
18961W        W61952  30.202  33.460  22.431  0.0448  0.1340 -0.5275
18962W        W61953   9.506  17.361  16.699  0.1566 -0.0268 -0.0310
18963W        W61954  25.968  13.233  22.913  0.4348 -0.0415 -0.0143
18964W        W61955   6.893   7.226  28.531 -0.0296  0.0090  0.1568
18965W        W61956   5.146  26.888  21.066 -0.1171  0.0165 -0.0483
18966W        W61957  32.730   9.124  24.449  0.0049  0.1381  0.0886
18967W        W61958  17.172   5.295  16.605 -0.2178  0.1347 -0.0527
18968W        W61959  27.153   2.106  21.282 -0.0068  0.2211 -0.0913
18969W        W61960   6.566  16.486   0.365  0.3275 -0.2611 -0.1008
18970W        W61961  27.569   8.445  17.028 -0.0095  0.1203 -0.1943
18971W        W61962  29.445  33.042  18.514 -0.1966  0.3893  0.3149
18972W        W61963  12.864   9.972  18.690 -0.2353  0.4419 -0.0427
18973W        W61964  29.415   7.023   8.514 -0.0705 -0.0971 -0.1330
18974W        W61965   1.292  34.696  17.275 -0.1563 -0.0755  0.0362
18975W        W61966  34.424  20.309  22.317 -0.2895 -0.3138  0.3375
18976W        W61967  31.959  27.673  21.031  0.1936 -0.0341  0.0309
18977W        W61968  29.608  21.175  16.085  0.0367 -0.2970 -0.0671
18978W        W61969   8.563  32.267  22.508 -0.0012 -0.1244  0.0740
18979W        W61970  19.293  28.159  16.086  0.0773  0.1297 -0.2958
18980W        W61971   7.837  27.202  26.210 -0.0858 -0.3958 -0.0743
18981W        W61972  34.718  21.467  18.157  0.2629 -0.0594  0.0328
18982W        W61973   6.861   6.017  19.214 -0.1401 -0.0201 -0.2804
18983W        W61974   9.699  16.646   6.080 -0.0723 -0.1596 -0.0619
18984W        W61975  29.982  30.092  13.550  0.2068  0.0238 -0.0164
18985W        W61976  30.195  34.792  13.461 -0.2100 -0.1328 -0.1727
18986W        W61977   1.640  24.099   5.123  0.1976 -0.3659 -0.1871
18987W        W61978   7.653   2.529  16.484  0.0644  0.1802  0.2056
18988W        W61979  26.856  33.509  28.369  0.1786 -0.0472  0.0108
18989W        W61980  16.809  19.080   3.103 -0.0515  0.1884  0.1149
18990W        W61981  28.297  23.434  23.368  0.6563  0.2454 -0.0480
18991W        W61982  12.348   1.898  21.417  0.0360  0.2091 -0.0408
18992W        W61983   0.771  18.631  25.068  0.1835 -0.1376 -0.4703
18993W        W61984  28.574   1.096  16.046 -0.0836 -0.0678 -0.2137
18994W        W61985   3.023  33.014   5.268  0.3522  0.2212 -0.2130
18995W        W61986   9.957  33.364  21.534  0.1601 -0.0123 -0.0751
18996W        W61987   6.131  27.351  21.906 -0.1825 -0.1284 -0.3944
18997W        W61988  30.893   0.992  25.781 -0.2952  0.0755  0.2848
18998W        W61989   1.310  34.020  16.281 -0.0427  0.1342 -0.0188
18999W        W61990   4.422   5.326  19.985  0.1404 -0.1341  0.0099
19000W        W61991  31.477   7.341  22.604 -0.0890 -0.1200  0.0761
19001W        W61992   5.567  27.807  15.009 -0.0718 -0.1018  0.1017
19002W        W61993   9.902  21.233   0.527  0.0704  0.0998 -0.3114
19003W        W61994  34.305  30.355  19.615 -0.3922  0.0389 -0.1989
19004W        W61995  31.708  15.654  27.799  0.2515 -0.1420  0.1945
19005W        W61996  13.888   0.352   0.476  0.1353  0.0518 -0.1229
19006W        W61997   4.405   4.217  17.999  0.1034 -0.0706 -0.2755
19007W        W61998  30.461  13.940  26.163 -0.3345 -0.0330  0.0132
19008W        W61999   2.892  30.108  24.754 -0.2581 -0.2437 -0.1816
19009W        W62000  32.366  28.547  21.882 -0.2755  0.0113 -0.1910
19010W        W62001  30.811   4.295  28.357 -0.0324  0.0875  0.1647
19011W        W62002   6.031   6.006  22.995 -0.1405 -0.0782  0.2133
19012W        W62003   4.443  23.974   3.416  0.1753  0.0484 -0.0654
19013W        W62004   5.242  11.904  17.055 -0.1111  0.1036 -0.2248
19014W        W62005   2.825   4.514  25.358  0.2383  0.0318 -0.2881
19015W        W62006   8.321   5.232   0.680 -0.2733  0.3033 -0.0295
19016W        W62007  14.642  29.730  22.336  0.1837 -0.2011 -0.1099
19017W        W62008   7.966  34.167  23.161 -0.2104 -0.1429 -0.0482
19018W        W62009  14.320   5.238  21.086  0.0059 -0.1379  0.1375
19019W        W62010   5.934   2.989  15.869  0.0685 -0.0990 -0.1380
19020W        W62011  17.275  21.916  15.024  0.0653  0.0596 -0.0327
19021W        W62012   5.763  17.540  20.067 -0.0861 -0.0109  0.2220
19022W        W62013  31.213  34.115  21.856 -0.2823  0.0053  0.0773
19023W        W62014  13.188   7.788  15.068 -0.2354  0.0182  0.2785
19024W        W62015  15.498   3.713  29.253 -0.0872  0.0636  0.0376
19025W        W62016  27.405  23.659  17.050  0.1707  0.0743 -0.0850
19026W        W62017  14.740  32.182  21.527  0.0125 -0.0696 -0.1751
19027W        W62018  29.259  27.770  15.243  0.2186  0.2253  0.1937
19028W        W62019   7.314  27.632  19.921 -0.0678 -0.0861  0.2051
19029W        W62020  19.168  28.601  14.808 -0.0875 -0.0339 -0.2862
19030W        W62021  30.943  27.158  20.084 -0.2327 -0.3583  0.0771
19031W        W62022  29.260   0.217   4.186  0.0865 -0.3254  0.1156
19032W        W62023  30.839   3.646  14.054  0.0429  0.0267 -0.0861
19033W        W62024  26.280  27.834  19.677  0.3713 -0.1309 -0.0965
19034W        W62025   9.841  29.185  25.243  0.2015 -0.1623  0.1990
19035W        W62026  10.533  20.362  18.601  0.0168  0.1062  0.1025
19036W        W62027  25.196  29.038  20.408 -0.0613  0.0847 -0.0259
19037W        W62028   8.778  18.377  25.207 -0.1008 -0.1716 -0.2221
19038W        W62029  16.253  33.331  22.227 -0.0206  0.0237 -0.1223
19039W        W62030   7.853  18.744  22.647  0.1269 -0.0280 -0.3561
19040W        W62031   5.054  21.615  15.581  0.1203 -0.1271  0.0343
19041W        W62032  25.344  34.200   4.247 -0.0608 -0.3775 -0.0211
19042W        W62033  15.919   3.852  24.399 -0.0413 -0.0399  0.0972
19043W        W62034  18.107  33.684  21.132 -0.0808 -0.0180  0.1236
19044W        W62035   2.185   2.517  24.734  0.0067  0.2103  0.0776
19045W        W62036  14.155   5.402  26.164  0.2977 -0.0942 -0.0580
19046W        W62037   1.859  20.671  18.484  0.4050  0.0445 -0.0218
19047W        W62038  16.071  25.765   1.447 -0.2931 -0.3572  0.3091
19048W        W62039   4.034  31.598  13.956  0.0316  0.1845 -0.1070
19049W        W62040  33.185   9.300   0.840 -0.1587  0.0606  0.2773
19050W        W62041   3.103  27.557  26.257 -0.1474 -0.0668 -0.1672
19051W        W62042  19.045  22.543   1.167 -0.0880 -0.4571 -0.0935
19052W        W62043   6.418   4.044  27.795  0.0949  0.0054  0.1548
19053W        W62044  11.268   7.226  24.625 -0.0064  0.4492  0.1309
19054W        W62045   5.892  19.998  17.094  0.3763 -0.0009 -0.2303
19055W        W62046  32.689  32.089  27.781  0.1879  0.1108 -0.0752
19056W        W62047   2.225  30.732  26.676  0.1384 -0.2450 -0.0619
19057W        W62048  10.946  17.919  15.577 -0.0889 -0.0512 -0.1032
19058W        W62049  30.817  33.964  17.960 -0.4605 -0.1907  0.0394
19059W        W62050  16.391  31.158  16.232  0.1519 -0.0555  0.0637
19060W        W62051  13.842   3.921  16.272 -0.1308  0.2959  0.1544
19061W        W62052  18.468   0.599  15.138 -0.3208  0.1451 -0.2066
19062W        W62053  31.943  30.850  17.005  0.0954 -0.2272  0.1171
19063W        W62054  30.614  28.144  12.717  0.3610  0.1147 -0.0600
19064W        W62055  19.708  14.643  23.179 -0.2706  0.1640  0.1464
19065W        W62056  31.632  29.873   1.421  0.2776 -0.0526 -0.2111
19066W        W62057   7.964   2.512  15.745  0.1668  0.0523 -0.0500
19067W        W62058  25.478  28.070   2.845  0.0793  0.0753  0.0872
19068W        W62059  27.968   9.626  23.146  0.0409 -0.1397  0.1662
19069W        W62060   0.178   8.609  22.156  0.2978  0.0594 -0.2471
19070W        W62061  24.619   8.171  19.270 -0.1669  0.3704  0.1166
19071W        W62062  31.288  18.817   0.863 -0.3816 -0.0406  0.2277
19072W        W62063  28.877   3.443  24.892  0.0705 -0.0544 -0.2454
19073W        W62064  28.883   5.698  28.924 -0.1621  0.0359  0.0536
19074W        W62065  33.103  25.259  18.497 -0.0936 -0.1219 -0.0672
19075W        W62066  12.654  21.800  21.990  0.1001  0.0984  0.3004
19076W        W62067  22.522   7.628  14.667 -0.1456 -0.1577 -0.2463
19077W        W62068   2.590  23.322  20.234 -0.1564  0.1710  0.1927
19078W        W62069  26.280  10.182  13.444 -0.1323  0.0189 -0.3439
19079W        W62070  31.544   8.825  23.401  0.2855 -0.0795 -0.3791
19080W        W62071  25.213  27.531  15.679 -0.2460  0.0062  0.0521
19081W        W62072  10.794  27.598  18.396 -0.0949  0.1031 -0.2893
19082W        W62073  31.607   0.328  16.978  0.1804  0.4354  0.0773
19083W        W62074  26.396  13.858   0.017  0.3876 -0.1920  0.4790
19084W        W62075   7.552   6.889  20.225  0.0760 -0.0415 -0.0360
19085W        W62076  11.248   1.508  16.138  0.2472  0.0129 -0.1086
19086W        W62077   1.649  27.063  14.146 -0.1019 -0.0420  0.0706
19087W        W62078  32.162  26.533  16.207 -0.0157  0.0468 -0.2854
19088W        W62079   5.127  22.443  24.401  0.0707 -0.0104  0.0026
19089W        W62080   3.973  30.183  27.889 -0.0256 -0.0107 -0.0275
19090W        W62081  29.167  24.257   7.944 -0.2919  0.2079 -0.4104
19091W        W62082  33.049  32.224  17.170 -0.3299 -0.0135  0.1159
19092W        W62083  15.231  31.324  24.656  0.0176  0.1225 -0.1420
19093W        W62084   0.677   5.244  26.770 -0.0450  0.2824  0.0229
19094W        W62085   6.436   7.126  15.330  0.0527  0.0346  0.2556
19095W        W62086  30.584  31.143  16.137  0.1248 -0.0059  0.0743
19096W        W62087   3.818  33.262  26.315  0.1650  0.0784  0.2519
19097W        W62088   8.838   2.637  25.590 -0.0687  0.1053 -0.0089
19098W        W62089  27.843  30.015  17.372  0.1526  0.2259  0.1420
19099W        W62090   3.987  29.639  24.242  0.2620  0.0459 -0.5144
19100W        W62091  17.423  13.970  17.890 -0.0729  0.0109 -0.0154
19101W        W62092   3.796   3.061  16.229  0.2503 -0.2042  0.1995
19102W        W62093  29.290  20.341  14.606  0.0614  0.2135 -0.0851
19103W        W62094   4.786   1.423  22.170  0.2665  0.0069 -0.0301
19104W        W62095  21.056  16.828  23.339  0.1427 -0.3242  0.1357
19105W        W62096   9.922  33.171  17.019  0.1771  0.0420 -0.0088
19106W        W62097  31.241   0.373   7.456 -0.1421 -0.1710 -0.0240
19107W        W62098  28.456   9.089  21.923  0.0105 -0.1892  0.1846
19108W        W62099  30.071   8.062  18.243  0.1065 -0.0565 -0.1177
19109W        W62100  10.269  31.072  21.071 -0.0661  0.0982 -0.2826
19110W        W62101   7.285  24.017  14.136  0.1194  0.1259  0.2717
19111W        W62102  31.226  29.879  20.655 -0.0042 -0.1813  0.1561
19112W        W62103  30.429  24.401  18.120  0.0194  0.0110 -0.1943
19113W        W62104   0.850   5.481   2.110 -0.0877  0.0880  0.2114
19114W        W62105  33.759  31.202  15.199  0.2412  0.3453 -0.2415
19115W        W62106  30.849  21.625  28.488  0.0826  0.0006  0.0068
19116W        W62107   5.242  26.531  19.381 -0.0990 -0.1170  0.1890
19117W        W62108  24.865  32.995  23.501 -0.3184 -0.0809  0.4035
19118W        W62109   9.629  34.227   6.981 -0.4256 -0.1688  0.3032
19119W        W62110  30.359  32.025  23.265 -0.0179  0.0259 -0.4434
19120W        W62111   3.119   2.790  18.293 -0.1339  0.1100 -0.3525
19121W        W62112   8.825  31.436   8.824 -0.0991 -0.2086 -0.1799
19122W        W62113   3.235   3.203  28.351 -0.3805  0.1624 -0.1010
19123W        W62114   0.707   1.262  24.164  0.0516 -0.2145  0.3831
19124W        W62115  33.998  27.739   0.574 -0.1271 -0.0468 -0.2749
19125W        W62116  33.452  13.065   3.928 -0.2245 -0.1364  0.0432
19126W        W62117  26.285  28.921   1.425 -0.1286 -0.2054 -0.2644
19127W        W62118  14.851  22.927  14.958  0.0962 -0.0477 -0.3179
19128W        W62119  20.340  20.955   4.968  0.0886  0.2389  0.1678
19129W        W62120   7.416   1.817  21.881  0.1236 -0.0974  0.2219
19130W        W62121   1.489  26.122  20.360  0.1386  0.2811 -0.1442
19131W        W62122  17.254  15.466  26.753  0.0930  0.2252 -0.3341
19132W        W62123  31.601   2.240  24.294 -0.2834 -0.1034 -0.1773
19133W        W62124  17.545  33.815  19.491 -0.2026 -0.1591  0.0683
19134W        W62125   0.444  28.012  23.673 -0.3568  0.1763 -0.2691
19135W        W62126  20.045  23.915   6.516  0.1882  0.0161 -0.0596
19136W        W62127   2.606  26.969  19.819 -0.1034 -0.2061 -0.1621
19137W        W62128  31.707  13.468  22.677  0.1259  0.1440 -0.2210
19138W        W62129  27.902   2.395  26.823 -0.0934 -0.0591 -0.0843
19139W        W62130   9.214   8.272  16.539 -0.0302  0.1777  0.3237
19140W        W62131   5.145   4.725  15.853  0.0290  0.0318 -0.1124
19141W        W62132  33.429   2.544   5.894 -0.0785 -0.0433  0.3491
19142W        W62133  16.756  32.172  18.342 -0.2253  0.1023 -0.0427
19143W        W62134  22.168  26.326   0.529  0.0718 -0.2255 -0.0271
19144W        W62135  25.485   1.531  19.665  0.3430  0.1545 -0.3009
19145W        W62136  17.453  26.317  26.494  0.1232  0.4197  0.0281
19146W        W62137  33.433   0.601  14.907  0.0215  0.1860  0.0598
19147W        W62138   9.497  32.884  22.980  0.1200  0.2222 -0.0675
19148W        W62139  31.866   3.682   1.646  0.2403  0.0888  0.1720
19149W        W62140  33.000   5.630  22.944  0.0400  0.0617  0.0187
19150W        W62141   5.391  12.953   1.446  0.0369 -0.0232  0.0544
19151W        W62142  26.428  26.159  27.188  0.0688 -0.1284  0.1668
19152W        W62143   4.037   1.203  18.498 -0.0783 -0.0903 -0.0055
19153W        W62144  25.236   6.314  16.676 -0.3058 -0.1980 -0.0463
19154W        W62145   2.552   0.615  18.197 -0.0610 -0.1848  0.0954
19155W        W62146  29.304  33.048  14.446  0.1735  0.3264 -0.0146
19156W        W62147   4.379  26.130  18.585 -0.4746 -0.2086 -0.0318
19157W        W62148   3.039   8.519  20.840  0.2342 -0.3730  0.2000
19158W        W62149  26.158  12.487  21.137 -0.0598  0.2102 -0.0710
19159W        W62150  10.405  22.554  17.941  0.0339  0.2075 -0.0027
19160W        W62151   9.798  16.925  21.451  0.1619 -0.0617 -0.0623
19161W        W62152  33.137  24.760  20.596  0.1311  0.1291 -0.4645
19162W        W62153   3.746   9.334  18.235 -0.0330  0.1984 -0.1891
19163W        W62154  29.956   6.840  24.654  0.0556 -0.1920  0.3010
19164W        W62155   2.594   1.310  20.811  0.2320  0.1550  0.0393
19165W        W62156   9.372   0.929  20.400 -0.0565  0.0593 -0.0894
19166W        W62157   3.528   4.673  16.329  0.2063 -0.1676 -0.0964
19167W        W62158   2.026  19.658  22.884 -0.4643 -0.2259  0.0489
19168W        W62159   1.363  30.407   4.642  0.0409  0.0472 -0.2196
19169W        W62160   3.562   2.806  23.622  0.0626  0.0863  0.0817
19170W        W62161   0.158  31.584   8.298 -0.0814 -0.2136  0.1064
19171W        W62162   2.224  11.590  22.229 -0.3887  0.2076 -0.1067
19172W        W62163  16.774   4.937   0.294 -0.0558 -0.0656 -0.2742
19173W        W62164   2.727  16.702   6.201 -0.1692 -0.1303 -0.1339
19174W        W62165  10.116   7.574   6.532  0.0695 -0.1271  0.0021
19175W        W62166  32.272  13.721  17.837  0.2042  0.3058 -0.4087
19176W        W62167   4.203  25.394  25.816 -0.2424  0.3700 -0.1041
19177W        W62168  16.618   8.759  17.242 -0.0073 -0.0116 -0.0531
19178W        W62169   9.220   1.002   2.983  0.2507 -0.2506  0.1441
19179W        W62170   3.931   3.021  24.399  0.0337 -0.2789  0.0284
19180W        W62171  10.802   9.845  26.297  0.0655 -0.0321 -0.2199
19181W        W62172   9.811  31.122  19.067  0.0516  0.1200  0.1149
19182W        W62173  25.619  13.517  29.067  0.6651  0.1766  0.1175
19183W        W62174  17.901  34.705   1.213 -0.1397 -0.0161  0.0670
19184W        W62175   6.903  18.721  18.862 -0.0403 -0.0880  0.0528
19185W        W62176  11.730  34.162   2.725  0.2156 -0.0637 -0.2015
19186W        W62177   8.184  29.992  20.314  0.0945 -0.2633  0.0782
19187W        W62178  18.899  12.850  17.990 -0.0953 -0.0461 -0.2394
19188W        W62179  30.889  20.939  18.953 -0.1795 -0.1366  0.0055
19189W        W62180  32.647  24.109  17.328 -0.1706  0.0225  0.0556
19190W        W62181   2.494  32.292  16.113 -0.2891 -0.0594 -0.0610
19191W        W62182  10.315  13.167   1.821 -0.1156  0.2839  0.1838
19192W        W62183   0.227   6.190  18.867  0.0508 -0.0075 -0.1686
19193W        W62184  26.839  34.355   1.024 -0.2738  0.4711  0.2061
19194W        W62185  32.820  28.598  23.967 -0.5588 -0.0581  0.1711
19195W        W62186  14.918   4.765  10.136 -0.2104 -0.0638 -0.1244
19196W        W62187   6.689   2.182  15.350 -0.1698  0.1387  0.1039
19197W        W62188  34.556   0.341  16.332  0.2823 -0.1486 -0.0274
19198W        W62189  24.419  33.238  14.450 -0.2941  0.1816 -0.0383
19199W        W62190  24.694  16.347  14.682 -0.0469  0.0265 -0.1529
19200W        W62191   4.326   6.081  25.579  0.2873 -0.1293  0.0418
19201W        W62192  28.582   8.012   4.667  0.1185 -0.0564  0.0478
19202W        W62193   0.217  28.651  15.227  0.0790 -0.2574  0.2055
19203W        W62194  10.700   8.823  22.160 -0.2011  0.3761 -0.0599
19204W        W62195   2.966  31.328  19.780  0.2663 -0.2499 -0.2619
19205W        W62196   8.083  30.260  17.326  0.4174 -0.1867 -0.1531
19206W        W62197   6.106   4.018  23.477 -0.2914  0.2836 -0.0835
19207W        W62198   4.456  27.205  25.494 -0.0089  0.0284  0.1697
19208W        W62199  34.509  33.894  14.935  0.0062 -0.2407  0.0137
19209W        W62200  18.451  13.006  21.080  0.2590 -0.0719  0.1491
19210W        W62201  30.991  22.966  22.290  0.1946  0.0201 -0.1089
19211W        W62202  27.762   4.822  15.775 -0.1185 -0.3902 -0.0563
19212W        W62203   3.851   4.107  17.341  0.0395  0.0365  0.1697
19213W        W62204  34.706  11.472   1.351  0.1179  0.1539  0.1787
19214W        W62205   2.854   5.439  25.855 -0.1854  0.2835  0.0913
19215W        W62206   3.356   1.365   2.472 -0.0665 -0.1511 -0.2883
19216W        W62207   0.056  32.124  19.506  0.0637  0.0388  0.2126
19217W        W62208  17.279  24.041  20.481  0.1415  0.0142  0.1538
19218W        W62209  12.762   2.586  15.314 -0.1578  0.0064 -0.0201
19219W        W62210  24.288  16.232  24.159 -0.5055 -0.0050 -0.1755
19220W        W62211  31.966  33.392  24.933  0.0166  0.2131 -0.0251
19221W        W62212  31.322  11.978   0.684 -0.1945 -0.3610  0.2768
19222W        W62213  10.984   1.153   1.897  0.1135 -0.1145 -0.1245
19223W        W62214  12.225   2.742  15.289  0.0417  0.0153 -0.1333
19224W        W62215  34.276  32.120  16.670 -0.1540  0.1058  0.2116
19225W        W62216  27.325   6.094  13.841  0.1471  0.2026  0.0442
19226W        W62217  34.280  34.153  20.005  0.0411 -0.0706 -0.1845
19227W        W62218   2.282  16.668  24.081 -0.2470 -0.0226 -0.4344
19228W        W62219   9.834  27.507  19.237  0.1753  0.0665 -0.1665
19229W        W62220  14.788   5.370   5.856 -0.1503  0.0048  0.0032
19230W        W62221  30.832  25.127  14.884 -0.0514 -0.0369  0.0361
19231W        W62222  33.719  23.125  16.381 -0.2963  0.1969 -0.1746
19232W        W62223   7.187  31.858  27.061  0.1065  0.1414  0.2222
19233W        W62224   0.987  27.777  16.051  0.1279  0.3767  0.2256
19234W        W62225  12.105  26.810  17.438 -0.2228  0.1344 -0.2737
19235W        W62226  17.334   9.346   5.527 -0.2426  0.4548 -0.2411
19236W        W62227  11.741   6.814   6.541  0.3707 -0.0463  0.2168
19237W        W62228  32.036   1.628  22.182  0.0654 -0.0603  0.0177
19238W        W62229  15.612  30.600  26.093  0.0298 -0.3692 -0.2246
19239W        W62230   1.284  32.006  17.742  0.3896  0.0195  0.2182
19240W        W62231  30.822   3.605   3.407  0.3695 -0.1589 -0.0805
19241W        W62232   0.322   8.265  21.121 -0.1868  0.1752  0.2673
19242W        W62233   1.658  25.223  18.012  0.0163  0.0187  0.1549
19243W        W62234   6.178  12.401  21.813  0.0135 -0.1419  0.3257
19244W        W62235   3.582  34.489  23.618 -0.0858 -0.1108 -0.0931
19245W        W62236   7.604  29.863  18.433 -0.1693 -0.2184 -0.3090
19246W        W62237   9.738  11.825  23.661 -0.0359  0.0038  0.0290
19247W        W62238   5.830   4.271   9.709  0.3116  0.2551  0.1612
19248W        W62239  14.903   3.309   4.637  0.2673  0.0196  0.0961
19249W        W62240  30.434  17.598  15.535 -0.0981 -0.1193 -0.1202
19250W        W62241  15.593  25.209  23.376  0.0128 -0.0048  0.0492
19251W        W62242   1.669  15.918   0.559 -0.0541  0.2853 -0.1178
19252W        W62243  10.117  25.564  16.769  0.1077  0.3258  0.1437
19253W        W62244   9.576  22.991   6.627 -0.1009 -0.2378  0.0147
19254W        W62245  30.768  13.519  25.637 -0.0326  0.1343 -0.0661
19255W        W62246  15.918  33.473  14.022 -0.2245 -0.1188  0.0662
19256W        W62247  27.016   3.872  27.702  0.0386 -0.2428  0.1930
19257W        W62248  22.974  29.131  25.430 -0.1684 -0.1702  0.1863
19258W        W62249   3.921   7.249  22.973  0.0530 -0.3281  0.0549
19259W        W62250  10.503  22.978  14.840 -0.1610 -0.3889  0.0364
19260W        W62251  29.329   7.112  16.024  0.2925  0.1865 -0.1746
19261W        W62252   4.758  24.023  15.004  0.0012 -0.0242  0.4416
19262W        W62253  11.771  10.701  10.419  0.1362  0.1446 -0.3832
19263W        W62254   0.923  34.278  26.647  0.1212  0.0784 -0.0190
19264W        W62255  11.868  19.281  20.430 -0.0258  0.4086 -0.0146
19265W        W62256  25.562  33.901  13.282 -0.4128 -0.4254 -0.7159
19266W        W62257   3.843   4.510  19.779  0.2392  0.1810  0.0546
19267W        W62258  21.325  15.434  13.772 -0.1376 -0.2884  0.1661
19268W        W62259  29.609   9.051  25.778  0.0495 -0.2156 -0.0684
19269W        W62260  28.710   0.945  17.884 -0.1792  0.0459  0.0953
19270W        W62261   3.234   2.156   1.876  0.0396 -0.0827  0.1377
19271W        W62262  18.987  25.411  22.316  0.1249  0.0244 -0.0650
19272W        W62263   4.027  27.715   0.059 -0.2357  0.2312  0.2901
19273W        W62264  28.546   2.330  24.363  0.0021  0.0351 -0.1080
19274W        W62265   2.914  23.858  22.009 -0.0920 -0.2307 -0.2170
19275W        W62266   0.405   4.579  21.249  0.2963 -0.1437  0.1398
19276W        W62267  26.586   4.278  13.760 -0.0743 -0.0622 -0.0270
19277W        W62268  17.487  34.021  16.189  0.2459  0.0375  0.0756
19278W        W62269  30.255  28.456  15.020 -0.1449  0.3637  0.1500
19279W        W62270  14.685  27.580  18.992 -0.3229 -0.0606 -0.2716
19280W        W62271  25.447  28.323  13.376  0.1717  0.2097  0.1408
19281W        W62272  30.626   6.819  28.251 -0.0258 -0.0443  0.2964
19282W        W62273   0.990   6.280  28.726 -0.5528  0.0017 -0.2267
19283W        W62274  24.527   1.910  18.225 -0.2662 -0.0961  0.0361
19284W        W62275   5.691  33.286  27.675 -0.0485 -0.2803  0.1557
19285W        W62276  14.993  32.904  19.499  0.4477 -0.0278  0.0230
19286W        W62277   3.627   7.204  18.090  0.2935  0.0132 -0.0700
19287W        W62278   0.969  27.173  25.098  0.1282 -0.5189 -0.0729
19288W        W62279   9.803   7.603   2.361 -0.2288 -0.1099  0.1145
19289W        W62280   1.346  27.807  24.800  0.0843 -0.0685 -0.0657
19290W        W62281  28.445  34.558  24.898 -0.3362  0.1852  0.1051
19291W        W62282  20.269  33.697  14.379  0.1262 -0.0237 -0.1942
19292W        W62283   0.972  29.997  17.665  0.0414 -0.2301  0.0761
19293W        W62284  28.627   3.616  13.539 -0.3641  0.1563 -0.1123
19294W        W62285   6.559  27.560   4.500 -0.1279 -0.0908  0.1659
19295W        W62286  27.139  32.973  14.439 -0.0019  0.1947 -0.1192
19296W        W62287  13.320  19.132  16.646 -0.0576  0.0247 -0.4168
19297W        W62288  14.784  26.697  17.550 -0.1191  0.0047 -0.2036
19298W        W62289  34.187  12.060  16.326  0.1719 -0.2626 -0.1494
19299W        W62290   5.829  27.772  13.668  0.1464  0.1170 -0.0894
19300W        W62291   2.639  23.222   0.886 -0.4045 -0.3473 -0.2675
19301W        W62292  10.075   2.826  22.627  0.1548 -0.1454 -0.0974
19302W        W62293   8.319  19.416  28.586 -0.2202 -0.2089 -0.0238
19303W        W62294   2.726  24.477  18.701 -0.4448  0.0483  0.0472
19304W        W62295  13.905  22.072  14.577 -0.0596 -0.0335 -0.2262
19305W        W62296  30.972  20.968   0.652  0.0698 -0.0308 -0.3703
19306W        W62297  30.370  26.553  16.735 -0.0526  0.1326  0.0800
19307W        W62298  10.890   4.751   1.121  0.5311 -0.2882  0.0228
19308W        W62299  27.132  31.038  18.284 -0.1648 -0.0296  0.0300
19309W        W62300   4.468  17.627  16.807  0.1809  0.1510 -0.2265
19310W        W62301  29.397   0.812  15.381  0.1554 -0.0201 -0.1014
19311W        W62302  13.664  32.210  28.679  0.0212  0.2247  0.0563
19312W        W62303  14.770  33.055  28.872 -0.2164 -0.0176  0.0814
19313W        W62304  26.698  30.101  16.765 -0.3236  0.1381 -0.0864
19314W        W62305   3.760   8.441  17.480  0.0105  0.2606 -0.1041
19315W        W62306   8.643   2.747  21.064 -0.1168 -0.0511  0.2618
19316W        W62307   0.390   8.877  22.581 -0.2767 -0.1052 -0.2031
19317W        W62308   3.804   2.152  25.462 -0.0964  0.1397  0.1294
19318W        W62309   2.059  33.285  20.864 -0.0510  0.3075 -0.0620
19319W        W62310   2.580  28.596  15.554 -0.2924  0.3189 -0.3353
19320W        W62311  23.555  11.154  22.758 -0.4277 -0.0557  0.3903
19321W        W62312   3.234   4.115  25.644  0.3597  0.2062  0.0744
19322W        W62313  19.707  32.320   3.394 -0.2176  0.2359  0.1451
19323W        W62314  12.109  32.477  19.535 -0.2023  0.0275 -0.0198
19324W        W62315  27.364  31.488  23.792  0.1828 -0.0890  0.0506
19325W        W62316   9.866  33.854  21.321 -0.0496 -0.0356  0.0157
19326W        W62317   5.540  22.845  17.189  0.2977 -0.1610 -0.1755
19327W        W62318  23.265  32.477   6.393  0.1185  0.0720 -0.2136
19328W        W62319   8.096   3.590  16.919  0.0054  0.0480  0.2100
19329W        W62320   8.759   8.382  16.866  0.0892 -0.0009  0.1527
19330W        W62321  28.263  10.571  22.292 -0.1244 -0.2081 -0.3281
19331W        W62322   0.825   0.606   6.799  0.1239 -0.1327  0.1080
19332W        W62323   1.932  10.993  22.823 -0.0192 -0.0921 -0.1471
19333W        W62324  28.179   5.016  23.922 -0.4149  0.3129 -0.0951
19334W        W62325  34.561  19.718  20.427 -0.0413 -0.0682 -0.2020
19335W        W62326  26.198  29.059   7.888 -0.1376  0.2427  0.1322
19336W        W62327  14.693  34.787   8.525 -0.1363  0.0140  0.1344
19337W        W62328   9.886  27.388  14.463  0.0810  0.0145 -0.2972
19338W        W62329  13.447   0.469  23.160  0.1459  0.3985  0.1259
19339W        W62330  33.367  34.660  18.474  0.0508 -0.2758 -0.0792
19340W        W62331   4.945   5.121   3.380 -0.0173 -0.1350 -0.0170
19341W        W62332  20.825   2.643  28.447 -0.1030  0.4038 -0.4245
19342W        W62333  27.216   0.614  15.600 -0.3738  0.2228  0.0569
19343W        W62334  20.842  32.440  20.443 -0.1604 -0.2848  0.4388
19344W        W62335   6.246  16.865  24.468 -0.1691  0.2160  0.1045
19345W        W62336  26.498   1.849  24.483  0.2116 -0.3399  0.0923
19346W        W62337  13.926  32.454   7.735 -0.1158  0.2140 -0.0212
19347W        W62338  10.364   5.401  26.157 -0.1305  0.5721  0.4293
19348W        W62339   7.130  20.265  19.326  0.2633  0.1277 -0.1965
19349W        W62340   2.803   4.484   6.076  0.1704  0.1277  0.0705
19350W        W62341  30.540   3.512  16.465 -0.1195  0.1508 -0.2348
19351W        W62342  26.950  33.448  18.247 -0.1216 -0.1174  0.2586
19352W        W62343  30.092  26.510  13.054  0.0225  0.2668  0.3135
19353W        W62344   8.528  25.655  16.725 -0.1205 -0.1011 -0.2322
19354W        W62345  17.136  14.145  15.543 -0.0230 -0.2488  0.0862
19355W        W62346   5.358   8.108  20.767 -0.0916  0.2254 -0.0766
19356W        W62347  33.962  10.947   6.295  0.1056  0.0313 -0.1741
19357W        W62348   0.808  32.960  16.725  0.0209  0.1374  0.0127
19358W        W62349   2.054  15.376  21.818  0.0358 -0.0577 -0.0584
19359W        W62350  23.155   2.785  26.468  0.0189  0.0351  0.0316
19360W        W62351   5.724  30.834  15.358  0.2267 -0.2565  0.2293
19361W        W62352   3.484  32.119  25.968  0.3110 -0.1301 -0.2150
19362W        W62353  27.361   2.617   3.930  0.1987  0.1577 -0.1531
19363W        W62354  25.253   9.508  23.076  0.1295  0.0816  0.2215
19364W        W62355   5.396   1.842  16.133  0.0674  0.2053 -0.0307
19365W        W62356   4.595  14.928  27.274 -0.1721  0.1196 -0.0531
19366W        W62357   5.042  23.251  24.580 -0.3773 -0.0426  0.0011
19367W        W62358  11.330  25.721  18.936 -0.0167  0.0580 -0.1979
19368W        W62359  11.050  28.336  23.272  0.1144 -0.2363 -0.1332
19369W        W62360  27.110   7.327   6.953  0.1246  0.2540  0.0035
19370W        W62361  20.379   9.422  28.638  0.2155 -0.1881 -0.1716
19371W        W62362  13.099   4.421  15.649  0.0989 -0.0321 -0.0117
19372W        W62363  14.237   4.347  17.691 -0.3232 -0.0723  0.0447
19373W        W62364   2.218  23.649  18.193 -0.1591 -0.2710  0.1427
19374W        W62365   7.954   0.131   2.054 -0.2729 -0.1528 -0.1213
19375W        W62366   0.639   0.265   6.473  0.3861 -0.0966 -0.1874
19376W        W62367  21.407  13.256  16.589  0.2240  0.2502  0.1368
19377W        W62368   0.405   2.732  14.811 -0.0243  0.0132  0.1043
19378W        W62369  32.924  20.851  26.461 -0.0752 -0.1226 -0.1833
19379W        W62370  20.922   0.471   0.780  0.1472 -0.0307  0.0237
19380W        W62371   3.039  25.999  23.540 -0.1208  0.0493 -0.4109
19381W        W62372   1.735  16.009   1.054 -0.1742 -0.1472  0.1130
19382W        W62373  14.004  28.581  19.154 -0.0088  0.1135 -0.3469
19383W        W62374   3.552   5.324  22.195 -0.0979 -0.1138  0.3182
19384W        W62375  10.654  27.733  20.252 -0.0595  0.1523 -0.1022
19385W        W62376  13.401   5.945  15.696 -0.3060  0.0213 -0.1326
19386W        W62377  25.197   4.150  17.398  0.0297 -0.0567  0.1616
19387W        W62378  25.196  33.942  23.638  0.0503 -0.2476  0.4483
19388W        W62379   6.813  26.828  18.916  0.0028  0.2499 -0.1889
19389W        W62380  33.524  26.784  25.236 -0.3029 -0.0117  0.1598
19390W        W62381  20.953  25.927   3.979  0.1239 -0.0286  0.0206
19391W        W62382   1.328  26.069  15.004  0.1069  0.0864 -0.1300
19392W        W62383   2.989   0.244  15.248 -0.1966 -0.4423 -0.1515
19393W        W62384  17.502  28.462  17.633  0.0535  0.1924 -0.0336
19394W        W62385  31.060   4.623  14.838 -0.1139 -0.1275  0.3800
19395W        W62386  20.673   8.704  17.874  0.1051  0.0212  0.1661
19396W        W62387   9.525  28.787  16.579 -0.0327  0.0602 -0.2142
19397W        W62388  18.900   6.529  24.507  0.2336  0.1283 -0.2896
19398W        W62389  31.479   6.753  23.870 -0.1890  0.1331 -0.0087
19399W        W62390  10.174  30.620   0.116  0.0687 -0.1270  0.2724
19400W        W62391   6.228  28.061  21.052  0.1535 -0.1267 -0.2770
19401W        W62392   1.115   3.703  15.321 -0.2184 -0.0355 -0.1245
19402W        W62393   4.848  27.911  18.769  0.0439  0.2132  0.0702
19403W        W62394  33.441  26.542  15.988 -0.1947  0.0704  0.1266
19404W        W62395  10.520  16.499   3.259 -0.2130  0.0120  0.1806
19405W        W62396  33.928  13.515  20.236 -0.0622  0.0246  0.0914
19406W        W62397   0.295   6.577   2.285 -0.0885  0.0316  0.1210
19407W        W62398   2.314   0.425  20.515  0.0299 -0.2186  0.3511
19408W        W62399  30.209  10.871  21.412 -0.0502 -0.0803 -0.0541
19409W        W62400  33.763  33.929  17.435 -0.0204  0.3008 -0.0074
19410W        W62401   2.488  25.621   7.023 -0.0771  0.0573 -0.1896
19411W        W62402  16.008  20.667  18.050 -0.3189 -0.0399  0.0824
19412W        W62403  26.888  33.150  21.202  0.2347  0.0377 -0.2456
19413W        W62404   1.836   4.677  26.143  0.2753  0.1083 -0.3840
19414W        W62405   3.985   4.666  20.577  0.0370 -0.0584 -0.1600
19415W        W62406   1.661  27.772  20.609  0.1623  0.2470  0.1591
19416W        W62407  29.538   6.466  22.221 -0.1460  0.1718 -0.1458
19417W        W62408   5.674   2.432   0.294 -0.2271  0.1967  0.1496
19418W        W62409  32.514   1.335  18.473 -0.1099  0.3452 -0.2632
19419W        W62410  28.288  32.797  18.441  0.0750  0.0828  0.1885
19420W        W62411  15.967  30.138  14.717 -0.1000  0.1842  0.1311
19421W        W62412  31.479  33.338   5.715  0.1551 -0.0245  0.1374
19422W        W62413   9.259  18.959  19.758  0.0234  0.1582  0.1603
19423W        W62414  12.874   2.555   5.526 -0.0412  0.1672 -0.1837
19424W        W62415  16.076  33.406  29.162 -0.2608 -0.0140  0.2849
19425W        W62416   4.634  20.870  18.801  0.2919  0.1707  0.0313
19426W        W62417  34.505  22.881   5.753 -0.1215  0.0095  0.0309
19427W        W62418   6.561   1.079  18.588 -0.2469 -0.1470 -0.0506
19428W        W62419  11.195  20.185   8.541 -0.2564  0.0000 -0.1470
19429W        W62420  19.526  32.935  26.104 -0.0942  0.0111  0.1603
19430W        W62421   8.739  29.202   4.338 -0.1493 -0.1995 -0.1726
19431W        W62422  25.879  28.787  18.826  0.2811 -0.2539  0.2830
19432W        W62423  29.812  18.633  28.061  0.0207  0.1078  0.0259
19433W        W62424  25.476  10.603  24.942  0.2400 -0.2709  0.1139
19434W        W62425   2.527  25.486  25.919  0.0228 -0.2306  0.0212
19435W        W62426   6.225   0.948  17.686  0.0876  0.0392 -0.3392
19436W        W62427   3.836   9.478  24.909 -0.1118  0.1086  0.0477
19437W        W62428  16.440   2.628  22.241  0.1720 -0.0557 -0.3480
19438W        W62429  31.010  26.289  17.880  0.1783 -0.0225 -0.0012
19439W        W62430   0.153  26.405   8.314 -0.0316  0.2281 -0.0430
19440W        W62431  21.415   3.562  25.005 -0.0934  0.3061  0.1203
19441W        W62432  22.051  10.624  17.608  0.3439  0.0012  0.0730
19442W        W62433  29.982  31.624  20.737  0.0431  0.1693  0.0453
19443W        W62434  32.878  11.059  22.367  0.3577 -0.2026 -0.2564
19444W        W62435   3.480  26.889  23.218  0.2079  0.1781  0.0444
19445W        W62436  32.673  33.159  14.857  0.3344 -0.0745 -0.1923
19446W        W62437  12.651   6.780  18.824 -0.4881  0.1317 -0.1808
19447W        W62438   4.581   8.034   9.996 -0.1223  0.1245 -0.2069
19448W        W62439   8.640  16.647  25.279  0.1819 -0.1394 -0.0534
19449W        W62440   1.836   4.734   0.043  0.0362  0.0527 -0.0909
19450W        W62441  33.458   9.995  26.940 -0.1564  0.0868  0.1739
19451W        W62442   0.514  31.590   2.791  0.1702 -0.0125 -0.3991
19452W        W62443  31.124  14.689  14.821 -0.1762 -0.0988 -0.0795
19453W        W62444  30.560   7.924  15.155 -0.2710  0.1440  0.2090
19454W        W62445  12.409  30.993  22.278  0.2283  0.1553  0.0415
19455W        W62446   3.769   1.778  19.260  0.0005  0.0889 -0.3525
19456W        W62447  18.631  29.024  20.995  0.0804  0.0607  0.1541
19457W        W62448   7.050   2.852  16.000  0.1467  0.0518 -0.0149
19458W        W62449   2.633   9.762   9.300  0.0143  0.2201 -0.0559
19459W        W62450  34.433   9.971  15.966 -0.2629  0.4619 -0.0978
19460W        W62451  17.116  27.457  14.416 -0.0992  0.0870  0.0497
19461W        W62452  12.565  26.424  20.537  0.0887 -0.1710 -0.2317
19462W        W62453  16.724  34.764   8.172 -0.1546  0.1471  0.2869
19463W        W62454  27.644  10.492  22.833 -0.0965 -0.1635  0.4725
19464W        W62455  29.092  16.320  17.267 -0.2673 -0.0518  0.1449
19465W        W62456   4.875  27.387  23.745 -0.0057  0.1891  0.2989
19466W        W62457  32.814   1.318  26.035 -0.1947  0.1550  0.1573
19467W        W62458   6.375   3.107   9.966  0.0156  0.0476 -0.1365
19468W        W62459  22.356  24.138  27.679  0.0607 -0.1554  0.0389
19469W        W62460   2.267  12.768  15.961 -0.0145 -0.0877  0.1308
19470W        W62461   9.279  24.796   2.510 -0.1906  0.0194 -0.0275
19471W        W62462  12.852   6.039  16.266 -0.0570  0.0271 -0.0593
19472W        W62463   9.129  22.749   1.714  0.0014  0.1128  0.3368
19473W        W62464   8.274   1.700   3.866 -0.0740 -0.0627  0.1030
19474W        W62465  29.384   0.898   6.186 -0.1953  0.1313 -0.4031
19475W        W62466   5.536  27.176   8.104  0.1802  0.1348  0.2372
19476W        W62467   4.951  27.803   3.275  0.0656 -0.0561  0.1935
19477W        W62468   2.010  26.303  17.567 -0.1829 -0.0817  0.0882
19478W        W62469  23.848   1.536  26.331 -0.0275  0.2415  0.0715
19479W        W62470  34.565  32.499  17.567  0.0464 -0.0499 -0.2902
19480W        W62471   5.542   4.896  28.828 -0.0655 -0.0952  0.1652
19481W        W62472  26.892   1.258  17.207 -0.4269 -0.4708 -0.1512
19482W        W62473   0.691   3.347   4.750 -0.1615  0.1839  0.0591
19483W        W62474  26.107  30.845  15.852  0.0630  0.1493  0.1074
19484W        W62475  15.439  34.273   7.271 -0.3099 -0.3275  0.2094
19485W        W62476  34.249  11.440  15.465  0.2584  0.2302 -0.1218
19486W        W62477   4.776  29.883  15.058  0.0053  0.0740  0.1527
19487W        W62478  22.936  19.583   6.603 -0.1013 -0.2128  0.3202
19488W        W62479   5.514   9.107  28.118  0.1171 -0.0719 -0.1399
19489W        W62480   7.688  31.194  23.888 -0.1177  0.0813 -0.2196
19490W        W62481  32.612  11.107  17.743  0.0971 -0.0484 -0.2451
19491W        W62482   0.433  19.467  19.493 -0.0236  0.3018 -0.1568
19492W        W62483  22.483  28.682  26.170  0.2635 -0.2667 -0.1555
19493W        W62484  31.069  34.130  12.735 -0.0201  0.2154 -0.1714
19494W        W62485  33.953   0.719  14.959  0.1403 -0.1124  0.1648
19495W        W62486  31.317   3.592   6.060  0.0860  0.1202  0.1859
19496W        W62487  34.237   9.161  15.075 -0.1702  0.0818  0.0616
19497W        W62488   1.649   5.409  20.524  0.1754 -0.1622 -0.1122
19498W        W62489  28.648  31.781  25.582  0.2173 -0.0988  0.1448
19499W        W62490  34.506  12.643  19.346  0.0396  0.0133 -0.0867
19500W        W62491  22.299  31.789   1.482  0.1236 -0.1223 -0.0844
19501W        W62492  31.160  12.934   5.033 -0.1275  0.2712  0.1782
19502W        W62493   0.619   1.908  24.673  0.0086  0.0675 -0.2512
19503W        W62494  11.785  28.074  17.207  0.1366  0.0170  0.1212
19504W        W62495  13.135   3.098   3.060 -0.1767 -0.1973  0.0364
19505W        W62496  22.113  21.174  19.360  0.0425 -0.4640  0.1552
19506W        W62497   1.688  26.534  25.690 -0.2058 -0.0051 -0.1384
19507W        W62498   4.776   6.945  20.188 -0.2425 -0.1554  0.2132
19508W        W62499  11.038  31.658  20.855  0.1779  0.3432  0.1402
19509W        W62500  11.282   4.110  27.562  0.1810  0.1442 -0.1241
19510W        W62501   4.785  14.343  19.277 -0.2280 -0.2539 -0.2447
19511W        W62502   1.028   0.837  24.009 -0.1916  0.1192  0.0703
19512W        W62503   2.208  24.688   9.921  0.0454 -0.0882  0.0401
19513W        W62504   7.067   0.282  26.146 -0.2436  0.0899  0.4445
19514W        W62505  33.188   2.563  24.557  0.0235  0.3009 -0.1197
19515W        W62506  28.050  30.893  24.886 -0.1245  0.2402  0.3305
19516W        W62507  26.461  34.148  27.413  0.1374  0.2023 -0.0297
19517W        W62508  24.886   0.731  22.180 -0.2361  0.0882  0.2541
19518W        W62509  13.947  33.296   2.207  0.4036  0.2511  0.3502
19519W        W62510  13.038  20.108  14.010 -0.1661 -0.0336 -0.0279
19520W        W62511  11.406  15.802   8.188 -0.1630  0.1039 -0.2288
19521W        W62512   2.707  14.480   0.367 -0.2032 -0.1272  0.2622
19522W        W62513  18.315  28.836  14.810 -0.1645 -0.2218 -0.0510
19523W        W62514  30.694  32.692  24.362 -0.1397 -0.0652 -0.3523
19524W        W62515   2.075  12.113  15.949 -0.0141  0.0123  0.2292
19525W        W62516  26.560   0.507  16.509 -0.1394  0.1108 -0.0478
19526W        W62517   9.619  15.926  19.297  0.0401  0.3237  0.1868
19527W        W62518   1.701  17.656  22.968 -0.0132 -0.1256 -0.2336
19528W        W62519   3.710   5.582  16.361 -0.0684  0.1714  0.3711
19529W        W62520  18.113  25.503  25.601  0.1563  0.0485 -0.0954
19530W        W62521  30.879  26.481  17.425  0.0201  0.0699  0.1858
19531W        W62522   4.080  34.418   1.350 -0.2148  0.1387 -0.0463
19532W        W62523  13.413  26.524  25.087  0.4404 -0.1398  0.2988
19533W        W62524  26.313  19.196  20.826 -0.0884 -0.1024 -0.0842
19534W        W62525  25.547  34.392  19.975  0.0443 -0.0257  0.1059
19535W        W62526   9.284  17.448  27.026 -0.3684  0.0101 -0.4470
19536W        W62527   2.352  32.111  18.551 -0.0251  0.1564 -0.0848
19537W        W62528  25.086  34.030   0.584  0.1254  0.1021  0.2730
19538W        W62529   5.187  33.296  17.944  0.3152  0.0258  0.0045
19539W        W62530  28.897  27.322  26.394 -0.0321 -0.1959 -0.0861
19540W        W62531  21.433  26.273   4.227 -0.0286 -0.0221 -0.0014
19541W        W62532  26.383  28.479  16.449 -0.1838  0.4083 -0.0472
19542W        W62533  22.265  11.702   2.421  0.1314  0.2063  0.2617
19543W        W62534  33.158  30.620  24.844  0.2828  0.2158 -0.1335
19544W        W62535  11.472  23.979  23.878 -0.0584 -0.0893  0.1663
19545W        W62536   9.464   8.023  27.807 -0.3503 -0.3078 -0.0087
19546W        W62537  34.039   8.494  24.032 -0.4466 -0.5190  0.1700
19547W        W62538  21.577  14.813  27.521  0.1586 -0.0644  0.1331
19548W        W62539  33.430   7.193   5.043  0.0399  0.0773  0.1404
19549W        W62540  25.992  17.750  28.625  0.1433  0.0319  0.0745
19550W        W62541  19.362  15.642   4.224 -0.0366  0.1538  0.2336
19551W        W62542   3.177   4.283   6.566  0.0331 -0.1285  0.1393
19552W        W62543   0.837   4.176  25.352  0.1452  0.1020 -0.0737
19553W        W62544  17.585   1.081   1.376 -0.0883  0.0047 -0.0315
19554W        W62545   8.353   9.682  25.412 -0.2061  0.0224 -0.0578
19555W        W62546  10.467  26.130  27.403  0.4294 -0.0021 -0.1650
19556W        W62547  26.215  12.640  23.839  0.0107  0.0706  0.1086
19557W        W62548  25.142  20.306  28.796 -0.3603 -0.0867 -0.3485
19558W        W62549   8.741  31.254   9.723 -0.0655 -0.4004 -0.0796
19559W        W62550   2.976  32.082  25.898 -0.0309  0.1363  0.0908
19560W        W62551  21.536  30.437  23.256  0.0192  0.0258  0.1226
19561W        W62552   3.535  21.607  16.696  0.1734 -0.0845 -0.0397
19562W        W62553   1.643   8.636   9.446 -0.4636 -0.0888  0.0136
19563W        W62554  33.451  25.976   2.518  0.0740  0.2959 -0.1637
19564W        W62555   7.479  17.735   0.315 -0.1404 -0.2386 -0.2934
19565W        W62556  16.866  27.788   3.973  0.0028  0.3239  0.1868
19566W        W62557  26.331  32.140  20.158 -0.0097  0.2585 -0.1472
19567W        W62558   5.325  25.914  20.984 -0.0350 -0.0896 -0.1348
19568W        W62559  34.631  32.514   7.015 -0.1464  0.1888 -0.1197
19569W        W62560  12.571  34.056   3.982 -0.0168 -0.4508 -0.1792
19570W        W62561  16.477   2.183  22.418 -0.0492  0.0012  0.3223
19571W        W62562  13.775  30.389   0.689 -0.1126 -0.0894 -0.1520
19572W        W62563   0.870  31.402   9.045  0.2915  0.1698  0.0999
19573W        W62564   6.583  18.125  28.415 -0.3739  0.3006  0.0205
19574W        W62565   1.021  22.562  23.063 -0.3391 -0.1401 -0.0487
19575W        W62566  14.008  24.208  24.762  0.0344 -0.2937  0.0092
19576W        W62567  17.815  25.262  23.121  0.2228 -0.2020  0.2382
19577W        W62568   6.012  12.217  20.655 -0.1980  0.2060  0.3728
19578W        W62569  32.590   5.179  22.254 -0.2932  0.1679  0.3369
19579W        W62570  32.702  10.345  26.844  0.4128  0.1007 -0.2439
19580W        W62571   3.521  34.628  25.104  0.1813  0.0728 -0.3251
19581W        W62572   5.114  10.248   7.794  0.3421  0.0442  0.1429
19582W        W62573  21.279  10.537   7.762  0.2943  0.0794  0.0798
19583W        W62574  34.586  32.343   0.136  0.2087 -0.0050 -0.2188
19584W        W62575  30.576  26.473  26.441 -0.4721  0.0312 -0.3384
19585W        W62576   4.929   8.894  27.901 -0.0905 -0.2007 -0.2886
19586W        W62577  33.308  24.215  23.566  0.1806  0.0750 -0.0317
19587W        W62578   5.337  30.589  26.897  0.1802  0.0542 -0.1810
19588W        W62579  17.355  28.370  24.472 -0.1179 -0.0412 -0.2071
19589W        W62580  33.603   0.211   3.366 -0.0275  0.4036 -0.0036
19590W        W62581  31.400  13.379   5.035 -0.0523  0.1382  0.1913
19591W        W62582  30.416   0.041  23.251 -0.1307 -0.1235 -0.2481
19592W        W62583  26.156  17.278  20.451  0.0367 -0.1690  0.0243
19593W        W62584  12.974   8.199   3.597 -0.0639  0.2261 -0.0217
19594W        W62585   9.441   4.180   2.224  0.2424  0.2379  0.2878
19595W        W62586   4.215  21.611  17.334  0.0166  0.0322  0.1179
19596W        W62587  23.341  27.760   9.277  0.2965 -0.0234  0.4271
19597W        W62588  28.600   2.094  28.843  0.1498 -0.0440 -0.0222
19598W        W62589  25.314  17.570  14.718  0.1313  0.0134  0.0300
19599W        W62590   9.407  20.274  14.843 -0.3988  0.1146  0.1897
19600W        W62591  10.491   0.789   4.571  0.0373 -0.1372  0.1485
19601W        W62592   8.856  25.864  24.859  0.0523 -0.1463  0.0285
19602W        W62593  34.137   9.875   3.209 -0.0784 -0.1398  0.2900
19603W        W62594  27.235  28.595  26.312 -0.1899 -0.0013 -0.2035
19604W        W62595   3.737   4.149  21.436 -0.1460  0.4130  0.3551
19605W        W62596   5.519  32.402   7.455  0.1469 -0.0342 -0.0128
19606W        W62597  31.597  15.190  21.420 -0.0817 -0.4171 -0.0170
19607W        W62598   2.057  30.159   1.320  0.0763 -0.0662 -0.0086
19608W        W62599  27.672   7.735  21.506 -0.0814  0.0440  0.0500
19609W        W62600   4.474  30.447  25.505 -0.0535 -0.3733  0.2886
19610W        W62601   4.327  20.415   9.405  0.0459 -0.4666  0.0517
19611W        W62602  22.953   6.720  16.399  0.0643  0.0723  0.1014
19612W        W62603  27.786  24.357  23.016  0.0975 -0.1473  0.0518
19613W        W62604  31.512  33.935  24.298 -0.0893  0.2033  0.1833
19614W        W62605  22.565  29.947   2.439 -0.2301  0.0455  0.1581
19615W        W62606   4.777   4.819  19.059  0.1749  0.0966  0.1981
19616W        W62607   7.405   3.128  17.237  0.0998 -0.1930 -0.2473
19617W        W62608  14.338   9.332   3.756 -0.3029 -0.1169 -0.3733
19618W        W62609   3.330  14.296  24.544  0.0959 -0.1578  0.1253
19619W        W62610   7.368  33.076  21.163 -0.0200 -0.0655 -0.1484
19620W        W62611   1.096   1.063   7.626 -0.3011  0.1688 -0.1489
19621W        W62612  11.398   2.397  23.112 -0.0495  0.1382  0.0610
19622W        W62613  32.997  33.180  19.635 -0.1765  0.0136  0.1438
19623W        W62614   8.621  17.056  27.692 -0.0061 -0.4065  0.1991
19624W        W62615  32.431  12.026  20.833 -0.0852  0.2646  0.2123
19625W        W62616  28.915  25.137   4.289 -0.0907 -0.1557 -0.3463
19626W        W62617   9.815   4.733  10.389 -0.0383 -0.0285 -0.0510
19627W        W62618   2.018  26.634   6.127 -0.1259  0.0638  0.1510
19628W        W62619  34.795  10.729   5.337  0.0701 -0.1986  0.0746
19629W        W62620  32.107  17.771  26.997 -0.2414 -0.3823  0.2637
19630W        W62621  25.761   7.459  28.937 -0.1444  0.2255 -0.1043
19631W        W62622   0.286  24.211  18.915 -0.0304 -0.1544 -0.1867
19632W        W62623   7.357   1.799  26.883 -0.3357  0.3265  0.0987
19633W        W62624   0.930   3.324   1.590  0.2657  0.0007 -0.0365
19634W        W62625   4.797  30.847   7.940 -0.3334  0.0785  0.1186
19635W        W62626   4.094  33.120   9.249 -0.0276 -0.3976 -0.0822
19636W        W62627   7.231   4.972  15.718  0.0665  0.0983 -0.3688
19637W        W62628  30.356  11.600   2.341  0.2960  0.0380  0.2488
19638W        W62629  22.513  27.071   0.302 -0.1329 -0.3936  0.0742
19639W        W62630   8.804  30.245   0.101  0.1261  0.1908 -0.4657
19640W        W62631  32.862  27.654  24.275  0.2262  0.0072  0.1570
19641W        W62632  28.958  32.625  17.489 -0.1423 -0.1335 -0.0610
19642W        W62633  21.471   2.120  26.979 -0.0801  0.1944 -0.2277
19643W        W62634  13.917  30.110  24.779 -0.0320  0.0235 -0.0261
19644W        W62635  11.894   8.137   1.112 -0.0348  0.0904 -0.1379
19645W        W62636   6.931   4.654  29.093 -0.1308 -0.0003 -0.0591
19646W        W62637  18.513  18.218  23.379 -0.0160  0.3415  0.0279
19647W        W62638  14.923   8.427   5.787 -0.2711  0.1109 -0.0545
19648W        W62639   0.077  31.383   1.624  0.3863  0.0731  0.0417
19649W        W62640   1.843  10.658   5.463  0.1743  0.1371 -0.3246
19650W        W62641  25.401   3.775  24.775  0.1456 -0.1859 -0.1130
19651W        W62642   1.935  17.019  22.141 -0.1001  0.2286 -0.3831
19652W        W62643  34.501   0.718   4.056  0.0048 -0.1042 -0.0908
19653W        W62644  22.388   9.148  22.730 -0.0045  0.2367  0.0420
19654W        W62645  32.240  21.366   7.168 -0.0651  0.0796  0.0076
19655W        W62646   8.400  14.735  27.963 -0.0380  0.1435  0.1169
19656W        W62647  32.475   0.682  14.463  0.1498 -0.0337 -0.0266
19657W        W62648   9.905  11.480  25.689  0.0916 -0.0375  0.1797
19658W        W62649   0.694   6.463  22.653  0.0066 -0.0818 -0.0108
19659W        W62650  32.630   5.651  21.983 -0.1304 -0.0496  0.1721
19660W        W62651   6.909  22.267  23.897 -0.0269  0.1216  0.0113
19661W        W62652   0.846   1.519  22.558  0.0144 -0.1509  0.1072
19662W        W62653  33.493  23.008   1.691 -0.0716 -0.0367 -0.2434
19663W        W62654   7.584  28.818  26.934 -0.0378 -0.1377 -0.0304
19664W        W62655   4.913   1.867  21.090 -0.2732 -0.2986 -0.1171
19665W        W62656  24.529  33.264   2.289  0.3630 -0.1152  0.4464
19666W        W62657  21.465  25.796   3.882  0.0964  0.1355 -0.1455
19667W        W62658  18.657   6.217  19.827  0.0706  0.0102  0.0299
19668W        W62659  11.999   0.947  22.660 -0.2780 -0.2066 -0.0644
19669W        W62660   5.729  17.564  15.406  0.2920  0.0750 -0.2137
19670W        W62661  17.606  26.884   7.215 -0.2241 -0.3354  0.1272
19671W        W62662  22.322   5.337   6.114  0.3308 -0.0732  0.1218
19672W        W62663  21.358  26.767   3.893 -0.0701  0.5032 -0.0555
19673W        W62664  17.825  28.570  21.399 -0.0181 -0.1409 -0.0185
19674W        W62665  25.775  15.319   8.094 -0.3670  0.0392  0.2358
19675W        W62666  14.519  16.975   4.432  0.1945 -0.1516 -0.0941
19676W        W62667   1.667  20.513   5.289 -0.1465 -0.1366 -0.1022
19677W        W62668   6.925  34.175  17.205  0.2756 -0.0473  0.0250
19678W        W62669  16.078   0.585   4.908 -0.2444  0.0722  0.0786
19679W        W62670  14.295  20.160  22.775 -0.0183  0.3668  0.0075
19680W        W62671  11.158  30.867  25.767  0.1077  0.3102  0.0830
19681W        W62672  32.482  30.129  28.415  0.1675  0.5750 -0.1965
19682W        W62673   6.723  21.757  18.966  0.1257  0.3132  0.0636
19683W        W62674  29.295   2.471  17.354  0.0049 -0.4366  0.0469
19684W        W62675  26.778  16.473  16.653 -0.0488 -0.3629 -0.0666
19685W        W62676  24.234   1.182   6.640  0.1693 -0.3108 -0.0826
19686W        W62677   3.077   6.798  17.454 -0.1161  0.1901 -0.0073
19687W        W62678   8.024  34.714  26.129  0.0305 -0.0020 -0.3157
19688W        W62679  14.314   3.536  27.938  0.4351 -0.0797  0.0761
19689W        W62680  13.136  25.535   6.205 -0.2598 -0.1153 -0.1023
19690W        W62681  12.159   4.625  19.468 -0.0976  0.2026  0.2642
19691W        W62682   8.360  10.925   4.559 -0.0612 -0.0517  0.1217
19692W        W62683   0.559  34.333  27.642 -0.1248 -0.1542  0.1800
19693W        W62684  29.945  29.767   4.018 -0.1654  0.1561  0.1131
19694W        W62685  17.805   8.844   6.080 -0.1545  0.0373  0.0891
19695W        W62686   2.856  25.523   1.790  0.0181  0.1690 -0.0244
19696W        W62687  11.414   0.869  22.587  0.4958 -0.2577 -0.0783
19697W        W62688  32.963   4.541  10.060 -0.1480 -0.3659 -0.2504
19698W        W62689   7.221  28.175   1.182  0.0503  0.0227  0.0425
19699W        W62690   0.480   1.354   0.474 -0.2163  0.1701  0.2628
19700W        W62691  28.196   5.022   3.905 -0.2543  0.1653 -0.0768
19701W        W62692  34.034   1.566  21.261  0.1704 -0.0585 -0.0560
19702W        W62693   7.616   3.466  22.092 -0.0567  0.4146  0.0256
19703W        W62694  19.672   2.733  21.234 -0.3393 -0.1034 -0.0002
19704W        W62695   5.134   0.861  25.147 -0.1353  0.2940  0.0725
19705W        W62696  31.268  30.715   2.509  0.0889  0.1794 -0.0247
19706W        W62697   0.036  27.375  21.991 -0.1531 -0.4505 -0.3187
19707W        W62698  23.489   5.341  14.939  0.0096 -0.0258  0.0792
19708W        W62699   5.694  11.583  24.907 -0.0039  0.0924  0.3209
19709W        W62700  34.380   2.113  24.443 -0.0131  0.0707  0.1313
19710W        W62701   9.014  28.035  17.303  0.1690 -0.1740 -0.2851
19711W        W62702   2.780  29.840  24.250 -0.4453  0.2316 -0.2907
19712W        W62703  12.044  33.196  16.127  0.0232  0.1740  0.0766
19713W        W62704  26.945   3.664  27.215 -0.1241  0.1624 -0.1974
19714W        W62705  14.588   7.936  27.500 -0.1322 -0.1683  0.0585
19715W        W62706  21.080  32.912  13.595  0.1893  0.0386 -0.0280
19716W        W62707   6.481  26.271  16.856 -0.0627  0.0297  0.3994
19717W        W62708  22.031  23.351  28.703 -0.0192  0.0616  0.0998
19718W        W62709   5.697   0.750  20.714 -0.1417 -0.0210  0.1253
19719W        W62710  33.246  26.709  25.819  0.2362 -0.2647 -0.2046
19720W        W62711  30.088  32.963  28.173 -0.2655 -0.0923 -0.1116
19721W        W62712  34.189  19.432  18.983  0.1065 -0.0231 -0.0917
19722W        W62713   3.990   5.797   5.385 -0.2630  0.1319  0.2159
19723W        W62714  25.491  26.553  24.654 -0.1265 -0.3731  0.0525
19724W        W62715   4.615  29.022  24.813 -0.0362 -0.4434  0.2499
19725W        W62716   6.879   0.608  15.398  0.3064  0.0074 -0.2696
19726W        W62717  26.275  25.174  22.234 -0.0226 -0.0575 -0.0496
19727W        W62718  18.763   6.430   7.646  0.2335  0.2011 -0.0950
19728W        W62719  33.825  29.389  16.022  0.3585  0.3654 -0.0385
19729W        W62720  19.084  12.493  22.767 -0.0413  0.1470 -0.0614
19730W        W62721  29.164  29.425  14.859  0.2023 -0.3653  0.0452
19731W        W62722  29.766  29.720  26.114 -0.0452  0.2451  0.1149
19732W        W62723  33.073  16.250  18.756 -0.0599 -0.1300 -0.4594
19733W        W62724  23.370  25.568   6.586 -0.1956 -0.1463 -0.0778
19734W        W62725  18.304  22.053  19.730 -0.0960  0.1556 -0.2504
19735W        W62726  29.750  20.720  16.299  0.0021  0.2486 -0.3733
19736W        W62727   3.937  25.020  10.933  0.0267 -0.1123  0.3193
19737W        W62728   4.361  22.760  27.268 -0.2146  0.2069 -0.2134
19738W        W62729  12.318  22.588   5.862 -0.0505  0.1834  0.1085
19739W        W62730   4.659  33.280  20.536 -0.3797  0.0801  0.2654
19740W        W62731  24.031  33.285  14.751 -0.3639  0.2159  0.1606
19741W        W62732   7.481  17.599  24.801  0.2546  0.0685  0.0367
19742W        W62733  13.893  24.051  16.905 -0.1824  0.0510  0.0629
19743W        W62734   8.800  20.727  22.386 -0.0358 -0.4149  0.4614
19744W        W62735   1.904  24.540   8.675  0.1370  0.0233 -0.0857
19745W        W62736   3.423  15.077  20.227  0.0883  0.0902 -0.3321
19746W        W62737  10.994   4.193   0.961  0.0346  0.0540  0.2751
19747W        W62738   2.765  14.293  27.426 -0.0092 -0.0065 -0.2169
19748W        W62739  11.879  10.451  19.039  0.1815 -0.0539  0.1678
19749W        W62740   7.375  33.668  24.491  0.0133 -0.0460 -0.2038
19750W        W62741  33.320  32.420  23.652 -0.0038  0.2082 -0.1755
19751W        W62742  15.818   7.116   4.803  0.0141 -0.0733  0.1301
19752W        W62743  30.679  10.721  29.159  0.2626 -0.2066 -0.0813
19753W        W62744   2.959   6.619  20.692 -0.0111  0.0619  0.0820
19754W        W62745  32.472  15.160  21.106  0.1205 -0.1816 -0.2349
19755W        W62746   1.209   3.975  21.808  0.3868 -0.1056 -0.1544
19756W        W62747  27.504  23.396   1.739  0.1539 -0.0692 -0.1551
19757W        W62748  32.195   5.345  26.073  0.1249  0.1581 -0.0272
19758W        W62749   1.459   1.767  27.069  0.0243 -0.0413  0.2417
19759W        W62750  31.008  22.380   5.908 -0.0155 -0.2029 -0.2569
19760W        W62751   9.191  18.459   9.772  0.1746 -0.2355 -0.0722
19761W        W62752  21.910  33.724   0.040  0.0676 -0.0770  0.0333
19762W        W62753  30.687  25.821  19.388 -0.1831  0.2244  0.2411
19763W        W62754  12.649  30.486   1.794  0.0512 -0.2409 -0.0614
19764W        W62755  14.440  21.084  16.132 -0.0874 -0.1051  0.3054
19765W        W62756   5.161  31.886   4.087  0.1291  0.0664 -0.0929
19766W        W62757   1.789  28.111  16.752  0.0251 -0.1428  0.1276
19767W        W62758   5.964   2.724  10.885 -0.0084 -0.2535  0.1860
19768W        W62759  32.271   2.820   6.889  0.0079 -0.0753  0.0472
19769W        W62760  26.148  17.935  28.180 -0.2253 -0.0835 -0.0209
19770W        W62761  31.713  21.011  18.006  0.2988 -0.2091 -0.0514
19771W        W62762  33.002  34.303  23.239 -0.0680  0.0194 -0.0371
19772W        W62763   2.875  29.626  27.057  0.2660  0.0561 -0.2313
19773W        W62764  29.809  15.847  21.729 -0.4823  0.2999 -0.0069
19774W        W62765  12.171  13.798  10.224 -0.0857  0.1909  0.1781
19775W        W62766  30.665  32.497   5.156 -0.0491  0.0255  0.0317
19776W        W62767  25.542   3.199  12.465 -0.0956  0.1104 -0.1428
19777W        W62768   0.087  11.923   5.818 -0.1075  0.1169 -0.0838
19778W        W62769  14.093  27.538   7.491  0.5888 -0.1287  0.0459
19779W        W62770   1.684  34.658   8.171 -0.0757  0.1816  0.3477
19780W        W62771   7.047  22.215   7.395  0.1477  0.2140  0.0816
19781W        W62772  19.231  23.285   2.285  0.1793 -0.1072 -0.0747
19782W        W62773  29.744  30.384  24.688 -0.0915 -0.3274  0.0404
19783W        W62774   4.328  27.895   7.297 -0.1569  0.3161 -0.2335
19784W        W62775  25.369  32.190  20.441  0.2588 -0.1826 -0.1351
19785W        W62776  24.419  24.638   2.002 -0.2754  0.1063  0.0900
19786W        W62777   2.299  30.158   3.791  0.1288  0.1699  0.1006
19787W        W62778  26.388   5.565  20.766 -0.0334 -0.1299 -0.0424
19788W        W62779   7.933   2.462  14.877 -0.1749  0.1800  0.1852
19789W        W62780  10.715  23.124  18.841 -0.1337  0.2785 -0.1048
19790W        W62781  28.133  28.762  24.305  0.0753  0.0325  0.2241
19791W        W62782  10.507   1.749  14.869 -0.2473 -0.0326  0.0964
19792W        W62783  33.387  10.239   1.284 -0.0051  0.0239  0.2202
19793W        W62784   2.919  10.158  21.215  0.0818  0.1855 -0.1898
19794W        W62785  31.015   9.881  27.636 -0.2739 -0.4033 -0.1314
19795W        W62786  34.151   8.646  15.712  0.4317  0.1049  0.1881
19796W        W62787  34.600   4.366  22.899 -0.2401  0.2431  0.0528
19797W        W62788  24.083   8.348  25.617 -0.3364  0.2763  0.0058
19798W        W62789   6.265   5.953  22.440  0.2199  0.0380  0.0900
19799W        W62790  33.782   9.637  17.151  0.1156  0.0824  0.0471
19800W        W62791  17.818   1.888   1.613  0.0733 -0.2711 -0.2211
19801W        W62792  14.984  29.541  22.678  0.1922 -0.1243 -0.1447
19802W        W62793   4.822   9.216   0.357  0.1211  0.1994 -0.1085
19803W        W62794  20.648   1.351   0.294 -0.0762 -0.2122  0.1321
19804W        W62795   5.581  12.387  27.988  0.1299  0.3270 -0.0232
19805W        W62796  17.076   4.258   0.030 -0.2866  0.1369 -0.2214
19806W        W62797   5.191   5.574  18.544 -0.0510 -0.0652 -0.0125
19807W        W62798  12.552  12.348  22.988 -0.2365  0.3195 -0.4418
19808W        W62799  13.098   5.931  20.932  0.2170 -0.4845  0.0744
19809W        W62800   0.564   3.713  17.769 -0.0326  0.1163  0.0423
19810W        W62801  12.460  10.660  26.343 -0.2853 -0.1563  0.2797
19811W        W62802  34.173   1.627  16.601 -0.1095  0.1356  0.0757
19812W        W62803  13.746   7.876  24.472  0.1326  0.0754 -0.1607
19813W        W62804  29.450   3.731  15.548  0.0549 -0.1651 -0.1060
19814W        W62805  11.992   0.670  18.999  0.3249  0.3287 -0.4757
19815W        W62806   3.618  29.785  28.930 -0.0073  0.0437 -0.2314
19816W        W62807  27.288  34.192  25.245 -0.1898 -0.1957  0.0911
19817W        W62808  12.142  32.905  18.879 -0.0780  0.0422  0.3713
19818W        W62809   2.069  29.188  15.236  0.0828 -0.3197  0.0986
19819W        W62810  28.750  31.097  16.090  0.0232 -0.3804 -0.0827
19820W        W62811  21.602   7.860  14.676 -0.0761 -0.0230  0.0424
19821W        W62812  29.643   8.899  18.082 -0.2782 -0.1031  0.2971
19822W        W62813  29.141   0.489  15.026 -0.1070 -0.2780 -0.0202
19823W        W62814   7.235  16.288  27.019 -0.0488  0.1013  0.2964
19824W        W62815  15.673   7.070  16.831 -0.1499 -0.3567 -0.2358
19825W        W62816   8.819   8.440  22.950  0.2107  0.0890  0.2072
19826W        W62817   8.518   5.493  28.253 -0.1338 -0.0565  0.0858
19827W        W62818   5.759  27.812  15.489 -0.1099 -0.0006  0.0555
19828W        W62819   4.769   5.043   1.886  0.0551 -0.2864 -0.1233
19829W        W62820   4.529  28.393  18.389  0.0592 -0.0958  0.2045
19830W        W62821   6.738  11.673  18.636 -0.2615 -0.0943 -0.0967
19831W        W62822   5.364   9.933  20.064 -0.0293  0.2503  0.0540
19832W        W62823   7.307   6.115  22.513  0.0483 -0.2396  0.1113
19833W        W62824  17.508   3.536  27.197  0.0349 -0.0986  0.4603
19834W        W62825  19.518   0.801  16.233 -0.1546  0.2378  0.0149
19835W        W62826   5.480  10.487   0.216 -0.0776 -0.1412  0.3245
19836W        W62827   7.280  34.110  26.414 -0.1879 -0.1236  0.2853
19837W        W62828  20.501  12.056  14.953 -0.1599  0.3109  0.0444
19838W        W62829  26.562   9.529  20.495  0.1022 -0.1911  0.1528
19839W        W62830  32.769   1.656  26.407 -0.0579  0.1833  0.0038
19840W        W62831   9.278   7.741  18.849  0.0051  0.2982 -0.1052
19841W        W62832  13.373  11.040  24.026  0.1845 -0.0804 -0.0217
19842W        W62833   9.218  21.691  14.314  0.0983 -0.0498  0.1161
19843W        W62834  31.123  33.949  26.483 -0.1944 -0.0894 -0.0169
19844W        W62835  20.109  15.571  14.646  0.0190 -0.1195 -0.1915
19845W        W62836   3.335   6.888  26.514  0.1587 -0.1225 -0.1395
19846W        W62837  15.891  31.773  19.042 -0.0013  0.1547  0.0107
19847W        W62838   8.007  26.641  23.072  0.0190  0.0991 -0.0584
19848W        W62839  33.069  10.211  28.188 -0.1379  0.0357 -0.3850
19849W        W62840  28.328   3.979  19.881 -0.0319  0.2659  0.1893
19850W        W62841  22.952  25.793  19.697  0.1894  0.0927  0.1249
19851W        W62842  29.972   4.666  16.583 -0.1321  0.0816 -0.0829
19852W        W62843  28.511  13.401  17.407 -0.0092  0.0789 -0.0703
19853W        W62844   6.991  33.891  19.627 -0.0014  0.0901 -0.0409
19854W        W62845  31.222  11.390  28.988  0.2059  0.0216 -0.0508
19855W        W62846   0.353   4.364  21.780 -0.3526 -0.0037 -0.0388
19856W        W62847  26.855  32.345  28.015 -0.4282 -0.1174 -0.1212
19857W        W62848   7.472   8.920  22.443 -0.3439 -0.0439 -0.2039
19858W        W62849  12.323   1.308  20.733 -0.4937  0.1192  0.0337
19859W        W62850  23.486  15.277   1.456 -0.3491 -0.0101 -0.4498
19860W        W62851  29.038  30.317  22.269 -0.1127  0.0187 -0.1881
19861W        W62852  31.602  10.040  24.813 -0.2105  0.2017 -0.1060
19862W        W62853   7.798  31.593   8.087  0.0552 -0.1672 -0.1846
19863W        W62854   0.445  32.222  19.991 -0.2936 -0.1320  0.2100
19864W        W62855  12.250   8.901   0.685 -0.5686  0.2369 -0.1130
19865W        W62856   8.918  29.635  24.345 -0.2186  0.1524  0.3397
19866W        W62857   1.825   5.219  18.574  0.0909 -0.1622 -0.1226
19867W        W62858  29.927  30.104   6.575  0.0038  0.0193  0.0735
19868W        W62859  33.369   9.655  18.606 -0.3088  0.1937  0.0622
19869W        W62860   0.399  10.479  19.236 -0.3926  0.1175  0.0941
19870W        W62861  26.170  32.983  27.296  0.2127 -0.2270  0.0768
19871W        W62862   3.892   5.401  24.345 -0.2485  0.1029  0.0661
19872W        W62863   5.074   1.849  23.483 -0.0362  0.2727 -0.2999
19873W        W62864  11.841  15.061  21.295  0.3539 -0.0948  0.0459
19874W        W62865   7.677  11.282  19.804 -0.1342  0.1466 -0.0228
19875W        W62866   1.703   1.188  15.868  0.0594 -0.0819  0.1080
19876W        W62867  13.228   2.075  19.443 -0.1655 -0.0103 -0.1171
19877W        W62868   1.857  34.579  23.138 -0.0991  0.0761  0.1326
19878W        W62869  15.757  28.734  25.427 -0.3697 -0.1943 -0.0688
19879W        W62870   6.573  21.897  19.426 -0.1603 -0.0091  0.1867
19880W        W62871  28.828   4.704   1.754 -0.1860 -0.1591  0.1087
19881W        W62872  16.391  27.261  26.676 -0.2274  0.1564 -0.2601
19882W        W62873   0.191  27.545  23.757 -0.0338 -0.2994 -0.0931
19883W        W62874  11.644   5.675  26.378 -0.2047  0.1219 -0.0958
19884W        W62875  19.925  12.032  28.205  0.2152  0.0784 -0.5129
19885W        W62876   2.165   5.349  19.346 -0.0322 -0.0425  0.1050
19886W        W62877  29.995   1.870  15.976 -0.0964 -0.0910 -0.2956
19887W        W62878   1.061   5.753  21.570 -0.1959  0.1531  0.0082
19888W        W62879  12.569  14.338  17.843 -0.0539  0.1191  0.1548
19889W        W62880  21.511  32.592  16.018  0.2410 -0.1717 -0.2895
19890W        W62881   2.353   6.713  20.316  0.0386 -0.2050  0.0917
19891W        W62882  15.931   0.739   3.278  0.0245 -0.2204  0.0314
19892W        W62883   9.797   7.576   0.543  0.0658  0.0971 -0.0732
19893W        W62884  27.807   1.107  16.080 -0.2515  0.0037  0.1891
19894W        W62885  11.619  30.234  16.541 -0.2772  0.3211 -0.0141
19895W        W62886  29.352  11.659  18.520 -0.3099  0.0953  0.1174
19896W        W62887  18.633   7.523  21.271  0.1900  0.1185 -0.0937
19897W        W62888   6.598  34.059   1.184 -0.0728 -0.0553  0.3899
19898W        W62889  27.990   3.841  15.173  0.2312 -0.0843  0.0974
19899W        W62890  23.328  33.977  17.694 -0.1272 -0.0148 -0.1359
19900W        W62891  27.348   6.922  19.264 -0.0152 -0.0191 -0.1104
19901W        W62892  26.500  27.171  19.551  0.0418  0.2021 -0.0199
19902W        W62893   5.933  31.515  21.902 -0.3457 -0.3707  0.0162
19903W        W62894  12.558  31.635  28.800 -0.2076 -0.2340 -0.1745
19904W        W62895   7.164   0.016  20.242  0.0382 -0.3611  0.1354
19905W        W62896  11.686  22.529  21.536  0.1942 -0.1808 -0.1165
19906W        W62897   5.948  30.464  14.696 -0.0138 -0.0201 -0.1442
19907W        W62898   1.613   3.080  15.758  0.1109  0.0678 -0.1544
19908W        W62899   7.516  26.726  26.590 -0.1902 -0.1631 -0.3312
19909W        W62900  32.311  15.786  21.739  0.1781  0.2186 -0.1887
19910W        W62901   0.076  30.569  16.836  0.1177  0.0152 -0.2148
19911W        W62902  21.990   1.176   5.211 -0.2513  0.2462  0.2558
19912W        W62903   5.844   5.692  15.603 -0.0129  0.2056 -0.2902
19913W        W62904  13.608  25.016  14.492  0.1471 -0.0401  0.1328
19914W        W62905  12.821   3.797  23.857 -0.0622  0.3610  0.1220
19915W        W62906   5.982  15.328  17.289 -0.2672  0.1363  0.1175
19916W        W62907  32.336   2.916  20.551  0.0141  0.1121  0.2974
19917W        W62908  21.817   3.648  13.430 -0.0497 -0.1360  0.1664
19918W        W62909  10.493  18.008  15.257  0.0083 -0.3336 -0.1322
19919W        W62910  10.076   8.117  27.937  0.0094  0.0171 -0.3659
19920W        W62911  29.804  11.575   6.776 -0.1662 -0.2126  0.0415
19921W        W62912   4.411  22.589  26.557 -0.0562  0.2522  0.1696
19922W        W62913   3.315   0.873  22.431 -0.0581  0.0955  0.4096
19923W        W62914   4.150   7.854  21.643  0.1467 -0.0244  0.2707
19924W        W62915   0.748  28.547  13.198 -0.0560 -0.1084  0.1828
19925W        W62916  33.136   4.565  16.750  0.1680  0.2094  0.0374
19926W        W62917  30.961  20.583  28.776 -0.1141  0.1593  0.1011
19927W        W62918  10.471  30.401  24.500 -0.1359 -0.1080 -0.1135
19928W        W62919  13.239  32.477  28.057  0.0277 -0.0113 -0.0937
19929W        W62920  10.533   1.832  23.887  0.2850  0.2688 -0.0393
19930W        W62921   8.064  32.600  20.849 -0.1543  0.0662  0.0064
19931W        W62922  15.638  34.601  15.701 -0.2393  0.0170  0.1203
19932W        W62923   0.154  28.575   4.399 -0.0459 -0.0522 -0.0394
19933W        W62924  10.214   3.805   2.422  0.0076 -0.1897 -0.0521
19934W        W62925   8.684   3.204  14.794 -0.1650  0.0256  0.0998
19935W        W62926   6.880  16.228  16.348 -0.0934 -0.1536 -0.0120
19936W        W62927  31.243  30.446  28.635 -0.1056  0.1059  0.0143
19937W        W62928   0.067   9.684  24.551 -0.3784  0.0347  0.0761
19938W        W62929   7.140   6.996  19.862 -0.0299 -0.0629 -0.1043
19939W        W62930   2.899  27.651  19.291 -0.2572 -0.0721 -0.4225
19940W        W62931  11.982  17.420  20.953  0.0693  0.1526  0.1077
19941W        W62932  21.679   4.987  16.113 -0.1133 -0.2680 -0.2370
19942W        W62933  33.369   2.670  15.351  0.2504  0.1948 -0.0048
19943W        W62934  33.770   8.473  25.808 -0.0664  0.1982 -0.3226
19944W        W62935   8.106  21.895  17.297 -0.2587 -0.1479 -0.1210
19945W        W62936  15.025  16.073  25.204 -0.0598  0.1664 -0.2617
19946W        W62937  21.263   3.451  20.092  0.0273  0.2370 -0.0849
19947W        W62938  26.085   5.621  18.011  0.0067 -0.0992 -0.4239
19948W        W62939  32.203   3.507  15.678  0.1666 -0.1360  0.2603
19949W        W62940  19.312   7.402  17.806  0.0424 -0.0547  0.0154
19950W        W62941   1.565   1.824  14.697 -0.0178  0.3913  0.0409
19951W        W62942  34.709  32.839  24.459 -0.3501  0.0274 -0.0351
19952W        W62943  23.298  13.565  17.088 -0.0496 -0.1094  0.1559
19953W        W62944  34.729  34.338  16.622  0.1657  0.0308 -0.0141
19954W        W62945   5.664  17.023  16.128 -0.0032 -0.0993  0.2141
19955W        W62946  28.437  30.569  16.490  0.0128 -0.2654 -0.2728
19956W        W62947  22.701   0.253  22.203  0.1281  0.0818 -0.1527
19957W        W62948  34.145   0.483  22.826 -0.2243  0.2226  0.0538
19958W        W62949  32.590   0.666   1.248 -0.1051  0.0296  0.2160
19959W        W62950  30.715  16.264   9.186  0.2413  0.1387  0.1156
19960W        W62951  12.590   4.981  18.619  0.2534 -0.2543  0.2664
19961W        W62952  13.813  26.767  21.910 -0.0892 -0.1366 -0.0299
19962W        W62953  13.446   7.430  21.896 -0.0578 -0.2501 -0.1418
19963W        W62954  22.617   6.539  19.100 -0.0134 -0.0521  0.0827
19964W        W62955   7.404  18.783  25.222 -0.1001  0.0259 -0.4915
19965W        W62956  15.066  30.419  28.601 -0.0818 -0.0866 -0.3746
19966W        W62957  26.814  32.881  15.751  0.1856  0.0465 -0.1751
19967W        W62958   5.680  30.401  15.616 -0.2224 -0.1377 -0.1363
19968W        W62959  24.433  33.263  14.986 -0.1500 -0.1483 -0.0282
19969W        W62960  26.782  10.603  15.171  0.1842 -0.0472  0.2683
19970W        W62961   4.674   4.371  19.822 -0.2058  0.0349 -0.2509
19971W        W62962  17.154  33.942  17.102 -0.2007 -0.1083  0.0997
19972W        W62963  31.995  34.138   4.041  0.1341  0.1056  0.0323
19973W        W62964   7.461  26.648  18.007 -0.1601 -0.2191 -0.1325
19974W        W62965   8.032   6.418  27.127  0.2580 -0.1221 -0.1532
19975W        W62966   1.031   1.754  18.503 -0.0942 -0.1286 -0.0136
19976W        W62967  34.487  30.721   4.694  0.1993 -0.0983 -0.0901
19977W        W62968   1.344   5.333  29.144 -0.3941  0.0288  0.2360
19978W        W62969  24.867  15.485  23.275 -0.1234  0.0208 -0.1240
19979W        W62970   7.203   2.239  15.270  0.2552 -0.2382 -0.0354
19980W        W62971  27.147  33.415  16.919  0.0255 -0.0499  0.0838
19981W        W62972   6.327   3.071  20.904 -0.4141  0.1328 -0.1220
19982W        W62973   7.426  31.138  29.229  0.1805  0.0963 -0.2197
19983W        W62974  19.806   4.694  16.904 -0.1771 -0.0481  0.0141
19984W        W62975   8.180   4.809   7.772  0.3905 -0.0468  0.0473
19985W        W62976   4.486  29.349  21.302 -0.1863  0.2281 -0.3046
19986W        W62977  23.387   8.024  13.874 -0.1619  0.1327  0.3305
19987W        W62978  14.538   6.624  15.510 -0.2455 -0.1738  0.1202
19988W        W62979   0.705   5.890  23.907  0.1791 -0.0340 -0.0420
19989W        W62980   0.394  23.228  17.569 -0.0208  0.1023  0.0484
19990W        W62981  32.700   3.085  26.417  0.1612 -0.2329  0.2260
19991W        W62982  31.117   5.917  18.819  0.0692  0.1029  0.0385
19992W        W62983  20.091   0.367  22.896  0.2911 -0.1131  0.0709
19993W        W62984  32.112  10.017  19.585 -0.0124  0.2879  0.3187
19994W        W62985   6.996  33.909  23.758  0.0290 -0.1835  0.0341
19995W        W62986  29.163   2.174   6.781  0.1656 -0.2124  0.1071
19996W        W62987   9.797   6.898  15.386  0.0540  0.2281  0.0394
19997W        W62988   6.294  10.770  15.896 -0.0773  0.1622 -0.1410
19998W        W62989   5.015  14.709  24.881  0.0201 -0.0658  0.0735
19999W        W62990  19.680  13.258  24.069  0.1242  0.1161 -0.0971
20000W        W62991   8.122   7.428  25.461  0.1112  0.0981  0.2320
20001W        W62992   4.621   7.302  25.137  0.3634 -0.1072  0.2066
20002W        W62993   9.460  21.743  23.362  0.2815 -0.0679 -0.1121
20003W        W62994   2.542   1.265   5.604  0.2145  0.1947  0.0601
20004W        W62995  19.917   1.854   0.578  0.0525  0.1484  0.0497
20005W        W62996  32.786   6.852  18.493 -0.0735 -0.4104 -0.1676
20006W        W62997  15.487  11.855   1.543 -0.4710 -0.1009 -0.2605
20007W        W62998  34.535  12.281  24.994  0.2830  0.0725 -0.2299
20008W        W62999   5.255  16.205  18.905 -0.1264  0.1790  0.1378
20009W        W63000  12.920   4.586  26.055  0.0707 -0.1006  0.2902
20010W        W63001   8.832   9.200  17.311 -0.0099 -0.0874 -0.2738
20011W        W63002   5.657   8.958  23.067 -0.1634 -0.0138  0.0029
20012W        W63003  21.365  31.831  22.844 -0.0848  0.0595 -0.1616
20013W        W63004   1.542  30.748  29.149  0.0536  0.3261  0.2852
20014W        W63005   7.620   3.522   3.003  0.0621  0.0829  0.0933
20015W        W63006  34.513   7.906  27.069 -0.1871 -0.0720 -0.3314
20016W        W63007   4.194  17.464  26.432  0.3002  0.1870  0.4375
20017W        W63008   8.896  28.348  16.945  0.0145  0.0050  0.0051
20018W        W63009  16.331  23.640  15.107 -0.1530 -0.0986 -0.1259
20019W        W63010  34.199  13.775  18.783 -0.2361  0.2010  0.4842
20020W        W63011   4.655   4.382  16.717 -0.1209 -0.1506 -0.0065
20021W        W63012  15.155   1.480  16.720  0.0898 -0.0316  0.0713
20022W        W63013   6.735  31.513  16.939  0.1534  0.2852  0.0187
20023W        W63014  31.788   3.217  15.055  0.2409 -0.0429  0.1441
20024W        W63015   1.296   6.224  27.206  0.3088  0.1274 -0.0418
20025W        W63016  30.492  13.595  20.551 -0.0839 -0.0930 -0.2026
20026W        W63017   1.317  13.753   0.401 -0.3226  0.0678  0.1076
20027W        W63018   6.059  14.086  17.633  0.3943 -0.1073 -0.2404
20028W        W63019  16.843  25.516  23.621  0.0546  0.4585 -0.0696
20029W        W63020  30.312   5.714  17.805 -0.3445 -0.0252  0.1788
20030W        W63021   7.532  31.596  25.138  0.2581  0.1573  0.0170
20031W        W63022  18.223  20.655  26.093  0.0579 -0.0740 -0.1166
20032W        W63023   5.253  28.461  26.743 -0.2126  0.2632  0.0328
20033W        W63024  18.229   7.736  24.015 -0.0996  0.3590 -0.1170
20034W        W63025   6.986  12.006  27.018 -0.1515  0.2297 -0.2677
20035W        W63026  34.354  23.302  15.774 -0.3623  0.1465  0.3794
20036W        W63027   8.201  31.396  19.603  0.0330  0.1947 -0.0561
20037W        W63028  19.338  31.012   6.286 -0.0003 -0.1192 -0.2746
20038W        W63029   9.516   5.452  20.122 -0.3999  0.2444 -0.1496
20039W        W63030  31.610  33.682  13.401  0.2065 -0.4823 -0.3819
20040W        W63031  22.821   8.463  22.160  0.1212  0.3226 -0.2880
20041W        W63032  12.824   8.346  24.277  0.2978 -0.0058 -0.1669
20042W        W63033  10.041   6.607  14.461  0.2562  0.0723  0.1438
20043W        W63034   8.661  12.953  21.261  0.3357  0.4175 -0.0192
20044W        W63035  19.105  12.270  14.122  0.2880  0.0508  0.2264
20045W        W63036  11.095  32.704  27.468 -0.1892  0.3665 -0.3360
20046W        W63037  29.697  11.197  24.357  0.5047 -0.1346  0.0602
20047W        W63038  32.881  31.618  16.124  0.0318 -0.2680  0.2126
20048W        W63039  20.337  28.239  15.056  0.2198 -0.2477  0.3622
20049W        W63040  23.742   6.884  22.515  0.0202 -0.0742  0.4250
20050W        W63041  32.189  34.000  20.295 -0.0843  0.0349  0.0843
20051W        W63042   2.164   8.567  26.054 -0.0664  0.0623 -0.1564
20052W        W63043  15.716   9.068  26.537 -0.2061 -0.3161 -0.0282
20053W        W63044   8.376  30.167  16.868  0.3715  0.0475 -0.1046
20054W        W63045  33.077  14.731  27.222 -0.1521  0.0625 -0.3129
20055W        W63046   8.906  13.041  21.771  0.1703  0.0386  0.0728
20056W        W63047  30.825  23.471  23.240 -0.0449  0.0933 -0.0201
20057W        W63048  14.481  34.783   2.065 -0.1824  0.0760  0.0903
20058W        W63049  13.062  14.097  17.179  0.1263 -0.0426  0.1786
20059W        W63050   6.916  14.769  21.131 -0.0654 -0.2073 -0.1422
20060W        W63051  10.806  34.175  22.260  0.0918  0.0177  0.0772
20061W        W63052  19.759  19.242   2.910  0.0845 -0.0212 -0.4060
20062W        W63053  33.069   5.557  21.551  0.3395  0.0785 -0.0671
20063W        W63054   2.330  13.802  16.751  0.0056  0.2407 -0.0247
20064W        W63055   7.812   5.831  15.074  0.0034  0.1321  0.1060
20065W        W63056  18.610  11.264  25.693 -0.0129 -0.1483 -0.0287
20066W        W63057   8.216   7.729  25.860  0.2781 -0.0816  0.0441
20067W        W63058  13.652   5.173   1.718  0.1700 -0.0203 -0.0442
20068W        W63059  14.427  32.132  21.904  0.1459  0.2114 -0.0730
20069W        W63060   8.102  33.672   0.635 -0.0361 -0.0947  0.0971
20070W        W63061  32.982   1.012  19.761  0.0192  0.2735  0.0845
20071W        W63062  19.140   7.357   7.802 -0.1343  0.0978  0.4955
20072W        W63063   4.553  33.970  18.005 -0.2872 -0.0488 -0.0309
20073W        W63064  32.610  22.665  19.611 -0.1783  0.0410  0.1238
20074W        W63065  13.098  10.249   1.065 -0.3892  0.3232  0.1185
20075W        W63066   3.434  31.938   3.097 -0.2052  0.0306 -0.0294
20076W        W63067   1.925   2.149  18.667 -0.2218  0.1991  0.2284
20077W        W63068   9.076   4.966  21.662 -0.1890  0.0192  0.0925
20078W        W63069   7.667  23.563  14.939 -0.1619  0.2413  0.3852
20079W        W63070   5.180  29.212  14.512 -0.1782 -0.2485 -0.0150
20080W        W63071   9.087  33.470  17.227  0.0555 -0.4856 -0.3297
20081W        W63072   1.656  29.228  13.428 -0.3449  0.3076  0.1648
20082W        W63073   3.525   0.343  21.205  0.0585 -0.0033 -0.3167
20083W        W63074  32.752  26.929  18.224 -0.1113  0.1939  0.3122
20084W        W63075   4.415   2.391  16.531 -0.0678 -0.1360  0.1797
20085W        W63076  24.793   2.401  25.001  0.1148 -0.0846  0.0031
20086W        W63077  23.478  31.261  22.129 -0.0388  0.1498  0.4476
20087W        W63078  31.660  26.320  19.067 -0.0587 -0.0008  0.1458
20088W        W63079  17.865   6.258   7.891  0.1125  0.0455 -0.2290
20089W        W63080  26.027  30.211  19.328 -0.3057  0.1330  0.0519
20090W        W63081  25.943  18.883  18.388  0.1252  0.0285  0.0149
20091W        W63082  29.488  28.246  15.750  0.1399 -0.1450 -0.1529
20092W        W63083   3.158  25.451   4.583  0.5196  0.1561  0.2329
20093W        W63084   3.752   7.009  27.361  0.0307  0.0095 -0.1462
20094W        W63085   8.439   5.722  15.598  0.1630 -0.0889 -0.0552
20095W        W63086   1.549  28.649   4.257 -0.1717  0.1226  0.1146
20096W        W63087   2.754   0.208  17.081  0.0845 -0.2146 -0.1395
20097W        W63088  26.889   1.846  26.394  0.0664 -0.1617 -0.3907
20098W        W63089   5.005   7.901  22.499 -0.2776 -0.0928 -0.0332
20099W        W63090  10.545  19.587  23.046 -0.1509 -0.0732  0.1671
20100W        W63091  19.363   6.261  14.791 -0.2034 -0.1422 -0.0621
20101W        W63092   2.933  32.216   4.857  0.0045  0.0812 -0.1193
20102W        W63093   4.005  11.670  26.432  0.0102 -0.3564  0.0920
20103W        W63094  12.299  22.498  17.394  0.0634  0.0705 -0.0083
20104W        W63095  21.530   3.393  23.685  0.0502  0.1138  0.0788
20105W        W63096  10.645  17.316  18.279 -0.0008 -0.3210 -0.5099
20106W        W63097   1.217   6.405  26.692 -0.2445  0.0411 -0.1109
20107W        W63098  18.120  31.814  15.892 -0.2442 -0.0606  0.1154
20108W        W63099  18.111  24.585  22.918  0.0153 -0.0574 -0.2161
20109W        W63100  25.326   7.260  14.437  0.1840  0.0811 -0.1664
20110W        W63101   2.997  31.945  23.508  0.0518  0.0132 -0.1366
20111W        W63102  12.933   9.073  17.457 -0.5490 -0.0141 -0.1187
20112W        W63103  17.901   2.476  19.418  0.0201 -0.2794  0.0074
20113W        W63104   4.938  12.113  23.107 -0.3799 -0.3731  0.0640
20114W        W63105  11.865   1.692   6.897  0.0017  0.1256  0.0784
20115W        W63106  21.207  27.406  18.648  0.5158  0.0382 -0.1138
20116W        W63107   4.095   7.356  25.050  0.1620  0.1401 -0.1373
20117W        W63108  12.921   1.363  18.611 -0.0592  0.3025 -0.0410
20118W        W63109   7.113  20.445  20.481 -0.0005 -0.0167  0.2624
20119W        W63110  12.247  16.640  18.283 -0.1067  0.0778  0.3095
20120W        W63111   9.492   9.714  27.537  0.2339 -0.2562 -0.1624
20121W        W63112  27.330   6.351  15.574  0.4065 -0.0332  0.0205
20122W        W63113  17.007   2.323  22.430 -0.1046 -0.0191  0.1801
20123W        W63114  18.340  31.722  21.615 -0.2919 -0.1533 -0.1877
20124W        W63115   5.389   6.603  16.799  0.1394  0.3418  0.1068
20125W        W63116   4.325  19.224  27.082 -0.2800  0.1244 -0.3634
20126W        W63117   6.948  33.603  17.525 -0.0611  0.0965 -0.3141
20127W        W63118  22.514  19.985  23.074 -0.1140 -0.3584  0.0162
20128W        W63119  16.210  28.292  18.362 -0.1688 -0.0684  0.2471
20129W        W63120   8.472   2.319  15.145  0.0244  0.4649  0.1791
20130W        W63121  26.808  10.744   0.101  0.0069 -0.2701  0.0081
20131W        W63122   5.454   3.967  18.626 -0.3474  0.0405 -0.0520
20132W        W63123  33.905   8.764  23.553  0.2425  0.2261 -0.1478
20133W        W63124  33.209  33.520  13.988 -0.0657  0.0908  0.1866
20134W        W63125  14.185   3.692  18.435 -0.0232 -0.2147 -0.1960
20135W        W63126   5.063  17.607  15.602  0.0892 -0.2360 -0.2620
20136W        W63127  31.789   6.211  17.066  0.0359  0.0432  0.0112
20137W        W63128  20.770   9.561  21.314 -0.1546  0.3267  0.1795
20138W        W63129  34.291   2.876  22.178  0.5070  0.1279  0.2103
20139W        W63130   9.191  10.503  22.483 -0.1916  0.0161 -0.2813
20140W        W63131  11.378   5.145  17.347  0.3369  0.0075  0.1131
20141W        W63132   7.324  33.760  18.734 -0.0806 -0.0377  0.3400
20142W        W63133   7.675   4.495  21.715 -0.0546  0.2388  0.2358
20143W        W63134  11.747  33.320  24.113  0.2129  0.1706 -0.0198
20144W        W63135  21.587  30.870  20.620 -0.0637 -0.2315  0.1963
20145W        W63136  28.588   1.990  15.357  0.1904 -0.2460 -0.0869
20146W        W63137   1.644  25.873  15.368 -0.4132 -0.1864  0.0588
20147W        W63138  15.816   6.347  16.726 -0.1179 -0.3348 -0.1155
20148W        W63139   7.096  14.892   8.942 -0.4956 -0.0068 -0.1276
20149W        W63140  20.153   0.732  16.288  0.2079  0.0895 -0.0832
20150W        W63141   8.593   9.450  16.374 -0.1624  0.2766  0.0127
20151W        W63142  18.606  30.124  23.755 -0.2782  0.3081 -0.3423
20152W        W63143   9.705   3.903  20.483 -0.0107  0.0983  0.0237
20153W        W63144   9.690   6.192  21.358  0.0669  0.3596 -0.0232
20154W        W63145  10.874  10.661  28.018 -0.3577  0.2791  0.0247
20155W        W63146  33.032   1.632  25.513 -0.3692  0.0031 -0.0388
20156W        W63147   3.036  20.458   0.571  0.1293  0.2606  0.2498
20157W        W63148  27.424   0.698  16.839  0.3209 -0.1247  0.1867
20158W        W63149   9.064  23.599  13.874 -0.0403 -0.0237  0.0741
20159W        W63150  13.259  30.208  21.409  0.3052 -0.1513 -0.0276
20160W        W63151  34.791  10.481  21.836 -0.1032 -0.0758 -0.2914
20161W        W63152   7.695   7.060  20.988  0.1821 -0.1961  0.0823
20162W        W63153   5.850  11.618  25.431 -0.0076 -0.1555  0.2848
20163W        W63154   6.813   4.548  15.640 -0.0605  0.0068  0.0332
20164W        W63155  18.463   2.991  23.396 -0.0952  0.0175  0.3542
20165W        W63156  21.766  22.275   0.428  0.1385 -0.0525 -0.2647
20166W        W63157   7.980  13.758   7.593  0.1999 -0.1769  0.1683
20167W        W63158  32.948  25.127   3.826  0.1292  0.3138  0.1221
20168W        W63159   9.812  11.316  15.573 -0.0289  0.1135  0.1667
20169W        W63160   0.669   8.692  21.205  0.0895  0.1585 -0.1702
20170W        W63161  15.808   5.634  15.594 -0.2822 -0.0687  0.2678
20171W        W63162  21.909  34.648  22.470  0.1759  0.1658  0.1179
20172W        W63163  29.919  14.911  15.399  0.1570 -0.0460 -0.0227
20173W        W63164  32.632   5.641   4.692 -0.0967 -0.0588  0.0635
20174W        W63165   4.649  11.900  19.949  0.2582  0.2185  0.1711
20175W        W63166   5.275  29.789  22.912  0.0847 -0.3280 -0.1645
20176W        W63167  26.709  25.078  22.534 -0.0937  0.3303  0.0513
20177W        W63168  14.958  13.695  18.546  0.3565  0.1944 -0.1728
20178W        W63169  32.924  21.620  24.956  0.0078  0.2439 -0.0164
20179W        W63170   3.141  31.525  25.996 -0.0328 -0.0491  0.3036
20180W        W63171   8.172  14.923  19.101  0.2615 -0.2973 -0.0710
20181W        W63172   5.538   1.819   1.649 -0.1768  0.1959 -0.0834
20182W        W63173  17.685   3.697  23.482 -0.0019  0.2640 -0.1171
20183W        W63174   2.975  28.491  23.742 -0.1176  0.1668  0.1503
20184W        W63175  25.494   3.294  18.396 -0.2204  0.1533 -0.1221
20185W        W63176  31.691   9.782  20.033 -0.3776  0.1103  0.3097
20186W        W63177   0.731   6.040  21.173 -0.1871 -0.2044 -0.0911
20187W        W63178  15.576   9.308  21.857  0.1473 -0.0860  0.0614
20188W        W63179   6.848   0.100  25.419  0.0920  0.2789  0.1271
20189W        W63180  19.564   1.586  28.587  0.0336  0.1870  0.0233
20190W        W63181  34.066  34.302  19.010  0.0631 -0.0836 -0.1203
20191W        W63182   9.121  23.188  21.280  0.0230  0.3227 -0.0174
20192W        W63183  30.738   7.520  23.155 -0.1705  0.0301 -0.3260
20193W        W63184   2.190   0.810  18.508 -0.3834 -0.0563 -0.0256
20194W        W63185  29.795  30.637  18.891 -0.3134 -0.1439  0.0266
20195W        W63186  31.735  23.452  18.983  0.0373 -0.2292  0.0581
20196W        W63187  25.858  15.274  19.356  0.0291 -0.1985 -0.1347
20197W        W63188   5.220  31.369  22.757  0.2681  0.3004 -0.0569
20198W        W63189  34.434   7.458  25.156 -0.3876  0.1927  0.0377
20199W        W63190  34.781   0.579  21.388  0.1710 -0.0100  0.1085
20200W        W63191  33.630  18.473  18.266  0.0562 -0.0124  0.1495
20201W        W63192  31.686   2.957   3.630  0.1568  0.2152  0.1940
20202W        W63193  33.787   2.495  13.807  0.0630  0.0540 -0.3429
20203W        W63194   8.732   2.834  22.475  0.0948 -0.1735  0.1464
20204W        W63195   3.369   6.996  25.329  0.1120 -0.0097  0.1369
20205W        W63196  14.500  31.688  14.479 -0.1184  0.0538  0.1582
20206W        W63197   6.291   4.276  22.260  0.1634 -0.0422  0.1490
20207W        W63198  25.273   0.072   4.905  0.0814 -0.0253 -0.2126
20208W        W63199   0.924  24.421  14.971  0.2317 -0.2125  0.1167
20209W        W63200  31.229   6.821  26.535 -0.2334  0.0110 -0.0813
20210W        W63201  30.762   3.318  15.393  0.0005  0.2696 -0.1340
20211W        W63202  31.128  31.465  26.664  0.0241  0.0757  0.0893
20212W        W63203  19.004   4.629   6.463 -0.3389  0.1778  0.0527
20213W        W63204  30.324   8.391  26.156  0.0662  0.3380  0.0379
20214W        W63205  32.072  13.449  19.372  0.2032 -0.3224  0.0093
20215W        W63206  23.982  21.040  16.122 -0.2923 -0.3461  0.0339
20216W        W63207  30.828   3.523  21.373  0.1213  0.0590  0.0766
20217W        W63208  24.716   6.556  17.421  0.1490  0.3093  0.3183
20218W        W63209  14.437   3.102  17.943  0.0119 -0.0579  0.1989
20219W        W63210   4.800  34.124  23.964 -0.2580  0.4743 -0.0716
20220W        W63211  17.693  31.303  26.747 -0.1291  0.1412  0.0676
20221W        W63212   1.852  33.788  18.342 -0.0954  0.0649 -0.0787
20222W        W63213  17.291  31.736  27.919 -0.0145 -0.1454 -0.1027
20223W        W63214  23.815  32.190  23.494 -0.3254 -0.3358 -0.1169
20224W        W63215  15.010   1.357  22.049 -0.0894  0.1730  0.1120
20225W        W63216  34.454   9.946   0.387  0.3274 -0.1456  0.0356
20226W        W63217   3.500  33.558  19.647  0.0112 -0.2264  0.1746
20227W        W63218  11.799  26.078  20.124  0.1068  0.0475  0.4012
20228W        W63219   0.204  32.145  14.539  0.2274 -0.0842 -0.0480
20229W        W63220  13.912  16.827  28.384 -0.0623  0.2218  0.0135
20230W        W63221   8.929   7.330  26.981 -0.0872  0.2714  0.3032
20231W        W63222  21.071  32.769  16.758  0.1806 -0.0987  0.1352
20232W        W63223   1.722  24.938  15.445 -0.0481 -0.3729 -0.1078
20233W        W63224  34.305  15.261  27.910 -0.0403 -0.1579 -0.0329
20234W        W63225  10.718  24.149  15.282 -0.2153  0.0558 -0.2419
20235W        W63226  30.065  19.451  29.062 -0.3133  0.4253 -0.0647
20236W        W63227  22.122  33.149  26.602 -0.2378  0.0200 -0.0454
20237W        W63228   4.598   3.595  20.167  0.0887 -0.0381  0.4793
20238W        W63229   9.938   4.653  24.714 -0.3867 -0.1339  0.2252
20239W        W63230  32.842  32.554  18.162 -0.1195  0.0536 -0.0704
20240W        W63231   3.405  10.231  20.751 -0.1047 -0.3008  0.1857
20241W        W63232  17.895   6.088  22.523  0.2051  0.1403 -0.0141
20242W        W63233  15.498  13.333   7.528  0.2294  0.0226 -0.0905
20243W        W63234   1.496  17.349  16.133  0.0562 -0.2372  0.1617
20244W        W63235   5.935  10.495  23.369  0.0838 -0.1812  0.1628
20245W        W63236  32.330  14.715   5.383 -0.2465  0.1359 -0.0135
20246W        W63237   7.957  32.997   1.186  0.0839 -0.0266 -0.0992
20247W        W63238   5.161  13.720  21.108  0.2357 -0.3866 -0.0142
20248W        W63239   9.951   7.685  16.446  0.0157 -0.4688  0.2347
20249W        W63240  33.653  30.550  25.550  0.4197 -0.0570  0.2818
20250W        W63241  25.140   2.340  14.649  0.1021  0.0015  0.0317
20251W        W63242   1.265  20.789  25.900 -0.0304 -0.3665  0.2048
20252W        W63243  15.967   6.708  20.510  0.3746  0.0258 -0.0440
20253W        W63244   3.641   9.570  16.582  0.0995  0.1009 -0.0601
20254W        W63245   6.354  23.568  25.100  0.1519  0.1472 -0.0655
20255W        W63246   1.373  27.696  28.083  0.0055  0.0333 -0.2167
20256W        W63247   2.641  15.953   0.884  0.0156  0.0652 -0.0914
20257W        W63248   6.759  11.509  23.282  0.1456 -0.5715  0.1470
20258W        W63249   6.818  18.376  25.580 -0.3639 -0.1256 -0.0096
20259W        W63250  29.173  13.239  23.542 -0.1052  0.1441 -0.1579
20260W        W63251  25.916   1.600   2.111 -0.2037 -0.1216  0.0190
20261W        W63252  11.426   0.966  17.999 -0.1328 -0.0500 -0.3497
20262W        W63253  34.725   8.495  20.552  0.1763 -0.1976  0.1619
20263W        W63254   5.559  31.707  17.468 -0.2345  0.2744 -0.3832
20264W        W63255  32.812   7.371   2.469  0.2225 -0.1857  0.0489
20265W        W63256   6.940  32.122   0.649 -0.4226  0.1929  0.3782
20266W        W63257  17.809  27.446   6.594  0.1742 -0.1173 -0.2386
20267W        W63258  32.305   4.645  20.672  0.1800  0.0342 -0.0333
20268W        W63259   1.360   7.657  21.562 -0.0451  0.2151 -0.4741
20269W        W63260   1.855  10.391  25.949  0.1861 -0.2307  0.0194
20270W        W63261  17.579   1.642  25.141  0.1912  0.0742  0.0106
20271W        W63262  32.082   4.083  22.380  0.1537 -0.1391 -0.0142
20272W        W63263  18.065   0.614  21.052  0.1238 -0.3287 -0.1127
20273W        W63264  15.133  31.461   6.368  0.0191  0.1144  0.0510
20274W        W63265   3.999  31.025  28.327  0.0272  0.3086  0.0486
20275W        W63266  13.132  23.133   6.448  0.0821  0.0164  0.0665
20276W        W63267  12.509  15.087  26.232 -0.0315  0.0753  0.0599
20277W        W63268   1.924   3.169  15.330 -0.4264 -0.1610 -0.2015
20278W        W63269  30.043  33.079  23.898  0.0726 -0.1398  0.0105
20279W        W63270   9.254  22.120   2.554  0.1225  0.2547 -0.4043
20280W        W63271  29.025   1.356  17.673  0.0788  0.0736 -0.0639
20281W        W63272   6.175  20.453  19.109  0.1262 -0.2061 -0.2789
20282W        W63273   8.445   3.965  16.893  0.0271  0.1586  0.4093
20283W        W63274  14.932   6.864  21.727 -0.1018 -0.0386  0.1332
20284W        W63275   5.715  32.317   8.271  0.0714  0.0759 -0.0125
20285W        W63276  12.699   8.247  17.273 -0.0970  0.0531  0.3157
20286W        W63277  12.701  28.686  17.826 -0.0798  0.1090 -0.2302
20287W        W63278  10.413  33.201  18.814  0.0602  0.3126 -0.0790
20288W        W63279   7.058  32.689  16.132  0.1032  0.0723  0.3811
20289W        W63280   8.209  30.966  23.449 -0.1932 -0.1000 -0.0754
20290W        W63281  29.177   3.569  19.286  0.1791  0.1354 -0.1341
20291W        W63282   4.994  21.653  17.744 -0.3280  0.1256  0.0469
20292W        W63283  27.594  15.990   2.117 -0.0398 -0.0394 -0.1218
20293W        W63284  31.386   1.733  19.852  0.1927 -0.2702  0.0419
20294W        W63285   7.445   7.552  18.132  0.0757  0.2002 -0.0858
20295W        W63286  25.318  25.979  13.717  0.1796 -0.2154  0.2071
20296W        W63287  30.394  22.340  19.655  0.0229 -0.3461 -0.0180
20297W        W63288  12.303  33.674  23.579  0.0714  0.1238  0.2211
20298W        W63289  17.238  28.347  22.722  0.0119  0.0419 -0.0872
20299W        W63290  29.105  12.404  24.944 -0.0342  0.0206 -0.1943
20300W        W63291   3.029  11.736  24.105 -0.0202  0.3161  0.0488
20301W        W63292  27.593  11.170  20.367  0.1003 -0.1997 -0.0750
20302W        W63293   7.958   7.645  24.972  0.1802 -0.1262 -0.1630
20303W        W63294  16.628   3.577  27.349 -0.0052 -0.0967  0.2095
20304W        W63295  31.507   5.020  14.989  0.1167  0.0307 -0.0832
20305W        W63296  12.457  32.212  26.825 -0.0497  0.1757  0.0109
20306W        W63297  20.673  30.631  18.220 -0.3027 -0.2068  0.0936
20307W        W63298  13.868  34.693   3.113 -0.1623  0.0211  0.1409
20308W        W63299  12.223  26.409  22.189  0.1062  0.2929 -0.1175
20309W        W63300  22.789  30.874  26.499 -0.1043 -0.0609  0.1164
20310W        W63301   4.726   1.728  28.031  0.0137  0.0379 -0.5736
20311W        W63302  23.879   5.662  20.959  0.2111  0.0415 -0.1180
20312W        W63303  11.827  11.550  14.344 -0.0609 -0.0223 -0.1712
20313W        W63304  22.752  26.053  25.428 -0.0748  0.0122  0.0123
20314W        W63305   0.858   8.091   0.446  0.2596  0.0664 -0.3959
20315W        W63306  15.769  31.937  17.962 -0.0327 -0.1055  0.3226
20316W        W63307   2.595  14.944  21.598 -0.0263 -0.0438 -0.3839
20317W        W63308  21.197  28.909  14.887  0.0384  0.0906 -0.0771
20318W        W63309  15.176  22.607  19.284  0.0009 -0.0133  0.1252
20319W        W63310  27.628   2.376  22.542 -0.1947 -0.2327 -0.0557
20320W        W63311  16.688   2.453  22.870  0.1649  0.1423  0.0223
20321W        W63312   8.534  19.032  25.904 -0.1277  0.0115 -0.1765
20322W        W63313  23.558   7.873  23.501 -0.1175  0.1570  0.2811
20323W        W63314  13.804   5.475  27.258  0.1408 -0.1633 -0.1711
20324W        W63315   0.928   3.183  18.030 -0.2562 -0.2603 -0.0916
20325W        W63316  19.000  15.647   4.919  0.2756 -0.0990 -0.1921
20326W        W63317   4.450  12.850  19.570 -0.0576 -0.2784 -0.2345
20327W        W63318   4.949   5.696  24.472  0.0581 -0.5286  0.1112
20328W        W63319  26.418  30.554  12.697 -0.0549  0.2072  0.1173
20329W        W63320   2.613  19.457  17.301  0.1015 -0.3367  0.2261
20330W        W63321  32.678  30.980  18.053 -0.3481 -0.1069  0.2124
20331W        W63322  33.780   5.694  19.866 -0.2065  0.0962  0.1032
20332W        W63323   5.491   1.113  23.725  0.1912  0.2716 -0.0101
20333W        W63324   3.181   7.394  25.591 -0.4628 -0.2041  0.0504
20334W        W63325   5.459   5.976  16.499 -0.2718 -0.1163 -0.0492
20335W        W63326   5.329  28.234   4.181 -0.0973  0.3153  0.2209
20336W        W63327  17.360   7.200  20.912  0.0416  0.0250 -0.0294
20337W        W63328   8.280   7.962  18.434  0.1668 -0.0991 -0.2028
20338W        W63329   7.193   6.610   7.747 -0.1505 -0.1320  0.1758
20339W        W63330   5.388   3.080  15.867 -0.1223  0.1224  0.1464
20340W        W63331  29.847   1.372  28.607 -0.1073  0.4309  0.1739
20341W        W63332   1.033  30.508  20.766 -0.1817  0.2603 -0.1050
20342W        W63333  13.901   3.293  24.983 -0.0798 -0.0972  0.0117
20343W        W63334   9.838  20.652  20.661 -0.3955 -0.0363  0.0738
20344W        W63335   1.489  32.534  23.092 -0.1171  0.3663 -0.2840
20345W        W63336  10.988   1.546  16.610  0.2991 -0.1360  0.0085
20346W        W63337  22.475  24.326  25.951 -0.0485 -0.0089  0.0093
20347W        W63338  15.817  16.894  27.917  0.2881 -0.0944 -0.1002
20348W        W63339  24.767  11.942  20.540 -0.0415 -0.0914 -0.0787
20349W        W63340   9.126   6.105  24.379  0.1541  0.0469  0.0259
20350W        W63341  28.051  26.908  15.484  0.2355  0.1111 -0.1113
20351W        W63342  14.699  33.449  25.046  0.1091 -0.0835  0.0541
20352W        W63343   1.768   6.344  17.930  0.0685  0.0939 -0.0253
20353W        W63344   5.440  24.011  19.420  0.2036  0.0832 -0.0112
20354W        W63345  33.227  24.639  15.526  0.1176 -0.1757 -0.0830
20355W        W63346   5.203  29.451  23.532 -0.1722  0.2446  0.3464
20356W        W63347   8.929  30.444  24.804  0.0429 -0.2860  0.1427
20357W        W63348   1.319  31.254  19.635  0.0430  0.0333  0.1925
20358W        W63349  34.460  34.680  15.169  0.0502 -0.1503 -0.0529
20359W        W63350   4.298   5.684  21.608  0.3315  0.0859  0.4571
20360W        W63351  20.452   3.672  14.981  0.0124  0.0924  0.1011
20361W        W63352  34.451  16.434  17.408  0.0533 -0.0963  0.2876
20362W        W63353   7.838  28.340   6.010 -0.0053  0.1922  0.2035
20363W        W63354  22.551  27.641  24.689 -0.0352  0.0311 -0.1631
20364W        W63355   8.732   2.183   3.214  0.2293  0.2928 -0.1793
20365W        W63356  34.206  31.850  15.118  0.0175 -0.1665 -0.1251
20366W        W63357   8.578  18.117  15.457  0.0513 -0.4720 -0.0467
20367W        W63358   1.037   8.502  18.853 -0.1510  0.2875  0.0428
20368W        W63359  29.751   3.877   3.198  0.0126 -0.1693 -0.2252
20369W        W63360  18.956  28.529  17.203 -0.0587 -0.0176 -0.3175
20370W        W63361   0.308   8.859   3.658 -0.1207  0.0675 -0.2988
20371W        W63362   8.931  34.265  27.654 -0.0180 -0.0728  0.1189
20372W        W63363  33.635   3.185   3.821 -0.2487 -0.0409  0.0594
20373W        W63364  24.258  26.838  21.571 -0.3563 -0.0970  0.1385
20374W        W63365   6.484   0.904  16.268  0.2462  0.1088  0.0569
20375W        W63366  34.626   4.556  16.619  0.1702  0.1933  0.2960
20376W        W63367   1.924  29.512  24.488  0.3310 -0.3735  0.2889
20377W        W63368  34.519   0.195  21.613  0.4672 -0.2267  0.0170
20378W        W63369  27.829  30.898  23.046  0.1090  0.0384  0.1707
20379W        W63370   1.954  29.888  20.490 -0.2909 -0.1801  0.0175
20380W        W63371   5.344  10.724  22.780  0.4088  0.0275  0.2346
20381W        W63372  12.027  13.043  15.972 -0.0736 -0.1127  0.0615
20382W        W63373  18.906   2.913  23.116 -0.1329 -0.4007  0.0879
20383W        W63374  10.974   5.833  17.835  0.0547 -0.4399 -0.0088
20384W        W63375   5.722   7.432  27.185  0.2764 -0.3525  0.1751
20385W        W63376  31.204  12.942  20.413  0.2003  0.1552 -0.0789
20386W        W63377   2.183  10.143  17.094 -0.0394 -0.4020  0.0486
20387W        W63378  32.415   7.684  22.346  0.0330 -0.0149  0.1279
20388W        W63379  19.298   8.324  18.171  0.0592 -0.2013 -0.3252
20389W        W63380   1.691   8.286  26.745  0.2328 -0.2288  0.0336
20390W        W63381  11.925  12.521  18.698 -0.1821 -0.1192 -0.1712
20391W        W63382   2.155  30.648  15.396  0.3470  0.1419  0.1022
20392W        W63383  12.432   1.573  28.090  0.0025 -0.0816 -0.3212
20393W        W63384  13.835  23.644  15.034  0.3948  0.0226 -0.0305
20394W        W63385   3.070   5.677   8.092 -0.0341 -0.0392  0.0740
20395W        W63386  13.118   3.289  28.365  0.1170  0.1954 -0.2265
20396W        W63387   6.870   0.588  25.194  0.2011  0.2510  0.0107
20397W        W63388  24.318   5.045  16.142 -0.0252 -0.0495  0.0754
20398W        W63389  11.949  16.238  20.436 -0.0893 -0.1763  0.0219
20399W        W63390  19.168   0.236  19.105  0.0015  0.1763  0.2682
20400W        W63391   4.094   7.653  25.594  0.1301 -0.1638 -0.1086
20401W        W63392  27.459  14.624  22.379 -0.1271  0.0564 -0.0119
20402W        W63393  34.046  34.499  28.068 -0.0699  0.0305  0.2075
20403W        W63394  10.024  13.560  17.268 -0.0637  0.3826 -0.3122
20404W        W63395  19.992   3.316  21.769  0.1203 -0.2845  0.1146
20405W        W63396   5.217   8.032  24.554 -0.0634 -0.5777  0.1839
20406W        W63397  28.448  24.958  13.907  0.3199 -0.1228  0.0342
20407W        W63398   5.174   6.580  15.457 -0.3129  0.1218  0.1276
20408W        W63399  24.304   2.612  25.158  0.3482 -0.2050 -0.2183
20409W        W63400  31.151   1.372  22.069 -0.1763 -0.2322 -0.2524
20410W        W63401   1.174  32.771  16.188  0.1289  0.0645  0.3418
20411W        W63402  14.164  33.143  19.239  0.1278  0.1309 -0.5528
20412W        W63403   1.647  34.139  23.149  0.0091  0.0257 -0.0424
20413W        W63404  10.146  29.570  17.164  0.2958 -0.0609 -0.2931
20414W        W63405  29.935   0.877  17.173 -0.0160 -0.1727 -0.0992
20415W        W63406  14.910  30.616  18.079  0.0310 -0.0715  0.1683
20416W        W63407   1.739  31.240   9.093  0.2231 -0.1815  0.1563
20417W        W63408  28.856   6.345  27.209 -0.1140 -0.2690 -0.3479
20418W        W63409   1.997   1.067  20.484  0.1302  0.2435  0.0072
20419W        W63410   5.777   9.076   3.056  0.0070 -0.0339 -0.2492
20420W        W63411   4.774   8.903  20.718  0.0056 -0.2865 -0.2197
20421W        W63412  17.314  25.165  16.381 -0.0734  0.0413 -0.0870
20422W        W63413  34.713   5.710  23.607  0.0864 -0.3863 -0.0866
20423W        W63414  23.757  34.132  14.338 -0.3651  0.0784 -0.0061
20424W        W63415   7.602  23.966  16.723  0.0159  0.2175 -0.1254
20425W        W63416   4.515   8.209  25.835  0.2733 -0.0986 -0.1761
20426W        W63417  22.331   0.135   1.111  0.2875  0.0403 -0.0270
20427W        W63418   4.200   3.289  17.902 -0.2107 -0.1319  0.5713
20428W        W63419   8.660  17.595  15.742 -0.0148  0.1194  0.1980
20429W        W63420   3.336   0.608  23.544 -0.2973 -0.4616 -0.2246
20430W        W63421  28.646  12.621   8.692 -0.0003 -0.2345 -0.2538
20431W        W63422   3.331   0.145  17.774  0.0377  0.0871 -0.0099
20432W        W63423  20.997   3.395  17.325 -0.0186 -0.0192  0.1770
20433W        W63424  16.818  27.103   4.960 -0.3499 -0.1272  0.0612
20434W        W63425   7.440  16.060   9.259  0.0654  0.0643  0.2000
20435W        W63426   0.161  22.220  19.289 -0.2369 -0.0909  0.1521
20436W        W63427   1.194   1.288  23.836 -0.2434 -0.0222 -0.2301
20437W        W63428  12.021  32.700  21.539 -0.1159 -0.1809 -0.2045
20438W        W63429  22.659  18.584  20.261  0.1636  0.1777 -0.1366
20439W        W63430  10.096   3.336  21.860  0.3272  0.2003 -0.1426
20440W        W63431  14.407  33.726  15.837  0.2109 -0.3609  0.0548
20441W        W63432   6.644  15.660  24.742 -0.0107  0.2007  0.0602
20442W        W63433   4.533   9.653  26.516  0.2418 -0.0765  0.0519
20443W        W63434  33.279  29.231  14.487 -0.2079 -0.0156 -0.0665
20444W        W63435   1.780  25.683  16.286  0.3623  0.1621 -0.2532
20445W        W63436  16.705  26.013  26.854 -0.2074 -0.3975  0.0818
20446W        W63437  10.208   2.019  26.495 -0.2549  0.0977 -0.0049
20447W        W63438   4.107  34.250  19.867  0.3524  0.0611  0.0118
20448W        W63439  32.286  14.105  18.201 -0.0010 -0.1699  0.0820
20449W        W63440   9.817   1.839  16.334 -0.1203 -0.0896 -0.0658
20450W        W63441  25.357   3.270   3.807 -0.0133  0.1072 -0.0792
20451W        W63442  32.073   0.678  22.267 -0.1745 -0.1717 -0.1246
20452W        W63443   7.357  19.042  16.905  0.0603 -0.2636 -0.4859
20453W        W63444   4.551  10.090  28.671  0.1807  0.1982  0.0716
20454W        W63445  32.690  22.715  17.288 -0.0638  0.1499 -0.1798
20455W        W63446   2.452  12.103   2.281 -0.0568  0.0477  0.1965
20456W        W63447  30.347   8.918  18.390 -0.1904  0.0028 -0.3249
20457W        W63448  21.695   4.570  22.529  0.0804 -0.0894 -0.0127
20458W        W63449  19.359   8.794  21.172 -0.0397  0.0773  0.1317
20459W        W63450   1.574  10.433  21.281 -0.0520  0.1142  0.1870
20460W        W63451  22.663  34.198   7.156 -0.0926 -0.0200 -0.3378
20461W        W63452  11.504  25.273  16.514 -0.1212  0.0009  0.0321
20462W        W63453  23.279  21.136  22.679 -0.0578 -0.1494 -0.1489
20463W        W63454  27.528  10.961  22.061 -0.0742  0.2143 -0.1808
20464W        W63455  33.693  28.487  17.065 -0.1090 -0.0785  0.0959
20465W        W63456  13.736  34.406   2.324 -0.3277  0.0974 -0.2040
20466W        W63457  20.578  34.220  16.122  0.1749 -0.1120 -0.1495
20467W        W63458  33.411  29.446  15.754  0.0106 -0.0067 -0.4351
20468W        W63459   2.416  32.323  21.086  0.2736 -0.0268  0.2094
20469W        W63460   8.917   5.685  27.729 -0.0259  0.3154  0.0113
20470W        W63461  17.887  32.011  25.449  0.0887  0.1034 -0.3784
20471W        W63462  14.506  30.992  23.069 -0.0270 -0.0028  0.0772
20472W        W63463   4.334  21.126   4.706 -0.0321 -0.1900  0.2684
20473W        W63464  19.380   4.016   3.842 -0.0434  0.1979 -0.2292
20474W        W63465  11.025  29.161  19.955  0.0329 -0.0373  0.5213
20475W        W63466   9.357  29.195  18.070  0.0751  0.0129  0.0567
20476W        W63467   4.653   1.582  14.809  0.0387 -0.0396  0.0662
20477W        W63468  31.016  29.596  23.973  0.1513  0.1417  0.0109
20478W        W63469   0.797  28.267  16.705 -0.0526  0.0887  0.0035
20479W        W63470   9.685   2.853  23.722 -0.0701 -0.3042  0.1099
20480W        W63471  11.163  23.673   4.969  0.2508  0.2837 -0.1441
20481W        W63472  30.862  17.319  19.174 -0.1623  0.0560  0.0793
20482W        W63473  24.885  34.101  15.500  0.1584  0.1288 -0.2409
20483W        W63474  30.479  11.176  29.072 -0.2529 -0.0448  0.3161
20484W        W63475  28.820  24.438  24.467 -0.0126 -0.0721  0.0057
20485W        W63476  12.494   1.811  17.632 -0.0571 -0.0473  0.0519
20486W        W63477   2.122  32.513  27.685 -0.0126  0.0232 -0.1170
20487W        W63478  18.947  27.208  16.229  0.0673  0.0617 -0.3898
20488W        W63479   7.337   4.532  10.470 -0.1180  0.2170  0.1879
20489W        W63480  10.431   0.163  15.145  0.2682  0.0388 -0.1843
20490W        W63481   1.959  32.411   4.106 -0.0876  0.1676  0.1213
20491W        W63482  33.541  10.630   1.578  0.0899  0.0986  0.2876
20492W        W63483  20.652  24.906  17.049 -0.1223  0.0710  0.2371
20493W        W63484   4.899   2.216  21.509  0.1708 -0.1139 -0.2309
20494W        W63485   5.435  31.041  19.588  0.0077 -0.0720 -0.3977
20495W        W63486  14.252  14.745  14.526 -0.0740  0.2578  0.2522
20496W        W63487   0.083  21.793  18.947  0.0268 -0.1480 -0.1792
20497W        W63488  19.933   0.237  22.459 -0.2609 -0.2497  0.2530
20498W        W63489  27.434   6.258  17.291  0.0357 -0.4310  0.0219
20499W        W63490  23.497  15.782   1.358  0.2323 -0.1032 -0.1874
20500W        W63491  33.892  16.686  26.916 -0.0787  0.1688 -0.1258
20501W        W63492  25.891  31.240  26.944 -0.0239  0.0549 -0.2440
20502W        W63493   0.790   8.263  21.725  0.1995 -0.0755  0.4234
20503W        W63494  15.778  33.792  20.884 -0.5175  0.0507 -0.2120
20504W        W63495   5.287  30.620  16.642  0.0488  0.3050  0.1600
20505W        W63496  12.938  11.891  18.395  0.0966 -0.0021  0.1261
20506W        W63497  30.837  25.980  23.643 -0.3055 -0.0147  0.0245
20507W        W63498  30.292   3.440   2.560 -0.2256  0.1857  0.1277
20508W        W63499  12.288   4.587  15.346  0.2333 -0.2344  0.0925
20509W        W63500  22.218  17.440  27.637  0.0066 -0.0991 -0.1447
20510W        W63501  25.453  10.288  23.411  0.2643  0.3528  0.2437
20511W        W63502  30.900  27.049  13.311 -0.1508 -0.0291  0.1689
20512W        W63503   7.313  29.630  20.662  0.0256 -0.3000  0.2636
20513W        W63504  16.555  32.292  19.370 -0.0242 -0.0648 -0.1684
20514W        W63505   8.177   1.263  23.748 -0.0325  0.1185 -0.2193
20515W        W63506   0.720  19.449  19.023 -0.2553  0.1578  0.5295
20516W        W63507  12.346  28.590  17.480  0.3257 -0.1341 -0.1840
20517W        W63508  11.319   8.657  20.380 -0.2676  0.2152 -0.1801
20518W        W63509   1.716   4.455  15.329 -0.2344 -0.1315 -0.2876
20519W        W63510  10.703   5.914  26.646 -0.1482 -0.2210 -0.4227
20520W        W63511  18.248  33.136  29.240 -0.2169  0.2137 -0.1199
20521W        W63512   0.868  34.085  19.708 -0.1032  0.1284  0.1503
20522W        W63513  12.741  19.408  25.669 -0.1739 -0.1398  0.0691
20523W        W63514   4.733   1.016  18.353  0.0843  0.0266 -0.1319
20524W        W63515  21.229  24.938   8.431 -0.1581  0.2401  0.2249
20525W        W63516   4.279   0.243  19.387 -0.0239 -0.0555 -0.0969
20526W        W63517   3.245   2.360  21.803  0.0182  0.0229  0.0635
20527W        W63518  12.883   4.548  24.588 -0.0664 -0.1086 -0.4078
20528W        W63519  24.490  10.771  25.281  0.0749 -0.1587 -0.3119
20529W        W63520   3.613  23.297  14.613 -0.0765 -0.1038  0.0966
20530W        W63521  26.715   1.249  29.019  0.0012 -0.0993 -0.2916
20531W        W63522  28.819  34.603  17.153  0.0026 -0.1009 -0.0821
20532W        W63523   4.504   8.670  24.153 -0.0024 -0.0817  0.1462
20533W        W63524  24.278   8.308  13.884 -0.2579  0.5702  0.1997
20534W        W63525  26.940   5.824  23.131  0.1383 -0.2004  0.2429
20535W        W63526  34.525  10.443   3.448  0.4431 -0.0934 -0.1663
20536W        W63527   3.574   9.126  19.572 -0.0838  0.0373 -0.2482
20537W        W63528  18.598  34.140  29.076  0.0113 -0.0595  0.2111
20538W        W63529  14.761  31.606  15.313  0.3083  0.1161  0.1805
20539W        W63530   8.351  10.989  19.029  0.1959 -0.2332  0.2960
20540W        W63531   2.108  29.730   4.497  0.2494  0.3386  0.0450
20541W        W63532   0.995  33.539  15.496  0.4457 -0.1555 -0.1047
20542W        W63533   8.289   2.971  21.434  0.2718 -0.1781 -0.0665
20543W        W63534   7.308   5.198  15.117  0.2153 -0.1576 -0.0822
20544W        W63535   2.211  26.107  13.400 -0.4196 -0.2452  0.0267
20545W        W63536   5.076  29.688  22.078  0.3757 -0.2357  0.2588
20546W        W63537  25.425  27.282   1.467  0.0026 -0.0721  0.2701
20547W        W63538  15.535  21.895  20.743  0.1234 -0.2523  0.0030
20548W        W63539  34.670  20.431  21.346  0.0552 -0.1163  0.1098
20549W        W63540  18.256   2.753  19.205 -0.1488 -0.0614 -0.2695
20550W        W63541  13.545  26.944  20.382  0.1257  0.1034  0.1935
20551W        W63542  24.407  22.102   5.052 -0.0045  0.0713 -0.0538
20552W        W63543   7.041  25.057  17.633  0.3145  0.1408 -0.0825
20553W        W63544  19.821   4.878  15.364 -0.0961 -0.2180 -0.0172
20554W        W63545   8.364   3.508  19.805  0.0433 -0.0905 -0.3451
20555W        W63546  32.440  28.210  25.870  0.1205 -0.0661  0.1823
20556W        W63547  30.620   9.048  24.333  0.5650  0.0540 -0.2379
20557W        W63548   8.525  33.874   0.535  0.1327  0.1685 -0.1283
20558W        W63549   8.200   3.674  23.060  0.1474 -0.0952 -0.3652
20559W        W63550  31.815  23.692  14.316 -0.0783  0.0184 -0.1742
20560W        W63551  10.338  34.146   8.475 -0.1781  0.2244  0.0152
20561W        W63552  14.216   1.387  21.729  0.0988  0.2196  0.0514
20562W        W63553  11.396   3.122  20.598  0.2426  0.0468  0.1155
20563W        W63554  18.787  27.259  18.309 -0.0244  0.1434 -0.0829
20564W        W63555   9.904  23.284  17.387 -0.0327 -0.0541 -0.2358
20565W        W63556  29.365  22.728  22.145 -0.0359 -0.0313  0.1578
20566W        W63557  12.154  20.123   5.641 -0.1209  0.3444 -0.1605
20567W        W63558  31.394  32.546  18.815 -0.0370  0.0783  0.1007
20568W        W63559  12.216  33.522   4.172  0.4323  0.0375  0.2813
20569W        W63560   0.676  13.272  27.010  0.1547 -0.0549 -0.3161
20570W        W63561   0.943  33.372  19.382  0.0239 -0.1032 -0.2702
20571W        W63562  20.647   8.496  19.956  0.1712  0.2424  0.0239
20572W        W63563   2.042  26.579  25.054 -0.2058  0.0757 -0.5666
20573W        W63564  22.757  27.733  18.490  0.0633 -0.0374  0.1361
20574W        W63565  12.861  30.746  22.136 -0.0595  0.2723 -0.1492
20575W        W63566   3.393   8.885  23.254 -0.0596 -0.1586 -0.1477
20576W        W63567   7.888   0.525  20.584  0.1931 -0.0079  0.0198
20577W        W63568  23.551   1.171   8.389 -0.0914  0.1108  0.0329
20578W        W63569  32.427  16.107  23.630  0.1854 -0.2433  0.1542
20579W        W63570  11.463  25.135  26.989 -0.2499  0.1954  0.1187
20580W        W63571   6.644   6.209   6.877  0.1391  0.0922  0.1529
20581W        W63572   5.986   9.709  18.799 -0.1709  0.0449 -0.0527
20582W        W63573  15.239  25.631  18.069 -0.0882  0.0033  0.0811
20583W        W63574  28.451  28.871   2.700 -0.3089 -0.1675  0.0524
20584W        W63575   4.809  26.686  16.170  0.0708  0.1571 -0.1594
20585W        W63576  13.681  24.220  14.228 -0.0417  0.2132 -0.0708
20586W        W63577  11.193  34.504   0.574 -0.4081  0.0565 -0.0138
20587W        W63578  21.841  15.061  18.197 -0.0206 -0.0997  0.0718
20588W        W63579  13.508   6.325   0.718 -0.1445  0.0981  0.2273
20589W        W63580  32.738   2.620  20.671  0.0953  0.3184 -0.0885
20590W        W63581   0.787   0.491  15.891  0.1739 -0.0150  0.2350
20591W        W63582   2.815  28.229  24.088 -0.0428  0.0326  0.2094
20592W        W63583  25.181  15.509  17.420  0.0769  0.0401  0.0881
20593W        W63584   7.908   0.635  27.622  0.1876  0.1067 -0.0369
20594W        W63585  34.505  27.496  17.764 -0.0225  0.1402 -0.0501
20595W        W63586  30.958   8.847  29.061 -0.0196  0.2056  0.0151
20596W        W63587  10.112  29.377  21.694 -0.3715 -0.2266 -0.0607
20597W        W63588  32.110  11.637  10.722  0.0587 -0.1703  0.1073
20598W        W63589  34.680  33.059  15.300  0.0241  0.2503 -0.0259
20599W        W63590  12.243   2.880  24.755  0.2872  0.0045 -0.0435
20600W        W63591  11.950  28.986  28.082  0.0482 -0.1052  0.0901
20601W        W63592  10.957  28.168  28.381 -0.0828  0.0198  0.0105
20602W        W63593   6.075  30.462  25.525 -0.1786  0.0322 -0.3355
20603W        W63594  10.689   2.915  25.484  0.0175 -0.1684  0.0585
20604W        W63595   0.465   5.947  29.195 -0.0917  0.0874 -0.0058
20605W        W63596  27.930  12.178  15.949  0.0152 -0.0864 -0.1845
20606W        W63597  28.827  31.195  26.009  0.0490  0.0698 -0.0649
20607W        W63598  10.722  14.541  20.684  0.2074  0.0368 -0.0521
20608W        W63599   5.251   5.353  20.581 -0.0067 -0.1504  0.0937
20609W        W63600   1.844   9.136  20.855 -0.0123  0.0205  0.0382
20610W        W63601   3.775   8.144  20.278  0.2719  0.1782 -0.5981
20611W        W63602   0.765  23.941  19.846 -0.0566 -0.1800  0.0093
20612W        W63603  24.649   4.333  13.576 -0.2081 -0.0555  0.2322
20613W        W63604   8.209   1.411  28.713 -0.2348  0.1367  0.0951
20614W        W63605  18.918   7.069  17.108 -0.0177 -0.1867  0.0992
20615W        W63606   0.112  34.420   3.815  0.2879  0.1513 -0.0073
20616W        W63607  16.192  34.478  18.743  0.1799  0.0188 -0.0249
20617W        W63608  13.048  29.871  23.997  0.1059  0.3937  0.0413
20618W        W63609   2.650  29.563  25.474 -0.0726  0.0936 -0.2868
20619W        W63610  32.038  10.780  16.924 -0.1553  0.1962 -0.0602
20620W        W63611   2.022  33.105  14.937  0.2402  0.1319 -0.3099
20621W        W63612  27.058  13.664  18.009  0.0805  0.2926  0.1288
20622W        W63613  26.344  20.725  20.474 -0.0656  0.1226  0.0130
20623W        W63614  34.593   3.648  24.178 -0.0944  0.1272 -0.0638
20624W        W63615   7.593  32.992   2.321 -0.1143 -0.0831 -0.1473
20625W        W63616  15.173  10.654  15.042 -0.2152 -0.1298  0.0030
20626W        W63617  18.488   7.234  18.934  0.0985  0.0805  0.0880
20627W        W63618  27.964  31.199  29.251  0.0773  0.0585  0.0480
20628W        W63619   4.134   4.022  27.067  0.1790  0.1680  0.4230
20629W        W63620  20.833   2.162  16.147 -0.1426 -0.1965 -0.0284
20630W        W63621  34.425   1.987  14.559 -0.1005 -0.2721  0.1790
20631W        W63622  11.914   2.228  22.143 -0.0804  0.1217  0.2549
20632W        W63623   9.614  26.842  18.583  0.1635  0.1808  0.3013
20633W        W63624  30.975   5.609   0.452 -0.2824  0.0114  0.1457
20634W        W63625   5.599  20.133  24.531  0.1094  0.2235 -0.0277
20635W        W63626   0.720  19.425   5.641  0.2063 -0.0581  0.3547
20636W        W63627  21.873  33.961   8.776 -0.0982  0.1019 -0.0164
20637W        W63628   6.766  20.096  17.502 -0.2169 -0.2713 -0.2341
20638W        W63629  12.064  32.346   6.024  0.0340  0.1917  0.1341
20639W        W63630  26.440  11.003  15.186 -0.0190 -0.0263 -0.1838
20640W        W63631  25.114   5.654  18.874  0.2169  0.1965 -0.2171
20641W        W63632  24.254   1.624  19.470 -0.0134  0.0991 -0.1352
20642W        W63633  13.645  13.781  29.089 -0.1351  0.0329 -0.0579
20643W        W63634  34.439   5.712  15.554  0.1409 -0.0948 -0.0405
20644W        W63635   2.323   8.572   5.652  0.1799 -0.2135 -0.0365
20645W        W63636   8.665  20.591  22.923  0.1848 -0.1448  0.1004
20646W        W63637  17.486   7.532  17.374 -0.0615  0.1482 -0.1000
20647W        W63638   2.394   3.589  17.207  0.2828 -0.1132  0.1908
20648W        W63639   2.328  14.463  27.989 -0.0145  0.0554 -0.2038
20649W        W63640  13.603  16.427  23.681 -0.0982  0.0128  0.4100
20650W        W63641  12.857   4.246  16.122  0.0620 -0.0806 -0.1352
20651W        W63642  28.736   0.866  23.749  0.0191 -0.0243  0.0418
20652W        W63643   1.341   1.529   6.685  0.0808 -0.1640  0.3322
20653W        W63644   8.943  30.801  10.428 -0.0460  0.1608  0.4284
20654W        W63645  31.217   2.026  17.738  0.0839  0.0512  0.0136
20655W        W63646  12.242   1.008   0.427 -0.0120 -0.2191  0.1690
20656W        W63647  30.934  33.430  23.179 -0.2498 -0.0973 -0.1695
20657W        W63648  13.683   4.368  24.244  0.2193  0.0212 -0.3269
20658W        W63649   1.275  22.108   0.732  0.0299  0.0785 -0.0214
20659W        W63650  19.884  23.171  25.440 -0.0004  0.1160  0.0001
20660W        W63651  13.641  26.214  20.195  0.1262 -0.3881  0.5531
20661W        W63652  22.090   4.749   5.166 -0.1133 -0.0257 -0.1925
20662W        W63653  34.120   6.266  21.473 -0.1051  0.0266  0.0587
20663W        W63654  14.179  33.429  25.365  0.0776  0.3393  0.2582
20664W        W63655   8.783  23.959  22.065 -0.0470 -0.3785  0.0058
20665W        W63656  34.450  16.164  18.626 -0.1465 -0.1611 -0.0263
20666W        W63657   2.359   2.803  20.937 -0.1950 -0.0977  0.1761
20667W        W63658  17.191  23.964  13.900 -0.2012 -0.1218  0.1628
20668W        W63659  15.193   9.005  24.218  0.3076  0.1410  0.2318
20669W        W63660   7.969  26.423  16.918  0.0600  0.1096  0.1329
20670W        W63661  22.141   3.024  27.931  0.1129  0.2036  0.1816
20671W        W63662  18.816  33.603  18.093  0.0071  0.0862 -0.0847
20672W        W63663   6.009  11.700  20.478 -0.2471  0.3474  0.1877
20673W        W63664  16.312   4.000   6.084  0.1194  0.1799  0.4423
20674W        W63665  15.568   5.192  20.997  0.1565  0.1928 -0.3703
20675W        W63666  18.784  30.425   3.952  0.1371 -0.0476 -0.2999
20676W        W63667   9.922   1.686  17.666 -0.2873 -0.0705  0.1232
20677W        W63668  19.143   6.498  23.371 -0.1743 -0.2106  0.0290
20678W        W63669  29.451   9.644   0.128 -0.3501  0.0748  0.1392
20679W        W63670  34.788   4.545  26.868  0.2688 -0.1550 -0.1509
20680W        W63671   8.815   2.534  23.876  0.0903 -0.1861  0.0597
20681W        W63672   7.907  22.803  20.390  0.0968  0.0410  0.2280
20682W        W63673  15.229   2.370  21.351 -0.1072 -0.0628 -0.2067
20683W        W63674   8.798   1.662  15.571  0.1405  0.0995  0.0666
20684W        W63675   7.627  13.499  22.957  0.3596  0.1024 -0.0888
20685W        W63676   7.162   3.084  20.280 -0.1016 -0.0969 -0.1075
20686W        W63677  30.078  15.566  16.495 -0.0325  0.3427 -0.1254
20687W        W63678  32.362  31.967  24.042  0.1335 -0.1555  0.1449
20688W        W63679  21.322  26.129  13.747  0.0583  0.2676  0.5049
20689W        W63680   3.688  10.168  17.666  0.1060  0.4036  0.0857
20690W        W63681  31.489   0.757  14.292 -0.1422  0.1004 -0.1817
20691W        W63682  16.654   2.532  17.583 -0.1878  0.0351  0.0614
20692W        W63683   5.029  25.788  17.866  0.0267 -0.1490  0.0887
20693W        W63684  11.928   4.415   4.296 -0.0966 -0.3776 -0.0059
20694W        W63685   4.242  10.416  25.382 -0.0429 -0.0333  0.1254
20695W        W63686  33.094  22.581  16.907  0.2782  0.2179 -0.0794
20696W        W63687  29.807   0.013  18.677  0.0217 -0.0176 -0.1079
20697W        W63688   0.800  29.667   0.935  0.2085 -0.0297 -0.1389
20698W        W63689  19.840   1.802  23.075 -0.0062  0.0440  0.1748
20699W        W63690   3.988  19.963   4.609  0.0701  0.6449 -0.0395
20700W        W63691  18.950  20.580  19.119  0.0763  0.1857  0.0056
20701W        W63692   3.664  15.895  21.972  0.2803  0.0071  0.1237
20702W        W63693  15.692   7.255  18.887  0.0181 -0.3018 -0.3346
20703W        W63694   9.747  32.815  25.666  0.0078 -0.0922 -0.1806
20704W        W63695  17.811   6.643  18.818  0.0988 -0.1546 -0.1138
20705W        W63696  23.705  23.999  15.569  0.2826 -0.0652  0.0479
20706W        W63697  25.217   2.654  23.214 -0.2209  0.1022  0.0077
20707W        W63698  13.992  14.084  15.908  0.1718  0.2089 -0.2742
20708W        W63699  14.226  17.091  23.817 -0.0881  0.1509  0.2808
20709W        W63700  14.108  23.325   7.817  0.3371  0.1331  0.0108
20710W        W63701  20.439  21.646  17.101  0.1122  0.1368 -0.1773
20711W        W63702  34.634  25.818  28.274  0.0050 -0.0696 -0.1784
20712W        W63703  12.950  27.285  21.547 -0.1685 -0.0729  0.0880
20713W        W63704  32.705  32.590  15.661 -0.2305  0.1144 -0.0121
20714W        W63705  13.489  30.562  29.047  0.0960  0.3596  0.1855
20715W        W63706   5.833  24.830  19.966  0.0292  0.2919 -0.2794
20716W        W63707   0.011  31.127  24.194 -0.0578 -0.1013 -0.0482
20717W        W63708   7.477  27.937   3.015 -0.1960 -0.0271  0.2893
20718W        W63709   6.578  13.197  18.680  0.1682  0.1444  0.0142
20719W        W63710   3.781  28.944  17.153  0.0612  0.0718 -0.0576
20720W        W63711   4.167  12.738   8.154  0.0663 -0.0218  0.0487
20721W        W63712   9.000  30.954  17.259  0.2103 -0.2322  0.0625
20722W        W63713  23.988  27.099   8.219 -0.2747 -0.2553  0.2278
20723W        W63714   5.465  26.791  22.543 -0.1284  0.4578  0.1030
20724W        W63715  33.778   7.518  17.344  0.1703  0.0973  0.2235
20725W        W63716  33.022  33.154  17.199  0.0474 -0.3325  0.0158
20726W        W63717  12.108   2.868   1.106 -0.2943  0.0266  0.2112
20727W        W63718  10.454  33.526   7.476  0.0242 -0.1908 -0.0330
20728W        W63719   3.766   4.168   1.894 -0.1289  0.2629 -0.0551
20729W        W63720  33.468  10.765  24.391 -0.3341 -0.0976  0.0116
20730W        W63721  11.012  30.270  29.204 -0.0216  0.0597  0.0668
20731W        W63722  29.784   2.357  28.461  0.0571  0.0693 -0.4496
20732W        W63723  32.975   3.597   8.529 -0.3526  0.2615 -0.0035
20733W        W63724  14.390  24.321  16.935 -0.1961 -0.1334 -0.0523
20734W        W63725   4.330   9.223  26.158  0.0128 -0.2204  0.1915
20735W        W63726  17.215  34.081  28.590 -0.3493  0.2480  0.1258
20736W        W63727  32.451   9.025  16.094  0.1483 -0.0102  0.1290
20737W        W63728  18.269  32.125  19.353  0.0135 -0.1634 -0.1303
20738W        W63729  22.943   6.078  24.854 -0.0882  0.2806  0.1649
20739W        W63730   9.615   9.013   1.898 -0.2190 -0.3501 -0.2566
20740W        W63731  33.349  24.957   7.927 -0.5101  0.2173 -0.0310
20741W        W63732  27.269  18.619  25.711 -0.0423  0.1477  0.0196
20742W        W63733  21.990   1.382  14.241  0.0053 -0.1535 -0.2204
20743W        W63734  25.102  30.626  21.487  0.2238 -0.0158  0.3779
20744W        W63735   5.994  13.513   4.170 -0.1941 -0.0100  0.0971
20745W        W63736   9.142   0.732  24.320 -0.2919  0.3637 -0.0808
20746W        W63737  16.942  12.265  17.529 -0.0970 -0.0181  0.0990
20747W        W63738  20.480   9.681  13.880  0.1718  0.0565  0.3874
20748W        W63739   7.248  23.894  21.852 -0.2812 -0.1754  0.4366
20749W        W63740  31.145  11.448  19.681  0.0879  0.2326 -0.0535
20750W        W63741  10.558   7.616  20.582 -0.0282 -0.0210 -0.0282
20751W        W63742  31.766   2.611  16.763 -0.3437  0.1068  0.1870
20752W        W63743  23.853   6.049  25.975  0.3226 -0.2408  0.0375
20753W        W63744  31.874   7.778  22.752  0.2948 -0.0404 -0.1517
20754W        W63745   6.637   8.433  28.300  0.2901 -0.0795  0.1766
20755W        W63746  17.517  23.903   7.150 -0.3157 -0.0149  0.0766
20756W        W63747  29.529  32.818  22.130  0.0388  0.0776  0.4490
20757W        W63748   6.750  15.602  17.676 -0.3064  0.3459 -0.0940
20758W        W63749  30.315   8.762  27.375  0.2079 -0.3117 -0.0966
20759W        W63750   9.703  11.893  26.460  0.0591 -0.0277  0.0411
20760W        W63751   7.146  29.882  27.518  0.1649  0.2451 -0.0365
20761W        W63752  24.368   5.064  14.239  0.2305  0.0131 -0.1369
20762W        W63753  21.107  28.230  23.633  0.1924  0.0591 -0.5480
20763W        W63754  29.239  10.227  19.232  0.2054  0.0280 -0.1198
20764W        W63755  30.926   6.446  15.928 -0.0411  0.2155  0.4675
20765W        W63756  34.042  32.424  21.728 -0.2302 -0.0755 -0.1235
20766W        W63757  32.727  12.674  23.144  0.1706  0.1782 -0.2517
20767W        W63758  32.540   4.951   4.109  0.5487 -0.1226 -0.0189
20768W        W63759  21.098  27.663  22.270 -0.1460  0.0083 -0.1312
20769W        W63760   6.965  14.468  28.553  0.0372 -0.0526  0.1895
20770W        W63761   9.376   3.427  17.746 -0.0203  0.1373 -0.3234
20771W        W63762   6.096  32.979   5.469  0.0636  0.2845 -0.2748
20772W        W63763   5.289   2.793  19.710 -0.4274  0.1496 -0.0447
20773W        W63764  21.211  23.410  19.244 -0.1056 -0.0536  0.6698
20774W        W63765   9.388  15.407  17.314  0.2095  0.5312  0.2406
20775W        W63766  30.002  24.903  20.371 -0.1441 -0.0414 -0.0843
20776W        W63767  14.733  29.003   7.054 -0.0329 -0.0274  0.0468
20777W        W63768   3.921  34.108   8.769 -0.3956  0.0134 -0.2939
20778W        W63769  34.167   2.393   9.664  0.3952 -0.3226 -0.0386
20779W        W63770  12.586  33.141  22.787 -0.4487 -0.0087  0.0108
20780W        W63771   3.828  29.743   8.330 -0.0101  0.0458 -0.1925
20781W        W63772   3.872  33.823  25.608  0.2710  0.1858  0.2521
20782W        W63773  29.947  17.519  21.882 -0.0006  0.0851  0.0506
20783W        W63774   7.348  31.267   9.984 -0.3828  0.0391 -0.1213
20784W        W63775   8.260  32.446  17.899  0.1987  0.2369  0.1580
20785W        W63776  17.483  16.307  25.578  0.1256  0.0598  0.1967
20786W        W63777  34.026   1.057  18.683 -0.2183 -0.1963 -0.4859
20787W        W63778  11.462  20.183  24.400 -0.0281 -0.0755  0.0217
20788W        W63779  30.855  26.447  14.684 -0.3932  0.1882  0.1556
20789W        W63780  29.358   4.155  27.753  0.1564 -0.1104 -0.0992
20790W        W63781  31.233  15.724  20.402 -0.0250  0.3923  0.1017
20791W        W63782   9.215  30.753  26.235 -0.4606 -0.4757 -0.0458
20792W        W63783  13.271  32.642  27.143  0.2839 -0.0133  0.2226
20793W        W63784   6.679   3.494  23.371  0.2640 -0.0800  0.2160
20794W        W63785   1.853  11.989  29.195  0.0040 -0.0266 -0.1669
20795W        W63786  28.009   4.946  27.210 -0.1508  0.0022 -0.0276
20796W        W63787  34.020   5.061  16.005 -0.0872  0.0568  0.0361
20797W        W63788   1.106  13.664  21.452  0.1647  0.3247 -0.0259
20798W        W63789  32.344  16.532  20.359 -0.2582  0.0583 -0.1924
20799W        W63790  19.146  33.965   8.974  0.0371  0.2281  0.5055
20800W        W63791  14.769  27.807   3.997  0.0153  0.0830  0.0391
20801W        W63792  10.034  22.184  25.185  0.3304  0.2434 -0.1291
20802W        W63793   8.217  24.547  23.384 -0.2111  0.1199  0.0714
20803W        W63794   0.131  27.389  13.398 -0.1529 -0.0159 -0.3127
20804W        W63795  12.257  12.249  26.593  0.3138  0.1064  0.1545
20805W        W63796  24.931  27.047  28.680  0.4302 -0.1439  0.1733
20806W        W63797  30.525  29.200  25.129  0.1623 -0.0741  0.1773
20807W        W63798  26.739  27.009  17.020  0.0636 -0.0742 -0.0332
20808W        W63799  24.308   6.952  13.616 -0.0666 -0.0079 -0.0462
20809W        W63800   0.305   9.974   0.574 -0.0026  0.0937 -0.2541
20810W        W63801  13.572  24.790  19.863  0.0035 -0.0867  0.1814
20811W        W63802   0.347  34.120  19.675  0.4205  0.0699  0.0643
20812W        W63803   0.597  17.056  21.920  0.2224 -0.2658 -0.1979
20813W        W63804  10.355  33.096  20.876  0.1957 -0.0110  0.2156
20814W        W63805   6.463  16.150  17.639  0.0764 -0.0419 -0.0749
20815W        W63806  11.373  22.468  22.890  0.1387 -0.1048 -0.2869
20816W        W63807   3.119  18.519  21.352 -0.1705 -0.0450 -0.4388
20817W        W63808  21.913   6.842  21.353  0.1661 -0.2820 -0.1883
20818W        W63809  27.270   4.302  19.245  0.0113 -0.0951 -0.0111
20819W        W63810   3.233  22.711   3.150 -0.3387  0.0114 -0.0070
20820W        W63811  11.777   1.251  17.031  0.1993  0.2782 -0.1373
20821W        W63812   1.149  24.706   6.347 -0.2967 -0.1598 -0.2120
20822W        W63813  12.692  25.650   0.081  0.1427  0.3322  0.0365
20823W        W63814   4.753   1.504  19.613  0.2934 -0.0565 -0.0022
20824W        W63815  30.374   8.146  19.737  0.1532  0.2008  0.0285
20825W        W63816  14.152   0.760   0.304  0.0936 -0.0544 -0.0865
20826W        W63817  32.770  31.434   0.365  0.1058  0.0124  0.1565
20827W        W63818   4.162   4.825   5.696  0.3667 -0.1439  0.0477
20828W        W63819  28.390   5.905  13.673 -0.1345  0.2645  0.3147
20829W        W63820  17.292   5.998  17.486 -0.1069  0.0241 -0.1321
20830W        W63821   6.655  30.026  17.960 -0.1470 -0.0266 -0.2794
20831W        W63822  10.956   9.463  17.156 -0.1249  0.0056  0.0939
20832W        W63823   6.314  30.563   0.516  0.3890  0.3210  0.0198
20833W        W63824  33.179  13.728   5.326  0.1560  0.2677 -0.0478
20834W        W63825  13.390  29.561  19.252  0.0703 -0.3225 -0.1589
20835W        W63826  28.832   3.317  14.729  0.2200  0.0545 -0.0136
20836W        W63827  12.618  28.673  15.899  0.1606  0.3115 -0.2043
20837W        W63828  34.175  32.349  25.467  0.2714 -0.0580  0.3134
20838W        W63829   3.839  27.161  17.191 -0.4017 -0.0528 -0.0462
20839W        W63830  21.067  15.299  21.291 -0.0008  0.0413  0.2875
20840W        W63831  31.187  12.137  17.116  0.0128  0.0419  0.0534
20841W        W63832  21.320  10.048  27.232  0.0052 -0.0714 -0.0873
20842W        W63833  18.984  24.257  27.635  0.4080  0.1138 -0.1895
20843W        W63834  23.778   4.884  16.000 -0.1156 -0.2584 -0.1944
20844W        W63835   3.020   3.253  21.965 -0.3774 -0.0426 -0.2974
20845W        W63836  16.501   0.422  24.649  0.1600 -0.0302  0.1080
20846W        W63837  33.903   8.327  24.478  0.0045 -0.1770  0.1248
20847W        W63838  24.620  10.534   1.189  0.1303 -0.2162 -0.0417
20848W        W63839   6.099   4.350  23.797  0.4356  0.3400 -0.2104
20849W        W63840  10.048   4.727  28.227 -0.0753 -0.1843  0.0102
20850W        W63841  34.333  17.392   0.144 -0.3530 -0.4957 -0.1033
20851W        W63842  15.288  29.295  20.808 -0.2537 -0.1164 -0.3029
20852W        W63843   9.588   7.075  17.669 -0.1249 -0.0447  0.0054
20853W        W63844  30.200  26.828   0.203 -0.2231  0.3730  0.0692
20854W        W63845  29.699  29.218  24.168  0.0091  0.0018 -0.2614
20855W        W63846  12.037  17.590  25.747  0.0434 -0.3023 -0.3614
20856W        W63847  34.503  34.013  20.882  0.1444  0.0148  0.0167
20857W        W63848  26.795  34.327   4.311 -0.0878  0.2317 -0.0225
20858W        W63849   6.934  22.961  20.982  0.2486  0.0694 -0.1426
20859W        W63850  21.245   9.716  28.256  0.0594  0.0253 -0.0482
20860W        W63851   8.045  17.442  18.764  0.2237  0.0418  0.1910
20861W        W63852  21.546  18.985   1.004  0.1758  0.0487  0.2333
20862W        W63853  11.879   5.576  20.040  0.0783  0.1675 -0.2009
20863W        W63854   4.259  32.595  23.802 -0.1106  0.0362 -0.0203
20864W        W63855   8.152  29.399   2.422 -0.0519  0.2416 -0.2654
20865W        W63856   0.881  26.703  25.259 -0.4127  0.0623  0.2055
20866W        W63857  33.052   7.063  22.161 -0.1293  0.0949 -0.3787
20867W        W63858  12.707  10.419  24.985 -0.0685 -0.0342  0.0663
20868W        W63859   7.084  27.032  19.641  0.1510  0.1738 -0.1454
20869W        W63860  33.506  17.882  24.614 -0.1056 -0.3595  0.0036
20870W        W63861   4.392  33.352  23.783  0.2180  0.1757  0.2404
20871W        W63862  33.385  12.566   2.399  0.3358 -0.4209 -0.0960
20872W        W63863  17.843   6.789  28.695  0.0686 -0.0099  0.0902
20873W        W63864  15.923   2.107   1.597 -0.1541 -0.1671 -0.0342
20874W        W63865  27.468  11.675  20.539 -0.2518 -0.2901 -0.4294
20875W        W63866  25.853  15.381  17.586  0.1859 -0.1457  0.0716
20876W        W63867   2.532  11.202  25.018  0.1327  0.0260  0.0038
20877W        W63868  16.451  32.942   7.835 -0.0144  0.1406  0.1695
20878W        W63869  10.003  24.304  27.962  0.1067 -0.1350 -0.0650
20879W        W63870  12.030  29.912  15.764 -0.0475 -0.3202 -0.2721
20880W        W63871  32.460   6.390  17.351 -0.1017  0.0081  0.0476
20881W        W63872  24.643  25.890  17.809 -0.2119  0.1096  0.3977
20882W        W63873  14.564   9.428  25.455  0.0690  0.3328  0.0159
20883W        W63874  33.028  13.233  24.186  0.0790  0.1056  0.2108
20884W        W63875   1.040   3.418  23.459  0.0361  0.2018 -0.0396
20885W        W63876  18.686  24.961  17.713 -0.0876 -0.0064 -0.0185
20886W        W63877   3.515  23.298   1.396 -0.1337 -0.1995  0.0507
20887W        W63878  21.185  19.579  20.504 -0.0833  0.1461 -0.0500
20888W        W63879   0.806   4.242   2.832 -0.1284  0.2030 -0.0312
20889W        W63880  32.578  23.681  20.346 -0.1282  0.0642  0.1259
20890W        W63881   9.620   7.096  21.508  0.0287 -0.0215 -0.0285
20891W        W63882  34.569  24.172   4.422 -0.0713  0.1839  0.3589
20892W        W63883  19.193   6.627  22.296 -0.0229  0.0623 -0.1352
20893W        W63884   8.479  26.643  21.372  0.0244 -0.2175 -0.0928
20894W        W63885  12.971  32.808  25.718 -0.0269 -0.0460 -0.1980
20895W        W63886  14.939  32.468  27.103  0.0509 -0.0504  0.0994
20896W        W63887  23.230  29.922  23.155 -0.0028 -0.3959  0.4110
20897W        W63888   4.902  32.455   6.081 -0.1748  0.1589  0.0181
20898W        W63889   7.027   7.613  16.026 -0.1719 -0.0535  0.1274
20899W        W63890   3.320   0.646  20.790 -0.5182  0.1406 -0.2209
20900W        W63891   0.628   9.127   1.415  0.2178 -0.0787 -0.0275
20901W        W63892  12.280   0.753  24.655 -0.1919 -0.1255 -0.2367
20902W        W63893  13.409   4.632   5.607 -0.0361 -0.2188  0.0827
20903W        W63894  22.675  10.431   1.936  0.1541  0.1623 -0.2477
20904W        W63895  24.551  32.208   1.481  0.1568 -0.2111  0.0912
20905W        W63896  21.245  33.675  18.746 -0.5288 -0.2892  0.2289
20906W        W63897   5.767   5.033   1.820 -0.2644  0.2839 -0.5720
20907W        W63898  12.511  32.813  17.200  0.1620  0.2717  0.0628
20908W        W63899   5.826  27.748   9.602  0.5568  0.3122  0.1556
20909W        W63900  11.244   1.874   8.690 -0.1912 -0.1415 -0.2403
20910W        W63901   3.382   2.217  23.892  0.0995  0.2425 -0.1635
20911W        W63902  29.238  26.382  23.825 -0.1965 -0.0298  0.1614
20912W        W63903  25.002  33.458  26.451  0.2106  0.0289 -0.0590
20913W        W63904  12.262   2.853  29.131  0.2339 -0.1822 -0.1562
20914W        W63905   0.144  26.468  27.590 -0.0825 -0.1463 -0.0612
20915W        W63906   8.561   4.676   1.372  0.0502  0.2945 -0.0414
20916W        W63907  28.524  22.544  25.165 -0.0550  0.3474 -0.1064
20917W        W63908  21.283  11.442  16.171  0.2877  0.0179 -0.2545
20918W        W63909  27.184  28.093  15.968  0.0493 -0.1255  0.0281
20919W        W63910   7.765  24.668  21.258 -0.1199 -0.0528  0.3553
20920W        W63911   8.694  24.823  23.352 -0.2324  0.1310  0.0831
20921W        W63912   0.732  25.946  23.994  0.0248  0.2700 -0.0213
20922W        W63913   2.838   4.769   4.349 -0.0124  0.1361  0.2507
20923W        W63914  17.941  29.406   9.228 -0.2027  0.1770  0.0844
20924W        W63915   8.824  34.732   7.701 -0.3198  0.1750  0.0112
20925W        W63916  31.820  12.373   9.433 -0.1428 -0.0016  0.2113
20926W        W63917   8.442  20.176  15.149  0.1462  0.1418 -0.0222
20927W        W63918  14.800  10.963  15.577  0.3301  0.0569  0.1413
20928W        W63919  21.624  31.778   7.787 -0.0314  0.1761 -0.1957
20929W        W63920  14.513   7.048   9.951 -0.0553 -0.2600  0.4114
20930W        W63921   0.770  22.951  14.487 -0.0192 -0.0558 -0.1393
20931W        W63922   7.734   9.001  23.281 -0.3712  0.1209  0.1359
20932W        W63923  26.563  31.295  17.648  0.1653  0.1033  0.0555
20933W        W63924  29.285  32.638  19.370 -0.1807  0.4451  0.0791
20934W        W63925  29.591  33.696  19.571 -0.1343 -0.2234  0.0328
20935W        W63926  17.031  27.278  20.761  0.1689 -0.0259 -0.0633
20936W        W63927  15.919  30.400   2.538 -0.1154 -0.1288 -0.1468
20937W        W63928  25.178   7.829  21.352  0.1169 -0.2250 -0.0644
20938W        W63929   3.902  28.501  20.125  0.0397  0.6326 -0.1669
20939W        W63930  17.491  27.473  17.680  0.1035 -0.2353  0.2137
20940W        W63931  24.489  25.547  22.127 -0.3432 -0.0731 -0.1314
20941W        W63932  16.122   1.271  14.457 -0.0186 -0.0472 -0.0012
20942W        W63933   3.011  30.527  26.092  0.1704 -0.1776 -0.2402
20943W        W63934  13.230  31.252   9.329 -0.0937  0.1861  0.3221
20944W        W63935   8.832  21.938  16.081  0.1273  0.0372  0.0011
20945W        W63936  27.595  19.696   0.620  0.1827 -0.2766 -0.0617
20946W        W63937   0.014  29.925  23.730  0.0745 -0.0699  0.1987
20947W        W63938  17.060   3.346  20.811  0.0780 -0.1330  0.2843
20948W        W63939   6.430   0.129   2.722 -0.0083 -0.0237 -0.0467
20949W        W63940   0.122  31.573  14.541 -0.2082 -0.1209 -0.0970
20950W        W63941   9.542  27.249   7.766  0.0091  0.0143  0.1706
20951W        W63942   1.322  23.393  17.793  0.1214 -0.2349  0.1361
20952W        W63943   2.401  14.454  24.618 -0.4570  0.0649 -0.0702
20953W        W63944  32.865  13.429  22.524  0.1399  0.0380 -0.2555
20954W        W63945  10.092  14.936  19.390  0.0456  0.0747  0.0457
20955W        W63946   5.518  22.103  23.482 -0.1572 -0.1062  0.0979
20956W        W63947  30.019   6.233   7.536  0.0574  0.2086  0.0654
20957W        W63948  17.690   1.228   1.961 -0.1634 -0.4367  0.3965
20958W        W63949  18.202   0.974  25.536  0.2011  0.2166  0.2492
20959W        W63950  11.705  26.526  22.181  0.1311 -0.0396 -0.1826
20960W        W63951   7.648  33.048   5.903  0.1876 -0.1012  0.1696
20961W        W63952   0.858  32.100  28.412  0.0668  0.1373  0.2471
20962W        W63953   9.694  14.298  20.459  0.1180  0.1627  0.1229
20963W        W63954  25.903  34.781  29.175  0.1304 -0.1018 -0.2335
20964W        W63955  20.324  26.524   6.244  0.1448  0.0437  0.1372
20965W        W63956   4.559  11.463  20.268  0.1541  0.0899  0.0958
20966W        W63957   7.964   3.196  26.520  0.1434  0.0255 -0.0997
20967W        W63958   7.911  22.441  19.517  0.1257  0.0482 -0.3240
20968W        W63959  15.035  28.130   2.750 -0.1357  0.0442 -0.0661
20969W        W63960  27.871  31.422  15.146 -0.0323  0.0266  0.0667
20970W        W63961  28.470   4.631  21.881  0.0021  0.0310  0.0094
20971W        W63962   0.283   5.437  10.725  0.0399 -0.2112 -0.4035
20972W        W63963  15.135  22.434   6.629  0.2025 -0.0866  0.1001
20973W        W63964   9.419  30.905  21.789 -0.0157 -0.1169 -0.1334
20974W        W63965   7.473  17.990  28.055 -0.1529 -0.1277  0.2558
20975W        W63966  32.028   3.312   0.476  0.0730 -0.0080  0.2116
20976W        W63967   6.757   0.809  23.488  0.1051 -0.0046  0.1278
20977W        W63968  33.601   4.779  18.771 -0.0323 -0.2164  0.1047
20978W        W63969   6.403   8.999  23.519 -0.3516  0.0612 -0.0302
20979W        W63970   8.396  27.458  19.471  0.1036 -0.0324  0.0801
20980W        W63971  17.319   2.368   3.902  0.1106 -0.0248 -0.0370
20981W        W63972  23.434  32.016  19.434 -0.1612  0.1106 -0.3430
20982W        W63973   3.296  15.130  25.639  0.2414  0.3571 -0.1508
20983W        W63974   5.935  32.446   1.655 -0.1944  0.0265 -0.0652
20984W        W63975   1.363  30.908  14.865  0.0417 -0.1545 -0.2638
20985W        W63976  28.322  27.678  24.394 -0.0630 -0.1630  0.2204
20986W        W63977   5.310  13.222   1.025  0.3300  0.0387 -0.3132
20987W        W63978  16.613  11.540  14.541  0.0859  0.3066 -0.2542
20988W        W63979  29.148   8.314  20.446 -0.2974 -0.1242  0.2997
20989W        W63980  21.908  10.485  19.571 -0.1777 -0.0983 -0.0329
20990W        W63981  13.777   6.130  22.787  0.2672  0.0643 -0.0305
20991W        W63982   6.465  16.202  16.833  0.1583  0.0388  0.0098
20992W        W63983  33.484   4.960   4.664  0.0084  0.0149  0.1834
20993W        W63984   8.807   0.409   1.192 -0.1111 -0.1280 -0.3859
20994W        W63985   9.496   8.945  23.515 -0.1504  0.0531  0.3521
20995W        W63986  11.217  30.903  15.524 -0.0592 -0.0097 -0.1915
20996W        W63987   1.514   3.661  26.454 -0.0424 -0.1382  0.1619
20997W        W63988  14.039   4.534  15.054 -0.0834  0.0791  0.0413
20998W        W63989  34.358  32.778  16.090 -0.1184  0.2396  0.1059
20999W        W63990  13.924   4.422  18.750 -0.1508 -0.0559 -0.1214
21000W        W63991   3.030  34.128  15.891  0.3523  0.1703  0.1148
21001W        W63992  22.850  32.865  15.555  0.0893  0.2264 -0.1828
21002W        W63993   9.671   5.686  14.784  0.0378 -0.1789 -0.0426
21003W        W63994  12.910  30.977   0.875 -0.0099 -0.4394 -0.3424
21004W        W63995   4.118   1.107   4.076  0.0712 -0.1524 -0.2070
21005W        W63996  14.490   7.178  11.282 -0.2869 -0.0442 -0.2371
21006W        W63997   1.419  18.012   4.988 -0.2268  0.0006 -0.2415
21007W        W63998  17.265   4.341  16.617 -0.0299 -0.0481  0.0393
21008W        W63999   7.096  20.161   1.277 -0.1819 -0.0016 -0.0806
21009W        W64000   8.456  29.668  16.803  0.2720 -0.1063  0.1041
21010W        W64001  21.486  11.198   9.070 -0.2446 -0.0297 -0.0348
21011W        W64002   7.583  26.732  10.027 -0.2710 -0.3156  0.2217
21012W        W64003  20.252  10.111   8.281 -0.2554  0.2478 -0.1866
21013W        W64004   4.505  25.639  26.565 -0.0414 -0.2820 -0.1706
21014W        W64005  33.752  27.687  18.335  0.1321  0.1554 -0.2442
21015W        W64006   1.694  33.538  19.940 -0.0539 -0.3973  0.0708
21016W        W64007  18.354  23.637  27.300  0.0083  0.0857 -0.0309
21017W        W64008   0.324  30.850  20.440 -0.3188 -0.1471 -0.1271
21018W        W64009  19.414   0.236  22.503  0.1595 -0.2029  0.0881
21019W        W64010  11.274  29.727  17.304  0.1306 -0.1119 -0.0572
21020W        W64011   2.265  11.102  17.989  0.4419 -0.0020  0.0060
21021W        W64012   6.776  28.848   1.666  0.0791  0.1651  0.0974
21022W        W64013   3.610  27.621   9.805  0.0447  0.0556  0.0585
21023W        W64014  13.947   1.189  23.984  0.0823  0.0412 -0.2620
21024W        W64015   3.829   2.857   3.582  0.0889 -0.1464  0.0858
21025W        W64016  31.902  20.862  21.131  0.1089 -0.2824 -0.3225
21026W        W64017   1.624  30.647  24.121  0.1043  0.0267 -0.4041
21027W        W64018  34.284  20.855  18.926  0.0269  0.0204  0.0040
21028W        W64019   7.505   9.686  16.646 -0.0744  0.0226 -0.0289
21029W        W64020   4.050  14.797  25.041 -0.4751 -0.0966 -0.0790
21030W        W64021  34.336   0.813  24.822  0.0148 -0.1921  0.0757
21031W        W64022  11.147  28.537  21.249  0.1176 -0.1140 -0.0483
21032W        W64023  10.773   7.176  20.405 -0.0814 -0.1290  0.1004
21033W        W64024  13.808  27.510   5.377  0.4922 -0.1482 -0.0798
21034W        W64025  19.990  16.886  26.647  0.2211  0.0787  0.3197
21035W        W64026  13.913  31.552  20.774 -0.1189  0.0394 -0.2643
21036W        W64027  10.111   7.058  22.399  0.0189  0.0900 -0.2182
21037W        W64028   0.216  11.062  16.540 -0.3645 -0.1282  0.0627
21038W        W64029  13.303  28.673  28.390  0.0598 -0.3243  0.0473
21039W        W64030   9.042  33.595  22.464 -0.0968 -0.0737  0.0950
21040W        W64031  13.866   1.222  22.539 -0.0593 -0.0326 -0.1579
21041W        W64032   7.351   3.201  16.296  0.1514 -0.0437  0.0758
21042W        W64033  30.811  32.307  27.037 -0.2096  0.1228 -0.0584
21043W        W64034   6.989  26.515  25.675 -0.1130  0.2464 -0.1787
21044W        W64035  10.691  33.661  21.151  0.1376 -0.2172 -0.1052
21045W        W64036  11.401  27.527   2.921  0.0250 -0.1546  0.0306
21046W        W64037  15.760  33.948  22.159  0.1237  0.2841  0.1396
21047W        W64038   4.779  19.337  20.204 -0.0646  0.2136  0.0090
21048W        W64039   4.771  29.594  27.934 -0.2033  0.2322 -0.1018
21049W        W64040  16.107  28.315  27.581  0.0698  0.1026  0.1158
21050W        W64041  10.123   2.534  17.550 -0.2125 -0.0890  0.0608
21051W        W64042  10.695  21.553   5.942  0.0073 -0.1007  0.0341
21052W        W64043   5.203  15.480   8.168 -0.1463  0.0342  0.2553
21053W        W64044  34.582   8.883  22.433 -0.0037 -0.3264  0.0236
21054W        W64045  17.756  29.770  25.633 -0.2711 -0.1500 -0.1934
21055W        W64046   5.815   8.847  17.107 -0.1022  0.0730  0.0237
21056W        W64047  22.510   4.635  20.512  0.1882  0.2087  0.1126
21057W        W64048  26.488  24.320   1.165  0.3737 -0.0110 -0.0567
21058W        W64049  33.231  10.447  25.771  0.0100 -0.1436  0.2630
21059W        W64050  10.170   9.433  20.625  0.0538 -0.0398  0.1224
21060W        W64051   1.720   9.471  17.256  0.0169 -0.0819  0.0003
21061W        W64052  33.111  27.432   1.951  0.4384 -0.0969 -0.2561
21062W        W64053   2.856   5.125   0.610 -0.0546 -0.1078 -0.0356
21063W        W64054   1.706   8.296   3.101  0.0420 -0.2319 -0.0639
21064W        W64055   7.989   1.899   2.539  0.1199  0.3877  0.5206
21065W        W64056  18.712   8.345  17.995 -0.1085  0.3453  0.1293
21066W        W64057   8.893   8.292  23.746 -0.1400  0.0087 -0.0007
21067W        W64058   7.741  17.033  28.335 -0.3833 -0.0215 -0.0367
21068W        W64059  31.392  22.537  19.666  0.0463 -0.2581  0.0461
21069W        W64060  28.364  13.627  19.104  0.0390  0.2951  0.3296
21070W        W64061   1.032   4.465  26.694 -0.1221  0.0153  0.0775
21071W        W64062  17.006   3.031   0.316 -0.1090 -0.1989  0.0748
21072W        W64063  15.861  13.249  16.240 -0.1327  0.2594  0.2531
21073W        W64064  31.237  34.128   1.383 -0.0050  0.1138  0.1701
21074W        W64065   3.505  33.319  16.362  0.0356 -0.0265 -0.1462
21075W        W64066  32.963  18.430   5.041 -0.1654  0.1793 -0.0743
21076W        W64067  19.267  33.855  23.234 -0.2626 -0.2287  0.2591
21077W        W64068   9.533  31.623  24.168  0.0035  0.1697  0.0070
21078W        W64069   1.918   2.101  15.702  0.3307  0.0658 -0.1128
21079W        W64070   8.245  22.373  25.722 -0.0034 -0.4396 -0.3806
21080W        W64071  24.702   8.319   7.115 -0.0773 -0.1489  0.0387
21081W        W64072   3.531   4.493  25.932  0.0071  0.0804  0.0904
21082W        W64073  33.006   6.161   1.872 -0.0933  0.1771 -0.0383
21083W        W64074   2.258  24.742   1.838  0.2347 -0.0318  0.0234
21084W        W64075  22.828  31.060  27.941 -0.0287  0.3423 -0.0979
21085W        W64076   2.936  29.705  27.544 -0.0750 -0.0645 -0.2998
21086W        W64077   5.456   4.163  25.023  0.0228 -0.2132  0.1083
21087W        W64078   7.883  26.501   3.011  0.3405  0.0569  0.0736
21088W        W64079  17.212   6.276  24.453  0.1621  0.0578  0.0554
21089W        W64080  17.633   1.418  23.407  0.4289  0.0494 -0.3149
21090W        W64081   9.196  31.821  18.071  0.0731  0.2072  0.0152
21091W        W64082  24.450   5.828   5.108  0.1951  0.1342  0.0007
21092W        W64083  34.552  14.983  23.653  0.1149 -0.1369  0.2545
21093W        W64084  34.157  31.538  14.017  0.2643  0.3186  0.0821
21094W        W64085   7.640  25.139  20.383 -0.0167 -0.0549 -0.0161
21095W        W64086  12.712  30.158  15.331  0.0382 -0.0829  0.0865
21096W        W64087  14.774   5.525  10.900  0.2081 -0.0945  0.3403
21097W        W64088  33.695  21.966  24.134 -0.2383 -0.1891  0.0311
21098W        W64089  10.248   9.227   8.814  0.0380  0.0238  0.2386
21099W        W64090   7.519   8.333   9.384 -0.0227  0.1687  0.1956
21100W        W64091  30.875  27.274  17.751  0.2423 -0.0485  0.4162
21101W        W64092  22.099  29.503   2.395 -0.2987  0.2775  0.2899
21102W        W64093  32.517   0.347  16.426 -0.5566 -0.3438 -0.5032
21103W        W64094  18.992   4.331  15.007  0.0139 -0.0854 -0.1708
21104W        W64095  22.070  33.897  24.426 -0.3023 -0.3682  0.2734
21105W        W64096   4.630   2.588  23.917 -0.1172 -0.1389  0.0024
21106W        W64097  14.302  24.473  25.699 -0.0567  0.0695 -0.0016
21107W        W64098  32.144  18.960   4.147  0.2778 -0.0481  0.0828
21108W        W64099  17.681   1.702   6.672 -0.1489  0.3545 -0.0772
21109W        W64100   7.285  24.540  14.578  0.3460  0.1738 -0.2677
21110W        W64101  11.291  27.381  20.902 -0.1870 -0.0523  0.0610
21111W        W64102  33.479  11.186   4.756  0.0888 -0.0836  0.2364
21112W        W64103   7.394  29.825   7.273 -0.0009  0.1311 -0.0332
21113W        W64104   8.993  12.475   3.568 -0.1644 -0.0915  0.3414
21114W        W64105   3.695  15.594  10.725  0.0816  0.1033  0.0201
21115W        W64106   6.126   2.157   0.155  0.0693 -0.1280 -0.0075
21116W        W64107   1.156  28.986  26.053 -0.1010 -0.3445 -0.3224
21117W        W64108  10.749   2.946   8.433  0.2912  0.3496  0.3135
21118W        W64109  18.725  34.355   2.223  0.1605 -0.0269  0.0362
21119W        W64110  25.352   6.160   2.254  0.1150 -0.3159  0.2646
21120W        W64111  23.405  23.230  26.359  0.0842 -0.2344  0.1660
21121W        W64112   7.559   6.435   3.995 -0.0071 -0.0746  0.1079
21122W        W64113   1.488  13.293   6.925 -0.1816 -0.1295  0.2004
21123W        W64114  11.680   7.915   7.744 -0.1869 -0.1318  0.2344
21124W        W64115  11.422  31.137  27.635  0.2130  0.1546 -0.1821
21125W        W64116  19.072  14.356  20.756  0.1408 -0.1224 -0.1057
21126W        W64117   1.318   7.033   4.688 -0.0671 -0.1848 -0.1258
21127W        W64118   4.740  29.942  16.205  0.1458  0.0797 -0.1526
21128W        W64119   0.709   5.711  16.132  0.1333  0.1794  0.0554
21129W        W64120  29.083  34.129  15.814 -0.1873 -0.0000  0.1279
21130W        W64121   2.360  17.858   8.133 -0.1020 -0.0019 -0.0168
21131W        W64122  18.573  34.282   1.424 -0.0755  0.2296  0.0112
21132W        W64123   7.598  22.841  24.865 -0.0875  0.2156  0.0743
21133W        W64124   3.214  15.515   6.086  0.0728  0.0136  0.0948
21134W        W64125  32.352  27.791  14.982  0.2739 -0.1715 -0.1540
21135W        W64126  33.641  19.502  28.145 -0.2262  0.2293 -0.2657
21136W        W64127  13.594  21.094   7.084  0.0603  0.1226 -0.2823
21137W        W64128  13.261  32.181   1.419 -0.1452  0.0529  0.2919
21138W        W64129  15.837  17.302  26.603 -0.0799 -0.0592 -0.3987
21139W        W64130  18.121  29.994  24.158  0.1910 -0.1898 -0.0982
21140W        W64131  29.995   0.672   1.771  0.0810  0.0665 -0.2704
21141W        W64132  15.224  34.261   6.087 -0.2854 -0.0389 -0.2691
21142W        W64133  23.330   2.909   4.980 -0.3057 -0.2755  0.1483
21143W        W64134  11.970  33.147   8.559 -0.1437 -0.1550 -0.0297
21144W        W64135  21.740  25.310  27.211  0.0140  0.0187  0.0601
21145W        W64136  15.605  32.766   0.663 -0.2242  0.0532  0.0028
21146W        W64137  18.510  31.629  24.336 -0.2446  0.0128 -0.1009
21147W        W64138  24.145  29.124  23.750 -0.2370  0.1760  0.0565
21148W        W64139  18.534   7.123  25.376  0.1533  0.2262  0.1974
21149W        W64140   5.486  25.309   2.979 -0.1126 -0.0743 -0.0545
21150W        W64141  10.524  29.636   1.783  0.1333  0.1157  0.2765
21151W        W64142   0.837  33.322  25.982 -0.0870  0.1323 -0.1857
21152W        W64143   0.743   5.625  23.354  0.1501  0.1522  0.3085
21153W        W64144  10.899   5.201   3.085 -0.1553  0.1527  0.0216
21154W        W64145  22.624  30.993  23.477  0.2669 -0.3075 -0.0480
21155W        W64146   8.190  32.976  17.959 -0.1912  0.0637  0.1651
21156W        W64147   1.224   5.514  16.578  0.3455 -0.1735  0.1069
21157W        W64148  25.836   6.961  29.046 -0.0594  0.2667 -0.1065
21158W        W64149   7.198  15.978  19.325 -0.0437  0.0532 -0.0125
21159W        W64150  16.762  22.556   4.022  0.0785  0.2237  0.0145
21160W        W64151  13.269  11.082  22.261  0.1260  0.2206  0.1962
21161W        W64152  16.732  10.673   4.066 -0.1549 -0.1014 -0.2794
21162W        W64153   1.602   8.362  27.242 -0.1160 -0.1639  0.1039
21163W        W64154  10.753  27.371  20.877  0.0346  0.1564  0.1162
21164W        W64155  22.863   3.898  23.028  0.1157  0.3038 -0.1170
21165W        W64156  11.224   1.313  22.628 -0.0387 -0.3915 -0.2299
21166W        W64157   0.708   2.598  17.042  0.2164 -0.2662 -0.2020
21167W        W64158   1.533   5.831   2.728 -0.1501  0.5260  0.1910
21168W        W64159   9.752   6.467   5.365  0.3050 -0.3300 -0.1902
21169W        W64160  18.515  33.130   8.818 -0.0223  0.1685  0.0056
21170W        W64161  17.760  28.709   2.235 -0.0236  0.2192  0.0364
21171W        W64162   5.479   9.700   9.202 -0.3130 -0.1385  0.1341
21172W        W64163  19.915  29.169  20.016 -0.1287  0.2250 -0.0716
21173W        W64164  31.921   5.058   7.654  0.3133 -0.2847  0.1303
21174W        W64165  30.523   7.828  24.666 -0.0397 -0.0907 -0.0650
21175W        W64166  33.648  32.453   6.941 -0.0699 -0.0981  0.2725
21176W        W64167  33.415  19.802  22.388 -0.0632 -0.0814  0.1336
21177W        W64168  12.662  25.714   6.515 -0.5066 -0.3411  0.2156
21178W        W64169  15.735  30.990   1.022 -0.0583  0.0127 -0.3558
21179W        W64170  31.864  21.804  15.050 -0.0413  0.0034 -0.0327
21180W        W64171  21.392  10.180  25.151 -0.3517  0.0915  0.3849
21181W        W64172   7.284  12.834   6.503  0.1639  0.2676  0.2178
21182W        W64173  23.489  34.750  22.831  0.1676  0.4242 -0.3421
21183W        W64174   7.151  31.042   3.583 -0.0592  0.0183  0.2549
21184W        W64175   8.815  26.961  16.552 -0.1668 -0.3166 -0.1227
21185W        W64176   4.689  25.581  24.582 -0.2326 -0.1463  0.0350
21186W        W64177  27.674   7.107   2.794 -0.0655  0.0369  0.2204
21187W        W64178   8.215  10.856   5.053  0.1695  0.0588 -0.0759
21188W        W64179  26.436   3.380  25.519 -0.2084  0.0449  0.0631
21189W        W64180  19.961  24.335  24.308 -0.0992  0.0031 -0.0059
21190W        W64181  21.024  26.794   7.464  0.0576 -0.1919 -0.1314
21191W        W64182  16.036   4.799   2.363 -0.0217 -0.0931 -0.0703
21192W        W64183   8.750  15.639   8.904  0.0477 -0.1409 -0.0124
21193W        W64184  15.899   5.825  26.428 -0.0915 -0.0467 -0.0924
21194W        W64185  15.496   0.086  26.672 -0.1584  0.0933  0.3998
21195W        W64186  10.134   4.969  24.093  0.1349 -0.1803 -0.1497
21196W        W64187  10.032   2.774   2.282  0.0875 -0.3284  0.0990
21197W        W64188  28.073  14.839  25.464  0.0939 -0.0487  0.0619
21198W        W64189  20.149   4.576   2.043  0.0791 -0.1621 -0.0683
21199W        W64190   8.717  24.928  24.597 -0.0368  0.4506 -0.0278
21200W        W64191   7.078   7.740   5.062  0.0031  0.2220  0.3323
21201W        W64192  17.846  29.698  17.745  0.1967 -0.0367  0.0803
21202W        W64193   3.406  11.632   9.078 -0.2822 -0.1097  0.3459
21203W        W64194  18.737  16.423  27.641 -0.1375  0.1305  0.0467
21204W        W64195   3.513  30.059   9.959  0.0059  0.1224 -0.1120
21205W        W64196  21.523  34.435   5.983 -0.2070  0.0328  0.3648
21206W        W64197  29.342   1.919   2.912  0.2297 -0.3451 -0.0055
21207W        W64198   6.463  25.688   0.038 -0.2432  0.0823 -0.1239
21208W        W64199   1.055  32.310   7.346 -0.2079  0.0744 -0.2438
21209W        W64200  28.634   2.190  21.184 -0.0440  0.1747  0.0548
21210W        W64201   9.125  11.618   6.626  0.2583  0.3876  0.2064
21211W        W64202  10.828   0.995   4.958 -0.1222  0.2327 -0.1775
21212W        W64203   8.571  24.751  16.574 -0.1862 -0.2242  0.0379
21213W        W64204  31.143  34.208   9.544 -0.1835 -0.0668  0.2036
21214W        W64205  13.392  11.257   2.111  0.1429 -0.0521 -0.0597
21215W        W64206  14.579  25.094   3.474  0.8096 -0.1205 -0.1539
21216W        W64207  12.637  32.418  19.517  0.2981  0.1832  0.1128
21217W        W64208  21.571  14.932  19.039 -0.1067  0.2856 -0.0758
21218W        W64209  28.619   0.476  21.810 -0.1721 -0.0345  0.2213
21219W        W64210  21.749  21.510   5.029 -0.2644 -0.1829  0.2461
21220W        W64211  22.697  25.389  18.527 -0.1428  0.0101 -0.0054
21221W        W64212  33.635   9.263  16.866 -0.0172 -0.4267 -0.1470
21222W        W64213   4.950  29.493  28.849 -0.2434 -0.2234 -0.3911
21223W        W64214   0.740  12.546  20.159  0.1381  0.3842 -0.0579
21224W        W64215  17.489  29.246  24.867 -0.0860 -0.1210 -0.2192
21225W        W64216  24.396   6.996  27.963 -0.2190 -0.2217  0.0840
21226W        W64217  24.211  12.950  20.526 -0.5004 -0.2450 -0.3969
21227W        W64218   7.554  25.221   9.383  0.0559 -0.2170  0.0963
21228W        W64219   7.711  28.517  23.617 -0.4079  0.0963 -0.0459
21229W        W64220   7.253  12.232   1.573 -0.4078 -0.1715  0.3452
21230W        W64221   1.209   3.427  21.450 -0.1842  0.2199  0.1726
21231W        W64222   3.778  33.518   5.033 -0.0210 -0.3055 -0.4078
21232W        W64223   3.200  25.131   7.117  0.0754 -0.1868  0.1698
21233W        W64224  29.526  11.539  24.720 -0.1332 -0.2785 -0.1799
21234W        W64225   0.818   6.355   5.345 -0.0737  0.3748 -0.3672
21235W        W64226  16.308  20.664  29.224  0.2341  0.0532  0.3280
21236W        W64227   9.002   5.285   4.767  0.0674 -0.4363  0.4361
21237W        W64228   2.618  26.042   3.499  0.0023  0.2066 -0.1012
21238W        W64229  29.265   3.787   3.973  0.1761  0.1410  0.0509
21239W        W64230  10.792  32.569  16.123  0.2553  0.1495 -0.1346
21240W        W64231  11.213   6.946  20.827 -0.0699 -0.2415  0.1504
21241W        W64232   4.855  28.424  16.101 -0.0607 -0.1566  0.1193
21242W        W64233  29.593   8.845  28.172  0.1055 -0.1074  0.2959
21243W        W64234  13.799  28.503   6.012 -0.1375 -0.4394 -0.0047
21244W        W64235   7.665   2.433  20.066 -0.1909 -0.0577 -0.1754
21245W        W64236   4.736  31.239  15.043  0.0579 -0.1447 -0.0348
21246W        W64237  31.535  24.168  27.555  0.1316  0.1518 -0.0632
21247W        W64238  13.861  33.301   4.317 -0.0759 -0.2692 -0.1165
21248W        W64239   1.792   1.692   6.803  0.2627 -0.0008  0.1707
21249W        W64240   7.005  23.668  27.655 -0.4729 -0.1575  0.2327
21250W        W64241   7.459   0.988  20.028  0.1234 -0.0116 -0.2119
21251W        W64242  28.535  26.241  13.951  0.3295 -0.1180  0.1796
21252W        W64243  20.287   8.862   9.073 -0.0609 -0.0667  0.0349
21253W        W64244  15.374   0.210   5.390  0.1481 -0.0703 -0.2334
21254W        W64245   1.616  16.921   3.045 -0.0400  0.2454  0.0421
21255W        W64246   2.299  20.235   3.878 -0.0332 -0.0279  0.2317
21256W        W64247  25.551  30.085   0.856  0.0849 -0.0437  0.1975
21257W        W64248  12.690  33.271   4.222  0.2029  0.1827  0.0666
21258W        W64249   0.911   3.148  26.442 -0.0731  0.0086 -0.0983
21259W        W64250  11.106   8.579  17.889 -0.0487  0.0855  0.3182
21260W        W64251   8.270  25.034  24.220 -0.0207 -0.3574 -0.2197
21261W        W64252   3.663   7.813  10.037 -0.0980 -0.0626  0.1146
21262W        W64253   4.669  30.221  15.822  0.1250 -0.1330  0.0277
21263W        W64254  10.388   8.247  17.119 -0.3680 -0.1952 -0.3788
21264W        W64255   2.797  32.119  15.398  0.1612 -0.1676  0.0220
21265W        W64256   4.129  33.829   7.120 -0.0274  0.1590  0.0747
21266W        W64257  24.116   2.605   0.811 -0.0947 -0.3715  0.0163
21267W        W64258   9.211  26.682   5.865  0.1473  0.1814 -0.1745
21268W        W64259   3.977  29.882   6.555  0.1356 -0.2581  0.1320
21269W        W64260  14.262   1.502  26.303  0.0414  0.1971  0.1260
21270W        W64261  10.722  30.391  19.216 -0.0738 -0.1659 -0.0175
21271W        W64262  12.851   6.169   9.773 -0.2629  0.1842 -0.1253
21272W        W64263  19.400  26.780  26.191 -0.0223  0.2462  0.2966
21273W        W64264  19.069  14.224  17.499  0.0728 -0.0755 -0.1987
21274W        W64265   3.313   4.327  19.815  0.0069  0.0271 -0.0843
21275W        W64266  32.325  13.853   5.173 -0.0582 -0.0556 -0.0716
21276W        W64267   2.582  30.025   7.627  0.2940 -0.0173  0.3187
21277W        W64268  20.375   2.955  20.772 -0.4132 -0.0333 -0.2340
21278W        W64269  20.242   2.095   0.341  0.2358 -0.3931 -0.0144
21279W        W64270  14.093  22.527  26.889  0.0293 -0.0648 -0.0648
21280W        W64271  24.829  25.020  27.340 -0.2978  0.1174  0.2123
21281W        W64272   7.398   7.096  22.283  0.2286  0.2149 -0.5513
21282W        W64273  12.617   4.123   0.499 -0.2243  0.1447 -0.3018
21283W        W64274   6.394   8.374  21.134 -0.0057  0.1137  0.1156
21284W        W64275  14.647  33.776  24.250  0.1090  0.1649 -0.2325
21285W        W64276  11.805  34.741   7.743 -0.0615  0.0053  0.1300
21286W        W64277  17.547   5.538  29.200 -0.2130  0.1866  0.1302
21287W        W64278   6.839  12.468   9.880 -0.1229 -0.1977 -0.0945
21288W        W64279  32.892  21.960   6.011 -0.2988 -0.1807 -0.1733
21289W        W64280   4.108   1.846  23.816 -0.0096  0.0153  0.1954
21290W        W64281  22.045  15.192  26.896 -0.0522 -0.3339 -0.3844
21291W        W64282   0.297  20.557   0.969 -0.1394  0.0571  0.0750
21292W        W64283  13.827   8.845   8.451 -0.0475  0.1453 -0.2456
21293W        W64284   5.753   2.969   9.195  0.1082 -0.0926  0.2017
21294W        W64285  12.221  16.677   8.134 -0.0365 -0.4582 -0.0633
21295W        W64286  22.000  31.299  16.734  0.2160 -0.1474 -0.0654
21296W        W64287  26.615   3.078  24.894  0.2579 -0.0321 -0.0626
21297W        W64288  31.163   2.680  15.599  0.1960  0.0348  0.2725
21298W        W64289  17.893   4.313  14.752 -0.0035  0.0707  0.1595
21299W        W64290   7.252  32.402   7.705  0.0087  0.1551  0.4585
21300W        W64291   0.448  27.789  25.349  0.1840 -0.0819 -0.0639
21301W        W64292   3.372   3.912  18.650 -0.2106 -0.2547  0.1132
21302W        W64293   7.665   6.198  29.040  0.0030  0.1246 -0.1773
21303W        W64294   7.230  32.444  25.110 -0.3483 -0.0769 -0.3962
21304W        W64295  21.329  23.815   0.483 -0.2801 -0.1558 -0.2108
21305W        W64296  19.585   5.348   4.011 -0.1529 -0.2193  0.0351
21306W        W64297  32.611  33.869  26.111 -0.0680 -0.4697 -0.0917
21307W        W64298  27.236  26.498  15.204  0.0386 -0.1967 -0.0014
21308W        W64299  31.093   2.384  23.218 -0.1076 -0.1816 -0.1718
21309W        W64300  29.914  27.367  28.489 -0.2655 -0.1885 -0.0999
21310W        W64301   9.090   6.601  10.556 -0.0737 -0.0625 -0.0946
21311W        W64302   6.428  15.809  26.507 -0.2035 -0.0664 -0.0132
21312W        W64303   5.423  24.938   3.429 -0.0122  0.2353 -0.0923
21313W        W64304  32.513   5.496  24.720  0.2851 -0.2578  0.0286
21314W        W64305   1.592   7.560   1.221  0.0791  0.2854 -0.1741
21315W        W64306   8.334   8.179  23.713  0.2760  0.0060 -0.0182
21316W        W64307  26.685  34.219  20.029 -0.2801  0.2094  0.2117
21317W        W64308   5.122   6.934  22.485 -0.1064  0.2686 -0.3861
21318W        W64309   5.977  22.848  25.509 -0.3067 -0.0289 -0.2976
21319W        W64310  11.327   6.469  17.042  0.0743 -0.0365  0.2150
21320W        W64311   2.897   5.366   1.538  0.2069  0.0286  0.0128
21321W        W64312  34.782  32.613  15.035  0.1449 -0.0894  0.1115
21322W        W64313   4.996  33.644   7.206  0.0643 -0.1205 -0.2111
21323W        W64314   0.653  11.786   0.928  0.1790 -0.0328 -0.0737
21324W        W64315   0.721  23.272  14.053  0.2761 -0.1692 -0.0195
21325W        W64316  18.097  18.636  12.288  0.1083 -0.1085  0.1105
21326W        W64317   8.585  31.108  16.974  0.1058 -0.0421  0.3002
21327W        W64318  19.390  30.694  24.308  0.1437  0.4151 -0.0348
21328W        W64319   5.163   1.585   6.941  0.0304  0.0548  0.2496
21329W        W64320  11.432   1.304   2.124  0.0182  0.4825  0.1151
21330W        W64321  10.900   0.206   9.888 -0.5615 -0.0552  0.0702
21331W        W64322  15.805   0.531   1.733  0.0686 -0.0950 -0.0801
21332W        W64323  18.695  30.378  16.354 -0.0334 -0.0834  0.2512
21333W        W64324  33.996  21.147  20.582 -0.0203 -0.0019 -0.1391
21334W        W64325   2.048   2.655  23.214 -0.0799 -0.0354  0.0502
21335W        W64326  28.965   1.775  26.657 -0.0424 -0.0713 -0.0758
21336W        W64327   7.216  27.778   9.363 -0.0488 -0.0945 -0.2749
21337W        W64328  19.705  30.803  28.636  0.1187  0.2186  0.0773
21338W        W64329   0.068  11.501  28.680 -0.2246 -0.1004 -0.0926
21339W        W64330   0.103   2.731  25.673 -0.0923 -0.2679  0.1332
21340W        W64331  14.898   9.358   5.622 -0.0608  0.4219  0.2337
21341W        W64332  27.004  25.695  27.844 -0.1640  0.3155 -0.0861
21342W        W64333  25.847  14.201   7.379  0.1282  0.0259  0.0183
21343W        W64334   5.508   9.980  24.693  0.4953 -0.2322  0.0848
21344W        W64335   8.063   3.705  26.684 -0.3601  0.1559  0.1655
21345W        W64336  13.384  29.718   1.025  0.3703  0.0330 -0.0535
21346W        W64337  21.519  15.649  17.716 -0.0332  0.0118  0.0918
21347W        W64338  14.652  26.421  15.422  0.1802  0.2676  0.1814
21348W        W64339  29.732  33.048  15.648 -0.3116  0.0054 -0.0189
21349W        W64340   9.668  33.571  23.362  0.2457  0.2420  0.0805
21350W        W64341  20.776   8.433  28.232 -0.3552 -0.1135 -0.1530
21351W        W64342  29.811   2.989  19.898 -0.2810 -0.0028  0.0125
21352W        W64343  16.588  23.647  23.424  0.0381 -0.1155 -0.1855
21353W        W64344  19.936  33.451  26.451 -0.0033  0.1995 -0.5135
21354W        W64345  17.057   6.785  23.583  0.1039 -0.3633 -0.1996
21355W        W64346  28.373  18.852  23.141  0.1709  0.2554  0.1429
21356W        W64347   8.874  30.253  17.021 -0.0626  0.0085 -0.0504
21357W        W64348   6.040  29.945  24.925 -0.0134 -0.0974 -0.0709
21358W        W64349   9.515  12.268   4.610 -0.1874 -0.1180 -0.1173
21359W        W64350  25.323   7.602   2.150  0.0496  0.1140  0.2024
21360W        W64351   6.505   2.578  27.917 -0.0034  0.0493 -0.0044
21361W        W64352   4.460  10.260  19.282  0.0153  0.0113  0.0375
21362W        W64353  23.346   4.719   1.179  0.1888 -0.0820  0.1245
21363W        W64354  19.131  33.274   4.241 -0.0921  0.2719 -0.2042
21364W        W64355  34.392  17.719  20.546 -0.2332 -0.2505 -0.1407
21365W        W64356  10.900  28.902   2.981  0.1409 -0.0436  0.0543
21366W        W64357  24.499  24.612  15.713 -0.2978  0.0248  0.4037
21367W        W64358  10.504  21.650  28.766  0.0520 -0.3244  0.3032
21368W        W64359   9.018  31.718   1.132 -0.0964 -0.0936  0.3230
21369W        W64360  34.443  34.436  20.412 -0.2269  0.0850 -0.0375
21370W        W64361  20.186   6.616  28.764  0.4302 -0.2343 -0.1317
21371W        W64362   2.717  33.239  17.912 -0.0306 -0.0507 -0.0381
21372W        W64363  32.517  22.013  20.842 -0.0972 -0.0176 -0.0072
21373W        W64364  33.588  15.419  10.742  0.0230  0.1576 -0.3041
21374W        W64365  27.319   0.997  28.535  0.0740  0.3070  0.0704
21375W        W64366  21.101  31.842  21.545 -0.2301  0.0776 -0.5329
21376W        W64367   2.458  34.067  17.006  0.2617  0.2582  0.0889
21377W        W64368  10.494  24.935  18.953 -0.1123 -0.1853  0.0915
21378W        W64369  33.983   7.078  18.958  0.3687  0.2089  0.1234
21379W        W64370   1.595  26.668  27.484  0.0121 -0.0906 -0.1300
21380W        W64371  16.036  21.225  23.785 -0.1913 -0.0329  0.1570
21381W        W64372   5.465  25.622  28.601  0.0707  0.2583 -0.0479
21382W        W64373  10.407  29.711   9.986  0.1583 -0.2473  0.1838
21383W        W64374  11.837  33.391  19.986 -0.2421  0.1137 -0.0303
21384W        W64375  33.778  16.886  21.587  0.1222 -0.0346  0.4117
21385W        W64376  13.458   2.409  20.498 -0.0879 -0.1493 -0.0411
21386W        W64377   0.867  34.205   8.361  0.1658  0.1210 -0.2247
21387W        W64378  34.010  27.194   0.905 -0.3660  0.1425  0.0314
21388W        W64379  22.331   4.450  14.281 -0.0188 -0.1389  0.0362
21389W        W64380   1.026  16.062   3.944  0.2133  0.2791 -0.0473
21390W        W64381  10.814  11.911   9.840  0.1416  0.1297  0.0792
21391W        W64382  20.331  32.282  21.891 -0.1382 -0.3283  0.0851
21392W        W64383  20.777   9.686   9.489  0.1179  0.0020 -0.0635
21393W        W64384  13.146   4.717  24.207 -0.2392 -0.4634  0.0591
21394W        W64385  19.578  10.759  22.786  0.2299 -0.3087  0.2857
21395W        W64386  13.252   0.848   3.098  0.3547  0.2610  0.1173
21396W        W64387   1.766  13.415   3.989 -0.0179  0.1004  0.4825
21397W        W64388  18.685  27.779  18.380 -0.0940 -0.1645  0.1616
21398W        W64389   0.726   0.079  17.949  0.2402 -0.0126 -0.2738
21399W        W64390  20.291  12.892   5.826  0.1039  0.0970 -0.0035
21400W        W64391  11.318   7.250  16.409  0.1931  0.2035 -0.2521
21401W        W64392  17.317   4.190  20.780  0.2938 -0.3131  0.0181
21402W        W64393   7.113  33.293   4.145 -0.0467  0.0782 -0.0008
21403W        W64394   9.337  26.493   7.366 -0.0765 -0.0552 -0.0492
21404W        W64395  24.228  30.495   4.145  0.2724  0.1232  0.0074
21405W        W64396  23.016  25.332   9.166  0.1486  0.1758 -0.2363
21406W        W64397  29.382  18.923  24.008 -0.0198 -0.0386  0.2146
21407W        W64398   6.227  27.819  24.717  0.0729 -0.2055 -0.0179
21408W        W64399  28.209  32.154   6.595  0.2881  0.2915 -0.0936
21409W        W64400   1.490   9.759   5.541  0.0914 -0.3171 -0.0018
21410W        W64401   6.432   4.158  16.902  0.0123  0.1894 -0.1978
21411W        W64402   9.873   0.917   5.770  0.2089 -0.1530 -0.1319
21412W        W64403  14.584   8.492   3.010  0.0512 -0.0760  0.2787
21413W        W64404  26.302   4.739  26.903  0.0715 -0.0994  0.0787
21414W        W64405   2.876   0.880  17.877 -0.0008 -0.1916 -0.3819
21415W        W64406   3.981   4.307   6.519 -0.2690  0.2331  0.0425
21416W        W64407  21.708  27.682   8.304 -0.2191  0.1614 -0.1180
21417W        W64408   8.142  15.727  23.268  0.1580  0.1539 -0.1978
21418W        W64409   2.765  10.580   5.346 -0.4398  0.1567 -0.0060
21419W        W64410  11.260  25.568  20.891  0.4619  0.2456 -0.4638
21420W        W64411   6.079   3.249   7.412  0.1360  0.1582  0.5749
21421W        W64412  20.515   1.018  17.742  0.5596  0.1028 -0.1957
21422W        W64413   6.592   3.289  22.122 -0.2293 -0.3521 -0.0755
21423W        W64414   1.148   6.828   7.444 -0.3472 -0.0231 -0.1957
21424W        W64415  11.155   6.906  22.799  0.0259  0.3600 -0.3771
21425W        W64416   2.244  20.776  14.280  0.2688 -0.0036  0.1277
21426W        W64417  18.327  32.057  23.947  0.5447  0.0633 -0.0125
21427W        W64418  16.861  21.926   4.523 -0.2770 -0.2599 -0.0915
21428W        W64419  18.475  26.972  29.011 -0.0257 -0.1127 -0.1194
21429W        W64420  26.861  15.733  18.051  0.0248  0.2330 -0.0963
21430W        W64421  14.033  10.946  28.106 -0.0090  0.2722  0.2269
21431W        W64422   9.620  13.063  25.855 -0.3339  0.1190  0.0488
21432W        W64423  13.269  19.872  26.955 -0.2694  0.1209  0.2489
21433W        W64424   8.834  29.360  28.170 -0.0279  0.0642  0.1734
21434W        W64425   0.741  11.562  19.862 -0.1581  0.0334  0.0960
21435W        W64426   9.486  18.965  15.483 -0.2161 -0.0038 -0.1484
21436W        W64427   6.867  18.262  23.558  0.0802 -0.0893  0.0415
21437W        W64428  16.764  33.507   8.740 -0.0550 -0.1307  0.4896
21438W        W64429   2.015   6.251   6.896 -0.0021  0.0772  0.3199
21439W        W64430  16.517   3.575   4.178 -0.1569 -0.1208  0.1057
21440W        W64431   0.350   0.399   2.661  0.0145 -0.1149  0.0493
21441W        W64432  24.522  34.386   5.074 -0.2913  0.2042  0.0742
21442W        W64433  28.153  24.819   2.652 -0.2093 -0.0824  0.1381
21443W        W64434   4.586  13.053   7.901 -0.4579  0.0357 -0.2625
21444W        W64435   6.242   2.216   9.249 -0.0273 -0.2485 -0.1815
21445W        W64436   4.660  26.240  15.301 -0.1106  0.0638 -0.2857
21446W        W64437  30.662  32.648  17.291  0.2927  0.3553  0.1269
21447W        W64438  13.615  31.070   3.598  0.0092  0.3965  0.1704
21448W        W64439   7.813  13.708  23.570 -0.2049  0.1006  0.2767
21449W        W64440   4.409  27.571   9.090 -0.0926  0.2028  0.1218
21450W        W64441  18.127  34.321   3.152 -0.0277  0.0238 -0.2907
21451W        W64442   7.773  10.146  26.173 -0.1333 -0.1683 -0.1668
21452W        W64443  32.943  24.206   5.676 -0.3393  0.0537  0.0049
21453W        W64444  33.306   9.707  17.587 -0.2206 -0.1830 -0.2209
21454W        W64445   5.259   3.989  18.151  0.0223  0.3587  0.2516
21455W        W64446  13.465   8.674  16.387  0.0075  0.1216 -0.3406
21456W        W64447  12.666   5.420  17.385 -0.0424  0.2036  0.0332
21457W        W64448   1.653   2.117  19.071  0.1819 -0.0578 -0.0146
21458W        W64449  14.149   8.924  17.193 -0.0966  0.1225  0.4232
21459W        W64450  12.269   3.661  28.787  0.2624  0.1362  0.0496
21460W        W64451   2.834   3.283  16.328  0.0607  0.1295 -0.0673
21461W        W64452  29.228  21.525  20.132  0.4716  0.0239  0.0120
21462W        W64453   6.675  23.808  23.477 -0.1548  0.0787  0.0271
21463W        W64454  17.969  27.851  22.314  0.2888  0.0039 -0.0740
21464W        W64455  34.013  32.479  17.538  0.0751  0.0394  0.0016
21465W        W64456  20.828  24.092  16.547  0.1033 -0.0928  0.3549
21466W        W64457  30.894  25.893  22.771  0.1097 -0.1067  0.0239
21467W        W64458   2.974   8.160  18.580  0.2394 -0.1046 -0.1470
21468W        W64459  27.280  13.804  28.479  0.2020 -0.2072  0.0369
21469W        W64460  29.808  12.112  26.958 -0.1567 -0.1640  0.3033
21470W        W64461  34.700  11.225  25.128 -0.1019  0.1020 -0.4881
21471W        W64462  18.559  30.859  19.826 -0.1258 -0.1881  0.0775
21472W        W64463  10.661   3.507  19.677 -0.1221  0.0251  0.0491
21473W        W64464  27.029   0.397  26.708 -0.0866 -0.5366 -0.1023
21474W        W64465  29.108   2.892   7.090  0.2718  0.0514  0.1350
21475W        W64466   6.058  13.065  16.799 -0.1897 -0.1930 -0.5347
21476W        W64467   8.846   2.211  18.114  0.0266  0.0944 -0.1236
21477W        W64468   0.928  24.539  27.597  0.2313  0.2418  0.4435
21478W        W64469  28.014   4.577  13.298 -0.2418  0.1104 -0.0549
21479W        W64470   8.939   5.847  20.308 -0.0567  0.0325 -0.1701
21480W        W64471  34.475  16.779  26.797  0.0114 -0.2279  0.0028
21481W        W64472   0.260  28.637  15.736 -0.2362  0.2300 -0.2490
21482W        W64473  13.353   6.065  22.502  0.1881 -0.0608  0.1087
21483W        W64474   4.920   3.490  27.630  0.0107 -0.1345  0.1626
21484W        W64475  29.420   0.493  17.537  0.1477 -0.0369 -0.4159
21485W        W64476  25.882  11.234  17.329  0.2688 -0.3206  0.0062
21486W        W64477   9.329  31.614  22.277  0.3979 -0.0168 -0.0461
21487W        W64478  32.832   0.329   2.188 -0.0037 -0.2691  0.0216
21488W        W64479   5.714  33.762  23.731 -0.0828  0.2220 -0.2705
21489W        W64480  21.272  15.853  16.173  0.1278  0.2461  0.4760
21490W        W64481   2.696  15.486  10.453 -0.0171 -0.0499 -0.1726
21491W        W64482  18.654   1.831  17.782 -0.0488 -0.0344 -0.1637
21492W        W64483  17.856   9.714  16.950 -0.2363  0.2358  0.2084
21493W        W64484   8.846  33.952   2.868 -0.0927 -0.1765 -0.0853
21494W        W64485   6.041  33.076  17.668 -0.1927 -0.2370  0.1579
21495W        W64486  10.750   4.539   6.324 -0.1962  0.2599 -0.0093
21496W        W64487  33.454  17.845  23.362  0.1913 -0.1398 -0.0795
21497W        W64488  25.103   0.226   1.210  0.3414 -0.1405  0.2520
21498W        W64489   9.031  24.633  20.526 -0.0305  0.0625  0.0250
21499W        W64490   8.708  30.174  23.606  0.1984  0.0226 -0.0492
21500W        W64491  26.616  25.825  14.666 -0.0575  0.2350  0.2725
21501W        W64492   3.019  33.279  18.819  0.0799  0.1061 -0.1152
21502W        W64493  20.451  34.663  19.897  0.3789  0.2705  0.1277
21503W        W64494   6.717   8.203  17.382 -0.1789  0.0594  0.0840
21504W        W64495   1.380   8.001  16.154  0.1224  0.0316 -0.2453
21505W        W64496   7.335  28.068  18.693  0.0607  0.0864 -0.0527
21506W        W64497   8.519  11.328  16.135  0.2920 -0.1869 -0.1606
21507W        W64498   0.069  13.683  17.970  0.2999 -0.1981  0.1127
21508W        W64499  14.393   5.090  15.788  0.1635 -0.1595  0.0662
21509W        W64500  22.256   6.750  19.497  0.1619  0.1657 -0.1097
21510W        W64501  11.884   1.436  19.630 -0.0914 -0.0147 -0.0991
21511W        W64502  29.020  15.686   5.930  0.4624 -0.0372  0.1955
21512W        W64503  15.547  16.618  12.202 -0.0903 -0.1117 -0.2817
21513W        W64504   9.960   2.058   3.376  0.1132  0.0201  0.0541
21514W        W64505  32.154  33.058  21.175  0.0726 -0.1001 -0.0732
21515W        W64506   0.013   7.568   7.350  0.0080 -0.0555  0.1266
21516W        W64507  13.636  30.922  19.073  0.0018 -0.1469  0.0775
21517W        W64508  33.443  18.862  28.803  0.1174  0.0392 -0.1381
21518W        W64509  32.751  12.071  16.007 -0.2721  0.1258  0.2034
21519W        W64510   6.831  22.365  17.475  0.2219 -0.1214  0.2694
21520W        W64511   3.899   4.452  18.097 -0.0516 -0.0859  0.0770
21521W        W64512  10.010   9.085  15.331  0.3367 -0.3273 -0.0368
21522W        W64513   5.932   1.442  24.415  0.2087  0.0490 -0.2398
21523W        W64514   3.645  31.356  19.448 -0.1066 -0.0261  0.0974
21524W        W64515   9.120  14.184  19.956 -0.0186 -0.1524 -0.0739
21525W        W64516   8.121   0.045  20.116  0.2397  0.0254 -0.3372
21526W        W64517  10.313   1.581  15.790 -0.0862 -0.0048 -0.1716
21527W        W64518   6.135   2.263  25.527  0.1544  0.0878  0.2404
21528W        W64519  14.332  11.084  22.037  0.2286  0.1936  0.1889
21529W        W64520   6.731   0.117  18.496 -0.2686 -0.0675 -0.0660
21530W        W64521  33.108   9.936   5.162  0.0634  0.0412  0.0500
21531W        W64522   0.359   7.216  15.767  0.1952  0.0707  0.0263
21532W        W64523  31.214   4.813  19.733 -0.1294  0.0255  0.3578
21533W        W64524  17.703   4.539  23.446 -0.1108 -0.0933 -0.0453
21534W        W64525   5.057  32.857  20.876  0.0909 -0.0545  0.3072
21535W        W64526  31.245  22.726  24.609 -0.0019  0.1392 -0.0186
21536W        W64527  30.296  23.750  14.360  0.1381  0.1674  0.0016
21537W        W64528  25.930   3.379  27.786 -0.1584  0.1371 -0.0348
21538W        W64529   6.717  15.470  15.420 -0.1856  0.1372  0.1580
21539W        W64530   4.789   5.625  15.670  0.2455  0.1787 -0.2519
21540W        W64531   5.877   1.664  19.600 -0.0005 -0.1725  0.1014
21541W        W64532  34.144   0.133  25.186  0.2640  0.0836 -0.1594
21542W        W64533  10.719   0.507  15.358  0.0524  0.0870  0.3192
21543W        W64534  16.734   8.339  15.069 -0.0538 -0.2056  0.0057
21544W        W64535   1.932  22.735  25.973  0.3620 -0.0283 -0.1811
21545W        W64536   1.259   4.159  20.848  0.0223  0.0351  0.3146
21546W        W64537  28.813  26.746  20.609 -0.0646  0.0503  0.4554
21547W        W64538   9.973   5.245  22.477 -0.3576 -0.3314 -0.1468
21548W        W64539  23.674  11.234  15.488  0.3777  0.2273 -0.0204
21549W        W64540  28.987  31.677  23.663  0.1158  0.0639  0.0133
21550W        W64541   3.719   6.328  18.356 -0.0891 -0.0170  0.1429
21551W        W64542   1.832   0.146  18.793 -0.0447  0.0047 -0.1931
21552W        W64543  32.678   4.094   5.699 -0.0852  0.0241  0.3182
21553W        W64544   9.570  30.565   1.019 -0.0060  0.1363 -0.1288
21554W        W64545  31.999  15.754   4.437  0.0535 -0.2621 -0.2512
21555W        W64546   0.773  29.780  25.451 -0.0819 -0.0082  0.2433
21556W        W64547  23.816  12.396  18.423  0.2521 -0.0767 -0.0516
21557W        W64548   5.755  10.726  22.325  0.0023 -0.3408 -0.0475
21558W        W64549  27.050   0.397  20.774 -0.0298  0.3584 -0.1350
21559W        W64550  22.878  12.733  14.314  0.1827  0.0861 -0.0490
21560W        W64551  33.524  17.702  15.853 -0.1260  0.0750  0.1524
21561W        W64552  34.121  24.032  21.283 -0.3069 -0.2405  0.4051
21562W        W64553  14.066  31.176  19.026  0.0833 -0.1372  0.0667
21563W        W64554  20.164   4.857  28.150 -0.0731 -0.0400 -0.1046
21564W        W64555  23.246  31.660  21.839 -0.2046 -0.2091 -0.0536
21565W        W64556  11.271   8.150  20.392 -0.1307  0.1219  0.1554
21566W        W64557   3.400   2.406  20.570 -0.2572 -0.1940 -0.2087
21567W        W64558   2.399   1.516  24.962  0.0539  0.0928 -0.0095
21568W        W64559  32.265  25.950  22.803 -0.0764 -0.0744 -0.0560
21569W        W64560  25.374  10.448  23.950 -0.2150 -0.3190 -0.2723
21570W        W64561  19.935  13.370  13.879 -0.1322  0.5639 -0.4918
21571W        W64562   4.853   0.502  28.867 -0.0416  0.0068 -0.0597
21572W        W64563  19.323  31.394  24.937  0.0067  0.0537 -0.1034
21573W        W64564  14.440  11.840   9.903  0.2792 -0.1477 -0.3489
21574W        W64565   7.364   4.695  16.115  0.1175 -0.4698  0.0665
21575W        W64566   6.726   0.119   3.871 -0.0046  0.0396 -0.2953
21576W        W64567  20.680   2.647  17.991  0.3479  0.1339  0.0151
21577W        W64568   5.261  24.104  24.067  0.0783 -0.1002 -0.2258
21578W        W64569   8.317  16.921   9.541 -0.0084 -0.0698 -0.0845
21579W        W64570  22.608   7.051  18.065  0.2690 -0.1032  0.0536
21580W        W64571  29.599  22.570  26.950  0.0781  0.0749  0.1990
21581W        W64572  19.575  11.471  18.157  0.1015 -0.1097  0.1171
21582W        W64573   2.850  15.160  27.936 -0.2068 -0.0826  0.1100
21583W        W64574   7.939  10.041  16.669 -0.3595 -0.0395 -0.0443
21584W        W64575   2.370  34.742  14.432  0.1874 -0.4290  0.2167
21585W        W64576  12.788  30.160  23.622 -0.2559  0.1445  0.1390
21586W        W64577   0.326  14.850  27.159  0.4624 -0.0596 -0.2475
21587W        W64578  14.417   6.234  29.160  0.3145  0.0456 -0.0765
21588W        W64579   6.818   6.106  25.198 -0.2190 -0.0803  0.0097
21589W        W64580  27.760   3.950  19.831  0.1392 -0.1285  0.0006
21590W        W64581   0.497   9.580  21.187  0.0323  0.1309  0.0156
21591W        W64582  33.147  28.121  20.928 -0.1696  0.1768 -0.1832
21592W        W64583  22.364  19.659  16.055 -0.3227  0.1780 -0.2135
21593W        W64584  33.594   9.488   0.670  0.1751 -0.3263  0.1031
21594W        W64585   8.831   7.350  27.525  0.0850 -0.3045 -0.2406
21595W        W64586   9.369  25.988  18.419  0.4076 -0.0537 -0.1375
21596W        W64587  31.162  17.219  24.892 -0.2746  0.0269  0.3115
21597W        W64588   1.698  33.163  22.413  0.0885  0.2364  0.2990
21598W        W64589  29.767  18.147  16.783 -0.3261 -0.2409  0.1186
21599W        W64590  13.506   7.500  24.817 -0.0523 -0.0957 -0.1042
21600W        W64591  30.401  33.093  19.322  0.3324  0.0333 -0.1259
21601W        W64592  21.624  32.772  26.778  0.0803  0.1099  0.2964
21602W        W64593   8.657  32.590  16.461  0.3134 -0.0805  0.3385
21603W        W64594  30.704  33.334  18.572  0.1018  0.0903  0.0763
21604W        W64595   3.912   2.896   4.610 -0.2130  0.1429 -0.6687
21605W        W64596  22.531   8.731  22.979  0.1859 -0.1319  0.1397
21606W        W64597   1.243  29.501  13.369 -0.0762 -0.0989 -0.1022
21607W        W64598  29.627  34.365  14.720 -0.2112 -0.1016 -0.2493
21608W        W64599  17.381   0.952  16.239  0.1209  0.3522  0.2083
21609W        W64600  14.198   6.811  24.765  0.3402 -0.1565 -0.2216
21610W        W64601  27.558  32.759  12.886  0.1165 -0.3214 -0.0109
21611W        W64602   7.180   3.697  22.829 -0.2339  0.0792  0.3216
21612W        W64603   8.006   2.300  16.174 -0.0038 -0.0240 -0.0948
21613W        W64604  32.915  16.783  16.019 -0.0773  0.1107 -0.0454
21614W        W64605  29.232   8.212  18.249  0.0700  0.0827 -0.3706
21615W        W64606  13.374   3.903  16.478  0.1642 -0.0533  0.3238
21616W        W64607   4.778  13.441   7.671  0.3644 -0.1315 -0.0980
21617W        W64608   6.261  18.573  20.140  0.2241  0.2831 -0.1855
21618W        W64609  14.782  11.702   5.596  0.2414  0.1203 -0.2337
21619W        W64610  11.204   6.324  21.314 -0.4151  0.0897 -0.2478
21620W        W64611  13.441   1.309  19.298  0.0515  0.1845 -0.0417
21621W        W64612   9.272   7.306  20.156 -0.4079  0.2344  0.1381
21622W        W64613  24.814   8.871   4.379  0.4990  0.0244 -0.0403
21623W        W64614  33.968  34.022  15.801  0.1566  0.0210 -0.1917
21624W        W64615   9.265   7.126  15.525 -0.0704 -0.0806  0.0281
21625W        W64616  32.773   6.158  15.844  0.0399 -0.0138 -0.3787
21626W        W64617  29.906  31.672  16.650  0.0871  0.0176 -0.1364
21627W        W64618   6.809  30.735   1.732 -0.0500  0.0404 -0.1119
21628W        W64619  12.477   6.471  26.129  0.1410  0.0105 -0.1436
21629W        W64620   4.425   8.797  23.264  0.1326  0.1280  0.0491
21630W        W64621  13.191  23.750  16.361  0.0352 -0.1286 -0.1440
21631W        W64622   4.850   5.434   9.880 -0.0942  0.0311  0.0927
21632W        W64623   8.128   5.895  18.723 -0.1879 -0.2730  0.2323
21633W        W64624   8.453   6.155  26.237 -0.1609  0.2629  0.0823
21634W        W64625  27.499  10.537   2.717 -0.1023 -0.1012 -0.0798
21635W        W64626  33.708   7.379  20.508 -0.1626  0.0005  0.0438
21636W        W64627  14.821   4.207   8.727 -0.1408 -0.0809  0.5107
21637W        W64628   0.811  31.258   5.416 -0.2628 -0.0999  0.2962
21638W        W64629  16.607  33.245  15.533  0.0720  0.1584 -0.1295
21639W        W64630  10.134   1.445  19.842  0.1032 -0.0060 -0.0435
21640W        W64631  13.322  12.126  20.933 -0.3280 -0.1534  0.1694
21641W        W64632  12.176   8.588  21.891 -0.0489  0.1575  0.1272
21642W        W64633   6.998   9.790  18.675 -0.1241  0.2991  0.0410
21643W        W64634  31.129  18.276  21.483  0.2469 -0.1135  0.1632
21644W        W64635  18.800  18.560  14.455 -0.2051  0.0094  0.1072
21645W        W64636  34.454  33.580  19.350 -0.1481 -0.1619 -0.0088
21646W        W64637  16.579  26.835  26.156 -0.2887 -0.0056 -0.1319
21647W        W64638  11.249   4.443   3.291  0.1631  0.0240 -0.1204
21648W        W64639  22.447  34.182  26.825 -0.0833 -0.1233  0.3529
21649W        W64640  32.620   8.326  28.037  0.1153 -0.0434 -0.0198
21650W        W64641   6.749   8.230   7.349 -0.3211  0.0590  0.0468
21651W        W64642  33.067   3.155  14.643 -0.2074 -0.0245  0.1388
21652W        W64643   3.010  12.543   4.163  0.0031  0.1348 -0.0827
21653W        W64644   0.443  30.490  17.815  0.2089 -0.0515  0.0366
21654W        W64645   7.364   2.194  19.673  0.1645 -0.2121 -0.2459
21655W        W64646   3.789   3.804  15.754  0.0312 -0.1692  0.2046
21656W        W64647   1.863  28.856  22.588  0.0347  0.1460  0.0765
21657W        W64648  28.779  19.033   0.401 -0.2579 -0.1924 -0.2907
21658W        W64649  33.837  12.585  19.823 -0.1150  0.4444 -0.2527
21659W        W64650  33.659   6.046  18.878 -0.0777 -0.0208  0.0017
21660W        W64651  19.250   9.759  19.260  0.0609  0.0857  0.1132
21661W        W64652   4.830  26.920  17.529  0.0607 -0.1367 -0.1324
21662W        W64653  21.022  34.385  13.563  0.1693 -0.0720 -0.0926
21663W        W64654   0.382  20.139  26.391  0.3739 -0.2026  0.0365
21664W        W64655   6.992   0.922  16.383  0.1970  0.0700  0.1982
21665W        W64656  32.889   2.028  26.759 -0.0138  0.2602  0.0095
21666W        W64657   3.370  32.618  21.996  0.1703  0.1169  0.2619
21667W        W64658  14.259   9.497  21.720 -0.2186  0.0152 -0.1924
21668W        W64659  26.727   2.105  18.702  0.2270 -0.1666 -0.1406
21669W        W64660   9.590   5.915   0.832  0.0544  0.0488  0.0974
21670W        W64661   0.465  28.348  21.586 -0.2057 -0.0908 -0.0575
21671W        W64662   4.669   4.774  15.729  0.1054 -0.0942 -0.4189
21672W        W64663   5.425   7.343  21.765 -0.1768  0.1529 -0.1795
21673W        W64664  11.791  10.944  20.387  0.1637 -0.1027 -0.1950
21674W        W64665  33.783  10.789  16.733 -0.1224 -0.0706  0.1461
21675W        W64666   9.972  13.813  22.682  0.2461  0.0996 -0.0037
21676W        W64667  30.937  18.275  18.015  0.2143  0.4396 -0.0708
21677W        W64668   1.123  31.052  21.913  0.2011 -0.1200 -0.2416
21678W        W64669   2.526  15.970  23.122 -0.1756 -0.0500  0.3657
21679W        W64670  28.009  11.680  16.357 -0.0582 -0.0654 -0.0390
21680W        W64671  12.850  13.499  15.263 -0.2365 -0.1562  0.0898
21681W        W64672   5.360  13.240  16.297 -0.1474 -0.2110  0.3699
21682W        W64673   4.773   9.697  27.468 -0.1284  0.0912 -0.1779
21683W        W64674   1.253  10.896  24.782  0.1081 -0.1361  0.4665
21684W        W64675  29.809   1.265  24.135  0.0037  0.1262 -0.2814
21685W        W64676   0.567  33.208  17.637  0.0646  0.0310  0.0704
21686W        W64677   6.537   4.464  10.225  0.3318  0.0298 -0.0087
21687W        W64678  14.267  23.839  24.918 -0.1714  0.0719 -0.0565
21688W        W64679  21.608  33.356  25.672 -0.0553  0.0686  0.0069
21689W        W64680   1.763  34.056  21.312  0.1228 -0.2185  0.1341
21690W        W64681   2.330   2.166  29.059 -0.0148 -0.6071  0.1204
21691W        W64682   4.107  31.087  15.367 -0.1525 -0.2682 -0.2599
21692W        W64683   6.566   5.208  16.014  0.0345  0.1976 -0.2578
21693W        W64684   3.420  29.589  23.256 -0.0959  0.2798 -0.1740
21694W        W64685  30.733  14.070  20.558  0.2304  0.2514  0.2079
21695W        W64686  18.436  14.107  22.580  0.3003 -0.1194  0.0217
21696W        W64687  29.370  33.966  12.741 -0.0329  0.0267 -0.1926
21697W        W64688   9.748  28.229  20.339  0.0131 -0.0370  0.0460
21698W        W64689  27.330  24.131  15.311  0.1136  0.2450  0.2304
21699W        W64690   2.142   4.047  17.101 -0.1285  0.0029  0.0415
21700W        W64691  23.136  14.070  18.864 -0.1127 -0.1409  0.1259
21701W        W64692  27.449  15.351  20.084  0.0061 -0.2589  0.2283
21702W        W64693   8.879   9.202   0.700  0.0154  0.0951 -0.1142
21703W        W64694   4.217   6.172  28.051  0.0935 -0.0316 -0.0407
21704W        W64695   0.219   2.705  26.729 -0.0590 -0.0534  0.1931
21705W        W64696   4.883   2.980  22.693  0.0883  0.1420  0.2357
21706W        W64697  14.965   7.467   0.050 -0.1811  0.1535 -0.0615
21707W        W64698   1.597   6.723  15.504 -0.1832  0.0413 -0.1089
21708W        W64699   0.566   7.059  18.295 -0.1099 -0.1239  0.2125
21709W        W64700  12.628   6.405  28.395  0.1154 -0.0229  0.1686
21710W        W64701  10.324  32.251  22.529  0.0472 -0.2051 -0.0614
21711W        W64702  22.694   1.948  23.480 -0.1180 -0.0555 -0.0515
21712W        W64703  14.777   2.223  16.199 -0.3224 -0.1066  0.1291
21713W        W64704   2.754   3.502  15.097  0.4471  0.1330  0.4013
21714W        W64705  27.506   8.556  17.546 -0.0675  0.3462 -0.3061
21715W        W64706   4.113  13.251  19.844  0.1534  0.0895  0.2023
21716W        W64707  28.303  28.772  24.815 -0.0630  0.0029 -0.0977
21717W        W64708   5.340  16.913  22.741  0.3049 -0.1234 -0.0500
21718W        W64709   1.499   0.065  10.529 -0.0966 -0.1380  0.2826
21719W        W64710  12.897   1.570   5.335  0.0060  0.1385 -0.4555
21720W        W64711  32.596   9.437   4.185  0.0105 -0.0155  0.4820
21721W        W64712   3.075   1.027  28.729  0.2250 -0.0059 -0.0963
21722W        W64713   6.596  17.807  15.558 -0.2679  0.4428 -0.0420
21723W        W64714   6.472  17.365   2.351  0.1975 -0.1374  0.1655
21724W        W64715  12.296  11.942  21.984  0.3611  0.0019 -0.1713
21725W        W64716  32.755   3.318  18.952 -0.0781  0.0486  0.0559
21726W        W64717   2.735   9.934   1.149  0.0272 -0.0241 -0.2684
21727W        W64718   6.743   6.800  22.562  0.1749  0.0401  0.3325
21728W        W64719   5.314  16.641  16.227 -0.2242 -0.1593 -0.3850
21729W        W64720   1.467   7.403  16.670 -0.0088  0.0439  0.3193
21730W        W64721  31.399   0.743  21.108 -0.0628 -0.1711 -0.3614
21731W        W64722  11.870  28.300  18.181 -0.0465  0.0681  0.0531
21732W        W64723  12.345  22.574  16.002  0.2228  0.1244 -0.0249
21733W        W64724   5.666  15.582  23.143  0.2246 -0.0030 -0.0147
21734W        W64725  33.178  12.745  28.555  0.2085 -0.1370 -0.1247
21735W        W64726   6.844  28.214  18.781 -0.0168 -0.2960  0.3394
21736W        W64727  26.817  34.417   8.182  0.2029 -0.0372  0.2750
21737W        W64728   4.960   1.604  15.222 -0.1840  0.2797 -0.0187
21738W        W64729  22.627  21.260  19.625 -0.2551 -0.0668 -0.0488
21739W        W64730   2.166   0.059  21.412 -0.0317 -0.1420  0.0904
21740W        W64731  21.631  16.656  28.852  0.1385 -0.1682 -0.4874
21741W        W64732  12.230   2.110  10.607 -0.1939 -0.2100 -0.1757
21742W        W64733   4.726  14.479  25.457 -0.1999 -0.0036 -0.1646
21743W        W64734  30.544  14.847  23.370 -0.0582 -0.0909  0.0251
21744W        W64735   2.039  10.625  23.216  0.1664 -0.3094  0.2853
21745W        W64736   1.332  15.399  16.276  0.2128  0.0789 -0.1019
21746W        W64737   3.048   1.016  19.374 -0.1935  0.0406 -0.1553
21747W        W64738   8.980  24.919  14.687 -0.0677  0.2333  0.0901
21748W        W64739  15.795  15.403  15.725  0.0573  0.2282 -0.1819
21749W        W64740  13.652  33.856  16.551 -0.0039  0.1762 -0.3545
21750W        W64741  20.779  34.397  18.401  0.0560  0.0456  0.1978
21751W        W64742  24.943  15.134  17.224 -0.2418 -0.0154 -0.3922
21752W        W64743   0.743  33.041  15.343  0.2823 -0.0130  0.0919
21753W        W64744  31.326  34.630  15.068  0.0044 -0.1183 -0.4564
21754W        W64745  19.397  10.851  20.673  0.2188 -0.0005 -0.0535
21755W        W64746  29.232  22.425  26.264  0.0445  0.1932  0.1117
21756W        W64747  20.640   3.908  17.860  0.2125 -0.2545 -0.2647
21757W        W64748   9.837   1.363  25.578  0.0036  0.1716 -0.0496
21758W        W64749   5.071   6.577  19.287  0.1879 -0.0080 -0.0586
21759W        W64750  19.407   7.693  20.438  0.0841  0.1094 -0.2113
21760W        W64751   2.238  23.762  16.010 -0.0298  0.1917  0.2093
21761W        W64752   0.330  13.735  19.821 -0.1254  0.0876  0.1388
21762W        W64753  16.073   5.566  25.074  0.1325  0.2807 -0.0098
21763W        W64754   9.981   8.189  26.760 -0.2214  0.0613 -0.1593
21764W        W64755   4.526  13.217  15.732  0.2439  0.0206 -0.0473
21765W        W64756   3.093   5.368  21.756 -0.0719 -0.1792 -0.1283
21766W        W64757  25.289   9.813  23.492 -0.1964  0.1473 -0.0369
21767W        W64758   8.169  29.153  22.445  0.1726 -0.0361  0.1283
21768W        W64759  12.363   9.895  15.250  0.0788  0.1037  0.2440
21769W        W64760   7.010  14.646  18.714 -0.0960 -0.1536  0.0957
21770W        W64761   1.559   8.218  15.624  0.0436 -0.2576 -0.1310
21771W        W64762  20.618   1.562  20.065 -0.0030  0.0160 -0.0693
21772W        W64763  26.245   4.640  27.995 -0.0423 -0.2332 -0.0872
21773W        W64764   4.401   3.098  22.564  0.1577  0.0225 -0.4298
21774W        W64765  28.818   9.866  20.404 -0.0742  0.2375 -0.3261
21775W        W64766   2.199  11.800  24.267 -0.0621 -0.2219  0.3690
21776W        W64767  34.757   5.761  25.755  0.2058 -0.1478  0.4216
21777W        W64768   0.074  12.782  20.036  0.0706  0.3417 -0.1874
21778W        W64769  15.151   2.035  27.336  0.2210  0.2721  0.2614
21779W        W64770  32.699  25.080  21.884  0.0337 -0.0916  0.0161
21780W        W64771  12.112  33.510  21.797 -0.0283  0.0789  0.1336
21781W        W64772  22.538   6.050  16.816  0.1154 -0.0832  0.1312
21782W        W64773  18.347  32.636  23.923 -0.0194 -0.2626  0.3657
21783W        W64774  15.692   1.987  25.928 -0.1262 -0.0247  0.2328
21784W        W64775   1.873  33.287  18.431  0.1529  0.1717 -0.2516
21785W        W64776  29.774   4.001   3.726 -0.0448  0.3773  0.1042
21786W        W64777  28.599  23.331  14.919  0.2547 -0.4327  0.2409
21787W        W64778  18.432   8.786  16.183 -0.1055  0.0209  0.0441
21788W        W64779   8.993   1.209  15.346  0.2847 -0.0823 -0.0231
21789W        W64780  19.531   3.671  25.268 -0.0929  0.0302  0.0090
21790W        W64781   7.538   8.759  20.343 -0.0519 -0.0712 -0.0634
21791W        W64782  18.255  34.566  20.039  0.0194 -0.0105  0.0919
21792W        W64783   9.590  15.305  15.231 -0.0076 -0.0733  0.0957
21793W        W64784   9.683   4.998  23.423  0.1582  0.3098  0.2745
21794W        W64785  14.007  11.394  26.695  0.0290 -0.0843 -0.0220
21795W        W64786  31.057  21.056  16.523 -0.1129 -0.2437  0.0846
21796W        W64787   2.743  10.634  20.333 -0.2570 -0.2159 -0.1618
21797W        W64788  25.737   9.070  23.828  0.0441 -0.0822  0.1868
21798W        W64789  32.876   9.486  18.670  0.0959 -0.2708  0.3084
21799W        W64790   5.312  11.253  16.256 -0.2733 -0.0117  0.2304
21800W        W64791  21.210  32.985  25.010  0.2498  0.0681 -0.2359
21801W        W64792   7.706   7.162  21.894 -0.1829  0.3309 -0.0142
21802W        W64793  31.600   0.634  22.146 -0.0310 -0.2374  0.1965
21803W        W64794   3.159   7.600  22.969 -0.0096 -0.1806 -0.0816
21804W        W64795  11.791   0.250  17.734 -0.1531 -0.1995  0.2988
21805W        W64796  33.275  14.683  19.058  0.0061 -0.2422  0.1507
21806W        W64797   9.894   9.076  20.217 -0.0972 -0.2226  0.1554
21807W        W64798  29.715  15.812  20.611  0.2141  0.1003 -0.3056
21808W        W64799   7.493  23.478  16.769 -0.2027 -0.0623  0.1717
21809W        W64800   6.429  15.046  25.563 -0.0787  0.4336 -0.2039
21810W        W64801  16.309   8.987  28.367  0.2745 -0.2974 -0.2971
21811W        W64802  15.924  26.298  16.139 -0.1503  0.1682  0.0841
21812W        W64803  33.539  21.040  22.750 -0.0057  0.1307 -0.1353
21813W        W64804  11.969  21.257  25.035  0.1250  0.2677  0.1470
21814W        W64805  29.980   9.230  18.113  0.0523  0.1212  0.3052
21815W        W64806  17.247   4.938   4.350  0.1670 -0.2876  0.2296
21816W        W64807  33.494   6.453  23.174 -0.0349 -0.2375 -0.0244
21817W        W64808  23.086   5.567  25.577 -0.0752 -0.2145  0.0897
21818W        W64809  22.980  27.451   3.995  0.4294 -0.1132  0.2740
21819W        W64810  32.060  10.477  18.930  0.0270  0.0362  0.1326
21820W        W64811   0.686  12.317  17.131 -0.1343  0.0718 -0.2023
21821W        W64812  15.898  19.953  14.746 -0.1266  0.1469  0.3457
21822W        W64813  32.030  14.794   0.023  0.1928  0.0583  0.1812
21823W        W64814   5.121   8.827  23.142  0.0246  0.0780  0.0019
21824W        W64815  29.643  25.263   1.641 -0.0798  0.2674  0.1707
21825W        W64816   4.794  31.027  14.532 -0.0728  0.5637 -0.1266
21826W        W64817   4.432  14.854  27.726 -0.1291  0.0156 -0.2032
21827W        W64818  10.561  24.948  22.010  0.0456 -0.0526 -0.2515
21828W        W64819   3.907   2.953  15.701  0.3910  0.0823  0.0741
21829W        W64820   1.088  14.078  26.213 -0.2050  0.1122 -0.3348
21830W        W64821   5.649  29.428  19.726 -0.2100  0.0842 -0.1369
21831W        W64822  26.469  12.765  25.228  0.3979 -0.1976  0.1214
21832W        W64823  30.037   2.754  15.379  0.1284 -0.0957 -0.0673
21833W        W64824   9.364   1.443  20.606  0.1905 -0.2740  0.2218
21834W        W64825  16.481   7.937  20.822  0.1349  0.1325 -0.2320
21835W        W64826  16.999   3.140  16.563 -0.0588 -0.3650 -0.0254
21836W        W64827   2.326   7.597  17.172 -0.1232 -0.1960  0.0835
21837W        W64828  16.754   3.751  28.820 -0.1076 -0.3287  0.2277
21838W        W64829   0.380  26.327  14.614 -0.1622 -0.1765 -0.1584
21839W        W64830  25.001  15.380   0.959 -0.0362  0.1006  0.1870
21840W        W64831  14.986   0.036  22.584  0.1750  0.0195  0.1537
21841W        W64832  23.085  26.676  24.713  0.0233 -0.2036 -0.0216
21842W        W64833   7.659  12.872   1.031 -0.0106 -0.0704  0.1453
21843W        W64834   2.626   6.165  27.110 -0.1906  0.0683 -0.4726
21844W        W64835   8.605  13.082  16.532 -0.2822 -0.1540 -0.1568
21845W        W64836   8.043  34.217  26.100 -0.1973  0.0983  0.0336
21846W        W64837  21.213  11.537  22.602  0.1093  0.1053 -0.0229
21847W        W64838   4.138  15.762  24.203  0.0306 -0.1348  0.0999
21848W        W64839  12.585   6.507  15.584 -0.4879 -0.0114 -0.0391
21849W        W64840  28.213  34.016  19.186 -0.1913 -0.1423  0.0569
21850W        W64841  17.260  34.272   0.601 -0.0805 -0.2067  0.0495
21851W        W64842  31.687   1.348  14.393 -0.2689  0.0979  0.0872
21852W        W64843   5.069   8.559  16.711  0.1055  0.1150 -0.1845
21853W        W64844  30.592  31.599  22.162 -0.2819 -0.1725  0.0080
21854W        W64845   0.739   6.160  25.678 -0.3429  0.0319 -0.0495
21855W        W64846  16.154   3.268   3.924 -0.0566  0.0320  0.1013
21856W        W64847  34.798  12.779   1.017  0.1481  0.0519  0.2095
21857W        W64848  23.695   5.080  21.671  0.2257 -0.3785  0.2530
21858W        W64849  14.575  14.173  22.597  0.0270 -0.1259  0.2749
21859W        W64850  21.725  11.885  27.231  0.0895  0.2111 -0.0661
21860W        W64851   5.029  23.770  19.492  0.1187  0.0623 -0.0989
21861W        W64852  31.982  18.769  24.745  0.0686 -0.0705 -0.1585
21862W        W64853  34.366  20.794  18.032 -0.1187 -0.1832  0.0383
21863W        W64854  29.376   1.077  15.821 -0.1157 -0.1561  0.2780
21864W        W64855   8.133  32.477  21.484 -0.1711 -0.3390 -0.0009
21865W        W64856  31.227  24.509  19.649 -0.1783  0.2203  0.1484
21866W        W64857  10.651   3.003   1.596 -0.2305 -0.0175 -0.2269
21867W        W64858   0.329   1.345  14.614  0.3554 -0.1403 -0.0056
21868W        W64859  13.616   6.366  17.378  0.2366 -0.1136 -0.0014
21869W        W64860  10.502   0.607  26.185  0.2015 -0.2412 -0.2394
21870W        W64861   9.107   8.404   3.326 -0.1077 -0.2840 -0.1629
21871W        W64862  31.093   8.320  19.298 -0.0558  0.0226  0.1556
21872W        W64863   1.115  33.554   9.968 -0.0056 -0.0209  0.2829
21873W        W64864   8.531   5.422  22.447  0.2837  0.2383  0.6220
21874W        W64865   6.190  25.856  21.130 -0.0455  0.1290 -0.2171
21875W        W64866  16.322  31.103   0.455  0.0838  0.0455 -0.3420
21876W        W64867   8.154   6.851  28.791 -0.0441  0.3202  0.1158
21877W        W64868   4.927   7.636  24.695  0.0484 -0.1555  0.2089
21878W        W64869  11.485  11.995   1.583  0.0646 -0.0522  0.2574
21879W        W64870  30.196  10.663  16.772  0.4437  0.4289  0.4821
21880W        W64871   9.333  17.047  17.263  0.2253 -0.1723  0.0573
21881W        W64872   2.088  16.561  27.139  0.0066 -0.1928 -0.3130
21882W        W64873  30.735  15.244   0.476 -0.3212 -0.3288 -0.0950
21883W        W64874  27.967  33.896  22.696 -0.4629  0.0381 -0.0130
21884W        W64875   1.001   3.930  21.326 -0.0471  0.1174 -0.0094
21885W        W64876  18.937   4.675  21.864  0.3444  0.1757  0.3651
21886W        W64877  24.226   5.703  17.017  0.0326 -0.2876 -0.0521
21887W        W64878  22.557  30.089  22.589  0.0905 -0.2311 -0.1731
21888W        W64879   7.040  30.476  19.143  0.0438  0.2405 -0.2746
21889W        W64880  32.512  18.345  15.243  0.0808 -0.1163  0.1984
21890W        W64881  12.171   7.565  23.813  0.2113 -0.2509 -0.0661
21891W        W64882  30.417   2.295  18.982  0.0030 -0.1909  0.1199
21892W        W64883  27.238  30.427  13.573 -0.3002  0.4862 -0.0037
21893W        W64884   8.869   7.025  19.345 -0.3938  0.4549  0.1263
21894W        W64885  10.741  23.787   1.001 -0.3951  0.2110 -0.0205
21895W        W64886  28.847   5.330   0.597 -0.1517  0.0451  0.1078
21896W        W64887  18.993  32.022   2.968  0.1256 -0.0216 -0.0309
21897W        W64888  14.546   7.189  21.964 -0.0475  0.4827 -0.1311
21898W        W64889  18.682   5.814  22.881  0.0239  0.0875  0.2634
21899W        W64890  23.561   3.845  17.564  0.3977  0.2261  0.1064
21900W        W64891   7.382  32.176  21.814 -0.0428 -0.0593 -0.3019
21901W        W64892  34.465  23.963  16.983  0.0395 -0.0547  0.2430
21902W        W64893  20.132   1.092  14.785 -0.0071  0.0195 -0.0993
21903W        W64894  22.731   7.678  21.981  0.5059 -0.0932 -0.3216
21904W        W64895   7.527  11.736  26.796  0.0993 -0.0327 -0.0916
21905W        W64896   4.961   1.911  19.319  0.0685 -0.0322  0.3746
21906W        W64897  28.588  12.357  14.445 -0.0066  0.2527 -0.0624
21907W        W64898  13.194   7.501  25.711 -0.1298 -0.0370 -0.2775
21908W        W64899  24.605  28.798  28.197  0.2076  0.1554  0.4264
21909W        W64900  31.485  13.165  19.644 -0.0446 -0.1149  0.3054
21910W        W64901  20.933   8.726  18.282  0.0613 -0.1735 -0.1529
21911W        W64902  19.008  11.704  24.539  0.1165 -0.1641 -0.3024
21912W        W64903  12.227  28.207  15.193  0.2234  0.0282  0.0844
21913W        W64904  12.667   3.275  21.106 -0.0032  0.1203  0.0788
21914W        W64905   1.321  17.831   4.021 -0.2517 -0.1042  0.3200
21915W        W64906   1.269   2.919  18.946  0.1908 -0.2270  0.0547
21916W        W64907  26.785  10.826  16.373 -0.0197 -0.1026 -0.0878
21917W        W64908   1.744   8.922  23.032 -0.0401 -0.3159  0.2019
21918W        W64909   7.803   7.068  23.735  0.2439  0.1104  0.4751
21919W        W64910   0.736   6.923  27.640 -0.0977  0.4003 -0.2078
21920W        W64911   0.689  17.039  15.705 -0.1452 -0.0262 -0.0271
21921W        W64912   2.944   0.222  21.970  0.5743 -0.3499 -0.1898
21922W        W64913  23.000   3.652  22.068 -0.1776 -0.4009 -0.0076
21923W        W64914  19.648   1.817  20.210 -0.0222  0.0536  0.0343
21924W        W64915  14.002  29.046  17.906  0.2730  0.1648 -0.0229
21925W        W64916  10.250  10.902  16.192 -0.1490  0.1620  0.1176
21926W        W64917   7.424   6.721  17.822  0.7131  0.0525 -0.1198
21927W        W64918  28.437   3.845  28.528 -0.1707 -0.1069  0.3659
21928W        W64919   0.381  25.599  24.054 -0.0950 -0.0417  0.0025
21929W        W64920   0.259   9.759  26.518  0.3387  0.5807 -0.2521
21930W        W64921  12.026   0.068   4.994 -0.0483  0.0307  0.1033
21931W        W64922  26.401  12.092  21.032  0.1155  0.1241 -0.1981
21932W        W64923   1.615  25.139  13.704 -0.1958 -0.0026 -0.0964
21933W        W64924  32.780  10.353  21.030  0.1974 -0.1764 -0.2107
21934W        W64925   4.232  12.846  28.046  0.0524 -0.1836  0.0717
21935W        W64926   8.816   5.810  23.381 -0.0020 -0.3207  0.0536
21936W        W64927  23.948   0.551  20.462  0.3750 -0.2857  0.2363
21937W        W64928   0.338  14.940  17.040  0.1678 -0.3372  0.1059
21938W        W64929   9.435   9.678  18.052 -0.0025  0.1900  0.0782
21939W        W64930  33.102  29.751  14.366 -0.2032 -0.1296 -0.2551
21940W        W64931   5.623   4.362  21.438  0.1217  0.0522  0.1041
21941W        W64932  12.099  11.817  20.449  0.2125 -0.0497 -0.3342
21942W        W64933   4.178  10.404  18.345  0.2155 -0.2725 -0.2231
21943W        W64934   7.918   4.522  16.354  0.2091 -0.0664 -0.0482
21944W        W64935   4.445   7.415  22.986 -0.1261 -0.3513  0.0731
21945W        W64936  11.628  15.606  25.044 -0.1147 -0.0859 -0.0681
21946W        W64937   8.262   4.817  18.917 -0.0145  0.0019  0.0032
21947W        W64938  22.505   3.570  25.725 -0.3015  0.0501  0.0670
21948W        W64939  23.504  31.260  18.798  0.4573  0.3790 -0.4978
21949W        W64940  16.630  14.704  12.399  0.0213  0.1516 -0.0608
21950W        W64941  11.045  29.047   8.152 -0.1602  0.1012 -0.0306
21951W        W64942  12.590   7.170  23.902 -0.2636 -0.0140  0.3348
21952W        W64943  13.814  31.566  28.141  0.0521  0.2867  0.1752
21953W        W64944   8.748   4.966  18.049  0.0972 -0.0938  0.2298
21954W        W64945  26.771   8.207  14.853  0.3855  0.1778 -0.0616
21955W        W64946  11.714   1.729  27.846  0.2762 -0.2673 -0.0044
21956W        W64947  11.100   7.009  15.423 -0.0320 -0.0007  0.1500
21957W        W64948   0.725  13.782   2.181  0.1902 -0.4015  0.1855
21958W        W64949  16.707  23.714  21.137 -0.1507 -0.2975 -0.2557
21959W        W64950  16.904  32.496  16.611  0.0529 -0.2366 -0.4381
21960W        W64951  11.613   9.618  16.369 -0.1261 -0.0980 -0.1276
21961W        W64952  13.476   1.568  21.201  0.1179 -0.3704 -0.1384
21962W        W64953   5.651  19.017  15.759  0.0574 -0.0151 -0.2957
21963W        W64954   0.842  33.192  18.936 -0.2867  0.0135 -0.2678
21964W        W64955  30.159   5.100   0.366 -0.0256  0.2147  0.0564
21965W        W64956   8.130  32.018   1.626 -0.3492  0.1558 -0.1718
21966W        W64957  33.546  10.936   0.924 -0.1416  0.1053  0.2063
21967W        W64958   9.242   2.885  23.179  0.0239  0.0548  0.0334
21968W        W64959   7.822   0.047  26.614 -0.0144  0.1350  0.1071
21969W        W64960  10.053   1.267  18.774  0.2780  0.1087  0.0088
21970W        W64961   5.678  10.697  20.311 -0.0875 -0.1685 -0.1891
21971W        W64962  10.807   8.576  18.309 -0.0714  0.3338  0.0433
21972W        W64963  17.706  11.170  21.738  0.1129  0.0595 -0.1577
21973W        W64964  15.361   9.525  18.539  0.0859 -0.1467 -0.1075
21974W        W64965   5.629  16.815  18.367  0.0731  0.2749 -0.6351
21975W        W64966   2.596  17.045  23.733 -0.0736  0.1899  0.2767
21976W        W64967  13.225  27.812  16.594 -0.0978 -0.1209  0.1160
21977W        W64968  30.862   0.397   0.714  0.0078 -0.0222  0.2905
21978W        W64969  10.711  32.225  24.247  0.1238 -0.2628  0.0222
21979W        W64970   3.721  20.955  20.332  0.1237 -0.2437  0.1551
21980W        W64971   7.792   4.014  28.966  0.0239  0.0994 -0.1214
21981W        W64972  12.178  33.477  16.608  0.0875  0.0737 -0.1494
21982W        W64973  25.195   7.079   7.024 -0.0954  0.1726  0.0479
21983W        W64974  29.003  26.244  22.725 -0.1263  0.1226  0.1112
21984W        W64975   7.686  20.040  22.223 -0.1618 -0.3081 -0.0008
21985W        W64976  18.119  30.786   8.183 -0.6381  0.1161  0.0063
21986W        W64977  10.384   8.513  28.069 -0.3226 -0.0386  0.0377
21987W        W64978   5.726  25.612  21.211 -0.0850  0.1622 -0.6266
21988W        W64979  12.158  29.877  28.105  0.2863  0.1845  0.1072
21989W        W64980  15.437   9.758  20.532 -0.0774  0.0401  0.1999
21990W        W64981  12.222   0.291  23.192 -0.0121 -0.0796  0.0879
21991W        W64982   1.599  22.796  18.603 -0.1498 -0.0869  0.0288
21992W        W64983   9.003   5.786  25.282  0.3904  0.0507  0.0697
21993W        W64984   8.741  29.928  20.230  0.1942 -0.3203 -0.2079
21994W        W64985  23.616  14.796  19.170 -0.2702  0.2434 -0.0141
21995W        W64986  33.549  27.767  14.674 -0.2063 -0.0196 -0.0226
21996W        W64987  11.931  34.167  27.093  0.2802 -0.2594  0.3615
21997W        W64988  19.459   1.275  17.655  0.0235 -0.1551  0.1259
21998W        W64989   9.970  32.859  17.373 -0.1267  0.0919  0.1282
21999W        W64990  34.722   3.468  17.680  0.0456 -0.0677  0.0742
22000W        W64991   9.867   3.617   7.864 -0.1185  0.0337  0.0540
22001W        W64992  32.864  23.295  25.141  0.0350 -0.0348 -0.1164
22002W        W64993  26.127  32.103  22.938 -0.3574  0.0227 -0.4299
22003W        W64994   4.152  33.275  26.751  0.0965 -0.4274 -0.0786
22004W        W64995  10.096   0.156  16.654 -0.1096 -0.3161  0.3627
22005W        W64996  22.539  11.000  14.749 -0.0875 -0.0912 -0.0442
22006W        W64997  29.261  10.724  14.878 -0.2963 -0.1628 -0.0678
22007W        W64998  29.431  18.642   1.885  0.0701  0.0268 -0.0865
22008W        W64999   0.990  21.465  24.246  0.1621  0.2302 -0.0638
22009W        W65000   4.819  24.599  21.034  0.0882 -0.1804  0.2658
22010W        W65001   2.700  18.195  19.334  0.3117  0.1660 -0.2343
22011W        W65002  30.134   4.727  29.236  0.0852 -0.2410  0.0187
22012W        W65003   9.942  16.240   6.223  0.0652  0.0206 -0.3195
22013W        W65004   6.584  34.299  18.876  0.2825  0.0332  0.0359
22014W        W65005  15.979   8.022  19.596 -0.1743 -0.1595  0.0736
22015W        W65006  11.462  27.513  24.496  0.1162  0.1721  0.0084
22016W        W65007   1.361  13.981  17.198  0.1858  0.0996  0.0042
22017W        W65008   4.094  10.522  19.488  0.0203 -0.0981  0.0530
22018W        W65009  12.843   5.216  24.041  0.4734  0.0261 -0.0113
22019W        W65010  30.379   2.404  26.839  0.2610  0.3123 -0.1660
22020W        W65011  10.578  20.364  15.356  0.0581  0.2733  0.2066
22021W        W65012   3.968  15.500  17.780  0.2146 -0.1715  0.0882
22022W        W65013   7.577  34.625   2.699  0.1312  0.3195 -0.2415
22023W        W65014  20.794  12.893  22.441  0.0897  0.0936 -0.3131
22024W        W65015  10.656  25.808  22.077 -0.0873 -0.2259 -0.0886
22025W        W65016   8.153  25.750  19.966  0.3693 -0.1236  0.0843
22026W        W65017  30.712  34.308  14.023 -0.0517 -0.3431 -0.3335
22027W        W65018  27.191  31.436  13.414 -0.3291  0.1547 -0.0882
22028W        W65019  30.830  14.837  23.849 -0.0439  0.0347 -0.3559
22029W        W65020  11.933   5.177  26.191 -0.0127  0.1005 -0.1995
22030W        W65021  26.227  31.742  15.559  0.0492 -0.2727 -0.3488
22031W        W65022  22.413   6.212  23.657 -0.0462 -0.1201  0.1374
22032W        W65023  30.848   4.609  18.703 -0.2811 -0.0398  0.1559
22033W        W65024  15.431  14.047  17.451 -0.1989  0.1120  0.1817
22034W        W65025  31.430   2.268   3.255  0.0531 -0.0315 -0.1461
22035W        W65026  33.269  15.452  24.145 -0.0231 -0.0604 -0.2920
22036W        W65027   5.633  15.969   6.351  0.0851  0.1293 -0.1126
22037W        W65028   6.461  17.701  18.983  0.0448 -0.0835  0.0314
22038W        W65029   0.857  12.421  28.257 -0.0564 -0.0472  0.2777
22039W        W65030  13.292  13.432  23.030  0.0657  0.1067  0.1008
22040W        W65031   8.831   4.178   0.381 -0.2388 -0.1053  0.0496
22041W        W65032   0.467  12.526  27.746 -0.1632  0.1156  0.4072
22042W        W65033  31.544   1.819  23.969  0.1859 -0.4157 -0.2203
22043W        W65034  28.937   5.658   1.026  0.0703 -0.1985 -0.0496
22044W        W65035  17.811  18.126  14.898 -0.0030 -0.0972 -0.3973
22045W        W65036  29.568  11.653   7.243  0.0563 -0.0957  0.0127
22046W        W65037  34.640  30.574  19.263  0.3773 -0.2536  0.0600
22047W        W65038  22.608   6.572  13.181 -0.1318  0.4205 -0.0719
22048W        W65039  11.275   7.076  20.335  0.5770 -0.1919 -0.0204
22049W        W65040  30.640   7.958  24.198 -0.2553  0.1823 -0.0803
22050W        W65041  10.295  16.344  15.925 -0.2133  0.0472  0.1762
22051W        W65042  13.631  30.400  13.382 -0.2786  0.1059  0.3308
22052W        W65043   6.369  21.402  27.405  0.1019 -0.1698  0.2285
22053W        W65044  28.844  12.010  23.913 -0.0808  0.1103 -0.0596
22054W        W65045  29.309   6.151  28.494  0.1655  0.1213  0.0553
22055W        W65046   1.704   9.512  15.177 -0.0550  0.2377  0.0184
22056W        W65047   1.090  14.249  20.809  0.1745 -0.2254 -0.0082
22057W        W65048  23.207   4.965  15.141 -0.2388 -0.0407 -0.3298
22058W        W65049  18.985  14.495  14.502  0.0042 -0.3124 -0.1416
22059W        W65050   8.068  11.384  18.861 -0.2340  0.2507 -0.1588
22060W        W65051  32.118   5.273  22.259 -0.1823 -0.1019  0.0634
22061W        W65052   1.496   2.997  13.934 -0.0771 -0.0643  0.3188
22062W        W65053  28.009   2.063  22.994  0.3727  0.1179  0.0445
22063W        W65054  25.123  31.293  17.923 -0.1614  0.0597  0.0493
22064W        W65055  11.051   4.099   1.871  0.1266 -0.0571  0.0716
22065W        W65056   8.424  10.073   7.602  0.0063  0.1132  0.0133
22066W        W65057  15.517   2.930  25.421  0.0967 -0.2343 -0.0361
22067W        W65058  24.390  11.769  17.083 -0.1367 -0.0827  0.1179
22068W        W65059  20.924  34.467  14.639  0.0319 -0.1131 -0.2598
22069W        W65060  25.713  29.082  16.290  0.0357  0.1322  0.2567
22070W        W65061  18.526   5.733   4.459 -0.0715  0.2996 -0.0300
22071W        W65062  14.902  28.494   1.188 -0.2089  0.1828  0.1307
22072W        W65063   6.640  10.541  20.206 -0.0280  0.1096 -0.1801
22073W        W65064   3.741  12.344  18.653 -0.1861  0.1105 -0.0259
22074W        W65065  25.306  30.826  17.923  0.1107 -0.0734 -0.0097
22075W        W65066   6.377  17.033  26.107 -0.1916 -0.0914 -0.4718
22076W        W65067  13.129  21.229  27.626  0.0839  0.1754  0.0609
22077W        W65068  28.812  33.828  25.126  0.1437 -0.1245  0.1017
22078W        W65069   8.732  13.791  18.587  0.0501 -0.0942  0.0219
22079W        W65070  12.760  22.338  20.992  0.1929  0.1493  0.1521
22080W        W65071   1.701   2.520   1.667  0.0639  0.1892  0.1438
22081W        W65072  11.658   7.190  25.571  0.0888  0.3041 -0.3062
22082W        W65073  31.348  15.069  17.872 -0.1806 -0.2802 -0.0478
22083W        W65074  34.642  34.643  15.733  0.1153 -0.0822 -0.0585
22084W        W65075  33.881  32.250   0.066 -0.0821  0.0445 -0.2047
22085W        W65076  34.383  19.762   3.189 -0.0702 -0.0755  0.0764
22086W        W65077   8.724  26.473  15.621 -0.1164  0.1691  0.0226
22087W        W65078  10.147   8.714   9.349  0.3425  0.1297 -0.0758
22088W        W65079  12.303  16.076  17.519 -0.1487 -0.1381  0.0096
22089W        W65080  25.414   8.780  22.911 -0.0344  0.2386 -0.3238
22090W        W65081   7.242  14.091  28.834 -0.1541  0.1686 -0.1097
22091W        W65082   3.545  24.017  18.603 -0.0925 -0.0886  0.1492
22092W        W65083   7.769   8.961  15.286  0.2666  0.3269  0.2033
22093W        W65084  12.606  20.196   0.916 -0.0346  0.1105  0.1824
22094W        W65085  22.207  29.115   2.732 -0.3141  0.0111  0.0885
22095W        W65086   5.379  29.452  24.380  0.1181  0.1216 -0.1294
22096W        W65087  12.230  31.061  19.246 -0.3428  0.1919 -0.0025
22097W        W65088   0.090  34.375  15.224  0.2225  0.0205 -0.0622
22098W        W65089  31.434  17.861   4.050  0.0066 -0.2150 -0.2576
22099W        W65090  28.600   2.853  15.519  0.0465  0.0293  0.1283
22100W        W65091  32.935  31.593   5.034 -0.1634 -0.0539  0.2406
22101W        W65092  17.213  13.654  13.393 -0.1274  0.0856  0.2573
22102W        W65093   4.824   6.408  15.188  0.0694  0.2852  0.0457
22103W        W65094  17.570   6.937   7.290  0.1144 -0.0743  0.1691
22104W        W65095  26.068   4.999  28.335  0.1421 -0.0635  0.0073
22105W        W65096   8.028   5.861  25.503  0.2286  0.0026  0.2371
22106W        W65097  15.553   4.816  16.813  0.0278  0.2143  0.0439
22107W        W65098   9.724   9.286  19.293  0.5137  0.0066 -0.1982
22108W        W65099   7.849   2.054  25.217 -0.1082  0.2438 -0.0575
22109W        W65100   6.124   0.860  14.868 -0.2097  0.3704 -0.0764
22110W        W65101   7.987   2.654  19.146 -0.0483  0.1768  0.0249
22111W        W65102  23.529  32.435  16.115  0.2861 -0.1154  0.1661
22112W        W65103   7.033   0.997  24.958 -0.0150 -0.0463 -0.2486
22113W        W65104  14.960   9.724  24.305 -0.0549 -0.1521  0.1049
22114W        W65105  32.498  33.054  14.361  0.0329 -0.0349 -0.1784
22115W        W65106  11.604   2.721   9.064  0.2417  0.3753 -0.0069
22116W        W65107  19.354  25.379  23.809  0.2072  0.0638  0.1962
22117W        W65108  23.423  14.582  17.608  0.0229  0.1958  0.0306
22118W        W65109  25.604  34.358  13.568 -0.1301  0.0614 -0.0526
22119W        W65110  11.027   5.645  24.780  0.4174 -0.1323 -0.1592
22120W        W65111  13.690  33.886  26.542  0.1330 -0.2466  0.0373
22121W        W65112  12.217   5.388  17.138 -0.0074  0.0619  0.1235
22122W        W65113  16.373  21.311  17.482 -0.0968 -0.2203  0.0151
22123W        W65114   6.483   9.737   0.850  0.1308 -0.0159 -0.1267
22124W        W65115   6.577  21.117  19.948 -0.0831  0.1641 -0.3228
22125W        W65116  19.718   5.538  23.725 -0.1107 -0.0628 -0.1377
22126W        W65117   4.794  14.037  27.185 -0.1798  0.2398 -0.0500
22127W        W65118   4.633  21.193  19.978  0.0040 -0.3019  0.0273
22128W        W65119   9.000   9.124  28.011  0.0566 -0.0972  0.0834
22129W        W65120  15.730  29.876   8.843 -0.1053 -0.2792 -0.2502
22130W        W65121  10.592   2.305  17.660  0.0646 -0.1679 -0.0785
22131W        W65122   3.832  27.681  18.094  0.1485  0.1690 -0.1483
22132W        W65123  14.390  31.627  26.993 -0.2443 -0.2568  0.1911
22133W        W65124  25.787  10.727  17.526  0.2889 -0.2258 -0.1206
22134W        W65125  10.254   5.040  20.682 -0.1425 -0.1052 -0.0984
22135W        W65126   2.674  21.053  16.197 -0.1216 -0.0357  0.3039
22136W        W65127  16.608   7.189  21.706 -0.0182  0.1402 -0.0564
22137W        W65128   4.232  13.027  18.663  0.0355 -0.2199  0.3212
22138W        W65129  28.726   9.699  25.849 -0.2909 -0.0250  0.1562
22139W        W65130   3.446  30.653  19.408 -0.0839 -0.1506 -0.2184
22140W        W65131  13.154   4.245  23.271 -0.0248 -0.1955 -0.2153
22141W        W65132  23.418   0.059  23.928 -0.1033 -0.2249 -0.0656
22142W        W65133  27.117  29.733  24.690  0.0663  0.1598  0.0437
22143W        W65134   8.574  16.643  22.275  0.1153 -0.0225 -0.0733
22144W        W65135   5.012  12.954  24.829  0.0430  0.2187 -0.1657
22145W        W65136   2.624  14.492  19.865 -0.1268  0.3662 -0.0852
22146W        W65137  33.386  33.590  26.465 -0.0969 -0.1214  0.2332
22147W        W65138   2.377  25.578  17.555  0.0153 -0.1065  0.0233
22148W        W65139  13.606  33.139  27.841  0.0852 -0.2551  0.1346
22149W        W65140  15.812   0.176  23.501 -0.0130  0.2761 -0.1679
22150W        W65141   1.661  13.433  23.225 -0.1596  0.3334  0.0132
22151W        W65142  20.201   5.113   3.506  0.0454 -0.2559  0.2119
22152W        W65143  17.559  19.344  15.422  0.2148  0.1955 -0.0376
22153W        W65144  11.081   4.238  20.137  0.0252 -0.2230 -0.2533
22154W        W65145  32.777   5.305  20.188  0.1870 -0.1130  0.2629
22155W        W65146   9.405   9.319  18.803  0.0916 -0.4334 -0.2854
22156W        W65147  33.743  13.435   2.373  0.1627  0.0484 -0.1409
22157W        W65148   5.596   3.319  20.495  0.4070  0.1849 -0.0046
22158W        W65149   9.317   4.498  18.055  0.0817  0.1425 -0.2078
22159W        W65150  23.472   9.285  21.911 -0.2585 -0.0631  0.0585
22160W        W65151   3.652  14.318  26.314  0.1234  0.0286  0.0879
22161W        W65152  15.364  33.904  15.006 -0.0463 -0.2793  0.1827
22162W        W65153  22.179   2.204  16.267 -0.0533 -0.1896 -0.0671
22163W        W65154  16.213  13.368  25.744 -0.2031 -0.0152 -0.0109
22164W        W65155  27.157  29.203  28.838 -0.1942 -0.2257  0.0717
22165W        W65156   2.587  15.546  24.635  0.0541  0.1104 -0.0709
22166W        W65157  15.199  10.642  17.876 -0.3384 -0.1478 -0.2547
22167W        W65158  11.932   2.627  16.295 -0.1008  0.0885 -0.2626
22168W        W65159   8.651  33.631  26.627 -0.3037  0.0484  0.2313
22169W        W65160  14.604  12.934   5.062 -0.1342  0.3404 -0.1531
22170W        W65161   7.329  13.648  21.272  0.1102  0.2377 -0.1360
22171W        W65162  16.948  24.597  15.098  0.4679 -0.1087  0.1789
22172W        W65163   9.619  33.112  15.818  0.1590  0.3990 -0.0260
22173W        W65164  32.852  22.025  17.969  0.0117  0.1332 -0.2381
22174W        W65165   3.549  23.953  17.911  0.3696  0.1617  0.2699
22175W        W65166  14.175  24.181  19.182  0.2086  0.3103  0.2112
22176W        W65167   2.524  28.551  26.328 -0.2181  0.1183 -0.1838
22177W        W65168  27.500   4.111  21.256  0.3245 -0.0639 -0.2448
22178W        W65169  17.772  31.379  27.622 -0.2027  0.2777 -0.1521
22179W        W65170  16.651  20.662  26.655 -0.2901 -0.2919 -0.1155
22180W        W65171  28.550  31.915  28.893 -0.0977 -0.5898 -0.1189
22181W        W65172  16.522  18.279   1.485 -0.3234  0.2547 -0.0167
22182W        W65173   4.961  12.543  22.484 -0.2750 -0.1181 -0.1895
22183W        W65174  20.326  10.379  22.724 -0.1409  0.2268  0.0904
22184W        W65175  17.567  12.849   8.530  0.0065  0.2557 -0.3126
22185W        W65176  32.957  14.858  23.027  0.3959  0.0106 -0.2222
22186W        W65177  30.188  34.363  13.717 -0.1906  0.3609  0.0060
22187W        W65178  23.236  34.528  17.163 -0.1440  0.4663 -0.1734
22188W        W65179   0.108  32.502  17.214  0.0443 -0.0219  0.0497
22189W        W65180  31.599   1.754  17.030 -0.0570  0.1702 -0.4383
22190W        W65181   4.571  12.467  22.771 -0.0848 -0.1932  0.3964
22191W        W65182  13.626   5.631  26.850  0.0612 -0.0730 -0.1119
22192W        W65183  15.770  28.834  17.072 -0.1649 -0.0477 -0.0870
22193W        W65184  15.587   1.382  20.438  0.0993 -0.3825 -0.2778
22194W        W65185  34.537  33.631   5.451 -0.0626  0.2229 -0.0154
22195W        W65186   2.697   2.701  19.101 -0.1249  0.1076 -0.0006
22196W        W65187  28.349   4.020  21.522 -0.0370 -0.2871  0.1798
22197W        W65188  30.777   3.176  15.857 -0.2439  0.1083 -0.1606
22198W        W65189  12.207  15.956   4.692 -0.0074 -0.1283  0.1645
22199W        W65190   0.796  10.261   4.161  0.0120 -0.0705  0.1382
22200W        W65191  12.709  11.265  19.625  0.3370 -0.1053 -0.1590
22201W        W65192  11.868   6.040  20.033 -0.0200 -0.0520  0.2766
22202W        W65193   7.450  10.459  27.298  0.1352  0.1557 -0.0114
22203W        W65194  22.850  15.565  26.319 -0.1468 -0.2150 -0.0268
22204W        W65195  33.862  33.254  15.262  0.0942 -0.1032  0.0800
22205W        W65196  13.978  34.594  22.863  0.0242  0.0227 -0.1118
22206W        W65197  11.163  32.603   6.250 -0.0833 -0.2663  0.1608
22207W        W65198  21.501  34.165  15.410  0.0709  0.1887 -0.0971
22208W        W65199  31.690   5.944  17.585 -0.1757  0.1008  0.2878
22209W        W65200  19.450  11.526  19.061 -0.2105 -0.2830  0.2687
22210W        W65201  31.563  21.545  17.496  0.0507 -0.1192  0.1284
22211W        W65202  16.126   4.879   5.690 -0.3614 -0.2646  0.0212
22212W        W65203   9.802   0.815  17.942 -0.2280 -0.0551 -0.3968
22213W        W65204  15.073   7.069   2.858  0.1301  0.3896 -0.0398
22214W        W65205  33.748  24.038  22.071 -0.1870  0.0159 -0.3154
22215W        W65206  34.244   2.189   2.903 -0.1873  0.1422  0.4149
22216W        W65207   9.600  33.972   1.350 -0.0588  0.0117  0.2687
22217W        W65208   3.579  29.195  15.653 -0.0086  0.1361  0.1075
22218W        W65209   8.650  16.220   6.276  0.0286  0.2504 -0.0320
22219W        W65210   9.852  27.038  18.977 -0.2057 -0.1313  0.0681
22220W        W65211   7.036  33.517  24.170  0.0083  0.0368 -0.2876
22221W        W65212   7.859  29.782  17.427  0.2073  0.1488 -0.1123
22222W        W65213   4.521   9.250   2.397 -0.0998  0.0280  0.1358
22223W        W65214  14.091  33.307  19.850  0.1804 -0.2763 -0.2676
22224W        W65215  33.275  27.382  23.390 -0.0632 -0.1419  0.1886
22225W        W65216  15.191   4.943   5.482 -0.1792  0.0251  0.1658
22226W        W65217  32.331  33.354  18.560  0.0471  0.2731  0.3759
22227W        W65218  27.402  22.034  22.491  0.0219  0.0250  0.0165
22228W        W65219  19.922  27.715  22.277  0.1862 -0.0501  0.0177
22229W        W65220   7.707  13.799  24.505 -0.0070  0.3248 -0.0457
22230W        W65221  31.605   3.978  26.682  0.0452  0.0773 -0.0000
22231W        W65222  16.012  24.463  13.460  0.2796 -0.0014  0.0240
22232W        W65223   3.023   5.600  20.520 -0.0739  0.2049 -0.0601
22233W        W65224  21.508   5.459  22.840 -0.1091  0.0724  0.1072
22234W        W65225  28.740   0.261  25.061  0.1935  0.0037  0.0609
22235W        W65226  12.275  11.101  15.488  0.0920 -0.0514 -0.2081
22236W        W65227  11.160  34.640  28.144 -0.1018 -0.0090 -0.2899
22237W        W65228  23.767  11.535  23.507  0.1235  0.2095  0.0695
22238W        W65229  31.007   1.528  18.020 -0.1337 -0.2947  0.1230
22239W        W65230  25.375  21.448  26.450 -0.0073  0.0794  0.0087
22240W        W65231  30.905  33.918  28.066  0.1523 -0.4793 -0.2182
22241W        W65232   1.651  10.185  21.751  0.0572 -0.1803 -0.1551
22242W        W65233   7.733  30.104  24.002  0.0967  0.1269 -0.1942
22243W        W65234  18.224  10.032   3.908 -0.0569 -0.2065  0.2236
22244W        W65235  22.098   7.431  25.402  0.2100 -0.0762 -0.0935
22245W        W65236  22.670   8.803  23.542  0.3827  0.0409  0.2812
22246W        W65237  17.254  32.755  18.886  0.2014  0.0026 -0.2656
22247W        W65238  30.742  30.226  14.590 -0.0166  0.0577 -0.1834
22248W        W65239  13.763   0.994  25.390  0.1261 -0.3991 -0.0075
22249W        W65240   8.532  15.478  10.505  0.0966 -0.3062 -0.0596
22250W        W65241   2.469   7.035  24.135  0.0722 -0.0092 -0.0896
22251W        W65242  18.404  34.566   1.785 -0.0568 -0.0940  0.1041
22252W        W65243   0.347  33.060  16.544  0.0431 -0.2102  0.1246
22253W        W65244   7.584  34.585   9.609 -0.0163  0.1472  0.1125
22254W        W65245  10.960   7.840  23.002  0.0284 -0.0682 -0.0671
22255W        W65246  22.621   1.327  14.324  0.2844  0.2240  0.1158
22256W        W65247  10.552  11.266   5.162  0.1550  0.0514 -0.2144
22257W        W65248   8.875   1.727  18.212  0.1486  0.0883  0.2026
22258W        W65249  12.947  12.970  22.498 -0.0671  0.0825 -0.1842
22259W        W65250   0.673  12.456  24.425 -0.0664 -0.0370  0.3319
22260W        W65251  11.260  18.405  16.406  0.0466  0.0877  0.4337
22261W        W65252  11.725  31.075  19.642 -0.0935  0.0866  0.1027
22262W        W65253  33.834  14.953  22.334 -0.0048  0.1962 -0.2285
22263W        W65254  29.232   7.007  25.486  0.0689  0.3746  0.0289
22264W        W65255  27.572  18.478  14.635 -0.5615  0.4439  0.3910
22265W        W65256   3.951   1.051  21.396  0.0482  0.3629  0.0597
22266W        W65257   1.308   7.667  23.373  0.1032  0.3721 -0.7305
22267W        W65258  24.692  11.928  13.466 -0.0679  0.4185 -0.1029
22268W        W65259   9.134   9.050   4.953 -0.0427 -0.1900 -0.1347
22269W        W65260  10.142  34.395  21.846 -0.3839  0.3256  0.0890
22270W        W65261   7.527  32.382  23.788  0.2729 -0.3633 -0.3617
22271W        W65262  30.314  33.370  18.913  0.0630 -0.5044  0.0303
22272W        W65263  33.628  21.932  26.047  0.0527  0.1197  0.1698
22273W        W65264  19.092   7.578  23.888  0.0945  0.2667  0.0174
22274W        W65265  24.479  15.737  16.389  0.0079 -0.2559 -0.1654
22275W        W65266  34.682  13.898  19.099  0.3805 -0.0664 -0.0310
22276W        W65267   1.152  23.427   8.264 -0.0100 -0.0065  0.0024
22277W        W65268  31.028   4.479  28.770 -0.1604  0.0765  0.2240
22278W        W65269   1.665   9.161  19.133  0.2497 -0.0095 -0.0479
22279W        W65270   9.855   7.312  22.816  0.0253 -0.2316 -0.1466
22280W        W65271  10.781   7.711   7.833 -0.4041 -0.2216 -0.0598
22281W        W65272  16.149   9.890   5.520  0.1210  0.2856  0.0426
22282W        W65273  16.225  21.213  25.843  0.0014 -0.0515 -0.0770
22283W        W65274   0.374  29.660  22.977  0.0526 -0.0750 -0.3743
22284W        W65275  30.238  32.733  14.668 -0.4250 -0.0227 -0.1146
22285W        W65276  19.572   7.011  25.619  0.1965 -0.2320 -0.1717
22286W        W65277  33.241   1.429   5.040  0.0290 -0.0890 -0.3705
22287W        W65278  19.392   1.132  25.015  0.2194  0.2158 -0.0358
22288W        W65279  11.262  24.114   0.332  0.1079 -0.2210  0.1794
22289W        W65280   3.305  28.893  16.897  0.0927  0.2564  0.1634
22290W        W65281  32.587   9.205  15.089 -0.0035 -0.2663 -0.0326
22291W        W65282   2.487  29.720  25.024 -0.2627  0.1182  0.2259
22292W        W65283  20.099  34.679  27.546  0.3710  0.1579 -0.3613
22293W        W65284   6.640  16.652  22.342  0.3255 -0.2113  0.0250
22294W        W65285   7.320  13.993   3.574 -0.1893  0.0371 -0.0211
22295W        W65286   2.527  11.286  19.362  0.0323  0.0359  0.1242
22296W        W65287  25.859  27.023   0.271  0.0592  0.0157 -0.3843
22297W        W65288  31.295  30.453  16.072 -0.1568 -0.1079 -0.2449
22298W        W65289  15.340   3.401  27.553 -0.1577 -0.0779  0.0245
22299W        W65290  15.266  30.734  20.477 -0.1461 -0.2183  0.2063
22300W        W65291   6.896   6.691  23.679 -0.1187 -0.1274 -0.3391
22301W        W65292   1.410  13.557  16.982  0.1087  0.1635 -0.4337
22302W        W65293   6.938   1.633  22.570  0.0099 -0.0214  0.1222
22303W        W65294  22.864  25.399  13.303  0.1495  0.1356  0.0047
22304W        W65295   4.492   3.557  23.296 -0.1358 -0.1247  0.1138
22305W        W65296   5.506  18.031  19.011  0.1861 -0.1722  0.1458
22306W        W65297  10.124  17.504   4.114  0.1439 -0.1328 -0.2461
22307W        W65298  16.696  32.863   6.206  0.0981  0.1048  0.1824
22308W        W65299   2.513   3.341  24.740 -0.0323  0.1897 -0.2558
22309W        W65300   9.820   3.827  10.524  0.0760  0.0430 -0.0405
22310W        W65301  19.727  28.280  15.758  0.4807  0.0198  0.0801
22311W        W65302  18.605   9.502  14.008 -0.2959  0.2415 -0.1511
22312W        W65303   8.274   9.548  17.578 -0.0436  0.1638  0.2670
22313W        W65304  12.597   4.186  27.318  0.0687 -0.0832  0.1205
22314W        W65305  11.419  22.834  20.343 -0.1322 -0.0633  0.0269
22315W        W65306  14.223   2.653  15.527 -0.3046 -0.0373  0.0624
22316W        W65307  26.581   8.483  25.553 -0.3766  0.0137  0.1237
22317W        W65308   2.173  10.360  17.552 -0.0314 -0.0508  0.0279
22318W        W65309  11.993  28.567  21.729 -0.1182  0.0078  0.1861
22319W        W65310   7.217   0.131   9.271 -0.1792 -0.4826 -0.3713
22320W        W65311   2.153  27.499  19.046  0.0765 -0.2169  0.1934
22321W        W65312  18.664   2.071  20.076 -0.1016 -0.1826 -0.1311
22322W        W65313   2.575  26.149  16.883  0.0674  0.1739 -0.0844
22323W        W65314   9.942  31.316  20.393 -0.0762 -0.3557  0.1246
22324W        W65315   8.411   1.934  15.378  0.1065 -0.1427  0.1944
22325W        W65316   2.341   0.400  21.886 -0.1528  0.3421 -0.0832
22326W        W65317   2.708  10.714  18.848 -0.3095 -0.1621 -0.2071
22327W        W65318   8.742   0.919  27.991 -0.2827 -0.1540  0.1233
22328W        W65319  10.231  13.451  22.382 -0.1883  0.1566 -0.1441
22329W        W65320  11.776   1.139  24.814  0.1139  0.2200 -0.0955
22330W        W65321   8.050   0.499   6.713 -0.1165  0.0470  0.0892
22331W        W65322   7.215  31.029   2.030  0.1493  0.0839  0.2240
22332W        W65323  29.074  31.974   8.322 -0.3026 -0.1637  0.0246
22333W        W65324   6.071  19.614   2.430 -0.1391  0.2297 -0.2738
22334W        W65325   4.721  33.070   9.018 -0.2250  0.2921  0.0811
22335W        W65326  33.764  13.558   1.536  0.4027 -0.2047 -0.1429
22336W        W65327   7.058  28.349   4.867  0.2507  0.0962 -0.0161
22337W        W65328  12.315  33.785  15.151  0.0409 -0.4482 -0.0093
22338W        W65329  15.555  34.079  18.197 -0.1023 -0.2532 -0.0002
22339W        W65330  23.121  21.503   5.797 -0.3322 -0.0226  0.0152
22340W        W65331  32.242   1.670  15.307 -0.1448 -0.0335  0.0518
22341W        W65332   6.733  33.272  25.518  0.1243 -0.1176 -0.0752
22342W        W65333  21.981   1.015   0.737 -0.3913 -0.1554  0.2040
22343W        W65334  34.669  20.622  15.515 -0.0011 -0.1824  0.1342
22344W        W65335  15.909  34.620   2.005 -0.0153 -0.1574 -0.0335
22345W        W65336  18.988   2.854   0.676 -0.2477  0.1313 -0.1121
22346W        W65337  18.483   2.087  18.236  0.3706  0.3182 -0.1109
22347W        W65338  15.613  24.569  16.490 -0.0664  0.1332 -0.0964
22348W        W65339  14.476  22.430   6.508 -0.1604 -0.0024 -0.1508
22349W        W65340  12.168   7.499  20.152  0.4186 -0.0599 -0.1112
22350W        W65341  28.379  14.177  19.005 -0.0510  0.0558  0.0888
22351W        W65342  10.353  34.534   4.292  0.2916 -0.1914  0.2110
22352W        W65343  11.777   3.620   3.475  0.0823 -0.0663 -0.1238
22353W        W65344  14.085   4.134  26.575  0.1681  0.0358 -0.1313
22354W        W65345  10.122  26.432   7.062 -0.1228 -0.1202 -0.2495
22355W        W65346  32.637   1.010  22.253  0.1271  0.2119  0.0764
22356W        W65347   8.263  14.236  28.507 -0.0344  0.0497  0.2460
22357W        W65348   2.607   1.269   1.205 -0.0002  0.0130 -0.2843
22358W        W65349  20.257  14.359  14.789  0.1196 -0.0915 -0.3541
22359W        W65350   9.937   2.432  21.866 -0.1185 -0.3275 -0.0192
22360W        W65351   0.761  17.380  16.338  0.0673 -0.2963  0.0989
22361W        W65352   8.933  10.179   5.471 -0.0635 -0.1859 -0.1441
22362W        W65353   1.583   7.190  16.218 -0.3078 -0.0954  0.2637
22363W        W65354   3.040  24.409  16.790 -0.0257 -0.0294 -0.1096
22364W        W65355  27.345   5.551  15.366  0.0576 -0.1720  0.1864
22365W        W65356   2.221   5.418  21.230  0.0969 -0.0197  0.1910
22366W        W65357   7.085  19.907  17.164  0.0027  0.0040  0.0558
22367W        W65358   2.514  14.324  18.619 -0.2288 -0.1886  0.0518
22368W        W65359  29.317  24.574  16.055 -0.3870  0.1132 -0.0192
22369W        W65360  27.762  16.046  28.175  0.2099 -0.3851  0.1986
22370W        W65361  17.901  25.650  18.359  0.0839 -0.2874  0.1504
22371W        W65362  31.211  19.321   0.806  0.4366 -0.1442  0.2722
22372W        W65363   4.311  20.493  25.365 -0.1313 -0.1289  0.2814
22373W        W65364  16.979  32.589  24.634  0.2446  0.1984 -0.0180
22374W        W65365  15.130   9.624  18.123  0.1122  0.1848 -0.1073
22375W        W65366  18.025  14.018  23.378 -0.1940  0.2945 -0.0632
22376W        W65367  12.787  24.294   3.106  0.1070 -0.0328 -0.3575
22377W        W65368  17.907  33.263  16.993  0.1532  0.0861  0.2020
22378W        W65369  32.748  18.593  10.412  0.1172 -0.1029  0.0716
22379W        W65370  18.570  11.579  17.965  0.0124 -0.1195 -0.4017
22380W        W65371   2.380  14.276  25.789  0.0936 -0.1766  0.1306
22381W        W65372  21.548   6.453  23.398 -0.1193  0.1052 -0.1759
22382W        W65373   1.029  29.304  22.920  0.1568  0.3716  0.0955
22383W        W65374   9.950  13.416  24.535 -0.3233 -0.5772 -0.1085
22384W        W65375   9.465   1.379  17.089  0.1244 -0.0915  0.0318
22385W        W65376  20.918   0.922   9.411  0.0218  0.0884  0.0038
22386W        W65377   9.356  33.758  16.314 -0.0047 -0.1062  0.2210
22387W        W65378  12.778  32.826  20.940  0.2971  0.0355  0.0193
22388W        W65379   3.336   1.830  18.041  0.2855  0.1191  0.2120
22389W        W65380   6.008   0.390  18.638 -0.1763  0.0201  0.0103
22390W        W65381  22.798  12.915   8.874 -0.2327 -0.2249  0.3145
22391W        W65382   0.625   6.660  24.492  0.4433  0.2214 -0.2251
22392W        W65383  11.565   0.972  23.512  0.0414 -0.1144  0.0034
22393W        W65384  31.288  29.227  13.088  0.0564 -0.2044  0.1980
22394W        W65385   3.417   2.083  25.180 -0.1629 -0.1549  0.0065
22395W        W65386   2.000   9.594  20.432  0.0740 -0.0351  0.1181
22396W        W65387  10.179   3.676   3.225  0.0117  0.4037 -0.1326
22397W        W65388  32.991  31.144   2.078 -0.3391  0.1443  0.1663
22398W        W65389  28.185  33.685  18.800 -0.0797 -0.0084  0.1507
22399W        W65390  18.811   0.630  15.525 -0.0470  0.2442  0.2409
22400W        W65391  19.768  26.118  20.762 -0.2888  0.1901  0.2496
22401W        W65392  10.693  20.163  15.830 -0.1251 -0.1501 -0.1510
22402W        W65393  33.879  10.272   1.249 -0.2670  0.0748 -0.3150
22403W        W65394  29.473   9.883  18.232  0.2889 -0.0426 -0.0107
22404W        W65395  25.390   1.984  26.341  0.3807 -0.3979  0.1529
22405W        W65396  18.081   5.935  17.426 -0.1014 -0.0289 -0.1060
22406W        W65397  34.081  14.253  17.393 -0.0297  0.0099 -0.4162
22407W        W65398   0.614  20.337  14.139  0.0925 -0.2700  0.0075
22408W        W65399   3.014  30.539   1.274  0.1993 -0.0513  0.0734
22409W        W65400   3.235  12.054   7.507  0.0795 -0.1392  0.2171
22410W        W65401   2.194  11.956  17.870 -0.0503 -0.2542  0.1767
22411W        W65402   1.064   0.006  26.627  0.2990 -0.0948  0.1097
22412W        W65403  24.410   3.356   3.999  0.0923 -0.0864 -0.3687
22413W        W65404   6.224  33.067   0.515 -0.3013 -0.1928  0.2218
22414W        W65405   7.310  11.072  21.770 -0.0547  0.0976  0.2896
22415W        W65406   6.742   6.546  10.313 -0.0873  0.1356  0.0644
22416W        W65407  19.250  22.729  22.604  0.0204  0.1322 -0.1260
22417W        W65408   3.487   8.095   2.992  0.3426  0.2348 -0.2838
22418W        W65409   0.609  32.417  16.865 -0.2730 -0.1015  0.3215
22419W        W65410  33.825  14.753   8.313  0.3504  0.1226  0.1660
22420W        W65411   9.699  23.849  16.764 -0.1511 -0.2548  0.0252
22421W        W65412  34.731   7.514  16.973  0.0480  0.0337  0.0398
22422W        W65413  24.906  32.803   5.874 -0.0675 -0.1723 -0.2670
22423W        W65414  14.724  32.819  23.159  0.2908  0.1318  0.1070
22424W        W65415  19.946   2.168   3.471  0.1170  0.1167  0.0958
22425W        W65416  13.557  17.850   8.490 -0.2850 -0.1090  0.1326
22426W        W65417   6.887  10.425  16.061 -0.0055 -0.5075 -0.1002
22427W        W65418  16.910   5.208  21.508  0.0303 -0.5614 -0.0371
22428W        W65419   5.668   5.199  18.036  0.3200 -0.0896 -0.1247
22429W        W65420   6.149   2.583  17.323 -0.0028  0.2302 -0.0322
22430W        W65421  21.025  27.005  24.358 -0.1827 -0.0881  0.2351
22431W        W65422  18.836  11.129  22.796  0.2152 -0.0567 -0.0287
22432W        W65423  32.606   5.352   8.393  0.2323  0.3152 -0.1408
22433W        W65424   6.692  13.704  27.018  0.2022 -0.1939  0.2164
22434W        W65425   0.865  29.554  14.490 -0.1016 -0.0382  0.0282
22435W        W65426  31.332  22.797   2.393 -0.0622 -0.2193  0.4163
22436W        W65427  16.189   4.888  15.604 -0.0064 -0.1769  0.0059
22437W        W65428  19.146   8.515  25.207 -0.0149 -0.4741  0.2575
22438W        W65429   8.199  28.912  29.252  0.1861 -0.2648 -0.3227
22439W        W65430   8.874  33.652  25.810 -0.0241  0.3073 -0.1923
22440W        W65431  18.780   2.347   4.138  0.1011 -0.0626 -0.2997
22441W        W65432  14.817  19.107   3.203  0.1806 -0.0195 -0.2005
22442W        W65433  20.082  33.988   6.401  0.0485 -0.1294 -0.3578
22443W        W65434   0.386   7.916  26.287 -0.0254  0.2501  0.1090
22444W        W65435   2.788   9.590  18.369  0.2068 -0.0604  0.0139
22445W        W65436  26.676  30.589  13.222  0.1932  0.0038 -0.0823
22446W        W65437   7.149  12.512  23.390  0.1385  0.2180 -0.1309
22447W        W65438  10.333   2.024   7.233  0.0463  0.0580 -0.0012
22448W        W65439  12.840  13.015  14.681  0.0720 -0.0796  0.0669
22449W        W65440  26.391   4.119  16.772 -0.1245  0.0279 -0.0176
22450W        W65441  24.227  15.755  28.623 -0.1007 -0.1896  0.0319
22451W        W65442  18.764  30.110   1.343 -0.4379  0.1690 -0.1073
22452W        W65443  33.411  20.890  29.152  0.0280 -0.3619  0.0314
22453W        W65444  21.312   7.291  17.233  0.0106 -0.2246  0.2625
22454W        W65445   8.440   0.262  18.013 -0.3453  0.0132 -0.4926
22455W        W65446  22.874  26.987  19.443 -0.0641  0.1859  0.2273
22456W        W65447  12.157  33.961   1.370  0.0955 -0.0842 -0.0646
22457W        W65448   0.672  21.649  22.118 -0.1245 -0.0391  0.1827
22458W        W65449  24.257  31.384   1.799 -0.1433 -0.0564 -0.4161
22459W        W65450   9.055  10.359   8.351  0.3627 -0.0770 -0.0511
22460W        W65451  30.772  27.753  23.667  0.1081 -0.0473 -0.0089
22461W        W65452  32.480   6.797   1.633 -0.1226 -0.0285 -0.1792
22462W        W65453   1.671  15.141  24.532 -0.0856  0.1768 -0.5151
22463W        W65454  34.628  34.591  19.901  0.1489  0.1810  0.0318
22464W        W65455  30.072  24.038  16.442  0.2195  0.1880  0.2796
22465W        W65456   8.732   6.643  16.603 -0.2130 -0.1043  0.0684
22466W        W65457  22.952  10.756   0.219  0.1846  0.1157 -0.0729
22467W        W65458  23.424   1.504  19.158  0.0547 -0.1450 -0.1127
22468W        W65459  12.995   0.917   4.681  0.1339 -0.0335 -0.1913
22469W        W65460   8.265   3.376  26.180 -0.1959 -0.0063 -0.0131
22470W        W65461  34.474  14.120   0.731  0.1095 -0.0022 -0.2559
22471W        W65462  20.924  20.974  22.741  0.1950  0.2566 -0.0800
22472W        W65463  26.806  33.883  15.755 -0.0559  0.0349 -0.1840
22473W        W65464  33.684   1.007   6.153 -0.2437  0.0331  0.0273
22474W        W65465  10.771  33.620  21.664  0.1914  0.4277 -0.3099
22475W        W65466   7.430   5.165   1.434 -0.0994 -0.0312  0.2085
22476W        W65467  10.066   4.793  23.182  0.0923  0.1382  0.4990
22477W        W65468   6.700  24.941   1.468  0.0830  0.0957  0.0655
22478W        W65469   3.564   7.579  25.788 -0.0721  0.0885 -0.3206
22479W        W65470   2.857  29.779  16.629  0.2624  0.1941  0.1302
22480W        W65471   7.296  32.036  24.092  0.0600 -0.1346 -0.4154
22481W        W65472   2.548   4.348  16.047 -0.2999  0.2327  0.0004
22482W        W65473  34.581   1.675   1.399  0.0116 -0.2361 -0.0987
22483W        W65474  34.247  20.311  18.121  0.0198  0.0681  0.5592
22484W        W65475   2.371  32.398  19.846  0.1601  0.2103  0.0877
22485W        W65476  22.584   3.276  19.686  0.1016  0.0493 -0.0766
22486W        W65477   7.762  11.438  24.288  0.0198 -0.1225  0.0907
22487W        W65478   4.344  15.439   3.498 -0.2089 -0.2305  0.1232
22488W        W65479  32.517  16.112  20.574  0.0783  0.0337  0.0149
22489W        W65480  11.574   9.575  22.712 -0.0130 -0.1135 -0.0318
22490W        W65481   0.569   3.343  29.217  0.3473  0.2566  0.3030
22491W        W65482   4.598  23.022   8.916 -0.1295 -0.0761 -0.0895
22492W        W65483   5.419  19.107  17.122 -0.2135  0.1531  0.1859
22493W        W65484   1.800  10.612  21.968  0.0333  0.0117 -0.0161
22494W        W65485   0.836  13.891  23.810  0.0719 -0.0243  0.3149
22495W        W65486  29.145  34.282  24.550  0.1999  0.0616 -0.0267
22496W        W65487  10.470  30.900  22.481  0.1955 -0.1211 -0.3441
22497W        W65488   5.318   9.341   0.804  0.0075  0.0581  0.2808
22498W        W65489   7.451   7.176  27.586  0.1469 -0.0077 -0.2597
22499W        W65490  31.732  10.370  17.064  0.3452  0.0100 -0.0383
22500W        W65491   3.311  26.497  21.394  0.1728  0.0164 -0.1606
22501W        W65492   4.402  28.216  24.543  0.1418  0.0234  0.0401
22502W        W65493  14.965  30.046  23.171 -0.3975 -0.1493 -0.3150
22503W        W65494  28.514  12.669   3.300 -0.0935 -0.0715  0.0310
22504W        W65495  34.718   1.480   5.201 -0.1502 -0.2268  0.3679
22505W        W65496   9.795  24.820   2.661 -0.0831  0.0097 -0.0965
22506W        W65497  21.734  13.907  24.310 -0.1574 -0.2846 -0.0763
22507W        W65498  13.176  14.450  23.467 -0.1188 -0.5259  0.2513
22508W        W65499  20.254   0.201  27.192 -0.1169  0.1093  0.1049
22509W        W65500  13.398   1.533  22.675 -0.0286  0.3952 -0.2028
22510W        W65501  13.306   1.612  27.077 -0.1178 -0.1466  0.1441
22511W        W65502  24.818   3.732  19.582  0.1363  0.0905 -0.0424
22512W        W65503   7.479   1.089   9.202 -0.1773 -0.1888 -0.2929
22513W        W65504  16.688  15.199  26.122  0.2115 -0.1585  0.2748
22514W        W65505   4.408  32.549  14.151 -0.2382  0.3458  0.1108
22515W        W65506   9.789  11.333   0.802  0.2500 -0.0547  0.1632
22516W        W65507   5.561   5.271  23.109 -0.1985 -0.3250 -0.0926
22517W        W65508  10.785  33.504  17.429 -0.0385  0.0710 -0.1110
22518W        W65509   6.682  31.095  23.511 -0.0112 -0.0770  0.1930
22519W        W65510   3.375   4.835  12.170  0.2147  0.1581  0.0274
22520W        W65511  10.854  21.414  27.005 -0.0995  0.0512  0.0186
22521W        W65512  28.023  15.423  18.511 -0.0307 -0.2204  0.0915
22522W        W65513  18.010   9.154  23.496 -0.1055  0.1473 -0.0103
22523W        W65514  18.323   7.262  23.504  0.0956  0.1083 -0.1877
22524W        W65515   3.870   7.551   3.188 -0.0462 -0.1964 -0.0243
22525W        W65516   5.396   0.310   0.244  0.0254  0.2007  0.1265
22526W        W65517   3.609  17.701   5.940  0.0358 -0.0206 -0.0575
22527W        W65518   4.420  28.479   0.440 -0.0021 -0.0221 -0.1212
22528W        W65519   6.390   3.002  19.673  0.0637  0.0010 -0.0389
22529W        W65520  10.994  12.410   4.764  0.2986  0.1980 -0.0373
22530W        W65521   3.383  27.361  18.652  0.1767 -0.2961 -0.0930
22531W        W65522  24.222  22.926   8.610  0.2854  0.3341  0.1961
22532W        W65523  10.246  34.465   1.876  0.3038 -0.1688  0.0418
22533W        W65524  14.633  14.999   4.472 -0.0500 -0.2133  0.2207
22534W        W65525   9.707   9.532  21.903 -0.2985  0.2711 -0.1879
22535W        W65526   7.171   5.818  16.458  0.1124  0.1640 -0.2224
22536W        W65527   7.617  34.509   2.216 -0.0199 -0.3400 -0.0348
22537W        W65528   8.844   6.281  23.041 -0.2864 -0.0665 -0.3673
22538W        W65529  11.617   9.362   2.823  0.3387  0.0776  0.4141
22539W        W65530  16.993  34.433  25.565 -0.0725 -0.3607  0.0003
22540W        W65531  11.401   7.444  18.084  0.3495 -0.0059  0.0495
22541W        W65532   6.814  14.278  17.845  0.0487 -0.0878  0.2431
22542W        W65533  16.154   6.094  25.587 -0.0872  0.2276 -0.0780
22543W        W65534  32.201  30.312  25.982  0.2513  0.1906  0.0695
22544W        W65535  18.424  13.496  21.918 -0.2305 -0.0190 -0.0636
22545W        W65536   3.225   3.211  16.755  0.0635 -0.0582  0.0736
22546W        W65537  20.481  33.615  26.485 -0.1823  0.0216  0.1957
22547W        W65538   6.876  20.005  19.750  0.2539  0.1180 -0.1988
22548W        W65539   8.637  28.539  14.384 -0.0435 -0.2139 -0.0938
22549W        W65540  23.041   2.109  25.649  0.3074 -0.0310  0.1414
22550W        W65541   5.493   9.049  17.468  0.2260 -0.4663  0.1796
22551W        W65542  30.422  28.069  27.329  0.0677  0.0624  0.2333
22552W        W65543   9.543  18.839   7.782 -0.1292  0.0535  0.0015
22553W        W65544   1.122  10.486  17.222 -0.1260  0.0192  0.1039
22554W        W65545  17.163  25.334  20.317  0.4754 -0.0569  0.0275
22555W        W65546   9.099  14.430   8.617 -0.0563 -0.0976 -0.0301
22556W        W65547  31.513   5.005  21.295 -0.3354  0.1196 -0.3147
22557W        W65548  10.070  25.796   6.364  0.1607  0.0244  0.3361
22558W        W65549  32.806   1.872  22.761  0.0826 -0.1125  0.2856
22559W        W65550   1.432   0.878  24.732  0.1660  0.2177  0.0215
22560W        W65551   8.773   8.865  21.692  0.4382  0.0308 -0.3832
22561W        W65552   3.286   4.942  15.302 -0.1656  0.0010 -0.1152
22562W        W65553   6.635   4.292   6.587 -0.1883 -0.0323  0.0247
22563W        W65554   1.993  11.987  18.863  0.0134  0.0597 -0.0914
22564W        W65555   6.439  32.705  20.806  0.0659 -0.4991 -0.1796
22565W        W65556  12.664   3.248  16.342 -0.0525  0.1496 -0.3086
22566W        W65557  16.630   2.881   8.356 -0.0338  0.1029 -0.1265
22567W        W65558  18.603   2.734  25.287  0.1333 -0.0962 -0.0317
22568W        W65559   7.637   3.242  18.092 -0.2334 -0.0805  0.2139
22569W        W65560   4.987   9.326  10.687 -0.2509 -0.0081  0.2538
22570W        W65561   9.248  14.451  22.789  0.3164 -0.1709  0.1398
22571W        W65562  33.109  24.582   0.860  0.4251  0.3591  0.1258
22572W        W65563  34.270   1.860  22.737 -0.0056 -0.0813 -0.1003
22573W        W65564  20.823  32.435  13.930  0.3131  0.0695  0.0706
22574W        W65565  32.927   6.557  19.329 -0.1370 -0.0299  0.0571
22575W        W65566  12.596   3.213  24.499 -0.0202  0.3312  0.0242
22576W        W65567  30.590   5.093   3.360 -0.0203  0.1842 -0.1827
22577W        W65568  31.412  23.308  17.751  0.0823  0.0308  0.1315
22578W        W65569   9.970   3.403  15.862  0.1308  0.1366 -0.1815
22579W        W65570  30.113  22.481  14.778 -0.0529 -0.1413 -0.1833
22580W        W65571   6.044   5.279   0.318 -0.0872  0.3777 -0.1742
22581W        W65572  11.709   6.346  21.403  0.0496 -0.5941 -0.0872
22582W        W65573  29.317  25.393  20.414 -0.2240 -0.3909 -0.2071
22583W        W65574  18.059   6.237   9.680 -0.1005 -0.0191  0.2770
22584W        W65575  17.097  34.423  14.455 -0.1089  0.0061  0.4024
22585W        W65576   5.574  32.956  25.324  0.1256  0.1229 -0.0362
22586W        W65577  34.132  24.556  25.776  0.3004  0.1316 -0.0050
22587W        W65578  15.273  31.069   4.608 -0.0170  0.4328  0.2423
22588W        W65579  11.521  10.745   2.260  0.1305  0.2527  0.1299
22589W        W65580  11.539   4.537   8.089  0.0232 -0.0076  0.0129
22590W        W65581  20.034   7.246  22.214  0.2963 -0.1886 -0.0327
22591W        W65582   0.887  22.720   0.785 -0.4905  0.1961  0.0441
22592W        W65583  11.421  13.124  25.245 -0.1100  0.3091  0.0195
22593W        W65584   1.325   9.191   9.168 -0.1779  0.0163 -0.2254
22594W        W65585   9.251  11.990   7.688 -0.0533  0.0206 -0.3834
22595W        W65586  18.558   9.939  23.960 -0.0553 -0.0630  0.1389
22596W        W65587   7.975  33.245  16.448  0.4479  0.1802 -0.1618
22597W        W65588  22.765  21.389   0.860  0.0239  0.0977  0.0523
22598W        W65589   4.766  30.969   2.990  0.1173  0.0537  0.1200
22599W        W65590  26.541   0.842  23.891 -0.1938 -0.3039  0.3940
22600W        W65591  24.936  15.750   0.068 -0.0395  0.0629 -0.4728
22601W        W65592  21.850  10.340  27.130 -0.1661 -0.1331  0.1601
22602W        W65593   2.549   6.359   9.070 -0.1675  0.0639  0.2695
22603W        W65594  34.176  28.961  20.894  0.1296 -0.0069 -0.0255
22604W        W65595  30.034   4.159  21.313 -0.2143  0.2521  0.0729
22605W        W65596  33.931  26.839  20.506  0.2689  0.4024 -0.0168
22606W        W65597  24.102  15.872  15.014 -0.1270 -0.1967  0.0128
22607W        W65598   2.326   2.574  27.928  0.2126 -0.2793  0.1402
22608W        W65599  13.076  16.251  18.013  0.1978  0.0136  0.2836
22609W        W65600   7.237  21.249  27.602 -0.1467 -0.2522  0.0413
22610W        W65601   7.654   6.150  27.262 -0.0487  0.0989 -0.1688
22611W        W65602   9.563  22.495  22.645 -0.0661  0.0993  0.2685
22612W        W65603   0.591  23.676   0.150 -0.0167  0.1781  0.4059
22613W        W65604  18.435   8.035  28.198 -0.2026 -0.0241 -0.2809
22614W        W65605  32.257  11.092  21.691 -0.0113 -0.0444  0.0935
22615W        W65606   5.643  27.738   5.566  0.0342  0.0064  0.2769
22616W        W65607  22.938  32.264  26.182 -0.2540  0.2830 -0.1918
22617W        W65608  19.147   8.614   1.795  0.1633  0.0446  0.3100
22618W        W65609   7.980  33.573  20.944 -0.0591 -0.3204  0.0418
22619W        W65610   9.607  13.005   3.161 -0.0773 -0.0365  0.1979
22620W        W65611  25.302  27.643  18.268 -0.1331 -0.0479 -0.0753
22621W        W65612  25.738  10.208  19.568  0.1562  0.3354 -0.0339
22622W        W65613   3.342   6.840  20.450 -0.2609 -0.1745  0.0336
22623W        W65614  18.570  31.813  16.733  0.1467 -0.1659 -0.2540
22624W        W65615  12.942  25.052  17.517 -0.0900  0.0522 -0.4686
22625W        W65616   3.269  32.175  18.483  0.2485 -0.2595 -0.3419
22626W        W65617  34.675   8.364  16.863 -0.0296 -0.2924 -0.0237
22627W        W65618   6.051   3.199   1.277 -0.0512  0.0052  0.0257
22628W        W65619  29.873  34.183  26.157 -0.0595 -0.0543 -0.2113
22629W        W65620   2.473  34.700  26.082 -0.1018 -0.1095 -0.1097
22630W        W65621  29.282  24.103  17.434  0.2248 -0.0454  0.0046
22631W        W65622  10.814   9.339  14.759  0.0556  0.0209 -0.3658
22632W        W65623  34.643  14.750  19.587 -0.0801 -0.3033 -0.1876
22633W        W65624  26.190   2.116  24.006  0.1463 -0.0204 -0.1650
22634W        W65625   8.933   3.281   6.353 -0.1419  0.1227  0.0941
22635W        W65626  30.374  11.244   4.009 -0.0772 -0.0046  0.0635
22636W        W65627   4.237   0.858  15.266  0.0050  0.0622 -0.0683
22637W        W65628   0.661  16.444  12.239 -0.0328 -0.0813  0.2832
22638W        W65629  25.289  20.292  19.838 -0.1630  0.1547 -0.0238
22639W        W65630   9.631   4.352  15.895 -0.0588  0.2180 -0.1774
22640W        W65631  11.342   3.747  24.516 -0.0832  0.2475 -0.0115
22641W        W65632  16.350   6.462  16.821 -0.4256 -0.0253 -0.1974
22642W        W65633  12.293  31.676  19.263  0.0386 -0.5669  0.2007
22643W        W65634  19.112  17.782  26.956  0.1053  0.0430 -0.3764
22644W        W65635  17.070   6.649  27.618 -0.2052 -0.0740 -0.0615
22645W        W65636   7.443   1.984  16.647 -0.0463 -0.2385 -0.0535
22646W        W65637  26.874  28.296   2.436 -0.2121  0.0092  0.0012
22647W        W65638  22.358   7.272  22.279 -0.1630 -0.4534 -0.2711
22648W        W65639   4.623   9.603   7.852 -0.3410  0.0938  0.3106
22649W        W65640   7.883  27.382  24.401  0.2042 -0.0092 -0.3050
22650W        W65641  20.597  29.876  16.801 -0.0632 -0.0570  0.0904
22651W        W65642  29.932  12.010   7.036 -0.2368  0.3895 -0.3654
22652W        W65643   2.671   5.352  17.781 -0.0503 -0.1027 -0.0445
22653W        W65644  32.734   0.035  17.783  0.2253  0.0731 -0.1678
22654W        W65645  14.672  34.710  20.214 -0.0540 -0.3307  0.2485
22655W        W65646   2.426  25.203  16.965 -0.0681  0.3840 -0.1895
22656W        W65647   0.471  33.212  18.182  0.2219 -0.1363 -0.2673
22657W        W65648   9.719  12.965   1.137  0.1019  0.2727  0.0319
22658W        W65649   4.729   3.887   7.930 -0.0776 -0.0095  0.0409
22659W        W65650  10.232   1.169   6.513  0.0558  0.0612 -0.0051
22660W        W65651  31.671   5.468  13.937 -0.0415 -0.4340 -0.1614
22661W        W65652  26.316  16.663  17.326  0.2662  0.0649  0.0878
22662W        W65653  14.938   1.955   7.993  0.2207  0.1184 -0.0243
22663W        W65654  30.981  15.504  25.561  0.0763 -0.0927  0.2191
22664W        W65655   2.394  30.800   5.316 -0.0097  0.0317  0.1956
22665W        W65656   7.706   6.045  18.549  0.2277  0.2671  0.0365
22666W        W65657   4.615   8.973  19.603 -0.2418  0.1492 -0.1995
22667W        W65658  28.789   6.623  17.700  0.0998  0.1627 -0.1318
22668W        W65659  10.729   3.954  22.903 -0.0565  0.0188 -0.1890
22669W        W65660   0.122   4.456  24.916  0.0228  0.1145 -0.1958
22670W        W65661  32.209   0.733  23.335  0.0106 -0.0921  0.2879
22671W        W65662   1.216  20.381   6.387 -0.2826 -0.0891 -0.1544
22672W        W65663   9.907  29.261   8.267  0.0765 -0.0589 -0.0424
22673W        W65664   7.505  31.951  23.588 -0.0044 -0.2313  0.1089
22674W        W65665   9.815  10.839  23.739 -0.1627 -0.1694  0.2329
22675W        W65666  31.371  17.698  19.824 -0.1892  0.0756 -0.0303
22676W        W65667   1.759  10.766   1.634  0.2810 -0.1095 -0.2170
22677W        W65668  18.850  23.722   5.164 -0.0513 -0.1852  0.3078
22678W        W65669  14.116   9.844   8.803  0.0537  0.2011 -0.0798
22679W        W65670  27.933  26.186  18.887  0.1010  0.1598 -0.1089
22680W        W65671   7.663   2.294   2.432 -0.0011 -0.0034 -0.1105
22681W        W65672  20.945   9.613   9.040 -0.0514 -0.0973  0.0103
22682W        W65673   4.722   8.108   2.313 -0.0085  0.0340  0.0208
22683W        W65674  11.387  24.862  28.273  0.2098 -0.0218 -0.1694
22684W        W65675   0.535  25.765   2.503  0.3157 -0.0056 -0.1911
22685W        W65676   5.490  14.500   2.421  0.0002 -0.0553  0.0410
22686W        W65677  11.587  25.215  18.178  0.1632 -0.0587  0.1194
22687W        W65678   8.110  15.156  21.810 -0.0904  0.0742  0.1762
22688W        W65679   3.386  34.745   1.888 -0.0738 -0.1958  0.0126
22689W        W65680   0.871  13.206   3.005 -0.0833 -0.1196 -0.5129
22690W        W65681  18.467  16.627   0.436  0.0660  0.3380 -0.1022
22691W        W65682   1.879  12.814   5.662  0.1648 -0.1704 -0.1202
22692W        W65683   1.071   8.906  22.680 -0.0100 -0.1623  0.1247
22693W        W65684  16.549  23.905  26.856  0.1538  0.0047 -0.2671
22694W        W65685   8.531  33.654  14.232  0.2481  0.0862  0.0782
22695W        W65686  18.713  29.088   2.328 -0.0931 -0.1957 -0.1710
22696W        W65687  11.378  26.481  27.040 -0.2859  0.2011  0.2930
22697W        W65688  17.735  10.066  29.017  0.1327  0.0297 -0.5074
22698W        W65689  26.085   3.126  18.713  0.1100  0.4080 -0.0414
22699W        W65690   6.043  31.158  28.474 -0.0452 -0.1275 -0.0428
22700W        W65691   6.212  15.761  24.470  0.1311  0.0516  0.0292
22701W        W65692  18.391  13.606  22.443 -0.1659 -0.1383  0.1125
22702W        W65693   0.945   0.304   8.148 -0.2527  0.1216 -0.0972
22703W        W65694  26.655   8.599   9.034  0.5524  0.0535 -0.0089
22704W        W65695  30.687   5.168  22.612  0.1147 -0.3043  0.1223
22705W        W65696  11.161  25.615   8.867 -0.0476  0.1159  0.3016
22706W        W65697  13.458  34.502  25.666  0.2984 -0.1881  0.0685
22707W        W65698  13.976   4.938  24.876  0.0577 -0.1696 -0.0924
22708W        W65699  20.515  10.560  25.640  0.4228  0.1999  0.3614
22709W        W65700   9.009  33.203   9.674  0.1634 -0.1066  0.0449
22710W        W65701  23.768  19.387  25.889 -0.1391  0.1784 -0.0006
22711W        W65702   9.106  11.183  10.400 -0.3281 -0.4334  0.0978
22712W        W65703  24.164   2.059  16.575 -0.0167  0.2400 -0.0926
22713W        W65704   3.306  23.633  21.892 -0.1080  0.0785  0.3287
22714W        W65705  33.605  32.153   0.998 -0.0556 -0.0799  0.0537
22715W        W65706   4.927   5.478   6.163 -0.0879 -0.0519  0.1810
22716W        W65707   2.081   4.883   9.553  0.3601 -0.0708  0.1565
22717W        W65708  15.520  23.201  20.323 -0.1951  0.0662  0.2365
22718W        W65709  17.099  31.575  18.725 -0.1785 -0.1318  0.0237
22719W        W65710   4.503   1.053  21.923  0.1478  0.0726  0.3033
22720W        W65711  22.400   4.323  18.000  0.0432  0.2128  0.1234
22721W        W65712  19.187  15.590  16.095 -0.0787 -0.1483 -0.1844
22722W        W65713   4.880   3.793  10.485  0.1438 -0.0368 -0.0550
22723W        W65714   9.756   7.241   0.900  0.1292 -0.3958  0.1989
22724W        W65715  18.780  32.713   7.267 -0.1169  0.0811  0.1607
22725W        W65716  34.267  16.568   7.706 -0.0339 -0.0988  0.1678
22726W        W65717  24.860   6.476  14.210  0.1661 -0.0174  0.3471
22727W        W65718   5.945   4.227  27.164 -0.1507  0.2031 -0.1360
22728W        W65719   8.976  19.280  27.684  0.0820  0.3049  0.1893
22729W        W65720  14.435  32.935   2.142 -0.3750 -0.1371  0.1979
22730W        W65721  24.260  12.094  26.204  0.2212 -0.0250  0.0460
22731W        W65722   7.261  29.676  21.149  0.0699  0.0986  0.1125
22732W        W65723  10.135   2.090   3.902  0.0370  0.1281 -0.1964
22733W        W65724  30.145   9.767  27.850 -0.1143 -0.2001 -0.4290
22734W        W65725  34.332   8.284   0.321 -0.0918 -0.2335  0.1649
22735W        W65726  23.997   5.027  23.522  0.0754  0.0215 -0.2274
22736W        W65727   2.711  12.004   7.845 -0.2576  0.0261  0.0576
22737W        W65728  34.181   3.663   2.845 -0.3065  0.3188  0.2638
22738W        W65729  18.296  13.073   4.229  0.1452 -0.0479  0.0084
22739W        W65730   8.285   3.409   2.404 -0.3476  0.2882  0.1116
22740W        W65731  25.702  32.422  22.906 -0.0175  0.0859  0.1911
22741W        W65732   7.281   4.351   2.074 -0.0201  0.0988  0.2194
22742W        W65733   2.604  15.918  24.274 -0.0701  0.0750 -0.3342
22743W        W65734  12.876  13.966  17.598 -0.1914  0.1121  0.1749
22744W        W65735  11.726  10.368  15.683 -0.0092 -0.1087 -0.1100
22745W        W65736  12.978   7.605   2.849  0.1112  0.1720  0.1894
22746W        W65737  27.564  12.518  29.150  0.1196  0.2785 -0.1240
22747W        W65738   9.588   6.154   7.633 -0.0875  0.0606 -0.0274
22748W        W65739  28.798  30.627   0.091  0.0669 -0.0515  0.2104
22749W        W65740   4.229   7.655   7.079 -0.4669  0.0099 -0.0911
22750W        W65741  18.513  32.733  16.580 -0.3402 -0.1370 -0.0999
22751W        W65742   6.146   8.865   6.058 -0.1052  0.1079 -0.1834
22752W        W65743   1.557  32.685  28.468  0.0655 -0.1724  0.0750
22753W        W65744  29.974   3.637   9.206  0.0623  0.2607  0.2230
22754W        W65745  13.798  15.480   4.400 -0.2231  0.0899  0.1036
22755W        W65746  20.404  34.058  26.991  0.1320  0.0210  0.1052
22756W        W65747  22.565  26.336  21.358  0.1836  0.0542  0.3945
22757W        W65748   4.102   5.579  25.494 -0.1702  0.0597  0.1881
22758W        W65749  19.164   1.889  28.558 -0.3106 -0.1209  0.1075
22759W        W65750  12.678   8.162  19.240 -0.1566  0.0742 -0.1063
22760W        W65751   6.925  27.647  20.507 -0.1380  0.0037  0.1823
22761W        W65752  12.836  10.788  19.370  0.2078  0.2050  0.3208
22762W        W65753  32.718   5.014  23.715  0.0057  0.1224  0.2576
22763W        W65754  19.030  13.192   8.559  0.1517  0.1295  0.2046
22764W        W65755  15.654   7.036  17.322 -0.0771  0.0504 -0.0236
22765W        W65756  25.401   1.744  21.532  0.2714  0.2725 -0.0578
22766W        W65757  15.174   6.340   0.794 -0.1103  0.2038  0.0084
22767W        W65758  14.664  34.258  20.454 -0.0408 -0.2147 -0.0095
22768W        W65759  33.373  17.404  15.410 -0.1632 -0.1267  0.1906
22769W        W65760  30.774  12.536  18.976 -0.1539  0.4384  0.0921
22770W        W65761   7.888  11.792  18.042 -0.0759 -0.0684 -0.4390
22771W        W65762  13.582  33.121  28.369 -0.0475  0.0953 -0.2068
22772W        W65763   3.901  23.724  15.271 -0.3245  0.1349  0.0164
22773W        W65764  18.265  22.597   3.925  0.0243 -0.0337  0.5381
22774W        W65765  16.345  13.830  16.565 -0.3319  0.1326  0.1268
22775W        W65766  17.801   2.350  23.362  0.0994  0.2668 -0.0878
22776W        W65767  32.870  26.663  13.300 -0.2589 -0.0500  0.3852
22777W        W65768  20.162   8.629   7.213 -0.1930  0.0767  0.2213
22778W        W65769  31.645   8.327   0.569 -0.0706 -0.0193 -0.4329
22779W        W65770   8.336  20.149   5.499 -0.0896  0.1575  0.2089
22780W        W65771  21.735   7.444  14.414  0.0337 -0.1545  0.1754
22781W        W65772   6.235  10.330  25.890  0.3176  0.0150  0.3378
22782W        W65773   6.487  14.659  25.204 -0.2174  0.0985  0.0833
22783W        W65774  32.227   6.026   7.475  0.2760 -0.1132  0.0082
22784W        W65775   3.210  13.142  26.888  0.2177 -0.3876 -0.0197
22785W        W65776  31.912  28.037   7.071 -0.1144 -0.1264 -0.0262
22786W        W65777   4.933  27.894   8.173 -0.0981 -0.0509 -0.0234
22787W        W65778  11.495  10.681  22.282 -0.0153 -0.4102  0.1053
22788W        W65779  24.398  11.755  22.887  0.1354  0.1976  0.0962
22789W        W65780  22.938  16.646  14.283  0.1714  0.1784 -0.0153
22790W        W65781   1.755  20.132  29.057 -0.0625  0.1578  0.1292
22791W        W65782  21.013   2.367  24.516 -0.1353  0.1449 -0.1025
22792W        W65783  31.560  19.447  22.870 -0.1194 -0.0391  0.2109
22793W        W65784  24.917  21.342   3.061  0.4208 -0.1141 -0.0354
22794W        W65785  11.582  23.706  21.768  0.1572  0.1339 -0.1631
22795W        W65786   3.002  10.484   7.656 -0.3304  0.1485  0.0177
22796W        W65787  20.285  33.369   0.175  0.0905  0.3117  0.2144
22797W        W65788  19.904  25.330   3.964  0.3154 -0.1470  0.1059
22798W        W65789   2.570  33.640   0.887 -0.2775  0.0189 -0.0421
22799W        W65790  19.280  26.073   9.963 -0.2246  0.0836 -0.2434
22800W        W65791  13.508   5.011  23.283 -0.2142 -0.0764  0.3094
22801W        W65792  25.178  10.778   4.007  0.2417  0.1175 -0.0587
22802W        W65793   7.871   5.144  17.543  0.3094 -0.0112 -0.2834
22803W        W65794   8.119  13.107  25.797 -0.0892 -0.1425  0.0180
22804W        W65795  29.268  28.932  15.128  0.1477 -0.0278 -0.0323
22805W        W65796  11.455  32.528   4.786  0.0237 -0.0936  0.2478
22806W        W65797  31.120   8.036   2.216  0.0195 -0.0795  0.3324
22807W        W65798  15.536   4.152  17.961  0.2816 -0.1981  0.1999
22808W        W65799   3.132  11.534   6.470 -0.2557 -0.1382  0.0020
22809W        W65800   9.427  21.186   8.964  0.0473  0.0486  0.0983
22810W        W65801  28.972   8.468   6.655  0.1121 -0.0315  0.3590
22811W        W65802  11.821   9.382  19.599  0.2082  0.2100  0.0354
22812W        W65803  24.320   7.976   8.974  0.2141  0.1229 -0.0490
22813W        W65804   5.894   5.067  16.832  0.1433  0.2335 -0.1128
22814W        W65805   9.885   3.915  15.028  0.2541 -0.0565  0.0189
22815W        W65806   5.939  33.537   8.651  0.0525 -0.4142 -0.1044
22816W        W65807   4.491  23.864  21.014  0.0993  0.1709 -0.3188
22817W        W65808  23.176  32.377  27.269 -0.2071  0.0249  0.2237
22818W        W65809  12.555  29.497   1.183 -0.0780 -0.0670  0.3690
22819W        W65810   5.467   3.594   6.669  0.2203  0.1416 -0.0069
22820W        W65811  10.446   7.502  16.536  0.0013 -0.2012 -0.0510
22821W        W65812  26.331  14.617   1.872 -0.1084  0.1727  0.0429
22822W        W65813   1.496  31.287   0.218  0.2745  0.1230  0.1274
22823W        W65814  11.553  10.202   3.990 -0.2398  0.2708  0.4492
22824W        W65815   0.645  10.984  18.196 -0.2058  0.0620  0.4279
22825W        W65816  17.564  25.568   3.979 -0.3249  0.0628 -0.0566
22826W        W65817   4.418  13.463  17.141 -0.4136  0.0293  0.0373
22827W        W65818  14.785  31.750  21.756  0.3214  0.1768 -0.1346
22828W        W65819  11.352   0.387   8.639 -0.0680  0.1589 -0.0395
22829W        W65820   1.988  15.673  28.326  0.0904  0.1982 -0.0860
22830W        W65821  17.810   0.314   6.684  0.0045  0.0330 -0.2963
22831W        W65822   8.812  19.843  25.401 -0.1912  0.2561  0.2743
22832W        W65823   8.002  30.155  22.766 -0.2648  0.1313  0.0214
22833W        W65824  11.395  22.294  21.931 -0.1583  0.0615 -0.2516
22834W        W65825   9.160   3.099   2.119 -0.3159  0.0435 -0.1710
22835W        W65826   3.455  21.585   2.731  0.1315  0.3525  0.0122
22836W        W65827   4.088  11.368  21.071  0.1725  0.0226 -0.0856
22837W        W65828   1.768  30.846   8.742  0.1544 -0.0345 -0.0258
22838W        W65829   8.291   6.962   7.194  0.0801 -0.0561 -0.1264
22839W        W65830   7.874  29.850  19.089 -0.1409 -0.1179  0.1193
22840W        W65831  31.316   9.005  26.461 -0.2573  0.0954 -0.1762
22841W        W65832  26.915  12.690  16.288 -0.3255  0.4221  0.1029
22842W        W65833   8.238  27.519   6.175 -0.1017 -0.0665 -0.0182
22843W        W65834  19.800  14.645  28.475  0.0914  0.3613  0.3579
22844W        W65835  11.011  15.163  26.068  0.3005 -0.2114 -0.1251
22845W        W65836   2.619   6.419  18.568 -0.0414  0.1494  0.2544
22846W        W65837   4.683  16.311   9.950  0.0774 -0.5619  0.0031
22847W        W65838  17.023  23.109  13.993  0.0125  0.1824  0.0650
22848W        W65839  13.112   8.675   3.836  0.0465  0.2154 -0.1514
22849W        W65840   4.849  23.027   6.755 -0.0300  0.1151  0.2259
22850W        W65841   0.237   4.374   2.920  0.0038  0.1584 -0.0325
22851W        W65842  10.682  27.950  17.860 -0.1921  0.0348  0.1081
22852W        W65843   3.839  31.914   2.695  0.1397  0.0585 -0.1316
22853W        W65844   5.397   8.108   2.569  0.0438  0.0706 -0.0086
22854W        W65845   1.528   1.427  28.338 -0.0756  0.0744  0.0696
22855W        W65846   2.342  31.140  19.814  0.1025 -0.3140  0.0859
22856W        W65847  11.653  12.324   4.048  0.0432  0.1599  0.1293
22857W        W65848  13.349   2.670  28.135  0.1300 -0.2064 -0.0349
22858W        W65849   8.880  28.903  26.088  0.0824  0.4142 -0.1143
22859W        W65850  17.197  30.891   9.027 -0.1725 -0.0849  0.0360
22860W        W65851   1.674  25.235   3.768 -0.4312 -0.0772  0.0408
22861W        W65852  13.028  34.710   5.125 -0.0225  0.2406 -0.2347
22862W        W65853  16.931   4.794   1.016  0.0282 -0.5416 -0.0158
22863W        W65854  12.788  11.921  28.298  0.0384 -0.2960  0.0209
22864W        W65855  13.126   0.234   8.590  0.4093 -0.1064 -0.0294
22865W        W65856  15.536  34.729   7.331 -0.0122 -0.3358  0.0984
22866W        W65857  32.590  30.602  20.559 -0.3093  0.0367  0.0710
22867W        W65858  15.924  13.496  18.631  0.2759  0.0302 -0.1040
22868W        W65859   3.782   7.422   9.224  0.2202  0.3643 -0.1954
22869W        W65860  17.009   5.712  28.319 -0.1841  0.2857 -0.2292
22870W        W65861   5.814  11.188   1.526  0.2631  0.0824 -0.2260
22871W        W65862   3.567  18.859   9.620  0.2195  0.1752  0.2082
22872W        W65863  26.052   9.037   0.652 -0.0517 -0.2999  0.1152
22873W        W65864  29.537  16.212   0.375  0.2127 -0.0242  0.1948
22874W        W65865  15.211  30.821   5.657 -0.2640 -0.0939  0.1479
22875W        W65866  32.173  10.020  20.151 -0.0909 -0.1695 -0.0994
22876W        W65867  11.458  31.580   1.774  0.1031 -0.0471 -0.1666
22877W        W65868   8.021  11.900  24.022  0.1001 -0.0288  0.0784
22878W        W65869  32.923   2.861  21.942 -0.0619 -0.2850 -0.0022
22879W        W65870  19.818   2.986  26.012 -0.0063  0.1926  0.3720
22880W        W65871  13.690  10.292   8.441 -0.0459  0.0275 -0.1803
22881W        W65872   1.136  17.261  28.000 -0.1650  0.2085  0.0684
22882W        W65873  21.818  12.230   1.077  0.2561 -0.2185  0.1628
22883W        W65874  22.404  14.207  20.599 -0.1914  0.0976 -0.0921
22884W        W65875  14.938  22.139  28.856  0.1374 -0.1694 -0.0911
22885W        W65876   1.045  34.180  27.510  0.0498 -0.0668 -0.2322
22886W        W65877   9.390  10.352   6.500  0.2747 -0.2372  0.1837
22887W        W65878  20.214  28.894  19.397  0.2354 -0.0194 -0.4231
22888W        W65879  16.010   5.031  21.013 -0.1838  0.1443 -0.0897
22889W        W65880   7.425  21.141  23.144  0.1838  0.0317 -0.0237
22890W        W65881  19.945  26.922  27.069  0.2075  0.1909 -0.1749
22891W        W65882   9.860   7.560  25.285  0.0611  0.2099 -0.1226
22892W        W65883  12.021   5.855   8.447 -0.0189  0.0370 -0.2814
22893W        W65884  13.194  23.971  14.120  0.1976  0.0301 -0.0316
22894W        W65885   1.000   1.478   4.499 -0.1772 -0.2155 -0.1537
22895W        W65886   7.394  15.459   5.990  0.0027  0.3416  0.0633
22896W        W65887  13.782  29.817   1.601 -0.2801  0.0354  0.1520
22897W        W65888  15.334   5.434  26.193 -0.0177  0.1795 -0.0614
22898W        W65889  12.969  25.351  10.002  0.1070  0.2545 -0.2036
22899W        W65890  20.746   5.107  24.623 -0.0489  0.1159  0.1119
22900W        W65891  22.297  28.897  22.150 -0.2377 -0.0235  0.0015
22901W        W65892   1.670   1.648   2.873  0.0865  0.0305 -0.1722
22902W        W65893   5.177   6.897  10.814 -0.0642  0.1397  0.2680
22903W        W65894  17.881  30.252  21.212 -0.2212  0.1823 -0.0598
22904W        W65895   6.123   4.884  22.042  0.1567 -0.2445  0.3353
22905W        W65896  13.398   2.580   6.324 -0.1430 -0.1240 -0.1674
22906W        W65897  31.577  15.537  15.569  0.0404  0.0531 -0.5428
22907W        W65898  19.197  17.108  13.561 -0.0037 -0.2193 -0.1291
22908W        W65899   5.855  30.725  27.653  0.3798 -0.2179 -0.0920
22909W        W65900  10.890  13.795  24.897 -0.1538 -0.0727  0.0293
22910W        W65901  33.033  29.841  23.137 -0.2450  0.0125  0.0319
22911W        W65902  23.037   5.436  17.903 -0.2978  0.3972  0.1591
22912W        W65903  13.789  32.334  13.738  0.0954  0.0463 -0.0403
22913W        W65904   4.968   9.605   9.480 -0.2071 -0.0578  0.2831
22914W        W65905   9.890  10.456  10.062 -0.1114 -0.1371  0.1098
22915W        W65906  11.274  10.332  10.257 -0.1549  0.0830  0.0433
22916W        W65907  19.543  31.340   5.691 -0.1770 -0.1565  0.0717
22917W        W65908   7.211   7.656  17.707 -0.1081 -0.1066  0.1625
22918W        W65909  15.693  22.582  24.847  0.1482  0.2391 -0.2943
22919W        W65910  11.732  12.807  23.132 -0.1400 -0.0885 -0.0106
22920W        W65911  34.365  17.305  26.530  0.3085 -0.2201  0.2035
22921W        W65912  10.698   8.849  27.895  0.0211 -0.1813  0.0675
22922W        W65913   6.493   5.313  28.536 -0.4484 -0.1294 -0.2264
22923W        W65914   6.856  32.550   7.382 -0.2036 -0.0176  0.0135
22924W        W65915  27.682  33.304   0.245  0.1645  0.1152 -0.2551
22925W        W65916  24.625  34.333  28.262 -0.1611  0.0301 -0.1645
22926W        W65917  10.735   4.274  20.508  0.0377  0.0199  0.0008
22927W        W65918   9.697   6.168   9.768 -0.0493 -0.3767 -0.0531
22928W        W65919   0.382  28.701   1.094  0.1548 -0.1537  0.1504
22929W        W65920  28.403   3.175  21.836  0.0178 -0.1523  0.3548
22930W        W65921  34.189   9.202   9.047  0.0420 -0.2174  0.2030
22931W        W65922  12.593   9.157   0.277  0.2301 -0.1508 -0.0473
22932W        W65923  19.930   4.142   0.160  0.1391 -0.3773 -0.5683
22933W        W65924  10.170  11.614  23.321  0.1221  0.1063  0.3014
22934W        W65925  32.636  17.573  23.052 -0.3366  0.2602 -0.0983
22935W        W65926  29.303  13.365  17.989  0.7616  0.2566 -0.0328
22936W        W65927  11.957   5.758  14.305 -0.0182 -0.0030  0.1919
22937W        W65928   4.359   4.770  24.269 -0.4631  0.5212 -0.0023
22938W        W65929   7.412   4.732   8.397 -0.0921  0.0646  0.1736
22939W        W65930  29.087  33.572  22.220 -0.2035 -0.0843 -0.0579
22940W        W65931   6.477   8.179  19.152  0.0285  0.0842 -0.0697
22941W        W65932   6.632  17.097   7.061 -0.0735  0.0400 -0.1504
22942W        W65933   8.395  33.023   0.923 -0.0931  0.1705  0.1119
22943W        W65934  30.053   5.998  25.565 -0.0291  0.1905 -0.2390
22944W        W65935   0.546  13.945  27.614 -0.3426 -0.3506  0.3016
22945W        W65936   4.947   9.696  19.843  0.1522 -0.2328 -0.1210
22946W        W65937  33.200  31.910  13.674 -0.1633 -0.0185  0.1266
22947W        W65938   3.564   3.153  21.217 -0.0881  0.2883 -0.1489
22948W        W65939  23.217  16.391  25.908  0.1277  0.0966 -0.0208
22949W        W65940  15.499   7.413  28.867 -0.3619 -0.2181  0.1798
22950W        W65941  28.400   9.831  19.886  0.0800  0.1149  0.2330
22951W        W65942   7.020  11.483   9.150 -0.0347 -0.2011  0.1724
22952W        W65943   6.139  11.908  17.443  0.3756  0.2161 -0.0481
22953W        W65944   8.125  23.467  17.714 -0.2657 -0.0369 -0.0412
22954W        W65945  16.995  31.294   4.382 -0.0031 -0.1723  0.0887
22955W        W65946  15.709   9.221  18.708  0.1208  0.2478  0.0387
22956W        W65947  15.242  32.120  28.789 -0.0589 -0.0301  0.0461
22957W        W65948  33.943   6.155  29.237  0.1002 -0.0257  0.3953
22958W        W65949   2.226   9.066  27.223  0.0100 -0.0437  0.0025
22959W        W65950   4.718   7.096  26.424 -0.1935  0.1957  0.1374
22960W        W65951   0.241   3.583  26.849  0.1149  0.0191 -0.0272
22961W        W65952  34.704  13.044  23.363 -0.1999  0.0202  0.1155
22962W        W65953  31.034   8.372   6.284  0.1912 -0.1659  0.0552
22963W        W65954   9.933   1.084   2.360  0.1899 -0.0411 -0.0308
22964W        W65955   2.510  31.976   2.871 -0.3687  0.2797  0.2351
22965W        W65956   2.189   5.743  16.267 -0.3109  0.1437 -0.1002
22966W        W65957  23.065  34.596  23.040 -0.2574  0.1007  0.0572
22967W        W65958   8.139  11.331  23.944  0.0019 -0.0179  0.0631
22968W        W65959  24.407  23.096   3.681 -0.1130  0.0642  0.0877
22969W        W65960  30.997  21.278  21.971 -0.0563 -0.0266  0.0742
22970W        W65961  19.167   0.218  15.460 -0.1119  0.0641  0.0480
22971W        W65962  26.871   1.011   2.113  0.1391  0.0564  0.3117
22972W        W65963  29.905   8.390  19.837  0.0714  0.0841 -0.1783
22973W        W65964   2.571   9.773  22.313 -0.0100  0.0769 -0.0755
22974W        W65965  15.723  12.755   2.852  0.1232  0.4431 -0.0533
22975W        W65966  10.523  24.633  27.974 -0.0514 -0.2984 -0.0169
22976W        W65967  20.144  18.014  28.527 -0.0228  0.1918 -0.1682
22977W        W65968   5.651  22.953  18.609  0.0386 -0.1800 -0.1113
22978W        W65969  30.315   0.556   2.183 -0.1651 -0.1630  0.1504
22979W        W65970  13.965  32.266   2.348 -0.1819  0.0387  0.3495
22980W        W65971   6.857   2.522   6.020  0.0660  0.0065 -0.3624
22981W        W65972  16.828   3.579  26.551  0.0333 -0.0550 -0.0189
22982W        W65973  17.856  19.323  15.863  0.0513 -0.1542  0.1969
22983W        W65974  19.160   7.454   6.342  0.0850  0.0950 -0.0075
22984W        W65975  13.189  24.318  16.431  0.2045  0.0002  0.1784
22985W        W65976   0.503  31.933  27.453  0.1963  0.0328 -0.0136
22986W        W65977  16.115  32.613  25.661  0.1228  0.1285 -0.1435
22987W        W65978  34.468  13.490  29.041 -0.1027 -0.1542  0.0569
22988W        W65979   4.194  12.467   6.553  0.3605  0.1765  0.0509
22989W        W65980   3.265  13.309  23.880  0.2382  0.2209  0.1171
22990W        W65981   5.833  23.511   4.358  0.2284 -0.0722 -0.1652
22991W        W65982  33.286   5.769  21.997  0.1350  0.0959  0.2587
22992W        W65983  22.121  33.613  24.851  0.2243 -0.0812  0.1734
22993W        W65984  20.374  18.182   2.603  0.3651  0.1778  0.1681
22994W        W65985  29.401  10.533  14.337 -0.1925 -0.2726  0.0889
22995W        W65986   2.822   4.458  27.067 -0.1437 -0.0247  0.2484
22996W        W65987   5.533   3.465   4.205 -0.1861  0.1825 -0.1814
22997W        W65988  16.763  29.000   2.976  0.2636  0.1191  0.1009
22998W        W65989  24.054   6.329   8.129  0.0395  0.1787  0.1296
22999W        W65990  15.897   7.105  22.168  0.0396  0.0124 -0.1271
23000W        W65991   9.800  10.768  22.868  0.1562  0.0322 -0.0203
23001W        W65992  30.053  13.636   5.738 -0.2124  0.1885 -0.4870
23002W        W65993  27.140  11.903  14.842 -0.3781 -0.1608 -0.3600
23003W        W65994   2.828   5.009   6.858  0.3480  0.3337  0.0050
23004W        W65995  12.415   3.444   7.786  0.1745  0.0935  0.2644
23005W        W65996   3.705  34.699  28.431  0.1380  0.1387 -0.1437
23006W        W65997  11.051   7.520  17.732  0.0377  0.1834 -0.1069
23007W        W65998  16.416   2.913  17.832 -0.0196 -0.0798  0.0317
23008W        W65999   5.591   6.304  19.978  0.2825 -0.0244  0.0505
23009W        W66000  23.910   3.037  28.241 -0.0637  0.2884  0.0729
23010W        W66001  32.855  18.933  16.629  0.0022 -0.0347 -0.0343
23011W        W66002  14.049  12.185  14.497 -0.1660  0.2306 -0.2349
23012W        W66003   8.659  16.899  20.439  0.2628  0.0933 -0.1998
23013W        W66004  12.026  30.554  23.456 -0.1173 -0.0889  0.3224
23014W        W66005   5.165  31.464  28.678  0.1060 -0.1600 -0.0967
23015W        W66006  15.654  24.052  27.401 -0.0023  0.2029 -0.0321
23016W        W66007  29.600  18.106  19.547  0.0876  0.1730 -0.0134
23017W        W66008  11.480   0.446  21.359  0.0219 -0.1960 -0.0614
23018W        W66009  12.510  14.885  14.905  0.0082  0.1569  0.2170
23019W        W66010  12.488  15.488  25.874  0.1501 -0.2659 -0.1087
23020W        W66011  33.799   0.117   5.193 -0.1857 -0.0119  0.1590
23021W        W66012  34.073   7.724  21.616 -0.0436 -0.2863 -0.0768
23022W        W66013  14.174  19.968  25.357  0.0903  0.0242  0.1023
23023W        W66014  11.583   8.316   9.264 -0.1576 -0.1118  0.5108
23024W        W66015  10.282  11.477   6.039  0.0167  0.0961 -0.0810
23025W        W66016  14.485   1.987   8.252 -0.0985  0.2057 -0.1144
23026W        W66017   4.031  22.586  15.317  0.0986  0.2855 -0.0993
23027W        W66018   7.970  22.204  21.649 -0.2030 -0.0075 -0.3948
23028W        W66019   6.882  30.025  22.007  0.4446  0.4812  0.1016
23029W        W66020   7.221  27.932  17.872 -0.1706  0.1919 -0.1702
23030W        W66021   8.205  30.418  28.220  0.1245 -0.1172 -0.0079
23031W        W66022   6.475   4.185   0.141  0.3468  0.1895 -0.1284
23032W        W66023  19.017   8.452  25.837 -0.1143  0.0149 -0.2720
23033W        W66024  25.214  27.504  24.346  0.1112  0.0191 -0.1687
23034W        W66025   5.433   2.419  24.348 -0.1032  0.0407 -0.1703
23035W        W66026  10.091  24.570  24.613 -0.2826 -0.1796  0.1260
23036W        W66027  17.924  18.101  13.149 -0.0223  0.1289  0.0223
23037W        W66028   2.882   0.582  20.280 -0.0771 -0.0401 -0.4808
23038W        W66029  14.455   4.909  25.940 -0.0058 -0.1192 -0.5000
23039W        W66030   5.276  32.563  28.627 -0.0012  0.1160  0.1880
23040W        W66031  18.804   4.709   7.454 -0.1127 -0.0099 -0.2245
23041W        W66032   1.673  31.448   2.721 -0.1081  0.1335 -0.3402
23042W        W66033  10.096  16.544  14.692 -0.0142  0.2155 -0.1149
23043W        W66034   8.401  13.099  22.015  0.0143 -0.1218 -0.1665
23044W        W66035  30.452   3.511   4.815  0.2475 -0.2210  0.1546
23045W        W66036   9.548  26.959   7.349 -0.2850  0.0397 -0.1784
23046W        W66037   0.404  20.681  28.379  0.1868  0.0568 -0.1190
23047W        W66038   3.007  31.679   0.841  0.0444  0.1870  0.3889
23048W        W66039   5.340  14.775  11.166  0.3800 -0.0434  0.0518
23049W        W66040   6.628  10.257  18.715 -0.1249  0.1147  0.1639
23050W        W66041  22.043   3.168   2.067 -0.4517 -0.0127 -0.0285
23051W        W66042   8.118  19.533   1.348  0.0417 -0.1605 -0.0033
23052W        W66043   8.745  17.035  15.079 -0.1313  0.0477  0.2563
23053W        W66044  27.556  13.230  17.973  0.1473 -0.0228  0.0384
23054W        W66045  24.484   4.121   3.197 -0.1210 -0.0215 -0.2257
23055W        W66046  31.540  27.589  13.566  0.0672 -0.2795 -0.2479
23056W        W66047  31.880   3.454   4.417  0.0319 -0.1539 -0.2423
23057W        W66048  11.236   4.242   8.377  0.0044 -0.1888 -0.1653
23058W        W66049  18.282  11.736  18.392  0.1771 -0.2716 -0.0542
23059W        W66050  14.742  27.968  25.038 -0.2184  0.0258 -0.3054
23060W        W66051   5.445  16.141  28.085 -0.2369 -0.2433  0.2527
23061W        W66052  20.546  18.810   0.137 -0.2942  0.2342  0.0765
23062W        W66053  33.816   6.710   2.148 -0.4318 -0.1666  0.4388
23063W        W66054   6.471  21.254  25.604  0.3625  0.0486  0.0206
23064W        W66055  21.342   9.219  28.353 -0.1581 -0.0813 -0.1096
23065W        W66056  30.268   5.057  28.133  0.2934  0.1901  0.1222
23066W        W66057   0.400  33.734  22.699  0.1435  0.0956  0.1360
23067W        W66058  17.843  34.459  28.011 -0.0333 -0.0982  0.1068
23068W        W66059   7.526  20.951  25.379  0.0387  0.1471  0.3097
23069W        W66060   2.099   8.564   6.597 -0.0288  0.0504  0.1205
23070W        W66061  12.682  11.009  26.878 -0.0980  0.4429 -0.1691
23071W        W66062   4.179   6.529   9.260  0.2016  0.1068 -0.0691
23072W        W66063  29.995  34.373  27.990 -0.1300 -0.2205 -0.5464
23073W        W66064  25.623  13.638  17.374 -0.0436 -0.1913  0.1565
23074W        W66065   7.252  16.936   4.428 -0.1365 -0.2787  0.0890
23075W        W66066  17.501  26.466  26.937  0.0416  0.0488 -0.1808
23076W        W66067   0.566   8.075  18.127  0.2664 -0.1108  0.0197
23077W        W66068  31.855  15.573   2.759  0.3519 -0.0466 -0.1237
23078W        W66069  16.140  31.250   3.989 -0.1732  0.0498  0.0967
23079W        W66070  32.330   5.243  29.009 -0.0757 -0.1592 -0.1278
23080W        W66071  26.416   6.128   8.905  0.0900  0.2060 -0.3060
23081W        W66072  18.167   9.721  14.213 -0.0561  0.1888 -0.1899
23082W        W66073  31.502   6.331   2.835  0.1746  0.0403  0.1875
23083W        W66074  29.281  27.527   5.439 -0.0913 -0.0139  0.0123
23084W        W66075   2.278  22.092  27.352  0.1405  0.0884 -0.1714
23085W        W66076  33.021   8.111  17.109  0.0404 -0.0401 -0.1582
23086W        W66077   7.424  10.208   5.926  0.0684  0.1583  0.0377
23087W        W66078  25.060  25.312   3.923 -0.0136  0.1501  0.1451
23088W        W66079   9.590   0.623  23.446  0.0321 -0.0659 -0.1408
23089W        W66080  23.888   7.539   0.047 -0.1395  0.0578 -0.1393
23090W        W66081  28.916   5.962  22.904 -0.0102 -0.2902 -0.2101
23091W        W66082  13.551  12.042   7.110  0.1108  0.1676 -0.1234
23092W        W66083  23.248   9.524   7.896  0.1267 -0.1113  0.0135
23093W        W66084  11.599  30.912  25.032 -0.0102 -0.1512  0.1898
23094W        W66085  13.965  33.956  16.973 -0.0127  0.4050  0.1397
23095W        W66086  19.737   1.554  18.705  0.2079  0.0139 -0.2797
23096W        W66087  17.349  12.407  28.677  0.2797  0.1682 -0.2292
23097W        W66088   9.513  26.087   4.299  0.0359 -0.0732  0.1357
23098W        W66089   4.170  32.429   5.679 -0.0238  0.2154  0.1458
23099W        W66090   3.034  27.716   7.449  0.1774 -0.2346 -0.2863
23100W        W66091  19.499  10.879   8.003 -0.0752 -0.1342 -0.0609
23101W        W66092  10.077   2.529   7.114 -0.0936 -0.1937  0.0681
23102W        W66093  30.574   2.919  19.201  0.1566  0.0523  0.1260
23103W        W66094  33.285  14.737  16.743 -0.0373 -0.0727 -0.0482
23104W        W66095  15.443   1.748   7.437  0.0397 -0.1266  0.0909
23105W        W66096  11.099   7.482  18.704  0.0346 -0.0873 -0.0756
23106W        W66097  12.896   9.453  18.671  0.1101  0.2465  0.0537
23107W        W66098   1.191   7.547   6.244 -0.0740  0.0955 -0.0418
23108W        W66099   6.909  11.220   3.655 -0.0566 -0.0560 -0.2120
23109W        W66100   8.359  22.223  27.930  0.1733  0.0389  0.0926
23110W        W66101   2.888  32.993   6.946 -0.0877 -0.0339  0.3348
23111W        W66102  19.165  31.999   8.766 -0.1499  0.0073  0.0193
23112W        W66103  20.444  32.745  20.254 -0.3498  0.0700  0.1223
23113W        W66104   0.759   4.711  16.493 -0.1161  0.1703 -0.0113
23114W        W66105   2.150  10.392   8.439  0.3285  0.0195  0.0204
23115W        W66106  31.105  21.458  28.915 -0.0505 -0.1677 -0.0412
23116W        W66107  29.973  25.813  26.385 -0.3003 -0.1276 -0.0176
23117W        W66108  16.123   4.982  18.517 -0.1613  0.1110  0.1395
23118W        W66109  14.155  20.391  28.349 -0.2281  0.0937 -0.0090
23119W        W66110  33.645   8.627  11.220 -0.0389  0.0861 -0.2172
23120W        W66111   5.892  27.328  22.374  0.1212 -0.2378  0.0451
23121W        W66112   9.288  23.269  19.390  0.1480 -0.5845 -0.0984
23122W        W66113  14.592   2.679  20.422 -0.1368  0.1284  0.0826
23123W        W66114  31.575   4.541  23.065  0.1203  0.3684  0.2987
23124W        W66115   9.055  10.754  15.325  0.0922 -0.4824 -0.0655
23125W        W66116   6.672  24.387  16.700  0.0115 -0.2193 -0.1243
23126W        W66117  12.468  11.644  15.693  0.1888 -0.2405 -0.1645
23127W        W66118   1.291   9.141  20.756  0.1348 -0.1851  0.1813
23128W        W66119  10.754  19.774  23.969 -0.0176  0.2899 -0.0618
23129W        W66120  32.671  34.409  17.022  0.3596 -0.1024 -0.3404
23130W        W66121  27.777  21.237   1.894  0.0450  0.0648 -0.0720
23131W        W66122   2.407  17.769  23.039  0.0712  0.0139  0.0936
23132W        W66123  17.323   0.378  21.483  0.0317  0.0220 -0.0605
23133W        W66124   7.727   5.440   8.105 -0.2016 -0.1054 -0.1738
23134W        W66125  29.796  11.209  15.610  0.2721 -0.0453 -0.2939
23135W        W66126  28.785  17.209  24.794  0.1177 -0.0371  0.2149
23136W        W66127   4.482  28.108  23.455  0.0035 -0.2243 -0.0068
23137W        W66128   5.085  17.430  22.462  0.0771 -0.1015 -0.0129
23138W        W66129   4.453  23.075  16.135  0.1186  0.1041  0.0388
23139W        W66130   3.190   5.484   0.718 -0.0383 -0.1469  0.2236
23140W        W66131  32.523  10.310  18.094 -0.1267 -0.1901 -0.0919
23141W        W66132  32.395  16.237  17.158  0.3110  0.0005  0.0600
23142W        W66133   1.261  21.627  23.524  0.1279  0.0817  0.0039
23143W        W66134   5.276   3.381  16.574  0.4097  0.0079  0.0558
23144W        W66135  30.537   7.543  19.018  0.1143  0.3179 -0.0732
23145W        W66136   8.376  30.821   3.695 -0.3892 -0.2258  0.2016
23146W        W66137   3.774   1.413  17.726  0.1493 -0.0471  0.0998
23147W        W66138   7.271  12.703  23.857  0.2454  0.1369  0.0804
23148W        W66139  30.952  24.024  15.213  0.0541 -0.1046 -0.1321
23149W        W66140  28.021   2.192  19.943 -0.1336 -0.1003 -0.0403
23150W        W66141  34.303  14.617  18.187 -0.0001 -0.0471 -0.0989
23151W        W66142   0.493   7.548  17.184 -0.0879  0.2407 -0.1801
23152W        W66143   7.606  11.262  22.495  0.0876 -0.0613  0.0318
23153W        W66144  15.531   0.756  17.438 -0.2553  0.1765 -0.0079
23154W        W66145   2.069  15.768  20.127 -0.1265 -0.0240  0.2510
23155W        W66146  13.108   9.807   2.944 -0.0209  0.1393  0.1873
23156W        W66147  14.018   1.761  24.833  0.2183  0.1499 -0.0168
23157W        W66148  34.338  17.318  27.311 -0.2814  0.0013  0.0454
23158W        W66149   9.859  21.679  17.341  0.1221  0.2068 -0.0227
23159W        W66150  22.928   6.933  25.067 -0.0212 -0.1798 -0.0508
23160W        W66151   3.268  10.691   8.676 -0.3099 -0.3091  0.1090
23161W        W66152   5.137   3.029  17.279  0.0150  0.1206  0.0302
23162W        W66153   9.373  29.634  19.812  0.2897  0.0167  0.1796
23163W        W66154  18.518   1.408  15.459 -0.1756 -0.1137  0.0110
23164W        W66155   8.225  12.810  19.599  0.2285 -0.1942  0.0661
23165W        W66156  14.580   3.436  18.409  0.2642  0.3651 -0.2298
23166W        W66157  21.653  27.385  16.945 -0.2047  0.3272 -0.1615
23167W        W66158  27.431   8.877  20.564  0.2128 -0.0909 -0.0533
23168W        W66159  13.671   9.020  15.350  0.1363  0.0678 -0.0738
23169W        W66160  21.401  17.832  16.330  0.2665 -0.2801  0.1955
23170W        W66161  15.481   7.312  28.377  0.0016  0.1200 -0.0149
23171W        W66162   9.377   0.785  16.915  0.0154  0.1221  0.1256
23172W        W66163  21.148  19.463  24.988  0.4598  0.0568 -0.0436
23173W        W66164  11.461  18.877  16.376 -0.0506  0.0857  0.0438
23174W        W66165  33.066  10.896  15.430 -0.1118 -0.0643 -0.4781
23175W        W66166  17.539  10.325  24.702 -0.0446  0.0528  0.0639
23176W        W66167   2.360   3.338  15.471  0.1350  0.3458  0.0660
23177W        W66168  33.615   8.624  27.574  0.0331 -0.0221  0.0140
23178W        W66169   9.550   4.918  26.162 -0.0898 -0.5099 -0.3000
23179W        W66170   2.299  14.541  15.535  0.4415 -0.1018 -0.0825
23180W        W66171   1.478  15.537  22.474  0.1943 -0.0693 -0.0804
23181W        W66172  10.718   7.790  15.549 -0.0793 -0.0683 -0.0382
23182W        W66173  28.161  30.102  12.981  0.4146 -0.1095  0.0510
23183W        W66174   9.313   5.861  14.459 -0.0116 -0.1610 -0.2257
23184W        W66175  12.356   3.301  23.076 -0.0718 -0.0708 -0.0068
23185W        W66176   5.764  21.685  16.685 -0.0423  0.0266 -0.0639
23186W        W66177   6.361   5.152  19.507 -0.1264  0.2610 -0.0993
23187W        W66178   9.485  33.496  21.276 -0.0465  0.1876 -0.1022
23188W        W66179  33.136  33.842  20.664  0.1000  0.0414 -0.2547
23189W        W66180   4.069   9.778  20.006  0.0621 -0.0797  0.2268
23190W        W66181   8.242   8.733  19.048  0.0247  0.3035  0.0055
23191W        W66182   5.997  20.506  16.982  0.3574  0.4126 -0.2270
23192W        W66183   1.774  13.835  27.240 -0.3249 -0.1562 -0.0402
23193W        W66184  13.239   4.800  20.347 -0.1573 -0.2904  0.1558
23194W        W66185  28.253   7.217  14.111  0.1763  0.0286 -0.0433
23195W        W66186   8.808  34.750  17.312 -0.2490  0.0752 -0.1715
23196W        W66187  18.080   8.716  13.637 -0.2768 -0.2156 -0.1116
23197W        W66188  28.683  25.897   0.724  0.2170  0.1345  0.1442
23198W        W66189  22.062  12.666   3.527  0.2012  0.1715 -0.0683
23199W        W66190  31.129   7.121  20.035 -0.0475 -0.0677  0.0841
23200W        W66191   9.592   5.079  19.659  0.3815 -0.2130 -0.0709
23201W        W66192  15.824   3.184  21.825 -0.1122 -0.3554 -0.1137
23202W        W66193  31.325   9.214  17.447  0.3068 -0.1137  0.0190
23203W        W66194  34.498   0.986  22.227 -0.0388 -0.2311  0.1015
23204W        W66195  32.138  17.116  17.763 -0.3358  0.1232 -0.1040
23205W        W66196  25.295   0.586  18.235  0.1649 -0.2083  0.3786
23206W        W66197   0.438   7.407  22.480  0.3815  0.0585 -0.2830
23207W        W66198   8.251   0.119  19.636  0.2137  0.1721 -0.1094
23208W        W66199  32.808   1.431  17.506 -0.0596  0.0102  0.0845
23209W        W66200  12.571  16.077  17.034 -0.2047 -0.1774 -0.2711
23210W        W66201  18.878   5.282  23.683  0.1043 -0.0221 -0.2862
23211W        W66202  11.030  13.192  15.269  0.0069  0.2520 -0.2854
23212W        W66203  15.423  30.391  16.628  0.2453 -0.1570 -0.0053
23213W        W66204  22.057  13.226  19.264 -0.1013 -0.0450 -0.0660
23214W        W66205  29.499   7.864  17.837 -0.1169  0.1591 -0.0390
23215W        W66206   0.083   3.344  15.622 -0.1465  0.3601  0.0012
23216W        W66207   3.480  17.542  19.422 -0.0375  0.3762  0.1993
23217W        W66208   1.566   2.661  17.524  0.0697  0.1403 -0.0420
23218W        W66209  24.481   3.375  15.536 -0.0157  0.0141  0.0402
23219W        W66210   6.644  31.428  19.732 -0.1559  0.1677 -0.1139
23220W        W66211   2.382  12.901  27.009 -0.2564 -0.1252  0.3913
23221W        W66212  14.593  11.584   2.763 -0.0836  0.0293  0.0024
23222W        W66213   1.531   0.387  17.495  0.1311 -0.3778  0.0307
23223W        W66214  11.856  13.510  15.337  0.2300  0.1849  0.0435
23224W        W66215  11.574  10.010  20.607  0.2068  0.2022 -0.0876
23225W        W66216  25.708   4.099  24.021 -0.0185 -0.2195 -0.1650
23226W        W66217  11.855   0.710  23.132 -0.1561 -0.2932 -0.1974
23227W        W66218  30.948   8.094  13.219 -0.2146  0.2055  0.1799
23228W        W66219  33.025   3.661  17.568 -0.1206 -0.1139 -0.2504
23229W        W66220   5.385   2.776  25.025  0.1548 -0.3936  0.1666
23230W        W66221  11.669  14.975  14.641  0.1740 -0.0894  0.0939
23231W        W66222  30.224   2.840   6.518  0.0641  0.1740  0.1190
23232W        W66223  29.835   5.848  23.644 -0.0641 -0.0749  0.2510
23233W        W66224  30.948   4.191  19.078 -0.1419 -0.3406 -0.0728
23234W        W66225  27.309  10.339  19.695 -0.1821  0.1306  0.1782
23235W        W66226  28.601   1.937  16.865 -0.2025  0.1185  0.1656
23236W        W66227   3.542  24.039  19.321  0.1292  0.1979  0.0350
23237W        W66228   6.401  13.022  28.544  0.2144 -0.0127 -0.0646
23238W        W66229   7.308  14.220  25.411  0.0378 -0.2973 -0.2609
23239W        W66230  12.940  31.268  18.719 -0.0908 -0.2233  0.2396
23240W        W66231   1.132  20.308  28.521  0.0409 -0.1219 -0.1354
23241W        W66232   9.190   7.608  27.309 -0.1609 -0.1296  0.1617
23242W        W66233  24.837   3.737  23.068  0.3302  0.3597 -0.3669
23243W        W66234   0.994  33.557  16.633  0.0130 -0.0312  0.3129
23244W        W66235   3.167  18.594  18.186 -0.1641 -0.0274  0.1467
23245W        W66236  13.228  29.614  16.480  0.1203  0.0264 -0.0079
23246W        W66237  13.210  22.701  28.040  0.0689 -0.1452  0.0087
23247W        W66238   5.627  33.571  20.502 -0.0123 -0.1380 -0.2399
23248W        W66239  10.203   9.838  21.184  0.2486  0.0877 -0.0941
23249W        W66240  23.778   2.065   8.575  0.0818 -0.0268  0.2818
23250W        W66241  31.816  25.397   3.284  0.0722 -0.2038  0.2344
23251W        W66242  15.268  12.378  17.098 -0.0180 -0.0833 -0.0230
23252W        W66243   8.191  20.050  18.970 -0.1799 -0.0143  0.0818
23253W        W66244  14.499  31.374  16.783  0.0298  0.2916 -0.0523
23254W        W66245   9.295  18.978  14.203 -0.0793  0.1333  0.1551
23255W        W66246  17.709   7.302  17.776 -0.4027 -0.3327  0.0965
23256W        W66247  18.461  12.374  25.797 -0.0579  0.0533  0.0718
23257W        W66248  10.933  16.894  18.341 -0.1051 -0.1465  0.2437
23258W        W66249  20.915  19.365  13.939  0.4346 -0.0698 -0.0766
23259W        W66250  24.719   5.693  22.584  0.0633 -0.1976 -0.1275
23260W        W66251  26.837  20.045  16.944 -0.0525  0.0638 -0.0725
23261W        W66252  30.692  13.531  23.541 -0.0230  0.0803  0.1478
23262W        W66253   3.629  17.011  25.088 -0.1437 -0.2452  0.2287
23263W        W66254   3.113   8.717  24.689 -0.1674  0.2050  0.2874
23264W        W66255  24.019   1.925   2.365 -0.1189 -0.1076 -0.0541
23265W        W66256   4.967  34.100  19.490 -0.0535  0.0956  0.3101
23266W        W66257   0.859   9.973  23.376 -0.1817  0.0224  0.0809
23267W        W66258   1.219  13.479  20.945  0.0856 -0.3954 -0.0770
23268W        W66259   9.516  27.135  18.042 -0.1275 -0.3736  0.0436
23269W        W66260  10.287  24.084   4.909 -0.2004  0.1068  0.0500
23270W        W66261  31.261  14.791  22.337 -0.1330 -0.2352 -0.1622
23271W        W66262   6.494  10.173  17.090  0.0525 -0.2335 -0.3822
23272W        W66263  11.674   7.037  18.078  0.3324  0.3531  0.1681
23273W        W66264  14.420  13.424  13.949 -0.1404 -0.1448  0.0316
23274W        W66265  26.166  29.287   3.870  0.1115  0.2450 -0.0633
23275W        W66266  23.686  26.423  16.959 -0.0938 -0.1273 -0.2601
23276W        W66267   3.912  12.373  17.682 -0.1527  0.0681 -0.2707
23277W        W66268   2.920  30.094  21.664  0.2244 -0.2118 -0.4547
23278W        W66269  21.269  13.704  19.552  0.0877 -0.3937  0.1298
23279W        W66270  29.493   9.474  16.085 -0.2018 -0.0905  0.0328
23280W        W66271  32.955  16.235  27.767 -0.0402  0.0503  0.3799
23281W        W66272  12.202  22.049  17.624  0.1561 -0.0233 -0.2028
23282W        W66273   8.874   0.675  16.520  0.1706 -0.4271  0.1865
23283W        W66274   4.007   0.512  14.825 -0.0573 -0.0288  0.0089
23284W        W66275  34.101   0.928  19.156  0.1607  0.3277 -0.3078
23285W        W66276   6.874  26.591  13.829  0.2883  0.0689  0.2525
23286W        W66277  17.518  29.740  26.044  0.1897  0.0767  0.1032
23287W        W66278  32.870  14.298  18.153  0.0612  0.2665 -0.0737
23288W        W66279   1.479  11.248  22.935 -0.0447  0.1712 -0.2340
23289W        W66280   0.971  11.902  17.278  0.1879 -0.3419  0.0775
23290W        W66281  31.142  19.061  15.348  0.0876  0.0552 -0.2313
23291W        W66282  29.309  28.504  21.417  0.0695  0.0609 -0.1593
23292W        W66283  31.921  19.446  17.073  0.0737 -0.1668 -0.0777
23293W        W66284   1.141  13.000  18.545  0.0757  0.4114 -0.1903
23294W        W66285  21.726  25.381   5.033  0.1589  0.2679 -0.2727
23295W        W66286  25.948   7.982  22.421 -0.3267  0.1044 -0.0996
23296W        W66287  16.221   3.095  26.403  0.0063 -0.0181 -0.2795
23297W        W66288   3.546   3.704   1.272  0.1471 -0.0034 -0.0305
23298W        W66289   4.944  17.346  16.734  0.1497 -0.2663  0.0695
23299W        W66290  31.199   1.422  19.385 -0.0118 -0.3813  0.0177
23300W        W66291   6.457  11.597  15.459 -0.0102  0.3991 -0.0916
23301W        W66292  13.093  27.756   1.554  0.1084 -0.1036  0.0935
23302W        W66293  14.458   7.630  19.832 -0.1339  0.0282  0.0164
23303W        W66294  13.740   9.608  18.317  0.0860  0.0766  0.0737
23304W        W66295  13.431  17.652  24.170  0.2769 -0.1720  0.3687
23305W        W66296  30.157   2.056  28.199  0.1798  0.0132 -0.1132
23306W        W66297   2.800   7.698   2.389  0.1227  0.2351 -0.1281
23307W        W66298   0.426  14.661  18.692 -0.1160  0.2062  0.0475
23308W        W66299   1.611   9.641  22.172  0.1576  0.0471 -0.0565
23309W        W66300  14.437   5.079   5.060 -0.1516 -0.0428  0.1685
23310W        W66301  21.881   5.947  18.698  0.2719  0.0137 -0.1813
23311W        W66302   0.100   7.098  24.386 -0.1639  0.1174  0.1217
23312W        W66303  22.822  31.553   0.490  0.1309 -0.1366  0.0336
23313W        W66304   2.367  11.428  16.649 -0.1247 -0.0569  0.0194
23314W        W66305  11.612   3.316  27.285  0.3536  0.0929  0.0313
23315W        W66306  23.936   4.721  21.403  0.1820 -0.2458 -0.0503
23316W        W66307   8.039   7.661  15.983  0.1356 -0.0084  0.0902
23317W        W66308  13.131  12.232  21.377  0.1038  0.0865 -0.2247
23318W        W66309  32.727  11.803  25.860 -0.2327 -0.1426  0.0690
23319W        W66310  20.058  26.094   6.896  0.0610  0.2492 -0.4401
23320W        W66311  22.004  17.562  20.309  0.2149  0.1777  0.0225
23321W        W66312  28.682   6.269  23.809  0.3366 -0.1248 -0.1064
23322W        W66313  27.902  13.378  29.232 -0.1385 -0.1310  0.3497
23323W        W66314  10.176   8.460   3.483 -0.0769 -0.0657  0.1460
23324W        W66315   1.904  16.191  21.309  0.0079  0.0260  0.1686
23325W        W66316  34.418  33.604  19.938 -0.4790 -0.2971  0.1594
23326W        W66317   1.778  29.889  14.595 -0.1469 -0.0310 -0.0305
23327W        W66318   0.313  10.515  23.646  0.0925 -0.1948 -0.0338
23328W        W66319  27.333  16.466  18.757  0.2098 -0.3337  0.2570
23329W        W66320   1.115  14.394  17.787  0.0139  0.2193  0.2226
23330W        W66321  17.440  26.848  28.098 -0.3439 -0.1558  0.1477
23331W        W66322   2.732  12.787  22.095 -0.1900 -0.1210  0.0453
23332W        W66323  15.908  14.742   2.425  0.1907  0.1568 -0.1849
23333W        W66324  30.480  12.321  21.339  0.1122 -0.0310 -0.0758
23334W        W66325  31.016   9.327  18.886  0.0052 -0.1570 -0.1954
23335W        W66326   8.822  12.432  24.126  0.0986  0.1163  0.3188
23336W        W66327   6.925   0.905  18.918  0.0372 -0.0471  0.1015
23337W        W66328  20.045   7.782  18.010  0.0371  0.2051 -0.1035
23338W        W66329  26.148  15.253  18.483  0.3299  0.0313  0.2145
23339W        W66330  16.798   2.388   2.761  0.0112 -0.1882  0.1130
23340W        W66331  18.680   8.448  27.080 -0.2484  0.0760 -0.0441
23341W        W66332   0.698  20.627  20.058 -0.1404  0.0810 -0.0510
23342W        W66333   1.277   9.628  21.767 -0.0313 -0.0429 -0.0859
23343W        W66334  13.889  24.759  15.889  0.0958 -0.2567  0.0442
23344W        W66335   2.648  34.638  27.055 -0.0551 -0.2536 -0.3553
23345W        W66336  27.309  12.588  24.845  0.1969  0.4795 -0.4504
23346W        W66337  16.891   8.670  17.698 -0.0173 -0.1798 -0.2166
23347W        W66338   6.280   0.067   0.616  0.1587  0.2919 -0.1013
23348W        W66339   4.552   4.101  21.066 -0.2066  0.0966  0.0186
23349W        W66340   1.920  11.207  23.273 -0.0191 -0.2644  0.0782
23350W        W66341   4.325   7.043  27.372  0.0590 -0.1781  0.3446
23351W        W66342   3.038  30.785  23.535 -0.1388 -0.0398 -0.1034
23352W        W66343  11.188  32.266   2.241  0.0522  0.2260  0.0400
23353W        W66344   6.019  14.510  17.438 -0.2650 -0.0957 -0.2373
23354W        W66345   3.401   0.821   1.260 -0.0275 -0.0442  0.0256
23355W        W66346  18.852   9.109   8.323  0.0773 -0.1393  0.0406
23356W        W66347  14.616  31.445  18.433  0.2404 -0.1061  0.0705
23357W        W66348   6.305   8.736  16.203 -0.1043  0.1516  0.2673
23358W        W66349   3.983   1.157   5.897  0.0481 -0.3431 -0.2906
23359W        W66350   5.965   5.396  19.818  0.1609  0.4184  0.0984
23360W        W66351   0.913  18.668  21.633 -0.0304  0.0654  0.2909
23361W        W66352  29.895  14.829  17.907 -0.1359  0.0963  0.1741
23362W        W66353  12.992  16.615  25.307 -0.1578  0.1111  0.1181
23363W        W66354   0.060  21.229  23.323  0.2590  0.3402 -0.4738
23364W        W66355  29.448  24.313  23.703 -0.4047  0.3795 -0.0441
23365W        W66356   9.779  34.217  20.946 -0.1931  0.0290 -0.0456
23366W        W66357  13.839  20.485  12.870 -0.0717 -0.0264 -0.1961
23367W        W66358   2.011  33.887  15.516  0.0360  0.1025 -0.2039
23368W        W66359   4.344   5.810  20.774 -0.0249  0.1708 -0.1951
23369W        W66360  14.542  13.292  18.163 -0.2230 -0.1074  0.1058
23370W        W66361  31.210   4.686  16.727 -0.1394 -0.0672  0.1034
23371W        W66362   5.017  17.590   1.151  0.0064  0.1591 -0.0797
23372W        W66363   3.050  32.053  28.615 -0.0302 -0.0189 -0.2285
23373W        W66364  12.185   7.099   0.690 -0.1680  0.1244 -0.0347
23374W        W66365  34.357  11.868  18.669 -0.1310 -0.3076  0.0438
23375W        W66366  17.499  10.131  19.170 -0.0487 -0.2018  0.1256
23376W        W66367   3.742   2.165  15.199  0.1560 -0.0881 -0.0970
23377W        W66368  18.112   5.247  28.035  0.3660  0.1004  0.1086
23378W        W66369   5.494   7.665  26.782  0.2217 -0.1828 -0.0957
23379W        W66370  12.041   6.412   1.056 -0.0088  0.0982 -0.1902
23380W        W66371  25.127  33.288  19.247  0.0549 -0.1499 -0.2894
23381W        W66372  29.140   3.426  16.733 -0.0021  0.3201 -0.1904
23382W        W66373  22.629  17.169  28.112  0.1647  0.0021 -0.4059
23383W        W66374   6.427  23.442  24.266 -0.0231 -0.1385  0.0186
23384W        W66375   5.435  33.558  26.581 -0.1972 -0.1684  0.2061
23385W        W66376   5.326   3.263  19.340  0.2427  0.2124 -0.0577
23386W        W66377   9.298  13.175  15.872  0.0044 -0.1839 -0.0431
23387W        W66378  16.199  27.910  22.116 -0.1830 -0.3175 -0.2334
23388W        W66379  25.009  13.315  15.091 -0.2507  0.0912  0.2234
23389W        W66380  31.958  19.465  20.474 -0.1438  0.3665 -0.1041
23390W        W66381  27.958  15.197  25.847  0.0292  0.1339  0.0864
23391W        W66382  18.354  22.321  18.651 -0.0642  0.0599  0.2517
23392W        W66383  12.787  16.526  17.610 -0.3644 -0.0622 -0.0038
23393W        W66384  12.792  15.613  24.871 -0.2595 -0.0150  0.1635
23394W        W66385   3.139  32.482  18.846 -0.0225 -0.0340 -0.1143
23395W        W66386  27.953  13.965  22.928 -0.0339  0.3118  0.3669
23396W        W66387   6.855  17.522  18.308 -0.1907 -0.1349  0.0022
23397W        W66388  31.352   0.946  21.795  0.3458  0.0187  0.1773
23398W        W66389  29.665  27.558  14.329 -0.0060 -0.1909  0.0764
23399W        W66390   6.211  29.585  14.853  0.2275  0.0084 -0.0117
23400W        W66391   4.506   1.018  24.874 -0.1200  0.0070  0.0363
23401W        W66392  22.030   9.181  20.084 -0.1900  0.4452 -0.0335
23402W        W66393  15.007  15.620  14.640  0.0058  0.0904 -0.0880
23403W        W66394   6.292  29.982  23.750  0.2431  0.2529  0.1890
23404W        W66395  24.603  12.259  27.670 -0.2855  0.0737 -0.3224
23405W        W66396  22.325  24.786  24.114 -0.0624  0.2086  0.1333
23406W        W66397  15.243   0.704  18.030  0.0356  0.2848 -0.1295
23407W        W66398  14.421   8.290  22.422  0.1313  0.1038 -0.1940
23408W        W66399   3.870  30.640  18.025 -0.3608  0.1491  0.1748
23409W        W66400   8.295  17.227  16.786 -0.0038 -0.3559  0.3163
23410W        W66401   5.120  12.561  21.247  0.2477 -0.1016 -0.0505
23411W        W66402  11.272  11.328  23.947  0.0061  0.1364 -0.0606
23412W        W66403  33.922   8.957  17.682  0.1945  0.1240 -0.2573
23413W        W66404  22.437   6.001  22.916 -0.4828  0.1645  0.0202
23414W        W66405   4.094   6.382  17.477  0.0749  0.0849  0.3965
23415W        W66406   8.280   5.711   7.095  0.0041 -0.1778  0.1731
23416W        W66407  34.449   6.605  16.298 -0.2727 -0.0785 -0.0132
23417W        W66408  13.971  10.265  19.119  0.2177  0.0663  0.3295
23418W        W66409  12.733  28.544  18.329  0.1760 -0.0012  0.1672
23419W        W66410  33.875  24.357  27.031  0.0010 -0.0345 -0.2525
23420W        W66411   0.466  14.114   1.886 -0.2139  0.2782 -0.0851
23421W        W66412  30.499  10.272  22.004  0.1289 -0.3074 -0.0385
23422W        W66413  23.133  18.769  15.577  0.2898 -0.1066 -0.3376
23423W        W66414  12.977  11.088  16.674  0.0714  0.0448 -0.0220
23424W        W66415   2.763  10.400  25.733  0.5387 -0.4148  0.0467
23425W        W66416  11.336  31.557   0.377 -0.0241  0.0644 -0.1434
23426W        W66417   4.513   2.781   1.216  0.0910  0.1225  0.0125
23427W        W66418   7.817  20.801   4.320  0.2431  0.2372 -0.0568
23428W        W66419   3.502   1.465  14.847 -0.5049  0.0098  0.0668
23429W        W66420   7.921  14.253  23.615 -0.1295 -0.0276  0.2060
23430W        W66421  10.525  23.747  21.492 -0.4132 -0.5928  0.1327
23431W        W66422  32.795  27.633   7.326 -0.2147  0.0940  0.2046
23432W        W66423  23.575  29.968  26.789  0.0088  0.0259 -0.0556
23433W        W66424  15.286  10.188  15.777  0.3113  0.0879 -0.0391
23434W        W66425  11.466   6.231   2.115 -0.0330  0.0567 -0.5042
23435W        W66426   2.583   4.669  19.695 -0.1625 -0.2880  0.0293
23436W        W66427   5.928   7.930  22.355 -0.3391  0.1093  0.0846
23437W        W66428  20.810  34.153  23.944 -0.1968  0.0303  0.3073
23438W        W66429   9.740  10.509  14.743  0.1599  0.0607 -0.0880
23439W        W66430  12.986   4.335  27.036  0.1270  0.0905  0.0083
23440W        W66431   7.662  34.465  21.562  0.0491  0.2765  0.3768
23441W        W66432  18.677  26.328   6.081  0.1978 -0.1083 -0.1193
23442W        W66433  15.639  34.272   2.719  0.3905  0.1267  0.1239
23443W        W66434   2.638  22.605  16.652  0.1311 -0.2072 -0.1006
23444W        W66435   7.237  15.518  26.223  0.0119  0.1927 -0.1858
23445W        W66436   9.210   0.839  18.957 -0.0148  0.1389  0.0473
23446W        W66437  17.470  16.296   3.276 -0.2567 -0.0096 -0.0092
23447W        W66438  29.520  33.062  12.244  0.1169  0.1779  0.1691
23448W        W66439   1.587  24.548  16.463  0.3512 -0.3012  0.0861
23449W        W66440  14.043   0.675  27.959  0.0391  0.3189  0.2518
23450W        W66441   9.900  25.985  21.394 -0.1081  0.1592  0.1671
23451W        W66442   4.612  19.625  26.967 -0.0133  0.0597 -0.2963
23452W        W66443  29.503   4.161   4.786 -0.0400 -0.2848  0.0878
23453W        W66444   3.558  11.709  20.193 -0.1127  0.3262  0.0627
23454W        W66445  16.864   7.514   5.405 -0.1164  0.1616 -0.0254
23455W        W66446  32.980   7.550  28.984 -0.0935 -0.1382 -0.1901
23456W        W66447  27.206  25.377  12.923  0.1542 -0.0068  0.1165
23457W        W66448  32.992  26.614  14.545 -0.4815  0.0017  0.2990
23458W        W66449   2.760   2.052  21.373 -0.0951 -0.1697 -0.0379
23459W        W66450  31.754  10.659  14.964 -0.3080  0.0724 -0.2962
23460W        W66451   4.151   9.341  18.590 -0.0688 -0.1004  0.0151
23461W        W66452  30.590   0.167  25.339  0.0621  0.1087  0.1194
23462W        W66453  18.926   6.784   5.781 -0.0577  0.1412  0.0318
23463W        W66454  33.153  12.878  19.073 -0.0077  0.1238  0.0286
23464W        W66455   6.250  28.518  21.871 -0.0561  0.1097  0.1767
23465W        W66456  14.282   7.508  17.503  0.0367 -0.2007 -0.2062
23466W        W66457  16.822   1.806  17.952  0.0865  0.4080 -0.1910
23467W        W66458  24.146  18.486  14.763 -0.2732 -0.3545 -0.0278
23468W        W66459   6.291  30.161   0.042  0.1045 -0.0043 -0.2756
23469W        W66460   4.534  28.674  14.457 -0.0678 -0.0220 -0.0534
23470W        W66461   4.982   8.187  15.391  0.2993 -0.1145 -0.1974
23471W        W66462  11.679  32.666  19.704 -0.1835 -0.0224  0.1896
23472W        W66463   3.601   5.471  19.775  0.0978  0.3627 -0.2580
23473W        W66464   4.911  12.837  26.306  0.0353  0.1173  0.1312
23474W        W66465  27.367  10.341  20.711 -0.0054 -0.0439  0.0515
23475W        W66466  24.217   3.144  28.965 -0.2725  0.0452  0.0086
23476W        W66467  23.711  14.241  15.590  0.3328  0.1355 -0.1670
23477W        W66468   4.116   0.251  21.418 -0.1393 -0.1138 -0.0644
23478W        W66469  25.379  30.381   8.194 -0.3103 -0.1139  0.2091
23479W        W66470  15.027  34.656  27.619 -0.1105 -0.1004 -0.0284
23480W        W66471   8.674  28.283   1.725  0.1111  0.1148 -0.1425
23481W        W66472   0.080   0.778  16.193  0.1263 -0.0958 -0.5434
23482W        W66473  16.322  23.272  17.223  0.1824  0.0597  0.1184
23483W        W66474   3.246   8.805  15.448 -0.3368  0.3160  0.1755
23484W        W66475  31.993  13.149  23.666 -0.1062 -0.1545  0.0802
23485W        W66476  34.500  21.701   6.761  0.1804 -0.0803  0.1646
23486W        W66477   3.017  24.366  20.949 -0.2191 -0.1361  0.2469
23487W        W66478  11.973  31.217  17.757  0.0714  0.1508  0.0543
23488W        W66479  33.266  21.260  24.715  0.1589 -0.0579 -0.2281
23489W        W66480  21.040   1.802   2.137 -0.0163  0.1961  0.3588
23490W        W66481  10.923   2.085  15.261 -0.0703 -0.1594 -0.1345
23491W        W66482   7.916   7.709  21.144 -0.1990  0.0519 -0.0821
23492W        W66483   4.921  19.533   6.546  0.0670 -0.2099 -0.0095
23493W        W66484   1.532   0.471  15.658 -0.0186 -0.0701 -0.3276
23494W        W66485   6.645   4.000  19.071 -0.0015 -0.1022  0.1311
23495W        W66486   4.747  34.154  21.588 -0.0361 -0.1691  0.1221
23496W        W66487   3.927   3.340  19.010 -0.0733  0.3166 -0.2533
23497W        W66488  33.453   6.249  16.891 -0.0079  0.2228  0.1858
23498W        W66489   8.750  20.647  16.503 -0.1047 -0.2050  0.0721
23499W        W66490  19.216   5.202  27.058 -0.3809 -0.3090 -0.2277
23500W        W66491   9.959   6.195  23.933 -0.0424  0.3614  0.1564
23501W        W66492   3.014  11.982  18.184  0.0917  0.4589 -0.2656
23502W        W66493   1.296  16.842  18.486 -0.2441 -0.1472  0.4056
23503W        W66494   9.140  27.473   3.217  0.0554  0.1528 -0.1724
23504W        W66495  13.685   6.755  21.170  0.4831 -0.0841  0.1936
23505W        W66496  11.031   2.655  26.267 -0.2095 -0.0710  0.1157
23506W        W66497   0.890   0.381  14.389  0.5244  0.1077  0.0429
23507W        W66498  15.512  27.038  25.593  0.3047  0.1668  0.4741
23508W        W66499  11.671   6.625   0.103  0.1373  0.1994  0.0134
23509W        W66500  23.361   7.815  17.924 -0.3371  0.1548 -0.1285
23510W        W66501  12.755   2.057  25.460  0.0462 -0.1678  0.2447
23511W        W66502   8.556  12.675  16.215  0.2206  0.2112 -0.4061
23512W        W66503  28.130   1.510  21.676 -0.0787 -0.0940 -0.3620
23513W        W66504  11.626  17.523  21.359  0.1384  0.0268 -0.1804
23514W        W66505  13.794   7.516  20.839  0.0653 -0.1567  0.1014
23515W        W66506  30.486  10.144  20.306  0.1690 -0.0297  0.2158
23516W        W66507  30.119  32.777  19.817 -0.0820 -0.1351 -0.1330
23517W        W66508  13.703   1.095  24.485 -0.1613  0.1573  0.0959
23518W        W66509  26.516   8.373  16.800 -0.0833  0.1092 -0.2858
23519W        W66510  11.555  18.977  25.000 -0.0132  0.2497 -0.1737
23520W        W66511  11.978   3.761  20.231  0.2028  0.2448  0.3828
23521W        W66512  29.560   4.435  28.146 -0.2849  0.0381 -0.0123
23522W        W66513  33.588  11.219  25.614 -0.2662 -0.3797  0.0433
23523W        W66514   2.754   8.816   1.182 -0.1115 -0.3915  0.1934
23524W        W66515  28.464  11.508  16.266 -0.1563 -0.2449  0.3041
23525W        W66516   4.984   2.416  23.537 -0.1299  0.1871 -0.1201
23526W        W66517   8.020   1.111  20.694  0.0835 -0.0598 -0.1091
23527W        W66518   9.953   5.476  26.980 -0.4882 -0.0344  0.0492
23528W        W66519  26.494  24.804  19.544 -0.2749 -0.2791 -0.1269
23529W        W66520  15.177   4.858  18.274 -0.1688  0.2067 -0.0115
23530W        W66521   5.014  11.792  26.638 -0.0474  0.0997 -0.1113
23531W        W66522  17.786  21.694  13.058  0.0335 -0.1407 -0.0065
23532W        W66523  34.321   1.572  20.272  0.0579  0.2080  0.1417
23533W        W66524   8.273  12.289  20.719 -0.0550  0.2828 -0.1449
23534W        W66525  13.499   1.015  15.982  0.1065 -0.1079 -0.0663
23535W        W66526   2.668  29.990  19.953  0.0499  0.2036  0.5804
23536W        W66527  34.295  32.329  23.963 -0.0599  0.4087  0.1413
23537W        W66528  33.024   7.411  26.674 -0.3460  0.0066 -0.0398
23538W        W66529  10.165  13.002  24.246 -0.3178  0.1380 -0.2290
23539W        W66530   6.739   9.589  16.990 -0.2100 -0.2303 -0.1779
23540W        W66531  15.929   6.655  17.236  0.0378  0.3536 -0.0788
23541W        W66532  33.573   1.622  24.803  0.2340  0.2600 -0.1473
23542W        W66533   9.292   0.961  14.991 -0.2932 -0.1814  0.2717
23543W        W66534  27.364  18.903  15.576 -0.0457  0.1491  0.0624
23544W        W66535   0.554   4.093  25.762 -0.1192 -0.0167 -0.2377
23545W        W66536   3.400   9.932   0.507 -0.1196  0.2312 -0.1224
23546W        W66537   1.933  20.754  16.080  0.2172 -0.1109 -0.1306
23547W        W66538  19.253  17.932   3.746  0.1219 -0.1317 -0.2729
23548W        W66539   1.232  10.253  18.138 -0.1062 -0.0519  0.1597
23549W        W66540  12.798  30.445  18.348 -0.3264  0.2732 -0.3624
23550W        W66541   1.995  12.070  18.377  0.1907 -0.1436 -0.1778
23551W        W66542   8.036   6.335  26.623 -0.0240  0.0126  0.1616
23552W        W66543   5.013  14.463  18.390  0.1103 -0.3621  0.1748
23553W        W66544   6.467  12.838  18.314  0.0000  0.0040  0.2023
23554W        W66545   9.801   5.846  17.275 -0.0875 -0.0281 -0.3390
23555W        W66546  29.253  12.599  20.080  0.0059 -0.0867 -0.0615
23556W        W66547  15.999   9.185   2.855  0.2062  0.0076  0.0227
23557W        W66548   8.576  13.878  22.521  0.1557 -0.0251  0.2541
23558W        W66549  27.696  14.430  27.300  0.0645  0.1433  0.0996
23559W        W66550  12.461  27.111   5.515  0.0312 -0.2875 -0.0607
23560W        W66551   8.896  10.815  16.151  0.0929  0.1301  0.0334
23561W        W66552  29.696   3.631  17.332  0.1188 -0.2147 -0.0078
23562W        W66553   8.921  33.507  27.053 -0.2073 -0.2289  0.0554
23563W        W66554  31.995  34.444  20.138  0.2218 -0.0015 -0.4113
23564W        W66555  10.925   4.821  29.131  0.2414  0.0708 -0.1947
23565W        W66556   9.214  25.950   0.985  0.3291 -0.2895 -0.1802
23566W        W66557   8.801  29.501  14.978 -0.0310 -0.0297 -0.1109
23567W        W66558  11.939  10.949   5.544  0.2780  0.0402 -0.3122
23568W        W66559  23.560  16.819   0.265 -0.3477  0.0797  0.2125
23569W        W66560  14.670  33.754  17.214 -0.0437  0.3390  0.2195
23570W        W66561   8.088   7.938  17.328 -0.1573 -0.2378 -0.1054
23571W        W66562   5.334  10.681  18.180  0.0270  0.0325  0.1730
23572W        W66563  13.470  10.853   1.704  0.3463 -0.0456 -0.0924
23573W        W66564   1.157  30.294   6.918  0.0384  0.4107  0.4251
23574W        W66565  30.779  15.242  21.225  0.1621  0.0553 -0.0862
23575W        W66566  13.724   1.913  19.754 -0.1897 -0.2954 -0.0023
23576W        W66567  16.618  13.413  15.192  0.2518 -0.1610  0.1145
23577W        W66568   3.934   1.673  22.198 -0.0431  0.0679  0.1132
23578W        W66569  24.517   4.977  18.213 -0.1615  0.0121  0.3550
23579W        W66570  27.783   8.862  25.064 -0.1916 -0.1981 -0.1346
23580W        W66571  31.695   1.265  21.422  0.0402 -0.5158  0.0395
23581W        W66572   0.899  25.041  18.724 -0.1404 -0.2069  0.2040
23582W        W66573  24.515   1.377  21.805  0.1140  0.0120 -0.2286
23583W        W66574  16.365   8.535  23.316  0.3606 -0.2149 -0.2094
23584W        W66575  14.551   9.132   1.371  0.0414  0.1733 -0.0245
23585W        W66576  30.596  15.498  22.551 -0.0218  0.0553  0.1752
23586W        W66577  13.881  20.938  28.856 -0.0855  0.1556  0.2129
23587W        W66578  29.855  33.255  24.553 -0.2520  0.2748  0.2946
23588W        W66579  31.152  24.935  17.749 -0.0798 -0.3031 -0.1447
23589W        W66580  32.320  21.711  28.692  0.2324 -0.1175  0.0444
23590W        W66581   6.195   7.605  26.060 -0.4751  0.0502  0.2289
23591W        W66582   2.511   1.028  16.364  0.1725  0.1012 -0.0523
23592W        W66583   0.583   5.136  22.461 -0.3234  0.0582  0.0482
23593W        W66584  32.679  13.382  16.389 -0.2805 -0.0651  0.2450
23594W        W66585  33.418  23.658  26.833 -0.0035 -0.2310 -0.0226
23595W        W66586   7.946  11.488  26.262  0.1784  0.0371  0.1712
23596W        W66587  29.871  27.621  21.836  0.0485 -0.3748 -0.0904
23597W        W66588  29.635  17.285  25.418 -0.1027  0.1689  0.1140
23598W        W66589  24.429   6.013   0.494 -0.5022 -0.1221 -0.1012
23599W        W66590   8.791  19.799  29.011 -0.1105 -0.3439  0.1403
23600W        W66591  14.587  24.063   2.952 -0.2817 -0.4870 -0.3138
23601W        W66592  11.917   6.265  20.636  0.0668  0.0978 -0.0054
23602W        W66593  26.564   7.716  23.706 -0.1029  0.1382  0.0115
23603W        W66594   4.378  11.835  16.184 -0.0168 -0.1113  0.2517
23604W        W66595  22.118   6.497  24.869  0.1369  0.2198  0.0821
23605W        W66596  26.925  17.951  23.661  0.0621 -0.0737 -0.3225
23606W        W66597  26.837  11.924  19.219 -0.2545  0.0156 -0.0872
23607W        W66598  20.810   1.641  22.200 -0.3375  0.1334  0.3349
23608W        W66599   2.974   8.451  21.846  0.1078 -0.0235  0.4559
23609W        W66600   9.469  12.727  16.122 -0.0984 -0.3867  0.0209
23610W        W66601   2.199  20.229  19.766 -0.2002 -0.2857  0.3526
23611W        W66602  12.279   4.597  17.774 -0.1098 -0.1702 -0.0214
23612W        W66603  20.298  30.150  22.401  0.1357 -0.2229  0.1609
23613W        W66604  19.194  23.030  14.586  0.2928 -0.0190 -0.0048
23614W        W66605  27.107   7.791  18.299 -0.2853  0.2451 -0.1530
23615W        W66606  19.830  20.419   6.703 -0.2849  0.3042 -0.1047
23616W        W66607   7.473   5.610  25.729 -0.2646 -0.0206  0.0855
23617W        W66608  29.077   9.532  28.284 -0.0230 -0.0452 -0.2262
23618W        W66609  10.355  34.225  23.547 -0.0235 -0.2704  0.2400
23619W        W66610  32.535   6.971  20.839 -0.0880 -0.3071  0.0767
23620W        W66611   6.905   3.281  22.860 -0.3478 -0.1902  0.2697
23621W        W66612   0.917   4.336  28.815  0.0777 -0.2467 -0.0878
23622W        W66613   2.615  24.061  16.407  0.1489 -0.0287  0.1817
23623W        W66614   9.662   3.349  10.352  0.0366 -0.0723 -0.5393
23624W        W66615   4.704  11.349  24.172 -0.2414 -0.1426 -0.0450
23625W        W66616  21.512   5.782  17.692 -0.1458  0.1947  0.2080
23626W        W66617  13.020  13.013  20.716 -0.1396  0.0740 -0.1196
23627W        W66618   9.667  15.150  16.203  0.1305 -0.0636 -0.1739
23628W        W66619   7.267  17.291  25.140  0.0589  0.0267 -0.0837
23629W        W66620  33.198  28.982  15.883 -0.0470 -0.2961 -0.0311
23630W        W66621   6.343  28.497  23.694 -0.0361  0.2393 -0.2151
23631W        W66622  18.608   8.859  15.125  0.1908  0.1267  0.0907
23632W        W66623  14.836   5.230  21.071 -0.2313  0.0543  0.0142
23633W        W66624   5.750   7.073   1.347 -0.3763 -0.2461 -0.0300
23634W        W66625   0.033  30.871  14.917  0.1484  0.0472  0.0824
23635W        W66626  11.258   4.403   1.380  0.1043  0.0979  0.1117
23636W        W66627   1.708   8.403   2.251 -0.2133 -0.6123 -0.0450
23637W        W66628  27.546  11.271  20.988 -0.1028 -0.3673  0.2976
23638W        W66629  20.423   7.344  21.007  0.0977  0.4960 -0.2194
23639W        W66630  10.112   9.522  25.223 -0.1926  0.0507  0.1836
23640W        W66631  28.051  13.927  21.615  0.0276  0.0646 -0.1802
23641W        W66632  23.176  10.638   3.071  0.0871 -0.2764  0.3363
23642W        W66633  22.850  16.299  23.603  0.2514  0.1759  0.0131
23643W        W66634  11.056  14.369  23.095 -0.0401  0.2368  0.2012
23644W        W66635   3.557  18.556  24.572 -0.0737 -0.2060  0.0025
23645W        W66636  16.107  27.829  16.386  0.1614  0.0172  0.0574
23646W        W66637  19.898   7.721  23.509 -0.2151  0.0054  0.1662
23647W        W66638  20.468  11.031   5.171 -0.0545  0.0157 -0.0048
23648W        W66639  34.097  12.803   0.372 -0.2023 -0.0311  0.0098
23649W        W66640  29.628  33.650  13.161  0.0514 -0.2976 -0.4210
23650W        W66641  22.543  10.360  22.682 -0.1240  0.2633  0.0744
23651W        W66642  28.591  10.043  27.343  0.0307  0.0730 -0.1504
23652W        W66643   6.310  18.488  21.172 -0.3745 -0.2947  0.0039
23653W        W66644   4.975  32.173  19.573 -0.0181 -0.0099  0.1073
23654W        W66645  20.828   3.155  24.956  0.0866  0.2404 -0.0753
23655W        W66646   1.106  24.872   0.749  0.1009  0.1756 -0.1994
23656W        W66647  15.125  24.832  19.320 -0.2627 -0.4422  0.4700
23657W        W66648  14.230  31.510  22.553  0.3573  0.1045  0.3205
23658W        W66649  12.863   8.464   3.163  0.3178 -0.0191  0.1206
23659W        W66650  16.289  19.048  12.987  0.1929  0.0074  0.2391
23660W        W66651  30.301   3.177  24.782  0.2456  0.0498 -0.1875
23661W        W66652   9.877   1.180  20.622 -0.1639 -0.1829 -0.1103
23662W        W66653   2.404  23.788  17.313  0.1501 -0.2174  0.6104
23663W        W66654   3.667  23.844  17.031 -0.1318 -0.1050  0.1564
23664W        W66655   7.183  10.221  23.616 -0.0179 -0.0641 -0.1831
23665W        W66656  32.384   1.209  23.511 -0.3724  0.1599 -0.0090
23666W        W66657  32.267   2.539  16.921  0.1681  0.0080 -0.1965
23667W        W66658   7.307  20.052  21.924  0.3212  0.0670 -0.2967
23668W        W66659  15.811   5.627  18.370  0.0810  0.0306 -0.3591
23669W        W66660  32.435   3.484  16.413 -0.1402  0.0224 -0.0747
23670W        W66661   7.762   7.417  18.519  0.1459 -0.0033 -0.0011
23671W        W66662  10.816  24.232  15.917 -0.2051  0.0606  0.1043
23672W        W66663   7.652  11.621  21.221  0.0572 -0.2664  0.0158
23673W        W66664  25.807   0.908  21.290 -0.1041 -0.0379 -0.0674
23674W        W66665  12.506  10.239  15.613  0.0101  0.1204 -0.0778
23675W        W66666  12.198   5.023  25.408 -0.0233  0.0918  0.1317
23676W        W66667   8.482   4.219  25.418  0.2197  0.0604  0.0434
23677W        W66668  13.916  22.092  23.300  0.1798 -0.1703  0.2250
23678W        W66669  11.321  31.921  28.335  0.1152  0.0719  0.0168
23679W        W66670  13.478   4.620   0.217 -0.0516  0.4186  0.0670
23680W        W66671   2.937  23.363  25.450  0.1072 -0.4673  0.0860
23681W        W66672   8.526   6.290  27.188 -0.3089 -0.3179 -0.1512
23682W        W66673   4.877   5.457   7.453  0.0922 -0.0628  0.3316
23683W        W66674  30.181  27.468  21.054 -0.0800 -0.2388  0.1795
23684W        W66675   6.406  28.263   0.424  0.1879  0.2483 -0.2549
23685W        W66676  20.244   0.974  21.426  0.0595 -0.0349 -0.1625
23686W        W66677  29.047   8.985   1.780 -0.0911  0.0390  0.0364
23687W        W66678  33.262   6.633   4.948  0.1185 -0.0738  0.0798
23688W        W66679   6.754  11.426  24.425 -0.0584  0.1441 -0.1358
23689W        W66680  34.673  16.343   3.128  0.0931 -0.0319 -0.1834
23690W        W66681   1.884  28.872  25.696  0.2644  0.0061 -0.3485
23691W        W66682  11.485   0.929  21.234 -0.0110 -0.0988 -0.0243
23692W        W66683   4.907  13.150  22.613  0.3214  0.0490  0.1083
23693W        W66684  29.713  10.698  21.723 -0.0435 -0.1905  0.3576
23694W        W66685   5.541   1.452  14.477  0.0452 -0.0445 -0.1152
23695W        W66686  32.442   1.163  20.464 -0.2719 -0.2007 -0.0010
23696W        W66687  26.993   5.349  23.274  0.4182  0.3762 -0.2615
23697W        W66688  19.352   7.206  19.940 -0.0760 -0.2126 -0.0774
23698W        W66689  22.815   4.800  19.796 -0.1315  0.0136 -0.1286
23699W        W66690  12.632   5.093  16.313  0.0759  0.0098 -0.0719
23700W        W66691  22.971   9.006  21.453  0.0216 -0.0494 -0.0915
23701W        W66692   8.599  18.490  20.821  0.1756 -0.0734 -0.1088
23702W        W66693  33.941  21.772  18.913  0.1138  0.1206  0.0893
23703W        W66694  14.366   4.646  16.055 -0.2206  0.0691 -0.2561
23704W        W66695   4.010  18.304  17.045 -0.2714 -0.1413 -0.1359
23705W        W66696  26.270   0.188  22.752 -0.2364 -0.0719 -0.0224
23706W        W66697   2.361  15.900   9.316  0.2124 -0.1519 -0.1330
23707W        W66698  19.862  33.233  21.656 -0.2026 -0.1789 -0.2242
23708W        W66699   8.136  10.663   1.611  0.0727 -0.3235 -0.0430
23709W        W66700   6.330  12.875   5.249  0.0808  0.1949 -0.1668
23710W        W66701  13.460  10.015  17.446  0.1650  0.0781  0.0326
23711W        W66702   0.256  17.547   5.152  0.3505 -0.1655 -0.1466
23712W        W66703  20.596   7.251  22.959 -0.0781 -0.1031  0.2194
23713W        W66704  30.273  30.182  14.296  0.1134  0.2389 -0.2346
23714W        W66705   4.343  14.316  19.134 -0.1709  0.1090  0.1527
23715W        W66706  16.328  10.418   2.148 -0.0265 -0.0357  0.0048
23716W        W66707  31.503   7.138  14.140  0.1678  0.1745  0.2977
23717W        W66708  33.360  11.590  15.702 -0.1383 -0.0686  0.1648
23718W        W66709  26.510  33.955  13.943 -0.1103  0.1877  0.1684
23719W        W66710  11.859   7.036   5.663  0.2990  0.0193 -0.1191
23720W        W66711   8.840  12.909   0.066  0.1268 -0.1940  0.0003
23721W        W66712   4.532  28.084   1.633  0.1132 -0.0870  0.0156
23722W        W66713  20.177   9.834  21.144 -0.0496  0.1241  0.0028
23723W        W66714   5.835   6.214  24.308  0.1455 -0.0552  0.2881
23724W        W66715  29.753  11.226   1.730  0.0040  0.0483  0.1096
23725W        W66716  16.690   3.011  17.414 -0.2104  0.0288 -0.0824
23726W        W66717  23.817   8.331  26.087  0.1021  0.3812  0.4168
23727W        W66718   5.887  33.931   0.240  0.0504  0.0560  0.0281
23728W        W66719  31.642  21.966  14.413 -0.0434  0.0977  0.0165
23729W        W66720   1.192   8.037   6.762 -0.1807  0.2320  0.1082
23730W        W66721  30.684  14.555  15.488 -0.2538 -0.0344 -0.0124
23731W        W66722  30.729   4.734  16.064 -0.0750  0.1072 -0.1003
23732W        W66723  31.950  16.915   0.707  0.1383 -0.2603  0.4229
23733W        W66724   3.906   8.679  22.316 -0.4143 -0.1493 -0.0462
23734W        W66725  16.711  22.540  20.374  0.0112 -0.0243  0.0092
23735W        W66726   2.558  30.311   1.443  0.3009  0.0969  0.2266
23736W        W66727  30.670  10.564  27.068  0.1704 -0.0872 -0.2952
23737W        W66728  17.489   5.912  19.792  0.0284 -0.1991  0.1202
23738W        W66729   3.991  34.736  23.862 -0.0815  0.0077 -0.2003
23739W        W66730  14.513   8.350  21.574 -0.0326 -0.0807 -0.0261
23740W        W66731  32.626  14.525  19.931  0.0658 -0.1234 -0.0244
23741W        W66732   9.067  10.716   7.338 -0.0310  0.5593  0.0931
23742W        W66733   2.195   2.089  24.999  0.2174 -0.1219 -0.0426
23743W        W66734  25.124  34.506   1.957  0.1975 -0.0797 -0.0912
23744W        W66735  23.497   6.356  17.225 -0.2842 -0.0532  0.0945
23745W        W66736   8.514   3.033  26.426 -0.0037  0.0029  0.0536
23746W        W66737   6.668  12.867   3.929 -0.1441 -0.1096 -0.0449
23747W        W66738   8.845   6.444  22.130  0.3173 -0.0044  0.0076
23748W        W66739  19.303   5.542  15.257  0.1306  0.1619 -0.0137
23749W        W66740  14.022   8.915  24.335 -0.2719 -0.1106 -0.1739
23750W        W66741  33.939  26.716  27.441 -0.1482  0.2331 -0.2324
23751W        W66742   2.766  16.490   2.188 -0.4459  0.2599  0.0433
23752W        W66743  19.678  19.268  15.853  0.1400  0.1491 -0.0556
23753W        W66744   7.413  29.311  27.467  0.2492 -0.0444  0.0100
23754W        W66745  17.344  19.509  14.452 -0.0893  0.0419 -0.1570
23755W        W66746  32.224  11.413  19.617 -0.0540 -0.1162  0.0569
23756W        W66747  31.063   9.156  16.095 -0.1721 -0.2633 -0.2926
23757W        W66748  32.550   0.038  25.744  0.3564  0.1107 -0.0257
23758W        W66749  19.107  10.502  28.025  0.2788 -0.1997  0.0247
23759W        W66750   4.066   5.200  23.478  0.3776  0.0695  0.1862
23760W        W66751   8.740  16.566  19.291  0.3403  0.0414  0.2710
23761W        W66752   8.734   0.699   2.984 -0.0281 -0.0837 -0.1604
23762W        W66753   8.612  10.945   2.516 -0.1180  0.0800 -0.0471
23763W        W66754   3.953  15.200  27.263  0.0281  0.0191 -0.2231
23764W        W66755   3.290   4.703   4.216  0.0474 -0.3064 -0.1975
23765W        W66756  14.352  31.180  25.746  0.1512 -0.0331 -0.1168
23766W        W66757   7.521  13.093   9.713 -0.1699 -0.0573 -0.0600
23767W        W66758  25.669   4.852  20.715  0.0680 -0.1480  0.1059
23768W        W66759   6.002  32.701  19.483 -0.0782  0.1055  0.2508
23769W        W66760  30.804  21.572  20.974  0.0782  0.4080  0.0836
23770W        W66761  10.195   6.129  22.942 -0.1618  0.0027 -0.0061
23771W        W66762  28.064  24.099  22.199  0.0313 -0.0261  0.3378
23772W        W66763  18.162   0.603  16.173  0.2335 -0.0201  0.1903
23773W        W66764  32.749  19.136  19.846  0.2828  0.3256 -0.1091
23774W        W66765   0.999   9.681  15.756  0.0781  0.0111 -0.2326
23775W        W66766   6.831  10.389  21.099  0.0021 -0.0938  0.3321
23776W        W66767   1.509   5.154  15.314  0.0614 -0.0947  0.2197
23777W        W66768   8.313  21.085  21.103 -0.1343 -0.1904  0.3377
23778W        W66769  10.354  21.700  14.269 -0.1186 -0.0671 -0.0480
23779W        W66770  15.830   7.753  10.209 -0.1889 -0.1378 -0.1312
23780W        W66771  14.221   7.540  24.506 -0.1339 -0.2448 -0.0095
23781W        W66772  26.029   3.251  16.090 -0.4446  0.0728 -0.0259
23782W        W66773   4.269  19.078  11.913  0.0157 -0.1823 -0.1924
23783W        W66774   2.903   0.435  25.369 -0.2990 -0.0583 -0.1766
23784W        W66775  10.697  14.971  25.067 -0.4062 -0.0285 -0.0592
23785W        W66776  28.324   8.026  15.377 -0.1327 -0.1524 -0.2455
23786W        W66777  26.319  30.043   1.495 -0.0545  0.0136 -0.1141
23787W        W66778  16.931   8.318  14.601  0.2367  0.0551  0.3294
23788W        W66779   1.445   2.874  22.236 -0.0121 -0.1604  0.4830
23789W        W66780   8.139  15.106  27.381  0.4716 -0.0696  0.2187
23790W        W66781   6.892  27.739  18.514  0.0387 -0.3209  0.2098
23791W        W66782   8.646  16.259  15.044 -0.0130  0.1842  0.0780
23792W        W66783  29.852   3.077   6.850  0.0612  0.0584 -0.0375
23793W        W66784   6.758  11.930   2.910 -0.1773  0.2200 -0.0252
23794W        W66785   9.182   5.235  18.193 -0.1479  0.0471  0.1473
23795W        W66786  14.230  27.831  16.013  0.1130  0.0392 -0.2219
23796W        W66787   8.431   5.629  23.583  0.0827 -0.2873 -0.2098
23797W        W66788  31.827  26.055  21.014  0.0125  0.1246  0.0537
23798W        W66789   4.404  18.624  17.179  0.1283  0.1199 -0.0866
23799W        W66790  22.176  26.600  14.755 -0.0306  0.0458  0.2046
23800W        W66791  27.652  17.342  27.499 -0.1573 -0.0983 -0.0468
23801W        W66792  29.004  24.582   1.651  0.1384 -0.3340 -0.0940
23802W        W66793   4.947   4.948  21.790  0.0877  0.0330 -0.0831
23803W        W66794  28.370  20.942   1.070  0.0079 -0.1536 -0.1786
23804W        W66795  25.276  19.477  25.636 -0.0581  0.2756 -0.1166
23805W        W66796  19.375   9.010   6.406  0.0989 -0.4484  0.0500
23806W        W66797   0.236   7.772   2.908  0.0612 -0.1290 -0.0524
23807W        W66798  30.065   8.292   1.170 -0.0289  0.2572 -0.1775
23808W        W66799   6.915  17.052  18.561 -0.3884  0.1334  0.3057
23809W        W66800  11.220  30.406  20.791  0.2813  0.1612 -0.2291
23810W        W66801   8.046   2.062  28.090 -0.2079  0.0102  0.2390
23811W        W66802  20.208  27.194  13.368 -0.0688  0.1744  0.1714
23812W        W66803   8.657  12.605  22.901 -0.1321 -0.0731 -0.1002
23813W        W66804   0.135  30.864  18.836 -0.2307  0.0486  0.1587
23814W        W66805   6.233  23.654  19.070  0.0510  0.2632 -0.1329
23815W        W66806  33.167  29.816  27.975 -0.0129  0.1561  0.0572
23816W        W66807   5.709   4.403  16.239 -0.1094 -0.0138  0.0679
23817W        W66808  33.244   1.354   2.150 -0.0955  0.0216  0.3761
23818W        W66809   2.776  19.995  20.602 -0.2414  0.0286  0.1105
23819W        W66810   2.489   8.866  16.586 -0.0207  0.1701  0.1729
23820W        W66811   6.746   9.507  22.328 -0.0387  0.2118  0.3413
23821W        W66812   9.985   8.510  24.255 -0.2243  0.1809  0.1069
23822W        W66813   1.652  18.878  25.282 -0.2882  0.0597 -0.2801
23823W        W66814   3.075  30.300   5.965  0.1323  0.3209 -0.0221
23824W        W66815   7.257   3.545  23.908 -0.1442 -0.0069  0.2316
23825W        W66816  12.295  10.206  28.650  0.1546 -0.0374 -0.1670
23826W        W66817  19.705  30.051   2.117  0.2267  0.1192 -0.0366
23827W        W66818  31.007  25.890  16.739 -0.2990  0.0084 -0.1565
23828W        W66819   7.176   5.718  19.355 -0.0523  0.1334 -0.0461
23829W        W66820  16.888   6.940  16.168 -0.0551 -0.0359 -0.0987
23830W        W66821  33.118   0.994  14.920 -0.0791 -0.2594 -0.0509
23831W        W66822  15.164  31.252   7.371 -0.2215 -0.2029 -0.1382
23832W        W66823  12.292   4.199   5.090  0.1402  0.1414  0.0430
23833W        W66824   2.911  12.422  23.394  0.1310 -0.0593  0.2333
23834W        W66825  31.473   6.741  27.040  0.0350 -0.3518 -0.0379
23835W        W66826   2.663  15.448   6.795 -0.2725 -0.1808 -0.3155
23836W        W66827   4.057  14.864  17.138  0.3189 -0.1399 -0.0201
23837W        W66828  17.101   5.156  23.929 -0.2230 -0.0386  0.1168
23838W        W66829  14.550   6.213  20.479  0.0520 -0.1921 -0.0294
23839W        W66830  28.885  28.792  16.389 -0.0666 -0.0784 -0.2486
23840W        W66831  32.059  14.181  22.209  0.1655  0.2384 -0.4121
23841W        W66832   5.376   6.540  20.974 -0.0942 -0.3256  0.0735
23842W        W66833   7.028  31.789  19.970 -0.0217 -0.1590 -0.2148
23843W        W66834  10.623   4.896  24.345  0.1759  0.1217 -0.3024
23844W        W66835   6.772  13.502  20.411 -0.2113 -0.2977  0.2451
23845W        W66836  31.689  10.186  19.776 -0.2832 -0.1482  0.4189
23846W        W66837   6.357  20.721  17.263  0.0490 -0.1769 -0.1925
23847W        W66838  15.896  23.516   1.483 -0.1169  0.0733  0.3992
23848W        W66839   7.488  21.245  17.692 -0.0243 -0.1532  0.0168
23849W        W66840   5.291  18.164  21.806 -0.2253 -0.0900  0.2723
23850W        W66841  19.010   3.976  26.545 -0.2796 -0.1968  0.1711
23851W        W66842  30.794  33.284  27.098 -0.2083 -0.1865  0.0773
23852W        W66843  34.449  16.269  22.218 -0.3973 -0.3912  0.0147
23853W        W66844   3.680   2.335  20.070  0.1230  0.1041 -0.2792
23854W        W66845   6.096   9.403   3.284 -0.0672  0.3021 -0.2585
23855W        W66846   4.666  34.735  21.100  0.2148  0.0175  0.1410
23856W        W66847   5.115  28.533   1.975  0.0558  0.0675  0.2729
23857W        W66848   2.146  29.553  22.201 -0.2408 -0.0702  0.0778
23858W        W66849   7.111   2.789   9.576  0.2069 -0.3331 -0.1788
23859W        W66850   6.513   9.695  18.714 -0.1239  0.2382 -0.4093
23860W        W66851  19.235  23.984  13.461  0.1588 -0.2509  0.0124
23861W        W66852  34.179   7.348  15.251  0.1677  0.1073  0.0855
23862W        W66853   4.050   3.053  17.235  0.1567  0.0322  0.0125
23863W        W66854  12.314  18.026  18.450  0.0500  0.2339 -0.2334
23864W        W66855   2.115   9.977   8.769  0.3438 -0.1754 -0.0844
23865W        W66856   3.514  14.753  27.397  0.0120 -0.0226 -0.0665
23866W        W66857   5.812  17.195  17.639  0.3399 -0.4002 -0.1010
23867W        W66858  34.435  14.779  24.174 -0.0428  0.1726  0.0904
23868W        W66859  21.020   4.405  28.051  0.0997  0.0651  0.0288
23869W        W66860  10.784  27.875  19.692  0.1160 -0.5825 -0.3875
23870W        W66861  15.674  26.134   3.996  0.1710  0.1259  0.1335
23871W        W66862   4.810   3.693  22.052 -0.0643 -0.1722 -0.0715
23872W        W66863  10.847  34.165  25.277  0.4576  0.2854 -0.0373
23873W        W66864   7.717  26.051  14.211  0.1496  0.0558  0.1492
23874W        W66865  23.136  14.312   9.129 -0.0745 -0.0694  0.0278
23875W        W66866  32.679   4.470   3.973  0.0519 -0.0540 -0.0169
23876W        W66867  17.494  12.600  13.394 -0.1543  0.0696  0.0881
23877W        W66868  34.201  16.393  27.191  0.2517  0.1917  0.0028
23878W        W66869  10.876   1.702  23.381  0.3258 -0.2286 -0.3617
23879W        W66870  33.362   4.018  26.759 -0.1787 -0.3519  0.2164
23880W        W66871   0.238   9.922  21.536 -0.0733  0.2650 -0.0982
23881W        W66872  20.241   2.602  28.125  0.1149 -0.0470  0.0541
23882W        W66873  30.538  12.840  17.642  0.0096 -0.3514  0.1595
23883W        W66874   8.581   2.845  28.609  0.0798  0.3032 -0.3140
23884W        W66875  19.975  11.709  16.324  0.0079 -0.2377 -0.3349
23885W        W66876   5.030   3.991   2.851  0.0217  0.2523 -0.1578
23886W        W66877  11.760  22.785  22.635 -0.6122 -0.1593 -0.2547
23887W        W66878   7.106   9.021  24.110 -0.0927 -0.1862  0.1552
23888W        W66879   0.847  13.807  21.011  0.1208  0.1501  0.2008
23889W        W66880  26.471   2.554  23.901  0.0507 -0.1168 -0.0290
23890W        W66881   3.310  22.015  28.956 -0.1156 -0.1389 -0.1080
23891W        W66882  13.205  12.266  18.584 -0.0603 -0.3720  0.0038
23892W        W66883  23.208  11.419  15.502 -0.1250 -0.1568 -0.2396
23893W        W66884  28.588   9.379  15.446 -0.0144 -0.1013 -0.1193
23894W        W66885  11.245  16.891  18.738  0.1960 -0.0157 -0.0440
23895W        W66886  15.923  20.408  19.804  0.1802  0.1380 -0.1092
23896W        W66887   2.919  10.903  16.393 -0.0156 -0.2718 -0.1177
23897W        W66888   1.604  10.882  14.964  0.0549 -0.0590  0.1650
23898W        W66889  10.919   4.679  15.966 -0.2224  0.0868  0.3094
23899W        W66890   9.456  19.967  14.050  0.0482 -0.1406  0.0215
23900W        W66891  30.461  14.694   8.996  0.0813  0.2737  0.0408
23901W        W66892   3.677  15.186  22.419 -0.1755 -0.2365  0.1700
23902W        W66893   9.307  10.090  25.356 -0.3201  0.2411  0.1058
23903W        W66894  27.174  16.172  16.384 -0.0030 -0.1921 -0.1355
23904W        W66895   3.591   8.535  27.398  0.0425  0.0568 -0.1440
23905W        W66896  29.818  33.194  22.724 -0.2046  0.2966  0.0967
23906W        W66897   3.688  12.319  15.649  0.0408  0.0105 -0.0617
23907W        W66898  33.955  23.600   2.562 -0.0550  0.1868 -0.0284
23908W        W66899   3.001   3.449   7.012 -0.0919  0.2957  0.0435
23909W        W66900  16.669   2.999   9.620  0.5232 -0.1185 -0.2443
23910W        W66901   8.297  31.168  22.756  0.2014  0.2881 -0.0104
23911W        W66902   8.536   7.141  19.785  0.0369  0.2710  0.0043
23912W        W66903   8.975   7.889   5.443  0.1828  0.1640  0.2715
23913W        W66904  16.198  12.422   3.669  0.5549 -0.2083 -0.0940
23914W        W66905  24.969   6.119  24.290 -0.0081 -0.1354 -0.1984
23915W        W66906  29.925  28.439   2.105  0.1161 -0.1829 -0.0799
23916W        W66907  11.658   9.081  22.582 -0.2419 -0.2474 -0.0270
23917W        W66908   5.592  31.786  10.784  0.0716  0.1099 -0.0452
23918W        W66909  22.761   1.247   7.796 -0.0928 -0.0331 -0.3306
23919W        W66910   1.699   5.700  26.371  0.1798 -0.2298  0.0367
23920W        W66911   6.563  16.798   3.919 -0.0692  0.1082  0.0523
23921W        W66912  32.845  18.062  15.989 -0.0570 -0.1295 -0.1875
23922W        W66913   3.817   9.109  24.499  0.1318 -0.2830  0.2282
23923W        W66914  17.306   9.432  22.552 -0.2025 -0.2409  0.0410
23924W        W66915   6.759  10.114  16.599  0.0757 -0.0065  0.1279
23925W        W66916  20.721   1.836  18.649 -0.0408  0.3390  0.0054
23926W        W66917  26.186   6.213   0.351 -0.2773 -0.1346  0.2880
23927W        W66918   6.586   7.770   6.560 -0.0245 -0.0661 -0.1004
23928W        W66919   8.790  34.611   1.054 -0.1252 -0.1887 -0.1292
23929W        W66920  21.689  20.265  27.423  0.0011  0.0492 -0.1162
23930W        W66921  24.298   5.448  15.616  0.0962 -0.0863  0.0996
23931W        W66922  10.217   0.145   0.110  0.0429  0.0623 -0.1312
23932W        W66923   6.547   0.204  26.974  0.1336  0.0404  0.1578
23933W        W66924   3.440   0.285  18.279 -0.0362 -0.2660 -0.2344
23934W        W66925  10.828   1.229  22.347  0.1121  0.1731  0.2148
23935W        W66926   6.412  13.959  28.078 -0.1944 -0.0726 -0.1497
23936W        W66927  14.692  22.522   4.939 -0.1563 -0.2700 -0.1550
23937W        W66928   7.543  34.021   2.095  0.0452 -0.1608  0.2744
23938W        W66929  23.003  11.093  13.817 -0.0013 -0.1238 -0.1050
23939W        W66930  22.762  10.995   8.277 -0.0676 -0.0679  0.2452
23940W        W66931  29.025  13.392  20.120 -0.0343 -0.1211 -0.1065
23941W        W66932  19.734   9.721  21.365  0.1223  0.1092  0.0196
23942W        W66933  26.076  13.662  17.842  0.4037 -0.4448 -0.1145
23943W        W66934  34.489   9.693   5.772 -0.2393  0.2034  0.0075
23944W        W66935  25.436  16.598  18.834 -0.0923 -0.0499 -0.0875
23945W        W66936  33.512   0.230   1.384  0.1661  0.3545 -0.1887
23946W        W66937  16.773   0.377   1.567 -0.2481  0.1293 -0.1295
23947W        W66938  33.583  11.191  28.254  0.4726  0.1677 -0.0367
23948W        W66939   5.671  13.379   1.326  0.0624 -0.0910 -0.0785
23949W        W66940  25.024  21.626   5.083 -0.1754  0.0469 -0.0304
23950W        W66941   0.733  14.126  17.825  0.2169  0.1003 -0.1993
23951W        W66942   4.372  20.067  22.127  0.2448  0.1760  0.1392
23952W        W66943  28.360  21.027   7.445 -0.2690 -0.3226 -0.0344
23953W        W66944  15.849   3.245  18.504 -0.1731  0.0113 -0.2050
23954W        W66945  24.207  12.349  15.924 -0.1281  0.1301  0.1155
23955W        W66946  20.898  18.889  14.957  0.2733  0.0007  0.1211
23956W        W66947  28.704  24.278  14.612  0.1520  0.1401  0.0910
23957W        W66948  16.578   3.106  15.112 -0.2325 -0.1428 -0.0540
23958W        W66949  12.195   7.746  24.587  0.0674 -0.1488  0.1286
23959W        W66950  22.810  28.414   5.354  0.0065 -0.5222 -0.1166
23960W        W66951  26.651  19.467  15.418  0.1745 -0.3545  0.1545
23961W        W66952  20.591  18.180  14.470  0.0271  0.1221  0.0816
23962W        W66953  25.294  13.384  17.105 -0.2637  0.1032  0.1086
23963W        W66954   5.906  16.140  20.959 -0.0139 -0.1878  0.5056
23964W        W66955  24.968  16.789  14.863  0.0187  0.4575 -0.1867
23965W        W66956   5.425  30.992   0.084 -0.1579  0.1526  0.0817
23966W        W66957  30.497  23.341  26.325 -0.2230 -0.0606  0.2204
23967W        W66958  12.778  10.849  29.180 -0.0163  0.0645 -0.1110
23968W        W66959   9.066   4.389   3.925  0.0660 -0.0182  0.0421
23969W        W66960  12.290  16.763  24.202 -0.2138  0.1176 -0.1494
23970W        W66961  34.481  15.340   7.170 -0.0187  0.0874  0.1763
23971W        W66962   3.215  10.895  24.290  0.0298  0.1768  0.0318
23972W        W66963  20.800  16.487  13.062 -0.0789  0.0268 -0.0042
23973W        W66964  19.270  24.404  18.460 -0.2583 -0.2723  0.0403
23974W        W66965   0.155  25.526  19.456  0.1868  0.1267  0.0432
23975W        W66966  12.329   7.496   4.017  0.2564 -0.3299  0.0395
23976W        W66967  31.352  12.529   1.593  0.0096 -0.0890  0.0359
23977W        W66968   3.966   5.040   1.651  0.0553  0.0547 -0.1839
23978W        W66969  13.859  27.738  19.371 -0.3335 -0.2521 -0.2602
23979W        W66970  18.384   2.347  17.106  0.0191  0.0733  0.1380
23980W        W66971  31.414   4.509  25.481  0.0811  0.1506 -0.5246
23981W        W66972   2.983   8.390  19.912  0.2464 -0.0276 -0.1107
23982W        W66973   3.598  32.200  28.675 -0.3253 -0.0320 -0.3107
23983W        W66974  34.327  18.082  22.909 -0.1487 -0.1064  0.1421
23984W        W66975  22.584  18.573   2.860 -0.0272  0.4665  0.2309
23985W        W66976   4.489  22.880  10.805  0.1109 -0.1080  0.4248
23986W        W66977  11.416   4.885   0.114  0.0778 -0.0531  0.1669
23987W        W66978  19.277  10.445   9.586 -0.2181 -0.0839 -0.1723
23988W        W66979   6.410   0.445  27.982 -0.2330  0.1487 -0.2691
23989W        W66980   2.376   1.948  22.154 -0.0349 -0.2296 -0.0444
23990W        W66981  21.017   9.890  25.499  0.0152  0.1331 -0.0063
23991W        W66982   3.938   2.410  14.739  0.2845  0.2459  0.0439
23992W        W66983  21.392   3.037  17.318  0.0000 -0.2856  0.1442
23993W        W66984  34.547   8.826  15.273 -0.1952  0.1472  0.1898
23994W        W66985  32.764  17.074  23.399 -0.0703  0.0068  0.2062
23995W        W66986   5.358  28.894   0.902  0.1627 -0.0495 -0.0964
23996W        W66987   9.143  26.599  19.375  0.0070 -0.2291  0.1315
23997W        W66988  31.393  22.638  22.920 -0.0312 -0.0586 -0.1183
23998W        W66989  16.586  22.124   4.170 -0.4116  0.1869  0.1808
23999W        W66990   8.400   8.841   8.134  0.1513  0.0474  0.2516
24000W        W66991  27.449  16.688   1.495 -0.1765 -0.1943  0.2539
24001W        W66992  22.707  20.994   8.772  0.2249 -0.1967  0.0743
24002W        W66993   6.255   0.838  14.352  0.1803  0.2183  0.1286
24003W        W66994  34.462   4.682  17.229 -0.0831 -0.2021 -0.0725
24004W        W66995  34.526  10.088   8.423 -0.0609 -0.2115 -0.0436
24005W        W66996   5.292   5.931  18.974  0.2175  0.1112  0.2547
24006W        W66997   5.187  11.615   4.796  0.1842 -0.1514 -0.0383
24007W        W66998   5.347   6.302  22.779  0.2827  0.2866 -0.1339
24008W        W66999  31.479  24.579   1.394 -0.0318 -0.2026 -0.1951
24009W        W67000  10.424  13.998   4.116  0.1037  0.1514  0.1210
24010W        W67001  20.320  28.397  18.548  0.0304  0.0570 -0.2940
24011W        W67002  32.178  13.407   5.688 -0.2123 -0.0112  0.0420
24012W        W67003  11.220   9.209  22.667 -0.1447 -0.0622 -0.2837
24013W        W67004  26.705  11.320  23.525 -0.0003 -0.0712 -0.0787
24014W        W67005  22.919   4.423  20.154 -0.0404 -0.0984 -0.0307
24015W        W67006  31.786  25.062  28.451  0.2806  0.1817 -0.2137
24016W        W67007  17.515  11.568  20.574  0.1389  0.0535 -0.4585
24017W        W67008  34.511  27.392  23.673  0.2367  0.0057 -0.1386
24018W        W67009  13.766   4.579  19.925 -0.0739 -0.0915 -0.1036
24019W        W67010  20.878  12.008  26.962  0.0881 -0.0182  0.1812
24020W        W67011  11.311  22.079  17.763  0.2560  0.0179  0.0101
24021W        W67012  13.319  12.137  25.847 -0.4942  0.1995  0.2381
24022W        W67013   6.763   9.677  27.764 -0.1705 -0.3654 -0.0001
24023W        W67014   8.716  29.904   9.461 -0.0851  0.0441  0.0485
24024W        W67015  18.245  13.446   6.194  0.2650  0.0603  0.0887
24025W        W67016   5.439  28.670   9.260  0.1859 -0.5499 -0.1653
24026W        W67017  30.770  30.388  23.465 -0.1804 -0.2850 -0.0653
24027W        W67018  13.850  33.012   5.091  0.1071  0.1079  0.0021
24028W        W67019   4.886  16.312  17.457 -0.1104  0.1176 -0.0011
24029W        W67020   3.094  10.879   0.269 -0.0022  0.4397 -0.0288
24030W        W67021   4.174  34.573  19.272 -0.0513  0.1211 -0.2714
24031W        W67022  30.361  18.320  21.820  0.0157 -0.1044  0.0488
24032W        W67023   2.160   9.906  25.106 -0.1428  0.1076  0.2189
24033W        W67024   1.438   1.184  26.412 -0.0951 -0.0093 -0.2701
24034W        W67025  30.595  19.617  20.132  0.3812  0.0582 -0.0417
24035W        W67026   1.142  13.779  15.781 -0.1208 -0.1866 -0.1099
24036W        W67027   9.938   1.672  20.701 -0.0029 -0.1085  0.1422
24037W        W67028  23.197   7.376   6.167  0.1898 -0.1181 -0.0572
24038W        W67029  13.775  26.765  24.744 -0.2621  0.0004 -0.1922
24039W        W67030   7.642   5.818  16.716  0.4434  0.2481  0.2513
24040W        W67031   1.420  11.330  24.251  0.2231 -0.0513 -0.0608
24041W        W67032   9.655   2.183  27.130 -0.1597  0.2835 -0.2944
24042W        W67033   0.389  24.451  16.224  0.0494  0.0666  0.2250
24043W        W67034  26.479   3.770  14.811  0.0387 -0.0733  0.1042
24044W        W67035   6.112  22.009   6.574 -0.1078 -0.4390  0.3293
24045W        W67036  22.004  32.700  17.286 -0.0972 -0.1044 -0.1238
24046W        W67037  26.864   8.162  23.479  0.1020 -0.0668 -0.2541
24047W        W67038  34.784  29.400  28.525  0.1963 -0.0775  0.0420
24048W        W67039  14.638  18.876  23.633  0.0976 -0.0181 -0.3566
24049W        W67040  23.183   2.555  24.690  0.0949  0.2438  0.0225
24050W        W67041   6.598   7.601  16.470 -0.4111  0.2894  0.0155
24051W        W67042  15.084   3.480  15.716 -0.0662 -0.0038 -0.0105
24052W        W67043  27.146  17.774  16.801 -0.0517 -0.1991  0.1396
24053W        W67044  31.245  11.754  25.262  0.0122  0.3883  0.0192
24054W        W67045  25.472   2.477  21.987  0.0741  0.1726 -0.0860
24055W        W67046   8.616  28.617  19.378 -0.1970 -0.1528 -0.2027
24056W        W67047  20.352  17.179  26.561 -0.1101 -0.0201  0.2399
24057W        W67048  28.538  25.864   8.732 -0.0057 -0.0780  0.1044
24058W        W67049  18.184  13.229  24.744  0.1177  0.1262  0.0003
24059W        W67050   6.988  12.084  25.942 -0.2975 -0.2170  0.1270
24060W        W67051   8.901   4.298  10.587 -0.1359  0.1319 -0.2325
24061W        W67052  22.831   2.607  17.570 -0.2071 -0.0344 -0.2241
24062W        W67053  14.296   8.108  18.364 -0.3065  0.2244 -0.1311
24063W        W67054  13.627  11.773  24.068  0.0275  0.0007 -0.1184
24064W        W67055  17.063  31.685  16.597  0.3044 -0.2153 -0.1136
24065W        W67056  17.187   5.580  21.369  0.0462  0.1418  0.0670
24066W        W67057   8.292  27.612  18.903  0.1256 -0.1006 -0.0238
24067W        W67058  14.376  25.369  19.730 -0.2218 -0.0833  0.2228
24068W        W67059  17.713  24.616   4.136  0.3119 -0.2756 -0.1685
24069W        W67060  12.679  27.401  14.702  0.0741 -0.1104  0.2981
24070W        W67061   5.724  14.786  20.233  0.0076 -0.0229 -0.0582
24071W        W67062   5.539   7.680   2.103 -0.1032  0.3706  0.1157
24072W        W67063   3.042  26.770   7.042 -0.0657  0.0982  0.0510
24073W        W67064  15.362  12.208  16.117  0.1038  0.1203 -0.0142
24074W        W67065  28.864   7.680  16.650 -0.3400 -0.1100  0.2514
24075W        W67066  17.967  10.757  16.179 -0.0262  0.1340 -0.2518
24076W        W67067   7.860   8.202  20.999  0.1874  0.2323  0.0741
24077W        W67068   0.460   8.866  19.102 -0.0070 -0.3615  0.1754
24078W        W67069   0.677   6.594   0.567  0.1323  0.0202  0.1551
24079W        W67070  33.468  33.235  17.943  0.2499 -0.1089 -0.2454
24080W        W67071  19.419  11.289  20.924  0.1719 -0.0531  0.0452
24081W        W67072   3.835   8.336  23.849  0.0251 -0.0731 -0.1429
24082W        W67073   6.934  24.569  24.436 -0.0253 -0.2082  0.1754
24083W        W67074   9.183  26.904  22.337 -0.3164 -0.1471  0.0124
24084W        W67075  24.817   9.436  23.256  0.2280  0.0213  0.0047
24085W        W67076   8.495   0.464  28.901 -0.3233 -0.0648  0.0526
24086W        W67077  15.230  10.182  22.814 -0.3641 -0.0029 -0.1078
24087W        W67078  22.921  20.324  14.481 -0.0111 -0.1642 -0.4272
24088W        W67079  12.584   1.779  29.232  0.0596 -0.2725  0.1700
24089W        W67080  20.373  11.062  24.824 -0.1418 -0.1264 -0.1079
24090W        W67081  13.805  32.376  22.324 -0.0249  0.0598 -0.0226
24091W        W67082   9.437   7.971   1.489 -0.0059 -0.0359 -0.2319
24092W        W67083   1.479  12.500  24.872  0.1151  0.1480 -0.1571
24093W        W67084  12.851  20.368   8.125  0.0593 -0.0612 -0.1974
24094W        W67085  27.773   0.708  17.196 -0.1083  0.0092 -0.1588
24095W        W67086   2.557  29.463  21.125 -0.1366  0.1876 -0.2925
24096W        W67087  21.643  33.546  16.534  0.0077 -0.0026 -0.2268
24097W        W67088  33.801   8.831  16.529 -0.0998 -0.0928  0.3192
24098W        W67089   2.005   9.712  20.916  0.0428 -0.0566  0.1833
24099W        W67090  33.102  29.223  18.772 -0.2136  0.2323 -0.0711
24100W        W67091   2.315  32.705   1.386 -0.0441  0.0523 -0.2017
24101W        W67092   4.740  16.501  19.564 -0.0211 -0.0583  0.2569
24102W        W67093  18.830  23.857  19.707  0.2552  0.2026 -0.0490
24103W        W67094  29.371   0.874   0.422 -0.0204  0.0109 -0.0791
24104W        W67095  34.384  17.334  15.790  0.3459 -0.0166 -0.2936
24105W        W67096  29.629  30.619  28.277  0.2232 -0.3635  0.2107
24106W        W67097  13.679   8.820  27.581 -0.0803  0.3127  0.5138
24107W        W67098  33.788  12.699  23.610 -0.1396  0.2113 -0.0458
24108W        W67099  21.877   5.828  20.146 -0.1231 -0.1625  0.1874
24109W        W67100  15.489  34.770   4.218  0.2271  0.2799 -0.1876
24110W        W67101  21.205  25.908  26.844 -0.1600  0.0261  0.3105
24111W        W67102   8.088   2.397   0.027  0.5788  0.2108 -0.1287
24112W        W67103  13.081  12.886  26.527 -0.0527 -0.0155 -0.2415
24113W        W67104  26.558  30.254  27.232 -0.0096 -0.1159 -0.0947
24114W        W67105  16.341  22.377  12.969 -0.0144 -0.2291 -0.0808
24115W        W67106  16.450  18.957  13.935  0.0385  0.1968 -0.4056
24116W        W67107  24.671   6.095  13.932 -0.0011  0.1199  0.0199
24117W        W67108  14.943  14.277  25.111  0.0212 -0.4549 -0.1034
24118W        W67109  34.647  26.885  16.865  0.0164  0.2944  0.2070
24119W        W67110  13.531   5.183  16.198  0.2311  0.3214 -0.0766
24120W        W67111  27.620  14.224  28.633 -0.1016 -0.0250  0.0752
24121W        W67112   8.533  10.445  26.281  0.0548 -0.1445 -0.0286
24122W        W67113   7.497  12.438  20.020  0.1555 -0.2369 -0.0142
24123W        W67114   0.699  29.647  26.311 -0.1070  0.0815  0.0298
24124W        W67115  17.354   3.139  22.763  0.2105 -0.0783 -0.0997
24125W        W67116   3.113  28.722  13.746 -0.3487 -0.1656 -0.0603
24126W        W67117   5.993   3.358  22.298  0.0657  0.0926 -0.1792
24127W        W67118   8.987   9.558  29.034 -0.0640 -0.0830 -0.2631
24128W        W67119  33.547  22.381   6.627 -0.1533 -0.0851 -0.0864
24129W        W67120   1.822  30.862   5.323  0.0750 -0.0181  0.1364
24130W        W67121  30.856  14.348   0.381 -0.2429 -0.0645 -0.2729
24131W        W67122   8.720   7.265   7.043  0.0092 -0.1084 -0.5395
24132W        W67123  33.011  10.937  16.814  0.1839  0.3867 -0.1699
24133W        W67124   2.351   6.894  22.341  0.0176  0.1093 -0.2072
24134W        W67125   5.142   3.155  20.384  0.1236  0.1853 -0.0436
24135W        W67126  19.206   3.667   7.415 -0.0321  0.0602 -0.1025
24136W        W67127   7.239  32.561   4.615 -0.0210  0.0298 -0.0939
24137W        W67128  28.722  15.562   6.858 -0.1364 -0.0173 -0.1764
24138W        W67129  14.387  12.520  14.663 -0.0344 -0.1943  0.0435
24139W        W67130   3.836  23.013  24.850  0.0835  0.0056  0.5291
24140W        W67131  22.660   4.874  22.139  0.1498  0.3930 -0.0111
24141W        W67132   4.760   1.717  24.709 -0.0603  0.1695  0.2510
24142W        W67133  33.231  20.987  23.623  0.1023  0.1469 -0.1925
24143W        W67134   2.010  28.316   4.124  0.0634 -0.1940 -0.0326
24144W        W67135   4.880  11.592  27.918 -0.2557  0.0910  0.2802
24145W        W67136   3.952  25.211  20.645 -0.5183  0.0915 -0.3445
24146W        W67137   8.232   7.436  26.228 -0.1265 -0.2634  0.2679
24147W        W67138  25.079   6.035  15.187 -0.1323 -0.3425 -0.0457
24148W        W67139  33.493   4.483   9.095 -0.3780 -0.2593 -0.0810
24149W        W67140  32.306   7.199  22.238  0.0273 -0.0040 -0.3375
24150W        W67141   2.509   2.562  25.879  0.0082 -0.0834 -0.3152
24151W        W67142   6.153  19.282  16.551  0.1347 -0.2317 -0.3301
24152W        W67143  22.835  15.390   0.588 -0.1155 -0.0719  0.0241
24153W        W67144  29.125   2.864  24.153 -0.1124 -0.0468 -0.2101
24154W        W67145  34.701  29.921  17.970  0.3497  0.2383 -0.2249
24155W        W67146  19.314  16.310  27.344  0.1861  0.0387 -0.3841
24156W        W67147  30.472  16.825  15.823 -0.0559  0.0106 -0.0627
24157W        W67148  25.074  27.355   5.777  0.2638 -0.0423  0.2718
24158W        W67149  10.913  33.515  19.989 -0.3596  0.1813  0.0239
24159W        W67150  12.831   7.847  24.112  0.1633 -0.2331 -0.1786
24160W        W67151   2.478  10.644  17.216  0.3394  0.0961 -0.1726
24161W        W67152  11.051  17.834  15.052  0.0796  0.0380  0.0954
24162W        W67153  30.941  13.921  22.311 -0.1910  0.0021 -0.1743
24163W        W67154  32.355   4.768  27.323  0.0260 -0.1542 -0.2841
24164W        W67155   7.618   1.959  20.937 -0.1692 -0.0014 -0.1472
24165W        W67156   7.269  18.570  24.771  0.1981  0.1460  0.0472
24166W        W67157  25.973  19.097  24.327 -0.0999 -0.1485  0.1140
24167W        W67158  17.436  12.500   1.796 -0.0428 -0.1511 -0.0742
24168W        W67159  11.371  33.091   9.760  0.1809  0.0716 -0.2324
24169W        W67160  18.896  32.240  21.952  0.0677 -0.0524 -0.2208
24170W        W67161   6.764  11.132  17.505 -0.3043  0.1860 -0.1172
24171W        W67162   4.720  20.071  28.265  0.1087  0.1065 -0.0619
24172W        W67163  14.010  32.138  24.356  0.3079 -0.3850 -0.3320
24173W        W67164   4.017   3.532  27.896 -0.0002  0.1365 -0.0484
24174W        W67165  13.082   9.696  14.945 -0.0208  0.0904 -0.2068
24175W        W67166  31.011  17.696  14.832  0.0587  0.2989  0.0432
24176W        W67167  12.687  33.281   2.138 -0.2265  0.0937 -0.1266
24177W        W67168   8.177  20.729   3.994 -0.4342  0.1185  0.0638
24178W        W67169  15.524  31.999   5.424 -0.0640  0.2813  0.2635
24179W        W67170   2.533  21.440   8.854  0.1226  0.0388  0.0909
24180W        W67171   1.204  19.929  16.191  0.1243 -0.2328 -0.1665
24181W        W67172   2.753  10.097   4.674 -0.0497 -0.0233 -0.1073
24182W        W67173  18.216   6.021  18.101 -0.0603  0.2241  0.1491
24183W        W67174  32.304  14.230  15.321 -0.1363 -0.1565  0.0641
24184W        W67175  13.184  11.658  25.650  0.0393  0.1239  0.1638
24185W        W67176   2.146  17.405  22.892 -0.0952 -0.0242 -0.1934
24186W        W67177  26.507   1.111   1.133  0.1057 -0.0605  0.2236
24187W        W67178   9.012  31.860  16.068 -0.0152 -0.0703 -0.1533
24188W        W67179   2.079  12.198   1.139 -0.0716  0.1462  0.1918
24189W        W67180  13.733  32.580  26.961 -0.2491  0.1776 -0.1341
24190W        W67181  32.866  16.670  25.629 -0.0559  0.1940  0.1736
24191W        W67182   4.035  23.631  21.779  0.1713  0.0555  0.0930
24192W        W67183  23.789   5.870  25.418 -0.3867  0.1033  0.0978
24193W        W67184  19.397   5.030  16.995  0.3374 -0.1194 -0.1336
24194W        W67185  21.110   8.129  23.326 -0.0672 -0.1230  0.1425
24195W        W67186  24.972   6.664  20.527 -0.2367 -0.0570  0.2709
24196W        W67187   8.980   4.671   9.281 -0.1617  0.0891  0.0509
24197W        W67188   4.053  22.239  25.159 -0.0645 -0.1503  0.1355
24198W        W67189  26.160  14.726  14.838 -0.0000 -0.2385 -0.0642
24199W        W67190  18.835  21.175  14.271 -0.0348 -0.3841 -0.0637
24200W        W67191  33.093  28.264  19.469  0.1005 -0.0273 -0.0563
24201W        W67192  21.785   0.544   1.152  0.1069  0.1955  0.1764
24202W        W67193  16.108  32.963  15.174 -0.2243 -0.3031  0.0238
24203W        W67194  13.968  32.724  26.494 -0.1206 -0.0549 -0.1181
24204W        W67195  14.678   1.960   1.697 -0.1230 -0.1152 -0.0685
24205W        W67196  20.895  33.761   0.109 -0.0319 -0.1494  0.0344
24206W        W67197  14.001   2.176  15.519  0.1032  0.0235 -0.0851
24207W        W67198  31.068   6.991  22.173  0.3397  0.1945 -0.0051
24208W        W67199  11.132   0.190  16.637 -0.1766  0.2234 -0.0692
24209W        W67200   8.843  21.749  21.771 -0.1386  0.0379 -0.2540
24210W        W67201   2.131  21.201  21.892  0.1540 -0.0424 -0.1391
24211W        W67202  11.530  21.958  14.140 -0.4295  0.3165  0.2478
24212W        W67203  22.976  30.379   8.191 -0.2874  0.0055  0.2121
24213W        W67204   1.033  23.889  26.663  0.0080  0.0593 -0.2932
24214W        W67205  17.559   9.533  14.489  0.0128 -0.1520 -0.1472
24215W        W67206  31.833  19.620   2.723 -0.1042  0.0305  0.1232
24216W        W67207  14.445  19.656   7.767  0.0403 -0.1486  0.1264
24217W        W67208   5.331  25.618  16.268  0.0020 -0.0096 -0.1676
24218W        W67209  29.168   4.510  23.136  0.1933  0.1140  0.2839
24219W        W67210  30.908  12.423  21.117  0.2926  0.1781 -0.0286
24220W        W67211   9.686  13.241  19.206  0.0878  0.0495  0.1250
24221W        W67212  30.242  10.508  18.467 -0.0521  0.1335 -0.2184
24222W        W67213  12.345   5.782  18.754 -0.2362 -0.0722 -0.2696
24223W        W67214  21.912  11.992  19.037 -0.0477 -0.0584 -0.0814
24224W        W67215  24.519   1.542  13.655  0.0662  0.3516  0.4207
24225W        W67216   4.005   2.536  11.246 -0.1398 -0.1265  0.0041
24226W        W67217  16.285  16.488   3.262  0.0314  0.5184 -0.2160
24227W        W67218  29.949   2.367   0.655  0.1708 -0.0857  0.1907
24228W        W67219  14.574  14.637  16.507  0.0513 -0.0563  0.0312
24229W        W67220   4.038  31.995   0.815 -0.1896  0.1987  0.1039
24230W        W67221  29.839   5.469   5.609  0.3561 -0.3731 -0.1090
24231W        W67222   8.482  18.613  28.203  0.2835 -0.0344 -0.0195
24232W        W67223  11.621   2.372  15.951  0.2030  0.2066  0.0902
24233W        W67224   8.803   8.232   8.715 -0.1630 -0.0050  0.1449
24234W        W67225   8.162   3.651  17.456  0.2357  0.0303 -0.1968
24235W        W67226  19.528  13.155   7.499 -0.0744  0.2770 -0.0648
24236W        W67227   6.027  34.596  22.792 -0.0495  0.0641 -0.1247
24237W        W67228   9.691   5.118   8.558  0.0517  0.0835 -0.0129
24238W        W67229  17.280  23.146  20.735 -0.2661 -0.0087 -0.0874
24239W        W67230  27.269   8.732  28.390  0.1160 -0.0150  0.0440
24240W        W67231   3.022   4.587  18.640  0.1364 -0.0287  0.1316
24241W        W67232   1.520  12.619  17.078 -0.0953  0.0692 -0.2951
24242W        W67233  11.684  15.511  28.600  0.1438 -0.2444  0.2434
24243W        W67234  32.453  26.242   0.284 -0.2304  0.3265  0.0887
24244W        W67235   2.016   9.564  27.113 -0.2765 -0.0047 -0.0305
24245W        W67236  10.135  12.290  25.099 -0.0128  0.0048 -0.3576
24246W        W67237   9.752  31.942  19.496 -0.0349 -0.2498 -0.3316
24247W        W67238  23.214  11.648  22.457  0.0045 -0.0401  0.1086
24248W        W67239   2.692  22.915  28.355  0.0540  0.1351 -0.1700
24249W        W67240   4.292   5.017  23.877  0.2316  0.0096 -0.1271
24250W        W67241   9.984  30.900   7.034  0.3338  0.3287  0.0877
24251W        W67242  15.386   8.927  28.821 -0.0768 -0.0004  0.0411
24252W        W67243   5.754  14.211  20.224 -0.3216 -0.3864 -0.1753
24253W        W67244   4.464  20.378  11.189  0.2409  0.2267 -0.2384
24254W        W67245   3.115  26.100  21.199 -0.2277  0.1934  0.1409
24255W        W67246   0.177  21.286  21.387  0.0853 -0.2164 -0.0712
24256W        W67247   2.767  10.375   5.809 -0.2227  0.2269 -0.0969
24257W        W67248  23.619  22.297  24.984 -0.0906  0.2383  0.1105
24258W        W67249  17.180  26.446  13.738 -0.3472  0.0849  0.0144
24259W        W67250  12.642  13.805  21.269 -0.2039  0.3552  0.1315
24260W        W67251  15.005  27.359   9.971 -0.1626 -0.2087  0.1963
24261W        W67252  28.152   2.380   8.801  0.0653 -0.2548  0.0303
24262W        W67253   0.667   6.019   0.995 -0.0482 -0.0829  0.0540
24263W        W67254  12.136   7.530  16.893  0.0812  0.0323  0.0793
24264W        W67255   9.902  10.440  18.745  0.1669  0.0051 -0.1984
24265W        W67256   3.811  14.576   3.659  0.1607  0.0701 -0.2272
24266W        W67257   8.515   3.804   2.639  0.0007  0.3271 -0.1437
24267W        W67258  32.989  32.396   1.949  0.0100  0.0180 -0.0956
24268W        W67259  34.361  11.633   2.000 -0.0416 -0.1357 -0.2518
24269W        W67260  32.949  13.573  20.024 -0.0876  0.0218 -0.1370
24270W        W67261  19.227  12.826  21.978  0.3343  0.1234 -0.1863
24271W        W67262  28.664  16.562  18.221 -0.3271 -0.3007  0.0150
24272W        W67263   9.259  11.389  23.443  0.1530  0.0516  0.0775
24273W        W67264  34.566  16.180  21.730  0.2323  0.1958 -0.2431
24274W        W67265   6.146   7.544   6.506  0.1213  0.0384  0.0490
24275W        W67266  14.308  32.974  24.352 -0.0297 -0.0054 -0.1737
24276W        W67267   5.047   0.950  17.005 -0.1615 -0.0062 -0.0575
24277W        W67268   6.456   4.553  24.595 -0.1868 -0.1156 -0.0268
24278W        W67269  15.198  24.530  25.897 -0.0831 -0.0271 -0.0893
24279W        W67270  21.228  17.963   5.406 -0.0600  0.0945 -0.1985
24280W        W67271  22.309  12.287  25.803 -0.5083  0.3812  0.1519
24281W        W67272  22.585  27.067  22.956  0.1802  0.0487  0.2164
24282W        W67273   0.485  24.366  22.707 -0.3697 -0.0423  0.1542
24283W        W67274  18.479   5.415   1.876  0.0809 -0.0171 -0.1654
24284W        W67275   5.551  33.942  25.520  0.3018 -0.1216 -0.0370
24285W        W67276   8.009  33.685  21.459  0.2726  0.2590 -0.1553
24286W        W67277  10.293  33.928  22.818  0.2218  0.0886  0.0515
24287W        W67278   5.591  19.798   2.077 -0.0356  0.4459  0.0158
24288W        W67279  27.753   4.823  20.648 -0.1209  0.0445 -0.0656
24289W        W67280  12.915  20.130  26.611 -0.1186  0.1301  0.1079
24290W        W67281   0.341  10.645  18.440  0.0572 -0.1417  0.3235
24291W        W67282  10.324   9.006   5.394 -0.0225  0.1526 -0.0822
24292W        W67283  19.774  13.904  21.890 -0.0046  0.4966 -0.0628
24293W        W67284   5.912  32.056   7.459  0.0861  0.0154 -0.0170
24294W        W67285  21.512  29.980  20.323  0.0444 -0.2049  0.1320
24295W        W67286   7.435   7.701  26.333 -0.4418  0.3611  0.2258
24296W        W67287   0.430  21.460  23.020  0.2011 -0.2575 -0.0950
24297W        W67288   4.633  21.681  10.097 -0.1556 -0.0518  0.0603
24298W        W67289   5.352  10.341   2.516  0.1306 -0.0148 -0.3777
24299W        W67290  31.610  24.931   7.105 -0.1190  0.0262  0.0864
24300W        W67291  23.123  17.121  28.212 -0.0018 -0.0639  0.0952
24301W        W67292   2.291  18.392  27.195  0.4150  0.1746 -0.1450
24302W        W67293   2.949   6.150   7.316 -0.1811  0.1619  0.2808
24303W        W67294  21.956   4.511  21.929  0.2541 -0.3849 -0.1574
24304W        W67295  31.469   8.717  21.718  0.1715 -0.0475  0.1570
24305W        W67296   7.584   3.864  19.862 -0.2460 -0.0515 -0.0769
24306W        W67297   8.345   4.575  22.704  0.1699  0.3289 -0.2471
24307W        W67298   2.216  23.578  16.477  0.0424 -0.3032 -0.0960
24308W        W67299   6.846   9.575  17.891  0.1672  0.2936 -0.0158
24309W        W67300  30.844   4.211  22.132  0.2392 -0.2947 -0.1383
24310W        W67301   4.100  31.563  28.362  0.0098  0.0975 -0.0316
24311W        W67302  20.972  31.449   4.701 -0.1666  0.0923 -0.0004
24312W        W67303  15.746   6.043   9.742  0.1696 -0.2091  0.2374
24313W        W67304   5.424   6.138  15.604  0.0662  0.1155  0.0700
24314W        W67305  29.889   6.076  21.981  0.1416 -0.1014 -0.0430
24315W        W67306   1.496  25.089  25.915 -0.4562  0.1853  0.1324
24316W        W67307   5.455  23.533   4.731  0.0496  0.3284  0.0463
24317W        W67308   9.702   1.652  22.588  0.3516 -0.0521  0.0480
24318W        W67309   0.234   5.352  16.507  0.2309  0.0300 -0.0124
24319W        W67310  24.931   7.326   0.753 -0.1198  0.1189  0.3747
24320W        W67311  27.980   4.898  18.188  0.0446  0.0398  0.2391
24321W        W67312  17.732   5.158   4.938 -0.1682 -0.0366  0.0156
24322W        W67313   0.354  31.007   1.446 -0.1015 -0.1293 -0.0289
24323W        W67314   5.888   5.850   9.553 -0.1078 -0.0313 -0.1323
24324W        W67315   1.237   4.731  14.504  0.0427 -0.0672  0.1675
24325W        W67316   7.576  31.004   5.519 -0.0121 -0.1748 -0.0028
24326W        W67317   8.734   2.282  17.210  0.1794  0.3486 -0.1974
24327W        W67318  27.918   1.478  17.804 -0.0930  0.0092 -0.0180
24328W        W67319  11.277  25.794   9.478  0.2373 -0.1222 -0.1238
24329W        W67320   8.084  33.465  20.412  0.1826 -0.2551 -0.0142
24330W        W67321   5.987  30.907  28.930 -0.2144 -0.0503  0.0591
24331W        W67322   4.196  19.920   0.641  0.6678  0.1301 -0.1667
24332W        W67323   6.368  27.964  17.168 -0.1255 -0.1538  0.2398
24333W        W67324   2.493  12.750  18.193 -0.0696  0.0799 -0.0006
24334W        W67325  15.551   5.130   0.212  0.1865  0.0949 -0.0400
24335W        W67326  19.124  14.530  19.684  0.0444  0.2459  0.0210
24336W        W67327  15.623  13.261  23.596  0.3035 -0.1283 -0.1349
24337W        W67328  33.059  20.318  23.790 -0.0243 -0.4613 -0.0686
24338W        W67329  29.161  20.704  20.950 -0.4311  0.1489  0.2815
24339W        W67330  13.913   8.815  18.862  0.2164  0.0920  0.0162
24340W        W67331   2.486  32.612  19.381 -0.3015  0.0881 -0.2620
24341W        W67332  17.090  31.722   5.185 -0.1810 -0.0839  0.0469
24342W        W67333  14.960   6.703  10.485  0.2189 -0.0796  0.2845
24343W        W67334  26.829   2.191   0.100  0.0092  0.0779 -0.1251
24344W        W67335   5.945   4.747   2.581 -0.1394  0.0140  0.0353
24345W        W67336   7.606  20.493  14.960  0.1338 -0.0039  0.1026
24346W        W67337   2.999  13.531  18.582 -0.1224 -0.0257 -0.1297
24347W        W67338  12.392   1.166  24.247  0.1442 -0.1381 -0.1964
24348W        W67339   5.775  10.710  18.622 -0.2845 -0.1726 -0.1870
24349W        W67340   6.965  12.286  23.806  0.0204  0.0903 -0.1313
24350W        W67341  18.904  13.558   3.562 -0.1165  0.2311  0.0003
24351W        W67342   6.330  24.861   2.520  0.0015 -0.2047  0.0993
24352W        W67343   3.543  30.840   1.194  0.2380 -0.1072 -0.2098
24353W        W67344  21.747   0.967  26.493 -0.0284 -0.0223  0.1625
24354W        W67345   8.363  10.933  21.473  0.3038 -0.0126 -0.2225
24355W        W67346  33.035  30.962  26.107  0.0769  0.1086 -0.2040
24356W        W67347  29.197   1.393   7.123  0.3568 -0.0939  0.1372
24357W        W67348  32.235  17.098   5.030 -0.0852 -0.4215  0.0169
24358W        W67349   0.655  15.799   4.265  0.0921 -0.1759  0.3019
24359W        W67350  24.346   1.274  25.462 -0.5868  0.1865 -0.5266
24360W        W67351   3.373  21.753  16.245 -0.0445  0.2966 -0.0755
24361W        W67352   0.568  12.072  29.070 -0.1854  0.0743 -0.5216
24362W        W67353  31.129   3.861  26.363  0.0354  0.1250 -0.0111
24363W        W67354   5.436  15.692  19.151  0.1844  0.0828 -0.1430
24364W        W67355  32.948  11.571  25.046  0.0257 -0.3333 -0.2191
24365W        W67356   8.130  31.903   7.348 -0.1469  0.1087  0.0179
24366W        W67357   9.514  34.093  16.633  0.2245  0.1334  0.1233
24367W        W67358   1.573  19.254   4.134  0.1491 -0.1670 -0.0382
24368W        W67359  13.142   3.309  21.215  0.0411  0.1166 -0.0738
24369W        W67360   1.738  30.347  14.380  0.3783 -0.0294 -0.4527
24370W        W67361  14.781   8.952  25.628  0.0284  0.0467 -0.1672
24371W        W67362  27.409   8.251   8.337 -0.0238 -0.4205  0.0377
24372W        W67363  12.093  14.057   2.311  0.0039 -0.0504  0.1682
24373W        W67364  33.381   9.467   5.838  0.1972  0.0104 -0.1420
24374W        W67365  14.824  34.067  23.898  0.3927 -0.1394  0.2362
24375W        W67366  17.132   9.675   3.030  0.1924  0.2875  0.0770
24376W        W67367  10.316   0.866  18.672  0.1799  0.1279 -0.0956
24377W        W67368  21.979  13.187  27.467  0.0078  0.0308  0.1139
24378W        W67369   0.895   9.430  22.801  0.0080 -0.0786  0.2316
24379W        W67370   1.844  13.313  20.186 -0.1148 -0.1256  0.2720
24380W        W67371  24.096   2.936  20.436 -0.0197 -0.0105  0.0859
24381W        W67372   8.577  29.765  25.981  0.5729  0.0132 -0.0076
24382W        W67373  34.577   5.529   8.153 -0.1019 -0.2700 -0.0039
24383W        W67374  10.954   1.646   0.966  0.0250  0.2944 -0.1286
24384W        W67375  28.192  32.416  22.839  0.2835  0.1203  0.4159
24385W        W67376  23.362  20.503   4.277 -0.1524 -0.0405 -0.0027
24386W        W67377  30.996  27.649   0.965  0.1213 -0.1942 -0.0499
24387W        W67378  21.109  13.757   4.457 -0.1279 -0.3564 -0.1119
24388W        W67379   7.794   4.746  15.779 -0.3086 -0.0707 -0.1300
24389W        W67380   2.546  24.707  16.968  0.0129  0.1914 -0.0264
24390W        W67381  22.027  19.869  17.936  0.0488 -0.1020  0.1997
24391W        W67382   2.712  33.816  22.648  0.0762  0.0425  0.1313
24392W        W67383   6.712  12.058  28.882  0.0617  0.0433 -0.0537
24393W        W67384  33.544  29.856  14.175 -0.1291  0.1968 -0.3430
24394W        W67385  22.926  24.576  25.756  0.3349  0.1359  0.1351
24395W        W67386  34.458  16.158   5.597  0.2771 -0.0534  0.2982
24396W        W67387  17.758  11.553  21.183  0.3289 -0.0241 -0.0083
24397W        W67388  30.265  13.836   9.297  0.1905 -0.3391  0.2533
24398W        W67389  10.043   2.212  10.458 -0.1326  0.0881  0.0260
24399W        W67390  28.274  15.125  18.984 -0.0293 -0.1503  0.2915
24400W        W67391   8.954  34.756  22.396 -0.0047 -0.2287  0.2621
24401W        W67392   5.302  11.392  27.706 -0.1072  0.0373 -0.1777
24402W        W67393  29.603   1.446   2.028  0.1749  0.1345  0.4740
24403W        W67394   9.626   6.968   0.396  0.1164  0.0608 -0.2200
24404W        W67395   8.268  13.460   4.973  0.1911  0.1376  0.0471
24405W        W67396  14.560  29.584  21.858 -0.0624  0.0825  0.2320
24406W        W67397   1.992  33.747  27.369  0.3747 -0.2211  0.1050
24407W        W67398   4.569  10.061  18.277  0.0449  0.2749  0.2294
24408W        W67399  30.295   5.725  23.790  0.3720 -0.1042 -0.0161
24409W        W67400   6.109  31.298   9.075  0.1576 -0.1100  0.1537
24410W        W67401  11.771  14.571  19.880 -0.0692 -0.0018  0.1646
24411W        W67402  17.482  13.951  13.709 -0.1648 -0.1518 -0.1293
24412W        W67403   9.896  11.481   0.303  0.1763  0.1896 -0.1158
24413W        W67404  13.204   0.260  22.166 -0.1638 -0.0339  0.1842
24414W        W67405  24.493   5.138   6.934  0.0829  0.2421 -0.1007
24415W        W67406   0.142   4.546  14.781 -0.0950 -0.1835  0.0942
24416W        W67407   5.495   9.912   9.781  0.2112  0.0379  0.0049
24417W        W67408  27.780   7.894   3.847  0.2663  0.0176  0.0206
24418W        W67409  30.120   0.228  25.529  0.0620 -0.1972  0.5262
24419W        W67410  29.967  34.673  15.805 -0.2580 -0.3841  0.2217
24420W        W67411  21.899   3.414   5.362 -0.0321  0.1556 -0.1832
24421W        W67412  27.985  13.449  17.169 -0.0993 -0.1687 -0.0385
24422W        W67413   9.544  10.645   4.470  0.0194  0.0028  0.2047
24423W        W67414  33.870   4.986   2.913  0.0019 -0.0302  0.2389
24424W        W67415  30.904   5.185   5.933  0.1828  0.2811  0.0486
24425W        W67416  11.902  11.860   6.951 -0.2460 -0.1398 -0.1777
24426W        W67417   1.306  20.468  20.798 -0.0859 -0.2361  0.3204
24427W        W67418  16.279   2.232   9.735  0.0724 -0.2412 -0.2272
24428W        W67419   8.011   9.975  23.412 -0.1524 -0.3717 -0.0546
24429W        W67420  17.788  14.456  25.747  0.0450 -0.1260 -0.0291
24430W        W67421  13.022   9.011  18.868  0.3382  0.3555 -0.5467
24431W        W67422   7.703   2.017   4.721  0.1852  0.2482  0.0346
24432W        W67423  13.532  21.738   2.252 -0.0493 -0.1267 -0.1580
24433W        W67424   4.786   4.575  18.076  0.0281  0.0127  0.1599
24434W        W67425  32.537  27.325   6.830  0.1831 -0.2462 -0.4822
24435W        W67426  21.692   7.513  27.022  0.1111  0.1154 -0.1479
24436W        W67427  17.747  11.800  24.082  0.0567  0.0114  0.2187
24437W        W67428  31.734  14.275   7.050 -0.0966 -0.0953 -0.0241
24438W        W67429  27.357  26.866  21.758 -0.0445 -0.0784  0.1915
24439W        W67430  11.926   9.561  18.587 -0.1171  0.2015  0.1881
24440W        W67431   3.513  20.590  22.174  0.0181  0.2038  0.4550
24441W        W67432   0.174   5.290   5.664 -0.1152  0.0387  0.4996
24442W        W67433   0.497  19.750  10.295  0.1701 -0.1879  0.0122
24443W        W67434  15.074  31.946   4.055 -0.0737 -0.1348  0.0395
24444W        W67435  32.118  26.498  20.880  0.2441 -0.3337 -0.1278
24445W        W67436  11.801  23.305  26.365  0.2023 -0.1105 -0.0918
24446W        W67437   0.325  30.021  17.739 -0.0621  0.1893  0.0695
24447W        W67438  29.484  12.713   0.822 -0.2069 -0.0659 -0.0191
24448W        W67439  16.304   9.991  16.968 -0.0345  0.0121 -0.2403
24449W        W67440  13.335   5.389  25.620 -0.0250  0.0900 -0.1562
24450W        W67441   2.091  31.767  16.496 -0.0758  0.0730  0.0220
24451W        W67442  12.247   1.576  25.948 -0.0991 -0.1379 -0.1545
24452W        W67443   7.046  12.765   0.417 -0.2797  0.1229  0.0135
24453W        W67444   6.945  13.653  20.829  0.1659  0.0758  0.0520
24454W        W67445  11.762  22.056   8.998  0.2084 -0.1429  0.0815
24455W        W67446   1.403  12.454   7.612  0.1708 -0.1966  0.2808
24456W        W67447  27.504  31.449   1.446  0.2438 -0.0432 -0.2048
24457W        W67448  32.127   2.000   1.855 -0.2233  0.0452 -0.1451
24458W        W67449  14.558   1.838   0.340  0.3222 -0.0055 -0.0636
24459W        W67450  33.667   1.794  20.427  0.0215  0.1470 -0.1944
24460W        W67451  31.547  23.874   0.978 -0.1464 -0.0999 -0.4498
24461W        W67452   0.188  14.251  16.270  0.0259  0.1626 -0.0197
24462W        W67453   1.889  32.348  25.309 -0.1777  0.0348  0.1552
24463W        W67454   0.010  29.621  23.335  0.2611  0.1157  0.1055
24464W        W67455  22.844  11.095   1.359 -0.2073  0.0871  0.0342
24465W        W67456   5.231   6.504   4.050 -0.4401 -0.4895 -0.1212
24466W        W67457   6.667  25.290  21.758 -0.0115  0.0393 -0.0961
24467W        W67458  33.308  16.085  10.393  0.1726  0.0897  0.0173
24468W        W67459   7.374  16.872  21.127 -0.0802  0.1233  0.1747
24469W        W67460  28.624  13.208  15.046  0.0960 -0.0927 -0.0437
24470W        W67461  11.506   5.786  24.522 -0.0192 -0.2491 -0.0166
24471W        W67462  11.351  19.674   4.025 -0.1085  0.1269 -0.1504
24472W        W67463  29.635  26.719  21.931 -0.0497  0.2346  0.0198
24473W        W67464  33.834  11.538  10.608 -0.1044  0.1739  0.1968
24474W        W67465  17.000  22.230  22.596 -0.1021  0.3853 -0.2410
24475W        W67466  32.713   8.440  18.811 -0.0614 -0.0508  0.1671
24476W        W67467  10.424   6.977   2.413 -0.1595 -0.2169  0.2312
24477W        W67468  22.350  28.588   9.172  0.1202  0.0429 -0.1660
24478W        W67469  13.311  32.952  23.213  0.0889  0.0164  0.5081
24479W        W67470  16.174  10.389  21.627  0.0758  0.1558 -0.1981
24480W        W67471   1.094   6.475  20.431 -0.2698  0.0926 -0.0403
24481W        W67472   3.281   9.090  20.306  0.0425 -0.0801  0.0055
24482W        W67473  21.865   3.904  19.656  0.0120  0.0622 -0.0061
24483W        W67474  29.830  25.225  24.066 -0.1610 -0.1406  0.0444
24484W        W67475  15.961  31.772   8.334  0.0878  0.2164 -0.0421
24485W        W67476  22.232  15.455  21.945 -0.0625 -0.0964 -0.4231
24486W        W67477  20.647  31.798  23.502 -0.0711  0.0023 -0.1382
24487W        W67478   5.691   0.790  17.905  0.1382  0.2110 -0.0603
24488W        W67479   3.974  17.573  18.238  0.0900 -0.0272 -0.0330
24489W        W67480   2.343  23.091  16.610 -0.0763  0.1037 -0.1073
24490W        W67481   6.506  25.533  15.239 -0.1818 -0.1367  0.0025
24491W        W67482   2.085   9.335   5.012  0.0407 -0.3289  0.0406
24492W        W67483  21.684  17.200   2.992 -0.1518  0.1562  0.5333
24493W        W67484  19.500  12.443  29.004  0.1513  0.1180 -0.0206
24494W        W67485  34.152   6.595  14.841 -0.0827 -0.0931 -0.1768
24495W        W67486  28.331  18.497  21.881 -0.0208  0.0583  0.0062
24496W        W67487  18.658   1.350  22.679 -0.2225 -0.1475 -0.2525
24497W        W67488  18.829  13.064  25.409  0.2221  0.1575 -0.0130
24498W        W67489  22.063  31.289   5.650 -0.0951  0.2119 -0.0734
24499W        W67490   0.270  14.387  24.790  0.0969 -0.0220  0.0674
24500W        W67491  14.297  32.991   7.674  0.0833  0.4621  0.0293
24501W        W67492  33.145   7.817  16.017  0.1503  0.1730 -0.2164
24502W        W67493  31.704   5.614   7.410  0.1697  0.0908  0.1016
24503W        W67494   9.986   7.071   1.497 -0.2866 -0.4052 -0.2415
24504W        W67495  16.269  24.765  19.800 -0.1061 -0.2409  0.2697
24505W        W67496   5.316   9.698   4.437 -0.0580  0.3080 -0.1912
24506W        W67497   2.578  25.084  21.533  0.1893 -0.3933  0.4374
24507W        W67498  19.891  32.323  17.055 -0.0996 -0.0206 -0.0650
24508W        W67499   4.959   7.756   3.633 -0.0323  0.0166  0.2090
24509W        W67500  14.832  10.420  21.837  0.1760 -0.0341 -0.2159
24510W        W67501   9.147  10.063   7.615  0.1006  0.0963  0.0744
24511W        W67502  12.944   3.259  23.098  0.5880 -0.3592  0.1539
24512W        W67503   8.616   2.186   7.251  0.2452  0.1580 -0.3570
24513W        W67504   5.188  12.531  20.334 -0.0479 -0.1203  0.0638
24514W        W67505  34.760  27.845   8.375  0.0921 -0.3218  0.0307
24515W        W67506  12.307   4.861  10.392 -0.4046 -0.4189  0.0971
24516W        W67507  10.562  33.767  16.054  0.1237  0.1612  0.0969
24517W        W67508   3.545   0.811   0.276 -0.1456 -0.2047 -0.1091
24518W        W67509  31.467   2.567   9.186 -0.2166 -0.1031  0.0688
24519W        W67510   6.932   3.819   9.982 -0.1178 -0.1266 -0.1083
24520W        W67511  18.670  10.331  28.119 -0.1962  0.3482 -0.0089
24521W        W67512   6.119  33.089   6.817 -0.0799  0.1654 -0.0631
24522W        W67513  33.480  17.502   2.536  0.0215 -0.1093 -0.2505
24523W        W67514  33.901  10.432  17.658 -0.0796 -0.0021 -0.1847
24524W        W67515   5.626   6.672   4.522  0.2374 -0.1947  0.0134
24525W        W67516  18.036  11.115   6.377  0.0251 -0.5687 -0.2726
24526W        W67517  18.472   0.493   9.584  0.1188 -0.1178  0.0709
24527W        W67518  30.454   3.224   6.189  0.1838  0.3505 -0.1826
24528W        W67519   9.508  14.839   8.542  0.2472 -0.0088 -0.0564
24529W        W67520  31.444  21.497  25.128  0.2791  0.1925  0.0846
24530W        W67521   8.837  17.645  24.464 -0.1839  0.2573 -0.0064
24531W        W67522  25.341  30.603  13.295  0.1170 -0.1738  0.0238
24532W        W67523   8.620  13.260   5.257 -0.1655 -0.2115  0.3178
24533W        W67524  10.373  20.690   6.346  0.0046  0.0069 -0.1167
24534W        W67525  14.239  12.979  14.463 -0.1532 -0.1277  0.3636
24535W        W67526  31.435  33.900  19.659  0.0031 -0.4943 -0.0354
24536W        W67527  31.923   6.752  26.073 -0.1580 -0.0121  0.0315
24537W        W67528  11.644  31.821  20.271 -0.0453 -0.1209  0.2049
24538W        W67529   4.675  13.910  26.306  0.0747  0.0753 -0.2788
24539W        W67530  30.001   3.255   3.092  0.3312 -0.1010 -0.6897
24540W        W67531   7.584  28.434   4.336 -0.0728 -0.1450  0.0052
24541W        W67532   2.948  28.241  26.015 -0.1223  0.1668  0.1554
24542W        W67533  16.915  17.908  14.324 -0.0454 -0.0830  0.2379
24543W        W67534  11.876   8.152  21.038  0.1549  0.1737 -0.0877
24544W        W67535  16.488  34.301   6.797  0.1441  0.2599 -0.1541
24545W        W67536   0.352  27.980  22.614 -0.1617 -0.1623 -0.0398
24546W        W67537  13.519  28.968  26.235 -0.1206  0.1210  0.2599
24547W        W67538   4.711  13.676  22.080 -0.0093  0.0769  0.1848
24548W        W67539  14.885  14.166   7.232  0.2109  0.1958 -0.1295
24549W        W67540  29.298  20.446  17.111  0.3535 -0.1260 -0.0243
24550W        W67541  19.964  10.944   0.839  0.0362 -0.0174 -0.1443
24551W        W67542  24.198  27.604   6.234  0.1434  0.1844  0.1882
24552W        W67543  22.347  32.503   2.507 -0.0024  0.3403  0.0454
24553W        W67544   5.312   1.247  27.837  0.0325 -0.2105 -0.0892
24554W        W67545  14.743  22.732  13.587 -0.1412  0.2124  0.1710
24555W        W67546  11.568  29.799   1.296 -0.3631 -0.0434  0.1010
24556W        W67547  33.077   8.680  24.647 -0.1584 -0.1980  0.2620
24557W        W67548  29.895   5.673  22.507  0.2282  0.1479  0.6450
24558W        W67549  30.542  13.999  23.690 -0.0291 -0.1227  0.2016
24559W        W67550   5.891  12.750   7.393  0.0235  0.2085  0.0011
24560W        W67551  18.817   0.081  22.946 -0.3356  0.0191  0.0423
24561W        W67552   9.258  20.993  29.130  0.2760  0.0063 -0.2371
24562W        W67553   4.900  29.517  13.445 -0.0277 -0.2507 -0.3401
24563W        W67554   8.644   4.956  16.870  0.0812  0.1210  0.1543
24564W        W67555   3.834   3.708  19.489  0.0247  0.2473  0.0304
24565W        W67556   4.354  31.369  16.732  0.0593 -0.0469 -0.0900
24566W        W67557  33.418   5.791   0.231  0.1907  0.1425  0.0736
24567W        W67558  22.292  34.093   5.481  0.0364  0.3585  0.1575
24568W        W67559  30.824   6.473  17.422 -0.2743 -0.0423 -0.0119
24569W        W67560  32.538  13.753  15.499  0.0599  0.0264  0.2949
24570W        W67561  15.946  22.880  19.295 -0.1195  0.0290  0.0635
24571W        W67562   8.229  27.073  17.622  0.0758 -0.0888 -0.0453
24572W        W67563   9.629  15.838  23.728 -0.1547  0.0295  0.0367
24573W        W67564  20.631  13.252   1.401 -0.0267  0.0885 -0.0658
24574W        W67565  27.441   4.596  16.633  0.2097  0.0093 -0.1298
24575W        W67566   4.031  17.378  27.352 -0.0913 -0.1436  0.0166
24576W        W67567  31.731   5.250   9.270 -0.2756  0.1236 -0.2489
24577W        W67568  22.237  19.428  23.414  0.4178  0.0147  0.0918
24578W        W67569  14.147  30.955  24.739  0.1677 -0.0348  0.1504
24579W        W67570  11.966   2.867   3.546  0.0408 -0.0551  0.1986
24580W        W67571  23.339  14.743   2.201  0.0715  0.0934 -0.1557
24581W        W67572   1.303  24.743   2.603 -0.2024  0.0870  0.2494
24582W        W67573  33.047  14.692  22.581 -0.2928  0.2906  0.1119
24583W        W67574  34.347  19.691   7.053  0.1212  0.0547  0.3559
24584W        W67575   1.943   1.220  27.794  0.5046 -0.2072  0.0894
24585W        W67576  28.389  31.923  20.927 -0.2038 -0.0847 -0.0651
24586W        W67577   1.072  12.222   9.780 -0.0739  0.2180 -0.0910
24587W        W67578   5.430   7.707  25.405 -0.3121 -0.0763  0.3576
24588W        W67579  13.892  30.088  17.181  0.0378  0.1145 -0.3086
24589W        W67580   9.384   0.974  27.838  0.1742 -0.1458 -0.2832
24590W        W67581   9.595  25.831  15.888 -0.1174 -0.0155 -0.1062
24591W        W67582  13.263  12.527  22.357  0.1097 -0.1650 -0.1133
24592W        W67583  34.297  31.096   9.010 -0.3726 -0.0970  0.1010
24593W        W67584   9.438   6.320  24.051  0.5969  0.2658  0.1808
24594W        W67585   2.649  10.772  25.450 -0.0756  0.0940  0.1840
24595W        W67586   2.582   7.179   9.743  0.1646 -0.3426  0.0433
24596W        W67587  32.503   5.698  19.291  0.0181  0.0823  0.0485
24597W        W67588  27.087   1.656  15.683  0.1068 -0.1122  0.1187
24598W        W67589   9.606  10.317  26.263  0.1567 -0.2129 -0.0528
24599W        W67590  21.394  34.386  24.801  0.3120  0.0415  0.3028
24600W        W67591   7.129  28.879   8.228 -0.0349  0.4334 -0.0376
24601W        W67592   0.304  12.479  21.107 -0.1272  0.0440 -0.3186
24602W        W67593   2.209  33.827   4.688  0.0071 -0.0798 -0.0246
24603W        W67594  14.393  31.715  24.844  0.0714 -0.0161  0.0183
24604W        W67595  10.868   2.089   7.137  0.1531  0.0779 -0.0838
24605W        W67596  10.191  13.069  10.280  0.0343  0.1421  0.2455
24606W        W67597  15.666  19.686  14.356 -0.2051 -0.3416 -0.0712
24607W        W67598   5.213  10.201   6.517  0.0205 -0.0594  0.0758
24608W        W67599  19.104  12.262   6.187 -0.1263 -0.1664  0.0446
24609W        W67600   3.017  21.635  19.364 -0.2882  0.1391 -0.1035
24610W        W67601   6.283   7.625   0.585  0.0526 -0.1052 -0.1338
24611W        W67602  25.228  18.863  17.976  0.1252 -0.0327  0.3275
24612W        W67603  13.695   1.958   2.716  0.3434  0.2920 -0.0854
24613W        W67604  34.234  13.769  21.693 -0.0266 -0.0382 -0.0346
24614W        W67605  25.099  30.736   6.864 -0.2284  0.1058 -0.2282
24615W        W67606  21.425  24.380  17.296  0.0791  0.0504  0.3706
24616W        W67607   1.799  14.363   9.433 -0.0386 -0.2319 -0.0984
24617W        W67608  31.446  11.819  17.472 -0.1836 -0.3963 -0.0162
24618W        W67609  24.356  18.226  23.567 -0.0822 -0.1870  0.1131
24619W        W67610  17.900  15.128  23.071  0.1207 -0.1361 -0.1752
24620W        W67611   9.295  18.105  20.459 -0.2493  0.0092  0.0311
24621W        W67612  25.096  10.576   8.244  0.1067 -0.1990 -0.3444
24622W        W67613   3.972  32.594  21.361  0.0473  0.0516 -0.1393
24623W        W67614  14.091  11.698  17.675 -0.2301  0.0044 -0.0561
24624W        W67615  33.263   4.051  17.812 -0.0515 -0.3430  0.0075
24625W        W67616   9.375   7.934   5.197  0.0921  0.3010 -0.0715
24626W        W67617  26.708   5.533  25.740  0.1256  0.4103 -0.1801
24627W        W67618  33.250  34.021   3.105  0.1289 -0.0614  0.3588
24628W        W67619  17.620  20.280   0.316  0.2030 -0.1830  0.1189
24629W        W67620  19.644  33.615   5.758 -0.0534 -0.1654 -0.0653
24630W        W67621  20.569   6.384   7.355  0.3525 -0.1539 -0.0516
24631W        W67622  33.598  15.524   7.187 -0.1201  0.1690  0.2500
24632W        W67623   4.812   2.461  19.437  0.1168 -0.1342  0.0312
24633W        W67624   5.722   1.610  24.872  0.4266  0.0099  0.0422
24634W        W67625  34.665  19.677  27.806  0.1679  0.0245  0.1882
24635W        W67626   7.939  17.356  27.588 -0.2968  0.0934  0.1576
24636W        W67627  23.984  15.167  20.458  0.2920 -0.0256  0.1351
24637W        W67628   3.087   3.334   9.548 -0.3474  0.0377 -0.1793
24638W        W67629  33.655  21.547  26.325 -0.2755  0.2289  0.0448
24639W        W67630  21.644  12.052  20.903 -0.1626 -0.2305 -0.3716
24640W        W67631  14.097  23.541  28.408 -0.1755 -0.1065 -0.4220
24641W        W67632  25.175  12.919  18.607 -0.2884  0.0395  0.2325
24642W        W67633  21.091  21.739  29.198  0.3190  0.0135  0.0440
24643W        W67634  21.276  12.062  22.747  0.2047  0.0175 -0.1337
24644W        W67635  21.797  15.854  25.322 -0.0468 -0.0970 -0.2761
24645W        W67636   2.220  12.193   7.963  0.1275  0.1185  0.1098
24646W        W67637  34.494   6.724   8.906 -0.0526 -0.2406 -0.1545
24647W        W67638   1.113  21.989   8.689 -0.1440  0.0440  0.6221
24648W        W67639  16.559   8.472  24.147 -0.1215  0.2038 -0.1062
24649W        W67640  17.164  26.464  23.707  0.1758  0.0424  0.2871
24650W        W67641   8.936  27.941  21.675  0.1490 -0.2148  0.1260
24651W        W67642   1.037   8.783   9.440 -0.2578  0.2738 -0.3519
24652W        W67643  10.639  27.094   6.259 -0.0320 -0.2836 -0.0426
24653W        W67644  30.508   6.833  16.704 -0.3139 -0.3487  0.2025
24654W        W67645   4.933   8.418  27.931  0.2014 -0.1871  0.2329
24655W        W67646   0.327   1.694  16.882 -0.1082 -0.0048 -0.1814
24656W        W67647  10.608  25.533  22.873  0.3793  0.0543 -0.0894
24657W        W67648  18.819   6.681  25.124  0.1026  0.1513  0.2474
24658W        W67649  29.886  12.129   3.629  0.4020  0.1490 -0.2413
24659W        W67650  25.411   0.665  23.321  0.1544 -0.2391 -0.0971
24660W        W67651  33.945  10.946  28.793  0.1100  0.0687  0.3248
24661W        W67652  28.550   1.351  16.968 -0.0719  0.0692 -0.1652
24662W        W67653  11.029   1.679  22.185 -0.0601 -0.0968  0.2035
24663W        W67654  16.824   9.045  25.061  0.0217  0.2430  0.0806
24664W        W67655  30.200   1.247  19.189 -0.1673  0.0584  0.1463
24665W        W67656  15.422   0.785  25.973  0.0559 -0.0409  0.2583
24666W        W67657   5.045   8.806   7.233 -0.1462 -0.0940 -0.1240
24667W        W67658   0.956  22.991  19.391  0.4645 -0.0869 -0.2534
24668W        W67659   5.723  12.491  26.567 -0.2822  0.2225 -0.0010
24669W        W67660   0.077  33.926   0.816 -0.3597  0.0814  0.0175
24670W        W67661   0.940  16.430  25.944  0.0141 -0.0795 -0.3684
24671W        W67662  11.688  28.614  27.869  0.3210  0.0964  0.1802
24672W        W67663  28.815   9.703   2.333 -0.3486  0.2672  0.1269
24673W        W67664   8.790  12.220  20.753  0.0809  0.0358 -0.0628
24674W        W67665   4.800  14.884  28.015 -0.4250 -0.1940 -0.0218
24675W        W67666  17.352  32.617  26.372 -0.0495 -0.1728  0.4818
24676W        W67667   3.726   1.910  14.769  0.4193 -0.0647  0.2174
24677W        W67668   9.015   5.766  27.097  0.1489  0.1011  0.0715
24678W        W67669  20.882  17.804   8.209 -0.2029  0.2526 -0.1599
24679W        W67670  23.819  23.186  22.062 -0.1486 -0.0990 -0.0799
24680W        W67671  15.549  32.666  13.988 -0.0900  0.2965 -0.1783
24681W        W67672  11.546  13.666  19.570 -0.1287  0.1619  0.0622
24682W        W67673  16.200  32.322   2.661  0.1679  0.2542  0.0373
24683W        W67674  33.843  16.460  22.190  0.2133 -0.1493  0.2247
24684W        W67675  21.301  20.205   7.787 -0.1338 -0.3602 -0.1073
24685W        W67676   0.599  17.784  21.934 -0.1482  0.4396  0.0805
24686W        W67677   0.595   6.942  10.378  0.3737 -0.2337 -0.2696
24687W        W67678   3.581  13.551  16.775 -0.1227 -0.0380 -0.0251
24688W        W67679  34.420   9.130   9.705  0.0133  0.0200  0.2988
24689W        W67680   4.222   9.361   6.982  0.3302 -0.0753 -0.0740
24690W        W67681  11.394  22.533   2.180  0.0848 -0.0567 -0.1130
24691W        W67682  11.542  20.787  23.232  0.4708  0.3811  0.0679
24692W        W67683  15.113  20.792  21.735  0.3701  0.0900  0.2351
24693W        W67684   6.977  21.863  26.137 -0.0241 -0.1251  0.0490
24694W        W67685  30.531   9.642  20.087  0.0118 -0.1170  0.2016
24695W        W67686  13.743  33.414  15.202 -0.0590 -0.2203  0.0195
24696W        W67687   1.288  11.286   0.433  0.0467 -0.2948  0.0543
24697W        W67688  16.827  23.256  20.945  0.1490  0.4814  0.0240
24698W        W67689  26.788  12.429   4.611  0.0346 -0.0601 -0.0767
24699W        W67690   3.772   4.443  24.397 -0.2575  0.0418  0.2122
24700W        W67691  20.201   8.500  19.786 -0.0682  0.1381  0.1923
24701W        W67692  13.308  32.898  15.315  0.1033 -0.1411  0.0141
24702W        W67693   2.124   7.493  23.941 -0.1553 -0.1506 -0.1000
24703W        W67694   9.024  30.455  17.428  0.2578 -0.3558 -0.0894
24704W        W67695  13.339  21.703  15.340 -0.0995 -0.3261 -0.1335
24705W        W67696  13.205  33.713   6.996  0.1511 -0.0649 -0.0699
24706W        W67697   3.400  24.018   3.133 -0.0046 -0.1399 -0.0127
24707W        W67698   9.045  17.196  28.065  0.0696 -0.0454  0.0957
24708W        W67699   9.520  12.375  15.407  0.0439  0.0613 -0.1129
24709W        W67700  32.034  23.960   1.659 -0.0547 -0.2722 -0.0069
24710W        W67701   0.873  15.870  23.098 -0.2429 -0.2382  0.1072
24711W        W67702  15.580   4.122  18.563  0.1452  0.2446  0.4012
24712W        W67703  15.008  31.835  26.617 -0.1239  0.1748  0.0171
24713W        W67704  34.088  25.612  20.572  0.2628  0.1808 -0.1564
24714W        W67705  13.814   5.856   9.030  0.3367 -0.0447 -0.0474
24715W        W67706  10.629  34.425   8.167  0.1848 -0.0788  0.4262
24716W        W67707  24.922  13.420  13.735 -0.3161  0.1587 -0.0817
24717W        W67708  31.481  11.347  17.874  0.5426 -0.0854  0.0888
24718W        W67709   6.633  30.519  27.227  0.0858 -0.2307  0.0370
24719W        W67710  33.561   3.937  25.158 -0.0413 -0.0796  0.2086
24720W        W67711   8.310  11.188  17.421 -0.0522 -0.0492  0.0704
24721W        W67712  32.038  22.467  24.707 -0.3511 -0.0491  0.0618
24722W        W67713   5.396   7.408  28.678 -0.0752 -0.0857 -0.0344
24723W        W67714   4.709   4.878  19.611 -0.0659  0.0646 -0.1627
24724W        W67715  10.404  24.849  23.419  0.0546  0.2986 -0.0766
24725W        W67716  22.913  12.216   1.318 -0.4227 -0.1589 -0.0319
24726W        W67717  16.008   0.441  15.391  0.3415  0.0372 -0.1037
24727W        W67718  12.004  17.236  26.152 -0.1704  0.0987  0.2401
24728W        W67719  33.354   1.315  19.549  0.0393  0.0427  0.0098
24729W        W67720   0.984  29.168   3.908  0.0035 -0.0369  0.2470
24730W        W67721  12.498  15.236   7.081  0.1132  0.1423 -0.0944
24731W        W67722  32.707   0.567  27.132  0.2906  0.0145 -0.1016
24732W        W67723   8.008   8.175   9.350 -0.0396 -0.0488 -0.1374
24733W        W67724   3.370  13.465   2.388 -0.1080  0.0489  0.0416
24734W        W67725   8.354  29.732   2.786 -0.1703  0.2720  0.0626
24735W        W67726  32.357   4.865   9.852  0.1314  0.2091  0.0742
24736W        W67727   3.118  27.378  16.874 -0.4403  0.1158 -0.1116
24737W        W67728  33.556   6.771  18.776 -0.2166  0.1997  0.4022
24738W        W67729  21.699  20.092  24.717 -0.3282 -0.2227 -0.0724
24739W        W67730  14.642   5.618  21.345  0.2137  0.0971  0.0602
24740W        W67731   0.253  32.098   1.034  0.0086  0.3909  0.0658
24741W        W67732  15.164  32.264  16.659 -0.2298 -0.1315 -0.0427
24742W        W67733  30.182  31.086  23.150  0.1264 -0.3136  0.1940
24743W        W67734   7.737   6.976  22.684  0.1773 -0.2490 -0.0845
24744W        W67735  27.238   2.082  25.532 -0.0211  0.1585 -0.0357
24745W        W67736  12.702  12.163  21.080 -0.1343 -0.4628  0.0415
24746W        W67737  15.758   6.977   1.015  0.1756 -0.0481 -0.0086
24747W        W67738  11.667  17.317  23.460  0.2953  0.0115 -0.0118
24748W        W67739   6.149   4.306  21.412  0.1219 -0.0943  0.0908
24749W        W67740   8.710  12.738   4.171 -0.0881  0.0820 -0.2207
24750W        W67741   1.747  11.104  19.635 -0.0111  0.0429 -0.2183
24751W        W67742  28.468  14.610  20.708 -0.0329 -0.1562 -0.1388
24752W        W67743   5.356  29.808  23.837  0.3714 -0.1357 -0.0786
24753W        W67744   8.021   0.230  20.994 -0.1165  0.0566 -0.1984
24754W        W67745   8.036   8.426  27.331 -0.1448 -0.1685  0.0957
24755W        W67746  16.415  15.452   0.570 -0.1632 -0.0029 -0.0002
24756W        W67747  33.118  12.825   0.585 -0.0697 -0.2363  0.0363
24757W        W67748  17.672  26.076   6.720 -0.2871 -0.1828  0.1045
24758W        W67749  31.306   7.676   1.003  0.0169 -0.0987 -0.3308
24759W        W67750  11.664  32.412   2.265 -0.0516 -0.1340 -0.2045
24760W        W67751  20.481   1.957  24.034  0.0949  0.0060 -0.1700
24761W        W67752   6.596  18.320   1.144  0.0900  0.0803 -0.3013
24762W        W67753  21.400  18.654  27.460 -0.2433 -0.1034  0.1772
24763W        W67754  20.954   5.040  18.497  0.0147  0.1931  0.2885
24764W        W67755  13.155  32.767   1.140 -0.2886  0.0718  0.1478
24765W        W67756  15.135  16.582   3.713 -0.2699 -0.3714  0.2446
24766W        W67757   3.521  18.072  22.967  0.1859 -0.1320  0.2035
24767W        W67758   7.296  16.774   9.531  0.1049  0.0774 -0.0356
24768W        W67759  16.874   6.859   0.163  0.0630 -0.1251 -0.0645
24769W        W67760  26.153  16.592  23.597  0.0216  0.0500 -0.1372
24770W        W67761  20.524  13.601   1.982 -0.0593 -0.0558 -0.0409
24771W        W67762  30.003   1.669  22.193  0.0985 -0.1185  0.1185
24772W        W67763   0.159  10.035  19.570 -0.1116 -0.0279  0.0836
24773W        W67764   7.672  11.530  23.812 -0.1447 -0.1519 -0.1197
24774W        W67765  34.092  15.224   9.933  0.0717 -0.1903  0.1942
24775W        W67766  20.684  14.699  24.675  0.1299  0.2578  0.3776
24776W        W67767  16.008   9.767  28.195  0.1246  0.3076 -0.0736
24777W        W67768   2.699  14.602   9.263  0.1019 -0.0164 -0.0342
24778W        W67769  32.060  18.626  16.088  0.1710 -0.3101 -0.3464
24779W        W67770  14.576  34.423   1.720  0.1463  0.1787 -0.1576
24780W        W67771  11.031  31.959  17.974  0.1896 -0.0986 -0.0865
24781W        W67772   2.587  14.027  24.873 -0.0393 -0.1393 -0.5480
24782W        W67773   1.296   3.966  28.095  0.0212 -0.4261 -0.1623
24783W        W67774  29.761  20.007   4.721  0.2148 -0.4670 -0.0829
24784W        W67775  12.430  30.697  26.804 -0.1991  0.0063  0.2036
24785W        W67776  22.517  24.014  24.762  0.2972  0.0849 -0.3853
24786W        W67777   0.624  16.140  23.510  0.0696  0.2913  0.1731
24787W        W67778   3.722  10.595   6.398  0.1068  0.1077  0.1635
24788W        W67779  29.778  30.128  14.462  0.1349 -0.2140  0.0611
24789W        W67780   6.212   5.475  22.142 -0.1536  0.2486  0.3887
24790W        W67781  33.278   8.957  16.961  0.1202  0.0958  0.5267
24791W        W67782   5.961  14.954  23.810  0.1953  0.1946  0.1697
24792W        W67783  11.548  13.388  21.827 -0.1500 -0.0108  0.0801
24793W        W67784   7.886  13.078  22.853 -0.3734 -0.0915 -0.0442
24794W        W67785  25.225   3.789  18.299  0.3068 -0.1408  0.0127
24795W        W67786  10.462   6.408  22.620 -0.1450 -0.2797 -0.0198
24796W        W67787  19.847   7.321  17.115 -0.3280  0.1615  0.1704
24797W        W67788   5.122   6.112  23.176  0.0483  0.1321 -0.0287
24798W        W67789   4.300  34.762  16.203  0.1123  0.2207  0.3473
24799W        W67790   9.788  13.302  22.681  0.0061  0.2022 -0.3643
24800W        W67791   4.461  24.141   8.089 -0.2735 -0.3996 -0.1491
24801W        W67792   3.947   2.898  21.550 -0.1181  0.0267  0.1511
24802W        W67793   6.433   7.779  14.734 -0.2148  0.0426  0.0101
24803W        W67794  27.963   6.298  26.012  0.0843 -0.3095  0.1695
24804W        W67795   8.147   7.865  17.951  0.4005  0.2344 -0.0048
24805W        W67796   3.403  25.054  20.631 -0.1216  0.3157 -0.0614
24806W        W67797   3.264  13.781  17.625  0.0163  0.1112 -0.2470
24807W        W67798  10.846  11.109   0.207  0.1597  0.2586  0.0993
24808W        W67799   2.732  29.926  15.385 -0.2069  0.0415  0.1375
24809W        W67800  30.443  18.604  22.779 -0.2761 -0.0806  0.1011
24810W        W67801   4.641  19.344  24.057 -0.1635  0.0016  0.1630
24811W        W67802  34.341  26.876  13.420 -0.1350  0.1590  0.1658
24812W        W67803  15.680   9.119  18.244  0.1183  0.2052  0.1402
24813W        W67804  14.931  17.030  12.370  0.1833  0.0397 -0.0183
24814W        W67805  11.117   6.061  17.402 -0.0753 -0.0852 -0.2083
24815W        W67806  19.842  13.311  19.886 -0.0467  0.2336  0.0651
24816W        W67807   7.581  29.450  18.806 -0.3790 -0.1686  0.0698
24817W        W67808   5.376  28.972   0.090 -0.2078 -0.3139 -0.0030
24818W        W67809   7.078  30.880  27.553 -0.1868  0.0099 -0.0317
24819W        W67810  30.912  28.879  21.649  0.6037 -0.2328 -0.1229
24820W        W67811  31.405   8.044  15.687 -0.1808 -0.0113 -0.1244
24821W        W67812  15.716  17.839  12.585 -0.2299 -0.0663  0.0718
24822W        W67813  10.970  23.982  28.852 -0.2609 -0.0587 -0.0758
24823W        W67814  22.847   3.235  23.695  0.2214  0.0750  0.3299
24824W        W67815   1.087  18.101  23.369  0.1357 -0.3304 -0.3036
24825W        W67816  10.687   8.651  24.704 -0.0233  0.0316  0.1511
24826W        W67817   4.785   2.576  26.331  0.0543 -0.1926 -0.1051
24827W        W67818   5.972  19.002   7.684 -0.5552 -0.2287 -0.3033
24828W        W67819  20.855  19.866  27.878  0.1888 -0.2483  0.1572
24829W        W67820   6.995  29.030  14.588 -0.4674 -0.0794 -0.0461
24830W        W67821   7.677   9.346  15.933 -0.0571  0.0331 -0.0488
24831W        W67822   4.352   8.276  23.258 -0.1990  0.2074 -0.3726
24832W        W67823   4.592  19.375  19.338  0.4033 -0.3698  0.3356
24833W        W67824  18.758  24.497  21.854  0.1062 -0.1824  0.0093
24834W        W67825  14.125   6.658  21.374  0.0433  0.0361 -0.2193
24835W        W67826  21.142   5.459  18.741 -0.2806 -0.0449 -0.0288
24836W        W67827  31.058  32.322  16.360  0.0298  0.0490 -0.0579
24837W        W67828  12.971  33.415  16.010  0.1758 -0.0086 -0.2561
24838W        W67829   4.876  19.568  21.157  0.1046 -0.0552 -0.0900
24839W        W67830  23.303  25.659  26.012 -0.0226 -0.0883 -0.0222
24840W        W67831   4.851  20.028  18.466  0.1446 -0.0075  0.0687
24841W        W67832   6.436   6.232  23.706 -0.1147  0.2929 -0.3043
24842W        W67833   8.469  33.514  20.758  0.2263 -0.0640  0.1244
24843W        W67834  29.940  12.365  14.660 -0.2142  0.1281 -0.0961
24844W        W67835  34.249  13.323  28.197 -0.0624  0.0216 -0.0407
24845W        W67836  30.935  22.181  17.479  0.3338 -0.2124  0.1442
24846W        W67837  31.900  18.832   3.628  0.2710  0.3970 -0.2049
24847W        W67838   8.196  21.347  20.120 -0.2025 -0.0089 -0.2660
24848W        W67839  31.160  14.590  15.345  0.0172 -0.1715  0.4139
24849W        W67840   1.306  34.761  28.952 -0.0416  0.0081 -0.4500
24850W        W67841  23.082  12.724  24.553 -0.1638 -0.3393 -0.2765
24851W        W67842  11.084   1.670  17.065 -0.3194 -0.2179 -0.1264
24852W        W67843   4.441  27.344  26.858  0.0252  0.0057  0.1527
24853W        W67844  28.751  15.094  28.754 -0.3299  0.3118  0.0298
24854W        W67845  25.056  28.872  16.922  0.2437  0.0902 -0.0368
24855W        W67846   0.770  20.117  17.272  0.2497 -0.1373  0.1627
24856W        W67847  20.312   8.600  27.991  0.6063 -0.2025  0.1598
24857W        W67848   9.077   6.215  23.533  0.0172 -0.3501  0.1752
24858W        W67849  17.533  20.450  14.477 -0.0241  0.1662  0.2448
24859W        W67850  25.798   9.818  25.200  0.0378 -0.1692  0.1353
24860W        W67851  14.156   6.411  22.669  0.0185 -0.3039  0.0264
24861W        W67852   4.254  32.243  17.744  0.1711 -0.4164 -0.1688
24862W        W67853   2.406   2.125  24.054 -0.2765 -0.0411 -0.2023
24863W        W67854   1.787  22.959  20.973 -0.1646 -0.3113 -0.0827
24864W        W67855  33.294  14.294  22.102 -0.2106  0.0525 -0.1292
24865W        W67856   8.436   5.016  27.097  0.2137 -0.0097  0.1522
24866W        W67857   6.677  12.639  23.609  0.0773 -0.1300  0.2253
24867W        W67858  29.927  25.472  26.061  0.3682 -0.3919 -0.0817
24868W        W67859  16.981  25.552  18.147 -0.4951  0.1089  0.2673
24869W        W67860  16.693   5.332  25.403  0.1270 -0.1239 -0.1391
24870W        W67861  15.909   5.241  18.055 -0.0864  0.0940 -0.4650
24871W        W67862  19.600   3.688   8.984 -0.0870  0.5426  0.2313
24872W        W67863   4.904  15.843  15.726 -0.5461  0.2093  0.0118
24873W        W67864   3.355  20.604  18.161  0.0244 -0.1951 -0.0913
24874W        W67865   3.776   8.706  21.523  0.3832 -0.2152 -0.0625
24875W        W67866  15.505  18.969  13.852 -0.0735  0.1431  0.0226
24876W        W67867   7.552  14.519  15.637 -0.0028  0.0754 -0.3329
24877W        W67868   6.649   6.152  27.210  0.1620  0.1603  0.0662
24878W        W67869   8.154   3.412   2.874  0.0393 -0.1104 -0.2768
24879W        W67870  31.738  17.574  19.004  0.0849  0.0932 -0.0373
24880W        W67871   8.454   4.399   8.997 -0.1796 -0.1774  0.1483
24881W        W67872  32.447  20.573  10.404 -0.0941  0.1059 -0.0576
24882W        W67873   0.139  14.641  16.629  0.3524  0.0087  0.0920
24883W        W67874  24.291   8.970  24.896 -0.1932  0.1098  0.1202
24884W        W67875  26.795  28.469   0.246  0.0316 -0.0263 -0.2551
24885W        W67876  28.179  13.828   2.386  0.2108  0.2419  0.3791
24886W        W67877  33.852  34.352  23.197  0.0520  0.0213 -0.0271
24887W        W67878  14.000   4.384   3.902 -0.0858  0.0090  0.3229
24888W        W67879  26.135  25.337   0.858  0.0796 -0.0877 -0.0158
24889W        W67880  26.673   7.298   0.566 -0.0390  0.0764  0.0394
24890W        W67881  34.052  25.524  25.770  0.2682 -0.2159  0.2133
24891W        W67882  34.189  28.333  22.228 -0.3888  0.0431  0.0065
24892W        W67883  18.992   3.881  23.207 -0.0725 -0.1540  0.2298
24893W        W67884  10.872  15.919  28.742  0.0664  0.0144 -0.3020
24894W        W67885  25.973  15.962  26.886  0.0505 -0.0838  0.1917
24895W        W67886   5.669  10.618  19.822 -0.0354 -0.1550 -0.0755
24896W        W67887   1.641  11.879  17.956  0.1777 -0.2742 -0.0817
24897W        W67888  30.058  16.013   3.948  0.1243  0.2280  0.1893
24898W        W67889   1.122  27.174  18.636 -0.0253 -0.2979 -0.1232
24899W        W67890  15.603  25.690  17.684  0.2601  0.0385 -0.0550
24900W        W67891  33.437  24.615  25.344  0.1033  0.1346  0.1101
24901W        W67892  31.825  18.865  15.701 -0.0453  0.0299  0.2632
24902W        W67893   1.085  32.220   0.451 -0.1273  0.1685  0.1270
24903W        W67894   9.747  10.600  26.796 -0.0553 -0.0862  0.0142
24904W        W67895  25.515   4.890  20.258  0.2758 -0.0375 -0.0721
24905W        W67896   9.220  27.801   1.220 -0.0085  0.3703 -0.1410
24906W        W67897   9.832  13.068  15.936 -0.0071  0.1556  0.2312
24907W        W67898   1.956  23.592  14.920 -0.1082  0.1620  0.0929
24908W        W67899   9.132  11.521  26.006 -0.0020 -0.1312  0.3153
24909W        W67900  32.189   8.738  25.053 -0.3514  0.0380 -0.1082
24910W        W67901  11.958  19.648   2.805  0.0392 -0.0915 -0.0688
24911W        W67902  28.025  15.801  23.511 -0.1524  0.1354  0.0459
24912W        W67903   5.679  11.228  21.632  0.1228  0.2125 -0.0981
24913W        W67904   5.842  24.790  21.789  0.1609 -0.0531 -0.0895
24914W        W67905   6.673  17.598  23.946 -0.4400  0.0868  0.3671
24915W        W67906   8.531   4.238  18.510 -0.0006 -0.2586  0.1189
24916W        W67907   7.517  19.467  17.107 -0.1379  0.2169  0.1613
24917W        W67908   0.160   0.571  20.765 -0.1619  0.1020  0.0852
24918W        W67909  30.450  21.757  16.427 -0.0257  0.0239 -0.0776
24919W        W67910   1.719  10.686  26.956  0.1657  0.1074 -0.1194
24920W        W67911  10.964   9.261  19.985 -0.1573  0.2720 -0.1666
24921W        W67912  33.283  10.415  20.998 -0.1776  0.5281 -0.2946
24922W        W67913   4.384  12.982  24.473 -0.3534 -0.0324  0.1331
24923W        W67914   2.833  15.878  26.312 -0.1725  0.3025  0.5231
24924W        W67915   4.685  20.479  10.710 -0.1964  0.2981  0.3243
24925W        W67916   2.941  26.865  14.731  0.0579 -0.1093  0.0761
24926W        W67917  11.140   7.606  21.698  0.1432 -0.0344  0.0613
24927W        W67918  33.991   7.574   0.673  0.1566 -0.1744  0.1094
24928W        W67919   8.867  34.718  21.418  0.0549 -0.3835 -0.1528
24929W        W67920  18.288   9.517  22.818  0.0616  0.1381 -0.1682
24930W        W67921  30.132  17.844  16.992  0.3083 -0.1862 -0.2691
24931W        W67922  33.933  11.840  17.937  0.1303 -0.0229  0.2617
24932W        W67923  29.936  10.659  21.061 -0.2888  0.1762 -0.2119
24933W        W67924  15.556   9.910  28.394 -0.5200  0.1888 -0.3218
24934W        W67925   9.232  28.221  21.305 -0.1445 -0.1981 -0.0774
24935W        W67926  15.834  18.106  15.633 -0.0640 -0.1835  0.3990
24936W        W67927   2.182  15.206  18.999  0.0716  0.0231 -0.0011
24937W        W67928  13.702   2.851   1.132 -0.1143  0.0184 -0.1559
24938W        W67929   8.246  12.294  19.520 -0.0406  0.2786 -0.3101
24939W        W67930  23.063  19.093  14.788  0.1138 -0.1476  0.2848
24940W        W67931  30.634  13.138  21.886 -0.1120  0.1088  0.0842
24941W        W67932   2.202  26.038  27.914  0.0055  0.0572 -0.0746
24942W        W67933  13.505   0.641  17.305 -0.0202 -0.1076  0.2699
24943W        W67934  25.491   7.765  14.462  0.1894 -0.1360  0.2270
24944W        W67935   6.722   9.640   1.711 -0.3359 -0.1146  0.0918
24945W        W67936  12.078   0.096  24.806 -0.1840 -0.0691 -0.0005
24946W        W67937   0.548  12.189   1.250  0.1026 -0.1969 -0.3740
24947W        W67938  16.687   6.840  25.706 -0.0559 -0.2929  0.0874
24948W        W67939   1.666  17.210   1.368  0.1584  0.3530  0.0499
24949W        W67940   5.307  33.418  15.788 -0.3480 -0.1799  0.0346
24950W        W67941  14.778  30.873  28.662  0.1282  0.0312 -0.0957
24951W        W67942  11.003  23.603  22.945 -0.1285 -0.2640 -0.2076
24952W        W67943   9.528   2.618   3.766 -0.2226 -0.0859 -0.1153
24953W        W67944   6.229  20.693  20.691  0.0700 -0.2207  0.0431
24954W        W67945   3.383  13.032  16.871 -0.0260 -0.1664 -0.0799
24955W        W67946   7.352  23.064  20.698 -0.0591  0.0647 -0.1881
24956W        W67947   6.553  13.538  15.285  0.0499  0.1734 -0.1091
24957W        W67948  17.467   8.135  17.360  0.2446 -0.1542  0.0099
24958W        W67949  10.059  21.185   1.041  0.0527 -0.0429 -0.1154
24959W        W67950   2.406  13.526  19.271 -0.0581  0.2120  0.1916
24960W        W67951  20.774  13.158  17.828  0.0561 -0.0640  0.0164
24961W        W67952  13.926  20.614  18.100 -0.0671 -0.0554  0.2477
24962W        W67953   7.402   8.047   4.879 -0.3711  0.0585  0.3608
24963W        W67954  31.769  17.450  27.243  0.2738 -0.2339  0.2383
24964W        W67955  31.221  14.163  28.807 -0.2367  0.0768 -0.0336
24965W        W67956  34.397  15.059  28.453 -0.1159  0.3834  0.2635
24966W        W67957  17.710  24.342  27.604  0.2870 -0.1899 -0.0696
24967W        W67958  19.952   0.378  14.390  0.1138  0.2050 -0.1944
24968W        W67959  12.451  14.058  24.713 -0.1234 -0.1638 -0.0019
24969W        W67960   3.369  13.893  18.595 -0.0492 -0.0090  0.0460
24970W        W67961   0.410  20.168  25.362 -0.3904 -0.2270 -0.0662
24971W        W67962   1.936  27.014  19.463 -0.0877 -0.2393 -0.1634
24972W        W67963   0.369  10.850   1.102 -0.0079  0.1342  0.0735
24973W        W67964   9.789   1.086   8.565  0.1378  0.0763  0.0138
24974W        W67965  16.405  13.714  20.682 -0.2831 -0.2862  0.0995
24975W        W67966   1.573   9.823  24.359  0.0727 -0.1033 -0.0725
24976W        W67967   0.910   4.337  15.739 -0.0256 -0.2386  0.1522
24977W        W67968   0.277  17.660  15.253  0.2076 -0.1921 -0.0162
24978W        W67969   9.797   5.142  18.897 -0.3325  0.0502  0.1405
24979W        W67970  34.638  15.734  23.212  0.0865 -0.1537  0.2753
24980W        W67971  11.082  13.221  18.695  0.2617 -0.2180 -0.0911
24981W        W67972  31.546  11.184  22.666 -0.0174 -0.1027 -0.0336
24982W        W67973  30.602   3.182  16.888  0.3789 -0.1116 -0.0107
24983W        W67974  24.498  32.478  21.617 -0.2027  0.0881 -0.1596
24984W        W67975  33.152   3.390  19.294 -0.0495 -0.0399  0.0435
24985W        W67976   6.430  15.624   4.747  0.1874 -0.0566 -0.0561
24986W        W67977  12.868  29.036  26.952 -0.1680 -0.2375  0.3286
24987W        W67978   1.514   8.742  16.430 -0.1112 -0.2289 -0.0040
24988W        W67979  27.527  11.837  14.335  0.1323  0.1030  0.0877
24989W        W67980  25.662  14.173  19.830 -0.0157  0.0159  0.1279
24990W        W67981  33.436  12.764  16.050  0.0053  0.0083 -0.1528
24991W        W67982  23.960  23.110  24.830 -0.1759  0.1084  0.1914
24992W        W67983   6.457  17.917  27.952 -0.2581  0.3255 -0.2093
24993W        W67984   7.872  17.414  21.256 -0.1115 -0.0410  0.0608
24994W        W67985  23.574  18.589  16.334 -0.3001 -0.2190 -0.1213
24995W        W67986   3.902  27.959  15.605 -0.2317  0.1112 -0.1179
24996W        W67987  34.767  14.894  21.443  0.0652  0.0028  0.0923
24997W        W67988  28.187  16.892  14.781  0.1381 -0.0370 -0.0987
24998W        W67989  12.349  29.449  24.217 -0.0263  0.2237  0.0680
24999W        W67990  29.561  15.865  19.634  0.2380 -0.1115 -0.1464
25000W        W67991  28.523   0.228  14.911  0.4815  0.1650 -0.0523
25001W        W67992   0.192  14.944  21.933  0.0300  0.0348 -0.2697
25002W        W67993   4.091  27.767  24.273  0.0657 -0.1937  0.1664
25003W        W67994   8.778   8.279  16.260 -0.0050 -0.1892 -0.5757
25004W        W67995  33.315   0.510  14.186 -0.0525  0.0838  0.2339
25005W        W67996  20.874  20.995  25.223  0.1558  0.0809  0.1118
25006W        W67997  11.551   9.470   1.800 -0.0175 -0.1617  0.1986
25007W        W67998  11.869  17.831  26.707 -0.2674 -0.0172 -0.1313
25008W        W67999   6.943   4.575  25.588  0.3017 -0.5327  0.0960
25009W        W68000  22.557   2.494  19.864 -0.1956  0.0363 -0.2860
25010W        W68001  11.667  21.727  17.311 -0.0663  0.1554 -0.2042
25011W        W68002   9.256  32.466  24.575  0.0453  0.0011  0.2361
25012W        W68003  12.409  20.138  24.655 -0.0010  0.0533 -0.1767
25013W        W68004  18.256   6.576  17.327  0.0302  0.0257 -0.1321
25014W        W68005   7.441   4.543  27.830  0.0762 -0.0774 -0.2756
25015W        W68006  12.146   7.384  25.096  0.0733  0.0059  0.0535
25016W        W68007  10.678  32.388  21.420 -0.4077  0.2094 -0.2988
25017W        W68008   5.265  32.009  22.860 -0.1050  0.2907  0.1359
25018W        W68009  29.685  15.441  22.037  0.1764  0.2089 -0.2553
25019W        W68010  23.531  14.609  22.219  0.0593  0.1358  0.3541
25020W        W68011   8.500  31.803  19.287  0.1152 -0.2875  0.2369
25021W        W68012  13.926   8.117  19.204  0.0233  0.1123  0.2318
25022W        W68013   6.951  16.113  16.922  0.0908  0.1587 -0.2247
25023W        W68014  32.469  25.578  17.372 -0.2388  0.1102  0.0479
25024W        W68015  28.811  29.486  13.683 -0.1806  0.0013  0.0106
25025W        W68016   1.823  29.979  24.636 -0.0558  0.0754 -0.1284
25026W        W68017  31.533   3.308  16.716  0.1008  0.0092 -0.2084
25027W        W68018   6.310   5.990  10.793 -0.2044  0.1548  0.1706
25028W        W68019  34.474  13.705  24.457  0.0727 -0.1651  0.2062
25029W        W68020   5.814  13.960   6.761  0.1024 -0.2279 -0.3831
25030W        W68021   0.725  21.686  15.286  0.1718 -0.1786 -0.3110
25031W        W68022   9.404   6.846  21.153  0.1647 -0.0512 -0.0641
25032W        W68023  11.925   9.381  21.900 -0.1261  0.0801 -0.2258
25033W        W68024   2.113   6.818  23.875 -0.3498 -0.1532  0.0149
25034W        W68025   4.942  24.760   0.667 -0.2033  0.0371 -0.0323
25035W        W68026  30.634   2.769   1.917 -0.0165  0.0203  0.0942
25036W        W68027   7.147   8.383  24.638 -0.0652  0.2189 -0.0117
25037W        W68028   8.595  20.023  17.878  0.0069  0.0292 -0.0552
25038W        W68029  31.758   4.269   2.096  0.0222 -0.1241  0.1383
25039W        W68030  28.464   5.333  20.584  0.0213  0.0889 -0.2012
25040W        W68031  33.537  15.066   4.501 -0.3922  0.1055 -0.1692
25041W        W68032   2.086  12.942  18.047  0.0100  0.1070 -0.2539
25042W        W68033   0.995  21.804  21.626 -0.3139  0.1189  0.0974
25043W        W68034  13.409   5.316  24.012  0.0675 -0.2443  0.2429
25044W        W68035  30.572  13.618  21.847 -0.0187  0.4868 -0.1952
25045W        W68036  34.004   6.729  23.272  0.3500 -0.1659  0.1304
25046W        W68037   9.465   9.502  24.005 -0.0032 -0.0607 -0.4080
25047W        W68038  29.860  16.552  17.969 -0.0701  0.0732  0.1353
25048W        W68039   6.557  23.628  25.605 -0.0371 -0.1074 -0.2034
25049W        W68040  22.363  33.877  17.349 -0.2487 -0.1555  0.1871
25050W        W68041  31.750  28.105  17.794 -0.3101  0.0862  0.0679
25051W        W68042  26.983  25.718  15.448 -0.1082  0.1876  0.5717
25052W        W68043  31.100   8.510   9.361  0.0055 -0.3399 -0.0867
25053W        W68044   8.349   5.136  20.461 -0.0956 -0.2920  0.1320
25054W        W68045   8.451   7.380  23.148 -0.2243 -0.0393 -0.2127
25055W        W68046   9.574  12.208  19.469 -0.1821 -0.2844 -0.2933
25056W        W68047  21.982   6.504   5.480 -0.2453  0.1334 -0.2719
25057W        W68048  20.017   4.014  24.160 -0.2802  0.1946 -0.4093
25058W        W68049  33.744  23.035  17.881 -0.1567 -0.2405 -0.1315
25059W        W68050  33.156  16.039  16.381 -0.1137 -0.0374 -0.0579
25060W        W68051  34.134  12.664  20.889 -0.0156 -0.2418 -0.0458
25061W        W68052  31.556  19.054  27.681 -0.0863  0.2807 -0.3282
25062W        W68053   4.146  14.310  23.920  0.1190  0.3111 -0.1438
25063W        W68054   8.380  16.786  14.307 -0.2678  0.4288  0.1212
25064W        W68055  14.812  25.390  15.612 -0.0307  0.1003  0.1458
25065W        W68056   1.729   3.942   6.014 -0.1987  0.0868  0.0780
25066W        W68057  21.629   1.165  21.028 -0.0157 -0.0243  0.2115
25067W        W68058   8.388   5.701  21.531 -0.1128  0.1450  0.0590
25068W        W68059   4.075  24.214  27.902 -0.0598  0.0612  0.0654
25069W        W68060   6.149   1.402  14.976  0.1579  0.0738 -0.0204
25070W        W68061   9.311   9.003  17.435  0.0023 -0.3763 -0.0680
25071W        W68062  13.735   7.931  26.453  0.0460 -0.0365  0.1167
25072W        W68063  17.323   8.781   1.378  0.0254 -0.0201 -0.2933
25073W        W68064  10.295  32.113  17.924 -0.1711  0.1944 -0.0518
25074W        W68065   7.264  31.899   2.680 -0.1659  0.2821  0.0694
25075W        W68066  30.189  20.746  16.169 -0.1967 -0.2341 -0.0408
25076W        W68067  21.292  20.340  14.473  0.2951 -0.2912 -0.2023
25077W        W68068   0.038   2.645  15.118  0.0239 -0.1021 -0.3343
25078W        W68069  33.828  17.124   2.495  0.0605 -0.3822 -0.2355
25079W        W68070   0.423   7.138   6.643  0.0086 -0.1131  0.1384
25080W        W68071  32.866  18.547  25.976 -0.1466  0.2761  0.3223
25081W        W68072   7.528  14.103   4.607 -0.1684 -0.0460  0.1095
25082W        W68073  18.086   8.929  20.403 -0.3060  0.3947 -0.0441
25083W        W68074  30.290  18.527  27.843 -0.0195 -0.1637  0.0461
25084W        W68075   4.927  22.966  14.958 -0.0090 -0.1088  0.1961
25085W        W68076  32.716   2.005  21.818  0.0234 -0.2147  0.2536
25086W        W68077  11.867  19.443  25.418 -0.2427  0.0587 -0.1057
25087W        W68078   9.079  16.482  26.696  0.1393  0.2685  0.5724
25088W        W68079  20.859  33.142  23.464  0.0214 -0.0300  0.0718
25089W        W68080  25.270  21.498  22.535  0.4641  0.0316  0.1602
25090W        W68081  30.268   8.942  20.972 -0.0646 -0.0357 -0.1256
25091W        W68082   0.727  18.904  23.884 -0.0881  0.1313  0.3071
25092W        W68083   1.719   8.580  20.811 -0.0966  0.1536  0.1137
25093W        W68084  14.020  17.489  21.473  0.2331 -0.1800 -0.0611
25094W        W68085  32.792  29.741  19.759 -0.1122  0.2750 -0.2319
25095W        W68086  17.384  19.729  15.023  0.2114 -0.0874  0.1510
25096W        W68087  32.287   7.051  24.528 -0.7693 -0.0243 -0.1923
25097W        W68088   0.898   4.832   5.027  0.0649 -0.0157  0.3615
25098W        W68089  33.264  14.930  23.421 -0.2381 -0.1220 -0.1415
25099W        W68090   9.168   3.741  23.042  0.0566 -0.4020 -0.0327
25100W        W68091  24.960  10.158   1.277 -0.1452 -0.1040 -0.2323
25101W        W68092  25.432   6.699   3.628 -0.2447 -0.1604 -0.0836
25102W        W68093  17.225   3.665  15.239 -0.0250 -0.1500 -0.1973
25103W        W68094  13.434  10.728  15.430  0.3237 -0.1815  0.1183
25104W        W68095  16.314  31.323  24.349  0.0754  0.0211  0.3768
25105W        W68096  18.573  11.135  22.280 -0.0320  0.0448 -0.1115
25106W        W68097   6.526  11.422  19.001  0.1155 -0.0640 -0.2790
25107W        W68098   3.838  23.331  28.039  0.0263 -0.2389  0.0545
25108W        W68099  13.413   3.267  19.894  0.0710 -0.1019 -0.1042
25109W        W68100  31.022  33.948   6.973  0.1239 -0.1290 -0.1130
25110W        W68101  34.784  11.429  24.667 -0.1155 -0.0576  0.0239
25111W        W68102  16.119  33.377  18.099  0.0292  0.0760  0.0261
25112W        W68103   9.481  12.602  26.955  0.5896 -0.0255  0.1717
25113W        W68104  24.636  11.049  24.583  0.2389  0.2205 -0.1811
25114W        W68105  31.109  27.416  19.557  0.0612 -0.0775 -0.0562
25115W        W68106  12.684   8.180  20.319 -0.0561  0.0261  0.0361
25116W        W68107  17.483  33.749  22.779 -0.3827  0.3511  0.0187
25117W        W68108  33.133  18.139  19.079  0.1784  0.2262 -0.1598
25118W        W68109   7.938  12.479  17.960 -0.2156  0.0416  0.3790
25119W        W68110  12.795  23.956  28.441  0.3017  0.3235 -0.1217
25120W        W68111  32.808   8.622  21.882 -0.0399 -0.1835 -0.2788
25121W        W68112  25.620  20.497  18.418 -0.0374 -0.3239 -0.1492
25122W        W68113   8.888  12.298  19.812  0.0674  0.2667 -0.0646
25123W        W68114  29.089  33.342   2.046  0.1000 -0.1667 -0.3498
25124W        W68115  18.863  16.340  14.480  0.1862 -0.3132  0.1476
25125W        W68116  29.637   2.847  23.067 -0.3061  0.0154  0.2621
25126W        W68117  33.709   7.109   0.174 -0.0650  0.1679 -0.1935
25127W        W68118  10.103  11.699  19.907 -0.0508 -0.1690  0.0928
25128W        W68119  13.294  27.365  17.800 -0.1497  0.2140 -0.0296
25129W        W68120  32.951   6.407  15.483  0.2868  0.0059 -0.0047
25130W        W68121  16.967  18.478  15.313  0.5358 -0.0976 -0.2307
25131W        W68122  29.903  22.935  15.749 -0.1331  0.1066 -0.1742
25132W        W68123  27.468  29.265  22.608  0.0835  0.3647  0.1643
25133W        W68124  18.986  22.785  13.151  0.1639  0.2381  0.0939
25134W        W68125   8.483  18.179  19.555 -0.1634 -0.1673  0.1940
25135W        W68126  31.794  24.348  21.150  0.1232  0.0781  0.2421
25136W        W68127  11.209   1.542  23.777  0.1491 -0.0110  0.1149
25137W        W68128  15.553  13.406  24.450  0.0302 -0.2516  0.1523
25138W        W68129   0.256   3.000  16.600  0.0247  0.0288 -0.0365
25139W        W68130  27.540   7.604  21.990 -0.0703 -0.0881 -0.0587
25140W        W68131  12.110   5.225  19.607  0.3044 -0.1560  0.0652
25141W        W68132  34.550  29.542  13.505 -0.1016  0.0531 -0.1092
25142W        W68133  34.157  22.432   1.911 -0.4229 -0.0066 -0.1120
25143W        W68134   7.294  34.282  20.856  0.0304 -0.1917  0.3502
25144W        W68135   3.468  16.363  17.446  0.0359  0.2634  0.1110
25145W        W68136   6.798   6.096  22.495  0.0103 -0.0450 -0.4222
25146W        W68137  33.415  18.242  20.889 -0.1918 -0.1430 -0.0991
25147W        W68138  27.266  18.072  19.550  0.1491  0.1575  0.1871
25148W        W68139  34.601  17.526  26.934  0.0538 -0.1033  0.0386
25149W        W68140   3.860  10.727  19.029 -0.1583  0.2071  0.2015
25150W        W68141  28.544  14.185   1.583  0.1055 -0.0989  0.0267
25151W        W68142   0.462  20.427   4.752  0.1513 -0.2338  0.2298
25152W        W68143  20.188  14.767   4.723 -0.0615  0.1487  0.0811
25153W        W68144  12.622  12.958   1.515 -0.2892 -0.0709 -0.0024
25154W        W68145   0.859  23.340  17.660  0.0198  0.4908  0.0518
25155W        W68146  21.528   6.571  25.424  0.1023 -0.2299 -0.0502
25156W        W68147   1.098  11.019  22.133 -0.2894  0.0178 -0.1671
25157W        W68148  10.108   2.643  23.791  0.3695  0.1154 -0.2091
25158W        W68149  12.329  18.082  23.853 -0.1817 -0.1173  0.2415
25159W        W68150  24.119  17.041  18.730 -0.0738 -0.2446  0.1495
25160W        W68151  27.166  11.009  23.607 -0.0344  0.1892 -0.1354
25161W        W68152  13.724  11.502  18.188  0.1138  0.0672 -0.0193
25162W        W68153  20.243   4.607  26.018  0.2003 -0.2457  0.1791
25163W        W68154  30.238  31.726  28.259  0.2239 -0.0909  0.1180
25164W        W68155  10.795  11.893  15.231  0.0897 -0.1541 -0.0303
25165W        W68156  32.460   4.889  16.103  0.1219 -0.3164  0.0512
25166W        W68157  21.278   4.021  22.213  0.1386 -0.1021 -0.0463
25167W        W68158   8.112  20.511  18.706  0.0645  0.0788 -0.2052
25168W        W68159  24.287  14.930  14.419  0.1007  0.0030  0.1413
25169W        W68160   9.522  26.283  25.331 -0.0611 -0.0052  0.2538
25170W        W68161   9.161   6.417  25.384  0.2422  0.0701  0.0161
25171W        W68162  22.379  19.341  19.834 -0.2280  0.1013 -0.0204
25172W        W68163  20.954   0.393  21.439 -0.2550 -0.1280 -0.0538
25173W        W68164   4.758   9.230  21.618  0.0574  0.0261  0.0177
25174W        W68165  11.703  13.040  29.255 -0.3542 -0.3235 -0.1533
25175W        W68166  28.978  15.976  22.102 -0.1322 -0.0558 -0.3788
25176W        W68167  32.807   9.427  21.575  0.0895  0.3281  0.0667
25177W        W68168  25.266  18.214  26.911  0.0294  0.2512  0.1378
25178W        W68169  12.903  14.862  22.929  0.1380  0.0230 -0.3092
25179W        W68170  10.145   8.574  26.292  0.3484 -0.1235 -0.1485
25180W        W68171  31.071  17.162  20.010 -0.0515  0.0548  0.2030
25181W        W68172   7.634  10.508  18.811  0.0812 -0.0772 -0.0728
25182W        W68173  10.363  24.883  14.309 -0.0985  0.1601  0.2520
25183W        W68174  30.433   3.688   1.670  0.1277 -0.3266  0.2057
25184W        W68175   8.280  32.823  24.912  0.0125  0.0891 -0.2102
25185W        W68176   5.563   8.855  21.454 -0.2928  0.0870  0.0183
25186W        W68177  14.194  18.945  14.756  0.0859  0.1734  0.1169
25187W        W68178   1.625  16.963   2.205 -0.1441 -0.0931  0.0265
25188W        W68179  19.776  11.995  18.941  0.1361 -0.0848  0.2276
25189W        W68180  30.653  16.099  24.332 -0.2421 -0.0798 -0.1629
25190W        W68181   5.447  12.014  22.001 -0.1400  0.0288  0.0567
25191W        W68182   3.586  14.701  22.671 -0.1586 -0.2044 -0.0706
25192W        W68183  31.300  19.907  19.383  0.0545  0.0339 -0.1774
25193W        W68184  16.156  21.231  14.595 -0.0964  0.0914 -0.0405
25194W        W68185   2.334  19.313  19.626  0.2671  0.0356  0.3189
25195W        W68186   9.474   6.573  21.589 -0.0012 -0.0657  0.0255
25196W        W68187   4.267  31.963  14.220  0.1718 -0.0484 -0.2649
25197W        W68188   5.979  16.385   6.475  0.2460  0.1640 -0.0778
25198W        W68189  12.149  27.349  26.582  0.3126 -0.2946 -0.2611
25199W        W68190  33.726  13.998  15.753  0.1092  0.0836  0.0664
25200W        W68191  32.905   6.067  21.795 -0.0646 -0.1147 -0.0499
25201W        W68192  16.524  17.938   2.570 -0.0442  0.1457 -0.3323
25202W        W68193  29.746  14.076  22.641  0.0841 -0.0273  0.1474
25203W        W68194  15.237  29.025   6.334  0.1965 -0.0998  0.2123
25204W        W68195  15.645   4.019  14.665  0.0507  0.2701 -0.0096
25205W        W68196  11.062  23.935  25.954  0.0441  0.0590  0.2666
25206W        W68197  16.103  12.955   2.350 -0.0240 -0.1924  0.3703
25207W        W68198   9.131  17.557  24.941  0.2138 -0.2653  0.0620
25208W        W68199   6.369  10.732  27.714 -0.0047  0.0919  0.1736
25209W        W68200  23.370  31.340  24.590  0.1691 -0.0981  0.3114
25210W        W68201  33.700  18.209  17.335 -0.3619  0.1008 -0.1136
25211W        W68202   5.639  11.652  16.324  0.0740 -0.1576 -0.1722
25212W        W68203  12.846  15.709  18.273  0.0233 -0.2134 -0.0422
25213W        W68204  32.608  13.831   1.378 -0.0255  0.1879  0.0871
25214W        W68205  14.273  32.548  23.002  0.2058  0.0769 -0.3267
25215W        W68206   5.627  20.468   0.104 -0.1624 -0.1233  0.1205
25216W        W68207   4.346   3.105  15.894  0.0280  0.0114 -0.0633
25217W        W68208   6.116   7.233   8.097  0.1363  0.1355  0.0056
25218W        W68209   1.223  20.863  19.087 -0.1667  0.2034 -0.1913
25219W        W68210  12.214  18.471  20.266  0.1966 -0.0786 -0.0412
25220W        W68211   6.941  33.613  17.023 -0.3689 -0.0826 -0.0704
25221W        W68212   0.040  16.364  22.507  0.2831 -0.1908  0.3938
25222W        W68213   2.478  12.631  25.110  0.2667 -0.4303 -0.0474
25223W        W68214  23.595   8.853   3.928  0.5915  0.0353 -0.0775
25224W        W68215   8.204  23.336   4.400  0.1277  0.0447  0.3393
25225W        W68216  14.727  10.924  20.786 -0.0366  0.0178 -0.1664
25226W        W68217  18.963   7.986  18.320  0.0505 -0.1832  0.0782
25227W        W68218   7.366  15.012  22.466 -0.2324 -0.0205  0.0356
25228W        W68219   8.351  13.999  25.394  0.0051  0.1261 -0.1741
25229W        W68220  12.774   4.229  20.849  0.1618 -0.0327  0.0111
25230W        W68221   7.668  12.532  28.857 -0.2339 -0.4623  0.0409
25231W        W68222  12.519  17.999  13.740  0.1610  0.0266  0.0030
25232W        W68223  22.115  21.499  21.017  0.3060 -0.3023  0.0882
25233W        W68224   3.830   5.105  16.375  0.0763 -0.3445  0.3177
25234W        W68225  10.679  17.541  20.901 -0.0375 -0.1552  0.3717
25235W        W68226  27.835   5.107   5.032  0.1878 -0.0891 -0.3119
25236W        W68227  20.939   1.472  26.786  0.0961 -0.0680 -0.0750
25237W        W68228  28.076  20.462  16.035  0.0733  0.0757  0.1450
25238W        W68229   2.051   0.490  15.252  0.0585 -0.0950 -0.2165
25239W        W68230  22.981   2.246  17.251  0.1510 -0.0815 -0.0923
25240W        W68231  15.514   9.269  20.203 -0.0499 -0.0624  0.0024
25241W        W68232   2.615   2.197  17.575  0.3906  0.1621 -0.1364
25242W        W68233  12.985   9.711  23.088  0.0848 -0.0199  0.1620
25243W        W68234  33.497  24.222  28.369 -0.0402 -0.0156  0.1812
25244W        W68235   3.455  17.316  22.589 -0.0861 -0.0429  0.2060
25245W        W68236  12.003  12.379  19.936 -0.1389  0.1871 -0.3271
25246W        W68237  15.283  30.267  19.080 -0.1668 -0.0250  0.1361
25247W        W68238   8.645   9.132  24.521 -0.3279 -0.1172 -0.0692
25248W        W68239   2.460  24.031   8.327  0.0722  0.2155 -0.1101
25249W        W68240   4.624  28.159  20.214 -0.3649  0.3307 -0.2658
25250W        W68241   7.171   8.877  20.950  0.2185  0.0860  0.0216
25251W        W68242  34.556   8.337  17.820  0.2682 -0.3013 -0.1548
25252W        W68243   9.279  15.206   3.908 -0.0267 -0.2422 -0.0551
25253W        W68244  32.365  12.974   1.657 -0.0416 -0.1516 -0.1909
25254W        W68245  32.711  16.648  23.062 -0.2759  0.2215  0.2081
25255W        W68246   4.746  19.060  25.393  0.1169 -0.0625 -0.3814
25256W        W68247   3.663   9.250   1.263 -0.1851 -0.2750 -0.0268
25257W        W68248   6.663  13.717  27.678  0.1629 -0.0861  0.2307
25258W        W68249   6.986  33.353   3.398 -0.1612  0.1130  0.1903
25259W        W68250  33.842  30.455  17.011  0.4093 -0.5651  0.3781
25260W        W68251  24.135  16.416  15.263  0.0048 -0.3450 -0.2436
25261W        W68252   8.301  16.562  21.842  0.3241 -0.1172 -0.2710
25262W        W68253   7.090  17.528  24.288  0.3838 -0.1148  0.0416
25263W        W68254  32.010  15.355  15.656 -0.1036 -0.0138 -0.0034
25264W        W68255  27.565  20.226  21.371  0.0697  0.4907  0.2158
25265W        W68256   4.457  22.346  15.745 -0.1757  0.6006 -0.0678
25266W        W68257  29.222   2.888  21.799  0.0927  0.1843 -0.3917
25267W        W68258   0.018  19.326   7.076 -0.0054  0.0460 -0.1685
25268W        W68259   4.004   3.779  15.241  0.1177 -0.2202  0.3043
25269W        W68260  11.309   3.090  21.604  0.1767  0.2468 -0.3584
25270W        W68261  34.163  19.529  16.691 -0.0335 -0.0314  0.0392
25271W        W68262  16.545   2.143  21.362  0.2776  0.1420 -0.1392
25272W        W68263   9.285   1.841   4.196 -0.0770 -0.0082 -0.1944
25273W        W68264   3.605  29.496  20.034  0.0531 -0.0685 -0.0126
25274W        W68265  34.665   1.751  16.186  0.0014 -0.1120 -0.1249
25275W        W68266  21.364  11.743  20.172 -0.2043  0.3361  0.0666
25276W        W68267  10.568   9.682  20.808 -0.1867 -0.3690  0.0063
25277W        W68268   8.136  15.943  20.555 -0.0734  0.0428  0.0059
25278W        W68269   1.206  15.563  21.484  0.0247 -0.3315 -0.0230
25279W        W68270  30.250   5.784  19.111  0.0129  0.1909 -0.1643
25280W        W68271  16.231   9.015  26.664  0.2034  0.0009  0.1940
25281W        W68272   8.706   1.956  17.656 -0.1726 -0.2204  0.3409
25282W        W68273   3.672   9.007  28.766 -0.0134 -0.4618  0.0374
25283W        W68274  28.674  12.551  23.852  0.0865 -0.3731  0.1204
25284W        W68275  14.732  20.513  17.195  0.1444 -0.0061  0.1619
25285W        W68276   9.974   4.645  21.444  0.1701  0.2542 -0.0485
25286W        W68277  15.527   8.252  15.918  0.2117 -0.2354  0.0798
25287W        W68278  32.898  19.708  17.077 -0.1209  0.1542  0.2506
25288W        W68279  19.005  20.556   7.156  0.3099  0.0420  0.3400
25289W        W68280   1.113  16.930  19.536 -0.2022 -0.3618  0.0418
25290W        W68281   8.547  16.303   1.183  0.3784 -0.1432 -0.1697
25291W        W68282  16.240  21.775   3.307  0.0994 -0.1145  0.1246
25292W        W68283  27.016  27.723  17.306 -0.0457 -0.0106 -0.3166
25293W        W68284   2.608  23.619  16.835 -0.0507 -0.0599 -0.2545
25294W        W68285   0.171  22.644  17.080 -0.0493 -0.3729  0.2352
25295W        W68286   7.198  26.218   1.688  0.2972 -0.0189 -0.3172
25296W        W68287   9.255   4.815  20.883 -0.1165  0.0175  0.0443
25297W        W68288  11.238  10.177   4.414 -0.3030 -0.0401 -0.1635
25298W        W68289  15.276  13.876  19.758  0.0332 -0.2283  0.1385
25299W        W68290  33.980  14.157  26.388  0.2810 -0.3076  0.2075
25300W        W68291   4.101  14.924  29.129  0.2140 -0.0798  0.0666
25301W        W68292  14.921   0.379   4.203 -0.0878 -0.0687  0.2844
25302W        W68293   1.260  16.412  26.322 -0.0049 -0.0124  0.0853
25303W        W68294   9.463   8.360  20.376 -0.1585 -0.2049 -0.0870
25304W        W68295  13.585   7.457  26.497  0.4315 -0.1609  0.3257
25305W        W68296  11.522  11.623   4.247  0.2197 -0.0950 -0.2625
25306W        W68297  14.697  17.828  26.293  0.7128  0.0164  0.0048
25307W        W68298  15.474   1.704  15.873 -0.1600  0.0952  0.0289
25308W        W68299   7.842   7.544  19.665 -0.2039  0.0542 -0.0234
25309W        W68300  11.955   7.198  19.595  0.0121  0.0295 -0.0111
25310W        W68301  24.252  19.929  14.708  0.1818  0.4240 -0.0853
25311W        W68302   1.772   9.837   6.288  0.2176  0.0803  0.0675
25312W        W68303   9.494  19.393   1.886  0.0454  0.2244  0.0315
25313W        W68304  31.223  33.262  22.378 -0.0869  0.0261 -0.1252
25314W        W68305  10.364  31.629   3.225 -0.2231  0.2761 -0.3164
25315W        W68306   2.623   3.392  16.748  0.0367 -0.1518 -0.1402
25316W        W68307  31.999  30.006  24.698  0.1775 -0.0583 -0.1015
25317W        W68308   3.244  34.671  15.102 -0.2706 -0.0491  0.0358
25318W        W68309  33.328  34.151  12.924 -0.0906  0.1814 -0.0943
25319W        W68310   4.850  29.125  23.290 -0.1219  0.1918  0.0728
25320W        W68311   5.190  16.672  18.644 -0.3451  0.2236  0.0788
25321W        W68312  18.510  21.737   6.376  0.0530  0.0985 -0.0632
25322W        W68313   3.085  22.525  28.614 -0.2954 -0.0092  0.1851
25323W        W68314   4.139   1.535   8.633 -0.2421 -0.0620 -0.0622
25324W        W68315   3.374   8.646  21.217  0.2817 -0.4376  0.3316
25325W        W68316  10.998  18.218   0.517  0.1290  0.0722 -0.5104
25326W        W68317  10.032  20.456  17.754  0.0260  0.3076 -0.1567
25327W        W68318  10.291   3.240   2.322 -0.1462  0.0413 -0.2759
25328W        W68319  14.530   6.076   0.337  0.0891 -0.1544 -0.1893
25329W        W68320  11.067   5.167  20.827 -0.1427 -0.3133 -0.0116
25330W        W68321  27.246  11.207   8.188 -0.2951 -0.0105  0.0908
25331W        W68322  15.783  20.982  18.389 -0.0149 -0.0722  0.1309
25332W        W68323  13.901  10.384  28.046  0.0854 -0.2767 -0.1357
25333W        W68324   8.190  13.239   0.958  0.0921 -0.0580 -0.1149
25334W        W68325  17.890  12.271  15.768  0.1030 -0.0181 -0.0425
25335W        W68326   9.218   3.130  15.958  0.2412 -0.2323  0.0117
25336W        W68327  11.322   8.983  25.819  0.1801  0.0666  0.1894
25337W        W68328  21.499  10.890   0.942  0.2258 -0.0333 -0.0767
25338W        W68329   8.189   8.581  15.432  0.1331  0.2355 -0.1600
25339W        W68330   8.853  11.271   1.025 -0.6851  0.0942 -0.1286
25340W        W68331   2.745  20.156  22.665 -0.1101 -0.0155  0.1213
25341W        W68332   2.629  23.414  17.780 -0.1737  0.0431  0.0893
25342W        W68333  33.071  24.298  28.909  0.0849 -0.0904 -0.2335
25343W        W68334   2.709  21.007  16.913 -0.3990  0.0943  0.2745
25344W        W68335   2.383  20.794  19.952 -0.0066  0.1782  0.1752
25345W        W68336  30.019  13.593  20.847 -0.0061  0.2877 -0.4647
25346W        W68337  34.222  20.514  28.755  0.1362  0.0980  0.1797
25347W        W68338   6.917  16.467  28.429  0.1103  0.0895 -0.1684
25348W        W68339  26.387   0.559   7.038 -0.1057  0.0547 -0.4655
25349W        W68340  26.218   2.166  19.710  0.2339 -0.0266 -0.2700
25350W        W68341  27.751  26.759  22.697  0.0827  0.2097  0.0813
25351W        W68342  11.205  19.795  20.996 -0.0493  0.1340 -0.0506
25352W        W68343  20.290  10.774  20.182 -0.4094  0.1115 -0.1605
25353W        W68344  32.770  13.333  25.063 -0.0810  0.0693  0.1738
25354W        W68345   2.053  34.219   0.365 -0.0540  0.0645 -0.0826
25355W        W68346   9.212  28.447  15.110 -0.3483 -0.1623 -0.2026
25356W        W68347   1.382  21.603  22.765  0.2780  0.1005  0.0033
25357W        W68348   7.360  19.185  20.098  0.0299 -0.0517 -0.0832
25358W        W68349  33.213  31.379  15.056  0.2261  0.0457 -0.0452
25359W        W68350  33.792   7.053  10.341  0.1376 -0.0095 -0.0038
25360W        W68351  11.003   1.300   7.594  0.0500 -0.4442  0.1746
25361W        W68352   9.360  23.692  26.776  0.3882  0.1219  0.0631
25362W        W68353   3.335  12.663  29.054  0.4080  0.3256  0.0138
25363W        W68354  17.790   2.915  19.133  0.0775 -0.1974  0.5568
25364W        W68355  26.934   3.118  23.809 -0.1496  0.1144 -0.3429
25365W        W68356  28.111  20.938  22.553 -0.2185  0.0184  0.0905
25366W        W68357  15.909   9.678  23.934 -0.0236 -0.0748 -0.2284
25367W        W68358   3.964  15.665  27.868  0.1087 -0.0913 -0.1524
25368W        W68359   3.570  26.080  19.168 -0.1242 -0.1297  0.1584
25369W        W68360  18.730  26.166  22.554  0.0465 -0.1009  0.3031
25370W        W68361  25.402  18.472  23.973  0.2787 -0.0092  0.1748
25371W        W68362  14.514  19.582  17.871 -0.0246  0.0494  0.4977
25372W        W68363   0.973  18.673  15.728 -0.0259 -0.1209  0.0487
25373W        W68364  27.785  16.134   3.620  0.4108  0.2094 -0.2117
25374W        W68365  29.764  13.700  19.429 -0.2004 -0.3007 -0.0655
25375W        W68366  29.486  21.592   7.327  0.2268 -0.3032 -0.2408
25376W        W68367  16.807   9.240  14.922 -0.0911  0.1905  0.1757
25377W        W68368   3.944   2.706  25.386  0.0029 -0.0945 -0.3679
25378W        W68369  30.364   1.921  17.571  0.2410 -0.1408 -0.2693
25379W        W68370  30.397  11.414  28.576 -0.0340  0.1376 -0.0844
25380W        W68371   3.510   8.856  23.776  0.2561  0.2537  0.3053
25381W        W68372  16.516  12.115  16.139  0.3375  0.0627 -0.1809
25382W        W68373  34.257  19.231  15.379 -0.0345  0.0964  0.0926
25383W        W68374   5.783  16.228  16.768 -0.0245  0.0967  0.1930
25384W        W68375   2.162  12.395  26.220  0.1723 -0.0438  0.2221
25385W        W68376  32.828  14.148   3.165 -0.0390  0.3355  0.0847
25386W        W68377  31.376   8.892  20.664 -0.2276  0.0157  0.0264
25387W        W68378  13.202  15.665  17.305 -0.0547  0.2123 -0.2707
25388W        W68379  19.442  19.955  14.150  0.0617  0.1261  0.1489
25389W        W68380   5.189  19.793  15.508  0.2057 -0.0434 -0.1090
25390W        W68381  24.015  21.300  18.679 -0.1947 -0.0738 -0.3332
25391W        W68382  10.032   2.597  19.262 -0.1968  0.1899  0.3590
25392W        W68383   2.674   3.437  26.102 -0.2146  0.0424 -0.1649
25393W        W68384  31.215  10.394  23.296  0.1438  0.0479 -0.0181
25394W        W68385   2.757  21.371  25.850 -0.0808  0.0313  0.1926
25395W        W68386  32.474  15.477   4.580 -0.1899  0.0593  0.1410
25396W        W68387  20.982  19.466  15.967  0.0951 -0.2358  0.0075
25397W        W68388  25.345  13.735   4.650 -0.1599 -0.0533  0.0254
25398W        W68389  22.930  11.819  24.682 -0.1646  0.1593 -0.0780
25399W        W68390   7.539  16.547  22.291 -0.2294  0.0565 -0.2568
25400W        W68391  13.019  25.152  14.707 -0.2713 -0.0536 -0.0175
25401W        W68392  27.554   7.921  15.201 -0.0501  0.0945  0.0061
25402W        W68393   5.009  30.972  18.256 -0.2094 -0.0126  0.1600
25403W        W68394  32.102  10.783   6.636  0.2774  0.2861 -0.0437
25404W        W68395   8.309  13.137  27.289  0.1917  0.1765  0.0516
25405W        W68396   7.597  12.192  17.656 -0.1145  0.0526  0.2481
25406W        W68397   7.992   5.384  19.575  0.0980 -0.0436  0.1070
25407W        W68398  24.608  17.216  23.553  0.2870  0.1048 -0.0401
25408W        W68399   5.345   9.959  15.861 -0.0685  0.0050 -0.0023
25409W        W68400   4.062  25.147   3.314 -0.2595 -0.0925 -0.2234
25410W        W68401  10.123   9.697  19.283  0.1784 -0.1101 -0.0086
25411W        W68402  20.656  15.039  21.381 -0.2129 -0.2057 -0.1894
25412W        W68403   5.319   4.810  23.873 -0.0345  0.0927 -0.1005
25413W        W68404  26.561  11.962  28.152 -0.1616 -0.2054  0.0317
25414W        W68405   2.383  16.609  22.532 -0.2851 -0.1159  0.0831
25415W        W68406   3.716  27.746   6.379 -0.1501  0.2514 -0.0589
25416W        W68407  25.736  14.704  16.272  0.3315 -0.0421 -0.0149
25417W        W68408   4.968  22.219  21.073  0.1993 -0.2193  0.0594
25418W        W68409  14.837   5.613  15.983  0.2813 -0.4900  0.2578
25419W        W68410  25.963  27.284  17.083  0.1871  0.0675 -0.2188
25420W        W68411  20.849   7.713   8.831 -0.1288  0.4955 -0.0875
25421W        W68412  30.523  12.627  27.975 -0.1323 -0.2106 -0.0774
25422W        W68413   6.995  23.960  19.541  0.3135  0.0958  0.0269
25423W        W68414  18.900   8.491  19.206  0.0377  0.1433  0.4023
25424W        W68415  26.032  10.933  16.757  0.1210  0.1504  0.0914
25425W        W68416   0.548   5.947  21.601  0.0159  0.0489  0.0616
25426W        W68417   3.217  11.086  23.562 -0.3125  0.3022  0.1253
25427W        W68418  14.228   9.804  15.921 -0.3629  0.1024 -0.1489
25428W        W68419   7.166  12.071   3.231  0.1006 -0.1339 -0.2016
25429W        W68420   1.332   3.817  16.508  0.3320  0.2438  0.0850
25430W        W68421   3.495   9.486  24.452 -0.1950  0.1385  0.3280
25431W        W68422  13.626  18.777  15.269  0.0683  0.0413 -0.1472
25432W        W68423   4.091  21.967  23.060 -0.0191 -0.0848  0.1231
25433W        W68424   2.615  32.504  16.609  0.2001  0.1378  0.3025
25434W        W68425  27.945  22.579  27.999 -0.0792 -0.1352 -0.2718
25435W        W68426   9.651  12.665  26.136 -0.2577  0.0630 -0.3303
25436W        W68427  30.272  11.601  22.421 -0.0523 -0.0839  0.0795
25437W        W68428   4.217  28.900   2.536  0.1141 -0.3209 -0.2663
25438W        W68429   9.492  16.164  16.329  0.1552 -0.0770  0.0224
25439W        W68430   6.328   8.204  24.639 -0.0603 -0.2295  0.2363
25440W        W68431   0.246  25.360  23.164 -0.1859 -0.0445  0.1184
25441W        W68432  24.239   6.270  23.256  0.0397  0.1379  0.1096
25442W        W68433  18.805   3.703  17.116 -0.4176  0.0370  0.0347
25443W        W68434   8.785  30.941  20.990  0.0795 -0.2244  0.3057
25444W        W68435  24.187  11.912  14.974 -0.2048 -0.2034  0.0431
25445W        W68436   5.280  17.425   4.215 -0.1311  0.1079 -0.5575
25446W        W68437  21.766   7.370  24.751 -0.2047  0.1125 -0.1066
25447W        W68438   5.325  19.082  26.108  0.1321 -0.1803 -0.1378
25448W        W68439  14.208  23.300  19.062  0.4076  0.1256  0.1704
25449W        W68440  33.467  13.156  24.973  0.0931  0.0006 -0.2082
25450W        W68441   2.518  16.106  22.151  0.0284 -0.0754  0.0393
25451W        W68442  34.533  26.965  14.044 -0.1151 -0.0431  0.2938
25452W        W68443  15.960  17.791  28.344 -0.1117 -0.0018 -0.3275
25453W        W68444  29.064  13.104  24.699 -0.1354 -0.0443  0.0604
25454W        W68445   5.862  17.123  15.549  0.3282  0.0892 -0.1613
25455W        W68446   9.220   2.234  24.576 -0.0744 -0.2498 -0.4891
25456W        W68447  33.177  20.268  16.327  0.0115 -0.1627 -0.1000
25457W        W68448   4.545   9.768  19.440 -0.1372 -0.1903 -0.0479
25458W        W68449   6.058  24.053  21.367  0.0410 -0.0650  0.0260
25459W        W68450  14.145   0.045  19.030 -0.4032 -0.0654  0.0602
25460W        W68451  13.986  11.458  21.103  0.1907 -0.0303 -0.0413
25461W        W68452  27.447  22.787  16.347 -0.0688  0.1687 -0.1690
25462W        W68453  20.891  12.582   3.501 -0.0738  0.2991  0.1222
25463W        W68454   7.815  20.853  18.888 -0.3459  0.1156  0.0542
25464W        W68455   4.076  32.417  15.274  0.3449  0.4393  0.0669
25465W        W68456  25.787  10.451   3.199 -0.3482 -0.3244  0.1685
25466W        W68457  15.248   8.424  19.260 -0.2970  0.0059 -0.2338
25467W        W68458   5.499   4.503  29.242  0.0798 -0.2128 -0.2282
25468W        W68459   3.528   8.052   6.774 -0.0064  0.2104 -0.0274
25469W        W68460  10.449  13.947  19.706  0.1554  0.3064 -0.0162
25470W        W68461  19.787  11.079  25.181 -0.0427 -0.2835 -0.1904
25471W        W68462  12.950  14.670  26.266 -0.1393 -0.2888 -0.1840
25472W        W68463   4.736  17.879  15.916  0.1883 -0.2601  0.1648
25473W        W68464  34.534  27.922  25.747 -0.3528 -0.0571  0.2197
25474W        W68465  26.939   6.002  20.953 -0.1621  0.0490  0.1506
25475W        W68466  30.821  17.736  23.691 -0.1278  0.0120  0.0307
25476W        W68467  32.886   3.580  26.788 -0.1969 -0.1224  0.1328
25477W        W68468   5.105  32.577  14.744 -0.0798  0.2744  0.0617
25478W        W68469  22.125  12.629  13.827  0.1940 -0.1816  0.2554
25479W        W68470  12.761  11.914  17.725 -0.2418 -0.0048  0.1704
25480W        W68471   6.003  20.066  15.399  0.4041  0.3150 -0.1060
25481W        W68472  24.406  16.778  26.494  0.0098  0.4590 -0.0126
25482W        W68473  25.441  18.776  28.785 -0.0240  0.0214 -0.1278
25483W        W68474   8.840   7.398  24.684 -0.0663  0.1124  0.0244
25484W        W68475   4.465  13.415  19.480  0.0668 -0.1680 -0.0458
25485W        W68476   8.104  26.032  15.058 -0.1081  0.1396 -0.2003
25486W        W68477  32.287  20.756  17.990  0.0411 -0.0587  0.2314
25487W        W68478   6.077  22.647  15.036  0.2002 -0.5701 -0.0227
25488W        W68479  12.978  13.450  21.134  0.1468 -0.3716  0.0917
25489W        W68480  31.284   1.054   1.551 -0.0615  0.2955  0.4204
25490W        W68481   0.473  33.782  23.241 -0.2853  0.1846 -0.2259
25491W        W68482  12.745   2.570   0.981  0.2653  0.1116  0.1865
25492W        W68483  29.166   4.721  13.441 -0.3309 -0.1200 -0.0103
25493W        W68484  32.610   1.909  27.324 -0.2898 -0.0398 -0.0292
25494W        W68485  30.143  20.402  18.829 -0.0984 -0.1417  0.1570
25495W        W68486  20.537   6.947  29.060  0.1451 -0.3778 -0.1219
25496W        W68487  17.878   9.176  13.533  0.1218 -0.0837 -0.2749
25497W        W68488   9.218  19.271   4.410 -0.2359 -0.1008  0.0511
25498W        W68489   5.018  14.798   0.871 -0.0587 -0.1053  0.2466
25499W        W68490   8.806   6.154  18.061  0.1102  0.2277  0.0388
25500W        W68491  15.002  29.952  24.002  0.1795 -0.1719 -0.0310
25501W        W68492  32.522   5.201  16.542 -0.2083 -0.1628  0.0507
25502W        W68493   5.237  14.581  28.081 -0.0491  0.0577 -0.2725
25503W        W68494  32.915   8.195   3.893  0.2030  0.1328  0.2084
25504W        W68495   1.243   3.861   4.884  0.1053 -0.0554 -0.0552
25505W        W68496  12.631  19.102  12.622 -0.3887 -0.0037 -0.0262
25506W        W68497  28.870  11.445  15.412 -0.0103  0.0603  0.3186
25507W        W68498   0.995  19.834  22.956  0.1499 -0.2106 -0.3445
25508W        W68499  11.400  17.466  25.160  0.1043 -0.1550  0.0603
25509W        W68500  16.264   2.355  25.627 -0.4138 -0.1438  0.1420
25510W        W68501  30.971  22.019  14.796  0.0637  0.1191  0.1027
25511W        W68502  32.112  20.483   4.260 -0.1325  0.1196  0.1462
25512W        W68503  32.069  28.527   1.304  0.1958  0.3311  0.2275
25513W        W68504   1.818  32.626  22.326 -0.1291 -0.1573 -0.0927
25514W        W68505  17.493  10.146   8.528 -0.0202  0.0002 -0.0543
25515W        W68506  20.441  14.390  26.886  0.1847  0.0756  0.0914
25516W        W68507  10.203  33.341  19.441 -0.1143 -0.2789  0.1274
25517W        W68508   7.210   4.185   9.504  0.5103 -0.0154 -0.0461
25518W        W68509   2.603   3.264  20.109 -0.0285  0.1427 -0.2868
25519W        W68510   6.845   7.487  25.857  0.4318 -0.2121  0.0187
25520W        W68511   9.528   6.867  16.237  0.1486  0.1306  0.1106
25521W        W68512   2.984  11.141  26.233  0.0450  0.0559  0.2182
25522W        W68513   0.704   2.366  23.188  0.2245 -0.1231 -0.0310
25523W        W68514  34.165   5.040  14.934  0.3100 -0.2124  0.2278
25524W        W68515  32.628  19.479  26.694 -0.0551 -0.0402  0.0575
25525W        W68516   2.649   2.548  16.515  0.1887 -0.2270 -0.1891
25526W        W68517  34.246  15.011  25.754 -0.0662  0.1005  0.2581
25527W        W68518   6.607   4.213  25.883  0.1480 -0.1694 -0.0438
25528W        W68519  13.798   7.603  15.940  0.0200  0.0213  0.2477
25529W        W68520   8.649  30.093  24.602 -0.1386  0.1765 -0.2510
25530W        W68521  10.584  29.737  26.336  0.1119 -0.2867  0.1899
25531W        W68522   6.410  16.969  10.749 -0.0672  0.0704  0.0441
25532W        W68523   9.414   9.697   3.940  0.0780 -0.2087  0.0493
25533W        W68524  11.869  30.951   6.877 -0.0000 -0.0062 -0.0661
25534W        W68525  26.455  11.845  17.926 -0.2122  0.0959  0.0562
25535W        W68526  15.702  32.001   0.827 -0.2794  0.1845 -0.2654
25536W        W68527   7.533  15.322  17.874 -0.2015 -0.0045  0.0130
25537W        W68528   8.285  14.085  17.517 -0.1111 -0.0252  0.3907
25538W        W68529  33.091  20.003   9.505 -0.0203  0.0813 -0.0842
25539W        W68530   4.997  17.005  20.647 -0.5453 -0.2110 -0.1827
25540W        W68531  32.662  23.457  14.778 -0.0931  0.1571 -0.0016
25541W        W68532   6.210   2.853  16.882 -0.0377 -0.1358 -0.1472
25542W        W68533   8.546  10.211  25.075  0.1315  0.1035  0.0018
25543W        W68534  12.340   3.836  26.222 -0.1004  0.0324  0.0038
25544W        W68535  10.185   6.584  15.279  0.1405 -0.2750  0.0715
25545W        W68536  24.505  15.731   1.073  0.0579  0.2102 -0.0173
25546W        W68537  23.489  12.722  28.566 -0.1716  0.1916  0.0603
25547W        W68538  11.439  17.614  14.793  0.0496 -0.1065 -0.2094
25548W        W68539   5.207  19.364  18.606  0.0307  0.1139 -0.0187
25549W        W68540  30.063  26.324  15.698  0.0905 -0.0316 -0.3064
25550W        W68541  29.214  13.785  23.988 -0.1574 -0.0932 -0.1749
25551W        W68542   8.712  12.098  22.743 -0.0680  0.1752  0.1782
25552W        W68543  27.395  17.314  24.621  0.2058 -0.0575 -0.3000
25553W        W68544   4.309  34.293  26.937 -0.1139  0.0895 -0.0862
25554W        W68545   9.016   0.712   0.660 -0.4277  0.1571  0.4061
25555W        W68546   4.762   6.732  19.679  0.0029  0.0470  0.4641
25556W        W68547  32.787   4.989   6.517 -0.0561 -0.3676 -0.1469
25557W        W68548   1.510   6.417  22.641  0.0995  0.4202 -0.0259
25558W        W68549   6.795  23.806  25.102 -0.2573  0.0874  0.3163
25559W        W68550  29.858  14.430  20.337  0.1376  0.0206 -0.2670
25560W        W68551   4.497  17.134  16.422 -0.3366  0.2808  0.0468
25561W        W68552   7.512   8.937  15.734  0.0117  0.0874 -0.0597
25562W        W68553  11.343  13.054   2.279 -0.0651  0.1242  0.2999
25563W        W68554   9.850  23.296   3.799 -0.0101  0.2767 -0.3692
25564W        W68555  12.050  23.553  21.135  0.0801 -0.0758  0.2103
25565W        W68556  14.399   0.455  22.925  0.2717  0.1257 -0.1297
25566W        W68557  14.826  26.249  17.761 -0.0591  0.1660  0.0663
25567W        W68558   7.047  26.404  18.721  0.0127 -0.2004 -0.1344
25568W        W68559  17.377  11.792  22.134  0.4097  0.0851  0.1001
25569W        W68560  19.894  34.115  16.245  0.1797  0.1535 -0.3639
25570W        W68561  28.975  24.092  13.861  0.2204  0.0308 -0.2233
25571W        W68562  34.479  32.509  21.478  0.1053 -0.1746 -0.1780
25572W        W68563   2.069   0.217  26.371  0.4444 -0.1173 -0.1064
25573W        W68564   2.137  23.912  14.620  0.1801  0.1781  0.0639
25574W        W68565   1.398  10.694  27.750 -0.0790  0.2158  0.0502
25575W        W68566  31.070  13.006  23.450 -0.2866 -0.0210  0.1023
25576W        W68567  31.722  13.567   6.010  0.1463 -0.0670 -0.2856
25577W        W68568  22.704   7.613   5.962 -0.2147  0.2280  0.0633
25578W        W68569  13.469  18.523  14.152  0.1127  0.1195 -0.1997
25579W        W68570   0.235  12.795  18.301  0.1624  0.2500 -0.0337
25580W        W68571  15.737  15.802  15.375  0.1851  0.0541  0.2750
25581W        W68572  33.342   3.246   0.421  0.0134  0.1018 -0.0947
25582W        W68573   2.561  15.291   8.062  0.0302  0.2113  0.1748
25583W        W68574  29.794   9.062  14.919  0.2693  0.1954  0.1318
25584W        W68575  32.075   2.739   0.695  0.2116  0.3009 -0.0202
25585W        W68576  32.241  33.402  17.348 -0.1127  0.3682 -0.1481
25586W        W68577   7.574  14.317   2.192  0.2008 -0.3317  0.3639
25587W        W68578   0.852   2.661  24.204 -0.0864 -0.1158  0.0402
25588W        W68579   6.071  11.703  24.617  0.1196 -0.1370  0.2112
25589W        W68580  18.326   4.911  13.495  0.1163 -0.2254  0.2875
25590W        W68581   1.741  20.592  16.890 -0.3128 -0.1868  0.2425
25591W        W68582  12.678  30.199  24.699 -0.2667 -0.1912  0.0400
25592W        W68583   3.062   0.979  24.208  0.0957 -0.0121 -0.2471
25593W        W68584  11.650  19.492  15.198 -0.0473  0.2915  0.1571
25594W        W68585  30.514   7.901  18.574  0.3869 -0.0710 -0.0239
25595W        W68586  21.407  10.193  20.819 -0.1675  0.2678  0.2677
25596W        W68587   0.893  10.476   7.120 -0.4744 -0.1891  0.0505
25597W        W68588  17.741   9.256   2.548  0.2097 -0.1445 -0.0146
25598W        W68589   1.414   8.782  14.774 -0.0807 -0.4986  0.1253
25599W        W68590  15.127  21.271  17.212 -0.0813  0.0744  0.0727
25600W        W68591   6.804  21.557  19.749 -0.2450  0.2220  0.0448
25601W        W68592  26.052   8.293  21.221 -0.0017  0.0392  0.0081
25602W        W68593  14.683  22.553  14.735 -0.2349 -0.2305  0.0855
25603W        W68594  34.635  30.765  17.194 -0.1206  0.2326 -0.0565
25604W        W68595  32.885   9.265   3.460 -0.0457  0.0944 -0.0124
25605W        W68596   6.452  17.794  26.350 -0.2006  0.1002 -0.0565
25606W        W68597  13.355   5.869  28.063 -0.1943 -0.1024 -0.0642
25607W        W68598   1.550  21.286  16.084 -0.0425 -0.0284 -0.0520
25608W        W68599   3.603  22.422  21.963 -0.0854 -0.0156  0.1609
25609W        W68600  11.711   9.025  20.687  0.0210  0.0090  0.1632
25610W        W68601  18.645  33.436  22.659 -0.0112 -0.0320  0.0457
25611W        W68602  15.605   3.678  21.899 -0.1640  0.1081  0.1246
25612W        W68603  29.446  21.979  26.348 -0.2493  0.2055 -0.3148
25613W        W68604  25.264  31.708  16.465 -0.1254 -0.0128 -0.2639
25614W        W68605  11.929   8.548  26.561 -0.1374  0.2177  0.1483
25615W        W68606  15.054   8.225  16.087  0.1126  0.2718  0.2760
25616W        W68607  21.180  10.135  23.241 -0.1031 -0.2568  0.0879
25617W        W68608  16.545  32.842  25.423 -0.2578  0.0955 -0.0372
25618W        W68609  32.986  15.720  16.805 -0.1687 -0.1164  0.0700
25619W        W68610  31.236   9.678  15.952 -0.0271  0.0064  0.1381
25620W        W68611  23.969  19.255  13.217 -0.0314  0.3943 -0.2783
25621W        W68612  13.172  12.734  19.272  0.1183  0.0205 -0.3115
25622W        W68613   2.727  11.118  28.289 -0.2312 -0.0787 -0.3200
25623W        W68614   3.814  18.934  15.534 -0.4556 -0.1342  0.0889
25624W        W68615  12.314  32.588   1.616  0.0990 -0.1098  0.1404
25625W        W68616  10.052   7.392  21.394 -0.0669 -0.1347 -0.1040
25626W        W68617   1.719  28.713  26.617 -0.2673  0.0248  0.0158
25627W        W68618  34.710  13.062  17.357 -0.0826  0.1565 -0.1397
25628W        W68619  24.901  26.657  15.215  0.2146  0.0971 -0.2063
25629W        W68620  13.526  11.952  16.507 -0.0374 -0.1599  0.2895
25630W        W68621   1.083   8.863  19.729  0.0088  0.0546  0.2242
25631W        W68622   3.066  16.045  20.883 -0.0750  0.0321  0.2285
25632W        W68623  15.239   2.390   3.135 -0.0940 -0.1272 -0.0323
25633W        W68624   1.940  28.968  18.585 -0.0479 -0.0173  0.0021
25634W        W68625   6.912  17.725  20.624 -0.1356 -0.0343  0.1426
25635W        W68626   7.555  31.099  20.941  0.0346  0.0850 -0.2369
25636W        W68627  26.642  25.679  17.158 -0.0022  0.2618  0.1978
25637W        W68628  12.612   4.914  29.251  0.0862  0.2760 -0.1816
25638W        W68629  11.086   6.106  15.496  0.0407  0.1413 -0.1373
25639W        W68630  13.773  19.450  19.960 -0.0707 -0.0170 -0.1049
25640W        W68631  12.265   8.444  24.269  0.1165 -0.3413  0.1097
25641W        W68632  22.251   5.129  26.005 -0.2402  0.0996  0.2546
25642W        W68633   4.382  21.798  27.866  0.2158  0.0718 -0.0455
25643W        W68634   6.810   8.590  20.899 -0.1425  0.0576  0.0714
25644W        W68635  28.854   2.729  23.504 -0.3648  0.0534  0.1740
25645W        W68636  18.685  17.021   2.796  0.0421  0.3839  0.1326
25646W        W68637  16.677  21.015  13.030 -0.1252  0.2265 -0.2559
25647W        W68638  10.979  10.248   3.750 -0.0571  0.0696  0.3994
25648W        W68639  21.510  18.646  15.798 -0.1376  0.2648 -0.1826
25649W        W68640  33.988   5.383  25.241  0.3800  0.1361 -0.1667
25650W        W68641   4.015  28.637  22.471  0.1629 -0.1486 -0.1599
25651W        W68642   9.368  17.424  26.511 -0.2455  0.0575  0.0646
25652W        W68643  26.236   1.935  17.343  0.0188 -0.0114  0.0451
25653W        W68644  18.074   0.643  23.610 -0.0305 -0.2438  0.0631
25654W        W68645  28.822  13.857  20.047 -0.1751  0.4118 -0.1320
25655W        W68646  11.148  13.845  18.179  0.1171  0.2194 -0.2506
25656W        W68647   9.489  18.154  15.756 -0.1770 -0.2148  0.1919
25657W        W68648  21.552  22.945  24.366 -0.4507  0.1049 -0.2719
25658W        W68649  34.016   5.886  22.415  0.0391 -0.0493  0.0137
25659W        W68650   4.878  12.037   1.802  0.0460 -0.0297  0.1518
25660W        W68651   8.650   7.885  24.039 -0.0811 -0.2763  0.0393
25661W        W68652  17.482  11.499  23.087  0.0195  0.1722 -0.0091
25662W        W68653  10.931  13.954  26.482 -0.1107  0.2616 -0.0175
25663W        W68654   9.440  13.411  18.074 -0.1209  0.1678  0.1600
25664W        W68655   2.479   3.033  22.338 -0.1277  0.0018 -0.0997
25665W        W68656   5.927  31.085  19.286  0.0175 -0.1004 -0.4596
25666W        W68657   1.011   6.005   2.919 -0.1064 -0.2020  0.1923
25667W        W68658  11.134  31.306  25.387 -0.2043 -0.2036  0.2414
25668W        W68659  14.201  28.962  26.902 -0.1783 -0.1745 -0.2598
25669W        W68660   2.504  16.451  11.102  0.3106  0.0468  0.1570
25670W        W68661  23.116   1.150   6.265 -0.1487 -0.2924 -0.1253
25671W        W68662   1.280  11.922  26.844 -0.2609 -0.3396 -0.1115
25672W        W68663   6.894  21.474  26.505 -0.1209 -0.2329 -0.0316
25673W        W68664  32.212  10.208  21.850 -0.1030  0.0256  0.0926
25674W        W68665  16.157  22.621  14.301  0.0240 -0.0494 -0.0910
25675W        W68666  22.384  11.001  27.186  0.1369  0.1333 -0.1075
25676W        W68667   2.135  23.579  20.177 -0.2389  0.0856 -0.0361
25677W        W68668   9.776  18.381  20.347  0.0586  0.1468  0.1596
25678W        W68669  14.333  17.974   3.721  0.2008 -0.0172  0.0085
25679W        W68670  32.382  31.198  16.355 -0.0478 -0.2261  0.2254
25680W        W68671  34.791  14.059   1.968  0.1379 -0.1711  0.2256
25681W        W68672   5.009   7.852  23.913 -0.1159  0.3517  0.1798
25682W        W68673  16.004  26.161   7.454  0.3825  0.0422  0.0749
25683W        W68674   2.876   8.546  25.077  0.2687  0.1172  0.0790
25684W        W68675  30.464  10.462  21.175 -0.2946  0.2412  0.1949
25685W        W68676  10.326  23.053  19.263 -0.2215  0.0829 -0.3168
25686W        W68677  17.141  17.773   0.659  0.3368 -0.0876 -0.2008
25687W        W68678   1.502  18.170  17.171  0.0137  0.1495  0.3357
25688W        W68679  15.959  17.725  24.872  0.0738 -0.1233  0.3193
25689W        W68680  11.378  30.435   9.610  0.0301 -0.1058  0.1339
25690W        W68681   5.649  27.358  18.647 -0.0578 -0.1859  0.0250
25691W        W68682  22.481  12.688  24.500 -0.2113  0.0629 -0.0349
25692W        W68683   2.755  17.812   2.217 -0.0858  0.1618  0.2037
25693W        W68684  22.206  16.961  22.921  0.1602  0.0880 -0.0784
25694W        W68685  32.943  17.130  27.868 -0.1886  0.0406  0.2157
25695W        W68686   7.885  13.944   3.436 -0.3290 -0.0386  0.0538
25696W        W68687   6.922   5.645   2.368 -0.2144 -0.3606  0.2911
25697W        W68688  31.959  27.380  18.936 -0.0371 -0.2791  0.2429
25698W        W68689   0.972  13.229  17.239  0.0029 -0.0044  0.0141
25699W        W68690  31.481  14.624   9.151  0.0010  0.0576 -0.1426
25700W        W68691  13.617  17.495  26.684 -0.2317  0.1655  0.0646
25701W        W68692  17.799   4.373   2.077  0.0858 -0.3491  0.1964
25702W        W68693  18.140   4.755  14.921  0.1569 -0.3995 -0.4078
25703W        W68694   0.607  16.757   0.517  0.0248 -0.3361 -0.0646
25704W        W68695  19.930  12.426  13.609 -0.0202  0.2102 -0.2451
25705W        W68696  26.020  33.601  24.964 -0.0546  0.0454  0.2673
25706W        W68697   7.663   6.146  26.249  0.1943 -0.0793  0.0941
25707W        W68698  33.044  11.530   2.919 -0.0578 -0.0215 -0.0636
25708W        W68699  32.604  30.254   4.892  0.0891  0.1357 -0.2068
25709W        W68700  32.834  10.042  18.612 -0.2509 -0.1783 -0.2685
25710W        W68701  13.302  13.948  21.715  0.0013 -0.0128 -0.1506
25711W        W68702   4.139  27.372  14.733  0.2355 -0.0686 -0.0236
25712W        W68703  24.833  19.467  19.328 -0.2124  0.2897  0.2973
25713W        W68704  11.132  20.373  23.229  0.0041 -0.0609  0.2329
25714W        W68705  14.638  17.346  26.391  0.1528  0.1650 -0.1524
25715W        W68706  33.011  30.478   4.121  0.1400 -0.0765 -0.1628
25716W        W68707  14.802  17.684  25.002 -0.0595  0.0577  0.1815
25717W        W68708  14.267   5.202   0.102 -0.1753 -0.2255  0.0940
25718W        W68709   3.103   9.838  22.168 -0.1327 -0.0313 -0.1909
25719W        W68710  13.990  23.452   1.638 -0.1042  0.0490 -0.1872
25720W        W68711  33.436   2.707  19.052  0.0594  0.0874 -0.0502
25721W        W68712  25.692  18.664   7.863  0.2258 -0.2523  0.0689
25722W        W68713  19.483  22.967  13.534 -0.0887  0.2107 -0.1807
25723W        W68714  15.601  23.626  23.880 -0.0524 -0.1693  0.1621
25724W        W68715  34.657  18.063  23.808  0.0151 -0.0817 -0.0479
25725W        W68716   1.142   8.350   5.154  0.1064  0.2039 -0.0188
25726W        W68717  30.296  15.577  21.709  0.0915  0.1683  0.4114
25727W        W68718  30.527  20.428  20.133  0.0051 -0.2578 -0.0068
25728W        W68719  14.922  18.736   7.354  0.3361 -0.1215  0.0221
25729W        W68720  10.664   6.031  23.284  0.0580 -0.3017  0.0494
25730W        W68721  29.006   9.811  27.096 -0.1270  0.1049  0.0873
25731W        W68722  20.421   9.797  28.224  0.1872 -0.1882  0.0280
25732W        W68723  17.045  11.381  26.221 -0.2310  0.0679 -0.0041
25733W        W68724  26.529  17.151  21.964 -0.0769  0.0494 -0.0360
25734W        W68725   2.987   3.665  23.722 -0.1207  0.0678  0.2553
25735W        W68726  15.864  28.148  25.810 -0.1790 -0.1666 -0.0224
25736W        W68727   3.769   5.592   3.771 -0.0354  0.0245  0.0749
25737W        W68728   5.588  19.197  26.558  0.0872  0.2616  0.1628
25738W        W68729   4.679  14.249  23.858  0.0207 -0.1457  0.0765
25739W        W68730   0.752   9.199  19.592 -0.1011 -0.1542 -0.2298
25740W        W68731  14.946   3.683  27.364 -0.0069  0.2841 -0.1322
25741W        W68732  24.834  22.907  20.401  0.2909  0.0191  0.0338
25742W        W68733  32.211  21.094  18.300 -0.1701  0.1268 -0.0722
25743W        W68734   1.602   3.962   0.240 -0.2236 -0.1450  0.2725
25744W        W68735  15.872  23.080  17.391 -0.1073  0.1371 -0.0698
25745W        W68736  19.891  17.534  16.306  0.2088 -0.0900  0.0304
25746W        W68737  26.863  17.323  24.395  0.0206 -0.2443  0.2806
25747W        W68738  31.071  29.900  14.817 -0.0237 -0.0904 -0.2672
25748W        W68739  31.215  13.801  27.113  0.1049  0.2939 -0.1391
25749W        W68740  27.470  31.751  16.850  0.0169 -0.0658  0.3362
25750W        W68741   7.036   8.396  19.809  0.2408  0.1039  0.3153
25751W        W68742  11.854   4.045  16.219  0.2644 -0.2080  0.1311
25752W        W68743  18.309   4.759  15.848 -0.0945  0.0575  0.0512
25753W        W68744   6.673   2.872  22.702  0.1472 -0.0921 -0.0024
25754W        W68745  33.506  21.169  20.476  0.1328  0.0045  0.1935
25755W        W68746  31.867   1.036   8.053 -0.1057  0.3440  0.1841
25756W        W68747   6.613   4.968  19.115  0.3062 -0.1331 -0.0372
25757W        W68748   3.772  31.782  18.514  0.0670 -0.2728  0.1930
25758W        W68749  18.998  31.846  15.690 -0.1402  0.1314 -0.1062
25759W        W68750  34.197  28.992  21.866 -0.2593 -0.0638 -0.0615
25760W        W68751  10.958   4.271  18.308 -0.2066 -0.2752 -0.1940
25761W        W68752   0.732  17.646   6.571  0.2559 -0.3415 -0.1478
25762W        W68753   4.388   6.271  15.451  0.4193  0.1274  0.2218
25763W        W68754   9.246  21.962   1.670 -0.2160  0.2386  0.1800
25764W        W68755  24.954  13.006  19.587 -0.1920  0.0960 -0.0789
25765W        W68756  29.203   0.503  26.043  0.0518  0.3738 -0.0709
25766W        W68757   2.910  15.471  28.319  0.0983 -0.0889  0.0780
25767W        W68758   8.008  22.379  17.186  0.2073 -0.1693 -0.0303
25768W        W68759  24.655  17.262  21.560  0.0607 -0.2646  0.1325
25769W        W68760  34.040   8.476  16.209 -0.3320 -0.0692  0.1401
25770W        W68761   0.062  19.872  18.011 -0.2764  0.0320 -0.0255
25771W        W68762   6.884  24.155  18.521 -0.1019 -0.0244 -0.0575
25772W        W68763  13.111  18.860   0.668 -0.1239  0.2182  0.2639
25773W        W68764   4.813  16.857  27.043  0.3216  0.1803  0.1679
25774W        W68765  30.383   0.959  14.077 -0.0843 -0.0568 -0.0888
25775W        W68766  26.700  15.687  17.242 -0.0688  0.1752 -0.2126
25776W        W68767  12.516   4.554  15.789  0.0334  0.0657  0.1548
25777W        W68768   3.734  33.413   8.911  0.0800  0.2254  0.2629
25778W        W68769  21.499  22.302  28.498 -0.0734  0.2276 -0.3103
25779W        W68770   8.840  15.042  23.798 -0.0065  0.0017  0.0837
25780W        W68771  32.477  11.159  25.786  0.1889 -0.0826  0.3267
25781W        W68772   3.824  17.380  17.550  0.2908 -0.1097  0.2824
25782W        W68773  11.915  19.007  15.309  0.1132 -0.0035 -0.1307
25783W        W68774   2.523  13.631  21.676  0.2438 -0.1338 -0.2505
25784W        W68775   1.013  29.121   5.012  0.0791 -0.1499  0.1488
25785W        W68776  23.175  21.510  14.734 -0.3008  0.0533  0.0836
25786W        W68777  12.707   0.524   8.740 -0.1884  0.1856 -0.1361
25787W        W68778   4.376   4.812  22.221  0.0995  0.0723 -0.2183
25788W        W68779   1.258   6.568  24.500 -0.0730 -0.1777 -0.0180
25789W        W68780   4.859  31.409  18.945  0.1277 -0.2168  0.0013
25790W        W68781  11.913  34.224  21.124 -0.0195 -0.0869  0.0097
25791W        W68782   7.526  24.108  18.901 -0.2012  0.0625  0.3045
25792W        W68783  17.677  28.986   7.391  0.0742 -0.0784  0.0552
25793W        W68784   8.102  12.583  18.495  0.2770  0.0763  0.0695
25794W        W68785  11.671   6.200   3.989 -0.3368 -0.1823  0.0937
25795W        W68786  23.746   2.978  21.220 -0.0908 -0.0416  0.0508
25796W        W68787   5.116  33.388  10.206 -0.1053  0.0495 -0.1442
25797W        W68788  26.642  14.129  19.820  0.2635  0.0267  0.3060
25798W        W68789  24.914  27.610  21.630 -0.0826 -0.0800  0.1642
25799W        W68790  21.197   6.147  23.559  0.0957  0.0400  0.1064
25800W        W68791   7.904   9.017   7.994 -0.2606 -0.1692 -0.2050
25801W        W68792  14.081  26.264  28.353 -0.4150  0.0017  0.1484
25802W        W68793   9.563  14.926  17.514 -0.3463  0.0788  0.0329
25803W        W68794  33.440  28.028  18.585 -0.1663  0.2313 -0.1212
25804W        W68795  22.552   7.473  17.732  0.1035  0.0729  0.1652
25805W        W68796   5.989  13.202  18.309  0.2191  0.1148  0.1405
25806W        W68797   2.500  24.108  19.000 -0.1432 -0.0943 -0.0099
25807W        W68798  25.656   4.505  25.287  0.3264 -0.4021 -0.0054
25808W        W68799  25.492  19.378  14.044  0.1185  0.2744 -0.1748
25809W        W68800   0.938   2.940  27.373  0.2475 -0.2567  0.1756
25810W        W68801  31.225  15.879  27.934  0.0779 -0.2176  0.2363
25811W        W68802   6.968   6.819  10.986 -0.0764 -0.0059  0.2013
25812W        W68803   2.826  14.379  23.788 -0.1032  0.0758 -0.0742
25813W        W68804   9.126  32.573  27.204 -0.1305  0.2464 -0.1369
25814W        W68805  31.477  11.021  15.210  0.5266 -0.0101 -0.0024
25815W        W68806   3.687   3.926  10.156  0.1379  0.0899  0.3752
25816W        W68807   4.341   6.610  27.639 -0.2226  0.1083 -0.1856
25817W        W68808  29.584  13.744  21.235 -0.0164  0.0505 -0.0556
25818W        W68809  22.854  27.737  20.834 -0.0194 -0.1535 -0.1542
25819W        W68810  15.099   6.890  24.440  0.3193 -0.1514  0.3605
25820W        W68811  33.355   4.983  27.097  0.0185 -0.0485  0.1482
25821W        W68812   4.773  28.992  28.755  0.3309  0.2031 -0.0059
25822W        W68813  20.071  30.348  25.743  0.4166 -0.2674  0.0914
25823W        W68814  11.332  30.050  19.276 -0.0320  0.2490 -0.0470
25824W        W68815  24.591  10.482  13.604 -0.2141  0.2071 -0.2428
25825W        W68816   4.784   5.893   3.713 -0.0748 -0.1208 -0.4915
25826W        W68817  11.465  11.954  23.694 -0.1267  0.0054  0.0617
25827W        W68818  16.199  24.553   0.779 -0.1906  0.0823 -0.4729
25828W        W68819   8.432  10.757  19.959 -0.0645 -0.3586 -0.2236
25829W        W68820   7.888  25.228  15.601  0.1363  0.0458 -0.1661
25830W        W68821   8.859   9.944  18.829 -0.1200 -0.1316  0.1431
25831W        W68822  11.064  22.651  26.070 -0.1463  0.2163 -0.1163
25832W        W68823   8.082   9.070  18.721 -0.1517 -0.2171 -0.2093
25833W        W68824   0.715  22.909  20.693  0.0008  0.0210 -0.1143
25834W        W68825  34.654  25.339  23.433 -0.0653  0.0258  0.1804
25835W        W68826  23.352   7.042  28.866  0.0501  0.2238  0.0875
25836W        W68827  26.906  10.926  22.242 -0.1221 -0.0324  0.0683
25837W        W68828  11.335  17.624  19.757 -0.0271 -0.0294  0.1615
25838W        W68829   6.536   5.065  24.302  0.2432  0.0325 -0.2533
25839W        W68830  24.329   1.392   8.801 -0.2095  0.4427  0.0216
25840W        W68831   8.844  18.177  26.802 -0.1429 -0.1559 -0.0848
25841W        W68832   6.032   8.214  16.072  0.1288  0.1545 -0.1220
25842W        W68833  23.345  31.681  24.960 -0.0720 -0.2641 -0.0402
25843W        W68834  33.601   1.495   0.656 -0.2082  0.1349  0.0279
25844W        W68835  29.439  10.457  22.530  0.2938 -0.1114  0.2728
25845W        W68836   4.499  20.402  26.471  0.0395  0.0410 -0.0892
25846W        W68837   6.543  19.279  28.603  0.0936  0.0339 -0.0008
25847W        W68838  33.338  11.863  22.268  0.0824  0.2307  0.1292
25848W        W68839  12.540  26.471  18.226  0.0993 -0.2977 -0.2510
25849W        W68840  13.945  28.844   4.832 -0.3464  0.0652  0.0577
25850W        W68841  20.460  14.812   2.561  0.2588  0.1223  0.1859
25851W        W68842  10.840  19.371   0.662  0.0315 -0.0919 -0.2587
25852W        W68843   6.121   3.318  20.526  0.3682  0.0825  0.1850
25853W        W68844  27.872  22.869  14.986 -0.1912  0.3245 -0.1037
25854W        W68845   9.045   0.455  18.669 -0.0421  0.2049  0.5859
25855W        W68846   1.570  15.511  27.324 -0.3889 -0.2668 -0.0833
25856W        W68847  10.618  17.862  17.349  0.1855  0.1138 -0.1738
25857W        W68848  28.872  14.952  22.011  0.1270  0.1879 -0.0080
25858W        W68849   2.566  13.641  18.179  0.1945  0.2638 -0.2866
25859W        W68850  24.770   6.779  19.317 -0.0336 -0.1383 -0.3036
25860W        W68851   8.059   4.505   4.323 -0.0250 -0.1200 -0.0814
25861W        W68852  22.210  22.745  15.219 -0.1141  0.2029  0.1242
25862W        W68853   0.256  15.156  26.076  0.2732  0.2802  0.0527
25863W        W68854   3.152  22.677  24.062  0.2612 -0.5543 -0.3249
25864W        W68855  25.798  12.244  14.853 -0.0316  0.1216 -0.1172
25865W        W68856   8.226   8.762  17.836 -0.1192  0.0662  0.2819
25866W        W68857  33.002   8.351  21.502 -0.0765 -0.1518  0.0867
25867W        W68858   3.397  12.261  10.108 -0.0170  0.2296  0.1826
25868W        W68859   3.137  24.713   1.321  0.1790 -0.2455 -0.2044
25869W        W68860   6.085   6.630  15.948 -0.4216  0.3223  0.1314
25870W        W68861  18.170   9.009  24.865 -0.2737  0.1065  0.0032
25871W        W68862  25.028  10.285   2.364 -0.3560 -0.2206 -0.0910
25872W        W68863  16.977   3.990  24.601  0.1910 -0.3559  0.0928
25873W        W68864  29.256  23.400   0.107  0.1319 -0.2672  0.4050
25874W        W68865   9.913   8.939  20.757 -0.0125  0.1292  0.0071
25875W        W68866  12.178  30.458   5.378 -0.0104 -0.0463 -0.0472
25876W        W68867  14.667   6.551  24.060  0.0238  0.0843 -0.4252
25877W        W68868  11.931  15.640  24.616  0.1247 -0.0767 -0.0649
25878W        W68869   7.122   9.764  28.521 -0.2621 -0.4354  0.1243
25879W        W68870   9.171   7.731   7.316 -0.1946  0.0278 -0.3088
25880W        W68871   1.439  29.263  16.590 -0.1526  0.0335 -0.1000
25881W        W68872   5.747  26.563  25.559  0.2094 -0.1053  0.1150
25882W        W68873  18.116  28.971  19.895  0.0808 -0.4026 -0.1287
25883W        W68874  21.766   5.664   1.470  0.1855  0.0588 -0.1063
25884W        W68875  24.818  10.075   9.133 -0.1226  0.1150 -0.1633
25885W        W68876  14.183  16.478  16.481 -0.0180  0.0489 -0.1908
25886W        W68877   9.987  12.005  25.638 -0.1131  0.2949  0.2581
25887W        W68878   3.009  13.821  22.918 -0.1043  0.0351 -0.1206
25888W        W68879   6.845   1.355  16.068 -0.2662  0.1658  0.0773
25889W        W68880  24.305   7.932   3.374  0.3491 -0.2774 -0.0254
25890W        W68881  31.890   7.634   2.413 -0.4434 -0.0198 -0.0806
25891W        W68882   9.808   1.345  14.374 -0.1768  0.1235 -0.2288
25892W        W68883  32.379  12.725  22.269 -0.0180  0.1928  0.0185
25893W        W68884   1.757  16.955  20.455  0.0752 -0.2353 -0.3972
25894W        W68885  19.880   5.193   1.555  0.1658 -0.1336  0.2995
25895W        W68886  32.113  11.869   4.132  0.2954  0.1526  0.0053
25896W        W68887   3.558   7.306  16.665 -0.2623  0.0886  0.6767
25897W        W68888  19.756   9.470   3.956  0.1305  0.1211  0.0562
25898W        W68889  18.511  27.397  25.322  0.0175  0.1738  0.0036
25899W        W68890  33.360   0.887  21.314  0.1915  0.1019  0.2509
25900W        W68891   1.204  14.721   4.156  0.0057  0.1703 -0.1728
25901W        W68892  11.378   3.513  14.633  0.0441 -0.0090  0.0105
25902W        W68893  31.059  31.446  28.600  0.0756  0.2298 -0.0023
25903W        W68894   8.554   9.480  21.691  0.0750 -0.0104 -0.3630
25904W        W68895  17.032  22.971  21.353  0.1954  0.0063  0.1052
25905W        W68896   6.908  13.116  24.033  0.0948  0.0340 -0.1410
25906W        W68897   6.758   9.751  23.591 -0.1365  0.0857 -0.1666
25907W        W68898  13.864  12.737   0.331  0.0018  0.3464  0.0905
25908W        W68899   0.700  10.140  18.112  0.0698  0.0332  0.0664
25909W        W68900   5.023  27.801   6.747 -0.1678 -0.1719  0.1241
25910W        W68901   7.716   6.235  25.281 -0.0272  0.2268 -0.0478
25911W        W68902  16.275   3.071   6.405  0.0010 -0.0342  0.2906
25912W        W68903  13.278  16.968  20.622  0.0193  0.2732  0.5482
25913W        W68904   3.908  15.018  24.188 -0.2046 -0.2006 -0.0475
25914W        W68905   6.030  32.488  18.298 -0.2306  0.1747  0.0582
25915W        W68906  30.896  18.657  17.181 -0.0453  0.2205  0.0056
25916W        W68907   5.687   7.965   4.452 -0.0318 -0.1338 -0.1599
25917W        W68908  31.360  31.289   1.166  0.0567  0.1823 -0.4204
25918W        W68909  14.025  13.018   2.113  0.1145 -0.0587  0.1634
25919W        W68910  27.771  31.142   1.065  0.1513 -0.3297  0.4796
25920W        W68911   3.470   3.196   8.096 -0.1743  0.1731  0.1131
25921W        W68912  31.725   7.378  27.435 -0.4477  0.1894  0.0330
25922W        W68913  21.998  13.572  18.853 -0.2442 -0.0475 -0.0102
25923W        W68914  30.299  16.816  19.212 -0.0320 -0.2418 -0.1406
25924W        W68915   8.772  26.594   7.119  0.0045 -0.0068  0.1072
25925W        W68916   2.321  26.081  19.293  0.0956  0.0872 -0.2043
25926W        W68917   7.079  19.454  16.952 -0.2045  0.0020  0.0927
25927W        W68918   7.486   3.777   9.965 -0.0373  0.2840 -0.0069
25928W        W68919  21.112  10.813  24.447 -0.0512  0.3094 -0.0595
25929W        W68920   2.420   5.974  22.731 -0.1506 -0.3277  0.3739
25930W        W68921  23.542  16.880  23.143  0.1442  0.2729 -0.2770
25931W        W68922  18.294   9.844   2.778  0.1837 -0.4137 -0.0898
25932W        W68923  15.743   0.335   4.543 -0.1913 -0.1251  0.2169
25933W        W68924   6.166  23.701   3.948  0.2155 -0.1627 -0.0111
25934W        W68925  29.548  10.255  17.852  0.1460  0.0224 -0.1630
25935W        W68926  32.327  22.289  18.961 -0.2798  0.0981 -0.1408
25936W        W68927   3.485   1.246  23.549 -0.2851  0.0924  0.0249
25937W        W68928   1.859   1.183  22.536  0.2090 -0.1697  0.2444
25938W        W68929  21.583  17.754  17.420  0.1875 -0.0907  0.2166
25939W        W68930   3.363  11.759  28.135  0.0077  0.1662 -0.1416
25940W        W68931  25.333   9.494  21.729 -0.3310 -0.1208  0.3435
25941W        W68932  31.632  15.052   5.968  0.1118  0.1844 -0.4260
25942W        W68933  19.497   5.934  24.075 -0.2537 -0.2823 -0.1209
25943W        W68934  28.890  27.619  27.408 -0.0070  0.0752  0.0147
25944W        W68935  14.783  32.446  26.636 -0.4103  0.2165 -0.6028
25945W        W68936   2.995  12.423  27.548 -0.1758 -0.1211  0.1852
25946W        W68937   1.187  10.024   7.120  0.1712 -0.4375 -0.2028
25947W        W68938  22.679  12.228  21.304 -0.1460  0.1011  0.2699
25948W        W68939   2.525  17.298  10.507 -0.2567 -0.0731  0.2111
25949W        W68940  31.657  32.652  17.518  0.0605 -0.0078  0.0187
25950W        W68941   4.742  18.487  15.178  0.2483 -0.2998 -0.1798
25951W        W68942   4.531   9.749  18.778 -0.2147  0.0095 -0.2586
25952W        W68943  16.233  21.428   3.643 -0.1334 -0.1564 -0.4517
25953W        W68944   8.011  23.905   3.174 -0.2365  0.1773  0.2287
25954W        W68945  10.127  10.906  28.957 -0.0297 -0.2247  0.2361
25955W        W68946   8.189  19.395  15.765 -0.1724  0.1288 -0.0130
25956W        W68947   4.525  16.352  21.765 -0.0127 -0.0715 -0.1416
25957W        W68948   3.148  12.376  19.469  0.0964 -0.2020  0.4753
25958W        W68949  21.761  31.600  14.970 -0.0256  0.2369  0.0667
25959W        W68950  23.628   8.326  26.560  0.2141 -0.4893  0.1160
25960W        W68951  13.993   3.645  15.266  0.0769 -0.1556 -0.3862
25961W        W68952   2.544   7.054   1.206  0.1666  0.2578  0.0071
25962W        W68953  28.177   9.158  28.952  0.1430 -0.1438 -0.0362
25963W        W68954   5.624  11.298  27.226  0.3740 -0.0698 -0.2114
25964W        W68955  14.238  12.885  25.841 -0.1138  0.2771  0.2505
25965W        W68956   0.923   0.773  15.019  0.3774  0.1182  0.1213
25966W        W68957  25.600  11.566  22.090  0.0021  0.1608  0.0234
25967W        W68958  15.497  18.486  15.823  0.0178  0.3284 -0.2968
25968W        W68959  17.037  10.386   1.715 -0.2074  0.0930  0.0447
25969W        W68960  31.867  28.519  15.772  0.1850  0.0094  0.0214
25970W        W68961  12.666  26.195  28.480 -0.2231  0.0348  0.0322
25971W        W68962  17.383   7.754  22.194 -0.1802  0.3092 -0.2552
25972W        W68963  19.312   2.183   5.915  0.2091  0.0802 -0.1646
25973W        W68964  26.705  16.559  14.884  0.1432  0.0666 -0.1581
25974W        W68965  34.424  15.831  24.467  0.3381  0.2055  0.1307
25975W        W68966  21.366  16.280  13.846  0.2008  0.2551 -0.0372
25976W        W68967  19.031  30.520  22.050  0.0730 -0.0287  0.2529
25977W        W68968  32.163  15.106   3.813  0.4402  0.0355  0.1692
25978W        W68969  13.611   8.859  25.925  0.0338 -0.1586  0.1641
25979W        W68970  31.436   0.319  27.152 -0.0206 -0.0089 -0.2160
25980W        W68971  34.764  17.552  18.063 -0.0672  0.2134  0.2802
25981W        W68972  28.793  24.624  25.532 -0.0220 -0.1702  0.1630
25982W        W68973  10.738  15.652  24.457 -0.1983 -0.2459 -0.3717
25983W        W68974   3.842   6.648   3.196 -0.2874  0.0087 -0.1400
25984W        W68975  18.573   0.589  21.069 -0.0228 -0.0923 -0.0202
25985W        W68976   8.110  16.376  24.122  0.0378 -0.1995 -0.2880
25986W        W68977  14.191  23.682  26.034 -0.2243 -0.1397  0.0563
25987W        W68978   5.034  10.970   7.687 -0.4089  0.0636 -0.1242
25988W        W68979  20.330   7.570  25.051 -0.3507  0.2648 -0.0025
25989W        W68980   6.313  30.185   7.615 -0.1175  0.3171 -0.1185
25990W        W68981   1.835  24.966  24.101  0.0999  0.2810 -0.0667
25991W        W68982  22.690  29.924  23.071  0.0758 -0.0572 -0.2507
25992W        W68983   6.065   6.276  19.735 -0.1664 -0.3509 -0.2426
25993W        W68984  32.571  12.825  11.384  0.0032  0.0431 -0.0089
25994W        W68985  18.069   5.948  26.670  0.0565  0.1810  0.2233
25995W        W68986  30.514  16.599   8.857  0.2695  0.3288 -0.0498
25996W        W68987  13.472  13.556  28.300 -0.1589 -0.2669  0.0620
25997W        W68988  32.923  14.708   1.012  0.0056 -0.0175  0.0034
25998W        W68989   8.716  10.091  15.675  0.3123  0.0966 -0.2197
25999W        W68990   9.106  14.680   6.327  0.1168  0.2877  0.1073
26000W        W68991  26.749  15.804  26.339  0.2980 -0.0244  0.2083
26001W        W68992   7.138  18.373  19.539  0.1025  0.0637  0.0989
26002W        W68993   5.881   3.240  18.581 -0.1782  0.1037 -0.0064
26003W        W68994   5.050  33.898  14.996  0.1519 -0.0237  0.1065
26004W        W68995  11.562  27.626  17.243 -0.2733 -0.3332 -0.0310
26005W        W68996   9.593  21.431  20.405  0.0084  0.1476 -0.1886
26006W        W68997  33.711  22.843  26.071 -0.2880 -0.1209 -0.4668
26007W        W68998  29.499   2.629   4.940 -0.0043 -0.3959  0.1574
26008W        W68999   8.222  17.727   2.749  0.0609 -0.1200  0.2717
26009W        W69000   3.312   4.480  10.977  0.0489  0.1956  0.0991
26010W        W69001   2.783  15.506  25.550  0.2523 -0.0072 -0.1498
26011W        W69002  33.451   5.010   3.635 -0.1562 -0.0075 -0.0764
26012W        W69003   3.563   9.978  22.057 -0.1959  0.3808 -0.0138
26013W        W69004  15.473   6.311  22.793 -0.0374 -0.0259  0.2332
26014W        W69005  10.502   8.500   2.967  0.3250 -0.2820  0.0063
26015W        W69006  25.116   8.432  28.099 -0.1621  0.1833 -0.1077
26016W        W69007  27.278   7.170   1.478  0.1085  0.2147 -0.2163
26017W        W69008   1.802   9.717   1.848 -0.2050 -0.2338  0.1558
26018W        W69009  14.778   6.922  28.595  0.1122 -0.0089 -0.2782
26019W        W69010  14.083  26.574  23.465  0.4419  0.0726  0.3053
26020W        W69011   4.835   3.497  29.085  0.0387 -0.0043 -0.1081
26021W        W69012  17.535  10.644   1.542  0.0182  0.1596  0.0221
26022W        W69013  14.268  16.850  28.913 -0.4473 -0.0901 -0.0080
26023W        W69014  22.076   5.943  22.500  0.1217  0.1497  0.0716
26024W        W69015  32.289  34.467   6.621 -0.2414 -0.2169  0.1267
26025W        W69016  29.644  11.862   3.180  0.0832 -0.1187  0.0631
26026W        W69017   4.381   5.276  24.350  0.0675 -0.0219 -0.2058
26027W        W69018  30.929  17.731  25.116 -0.0681  0.3613  0.2828
26028W        W69019  18.831   7.305  16.171  0.2564 -0.0262  0.0502
26029W        W69020   0.553  12.239   9.840  0.1483  0.1274 -0.0088
26030W        W69021  23.603  11.197  14.673 -0.0392  0.2303 -0.0956
26031W        W69022   2.443   2.618  24.287  0.0802 -0.1092 -0.0880
26032W        W69023   5.178  12.808  10.730  0.0422  0.0348  0.3125
26033W        W69024  11.272   1.603   9.122 -0.1396 -0.1258 -0.3412
26034W        W69025   1.704   8.656  18.877  0.0124 -0.0523  0.2452
26035W        W69026   4.728  30.486  18.536  0.2397  0.0635 -0.0150
26036W        W69027  32.863  33.616   2.981 -0.0719  0.1400  0.0108
26037W        W69028  21.481  11.826   0.376 -0.1575 -0.0868  0.0356
26038W        W69029   0.809   7.582  19.889  0.0019 -0.0599  0.3305
26039W        W69030  17.122  28.749   1.917  0.3302  0.0599  0.0149
26040W        W69031  10.913   9.266  15.358  0.1175  0.1459 -0.5092
26041W        W69032  18.531  13.837  15.802 -0.2471 -0.0577  0.0935
26042W        W69033  20.174  22.841   4.888  0.1488  0.0829  0.2253
26043W        W69034   6.202  12.744  24.637  0.3397 -0.2093  0.4107
26044W        W69035  15.616  31.182  17.078 -0.3228  0.0285  0.0499
26045W        W69036  23.534  19.569  18.243 -0.1472 -0.1841 -0.2507
26046W        W69037   7.806  20.628  24.702 -0.1599 -0.0814 -0.2697
26047W        W69038   7.221  14.078  11.370  0.0069  0.1503 -0.3802
26048W        W69039  32.492   4.219   4.786  0.1092  0.2561  0.0089
26049W        W69040   6.937  14.064  20.469  0.1499 -0.0995 -0.0526
26050W        W69041   6.833   9.014  18.143 -0.0489 -0.2208  0.0899
26051W        W69042   0.461   8.616  24.861  0.2167 -0.1810  0.3094
26052W        W69043  27.311   9.673  24.436  0.2287 -0.0480  0.1306
26053W        W69044   5.723  26.619   1.552  0.1527  0.2194 -0.0958
26054W        W69045  26.725  19.507  22.044  0.0970  0.0196 -0.1148
26055W        W69046   4.973  18.753  27.621 -0.0840 -0.1913 -0.0317
26056W        W69047   8.258   5.236   7.432  0.1029 -0.0711  0.1467
26057W        W69048  12.671  12.923  25.645  0.3715 -0.0785  0.2027
26058W        W69049  29.792  25.077  21.028  0.4290  0.4313 -0.5942
26059W        W69050   5.288  16.474  20.579 -0.0399 -0.3245  0.0408
26060W        W69051  16.386   0.782   5.359  0.0302 -0.3459  0.1575
26061W        W69052  12.264  25.394  20.116  0.0958 -0.1320 -0.2077
26062W        W69053  19.003  21.251  28.162  0.2085 -0.2572  0.2815
26063W        W69054  17.936  15.129  14.233 -0.0342 -0.1048  0.1172
26064W        W69055  18.167  15.408   2.980  0.1090  0.1256  0.0503
26065W        W69056  22.474  32.996  24.502  0.2435  0.2764 -0.4829
26066W        W69057   1.118  22.706   3.363  0.0977  0.1719  0.1594
26067W        W69058  23.016  22.067  13.632  0.0381 -0.1346  0.4835
26068W        W69059  33.267  12.318  16.193  0.1635 -0.3327 -0.1985
26069W        W69060  31.981  19.691   4.912 -0.2742 -0.0377  0.1445
26070W        W69061  26.415  15.601   2.560 -0.0677  0.0895 -0.1954
26071W        W69062   0.314  29.535  23.768  0.4961 -0.1301 -0.0654
26072W        W69063  13.608  11.759  20.761  0.1797  0.0665 -0.1703
26073W        W69064   1.101   2.367  23.970  0.2665 -0.5033  0.3681
26074W        W69065  10.729   5.816  27.614  0.0431  0.3338  0.0880
26075W        W69066   5.516   4.885   5.876 -0.1530 -0.1058  0.0924
26076W        W69067  13.438   7.803   9.436 -0.0885 -0.1782 -0.2457
26077W        W69068  13.490  21.220  25.899  0.1614 -0.1383 -0.0904
26078W        W69069   9.432  17.183  18.583 -0.0650 -0.0396  0.1168
26079W        W69070   4.461  22.951  25.828  0.2097  0.4876  0.0155
26080W        W69071  13.044   4.537  22.744 -0.1775 -0.1664 -0.0658
26081W        W69072  11.700  14.820   1.467  0.2401 -0.3201 -0.3272
26082W        W69073   5.082  33.308  21.384  0.2366  0.1816 -0.0239
26083W        W69074  30.967  31.663  24.434  0.2060 -0.1572 -0.0102
26084W        W69075   2.147  31.168  15.469  0.2172  0.1603 -0.2081
26085W        W69076  26.552  31.460  28.889  0.0069 -0.0071 -0.1949
26086W        W69077   6.663  25.314  14.532  0.0105 -0.0256 -0.0276
26087W        W69078  23.647  20.208  16.504  0.0410  0.3520 -0.2154
26088W        W69079  10.262   8.006  19.765 -0.1191 -0.2008 -0.0912
26089W        W69080   3.221  31.486   0.438 -0.0633  0.0988 -0.0331
26090W        W69081  12.330  14.563  29.122 -0.3029 -0.0472  0.2677
26091W        W69082  22.477  13.677  24.950 -0.0373 -0.0079  0.2420
26092W        W69083  25.068  10.174  19.440  0.0394 -0.1127  0.3068
26093W        W69084  22.642  14.060  23.703  0.2175 -0.0449 -0.0516
26094W        W69085  22.350  14.315   2.544 -0.2090 -0.1525  0.1075
26095W        W69086  11.488  28.342   4.374  0.1763 -0.1780 -0.3051
26096W        W69087   7.502  20.736  20.099  0.2262 -0.1158 -0.1808
26097W        W69088  17.398   5.552  27.068 -0.1155  0.0770  0.0198
26098W        W69089  18.434  32.639  25.496 -0.0841  0.0005 -0.3264
26099W        W69090  29.581   9.770  26.027 -0.0116 -0.1029 -0.3059
26100W        W69091   5.493   2.356  26.402 -0.1369  0.1634 -0.2250
26101W        W69092  31.616  34.121  27.318  0.0960  0.0656  0.0518
26102W        W69093  12.527   9.849   7.591  0.0735 -0.0477  0.1113
26103W        W69094  21.644  12.933  27.678 -0.0062  0.2886  0.2603
26104W        W69095  21.258  13.678   0.742 -0.1245  0.1775  0.1419
26105W        W69096   3.589  10.661  19.862 -0.0343 -0.0892  0.0012
26106W        W69097  14.806   4.766  25.241  0.2062  0.0290  0.1544
26107W        W69098   7.638  32.080   3.759  0.1232  0.3692 -0.0096
26108W        W69099   9.709   7.992   2.632  0.3822 -0.1165 -0.0923
26109W        W69100  31.009   2.861  23.203  0.0195 -0.2431 -0.0329
26110W        W69101   5.055  21.978   8.756  0.2338 -0.3688  0.2099
26111W        W69102   5.040   8.325  29.125 -0.0801 -0.2271  0.1837
26112W        W69103  31.305  11.618  10.489  0.4540  0.0224 -0.0240
26113W        W69104   2.424   7.067   5.676  0.0761  0.2361  0.4144
26114W        W69105  17.080  10.432  18.643 -0.0873 -0.0527  0.0946
26115W        W69106   3.367   4.505  21.938  0.0694 -0.0230  0.1095
26116W        W69107   4.684   5.772  23.003  0.1527  0.0559 -0.0636
26117W        W69108  29.407  14.716   3.239  0.0750  0.1155 -0.3848
26118W        W69109  30.667  18.081  21.424 -0.0988 -0.0346  0.2263
26119W        W69110   5.992  15.357  14.770 -0.1517  0.3647  0.0124
26120W        W69111  29.952  20.040  19.426 -0.0056  0.0557 -0.2947
26121W        W69112  14.110  31.093  20.645 -0.1852 -0.0211 -0.0547
26122W        W69113   9.784  28.071  21.395 -0.0544 -0.3044 -0.0798
26123W        W69114   5.696  12.856   9.436  0.3004  0.0594 -0.3415
26124W        W69115  33.550  17.874  27.546 -0.0850 -0.0626 -0.3419
26125W        W69116   2.906  17.560  20.238  0.1229  0.0784  0.0143
26126W        W69117  34.668  17.904  25.539  0.0968 -0.0707 -0.3687
26127W        W69118  11.703  12.527   0.313 -0.0133  0.2823  0.0422
26128W        W69119  13.967   5.934  27.005  0.1636  0.1499  0.1332
26129W        W69120  24.122  34.116  17.465  0.1116  0.0405  0.1708
26130W        W69121  17.507  15.597  24.509  0.0992 -0.1688 -0.3643
26131W        W69122  34.113  16.753  16.413 -0.1749  0.0796  0.2177
26132W        W69123   4.053  14.611   5.498 -0.3029 -0.2175 -0.1211
26133W        W69124   5.679   7.378  26.328  0.1756  0.0663  0.0235
26134W        W69125   6.004   4.472  23.253 -0.1418 -0.1100  0.1798
26135W        W69126   6.329  18.704  15.967 -0.1446 -0.2761  0.1359
26136W        W69127   3.107  12.139   3.052  0.2404  0.1824 -0.2682
26137W        W69128   1.374  13.997  24.055 -0.2147 -0.2048 -0.2091
26138W        W69129  10.689   1.303   3.240  0.2571  0.0490 -0.0138
26139W        W69130  22.698   7.067  21.967  0.0648 -0.4277 -0.1364
26140W        W69131  32.094  13.380   5.185  0.1749  0.0472 -0.1559
26141W        W69132   3.805  28.483  23.802 -0.3279  0.2194 -0.2937
26142W        W69133  20.173  14.748   5.253  0.0949  0.2301  0.0487
26143W        W69134  11.041  23.748   1.466 -0.1687  0.1081  0.1079
26144W        W69135  11.605  30.221   2.715  0.0110 -0.2342 -0.0287
26145W        W69136   6.030  29.079  23.096  0.2400 -0.1076  0.1618
26146W        W69137  33.813  32.875  27.357 -0.0146 -0.0015 -0.2107
26147W        W69138   8.940  10.279  21.138 -0.0371 -0.1884  0.0133
26148W        W69139  17.702  31.814   0.030  0.2409  0.2873 -0.3933
26149W        W69140   0.914   6.015  20.669 -0.0692 -0.1543 -0.0802
26150W        W69141  18.159   8.397   4.469  0.2694  0.0596  0.0131
26151W        W69142   1.256  19.295  10.953 -0.0956  0.2070  0.0255
26152W        W69143  18.696  31.162   2.511  0.1975 -0.0477  0.0253
26153W        W69144  16.555  26.340  24.297  0.0128  0.2524  0.0340
26154W        W69145  34.530   3.346  21.132  0.1651 -0.2127 -0.0458
26155W        W69146   0.929   3.840  19.795  0.1214 -0.0973 -0.1246
26156W        W69147  32.087  11.463   2.386 -0.1668 -0.0718  0.2254
26157W        W69148  14.858  10.519   3.190  0.1295 -0.0555 -0.0253
26158W        W69149   3.476  14.990  28.327  0.0625 -0.2725 -0.0355
26159W        W69150   0.251   8.857   9.054 -0.0073 -0.2735 -0.1365
26160W        W69151   2.014  30.552   2.884  0.4129  0.3013 -0.2539
26161W        W69152  30.785  27.557   2.732 -0.2769 -0.1003 -0.3008
26162W        W69153  32.856   3.438  15.094  0.1816  0.5548 -0.0197
26163W        W69154  12.143  21.540  16.288  0.0911  0.2456  0.0361
26164W        W69155  12.175  14.600  17.446 -0.2126 -0.2241  0.0031
26165W        W69156  18.971   6.610  10.033  0.2035  0.4064  0.1924
26166W        W69157   9.904  18.435  27.743 -0.1139 -0.1601  0.1313
26167W        W69158  12.984  22.722   0.808  0.1047  0.3639 -0.1279
26168W        W69159  23.950  10.174   5.988  0.3329  0.1421 -0.0683
26169W        W69160  19.641  17.519  13.535  0.1414  0.0917 -0.2095
26170W        W69161   7.413  17.972   6.107 -0.4214  0.1814 -0.0729
26171W        W69162   7.928  19.066   7.122 -0.1135  0.2064  0.3789
26172W        W69163   6.950  19.393   9.598  0.0016 -0.0239  0.2302
26173W        W69164   7.787  31.869   8.544 -0.1135  0.2969  0.0387
26174W        W69165  29.133  33.208  20.051  0.0649 -0.1789  0.2766
26175W        W69166  30.173  20.156  16.477 -0.0639  0.0755 -0.2010
26176W        W69167  16.558  33.169  18.919 -0.1818  0.0739  0.0754
26177W        W69168   6.234   4.308  16.436 -0.2352  0.1963 -0.1012
26178W        W69169   6.808  32.441  23.346  0.1837 -0.1180 -0.2151
26179W        W69170  22.894   9.903  19.123  0.1364  0.0839  0.1070
26180W        W69171  13.482   3.225  25.436  0.0107  0.1980 -0.0930
26181W        W69172  15.316   6.828  16.049  0.0080 -0.1646 -0.0557
26182W        W69173   4.035  25.923  28.515 -0.0201 -0.3293 -0.1681
26183W        W69174  10.004  25.219   2.531  0.3309  0.1416  0.1336
26184W        W69175   8.240  15.286   8.600 -0.0161 -0.0354  0.0129
26185W        W69176  11.217   4.865   7.896 -0.0497 -0.1191 -0.1054
26186W        W69177  23.984  31.053  13.216  0.0420  0.3508 -0.1748
26187W        W69178   9.003  10.347   2.956 -0.3228  0.4077 -0.1294
26188W        W69179  26.178  28.402  19.751 -0.0610 -0.1915  0.0952
26189W        W69180  21.281   2.247   1.319 -0.4544  0.2012  0.2508
26190W        W69181   2.365   2.752   7.973 -0.0181  0.1906 -0.2145
26191W        W69182  15.400  12.726  20.150  0.0278  0.3371  0.0176
26192W        W69183  10.289  16.735  20.504  0.0259  0.2025 -0.0158
26193W        W69184  15.567  10.999  22.168  0.1897  0.0859 -0.0425
26194W        W69185   3.728  12.748  22.802 -0.0190  0.0069 -0.1331
26195W        W69186   3.049  14.896  21.780 -0.1140  0.1396  0.0983
26196W        W69187  12.926   5.721   1.672  0.0094 -0.1585  0.3025
26197W        W69188  29.867   8.109   2.122 -0.4725  0.2281 -0.2542
26198W        W69189  13.226  18.220  26.052  0.4205 -0.1368  0.3482
26199W        W69190  25.775  34.795  26.110 -0.1487  0.1367 -0.0167
26200W        W69191   9.262  17.815   3.557 -0.1149  0.1197  0.2500
26201W        W69192  30.324   3.015   7.040  0.0180  0.0522 -0.2450
26202W        W69193  12.716  34.461  18.554 -0.0693 -0.5078 -0.1409
26203W        W69194  11.896  11.480  16.857  0.1091  0.0795 -0.3049
26204W        W69195  26.979   6.645  23.872  0.1621 -0.5568  0.0367
26205W        W69196  31.725  18.833  21.601 -0.0383 -0.1069  0.2700
26206W        W69197   9.205   3.301   0.085 -0.1233  0.2517 -0.0537
26207W        W69198   6.051  23.584   8.767 -0.1464  0.0105  0.1530
26208W        W69199   2.022   8.073   6.434  0.1976  0.0391 -0.1072
26209W        W69200  21.976  22.954   8.070  0.3026 -0.3096 -0.0612
26210W        W69201  12.114  12.843   0.368 -0.4079  0.2157 -0.0872
26211W        W69202   9.112  14.338  24.230  0.0214 -0.1899  0.1625
26212W        W69203  18.834   2.701   0.031  0.1438 -0.2391 -0.1244
26213W        W69204  33.591  14.629  24.342  0.0240  0.1339 -0.1842
26214W        W69205   7.350  17.322  17.207  0.3584  0.1467  0.2306
26215W        W69206   3.173   2.384  16.365 -0.3914  0.1878  0.0834
26216W        W69207  10.798   9.281  23.093 -0.1736 -0.1516  0.0661
26217W        W69208  21.153  15.703  22.039 -0.1226  0.0666 -0.0927
26218W        W69209  10.708  11.533  20.004 -0.0915  0.4000 -0.1912
26219W        W69210  11.448   4.345  23.627  0.1615  0.2257  0.1915
26220W        W69211   3.651   9.191   8.774 -0.0537  0.3395  0.0661
26221W        W69212  19.605  19.726  16.146 -0.0510  0.0673 -0.0159
26222W        W69213  13.226  18.598  24.369  0.0065 -0.0579  0.0911
26223W        W69214   3.815  11.539  20.648 -0.1232 -0.2260  0.0063
26224W        W69215  32.677   4.546  28.033 -0.0548  0.0651 -0.1862
26225W        W69216  20.711   2.566   5.785  0.2814  0.3015 -0.0939
26226W        W69217  15.219  11.634  28.901 -0.1862 -0.1187 -0.5673
26227W        W69218  22.898  19.255  28.981 -0.3414  0.2431 -0.0252
26228W        W69219   7.753  14.667  11.102  0.1265  0.2500  0.1260
26229W        W69220  31.914   2.790   7.342  0.0295  0.5017  0.0236
26230W        W69221   9.523   2.750   2.315 -0.3129 -0.2867 -0.3006
26231W        W69222   3.089   9.744  20.251 -0.1383 -0.1768 -0.2139
26232W        W69223  12.404   5.790   9.852 -0.0885 -0.0483 -0.1184
26233W        W69224  17.157   4.525  19.724 -0.1599  0.2830  0.1146
26234W        W69225  29.733   9.479   2.194 -0.1703  0.4189 -0.0579
26235W        W69226  21.910  16.723   3.097  0.1163  0.1420 -0.2461
26236W        W69227   8.465  21.203   2.863 -0.0515 -0.2075 -0.2046
26237W        W69228   4.199   1.414  18.954  0.0049 -0.1992  0.2688
26238W        W69229  20.925   5.241   0.400 -0.1614  0.0167 -0.0436
26239W        W69230  15.523  14.267  28.228  0.0428 -0.0781  0.0662
26240W        W69231   4.656  15.659   1.087  0.0327  0.0754 -0.2019
26241W        W69232  23.049  30.614  28.932  0.4153  0.1685 -0.2197
26242W        W69233   0.142  14.395   8.221  0.0697 -0.4122  0.1499
26243W        W69234  30.284  13.381   0.271 -0.1475 -0.2386  0.0671
26244W        W69235   0.089  32.572   9.755  0.0515  0.4481  0.0208
26245W        W69236   8.147  13.465  21.025  0.1640  0.1180  0.0609
26246W        W69237  12.939   3.318  29.205 -0.3179 -0.0075  0.0448
26247W        W69238   9.436  14.097   9.488 -0.3864 -0.1126  0.0322
26248W        W69239   1.590  11.620   6.543 -0.3607  0.5023 -0.1125
26249W        W69240  22.644  14.281   5.454  0.0911  0.2690 -0.0439
26250W        W69241   0.067  15.278  27.084 -0.0969 -0.0446 -0.1333
26251W        W69242  33.482  30.691  20.550  0.2239  0.2157 -0.2045
26252W        W69243   9.394  18.196   8.940 -0.2038 -0.2132  0.0107
26253W        W69244  23.609   1.370  26.787 -0.1178  0.0297 -0.3398
26254W        W69245  30.916  16.568  20.046 -0.0189  0.3253 -0.0347
26255W        W69246  11.378  30.536  24.103  0.0634  0.2709 -0.0094
26256W        W69247  27.334  23.831  29.205  0.0540 -0.2351  0.0344
26257W        W69248  29.632   8.389  22.791 -0.0035 -0.0326 -0.0457
26258W        W69249   1.328  24.358   0.946 -0.2243 -0.1443 -0.0494
26259W        W69250  33.637  11.613   7.916 -0.1996 -0.1812  0.2353
26260W        W69251  15.596   5.308  24.118 -0.1802 -0.0375  0.1090
26261W        W69252   8.192   1.916   7.282 -0.0446 -0.1763 -0.2984
26262W        W69253  16.303  22.971  17.606 -0.1516 -0.1755 -0.0362
26263W        W69254  11.191  20.069   4.942 -0.2544  0.1066 -0.2808
26264W        W69255  28.034  32.876   1.112  0.0092 -0.2964  0.0509
26265W        W69256  21.563  17.577   5.115 -0.0612 -0.2331 -0.0526
26266W        W69257  23.444   5.515   0.041 -0.0368 -0.2653 -0.0640
26267W        W69258  28.118  19.345  24.221 -0.2031 -0.0415 -0.1684
26268W        W69259  13.890  15.513   0.661  0.0864 -0.0755  0.1976
26269W        W69260  10.590  15.244   4.926 -0.0402 -0.0765  0.1661
26270W        W69261  27.353  20.729   1.249  0.1124 -0.2911  0.0235
26271W        W69262   9.960  18.465   3.966 -0.6539 -0.2274 -0.1132
26272W        W69263   2.083  27.438  23.802  0.1317  0.1434  0.0184
26273W        W69264  29.636  20.860  10.157 -0.0785 -0.1053 -0.1111
26274W        W69265   0.372  14.352   2.906  0.0805 -0.1152 -0.2707
26275W        W69266   9.858  21.559   9.880 -0.0750  0.1720  0.0577
26276W        W69267   8.605  11.726   5.410 -0.0392  0.0376 -0.0537
26277W        W69268  11.415  14.726  14.244  0.0576 -0.1260  0.3468
26278W        W69269  33.773   9.510   6.368  0.2045 -0.0264  0.1959
26279W        W69270   0.540   9.635   5.907  0.0834 -0.0414  0.0957
26280W        W69271  32.589   2.396  25.670 -0.0607  0.2183  0.3481
26281W        W69272   8.771  14.268  23.132  0.0490  0.2096  0.2860
26282W        W69273  30.054  11.356  21.731  0.0129 -0.0016  0.2669
26283W        W69274  19.618  31.364  18.685  0.1164  0.0890  0.1909
26284W        W69275  10.589   1.987  25.763  0.2773  0.0581 -0.0905
26285W        W69276  24.785  11.413   0.946 -0.2718 -0.1146  0.1581
26286W        W69277  26.339   6.881  21.005  0.1520 -0.1882 -0.0789
26287W        W69278  15.729  14.115   1.574 -0.0817  0.1031 -0.0062
26288W        W69279  25.338   0.177  20.421 -0.3734  0.1883  0.2983
26289W        W69280  16.500  12.997  27.421  0.0202 -0.2797 -0.0572
26290W        W69281   6.591  20.303   2.850  0.1016 -0.1767  0.0670
26291W        W69282   8.862   2.549   0.540  0.1170  0.0805  0.1233
26292W        W69283   9.817   5.092  29.147  0.1166  0.0168  0.1856
26293W        W69284   8.103   7.686  28.009  0.1238  0.3408  0.5237
26294W        W69285  19.766   4.815   7.246 -0.1730 -0.1757  0.2046
26295W        W69286  11.329  11.752  18.623  0.3462  0.0560  0.0381
26296W        W69287   2.256   7.566  19.272 -0.2900  0.1555  0.1408
26297W        W69288  33.530   1.074  18.239 -0.3980 -0.0988 -0.1390
26298W        W69289  14.448  10.034  18.922 -0.1608  0.0628 -0.1438
26299W        W69290  24.215   2.928  26.266 -0.2990 -0.1800 -0.0464
26300W        W69291  10.708   5.769  25.858  0.0702 -0.2743  0.0136
26301W        W69292   4.852   5.349   5.150 -0.2373 -0.3022 -0.1608
26302W        W69293   2.313   8.103   0.497  0.1116 -0.2073  0.1795
26303W        W69294  12.901  29.525   0.222  0.2703  0.1753 -0.2087
26304W        W69295   0.317   6.350   5.345  0.0300 -0.0187  0.0087
26305W        W69296   8.091  18.778  25.989 -0.0317  0.0063  0.0475
26306W        W69297  32.440  31.124  23.813  0.1411  0.0228 -0.0872
26307W        W69298  13.760  13.997  27.465 -0.0369 -0.0756  0.5244
26308W        W69299  32.841  12.850  18.640 -0.1208 -0.0384  0.0643
26309W        W69300  15.349   5.905  22.440  0.0318 -0.0304  0.2300
26310W        W69301   9.411  20.926   3.459 -0.1173 -0.1682  0.2285
26311W        W69302   6.031   9.702  26.727 -0.2509  0.3251  0.0662
26312W        W69303  13.623  31.781   5.134  0.2996  0.1012 -0.0791
26313W        W69304   7.534  24.574   6.575 -0.2046 -0.1514 -0.2712
26314W        W69305  15.596  21.449  21.508 -0.0458  0.0456 -0.1187
26315W        W69306  19.369  24.989  24.181 -0.2856 -0.0747  0.1442
26316W        W69307   1.061  21.959  25.275 -0.2586 -0.3183 -0.1382
26317W        W69308  31.202  26.875  25.581 -0.0182  0.0270  0.2168
26318W        W69309   1.110  19.360  24.508  0.1223 -0.0071 -0.0733
26319W        W69310   1.623   5.423  28.479  0.1978 -0.0544  0.1748
26320W        W69311   8.844   3.779   8.473  0.4053  0.1736  0.4596
26321W        W69312  21.445  16.467  13.001 -0.0622 -0.0434 -0.3684
26322W        W69313  29.764  19.127   2.615  0.1311  0.0286  0.0565
26323W        W69314   5.335  16.697  22.277 -0.0494  0.0030 -0.3873
26324W        W69315   5.633  25.827  14.436  0.4571  0.1497  0.0172
26325W        W69316  23.866   6.218  24.986 -0.0175 -0.4140  0.0306
26326W        W69317  11.874  13.033   6.020 -0.2933  0.0535 -0.2355
26327W        W69318  11.708  18.111  21.377 -0.0255 -0.0053 -0.4363
26328W        W69319   5.485   0.527  22.106 -0.1291  0.2077  0.2738
26329W        W69320   3.988  18.458   2.722  0.0511  0.1361  0.1257
26330W        W69321   1.846  17.819  26.278  0.1307  0.1041 -0.0771
26331W        W69322  30.955   9.578  24.002  0.2130 -0.0007  0.2489
26332W        W69323   6.427  13.758  20.710 -0.0482  0.0471 -0.0885
26333W        W69324   6.368  12.780  19.515  0.0780 -0.1666  0.0474
26334W        W69325  21.369  13.980  27.197 -0.0364  0.3948 -0.2816
26335W        W69326  15.186   8.671   8.669  0.2155  0.2961  0.0566
26336W        W69327   8.956  32.628   7.972 -0.0710 -0.0161 -0.0009
26337W        W69328  33.115  27.638  28.359 -0.3418 -0.4219 -0.2691
26338W        W69329  23.063  33.630   4.174 -0.1380 -0.0444  0.0004
26339W        W69330   9.563  19.665  22.388 -0.0698 -0.0661 -0.1588
26340W        W69331  11.275  28.541   5.924 -0.1301  0.0298 -0.0620
26341W        W69332  28.149  10.128  22.806 -0.0862  0.1243  0.2576
26342W        W69333  17.297  12.613  20.419 -0.0919 -0.1046  0.0455
26343W        W69334  11.519  12.993   0.517  0.1909  0.0469 -0.2668
26344W        W69335  10.222  23.962  24.875 -0.2722  0.0969 -0.1951
26345W        W69336  14.027   0.005  25.362 -0.1836 -0.2043  0.0298
26346W        W69337  18.388  10.069   8.391  0.0372 -0.1019  0.2519
26347W        W69338  15.684  15.197  26.060  0.0394  0.0766  0.0317
26348W        W69339  15.979  13.979   6.168  0.0965  0.2113  0.0581
26349W        W69340  16.340  11.813   3.032  0.0519  0.3895 -0.5172
26350W        W69341   0.442   0.629  28.959  0.0072 -0.3066  0.2992
26351W        W69342  25.242   7.509   5.799 -0.1692 -0.0035 -0.0981
26352W        W69343  25.633  25.925   1.248  0.0828  0.1976  0.1183
26353W        W69344  13.947  13.381   4.616  0.0900  0.3143  0.0942
26354W        W69345  23.927  10.006   1.450  0.7624  0.1097 -0.3187
26355W        W69346   5.040   9.359  28.340  0.1753  0.1544 -0.4022
26356W        W69347  31.210   4.204   2.142  0.1178  0.1056 -0.1850
26357W        W69348  34.672  15.300  25.817 -0.0076  0.0270  0.0486
26358W        W69349  30.578  17.560   0.867 -0.0796  0.1253  0.0569
26359W        W69350   3.876  18.162   1.983 -0.0113 -0.2159 -0.1870
26360W        W69351   4.812   6.770   3.391 -0.1500  0.2489 -0.0510
26361W        W69352   1.528  21.531  18.671  0.1605 -0.5806 -0.0344
26362W        W69353  21.057  24.231  25.517  0.5304  0.2135  0.1397
26363W        W69354   8.427   0.869   4.206  0.1425 -0.2395  0.0281
26364W        W69355  18.789  11.673  22.079  0.0524  0.1991  0.1872
26365W        W69356  10.238  32.464   0.625 -0.2374  0.1623 -0.2435
26366W        W69357   4.110  25.021  24.036  0.1454  0.4420 -0.0092
26367W        W69358  22.253  12.380  19.766 -0.0090  0.2119 -0.4247
26368W        W69359  27.081   5.369  16.348 -0.0300  0.1046 -0.1334
26369W        W69360  18.747   1.093   4.253  0.0319  0.4024  0.4620
26370W        W69361   2.949   9.542  22.570  0.1342 -0.0203  0.0302
26371W        W69362  30.772  13.355   3.858 -0.1461  0.1763  0.1112
26372W        W69363  31.356   2.857  20.215 -0.1587  0.3446 -0.0482
26373W        W69364  30.484  17.080  26.860  0.1961 -0.1574  0.1966
26374W        W69365  10.322   0.054   7.418 -0.1345  0.0994 -0.0958
26375W        W69366  11.160  12.857  20.179  0.0026  0.1741  0.0166
26376W        W69367  25.913  16.638   3.857  0.0362 -0.2176 -0.0867
26377W        W69368  15.630  19.635  24.830 -0.2868  0.2834  0.2638
26378W        W69369  14.358  14.498  24.197  0.0141 -0.0043 -0.1322
26379W        W69370   2.585  15.739  20.143 -0.1871  0.0528 -0.0121
26380W        W69371  11.205   0.055  20.991  0.1756 -0.0576 -0.2563
26381W        W69372  30.169  13.225  19.371 -0.2573 -0.0867 -0.2186
26382W        W69373   5.262   9.513  27.335 -0.1738  0.0626  0.0874
26383W        W69374  31.104  11.457  27.204  0.0049 -0.1407 -0.1943
26384W        W69375  17.576  11.711   7.338  0.2860 -0.1739  0.4755
26385W        W69376  15.839   8.638   8.111 -0.0686  0.0949  0.1741
26386W        W69377  32.309   4.236  21.967 -0.1966 -0.0870  0.0285
26387W        W69378  33.048  24.281   9.113 -0.0365 -0.0873  0.0180
26388W        W69379  27.737  25.110   1.673 -0.1704 -0.3198  0.1818
26389W        W69380  17.971   4.277  23.105 -0.0756 -0.0359  0.2478
26390W        W69381  15.112  20.693  20.137 -0.1439 -0.0550 -0.1966
26391W        W69382  11.597   2.002   4.837  0.1400  0.0860  0.2943
26392W        W69383  13.781  16.355  20.148  0.0919  0.1126 -0.1617
26393W        W69384  16.887   9.649   9.211  0.2714  0.0497  0.2109
26394W        W69385  33.764  10.691  10.408 -0.0246 -0.0852  0.0291
26395W        W69386  16.798   6.217  27.910 -0.0907  0.2915  0.0896
26396W        W69387  15.092   6.448  24.194 -0.1112  0.0020 -0.0309
26397W        W69388  26.785   7.340   4.462  0.0383 -0.1658  0.0118
26398W        W69389  13.301   6.568  23.827 -0.2356  0.1821  0.3441
26399W        W69390   4.873  13.815  24.813  0.0304 -0.1332  0.1322
26400W        W69391  28.210   6.375  21.635 -0.1283 -0.0920 -0.0353
26401W        W69392  23.340  18.832  24.181 -0.1400  0.2015 -0.1487
26402W        W69393   5.142  20.644  26.570 -0.1393  0.0721  0.0808
26403W        W69394  32.823  24.964   7.921 -0.1892 -0.1259 -0.0303
26404W        W69395   5.741  18.081   7.470  0.0722 -0.0566 -0.3426
26405W        W69396  31.882  10.854  29.036 -0.2444  0.1045 -0.1480
26406W        W69397   9.367   8.344  26.046 -0.1830 -0.2396  0.0289
26407W        W69398   7.857  15.644   3.260  0.1538  0.0288  0.0568
26408W        W69399  33.936  20.690  22.254 -0.3820  0.0460  0.1617
26409W        W69400   2.945  13.732   9.509 -0.2271  0.0191  0.0510
26410W        W69401  13.725  26.818  25.352  0.1145 -0.3062 -0.1412
26411W        W69402   9.469  14.069  10.955  0.1469  0.1363 -0.1339
26412W        W69403  26.490   7.446  26.701 -0.2006 -0.2000  0.0688
26413W        W69404  14.168   9.254  19.549 -0.3135 -0.0626  0.3161
26414W        W69405  12.182   7.164  28.218 -0.3915  0.0412  0.1743
26415W        W69406  28.417  29.952  22.104 -0.0556 -0.1529 -0.1698
26416W        W69407  30.893  33.674   2.734 -0.2199  0.0153  0.1019
26417W        W69408   2.676   6.528   4.349  0.0843 -0.0595 -0.0518
26418W        W69409  18.586  17.619  27.600  0.1023 -0.2194  0.0468
26419W        W69410  17.281  14.307  21.907 -0.1331  0.0871  0.3785
26420W        W69411  26.751  12.823  20.967  0.0130  0.0421 -0.0962
26421W        W69412  32.619  11.402   3.091  0.0100  0.1625 -0.1510
26422W        W69413   6.937  33.515  14.711  0.0272 -0.1167  0.0572
26423W        W69414  29.656  14.731  28.982  0.1070  0.0363 -0.0664
26424W        W69415  13.679  22.394  22.296 -0.1833 -0.0403 -0.2201
26425W        W69416  15.604   6.618   7.548  0.1463 -0.0048 -0.3662
26426W        W69417  32.250   0.437  26.803  0.0442  0.0895  0.4224
26427W        W69418  19.289  21.532   3.314 -0.0865  0.1323 -0.1307
26428W        W69419   7.316   6.917  26.129  0.2341  0.3811 -0.1034
26429W        W69420   0.055  32.046  24.424  0.0505  0.1899 -0.1566
26430W        W69421  29.139  32.943   7.975  0.1095 -0.2495 -0.1920
26431W        W69422  30.013   9.836   6.795  0.0195  0.1194 -0.4119
26432W        W69423   5.528   3.143  18.253  0.1529 -0.3056 -0.2534
26433W        W69424  32.767   6.018  23.822  0.0887  0.1172  0.0771
26434W        W69425  17.089  20.617  21.499 -0.4473 -0.1602  0.0064
26435W        W69426  12.817  10.070  21.100  0.1815 -0.1381 -0.0941
26436W        W69427   4.848   7.266   3.536  0.0396  0.1323 -0.1642
26437W        W69428  26.897   9.837  29.188  0.2225 -0.0465  0.0222
26438W        W69429   9.697  10.072  28.215 -0.0094 -0.3179  0.0334
26439W        W69430  28.385  16.352  19.115 -0.0317  0.1290  0.3901
26440W        W69431   4.573   2.116  25.848  0.4027 -0.0255 -0.1270
26441W        W69432  32.489   0.369   6.897 -0.0500 -0.0735  0.0314
26442W        W69433  17.067  10.298  27.824 -0.4047 -0.1646 -0.1120
26443W        W69434   4.716   2.973   4.096 -0.0128  0.1766 -0.0429
26444W        W69435   1.007   5.805   4.993 -0.0308  0.1959 -0.0167
26445W        W69436  13.175   7.830   7.250  0.1515 -0.1806 -0.1792
26446W        W69437  20.567  15.418  27.998  0.2528 -0.1075  0.2673
26447W        W69438  13.353  28.809  14.680  0.3453 -0.0579  0.4187
26448W        W69439  10.205   3.715   4.671 -0.2916  0.0633 -0.1741
26449W        W69440   7.621   6.426   6.879  0.4165  0.2105 -0.0300
26450W        W69441  22.536  26.970   1.754  0.1554  0.0837  0.0456
26451W        W69442   8.737  29.355  25.403 -0.0699  0.2368 -0.1210
26452W        W69443   0.626  20.477  16.949 -0.1832 -0.0476 -0.0290
26453W        W69444  11.597  23.736   0.404  0.1880  0.4187  0.1141
26454W        W69445  11.178   3.800  18.122  0.3849 -0.0112 -0.1082
26455W        W69446   2.515  34.536  16.527 -0.1633  0.3672 -0.1565
26456W        W69447  29.847  10.264  27.014  0.0306 -0.0912  0.1338
26457W        W69448   4.062  20.995  23.095  0.1367 -0.0939  0.0200
26458W        W69449   4.146  19.725  16.450  0.2018 -0.0124 -0.5040
26459W        W69450  15.471  15.710  14.466 -0.0058  0.0459  0.0169
26460W        W69451  12.573  16.321  18.023 -0.1229 -0.3397  0.0417
26461W        W69452   5.968  29.819  16.704 -0.0372 -0.0151  0.0196
26462W        W69453  21.735  26.611  15.656 -0.2110  0.1236  0.0358
26463W        W69454  33.858   3.089   3.281  0.0663 -0.0100 -0.1258
26464W        W69455  21.887  16.152  24.925  0.0494  0.0912 -0.1254
26465W        W69456   4.738  13.311  23.394 -0.0394  0.1769 -0.0796
26466W        W69457  10.350   3.815  15.387 -0.0929 -0.3755  0.1961
26467W        W69458  15.081  12.552  19.259  0.1620 -0.1015  0.0907
26468W        W69459  29.697  13.685  24.363 -0.4150 -0.2422 -0.1646
26469W        W69460  31.124   4.331  23.425 -0.1007  0.2115 -0.1504
26470W        W69461   9.139   7.646  28.327  0.1701  0.3819 -0.0428
26471W        W69462  28.444   8.889  28.605 -0.1933  0.0182 -0.2028
26472W        W69463  33.367  30.375  17.855 -0.2069 -0.1199  0.4690
26473W        W69464  13.351   5.075  17.987  0.2630  0.0899  0.1885
26474W        W69465   1.579  24.731   2.081  0.0402 -0.0929  0.2803
26475W        W69466   2.015  22.641  24.887 -0.1752  0.0852  0.1332
26476W        W69467   6.728   8.731  21.379 -0.0057  0.2224 -0.3011
26477W        W69468  30.628   1.248  19.859  0.1628 -0.1779 -0.1237
26478W        W69469   4.813  10.710  20.203 -0.2392 -0.1062 -0.1576
26479W        W69470  21.925   8.740   5.870  0.1007  0.0467 -0.4252
26480W        W69471  10.894  11.429  21.884  0.1643  0.0169  0.2334
26481W        W69472   4.767  13.163  22.118  0.3530  0.1392 -0.1900
26482W        W69473  22.591  15.289  25.299  0.0052  0.1179  0.2440
26483W        W69474  25.440   6.012   1.740 -0.2160 -0.1690  0.0223
26484W        W69475  32.068  30.390  22.520 -0.3120  0.0269  0.1060
26485W        W69476  10.759   3.762  20.567  0.0328 -0.0317 -0.1007
26486W        W69477   8.768  23.361  14.645 -0.1299  0.1009 -0.0611
26487W        W69478  21.468  30.169  21.785 -0.1121  0.0795 -0.2302
26488W        W69479  16.231  17.666  22.312 -0.1161  0.0920  0.1359
26489W        W69480  13.015  10.115  16.480 -0.1043  0.1739  0.2803
26490W        W69481   9.768  19.748  16.091  0.4626  0.0234  0.1478
26491W        W69482  29.353  21.229  16.880 -0.0839  0.1064 -0.1154
26492W        W69483  11.677  33.176  18.900 -0.0605  0.2093 -0.0829
26493W        W69484  17.057  29.435  21.075 -0.2124  0.3544  0.2244
26494W        W69485   1.682  32.225  23.729 -0.1922  0.1025  0.2346
26495W        W69486  34.499  22.184  19.018  0.0027  0.1395 -0.1058
26496W        W69487   8.975  13.245  17.869  0.2144 -0.1075  0.0209
26497W        W69488  30.976  23.525  17.916  0.3696 -0.2153  0.2853
26498W        W69489  13.622  17.197  13.896  0.0284  0.2009  0.0546
26499W        W69490  23.863  14.812   2.536 -0.1766 -0.3751 -0.0821
26500W        W69491   1.803   9.888   2.791 -0.2003  0.0952 -0.0357
26501W        W69492  17.534  16.888  14.443 -0.2196  0.3091 -0.3773
26502W        W69493   7.729  18.958  23.044  0.1599  0.1192  0.4720
26503W        W69494  10.165   7.237   5.352  0.0874  0.0575  0.1690
26504W        W69495  10.396  20.588   0.147  0.2085 -0.2564  0.2443
26505W        W69496  33.556  23.793  27.393  0.0691 -0.1267  0.4425
26506W        W69497  11.569   6.844  25.990  0.1815 -0.0434  0.0094
26507W        W69498   9.487   4.310  20.660 -0.1085  0.4945  0.3158
26508W        W69499   7.934  14.592  29.221 -0.0297 -0.0085 -0.1190
26509W        W69500  21.625   7.886  22.647 -0.0085 -0.1398  0.1928
26510W        W69501  34.578  16.785  19.005  0.0118  0.0851  0.3735
26511W        W69502  27.105  21.656   1.425 -0.1198  0.0279  0.3228
26512W        W69503  14.373  21.210  14.267 -0.1407  0.1653 -0.0711
26513W        W69504   2.491  17.085  19.420  0.3326 -0.0286 -0.0815
26514W        W69505  34.079   7.141  15.878 -0.0843  0.0421 -0.1683
26515W        W69506   9.489  13.222  15.341 -0.2427 -0.0883  0.1981
26516W        W69507   1.502  20.337  26.138  0.3227 -0.5055 -0.0461
26517W        W69508  28.759  10.367  22.105  0.0174  0.0342 -0.2212
26518W        W69509  14.007  19.918  13.986 -0.0259 -0.0428 -0.1621
26519W        W69510  11.968  19.213  14.847 -0.2286  0.0384  0.2221
26520W        W69511  17.021  13.332  19.674 -0.0217 -0.0269 -0.1258
26521W        W69512  10.113  14.590  23.087 -0.1402 -0.1250 -0.1549
26522W        W69513  26.914  28.709  12.694  0.0641  0.2026 -0.1626
26523W        W69514  33.366   0.899  22.675  0.3047  0.2633  0.0883
26524W        W69515   3.565  14.236  18.972  0.1763 -0.1786  0.0877
26525W        W69516  23.907  20.859  26.547 -0.0097  0.0658 -0.0914
26526W        W69517   7.282   9.944  19.969  0.0339 -0.1353 -0.1749
26527W        W69518  34.636  21.573  17.585 -0.3301 -0.1779 -0.1323
26528W        W69519   7.455  13.182  18.477 -0.2669  0.1614 -0.0133
26529W        W69520  13.084  25.718  15.926  0.0197  0.5300 -0.1955
26530W        W69521  26.894   7.667  22.166  0.3124  0.2750  0.3459
26531W        W69522   4.353   8.152  17.161 -0.0492 -0.1337  0.0413
26532W        W69523   7.856  20.919  28.104  0.0285  0.0097 -0.0710
26533W        W69524   3.918  23.870  16.396  0.2084 -0.0269  0.0010
26534W        W69525   3.667  20.298   5.076 -0.0821 -0.2469 -0.2331
26535W        W69526   7.142   0.083   0.972  0.0601 -0.1274 -0.1343
26536W        W69527   2.939  14.543  21.392  0.0801 -0.3208 -0.1375
26537W        W69528  24.060  20.838  29.174 -0.1084 -0.0823 -0.0974
26538W        W69529  12.128  20.655  14.240  0.1461 -0.4534 -0.1119
26539W        W69530  13.512   5.721  18.711  0.2005  0.2807 -0.1092
26540W        W69531  30.169   9.907  21.812  0.2215 -0.1048  0.1957
26541W        W69532   6.125  30.264  22.221  0.2336 -0.0714 -0.0826
26542W        W69533   2.768  11.960  19.615  0.1347 -0.2138 -0.2660
26543W        W69534  10.074  27.086  22.308 -0.0879 -0.2361 -0.2902
26544W        W69535   2.051  15.740  16.355 -0.0504  0.1535  0.1308
26545W        W69536  20.835  21.759  24.860  0.1144  0.2532  0.0243
26546W        W69537  11.854  24.177  16.915 -0.0588  0.3194 -0.1454
26547W        W69538   4.888   7.316  22.747  0.3008  0.1639 -0.0815
26548W        W69539   9.298  21.962  24.114  0.0336  0.0531  0.0072
26549W        W69540  33.706  33.979  14.086 -0.1463 -0.0814  0.3211
26550W        W69541  13.570  26.499  14.861 -0.1739  0.0448 -0.2713
26551W        W69542   2.312   5.505  24.270 -0.1175 -0.4383 -0.2390
26552W        W69543  16.599   1.161  19.117 -0.0012  0.1419 -0.1990
26553W        W69544  17.573  30.023  18.012 -0.0317  0.1858 -0.0775
26554W        W69545   2.749  30.900  19.955  0.2118  0.0361  0.0051
26555W        W69546  10.887   1.662  17.762 -0.1089 -0.2663 -0.0873
26556W        W69547   1.692  17.892  18.507 -0.1457 -0.0315  0.1015
26557W        W69548  21.050  23.921   8.537 -0.0055  0.0403 -0.2111
26558W        W69549  31.229  17.035  14.896  0.0802 -0.0108 -0.0686
26559W        W69550  32.655   4.035  20.036  0.0186 -0.1027  0.0930
26560W        W69551   6.792  13.210  17.905  0.0375  0.0511 -0.1579
26561W        W69552   8.186  17.398  19.736 -0.4540 -0.1575 -0.0073
26562W        W69553  13.323  29.977   1.647  0.0425  0.0864  0.2351
26563W        W69554  14.662   4.266  26.640 -0.0043 -0.1040  0.1020
26564W        W69555  14.381  25.612  20.533 -0.0825  0.0835 -0.0865
26565W        W69556  19.954   0.477  25.563 -0.3284  0.1218  0.2305
26566W        W69557  27.905  22.191  15.455  0.1362  0.1111 -0.3207
26567W        W69558  11.454   4.682  22.111 -0.0963 -0.1256 -0.1283
26568W        W69559   5.675  23.381   2.499  0.1923 -0.1135 -0.1491
26569W        W69560  31.924  12.112  20.229  0.2027  0.1863 -0.0373
26570W        W69561   7.097  17.743  17.217  0.0368 -0.1063  0.1852
26571W        W69562   7.493  11.242  20.235  0.2236  0.0803  0.0958
26572W        W69563   9.764  17.901  19.045 -0.1729 -0.0259  0.0019
26573W        W69564   8.703  18.896  27.772  0.1078 -0.0038 -0.0927
26574W        W69565  12.812  18.751  13.479 -0.1134  0.2426  0.0770
26575W        W69566   7.827  19.469   3.306  0.0942 -0.2790 -0.0637
26576W        W69567  29.436  29.579  19.209 -0.1106 -0.0284  0.2442
26577W        W69568  14.504  11.038  14.298 -0.5469 -0.0762 -0.0445
26578W        W69569   9.853   9.448  19.835  0.1963  0.0086 -0.2572
26579W        W69570   9.058   8.062  29.169 -0.1217  0.1203 -0.1008
26580W        W69571  10.159  11.607   3.525  0.1727  0.0099  0.0048
26581W        W69572  17.073  20.887  21.903 -0.0068  0.1551  0.0279
26582W        W69573  12.559   5.733  16.975 -0.1739  0.4180  0.2207
26583W        W69574  11.242  33.430  19.122 -0.2114  0.0966 -0.0183
26584W        W69575  29.549  21.804  19.188  0.1515  0.0788 -0.1061
26585W        W69576  15.457   6.116  18.304 -0.0578 -0.0459  0.0327
26586W        W69577  21.968  26.305  21.295 -0.3126 -0.2684  0.1558
26587W        W69578  10.511  17.667  23.912 -0.0874 -0.1539  0.1066
26588W        W69579  11.000  25.700  24.385  0.0493 -0.1083 -0.0818
26589W        W69580   0.908  16.342   7.306 -0.1701  0.1148  0.1950
26590W        W69581  16.432   7.613   5.754 -0.1193  0.2200 -0.3589
26591W        W69582   5.085  12.063  19.689  0.1278  0.1081  0.0675
26592W        W69583  16.368   9.853  16.461 -0.0995  0.2346  0.0565
26593W        W69584  21.985   2.102  22.491  0.0851 -0.0017  0.0649
26594W        W69585   3.167  22.226  14.496 -0.0537  0.1783 -0.1564
26595W        W69586  15.286  12.695  22.016 -0.1281 -0.1052  0.3249
26596W        W69587  10.149  17.770   0.800  0.0968  0.0903  0.0117
26597W        W69588  33.475  22.186  19.506  0.0577 -0.3587  0.2736
26598W        W69589  34.388  11.236  21.707  0.1128 -0.2764  0.2803
26599W        W69590   4.334  24.930  19.375  0.0421 -0.1776  0.3252
26600W        W69591  10.393  14.727  24.047  0.1059 -0.1800  0.0353
26601W        W69592  28.250   8.370  19.551 -0.1292 -0.4001 -0.1043
26602W        W69593   4.472  18.403  21.001 -0.1046 -0.0693  0.3023
26603W        W69594  26.542  29.257  28.487 -0.1689  0.1080 -0.0690
26604W        W69595   0.302   2.278  14.899 -0.0238 -0.1186  0.1089
26605W        W69596  30.830  14.676  26.653 -0.0512  0.5175  0.1073
26606W        W69597   6.957  13.472  22.341  0.0162  0.0318  0.0401
26607W        W69598  18.282   9.378  26.441 -0.0885 -0.0298  0.0203
26608W        W69599  11.497   6.275  19.852 -0.0400 -0.1273  0.2305
26609W        W69600  12.038  30.783  16.092  0.0073  0.0089  0.2992
26610W        W69601   5.629  14.068   8.149  0.0444 -0.0652 -0.2254
26611W        W69602   3.244   7.943  15.040  0.0511 -0.1244  0.2894
26612W        W69603   3.660  23.497  25.950 -0.3339 -0.0426 -0.3780
26613W        W69604  17.607  14.339  14.968  0.0754 -0.0834 -0.2010
26614W        W69605  23.810   8.307  25.242  0.0093 -0.1143 -0.2588
26615W        W69606   7.631  22.315  16.638 -0.1994  0.0193  0.1738
26616W        W69607  18.100  25.581  19.913 -0.0675  0.1634  0.2853
26617W        W69608  13.238  15.968  28.580  0.0991 -0.1417 -0.0044
26618W        W69609  15.450  27.815  27.079 -0.3920 -0.1562 -0.0516
26619W        W69610  23.265  11.346  16.431 -0.1129  0.2917  0.3139
26620W        W69611  24.212  22.893  16.061 -0.0213 -0.0669 -0.3488
26621W        W69612   4.408  13.312  20.373  0.1086 -0.1520  0.0981
26622W        W69613   7.833  16.765  20.446 -0.0961 -0.1540 -0.1672
26623W        W69614  33.527  11.333  19.855 -0.1610 -0.1376 -0.0448
26624W        W69615  10.820  15.259  23.086  0.2110  0.0132 -0.0724
26625W        W69616   2.138  15.664  21.391  0.2147 -0.4319  0.1260
26626W        W69617  11.288   0.376  17.093  0.0429  0.0660 -0.0518
26627W        W69618   2.585  19.524  26.745 -0.2016  0.0542 -0.0222
26628W        W69619  30.463  17.504  28.844  0.0962 -0.2216  0.4385
26629W        W69620  30.822  13.640  14.293 -0.1227  0.2748 -0.1957
26630W        W69621  19.070  24.906  16.691  0.0823  0.0713  0.0524
26631W        W69622  13.544  10.732  28.181 -0.1972  0.3154 -0.1428
26632W        W69623   2.247  27.324  14.813 -0.4234 -0.0614 -0.0574
26633W        W69624   7.763  10.293  18.127  0.0745  0.2865 -0.2132
26634W        W69625  31.163  16.052  21.188 -0.1550 -0.3382  0.0296
26635W        W69626  15.541  25.977  27.369 -0.0328  0.2522  0.1287
26636W        W69627   1.048  22.571   7.741  0.2821  0.1664 -0.2276
26637W        W69628  15.230  30.375  24.870 -0.1202 -0.0112 -0.2436
26638W        W69629   5.213  15.975   8.243  0.0514 -0.3501  0.1704
26639W        W69630  34.052  15.545  29.013  0.1384 -0.3821  0.0525
26640W        W69631  28.540  19.194  24.792 -0.0112  0.1033  0.0624
26641W        W69632  23.065   4.289  25.820  0.0324 -0.0173 -0.1213
26642W        W69633   6.582   2.227  17.060 -0.1597  0.2729  0.3540
26643W        W69634   2.312  20.267  20.552 -0.0091 -0.1494  0.0067
26644W        W69635  32.768  33.072  24.388  0.2798  0.0958  0.0905
26645W        W69636  30.475  29.120  21.557  0.0082  0.0554  0.1341
26646W        W69637   8.527  31.994   5.132 -0.0740 -0.0146 -0.0218
26647W        W69638   1.992  21.668  24.096  0.2615 -0.0512 -0.0996
26648W        W69639  22.461   5.566  25.498  0.1389 -0.0558  0.1716
26649W        W69640  31.046  26.423  28.076 -0.0775  0.0927 -0.2236
26650W        W69641   0.947  25.686  21.881 -0.0291 -0.0051  0.0581
26651W        W69642   2.896   3.948  21.269  0.0420  0.1486  0.0283
26652W        W69643   9.580  27.041  14.643  0.2425 -0.2347  0.1536
26653W        W69644  16.417   5.409   1.427  0.0041  0.0294 -0.2969
26654W        W69645  26.926  33.007  28.526 -0.0810  0.0062  0.0735
26655W        W69646   7.288   1.260  21.728 -0.1653  0.1972  0.3170
26656W        W69647  24.903  32.014  16.100 -0.0195 -0.0563  0.2117
26657W        W69648   0.707  32.088  23.565  0.0035 -0.1732 -0.1025
26658W        W69649  25.154   2.833  28.148  0.1431  0.1298  0.4250
26659W        W69650  12.713   8.750  16.908 -0.3107  0.0577 -0.2652
26660W        W69651  27.388  18.448  21.078 -0.0752  0.1043  0.1144
26661W        W69652  33.346  11.463  17.224 -0.0204 -0.3168  0.3880
26662W        W69653   1.720  22.793  26.435  0.3648  0.2054  0.1882
26663W        W69654   2.974  14.681  18.719 -0.2687  0.5626  0.1834
26664W        W69655  11.773   1.277  25.378 -0.2335 -0.0480  0.0573
26665W        W69656   3.863  14.610  20.871  0.0811  0.1001 -0.1181
26666W        W69657  10.848   6.440   0.518  0.0227  0.0130 -0.0370
26667W        W69658  19.815  24.491  21.613  0.0620  0.2081  0.0307
26668W        W69659  12.435  17.477  22.828 -0.2039 -0.4789  0.0068
26669W        W69660  29.863   3.267  16.132 -0.0561 -0.0521  0.3374
26670W        W69661  31.816  11.262  16.813 -0.1506 -0.0446 -0.0050
26671W        W69662  19.240  21.502  15.559  0.1016 -0.0156 -0.0524
26672W        W69663   0.422  18.201   5.152  0.1102 -0.0601  0.0977
26673W        W69664   6.898   1.281  19.630  0.2218 -0.1437 -0.0639
26674W        W69665   4.850  20.410  20.706  0.0096  0.0508  0.0370
26675W        W69666  10.885  28.454  14.792 -0.1012 -0.2088  0.0648
26676W        W69667  29.482  11.746  19.113  0.1378  0.0345  0.0326
26677W        W69668  30.780  17.064  24.474 -0.2947 -0.0803 -0.0426
26678W        W69669  10.734   9.373   1.687  0.1493 -0.3036 -0.2250
26679W        W69670  31.128  33.465  28.033  0.0872  0.0558 -0.0118
26680W        W69671   1.761  30.427  27.332 -0.1518  0.0050 -0.2171
26681W        W69672  14.411  10.290  15.969  0.2207  0.0591  0.1437
26682W        W69673  33.303  34.109  17.506 -0.0393  0.0969 -0.0901
26683W        W69674  14.841  31.587  21.269  0.1121  0.6322  0.1160
26684W        W69675   4.214  10.357  24.855 -0.2341 -0.3541  0.0280
26685W        W69676  32.057  14.838   1.366  0.3182 -0.1347 -0.1924
26686W        W69677  15.058  27.155  25.205 -0.3505 -0.3558  0.1244
26687W        W69678  13.924   6.142  23.715 -0.1041 -0.2086 -0.4257
26688W        W69679  30.290  29.329  22.065  0.6973 -0.4176  0.1949
26689W        W69680  28.472  24.933  25.347 -0.0004 -0.0865 -0.0818
26690W        W69681  34.467  28.620  24.301 -0.2900 -0.5882  0.2317
26691W        W69682  33.284  21.048  16.807  0.1038 -0.1431  0.0900
26692W        W69683  27.002  17.582  24.841  0.0169 -0.0162  0.0006
26693W        W69684  31.544   9.360  19.011 -0.2380 -0.2327  0.2050
26694W        W69685   1.139  16.687  18.994 -0.0086  0.2270 -0.0122
26695W        W69686   1.956  18.458  17.636  0.2762 -0.0244 -0.1922
26696W        W69687   0.928   9.343  24.796  0.1995  0.0622 -0.2265
26697W        W69688   2.050   6.520  20.654  0.1436  0.0586  0.0960
26698W        W69689  32.177  24.005  14.129 -0.2447 -0.0877  0.0295
26699W        W69690  14.019  15.809  13.649  0.2211  0.2187 -0.0723
26700W        W69691  33.006  21.045  15.788 -0.0335 -0.0171  0.0408
26701W        W69692  34.623  16.751  16.338 -0.3903  0.1412 -0.0803
26702W        W69693   9.153  26.738  15.635  0.3930 -0.1518 -0.1162
26703W        W69694  34.644   1.005   2.052 -0.0271  0.0600  0.4060
26704W        W69695  13.864  27.806   0.054 -0.0996  0.1902 -0.0883
26705W        W69696  10.176  24.213  21.313  0.3172 -0.2496 -0.1751
26706W        W69697   9.431  20.511  29.150 -0.0466  0.1457  0.1571
26707W        W69698   7.618  19.438  15.584  0.0575 -0.1240  0.0323
26708W        W69699  32.196   7.817  26.556 -0.0683 -0.2189  0.0251
26709W        W69700  25.178  17.160  15.575  0.0197  0.0309 -0.0480
26710W        W69701  34.221  32.076  15.700  0.2321 -0.1621 -0.2805
26711W        W69702   2.992  17.969  21.436 -0.4647 -0.2096  0.1961
26712W        W69703  29.267   4.397  17.671 -0.0910  0.0058 -0.0346
26713W        W69704   2.525   9.802  21.836  0.0577 -0.1462  0.1453
26714W        W69705   9.410  20.082  18.375 -0.0749 -0.0538  0.1225
26715W        W69706  13.930  22.092  26.687 -0.2642  0.1487 -0.4176
26716W        W69707  30.990  31.874  22.311 -0.0742  0.2622 -0.2665
26717W        W69708  10.661   8.084  16.498 -0.0547 -0.1755  0.0991
26718W        W69709   4.574  28.515  15.114 -0.1903  0.0474  0.1865
26719W        W69710  28.614  29.946  13.764  0.2424 -0.2490 -0.0985
26720W        W69711   3.579  26.218  23.875 -0.0916  0.1571  0.0227
26721W        W69712   1.498   9.028  24.687  0.1612  0.1907 -0.1024
26722W        W69713  11.396  15.423  15.714  0.1497 -0.0708 -0.0085
26723W        W69714   9.389  15.199  26.969  0.1756  0.0900 -0.1653
26724W        W69715  14.565  20.052  25.056  0.0905 -0.2494  0.1633
26725W        W69716  33.318  14.499  28.911 -0.0479 -0.0192 -0.2711
26726W        W69717   6.209  29.827   6.711  0.0971 -0.3793  0.1802
26727W        W69718  13.428  27.041  23.793  0.2478  0.0729 -0.2398
26728W        W69719  32.792   8.454  22.881 -0.0078 -0.2534  0.0875
26729W        W69720  26.612  29.202  27.517  0.3751  0.4426  0.2429
26730W        W69721  34.767  11.470  16.931 -0.0455  0.0557  0.1270
26731W        W69722   2.322  21.665  22.103 -0.0625  0.1679 -0.0964
26732W        W69723  16.439  25.484  15.080  0.2356  0.1774  0.1878
26733W        W69724   7.476  19.026  23.479  0.2936 -0.2805  0.0408
26734W        W69725  28.931  22.498  14.349 -0.3651  0.0051 -0.0969
26735W        W69726  33.308   3.955  20.840  0.0093 -0.0263 -0.0577
26736W        W69727  15.198  15.086  23.960  0.1628  0.0560  0.0357
26737W        W69728  11.411  24.891  25.001 -0.2323 -0.1266 -0.0256
26738W        W69729  30.264  14.555  19.296 -0.0161  0.1258 -0.3048
26739W        W69730   1.945  31.202  18.145  0.0602 -0.1127 -0.2228
26740W        W69731   4.658  15.854  20.625  0.1191 -0.1057  0.0358
26741W        W69732   8.264  28.325   0.298  0.2239  0.2089 -0.4484
26742W        W69733  27.563  24.492  15.781 -0.1472 -0.0416  0.3968
26743W        W69734   3.706  30.821  17.423 -0.1489  0.0123  0.0451
26744W        W69735  24.486  14.298  26.143 -0.3922 -0.0859 -0.2387
26745W        W69736   1.287  21.965   2.985  0.1768 -0.0023 -0.1819
26746W        W69737  32.032  13.808  27.068 -0.1478  0.2348 -0.2368
26747W        W69738  12.912  29.438  27.390  0.1998 -0.3321 -0.0777
26748W        W69739  13.628   9.337  27.884 -0.2508 -0.0467 -0.3316
26749W        W69740  31.709  16.161  26.289  0.1164  0.1933 -0.1666
26750W        W69741  12.960  18.354  24.729  0.2408 -0.1033  0.0882
26751W        W69742  32.329  33.871  15.850 -0.2775 -0.0507  0.1956
26752W        W69743  13.599   9.359  26.006 -0.0144  0.1232 -0.0558
26753W        W69744   8.539  16.343  18.023 -0.0844 -0.1049  0.0730
26754W        W69745   5.373  12.815  24.519  0.2961 -0.1056  0.0359
26755W        W69746   5.606  32.539  17.088 -0.1777  0.1853  0.0817
26756W        W69747  31.467  19.803  15.855 -0.1640 -0.1126  0.3438
26757W        W69748   5.910  21.463  15.382 -0.0423  0.1432 -0.3711
26758W        W69749  33.540  23.660  17.237  0.1616  0.0795 -0.0610
26759W        W69750  12.907   6.996  25.774  0.0808  0.0217  0.1731
26760W        W69751   3.991  33.152  18.130 -0.2167  0.0328  0.2680
26761W        W69752  32.881  10.004  19.094 -0.3840  0.2945  0.3662
26762W        W69753  15.341  20.208  18.960 -0.1604 -0.2436  0.3096
26763W        W69754  21.348  17.247   8.930  0.0461 -0.0232  0.1713
26764W        W69755   6.162  30.512  27.303  0.1499 -0.2072  0.1704
26765W        W69756  21.307  15.205  18.097  0.0816 -0.1868 -0.3288
26766W        W69757  28.125  24.913  14.569  0.0970 -0.2827  0.1210
26767W        W69758   1.496  30.658   3.800  0.4421  0.1250  0.0893
26768W        W69759  12.262  13.404  26.972 -0.1505  0.0714  0.2949
26769W        W69760  11.667  12.293  20.302  0.1172  0.1492 -0.0313
26770W        W69761  21.662   3.144  16.758 -0.0266 -0.2754  0.2897
26771W        W69762  19.484  30.646  16.035 -0.0599  0.2472 -0.0243
26772W        W69763  17.553  27.265  16.709 -0.0708  0.1546  0.1333
26773W        W69764   8.383  15.613   3.986 -0.1336  0.0104  0.1441
26774W        W69765   3.086  24.846  14.637 -0.0409  0.2528  0.1202
26775W        W69766  16.798   8.266  25.681  0.2064 -0.0314  0.0491
26776W        W69767  19.521  19.981  16.622 -0.0577 -0.0481 -0.2958
26777W        W69768  31.743   8.372  23.835  0.0542 -0.1066  0.0676
26778W        W69769   8.983  23.131  18.953  0.0438  0.2593 -0.2241
26779W        W69770   4.360   1.566  21.897 -0.1244 -0.1429 -0.2552
26780W        W69771  10.670   9.031   7.449  0.0121 -0.1945 -0.1790
26781W        W69772  24.859   3.190   4.019 -0.1019 -0.2657  0.2489
26782W        W69773  23.930  25.455  26.694  0.1304  0.1436  0.1981
26783W        W69774  33.317   7.626  19.109 -0.0658  0.1751 -0.1431
26784W        W69775   2.296  22.412   6.514  0.0087 -0.0850  0.2303
26785W        W69776  33.207  17.961  20.115  0.3074 -0.3286  0.2433
26786W        W69777  33.596  25.411  22.161 -0.1693  0.2577 -0.3708
26787W        W69778  27.315   6.897  14.255 -0.1986  0.2526  0.0375
26788W        W69779  25.069  24.476  19.155 -0.2360  0.3452  0.3622
26789W        W69780  34.659  11.097  15.968 -0.3659 -0.0877  0.2183
26790W        W69781   2.256  10.297  19.602 -0.0160 -0.2306  0.0063
26791W        W69782   7.211  21.002  19.685  0.0415 -0.0988  0.1008
26792W        W69783   1.830  13.817  21.277  0.0307  0.1008 -0.0662
26793W        W69784   6.510  27.254  26.223 -0.1756 -0.2856 -0.1603
26794W        W69785   6.013  11.174  20.407  0.0675  0.2047  0.2234
26795W        W69786   4.623  23.449  19.510 -0.0997  0.0940 -0.0950
26796W        W69787  11.468  16.959  15.351 -0.0633 -0.1133  0.0188
26797W        W69788   5.877  16.920  19.333 -0.0909 -0.1945  0.0625
26798W        W69789  29.339  23.098  25.015  0.2517 -0.1333  0.1021
26799W        W69790  13.594  14.375   1.033 -0.1420  0.0651 -0.1320
26800W        W69791   6.526  12.121  28.446  0.2305  0.2822 -0.3389
26801W        W69792   6.760   2.897  24.610  0.0906  0.2844 -0.1173
26802W        W69793  32.794  21.169  16.565 -0.0646 -0.0796 -0.0023
26803W        W69794   2.166  18.266   6.845 -0.0279  0.3599 -0.0540
26804W        W69795  30.652  14.862  16.807  0.0450  0.0285 -0.1612
26805W        W69796  32.172   4.151  22.870 -0.0716  0.1590  0.1187
26806W        W69797   6.121  12.084  15.283  0.0460  0.3315  0.0259
26807W        W69798  23.465  12.319  26.188 -0.4171 -0.1181  0.0439
26808W        W69799  24.125  21.526  16.295  0.2024  0.0483 -0.0079
26809W        W69800   2.530   9.228  22.231  0.1768 -0.3405  0.1021
26810W        W69801  16.113  17.200  12.004  0.0620 -0.0224  0.3503
26811W        W69802  29.532   9.932  15.445 -0.0636  0.2625 -0.0007
26812W        W69803   0.007   0.033  16.752 -0.1219 -0.0138  0.2124
26813W        W69804  29.474   9.334  20.433  0.0861  0.2496 -0.1623
26814W        W69805   2.321   5.247  16.425 -0.1020 -0.0542 -0.3239
26815W        W69806  28.670   9.171  29.121 -0.2222  0.1037 -0.1695
26816W        W69807  12.567  18.583  12.538  0.0599 -0.1896  0.0668
26817W        W69808  12.341  15.764  24.232 -0.0981 -0.0436 -0.1226
26818W        W69809  12.502  20.300   0.440 -0.0549  0.0986  0.2543
26819W        W69810  20.194  24.627  14.140 -0.1959 -0.1802  0.2275
26820W        W69811  27.830  22.990  20.211 -0.2340 -0.0556  0.1841
26821W        W69812  25.311   4.394  25.940  0.0880  0.1413 -0.1684
26822W        W69813   4.748  17.617  26.051  0.2146  0.0745  0.2420
26823W        W69814   6.396  13.447   4.637 -0.1691 -0.0189  0.1682
26824W        W69815  31.286  25.411  20.567 -0.1255  0.2772  0.0701
26825W        W69816   6.002  16.759  11.227 -0.1994 -0.2748 -0.1228
26826W        W69817   5.274  21.821  21.173 -0.0200  0.2616  0.3217
26827W        W69818   1.035   6.452  20.997  0.0274  0.1029  0.2330
26828W        W69819  29.198  21.244  26.681 -0.0592 -0.2042  0.1753
26829W        W69820   7.837  16.763  21.854 -0.0466 -0.0715  0.2175
26830W        W69821  11.361  14.013   3.843 -0.1336 -0.2517  0.3267
26831W        W69822  33.825  27.745  18.861  0.1330 -0.3548  0.3340
26832W        W69823  31.717  24.120  17.272  0.0545  0.1894  0.0828
26833W        W69824  27.245   5.874  26.868  0.0343 -0.2910  0.1542
26834W        W69825   3.326  33.197  15.870 -0.0692  0.1014  0.0755
26835W        W69826   0.274  18.863  28.051  0.0281 -0.1345  0.1092
26836W        W69827  18.016  10.294  17.856 -0.0699  0.1248  0.0582
26837W        W69828   2.933  21.370   4.723 -0.1037  0.0962  0.2112
26838W        W69829   5.503  21.012  20.122 -0.0582 -0.0739  0.3518
26839W        W69830  26.962  33.545  16.428 -0.0295 -0.0236 -0.1000
26840W        W69831   0.156  14.455  15.142  0.2161  0.0641 -0.3756
26841W        W69832  17.618  26.911  22.721  0.2318 -0.4368  0.0540
26842W        W69833   0.668  12.806  23.999  0.0165 -0.0344 -0.2804
26843W        W69834  29.903  18.021  14.188 -0.1027 -0.0384 -0.0209
26844W        W69835  33.434  25.160   1.681  0.1746  0.1227  0.0694
26845W        W69836   3.441   1.363   0.892 -0.2260  0.2987 -0.4863
26846W        W69837  33.681  15.600  28.590  0.1616 -0.0604 -0.2565
26847W        W69838  12.623   9.931   0.963  0.1636  0.1004  0.0480
26848W        W69839   2.152   8.578  15.011  0.2121 -0.1792 -0.1422
26849W        W69840   7.226   5.088  23.597 -0.0001 -0.1516 -0.1772
26850W        W69841  12.870  23.801  18.822  0.0484 -0.2907  0.3802
26851W        W69842  30.308  12.575  20.331  0.3505 -0.0410 -0.0765
26852W        W69843  26.334  29.282  26.433 -0.2249  0.1230  0.3609
26853W        W69844  29.372  20.484  22.545  0.0718 -0.0335 -0.1645
26854W        W69845  29.168  15.886  23.154 -0.0585  0.0713 -0.1838
26855W        W69846  34.131  23.176  21.664  0.0340 -0.1971  0.3082
26856W        W69847  11.992  17.896  21.770  0.0308  0.0128 -0.0466
26857W        W69848   2.429   9.105   0.888  0.1969  0.2006  0.3279
26858W        W69849  29.949  22.328  20.619 -0.2333 -0.3332  0.0275
26859W        W69850  32.519  13.828  16.534  0.1158 -0.2066 -0.1504
26860W        W69851   3.223  23.664  20.710  0.1358 -0.0789  0.0761
26861W        W69852   6.415  11.026  25.310 -0.0607 -0.3934 -0.2458
26862W        W69853   9.186  27.455   5.084  0.1444  0.0426  0.0882
26863W        W69854   1.427  21.079  26.272 -0.0894 -0.1960 -0.2009
26864W        W69855  24.918  16.953  16.633  0.0899  0.0132  0.0681
26865W        W69856  31.042  27.340  20.925  0.1268 -0.1432  0.4505
26866W        W69857  21.834  23.614  21.981 -0.0148 -0.1248  0.0734
26867W        W69858  10.715  23.388  28.822  0.0355  0.3149 -0.3041
26868W        W69859  31.423  27.165  19.166 -0.0736  0.5872  0.1770
26869W        W69860  29.414  14.169  24.855  0.0142 -0.3224  0.0950
26870W        W69861   5.405  20.207  17.023 -0.2694 -0.0500 -0.2428
26871W        W69862  11.782   4.131  24.600 -0.1398  0.0923 -0.4652
26872W        W69863  26.195   8.815  23.718  0.5762  0.2249  0.1901
26873W        W69864  27.259   2.538  22.264 -0.0523  0.0526  0.3252
26874W        W69865  27.762   8.205  13.747  0.2251  0.0709 -0.0831
26875W        W69866  17.355   1.299   5.842  0.1283  0.3534  0.0306
26876W        W69867   5.132  12.312  17.286 -0.0103  0.1367 -0.1970
26877W        W69868  14.366   0.736   9.566 -0.0704  0.4183  0.2958
26878W        W69869  28.205  19.875  17.670 -0.1237  0.0364 -0.1159
26879W        W69870   7.030  10.106  21.420 -0.0466  0.0815 -0.0315
26880W        W69871  14.363  23.631  21.719 -0.2451 -0.1017  0.0218
26881W        W69872  24.192  21.958  15.876  0.1087 -0.4251 -0.1552
26882W        W69873   2.875  25.856   2.193  0.2362  0.0040  0.0502
26883W        W69874  18.014  18.941   0.527  0.2287  0.0609 -0.0238
26884W        W69875   6.803   5.185  15.053  0.2061  0.2034  0.0093
26885W        W69876  13.708  33.231  19.499  0.0562  0.0868  0.2090
26886W        W69877   5.924  20.015  18.526  0.0821 -0.1327  0.2520
26887W        W69878   5.414  27.943   8.559 -0.1805  0.1181 -0.0373
26888W        W69879   0.099  23.469   2.322  0.0540  0.0744  0.0283
26889W        W69880  21.627   1.646  17.066  0.1282  0.4636  0.2075
26890W        W69881  33.576  32.413  16.272 -0.0700  0.1094  0.2203
26891W        W69882  19.665  23.158  27.435 -0.0011  0.1037  0.1907
26892W        W69883   7.087   8.568  27.610  0.2111  0.0053 -0.2712
26893W        W69884  31.772  11.964  28.678  0.3072  0.0516  0.0150
26894W        W69885  12.410  18.487  13.772 -0.3520 -0.2003 -0.0049
26895W        W69886  27.907  19.417   2.091  0.0043 -0.3618 -0.1582
26896W        W69887   5.924   1.678   7.964 -0.0876  0.0529 -0.0238
26897W        W69888  13.751  31.599  15.143  0.2129  0.2143  0.2183
26898W        W69889  14.309   9.069  20.832 -0.2915  0.0845 -0.4412
26899W        W69890  30.403   8.007   6.914 -0.2986 -0.2049 -0.0347
26900W        W69891  21.209  28.477  16.570 -0.2597  0.1517 -0.1170
26901W        W69892   6.035   1.265  19.247  0.0637  0.1452  0.1581
26902W        W69893   1.363  21.096  14.344 -0.0327  0.0869  0.1417
26903W        W69894  15.495  12.863  12.619 -0.0123 -0.2401  0.1451
26904W        W69895  30.493  28.842  24.539  0.1121  0.1651 -0.1281
26905W        W69896   2.216  12.792   0.114 -0.2229  0.0445 -0.2628
26906W        W69897   0.857  15.962  26.488 -0.1742 -0.2166  0.3236
26907W        W69898   8.968   3.961  14.671  0.1502  0.0466 -0.1238
26908W        W69899   2.606   4.716  28.614 -0.1465 -0.3291 -0.0028
26909W        W69900   9.966  24.103   8.720 -0.0077  0.3155 -0.1500
26910W        W69901  28.079  10.099  23.873 -0.2379 -0.0709 -0.0396
26911W        W69902   9.903  34.540   2.497  0.0346  0.0804 -0.2166
26912W        W69903   0.120  27.591  18.119  0.1442  0.0173  0.1172
26913W        W69904  16.896  16.175  14.790  0.2579  0.0995  0.0974
26914W        W69905  13.580  20.751  14.060  0.2103 -0.2375 -0.1909
26915W        W69906  23.067  29.920  19.265  0.2251 -0.0351 -0.0150
26916W        W69907  22.543  24.946  22.775  0.0421 -0.1030  0.1953
26917W        W69908   7.618   9.126  19.490 -0.0974 -0.0412 -0.1382
26918W        W69909   0.286  17.188  22.278  0.2356  0.0692 -0.0425
26919W        W69910   8.714  22.256  21.630  0.1134  0.0304 -0.2417
26920W        W69911   6.799  27.924  17.610 -0.0357 -0.2217  0.0585
26921W        W69912   7.504   9.676  15.140 -0.0160  0.4079 -0.1468
26922W        W69913  26.752   6.439   0.590 -0.1447 -0.3584  0.0546
26923W        W69914  22.348  12.229  16.631 -0.1137  0.1759  0.2038
26924W        W69915   7.543  11.821   9.714  0.0335 -0.0311  0.2153
26925W        W69916  12.938   2.819   3.375 -0.0017  0.2343 -0.0622
26926W        W69917  33.031  21.458  18.838 -0.2903 -0.1494 -0.2228
26927W        W69918   5.203  16.322  19.422  0.2269  0.1338 -0.3344
26928W        W69919   9.962  23.110  23.995 -0.2795 -0.0920  0.3652
26929W        W69920   2.282  19.573  28.619 -0.0784  0.0902  0.1387
26930W        W69921  20.948  28.307  18.422  0.1103 -0.2544  0.1470
26931W        W69922   0.568   4.210  17.479 -0.0952 -0.1038  0.0420
26932W        W69923  19.052  24.644  19.741  0.2117  0.1517  0.0870
26933W        W69924  32.158  28.089   0.084  0.0916 -0.2448 -0.1260
26934W        W69925   4.776  20.375  19.464 -0.0551  0.1649 -0.0628
26935W        W69926  14.834  22.089  16.987  0.0251 -0.0530  0.0028
26936W        W69927  18.270  10.407  20.424  0.0595  0.0341 -0.2704
26937W        W69928  34.654  12.317  16.713  0.3551  0.1102 -0.1921
26938W        W69929   2.857  12.377  18.559 -0.3057 -0.1517  0.3558
26939W        W69930  32.423  23.612  14.213  0.2955  0.2185 -0.1175
26940W        W69931  31.590  30.792  16.653 -0.1493 -0.2573 -0.2480
26941W        W69932   4.792  27.077  26.504  0.0377 -0.1148 -0.3219
26942W        W69933  22.287  15.884   2.338 -0.0922  0.2801  0.0508
26943W        W69934   1.049  24.184  14.555  0.1424  0.2119  0.1507
26944W        W69935   1.399  18.343  19.589 -0.2661 -0.1932  0.0281
26945W        W69936  17.057  33.138  14.289  0.0134  0.1066 -0.1264
26946W        W69937   3.911  21.468  20.585  0.2921  0.4158 -0.0084
26947W        W69938   4.222  15.522  23.228  0.0089  0.2156 -0.0953
26948W        W69939   3.347  14.964  17.807  0.0571  0.1368 -0.0091
26949W        W69940   8.311  34.014  24.396  0.1033  0.2177  0.1627
26950W        W69941   8.577   6.534  16.137 -0.0739  0.1148 -0.0785
26951W        W69942   3.593  19.057  23.394 -0.0642  0.2036  0.3056
26952W        W69943  19.890  22.567  17.665 -0.0553  0.2059 -0.0873
26953W        W69944  33.286  33.992  24.645 -0.0223  0.2138  0.2495
26954W        W69945  31.704   6.493  15.926  0.3008 -0.0884  0.2522
26955W        W69946  27.556  26.949  23.646 -0.0474  0.3716 -0.0801
26956W        W69947   2.541  32.220  26.149  0.2549 -0.1601  0.0434
26957W        W69948   0.798  23.007  22.934  0.1984  0.1118  0.0544
26958W        W69949  13.026  17.918  22.709  0.0874 -0.0156  0.0499
26959W        W69950  23.951  20.062  24.475 -0.2007  0.1559  0.0723
26960W        W69951  29.800  10.843  24.880 -0.0271  0.0576 -0.0261
26961W        W69952  29.095  28.952  21.346 -0.1084  0.0232  0.1016
26962W        W69953  12.468  31.212  25.675  0.0524  0.3132  0.0368
26963W        W69954   4.756  15.316  18.885  0.1738 -0.2608 -0.0170
26964W        W69955  27.959  11.597   3.290 -0.0416  0.0910 -0.1646
26965W        W69956  20.367  22.708  12.915  0.2512  0.1348 -0.1331
26966W        W69957  31.783  14.608  16.623 -0.0215 -0.1309  0.1114
26967W        W69958  12.670  13.086  25.099  0.3603 -0.0798  0.2572
26968W        W69959  20.363   9.814  20.347  0.1472  0.1453  0.1459
26969W        W69960  25.887  21.260  16.556 -0.3721 -0.1841 -0.0218
26970W        W69961   0.151  16.207   7.027  0.0216 -0.2058  0.2120
26971W        W69962  14.500   7.657  21.801 -0.0965  0.0609 -0.4217
26972W        W69963  31.026  28.282   4.473  0.0164  0.0034  0.1271
26973W        W69964   9.022  16.696   7.921 -0.0433  0.0843 -0.2266
26974W        W69965   5.872   5.663  23.897  0.0323  0.0055 -0.0623
26975W        W69966   3.916   8.129   1.302 -0.0989  0.2757  0.0178
26976W        W69967  28.084  16.248  21.707 -0.0916 -0.4574  0.0138
26977W        W69968   3.492  14.005  18.002  0.3805 -0.1867 -0.1366
26978W        W69969   3.600   2.868   2.359 -0.1181  0.3037  0.3172
26979W        W69970  12.512  15.544  25.342 -0.1073 -0.2011  0.0421
26980W        W69971  34.699  18.661  17.232 -0.2688  0.3421 -0.2905
26981W        W69972  21.746  16.166  22.642 -0.3785  0.1327  0.1422
26982W        W69973  14.185   7.855  22.338  0.0459  0.1394 -0.0066
26983W        W69974   6.076  24.933  14.446  0.0081 -0.3286  0.1009
26984W        W69975   9.640  33.635  17.891  0.3085  0.1907 -0.0715
26985W        W69976   0.106  18.129   3.369 -0.2388 -0.0656 -0.2465
26986W        W69977   2.619  15.879  20.606 -0.1649  0.1632  0.1654
26987W        W69978  26.078   7.665  15.987  0.1723 -0.0372 -0.0404
26988W        W69979   5.309  34.124  21.735  0.0020  0.0412  0.1612
26989W        W69980  25.757  11.944  25.313  0.2613 -0.2038 -0.0636
26990W        W69981  30.464  12.090  20.238 -0.0915 -0.2962 -0.0181
26991W        W69982  31.409  22.038  17.786  0.2023 -0.1247 -0.0216
26992W        W69983  19.532  24.873  15.367 -0.0220  0.0952  0.0329
26993W        W69984  33.638  20.970  28.224 -0.1632  0.1156 -0.0138
26994W        W69985   5.814  14.508  28.661 -0.0209  0.0069 -0.2922
26995W        W69986  30.418  16.357   2.951 -0.0435 -0.0399  0.1006
26996W        W69987  20.257   2.792  28.665  0.1332 -0.1381 -0.0037
26997W        W69988   0.844  19.693  16.968 -0.2122 -0.1764  0.0645
26998W        W69989  30.383  16.463  28.167 -0.0790 -0.1721  0.1170
26999W        W69990  10.358  29.722   0.516  0.0537 -0.1524  0.4168
27000W        W69991  21.917  28.702  23.434  0.3557 -0.1679 -0.0094
27001W        W69992  29.921  17.913  23.098  0.1430  0.1582 -0.0745
27002W        W69993   4.739  24.744  26.849 -0.3332  0.0973  0.0138
27003W        W69994   1.894  34.396  18.190  0.2461  0.2562 -0.3312
27004W        W69995  27.196  13.900  15.657 -0.2105 -0.1797 -0.1748
27005W        W69996  28.932  10.232   7.431  0.3108  0.0600 -0.1112
27006W        W69997   8.661  14.845  25.693  0.3201  0.1794 -0.0230
27007W        W69998   1.214  28.640  15.703  0.3967 -0.1441  0.2170
27008W        W69999  16.767   3.955  25.508 -0.1393 -0.0920  0.3232
27009W        W70000  12.463  10.308  25.878  0.2212 -0.1662  0.2025
27010W        W70001  10.283  11.145  23.632 -0.0628  0.1598 -0.0662
27011W        W70002   1.038  16.720  15.590 -0.2146 -0.1506 -0.1833
27012W        W70003   2.171  24.057   7.845  0.2038  0.0958  0.2494
27013W        W70004  25.679  18.642  25.255 -0.1096  0.0208  0.0537
27014W        W70005  32.029  10.689  28.552  0.1234  0.2141 -0.0367
27015W        W70006   0.470  25.968  28.942  0.1623  0.1450  0.3474
27016W        W70007   7.317  16.228  16.636  0.1043 -0.2670 -0.2330
27017W        W70008  10.271  11.141   3.692 -0.3418 -0.1520  0.0385
27018W        W70009   1.727  21.258   5.382 -0.3390 -0.0831 -0.2049
27019W        W70010   6.238  13.199  17.868 -0.0597  0.1066 -0.0491
27020W        W70011  27.108  24.284  24.245  0.0457 -0.2187  0.0626
27021W        W70012   3.238  19.564  19.713  0.0718  0.1136 -0.1224
27022W        W70013  34.421  30.916  21.654  0.1628  0.0014  0.0880
27023W        W70014  15.503  17.087  27.477  0.0938 -0.1347 -0.2968
27024W        W70015   7.110  13.164  25.187 -0.4385  0.0336 -0.0473
27025W        W70016  31.668   0.611  23.173 -0.0650  0.1481  0.2316
27026W        W70017   1.846  21.626  17.133  0.1774 -0.0168 -0.2982
27027W        W70018  32.464  21.687  14.873  0.1165  0.0673 -0.2127
27028W        W70019  11.491  12.817  16.094 -0.0371 -0.0127  0.0956
27029W        W70020   2.908  15.562  20.918 -0.2233 -0.1812 -0.3241
27030W        W70021   3.842  19.021  23.814  0.0214  0.1467 -0.1436
27031W        W70022   6.630  28.355  21.525 -0.0465  0.2308  0.0530
27032W        W70023   6.193   7.565  17.351 -0.0328 -0.4554  0.1856
27033W        W70024   0.694  28.695  25.970  0.3766  0.1611 -0.1475
27034W        W70025  34.566  15.694  27.025  0.2096  0.2914  0.1230
27035W        W70026  22.584  14.239  21.600  0.0747  0.0909  0.0620
27036W        W70027  33.023  16.059  15.820 -0.3192  0.0008  0.1447
27037W        W70028   3.647  28.072   5.133 -0.4312 -0.1829 -0.3725
27038W        W70029   3.250  26.088  22.790  0.3424 -0.0099  0.0464
27039W        W70030  11.968   9.752   0.768 -0.1058 -0.1411 -0.1863
27040W        W70031   9.185  11.663   2.268  0.0435  0.1213  0.0444
27041W        W70032   9.566  24.345  17.164 -0.0636 -0.3477 -0.0266
27042W        W70033  29.993  22.944  16.380 -0.1897  0.0015 -0.2059
27043W        W70034   2.676  13.088  15.836 -0.0105 -0.1586  0.0162
27044W        W70035  28.049   9.214   5.493  0.4499 -0.0761  0.3694
27045W        W70036   3.223   8.366   0.135 -0.1355  0.1925 -0.1773
27046W        W70037  32.715   8.107   2.719 -0.1039  0.1449  0.2418
27047W        W70038  15.125  17.605  12.980  0.1564  0.3057  0.0079
27048W        W70039   7.422  16.989  16.255  0.1479 -0.3472  0.1528
27049W        W70040  30.920  17.967  19.651 -0.1830  0.1835 -0.0775
27050W        W70041  12.590   2.074   1.031  0.1762 -0.1692 -0.4565
27051W        W70042   8.783  14.673  24.473 -0.0603 -0.0522  0.1113
27052W        W70043  25.597   2.600   1.286 -0.0726 -0.0330 -0.0693
27053W        W70044  33.702  23.719  22.465 -0.2039  0.1312 -0.1669
27054W        W70045   8.660  17.197  24.250  0.2931 -0.1638  0.3269
27055W        W70046  20.842  26.219   2.878 -0.4196 -0.3514  0.0343
27056W        W70047   9.019   4.658  17.234  0.0573  0.2179 -0.1470
27057W        W70048  16.942   6.563  26.676 -0.0907  0.0090 -0.3154
27058W        W70049   8.718  16.915  19.874 -0.1752 -0.0247 -0.0170
27059W        W70050  13.427   8.750  20.955  0.0989  0.1262 -0.1063
27060W        W70051  14.266   9.850  19.339 -0.2336 -0.1728 -0.0046
27061W        W70052   1.728  22.865  16.011  0.0509 -0.2161 -0.3099
27062W        W70053  11.471  18.515   7.605 -0.0114  0.2749  0.3185
27063W        W70054   4.214   1.427  23.082 -0.3602 -0.0487  0.2022
27064W        W70055  26.299  16.334  20.679  0.0239  0.0576  0.2223
27065W        W70056  11.063   2.018   4.649  0.0030 -0.1602 -0.0202
27066W        W70057  31.384  23.805  15.377  0.2103  0.2178  0.2849
27067W        W70058  17.210  22.427  16.839  0.1498  0.2827 -0.1279
27068W        W70059  33.925   7.118  17.063  0.0120  0.0219 -0.6840
27069W        W70060  28.315  13.984  19.465  0.3596 -0.1432  0.1334
27070W        W70061  28.920  13.762  28.338  0.0720  0.2569  0.2053
27071W        W70062   9.715  15.490  15.735 -0.1164 -0.3952  0.1631
27072W        W70063  32.760  13.808  21.220  0.2158 -0.1592  0.1782
27073W        W70064  30.232  21.234  19.613  0.4252 -0.1437 -0.2323
27074W        W70065   3.190  12.038  21.718 -0.1542  0.1153 -0.1859
27075W        W70066   3.203  12.872  19.250  0.2060  0.1071  0.0793
27076W        W70067  14.135  13.778  12.982  0.2023  0.1320 -0.1008
27077W        W70068  15.761  30.226  29.086  0.1417  0.1107 -0.0548
27078W        W70069  21.827   6.275  19.816  0.0317 -0.2878 -0.0250
27079W        W70070  11.653  18.725  15.042 -0.0217  0.1345  0.2076
27080W        W70071  22.897  13.679  19.144  0.0411  0.0609 -0.0165
27081W        W70072   9.824  23.169  23.062  0.1599 -0.1912  0.0507
27082W        W70073   6.429  18.863  20.567  0.0007 -0.0641  0.2672
27083W        W70074  11.114  13.999  15.373  0.1485 -0.2791  0.0478
27084W        W70075  18.854  20.286   4.225 -0.0794 -0.0425  0.2684
27085W        W70076   6.185  14.171   4.414  0.0331  0.1087  0.3249
27086W        W70077  13.711  25.167  20.162  0.1477 -0.4824 -0.1604
27087W        W70078  31.556  15.660   4.599 -0.1427 -0.0246 -0.0550
27088W        W70079  22.175  33.727  15.838 -0.2186 -0.2528 -0.3133
27089W        W70080  15.772  32.033  16.068 -0.0158 -0.1497  0.0807
27090W        W70081  30.858  23.261  26.712  0.0685  0.0997 -0.1700
27091W        W70082   6.591  18.387  21.996  0.3087 -0.0294  0.2068
27092W        W70083   7.572  18.581   9.784 -0.0278 -0.4044  0.1350
27093W        W70084   4.503  15.873  20.184 -0.2218  0.2196  0.0886
27094W        W70085   1.305   3.516  17.303 -0.3800  0.1450  0.0565
27095W        W70086  13.895   5.214   4.192  0.0149 -0.0119  0.2327
27096W        W70087   5.632   9.094  26.934 -0.5576  0.1150  0.2541
27097W        W70088  32.867  24.325  17.746 -0.0090 -0.2449 -0.1609
27098W        W70089   4.363  13.787  25.952 -0.1591 -0.0491 -0.0846
27099W        W70090  31.463  13.362  17.249  0.1102 -0.0151  0.1298
27100W        W70091  27.014  18.666  24.936 -0.2730  0.0920  0.1581
27101W        W70092   2.625   4.204  18.668 -0.2873  0.1108  0.0689
27102W        W70093   5.698  17.720   0.315 -0.3012  0.0333 -0.4687
27103W        W70094  31.316  27.573  23.012  0.2080 -0.0942 -0.2654
27104W        W70095  20.658  16.540  13.545  0.0934 -0.1512  0.3000
27105W        W70096   1.192  14.970   3.011  0.2216  0.1161  0.1518
27106W        W70097  30.909  13.860   2.363  0.1752 -0.1128  0.2088
27107W        W70098   5.694  18.004  16.984  0.0226  0.1209 -0.2169
27108W        W70099   3.973  26.100  21.192 -0.1304 -0.2306  0.0008
27109W        W70100  13.795  13.577  23.259  0.1503 -0.0292 -0.2017
27110W        W70101  31.384  19.776  22.158 -0.0623  0.3371 -0.3162
27111W        W70102  20.732   4.886   3.337  0.3025 -0.0845  0.0688
27112W        W70103  27.097  21.385  23.783 -0.1070  0.0373 -0.0703
27113W        W70104   5.836   9.543   0.389 -0.1354  0.2137  0.0099
27114W        W70105  12.413  30.027   8.137 -0.0648 -0.3016 -0.0648
27115W        W70106  14.521   7.068  18.890  0.1260  0.2041 -0.1189
27116W        W70107  27.174  28.971  19.080  0.1009  0.0718  0.1636
27117W        W70108  30.401  20.714  28.599 -0.5298  0.0779  0.0052
27118W        W70109  33.246  14.690  18.035  0.3676 -0.1244 -0.2173
27119W        W70110   2.574  12.344   8.716  0.1912 -0.0068  0.1409
27120W        W70111   9.789  18.011  25.566 -0.2645 -0.2770 -0.2266
27121W        W70112   5.347  11.259   5.855  0.0935  0.0334 -0.2366
27122W        W70113  30.421  19.945  18.190  0.3985  0.0217  0.0723
27123W        W70114   6.223  18.273  10.255  0.1457 -0.2122 -0.0447
27124W        W70115  33.185  21.170  15.095  0.2368  0.0416 -0.3618
27125W        W70116  29.084  18.426  16.609 -0.1706 -0.2676 -0.0987
27126W        W70117   4.768  20.771  19.706  0.1147  0.0549  0.0050
27127W        W70118  13.044  21.486  21.739  0.0051 -0.1386  0.0242
27128W        W70119  32.615  29.382  21.335 -0.3052  0.1991 -0.0680
27129W        W70120  34.710  11.906  24.561  0.1239 -0.0837  0.0053
27130W        W70121   4.166   3.509  27.160  0.0798 -0.3140  0.3087
27131W        W70122   0.353  23.019   0.206 -0.2499  0.0043  0.2072
27132W        W70123  26.671  33.977  28.384  0.0607  0.3794  0.3457
27133W        W70124   9.215  21.054  27.335  0.1309 -0.1731 -0.1308
27134W        W70125   0.004  23.801  16.558 -0.2565 -0.1977  0.2668
27135W        W70126   6.656  12.584  24.097 -0.1801  0.3899  0.2924
27136W        W70127  25.622  21.832   0.285  0.2165 -0.1182 -0.2073
27137W        W70128  10.155  23.740  15.465  0.1189  0.2413 -0.1098
27138W        W70129  10.838   7.283  14.697  0.0182  0.0729  0.1369
27139W        W70130   6.078  27.155  14.933 -0.0446 -0.2648  0.2104
27140W        W70131  17.497  31.671  21.095  0.0606 -0.0130  0.0682
27141W        W70132   2.620  26.340  14.644 -0.1128 -0.1604  0.0844
27142W        W70133  13.025  18.468  26.448  0.2613  0.1353 -0.0797
27143W        W70134   4.501  15.789  16.441  0.0777 -0.0526  0.0463
27144W        W70135  14.714  14.341  18.600  0.0465 -0.0337 -0.1631
27145W        W70136  30.874   8.060  23.722 -0.0190 -0.3127 -0.2412
27146W        W70137  10.995   5.605  18.583  0.0086  0.0060  0.0268
27147W        W70138   1.687  14.602  22.301 -0.0316 -0.3191  0.0759
27148W        W70139   1.826  33.605  15.035 -0.3434 -0.3795  0.0767
27149W        W70140   2.211   3.106  25.185  0.3266 -0.1680 -0.1504
27150W        W70141   2.773  31.123  24.629  0.2206 -0.0683  0.1848
27151W        W70142  32.699  13.195   7.014  0.2150 -0.1240  0.1238
27152W        W70143   8.080   8.679  26.907 -0.0286  0.1799 -0.1046
27153W        W70144  10.458  11.769   2.578 -0.0278 -0.1351  0.1482
27154W        W70145  15.950  19.863  13.976 -0.0756 -0.2012  0.0724
27155W        W70146   8.642  23.559  17.763  0.2494  0.0044 -0.0881
27156W        W70147  18.557  24.555  25.801  0.0315  0.1077 -0.0432
27157W        W70148  19.125   0.287   5.871 -0.0438 -0.0755  0.1094
27158W        W70149  12.128   5.955  16.842  0.1463  0.1163 -0.4077
27159W        W70150  14.262   3.257  21.945 -0.0529  0.2320  0.1081
27160W        W70151   1.021   9.594  27.964 -0.0531  0.1063  0.0853
27161W        W70152   0.274  14.266  20.895  0.1131 -0.0759 -0.2962
27162W        W70153  23.902   4.695  25.824 -0.1659  0.2672  0.0599
27163W        W70154   9.132  28.494   4.561  0.1069  0.3389  0.0003
27164W        W70155   1.594  13.487  26.891  0.5205  0.0910 -0.0826
27165W        W70156  11.584   9.922  18.294 -0.0853 -0.2332 -0.1565
27166W        W70157   3.489  12.104  23.070  0.0847 -0.0683  0.2894
27167W        W70158  31.758  31.621  25.431 -0.4360 -0.2716 -0.1146
27168W        W70159   7.703  11.777  16.396 -0.2651 -0.3022 -0.2323
27169W        W70160  33.505  16.401  17.630 -0.0541  0.1089 -0.0109
27170W        W70161  30.251  31.692  17.010 -0.0283 -0.2046  0.3081
27171W        W70162  24.659   9.446  22.778 -0.3071 -0.0741  0.1620
27172W        W70163  31.375   4.860  17.970 -0.2620  0.2597  0.4380
27173W        W70164   3.219  21.699   1.667 -0.2073  0.0354 -0.1175
27174W        W70165   2.993  26.513  15.137  0.1798 -0.0275 -0.4485
27175W        W70166   3.644  28.668  20.757  0.1281 -0.0842  0.1507
27176W        W70167  13.286  29.405  18.264 -0.1053  0.1120  0.1562
27177W        W70168  31.906  19.201  22.616 -0.5184  0.0111 -0.1264
27178W        W70169  15.893  15.181  12.951  0.0832  0.2946  0.0960
27179W        W70170   4.237  18.564  25.170 -0.3974 -0.2327  0.1208
27180W        W70171   4.311  12.594  17.281 -0.3614  0.1081  0.1313
27181W        W70172  15.422   8.589  25.046 -0.0875  0.1499 -0.0526
27182W        W70173  30.374  13.770  15.856 -0.0483 -0.2173 -0.1612
27183W        W70174  13.725   8.860  22.988 -0.1611 -0.0316 -0.1751
27184W        W70175   9.592  22.421  14.051  0.0106  0.4396 -0.5515
27185W        W70176   7.461  13.899  14.817  0.3463  0.0760  0.0829
27186W        W70177   0.202   9.967  20.882 -0.0452  0.0313 -0.2054
27187W        W70178   1.632  14.441  23.945 -0.3031 -0.2578  0.2198
27188W        W70179  26.675   4.182  22.993  0.4636 -0.0971  0.0303
27189W        W70180  34.137  15.686  17.960 -0.2822 -0.0106  0.2809
27190W        W70181   0.118  32.380   5.542 -0.0674  0.0215 -0.2839
27191W        W70182  26.362  14.935  28.319  0.0961  0.3941 -0.1426
27192W        W70183   8.347  19.142   0.635  0.2731 -0.2569  0.0437
27193W        W70184   7.715   3.406   4.748  0.3054  0.0333  0.1380
27194W        W70185   6.591   2.040  27.460 -0.3224 -0.1926  0.0484
27195W        W70186  15.992   5.524   6.466  0.2676  0.2015 -0.0050
27196W        W70187  28.641   6.273  19.768  0.2075 -0.0471  0.2139
27197W        W70188   3.076  17.153  26.554  0.0418  0.1251  0.1647
27198W        W70189  10.993  23.520  22.405 -0.1577 -0.2596 -0.1698
27199W        W70190   5.898  20.852   7.468  0.0589 -0.0197  0.0278
27200W        W70191   1.839   1.784  18.234 -0.2011  0.1600  0.0785
27201W        W70192  28.543  29.191  19.211  0.2441  0.0117  0.4028
27202W        W70193   6.198  30.611  26.030 -0.1326 -0.3514 -0.7589
27203W        W70194  33.392  22.513  15.343 -0.0259 -0.1629 -0.1760
27204W        W70195  19.298  32.422  16.220 -0.0420  0.1044  0.0817
27205W        W70196   1.344  13.455  29.062 -0.0103  0.3198  0.1796
27206W        W70197  25.834  29.572  26.135 -0.4320  0.0115  0.3167
27207W        W70198  27.480  29.972  25.443 -0.0974  0.0112 -0.2401
27208W        W70199  28.597  19.462  18.995  0.1790 -0.1649  0.0157
27209W        W70200  19.642   8.681  14.685 -0.0864  0.0075 -0.1346
27210W        W70201  32.420  18.151  21.754 -0.2388 -0.4117  0.2057
27211W        W70202  14.501  32.493  20.133  0.1347 -0.1460 -0.3395
27212W        W70203   8.297  33.083   3.692 -0.0009  0.2992  0.1567
27213W        W70204  19.137  10.004  14.277  0.3095  0.2229 -0.0449
27214W        W70205  33.711  18.459  19.203  0.2058  0.0069 -0.1821
27215W        W70206   4.177  23.707  27.889 -0.1090 -0.2066  0.3292
27216W        W70207   6.206   2.128   8.764  0.0224 -0.0089 -0.1626
27217W        W70208  22.733   5.701  28.519 -0.2795 -0.2163  0.1335
27218W        W70209  11.462  26.079  16.313  0.0898  0.0254 -0.2118
27219W        W70210  31.040   8.205  26.044  0.0769  0.0463 -0.3966
27220W        W70211   4.395  28.625  26.798  0.0617  0.0012 -0.0786
27221W        W70212   9.404  19.858  22.006 -0.0801  0.1952  0.1340
27222W        W70213  25.685  30.184  20.723 -0.0841 -0.1062  0.3530
27223W        W70214  15.895  30.153  23.381 -0.2423  0.0670  0.0529
27224W        W70215  11.057  30.367   6.475  0.2475  0.2330 -0.0846
27225W        W70216  27.776   1.216  27.450  0.0431 -0.0289 -0.0004
27226W        W70217  26.758   9.375  17.079 -0.0174 -0.2058 -0.0664
27227W        W70218   9.439  23.372  14.232  0.1887  0.1283  0.0386
27228W        W70219   9.484  16.434  15.605 -0.0267  0.1864  0.1646
27229W        W70220  34.644   6.138  26.896  0.0066 -0.3367 -0.0256
27230W        W70221  24.845   8.470  25.130 -0.0002 -0.4669 -0.0768
27231W        W70222   5.326  11.951  16.056  0.0843 -0.0784  0.1780
27232W        W70223   1.896  22.738  21.474  0.4370  0.1554 -0.0100
27233W        W70224   1.585  17.360  18.450 -0.0726  0.2126 -0.2707
27234W        W70225  22.466  11.337  21.842  0.0513  0.1377  0.1997
27235W        W70226  31.960  27.835  22.122 -0.1102  0.1973 -0.0066
27236W        W70227  29.791  31.377  23.238 -0.4117 -0.2024 -0.1194
27237W        W70228  32.519   8.868  14.704  0.2587  0.0613  0.0830
27238W        W70229   6.438  29.476  20.222 -0.0183  0.0349  0.2160
27239W        W70230  23.714  19.248  16.511 -0.2338  0.1920 -0.1438
27240W        W70231  22.570  28.908  21.534  0.1199  0.1991  0.1454
27241W        W70232  24.458  17.655  27.629  0.2153 -0.1273 -0.2425
27242W        W70233  30.963   9.612  25.936 -0.1908  0.1962 -0.1370
27243W        W70234  11.701  19.452   1.582 -0.2243  0.2738  0.0409
27244W        W70235   9.882  13.651  18.467  0.2081 -0.0145 -0.2014
27245W        W70236   6.526  22.363   1.923  0.0131  0.2734 -0.0570
27246W        W70237  31.396  33.068  25.477  0.0118  0.2528  0.0610
27247W        W70238  30.933  20.346  14.957 -0.0492 -0.0410 -0.1263
27248W        W70239  28.757  26.775  13.223 -0.3991  0.4378 -0.2240
27249W        W70240  19.297   8.015  26.323 -0.0108  0.0779 -0.1918
27250W        W70241  31.511  14.540  24.656  0.1746  0.1648 -0.0277
27251W        W70242   3.058  33.247  16.527  0.0821  0.4856 -0.2312
27252W        W70243  34.206  29.680  25.837 -0.2426 -0.3210  0.0402
27253W        W70244   0.964   1.906  24.096  0.2319  0.0031  0.2183
27254W        W70245  32.909  28.570   1.972  0.0827  0.0909  0.3404
27255W        W70246   2.401  32.253  27.130  0.2017  0.0345 -0.0799
27256W        W70247  10.536  24.358  23.792  0.0563  0.1104 -0.3421
27257W        W70248   8.875  23.168   2.794  0.0605  0.1672  0.2222
27258W        W70249   0.969  24.932   3.769 -0.1660  0.1669 -0.1636
27259W        W70250  23.807  24.559  20.859 -0.2522 -0.0357  0.0054
27260W        W70251   7.946  29.109   2.796  0.2579  0.0503  0.1240
27261W        W70252  32.032  18.038  15.344 -0.1178 -0.0668 -0.0062
27262W        W70253  14.896   6.534   3.145 -0.1578 -0.0435  0.1528
27263W        W70254  34.054  32.612  16.523 -0.2428  0.0534 -0.3568
27264W        W70255  33.202  13.166   2.241  0.0109  0.2476  0.2233
27265W        W70256   1.808  18.305  20.492 -0.0411  0.0056 -0.0287
27266W        W70257  33.717  27.270  14.461  0.2604 -0.2580  0.1830
27267W        W70258  32.460   4.366  18.531  0.1817 -0.0267 -0.0410
27268W        W70259   8.246   8.017  21.372  0.0980 -0.0130  0.2309
27269W        W70260  22.227  13.717  25.949 -0.1213  0.0370 -0.0160
27270W        W70261   0.410  15.655  24.130  0.0553 -0.2323  0.0187
27271W        W70262  22.702  18.414   0.778  0.0741  0.1173  0.0453
27272W        W70263  10.964  15.234  14.029  0.1871  0.1552  0.0940
27273W        W70264  29.996  23.844  19.665  0.1734  0.0517  0.1862
27274W        W70265   1.897  33.481   6.278 -0.0617  0.1651 -0.1557
27275W        W70266   8.938  17.150  25.114 -0.0062 -0.0482 -0.1467
27276W        W70267  32.495  12.066   7.147 -0.1214 -0.2203  0.0725
27277W        W70268   9.161  26.571  18.763  0.1089  0.2260 -0.0273
27278W        W70269   5.902  14.664  27.600 -0.4041  0.2011 -0.1284
27279W        W70270  18.574   8.593  13.221  0.0288 -0.2093  0.1526
27280W        W70271   2.665  16.985  17.803  0.0247 -0.0407  0.2408
27281W        W70272   6.676   4.630   0.294  0.1893 -0.1974 -0.2785
27282W        W70273  11.314  14.332   6.521 -0.2880 -0.2407 -0.2685
27283W        W70274   1.808  10.865   7.602  0.0051 -0.2425  0.2650
27284W        W70275  13.260  22.708  25.353 -0.2117  0.0837 -0.1313
27285W        W70276  31.105  14.850  18.262 -0.0619  0.0010 -0.0820
27286W        W70277  33.204  21.977  19.912  0.2029 -0.1052 -0.0058
27287W        W70278   5.950  21.799  22.243 -0.1620 -0.0768  0.0931
27288W        W70279  30.160  14.574  21.179  0.1807 -0.2539 -0.0861
27289W        W70280   9.499  16.704  16.169  0.1799  0.0509 -0.1127
27290W        W70281   8.065  16.394  18.441  0.0174 -0.1805  0.1140
27291W        W70282   6.679  11.201  22.432 -0.0070 -0.1959  0.4785
27292W        W70283  14.625  10.771  23.870 -0.2642 -0.2026  0.1120
27293W        W70284  15.045   3.788  26.893  0.2612 -0.0997  0.4154
27294W        W70285   9.459  16.697  22.140 -0.1122 -0.1272  0.1829
27295W        W70286  20.331  24.311  24.972 -0.0352  0.0834 -0.3491
27296W        W70287  32.647  20.755  15.914  0.0522  0.3279 -0.1051
27297W        W70288  12.179   9.284  17.190 -0.0011  0.2416 -0.0372
27298W        W70289  21.414  12.432   1.300 -0.1595  0.0822  0.3582
27299W        W70290  32.218  29.075   6.797 -0.0838  0.1089 -0.0978
27300W        W70291  16.086   8.293   3.947  0.0993  0.0638  0.0829
27301W        W70292  10.907  29.591  20.063 -0.0083 -0.2077  0.5297
27302W        W70293   7.771  11.045  23.773 -0.1730 -0.3063  0.2031
27303W        W70294   0.370  15.661  15.840 -0.2740 -0.0023  0.0609
27304W        W70295  33.471   0.646  24.812  0.2935  0.2468 -0.0686
27305W        W70296   0.435  18.891  24.834  0.0236 -0.1924 -0.0319
27306W        W70297   8.639  22.645  25.528 -0.3172 -0.2271 -0.1319
27307W        W70298  21.502   7.787  16.319  0.3109  0.1104  0.1679
27308W        W70299   5.513  26.497  23.381 -0.2221  0.0896 -0.2394
27309W        W70300   1.523  22.343   3.308 -0.4460  0.0578  0.2594
27310W        W70301  14.106  16.214  22.505 -0.0715  0.0090  0.1190
27311W        W70302   9.951  24.569  15.507  0.1214  0.4079 -0.1828
27312W        W70303  15.922   7.914  20.064 -0.1713 -0.0600 -0.1556
27313W        W70304  34.074   6.004  17.806 -0.0881 -0.1559  0.0445
27314W        W70305  14.278  20.698  17.374  0.0345  0.2311  0.1948
27315W        W70306  31.535   0.306  20.610 -0.1787 -0.0991  0.1656
27316W        W70307   9.876  15.356  20.198  0.0819  0.3165  0.0565
27317W        W70308  27.325  19.759   0.216  0.0732 -0.2638  0.1224
27318W        W70309   2.353  29.679   1.459 -0.3298  0.1985 -0.1777
27319W        W70310  33.736   2.507  24.373 -0.1201 -0.2524 -0.1771
27320W        W70311  29.525   5.705   8.738  0.1069  0.0442  0.0235
27321W        W70312   2.538  23.542  22.991  0.1773  0.1536 -0.1039
27322W        W70313  17.875  14.959   0.729 -0.1731  0.2437 -0.2006
27323W        W70314  10.745  15.155  28.404 -0.1444 -0.1119  0.1073
27324W        W70315  16.794  21.035  16.685  0.0442  0.0108  0.1608
27325W        W70316  14.779  18.005   6.481 -0.0187 -0.1417  0.0284
27326W        W70317   5.354  20.587  15.438 -0.0581 -0.0069 -0.0568
27327W        W70318   5.708   6.178   2.882 -0.2458 -0.0301  0.0471
27328W        W70319  25.204  15.909  13.967  0.2090  0.1882 -0.0982
27329W        W70320   1.918   2.377   2.946  0.2013  0.2079 -0.1324
27330W        W70321  12.926  31.207  26.000  0.3503  0.1803 -0.1116
27331W        W70322  29.283  31.203  22.463  0.3210  0.1848  0.0209
27332W        W70323  34.354  15.916  16.176  0.4505  0.0723 -0.2220
27333W        W70324   0.121  34.737  18.761  0.1058  0.0760  0.1058
27334W        W70325   9.193   5.109  23.523 -0.0510 -0.2281  0.0806
27335W        W70326   6.415  11.698  19.419 -0.1918  0.0568 -0.1534
27336W        W70327   8.895  13.338  23.832  0.1180  0.0565  0.3452
27337W        W70328   7.512  18.177  18.798 -0.2418 -0.2982 -0.1051
27338W        W70329  34.522   6.705   0.105 -0.1002  0.2457 -0.1174
27339W        W70330   1.417   5.020  18.324 -0.0855 -0.2149  0.1440
27340W        W70331  31.842  19.640   6.692 -0.1117  0.0198  0.0576
27341W        W70332  34.102   9.394   2.138  0.1305 -0.0899 -0.0983
27342W        W70333  33.204  31.430  13.754 -0.1010 -0.5280  0.0915
27343W        W70334   2.833  32.984   0.201 -0.0187 -0.2928  0.1897
27344W        W70335   2.535  15.209  20.380 -0.2319 -0.0314  0.0341
27345W        W70336   2.201  24.299  17.135  0.1718 -0.1731 -0.0503
27346W        W70337  18.100  12.286   7.047 -0.0059  0.0255  0.2034
27347W        W70338  26.907  29.941   3.061  0.0201 -0.3952 -0.0246
27348W        W70339  12.040  20.871   5.139 -0.0248  0.1267 -0.0761
27349W        W70340  15.646  22.691  15.997 -0.0517  0.0323  0.1303
27350W        W70341  28.173  17.624  24.154  0.2437 -0.0131  0.1133
27351W        W70342  32.416  15.829   1.883  0.0101 -0.3742 -0.1321
27352W        W70343  30.118  11.393  19.034 -0.0910  0.1962  0.0737
27353W        W70344   9.727  18.194  18.426  0.3103  0.0567 -0.2037
27354W        W70345  17.868  32.290  20.970  0.2006  0.1594  0.0722
27355W        W70346  14.370   2.773  18.360  0.0117 -0.0943 -0.1240
27356W        W70347  28.915  14.599  19.539  0.3050 -0.0784 -0.3519
27357W        W70348   3.614  22.927  26.435 -0.0416  0.1542  0.1096
27358W        W70349   6.703  33.996   6.831  0.1639  0.1802 -0.1667
27359W        W70350  13.681  17.864  21.570 -0.1488  0.1560 -0.1746
27360W        W70351  11.127  17.425  17.029 -0.5121  0.4120 -0.5036
27361W        W70352   0.383  12.200  28.056 -0.1284  0.1562 -0.0685
27362W        W70353   3.227   8.252  24.493  0.1743 -0.1438 -0.0321
27363W        W70354   7.364  17.231   1.747 -0.6464  0.0905 -0.1165
27364W        W70355   3.166  11.850  24.704 -0.1271 -0.0563 -0.1233
27365W        W70356   3.839  25.407  17.270 -0.4333 -0.0942 -0.2830
27366W        W70357   7.239  19.706   3.055 -0.1617  0.2990 -0.3615
27367W        W70358   6.835  15.522  22.814  0.4782  0.1568 -0.1175
27368W        W70359   1.571  26.250  27.726  0.1037  0.0517 -0.2146
27369W        W70360   7.441   0.268  21.936 -0.1982  0.0583 -0.5638
27370W        W70361   9.278   4.488  24.140 -0.0462 -0.0391 -0.0538
27371W        W70362  16.542   9.143  27.006 -0.2126  0.0448 -0.1319
27372W        W70363  34.091  19.598   9.008 -0.0751  0.0490  0.0287
27373W        W70364  10.588  30.728  27.621  0.2551 -0.1846 -0.0170
27374W        W70365  16.015   6.559   1.504  0.1772  0.0786  0.0260
27375W        W70366   9.663   7.749  28.291 -0.1766 -0.0752  0.1234
27376W        W70367   8.487  23.343  24.852 -0.0599 -0.1099  0.2144
27377W        W70368   9.525  25.969  17.097 -0.4451  0.0255  0.1739
27378W        W70369   5.343  18.720   0.494  0.2770 -0.1691 -0.0560
27379W        W70370   8.436  10.016   2.263 -0.0913  0.0203  0.0410
27380W        W70371  32.237   3.057   4.574 -0.3363  0.3901  0.1100
27381W        W70372  10.113  29.866   9.580  0.2363  0.0347 -0.0639
27382W        W70373  15.739  33.090  16.603 -0.3575 -0.1556  0.2555
27383W        W70374  31.119  17.082  16.977  0.1722 -0.4633  0.0494
27384W        W70375   8.151  13.949  24.416  0.0168  0.0849  0.0942
27385W        W70376  20.997  28.683  25.205  0.2020 -0.2740  0.1344
27386W        W70377  27.972  12.457   5.206 -0.2062  0.2213 -0.0623
27387W        W70378   5.902  26.081   2.842 -0.1617  0.1733  0.0868
27388W        W70379  14.776  14.580  15.515 -0.1115 -0.0566  0.3817
27389W        W70380  32.570  14.928  18.493 -0.0440  0.1537  0.1241
27390W        W70381  26.876  23.190   4.026 -0.0997  0.4329 -0.1430
27391W        W70382   9.959   9.136  10.947  0.0266 -0.1322  0.0184
27392W        W70383  26.796  12.653  28.556  0.1834 -0.0102 -0.1840
27393W        W70384  11.409   8.366   1.174 -0.2185  0.1902  0.0720
27394W        W70385  16.319  12.692  23.978  0.1578 -0.1642 -0.1407
27395W        W70386  33.979  22.223   3.880  0.1652 -0.1509  0.3136
27396W        W70387   4.413  27.177  22.104  0.1050  0.0174 -0.0363
27397W        W70388   7.773   2.894   4.743  0.0205  0.1092  0.3465
27398W        W70389  19.976  11.366  21.269 -0.1967 -0.0391  0.0707
27399W        W70390  14.025  13.957  14.582 -0.0253  0.1339  0.0723
27400W        W70391  16.458  14.941   6.252 -0.2142  0.1427  0.1333
27401W        W70392   1.370   4.397   7.056 -0.2103  0.3703  0.4203
27402W        W70393  32.560   6.440  25.276  0.0340 -0.1017  0.0756
27403W        W70394   3.188  18.245  21.831  0.2412 -0.0916  0.2985
27404W        W70395   4.693  33.363  21.009 -0.0626  0.0240 -0.0207
27405W        W70396   7.385  15.459   4.571  0.0168 -0.0763 -0.0374
27406W        W70397   9.111  23.627  19.080 -0.1428  0.1981  0.0761
27407W        W70398  24.143  24.419  22.585  0.1489  0.0649 -0.2028
27408W        W70399  10.617   2.744   0.118 -0.0973 -0.0390  0.1190
27409W        W70400  18.381  29.923   2.310  0.3847 -0.1065 -0.1748
27410W        W70401  22.549   6.735  28.330  0.0268  0.0970  0.0901
27411W        W70402  10.736  12.585  17.849 -0.1733  0.0741  0.0199
27412W        W70403  33.380  27.337  28.014 -0.0241 -0.3047  0.3748
27413W        W70404  34.418  20.907  23.439  0.0054  0.0130  0.0289
27414W        W70405  10.461  24.788  14.813  0.2074  0.1950  0.0397
27415W        W70406  29.799  11.724  27.718 -0.1187  0.0240 -0.0739
27416W        W70407   1.181   1.733  28.839  0.0059 -0.0289  0.6709
27417W        W70408   2.181  15.333   1.661  0.0995 -0.0298  0.2507
27418W        W70409   5.846  18.979  27.547  0.1846 -0.1417 -0.0010
27419W        W70410   2.936  13.715   4.902  0.1910  0.0251 -0.0525
27420W        W70411  25.454  21.260  17.435  0.0419 -0.0211 -0.0286
27421W        W70412   0.931  25.111  25.791 -0.0324  0.3231 -0.2487
27422W        W70413  34.453  21.842   0.754 -0.1351 -0.2258  0.0913
27423W        W70414  31.983   9.584  22.809  0.0410 -0.1993  0.1095
27424W        W70415   9.361  22.352  16.793  0.2057 -0.1127  0.1843
27425W        W70416  20.613  11.300   3.814 -0.0568 -0.1769  0.2558
27426W        W70417   6.725  16.239  19.433 -0.2298  0.0619 -0.0348
27427W        W70418   9.502  13.874  20.140  0.1178 -0.1183 -0.0384
27428W        W70419  31.833  28.562   8.962  0.1054  0.2479  0.0068
27429W        W70420  26.503   8.954  16.044 -0.1795 -0.2471 -0.1966
27430W        W70421   5.053  22.842  20.347 -0.1678  0.1697  0.3213
27431W        W70422   1.049  27.475   9.016 -0.1136  0.1497  0.1872
27432W        W70423   4.684  18.854  22.442 -0.1298  0.3365 -0.2228
27433W        W70424   0.062  32.155  27.496  0.0712  0.0790  0.2046
27434W        W70425   8.992  15.898  27.653  0.2717  0.2698  0.1311
27435W        W70426  32.498  12.950  24.849 -0.1801 -0.0137 -0.1987
27436W        W70427   9.537  11.570  19.172  0.0878  0.1087  0.0771
27437W        W70428  10.122  20.271  24.140  0.0208  0.0909  0.1370
27438W        W70429   5.753  13.026  24.766  0.3724 -0.1458 -0.0046
27439W        W70430  30.361   0.718  21.554  0.1354  0.0848 -0.1160
27440W        W70431  11.120  12.348  20.269  0.5563 -0.0796  0.3758
27441W        W70432   0.473  18.237  22.820  0.2250  0.0228 -0.1949
27442W        W70433  30.255  10.828   9.665  0.2195 -0.2115 -0.0300
27443W        W70434  30.587  13.938  24.255 -0.0035  0.1897  0.0147
27444W        W70435  15.917  11.298  23.036 -0.1748 -0.0309  0.0799
27445W        W70436  27.567  22.276  18.377 -0.1799 -0.2741 -0.2286
27446W        W70437  15.187  22.758  24.634  0.0633  0.2601  0.2482
27447W        W70438   2.493  25.813  23.239  0.2269 -0.2606  0.0520
27448W        W70439  22.775   0.415  26.323  0.0018  0.2152 -0.1204
27449W        W70440  18.476  10.953   9.025  0.0895 -0.2028  0.1428
27450W        W70441   3.851  20.551  25.891  0.4675 -0.4909  0.0698
27451W        W70442   6.073  25.367  25.748 -0.2322  0.2229 -0.0310
27452W        W70443  29.347   9.841   2.375 -0.0192 -0.0047  0.1182
27453W        W70444   2.291   5.111  17.030  0.0606  0.1976 -0.0267
27454W        W70445  12.579   8.765  17.535 -0.0796 -0.4829  0.0657
27455W        W70446   4.879  12.259  26.417  0.0955  0.4575  0.1368
27456W        W70447  10.005  17.322  27.627  0.1163  0.0987  0.0358
27457W        W70448  23.101   5.425   7.412  0.2549  0.0248 -0.2182
27458W        W70449  15.462  31.270  18.729  0.0083 -0.0570  0.1715
27459W        W70450   3.232  31.037   5.882 -0.1307  0.3190  0.1727
27460W        W70451   0.728  17.458  16.839 -0.2425  0.1876  0.0204
27461W        W70452  25.917  33.996  20.200  0.0934 -0.0949  0.0817
27462W        W70453  32.990  21.879  22.943 -0.0977  0.0626  0.3015
27463W        W70454  33.848   2.820  21.268 -0.0440  0.1358  0.2853
27464W        W70455  18.964  27.292  14.586 -0.0075  0.0265 -0.0699
27465W        W70456  33.719  24.599   6.928 -0.0644  0.0910  0.0273
27466W        W70457  12.496  27.724  28.077 -0.2568 -0.2019 -0.0860
27467W        W70458   9.423  18.217  26.735 -0.1863  0.0390 -0.1544
27468W        W70459  24.670  26.773  14.137 -0.1211 -0.0725  0.2370
27469W        W70460   4.931  23.636  14.179 -0.2741 -0.1106 -0.0635
27470W        W70461   6.228  14.463  26.715  0.0209  0.1262  0.0622
27471W        W70462  11.648  26.836  24.566 -0.0713 -0.0299 -0.1223
27472W        W70463   4.476  22.859  22.754  0.1957  0.1518 -0.1376
27473W        W70464  16.070   1.926  20.629  0.1707 -0.1425  0.0891
27474W        W70465   6.165  14.153  27.634 -0.0663  0.2930 -0.3209
27475W        W70466  13.720  31.909   2.018 -0.5215 -0.0553  0.1381
27476W        W70467  20.109  20.355  20.351 -0.4812  0.3219 -0.0227
27477W        W70468  13.156   7.257   0.676 -0.1802 -0.0383  0.0467
27478W        W70469  32.158   7.019  14.972  0.1331  0.0658  0.1710
27479W        W70470   7.379  33.141  19.333 -0.0421 -0.3016  0.1837
27480W        W70471  15.035  11.737  28.413  0.1649  0.0475  0.1999
27481W        W70472   6.084  27.300  17.613 -0.2151  0.2222 -0.2073
27482W        W70473  33.643  18.939  27.150  0.1742 -0.0250  0.0429
27483W        W70474  34.417  20.002   2.516 -0.0052 -0.1657  0.1781
27484W        W70475   8.549  34.113  18.082  0.1061 -0.1759 -0.0992
27485W        W70476  10.248  14.672  16.347 -0.1023 -0.0788  0.1300
27486W        W70477  23.508  12.834  26.452 -0.2229  0.0267 -0.2359
27487W        W70478  11.459  14.463   4.967  0.0114  0.1684  0.4176
27488W        W70479   2.999   9.730  17.370  0.4366  0.2507 -0.2818
27489W        W70480   5.729  31.876  21.480 -0.0494  0.1478  0.0972
27490W        W70481   0.964  13.039  20.282 -0.1610 -0.2097  0.0887
27491W        W70482  28.818   9.116  16.714  0.1543 -0.0458 -0.0804
27492W        W70483   5.872  13.006  15.764 -0.1533 -0.1793  0.1043
27493W        W70484   0.998  29.935  18.394  0.1253 -0.1365 -0.2580
27494W        W70485   8.245  14.514   5.233  0.2092  0.3097 -0.0366
27495W        W70486   0.220  34.680  21.943  0.0540  0.0774 -0.0191
27496W        W70487  30.104  33.369  16.024 -0.2347  0.2341  0.0737
27497W        W70488  24.725  33.442   0.085  0.0170  0.0436  0.1479
27498W        W70489   5.556  20.793  28.347 -0.2077  0.0637 -0.1176
27499W        W70490  28.164  17.297  26.526 -0.3878 -0.1706  0.0071
27500W        W70491  34.292   0.539  14.658  0.2292 -0.3985 -0.2459
27501W        W70492  26.558   4.301  18.838  0.0074 -0.0844 -0.2003
27502W        W70493  14.287   4.752  19.640 -0.1254 -0.1884 -0.3086
27503W        W70494   9.979  12.644   3.155  0.4021 -0.0261  0.3300
27504W        W70495  10.747  30.324  22.859 -0.1388  0.2805 -0.1669
27505W        W70496  21.015  19.322  24.492  0.0102  0.0476  0.1951
27506W        W70497   5.321  22.831  27.518  0.2364  0.1175 -0.3566
27507W        W70498  11.756  12.506  26.632  0.1356  0.1294 -0.0515
27508W        W70499   1.840  21.493  29.243 -0.2558 -0.0480  0.2366
27509W        W70500  25.239  14.674  25.621  0.0591 -0.0738 -0.2812
27510W        W70501  14.106   3.355  19.179  0.1037 -0.2370 -0.0388
27511W        W70502   9.858  22.202  16.016 -0.1555 -0.1371  0.4636
27512W        W70503   5.285  32.033  19.863 -0.1370 -0.0060 -0.0455
27513W        W70504  14.815   5.973  14.952  0.3683  0.0910 -0.2537
27514W        W70505  11.976  17.190   3.088 -0.0559 -0.1143  0.1421
27515W        W70506   4.697  31.631  17.361  0.2054 -0.0310  0.0985
27516W        W70507  33.233  25.143  19.510  0.3744  0.0979  0.2057
27517W        W70508  13.049  31.157   8.299 -0.3495 -0.1173  0.2055
27518W        W70509  20.208  20.682  18.727  0.2077  0.2582  0.1498
27519W        W70510   7.560   7.311   7.433 -0.1478  0.2194  0.0391
27520W        W70511   5.618  17.380  10.622 -0.3178 -0.0351  0.1406
27521W        W70512  10.637   3.911  17.099  0.2223 -0.0432 -0.0082
27522W        W70513   5.930  12.103   1.537 -0.0336  0.1304 -0.1129
27523W        W70514  26.660  31.357  19.066  0.3826  0.2276 -0.1062
27524W        W70515  21.709  31.154  22.131  0.3904 -0.0666  0.1955
27525W        W70516   4.987  18.560  16.466  0.2938  0.0882  0.0602
27526W        W70517  28.805  19.766  23.016 -0.2629  0.0653 -0.1899
27527W        W70518  17.441  21.742   4.426  0.2472 -0.2307 -0.1727
27528W        W70519   1.487  23.731  28.420  0.2441 -0.2708  0.1912
27529W        W70520  30.616  13.464   4.834  0.0551  0.0091  0.1144
27530W        W70521  29.926  20.690  24.450  0.3584  0.0525 -0.4470
27531W        W70522   1.693  15.414  10.838 -0.3788 -0.1626 -0.1140
27532W        W70523  26.214   5.434  26.032 -0.2982 -0.1418 -0.0178
27533W        W70524  31.486  17.634  23.692 -0.2024 -0.0335  0.0654
27534W        W70525  20.155  13.869  16.536  0.1773 -0.0513 -0.2153
27535W        W70526  27.897  12.980   8.169  0.2095  0.0747  0.0701
27536W        W70527  32.855  29.062  23.804 -0.3398  0.0386  0.1111
27537W        W70528  11.798   3.030  16.530 -0.1172 -0.1860 -0.1971
27538W        W70529   4.612  21.825  16.918  0.3416  0.0544  0.2479
27539W        W70530   0.686  33.001  25.161 -0.0601  0.1414  0.0999
27540W        W70531   3.204  10.358  17.108  0.3054 -0.3178  0.3352
27541W        W70532  19.090  22.528  28.917  0.1077 -0.1090 -0.1423
27542W        W70533  34.742   1.746  22.983  0.1330 -0.1116  0.0060
27543W        W70534   2.296   7.802  21.194  0.0061  0.0102 -0.2985
27544W        W70535  18.177   8.712  23.251 -0.0123 -0.0934 -0.0861
27545W        W70536   9.126  21.190  15.446 -0.1614 -0.0716  0.0568
27546W        W70537  31.224  14.885  25.186  0.3016  0.2332 -0.0238
27547W        W70538  13.467  15.778  15.150  0.2554 -0.1589 -0.0477
27548W        W70539   5.338  32.707  20.405  0.3792  0.1144 -0.0185
27549W        W70540  11.366  17.294  21.008 -0.0557 -0.1103  0.0012
27550W        W70541  19.630   9.236  20.436  0.3739 -0.1564  0.3929
27551W        W70542  27.912  18.785  21.028  0.1562  0.2071 -0.0394
27552W        W70543   7.346  21.117  25.803 -0.1683 -0.4026 -0.1510
27553W        W70544   7.547  13.953  22.821 -0.3883  0.2103  0.1452
27554W        W70545   4.719  32.451  25.408 -0.2466 -0.0832  0.1588
27555W        W70546   4.746  19.429  24.661 -0.1909 -0.0648  0.2369
27556W        W70547   8.841  14.982  28.021 -0.1787  0.0050  0.2132
27557W        W70548  30.467   9.183  27.658 -0.0862  0.0854 -0.1068
27558W        W70549  32.662  26.272  26.325  0.0959  0.1562 -0.1238
27559W        W70550   8.738  12.270   5.856  0.0501 -0.0625 -0.4243
27560W        W70551   6.859  23.853  20.006  0.1894 -0.0320  0.0328
27561W        W70552  28.000   2.905   1.452  0.0713  0.2817  0.2578
27562W        W70553  32.924  16.092  18.260  0.0089 -0.1920  0.1845
27563W        W70554  14.484  31.172  28.175  0.3504 -0.0956  0.0852
27564W        W70555  26.075  19.835  20.265 -0.1743  0.1163  0.1552
27565W        W70556   4.187   9.804  23.080 -0.1421 -0.0878 -0.6899
27566W        W70557  22.410  22.213   4.893 -0.2916 -0.3630  0.0975
27567W        W70558   0.667  18.967  19.208  0.1312  0.1339  0.3123
27568W        W70559  20.779  27.629  21.454  0.1999 -0.2171  0.1030
27569W        W70560  14.298  16.271  14.705  0.0531 -0.1490  0.1440
27570W        W70561  27.678  20.126   0.338  0.2352 -0.0897 -0.0661
27571W        W70562  15.877  13.796  29.043  0.0062  0.1229 -0.1808
27572W        W70563  14.451  18.208  15.649  0.2727  0.1266  0.1158
27573W        W70564   7.765  23.341  22.247 -0.4243 -0.1642 -0.0525
27574W        W70565  31.671  33.211  27.325 -0.1705 -0.1634 -0.3805
27575W        W70566   1.221  18.774  21.225 -0.3274 -0.0959  0.3562
27576W        W70567  26.732  17.194  22.975  0.0187 -0.1703  0.0374
27577W        W70568   2.155  13.356  22.583 -0.0146  0.3137 -0.2884
27578W        W70569  33.477  15.303  18.546  0.2200 -0.0543  0.3632
27579W        W70570   7.270  16.892   6.311 -0.0018 -0.0040  0.1932
27580W        W70571  29.984  32.354  22.345 -0.2855 -0.0216  0.2347
27581W        W70572  14.185  23.275  14.871  0.2944 -0.0023 -0.2877
27582W        W70573   3.192  22.850  28.227 -0.0965  0.0946 -0.1327
27583W        W70574  14.057  18.357  28.297  0.0260  0.3326  0.1663
27584W        W70575  10.767  31.950  17.601 -0.1179 -0.0937  0.2450
27585W        W70576  31.588  21.132  23.228 -0.5034  0.0606  0.2289
27586W        W70577   5.065  15.745   1.352 -0.0892  0.2779  0.1127
27587W        W70578   8.234  14.014  23.331 -0.3034 -0.1255  0.0611
27588W        W70579  27.116  19.532  14.839 -0.2698  0.1057  0.1239
27589W        W70580   6.600  25.811  16.644 -0.0892 -0.1094  0.1644
27590W        W70581   6.541  16.359  21.195 -0.0905 -0.1427 -0.0206
27591W        W70582   0.849   6.227  19.666  0.0310 -0.1260 -0.1102
27592W        W70583  26.273   9.077  24.143 -0.0510  0.2660  0.2303
27593W        W70584   5.891  23.631  25.076  0.0797  0.1129  0.1218
27594W        W70585  31.224   9.123  22.673  0.0336 -0.0833  0.1133
27595W        W70586   0.285   4.484  24.457 -0.3215  0.0967  0.0896
27596W        W70587   7.323  25.636  23.638 -0.3438  0.2561  0.1788
27597W        W70588   6.767  19.220  19.566 -0.0793  0.0069  0.0743
27598W        W70589  32.756  18.553  19.682  0.0411 -0.1874  0.0145
27599W        W70590  20.438  18.362  29.111 -0.1407  0.0473  0.2582
27600W        W70591  31.224  26.264  24.562 -0.0351  0.2341  0.0839
27601W        W70592  32.236  10.249   2.145  0.1093  0.0497 -0.1875
27602W        W70593  34.432  22.547  16.820 -0.0509  0.3124 -0.2346
27603W        W70594  33.711  18.316  24.717  0.0933 -0.0521  0.0934
27604W        W70595   1.376  19.046  17.789  0.2121 -0.1084  0.0416
27605W        W70596  28.352  27.408  28.177  0.1295 -0.0100 -0.3222
27606W        W70597  10.685  13.293  23.918 -0.0391 -0.0939 -0.2984
27607W        W70598   2.912  12.462  18.031  0.0758  0.0569 -0.0864
27608W        W70599   9.795  23.453   6.622 -0.0516  0.2591  0.0714
27609W        W70600  23.807   6.988  20.856 -0.1645  0.0584  0.1477
27610W        W70601   6.571   8.685  19.822 -0.1433 -0.0924  0.1728
27611W        W70602  26.945  28.724   5.626 -0.3281  0.1032  0.0619
27612W        W70603   5.614  15.569  19.649 -0.1309 -0.2596  0.0024
27613W        W70604   5.575  32.464  26.165 -0.2521  0.0256  0.1988
27614W        W70605  30.709   7.224  29.144 -0.0080 -0.0855 -0.0295
27615W        W70606   5.994  26.845  16.191  0.0055  0.0448  0.1562
27616W        W70607  10.200  12.559  15.498 -0.0439 -0.2141  0.2190
27617W        W70608  22.301  18.752  14.045  0.1758  0.0958 -0.4061
27618W        W70609   6.686  16.156  22.216 -0.2102 -0.0056 -0.1103
27619W        W70610  27.644  23.607   8.479  0.1576 -0.1358 -0.2649
27620W        W70611  11.762  21.030  27.900  0.2219  0.0933  0.1608
27621W        W70612   3.943  11.336   5.883  0.0798  0.1126  0.0164
27622W        W70613  12.447   4.329   9.037  0.3956 -0.3291  0.1158
27623W        W70614  12.661  21.037  19.340 -0.1211 -0.0764 -0.0784
27624W        W70615   2.565   9.367   4.150  0.0005  0.1242 -0.0012
27625W        W70616  32.400  27.353  17.174  0.1912  0.3088 -0.2592
27626W        W70617   7.767   2.065   1.292  0.1829 -0.0110 -0.4716
27627W        W70618   2.082   3.335   2.093  0.0095 -0.1812 -0.0061
27628W        W70619   0.703  27.543  22.631 -0.0882  0.2044  0.1370
27629W        W70620   7.493  16.147  19.790 -0.1242  0.0148  0.1598
27630W        W70621  20.881  19.726   5.321 -0.5228 -0.0340 -0.2286
27631W        W70622   9.582  27.578   5.860  0.3577  0.1764 -0.0407
27632W        W70623  16.155  12.701  23.383  0.0548 -0.2199  0.1896
27633W        W70624  20.590  19.945  22.280  0.0971  0.2139 -0.0143
27634W        W70625  20.621  29.413  18.213  0.2078  0.1350 -0.2125
27635W        W70626  18.900   7.479  18.231 -0.4730  0.1514 -0.1087
27636W        W70627  28.102   3.977  19.391  0.1235  0.0234 -0.1237
27637W        W70628   2.074  16.008  20.907 -0.2351  0.0726 -0.0550
27638W        W70629   8.420  11.679  15.098  0.0868  0.2757 -0.0558
27639W        W70630   6.369   9.531  21.291 -0.3686  0.2276  0.1742
27640W        W70631   4.641   9.054  25.103  0.1394  0.1140  0.4867
27641W        W70632  16.310  14.085  13.690  0.3216  0.4168 -0.3750
27642W        W70633   1.874   8.186  21.612 -0.0866  0.2345 -0.2345
27643W        W70634  14.316  15.079  24.206  0.4495 -0.2841 -0.1564
27644W        W70635   3.913   7.257  16.272  0.0333 -0.1081 -0.0366
27645W        W70636  13.118  15.680  27.603  0.1853 -0.1777  0.0595
27646W        W70637   8.066  11.356  22.433  0.0443 -0.1842  0.0294
27647W        W70638   6.086  19.199  19.459 -0.1830  0.0277 -0.0719
27648W        W70639  13.517  18.708   6.508  0.2292  0.1624  0.0726
27649W        W70640  13.387  11.267  24.644  0.0775  0.4071  0.2468
27650W        W70641  14.691  13.982  20.421  0.0715 -0.0918  0.2453
27651W        W70642  13.441   8.917   2.070 -0.1941  0.0574  0.1700
27652W        W70643  29.991  14.060  21.341  0.1535  0.3657  0.1170
27653W        W70644   8.583   6.253  16.903  0.2788  0.1121 -0.0395
27654W        W70645   1.291  20.392  24.519 -0.1513 -0.0585 -0.1758
27655W        W70646  13.261   5.513  16.718 -0.0881 -0.0539  0.1146
27656W        W70647  21.692   7.093  16.497  0.0072  0.0274 -0.2068
27657W        W70648   3.135  13.762   1.475  0.1164  0.0456  0.4673
27658W        W70649  28.353  23.756  15.225  0.1727  0.0442  0.1070
27659W        W70650  20.722  17.916   2.285  0.1673 -0.0029  0.2165
27660W        W70651  31.946  20.132  23.968  0.3680  0.0823 -0.0170
27661W        W70652   8.486  34.412  24.084 -0.1091 -0.0071  0.0848
27662W        W70653   1.926  13.258   4.476 -0.1067 -0.0094 -0.0685
27663W        W70654  12.594   2.772   0.499  0.1636 -0.2678 -0.1839
27664W        W70655   5.855  25.337   9.620 -0.1211 -0.0147  0.0144
27665W        W70656  27.322  27.496  28.270 -0.1600 -0.0392  0.0366
27666W        W70657  12.296   4.270  25.941 -0.1686  0.0036 -0.0118
27667W        W70658   2.271   7.233   5.077 -0.0234 -0.1257  0.2053
27668W        W70659  15.559  24.293  26.862  0.0199  0.2900 -0.1514
27669W        W70660  25.072  19.517  23.437 -0.1422 -0.1608 -0.0491
27670W        W70661  13.178  27.140   3.896  0.0259  0.4344  0.0652
27671W        W70662  19.812   8.750  22.557 -0.0573 -0.3655 -0.1394
27672W        W70663  30.633   3.398  27.429 -0.1653 -0.1789  0.3225
27673W        W70664  12.988  14.550  21.046  0.1898  0.0881 -0.1075
27674W        W70665  19.406  22.261  23.328  0.2818  0.2764  0.1783
27675W        W70666  33.648  25.312  14.887 -0.0021 -0.0163 -0.1809
27676W        W70667  17.649   5.254  25.455 -0.1317  0.0856  0.2322
27677W        W70668  22.004   7.837  16.162 -0.1164  0.0190  0.0850
27678W        W70669  21.229  18.942   2.912  0.2459  0.2938  0.1460
27679W        W70670   2.827  33.467  24.563 -0.0960  0.1251 -0.0835
27680W        W70671   3.898   6.913  24.138  0.0769  0.5414 -0.2486
27681W        W70672  13.617  19.197   8.444  0.1597 -0.2425  0.4024
27682W        W70673  33.683  12.446  10.062  0.1519 -0.0811 -0.0210
27683W        W70674   7.676  17.220  15.890 -0.0400 -0.0468  0.2892
27684W        W70675  33.859  13.186   0.969  0.1943  0.0233  0.0473
27685W        W70676   6.104   5.237   8.430 -0.1108 -0.0641  0.1347
27686W        W70677  24.291  16.086  17.655 -0.0617 -0.3448 -0.0970
27687W        W70678  13.675  19.185  25.930  0.1005  0.0924 -0.1417
27688W        W70679   2.186  16.795   6.192  0.1208 -0.1450 -0.2466
27689W        W70680  34.332  19.286  21.889  0.1304 -0.1724  0.0243
27690W        W70681   7.701  32.570  19.957 -0.0679 -0.0872 -0.0101
27691W        W70682  24.027   8.054  24.879  0.1529 -0.2245  0.0246
27692W        W70683   3.978  19.222   5.138  0.0560 -0.1079  0.1867
27693W        W70684  18.780  10.106  26.259  0.2265 -0.1441  0.0446
27694W        W70685  21.951  22.451  25.433  0.1160 -0.0679 -0.2449
27695W        W70686  30.231   7.280   7.666  0.2788  0.2555  0.1179
27696W        W70687   3.524  11.104  10.329 -0.0247  0.0083 -0.2805
27697W        W70688  33.916  18.666  24.361  0.2479  0.1914 -0.0147
27698W        W70689   1.145   9.215  19.277  0.1421  0.0169  0.2156
27699W        W70690   7.251  15.897   6.531 -0.1299  0.2849  0.0444
27700W        W70691   4.406  15.702  18.676  0.3218 -0.2454  0.0513
27701W        W70692   4.282  16.364  15.312  0.0665 -0.0883 -0.1372
27702W        W70693  34.278   9.257  23.448  0.0614  0.1988 -0.1663
27703W        W70694  28.741  19.991   9.453  0.0239  0.0432  0.0582
27704W        W70695  12.105   2.862   4.957  0.1607  0.1104  0.2418
27705W        W70696   7.476  27.505  15.621  0.0094 -0.2284  0.0794
27706W        W70697  24.052  32.462  22.592 -0.1378  0.1133  0.0544
27707W        W70698   4.882   9.760  17.186 -0.2080 -0.1113  0.1476
27708W        W70699   7.216  11.869  28.867  0.1342  0.0479 -0.1586
27709W        W70700   3.626   2.230   4.102  0.0299  0.1868 -0.2509
27710W        W70701   6.350  15.367  18.493 -0.1700  0.0814  0.0216
27711W        W70702  15.055  12.114  25.311 -0.0143  0.1572  0.1047
27712W        W70703  23.275   6.157   7.981  0.0500 -0.1688 -0.0342
27713W        W70704   8.348  19.866   5.998 -0.1470 -0.0129 -0.0990
27714W        W70705   9.490  16.508  27.458  0.1368 -0.0988 -0.1658
27715W        W70706  25.831  12.678  17.002  0.2114 -0.2936 -0.0663
27716W        W70707  18.874  17.975   1.326  0.0062 -0.0798  0.0946
27717W        W70708  11.135  13.680  28.573  0.1313 -0.3314 -0.1645
27718W        W70709   3.768  14.766  24.645  0.2946  0.2246  0.4801
27719W        W70710  18.325  21.115  26.279 -0.1209 -0.0287 -0.0283
27720W        W70711  18.261  24.092   2.655  0.0315 -0.2918 -0.0395
27721W        W70712  28.583   0.984  20.162 -0.1916  0.1010  0.0199
27722W        W70713  11.918  34.041  28.461 -0.2003 -0.0631 -0.0732
27723W        W70714  28.712  28.236  19.355 -0.1244  0.0858 -0.1975
27724W        W70715  12.927  11.342   2.761 -0.2502 -0.2263 -0.3835
27725W        W70716  34.125  15.274   5.068  0.1173  0.1768 -0.0228
27726W        W70717   8.901  15.437  17.113  0.0674  0.2053 -0.1113
27727W        W70718  13.841   6.801  22.969  0.0703  0.0147 -0.0307
27728W        W70719   9.662  15.768  18.640 -0.1457  0.0065  0.0250
27729W        W70720  10.152   7.001  28.949 -0.0838  0.2835 -0.1295
27730W        W70721  18.382  18.225  14.311  0.0568  0.0054  0.0790
27731W        W70722  34.241  24.164  26.131  0.2423 -0.1453  0.0423
27732W        W70723   2.089  11.555  19.331 -0.3761  0.2903 -0.1301
27733W        W70724  27.610   4.630  19.497 -0.0654  0.0390 -0.0720
27734W        W70725  29.170  23.245  22.157  0.1881 -0.0124  0.2591
27735W        W70726  34.628  10.189   0.945 -0.1807  0.2021  0.0729
27736W        W70727  23.788  26.543  25.866  0.0554  0.0316  0.0978
27737W        W70728  12.017  29.868  23.548  0.1626  0.0603  0.0202
27738W        W70729   0.875   5.376  19.356 -0.3965  0.0641  0.0633
27739W        W70730   9.123  12.476  25.122 -0.0601  0.0746 -0.0160
27740W        W70731   5.464   5.444   5.986  0.0221  0.0576  0.4670
27741W        W70732   6.704   8.997   0.415 -0.0626 -0.2838  0.0788
27742W        W70733  27.435   3.805  23.325  0.3997  0.2775 -0.1180
27743W        W70734  28.987  29.323   5.016  0.1070 -0.5030 -0.3242
27744W        W70735  31.414  32.359   3.951  0.0376 -0.0331 -0.0659
27745W        W70736   4.645  11.618   6.353  0.2082  0.0024  0.0947
27746W        W70737   0.122  20.111  24.923  0.1243  0.2151  0.1319
27747W        W70738  11.687  12.004  25.501 -0.1851  0.0023 -0.0080
27748W        W70739  10.486  17.604  29.144  0.1639 -0.1231  0.0075
27749W        W70740   8.828  13.916   0.018  0.2929 -0.2477  0.1114
27750W        W70741   0.551   6.605   9.372 -0.0654 -0.3137 -0.3312
27751W        W70742   1.002   6.016  18.390 -0.0439  0.2522  0.1529
27752W        W70743  17.137  29.074  18.871 -0.0134  0.1458  0.0209
27753W        W70744  16.900  33.636  28.862  0.0794 -0.2623 -0.3890
27754W        W70745   7.364   9.194   4.813 -0.0342 -0.3073 -0.0422
27755W        W70746  22.715  10.536  18.474  0.1262 -0.2623  0.0406
27756W        W70747  10.170  14.224  17.365 -0.1452 -0.1045  0.2541
27757W        W70748   2.464  14.818   4.213  0.0111  0.0417  0.1062
27758W        W70749  27.073  14.415   5.370 -0.0875 -0.0346 -0.1007
27759W        W70750  12.525  14.328   8.875  0.1643 -0.1417  0.0569
27760W        W70751  34.259   1.651  28.677  0.1232  0.1059  0.2659
27761W        W70752  26.694  23.055  21.664  0.1837 -0.1277  0.0977
27762W        W70753   8.227  16.086  21.587 -0.0475  0.0751 -0.1674
27763W        W70754   0.184  20.867   7.591  0.0552  0.1174 -0.0527
27764W        W70755   8.730  20.774  29.223  0.1825  0.1641  0.4361
27765W        W70756   2.387  27.546   7.197 -0.1343  0.0395  0.1968
27766W        W70757  31.755  23.427  23.230 -0.0466  0.1266  0.0181
27767W        W70758  32.667   6.567   3.833 -0.0415 -0.1200 -0.0386
27768W        W70759   6.968  19.005  15.899  0.0007 -0.0002 -0.0415
27769W        W70760  29.093  19.352  21.127 -0.1674 -0.2856  0.1404
27770W        W70761  10.717  23.638  18.800  0.0257  0.0626 -0.0659
27771W        W70762  31.648   5.442  23.534 -0.0455  0.0327 -0.0766
27772W        W70763  17.492  25.729  21.699 -0.0023 -0.4962 -0.0413
27773W        W70764   0.364   4.123  27.539 -0.2118  0.1753  0.1875
27774W        W70765  30.937  19.381   2.031 -0.2177  0.1361  0.2368
27775W        W70766  31.288   3.487  26.100 -0.3334  0.2260  0.1038
27776W        W70767  25.148  24.025  20.607  0.1299 -0.0197 -0.2293
27777W        W70768   8.588  27.078  21.595  0.1929 -0.0978 -0.0413
27778W        W70769  21.569  28.726  25.779  0.3177 -0.0361 -0.0030
27779W        W70770   5.272  18.137  28.496  0.3695 -0.2274  0.2316
27780W        W70771  18.775  11.895  15.433  0.0738 -0.1423 -0.1139
27781W        W70772   0.941  16.665  17.196 -0.0816 -0.2875 -0.2376
27782W        W70773  13.241  11.768  27.184  0.0034  0.1833 -0.0311
27783W        W70774   3.451  28.146  19.988  0.1858  0.0538  0.1294
27784W        W70775  10.538  26.814  19.010  0.0756 -0.0632 -0.4845
27785W        W70776  33.301  30.631  26.304  0.1147  0.1467 -0.0959
27786W        W70777  25.136  20.372   4.450  0.0928 -0.1109  0.1942
27787W        W70778   1.116  12.480  22.799  0.2783 -0.1000 -0.0442
27788W        W70779  13.743  27.389  24.717  0.0445 -0.2396 -0.1136
27789W        W70780  15.057  16.104   0.610  0.1391 -0.0225 -0.1728
27790W        W70781  17.208  18.817  13.933  0.0526  0.1568 -0.3875
27791W        W70782   5.903  19.132  22.248 -0.1400 -0.0526  0.1652
27792W        W70783  24.880  22.394  13.804 -0.0017 -0.1349  0.4228
27793W        W70784  24.092   4.170  15.290 -0.0505  0.1182 -0.0780
27794W        W70785  11.707  32.623   6.259  0.0669 -0.0867 -0.0101
27795W        W70786   0.310  23.061  23.157 -0.3021 -0.0611 -0.2751
27796W        W70787  10.836   9.337  28.806 -0.0430 -0.1285  0.1276
27797W        W70788   4.019  12.460  22.531  0.0114  0.0308  0.0280
27798W        W70789  12.457  10.369  27.769  0.0770 -0.0788 -0.1089
27799W        W70790   1.295   8.932  18.850  0.0895  0.3852  0.3004
27800W        W70791   0.313  12.574  16.750 -0.0939 -0.0025  0.2229
27801W        W70792  10.558  12.184  10.226  0.2641 -0.0698  0.1470
27802W        W70793   5.546   2.011   8.697  0.1676 -0.3127  0.1964
27803W        W70794  28.952  10.870  26.534  0.1538  0.1358  0.1714
27804W        W70795  27.494  26.801   8.300 -0.0981 -0.0438  0.0631
27805W        W70796  18.244  32.359  23.568  0.3618  0.0349 -0.0774
27806W        W70797  18.519   4.278  15.823  0.1768  0.2853 -0.1524
27807W        W70798  20.850  14.972  17.130  0.2729 -0.2394  0.0411
27808W        W70799   1.232  22.439   7.268 -0.2257  0.0038 -0.1274
27809W        W70800   6.339  14.114   3.237 -0.1053 -0.0683  0.0392
27810W        W70801  14.510   1.840   9.699  0.1068 -0.1127  0.0924
27811W        W70802  11.106  13.283   3.098  0.1599 -0.1293 -0.3956
27812W        W70803   6.268   9.541  22.262 -0.1463  0.1751 -0.0847
27813W        W70804  14.829  10.911  21.677  0.2169 -0.0479  0.2251
27814W        W70805  29.038   1.324  17.108 -0.3037 -0.3272  0.2981
27815W        W70806   0.192  20.876   5.493  0.0831  0.1344 -0.1853
27816W        W70807   4.578  22.267  14.261  0.0971  0.3461 -0.2008
27817W        W70808   2.933  11.462  17.983 -0.1438 -0.2298 -0.0756
27818W        W70809  11.031  18.480  17.821  0.0324 -0.2978  0.0001
27819W        W70810  34.707  11.852  26.079  0.0457 -0.0514 -0.1408
27820W        W70811   0.751  18.256  10.345 -0.2213  0.2420  0.0177
27821W        W70812   9.542  11.382  23.006  0.1349 -0.3748 -0.1509
27822W        W70813   5.443  11.777  21.412  0.1557  0.0170 -0.1742
27823W        W70814  13.781  17.094   1.976  0.1857  0.1094 -0.1909
27824W        W70815  26.910  22.110  16.527  0.0963  0.3310  0.0299
27825W        W70816   0.535  16.856  28.672  0.1680 -0.3627 -0.2280
27826W        W70817  34.463  20.377   3.948 -0.0695 -0.2916 -0.3700
27827W        W70818   9.587  20.092  28.768 -0.1560 -0.0808 -0.1534
27828W        W70819   2.023  17.956  17.373 -0.0425  0.1039  0.1488
27829W        W70820  10.853  20.001   6.027 -0.0440  0.1489 -0.1062
27830W        W70821  19.365  29.522  27.259 -0.2356 -0.0620 -0.1773
27831W        W70822  18.803  20.488  26.954  0.1244  0.0507 -0.1094
27832W        W70823  15.185  20.348   3.849  0.1190 -0.0473 -0.0296
27833W        W70824  13.352   1.536  28.248 -0.0591 -0.2157  0.2180
27834W        W70825  12.617   6.754  20.175 -0.3023 -0.1759 -0.0922
27835W        W70826   2.697   9.994   6.976 -0.0937  0.3610  0.0271
27836W        W70827   5.688  21.577   0.904  0.1372 -0.1374 -0.0742
27837W        W70828   7.760  11.107  11.292 -0.1581  0.1972  0.0866
27838W        W70829  34.251   5.304   2.490 -0.0295  0.2805 -0.2671
27839W        W70830  19.623   8.013  21.965 -0.1345 -0.2177 -0.2067
27840W        W70831   3.363  25.549  17.167 -0.0252  0.3065  0.1045
27841W        W70832  17.989  11.063  21.305  0.0330  0.0836  0.1148
27842W        W70833   0.459  27.756  21.601 -0.2066  0.1509 -0.0486
27843W        W70834   4.401  25.605  18.560  0.0593 -0.1008  0.0134
27844W        W70835  33.561  13.689   4.287 -0.1378  0.0149 -0.2304
27845W        W70836  18.275   8.156   0.633  0.2675  0.1349 -0.1709
27846W        W70837  15.549  14.859   3.186  0.3217  0.2356 -0.0869
27847W        W70838   0.063   8.924  16.149 -0.1443  0.0641  0.0414
27848W        W70839  14.280  16.749   4.049 -0.0064 -0.0381 -0.1244
27849W        W70840  31.366  22.378   4.932  0.1954  0.0431  0.2092
27850W        W70841  12.367  31.060  19.774  0.0887 -0.0024 -0.1789
27851W        W70842  34.316   3.081  28.519 -0.1806 -0.4187 -0.2155
27852W        W70843   7.396  10.689  22.494  0.4588  0.2616  0.0117
27853W        W70844   1.283  17.571   4.737 -0.1363  0.0244 -0.1171
27854W        W70845   8.548  26.907  28.970 -0.1882 -0.0972 -0.0406
27855W        W70846  33.556   4.434   5.034  0.2157  0.1171 -0.0842
27856W        W70847   3.009   9.106   3.773 -0.0067 -0.0457  0.1606
27857W        W70848  11.711  10.801   2.849 -0.1254 -0.1844 -0.3218
27858W        W70849   4.705  23.897  16.051  0.1632  0.0849  0.0347
27859W        W70850  33.510   8.006  17.768 -0.2508 -0.3297 -0.1325
27860W        W70851  13.220   9.348   5.346  0.1435  0.2037 -0.1744
27861W        W70852   3.533  15.156  16.299 -0.1243 -0.3833 -0.1276
27862W        W70853  10.627  15.448  22.041  0.4200  0.0951 -0.0531
27863W        W70854  11.479   0.625   6.886  0.0087  0.3309  0.0378
27864W        W70855  20.225  10.005  14.925  0.0312  0.3306 -0.2127
27865W        W70856   8.410  12.050  25.719 -0.1980  0.0017 -0.1422
27866W        W70857   7.992  17.402  25.892  0.3449  0.1380 -0.3972
27867W        W70858   3.227  20.074  22.554  0.0474  0.0026 -0.0646
27868W        W70859   2.083  17.183  26.996 -0.0313 -0.1985 -0.1274
27869W        W70860  19.848  23.223  20.231  0.0085 -0.2863  0.3257
27870W        W70861   1.597  19.814   0.192 -0.0679  0.3188  0.1136
27871W        W70862   7.694  19.664  20.979  0.1103  0.0316 -0.1621
27872W        W70863  11.051   2.346  15.680 -0.0630  0.1652 -0.2081
27873W        W70864  28.088  16.731   8.545  0.0446  0.1107 -0.0041
27874W        W70865  28.466  16.927   1.785 -0.2609 -0.0232 -0.2978
27875W        W70866  26.635  32.981  23.213 -0.2900 -0.0075  0.0295
27876W        W70867   6.978  18.555  24.214 -0.1180  0.1801 -0.0850
27877W        W70868  33.460  16.260  27.357  0.3132  0.0046  0.0006
27878W        W70869  12.329   7.537   6.130 -0.0450 -0.0243  0.0572
27879W        W70870  15.302  26.865  20.877 -0.0419 -0.0106  0.2846
27880W        W70871   6.068  13.633  17.998 -0.1640  0.1206  0.1391
27881W        W70872   3.737  27.059  22.839 -0.0027  0.0623 -0.6225
27882W        W70873  15.801  14.235  27.778  0.0989 -0.0936 -0.1134
27883W        W70874  15.709  24.083  14.715  0.1303  0.2788 -0.2971
27884W        W70875  23.139  17.630  28.024 -0.1301 -0.1616 -0.0799
27885W        W70876   4.704  24.725  25.942  0.0234  0.3454  0.1236
27886W        W70877  20.828  11.414  22.213  0.0752 -0.1487  0.2520
27887W        W70878  19.074   8.698  17.960 -0.1760 -0.1814 -0.1961
27888W        W70879  23.951  16.624  20.601 -0.0734  0.0578 -0.0138
27889W        W70880   1.537  14.539   2.346  0.0574 -0.4072 -0.2147
27890W        W70881  11.805  15.287  15.103 -0.1584  0.0099  0.0079
27891W        W70882  33.839  34.090  22.745 -0.1474 -0.1857 -0.2726
27892W        W70883  33.429   4.939  19.731 -0.1025  0.2459  0.1953
27893W        W70884  34.121   5.604  26.973  0.0407  0.1842 -0.2040
27894W        W70885  21.842  32.248  17.320 -0.0051  0.2492 -0.2880
27895W        W70886  12.709  15.052  24.820 -0.0730  0.3425  0.2645
27896W        W70887  26.672   1.983  27.672  0.2692  0.2124  0.1676
27897W        W70888   9.554  31.204   0.479  0.2136 -0.0839  0.3110
27898W        W70889   0.103  12.491   8.431  0.1361 -0.1434 -0.1520
27899W        W70890   4.446  13.202  18.022  0.2888 -0.0169 -0.3141
27900W        W70891   9.128   4.019  18.158 -0.0298 -0.0983 -0.0604
27901W        W70892  10.129  14.298  19.717  0.1075 -0.0912  0.0246
27902W        W70893   2.584  21.836  20.460 -0.4159 -0.3288 -0.1093
27903W        W70894  20.260  24.449  15.066  0.1653 -0.0725 -0.0278
27904W        W70895  11.609  20.163   2.008 -0.0657 -0.1266  0.1599
27905W        W70896  25.774  27.088  23.106 -0.0758  0.1523 -0.0898
27906W        W70897  14.161  15.457  14.151  0.1218  0.0412 -0.0543
27907W        W70898  13.843  25.861  28.110 -0.2288 -0.0247  0.1540
27908W        W70899  28.337  29.105   8.547 -0.1806 -0.1046  0.3322
27909W        W70900  20.792  21.873   1.977 -0.0049  0.3464  0.2318
27910W        W70901   9.059   9.196  23.729 -0.0600  0.1970  0.1924
27911W        W70902   7.401  24.121  29.113  0.0989  0.1598  0.1702
27912W        W70903   3.981  20.686  25.006  0.2236  0.0461 -0.2015
27913W        W70904  34.683  27.690  21.011  0.0967  0.2125 -0.3258
27914W        W70905  33.899  31.141   1.636  0.2604 -0.1241 -0.0009
27915W        W70906   4.325  14.436  24.643 -0.2598  0.1258  0.1775
27916W        W70907  28.789  23.576   8.862 -0.0749 -0.2656 -0.0195
27917W        W70908  22.861  13.077  28.939 -0.0815 -0.2353 -0.0188
27918W        W70909  18.207   9.762   6.909  0.3677  0.0304  0.0680
27919W        W70910  18.618   1.132   1.502 -0.0079 -0.2902  0.4523
27920W        W70911  17.981  15.403  24.558 -0.2040 -0.2347  0.0641
27921W        W70912  16.172   5.499  18.670  0.1047  0.0037 -0.0881
27922W        W70913   6.669   8.307   6.176  0.2741 -0.0837  0.2688
27923W        W70914  32.914  26.286  18.759 -0.0532  0.0029  0.2008
27924W        W70915  30.378   4.204  23.387 -0.0387 -0.2753  0.0351
27925W        W70916   6.492  27.323  22.212 -0.2905 -0.1268  0.0283
27926W        W70917  16.568   9.835  15.927  0.0322 -0.1528 -0.3752
27927W        W70918  18.042   0.387  25.726  0.1996 -0.2076 -0.0841
27928W        W70919  33.943  18.741  14.901 -0.0801  0.1659  0.1965
27929W        W70920  13.559  12.261   4.139 -0.4025  0.1925  0.0577
27930W        W70921   5.166  16.526  27.889  0.0752 -0.4553  0.2838
27931W        W70922   7.601  10.806  16.557  0.2725  0.0216 -0.0829
27932W        W70923   4.406  23.365  27.194 -0.2289 -0.2180 -0.0232
27933W        W70924   6.482  15.027  15.264  0.2868  0.2989  0.3481
27934W        W70925   6.791  18.795  24.718 -0.2165 -0.1565 -0.3321
27935W        W70926  10.347   6.747  16.869  0.0213  0.2754  0.0134
27936W        W70927   7.498   5.988  22.029 -0.1529  0.0010 -0.0315
27937W        W70928   0.168  11.362  28.230  0.1716  0.0046 -0.1788
27938W        W70929   3.375  17.722  21.781  0.1393  0.0418  0.2200
27939W        W70930   7.587   7.550   2.655  0.2453  0.0766  0.2965
27940W        W70931   6.331   6.660  19.407 -0.1276  0.1708 -0.0359
27941W        W70932  10.812  20.506   7.793  0.1748  0.2937  0.0345
27942W        W70933   2.780  14.647  23.379 -0.0065  0.0527  0.2009
27943W        W70934  11.537   7.598  19.454  0.2428  0.1393  0.0461
27944W        W70935   5.130  11.924   2.800  0.0149 -0.1742 -0.0408
27945W        W70936  22.214   7.801  26.890 -0.0962  0.3516  0.0097
27946W        W70937  17.868  22.831   0.895 -0.1870  0.2174  0.4933
27947W        W70938  12.066   9.621   1.736 -0.0383 -0.1272 -0.1948
27948W        W70939  33.687  13.943   2.626  0.2847  0.2566 -0.0745
27949W        W70940  20.996   9.206  19.993 -0.0257 -0.0822 -0.0651
27950W        W70941  32.370  17.440  18.225  0.0162 -0.3764  0.1876
27951W        W70942  10.911  15.271  23.576 -0.1971 -0.0467 -0.0067
27952W        W70943   2.075  11.927   0.554  0.0461  0.0010  0.1740
27953W        W70944  14.183  26.121  29.043  0.3637  0.0828  0.2450
27954W        W70945  32.041   8.313  16.361 -0.1749 -0.1938 -0.3376
27955W        W70946   4.595  21.426   0.273  0.1105  0.3357 -0.3012
27956W        W70947   4.124   9.497  26.930  0.1332 -0.1310  0.1002
27957W        W70948  14.529  29.009  27.616 -0.1550 -0.0747 -0.1297
27958W        W70949   8.124  12.741   1.080 -0.1878 -0.0801 -0.3374
27959W        W70950   0.682  28.836  19.719 -0.0385  0.0466  0.0648
27960W        W70951  29.123  19.636  18.175  0.3433 -0.2006  0.1115
27961W        W70952  15.774  12.877  19.877 -0.3376 -0.0659  0.0641
27962W        W70953  33.084   4.909   6.995 -0.0284  0.2087 -0.1127
27963W        W70954   5.116  25.657   4.076 -0.1214  0.3495  0.1529
27964W        W70955  32.512   0.647  19.421 -0.0991  0.0394 -0.3492
27965W        W70956   0.042  15.490   7.817  0.1521 -0.1674  0.2289
27966W        W70957  10.776  11.963   8.129  0.0161 -0.3479  0.1081
27967W        W70958   7.944  21.941   9.610  0.3537  0.1637 -0.2428
27968W        W70959   6.787  24.966  18.930 -0.3052  0.2044  0.0298
27969W        W70960   7.904  12.769   3.120  0.1703  0.2080  0.2153
27970W        W70961  32.105   1.256   1.246  0.0295 -0.0670 -0.3047
27971W        W70962   6.080   2.603  19.580  0.2332 -0.2425  0.0779
27972W        W70963   5.706  13.890  22.592  0.1428 -0.1232  0.1640
27973W        W70964   7.867   1.229  10.713  0.3029  0.2328 -0.3069
27974W        W70965   3.857  22.972  15.892  0.0439  0.3381 -0.0043
27975W        W70966  17.140   0.684  21.845 -0.0741 -0.0578  0.2250
27976W        W70967   9.919  19.725  20.899 -0.0468  0.2966 -0.2323
27977W        W70968  31.444  23.286  21.297 -0.2947 -0.2118 -0.0631
27978W        W70969   0.676   9.258  27.130  0.0824 -0.3549 -0.1216
27979W        W70970   0.774  33.123   4.471  0.2218 -0.0333 -0.0429
27980W        W70971   3.025   9.870  25.243 -0.2934  0.1199 -0.1064
27981W        W70972   5.463  33.317   1.907  0.1997 -0.1351  0.0107
27982W        W70973  18.425  13.086  28.426  0.2364 -0.1114  0.1735
27983W        W70974   2.561  20.920   0.033 -0.0793  0.2699 -0.0932
27984W        W70975  19.299  22.182  28.586 -0.0027  0.0293 -0.1518
27985W        W70976  27.609  12.304   6.425  0.2967  0.3881  0.0008
27986W        W70977   4.408   9.889  22.637  0.0184 -0.1562  0.4223
27987W        W70978  34.659  16.639   5.513 -0.2595 -0.0891  0.0277
27988W        W70979  15.400  22.933  27.085  0.1407 -0.1031 -0.2349
27989W        W70980  31.115  11.870  15.821  0.0990  0.1604 -0.1480
27990W        W70981   3.182   8.219  28.942 -0.3061  0.1227 -0.1934
27991W        W70982  13.041   2.552  22.813 -0.0678 -0.3246 -0.4562
27992W        W70983   2.037  17.239   6.358  0.0900 -0.1557  0.0310
27993W        W70984  14.520  21.377  23.336 -0.0653 -0.1483 -0.2280
27994W        W70985  30.470  26.897  14.772  0.0803 -0.3165 -0.3076
27995W        W70986   7.223  19.496  18.538 -0.2680  0.0964  0.1141
27996W        W70987  28.529  10.720   8.666 -0.0691 -0.0136  0.3110
27997W        W70988   4.602  11.841  15.719  0.0615  0.0268  0.0340
27998W        W70989   2.897  28.595   7.476 -0.1583  0.1969 -0.1990
27999W        W70990   5.985  14.361  19.508 -0.2847 -0.0512  0.4472
28000W        W70991  30.767  15.691  21.531  0.1936  0.0198  0.1168
28001W        W70992   6.403  25.187  26.093  0.0285 -0.4745  0.1170
28002W        W70993  25.927   3.739  28.269 -0.0110 -0.0102 -0.2194
28003W        W70994   9.917  28.154   3.306 -0.2148  0.4237 -0.1754
28004W        W70995   4.798  27.174  28.301 -0.1048 -0.2827  0.2380
28005W        W70996  18.750   5.691  28.529 -0.0485 -0.0335  0.4674
28006W        W70997  10.978   8.407   5.442  0.0722  0.3583 -0.1128
28007W        W70998   4.666  27.618  27.674  0.2228  0.0819 -0.1618
28008W        W70999  14.308  20.245  29.145 -0.0839  0.0064  0.2175
28009W        W71000  33.401  32.658   2.005 -0.1685 -0.3004 -0.1957
28010W        W71001  14.403  29.759   7.036 -0.1011  0.0427 -0.0359
28011W        W71002   3.213  33.857  17.358  0.3198 -0.2814 -0.1889
28012W        W71003  19.548   3.316   7.317 -0.0171 -0.0373 -0.3549
28013W        W71004   6.289  11.134   9.481 -0.1318 -0.0875 -0.1093
28014W        W71005   6.428   8.319  16.440  0.0776  0.1578  0.2617
28015W        W71006   6.441  13.265  27.053 -0.0425 -0.0149  0.2379
28016W        W71007  25.987   8.887  27.117  0.0996  0.1894  0.1040
28017W        W71008  12.901   9.539  19.731  0.1596  0.2030  0.2948
28018W        W71009   6.229  19.474   1.966  0.3002  0.1202 -0.0491
28019W        W71010  15.924  15.173  28.936  0.0293  0.0851  0.2909
28020W        W71011   0.743   2.715  23.574  0.0699 -0.1403 -0.2742
28021W        W71012  33.082  22.619  19.527 -0.0052  0.0182  0.1890
28022W        W71013   8.020   1.988   9.995 -0.1584 -0.2624  0.0939
28023W        W71014  32.263  14.788   4.222  0.2489  0.3590 -0.0772
28024W        W71015  13.437   1.411  24.083 -0.0730 -0.0266 -0.2561
28025W        W71016   7.286  18.336  27.737 -0.0982  0.1440 -0.1395
28026W        W71017   8.324   6.484  17.894  0.3556 -0.1781 -0.5238
28027W        W71018   3.296  33.076  19.270 -0.0411 -0.0484 -0.3060
28028W        W71019  13.026   6.420  20.172  0.1033  0.1423  0.2583
28029W        W71020  32.478   2.356   4.163  0.2302  0.3158 -0.1313
28030W        W71021  19.734   8.234  26.227 -0.1459  0.1215 -0.2675
28031W        W71022  12.969  21.965   6.033 -0.2249  0.1747 -0.1696
28032W        W71023  33.875  11.556   3.539  0.1138 -0.1256 -0.1815
28033W        W71024  12.016   6.082  21.109  0.0555  0.0907 -0.2726
28034W        W71025   7.474   7.489  21.341  0.0942 -0.1614 -0.0984
28035W        W71026  11.710   5.005  22.516 -0.1722 -0.3666 -0.1829
28036W        W71027  11.084  14.747  26.379 -0.0203  0.0334 -0.0866
28037W        W71028  32.956  26.586  16.060  0.0440  0.0669  0.0690
28038W        W71029  25.798  16.751  17.540 -0.1126  0.1465 -0.2660
28039W        W71030  31.149   9.296   7.330 -0.1059 -0.1795 -0.0217
28040W        W71031   5.402  10.934  27.809  0.1803  0.0201  0.0290
28041W        W71032   8.070  19.498  16.964  0.2751  0.2143  0.0922
28042W        W71033  33.388  19.722   2.569  0.0213 -0.1833 -0.0089
28043W        W71034  11.402   9.800  27.049  0.2419 -0.0421  0.1098
28044W        W71035  18.209  22.104  15.123 -0.0223  0.2105  0.1737
28045W        W71036   9.107  27.732  23.099 -0.5204 -0.0919  0.1942
28046W        W71037   8.375  30.698  16.750  0.1286 -0.1078  0.1645
28047W        W71038  13.002  23.188  14.884  0.1960  0.3520 -0.1889
28048W        W71039  26.821  17.918   3.392 -0.0460 -0.0928  0.0352
28049W        W71040  33.270   6.449  21.842  0.0580 -0.2120  0.2291
28050W        W71041  11.871  17.229  19.677 -0.1164 -0.0401  0.2887
28051W        W71042  22.320  18.530  18.319  0.1898  0.0208  0.4033
28052W        W71043  19.612  29.911   1.652 -0.0219  0.0715  0.0631
28053W        W71044   0.947  13.975   6.792 -0.4015 -0.0922  0.0504
28054W        W71045  13.540   5.870  27.404  0.0589  0.5392  0.0775
28055W        W71046  12.179  16.825  16.383 -0.1367 -0.2347  0.2184
28056W        W71047  13.979  15.858  28.017 -0.0094  0.0496 -0.3019
28057W        W71048  23.432   8.245  16.709  0.0431 -0.1843  0.2083
28058W        W71049   6.707   8.502  15.978 -0.0425  0.4928  0.2067
28059W        W71050  12.508   1.291  10.609  0.1102  0.2385 -0.1669
28060W        W71051   5.896  13.022  19.296  0.0718 -0.2223  0.0861
28061W        W71052  23.337   2.627  22.881  0.0949 -0.0101 -0.0421
28062W        W71053   9.289  14.825   2.965  0.3115  0.1489  0.2757
28063W        W71054   0.065  19.107   0.842 -0.0163  0.0041 -0.0486
28064W        W71055   4.249  15.437   1.433 -0.0731  0.0253 -0.4105
28065W        W71056   6.953  28.933  27.694  0.2850  0.1597  0.2409
28066W        W71057   9.876  10.162  10.758  0.0321 -0.4097  0.1575
28067W        W71058  31.122  28.131  23.921 -0.1574 -0.1067  0.0884
28068W        W71059   9.152  25.172   2.213  0.0461  0.0956  0.0553
28069W        W71060  13.465  15.776   9.212  0.2108  0.1831  0.1279
28070W        W71061   2.817  19.371   5.045 -0.1160  0.1587  0.5051
28071W        W71062  26.716  32.898   5.585 -0.2482 -0.2544 -0.0304
28072W        W71063   4.356  27.636  23.613 -0.0147 -0.0723 -0.3495
28073W        W71064   1.782  32.627   6.542  0.3236  0.3592 -0.0871
28074W        W71065   8.862  15.575   5.897 -0.0741  0.0171 -0.0525
28075W        W71066  28.335  11.225   3.700 -0.6034  0.1037 -0.0529
28076W        W71067  13.176  25.302   4.313  0.0611  0.4955 -0.2982
28077W        W71068  32.485  19.682   2.515 -0.1704  0.0907  0.3402
28078W        W71069  11.104  17.713  26.789 -0.1671 -0.1162  0.3495
28079W        W71070   2.033   6.481   9.428 -0.0394 -0.2921  0.1387
28080W        W71071  33.305   7.506  15.682  0.0966 -0.0170 -0.2190
28081W        W71072  26.492  32.201  22.363  0.0393  0.1612 -0.1992
28082W        W71073  25.350  12.977   1.768 -0.2963 -0.2219  0.0499
28083W        W71074  24.664  31.164   8.141  0.0677 -0.1641 -0.1877
28084W        W71075   9.749  11.454  24.025 -0.2443  0.0112  0.2862
28085W        W71076  12.434  24.579  23.182  0.1613 -0.0256  0.1112
28086W        W71077  34.446  18.530   0.165 -0.1639 -0.4428 -0.2714
28087W        W71078   7.994  16.275   8.881 -0.0727  0.2845 -0.0376
28088W        W71079   3.304  19.672   3.803 -0.0428 -0.2389 -0.2938
28089W        W71080   7.417  23.150   9.326  0.1016 -0.0265  0.0957
28090W        W71081   3.111  22.546   6.515  0.1151 -0.2372 -0.0029
28091W        W71082  12.171  11.743   4.891 -0.0347 -0.1985 -0.0880
28092W        W71083   9.497  13.232   4.759  0.0623 -0.0512 -0.0187
28093W        W71084  32.910   2.641   5.777 -0.1070  0.0718 -0.0615
28094W        W71085  26.528  10.954  26.711 -0.3140  0.1467 -0.1004
28095W        W71086   9.490  32.435   9.427 -0.1598 -0.1453  0.3345
28096W        W71087  11.297  21.963   0.590  0.1264 -0.1539 -0.0768
28097W        W71088  14.928  15.136  23.541  0.3487 -0.3775  0.3079
28098W        W71089   1.972  25.710   5.139 -0.2952 -0.0302  0.1299
28099W        W71090   2.241  16.954  22.869  0.1451  0.1991 -0.0373
28100W        W71091  27.224   5.344  28.845 -0.1440  0.0655 -0.1254
28101W        W71092   7.187   9.966   4.257  0.0124 -0.1592  0.2246
28102W        W71093   6.745  25.634  20.092  0.0024  0.0916 -0.0839
28103W        W71094  32.682  15.077  10.535 -0.4158  0.0514  0.0382
28104W        W71095   6.117  14.347  23.004  0.2505 -0.3990 -0.0441
28105W        W71096  15.709   4.534  16.408  0.5271  0.2359 -0.0609
28106W        W71097   3.561   6.576  28.790 -0.2573  0.2046 -0.2863
28107W        W71098   3.664  17.094   0.022  0.2786  0.0829 -0.3553
28108W        W71099  15.306  15.751   4.253  0.3294 -0.0829  0.1682
28109W        W71100   4.892   1.124  26.080  0.1990  0.2719  0.2238
28110W        W71101  34.038  13.668   6.292 -0.0192 -0.1007 -0.1121
28111W        W71102  22.684  13.195  15.343 -0.1773  0.1319 -0.0899
28112W        W71103  16.699   2.677  26.311 -0.1138  0.2374  0.0014
28113W        W71104   9.821  27.421   1.895 -0.3154 -0.2351  0.0398
28114W        W71105   0.767  24.364   8.621 -0.2073 -0.0948 -0.1524
28115W        W71106   0.297  17.959  18.188  0.1672 -0.1652 -0.3004
28116W        W71107   4.569  18.491  25.545  0.0949  0.1087  0.2283
28117W        W71108   2.058   4.049   0.388  0.0072  0.1434 -0.0789
28118W        W71109  16.878  24.511  15.963  0.2148 -0.0378 -0.0257
28119W        W71110  29.520   6.352   3.845 -0.2369 -0.1119  0.4373
28120W        W71111  21.719   8.428  24.656  0.1016  0.0927 -0.1369
28121W        W71112  34.314  10.979  15.660 -0.0690 -0.1463 -0.2069
28122W        W71113  10.671  11.540  16.683  0.0749 -0.0789 -0.0086
28123W        W71114   2.284  24.296  14.171 -0.0197  0.3579  0.0717
28124W        W71115  21.372  16.094  17.773  0.1175 -0.4143 -0.1935
28125W        W71116  29.677  14.479  22.279  0.1219 -0.0844 -0.0351
28126W        W71117  19.571  31.889  20.314  0.0123 -0.0918 -0.2544
28127W        W71118   7.320  16.033  23.909  0.2848 -0.2649  0.1380
28128W        W71119   8.267  32.125  20.770  0.1041  0.0719  0.3969
28129W        W71120  22.961  16.278  13.962 -0.0549 -0.1222  0.0123
28130W        W71121   5.832  22.768  14.568  0.0057 -0.3756 -0.1069
28131W        W71122  25.911   7.149  25.454  0.0035 -0.0778  0.1736
28132W        W71123  33.377  15.611  10.354  0.1352  0.1824 -0.0393
28133W        W71124   0.951  30.212  22.973  0.2895  0.0100 -0.1736
28134W        W71125   3.982  22.800  28.149  0.2480 -0.1574 -0.3083
28135W        W71126  29.930   9.812  16.681 -0.0770 -0.1599 -0.1054
28136W        W71127  13.415   9.714  18.745 -0.1911 -0.1005  0.0013
28137W        W71128   4.190  29.733  14.951  0.2890 -0.1397 -0.0022
28138W        W71129  27.352  22.987  28.841  0.1034 -0.4510 -0.2335
28139W        W71130  30.627  13.471  19.605 -0.1560 -0.1589  0.0821
28140W        W71131  32.490  34.233  27.102 -0.1247 -0.1264 -0.0449
28141W        W71132   3.709  22.846  23.348 -0.3533  0.2551 -0.1402
28142W        W71133   6.599  19.172  16.271 -0.0496  0.1324  0.0210
28143W        W71134   9.836  21.707  20.115  0.0691  0.1206 -0.0373
28144W        W71135  24.751  18.193   2.115 -0.1427 -0.0740  0.0715
28145W        W71136  20.859  12.691  15.513 -0.0107  0.2544 -0.5284
28146W        W71137  34.786  30.657  21.029 -0.1037 -0.2289 -0.3543
28147W        W71138   6.086   7.389  18.744  0.3926  0.0170  0.1234
28148W        W71139  32.318  15.253  15.114  0.3216 -0.1522  0.0787
28149W        W71140   4.747  20.315   2.337  0.2200 -0.1471 -0.4055
28150W        W71141  17.437   7.614   5.009 -0.0349  0.0820  0.0739
28151W        W71142  34.484   5.528   0.181 -0.2225 -0.0801  0.0654
28152W        W71143  18.785  20.722  26.238  0.0747  0.2464  0.0018
28153W        W71144   4.895  26.940  14.805  0.1449  0.1345 -0.3315
28154W        W71145  31.955  26.339  14.580  0.2109  0.0401  0.2787
28155W        W71146  26.067  24.816  19.239  0.4154 -0.2554  0.2102
28156W        W71147  14.169  33.662  19.341 -0.0075 -0.1345 -0.1073
28157W        W71148  17.245  24.013  25.628  0.1121  0.0368 -0.1023
28158W        W71149   9.766  25.344  24.184  0.1306 -0.3673 -0.1534
28159W        W71150  17.579  21.232  14.547 -0.1216 -0.2311 -0.0802
28160W        W71151   7.522  15.508  16.312  0.1936  0.2835 -0.3943
28161W        W71152  27.224  13.550  26.986 -0.1321 -0.1136 -0.1383
28162W        W71153   2.479  19.463  19.013 -0.0067  0.0709  0.1369
28163W        W71154   0.781  17.473  18.707  0.0509  0.0731 -0.1689
28164W        W71155  33.643  19.376   3.846 -0.3045  0.0078 -0.0418
28165W        W71156  33.236  19.263  28.559 -0.2329 -0.1090 -0.1491
28166W        W71157  16.981   0.131  15.208  0.2523  0.0640  0.0503
28167W        W71158   1.482  24.150  22.327  0.0896  0.0564  0.0054
28168W        W71159  32.420  31.322   1.187 -0.2752  0.0263 -0.1058
28169W        W71160   6.495  21.368  21.830 -0.0643 -0.4276  0.0598
28170W        W71161  11.722  16.207  15.622 -0.0881 -0.1477 -0.2658
28171W        W71162  29.746  27.865  27.004 -0.2417 -0.0023 -0.2576
28172W        W71163   0.239  29.373  26.227 -0.1099  0.4881 -0.0251
28173W        W71164   1.100  25.796  16.047 -0.3432 -0.2877  0.1391
28174W        W71165  13.078  32.941  20.038 -0.0919 -0.0819  0.1839
28175W        W71166   7.740  21.966  19.486  0.1100  0.0075  0.0963
28176W        W71167  13.515  25.484  22.195 -0.1477 -0.0597  0.0871
28177W        W71168   0.406  31.947  15.906  0.0032  0.0395 -0.1275
28178W        W71169   0.681  11.644  16.401 -0.1825 -0.0338  0.2882
28179W        W71170  20.121  20.085  13.079 -0.2362  0.1452 -0.1154
28180W        W71171   5.002  33.355  17.370 -0.2794 -0.1192  0.2416
28181W        W71172   2.299   0.583  21.149  0.0189 -0.4250  0.1179
28182W        W71173  29.534  16.732  15.939  0.1495 -0.0316 -0.0999
28183W        W71174  29.571  26.298  17.810 -0.1419 -0.0220 -0.1123
28184W        W71175   2.196  31.943  21.346 -0.1783  0.4048  0.1089
28185W        W71176  15.084  34.018   1.815  0.1016 -0.0246  0.0005
28186W        W71177  34.371  32.748  14.591 -0.1007 -0.1879  0.1120
28187W        W71178   3.262  22.918   1.148  0.1922  0.1446 -0.0508
28188W        W71179   8.309  24.698  28.377 -0.3134 -0.0854 -0.0780
28189W        W71180  32.678  30.770  14.954  0.0076  0.1232  0.4220
28190W        W71181  10.188  14.202  23.671  0.0816  0.3028  0.0755
28191W        W71182  28.103  26.931  21.852  0.0380  0.2838  0.1283
28192W        W71183  29.896  20.789  26.166  0.1986  0.3102  0.1345
28193W        W71184  33.971  18.711   0.277  0.0624  0.1668 -0.1121
28194W        W71185  31.827  15.907  20.544  0.1329 -0.1835  0.0306
28195W        W71186  11.666  24.968  16.863  0.1902  0.0062  0.0572
28196W        W71187   7.883  20.241   3.889  0.4002 -0.1325  0.0284
28197W        W71188  13.555  22.188  18.429  0.2025  0.3365 -0.0824
28198W        W71189   8.734  25.086  21.140  0.0532 -0.4244  0.0293
28199W        W71190  24.361  30.954  20.157 -0.0914 -0.1382  0.1467
28200W        W71191  29.408  26.091  28.661 -0.3376  0.0430  0.4299
28201W        W71192   4.106  21.219  16.727 -0.0758  0.0030  0.0984
28202W        W71193  33.540  26.264  17.779  0.0103  0.0184  0.0292
28203W        W71194  24.653  11.844  14.005  0.1648 -0.2825  0.0091
28204W        W71195   5.937  23.499  17.772  0.0459  0.0919 -0.0974
28205W        W71196  18.681  18.942   6.314 -0.2857 -0.0100  0.3449
28206W        W71197   2.203  18.076  18.462 -0.1601 -0.0900 -0.0221
28207W        W71198   2.595  28.059   5.497 -0.2950  0.1720  0.2378
28208W        W71199  13.567  30.935  26.139  0.0097  0.0336 -0.2352
28209W        W71200   1.379  29.737  24.543  0.1613  0.0281 -0.3138
28210W        W71201  16.027  21.366  22.497 -0.0195  0.1143  0.0591
28211W        W71202   2.588  29.764  21.896  0.0918  0.0504 -0.0768
28212W        W71203  16.402  32.336  21.882 -0.0529  0.2292  0.1739
28213W        W71204  31.163   2.776  25.371 -0.1283 -0.0013  0.2639
28214W        W71205  15.946   0.046  26.903  0.0366 -0.2381 -0.2407
28215W        W71206  21.744  22.897  25.303  0.0494 -0.0680 -0.0251
28216W        W71207   8.139   2.149  19.202 -0.0398  0.0005 -0.2426
28217W        W71208  11.338  22.903  23.204 -0.0736  0.0014  0.1043
28218W        W71209  24.422  11.669  21.399  0.0636  0.2137  0.1609
28219W        W71210   0.031  17.787  16.107 -0.0418  0.1761 -0.1017
28220W        W71211  33.789  27.704  25.179 -0.0205  0.0479 -0.0489
28221W        W71212   3.265   6.028  17.184  0.0122 -0.1787  0.0101
28222W        W71213  20.162   2.677  21.980 -0.3210  0.2646  0.3402
28223W        W71214  26.091  17.841   0.382 -0.1668  0.1498 -0.0309
28224W        W71215   3.045  14.484  17.801  0.1933 -0.0372 -0.1501
28225W        W71216   7.061  25.843   4.100  0.0559 -0.0937  0.1367
28226W        W71217   3.899  25.328   2.677  0.0104  0.3248  0.0185
28227W        W71218   7.698   4.743  18.782 -0.1152  0.2633  0.0410
28228W        W71219  14.831  10.131  21.001  0.0256 -0.2468  0.3590
28229W        W71220  31.614  29.370  18.851  0.1028  0.0060 -0.0537
28230W        W71221   3.272  20.928   2.677 -0.2287 -0.2549  0.2093
28231W        W71222  23.691   2.220  21.499  0.2367 -0.4935  0.2010
28232W        W71223  27.530  12.059  21.046  0.2874 -0.0181 -0.1741
28233W        W71224  10.292  15.966  14.142  0.0893 -0.0523 -0.0070
28234W        W71225   3.941  23.384  14.067 -0.1059  0.2407  0.0008
28235W        W71226   7.484  18.486   1.680 -0.3109  0.0840 -0.0189
28236W        W71227  30.065  18.938  27.644  0.1284 -0.3443  0.1115
28237W        W71228   5.342  30.332  20.727  0.0338 -0.1266  0.3830
28238W        W71229  13.033  33.490  19.981 -0.0066 -0.2087 -0.2487
28239W        W71230  31.143  27.934  23.308  0.5252 -0.2141  0.2180
28240W        W71231  13.507  24.410   1.460 -0.0658 -0.1320 -0.0407
28241W        W71232  24.603  21.476  13.981 -0.0069  0.0223 -0.0246
28242W        W71233  11.633  20.425  14.216  0.0799 -0.1346 -0.3146
28243W        W71234  23.479   9.360  28.562 -0.1096 -0.0100 -0.0175
28244W        W71235   1.068  26.930  17.644 -0.1220 -0.1616  0.2624
28245W        W71236  34.248   1.626  19.373 -0.2328  0.0534 -0.0801
28246W        W71237   3.752  25.758  16.884  0.2896 -0.3326  0.4264
28247W        W71238  11.289  22.505  10.344 -0.1382 -0.1240 -0.2285
28248W        W71239  28.745  31.479  21.119  0.0940 -0.1480 -0.0754
28249W        W71240   5.984  15.901  23.471 -0.2638 -0.0189  0.1299
28250W        W71241  30.570  26.207  15.431 -0.0394 -0.1981 -0.0605
28251W        W71242  29.592  22.487  28.525  0.0872 -0.2795  0.2167
28252W        W71243  15.187  11.369   7.817 -0.0155  0.1117 -0.0455
28253W        W71244  30.802  23.618  14.381  0.1215 -0.0293  0.0838
28254W        W71245   2.283  28.606  17.305 -0.0060 -0.1732 -0.1394
28255W        W71246  32.234   6.172  23.443 -0.2211 -0.2034  0.0547
28256W        W71247  32.932  23.930  20.521 -0.0038 -0.1075 -0.0724
28257W        W71248  16.215   5.402  25.614 -0.0009 -0.2319 -0.4004
28258W        W71249  31.617  16.344  17.956 -0.3550 -0.1579 -0.3427
28259W        W71250  15.493  27.644  21.067  0.0986 -0.3781  0.0837
28260W        W71251   4.052  13.531  24.274  0.0384  0.1807 -0.1569
28261W        W71252  25.277  21.137  17.910  0.1468  0.2119  0.1268
28262W        W71253   3.597  27.672  17.167  0.0992 -0.2741  0.1475
28263W        W71254   4.237   3.859  19.327  0.2060  0.0752  0.1543
28264W        W71255  15.256   0.088  24.189  0.0878 -0.4069 -0.2069
28265W        W71256  33.976  15.583  18.744 -0.0087  0.1974 -0.3798
28266W        W71257  34.377  24.002  16.368  0.0506  0.5809  0.0361
28267W        W71258  23.196  26.359  23.448  0.0489  0.0396  0.0026
28268W        W71259  10.652  33.097   7.971 -0.0290 -0.0188  0.0868
28269W        W71260  26.521   8.596  20.993  0.3828 -0.1774  0.1078
28270W        W71261   7.244  15.692  17.561 -0.1040 -0.1629  0.0275
28271W        W71262  26.820  25.919  26.992  0.0722 -0.1483  0.0702
28272W        W71263  19.578  18.650  15.151 -0.0621  0.0376  0.0551
28273W        W71264   4.264  15.225  20.950 -0.1211  0.0826  0.3847
28274W        W71265   1.005  21.119  25.050 -0.0295 -0.2695 -0.0086
28275W        W71266  18.603  29.784  14.458 -0.1399 -0.1473 -0.0085
28276W        W71267   1.647  20.241  24.176  0.2438 -0.0201 -0.1343
28277W        W71268  22.624  22.565  22.388  0.0740  0.2348  0.1338
28278W        W71269   8.622  15.610  25.124  0.0906  0.2968  0.2157
28279W        W71270  13.967  33.549   5.783 -0.0536 -0.1155  0.0670
28280W        W71271  25.414   0.734  27.237 -0.1775 -0.2899  0.1453
28281W        W71272  31.910   5.174   3.368 -0.1731  0.1856  0.2567
28282W        W71273  26.655  16.953  15.224 -0.1144 -0.2188  0.5207
28283W        W71274  34.470  22.250  16.278  0.3294  0.1487  0.2714
28284W        W71275   7.918   3.043  19.566  0.0251 -0.0568 -0.0069
28285W        W71276  32.973   9.052  19.776 -0.1934  0.1293 -0.1463
28286W        W71277  13.942  14.039  22.271 -0.4709  0.1364  0.0962
28287W        W71278   3.648  28.087  25.350 -0.2055 -0.2483  0.1882
28288W        W71279  12.131  27.187  15.957 -0.1309  0.0317  0.2433
28289W        W71280  33.339  20.357  22.230 -0.2480  0.1679  0.0966
28290W        W71281   3.711  23.832  28.962 -0.1302 -0.3391 -0.3484
28291W        W71282  17.530  13.716  26.356 -0.0352  0.0736  0.0560
28292W        W71283  24.997  10.186  22.217 -0.1956  0.1632 -0.1165
28293W        W71284  12.773  14.787   2.645 -0.0554  0.1122  0.1506
28294W        W71285  16.163  12.342  17.230  0.0530 -0.0428  0.0253
28295W        W71286   7.153  27.699  23.868  0.0357 -0.2407  0.3204
28296W        W71287   1.263  15.152  20.473 -0.0718  0.3906  0.1565
28297W        W71288  20.272  31.692  20.395 -0.2188 -0.1330 -0.3243
28298W        W71289  12.355  11.219  16.075 -0.2240 -0.1600 -0.2913
28299W        W71290  12.279  22.879  19.909  0.2224  0.2341 -0.1009
28300W        W71291   1.583  14.090   1.957  0.2566  0.0582  0.1817
28301W        W71292  12.608  20.415  15.283  0.0549 -0.0364 -0.1352
28302W        W71293   1.920  33.034  16.252  0.1127 -0.1927 -0.0003
28303W        W71294   6.745   1.329   5.083 -0.1593 -0.1531  0.1709
28304W        W71295  30.372  25.842  27.235 -0.3127 -0.0253 -0.0877
28305W        W71296   4.277  24.478  23.986 -0.1200  0.0335 -0.0506
28306W        W71297  34.304  13.343  25.340 -0.0763 -0.0533  0.1852
28307W        W71298   4.551  11.715  25.823  0.3458  0.1944 -0.0969
28308W        W71299  23.174   9.049  18.850 -0.2344 -0.0729 -0.3199
28309W        W71300   6.106  16.797  18.488  0.0719  0.0811 -0.1601
28310W        W71301   3.845  16.115  27.682 -0.2275 -0.0203 -0.0521
28311W        W71302  33.900  25.429  27.692 -0.2741  0.1193  0.0090
28312W        W71303  14.647  26.618  20.597 -0.1934  0.2203  0.3061
28313W        W71304   3.097  27.701  23.240  0.2534 -0.1965  0.3026
28314W        W71305   9.796  21.765  15.670 -0.3592 -0.2620  0.0024
28315W        W71306   1.304  28.821   2.323  0.0113  0.1027  0.0981
28316W        W71307  20.704  29.615  25.286  0.1553  0.0719  0.0686
28317W        W71308  26.438  18.027  23.372 -0.2454  0.2618  0.0555
28318W        W71309  10.635  13.495  20.129  0.1826 -0.2572  0.1522
28319W        W71310  25.826  18.103  26.618  0.0605 -0.0503  0.0439
28320W        W71311   9.356  22.749  20.450 -0.2741 -0.1397  0.0917
28321W        W71312   9.636  25.810  19.830 -0.0592 -0.0935 -0.2574
28322W        W71313   2.744  27.042  16.536 -0.0469  0.0662 -0.0952
28323W        W71314  27.311  18.845   8.906 -0.2447 -0.1453 -0.1108
28324W        W71315  33.406   7.750  20.106 -0.1403 -0.3111 -0.1280
28325W        W71316  29.860  27.444  22.424  0.2127  0.0213 -0.0576
28326W        W71317  19.068  23.132  13.748  0.1535 -0.1452 -0.2123
28327W        W71318  14.742  12.859  21.253  0.3614 -0.3707  0.2202
28328W        W71319  31.413  31.146  25.419 -0.0544 -0.0449 -0.0527
28329W        W71320  19.470  16.713  24.498  0.0445  0.1088 -0.0964
28330W        W71321  30.221  25.834  19.255  0.0503  0.0952 -0.0356
28331W        W71322  12.215  21.484  22.923 -0.0318 -0.1545  0.1356
28332W        W71323  12.219  21.454  14.788 -0.0145  0.1409 -0.1393
28333W        W71324   7.308  17.772  18.096  0.2285  0.1119  0.2272
28334W        W71325   7.574  27.608  16.637 -0.0723  0.0241  0.0756
28335W        W71326   2.589  19.184   2.478 -0.3796  0.0188  0.0406
28336W        W71327   8.908  29.767  26.833  0.2656  0.3145  0.1260
28337W        W71328   6.703  24.477  18.887  0.0484  0.0329 -0.0190
28338W        W71329  10.592   3.335  17.409 -0.0040 -0.2348 -0.1339
28339W        W71330   7.770  10.129  17.601  0.1253  0.0370 -0.0739
28340W        W71331  15.122  21.098  20.481 -0.0685 -0.2801 -0.1090
28341W        W71332  33.273  30.233  14.250  0.0860  0.1927 -0.2857
28342W        W71333   2.764  18.059   5.665  0.2328  0.0146 -0.1614
28343W        W71334  13.009  22.862  15.836 -0.4024 -0.5446  0.3150
28344W        W71335   4.772  30.182  19.127  0.6518  0.0987  0.1046
28345W        W71336  33.769  22.094  27.262 -0.0527  0.0379  0.1342
28346W        W71337  10.316  12.177  17.036 -0.0075 -0.1336  0.0154
28347W        W71338   7.051  13.128  21.657 -0.3314  0.0638  0.2204
28348W        W71339  32.388  24.212  15.139  0.0505  0.0669 -0.0641
28349W        W71340   4.446  12.709  15.617 -0.0174  0.0879 -0.1013
28350W        W71341   6.551  23.955  22.979  0.0980 -0.1282  0.2691
28351W        W71342   1.686  14.633  19.639  0.1226 -0.1803 -0.0320
28352W        W71343  11.132  15.172  21.845 -0.0867 -0.2667  0.1584
28353W        W71344   6.874  19.150  22.485  0.0117  0.1701 -0.2929
28354W        W71345  22.190  30.853  22.162 -0.0078 -0.0033 -0.3546
28355W        W71346  29.999  34.024  19.414  0.1515  0.1182 -0.4428
28356W        W71347   7.061  30.400  21.709 -0.0770  0.2485 -0.2420
28357W        W71348  11.532  25.906  13.888  0.2033  0.4795  0.0576
28358W        W71349  10.858  17.188  18.762  0.0643  0.1718 -0.0071
28359W        W71350   0.025  20.365  28.144 -0.3295 -0.1502 -0.0807
28360W        W71351  34.179  19.199  19.472 -0.4735 -0.0236  0.0847
28361W        W71352   5.434  13.333  24.305 -0.1456 -0.2694  0.0843
28362W        W71353  17.019  27.271  18.789 -0.1906  0.1227  0.0089
28363W        W71354   4.803   8.699  16.196 -0.0504  0.0055 -0.1694
28364W        W71355   3.443  28.991  21.188  0.3639 -0.1476  0.3420
28365W        W71356  32.302   4.597  18.027 -0.0502 -0.1464  0.4907
28366W        W71357  12.678  25.968  26.816  0.2760 -0.1642  0.2205
28367W        W71358   3.380   6.380  20.981  0.1305 -0.3511 -0.3707
28368W        W71359  27.798  28.733  22.557 -0.1753 -0.0364  0.0737
28369W        W71360  21.941  17.782  16.695 -0.0025 -0.2288 -0.0607
28370W        W71361  19.501  20.792  19.510 -0.1306 -0.1012 -0.2247
28371W        W71362  10.247  29.109  18.098  0.0733  0.0466 -0.0721
28372W        W71363   3.018  30.128  17.643 -0.0664  0.3362 -0.2332
28373W        W71364  32.516  20.631  23.246  0.1899 -0.1319 -0.1425
28374W        W71365   4.606  24.716  28.644 -0.0756  0.1654  0.2003
28375W        W71366  10.510  34.538   6.567 -0.5033 -0.0728  0.2470
28376W        W71367  33.150  32.809  14.091  0.0945 -0.0032 -0.1953
28377W        W71368  16.365  14.028  16.078  0.3603  0.0872 -0.0341
28378W        W71369  13.537  13.739  23.741  0.0768 -0.1147  0.0472
28379W        W71370  21.186  21.279  20.468 -0.0910 -0.0424 -0.0132
28380W        W71371   9.978  20.897  17.507 -0.0171 -0.2538 -0.4454
28381W        W71372  26.678  33.315  13.072 -0.0290 -0.3492 -0.1162
28382W        W71373  28.030   7.517  21.252 -0.5072  0.3890  0.1104
28383W        W71374  14.020   2.115  21.718 -0.3572  0.3063  0.1009
28384W        W71375   2.107   8.447  26.535  0.0481  0.0962 -0.2137
28385W        W71376   5.577  18.342   6.008 -0.1854  0.1469 -0.1742
28386W        W71377   7.830   8.295   8.430 -0.0641  0.1308 -0.0128
28387W        W71378  17.354  25.163  17.982  0.0084 -0.2990  0.1427
28388W        W71379  31.037   7.662  27.031  0.0952  0.3988 -0.0470
28389W        W71380   3.154  33.540  21.791 -0.0135 -0.1375  0.4001
28390W        W71381   1.885  25.510  18.853  0.3896 -0.0785  0.0049
28391W        W71382   8.323  11.543  18.281 -0.4204 -0.1673  0.1659
28392W        W71383   4.075  22.548  23.172 -0.0493 -0.1930 -0.2462
28393W        W71384  32.909  13.434  15.339  0.0770 -0.2148 -0.1619
28394W        W71385  10.978   0.572  27.001  0.0220  0.0511 -0.1193
28395W        W71386   8.414  17.401  28.786 -0.0735 -0.1973 -0.1797
28396W        W71387  10.418  23.680  18.237  0.0630  0.3709 -0.0943
28397W        W71388  26.693   8.354  18.570 -0.0855 -0.1798 -0.4297
28398W        W71389  14.262  13.733  20.812  0.2484 -0.0441  0.0254
28399W        W71390  21.430  31.898  22.370  0.1707 -0.1390  0.0859
28400W        W71391   2.408  29.529  19.924 -0.3574 -0.0261 -0.1674
28401W        W71392   2.031  16.289  24.322 -0.1003  0.2646 -0.1167
28402W        W71393  31.938  22.973  17.748  0.5435 -0.0479 -0.0629
28403W        W71394   1.258  28.307  22.308  0.1889  0.4753 -0.2820
28404W        W71395   2.930   0.659  22.780  0.0176 -0.2719  0.2334
28405W        W71396  23.283  29.629  29.184  0.0084 -0.0092  0.4822
28406W        W71397   5.127  19.135  15.871  0.0558 -0.2118  0.2053
28407W        W71398   8.066  14.910   0.444  0.0080 -0.2535 -0.0171
28408W        W71399  28.008   8.798  22.723  0.1360  0.1460  0.1794
28409W        W71400  18.388  27.141  14.941 -0.1854 -0.0034  0.0348
28410W        W71401   1.389  29.843  17.837 -0.2201  0.0288  0.1201
28411W        W71402   9.603  21.517  15.300  0.1799  0.0540 -0.0153
28412W        W71403   0.729  27.624  23.340 -0.0823 -0.0747  0.0632
28413W        W71404  15.238  31.159  26.808  0.0691 -0.0849 -0.1423
28414W        W71405   7.730   8.310  19.004 -0.3790  0.1663 -0.0731
28415W        W71406  23.810  23.636  24.006  0.1232  0.0387 -0.0468
28416W        W71407  31.785  17.386  27.744  0.3309  0.1433 -0.1452
28417W        W71408   9.626  22.818  18.695  0.0347  0.1097  0.2578
28418W        W71409   3.527  26.740   9.364  0.1463 -0.0737  0.0554
28419W        W71410   7.638  28.403  21.382 -0.1325  0.0566 -0.1606
28420W        W71411  20.754  30.746   2.106  0.3166  0.0461  0.0314
28421W        W71412  24.604  30.005  18.827  0.1505  0.0235 -0.2635
28422W        W71413  11.176  16.488  14.781 -0.0006  0.0044  0.0989
28423W        W71414  10.008  13.165  18.784 -0.0530  0.0217  0.0243
28424W        W71415  13.019  16.467  24.779  0.4942 -0.0474 -0.1013
28425W        W71416  23.378  32.501  19.609  0.1964  0.1199  0.2054
28426W        W71417  33.735  17.481   2.062 -0.0875  0.0794 -0.0960
28427W        W71418   8.732   9.841  20.897  0.0561 -0.1186  0.2592
28428W        W71419  13.002  18.339  21.264  0.2095 -0.0326 -0.2199
28429W        W71420   9.387   3.147  24.227  0.0018 -0.2750 -0.1946
28430W        W71421   3.016  13.056  17.302  0.2314  0.1059  0.0851
28431W        W71422  31.792  22.143  19.064 -0.1998  0.0911  0.1628
28432W        W71423  12.440  32.600  21.869  0.0601 -0.3885  0.0243
28433W        W71424  31.460  24.650   7.686 -0.1324 -0.0411 -0.0927
28434W        W71425  29.537  20.378  28.996  0.0976  0.1550 -0.0963
28435W        W71426  31.165  31.345   8.583  0.0403 -0.0458 -0.3311
28436W        W71427  10.463  18.552  17.978  0.4496  0.1711 -0.1813
28437W        W71428  20.984   8.703  13.926 -0.1494  0.0367 -0.0652
28438W        W71429   1.403  11.530  16.650 -0.0264 -0.0907 -0.1042
28439W        W71430  26.595  24.010  18.415 -0.2112 -0.0410  0.1515
28440W        W71431   9.200  17.951  25.302  0.2008 -0.2500 -0.1819
28441W        W71432   3.817   4.726  18.647 -0.0784  0.0421  0.3072
28442W        W71433  13.859  26.793  18.504 -0.0499  0.1225 -0.3097
28443W        W71434  27.815  17.566  21.697  0.0126  0.2002  0.1918
28444W        W71435  13.956  17.022  12.755 -0.1367  0.1048  0.0622
28445W        W71436   1.945  29.632  23.668  0.1890 -0.2290 -0.0254
28446W        W71437  11.089  20.204  19.016  0.1583  0.1775  0.1779
28447W        W71438  33.146  19.488  17.969 -0.1984 -0.1107  0.0285
28448W        W71439  14.048  18.206  24.568 -0.1238  0.3283  0.0833
28449W        W71440   4.934  19.391  15.447 -0.3228  0.1024 -0.1812
28450W        W71441   6.514  17.013  17.191  0.2804 -0.1725 -0.2799
28451W        W71442   1.761  22.644  15.575  0.0397  0.0802  0.0720
28452W        W71443  25.559  30.184  24.005  0.0085 -0.1974 -0.0578
28453W        W71444   1.834  23.406  18.350 -0.0469  0.1153 -0.0562
28454W        W71445   3.456  27.062   4.822 -0.1318 -0.2731 -0.3791
28455W        W71446  15.078  10.115  25.746  0.1896 -0.2856 -0.1654
28456W        W71447   0.201  24.633  18.580 -0.3657 -0.1014 -0.0888
28457W        W71448  18.591  26.267  18.018 -0.2120  0.4324 -0.0889
28458W        W71449  31.701  11.307  19.706 -0.1299  0.2725  0.0941
28459W        W71450   7.366  31.548  22.192 -0.2174  0.1854  0.0873
28460W        W71451  33.024  26.708  24.955  0.2821  0.0771 -0.1240
28461W        W71452  26.925  14.905  15.079  0.1014  0.0585 -0.0702
28462W        W71453   8.721  13.937   1.583 -0.1462 -0.0172 -0.1012
28463W        W71454   4.723  16.837   7.506  0.2053  0.3382  0.2810
28464W        W71455  18.886  21.319  24.490 -0.0250  0.3513  0.3601
28465W        W71456  19.918   7.950  25.845 -0.0790  0.0932 -0.0599
28466W        W71457  16.224  10.874   8.613 -0.1206 -0.2897  0.1507
28467W        W71458  29.616  22.529  14.582 -0.2858 -0.3309  0.2077
28468W        W71459   2.207  32.814   2.840  0.0283  0.1019 -0.0275
28469W        W71460  17.072  12.925  16.482  0.2881  0.1478 -0.2162
28470W        W71461   3.681  29.141  19.641 -0.0923  0.1833  0.0329
28471W        W71462  20.832  27.803  25.235  0.0662  0.2373 -0.3034
28472W        W71463  31.421  16.498  16.042  0.2905 -0.0090  0.2043
28473W        W71464  29.963  23.364  23.798  0.0070  0.0795  0.0535
28474W        W71465  33.712  27.068  27.117 -0.0462 -0.0358 -0.0372
28475W        W71466   1.095  10.714   9.967 -0.5590  0.3572 -0.1413
28476W        W71467  26.854  17.673  22.115 -0.0937 -0.1253 -0.1377
28477W        W71468  12.608  16.922  13.064 -0.0748 -0.3408 -0.2946
28478W        W71469  31.292  10.411  18.246  0.4226 -0.0622  0.2853
28479W        W71470   0.114   6.635  20.808  0.0269  0.0993  0.0754
28480W        W71471  31.550  27.650  24.152  0.3787  0.1707 -0.1092
28481W        W71472   6.083  14.263  26.310 -0.1522 -0.0585 -0.1762
28482W        W71473   1.602  23.299  26.257 -0.2077 -0.2477 -0.0590
28483W        W71474  14.586  29.077  17.923  0.1688  0.1106  0.1256
28484W        W71475  27.170  11.562  15.262  0.1615  0.2128 -0.1712
28485W        W71476   9.499  17.715  18.640 -0.1909  0.0713 -0.0659
28486W        W71477  28.414  10.342  17.145 -0.1774 -0.0501 -0.0775
28487W        W71478  19.721  20.058   4.522  0.0431  0.2897  0.0810
28488W        W71479   6.461  19.441  19.017 -0.0573 -0.1876 -0.3403
28489W        W71480   1.688  28.897  23.041 -0.3025  0.3811 -0.0138
28490W        W71481  26.542  18.611  27.501 -0.0476 -0.1833 -0.2655
28491W        W71482  31.704  10.040  27.452 -0.0102 -0.0186 -0.0201
28492W        W71483  33.578   1.161  24.149  0.3052 -0.1294  0.0155
28493W        W71484  27.867  18.729  25.917  0.3534  0.0724 -0.0278
28494W        W71485  32.114  13.348  18.305 -0.0833 -0.0003  0.1103
28495W        W71486  29.592   2.834  16.140 -0.0279 -0.1187  0.0099
28496W        W71487   1.967   9.162  21.545 -0.0535 -0.4856 -0.2486
28497W        W71488  31.358  22.444  16.128  0.2425  0.0321  0.0400
28498W        W71489   7.885   5.288  25.829 -0.0970 -0.4052 -0.0452
28499W        W71490  34.474  20.856  19.802  0.0873 -0.1443 -0.0723
28500W        W71491  10.247  18.280  25.444 -0.0052  0.3937 -0.2610
28501W        W71492   7.301  25.467  27.657 -0.0037  0.2658 -0.1927
28502W        W71493   0.844  30.791   5.281  0.0361 -0.0142  0.0722
28503W        W71494   3.230  27.731  20.485 -0.0097  0.0758 -0.3460
28504W        W71495   7.215  16.698  16.577  0.2963 -0.0402 -0.1529
28505W        W71496  33.727  20.491  28.043  0.2516  0.1979  0.1010
28506W        W71497   4.750  20.836   1.119  0.2027 -0.1654  0.0290
28507W        W71498  31.463   7.736  19.419  0.1208  0.0804  0.2554
28508W        W71499   9.092  19.604   5.290 -0.0409  0.0877  0.1945
28509W        W71500  34.229  18.914  21.588 -0.0101  0.2572  0.4191
28510W        W71501  10.143   2.426  27.919  0.3630  0.0552 -0.1209
28511W        W71502  25.895  22.729  26.375 -0.1319  0.2326 -0.0544
28512W        W71503   8.570  22.121  17.466 -0.2390 -0.0178  0.1480
28513W        W71504  33.887   4.260  18.923  0.1915  0.0513 -0.1460
28514W        W71505  27.097  22.625  14.215  0.3302  0.1388 -0.2547
28515W        W71506  10.056  13.871  15.052  0.2699  0.1651 -0.0768
28516W        W71507   5.647  10.862  25.416  0.0336 -0.0671 -0.1587
28517W        W71508   3.723  13.724  26.480 -0.0215  0.3089  0.2315
28518W        W71509  12.564  29.526  22.518 -0.0860  0.1930  0.0057
28519W        W71510   0.362  26.430   4.194 -0.0365  0.2401  0.2871
28520W        W71511   1.612  25.288  21.090 -0.1619 -0.1078  0.1999
28521W        W71512  29.028  20.184  20.915  0.1663 -0.1308  0.0168
28522W        W71513  33.008   4.733  28.814  0.0200 -0.0172  0.1998
28523W        W71514   3.940   0.363  16.500  0.1116  0.1488 -0.0106
28524W        W71515  12.055  21.466   0.909  0.0992 -0.3466 -0.0520
28525W        W71516  32.122  10.156  16.831  0.1201 -0.3207  0.1341
28526W        W71517  13.331  23.036  28.945  0.0182 -0.0261 -0.0697
28527W        W71518  12.850  31.946  25.956 -0.1670  0.2400  0.0859
28528W        W71519  17.252  21.437  28.413  0.0651 -0.0899  0.2002
28529W        W71520  14.055  24.023  26.955 -0.0652 -0.0794 -0.1750
28530W        W71521   0.075  14.326  25.421 -0.0994  0.0502 -0.0639
28531W        W71522  33.990  24.960  21.037 -0.2323  0.1013 -0.0476
28532W        W71523  23.608  19.344  13.653  0.4132  0.2969 -0.0509
28533W        W71524  11.570   0.351   6.446  0.0697 -0.0738 -0.1147
28534W        W71525  10.170  21.229   8.909  0.1790  0.0360  0.0981
28535W        W71526  24.155   9.830  16.943 -0.1542  0.1987  0.0241
28536W        W71527  19.732  29.852  16.358  0.0170  0.1869 -0.0097
28537W        W71528  33.082  24.623  21.763 -0.1494  0.2162  0.1939
28538W        W71529   4.669  26.440   1.505  0.0877  0.2365 -0.0474
28539W        W71530  25.081  25.554  20.142  0.0611 -0.0488  0.4179
28540W        W71531   6.024  29.642  25.802  0.0615 -0.0079  0.1684
28541W        W71532   7.557  20.447  28.086  0.3277 -0.2028 -0.0858
28542W        W71533  32.645   3.289  14.415  0.3390 -0.0457 -0.2535
28543W        W71534   5.072  21.113  19.720 -0.1709 -0.1851 -0.0419
28544W        W71535   6.903  13.824  28.107 -0.1376  0.0394  0.0434
28545W        W71536   7.226   2.212   1.408 -0.1073 -0.0301  0.0724
28546W        W71537  12.345  11.540  22.915 -0.0312 -0.1797  0.0866
28547W        W71538   9.492  24.186  16.183  0.1588  0.1618  0.2366
28548W        W71539   0.226  11.785  16.523  0.0016  0.2073  0.0468
28549W        W71540  15.665   9.789   2.148  0.0076 -0.2440  0.0314
28550W        W71541  33.156   5.102   1.099 -0.1467  0.1337  0.0751
28551W        W71542  19.174   8.179  22.571  0.2297 -0.0070  0.0393
28552W        W71543  11.647  20.486  18.257 -0.0544 -0.2122  0.1126
28553W        W71544   2.570  16.555  21.773  0.0665  0.0965  0.3803
28554W        W71545  15.262  24.261  25.080  0.1766 -0.1834  0.0744
28555W        W71546   8.454  20.432  23.465 -0.2691 -0.1674  0.1673
28556W        W71547  33.165  21.117  16.318 -0.1371  0.0581  0.1683
28557W        W71548   0.989  21.414  20.491  0.0855 -0.1446  0.0257
28558W        W71549   4.903  21.461  22.931 -0.0794 -0.1825 -0.0644
28559W        W71550   8.927   0.447  21.552  0.1625 -0.2304  0.3146
28560W        W71551   8.524  26.748  25.229 -0.0490 -0.0957  0.1808
28561W        W71552  26.200  25.473  17.889 -0.1824  0.5362 -0.2785
28562W        W71553  33.794  25.986  17.371 -0.0289 -0.2553  0.2496
28563W        W71554   9.248  20.993  22.106 -0.2971 -0.2326  0.1166
28564W        W71555  32.579  13.703  26.839  0.1144  0.1184 -0.1307
28565W        W71556  10.517  22.511  15.508  0.4208  0.0950 -0.3697
28566W        W71557  33.735  14.048  20.235  0.2218  0.4550  0.2117
28567W        W71558  26.191  28.044  25.557  0.0230  0.0226  0.0149
28568W        W71559  29.759  17.889  18.003 -0.2127  0.0801  0.2193
28569W        W71560  25.789  13.285  21.550 -0.1200  0.0658  0.0182
28570W        W71561   3.515   6.221  21.460  0.0714 -0.0716 -0.2099
28571W        W71562  22.676  16.644  21.814 -0.0977  0.0528 -0.2209
28572W        W71563  20.350  30.941  17.479  0.2762 -0.0530  0.0544
28573W        W71564  26.062  27.129  14.758  0.3079  0.1657  0.2233
28574W        W71565  15.632  28.048  15.681 -0.2893  0.0305  0.0088
28575W        W71566  13.097  17.258  24.359  0.0243 -0.2068 -0.3191
28576W        W71567  28.971  19.302   7.617 -0.2944  0.0562 -0.0498
28577W        W71568  10.563  22.965  18.114  0.2508  0.1722  0.0861
28578W        W71569   3.092   7.605  10.836  0.0957  0.1425  0.2535
28579W        W71570  12.282  14.583  15.233 -0.3677  0.0724 -0.0706
28580W        W71571   1.084  27.734  19.415  0.1930 -0.0626 -0.1386
28581W        W71572  29.686  23.800  22.739 -0.2276  0.0455  0.0365
28582W        W71573   0.239  25.675  25.973 -0.0122  0.1005  0.4792
28583W        W71574  15.555  33.818   4.850 -0.0608 -0.1599 -0.0700
28584W        W71575  14.870   6.591   1.142 -0.0737  0.2610 -0.1288
28585W        W71576   1.253   0.276  16.114  0.0837  0.1111  0.0500
28586W        W71577  19.179  21.349  18.825  0.0282  0.2648  0.2306
28587W        W71578   0.889  27.073   7.927 -0.0730 -0.1511  0.1444
28588W        W71579   8.285  26.213  20.001  0.0279  0.0140 -0.0858
28589W        W71580  10.236   9.864  26.301  0.3230 -0.3264  0.1158
28590W        W71581   8.508  14.641  21.349  0.2959  0.0475  0.1277
28591W        W71582   2.556  20.061  15.900 -0.2034  0.0999  0.4040
28592W        W71583  33.088  17.607  18.240 -0.2453  0.2701  0.3942
28593W        W71584  14.752  12.350  21.183  0.3081  0.0999 -0.0420
28594W        W71585  34.098  16.490  18.906  0.1234  0.0182 -0.3204
28595W        W71586  23.484  21.435  13.632  0.2355 -0.0533  0.0835
28596W        W71587   2.120  16.495  18.278 -0.1899  0.0722  0.1259
28597W        W71588  19.084  32.002  16.352 -0.1615 -0.0303  0.4121
28598W        W71589  14.527   0.398  18.914 -0.2329  0.0284 -0.0903
28599W        W71590   5.162  16.766  18.169  0.0928 -0.1424  0.0431
28600W        W71591  18.732  32.782   6.355 -0.0818  0.0592  0.2229
28601W        W71592   8.055  12.924  16.918 -0.2677  0.2158  0.3307
28602W        W71593  31.712  15.545   5.574  0.0688 -0.4282 -0.2858
28603W        W71594   8.819  18.942  20.615 -0.0415  0.2027  0.0268
28604W        W71595  28.722   8.814  15.276  0.0580  0.1930 -0.1640
28605W        W71596   7.614  32.195  25.327 -0.0884  0.1792  0.1429
28606W        W71597  18.066  24.083  18.801 -0.0886  0.0833 -0.0544
28607W        W71598  26.849  24.546  13.176  0.0401 -0.1759  0.0204
28608W        W71599  17.774   0.232  26.562  0.0490 -0.1558  0.1014
28609W        W71600   4.124  28.812   3.949 -0.2899 -0.1384 -0.1707
28610W        W71601  32.387  18.241  16.078  0.3530 -0.0544  0.0653
28611W        W71602  18.120   5.022  21.469 -0.0633 -0.1210 -0.1192
28612W        W71603  12.581  15.436  15.027  0.2168  0.1561  0.2190
28613W        W71604   2.868  30.045  14.351 -0.2987  0.1376 -0.3510
28614W        W71605  21.236  27.806  21.606 -0.1368  0.1853  0.1768
28615W        W71606   3.934  33.547  16.214  0.3746 -0.1272  0.1453
28616W        W71607  23.721  21.708  20.804  0.0267 -0.0752  0.0172
28617W        W71608   0.057   7.151  14.908 -0.0058 -0.2012 -0.1864
28618W        W71609  31.046   5.178  16.891 -0.0850 -0.1095 -0.1103
28619W        W71610   5.630   1.781  21.165 -0.2798  0.1028 -0.1938
28620W        W71611   7.207   0.321  22.348  0.0708  0.0839  0.1561
28621W        W71612   9.339  26.103  18.893  0.0415 -0.1105  0.0413
28622W        W71613   3.667  22.416  26.328  0.1860 -0.1286  0.0055
28623W        W71614   7.714   6.939   5.635 -0.3095 -0.1608  0.1104
28624W        W71615  34.726  13.488  15.356  0.1985  0.0625  0.0030
28625W        W71616   4.844  29.448  15.964 -0.1718  0.1270 -0.0736
28626W        W71617  18.735  17.332  12.616  0.2561 -0.1707  0.1650
28627W        W71618  33.850  24.193  20.925 -0.0506 -0.0504 -0.3185
28628W        W71619  15.354   6.758  22.883  0.2260 -0.0881 -0.2520
28629W        W71620   3.619  12.077  18.008  0.3203 -0.2398 -0.0286
28630W        W71621  20.548   7.258  18.985 -0.2681 -0.2723 -0.0607
28631W        W71622   4.217  20.344  16.758 -0.1030  0.0796 -0.0382
28632W        W71623  13.167  19.912  14.955 -0.1251  0.1928 -0.1150
28633W        W71624  13.693  28.251  18.192 -0.0937  0.1896 -0.1438
28634W        W71625   7.513  17.975  15.463 -0.2646 -0.0471  0.0599
28635W        W71626   9.726   7.553   5.293  0.0707  0.1291 -0.0864
28636W        W71627  33.440   2.264   3.347  0.2421  0.2566  0.3211
28637W        W71628  33.990  16.042   2.716  0.2203 -0.1993  0.1587
28638W        W71629   7.925   1.585  25.466 -0.3118  0.0307 -0.2704
28639W        W71630  24.130  34.174  14.691 -0.2391  0.1395 -0.2463
28640W        W71631  33.010  28.056  16.955  0.0719 -0.1368  0.1365
28641W        W71632  33.383   9.567  16.139 -0.0886 -0.0673 -0.1530
28642W        W71633   8.568  19.298  20.925 -0.0679 -0.1187 -0.1471
28643W        W71634   3.399  10.014  18.900 -0.1255 -0.1894 -0.0836
28644W        W71635   8.426  26.681  21.901 -0.1346  0.0042  0.1260
28645W        W71636   8.270  18.520  25.111 -0.1991 -0.0773  0.1090
28646W        W71637  16.935  20.528  22.387 -0.1303 -0.1609  0.1628
28647W        W71638   4.799  14.092  18.064 -0.2246 -0.0150 -0.1265
28648W        W71639  11.717  30.303  19.506 -0.0732  0.1490  0.1953
28649W        W71640  32.614  10.927   9.166 -0.0058 -0.2139  0.2327
28650W        W71641   7.135  23.172  20.069 -0.1661  0.1523 -0.5126
28651W        W71642  28.456  22.690  20.118 -0.2377  0.0024 -0.0673
28652W        W71643  11.893  31.153   4.595 -0.0605 -0.0585  0.0045
28653W        W71644  19.478  23.887  16.978  0.2338 -0.3470  0.2242
28654W        W71645  18.249  34.571  21.362  0.3529  0.0068  0.2496
28655W        W71646  30.850  25.994  27.865 -0.1762 -0.0829  0.0718
28656W        W71647  12.897  14.367  19.501 -0.0451 -0.1649  0.1236
28657W        W71648  22.551   4.119  25.889 -0.3633 -0.0546  0.3475
28658W        W71649   0.949  28.859  27.031  0.2428 -0.2786 -0.3184
28659W        W71650  30.104  13.625   3.564 -0.0807 -0.1179 -0.1926
28660W        W71651   1.048  16.824  21.083  0.0256  0.0749  0.0146
28661W        W71652  22.762  16.356  25.019 -0.0771  0.1540 -0.2470
28662W        W71653  17.422  21.419  15.081  0.1497  0.0738 -0.1152
28663W        W71654  27.848  30.639  15.691 -0.1829 -0.0621  0.0333
28664W        W71655  23.798   4.372  21.008 -0.2280  0.3406  0.1879
28665W        W71656   8.656  26.234  22.524  0.1060 -0.0667 -0.2283
28666W        W71657  25.454  17.590   7.900 -0.2145  0.0477  0.1762
28667W        W71658  15.642   7.106  20.576  0.1891 -0.2250  0.1653
28668W        W71659   7.843  13.644   5.302  0.1530  0.2576 -0.3571
28669W        W71660  11.318   0.159   1.060 -0.3644 -0.0839 -0.0137
28670W        W71661  24.087  11.603  15.398 -0.0070  0.2941  0.5163
28671W        W71662  26.180  24.997  17.855  0.0692 -0.1427 -0.1622
28672W        W71663  32.622   9.356  23.605 -0.3701 -0.0157 -0.2831
28673W        W71664  10.224  18.949   4.191 -0.3810  0.2865 -0.0034
28674W        W71665   7.836  27.876  18.516  0.0071  0.0766 -0.3208
28675W        W71666  14.933  18.393  25.743  0.3239  0.1006 -0.0413
28676W        W71667  17.369  20.738  14.833 -0.2630  0.1795  0.1200
28677W        W71668   7.514  12.584   4.875 -0.1985 -0.0879 -0.0113
28678W        W71669   9.530   0.214  15.940  0.3818  0.3318 -0.3167
28679W        W71670   2.147  18.695  26.755 -0.0917  0.2443  0.0965
28680W        W71671  19.991  11.364  19.942 -0.1026  0.2065  0.2069
28681W        W71672  26.004  27.519   0.267 -0.1811  0.1470  0.0491
28682W        W71673  34.038   0.930  23.083 -0.0490 -0.2605  0.1419
28683W        W71674   2.179  12.708   8.917  0.0836  0.0306 -0.0441
28684W        W71675   8.038  25.847  27.136  0.2340  0.2660 -0.0322
28685W        W71676  32.277  19.381  28.753 -0.0966 -0.2733  0.2248
28686W        W71677  33.422  20.145  22.747  0.5179  0.0600 -0.1273
28687W        W71678  16.478  13.605  24.317 -0.1369 -0.0958 -0.0922
28688W        W71679  34.382  28.834  23.075  0.1072  0.4444 -0.2741
28689W        W71680   4.934  12.080  22.594  0.0685 -0.2164  0.1507
28690W        W71681   8.005  10.775  17.529 -0.1909 -0.0487  0.0569
28691W        W71682  13.472   9.146  22.598 -0.1323  0.2929  0.1115
28692W        W71683  33.082  10.786  17.918 -0.1639 -0.0921 -0.1182
28693W        W71684  32.891  34.527  22.225  0.1269  0.0978  0.3797
28694W        W71685  29.160   0.474  12.722 -0.1734  0.1860 -0.3187
28695W        W71686  10.475  26.537  17.168 -0.1311 -0.1119 -0.1044
28696W        W71687  16.163  24.874  17.477  0.0831 -0.0179 -0.2750
28697W        W71688  28.307  22.785  24.204 -0.0775  0.2286  0.0080
28698W        W71689   6.730  30.596  28.662  0.0727 -0.1041 -0.2954
28699W        W71690   7.859  20.896  21.629 -0.2020  0.2888  0.1658
28700W        W71691  20.193  22.791   2.143 -0.1036 -0.2311 -0.3095
28701W        W71692   8.898  27.055  25.363  0.1077 -0.1236  0.0159
28702W        W71693   8.518  26.263  16.813 -0.3655 -0.2007  0.2349
28703W        W71694   4.493  10.937  26.202 -0.1312  0.1096 -0.1409
28704W        W71695   9.178  14.498   5.111  0.0840 -0.2335 -0.0696
28705W        W71696  31.420  28.596  16.084  0.0580  0.0076  0.1135
28706W        W71697   8.178  22.402   3.260 -0.0162  0.2441 -0.1008
28707W        W71698   0.033   8.346   3.742  0.1169  0.0241  0.0772
28708W        W71699  21.933  13.171   1.128 -0.1076 -0.0693  0.3788
28709W        W71700   9.215  12.310  22.825  0.0159  0.2119 -0.1468
28710W        W71701  31.343   6.062  15.775 -0.1452 -0.0971 -0.1468
28711W        W71702  21.641  31.432   0.040  0.0464 -0.0388  0.2465
28712W        W71703   0.998  20.961  25.531 -0.0585 -0.2001 -0.0960
28713W        W71704  31.641   7.749   0.577 -0.0560 -0.0780 -0.2069
28714W        W71705  29.249  15.777  19.200 -0.1596  0.1607 -0.1163
28715W        W71706  16.664  25.889  15.266 -0.2615  0.0077 -0.1785
28716W        W71707  27.069  34.684  24.068  0.0832  0.3554 -0.0275
28717W        W71708  27.563  12.560  22.387 -0.1059 -0.3761  0.1011
28718W        W71709  17.457  20.699  18.431  0.0071 -0.3243 -0.1188
28719W        W71710   4.979  32.544  22.249 -0.1746  0.0509 -0.2572
28720W        W71711   8.020  33.073  28.472  0.0225 -0.1388 -0.2403
28721W        W71712   8.663  23.844  25.883 -0.0610 -0.2673  0.0040
28722W        W71713   7.832  20.123  15.174  0.1249  0.1961 -0.0228
28723W        W71714   0.880   9.271  21.002 -0.2143  0.2574 -0.0864
28724W        W71715   7.663  18.636   0.219 -0.0989  0.2547  0.1465
28725W        W71716   5.551  32.852  18.566 -0.0210 -0.0683  0.3018
28726W        W71717  28.697  21.566  26.575 -0.0402  0.1098  0.3003
28727W        W71718   2.951  30.130  18.566  0.0288  0.2887 -0.1042
28728W        W71719   3.657  26.726  25.082  0.3345  0.2073 -0.1132
28729W        W71720   7.897   7.397  24.206  0.0925 -0.0399  0.0805
28730W        W71721   3.616  16.797  22.670  0.1393  0.3724 -0.3310
28731W        W71722   6.092  28.248  22.349  0.2577  0.1380  0.0344
28732W        W71723  30.040  14.571  19.893  0.1804 -0.4281 -0.1827
28733W        W71724   4.165   5.840   0.925 -0.1025 -0.0001 -0.0453
28734W        W71725   1.546  20.749  21.649 -0.0947  0.0765  0.2430
28735W        W71726  21.320   3.710   9.317  0.0693  0.1946  0.2226
28736W        W71727  30.182  32.283  13.878  0.3285 -0.2019 -0.2639
28737W        W71728  24.787  24.955  26.454 -0.4846 -0.2503 -0.1788
28738W        W71729   3.509  27.621   0.743  0.0694 -0.2184  0.0781
28739W        W71730  15.147   4.836  21.859 -0.1614 -0.1281  0.0000
28740W        W71731   1.755  12.584  21.816  0.1165  0.2497 -0.1712
28741W        W71732   5.419  22.406   3.306 -0.0634  0.4775  0.0304
28742W        W71733  25.985  30.421  17.519 -0.2893  0.2883  0.1307
28743W        W71734  12.636   8.863  26.175  0.1927 -0.0863 -0.2792
28744W        W71735  20.226   9.717  18.008 -0.0063  0.2817  0.0058
28745W        W71736  10.059  12.946  26.397 -0.2350  0.0334 -0.0240
28746W        W71737  25.810  14.957  18.616 -0.2478 -0.0977  0.1188
28747W        W71738   0.067  24.244   4.810 -0.0575 -0.2557  0.2299
28748W        W71739  11.699  22.098  20.206  0.2261  0.1308  0.4184
28749W        W71740  22.716  28.638   2.954  0.0492 -0.3380  0.1185
28750W        W71741   4.711  13.591   0.319 -0.1888  0.0228  0.3633
28751W        W71742  32.879  16.167  11.227  0.4696  0.0461 -0.1991
28752W        W71743   5.151  21.225  21.952  0.1302 -0.0250 -0.0427
28753W        W71744  18.706  21.837   4.214 -0.2309  0.0262  0.0311
28754W        W71745  12.678  15.949  26.086 -0.1706 -0.0830 -0.0333
28755W        W71746   9.272  18.680  16.662 -0.0438  0.4833  0.2710
28756W        W71747  22.709  18.532  14.208  0.0018  0.0314 -0.0801
28757W        W71748  11.330  22.487  23.713  0.0374  0.1283 -0.1463
28758W        W71749  17.747  28.491   7.202 -0.1222  0.1898  0.2222
28759W        W71750   3.711  29.819  14.861  0.1910 -0.0362 -0.0872
28760W        W71751   5.005  27.854  25.476 -0.2574  0.2108 -0.0834
28761W        W71752  10.053  18.332  23.465 -0.3174  0.2861  0.0844
28762W        W71753   6.315  29.646   7.238 -0.0508  0.2729  0.2150
28763W        W71754  11.741  13.564   0.186 -0.0607  0.1498 -0.1138
28764W        W71755  20.843  28.573  15.067 -0.1583 -0.2551 -0.0275
28765W        W71756  12.501  21.315  25.885  0.0709  0.2264 -0.0977
28766W        W71757   1.407  15.973  19.484  0.0424 -0.1782 -0.0005
28767W        W71758   3.612   7.173  26.246 -0.1574  0.1000  0.0222
28768W        W71759  30.945  23.952  16.737  0.1168 -0.1874 -0.1286
28769W        W71760   2.765  34.309  20.203 -0.2306 -0.3024  0.2551
28770W        W71761  31.717  31.123  15.581 -0.0339 -0.0807 -0.2165
28771W        W71762  29.272   0.658   4.818 -0.5153  0.1224  0.3852
28772W        W71763  12.684  32.867   1.803  0.0383 -0.0959  0.1148
28773W        W71764  33.072   0.928  19.221 -0.3433 -0.1184 -0.0320
28774W        W71765  28.833  26.542  14.981  0.0579 -0.1189  0.0792
28775W        W71766  16.579  20.100  28.155 -0.0787 -0.0152 -0.2541
28776W        W71767   2.909   4.444   1.334 -0.2828  0.0880 -0.1673
28777W        W71768   7.676  14.696  15.207  0.2122  0.0566  0.1010
28778W        W71769  10.605  24.152   2.705 -0.3911 -0.0930 -0.4044
28779W        W71770  10.900  17.963  26.149  0.3220  0.2062  0.0975
28780W        W71771  15.439  33.947  21.633  0.1811 -0.3130  0.1597
28781W        W71772  29.130  19.660  10.595 -0.0419 -0.1266 -0.1470
28782W        W71773  14.889  19.191  26.635  0.2406 -0.1144 -0.1620
28783W        W71774  29.241  31.163   0.935  0.1364  0.0258 -0.2063
28784W        W71775   5.194  18.441  15.609  0.2439 -0.0106  0.1828
28785W        W71776  31.699  16.297   1.781  0.1040 -0.0444 -0.0495
28786W        W71777  12.112   6.971  17.076 -0.0751 -0.1339 -0.1511
28787W        W71778  12.220  16.194  18.468  0.1796 -0.0130 -0.4720
28788W        W71779   3.905  32.274  24.892  0.0816 -0.0161 -0.0007
28789W        W71780  34.304  15.630  24.907 -0.3785  0.1860 -0.0524
28790W        W71781   7.004  24.899  15.662  0.2044 -0.1113  0.0867
28791W        W71782  17.871  10.649  16.682 -0.2147  0.0826 -0.1966
28792W        W71783  10.038  14.327   0.604 -0.1910 -0.0209  0.1783
28793W        W71784  21.749  19.642  14.353  0.1971 -0.0259  0.2289
28794W        W71785   7.565   1.706  29.243 -0.2509  0.1841 -0.2891
28795W        W71786   4.272  17.503  21.720  0.0888 -0.1947  0.0079
28796W        W71787  25.153  22.749  21.437  0.0754 -0.2728  0.1240
28797W        W71788   2.799   6.549  21.605 -0.0629  0.1191 -0.0619
28798W        W71789  12.933  27.154   5.460 -0.1053 -0.0542  0.1125
28799W        W71790  16.113  20.308  15.867 -0.1403 -0.1362  0.1300
28800W        W71791  13.932  28.706  19.841  0.3211 -0.0188  0.2282
28801W        W71792   3.836  19.806   9.256 -0.0056 -0.3638  0.0114
28802W        W71793   1.650  21.932  18.926 -0.0761 -0.0581  0.1039
28803W        W71794  33.347  23.544   2.708 -0.3513  0.1948  0.0306
28804W        W71795  22.154  14.356  15.551 -0.1248  0.2512 -0.1090
28805W        W71796  31.231  30.772  19.687 -0.5244 -0.1331 -0.1598
28806W        W71797  26.162   3.207  22.123  0.2095 -0.0588 -0.1461
28807W        W71798  34.398   1.000  28.533  0.1523 -0.1810 -0.2565
28808W        W71799  31.149  30.698  25.165  0.0367 -0.2013  0.2649
28809W        W71800  28.081  15.720  17.653 -0.0961  0.0254 -0.1721
28810W        W71801  27.663  14.795  25.774  0.2545 -0.1861  0.0835
28811W        W71802   1.195  20.364  21.825 -0.0675 -0.2764  0.1404
28812W        W71803   9.543  23.317  17.011 -0.1626 -0.0271 -0.0280
28813W        W71804  19.757   6.026  19.301 -0.1086 -0.2233 -0.0261
28814W        W71805  33.359  22.858   8.863  0.1574  0.3082 -0.2274
28815W        W71806   5.152  26.401  20.967  0.1119  0.0444 -0.1558
28816W        W71807  28.734   6.344  21.925  0.4230  0.1163 -0.2413
28817W        W71808  10.106   3.082  14.800  0.1410  0.1619 -0.2357
28818W        W71809  15.185  28.678  14.977  0.0010  0.1815 -0.0802
28819W        W71810  10.421  23.769   7.268  0.0530  0.2207  0.1169
28820W        W71811  33.601  13.276  17.299  0.1686  0.2061 -0.1283
28821W        W71812  24.833  26.404  17.895 -0.1275  0.1807  0.1946
28822W        W71813  12.881  17.134  26.713  0.1608 -0.0658  0.1472
28823W        W71814   3.304  17.450  18.947 -0.0999 -0.0948  0.2573
28824W        W71815  12.071  14.621   8.774  0.0993 -0.2846 -0.1152
28825W        W71816  24.726  18.012  28.419  0.1845 -0.0358  0.1357
28826W        W71817  29.997   9.802   0.852  0.3570 -0.0405  0.0422
28827W        W71818  28.332  15.704  25.448 -0.2056  0.1151 -0.1421
28828W        W71819  33.698  22.637  27.514  0.1365  0.0542  0.2711
28829W        W71820  26.029   2.996  14.296 -0.0080  0.1254 -0.0719
28830W        W71821   4.218  23.909   7.299 -0.0214  0.0488  0.1969
28831W        W71822   9.828  34.649  15.800  0.0508  0.0889  0.0065
28832W        W71823  16.994  22.712  14.586  0.2844 -0.1502 -0.0300
28833W        W71824  33.945  32.407  24.335  0.0330 -0.0104 -0.3915
28834W        W71825  29.071  29.437  21.188 -0.1443 -0.0469  0.0609
28835W        W71826  10.931  10.738  18.423 -0.2045 -0.1169  0.1973
28836W        W71827  15.783  24.769   8.471  0.2336 -0.0357 -0.4349
28837W        W71828  18.149  21.573  23.321  0.1618  0.0265 -0.2995
28838W        W71829  17.834  26.712  21.101 -0.0185  0.2699 -0.1146
28839W        W71830   4.914  27.751   1.779  0.0284 -0.1944  0.0728
28840W        W71831  29.133  12.667  23.722  0.0746 -0.0360 -0.3528
28841W        W71832   7.347  32.094  20.912 -0.0664  0.0381 -0.2675
28842W        W71833   5.859   6.329  20.834  0.0446 -0.0597  0.0767
28843W        W71834   0.926  31.808  17.250 -0.2559  0.1129  0.0061
28844W        W71835  29.810  25.058   4.583  0.2721 -0.0757 -0.0904
28845W        W71836   3.919  20.625   3.982 -0.0356 -0.0419  0.2574
28846W        W71837   4.382  14.090  18.375 -0.0776 -0.0840  0.0359
28847W        W71838  16.381  10.733  15.036  0.1243 -0.0452 -0.0265
28848W        W71839  32.490  31.379   4.744 -0.2255  0.0849 -0.0195
28849W        W71840  33.808  32.404  27.142  0.0671  0.1535 -0.2088
28850W        W71841  17.930  18.056  14.211  0.3437 -0.1493 -0.4342
28851W        W71842  21.948  18.778  18.086 -0.2523 -0.1907 -0.1870
28852W        W71843  33.728  14.977  20.592  0.0010 -0.0331 -0.1456
28853W        W71844   5.866  19.388  17.838  0.1752 -0.0124 -0.0661
28854W        W71845  16.191  31.866   7.557  0.1389  0.1783  0.0855
28855W        W71846  27.767   0.530  23.231 -0.1178 -0.2902 -0.2236
28856W        W71847  34.043   1.304  24.830  0.2287 -0.1422  0.2841
28857W        W71848  17.280  25.861  19.085  0.0573  0.0746 -0.0910
28858W        W71849  34.224  23.753  14.173 -0.0167  0.0134  0.0491
28859W        W71850  29.259  12.507  25.539  0.0367 -0.1194 -0.1107
28860W        W71851   6.391  19.146  22.265  0.0387 -0.2934  0.1586
28861W        W71852   7.295   7.010  20.700  0.1667  0.1166  0.1490
28862W        W71853   1.528   6.301  28.728  0.0938  0.2095  0.2609
28863W        W71854  27.531   1.361  21.526 -0.2298 -0.0260  0.3329
28864W        W71855   9.282  32.522  16.783  0.4226 -0.0726  0.2067
28865W        W71856  33.114  15.117  20.719 -0.2268 -0.0661 -0.0334
28866W        W71857  26.122   8.618  21.945  0.2643  0.1526  0.0673
28867W        W71858  27.220  20.128  26.796  0.5179 -0.2006  0.1707
28868W        W71859  19.540   0.528  15.765 -0.1238  0.2184 -0.3279
28869W        W71860  16.029  27.366  17.294 -0.0513  0.1641 -0.0425
28870W        W71861   0.767  12.994   0.362  0.0090 -0.0752  0.0233
28871W        W71862  32.961  19.217   2.005 -0.4055  0.1809 -0.1889
28872W        W71863   5.270  24.507  22.945 -0.0820  0.0130 -0.2171
28873W        W71864  28.637   2.032  22.402  0.6161 -0.2585  0.0938
28874W        W71865   3.350  21.210  21.253 -0.0464 -0.0774  0.0423
28875W        W71866   3.716  26.495  16.672  0.1990  0.0215 -0.0903
28876W        W71867   3.876  26.000  27.743  0.0419 -0.0690  0.2411
28877W        W71868  21.976  28.491  18.828  0.0307 -0.0678 -0.2788
28878W        W71869  30.208  15.459  22.284  0.4649  0.1458  0.0815
28879W        W71870  16.472   1.830  28.881 -0.0874  0.0634 -0.2510
28880W        W71871   3.430  18.784  15.815  0.1555 -0.2199  0.1057
28881W        W71872  21.239   5.957  18.042 -0.0692  0.1947  0.3656
28882W        W71873   7.182   3.638  24.441  0.0068 -0.1443  0.0469
28883W        W71874  21.431  23.474  17.413 -0.0589  0.3531  0.1475
28884W        W71875  30.205  29.550  18.965 -0.3552  0.3991 -0.5018
28885W        W71876  17.388   7.506  23.967  0.0605 -0.1925 -0.2799
28886W        W71877   3.383  19.830  28.495 -0.2876  0.0199  0.0335
28887W        W71878   8.918  20.671  15.961 -0.1660  0.1205  0.0821
28888W        W71879   0.557   8.184   1.038  0.1322 -0.0157 -0.0581
28889W        W71880  31.753  22.268  27.678  0.1321 -0.1843 -0.0062
28890W        W71881   0.503  19.363   0.977 -0.2698  0.0302  0.0770
28891W        W71882  21.487  33.624  18.059  0.1000 -0.1226  0.0568
28892W        W71883  33.837  19.213  21.761 -0.2669 -0.0533 -0.1863
28893W        W71884   3.753   0.599  21.585 -0.0934  0.1490  0.0738
28894W        W71885  11.142  24.312  20.474  0.2462 -0.4974  0.0891
28895W        W71886   5.690  34.284   1.667  0.1735  0.1469 -0.2905
28896W        W71887  23.965  24.417   7.527  0.1383  0.0344  0.4324
28897W        W71888  12.723  30.861   8.075  0.0007  0.1483 -0.4335
28898W        W71889   8.450  27.077  16.231 -0.2753 -0.0386 -0.0676
28899W        W71890  10.826  25.106  23.313  0.1973 -0.1310 -0.2638
28900W        W71891  15.387  22.025  13.671  0.0494  0.1759  0.1667
28901W        W71892  25.022  20.014   0.454  0.4101 -0.0973  0.0884
28902W        W71893  27.678  22.097  26.786 -0.0797  0.2639 -0.2095
28903W        W71894   7.512  11.898  25.620 -0.0936  0.0760  0.0785
28904W        W71895  34.576  13.702  22.119 -0.1342  0.0939  0.1169
28905W        W71896   4.710  34.012  15.509 -0.1776 -0.1146  0.0260
28906W        W71897   4.447  24.548  24.908  0.0406  0.0296  0.0898
28907W        W71898  18.195  26.323   1.510  0.1239  0.1062  0.2433
28908W        W71899   0.826  15.450  20.663 -0.1992 -0.0632 -0.0434
28909W        W71900  24.282  28.480  22.114 -0.0919  0.0999 -0.2378
28910W        W71901   3.159  20.915  18.870  0.3922 -0.1846  0.3028
28911W        W71902  27.430  31.433  16.450 -0.2065  0.1776  0.3450
28912W        W71903   0.137   1.771  22.510  0.0601 -0.1474 -0.1660
28913W        W71904   7.577  20.597  18.467  0.0966 -0.0120 -0.1181
28914W        W71905  27.990   7.294  21.879 -0.0753  0.0006 -0.2238
28915W        W71906   2.832  15.633   7.251 -0.0331 -0.1328 -0.3584
28916W        W71907  22.982  29.827  15.526  0.1554  0.0782  0.1512
28917W        W71908  10.685   4.368  16.893 -0.1575 -0.2187 -0.0922
28918W        W71909   9.245  21.175  18.552  0.2177 -0.0612  0.2861
28919W        W71910  32.888  12.256  22.934  0.0244  0.0620 -0.1970
28920W        W71911   2.691   1.558  15.814 -0.0689  0.1407 -0.1692
28921W        W71912  33.046  16.203   0.889  0.3081  0.0487 -0.3323
28922W        W71913   1.106  33.879  26.276 -0.0206 -0.2902 -0.0380
28923W        W71914  26.636   6.122  28.084 -0.0056 -0.0871 -0.2681
28924W        W71915  23.932  20.062   1.299 -0.1855  0.0474  0.1828
28925W        W71916  30.542  32.517  21.182 -0.0124 -0.1610 -0.1980
28926W        W71917  28.560   7.333  20.411 -0.0175 -0.3027  0.2133
28927W        W71918  30.596   6.185  19.816 -0.0573  0.0363  0.1563
28928W        W71919   7.402   3.742   5.444 -0.1787  0.1848 -0.2659
28929W        W71920   7.719  24.521  16.473 -0.0597  0.0108  0.1910
28930W        W71921  12.547   3.640   7.243  0.2921  0.2767 -0.1497
28931W        W71922   1.866  30.399  16.585 -0.0296  0.1815 -0.1015
28932W        W71923  14.468  27.282  15.581 -0.2357 -0.0252 -0.0257
28933W        W71924   0.950  17.483  22.149  0.0690  0.1810 -0.1572
28934W        W71925   0.372  18.246  16.054  0.0120  0.2650 -0.1395
28935W        W71926  14.065  20.741   9.386  0.1905 -0.0872  0.1519
28936W        W71927   4.598   6.344   9.657 -0.0981 -0.1065 -0.1121
28937W        W71928   8.807  24.006   4.320 -0.1802  0.2589 -0.0366
28938W        W71929  10.404  27.920   4.597  0.1632  0.0490 -0.2092
28939W        W71930  12.980  16.009  26.474 -0.0158 -0.5483  0.0153
28940W        W71931   7.059  19.554  19.778  0.0090 -0.2370 -0.2465
28941W        W71932   9.485  18.846   2.273 -0.0300 -0.2760  0.0284
28942W        W71933  10.778  22.611  20.460 -0.2552 -0.0197 -0.0922
28943W        W71934  29.780  17.039   0.923 -0.0274 -0.2338  0.0591
28944W        W71935   2.871  20.767  18.477  0.1519 -0.0100 -0.0008
28945W        W71936   5.221  10.618  18.662  0.0096 -0.0576 -0.0118
28946W        W71937  24.972  29.915  18.262 -0.0347  0.1159  0.1808
28947W        W71938   6.889  26.672  16.535  0.0984 -0.0168  0.1042
28948W        W71939  26.722  29.341  26.017  0.1514 -0.1465 -0.1538
28949W        W71940  34.303  29.815  15.280  0.2366  0.2250  0.2855
28950W        W71941  32.806  33.387   1.533 -0.2084  0.2594  0.1241
28951W        W71942   1.886  25.364  27.177 -0.2365 -0.0600 -0.0660
28952W        W71943  28.506   9.828  23.851 -0.2667  0.1854  0.1368
28953W        W71944   9.157  27.924   4.681 -0.1407  0.2973  0.1557
28954W        W71945  10.996  17.088   2.680  0.0541  0.2307 -0.0324
28955W        W71946  11.009  29.970  21.027 -0.1549 -0.0966  0.3945
28956W        W71947   3.982  24.046  24.169  0.0722 -0.4355  0.3183
28957W        W71948   9.216  20.309  19.921 -0.0533 -0.0993  0.3228
28958W        W71949  24.133   2.635  22.472 -0.0792 -0.3033 -0.1193
28959W        W71950  26.491  30.391  22.709 -0.0097  0.1300 -0.0695
28960W        W71951   8.831   6.938  24.962  0.1091  0.1683  0.3042
28961W        W71952  23.356   8.351   0.046 -0.1743 -0.0034  0.1618
28962W        W71953  26.768  17.233   7.366  0.0091  0.0219  0.2359
28963W        W71954   6.584  30.903   3.515  0.0758 -0.0089  0.5301
28964W        W71955   0.715  30.639  23.875 -0.2192  0.1775 -0.1544
28965W        W71956   9.790  12.430   3.570 -0.1983 -0.0425 -0.0001
28966W        W71957  10.504  10.066  10.740 -0.0825  0.3075  0.2181
28967W        W71958  12.427  33.798   7.098 -0.0948 -0.0897 -0.0583
28968W        W71959  18.446  15.976  22.663 -0.1689  0.2081 -0.2276
28969W        W71960  14.534  14.572  20.877 -0.1850 -0.1647 -0.0740
28970W        W71961   6.222  21.310  22.202 -0.2596 -0.1092  0.2108
28971W        W71962   4.876  30.669  21.437 -0.2578  0.0112 -0.0984
28972W        W71963  28.314  28.668  25.633 -0.4521 -0.0506 -0.1022
28973W        W71964  10.901  11.921  28.796 -0.1414  0.2011 -0.0575
28974W        W71965  14.891  21.057  25.748  0.3521  0.2855  0.2025
28975W        W71966  15.578  13.165   1.802 -0.1118  0.0472 -0.2397
28976W        W71967  17.625  24.398  28.160 -0.1869 -0.0069 -0.0073
28977W        W71968  21.065  30.153  26.744  0.0490 -0.0959 -0.0544
28978W        W71969  16.207  11.196  16.005  0.2540  0.3011  0.1037
28979W        W71970  34.224  20.020  19.137 -0.1310 -0.2143  0.0933
28980W        W71971   8.435  27.931   3.715  0.0623  0.1099  0.0095
28981W        W71972  30.808   8.986  22.339 -0.0956 -0.1296 -0.0729
28982W        W71973  33.096   6.729  23.396 -0.0949 -0.2785  0.3331
28983W        W71974   7.530  14.141  15.236  0.1257  0.0984 -0.0694
28984W        W71975  33.759  10.778   3.851  0.2518  0.1781  0.0487
28985W        W71976  34.301  20.245  20.964  0.2121  0.0513  0.3515
28986W        W71977   0.524   4.651  18.153  0.0333 -0.2898  0.1067
28987W        W71978   9.920   7.451  26.686  0.1331 -0.2103  0.2859
28988W        W71979  11.927   1.653   7.898  0.0504  0.0467  0.0565
28989W        W71980  33.958   8.847  19.600  0.0840  0.0557  0.2070
28990W        W71981   9.263  20.659  23.842 -0.0537 -0.1930 -0.0007
28991W        W71982  22.066  10.275  21.346  0.2398  0.0628 -0.0172
28992W        W71983  31.546  20.369  28.735  0.0192 -0.2475  0.0453
28993W        W71984  32.038  27.984  13.975 -0.2780  0.1229  0.0163
28994W        W71985   5.970   3.047   3.581 -0.1718  0.0515 -0.3300
28995W        W71986  15.028   2.003  23.032  0.3156  0.1901  0.2645
28996W        W71987   0.763  34.111  25.221 -0.3399  0.1550 -0.0034
28997W        W71988  33.943  19.469  25.454 -0.0752 -0.2636 -0.0631
28998W        W71989  20.088  10.696   5.332  0.0859 -0.1682 -0.0747
28999W        W71990  10.234  27.650   8.988  0.2647  0.1136  0.1740
29000W        W71991   8.187  19.853  25.134 -0.2897  0.0839 -0.0529
29001W        W71992   2.095  22.466  23.390 -0.3855  0.0996  0.2847
29002W        W71993   4.517   6.843  25.166 -0.0522 -0.2046  0.1941
29003W        W71994  23.487  16.165  19.919 -0.1261 -0.0610 -0.0606
29004W        W71995  10.521  21.094  21.744  0.2279  0.0457 -0.2162
29005W        W71996   9.460  15.982   7.243 -0.1677  0.2792  0.1573
29006W        W71997  15.629  27.425  14.844  0.0743  0.0240  0.0826
29007W        W71998  34.796  26.924   2.272 -0.0659  0.0884  0.2543
29008W        W71999   4.287  33.184  23.028  0.0724 -0.0397  0.2971
29009W        W72000  15.602  21.300  22.931  0.0160 -0.0425  0.1935
29010W        W72001  28.654  27.280  13.112 -0.1666 -0.1200  0.0291
29011W        W72002   3.658  12.310  10.755 -0.2719  0.0189  0.0049
29012W        W72003  16.871  22.403  14.994  0.0215  0.0462  0.0290
29013W        W72004  10.028  25.613   1.109  0.0941 -0.3818 -0.0330
29014W        W72005   3.288   2.494  23.220 -0.0978 -0.1710 -0.0210
29015W        W72006   4.899  20.338   4.992 -0.0631  0.1836  0.0605
29016W        W72007  23.005  17.533  24.847  0.1297 -0.0513  0.0758
29017W        W72008   0.250  21.778  17.224  0.4812 -0.2354 -0.0056
29018W        W72009   3.423  17.797  15.752 -0.0341 -0.0444  0.1300
29019W        W72010  10.866  19.607  24.449 -0.1108 -0.0807 -0.0236
29020W        W72011  17.729  32.291  22.312 -0.2796  0.1067  0.3355
29021W        W72012  25.571  25.560  13.681 -0.1241  0.0725 -0.2070
29022W        W72013  10.197  25.269  27.456  0.0415 -0.0806 -0.1933
29023W        W72014  11.096   9.313   0.926  0.1064 -0.3564  0.0459
29024W        W72015   0.254  19.076  17.059  0.0016 -0.4053  0.3505
29025W        W72016   7.134  14.166  22.951  0.1124  0.0642 -0.2146
29026W        W72017   2.597   7.430  28.886 -0.2491 -0.2558  0.3993
29027W        W72018  11.219   5.710  19.145 -0.1758 -0.1382 -0.0906
29028W        W72019   5.637  31.716   4.021  0.2292 -0.0921 -0.1012
29029W        W72020  23.496  18.308   8.093 -0.3277  0.1133  0.2361
29030W        W72021  23.688  21.384  25.787 -0.1211  0.1651 -0.2735
29031W        W72022  12.583  30.585  14.523  0.0579  0.2448  0.4446
29032W        W72023  18.892  13.410  22.408  0.2228 -0.0626  0.1103
29033W        W72024  15.706  27.756  17.566 -0.0380  0.1338 -0.1084
29034W        W72025  10.930  13.574  15.955 -0.0026  0.1203  0.0038
29035W        W72026  32.741   2.904  23.848 -0.2678  0.1372 -0.1273
29036W        W72027  14.838  34.657   3.485  0.0596  0.2516 -0.2748
29037W        W72028  29.740  16.283  25.534 -0.1191  0.0901  0.2702
29038W        W72029  32.276  31.816  13.863 -0.0144 -0.1929  0.0244
29039W        W72030  10.740  25.418  17.942 -0.2395  0.2163  0.0716
29040W        W72031  10.486  25.709   0.426 -0.1015  0.1025 -0.0396
29041W        W72032  32.910  17.363  19.259 -0.3030 -0.0001 -0.0361
29042W        W72033   0.012  10.145  18.800  0.0004  0.2370 -0.0821
29043W        W72034   0.602  28.943   5.241 -0.2151  0.1058 -0.1163
29044W        W72035  34.788  27.308   0.092 -0.3525 -0.2664 -0.2884
29045W        W72036  34.126  22.616  16.427  0.1679  0.2889  0.1108
29046W        W72037  24.778   9.758  23.630  0.1213  0.0210 -0.0246
29047W        W72038  32.880   7.281  24.383  0.2470 -0.4057  0.2348
29048W        W72039  22.769  17.154  16.167 -0.2956 -0.4339 -0.3819
29049W        W72040  14.618  11.769  23.684  0.1545  0.0021 -0.1025
29050W        W72041  13.164  25.724  25.595  0.2283 -0.2021 -0.1322
29051W        W72042  21.422  30.572  19.808  0.1231  0.1429  0.2716
29052W        W72043   6.329  12.204  23.777  0.1444  0.1764 -0.1292
29053W        W72044  30.853  27.812  20.769  0.1566 -0.1336  0.0127
29054W        W72045   1.879   0.457  19.274  0.0994  0.5171  0.1762
29055W        W72046   9.179  11.229  24.196  0.1776 -0.1383  0.0748
29056W        W72047  11.556  13.721  18.414  0.1183 -0.0979 -0.1816
29057W        W72048  26.658  23.782   9.346 -0.0224  0.1603 -0.1688
29058W        W72049  33.145  17.649   5.917 -0.0160  0.0891  0.2995
29059W        W72050  24.152  13.002   4.945 -0.0067 -0.2356  0.3782
29060W        W72051   0.252  19.360  21.397 -0.4127 -0.1110 -0.2473
29061W        W72052   8.331  26.290   6.299 -0.3855  0.3302  0.1017
29062W        W72053   5.073  16.847  26.540 -0.3175  0.0672  0.0078
29063W        W72054  30.828   8.470  27.550 -0.0378 -0.1314 -0.2789
29064W        W72055  30.822  25.351   5.484  0.1753  0.3105 -0.0897
29065W        W72056  13.247   1.329   2.901 -0.1794  0.1350 -0.0573
29066W        W72057   9.994   4.338  20.744 -0.0503  0.0106 -0.0104
29067W        W72058  30.014   4.415  19.229  0.2194  0.4813  0.0713
29068W        W72059   2.364  18.922  24.808  0.1462  0.1067  0.4925
29069W        W72060   3.896  23.607  25.146 -0.1463 -0.1741 -0.2363
29070W        W72061  32.432  14.481   0.769 -0.3390 -0.0859 -0.1154
29071W        W72062  18.658  24.994  27.377 -0.0780 -0.1908 -0.1218
29072W        W72063   3.061   7.347  24.197 -0.3394 -0.0332  0.1331
29073W        W72064  33.084  22.048  18.605  0.1636  0.1879  0.0048
29074W        W72065  13.515  21.330  14.039  0.0304  0.1512 -0.2025
29075W        W72066  13.048  25.767  23.439 -0.1600 -0.1546 -0.1451
29076W        W72067   6.500  33.720  17.276 -0.3298 -0.0883 -0.1229
29077W        W72068  10.036  32.915  14.790  0.5874 -0.1250  0.3975
29078W        W72069  29.519  13.543  20.713  0.0781 -0.2303  0.1448
29079W        W72070  12.071  10.656  21.402  0.0327 -0.1609  0.0318
29080W        W72071  19.594  24.968  16.754 -0.0664 -0.0592 -0.4949
29081W        W72072  19.705  24.558  28.788  0.2694 -0.1253  0.0830
29082W        W72073   2.461  31.413   5.963  0.1847  0.2356  0.4423
29083W        W72074   1.974  18.834  22.985  0.1919  0.0069  0.0462
29084W        W72075   1.890  28.957  28.145  0.0918 -0.0314 -0.1399
29085W        W72076  11.795  33.116  23.043  0.2504 -0.0897 -0.1445
29086W        W72077  10.489  25.462  19.107 -0.0069 -0.0948  0.1185
29087W        W72078  29.795  22.481   3.398 -0.0242 -0.0795  0.2238
29088W        W72079  16.377  25.600  26.763  0.0856 -0.2307  0.0013
29089W        W72080   4.190   8.111  21.113 -0.0176  0.0578  0.1880
29090W        W72081  31.406  27.015  26.339  0.3156 -0.0780 -0.1040
29091W        W72082  12.393  19.363  17.877  0.1744  0.2497 -0.1308
29092W        W72083   6.948  10.762  22.727 -0.1353 -0.0936  0.0397
29093W        W72084  23.042   7.049   1.167  0.2287 -0.0520  0.1318
29094W        W72085  14.706  31.606  17.152  0.0813 -0.2156  0.1450
29095W        W72086  32.491  18.350  27.429 -0.2629  0.0068 -0.0831
29096W        W72087  33.711   3.296  19.299 -0.1052  0.3443 -0.1772
29097W        W72088   3.344   2.365   2.312  0.3961  0.0240  0.0395
29098W        W72089  10.954  10.398   7.092  0.0421 -0.1542 -0.0383
29099W        W72090  13.450  19.681  18.992 -0.1380 -0.0584  0.3960
29100W        W72091  26.389   4.111  20.521  0.1392 -0.0044 -0.0203
29101W        W72092   5.235  27.419  15.103 -0.1629 -0.0867  0.4842
29102W        W72093  27.071  30.545  28.498 -0.2446 -0.1293 -0.3346
29103W        W72094  27.817  21.728  13.978  0.3194 -0.2490 -0.1554
29104W        W72095   0.191  20.867  22.501 -0.0901  0.1495 -0.0971
29105W        W72096  33.919   1.116   8.157 -0.0731  0.0041 -0.1625
29106W        W72097  26.367  27.035   7.906 -0.2025 -0.1445 -0.1938
29107W        W72098   4.622  17.541  10.658  0.2544 -0.1797 -0.1046
29108W        W72099  22.997  25.910   9.677 -0.0073 -0.1209  0.0475
29109W        W72100  28.583  23.878  22.531 -0.3094 -0.0371 -0.3704
29110W        W72101   3.310  27.117  20.382  0.2817  0.1005 -0.0368
29111W        W72102  11.115  11.238  26.956 -0.1753  0.0930 -0.3530
29112W        W72103  27.910  27.870  20.340  0.0542  0.3797 -0.1354
29113W        W72104  28.274  24.175  22.969  0.0549  0.1121  0.2893
29114W        W72105  32.978   8.925  20.464  0.2061  0.1892  0.1153
29115W        W72106   4.362  18.593  27.263  0.0490  0.0746 -0.3243
29116W        W72107   2.627  15.063  26.409  0.2616  0.3339 -0.1518
29117W        W72108  29.367  12.116  22.571 -0.0710  0.0063 -0.0851
29118W        W72109   8.762  34.214  15.185  0.2305  0.1376 -0.1662
29119W        W72110   7.877  31.126  21.890  0.0731  0.0653 -0.2741
29120W        W72111  10.720   6.941  25.190  0.2664 -0.3075  0.1497
29121W        W72112  14.636  18.640  14.198 -0.0893  0.1465 -0.1487
29122W        W72113  14.699  34.257  22.702 -0.0726  0.1629  0.0539
29123W        W72114  34.440  33.015  23.378 -0.1766  0.4344 -0.0854
29124W        W72115  33.002   5.240   1.951  0.2489  0.1961  0.3081
29125W        W72116  34.449  30.658   4.159 -0.0164  0.2078  0.1317
29126W        W72117  15.155  23.919  28.044 -0.1662 -0.1200  0.3645
29127W        W72118   6.516  22.196   0.894  0.0276 -0.1280  0.1257
29128W        W72119   3.098  19.938  23.976 -0.4264 -0.1800  0.1187
29129W        W72120   2.471  14.794  27.582  0.1326 -0.0871 -0.0919
29130W        W72121   9.765  18.769  20.799  0.1337  0.0733  0.1821
29131W        W72122   0.170  27.776   8.923 -0.2885  0.0936  0.1761
29132W        W72123   3.672  21.778  14.208 -0.0382 -0.1724 -0.0207
29133W        W72124  30.791  30.549  19.567  0.1015  0.0991  0.2434
29134W        W72125   2.379  29.968  18.584  0.1570  0.1372  0.3750
29135W        W72126  16.172  29.074  22.554 -0.1536  0.2576 -0.1729
29136W        W72127  33.742  25.767  27.337  0.0051  0.4861 -0.1620
29137W        W72128  20.151  30.870  24.333  0.0264 -0.1548 -0.1688
29138W        W72129   8.262  34.193   0.095  0.1452  0.2153  0.0325
29139W        W72130  17.655  23.952  18.539  0.1897 -0.0419 -0.1036
29140W        W72131  10.497  26.506   2.853 -0.2505  0.2765 -0.2504
29141W        W72132  32.702   6.584  18.020 -0.0552  0.2035  0.2021
29142W        W72133  22.964   1.277  16.904 -0.2639  0.0291  0.0446
29143W        W72134  10.876  23.953  16.367  0.3070  0.0386  0.0738
29144W        W72135   4.716  15.241  28.339 -0.2131 -0.1687  0.0958
29145W        W72136   0.147  31.535  23.886  0.2523  0.0282 -0.3706
29146W        W72137   3.916  19.439  15.425 -0.5331 -0.0187 -0.0299
29147W        W72138  24.414  23.342  21.342 -0.1021 -0.1094  0.2730
29148W        W72139  32.217  22.765  21.725 -0.1467  0.3756 -0.1478
29149W        W72140   9.500  20.265   8.213 -0.1112 -0.1692 -0.2206
29150W        W72141  32.665  14.034   2.026  0.0684  0.1651  0.0261
29151W        W72142   2.725  15.725  15.781 -0.0107  0.0990 -0.0818
29152W        W72143  15.872  32.991  26.840  0.1444  0.4470  0.1384
29153W        W72144  13.175  18.543   5.673 -0.2643 -0.1616  0.2705
29154W        W72145  31.918   9.288  21.331  0.1211 -0.2236 -0.0443
29155W        W72146  27.222  24.370   3.134  0.0185 -0.3353  0.0029
29156W        W72147   1.823  32.230  19.462 -0.2592  0.0200  0.0083
29157W        W72148  24.185   5.454  13.512  0.1843  0.2548  0.4425
29158W        W72149  28.972  17.063  26.166  0.4052 -0.2181 -0.1519
29159W        W72150   9.723  16.039  21.477 -0.1499 -0.1238 -0.0123
29160W        W72151  14.824  12.074  27.998 -0.0015  0.0132  0.1277
29161W        W72152   4.467  15.141  19.427  0.1486 -0.1917  0.1424
29162W        W72153  11.778  22.983  26.790  0.1540  0.5101  0.4322
29163W        W72154  12.519  19.608  18.757  0.0499  0.2070 -0.1724
29164W        W72155  13.864  12.946  27.712  0.1587 -0.3076 -0.1168
29165W        W72156   7.405  11.707  23.015  0.0151  0.0181 -0.1822
29166W        W72157  23.570  13.086  16.885  0.1515  0.0356  0.0370
29167W        W72158   7.582   4.884  16.505 -0.2149  0.2138  0.0219
29168W        W72159  16.655  12.977  18.273 -0.0035 -0.0555 -0.3173
29169W        W72160  12.413  22.710  28.961 -0.1604  0.1766 -0.1097
29170W        W72161  12.734   2.975  20.573  0.0768  0.3233  0.2178
29171W        W72162  12.268  23.395  19.864  0.2962 -0.0077  0.3007
29172W        W72163   0.469   1.642  10.174 -0.1436  0.0403  0.0342
29173W        W72164  27.857  22.095  26.302 -0.1372  0.1701  0.0506
29174W        W72165  34.053  23.773  25.139 -0.0670 -0.3784  0.0686
29175W        W72166   5.614  22.942  24.856  0.1760  0.0368 -0.0661
29176W        W72167   3.077  17.872   6.250  0.0809 -0.0888  0.1813
29177W        W72168  15.757   6.603   0.055  0.0912 -0.1163  0.0136
29178W        W72169  29.629   2.048  16.280  0.1339  0.3617 -0.0322
29179W        W72170   2.439  33.598  15.863  0.2627 -0.3219 -0.0850
29180W        W72171   6.180  22.484   1.090  0.1095  0.1440  0.1080
29181W        W72172  11.054  18.700   8.624 -0.1560 -0.0872  0.4766
29182W        W72173   3.879   6.737   6.858  0.0814 -0.3215  0.0183
29183W        W72174  34.523  19.084  19.128  0.3980 -0.1266  0.1122
29184W        W72175   4.386  14.844  18.482 -0.1881 -0.1275  0.1962
29185W        W72176  30.560  32.914   2.502 -0.3034 -0.0442 -0.1192
29186W        W72177   7.414   8.526   6.635 -0.1546 -0.0790  0.1369
29187W        W72178   9.039  24.312   0.616  0.5002  0.1378 -0.0199
29188W        W72179   8.491  10.250  20.684  0.0399 -0.2844 -0.1317
29189W        W72180   8.169  25.020   0.885 -0.0723  0.3433 -0.1642
29190W        W72181   6.960  23.328  23.866 -0.1690 -0.0988  0.0315
29191W        W72182   1.195  18.606  25.898 -0.0254  0.0158  0.0308
29192W        W72183  29.213  25.959   2.190  0.1784  0.1648  0.0912
29193W        W72184   7.572  33.038   6.608 -0.2400 -0.0248  0.2943
29194W        W72185  10.651  33.341   1.734 -0.1122  0.3518 -0.2630
29195W        W72186  32.827  16.748   4.518 -0.0698 -0.0719  0.3639
29196W        W72187  13.417  23.215  15.158  0.4069  0.1361 -0.1332
29197W        W72188   5.496  22.712  21.776  0.1550  0.1731 -0.0227
29198W        W72189  17.436  17.983  13.043 -0.1111  0.0813  0.1363
29199W        W72190  28.721  22.969  21.276  0.2232  0.1055 -0.0125
29200W        W72191  17.705   0.530  16.484  0.1669 -0.1934  0.0044
29201W        W72192  12.329  18.744  14.187 -0.0207 -0.0502 -0.1317
29202W        W72193  10.920  13.700  23.799 -0.0891  0.0786  0.2156
29203W        W72194  16.361  15.222  12.990 -0.1713  0.0021 -0.2689
29204W        W72195  31.753  20.189  25.040 -0.0931 -0.2677  0.2942
29205W        W72196   8.959   8.314  18.192 -0.2035 -0.1088  0.0866
29206W        W72197   8.209  32.171  28.165  0.4697  0.1657 -0.0037
29207W        W72198  16.436  23.810   6.115  0.2847 -0.0498  0.2075
29208W        W72199   2.659  15.504   5.076  0.0877 -0.2248 -0.1436
29209W        W72200  13.729  21.916  18.856  0.3555  0.0494 -0.0951
29210W        W72201   7.806  11.291   7.556  0.1965 -0.2393  0.1222
29211W        W72202   7.194   9.322   9.508 -0.1237 -0.0106 -0.0404
29212W        W72203  17.412   8.007  24.229  0.3182 -0.1695  0.0149
29213W        W72204   8.152  11.095  22.028 -0.0533  0.1749 -0.2203
29214W        W72205  22.530   1.521  19.219  0.0090 -0.2417  0.2670
29215W        W72206  33.911  22.000   1.936  0.0254  0.0048 -0.0018
29216W        W72207  30.025  21.859  24.037 -0.0119 -0.2017  0.1531
29217W        W72208   8.900  15.209  24.332 -0.1031  0.3196  0.3864
29218W        W72209  22.228  28.400   6.978 -0.0316 -0.0711 -0.1689
29219W        W72210  14.397  34.486   4.324 -0.4405 -0.2126  0.0066
29220W        W72211  30.083  18.778  18.173 -0.1121 -0.1060  0.0623
29221W        W72212  15.784  19.971   4.288 -0.2442 -0.0015  0.2016
29222W        W72213   0.758  25.652  26.578  0.2301  0.0180 -0.0461
29223W        W72214  23.482  24.406   9.127  0.2734 -0.2347 -0.3486
29224W        W72215  31.181  15.629  28.413  0.0027 -0.2286 -0.1763
29225W        W72216  26.683   7.398  20.246 -0.2779  0.2137  0.2024
29226W        W72217   5.480   4.422  22.201 -0.2637 -0.1278  0.1492
29227W        W72218  29.427   1.663   3.425 -0.0838 -0.0718 -0.0576
29228W        W72219  19.184  28.257  23.622  0.0361 -0.2257  0.1621
29229W        W72220  33.411  12.997   4.829 -0.0152  0.3684  0.3775
29230W        W72221  27.051  23.862  28.121  0.0929 -0.0426  0.2495
29231W        W72222   9.226  12.869   7.272 -0.4495 -0.1306  0.1076
29232W        W72223   3.884  13.743  27.630  0.0703  0.3176 -0.1090
29233W        W72224   4.618  13.884   8.441 -0.0351 -0.0218  0.0926
29234W        W72225   7.524  20.087  19.618  0.1226  0.1830 -0.1093
29235W        W72226   4.238  22.327  26.991  0.0988 -0.2057  0.1041
29236W        W72227   2.015   7.776   1.504 -0.0326  0.4359  0.3590
29237W        W72228  21.127   5.969   1.169  0.0781 -0.1717  0.0150
29238W        W72229  34.286  25.314  23.761 -0.0918  0.0370 -0.0298
29239W        W72230  15.357   3.698  25.862  0.0051  0.3385 -0.0872
29240W        W72231  30.200  31.642  19.748 -0.0054  0.0237  0.1488
29241W        W72232  34.596  22.241  22.292 -0.0997  0.1578  0.0513
29242W        W72233  34.734   0.093   3.049 -0.2172  0.0249 -0.2165
29243W        W72234  17.175  21.656  19.134 -0.3624 -0.1288  0.0059
29244W        W72235  26.359  10.526  28.083 -0.1988 -0.3293 -0.1372
29245W        W72236   5.922  19.642  22.442  0.0269 -0.1833  0.1705
29246W        W72237  18.757  21.593  18.687 -0.1067 -0.1177  0.2066
29247W        W72238   2.996   0.819   4.794 -0.2485  0.0855  0.0736
29248W        W72239  13.630  22.283  28.809 -0.0774  0.2019 -0.0905
29249W        W72240  13.611  28.248  28.522  0.0944  0.0267  0.0480
29250W        W72241   5.733  11.677  17.756 -0.1391 -0.0571  0.1246
29251W        W72242  15.185  32.072  19.433  0.1545  0.3875 -0.0511
29252W        W72243   7.436  22.182   1.971 -0.0382  0.0223 -0.0333
29253W        W72244  15.141  18.258  27.999 -0.1407  0.0807  0.2174
29254W        W72245  16.280  28.249  18.944 -0.0557  0.1112 -0.3559
29255W        W72246   1.694  32.125  29.061  0.2078 -0.2183  0.1989
29256W        W72247  12.605  25.262  18.013  0.1553 -0.0724 -0.0872
29257W        W72248   7.663  16.149  15.178  0.0503  0.2352  0.2417
29258W        W72249  28.267   5.348  13.527  0.3426  0.2165  0.0163
29259W        W72250  31.508  20.941  24.068  0.2949  0.1594  0.0178
29260W        W72251  22.243  28.087  18.694 -0.0730  0.1537 -0.0687
29261W        W72252  16.034  11.021  27.137  0.0980 -0.1348  0.0199
29262W        W72253  34.401   1.242  23.412 -0.1847  0.0304  0.1712
29263W        W72254   7.551  25.085  23.058  0.1111  0.1492 -0.0888
29264W        W72255   0.601   5.829  18.738  0.1030 -0.1672  0.1461
29265W        W72256  15.050  26.172  18.190  0.2404  0.1329  0.4279
29266W        W72257  13.006  17.407   5.209  0.1194 -0.0098  0.0474
29267W        W72258   9.526  28.316  17.417 -0.0285 -0.0403 -0.0012
29268W        W72259   0.910  27.034   5.565  0.3077 -0.1028  0.0183
29269W        W72260   6.972  34.368   8.899 -0.1086  0.0088  0.4315
29270W        W72261   3.825  34.188  22.191 -0.0995 -0.1333  0.2980
29271W        W72262  29.722   8.531  24.687 -0.1075  0.2373  0.0186
29272W        W72263  30.992  29.672  22.798 -0.0018  0.2069  0.1894
29273W        W72264  15.718   1.636  24.503 -0.1363  0.2036 -0.0524
29274W        W72265  24.832  15.612  16.806 -0.0338  0.0158  0.0085
29275W        W72266  32.998  12.886  10.829 -0.0391  0.1495 -0.2581
29276W        W72267   9.364  29.828  17.561 -0.0954  0.2383 -0.1496
29277W        W72268  13.510   3.039  17.943  0.4733  0.1958  0.4621
29278W        W72269  17.409  26.681  20.121 -0.0401 -0.1958  0.3621
29279W        W72270   0.191  14.441  26.204 -0.0621  0.1170 -0.0589
29280W        W72271  30.942  20.560  16.332 -0.1539 -0.1107 -0.0922
29281W        W72272  27.542  12.234   5.081 -0.0260 -0.1096  0.0322
29282W        W72273   4.510  10.893  17.587 -0.1488 -0.0970 -0.0390
29283W        W72274   7.599  11.974  23.615 -0.1599  0.0945 -0.1952
29284W        W72275  33.833  24.005  24.362  0.0716 -0.1965  0.0412
29285W        W72276  30.258  18.288   7.210 -0.3287 -0.4235  0.1029
29286W        W72277   9.805  28.484  25.799 -0.0630 -0.0788  0.1434
29287W        W72278  30.264  26.370  13.747 -0.1014  0.0665 -0.2619
29288W        W72279  34.661  26.212  21.900 -0.0156 -0.2049  0.1905
29289W        W72280  20.221  28.515  23.298 -0.1905 -0.1626 -0.0323
29290W        W72281  15.654  26.637   8.550 -0.1795  0.2172  0.0423
29291W        W72282  15.119  33.685  26.874 -0.2350 -0.0429 -0.0927
29292W        W72283   6.295  23.552   9.562 -0.1198  0.2366  0.0893
29293W        W72284   6.774  28.807  27.076 -0.0054 -0.0890 -0.1399
29294W        W72285  10.604  12.069  19.781 -0.1364 -0.1091 -0.3009
29295W        W72286   1.142  17.656  16.322 -0.0252  0.0061  0.1360
29296W        W72287  29.425  12.853  18.015 -0.0123 -0.0549  0.0775
29297W        W72288   0.069  22.806  20.987  0.2049  0.1127  0.4808
29298W        W72289   6.471   6.161  19.486 -0.0924 -0.3308 -0.0240
29299W        W72290  32.212  11.851  27.956  0.0454  0.0322  0.0103
29300W        W72291   0.294  21.132  20.637 -0.0425  0.1453 -0.0696
29301W        W72292   2.284  20.656  16.988 -0.1588 -0.1782  0.0238
29302W        W72293  18.968  25.510  16.849 -0.0971  0.0634 -0.2117
29303W        W72294  31.659  20.136   4.191  0.0798 -0.0185 -0.2630
29304W        W72295   0.224  25.846   9.466  0.2692  0.1661 -0.1465
29305W        W72296  15.250   0.896  23.739  0.2711  0.0459 -0.0538
29306W        W72297   1.497  28.014  23.114  0.1171  0.0532 -0.2035
29307W        W72298   1.556  14.036  16.158  0.0504 -0.1633  0.0517
29308W        W72299   9.655  33.071  22.069  0.0290  0.0153  0.1358
29309W        W72300   6.525   2.502  27.386 -0.1858 -0.0439  0.0562
29310W        W72301  20.026   0.403   8.356 -0.1047  0.1815  0.1348
29311W        W72302   9.821  32.492  25.263 -0.0726  0.0774  0.1404
29312W        W72303  33.995  26.417   3.288 -0.0586 -0.0212 -0.1822
29313W        W72304  30.320   3.121   0.278  0.1295 -0.0147  0.0540
29314W        W72305   5.355  20.044  18.764 -0.3647  0.1316 -0.1355
29315W        W72306  27.040  28.775  19.516  0.0412  0.0378 -0.3795
29316W        W72307  31.939   8.960   1.952  0.0438  0.1290 -0.0963
29317W        W72308  11.952   4.336  18.605 -0.2238 -0.0122  0.3647
29318W        W72309   6.938   9.444   1.254  0.0894  0.2384 -0.0593
29319W        W72310   7.118   1.526  29.181 -0.1029 -0.1200 -0.1674
29320W        W72311   3.836  10.690  23.710 -0.1315 -0.2573 -0.0068
29321W        W72312  16.530  17.806  26.224  0.2244  0.0341  0.1440
29322W        W72313  15.647   1.210  23.809  0.2698  0.1685 -0.1572
29323W        W72314  27.055  18.635   4.933  0.0087  0.2443 -0.2767
29324W        W72315   7.449  18.395  24.287 -0.0979  0.0849 -0.1962
29325W        W72316  19.563   4.494  18.626 -0.0988 -0.0191 -0.0476
29326W        W72317  31.303  16.241  28.234 -0.0584  0.1644 -0.3376
29327W        W72318  22.806  25.185  26.497 -0.1052 -0.0628  0.2102
29328W        W72319   2.538  34.041   6.187  0.0900 -0.0356  0.0615
29329W        W72320  31.700  22.554  24.401 -0.0902 -0.0501  0.1606
29330W        W72321   8.370  19.087   3.879 -0.1041 -0.2480 -0.0616
29331W        W72322   9.376  28.472  25.543 -0.1535  0.0704 -0.0585
29332W        W72323   2.263  26.091  19.864  0.0317 -0.5145  0.0648
29333W        W72324  30.958  19.612  15.796  0.1432 -0.0023 -0.4460
29334W        W72325   8.540  11.549   8.120 -0.0730  0.0110 -0.4621
29335W        W72326   0.276  28.601  29.213 -0.2011  0.2545  0.4822
29336W        W72327   9.520  13.295  18.695 -0.2845  0.0481 -0.0573
29337W        W72328   2.081  21.059   2.077 -0.1602 -0.4193  0.1923
29338W        W72329  10.926  10.928   3.648  0.0045 -0.2588 -0.3541
29339W        W72330  30.068  27.556  28.963 -0.1278 -0.2005  0.1364
29340W        W72331  33.567  26.863   0.896  0.2178  0.0642  0.0090
29341W        W72332   4.192  28.290   4.714  0.0484 -0.2793 -0.2726
29342W        W72333   2.663  18.378  16.224  0.0992 -0.0340  0.0162
29343W        W72334  16.810  25.664   4.802  0.0311 -0.0729 -0.0134
29344W        W72335   6.612  22.810  26.037  0.3646  0.5965 -0.0810
29345W        W72336  27.731  14.013   1.329 -0.5088  0.0333  0.0206
29346W        W72337  20.609  22.237  15.055  0.1383 -0.3454  0.0657
29347W        W72338  33.954  23.184  25.475  0.3077  0.1717  0.1185
29348W        W72339  31.630  30.530  24.889  0.0039 -0.0935  0.0332
29349W        W72340  21.639  29.293  21.292  0.2529  0.0695  0.1242
29350W        W72341  15.865  15.695  25.274  0.1101 -0.1480  0.2566
29351W        W72342   7.604   0.232  18.359  0.0822  0.0251 -0.0315
29352W        W72343   1.120   7.651   3.369  0.3068  0.2729  0.1515
29353W        W72344   8.605  13.365   1.662  0.0422 -0.0471 -0.1724
29354W        W72345  29.791  26.126  24.311  0.1740 -0.0941 -0.1175
29355W        W72346  32.279  32.969   0.193  0.0208 -0.0395 -0.2294
29356W        W72347   8.470  24.422  16.945 -0.1826 -0.0356  0.1870
29357W        W72348  26.851  15.752  29.026 -0.0934 -0.0782  0.0616
29358W        W72349  31.649  30.962   5.760  0.2915  0.0191 -0.0342
29359W        W72350  10.479  28.464  26.638 -0.0963 -0.0773  0.1913
29360W        W72351  34.479  26.877  20.574  0.0949  0.3503 -0.3988
29361W        W72352  10.636   8.953  27.020  0.5663  0.0046  0.1573
29362W        W72353   0.258  23.311  14.549 -0.4505 -0.1018  0.0774
29363W        W72354  17.713  15.638  26.989 -0.0499  0.1595  0.2067
29364W        W72355   6.266  27.100  27.544 -0.0866 -0.0561 -0.1599
29365W        W72356  13.289  14.401  21.976 -0.0988 -0.1026  0.1641
29366W        W72357   5.650   1.661  25.845  0.3604  0.0737 -0.0174
29367W        W72358  28.670  25.611  25.889 -0.3812 -0.0363  0.0331
29368W        W72359  34.506  11.331   4.651 -0.2872 -0.0416  0.0556
29369W        W72360  13.003  17.274  15.710  0.2356 -0.1460 -0.0683
29370W        W72361  22.617   6.988  24.025 -0.3745  0.0979 -0.0516
29371W        W72362  27.614   8.859  25.526  0.3831  0.0029  0.0752
29372W        W72363   1.188  20.803   8.598 -0.4012  0.0996  0.0591
29373W        W72364   2.236  12.974   7.379  0.1729 -0.1295 -0.4636
29374W        W72365  34.358  30.294   4.967  0.1176  0.0284  0.0426
29375W        W72366  13.901  24.507  13.894  0.3387 -0.2092 -0.0274
29376W        W72367   5.919  25.484  28.126 -0.0769 -0.0345  0.0909
29377W        W72368  16.855  22.831   1.913  0.2738 -0.2111 -0.2587
29378W        W72369  22.718  19.225  17.875  0.0435  0.0587 -0.0194
29379W        W72370   1.714  28.986  15.596 -0.2068 -0.4454  0.0782
29380W        W72371  11.088  11.441  21.347  0.0058  0.2681  0.0117
29381W        W72372  13.968   1.771   1.584  0.1635 -0.3121 -0.1481
29382W        W72373  15.407  21.989  28.484  0.0093 -0.2093 -0.3114
29383W        W72374  14.013  27.627  27.906 -0.3162 -0.1006 -0.1914
29384W        W72375  15.059  19.610   2.417  0.0736  0.1679  0.0517
29385W        W72376  19.423  21.446   5.804  0.0994 -0.0521 -0.0667
29386W        W72377  13.175  17.578  24.753 -0.1327 -0.1843 -0.1383
29387W        W72378  23.062  11.439  16.944 -0.1114  0.5160  0.0873
29388W        W72379  25.204  17.338  20.762 -0.2297 -0.4333 -0.2220
29389W        W72380   9.691  20.483  28.032 -0.0451  0.1138  0.1488
29390W        W72381  33.390  18.854  24.072  0.1858 -0.0449  0.0099
29391W        W72382  23.100   0.520  14.289  0.1243  0.1322  0.1111
29392W        W72383  10.760  17.772  22.601 -0.1193  0.0265 -0.0052
29393W        W72384   1.249  12.825   4.235 -0.1224 -0.0843 -0.0786
29394W        W72385  10.070  26.873  20.843  0.1815 -0.2545 -0.0274
29395W        W72386  31.489  26.423  20.921  0.0539  0.0162  0.1493
29396W        W72387  13.500  23.554  18.746 -0.1364 -0.2675 -0.0167
29397W        W72388   8.168  22.536  24.061  0.1983  0.0516 -0.6388
29398W        W72389  15.071  32.895  18.549  0.0377 -0.0130  0.3070
29399W        W72390   5.100  16.097   9.514 -0.0470 -0.1534 -0.0194
29400W        W72391  14.814  28.732  20.946 -0.1670  0.0705  0.0716
29401W        W72392  22.763  12.571  16.568 -0.3049  0.2828  0.1584
29402W        W72393   7.860  29.100  19.950  0.1284  0.0678 -0.2456
29403W        W72394   6.071  29.951  23.169  0.2269 -0.1105 -0.3616
29404W        W72395  23.691  21.245  23.900 -0.1415  0.0112  0.0157
29405W        W72396   0.452   1.678  18.978 -0.2614 -0.1839 -0.1673
29406W        W72397  15.323   7.924  17.405  0.1309 -0.2496 -0.0494
29407W        W72398  23.552  21.999  24.556 -0.0767  0.5493 -0.4655
29408W        W72399  17.229  14.969   2.445 -0.0239 -0.1863  0.1037
29409W        W72400  10.127  32.703   1.523 -0.5928 -0.0516 -0.0131
29410W        W72401   1.885  16.732  16.711 -0.0204  0.0312  0.2721
29411W        W72402  33.020  13.345  17.330  0.0046 -0.0411 -0.1233
29412W        W72403  23.786   5.158  23.019  0.0545 -0.3097 -0.3172
29413W        W72404  19.180  11.524  23.623  0.0104  0.0461  0.3665
29414W        W72405   2.029  32.709   7.287 -0.1341 -0.1349  0.1667
29415W        W72406   8.871  19.446  27.207  0.2635  0.0157  0.1597
29416W        W72407  31.460  19.563   4.113 -0.3194 -0.2651 -0.3240
29417W        W72408  11.013  10.487  22.100 -0.1638  0.0806  0.3892
29418W        W72409  33.679  21.704  21.715 -0.1563  0.1432  0.0892
29419W        W72410  34.383  17.656   9.667  0.1993 -0.2501 -0.3992
29420W        W72411  23.446   5.616  17.682  0.3491  0.1375  0.1226
29421W        W72412   2.432  13.349   6.302  0.0164 -0.0039 -0.0992
29422W        W72413  14.420  23.789   6.141 -0.0769 -0.0425 -0.0148
29423W        W72414  16.072  26.641  21.380  0.1906  0.0895 -0.0475
29424W        W72415  10.803   5.299   1.590  0.2090  0.0786 -0.2529
29425W        W72416   6.470  15.414  24.082 -0.1175 -0.0578 -0.1691
29426W        W72417  34.708  24.479   7.926 -0.1164 -0.1898  0.1844
29427W        W72418   9.940  34.013  16.821 -0.0744  0.1604 -0.1236
29428W        W72419  22.533  20.999   3.654 -0.2473 -0.2770  0.0908
29429W        W72420  10.194  20.903  25.610  0.0101  0.1952  0.0498
29430W        W72421  22.419  24.328   8.477 -0.2224  0.2946  0.0783
29431W        W72422  15.096  12.343  27.665 -0.0537 -0.1162 -0.0626
29432W        W72423   4.859  24.437  28.266  0.1031  0.1228  0.0349
29433W        W72424  33.840  31.659   0.903 -0.0596  0.1919  0.3280
29434W        W72425  29.901   5.519   1.573  0.0063  0.0647 -0.4202
29435W        W72426  11.332  25.055  23.640  0.4604 -0.4341 -0.1327
29436W        W72427   2.888  17.743   2.959  0.0996  0.0009  0.1032
29437W        W72428  34.704  10.491   7.194  0.1131  0.2136  0.0223
29438W        W72429   7.870  21.724   2.051  0.4642 -0.0228 -0.0015
29439W        W72430  15.456  23.946  25.492  0.3048  0.2146  0.0186
29440W        W72431  29.325  34.036   0.247 -0.0671  0.0306  0.2681
29441W        W72432  14.614  25.764   9.919  0.0197 -0.1092 -0.0172
29442W        W72433   8.390   3.263  20.300  0.2033 -0.1874  0.0553
29443W        W72434   5.950  19.277  24.365 -0.0231  0.2411  0.2045
29444W        W72435  30.369  16.419  23.269  0.4032  0.1417  0.1674
29445W        W72436  34.467   0.469   7.157  0.1599  0.1037 -0.0089
29446W        W72437  33.326  26.681  17.528  0.0291  0.0909 -0.1419
29447W        W72438   6.272   0.564  28.904  0.4186  0.0005 -0.3984
29448W        W72439  24.475  20.062  15.864 -0.2206  0.2378 -0.1142
29449W        W72440  11.542  28.459   0.847  0.1016 -0.0039 -0.1757
29450W        W72441   1.576  23.070  18.127 -0.1009 -0.1542 -0.0740
29451W        W72442   2.255  28.587  13.994  0.2404  0.0467  0.0532
29452W        W72443  24.331  14.875  18.309 -0.1909  0.2077  0.1220
29453W        W72444  31.464  25.954  15.405  0.2170  0.1513 -0.0023
29454W        W72445  16.892  12.607  24.957  0.1727 -0.0161 -0.0647
29455W        W72446   3.699   4.935   9.593 -0.1788  0.2736 -0.1972
29456W        W72447   7.115  25.821   3.616 -0.1180 -0.0209 -0.0458
29457W        W72448  10.662  16.906  25.207 -0.0271 -0.0198  0.1811
29458W        W72449  34.642   7.916   2.200  0.2489 -0.0077 -0.0586
29459W        W72450   1.735   3.368  27.463  0.0167 -0.3623  0.1722
29460W        W72451   5.718  20.082   2.534 -0.0740  0.1316  0.3775
29461W        W72452   4.899  23.417  21.282 -0.0582  0.0188  0.1477
29462W        W72453  29.974  23.853   8.052 -0.1349 -0.1608  0.2521
29463W        W72454  28.649  10.310  23.831  0.1747 -0.1122 -0.0379
29464W        W72455   5.634   9.835  25.565  0.0917  0.1181 -0.1456
29465W        W72456  13.964  29.382  15.958  0.0561  0.0031  0.0164
29466W        W72457  31.519  13.783  26.445  0.1854 -0.3865  0.0179
29467W        W72458  22.525  23.023  16.870  0.0134  0.2251 -0.2050
29468W        W72459  33.355  27.639   5.361  0.0595  0.1047  0.1363
29469W        W72460  16.388  12.428  16.570  0.1547 -0.2918 -0.3021
29470W        W72461  32.318  15.032  22.949 -0.3077 -0.0438 -0.0682
29471W        W72462  33.478  24.516  15.927 -0.4272  0.1520  0.0306
29472W        W72463  12.962   3.166   1.413 -0.0431 -0.0678 -0.1565
29473W        W72464   1.410  31.632  20.499 -0.1849  0.1180 -0.0855
29474W        W72465  34.155  19.014  25.232 -0.2222  0.0001 -0.0516
29475W        W72466   4.574  19.305  17.170 -0.0665 -0.0225  0.5387
29476W        W72467  11.215  19.879  24.073 -0.1488  0.2362  0.0066
29477W        W72468  29.472  26.880  19.005 -0.0101 -0.3861  0.0159
29478W        W72469  13.482  18.501   1.121  0.0139 -0.1302 -0.2485
29479W        W72470   5.809  29.078   9.285 -0.2857  0.2139 -0.1814
29480W        W72471  12.076  25.678   5.941  0.0050 -0.1604  0.1168
29481W        W72472   7.176  12.346   2.128 -0.1469 -0.3445  0.1467
29482W        W72473   3.321  26.259  22.339  0.3183  0.5099 -0.1203
29483W        W72474   8.625  29.188  16.816 -0.1332  0.2500  0.0698
29484W        W72475   5.915  17.745  11.105  0.0637  0.0727  0.0587
29485W        W72476  12.631  13.067   6.179  0.1407 -0.2917 -0.0404
29486W        W72477  30.967   7.158   7.845  0.0211  0.1108  0.1785
29487W        W72478  27.186  33.983  28.417  0.1839  0.1048 -0.1935
29488W        W72479   7.360  10.231  15.921 -0.2571 -0.0766 -0.5196
29489W        W72480  31.092  32.941  18.544  0.0382  0.1135 -0.2498
29490W        W72481  24.485  24.158   6.293 -0.1553  0.2049  0.1137
29491W        W72482   0.140  17.796  22.196  0.1480 -0.1594 -0.0431
29492W        W72483  17.669  22.334   1.927  0.1978 -0.3264 -0.1755
29493W        W72484  32.176  23.781  17.096  0.0412 -0.1145  0.0475
29494W        W72485  27.495  24.380   6.240  0.0087  0.4914  0.0948
29495W        W72486  34.247  17.444  23.100 -0.2271 -0.1299  0.2867
29496W        W72487   1.782  10.779   1.118 -0.0525 -0.1598 -0.2141
29497W        W72488   2.275  22.345   0.749  0.1428  0.2341  0.1692
29498W        W72489   1.786  15.485  16.590 -0.0022 -0.0051 -0.0108
29499W        W72490   9.866  16.559   0.401  0.0497  0.2082  0.2669
29500W        W72491  14.041  15.576   4.817 -0.2586  0.1354 -0.0600
29501W        W72492  11.589  19.291  28.245 -0.1642 -0.0453 -0.0463
29502W        W72493   6.793  30.842  21.577  0.0073 -0.3271  0.1288
29503W        W72494   9.121  23.942   2.399 -0.0578 -0.1563 -0.0824
29504W        W72495   4.165  11.584  15.853 -0.0338  0.0617  0.0231
29505W        W72496  14.043  21.156  18.039  0.0321  0.1819 -0.0555
29506W        W72497   7.965  12.087  10.470  0.0523 -0.2288  0.0370
29507W        W72498  31.305  21.424   4.865 -0.1989 -0.0765  0.0355
29508W        W72499   6.524  17.098  23.689  0.0442 -0.1543  0.4575
29509W        W72500   7.470   8.907   8.757 -0.1255 -0.0447  0.0415
29510W        W72501  33.888  25.605   7.169 -0.3281  0.1064  0.1058
29511W        W72502  20.297  19.913   0.323 -0.1768  0.0054  0.1161
29512W        W72503  34.399  26.121   0.935 -0.0361 -0.2588 -0.1705
29513W        W72504  28.158  28.633   2.437  0.0655  0.0575 -0.1157
29514W        W72505  21.266   3.755   4.681  0.0595  0.0077  0.1115
29515W        W72506  13.526  21.550  23.861 -0.1984  0.1187  0.2238
29516W        W72507  33.847   9.077  26.928 -0.0433  0.4037  0.3588
29517W        W72508  17.687  19.188   1.682  0.2063 -0.4612  0.2218
29518W        W72509  10.951  26.589  23.133 -0.0409  0.1163  0.0286
29519W        W72510   2.452  13.463  27.783  0.2795 -0.0016 -0.1290
29520W        W72511   7.000  17.875   6.410  0.1451 -0.1664 -0.0278
29521W        W72512   7.168  18.298   8.463  0.2597 -0.0046 -0.0709
29522W        W72513  12.389   6.287   9.864  0.2150  0.1573 -0.0612
29523W        W72514   6.326   6.823   6.225 -0.2643 -0.2408 -0.4005
29524W        W72515  29.736  13.678  28.797  0.3635 -0.0987 -0.0341
29525W        W72516   9.501   4.702  21.780  0.0882 -0.0592  0.2169
29526W        W72517   6.260   3.212  15.487 -0.1675  0.2846  0.1282
29527W        W72518  18.998  13.967  23.466 -0.0766 -0.0115  0.1862
29528W        W72519  10.951  12.926  24.764  0.0201  0.2332 -0.1366
29529W        W72520  22.646  24.967  22.090 -0.0012  0.0288 -0.2313
29530W        W72521  10.738   7.778  15.049 -0.0348 -0.3258 -0.0183
29531W        W72522  17.428  20.315  21.677  0.1421  0.1504 -0.1787
29532W        W72523   5.565  13.758   6.158  0.0491  0.1999 -0.0764
29533W        W72524  25.287  23.230   9.511  0.2964  0.0293 -0.0927
29534W        W72525  32.637  21.732  26.831 -0.0728 -0.0990  0.4704
29535W        W72526   8.894  16.121  22.887 -0.0628 -0.1588 -0.0782
29536W        W72527   3.588  12.854   6.352  0.2466 -0.1404 -0.4850
29537W        W72528   2.042  15.796  10.836  0.3275  0.0356 -0.1596
29538W        W72529  12.969  10.305  25.564  0.1275  0.1418  0.1512
29539W        W72530  34.575  31.617  21.309  0.2431 -0.0398 -0.0244
29540W        W72531   8.942   9.064  16.830  0.1750 -0.2860  0.2635
29541W        W72532  33.078  30.289  22.689  0.0448 -0.1828  0.4009
29542W        W72533  11.950  18.631  19.830 -0.2052  0.1142 -0.1324
29543W        W72534  31.941  24.209  25.725  0.0193 -0.0911  0.4781
29544W        W72535  19.137  28.005   4.689 -0.0996 -0.1909  0.4150
29545W        W72536   7.886  10.413   5.937 -0.0970 -0.0980  0.0927
29546W        W72537  16.644  17.895   0.662  0.3063 -0.0030 -0.0458
29547W        W72538   0.178  32.679  20.263 -0.0273 -0.2089 -0.1983
29548W        W72539   4.429   9.611  17.546  0.2335  0.2419 -0.1138
29549W        W72540   2.233  19.160  20.100  0.3546 -0.1168  0.3409
29550W        W72541  26.345   0.646   0.884 -0.0513  0.2452  0.2677
29551W        W72542  13.422  22.906  16.878 -0.1795  0.2522 -0.0485
29552W        W72543   6.008  33.845   5.842 -0.1200 -0.0819 -0.0894
29553W        W72544  10.100   0.980  24.264 -0.1199  0.0919 -0.3190
29554W        W72545   7.454  10.916   6.149 -0.2190 -0.5017 -0.1905
29555W        W72546   6.482  20.459  17.727  0.1207 -0.0888  0.0101
29556W        W72547   9.623  13.628   1.579  0.2783 -0.1512 -0.2101
29557W        W72548  29.464  12.500  22.913  0.1116  0.1580 -0.0949
29558W        W72549   7.897  22.062  20.501 -0.5696 -0.0940  0.1157
29559W        W72550   0.345  28.054   8.124  0.0505 -0.0821  0.0553
29560W        W72551   0.966  12.232  22.246  0.1926  0.0555  0.0131
29561W        W72552  12.822  12.106   1.357  0.1118  0.0577  0.0962
29562W        W72553  29.999  20.206  21.598 -0.0102 -0.1574 -0.1674
29563W        W72554   7.141  16.307  18.016 -0.0786  0.1835 -0.3991
29564W        W72555   4.272   7.070  24.700 -0.2477  0.0552  0.1494
29565W        W72556   3.860  30.793  23.194 -0.3124 -0.0234 -0.3988
29566W        W72557  29.931  24.053  19.223 -0.0034  0.1504 -0.2223
29567W        W72558   9.822  13.763  26.570 -0.1801 -0.1012  0.0717
29568W        W72559   2.302  30.480  27.332 -0.1314  0.0228 -0.3740
29569W        W72560  13.007  30.970  15.410  0.2125 -0.1552  0.0751
29570W        W72561  20.287  16.955  13.638  0.2218  0.1931 -0.1258
29571W        W72562   7.486  20.997   7.246 -0.3120  0.1295  0.2032
29572W        W72563  27.809  22.741   3.059  0.2443 -0.2404  0.3943
29573W        W72564  10.057  24.910   4.332 -0.2318 -0.4007 -0.0519
29574W        W72565  15.171  21.618   6.094 -0.1175 -0.1916 -0.4340
29575W        W72566  32.358  13.127  25.371 -0.2377  0.2806  0.1115
29576W        W72567  31.174  18.423  17.552 -0.3734 -0.1462  0.0110
29577W        W72568   1.874  24.980   0.702 -0.0256 -0.3334  0.0950
29578W        W72569  28.931  19.748  25.868 -0.0383  0.3253 -0.0737
29579W        W72570   7.300  10.544   8.156  0.0424 -0.0264 -0.1073
29580W        W72571  11.701  13.562   2.448  0.1247 -0.1905  0.1663
29581W        W72572   1.499  16.425  22.255 -0.1941 -0.4111  0.3733
29582W        W72573  21.635  29.162  18.311 -0.0238 -0.2618 -0.1238
29583W        W72574  24.122  13.452  27.171  0.1198 -0.0485 -0.3017
29584W        W72575   4.361   0.451  16.272  0.2027  0.0110  0.1619
29585W        W72576  12.997  28.185  23.943 -0.1479 -0.0680 -0.2212
29586W        W72577  18.080   7.515  22.650  0.1599  0.0124 -0.0365
29587W        W72578   2.597  29.973  28.454 -0.0979 -0.0921 -0.0941
29588W        W72579   4.354  32.425  26.559 -0.0884 -0.0316 -0.0165
29589W        W72580   8.793  19.940  19.955  0.3223 -0.0557  0.1797
29590W        W72581  33.052  26.206   8.359  0.1154 -0.0729  0.0138
29591W        W72582  33.574  15.807   3.658  0.1998  0.2411 -0.1504
29592W        W72583   6.277  21.531  25.241  0.1141  0.0018 -0.1442
29593W        W72584   5.046  20.864  16.768 -0.0862 -0.1292  0.1081
29594W        W72585  25.799  18.688   4.872  0.1115  0.1945 -0.2616
29595W        W72586  22.910  10.198  25.283  0.2008 -0.0601 -0.1460
29596W        W72587   3.745  22.387  27.151 -0.2173 -0.4338  0.0934
29597W        W72588   8.032  20.405   2.203  0.1455 -0.1378  0.4523
29598W        W72589   5.724  18.956   0.169 -0.1534 -0.1119 -0.0138
29599W        W72590  32.943  13.856  18.525 -0.4914 -0.0863  0.0574
29600W        W72591   7.820  15.105  16.602  0.2327  0.0803  0.2511
29601W        W72592   8.651  23.740   7.606 -0.0756  0.2726 -0.2672
29602W        W72593   1.338   1.338   3.097 -0.0338 -0.3547 -0.1100
29603W        W72594   0.219   6.851   1.457  0.2137 -0.3478  0.0044
29604W        W72595  34.693  10.812   6.079 -0.1584  0.0810  0.1089
29605W        W72596  28.461  21.075  15.067 -0.1507  0.0612  0.3100
29606W        W72597  21.018  32.032  28.829  0.1591 -0.1061  0.1518
29607W        W72598  10.150  27.103   9.110  0.0398 -0.0052  0.1339
29608W        W72599  33.744   9.515   5.050  0.1231  0.1251 -0.0704
29609W        W72600  12.822  17.609  14.919  0.0173 -0.1818  0.1638
29610W        W72601  15.540   1.613  26.738 -0.1252  0.3488 -0.0789
29611W        W72602   7.522   9.767  25.573 -0.1049 -0.1080 -0.0771
29612W        W72603   8.897   1.676  23.785  0.0590  0.0797 -0.2785
29613W        W72604   0.365  22.323  24.748 -0.0829 -0.0842  0.0661
29614W        W72605  17.355  21.259  20.000 -0.1700  0.1427  0.0938
29615W        W72606  10.008  19.755  24.325 -0.0443  0.0077  0.0146
29616W        W72607  12.242  19.977   7.484  0.2386 -0.1577  0.0877
29617W        W72608  17.147   9.810   5.632  0.0839 -0.2934  0.0480
29618W        W72609  11.461  21.326   0.809 -0.2893  0.2385  0.2513
29619W        W72610   3.733  24.819  23.569  0.1657  0.0218 -0.1949
29620W        W72611  33.940   8.173  10.138  0.1251  0.1233  0.1544
29621W        W72612  31.424  21.619  24.654  0.0004  0.1512  0.1099
29622W        W72613  33.464  33.254  28.962 -0.1412  0.0182 -0.0439
29623W        W72614  22.998  21.461   2.361 -0.1143 -0.1260  0.2960
29624W        W72615   6.474  10.998  24.495  0.0232 -0.0293 -0.0922
29625W        W72616   6.462  12.467  16.098 -0.0201 -0.1683  0.1637
29626W        W72617  19.519  13.537  14.061 -0.1663  0.1308 -0.0551
29627W        W72618   1.008  18.326  15.179 -0.1359  0.0081  0.0327
29628W        W72619  30.904  11.040  19.767 -0.0083 -0.2464 -0.0250
29629W        W72620  20.979   6.147   0.277  0.1491  0.0678 -0.0253
29630W        W72621   1.750  26.118   2.577  0.1414 -0.0922  0.1543
29631W        W72622  24.842  28.720  17.361 -0.1129 -0.0656 -0.2779
29632W        W72623  13.222  34.563  26.300 -0.0133 -0.2818 -0.2323
29633W        W72624   0.857  11.952  26.486  0.0999  0.0436 -0.3065
29634W        W72625  10.517  16.299  21.432  0.1143 -0.3422  0.0691
29635W        W72626   1.186  20.667  26.445  0.2702 -0.2953  0.1174
29636W        W72627   6.266  33.681  23.000 -0.1985  0.0362 -0.0694
29637W        W72628  14.946  31.435   0.710  0.6674  0.1713  0.0757
29638W        W72629  16.423  14.725  23.478  0.3071 -0.0641  0.2144
29639W        W72630  32.798   0.493  24.790  0.1823 -0.0662 -0.0463
29640W        W72631   6.120   6.011   3.943 -0.2320 -0.1540  0.1972
29641W        W72632   3.374   4.824  20.574 -0.1740 -0.1416 -0.1176
29642W        W72633  16.988  19.066  14.418  0.2483 -0.0911 -0.0166
29643W        W72634  34.639  17.270   0.548  0.2277 -0.1043 -0.1484
29644W        W72635   8.648  15.408   2.119  0.0635 -0.2218 -0.0034
29645W        W72636  32.232  13.468   1.164 -0.1193  0.0274 -0.4229
29646W        W72637   5.747  14.572   6.123 -0.0593  0.2556 -0.3029
29647W        W72638  17.237  24.284  15.342 -0.3039  0.0280  0.2206
29648W        W72639  30.116  31.062  18.997  0.3115  0.1877 -0.3494
29649W        W72640  12.275  23.581   9.396  0.3500  0.0157  0.2829
29650W        W72641   0.671  25.251  20.189  0.0706  0.0640  0.0096
29651W        W72642  10.179  20.289  27.350  0.1911  0.0231 -0.2324
29652W        W72643  28.176  23.896   7.116 -0.2915  0.1000 -0.0249
29653W        W72644  12.866   1.586  17.264  0.2295  0.0057 -0.0820
29654W        W72645  11.579  16.179  24.432 -0.0683 -0.3662  0.0442
29655W        W72646   6.525   6.158  22.886 -0.0897  0.1307  0.1925
29656W        W72647   0.179  32.876  23.173 -0.0493  0.2815 -0.1817
29657W        W72648   3.268  29.586   4.790 -0.0619  0.2013 -0.0505
29658W        W72649  22.788  29.640  27.063 -0.1405  0.4795  0.0399
29659W        W72650  10.544  31.107   3.812  0.2683 -0.0497 -0.2144
29660W        W72651  28.710  11.333   0.050 -0.0992  0.1950  0.2069
29661W        W72652   4.460  27.270   7.837  0.0071  0.3289  0.0664
29662W        W72653  29.404  30.307   3.706  0.3070 -0.1209  0.0567
29663W        W72654   6.238  16.668  23.248  0.5238 -0.1327  0.0891
29664W        W72655   4.719  28.194   4.624  0.0046  0.0598 -0.0821
29665W        W72656  10.219  28.698   9.026 -0.2283 -0.0354 -0.3233
29666W        W72657  29.602  22.336   9.299  0.1308  0.0612  0.2055
29667W        W72658   2.899  26.453  22.183  0.0343  0.2087  0.0275
29668W        W72659  25.380  15.965  26.369 -0.2133 -0.2116 -0.2100
29669W        W72660  14.847  23.909  19.804 -0.0360 -0.3860  0.0075
29670W        W72661   1.430   4.150  17.442 -0.2915 -0.1401  0.1045
29671W        W72662   9.105   1.954  28.003 -0.3082  0.0475 -0.0920
29672W        W72663  11.478   7.385   0.931 -0.2243  0.1531 -0.1362
29673W        W72664  13.437  11.297   4.712 -0.2049  0.2743  0.0021
29674W        W72665  12.277   7.236  27.352  0.1253 -0.1130  0.1082
29675W        W72666  30.640  28.411  13.184 -0.0099  0.0638 -0.3321
29676W        W72667   5.033  14.875  18.045 -0.1061 -0.1910 -0.0646
29677W        W72668   5.070  28.946  20.668 -0.0701  0.0175 -0.2783
29678W        W72669  17.634   8.127   5.275 -0.0304  0.1107  0.0679
29679W        W72670   2.972  13.502   3.262 -0.0960  0.0469  0.1921
29680W        W72671   5.208  18.494   6.785 -0.1413 -0.0715  0.2324
29681W        W72672  18.583   7.681  23.571  0.1124  0.2315 -0.1405
29682W        W72673  32.023   4.162  26.888  0.1973 -0.0080  0.0397
29683W        W72674   0.298  13.502  26.826 -0.2174  0.1204  0.0711
29684W        W72675  32.158  12.460   0.775 -0.1429 -0.0270 -0.1744
29685W        W72676   3.832  19.098  25.407 -0.1707 -0.1299 -0.0367
29686W        W72677   3.253  27.067  26.388 -0.2878 -0.0599 -0.1598
29687W        W72678  11.528  28.668  14.170 -0.0569 -0.0266  0.1696
29688W        W72679  12.541   7.102   4.448  0.0423 -0.0585 -0.0063
29689W        W72680  32.107   3.826   2.047  0.1243  0.3381  0.0278
29690W        W72681   6.851  12.078   4.993  0.1076 -0.0263  0.0376
29691W        W72682  11.823  11.921   1.178 -0.2667 -0.0095 -0.1763
29692W        W72683  19.291  30.544   9.083 -0.1761  0.0968 -0.0831
29693W        W72684   1.970  22.618  18.231 -0.0390  0.4647  0.0219
29694W        W72685  11.331  16.424   8.698  0.4372 -0.0334 -0.0885
29695W        W72686  20.666  17.197   1.667  0.0442  0.0699  0.2364
29696W        W72687  33.076  24.932   9.422  0.1976 -0.3650  0.0810
29697W        W72688  25.802  16.674  29.162 -0.0154  0.4449  0.4629
29698W        W72689  21.670   0.789  15.943  0.0502 -0.2304  0.1811
29699W        W72690   4.658  14.191   1.724  0.3418 -0.2984  0.2343
29700W        W72691   3.826  21.779  26.806  0.1857 -0.0470  0.4564
29701W        W72692  34.624  29.125  28.171 -0.1726  0.2579 -0.1370
29702W        W72693  26.972  22.870   1.900 -0.2981 -0.3364  0.1108
29703W        W72694  11.438  13.704  16.101 -0.1232 -0.1941 -0.2231
29704W        W72695   4.780  24.256  17.490 -0.1419 -0.0885  0.1672
29705W        W72696  33.997  31.538  28.009  0.3889  0.3790 -0.0151
29706W        W72697   1.637  19.404   3.274 -0.0535 -0.3497 -0.0412
29707W        W72698   6.972   7.231  27.228 -0.0806  0.0397  0.0747
29708W        W72699  17.903  24.973  20.681  0.0509  0.0501  0.0327
29709W        W72700   9.018   9.464   7.399  0.1482 -0.0247  0.3187
29710W        W72701  32.659  24.475   2.082  0.1066  0.3102 -0.2131
29711W        W72702  34.046  18.384  29.150 -0.2635 -0.0166  0.0187
29712W        W72703  11.145  30.852  25.212  0.1735 -0.2273 -0.0111
29713W        W72704  32.676  12.940   0.910 -0.0589  0.1672 -0.1631
29714W        W72705  27.701  12.444   0.902  0.1172  0.0764 -0.0019
29715W        W72706  27.904  28.533  19.294 -0.2327 -0.1591  0.4323
29716W        W72707   2.189  13.635   8.796 -0.1378  0.1388 -0.3175
29717W        W72708  21.684   4.923  23.736 -0.0166 -0.0624 -0.1504
29718W        W72709  13.797   6.806  17.570  0.1024  0.1513  0.2416
29719W        W72710   3.913  32.355  23.417 -0.3284 -0.0155 -0.1470
29720W        W72711   4.851   8.145   1.742  0.0751  0.4090 -0.4141
29721W        W72712  16.233   9.552  23.527 -0.3477 -0.1042 -0.3777
29722W        W72713  11.907  16.463  24.077  0.0642  0.0708 -0.1569
29723W        W72714  30.467  24.716   0.358 -0.0658 -0.0121 -0.0714
29724W        W72715  28.504  15.599  10.315 -0.1674  0.2459 -0.2920
29725W        W72716   0.963  18.805   7.580  0.2676  0.0402 -0.0683
29726W        W72717  19.245   7.724   0.918  0.1577  0.1918 -0.1690
29727W        W72718   6.962  16.651  26.927 -0.1221  0.1750  0.1225
29728W        W72719   8.254  10.947   7.716 -0.1096 -0.1344  0.1901
29729W        W72720  28.651  15.920  28.125 -0.0979  0.0646 -0.0895
29730W        W72721  21.216  17.157  25.923  0.2975 -0.0652 -0.0338
29731W        W72722   4.371  27.777   5.584  0.1361  0.2582 -0.0639
29732W        W72723  10.378  12.127   9.587 -0.1840 -0.1393  0.1814
29733W        W72724  11.287   1.025   7.167 -0.0666  0.0372 -0.3714
29734W        W72725  10.681  19.137  23.125  0.1326  0.1244  0.3336
29735W        W72726  33.744  12.170  23.618  0.1498 -0.1276  0.1075
29736W        W72727  19.019  27.087   8.949 -0.2650  0.0817  0.1331
29737W        W72728  32.163   4.971  26.426  0.1233 -0.0915 -0.1335
29738W        W72729  32.216  13.841   7.861  0.1027  0.0009 -0.1367
29739W        W72730   5.729  25.330   1.351  0.1538 -0.2599  0.1841
29740W        W72731   9.320  15.797  15.123 -0.1115 -0.0717  0.0530
29741W        W72732  23.461  23.229  18.887  0.0222 -0.1164  0.2471
29742W        W72733  26.817  16.297  18.778  0.2640 -0.1061 -0.1063
29743W        W72734   9.705   3.047  28.617 -0.2087  0.1069  0.2468
29744W        W72735   1.258  32.032  14.717  0.0130 -0.1605  0.2456
29745W        W72736   1.828  26.178   4.995 -0.0156  0.1299 -0.0353
29746W        W72737   0.218  16.144   5.483 -0.1594  0.1192  0.4579
29747W        W72738   7.771  14.045  20.336 -0.0988  0.1883  0.1587
29748W        W72739  33.485  16.056  15.647 -0.2692 -0.2696 -0.4051
29749W        W72740   9.064  23.709  28.881 -0.0840 -0.1209  0.2972
29750W        W72741   9.371  10.339  20.848  0.4177  0.2601  0.0836
29751W        W72742  33.453  16.167   2.043  0.2093 -0.0587 -0.1840
29752W        W72743   1.751  25.751  20.053 -0.2162 -0.2292 -0.1282
29753W        W72744  19.901  29.821   2.549 -0.0218 -0.0527  0.1677
29754W        W72745  13.723  27.159  28.073  0.3715 -0.0811  0.0544
29755W        W72746   9.400  12.582   7.773  0.0161  0.3621  0.1726
29756W        W72747  11.629   8.247   8.718  0.0310 -0.0441 -0.2966
29757W        W72748   9.371  14.470  10.655 -0.1371 -0.1070 -0.5918
29758W        W72749   8.426  19.040   4.468 -0.1281 -0.1882  0.0663
29759W        W72750  16.475  12.586   9.686 -0.0905 -0.2597 -0.1388
29760W        W72751  30.720  21.244  17.555 -0.0352 -0.1027  0.0150
29761W        W72752  33.915   4.296  20.058 -0.1562  0.1618  0.1013
29762W        W72753   4.863  11.999  10.835 -0.0646  0.2902 -0.0278
29763W        W72754  11.748   0.062   4.494  0.1193 -0.1579 -0.3495
29764W        W72755   8.535  23.547  28.578  0.0880  0.1328 -0.0443
29765W        W72756  21.265  32.473  25.128  0.0947 -0.0649 -0.2739
29766W        W72757  34.602  14.185  17.240 -0.1035 -0.0497 -0.0387
29767W        W72758  33.222  26.451  26.729  0.2462  0.2197 -0.1451
29768W        W72759  27.105  10.917  25.943  0.0047 -0.0622  0.3393
29769W        W72760  30.348  14.822  26.645 -0.3560  0.0306  0.0768
29770W        W72761  33.609  10.953  29.195  0.1266 -0.2495  0.1054
29771W        W72762  24.225  28.242  19.613 -0.0521 -0.0167 -0.3580
29772W        W72763  33.603  15.404  27.448  0.0190 -0.1210  0.0354
29773W        W72764  25.641  17.073   8.252 -0.1574 -0.5124  0.4414
29774W        W72765  14.400  25.691  26.817  0.1710 -0.1016  0.0503
29775W        W72766  26.833  20.923  21.920 -0.0516  0.2520 -0.1124
29776W        W72767  15.200  21.289   7.402  0.1033  0.0724  0.1091
29777W        W72768  29.528  13.305  23.873 -0.5441  0.0130 -0.2560
29778W        W72769  11.979  24.937   3.551 -0.0155  0.1029 -0.2407
29779W        W72770  12.953  23.387   5.247  0.2040  0.1093  0.0286
29780W        W72771   0.802  24.539   7.252 -0.4597 -0.1596  0.1145
29781W        W72772  15.954   2.049  24.326 -0.0184  0.0516 -0.3017
29782W        W72773  33.240  10.332   9.313  0.0045  0.1181 -0.1604
29783W        W72774   7.325   3.535  17.622 -0.1936  0.1393 -0.1684
29784W        W72775  27.942  34.558   3.513  0.2640 -0.2039  0.0554
29785W        W72776  26.501   5.658   9.628 -0.4303 -0.0352  0.2488
29786W        W72777  31.528  19.871  20.260 -0.0192  0.0615 -0.0566
29787W        W72778  26.607  25.749  17.711  0.1081 -0.1757  0.2681
29788W        W72779  13.871   1.427  19.626  0.0111 -0.1360 -0.1021
29789W        W72780   1.373  31.108  23.452  0.0272 -0.0102 -0.1403
29790W        W72781   0.523  28.419  20.418 -0.0516  0.4114  0.0034
29791W        W72782  25.117  25.814  23.403 -0.1936 -0.0918 -0.0768
29792W        W72783  10.690  33.520  28.839  0.0552  0.0829 -0.2026
29793W        W72784  32.869  26.348   3.720  0.5931 -0.1804  0.3701
29794W        W72785  31.250   1.194  21.348 -0.2021 -0.1419  0.3112
29795W        W72786  29.563  31.463  14.810 -0.0059 -0.1871 -0.2002
29796W        W72787  10.320  24.054  22.356  0.0469 -0.5257 -0.0541
29797W        W72788   2.903   1.052  16.689 -0.0992  0.0985 -0.4171
29798W        W72789   1.881  14.268  26.264  0.0611  0.3596 -0.0859
29799W        W72790  34.460  25.376  16.644  0.0596 -0.1679 -0.2269
29800W        W72791   1.404  24.713  13.793 -0.2387 -0.0685  0.0970
29801W        W72792  12.770   1.741   1.356 -0.3309  0.2751  0.1287
29802W        W72793  15.905  20.512  12.495 -0.3415  0.1476  0.0855
29803W        W72794  19.808  27.811  22.750 -0.2416  0.0292 -0.0732
29804W        W72795  28.251   4.180   3.825  0.0101  0.1746 -0.0106
29805W        W72796  31.199  19.755  23.199  0.1114 -0.2421  0.0614
29806W        W72797   8.166  18.381  22.868 -0.0301 -0.1879 -0.1443
29807W        W72798   2.092  29.170  16.098 -0.1576  0.1420 -0.0259
29808W        W72799   0.982  30.886   6.187  0.1282  0.1941  0.0328
29809W        W72800  26.308  23.724  13.184 -0.1149 -0.0695  0.1159
29810W        W72801   2.467  16.786  19.788 -0.0837 -0.0326 -0.2411
29811W        W72802  15.622  11.994  17.869  0.0440  0.0368 -0.0120
29812W        W72803   2.190  22.191  15.552 -0.0198 -0.0569 -0.1137
29813W        W72804  17.211  27.091  22.548  0.0130 -0.1336 -0.1322
29814W        W72805  14.456   2.204  16.966  0.2073 -0.1467 -0.1089
29815W        W72806   1.906  22.675   2.440 -0.0256 -0.2202  0.3291
29816W        W72807  11.165   2.592  21.728 -0.1807 -0.0716 -0.0731
29817W        W72808   7.145  22.120  20.832  0.1765  0.1138 -0.0633
29818W        W72809  26.764  23.473  15.851  0.0085  0.1800 -0.1256
29819W        W72810  22.716  30.688  16.269 -0.0915 -0.0977 -0.0938
29820W        W72811  12.118  34.485  17.955  0.0171  0.1048  0.0472
29821W        W72812   4.800  18.672  18.000  0.0695  0.0293 -0.1379
29822W        W72813  14.203  24.601  16.279  0.0266 -0.0441  0.2443
29823W        W72814  29.079  32.315  19.808  0.2434  0.1924 -0.1620
29824W        W72815   1.013   9.371  26.162 -0.0187  0.0634  0.2963
29825W        W72816  24.750  15.003  16.540 -0.0387  0.0826 -0.1957
29826W        W72817  10.524  19.984  24.356  0.0759 -0.1220 -0.2513
29827W        W72818  15.010   5.347   1.507 -0.0473  0.1768  0.2543
29828W        W72819  29.631  10.512  16.138 -0.0741 -0.0667  0.1832
29829W        W72820  34.661  20.027  18.776 -0.0504 -0.2567 -0.0543
29830W        W72821   7.987  17.141  16.303 -0.0712 -0.3137 -0.3311
29831W        W72822  31.700  22.752  23.937  0.2464  0.0875 -0.0962
29832W        W72823   5.149  15.480   3.986  0.1175  0.1280  0.1688
29833W        W72824  19.847  26.117  15.312 -0.2665  0.1995 -0.1959
29834W        W72825  32.025  16.512  19.422  0.0942  0.5690 -0.0342
29835W        W72826  33.571  18.913  17.895 -0.1025 -0.1276  0.1683
29836W        W72827   9.087  22.010  23.159  0.0817 -0.1369 -0.0623
29837W        W72828  13.659  22.500  14.918 -0.0012 -0.0050  0.0779
29838W        W72829  14.810  29.354  20.593  0.1531  0.0499 -0.2448
29839W        W72830   2.431  17.683  17.472 -0.0577 -0.0165  0.0422
29840W        W72831  11.932  32.259  23.670 -0.0464 -0.0756 -0.1346
29841W        W72832  17.298  26.876  18.015 -0.0781 -0.2827 -0.0110
29842W        W72833  31.832  30.148  17.765 -0.0823  0.0254  0.1410
29843W        W72834  13.743   1.339  23.088 -0.0687  0.0190 -0.2119
29844W        W72835  19.826  22.976  17.158 -0.0311 -0.0718 -0.0091
29845W        W72836   5.989  26.003  19.179  0.0150  0.0614  0.2230
29846W        W72837   5.503  26.149  17.625 -0.0725  0.2417  0.1130
29847W        W72838   5.303  19.316  21.013 -0.3293  0.4423 -0.0644
29848W        W72839   3.132  25.650  25.726  0.0848 -0.2911 -0.2223
29849W        W72840  31.439  23.576   0.316  0.0164 -0.0293 -0.0142
29850W        W72841   1.792  31.652  24.547 -0.1989 -0.1218  0.1453
29851W        W72842   1.540  15.448  28.275  0.1029 -0.1101 -0.0782
29852W        W72843   5.361  14.949  16.237  0.1696 -0.1328  0.0022
29853W        W72844   3.730  33.196  15.611 -0.0268  0.2060 -0.2622
29854W        W72845  24.795  30.548   1.140  0.1076  0.0340 -0.2291
29855W        W72846  13.531  20.000  23.652  0.0565 -0.0259 -0.2154
29856W        W72847  25.855  31.760  19.411  0.0269 -0.3003 -0.2018
29857W        W72848  33.653  28.389  20.775  0.6171 -0.1535  0.1424
29858W        W72849   9.854  22.511  19.112 -0.1489  0.0780  0.2347
29859W        W72850  26.443  19.380  16.670  0.1063  0.2852 -0.0921
29860W        W72851  14.680   1.500  17.880 -0.1735  0.1001  0.0789
29861W        W72852  10.422  11.875  24.215 -0.1680  0.0554  0.2702
29862W        W72853  16.598  29.474  18.209 -0.0979 -0.1039 -0.2385
29863W        W72854  13.978   4.368  22.424  0.1447 -0.1316 -0.2463
29864W        W72855   2.933  17.079  23.331  0.1291  0.0130  0.1906
29865W        W72856  32.851  18.521   3.096 -0.1259  0.0102  0.1711
29866W        W72857  29.001  29.888  16.282  0.0360 -0.3033 -0.2449
29867W        W72858  34.275  15.295  16.033 -0.1792 -0.0349 -0.0699
29868W        W72859   5.726  33.581  20.977 -0.2924 -0.1556 -0.1496
29869W        W72860  28.281  22.379   0.514 -0.1816 -0.0388  0.3609
29870W        W72861  23.665  22.798  25.077 -0.0488 -0.1171  0.1001
29871W        W72862  24.717  19.297   0.134 -0.0515 -0.0729  0.1245
29872W        W72863  32.879  18.226  18.231  0.0774 -0.2314  0.4233
29873W        W72864   2.546  25.601  16.670  0.2475 -0.2641  0.2245
29874W        W72865  33.060  21.552  23.404 -0.3114 -0.2454 -0.0426
29875W        W72866  15.118   4.457  23.143 -0.1349  0.0170  0.0504
29876W        W72867   6.547  28.847  16.442  0.1866 -0.0420  0.0024
29877W        W72868   1.868  33.317  16.692 -0.0644 -0.0571 -0.1347
29878W        W72869  20.035   8.632  26.033  0.1399  0.0768 -0.0211
29879W        W72870  25.157  29.055  22.916  0.0222 -0.1377  0.1718
29880W        W72871  28.378  32.908  13.210 -0.5265 -0.2866 -0.0874
29881W        W72872   6.759  24.616  21.220  0.3254 -0.2750 -0.2954
29882W        W72873  34.768   5.010  27.042 -0.1824  0.0552 -0.0060
29883W        W72874  30.405  18.188  23.631 -0.3783 -0.0320  0.1106
29884W        W72875   2.773  18.749   6.172  0.1692  0.0283  0.0029
29885W        W72876   8.663  23.914  14.672  0.1871 -0.1772  0.0444
29886W        W72877  19.962   7.879  25.342 -0.2063  0.2120  0.0754
29887W        W72878  13.424   5.146  20.788 -0.0668  0.0511 -0.1159
29888W        W72879   0.739  26.132   9.359 -0.2423  0.2551  0.0988
29889W        W72880  11.361  26.484  18.575 -0.1291 -0.0749  0.1179
29890W        W72881  12.756  24.531  20.968  0.2152 -0.2474 -0.2630
29891W        W72882   1.139  34.024  16.816  0.0392 -0.1508  0.0518
29892W        W72883   2.874  25.469  29.179 -0.0052 -0.0608  0.1359
29893W        W72884   5.653  25.615   3.882  0.0444  0.0653 -0.1218
29894W        W72885   9.012  31.884   1.974 -0.1792 -0.2940 -0.3650
29895W        W72886   9.593  24.605  21.956  0.2768  0.1744  0.2757
29896W        W72887  10.011  19.640  15.672 -0.1751 -0.0223  0.0078
29897W        W72888  10.453  23.039   4.441  0.0978 -0.0496  0.0200
29898W        W72889   7.160  32.008  17.881 -0.2563  0.0039  0.0633
29899W        W72890   0.777   8.964  18.760 -0.0696 -0.0354  0.0352
29900W        W72891  32.028  18.385  22.327 -0.1496  0.1296 -0.0315
29901W        W72892  24.117  17.218  20.982  0.0823  0.1687  0.0472
29902W        W72893  32.322   4.351  13.876 -0.2047 -0.0438 -0.1424
29903W        W72894   6.700   0.530   3.591 -0.0421  0.1143 -0.1101
29904W        W72895   2.647  25.447  20.037  0.0139 -0.0458  0.2679
29905W        W72896  18.590  13.042  15.633 -0.0799 -0.2611  0.0877
29906W        W72897   8.049  24.185  19.800 -0.1307  0.1440  0.1622
29907W        W72898  15.201  32.558  15.283  0.2102 -0.1949  0.3124
29908W        W72899  14.525  26.416  17.121 -0.0077  0.0436  0.1301
29909W        W72900   1.220  19.319  27.036  0.2779  0.0321 -0.1447
29910W        W72901  27.977  24.984  17.953 -0.0268 -0.0502 -0.0818
29911W        W72902  18.953   1.532   4.716 -0.0274  0.2432  0.2468
29912W        W72903  18.320  25.362  16.769  0.0647 -0.1068  0.0105
29913W        W72904  33.246  23.290  21.022 -0.1668  0.0893  0.0660
29914W        W72905  26.697  26.689  25.480 -0.0879 -0.0267 -0.3908
29915W        W72906   8.645  31.819  24.132  0.2831  0.0772 -0.0347
29916W        W72907   8.736  27.840  17.652 -0.1104  0.0999  0.0306
29917W        W72908  15.556   1.825  20.681 -0.0086 -0.0042 -0.1205
29918W        W72909   0.222   1.491   7.829  0.0284 -0.0591  0.1916
29919W        W72910   0.862  29.130  22.244  0.2066  0.0153 -0.3226
29920W        W72911  19.667  14.661  26.801 -0.0978  0.2472  0.2174
29921W        W72912   8.249  11.180  15.772 -0.3863 -0.0107  0.0416
29922W        W72913  28.767  23.872  17.500 -0.2004  0.2616  0.0228
29923W        W72914  11.855  14.964  22.368  0.0688  0.0522  0.1639
29924W        W72915   4.754  34.076   6.668 -0.0899  0.1173 -0.2641
29925W        W72916  12.176  18.142  22.595 -0.1939  0.0304  0.0139
29926W        W72917  28.899  24.253  17.178 -0.3032 -0.3174 -0.0986
29927W        W72918  32.421  20.658  16.388  0.0792  0.1884  0.1289
29928W        W72919   1.615  26.141  13.667  0.1871 -0.0267  0.3019
29929W        W72920  23.084  16.032   1.430 -0.0078 -0.1343 -0.0331
29930W        W72921  27.916  33.547  13.296  0.1408  0.3063  0.2142
29931W        W72922  12.457   4.031  16.312  0.0398 -0.0214  0.0901
29932W        W72923  24.241   9.155   1.857 -0.1576  0.1515 -0.1692
29933W        W72924  10.385  25.924  17.010 -0.0693 -0.2131  0.0754
29934W        W72925   9.405  13.723  21.159 -0.0661 -0.1768 -0.1839
29935W        W72926   2.887  18.964   0.707 -0.1780  0.1539  0.2325
29936W        W72927  25.137   9.310  18.416 -0.2595  0.3131 -0.1971
29937W        W72928   4.197  31.935  26.508 -0.3513  0.0621  0.0021
29938W        W72929  23.067  13.413  17.571  0.0789 -0.0119  0.0641
29939W        W72930   3.751  23.789  26.560  0.3962 -0.0645  0.5402
29940W        W72931  10.602  20.119  13.621 -0.1527 -0.0759  0.0902
29941W        W72932   4.006  19.333  17.244 -0.0860 -0.2945 -0.1782
29942W        W72933   9.570  27.782  17.215  0.2917  0.1062 -0.4300
29943W        W72934   0.735   4.605   8.530  0.0581  0.1904 -0.1001
29944W        W72935  14.497  23.545  14.581 -0.2053  0.0267 -0.2637
29945W        W72936   4.082   4.147  20.634 -0.3616  0.0791  0.1845
29946W        W72937  29.520  19.902  27.416  0.4707 -0.0333 -0.0423
29947W        W72938  32.914  30.041  20.427 -0.1465 -0.0501  0.0186
29948W        W72939  11.678  27.269  15.850  0.1701 -0.0428 -0.2428
29949W        W72940  23.434  33.867  22.498 -0.1499  0.1434  0.2830
29950W        W72941   8.212  16.553  25.021 -0.0785 -0.1403  0.2285
29951W        W72942  34.347  11.150  17.861  0.1085  0.1097  0.1900
29952W        W72943   9.235  27.664  17.574 -0.2938 -0.2922 -0.0861
29953W        W72944   1.785  26.618  28.183  0.0222 -0.1403 -0.2055
29954W        W72945  11.009   0.894  15.106 -0.0628  0.2417 -0.1819
29955W        W72946   6.118  24.440  24.522 -0.3085 -0.0513  0.0421
29956W        W72947  29.990  12.919  23.214 -0.1283 -0.1890 -0.0747
29957W        W72948  22.835  23.124  17.313 -0.2802 -0.2431  0.1186
29958W        W72949  20.338  17.078  14.819 -0.1734 -0.2346 -0.1234
29959W        W72950  29.342  13.981  20.321  0.1844 -0.2773 -0.2268
29960W        W72951  18.554  25.490   1.341 -0.0288 -0.1268  0.2851
29961W        W72952  19.132   1.220   5.709  0.0766  0.1463 -0.0493
29962W        W72953  17.141   0.955  23.977 -0.3575  0.0649  0.0647
29963W        W72954  19.795  10.521  20.698  0.0558  0.0121  0.0998
29964W        W72955  18.806  30.263  15.579  0.1038  0.0643  0.0362
29965W        W72956   6.825  19.620  18.778  0.4941  0.0259  0.1127
29966W        W72957  29.363  15.197  25.644  0.1641  0.0433  0.0049
29967W        W72958   0.961  25.188  14.373  0.0835 -0.1025 -0.0658
29968W        W72959  24.960  26.559   1.986 -0.0912 -0.0658 -0.0884
29969W        W72960   6.518  19.809  14.516 -0.0623  0.1934 -0.1507
29970W        W72961   3.009  30.109  17.074 -0.3086 -0.0977  0.0301
29971W        W72962   8.630   2.686  21.598  0.1317 -0.0140 -0.0208
29972W        W72963  20.970  28.129  15.845  0.0523 -0.1878  0.3143
29973W        W72964  14.491   0.641  21.302 -0.1606 -0.1016  0.1186
29974W        W72965  11.870  27.993  21.616  0.1219  0.0092 -0.3473
29975W        W72966  32.674  25.349  22.291 -0.2372  0.0185  0.1262
29976W        W72967   5.600  33.998  27.566  0.1096  0.0455  0.3448
29977W        W72968  24.310  20.951   1.054 -0.1463  0.0860  0.4730
29978W        W72969  15.135   9.261  22.369 -0.0928 -0.0823 -0.0193
29979W        W72970  13.407  20.953  15.514  0.1910 -0.1195  0.1611
29980W        W72971  21.582  31.519  25.426 -0.1194  0.2190  0.5324
29981W        W72972  27.725  28.237  20.817 -0.0792  0.2122  0.2426
29982W        W72973   3.503  34.728  20.831 -0.0707 -0.3299  0.1296
29983W        W72974   4.043  17.523  22.250  0.3180  0.2925  0.1166
29984W        W72975   8.618  33.386  21.330  0.1027 -0.3425 -0.2627
29985W        W72976  17.669   4.017   9.962  0.1766  0.3518  0.1875
29986W        W72977   5.193   6.275  29.226  0.1087  0.2273  0.0242
29987W        W72978   3.055  33.871   8.268 -0.0176 -0.2259  0.1743
29988W        W72979   0.258  10.996  23.658  0.2823  0.0436  0.1991
29989W        W72980  30.534  29.637  15.465 -0.2118 -0.1250 -0.0449
29990W        W72981   2.488  32.787  16.212  0.0030 -0.1262  0.1304
29991W        W72982   3.593  28.064  16.306 -0.1744 -0.1346  0.1975
29992W        W72983   3.197  20.036  17.828 -0.0334 -0.2125  0.0372
29993W        W72984  28.671  28.291  20.324 -0.0508  0.0346  0.2049
29994W        W72985   4.750   1.288  24.337  0.1547  0.1592 -0.3638
29995W        W72986  13.878   0.813  23.081 -0.2724 -0.1499  0.1286
29996W        W72987  34.226  29.040   2.539  0.0466  0.2085 -0.0020
29997W        W72988  26.989  15.431  16.876 -0.2545  0.0256 -0.1050
29998W        W72989   6.662  26.714   9.934  0.1208  0.0174  0.2243
29999W        W72990   7.191  32.188  25.641  0.0450  0.1624 -0.0310
30000W        W72991  17.563   0.518  23.687 -0.0717  0.3261  0.1415
30001W        W72992  10.853   1.973   2.358 -0.3219 -0.0941 -0.1837
30002W        W72993   5.711  30.714   3.664 -0.1083  0.1960  0.1592
30003W        W72994  10.212   0.098  24.042  0.4009 -0.2741 -0.0926
30004W        W72995   6.058   3.593  26.998  0.2717 -0.2595 -0.1143
30005W        W72996  25.800   8.550  23.744  0.4215  0.2888 -0.3302
30006W        W72997   7.034  16.665  21.991  0.2913  0.0459  0.0703
30007W        W72998   9.917  19.695  20.396 -0.2041 -0.2055  0.2629
30008W        W72999  27.944  29.594  29.184 -0.0246  0.1599 -0.1472
30009W        W73000  33.329  18.780   4.561 -0.1139  0.3005 -0.0567
30010W        W73001   7.573   5.860  24.627  0.1649  0.0042 -0.1151
30011W        W73002   0.497  21.606  20.543 -0.3180 -0.3417 -0.2067
30012W        W73003   2.997   2.689  20.434 -0.2724 -0.0062 -0.2930
30013W        W73004  10.573  24.708   7.771 -0.2336  0.0419  0.0225
30014W        W73005   4.587  25.744  15.255 -0.0096  0.0972 -0.0448
30015W        W73006   1.632  32.009  18.089 -0.1921 -0.1465 -0.1286
30016W        W73007  23.260  20.928  13.743 -0.1187  0.2579  0.0625
30017W        W73008   8.759  24.621  20.944 -0.0133  0.5157  0.2036
30018W        W73009  14.274  27.366  21.181  0.3220  0.1216 -0.1647
30019W        W73010   8.691  19.697  22.484  0.3162 -0.3522 -0.1400
30020W        W73011  17.695  14.624  14.468  0.3090  0.0817 -0.0483
30021W        W73012  10.623  19.914  17.234  0.2648 -0.0982  0.0523
30022W        W73013  11.876   4.142   1.337 -0.0890 -0.0033 -0.0026
30023W        W73014   6.223  20.119  25.755 -0.1372  0.2798 -0.0095
30024W        W73015   1.204  19.412  18.756 -0.1229 -0.1529  0.0724
30025W        W73016  26.117  14.247  24.343 -0.0026 -0.0998 -0.0787
30026W        W73017   2.813  14.712  24.253  0.1722  0.0931 -0.1536
30027W        W73018   8.949  29.257  20.243 -0.0296  0.1446  0.0759
30028W        W73019   1.278  22.188  27.782 -0.0214 -0.2394 -0.0585
30029W        W73020   2.019  16.879  26.618 -0.1509 -0.0908 -0.0129
30030W        W73021  11.265  25.273   9.264 -0.2064 -0.0162 -0.2458
30031W        W73022  22.697  24.667   1.979  0.4776  0.2509  0.2057
30032W        W73023   3.625  31.632  18.988 -0.0474  0.0624 -0.0025
30033W        W73024   2.590  14.557  17.097  0.2319  0.0186 -0.4004
30034W        W73025   0.609   8.194  16.355 -0.1436  0.1592 -0.0809
30035W        W73026   0.044  34.555  26.436 -0.0087  0.0386  0.1127
30036W        W73027   1.351  33.411  22.721 -0.2368  0.1186  0.0409
30037W        W73028  10.924  30.645  22.022 -0.1238  0.0193 -0.1227
30038W        W73029  12.243  24.163   2.271  0.3020  0.2536 -0.0634
30039W        W73030  25.800   4.065  21.333 -0.0187  0.0903 -0.1559
30040W        W73031   3.962   9.291  19.988  0.0655  0.0641 -0.1612
30041W        W73032  30.484   3.901  28.183 -0.0553  0.2655  0.0294
30042W        W73033  34.533  18.134  16.294 -0.3069  0.1926 -0.2872
30043W        W73034  13.682  31.735  16.428 -0.1107 -0.0824 -0.2775
30044W        W73035  24.527  25.460  15.584 -0.2838 -0.0331 -0.4917
30045W        W73036  16.471  34.465  23.641  0.0219 -0.1327 -0.0798
30046W        W73037   6.356  22.506  23.491  0.0363 -0.0612  0.0958
30047W        W73038   4.977  22.571  14.527 -0.0292 -0.5409 -0.0031
30048W        W73039  19.947  22.450  13.055 -0.0387  0.2028 -0.0394
30049W        W73040   4.954  12.606   4.000  0.3892  0.2767  0.1892
30050W        W73041   3.278  24.750  28.260  0.3119  0.0955 -0.1023
30051W        W73042  29.002   9.426  15.988 -0.2134  0.2392 -0.0782
30052W        W73043  18.193  11.086   2.301 -0.1222  0.1515 -0.0197
30053W        W73044   0.937  32.474  23.805 -0.1962  0.1452  0.0198
30054W        W73045   3.723  11.163  19.276  0.1236 -0.2559  0.0639
30055W        W73046  31.941  25.530  22.746 -0.1405 -0.0863 -0.1150
30056W        W73047  14.527  25.455  16.048  0.2378  0.0639  0.2398
30057W        W73048  34.061  30.927  18.339  0.1126 -0.3382 -0.0117
30058W        W73049   8.813  19.409  20.321 -0.0560  0.1060  0.1165
30059W        W73050  15.064  14.808  17.947  0.0795  0.0612  0.0642
30060W        W73051   0.037  30.500  22.862 -0.1098 -0.1953  0.2264
30061W        W73052  30.800  30.272   6.019 -0.1220  0.1154 -0.1694
30062W        W73053   4.421  33.903  16.858 -0.0990 -0.2028  0.0172
30063W        W73054  10.344  12.169  21.531 -0.1751  0.0765  0.2011
30064W        W73055  11.154   6.697  23.193  0.2343  0.0623  0.0863
30065W        W73056  30.746  34.379  28.487  0.0462  0.2389  0.2096
30066W        W73057  29.560  31.112  22.925 -0.0664 -0.0198  0.0490
30067W        W73058   2.050  32.866  25.740  0.0983  0.1250  0.0874
30068W        W73059  18.138  27.710  17.689  0.2626 -0.4979  0.0761
30069W        W73060  16.188   1.714  28.078  0.0084 -0.0540 -0.0856
30070W        W73061   3.115  29.591  22.412  0.1388 -0.0105  0.0953
30071W        W73062   0.519  26.384   1.785 -0.0961  0.1511 -0.0547
30072W        W73063  17.619   5.616  22.736  0.0845  0.0493  0.2622
30073W        W73064  31.181  23.529  16.973  0.2090  0.2389  0.0805
30074W        W73065  11.458   6.989  22.378 -0.2199  0.0767 -0.0657
30075W        W73066  23.643  25.668  15.070  0.0781 -0.1709  0.1830
30076W        W73067  23.302  30.765  13.707  0.1033  0.0051 -0.2932
30077W        W73068  26.736  21.093  28.086 -0.0438  0.0191 -0.0806
30078W        W73069  33.429  28.638  19.187 -0.0143 -0.0036  0.3812
30079W        W73070   4.045  14.599  22.894 -0.0406  0.2348  0.0228
30080W        W73071   0.009  30.470  20.087 -0.1190  0.4506  0.0947
30081W        W73072  19.406  27.380  14.956  0.3204  0.1752  0.0642
30082W        W73073   2.901  31.759  16.956  0.3756 -0.1493 -0.0708
30083W        W73074   2.763  33.218  16.112  0.0040  0.2184 -0.3578
30084W        W73075   1.616  10.538  16.805  0.0045  0.4331 -0.0434
30085W        W73076   4.001   1.771  15.910  0.3040  0.1152 -0.1149
30086W        W73077  16.391  22.078  15.845 -0.0623 -0.2507  0.2218
30087W        W73078  32.672  30.513  26.038  0.1645 -0.1288  0.2250
30088W        W73079  34.194   7.613  15.697 -0.3779 -0.0514 -0.0278
30089W        W73080  31.176  17.975  23.346  0.0898  0.1263  0.1383
30090W        W73081   1.556  22.014  18.400  0.0920  0.0767  0.1232
30091W        W73082  23.940  16.238  23.745 -0.1029 -0.1113  0.1090
30092W        W73083  34.638   3.998  27.337  0.0946  0.2444 -0.2227
30093W        W73084  10.315   3.630  24.598  0.4086 -0.0579  0.0580
30094W        W73085  30.578  15.674  17.939 -0.1475  0.0115  0.0773
30095W        W73086  12.784  25.097   6.251  0.0419 -0.1588 -0.1296
30096W        W73087   9.899  33.877  16.317  0.3030 -0.0661  0.2223
30097W        W73088   1.155  28.578  28.378 -0.3467  0.0629 -0.0914
30098W        W73089   8.186  33.162  22.603  0.0130 -0.3913  0.0069
30099W        W73090  10.902  34.673   1.060 -0.0664 -0.2777 -0.0308
30100W        W73091   8.158  21.110  19.734  0.0376  0.0168 -0.0694
30101W        W73092  19.838  29.041  28.070 -0.3637  0.2224 -0.2931
30102W        W73093  27.054  14.110   0.840 -0.0655 -0.1246  0.0971
30103W        W73094   6.189   4.502  26.758  0.1705 -0.0791 -0.0595
30104W        W73095  13.216  17.363  21.686 -0.1458  0.2321  0.0972
30105W        W73096   3.780   9.298  19.025  0.2824 -0.0792  0.0178
30106W        W73097   1.235  22.260  26.748 -0.1848  0.1113 -0.1905
30107W        W73098   3.201  30.556  25.571  0.2213  0.1294  0.3879
30108W        W73099   3.901  29.527  17.084 -0.2173 -0.1500 -0.1104
30109W        W73100   9.441  28.510  20.017  0.1107 -0.1874  0.1428
30110W        W73101   7.290   6.935  14.817 -0.1962 -0.1960  0.1506
30111W        W73102   5.428  16.152  16.337  0.2100  0.0396 -0.3389
30112W        W73103   5.437  30.005   9.738 -0.1625  0.0332  0.2829
30113W        W73104  33.270   2.422  20.036 -0.0252  0.0946 -0.0266
30114W        W73105  13.784  21.868  22.133  0.0023  0.2292  0.0573
30115W        W73106  10.499   1.291   4.400 -0.0763  0.1125  0.0531
30116W        W73107  22.091   0.455  18.957 -0.0545  0.0562  0.2872
30117W        W73108  31.535  28.991  14.595  0.2809  0.1834 -0.5224
30118W        W73109  23.992  18.283  16.981  0.1539 -0.0241 -0.0665
30119W        W73110   6.752  28.947  15.958 -0.2213  0.2345 -0.1094
30120W        W73111   4.463  20.843  16.683  0.0877  0.1583  0.0167
30121W        W73112  32.232  20.406  27.601 -0.0278  0.3693  0.2191
30122W        W73113  17.815  33.177  24.110 -0.0121 -0.0794  0.1164
30123W        W73114   0.827  24.059  21.304  0.3175 -0.3423 -0.1801
30124W        W73115  25.236  20.394  22.298  0.2253 -0.1670 -0.3468
30125W        W73116  10.203  29.481  18.500 -0.1458  0.2846  0.0385
30126W        W73117  33.093  28.147  18.252  0.0769 -0.1535  0.1257
30127W        W73118  33.695  22.342  14.695  0.2173 -0.0379  0.2146
30128W        W73119  22.397  32.503  23.104  0.0831  0.1529  0.3080
30129W        W73120   1.429  18.266  28.237  0.0752  0.0874  0.1095
30130W        W73121  12.953  22.348   1.583  0.0977  0.0851  0.4565
30131W        W73122   2.616  18.598   0.970  0.0384  0.0498 -0.3957
30132W        W73123  34.181   3.747  23.701 -0.0571  0.2683 -0.0250
30133W        W73124   5.734  25.685  20.024  0.6999 -0.2169 -0.2877
30134W        W73125   5.262  25.309  17.932  0.3287 -0.0755 -0.0045
30135W        W73126   0.230  26.932  21.709 -0.0742  0.0658  0.0356
30136W        W73127  30.488  10.138  27.775  0.1832  0.0159 -0.1066
30137W        W73128   9.710  19.741  16.604 -0.1316  0.2524 -0.1482
30138W        W73129   3.456   2.030  25.854  0.0117  0.0709  0.4286
30139W        W73130  16.859  20.105  14.445 -0.1111 -0.1281  0.1315
30140W        W73131  25.993  25.660  23.015  0.1847 -0.3759 -0.1370
30141W        W73132  15.804  25.775  25.248  0.0112  0.1838  0.1588
30142W        W73133  22.987  21.170  14.233 -0.2225  0.2648 -0.1134
30143W        W73134   9.054  12.109  19.312 -0.0057  0.3320  0.4138
30144W        W73135  18.778  20.117  15.065 -0.2362  0.1447  0.0547
30145W        W73136   3.358  31.908   8.843 -0.0501  0.5011  0.3776
30146W        W73137  13.194  34.419  17.283  0.3824  0.0103  0.0738
30147W        W73138   0.196  26.370  19.207 -0.1017  0.2297  0.0898
30148W        W73139   0.671   2.295  19.589 -0.0585  0.0362  0.0682
30149W        W73140   2.432  15.373  26.751  0.1762 -0.0798  0.2763
30150W        W73141   5.518  21.894  15.392  0.0678 -0.3682  0.0841
30151W        W73142  19.100   1.624  15.003  0.2401  0.1447 -0.0842
30152W        W73143   7.631  20.930   5.420  0.1113  0.0119 -0.3005
30153W        W73144  21.731  30.689  23.692  0.3725  0.2130 -0.0566
30154W        W73145  29.702   2.636  17.580  0.1205  0.2033 -0.0866
30155W        W73146  10.874  30.826  28.102  0.1969  0.1337  0.0883
30156W        W73147  19.008   5.770  18.345 -0.1569  0.1408 -0.1009
30157W        W73148   8.215  28.064  20.655 -0.2051 -0.1882  0.2083
30158W        W73149  20.033  29.046  16.436 -0.0457  0.1219  0.1198
30159W        W73150  19.185   3.171  28.477 -0.0289 -0.1437  0.2741
30160W        W73151   5.278  21.455  18.622  0.3371  0.1181  0.2057
30161W        W73152   8.042   9.814  17.102 -0.1601  0.0619 -0.2932
30162W        W73153   8.292  18.765  18.044  0.3145 -0.0746  0.1608
30163W        W73154   4.346  22.090  14.728 -0.3436 -0.2228  0.0632
30164W        W73155  10.957  21.079  16.859  0.0392  0.1696  0.1357
30165W        W73156  32.111  17.057  14.901  0.1265 -0.0738 -0.1017
30166W        W73157   9.960  14.662  17.286 -0.0409  0.0560 -0.2009
30167W        W73158  30.565  24.905  18.044 -0.0042 -0.2082 -0.1719
30168W        W73159   6.405  33.954  16.553 -0.0953 -0.0687 -0.1873
30169W        W73160  31.837  18.091  18.963 -0.0270 -0.2492 -0.0177
30170W        W73161   0.253   2.613  22.486 -0.1978  0.0590 -0.1033
30171W        W73162   1.942   0.511  18.147 -0.3394  0.4749  0.0773
30172W        W73163   6.362  26.322  17.500  0.0862 -0.0328  0.2181
30173W        W73164  17.825  24.162   1.326  0.0494 -0.0645 -0.1068
30174W        W73165   4.167  18.567  19.831 -0.1769  0.0331  0.0857
30175W        W73166   2.710  28.364  22.755 -0.2802  0.1985  0.2594
30176W        W73167   7.892  33.539  18.257  0.3486 -0.0960 -0.1393
30177W        W73168  29.692  24.320  26.199  0.2090  0.1510 -0.0660
30178W        W73169  17.687  26.065  18.834  0.0351 -0.0151 -0.0806
30179W        W73170  31.907  14.756  22.921  0.3437 -0.1631 -0.0389
30180W        W73171  29.406  10.952  18.237  0.2216 -0.0557  0.2208
30181W        W73172   6.110  33.356  14.867  0.3100 -0.4436 -0.0291
30182W        W73173   4.994   3.361  14.829  0.2389  0.0225  0.0347
30183W        W73174  12.916  26.530  22.181  0.0114  0.2072 -0.1836
30184W        W73175   9.844  32.693  15.592 -0.1245  0.0445  0.2669
30185W        W73176   7.631   3.671  20.978 -0.0535 -0.2911  0.0425
30186W        W73177   3.125  31.861  18.105  0.1603  0.0825 -0.0757
30187W        W73178  24.128  19.261  16.812 -0.0534 -0.2669 -0.0114
30188W        W73179   2.533  12.360  22.438 -0.0023 -0.1053  0.0682
30189W        W73180  21.232  13.044  28.325  0.0018  0.1105  0.1276
30190W        W73181   0.799  29.612  22.190 -0.0829 -0.2913  0.3910
30191W        W73182   3.826  24.340  15.316  0.2338  0.2241 -0.7076
30192W        W73183   8.319  27.987  15.650  0.0369  0.0426  0.0214
30193W        W73184   2.077  17.079  23.817  0.0251  0.2050 -0.2741
30194W        W73185  13.332  14.928  20.986 -0.1127 -0.0979 -0.1415
30195W        W73186   5.650  16.569  25.356  0.1142  0.0586 -0.0127
30196W        W73187  14.226  27.104  16.846  0.2106  0.3453  0.2429
30197W        W73188   4.096  25.911   7.777 -0.2003 -0.1799 -0.0760
30198W        W73189   5.436   6.823  25.043  0.2638 -0.2700  0.2870
30199W        W73190  14.152  25.168   2.956 -0.1099 -0.1591 -0.0870
30200W        W73191  29.492  33.934  17.503  0.2685 -0.2873 -0.0793
30201W        W73192  18.732  24.861  20.837  0.0013  0.0321 -0.2080
30202W        W73193   1.266  26.683  27.871 -0.3365  0.2795 -0.0099
30203W        W73194   7.333  14.603  21.386 -0.0229  0.0155 -0.2555
30204W        W73195   1.228   5.637  20.763 -0.0111 -0.0085  0.0791
30205W        W73196  34.523  24.399  18.631 -0.1366  0.1124  0.2035
30206W        W73197  20.514  31.696  17.431  0.2130  0.0395 -0.2584
30207W        W73198   6.191  12.685  26.296 -0.4707 -0.2159 -0.0648
30208W        W73199   8.168  21.877  18.284  0.4960  0.0511  0.2140
30209W        W73200  34.360  11.520  21.276 -0.0417 -0.1064 -0.2497
30210W        W73201  34.640  16.450  29.183 -0.1571  0.2544  0.1666
30211W        W73202  32.729  25.369  20.058 -0.0866  0.0277  0.1117
30212W        W73203  10.282   3.061  16.680 -0.1156  0.2577  0.0161
30213W        W73204   6.104  33.656  16.871 -0.2379 -0.1198 -0.1332
30214W        W73205  25.561  19.654  20.952  0.0143  0.0215 -0.1502
30215W        W73206   2.115  34.787  22.102  0.1995  0.0939 -0.0398
30216W        W73207  17.907   5.013  18.609 -0.0005  0.3197  0.0152
30217W        W73208   7.241   8.316  29.212 -0.0749  0.1328 -0.1751
30218W        W73209  10.390  22.956  27.962  0.2047  0.0502 -0.0524
30219W        W73210  13.217  31.280  23.537  0.0494  0.2719 -0.0020
30220W        W73211  16.796  29.911   0.211 -0.4459 -0.1414 -0.2330
30221W        W73212  14.921  31.617  27.057 -0.0875 -0.3358 -0.1476
30222W        W73213   2.413   0.645  22.685  0.1382  0.1839 -0.0977
30223W        W73214   1.117  28.960  23.831  0.1205  0.1095 -0.0349
30224W        W73215  15.062  30.048  15.738 -0.4626 -0.0190 -0.0178
30225W        W73216  14.437   7.823   7.442  0.0350  0.2687 -0.4496
30226W        W73217  23.107  20.791  14.871  0.3031 -0.1091  0.2658
30227W        W73218  33.603  31.644  21.936  0.4187 -0.0170  0.1954
30228W        W73219  11.136  29.888   2.620  0.1564 -0.0559 -0.0271
30229W        W73220  11.907  31.797   1.848 -0.0760  0.0769 -0.2007
30230W        W73221   7.755  10.141   4.497  0.1256 -0.2180 -0.2958
30231W        W73222  23.616   4.361  24.288  0.0263  0.0360 -0.1469
30232W        W73223   0.957  32.360  15.047 -0.0312  0.0495  0.3242
30233W        W73224  22.664  12.620  25.957 -0.2530  0.1213  0.1643
30234W        W73225   2.181  16.825  21.629  0.2270  0.1654 -0.2546
30235W        W73226  19.312  28.122  28.406 -0.1532  0.0936  0.0781
30236W        W73227  24.405   9.296  21.562  0.0791  0.0257 -0.2026
30237W        W73228  14.666   1.231  20.921 -0.3138  0.2030 -0.2152
30238W        W73229   2.213  27.126  26.382 -0.1628 -0.0896 -0.4157
30239W        W73230  30.954   6.170  23.688 -0.4255  0.2999 -0.0417
30240W        W73231  20.966  32.538  17.192 -0.1172 -0.1525 -0.1604
30241W        W73232  19.051  13.461  25.040  0.0550  0.4011 -0.0439
30242W        W73233  14.203  27.205   1.817  0.0920  0.1701 -0.0435
30243W        W73234  21.909   7.317  13.778  0.0021  0.3224 -0.1006
30244W        W73235  25.781  10.396  16.805  0.2441 -0.0418 -0.1586
30245W        W73236  21.109   1.662   3.835  0.0736 -0.2305 -0.2103
30246W        W73237  12.151  33.031  21.902  0.2281 -0.1274 -0.1649
30247W        W73238   3.227  28.671  18.475  0.1618 -0.0700  0.0131
30248W        W73239  17.431  33.349  14.989 -0.0496 -0.4044  0.2497
30249W        W73240  15.493  28.907   2.475 -0.2833 -0.3905  0.2211
30250W        W73241   3.071  22.583  14.159  0.0423 -0.3432  0.1475
30251W        W73242   2.147  32.974  17.304 -0.2794  0.2850  0.0217
30252W        W73243  32.683  20.182  17.162 -0.1279 -0.0759 -0.0967
30253W        W73244  33.034  18.223   3.511  0.0891 -0.1395  0.0929
30254W        W73245   6.286  22.168  28.667  0.0536 -0.0413  0.0208
30255W        W73246  12.316  18.193  26.462 -0.2339  0.3092 -0.0643
30256W        W73247   4.921  27.812  21.800 -0.1146  0.1594  0.0072
30257W        W73248   8.798  30.442  17.887 -0.1132  0.0333  0.1112
30258W        W73249   4.555  26.676  14.465 -0.0085  0.0252  0.4496
30259W        W73250   4.323   6.731  20.413  0.2634 -0.0420  0.1645
30260W        W73251   0.919   5.709  15.517 -0.0540 -0.1791 -0.1891
30261W        W73252  32.586  21.212  24.209  0.2652 -0.2056 -0.1943
30262W        W73253  28.108   3.725  15.629 -0.2122 -0.0199 -0.0515
30263W        W73254  23.661  21.836  26.137 -0.3040  0.2693 -0.1884
30264W        W73255   1.228  19.806  22.477 -0.2475 -0.0410 -0.5552
30265W        W73256   1.730  16.590  26.254 -0.0923 -0.2365 -0.0313
30266W        W73257   8.132  18.090   3.463 -0.1057  0.2430  0.2156
30267W        W73258  10.918  29.537  15.136  0.1654 -0.1018 -0.2846
30268W        W73259   7.869  22.794  22.139  0.0324  0.0762  0.2575
30269W        W73260   3.599  12.814  26.707  0.3853 -0.0273  0.1912
30270W        W73261  16.294  19.843  14.382  0.0772 -0.4490 -0.0393
30271W        W73262   0.532   6.239   8.902 -0.5072  0.2078 -0.1823
30272W        W73263  23.597  32.470   4.946  0.2966 -0.0207 -0.0212
30273W        W73264   6.593  23.293  18.533  0.1859 -0.1108 -0.2940
30274W        W73265  26.328  21.455  17.677  0.3629 -0.1689  0.1423
30275W        W73266  13.485  21.754  14.530 -0.3301 -0.1379  0.0514
30276W        W73267  28.102  12.245  17.184 -0.0377 -0.1457  0.1376
30277W        W73268   8.862  17.785  16.972  0.0884  0.3476 -0.0706
30278W        W73269   4.993  21.178  17.245  0.2455  0.0166  0.6045
30279W        W73270  27.678  30.536  25.590 -0.0510  0.1669  0.1290
30280W        W73271  10.484   6.387  26.535  0.2914  0.0590  0.1061
30281W        W73272   3.727  20.826  27.259 -0.2575  0.1222 -0.1274
30282W        W73273   7.534  11.727  20.259 -0.1228  0.2750 -0.0969
30283W        W73274   0.570  18.208  21.580  0.2674  0.1376 -0.0969
30284W        W73275  27.201  25.563  23.314  0.0347  0.0349 -0.2723
30285W        W73276   9.034  17.296  21.815 -0.0716  0.0278  0.2655
30286W        W73277  34.762  21.076  28.815 -0.1202 -0.5187 -0.1355
30287W        W73278  21.081   8.247  27.850  0.0738 -0.0833  0.0198
30288W        W73279  13.876  28.120  28.077 -0.1626 -0.2543 -0.1430
30289W        W73280  32.923  16.124  28.697 -0.2442 -0.0011  0.0715
30290W        W73281  20.740  26.648  25.801  0.0544 -0.0225 -0.2601
30291W        W73282  14.864  27.889  24.448  0.0899 -0.0389 -0.0424
30292W        W73283  13.723  17.049   6.226 -0.0823 -0.3166  0.2931
30293W        W73284  34.266  14.868  20.577  0.0585 -0.1546  0.1599
30294W        W73285  27.161  18.135  17.223  0.1272  0.2007 -0.0367
30295W        W73286  26.251  16.319  26.938 -0.0922 -0.0709  0.0609
30296W        W73287   9.495  22.546  16.144  0.0297 -0.0366 -0.1996
30297W        W73288  28.146  23.665  26.287  0.1902 -0.0821 -0.0982
30298W        W73289  30.582  12.551  21.882 -0.3808  0.2714 -0.0126
30299W        W73290  13.997  18.578   0.908 -0.2094 -0.2166  0.0322
30300W        W73291  17.533   6.505  27.499 -0.1436  0.0951  0.1060
30301W        W73292   8.038   1.475  17.124  0.2530 -0.1576 -0.2008
30302W        W73293  10.591  19.009  14.291 -0.1923 -0.0051 -0.0434
30303W        W73294  21.232  33.549  25.365 -0.2801  0.3301 -0.3120
30304W        W73295   2.356  34.415  25.639 -0.1886 -0.0850  0.0687
30305W        W73296   8.178   9.089  19.384 -0.3169 -0.0679 -0.0544
30306W        W73297   4.350  19.375  26.130  0.0792  0.1635 -0.0170
30307W        W73298  23.576   4.660   6.462  0.0364  0.0119  0.5275
30308W        W73299  22.315  27.840  26.982 -0.0089 -0.1067  0.1431
30309W        W73300  14.118   9.980  18.184  0.1248  0.2515  0.2100
30310W        W73301  24.958  21.857  23.588 -0.0286  0.0249  0.1092
30311W        W73302   6.280  24.547  22.493 -0.2915 -0.2848  0.2902
30312W        W73303   4.782  23.895  24.174  0.0029  0.2828  0.1812
30313W        W73304   2.491  20.804  21.551 -0.1575  0.1559 -0.0355
30314W        W73305   7.277  20.177  27.729 -0.2662  0.0303  0.1187
30315W        W73306  15.906  26.957  22.147  0.0803 -0.3286  0.2229
30316W        W73307  12.333  18.874  18.229 -0.0966 -0.0007 -0.0161
30317W        W73308   1.408  23.037  27.872 -0.1070 -0.0753 -0.0370
30318W        W73309  16.824  25.279  22.575  0.0632 -0.0146  0.0845
30319W        W73310  25.788  29.387  22.042 -0.0124  0.1652 -0.1745
30320W        W73311   3.014   4.141  15.310  0.2768 -0.1386  0.3312
30321W        W73312  15.578  26.637  21.884  0.2497 -0.0930 -0.0698
30322W        W73313  26.299  28.661  17.458  0.1593 -0.2211 -0.1234
30323W        W73314  21.318  30.895   4.192 -0.4310 -0.0127  0.1020
30324W        W73315  32.764   0.523  15.999  0.0600 -0.1532  0.2285
30325W        W73316   3.265  31.195  13.652  0.0849 -0.1227 -0.3166
30326W        W73317   9.388   4.911  16.462 -0.2234  0.1412 -0.1988
30327W        W73318  10.507  11.192  17.132 -0.1509 -0.0611  0.1116
30328W        W73319   3.727   9.526   2.655  0.2244 -0.1922  0.1338
30329W        W73320   3.474  14.728  27.919  0.1728  0.2063 -0.3914
30330W        W73321  13.905  14.378  17.216  0.2625  0.0132 -0.0753
30331W        W73322   6.253  23.515  18.152  0.2704 -0.0445 -0.0601
30332W        W73323   9.344   9.942  21.804  0.1692  0.2994  0.2991
30333W        W73324  30.197  27.926  14.133  0.2523  0.0512 -0.1528
30334W        W73325  10.834  25.641   7.989 -0.1579  0.1431  0.0011
30335W        W73326   0.085  34.799  22.379  0.0818 -0.3248  0.0079
30336W        W73327  29.873   2.456  25.077 -0.1573 -0.0456 -0.1454
30337W        W73328  34.775  31.558  24.457 -0.0891 -0.0272 -0.2125
30338W        W73329  26.328  10.590  23.984 -0.0494 -0.2160  0.1655
30339W        W73330  13.501  11.132  16.538 -0.3398  0.0471  0.1485
30340W        W73331   0.861  26.335  16.745  0.0973 -0.2060 -0.1933
30341W        W73332   6.528  31.281  14.342  0.0832  0.0839  0.0354
30342W        W73333   2.948  25.600  14.967  0.1786 -0.0572  0.1523
30343W        W73334  19.895  17.085  13.352 -0.0103 -0.1250  0.0416
30344W        W73335   7.874  28.761  18.278  0.0344  0.0672  0.0204
30345W        W73336   5.221  31.331  15.947  0.2864  0.2957  0.0846
30346W        W73337   1.954   1.091   2.230  0.3621 -0.1411 -0.1861
30347W        W73338   7.123   0.835  27.288  0.1662  0.2253  0.3584
30348W        W73339   6.637  17.564  23.438 -0.0955  0.1354  0.1019
30349W        W73340  27.725  34.105   1.361  0.3266 -0.0046 -0.3703
30350W        W73341  10.818   4.884   2.638  0.0797  0.0572  0.1652
30351W        W73342  12.262  16.785   2.814  0.1138 -0.1602 -0.3987
30352W        W73343  22.368  30.969  17.439 -0.1863  0.3072 -0.2912
30353W        W73344   7.153  13.625  22.827  0.1306 -0.0137  0.1821
30354W        W73345   4.800  15.463  20.384  0.1175  0.1542  0.2692
30355W        W73346  33.062   0.397  17.562 -0.0240  0.1071  0.3222
30356W        W73347  21.650  16.688  21.422  0.0861 -0.1448  0.0405
30357W        W73348  14.384  29.849  24.700  0.1131 -0.0778  0.2671
30358W        W73349  31.121  33.904   4.597 -0.1010 -0.2045 -0.0176
30359W        W73350  25.076   1.631  13.850 -0.1156  0.0718  0.0038
30360W        W73351  19.272  12.920  16.977 -0.0974  0.3089 -0.1735
30361W        W73352   4.921  28.626  24.014  0.4206 -0.1335 -0.4591
30362W        W73353  25.001  30.983  18.796  0.1352  0.1218 -0.1131
30363W        W73354   1.685  22.546  14.641  0.0738  0.0552 -0.1715
30364W        W73355  19.515   8.707  16.956  0.0916  0.0051 -0.0341
30365W        W73356  12.141  22.539   1.000  0.1942 -0.2082 -0.2170
30366W        W73357  31.383  26.737  21.351 -0.2382  0.1996 -0.0777
30367W        W73358  10.657  23.823  23.254  0.0501 -0.0855  0.0030
30368W        W73359   9.850  29.985  22.890  0.1145  0.1127  0.1443
30369W        W73360   9.129   1.366  21.733  0.1827  0.1042  0.1014
30370W        W73361  15.846   4.414   2.039 -0.2071  0.0760 -0.0960
30371W        W73362  15.745  21.203  27.609 -0.2262 -0.2304 -0.0748
30372W        W73363  18.678  23.681  24.156 -0.0636  0.3064  0.1220
30373W        W73364  24.660   2.609  24.443 -0.0106  0.2127 -0.0930
30374W        W73365  34.427  22.510   0.779 -0.1489 -0.1284  0.0713
30375W        W73366  10.342  18.712  25.698  0.1077  0.1214 -0.2574
30376W        W73367   2.252  17.072  20.187 -0.1589  0.1112  0.2710
30377W        W73368  26.505   1.112  17.547 -0.2674 -0.2089 -0.2217
30378W        W73369  11.579  29.518  18.336 -0.5097 -0.5617 -0.3118
30379W        W73370  13.666   7.639  15.144 -0.0243  0.3405  0.0573
30380W        W73371  10.967   5.802  20.415 -0.0688  0.0939 -0.0703
30381W        W73372  10.433   8.310  22.100  0.1607 -0.3093 -0.2791
30382W        W73373  29.222  33.505  14.476 -0.3549  0.0802  0.2486
30383W        W73374   3.266  17.724   9.388 -0.1843  0.1446  0.1683
30384W        W73375   6.441  31.164  20.211  0.0032  0.1999 -0.1161
30385W        W73376   6.499  14.126  22.407  0.0527  0.2414  0.2051
30386W        W73377  14.663   7.892  22.707 -0.2066 -0.1399  0.2508
30387W        W73378   5.790  30.747  18.667 -0.0846 -0.0549 -0.0660
30388W        W73379  17.160  18.284  14.004  0.0811 -0.4792 -0.0988
30389W        W73380   0.577  32.699  13.712  0.0910  0.1437  0.0218
30390W        W73381  29.110  30.272  13.034  0.0858  0.1626  0.0746
30391W        W73382  28.081  20.185  20.495 -0.2910  0.3081  0.0067
30392W        W73383  16.241  30.894  20.731 -0.1769 -0.0929  0.2683
30393W        W73384   6.462  32.738  17.439  0.2977  0.4221 -0.0781
30394W        W73385  31.421  29.777  12.497  0.1909 -0.3413 -0.0722
30395W        W73386   7.837   8.228  25.218  0.1215  0.0723 -0.3708
30396W        W73387  25.348  29.444  20.189 -0.0344  0.2748 -0.2534
30397W        W73388  14.857  22.735  14.130 -0.2474 -0.1608  0.1507
30398W        W73389   1.942   9.036  25.911  0.2319 -0.0263  0.0351
30399W        W73390   2.383   0.024  17.416 -0.0040  0.1564 -0.1904
30400W        W73391  29.454  17.410  18.795 -0.1508 -0.0313 -0.0794
30401W        W73392  34.773   1.020  14.818 -0.4351 -0.1386  0.1330
30402W        W73393  25.002  33.111  28.860 -0.1265  0.2310 -0.1015
30403W        W73394  27.004  10.510  14.551 -0.0214  0.1928  0.2993
30404W        W73395   3.380  29.729  14.254  0.4256 -0.0646  0.0454
30405W        W73396  12.256  34.750  24.317 -0.0516 -0.0200  0.0171
30406W        W73397  30.724  16.423  15.592 -0.4378 -0.0026  0.0082
30407W        W73398   5.411  16.919  21.821 -0.0033 -0.2977  0.2852
30408W        W73399   5.626  24.917  13.560  0.0106  0.1078 -0.0864
30409W        W73400   5.829  26.816  18.676 -0.1892 -0.0682  0.0813
30410W        W73401   2.791  20.843  15.693  0.1580 -0.0034 -0.2783
30411W        W73402  21.500  31.693  27.915  0.2026 -0.3326 -0.3534
30412W        W73403  32.719  17.979  24.652  0.0734  0.0682  0.2631
30413W        W73404  14.694  31.242  26.833  0.2441  0.0873  0.2366
30414W        W73405  12.725  18.031  26.732  0.0982  0.4881  0.2054
30415W        W73406   5.784  32.310   3.285  0.1489 -0.0968 -0.0178
30416W        W73407  25.389  33.939  20.081  0.1875 -0.1390 -0.1196
30417W        W73408  24.164  22.308  17.489  0.1151 -0.2564  0.0859
30418W        W73409  14.937  16.759  28.839 -0.0230  0.0966 -0.1286
30419W        W73410   7.688  31.203   4.780  0.3762 -0.1372  0.0074
30420W        W73411  15.278  22.323  15.942  0.2540 -0.1068 -0.0391
30421W        W73412   4.404  29.811  28.855 -0.0480  0.1325  0.1267
30422W        W73413  18.602  22.907  13.894  0.2102 -0.1027 -0.1492
30423W        W73414  26.092  27.163   3.525  0.2358 -0.2904 -0.2061
30424W        W73415  33.115  13.105  26.717  0.1742  0.0234  0.2527
30425W        W73416   9.479   4.787  28.937  0.0389 -0.0130  0.2397
30426W        W73417  27.183  17.494  23.035  0.0578 -0.2812 -0.0612
30427W        W73418  16.662  27.839   9.340  0.1328 -0.2345  0.3626
30428W        W73419  22.902  24.288  13.703 -0.0810  0.0605  0.0881
30429W        W73420   5.489  15.288  21.389 -0.1225 -0.0055 -0.0499
30430W        W73421   9.395   8.543  19.608  0.2278 -0.4714 -0.1024
30431W        W73422  21.530  25.116  12.937  0.1509  0.0342  0.0806
30432W        W73423   1.093   9.874   0.962  0.0774 -0.3080  0.0293
30433W        W73424  11.307   6.548   0.633  0.2270  0.0764 -0.2433
30434W        W73425  27.185  14.420   7.112  0.0438  0.0246 -0.1977
30435W        W73426  34.427  30.993  25.479 -0.1336  0.3073  0.0270
30436W        W73427  27.782  15.477  18.066  0.0216 -0.4266 -0.0669
30437W        W73428  29.653   8.378  18.123 -0.2764 -0.2006 -0.5416
30438W        W73429  11.218  17.690  27.298  0.0506 -0.0422 -0.1789
30439W        W73430   5.943  30.153  26.029  0.2500  0.3124  0.1536
30440W        W73431   8.054  23.654  23.174  0.1284  0.0243  0.2187
30441W        W73432   9.057  26.714   1.135 -0.0253 -0.1747  0.1480
30442W        W73433  28.738  11.974  20.212  0.3317  0.1214 -0.2343
30443W        W73434  26.159  29.373  14.889 -0.2466  0.1831 -0.1204
30444W        W73435   2.585   4.885   7.377 -0.3724 -0.0745  0.3677
30445W        W73436  20.955   8.760  20.306 -0.2697 -0.2413  0.0469
30446W        W73437   2.464   4.931  21.121  0.2964 -0.3788 -0.4002
30447W        W73438  18.389  25.986  23.528 -0.2456  0.1089 -0.1029
30448W        W73439   6.272   3.705  14.735  0.0884  0.1223 -0.0601
30449W        W73440   3.292  23.674  22.398  0.2281  0.0925 -0.1034
30450W        W73441  15.166  13.985  26.503  0.3861  0.1882  0.0358
30451W        W73442   2.113  19.743  17.166 -0.1260 -0.3760 -0.0293
30452W        W73443   6.078  19.200  20.433 -0.0104 -0.0208  0.1604
30453W        W73444   9.426  28.134  23.052 -0.0002  0.2347  0.0268
30454W        W73445   8.045   4.383  25.588 -0.3086  0.0393 -0.2271
30455W        W73446  17.728  22.795  25.811 -0.3878 -0.1353  0.1167
30456W        W73447  13.814   1.728   7.528 -0.4018 -0.1097 -0.1017
30457W        W73448   2.983  28.353  27.557 -0.1180 -0.2659  0.0021
30458W        W73449  33.178  28.973   4.970 -0.0717  0.2713  0.0428
30459W        W73450  33.900   0.955  19.724  0.1025 -0.3623 -0.1065
30460W        W73451  30.727  11.818  23.105  0.2611  0.0471 -0.0673
30461W        W73452  15.485  27.590  24.764  0.0011  0.0241 -0.4017
30462W        W73453  25.279  33.408  23.506 -0.0567 -0.2954  0.2239
30463W        W73454  34.030  19.135  25.799  0.1818 -0.1496 -0.3684
30464W        W73455   4.583  32.154  17.395  0.1805  0.0043 -0.0538
30465W        W73456  12.054  27.118  27.060 -0.2072 -0.0566  0.0282
30466W        W73457  14.132  31.190  22.200  0.2512 -0.3408  0.0122
30467W        W73458   5.247  19.276  20.052 -0.0111 -0.0697 -0.0205
30468W        W73459  14.376  34.592  19.689 -0.1528 -0.3578 -0.2099
30469W        W73460  22.188   6.273  15.945  0.1871  0.1150 -0.1785
30470W        W73461  20.389  18.348  23.904 -0.3948 -0.0204  0.0149
30471W        W73462  22.832  20.905   6.866 -0.1041  0.2428 -0.0657
30472W        W73463  17.200  26.026   6.903 -0.0467  0.0802 -0.1570
30473W        W73464   9.998  23.133  16.909  0.2796  0.1189 -0.0773
30474W        W73465  32.637  21.758  24.179 -0.1591  0.1228  0.1874
30475W        W73466   0.810  31.215  28.738  0.0187  0.2935 -0.0463
30476W        W73467   0.930  32.416   2.472  0.2293 -0.0544 -0.0441
30477W        W73468   7.295  21.851  16.072 -0.1387 -0.1617  0.0826
30478W        W73469  22.096  22.444   6.588 -0.0583 -0.1187 -0.1474
30479W        W73470  18.016  26.202  17.152  0.3007  0.0924  0.1096
30480W        W73471  34.098  19.123  27.118  0.3241  0.2400 -0.0052
30481W        W73472   7.728  34.151  22.699  0.0061 -0.1467  0.3818
30482W        W73473  22.224  28.340  28.475 -0.1162 -0.1850  0.0776
30483W        W73474  24.299   7.305  15.838  0.0552 -0.1093  0.0733
30484W        W73475  32.826  10.753  25.886  0.0600  0.2163  0.1638
30485W        W73476   2.214  16.583  16.209  0.2596  0.3369  0.1946
30486W        W73477  32.237  14.118  26.150 -0.0644  0.2836  0.1196
30487W        W73478  12.115  33.579  14.736 -0.0231  0.0078  0.1129
30488W        W73479  30.131  34.449   0.896 -0.3189  0.2447 -0.0886
30489W        W73480  34.709   2.910  21.513  0.0661  0.0077  0.2372
30490W        W73481   3.098  21.241  20.008 -0.0341  0.0672 -0.2408
30491W        W73482  16.140  16.255   9.139 -0.1587  0.0750 -0.3016
30492W        W73483   4.060  22.183  16.191  0.0244  0.4661 -0.1312
30493W        W73484   5.932   9.777   2.699  0.1184  0.0411  0.0013
30494W        W73485  13.428  30.277  16.812  0.3780  0.1256 -0.0154
30495W        W73486  25.403  20.562  16.104  0.1078  0.0572 -0.0054
30496W        W73487  10.479  28.422  28.545  0.0405 -0.2086  0.4481
30497W        W73488  13.217  31.197  14.974  0.0549  0.1982 -0.0588
30498W        W73489  34.527  14.190  26.321 -0.2683  0.0679 -0.0427
30499W        W73490  29.691  30.393   2.100  0.1357 -0.3280  0.3262
30500W        W73491  32.226  26.081  14.997 -0.1545 -0.3028 -0.0200
30501W        W73492  32.249  33.697  14.226 -0.0301  0.0699 -0.2320
30502W        W73493   2.874  12.160  19.112 -0.3271 -0.0728  0.1270
30503W        W73494   9.852  16.172  18.800  0.1923  0.0701  0.1202
30504W        W73495   3.624  21.029  16.734  0.2263  0.0156  0.3531
30505W        W73496   9.361   5.779  21.413 -0.0172 -0.4138 -0.1551
30506W        W73497  20.328  30.638  16.394  0.0868 -0.1999  0.1864
30507W        W73498  31.737  27.291  23.646 -0.2529 -0.2472 -0.0024
30508W        W73499   1.399   2.531  14.938  0.1353 -0.1308  0.0387
30509W        W73500   8.583  26.357  13.588  0.2413 -0.0633 -0.1036
30510W        W73501  10.762  14.478  16.545 -0.1117 -0.0561  0.3129
30511W        W73502  31.776  28.773  28.810  0.0589 -0.0807  0.4001
30512W        W73503   3.618  22.472  28.896  0.2859  0.0185  0.2379
30513W        W73504  18.336  21.495  19.465  0.2953  0.0980  0.0252
30514W        W73505  19.380  26.090  16.953  0.3446  0.1654 -0.0323
30515W        W73506  23.010  25.760  21.157 -0.0484  0.2302 -0.1515
30516W        W73507   7.436  29.324  19.672  0.0043  0.1391  0.0794
30517W        W73508  13.144  29.415  23.491 -0.1382  0.0939 -0.2891
30518W        W73509  32.794  18.816   9.474 -0.2114  0.0431 -0.1227
30519W        W73510  33.216  29.148  17.797 -0.1868  0.2446  0.1745
30520W        W73511   6.415  23.928  16.918  0.0509 -0.0342  0.0021
30521W        W73512  14.141  34.651  20.554 -0.0892  0.0081 -0.2990
30522W        W73513   5.249  16.215   2.911  0.2934 -0.2659 -0.2036
30523W        W73514  11.572   1.078  19.004 -0.0277 -0.1842  0.0931
30524W        W73515  15.614  20.914   7.388  0.4571  0.0268 -0.1499
30525W        W73516  21.489  27.138  18.296 -0.2607  0.0450  0.1487
30526W        W73517  34.665   9.728  27.309 -0.0082  0.1233  0.0239
30527W        W73518  29.221  26.659  25.791 -0.0127  0.2281  0.1011
30528W        W73519   6.567  21.423  16.080  0.0950 -0.0443  0.3418
30529W        W73520  17.683  23.439  18.559  0.0478  0.0366 -0.3798
30530W        W73521  18.581  27.845  15.277 -0.1180 -0.2345  0.1377
30531W        W73522  15.654   1.371  28.775  0.2539  0.1800  0.3634
30532W        W73523  14.269  30.974  21.793 -0.3334  0.1999 -0.0742
30533W        W73524  19.475  14.447  21.149 -0.0045  0.3252  0.2359
30534W        W73525  10.760   6.264  18.010 -0.1744  0.0681 -0.1351
30535W        W73526  28.416  31.787  19.204  0.0054  0.2850  0.1852
30536W        W73527  31.555  26.559  13.790  0.1409  0.0072 -0.2905
30537W        W73528   1.224  23.258   5.409 -0.0537  0.0978 -0.0549
30538W        W73529  33.964  24.437  22.436 -0.3139  0.1085  0.2478
30539W        W73530  32.705   3.640   5.116  0.0792  0.2680  0.0137
30540W        W73531  18.681   1.565  24.438 -0.3885 -0.1379 -0.0325
30541W        W73532   8.636  27.861  18.637  0.1653  0.0274 -0.0719
30542W        W73533   5.063  23.243  19.490 -0.4829 -0.1467 -0.0334
30543W        W73534   6.307  24.237  15.526 -0.1385  0.0952 -0.1235
30544W        W73535   9.520  15.229  28.118 -0.1389  0.0761  0.0270
30545W        W73536  14.579  13.588  13.050 -0.2746 -0.3200  0.1897
30546W        W73537  20.095  24.904  21.632  0.5433  0.2582  0.3966
30547W        W73538  29.016   4.705  19.822 -0.2692  0.0131  0.0290
30548W        W73539  10.068   3.310  17.036  0.1350  0.1364  0.1196
30549W        W73540   1.554  22.860  25.004  0.0748  0.0231  0.3611
30550W        W73541  27.169  20.323  28.414  0.1472  0.0199 -0.1210
30551W        W73542  15.942  26.223  15.607  0.0218  0.1829 -0.1155
30552W        W73543  22.383  20.299  12.528 -0.0175  0.1302 -0.0346
30553W        W73544   4.510  34.292  20.151  0.0770  0.0688 -0.2524
30554W        W73545   5.335  32.121  15.871 -0.0470  0.4697  0.0243
30555W        W73546  13.096  29.981  18.312  0.0425  0.0527  0.1427
30556W        W73547   5.198  15.854  26.175  0.3024 -0.2172 -0.1522
30557W        W73548  24.754  32.035  21.657  0.3288 -0.1825  0.1058
30558W        W73549  11.856  19.548  27.949  0.0668  0.3065 -0.0876
30559W        W73550   1.015  21.167  19.882  0.0459 -0.1550 -0.3472
30560W        W73551  20.524  26.193   6.864 -0.0231  0.2045  0.2102
30561W        W73552   9.589   9.393   9.647 -0.1369 -0.0763  0.0722
30562W        W73553   5.757  17.487  15.959  0.1821  0.3432 -0.1304
30563W        W73554   5.315  29.130  17.133  0.2575 -0.0546  0.1342
30564W        W73555   7.814   4.987   1.702  0.1930  0.0328  0.0197
30565W        W73556  13.474  33.495  18.580 -0.1518  0.0138  0.3025
30566W        W73557  13.916  20.962  21.469 -0.1345 -0.2539  0.3182
30567W        W73558   3.346  21.604  14.617  0.1217 -0.4262  0.0562
30568W        W73559  21.813  26.542   5.792  0.3016  0.0957 -0.3111
30569W        W73560  34.091  33.614  17.224 -0.0819 -0.0833  0.0032
30570W        W73561  28.485  17.717  16.444 -0.1030  0.3369 -0.2038
30571W        W73562   5.875  17.554  16.848  0.2658 -0.3592 -0.2786
30572W        W73563   3.882  13.076  26.407 -0.1622  0.0115 -0.1442
30573W        W73564  29.803  15.644  15.880 -0.0747  0.2756 -0.2892
30574W        W73565   4.250   0.966  22.819  0.0457  0.0704  0.2345
30575W        W73566  12.273  28.368  17.945  0.1226  0.1261  0.2654
30576W        W73567  34.003  18.090  18.984  0.0588  0.1812 -0.2201
30577W        W73568  30.981  20.636  16.832 -0.0190  0.0406 -0.1144
30578W        W73569  16.549  23.045  25.205  0.1353 -0.1641  0.2931
30579W        W73570   2.578  20.142  23.934  0.0746  0.0486 -0.0515
30580W        W73571   6.611   3.761  28.226  0.0995 -0.3080  0.0793
30581W        W73572  19.073   4.555  24.110  0.2800  0.1331  0.1380
30582W        W73573  15.103   3.929  23.158 -0.2787  0.1045  0.0434
30583W        W73574  21.553  16.707  14.283 -0.1343 -0.1686 -0.1607
30584W        W73575  13.444  26.523  20.739 -0.1537  0.0047 -0.3344
30585W        W73576  22.863   5.707  16.562  0.2244  0.0501  0.2302
30586W        W73577  10.367   5.166   2.313 -0.1304  0.0310 -0.2051
30587W        W73578  33.124  27.354  14.601  0.1660 -0.1637 -0.1806
30588W        W73579   4.308  20.508  19.684  0.0548 -0.0527 -0.1919
30589W        W73580  14.964  23.671  25.767 -0.0744  0.0870  0.0662
30590W        W73581  31.333  14.718  20.410 -0.3628  0.0727 -0.0263
30591W        W73582  14.986  11.816  17.674 -0.0340  0.0500 -0.1342
30592W        W73583  32.665  31.972   6.397 -0.0113  0.2026  0.1933
30593W        W73584   6.374  24.611  21.997 -0.0266 -0.2198  0.1213
30594W        W73585  12.046  17.620  17.107 -0.0504 -0.1986 -0.3762
30595W        W73586  10.212  31.084  26.001  0.0628 -0.0793 -0.1444
30596W        W73587   8.429   7.763  23.476  0.0372 -0.0556  0.1822
30597W        W73588   7.076  30.521  22.200 -0.1055  0.3296 -0.0102
30598W        W73589  18.541  30.609   1.784  0.1377  0.1823 -0.2424
30599W        W73590  32.224  17.544  22.188 -0.2454 -0.0899 -0.1620
30600W        W73591   6.699  12.509   4.805 -0.0049  0.1294 -0.1621
30601W        W73592  31.770  17.506  22.621 -0.0104 -0.1898 -0.0151
30602W        W73593   1.148  32.975  19.712 -0.1270 -0.2364 -0.2372
30603W        W73594  27.374   3.045  26.937  0.2245 -0.3594 -0.1156
30604W        W73595  21.100  23.215  15.016 -0.1443 -0.0194 -0.3758
30605W        W73596  11.142  31.884  15.425 -0.0168 -0.1688  0.0059
30606W        W73597   9.732  28.204   9.085  0.0538  0.0317 -0.1129
30607W        W73598  30.734  12.181  25.306 -0.0488  0.1004  0.0153
30608W        W73599  22.287  23.790  28.530  0.0201  0.2815 -0.0265
30609W        W73600  10.553  23.828  16.766  0.0110  0.0674  0.2762
30610W        W73601  32.470   2.471  13.641 -0.1336  0.1377 -0.2024
30611W        W73602  33.815  18.211   0.414 -0.0240 -0.0221 -0.4033
30612W        W73603  10.953  33.167  18.826 -0.0878  0.2164 -0.1684
30613W        W73604  25.744  27.512  29.092 -0.2937  0.1117  0.0817
30614W        W73605  14.730  27.699  19.714 -0.1080  0.0889  0.3166
30615W        W73606  26.435  22.274   3.995 -0.1597 -0.0477  0.0563
30616W        W73607   4.172  26.781  28.667 -0.0107 -0.1537  0.3021
30617W        W73608  19.936  29.372  16.090  0.0856 -0.3538  0.0420
30618W        W73609  32.882  20.158   4.850 -0.0566  0.1051  0.2501
30619W        W73610  31.649  32.152  14.524 -0.0890  0.2271  0.0467
30620W        W73611   6.063  14.737   4.678  0.2868 -0.0242 -0.4005
30621W        W73612   9.641  17.987  27.612 -0.1938 -0.0069 -0.4613
30622W        W73613   5.451  21.278  15.642  0.0908 -0.0660 -0.2844
30623W        W73614  31.375  17.443  26.459 -0.3471 -0.0320  0.1407
30624W        W73615  29.520  30.198  22.319  0.0175 -0.0606 -0.1959
30625W        W73616  32.444   5.048  26.891  0.1216  0.2364  0.1456
30626W        W73617  33.670  34.572  26.113  0.1307  0.0008 -0.1331
30627W        W73618  31.346  32.215  16.835 -0.3146  0.2552 -0.0586
30628W        W73619   8.716   0.496  26.169 -0.1874  0.2322  0.2058
30629W        W73620  28.520  14.044  15.051 -0.0183 -0.0775 -0.3089
30630W        W73621  21.578  23.370   7.340  0.0291  0.1132 -0.1841
30631W        W73622  34.008  22.366  19.651  0.1091  0.0712  0.3117
30632W        W73623  13.863   8.095  23.281  0.2175 -0.0603  0.0306
30633W        W73624  20.818  34.027  17.042  0.0255  0.2782  0.0150
30634W        W73625  14.580   0.527   4.529 -0.1731 -0.0797  0.2308
30635W        W73626  13.180   2.020  20.652  0.0230  0.2465  0.1248
30636W        W73627  31.371  16.276  20.168  0.0513  0.1700  0.2046
30637W        W73628  12.860  30.341  15.836  0.1486 -0.0392  0.1238
30638W        W73629  33.390  25.030  15.813  0.2595 -0.0406  0.0248
30639W        W73630  27.813  21.356  29.065  0.1279 -0.3576 -0.1660
30640W        W73631  16.822  26.096  25.088  0.1507 -0.1200  0.2444
30641W        W73632  15.161  23.801  24.785  0.3385  0.1841 -0.3633
30642W        W73633  17.072  11.904  17.877  0.2803 -0.0304 -0.2381
30643W        W73634  32.081  13.881  11.199  0.3945  0.1705  0.1760
30644W        W73635  34.319  19.875  15.550  0.0321 -0.0504  0.5112
30645W        W73636   5.127  28.418  18.770 -0.0079 -0.0393  0.0308
30646W        W73637   7.590  10.122  14.876 -0.0706 -0.2696  0.1294
30647W        W73638  16.573  32.798  20.973  0.1971 -0.1717 -0.1814
30648W        W73639   9.113   4.411  14.429  0.1526  0.2745  0.0358
30649W        W73640  30.006  29.728  28.163 -0.0174  0.2607 -0.1464
30650W        W73641  26.920   4.484   2.813 -0.0161 -0.0973  0.1372
30651W        W73642   3.583  22.422   6.189  0.1363 -0.1068  0.1725
30652W        W73643   1.033  18.692  17.869 -0.1279  0.2435  0.0944
30653W        W73644  34.367   2.909  16.699  0.2799  0.0996  0.4020
30654W        W73645  31.074  30.097  28.956  0.2205  0.0441  0.0656
30655W        W73646  11.744  28.724   5.725 -0.1018 -0.3975 -0.0771
30656W        W73647   9.251  23.150  17.383  0.1312 -0.0199  0.1273
30657W        W73648  22.809   7.622  17.149 -0.0813  0.2372 -0.1516
30658W        W73649  19.408   6.779   3.599 -0.0395 -0.1854 -0.1142
30659W        W73650   8.246  19.772   8.554 -0.2759 -0.1749  0.3129
30660W        W73651  30.112   1.991  16.426 -0.1134  0.2764  0.0027
30661W        W73652  10.220  19.205  22.851  0.1692  0.0241 -0.0237
30662W        W73653   2.073  15.872  25.614  0.2150 -0.0936  0.3843
30663W        W73654   1.685  22.721   2.941  0.0890  0.0959  0.1089
30664W        W73655   7.849  21.249  25.966 -0.2324 -0.0577  0.1338
30665W        W73656  34.264  27.058  20.152 -0.1458  0.0447 -0.0574
30666W        W73657  14.919  20.504   2.357 -0.5892  0.3394  0.2160
30667W        W73658  20.604  27.261   3.931  0.2832  0.0426  0.0615
30668W        W73659  23.301  21.696  22.727 -0.0454  0.2650 -0.0466
30669W        W73660  26.354  25.690   1.835  0.0192 -0.4644 -0.2866
30670W        W73661  34.330  29.640  16.720 -0.2846 -0.0535  0.0939
30671W        W73662  26.732  25.367  20.860 -0.2222  0.1208 -0.1073
30672W        W73663  23.259   0.127  14.482  0.3062  0.3938 -0.2137
30673W        W73664  24.597   1.514  18.648  0.2048 -0.0369 -0.1223
30674W        W73665   0.583  21.362   4.268  0.2702 -0.0983  0.2682
30675W        W73666  18.698   2.342  27.960 -0.0904 -0.1104  0.5414
30676W        W73667  34.243  16.461   6.401  0.4082  0.2946  0.1874
30677W        W73668  34.241   6.102  25.685 -0.3550 -0.0255 -0.2799
30678W        W73669  16.638   4.561  15.609 -0.0774  0.1510 -0.0466
30679W        W73670   8.072  32.221  26.399 -0.3650  0.1016  0.1351
30680W        W73671   8.942  33.596   6.450  0.0182  0.0756 -0.2440
30681W        W73672   6.007  28.485  15.463  0.0102  0.0483 -0.0482
30682W        W73673   8.709  20.413  20.010  0.1896 -0.1699 -0.0413
30683W        W73674   5.057  22.158  14.193  0.3838 -0.1759  0.0050
30684W        W73675  29.674  22.701  15.118  0.3040  0.0078 -0.0921
30685W        W73676  26.794  33.881  19.651 -0.0032 -0.2347 -0.1568
30686W        W73677   8.471  27.684  14.153 -0.3810 -0.1439 -0.0986
30687W        W73678   5.170  24.535  14.419 -0.0900 -0.1751 -0.1268
30688W        W73679   7.393  22.120  25.735 -0.1483  0.0754 -0.0125
30689W        W73680  34.054  31.939  14.618 -0.0843  0.0322 -0.2406
30690W        W73681  30.995  20.233  28.345  0.0041 -0.1849  0.0872
30691W        W73682  12.975   3.801  28.140 -0.3048 -0.0267  0.0460
30692W        W73683   0.443  19.283  15.256 -0.1210  0.0951  0.0333
30693W        W73684  34.668  24.915  18.303  0.0269 -0.0326  0.1490
30694W        W73685   6.949  17.081  17.917  0.1675 -0.3979 -0.1528
30695W        W73686   0.182  29.827  27.508  0.2235  0.2333 -0.2287
30696W        W73687   8.359  21.318  15.526  0.0026 -0.0105 -0.2757
30697W        W73688   1.064  34.096   1.886 -0.1059  0.3585 -0.1709
30698W        W73689   5.145  34.444  22.473  0.2812 -0.1438 -0.4474
30699W        W73690   8.826  13.882  26.199 -0.1815 -0.0210  0.0309
30700W        W73691   6.362  21.826   1.845  0.0370 -0.0422 -0.0816
30701W        W73692  31.141   2.507   0.204  0.3513 -0.1484  0.1784
30702W        W73693  15.902  21.513  29.025 -0.2539  0.1737 -0.0425
30703W        W73694   6.567  16.700   1.386  0.0747  0.0847 -0.0884
30704W        W73695   6.662  11.784   3.399 -0.0810  0.0201  0.1332
30705W        W73696  29.339  28.087  24.391 -0.0249  0.0478 -0.1359
30706W        W73697   5.134  28.666  29.029 -0.2565  0.1187  0.1923
30707W        W73698  13.783   0.127  15.586 -0.0395  0.0916  0.0783
30708W        W73699   5.902  17.369  20.529 -0.0107  0.2816 -0.2230
30709W        W73700  11.357   5.923   1.275  0.0872  0.0512 -0.4677
30710W        W73701   7.095  29.041  18.133 -0.3708  0.0841 -0.0947
30711W        W73702  15.721  12.149   5.023  0.1487 -0.3812  0.1404
30712W        W73703   3.806  16.903   7.197  0.2041 -0.2136 -0.4932
30713W        W73704  24.142  26.596  13.957 -0.3470 -0.0178  0.0787
30714W        W73705   6.388  22.258  15.333  0.1911  0.0921  0.0634
30715W        W73706  15.653  16.428   1.234  0.1621 -0.0990 -0.1814
30716W        W73707  15.728   6.581  22.290 -0.1827  0.0707  0.0436
30717W        W73708  23.723  10.385   4.955 -0.1546 -0.1317 -0.1013
30718W        W73709   1.611  25.209   1.528  0.1923 -0.0143 -0.1016
30719W        W73710   2.402  11.898  28.411 -0.3975  0.2020 -0.1331
30720W        W73711   7.056  31.041  26.006 -0.0025  0.0877 -0.1544
30721W        W73712   2.550  27.770  25.328  0.1051 -0.0039 -0.0068
30722W        W73713  18.904  15.999  26.107 -0.1125 -0.1608  0.2768
30723W        W73714   5.144  21.025  24.519  0.0765  0.0105  0.1550
30724W        W73715  32.072   1.504  16.906  0.3366 -0.1165  0.0992
30725W        W73716  33.510   7.657   0.519  0.1131 -0.1674  0.0932
30726W        W73717   5.463  27.156  22.208 -0.1446  0.0382 -0.0714
30727W        W73718  19.292  15.208   3.461 -0.0336 -0.0493  0.2088
30728W        W73719   9.865   9.558  15.676 -0.0936 -0.2989 -0.1125
30729W        W73720   8.134  22.587  18.986  0.3103  0.3049 -0.3537
30730W        W73721  31.389  20.983  24.564  0.0699 -0.0218 -0.3402
30731W        W73722  33.011  18.877  20.182 -0.0666 -0.0330  0.3808
30732W        W73723  21.910  28.395  25.504 -0.1462  0.0079 -0.0632
30733W        W73724  30.151  24.859  22.993 -0.1018 -0.3001  0.0126
30734W        W73725   0.161  14.287  27.905  0.0689  0.2163 -0.0758
30735W        W73726   2.760  23.211   3.740  0.0732 -0.3602 -0.0258
30736W        W73727   7.007  11.963   3.736  0.4904  0.0513  0.0738
30737W        W73728  23.611  24.395  21.839 -0.3152 -0.2390 -0.0215
30738W        W73729  31.936   6.128  18.549  0.1451  0.2439 -0.3045
30739W        W73730  14.961  23.911  25.344 -0.2346  0.0830 -0.0442
30740W        W73731   4.980  19.253  26.903 -0.1576 -0.0130  0.1796
30741W        W73732   2.964  14.788  27.436  0.4114 -0.1864  0.0079
30742W        W73733  29.494  21.351  27.701  0.4740 -0.0302  0.1845
30743W        W73734  22.613  22.483  18.337 -0.1274  0.1507 -0.2253
30744W        W73735  19.714  15.344  13.817 -0.0121 -0.0336  0.3244
30745W        W73736  16.545  17.758  16.085  0.2598  0.2475 -0.0490
30746W        W73737   7.706  12.991  16.092  0.3866  0.1456 -0.0955
30747W        W73738  23.118  19.016  26.709  0.0049  0.4978  0.3006
30748W        W73739  10.385  21.002  23.540 -0.0094  0.5313  0.2262
30749W        W73740  15.072   4.611   8.857 -0.2579  0.1860  0.4101
30750W        W73741  19.356  28.903  13.278  0.1856 -0.0669 -0.0738
30751W        W73742  30.532  31.689  15.046 -0.0899 -0.1676  0.1797
30752W        W73743   9.560  29.696  22.405 -0.1042 -0.1345 -0.0612
30753W        W73744   2.633  27.874  22.096  0.2641  0.0292  0.1882
30754W        W73745  21.753  13.835  25.567 -0.1337  0.0944 -0.2381
30755W        W73746  30.329  25.212  12.872 -0.1005 -0.1917  0.0550
30756W        W73747  22.680  32.874   4.248 -0.1024 -0.0800  0.3816
30757W        W73748  28.162  22.327  27.077  0.2695  0.1033 -0.0653
30758W        W73749   5.557  14.649  23.840 -0.1044  0.1214  0.1900
30759W        W73750  31.134  12.365  26.076 -0.0452 -0.4022 -0.0759
30760W        W73751  32.587  34.386  24.380  0.2227  0.2748  0.0777
30761W        W73752  29.596  16.945  17.023 -0.2571 -0.1430  0.2291
30762W        W73753  14.388   9.066  24.043 -0.1978  0.0149 -0.1002
30763W        W73754  20.177  31.918  26.888 -0.1412  0.0945 -0.1108
30764W        W73755  10.056  14.383   4.173 -0.0764 -0.1305  0.1132
30765W        W73756   9.503  34.780   2.475  0.2948 -0.2236 -0.2122
30766W        W73757  28.841  26.213  28.007 -0.3679  0.0051  0.3651
30767W        W73758  19.824   8.825  21.362  0.1365 -0.0683  0.0427
30768W        W73759   6.960  21.071  17.839  0.0498  0.1486  0.2909
30769W        W73760   0.684  26.644  20.620 -0.1418 -0.3560  0.0313
30770W        W73761  27.721  31.109   7.694 -0.1038  0.0352  0.0715
30771W        W73762  33.135  27.160   4.182 -0.3478 -0.1255  0.1161
30772W        W73763   8.308  21.002  26.058  0.0567 -0.1117 -0.2652
30773W        W73764  33.201  33.531  17.561 -0.0548  0.1722  0.1174
30774W        W73765   0.413  18.600  20.720  0.0421  0.2759 -0.0356
30775W        W73766   3.780  16.346   7.329  0.1607  0.1111  0.1135
30776W        W73767  11.835  19.233   0.558 -0.1564  0.1628 -0.0476
30777W        W73768  33.717  33.362  27.861  0.1470  0.1246  0.1786
30778W        W73769  10.066  20.358  22.543 -0.1140  0.0535  0.2562
30779W        W73770   4.606  16.120  16.065 -0.1546 -0.2231 -0.0302
30780W        W73771   6.479  21.241   9.426  0.4982  0.0955  0.1611
30781W        W73772   7.468  13.661  15.277  0.1431 -0.1751 -0.2073
30782W        W73773  10.296  30.083  17.155  0.0590 -0.0232 -0.0291
30783W        W73774   0.679  25.046   4.656 -0.0351 -0.0262 -0.2373
30784W        W73775   9.633   6.040   0.362 -0.3295 -0.1047 -0.3110
30785W        W73776   0.043  19.937  21.422  0.0808 -0.0860 -0.1833
30786W        W73777  12.460  25.844  24.974  0.0711 -0.0990 -0.5475
30787W        W73778  10.377  12.916  21.528  0.0477  0.2615  0.2161
30788W        W73779  26.090   6.758  28.110  0.1128  0.1299  0.0723
30789W        W73780  28.595  24.146  15.113  0.0493  0.0085 -0.2618
30790W        W73781  21.081   1.446  19.887 -0.0966 -0.1228  0.0608
30791W        W73782  26.474  20.438   6.632 -0.1832  0.4568 -0.2670
30792W        W73783  10.686  28.329  21.068  0.1691  0.0603 -0.0706
30793W        W73784  12.065   4.692   6.941  0.0137  0.1989  0.1438
30794W        W73785  15.315   5.255  16.873  0.0096  0.4834 -0.1321
30795W        W73786   2.568  12.264   6.007  0.3536 -0.1560 -0.0048
30796W        W73787   8.294  26.230  22.158 -0.0832  0.1883  0.0770
30797W        W73788  31.706  15.137  23.261 -0.0867  0.2173  0.0272
30798W        W73789  11.615  31.148  15.721 -0.1622  0.1769  0.1486
30799W        W73790   2.875  32.968  27.684 -0.0612 -0.1361 -0.2634
30800W        W73791   2.659  17.532   5.443 -0.3809 -0.2064 -0.1178
30801W        W73792  31.148   1.690   1.546 -0.0675  0.1292 -0.1626
30802W        W73793  14.410   4.708   9.516  0.0876  0.0485 -0.1012
30803W        W73794  32.412  18.669  20.042  0.1558  0.2711  0.4401
30804W        W73795   3.314  19.757  24.828 -0.2610 -0.0954  0.0952
30805W        W73796   3.093  16.699  17.670 -0.2482  0.3713  0.3134
30806W        W73797  23.805  27.327  22.342 -0.1796 -0.0069  0.0236
30807W        W73798   6.854  18.713   2.776 -0.1240 -0.0787  0.0533
30808W        W73799  15.300   5.821  20.541  0.3813  0.0948  0.0003
30809W        W73800   3.194  13.849  20.380  0.3530 -0.3135 -0.1075
30810W        W73801   8.115  14.091  18.609 -0.4167 -0.4690  0.0082
30811W        W73802   7.176  31.456  19.560 -0.1594 -0.3249  0.0592
30812W        W73803   7.677  34.746  17.937  0.1927  0.0666 -0.0829
30813W        W73804   6.275  15.405  28.280  0.0772  0.1127 -0.0436
30814W        W73805  32.062   1.577  25.603 -0.0263 -0.2701  0.2782
30815W        W73806  17.021  34.699  15.694  0.1836  0.1590 -0.0762
30816W        W73807  26.355  23.777  16.018  0.1611  0.1221 -0.0400
30817W        W73808  31.333   5.480  25.271  0.3629 -0.0684 -0.1640
30818W        W73809  10.794  22.633   2.274  0.1361 -0.0457 -0.0548
30819W        W73810  21.953  30.616   3.810  0.0678  0.0222  0.0034
30820W        W73811  16.596  27.223  28.751 -0.0124  0.3426 -0.0027
30821W        W73812  23.013  14.668   5.717  0.2217  0.2253  0.0900
30822W        W73813   5.704  20.928  17.261 -0.0251 -0.0481 -0.1282
30823W        W73814   3.904  24.449  17.128  0.0670  0.4171 -0.0575
30824W        W73815  29.063  23.967  18.787 -0.2362 -0.1135  0.1297
30825W        W73816  25.851  21.961  15.357 -0.0976  0.0617 -0.1349
30826W        W73817  27.592   1.206  17.044  0.1137 -0.0621 -0.0353
30827W        W73818  21.648  16.667   8.786  0.3234  0.1148 -0.0629
30828W        W73819   1.882   2.156  21.133 -0.0047  0.2666  0.1095
30829W        W73820   9.146  16.626  25.902 -0.4797 -0.1258 -0.1021
30830W        W73821  12.567  18.227  15.521  0.0411 -0.0336 -0.0789
30831W        W73822   6.514   9.109  22.085  0.1002 -0.2483  0.0946
30832W        W73823  34.494   4.876  28.473 -0.3117 -0.2716 -0.1910
30833W        W73824   9.576   8.312  18.295  0.3930 -0.0035  0.0355
30834W        W73825  13.637  19.363  26.830 -0.0275 -0.3548 -0.0672
30835W        W73826   6.057  19.774  19.882  0.0007 -0.3045  0.0274
30836W        W73827  11.465  32.987  17.417 -0.1032 -0.0506 -0.2312
30837W        W73828   3.028  28.449  19.923 -0.1583  0.1180 -0.1422
30838W        W73829  34.554  27.213   0.801 -0.1337 -0.1599  0.0251
30839W        W73830  26.356   3.930  18.584 -0.1299  0.3091 -0.0727
30840W        W73831  12.133  33.615  24.272 -0.2029 -0.0728  0.0190
30841W        W73832  18.627   0.943   6.133  0.2643 -0.0989 -0.3252
30842W        W73833  29.150  25.758  20.721 -0.1244  0.3215  0.1717
30843W        W73834  27.473  31.900  17.714 -0.1156 -0.2790  0.2476
30844W        W73835  10.099  30.695  15.136  0.1439 -0.0999  0.0927
30845W        W73836  33.214  22.930  17.945  0.1430 -0.0797  0.0031
30846W        W73837  13.457  21.774   1.106 -0.0728 -0.2448 -0.0453
30847W        W73838   9.694   8.952   2.892 -0.2690  0.0112 -0.2763
30848W        W73839  34.147  23.662   5.811 -0.2607 -0.2067  0.1315
30849W        W73840  33.106   4.592   8.644  0.0182 -0.2831 -0.0139
30850W        W73841  12.033  27.711  27.898 -0.1825 -0.0778 -0.0440
30851W        W73842  16.158  28.158  21.686  0.0131 -0.0425 -0.2198
30852W        W73843   2.165  10.120  21.946 -0.0394  0.1569  0.1027
30853W        W73844   3.456  16.480  16.830 -0.1597 -0.3781  0.2396
30854W        W73845  20.489   0.302  18.679 -0.0267  0.0561 -0.1007
30855W        W73846  20.530  23.279  22.292  0.2722  0.2610 -0.2792
30856W        W73847   0.435  29.696  27.124  0.2349  0.3974  0.1836
30857W        W73848   0.563  21.163  18.773  0.2391  0.3340  0.1097
30858W        W73849  24.592  28.104  14.149 -0.1788 -0.4204  0.0917
30859W        W73850   3.721  30.847  29.243 -0.0878  0.2916  0.0137
30860W        W73851  13.242  26.503  20.241 -0.0792  0.0340  0.1609
30861W        W73852  19.190  15.611  13.880  0.3621 -0.1292  0.2345
30862W        W73853  15.335  21.867  24.874 -0.1347 -0.0581 -0.2582
30863W        W73854  14.082  33.505  18.471  0.2170  0.1724 -0.0774
30864W        W73855   6.553  16.851  21.119 -0.0447  0.1041 -0.0837
30865W        W73856  25.121  27.396  23.103 -0.2673  0.0508 -0.1715
30866W        W73857   8.404  26.631   8.792 -0.1951 -0.0623 -0.0910
30867W        W73858  31.537  18.624  24.447 -0.1867 -0.1983 -0.0616
30868W        W73859  32.371  33.752   3.240  0.2114 -0.2258  0.0455
30869W        W73860  11.720  23.123  24.089 -0.0958  0.2733  0.1747
30870W        W73861   2.803  20.357  15.567  0.0384  0.1770  0.0265
30871W        W73862   9.390  25.771  14.895  0.3134 -0.0637 -0.1229
30872W        W73863  12.560  14.783  20.518 -0.4189  0.0846 -0.2209
30873W        W73864   9.253  22.598   4.449 -0.2736  0.0718  0.2331
30874W        W73865  32.679  10.747  20.310  0.0508 -0.5245 -0.3195
30875W        W73866  11.561  15.754   3.651 -0.1275  0.0813 -0.0170
30876W        W73867   2.722  29.170  24.589  0.1800  0.2716 -0.0523
30877W        W73868  17.669  22.264  12.977  0.1120 -0.0459 -0.4827
30878W        W73869  12.284  18.342   2.233  0.0177 -0.0001 -0.0242
30879W        W73870  27.281  26.356  14.176  0.0087 -0.2085  0.0980
30880W        W73871  28.818  23.002  25.226 -0.1719 -0.0694 -0.0799
30881W        W73872  11.530  26.687  14.834 -0.3651  0.3177 -0.1425
30882W        W73873  20.594   0.709  23.515 -0.0757 -0.1957  0.1086
30883W        W73874  26.228  28.890   8.775  0.0244  0.1311  0.1259
30884W        W73875  31.030  34.203   3.445  0.0819 -0.1146 -0.0200
30885W        W73876   5.892  33.912  25.164 -0.1176 -0.1424 -0.1894
30886W        W73877   6.979  24.340  21.742  0.1625 -0.2097 -0.0644
30887W        W73878  31.830  11.233  20.729  0.3394  0.0139  0.1710
30888W        W73879   2.701  13.469  23.937 -0.2247 -0.2040 -0.0651
30889W        W73880  33.435  25.120  10.554  0.1722 -0.0392  0.2026
30890W        W73881  10.843  27.784  14.274  0.3190 -0.0830  0.1578
30891W        W73882   3.383  22.457  18.746  0.1360  0.0376  0.1292
30892W        W73883   2.658  20.214  16.696 -0.1626  0.3781 -0.1567
30893W        W73884  34.719   4.515  15.253 -0.0507  0.2291  0.0935
30894W        W73885  19.294  26.860  14.806  0.0044  0.0969  0.2071
30895W        W73886  20.241   9.693   3.002 -0.1526 -0.0377  0.1011
30896W        W73887  18.641  18.273   0.172  0.2673 -0.2399  0.0504
30897W        W73888   9.951  22.449  17.756 -0.1932  0.2321 -0.2574
30898W        W73889   5.515  25.917  27.372  0.4032 -0.0710  0.0728
30899W        W73890  31.351  15.069   3.395  0.0171 -0.0627 -0.5776
30900W        W73891   1.953  14.417  26.726  0.1935 -0.3133  0.1209
30901W        W73892  24.642  12.022  28.530 -0.1041  0.3541  0.3923
30902W        W73893  11.539  17.536  29.243 -0.1733  0.0234  0.3173
30903W        W73894   8.975   7.972  21.875  0.3716  0.2099  0.0091
30904W        W73895  16.109  23.321  16.396 -0.1118 -0.2377  0.1536
30905W        W73896  12.175  13.202  24.372 -0.0970  0.0644  0.0074
30906W        W73897  22.998   9.028  22.995  0.1694 -0.2763  0.3114
30907W        W73898  32.834  26.918  17.651 -0.2926  0.0188 -0.0938
30908W        W73899   6.286  32.562  25.102 -0.1058 -0.0523 -0.0265
30909W        W73900  26.231   8.535   0.549  0.4497 -0.1134 -0.2281
30910W        W73901  12.225  27.686  23.688  0.1978 -0.1797 -0.1094
30911W        W73902  31.305  19.230  21.844  0.0181  0.2075  0.2044
30912W        W73903   8.150   5.818  26.506  0.2211  0.0744  0.0780
30913W        W73904   6.319  11.901  18.955  0.1782 -0.0629 -0.1430
30914W        W73905  14.034   2.752  27.209  0.2273 -0.0957  0.2234
30915W        W73906   7.448  24.563  28.096  0.2885 -0.3106  0.0571
30916W        W73907  26.331  19.446  20.275 -0.1152 -0.1407 -0.0859
30917W        W73908  12.801  28.670  21.016 -0.5338 -0.0098 -0.1750
30918W        W73909   8.856  11.188   1.541  0.3011  0.1004  0.0585
30919W        W73910  27.370  25.292  27.743  0.2779  0.0132 -0.2123
30920W        W73911   4.804  30.961  18.739  0.1761 -0.3117 -0.1475
30921W        W73912  10.734   0.925  18.222  0.1610 -0.1065 -0.0512
30922W        W73913   6.334   8.631  22.239 -0.1618 -0.2016 -0.0080
30923W        W73914  33.001  34.292  14.605  0.0815  0.0150 -0.2592
30924W        W73915   9.484  14.269  24.684 -0.0489  0.2121 -0.2556
30925W        W73916   8.795  17.361  26.300  0.0086  0.0043  0.2880
30926W        W73917   4.594  27.410  21.702 -0.2330 -0.0455 -0.1343
30927W        W73918   9.842  32.924  28.654 -0.2236 -0.3261  0.1990
30928W        W73919  33.894   2.924  26.771 -0.4062  0.0683  0.2702
30929W        W73920   5.905  14.926   8.470 -0.0058  0.1987 -0.1389
30930W        W73921  34.093  17.357   7.412 -0.0722 -0.3003  0.3521
30931W        W73922  14.562   5.854  19.540  0.0091 -0.0260 -0.1827
30932W        W73923  20.362   7.833  18.368  0.1185  0.0520  0.4451
30933W        W73924  31.384  20.362  20.167 -0.1258  0.0541 -0.1391
30934W        W73925  11.050  34.043  24.172 -0.4133 -0.1212 -0.0279
30935W        W73926   7.488   4.156  18.871  0.1500  0.0097 -0.1845
30936W        W73927  11.097  17.544   4.124 -0.1519  0.0706 -0.2204
30937W        W73928  16.662  31.500  24.777 -0.2626  0.2024  0.1933
30938W        W73929   0.571  28.896  15.056  0.3010  0.2441  0.0909
30939W        W73930   4.602  34.100  14.990 -0.2297 -0.2230  0.0481
30940W        W73931  29.278  25.419  13.910  0.2298  0.1919  0.3217
30941W        W73932   1.984  20.932  15.054 -0.1069  0.1555 -0.2322
30942W        W73933  10.491  27.694  19.215  0.2359 -0.0855 -0.1261
30943W        W73934  25.971  27.145  16.581  0.2099  0.2894  0.4537
30944W        W73935  30.818  25.624  21.823 -0.2328 -0.2356  0.1818
30945W        W73936  16.818  33.197  23.354  0.2122  0.0479 -0.1822
30946W        W73937  10.479  27.412  27.582  0.0903 -0.0675  0.5386
30947W        W73938  15.036   1.403   0.133 -0.1298  0.3822 -0.1082
30948W        W73939   2.391  21.377  22.796  0.1614  0.2262  0.0224
30949W        W73940   6.607   0.341  19.884 -0.1575 -0.0336 -0.3449
30950W        W73941  11.682  17.983  27.966 -0.0458 -0.5284  0.1634
30951W        W73942  11.735  18.732  28.621  0.1211 -0.1171  0.3187
30952W        W73943  33.935  16.477  21.168 -0.0741  0.1692 -0.1549
30953W        W73944   8.474   0.781  25.666  0.1670  0.0220  0.1723
30954W        W73945  11.788   8.101  25.591 -0.3041  0.2835 -0.0884
30955W        W73946  10.499  28.174  23.915 -0.0931  0.1021 -0.1386
30956W        W73947  13.025  20.677  28.998 -0.2670 -0.1762  0.1513
30957W        W73948  27.034  28.205  24.883 -0.1501 -0.1275  0.2079
30958W        W73949  11.333  16.039  18.788  0.0054  0.2282 -0.1720
30959W        W73950  28.809  20.564   2.603 -0.1194  0.0367 -0.0287
30960W        W73951  14.648   6.158  25.860 -0.1309  0.1922  0.1073
30961W        W73952   4.962  15.769   0.670  0.0864  0.2221  0.1962
30962W        W73953   1.771  12.916   3.011 -0.2384 -0.4100  0.2896
30963W        W73954   5.779  22.425  29.206 -0.0548  0.1013  0.2019
30964W        W73955   0.079  29.328  14.038  0.4150  0.0421 -0.1600
30965W        W73956   9.285   3.964   0.407 -0.1070 -0.0758 -0.2536
30966W        W73957   3.951  32.776  26.611 -0.1522 -0.2329  0.0563
30967W        W73958   7.145  21.597  17.839 -0.2441 -0.1489  0.3567
30968W        W73959   4.800  11.635   5.647  0.0876 -0.0083 -0.0079
30969W        W73960  33.148  32.505  21.772  0.2007  0.1956  0.0061
30970W        W73961   8.250  23.584  26.022 -0.1229  0.4115  0.3690
30971W        W73962  32.252  25.038  27.018 -0.0862 -0.0192  0.1359
30972W        W73963  14.609  10.984  17.789  0.0628  0.1639 -0.1001
30973W        W73964   8.742   3.123  19.616 -0.3704 -0.3253 -0.1443
30974W        W73965   3.440  18.233  17.615  0.0227  0.1482  0.0650
30975W        W73966   5.182  30.847  16.174 -0.0904  0.2112  0.5722
30976W        W73967   1.242  22.275  14.830  0.2964  0.3677 -0.0733
30977W        W73968  33.731  25.367  25.115 -0.3168 -0.0734 -0.1521
30978W        W73969  11.974  29.654  18.652 -0.0712 -0.1042  0.4353
30979W        W73970  17.757  24.913   5.326 -0.2469  0.3153  0.4635
30980W        W73971  28.781  30.325   0.878 -0.1274 -0.1481  0.0639
30981W        W73972  28.349  30.519  13.243  0.0444  0.1384 -0.0531
30982W        W73973  17.893  16.428   2.005 -0.0591 -0.0853  0.2973
30983W        W73974  30.912  22.244   1.043  0.3397  0.1885  0.2392
30984W        W73975  18.617  25.261  22.596 -0.0268 -0.0435  0.1031
30985W        W73976   3.559  19.905  19.614  0.3671  0.0904 -0.0516
30986W        W73977  15.337  21.595  19.659  0.1011 -0.0361 -0.0796
30987W        W73978   7.747   6.497   1.234 -0.1827 -0.2006 -0.1398
30988W        W73979   7.741   9.003  28.325 -0.2867  0.0770 -0.2456
30989W        W73980   6.041  23.711  29.068 -0.2341  0.1346  0.4287
30990W        W73981  24.196  25.103  14.301  0.2244 -0.1258  0.2926
30991W        W73982   2.057  29.518  27.926 -0.0401 -0.1745  0.0307
30992W        W73983  23.693   5.880  24.427  0.3573  0.2058  0.0665
30993W        W73984   5.066  32.934  17.573  0.0604  0.1457 -0.1265
30994W        W73985  14.418  19.473   1.066  0.0747  0.2346 -0.3402
30995W        W73986  13.323  15.665  26.612 -0.2168 -0.1151 -0.2561
30996W        W73987  11.039  30.305   0.830  0.0299  0.0859  0.0829
30997W        W73988   9.119  15.425  26.471 -0.0816 -0.1992  0.1387
30998W        W73989  32.588  13.266  24.421 -0.0402 -0.2036 -0.1313
30999W        W73990  21.200  22.553   6.070 -0.2308  0.0203  0.2769
31000W        W73991   2.279  11.439   5.063 -0.2120  0.3178 -0.0599
31001W        W73992  24.556   1.784  26.062 -0.1635 -0.2534  0.2510
31002W        W73993   0.938   1.745   3.479 -0.1901 -0.0575  0.0683
31003W        W73994  20.619  34.003  23.179 -0.1024 -0.0851  0.2224
31004W        W73995  25.091  21.481   6.866 -0.3087  0.0903  0.0513
31005W        W73996   6.338  28.268  24.156  0.2555 -0.0927 -0.1963
31006W        W73997  14.095  29.154   3.487  0.1503  0.1548  0.2281
31007W        W73998  24.019  30.197   9.435 -0.0121 -0.0093 -0.3419
31008W        W73999  34.294  12.627  25.306  0.1104  0.0876 -0.0487
31009W        W74000  20.206   8.327  26.801  0.0237  0.2808 -0.1596
31010W        W74001   4.087   7.633   0.559 -0.1801 -0.0004  0.4362
31011W        W74002  11.051  29.537  24.758  0.0583  0.1860  0.0576
31012W        W74003   7.786   1.615   7.324  0.0741  0.3318 -0.1217
31013W        W74004   9.655   8.510  23.756 -0.2998  0.0697 -0.1966
31014W        W74005  24.829  10.412  16.445  0.3391  0.3431  0.0861
31015W        W74006   5.844  31.950  26.857 -0.0248  0.2675  0.3761
31016W        W74007  18.333   8.459   1.886 -0.0516  0.2449  0.1064
31017W        W74008   5.992  21.954   9.758 -0.1095 -0.1490 -0.3247
31018W        W74009  26.440  17.697   1.274 -0.0912  0.1472 -0.0944
31019W        W74010   5.734  18.420  17.592 -0.0865  0.1522 -0.0840
31020W        W74011  13.502   4.946  25.057  0.1408 -0.2161  0.1905
31021W        W74012   6.126  16.758   0.562 -0.1915  0.0393 -0.0972
31022W        W74013  14.000   9.690   1.160  0.0461  0.3475 -0.3512
31023W        W74014  15.120  31.500  22.898 -0.1178  0.1898  0.0328
31024W        W74015   0.530  23.914  23.386 -0.2621  0.1957 -0.2226
31025W        W74016  17.271  20.181  14.834  0.0996  0.2442  0.1876
31026W        W74017  28.345  28.664   7.733 -0.0399  0.2315  0.0969
31027W        W74018   6.949  34.535   6.234  0.0509 -0.0716 -0.3017
31028W        W74019   2.286  18.317   0.101  0.0751  0.1297 -0.1259
31029W        W74020  22.407  28.544  13.571  0.3464 -0.1629 -0.1734
31030W        W74021  26.906  20.227  20.242  0.0275  0.1025 -0.0643
31031W        W74022  34.237  25.718   8.828  0.0961  0.2134 -0.2540
31032W        W74023  31.049   6.104   0.473  0.4173  0.2506 -0.0823
31033W        W74024   1.035  14.973   7.042  0.0195 -0.1068  0.1168
31034W        W74025  30.705  21.694   1.944 -0.2047 -0.4699  0.2374
31035W        W74026   8.622   4.466   6.699  0.1920 -0.3633 -0.0393
31036W        W74027  20.448  26.143  23.963  0.0038  0.1157  0.2213
31037W        W74028  12.112  19.535  14.420  0.0596 -0.0588 -0.0239
31038W        W74029   1.842  26.139  29.096 -0.0044  0.0068 -0.0221
31039W        W74030  26.716   2.728  29.116  0.0457 -0.1977 -0.1123
31040W        W74031  26.451  16.450   8.063  0.3160 -0.2935 -0.0587
31041W        W74032  29.711  27.064   6.872  0.0682 -0.1483  0.0156
31042W        W74033  31.582  22.202  21.497 -0.1271  0.2155 -0.3071
31043W        W74034  23.868  15.876   4.461  0.0213 -0.3532 -0.0196
31044W        W74035   3.484  30.777  28.254  0.1861  0.2188 -0.0397
31045W        W74036  13.308  31.307  16.649  0.1271 -0.2624 -0.3640
31046W        W74037  30.693  24.564  16.698 -0.1514 -0.0224 -0.0329
31047W        W74038   5.998   2.128  22.387 -0.1014  0.2367 -0.0644
31048W        W74039  11.278  18.939   0.374  0.2424 -0.1906  0.1387
31049W        W74040  13.744  29.850  10.400 -0.2065 -0.0111 -0.1651
31050W        W74041  33.401  28.947  20.384  0.2314  0.1079  0.0897
31051W        W74042  11.152  33.985   4.643 -0.1657 -0.2008 -0.0716
31052W        W74043   5.100  31.033  24.222  0.2749 -0.1361  0.0136
31053W        W74044  15.586  26.448  17.467  0.2673  0.4408  0.0746
31054W        W74045  13.002  34.234  26.930  0.3385 -0.1123 -0.3481
31055W        W74046   2.029  13.434  19.626 -0.0038 -0.2227 -0.1595
31056W        W74047  22.148  28.899   6.786  0.4571 -0.3058  0.0668
31057W        W74048  14.776  19.635   3.348  0.4613 -0.2087 -0.0854
31058W        W74049   5.073  15.773   3.211 -0.2112 -0.0616  0.1720
31059W        W74050   4.605  16.315  28.309 -0.0620 -0.2127  0.2720
31060W        W74051  28.917  22.116   6.768  0.2484 -0.1418 -0.2347
31061W        W74052  12.776   4.122   5.633 -0.0212  0.0537 -0.1869
31062W        W74053  25.358  31.310  18.952  0.4016 -0.0952  0.1130
31063W        W74054   6.351  27.887  27.025 -0.0586 -0.0050 -0.1344
31064W        W74055   9.096  19.209  16.936  0.0968 -0.0505 -0.3883
31065W        W74056  24.053  10.037  14.997 -0.0116  0.0797 -0.0394
31066W        W74057  33.272  19.500   0.108  0.3154  0.2316 -0.3838
31067W        W74058  13.268   2.008  10.674 -0.0170 -0.1822 -0.1838
31068W        W74059  26.049  26.015  20.217  0.0779  0.2551  0.0347
31069W        W74060   0.136  20.104  17.268  0.1217  0.0554 -0.0195
31070W        W74061   6.046  15.387   1.644  0.2174 -0.3111 -0.0411
31071W        W74062   2.359  25.209  18.820 -0.1015 -0.0994 -0.2420
31072W        W74063  31.407  34.488   6.359  0.0344 -0.2584 -0.1269
31073W        W74064   3.646  28.945  20.073  0.3165  0.3183 -0.0647
31074W        W74065  14.844  25.892  27.897  0.4695  0.0508 -0.3638
31075W        W74066  17.527  17.840  24.756 -0.0103  0.2208  0.2262
31076W        W74067   8.634  14.238  20.129 -0.0427  0.1503 -0.1691
31077W        W74068  15.024  11.228  10.005  0.1129 -0.0696 -0.1295
31078W        W74069  13.874  11.190   1.800  0.0459 -0.1257 -0.0379
31079W        W74070   6.462  19.987   6.305 -0.0729 -0.1896  0.1709
31080W        W74071  17.560  24.622   0.706  0.2534 -0.0365  0.1595
31081W        W74072  18.859   9.096  28.670  0.0871 -0.0563  0.3188
31082W        W74073  27.336   6.153   1.922 -0.4981 -0.0724 -0.0890
31083W        W74074   8.574  14.437   3.647  0.3544 -0.0184 -0.1170
31084W        W74075  11.959  17.375  21.854  0.2795  0.0667  0.2531
31085W        W74076  32.778  21.481   5.814  0.2686  0.1943  0.0532
31086W        W74077  20.085  13.340  28.084  0.0404  0.5363  0.0148
31087W        W74078  17.604  29.719  20.193  0.0844  0.0271  0.0659
31088W        W74079  34.056  28.303  17.839  0.2087 -0.0751 -0.4089
31089W        W74080   9.707  17.317   4.376  0.0042 -0.0186  0.0755
31090W        W74081   1.919  14.349  29.176  0.3146  0.1909  0.1651
31091W        W74082   8.998  23.462   4.144  0.2181 -0.0844 -0.0350
31092W        W74083   6.355  17.796  10.372 -0.1960  0.0789  0.0615
31093W        W74084   5.705   6.170   5.459 -0.3864  0.1738 -0.0172
31094W        W74085   7.487  29.037  26.427 -0.2189 -0.0549  0.2676
31095W        W74086   6.513  29.887   5.101  0.0232  0.0986 -0.2647
31096W        W74087  14.219  22.823  17.246  0.0348  0.1508 -0.1430
31097W        W74088  15.804  30.276  17.991 -0.0969  0.2003  0.0084
31098W        W74089  27.490  32.203  22.103  0.0522  0.1592  0.2083
31099W        W74090  30.863  16.107  20.320 -0.1754 -0.1802  0.2880
31100W        W74091  27.786  26.993   8.651 -0.1294 -0.1432  0.0829
31101W        W74092  14.590  19.650  28.492  0.2145  0.1385  0.0565
31102W        W74093   9.727  24.890   1.707 -0.0429 -0.2715  0.1763
31103W        W74094  15.478  22.580   9.543 -0.0963  0.2345 -0.1833
31104W        W74095   0.415  24.991  16.490 -0.1407 -0.2276  0.0366
31105W        W74096   8.705  10.277  16.177  0.2329 -0.2234 -0.0865
31106W        W74097  18.138  29.199  19.062 -0.0862 -0.0007 -0.0704
31107W        W74098  25.554  19.160  22.290  0.1931  0.3886  0.2947
31108W        W74099  30.788  12.984   5.298  0.1339 -0.2436 -0.0096
31109W        W74100   8.431   0.576  21.920  0.0736  0.0385 -0.1662
31110W        W74101  30.200  24.845   0.877 -0.2944  0.2531  0.2107
31111W        W74102  32.558  19.358  10.089  0.3665  0.0673 -0.0953
31112W        W74103   3.839  22.437  20.148  0.0164  0.1658  0.0908
31113W        W74104  25.105  21.039   2.247  0.0288 -0.2181  0.0181
31114W        W74105   7.195  34.019  22.669  0.0028 -0.2536  0.0739
31115W        W74106  33.915   9.636   7.793  0.1008 -0.1320  0.1843
31116W        W74107  32.869  28.584  21.089 -0.0298 -0.0919  0.0997
31117W        W74108  11.970  24.164  28.426  0.1121 -0.2300 -0.0557
31118W        W74109  13.543  14.965  28.020 -0.0956 -0.0218 -0.3233
31119W        W74110  11.359  27.170  27.200 -0.0436 -0.0845  0.0490
31120W        W74111   7.210  26.590  26.998 -0.0054  0.0885  0.0704
31121W        W74112  32.736  33.632  20.869 -0.1371  0.2971 -0.2190
31122W        W74113   4.317  32.047  27.313 -0.0640  0.0217  0.0996
31123W        W74114  21.098  23.807  27.494  0.1062  0.0731  0.1748
31124W        W74115  15.504  26.985  18.757 -0.3217 -0.1376  0.0089
31125W        W74116   6.091  27.767  28.221  0.2111  0.1949 -0.3734
31126W        W74117  32.045  22.156  16.261 -0.2866 -0.2293  0.1365
31127W        W74118  27.381  30.287  26.341  0.0286 -0.1227 -0.1525
31128W        W74119  34.491  17.617  21.850 -0.0847  0.1170 -0.0906
31129W        W74120   3.237  24.868   8.897  0.2949 -0.4454  0.2797
31130W        W74121  13.126  27.890  27.316  0.1493  0.1008 -0.3206
31131W        W74122   9.581  20.255   7.671  0.0954  0.3404 -0.1751
31132W        W74123   1.626  25.404   4.939 -0.1173 -0.0289 -0.1666
31133W        W74124  33.012  14.577   3.395 -0.0466 -0.0923  0.2339
31134W        W74125   2.645  31.530  22.685  0.1454  0.1539  0.0505
31135W        W74126  12.947  18.817   4.667  0.4203  0.2441  0.1747
31136W        W74127  33.519  19.742  14.993  0.0286 -0.2563  0.1178
31137W        W74128  13.458  23.323  26.819 -0.2871 -0.0936  0.2217
31138W        W74129  32.207  30.424   1.177  0.0560  0.2657  0.1855
31139W        W74130   5.348  16.463  16.772 -0.2517 -0.2601  0.1181
31140W        W74131  26.246  31.721   3.808 -0.1102 -0.0563 -0.2881
31141W        W74132   1.185   3.975  14.831 -0.1081  0.1684  0.0110
31142W        W74133  32.935  22.401  29.010 -0.0203 -0.3455 -0.3662
31143W        W74134   9.207  26.247   1.875 -0.5359 -0.0890  0.0739
31144W        W74135   7.009  22.460   0.750 -0.1762 -0.0689  0.0048
31145W        W74136   6.626  25.753  26.645 -0.2795  0.1099  0.0470
31146W        W74137  21.591  25.044   2.394  0.0032 -0.1918 -0.0003
31147W        W74138  17.929  30.322  18.444  0.2540  0.1844 -0.0453
31148W        W74139  15.535  27.844  15.235 -0.1250 -0.3491 -0.1982
31149W        W74140   6.425  13.559  22.339  0.0468  0.2407  0.3750
31150W        W74141  17.094  21.946  19.550  0.1147  0.1540  0.0839
31151W        W74142  23.398  19.503   5.288 -0.0913  0.0561  0.2682
31152W        W74143  29.320  17.071   7.043 -0.1733  0.1593  0.0615
31153W        W74144  26.827  24.204  28.572  0.2785 -0.0305 -0.1795
31154W        W74145  13.799  28.611   0.624  0.0537  0.4063 -0.1234
31155W        W74146  12.293  18.829  12.845  0.0581  0.0569 -0.2505
31156W        W74147  18.086  21.167  14.372  0.2009  0.4688 -0.1038
31157W        W74148  10.065  22.503   7.798  0.1827 -0.1990  0.0254
31158W        W74149  12.656  28.705   4.681 -0.4405  0.0356  0.0960
31159W        W74150   0.415  23.668  21.084 -0.1509  0.1281 -0.2435
31160W        W74151  24.127  26.184  17.723  0.0257 -0.0511 -0.1552
31161W        W74152  25.094  20.137   3.461  0.2955 -0.1692  0.1960
31162W        W74153  15.346  11.613  27.433 -0.1372  0.3313 -0.0935
31163W        W74154  10.433   6.243   7.321  0.0075 -0.0162 -0.3091
31164W        W74155  27.317  31.300   5.185 -0.0919  0.1289  0.0905
31165W        W74156   6.669  20.647   3.262 -0.1160  0.1506  0.1477
31166W        W74157  13.392  34.067  29.196 -0.0012  0.1885  0.1664
31167W        W74158  10.488  28.971  24.462  0.3202  0.1027  0.3090
31168W        W74159   3.530  21.444  18.613  0.0833 -0.2332 -0.2796
31169W        W74160  15.695  22.391  28.562 -0.0715  0.2351 -0.1173
31170W        W74161  33.736  26.471  21.938  0.3721 -0.0347 -0.2645
31171W        W74162  11.489   9.152  21.790  0.0163 -0.3164  0.2452
31172W        W74163  10.741  34.261   0.593 -0.1554 -0.0800 -0.0997
31173W        W74164  34.475  31.541   8.185  0.0369 -0.0441 -0.0498
31174W        W74165   6.459  20.287  29.091 -0.1640 -0.3593 -0.2385
31175W        W74166   0.455  32.910   6.252  0.1535 -0.0377 -0.1643
31176W        W74167  23.208  31.988  21.301 -0.3127  0.3178  0.0978
31177W        W74168  27.385  24.196  26.243 -0.1228 -0.2147 -0.0817
31178W        W74169  28.130  25.791  29.242 -0.2804 -0.0842  0.0634
31179W        W74170  17.372   8.920   5.854  0.0411  0.1556 -0.0077
31180W        W74171  34.549  23.126  26.618  0.0083 -0.0804  0.1260
31181W        W74172  27.586  26.068   3.123  0.0256 -0.4397  0.2257
31182W        W74173   7.099  22.079  28.711  0.0207 -0.0502 -0.0499
31183W        W74174   5.242  25.454  16.721  0.0414  0.2281 -0.0475
31184W        W74175  11.177   4.805  24.420  0.0567  0.0220 -0.0822
31185W        W74176   2.327  25.330   0.631 -0.2195 -0.1468  0.0152
31186W        W74177  26.037  15.133  21.997 -0.0994  0.1306 -0.1164
31187W        W74178   0.377  30.486  25.190  0.0127  0.1849 -0.1642
31188W        W74179  13.303  20.984  17.865 -0.0654 -0.2954 -0.1424
31189W        W74180  15.220  33.379   6.263 -0.2975 -0.3647 -0.0379
31190W        W74181  14.716  11.369  23.384  0.0173  0.0231  0.3109
31191W        W74182   5.321   8.133   3.368  0.0687  0.0084 -0.1877
31192W        W74183  10.070  31.365  17.168 -0.1202  0.2212  0.0217
31193W        W74184  14.269  32.164   4.827  0.0765 -0.1763 -0.0540
31194W        W74185   8.909  18.683   7.180 -0.1988  0.1289  0.1777
31195W        W74186   5.028  27.850  28.462  0.2528  0.1055 -0.3005
31196W        W74187   5.218  14.220  22.902 -0.0301  0.3070 -0.0397
31197W        W74188   9.666  20.878  17.996 -0.0525 -0.3430  0.0774
31198W        W74189  24.783  12.736  29.261  0.1427  0.0538 -0.0587
31199W        W74190  18.106  24.475   5.219  0.0072 -0.0330  0.1637
31200W        W74191  22.766  19.671  21.362 -0.1524 -0.1956 -0.1571
31201W        W74192  16.896  16.601  29.076 -0.2270 -0.2651 -0.0216
31202W        W74193  12.108  16.248  28.730  0.1042  0.1493  0.1186
31203W        W74194  10.085  25.894  26.605  0.2262 -0.3176  0.2111
31204W        W74195  26.474  15.290  19.565  0.2255 -0.0451  0.3768
31205W        W74196  33.149   4.768  28.221 -0.0184  0.0865 -0.2501
31206W        W74197   5.647  28.724  10.276 -0.0645  0.4204  0.0717
31207W        W74198  13.837  25.117  24.407 -0.1594 -0.0704 -0.0157
31208W        W74199  15.406   6.876  23.606 -0.2444 -0.3459  0.3620
31209W        W74200   6.814  19.391  22.000 -0.3800  0.0628 -0.0530
31210W        W74201  15.128   2.445  22.767  0.1658  0.1633 -0.1345
31211W        W74202  28.951  15.094  23.004 -0.3747  0.1912  0.1646
31212W        W74203   3.417  22.363   5.691  0.0439  0.0377 -0.0452
31213W        W74204  34.194  24.973   6.280 -0.2243  0.2098  0.0560
31214W        W74205  32.975  24.070   4.345 -0.0958  0.0283 -0.0127
31215W        W74206  12.099  13.112   3.797  0.1970  0.0470 -0.0785
31216W        W74207  26.235  19.002  17.804  0.2059 -0.1744 -0.0365
31217W        W74208   0.384   1.040   3.282 -0.2285 -0.2191  0.0343
31218W        W74209   5.256  21.271  19.206 -0.2702  0.0398  0.1404
31219W        W74210   7.147  18.038   5.659  0.2773 -0.1656 -0.0769
31220W        W74211   5.743  16.154   6.873  0.1711 -0.1660  0.2151
31221W        W74212  32.012  23.806   1.199  0.0951  0.0559 -0.2434
31222W        W74213   3.748  31.850  21.692 -0.0845  0.1723  0.0940
31223W        W74214  34.046  27.056   4.233  0.2479  0.0062  0.0063
31224W        W74215   5.772  31.175  27.621 -0.2127  0.1549  0.2209
31225W        W74216   6.605  11.423   3.082  0.0477  0.0522 -0.1324
31226W        W74217  21.162  16.958  22.386  0.1073  0.0425  0.1064
31227W        W74218  16.271  27.153   2.142 -0.1471  0.0837 -0.2192
31228W        W74219  11.834   2.998   4.525 -0.0909  0.0571  0.1700
31229W        W74220   9.021  31.877  19.121 -0.4370 -0.3771 -0.2436
31230W        W74221  13.909   3.994  23.864  0.1863 -0.0080 -0.1035
31231W        W74222   8.523  12.369   7.525  0.0055 -0.0891 -0.4237
31232W        W74223  30.953  18.623  28.671 -0.0303 -0.1390 -0.3227
31233W        W74224   2.454   5.703   2.380 -0.0011  0.0184 -0.0209
31234W        W74225  20.249  33.282  25.711 -0.2337  0.1737 -0.3189
31235W        W74226  11.204   0.460   5.490  0.1111 -0.0448 -0.2167
31236W        W74227   7.329  24.733  23.561 -0.2426  0.0376  0.0270
31237W        W74228  26.309   5.860  25.786 -0.2935  0.1082  0.1513
31238W        W74229  20.404  19.925  21.788 -0.0551 -0.0495 -0.1594
31239W        W74230  29.660   6.509  16.746  0.3067 -0.0363 -0.1651
31240W        W74231  14.330  26.236   0.725 -0.0492  0.2343  0.0500
31241W        W74232  13.259  26.532  18.812 -0.1877 -0.1813  0.2317
31242W        W74233  10.958  26.129  20.130 -0.1785  0.1230  0.1411
31243W        W74234   8.839   7.312   9.998  0.2238  0.1072  0.1837
31244W        W74235  29.959   9.094  15.403 -0.1945  0.1539 -0.1943
31245W        W74236  13.347  20.689   6.807 -0.1702  0.0269  0.1983
31246W        W74237  10.660   9.064   2.267  0.1325  0.1955  0.0325
31247W        W74238  30.810  15.658   8.745 -0.0907 -0.4017 -0.0898
31248W        W74239  32.701  34.108  20.369 -0.0457 -0.0057 -0.0939
31249W        W74240   2.537  28.409  22.167  0.2791 -0.1146 -0.2197
31250W        W74241   1.667  31.004   5.798 -0.1688 -0.1190  0.1199
31251W        W74242   0.848  29.092   7.695  0.0570 -0.0372 -0.1425
31252W        W74243  26.797   3.840   3.941  0.0824 -0.0970 -0.1237
31253W        W74244  25.414  28.627   0.359  0.2196  0.0835  0.0592
31254W        W74245   4.748  20.457  23.647 -0.0464 -0.1147  0.0582
31255W        W74246  34.448  14.304   9.060  0.0805 -0.0247 -0.2582
31256W        W74247   5.819  22.900  17.612 -0.1224 -0.0476  0.3200
31257W        W74248   2.466  29.195  20.698  0.1793 -0.0043  0.0900
31258W        W74249  25.841  27.055  21.078 -0.2102 -0.1065  0.2911
31259W        W74250  28.147  20.925  28.233 -0.3274  0.1455  0.3992
31260W        W74251  29.162  30.673  27.916  0.1579 -0.3520 -0.0208
31261W        W74252  27.053  24.712  28.594  0.0295  0.1410  0.1313
31262W        W74253  32.127   4.047  18.775 -0.0755 -0.3990 -0.2395
31263W        W74254   4.367  19.432  21.177  0.0297 -0.0290 -0.0005
31264W        W74255  13.851  27.551   5.992 -0.1855 -0.2897 -0.2390
31265W        W74256  31.816  19.131   8.943  0.0899 -0.0875  0.0717
31266W        W74257   8.666  31.799  18.144 -0.0798 -0.2228 -0.0807
31267W        W74258   0.402  24.521  18.165  0.1991  0.2636 -0.2571
31268W        W74259  34.017   0.304   4.203 -0.0139  0.1387  0.0826
31269W        W74260  32.890  15.752   7.450  0.0193  0.2657 -0.1024
31270W        W74261  28.881  33.121   5.035 -0.1463 -0.2588  0.2448
31271W        W74262  23.564  23.605   7.309  0.0176 -0.3126  0.0248
31272W        W74263  28.762  20.882  16.273  0.5056 -0.0826 -0.2988
31273W        W74264   1.200   5.774   1.249  0.1045  0.1984 -0.0879
31274W        W74265   2.245  12.180  27.181 -0.0786  0.1189 -0.0903
31275W        W74266   6.536   7.671  23.937  0.1539 -0.1173  0.0837
31276W        W74267  26.036  22.296  25.583 -0.3797  0.0053  0.0504
31277W        W74268   4.347  24.957   3.824 -0.3991  0.1604  0.1754
31278W        W74269  27.139   2.679   6.740  0.0745 -0.1872  0.1216
31279W        W74270  23.075  32.305  24.782 -0.0753 -0.1432  0.0244
31280W        W74271  29.545  24.964   3.854  0.2893 -0.2476 -0.0678
31281W        W74272  30.583  33.448  18.071 -0.0308 -0.0788  0.1074
31282W        W74273   9.967  10.238  23.482 -0.4322 -0.1155  0.0451
31283W        W74274  16.070  25.673  26.069 -0.0025 -0.1572 -0.2364
31284W        W74275  17.186  17.734   3.356 -0.0999  0.0828  0.1313
31285W        W74276   6.763  24.577   5.824 -0.2366 -0.0071 -0.4220
31286W        W74277  34.722  31.879   0.565 -0.0374  0.0305  0.0668
31287W        W74278   2.314  14.291   2.814  0.1120  0.0044  0.0305
31288W        W74279   0.037   8.045  22.901  0.0630 -0.2860 -0.0156
31289W        W74280   6.550  27.523   2.389 -0.1349 -0.3120 -0.0344
31290W        W74281   6.702   2.655   3.980  0.1870 -0.0869  0.0434
31291W        W74282   6.818   9.988  19.088 -0.1446  0.0836  0.4009
31292W        W74283  10.457  25.369   1.619 -0.0316 -0.0158 -0.0827
31293W        W74284  20.643  12.874  19.609 -0.1341  0.0805 -0.0921
31294W        W74285   2.097   1.614   5.606 -0.1516 -0.1148 -0.2701
31295W        W74286   5.955  17.496  29.180 -0.1079  0.2741 -0.2554
31296W        W74287  25.823  24.325  27.090  0.1949  0.2058 -0.0406
31297W        W74288  14.204  29.974   1.423  0.2398  0.0524  0.3199
31298W        W74289  20.391  15.489   9.683 -0.0430 -0.0064 -0.2149
31299W        W74290  12.468  14.594  25.347 -0.2152  0.0380  0.1259
31300W        W74291   9.644  32.744   4.705 -0.0715  0.0916 -0.1092
31301W        W74292  33.804   5.083  18.439  0.4513 -0.1656  0.1205
31302W        W74293  19.309  14.320  23.067 -0.1729  0.1609 -0.0363
31303W        W74294  14.726  30.136  21.066  0.0841 -0.2048 -0.0356
31304W        W74295  18.556  13.754   1.726  0.1898  0.2139  0.0368
31305W        W74296  11.400  26.365  19.966 -0.0697  0.1277 -0.1778
31306W        W74297  31.457  21.520   9.773 -0.2339 -0.2402  0.0171
31307W        W74298  33.699  24.552  24.929 -0.2544 -0.1488  0.0871
31308W        W74299  19.303   8.840  28.779 -0.0514  0.2600 -0.2250
31309W        W74300  10.777  12.878  21.867  0.1414 -0.0352 -0.1566
31310W        W74301  10.307  34.140  20.397  0.3080 -0.1507 -0.0096
31311W        W74302   8.754  16.222  28.199 -0.2649 -0.0571 -0.0755
31312W        W74303   0.687  20.571  21.915 -0.1041  0.0066 -0.1151
31313W        W74304  22.439  18.935  18.734 -0.0964 -0.1731 -0.0217
31314W        W74305  10.282  30.091  15.499  0.2325 -0.0203  0.1322
31315W        W74306  29.436  27.164  23.217 -0.0479  0.0382 -0.1956
31316W        W74307   1.134  33.335   2.423 -0.0053 -0.1480  0.2713
31317W        W74308  32.980  32.792   3.333 -0.2290 -0.1591  0.2512
31318W        W74309  33.421  19.138   5.808 -0.0000  0.2038  0.3894
31319W        W74310  31.994  14.390   4.338 -0.1168 -0.0598  0.1290
31320W        W74311  13.306  10.942  21.717  0.3537  0.0917  0.0472
31321W        W74312  15.013  13.422  19.019 -0.4638  0.2765  0.4433
31322W        W74313   7.657  16.194  19.210  0.1766 -0.0149  0.2602
31323W        W74314   5.546  15.708   1.489 -0.3453 -0.0626  0.0225
31324W        W74315  27.636  18.997   1.321 -0.0179  0.0631  0.0311
31325W        W74316  32.751  11.940  27.343 -0.0651 -0.1417  0.1285
31326W        W74317   5.727  18.989  16.711 -0.2861  0.6348  0.3552
31327W        W74318   6.719  12.319  24.596 -0.0197 -0.0436 -0.1022
31328W        W74319  15.981   6.839   5.938  0.1294 -0.2117 -0.2668
31329W        W74320  24.701  28.652  26.062 -0.1977 -0.0353  0.1986
31330W        W74321   6.143  25.892  26.677  0.1319  0.0700 -0.1314
31331W        W74322   3.358  19.278   8.049  0.5174 -0.0603  0.0466
31332W        W74323  10.944  34.050  18.177 -0.0682  0.3600  0.0445
31333W        W74324  33.562  11.639   8.384  0.0914  0.0841  0.2057
31334W        W74325   1.100  31.996  21.236  0.1494 -0.4627 -0.1738
31335W        W74326  23.469  32.706  22.735  0.0090  0.0342  0.0093
31336W        W74327  29.640  19.147  20.193 -0.0361  0.0414 -0.1116
31337W        W74328   4.676  28.043   7.016  0.3775  0.1271  0.1250
31338W        W74329  12.469  15.697  23.632 -0.1828  0.0963 -0.2467
31339W        W74330  32.499  23.028  29.062 -0.1832 -0.1991  0.1732
31340W        W74331  14.972  32.580   7.788 -0.3188  0.0715 -0.3470
31341W        W74332   3.644  24.648  25.485 -0.0004  0.1078 -0.0099
31342W        W74333  18.268  11.088  24.088 -0.1832 -0.1685  0.0091
31343W        W74334   8.308  32.337   7.599 -0.1641  0.1462 -0.1555
31344W        W74335   5.974  17.733   3.900  0.2291 -0.2199 -0.1782
31345W        W74336   0.065  15.225   0.949 -0.2311  0.1984  0.5770
31346W        W74337   8.839  17.023  20.901 -0.1819  0.0828 -0.2364
31347W        W74338  11.135  28.882   6.986  0.1008 -0.1419  0.0100
31348W        W74339  10.106   2.325  28.470 -0.0309 -0.2610 -0.0628
31349W        W74340  10.350  17.985  21.174  0.1201  0.0665  0.1116
31350W        W74341  10.700  33.037   5.451  0.2218  0.0828  0.0533
31351W        W74342  29.025  15.579   0.032  0.1786 -0.0755 -0.0160
31352W        W74343   4.066  30.353   5.699 -0.0935 -0.0343  0.1123
31353W        W74344  34.610  19.013   2.549  0.0017 -0.0206  0.1372
31354W        W74345   3.346  25.429  25.264  0.1277  0.1200  0.1331
31355W        W74346  13.819  23.307  25.861  0.0044  0.3155 -0.1434
31356W        W74347   7.980  24.032  10.184 -0.0398  0.1277 -0.4048
31357W        W74348   7.597  20.779  19.414  0.1319 -0.2124  0.0117
31358W        W74349  17.899  31.159   6.422 -0.1156 -0.0140  0.0920
31359W        W74350  16.224  21.015  19.231  0.3355  0.1573  0.2459
31360W        W74351   6.352  11.252  26.066  0.2987 -0.3607 -0.1519
31361W        W74352   7.155  16.622   2.482 -0.0175  0.1290  0.3518
31362W        W74353  24.745  26.565   3.461  0.4231 -0.0437  0.1110
31363W        W74354   6.943  25.435  18.015  0.0543 -0.0610  0.2741
31364W        W74355   1.450   0.360   0.747 -0.1208  0.0003 -0.2146
31365W        W74356  13.219   4.988  22.698 -0.1759  0.0204 -0.0669
31366W        W74357   5.500  33.700   4.559  0.2104 -0.0573  0.1256
31367W        W74358   8.122   7.958  19.780  0.0805  0.0370  0.1592
31368W        W74359  33.452  25.043  28.219  0.3986  0.3426  0.0100
31369W        W74360  13.312  27.643   2.615  0.0599 -0.1623  0.1329
31370W        W74361   3.308   2.611  19.201 -0.3139 -0.0957 -0.0011
31371W        W74362  12.924  30.931  17.423 -0.1103 -0.1784 -0.1447
31372W        W74363  30.267   5.369  22.851 -0.0854  0.2070  0.0511
31373W        W74364   1.349   1.472   0.795 -0.2658  0.1947  0.2517
31374W        W74365  13.302  25.114  26.273 -0.1764 -0.1484 -0.3437
31375W        W74366   3.034  15.737   9.220 -0.0328 -0.1006 -0.2574
31376W        W74367   2.978  19.893  23.072  0.2257 -0.0371  0.0691
31377W        W74368  31.852  22.842   7.401 -0.1771  0.1378 -0.0419
31378W        W74369  32.256  21.737   0.994 -0.0910 -0.0191  0.0774
31379W        W74370   5.934  25.056  23.242  0.1556  0.1954  0.2339
31380W        W74371  20.885   5.123  26.709  0.0041 -0.0665  0.0634
31381W        W74372   7.775  11.967  26.392 -0.1322 -0.0258 -0.1628
31382W        W74373  32.646  33.949  16.789 -0.0431 -0.3729  0.0205
31383W        W74374   5.685  29.789  18.305 -0.1071 -0.0344  0.0807
31384W        W74375  21.258  14.700   7.568 -0.1173  0.2409 -0.1124
31385W        W74376  21.158  22.115  13.993  0.2104 -0.1592  0.1907
31386W        W74377   4.848  19.134  19.689  0.2474 -0.2781 -0.3046
31387W        W74378  33.878  30.353   5.335 -0.2224 -0.1638 -0.1261
31388W        W74379  12.780  14.447   1.737 -0.1013  0.0432  0.1004
31389W        W74380  27.965  31.724  23.859 -0.1130 -0.2354 -0.0122
31390W        W74381   1.696  26.634   6.613  0.0756  0.1869  0.0124
31391W        W74382  14.262  29.164   9.907 -0.1641  0.0370  0.2435
31392W        W74383  17.143  18.115  23.461  0.0303 -0.1321 -0.0359
31393W        W74384   6.190  15.715  22.427 -0.0878  0.0956 -0.1398
31394W        W74385  15.926   8.459  22.440 -0.4861  0.2985 -0.1073
31395W        W74386  25.836  27.947   1.004 -0.3370 -0.1918 -0.0296
31396W        W74387   8.517  12.153  20.148  0.2222 -0.1923 -0.0019
31397W        W74388   8.379  22.586   8.633 -0.2161  0.0279  0.0214
31398W        W74389  31.988  15.940  22.827 -0.3319 -0.2627  0.0360
31399W        W74390   0.151  21.081   9.712  0.0242  0.0645 -0.1678
31400W        W74391  32.094  20.026   4.450  0.2665 -0.3403  0.1237
31401W        W74392  16.262  18.747  24.185 -0.0346 -0.1162  0.1037
31402W        W74393  14.597  25.707  19.428  0.2207  0.0893 -0.3769
31403W        W74394   7.074  20.057  20.157 -0.3182  0.0205 -0.1518
31404W        W74395  33.497  11.017  28.745 -0.3900 -0.0229 -0.5030
31405W        W74396  29.640   7.997   3.074 -0.0724 -0.2824  0.5289
31406W        W74397   1.890   1.557   5.189  0.0817 -0.3576 -0.2223
31407W        W74398  14.639  25.026  23.783  0.0277  0.4342 -0.4601
31408W        W74399   8.027  17.565  23.525  0.4869 -0.0320  0.0058
31409W        W74400  10.079  15.103  17.704 -0.0328  0.4987  0.1271
31410W        W74401   8.100  23.682   7.320  0.3431 -0.0859  0.0747
31411W        W74402  31.787  33.305   7.066  0.3087 -0.3634  0.0658
31412W        W74403   9.185  12.933  25.641 -0.0961 -0.3157  0.0557
31413W        W74404  33.363  21.781   6.000  0.0882  0.0857 -0.1605
31414W        W74405  12.208  20.719   1.466 -0.0719 -0.3173  0.2657
31415W        W74406   7.023   5.214  10.744  0.4943 -0.0681 -0.1909
31416W        W74407  32.660  28.840   6.174 -0.0164 -0.0886 -0.0741
31417W        W74408   4.416  28.222  29.173 -0.1986 -0.0082  0.0041
31418W        W74409   9.623  16.225  28.217 -0.2037 -0.5021  0.0931
31419W        W74410  33.393  28.708  16.680 -0.0489 -0.1031 -0.4018
31420W        W74411   4.778   3.319  20.617 -0.0804  0.0222  0.0718
31421W        W74412   4.413  16.515   0.940  0.1841  0.2689  0.3091
31422W        W74413   4.998  21.463  27.502  0.1329 -0.0351  0.1013
31423W        W74414   6.657  26.750  25.421 -0.0244 -0.1746 -0.1214
31424W        W74415  13.664  26.237   5.605 -0.3892  0.0296  0.0124
31425W        W74416  29.627  19.563  17.629  0.0074 -0.0647 -0.1350
31426W        W74417   1.940  13.295  28.595 -0.1377 -0.0821 -0.0379
31427W        W74418   6.469  15.196   7.812  0.2387 -0.2709  0.1938
31428W        W74419   4.471  12.253   6.950  0.2424  0.1708  0.0292
31429W        W74420   2.749   7.892   7.024  0.2712  0.2175 -0.0974
31430W        W74421  17.626  13.947   7.780 -0.2472 -0.1148 -0.2965
31431W        W74422  26.814  31.355   0.019 -0.0065  0.1956  0.0276
31432W        W74423   4.897  31.422   2.226  0.1020 -0.3073 -0.2771
31433W        W74424   1.314  22.320   4.549  0.2811 -0.0815 -0.2670
31434W        W74425   3.945  16.278  11.731 -0.2609  0.5009 -0.2501
31435W        W74426  32.702  33.646   1.937  0.0875 -0.1800  0.2091
31436W        W74427   1.395  16.278   3.685  0.0209  0.0229 -0.0564
31437W        W74428  10.603  11.316  24.513 -0.3541  0.0764  0.0531
31438W        W74429  10.998  14.199  29.235 -0.0118 -0.2472 -0.0798
31439W        W74430   1.937  23.979  22.225 -0.1517  0.1278 -0.2316
31440W        W74431   9.758  15.191   2.462 -0.0780 -0.3999 -0.1108
31441W        W74432  23.476  16.337   9.122 -0.0470  0.0467  0.1174
31442W        W74433   5.592  14.737   4.055  0.0953  0.1705  0.3060
31443W        W74434   3.400  21.744   3.689 -0.5071  0.1759  0.1670
31444W        W74435   9.179  26.121   0.123  0.0265  0.3821  0.0637
31445W        W74436  10.578  17.611   7.658 -0.1095  0.0291  0.0922
31446W        W74437  32.789   2.521   9.689  0.1567 -0.0761 -0.0226
31447W        W74438   1.025  31.268  24.214 -0.2070  0.5059 -0.0570
31448W        W74439  20.598  20.601  21.085  0.2378 -0.2526  0.0806
31449W        W74440  27.088  19.812  15.294  0.2163  0.0200  0.0466
31450W        W74441   7.928  15.830   4.862  0.3094  0.1030 -0.0368
31451W        W74442   6.292   7.775  24.390  0.2164  0.1151 -0.0672
31452W        W74443  26.498  21.255   7.815  0.1648  0.1249  0.1834
31453W        W74444  27.199  27.110   1.355 -0.1118 -0.1958 -0.1006
31454W        W74445  12.349   2.176  25.788  0.2823  0.0240  0.1450
31455W        W74446   6.660   6.287  24.135 -0.3687  0.2057 -0.0054
31456W        W74447  15.726   1.291  15.560 -0.0599 -0.2387 -0.0871
31457W        W74448  21.544  27.024  25.509 -0.0923 -0.0301  0.1247
31458W        W74449   1.094  26.776  16.137  0.1179 -0.3292  0.1918
31459W        W74450  25.664  20.694   1.385 -0.1446 -0.3691  0.1807
31460W        W74451  31.845  25.903   2.168  0.0743 -0.1245  0.0313
31461W        W74452  12.522  30.939  17.148 -0.0003 -0.3038 -0.0884
31462W        W74453  18.008  31.188  19.042 -0.1530 -0.0879  0.0245
31463W        W74454  19.295  33.750  22.060 -0.0974 -0.1366 -0.2053
31464W        W74455  29.482  11.443  15.980  0.2292  0.1393  0.2097
31465W        W74456   9.522  27.613  21.438 -0.0423  0.0678 -0.1324
31466W        W74457   7.697   6.667  25.731 -0.2560 -0.1611  0.0438
31467W        W74458   4.643  31.759  18.636 -0.0305 -0.2248 -0.0008
31468W        W74459   7.598   7.768  24.123 -0.0897  0.1429 -0.3473
31469W        W74460  29.638  32.746  25.259  0.2397  0.2795  0.2542
31470W        W74461   2.620  32.741  18.093  0.0714 -0.2830  0.0385
31471W        W74462   1.278  23.466   1.885 -0.1200 -0.1057  0.0775
31472W        W74463  15.603   9.872  14.967 -0.1290 -0.1751 -0.0683
31473W        W74464  34.238   1.531  14.419 -0.0248 -0.2010  0.2158
31474W        W74465   8.265  26.340   3.880  0.1204  0.0512 -0.3567
31475W        W74466   7.811  33.079  18.660  0.2702 -0.2545  0.1926
31476W        W74467   7.454  29.101  19.141  0.0568 -0.0634  0.1030
31477W        W74468  20.102   7.590   4.334  0.3232 -0.0156  0.0134
31478W        W74469  15.518  30.069  28.615 -0.1686 -0.2416 -0.1398
31479W        W74470   8.238   1.068  22.270  0.1983 -0.1083 -0.2922
31480W        W74471   1.125   1.252  18.424  0.0452 -0.0301 -0.1988
31481W        W74472  11.382   3.824  23.104  0.0155  0.2066  0.1272
31482W        W74473   2.234   1.735  23.616 -0.0976  0.0484  0.0735
31483W        W74474   2.393  31.552  21.606  0.2462 -0.2088  0.1532
31484W        W74475   6.322  33.286  14.370  0.1124 -0.4332  0.3519
31485W        W74476  12.562  32.015  15.693 -0.4628  0.0595 -0.0284
31486W        W74477  32.590  27.951  23.113  0.0790 -0.1809  0.0765
31487W        W74478   6.965  22.274  24.845  0.0507  0.0338  0.0271
31488W        W74479  32.410  21.020  17.539  0.4597 -0.0052  0.2414
31489W        W74480  33.669  14.692  21.478  0.1922  0.1300 -0.1823
31490W        W74481   4.139   1.150  20.672 -0.2556 -0.1317 -0.1259
31491W        W74482   6.024   4.182  28.824  0.3692  0.1457 -0.0017
31492W        W74483   5.324  29.321  16.026 -0.1206  0.1484  0.1593
31493W        W74484   8.114   2.924  28.352  0.0862 -0.0723 -0.2513
31494W        W74485  10.625   5.404   3.816  0.3210 -0.0380 -0.0872
31495W        W74486  10.502  24.695  24.985  0.0532  0.0523 -0.2270
31496W        W74487  11.697  23.148  20.062  0.1206  0.0855  0.0667
31497W        W74488  32.021  31.719  26.949 -0.1837  0.2302 -0.1480
31498W        W74489   6.637  18.905  24.215  0.0006  0.2086 -0.1831
31499W        W74490   1.364  23.025   1.641  0.1452 -0.0295  0.1628
31500W        W74491  24.739  33.944   1.004  0.1467 -0.5033 -0.1061
31501W        W74492  10.285   4.751  15.036  0.1210 -0.0257 -0.1169
31502W        W74493   4.896   3.872  19.819 -0.2120  0.3272 -0.2849
31503W        W74494   3.629  27.177   1.129  0.0581  0.1314 -0.0554
31504W        W74495   2.230  14.278  16.801  0.1789 -0.4382  0.1788
31505W        W74496  17.346  23.534  25.259  0.1105 -0.3407 -0.0272
31506W        W74497  31.494  28.412  26.923  0.0335 -0.0887 -0.1120
31507W        W74498  28.089  32.708  18.911 -0.0106  0.1762  0.3296
31508W        W74499  24.133  30.837  24.745  0.0042 -0.0166 -0.3703
31509W        W74500  16.733  27.824  14.295  0.0952 -0.0290  0.0575
31510W        W74501   4.328  20.837  28.803 -0.1446 -0.1855 -0.0428
31511W        W74502   0.930  26.395  14.750  0.1123 -0.0535  0.0620
31512W        W74503   1.106  23.753  14.215 -0.0431  0.2670  0.1872
31513W        W74504  15.956   6.716   2.451 -0.1698 -0.0445  0.4056
31514W        W74505  32.132  18.429  17.254  0.0881 -0.1679 -0.0057
31515W        W74506  19.782  28.048  23.904 -0.0526  0.0788 -0.0027
31516W        W74507  12.660   6.925  27.394 -0.1832 -0.0619 -0.2948
31517W        W74508  21.897  27.856  19.419  0.1785 -0.2466 -0.5401
31518W        W74509  12.215  33.733  17.567  0.1977  0.0634 -0.0948
31519W        W74510  25.945  13.854  29.109  0.2826 -0.1526 -0.2826
31520W        W74511  29.821  21.111   2.279 -0.3825  0.3552  0.1558
31521W        W74512  12.936  18.360  23.711 -0.0030 -0.2055 -0.2795
31522W        W74513   0.942   5.147   9.197 -0.0524  0.0858 -0.0800
31523W        W74514  14.084  27.788  19.918  0.0547  0.1520 -0.0691
31524W        W74515  16.483  33.998  14.270 -0.1246 -0.3449 -0.2250
31525W        W74516  12.456  24.085  23.066 -0.1308  0.2435  0.1208
31526W        W74517   4.347  16.490  15.893  0.0203  0.1182 -0.1924
31527W        W74518  24.880   4.091   2.929  0.0213 -0.2277 -0.0744
31528W        W74519  11.865  22.433  16.855  0.1688 -0.1678 -0.2057
31529W        W74520  19.011  29.743  14.209 -0.0910  0.0577  0.0747
31530W        W74521   6.118  31.083  18.446  0.2433  0.2596 -0.2267
31531W        W74522   2.925  31.830  15.905  0.1653  0.1679 -0.2304
31532W        W74523  31.254   8.483  17.184 -0.0867  0.1240 -0.4146
31533W        W74524  29.977  32.005  18.814  0.0379  0.1563 -0.0615
31534W        W74525   3.892   3.112  18.320 -0.0653  0.2856 -0.0507
31535W        W74526   4.415  26.601  26.608  0.0593  0.0223 -0.0125
31536W        W74527  32.522  33.466  15.576  0.0904  0.0281  0.1143
31537W        W74528   4.203   1.813  27.809  0.0325  0.2253 -0.1235
31538W        W74529   5.639  21.944  16.283  0.2211  0.1422 -0.2122
31539W        W74530  19.358  13.590  20.520 -0.1782 -0.0797  0.0803
31540W        W74531   2.079  26.140  15.470 -0.1973 -0.1851 -0.2533
31541W        W74532   3.585  26.357  17.473  0.1156  0.0455 -0.0531
31542W        W74533  22.448  19.494  12.922 -0.4069  0.0731  0.0533
31543W        W74534   8.601   8.079  19.982 -0.0916 -0.1244  0.2313
31544W        W74535  33.038  30.145   4.473  0.1528  0.3140 -0.0770
31545W        W74536  23.745  31.938  16.141  0.1879 -0.1448 -0.0553
31546W        W74537  28.545   1.667  26.973  0.1458 -0.0091  0.3935
31547W        W74538  14.356  25.700  27.850  0.1282  0.3693  0.2119
31548W        W74539  33.342  19.714  20.180  0.0913  0.2962  0.0065
31549W        W74540  24.546  24.004  17.698 -0.0922 -0.1561 -0.1048
31550W        W74541  30.516  30.640  15.449  0.1766 -0.2884 -0.1073
31551W        W74542  19.114  30.845  14.797 -0.2885  0.1245 -0.2918
31552W        W74543  29.915  30.013  16.530  0.0316  0.0241 -0.1752
31553W        W74544   0.996  13.609  28.474  0.0108  0.0389 -0.2182
31554W        W74545   2.982   6.143  21.312 -0.0055 -0.0268 -0.0012
31555W        W74546  19.910   9.512  14.452  0.0804  0.1953 -0.0927
31556W        W74547   4.820  28.498  19.930 -0.1266 -0.0752 -0.0348
31557W        W74548  12.266   0.075  17.633 -0.0534 -0.0147 -0.0183
31558W        W74549  18.890  32.102  26.140 -0.1534  0.0204  0.0806
31559W        W74550  15.485  24.709  27.888  0.3689 -0.3097  0.1835
31560W        W74551   3.120  27.472  16.373  0.0837  0.0364  0.0686
31561W        W74552  19.815  14.492  20.177  0.0905 -0.1488  0.2842
31562W        W74553  30.139  34.122  16.801 -0.0568  0.1421  0.0056
31563W        W74554   5.784   0.842  29.001 -0.0742  0.2143 -0.1131
31564W        W74555   3.578  20.767  19.096 -0.0754  0.0393 -0.1760
31565W        W74556  10.503  13.763  17.077 -0.0339  0.1164 -0.1085
31566W        W74557  34.739  32.996  22.218  0.2073 -0.0943 -0.1913
31567W        W74558  28.559  25.682  15.648 -0.1872 -0.1454  0.0490
31568W        W74559   6.906  13.456  16.057 -0.1113  0.1385  0.2941
31569W        W74560   1.504   0.956  20.442  0.1378 -0.0217 -0.0833
31570W        W74561   2.585  13.254  21.321 -0.0062  0.2976 -0.3273
31571W        W74562  20.473  32.302  18.726 -0.1999  0.2154 -0.0386
31572W        W74563  18.545   1.069   0.915 -0.0479 -0.1430 -0.2619
31573W        W74564  18.942   1.341   2.940 -0.2681 -0.0773 -0.1419
31574W        W74565  12.520  31.710  28.160 -0.1439 -0.1008  0.0639
31575W        W74566   1.247  23.167  24.760 -0.2113  0.0649  0.0311
31576W        W74567  29.392  22.978  14.839  0.0258 -0.0227  0.0404
31577W        W74568   3.019  22.700  18.352  0.1785 -0.4064 -0.3795
31578W        W74569   0.236   0.594   0.745 -0.1539  0.3271 -0.3728
31579W        W74570  10.094   3.928  19.328  0.1993  0.1359  0.1551
31580W        W74571   9.672   2.702  21.479 -0.2547 -0.0306  0.2227
31581W        W74572   1.665  19.615   3.761 -0.0065  0.1029 -0.2036
31582W        W74573   7.517  24.911  17.801 -0.2462  0.0119 -0.0239
31583W        W74574  30.023  32.166  16.519 -0.1159  0.1239 -0.2095
31584W        W74575  23.397   3.569  28.022  0.1369  0.1225 -0.1967
31585W        W74576  28.049  32.891  27.589 -0.1067 -0.0958  0.1667
31586W        W74577  10.252   2.179  24.803 -0.1330  0.3230  0.1481
31587W        W74578  24.808   3.749  23.598  0.4603  0.1998  0.0138
31588W        W74579   0.296  11.852  26.412  0.2045 -0.1866 -0.0523
31589W        W74580  33.737  31.596  27.021 -0.2481 -0.2077 -0.1473
31590W        W74581  13.223   2.051   1.270  0.0743  0.1654 -0.0122
31591W        W74582  33.332  29.955  13.198 -0.1754  0.1372 -0.1153
31592W        W74583  31.902  26.637   2.635 -0.4599 -0.1372 -0.1287
31593W        W74584  27.603  30.476  17.634  0.1632  0.1324 -0.2153
31594W        W74585  15.065  33.235  16.466  0.0554 -0.2471  0.3971
31595W        W74586  33.424  26.192  21.640 -0.0740 -0.0731  0.0359
31596W        W74587   2.178  26.612  15.416  0.1243 -0.1272 -0.2907
31597W        W74588   3.347  33.487  23.819 -0.0481  0.0728  0.1384
31598W        W74589  19.721  23.403  14.416  0.0745  0.3004 -0.1339
31599W        W74590  12.824  24.900  19.355  0.0546  0.2200 -0.3811
31600W        W74591   5.223   0.957  17.637 -0.1341 -0.0680 -0.0360
31601W        W74592   1.403  20.404  16.558  0.2377 -0.0461 -0.0908
31602W        W74593  14.024  29.059  19.422 -0.1100  0.1564 -0.1442
31603W        W74594  23.499  19.783  13.015 -0.1941 -0.1555 -0.0451
31604W        W74595  32.107  21.070  21.877 -0.0342  0.2057 -0.1703
31605W        W74596  16.447  31.871  19.093 -0.1410 -0.0747  0.0594
31606W        W74597   4.283  23.375  20.453  0.3158 -0.0185  0.1529
31607W        W74598  21.260  34.752  14.128 -0.2990  0.0217 -0.2013
31608W        W74599  22.394   9.037  28.278  0.0720 -0.0119  0.0710
31609W        W74600  20.302  34.178   3.003 -0.0399 -0.2021  0.1351
31610W        W74601   4.824  29.018  16.335  0.0122  0.3996  0.1883
31611W        W74602  27.675  12.025  19.973  0.1175 -0.1695  0.1127
31612W        W74603   9.123   0.038  18.993  0.1905  0.1390 -0.1194
31613W        W74604  24.128   0.582  27.910  0.2252  0.1657 -0.0655
31614W        W74605  15.048  29.196  15.824 -0.0648 -0.0622 -0.2994
31615W        W74606  17.022  14.462  13.932 -0.1271 -0.2253  0.0600
31616W        W74607   9.887  15.370   6.192 -0.0469 -0.0439 -0.0026
31617W        W74608  11.637  20.490  26.597  0.0500 -0.2353 -0.2003
31618W        W74609  29.107   1.938  17.141 -0.1621  0.1810  0.1217
31619W        W74610  33.407  33.427  19.823 -0.4301 -0.0258 -0.0035
31620W        W74611   2.425  33.476  14.622 -0.0464  0.1857  0.0926
31621W        W74612   9.129  17.860  23.114 -0.2309 -0.0451  0.1332
31622W        W74613  23.753  22.874  15.753  0.0701  0.1989 -0.1374
31623W        W74614  14.363  28.299  21.642  0.2303 -0.0990 -0.0406
31624W        W74615  13.902  31.608  20.201 -0.0022  0.0429  0.1790
31625W        W74616   0.657  22.861  18.017 -0.1845 -0.2133  0.1113
31626W        W74617   1.927  19.529  28.271 -0.0828 -0.2428  0.1738
31627W        W74618  32.233   2.052  13.933  0.1496  0.3997  0.3466
31628W        W74619  33.359  32.994  25.605  0.0930 -0.1086 -0.0235
31629W        W74620  10.597  33.733  24.225 -0.0901 -0.2612 -0.3078
31630W        W74621  14.445   2.367  28.714  0.1602  0.2240  0.2939
31631W        W74622  33.892  33.118  16.492  0.0891  0.0093 -0.4551
31632W        W74623   9.826  23.942  22.517 -0.0821  0.2221  0.1380
31633W        W74624  10.498  17.284  27.361 -0.1124 -0.0142 -0.0595
31634W        W74625  13.446   5.705  22.188  0.1329 -0.2334  0.1268
31635W        W74626  10.323  34.206  14.564 -0.0507 -0.1666  0.1720
31636W        W74627   4.607   0.150  15.884  0.0253  0.0823  0.1259
31637W        W74628  26.281  31.379  21.053  0.3014 -0.1428 -0.0398
31638W        W74629  11.227  24.749  14.096 -0.2192 -0.2778 -0.0191
31639W        W74630   7.979  20.588  18.133  0.0880  0.1678  0.0489
31640W        W74631  29.237  19.581  23.080  0.0317 -0.1761 -0.0820
31641W        W74632   8.057  27.568  26.595 -0.2671  0.0281 -0.0546
31642W        W74633  19.471  15.716  14.289  0.1089 -0.0250 -0.4233
31643W        W74634   8.838  22.661  16.817 -0.0298  0.2928  0.0926
31644W        W74635   3.124  24.667  17.252 -0.0849 -0.0089  0.0585
31645W        W74636   6.123  14.885  22.907  0.1041 -0.0437  0.0145
31646W        W74637   2.932  21.156  21.470  0.0826 -0.4220  0.0384
31647W        W74638  12.269  23.884  13.355  0.0776 -0.2447  0.1665
31648W        W74639  10.416   2.903   5.678  0.1283 -0.3522  0.4397
31649W        W74640  15.694   5.416  25.867 -0.2775  0.0352 -0.0337
31650W        W74641  32.013   0.458  18.309  0.2434 -0.0877 -0.0711
31651W        W74642  31.893  33.107  20.163  0.1676 -0.2540  0.1793
31652W        W74643  24.303  31.581  18.081 -0.2654  0.0892  0.0524
31653W        W74644   2.560  33.204  18.528  0.0209  0.0184 -0.2483
31654W        W74645  33.760   9.948   3.982 -0.1215 -0.0119 -0.0925
31655W        W74646  30.034  33.415  19.379 -0.1381 -0.0588 -0.1172
31656W        W74647  31.214  33.642  20.048  0.2871 -0.0352 -0.0078
31657W        W74648   7.997  12.178  16.307  0.2949  0.4296  0.1090
31658W        W74649   3.436  25.255  16.760  0.1503 -0.2089  0.0370
31659W        W74650   0.494  17.353  20.112 -0.1067 -0.0594  0.0331
31660W        W74651   3.948   2.637  18.413 -0.1146 -0.2044 -0.0284
31661W        W74652  14.425  27.644  23.549  0.0174 -0.3155  0.1669
31662W        W74653   5.687  20.875  26.645 -0.1486  0.2063 -0.0461
31663W        W74654  16.601  28.179  15.524  0.1805 -0.1867  0.1360
31664W        W74655   2.381  30.295  19.501 -0.0647  0.1769  0.2680
31665W        W74656  12.261  29.461  15.571  0.1126  0.0005  0.0699
31666W        W74657  34.678   2.540  15.575  0.0368 -0.2019 -0.2990
31667W        W74658  19.279   9.203  21.849 -0.1574  0.3038 -0.3552
31668W        W74659  29.468   5.009  20.472 -0.0685  0.1590  0.1304
31669W        W74660   1.754  17.779  16.927  0.1037  0.1124  0.1442
31670W        W74661   2.855  29.970   6.227 -0.0153 -0.1669  0.1377
31671W        W74662  29.268   1.935  22.875 -0.3509 -0.1280  0.1530
31672W        W74663   3.472  34.089  15.671  0.0541 -0.1142  0.0981
31673W        W74664  34.681  33.609  14.575  0.1958 -0.2145  0.0131
31674W        W74665  10.593  25.301  24.211  0.1075  0.0847  0.1130
31675W        W74666   7.297   9.909  19.258  0.4136  0.3372 -0.1228
31676W        W74667  30.291  18.142  15.315  0.0763 -0.3327  0.0221
31677W        W74668  29.724   0.176  13.534  0.1114 -0.2234 -0.1826
31678W        W74669   5.619   6.639  25.900 -0.0183  0.0687  0.0044
31679W        W74670   2.087  12.689  23.657 -0.2290 -0.0050 -0.0371
31680W        W74671   4.751   0.005  21.992  0.0304 -0.0002 -0.2427
31681W        W74672  34.105  32.001  27.789 -0.5650 -0.0236  0.0281
31682W        W74673  15.882  10.553  19.802  0.0436  0.2056  0.2871
31683W        W74674   0.969  22.318  17.668 -0.0808 -0.0039  0.1289
31684W        W74675  16.634  31.829  19.579  0.1423 -0.2254  0.0296
31685W        W74676  33.557  33.340  23.895 -0.1028  0.2504 -0.2468
31686W        W74677   1.802  20.789  26.064 -0.0339 -0.1008  0.0016
31687W        W74678  13.017  32.580  24.569  0.0340 -0.1945  0.0320
31688W        W74679   5.934  31.777   5.431  0.0651  0.0241 -0.0119
31689W        W74680  10.346  26.639  22.588 -0.3412 -0.0902  0.1287
31690W        W74681   1.838   3.094  21.692  0.0746 -0.1988 -0.1704
31691W        W74682   1.787  18.410  16.446  0.1589  0.0573  0.2461
31692W        W74683  31.445  19.936  17.281  0.0834  0.1861  0.1077
31693W        W74684  30.115  11.492  17.741 -0.0036  0.0147 -0.0732
31694W        W74685  13.394  31.731  23.732  0.1891  0.1797  0.1650
31695W        W74686   0.498  25.033  21.980  0.2840  0.1934  0.0014
31696W        W74687   4.112   1.807  23.357 -0.2171 -0.0892  0.1892
31697W        W74688   6.356  19.243  15.251  0.1632 -0.4823 -0.1161
31698W        W74689   4.041  24.685  20.214 -0.0452  0.1984  0.3145
31699W        W74690   5.141   4.065  15.865  0.0445 -0.0562  0.0275
31700W        W74691   4.448  23.958  17.732 -0.1499  0.0271 -0.0580
31701W        W74692   7.480  21.386  21.649 -0.1991  0.1906 -0.1015
31702W        W74693   2.035  15.401  24.827  0.1820 -0.1234 -0.0550
31703W        W74694   3.058  24.713  25.866  0.0010  0.1658  0.0640
31704W        W74695  15.624  29.979  18.956 -0.3916 -0.0499 -0.3105
31705W        W74696   4.815  22.387  19.564  0.0541 -0.2446  0.2757
31706W        W74697  20.052   0.590  15.753 -0.1515  0.0431 -0.0118
31707W        W74698  10.459  19.726  20.711 -0.3756  0.0198  0.0819
31708W        W74699   5.907  28.274  16.813  0.1499 -0.1695 -0.0964
31709W        W74700   4.686  25.854  14.554 -0.2498  0.2847 -0.1104
31710W        W74701   2.168  19.191  16.461 -0.3838 -0.2711  0.1313
31711W        W74702  34.332  30.112  14.756  0.1977  0.3429 -0.0984
31712W        W74703  33.132  23.787  19.648  0.1376 -0.1633  0.3492
31713W        W74704  13.300  33.493  23.246 -0.1460  0.0526 -0.1455
31714W        W74705   5.190  31.462  13.506 -0.2740  0.0325  0.0844
31715W        W74706   7.381   0.611   2.699 -0.1069  0.0049 -0.4758
31716W        W74707  27.524  21.380  16.877  0.1535  0.3876 -0.0303
31717W        W74708   8.173  34.766  24.154  0.2608 -0.3028  0.3093
31718W        W74709  34.798  28.670  23.358 -0.1988 -0.0996 -0.1011
31719W        W74710   0.659  21.043  21.306  0.1171  0.0982 -0.0522
31720W        W74711  24.880   8.886  22.914 -0.1902 -0.0776 -0.2194
31721W        W74712  33.058  26.278  21.241 -0.1447 -0.0411  0.1196
31722W        W74713  20.848  27.479  17.621  0.1907 -0.1606 -0.1179
31723W        W74714   0.779   1.987  13.601  0.2256 -0.0985 -0.3635
31724W        W74715   7.674  31.381  13.951  0.1183  0.0863  0.3452
31725W        W74716  31.258   2.175  22.347  0.0336  0.2383 -0.2180
31726W        W74717  34.160  23.289  14.418 -0.2800  0.4679  0.1317
31727W        W74718  20.107  22.785  20.253 -0.1082  0.0260 -0.2097
31728W        W74719  28.392  28.272  17.412  0.0908  0.0395  0.0345
31729W        W74720  11.794  25.731  16.275 -0.2141  0.0291 -0.0385
31730W        W74721  19.214   9.751  13.862 -0.1361  0.1321  0.0851
31731W        W74722   6.928  25.727  19.306 -0.3831  0.1888 -0.3371
31732W        W74723  32.349  28.871  23.951 -0.0291 -0.0337  0.1000
31733W        W74724  32.956   5.642  22.369  0.1910  0.1149  0.0566
31734W        W74725  25.348  28.769  24.514 -0.2616  0.5323  0.0920
31735W        W74726  26.666  33.012  17.775  0.5012 -0.0136  0.1480
31736W        W74727  12.201  19.422  15.207  0.0227 -0.1622 -0.0693
31737W        W74728  34.409  31.152  27.399  0.2380  0.0136  0.1972
31738W        W74729   0.173  24.698  17.099  0.4370 -0.0366  0.0892
31739W        W74730   2.416  32.517  23.660 -0.0044 -0.2133  0.2671
31740W        W74731  33.619   6.661  23.625  0.1164 -0.0435  0.1988
31741W        W74732   0.365  24.654  20.495  0.0543 -0.0123 -0.1942
31742W        W74733  16.205   1.398  16.942  0.2453  0.1753 -0.0404
31743W        W74734   9.393  31.535  16.061 -0.3115  0.1296 -0.0425
31744W        W74735  15.002  24.328   2.834 -0.0535 -0.0349 -0.0571
31745W        W74736   0.743  28.118  24.687  0.0060  0.1571  0.1346
31746W        W74737  12.616  22.897  16.766  0.2254 -0.0625  0.0826
31747W        W74738  16.295   7.511  19.983  0.0022  0.0627 -0.1054
31748W        W74739  34.266  26.674  19.762 -0.4474 -0.0036 -0.2256
31749W        W74740   6.634  22.394  25.288 -0.3594  0.1450  0.1996
31750W        W74741   1.111  22.243  19.566 -0.0593 -0.0096  0.0568
31751W        W74742   1.569  19.557  18.452 -0.2880 -0.2387 -0.1503
31752W        W74743   0.432  32.310  21.842 -0.1863  0.1052 -0.0092
31753W        W74744  34.439  30.049  28.557 -0.1536  0.0384  0.0918
31754W        W74745  24.866   0.144  22.282  0.0810 -0.2861  0.1124
31755W        W74746   4.752  29.563  14.455  0.0767  0.0478 -0.2413
31756W        W74747  19.016  32.569  16.627  0.1027 -0.0599  0.0882
31757W        W74748   8.285   3.602  15.536 -0.2486 -0.5146  0.0021
31758W        W74749   0.984  30.317  14.794  0.2293  0.0374 -0.2681
31759W        W74750   9.114   1.605  22.606  0.1897  0.0603 -0.1545
31760W        W74751   0.414   1.233  15.237  0.0169  0.0348  0.0854
31761W        W74752   1.953  27.343  15.913 -0.1950 -0.1800 -0.3846
31762W        W74753   4.094  25.487  22.766  0.1315  0.1686 -0.2542
31763W        W74754  10.048   4.138  21.295 -0.3421 -0.0404  0.1213
31764W        W74755   2.882  23.653  17.357  0.0374 -0.0418  0.3004
31765W        W74756   7.553  25.252  16.006  0.0360  0.0704 -0.0422
31766W        W74757   2.422   4.888  20.567  0.1599 -0.1017 -0.0861
31767W        W74758  15.716   1.691   0.812  0.1798 -0.0727  0.3268
31768W        W74759   8.455   8.317  22.659 -0.0536  0.0227 -0.3074
31769W        W74760  30.635  34.104  25.516  0.1722 -0.1776  0.0408
31770W        W74761  32.787  29.780  14.864  0.0631  0.0598  0.5497
31771W        W74762  30.924  26.397  22.618 -0.2673 -0.0884 -0.2151
31772W        W74763  31.601  28.967  20.819  0.0916  0.1080 -0.0384
31773W        W74764  12.671  29.465  23.503  0.2012 -0.2074 -0.3399
31774W        W74765  25.942  18.573  20.218 -0.1266 -0.2232 -0.4652
31775W        W74766   8.280   4.107  20.755 -0.0139  0.2558  0.0734
31776W        W74767  24.025   1.584   2.859  0.0419 -0.1114 -0.0979
31777W        W74768   2.577  33.931  24.470 -0.2850  0.2838 -0.2851
31778W        W74769  33.252   3.514  18.750  0.2794 -0.0557  0.0062
31779W        W74770   1.546  34.239  19.499 -0.0501 -0.2424  0.1913
31780W        W74771  13.659  25.209   4.958  0.1251 -0.2456  0.2556
31781W        W74772  11.697  30.153  18.445 -0.0212 -0.0006  0.1040
31782W        W74773   7.210  18.922  23.084 -0.0173  0.0832  0.1297
31783W        W74774   3.525  14.503  17.897  0.0674  0.1910 -0.3236
31784W        W74775   7.416   4.375  16.559 -0.0899  0.2178 -0.2908
31785W        W74776   8.894   2.934  20.086 -0.0450 -0.0379  0.3447
31786W        W74777   3.714   8.050  26.390  0.1756 -0.3728  0.3210
31787W        W74778  22.127   5.585  17.665  0.2371 -0.0681  0.0371
31788W        W74779   5.690   8.642  17.653 -0.1592  0.3085  0.1680
31789W        W74780  31.800   1.133  22.122 -0.2202  0.1479 -0.0430
31790W        W74781  14.840  32.444   8.718  0.1006  0.0093 -0.0230
31791W        W74782   2.573  31.801  17.384  0.1191 -0.1689 -0.0552
31792W        W74783  28.826  18.462  26.350  0.0809 -0.0196 -0.1654
31793W        W74784  34.228  30.369  21.848  0.0772  0.2030  0.4561
31794W        W74785  14.080   4.391  20.715 -0.0476 -0.1526 -0.0432
31795W        W74786  30.324  14.895  28.962 -0.1586  0.0427 -0.2310
31796W        W74787   9.377  21.199  14.939 -0.4107 -0.2012  0.2220
31797W        W74788  29.774   5.405  26.453  0.2106  0.1727  0.2477
31798W        W74789  30.291   5.928  22.365 -0.0933 -0.0520 -0.1327
31799W        W74790  14.637   5.742  16.492  0.3830 -0.2308 -0.0978
31800W        W74791  30.847  16.505  27.414  0.1555  0.1837  0.1010
31801W        W74792  11.804  32.693  20.585  0.0424 -0.1173  0.3111
31802W        W74793  15.833  28.737  27.495 -0.0916  0.1984 -0.3618
31803W        W74794  32.864   0.728  21.335  0.0426 -0.1119 -0.0799
31804W        W74795  13.718   9.149  19.416 -0.0792 -0.1882 -0.2883
31805W        W74796  14.230  34.225  25.379  0.0969  0.3270 -0.2600
31806W        W74797   5.326  26.886  17.421 -0.0072 -0.2446  0.1050
31807W        W74798   3.583   3.747  22.444  0.0696  0.2581  0.0217
31808W        W74799  31.571  34.359  19.812 -0.0541 -0.0957  0.1459
31809W        W74800  29.462   3.276   0.248 -0.0801 -0.0908 -0.2900
31810W        W74801   9.782  13.922  17.588  0.0917 -0.0271 -0.1280
31811W        W74802   5.608   2.654  14.667 -0.1147  0.3264  0.1129
31812W        W74803   4.737   9.424  20.967  0.4152 -0.0607 -0.3693
31813W        W74804   7.639  25.922  21.205  0.0714  0.0237 -0.1477
31814W        W74805   7.091  27.651  16.662  0.1290  0.0716  0.2359
31815W        W74806   4.613  23.024  25.001  0.0968 -0.0476 -0.1874
31816W        W74807   3.358   0.819  28.339 -0.0214  0.0746 -0.1865
31817W        W74808   2.321  12.375  18.842  0.2045 -0.1683 -0.2044
31818W        W74809   5.859  18.161  26.950  0.2229  0.0057 -0.0989
31819W        W74810  34.252  34.144  17.372 -0.3120 -0.0704 -0.0195
31820W        W74811  10.973   1.868   6.225  0.2307 -0.1918  0.1965
31821W        W74812   4.120  30.704  24.045 -0.0873  0.0378  0.0199
31822W        W74813  33.135   4.926  27.609 -0.4432  0.1368  0.0291
31823W        W74814  21.400  28.308  21.307 -0.0638 -0.0197 -0.4084
31824W        W74815   9.808   4.135   5.891 -0.0543 -0.0848  0.1142
31825W        W74816  13.142  34.079  22.739 -0.0540  0.1092 -0.1532
31826W        W74817   6.132  12.041  19.665  0.0769  0.0748 -0.1031
31827W        W74818   9.496  31.714  19.147  0.0173  0.0658  0.0551
31828W        W74819  10.907  10.420  18.777  0.1452  0.3751  0.1498
31829W        W74820  24.754  23.461  18.105  0.1011  0.5543  0.2190
31830W        W74821   3.016  34.238   2.570 -0.0322  0.0230  0.0620
31831W        W74822  15.395  25.454   2.490 -0.1761 -0.1067  0.2129
31832W        W74823  19.834  29.727  16.804 -0.0969  0.0902  0.0275
31833W        W74824  31.089   0.737  17.045  0.2243  0.1530  0.1726
31834W        W74825   3.070  32.940  17.964 -0.0262 -0.0637 -0.1850
31835W        W74826   3.630   0.510  18.760 -0.0476  0.1627  0.2882
31836W        W74827   8.473  26.814  18.644 -0.1172 -0.1372 -0.1221
31837W        W74828  12.056  20.095  23.823  0.1938  0.1484  0.0105
31838W        W74829   6.489  21.018  27.738 -0.4519  0.0983  0.2539
31839W        W74830   8.096  22.191  21.045 -0.0405  0.1088  0.2039
31840W        W74831   8.332  20.592  24.360 -0.0214 -0.0600 -0.0576
31841W        W74832  31.795  17.805  20.105  0.1999  0.2574  0.1078
31842W        W74833   6.703  30.160  15.054 -0.0869  0.2818 -0.1611
31843W        W74834  18.861  21.160  27.643  0.0531 -0.1573 -0.0217
31844W        W74835  10.824   2.346   3.188 -0.0713 -0.0955 -0.1677
31845W        W74836  28.462  30.525  21.456 -0.1962  0.0875  0.2328
31846W        W74837   9.461  16.790  18.925 -0.1371 -0.0972  0.1130
31847W        W74838  20.620  30.367  28.601  0.2072 -0.0444 -0.1161
31848W        W74839  32.985  33.802  21.285 -0.0173  0.3831 -0.0833
31849W        W74840   9.479  23.850  24.999  0.0372  0.0134  0.1220
31850W        W74841   5.477  31.659  25.999 -0.1774 -0.1326 -0.0187
31851W        W74842   6.635   3.645  24.389 -0.4143  0.0766 -0.1318
31852W        W74843  19.910  27.233  22.066  0.3120 -0.1638  0.0808
31853W        W74844  32.368  12.752  15.692  0.3955  0.1151 -0.0425
31854W        W74845   1.485  23.730  26.856 -0.1695  0.2634  0.2042
31855W        W74846  30.831  34.400  21.975 -0.0309 -0.1483  0.1577
31856W        W74847  14.128  18.710  24.557 -0.0497  0.1982 -0.2523
31857W        W74848  12.173  12.174   4.119 -0.2464 -0.1950 -0.0755
31858W        W74849   7.586   4.964  14.760  0.2603  0.2518 -0.0240
31859W        W74850  32.726  17.630  25.382  0.1907  0.1025  0.1645
31860W        W74851  17.688   7.473   7.026 -0.1249  0.2807 -0.0348
31861W        W74852  33.952  17.290  20.558  0.0226 -0.0768  0.3362
31862W        W74853   6.914  31.489  18.829 -0.1691  0.0725 -0.2865
31863W        W74854  20.124  33.183  24.422 -0.1683 -0.1745  0.2395
31864W        W74855   6.918  31.427  14.030 -0.0174  0.0212 -0.0218
31865W        W74856  14.787   6.529  18.892 -0.0459  0.1255  0.0520
31866W        W74857  16.679  29.772  15.425  0.0041  0.2393 -0.3601
31867W        W74858   3.485   4.743  17.716  0.0330  0.2049  0.3646
31868W        W74859  10.930  27.879  23.656 -0.0099 -0.2931 -0.0569
31869W        W74860  32.669  16.304   4.679  0.1490 -0.2415  0.0759
31870W        W74861   5.088  27.132  19.366  0.1715 -0.2497  0.0218
31871W        W74862  30.882  22.406  24.285 -0.1851  0.4299  0.0773
31872W        W74863   4.120  19.628  27.195  0.1584 -0.0156  0.3071
31873W        W74864  24.053  25.986  16.406 -0.1791  0.0462 -0.2035
31874W        W74865   4.058  25.588  27.978  0.0154 -0.1149 -0.0656
31875W        W74866  29.277  30.965  14.923 -0.0849  0.2396 -0.1448
31876W        W74867  11.979   3.577  23.548  0.0234 -0.0029 -0.1294
31877W        W74868   7.496  29.361  23.028  0.0520 -0.0302  0.0503
31878W        W74869   5.793   4.663  18.018  0.0404 -0.1120 -0.1551
31879W        W74870  10.314  29.846  27.687  0.3710  0.0525 -0.1305
31880W        W74871  32.266  22.961  26.444  0.3181 -0.2266 -0.0086
31881W        W74872  26.247  30.906  17.563 -0.0423  0.1257  0.0919
31882W        W74873  11.021   0.106  18.138 -0.2811  0.0854  0.1398
31883W        W74874  30.927  32.108  21.040  0.1709  0.2294 -0.1745
31884W        W74875  23.721  34.222  23.929  0.1032  0.2421  0.1475
31885W        W74876  16.384  11.570   2.191  0.0756  0.1521  0.3087
31886W        W74877  26.583  29.355  17.657 -0.0774  0.0973 -0.0085
31887W        W74878   4.139  20.337  28.901 -0.0196 -0.0696  0.3015
31888W        W74879  12.799  20.566  24.062  0.1948 -0.0193  0.3592
31889W        W74880  17.751   2.125   2.905 -0.0939  0.1359 -0.1682
31890W        W74881   4.860  14.290  23.417  0.1211 -0.1487 -0.1375
31891W        W74882   1.376  27.410  21.480 -0.2894  0.0038  0.0186
31892W        W74883  20.870   6.905   5.585 -0.0952  0.2282 -0.0731
31893W        W74884   3.750  34.249  20.276 -0.1301 -0.2780  0.3028
31894W        W74885   3.276  30.032  16.472  0.0003  0.1212  0.0854
31895W        W74886   1.420  26.281  16.896 -0.1437 -0.1713 -0.0340
31896W        W74887   5.964  34.175  23.960  0.1704  0.1621 -0.0973
31897W        W74888  20.021  23.255  22.276 -0.0171 -0.4946 -0.2111
31898W        W74889  13.524  10.806  16.886  0.0178  0.0302  0.1535
31899W        W74890   3.468  23.449  16.550 -0.0544 -0.3690 -0.2229
31900W        W74891   2.462   4.671  16.529 -0.0823 -0.2774 -0.1352
31901W        W74892   6.387  33.123  21.119  0.1489 -0.0599 -0.0186
31902W        W74893   2.758  29.202  19.591  0.0481  0.0591  0.1438
31903W        W74894  10.478   4.876  17.705 -0.1567  0.2573  0.1508
31904W        W74895  32.548  27.594  16.289  0.2850  0.1989 -0.0040
31905W        W74896   1.604  31.093   1.523  0.0434 -0.0200  0.2082
31906W        W74897  28.123  24.219  15.706 -0.0722 -0.0082  0.3316
31907W        W74898  11.130  23.998  25.073 -0.0572  0.0997  0.0488
31908W        W74899  16.216  23.066  24.350 -0.1750 -0.0184 -0.0336
31909W        W74900  14.430  28.523  28.784 -0.2059  0.1929 -0.2887
31910W        W74901   0.879  34.583  24.719 -0.1751  0.2217 -0.0063
31911W        W74902   0.060  23.311  18.860 -0.0893 -0.1763 -0.2844
31912W        W74903  34.523  22.443  28.825 -0.0500 -0.0283  0.4113
31913W        W74904  26.215   6.030  21.584 -0.2455 -0.2485  0.2842
31914W        W74905   8.689  18.550  24.758 -0.2178  0.1909  0.0691
31915W        W74906   1.504  26.993  17.387  0.0235 -0.1052  0.3379
31916W        W74907  34.483   7.358  25.637  0.0893  0.0818 -0.1483
31917W        W74908  14.520  32.772  19.229 -0.0123 -0.0638  0.3239
31918W        W74909  18.681   8.117  15.718 -0.1509 -0.3886 -0.3675
31919W        W74910  10.396  10.995  19.299  0.0086 -0.2738  0.1309
31920W        W74911  15.641  33.380  21.874 -0.0887 -0.1205  0.2653
31921W        W74912   6.031  21.675  18.020  0.3298 -0.0001  0.0105
31922W        W74913  27.978   2.235  21.669 -0.1617  0.1352  0.1971
31923W        W74914  24.803  27.819  18.408  0.6332  0.1481 -0.0366
31924W        W74915  17.948  31.220  16.636  0.0101  0.0940 -0.1850
31925W        W74916   4.383  33.909  21.310 -0.1644  0.0935 -0.0484
31926W        W74917   3.874  30.890  14.509 -0.3934  0.2270 -0.1900
31927W        W74918  14.999   2.864  20.191 -0.1278  0.2235 -0.1237
31928W        W74919   1.646   7.833  16.774 -0.2021 -0.3606 -0.0285
31929W        W74920   3.403  28.776  15.814 -0.1688  0.3085 -0.1232
31930W        W74921  13.790  24.254  21.161  0.1359 -0.0776  0.1201
31931W        W74922  17.683   5.571  17.595  0.0841  0.1076  0.3671
31932W        W74923   1.783  23.007  24.575 -0.2238 -0.0285  0.0716
31933W        W74924   8.447  11.803  25.296  0.2401  0.0339 -0.0549
31934W        W74925  17.777  28.083  15.728 -0.2463  0.1210  0.1639
31935W        W74926   4.269   3.054  16.343  0.2357  0.2755 -0.1473
31936W        W74927   0.831   8.669  22.320 -0.0939  0.0771 -0.0430
31937W        W74928  32.539  32.069  14.258  0.1692 -0.1682  0.1274
31938W        W74929  19.328   1.882  14.170 -0.0081 -0.3404  0.0763
31939W        W74930  10.896  26.579  18.354  0.0665 -0.2507 -0.1417
31940W        W74931   0.453   7.916  20.044 -0.1461  0.2094  0.1055
31941W        W74932  34.732  27.233  20.074 -0.3030  0.0984  0.1191
31942W        W74933   5.513  30.244  15.187 -0.4148  0.1489 -0.2481
31943W        W74934  24.705  16.055  19.109 -0.1755 -0.0741 -0.2069
31944W        W74935  18.458  29.393  14.061 -0.0106  0.1894  0.1257
31945W        W74936  33.834  24.859  13.370 -0.1521 -0.0858  0.0568
31946W        W74937   1.799   0.639   5.509  0.0816 -0.2473  0.1110
31947W        W74938  32.211  32.406  20.421 -0.3096 -0.0835 -0.1488
31948W        W74939  10.889  18.118  16.639  0.1501  0.0821 -0.2549
31949W        W74940  34.275   9.714  25.050 -0.1122 -0.1338  0.1127
31950W        W74941  12.486  28.177  25.538 -0.0293 -0.1127 -0.2352
31951W        W74942  31.852  17.889  11.359  0.0907  0.0929 -0.1630
31952W        W74943  14.262   8.769  17.803 -0.1274 -0.2552  0.1627
31953W        W74944   8.687  17.905  23.357 -0.2207 -0.3158  0.0732
31954W        W74945   5.705  31.964  22.002  0.2273  0.1367  0.0186
31955W        W74946  13.793  24.830  17.461  0.0612  0.4204  0.1880
31956W        W74947  30.975  32.464  21.465 -0.4335  0.6541 -0.3377
31957W        W74948   0.624  30.880   2.929 -0.2432  0.0596  0.3037
31958W        W74949   6.839  29.713   8.137 -0.0650  0.0136  0.0682
31959W        W74950   6.094  19.727   0.487 -0.4937 -0.2133  0.1038
31960W        W74951   0.367   2.423  15.792  0.2285 -0.1106  0.1787
31961W        W74952  31.605  15.406  16.057 -0.0478 -0.0063 -0.1731
31962W        W74953  34.157   5.239  16.437  0.0244 -0.0882 -0.3744
31963W        W74954   3.761  24.777  20.997  0.0885 -0.2451  0.0322
31964W        W74955  16.480   7.637  15.119  0.1339  0.0155  0.5733
31965W        W74956   6.656  18.803  15.473 -0.2816  0.4434  0.0128
31966W        W74957  26.051  21.960  23.525 -0.0704  0.1238 -0.0972
31967W        W74958  26.823  14.409  20.820 -0.3061  0.2702 -0.0367
31968W        W74959   6.084  13.128   2.190  0.1312  0.5250 -0.1687
31969W        W74960   4.779   3.704  15.727  0.2462  0.1390  0.1793
31970W        W74961   3.338  27.504   2.528 -0.0319 -0.2424 -0.0158
31971W        W74962  12.892  18.857  20.846  0.0980  0.1975 -0.0496
31972W        W74963  31.483   1.612  14.898  0.2057  0.3327 -0.0335
31973W        W74964  31.149  20.493  19.024  0.1959  0.0471 -0.1414
31974W        W74965  16.400  23.824  14.562  0.1403 -0.2846  0.3394
31975W        W74966  27.155  24.203  15.819 -0.0479  0.0972  0.2055
31976W        W74967  18.666  25.881  18.523 -0.1405  0.1648  0.0798
31977W        W74968  30.965   7.855  16.189 -0.2808 -0.1293  0.1747
31978W        W74969  30.248  22.141  24.406  0.1442 -0.2266 -0.0326
31979W        W74970  22.361  21.834  23.096  0.0253 -0.0319 -0.0395
31980W        W74971   2.359  32.287   0.927 -0.0264  0.2091  0.2895
31981W        W74972  32.701   0.387  15.506  0.0452  0.1720  0.2373
31982W        W74973  26.209   0.113  25.190  0.2976  0.0412  0.0512
31983W        W74974  33.457   2.957  25.301 -0.1646 -0.0956 -0.1252
31984W        W74975  11.451   5.422  16.388 -0.0246 -0.1020  0.0083
31985W        W74976   8.667  14.963  15.158 -0.1353 -0.3781 -0.0218
31986W        W74977  15.018  16.526  15.893 -0.0173  0.0956  0.1734
31987W        W74978   2.764  25.851  27.530 -0.0602  0.1969 -0.1396
31988W        W74979   9.607  24.565  15.867  0.0827  0.0099  0.3073
31989W        W74980  10.676  10.852  14.722 -0.0777  0.1140  0.2252
31990W        W74981  11.187   8.719   0.325 -0.2563  0.0417  0.1471
31991W        W74982  32.891  15.555  27.035 -0.3049  0.0869 -0.2301
31992W        W74983  29.281  29.289  13.801  0.0564 -0.1247  0.0540
31993W        W74984   3.170  28.054  15.193 -0.2950 -0.0734  0.0493
31994W        W74985   4.589  23.458   9.718 -0.3346 -0.2909  0.1483
31995W        W74986   2.032  18.928  24.389  0.0232  0.1738  0.0489
31996W        W74987  29.639  34.120  16.847 -0.0283  0.2454 -0.0931
31997W        W74988   3.473  34.275  14.737  0.2294  0.1308 -0.1191
31998W        W74989   2.190   6.854  18.793 -0.1983 -0.2351  0.3170
31999W        W74990   1.956  14.180  19.723 -0.2165 -0.0304 -0.1784
32000W        W74991  13.642  30.552  16.388  0.2061  0.1124 -0.1271
32001W        W74992   6.474   6.770  22.103  0.0275  0.1402 -0.2777
32002W        W74993   0.155  29.903  24.588  0.4452  0.0371 -0.4317
32003W        W74994   6.933  28.794  28.827  0.2184 -0.0621 -0.2236
32004W        W74995  10.651  31.718  17.148  0.0889  0.2321 -0.2129
32005W        W74996  33.899  26.395  15.936 -0.1125  0.1046  0.2485
32006W        W74997   8.723  29.446   9.194 -0.3455 -0.0725  0.0201
32007W        W74998   8.123  17.538  17.333 -0.0697  0.2995  0.1757
32008W        W74999  23.777   1.507  25.205  0.0386  0.0844 -0.0664
32009W        W75000   0.408  25.839   6.080  0.1265 -0.1858  0.0660
32010W        W75001  10.226  16.391  22.680 -0.0427 -0.2975 -0.2171
32011W        W75002   3.109  22.392  20.912  0.2923 -0.1552  0.0765
32012W        W75003  32.156   1.213  19.619 -0.1651  0.0158  0.3433
32013W        W75004  23.068  11.108  19.006 -0.0901  0.0479 -0.2249
32014W        W75005   6.315  12.018  27.990 -0.1464 -0.2402 -0.1173
32015W        W75006  25.638   1.708  14.307  0.2804  0.0381  0.1045
32016W        W75007   1.883  23.459  24.230  0.2075 -0.0546 -0.2631
32017W        W75008  31.020  23.078  22.773 -0.0304  0.4106 -0.0885
32018W        W75009  33.188  13.019  18.294  0.0720  0.1891 -0.0899
32019W        W75010   9.220  22.024  15.528 -0.0826  0.1909 -0.0124
32020W        W75011  30.608   1.410  14.242 -0.0379  0.2233  0.1108
32021W        W75012   7.873   2.558  25.350 -0.1358  0.0407  0.1691
32022W        W75013   7.887  25.988  24.386 -0.4876  0.1605  0.0244
32023W        W75014   5.815  24.209   3.907 -0.1822  0.3655  0.1913
32024W        W75015   3.291   2.331  18.008 -0.1111  0.3404 -0.2397
32025W        W75016   6.785   3.674  20.796 -0.3278 -0.1781  0.3383
32026W        W75017  14.149  21.650  23.171  0.0422 -0.0297 -0.1255
32027W        W75018  22.911  29.040  14.279  0.0459  0.0751 -0.2540
32028W        W75019  30.495  32.768  23.165 -0.2537  0.0290 -0.1854
32029W        W75020   4.960  33.115  18.725 -0.0828 -0.1620 -0.0016
32030W        W75021   2.759  14.867  19.523  0.0469  0.1204 -0.2362
32031W        W75022  13.694   7.994  20.165 -0.1574  0.2663 -0.0245
32032W        W75023   0.707  29.562  19.419  0.2687  0.0305 -0.0540
32033W        W75024   3.685   6.872  14.602 -0.1036  0.0130 -0.0770
32034W        W75025   3.908  18.210  23.309  0.1251  0.0584  0.0090
32035W        W75026  23.758  23.081  26.921 -0.1880  0.1022  0.2446
32036W        W75027   2.646  31.716  18.418  0.0761 -0.2831 -0.1545
32037W        W75028  13.870  29.036   0.976  0.0339 -0.1726 -0.1531
32038W        W75029   7.676  29.659  21.860 -0.0420  0.1981 -0.1722
32039W        W75030  11.826  30.656  23.929 -0.2360  0.1713  0.2383
32040W        W75031   1.603  23.508   5.656 -0.0277 -0.0440  0.1057
32041W        W75032   8.380   3.284  19.333 -0.1580  0.0586 -0.0821
32042W        W75033  24.431   0.748  25.284 -0.0571 -0.4823 -0.1956
32043W        W75034  16.216  11.528   5.381 -0.1166 -0.1586 -0.1911
32044W        W75035  32.988  27.083  22.508  0.1043  0.0089  0.0822
32045W        W75036  18.423  26.024  15.012 -0.0750 -0.0225 -0.1438
32046W        W75037  25.257  33.051  13.734  0.2330 -0.2036  0.0034
32047W        W75038  29.187  20.119  18.886  0.0045  0.2997  0.0237
32048W        W75039  14.827   1.095  15.781 -0.4097  0.0869  0.3081
32049W        W75040   1.483  18.458  15.150 -0.1045  0.1166  0.2258
32050W        W75041   5.416  31.796  27.082  0.0874  0.0538  0.0572
32051W        W75042  13.033  23.062  14.287 -0.0429 -0.2265  0.1654
32052W        W75043  27.621  33.379  15.789 -0.0381  0.0260 -0.1198
32053W        W75044  10.844   9.006  24.026 -0.1309 -0.2897  0.2530
32054W        W75045  27.465  12.141   4.197 -0.0181  0.3018  0.0192
32055W        W75046  30.530  34.204  18.315  0.1836  0.0023 -0.1472
32056W        W75047  11.621  18.367  20.563 -0.3589  0.1784 -0.0544
32057W        W75048   4.561  13.138  24.974  0.3188  0.0551  0.0241
32058W        W75049  19.349   0.161   1.215 -0.0804  0.4104  0.2227
32059W        W75050   9.914  21.568  26.932  0.0291 -0.0279 -0.2840
32060W        W75051  27.598   9.540  26.477 -0.1255  0.2071  0.0123
32061W        W75052  12.928  34.087  18.800  0.1669 -0.1555  0.0818
32062W        W75053  11.502   4.015   1.059  0.1286  0.1733  0.1929
32063W        W75054   5.630  15.909  24.641 -0.0624  0.2351 -0.1685
32064W        W75055   4.952   3.970  16.756 -0.1095 -0.0188 -0.1541
32065W        W75056   7.981  29.159  14.918 -0.2522 -0.0614 -0.1718
32066W        W75057   9.247  28.510  26.889 -0.1504  0.2246  0.2875
32067W        W75058   1.642  17.955  20.777  0.1367  0.1076  0.4308
32068W        W75059   4.782  32.106  21.318  0.1091  0.0708  0.0562
32069W        W75060  10.317  32.057  21.081  0.2203 -0.1244  0.0532
32070W        W75061   6.915  33.510  18.815  0.1212  0.0208  0.0403
32071W        W75062  22.313  32.880  28.031 -0.1894  0.3315 -0.2536
32072W        W75063   4.649  24.380  22.251 -0.2680  0.1758 -0.0028
32073W        W75064  24.102  26.830  19.514  0.0101  0.2255  0.2743
32074W        W75065   4.932  23.173  26.971 -0.0217 -0.2406  0.2716
32075W        W75066   4.096  24.768  15.329  0.2171 -0.1459  0.1044
32076W        W75067   3.710  17.834   0.202 -0.2921  0.1793 -0.1892
32077W        W75068  22.545   3.285  27.041  0.0874 -0.1029  0.1204
32078W        W75069  34.407  29.583  17.231 -0.1475  0.0880  0.0429
32079W        W75070  21.644  29.857  13.861 -0.3575  0.0732  0.2018
32080W        W75071  14.641  26.954  20.174 -0.0423 -0.1604 -0.0470
32081W        W75072   8.143  18.317  14.958  0.0014  0.2090  0.0814
32082W        W75073  13.081   2.979  25.283  0.0175  0.4017  0.2317
32083W        W75074  16.236  32.637  14.211 -0.1523  0.0805  0.0828
32084W        W75075  33.959  34.321  21.842 -0.1164  0.1075  0.4129
32085W        W75076  11.074   1.272  26.407 -0.0656 -0.0687  0.0542
32086W        W75077   5.451  32.476  20.824 -0.4310  0.0453  0.1398
32087W        W75078  18.125  23.060  19.763 -0.0229  0.0150 -0.0981
32088W        W75079  10.715   8.987  22.670  0.4467 -0.1467 -0.2116
32089W        W75080   6.312  24.187  19.185  0.0872  0.0671  0.2989
32090W        W75081   9.666   8.334   4.978  0.2013  0.0383  0.5250
32091W        W75082  28.703  16.106   5.122  0.2547 -0.0617  0.4428
32092W        W75083   7.048  25.015  21.232 -0.1258 -0.3414  0.1801
32093W        W75084  15.390  22.876  20.729  0.1356  0.0807  0.2135
32094W        W75085  16.619   5.753   3.431 -0.1664 -0.3060  0.0884
32095W        W75086   1.299  28.390  15.208 -0.3065 -0.0000  0.2251
32096W        W75087  18.149  23.355   1.448 -0.0593  0.0970 -0.0492
32097W        W75088  18.269  24.726   3.134  0.0006 -0.0374 -0.3051
32098W        W75089  30.058   4.707  19.676  0.1526 -0.0775 -0.0913
32099W        W75090   2.196  28.817  20.455 -0.1174  0.0349  0.0302
32100W        W75091   8.875  21.549  15.657  0.2718 -0.1188  0.0880
32101W        W75092  15.490  29.990  16.367 -0.0676 -0.0014 -0.1252
32102W        W75093   6.916  31.944  17.228  0.2425 -0.0052  0.1263
32103W        W75094  13.426  10.397  19.878 -0.1552 -0.0986 -0.0266
32104W        W75095  14.526  30.160  16.674 -0.0566  0.1930  0.1669
32105W        W75096  33.124   1.821   2.267 -0.3296  0.1020  0.0054
32106W        W75097   4.800  26.413  23.859  0.1795 -0.5294  0.0713
32107W        W75098   1.799  19.551   1.407 -0.0679  0.1518 -0.0835
32108W        W75099  28.976  26.838  15.790 -0.0163  0.1503  0.0220
32109W        W75100  26.037  33.083  26.777 -0.1946  0.1712 -0.3773
32110W        W75101  30.603  26.322  27.047  0.0094 -0.3372 -0.1063
32111W        W75102  33.670  24.613  20.748 -0.1324  0.0453  0.1572
32112W        W75103   2.675   6.089  26.602  0.0042  0.0906 -0.1108
32113W        W75104  14.060  26.874  18.955 -0.0818 -0.3741  0.0087
32114W        W75105  29.091   6.550  25.227 -0.2427  0.2510  0.0887
32115W        W75106  13.995  30.752  25.758 -0.3329  0.0993 -0.3081
32116W        W75107  34.656   0.652  19.981  0.0641  0.2621 -0.1769
32117W        W75108  22.932   9.779   5.655  0.0683 -0.2226 -0.3055
32118W        W75109  23.292   1.526  16.602  0.1684 -0.4880 -0.0115
32119W        W75110  32.642  25.831  19.920 -0.3015  0.1882 -0.4116
32120W        W75111  30.408  23.048  18.446  0.0976  0.0946  0.1714
32121W        W75112  33.890   3.903  15.630  0.0061  0.2149 -0.1155
32122W        W75113  14.116  25.206  20.472  0.1353  0.0682  0.1637
32123W        W75114  24.921  11.593   9.231  0.1877  0.1725 -0.0096
32124W        W75115  33.465  32.916  19.601  0.0139 -0.0436  0.3063
32125W        W75116  24.565  33.788  15.300  0.1384  0.0402 -0.3318
32126W        W75117  15.369  20.049  13.664  0.1599 -0.0655 -0.0662
32127W        W75118  32.539   1.862  18.199  0.2077  0.0186 -0.0115
32128W        W75119  18.326  33.309  25.739 -0.1522 -0.0280 -0.0731
32129W        W75120   8.779  24.173  21.632  0.2230  0.1353  0.1922
32130W        W75121  13.911  23.382  24.989  0.2045  0.0244 -0.2637
32131W        W75122  13.980  31.955  17.131  0.2423  0.1199 -0.0005
32132W        W75123  28.460  13.688   0.950  0.0563 -0.0587 -0.3073
32133W        W75124  27.779  11.726  21.762  0.0560  0.0526 -0.2462
32134W        W75125  22.486  27.022   6.957  0.2321 -0.1406  0.0135
32135W        W75126  15.669  26.382  28.193  0.0551  0.1437  0.0069
32136W        W75127   9.366  18.183  14.320  0.0421  0.0387 -0.0411
32137W        W75128   1.161   3.175  25.082 -0.2175  0.0746  0.1862
32138W        W75129   6.506  13.900  19.694 -0.0936 -0.0313  0.0399
32139W        W75130   4.921  26.431  27.026 -0.0622  0.0081  0.2242
32140W        W75131  22.761   6.665   6.283  0.1565 -0.0524  0.0913
32141W        W75132   8.440   8.949   0.557 -0.1210 -0.0811  0.1389
32142W        W75133   2.217  33.419  15.420  0.2638  0.0047 -0.1294
32143W        W75134   3.343   3.766   6.053 -0.0875 -0.0624  0.1209
32144W        W75135  23.367  29.936  15.135 -0.0439  0.0970 -0.2880
32145W        W75136   2.309   0.057  16.910 -0.2873  0.2563  0.3520
32146W        W75137   4.490  31.685  19.747  0.1752  0.1200 -0.0601
32147W        W75138  27.522  25.172  23.247 -0.0512  0.0434  0.2226
32148W        W75139  34.584  18.819  27.409 -0.3250 -0.1344  0.2109
32149W        W75140   8.337  17.784  16.959  0.1040  0.3173  0.1311
32150W        W75141  10.353  12.846  18.123 -0.1150  0.0682 -0.2051
32151W        W75142  15.810  23.839  20.263 -0.0685  0.1062  0.1827
32152W        W75143  11.614  24.781  21.343  0.0204  0.1124 -0.0085
32153W        W75144  10.986  28.028   6.447 -0.1117  0.0384 -0.2670
32154W        W75145  28.127   4.113  14.233 -0.1722 -0.2597 -0.2908
32155W        W75146  27.022  14.028  22.904 -0.3543  0.1807 -0.0562
32156W        W75147  13.265  32.793  16.131  0.1029 -0.1482  0.0849
32157W        W75148   1.490  32.288  15.152 -0.0630  0.2062 -0.2093
32158W        W75149   6.987  19.917   0.168 -0.1619 -0.0443 -0.0532
32159W        W75150   8.637  22.193  23.028 -0.3493  0.0125  0.1440
32160W        W75151  11.247  13.807  19.216  0.5085 -0.0724 -0.2258
32161W        W75152  34.557  26.370  18.255  0.0612  0.3081  0.0533
32162W        W75153  21.175  17.748  15.631 -0.1659  0.0397 -0.0710
32163W        W75154   4.296  31.066  23.083 -0.0235 -0.1880 -0.2413
32164W        W75155   8.285  15.031   6.424 -0.2944 -0.4938  0.1189
32165W        W75156  17.657   1.833  16.654  0.0010  0.0356  0.3582
32166W        W75157   1.969   6.823  17.180  0.1047 -0.1558  0.0027
32167W        W75158  20.580  28.302  18.962 -0.1446 -0.2908 -0.3381
32168W        W75159  16.158  24.174  24.002  0.0628 -0.2120 -0.0593
32169W        W75160  29.973  24.670  18.104 -0.2233  0.1210 -0.3162
32170W        W75161  30.657   1.238  25.204 -0.0106 -0.1493  0.0609
32171W        W75162  18.052   2.171  25.396  0.2055  0.1055 -0.0959
32172W        W75163   7.100  26.041  22.022  0.2280 -0.0759 -0.0909
32173W        W75164   2.637  12.842  20.966  0.2456 -0.0830  0.0226
32174W        W75165   5.027  34.760  18.773 -0.0522 -0.4468  0.0110
32175W        W75166   3.345  19.547  26.180 -0.2518  0.2604 -0.0089
32176W        W75167  13.050   0.173  23.619 -0.3231 -0.1639  0.1176
32177W        W75168   8.208   0.522  18.387  0.0615 -0.2350 -0.1408
32178W        W75169   7.607   8.491  27.567 -0.1254  0.1862  0.0523
32179W        W75170  19.971  26.813  22.844  0.2968 -0.1235  0.0533
32180W        W75171  29.147   8.706  18.980 -0.0920 -0.2820  0.0936
32181W        W75172  22.162  32.031  19.160  0.1718  0.0962  0.2020
32182W        W75173  21.619  29.123  15.393  0.0205 -0.1124  0.0102
32183W        W75174  10.759  13.973  20.815  0.0357 -0.0927 -0.0927
32184W        W75175  23.684  17.839  16.988  0.0436 -0.0001  0.1945
32185W        W75176   4.191  27.438  25.071 -0.1926  0.0421  0.0144
32186W        W75177   0.630  16.108  24.306  0.1549 -0.4322 -0.2065
32187W        W75178  17.322  22.323  12.619  0.0662  0.0565  0.1315
32188W        W75179   1.869  23.341  28.490  0.0728 -0.1034 -0.1946
32189W        W75180   2.374  27.866   8.966  0.0697  0.0813 -0.0285
32190W        W75181   7.890  25.650  17.540 -0.0040  0.1005  0.0483
32191W        W75182  32.244  26.943  14.781  0.1780 -0.2475 -0.1344
32192W        W75183   3.507   8.175  17.837  0.1452  0.0814  0.0868
32193W        W75184   2.066   2.957  24.538  0.1060 -0.1574 -0.2517
32194W        W75185  15.847   7.258  26.602 -0.0855 -0.0803  0.1108
32195W        W75186  11.595  24.097  24.680 -0.3053  0.0174 -0.3925
32196W        W75187  12.071  30.253  29.029  0.3249 -0.2322  0.0896
32197W        W75188  32.771  18.181   0.322 -0.1224  0.2004  0.0336
32198W        W75189  12.393   9.732  21.813  0.2810  0.6429 -0.4567
32199W        W75190  16.063  25.103  22.716 -0.2588  0.0585 -0.1909
32200W        W75191  17.353  32.386  24.389 -0.2319  0.0472 -0.4008
32201W        W75192  16.634  26.707  25.112  0.1914 -0.2251 -0.0070
32202W        W75193  21.380   5.127   2.538  0.2612 -0.1032 -0.1624
32203W        W75194  32.272   8.299  25.559 -0.1752 -0.1422  0.1187
32204W        W75195  16.684   0.902  20.511 -0.2463  0.1020  0.0750
32205W        W75196  31.019   0.544  16.470 -0.0052  0.1965 -0.0162
32206W        W75197  31.323  28.754  26.558  0.0039 -0.2732  0.0350
32207W        W75198  24.033   5.053   0.688 -0.0337 -0.3836 -0.0490
32208W        W75199  23.224  27.780  25.235 -0.2320 -0.0214 -0.0936
32209W        W75200   0.978  15.648  19.629  0.0007  0.0913 -0.0423
32210W        W75201  25.159  28.028  26.636 -0.0110 -0.1014  0.3387
32211W        W75202   5.605   1.714  15.681 -0.2706  0.1252 -0.0822
32212W        W75203  32.215  34.751  16.228  0.0819  0.1113  0.2192
32213W        W75204  30.727  33.930  19.936 -0.1378  0.0927  0.0902
32214W        W75205   8.269  29.317  21.408  0.1363  0.1687  0.0966
32215W        W75206  34.363  32.162  22.977 -0.1267 -0.0086 -0.2534
32216W        W75207   8.466  19.278  17.657 -0.0264 -0.1043 -0.2004
32217W        W75208  21.271  16.664  28.043  0.1596  0.1787 -0.0797
32218W        W75209  31.095  19.974  24.889 -0.2271  0.1800 -0.1324
32219W        W75210  19.125  32.674  20.634  0.1147  0.0825  0.0024
32220W        W75211  15.744   6.819  15.773 -0.1260 -0.0916 -0.2983
32221W        W75212  24.792  15.638  18.767  0.2057 -0.0973 -0.1292
32222W        W75213  26.480   2.355  21.942 -0.1414 -0.0531 -0.1684
32223W        W75214   7.478   8.272  20.151 -0.2033  0.0232  0.1289
32224W        W75215   2.031  29.772  26.785  0.0286  0.1589  0.0853
32225W        W75216  11.000  21.661  20.584 -0.1793  0.0572 -0.1080
32226W        W75217  25.492   2.334   0.421 -0.0384 -0.0329 -0.3703
32227W        W75218   0.990  32.548  22.817 -0.1350 -0.1182  0.0235
32228W        W75219  28.505  31.610   8.831 -0.1729  0.0359  0.0346
32229W        W75220   9.852  20.033  29.245  0.2083 -0.3856 -0.1905
32230W        W75221  32.304  15.414  25.983  0.3471 -0.2315  0.1535
32231W        W75222  34.576   7.878  28.545 -0.0042 -0.1674 -0.0839
32232W        W75223   1.489   9.659  15.609  0.0063 -0.1366  0.1444
32233W        W75224   2.506  23.446  14.760 -0.1667  0.0307  0.1059
32234W        W75225  19.534  19.280  26.826 -0.1447  0.1113  0.1324
32235W        W75226   8.887   0.406  22.056 -0.0687  0.0020  0.3416
32236W        W75227   8.518  26.698  15.200  0.0122  0.1513 -0.0062
32237W        W75228   5.294  11.365  16.768  0.3161  0.3282 -0.1621
32238W        W75229   6.677  34.773  21.584 -0.2400  0.0765  0.1374
32239W        W75230   8.554   4.720  21.518  0.0765  0.0796 -0.3022
32240W        W75231  19.482   0.715  22.375 -0.3500  0.2440  0.1286
32241W        W75232  22.367  34.078  23.637  0.1072 -0.0733 -0.1673
32242W        W75233  10.274  27.266  21.020  0.1248  0.3301  0.0864
32243W        W75234   6.377  33.308  18.558  0.1692 -0.1621 -0.0029
32244W        W75235  28.938  17.732   5.146 -0.0681 -0.2457 -0.0248
32245W        W75236  29.478  32.880   2.602  0.0829 -0.2234  0.2844
32246W        W75237   0.745  30.600  16.491 -0.0060 -0.1027 -0.3272
32247W        W75238  14.406  29.864   2.452 -0.2493  0.0176 -0.0480
32248W        W75239   5.211   8.208  27.408  0.0721  0.1022  0.1023
32249W        W75240  26.574  30.759  21.703 -0.2938  0.2396  0.0613
32250W        W75241   0.160   0.982  16.677 -0.0674  0.0972  0.1317
32251W        W75242   6.355  30.770  20.592  0.0857 -0.3125 -0.0775
32252W        W75243   5.450  18.759  23.135  0.0036  0.0495  0.0549
32253W        W75244   1.237  33.126  22.274  0.2941 -0.2355  0.0034
32254W        W75245   2.447  11.886  19.138  0.0907 -0.1788 -0.1210
32255W        W75246  30.379  26.301   0.481 -0.0641 -0.4201 -0.2764
32256W        W75247  21.679  26.123   2.341  0.3627  0.3365 -0.2097
32257W        W75248  12.170  27.123  18.567  0.1299 -0.3549 -0.1401
32258W        W75249  26.336  33.824  22.836 -0.1349 -0.0551 -0.2800
32259W        W75250   5.968  19.364  15.608 -0.0594  0.1552 -0.1594
32260W        W75251  13.977  31.453  24.914  0.2079  0.1943 -0.0059
32261W        W75252   0.724  14.138   8.229 -0.1080 -0.0016 -0.0074
32262W        W75253  27.740  20.250  18.090 -0.2065  0.0278  0.0240
32263W        W75254   1.658  31.243  15.241  0.1003  0.2141 -0.0637
32264W        W75255   3.443  20.119  22.988 -0.3358 -0.2541 -0.2706
32265W        W75256   4.232  31.340  16.257  0.1403 -0.1610 -0.0046
32266W        W75257   2.176  24.242  24.674 -0.3540  0.0958 -0.1474
32267W        W75258  33.261  23.167  26.221 -0.0369 -0.0613  0.2013
32268W        W75259  31.650  19.765  18.600  0.0509 -0.1791  0.4045
32269W        W75260  30.648   7.060  25.232 -0.1822 -0.0583  0.2064
32270W        W75261   5.773   1.980   6.567  0.0105  0.0857 -0.0696
32271W        W75262  13.229  14.093  15.707  0.1763  0.1805  0.2958
32272W        W75263  15.357  22.297  25.148 -0.1558  0.1486  0.0515
32273W        W75264  13.360  23.476   9.575 -0.1505  0.0504  0.0488
32274W        W75265   1.642  23.109   2.070  0.2433  0.1795 -0.4041
32275W        W75266  15.642  32.089  27.775  0.0482  0.1551  0.0122
32276W        W75267   3.089  17.095  18.697  0.4684  0.0288 -0.0040
32277W        W75268  28.307  33.658  27.917  0.2601  0.0083  0.2090
32278W        W75269   3.848  24.191  14.766 -0.2592 -0.0164 -0.3118
32279W        W75270   2.617   1.290  19.283  0.1874  0.2349  0.2853
32280W        W75271   4.539  23.355  14.749 -0.1284  0.2162 -0.2669
32281W        W75272  11.345  29.552  24.253  0.1029  0.1059  0.0425
32282W        W75273  23.379   2.909   2.321  0.0730  0.1310 -0.1020
32283W        W75274   3.188  10.841  19.080 -0.2543  0.1333  0.0081
32284W        W75275  30.531  23.119  23.613 -0.0814 -0.3247  0.0860
32285W        W75276   1.007   4.706  23.441  0.2570 -0.0207 -0.1758
32286W        W75277  25.748   4.854  16.709 -0.1984  0.1617  0.0570
32287W        W75278  27.687  29.591  21.635  0.1120  0.1335 -0.3466
32288W        W75279  18.101  11.641   2.234  0.0947  0.1406  0.2815
32289W        W75280  18.740  28.222  21.818  0.0625  0.3311 -0.0028
32290W        W75281  21.961  31.843  29.245  0.0584 -0.1451  0.2715
32291W        W75282   0.646  13.455  20.490 -0.0960  0.4881 -0.1437
32292W        W75283   4.286  14.215   6.768 -0.1777  0.0984 -0.1506
32293W        W75284  28.822  33.668   4.296 -0.0665  0.1086  0.1678
32294W        W75285   7.052  25.331  15.958  0.1720  0.1867  0.0084
32295W        W75286  30.915   0.310  19.612 -0.0579 -0.0948  0.0720
32296W        W75287   6.816   6.834   2.979  0.0497  0.2720  0.1089
32297W        W75288  20.442  21.292  18.480 -0.2594 -0.0266  0.1683
32298W        W75289  28.578  27.693   2.672 -0.1161  0.4738 -0.0935
32299W        W75290  28.852  28.069  15.094  0.1846 -0.1657  0.2680
32300W        W75291  22.989   1.288   1.742 -0.1160  0.2905  0.0105
32301W        W75292  21.753   2.473  20.616 -0.1052 -0.2198  0.2234
32302W        W75293   0.448  21.288   5.382  0.3395  0.0603  0.0297
32303W        W75294   7.528  26.440  20.094 -0.0999 -0.3281  0.3593
32304W        W75295   3.266  13.190  28.818 -0.3640 -0.3962 -0.2763
32305W        W75296  11.807   8.510  28.828  0.0112  0.2621  0.3622
32306W        W75297  10.039  25.201  18.649 -0.2742 -0.1206 -0.1797
32307W        W75298  12.453  26.975  16.601 -0.1446 -0.3792 -0.1490
32308W        W75299   8.709  20.010   5.102  0.2812  0.0781 -0.1747
32309W        W75300  29.456  19.435   1.716 -0.0243 -0.0715  0.1884
32310W        W75301   6.240   2.525  17.802  0.2051  0.0490 -0.1242
32311W        W75302   3.608  33.707   6.897 -0.1914  0.0014  0.0484
32312W        W75303   4.424  19.454   6.285  0.0252 -0.1363 -0.2794
32313W        W75304   0.484  28.355  28.787 -0.2779  0.0447 -0.1396
32314W        W75305   5.143  18.213  17.763 -0.0105  0.1283  0.0658
32315W        W75306   4.558  27.260   3.886  0.3665 -0.0570  0.0454
32316W        W75307   0.321  22.689  17.602  0.3677 -0.0859 -0.1090
32317W        W75308  17.204  34.007  21.898 -0.2070 -0.0268  0.1367
32318W        W75309   3.737  19.531  23.683 -0.1421  0.0552  0.1283
32319W        W75310  15.301  33.816  23.601 -0.2748  0.0082  0.4558
32320W        W75311  14.344   9.776  20.642  0.0995 -0.3101  0.0125
32321W        W75312  23.751  26.961  26.076 -0.0228 -0.1809  0.2878
32322W        W75313  12.722  23.977  26.202  0.1661 -0.1131  0.4213
32323W        W75314   1.834   2.309   7.636  0.2698  0.0574  0.1970
32324W        W75315  29.952   6.516  23.207  0.1711  0.1445  0.3195
32325W        W75316  31.243  30.147  27.549  0.0922 -0.1487 -0.1626
32326W        W75317   6.176  29.038  21.867 -0.1121 -0.1762  0.3236
32327W        W75318   8.422  12.654  18.119  0.1338 -0.0064  0.1456
32328W        W75319  11.712  17.895  15.864  0.0309  0.0065 -0.2132
32329W        W75320   1.627  12.709  18.021  0.0152  0.0044  0.1110
32330W        W75321  32.654  10.129  27.759  0.1689  0.1018  0.3071
32331W        W75322   5.748   5.107   2.882  0.3350 -0.0251 -0.0568
32332W        W75323   6.167  20.600   4.908 -0.1838 -0.0553  0.1849
32333W        W75324  10.923  29.155  29.145  0.1318  0.0269  0.1778
32334W        W75325   3.634  19.928  21.347  0.3644  0.0506 -0.1926
32335W        W75326  22.422  34.705  14.103  0.0752  0.1259 -0.2345
32336W        W75327  29.313  32.290  28.890 -0.3608  0.0025 -0.1848
32337W        W75328  25.007  18.787  15.275 -0.0595 -0.1479 -0.1897
32338W        W75329  21.673  26.819  26.688  0.0489 -0.1898  0.2104
32339W        W75330   8.077  28.061  21.261  0.0249  0.2100  0.0226
32340W        W75331  11.734  10.619  17.237 -0.0751  0.1474 -0.0388
32341W        W75332   5.275   6.804  25.584 -0.0432  0.0990  0.2453
32342W        W75333  30.369  34.571  15.491 -0.2242 -0.0060 -0.1579
32343W        W75334  23.161  26.680  23.876  0.1193 -0.1157  0.1318
32344W        W75335  22.933  27.562  24.327  0.2274  0.2306 -0.3645
32345W        W75336  21.192  30.798   8.332 -0.0310 -0.0653  0.1444
32346W        W75337   2.147   3.425  20.370 -0.5408  0.1784  0.4054
32347W        W75338  32.368  27.988   7.517  0.1706  0.2003 -0.1003
32348W        W75339   7.748  31.718  24.014 -0.2555 -0.0304  0.1655
32349W        W75340  28.693  15.696  16.912 -0.0999 -0.2484 -0.0983
32350W        W75341  29.652  27.143   2.047 -0.1615 -0.1319 -0.1456
32351W        W75342  15.343   5.951  16.901 -0.1783 -0.0286  0.3787
32352W        W75343  31.006   7.707  19.203 -0.0805 -0.0505  0.1497
32353W        W75344   5.631  28.462   4.503 -0.0337  0.0663  0.0747
32354W        W75345  22.187   4.549   2.842 -0.0338 -0.1009  0.2720
32355W        W75346   9.383  30.052  16.139 -0.0446 -0.2014 -0.1336
32356W        W75347   4.128  21.009  19.975 -0.0186  0.0048  0.0836
32357W        W75348  25.410  33.001  26.254  0.2764 -0.1691 -0.0762
32358W        W75349  33.132   2.668  25.644 -0.1117 -0.3245 -0.0314
32359W        W75350   1.267  25.231   6.568  0.0432  0.2646  0.2891
32360W        W75351   9.409  26.366  21.100  0.0383 -0.0028  0.2090
32361W        W75352  32.199  31.949  28.508  0.4846  0.0667  0.0847
32362W        W75353  32.416  21.720  17.773  0.1123 -0.1659  0.2179
32363W        W75354  27.980   8.270  17.397 -0.2716 -0.1324  0.6781
32364W        W75355  32.794  10.944  14.744 -0.0750 -0.0172 -0.1909
32365W        W75356  15.390  12.642  26.866  0.0753 -0.5103  0.1391
32366W        W75357  31.340  14.071   5.749  0.6212  0.3649 -0.1314
32367W        W75358  28.651  13.913  17.540 -0.0844 -0.2692  0.0651
32368W        W75359   0.680   6.706   8.037  0.3005  0.1055 -0.1759
32369W        W75360  16.068  16.114  14.156 -0.0789 -0.3251  0.1061
32370W        W75361   8.122  17.194  15.157  0.0320  0.0321 -0.0547
32371W        W75362  24.252  33.887  21.575 -0.1596  0.1632 -0.0394
32372W        W75363  31.207  19.055   2.480  0.1430  0.1485 -0.1122
32373W        W75364   2.114  29.641  17.285 -0.0994 -0.2870  0.0055
32374W        W75365   4.450  25.706  18.008 -0.1990 -0.0866  0.1833
32375W        W75366   1.048  27.076   0.048 -0.2690  0.3604  0.1550
32376W        W75367  33.174  18.782  16.192  0.1188 -0.2322  0.0141
32377W        W75368  12.640  26.540  18.727 -0.0691  0.1349  0.0409
32378W        W75369  12.100  15.768  10.118 -0.0285  0.1013 -0.0832
32379W        W75370   4.473   7.521  24.691 -0.3427 -0.4622 -0.1824
32380W        W75371   7.973  31.340  28.875  0.0868  0.2369 -0.0784
32381W        W75372  11.882  24.987  24.810  0.3407  0.1274  0.1693
32382W        W75373  17.715   4.284   6.600  0.1647  0.1822 -0.0908
32383W        W75374   7.794   2.598  20.734 -0.0768  0.1771  0.1541
32384W        W75375   4.194   9.061  24.895  0.0379 -0.0735 -0.4085
32385W        W75376  15.983  26.573   4.679  0.2500  0.0479  0.1057
32386W        W75377   6.996  25.991  22.876 -0.3222 -0.0218  0.0620
32387W        W75378   8.065  16.362  19.582 -0.2757 -0.0935 -0.2150
32388W        W75379   0.729  29.194   7.198 -0.1983 -0.2596 -0.2220
32389W        W75380  29.292  28.602  14.516 -0.2440 -0.1132 -0.0572
32390W        W75381   2.266  24.406  16.637  0.0818  0.2547 -0.0464
32391W        W75382  18.171  30.104  23.528  0.0716  0.3082  0.4279
32392W        W75383   0.645  27.464  20.452 -0.0411  0.3575  0.0278
32393W        W75384  32.660   6.298  20.307 -0.0765 -0.1796  0.0316
32394W        W75385  15.472  18.839  27.302 -0.2709  0.0832  0.0064
32395W        W75386  10.292  16.092  17.965 -0.2719 -0.1439  0.2450
32396W        W75387  27.866  29.514  12.394  0.1116 -0.1332 -0.1091
32397W        W75388   8.702  24.822  14.329  0.0256 -0.2239  0.0479
32398W        W75389  17.159   3.591   5.119 -0.1233  0.4023 -0.0724
32399W        W75390   4.817   7.761  28.569  0.1161 -0.0302 -0.0027
32400W        W75391   0.415  22.177  17.431  0.2087 -0.4176 -0.0944
32401W        W75392  33.929  18.975  19.101  0.0414  0.0957 -0.1838
32402W        W75393  31.882  21.272  16.971  0.0517 -0.1193  0.0202
32403W        W75394   2.532   6.134   6.964  0.2889  0.2168 -0.0525
32404W        W75395  11.147  16.844  20.958 -0.3761  0.0165 -0.3046
32405W        W75396  33.298  24.369  22.199 -0.0414 -0.1645  0.0927
32406W        W75397  28.555  20.305   4.558 -0.0766  0.0860  0.0893
32407W        W75398   6.799  24.845  21.645  0.0617 -0.3792 -0.2964
32408W        W75399  33.238  16.450  25.350  0.0950 -0.0993 -0.2211
32409W        W75400  11.034  10.752  26.502  0.1034 -0.0730  0.1048
32410W        W75401  26.767  10.167   5.422  0.0359  0.2033  0.3150
32411W        W75402  25.871  23.045  25.581  0.1958 -0.1168 -0.0560
32412W        W75403  29.402   6.807  15.144  0.1140 -0.1735 -0.1080
32413W        W75404  30.418  24.891  15.774 -0.2318  0.1623  0.4643
32414W        W75405  30.625  34.761  24.546 -0.1779 -0.0175 -0.2889
32415W        W75406   4.278   9.627  15.455 -0.2232 -0.1185  0.0536
32416W        W75407  15.645  29.211   0.070  0.0603  0.2194 -0.0774
32417W        W75408  16.781  11.140  18.077 -0.1524 -0.1817  0.1697
32418W        W75409  31.572  18.342  29.186  0.1018  0.3798 -0.1527
32419W        W75410  21.308  33.194  16.615 -0.0026 -0.0129  0.2099
32420W        W75411  22.147   4.966  23.816 -0.1465 -0.3264 -0.2229
32421W        W75412  34.560  16.768  18.149  0.3209 -0.3611 -0.1622
32422W        W75413  30.659  12.905  16.559 -0.2026 -0.0179 -0.0764
32423W        W75414   8.333  18.666  18.615  0.2897  0.0273 -0.0183
32424W        W75415  30.926   0.905   4.721  0.0397  0.0765 -0.0589
32425W        W75416  32.876  11.213   6.527 -0.0980  0.2839 -0.3612
32426W        W75417   5.889  10.097  24.337 -0.1083 -0.1719 -0.0228
32427W        W75418   6.690  23.969   3.073  0.2207  0.2114 -0.0820
32428W        W75419  18.054  30.293  27.513  0.1505  0.0554 -0.1983
32429W        W75420  14.834  26.255  19.045 -0.2156 -0.1531 -0.4845
32430W        W75421  13.207  14.669  21.540 -0.2071 -0.1020 -0.0035
32431W        W75422   4.011   5.492  26.928 -0.0693 -0.2521 -0.0515
32432W        W75423  29.195  28.246   4.209  0.0269 -0.3744 -0.2125
32433W        W75424  22.447  23.483   6.964 -0.1039 -0.2160  0.1364
32434W        W75425  18.512  14.715   0.041  0.2017  0.0448  0.3161
32435W        W75426  17.453   6.755  23.122  0.1990 -0.1280 -0.1950
32436W        W75427  28.194  30.097  18.385  0.1628  0.2447 -0.1922
32437W        W75428   7.438  32.753  27.238 -0.3858 -0.0800  0.2563
32438W        W75429  30.152  31.360  13.445  0.0686  0.2214 -0.0203
32439W        W75430   2.775  13.397   9.801 -0.1023  0.0908  0.1847
32440W        W75431  31.584  31.307  27.189 -0.0184 -0.0655 -0.0003
32441W        W75432   6.614   0.499  14.283  0.0849 -0.2243  0.1229
32442W        W75433   4.793  17.881  19.965  0.0299 -0.4084 -0.1609
32443W        W75434  13.221  31.759  26.591 -0.4597 -0.3070 -0.1634
32444W        W75435   1.872   4.395  25.295  0.1702 -0.1519  0.1053
32445W        W75436   1.386   5.128  18.914 -0.2468  0.0257  0.0398
32446W        W75437  21.517   2.616  20.205  0.1605  0.1323  0.2646
32447W        W75438  31.325   1.213   3.269 -0.2223  0.1758 -0.2784
32448W        W75439  34.766  33.861  23.355  0.2725 -0.1060  0.2955
32449W        W75440  15.986  25.410  15.281  0.3723  0.0800  0.2775
32450W        W75441   1.440  28.297   2.101 -0.0204 -0.0864 -0.1343
32451W        W75442  25.405  27.203  22.698  0.0324  0.1028  0.1677
32452W        W75443  29.909  16.721  24.387  0.0713 -0.2217 -0.3035
32453W        W75444   1.853  29.794  17.736 -0.0071  0.0716  0.1887
32454W        W75445  32.470   3.890  16.071  0.1897  0.1910  0.2545
32455W        W75446  33.216  27.184  24.837  0.0772 -0.2625 -0.0246
32456W        W75447  28.620   4.218  18.725  0.3442 -0.0168  0.3265
32457W        W75448  23.057   0.519  14.759 -0.1603 -0.1293 -0.3104
32458W        W75449  19.067  11.461   3.223  0.0843 -0.0858 -0.0803
32459W        W75450   6.720  29.818   1.490  0.1136 -0.0380 -0.3130
32460W        W75451  15.935  30.997  21.548  0.0378 -0.1781 -0.2589
32461W        W75452  13.376  11.136  25.571 -0.1225 -0.2649  0.2283
32462W        W75453   3.196  27.281  19.373 -0.0317 -0.0176  0.0295
32463W        W75454  28.050  34.370  18.734 -0.1611  0.2900 -0.0753
32464W        W75455   9.938  25.232  18.172  0.1718  0.2909  0.0597
32465W        W75456  13.021  25.417  13.653  0.0355  0.0712  0.1075
32466W        W75457  25.693  28.564  23.101 -0.2883  0.0192 -0.2549
32467W        W75458  28.646  32.571   0.305  0.0620  0.1171 -0.1904
32468W        W75459   4.359  32.530  25.972 -0.0572 -0.3041 -0.2453
32469W        W75460  11.174  29.383  16.108  0.2965  0.3629  0.0228
32470W        W75461  25.694  23.352   8.923  0.1296 -0.1446 -0.2364
32471W        W75462   8.866  12.769  23.801 -0.0550 -0.2868  0.4858
32472W        W75463  22.154  25.436   3.427  0.1865 -0.1285 -0.2497
32473W        W75464  29.475   5.329  14.097 -0.1472 -0.1381 -0.0628
32474W        W75465  22.774  12.870  26.420  0.1512  0.3891 -0.0085
32475W        W75466   1.011   3.672  25.133  0.4177  0.2381  0.3759
32476W        W75467   3.138  18.798  14.799 -0.2424 -0.0129  0.4682
32477W        W75468  25.320   0.780   3.596  0.1051 -0.2654  0.0264
32478W        W75469  15.977  29.947   5.282 -0.0217 -0.0139 -0.1002
32479W        W75470   6.046  34.455  18.055 -0.2680  0.1280  0.0002
32480W        W75471   3.750  33.709   1.063 -0.2534 -0.0386 -0.1592
32481W        W75472   0.107   4.782  15.689  0.2413 -0.1725 -0.0288
32482W        W75473  13.871  21.370   3.980  0.0170  0.0470 -0.0397
32483W        W75474  33.800   5.876  15.088 -0.4987  0.1539  0.3313
32484W        W75475  31.020  29.480  28.367  0.0015 -0.2553  0.1650
32485W        W75476  31.428  30.025  22.788  0.0686  0.2471 -0.2633
32486W        W75477  14.916  24.040  23.137  0.1143 -0.1879 -0.2663
32487W        W75478   7.021  19.116  20.502  0.1411  0.0519 -0.2343
32488W        W75479   8.520  26.227  25.500  0.0720  0.3984  0.2547
32489W        W75480  13.192  30.172   8.372  0.2341 -0.2028 -0.1572
32490W        W75481   9.967  33.868   1.025  0.0768 -0.2090 -0.1592
32491W        W75482  28.573  13.659   7.259  0.1635 -0.0293 -0.4226
32492W        W75483  10.258  23.699  24.287  0.1097 -0.3405 -0.0602
32493W        W75484   4.229  32.762  17.487 -0.1669  0.1490 -0.0653
32494W        W75485  12.239  10.249   1.040 -0.1363  0.0695  0.0167
32495W        W75486   4.889  26.071   4.818  0.1063  0.0736 -0.3769
32496W        W75487  13.132  29.719   2.399  0.1936  0.0240 -0.0428
32497W        W75488  10.664   8.483  21.647 -0.2037 -0.0411  0.0972
32498W        W75489  16.250   4.536  25.907 -0.4187  0.1609  0.1110
32499W        W75490   0.179  19.952  19.597  0.3495 -0.0261 -0.1283
32500W        W75491   0.592   4.833  25.959  0.0073  0.0341  0.1650
32501W        W75492  10.127  22.097  18.164  0.0776 -0.0020  0.0083
32502W        W75493   1.909  16.744  15.347 -0.2849 -0.0262  0.3309
32503W        W75494  14.047  16.926  20.409  0.0095 -0.1892 -0.2231
32504W        W75495   9.648  33.657  15.328 -0.1324 -0.0470 -0.0968
32505W        W75496   3.902  19.499  21.396  0.0768  0.2589 -0.2073
32506W        W75497  21.166   4.750  15.232 -0.4700  0.0122  0.1684
32507W        W75498   4.320  25.163  26.502 -0.0771 -0.1232 -0.0106
32508W        W75499  30.230  29.361  14.047 -0.2617  0.2564 -0.1837
32509W        W75500  19.033   6.483  21.719 -0.0411  0.1653  0.2590
32510W        W75501  32.869  30.623   3.633 -0.0367 -0.4600  0.1061
32511W        W75502  17.087  27.911  26.050 -0.1512 -0.0832 -0.1723
32512W        W75503   8.785   2.294   2.730 -0.0393 -0.0361 -0.2875
32513W        W75504   2.429  28.945   6.419  0.3647 -0.1136  0.1075
32514W        W75505   0.059  16.729   3.360  0.2387  0.1281 -0.4727
32515W        W75506  12.379  24.557   3.283 -0.1349 -0.2315 -0.2299
32516W        W75507  11.705  33.113  21.619 -0.3611  0.2038  0.1125
32517W        W75508  12.746  26.037  19.919 -0.0328 -0.1799 -0.0067
32518W        W75509  24.041   0.471  21.538 -0.3030 -0.0151  0.1918
32519W        W75510  13.140   2.353   9.948  0.4203 -0.2413 -0.0849
32520W        W75511   8.342  28.887  14.667 -0.4223  0.1446 -0.0181
32521W        W75512   6.292  15.915  20.792  0.0192  0.1008 -0.1156
32522W        W75513  12.135  22.666  14.089 -0.1212  0.2247 -0.1460
32523W        W75514   3.937  13.205  16.713  0.1885  0.1693  0.2353
32524W        W75515  11.452  24.663  21.850  0.3174  0.3751  0.0513
32525W        W75516  10.143  34.511  15.204  0.2256  0.1476  0.0602
32526W        W75517  16.549  27.533  16.963  0.0124  0.2114  0.1279
32527W        W75518  33.992  16.518  23.049 -0.0515  0.4455  0.0280
32528W        W75519   3.933   1.217  26.976  0.0519  0.0794 -0.2681
32529W        W75520  33.246  23.686  26.321 -0.0944  0.3123  0.1909
32530W        W75521  10.047  28.805  18.485  0.1060 -0.1999  0.3292
32531W        W75522  28.900  26.954  19.270  0.2297  0.0371  0.3033
32532W        W75523  23.772  10.868  22.369 -0.3500  0.0298 -0.1802
32533W        W75524   1.820  25.211  22.797 -0.1567 -0.1100 -0.2089
32534W        W75525   3.594  12.232   7.828  0.2112 -0.0192 -0.4730
32535W        W75526   0.525   6.695  23.460  0.2706 -0.0027  0.1268
32536W        W75527  11.791  21.996   9.902  0.3001 -0.1274  0.0625
32537W        W75528  23.138  18.715  13.944  0.1373 -0.1786  0.0495
32538W        W75529   6.801  18.207   8.131 -0.1805  0.1039 -0.2302
32539W        W75530   6.742  26.888  18.337  0.2908 -0.0123  0.2298
32540W        W75531   4.757  33.558  17.811 -0.2349 -0.2024 -0.2441
32541W        W75532  24.014   1.722  19.904  0.0290 -0.0975  0.3347
32542W        W75533   6.271   0.025  26.201  0.2779 -0.0699 -0.3377
32543W        W75534   3.818  14.610  21.439 -0.1777  0.0955  0.3536
32544W        W75535   6.736  20.479  15.032 -0.1810 -0.1762 -0.1383
32545W        W75536  31.442  29.595   1.785 -0.1818  0.0704 -0.1667
32546W        W75537  33.686  31.066   8.467  0.3014 -0.1202  0.1192
32547W        W75538   9.198  18.528  17.733  0.1828 -0.1676 -0.0367
32548W        W75539  30.578  25.831  20.469 -0.3935 -0.2193  0.2048
32549W        W75540   8.823   4.081  28.930  0.0300  0.1187  0.0746
32550W        W75541   8.592   6.431   5.945 -0.0035 -0.1564 -0.3799
32551W        W75542  16.719  28.873   7.172 -0.0260 -0.1009 -0.0560
32552W        W75543  16.672  28.570  17.262 -0.2507 -0.0585  0.1608
32553W        W75544  31.383  27.138  12.850  0.0201 -0.2457 -0.0980
32554W        W75545   4.312  34.326  26.366 -0.1273 -0.1768 -0.1386
32555W        W75546   7.961  33.128  24.148 -0.1254 -0.2059 -0.2470
32556W        W75547  26.704  30.597  14.967 -0.0419  0.1383 -0.0720
32557W        W75548   0.873  30.368  18.124  0.2104 -0.1390  0.0431
32558W        W75549   7.769  26.629  20.722 -0.1685  0.1855 -0.1479
32559W        W75550  27.077  27.683  20.619 -0.0302 -0.0423  0.0145
32560W        W75551   3.498  32.805  16.216  0.1778  0.0172 -0.0155
32561W        W75552  34.590  17.827   5.226  0.3672  0.2339 -0.0060
32562W        W75553  10.159  34.585  27.942 -0.1584 -0.0091  0.0305
32563W        W75554   3.450  25.034  14.187 -0.1390  0.0937 -0.0947
32564W        W75555   2.328  16.657  17.469  0.0003 -0.2772 -0.3297
32565W        W75556   5.236   3.007   4.169  0.2641  0.1163 -0.2270
32566W        W75557   4.928  30.515   9.115 -0.0262 -0.1373 -0.4039
32567W        W75558   9.240  17.564  14.572  0.3544 -0.0789 -0.0630
32568W        W75559  31.894  27.999  13.127  0.0018  0.4308  0.5288
32569W        W75560   5.370  15.940  21.404  0.0268 -0.0440  0.0930
32570W        W75561   2.037  16.911  17.122  0.0745 -0.1513 -0.1364
32571W        W75562  22.140  27.438  14.629 -0.2015 -0.3027 -0.3652
32572W        W75563   4.540  18.323  15.634  0.0871 -0.1671  0.1336
32573W        W75564  10.159  27.572  18.798  0.1458 -0.2753 -0.1128
32574W        W75565   3.055   7.743  22.485  0.0401 -0.1231  0.0327
32575W        W75566  14.159   2.027  17.325 -0.0435  0.2068  0.0106
32576W        W75567  12.782  32.384  22.290 -0.0956 -0.2109 -0.2442
32577W        W75568  31.091  15.861  19.820 -0.2109 -0.1429 -0.0905
32578W        W75569  29.798  22.002   3.574 -0.0591  0.0279  0.0005
32579W        W75570  18.557  32.135  28.760  0.1402 -0.2153 -0.3084
32580W        W75571   9.884   8.641  25.856 -0.0207 -0.5083  0.0464
32581W        W75572  10.378  22.265  15.889 -0.1726  0.2851 -0.3719
32582W        W75573  14.990  12.560   7.165  0.1229 -0.1120  0.0664
32583W        W75574  11.965  20.642  23.597  0.1918  0.0707  0.3414
32584W        W75575   8.193  34.605   3.316 -0.0142  0.0267 -0.0242
32585W        W75576   3.193  19.642  22.168 -0.1617 -0.3086 -0.1543
32586W        W75577  20.854  17.812  14.173 -0.0223 -0.0559 -0.0759
32587W        W75578   3.894  14.831  16.292 -0.2078 -0.0023  0.0856
32588W        W75579  13.312  18.040   0.474  0.3148  0.0453 -0.0651
32589W        W75580  15.421   9.287  16.388  0.0258 -0.1369 -0.0773
32590W        W75581   6.887   6.177  21.423  0.1363  0.3470  0.1407
32591W        W75582  18.508  25.796  16.506 -0.1808 -0.2756 -0.1189
32592W        W75583  15.417   7.451   5.991  0.0976  0.2264 -0.1094
32593W        W75584  24.081   3.567  21.508  0.3141 -0.2272  0.0646
32594W        W75585  30.861  34.754  22.417  0.1674 -0.2176 -0.1136
32595W        W75586  22.530  28.129  17.794 -0.0286  0.3283 -0.4004
32596W        W75587  12.023  28.469  22.262  0.0384 -0.1375 -0.4924
32597W        W75588  29.615   5.295  22.313  0.1746 -0.1055 -0.0543
32598W        W75589   3.219   4.132  16.252 -0.2001  0.1452 -0.0066
32599W        W75590  26.985  28.073  16.928  0.2977 -0.1499  0.0820
32600W        W75591  10.515   7.381  19.038 -0.3304 -0.2507 -0.2801
32601W        W75592  30.487  29.743  24.295 -0.0527 -0.0315 -0.0585
32602W        W75593   2.903   2.594  17.815  0.2786  0.0596 -0.3081
32603W        W75594   6.600  19.447   8.957  0.2473 -0.0561  0.1113
32604W        W75595  21.895  25.577  17.281 -0.2029 -0.1744 -0.0742
32605W        W75596   6.727   0.079  22.361 -0.2899 -0.1081  0.0232
32606W        W75597   6.056  24.748  14.950 -0.1503 -0.1511  0.0150
32607W        W75598   3.507  23.117  20.867  0.4377 -0.1351  0.0014
32608W        W75599  14.050  26.830   6.892  0.1855  0.1562 -0.0443
32609W        W75600  11.676  34.231  14.452 -0.0625  0.1421 -0.1623
32610W        W75601  34.647  26.324   2.409 -0.1981  0.2147  0.0643
32611W        W75602   0.051  28.362  28.283  0.0076  0.0825  0.3597
32612W        W75603   4.204  24.680  16.132  0.0482 -0.0541 -0.1272
32613W        W75604  19.087   7.278  22.932 -0.2056  0.4168 -0.2322
32614W        W75605  13.265  30.036  25.494 -0.1951  0.2364  0.4044
32615W        W75606   1.115  18.538  29.151  0.0459  0.0839  0.0728
32616W        W75607  16.076  31.114   9.847 -0.1187 -0.0791  0.0301
32617W        W75608   0.515   2.530  24.637  0.1556 -0.0085 -0.0964
32618W        W75609  34.558   0.070   0.117 -0.0124 -0.2388  0.2415
32619W        W75610  10.758   4.753  18.168  0.0673  0.0663  0.1540
32620W        W75611  11.994  31.481  21.507 -0.2880  0.2345 -0.1036
32621W        W75612  20.152  21.247  17.086 -0.1304  0.0161  0.0009
32622W        W75613   1.457  17.555   7.552  0.2295 -0.1764 -0.3663
32623W        W75614   4.863  33.618  15.774  0.3294  0.1527  0.0555
32624W        W75615   8.226  25.017  23.265  0.3307 -0.1555  0.0714
32625W        W75616   3.821  31.061  15.011 -0.0927 -0.0418 -0.0585
32626W        W75617  13.660  31.349  19.882  0.1802 -0.2720 -0.1173
32627W        W75618  22.635  33.351  21.998 -0.0889  0.0577  0.1353
32628W        W75619  11.786  21.553  28.674 -0.0170 -0.0131 -0.0071
32629W        W75620   2.764  21.019  22.956 -0.1820 -0.0883  0.0168
32630W        W75621  13.432  19.369  24.886 -0.0730  0.0204  0.2460
32631W        W75622  10.898  33.535  16.900 -0.0114  0.2587  0.1905
32632W        W75623   7.169  33.734  20.621  0.0701  0.2276  0.0657
32633W        W75624   4.634  25.590  15.905 -0.2190 -0.0102 -0.1762
32634W        W75625  32.916  24.604  14.126  0.1162 -0.2656  0.6394
32635W        W75626  12.077  27.316  22.059 -0.2247  0.0764 -0.0559
32636W        W75627  21.082  33.246  20.158 -0.0273 -0.2771 -0.1504
32637W        W75628  14.412  18.129  25.260  0.0890 -0.0841  0.4056
32638W        W75629  15.649  14.350  13.072 -0.1348 -0.2665  0.0743
32639W        W75630  26.719  29.698  15.910 -0.1976 -0.0584  0.2867
32640W        W75631  32.664  32.547  20.642  0.0213  0.0671  0.1036
32641W        W75632  10.019  16.915  16.695  0.1425 -0.1156 -0.3563
32642W        W75633  18.022  32.305  19.874  0.0225 -0.1577 -0.0782
32643W        W75634   4.835  22.839  19.327  0.1769 -0.2064  0.1651
32644W        W75635  15.830   3.262  10.535 -0.0329  0.1423  0.2725
32645W        W75636  34.322   1.033   7.421  0.2114  0.3659  0.2072
32646W        W75637  31.541  29.806  18.184 -0.3612  0.0991  0.0011
32647W        W75638  33.213  31.299  16.305  0.0448 -0.2740 -0.1916
32648W        W75639   7.659  34.173  23.603 -0.0182 -0.2355  0.0539
32649W        W75640  32.786   4.445  19.091  0.0402  0.0388 -0.1104
32650W        W75641  31.558  28.878  18.855 -0.1003  0.2424 -0.1917
32651W        W75642   5.238  19.032  19.377  0.0615 -0.1811 -0.2214
32652W        W75643  21.651  22.795  16.564  0.2741  0.1842 -0.0051
32653W        W75644  21.454  32.179  15.631 -0.1617 -0.0405  0.1338
32654W        W75645  10.195  20.753   9.194 -0.2559  0.1642 -0.1216
32655W        W75646  12.612  22.956   8.996 -0.2841  0.0547 -0.1303
32656W        W75647   6.030  27.180   0.338 -0.1902 -0.1283  0.1108
32657W        W75648   6.011  14.594  21.485  0.0085  0.0765  0.2597
32658W        W75649  27.496  27.880  20.568  0.2002 -0.0891  0.1418
32659W        W75650   6.793  30.944  19.880 -0.4923  0.0481  0.1600
32660W        W75651   7.844  27.979  14.874 -0.0651 -0.0525  0.2805
32661W        W75652  33.755  18.315   5.633 -0.2390  0.0045  0.3485
32662W        W75653  26.271  33.229  27.797 -0.0295  0.1123 -0.1085
32663W        W75654   1.868  27.826  14.901  0.1071  0.2327 -0.1830
32664W        W75655   1.243  31.605  18.055 -0.2123 -0.3412 -0.1583
32665W        W75656  13.550   8.822  26.895 -0.2264  0.0556  0.0469
32666W        W75657  26.992  34.334  16.481  0.0231 -0.4230  0.1088
32667W        W75658  16.607  29.392  23.803  0.0714  0.0661  0.1233
32668W        W75659  13.670  30.835  24.097  0.2434 -0.2049 -0.0156
32669W        W75660   4.634  21.184  24.761  0.0217 -0.1381 -0.0799
32670W        W75661   9.748  12.483   0.150  0.5621  0.0069  0.2731
32671W        W75662   4.132   3.756  25.969 -0.1010 -0.0950 -0.0404
32672W        W75663  23.755   7.561   3.428  0.0641  0.0837  0.1859
32673W        W75664   8.497   3.536  18.871 -0.2180 -0.0123 -0.0791
32674W        W75665   9.196  26.056  22.608 -0.1639  0.1233  0.0512
32675W        W75666   6.471  21.289   4.387  0.2469 -0.0858 -0.0323
32676W        W75667  12.894  27.450  24.330 -0.0852  0.0078  0.2413
32677W        W75668   0.690  32.993   5.173  0.1793 -0.0300 -0.1739
32678W        W75669   6.559  23.693   4.580  0.0781 -0.0473 -0.0364
32679W        W75670  31.892  28.417  16.496 -0.1635 -0.0897 -0.2632
32680W        W75671  33.310  28.022  28.704 -0.2794 -0.1523 -0.1921
32681W        W75672   6.136   1.341  27.281  0.1307  0.1856 -0.3437
32682W        W75673   0.076   7.012  18.278  0.1662 -0.0510 -0.0980
32683W        W75674  32.540   7.773  10.079  0.2996  0.2190 -0.1361
32684W        W75675  19.109  14.493  15.038 -0.1039  0.1363 -0.1297
32685W        W75676  26.201  19.922  17.489  0.1106 -0.0089 -0.1507
32686W        W75677   9.253  34.251   2.746 -0.2801 -0.0202  0.0575
32687W        W75678   1.288   0.246   1.326 -0.1045  0.0340  0.0153
32688W        W75679   8.472   6.569  21.405  0.1079 -0.0370 -0.2368
32689W        W75680  12.773  32.230  17.053  0.1741  0.0853 -0.1180
32690W        W75681   9.736  14.373  23.371 -0.2331 -0.1956 -0.0057
32691W        W75682  29.085  32.083  16.083 -0.4685  0.0222 -0.0665
32692W        W75683  19.387  30.460  28.801  0.2688  0.0142 -0.0738
32693W        W75684  14.063  25.874  22.781  0.0088 -0.0569  0.1830
32694W        W75685  22.395   8.353  22.552 -0.1746  0.2139 -0.3758
32695W        W75686   6.189   1.556   2.137  0.0676 -0.0881 -0.1753
32696W        W75687  14.783  29.561  24.489 -0.0519  0.2547 -0.1612
32697W        W75688   6.849  24.067   7.294 -0.0757  0.0871  0.0847
32698W        W75689  22.783   6.231   7.995  0.2447 -0.2999 -0.0796
32699W        W75690   0.215   3.869  21.720  0.0235  0.0791 -0.0593
32700W        W75691  19.357  21.434  20.758 -0.0278 -0.0240  0.2045
32701W        W75692  30.039   0.457  27.373 -0.4069  0.0271  0.2665
32702W        W75693   9.375  21.507  15.774 -0.1294  0.2290  0.1208
32703W        W75694   1.041  25.397  14.793  0.1927 -0.1045 -0.0836
32704W        W75695   6.958   8.165   1.118 -0.0533  0.0090 -0.1823
32705W        W75696   4.764   4.278  25.486 -0.4876 -0.4922 -0.0250
32706W        W75697  27.098   9.949  21.059  0.0790 -0.2538  0.2905
32707W        W75698   5.961  21.428   5.146  0.1574 -0.4531  0.3180
32708W        W75699   5.183   4.766  27.805  0.1130 -0.0289 -0.1062
32709W        W75700   3.961   7.213  25.902 -0.2817  0.1340  0.1331
32710W        W75701  22.249  31.361  27.114  0.1373  0.0100 -0.2579
32711W        W75702   9.393  30.412  21.219  0.3738 -0.1629 -0.3464
32712W        W75703  30.249  10.101  23.417 -0.0641  0.3191  0.1196
32713W        W75704   9.684  34.500  19.608 -0.0385 -0.1694  0.3013
32714W        W75705  32.316   4.771  16.869  0.1751  0.4932 -0.2975
32715W        W75706  12.929  26.026   6.140 -0.2470 -0.1977 -0.1333
32716W        W75707   4.267   2.446  21.476 -0.0913 -0.2602 -0.0711
32717W        W75708   9.693  25.236   7.754 -0.0008  0.0325 -0.2930
32718W        W75709   2.630  22.107  16.367 -0.1307 -0.2188  0.1448
32719W        W75710   8.315   5.683   4.799 -0.1585 -0.0470  0.2302
32720W        W75711   3.220  24.043  15.764 -0.3039  0.1351  0.2641
32721W        W75712  29.965  16.174  28.442 -0.1248  0.1476 -0.3262
32722W        W75713   6.357   1.583  28.986 -0.1041 -0.0216 -0.3719
32723W        W75714  19.588  34.743  27.684  0.1010  0.3536 -0.1075
32724W        W75715  10.729  28.461   2.963 -0.4850 -0.0779  0.1854
32725W        W75716   2.359  34.105  18.443  0.2188 -0.1761  0.0970
32726W        W75717   2.072  16.171   8.980  0.0048  0.0098  0.2294
32727W        W75718   9.722   3.697  19.620 -0.1240 -0.0085 -0.3340
32728W        W75719  34.108  30.725  29.007 -0.1998  0.0670 -0.0882
32729W        W75720  10.599   3.370  24.157 -0.1140  0.3534  0.0861
32730W        W75721  19.515  26.442  26.940  0.1385 -0.1278  0.1446
32731W        W75722   4.366  24.112   0.973 -0.2422  0.1346  0.1505
32732W        W75723   2.706  16.374  26.126 -0.3140 -0.1937  0.0655
32733W        W75724  13.353  17.739  25.245  0.1041 -0.0317 -0.0588
32734W        W75725  10.111  22.040   4.732 -0.2346 -0.1572  0.0378
32735W        W75726   7.532  28.815  25.959 -0.1478 -0.1131  0.0283
32736W        W75727  16.577  32.823  16.385 -0.0864 -0.1769 -0.1556
32737W        W75728  29.971  27.533  17.267 -0.0466  0.0874  0.1736
32738W        W75729   5.752  29.013   5.156  0.1062 -0.1703 -0.2155
32739W        W75730   4.514  29.915   0.488 -0.0553  0.0579  0.2857
32740W        W75731   3.339  24.065   4.822 -0.3449 -0.0316 -0.0812
32741W        W75732   7.340  23.283   0.200 -0.2101  0.1006 -0.0570
32742W        W75733   2.627  25.316   2.991  0.2061  0.1907  0.1564
32743W        W75734   3.446   3.777  11.421 -0.0477  0.0542  0.0547
32744W        W75735  11.911  33.249  15.116  0.2760 -0.1327  0.2551
32745W        W75736   9.087  10.663  28.841  0.0442  0.0098 -0.4808
32746W        W75737  14.423  27.810  29.092  0.1744  0.1505  0.0697
32747W        W75738   7.542  29.842  28.320  0.1350  0.1904 -0.3611
32748W        W75739   9.295   7.357   5.177 -0.0345  0.3687  0.0371
32749W        W75740  32.494  31.968   2.361  0.2715 -0.3642  0.0713
32750W        W75741  22.421  27.412  12.845  0.1551 -0.0663  0.0858
32751W        W75742   8.986  16.848   8.454  0.0939 -0.0401 -0.1345
32752W        W75743   7.786  31.828  29.012 -0.0731 -0.0004  0.2630
32753W        W75744  13.032   1.739  24.446  0.0773  0.0535 -0.0144
32754W        W75745   7.589   1.562   8.995  0.1885 -0.0222 -0.3921
32755W        W75746  20.697  28.900  26.575 -0.2983  0.3988 -0.0970
32756W        W75747   9.814  24.849  17.875 -0.0700  0.2025 -0.1962
32757W        W75748  11.198   5.325  24.389 -0.2489 -0.0171  0.0198
32758W        W75749  29.373  16.555   2.885 -0.0971  0.0084 -0.4335
32759W        W75750  33.700  34.721  21.622  0.0633 -0.0605 -0.1097
32760W        W75751  27.577  28.896  16.955  0.0193 -0.2024 -0.1147
32761W        W75752  21.553  18.130  21.372  0.1187 -0.2923 -0.1184
32762W        W75753  29.820  28.853  26.986  0.1059 -0.1417 -0.1185
32763W        W75754  31.856  17.091   8.773 -0.2657 -0.1621 -0.0985
32764W        W75755  14.640  19.142  25.766  0.0248 -0.4873 -0.1073
32765W        W75756  13.377  12.751  17.725 -0.0316  0.7239  0.0537
32766W        W75757  16.197  23.501  15.856  0.0105  0.0447  0.0017
32767W        W75758   1.783  17.801  28.060 -0.0648 -0.0602  0.1465
32768W        W75759  15.097  27.624  17.566  0.0849  0.0481 -0.1738
32769W        W75760  18.816  12.929  19.760 -0.0033 -0.2012  0.1076
32770W        W75761  15.747  25.866  24.379 -0.0259 -0.0490 -0.0062
32771W        W75762   9.564  30.842   3.448 -0.0128 -0.0664 -0.2076
32772W        W75763  29.408   5.713  26.527 -0.1503 -0.2976 -0.2285
32773W        W75764   6.272   0.916   6.835 -0.2759 -0.3142  0.1146
32774W        W75765  12.151  34.742   0.432  0.2041 -0.4003 -0.2103
32775W        W75766  10.988  24.647  23.531  0.0782 -0.0677  0.2757
32776W        W75767  19.133  24.472   4.925 -0.3189 -0.0011  0.0975
32777W        W75768  16.375  29.195  18.944  0.3385  0.1685  0.1601
32778W        W75769  16.177  24.441  22.713  0.1321 -0.2871  0.1884
32779W        W75770  27.711  28.168  22.487 -0.1467 -0.0968  0.0200
32780W        W75771  16.625  27.629  16.460 -0.2367 -0.0472  0.0959
32781W        W75772   0.134  16.769   1.673 -0.0074 -0.0972  0.0310
32782W        W75773  33.535   9.474   8.042 -0.0847 -0.0658 -0.2623
32783W        W75774  32.931  33.551  19.134  0.0649  0.1890 -0.0517
32784W        W75775  28.962  31.942   1.357  0.0004 -0.0310 -0.0161
32785W        W75776   9.126  31.330  17.741  0.1036  0.4065  0.0540
32786W        W75777  11.507  26.560  25.495  0.1873 -0.1181 -0.1397
32787W        W75778  11.784  27.033   2.867 -0.3331 -0.5387 -0.1084
32788W        W75779  31.612  24.215   4.174 -0.0507 -0.1353  0.2845
32789W        W75780  15.277  27.971  25.812  0.2627 -0.1166 -0.2468
32790W        W75781   1.854  29.567   5.348 -0.0974  0.0172  0.0489
32791W        W75782  25.230  31.525   4.892 -0.0467  0.0560 -0.0510
32792W        W75783  30.568   7.341   5.723 -0.2586 -0.6120  0.1716
32793W        W75784   8.884   5.882   7.085 -0.0690 -0.0169 -0.0973
32794W        W75785   9.002  33.129  22.699 -0.0751  0.0324 -0.2220
32795W        W75786  30.836   1.713  19.743 -0.1827 -0.1476 -0.3041
32796W        W75787  26.660   4.052  17.198  0.1633  0.0538 -0.1862
32797W        W75788   1.785  10.637   4.011  0.1116 -0.1406 -0.2435
32798W        W75789  11.581  22.439  24.231  0.0156 -0.1356  0.1333
32799W        W75790  31.036  25.193  24.587 -0.0441  0.1902 -0.1567
32800W        W75791  34.232  34.742   0.508 -0.4375 -0.0588 -0.1797
32801W        W75792   6.659  18.379   9.559  0.1593 -0.0466  0.3408
32802W        W75793  12.463  32.878   7.692  0.3326 -0.1226 -0.0239
32803W        W75794  34.344  34.597  24.065 -0.2201  0.4620  0.0959
32804W        W75795  10.047  32.765  20.651  0.0941  0.0461  0.0307
32805W        W75796  32.410   5.724  16.641  0.1595 -0.1238  0.1016
32806W        W75797  22.798   0.066   7.468  0.2775  0.0215  0.3559
32807W        W75798  13.167  24.460  20.539  0.2125  0.0357  0.0911
32808W        W75799  10.027  28.698  21.158 -0.0930 -0.1140 -0.2085
32809W        W75800   4.091  22.940   3.642 -0.0796 -0.1715  0.2648
32810W        W75801  30.605  18.529  24.001 -0.0803 -0.1514 -0.0320
32811W        W75802  29.809  13.353  25.735  0.2099 -0.2927  0.1693
32812W        W75803   5.055  19.786  26.839 -0.1295 -0.1065 -0.1305
32813W        W75804   5.117  31.941  17.406  0.3013 -0.3375 -0.1901
32814W        W75805  14.836  30.507  25.423 -0.2736  0.1032 -0.2476
32815W        W75806  14.714  16.867  22.383 -0.0414 -0.3273 -0.3288
32816W        W75807   4.992  28.148  14.064  0.0044 -0.0161  0.1606
32817W        W75808  11.156  16.486  23.199 -0.0337  0.0067 -0.0665
32818W        W75809  29.098  16.636  27.232 -0.0157  0.0119 -0.0655
32819W        W75810  30.379  15.256  23.234  0.0687 -0.0846  0.1229
32820W        W75811   3.026  30.404  23.042  0.1135  0.3009 -0.3335
32821W        W75812   9.777   0.867  18.883 -0.1423  0.0772 -0.0249
32822W        W75813  28.535  22.235   8.787  0.0617  0.4228 -0.1579
32823W        W75814  14.283   6.698  27.197 -0.3462 -0.2554  0.0083
32824W        W75815  13.805  13.513   3.678 -0.1802  0.0278 -0.1840
32825W        W75816   3.983  32.787   3.794  0.0547  0.2336 -0.1250
32826W        W75817  34.025  15.022  28.999 -0.2076 -0.1344 -0.0463
32827W        W75818   5.018  25.289   3.303  0.0950  0.2474  0.1178
32828W        W75819  31.164  27.675   4.807  0.1451 -0.3773  0.2482
32829W        W75820  29.239   0.585   6.580 -0.0028 -0.0912 -0.1402
32830W        W75821  17.059  26.913   1.770 -0.2950  0.1937 -0.2079
32831W        W75822   3.809  18.651   0.988 -0.1045  0.0780  0.0616
32832W        W75823  14.224  21.972  26.096 -0.1265 -0.0523 -0.1234
32833W        W75824  11.729  10.226  27.025  0.3025 -0.3752 -0.0946
32834W        W75825  10.891  22.815  15.714 -0.1722 -0.0566  0.1426
32835W        W75826  11.592  17.299  22.860 -0.2837 -0.4886 -0.1553
32836W        W75827  15.053  12.424   1.070  0.1574  0.0324 -0.3223
32837W        W75828  31.982   8.888  20.120  0.0901  0.0745 -0.0965
32838W        W75829  13.124  27.861  20.058 -0.5587  0.1020 -0.1917
32839W        W75830  20.867  33.199   0.317 -0.1072  0.0210  0.2774
32840W        W75831   2.372  20.822   9.720 -0.0469 -0.0771  0.2879
32841W        W75832   3.975  26.246  20.261 -0.0024  0.2321 -0.1122
32842W        W75833  14.807   6.648  26.881 -0.2681 -0.3252  0.0872
32843W        W75834  34.638  15.000  27.447 -0.0140 -0.0584 -0.1808
32844W        W75835  27.815  14.666  14.780 -0.1495 -0.0843  0.2096
32845W        W75836  12.568   0.267   9.500  0.2290 -0.0889 -0.3576
32846W        W75837   8.391  29.082   2.088  0.0036 -0.0493  0.0820
32847W        W75838   9.680  10.999  19.622  0.0557 -0.1935 -0.1024
32848W        W75839  10.282  30.381  24.980 -0.1349  0.1914 -0.2994
32849W        W75840  15.409  24.970   8.759 -0.1560 -0.0256  0.0780
32850W        W75841   1.591   2.776   3.400 -0.1215  0.0897 -0.1414
32851W        W75842  10.036  25.149  14.662  0.2895  0.2755 -0.1605
32852W        W75843  17.853  18.399   4.543  0.0683  0.0241  0.3251
32853W        W75844  15.325   8.802  16.917  0.2152 -0.3661 -0.0700
32854W        W75845  12.633  17.897   6.858  0.4505 -0.2286 -0.1082
32855W        W75846  24.458  26.393   2.119  0.4250  0.0150 -0.0244
32856W        W75847   7.763  34.734  27.521 -0.0676 -0.0898  0.2137
32857W        W75848   9.563  26.823  21.011  0.0518  0.0418  0.0206
32858W        W75849   7.858  14.296   8.487  0.5865 -0.2733 -0.1092
32859W        W75850  32.300  10.292  29.033 -0.1999 -0.0333 -0.0254
32860W        W75851  29.605  30.064   4.770  0.1551  0.4280 -0.0039
32861W        W75852  25.187   9.546  29.006  0.0081 -0.0738  0.1248
32862W        W75853   2.743  13.827  20.688  0.0014  0.0119  0.2319
32863W        W75854   3.345  31.178   1.547 -0.1485 -0.0299  0.0351
32864W        W75855  26.489  12.264   8.252  0.1503 -0.1062 -0.2624
32865W        W75856   4.707   7.867  24.323  0.0039  0.3193  0.0407
32866W        W75857  10.623  27.051   3.043 -0.1703 -0.2207 -0.0688
32867W        W75858  18.952  27.991  24.423 -0.1916  0.1889 -0.2561
32868W        W75859  31.997  28.754  21.601  0.0261 -0.2203 -0.0789
32869W        W75860  31.274  22.217  24.640 -0.0187 -0.1413 -0.1540
32870W        W75861  15.930  30.174  10.287  0.0870 -0.1006 -0.1159
32871W        W75862   6.559  30.511  25.371 -0.0317  0.0294 -0.2674
32872W        W75863   4.670   5.220  20.874 -0.3465  0.0596  0.1049
32873W        W75864  21.885  30.911  21.750  0.0942  0.0857 -0.1329
32874W        W75865   5.980   0.293  14.907 -0.0830  0.1604  0.3519
32875W        W75866   8.143  31.993   3.712  0.2791  0.1611 -0.0452
32876W        W75867  34.086  26.037  25.552  0.1833 -0.0136 -0.1066
32877W        W75868   2.229  26.466  29.194 -0.1633 -0.2743  0.0901
32878W        W75869   6.023  26.870   4.412 -0.1670 -0.1156 -0.0704
32879W        W75870  27.512  30.734   0.949  0.2510  0.1657 -0.1373
32880W        W75871   5.415  19.280  28.269 -0.0933  0.2034 -0.0969
32881W        W75872   6.269  25.367  23.014  0.2367  0.0485 -0.0366
32882W        W75873  20.110  28.629  14.811  0.3617  0.1683  0.2791
32883W        W75874  25.046  23.315   6.671  0.2848 -0.2629 -0.0689
32884W        W75875   8.732  10.559  14.982  0.1639  0.2163 -0.5898
32885W        W75876  33.105  23.245   1.450  0.2304 -0.0721 -0.0633
32886W        W75877  31.733   1.959  21.572 -0.0428 -0.1119  0.0867
32887W        W75878  21.065   1.484  22.973 -0.1994 -0.0183  0.0600
32888W        W75879  24.599  27.500  16.455  0.2925 -0.0319  0.1264
32889W        W75880  21.067  21.559  22.539  0.0282 -0.0240  0.2275
32890W        W75881  14.041  28.194  21.126 -0.0214  0.0280  0.2367
32891W        W75882  10.867  22.227  25.029  0.1581  0.1581 -0.0487
32892W        W75883   3.032  29.574  20.052  0.1655  0.0408 -0.2819
32893W        W75884   6.291  29.628  28.409 -0.0383  0.0114 -0.0518
32894W        W75885  29.980  18.511   9.263 -0.0451 -0.2376 -0.0425
32895W        W75886   2.361   7.135  11.393  0.1070 -0.3390 -0.0405
32896W        W75887  33.072  17.592  25.977  0.0051  0.1697  0.1643
32897W        W75888   8.162  29.893  27.704 -0.2463 -0.0967  0.6349
32898W        W75889   2.140   0.665  26.513 -0.2825 -0.0939 -0.1025
32899W        W75890   0.109  30.930   3.118  0.2768 -0.2117 -0.0324
32900W        W75891   6.108  13.043  18.770 -0.2585  0.0151  0.0458
32901W        W75892  12.105  32.486  20.075  0.0607  0.0841 -0.0320
32902W        W75893  15.007  25.396  24.897 -0.0547  0.0146 -0.0709
32903W        W75894   8.585   2.972   6.473 -0.0118 -0.0374  0.0994
32904W        W75895  10.568  18.606  19.719  0.2633 -0.3163  0.0949
32905W        W75896  12.543  14.491  19.118 -0.0114  0.1283 -0.2870
32906W        W75897  13.095  32.127   3.337 -0.1801  0.2457  0.1242
32907W        W75898  12.867  11.460   6.249 -0.0805 -0.2016  0.1027
32908W        W75899  30.428  24.806   5.088 -0.0995 -0.0530  0.2663
32909W        W75900   7.543  27.746   8.985  0.3969 -0.1610 -0.2108
32910W        W75901   8.602  14.906  27.576 -0.1570 -0.3374  0.0293
32911W        W75902  32.577  27.993  14.032 -0.2393  0.2959 -0.1750
32912W        W75903  26.642  28.638  27.531  0.4560  0.1407  0.2533
32913W        W75904   5.170  32.833   7.470  0.0282  0.0496  0.0888
32914W        W75905   3.028  26.787   0.633  0.3635 -0.0039  0.3263
32915W        W75906   3.674  29.263  19.090  0.0535 -0.1486 -0.3769
32916W        W75907  31.736  25.977  22.341  0.1197  0.1716 -0.1991
32917W        W75908  31.574  17.180  28.647  0.0752  0.1560 -0.1066
32918W        W75909   4.734  22.990  27.483  0.2341  0.0131  0.0704
32919W        W75910  21.077  24.104  22.177 -0.1878  0.1937 -0.0405
32920W        W75911  25.801   6.387  24.589  0.0479  0.0268 -0.0722
32921W        W75912  22.233  31.544  26.641 -0.2209 -0.0301 -0.2344
32922W        W75913  26.283   0.021  18.618 -0.1036 -0.0728 -0.2063
32923W        W75914   4.687  22.078   4.902  0.0653  0.2180  0.2109
32924W        W75915  20.161  28.156  24.261  0.0112 -0.0808 -0.2477
32925W        W75916   4.252   4.681   9.446 -0.2823  0.3103  0.1383
32926W        W75917  13.400  13.993  27.777  0.1929 -0.5076 -0.0194
32927W        W75918   4.129   2.146  26.797 -0.0912  0.1445 -0.0382
32928W        W75919   8.734   8.303  10.839  0.0131 -0.1952  0.0539
32929W        W75920  10.818  33.509  14.327  0.4662 -0.2087 -0.6071
32930W        W75921   5.005   3.228   5.921  0.3321 -0.0368 -0.0514
32931W        W75922   4.544  24.343  15.785  0.3233  0.3067 -0.0943
32932W        W75923  33.301   8.351  26.398 -0.3197 -0.2377  0.0728
32933W        W75924   5.196  17.828  16.605 -0.0266  0.0442 -0.1002
32934W        W75925   3.682   6.537  23.753  0.2128  0.2512  0.0235
32935W        W75926  34.260  19.924  24.971  0.2215 -0.5792  0.0102
32936W        W75927  28.569   3.235  25.392  0.0178 -0.2465  0.0772
32937W        W75928   3.546  27.464   0.285  0.4595 -0.0723  0.0561
32938W        W75929   9.331  23.113  14.706  0.1458  0.0231 -0.1227
32939W        W75930  17.183  23.679  22.429 -0.1687 -0.2716 -0.0080
32940W        W75931   6.049   1.557  17.376  0.0979  0.0053 -0.0192
32941W        W75932   2.473  34.143   4.979  0.0164 -0.2671  0.2449
32942W        W75933  22.944  23.729   5.090  0.1223 -0.0490 -0.0778
32943W        W75934   7.093  11.596   5.643 -0.0132 -0.2503 -0.2043
32944W        W75935  29.580  25.770   1.922  0.0436  0.1347 -0.1295
32945W        W75936   3.956  20.442  26.435 -0.0843  0.1367  0.1431
32946W        W75937   6.444  33.740  19.923  0.1710 -0.0221 -0.1937
32947W        W75938  26.972  20.605   8.955  0.2715  0.0507  0.0111
32948W        W75939   1.408   4.338   3.710  0.3740  0.0999 -0.1680
32949W        W75940  14.340  24.467   0.109  0.0914  0.0305  0.1813
32950W        W75941  32.308  24.289   0.178 -0.0349 -0.2259 -0.0422
32951W        W75942   1.973  33.130  20.026  0.0067  0.1432  0.1239
32952W        W75943   2.948  15.883   0.146 -0.1208 -0.3734  0.1426
32953W        W75944  18.105   6.748   6.343 -0.0179 -0.1826 -0.0551
32954W        W75945   5.586  11.799  25.828  0.1368  0.1817 -0.3793
32955W        W75946  32.038  30.020  16.987  0.0990  0.0623  0.0553
32956W        W75947  10.608  26.371   4.876 -0.0435 -0.0597  0.2045
32957W        W75948  26.963   3.963   6.174 -0.0024 -0.0907  0.0624
32958W        W75949   0.729  12.524  19.185  0.0254 -0.3399  0.1432
32959W        W75950  16.965  24.559  21.340 -0.4148  0.1874  0.1872
32960W        W75951  34.689  24.831  29.108  0.3835 -0.0756 -0.4274
32961W        W75952  16.277  16.574  12.779 -0.0179 -0.3043 -0.0736
32962W        W75953  13.263  27.617  24.598  0.4821  0.4140  0.5101
32963W        W75954  30.056  32.520  17.934  0.1822  0.0120  0.1898
32964W        W75955   6.652  15.968   0.355  0.1206 -0.0562 -0.1105
32965W        W75956  18.463   6.176  17.187 -0.0238  0.2363 -0.3135
32966W        W75957  30.242  16.855  23.972 -0.1331  0.0081 -0.1359
32967W        W75958   6.454  10.382  10.663  0.4189  0.0570  0.2368
32968W        W75959  33.057  28.257  29.097  0.0459  0.1131 -0.1104
32969W        W75960  25.522  19.090  18.471  0.1888 -0.2618 -0.2396
32970W        W75961  18.520  11.378  20.583 -0.1474  0.1563  0.3348
32971W        W75962   8.003  30.519  26.205 -0.0932  0.0231 -0.2947
32972W        W75963  30.504   8.869  26.013  0.2426 -0.1179  0.2363
32973W        W75964  33.102  10.465  25.226 -0.0015  0.0624 -0.0873
32974W        W75965   2.643   1.319   7.127  0.2742  0.0957  0.0382
32975W        W75966   8.793  23.219  15.679  0.0729 -0.5029  0.0869
32976W        W75967  17.714  18.611   8.111 -0.3174  0.1314  0.1359
32977W        W75968   8.837   1.185   4.228 -0.0828  0.1847 -0.0855
32978W        W75969  12.838  28.504   1.207 -0.1484  0.0207  0.0267
32979W        W75970  21.665  18.701   7.091  0.1249 -0.0862  0.0636
32980W        W75971   6.005  17.943  14.742 -0.0249 -0.1304  0.0740
32981W        W75972   4.542  19.867  20.938 -0.1122 -0.2896 -0.0737
32982W        W75973   1.871  12.919  23.167  0.2403 -0.2063  0.2054
32983W        W75974  17.076   0.815  18.465 -0.0561 -0.1091  0.1801
32984W        W75975  28.055  13.883   7.383  0.2672  0.1644 -0.2782
32985W        W75976   9.434  23.559  19.769  0.2487  0.0961 -0.0629
32986W        W75977  11.716  27.107  14.869  0.3499  0.3412  0.2360
32987W        W75978   2.627  18.438  20.381  0.2099  0.0094 -0.2111
32988W        W75979   2.656  14.659   2.731  0.0606 -0.1130 -0.1193
32989W        W75980   0.702  25.858  22.349 -0.0014  0.0931  0.2440
32990W        W75981  14.021  25.951  24.984 -0.1956  0.2494 -0.1638
32991W        W75982  33.533   0.201  19.472  0.0467  0.1901 -0.0413
32992W        W75983   9.344  17.441  22.770 -0.0777  0.4830  0.2816
32993W        W75984   1.393   9.447   2.733 -0.1556  0.0389 -0.4193
32994W        W75985  28.807  33.141  20.422 -0.0824 -0.2328 -0.1147
32995W        W75986  28.018  31.521  18.577 -0.4833  0.2062  0.2138
32996W        W75987   3.901  24.551  23.171 -0.0448  0.1990  0.1150
32997W        W75988  34.122  23.564  14.966  0.0532  0.0877 -0.1103
32998W        W75989   9.013  29.720  16.187  0.3556 -0.2759  0.4102
32999W        W75990   2.894  31.935   3.944  0.1545 -0.0806  0.0982
33000W        W75991   7.044   4.886   1.195 -0.0917 -0.2707 -0.1404
33001W        W75992  20.032  23.929  17.037 -0.0544 -0.2575 -0.0018
33002W        W75993   2.549  23.960  24.933 -0.1337  0.2662 -0.0885
33003W        W75994   9.616   0.027   0.133  0.0376  0.3162  0.0303
33004W        W75995   6.884   1.446   0.440 -0.0572 -0.1285 -0.1431
33005W        W75996   8.344   1.234  10.483 -0.0183  0.3292  0.2313
33006W        W75997  14.607  32.921  24.783 -0.0571  0.2101 -0.0800
33007W        W75998  14.045  25.086  21.367  0.1607  0.0001  0.0024
33008W        W75999  34.265  28.050  15.358 -0.1822  0.0742  0.3024
33009W        W76000  11.105  10.667   1.503  0.0832 -0.0987 -0.0389
33010W        W76001  26.278  25.638   4.311  0.1072  0.0890 -0.2294
33011W        W76002  16.669   4.825  17.693  0.1917 -0.0718  0.3660
33012W        W76003   5.263  25.808   5.077 -0.2256  0.0525  0.0153
33013W        W76004   3.948  29.534   8.812  0.1069  0.0701  0.1473
33014W        W76005   8.530  26.512  22.927  0.0764 -0.2175  0.2731
33015W        W76006  10.185  33.831  15.382 -0.4389  0.3263  0.1823
33016W        W76007  18.204  24.448   0.451  0.0855  0.1430  0.2412
33017W        W76008   8.607  20.703   3.070 -0.0209 -0.1656  0.1761
33018W        W76009  19.450  26.249  17.403 -0.0358  0.1110  0.1742
33019W        W76010  23.463  31.635   5.840  0.1374 -0.1759 -0.1038
33020W        W76011   5.682  22.659   0.425  0.2163 -0.2839 -0.1721
33021W        W76012  21.730  32.701   0.124  0.0962 -0.0723 -0.1108
33022W        W76013   8.034   4.230   9.926 -0.1327 -0.2203  0.3588
33023W        W76014  32.273  30.291  21.632 -0.5190  0.2092 -0.6847
33024W        W76015  14.611  28.724  26.746  0.0639  0.1032  0.2156
33025W        W76016  33.465   5.906  28.980 -0.1896  0.1098  0.4168
33026W        W76017   9.893  33.924  14.864  0.0879  0.0294  0.2226
33027W        W76018  10.749  32.041   1.231  0.0341  0.0577 -0.1967
33028W        W76019   9.778  27.170  25.610 -0.1169 -0.1982 -0.0400
33029W        W76020  19.714  17.260  26.502  0.1710 -0.0480  0.0958
33030W        W76021   8.495  30.275  15.059  0.0052  0.1555  0.0676
33031W        W76022  21.459   8.446  26.869 -0.0789 -0.1310  0.0330
33032W        W76023  12.613  33.673  19.095  0.2374  0.2567 -0.1150
33033W        W76024  16.880   3.095   7.972 -0.0739 -0.0404  0.0813
33034W        W76025  32.546   6.231  21.517  0.0333  0.1858  0.1981
33035W        W76026   2.620  28.174   8.570 -0.2277  0.0636 -0.0616
33036W        W76027   3.238  20.992   8.111 -0.4305 -0.0779 -0.0386
33037W        W76028  14.567   4.511  24.085  0.1608 -0.0599 -0.1793
33038W        W76029  34.191  24.224  27.399 -0.2594 -0.0720 -0.4413
33039W        W76030  19.851  20.342  25.917 -0.3494 -0.1987  0.5306
33040W        W76031   2.021  20.277  21.397 -0.2496  0.5137 -0.1295
33041W        W76032   9.207  27.825  13.999  0.0288  0.1263  0.1386
33042W        W76033   6.736  17.411  25.261  0.1481 -0.1634  0.3622
33043W        W76034   1.892  27.815   0.091 -0.0551 -0.1696  0.3189
33044W        W76035  28.056  33.448   5.716  0.2619 -0.0464  0.3806
33045W        W76036  12.923  17.740  21.930 -0.0757  0.0639 -0.2664
33046W        W76037   5.201  10.932   7.191 -0.4135 -0.0029 -0.3100
33047W        W76038  32.660  28.606   1.118  0.1187 -0.2850  0.0253
33048W        W76039  34.738  10.393  16.107  0.2563 -0.1046 -0.2804
33049W        W76040  16.666  32.347   3.096  0.0097  0.0898 -0.0223
33050W        W76041  31.461  31.643  21.811  0.1344  0.1685 -0.1214
33051W        W76042  19.440   2.427  14.291 -0.2461 -0.1200 -0.0522
33052W        W76043  13.462  13.733  18.899 -0.3276 -0.2392  0.1854
33053W        W76044  34.358  21.862   7.773 -0.1179  0.0147  0.1706
33054W        W76045   1.767  28.382   7.623 -0.0638  0.4541  0.0526
33055W        W76046  31.856  19.905   8.634  0.2994  0.1016  0.0163
33056W        W76047   4.850  25.830  27.890  0.0932 -0.1056  0.1478
33057W        W76048  31.700  20.795  20.314  0.0731 -0.1520  0.0940
33058W        W76049   3.518  16.354  22.314  0.0775 -0.1445 -0.0557
33059W        W76050  17.825  25.915  23.705 -0.3041 -0.5870  0.1909
33060W        W76051  14.831  26.510   4.500 -0.0409  0.2861  0.0629
33061W        W76052  32.144   4.232   6.510 -0.0331  0.2141 -0.1324
33062W        W76053  10.475  14.714  25.503 -0.1408 -0.0175 -0.3854
33063W        W76054   7.679  28.434  15.044  0.0382  0.1106  0.0979
33064W        W76055  28.018  25.275  27.142  0.0116  0.0299 -0.3456
33065W        W76056  10.832  24.183   1.262  0.0133  0.1411 -0.0138
33066W        W76057  17.745  29.799   6.589  0.1170 -0.1829 -0.2324
33067W        W76058  32.953  10.549  22.288 -0.1522 -0.0315  0.0858
33068W        W76059  18.595   8.584  24.965 -0.2329 -0.1589 -0.0882
33069W        W76060   5.472   0.659  24.063 -0.0423  0.0135 -0.3010
33070W        W76061   4.311   5.726  26.357 -0.2301 -0.0315 -0.0714
33071W        W76062  12.727  18.910  25.610 -0.1401 -0.1432  0.3628
33072W        W76063   4.052  18.103   7.200  0.0717 -0.0826  0.0487
33073W        W76064  32.274   6.754  18.397  0.0169  0.1158  0.0147
33074W        W76065  14.270  25.349   2.401  0.1629  0.0211 -0.2957
33075W        W76066   8.188  19.010   3.296  0.0749  0.2078  0.1839
33076W        W76067  27.752  34.223  27.274  0.4690  0.2102 -0.3453
33077W        W76068  22.121  24.442  20.068 -0.3503  0.1281  0.0440
33078W        W76069  22.075  27.767   2.638 -0.2539  0.4078 -0.2951
33079W        W76070   9.385  24.364   2.797 -0.0426 -0.0209  0.2587
33080W        W76071  32.687  19.295  23.748 -0.4380 -0.1060  0.0474
33081W        W76072   8.991  23.049   7.414 -0.1652 -0.0682 -0.0329
33082W        W76073  22.730  29.300   7.399  0.2785  0.0555  0.0554
33083W        W76074   8.674   1.125  16.535 -0.1155  0.0432 -0.0657
33084W        W76075  29.894  12.181   4.160 -0.2647  0.0760 -0.0462
33085W        W76076  30.859   1.448  16.149 -0.2339  0.1718  0.0843
33086W        W76077   2.350  17.386  21.152 -0.1709 -0.0254 -0.0975
33087W        W76078   9.296  20.779  21.594 -0.0665  0.3765 -0.1563
33088W        W76079   5.786  22.988  28.786  0.4368  0.1308  0.1108
33089W        W76080  27.807  24.108  26.438 -0.0128  0.1987  0.2700
33090W        W76081  30.141  13.922  20.525 -0.1716 -0.3189 -0.0554
33091W        W76082  25.466  28.607  20.504 -0.3220 -0.0888  0.1428
33092W        W76083   1.725   0.648   1.891 -0.2288  0.1151  0.1464
33093W        W76084  32.903   5.554  26.329  0.1287  0.0680 -0.1722
33094W        W76085   8.901  20.750  18.849  0.1077  0.2962 -0.2347
33095W        W76086   6.927  32.642   6.883 -0.1353 -0.0213  0.0253
33096W        W76087  25.754  23.556   2.004 -0.0611 -0.0279 -0.3952
33097W        W76088  32.595  18.280  23.035  0.1675 -0.3021 -0.1790
33098W        W76089  34.085   8.302   9.139  0.2610  0.0424 -0.2623
33099W        W76090   8.422   7.999   2.173  0.1078  0.1408  0.0420
33100W        W76091   3.575   0.066  22.722  0.2168 -0.0207 -0.0231
33101W        W76092   3.139  22.038   7.769  0.1088 -0.3257  0.0858
33102W        W76093  15.457  28.688  19.358  0.1467 -0.1013 -0.2128
33103W        W76094  15.462   1.815   1.576  0.1708 -0.3068  0.0693
33104W        W76095  18.338  23.611   8.699 -0.1988 -0.1153  0.0257
33105W        W76096  33.094  19.221   5.454  0.0334 -0.4020  0.2966
33106W        W76097   4.427  20.746   3.063  0.3342  0.2517 -0.1675
33107W        W76098  11.088  31.542  21.461  0.2667 -0.1630  0.0304
33108W        W76099   4.913  18.726   9.899 -0.1858  0.0376  0.0474
33109W        W76100   8.768  23.113  17.572 -0.4160 -0.0681  0.2488
33110W        W76101  11.813  18.755   5.666 -0.0192 -0.1706  0.4226
33111W        W76102   0.992  22.310   1.636 -0.2755  0.0006  0.2117
33112W        W76103  20.116  27.737  20.774 -0.2962 -0.2932  0.0928
33113W        W76104   2.099   3.724  23.576  0.0015  0.1271  0.0623
33114W        W76105  10.698  33.981  23.300  0.0137 -0.1651  0.1004
33115W        W76106   8.882  19.202   3.751  0.2533  0.0668 -0.2320
33116W        W76107   0.827  19.268  10.186 -0.2531  0.2770 -0.1065
33117W        W76108   1.844  26.547  19.286  0.3804 -0.3596 -0.1468
33118W        W76109   0.797  28.522  26.738  0.1868  0.2445 -0.0185
33119W        W76110  33.052  31.015  19.231  0.1252 -0.1145  0.1030
33120W        W76111  16.711  20.857   6.460 -0.2209 -0.1389  0.1433
33121W        W76112  27.330  23.020   4.568  0.1640  0.0683  0.0356
33122W        W76113  17.854   7.380  15.149 -0.1588 -0.5045 -0.0973
33123W        W76114  34.143  25.376  22.874 -0.0582  0.2393 -0.0312
33124W        W76115  20.445  10.838  14.665  0.0129 -0.0039 -0.2474
33125W        W76116   2.258  27.313   2.469 -0.2503 -0.4749  0.0822
33126W        W76117   0.548  20.723  15.373 -0.0483 -0.1488  0.0827
33127W        W76118  25.783   6.650  15.665  0.2509 -0.2763  0.1010
33128W        W76119  17.928  31.532  15.264  0.2245  0.0787 -0.2974
33129W        W76120  29.306  24.114  16.392  0.0604 -0.0141 -0.1929
33130W        W76121   4.409  13.885  24.036 -0.0473  0.1013  0.0459
33131W        W76122  16.476  33.553   7.192  0.0194 -0.0513  0.1476
33132W        W76123   8.467  26.689  20.054 -0.1557  0.1900  0.1666
33133W        W76124   9.246  26.102  20.067  0.0743 -0.0703  0.0847
33134W        W76125  11.049  28.802  17.788 -0.0306 -0.0314  0.0090
33135W        W76126   8.732  34.214  17.251 -0.0396 -0.0342  0.0854
33136W        W76127  26.662  30.126  14.206  0.3319  0.1490  0.0733
33137W        W76128   5.003  31.767  26.068  0.0433 -0.2587  0.0062
33138W        W76129   9.188  32.563  16.284 -0.0316 -0.1195  0.0410
33139W        W76130  24.972  31.875   2.786  0.0440 -0.0528 -0.1026
33140W        W76131  31.474  18.684  20.153  0.0554  0.0976  0.2826
33141W        W76132  22.156   4.734   1.379 -0.0307  0.2329 -0.1830
33142W        W76133   1.278  29.636  19.287  0.2639 -0.2354  0.1547
33143W        W76134   0.820  33.013  28.418  0.2627 -0.0314  0.0357
33144W        W76135  32.820  28.305  13.738 -0.1866  0.0353  0.2035
33145W        W76136  33.880  26.387  25.224  0.0784 -0.0183 -0.0119
33146W        W76137  15.141   9.773  24.761  0.0150 -0.2427 -0.2260
33147W        W76138   1.629  28.380  21.066 -0.2804 -0.0563  0.0910
33148W        W76139  16.549   3.138  22.179  0.4684 -0.1821 -0.1525
33149W        W76140   0.060   9.688   0.207  0.2593 -0.0687  0.0046
33150W        W76141  26.470  24.645  23.986  0.0873  0.0638 -0.3972
33151W        W76142   0.015   0.536  17.582 -0.2856 -0.2842  0.3627
33152W        W76143   4.333   2.006  17.824  0.0999  0.1079  0.0361
33153W        W76144  32.844   0.331  20.211  0.0550  0.1097 -0.0321
33154W        W76145  30.361  31.685  18.328 -0.1416  0.2105  0.0526
33155W        W76146  20.953  28.994  22.408  0.0092 -0.1050 -0.4133
33156W        W76147  32.888  27.036  14.880  0.0232  0.1320  0.0753
33157W        W76148  24.341   2.051  13.692 -0.1974 -0.4117  0.0193
33158W        W76149  24.352  22.344   5.497  0.0595 -0.0396 -0.2964
33159W        W76150  33.744   5.914   4.942 -0.2861  0.2124 -0.0657
33160W        W76151   6.319  24.427  18.156  0.1197  0.4014 -0.1681
33161W        W76152  22.797   8.935  24.836 -0.1025 -0.2130 -0.0746
33162W        W76153  23.711  13.091   4.795 -0.0368 -0.1446 -0.1873
33163W        W76154   6.865   6.642  14.847 -0.0262 -0.1107 -0.2156
33164W        W76155   5.017  33.841  14.417  0.0682  0.1802 -0.0962
33165W        W76156  17.219  24.239  14.621 -0.1474 -0.0659  0.0279
33166W        W76157  30.722  25.298  25.523 -0.2429  0.0286 -0.0985
33167W        W76158   2.257   1.663  17.236 -0.1241  0.0115  0.1340
33168W        W76159   3.819  31.148  26.089  0.0335 -0.0952  0.1698
33169W        W76160  31.820   3.764  16.673 -0.0280  0.2277 -0.1921
33170W        W76161  15.554   2.003  23.222 -0.0122 -0.1652 -0.3270
33171W        W76162   8.994   2.831  21.895 -0.0553 -0.1189  0.1184
33172W        W76163  16.605  34.021  22.896  0.3696  0.1844  0.2136
33173W        W76164  18.894  24.540  19.230 -0.3511 -0.0472 -0.2955
33174W        W76165   0.065   1.292  17.038  0.0858 -0.3858  0.0238
33175W        W76166  30.846  19.085  22.385 -0.1625  0.0571  0.2530
33176W        W76167  20.698   6.083  18.032  0.0312  0.2944  0.0286
33177W        W76168  19.020   4.131  15.954 -0.1431  0.1050  0.0338
33178W        W76169   4.451  26.603  17.685 -0.3343  0.0701  0.1108
33179W        W76170  10.512  29.921  19.386 -0.0438  0.3157  0.0820
33180W        W76171   7.746   9.645  23.737 -0.2261 -0.0121  0.0297
33181W        W76172   2.365  26.134  21.643  0.2219  0.0122  0.1435
33182W        W76173   7.962  18.116  18.678 -0.2367 -0.1229 -0.2841
33183W        W76174  21.174   5.212  13.917 -0.1992 -0.0963  0.0786
33184W        W76175   7.191  16.167   7.282  0.0154  0.2556  0.0973
33185W        W76176  31.297  26.657   5.330 -0.3001 -0.1125 -0.0036
33186W        W76177   7.071  10.783  19.207  0.1436 -0.0016  0.0401
33187W        W76178   5.032   6.422   5.908 -0.0928 -0.0612  0.1231
33188W        W76179  31.339  31.688  13.708  0.1973  0.2580  0.2447
33189W        W76180   9.789  26.202  15.592  0.2053 -0.1157  0.2031
33190W        W76181  30.085  23.606  20.140  0.1530  0.2146 -0.0090
33191W        W76182   9.136  29.806  19.380 -0.1535 -0.0938  0.1628
33192W        W76183  14.728  23.496  17.727 -0.1790  0.5186  0.4490
33193W        W76184  12.331  26.055  14.638 -0.3503 -0.0706 -0.1698
33194W        W76185   7.314  26.508  16.791  0.0445 -0.2248  0.1459
33195W        W76186   0.696  26.170  17.913  0.3499  0.0001  0.1366
33196W        W76187   9.119  21.327  26.601 -0.2064 -0.0641  0.0300
33197W        W76188  33.938   0.272  16.654 -0.0393  0.2820  0.0000
33198W        W76189  25.666  30.542  16.088  0.0069  0.1950 -0.2160
33199W        W76190   0.631  25.466  15.103 -0.0053 -0.4585 -0.0930
33200W        W76191  15.272   4.808  15.958  0.1808  0.0862 -0.0086
33201W        W76192  31.199  32.061  25.327  0.0748 -0.3294 -0.1528
33202W        W76193  27.849   8.976  18.425  0.0013 -0.1319 -0.0715
33203W        W76194   3.370  28.869  16.325  0.0229  0.1854  0.0136
33204W        W76195  20.835   9.533  27.680  0.0058 -0.0084  0.2975
33205W        W76196  17.300  23.793  18.192  0.0485 -0.2145  0.0435
33206W        W76197   4.917  32.280  18.691  0.2580  0.1219 -0.2331
33207W        W76198  14.379  30.004  23.939  0.2156  0.0177 -0.2633
33208W        W76199   1.689   5.928  23.587 -0.1751 -0.0562  0.0003
33209W        W76200  11.114   5.821  15.925  0.1222 -0.1561  0.0442
33210W        W76201  34.648  34.143  15.581 -0.2342 -0.0941 -0.1395
33211W        W76202   3.881  24.525  21.466 -0.0750  0.0218  0.0537
33212W        W76203  11.130  25.287  16.919 -0.3112 -0.2254  0.1075
33213W        W76204  29.980  26.627   1.160 -0.0092  0.0917 -0.3613
33214W        W76205  18.826  27.446  19.540 -0.1514 -0.0966  0.0110
33215W        W76206   4.321  20.794   1.355  0.0107  0.1684  0.0365
33216W        W76207  15.025  17.274  14.520 -0.0333 -0.1486 -0.1926
33217W        W76208  34.667   3.523  28.201  0.2851  0.3774 -0.1564
33218W        W76209   8.627   6.198  15.327  0.2939 -0.1099 -0.3034
33219W        W76210  13.007  25.352   4.838 -0.2068 -0.1058  0.2056
33220W        W76211   3.744   9.026  18.599  0.0260 -0.1362 -0.0633
33221W        W76212  17.049  34.241  22.683 -0.1421 -0.3145  0.0003
33222W        W76213   1.974  29.482  16.434  0.2113 -0.0895  0.2818
33223W        W76214  17.984  32.550  25.194  0.0113 -0.2172  0.3221
33224W        W76215   3.886  29.095  27.827 -0.2435 -0.3420 -0.0208
33225W        W76216   3.282  15.647  22.170 -0.1450  0.1146  0.0485
33226W        W76217   2.023   9.886  26.229 -0.1692 -0.1523 -0.0235
33227W        W76218  33.723   4.883   4.221  0.0182 -0.0354 -0.0091
33228W        W76219  16.035  20.966  22.889 -0.0940 -0.2516  0.1446
33229W        W76220   3.320  31.418  16.272 -0.1356 -0.0489 -0.0463
33230W        W76221  33.705  10.665  23.392 -0.1225  0.1036 -0.2033
33231W        W76222   8.327  20.737  26.509 -0.1112 -0.2814 -0.2292
33232W        W76223   6.436  26.019  19.525 -0.0675 -0.1839 -0.0014
33233W        W76224  17.165   7.835  28.666 -0.1060  0.1565  0.0778
33234W        W76225  26.204   2.395  25.978  0.2761 -0.0239 -0.4439
33235W        W76226   1.632   8.635   6.699 -0.1990  0.2193 -0.1073
33236W        W76227  17.188   0.448  16.473 -0.0268  0.2359 -0.0145
33237W        W76228  15.575  21.449  14.615  0.0484  0.1859 -0.1196
33238W        W76229   5.656  29.643  16.282 -0.0077  0.1441  0.1678
33239W        W76230  32.046  31.643  21.795  0.0168 -0.1307  0.0049
33240W        W76231   7.825  33.337  22.965 -0.1644 -0.2841  0.1985
33241W        W76232   6.973  19.552  20.307 -0.1717  0.1335  0.1607
33242W        W76233  15.106  27.522  16.081  0.2517 -0.1863  0.2323
33243W        W76234  31.946  12.662  25.272  0.0664 -0.3361  0.0395
33244W        W76235  16.175   2.433  20.719  0.1957  0.3057 -0.3303
33245W        W76236  29.662  20.263  28.532  0.2359  0.0257  0.1101
33246W        W76237  27.775   4.837  24.141 -0.2559  0.4049  0.0163
33247W        W76238  29.558   3.326  21.813  0.4417 -0.1230  0.1576
33248W        W76239  17.979  24.604  18.928 -0.1757  0.1259 -0.0714
33249W        W76240   5.051   3.080  15.357 -0.1046 -0.1255  0.3302
33250W        W76241   0.724  12.797  18.726 -0.2013 -0.1876  0.2926
33251W        W76242   4.715  12.220  25.951  0.0048 -0.1167  0.0746
33252W        W76243  34.501  23.393  22.131  0.3136 -0.2252  0.1287
33253W        W76244  12.055   2.435  19.690 -0.1017 -0.1516 -0.1419
33254W        W76245  10.246  29.936  26.634 -0.1660  0.0913 -0.1783
33255W        W76246  10.848   8.921  20.484 -0.1938 -0.0354  0.2606
33256W        W76247  12.591  29.317  14.900  0.0551  0.0353 -0.4136
33257W        W76248  34.032  19.369  23.585 -0.0749  0.0029  0.0711
33258W        W76249  30.374  25.112  14.587 -0.3584 -0.0630  0.0976
33259W        W76250  19.564  31.773  20.819 -0.2442  0.0722 -0.1300
33260W        W76251  28.028  18.355  26.145 -0.0349  0.0664  0.2475
33261W        W76252   4.595   3.736  27.327  0.0019  0.1157  0.3290
33262W        W76253  14.119  32.996  24.972  0.1215 -0.0505 -0.4602
33263W        W76254   3.648  25.373  27.131  0.2499 -0.2418 -0.1393
33264W        W76255   3.100   2.635  24.903  0.0187 -0.3534 -0.1333
33265W        W76256   5.591  28.709  23.055  0.0949  0.0049 -0.0687
33266W        W76257   1.790  31.043  13.696  0.2187 -0.0276  0.1184
33267W        W76258  26.054  30.706  25.836 -0.1048  0.1034  0.0648
33268W        W76259  10.733  27.984  18.781  0.1154 -0.0435  0.0192
33269W        W76260   2.510   0.616  24.687  0.1441  0.2738 -0.1958
33270W        W76261   1.293  31.935  19.089 -0.0154  0.1557  0.0427
33271W        W76262  22.319  13.171  18.330  0.3053 -0.0253  0.0508
33272W        W76263  28.954   3.972  18.404 -0.2270  0.0681 -0.0246
33273W        W76264   2.446   2.453  22.353 -0.2956 -0.2290 -0.0401
33274W        W76265  31.655  10.726  19.089 -0.1702  0.1242  0.1785
33275W        W76266   5.118  27.883  14.921 -0.0092 -0.0716  0.0041
33276W        W76267  29.711   4.716  15.324  0.2340 -0.2998  0.0723
33277W        W76268  14.483  32.792  22.657  0.1631 -0.1180 -0.3541
33278W        W76269  20.099   5.956   4.260 -0.2481 -0.2589  0.2077
33279W        W76270  28.189  22.308  16.079 -0.1128 -0.0706  0.2449
33280W        W76271  19.412   5.174  19.032 -0.0882 -0.2487 -0.1516
33281W        W76272  23.059  23.327  24.268  0.1235  0.1928 -0.2388
33282W        W76273  19.751  34.770  18.733 -0.3929 -0.0100  0.0537
33283W        W76274  31.996  29.506  23.798 -0.4707 -0.0932  0.2769
33284W        W76275  12.950   5.632  15.771  0.4720  0.0160 -0.2466
33285W        W76276   7.560   6.416  22.876  0.1414 -0.3289 -0.1829
33286W        W76277   9.770  26.482  20.656  0.0832 -0.1848  0.0172
33287W        W76278   7.725  10.591  24.116  0.0726 -0.0800 -0.1890
33288W        W76279   2.237  26.564  27.283  0.4903  0.3064 -0.2032
33289W        W76280   1.546   3.398  16.759  0.0250 -0.1321  0.0188
33290W        W76281  23.577  20.791  24.513  0.0222 -0.4035  0.1378
33291W        W76282  19.200  30.126   0.424 -0.3671  0.0786  0.1059
33292W        W76283   1.068  18.640  16.526 -0.2260 -0.2772 -0.1285
33293W        W76284  33.244   8.158  14.818  0.1603  0.1958  0.1679
33294W        W76285   3.644  20.191  20.933  0.0014 -0.1154  0.2709
33295W        W76286  13.489  18.254  17.764  0.1731 -0.2863 -0.0554
33296W        W76287   8.396  29.457   6.646  0.2073  0.0741  0.1920
33297W        W76288  33.054  31.702  25.943 -0.4494 -0.1179 -0.0889
33298W        W76289   5.718   8.328  16.995 -0.1335 -0.1626 -0.0310
33299W        W76290   0.783  26.197   0.509 -0.2649 -0.0453 -0.1754
33300W        W76291  29.336  27.799  21.758  0.2227 -0.1256 -0.1605
33301W        W76292   3.386  16.829  17.247 -0.0945 -0.2116  0.3478
33302W        W76293   4.540  34.302  14.570 -0.0275  0.0465 -0.1158
33303W        W76294   2.741   5.291  24.848  0.1813  0.2068 -0.1577
33304W        W76295  14.915   1.731  17.034 -0.2848  0.0694 -0.2238
33305W        W76296   5.460   1.219  25.694  0.1385  0.0210 -0.0363
33306W        W76297  14.429  19.623  22.105 -0.3663 -0.4031  0.0070
33307W        W76298   1.495   3.278   8.472  0.3019 -0.2884  0.1912
33308W        W76299   7.794  31.614  22.588  0.0047 -0.1111 -0.3389
33309W        W76300  30.146  30.733  16.926 -0.2431  0.1102 -0.0501
33310W        W76301   1.358  29.823  21.363 -0.0699  0.3967 -0.0984
33311W        W76302  14.195  22.918   7.251  0.1073  0.0134 -0.2247
33312W        W76303   2.851  21.334  14.842  0.1754  0.0923 -0.0843
33313W        W76304  11.861  17.584   3.348  0.3992 -0.3779 -0.1976
33314W        W76305  23.251  30.289  14.034 -0.0900 -0.0582  0.0890
33315W        W76306   6.584  13.805  25.907 -0.1482  0.0516  0.1092
33316W        W76307   9.075  10.735  17.059  0.2053 -0.0467  0.1176
33317W        W76308   7.194  33.336  23.740 -0.0001  0.1808  0.1441
33318W        W76309   9.620   0.424  17.454 -0.1756 -0.2958  0.1268
33319W        W76310   3.397   8.632  18.628  0.0829  0.1716 -0.3351
33320W        W76311   8.110  25.605  18.932  0.1229 -0.1316 -0.0198
33321W        W76312   9.450  27.768  20.968  0.2591  0.1185  0.1144
33322W        W76313  13.098  33.100  16.523  0.1520 -0.0461  0.1248
33323W        W76314   8.308  23.049  17.414 -0.1011 -0.2113  0.0871
33324W        W76315   0.957  24.076  22.307  0.0978  0.0948  0.1198
33325W        W76316   5.555  30.676  14.932 -0.0640  0.4139  0.0622
33326W        W76317  22.701  20.448  23.042 -0.0725  0.0618 -0.1783
33327W        W76318   2.614  30.345  15.653 -0.0316 -0.1047 -0.0166
33328W        W76319  24.889  27.112  20.776 -0.1654  0.0130 -0.0595
33329W        W76320   1.796  25.797  20.572  0.4004  0.1254  0.2771
33330W        W76321   7.789  19.098  20.532  0.1867  0.0299 -0.2256
33331W        W76322  13.797  29.257  22.332  0.0860  0.1471 -0.4887
33332W        W76323  30.726  25.030  17.010 -0.1967 -0.0485  0.1209
33333W        W76324   5.405   9.402  16.584 -0.2273 -0.4163  0.1096
33334W        W76325   3.134  26.735  28.655  0.3186  0.0627  0.0725
33335W        W76326  30.313   1.468  13.844 -0.0013  0.1181  0.1146
33336W        W76327   6.276  24.266   3.738 -0.1679  0.1724  0.0877
33337W        W76328   2.798   7.320  18.006 -0.1547 -0.1273 -0.0764
33338W        W76329   1.090  32.332  15.516  0.0511  0.0580  0.2511
33339W        W76330   2.643   2.385  15.226 -0.0101 -0.0639  0.3020
33340W        W76331   8.219   4.258  24.003  0.0901  0.0381 -0.0606
33341W        W76332  13.997  29.886  15.848  0.2596 -0.0393 -0.2033
33342W        W76333  29.827   8.839  20.572  0.0561  0.0833  0.0687
33343W        W76334  27.253   7.751   1.119 -0.0901 -0.0620 -0.2046
33344W        W76335  28.522   2.086  20.710 -0.3195  0.3134  0.0800
33345W        W76336   1.415  21.999  17.896 -0.2096  0.0612 -0.1066
33346W        W76337   2.131  24.608  15.646  0.0855 -0.0769  0.2021
33347W        W76338  27.739   8.668  22.133 -0.2879 -0.0084  0.2053
33348W        W76339   5.841   7.321  18.030 -0.3369 -0.0613 -0.1735
33349W        W76340  18.928   7.460  20.208  0.0701  0.0461  0.0838
33350W        W76341   8.913  31.706  26.434  0.3004  0.0487  0.1671
33351W        W76342   8.097   4.171  18.177 -0.0547  0.3207 -0.0442
33352W        W76343   0.749  30.188  25.179  0.3935 -0.1213  0.1784
33353W        W76344   4.725   3.469  23.861  0.1256 -0.2108 -0.1448
33354W        W76345  33.264  34.778  21.900 -0.1761  0.1266 -0.1934
33355W        W76346   2.869  13.204  19.252 -0.1141  0.1576  0.1994
33356W        W76347  25.431  32.852  17.270 -0.2454 -0.1414  0.0061
33357W        W76348   1.695  32.429  24.500  0.0157 -0.1257 -0.3094
33358W        W76349  11.162  30.674  26.304  0.0097 -0.1335  0.2147
33359W        W76350   6.595   2.124  24.315 -0.0176 -0.2078  0.1260
33360W        W76351   3.266  11.534  27.604  0.1532  0.1597 -0.1525
33361W        W76352   5.536   2.360  22.332  0.0357 -0.2088  0.2416
33362W        W76353   0.006  10.689  23.310 -0.1628  0.4185  0.1561
33363W        W76354   5.196  15.611  20.634  0.1880 -0.1366 -0.0053
33364W        W76355   0.064  26.332  28.107  0.1069  0.0018 -0.0929
33365W        W76356   3.558  25.960  20.129 -0.1354  0.1664  0.1781
33366W        W76357   3.967   7.035  20.564  0.1856  0.1359 -0.0722
33367W        W76358  33.306  33.539  28.488 -0.0719  0.0913  0.1566
33368W        W76359   8.171   0.946   1.624  0.4550  0.1295 -0.1695
33369W        W76360  21.954  31.455  18.293  0.0446 -0.1160 -0.1501
33370W        W76361   2.279   1.699  18.628  0.2979  0.0037  0.0831
33371W        W76362  13.800  29.072  21.607 -0.2187 -0.1354  0.1012
33372W        W76363   9.649  14.812  15.261  0.0052 -0.0415  0.2110
33373W        W76364   9.441   2.585  15.938  0.0126 -0.0582 -0.1064
33374W        W76365   6.428  28.507  15.752 -0.0915  0.0628 -0.2403
33375W        W76366   1.465   0.023  15.420 -0.3689  0.0793  0.0641
33376W        W76367   2.015  25.389  16.707 -0.2095 -0.0026  0.0614
33377W        W76368  16.098  26.525  18.164 -0.2249 -0.1523  0.2169
33378W        W76369   1.491   0.135  27.525 -0.2020 -0.2132 -0.2318
33379W        W76370   2.699   3.077  21.218  0.0174  0.1557  0.0143
33380W        W76371  30.798   5.796  26.233 -0.1318  0.0811 -0.2641
33381W        W76372  23.265   7.692  21.423  0.1299 -0.2585  0.0838
33382W        W76373   0.406   0.611  19.988 -0.2980  0.0571 -0.1619
33383W        W76374  23.112  25.169  16.634 -0.0516  0.1290  0.0338
33384W        W76375   7.241  32.603  21.045 -0.0574  0.0685 -0.1051
33385W        W76376  30.726  19.865  16.179  0.2281 -0.2302 -0.0278
33386W        W76377   2.857   2.464   0.493 -0.1401  0.0554 -0.0733
33387W        W76378  24.177  31.839   7.456  0.1984  0.1973 -0.2288
33388W        W76379  19.531   5.797  28.311  0.0214 -0.1216 -0.1236
33389W        W76380   3.126  21.551  18.129  0.0994 -0.0868 -0.1182
33390W        W76381  16.804  27.542  23.502  0.4321 -0.1917 -0.1580
33391W        W76382   9.366  27.828  19.306 -0.0865  0.1310 -0.1338
33392W        W76383   0.973  26.953   0.724 -0.0953 -0.0985 -0.1779
33393W        W76384  11.063   1.353  19.050 -0.0612  0.4607  0.1175
33394W        W76385   4.183  28.134  19.314 -0.0283 -0.2895 -0.0032
33395W        W76386   8.018  32.482  27.341 -0.3975  0.1284  0.1833
33396W        W76387   1.234  29.222   2.562  0.0735 -0.0986  0.2980
33397W        W76388  27.632  12.275  17.081 -0.2590  0.3659 -0.0751
33398W        W76389   1.465   8.422  18.538  0.3908 -0.1995 -0.0716
33399W        W76390   5.143  28.871  22.955  0.2999 -0.6173 -0.0179
33400W        W76391   6.921  29.725  25.168 -0.1793 -0.3088  0.2860
33401W        W76392  12.494  30.269  14.905 -0.2950 -0.0523  0.2009
33402W        W76393  18.381   9.239  21.712  0.0744  0.3324  0.0374
33403W        W76394   7.238  24.453  16.576  0.0189  0.5427 -0.0214
33404W        W76395   2.260  28.073  16.971 -0.0669  0.1105  0.0727
33405W        W76396   0.820  33.255  16.309  0.0902 -0.1056 -0.3800
33406W        W76397  18.812  26.843  14.966  0.1638  0.1572 -0.1739
33407W        W76398  33.208   1.388  22.810  0.3163 -0.1188 -0.0919
33408W        W76399  22.307   1.688  23.334  0.2360 -0.1355  0.2400
33409W        W76400  10.584  26.600  27.487 -0.3913 -0.3366 -0.1871
33410W        W76401  31.273  28.240  16.388 -0.0023 -0.4246  0.4595
33411W        W76402  22.201  29.263  21.128 -0.3149  0.1325  0.1311
33412W        W76403  16.926   0.139   6.391 -0.1752  0.2943  0.0238
33413W        W76404  25.188  31.403  19.867 -0.0170  0.1811 -0.0673
33414W        W76405  31.757   6.621  15.393  0.0419 -0.0869 -0.2041
33415W        W76406  15.800  20.998   9.444 -0.2461 -0.0899  0.0571
33416W        W76407  26.589  27.511   7.282 -0.2736 -0.1218  0.1112
33417W        W76408  10.901  18.974  20.690  0.1376  0.0107  0.1600
33418W        W76409  16.826  24.630  14.615  0.1013  0.0153  0.3239
33419W        W76410   6.195  25.758  15.554  0.0325  0.1871  0.0209
33420W        W76411  20.679  13.847  16.821 -0.0370  0.2645  0.3406
33421W        W76412  16.687   3.903  14.024 -0.2480 -0.0746  0.1494
33422W        W76413   4.909  29.336  14.948 -0.1252  0.0009  0.0845
33423W        W76414  10.177   2.062  16.819  0.0092  0.0271 -0.0058
33424W        W76415   3.404   2.942  24.327  0.1310  0.0149 -0.1644
33425W        W76416  10.533  31.293  22.136 -0.1345  0.1210 -0.1074
33426W        W76417  30.904   6.815  17.051 -0.1279  0.0226  0.2347
33427W        W76418  28.410  19.799   8.113  0.3712 -0.0030 -0.0470
33428W        W76419  32.726   3.109  16.509  0.0805 -0.0276  0.2876
33429W        W76420   6.627  18.558  18.347  0.1155 -0.1380 -0.0210
33430W        W76421   8.316   2.617  18.764  0.3681  0.1822  0.0633
33431W        W76422  15.862  33.819  24.232  0.3929  0.1495 -0.1642
33432W        W76423   7.862  26.674  17.602  0.0201 -0.0324  0.0186
33433W        W76424   8.064  12.122  22.786  0.0581 -0.1185 -0.1925
33434W        W76425  12.401  13.896  26.598  0.0009  0.0189 -0.1850
33435W        W76426   7.632   2.698  24.560  0.0277  0.0163  0.4533
33436W        W76427  27.397  27.826  18.926 -0.1042 -0.0397  0.1889
33437W        W76428  12.072  31.541  16.697 -0.1103 -0.1033 -0.3335
33438W        W76429  18.747  33.356  13.298 -0.1963  0.0499  0.1340
33439W        W76430  32.170  20.144  13.513 -0.0935 -0.3737  0.0141
33440W        W76431   3.686   7.731  17.988  0.3340  0.0854 -0.0842
33441W        W76432   6.037  24.133  16.602  0.3244  0.1618 -0.2245
33442W        W76433   5.001   6.963  25.166  0.0251  0.0421 -0.1574
33443W        W76434   8.821  31.152  18.102 -0.0444 -0.0951  0.1340
33444W        W76435   9.827  29.876  20.283  0.5147  0.0986 -0.0215
33445W        W76436  26.611  33.292  25.583  0.1296  0.0182 -0.1134
33446W        W76437   2.740   6.339  24.064 -0.1038 -0.3718  0.0291
33447W        W76438  25.645  26.716  17.884 -0.1888  0.2259 -0.1457
33448W        W76439   4.762  18.774  15.666 -0.1018 -0.1831  0.1487
33449W        W76440  20.148   7.474   3.017  0.4307 -0.1891 -0.1475
33450W        W76441   4.345  22.484  18.675  0.1090 -0.1652  0.0136
33451W        W76442  10.533   2.955  18.699  0.3220 -0.0259  0.0033
33452W        W76443   0.805  34.135  21.139 -0.0389 -0.1025 -0.1476
33453W        W76444  24.907  29.333  14.938  0.1698 -0.2249  0.2310
33454W        W76445  14.279  24.385  20.910  0.1719  0.0313 -0.1425
33455W        W76446  22.584  21.872  26.610  0.0114  0.1439  0.0589
33456W        W76447  18.032  23.722  24.664 -0.1240 -0.1906  0.0870
33457W        W76448  30.721   2.205  17.383  0.0274  0.0770  0.0895
33458W        W76449   5.217   0.762  20.530 -0.1191  0.1679 -0.2423
33459W        W76450  11.056   9.427  21.868 -0.2192  0.6914  0.0021
33460W        W76451   2.046  26.028  23.041  0.1020  0.2198  0.1476
33461W        W76452   1.108  32.111  23.238  0.0935  0.1563  0.0872
33462W        W76453  21.048  30.021  21.599 -0.1070 -0.0474 -0.1297
33463W        W76454  17.015   8.553  24.907  0.0260  0.4166  0.1681
33464W        W76455  29.735  27.055   1.455  0.3554 -0.0313 -0.0500
33465W        W76456  15.500  32.946  14.427 -0.1077 -0.0184  0.1365
33466W        W76457  33.357  18.773  20.538 -0.1227 -0.0773  0.0197
33467W        W76458   6.349   3.525  18.305  0.1573 -0.4174  0.0615
33468W        W76459  34.687   9.476   1.331 -0.3824 -0.1872 -0.0291
33469W        W76460  18.945  27.207  17.839  0.4803 -0.2954 -0.2012
33470W        W76461  14.132  33.265   0.763  0.0187  0.1290  0.1027
33471W        W76462   5.835   4.060  22.945 -0.0263  0.0508 -0.0328
33472W        W76463  30.809  14.772   0.730 -0.2348  0.1425  0.1341
33473W        W76464   9.192   3.096  18.228  0.1679  0.0133 -0.1656
33474W        W76465   0.279  26.558  22.000  0.1888 -0.2506  0.1687
33475W        W76466  15.065  27.941  14.425 -0.0504  0.3353  0.0436
33476W        W76467   7.883  31.925  14.466 -0.1790  0.1714  0.2906
33477W        W76468   4.638  13.332  21.697  0.2971  0.2099  0.3574
33478W        W76469   0.033   3.722  16.385 -0.0697 -0.0715 -0.4082
33479W        W76470   7.875  31.103  28.438  0.1146  0.3217 -0.1577
33480W        W76471  32.437  17.156  21.968  0.0985  0.2962  0.1173
33481W        W76472   0.295   8.596  16.560  0.2266  0.2926 -0.0996
33482W        W76473  33.988  26.487   8.986  0.0911  0.1752 -0.0409
33483W        W76474  34.788  25.073  19.264 -0.0673 -0.0030 -0.0490
33484W        W76475  29.915  14.879  26.330 -0.1819 -0.2801  0.1018
33485W        W76476  31.795  30.993  27.502  0.2973 -0.2408 -0.2267
33486W        W76477  17.111   1.072  14.272 -0.0317  0.2260 -0.0511
33487W        W76478   6.422  13.895  19.165  0.0542  0.2312  0.2729
33488W        W76479   9.885  24.168  14.397  0.4572  0.1065 -0.5998
33489W        W76480  25.981  33.947  15.601 -0.0419  0.1981 -0.1778
33490W        W76481  19.649  34.240  25.589  0.0256  0.2463 -0.0134
33491W        W76482  34.669  28.520  22.051 -0.2448  0.1949  0.1843
33492W        W76483   2.297  32.726  25.345 -0.2531 -0.2121  0.1822
33493W        W76484  17.645  31.736  15.742 -0.2307 -0.0898  0.0755
33494W        W76485  15.399  25.691  13.223  0.0911  0.0703 -0.0071
33495W        W76486  24.025   8.939   3.033  0.2327 -0.1208  0.1745
33496W        W76487   0.082   4.964  25.992  0.0132  0.0373 -0.0445
33497W        W76488  25.743   2.283  21.272 -0.0404 -0.2802  0.1191
33498W        W76489  29.393  27.776  12.738 -0.1594  0.2170 -0.0602
33499W        W76490  15.879  34.094  15.806  0.1219 -0.0157  0.2481
33500W        W76491  25.973  20.959  14.322  0.0376 -0.0039 -0.0099
33501W        W76492  33.951   0.444  24.805 -0.0276 -0.1181  0.0925
33502W        W76493   8.662  24.692  21.504 -0.1434  0.3709 -0.0296
33503W        W76494  21.553  24.211  15.601 -0.1847 -0.0131 -0.0499
33504W        W76495   5.481  19.486  22.166 -0.0411  0.1293  0.0376
33505W        W76496  33.459  17.559  19.921 -0.0398  0.0336 -0.1943
33506W        W76497  33.647   3.308  16.368  0.2598  0.0209  0.0459
33507W        W76498   6.376   0.689  17.237  0.3536  0.0634 -0.0068
33508W        W76499  19.165  17.971  24.714  0.0926  0.0356  0.1692
33509W        W76500   1.431  10.097  16.398 -0.2156 -0.0447  0.2123
33510W        W76501  31.152   0.115  16.763 -0.1892  0.0705 -0.2180
33511W        W76502  15.888   5.408  22.799 -0.1731  0.0444 -0.1095
33512W        W76503  12.937  20.243  13.149  0.0177  0.1268  0.1029
33513W        W76504   6.793  17.224   0.841  0.1126 -0.1983  0.2225
33514W        W76505  32.028  27.665  13.506  0.1722  0.3368  0.0639
33515W        W76506  33.784   0.765  21.004 -0.0843 -0.0366 -0.1382
33516W        W76507  11.057  24.509  19.063  0.1289 -0.1557  0.0473
33517W        W76508  21.483  27.829  23.542  0.0418 -0.0323  0.2918
33518W        W76509  32.402  24.713  19.006 -0.0521  0.0330 -0.0582
33519W        W76510   7.302   4.870  19.621  0.0949  0.0809  0.0642
33520W        W76511   0.356  20.625  18.696  0.1095 -0.1289  0.0411
33521W        W76512   7.818  11.640  19.531  0.1922 -0.2739 -0.3708
33522W        W76513  16.611  32.174  23.902 -0.0630  0.1905 -0.2747
33523W        W76514   8.003  20.052  20.467 -0.0718  0.0708 -0.0842
33524W        W76515   9.990   0.616  16.461  0.1373  0.2006  0.0601
33525W        W76516  12.092  30.937  18.759  0.0007  0.1312 -0.0625
33526W        W76517  10.377   1.800  29.081  0.1811  0.0318 -0.0930
33527W        W76518  16.173   0.270  27.260 -0.0370 -0.0305 -0.0742
33528W        W76519  32.246  32.976  24.935  0.0836 -0.1173 -0.2991
33529W        W76520  34.661  13.345  27.491 -0.0914 -0.0380  0.0968
33530W        W76521   3.285  27.424  24.868 -0.1321  0.0963  0.0074
33531W        W76522  30.021   0.377  20.382  0.1527 -0.0464  0.1858
33532W        W76523   0.951  11.183  16.649 -0.0191  0.3212 -0.0627
33533W        W76524  27.926  25.260  27.621  0.2934  0.3788 -0.0553
33534W        W76525  20.090  14.772  16.589 -0.2490  0.4295 -0.0507
33535W        W76526  32.963   7.506  28.093 -0.0191  0.0389  0.1566
33536W        W76527  17.748  14.427  28.136 -0.2261  0.0706 -0.3342
33537W        W76528  31.950  28.355  28.600 -0.1225  0.3080  0.0610
33538W        W76529   9.643  19.159  22.047 -0.2421  0.1009  0.0433
33539W        W76530   1.260   3.790  18.821  0.2448  0.1260  0.0580
33540W        W76531  24.896  14.951  14.450 -0.2176  0.0220 -0.1025
33541W        W76532   2.869  23.742  19.111  0.0837 -0.0902 -0.2629
33542W        W76533   3.133  20.154   5.124 -0.2725 -0.1547  0.1267
33543W        W76534  34.509  14.174   1.534  0.2444  0.0903 -0.1758
33544W        W76535  11.281  25.843  15.392 -0.0936  0.3201  0.0338
33545W        W76536  25.687   3.033   0.300 -0.2350 -0.1021 -0.1346
33546W        W76537   0.471  26.308  22.605  0.1995  0.0877 -0.0545
33547W        W76538  27.811  23.861  16.601 -0.1781  0.1335  0.1157
33548W        W76539  18.254  14.001  22.114 -0.0726 -0.0843 -0.0318
33549W        W76540  18.123  22.397  23.114 -0.0887  0.0198 -0.0058
33550W        W76541  15.839  14.331  28.885  0.1111 -0.2478  0.0795
33551W        W76542  26.716  14.915  26.494  0.0922  0.3590  0.1526
33552W        W76543  31.940  29.808  14.372  0.0993  0.0869  0.1583
33553W        W76544  12.023  19.128  14.028 -0.2599 -0.1781 -0.0818
33554W        W76545   5.668  34.748   1.361  0.0877 -0.3856  0.0860
33555W        W76546  15.954   0.460  19.278 -0.2159  0.0006 -0.1096
33556W        W76547   3.636   8.113  15.276  0.1042  0.0374 -0.2523
33557W        W76548  23.782   4.909  20.161  0.1277  0.0347 -0.1339
33558W        W76549   8.483  33.222  18.387 -0.0856  0.0668  0.1006
33559W        W76550  10.981  11.634   4.285  0.3620  0.1698  0.0278
33560W        W76551   0.069  31.305  17.427  0.3197 -0.1398 -0.2420
33561W        W76552  20.727  32.225  28.249  0.0639  0.2265 -0.2060
33562W        W76553  11.001   7.321   6.264  0.0313 -0.1290 -0.1190
33563W        W76554  15.360  26.678  27.893  0.0638  0.1203 -0.3197
33564W        W76555   4.936   3.774  21.156  0.1694  0.0983  0.1233
33565W        W76556  10.400  28.516  20.154 -0.0981 -0.2742 -0.4354
33566W        W76557  27.116  13.377  15.434 -0.2426 -0.0700  0.2418
33567W        W76558  25.025  21.323  13.739  0.0792 -0.0756 -0.0473
33568W        W76559  11.009  29.650  15.667  0.3383  0.1883  0.2003
33569W        W76560   2.397  14.847  17.478  0.1249 -0.1276 -0.1762
33570W        W76561  17.888  20.285  26.008  0.0567 -0.0309 -0.0292
33571W        W76562  18.763  28.421  24.414 -0.2081  0.1196 -0.0645
33572W        W76563  32.839  30.620  15.559 -0.3297  0.0315 -0.1185
33573W        W76564   5.249  17.399  15.187 -0.3603  0.1769 -0.0543
33574W        W76565  32.669   8.813  27.711 -0.3624 -0.2279 -0.4067
33575W        W76566  20.603  33.770   2.074  0.0328 -0.2214 -0.1324
33576W        W76567  32.213  14.551  16.805 -0.4436 -0.1847  0.0221
33577W        W76568   5.320  26.661  25.227 -0.0735 -0.0261 -0.2205
33578W        W76569   5.649  14.680  16.571 -0.1296  0.2335 -0.0653
33579W        W76570  29.695  11.596   9.660  0.0717  0.1596 -0.0022
33580W        W76571  23.794   4.039  22.233 -0.0317  0.1324  0.0959
33581W        W76572  13.764   1.627  17.176 -0.0567 -0.0118 -0.3408
33582W        W76573   6.766  12.788  23.086  0.1261 -0.1080  0.1507
33583W        W76574   9.904  29.088  26.041 -0.1270 -0.0177 -0.0357
33584W        W76575   3.159  10.094  23.850  0.1510  0.2215  0.2415
33585W        W76576   7.826  22.419  25.051  0.2818  0.0658  0.1327
33586W        W76577  29.666   7.754   0.778 -0.0016 -0.2636  0.1503
33587W        W76578  18.920   4.149  24.824  0.2479 -0.0974 -0.3949
33588W        W76579  18.992   6.372  15.796  0.1728  0.0135 -0.1168
33589W        W76580   3.478  32.534  22.504  0.1378 -0.2214  0.0257
33590W        W76581   6.293  11.222  26.550  0.2083  0.1626  0.2997
33591W        W76582  27.538  31.635  26.624  0.5402 -0.0549  0.3070
33592W        W76583   5.996   2.288  25.063 -0.3181  0.1311  0.0425
33593W        W76584  30.971  20.703  19.446 -0.0125 -0.4744 -0.2800
33594W        W76585  29.211  33.567  23.048 -0.0375 -0.0022  0.0618
33595W        W76586  21.257  31.047  26.661 -0.2358  0.1239 -0.0665
33596W        W76587  33.588  16.513  15.450  0.2589 -0.1232 -0.3926
33597W        W76588  24.839  26.062  19.946  0.1599 -0.0654 -0.2519
33598W        W76589   8.479  24.355  27.965 -0.0337 -0.1496 -0.1672
33599W        W76590  26.955   7.251  19.163  0.4299  0.0678 -0.2231
33600W        W76591  11.253  24.170  21.876  0.1623  0.0608  0.0418
33601W        W76592  10.470  32.700  16.437 -0.1505 -0.2802  0.1201
33602W        W76593  26.605  23.170  22.911  0.1928  0.1841 -0.0706
33603W        W76594  21.751  27.222  14.476 -0.1529  0.1200  0.2356
33604W        W76595   6.748  34.177  24.716 -0.4309  0.0802 -0.0977
33605W        W76596  13.201  34.457   0.378 -0.0694 -0.2170  0.1962
33606W        W76597   7.352   4.459  15.648 -0.1010  0.1774 -0.3296
33607W        W76598  32.626  25.093  21.432 -0.2611 -0.1089 -0.0241
33608W        W76599   6.274   0.885  25.760 -0.2443 -0.1296  0.0188
33609W        W76600   5.823   1.647  19.002 -0.0215  0.0266  0.0329
33610W        W76601  15.492  31.755  15.163  0.0502 -0.1265  0.0838
33611W        W76602  31.625   6.618  24.312 -0.0927 -0.2289 -0.0894
33612W        W76603   6.974  22.450  21.662  0.0777 -0.4149 -0.1235
33613W        W76604   4.578  18.048  26.980 -0.0972 -0.1464 -0.0081
33614W        W76605  29.760   2.344  21.329  0.1409  0.2068 -0.2326
33615W        W76606   5.715  17.125  21.370 -0.0028 -0.2915  0.0121
33616W        W76607  28.571  33.238  22.141  0.2837 -0.1592  0.0642
33617W        W76608   6.108  31.677  24.580  0.1094  0.1934 -0.2242
33618W        W76609  24.615   8.612  15.701 -0.2217 -0.0016 -0.0415
33619W        W76610   2.545   5.903  17.920  0.1180  0.0265  0.2290
33620W        W76611  28.323  30.570  14.109 -0.0672 -0.0967 -0.1062
33621W        W76612   3.587  23.456  24.474  0.1017  0.1351  0.0077
33622W        W76613   6.830   7.058  21.543  0.1320  0.1836  0.0116
33623W        W76614   4.376   0.710  27.132 -0.2654 -0.3473  0.0684
33624W        W76615   8.786   9.781   0.657  0.0905 -0.1864 -0.2092
33625W        W76616  11.698  29.943   2.242 -0.2668 -0.0566  0.0039
33626W        W76617  11.082   2.179  17.961 -0.2259  0.1548 -0.0420
33627W        W76618   2.088   0.898  24.819 -0.0788 -0.0134  0.1994
33628W        W76619   9.068  28.694   5.368 -0.3691 -0.0675 -0.1623
33629W        W76620  25.439  21.645  17.995  0.0629 -0.2932 -0.1487
33630W        W76621   0.998   8.417  20.365  0.0651  0.0884  0.0098
33631W        W76622  14.051   3.456  22.345 -0.1296 -0.0398 -0.2301
33632W        W76623   0.444  32.274  20.503  0.1679  0.1351  0.0398
33633W        W76624   6.350  33.771  14.269 -0.2756 -0.0287 -0.2848
33634W        W76625   8.437   7.350  20.600  0.1388 -0.1179 -0.0799
33635W        W76626   7.022  17.046  15.393 -0.1435  0.2095 -0.1504
33636W        W76627  32.040  24.561  22.548 -0.4500  0.0757 -0.1044
33637W        W76628  14.667  33.734  27.176  0.2508  0.1144  0.0748
33638W        W76629   0.486  27.017  19.727  0.2580 -0.0716 -0.1266
33639W        W76630  17.424  14.557   6.089  0.3606 -0.1955 -0.0894
33640W        W76631   3.846  31.595  20.321  0.0154 -0.0670  0.0230
33641W        W76632   6.089  33.076  15.421 -0.0509 -0.0786 -0.1405
33642W        W76633  13.002  33.600  18.800 -0.2216 -0.0322 -0.2374
33643W        W76634  25.745  22.090   2.432  0.0007  0.1192 -0.4785
33644W        W76635   0.609   5.147  20.614 -0.1564 -0.0180  0.0803
33645W        W76636   9.276  27.061  24.066 -0.1289 -0.2106 -0.1424
33646W        W76637  21.591  22.047  17.709 -0.0862  0.0540  0.0489
33647W        W76638  13.461  31.233  21.512 -0.2049 -0.1270 -0.1550
33648W        W76639  16.947  33.949  14.520  0.2126 -0.0142  0.1085
33649W        W76640   2.700  18.352  22.285  0.2690  0.3257  0.0191
33650W        W76641  33.468   7.127  17.351  0.1439  0.0760 -0.0256
33651W        W76642  10.553  33.733  22.469  0.0254  0.1293  0.1105
33652W        W76643  11.628   5.516  27.131  0.1127  0.1331  0.1168
33653W        W76644   5.652  34.105  18.918  0.0881 -0.0417 -0.1314
33654W        W76645  16.552  30.350  13.999  0.2094  0.0201 -0.1217
33655W        W76646  34.750   5.811  17.272 -0.1823 -0.0377 -0.0963
33656W        W76647   7.941  23.874  22.601  0.0655 -0.0167  0.0139
33657W        W76648  13.132  29.084  17.344  0.3800 -0.0566 -0.2135
33658W        W76649   2.146  26.669  13.987  0.2723  0.0626  0.1018
33659W        W76650  29.616  14.694  23.656  0.0331 -0.3457 -0.4208
33660W        W76651  12.452  18.573  16.380  0.1459 -0.2904  0.0998
33661W        W76652  25.294  34.776  21.337  0.3494  0.1170 -0.2079
33662W        W76653   0.999   4.692   0.219  0.0103  0.0684  0.1385
33663W        W76654   6.686  23.253  27.392  0.0668  0.2024  0.1868
33664W        W76655   7.202  31.521  16.970 -0.1513 -0.0896  0.0012
33665W        W76656  14.572   1.750  20.296 -0.2956 -0.1475 -0.0967
33666W        W76657  31.988  32.592  22.035 -0.0973  0.3584 -0.0082
33667W        W76658  27.660  33.075  23.349 -0.3639  0.0838 -0.1362
33668W        W76659  27.918  28.324   1.722 -0.2430 -0.0495  0.3300
33669W        W76660   2.476  11.161   8.049 -0.3928 -0.3365  0.0119
33670W        W76661   0.733  33.500  24.593  0.0134 -0.0996  0.1195
33671W        W76662   5.962  25.184  21.035  0.1932  0.1137 -0.1326
33672W        W76663  23.248   5.335  16.794  0.1205 -0.1671  0.1239
33673W        W76664  28.580  33.753  15.370 -0.1451  0.0921  0.0106
33674W        W76665  30.962   8.434   1.203 -0.5022  0.1433  0.0628
33675W        W76666   8.660  15.337  20.646 -0.0214  0.2944 -0.1468
33676W        W76667   6.848  12.442  15.042  0.0421  0.3791  0.0948
33677W        W76668  11.250  26.609  17.270  0.1470  0.0729 -0.1188
33678W        W76669  10.191  29.213  16.789 -0.2018  0.0605  0.1379
33679W        W76670  26.393  26.873  22.653 -0.0903 -0.3162  0.2975
33680W        W76671   3.352  28.441  21.548 -0.0353 -0.1715 -0.1475
33681W        W76672  27.841  19.312  19.423 -0.0185  0.0585 -0.1015
33682W        W76673  33.206  33.131  13.475  0.3147 -0.0844 -0.0174
33683W        W76674   7.575  10.420  19.332 -0.1880 -0.1695 -0.0667
33684W        W76675  26.031  30.067   4.604 -0.3140  0.2473 -0.2114
33685W        W76676   7.449   3.809  18.038 -0.1092 -0.0076 -0.0875
33686W        W76677  11.347  13.516  24.224 -0.0792  0.1127  0.1511
33687W        W76678   3.068  26.369   1.317 -0.4274  0.2427  0.0365
33688W        W76679  32.628  15.127  20.316  0.1570  0.0759 -0.0862
33689W        W76680   8.440  25.904  18.084  0.1822  0.1237 -0.1871
33690W        W76681  32.351   5.231  15.719  0.3034  0.1316 -0.0227
33691W        W76682  15.396  29.529  22.960  0.2203 -0.1859 -0.1537
33692W        W76683   0.481  26.507  26.955 -0.1557  0.2035 -0.0408
33693W        W76684  30.337  27.895  19.315 -0.0061  0.0424 -0.1928
33694W        W76685  23.567  10.229  20.822 -0.3497  0.1346 -0.1365
33695W        W76686  30.261   7.600  18.215 -0.2261 -0.1231  0.0818
33696W        W76687  16.847  27.880  19.538  0.3780  0.0494 -0.1170
33697W        W76688  13.950  33.273  22.342 -0.0959  0.0753 -0.1345
33698W        W76689   2.299  33.325  16.341 -0.2536 -0.1435  0.0383
33699W        W76690   7.931  30.122  19.514  0.0226 -0.2623 -0.2564
33700W        W76691  15.444  28.491  22.306  0.0726 -0.0823 -0.2710
33701W        W76692   7.300   0.081  24.797  0.0289  0.2060 -0.1162
33702W        W76693   8.644  16.742   1.921 -0.2084 -0.0918 -0.0772
33703W        W76694  31.309  29.020  20.403  0.1047  0.0746 -0.0999
33704W        W76695  11.122  28.063  16.185 -0.1179  0.1090  0.0291
33705W        W76696   0.258  28.929  17.135 -0.1175 -0.2138 -0.0481
33706W        W76697   3.932   1.297  16.265  0.0953  0.1006  0.0072
33707W        W76698  18.319   6.377  23.089  0.1225 -0.0255  0.1133
33708W        W76699  11.958  33.138   6.394  0.0761 -0.1752 -0.1792
33709W        W76700  20.482  14.006  22.522 -0.0005 -0.0525 -0.2048
33710W        W76701  13.246  29.887  23.538  0.0446 -0.3314  0.0693
33711W        W76702  19.841  18.086  25.617  0.2627  0.1380 -0.2792
33712W        W76703  23.865  25.089  18.870 -0.3064 -0.0350  0.0710
33713W        W76704  16.521  14.181  13.244 -0.0217  0.0276 -0.2112
33714W        W76705  13.520  26.305  17.805 -0.2891  0.2068 -0.2919
33715W        W76706  31.682  33.255  21.197  0.0631 -0.0550 -0.0196
33716W        W76707   3.906  21.285  17.183  0.0935  0.1696 -0.0095
33717W        W76708  31.949   5.979   6.955 -0.0095 -0.2609  0.1937
33718W        W76709  30.392  18.037  20.765 -0.3757  0.1027 -0.2133
33719W        W76710   2.061  33.508  26.387 -0.3489  0.1217 -0.0963
33720W        W76711  22.093   3.728  22.420  0.0338  0.1482  0.3006
33721W        W76712  26.524  32.396  20.870 -0.4560 -0.1401  0.1686
33722W        W76713   1.129   2.435  22.312 -0.1730 -0.0083  0.1810
33723W        W76714  12.992  23.074  17.242 -0.2429  0.1251  0.0004
33724W        W76715  12.214  25.328  23.607 -0.3068 -0.0447 -0.1369
33725W        W76716   8.602  28.053  23.475  0.2742 -0.0173  0.1355
33726W        W76717  32.037   6.612  16.805 -0.2484  0.0715 -0.0011
33727W        W76718  28.591   4.510  15.707  0.0926 -0.0138  0.0281
33728W        W76719  26.118  26.113  15.579 -0.2432 -0.0748 -0.2354
33729W        W76720   4.279  33.230  20.231 -0.0092  0.0212 -0.0735
33730W        W76721  10.220  26.230  23.636  0.2505 -0.1225 -0.1173
33731W        W76722   1.759  25.143  16.416  0.2189 -0.2424 -0.1416
33732W        W76723   6.918  34.737  17.650  0.0403  0.2606  0.0011
33733W        W76724  14.438  30.675  25.131  0.1663  0.2025  0.1406
33734W        W76725   8.304   0.234   4.859  0.1256 -0.3007 -0.0886
33735W        W76726   1.492  11.400  19.308 -0.0844 -0.1878 -0.2724
33736W        W76727  23.410  17.695  20.046  0.0718 -0.0843 -0.1428
33737W        W76728   1.062  25.277   0.474  0.1824 -0.1460 -0.2136
33738W        W76729  13.212  23.160  20.447  0.0596  0.0898  0.3829
33739W        W76730   4.072  12.160  16.365  0.0799  0.1666 -0.1863
33740W        W76731  13.339  34.207  15.748 -0.1486  0.1265  0.3547
33741W        W76732  32.944   3.369  24.013  0.5915 -0.2296 -0.0504
33742W        W76733  12.231  29.027  15.157  0.4493  0.1288 -0.0056
33743W        W76734   4.859  17.640  19.321 -0.0183 -0.2528  0.0384
33744W        W76735  22.297  10.251  14.791  0.0589 -0.2159 -0.1844
33745W        W76736  19.460  18.258  23.329 -0.1298  0.0535  0.0466
33746W        W76737   3.744  30.099  14.285 -0.3835 -0.1924 -0.2926
33747W        W76738  33.785  24.292  15.580 -0.1000  0.2473  0.0886
33748W        W76739  18.466  28.110   1.021  0.0169 -0.1073 -0.2367
33749W        W76740  34.775  25.890  18.254 -0.0036 -0.0901 -0.0259
33750W        W76741  11.635  29.099   8.114 -0.3694  0.1268 -0.0477
33751W        W76742  22.644   4.014  27.079 -0.0965  0.1673  0.0232
33752W        W76743  17.719  34.381  16.508 -0.1865  0.0235 -0.1100
33753W        W76744   5.398  10.021  25.192  0.1838  0.0024  0.2110
33754W        W76745  33.466  28.508  20.101  0.0694  0.0650  0.1480
33755W        W76746  12.908  32.903  15.636 -0.0527 -0.0076  0.0163
33756W        W76747  11.768   3.033  18.417  0.1898 -0.2284  0.2209
33757W        W76748   8.286  24.934  25.127  0.2105  0.1779 -0.0346
33758W        W76749  31.121  33.721  13.221  0.2153  0.1197  0.1018
33759W        W76750   5.277  29.772  15.236  0.2540 -0.3625  0.1752
33760W        W76751  34.476  31.258  23.909 -0.1536 -0.1048  0.0106
33761W        W76752  20.471   1.642  15.237 -0.0909 -0.0266 -0.0647
33762W        W76753  34.800   8.536   1.660 -0.2558  0.0216  0.2058
33763W        W76754   6.808   3.072  15.514  0.0044  0.0848  0.5140
33764W        W76755  14.615  33.811   2.309 -0.0858 -0.0348 -0.0944
33765W        W76756  31.857  32.371  19.982  0.2680  0.1197  0.2242
33766W        W76757  11.433   5.782  23.562 -0.2110  0.1878 -0.1863
33767W        W76758  10.524  10.841  18.169  0.4594 -0.1391 -0.1425
33768W        W76759  21.353  17.833  14.062  0.1454 -0.0146  0.2201
33769W        W76760  10.097   4.164  28.935  0.0485 -0.0312  0.0790
33770W        W76761   1.861   9.442   5.489 -0.2200 -0.0744 -0.2334
33771W        W76762   5.202  20.966  25.669 -0.2129  0.1741 -0.1197
33772W        W76763  33.985   1.952  16.980 -0.2579 -0.5148 -0.4269
33773W        W76764  12.531   6.599  18.151 -0.0735  0.0418  0.3636
33774W        W76765   4.250  16.255  16.382  0.0507 -0.3277 -0.0733
33775W        W76766  10.166  25.115  21.111 -0.3708  0.0831  0.0300
33776W        W76767  14.507  21.911  16.169  0.1137  0.1361  0.1241
33777W        W76768  29.840   8.098  19.095 -0.3006 -0.3391 -0.1220
33778W        W76769   4.552  27.291  21.243  0.2163  0.0278  0.2738
33779W        W76770   9.975  31.399  22.284  0.1013 -0.2464  0.2524
33780W        W76771  32.609  29.919  17.826 -0.1052 -0.1686 -0.0829
33781W        W76772  13.230  29.049  27.241  0.4095  0.0247  0.1691
33782W        W76773   6.309   3.375  18.853  0.1204  0.3075  0.1625
33783W        W76774   1.958  26.501   4.604  0.1332  0.2139 -0.2331
33784W        W76775   9.119  25.720  15.829 -0.0239  0.0818 -0.1420
33785W        W76776   9.603  19.959  15.640  0.0479 -0.1392  0.5104
33786W        W76777   6.244  32.311  23.493 -0.0993 -0.0379  0.0151
33787W        W76778  34.424  17.343  18.373  0.1291  0.2504  0.0885
33788W        W76779   1.437   2.031  22.638 -0.0072 -0.1513  0.2020
33789W        W76780  16.877  28.158  16.951 -0.2034 -0.1264 -0.1087
33790W        W76781  33.691   0.994  29.062 -0.0798 -0.0953  0.2202
33791W        W76782  28.650   6.119  17.613 -0.1312 -0.0737 -0.1546
33792W        W76783  17.609   5.324   3.092 -0.0903 -0.1544 -0.0829
33793W        W76784  29.429  21.924  18.674 -0.1486  0.1795  0.0464
33794W        W76785  22.953  14.050   1.001 -0.0281  0.2023  0.0175
33795W        W76786  12.889   0.667  18.333  0.0298  0.1046  0.0877
33796W        W76787  26.483  25.053  16.600  0.2253 -0.1354 -0.1463
33797W        W76788   0.792   6.791  16.569 -0.1856 -0.2217 -0.0901
33798W        W76789  14.734  30.964  25.529  0.0004 -0.0470 -0.2024
33799W        W76790   9.779  23.076  20.470 -0.0198 -0.1475 -0.0987
33800W        W76791   2.814  25.291  17.586  0.3132  0.0519  0.0634
33801W        W76792   7.388  33.022  13.604  0.0631 -0.3149  0.0634
33802W        W76793   6.000  31.750  25.082 -0.2006 -0.1727  0.1855
33803W        W76794  15.228  20.131  22.384  0.0147  0.0248  0.0290
33804W        W76795   5.536  21.644  19.024  0.0376  0.1851 -0.1959
33805W        W76796   6.156  29.777  26.278  0.1279 -0.0730  0.0278
33806W        W76797  12.747  31.144  28.194 -0.1450 -0.1305  0.1238
33807W        W76798  14.014   8.576  25.619  0.2102 -0.0209  0.0271
33808W        W76799  22.409  33.599   2.048 -0.1378 -0.0202 -0.0716
33809W        W76800  22.160   4.686  13.177 -0.0388  0.0080 -0.1780
33810W        W76801  24.267  31.201   6.037  0.1075 -0.1096 -0.1197
33811W        W76802  13.800  22.744  28.753  0.1049 -0.0066  0.2950
33812W        W76803   7.379  24.650   3.521  0.3187 -0.1777 -0.1412
33813W        W76804  20.944  10.734  26.853 -0.1327  0.1166  0.4412
33814W        W76805   1.445  29.225  15.011  0.1484 -0.0358 -0.0591
33815W        W76806   3.441   9.531  20.548 -0.2966 -0.1115  0.2388
33816W        W76807  14.579   8.015  16.197  0.4409  0.2185 -0.3147
33817W        W76808  17.984  17.454  13.863 -0.1011  0.1324  0.1423
33818W        W76809  15.441   2.698   4.091 -0.1093 -0.1883 -0.1827
33819W        W76810   3.099  33.537  19.327  0.3227  0.3677  0.1161
33820W        W76811   4.239  30.471  15.550  0.4711 -0.2519 -0.0384
33821W        W76812   4.974   4.248  21.313  0.0096 -0.0586  0.2275
33822W        W76813   9.843   4.753  17.289  0.0824  0.2136  0.1677
33823W        W76814   7.282  26.972  16.433 -0.0226 -0.2944  0.0925
33824W        W76815  34.715   3.229  16.332 -0.1273 -0.3250  0.1208
33825W        W76816  12.498  22.457  26.658  0.0024  0.1450 -0.1847
33826W        W76817  16.130  10.154  19.137  0.1557  0.2130 -0.0110
33827W        W76818   8.130  22.392  23.018 -0.2644  0.0671  0.0147
33828W        W76819  32.742   2.452  17.212  0.3072  0.0047 -0.1126
33829W        W76820  19.076   1.577   5.322  0.0616 -0.2255 -0.1638
33830W        W76821   6.291  32.157  17.287 -0.2191  0.1060  0.0630
33831W        W76822   1.293  25.899  14.523 -0.0490  0.0644 -0.0608
33832W        W76823  21.179   6.235  22.606  0.1353 -0.0453  0.0197
33833W        W76824  25.728  27.959   4.150 -0.0812 -0.0512  0.1313
33834W        W76825  32.846  14.593  23.762  0.1585 -0.1725  0.0484
33835W        W76826   5.214  26.668  23.764  0.0026 -0.0348  0.0541
33836W        W76827  17.448  28.641  14.943  0.1680  0.1403 -0.2821
33837W        W76828  25.964   2.026   1.837 -0.0245 -0.0850  0.2117
33838W        W76829   5.487   4.371  24.025 -0.1208  0.0948 -0.1025
33839W        W76830   5.593   3.520  25.966  0.2323  0.0118 -0.0725
33840W        W76831   5.986   1.659   8.606 -0.4603 -0.4195 -0.2558
33841W        W76832   9.159  30.809  17.733 -0.0865 -0.0723  0.2581
33842W        W76833  33.955  34.363  15.475  0.4564 -0.0995  0.0954
33843W        W76834  15.899   4.052   6.412 -0.3803 -0.1583 -0.2612
33844W        W76835  10.490   0.584  24.671 -0.2779 -0.1354 -0.1305
33845W        W76836  18.103  32.076  24.963 -0.3222 -0.0835  0.0937
33846W        W76837  27.566  22.270   3.109 -0.1519  0.1326  0.0040
33847W        W76838  12.334  21.078   0.650 -0.2999 -0.1264  0.0492
33848W        W76839   8.591   4.016  17.920  0.0982 -0.3087  0.1299
33849W        W76840   5.869   0.591  27.919  0.1722  0.3538 -0.3216
33850W        W76841   9.140  30.334  25.264 -0.0101 -0.1434  0.2751
33851W        W76842  16.917  29.784  19.682  0.3365 -0.0856 -0.3784
33852W        W76843  15.594  31.159  14.739 -0.1507 -0.3783  0.0942
33853W        W76844  29.417   1.668  18.729  0.1834  0.2444  0.1532
33854W        W76845   8.966  28.244  22.079  0.0762 -0.1420 -0.1393
33855W        W76846  34.363   3.164  21.725  0.2200  0.1059 -0.0376
33856W        W76847  31.515   5.155  28.045  0.2715  0.1822  0.2368
33857W        W76848   4.251   4.734  27.275  0.2778 -0.0938  0.0107
33858W        W76849  27.003  26.364  25.451  0.1952  0.0179  0.4209
33859W        W76850   1.583  26.820  17.914 -0.1982  0.0680 -0.1767
33860W        W76851   1.276  26.891  22.327 -0.3489  0.1739 -0.1987
33861W        W76852  25.177  32.545  15.401 -0.0486  0.0187  0.1550
33862W        W76853  11.916  24.067  13.655  0.0092 -0.0098  0.2353
33863W        W76854  30.733   9.571  26.839 -0.0497 -0.2174  0.1006
33864W        W76855   3.618   2.045  24.712 -0.1827 -0.3095  0.4264
33865W        W76856  13.427   2.775  24.362  0.1398 -0.2630  0.0214
33866W        W76857  20.554  31.016  14.918  0.3170  0.2004  0.1658
33867W        W76858  21.583  27.606  20.712  0.0151 -0.0922 -0.1586
33868W        W76859  33.163   4.713  22.877 -0.2266 -0.0735  0.0077
33869W        W76860  13.208  24.628   3.741 -0.2976 -0.1028  0.0189
33870W        W76861   5.530  24.809  17.265 -0.0301 -0.1302 -0.2581
33871W        W76862   5.078  34.391  21.183  0.2927  0.1593 -0.0808
33872W        W76863   4.560  24.684  22.641  0.3801  0.1674 -0.2189
33873W        W76864   4.916  27.455  16.793 -0.0705 -0.3359  0.0897
33874W        W76865  25.653  30.123   2.722 -0.1131  0.2755 -0.0495
33875W        W76866   6.653   7.657  18.887 -0.1102  0.1135  0.3508
33876W        W76867  10.435   1.466  22.964 -0.1133  0.2468  0.1669
33877W        W76868  22.990  34.758   2.472 -0.2178  0.2603 -0.0334
33878W        W76869   4.919  32.427  19.135  0.2111 -0.0244 -0.1182
33879W        W76870  27.738  15.160  18.856 -0.1233 -0.0060  0.1187
33880W        W76871   2.756  30.334  22.636 -0.2360 -0.6158  0.0428
33881W        W76872  16.460  25.964   8.332  0.2867  0.0588  0.1868
33882W        W76873  12.078   7.973  15.534 -0.1219 -0.2205  0.0529
33883W        W76874  12.728  25.619  21.668  0.0650 -0.0761  0.0099
33884W        W76875   4.289   6.082   3.766 -0.0539 -0.1623  0.2720
33885W        W76876   6.179   1.909  21.964  0.0437 -0.0442 -0.1511
33886W        W76877  33.681  25.916  16.106  0.0052  0.2368 -0.0060
33887W        W76878  13.410  10.649  18.192  0.0654  0.1985  0.3754
33888W        W76879   5.226  24.825  15.499 -0.0237  0.0154  0.3142
33889W        W76880  29.117  16.257   6.247  0.0211 -0.0039 -0.1160
33890W        W76881  13.823  32.081  20.894 -0.0976 -0.1939  0.1593
33891W        W76882  17.440  28.199  27.288 -0.1564 -0.0543 -0.2326
33892W        W76883   0.792   5.182  19.969 -0.1310  0.2421 -0.0087
33893W        W76884  31.333  24.572  18.635 -0.0665 -0.0110 -0.1602
33894W        W76885  17.517  30.830  26.933 -0.1404  0.0076 -0.0800
33895W        W76886  22.617   2.935  13.241  0.0762  0.1441  0.1027
33896W        W76887  14.353  19.843   4.198 -0.2860 -0.1211  0.2357
33897W        W76888  34.705  16.058  24.891 -0.3138 -0.0219  0.2057
33898W        W76889  30.987   2.667  21.748  0.2281 -0.2002  0.0396
33899W        W76890  29.303  17.198  25.781  0.1224 -0.1394  0.1507
33900W        W76891  11.013  31.438  18.085 -0.4342  0.0994  0.0608
33901W        W76892   2.771  20.588  17.208  0.0598 -0.0199 -0.2152
33902W        W76893   5.263  30.495  13.604  0.0226  0.0476 -0.0948
33903W        W76894   2.557  32.046  22.553 -0.1071  0.2702 -0.0135
33904W        W76895  20.112   0.268  15.340  0.2210 -0.2065 -0.1346
33905W        W76896   8.846  26.620   3.327 -0.3109  0.3171  0.0731
33906W        W76897   2.692   3.679  19.612 -0.0275  0.0949 -0.0149
33907W        W76898   1.141   5.213  17.910  0.4583 -0.1961  0.2470
33908W        W76899   6.931  33.872  20.127 -0.1706 -0.1021 -0.1234
33909W        W76900  33.384  32.097  17.733 -0.1039  0.0054 -0.0268
33910W        W76901   3.887   7.488  24.623 -0.0348 -0.2896  0.2079
33911W        W76902  21.930  28.007  15.365  0.0109 -0.1949 -0.0732
33912W        W76903  32.355   2.796  24.323  0.0945  0.2679 -0.1102
33913W        W76904   2.506  29.978  17.511 -0.0617  0.0049 -0.1112
33914W        W76905  15.552  23.432  12.907  0.1584  0.1685  0.1876
33915W        W76906   2.855  29.218  27.928  0.1800  0.4846 -0.1359
33916W        W76907   3.322   3.297  23.593 -0.0907 -0.2245 -0.1746
33917W        W76908  13.622   0.933  19.627  0.2135 -0.1256 -0.1123
33918W        W76909  25.867  20.964   1.944 -0.0736  0.0656  0.0438
33919W        W76910  27.484  28.275  18.716  0.1338  0.0371 -0.2266
33920W        W76911   1.455  10.598  16.345 -0.1315 -0.0895  0.1372
33921W        W76912   3.925   3.172   8.369 -0.3716 -0.0924  0.1489
33922W        W76913  19.507  18.322   7.614  0.0891  0.4268 -0.2820
33923W        W76914   3.075   3.585  19.263  0.1821 -0.3355 -0.0758
33924W        W76915  10.559   1.315   6.186  0.1013  0.0290 -0.0796
33925W        W76916   8.110  27.159  18.741  0.1153 -0.1454  0.0477
33926W        W76917   3.425  15.836   1.168 -0.0693  0.1858  0.0855
33927W        W76918   9.950  31.488  16.486  0.0923 -0.0350  0.1321
33928W        W76919  10.599  26.861  16.002  0.2970  0.0126  0.2565
33929W        W76920  15.468   8.002   2.464 -0.1170 -0.2222  0.0951
33930W        W76921  10.519  29.411   2.708 -0.2921  0.1933  0.1189
33931W        W76922  12.629   2.574  24.710 -0.1714 -0.1002  0.1970
33932W        W76923   4.567  26.336  20.911  0.2576 -0.1229  0.1222
33933W        W76924  15.391   8.725  19.975 -0.1789 -0.0330  0.0748
33934W        W76925  28.694  17.069  28.008 -0.1278  0.0167  0.0691
33935W        W76926  27.069  28.541  27.200  0.0589 -0.4017  0.4672
33936W        W76927  22.353  18.225  17.047 -0.0931  0.0962 -0.0538
33937W        W76928   1.729   0.368  21.297 -0.0285  0.1565  0.2532
33938W        W76929  14.977  25.890   0.248 -0.0572  0.0611  0.1273
33939W        W76930  24.291   7.751  26.995 -0.1868 -0.0961 -0.0690
33940W        W76931  26.813   8.006  27.888  0.3575 -0.2924  0.0642
33941W        W76932  17.409  33.531  25.002  0.2407  0.2766 -0.0631
33942W        W76933   8.559  23.989  24.993  0.0045  0.0028  0.2303
33943W        W76934  34.339   6.566   0.940  0.3782  0.2242  0.1807
33944W        W76935  33.074  20.123  20.313 -0.2428  0.0846  0.0669
33945W        W76936  26.737  31.645  13.638  0.1192  0.1504 -0.0071
33946W        W76937  20.412  29.713   3.578  0.3131  0.0179  0.0742
33947W        W76938  19.726  24.411   2.842 -0.1634 -0.0078 -0.2586
33948W        W76939  28.686   4.273  27.501  0.2082  0.1120  0.2414
33949W        W76940   2.068  18.380  18.857 -0.0117  0.2654 -0.1458
33950W        W76941  31.141  28.445   4.017 -0.1323 -0.0410  0.2689
33951W        W76942  26.272  10.876   0.147 -0.4099 -0.3347 -0.0820
33952W        W76943   7.988  10.075   2.680 -0.1160  0.0511  0.0015
33953W        W76944   3.691  34.505  26.362 -0.4411 -0.0570  0.0390
33954W        W76945  29.518   0.835  21.128  0.0336 -0.2657  0.0255
33955W        W76946   1.182  32.509  14.552 -0.0929 -0.3337 -0.2453
33956W        W76947   5.243  23.663  24.383 -0.0749 -0.3421 -0.1159
33957W        W76948   1.842  25.015  25.421 -0.1821 -0.0782 -0.4214
33958W        W76949   9.007  26.518  17.750  0.1508  0.1828  0.1243
33959W        W76950  25.687   6.717  20.481 -0.2205 -0.2556 -0.0175
33960W        W76951  33.110   4.447  14.870  0.1264  0.0784  0.0612
33961W        W76952  13.780  26.242  15.807  0.1712  0.3138  0.0291
33962W        W76953   3.133  30.011  22.745  0.0548  0.1736  0.0229
33963W        W76954   6.949   5.108   1.623  0.0241  0.2306 -0.1173
33964W        W76955   0.744   3.113  10.797  0.1024  0.2720 -0.0836
33965W        W76956   1.578  27.972   7.342  0.0272  0.1502 -0.0176
33966W        W76957  28.745   1.111  16.528 -0.0613  0.3791 -0.1676
33967W        W76958   5.466   5.298  23.909  0.0107 -0.1639  0.1272
33968W        W76959  23.878  10.643  19.811 -0.1108 -0.3900 -0.3358
33969W        W76960  10.947  34.750   6.741  0.2353  0.1403 -0.1029
33970W        W76961   8.068  24.044   5.039 -0.2358 -0.0951  0.0758
33971W        W76962   5.726  12.994  17.761  0.1063  0.0099  0.1558
33972W        W76963   8.673  13.614  17.678  0.3163  0.2618  0.1280
33973W        W76964  34.043   5.175  28.234 -0.0063  0.0717 -0.0880
33974W        W76965   0.493  27.895   2.959 -0.1927 -0.0381 -0.0466
33975W        W76966  27.005   2.761  22.745  0.1854 -0.1157 -0.3567
33976W        W76967  11.787  25.306  20.291 -0.0310  0.1345 -0.1876
33977W        W76968   4.734  13.057   0.328  0.0826  0.0787  0.4232
33978W        W76969   0.828  15.650  20.128 -0.2226 -0.1048 -0.0237
33979W        W76970  27.727  17.884  26.075  0.1938  0.0980  0.2732
33980W        W76971  27.343   7.342   3.858 -0.0178 -0.0785 -0.0168
33981W        W76972  32.294  22.826  25.485 -0.0137  0.0656  0.1423
33982W        W76973  34.094  31.715  21.239 -0.0620 -0.0095  0.3140
33983W        W76974   7.532  21.765   3.014 -0.1601  0.4319  0.3420
33984W        W76975   6.740  27.833  19.077 -0.1425 -0.0515  0.0264
33985W        W76976  17.515  34.118  18.493 -0.1306 -0.1025  0.1946
33986W        W76977  10.912   0.365  17.428 -0.2288  0.1502  0.0981
33987W        W76978  11.343  29.762  15.252 -0.0096  0.0668 -0.4712
33988W        W76979  14.351   0.673  28.709 -0.1640 -0.2297 -0.0350
33989W        W76980   3.213  24.267  22.323 -0.0588 -0.0088  0.1830
33990W        W76981  11.877   3.642  26.972 -0.1212 -0.1359 -0.1466
33991W        W76982   8.827  30.477  18.642  0.2962 -0.1822 -0.0562
33992W        W76983  14.854   7.520  20.181 -0.0339  0.0369 -0.0969
33993W        W76984   6.167  31.145  25.992 -0.0274 -0.1186  0.0661
33994W        W76985  32.744   3.906  27.186 -0.1030 -0.0451  0.2371
33995W        W76986  22.495  21.371  16.793 -0.0038 -0.2847  0.0570
33996W        W76987  32.346   3.787  16.891  0.0581 -0.0154 -0.2459
33997W        W76988  15.859  26.690  22.872 -0.0099  0.0782 -0.1825
33998W        W76989   7.347  18.883  18.655  0.0618  0.0984  0.0445
33999W        W76990  12.469  29.984  28.832  0.0295 -0.1467 -0.0661
34000W        W76991   4.793  22.124  18.247  0.1547 -0.0757 -0.3751
34001W        W76992  16.245  28.353  19.846 -0.2195 -0.2731 -0.3960
34002W        W76993   0.408  25.755   6.620  0.4584  0.1651  0.0426
34003W        W76994   4.776   9.923  17.779 -0.0159 -0.2288 -0.4294
34004W        W76995  10.286   5.189  25.142 -0.1041  0.0430  0.2219
34005W        W76996   0.043  33.319  26.940 -0.3138 -0.1488  0.0222
34006W        W76997   7.610  15.752   1.809 -0.1510 -0.0598 -0.1350
34007W        W76998  13.310   8.285  27.346  0.0364 -0.0676 -0.1687
34008W        W76999  25.890  17.473  18.370 -0.0105  0.2008 -0.0530
34009W        W77000  20.158  30.146  20.823  0.1386  0.2008 -0.2426
34010W        W77001   5.083  12.257  16.603 -0.2218  0.1699 -0.2533
34011W        W77002  29.140   3.039  24.821  0.0790  0.0050  0.1273
34012W        W77003   2.382  16.499   2.505 -0.1195 -0.1392 -0.0673
34013W        W77004  26.995  31.638  19.975 -0.1731 -0.0144 -0.1244
34014W        W77005  18.430  13.552  13.168 -0.2926  0.0159 -0.1245
34015W        W77006  22.630  24.973  16.740  0.0617 -0.2249  0.1671
34016W        W77007  13.341  29.269  21.407  0.2125  0.0902  0.3153
34017W        W77008   1.875  30.639   0.765  0.1681 -0.0763  0.0380
34018W        W77009  21.094  32.940  28.830  0.0351 -0.0627  0.0653
34019W        W77010  10.456  28.133  22.722  0.1990  0.1082 -0.2664
34020W        W77011  17.786  32.213  15.752  0.3705 -0.2451 -0.1689
34021W        W77012   6.646   7.486  19.450 -0.0199 -0.1583  0.0725
34022W        W77013  16.447  33.542   1.349 -0.2184 -0.1065 -0.3116
34023W        W77014  26.034  19.205  22.413  0.2281 -0.1084  0.0778
34024W        W77015   7.056  26.101  27.029  0.2262 -0.0744  0.2147
34025W        W77016   9.764   5.676  20.482 -0.1831  0.0731 -0.0260
34026W        W77017  14.946   1.038  26.433 -0.0028  0.0044 -0.0331
34027W        W77018   4.994   0.038  25.681  0.2594 -0.0452 -0.0387
34028W        W77019  17.061   2.504   1.516  0.0466  0.1054 -0.0429
34029W        W77020  13.746  14.122  23.004 -0.0390 -0.2202 -0.0399
34030W        W77021  33.794  25.808  14.263 -0.1414 -0.1187  0.1419
34031W        W77022   6.139  26.736  15.674 -0.2324 -0.2245 -0.2120
34032W        W77023   9.012   2.409   1.006 -0.0187 -0.1545  0.0704
34033W        W77024   8.278  24.889   3.562  0.0326  0.0947  0.1158
34034W        W77025  15.519   2.089  27.025 -0.1200  0.1361  0.0916
34035W        W77026  19.160  22.002  25.843 -0.2840 -0.0227 -0.0563
34036W        W77027  24.082  32.066  27.302 -0.0796  0.2656 -0.0228
34037W        W77028  16.145  24.602  16.851  0.0781 -0.1763  0.1464
34038W        W77029  32.953  24.919  23.021 -0.0111 -0.2067 -0.0869
34039W        W77030   5.837  33.383   9.222 -0.1024  0.0051 -0.0181
34040W        W77031  20.621   3.809  15.946  0.1870  0.1042 -0.1422
34041W        W77032  31.585  26.611  18.472  0.0583  0.0574  0.0064
34042W        W77033   8.242  15.046   5.440  0.1788 -0.1368  0.0769
34043W        W77034  30.336   0.739   8.292 -0.0722 -0.2963 -0.2979
34044W        W77035  18.816   1.705  25.029 -0.2204  0.1805  0.2510
34045W        W77036  16.512  22.502   6.545 -0.1390 -0.0607 -0.3020
34046W        W77037  14.051  25.674  20.880  0.2187  0.2090  0.0148
34047W        W77038  33.150  17.697  24.933  0.0755 -0.1864 -0.1261
34048W        W77039  16.334  32.502  16.045 -0.0204 -0.0194  0.1510
34049W        W77040  11.802  24.986   0.766  0.0714 -0.0529 -0.2615
34050W        W77041  28.931   2.425  16.699 -0.2043  0.1836 -0.0088
34051W        W77042   2.539  25.860  13.769  0.1643  0.1817  0.2653
34052W        W77043  34.611  30.433  21.455 -0.0798  0.1483 -0.2522
34053W        W77044  26.371   6.948   6.741  0.0556  0.2890  0.3297
34054W        W77045   3.901  16.908  20.363  0.0493  0.1290 -0.0200
34055W        W77046   0.995  18.357  17.459 -0.0169  0.4129  0.1820
34056W        W77047  32.835  19.826   7.254 -0.1218 -0.2944  0.1259
34057W        W77048  15.137  30.231   4.451  0.0003 -0.0242 -0.0517
34058W        W77049  16.191  11.559  15.201 -0.0217 -0.3058  0.1242
34059W        W77050  30.958  29.056  20.027  0.0397 -0.1704 -0.1952
34060W        W77051  21.007  15.070  15.561  0.0809  0.0834 -0.2074
34061W        W77052  25.125  13.166  25.990 -0.1538  0.1281 -0.0608
34062W        W77053  20.333   1.555   6.819 -0.0917  0.2862 -0.0234
34063W        W77054  31.968  23.979  14.801  0.2303  0.0210  0.1187
34064W        W77055  26.480  25.297  24.101  0.4241 -0.1704  0.2625
34065W        W77056  13.601  30.092  19.805  0.1934  0.1108  0.0326
34066W        W77057  33.832  32.983  22.687  0.0316 -0.0315  0.0847
34067W        W77058  18.340  32.793  19.785 -0.1297 -0.0980 -0.0024
34068W        W77059  12.952  19.970  15.426  0.1668 -0.2314 -0.4954
34069W        W77060  10.977  28.496   0.461 -0.1648 -0.0499 -0.1507
34070W        W77061  30.966  15.389   0.915  0.2604  0.3818 -0.0433
34071W        W77062  34.406  30.699  16.713  0.2635 -0.0931  0.0359
34072W        W77063  19.548  30.482   5.798 -0.4950  0.0738  0.0090
34073W        W77064  15.411  21.224  23.403 -0.0521 -0.3408 -0.1579
34074W        W77065   5.350  32.820  18.055 -0.1685  0.1242 -0.2734
34075W        W77066   4.185  11.744  19.301 -0.0458  0.0228  0.4262
34076W        W77067  12.383  28.891  24.322  0.0304 -0.1178  0.1878
34077W        W77068   4.155  34.735   7.413 -0.1454 -0.0692 -0.0913
34078W        W77069   2.339  33.131   8.607  0.0828  0.1483  0.3167
34079W        W77070   0.377  23.638  19.077  0.0894 -0.0629 -0.0969
34080W        W77071  24.153  16.829  17.025  0.1711 -0.2017 -0.0959
34081W        W77072   8.420  28.497  15.889  0.3124  0.0291 -0.2124
34082W        W77073   2.549  32.611  20.240 -0.1121  0.1381 -0.0192
34083W        W77074   5.600  25.138  24.722 -0.1264  0.0604  0.1553
34084W        W77075  17.394  23.173  26.173 -0.2492 -0.2145 -0.1027
34085W        W77076  10.894  16.346  20.948 -0.0655  0.1560  0.2670
34086W        W77077  15.977  33.645  24.729 -0.0036 -0.2444  0.1593
34087W        W77078   1.801   2.955  19.045 -0.0998 -0.0230  0.1488
34088W        W77079   5.361   3.823  22.085 -0.0067 -0.1312  0.1830
34089W        W77080   1.479  29.303   0.256  0.2648 -0.1306 -0.0118
34090W        W77081  34.558  20.892  13.842 -0.1594 -0.0678 -0.1450
34091W        W77082  29.217  33.722  21.693 -0.3457  0.2178  0.2026
34092W        W77083  10.609   5.080  21.065 -0.3000  0.1053  0.2603
34093W        W77084   9.968  20.952  16.743  0.2285  0.3874  0.2724
34094W        W77085   0.480  32.430   1.556  0.1620  0.2974  0.0137
34095W        W77086  14.534  30.025   2.916  0.1138 -0.3686  0.4537
34096W        W77087  24.021  15.017   9.909 -0.0577  0.1971 -0.1134
34097W        W77088  16.742  22.425  24.075  0.1274  0.3710  0.2574
34098W        W77089   9.276   4.585  16.832  0.0678 -0.2094 -0.1892
34099W        W77090   1.849   4.957  19.075  0.2883  0.2571  0.0488
34100W        W77091  13.149   3.242  16.756 -0.1165 -0.0266 -0.2038
34101W        W77092   5.882  16.717  21.655  0.0074 -0.0930  0.1912
34102W        W77093  11.978  20.715  18.676 -0.2308 -0.1693 -0.1238
34103W        W77094   6.910   0.506  19.529 -0.2154 -0.0271 -0.0132
34104W        W77095  11.119   9.673   4.648  0.1522  0.0953  0.0472
34105W        W77096   8.321   1.359   0.415 -0.3500  0.0039  0.1378
34106W        W77097  12.289  31.021  20.830  0.1630 -0.1489  0.0499
34107W        W77098   4.697  29.371   3.114  0.1204 -0.0055 -0.0784
34108W        W77099  34.115   2.333  14.855  0.2079 -0.0558 -0.1472
34109W        W77100   6.354  25.271  18.330 -0.0051 -0.0380  0.1657
34110W        W77101  33.746  25.805  14.781 -0.0899  0.0201  0.3553
34111W        W77102  31.740  32.712  14.482 -0.2871  0.2582  0.0432
34112W        W77103  32.646  33.076  20.779  0.0653 -0.2962  0.2129
34113W        W77104  10.196  20.389  26.743  0.1365  0.0020  0.4337
34114W        W77105  15.590  29.637  20.565  0.0333 -0.0876  0.2005
34115W        W77106  32.937   4.694   7.454  0.2633 -0.2313  0.1413
34116W        W77107  16.109  32.127  21.492 -0.1052 -0.3588 -0.1832
34117W        W77108  14.312  32.619  14.025  0.0822 -0.2414 -0.0704
34118W        W77109  29.868  22.510  27.859 -0.1912 -0.1471 -0.1145
34119W        W77110  14.292  29.457  19.607 -0.0041  0.0263 -0.1063
34120W        W77111  15.404  22.291  29.000 -0.0293  0.3349  0.1391
34121W        W77112  15.484  33.660  26.499 -0.1229  0.2941 -0.0802
34122W        W77113  10.971  28.780  20.774  0.0420  0.1951 -0.2893
34123W        W77114   1.249  30.583  14.486  0.0786 -0.0614  0.1150
34124W        W77115  21.217  31.002  28.085  0.1907  0.2180 -0.1732
34125W        W77116  13.906  28.741  18.260  0.0142  0.0689  0.0527
34126W        W77117   8.059   5.817  19.821 -0.1077 -0.0296  0.2247
34127W        W77118   1.957  30.959   1.185 -0.1545 -0.2377 -0.1517
34128W        W77119  23.176  33.246  18.070 -0.1381  0.4855 -0.2731
34129W        W77120   5.557  18.789  18.942 -0.1286  0.0466 -0.1450
34130W        W77121  27.443  31.091  26.898  0.1340 -0.2023  0.0254
34131W        W77122  33.267  29.989  19.398  0.0033  0.2549  0.1862
34132W        W77123   2.768   2.177  21.859  0.0812 -0.3526  0.0058
34133W        W77124   6.762  19.492  29.126  0.1346 -0.4621 -0.0366
34134W        W77125  17.198  31.397  23.727  0.0968  0.0948  0.1809
34135W        W77126   8.186  22.386  14.273  0.1167  0.3290 -0.3311
34136W        W77127  31.620   3.234   6.225 -0.0080  0.2265 -0.2333
34137W        W77128  19.754  30.191  19.729 -0.0744 -0.0217 -0.0492
34138W        W77129   7.567   2.951  26.157 -0.0968 -0.0165  0.0568
34139W        W77130   7.939  28.386  20.371  0.4100  0.0844 -0.2647
34140W        W77131  10.934   8.670   3.225  0.0890 -0.0582  0.0265
34141W        W77132   0.112  23.461  15.052 -0.0516  0.1056 -0.0972
34142W        W77133  23.239  26.807  26.803 -0.1346 -0.1245 -0.3441
34143W        W77134   2.622  29.320  22.568 -0.0091 -0.1364 -0.0285
34144W        W77135  18.575  20.539   5.172  0.1299 -0.1846 -0.0489
34145W        W77136  12.853  24.181  24.652 -0.1875 -0.1999  0.0338
34146W        W77137  21.476  25.536   2.068  0.2596 -0.0618  0.0226
34147W        W77138   6.999  23.982  26.432  0.2410  0.2832  0.2446
34148W        W77139  21.222   7.697  22.414 -0.3393 -0.0633  0.1456
34149W        W77140  23.681   4.353   0.025 -0.0323  0.0469 -0.3420
34150W        W77141   7.726   5.064  26.285 -0.2880 -0.3481  0.0618
34151W        W77142  10.704  33.018   6.009 -0.0438  0.0130 -0.1298
34152W        W77143  34.659  23.401  19.801 -0.1890  0.1609  0.0996
34153W        W77144   3.864  33.396   1.909  0.0560  0.0158  0.0313
34154W        W77145  28.441   6.034   1.931 -0.0357  0.1700  0.0997
34155W        W77146   4.505  27.743  14.689 -0.0539 -0.0732  0.0861
34156W        W77147   7.835   1.084  22.693  0.1786 -0.0862 -0.1667
34157W        W77148  13.138  30.604   4.740  0.4047 -0.0998 -0.3641
34158W        W77149   5.997  31.225  16.668 -0.2786 -0.1119  0.0085
34159W        W77150  15.623  22.907   0.543  0.0048  0.1210 -0.2006
34160W        W77151  12.783  28.617  27.936 -0.1207 -0.1057 -0.1215
34161W        W77152  18.568   4.111   3.251  0.3755 -0.3006  0.0356
34162W        W77153   6.587   0.165  15.451  0.0438 -0.2805 -0.2585
34163W        W77154   4.544   0.616  23.698  0.2478 -0.1032  0.3033
34164W        W77155   0.442  28.068  13.505 -0.3013 -0.0445  0.0973
34165W        W77156  17.099  33.516  19.836  0.1711  0.3880  0.0682
34166W        W77157   4.590   6.664  17.846 -0.0076 -0.0275  0.4025
34167W        W77158  24.856   8.014  20.186 -0.0515  0.1586 -0.1300
34168W        W77159  14.612  25.676   1.592 -0.1596  0.1348  0.2944
34169W        W77160   0.288  10.654  22.252  0.0466  0.2703 -0.3985
34170W        W77161  26.668   4.098  26.637 -0.3453  0.0227  0.2741
34171W        W77162  17.877   3.953   1.179 -0.3226  0.0464  0.2787
34172W        W77163  23.896  34.006  22.243  0.1137  0.1070  0.0548
34173W        W77164  14.592   8.260  26.154  0.1885 -0.0176 -0.2476
34174W        W77165   3.645  24.815  25.934  0.0930  0.0253 -0.1881
34175W        W77166   4.955  30.403  27.670  0.1882 -0.0236 -0.1604
34176W        W77167   1.313  18.975   0.100 -0.2709 -0.1368 -0.2180
34177W        W77168   9.363   3.857  21.509  0.1777  0.1281 -0.3086
34178W        W77169  22.183  28.780  20.177  0.2647 -0.1160  0.3233
34179W        W77170  15.917  30.491  21.624  0.1364  0.1640 -0.0158
34180W        W77171   2.624  29.758  17.084  0.0123  0.1548 -0.0073
34181W        W77172  31.027  21.949  20.650  0.2047 -0.1286  0.0213
34182W        W77173   3.467  23.850   6.220 -0.1133 -0.1509 -0.2104
34183W        W77174  25.899   2.494  21.693  0.0512 -0.3091 -0.1857
34184W        W77175  13.513  31.641   0.589 -0.0169 -0.0708  0.3170
34185W        W77176   6.419  34.553  20.087  0.0273  0.1298  0.0143
34186W        W77177   4.601  33.140  15.385  0.0664 -0.3528 -0.2605
34187W        W77178  18.749  33.077  19.804 -0.1367 -0.2159 -0.1498
34188W        W77179  23.345   2.172   8.221  0.0633  0.1378  0.0224
34189W        W77180  14.351  24.398   1.157 -0.0025  0.2127  0.2022
34190W        W77181  29.651  14.424   0.170 -0.2048  0.0969 -0.1104
34191W        W77182  31.534  25.530  15.570  0.1400 -0.0571 -0.0766
34192W        W77183  29.603  22.907  19.775 -0.3194  0.0974 -0.1365
34193W        W77184  14.532  31.157   3.061 -0.1788  0.2395  0.0583
34194W        W77185  26.350  16.528  22.409 -0.2276  0.0315 -0.2836
34195W        W77186  32.677  29.815  18.311  0.0348  0.1584  0.3073
34196W        W77187   4.657  22.794  18.860 -0.1462  0.0776 -0.3550
34197W        W77188  28.365  33.794  24.400  0.0998 -0.0329  0.0870
34198W        W77189  23.200   4.657  17.788 -0.1620  0.0443  0.1026
34199W        W77190   2.314  11.438  20.225  0.0164  0.0778  0.2188
34200W        W77191  10.138  25.496  15.007  0.1109  0.0728  0.4160
34201W        W77192   6.717   5.529  17.273  0.2417 -0.3658 -0.0092
34202W        W77193   9.003   2.260   2.277 -0.0764  0.1748 -0.1574
34203W        W77194  10.645  12.917  20.839  0.0317  0.0659  0.0343
34204W        W77195   9.395   6.494  18.729 -0.1367 -0.0305  0.1488
34205W        W77196  10.757  26.804  16.507  0.0982 -0.2269 -0.1895
34206W        W77197   2.866  21.611  27.545 -0.0427  0.3031  0.2125
34207W        W77198   7.332   1.409  23.461  0.2323  0.0077 -0.1139
34208W        W77199   6.808  18.294  24.953 -0.1078  0.1694  0.0191
34209W        W77200   0.335   4.763  19.236 -0.0716  0.0486  0.1597
34210W        W77201  33.830  29.778  16.437 -0.0938 -0.1261 -0.2374
34211W        W77202   2.535  21.261  20.099 -0.0650  0.0232 -0.0279
34212W        W77203   7.444  33.064   3.684  0.0424  0.1451 -0.2501
34213W        W77204   0.844  14.557  22.495 -0.3429  0.4403 -0.0407
34214W        W77205   3.273  27.670  19.001 -0.3919 -0.0194 -0.0346
34215W        W77206  22.739  29.219  27.335 -0.0255  0.0296  0.0412
34216W        W77207  30.825   4.976  27.389  0.0491  0.0272 -0.1129
34217W        W77208  33.046  18.187  21.203  0.1270 -0.2511 -0.1261
34218W        W77209  29.001  11.726  26.730  0.0028 -0.1231  0.0068
34219W        W77210   4.470  29.893  20.613 -0.0075  0.1249  0.0710
34220W        W77211  23.427  32.553  17.406 -0.3905 -0.1793 -0.1199
34221W        W77212  11.811  33.657  26.403  0.0220  0.0898 -0.1242
34222W        W77213   0.520   0.234   3.621  0.1662  0.2310  0.0016
34223W        W77214  16.261   3.644  23.963 -0.1526 -0.3279 -0.0879
34224W        W77215   5.756   6.776  19.843 -0.0757  0.6057 -0.0171
34225W        W77216  30.779  21.240   3.767  0.2117  0.1655 -0.1106
34226W        W77217  10.959  33.024   0.834 -0.0580  0.0210  0.3043
34227W        W77218  13.737   8.051  21.245 -0.1493  0.1498 -0.1009
34228W        W77219   6.011   8.120  26.092 -0.0577  0.0222  0.1003
34229W        W77220  26.119  29.828  29.219 -0.2292 -0.1288  0.0675
34230W        W77221  10.340  31.345  19.160  0.5419  0.2402 -0.1175
34231W        W77222  20.507  29.152  16.686  0.0269  0.0285 -0.1695
34232W        W77223   5.483  25.474   0.489  0.0832 -0.2852  0.2196
34233W        W77224   3.154   1.354  10.212  0.1599  0.0315  0.2127
34234W        W77225   5.711  26.669   2.475 -0.3252  0.1500  0.5026
34235W        W77226  22.458   9.782   5.687  0.1768  0.0742 -0.1561
34236W        W77227   2.537  11.494  21.265  0.0324  0.2247  0.3756
34237W        W77228  29.874   6.481  15.205  0.1430 -0.1206  0.0790
34238W        W77229  16.679  28.706  14.340  0.1657  0.1900 -0.1240
34239W        W77230   3.287  29.638  16.917 -0.0763 -0.0192 -0.1104
34240W        W77231  21.821  34.686  19.038  0.1819 -0.0503  0.1366
34241W        W77232  11.467  29.700  23.779 -0.1669 -0.1900  0.0954
34242W        W77233  25.712  23.270  27.429  0.2247 -0.3356  0.0260
34243W        W77234  12.106  32.953  19.764  0.0498 -0.0711  0.1588
34244W        W77235  10.239  29.627  27.080  0.2432 -0.0164  0.1521
34245W        W77236  16.880   1.379  26.810  0.0177 -0.2343  0.0253
34246W        W77237  29.079  29.790   8.343  0.1586  0.0362  0.4609
34247W        W77238   1.529   4.040   0.734 -0.2571 -0.1406  0.2694
34248W        W77239  15.131  19.873  15.194  0.1224 -0.2280 -0.1888
34249W        W77240   9.525  18.038  17.969  0.1665  0.0917  0.0804
34250W        W77241   2.417   7.194   3.859  0.0648 -0.3285 -0.0439
34251W        W77242   1.300  30.203  17.387  0.0613 -0.4047 -0.1694
34252W        W77243  18.253  30.136  22.981 -0.1566 -0.1248  0.2075
34253W        W77244  19.707  31.874  27.104 -0.2729  0.1166 -0.0243
34254W        W77245   5.201  18.739  16.898 -0.1011  0.1197 -0.1786
34255W        W77246  25.176  18.215  19.722 -0.2874  0.0524  0.1196
34256W        W77247   8.771  34.419  17.659 -0.0150 -0.4938  0.2377
34257W        W77248  23.161   7.853   0.725 -0.1387  0.3273 -0.2465
34258W        W77249  34.219  20.485  17.647  0.0087  0.1012  0.2796
34259W        W77250  21.997  25.852  16.378  0.2590 -0.5436  0.0792
34260W        W77251   2.438   0.609  25.351  0.1129 -0.3978  0.0712
34261W        W77252   7.553   0.632  23.873 -0.2873 -0.0483 -0.2523
34262W        W77253  17.130  23.945  17.253  0.1929 -0.3565 -0.2000
34263W        W77254  32.457  31.002  20.356  0.0724  0.3025 -0.2282
34264W        W77255  33.679  21.346  25.830 -0.0686  0.1291 -0.1319
34265W        W77256   6.153  12.993  25.127 -0.2651  0.3481  0.1229
34266W        W77257  31.744  21.300  24.413 -0.0117 -0.2425 -0.0783
34267W        W77258   0.526  19.395  21.001 -0.0227 -0.2229 -0.2385
34268W        W77259   2.689  12.305  26.088 -0.3091  0.0688  0.2430
34269W        W77260   5.760   3.192  28.776 -0.0466  0.0555  0.1373
34270W        W77261  26.550  34.262  27.958 -0.0744  0.1454 -0.1223
34271W        W77262  23.030  14.624  13.466  0.0316 -0.0128  0.1818
34272W        W77263   3.111   4.206  18.941 -0.0619 -0.0688 -0.0065
34273W        W77264  32.441   3.605   2.329  0.1160 -0.0288  0.0026
34274W        W77265  25.458   9.840  28.097  0.3481 -0.2567 -0.3221
34275W        W77266   9.119  32.708  19.159 -0.0244  0.1608 -0.3607
34276W        W77267  20.139   0.166  21.930 -0.2100  0.1461 -0.0049
34277W        W77268   6.209   3.644  23.091 -0.1807 -0.2303 -0.0976
34278W        W77269  15.784  21.966  19.550  0.1217 -0.0236  0.1745
34279W        W77270   6.469  32.292  14.859 -0.0888  0.2945  0.2481
34280W        W77271  22.857  25.622  23.527  0.0536 -0.4974 -0.1440
34281W        W77272  27.345  25.068  19.298 -0.2850  0.2124  0.2385
34282W        W77273   5.263  20.398  25.421  0.0996 -0.2457 -0.1461
34283W        W77274   3.384  29.997  25.393 -0.2252 -0.2360  0.0334
34284W        W77275   8.611  25.467  18.752 -0.1349 -0.1142 -0.0573
34285W        W77276   4.105  33.252  17.589 -0.0862 -0.0163  0.3007
34286W        W77277  10.651  17.763  25.675 -0.3249  0.0096  0.3663
34287W        W77278  19.026   3.092  22.647  0.1118 -0.0328 -0.1305
34288W        W77279   0.144  26.724   6.655 -0.0784 -0.2083 -0.1737
34289W        W77280   5.961  30.692   0.160  0.2134  0.0076 -0.1244
34290W        W77281   5.938  32.451  21.842 -0.0520 -0.0606  0.0814
34291W        W77282   8.117  22.286  28.913  0.0661  0.0055  0.4362
34292W        W77283  16.859  31.583  21.600  0.0708  0.2205  0.2111
34293W        W77284  17.085   6.838   8.318  0.0811 -0.0218 -0.1263
34294W        W77285  12.094   1.829   1.892  0.2678 -0.0999 -0.0408
34295W        W77286  30.383   1.927  22.437  0.2421  0.3104  0.5059
34296W        W77287   4.402  28.480  27.324  0.2432  0.0331 -0.1326
34297W        W77288  26.985  27.362  20.133  0.1316 -0.0862  0.1869
34298W        W77289  33.901  21.559  23.377 -0.1520  0.0221  0.0440
34299W        W77290  12.861  31.931  18.200  0.1816 -0.2467 -0.3366
34300W        W77291   6.137  28.325  26.863  0.2950  0.1146 -0.2087
34301W        W77292  33.041  29.587   6.245 -0.1102  0.2813  0.2322
34302W        W77293  30.174   2.406  19.437  0.2094 -0.0300 -0.0431
34303W        W77294   4.058  31.885  18.920 -0.0215  0.1609 -0.0116
34304W        W77295   0.008   9.484  21.015 -0.0245 -0.0961  0.1999
34305W        W77296   3.352  11.585   4.408  0.2710  0.1179  0.2883
34306W        W77297  24.181   5.992  14.813  0.0557 -0.1607  0.2105
34307W        W77298  12.555  22.743   5.378  0.1364 -0.1823 -0.0931
34308W        W77299   7.213  24.287  28.578 -0.0110  0.1840 -0.1581
34309W        W77300  10.550  21.877  15.147 -0.1090 -0.2213 -0.1066
34310W        W77301  24.710   3.983   0.245 -0.0682 -0.0985 -0.1513
34311W        W77302   4.559  26.352   2.980  0.2595  0.1572 -0.3006
34312W        W77303  33.733   1.678  14.939  0.2330  0.0830  0.0855
34313W        W77304   7.038  27.013  20.153 -0.0589 -0.2460  0.2302
34314W        W77305  25.008  22.374  16.775  0.0571 -0.1454  0.2473
34315W        W77306  28.800  25.306  13.808 -0.1763 -0.2418 -0.0273
34316W        W77307  29.542  31.963  25.979 -0.1916  0.2636 -0.1613
34317W        W77308  20.444  14.421  15.930 -0.2276  0.1198 -0.4957
34318W        W77309  11.303  13.453  27.110  0.1013  0.2445  0.0153
34319W        W77310  20.899  20.153  18.691  0.0137  0.2140  0.0667
34320W        W77311  33.515  24.035   5.719  0.1925 -0.5446 -0.1750
34321W        W77312   4.584  27.711  24.522  0.1074 -0.0779 -0.2230
34322W        W77313   4.163  23.171  17.116 -0.0352 -0.2900 -0.2077
34323W        W77314  23.586  29.202   4.894  0.0808  0.0187 -0.0630
34324W        W77315  33.041  33.970   1.550  0.0272 -0.2629  0.2345
34325W        W77316   0.475   8.997  18.163 -0.0067 -0.2416 -0.2457
34326W        W77317  25.696  24.776  27.977 -0.2805 -0.2300  0.3755
34327W        W77318   7.199  27.461  25.484 -0.0860  0.1348 -0.0088
34328W        W77319  21.854  23.210  14.602  0.3567 -0.0404 -0.0401
34329W        W77320  13.085  27.768   5.021 -0.2356 -0.0279  0.1776
34330W        W77321  18.041  27.331  26.637 -0.1541 -0.0358 -0.0073
34331W        W77322  13.069  28.589  16.112  0.2093 -0.0783 -0.1762
34332W        W77323  12.572  32.017   3.387 -0.2981  0.0261 -0.2299
34333W        W77324  28.166   5.184  21.174  0.3460  0.0151 -0.2460
34334W        W77325  32.485  34.128  23.264 -0.3127 -0.2994 -0.0607
34335W        W77326   4.843  31.940   5.878 -0.0327 -0.0776  0.3683
34336W        W77327   9.151  12.067  18.361 -0.0373  0.1576  0.1479
34337W        W77328  28.205  17.852  26.397 -0.0309  0.1614 -0.1185
34338W        W77329  21.307  20.566  21.782  0.0236  0.3212  0.0429
34339W        W77330  16.122   3.646   2.526  0.0319  0.4577 -0.1154
34340W        W77331  31.169   6.284  18.435 -0.3397 -0.5713  0.1469
34341W        W77332  16.774  24.978   8.597 -0.0770  0.0024 -0.2356
34342W        W77333   8.059  26.792   3.813  0.0227  0.1581 -0.0009
34343W        W77334  28.293   1.136   2.155  0.0090  0.0407  0.1343
34344W        W77335  11.150  22.023  19.220 -0.1406 -0.2044  0.0954
34345W        W77336  18.539  28.286  18.697 -0.3967  0.0450 -0.0791
34346W        W77337  16.864   1.231  29.249  0.2703  0.3386 -0.1171
34347W        W77338  34.654  34.531   2.651  0.0756  0.2834  0.1643
34348W        W77339   1.319  24.700  15.215 -0.4324 -0.0394 -0.0311
34349W        W77340  34.359  24.326  19.563  0.1194  0.1405 -0.2235
34350W        W77341   5.586  17.785  26.751  0.0752  0.0702  0.2761
34351W        W77342   0.319  25.847  23.589  0.1110  0.1249 -0.1614
34352W        W77343   1.023  18.446   4.782  0.0194  0.2099  0.1853
34353W        W77344  14.937  33.963   9.103 -0.0684 -0.1695 -0.0002
34354W        W77345  21.007  18.902  21.332  0.0758 -0.1027  0.1813
34355W        W77346  15.171  30.074   7.487 -0.1843  0.3553 -0.2043
34356W        W77347   0.099  15.068  25.160  0.1768  0.0133  0.2999
34357W        W77348  10.119  32.385  18.891 -0.0251 -0.0274 -0.2220
34358W        W77349  22.153  28.880  24.342 -0.1199 -0.0104 -0.0130
34359W        W77350  20.410  19.648  20.866  0.3510  0.3401 -0.1746
34360W        W77351  33.104  13.194   5.359 -0.0648  0.0331  0.0397
34361W        W77352   6.588  19.797  23.753  0.3932 -0.0010  0.0147
34362W        W77353  11.506  32.224  27.902 -0.0519  0.0543 -0.1943
34363W        W77354   0.646  23.755   4.086  0.1929  0.3653  0.3792
34364W        W77355  32.351  31.723  14.607  0.2770 -0.1867 -0.0286
34365W        W77356  20.895  15.553   3.660  0.1808  0.0615  0.4286
34366W        W77357  30.541   1.695   4.886 -0.0308 -0.2213 -0.0844
34367W        W77358   9.637  25.623   3.830  0.0900  0.0093  0.0154
34368W        W77359  10.860   4.523  21.783 -0.0759 -0.1760  0.3238
34369W        W77360  28.349  27.491  26.296  0.1119  0.0005  0.0490
34370W        W77361   4.812   2.986  27.760 -0.3542  0.2565 -0.0598
34371W        W77362  34.255  30.135   2.425 -0.2778 -0.2060 -0.2271
34372W        W77363   9.859  34.708  11.184  0.0033  0.1658 -0.1138
34373W        W77364   1.502  15.400  25.725 -0.1905  0.1116  0.0223
34374W        W77365   7.797   5.601   2.520  0.1368  0.0868 -0.1837
34375W        W77366   7.035  26.675   8.334  0.0180 -0.1580  0.0406
34376W        W77367  25.683  33.176  16.476  0.1608  0.0019 -0.2396
34377W        W77368   2.878  16.730   9.357 -0.2339  0.1605  0.0501
34378W        W77369   0.255  17.112   1.969  0.5763  0.1092  0.1460
34379W        W77370  25.505   6.237   1.128  0.2813 -0.0141 -0.3370
34380W        W77371  21.832   5.632   3.168  0.0837 -0.2554 -0.0303
34381W        W77372  31.040  34.537   1.892 -0.0223 -0.0268 -0.0502
34382W        W77373  11.064  28.319  15.571  0.0094 -0.0962 -0.1063
34383W        W77374   4.579  10.489  21.156  0.3286 -0.0290 -0.3315
34384W        W77375  33.632  10.089  23.434 -0.0269 -0.0321  0.0380
34385W        W77376   9.926  22.714  15.628 -0.3565  0.0718  0.0541
34386W        W77377   9.186  24.023   4.710  0.1406 -0.1756 -0.0465
34387W        W77378   2.716  31.709  28.762 -0.2402 -0.1349 -0.0274
34388W        W77379  34.405   9.850   2.195 -0.2434 -0.0202  0.0172
34389W        W77380  11.136  34.426  17.815  0.2583 -0.0737 -0.0531
34390W        W77381  12.531   0.396  10.853 -0.3470  0.0238 -0.1818
34391W        W77382   6.415  31.595   0.308  0.0750  0.0640  0.2568
34392W        W77383   7.592   8.654   2.073 -0.0391 -0.0051  0.2842
34393W        W77384   9.878   6.639  21.119  0.1176  0.3136  0.0885
34394W        W77385   8.394  33.456  25.725 -0.0711 -0.0489 -0.0736
34395W        W77386  17.659  25.231   4.904 -0.0524 -0.2518 -0.0083
34396W        W77387  10.082  30.817  23.794  0.1151 -0.2515  0.2864
34397W        W77388  30.193  11.956  26.745  0.1290 -0.0893  0.3810
34398W        W77389  14.528  26.307  18.229  0.0388  0.0473  0.0788
34399W        W77390   8.243   6.785   2.802  0.0311 -0.1617  0.1470
34400W        W77391   7.535  23.106  19.522 -0.0820 -0.1428  0.0265
34401W        W77392   4.207   2.863  20.355  0.1556 -0.1467  0.0872
34402W        W77393   6.568   3.439  21.253  0.0699  0.0803  0.0146
34403W        W77394  10.321   5.389  10.062 -0.3365  0.1416  0.0544
34404W        W77395  13.424  27.355  24.169  0.0045  0.0824  0.5754
34405W        W77396   1.361  25.452  26.659 -0.0204 -0.4080 -0.0851
34406W        W77397  15.723  20.946   5.202 -0.1514 -0.0575  0.0968
34407W        W77398   5.318  30.744   4.812  0.2396 -0.0383 -0.1808
34408W        W77399  32.933  10.318   3.522 -0.3015 -0.0856  0.2390
34409W        W77400   7.959  17.886   3.920 -0.2921  0.2846  0.1763
34410W        W77401   5.856  23.944  19.187 -0.1543  0.0018  0.2482
34411W        W77402  12.884  19.447  14.576 -0.0107 -0.2605  0.0786
34412W        W77403   7.048  29.273  15.819 -0.0999  0.1154 -0.1438
34413W        W77404  32.364  26.178  18.045  0.0958 -0.1894 -0.0524
34414W        W77405   0.920  29.747  18.895  0.2259 -0.1905 -0.1025
34415W        W77406  16.244  19.879  23.737 -0.0800 -0.0949  0.1517
34416W        W77407  34.337  19.491   2.769 -0.0881 -0.2162 -0.1613
34417W        W77408   5.520  33.947   9.802 -0.3511 -0.0355 -0.0267
34418W        W77409   9.193  28.291   1.035  0.1499 -0.1962 -0.3287
34419W        W77410   5.968  34.008  17.318  0.0542 -0.0467 -0.3071
34420W        W77411   3.591  31.357   7.590  0.1047  0.3240  0.0451
34421W        W77412   2.752  16.460   0.965 -0.0172 -0.2383 -0.0450
34422W        W77413   6.886  12.963  28.338  0.1821  0.0203  0.0313
34423W        W77414  34.673   3.661  15.113  0.3407  0.1684  0.2726
34424W        W77415   7.891  31.998  27.752 -0.4053  0.0721 -0.1943
34425W        W77416  19.411  34.400   2.765  0.2813 -0.3600 -0.0488
34426W        W77417  28.686  31.537  12.810  0.0497  0.0392 -0.0976
34427W        W77418  25.796  27.106   1.823  0.2188 -0.0318 -0.3007
34428W        W77419   9.022  17.394  19.936 -0.0329 -0.1085 -0.1752
34429W        W77420  33.452   1.628  14.291  0.3511  0.2504  0.0096
34430W        W77421  16.818  28.648  23.295  0.1682  0.1292 -0.0180
34431W        W77422  29.798  31.430  13.811 -0.1991  0.2805  0.1031
34432W        W77423  33.278   4.814   3.167 -0.2855  0.0072  0.0218
34433W        W77424   3.930  22.930  20.563 -0.2488 -0.0871  0.1067
34434W        W77425  27.192   3.025  25.637  0.0365 -0.0184  0.0118
34435W        W77426  14.975  15.347  26.772 -0.0855 -0.0320  0.2465
34436W        W77427  10.403  29.413   1.304 -0.0266  0.2630 -0.3157
34437W        W77428  12.348  32.907  28.184  0.1806 -0.0562 -0.1356
34438W        W77429   8.374   3.775  19.302  0.0461 -0.3499  0.4756
34439W        W77430  13.452  16.048  19.415  0.3359 -0.2283  0.1938
34440W        W77431  22.821  22.741   8.675 -0.4082 -0.0302 -0.2645
34441W        W77432  33.651   3.265  28.557  0.1870 -0.1827 -0.1700
34442W        W77433   3.424  21.611  24.700  0.1942  0.0883 -0.2454
34443W        W77434   3.630  13.652  20.547 -0.1653  0.1148  0.0075
34444W        W77435  23.689   0.072  21.653  0.0904  0.3377 -0.0327
34445W        W77436   1.084  15.152  28.215 -0.1228 -0.2013  0.3054
34446W        W77437   5.875   3.764  17.101  0.0053 -0.0546  0.1620
34447W        W77438  10.664  31.989  20.672 -0.0393  0.2592  0.1599
34448W        W77439   1.451  26.313  18.984 -0.1538 -0.0717  0.2152
34449W        W77440  34.581  31.362   2.214 -0.0628  0.2172  0.2152
34450W        W77441  18.375  16.036  29.139  0.0608 -0.4892 -0.0957
34451W        W77442   1.340   9.771  17.816  0.3564 -0.2298 -0.2827
34452W        W77443  31.156   0.304  15.417  0.0385  0.0986  0.0346
34453W        W77444   0.305   4.280  23.033  0.0108  0.0053  0.3992
34454W        W77445   6.657  15.830  29.124 -0.0827 -0.1867 -0.0594
34455W        W77446  29.431  20.877  17.960  0.2072  0.1769  0.0949
34456W        W77447  10.568   1.184   9.488  0.0983  0.1398 -0.0644
34457W        W77448   6.416  17.722  20.831  0.0095  0.1887 -0.1702
34458W        W77449  15.142  19.882  21.005 -0.4372  0.1100  0.0136
34459W        W77450   5.598   8.032  21.833  0.3189  0.0547 -0.0448
34460W        W77451   7.977  11.518  22.899  0.4289 -0.1215 -0.0718
34461W        W77452   1.332   5.289  28.030 -0.1588 -0.2041  0.0450
34462W        W77453   0.296  14.204   4.211  0.1928  0.1315 -0.0927
34463W        W77454  15.971  23.481  21.888 -0.0354  0.1153  0.2248
34464W        W77455  27.946   5.505  14.998  0.1928  0.1400  0.1781
34465W        W77456   2.466  24.542  24.923 -0.0675  0.1598 -0.1168
34466W        W77457   3.341   9.474  16.987  0.2310  0.0350 -0.2279
34467W        W77458  12.352   1.129   7.371  0.1098  0.2260  0.0139
34468W        W77459  12.010  32.284  22.553 -0.0821 -0.0195  0.2496
34469W        W77460  20.017   8.534   5.464  0.2416 -0.3094  0.0256
34470W        W77461  34.483  32.214   2.872 -0.0836  0.1694 -0.2191
34471W        W77462  33.420  34.594  14.699  0.0411 -0.3167 -0.1604
34472W        W77463   7.169  17.812  10.307  0.3253  0.2414 -0.0585
34473W        W77464   5.849  13.048  26.021 -0.0295 -0.0808  0.3469
34474W        W77465   8.170  24.811   4.955 -0.0051 -0.2050  0.0384
34475W        W77466   6.258  31.115  21.776  0.0885 -0.1030 -0.2465
34476W        W77467  32.831   1.365   3.913 -0.0048  0.0106 -0.1046
34477W        W77468   8.248   0.687  20.943  0.2927  0.2480  0.2690
34478W        W77469  13.210  30.438   5.325 -0.0364  0.0714 -0.3368
34479W        W77470   0.562  13.619  21.596 -0.1097 -0.1600 -0.0918
34480W        W77471  25.410   3.630  26.373  0.0467 -0.1399  0.1050
34481W        W77472  28.386  32.248   4.676  0.0734 -0.0631  0.2582
34482W        W77473  16.358  30.399   2.775 -0.1464  0.2084  0.0959
34483W        W77474  11.968   0.937  19.438 -0.0094 -0.1622 -0.0562
34484W        W77475  14.310  32.320  19.636  0.2274 -0.0623  0.0635
34485W        W77476  33.712  31.284   4.221  0.1614 -0.1092 -0.0224
34486W        W77477  29.106  19.697  19.164 -0.2500 -0.0910  0.1079
34487W        W77478  12.868   0.283  15.217  0.0379  0.0491 -0.0138
34488W        W77479  20.068  24.254   0.762  0.0418 -0.0506 -0.1070
34489W        W77480   6.767  34.315  21.450 -0.0549  0.0840  0.1465
34490W        W77481   7.272  30.540  24.886 -0.2220 -0.1869  0.0257
34491W        W77482   3.656  26.454  26.228  0.0691 -0.1815  0.1517
34492W        W77483   4.752   5.473  22.602 -0.1355  0.0869 -0.1076
34493W        W77484  33.711  16.689  28.248  0.1159  0.2112  0.3227
34494W        W77485  11.171   7.946  21.272  0.0367  0.0536  0.3284
34495W        W77486  32.759   2.105   4.625 -0.0491  0.1311  0.3981
34496W        W77487  33.809  18.951   9.257 -0.0131  0.1279 -0.2911
34497W        W77488  10.631  30.943  27.024 -0.0943  0.0637 -0.2580
34498W        W77489  15.187  31.479   4.307 -0.0552  0.2485 -0.3330
34499W        W77490  28.960  25.208  16.904  0.2935  0.1098  0.2394
34500W        W77491  34.299  29.094  16.732  0.1883 -0.1500  0.1241
34501W        W77492   5.431  30.965  28.621 -0.3871 -0.0008  0.2632
34502W        W77493   8.180   6.090  23.988 -0.0787 -0.2344  0.3272
34503W        W77494   1.755  31.819  15.053 -0.0211  0.1003 -0.1128
34504W        W77495  30.978  32.634   4.052  0.2838  0.2914 -0.3228
34505W        W77496   0.448  31.588   2.016 -0.2232  0.1035  0.2796
34506W        W77497   9.602  28.939   0.694 -0.1850 -0.2505 -0.0393
34507W        W77498   1.968  30.109   2.579  0.1087 -0.0400  0.1314
34508W        W77499  16.244  22.707  19.660  0.1337  0.1473 -0.3360
34509W        W77500  33.549  31.742   1.374 -0.0148 -0.0307  0.1000
34510W        W77501   8.143  11.558   1.424  0.1564  0.2264 -0.0192
34511W        W77502  32.547  27.687   6.430 -0.0142  0.0743  0.3466
34512W        W77503  28.758   5.172  19.163  0.0630  0.1049  0.1496
34513W        W77504  31.869  23.127   5.969  0.0162  0.1174 -0.1850
34514W        W77505  28.166  27.517  16.338  0.0205  0.3340 -0.2919
34515W        W77506  21.193  32.064  18.009  0.1300 -0.5764  0.2931
34516W        W77507   0.799   8.616  28.938 -0.0874  0.3513  0.0466
34517W        W77508   7.525   7.731  15.937  0.2164  0.1968 -0.2558
34518W        W77509  14.173  31.500  28.990 -0.1250 -0.0041  0.0096
34519W        W77510   4.447   3.201  29.163  0.0802  0.0673  0.1817
34520W        W77511   2.706  28.169  25.572 -0.1572 -0.0960 -0.1596
34521W        W77512   9.427  17.562   4.762 -0.1381  0.1775  0.2602
34522W        W77513   1.923  12.436  10.231 -0.2560 -0.2068  0.1163
34523W        W77514   2.252  30.576   8.263 -0.0747  0.2474 -0.1828
34524W        W77515  14.813  34.712   9.400 -0.0707  0.2736 -0.2019
34525W        W77516   0.960  24.064  24.313 -0.0271  0.5183 -0.1479
34526W        W77517  21.934  34.590   7.682 -0.2145 -0.0079  0.2638
34527W        W77518  34.021  20.019   6.857  0.0847 -0.1711 -0.0511
34528W        W77519  12.051   4.939   9.872 -0.1593  0.0097 -0.0469
34529W        W77520  17.791  11.172  23.432 -0.1274 -0.0584 -0.0891
34530W        W77521   5.878  25.819   6.379  0.0025 -0.0817  0.1472
34531W        W77522   9.669  14.077  18.743  0.1004 -0.1491  0.0001
34532W        W77523   0.445  12.619  24.954 -0.2709 -0.3003 -0.0130
34533W        W77524  14.256  27.416  22.211  0.1057  0.1257  0.1527
34534W        W77525  12.947  31.241  21.546 -0.1579 -0.1989 -0.1607
34535W        W77526  13.155  20.207   4.013  0.0188  0.2582  0.1641
34536W        W77527  34.510  14.376  25.041 -0.3673 -0.0652  0.1963
34537W        W77528  26.753  21.693  28.977 -0.0392  0.1259 -0.1283
34538W        W77529  14.878  21.749   3.078  0.2001 -0.0527 -0.1206
34539W        W77530  33.013   4.748   2.400  0.0256  0.2374  0.0058
34540W        W77531  15.823  24.746  22.484  0.3347 -0.0343  0.1323
34541W        W77532   6.560  30.389  16.974  0.0989  0.4531  0.0900
34542W        W77533   4.696  33.611  24.123 -0.3058 -0.0257 -0.1652
34543W        W77534   4.012  29.659  24.833 -0.1177 -0.0443  0.1595
34544W        W77535  11.018  30.845   2.419 -0.1922 -0.0457  0.2112
34545W        W77536  25.994  27.884   9.547  0.2113 -0.1055 -0.0707
34546W        W77537  13.485  25.235  22.696  0.1479  0.1003  0.3339
34547W        W77538  11.346  22.473  19.950 -0.0479 -0.0634  0.0269
34548W        W77539   2.504  22.959  11.145 -0.1053 -0.0204  0.3796
34549W        W77540  15.332  21.951  27.410 -0.0920 -0.0659  0.1337
34550W        W77541  16.772  29.197   2.073 -0.0067  0.5134  0.1007
34551W        W77542  31.376  24.097  21.903  0.1169  0.0665  0.2952
34552W        W77543   3.239  16.116   1.571  0.0715 -0.1215 -0.0822
34553W        W77544  12.709  17.946  23.590  0.2733 -0.0907  0.0348
34554W        W77545  26.431  33.825  14.927  0.0589 -0.0056  0.1754
34555W        W77546  11.440  33.073   4.754 -0.0207  0.0554 -0.0574
34556W        W77547   4.853  31.530   0.906  0.2064 -0.1141 -0.0477
34557W        W77548  18.002   0.193  25.231 -0.1435 -0.0620 -0.1935
34558W        W77549   6.197  28.009  26.443  0.3243 -0.1395 -0.2094
34559W        W77550   7.669  22.370  22.070  0.1010  0.2107 -0.0251
34560W        W77551  31.445  22.443  15.501 -0.1864  0.1715  0.1005
34561W        W77552  28.963  21.242   5.638 -0.1171 -0.0184 -0.1447
34562W        W77553  23.785   9.234  24.170 -0.1718  0.0057 -0.0702
34563W        W77554  30.109   4.265   6.486  0.1203  0.1273 -0.2355
34564W        W77555  15.230  26.782  18.313  0.1129 -0.2543 -0.0948
34565W        W77556   5.272  28.517   0.561  0.1409  0.3747 -0.3201
34566W        W77557   0.688  13.016  15.821 -0.0320  0.0575 -0.0030
34567W        W77558   0.096   7.368  16.281  0.0818 -0.1321 -0.0975
34568W        W77559  13.328   4.258  20.219 -0.1346  0.2936  0.0069
34569W        W77560  34.071  11.138  25.905  0.0119  0.1192 -0.0617
34570W        W77561   7.622  24.877   9.804  0.3220 -0.1444 -0.1474
34571W        W77562  12.576  14.279   8.130  0.0256  0.1595 -0.0423
34572W        W77563   5.753  30.875  25.866  0.2758  0.1041  0.0243
34573W        W77564   1.834   8.464  22.308  0.0685 -0.0534  0.0469
34574W        W77565   3.484  27.651  25.590 -0.0398  0.0842  0.2449
34575W        W77566  33.941  33.182   0.951  0.0491 -0.0919  0.4240
34576W        W77567  13.199   8.721   1.544  0.1129  0.2611 -0.2731
34577W        W77568  34.227   7.685   2.452  0.2038  0.0528 -0.1220
34578W        W77569   3.564  13.124  29.224  0.0745 -0.1741 -0.0997
34579W        W77570   0.295  26.053   7.960  0.0099 -0.2706 -0.6097
34580W        W77571  16.914  28.856   0.730 -0.0304 -0.1191  0.1677
34581W        W77572  16.832  14.885   8.918  0.1811 -0.1360 -0.0095
34582W        W77573   2.585  24.796   3.046 -0.0307 -0.1472 -0.2811
34583W        W77574   8.525  18.981  24.873  0.1241 -0.0802 -0.2697
34584W        W77575   6.354   7.880  21.147  0.1695  0.0051  0.4265
34585W        W77576   5.191   1.732  21.543 -0.0300  0.2480  0.0639
34586W        W77577  32.243  34.747  24.181 -0.0653 -0.0094 -0.1689
34587W        W77578   0.477  12.828   4.762  0.2204  0.0525  0.1024
34588W        W77579   5.669  16.694  17.650  0.2746  0.0590 -0.0320
34589W        W77580  11.572   0.242   3.655  0.0219 -0.4503 -0.0713
34590W        W77581  16.204  26.740  13.521  0.1803 -0.0989 -0.0110
34591W        W77582   1.817  34.661  16.820  0.0483  0.2480  0.0856
34592W        W77583   5.118   2.370  22.668  0.2618  0.2955  0.0282
34593W        W77584   0.484   2.659  20.923  0.0533  0.0024  0.3228
34594W        W77585   7.308  28.959  28.464  0.0328  0.0198 -0.1716
34595W        W77586   6.822   2.595  15.643 -0.0380  0.0718 -0.0090
34596W        W77587  31.685  13.737  23.582  0.2239 -0.1315 -0.0199
34597W        W77588  15.147   4.927   4.965 -0.0458  0.1794 -0.1659
34598W        W77589  30.857  18.523  24.982 -0.1337 -0.2495  0.0164
34599W        W77590   9.642   0.773  26.745 -0.0745 -0.0143  0.1997
34600W        W77591  12.512  12.929  17.565 -0.1759  0.2246  0.1809
34601W        W77592   7.151   0.950  25.925  0.1523  0.1539 -0.1604
34602W        W77593  14.276  12.295   9.009  0.0141  0.3475 -0.0626
34603W        W77594  32.044  19.960  20.231 -0.2493  0.1401  0.1756
34604W        W77595   4.349  26.471  29.097  0.1142 -0.1641 -0.0998
34605W        W77596   9.548  23.520  20.280  0.1108  0.3609  0.1807
34606W        W77597  29.724   7.343  25.377  0.2806 -0.0543  0.4225
34607W        W77598   1.380  28.761   7.456 -0.1355  0.2481  0.0410
34608W        W77599   9.697  27.833   1.689 -0.1583  0.1201  0.2484
34609W        W77600  16.863   4.018  15.492  0.0011 -0.0391  0.0107
34610W        W77601  31.785  25.042   5.909 -0.2601 -0.0703 -0.0131
34611W        W77602  33.919  28.059  26.866  0.2254 -0.1839 -0.0840
34612W        W77603  31.310  22.062   5.390 -0.0563  0.0019 -0.1850
34613W        W77604  22.237  13.463   4.100  0.0627 -0.1807  0.2300
34614W        W77605  33.733   2.523  21.658  0.0924 -0.0755  0.4856
34615W        W77606   8.603  23.635  19.801 -0.1198 -0.0744 -0.2332
34616W        W77607   1.297   5.450  18.507 -0.1635 -0.0862  0.0452
34617W        W77608   1.416   4.804   5.172  0.2499  0.1099 -0.0925
34618W        W77609   8.182  32.738  28.886 -0.0560  0.3453 -0.2426
34619W        W77610  18.703  17.059  25.234  0.1376 -0.2461 -0.1041
34620W        W77611  21.423  28.559  18.538 -0.4728 -0.2620 -0.1409
34621W        W77612   3.329  20.205   3.513 -0.2532 -0.0940  0.2186
34622W        W77613  31.613   1.689   3.022 -0.1300  0.2074 -0.3496
34623W        W77614   6.220  33.411   5.850 -0.2093 -0.0805  0.2822
34624W        W77615   7.403  12.490  20.612  0.0799 -0.2085 -0.0052
34625W        W77616  33.802  16.570  27.725  0.2903  0.2023 -0.0018
34626W        W77617  13.748   2.227  23.916 -0.3911  0.1166  0.0890
34627W        W77618   8.285  29.783  10.348 -0.0612  0.1908  0.0186
34628W        W77619   0.951  29.424   0.434 -0.5875 -0.0592 -0.1431
34629W        W77620   8.554  24.134   1.455  0.0556  0.5066 -0.0839
34630W        W77621   2.091   1.358   1.603  0.0597  0.1692 -0.1693
34631W        W77622  22.832  28.061   2.894 -0.0267  0.0265 -0.1079
34632W        W77623   5.755  19.519  18.285 -0.0801  0.2360 -0.2110
34633W        W77624   2.727  33.428  27.911 -0.0745  0.1734 -0.0024
34634W        W77625  34.253   7.664   4.969  0.2611 -0.1697  0.0538
34635W        W77626  25.733  22.358  23.882 -0.1226 -0.0251  0.1956
34636W        W77627   2.869  29.468  15.184  0.1447 -0.1805 -0.0254
34637W        W77628   7.592   1.809  27.973  0.1413  0.2036 -0.0311
34638W        W77629   6.984   4.850   8.640 -0.3451 -0.2751  0.0276
34639W        W77630   5.374   8.123   6.808 -0.1193 -0.2443 -0.0543
34640W        W77631  31.995  30.902  21.259  0.0553 -0.2022 -0.3163
34641W        W77632   9.265  25.757   1.928  0.2281 -0.2676 -0.2467
34642W        W77633  32.672  16.116  26.164 -0.1171  0.1078 -0.1563
34643W        W77634  27.512  27.589   7.214 -0.3562 -0.0954 -0.2302
34644W        W77635   2.463  20.441  11.106  0.0932  0.0721  0.1514
34645W        W77636  19.182  26.692   9.248 -0.0997  0.0911  0.0982
34646W        W77637  12.137  34.458  26.262 -0.0645 -0.0513 -0.0545
34647W        W77638   2.343  28.633  28.799 -0.1312  0.1929 -0.0389
34648W        W77639   8.150  30.628   2.294 -0.0676 -0.2582  0.1083
34649W        W77640  11.506  20.966  20.335  0.0854  0.0546  0.2090
34650W        W77641   5.030   6.407  28.438  0.1978  0.0494 -0.2625
34651W        W77642   9.969  14.846  24.285  0.0133  0.1212  0.2196
34652W        W77643  30.976  21.151  19.735  0.0062 -0.0540 -0.3301
34653W        W77644  12.399  26.051   6.215 -0.2204  0.2280 -0.3106
34654W        W77645   1.717  30.726  15.139 -0.2896  0.1212  0.2023
34655W        W77646  12.899  28.968   1.002 -0.2177  0.1639 -0.3860
34656W        W77647  33.707   6.689  25.045  0.1389 -0.1015 -0.2097
34657W        W77648  16.657   4.465  25.497 -0.1367  0.1239  0.0087
34658W        W77649  21.357   0.211  27.505  0.0653  0.0222  0.0702
34659W        W77650  23.225  29.574   9.287  0.1624  0.0707  0.2946
34660W        W77651   4.434   6.058   7.114 -0.2737 -0.0111 -0.3230
34661W        W77652   5.067  29.566   8.920  0.0387  0.0975 -0.1915
34662W        W77653  15.879  24.872  17.928 -0.4151 -0.3979  0.2807
34663W        W77654  14.597  30.924  15.156 -0.1043  0.1089  0.0023
34664W        W77655  29.140  32.527   0.393  0.2352 -0.3452  0.0229
34665W        W77656  21.999  23.717   1.540 -0.2709  0.0940  0.0148
34666W        W77657   6.815   3.354  24.759  0.1090 -0.5369 -0.1572
34667W        W77658   5.134  27.471  20.896  0.0189  0.0816 -0.1678
34668W        W77659   0.680  25.167  24.010 -0.1961  0.1152  0.1156
34669W        W77660  31.353   5.365  28.563  0.1959 -0.1623 -0.1960
34670W        W77661   6.028  27.560   2.370 -0.2300  0.0064 -0.1625
34671W        W77662   3.369  24.794  18.304 -0.1530 -0.1845 -0.1239
34672W        W77663   8.516  25.117   4.090 -0.0173 -0.1567  0.0829
34673W        W77664   6.149   1.631  21.215 -0.0243 -0.0355  0.0269
34674W        W77665  13.912   4.221  21.629 -0.0236 -0.0355 -0.1221
34675W        W77666   5.010  29.675   7.475  0.2149 -0.2150  0.1298
34676W        W77667   3.543  23.936  27.116  0.0214 -0.3755  0.2275
34677W        W77668  30.976  32.615   1.159  0.2918 -0.0434 -0.0469
34678W        W77669  17.321  26.352  19.277  0.1542 -0.3635 -0.2085
34679W        W77670   8.707  20.090  28.113  0.1221 -0.3514  0.2524
34680W        W77671   4.231   2.597   3.438  0.0799 -0.1103 -0.0448
34681W        W77672  14.620   8.115   4.795  0.0549  0.0142  0.1611
34682W        W77673   3.304  22.191  22.289 -0.0235  0.2995 -0.2537
34683W        W77674  22.692  23.941   4.046 -0.0184  0.0987  0.4444
34684W        W77675   7.794   5.731  28.927 -0.0841 -0.2387 -0.1997
34685W        W77676  21.122  26.437  19.110 -0.1223 -0.0633  0.2435
34686W        W77677  16.118   3.414  28.901 -0.0352  0.2256  0.0217
34687W        W77678  14.989  24.061  15.693  0.3255 -0.2696  0.0869
34688W        W77679   0.354  29.797  28.406 -0.0669 -0.1016  0.1756
34689W        W77680  28.013   9.045  28.489 -0.1261 -0.2396  0.0880
34690W        W77681  12.404  33.885  22.182 -0.1103 -0.0987  0.1210
34691W        W77682  10.499  20.626  27.498 -0.1430  0.1622 -0.3235
34692W        W77683  12.711  30.666   4.034  0.0111 -0.3011  0.4268
34693W        W77684   5.808  23.675   0.266  0.1287 -0.3153  0.0242
34694W        W77685  21.728   9.406  26.479  0.2315 -0.1343 -0.2489
34695W        W77686   4.528  13.497   9.401  0.0458  0.0842  0.1869
34696W        W77687  32.563  26.757   3.587  0.1118 -0.0232  0.1541
34697W        W77688   8.091  28.825   5.942  0.0367  0.1270  0.4020
34698W        W77689  16.913   3.430   3.791 -0.1794  0.0107 -0.2244
34699W        W77690  16.714   7.730   2.781  0.0960  0.1574  0.2139
34700W        W77691   2.107  23.032   2.704 -0.4254 -0.0823  0.1528
34701W        W77692  24.112  33.028  17.971 -0.0795 -0.0769  0.3276
34702W        W77693  30.994   3.736   6.456  0.0012 -0.1462 -0.0574
34703W        W77694  21.476  30.687  22.193  0.1663 -0.0234 -0.0696
34704W        W77695  27.035  21.683  24.939  0.1631 -0.1258  0.0109
34705W        W77696  13.933  34.618   9.632  0.2143 -0.1010  0.0037
34706W        W77697  33.639  32.390  19.539  0.3178 -0.2732 -0.2110
34707W        W77698  10.303   7.625   7.699 -0.2335 -0.0162 -0.1535
34708W        W77699   8.664  12.793  27.457 -0.1638  0.2014 -0.0608
34709W        W77700   3.231   2.009  28.877 -0.2925  0.3096 -0.2190
34710W        W77701  11.465  32.776   9.127  0.1686 -0.1408 -0.0374
34711W        W77702   6.227  30.026   8.859  0.0275 -0.2225  0.1480
34712W        W77703  13.628  29.245  24.724  0.0736  0.3713 -0.0064
34713W        W77704  23.332  34.195  25.654  0.0223  0.2474 -0.0122
34714W        W77705  25.330  13.574  17.806  0.0545 -0.0251 -0.2219
34715W        W77706   6.924  30.044  14.624 -0.0201 -0.0515  0.0287
34716W        W77707   8.994   5.614   9.571  0.0662  0.0353 -0.0068
34717W        W77708   7.878   3.175  28.811  0.1301 -0.2972 -0.2076
34718W        W77709  31.512   7.857   8.352  0.0243 -0.0557  0.0209
34719W        W77710  25.646  34.129  27.443 -0.0176 -0.1095  0.0448
34720W        W77711  18.025   7.048  19.960  0.0091 -0.0038 -0.0035
34721W        W77712   6.788  26.318  10.150  0.1212  0.0537  0.3136
34722W        W77713  15.454  31.554   1.022 -0.0456 -0.0460 -0.1501
34723W        W77714   3.118  24.850  16.616  0.0164  0.1433  0.2196
34724W        W77715   4.329   5.483   5.042  0.2352 -0.2746 -0.0088
34725W        W77716  11.831  25.260  25.318 -0.3693 -0.1418  0.5481
34726W        W77717   3.771  26.813   2.280  0.0275 -0.3425 -0.0090
34727W        W77718   1.775  32.224  27.914  0.4058  0.0509 -0.0144
34728W        W77719   1.326  29.671   7.699  0.1283 -0.2110 -0.1734
34729W        W77720   7.968  30.641  18.117  0.0498 -0.3842  0.1790
34730W        W77721  29.977  24.588   8.643 -0.0263 -0.0813 -0.0812
34731W        W77722   0.332  16.610   7.298  0.3050  0.4355  0.4518
34732W        W77723  28.560  17.209  26.003  0.2235 -0.0625 -0.1000
34733W        W77724  18.543  30.788  21.067  0.0304 -0.0519 -0.1295
34734W        W77725   2.216  20.656   1.787 -0.0685 -0.1263 -0.0160
34735W        W77726  30.805   2.813  17.351 -0.0433  0.0199 -0.2452
34736W        W77727  30.540  33.347   0.027  0.1221 -0.1181  0.3449
34737W        W77728  15.139  18.219   7.655 -0.1928 -0.3021  0.2243
34738W        W77729  23.816  26.113  20.243 -0.3638 -0.2612 -0.5143
34739W        W77730  34.400  21.756   2.415 -0.2862  0.0600 -0.0597
34740W        W77731  31.001  26.160  15.739 -0.0184  0.1324 -0.0954
34741W        W77732  19.937  20.413  16.803  0.1372 -0.0028 -0.1139
34742W        W77733  12.649   5.418  18.843  0.3651 -0.2514 -0.3520
34743W        W77734   2.797   5.542  18.749  0.2662 -0.0302  0.0094
34744W        W77735  22.499  34.609   5.119 -0.2948  0.0672  0.0683
34745W        W77736  32.962  34.331  28.447 -0.1441  0.2985  0.5212
34746W        W77737  31.211   8.612   4.621 -0.2636  0.1915  0.0480
34747W        W77738  12.386  23.144  23.323  0.0147 -0.2250  0.1303
34748W        W77739  13.526  32.599   6.443 -0.0405 -0.0619 -0.1824
34749W        W77740  13.954   4.141   0.039  0.0690 -0.2267 -0.1141
34750W        W77741  26.436  26.398   2.576  0.2067  0.0325 -0.3172
34751W        W77742  33.936  11.696  21.014  0.0586  0.1512  0.0347
34752W        W77743   1.685   5.330  27.669  0.2584 -0.1027  0.0006
34753W        W77744  11.812  18.950  16.828 -0.0897  0.1321 -0.0561
34754W        W77745  11.365  10.025   9.102  0.0386 -0.0376  0.2076
34755W        W77746  15.276  20.212  15.703  0.0760 -0.1128 -0.3792
34756W        W77747  17.165  21.730  15.557 -0.1761 -0.1320 -0.1502
34757W        W77748   6.193  29.294   3.268 -0.0153  0.1000  0.0365
34758W        W77749  31.268  22.432   6.348  0.2495  0.0357 -0.1894
34759W        W77750   1.809  10.041  16.057  0.0259  0.2508  0.0321
34760W        W77751   9.038  18.934   2.985 -0.0126 -0.0200  0.2338
34761W        W77752  15.138  34.179  24.775 -0.0119 -0.0811 -0.1273
34762W        W77753  25.706  33.495   0.218 -0.2452  0.1122 -0.0138
34763W        W77754  33.452  11.002  18.243 -0.0800  0.2720 -0.1219
34764W        W77755  16.782  25.566   7.540 -0.0698 -0.0787  0.2327
34765W        W77756   1.584   2.854   7.142  0.0807 -0.2333  0.0518
34766W        W77757   6.831  30.522   9.343 -0.0999  0.0563  0.0698
34767W        W77758  19.588   2.713   6.762 -0.2613  0.0689  0.0168
34768W        W77759   2.946  27.726  24.703  0.0566 -0.2903  0.0513
34769W        W77760   6.756   6.934   5.422 -0.1641 -0.0291 -0.5130
34770W        W77761   1.525  21.540   9.934 -0.0187  0.0237  0.0164
34771W        W77762   6.185   6.339  18.164 -0.1316 -0.1043  0.2222
34772W        W77763   3.849  28.922  22.954 -0.0567 -0.0500  0.3341
34773W        W77764  17.075  27.226  25.608  0.2085 -0.0378 -0.2172
34774W        W77765   8.152  31.720   0.036  0.1330 -0.3490 -0.1236
34775W        W77766  21.938  29.954  20.581 -0.0276  0.0944  0.1603
34776W        W77767  25.848  21.410   5.105 -0.0530  0.1130 -0.0380
34777W        W77768   9.290   8.795   3.118  0.0054 -0.3226 -0.2504
34778W        W77769  23.524  27.342   5.979 -0.1222 -0.0816  0.2042
34779W        W77770   5.158   6.715  17.291  0.0460 -0.3903  0.0310
34780W        W77771  16.066  21.166  21.505 -0.0852 -0.4059  0.0460
34781W        W77772   6.258  14.268  28.889 -0.0510  0.0353  0.0895
34782W        W77773   9.796   1.816   4.210  0.1580 -0.1407  0.0678
34783W        W77774   8.499  25.253  26.352  0.2996  0.0075 -0.0209
34784W        W77775   8.869  22.156  22.561 -0.0041 -0.0883 -0.1064
34785W        W77776   2.918   8.719  20.405  0.2455  0.3459  0.2326
34786W        W77777  19.541  11.045   8.921  0.1928  0.2574  0.0892
34787W        W77778  10.842   9.675  25.819  0.2918 -0.1019  0.2625
34788W        W77779   7.657  31.912  18.821  0.1159 -0.0388 -0.2265
34789W        W77780  34.290  17.172  22.639 -0.0986  0.1199  0.1483
34790W        W77781  20.964  22.865  26.989  0.0628  0.0764  0.0532
34791W        W77782  19.996  28.438  13.805 -0.0080  0.0336 -0.1570
34792W        W77783  33.884  30.744  16.578 -0.0035 -0.1756 -0.4072
34793W        W77784   9.331   2.907  19.535 -0.2051 -0.0008 -0.2274
34794W        W77785  12.529   9.810  17.872 -0.2553  0.0014  0.3202
34795W        W77786  14.711   1.859  22.558 -0.3326  0.3538 -0.0508
34796W        W77787   4.664  18.093  25.901 -0.1108 -0.1664 -0.0560
34797W        W77788   6.639   0.354   1.600  0.4991 -0.1842  0.0043
34798W        W77789  13.626  26.274  16.708 -0.2518  0.0063 -0.1449
34799W        W77790   8.730  29.191  22.519 -0.0594 -0.0190 -0.0441
34800W        W77791  31.783  24.497  14.847 -0.0617 -0.0209 -0.0468
34801W        W77792  10.425  29.294  28.944  0.0909 -0.0370 -0.1406
34802W        W77793   6.186  33.392  25.725 -0.0656  0.1028  0.0256
34803W        W77794  34.238   7.556  28.922  0.1470  0.0667 -0.0099
34804W        W77795  32.561   5.810  20.289  0.0178  0.0031  0.0619
34805W        W77796  32.942  30.679  23.551  0.0786  0.0587  0.1618
34806W        W77797   7.849  25.641  20.486 -0.0993  0.1612 -0.2176
34807W        W77798  34.685  33.741   2.690  0.1647  0.1236 -0.0397
34808W        W77799  33.516  30.066  17.414 -0.1415  0.0076 -0.2903
34809W        W77800   8.289   8.259  19.057  0.2545 -0.2186 -0.1753
34810W        W77801   8.038   8.889  15.786 -0.2335 -0.0273 -0.0197
34811W        W77802  15.110  27.989  29.175  0.1789 -0.0956 -0.0992
34812W        W77803  18.511  27.823  17.445 -0.1315  0.0658  0.5347
34813W        W77804   7.272  14.139  28.202  0.2233  0.2175 -0.1564
34814W        W77805  10.630  20.097  16.303 -0.1865  0.1135  0.0490
34815W        W77806   4.185  34.791  14.730  0.0796  0.3712  0.1720
34816W        W77807   1.133  28.239  23.850 -0.0876 -0.1446  0.0375
34817W        W77808   8.999  11.155  21.329  0.0583 -0.0033  0.0379
34818W        W77809  33.435   9.938  27.723 -0.1177 -0.1693  0.0906
34819W        W77810  31.557   1.592  25.854 -0.0702  0.1405  0.2978
34820W        W77811  28.542   3.866  16.589 -0.1741 -0.2961 -0.0759
34821W        W77812   0.781  18.375  23.677 -0.1451  0.0853  0.0261
34822W        W77813  17.190   0.931  19.700  0.1359 -0.1386  0.1224
34823W        W77814  18.272  34.637  14.697  0.1639  0.1344 -0.1907
34824W        W77815  11.124  22.923  25.650  0.0367  0.4172 -0.1997
34825W        W77816  22.302  28.701  20.983 -0.0132  0.0937 -0.0438
34826W        W77817   3.653  11.925  26.170 -0.0103 -0.4249  0.0285
34827W        W77818  12.304  27.260  23.357  0.1706 -0.2270 -0.0250
34828W        W77819   8.258  33.597  22.352  0.3502 -0.2473 -0.0058
34829W        W77820  11.730  27.889  23.758 -0.1122 -0.0760 -0.0763
34830W        W77821  16.461  21.278  12.542 -0.3282  0.0658 -0.0313
34831W        W77822  21.552  14.946  14.536  0.0853  0.3571 -0.1529
34832W        W77823  26.699  26.472  20.120 -0.1602 -0.2352  0.2328
34833W        W77824   6.903  18.683  25.211 -0.0066  0.1508 -0.2373
34834W        W77825  12.476  34.298  16.298 -0.2910 -0.1428  0.1764
34835W        W77826   0.989  27.810  20.691 -0.0082 -0.2220  0.1604
34836W        W77827  27.888   5.139  24.866 -0.1354 -0.1171 -0.3933
34837W        W77828  31.065  33.754  24.361 -0.0280 -0.0012 -0.2073
34838W        W77829  21.004  34.137  20.333  0.2745 -0.0728  0.2090
34839W        W77830  16.122   3.581  24.796 -0.0365 -0.0181 -0.1473
34840W        W77831   0.522  34.688  21.107  0.0063 -0.0369 -0.0129
34841W        W77832  27.803  12.501  17.454 -0.0759  0.1514 -0.0585
34842W        W77833  23.605  33.316  23.015 -0.0103  0.2829  0.0456
34843W        W77834  12.382   1.854   2.411  0.0579 -0.0689  0.1910
34844W        W77835   5.443   7.767  19.979  0.0649 -0.0791 -0.2434
34845W        W77836   8.468  20.197  17.364  0.2689 -0.2035  0.4702
34846W        W77837  13.996   9.242  15.789 -0.2056 -0.0490  0.1233
34847W        W77838   9.083  34.581  26.078  0.0758  0.3268  0.2470
34848W        W77839  14.898  32.255   0.306 -0.1873 -0.0243 -0.1769
34849W        W77840   1.549  11.847  18.521 -0.0550 -0.0227 -0.1538
34850W        W77841   7.515  16.996  28.911 -0.0205 -0.0821 -0.1386
34851W        W77842  13.978  30.961  29.152  0.0064 -0.1268  0.1461
34852W        W77843  21.990   0.692  13.371  0.1617  0.0774  0.2522
34853W        W77844  34.181  27.731  20.850 -0.4064  0.2456  0.0857
34854W        W77845  19.634  20.707  21.423  0.1855  0.0169  0.0367
34855W        W77846   2.584  29.691  23.788 -0.2080  0.0560  0.2734
34856W        W77847   4.865   6.140  19.252 -0.0787 -0.2379  0.1287
34857W        W77848  22.048  32.619  22.280  0.3056  0.0528  0.0264
34858W        W77849   3.752  11.626  17.932 -0.1247  0.4230 -0.0934
34859W        W77850  11.885   2.912  17.122 -0.0726 -0.2288 -0.1247
34860W        W77851  16.362  10.948  19.558 -0.0912  0.1654  0.0419
34861W        W77852   7.093  29.631  22.155 -0.1837  0.1115  0.2232
34862W        W77853  17.718  26.033  19.353 -0.2692  0.1512  0.2087
34863W        W77854  29.213  10.900  27.987 -0.0147  0.1248 -0.1286
34864W        W77855   9.628   0.133  28.045 -0.3137  0.1022 -0.0577
34865W        W77856  25.265   1.017  24.627 -0.0079  0.2796 -0.0426
34866W        W77857  11.583  28.215  21.292 -0.3339  0.1850  0.1087
34867W        W77858  20.841   0.255  14.162  0.0562 -0.0084 -0.1411
34868W        W77859   8.649   6.319  17.474  0.0792  0.2842 -0.4547
34869W        W77860   5.652  32.461  25.600  0.0550  0.0923  0.1653
34870W        W77861  17.891  28.186  17.906 -0.0598 -0.1725 -0.1163
34871W        W77862  29.058   4.092  14.138 -0.2389  0.0868  0.1711
34872W        W77863  29.547   1.234  17.997  0.0825 -0.0776 -0.1470
34873W        W77864  28.824  30.845  14.756 -0.1737  0.1299  0.2084
34874W        W77865  33.456  18.948  18.363 -0.1961 -0.1273  0.0279
34875W        W77866   0.482  34.272  17.357  0.0709  0.1034 -0.2405
34876W        W77867   6.369   5.374  16.587  0.1583 -0.1167  0.0622
34877W        W77868  20.181   8.510  17.637 -0.2389  0.2277  0.2655
34878W        W77869  18.017   0.938  16.540 -0.1096  0.1132  0.1284
34879W        W77870  12.847   0.190  22.503 -0.1509  0.0683 -0.1577
34880W        W77871  18.872  21.622  14.531 -0.0120 -0.2453  0.0225
34881W        W77872  17.045  29.945  26.032 -0.1661  0.1237  0.2320
34882W        W77873  28.174   6.624  15.102  0.2073  0.0829 -0.0602
34883W        W77874  14.479  10.124  14.836  0.0381  0.0011 -0.0742
34884W        W77875  19.120  31.861   3.863  0.1219  0.0333  0.0890
34885W        W77876  34.633  26.547  24.055 -0.1421 -0.2701 -0.5640
34886W        W77877  32.684   9.996  15.836 -0.2827  0.1471  0.1523
34887W        W77878  11.977  23.931  21.601 -0.0009 -0.1443  0.3591
34888W        W77879  27.456  33.786  24.624  0.2853 -0.1905 -0.0154
34889W        W77880   5.477  22.507  26.577  0.0033  0.1402 -0.0564
34890W        W77881  14.870   5.401  19.621 -0.0130  0.1353 -0.2151
34891W        W77882   0.335  33.779   2.397 -0.1789  0.2124 -0.0661
34892W        W77883  29.915   2.023  19.781 -0.3114  0.0799 -0.0179
34893W        W77884  18.762  31.326  23.246 -0.1057  0.2295 -0.3103
34894W        W77885   7.699  20.433  15.579 -0.0676  0.2186  0.1597
34895W        W77886  22.313  31.658  26.147 -0.0065 -0.1144  0.2380
34896W        W77887   6.136  10.018  25.439 -0.0896  0.1543 -0.2325
34897W        W77888   7.260  32.060  19.575  0.1144  0.2860  0.1467
34898W        W77889  20.748  27.012  22.586 -0.1005 -0.0865  0.0113
34899W        W77890   8.704   4.603  20.332 -0.1098 -0.0297 -0.2163
34900W        W77891  30.431  22.148  22.594  0.0319  0.1648 -0.1036
34901W        W77892   4.414   4.428  27.805 -0.0019  0.1958 -0.4504
34902W        W77893   3.503   2.252  19.573  0.1822 -0.0895  0.2800
34903W        W77894   6.910   4.176  18.703 -0.2252 -0.1077  0.1753
34904W        W77895  17.774  33.674  24.207 -0.0890  0.4773 -0.0573
34905W        W77896   0.469   5.591  15.709 -0.1655 -0.1325  0.1803
34906W        W77897  29.352  18.573  22.028  0.0235  0.0373 -0.0533
34907W        W77898   5.517  26.800  16.230 -0.0396 -0.0594 -0.0495
34908W        W77899   0.247   0.908  18.276 -0.1654 -0.1976  0.1509
34909W        W77900   6.992  33.150  17.168 -0.0366  0.1884  0.3487
34910W        W77901  31.226  33.464  18.806 -0.1817  0.2827  0.2434
34911W        W77902  12.502  32.548   0.782 -0.3611 -0.0778  0.2072
34912W        W77903   4.610  20.005  17.966 -0.1747 -0.2593 -0.0529
34913W        W77904  16.347   7.365  24.885 -0.0243 -0.1239 -0.0214
34914W        W77905  10.918  29.410  23.175  0.1268  0.1216  0.0274
34915W        W77906   3.398   8.849   0.204 -0.0357 -0.2425  0.0735
34916W        W77907  14.245  33.125  23.435  0.4143  0.3085  0.2949
34917W        W77908   4.776  22.725  16.257 -0.4093  0.1651 -0.1075
34918W        W77909   2.348   3.754  14.855  0.1208  0.0127  0.0995
34919W        W77910  32.708   6.079  13.978  0.1290 -0.0346 -0.1819
34920W        W77911   6.046  25.908  25.798  0.0196  0.1127  0.1981
34921W        W77912   9.415  34.138   3.899  0.1537 -0.5822 -0.1949
34922W        W77913  24.937   7.935  20.906 -0.0880 -0.2138 -0.1873
34923W        W77914   4.170  19.133  28.224 -0.0782  0.2471 -0.0968
34924W        W77915   4.496  33.147  19.142  0.1821 -0.2070 -0.0706
34925W        W77916  32.805  31.182  23.356  0.0160 -0.1128  0.0486
34926W        W77917  28.255   8.721  25.106 -0.0711 -0.0870 -0.1613
34927W        W77918   2.326   1.912  15.879  0.0011  0.0893  0.0572
34928W        W77919  31.104  29.600  12.819  0.1141  0.2115  0.1572
34929W        W77920  28.030  24.633   0.940 -0.5174 -0.0943 -0.2023
34930W        W77921   8.643  18.154  24.306 -0.0899  0.0160  0.0299
34931W        W77922   5.982  18.991  19.988 -0.1036 -0.0603 -0.1218
34932W        W77923   4.944  26.259  19.867 -0.3775  0.0648  0.1048
34933W        W77924  21.846  32.655  23.088  0.0256 -0.0334  0.0917
34934W        W77925   0.448   0.201   1.473  0.1728 -0.1370 -0.1611
34935W        W77926   5.867  10.413  28.434 -0.2249  0.1387 -0.1275
34936W        W77927   8.255  22.953  16.461  0.0007  0.1372 -0.1786
34937W        W77928  30.319  34.225  24.454 -0.2616 -0.2170 -0.1425
34938W        W77929  33.621  21.103  16.214 -0.0588 -0.0518 -0.0601
34939W        W77930  13.220  29.927  15.230  0.3042 -0.2712 -0.3954
34940W        W77931  11.180   4.193  16.223  0.2735  0.0044 -0.1235
34941W        W77932  20.027   4.531  14.933  0.2455 -0.0069 -0.3383
34942W        W77933  27.253  32.354  20.496  0.2037  0.0240 -0.1334
34943W        W77934   4.152  21.874  14.120  0.3516 -0.1027  0.1641
34944W        W77935  30.882  24.879  22.399  0.1140 -0.0448  0.1878
34945W        W77936   3.719  24.830  17.900  0.1402 -0.1087  0.0203
34946W        W77937   7.362  13.465  16.916  0.2481 -0.0405  0.1417
34947W        W77938  27.401  29.934  20.722  0.0270  0.1595  0.4576
34948W        W77939   0.869  22.306  15.228  0.1290 -0.0106 -0.4258
34949W        W77940   1.759  18.721  20.802  0.0078  0.0891  0.0290
34950W        W77941   5.159  31.023  17.785 -0.2463  0.1949  0.1220
34951W        W77942   6.374  20.927  22.784 -0.1793 -0.3693  0.1602
34952W        W77943  25.973  21.300  25.696 -0.0124 -0.0855  0.0711
34953W        W77944   5.261  14.618  21.452 -0.1562  0.3632 -0.0643
34954W        W77945   1.426   3.009   4.342 -0.1566 -0.1824 -0.0099
34955W        W77946   0.465  24.589   5.961  0.1001  0.0997  0.0677
34956W        W77947  26.448   2.429  15.852 -0.0209  0.0287 -0.0366
34957W        W77948  12.376  27.749  15.916  0.0181 -0.0162 -0.2407
34958W        W77949  12.798  29.581  17.368 -0.0308 -0.0949 -0.1971
34959W        W77950  32.936  22.135  19.460 -0.0935  0.0107  0.1518
34960W        W77951  14.107   6.950  21.963  0.1430  0.1429  0.1173
34961W        W77952   7.589  24.595  14.952 -0.0052  0.0408  0.2529
34962W        W77953  33.431  18.847  27.689  0.0543  0.2546 -0.0669
34963W        W77954  22.554  25.012  17.210  0.1208  0.3321 -0.2381
34964W        W77955   1.491  31.324  28.008  0.0467  0.0650  0.1700
34965W        W77956  21.649  24.206  17.684  0.1842 -0.0248  0.1417
34966W        W77957  31.825  34.132  14.762  0.2180  0.0560  0.2518
34967W        W77958  10.419  28.542   0.457  0.0645 -0.4488  0.1764
34968W        W77959   9.947  11.918  20.916  0.0238  0.1158  0.2520
34969W        W77960  10.418   5.960  23.741  0.0762 -0.0396  0.0991
34970W        W77961  12.035  22.313  18.203 -0.1745  0.0468  0.3344
34971W        W77962  11.932  26.780   0.269  0.0910  0.3263 -0.1454
34972W        W77963   4.346   0.545  25.466 -0.0607 -0.3428 -0.1994
34973W        W77964  15.728   1.522   4.263 -0.0854 -0.0771  0.2794
34974W        W77965  15.949  12.311  20.787 -0.1539  0.1312 -0.1794
34975W        W77966  23.850   5.765  13.786  0.2241  0.0635  0.1216
34976W        W77967  33.792  29.459  15.458 -0.0949  0.1562 -0.2740
34977W        W77968   3.061  28.849  26.064  0.0371  0.1946  0.1686
34978W        W77969   3.226  31.870  16.563  0.0453 -0.3545  0.0213
34979W        W77970  33.554  27.949  17.133  0.0072  0.0271 -0.0402
34980W        W77971  23.132   9.692  22.196 -0.0800  0.4475 -0.1797
34981W        W77972   4.613   1.800  21.574 -0.1154  0.4132 -0.1089
34982W        W77973  10.707  33.939  17.107 -0.0312  0.1175 -0.1689
34983W        W77974  20.256   5.088  26.798  0.0173 -0.2398 -0.1255
34984W        W77975  26.135  30.424  15.074  0.3526  0.0865  0.0978
34985W        W77976   7.746   1.076  23.690  0.2378 -0.0752  0.0479
34986W        W77977  19.407  34.132  16.076  0.2257 -0.1523 -0.1837
34987W        W77978   8.532  27.750  20.914  0.0119  0.1774 -0.1735
34988W        W77979   6.876  32.646  22.377  0.3648  0.1708 -0.1588
34989W        W77980   5.821  15.199  19.862 -0.0993  0.5014 -0.0528
34990W        W77981  21.369   8.063  17.701 -0.1200  0.1628  0.0212
34991W        W77982  16.084   0.735  15.027  0.0632  0.1648  0.1048
34992W        W77983   0.663  29.645   3.788 -0.0806  0.1644  0.0546
34993W        W77984   0.010   6.784  21.764 -0.0070 -0.0765  0.1877
34994W        W77985  10.168  27.942  18.030  0.1985  0.2023 -0.0639
34995W        W77986   5.800   7.878  20.960  0.3916 -0.1411  0.2668
34996W        W77987   0.058   1.421  25.676 -0.0614  0.2331  0.0689
34997W        W77988  34.446  27.892  19.530 -0.0992 -0.0408 -0.0075
34998W        W77989  25.971  27.993  20.028  0.2721  0.0519 -0.1077
34999W        W77990   3.082  13.251  20.786  0.1179  0.1015 -0.1338
35000W        W77991  13.090  31.869  15.759 -0.4015 -0.1775  0.1526
35001W        W77992   1.761  24.785  21.194  0.1152 -0.0969  0.1810
35002W        W77993  34.309  24.245  15.472  0.2402  0.0883 -0.4575
35003W        W77994   5.447   0.922  15.436 -0.1297 -0.0205  0.3048
35004W        W77995  15.126   6.309  25.362  0.1592 -0.0521  0.3071
35005W        W77996  31.768  32.584  15.553  0.0894 -0.1343  0.0955
35006W        W77997   4.830  23.064  16.638 -0.0612  0.0503  0.1572
35007W        W77998   6.981  11.119  28.452  0.3513 -0.1741 -0.2104
35008W        W77999  11.125  20.309  18.140 -0.1610  0.0213  0.0663
35009W        W78000   8.675  31.895   8.921 -0.0723 -0.2585 -0.2698
35010W        W78001  14.952  30.059  24.537 -0.0237  0.1224  0.0430
35011W        W78002  21.040  33.372  29.067 -0.2968 -0.2978 -0.1285
35012W        W78003  23.167  13.576  18.728 -0.2360  0.1010  0.2995
35013W        W78004  14.009  29.628  23.776  0.4334 -0.1637 -0.2206
35014W        W78005   0.910  30.035   1.567  0.1163  0.0668  0.1634
35015W        W78006  33.726  30.730  24.967 -0.1430 -0.0018 -0.1576
35016W        W78007   6.019   0.767  22.265 -0.1356 -0.0834 -0.1687
35017W        W78008  26.280   9.453  19.782  0.2100 -0.0383 -0.0631
35018W        W78009  15.571  31.444   6.839 -0.1666  0.1794 -0.0244
35019W        W78010   1.080  32.812  20.244  0.0750  0.0933  0.2293
35020W        W78011   3.593   5.439   9.417  0.0815  0.0493  0.2202
35021W        W78012  34.495  28.016  21.961  0.0784 -0.0282  0.0356
35022W        W78013   6.463   5.347  15.350 -0.0467 -0.0924 -0.0314
35023W        W78014  32.681   7.157  24.856  0.0453  0.1692 -0.5220
35024W        W78015   2.077  10.750  19.882  0.1248  0.2879 -0.0457
35025W        W78016  14.315  32.954   6.654  0.0541 -0.4183 -0.0824
35026W        W78017   8.060  30.102  16.461 -0.2833  0.0092 -0.2247
35027W        W78018  10.843  18.762  25.850  0.0137 -0.3784 -0.3011
35028W        W78019  11.956  34.490   3.570 -0.2733  0.1345 -0.1802
35029W        W78020  10.054   4.147  16.351  0.0295  0.1641 -0.0212
35030W        W78021   9.265   5.917  23.079  0.1654  0.1245  0.0927
35031W        W78022   7.832  33.163  17.436  0.2320 -0.1686  0.0002
35032W        W78023  23.776  33.364  15.464 -0.1446 -0.2318  0.2078
35033W        W78024   4.157  19.503  20.104 -0.1434 -0.0403 -0.0907
35034W        W78025  32.025  23.663  18.044  0.0077  0.0527  0.1804
35035W        W78026  11.898  32.003   7.773 -0.1891  0.0321 -0.1445
35036W        W78027  29.067   7.388  17.055  0.2246  0.0402 -0.0790
35037W        W78028  30.218   2.586  27.351 -0.1973  0.1921  0.5275
35038W        W78029   9.048  33.961  26.374 -0.3239  0.2579 -0.3440
35039W        W78030   9.906  25.522  20.930  0.1137  0.1230  0.1077
35040W        W78031  12.381   6.198  22.545 -0.1841  0.1850 -0.4175
35041W        W78032   1.978   0.294  16.019  0.2206  0.1212  0.0881
35042W        W78033   3.164  27.294  20.839  0.0403  0.1154 -0.0629
35043W        W78034   6.685  33.619  28.264 -0.1222 -0.0404 -0.1526
35044W        W78035   9.999  26.363  20.226  0.2614  0.0435 -0.2345
35045W        W78036  23.317   1.706  25.449  0.2913  0.0451  0.1195
35046W        W78037   1.113  26.550  19.824  0.0850  0.0338  0.0235
35047W        W78038  13.780   9.948  27.424  0.1334 -0.0666  0.0447
35048W        W78039  11.966  31.445  28.936  0.0023  0.1365 -0.0480
35049W        W78040   6.086  24.919  13.540 -0.0718  0.0424 -0.0116
35050W        W78041   1.167   5.396  20.310  0.4055  0.2061 -0.0239
35051W        W78042  23.947  32.589  17.401 -0.1552  0.1325 -0.0858
35052W        W78043  22.683  24.994  23.240 -0.1747  0.1295  0.1946
35053W        W78044  11.836  12.944  26.471 -0.0862  0.0412 -0.3259
35054W        W78045   6.918  13.485  16.608  0.1670  0.0942 -0.1677
35055W        W78046  32.650   0.741  26.625  0.3596 -0.0412  0.1920
35056W        W78047  18.015  22.923  12.563  0.2968 -0.0928  0.1779
35057W        W78048  32.775   1.476   4.454  0.0930  0.0841  0.0233
35058W        W78049   3.804  25.930  18.749 -0.1357  0.0426  0.2921
35059W        W78050   7.098   5.259  17.012 -0.0318  0.1517  0.1308
35060W        W78051   4.663   5.746   1.032  0.2582  0.3260 -0.2005
35061W        W78052   1.971   5.074  20.458  0.1889  0.3809 -0.2711
35062W        W78053  33.282   1.011  26.058  0.1121 -0.2879 -0.2896
35063W        W78054   7.807  26.096  20.267  0.1587  0.2450 -0.0932
35064W        W78055  22.999  31.696  12.854 -0.0082 -0.0550  0.1602
35065W        W78056  10.349  25.542  20.640  0.1369 -0.1829  0.3059
35066W        W78057  33.774  18.324  21.265 -0.1188  0.1502  0.0283
35067W        W78058   7.830   6.607  24.206  0.3506 -0.0758 -0.0711
35068W        W78059   5.130  11.095  18.703  0.2073  0.1409  0.0097
35069W        W78060  21.221  24.419  26.301  0.0412 -0.1308 -0.1020
35070W        W78061  21.400  11.869  17.568  0.0791  0.0884 -0.1086
35071W        W78062  19.442   6.185  13.839  0.0016 -0.0904  0.1254
35072W        W78063  10.049   8.062   3.774 -0.0047 -0.2007  0.0317
35073W        W78064   0.887   7.452  15.720  0.0736 -0.0603 -0.2813
35074W        W78065   1.835  31.145  24.726 -0.2078  0.1263  0.0885
35075W        W78066  29.112  30.796  16.132  0.0198  0.3773  0.1799
35076W        W78067  19.494  13.266  15.144 -0.2359  0.3411  0.0334
35077W        W78068   2.435   5.199  25.706 -0.0957 -0.2701 -0.4881
35078W        W78069   2.841  34.486   5.229 -0.1928  0.0141  0.0616
35079W        W78070   2.621   6.702  23.760  0.0787 -0.1211 -0.1768
35080W        W78071  32.318   6.921  25.113 -0.0586 -0.0735 -0.1245
35081W        W78072   5.323  34.041  23.759  0.1536 -0.0020 -0.1371
35082W        W78073   7.337  31.411  16.203 -0.0324 -0.3216 -0.2801
35083W        W78074  27.282  33.907  18.401 -0.1187 -0.0127 -0.3955
35084W        W78075  16.962  32.569  17.820 -0.3438  0.0224 -0.1964
35085W        W78076  31.932  28.295  27.221  0.2445 -0.3236 -0.0381
35086W        W78077  17.664  21.760  18.057 -0.1218 -0.0921 -0.3646
35087W        W78078   7.824  30.645  15.798  0.3232  0.1205 -0.3033
35088W        W78079   5.168   4.594  27.254 -0.1207 -0.0298  0.2298
35089W        W78080  27.938  14.140  19.805  0.3898  0.2753  0.2528
35090W        W78081   3.417  27.427  18.149  0.1761 -0.0045 -0.1972
35091W        W78082  16.220   1.878  19.738  0.3263 -0.0156  0.0096
35092W        W78083   2.724   1.916  23.750 -0.0141  0.2389  0.1977
35093W        W78084  17.921  10.758   9.048  0.0487 -0.1588  0.0228
35094W        W78085  28.890  23.772  15.335 -0.1869 -0.0048  0.0091
35095W        W78086  21.421  32.299  27.449  0.1520 -0.1209  0.1058
35096W        W78087   5.283   1.124   3.653 -0.1132  0.1236 -0.0619
35097W        W78088  11.557  12.395  16.496  0.0896  0.0446  0.1507
35098W        W78089   0.950  20.180  26.512 -0.2021  0.1164  0.0499
35099W        W78090  29.916  24.013  24.250  0.2368 -0.0490 -0.1861
35100W        W78091  17.595   5.252  22.288  0.2725  0.1989  0.1917
35101W        W78092  19.296  28.057   2.329 -0.1977  0.2090  0.1673
35102W        W78093  16.061  30.900  28.066  0.0345 -0.1493 -0.0436
35103W        W78094   1.282   1.669  26.511  0.1491 -0.1666 -0.0837
35104W        W78095  11.630  21.281  22.515 -0.0105 -0.0341  0.2514
35105W        W78096  29.558   7.754   1.313  0.0266 -0.0352  0.1196
35106W        W78097   5.662  11.439  20.904 -0.0630  0.1283  0.1821
35107W        W78098  29.156  16.340  23.449 -0.4428 -0.0959  0.1972
35108W        W78099  11.225   4.259  15.132  0.1991  0.1554  0.0559
35109W        W78100  18.671   1.693   0.214  0.2809 -0.0401  0.1031
35110W        W78101   9.124   3.833  17.508 -0.1189 -0.2174 -0.1546
35111W        W78102   5.096   0.385  21.736  0.3592 -0.3598  0.1287
35112W        W78103  29.465   8.137   9.930  0.0471  0.0869 -0.0576
35113W        W78104  33.960   7.760  20.134 -0.0582 -0.3322 -0.0102
35114W        W78105   9.380  10.719   6.796 -0.0806 -0.0368  0.0916
35115W        W78106   6.092  31.987  18.303 -0.0128 -0.0868 -0.0180
35116W        W78107  19.247   6.942   4.938 -0.1217  0.1256  0.1510
35117W        W78108   1.346   6.721  17.989  0.1566 -0.0203 -0.2733
35118W        W78109  19.821  27.243  17.511  0.0195 -0.0709  0.2703
35119W        W78110  16.711   1.882  19.889 -0.1870  0.0266 -0.0552
35120W        W78111   6.434  34.056   2.201  0.2801 -0.1745 -0.1031
35121W        W78112  30.255   8.178  25.696  0.2699  0.1369  0.1911
35122W        W78113  18.505   5.442  15.591  0.0760  0.0538 -0.3661
35123W        W78114  33.144  24.979  18.907 -0.0085 -0.0490 -0.1957
35124W        W78115   6.182  30.309  17.558  0.1349 -0.0810 -0.2381
35125W        W78116  24.508  11.668  29.032 -0.1149  0.0468  0.1528
35126W        W78117   8.560   9.252   0.124 -0.3882 -0.0019 -0.0571
35127W        W78118   8.757  18.917  18.427 -0.0420  0.2426  0.0186
35128W        W78119  34.467  21.067  18.486  0.1450  0.1049 -0.0262
35129W        W78120  15.145  18.010  13.244 -0.0122 -0.1531 -0.0648
35130W        W78121   6.440   6.665  21.321  0.0036  0.2056  0.1653
35131W        W78122   8.147   0.555  19.363 -0.2061 -0.1009  0.0156
35132W        W78123  28.664  34.329  16.062 -0.1188  0.0240 -0.1523
35133W        W78124   5.620  13.457   2.470 -0.2497  0.0363  0.1056
35134W        W78125  16.537  22.116  14.774  0.1288 -0.0192  0.0371
35135W        W78126  11.381   1.521  23.288 -0.0776  0.0442  0.0287
35136W        W78127   0.368  23.599  20.088 -0.3804 -0.0470 -0.3212
35137W        W78128  18.330  34.380  18.663  0.1563 -0.0031 -0.0728
35138W        W78129  20.842  24.049  14.245 -0.1348 -0.4193  0.0447
35139W        W78130  18.371   2.800  28.124 -0.2188  0.0165  0.0309
35140W        W78131  13.707   2.433   3.573 -0.1864 -0.0178  0.0458
35141W        W78132  12.753  30.096  14.506  0.3001  0.0550 -0.0024
35142W        W78133   8.396   7.976  16.959  0.1850  0.0016  0.0555
35143W        W78134  31.925  16.883  24.237 -0.3938 -0.1033 -0.2163
35144W        W78135   6.027  28.679  15.979 -0.0496  0.0108  0.1644
35145W        W78136  26.567  24.944  15.724  0.0125 -0.0586  0.1064
35146W        W78137   0.529   9.884  16.505 -0.0181  0.2782 -0.0542
35147W        W78138  33.695   1.978  26.811 -0.2298 -0.1016 -0.0192
35148W        W78139   8.175  33.244  23.425 -0.0923 -0.1358 -0.2256
35149W        W78140   7.225   6.202  17.857 -0.0892 -0.0848  0.2630
35150W        W78141  18.035  32.908  24.808 -0.1243  0.0143  0.1142
35151W        W78142  12.925  21.742  20.557  0.2230 -0.1104 -0.1781
35152W        W78143   3.831  13.444  26.059  0.1239 -0.3803 -0.1325
35153W        W78144  15.705   0.096  16.138  0.1190  0.2414 -0.2171
35154W        W78145  21.552  19.767  19.034  0.0230  0.0161  0.0869
35155W        W78146   8.881   3.511  16.150  0.1609 -0.2953 -0.1499
35156W        W78147  28.753  16.479  15.327  0.3086 -0.2378 -0.0093
35157W        W78148  34.439   9.476  19.532  0.1064  0.1413 -0.1529
35158W        W78149  12.192  24.712  17.919 -0.1945  0.1880  0.1303
35159W        W78150  26.202  31.798  16.032  0.2272 -0.8210 -0.2167
35160W        W78151  16.610  30.810  19.771  0.1936 -0.1807  0.0954
35161W        W78152   9.837  30.140  18.001  0.0683 -0.0686 -0.0657
35162W        W78153   8.845  11.196  24.522 -0.3025 -0.2476  0.0467
35163W        W78154  16.295  27.521  13.574  0.2262  0.0395 -0.2734
35164W        W78155  33.162   0.021  26.450 -0.0628 -0.0071 -0.2486
35165W        W78156  32.296   7.389   2.626  0.0026  0.2897  0.3239
35166W        W78157  15.944  12.245  16.222  0.0185 -0.2718 -0.2409
35167W        W78158   5.086  16.018  20.332  0.0321 -0.1362  0.1410
35168W        W78159  31.260   0.001  19.859  0.2648  0.2560  0.5213
35169W        W78160   4.923  24.322  20.199  0.0424  0.1262  0.2495
35170W        W78161   3.647   1.059  17.316 -0.0800  0.0669 -0.0800
35171W        W78162  28.837   1.905  24.417  0.1449  0.4110 -0.2074
35172W        W78163   7.989   2.837  16.266  0.1482 -0.0382  0.0573
35173W        W78164  11.096  18.011  20.030  0.0009  0.0034 -0.0247
35174W        W78165   9.123   3.028  15.067  0.0181 -0.0136 -0.0818
35175W        W78166  21.494   1.391  18.578 -0.1844  0.1533  0.0159
35176W        W78167   1.173  29.208   6.070  0.1513  0.1997  0.1031
35177W        W78168   1.448  32.984  17.958  0.2458 -0.1929  0.2527
35178W        W78169   7.119   6.425  14.408  0.0270 -0.0861 -0.1592
35179W        W78170  11.751  21.446  22.974  0.0962  0.2933 -0.2360
35180W        W78171   5.225  17.442   6.978 -0.0066 -0.3140 -0.0906
35181W        W78172  11.664   4.367  28.270  0.2801  0.2079 -0.1939
35182W        W78173   5.490   1.582   9.043 -0.0748  0.1593  0.0063
35183W        W78174  10.315  12.295  17.520 -0.3611  0.2628 -0.1649
35184W        W78175   3.093   5.313  19.538 -0.2327  0.0978 -0.2700
35185W        W78176  17.843   4.304  27.457  0.0245 -0.2436 -0.1000
35186W        W78177  22.116  23.663  20.350  0.1570  0.2162 -0.3208
35187W        W78178  16.350  33.573   9.212 -0.0235  0.2324  0.0333
35188W        W78179  32.819   3.710  17.106  0.1425  0.3988  0.0404
35189W        W78180  10.562  32.991   1.411 -0.0670  0.2402  0.1610
35190W        W78181   2.828  27.147  16.054  0.3514 -0.0366 -0.1127
35191W        W78182   6.483  26.863  24.489  0.2671  0.2119  0.0342
35192W        W78183   9.920  26.445  21.095 -0.3951  0.4812  0.3022
35193W        W78184  17.330  22.827  17.081 -0.0693 -0.1072 -0.3566
35194W        W78185  18.496   1.101  28.246 -0.1198 -0.3612 -0.1834
35195W        W78186  34.771  14.161  16.727 -0.0515  0.2730 -0.1724
35196W        W78187  32.659   4.367   0.149 -0.1311  0.2732  0.0465
35197W        W78188  14.185  18.494  14.994  0.0348 -0.0006  0.1644
35198W        W78189  30.094  16.934  19.879  0.2292  0.0458  0.4864
35199W        W78190  28.991  16.101  20.719  0.0149  0.1722 -0.0530
35200W        W78191   3.845   4.970  24.086  0.1532 -0.0209  0.0074
35201W        W78192  24.851  28.625  22.728  0.0245 -0.0121  0.3962
35202W        W78193  22.282   6.038  17.329 -0.1070 -0.0874  0.1488
35203W        W78194  33.181  33.369  23.514 -0.1559  0.1594  0.2292
35204W        W78195   4.332  32.448  20.004 -0.2152 -0.2241 -0.0658
35205W        W78196  20.821  34.784  13.705  0.0447 -0.2883  0.1907
35206W        W78197  11.983  25.317  26.838  0.3214  0.0681  0.2979
35207W        W78198  30.747  27.328  22.396 -0.1276  0.4099 -0.2146
35208W        W78199   7.182  25.571  14.935 -0.2154  0.1918 -0.2270
35209W        W78200   8.359   0.302  27.528 -0.2279 -0.4552 -0.1355
35210W        W78201   3.833  28.929  22.125 -0.0437 -0.1513 -0.0133
35211W        W78202  34.687   0.026  28.669 -0.1854  0.0265 -0.3684
35212W        W78203  34.739   3.221  17.249  0.1962  0.0427  0.0759
35213W        W78204  31.963   7.772  16.103  0.0014 -0.3931 -0.1788
35214W        W78205   3.974  31.063  15.878  0.3856 -0.1168 -0.2504
35215W        W78206  34.247  27.959  21.423  0.0557 -0.2902  0.2041
35216W        W78207   5.778   3.644  16.338  0.1366  0.1871  0.3876
35217W        W78208  18.671  31.334  26.215 -0.1029 -0.1417 -0.1288
35218W        W78209   5.021  34.098   0.071 -0.2158 -0.1542  0.0927
35219W        W78210   2.829  32.244  23.879 -0.0914  0.1773 -0.0160
35220W        W78211  30.529  32.358  21.658  0.0547 -0.0310  0.1453
35221W        W78212   9.993  32.378  25.705 -0.6201  0.0143  0.0433
35222W        W78213  13.953  20.764  19.607  0.4498  0.1098 -0.3049
35223W        W78214  20.068  33.089  19.596 -0.1392 -0.0659 -0.0843
35224W        W78215  30.055  14.936  23.857  0.0935  0.0973 -0.5007
35225W        W78216   0.315   1.428  25.225  0.0921  0.2187 -0.3197
35226W        W78217   7.059   2.853   4.587  0.1199 -0.0360  0.1997
35227W        W78218   5.927   1.390   5.070 -0.1759 -0.2553 -0.0007
35228W        W78219  11.813   7.402  16.317 -0.1885 -0.2769  0.2364
35229W        W78220  12.358  27.236  23.840 -0.3055 -0.0041  0.1408
35230W        W78221  12.130  17.710  22.268 -0.3300 -0.0331  0.4182
35231W        W78222   7.516   4.737  14.329  0.1465  0.3005 -0.2083
35232W        W78223   5.828   8.476  21.713  0.0091 -0.2010 -0.2491
35233W        W78224  30.247   1.284   3.368  0.0373  0.3782 -0.1322
35234W        W78225   0.602   1.250   2.910  0.1207 -0.0264  0.0877
35235W        W78226  17.053  26.165  15.493  0.3444 -0.0193  0.1307
35236W        W78227   0.308  30.689   8.083  0.0085 -0.1978 -0.0915
35237W        W78228   1.144  10.655  15.820  0.1681  0.0945 -0.1901
35238W        W78229  10.373  17.412  19.882 -0.3027 -0.1205 -0.2856
35239W        W78230  30.237  14.160  27.740 -0.1999 -0.2380 -0.0531
35240W        W78231   0.803   5.256  26.106 -0.0463 -0.1638  0.4027
35241W        W78232   3.268  17.152  10.189  0.2478  0.3491 -0.1205
35242W        W78233   4.805  11.996  18.621 -0.0242 -0.5429  0.2774
35243W        W78234  18.348  30.747  14.131 -0.0035 -0.0756 -0.2449
35244W        W78235  31.202   0.447  24.531  0.0567 -0.1682  0.1675
35245W        W78236   2.234  22.712  14.727  0.2267 -0.0507  0.2230
35246W        W78237  12.167   2.883  18.673  0.2005 -0.1055 -0.3120
35247W        W78238  12.652  26.032  15.082 -0.0583 -0.2422 -0.0133
35248W        W78239  13.147  30.446  15.469 -0.0569  0.0804 -0.1364
35249W        W78240   7.933  17.620  24.045  0.1371  0.2734  0.2759
35250W        W78241   7.159   7.279  20.285  0.2446 -0.1649  0.4928
35251W        W78242  23.642   4.102  12.691 -0.1283  0.0899  0.1639
35252W        W78243   3.290  25.295  24.334  0.1638  0.2838  0.0851
35253W        W78244  29.928   0.008  13.957  0.0935  0.1632 -0.3000
35254W        W78245   4.653  25.916  16.560  0.1340 -0.0075 -0.0245
35255W        W78246   5.827   7.353  11.218  0.0894  0.3672  0.2177
35256W        W78247   7.717  29.085  24.084  0.2144  0.5160  0.0739
35257W        W78248  18.640   0.234  19.250 -0.0932  0.2488 -0.0980
35258W        W78249   3.785  27.042  26.212 -0.0608 -0.0559 -0.1136
35259W        W78250  14.746  27.615  24.023 -0.1354  0.0516 -0.0954
35260W        W78251  32.875  30.446   2.101  0.2361  0.4165 -0.0673
35261W        W78252   8.897   5.993  16.002 -0.1156  0.3646  0.2952
35262W        W78253  24.350   0.727  22.404 -0.1719 -0.1605 -0.1641
35263W        W78254  21.024  31.962  18.833 -0.0306 -0.2462  0.0268
35264W        W78255   5.305   4.498  18.357  0.0594 -0.2827  0.1687
35265W        W78256  34.251  30.007  16.262  0.1175 -0.2885 -0.0539
35266W        W78257  15.721  31.940  23.713  0.0433  0.0973 -0.1560
35267W        W78258   4.796   2.282  18.971 -0.1730  0.0062  0.1671
35268W        W78259   9.825   3.221  18.110 -0.1756 -0.2336  0.1289
35269W        W78260   0.911  15.918  21.161  0.2820  0.1452 -0.0719
35270W        W78261  22.455   7.732  14.026 -0.1796 -0.1038  0.0924
35271W        W78262  21.010  26.190  23.582 -0.1928  0.1098  0.0199
35272W        W78263  11.825  29.396   6.571  0.0331 -0.0360 -0.1843
35273W        W78264   2.904  34.110  26.365 -0.2173  0.3474 -0.3228
35274W        W78265  32.633  31.980  16.981 -0.2886 -0.1919 -0.1322
35275W        W78266   3.955   5.924  21.246 -0.0093  0.0233 -0.1550
35276W        W78267  29.905  10.607  14.330  0.0546  0.2485  0.1124
35277W        W78268   1.388  33.188  18.417 -0.1195  0.0660 -0.1171
35278W        W78269  30.157  10.381  21.619 -0.0653 -0.0942 -0.1192
35279W        W78270   5.071  34.136   2.356 -0.1689  0.0373  0.0780
35280W        W78271   9.411  12.709   3.525  0.0850  0.0122 -0.1742
35281W        W78272   7.308  28.898  17.492  0.0030  0.1577  0.0637
35282W        W78273  22.688   5.528  26.332  0.2090  0.0639  0.0086
35283W        W78274  25.371   5.388  23.721  0.0857  0.0174 -0.4242
35284W        W78275   9.454  15.284  22.426  0.0609  0.1703  0.2516
35285W        W78276   3.780   3.239  20.321  0.1743  0.3368  0.0142
35286W        W78277   4.387  30.638  18.163 -0.3487 -0.2788  0.1222
35287W        W78278  19.273  32.368   3.184 -0.1066 -0.1839  0.1253
35288W        W78279   5.615   2.672  16.045 -0.2424  0.0245  0.0079
35289W        W78280  32.814  33.396  16.093  0.3077 -0.2882  0.0316
35290W        W78281   2.511  24.364   0.176  0.4545  0.0115 -0.2375
35291W        W78282   5.744  13.695  23.526  0.1779 -0.3261  0.0949
35292W        W78283   5.785  23.722  16.641 -0.0350 -0.2027 -0.2736
35293W        W78284   8.411  27.954  18.145 -0.0065  0.3315  0.2279
35294W        W78285   9.759  31.157  14.386  0.0513 -0.0679  0.4047
35295W        W78286  24.601   1.336  23.863  0.2579  0.1751 -0.1714
35296W        W78287   9.618   3.111  17.258 -0.0571 -0.1607  0.2117
35297W        W78288  16.936   5.624  15.315 -0.2135  0.5649 -0.0321
35298W        W78289   8.973  24.645  22.353 -0.0724 -0.0265  0.0507
35299W        W78290   0.674  20.363  23.961  0.0537 -0.3217  0.2709
35300W        W78291  18.401  20.211  22.027 -0.1850  0.0133 -0.1193
35301W        W78292  17.114  29.467  25.908 -0.1470 -0.0497 -0.0637
35302W        W78293  26.700   5.582  22.769 -0.0155 -0.0453 -0.0745
35303W        W78294  26.802   3.411  15.561  0.0508  0.3564  0.1686
35304W        W78295  32.521  33.789  18.836 -0.2449 -0.0086 -0.3035
35305W        W78296   6.704   0.947   2.802 -0.2333  0.0010  0.0168
35306W        W78297  13.599  21.149  21.990 -0.2561  0.2082  0.2846
35307W        W78298   4.170  29.298  18.774  0.0624  0.0722 -0.1181
35308W        W78299  19.364  24.300  25.509  0.2966 -0.5112 -0.1200
35309W        W78300   0.998   7.894  21.332 -0.1950  0.3093  0.0533
35310W        W78301  10.247   1.658  18.504 -0.1420  0.2112  0.2495
35311W        W78302   2.655   4.907  17.368  0.1336 -0.1856  0.2272
35312W        W78303  11.651  34.135   6.357  0.1427  0.0326 -0.0246
35313W        W78304   7.319   9.252  17.506 -0.1182 -0.0627 -0.0086
35314W        W78305   3.086  19.375  17.160 -0.0414 -0.1473  0.0969
35315W        W78306   8.110   8.826  26.446 -0.1572 -0.3093  0.1552
35316W        W78307  23.346   5.334  22.884  0.2475  0.0300  0.0754
35317W        W78308  33.397   9.698  15.209 -0.2050  0.1853  0.0326
35318W        W78309  19.383  29.148  16.909 -0.1438 -0.0273  0.1449
35319W        W78310  24.130  32.678   7.126  0.3016  0.2399  0.2132
35320W        W78311  17.107  28.288  15.599 -0.1470 -0.1193  0.2800
35321W        W78312  15.468  28.681   4.463  0.2941 -0.0509 -0.0343
35322W        W78313  23.983  33.685  15.012 -0.1175 -0.3350 -0.1402
35323W        W78314   9.639  22.410  26.409  0.0380 -0.5189  0.0973
35324W        W78315  32.250   8.190   7.223 -0.4572  0.0819 -0.2566
35325W        W78316   2.380  26.297  28.593 -0.0165 -0.1531  0.2058
35326W        W78317  28.806  13.361  21.743  0.0735 -0.0853 -0.0454
35327W        W78318  15.675  12.048   6.154  0.2472 -0.5011  0.1499
35328W        W78319   4.074  24.908  22.735  0.0610  0.0257  0.1221
35329W        W78320  33.688   4.865  24.730  0.1701  0.1556 -0.0952
35330W        W78321  33.358  28.421   1.822  0.1586 -0.0196 -0.3226
35331W        W78322  27.295  34.668  21.333  0.1395  0.0463  0.0165
35332W        W78323   1.740  17.711  24.373  0.0456 -0.2065  0.1820
35333W        W78324  19.111   8.390  14.431 -0.1829  0.1503  0.1162
35334W        W78325  34.635  27.425   4.933 -0.0674  0.0881 -0.0155
35335W        W78326   4.894  26.934  25.415 -0.1237  0.1259  0.0540
35336W        W78327  18.931  20.967  19.598  0.1974 -0.0439 -0.0845
35337W        W78328  14.078  26.603  14.849 -0.1025 -0.0851 -0.2576
35338W        W78329  13.733   9.267  28.956 -0.0274 -0.0952 -0.1181
35339W        W78330  17.825  27.514  20.508 -0.0024 -0.0160 -0.3543
35340W        W78331   8.222  17.142  17.762 -0.0152  0.1411 -0.0021
35341W        W78332  23.864  32.926   9.282  0.3269  0.0360  0.0201
35342W        W78333  11.898  32.331  16.032 -0.2584 -0.2290 -0.0643
35343W        W78334  22.074  24.465  21.878  0.0415 -0.1409 -0.1531
35344W        W78335  17.362  19.526  15.830 -0.1920  0.2197 -0.4328
35345W        W78336  21.137   2.186   6.388  0.0335  0.0560  0.0333
35346W        W78337   1.218   5.353  25.616  0.0169 -0.2490  0.2033
35347W        W78338  17.576  23.690   4.607 -0.5036 -0.3256 -0.0009
35348W        W78339  10.185   0.358  28.049  0.1675 -0.3638  0.1316
35349W        W78340   8.695  26.206  15.167  0.0843 -0.1051 -0.1752
35350W        W78341  29.375   3.319  18.277  0.2018 -0.2593  0.1017
35351W        W78342   3.071   9.177  17.331  0.0219  0.0052 -0.0032
35352W        W78343  12.204  29.110   6.609 -0.1445  0.1340  0.1348
35353W        W78344   9.886   6.483  26.818  0.1147  0.2296  0.2294
35354W        W78345  16.877  32.316   0.253  0.0020  0.1916 -0.0245
35355W        W78346   1.700   7.644  16.313  0.0146 -0.0133  0.1602
35356W        W78347  11.166  23.256  19.221 -0.1932 -0.1468 -0.1627
35357W        W78348  15.693   0.902  15.266  0.1142  0.2460  0.0160
35358W        W78349  12.752   5.081  26.234 -0.2697 -0.4413  0.2578
35359W        W78350  14.244  34.408  16.101  0.0548 -0.3962 -0.2937
35360W        W78351   0.708   1.977  14.670 -0.0485 -0.2093  0.2427
35361W        W78352  17.729   8.035   1.471 -0.0205  0.2678 -0.2952
35362W        W78353  29.909   4.927  15.770 -0.1233 -0.1612  0.0649
35363W        W78354   9.116   5.863  18.448 -0.0974 -0.0233 -0.3181
35364W        W78355   1.022  25.646  14.141  0.1132  0.6234 -0.3242
35365W        W78356  15.993  31.332  14.960  0.2249  0.0501  0.2288
35366W        W78357  20.788  23.199  20.901 -0.0422 -0.1164  0.3257
35367W        W78358  28.693   8.996  22.375  0.1487 -0.1794  0.2947
35368W        W78359  19.966   5.219  16.921  0.1117  0.1871  0.0791
35369W        W78360  32.769  29.857  25.999 -0.3121  0.0557  0.0481
35370W        W78361  13.804  21.847  15.100 -0.4136  0.0023 -0.0761
35371W        W78362  26.459  29.001   0.706  0.1745 -0.1119  0.0565
35372W        W78363   9.967   6.245  18.942  0.1504 -0.3431 -0.0457
35373W        W78364   2.276   4.458  21.156 -0.0261  0.1280 -0.1534
35374W        W78365  10.398   0.918  22.834  0.4893  0.3043  0.3846
35375W        W78366  34.277  24.042  23.518  0.0014 -0.1918  0.1715
35376W        W78367  29.887  32.597  16.809  0.1676  0.0226  0.1170
35377W        W78368  32.714  30.332  27.529  0.1543 -0.2503  0.0607
35378W        W78369   1.032  30.584   2.746 -0.1168 -0.0546  0.2136
35379W        W78370   3.932   3.612  22.856  0.0403  0.0285  0.1741
35380W        W78371  21.698  29.826  26.580  0.1059  0.5145 -0.0294
35381W        W78372  15.303  20.111  20.556 -0.3498 -0.1167 -0.0504
35382W        W78373   3.456   1.644  24.962  0.1414 -0.0965  0.2282
35383W        W78374  30.814  31.478  20.149 -0.0700  0.3666 -0.0515
35384W        W78375   4.144   2.133  15.466 -0.1455  0.0842  0.1673
35385W        W78376  11.051  29.564  16.828  0.0856  0.1734 -0.1767
35386W        W78377  23.420  30.756  23.599 -0.3691 -0.1036  0.0820
35387W        W78378   3.022  26.124  19.370 -0.0793 -0.1031  0.1621
35388W        W78379   5.727  29.795  19.350  0.0698  0.0315 -0.2037
35389W        W78380   5.655  22.480   1.835  0.2280  0.0136  0.1482
35390W        W78381   5.082   9.080  21.136  0.0046 -0.0548 -0.0803
35391W        W78382  18.252  26.356  15.396  0.0862  0.2304 -0.0053
35392W        W78383  33.898  23.424   3.504  0.0691 -0.4588  0.2876
35393W        W78384  25.320  25.911   0.822  0.4917  0.2700 -0.2295
35394W        W78385  12.045  30.840  22.799 -0.2958 -0.1389  0.0525
35395W        W78386   0.836   2.835  19.262 -0.1711  0.2777 -0.3481
35396W        W78387   2.709  28.883  26.649 -0.3118 -0.2671 -0.0583
35397W        W78388   8.063   3.804  20.096  0.3439 -0.1825 -0.1728
35398W        W78389   0.193  25.390   9.934  0.0222 -0.1063  0.0714
35399W        W78390   6.752  28.445  25.428 -0.0011  0.0553 -0.2503
35400W        W78391  20.180   1.650  25.867  0.0833  0.1329  0.0864
35401W        W78392   4.375   0.052  16.704  0.1431 -0.0719  0.1346
35402W        W78393  33.406  24.706   2.037 -0.0603 -0.1489  0.0649
35403W        W78394  11.540  11.509   0.288 -0.0882 -0.1989 -0.0923
35404W        W78395  14.724   7.449  24.501 -0.0717 -0.1182 -0.1731
35405W        W78396  24.920  14.733  16.155  0.1947 -0.0786  0.2546
35406W        W78397  31.063   7.952  28.025 -0.0642  0.5894  0.0218
35407W        W78398   5.578   5.070   2.392 -0.1285 -0.1217 -0.4309
35408W        W78399   4.527  13.698   7.289 -0.1115  0.0070 -0.0595
35409W        W78400   7.094  12.197  27.469 -0.1998 -0.1498  0.0876
35410W        W78401  13.919  19.520  13.042  0.0814  0.0992  0.0357
35411W        W78402  32.905   5.456  16.553 -0.0155 -0.2101  0.0993
35412W        W78403  12.757  10.463  17.232 -0.0262 -0.1618 -0.0533
35413W        W78404   5.894  26.050   0.331  0.3566  0.0313 -0.0453
35414W        W78405  27.279  33.447  19.987  0.1469  0.2039  0.2573
35415W        W78406  26.151  28.765  21.850  0.0066  0.1316  0.0142
35416W        W78407  34.503  12.453  23.150 -0.1417  0.1499 -0.2297
35417W        W78408   2.900   3.377  17.168  0.1266  0.0893  0.2542
35418W        W78409   6.777  22.073  27.754  0.1049  0.1358 -0.2147
35419W        W78410   3.478  18.970  16.344 -0.1210 -0.4032 -0.0252
35420W        W78411   3.494  30.097  23.127  0.0343 -0.0777 -0.1097
35421W        W78412  15.518   4.959  17.886 -0.2441  0.0455  0.0832
35422W        W78413  22.415  30.204  24.058 -0.3045 -0.2754 -0.0872
35423W        W78414  34.734   9.058  17.976  0.4076  0.1838 -0.3610
35424W        W78415  11.969  33.704  22.329 -0.2471  0.2881  0.1208
35425W        W78416   2.845  31.647  14.855  0.1175  0.1234 -0.0313
35426W        W78417   7.519   5.101   5.724  0.0916 -0.1450 -0.2035
35427W        W78418   7.657  26.643  15.711  0.1534 -0.1089 -0.2910
35428W        W78419  31.390  34.021  26.082  0.1992  0.1345  0.1543
35429W        W78420  28.983   0.731  28.025  0.0609 -0.0535 -0.0442
35430W        W78421   4.196  13.475  18.950 -0.0102  0.2629 -0.0850
35431W        W78422  17.416   4.880  24.661 -0.0220  0.0315 -0.2822
35432W        W78423  33.407  30.929  13.868  0.1531  0.0142  0.0721
35433W        W78424  32.859  10.111   7.391  0.1641  0.1079 -0.0312
35434W        W78425   2.250  32.468   4.624 -0.0078  0.0899 -0.0807
35435W        W78426  16.953  14.468   1.674 -0.0444  0.4008  0.1059
35436W        W78427  19.027  21.209  15.281 -0.2471 -0.1282 -0.0464
35437W        W78428  26.895   3.755   5.187 -0.1981  0.0275  0.2967
35438W        W78429  27.313  34.103  13.312 -0.0679  0.1758  0.3327
35439W        W78430  33.702   0.594  15.593 -0.0214 -0.0857  0.2230
35440W        W78431   6.487   5.502  25.703  0.2555  0.2626  0.1378
35441W        W78432  15.207   7.601  19.185  0.2883  0.2390  0.1274
35442W        W78433  33.807  29.947  15.569  0.0315  0.0853 -0.0974
35443W        W78434  23.015  18.052   5.624  0.2858 -0.0286 -0.1391
35444W        W78435   0.221  28.101   9.750  0.1298 -0.1458 -0.0788
35445W        W78436  10.153  32.920  21.313  0.0252  0.0237 -0.2287
35446W        W78437  29.234   8.674  15.534 -0.1361  0.1324  0.3181
35447W        W78438  32.455  27.345   0.659  0.0760 -0.6481  0.0138
35448W        W78439  18.370  23.208  19.332  0.2670 -0.3104  0.1933
35449W        W78440  14.086   5.437  10.809 -0.1093  0.1299 -0.0881
35450W        W78441   2.237  24.606  25.527  0.0156  0.1543  0.1035
35451W        W78442  18.803   3.714  28.707 -0.1422  0.1129 -0.0914
35452W        W78443   4.300  24.865   8.363 -0.3368  0.0127  0.3719
35453W        W78444  16.545  29.031  28.806  0.3078 -0.0962 -0.1932
35454W        W78445   2.951   1.108  22.849  0.0584 -0.1687  0.1453
35455W        W78446   5.479  30.068   0.643  0.0173 -0.0951 -0.0215
35456W        W78447   2.205  32.074  26.493 -0.0456  0.2301  0.2208
35457W        W78448  13.632  30.135  28.211  0.0217  0.0104  0.0532
35458W        W78449  34.709   0.726   6.345 -0.1496  0.1943 -0.1559
35459W        W78450  14.724   3.065   2.719 -0.2420  0.2783  0.3230
35460W        W78451  19.593  27.366   2.803 -0.1616  0.1864 -0.1290
35461W        W78452   2.591  30.198  27.693  0.3018  0.1822 -0.1468
35462W        W78453   8.776  27.670   6.987  0.0809  0.3091 -0.3045
35463W        W78454  11.285  31.076   3.716  0.0046  0.0786  0.1110
35464W        W78455  11.933  29.914   1.789 -0.1027  0.2043 -0.2394
35465W        W78456  13.051  15.502   0.088  0.1160  0.2391 -0.1969
35466W        W78457   6.269   0.497  16.560  0.1369  0.2565 -0.1536
35467W        W78458  20.512  20.371   0.627  0.0263 -0.2345  0.0356
35468W        W78459   7.767   4.221  28.067 -0.1532 -0.2066 -0.1816
35469W        W78460  21.905  18.892  21.049  0.3626  0.0521  0.3080
35470W        W78461  18.537  27.974  14.257 -0.0011 -0.0583 -0.1099
35471W        W78462  14.457  28.436  15.608  0.1028 -0.0820 -0.1238
35472W        W78463  12.833  30.316  21.195  0.1480  0.1391  0.0496
35473W        W78464   5.163   0.836  25.669  0.2505 -0.3761  0.1621
35474W        W78465   3.447  16.517  28.173 -0.0287 -0.0238  0.2233
35475W        W78466   5.094   0.071   0.594  0.0094 -0.1529 -0.0175
35476W        W78467  22.288  26.485  13.451  0.0666  0.0718  0.1482
35477W        W78468   2.317  24.570   2.640 -0.0760  0.1834  0.0134
35478W        W78469  13.628  32.177   7.492  0.1425 -0.3193 -0.2300
35479W        W78470   4.853  25.517  18.248  0.3220  0.1849 -0.3437
35480W        W78471   0.966  14.653  25.347 -0.3591  0.0179 -0.0461
35481W        W78472  33.724  24.596   7.867  0.0658 -0.0974 -0.0200
35482W        W78473  13.168  26.925  23.371 -0.1083 -0.1423 -0.1541
35483W        W78474   3.487   1.873  28.099  0.3586 -0.2864  0.1362
35484W        W78475   6.236  32.767  21.496 -0.0612 -0.0097 -0.2894
35485W        W78476  21.360   6.344  15.192 -0.4065 -0.1214 -0.2205
35486W        W78477  17.121  32.025  22.119 -0.0976  0.1311  0.1628
35487W        W78478   5.709  20.134   3.089 -0.1526  0.2056 -0.1610
35488W        W78479  34.631   5.592   5.897  0.1107 -0.0460 -0.0700
35489W        W78480   6.842  12.543   1.771 -0.0323 -0.0550  0.0056
35490W        W78481   4.456  32.759  22.134  0.0091 -0.0381  0.2665
35491W        W78482  14.272  30.297   5.594 -0.2252 -0.0709  0.1933
35492W        W78483  31.115   4.478  17.780  0.0428  0.0351  0.0506
35493W        W78484   3.928  22.699  26.757 -0.0590  0.1286 -0.2298
35494W        W78485  29.640  32.338  19.671 -0.0225  0.1746  0.1050
35495W        W78486  16.573   1.998  10.043 -0.0810  0.3496 -0.2562
35496W        W78487  30.646  11.588   1.170  0.3009  0.1836  0.1620
35497W        W78488  34.006   2.889  18.348 -0.0646  0.2854  0.2120
35498W        W78489   5.032  20.765  16.326 -0.2249 -0.1517 -0.2021
35499W        W78490   5.506  26.315   6.012  0.1318 -0.0724 -0.1397
35500W        W78491  26.219  29.510  22.935  0.2075 -0.1737 -0.2477
35501W        W78492   2.170  21.894  29.096 -0.2428 -0.0238 -0.0346
35502W        W78493  12.710   3.912   0.977  0.4995 -0.1368  0.1984
35503W        W78494  10.855   4.348   4.132  0.3355 -0.1601  0.1028
35504W        W78495  13.129   6.733  17.443 -0.1293 -0.2656 -0.1457
35505W        W78496  15.825  26.492  16.554 -0.1254 -0.0333  0.0446
35506W        W78497  21.919  26.047   5.643 -0.0220  0.2385  0.0159
35507W        W78498  24.714  27.920   7.711 -0.0301  0.2788 -0.2804
35508W        W78499  18.187  23.373  26.728  0.1937  0.1494 -0.0851
35509W        W78500  18.911   1.185  16.898  0.0478  0.0559 -0.2106
35510W        W78501   7.373  25.352   4.942  0.0046 -0.1311 -0.0756
35511W        W78502  27.065  29.664  12.925  0.1985  0.0174 -0.0986
35512W        W78503  32.827  13.352   4.433 -0.1057 -0.1602 -0.2398
35513W        W78504  16.651  23.569  22.901 -0.3666  0.2291 -0.2794
35514W        W78505   9.460  30.688  23.299 -0.0387  0.1078  0.0728
35515W        W78506   5.337   7.559   7.626 -0.0236  0.0757  0.0481
35516W        W78507   8.347  24.490   8.510  0.2996 -0.0235 -0.1550
35517W        W78508   0.512  28.089   1.840  0.0373 -0.2837 -0.3747
35518W        W78509   6.699   5.012  25.836  0.0063 -0.1400  0.0149
35519W        W78510  13.136  32.636   6.054 -0.0897  0.0527  0.2632
35520W        W78511   9.776  30.259   2.673 -0.2526  0.0763 -0.3255
35521W        W78512  18.610  31.660   4.572 -0.0697 -0.0919 -0.0650
35522W        W78513  25.217  19.856  16.465  0.0943 -0.0656  0.0899
35523W        W78514  13.388   0.864  14.357 -0.1003 -0.1455 -0.3348
35524W        W78515  18.031  28.749  18.174  0.0796  0.0060  0.4522
35525W        W78516   2.934   4.041  28.967 -0.4137  0.1695  0.2406
35526W        W78517  31.127  25.869  20.293 -0.2879  0.0849  0.2017
35527W        W78518  15.383   6.027  24.027  0.0737 -0.0736  0.0634
35528W        W78519  11.920  19.851  28.875 -0.1836  0.0733  0.2178
35529W        W78520   6.946   7.561  19.888 -0.4242 -0.0789  0.2900
35530W        W78521  27.035   3.905  13.786 -0.2057 -0.1343  0.0332
35531W        W78522  19.863   1.785  21.712  0.1750 -0.1952  0.0024
35532W        W78523   2.617   8.404  20.450  0.4356  0.0596  0.1273
35533W        W78524   8.180  15.543  21.506  0.0137 -0.0032  0.0750
35534W        W78525  13.571  29.061  19.733  0.0897 -0.2028 -0.3294
35535W        W78526  10.534  13.892  25.459  0.0023 -0.1637 -0.0255
35536W        W78527   2.412  31.072  22.418  0.2724  0.0924  0.4930
35537W        W78528  11.619  33.312  14.633 -0.1357 -0.0154  0.1189
35538W        W78529  29.150   0.266  27.420 -0.0223 -0.0884  0.2251
35539W        W78530  13.202  23.776  28.103 -0.0066 -0.2436 -0.0763
35540W        W78531  26.391  31.073   4.613  0.2584 -0.3050 -0.0052
35541W        W78532  19.292  23.012  24.533 -0.0230  0.1950  0.2658
35542W        W78533  11.767  30.529   1.992  0.2058  0.1656  0.0914
35543W        W78534   2.161  31.165   5.024  0.1873  0.3526 -0.0781
35544W        W78535   1.940  29.659   0.574  0.1900 -0.1435  0.0674
35545W        W78536  13.586   5.148   7.044 -0.0366  0.0244  0.2261
35546W        W78537   8.431  26.350  18.338  0.0917 -0.2710  0.0796
35547W        W78538  13.251   1.968   9.220 -0.0872 -0.2099 -0.0217
35548W        W78539  33.857   0.450  25.399 -0.0514  0.2632 -0.1803
35549W        W78540   7.312   5.811  20.194  0.0472 -0.0520  0.0099
35550W        W78541  29.006  33.626   3.768 -0.1035  0.0739 -0.0080
35551W        W78542   6.052  19.075  22.711 -0.0471 -0.0830 -0.0667
35552W        W78543   8.683  31.197   3.921  0.0471  0.3220  0.0870
35553W        W78544  28.313  28.771  22.638  0.0666 -0.2579  0.0727
35554W        W78545  15.688  33.075   2.006  0.1499 -0.0435 -0.0450
35555W        W78546  10.327   3.693   8.645 -0.0566 -0.1392 -0.1607
35556W        W78547   8.238   9.458   6.222 -0.0438 -0.2241 -0.0408
35557W        W78548   5.624  32.628   3.719  0.3243  0.0847 -0.1697
35558W        W78549  14.493  28.366  19.144  0.1608  0.1718  0.0631
35559W        W78550  34.790  23.657  21.497 -0.2610 -0.0455  0.0114
35560W        W78551  14.382  34.191   3.254 -0.4501 -0.0380  0.2282
35561W        W78552  12.322  18.844  21.009  0.0396 -0.0474  0.0878
35562W        W78553   5.266  12.159   3.265  0.2920 -0.0375 -0.2363
35563W        W78554  25.352   1.403  20.226  0.2113  0.1448 -0.2927
35564W        W78555  31.451  33.794   3.404 -0.0725  0.0704  0.1160
35565W        W78556  10.822  30.974   5.942 -0.1115  0.2761 -0.3333
35566W        W78557  28.906  25.836  13.741 -0.1213  0.0379  0.2068
35567W        W78558   9.956  25.727   2.324 -0.1602  0.2806  0.1258
35568W        W78559  29.778  32.767  23.577 -0.1141  0.0828  0.3802
35569W        W78560  15.490   3.586  15.998  0.1513 -0.0918  0.0292
35570W        W78561   6.738  25.213   2.285  0.2029  0.0751 -0.1481
35571W        W78562  28.559  16.837   3.594  0.0209 -0.0506 -0.0541
35572W        W78563   6.101  25.760  18.150 -0.2303 -0.0999  0.0133
35573W        W78564  31.040   1.264  15.241  0.1504 -0.0506 -0.1679
35574W        W78565  33.729  20.801   2.581 -0.2532  0.0162  0.2026
35575W        W78566  20.659   4.751   9.193  0.1172 -0.0348 -0.0604
35576W        W78567   3.303  12.140  29.150 -0.1514 -0.1108  0.1676
35577W        W78568  29.056   3.233   4.689 -0.4104  0.0963  0.1051
35578W        W78569  14.854   2.127  28.548 -0.1677  0.0579 -0.0717
35579W        W78570  14.726   9.993   0.662 -0.0256  0.0260 -0.3779
35580W        W78571   4.694  20.876   2.592 -0.0471  0.1856 -0.2500
35581W        W78572   6.317   1.973   4.376 -0.0192  0.1996 -0.0134
35582W        W78573  28.517  29.730  20.066 -0.3914 -0.0174 -0.0198
35583W        W78574   4.222  15.148  22.337  0.1969  0.0409  0.2931
35584W        W78575   5.520   0.377  18.976 -0.0010 -0.0420 -0.2083
35585W        W78576  15.439  10.723   8.120 -0.3897  0.1500 -0.2281
35586W        W78577  33.515  23.792  28.761  0.1641  0.0604 -0.1746
35587W        W78578  10.554  29.642  15.452 -0.1915 -0.3007  0.2872
35588W        W78579  10.289  22.580  20.042  0.0947  0.0488  0.0306
35589W        W78580  33.887  22.661   4.085  0.2570  0.0314 -0.2665
35590W        W78581   8.690  33.257   4.150  0.1801 -0.1612 -0.0600
35591W        W78582   0.541   6.642  25.684 -0.0214  0.2177 -0.1986
35592W        W78583   9.043   1.532  18.669 -0.1415  0.0214 -0.0080
35593W        W78584   6.014  22.941  27.430 -0.2400  0.1379  0.0942
35594W        W78585   8.026   5.644  23.823  0.2975 -0.4429 -0.0918
35595W        W78586   1.634  21.692   5.073 -0.3481 -0.4876  0.0304
35596W        W78587   1.684  34.649  21.281 -0.0601  0.1284 -0.0949
35597W        W78588   5.095  13.633  26.380  0.2767  0.0466  0.1387
35598W        W78589   1.555   4.434   0.317  0.1112 -0.2400  0.1027
35599W        W78590  11.666  30.091   5.016  0.0365 -0.0420 -0.0603
35600W        W78591  17.326   1.640  18.892  0.0496  0.1371  0.0387
35601W        W78592  15.076   4.362   6.518 -0.1030  0.1496 -0.2630
35602W        W78593   5.540  23.299  17.423 -0.2378  0.2407  0.2406
35603W        W78594   0.699  28.313  25.617  0.0102 -0.0045 -0.2378
35604W        W78595  34.564  32.797  20.503  0.1837  0.4538  0.1737
35605W        W78596   4.895   6.678  14.661  0.2377 -0.2636  0.0075
35606W        W78597  15.435  21.612   7.049  0.2374  0.0817  0.1430
35607W        W78598  20.731   2.301   1.274 -0.1394  0.0457 -0.4512
35608W        W78599  17.179  32.869  26.718  0.1545 -0.1190 -0.1485
35609W        W78600  18.724  11.291   2.415 -0.1840  0.2020  0.0295
35610W        W78601   7.125  17.288   7.534  0.1166  0.0544  0.0961
35611W        W78602  33.908   1.981   5.262 -0.1098 -0.1592  0.1927
35612W        W78603   5.987  29.647  22.468 -0.1555  0.0108  0.3788
35613W        W78604   7.818   4.412   6.474 -0.2851 -0.0716  0.0477
35614W        W78605   6.472  23.324   3.675  0.1238 -0.0511 -0.3246
35615W        W78606  18.193  24.913   2.103  0.3189 -0.0890 -0.0853
35616W        W78607   7.834  29.560   0.944 -0.1980  0.1367  0.0907
35617W        W78608   2.784  17.272  28.043  0.0973 -0.1233 -0.0744
35618W        W78609  18.518   6.308  15.565 -0.1173  0.3478 -0.2417
35619W        W78610   3.874  33.898  20.808  0.1798  0.2917 -0.2324
35620W        W78611   7.287  31.350   6.841 -0.2055  0.3630  0.3412
35621W        W78612  14.511  33.428   5.125  0.0146 -0.1790 -0.0629
35622W        W78613   7.913   6.529   4.888  0.2445  0.0651  0.0525
35623W        W78614  17.408  33.015   0.039 -0.0800  0.1259 -0.3469
35624W        W78615   8.252  32.380  23.374  0.0997 -0.1388 -0.0031
35625W        W78616   5.804  34.472  26.282 -0.2121  0.1067  0.1326
35626W        W78617  31.611  18.785  15.224 -0.0429 -0.1222 -0.0188
35627W        W78618  30.326   8.585   5.179  0.1374 -0.0800 -0.0198
35628W        W78619  14.930  18.719  27.560 -0.1840 -0.0192  0.0559
35629W        W78620   0.596  14.968  28.537  0.1918  0.0068  0.0605
35630W        W78621  14.327  16.679   5.491  0.1067  0.2241  0.1293
35631W        W78622  12.427   6.276  27.915  0.1333 -0.0526 -0.1019
35632W        W78623  33.579  28.907  16.272  0.3210 -0.2131  0.2080
35633W        W78624   7.120  19.747   9.277  0.2779  0.3603  0.1788
35634W        W78625   3.785  10.319  28.155 -0.1764 -0.2126  0.1174
35635W        W78626  12.571  26.460  16.466  0.5355  0.3000 -0.0745
35636W        W78627  10.039   4.248  26.606 -0.1966  0.2889 -0.1942
35637W        W78628   8.319  27.419   7.046  0.3221  0.3345 -0.0916
35638W        W78629  17.040   5.679  17.006 -0.1420  0.1971 -0.1614
35639W        W78630  24.346   2.482  26.104  0.0893  0.0286  0.3037
35640W        W78631   9.240   0.029  29.052  0.1596 -0.3059 -0.1123
35641W        W78632  34.239   4.711  28.988 -0.2413  0.2978  0.1975
35642W        W78633  21.003   0.880   6.427  0.0908 -0.2513  0.2308
35643W        W78634  17.543  27.533  25.578 -0.1038  0.6205  0.1775
35644W        W78635  17.655  19.109  25.467 -0.1199  0.0826  0.0955
35645W        W78636  26.417   4.438  19.758  0.2619 -0.1907 -0.0173
35646W        W78637  16.211  24.742  25.899  0.2936 -0.0108 -0.2666
35647W        W78638  10.070  33.283  15.531  0.3894  0.4867 -0.1780
35648W        W78639  30.004   8.710  25.836  0.0369 -0.3055  0.0312
35649W        W78640   5.867   2.270   9.609  0.3604  0.1296 -0.0604
35650W        W78641  21.140  32.099  14.561  0.1420 -0.0318 -0.0456
35651W        W78642   3.530  14.585  26.834  0.1257  0.0084 -0.1919
35652W        W78643   9.710   7.804  27.019  0.0595  0.0230  0.0075
35653W        W78644  10.363   1.921  20.820 -0.4191 -0.0295  0.1123
35654W        W78645   3.017  25.822  28.331  0.2742  0.3154 -0.0054
35655W        W78646   5.017   2.742  18.955 -0.0262 -0.0100  0.0512
35656W        W78647  11.318   2.503   5.553  0.0426  0.1361 -0.0414
35657W        W78648   6.424   1.172  17.157 -0.0250 -0.1339 -0.2816
35658W        W78649   0.133   8.071   5.500  0.0579  0.4234  0.1378
35659W        W78650  33.760   5.813  28.448  0.1368  0.2886  0.0099
35660W        W78651  34.256   1.272   8.734  0.0105 -0.1029  0.0920
35661W        W78652   3.164  34.514  23.116 -0.3776  0.0347  0.1893
35662W        W78653  33.267  33.239   4.830  0.1741  0.0535 -0.1553
35663W        W78654  12.332  17.665  17.537 -0.0768 -0.3489 -0.1077
35664W        W78655  29.776  29.276   0.883 -0.3241 -0.6215  0.0470
35665W        W78656  12.805  33.188  28.247  0.0060 -0.1539 -0.1217
35666W        W78657   6.444  11.972   0.158  0.0548  0.1663  0.1481
35667W        W78658  13.592   4.610   6.473  0.0263 -0.2282 -0.0423
35668W        W78659  12.992   7.699  23.070  0.0835 -0.1231 -0.4926
35669W        W78660  10.629  24.728  18.356  0.2929 -0.3013  0.0825
35670W        W78661  29.696  12.907  29.209  0.1287 -0.2449  0.2749
35671W        W78662  32.551  31.918  18.266 -0.2210  0.2478 -0.0069
35672W        W78663   1.136   1.889   8.128  0.0117  0.0797 -0.0414
35673W        W78664   7.981  26.793  23.616 -0.1950  0.0354  0.3800
35674W        W78665  26.221   1.170  15.995 -0.1445  0.1754 -0.0852
35675W        W78666  10.619   9.627  19.204 -0.1507 -0.2241 -0.0326
35676W        W78667   5.321  11.938  23.462  0.2514 -0.0635 -0.2070
35677W        W78668  21.309  23.355  26.066  0.3604 -0.0433  0.2145
35678W        W78669  10.491  30.506  15.720 -0.4785 -0.0348 -0.1936
35679W        W78670   9.532  34.586  20.674  0.3297  0.1286 -0.1247
35680W        W78671  24.447   3.380   4.508  0.0232 -0.2589  0.1845
35681W        W78672   2.506  11.000   6.065 -0.3231  0.0948  0.1778
35682W        W78673  30.450   2.034  21.349  0.3149 -0.0969  0.1717
35683W        W78674   9.684  27.670   2.278  0.0519  0.0321 -0.0467
35684W        W78675  16.746  16.681  14.982 -0.0369  0.2148  0.0142
35685W        W78676   7.266  19.033   9.591 -0.1300 -0.3278 -0.1774
35686W        W78677  14.007  27.151  25.600  0.0142  0.2009  0.3681
35687W        W78678   4.990  18.660  27.088  0.0520 -0.0885 -0.2466
35688W        W78679  12.640  30.534  26.359  0.2324  0.2089  0.3017
35689W        W78680  22.997  32.624  20.835 -0.1241  0.1206  0.1764
35690W        W78681  32.798   8.652   3.596 -0.0101  0.0764 -0.4116
35691W        W78682   4.065  10.518  21.365  0.0378 -0.5137  0.1004
35692W        W78683  31.200  33.087  13.321 -0.3306 -0.0518 -0.1906
35693W        W78684   4.827   2.964  28.343  0.3360 -0.2388  0.0281
35694W        W78685  18.113   3.009  16.211  0.0206 -0.0064 -0.0261
35695W        W78686  24.840   5.242  14.862 -0.5320  0.0000 -0.1092
35696W        W78687  24.960   0.983  23.147 -0.0095 -0.2118  0.3206
35697W        W78688  21.003  24.902  20.523  0.1269  0.0659 -0.0827
35698W        W78689   9.977   5.946  19.435  0.1129  0.0767  0.1276
35699W        W78690   9.649   8.611  21.862  0.2205 -0.2882 -0.3488
35700W        W78691   8.400   4.676  15.605 -0.0715 -0.5203  0.0928
35701W        W78692   0.949  27.614  18.383  0.0658  0.1673 -0.0294
35702W        W78693  33.588   3.803  19.145 -0.0270 -0.1014  0.1431
35703W        W78694  10.047  28.320  16.550  0.1119 -0.3115 -0.2995
35704W        W78695  16.303  10.155   1.017 -0.3253  0.0540  0.3261
35705W        W78696  16.057   1.168  20.515 -0.2055  0.0992  0.0082
35706W        W78697   1.392   4.161  19.768 -0.0481  0.0075  0.3137
35707W        W78698  10.592   2.706  16.879 -0.0957 -0.0032  0.2984
35708W        W78699  15.169   4.967   4.126 -0.0333  0.0223  0.2919
35709W        W78700   7.227  12.544   0.873 -0.3747 -0.2998  0.0645
35710W        W78701  32.059  32.624  20.847 -0.0816  0.2336  0.2409
35711W        W78702   8.202  15.598  26.664  0.1332 -0.1077 -0.2331
35712W        W78703  15.702  21.255  19.739  0.3113  0.1177 -0.2375
35713W        W78704   8.815   2.200  15.581 -0.1655 -0.1135  0.0829
35714W        W78705  16.659   2.520  27.907 -0.2589  0.1964 -0.1441
35715W        W78706   7.335  11.688  27.286 -0.0174 -0.2095  0.0407
35716W        W78707  22.826  29.045  26.315  0.1458 -0.1986  0.3765
35717W        W78708  13.311   5.322  19.743 -0.0480  0.0398  0.4009
35718W        W78709  33.410   4.473  20.174  0.0726  0.0570  0.0808
35719W        W78710  12.238  12.996  24.848 -0.0222  0.0040  0.0439
35720W        W78711   6.848  12.018  16.324  0.0567 -0.0514  0.0593
35721W        W78712  26.520   4.211  17.838  0.2300 -0.3837  0.1065
35722W        W78713   9.623  26.721  24.314 -0.2393 -0.0148 -0.2004
35723W        W78714   1.058   4.416  17.657  0.0426 -0.0802 -0.2432
35724W        W78715   3.572   7.513  22.701 -0.1261  0.0085 -0.1396
35725W        W78716   5.040   4.759  21.373 -0.0500  0.3522 -0.2792
35726W        W78717   4.293  10.085  21.580  0.1745 -0.0987  0.0922
35727W        W78718  16.016  32.269   5.840  0.1934 -0.1352  0.0802
35728W        W78719  14.722   8.103  16.773  0.0712 -0.0367  0.2463
35729W        W78720  32.362   9.724  18.145 -0.1278  0.0646 -0.2226
35730W        W78721  12.656   0.492   6.002 -0.1046  0.1191 -0.1251
35731W        W78722  10.792   4.784  15.023  0.1326  0.3264  0.3745
35732W        W78723  11.076   3.223  20.224  0.0391 -0.2349 -0.0039
35733W        W78724  19.176  30.244   6.082  0.1245  0.1089 -0.0426
35734W        W78725  33.468  15.577  16.965 -0.3144  0.1826 -0.0898
35735W        W78726  30.845  14.688  19.356  0.0547  0.3392  0.1904
35736W        W78727  28.387  12.614  21.749 -0.2049 -0.1506  0.1311
35737W        W78728  19.973  28.302  26.175 -0.0968 -0.1446  0.0280
35738W        W78729   0.483  24.884  22.496 -0.0874  0.2006  0.0109
35739W        W78730   4.280  33.586  23.346 -0.2542  0.1662 -0.1351
35740W        W78731  22.879   4.439  16.247  0.0932  0.0308  0.1459
35741W        W78732   7.512  26.760  19.578  0.0477 -0.1013  0.0213
35742W        W78733  14.689   1.396  14.636 -0.1581 -0.2150 -0.2289
35743W        W78734  29.881   1.644  21.666 -0.1594 -0.3189 -0.0168
35744W        W78735  21.804  12.147  26.457  0.3062 -0.0111 -0.0373
35745W        W78736  13.590  21.526  27.317 -0.1517  0.1264 -0.0371
35746W        W78737  20.300   2.540  19.259  0.3201 -0.0980  0.3660
35747W        W78738  17.796   8.109  19.587 -0.2082  0.2836 -0.1343
35748W        W78739  29.202  25.660  18.291  0.1410  0.0597  0.0188
35749W        W78740  13.474   3.632  24.645  0.1895  0.0450 -0.3324
35750W        W78741   6.619   4.442   2.696  0.0052 -0.2899 -0.0497
35751W        W78742   9.044   2.976  20.899  0.1530 -0.1265 -0.1334
35752W        W78743  12.776   1.421  26.177 -0.0874  0.0749  0.0579
35753W        W78744  31.314   3.916  16.638 -0.3291 -0.1341 -0.0299
35754W        W78745  15.374  26.077  14.030 -0.0035 -0.2603 -0.1203
35755W        W78746  32.207   0.601  26.311 -0.1845 -0.0267 -0.1667
35756W        W78747  19.884  24.113  15.209  0.0900  0.0684 -0.1294
35757W        W78748   7.613   5.887  23.319  0.0441 -0.1039  0.1760
35758W        W78749   3.952  33.055  16.048 -0.1306  0.3049  0.0963
35759W        W78750  17.448   3.772  23.946  0.2741 -0.0388  0.0624
35760W        W78751  13.578   1.377  27.771 -0.1455  0.1703 -0.1907
35761W        W78752  12.673   7.978   3.040  0.1400 -0.0279 -0.2028
35762W        W78753   4.145  18.970  21.464 -0.1886 -0.4030  0.1457
35763W        W78754   5.916  21.940  18.697 -0.2282 -0.0664 -0.0284
35764W        W78755  22.850   5.649  25.123 -0.0304 -0.0851  0.1461
35765W        W78756  13.788  11.196  16.031  0.2350  0.2415 -0.0211
35766W        W78757   7.654   6.610  19.238 -0.0537  0.1949 -0.1782
35767W        W78758  15.460   0.472   4.041  0.2055  0.0542  0.2507
35768W        W78759   7.474  33.614  17.888  0.0236 -0.0273 -0.1627
35769W        W78760  12.927  18.968   2.658 -0.0093  0.0098  0.2103
35770W        W78761  12.789   5.250  16.834  0.5394 -0.0312  0.1843
35771W        W78762  15.429   5.247  23.114 -0.1570  0.1713 -0.0544
35772W        W78763  16.005   4.849  21.473  0.1049 -0.1393 -0.2252
35773W        W78764  23.644  28.171  22.147  0.1881  0.0661  0.0596
35774W        W78765   2.526   8.937  20.629 -0.0415 -0.3045 -0.0347
35775W        W78766   9.475   8.443  22.738 -0.1117  0.0742  0.0257
35776W        W78767   1.856   8.686  15.434 -0.3698 -0.0289  0.0932
35777W        W78768  13.698  25.692  21.779 -0.0431 -0.2084 -0.0852
35778W        W78769  18.047   1.207  15.353  0.1199 -0.1571  0.0700
35779W        W78770  12.545   1.526  15.785  0.0292 -0.1435 -0.2989
35780W        W78771  20.840  31.021  18.902 -0.3993 -0.0096 -0.1180
35781W        W78772   2.157  16.738   3.297 -0.0255 -0.0468 -0.0158
35782W        W78773  14.921  30.575  29.046  0.2183  0.0346 -0.1384
35783W        W78774  11.139   2.098  17.417  0.2460  0.0573  0.1227
35784W        W78775   8.386  29.528  24.562  0.2954  0.0005  0.1652
35785W        W78776   9.664  29.410  24.287  0.1725 -0.0100  0.1224
35786W        W78777  34.238  10.345  16.718  0.0008  0.0623 -0.2281
35787W        W78778  12.259   8.670  25.299  0.0841  0.1584 -0.0984
35788W        W78779  12.551  10.175  26.382 -0.3451 -0.0646 -0.1620
35789W        W78780  21.095  29.035  14.387 -0.2586 -0.1434  0.0528
35790W        W78781   2.965  20.539  26.190  0.2191  0.1629 -0.1692
35791W        W78782  10.378  34.064  19.530 -0.1444  0.1382  0.0484
35792W        W78783  19.019  33.140  20.965 -0.0538 -0.2122  0.0033
35793W        W78784  20.914  34.165  18.915  0.0517 -0.0894 -0.2167
35794W        W78785   9.168  12.639  15.727 -0.4358  0.1630 -0.2257
35795W        W78786   2.350   7.441  18.268  0.0081  0.3250  0.3317
35796W        W78787  30.572  11.454  19.746 -0.3174  0.0702  0.1601
35797W        W78788  19.593  22.838  14.275  0.1127 -0.1045 -0.0888
35798W        W78789  12.989  33.244  17.356 -0.1713 -0.0667  0.0390
35799W        W78790  19.212  18.354  14.726  0.0468 -0.0881 -0.1122
35800W        W78791   4.574  30.640  17.724  0.0937  0.3211 -0.0456
35801W        W78792   3.389  32.177  19.539 -0.3866  0.0062 -0.1489
35802W        W78793   1.650   9.736  28.753 -0.1744  0.1292 -0.3546
35803W        W78794  18.383  32.354  14.137  0.2103  0.4315 -0.0284
35804W        W78795   7.762  11.924  14.714  0.2381 -0.3523  0.2254
35805W        W78796   3.584  12.549  19.690 -0.2784  0.2974  0.1376
35806W        W78797  27.741  20.046  16.000  0.2444  0.1604  0.2806
35807W        W78798   7.600  33.448  18.993 -0.0960  0.1581 -0.0780
35808W        W78799  14.661   9.760   5.440 -0.1215  0.2564 -0.1560
35809W        W78800  32.386  31.555   2.868 -0.0623  0.0231 -0.1157
35810W        W78801  11.961   4.585   9.116  0.0851  0.0111 -0.0248
35811W        W78802  14.651   5.190  25.523  0.1000  0.2006 -0.0092
35812W        W78803  13.127   8.946   0.271  0.5841  0.1448 -0.0716
35813W        W78804  13.295   6.394   6.834  0.0451  0.0873  0.0482
35814W        W78805   1.458   2.089  27.763  0.0248  0.1864  0.1185
35815W        W78806  15.769  34.193  23.269 -0.2473 -0.1845 -0.1841
35816W        W78807   1.938  31.514  16.904 -0.1360 -0.1494  0.2320
35817W        W78808   0.016  33.813  27.119  0.0087 -0.1708  0.0081
35818W        W78809  32.457  10.399  20.551 -0.0521 -0.0827  0.0571
35819W        W78810  10.613  10.346  16.832 -0.0146  0.0124 -0.0040
35820W        W78811  16.973  11.445  23.111 -0.0069 -0.1402 -0.0234
35821W        W78812  14.738   9.028   0.443 -0.2709  0.5143 -0.0860
35822W        W78813  13.294  30.816  16.671  0.1843 -0.0746 -0.0017
35823W        W78814  27.043   5.093  18.592  0.1132 -0.3411  0.1231
35824W        W78815   7.169  11.189  19.845  0.2107  0.2240  0.1042
35825W        W78816   6.492  14.389  17.462 -0.2988  0.0188  0.1165
35826W        W78817  18.364   1.186  26.223 -0.3758 -0.0365  0.0062
35827W        W78818   7.554  24.715   7.473  0.1881 -0.2624 -0.3324
35828W        W78819  18.723  11.317  17.539 -0.1244  0.2840  0.2260
35829W        W78820  11.512  29.767  15.809 -0.1337 -0.3306  0.1441
35830W        W78821  19.330  12.015  22.115 -0.0706  0.0157 -0.0263
35831W        W78822  28.808  34.649  27.512  0.0643  0.4341 -0.1020
35832W        W78823   1.126   4.247  18.830  0.4060  0.0132 -0.1780
35833W        W78824   9.073  28.624  18.093  0.0549  0.0991 -0.0110
35834W        W78825   9.059  24.621  25.323  0.0198  0.1004  0.2348
35835W        W78826  17.824   0.757  26.412  0.0871 -0.1634 -0.3059
35836W        W78827  11.690   7.450   5.229  0.4227  0.1585 -0.0947
35837W        W78828  13.340   1.216  26.326 -0.0654  0.1537 -0.0693
35838W        W78829  29.308   2.919  17.071 -0.2408  0.1819  0.0918
35839W        W78830   6.566  23.332  16.427 -0.0238  0.0196 -0.0088
35840W        W78831  10.081  12.571  16.156 -0.0894 -0.1007  0.0794
35841W        W78832  23.805  20.249  18.639  0.1017 -0.0111  0.1337
35842W        W78833   7.596   2.096  15.578 -0.0714  0.2323  0.0497
35843W        W78834  14.641   0.733  27.727  0.0528 -0.0920 -0.2332
35844W        W78835   4.976  12.030  19.147 -0.1798  0.3401 -0.3977
35845W        W78836  14.775   9.933   4.896  0.4795 -0.0843  0.1593
35846W        W78837  13.333   3.389  23.347 -0.3138  0.0275 -0.2910
35847W        W78838  23.181  15.714  15.009 -0.1474 -0.3152  0.2939
35848W        W78839  16.988  30.598   1.603 -0.0845  0.0148  0.0736
35849W        W78840   2.245   0.195  24.486  0.3089 -0.0141 -0.1668
35850W        W78841  18.107   7.774  24.803 -0.2840  0.2782 -0.3234
35851W        W78842  10.393  31.851  24.509  0.2132 -0.0588 -0.0614
35852W        W78843  20.115   8.471  15.548 -0.1464 -0.0627  0.1207
35853W        W78844  13.903   6.515  16.414 -0.1912 -0.0405 -0.0385
35854W        W78845  16.515   5.819  21.511 -0.1648 -0.1617  0.1996
35855W        W78846  12.061   0.810   8.057 -0.1448  0.2801  0.0360
35856W        W78847   6.257   3.526  21.713 -0.1496 -0.0593  0.2255
35857W        W78848  13.840  29.676  19.419 -0.1830  0.2641 -0.1127
35858W        W78849   5.629   4.051  28.432  0.2650  0.1576  0.0404
35859W        W78850   7.798   2.868   1.679  0.0238 -0.3577  0.0718
35860W        W78851   6.588  14.039  24.349  0.0541  0.1514 -0.1171
35861W        W78852  27.989  10.390  16.429  0.1595 -0.3155  0.2568
35862W        W78853   0.657   3.308  15.675  0.0586  0.3079 -0.0685
35863W        W78854  33.710  20.971  21.840  0.2792 -0.2060 -0.0539
35864W        W78855  28.000   3.142  22.669  0.0148 -0.1326  0.0678
35865W        W78856  20.204   7.707  24.596  0.3419  0.1775 -0.1487
35866W        W78857  30.002   8.400  17.129 -0.4005 -0.0972  0.0192
35867W        W78858  12.389   2.931  26.523  0.1086  0.0172 -0.2074
35868W        W78859  13.262  17.400  25.659  0.4400  0.0524 -0.0101
35869W        W78860   8.624   9.303  20.920 -0.1547  0.2572  0.0483
35870W        W78861   1.616  11.814  21.375  0.1498  0.1014  0.0208
35871W        W78862   5.718   2.652  15.506 -0.0682  0.0911 -0.1698
35872W        W78863   7.880   5.070  18.072  0.0452  0.1303  0.2090
35873W        W78864   5.878  10.591  18.109  0.2649 -0.0538 -0.1183
35874W        W78865   2.857  17.364  17.413  0.2762  0.0770 -0.3840
35875W        W78866  29.657  18.987  28.990  0.0348  0.2317 -0.3986
35876W        W78867  22.226  30.098  18.299  0.1153 -0.3611  0.2275
35877W        W78868  20.220   2.758   4.399  0.0271 -0.0615 -0.2878
35878W        W78869  30.917   6.861  19.060 -0.0732  0.2079  0.0747
35879W        W78870  16.834   4.678  18.721  0.1197  0.1077  0.3478
35880W        W78871  19.866  25.192  23.800  0.2192 -0.0765 -0.0355
35881W        W78872  12.016   3.641  25.212 -0.0347 -0.0076 -0.0823
35882W        W78873   0.745   9.407  16.659  0.1211 -0.1331 -0.0763
35883W        W78874   2.801   4.400  23.489  0.0400 -0.3970 -0.1510
35884W        W78875   8.850   7.222  29.171 -0.0908 -0.0646 -0.1552
35885W        W78876  10.152  10.676  15.544  0.1441 -0.2709  0.1985
35886W        W78877   4.830   7.747  19.390  0.0565  0.0067 -0.1386
35887W        W78878  10.152   0.157  20.046  0.0674  0.3610  0.0010
35888W        W78879  10.746   7.659  23.804 -0.1116  0.0378 -0.1868
35889W        W78880  23.600  34.288  21.829  0.0356  0.3276 -0.1523
35890W        W78881  12.795   5.230   2.965 -0.1055 -0.0540 -0.2624
35891W        W78882  10.618   1.857  26.791  0.0789  0.2373 -0.0895
35892W        W78883  16.952   2.902  17.860  0.0051 -0.1276  0.4717
35893W        W78884  11.740  32.837  27.113  0.1196 -0.2651 -0.0324
35894W        W78885  32.876   5.063  16.887  0.0208  0.1308 -0.0383
35895W        W78886  10.573  11.161  18.551 -0.2425 -0.3222 -0.0815
35896W        W78887  15.328  31.769  17.926  0.1369  0.2825 -0.1469
35897W        W78888  16.440   8.956   4.567 -0.3652  0.2231  0.0078
35898W        W78889   6.096   2.040  17.223 -0.0711 -0.0130  0.1241
35899W        W78890  21.402   2.432  14.412 -0.2797  0.2023 -0.0035
35900W        W78891   9.486  27.405  19.614 -0.0499 -0.1080  0.3039
35901W        W78892   9.531  34.701  14.242 -0.2048 -0.0505  0.1152
35902W        W78893   5.779   1.916   0.458 -0.3937  0.0103  0.1007
35903W        W78894  12.130  26.429  14.391 -0.3250 -0.0807 -0.2794
35904W        W78895  30.613  11.713   4.156 -0.1094  0.0906 -0.0912
35905W        W78896  12.117   5.591  15.519  0.0970 -0.3480 -0.1403
35906W        W78897  12.154  34.202   9.969  0.1523 -0.0295 -0.0245
35907W        W78898  29.335   8.550  21.696  0.1872 -0.2922 -0.0704
35908W        W78899   9.772   2.488  22.405  0.0169  0.1130 -0.2689
35909W        W78900   6.525  30.841  22.129  0.2898  0.3327 -0.0795
35910W        W78901   4.481   4.854  16.812  0.2777 -0.1146  0.0291
35911W        W78902   8.663  21.993  19.778  0.0352 -0.0764 -0.0508
35912W        W78903  12.503   7.608  17.806 -0.2201  0.2886  0.1712
35913W        W78904  18.465  33.153  17.405 -0.0540 -0.2224 -0.1263
35914W        W78905  14.239  15.048  17.584 -0.2900  0.0428  0.2934
35915W        W78906  19.232  31.743  25.851 -0.3432  0.0409 -0.1866
35916W        W78907  19.931  31.683  17.945 -0.0392 -0.0521  0.5509
35917W        W78908  10.646  28.786  25.790 -0.0351 -0.0431 -0.2178
35918W        W78909  14.014   4.142  15.414 -0.4772  0.1174  0.1354
35919W        W78910  16.009   4.966  25.874 -0.1184 -0.2407 -0.2236
35920W        W78911   9.031  33.814   0.711 -0.0362  0.0848 -0.1286
35921W        W78912  13.940  28.512  25.506  0.0732 -0.0840  0.3261
35922W        W78913  22.529  10.599  17.956 -0.0714  0.0304 -0.0786
35923W        W78914   2.409   9.344  16.633  0.0163  0.3511  0.2350
35924W        W78915   3.650   6.493  15.287  0.1156  0.0085  0.3334
35925W        W78916  30.100   7.765  24.372  0.0740 -0.1875 -0.0764
35926W        W78917  12.520   9.828  20.498  0.0262  0.0009  0.1677
35927W        W78918  12.245   7.271  22.846  0.0908 -0.0118  0.0194
35928W        W78919  34.235   8.988   6.074  0.0918 -0.1319  0.0888
35929W        W78920   6.848   5.200  16.469 -0.0163 -0.4603  0.0474
35930W        W78921  25.287  29.195  27.803  0.0096 -0.2417 -0.1047
35931W        W78922  11.923   5.348  17.538  0.0807 -0.1363 -0.1367
35932W        W78923   8.655   1.294   1.395  0.0238 -0.1847  0.0850
35933W        W78924  25.115   8.387  22.910 -0.0984 -0.0937 -0.2710
35934W        W78925  28.844  34.675  13.754 -0.0020 -0.3876 -0.1360
35935W        W78926   5.429  13.285  19.184 -0.1592  0.0927  0.1710
35936W        W78927  10.769   1.618   0.099 -0.2142 -0.1636 -0.1267
35937W        W78928   5.682   9.943  26.462 -0.2051 -0.1915  0.0945
35938W        W78929  19.943   1.249  17.870 -0.0220 -0.1151 -0.0161
35939W        W78930  17.756  20.475  14.993 -0.0382  0.0528  0.0935
35940W        W78931   1.114  34.585  27.979 -0.0713 -0.3456  0.0365
35941W        W78932   1.148  34.231  14.302 -0.4876  0.3170 -0.1095
35942W        W78933  13.141   5.289  18.956  0.2056 -0.0001  0.1233
35943W        W78934  11.328   1.165  14.850 -0.1449  0.0689 -0.2397
35944W        W78935   9.546  34.573  21.188 -0.0715 -0.1455  0.2103
35945W        W78936   7.027   4.079  23.318 -0.0268 -0.0573  0.6068
35946W        W78937  33.447   2.781  17.997  0.2851  0.0654 -0.3986
35947W        W78938  13.490   5.451  23.110 -0.2774 -0.1563  0.1950
35948W        W78939   2.241  12.697  28.094 -0.0050 -0.0411 -0.0681
35949W        W78940   5.789  31.663  17.966 -0.0801 -0.1361 -0.1989
35950W        W78941  15.825  30.218  16.888  0.3296 -0.1847 -0.2693
35951W        W78942  10.207   7.890  27.170 -0.0133  0.1826 -0.0841
35952W        W78943  17.833   2.693  22.589  0.0639 -0.2530 -0.3342
35953W        W78944   6.748   7.127  16.753  0.1521  0.0543  0.0806
35954W        W78945  18.038  21.414   0.236  0.3455 -0.0854 -0.2577
35955W        W78946  10.802   1.826  16.042 -0.1532  0.2482 -0.3927
35956W        W78947   7.035   4.045  27.162 -0.0271  0.3671  0.0397
35957W        W78948   6.387  31.575  21.627 -0.0671  0.2155 -0.0004
35958W        W78949   5.453  12.860  28.024 -0.0440  0.2479  0.1640
35959W        W78950   0.311  29.326  22.164  0.1914 -0.3359  0.0569
35960W        W78951  31.612  33.470  20.362 -0.0357  0.0440 -0.0329
35961W        W78952  17.364  15.390   1.966 -0.2804 -0.1739 -0.3272
35962W        W78953   8.660  12.672  26.482  0.1277  0.1053 -0.0122
35963W        W78954   1.820  10.726  20.417  0.0909 -0.2430  0.1164
35964W        W78955  18.419  30.868  18.974  0.2121 -0.0790  0.1548
35965W        W78956  18.213   6.914  18.185 -0.0683 -0.0890  0.0287
35966W        W78957  18.516  27.282  17.397 -0.4470 -0.1636 -0.0355
35967W        W78958   4.187  34.623  24.430  0.0908 -0.0988  0.0120
35968W        W78959  18.998  25.497  25.927  0.0788  0.2797 -0.0926
35969W        W78960   9.060  11.407  15.997  0.0176 -0.3326  0.2061
35970W        W78961  22.584   2.020  13.700  0.0825  0.0712 -0.0776
35971W        W78962   2.261  14.213  19.067 -0.0628 -0.0050 -0.1264
35972W        W78963   2.832  30.070  25.761  0.2580 -0.0447  0.0858
35973W        W78964  10.889   6.199  25.675 -0.0349 -0.0911  0.0196
35974W        W78965  19.014  12.694  26.886  0.2155  0.2276 -0.0970
35975W        W78966   6.336  28.103  25.176  0.1544 -0.1266 -0.0292
35976W        W78967  20.252   4.718  27.338 -0.2716 -0.0189 -0.0051
35977W        W78968  17.440  31.272  27.248  0.1468 -0.1115  0.0217
35978W        W78969  11.619  34.617  17.819  0.0471  0.3142 -0.0347
35979W        W78970   2.303   1.031  28.783 -0.2191  0.2343  0.0957
35980W        W78971  25.582  32.818  15.140 -0.0795 -0.1060  0.1529
35981W        W78972   1.838   4.199  29.149 -0.2335 -0.0078 -0.0505
35982W        W78973   1.060  34.478  25.396  0.0290  0.0559 -0.3291
35983W        W78974   8.351  31.598  17.008  0.0478 -0.0895 -0.1279
35984W        W78975   2.407  27.012  25.081 -0.3190  0.2668 -0.0228
35985W        W78976  17.680  25.957   4.297 -0.1934 -0.0460 -0.0076
35986W        W78977  34.196   0.222  21.984 -0.0179  0.1117 -0.1411
35987W        W78978  29.986  30.205   1.773  0.0252  0.2636 -0.0277
35988W        W78979  34.039  10.475  16.262 -0.3311 -0.4696  0.2150
35989W        W78980  13.784   6.041  20.195 -0.2063 -0.0024 -0.1202
35990W        W78981  32.740  33.740  14.038 -0.0769 -0.1803 -0.0297
35991W        W78982  21.512   0.091  28.745  0.0174  0.0721 -0.1200
35992W        W78983  31.226  11.908  21.444 -0.0654 -0.0416  0.1218
35993W        W78984  15.673   5.700  23.829  0.0008  0.2977 -0.0281
35994W        W78985  16.065  24.492  18.379 -0.1417 -0.2723 -0.1742
35995W        W78986  16.192   9.538  21.284 -0.4408 -0.1515  0.1820
35996W        W78987  12.020  30.961  17.379  0.0142  0.1073 -0.0136
35997W        W78988  12.039  28.897  29.184  0.1396 -0.1462 -0.0910
35998W        W78989  32.661   6.945  23.740  0.2775 -0.1818  0.2334
35999W        W78990  28.900   9.445  17.289 -0.1173  0.0127 -0.0391
36000W        W78991   1.284  31.476  17.333  0.1340  0.2886 -0.4572
36001W        W78992  14.356  31.667  19.990 -0.0811 -0.3384 -0.0381
36002W        W78993   5.603  27.476  14.653 -0.1710  0.3075  0.0988
36003W        W78994   7.428  33.700  15.698 -0.2731  0.1086 -0.1532
36004W        W78995  26.156   4.222  25.973 -0.0495  0.2333  0.2633
36005W        W78996   7.731  29.927   0.556  0.2517  0.1221  0.1304
36006W        W78997  11.327   0.112  18.556  0.2668 -0.1855 -0.0894
36007W        W78998  15.525  28.388  23.072 -0.1753 -0.1296 -0.2447
36008W        W78999   5.432  23.567  17.875  0.1614  0.0882  0.1505
36009W        W79000  29.920  29.938  17.000 -0.0092  0.0722  0.2879
36010W        W79001  10.070  12.870  25.877  0.2448  0.2455  0.1522
36011W        W79002  18.645   3.561  27.471 -0.0987  0.1510  0.2504
36012W        W79003  16.998  31.853  28.787  0.1674  0.2998 -0.1309
36013W        W79004  26.152   0.160  20.983 -0.6595 -0.3313  0.2195
36014W        W79005   9.317  15.869  21.910  0.2403  0.0752 -0.1780
36015W        W79006  13.039   1.892  28.424  0.2568  0.0164  0.1747
36016W        W79007   5.582  28.622  17.195 -0.0415 -0.2122 -0.2510
36017W        W79008  30.409  13.691  20.119  0.2120 -0.1125  0.3309
36018W        W79009   5.836   1.020   6.506  0.0037 -0.0042  0.1772
36019W        W79010  31.394   5.238  24.436 -0.0823  0.0869  0.0180
36020W        W79011   1.152   7.763  16.993 -0.3415 -0.0216  0.1328
36021W        W79012  10.800  33.927  14.678  0.2631  0.0144  0.1782
36022W        W79013   7.560   7.864  19.291  0.0678  0.3270 -0.0377
36023W        W79014  10.088  18.423  15.283 -0.0831 -0.0607  0.0069
36024W        W79015   4.301  32.743  20.440  0.2519 -0.1353 -0.0065
36025W        W79016   9.444  30.980  20.355  0.0634  0.1890 -0.0283
36026W        W79017  15.146  32.032  15.330 -0.0737 -0.3341 -0.3037
36027W        W79018  24.033  24.774  26.066  0.0452  0.3402 -0.0876
36028W        W79019  10.854  24.517  14.505  0.0326  0.1342  0.4002
36029W        W79020  11.491  28.744  17.299 -0.3606 -0.1623  0.1486
36030W        W79021  21.563   0.943  27.972  0.0695  0.2223  0.2370
36031W        W79022   5.009  12.990  24.247 -0.0481  0.0947  0.0071
36032W        W79023  11.140   2.221  19.662 -0.3343 -0.0202  0.3363
36033W        W79024  13.064  25.530  17.799  0.1876 -0.2545  0.1755
36034W        W79025   5.744  10.776   2.628  0.4052 -0.1482  0.0167
36035W        W79026  29.087   2.923  15.443 -0.0536 -0.2356  0.0270
36036W        W79027  10.656   0.600  20.638  0.1273  0.3425 -0.0793
36037W        W79028  25.763  34.047  17.452  0.0606 -0.0611 -0.2037
36038W        W79029   2.973   6.813  21.214 -0.0755 -0.1434  0.1679
36039W        W79030   6.701  29.277  24.195 -0.2561 -0.1222  0.1576
36040W        W79031  12.949   7.934  15.829 -0.2548 -0.1181 -0.0016
36041W        W79032  12.237  28.764  18.249 -0.0967 -0.1941  0.1495
36042W        W79033  13.357   6.263  19.294 -0.0003  0.1702 -0.1281
36043W        W79034   8.752   0.619  24.594  0.3200 -0.0025 -0.0650
36044W        W79035  15.606  26.705  15.816 -0.1764  0.1953 -0.2174
36045W        W79036  29.497  28.177  12.227 -0.1083 -0.5169  0.1841
36046W        W79037   6.236  28.006  15.625  0.1779  0.3313  0.0051
36047W        W79038   3.332  33.559  15.515  0.1466  0.1533 -0.1662
36048W        W79039   8.482   3.736  22.638  0.0953  0.0323 -0.2089
36049W        W79040   3.076  23.748  24.527  0.0420 -0.0183 -0.0188
36050W        W79041  21.881   1.364  28.146  0.1180 -0.2325  0.1731
36051W        W79042  13.988   6.948  20.232  0.3072  0.5749  0.3189
36052W        W79043  26.428  28.945  16.250  0.0418 -0.1134 -0.1308
36053W        W79044   2.934  29.374  22.956  0.1120  0.1279  0.5415
36054W        W79045  34.233   4.464  19.212  0.0462 -0.2888 -0.2221
36055W        W79046  30.427  11.846  17.917  0.0815 -0.1253  0.1285
36056W        W79047   1.411   2.108  22.111 -0.0779  0.0479  0.1171
36057W        W79048  29.040  21.910  19.363 -0.1113 -0.0121 -0.1727
36058W        W79049  18.268   0.173  21.001 -0.0322 -0.0096 -0.1922
36059W        W79050  33.946  32.864  18.875  0.0914  0.0963  0.1639
36060W        W79051  27.370  12.448  19.800  0.1088 -0.1961 -0.1820
36061W        W79052  13.725   1.481  17.779  0.0110  0.0210  0.2173
36062W        W79053  32.261  20.086  17.872  0.0336 -0.1787  0.3305
36063W        W79054  18.560   2.342  16.320  0.4069  0.3934 -0.2727
36064W        W79055  27.962  30.111  18.928  0.2480 -0.0283  0.3797
36065W        W79056  15.897  11.445  23.872  0.2597 -0.1775 -0.0148
36066W        W79057   6.538  33.942  20.397  0.0750  0.0051 -0.0932
36067W        W79058   1.395  32.438  19.058  0.0659 -0.0631  0.1736
36068W        W79059  24.592  34.521  27.754 -0.0815 -0.0919 -0.0050
36069W        W79060  12.909   2.474  19.728 -0.0803 -0.0546 -0.2046
36070W        W79061   2.326  29.423  16.814 -0.0743  0.2605 -0.1715
36071W        W79062  23.371  11.590   3.295  0.2843  0.2726  0.0671
36072W        W79063  11.242  13.700  16.641  0.1151  0.2152 -0.1558
36073W        W79064  30.513  20.454  20.821  0.1988  0.0390  0.3301
36074W        W79065   7.000   1.443  22.112 -0.0838  0.0851  0.1228
36075W        W79066  14.765   3.540   0.483 -0.2312  0.3980 -0.1473
36076W        W79067  26.805  11.633  21.748 -0.0967 -0.1180 -0.2029
36077W        W79068  30.405   8.708  25.454  0.0339  0.2955 -0.1264
36078W        W79069  17.650   6.280  16.665  0.2371 -0.3117 -0.1041
36079W        W79070   2.150   2.531  20.490 -0.0261 -0.2659 -0.0490
36080W        W79071  20.319  31.374   8.502 -0.0988 -0.1420 -0.0897
36081W        W79072  33.643  31.497  23.958  0.0706  0.1950  0.1838
36082W        W79073  17.313  28.792  23.056 -0.1319 -0.1170 -0.2580
36083W        W79074  18.001   2.098  16.426  0.2466 -0.1799  0.1497
36084W        W79075  12.568  15.848  16.607 -0.0424  0.0394 -0.0455
36085W        W79076  20.720  26.860  13.893 -0.0304  0.0471 -0.1900
36086W        W79077   4.665  24.730   0.247  0.1713 -0.1826  0.3961
36087W        W79078  13.991   3.358  17.325  0.3267  0.0663  0.0350
36088W        W79079   9.269   2.543  28.053  0.0891  0.1123 -0.0251
36089W        W79080  33.261  18.247  14.680 -0.0227 -0.0756 -0.1751
36090W        W79081   5.725   3.790  19.024 -0.1432 -0.1278 -0.0359
36091W        W79082  10.822   0.189  19.410  0.1860  0.0071 -0.1789
36092W        W79083   0.872  29.633  21.393 -0.1110 -0.2475  0.1446
36093W        W79084   4.307   5.274  22.550  0.1360 -0.0202 -0.3030
36094W        W79085  18.400  32.248  21.230  0.2143  0.0992 -0.2496
36095W        W79086   8.073   7.769  19.267 -0.0033 -0.0452 -0.0468
36096W        W79087  17.917  28.460  21.911  0.3471  0.2185  0.1036
36097W        W79088  33.530  30.807  19.986  0.3115 -0.3148  0.2038
36098W        W79089  18.334   7.504  20.867 -0.1921  0.1526 -0.1209
36099W        W79090  31.964  34.482  15.749 -0.1248 -0.0949  0.2188
36100W        W79091   0.077  23.151  20.193  0.3058  0.1335  0.1495
36101W        W79092  14.809   2.032   9.331  0.0225 -0.2259  0.2441
36102W        W79093  19.324   9.249  21.354 -0.0441  0.0867 -0.0523
36103W        W79094   3.185  25.583  21.322  0.0789  0.0666 -0.0098
36104W        W79095  19.361  31.371  20.460 -0.4558 -0.0955  0.2526
36105W        W79096  27.019  25.714  28.595 -0.0123 -0.0420  0.0496
36106W        W79097   6.495  33.753   1.619 -0.2240  0.2416  0.1556
36107W        W79098  16.271  22.744  15.153  0.3758  0.3007  0.0930
36108W        W79099  22.356  28.803  22.642  0.4045 -0.0933  0.0955
36109W        W79100   9.233   4.563  15.322 -0.2175 -0.1043  0.2312
36110W        W79101  11.301   1.975  18.433  0.4268 -0.0302 -0.3127
36111W        W79102   4.030  11.274  28.295 -0.0043  0.1150  0.0262
36112W        W79103  20.222  30.059  17.102 -0.3949  0.0767  0.0034
36113W        W79104  14.887  32.026  18.961  0.0172  0.1142  0.0826
36114W        W79105  10.914  28.657  29.249  0.3022 -0.1253  0.1793
36115W        W79106  32.432  23.787  15.645  0.0592  0.2933  0.1184
36116W        W79107  26.014   4.905  17.860 -0.2024  0.1950  0.1820
36117W        W79108  30.501  31.306  12.996 -0.0473  0.1723  0.2441
36118W        W79109  16.132  12.906  14.050  0.2402  0.2694 -0.1586
36119W        W79110  29.607  27.282  26.311 -0.0817  0.1516  0.1665
36120W        W79111  25.119  34.610  15.039 -0.0632 -0.1786  0.2062
36121W        W79112  31.217   6.199  21.830 -0.2457 -0.0645  0.1524
36122W        W79113  28.317   8.147  19.989  0.0193  0.1777 -0.1309
36123W        W79114  11.462   7.215  24.105  0.0845 -0.1124  0.0960
36124W        W79115  34.483   0.417  27.585 -0.2343 -0.0890 -0.0692
36125W        W79116  21.545  26.407  18.819 -0.2413 -0.1209 -0.0666
36126W        W79117  28.645  28.275  27.505 -0.2040  0.1720 -0.0786
36127W        W79118   1.103  24.576  24.340  0.1838 -0.1491 -0.2054
36128W        W79119   7.919  25.152  17.031  0.0632  0.1365  0.1317
36129W        W79120  33.654  31.531  20.097  0.4247  0.0052 -0.1474
36130W        W79121  11.153  15.437   9.270 -0.0551 -0.1570 -0.1730
36131W        W79122  15.727   5.265  19.420 -0.0242  0.0165  0.1468
36132W        W79123   5.976  18.435  16.729  0.1046 -0.0208  0.0713
36133W        W79124  32.519  34.766  20.050  0.2834 -0.0574  0.0121
36134W        W79125  20.028   8.567   1.223 -0.1869  0.1211 -0.1043
36135W        W79126  13.265   3.932  17.991 -0.0061 -0.1647 -0.1417
36136W        W79127  28.941  15.289  26.416  0.3222  0.1357  0.1089
36137W        W79128  12.466  27.062  14.929  0.1523  0.1962 -0.3257
36138W        W79129   2.355   2.191  17.111 -0.0331  0.3357  0.0117
36139W        W79130   2.277   5.201  18.848 -0.0212  0.1259 -0.0512
36140W        W79131  23.342  16.046  17.615  0.1735 -0.3325 -0.1287
36141W        W79132   7.992  33.646  28.053 -0.2488  0.2662  0.0012
36142W        W79133   9.430  30.242  24.736  0.2894 -0.2196  0.0844
36143W        W79134   6.959  31.551   2.878  0.1099  0.0798 -0.1206
36144W        W79135  34.752  28.892   8.761 -0.1072 -0.0553 -0.0693
36145W        W79136   8.738   3.955  18.960 -0.1301  0.0082 -0.2325
36146W        W79137  10.312  14.377  27.662  0.0464  0.0138 -0.1191
36147W        W79138   4.818   2.184  24.176 -0.1975 -0.0932 -0.0650
36148W        W79139  30.589   9.725  28.934  0.1059  0.1422  0.0913
36149W        W79140   8.166   9.100  27.183 -0.0169 -0.2397  0.3958
36150W        W79141   5.520  34.261  17.193 -0.2138 -0.0418 -0.3748
36151W        W79142  14.002  30.681  18.683  0.1843 -0.0197 -0.0486
36152W        W79143  17.447  29.058  21.387 -0.0724  0.1658  0.0199
36153W        W79144   0.843  33.458  18.515  0.1362 -0.0537 -0.0331
36154W        W79145  22.447   9.844  27.877  0.2370  0.2041  0.1864
36155W        W79146  14.196  33.581  27.022  0.3129  0.0725 -0.1766
36156W        W79147  34.492   5.076  21.493  0.3290 -0.1162  0.1734
36157W        W79148  12.884  29.321   4.276  0.1831  0.1081  0.0705
36158W        W79149  33.673  33.950   4.677 -0.2247 -0.1081 -0.1697
36159W        W79150   4.523  26.988  18.004 -0.1616  0.0098  0.0141
36160W        W79151   4.446  32.201  24.670 -0.2335 -0.1216 -0.0063
36161W        W79152  14.569   8.361   6.522  0.0578  0.1917  0.0766
36162W        W79153  18.324   3.819   2.289 -0.2512  0.4534 -0.1290
36163W        W79154   1.882   4.865  15.549 -0.0611  0.1360 -0.0816
36164W        W79155   9.756   5.443  14.342  0.1922 -0.0038  0.3808
36165W        W79156  25.704  11.775   0.541 -0.0546  0.0798  0.0293
36166W        W79157   8.238  25.458  17.215  0.0664  0.2690  0.1624
36167W        W79158   3.855   9.829  20.751 -0.0951 -0.0975  0.4729
36168W        W79159   1.834  33.903   7.100 -0.1339  0.3052  0.2853
36169W        W79160  18.116  19.894  16.677 -0.0456  0.1515  0.1965
36170W        W79161  11.357  23.276  21.694 -0.0135 -0.2655 -0.1247
36171W        W79162   9.823   1.999  19.615 -0.1982 -0.1625  0.1548
36172W        W79163  26.718  11.166  15.993  0.2827 -0.1678  0.0035
36173W        W79164  17.527   7.718  20.399  0.0745  0.0115 -0.2333
36174W        W79165  23.383  32.948  16.221  0.0355 -0.1113 -0.1070
36175W        W79166  14.555  30.804   0.160  0.0860  0.4698 -0.1806
36176W        W79167  18.094   2.922  18.689  0.0019 -0.1592  0.0410
36177W        W79168   4.497  20.863  15.589  0.0346 -0.2522 -0.1395
36178W        W79169   1.081   8.463  25.192 -0.1874 -0.2327 -0.1280
36179W        W79170  12.416  34.553  21.125 -0.3669  0.4510 -0.2101
36180W        W79171   8.187  16.677  24.512  0.0561  0.2578 -0.1539
36181W        W79172  16.535   4.532  22.058 -0.0680  0.0122 -0.1896
36182W        W79173   7.671  23.403   0.597 -0.4533 -0.1861  0.1768
36183W        W79174  28.987   0.793  13.608 -0.0560  0.4033  0.2188
36184W        W79175   6.869  33.638  15.901 -0.1858  0.0464 -0.1357
36185W        W79176  20.041   4.298  16.640 -0.0186 -0.1729 -0.4139
36186W        W79177  29.175  28.095  16.113  0.0564  0.0935  0.2914
36187W        W79178   1.026   1.790  16.023  0.1132  0.0320  0.0752
36188W        W79179   6.138  23.189  17.220 -0.0273 -0.0665 -0.1592
36189W        W79180  32.424  13.149  23.394 -0.0079 -0.0754  0.2135
36190W        W79181  11.515   0.966  19.817  0.3075 -0.2222  0.0544
36191W        W79182  11.761  33.947  24.273  0.0653  0.2066 -0.2208
36192W        W79183  11.904  18.213  26.186 -0.1566  0.1233 -0.1364
36193W        W79184  19.034  33.776  26.085 -0.0372  0.0021 -0.3175
36194W        W79185  11.517   6.470  20.312 -0.4484  0.2433  0.1214
36195W        W79186  13.326   0.447  17.771  0.0820 -0.2107 -0.2233
36196W        W79187   4.176  23.904  20.180  0.1330  0.0620  0.0456
36197W        W79188   7.477  30.969  25.074 -0.0400 -0.1279 -0.0848
36198W        W79189   1.120  15.641  18.083  0.1242 -0.2238  0.2627
36199W        W79190  15.649  22.955  18.871  0.3395 -0.1556 -0.1266
36200W        W79191   8.840  11.848  16.460  0.0580 -0.0525 -0.1045
36201W        W79192  34.716  25.220  27.137 -0.2215 -0.2672  0.1959
36202W        W79193  28.031   0.114  23.555 -0.0550  0.2519 -0.1240
36203W        W79194  32.488  10.157   5.329 -0.0965 -0.2687 -0.0630
36204W        W79195  12.166   2.516  17.071  0.0272  0.0596 -0.0056
36205W        W79196  33.533  12.760   0.918  0.1991  0.0707  0.0425
36206W        W79197  17.346   6.641  17.023  0.1689 -0.0862 -0.1400
36207W        W79198  31.280  33.848  16.711  0.0406  0.2044 -0.3467
36208W        W79199   2.650   2.572  18.313 -0.0934 -0.0488 -0.0130
36209W        W79200  21.718  11.837  16.879 -0.2582  0.1326  0.1286
36210W        W79201   9.867   7.356  17.368  0.3041 -0.0031 -0.0042
36211W        W79202  26.638   8.652   5.676  0.0747  0.0659  0.3451
36212W        W79203   9.063  31.250  16.838  0.0123 -0.0679  0.3670
36213W        W79204  15.026   2.714  26.058  0.0988 -0.5994 -0.0348
36214W        W79205  13.960  31.520  25.421  0.0758  0.3122 -0.0039
36215W        W79206  18.910  11.294  25.271  0.0524 -0.1295  0.2127
36216W        W79207  11.531   9.122  24.859 -0.6064  0.1852 -0.0229
36217W        W79208   9.601   8.864  23.033  0.1303  0.1182  0.3895
36218W        W79209  17.854  26.138  21.262  0.0029  0.1115  0.2074
36219W        W79210  13.121   4.669   5.199 -0.1291 -0.2428 -0.4403
36220W        W79211  12.236  34.460  18.421  0.0486  0.2745 -0.0223
36221W        W79212   3.122   3.193  26.156 -0.1444  0.1246  0.3176
36222W        W79213   2.513  34.114  21.445  0.0546 -0.1149 -0.1681
36223W        W79214   7.975   3.958   7.248  0.1220  0.1914  0.1380
36224W        W79215  34.705   6.576  17.719  0.0863 -0.0425 -0.0490
36225W        W79216   4.333  11.271  27.406 -0.0676 -0.0498  0.2190
36226W        W79217  13.183   7.550  16.111  0.1149 -0.1726 -0.1339
36227W        W79218  23.622   9.673  15.168 -0.1513  0.0892  0.1249
36228W        W79219  10.017  27.990  22.936 -0.0622  0.1029  0.0087
36229W        W79220   7.133  24.265  23.658  0.0060  0.0584  0.0967
36230W        W79221   0.459  33.799  27.271 -0.1194  0.2696  0.4256
36231W        W79222  32.536   3.950  15.174  0.2772  0.0322  0.1093
36232W        W79223  33.982  11.347  15.853  0.1981  0.0444  0.0808
36233W        W79224  10.635   4.080  22.003  0.0970 -0.0889  0.0598
36234W        W79225   5.497   7.372  19.053 -0.0571  0.0630  0.2103
36235W        W79226  34.567   9.432  16.962  0.0905 -0.0877  0.0344
36236W        W79227   6.128  26.851  23.447  0.1745 -0.0311 -0.3254
36237W        W79228   5.547  13.440  21.233  0.1769 -0.0084 -0.2474
36238W        W79229  31.684  27.576  21.643  0.0783  0.0330 -0.0146
36239W        W79230   4.489  14.528  18.073 -0.1924  0.0520  0.0445
36240W        W79231   8.943   8.371  24.210 -0.2043  0.0890  0.3887
36241W        W79232   9.994   3.137  15.325  0.0179 -0.1901 -0.1262
36242W        W79233  18.162   8.212  15.480  0.3873 -0.2072 -0.1626
36243W        W79234  15.454   2.250  17.583 -0.2925  0.1682  0.2737
36244W        W79235  15.300   9.180  26.768  0.1332 -0.7898 -0.3466
36245W        W79236   6.252  27.984  22.743  0.2709  0.2259 -0.0303
36246W        W79237   2.469   7.811  28.358  0.0820  0.0189  0.0018
36247W        W79238  17.969  34.277  25.978  0.1123 -0.2130  0.5765
36248W        W79239  30.636  32.558  19.721 -0.0680 -0.1464 -0.2404
36249W        W79240  32.680   4.289  18.107 -0.2400 -0.2703 -0.0791
36250W        W79241  13.758   0.482   7.137 -0.3320 -0.1971  0.1187
36251W        W79242   6.101  32.618  14.975 -0.1139 -0.0540 -0.2565
36252W        W79243   3.893   8.264  24.907 -0.1193  0.2171 -0.0848
36253W        W79244  26.480  20.594  15.942 -0.0000 -0.0385  0.2760
36254W        W79245  12.956  13.342  16.272 -0.3058  0.3354 -0.0208
36255W        W79246  34.239   9.958   8.055 -0.2117  0.0149 -0.1482
36256W        W79247   7.253  30.762  19.585  0.1699  0.0578 -0.1417
36257W        W79248  10.119  31.680  21.873 -0.1881 -0.0356  0.0210
36258W        W79249   1.357  17.936  27.455 -0.1045  0.1513  0.3835
36259W        W79250  10.825  14.520  18.611 -0.0336 -0.0351 -0.0136
36260W        W79251  20.262  13.080   4.386  0.0171  0.2571 -0.2088
36261W        W79252  20.448   8.298  22.275  0.3092 -0.0300 -0.2416
36262W        W79253   3.413   5.667  26.021 -0.1352 -0.1447 -0.0508
36263W        W79254  13.244  30.171  22.819 -0.3603  0.2298  0.1877
36264W        W79255  26.202  10.587  15.380  0.2062 -0.1887 -0.0389
36265W        W79256  33.788  28.164  15.573  0.0904 -0.0438  0.2466
36266W        W79257  30.096  32.047  18.161  0.2256 -0.1257  0.2114
36267W        W79258   4.090  21.842   0.730  0.0325  0.0476 -0.0051
36268W        W79259   7.889   1.401   2.519 -0.2069  0.0861  0.0738
36269W        W79260  14.083   0.643  18.197 -0.0521  0.0296  0.0944
36270W        W79261  10.939  14.095  20.003  0.0174 -0.0465 -0.0847
36271W        W79262  16.040  22.851  22.824 -0.0694 -0.0732  0.0436
36272W        W79263  14.712   4.880   0.735  0.0762  0.0598 -0.1551
36273W        W79264  29.721  24.889  19.304 -0.0401 -0.1282  0.0855
36274W        W79265  18.604  26.639  24.191 -0.0089  0.0562  0.0160
36275W        W79266  15.755   1.051  20.010 -0.0961 -0.3584 -0.1979
36276W        W79267   9.858  33.541  23.805 -0.1204 -0.1525 -0.1146
36277W        W79268  34.564   6.072  15.973 -0.0223 -0.0178  0.1704
36278W        W79269   6.026   3.351   2.250  0.2773  0.2070 -0.2357
36279W        W79270  33.641  19.663  14.466  0.2145  0.0364  0.0349
36280W        W79271  15.669   5.311  17.236  0.1879  0.2689  0.1229
36281W        W79272  17.157   7.816  27.306 -0.1420  0.2535  0.0724
36282W        W79273  30.954  31.163  25.252 -0.0469  0.0454 -0.1854
36283W        W79274   3.347  28.493  28.579  0.0297  0.5297 -0.2953
36284W        W79275  18.270  33.417   9.184 -0.0503  0.0145  0.2629
36285W        W79276  28.202  32.991   1.972  0.3927  0.0819 -0.1243
36286W        W79277   7.593  33.829  14.773 -0.0531  0.0572 -0.1394
36287W        W79278  23.547   5.331  18.149 -0.3566 -0.2602 -0.0392
36288W        W79279   4.032  27.291  14.177  0.0509 -0.1383 -0.0890
36289W        W79280   9.551   5.378  28.854  0.0480 -0.1078  0.0426
36290W        W79281  19.493  33.894  14.511 -0.0155  0.1488 -0.0305
36291W        W79282   2.367   5.565  28.167 -0.2092  0.2644  0.0134
36292W        W79283   3.938   8.632  15.800 -0.2039 -0.1091 -0.3063
36293W        W79284  33.627  14.198  17.813 -0.1995  0.0526 -0.1212
36294W        W79285  22.513  28.509  19.545  0.2006 -0.0867 -0.1429
36295W        W79286   0.244  24.585  19.252 -0.2782  0.1091 -0.2088
36296W        W79287   6.016  34.631  14.367  0.2891  0.2490 -0.0632
36297W        W79288  10.523   2.184   7.859  0.0352  0.1888 -0.0663
36298W        W79289   5.447  27.419  18.061 -0.2134  0.0627  0.2537
36299W        W79290  16.690  21.413  18.213 -0.0863 -0.1636 -0.2604
36300W        W79291  30.565  32.008  15.630  0.1991 -0.0828 -0.0658
36301W        W79292   9.478  30.757  24.668 -0.0118 -0.2981 -0.0289
36302W        W79293  14.224   8.099  25.444  0.1430 -0.0110 -0.0899
36303W        W79294  25.891  12.679  17.543 -0.0792  0.1759 -0.1101
36304W        W79295  25.655  14.032  17.836 -0.0257 -0.1047  0.0527
36305W        W79296   1.573   9.876   1.088 -0.1343 -0.2591 -0.0162
36306W        W79297   3.487  23.229   2.398 -0.2210 -0.1220 -0.0291
36307W        W79298  10.698   8.177  28.952  0.0321 -0.1454 -0.2663
36308W        W79299  14.327   6.983   5.226 -0.0302  0.4637  0.1560
36309W        W79300   9.243  31.025  14.612 -0.0084  0.0134 -0.3243
36310W        W79301   3.597  12.956   0.698  0.2035 -0.1576 -0.0298
36311W        W79302   2.025  17.288  18.918 -0.0614 -0.2608 -0.0518
36312W        W79303  19.663  15.517  24.576 -0.0542 -0.2484  0.1220
36313W        W79304  10.915   1.551  24.201 -0.0426  0.0450 -0.1890
36314W        W79305  30.830  24.844   2.100 -0.0573  0.1202  0.0123
36315W        W79306  11.978   8.720  22.708 -0.0024  0.0968  0.2587
36316W        W79307   6.189   3.377  16.323  0.0299 -0.1084  0.0410
36317W        W79308  26.307  16.343  24.193 -0.0830 -0.4198 -0.0023
36318W        W79309  19.005  33.457   1.329 -0.0382  0.1504  0.1867
36319W        W79310  32.843  18.989  19.383  0.1216  0.3253  0.2428
36320W        W79311   1.504  27.443   6.349  0.2628  0.1157 -0.0648
36321W        W79312  10.240   1.997  17.460 -0.1982  0.3413 -0.1028
36322W        W79313  28.333  17.250   0.309  0.2630  0.1412 -0.2886
36323W        W79314  28.214  12.001  27.709 -0.1271 -0.0069  0.3735
36324W        W79315  19.647  18.214  15.700  0.2638  0.0923  0.4206
36325W        W79316  18.470  34.573   0.422 -0.2374  0.0218  0.0551
36326W        W79317   2.640  29.277   8.845  0.0444  0.0071  0.2669
36327W        W79318  32.428   0.121  27.127  0.0234  0.0753  0.1993
36328W        W79319  18.856  32.856   7.756  0.4009 -0.0539  0.3696
36329W        W79320  21.843   1.512   6.582 -0.1241  0.0154 -0.2846
36330W        W79321   9.285   0.823  28.713  0.0589  0.1896  0.0961
36331W        W79322  14.209  33.376  14.611  0.0526 -0.0269  0.0416
36332W        W79323  29.476  15.604  17.376  0.0361  0.3259  0.1014
36333W        W79324   7.734   2.992  15.689  0.0240  0.0277 -0.2090
36334W        W79325   3.614   4.362  15.950  0.3010  0.1865 -0.0115
36335W        W79326  16.398   8.422   4.778  0.0763  0.1865  0.0417
36336W        W79327   2.245   3.902   4.613 -0.1953  0.1713 -0.1021
36337W        W79328  12.479   7.193  25.548 -0.1841 -0.2468  0.0977
36338W        W79329  22.806  12.762   2.163  0.3414  0.1251 -0.0482
36339W        W79330   8.045   1.349  14.648 -0.1775  0.1559 -0.0236
36340W        W79331   8.646   6.020  21.857 -0.0944 -0.1679  0.1019
36341W        W79332  10.175   6.803   0.180  0.0543  0.0864  0.1036
36342W        W79333  29.562   1.601  27.960 -0.1934  0.1114  0.0540
36343W        W79334  24.125  17.301  16.752  0.1873 -0.0679 -0.1388
36344W        W79335  13.635  25.319  27.294 -0.4017  0.1194  0.0872
36345W        W79336   4.476   3.529  16.138  0.0431 -0.0571  0.2196
36346W        W79337   6.514  33.483  15.185  0.3071 -0.0405 -0.2735
36347W        W79338  28.878  31.007  26.751 -0.0809 -0.1754  0.1036
36348W        W79339  17.957   3.029  17.791  0.0388 -0.1936  0.0851
36349W        W79340  24.884   3.721  15.696 -0.3917 -0.0571 -0.0115
36350W        W79341  15.115  29.305  28.130  0.0005  0.0278  0.0381
36351W        W79342  19.162  10.019  18.434  0.2398  0.1724 -0.1524
36352W        W79343   8.881  17.582   2.476 -0.0835  0.1400 -0.1271
36353W        W79344   7.977   0.373  10.351  0.2512 -0.1362  0.1723
36354W        W79345  14.920   9.162   0.930  0.0271 -0.5942 -0.3080
36355W        W79346   8.865  14.419  22.087  0.2778  0.0508  0.0146
36356W        W79347  32.116   1.055  15.961 -0.1058  0.4569  0.0467
36357W        W79348  11.231  16.853  24.740  0.1149 -0.4147 -0.1702
36358W        W79349  13.967  10.591   3.955 -0.0781  0.1365 -0.1850
36359W        W79350  25.454  10.117  22.485  0.0787  0.1040  0.0392
36360W        W79351  10.649   2.819  16.377 -0.0344 -0.0730 -0.1279
36361W        W79352  25.826   7.107  17.874  0.0413 -0.0278  0.1556
36362W        W79353  21.100  29.458  18.515 -0.1812 -0.0383  0.1188
36363W        W79354  33.165  33.089  21.960  0.1265 -0.1403 -0.0497
36364W        W79355   6.166   3.686  24.779 -0.0632  0.2894 -0.2379
36365W        W79356  25.608  10.777  13.706  0.0937 -0.1063 -0.1215
36366W        W79357  22.571   4.352   2.362 -0.3405  0.1503 -0.2773
36367W        W79358  12.255   9.492   0.155 -0.0664  0.1167 -0.3069
36368W        W79359  21.930   6.509   0.182 -0.0675 -0.0673 -0.1005
36369W        W79360  21.335  15.384  16.415  0.1207 -0.2254 -0.0301
36370W        W79361  17.490  30.436  20.479 -0.1813  0.4323 -0.2364
36371W        W79362   5.365   1.872  15.320  0.0823 -0.0243  0.0983
36372W        W79363  33.499  13.069  24.349  0.0099 -0.2480 -0.1885
36373W        W79364  11.389  14.958  15.044  0.3937 -0.1233 -0.3249
36374W        W79365  15.287   2.146  28.991  0.1715  0.0150 -0.2931
36375W        W79366  16.124  30.189  14.175  0.0180 -0.1841  0.0065
36376W        W79367   5.635   4.515  20.624 -0.0833  0.1292 -0.0974
36377W        W79368  16.929   5.901  19.009 -0.2748  0.1849 -0.0594
36378W        W79369  22.247  26.238  26.914  0.0932 -0.0908  0.2054
36379W        W79370  14.218   2.556  25.034  0.0152  0.0486  0.1397
36380W        W79371  25.474  15.644  22.610 -0.1243 -0.2486  0.4199
36381W        W79372  18.224  30.078  22.455  0.0492  0.0547  0.1823
36382W        W79373  15.146   4.906  20.761  0.3148  0.0711  0.0699
36383W        W79374  13.915   3.507   1.547  0.0309 -0.1343 -0.1300
36384W        W79375   9.090  15.288  20.871 -0.0501  0.0627 -0.3435
36385W        W79376  12.455   3.750   4.551  0.0969 -0.1678 -0.1101
36386W        W79377  16.678   0.254  16.561  0.3382  0.3546 -0.0940
36387W        W79378  18.985  34.240  25.097 -0.1102  0.1142 -0.0206
36388W        W79379   4.871   7.697  16.572  0.1380  0.1484  0.0377
36389W        W79380  13.876  24.455   1.885  0.0966  0.2584  0.1974
36390W        W79381  32.433   2.255  20.798 -0.1194 -0.1657  0.1295
36391W        W79382  28.358   8.882  25.583 -0.0510  0.2402 -0.0148
36392W        W79383   4.374  16.230   8.568  0.0838  0.0932 -0.2847
36393W        W79384   8.792   4.478  18.093 -0.0895  0.0101 -0.0565
36394W        W79385  16.663  19.392  25.685 -0.1483  0.0976 -0.3404
36395W        W79386  19.136  10.483  22.225  0.0944  0.1262  0.1506
36396W        W79387   2.178  15.157  21.335 -0.0800  0.0033  0.2139
36397W        W79388  11.269   1.957  16.027 -0.1424 -0.1279 -0.0584
36398W        W79389   7.502  20.020  15.703 -0.0091  0.2200  0.1503
36399W        W79390   3.593  31.019  20.502 -0.2282 -0.1042 -0.0568
36400W        W79391   5.924  20.748  16.543 -0.2042  0.0317  0.3114
36401W        W79392  13.820   1.301  15.285  0.2229  0.0976 -0.0583
36402W        W79393   1.057  29.448  18.551 -0.2398 -0.1033 -0.0815
36403W        W79394  15.721   7.569  20.754  0.1958 -0.1315  0.2957
36404W        W79395  31.243   3.536   0.400  0.0434  0.0574  0.1006
36405W        W79396  12.124  15.471  21.101 -0.2020  0.1753  0.1167
36406W        W79397  15.454   8.448  15.257 -0.1905  0.0806  0.0323
36407W        W79398   7.107  12.835   2.149 -0.2735 -0.2294 -0.2261
36408W        W79399  29.674  32.585  18.204  0.1997  0.1765  0.0456
36409W        W79400  14.701  23.747   5.728 -0.1295  0.2974  0.0799
36410W        W79401   2.053  33.988   5.217  0.2124 -0.3563  0.2709
36411W        W79402  14.757   0.281  24.078  0.1508  0.0708 -0.0483
36412W        W79403  21.533  26.101  19.791 -0.1111 -0.0527  0.2276
36413W        W79404  14.297  34.268  16.641 -0.0066 -0.1316  0.6302
36414W        W79405   5.319  10.365  23.059  0.1308 -0.1837 -0.1067
36415W        W79406  20.272   2.911  15.787 -0.0816 -0.0380  0.1249
36416W        W79407   0.619  15.813   3.636 -0.1077 -0.0445  0.1794
36417W        W79408   3.086  34.663  27.616 -0.2981  0.0037  0.1238
36418W        W79409  34.227  21.705  17.922  0.1138 -0.4982 -0.2171
36419W        W79410   9.775   0.995  17.046 -0.1254 -0.1311 -0.1678
36420W        W79411  19.199  32.871  18.198  0.1998 -0.3797 -0.0080
36421W        W79412   8.074  18.755  27.614 -0.0304  0.0346  0.0171
36422W        W79413   8.073  25.172  18.670  0.0785  0.0941 -0.0703
36423W        W79414  19.135  29.064  24.827 -0.0715  0.2014  0.0956
36424W        W79415  17.511  29.514  18.553 -0.0208 -0.3509  0.2152
36425W        W79416   6.948  16.904  24.985 -0.1548  0.0094  0.4799
36426W        W79417  29.614  30.615  15.354  0.4517  0.1412  0.0530
36427W        W79418   6.710  29.271  26.836 -0.1878 -0.0520  0.0731
36428W        W79419  34.700  22.693  23.029  0.1032  0.0331 -0.1898
36429W        W79420  11.491  17.159  15.789  0.0546  0.0141  0.1763
36430W        W79421  20.321   7.380  18.176 -0.0873 -0.0654  0.5303
36431W        W79422   9.569  34.030  25.290  0.0272  0.0993  0.0641
36432W        W79423  10.514   0.677  14.960 -0.0179  0.2275 -0.0765
36433W        W79424   9.023  32.801   8.651  0.0323  0.0210  0.2181
36434W        W79425   4.159   2.834  23.948 -0.0073  0.1240  0.1907
36435W        W79426  26.590  30.979  13.781 -0.0846 -0.0140  0.1102
36436W        W79427   4.185  28.332  15.404  0.1614 -0.2036 -0.0868
36437W        W79428  11.519  13.831  29.021 -0.4213  0.3921  0.3041
36438W        W79429   3.510  18.854  18.389 -0.0151 -0.1377  0.0190
36439W        W79430  16.814  12.828  13.471  0.3261  0.1302 -0.1140
36440W        W79431  18.791   3.557   1.326  0.4266 -0.2689  0.0112
36441W        W79432  13.848   1.197  18.158 -0.3000  0.0953  0.1556
36442W        W79433   4.836   0.791  21.562 -0.0379  0.1869  0.0930
36443W        W79434  11.130   3.318   3.362 -0.0715  0.1750 -0.1838
36444W        W79435  10.999  27.407  24.305  0.1423  0.0530 -0.0629
36445W        W79436  13.637   1.501  25.587  0.0822 -0.0823 -0.1029
36446W        W79437  34.784  31.355  18.878 -0.2806 -0.0676 -0.2592
36447W        W79438   5.342  30.590  18.261  0.2154  0.2413  0.1838
36448W        W79439   8.619  33.712  17.113 -0.0180 -0.0645 -0.0395
36449W        W79440   6.350   4.126  23.033 -0.0969  0.1978  0.0293
36450W        W79441  29.282  13.711  24.637 -0.1512 -0.3865  0.0729
36451W        W79442  26.386   9.838  17.457  0.2060 -0.0644 -0.0048
36452W        W79443  33.648   4.334   1.127  0.1606 -0.0505  0.1613
36453W        W79444  14.645  27.400  22.648 -0.2906  0.0231  0.0929
36454W        W79445  15.126  16.672  27.493 -0.2694 -0.2204  0.0168
36455W        W79446   0.509  18.269   3.684  0.1903 -0.0376 -0.1582
36456W        W79447   0.497   7.341   2.551 -0.0295  0.1986 -0.0365
36457W        W79448  22.369  25.323  22.427 -0.2526  0.1066 -0.3515
36458W        W79449  32.101   8.733   8.171 -0.0336 -0.0047 -0.0446
36459W        W79450  14.971  33.610  21.321  0.0759  0.2153  0.4930
36460W        W79451  32.025  16.038   2.618 -0.1910 -0.2870 -0.1632
36461W        W79452  27.649  33.563  15.298 -0.4061  0.1528  0.1788
36462W        W79453   7.225  31.488   1.764 -0.0779  0.1602 -0.0002
36463W        W79454  28.500  27.622  21.226  0.1440  0.1733 -0.0390
36464W        W79455  15.785   8.873  17.641 -0.1785 -0.0418 -0.0834
36465W        W79456   0.365  22.644  14.388  0.0935 -0.4223  0.0866
36466W        W79457   6.989   2.433  27.527  0.2651  0.0364 -0.1290
36467W        W79458   4.711   9.120   8.968 -0.0225  0.3396  0.0725
36468W        W79459  11.527  33.858  21.168 -0.1592 -0.1190 -0.0489
36469W        W79460   5.761  12.334   3.304 -0.0140  0.0811  0.1967
36470W        W79461   6.130   0.421  23.556  0.0030 -0.2036 -0.1691
36471W        W79462  13.005   4.845  21.596  0.1107  0.1000 -0.0302
36472W        W79463   0.672   6.985   9.722  0.0073  0.1486  0.4217
36473W        W79464  20.088  25.622  23.760 -0.2252 -0.3395  0.0014
36474W        W79465  12.175  22.240  24.366  0.0119  0.0545 -0.1816
36475W        W79466  10.960  34.683  23.427 -0.1320 -0.0546  0.0046
36476W        W79467   5.485  11.187  22.156 -0.0067  0.2112  0.3312
36477W        W79468   9.242  32.952  21.778  0.5256  0.2149  0.1120
36478W        W79469   2.738   8.625   1.872  0.3813  0.0116 -0.0944
36479W        W79470   9.244   0.029  19.791  0.1133 -0.3650  0.1378
36480W        W79471   2.040  32.184   7.382 -0.2028 -0.1662 -0.0174
36481W        W79472   8.378   8.228  11.166  0.0505 -0.2715  0.0460
36482W        W79473   2.598  16.351  18.959  0.0260 -0.0508 -0.1496
36483W        W79474  20.263  30.104  15.552 -0.0999  0.1865  0.1442
36484W        W79475   3.829   1.110  23.084  0.0389  0.0072 -0.0559
36485W        W79476  17.399   9.572   3.771  0.0870 -0.1308 -0.0540
36486W        W79477   1.308  28.749  14.712 -0.2147 -0.0443 -0.1052
36487W        W79478  10.419   6.080  28.030  0.0763  0.2740  0.2489
36488W        W79479   5.897  30.898  21.407 -0.0019  0.0076 -0.0191
36489W        W79480  28.456   5.670  17.820 -0.1863 -0.0836 -0.0830
36490W        W79481  16.862  11.674  29.006 -0.0207 -0.0657  0.1508
36491W        W79482   7.706  17.700  19.957 -0.1738  0.3274  0.2152
36492W        W79483  31.755   5.185  17.143 -0.1868 -0.2025  0.1189
36493W        W79484  18.145  33.550  18.955 -0.0839  0.2444 -0.0730
36494W        W79485  34.367  23.796   8.627  0.0438 -0.0969 -0.0173
36495W        W79486  28.475  29.119  19.780 -0.2396  0.3062 -0.0310
36496W        W79487   6.575   9.024  15.821  0.2562  0.3186 -0.1845
36497W        W79488  15.075  11.687  23.507 -0.0488  0.1175  0.0470
36498W        W79489  29.501  24.683  27.758  0.2723  0.1099  0.0645
36499W        W79490   3.461   4.109   7.363 -0.1316 -0.1216 -0.1847
36500W        W79491  20.945  18.715  16.751  0.1492 -0.2495  0.0049
36501W        W79492   3.739  10.353  15.549  0.2751 -0.2751 -0.0408
36502W        W79493  21.392   4.493   6.462 -0.0486 -0.1385 -0.2351
36503W        W79494  30.653   7.633  14.785  0.1506  0.1764  0.1215
36504W        W79495  15.894  33.351  17.644  0.0073 -0.0978  0.0143
36505W        W79496  24.392   7.721  19.444  0.0589 -0.7615  0.0222
36506W        W79497  16.530  20.611  24.103 -0.0933  0.4736 -0.2186
36507W        W79498  21.989  33.331  15.607 -0.0860 -0.0795 -0.2365
36508W        W79499  14.127  28.277  14.578  0.0150 -0.0701 -0.3951
36509W        W79500   1.850  12.317  23.998 -0.1792  0.4427  0.1063
36510W        W79501  25.430   6.355  14.879 -0.2804 -0.0531 -0.0957
36511W        W79502  18.027  23.980  22.721  0.2188 -0.0683  0.0267
36512W        W79503   5.838  26.854  22.974 -0.1632 -0.1173  0.0551
36513W        W79504  14.453   8.707   1.116  0.0466 -0.0842  0.2198
36514W        W79505  22.415   4.726  21.072  0.2947 -0.0635  0.4144
36515W        W79506   1.708   6.901   8.994  0.2710  0.2547  0.0530
36516W        W79507  11.394   8.315   2.953 -0.1718 -0.1441 -0.2816
36517W        W79508  11.138  17.702  20.933  0.1826  0.2980 -0.3327
36518W        W79509   8.766  32.925  16.113 -0.0347 -0.0814 -0.0254
36519W        W79510  20.494   6.258  15.573 -0.1288 -0.1344 -0.2458
36520W        W79511  16.678   6.629   4.947  0.1614  0.0063  0.2158
36521W        W79512   1.694  32.783  10.196 -0.0683  0.1722  0.0554
36522W        W79513  33.385  21.426   1.520  0.3595  0.0820 -0.1723
36523W        W79514  20.339  32.357  15.723 -0.0082  0.3302 -0.1382
36524W        W79515   4.960   6.486  22.508  0.2430  0.4722  0.0056
36525W        W79516  13.898  33.837  28.360  0.4983 -0.2310 -0.1956
36526W        W79517   7.448   6.409  20.073 -0.0384  0.1706 -0.0900
36527W        W79518  16.200  32.817   9.861 -0.2251 -0.0813  0.0137
36528W        W79519  14.235   4.793  17.930  0.3471 -0.0298  0.0628
36529W        W79520  21.464   3.918  25.709 -0.2789 -0.1157  0.0964
36530W        W79521  19.298  32.555  18.692  0.1842 -0.0738 -0.1091
36531W        W79522  14.388  14.246   7.300  0.1080 -0.1614  0.0477
36532W        W79523   1.783  27.863  28.424 -0.3856  0.1734 -0.2191
36533W        W79524   8.028   3.828  27.590  0.2548  0.1831 -0.5154
36534W        W79525  34.676  11.238  19.136  0.0875  0.0747 -0.0933
36535W        W79526  13.134  23.470  13.970  0.0674 -0.3515 -0.0923
36536W        W79527   6.071   0.069  17.711 -0.0206 -0.2555  0.0349
36537W        W79528  30.637  10.120  26.594 -0.1594  0.1334 -0.0160
36538W        W79529  22.365  15.760  28.605 -0.3725  0.2043  0.1969
36539W        W79530   5.990   8.731  18.446  0.1425 -0.0076 -0.0546
36540W        W79531   4.124  33.153  24.570  0.2717  0.1408  0.2228
36541W        W79532  18.246   1.246  19.911  0.1169 -0.1399 -0.1190
36542W        W79533  23.725  29.097  14.012  0.1843  0.1298 -0.0095
36543W        W79534  32.005   6.341  25.774 -0.1203 -0.2014 -0.0458
36544W        W79535  29.007   6.725  22.823  0.0678 -0.1793 -0.0689
36545W        W79536  29.963  25.728   9.072  0.1281  0.1173 -0.4561
36546W        W79537   3.697  33.943  17.504 -0.1809 -0.2252 -0.1561
36547W        W79538   3.071   1.897  22.213 -0.0898 -0.1380  0.2718
36548W        W79539  11.860  29.366  21.754 -0.2730  0.0789 -0.0351
36549W        W79540  30.391   5.217  25.775  0.1889  0.0132  0.1391
36550W        W79541   3.645   7.561  23.191  0.0715  0.2964 -0.1849
36551W        W79542   4.871  16.088  26.522  0.2831 -0.4491  0.1154
36552W        W79543   1.718  31.549  27.231 -0.1788  0.0829 -0.1689
36553W        W79544  14.131  13.738  27.105 -0.3180 -0.4959 -0.0219
36554W        W79545   9.042  30.093   6.706  0.0024 -0.2703 -0.0876
36555W        W79546  20.168   3.641  27.373 -0.4507  0.0429  0.1780
36556W        W79547   5.880  32.917   2.507  0.1197  0.0658  0.1969
36557W        W79548  19.742   5.195   3.484  0.0593  0.2301 -0.1779
36558W        W79549  12.780   3.517   8.173 -0.0048 -0.0137  0.1244
36559W        W79550   6.604   7.662  17.048  0.2619  0.3741  0.0456
36560W        W79551  30.994   1.917  15.988  0.1072  0.1087  0.1671
36561W        W79552  27.742  10.926  17.584 -0.1107  0.1670  0.3484
36562W        W79553  21.652  11.936  18.606 -0.0822 -0.1001  0.0557
36563W        W79554   4.106  27.660   7.786 -0.0191 -0.1114  0.1734
36564W        W79555  10.695   0.453   5.792 -0.5359 -0.0255  0.0714
36565W        W79556   0.518  29.590  18.533 -0.1776  0.0205 -0.1840
36566W        W79557   6.028   1.629  20.141  0.0405  0.0683  0.0457
36567W        W79558  18.904  32.741  27.999 -0.2680  0.4016  0.0754
36568W        W79559   3.225  26.418  23.265  0.1199  0.0632 -0.1507
36569W        W79560  34.382  32.902  18.402  0.0427  0.2578  0.3236
36570W        W79561  17.625  13.325  17.096 -0.0260  0.1155 -0.0344
36571W        W79562   4.634   2.122   0.684 -0.0569 -0.3784  0.2244
36572W        W79563  24.064  12.179   2.919 -0.1947  0.0139 -0.3053
36573W        W79564  33.676   8.111   0.858  0.1920  0.0602 -0.1578
36574W        W79565   8.232  28.148  17.691  0.0811  0.1695  0.1388
36575W        W79566  16.792  31.327  18.402  0.0281 -0.0557  0.1327
36576W        W79567   8.073   1.605  21.069  0.3657  0.1212 -0.1353
36577W        W79568  28.608   1.336  21.598 -0.0826  0.2455 -0.0662
36578W        W79569  14.847  21.771  25.078  0.0575 -0.0783  0.0847
36579W        W79570  20.488  29.238  17.705 -0.1351 -0.0106  0.3179
36580W        W79571   4.726  24.715  20.538 -0.2930  0.0260 -0.0552
36581W        W79572  17.795  27.538  15.732  0.1002  0.2139 -0.1815
36582W        W79573   9.921   3.717  24.128  0.1100  0.0534 -0.1186
36583W        W79574   0.059   3.934  17.636 -0.2319 -0.1789  0.1993
36584W        W79575   9.748   4.347  25.073 -0.0240  0.2734  0.1141
36585W        W79576   5.481   4.593   2.548 -0.0146  0.1464  0.1822
36586W        W79577  27.260   4.184   0.364  0.2827 -0.1019 -0.0671
36587W        W79578   2.717   9.481  17.044 -0.2305  0.0933 -0.2427
36588W        W79579  25.613  33.773  24.818 -0.1264 -0.1784  0.2274
36589W        W79580  16.414  10.502  22.534 -0.0438 -0.3521 -0.1073
36590W        W79581  12.547  34.147   7.715  0.1112  0.0609  0.2412
36591W        W79582  23.553   6.911   4.756 -0.1176  0.0838 -0.2391
36592W        W79583  34.475  32.971   4.315  0.1225  0.0019 -0.0319
36593W        W79584   6.504  32.264  27.656  0.1312 -0.0230 -0.3807
36594W        W79585  13.000  11.036  18.447 -0.5357  0.4044  0.0657
36595W        W79586   7.349  12.375  27.974  0.3157 -0.3672 -0.1860
36596W        W79587  19.449  13.680  13.551 -0.2617  0.1883  0.2322
36597W        W79588   8.962  17.501   5.477  0.2139  0.2614  0.1933
36598W        W79589  11.768   2.477   8.076 -0.1372 -0.2422  0.0238
36599W        W79590  28.413   9.588  17.342  0.2779 -0.4815 -0.1763
36600W        W79591  31.838  29.628   6.962  0.1201  0.0970 -0.1926
36601W        W79592  14.282  29.105  23.700 -0.2850  0.1477 -0.2954
36602W        W79593   7.084   2.450  19.341  0.1094  0.2867  0.2748
36603W        W79594  13.099   3.186  25.791  0.1712  0.4219 -0.2938
36604W        W79595  27.093  28.489   5.181 -0.2238  0.0778  0.1070
36605W        W79596   8.789   4.127   3.395  0.1413  0.2328  0.0782
36606W        W79597  13.172  15.540  21.544  0.0928  0.0991 -0.3330
36607W        W79598  24.044  10.187  24.284 -0.2638 -0.3413  0.0390
36608W        W79599   3.714   9.687  15.330 -0.0175 -0.1925 -0.0631
36609W        W79600  30.641   4.258   5.536  0.1222 -0.2625  0.1087
36610W        W79601  31.933  27.209  23.042 -0.1349  0.0448 -0.1217
36611W        W79602  25.679   5.340  20.392  0.1062  0.1422  0.3279
36612W        W79603   0.787  32.890   2.472  0.0596  0.0213 -0.3006
36613W        W79604  21.345  22.959   6.420  0.4064 -0.4100  0.1355
36614W        W79605   6.170   4.718  17.216  0.0782  0.1422 -0.0569
36615W        W79606   8.868  21.932   2.007 -0.2115 -0.2153 -0.1916
36616W        W79607  13.625   0.034  18.422  0.0919  0.0627  0.2357
36617W        W79608  16.775  31.078  19.272 -0.0747 -0.2641 -0.0209
36618W        W79609  10.539  29.460  18.146 -0.0630  0.2077 -0.0494
36619W        W79610  11.873  12.010   4.498 -0.3078  0.1073 -0.2478
36620W        W79611   6.013   8.313  28.533 -0.0220 -0.2763 -0.1136
36621W        W79612  15.913  18.345  25.471 -0.1131  0.2493  0.1123
36622W        W79613  11.781  29.166  18.678  0.1805 -0.2144 -0.2415
36623W        W79614  17.040   4.657  15.960 -0.2826 -0.2638 -0.2455
36624W        W79615   7.088  17.298   5.016  0.1891  0.1883  0.0669
36625W        W79616  16.729   2.544   3.906  0.0062  0.1833  0.2420
36626W        W79617  19.772   0.922  15.449  0.1100 -0.1221  0.1447
36627W        W79618  14.063   7.149  21.090  0.1140  0.1057  0.1656
36628W        W79619   9.410   0.052  22.504  0.0043  0.2511  0.0604
36629W        W79620  13.301  29.747  27.304  0.1551 -0.0232  0.0444
36630W        W79621  13.617   6.517   2.964  0.1868  0.0930 -0.0977
36631W        W79622   4.864  12.047  16.156 -0.0362  0.0255 -0.0113
36632W        W79623  33.505   4.615  16.205 -0.2912  0.1520  0.0955
36633W        W79624  10.005  22.270   0.358 -0.3317  0.1990  0.2788
36634W        W79625   5.643   1.888  24.425  0.0058 -0.1601  0.0710
36635W        W79626   8.769   7.782  27.185 -0.0537 -0.3804 -0.2005
36636W        W79627   2.664  31.312   0.708 -0.2136 -0.2379 -0.0553
36637W        W79628  11.578   4.751   4.549  0.1059 -0.0349  0.4987
36638W        W79629  19.889  32.559   5.331 -0.3890  0.2914 -0.0606
36639W        W79630   8.821   4.402   1.896 -0.1192 -0.1256  0.0757
36640W        W79631  33.531   1.486  17.939 -0.1060  0.0816  0.0909
36641W        W79632   4.752   1.193   1.804 -0.3906 -0.2672  0.0247
36642W        W79633  32.155  27.096  13.952 -0.0240 -0.1837  0.1731
36643W        W79634  34.294  17.447   5.271  0.0104  0.1062 -0.0440
36644W        W79635  30.319   2.276  29.037 -0.1967  0.1079 -0.0469
36645W        W79636   1.348   6.250  15.478  0.2944 -0.3008  0.0186
36646W        W79637  27.041   3.972  22.097  0.1001  0.0012 -0.0116
36647W        W79638  17.086   6.406  23.136 -0.0556 -0.3979  0.1974
36648W        W79639  34.581   5.171  20.159  0.1634 -0.1068  0.1638
36649W        W79640   1.259   7.794  15.553  0.2698 -0.0199  0.0664
36650W        W79641   2.765   5.730  26.237 -0.2770 -0.0458 -0.0553
36651W        W79642  12.637   0.132   0.824  0.1139  0.1210  0.2362
36652W        W79643  24.315  22.303  25.027  0.1565  0.3257 -0.0019
36653W        W79644   4.749  32.930  25.232  0.0625 -0.0958 -0.4089
36654W        W79645  17.763  30.710  25.781 -0.0126  0.2411  0.2746
36655W        W79646   3.915   1.359  26.072 -0.4995 -0.0953 -0.0953
36656W        W79647  16.264   2.984   9.240  0.0376  0.1979  0.0396
36657W        W79648  11.580   4.347  26.400  0.1173 -0.3363 -0.0749
36658W        W79649   8.356  30.058  19.133 -0.0469  0.4183  0.2984
36659W        W79650  13.509   5.381  19.277 -0.2178 -0.1284  0.2566
36660W        W79651   6.779  20.881  20.622  0.2987 -0.0404 -0.4576
36661W        W79652  24.115   6.231  21.974 -0.0442 -0.1765  0.1080
36662W        W79653  20.516  31.254   2.986  0.1250  0.1194  0.1856
36663W        W79654   8.134  14.439  20.236  0.3025 -0.3050 -0.1084
36664W        W79655  26.234  25.816  26.474  0.0418 -0.2190 -0.1642
36665W        W79656  33.914  12.436  21.808 -0.1888  0.1882 -0.0213
36666W        W79657  34.773  31.166  23.455  0.0584  0.2246  0.1646
36667W        W79658  10.201   1.926  21.850  0.0630 -0.0588 -0.0686
36668W        W79659  10.603   6.031   9.203  0.2339 -0.3154 -0.2172
36669W        W79660  21.721  30.004  28.661  0.0396  0.2995  0.0481
36670W        W79661   9.655   4.835  19.235 -0.0748 -0.1145 -0.1261
36671W        W79662  29.454  10.067  18.745  0.2460  0.0397  0.1388
36672W        W79663  21.181  28.155  22.566 -0.1538  0.0411 -0.2016
36673W        W79664   1.677   7.620   1.938 -0.0165 -0.3968 -0.0892
36674W        W79665  26.451  34.772   3.653  0.0307  0.0544 -0.2040
36675W        W79666  18.560   2.669  27.448  0.1449  0.2421 -0.2384
36676W        W79667   2.085  33.736  25.957  0.0820 -0.1027  0.1491
36677W        W79668   9.492  10.512  27.786  0.1198 -0.2296 -0.0029
36678W        W79669   3.407   6.801  21.524 -0.1640  0.1471  0.0204
36679W        W79670  33.596  32.329  24.684  0.1249  0.0672  0.2314
36680W        W79671   5.296  13.077  17.454 -0.1020 -0.1305 -0.2422
36681W        W79672  16.533   0.327   6.577 -0.0328 -0.3323  0.5174
36682W        W79673  21.670  13.962   9.644  0.4386  0.2655 -0.2012
36683W        W79674   0.874   4.535  21.257 -0.0266 -0.2997  0.3009
36684W        W79675   8.247   9.990  26.142  0.3071  0.0865 -0.0401
36685W        W79676  21.605  13.371  15.331 -0.0497 -0.4224 -0.2148
36686W        W79677  10.843   5.598  29.015 -0.2525  0.0005 -0.3464
36687W        W79678  30.248  33.139  26.359 -0.1330 -0.1223  0.0297
36688W        W79679   2.551   5.504  22.594 -0.0067  0.0374 -0.1248
36689W        W79680  13.406  13.231  17.602  0.1726  0.0848 -0.1505
36690W        W79681   6.001  24.154   1.223 -0.1452 -0.3213  0.0187
36691W        W79682  33.472  30.888  19.023 -0.0641  0.1342 -0.2452
36692W        W79683  15.323   4.687  15.021 -0.0533  0.1252 -0.0841
36693W        W79684   4.204  30.097   7.573  0.3042  0.0322  0.3314
36694W        W79685  13.713   7.082  25.174 -0.2077 -0.0630  0.3086
36695W        W79686  27.529   4.442   1.005 -0.1922 -0.2775  0.1058
36696W        W79687   9.055  26.173  17.012 -0.0308  0.0847 -0.0349
36697W        W79688  11.726  30.670  28.276  0.0348  0.1337  0.4170
36698W        W79689  25.153  18.227  28.650 -0.0526  0.0110 -0.1784
36699W        W79690  32.632  30.466  13.032  0.5214  0.2506 -0.0868
36700W        W79691  12.860   2.352  16.729  0.0033  0.0170 -0.0056
36701W        W79692  30.657   6.846  20.391 -0.1300 -0.2015  0.4000
36702W        W79693  10.719   5.548  24.111 -0.3363  0.3062  0.2229
36703W        W79694  23.470  19.509  26.866 -0.2608  0.2433  0.3640
36704W        W79695   9.715  24.125   4.877  0.1833  0.2847 -0.1224
36705W        W79696  27.995   2.855  15.612  0.0189 -0.1485 -0.2490
36706W        W79697  13.225  15.922   6.291  0.2785  0.3195  0.1446
36707W        W79698  16.876  29.556   6.205  0.3192 -0.1373  0.1736
36708W        W79699  21.711  24.715  17.644  0.3780 -0.1306 -0.1908
36709W        W79700  24.459   8.384  21.641 -0.0796 -0.0378 -0.4312
36710W        W79701   3.153  12.118  16.671 -0.2566 -0.4322 -0.1349
36711W        W79702   6.973  24.564   5.393 -0.0792  0.3113  0.1431
36712W        W79703  19.591   1.236  14.685 -0.0464  0.0573  0.0926
36713W        W79704  14.512   0.441  29.116  0.3466  0.2464 -0.0669
36714W        W79705  32.316  32.522  13.355 -0.0460  0.3622  0.2104
36715W        W79706   2.884  10.591  26.967  0.1485  0.2481 -0.0868
36716W        W79707  15.128  30.966   1.693 -0.3203  0.1796  0.0269
36717W        W79708   6.073   1.421   6.860  0.2933  0.0605  0.3683
36718W        W79709  12.662   7.010  17.904 -0.0337 -0.1202 -0.0931
36719W        W79710   6.511  24.279  24.312 -0.2933  0.1459  0.1570
36720W        W79711  33.070   4.200   2.330 -0.1855 -0.2424 -0.1300
36721W        W79712  34.478  28.562  20.722  0.0877  0.1692 -0.0146
36722W        W79713   9.761  26.122   0.957  0.0533 -0.1029 -0.2095
36723W        W79714  30.386  31.640  15.924 -0.0521  0.3366  0.0349
36724W        W79715  12.648   5.531  23.520 -0.2943 -0.0777  0.0429
36725W        W79716  31.095   2.512  17.039 -0.2149  0.1797  0.0786
36726W        W79717  16.407   4.824  16.784 -0.0197 -0.2297  0.0713
36727W        W79718  25.033   9.759  19.719  0.0096  0.0260 -0.1461
36728W        W79719   4.458   2.248   9.157 -0.0465 -0.1615  0.0551
36729W        W79720  13.735  26.651  15.301  0.2136 -0.2432 -0.1116
36730W        W79721   1.441   2.983  25.574  0.2288  0.0360  0.0833
36731W        W79722   9.536   4.312   4.802  0.1690 -0.0649  0.1458
36732W        W79723   8.423   8.821   4.351 -0.0789 -0.0777  0.1524
36733W        W79724  13.972   5.754  27.854 -0.0138 -0.4729 -0.1297
36734W        W79725  25.342   0.154  22.244 -0.0905  0.0978 -0.0821
36735W        W79726  34.283   7.569  17.349  0.2101  0.3100 -0.1053
36736W        W79727   3.381  31.004  25.846 -0.4514 -0.4579 -0.4551
36737W        W79728  17.057  33.542   3.576  0.1968 -0.1457 -0.1915
36738W        W79729   0.520   0.029  14.309  0.1237  0.2715 -0.0580
36739W        W79730   6.142  25.926  19.893 -0.0949 -0.0548 -0.1080
36740W        W79731  12.919  23.441  21.724 -0.2053 -0.0887  0.1474
36741W        W79732  32.510  26.912  17.019  0.1841 -0.0854 -0.0009
36742W        W79733  23.053  31.944   2.059 -0.1530 -0.1306  0.2363
36743W        W79734  11.533  33.149   3.602  0.1137  0.3451 -0.3399
36744W        W79735  20.756  11.203  22.725  0.2910  0.1081  0.0013
36745W        W79736  25.904  30.240  24.380  0.0530 -0.1905  0.1627
36746W        W79737  11.813   4.175   3.320 -0.1447  0.0917  0.1165
36747W        W79738  22.261  34.151   3.919 -0.1205 -0.4043 -0.0761
36748W        W79739   8.853   1.544  20.688 -0.2637 -0.1655  0.0127
36749W        W79740  19.772  33.543   1.715  0.2381  0.1560  0.1282
36750W        W79741  34.535   4.767   6.903  0.1728 -0.0624  0.3724
36751W        W79742  26.989  33.446   4.738  0.1059 -0.0118 -0.2620
36752W        W79743   8.910   8.692   7.896  0.2121  0.2535 -0.0922
36753W        W79744  26.292  30.379  24.722  0.0403 -0.2073 -0.2558
36754W        W79745   4.849  11.545  16.137  0.1898  0.2139 -0.0507
36755W        W79746  11.535  25.906  28.423  0.0661 -0.1493  0.0168
36756W        W79747   2.092   8.588  16.302  0.2740  0.3046 -0.2771
36757W        W79748  13.118   3.013   1.964  0.0285 -0.1472  0.0838
36758W        W79749  30.094   5.214  13.573 -0.0319  0.1748  0.1582
36759W        W79750  10.595   5.367   9.497 -0.0157  0.2061 -0.3939
36760W        W79751   7.568  28.517  25.549 -0.3770  0.0445 -0.3333
36761W        W79752  11.024   4.000  21.577  0.3846 -0.1268 -0.0068
36762W        W79753  26.718   4.789  14.296 -0.0801  0.1654 -0.1895
36763W        W79754  11.433  32.569  24.604 -0.1489 -0.0556 -0.0231
36764W        W79755  29.510  18.790  23.017 -0.0007 -0.1289  0.0624
36765W        W79756   6.644   7.486   0.893 -0.3122 -0.1245 -0.1857
36766W        W79757   9.873  15.989   2.936 -0.2892  0.0014  0.3024
36767W        W79758   8.133  24.951  26.564 -0.2176 -0.0546 -0.1012
36768W        W79759  14.023  30.442  29.183 -0.2525  0.0973 -0.0919
36769W        W79760  33.530  10.896   5.964  0.0645 -0.2762 -0.1707
36770W        W79761  13.506   6.712  19.163 -0.0329  0.0080 -0.0160
36771W        W79762  11.128   7.747  24.850 -0.0271 -0.0534 -0.0452
36772W        W79763  11.169   9.875   6.444  0.1912  0.3444  0.0871
36773W        W79764   2.132  31.946   0.241  0.2075  0.1659  0.3107
36774W        W79765  22.162   5.636  15.289 -0.0857  0.2039  0.1017
36775W        W79766  20.716  28.841  17.976 -0.1804  0.1799  0.0351
36776W        W79767  28.534   4.948  14.536 -0.1312 -0.1261  0.1901
36777W        W79768   8.490  28.535  26.176  0.4667  0.0212 -0.0312
36778W        W79769  20.241  28.040  25.220  0.1272  0.2585 -0.0320
36779W        W79770  15.630  32.084  29.166 -0.0926  0.0218  0.0769
36780W        W79771  24.502  31.469  24.184 -0.0144  0.0260 -0.1524
36781W        W79772   4.957   8.386  26.933 -0.4200 -0.2318 -0.0253
36782W        W79773   7.338   5.385  20.567  0.0514 -0.0448  0.0571
36783W        W79774  33.488   9.980  15.761 -0.0340 -0.1456  0.1373
36784W        W79775   9.872   8.112  11.430  0.1939  0.3801 -0.0994
36785W        W79776  14.966  11.891  27.526 -0.1342 -0.1518 -0.2993
36786W        W79777  34.610  16.231  26.043 -0.1515 -0.1579 -0.0257
36787W        W79778   7.546  10.844  27.858 -0.0011 -0.3640  0.2744
36788W        W79779   8.885  32.297   5.300 -0.0542  0.1493 -0.4074
36789W        W79780   5.395   8.004  22.844 -0.0212  0.0785 -0.1076
36790W        W79781  22.054   2.604  27.712 -0.0442  0.2965  0.2796
36791W        W79782  17.408  33.260  16.573 -0.0887 -0.0998  0.1205
36792W        W79783   8.656   2.127  26.484 -0.0521  0.0615  0.2257
36793W        W79784   7.950   6.099   7.094 -0.1902  0.0778 -0.1356
36794W        W79785  34.771   7.416  20.441 -0.1402  0.2153  0.0081
36795W        W79786  25.412   5.026  17.628  0.1499 -0.0727  0.0981
36796W        W79787  32.518  20.137  22.066 -0.0852  0.3525 -0.2521
36797W        W79788  11.368  23.069  20.854  0.0097 -0.4948  0.2440
36798W        W79789   6.959  15.278   1.347  0.0545 -0.1851  0.0587
36799W        W79790   3.910   3.685   0.459  0.3505 -0.0007  0.1504
36800W        W79791  22.041  34.017   4.393  0.0356 -0.3713  0.3042
36801W        W79792   7.173   8.583  22.180 -0.0331 -0.1179  0.4487
36802W        W79793   8.140   7.686   7.521 -0.0419 -0.0364  0.1055
36803W        W79794  28.697   4.162  16.133  0.0080 -0.0358  0.1297
36804W        W79795   2.667  12.896  16.914 -0.0609 -0.1433 -0.1138
36805W        W79796   6.131  11.521  21.620  0.0330 -0.1131 -0.0182
36806W        W79797  33.701   9.911  29.257  0.1723  0.2568  0.4054
36807W        W79798   8.543   5.873  18.969  0.1579  0.1084  0.0532
36808W        W79799   6.523  12.078  25.579  0.1716 -0.1371  0.2206
36809W        W79800   7.917  24.084  21.316 -0.1840 -0.1944  0.2746
36810W        W79801  19.500   6.294  21.447  0.0080 -0.1500  0.1523
36811W        W79802   6.484   0.391   5.397 -0.0813  0.1315 -0.2134
36812W        W79803   3.849  34.740  21.141  0.0413  0.3079  0.2007
36813W        W79804  17.060  29.727  26.580 -0.0039 -0.3980 -0.0512
36814W        W79805   8.964   1.421   2.859  0.1438 -0.1012  0.2845
36815W        W79806  15.027   1.930  21.561 -0.3193  0.0570  0.0886
36816W        W79807  12.261  28.228  20.407  0.0259  0.0676  0.2108
36817W        W79808  21.606   5.082  20.647  0.0037 -0.2250 -0.1348
36818W        W79809  10.799  31.786  14.844 -0.0046 -0.1830  0.0596
36819W        W79810  18.244   2.824   9.242 -0.3742 -0.1502  0.1308
36820W        W79811  22.681  31.583   3.945  0.2880  0.3081 -0.1740
36821W        W79812  31.073   6.485  16.633  0.1450  0.1883  0.1481
36822W        W79813  16.705  32.127  21.529 -0.0776  0.0682 -0.1241
36823W        W79814   0.543   3.345  23.558  0.3323  0.1221 -0.0424
36824W        W79815   5.044   8.621  25.089  0.3935 -0.2299  0.0271
36825W        W79816  18.870   8.738  22.860  0.1447  0.0782  0.1876
36826W        W79817   8.140  21.403  24.782 -0.3439  0.0026 -0.0325
36827W        W79818   2.379  30.492  19.930  0.3733 -0.1363  0.0559
36828W        W79819   8.761  27.864  22.361 -0.2140 -0.1428 -0.1475
36829W        W79820   1.954   8.597  20.063 -0.2741 -0.0407  0.0649
36830W        W79821  11.814   0.300  14.677 -0.2244 -0.1151  0.2134
36831W        W79822  13.153   4.686  17.151  0.1436  0.1666  0.2221
36832W        W79823  22.183   3.623   6.320  0.0867  0.1129 -0.2984
36833W        W79824   5.647   2.955  27.701  0.3860  0.0695  0.1567
36834W        W79825   9.577  26.815  15.111  0.0129 -0.0625 -0.0667
36835W        W79826   7.397   4.111  23.676 -0.0681  0.1770  0.0840
36836W        W79827   9.304   7.760  20.646  0.1367 -0.0322 -0.3424
36837W        W79828  16.187  26.604   3.672  0.0828 -0.3027  0.0255
36838W        W79829  10.159   3.098  23.510  0.0294 -0.0256 -0.4163
36839W        W79830   5.803   5.828  18.825 -0.1818  0.3037  0.2349
36840W        W79831  15.241  13.924  18.977 -0.0643 -0.0606 -0.0790
36841W        W79832   3.240  33.865   5.708  0.0896 -0.0335  0.0076
36842W        W79833   2.509   2.358  19.418  0.1082  0.2264  0.1969
36843W        W79834  34.362  34.004   0.906  0.0157 -0.2417 -0.2622
36844W        W79835  29.553  19.965  19.793  0.0881  0.2655  0.1194
36845W        W79836  33.373   1.440   4.530  0.4219 -0.3703 -0.1650
36846W        W79837   5.250  14.261  17.919  0.4461  0.2667  0.2293
36847W        W79838  33.901   7.213  16.331 -0.2035 -0.0235 -0.0627
36848W        W79839   9.311   2.390   0.510  0.1846 -0.0330  0.1158
36849W        W79840   2.551  31.763   6.433 -0.2402 -0.0535  0.0488
36850W        W79841   9.153   0.128  26.940 -0.1191 -0.1089 -0.0076
36851W        W79842   8.177  23.587  24.345  0.2322 -0.1132 -0.0896
36852W        W79843  15.121  29.838   0.440  0.1764 -0.1053 -0.1616
36853W        W79844   6.600  29.746  23.336  0.2557 -0.0373  0.0268
36854W        W79845  10.469  12.024  23.452 -0.1738  0.0144  0.1235
36855W        W79846   2.815   3.893   0.569  0.1443 -0.1007  0.0207
36856W        W79847  11.321  15.947  22.723 -0.0151 -0.1038  0.2307
36857W        W79848  10.297  22.825  20.497  0.0587 -0.1655 -0.2636
36858W        W79849  12.139  10.170  26.640 -0.0318  0.1119 -0.4751
36859W        W79850   9.782   5.391  15.628  0.2556  0.0408  0.0034
36860W        W79851   8.765   9.692  17.663 -0.2630 -0.2499  0.2684
36861W        W79852  25.350   6.837  27.313 -0.0166 -0.0443 -0.3280
36862W        W79853   8.478  19.363  19.192 -0.1966  0.0263 -0.1552
36863W        W79854   3.337   6.274  19.662 -0.0810  0.2103 -0.1109
36864W        W79855  17.381  18.779  25.707 -0.0923 -0.1316 -0.1028
36865W        W79856  18.935   3.065   2.524 -0.0965  0.0867 -0.0471
36866W        W79857   2.176  33.849  17.449  0.1745  0.1867  0.3356
36867W        W79858  12.625  20.954  22.469  0.1231 -0.0617  0.1141
36868W        W79859   8.614  17.208   0.451 -0.3586 -0.1596  0.0967
36869W        W79860   6.598  11.220  26.999  0.2477  0.0174  0.0776
36870W        W79861   2.496  11.899  22.772  0.0131  0.4430  0.0821
36871W        W79862  25.274  34.779  19.901 -0.0905 -0.0613  0.1206
36872W        W79863   5.195  31.943  16.287 -0.0486 -0.1445  0.1292
36873W        W79864   2.636   0.612   2.898  0.3882  0.1401  0.3337
36874W        W79865   9.377   2.355   1.980  0.3128  0.1152  0.1077
36875W        W79866  14.307  14.795  15.571 -0.0407 -0.0681  0.1494
36876W        W79867   1.889   7.690   0.753 -0.0593 -0.6797 -0.0946
36877W        W79868   5.044  11.325  22.635 -0.1325  0.1286  0.1610
36878W        W79869   9.915   6.343   8.158 -0.1092 -0.0827  0.0560
36879W        W79870  10.249  34.000  27.198 -0.2765 -0.2687 -0.0971
36880W        W79871  13.647   4.289   8.947  0.1294 -0.1330  0.2090
36881W        W79872  14.989  34.163  25.805 -0.0043 -0.2848  0.0724
36882W        W79873   5.378  21.383  17.520  0.1739  0.1251 -0.2194
36883W        W79874  19.640   2.569  25.673  0.2415  0.0180  0.1935
36884W        W79875  20.888  22.294   6.980  0.1577  0.2515  0.0722
36885W        W79876  29.646  24.209  19.666  0.0601  0.0348  0.0147
36886W        W79877  25.586  19.875  15.191 -0.0946  0.0370  0.0951
36887W        W79878  33.781   0.632  13.927 -0.1964 -0.2389 -0.1462
36888W        W79879   0.792   1.208   9.376  0.1618 -0.0182  0.1592
36889W        W79880  30.884   9.517  22.776  0.1459  0.3622  0.0834
36890W        W79881   2.534  33.189   1.230  0.2483 -0.7549 -0.2278
36891W        W79882  17.574   2.130   9.570 -0.4182  0.0528 -0.3120
36892W        W79883  18.368   5.411  27.526  0.2362 -0.2398 -0.1495
36893W        W79884  21.163   1.817  16.301 -0.2269  0.0152 -0.0205
36894W        W79885   9.219  13.708  27.871 -0.1431  0.0302  0.1672
36895W        W79886  25.479   3.979   0.903 -0.0494 -0.1560  0.0033
36896W        W79887   0.127  30.350   5.945 -0.1147 -0.3163  0.0601
36897W        W79888  10.809  26.278  28.927  0.1046  0.1671  0.5030
36898W        W79889  11.803   4.866  18.728  0.2063  0.2784  0.0779
36899W        W79890   9.707  11.460  24.847  0.0137  0.2418 -0.2825
36900W        W79891  17.984  32.454   1.341  0.0373  0.0845 -0.2264
36901W        W79892  12.207  25.541   1.439  0.1876  0.0535  0.0180
36902W        W79893   0.113  30.111  23.250 -0.0008 -0.0586  0.1358
36903W        W79894   6.868  17.762  22.728 -0.1193  0.3308  0.2380
36904W        W79895   1.644  25.427  22.312  0.0409  0.0288  0.1639
36905W        W79896   3.714  14.468   5.138  0.0374 -0.2832  0.0932
36906W        W79897   4.279  31.044  19.812 -0.1722  0.0521 -0.0154
36907W        W79898   8.449  11.450   0.141  0.1528  0.1258  0.0860
36908W        W79899   6.647  34.275   9.818 -0.2026 -0.2349  0.0677
36909W        W79900   0.128  14.979   3.449 -0.1356  0.0634 -0.5320
36910W        W79901  10.353   3.097  21.088 -0.0880  0.0825 -0.5808
36911W        W79902  34.799  21.488  20.440  0.1977  0.2621  0.2515
36912W        W79903  11.386  33.605   3.744 -0.3121 -0.0455  0.0613
36913W        W79904  20.194  32.677  19.230  0.1469 -0.1524  0.2138
36914W        W79905  15.335  29.694  19.821 -0.1360  0.0218  0.2181
36915W        W79906  26.976  33.217   2.037  0.1034 -0.2262 -0.0453
36916W        W79907  20.479   6.199  17.596  0.0562  0.2541  0.1224
36917W        W79908  18.844   4.824  22.936  0.2481 -0.1815  0.2929
36918W        W79909   8.813  26.747  18.287  0.2260 -0.0814 -0.0918
36919W        W79910   9.076   6.226  22.619 -0.2173  0.2400 -0.1933
36920W        W79911  34.708   8.565  22.841  0.1531 -0.0800  0.3322
36921W        W79912  29.441   7.868  23.647  0.2339  0.3984 -0.1900
36922W        W79913  28.343   4.848   0.783 -0.1653  0.1174  0.1562
36923W        W79914   3.336  28.473  14.903  0.0055 -0.0404 -0.1350
36924W        W79915   8.515  26.113  20.895 -0.0385 -0.0343 -0.0771
36925W        W79916   8.716  31.808  25.135  0.0752  0.3611 -0.2411
36926W        W79917  23.640  28.056   4.908 -0.0343  0.0516 -0.2993
36927W        W79918  29.272   4.501  13.967  0.0182 -0.1700  0.0644
36928W        W79919  16.493   7.148  17.969 -0.0681 -0.0791 -0.4360
36929W        W79920  15.896   6.664   6.404 -0.2773  0.4875 -0.1303
36930W        W79921  27.140   3.217   1.939 -0.0475 -0.3408  0.0103
36931W        W79922   7.659   7.449  19.035 -0.3299  0.1651  0.0369
36932W        W79923  31.422   8.813  16.289  0.3768 -0.1120  0.0083
36933W        W79924   0.694  27.856   9.159 -0.0812  0.2486  0.1086
36934W        W79925  14.571  22.542  22.558 -0.1619  0.1517  0.1492
36935W        W79926   9.062   9.060   9.842  0.1732 -0.0079 -0.3411
36936W        W79927   4.142  14.000  26.367 -0.4689  0.2188  0.2086
36937W        W79928  13.804   2.349   7.078 -0.0562  0.3161 -0.2106
36938W        W79929  26.630  26.890  24.977 -0.0207  0.0271  0.2083
36939W        W79930  10.864  26.220  17.142 -0.1199  0.0214  0.1538
36940W        W79931  29.306   0.958  25.864  0.1122 -0.0528  0.3503
36941W        W79932  16.793  31.424  22.859 -0.1057  0.3761  0.0414
36942W        W79933  11.388   3.129  18.134 -0.0730 -0.0237  0.0279
36943W        W79934   2.734  12.660  19.473 -0.0207  0.1009 -0.2855
36944W        W79935  14.230  32.413  15.044  0.2942 -0.1245 -0.2217
36945W        W79936  20.459  33.780  17.299  0.2926  0.1539 -0.0204
36946W        W79937  22.200  31.315   2.694 -0.1724  0.4003 -0.2335
36947W        W79938   2.209   1.856   4.616 -0.0796  0.3774 -0.0852
36948W        W79939   3.900  25.732  19.512 -0.0700 -0.1066 -0.2076
36949W        W79940  17.645  32.956   6.282  0.0939  0.4422  0.1728
36950W        W79941  30.664  28.808  22.881 -0.3682 -0.0289  0.3744
36951W        W79942  17.062   0.294  26.797  0.1095  0.2000 -0.0212
36952W        W79943   9.636  29.710   4.890  0.1660  0.1217  0.0975
36953W        W79944   4.135  15.825  18.279 -0.0359 -0.0018  0.0104
36954W        W79945   4.313  33.008  24.092  0.2485  0.2325 -0.2291
36955W        W79946  11.798  29.184  14.876 -0.1448  0.1087 -0.0396
36956W        W79947  21.157  20.592   1.156 -0.2579 -0.1441 -0.4767
36957W        W79948   2.098   8.137   9.321  0.1522  0.1172 -0.3169
36958W        W79949   6.517  26.137   0.347 -0.2509 -0.1887 -0.0771
36959W        W79950   1.102   6.061  15.928  0.1023  0.0832  0.0531
36960W        W79951  20.142   1.382   8.469 -0.2417 -0.0552  0.2209
36961W        W79952  23.201   1.278   5.197  0.0950  0.0575 -0.2193
36962W        W79953  20.415   7.390  16.847  0.0586  0.2344 -0.0190
36963W        W79954  11.345   3.576   2.964  0.1702  0.1894  0.2157
36964W        W79955   3.026  10.333  24.751 -0.1547 -0.2345  0.1785
36965W        W79956   3.730  26.146   8.035  0.2335  0.0958  0.0227
36966W        W79957  20.410   0.770   9.284 -0.3527 -0.1017  0.1595
36967W        W79958  12.787  32.330  20.759  0.0703 -0.0567  0.1498
36968W        W79959  10.429   1.222  15.036  0.0772 -0.0738 -0.1252
36969W        W79960  24.479  11.490  19.252 -0.1219 -0.0837 -0.0688
36970W        W79961  20.256   8.110  26.311  0.0815 -0.2483  0.0944
36971W        W79962   8.989  16.059  25.237 -0.0149 -0.3138 -0.1010
36972W        W79963   5.487   2.698  23.542  0.0712 -0.0005 -0.1198
36973W        W79964   9.338   1.675   1.758  0.3306 -0.2776 -0.1285
36974W        W79965   1.870   3.118   1.621 -0.3905 -0.1819  0.2146
36975W        W79966  13.660  12.970  25.775  0.0035  0.0707  0.0604
36976W        W79967  29.591   5.328  21.726  0.0768  0.0546 -0.0177
36977W        W79968   3.602   5.070   6.155  0.0421  0.0579 -0.1366
36978W        W79969  16.845   1.802  15.419 -0.3168  0.2614 -0.3689
36979W        W79970  14.588  12.701  16.486  0.1559 -0.0862 -0.2676
36980W        W79971   2.305  33.747  19.957  0.1143  0.0057  0.1491
36981W        W79972  21.331   7.703  23.031  0.5401  0.1428 -0.3168
36982W        W79973  18.944   0.775  23.599 -0.1153 -0.1675 -0.1332
36983W        W79974  12.555  30.482   3.604 -0.0598 -0.0281 -0.3508
36984W        W79975   2.726  10.623  24.352 -0.0841  0.3581 -0.2982
36985W        W79976  16.211  24.863   7.575  0.0006 -0.2029 -0.3579
36986W        W79977  13.768  25.568   2.186  0.0687 -0.0539  0.1899
36987W        W79978  19.332  34.633  13.837 -0.0258  0.1630  0.0999
36988W        W79979  18.366  24.904   1.248 -0.1232  0.1174  0.2467
36989W        W79980   6.012  25.624  28.636 -0.1800 -0.2008 -0.2469
36990W        W79981  15.877  14.313   0.974 -0.1226  0.1336  0.2161
36991W        W79982   5.300   9.212  26.511 -0.1800 -0.4631  0.2342
36992W        W79983   7.736  17.091  20.825 -0.1082  0.1622  0.2205
36993W        W79984   2.466  13.801  27.277  0.0162 -0.0361 -0.1290
36994W        W79985  17.893   6.036   4.121 -0.0933  0.0055  0.5365
36995W        W79986   4.220  30.033  26.289 -0.3368  0.1420 -0.1196
36996W        W79987   4.993   6.460  15.898  0.0584 -0.0181 -0.1472
36997W        W79988  11.681  29.336   1.480 -0.0138  0.0670 -0.0259
36998W        W79989  14.075  27.813   2.006  0.1732  0.0581 -0.1595
36999W        W79990  24.530   1.260  28.562  0.0944 -0.2264 -0.3104
37000W        W79991  18.803  24.740   8.063  0.0648  0.3330  0.1377
37001W        W79992  15.838   1.413  27.327 -0.0281  0.2171  0.0213
37002W        W79993   9.610  16.575  26.947  0.1054  0.0238  0.0395
37003W        W79994  21.057   3.561   4.109  0.0361 -0.1020 -0.0151
37004W        W79995  10.228  27.887  24.967  0.2535  0.2355 -0.3267
37005W        W79996   8.380  19.212  27.485 -0.0936  0.0342 -0.1062
37006W        W79997   1.574  28.688   6.138 -0.1525  0.1709  0.1032
37007W        W79998  34.685  30.169   6.322  0.1304  0.1085 -0.0213
37008W        W79999  28.849   6.896  26.585 -0.3426  0.0670 -0.1035
37009W        W80000   5.049  15.829  17.279 -0.1897 -0.1475  0.1211
37010W        W80001  14.553   5.344  28.308 -0.2547 -0.1360  0.0311
37011W        W80002  27.455   7.571  23.851 -0.0053 -0.1455  0.0974
37012W        W80003   5.442  11.613  23.930 -0.3770  0.0693  0.2372
37013W        W80004  14.534  11.926   7.964  0.1307 -0.4556 -0.3054
37014W        W80005   9.050  29.601  27.294  0.0339 -0.0136  0.2512
37015W        W80006   7.535  23.694  23.227 -0.1735  0.1097 -0.1022
37016W        W80007  25.477   1.133   2.708  0.4139  0.1018  0.0823
37017W        W80008  28.020  20.078  23.349 -0.0397 -0.0173 -0.0105
37018W        W80009   6.584   5.065  20.267  0.1235  0.1581  0.2047
37019W        W80010  12.523  32.975   2.640 -0.0262  0.0929 -0.2433
37020W        W80011   0.903   0.820  28.966 -0.0939 -0.0729 -0.1314
37021W        W80012  31.516   0.581   1.384 -0.1951 -0.2150  0.0242
37022W        W80013  28.904   9.359   7.982 -0.1730 -0.1904  0.1320
37023W        W80014   4.387  31.498  15.225 -0.0849 -0.3133 -0.3990
37024W        W80015   4.754   4.005  19.307  0.3908 -0.0671 -0.0664
37025W        W80016  18.567  28.712  27.809  0.1781 -0.0407  0.2733
37026W        W80017   1.213  34.407  27.046  0.0804  0.1127 -0.0762
37027W        W80018  16.695  24.417  27.880 -0.1391  0.0754 -0.0305
37028W        W80019  19.374  34.594   1.836  0.1489 -0.1640  0.1454
37029W        W80020  18.318  10.179   5.442 -0.3304 -0.0044  0.4113
37030W        W80021  33.137  14.419   9.716 -0.2926 -0.1251 -0.1050
37031W        W80022  19.445  26.919  26.698 -0.3099 -0.0823  0.0579
37032W        W80023  13.809   0.235  17.464  0.3303  0.1121 -0.2283
37033W        W80024   4.602  27.316   1.888  0.1788  0.2192 -0.0882
37034W        W80025  12.255  13.200  15.314 -0.2927 -0.0982  0.2117
37035W        W80026  16.068  26.571  19.701 -0.1132  0.1591 -0.2557
37036W        W80027  12.301  27.344   8.162 -0.2903 -0.0608  0.0005
37037W        W80028  18.889  25.250  26.421 -0.1874 -0.4334 -0.1273
37038W        W80029  24.098   2.166   7.373 -0.3176 -0.0920  0.1956
37039W        W80030  17.059  11.482   2.245 -0.0144  0.1284  0.1913
37040W        W80031  25.937   0.370  27.919  0.1575 -0.1339 -0.0440
37041W        W80032   1.949  31.834   8.529  0.0615  0.1246  0.1702
37042W        W80033  14.925  11.309  26.352 -0.3579 -0.3385 -0.0199
37043W        W80034  11.367  28.994  25.539 -0.2006  0.0629 -0.0258
37044W        W80035   9.709   3.602  21.213 -0.2987  0.2825 -0.2554
37045W        W80036  12.271   7.905  25.592  0.1379 -0.3609 -0.0510
37046W        W80037  12.782  12.801   3.099 -0.0286 -0.1245 -0.2122
37047W        W80038  22.453   4.576   4.857 -0.2028 -0.0704  0.2128
37048W        W80039   9.917   5.632   1.093  0.0913  0.1471  0.0366
37049W        W80040  15.122   5.148   2.114  0.0106 -0.3372 -0.0599
37050W        W80041   1.161   0.786  18.324  0.0119  0.2665 -0.1705
37051W        W80042  10.092  19.246  17.950  0.0970  0.3044  0.4404
37052W        W80043  18.130  34.186   6.979 -0.1149  0.0237  0.2061
37053W        W80044   5.771  12.956   1.055  0.0397 -0.1468 -0.0737
37054W        W80045  31.026   6.167  23.138  0.0447  0.2136  0.2716
37055W        W80046  12.250  22.487  14.643  0.0677  0.0947  0.0707
37056W        W80047  14.860  24.023   0.828  0.2285 -0.2331  0.1619
37057W        W80048   3.760  33.548   5.521  0.1090  0.1453 -0.3927
37058W        W80049  18.535  12.914  21.594 -0.1729 -0.1567  0.1349
37059W        W80050  28.650   0.022  22.133 -0.3230 -0.1630  0.2004
37060W        W80051   6.423  24.957   1.940 -0.0616  0.1976  0.2483
37061W        W80052   0.604   5.130  16.810 -0.2229  0.2070  0.0461
37062W        W80053  15.253  21.793   7.491 -0.1448 -0.0521  0.0284
37063W        W80054  15.863  33.176  16.065  0.0790  0.2780 -0.1546
37064W        W80055   5.350  17.933  24.565  0.0599  0.0909 -0.2743
37065W        W80056  11.832  28.037  29.102  0.1129  0.2247 -0.0134
37066W        W80057  34.550   2.938   8.342  0.2326  0.2495 -0.1391
37067W        W80058  12.489  13.410  20.944  0.0186 -0.4603 -0.2818
37068W        W80059  33.875   7.563   7.617 -0.0043  0.1592  0.0324
37069W        W80060  14.241  14.659  24.643  0.0418  0.1702 -0.0038
37070W        W80061   5.688  19.514   8.484 -0.1853 -0.6109  0.3220
37071W        W80062   6.514  18.543  23.363 -0.1218 -0.2182 -0.2168
37072W        W80063  19.200   1.917   8.797  0.2130 -0.1876  0.1849
37073W        W80064   6.165   4.620   1.715  0.1306 -0.1544  0.2357
37074W        W80065   4.142   6.315   1.583  0.2868 -0.1116 -0.0533
37075W        W80066   1.313  31.724  22.337  0.1917  0.1062 -0.0322
37076W        W80067   6.020  19.651  19.246  0.1357  0.0817  0.1047
37077W        W80068  15.658   2.461  26.221 -0.0974 -0.4084 -0.1953
37078W        W80069   8.401  10.863   2.097 -0.1676 -0.1006 -0.3733
37079W        W80070  11.473   8.738   4.529 -0.3581 -0.2162 -0.3635
37080W        W80071  10.444   4.908   0.796 -0.0638  0.2303 -0.3878
37081W        W80072  28.382   7.264  26.595 -0.2098  0.0211  0.1270
37082W        W80073   8.191  31.124   2.157 -0.0306  0.2310  0.2794
37083W        W80074   0.502  15.232   9.683  0.1788  0.0034  0.0269
37084W        W80075   4.920   0.365  15.121 -0.0356 -0.0340  0.0249
37085W        W80076  12.614   4.918   6.226  0.2274  0.2694  0.0485
37086W        W80077  10.166   0.424  22.149  0.0742  0.2369  0.2041
37087W        W80078   3.641   3.351   6.178  0.0387  0.2940  0.1110
37088W        W80079  22.385  13.003   5.430  0.2062 -0.2027 -0.1349
37089W        W80080   4.405   7.282  10.439  0.0567 -0.0722  0.0038
37090W        W80081   6.412   3.342  17.254  0.1405  0.1799  0.1753
37091W        W80082  12.187   7.436  18.170 -0.0555 -0.1202 -0.0324
37092W        W80083  27.408  27.736  29.182  0.3248  0.1497 -0.0760
37093W        W80084  34.479   0.970  15.979  0.3860  0.1832 -0.3258
37094W        W80085   3.740   2.008   4.626 -0.0648 -0.2108  0.0009
37095W        W80086  14.343  12.676   1.852 -0.1414 -0.0207  0.1735
37096W        W80087   2.248  30.498   1.836 -0.1948 -0.1930 -0.1935
37097W        W80088  14.899   5.351  25.076  0.2984  0.1143  0.4553
37098W        W80089  16.014   4.969  17.065 -0.0576  0.0447  0.2476
37099W        W80090  10.032   0.665  19.387 -0.0972 -0.2782  0.1026
37100W        W80091  24.506  12.556   2.169 -0.1565  0.0334  0.1122
37101W        W80092  23.469  28.366  26.624  0.2643 -0.3484  0.0042
37102W        W80093   2.607   0.284  28.334  0.0365 -0.1029 -0.0153
37103W        W80094   0.359   0.387  25.995 -0.1182 -0.0236  0.0757
37104W        W80095   9.073  25.584  22.746  0.1406 -0.3567 -0.0939
37105W        W80096  25.588  30.037   9.095 -0.5018  0.2129  0.1865
37106W        W80097  10.164  23.700  21.131  0.0984 -0.1883  0.2196
37107W        W80098   1.412   3.195  26.475 -0.0302 -0.0202  0.3494
37108W        W80099  10.531  30.954  16.130 -0.1111 -0.1904 -0.0388
37109W        W80100  12.460  21.053  20.115 -0.2303  0.1073  0.0003
37110W        W80101  12.228  29.922  20.592  0.0581 -0.1895 -0.4279
37111W        W80102   8.734  32.714   1.685  0.4004  0.0782  0.0865
37112W        W80103  33.367   1.750  22.466 -0.1398 -0.1050 -0.0856
37113W        W80104  33.843  12.927  24.696 -0.0597 -0.3156 -0.0939
37114W        W80105  26.166  33.878  14.313  0.0747 -0.0181 -0.0020
37115W        W80106  10.868  21.429  21.497  0.1055 -0.0349 -0.0833
37116W        W80107   2.973  25.547   4.155 -0.5589  0.1021 -0.1070
37117W        W80108   9.018   1.610   4.537 -0.1275  0.1743  0.1417
37118W        W80109  31.541  27.296  20.743 -0.0233 -0.0726 -0.3647
37119W        W80110  24.374  17.615   2.318 -0.0607  0.1616 -0.0993
37120W        W80111  14.224  27.603   4.092 -0.0454 -0.3223 -0.3797
37121W        W80112   5.712   5.724   4.191 -0.1821  0.1458  0.0034
37122W        W80113   1.290  14.677  19.376  0.3143  0.0236  0.1905
37123W        W80114   3.911  30.017  17.256 -0.1101 -0.0237 -0.1510
37124W        W80115  11.957   6.949  22.570 -0.4490 -0.2801  0.1700
37125W        W80116   4.892  17.064   6.136 -0.1574 -0.3512  0.1679
37126W        W80117  28.507  26.051   5.206  0.1156 -0.1257  0.0005
37127W        W80118   3.405  16.021  18.422 -0.1297  0.4477  0.2716
37128W        W80119   0.561   1.508  15.919 -0.0122 -0.1286  0.3930
37129W        W80120  12.655  29.022  20.647  0.0365 -0.2257  0.0496
37130W        W80121  10.198   0.465   8.888 -0.0691 -0.2451  0.1585
37131W        W80122   4.349  34.439  21.969  0.2175 -0.0425  0.1652
37132W        W80123  33.687  17.118   4.749 -0.0568  0.2860 -0.2312
37133W        W80124  12.347   8.951  23.009 -0.1151 -0.0570 -0.1492
37134W        W80125  17.145   7.443   1.154 -0.1171  0.0234  0.2475
37135W        W80126  33.826  27.851  27.411 -0.0619  0.2208  0.3878
37136W        W80127  10.655   4.132  23.818 -0.0054 -0.1064 -0.0596
37137W        W80128  12.656  18.434  16.949 -0.1239  0.1069  0.0957
37138W        W80129  24.072   3.492  28.552 -0.0072 -0.1319  0.0241
37139W        W80130  31.934  12.197  23.009  0.0485  0.2322  0.0344
37140W        W80131   3.147  25.054   0.500  0.1072  0.0088 -0.2786
37141W        W80132   7.033  18.112  24.558 -0.1187 -0.4220 -0.0827
37142W        W80133  20.907  31.144   0.667 -0.1735 -0.1038 -0.1021
37143W        W80134  32.948   0.298  15.121 -0.2644 -0.4070 -0.1610
37144W        W80135  14.138  16.852  24.276  0.1668  0.1527  0.0452
37145W        W80136   5.468  11.544   8.370 -0.2803 -0.4405 -0.0432
37146W        W80137  27.698  27.069  21.427 -0.0661 -0.1331 -0.3576
37147W        W80138  10.310   4.490  24.379 -0.0975 -0.0855  0.1401
37148W        W80139   9.348  32.469   8.322  0.0445  0.0817  0.0234
37149W        W80140  27.233   7.570   9.603 -0.0804 -0.2253 -0.1910
37150W        W80141  10.231   6.322   6.369  0.0118  0.3242  0.0031
37151W        W80142  18.599  20.941  20.040  0.1182  0.0630 -0.2831
37152W        W80143   7.572   1.481   3.043  0.1389 -0.1004  0.0637
37153W        W80144   4.045  22.256  28.643 -0.2244  0.2871 -0.1083
37154W        W80145  11.613   1.484   2.720  0.0160  0.2235  0.2721
37155W        W80146  32.983   9.319   4.829 -0.1482  0.2376 -0.2700
37156W        W80147  31.784  34.059  18.110 -0.2081  0.2395 -0.0626
37157W        W80148   8.614  12.685   5.189  0.1553  0.0899  0.2787
37158W        W80149  13.398  14.760   5.259 -0.1841  0.0695 -0.3574
37159W        W80150  34.355  34.443  26.716  0.0213 -0.1630 -0.2173
37160W        W80151  18.935   6.827  15.156 -0.1938 -0.0698 -0.1112
37161W        W80152   1.258  30.670  23.008 -0.0213  0.1383  0.1729
37162W        W80153   1.053  22.886  19.895 -0.2428 -0.2371 -0.0287
37163W        W80154  23.720  22.669  16.994  0.1303  0.1782 -0.0970
37164W        W80155  17.008  17.664   8.625 -0.0941  0.4331  0.3008
37165W        W80156  27.687   7.634  24.398  0.0104  0.2968 -0.0385
37166W        W80157  26.026   8.381  14.269  0.2014  0.1562 -0.2964
37167W        W80158   9.655  30.566  26.049  0.1077  0.1272 -0.2684
37168W        W80159  10.835  14.742   3.737 -0.1201 -0.1523 -0.0912
37169W        W80160  34.006  12.162  18.901  0.2556 -0.2692 -0.1847
37170W        W80161   8.289  27.998  15.160  0.0923 -0.2211 -0.0730
37171W        W80162  13.946  12.657  20.870 -0.0205  0.3660 -0.2326
37172W        W80163   8.914  32.839   0.724 -0.2134 -0.0828  0.1616
37173W        W80164  18.019   9.395   4.427  0.0325 -0.0625 -0.0570
37174W        W80165  17.588  29.244  28.428  0.1846  0.0737  0.1239
37175W        W80166   4.537  33.666   4.982 -0.1143 -0.0881  0.2472
37176W        W80167   2.336  25.157  27.369  0.0947  0.2329 -0.1193
37177W        W80168  17.887   5.131  20.178 -0.0457  0.2967 -0.1527
37178W        W80169  21.531  11.415  26.088  0.0343  0.0082  0.2330
37179W        W80170   8.593  31.263  20.010 -0.0248  0.3024  0.1722
37180W        W80171   8.826  29.902  15.274  0.0590  0.2891  0.2917
37181W        W80172  17.177  11.020  22.800 -0.0691 -0.0187 -0.0299
37182W        W80173  23.587   6.742  24.331 -0.0876 -0.0645  0.3091
37183W        W80174  23.940  24.182  20.482  0.2024  0.2356 -0.1070
37184W        W80175  10.667   7.985  27.298  0.3324 -0.4485 -0.0655
37185W        W80176  14.864   9.604   4.572 -0.2977 -0.0275 -0.2426
37186W        W80177   9.807  32.491  24.730 -0.1160 -0.2351 -0.0422
37187W        W80178   6.883  26.228  17.661  0.3754  0.0235 -0.2459
37188W        W80179  30.664  29.952  20.163  0.1879 -0.0527  0.1408
37189W        W80180  20.994  12.965   4.082  0.2954  0.2246  0.2978
37190W        W80181  16.230   2.361   5.024 -0.0250  0.0774 -0.0156
37191W        W80182  11.738  13.295   1.545 -0.2697 -0.3761 -0.0705
37192W        W80183   9.057  31.503  24.944  0.1837  0.2092 -0.5022
37193W        W80184  31.277   5.121  26.355  0.2223 -0.4251  0.0999
37194W        W80185   9.077  33.655   3.773  0.1426 -0.1408 -0.1127
37195W        W80186  10.616   6.195  19.446 -0.1490 -0.0421 -0.1679
37196W        W80187  22.549  13.480   6.032 -0.1349  0.1722 -0.0735
37197W        W80188  15.961   3.920  29.084 -0.0882  0.0633 -0.3722
37198W        W80189  28.314   0.948  22.838 -0.0506 -0.1962  0.1009
37199W        W80190   1.191  21.847  25.904 -0.0455 -0.2631  0.0560
37200W        W80191   6.422   6.235   0.260  0.5218 -0.2348 -0.0052
37201W        W80192   8.788  33.165  25.573  0.2746 -0.1477  0.0168
37202W        W80193  29.462  16.085  26.643 -0.1091  0.1394 -0.3775
37203W        W80194  34.457  20.167   9.290 -0.0702 -0.0219 -0.1589
37204W        W80195  17.545   9.218  25.115 -0.2433 -0.3811  0.1052
37205W        W80196   9.872   0.068   9.082  0.0327  0.1995 -0.0085
37206W        W80197  18.044   9.776  16.128  0.0665 -0.2935  0.1683
37207W        W80198  31.595  10.204  16.599 -0.1071  0.1297  0.1707
37208W        W80199  31.963  32.228  17.621 -0.0725 -0.0032 -0.1204
37209W        W80200  25.932   4.376   8.237  0.0548  0.1300 -0.0801
37210W        W80201   3.678  24.952   2.111 -0.0683 -0.1509 -0.0160
37211W        W80202   5.602  22.914   6.560  0.2664  0.0177 -0.1204
37212W        W80203   0.364  26.795  22.474  0.0939 -0.2160  0.2258
37213W        W80204  10.029   7.789   1.417 -0.0643  0.2233 -0.1094
37214W        W80205   0.035  32.454  22.230  0.2255 -0.1444 -0.1868
37215W        W80206   7.092  18.823   6.691  0.1699  0.1568 -0.0295
37216W        W80207  16.050   9.434  20.781 -0.2071 -0.0149  0.0281
37217W        W80208   7.536   3.635  10.738  0.0487  0.0015 -0.1598
37218W        W80209   9.571  33.096  27.792 -0.1819 -0.0965 -0.1229
37219W        W80210  11.191  34.274  29.047 -0.1591  0.3887  0.0599
37220W        W80211  30.474   9.351  22.492  0.1764 -0.1410 -0.1350
37221W        W80212  13.874  10.475  26.434  0.1878  0.1849 -0.0276
37222W        W80213   6.794   6.838  28.277 -0.3612  0.5376  0.3308
37223W        W80214  31.925   6.809   5.446  0.2934  0.0912  0.2815
37224W        W80215   2.175  31.903  28.880  0.3041 -0.1325  0.2353
37225W        W80216  27.337   0.273  25.608 -0.2547  0.1634  0.0564
37226W        W80217   7.487  33.715  10.387 -0.0140  0.0035 -0.1969
37227W        W80218  32.936  14.871  19.790 -0.0269 -0.1858  0.3711
37228W        W80219  32.598  18.016  10.381  0.2008  0.0903  0.1461
37229W        W80220   6.523   6.728  23.031  0.0089  0.3434 -0.2740
37230W        W80221   5.295   8.079  16.637  0.1126 -0.3381  0.0251
37231W        W80222   4.836  15.937  18.666 -0.0653  0.1006  0.2352
37232W        W80223  30.130  20.092  24.546  0.0540  0.0927  0.1180
37233W        W80224  11.181  21.241  17.528 -0.4208 -0.0649  0.0820
37234W        W80225   7.202  17.786  16.326  0.2085 -0.2114  0.1845
37235W        W80226   2.324  25.946   2.515 -0.0145 -0.0491  0.0768
37236W        W80227  19.997   3.436  26.090 -0.0091 -0.0246 -0.0016
37237W        W80228  11.483  34.682  14.367 -0.1399  0.1074 -0.1272
37238W        W80229   1.393  26.112  21.690 -0.1499  0.0514  0.2616
37239W        W80230  24.141  29.076  14.508 -0.1836 -0.2825 -0.1270
37240W        W80231   5.748  25.189  28.803 -0.1081  0.1277 -0.1031
37241W        W80232   9.277  33.262   4.016 -0.0694  0.1067 -0.3342
37242W        W80233  30.666   9.643  19.151  0.0268  0.0947  0.0500
37243W        W80234   9.582   4.645   0.209 -0.0354 -0.0596  0.0432
37244W        W80235  14.682   9.444  23.278 -0.0193 -0.2759 -0.3060
37245W        W80236  34.606   0.250  25.422 -0.1818  0.0449  0.0603
37246W        W80237  21.626   1.521   4.980  0.0548  0.0555 -0.3434
37247W        W80238  11.309  14.367  25.030 -0.0212 -0.1506 -0.0232
37248W        W80239  23.437   6.139  15.599  0.0323 -0.0127 -0.1714
37249W        W80240  27.860  18.685  20.087  0.0255 -0.1639  0.0581
37250W        W80241  14.996  26.962  25.661  0.0496  0.0109 -0.1742
37251W        W80242   8.965   5.077  24.889 -0.0003 -0.0106  0.1045
37252W        W80243   7.072  30.958   8.779 -0.1499  0.1170 -0.0838
37253W        W80244  16.213   5.839   6.122  0.1046  0.3058  0.3332
37254W        W80245   2.971   6.535  24.617  0.0459 -0.0844 -0.0466
37255W        W80246  32.424  10.183  15.360  0.0621  0.0942  0.0899
37256W        W80247  13.142  16.973  26.089  0.1004  0.0898  0.1679
37257W        W80248  12.617  30.612  15.505  0.0348 -0.2279 -0.2769
37258W        W80249  14.611  14.573  17.165 -0.0346 -0.1252 -0.2489
37259W        W80250  14.175   1.779  23.000 -0.0882 -0.0512  0.1629
37260W        W80251  28.170   0.191   8.714  0.0863  0.2575 -0.1270
37261W        W80252  30.928  27.050  28.367 -0.0041  0.0759 -0.2467
37262W        W80253  23.609  32.332   2.473  0.0901 -0.0329 -0.2394
37263W        W80254  34.288  33.035   3.831  0.4179 -0.0760 -0.0113
37264W        W80255   5.435   8.906  25.229  0.0262  0.0549 -0.0276
37265W        W80256   4.100   0.896  25.839  0.4057  0.2348  0.2333
37266W        W80257  25.183  11.550  17.587  0.0297 -0.1337 -0.0013
37267W        W80258   2.958  32.065   3.151 -0.1884 -0.2107  0.1508
37268W        W80259   2.447  11.997  21.055 -0.0494 -0.2244 -0.2806
37269W        W80260  21.039   4.528  14.560  0.4401 -0.2579 -0.0590
37270W        W80261  13.411   3.650  27.315 -0.5295  0.3016 -0.0096
37271W        W80262  34.639   0.691   5.064  0.2734 -0.0379 -0.1308
37272W        W80263  30.224  14.766  20.364  0.0739 -0.0150  0.0297
37273W        W80264  33.999   5.511  14.256  0.1358  0.1159 -0.1020
37274W        W80265  12.905  27.532   6.333  0.0502  0.4741 -0.1962
37275W        W80266   7.320   0.048   3.579  0.0568 -0.2571  0.1099
37276W        W80267   9.796   5.736   9.002 -0.0024  0.0171 -0.2841
37277W        W80268  15.330  31.086  25.672  0.0455  0.1830 -0.0166
37278W        W80269   2.789   1.742  16.571 -0.0354 -0.0289 -0.0933
37279W        W80270   8.187  21.940   0.909 -0.1779 -0.2161 -0.2622
37280W        W80271  15.785   2.679   7.540  0.0088 -0.1228 -0.2009
37281W        W80272  12.691   1.560   7.329 -0.0257  0.2030 -0.0981
37282W        W80273  13.966   8.951  28.499  0.0223 -0.2565 -0.1085
37283W        W80274  12.060   6.332  17.770  0.3431  0.1358 -0.0929
37284W        W80275   5.465  12.839  18.490 -0.1245  0.2280  0.2100
37285W        W80276  24.508   0.772  23.501  0.1327 -0.1211 -0.2624
37286W        W80277   8.447  28.301  21.033  0.0385 -0.1920  0.3893
37287W        W80278   3.054   5.046  16.227  0.0921  0.1157  0.2421
37288W        W80279  21.315   0.750  21.974  0.2605 -0.2414  0.2000
37289W        W80280  34.302  25.643  28.703 -0.1446  0.1802 -0.2195
37290W        W80281  29.264   7.453   7.134  0.1428  0.0042  0.2488
37291W        W80282  10.463  15.434  17.408 -0.1589 -0.3015 -0.2398
37292W        W80283  16.563  28.093  26.674  0.0133  0.1134  0.1417
37293W        W80284   9.014  28.818  15.758  0.0349 -0.1414  0.0636
37294W        W80285  10.108   1.756   5.569  0.3498  0.2026  0.1251
37295W        W80286  17.729  30.133   0.526  0.2192 -0.0798 -0.0286
37296W        W80287  30.192  11.813   9.830  0.1320 -0.0968  0.4258
37297W        W80288  13.298  23.890   1.584  0.4593  0.0864 -0.0669
37298W        W80289  11.712  22.302   0.458 -0.1172 -0.2455  0.0203
37299W        W80290   9.654  32.812  28.185 -0.1102 -0.2994 -0.0737
37300W        W80291  33.535   6.226  26.625 -0.1096  0.2741  0.0101
37301W        W80292  26.671   6.570  13.917  0.2358 -0.5538  0.0757
37302W        W80293   3.239  17.718  22.907  0.0836  0.2328 -0.1273
37303W        W80294  19.233   0.185  24.508 -0.0142  0.4876  0.0963
37304W        W80295   8.308  26.522   5.773  0.2115 -0.0879  0.1444
37305W        W80296  30.009  32.693  13.628 -0.1683  0.0899  0.0212
37306W        W80297  15.261  10.610   4.688  0.0620 -0.1985  0.0828
37307W        W80298   6.777   0.381   9.459  0.3891  0.0878 -0.0686
37308W        W80299  17.164   0.612  26.365 -0.1429  0.0265  0.2624
37309W        W80300  21.020  12.795  16.744 -0.3471 -0.1173  0.2731
37310W        W80301   6.233   4.490  10.618  0.1265  0.1599  0.0342
37311W        W80302  34.766  25.503   0.443 -0.1188  0.0136 -0.0214
37312W        W80303   7.716  29.471  26.446 -0.0620 -0.2113  0.0545
37313W        W80304  23.377   9.292   4.197 -0.0494 -0.0594 -0.2498
37314W        W80305  15.785   2.312   3.174  0.1590  0.4687 -0.3488
37315W        W80306  22.714  11.974  25.666 -0.0575 -0.0206 -0.0393
37316W        W80307  13.415  32.545  24.223 -0.2882 -0.0233  0.1186
37317W        W80308   6.200  27.623  15.338 -0.1677 -0.0812 -0.2205
37318W        W80309  26.725   9.514  21.329  0.1458 -0.0159  0.0612
37319W        W80310   1.907  12.560   7.565 -0.0521  0.2649 -0.0095
37320W        W80311  15.654  17.312   1.668  0.5391  0.0148  0.0380
37321W        W80312   4.374   8.950  20.293 -0.2369 -0.1813  0.0448
37322W        W80313  14.447   2.763   5.644  0.1475 -0.2988  0.0392
37323W        W80314  15.204   4.212   6.991 -0.0031  0.1132 -0.0106
37324W        W80315   6.144   0.268   6.885 -0.3626 -0.2681  0.0009
37325W        W80316  31.765  33.227  19.223 -0.3201 -0.2172 -0.1507
37326W        W80317  10.634  33.701   8.349  0.0509  0.0620 -0.2911
37327W        W80318   2.767   0.088  20.279 -0.0871 -0.1158  0.0811
37328W        W80319   9.590   1.286   3.323  0.1292  0.4175  0.0413
37329W        W80320   9.811  32.274   3.853 -0.2404 -0.0097 -0.1066
37330W        W80321   2.651   4.692  26.332 -0.1133  0.0359 -0.2380
37331W        W80322   0.720  14.319   4.107  0.1831  0.2285  0.1640
37332W        W80323  12.540  17.217  28.978 -0.1318 -0.1297 -0.2680
37333W        W80324  19.822  32.480   2.884 -0.0683 -0.0150 -0.0766
37334W        W80325  15.568  21.977   2.969 -0.1563 -0.0151 -0.0792
37335W        W80326  24.010   7.012  20.374 -0.1969 -0.1967  0.4962
37336W        W80327   6.056   1.213   4.099  0.2007 -0.1057 -0.3194
37337W        W80328  23.122   7.772   7.706  0.2380 -0.1487  0.1519
37338W        W80329   3.831   0.796   5.268 -0.5121 -0.0929 -0.0868
37339W        W80330  14.698   8.166  28.741  0.1191  0.0412 -0.3431
37340W        W80331   8.877  32.307   3.478  0.1324 -0.0306  0.0509
37341W        W80332  19.373  30.826  17.492  0.0883 -0.0432  0.1474
37342W        W80333   3.816  30.927  19.628  0.0021  0.1256  0.0061
37343W        W80334  17.993   3.664   7.199  0.3260 -0.1297 -0.0633
37344W        W80335  31.197  28.582   1.132  0.0177 -0.1512  0.1393
37345W        W80336  25.429   8.802  17.474  0.0671  0.0339 -0.0429
37346W        W80337  20.497  21.939  16.721  0.1438  0.1446 -0.0712
37347W        W80338  14.527   2.514   2.539 -0.1429  0.1104 -0.2967
37348W        W80339  30.803  16.425   6.333  0.0453  0.1569  0.0491
37349W        W80340   8.943  26.280  28.331  0.0621  0.1038  0.0283
37350W        W80341   9.540  31.718  17.676 -0.0027  0.3552 -0.2000
37351W        W80342  24.206  33.811   9.062  0.2738 -0.0738 -0.1318
37352W        W80343  11.336   5.426   3.035 -0.0697  0.1650 -0.1367
37353W        W80344  12.562  32.988  23.692 -0.0031 -0.3084 -0.0997
37354W        W80345  15.152  14.233   2.148  0.3559  0.2536 -0.1106
37355W        W80346  23.658  23.095  25.577 -0.0756  0.0425 -0.1204
37356W        W80347  25.486   7.092   8.143  0.1756  0.0442  0.0603
37357W        W80348  30.632   5.194  29.003 -0.3922 -0.1689  0.1801
37358W        W80349  23.145   6.739  20.262 -0.0776 -0.3731  0.0315
37359W        W80350   3.308  31.655  21.870  0.2082  0.1985 -0.1454
37360W        W80351  13.903  30.671  17.793  0.0483  0.0779  0.2321
37361W        W80352  10.436  33.836   0.386  0.3953 -0.2474 -0.3327
37362W        W80353  12.634  16.672  26.710 -0.1038  0.0568  0.0741
37363W        W80354  33.929  17.941   0.843  0.0143  0.1546 -0.0739
37364W        W80355  15.525   8.781  23.227  0.0262 -0.2739  0.0219
37365W        W80356   7.770  25.700  18.613 -0.1023  0.0230  0.0305
37366W        W80357  26.831  20.508  18.291 -0.0839  0.0425 -0.1913
37367W        W80358   7.261  14.446  16.193 -0.1747  0.1842 -0.5614
37368W        W80359  15.466   3.138  21.478 -0.0708 -0.2505 -0.1313
37369W        W80360  12.208  10.629  20.538 -0.1208  0.1492 -0.1509
37370W        W80361   8.085   8.277  21.736 -0.0525  0.0508  0.3783
37371W        W80362  25.367   7.503  15.790  0.0709 -0.1140 -0.4739
37372W        W80363   2.025  33.322   9.684 -0.0105 -0.1282  0.0760
37373W        W80364  19.886   8.957  19.043 -0.0964  0.3283  0.2255
37374W        W80365  12.828  16.437  15.446  0.0669 -0.0097  0.0220
37375W        W80366  19.676  28.870  19.550 -0.0046 -0.0489  0.1863
37376W        W80367   2.791  22.121  15.574  0.0645  0.0665  0.0439
37377W        W80368   1.598   7.261  20.850  0.0083 -0.0845  0.1056
37378W        W80369   9.070  19.528  22.138 -0.1173 -0.2263  0.0446
37379W        W80370  17.717  12.660  12.945 -0.1944 -0.1016  0.0128
37380W        W80371  19.975  27.660  16.436  0.0145  0.0370 -0.0341
37381W        W80372  21.319  29.277  28.831 -0.2404 -0.0003 -0.1211
37382W        W80373   7.383  25.144  23.859  0.1671  0.1468 -0.0556
37383W        W80374  27.886   2.716   5.015  0.0520 -0.1636  0.0271
37384W        W80375  23.361   5.059  26.482  0.0960 -0.1401  0.0272
37385W        W80376   4.744  18.893  16.186  0.2982 -0.3488  0.3938
37386W        W80377  31.588  25.787  26.149  0.2101 -0.0077 -0.1842
37387W        W80378  34.279  33.271  16.139 -0.0590 -0.1209  0.1624
37388W        W80379  18.411  26.594  22.826 -0.5022  0.0830  0.2701
37389W        W80380  34.139   9.583   0.889  0.1441 -0.3168 -0.0569
37390W        W80381  16.229   4.162  25.565  0.1385  0.0868  0.2064
37391W        W80382  32.070   8.064  15.615  0.1968 -0.0325  0.2728
37392W        W80383  33.087   1.719  24.040 -0.2297  0.0148 -0.1914
37393W        W80384  11.435  11.437  25.747  0.2152 -0.0522  0.1014
37394W        W80385  10.494  18.845  22.386  0.0744  0.0196 -0.2932
37395W        W80386   2.379  12.968  19.146 -0.3097 -0.0036  0.1177
37396W        W80387  24.955  11.243  26.437  0.2507  0.2336 -0.2219
37397W        W80388  28.782   2.542  26.562  0.2129  0.0189  0.1132
37398W        W80389  20.057   2.317   9.872  0.0114  0.2323 -0.2969
37399W        W80390   8.612   3.130   3.077  0.2056 -0.1015 -0.4526
37400W        W80391   9.017   7.932  24.974 -0.2543  0.1387 -0.0068
37401W        W80392  14.222   2.694   1.710  0.1227 -0.3662  0.0344
37402W        W80393   9.531   6.005  18.946  0.0075  0.0051 -0.0559
37403W        W80394  16.616   8.053  26.314 -0.0180  0.3072 -0.2827
37404W        W80395   5.656  11.158  22.649 -0.1911  0.0993  0.2869
37405W        W80396  14.227   9.764  14.567 -0.0177 -0.1663  0.0982
37406W        W80397  14.012   5.551  16.044  0.2658 -0.2230  0.0019
37407W        W80398  11.498   2.590  18.179 -0.1920 -0.2712 -0.1221
37408W        W80399  16.492  22.326  18.369  0.1422  0.2719 -0.0172
37409W        W80400  29.949  13.323  21.292 -0.0277 -0.1768 -0.1045
37410W        W80401  15.664   9.225  16.785  0.0186  0.0342  0.0049
37411W        W80402  12.155   7.460  29.233 -0.3290  0.4303 -0.0358
37412W        W80403  15.183   3.760  17.341  0.2035 -0.0589 -0.2998
37413W        W80404  12.073  13.815  19.463  0.3339  0.2670  0.0008
37414W        W80405  15.600  28.948  16.609 -0.1387  0.0127 -0.2781
37415W        W80406  32.371  32.198  20.936  0.0178  0.2474 -0.1596
37416W        W80407  23.606  16.758  17.027  0.0751 -0.3151 -0.0475
37417W        W80408  12.370  16.340  23.918  0.0221 -0.0077  0.1557
37418W        W80409   6.495  18.032  14.464 -0.3469 -0.0451  0.0503
37419W        W80410  13.422  15.860  28.039 -0.1177 -0.0521 -0.2857
37420W        W80411   9.197   1.100  15.820  0.0568 -0.1182 -0.1124
37421W        W80412  17.365   7.700  26.306  0.1225  0.0355 -0.1581
37422W        W80413  20.829  10.418  16.243 -0.4343 -0.1417  0.2692
37423W        W80414  25.521  34.355  20.862  0.0224 -0.3377 -0.1453
37424W        W80415   5.767  24.429  19.079 -0.1586 -0.1056 -0.1909
37425W        W80416  34.252   2.562  23.562  0.5306  0.1532  0.0413
37426W        W80417  21.858   2.541  21.533 -0.0571 -0.0580  0.1510
37427W        W80418   9.413   2.137  25.972  0.3372 -0.3514  0.4688
37428W        W80419  33.122   4.107  15.304 -0.1802  0.0418  0.2313
37429W        W80420   2.330  19.745  20.614 -0.0644 -0.0390 -0.0882
37430W        W80421  22.438   9.262  21.709  0.0390  0.0515  0.0398
37431W        W80422   8.647  32.362  26.421 -0.2208  0.0705  0.1064
37432W        W80423  27.547  33.230   3.833 -0.2334  0.0341 -0.0032
37433W        W80424   9.375  21.039  19.410  0.0571 -0.0532  0.1008
37434W        W80425  30.498   0.074  28.720 -0.1259  0.0443 -0.2756
37435W        W80426   5.037   9.317  22.922  0.0450  0.0674 -0.0389
37436W        W80427  16.060  11.362  21.189 -0.0751 -0.0276  0.4256
37437W        W80428  16.775   3.861  23.309 -0.2485 -0.2228 -0.1301
37438W        W80429  27.986   4.788  21.974 -0.4543  0.3277 -0.0827
37439W        W80430  10.823  23.472   3.227  0.0297 -0.1057 -0.1147
37440W        W80431  13.104   9.384  21.215  0.1701 -0.3684  0.0044
37441W        W80432  19.005  32.530  15.307  0.0388  0.0761  0.3412
37442W        W80433  13.964   4.004  19.470  0.2863  0.0454 -0.2764
37443W        W80434  13.483   7.776  16.925 -0.2839 -0.2024  0.0350
37444W        W80435   8.856  34.713  23.809  0.1991 -0.0478  0.3553
37445W        W80436  14.232   0.387  17.732  0.3466 -0.0380 -0.0410
37446W        W80437  33.229   6.151  19.172 -0.1010  0.1283 -0.0977
37447W        W80438  19.491   5.666  20.183 -0.0612  0.1535  0.0233
37448W        W80439   2.099  34.638  16.284 -0.1381  0.2892  0.0169
37449W        W80440  14.740   3.212  16.022  0.0703 -0.0559  0.2527
37450W        W80441  15.976  14.673  12.933 -0.0203  0.2164 -0.1934
37451W        W80442  30.459  12.664   2.593 -0.2483  0.2637 -0.1159
37452W        W80443  19.517  22.329  18.517 -0.2134  0.3850 -0.2573
37453W        W80444   8.865   3.738  17.011  0.1652 -0.2311  0.3307
37454W        W80445   0.732   8.137  22.974  0.3023  0.0969 -0.0165
37455W        W80446  14.314   5.109   2.294  0.0592  0.0842  0.2903
37456W        W80447   4.522  12.846  22.461 -0.1531  0.0764 -0.0979
37457W        W80448   0.193   1.908  14.585  0.2751  0.2082 -0.0795
37458W        W80449  27.354  29.047  13.783 -0.1391  0.0117  0.2786
37459W        W80450  34.025   5.381  24.107  0.1200  0.1209  0.0779
37460W        W80451  17.427   3.242  18.957 -0.0766 -0.1968  0.1977
37461W        W80452  31.717  25.416  17.799 -0.0067  0.2018 -0.0826
37462W        W80453  14.449  22.728  22.108  0.1929 -0.0826  0.0751
37463W        W80454  12.663  31.217  14.583  0.2919  0.1482 -0.0821
37464W        W80455  19.967  19.819   7.523 -0.0720 -0.2587 -0.0679
37465W        W80456  10.043  30.735  14.328  0.1632  0.0219  0.0372
37466W        W80457   4.569  10.288   3.699 -0.5492  0.0364  0.0379
37467W        W80458   1.580   6.785  19.442  0.5612 -0.2536  0.1848
37468W        W80459  32.152  30.919  19.599  0.0009  0.0966  0.3206
37469W        W80460   3.760   9.136  22.471 -0.1263  0.0354 -0.1070
37470W        W80461   0.690  14.354  22.975  0.0432 -0.1697 -0.0225
37471W        W80462  31.277   7.306  17.852  0.1879 -0.0000  0.0678
37472W        W80463  11.099   8.121  19.433  0.0643  0.1135  0.0482
37473W        W80464  32.004  33.639  16.160  0.2333 -0.0634 -0.0076
37474W        W80465  27.599  31.867   4.031  0.0881 -0.1690 -0.1603
37475W        W80466  12.585  11.427  24.125  0.0718 -0.2836  0.1412
37476W        W80467   0.123   5.921  15.679  0.3599  0.1058  0.1508
37477W        W80468  11.153   9.657  14.921  0.1168 -0.0202  0.0284
37478W        W80469  32.541   8.721  25.385 -0.0046 -0.0266 -0.0740
37479W        W80470  11.759  16.261  16.147 -0.0725 -0.2986 -0.0950
37480W        W80471  34.562   7.096  23.942  0.0234 -0.2232  0.1157
37481W        W80472  11.922  16.676  27.741  0.3340  0.0384 -0.0467
37482W        W80473  19.325  30.515   0.149 -0.2282  0.0708 -0.2411
37483W        W80474   4.753  15.107  19.876  0.2657  0.1861 -0.0295
37484W        W80475  16.824   6.794  21.720  0.2408  0.0108 -0.1250
37485W        W80476   9.469  33.449  18.775  0.2086  0.1830  0.0457
37486W        W80477   6.658   5.548  17.785  0.6889 -0.1440 -0.3156
37487W        W80478  11.690   4.355   4.888 -0.3162  0.0442  0.0002
37488W        W80479  10.515   4.414  16.075  0.1137 -0.2954 -0.1407
37489W        W80480   8.928   1.854  16.129  0.0873 -0.0568 -0.0376
37490W        W80481  11.980  19.793  14.928  0.1512 -0.3128  0.0333
37491W        W80482  11.151  11.685  26.735 -0.1077 -0.4397  0.0775
37492W        W80483  21.926   8.965  19.486  0.0003  0.2196 -0.0859
37493W        W80484   9.854  16.429  16.518 -0.0311  0.2600 -0.1762
37494W        W80485  34.213  29.049  15.838 -0.1317 -0.2483 -0.0170
37495W        W80486  22.945   4.167  19.194 -0.0405  0.5060 -0.0323
37496W        W80487   2.996  12.721   6.694  0.2372 -0.1319 -0.1866
37497W        W80488   7.204   6.599  15.237  0.2655 -0.2861 -0.1013
37498W        W80489  15.792   7.687  28.110  0.1018 -0.3577 -0.0395
37499W        W80490  10.392  16.353  17.516 -0.0979 -0.1109 -0.1191
37500W        W80491  33.807  22.092  17.158 -0.1238 -0.0346  0.1846
37501W        W80492  29.712  27.607  14.873  0.2049  0.0222  0.2156
37502W        W80493  11.901   5.330  15.042  0.3403 -0.0692  0.1158
37503W        W80494  34.723  33.354  27.382  0.2531  0.0401 -0.1929
37504W        W80495   5.858   1.411  28.924 -0.2602  0.2799  0.1657
37505W        W80496   6.577  33.458  27.283 -0.1040 -0.1445  0.1182
37506W        W80497   2.007   4.152   9.289 -0.0370  0.3485 -0.6365
37507W        W80498   0.019  13.142  27.001 -0.0223  0.0919 -0.0221
37508W        W80499  12.667  20.825  16.458  0.0744 -0.2883  0.0361
37509W        W80500   3.798  13.404   3.867 -0.1377  0.0304 -0.2401
37510W        W80501  34.685  33.120  15.833 -0.3119  0.1316 -0.2183
37511W        W80502  14.850  18.178  13.843  0.0084 -0.0160  0.2776
37512W        W80503  15.404  11.774  17.345  0.2973 -0.0312  0.2032
37513W        W80504  12.169  12.326  22.428  0.5492  0.1872  0.0235
37514W        W80505  10.211  32.595   3.323  0.2080 -0.2170  0.4059
37515W        W80506   3.572  33.408   2.370  0.0761  0.1710  0.2270
37516W        W80507   0.559  21.886  25.123 -0.2302  0.1162  0.0062
37517W        W80508  12.882  10.550  22.977 -0.0480  0.0823 -0.0078
37518W        W80509   2.479  25.064  26.334 -0.0023 -0.1503 -0.1445
37519W        W80510  15.189   3.012  22.981  0.0486  0.1171 -0.1901
37520W        W80511  33.972  31.515   6.083 -0.0479 -0.0782  0.0403
37521W        W80512  16.705   1.678  16.221  0.2723  0.0411  0.1238
37522W        W80513  34.763   1.391  28.815 -0.0548  0.1160  0.0448
37523W        W80514  13.191  12.116  27.516 -0.1411  0.1006 -0.1130
37524W        W80515  19.337  11.109  22.415  0.0406  0.2116  0.0571
37525W        W80516  18.134   6.185  24.370  0.5510 -0.2068  0.1400
37526W        W80517  18.038   0.778  25.076 -0.2392 -0.1973  0.0581
37527W        W80518   2.202  34.490   0.807  0.3057 -0.1983 -0.0332
37528W        W80519  20.065  11.229  15.709  0.0398  0.2694  0.1263
37529W        W80520   4.564   6.196  16.016 -0.0885  0.1259 -0.3941
37530W        W80521  34.033  21.332   0.789 -0.0648 -0.1899  0.1963
37531W        W80522   7.074   8.523  18.119 -0.1121 -0.1278  0.1210
37532W        W80523   5.858  34.204  23.468  0.0893 -0.2741 -0.1299
37533W        W80524   4.353  33.589  14.345 -0.1369 -0.0289 -0.0768
37534W        W80525  23.367  15.587  26.420  0.3268  0.0291 -0.1516
37535W        W80526   9.596  17.327  17.985 -0.3640  0.0512  0.3424
37536W        W80527  14.810   2.327  29.095  0.0184  0.0682 -0.1949
37537W        W80528  23.341   5.324  15.559  0.2975  0.3544 -0.2347
37538W        W80529  12.891   4.471  20.392  0.0296  0.1674 -0.2022
37539W        W80530  28.822   9.087  14.850 -0.2578  0.0037  0.0826
37540W        W80531  19.871  18.971  14.889  0.0285  0.0052  0.1107
37541W        W80532   3.765   8.637   9.113 -0.1884  0.0512 -0.1815
37542W        W80533  10.025  14.246  16.029 -0.2249 -0.2723 -0.1394
37543W        W80534   7.850  15.403  27.685  0.0908 -0.1609  0.0579
37544W        W80535   5.020   4.537   0.165 -0.3224  0.0746  0.0970
37545W        W80536   8.186  34.067  15.519 -0.1180 -0.0580  0.0753
37546W        W80537  32.688   0.931  13.672  0.1426  0.0937  0.0721
37547W        W80538  17.246   9.406  24.703  0.0354  0.3338  0.2123
37548W        W80539  25.476   6.837  18.752 -0.0032 -0.1254  0.0601
37549W        W80540  25.938  11.017  18.407  0.1012  0.3558  0.0128
37550W        W80541   6.723   3.194  19.283 -0.0972  0.1592  0.0171
37551W        W80542   9.128  34.538  24.625  0.1058  0.1944 -0.4733
37552W        W80543   9.742  32.965  24.552 -0.0675 -0.1392 -0.0473
37553W        W80544   3.053   0.788  14.930  0.0417  0.1456  0.0315
37554W        W80545  20.201  22.548  23.699  0.0678  0.1706 -0.0895
37555W        W80546   5.731  31.268  26.194  0.0567 -0.1246 -0.1574
37556W        W80547   8.289   6.897  18.562  0.2782 -0.2058 -0.2158
37557W        W80548   3.355   0.019  24.373 -0.1469  0.2955  0.0527
37558W        W80549   5.238  18.535  15.111 -0.3115  0.1691  0.1915
37559W        W80550  32.140  12.456  18.158 -0.1646  0.1080  0.3480
37560W        W80551   5.264  27.913  22.128  0.3506  0.0393 -0.0222
37561W        W80552  25.413  32.554  19.493 -0.0838 -0.1977  0.1055
37562W        W80553  28.653  34.451  16.691 -0.0814 -0.0087 -0.2453
37563W        W80554  12.069   6.431  23.381  0.0629  0.0351 -0.1116
37564W        W80555   2.248   5.921  15.255  0.3037 -0.0291 -0.1097
37565W        W80556  27.420   9.466  28.356  0.0394 -0.0749 -0.0183
37566W        W80557  25.546  17.029  15.057  0.3026  0.0813 -0.0874
37567W        W80558  19.402  22.416  24.997 -0.3293  0.0358  0.0036
37568W        W80559  31.322  13.595  18.409 -0.1769 -0.3484  0.2142
37569W        W80560   2.984   9.166  21.506  0.1526  0.2502  0.0668
37570W        W80561  13.347   2.523  24.888 -0.2049 -0.2060  0.1382
37571W        W80562  25.024   4.648  15.613  0.5942  0.1014  0.2552
37572W        W80563  13.987   0.043   5.245  0.1014  0.2902  0.0343
37573W        W80564  18.350   5.710  28.091  0.2204  0.0230 -0.1681
37574W        W80565  12.695   0.178  24.091 -0.1276  0.3135 -0.2666
37575W        W80566  30.996   7.192  18.663 -0.0728  0.1678  0.1642
37576W        W80567  16.531  28.826  22.355 -0.1165  0.1947 -0.0761
37577W        W80568   9.563  34.194  20.058  0.5398 -0.0869  0.2270
37578W        W80569  33.160  24.596  28.352 -0.0043  0.0640 -0.0961
37579W        W80570   1.343  33.658  20.343 -0.0535 -0.0298  0.1287
37580W        W80571   4.902  33.305  23.830  0.1231 -0.1779  0.2214
37581W        W80572   8.740   0.734  19.167 -0.0854  0.0187 -0.3616
37582W        W80573  29.787   5.009  16.265 -0.1604  0.4135 -0.1186
37583W        W80574  34.050  23.083  21.198  0.2848 -0.3684 -0.0599
37584W        W80575  25.207   2.873  23.686 -0.2373  0.0565  0.3065
37585W        W80576  33.023   1.347  29.179  0.2595  0.1504  0.0722
37586W        W80577   9.586  13.937  15.944  0.0030  0.2918  0.2356
37587W        W80578  19.389  34.110  21.107  0.3979 -0.0954  0.0112
37588W        W80579  34.510  22.194  21.347 -0.1614  0.0855  0.1455
37589W        W80580   3.714  32.317   3.658  0.0356 -0.1343 -0.1303
37590W        W80581  22.214   9.802  14.617 -0.1941  0.0078 -0.2568
37591W        W80582  17.351   8.937  14.817 -0.1182  0.0626 -0.1268
37592W        W80583  26.927  13.621  17.331 -0.3010  0.0431 -0.1291
37593W        W80584  10.271   8.052  15.681  0.0220  0.1394  0.1646
37594W        W80585   3.080   3.188   7.417 -0.1031 -0.0744 -0.3335
37595W        W80586  28.166   8.767   7.363  0.0586  0.0501  0.0263
37596W        W80587   4.969   9.606  15.785 -0.3052  0.0146 -0.2100
37597W        W80588   8.954  14.488  19.095 -0.2279 -0.1147 -0.2179
37598W        W80589   1.444  23.567  23.122 -0.0678 -0.3626  0.2518
37599W        W80590  16.269   3.347  25.411 -0.0674 -0.1693  0.1087
37600W        W80591  11.075   9.790  23.806 -0.1673 -0.4082  0.2814
37601W        W80592   9.784   1.315  26.516 -0.2592  0.3843  0.0683
37602W        W80593   7.754   3.779  18.513  0.0605 -0.1135  0.0579
37603W        W80594  12.600  34.754  23.521 -0.3604 -0.2115 -0.0620
37604W        W80595  18.777  30.973  16.156  0.0895  0.3563  0.0091
37605W        W80596  20.533  13.104  23.237  0.1575 -0.2720 -0.1814
37606W        W80597  10.788  19.249  16.616 -0.1510 -0.3289  0.0025
37607W        W80598  15.385  23.069  17.514  0.0247  0.1062  0.2989
37608W        W80599  23.299   0.174  18.467  0.2012  0.1796  0.0694
37609W        W80600  12.025  24.128  25.129 -0.0047  0.0440 -0.1125
37610W        W80601   6.305  10.198  20.152 -0.0399  0.1284 -0.0631
37611W        W80602  30.286   9.281  14.059  0.0849 -0.1179  0.0753
37612W        W80603  18.000   1.427  23.071 -0.0273  0.0250 -0.2306
37613W        W80604  31.655   7.063  18.884 -0.3622 -0.0631  0.2627
37614W        W80605  16.334   5.030  23.518  0.2183 -0.4073 -0.3068
37615W        W80606   3.467  21.965  21.833  0.3433  0.1750 -0.1107
37616W        W80607  17.893  34.796  26.109  0.1198  0.2856  0.5319
37617W        W80608  16.584  28.735  25.900 -0.0226 -0.0569 -0.1735
37618W        W80609   8.161   0.951  21.740 -0.0976 -0.0712  0.1560
37619W        W80610  14.070   1.479   4.012 -0.2298  0.0215 -0.0691
37620W        W80611   8.528   5.692  26.143 -0.2653 -0.0244  0.0474
37621W        W80612  30.474  15.984  15.724 -0.2505  0.0378 -0.2348
37622W        W80613  31.721  11.034  16.341  0.1698 -0.0216  0.0218
37623W        W80614  22.049  24.175  22.382  0.3329  0.2516  0.0955
37624W        W80615  10.366   1.732  23.412  0.0148  0.1240  0.0913
37625W        W80616  19.521   3.182  25.244  0.0508  0.1901  0.2136
37626W        W80617  17.282  34.006  24.744  0.0051  0.0493  0.1671
37627W        W80618  31.578   1.492  25.372 -0.0246  0.0704 -0.2656
37628W        W80619   1.043  11.625  18.263 -0.1214 -0.0593 -0.0545
37629W        W80620  11.475  16.468   6.400 -0.2291  0.0273  0.4043
37630W        W80621  28.016  16.923  19.149 -0.1735 -0.3650 -0.0589
37631W        W80622   6.095   6.813  21.730  0.1226 -0.1658  0.0131
37632W        W80623  16.254  10.641  28.359 -0.1691  0.1295  0.1882
37633W        W80624  32.206  16.620  17.832  0.2173  0.0363  0.0933
37634W        W80625  10.609   0.481  24.164 -0.1841  0.3351  0.0480
37635W        W80626   5.523  29.874  25.801  0.3264 -0.0241 -0.0899
37636W        W80627  11.024   3.557  17.233  0.2152  0.1170 -0.1259
37637W        W80628  16.146  31.867  19.486 -0.2833  0.0363 -0.1221
37638W        W80629   8.465   7.102  16.309  0.0164  0.1225  0.2248
37639W        W80630   8.860  34.282   7.096  0.0310  0.3581  0.1316
37640W        W80631  21.819   3.240  16.262 -0.2213 -0.1500 -0.2675
37641W        W80632  23.878  12.895  19.653 -0.1608  0.1283 -0.1881
37642W        W80633  26.638   3.036  21.999 -0.0847  0.3711 -0.0289
37643W        W80634  27.891  15.391   3.206  0.3290  0.1784  0.1924
37644W        W80635  14.344   8.565   0.674  0.1147  0.0648 -0.2467
37645W        W80636  19.177   2.831  26.695  0.0787  0.1662  0.3104
37646W        W80637  32.232  14.726  21.234 -0.0205  0.0993  0.2165
37647W        W80638   9.598  23.773  19.226  0.0504 -0.2231 -0.0120
37648W        W80639  22.043   5.583  27.830  0.0619  0.0484 -0.4228
37649W        W80640   6.847  34.501  18.230 -0.2774 -0.0688  0.2879
37650W        W80641   7.918  20.708  27.192 -0.0456 -0.1219  0.1967
37651W        W80642  24.240  19.431  13.613  0.2992 -0.0860  0.0041
37652W        W80643   6.525   0.465  23.200  0.0915 -0.3958 -0.2351
37653W        W80644  31.349   8.480  19.809 -0.0478  0.0744 -0.0332
37654W        W80645  28.517   6.409  14.120  0.0085  0.3597 -0.2968
37655W        W80646  33.934   7.154  26.320 -0.0543 -0.1792  0.1739
37656W        W80647  30.167   3.425  17.111 -0.0316 -0.0253 -0.4228
37657W        W80648   7.184  14.782  17.726  0.0076  0.0789 -0.1548
37658W        W80649   8.537  27.089  14.913 -0.1210 -0.1056  0.0409
37659W        W80650  24.664   0.083  20.805  0.0651  0.4381  0.1945
37660W        W80651  30.539   5.180  17.902  0.2507  0.0227  0.0528
37661W        W80652   6.497  15.899  17.213 -0.0786 -0.0007 -0.1238
37662W        W80653  10.696  31.813  19.391  0.0874 -0.0810  0.5162
37663W        W80654   7.842  32.152  20.125  0.0563  0.0588  0.1572
37664W        W80655  32.846   5.193  16.151 -0.1671 -0.0113  0.3796
37665W        W80656   7.249  14.361  14.803 -0.0853  0.1744 -0.2084
37666W        W80657  24.338   0.110  22.116  0.1828  0.1977  0.1954
37667W        W80658   0.115   1.062  19.851 -0.1018  0.1230  0.1753
37668W        W80659   9.601   4.521   3.840  0.0194 -0.3600  0.2934
37669W        W80660  30.358  15.744  26.507  0.1100  0.0355  0.0946
37670W        W80661   7.050   5.801  20.634 -0.0121 -0.1073  0.0679
37671W        W80662   5.839   7.416  22.088 -0.0578  0.0742 -0.0645
37672W        W80663  17.401   7.431  14.910 -0.1341  0.2815 -0.1348
37673W        W80664  18.624   2.103  27.261 -0.3356  0.0646 -0.0862
37674W        W80665  20.044  23.424  14.042 -0.1417 -0.0647  0.0312
37675W        W80666  18.216   2.569  16.619 -0.2107 -0.0859 -0.0882
37676W        W80667   2.175  11.529  20.830  0.2914 -0.1445 -0.0940
37677W        W80668   4.789   0.253  20.703  0.1545  0.4213 -0.2233
37678W        W80669  10.698  34.456  23.122  0.0646 -0.0425 -0.4015
37679W        W80670   6.330   9.167  18.159 -0.2483 -0.1842 -0.2577
37680W        W80671  13.198  11.555  16.624 -0.0569  0.0405  0.2985
37681W        W80672  17.564   0.712  13.863 -0.1852  0.2425 -0.1206
37682W        W80673  14.648  14.656   6.389  0.1483 -0.1368 -0.2557
37683W        W80674   9.815  29.132  21.277 -0.1985 -0.0210 -0.4204
37684W        W80675   3.961   5.162  18.980 -0.0703 -0.2463 -0.1548
37685W        W80676  21.894   4.515  14.113  0.0344  0.3007 -0.2539
37686W        W80677  16.687  11.040  27.644 -0.0560  0.2415  0.0016
37687W        W80678  14.732  10.526  20.044 -0.0566  0.1015  0.2058
37688W        W80679  33.228   8.440  22.475  0.1229  0.4425 -0.1024
37689W        W80680  19.833  30.978  21.403 -0.0214 -0.0193 -0.0314
37690W        W80681  30.459  33.929  22.275 -0.0900 -0.2381  0.3253
37691W        W80682  10.729  22.938  21.555 -0.1470  0.0885 -0.5212
37692W        W80683  18.507  21.910  15.438 -0.1378  0.0734 -0.2152
37693W        W80684  21.633   3.720  15.153  0.0253 -0.0862 -0.0447
37694W        W80685   7.484  19.708  20.069  0.0240  0.1760  0.5198
37695W        W80686  34.287   4.268   6.293  0.2084  0.2902 -0.1228
37696W        W80687   3.143  14.916  16.474  0.1026  0.2751  0.1417
37697W        W80688  11.488   8.300  21.400 -0.0033  0.1457 -0.0415
37698W        W80689   7.072   9.504  19.123  0.0393  0.3454 -0.0765
37699W        W80690  17.004   2.675  16.604 -0.0218 -0.2775  0.1446
37700W        W80691  11.012   2.098  21.862  0.3574  0.0517 -0.3027
37701W        W80692  22.243   0.880  28.413 -0.2407 -0.1159 -0.2309
37702W        W80693   1.617  33.350  29.100 -0.0694 -0.0690  0.0455
37703W        W80694  33.465   6.047  21.593 -0.2348 -0.0354 -0.0588
37704W        W80695  12.364  14.186  21.262  0.0501  0.0457 -0.3128
37705W        W80696   7.187  16.513  24.628 -0.0210 -0.1665 -0.1600
37706W        W80697  11.928  16.409  20.981  0.0269  0.3393 -0.2832
37707W        W80698  13.743   3.721  23.184 -0.0501 -0.2540  0.1280
37708W        W80699   7.586   1.945  17.668  0.1185  0.1974  0.0447
37709W        W80700  13.466   0.255  26.545  0.0483  0.3492  0.1429
37710W        W80701   4.058  30.443  18.585  0.2736 -0.1781 -0.0446
37711W        W80702  32.161  10.546  18.420  0.3661 -0.0953 -0.1989
37712W        W80703  32.338   1.089  25.880 -0.1009 -0.0642 -0.0613
37713W        W80704  21.553  12.928  13.094  0.1004  0.3113  0.1385
37714W        W80705  31.425  30.882  15.050  0.4094 -0.3118 -0.2145
37715W        W80706  11.596   7.272  19.997 -0.0149  0.2465  0.4424
37716W        W80707  14.713  32.544  14.353 -0.1358  0.1576 -0.0337
37717W        W80708  28.961   0.412  17.820  0.0323 -0.1634 -0.1341
37718W        W80709  21.190   1.310   2.350 -0.0323 -0.2021  0.1997
37719W        W80710  32.980  10.286  16.138  0.3259 -0.0934  0.1931
37720W        W80711   8.813   4.158   1.395 -0.1843 -0.0156  0.0373
37721W        W80712  10.583   6.845  15.458 -0.1532 -0.0696 -0.1834
37722W        W80713  32.066  13.878  28.096 -0.3931  0.2893 -0.1398
37723W        W80714  17.160  34.481  22.231  0.2365  0.2041 -0.1415
37724W        W80715  18.943  15.075  27.581 -0.0758 -0.0489  0.1409
37725W        W80716  14.686   1.896  17.475  0.1212  0.4286 -0.2053
37726W        W80717   7.356  19.306  21.422  0.1450  0.0546  0.0941
37727W        W80718   5.538  29.911  22.436  0.1238 -0.1652 -0.0297
37728W        W80719   2.635   0.501  22.272 -0.3340 -0.0575  0.0903
37729W        W80720   4.863  33.686  25.301 -0.0029  0.2530 -0.3220
37730W        W80721  16.733   7.661  27.068 -0.0842 -0.0709  0.0161
37731W        W80722   8.324  14.136  20.562 -0.0546  0.1238  0.1360
37732W        W80723  21.302  10.677  23.007  0.1757  0.0999  0.0226
37733W        W80724   9.352   6.406  16.623  0.3740 -0.3529  0.0626
37734W        W80725   0.101  16.519  18.757  0.2972 -0.2540  0.0325
37735W        W80726   5.166  31.715  15.530 -0.2893  0.0698  0.1972
37736W        W80727  15.211  29.938  22.573 -0.0011 -0.2522  0.4334
37737W        W80728   5.496   6.139  26.887 -0.3650 -0.2666  0.1539
37738W        W80729  15.622   3.715  15.495  0.0941 -0.0616  0.0630
37739W        W80730   6.198   2.353  19.114  0.1525 -0.2319  0.0423
37740W        W80731  10.077  14.335  24.135  0.2133 -0.1597  0.0221
37741W        W80732  33.263  15.283  28.336  0.1820  0.1618 -0.0923
37742W        W80733  26.284   3.173   2.364  0.1635  0.1809 -0.4018
37743W        W80734   5.645   8.282  15.108  0.2173  0.0808 -0.2196
37744W        W80735   0.727   5.002  19.075 -0.2193  0.0943 -0.0257
37745W        W80736   4.978   9.316   3.871 -0.1429 -0.3873  0.1052
37746W        W80737  28.527   3.906  17.469 -0.0166 -0.2033  0.1505
37747W        W80738  12.708  12.186  21.663 -0.0814  0.3760  0.2575
37748W        W80739   1.484  19.383  14.466 -0.3161 -0.1125  0.0065
37749W        W80740  12.023   6.509  20.092  0.4009  0.2006 -0.0215
37750W        W80741   2.081  31.281  23.375  0.1467  0.4381  0.1553
37751W        W80742  32.545  28.649  26.453  0.1690  0.0408  0.0083
37752W        W80743   2.233   6.660  27.781 -0.3518 -0.3834 -0.1442
37753W        W80744  15.118   1.476  15.499  0.0815  0.1607  0.0685
37754W        W80745   7.380   9.744  27.973  0.3449 -0.1027 -0.1051
37755W        W80746  21.033   0.237  25.003  0.0158  0.0322  0.0785
37756W        W80747  16.212  22.719  20.168 -0.2589  0.0760  0.1216
37757W        W80748   9.129  34.761  17.656  0.0256 -0.2460  0.0803
37758W        W80749   3.186   1.769  23.606  0.0070 -0.1630 -0.0928
37759W        W80750  13.956   0.423  25.041  0.0974  0.0345  0.0472
37760W        W80751  27.999  34.449  13.798 -0.0724  0.2176  0.0767
37761W        W80752   9.890  28.347  18.632  0.0421  0.0965 -0.0149
37762W        W80753   2.261  17.875  27.186  0.0418 -0.0349 -0.4511
37763W        W80754   8.386   3.326  17.850  0.1951 -0.4500 -0.2113
37764W        W80755   4.566  11.311  15.534 -0.1852 -0.0705  0.0012
37765W        W80756  20.605  21.797  22.505 -0.2254  0.1504  0.3043
37766W        W80757  26.936   4.937  13.303  0.0913  0.0417 -0.2634
37767W        W80758  12.188  33.532  27.682 -0.3494  0.1357 -0.0856
37768W        W80759  23.654  12.690  18.804  0.0432 -0.3279  0.1232
37769W        W80760   0.604  34.014  21.672 -0.0773 -0.0244  0.0780
37770W        W80761   6.945  14.208  17.149  0.2360  0.2790 -0.2184
37771W        W80762  17.920   3.854  15.628 -0.2926  0.2809 -0.3700
37772W        W80763  28.469   0.405  23.619  0.0621 -0.2018 -0.2563
37773W        W80764  34.282  11.080   2.195  0.0068 -0.1809 -0.1809
37774W        W80765  13.984   4.448  19.290  0.1033 -0.1514  0.0080
37775W        W80766   6.517   6.640   5.759 -0.1239 -0.1540  0.0312
37776W        W80767  21.448   3.017  22.365 -0.0281 -0.4898 -0.1537
37777W        W80768  10.331  12.365  25.643  0.3356  0.0428 -0.0719
37778W        W80769   3.910  31.534  26.614  0.1940  0.1378 -0.1704
37779W        W80770   0.427   6.369   1.166 -0.0265 -0.2563 -0.3619
37780W        W80771  24.518  33.034  17.058 -0.1836 -0.0602  0.0876
37781W        W80772   5.222  34.095   4.464  0.1195 -0.0551  0.0004
37782W        W80773   7.032  33.381  16.343 -0.4634 -0.1451  0.3220
37783W        W80774   9.878  33.735  19.463 -0.2162  0.1690  0.1934
37784W        W80775  27.823   3.612  27.304 -0.2529 -0.2499 -0.1365
37785W        W80776  27.875  34.302  24.156  0.0576  0.1993 -0.0288
37786W        W80777  29.461  22.910  15.538  0.2143 -0.2583 -0.1250
37787W        W80778  21.541  32.700  15.476 -0.3142 -0.3233 -0.0725
37788W        W80779  10.200   2.335  26.038 -0.0571  0.1147  0.2706
37789W        W80780  28.340   9.066  13.930 -0.0869 -0.0011 -0.5146
37790W        W80781   1.751   0.394  14.159 -0.2216 -0.1267  0.0179
37791W        W80782  26.366   3.913  27.873 -0.2450 -0.0731 -0.1338
37792W        W80783   3.820   9.360  20.843  0.4065  0.1225 -0.1379
37793W        W80784   9.838   1.107   7.470 -0.0246  0.5030  0.1745
37794W        W80785  23.551   5.641  16.426  0.2370 -0.1314  0.0512
37795W        W80786   4.683   1.886   6.858 -0.2580  0.0046 -0.1229
37796W        W80787  20.386  22.122  17.208 -0.4008 -0.0729 -0.2605
37797W        W80788  18.420   3.403   0.124  0.0368  0.0427  0.1171
37798W        W80789   0.028   2.877  19.811  0.1547  0.2613  0.3917
37799W        W80790  29.169   2.336  19.476 -0.2040  0.3796 -0.0395
37800W        W80791   6.834   4.690  20.015 -0.1993  0.0015  0.2369
37801W        W80792  21.987   9.353  21.001  0.1442 -0.2208  0.1241
37802W        W80793  31.042  11.270  24.868  0.0438  0.0795 -0.2286
37803W        W80794   9.440   8.468  24.272 -0.0678  0.1660 -0.0028
37804W        W80795  17.843  34.573  21.024  0.0671  0.2928  0.1864
37805W        W80796  32.610   4.047  22.482  0.0118 -0.0160 -0.0260
37806W        W80797  13.169  34.133  15.279  0.2491  0.2381  0.1333
37807W        W80798   5.130  29.533   0.748  0.0306  0.0393 -0.2391
37808W        W80799  13.471   5.348   7.798  0.0159  0.1504 -0.2063
37809W        W80800  17.398  34.743  15.350  0.2021 -0.1913 -0.2244
37810W        W80801   8.881   5.550  16.306 -0.0296 -0.0368 -0.1747
37811W        W80802   6.180  18.875  16.926 -0.2391 -0.1404 -0.3173
37812W        W80803   2.960   6.752  27.679  0.0698 -0.2502 -0.1974
37813W        W80804  23.768  30.473  24.721  0.1300  0.1303  0.0115
37814W        W80805  11.863   3.383  16.996  0.1860 -0.1520  0.1449
37815W        W80806  34.491  34.545  22.005  0.0086  0.2484 -0.0553
37816W        W80807   3.643   1.751  23.684  0.0433  0.1442  0.0727
37817W        W80808  20.358   1.316  18.169 -0.0289 -0.2939 -0.0146
37818W        W80809  19.145  18.708  13.891 -0.0446  0.0387  0.1481
37819W        W80810   8.025   9.942  15.398  0.0255 -0.0298 -0.1110
37820W        W80811  18.547  10.030  22.717 -0.3232 -0.0507  0.1198
37821W        W80812  34.189   8.741  21.511  0.4518 -0.1355  0.3338
37822W        W80813  13.120   5.750   4.500  0.0349 -0.0416  0.1171
37823W        W80814   0.492  34.575  19.496 -0.2185 -0.0750 -0.2252
37824W        W80815  10.866  25.558  19.921  0.1549 -0.0741 -0.0295
37825W        W80816  15.525  19.205  13.400 -0.0224 -0.1482  0.1819
37826W        W80817   8.783   7.917  21.401 -0.2339  0.0408  0.1141
37827W        W80818  14.723  23.631  24.862 -0.0406  0.2359  0.1191
37828W        W80819   7.249  29.740  19.153 -0.2882 -0.1423 -0.2043
37829W        W80820  10.279  20.900  17.902 -0.3750 -0.6205  0.0709
37830W        W80821  27.856  17.011  14.397  0.0273  0.0988 -0.1875
37831W        W80822  21.065  34.011  24.778 -0.0095  0.2634  0.1555
37832W        W80823   6.834   5.960  17.587 -0.1263  0.0312  0.1988
37833W        W80824  22.026  32.721  24.393  0.1938 -0.1092 -0.0918
37834W        W80825  21.781   8.298  27.246 -0.1883  0.1659 -0.0858
37835W        W80826  15.230  32.760  28.876 -0.0939  0.0040  0.0785
37836W        W80827  27.376  23.187  24.643 -0.5632  0.2305  0.0686
37837W        W80828   3.892  12.255   1.315  0.1719 -0.0458  0.3167
37838W        W80829  10.242  14.727  15.265  0.0472 -0.2994 -0.1962
37839W        W80830  12.970   6.400  28.732 -0.1093 -0.0935  0.1676
37840W        W80831  31.206  14.641  16.992  0.0034  0.2489 -0.0411
37841W        W80832  32.032  25.397  26.185  0.0358  0.0936  0.0072
37842W        W80833  28.777   9.248   4.075 -0.1265 -0.0146 -0.2898
37843W        W80834   9.862  34.527  22.480 -0.0797 -0.0182 -0.0425
37844W        W80835   8.827  31.686  16.813 -0.2057 -0.1794 -0.0829
37845W        W80836   2.243   8.134   6.964  0.0181  0.0937 -0.0301
37846W        W80837  31.167  31.716  18.218  0.2693 -0.2517 -0.1386
37847W        W80838   8.227   6.412  19.361 -0.0896 -0.2754  0.1566
37848W        W80839   7.907  29.765  21.104  0.0533 -0.0586 -0.0966
37849W        W80840   9.185  24.107  28.143  0.2589  0.4963  0.1169
37850W        W80841  18.228   9.129  18.081  0.3682 -0.2203 -0.1055
37851W        W80842  13.196  13.281  27.975 -0.1701 -0.0402 -0.0898
37852W        W80843   4.826   1.181  16.204 -0.0585 -0.4959  0.1187
37853W        W80844  11.984   3.216   9.637 -0.0089  0.2235  0.1853
37854W        W80845   9.279  24.534  21.411  0.1442  0.1341 -0.0929
37855W        W80846  27.988   4.945  22.544 -0.0320 -0.0603 -0.2796
37856W        W80847   4.299  29.302  24.006  0.0146 -0.0333 -0.1380
37857W        W80848   4.704  23.522  16.371 -0.0181 -0.2143 -0.1108
37858W        W80849  14.042  29.788  19.917  0.0709  0.2007  0.1380
37859W        W80850  10.857   9.292   7.857  0.1199  0.0774 -0.1605
37860W        W80851  23.664  21.735  16.465 -0.0049  0.1178 -0.0481
37861W        W80852  26.966   2.713  20.990 -0.1079  0.0509  0.1567
37862W        W80853   0.981  31.695  24.615  0.0408 -0.1355 -0.1327
37863W        W80854  10.916   3.763  16.104 -0.0179  0.2084  0.0627
37864W        W80855   1.263  10.918  17.473 -0.0921  0.0027 -0.1441
37865W        W80856  14.555   1.957  10.440  0.1217  0.1026  0.3144
37866W        W80857  21.194   0.888  19.202 -0.0533  0.1881  0.2261
37867W        W80858  20.016   7.727  24.025  0.1813  0.0034 -0.1761
37868W        W80859  31.425   8.485  26.392 -0.0870  0.3365  0.1267
37869W        W80860  34.092  32.244  21.308 -0.0854  0.0890  0.1704
37870W        W80861   8.905  29.986  17.730 -0.1449 -0.0981  0.1944
37871W        W80862  32.302  13.487  24.012 -0.0743  0.3159  0.4537
37872W        W80863  18.450  12.957  17.746  0.0159 -0.1739 -0.1685
37873W        W80864  17.907   6.514  18.285 -0.3211  0.0824  0.1718
37874W        W80865  32.603  22.872  22.945 -0.3805  0.1770  0.4480
37875W        W80866  17.361  34.480  16.865 -0.1014  0.0275 -0.1389
37876W        W80867   5.414   6.250  27.465  0.2752  0.0895  0.1809
37877W        W80868  13.102   7.676  19.173 -0.1508  0.2827 -0.3376
37878W        W80869  10.099  32.335  21.480 -0.0018 -0.0502  0.1505
37879W        W80870  13.170  18.896  23.544 -0.1721  0.2958 -0.0755
37880W        W80871  29.635  11.925  15.358 -0.0941  0.1821 -0.0725
37881W        W80872  15.604  26.676   1.205  0.6133 -0.2403 -0.2441
37882W        W80873  12.483  18.844  20.037 -0.0791 -0.0020 -0.1074
37883W        W80874  11.283  16.166   7.701  0.0926 -0.2814  0.0780
37884W        W80875   3.470  34.200  20.883 -0.1413 -0.0777 -0.2482
37885W        W80876  18.389   4.257  14.948 -0.2117 -0.2016  0.0446
37886W        W80877  28.704  25.023  17.822  0.1782 -0.1241 -0.0846
37887W        W80878  16.517   9.708  18.943  0.2590  0.1123 -0.0322
37888W        W80879   6.188  21.818  19.112  0.1130  0.2022 -0.3906
37889W        W80880  20.532  11.453   6.591 -0.2254  0.1318 -0.2607
37890W        W80881  17.875   1.566  15.812  0.1042  0.2746 -0.0478
37891W        W80882  14.942  31.509  20.343  0.0954 -0.0806  0.0032
37892W        W80883   0.664  17.503  15.537  0.0572  0.1124  0.2139
37893W        W80884  24.615  15.252  19.802  0.0475  0.0603  0.1199
37894W        W80885   5.140   4.648   3.487 -0.3636  0.0505  0.1427
37895W        W80886  24.953  31.242  16.581  0.0937  0.0910  0.2681
37896W        W80887  22.571  34.649   1.521 -0.0231  0.0380 -0.1520
37897W        W80888   0.244   6.693  16.702  0.1144  0.4919  0.0807
37898W        W80889  18.610  33.730  15.711 -0.0584 -0.0035  0.0143
37899W        W80890   2.736   4.412  17.028  0.0151 -0.0315 -0.5605
37900W        W80891  23.385  11.553   6.250  0.0911 -0.2397 -0.1052
37901W        W80892  31.687  23.474  26.349 -0.1579 -0.3024 -0.1920
37902W        W80893   3.302  29.157  22.184 -0.2102  0.0356  0.0555
37903W        W80894  14.890   0.861  22.240  0.0861 -0.0292  0.1098
37904W        W80895   8.955   1.503   0.176  0.1483 -0.1780 -0.0995
37905W        W80896   8.876   2.697  27.151 -0.1924  0.0415  0.0298
37906W        W80897   4.156   8.320  19.932 -0.0726  0.1573  0.1096
37907W        W80898   3.065   1.107  20.764  0.0899 -0.2874  0.2573
37908W        W80899  26.565   3.567  22.325  0.2298  0.2452  0.1186
37909W        W80900  25.989  28.546  22.630  0.4733  0.3675 -0.0024
37910W        W80901  29.958   2.124   7.692 -0.2602 -0.0401 -0.2053
37911W        W80902  23.170  32.718  17.929 -0.0581 -0.0276 -0.0033
37912W        W80903  10.072  11.572  24.480 -0.3926  0.1216 -0.4469
37913W        W80904   7.336  25.717  18.867 -0.1243 -0.0136  0.0808
37914W        W80905  19.548  24.236  20.153 -0.0017 -0.2786  0.3112
37915W        W80906   8.659  10.609  29.078 -0.1080  0.3577  0.2698
37916W        W80907  31.800  11.857  21.539  0.2458 -0.1208 -0.3530
37917W        W80908   3.044   9.443  19.838  0.3378  0.0796  0.0585
37918W        W80909  23.304  22.002  17.371 -0.2747  0.1026 -0.3871
37919W        W80910  13.570  23.938  22.062  0.1137  0.0869 -0.3765
37920W        W80911  22.627   2.893  23.191  0.4292 -0.0796  0.1978
37921W        W80912  33.456  25.762  27.769 -0.1014  0.2068  0.2597
37922W        W80913  12.879  12.437  16.712  0.0325 -0.0219  0.4750
37923W        W80914  12.099   2.696  21.216 -0.0933 -0.2220 -0.2549
37924W        W80915  10.183   1.183   8.292 -0.0815  0.0162  0.1906
37925W        W80916   9.386  14.992  26.212 -0.1346  0.1740 -0.2272
37926W        W80917   7.659  31.584  21.748  0.0544  0.1506  0.0664
37927W        W80918  31.709  10.590  18.073 -0.2657 -0.0286  0.0666
37928W        W80919   6.312  14.392  24.486  0.3400 -0.0140  0.1374
37929W        W80920   4.931  10.233  26.425  0.1453  0.0455 -0.1906
37930W        W80921  18.075   9.687   3.492 -0.3680  0.2200  0.1630
37931W        W80922   8.114   8.904  22.191 -0.0391  0.0451  0.1315
37932W        W80923  29.126   4.623  25.507 -0.0478  0.2080  0.1129
37933W        W80924   6.843   5.665  16.832  0.3420 -0.1039 -0.0905
37934W        W80925   6.085   4.772  16.073  0.1226 -0.1051  0.0236
37935W        W80926   5.723  25.783  15.279 -0.0503 -0.0992 -0.0893
37936W        W80927  19.411   9.090  18.133  0.6284 -0.0062  0.0541
37937W        W80928   4.003   8.145  28.411 -0.1182 -0.0069 -0.0569
37938W        W80929  17.208   1.601  23.199 -0.0983 -0.1463 -0.0852
37939W        W80930  33.255  11.795  24.234  0.1500 -0.0005  0.3145
37940W        W80931  16.270  13.286   3.256 -0.0878  0.0975  0.1280
37941W        W80932   5.980  12.219  21.137 -0.1067  0.1746  0.1550
37942W        W80933   5.807  17.005  20.125 -0.2622 -0.1029  0.0284
37943W        W80934   8.667  15.710  15.644  0.5072 -0.1199  0.0929
37944W        W80935  12.104  27.880  19.597  0.0450  0.1236 -0.0341
37945W        W80936   2.859  28.903   1.296 -0.1813  0.3540 -0.1131
37946W        W80937  10.354   7.127  20.154 -0.3520  0.1797 -0.1170
37947W        W80938  12.444   5.934  15.663  0.1024  0.1627 -0.0698
37948W        W80939  10.117   8.989   3.627 -0.4722  0.0243 -0.0778
37949W        W80940   7.537  18.609  26.496  0.3147 -0.2020 -0.0121
37950W        W80941  16.784  17.332  13.188  0.0277  0.0274 -0.0131
37951W        W80942  15.447  31.135   4.062  0.0727  0.3264  0.0049
37952W        W80943  17.266  30.834  17.686  0.1415  0.2707 -0.1840
37953W        W80944  25.824  33.659  27.678  0.1402 -0.0796  0.3680
37954W        W80945   5.597   4.127  25.982 -0.1389  0.1152  0.3675
37955W        W80946  15.076  10.483   2.090  0.0950  0.1717 -0.2173
37956W        W80947  26.856   3.644  23.887  0.1237 -0.1082 -0.1420
37957W        W80948   0.789  30.030  16.115 -0.0066 -0.1674 -0.2494
37958W        W80949   6.179  22.790  15.661 -0.2140  0.1428 -0.2028
37959W        W80950   0.497  29.165   3.798 -0.0722 -0.0211  0.0067
37960W        W80951  29.073  21.471  23.525  0.0570 -0.1963  0.1882
37961W        W80952  15.801   5.947  22.792 -0.0367  0.1681  0.0810
37962W        W80953  33.617  14.235   6.777 -0.0235 -0.0859 -0.0783
37963W        W80954   3.376  15.883  23.199 -0.1503 -0.1599  0.1033
37964W        W80955  33.435   7.485  16.406  0.2851 -0.0366  0.0936
37965W        W80956  14.978  16.684  13.449  0.2864  0.0729 -0.0140
37966W        W80957  10.023   5.988   2.879  0.4215  0.0843  0.0737
37967W        W80958  11.688  33.803  17.817  0.1681 -0.0153  0.0543
37968W        W80959  15.077   3.808  14.717 -0.0218  0.0148  0.2408
37969W        W80960  10.019  32.877   8.502  0.0881  0.0980  0.0642
37970W        W80961  11.451  14.482  16.093 -0.1315 -0.1371  0.0224
37971W        W80962  10.191  25.192  24.990 -0.1557  0.2673 -0.0872
37972W        W80963   7.594  10.055  17.095  0.0512  0.0062  0.0894
37973W        W80964   3.531   1.838  22.461  0.1484  0.2185  0.0749
37974W        W80965   3.653   3.962  19.933  0.0324 -0.3028 -0.1092
37975W        W80966  31.057   0.761  15.552 -0.0259 -0.0690 -0.2692
37976W        W80967   2.515  21.502  26.370  0.0056 -0.1120 -0.0237
37977W        W80968   1.207   6.938  17.533 -0.4012  0.3526  0.2778
37978W        W80969   0.108   1.576   9.015 -0.1458 -0.3143 -0.0768
37979W        W80970  25.798  28.527  21.552 -0.0721  0.0502 -0.0522
37980W        W80971   9.376   8.556  16.179  0.2539  0.0007 -0.4420
37981W        W80972   4.317  16.261  18.574  0.0010  0.1506 -0.2503
37982W        W80973  16.883  14.003  13.607  0.1307  0.4195  0.0525
37983W        W80974  12.781   2.378  26.051  0.5744 -0.1236  0.1169
37984W        W80975  30.450  16.982  28.210 -0.0287  0.0525  0.0886
37985W        W80976  24.943  16.386   8.604 -0.0206 -0.4544  0.1592
37986W        W80977  31.688  32.307  19.319  0.1798 -0.0945  0.4794
37987W        W80978  11.187  28.941  27.083 -0.0889 -0.2695 -0.0972
37988W        W80979   0.821  16.578  18.102  0.0174 -0.3835  0.0538
37989W        W80980  13.717  30.205  17.981  0.1181  0.0866  0.3356
37990W        W80981  16.571  10.498   6.085 -0.0208  0.1694  0.0379
37991W        W80982  14.023   4.879   7.105  0.1372 -0.0663 -0.1292
37992W        W80983   1.196  31.614  25.060 -0.0901 -0.1679 -0.0205
37993W        W80984   8.075   3.379  25.616  0.0849 -0.0616 -0.1556
37994W        W80985   6.903  29.094   8.966  0.0915 -0.6367  0.1970
37995W        W80986  33.305  10.527   2.208  0.2081 -0.0126  0.0768
37996W        W80987   5.056   3.648  18.599 -0.2659 -0.1198  0.4113
37997W        W80988  34.545   8.899   5.130  0.2265 -0.1202  0.0610
37998W        W80989  19.972   9.586  22.899  0.0223  0.2480 -0.2951
37999W        W80990  10.407   1.793   1.854 -0.0740  0.3930 -0.4144
38000W        W80991  17.591   5.044  19.632 -0.3547  0.1350 -0.0054
38001W        W80992  27.160  17.280  22.550  0.4142  0.0107  0.0955
38002W        W80993  31.552  22.038  25.126  0.1587 -0.2918  0.2282
38003W        W80994   3.987   3.435  15.990 -0.1044  0.2217 -0.0073
38004W        W80995   4.061   7.605  22.690 -0.3850  0.0087  0.1663
38005W        W80996  10.328   0.146  21.697 -0.2410 -0.1518 -0.1813
38006W        W80997  26.444   1.172  16.962  0.1883  0.1547  0.0714
38007W        W80998  13.212  11.509  23.963 -0.0140  0.1949 -0.0783
38008W        W80999   0.025  22.233  15.619 -0.0866  0.1730 -0.1652
38009W        W81000   6.852   9.640  15.695 -0.0407  0.0392 -0.3797
38010W        W81001   0.329   8.375  22.613  0.0008  0.2700  0.1429
38011W        W81002   9.423  14.279  19.166 -0.1289 -0.0692  0.1515
38012W        W81003  27.480   6.054  19.259 -0.0374 -0.2009  0.2037
38013W        W81004  34.609  19.079  16.206  0.2490  0.0982  0.0263
38014W        W81005   7.738   4.855  19.902 -0.1375 -0.0462 -0.1280
38015W        W81006  16.383  12.811  21.427 -0.0520  0.5893  0.2383
38016W        W81007  34.304  15.122   3.415 -0.0230 -0.1772 -0.0802
38017W        W81008  33.661  25.845   4.283  0.3419 -0.0797 -0.0579
38018W        W81009  15.345  15.335  15.478  0.1376 -0.2814 -0.0050
38019W        W81010   1.000  30.437  21.281 -0.0726  0.3078 -0.1629
38020W        W81011  31.193  25.222   3.057 -0.2567 -0.4119  0.1336
38021W        W81012   1.993   8.333  23.607 -0.4124 -0.2955 -0.3705
38022W        W81013  24.969  12.833  16.341  0.1061  0.0512 -0.0565
38023W        W81014   3.842  33.316   0.683  0.0077 -0.0060 -0.4550
38024W        W81015   5.006   7.732   2.219 -0.2745  0.0551  0.1190
38025W        W81016   7.260  13.346  14.847 -0.3358  0.0947 -0.2313
38026W        W81017   1.472  19.427  15.278 -0.1650 -0.2606  0.4528
38027W        W81018  18.258  14.217  16.207 -0.0869  0.1050  0.1592
38028W        W81019  34.658  26.142  16.915  0.0034 -0.0852 -0.1256
38029W        W81020   0.614   4.557  22.689  0.0828  0.1811  0.0645
38030W        W81021  17.543   3.039  18.431  0.2473 -0.2876 -0.0658
38031W        W81022  23.536  34.673  16.708  0.2192 -0.2512  0.3137
38032W        W81023  10.713  27.947   3.878 -0.4212  0.1252 -0.3167
38033W        W81024  13.870  19.559  25.181 -0.0680 -0.1175 -0.4533
38034W        W81025   8.095   8.512  21.323  0.0810  0.0684  0.3228
38035W        W81026   8.622  26.113  14.650 -0.0675  0.3671 -0.3446
38036W        W81027   2.148  14.469  18.263 -0.0226  0.1566  0.1392
38037W        W81028   8.120   1.522  26.888 -0.1339 -0.1725  0.4130
38038W        W81029  18.180   9.664  15.096 -0.0859  0.3049  0.0383
38039W        W81030  17.562   5.990   1.233 -0.3510  0.1237 -0.0719
38040W        W81031  30.630  30.450  19.094 -0.0739  0.1367  0.0195
38041W        W81032  10.542   8.567  22.553 -0.0880  0.2031  0.1715
38042W        W81033   1.524  30.683   6.287 -0.5031 -0.0308  0.2679
38043W        W81034   7.292   1.268  16.668 -0.2023  0.1606 -0.1020
38044W        W81035   6.145   8.191   4.558 -0.0504 -0.1631  0.3463
38045W        W81036  16.939  29.395  24.826 -0.1269  0.1104  0.0880
38046W        W81037  34.747  17.076  25.621 -0.1087 -0.0004  0.0282
38047W        W81038   2.227  19.343  18.618  0.0758  0.1011 -0.0855
38048W        W81039  15.006  15.948   7.688  0.0101  0.1215  0.1797
38049W        W81040  10.940   0.812  15.623 -0.1403  0.0303  0.0721
38050W        W81041  26.718   3.564  13.144 -0.1736  0.1682 -0.1979
38051W        W81042   1.768   3.680  28.206 -0.0408 -0.0687 -0.2405
38052W        W81043   9.074  22.981  23.980 -0.2228 -0.2841 -0.1352
38053W        W81044  12.901   0.939  24.175  0.3074  0.0047  0.1117
38054W        W81045   7.808   0.454  18.869 -0.0487  0.1441 -0.2354
38055W        W81046   2.408  18.987  19.286  0.1306  0.1005  0.1137
38056W        W81047   6.522  25.521  24.939 -0.2333 -0.0300  0.2786
38057W        W81048  31.789  31.461  24.942  0.0180 -0.0744  0.1403
38058W        W81049   3.496  30.301  15.033 -0.1039 -0.1059  0.1700
38059W        W81050   9.714   6.626  17.518 -0.3240 -0.0211 -0.0564
38060W        W81051   7.162   4.128  19.297 -0.0058  0.1276  0.4070
38061W        W81052   3.261  16.993  19.173 -0.1310 -0.0185 -0.2494
38062W        W81053  28.955  12.378  24.208  0.2918  0.0255  0.0613
38063W        W81054  18.129  12.759  25.021 -0.1428 -0.0043  0.1752
38064W        W81055   4.525   7.579   8.488 -0.2484  0.1881 -0.4016
38065W        W81056  20.548  22.811  24.263  0.1364 -0.1817  0.0896
38066W        W81057   4.215   0.784  18.140 -0.0394  0.0280  0.1348
38067W        W81058   6.656   2.517   9.632  0.0343 -0.0804  0.0104
38068W        W81059   4.173   9.680   2.597  0.0842 -0.0078 -0.0324
38069W        W81060  12.525  30.316   4.346 -0.0358 -0.2304  0.2792
38070W        W81061  31.065  13.115  19.389  0.0313  0.1309 -0.1099
38071W        W81062  24.669   4.670  15.223 -0.0491  0.1169  0.2214
38072W        W81063   4.819   0.998  17.881 -0.0467  0.2984 -0.1018
38073W        W81064  10.065  14.112  20.155 -0.2891  0.2663  0.2221
38074W        W81065  21.420   0.779  22.508 -0.1260 -0.3750 -0.0632
38075W        W81066  17.916  10.279  27.366 -0.3991  0.2922  0.2376
38076W        W81067  32.104  10.235  23.780 -0.2804 -0.1350 -0.1705
38077W        W81068  15.533   9.969  22.381 -0.0315 -0.3183 -0.0343
38078W        W81069  16.082   2.715   4.667 -0.1921 -0.1103  0.2249
38079W        W81070   8.392  27.870  14.665 -0.2430  0.0124 -0.0725
38080W        W81071  25.339  34.600   3.199 -0.0649 -0.3411  0.0238
38081W        W81072   6.958   2.950  27.957  0.0810  0.0156 -0.0082
38082W        W81073   1.356  20.607   0.732 -0.3356 -0.0865 -0.1459
38083W        W81074  13.185  15.017   4.403 -0.2741 -0.0791  0.0694
38084W        W81075   4.781  13.737  16.899  0.1160 -0.1976  0.0425
38085W        W81076   4.549  34.577  20.575  0.3767  0.1867 -0.3428
38086W        W81077   6.725   1.393  20.791 -0.1665  0.2245 -0.1806
38087W        W81078   2.345  16.626  23.507 -0.0013  0.1289 -0.1941
38088W        W81079  16.334  12.287   1.198  0.0209  0.0393  0.0634
38089W        W81080  24.642   0.053   1.478 -0.0139  0.0655 -0.4164
38090W        W81081  11.182  34.369  21.691 -0.1794  0.2483  0.0441
38091W        W81082   6.499  11.592  17.384 -0.1565 -0.0663  0.1351
38092W        W81083  26.926  24.500   1.412  0.1889  0.0800  0.0935
38093W        W81084  18.591  31.623  26.631 -0.1296  0.0701  0.2743
38094W        W81085  28.951   9.349  22.083 -0.2108  0.1909  0.0838
38095W        W81086   7.873  33.286  25.052  0.0805  0.1368 -0.1193
38096W        W81087   0.967  10.203  28.034  0.2035  0.0639 -0.2074
38097W        W81088  20.926  28.029  21.163  0.1536  0.1380 -0.0558
38098W        W81089  24.179  24.153  22.055  0.1492  0.0742 -0.2673
38099W        W81090  23.947   5.909   5.441 -0.0174 -0.1310 -0.1712
38100W        W81091  33.283  27.042  15.808 -0.1819  0.1815 -0.2164
38101W        W81092   0.265   2.969  26.076 -0.2366 -0.2701 -0.1361
38102W        W81093  20.938  13.066  13.728  0.0404  0.1003 -0.1235
38103W        W81094   0.930  25.078  22.637 -0.2185  0.0795 -0.0964
38104W        W81095   4.589   8.962  22.117 -0.2086  0.1081  0.2777
38105W        W81096  11.266   1.299  17.550  0.2025  0.0177 -0.1840
38106W        W81097  18.968  11.226  15.211 -0.0218 -0.0429 -0.1214
38107W        W81098  29.902  33.124   0.320  0.1587  0.0291 -0.1376
38108W        W81099  27.197  11.708  26.522 -0.0879 -0.1196  0.0731
38109W        W81100  25.466  27.424  20.244  0.1664 -0.0424  0.1720
38110W        W81101  14.380  26.871  15.149  0.0598  0.5338 -0.2419
38111W        W81102  11.895  13.863  25.003 -0.1927 -0.0640 -0.1494
38112W        W81103  19.391  32.640  26.896  0.1030  0.0933  0.1929
38113W        W81104  10.264  19.938  15.940  0.0550  0.1190  0.2323
38114W        W81105   7.132  11.089  16.522 -0.1582  0.2785 -0.0004
38115W        W81106   9.015  16.675   7.433 -0.0656 -0.0430 -0.0674
38116W        W81107  12.483   5.098  19.128 -0.0073 -0.1661 -0.1069
38117W        W81108  17.614  29.035   4.090  0.0040  0.1793 -0.0501
38118W        W81109  17.164   2.420  27.295  0.1393 -0.1005  0.1142
38119W        W81110  15.673  14.843  14.289 -0.0122 -0.0369 -0.0885
38120W        W81111  22.711  30.589  17.256 -0.1552  0.2318  0.0359
38121W        W81112  24.837   3.561  29.156  0.2485 -0.0029  0.2627
38122W        W81113  14.178  10.514  22.435 -0.0207 -0.2413 -0.1523
38123W        W81114  14.986  13.561  21.327  0.1820  0.0468  0.0992
38124W        W81115  14.197   1.407  14.882  0.0899 -0.0888 -0.2307
38125W        W81116  23.561   5.827  20.513  0.0067 -0.0091  0.2106
38126W        W81117  12.366  30.318  25.115  0.0713 -0.1500 -0.0771
38127W        W81118   9.140  30.283  15.274 -0.1116 -0.1134  0.1461
38128W        W81119  19.029  34.144   1.828 -0.1745  0.2883  0.2625
38129W        W81120  21.215  11.797  13.839  0.2447  0.1963  0.1094
38130W        W81121   7.177   8.799  29.008 -0.1269  0.0746  0.5847
38131W        W81122  13.290  11.108  18.037 -0.0583  0.0102 -0.0444
38132W        W81123   1.244   6.369  28.283  0.2292  0.1945 -0.1079
38133W        W81124   7.554  16.393   3.350 -0.0032 -0.0336 -0.0724
38134W        W81125   2.809  16.650  23.596 -0.3402  0.0301 -0.1374
38135W        W81126   7.085   6.942  17.125 -0.2190  0.0713 -0.1460
38136W        W81127  32.516   2.939   0.420  0.2383 -0.2582 -0.4601
38137W        W81128  19.798   3.012  20.833 -0.0866  0.0303  0.2318
38138W        W81129   5.045  14.514   2.860 -0.2097 -0.0484 -0.1337
38139W        W81130   3.486  13.714  22.431 -0.2889  0.1750 -0.2357
38140W        W81131  18.575   6.550  27.169  0.3004  0.0938  0.0741
38141W        W81132   6.715  31.531  15.505 -0.0110  0.1957 -0.3771
38142W        W81133   3.619  32.022  14.089 -0.0260  0.0350  0.0885
38143W        W81134  19.309   5.750  27.086 -0.3241 -0.1661  0.1693
38144W        W81135   2.173  17.061  25.006  0.2150  0.0855 -0.1647
38145W        W81136  10.509  23.238  15.506  0.0875  0.2382 -0.1325
38146W        W81137   1.777  23.600  21.226 -0.0070  0.0606  0.1637
38147W        W81138   6.083  18.011  19.035  0.2243  0.0835 -0.0757
38148W        W81139   2.117  30.857  18.761 -0.0725  0.3269  0.1224
38149W        W81140  20.322   1.820  20.493 -0.0259 -0.2954 -0.0142
38150W        W81141   1.247   3.679  14.353  0.0115 -0.0570 -0.0872
38151W        W81142   8.172  24.985   1.398  0.0143 -0.0814 -0.3169
38152W        W81143   4.874  14.517  16.244 -0.4716  0.0402  0.1902
38153W        W81144  11.609  25.710  19.351 -0.4258  0.0370  0.0911
38154W        W81145  22.201   7.733   5.570  0.1654 -0.1118  0.2124
38155W        W81146  20.018  30.667  15.897  0.0898 -0.1050 -0.5186
38156W        W81147   2.903  11.602  10.669  0.1885 -0.1409  0.0693
38157W        W81148  28.907   1.781  18.615 -0.1569  0.2802  0.2561
38158W        W81149   9.991  15.289  28.391 -0.0498  0.1764 -0.1210
38159W        W81150  14.001  31.083  28.135 -0.3500 -0.1096  0.0963
38160W        W81151  32.551   3.463  23.678  0.3445 -0.0055 -0.2449
38161W        W81152  14.180  10.901   5.388  0.0475  0.1599 -0.0745
38162W        W81153  24.702   0.452  22.618  0.2599  0.0025 -0.0501
38163W        W81154  14.594   2.081  18.752 -0.1599  0.2303  0.0622
38164W        W81155   4.300   4.909  19.342  0.0089 -0.0652 -0.0793
38165W        W81156  26.627   9.734  14.979  0.0736  0.0914 -0.1975
38166W        W81157  21.556   6.861  23.803 -0.3611  0.0992 -0.2634
38167W        W81158   2.072  32.681  27.109 -0.1777 -0.2646  0.0249
38168W        W81159  24.582   8.690  19.356  0.1792 -0.2747  0.0649
38169W        W81160  12.212  33.382  28.236 -0.1683 -0.4359  0.0322
38170W        W81161  24.974   1.769  22.298  0.0433  0.1803  0.1438
38171W        W81162  25.683   2.007  19.605  0.3292 -0.0258 -0.0391
38172W        W81163  27.517  27.019  28.433 -0.0279  0.0001  0.2867
38173W        W81164  13.922  15.639   2.852  0.3233 -0.0449 -0.1731
38174W        W81165  29.493  10.377   7.873 -0.0763 -0.1282 -0.1833
38175W        W81166   7.646  24.237  21.765  0.0880 -0.1709  0.0426
38176W        W81167  18.934  22.194   2.149 -0.1675 -0.1246  0.2610
38177W        W81168  14.142  26.122  26.903  0.0585  0.2106  0.0878
38178W        W81169   3.907   0.098  18.964  0.1314 -0.1401  0.0208
38179W        W81170   3.720  11.389   1.548 -0.0790 -0.0961 -0.0947
38180W        W81171  25.305   2.397  22.758 -0.0294  0.1396  0.1409
38181W        W81172   6.159  31.613  18.886  0.0919 -0.2563 -0.1062
38182W        W81173   2.565  11.371  22.653  0.3637 -0.0445 -0.3027
38183W        W81174  32.742   8.023  21.817 -0.1864  0.1318  0.1352
38184W        W81175  24.643  24.568  21.154 -0.0132 -0.4143 -0.0368
38185W        W81176   4.692  14.223  21.892  0.0631  0.3229  0.2695
38186W        W81177   8.209  23.031  28.135 -0.0303 -0.1003  0.1119
38187W        W81178  25.260  15.673  15.424 -0.0583 -0.0907  0.1725
38188W        W81179   1.863  26.666  21.052 -0.4062  0.0275  0.1585
38189W        W81180   3.112  12.179   5.600  0.0944  0.2234  0.0201
38190W        W81181   8.612  27.965  22.874 -0.2384  0.1435  0.4132
38191W        W81182  34.204  31.589  26.506 -0.5229 -0.3673  0.0420
38192W        W81183  24.430  16.728  22.992  0.0572  0.1213 -0.1200
38193W        W81184  19.010   7.303   7.249  0.1310 -0.1810  0.0754
38194W        W81185  33.422  32.639  18.058 -0.1051  0.0598  0.1424
38195W        W81186  27.387  17.205  21.726  0.3474  0.0694  0.0509
38196W        W81187  14.630   2.990  15.529  0.1497 -0.1747 -0.0017
38197W        W81188  20.962   2.524  26.230  0.4877  0.0080  0.1258
38198W        W81189  19.309   2.624  23.459 -0.1178 -0.1411 -0.1444
38199W        W81190  31.311   6.581  16.195 -0.0353  0.1524 -0.3778
38200W        W81191   6.936  33.786  16.560  0.0401  0.0987  0.1017
38201W        W81192  34.152  29.139  23.834  0.2197 -0.0069  0.0873
38202W        W81193  34.164  11.979  26.232 -0.0782  0.1481 -0.0331
38203W        W81194  12.331   9.530  19.575  0.2139 -0.3797 -0.2727
38204W        W81195  10.022  11.666  15.156 -0.0076 -0.0157  0.3331
38205W        W81196  15.014   9.335  17.364  0.0396  0.1130  0.1737
38206W        W81197   9.649   8.551  26.510  0.3452 -0.2098  0.4599
38207W        W81198  17.578   0.995  25.008  0.2627  0.0130  0.1165
38208W        W81199  10.089   2.885  27.742 -0.2637 -0.1406  0.1797
38209W        W81200   9.164   6.070  27.518 -0.0869 -0.0105 -0.0632
38210W        W81201   3.076  29.620  23.775  0.1292 -0.2061 -0.0613
38211W        W81202   9.224   9.975   0.109 -0.1626 -0.5287 -0.3693
38212W        W81203  33.966  20.916  17.467  0.4123 -0.2024 -0.1177
38213W        W81204  11.156  33.053  14.468  0.1230 -0.0782  0.0536
38214W        W81205  22.756   2.401  26.481  0.0375  0.2425  0.2086
38215W        W81206   2.561   8.234  18.982  0.1711  0.1869 -0.3112
38216W        W81207  14.492  11.015  24.453 -0.0202  0.0257 -0.0979
38217W        W81208  34.051   0.498  18.869  0.2866  0.2793 -0.0066
38218W        W81209   2.991  19.910  10.401  0.2632  0.0791  0.0428
38219W        W81210  16.027  19.130  15.954 -0.0356 -0.0097  0.2513
38220W        W81211   6.487   7.082   1.919 -0.1836 -0.0658  0.2459
38221W        W81212  12.445  20.923  24.951 -0.1201  0.0685 -0.3401
38222W        W81213  20.274  12.734   1.821 -0.2338 -0.2531  0.0617
38223W        W81214  25.516   1.230   3.388  0.0377  0.0641  0.0156
38224W        W81215  30.270  16.421  15.453 -0.3072  0.2408 -0.3564
38225W        W81216   4.785  28.625  24.486 -0.1675  0.0022 -0.1124
38226W        W81217  17.079  12.732  23.447  0.3397 -0.0635  0.1130
38227W        W81218  16.769   3.765  10.162  0.0970 -0.1101 -0.1406
38228W        W81219  12.133  18.222  27.834 -0.1071  0.0503  0.2251
38229W        W81220   9.819  15.803  25.494  0.0958 -0.3281  0.3104
38230W        W81221  26.814  33.920  20.432 -0.1372 -0.1878  0.1088
38231W        W81222   0.619   0.358  19.563  0.0769 -0.0047  0.2763
38232W        W81223  15.326   5.651  17.308  0.0997 -0.2328  0.0012
38233W        W81224  13.040  15.887  16.885 -0.0003  0.0554  0.2738
38234W        W81225  11.814  10.312  14.642  0.3137 -0.0822  0.1167
38235W        W81226  29.297  10.022  16.996 -0.1317  0.0439  0.1601
38236W        W81227  11.211  29.743  25.395 -0.1326  0.3098 -0.2426
38237W        W81228   7.681  10.647  24.640  0.1314  0.1424  0.1808
38238W        W81229   7.906  34.358  16.885  0.0996  0.1191  0.1329
38239W        W81230   4.113  13.328  17.502  0.1224  0.1773  0.1666
38240W        W81231  17.845  11.129   3.168 -0.1446  0.3090 -0.1809
38241W        W81232   6.350   5.802  19.032 -0.3756 -0.2202 -0.0493
38242W        W81233   2.679  17.588  17.009 -0.1076 -0.0331  0.0869
38243W        W81234  14.682   9.107  17.073  0.1899  0.0276 -0.0002
38244W        W81235  10.515  14.308  20.122 -0.0065  0.0806 -0.3544
38245W        W81236  12.222   0.332  25.745  0.1149 -0.1496 -0.0037
38246W        W81237  22.485  34.751  25.679  0.2199 -0.1106 -0.1595
38247W        W81238  10.180   9.859  19.902 -0.0322  0.0186 -0.0027
38248W        W81239   4.485  31.269  17.860 -0.1159 -0.2031 -0.0872
38249W        W81240  25.994   4.813  18.501 -0.2463  0.1418  0.0995
38250W        W81241  33.047  34.008  25.032 -0.0307  0.3365 -0.0335
38251W        W81242   8.910   7.952   1.413  0.0269  0.0360 -0.1361
38252W        W81243  33.675   0.740  21.648 -0.1120 -0.0593 -0.1727
38253W        W81244  11.157  10.303  23.956  0.0442  0.0414 -0.0393
38254W        W81245  13.360   9.463  22.188 -0.1163  0.0287  0.0096
38255W        W81246  17.076  30.030   6.119  0.1756 -0.2102  0.0470
38256W        W81247   5.007   6.976  15.859 -0.1444  0.1592  0.1623
38257W        W81248  13.318   7.410  21.381  0.1090  0.1624  0.3037
38258W        W81249  14.318  32.962  20.238  0.0350 -0.0651 -0.1957
38259W        W81250   1.473   4.148  19.285  0.1069  0.2818 -0.2290
38260W        W81251  31.855   9.109   9.400  0.1219 -0.0880  0.2840
38261W        W81252  10.958  23.020  14.637  0.3015  0.1489 -0.2849
38262W        W81253  21.027   6.776  21.127 -0.2132 -0.2710  0.0384
38263W        W81254  15.840  14.212  13.783  0.0722  0.0299  0.1815
38264W        W81255   4.732  23.280  19.047 -0.0959 -0.2675  0.0526
38265W        W81256  19.662  12.471   9.216 -0.4149  0.0154  0.0360
38266W        W81257  10.998  27.221  22.317 -0.2446  0.0300 -0.0651
38267W        W81258  10.892  12.467  17.288  0.2005 -0.1506 -0.1301
38268W        W81259  24.888  24.319   8.419  0.1943 -0.2150 -0.2024
38269W        W81260   9.377  28.685  24.181  0.1952  0.3796  0.0128
38270W        W81261  11.713   1.477  20.739 -0.0491  0.2330  0.2388
38271W        W81262   3.828   0.609   7.562 -0.2031  0.0510 -0.1583
38272W        W81263  29.738   7.194  28.236  0.2603  0.4439  0.1178
38273W        W81264   7.990   1.084  26.676  0.0197 -0.0774 -0.0002
38274W        W81265  26.308  33.523  19.747 -0.2653 -0.1685  0.3769
38275W        W81266  23.825  31.648  22.473 -0.0150 -0.0165  0.3531
38276W        W81267  33.852  30.098   1.429  0.1919 -0.1081 -0.0109
38277W        W81268  34.637   9.773  17.396  0.0985 -0.0548 -0.1591
38278W        W81269   1.681  18.718  27.824  0.1165 -0.5004 -0.0722
38279W        W81270  22.496   1.594  19.851  0.1014 -0.0504  0.0572
38280W        W81271  20.907  23.631  24.597 -0.1625 -0.0186 -0.0098
38281W        W81272   4.810  34.067  22.622  0.1895 -0.2569 -0.1075
38282W        W81273  29.603  24.889  18.428  0.0610 -0.0512 -0.0061
38283W        W81274  26.673  11.530   1.090 -0.2016 -0.0285 -0.2992
38284W        W81275   2.442  16.689  16.972 -0.0787  0.2009  0.0327
38285W        W81276  30.308  10.128  16.643 -0.1767 -0.1787  0.3545
38286W        W81277  20.587   1.415   4.692  0.0117  0.1247 -0.0813
38287W        W81278  14.735   8.701  23.916 -0.1691 -0.2455 -0.1614
38288W        W81279  34.203  19.146   5.800  0.3861  0.1124  0.1693
38289W        W81280  19.152  34.722  18.306 -0.0579 -0.2720 -0.1694
38290W        W81281  12.060  30.105  22.854 -0.1412  0.0867  0.1326
38291W        W81282  15.234  31.846  21.384  0.0416  0.3974  0.1246
38292W        W81283  14.569  34.658  20.771  0.1556  0.0924  0.1044
38293W        W81284  14.034  31.390  28.514  0.1755  0.1333  0.1573
38294W        W81285  15.979  20.396   7.765  0.2445  0.2208 -0.0828
38295W        W81286  23.297  26.901  28.899  0.1813  0.1772  0.1572
38296W        W81287  18.375  11.925  21.881 -0.0532  0.0124 -0.1587
38297W        W81288  18.367   9.132  24.265  0.0204 -0.0136  0.0670
38298W        W81289   6.188  13.422  25.888 -0.1681 -0.0438 -0.1085
38299W        W81290  15.278   4.461  26.007  0.1043  0.1025  0.2979
38300W        W81291   5.752   2.991  28.253 -0.0587 -0.1090  0.2121
38301W        W81292  18.245  15.264  26.100  0.1601  0.1476  0.0923
38302W        W81293  20.538   8.888   2.985  0.3350 -0.4913  0.0426
38303W        W81294  14.962  32.249  21.967  0.2277 -0.1786  0.3515
38304W        W81295  10.727  32.268   8.589 -0.2081  0.0201  0.0748
38305W        W81296  19.716   7.628   0.144 -0.0978  0.1392  0.2840
38306W        W81297  12.334  15.920  25.070  0.1337  0.1116  0.0147
38307W        W81298  17.171  30.839  21.249 -0.0152  0.0477  0.2794
38308W        W81299   2.946  18.055  20.481 -0.0447  0.1090 -0.0477
38309W        W81300  26.094  27.308  26.346 -0.0523  0.2897 -0.0271
38310W        W81301   7.937  13.065   2.315  0.0787 -0.1352 -0.2931
38311W        W81302   7.638  12.098  27.265  0.1225  0.0193 -0.0102
38312W        W81303  14.535   5.583  10.424  0.0109  0.0415  0.1495
38313W        W81304   3.027   6.244  16.785 -0.2546 -0.1580  0.0171
38314W        W81305   0.578  26.235  23.423 -0.2372 -0.0849 -0.0924
38315W        W81306  17.479  34.631  21.362  0.1097 -0.2046  0.1744
38316W        W81307   2.590  26.757  21.781  0.2461 -0.0973  0.2499
38317W        W81308   0.216   7.083   2.195  0.0587 -0.1294  0.0778
38318W        W81309  23.395   5.131   5.055  0.0864  0.0191 -0.1806
38319W        W81310   2.553  32.900  24.530  0.1113 -0.0671  0.2416
38320W        W81311  23.923   3.859  23.118 -0.1842 -0.0333 -0.0969
38321W        W81312  16.943   8.649   7.077 -0.2713 -0.0382  0.1594
38322W        W81313   8.683  31.096  14.557  0.0278  0.3679 -0.1450
38323W        W81314   9.345   4.313   1.157  0.0761  0.1122  0.0948
38324W        W81315  31.738  13.726  17.775  0.0712  0.1240 -0.2069
38325W        W81316   4.442   3.864  20.593 -0.1084 -0.1113 -0.0679
38326W        W81317  25.640   7.246  26.433 -0.0953 -0.1272 -0.2735
38327W        W81318  19.549  29.980   5.173  0.2147  0.0374  0.3030
38328W        W81319  13.941   8.108   3.748 -0.1293 -0.1413  0.3630
38329W        W81320   8.543   3.725  14.609  0.0797  0.4385  0.1926
38330W        W81321  18.493   7.097  15.910  0.1188  0.0417 -0.0673
38331W        W81322   2.268  18.260   1.180 -0.1367  0.1507  0.2280
38332W        W81323   4.321   1.572   5.783 -0.1854 -0.1533  0.0225
38333W        W81324  15.679  10.120   4.708  0.0373  0.0405 -0.2082
38334W        W81325   6.735   2.365   2.309 -0.0948 -0.1573 -0.1116
38335W        W81326  29.476  22.444  18.534  0.3756  0.0161 -0.5535
38336W        W81327  16.393  30.572   2.219  0.0610  0.0356 -0.1084
38337W        W81328  28.201   2.266  22.539 -0.0593  0.0786  0.0843
38338W        W81329   3.856   0.588   5.907 -0.0846 -0.1061 -0.1991
38339W        W81330  10.461  11.818   2.031  0.0148  0.0586  0.0042
38340W        W81331  15.982   1.555  20.169 -0.2564 -0.0915  0.0423
38341W        W81332   6.422   2.287  25.908  0.3508  0.2125  0.0557
38342W        W81333   5.520  12.196   2.844 -0.0913 -0.0695  0.1713
38343W        W81334  12.829   8.206  16.709 -0.1183  0.6286  0.2448
38344W        W81335  20.513  12.254   8.557 -0.1483 -0.0056 -0.2336
38345W        W81336   8.428   5.733   9.773 -0.1313  0.1738 -0.0583
38346W        W81337  16.419  22.441  29.221 -0.2058 -0.2975  0.1009
38347W        W81338  20.227   5.720  22.409  0.1830  0.0089 -0.0764
38348W        W81339  19.161   2.886  24.132  0.2453 -0.0338 -0.2563
38349W        W81340  15.709  21.821  17.854  0.0775  0.3280 -0.0389
38350W        W81341   8.757  10.759  18.514 -0.1473 -0.4584 -0.0157
38351W        W81342  12.460  20.888  27.677  0.1117 -0.3428 -0.0089
38352W        W81343  11.686   2.764  24.589 -0.1379  0.3352  0.2640
38353W        W81344   3.256   7.323  17.135  0.1389 -0.1237  0.0297
38354W        W81345   2.896  27.217  18.324  0.0062  0.0641 -0.0577
38355W        W81346  19.871   5.171  17.788  0.1132 -0.1832 -0.0920
38356W        W81347  16.653   0.064  24.308  0.2486 -0.1471 -0.1082
38357W        W81348   5.394  26.666   2.956  0.0489  0.3137  0.2468
38358W        W81349  31.765  31.759  13.514 -0.1239 -0.3167 -0.2442
38359W        W81350  25.419  27.340   5.402  0.0996  0.1374  0.1634
38360W        W81351  20.857  10.862  19.989  0.2577  0.3573 -0.3951
38361W        W81352  12.473  23.984  15.411 -0.0770 -0.0412 -0.0383
38362W        W81353  21.180  30.958  17.944  0.2665 -0.2279  0.1401
38363W        W81354   6.699  12.195  18.903 -0.0488 -0.0702  0.1435
38364W        W81355  26.777  33.359   6.273  0.1319 -0.0962  0.0537
38365W        W81356   2.408  12.485   7.421  0.0391  0.0332  0.0941
38366W        W81357  33.657  28.187   3.345 -0.1432 -0.4957  0.0684
38367W        W81358   8.785   9.687   6.859 -0.0266 -0.3892 -0.0649
38368W        W81359   4.627  16.176  21.026  0.2002  0.4726  0.0697
38369W        W81360  11.009   0.595   9.276  0.2035 -0.5369 -0.0642
38370W        W81361  14.511   2.208  14.590  0.2565  0.2013  0.0852
38371W        W81362  11.896   6.033  10.629 -0.2420  0.0663 -0.1610
38372W        W81363  34.416  34.351  26.188  0.1275 -0.0387  0.4327
38373W        W81364   7.933   7.430  18.031  0.1239  0.2094 -0.1862
38374W        W81365  12.023  12.333  25.700 -0.1547 -0.4035  0.0872
38375W        W81366  30.785  34.272  15.374  0.2094  0.3953 -0.0054
38376W        W81367  19.090   8.886  14.514  0.2268  0.0551 -0.0517
38377W        W81368  30.084  16.751   3.713 -0.1095 -0.0562  0.2989
38378W        W81369   7.088  24.166   6.782  0.1574 -0.0801  0.1918
38379W        W81370  12.153  26.615  16.932 -0.0840 -0.1239 -0.0870
38380W        W81371  28.135   4.701  25.592  0.2730 -0.3475 -0.2293
38381W        W81372   5.311  22.915  19.249 -0.0460 -0.2111 -0.2161
38382W        W81373   5.484  33.420  25.550 -0.0765  0.1673  0.0258
38383W        W81374   4.769   4.226  28.649  0.0241 -0.0530 -0.0798
38384W        W81375  13.189   0.913   4.174  0.0660  0.3134 -0.1859
38385W        W81376  31.954  34.513   2.777  0.0231  0.3758  0.0768
38386W        W81377  22.392  13.363  23.275  0.1098  0.4503 -0.0160
38387W        W81378  10.164   1.101  18.217 -0.3076  0.0918 -0.1941
38388W        W81379  27.247  28.540  24.412 -0.0103  0.1831 -0.3783
38389W        W81380  25.201  19.669   4.775 -0.0114 -0.2118 -0.0400
38390W        W81381  12.553   2.199  24.291  0.0851  0.0288 -0.1028
38391W        W81382  25.238  12.465  26.778 -0.1313 -0.3266  0.0611
38392W        W81383  16.236   5.517  20.252  0.2623  0.3740 -0.4274
38393W        W81384  16.781  30.309  15.470  0.1278  0.0706  0.1234
38394W        W81385  18.908   3.680   0.126 -0.1255  0.0227  0.0552
38395W        W81386  20.016  14.742  16.072 -0.2175  0.1802  0.2525
38396W        W81387   7.171   5.137  23.113  0.0697  0.1009  0.0504
38397W        W81388  12.291   3.999  17.443  0.2492 -0.0498 -0.1730
38398W        W81389   9.658   5.718  20.987  0.2194 -0.1773 -0.0204
38399W        W81390  16.404  12.718  25.029  0.1278  0.0336  0.0836
38400W        W81391  19.153  15.355  22.509  0.2802 -0.2197 -0.0196
38401W        W81392  18.947  32.354  17.941 -0.0441 -0.3117 -0.0483
38402W        W81393  21.278  14.322  24.909 -0.1150  0.2298  0.2149
38403W        W81394   7.797   1.424  24.120 -0.2123  0.0245 -0.0380
38404W        W81395  19.521  31.384  27.135 -0.3693  0.0999 -0.3201
38405W        W81396   2.184   4.300  15.183 -0.1440 -0.1401  0.2870
38406W        W81397   8.356   4.977  29.064 -0.0864 -0.1822 -0.0358
38407W        W81398  20.108  34.234  20.005  0.3831 -0.0365 -0.0672
38408W        W81399  13.105   7.543  17.194 -0.1512  0.0506  0.4555
38409W        W81400  12.105  23.429  18.770  0.2795 -0.0328 -0.1255
38410W        W81401  12.625   5.764  18.324  0.0066 -0.3295 -0.3464
38411W        W81402  12.651  27.742  23.975  0.0976  0.1314  0.2089
38412W        W81403   8.032  32.786   6.147 -0.0091 -0.0366 -0.0726
38413W        W81404  19.260   3.322   6.436  0.1860 -0.2261  0.2335
38414W        W81405   3.902   4.026   5.326 -0.1662 -0.0607  0.1371
38415W        W81406  24.148  31.955  15.278  0.2786 -0.1162 -0.1306
38416W        W81407  26.334  21.673  28.076  0.1971  0.0221  0.0119
38417W        W81408  14.373   7.440  17.986  0.0464 -0.3660  0.0837
38418W        W81409   8.167   9.421   4.654 -0.0774  0.0788 -0.1482
38419W        W81410  12.603   7.936  10.281 -0.1234 -0.1255  0.2466
38420W        W81411   9.556   7.454  22.299  0.0517 -0.1721  0.0750
38421W        W81412  22.287  17.913  28.823  0.2444  0.0346 -0.0391
38422W        W81413   4.286   6.365   1.009 -0.2146 -0.2775 -0.0834
38423W        W81414  21.402  32.567  26.337  0.0554 -0.1648 -0.0293
38424W        W81415  13.167  32.702   1.648 -0.0163  0.1882 -0.0648
38425W        W81416  10.820  34.026  19.302  0.1269 -0.2911 -0.2906
38426W        W81417  10.533   5.454  16.285  0.2450 -0.0617  0.2770
38427W        W81418   5.772  34.081  22.975  0.1066  0.0765  0.1178
38428W        W81419  16.351  16.456  13.279 -0.0076 -0.0134  0.0536
38429W        W81420  12.407  21.820   4.862 -0.1529 -0.2203  0.2731
38430W        W81421  19.128   6.738  12.893  0.0043 -0.1485  0.0413
38431W        W81422   1.417  14.171  25.679 -0.1945  0.3351 -0.0034
38432W        W81423  15.455   2.474  25.128 -0.2291  0.0617  0.2298
38433W        W81424  21.053   8.086  25.676  0.0502 -0.3600 -0.3063
38434W        W81425   3.047  21.932  20.384 -0.1932  0.0061  0.1151
38435W        W81426  31.213  31.782  17.055  0.0474 -0.1283 -0.4991
38436W        W81427   6.353   1.541  23.204  0.2790 -0.0558 -0.0362
38437W        W81428  21.866  22.050  26.218  0.1742  0.0260  0.3452
38438W        W81429  31.311   7.206   1.491 -0.3601 -0.1484  0.4125
38439W        W81430  12.254  32.998   6.860 -0.1466  0.0680 -0.0614
38440W        W81431  17.474  31.490  19.995 -0.1276 -0.2626 -0.0818
38441W        W81432  11.223   3.526  15.158 -0.1601  0.0886 -0.1610
38442W        W81433  18.485  30.751  24.815  0.1560  0.2079  0.0101
38443W        W81434  34.519  30.370   0.814 -0.2094  0.2492  0.0073
38444W        W81435  25.141  10.807  19.264 -0.0124 -0.0852 -0.1056
38445W        W81436  18.588  25.555  15.780  0.3043 -0.0100  0.2952
38446W        W81437  18.015  34.447   4.831  0.2311 -0.0856  0.1748
38447W        W81438  14.496   7.679  16.671  0.2140  0.3352  0.0147
38448W        W81439  11.710  12.360  23.406  0.1382  0.2706  0.0921
38449W        W81440   6.737  29.500  21.685 -0.0494  0.0183 -0.0672
38450W        W81441  23.745  27.715  22.987 -0.1658  0.2512 -0.1495
38451W        W81442  14.924   2.588   1.730  0.3526 -0.3725  0.2438
38452W        W81443   3.769   4.965  20.194 -0.0306  0.1917  0.3184
38453W        W81444  34.417  16.998  11.253  0.0394 -0.0119 -0.0083
38454W        W81445   8.778  11.716  26.823 -0.0274 -0.0329  0.4889
38455W        W81446   5.947  16.726   2.921 -0.0689 -0.2158  0.1280
38456W        W81447  32.687   3.629   9.812 -0.0408 -0.0643  0.2250
38457W        W81448   0.597  10.796  19.635  0.1099 -0.4314 -0.2616
38458W        W81449   6.439   0.766  28.446  0.0725 -0.2343 -0.2860
38459W        W81450  10.462   5.579  24.502 -0.3786  0.1227  0.1923
38460W        W81451   8.051  10.417  23.780 -0.1761 -0.0837  0.1349
38461W        W81452  20.478   5.070  27.663 -0.0130 -0.2488 -0.0004
38462W        W81453  31.299   9.776  18.899  0.2971 -0.2129 -0.2639
38463W        W81454   1.297  17.644  16.839  0.0543 -0.0289 -0.1863
38464W        W81455   6.640  23.285  17.144  0.3714  0.0628 -0.2035
38465W        W81456  16.938   2.252   8.237 -0.0167  0.0956  0.2879
38466W        W81457   6.089   5.759  25.790  0.1375 -0.0405  0.2475
38467W        W81458  17.432  32.328   3.498  0.2532 -0.1054  0.0536
38468W        W81459   5.381  23.962  18.941  0.2026 -0.1712  0.4819
38469W        W81460  15.727  30.508  15.471  0.0440  0.0259 -0.3691
38470W        W81461  18.307   5.702   3.906  0.1749 -0.0439  0.0514
38471W        W81462   6.616  32.535  23.885  0.0118  0.1271  0.1562
38472W        W81463  22.550   0.150  18.618 -0.2478  0.0687  0.1291
38473W        W81464   3.440  33.555  24.887  0.0210  0.0518  0.1383
38474W        W81465  22.563  31.992  26.575 -0.0005 -0.2234 -0.0459
38475W        W81466  15.539  21.668  19.212  0.0846 -0.0402  0.0591
38476W        W81467   5.409  11.603  15.269 -0.1567 -0.3706  0.2618
38477W        W81468   4.786  13.588  20.679  0.5549  0.1384  0.0603
38478W        W81469  15.471   4.706  24.366 -0.2398  0.1527  0.1027
38479W        W81470  27.778  33.041  21.561  0.2812 -0.1876  0.3039
38480W        W81471   6.645  28.525   9.777  0.1855 -0.0136 -0.0072
38481W        W81472  10.381  13.267  17.846  0.3280 -0.1746 -0.3720
38482W        W81473  24.969   5.956  28.969  0.1969 -0.1755 -0.1938
38483W        W81474  34.150   0.202  20.691  0.2220 -0.2094 -0.2333
38484W        W81475   0.201   2.846  25.065  0.0881 -0.0966  0.2432
38485W        W81476   9.176  30.928  27.377 -0.0808 -0.0101 -0.1359
38486W        W81477  22.867  25.623   8.207  0.0001 -0.0002 -0.0825
38487W        W81478  31.384   2.869  24.919 -0.0091 -0.1805  0.0084
38488W        W81479   3.730   7.037   7.333 -0.1378 -0.1196  0.0955
38489W        W81480   9.135  11.950  20.443  0.2049 -0.0655  0.0954
38490W        W81481  30.636   0.697  25.223  0.3814 -0.2037 -0.0616
38491W        W81482   4.435  29.335  15.164 -0.2524  0.1221 -0.0444
38492W        W81483  25.011   6.283  14.620  0.0908 -0.2149  0.0358
38493W        W81484  10.757  32.897  14.721  0.1513 -0.1254  0.2246
38494W        W81485  20.910  14.859  14.571  0.0092  0.2569 -0.2561
38495W        W81486   2.793  12.993  17.760 -0.0627 -0.0461 -0.0924
38496W        W81487   8.155   1.915   8.428  0.1354 -0.0736 -0.0090
38497W        W81488  13.947  15.137  26.371  0.2517 -0.1130  0.1945
38498W        W81489   8.747   3.336   0.643  0.1490 -0.0192 -0.1125
38499W        W81490  29.775   9.561   8.556  0.4816  0.0275 -0.0265
38500W        W81491   7.075  26.925   0.737  0.0278 -0.0221  0.0236
38501W        W81492  12.885   6.401  18.466  0.1206  0.1596 -0.1319
38502W        W81493  14.902   0.622  20.122  0.0972 -0.2951 -0.1885
38503W        W81494  28.306   1.529   3.636 -0.2493 -0.1440 -0.0589
38504W        W81495   4.274  33.244   6.335  0.0595 -0.1773  0.2347
38505W        W81496   3.717   1.820   7.879 -0.1817 -0.1566  0.3375
38506W        W81497  21.924  11.000   1.387 -0.2881 -0.2403 -0.1449
38507W        W81498  12.220   4.235  26.458 -0.1271  0.0455 -0.4247
38508W        W81499  24.745   3.982   8.107 -0.5038  0.2010 -0.1461
38509W        W81500  30.334   1.967  16.846  0.1086 -0.2046  0.3176
38510W        W81501  31.788   8.118   9.475 -0.0232 -0.1638 -0.1262
38511W        W81502   5.289   9.007   0.393 -0.2045  0.1125  0.3776
38512W        W81503  15.650  30.753  20.066  0.0582  0.2069  0.0111
38513W        W81504  26.710   7.169   7.999  0.0108 -0.2657  0.0431
38514W        W81505  21.173  25.614  28.600  0.2300 -0.1314  0.3017
38515W        W81506   5.033  13.990   0.040  0.1451  0.1970  0.2877
38516W        W81507  33.801  12.373  20.289 -0.1172 -0.0449  0.1821
38517W        W81508   3.630  17.828  26.027 -0.2772  0.2403  0.1169
38518W        W81509  30.972   1.035  16.670 -0.0803 -0.2600  0.1008
38519W        W81510  14.484   5.865  16.939  0.2905  0.4057  0.0924
38520W        W81511   2.114   3.282   0.532 -0.0585  0.0718  0.0840
38521W        W81512   4.295   3.727   3.612  0.0264 -0.0614 -0.1123
38522W        W81513  34.383  15.644  21.736 -0.2760 -0.0086 -0.0432
38523W        W81514  25.617   7.749   0.227  0.2094 -0.0317 -0.1076
38524W        W81515  12.143  29.746   1.266  0.3046  0.0832 -0.0155
38525W        W81516  19.068  34.630   9.589  0.0043 -0.0018  0.3348
38526W        W81517  10.452   4.445   3.880 -0.0977  0.3030  0.1314
38527W        W81518  27.706  33.674  28.208 -0.1991  0.0189  0.2674
38528W        W81519   0.186  31.178  18.471 -0.0428 -0.1939  0.0490
38529W        W81520   5.398   0.813  26.132  0.0309  0.1107 -0.1151
38530W        W81521  20.144  24.731  21.218  0.1157 -0.2959 -0.0345
38531W        W81522   1.615   4.733  21.359  0.1786  0.1320  0.1197
38532W        W81523  28.002   5.047  26.629 -0.0267  0.0542  0.2303
38533W        W81524  16.231  32.820  17.913 -0.1396 -0.0503 -0.3329
38534W        W81525  14.704   2.459  25.113  0.2519  0.1547 -0.0865
38535W        W81526  25.525  30.782  28.367  0.1318 -0.3236 -0.4634
38536W        W81527   5.370   0.698  26.610  0.1664  0.1161  0.1031
38537W        W81528  34.304   7.915  17.943 -0.1636  0.3142 -0.1868
38538W        W81529   4.746   8.524   6.090 -0.0379  0.1445  0.1547
38539W        W81530   2.175   1.752  24.464 -0.0475  0.1111 -0.1436
38540W        W81531  34.223   6.581  15.863  0.1549 -0.0848 -0.1531
38541W        W81532  31.715  30.779   7.481 -0.1983 -0.0178  0.1129
38542W        W81533   7.912   8.507   5.934 -0.3578  0.3553 -0.0351
38543W        W81534   5.324  14.821   3.427 -0.2380  0.1586 -0.4771
38544W        W81535  26.530  32.354   2.575  0.0458 -0.0840 -0.0212
38545W        W81536   7.256  23.346  21.116 -0.1649 -0.3592  0.0839
38546W        W81537   2.358  33.687   2.020  0.3780 -0.1199 -0.1020
38547W        W81538   5.319  21.541  24.447 -0.1535  0.1125 -0.1351
38548W        W81539   3.485  17.995  24.581 -0.0037 -0.1028  0.2592
38549W        W81540  16.263  31.561  15.778  0.2106 -0.0422 -0.2117
38550W        W81541  16.768   4.383  27.339 -0.0613 -0.1393  0.0722
38551W        W81542  15.395  10.507   8.620 -0.0611 -0.1107 -0.4184
38552W        W81543   0.404   5.545   2.355 -0.0564  0.1112 -0.0873
38553W        W81544  14.269  10.943  15.314  0.0537  0.0509 -0.1988
38554W        W81545   0.230  15.486  18.784 -0.1784  0.3071  0.0672
38555W        W81546  18.863   1.261  20.708  0.0695  0.2504  0.0045
38556W        W81547   0.970  18.395  20.945 -0.5743 -0.0051  0.1550
38557W        W81548  16.410   8.328  27.473  0.2421 -0.2282 -0.1401
38558W        W81549  12.175   6.487  25.198 -0.0873 -0.1140 -0.1319
38559W        W81550  14.388  16.621  23.855  0.1364 -0.1049 -0.0167
38560W        W81551  16.415   7.050   0.540  0.0566 -0.0992  0.1170
38561W        W81552   2.000  11.034  21.808 -0.2218 -0.2451  0.1178
38562W        W81553   8.351  19.599  20.561 -0.0948  0.0064 -0.1370
38563W        W81554  16.171   7.059  20.180 -0.0234  0.0487  0.0272
38564W        W81555  13.106   7.967   0.560  0.0684 -0.1421 -0.1036
38565W        W81556   4.875  33.952  28.747 -0.2032  0.0012  0.0258
38566W        W81557  20.708  34.104   0.407 -0.1729 -0.1086 -0.0021
38567W        W81558  25.257  11.288  18.578  0.0640  0.0982 -0.1939
38568W        W81559   2.719  28.711  28.008 -0.1449 -0.1276  0.0500
38569W        W81560   1.823   2.291  14.761  0.0230 -0.0413  0.0480
38570W        W81561  29.501   6.425   1.552  0.0885  0.2384  0.0819
38571W        W81562   4.061   0.779  28.859 -0.4653  0.0906 -0.0164
38572W        W81563  12.819  32.173  27.164 -0.3591  0.3287 -0.3448
38573W        W81564  17.242   8.811  21.906  0.0495  0.0936 -0.2970
38574W        W81565  15.935  25.626  28.153 -0.5247  0.1880  0.0828
38575W        W81566  28.891  23.285  28.044 -0.1646  0.1837  0.2368
38576W        W81567   7.781  18.197   0.455  0.2723 -0.0181  0.0728
38577W        W81568  10.977   5.917  23.687  0.3769  0.0084 -0.1131
38578W        W81569  34.714  24.728  25.027  0.0586 -0.1725  0.0281
38579W        W81570  13.463   6.515  22.211 -0.0047  0.0219  0.1119
38580W        W81571  11.618   2.732   1.393  0.1434 -0.0976  0.0446
38581W        W81572  34.501   0.817  16.572  0.1593  0.0199  0.1096
38582W        W81573  19.828   7.292  17.888  0.0397 -0.2290 -0.0184
38583W        W81574  20.873   0.244   3.306  0.2928 -0.1870  0.2678
38584W        W81575   8.833   1.713   8.951 -0.3790 -0.1621 -0.0299
38585W        W81576  26.253  10.625   5.792  0.2544 -0.0226  0.2834
38586W        W81577  21.306   5.087   5.622 -0.0221  0.0576  0.2262
38587W        W81578   3.911  23.433   1.159  0.0890  0.0776 -0.1129
38588W        W81579  28.114   3.796  20.767  0.1045 -0.1385 -0.2101
38589W        W81580   1.385  34.613  10.145  0.1057  0.0148  0.0672
38590W        W81581  13.684   3.659   9.474  0.2344 -0.1989 -0.0572
38591W        W81582  22.941  14.501  24.340 -0.1689  0.1017 -0.2623
38592W        W81583   7.369   5.371   3.707 -0.2400  0.0653 -0.0265
38593W        W81584  24.925  15.139  26.059 -0.2044  0.1955  0.1489
38594W        W81585  15.923  14.719  26.542  0.0300  0.1300  0.1915
38595W        W81586  29.305   9.005   7.225  0.0008 -0.1046 -0.1060
38596W        W81587  34.174   7.458   6.433  0.3198  0.0612  0.4144
38597W        W81588  18.382  20.056   7.280  0.0831 -0.0506 -0.2597
38598W        W81589  12.379  34.770   4.533 -0.2181 -0.2209 -0.1376
38599W        W81590  26.308   9.281   4.703 -0.0081 -0.0745 -0.0822
38600W        W81591  15.586   3.440   3.871 -0.2070 -0.2515  0.1051
38601W        W81592   3.230  17.966  17.017  0.3118  0.1732  0.1769
38602W        W81593  21.629  13.846   7.696 -0.2059  0.2617  0.0157
38603W        W81594   8.455   1.403  27.810  0.1146 -0.0382  0.0541
38604W        W81595  28.222  22.483  25.565 -0.1408  0.2252 -0.0894
38605W        W81596  20.648  14.107  22.956 -0.0942 -0.1290  0.0942
38606W        W81597   7.663  31.840  18.148  0.0064 -0.1085  0.3571
38607W        W81598  17.798   8.439  23.069  0.1370 -0.0062  0.0039
38608W        W81599   6.584  21.954   3.093 -0.2072 -0.0693  0.1242
38609W        W81600   6.346  18.260  25.725 -0.0026  0.0512  0.1511
38610W        W81601   7.597  32.796  20.730  0.1141  0.2640 -0.1850
38611W        W81602   5.997  23.891   3.514  0.4436 -0.3762 -0.3819
38612W        W81603  23.626  33.300  19.159  0.0178 -0.1131 -0.2115
38613W        W81604  12.502  10.873  24.035 -0.1455  0.1064 -0.0587
38614W        W81605   0.821  25.728  18.078  0.2249 -0.2487 -0.3281
38615W        W81606   0.080   9.109  22.047 -0.1717 -0.0763  0.2994
38616W        W81607  29.483   7.190   0.287 -0.0412 -0.2187 -0.3089
38617W        W81608  22.297   5.653  25.942  0.0837 -0.1839  0.0123
38618W        W81609  33.467  13.767   0.374  0.1824  0.0967  0.2576
38619W        W81610  18.010  29.642   2.163  0.0570  0.0129  0.0302
38620W        W81611  15.276   0.510  22.228 -0.3686 -0.0285  0.0826
38621W        W81612  16.210   5.434  19.487  0.0656 -0.3368  0.1713
38622W        W81613   0.148   2.013  28.081  0.1260 -0.0104  0.1698
38623W        W81614  14.499   2.620  25.537  0.0956  0.3379  0.0714
38624W        W81615  27.915  33.988  21.440  0.2377  0.2607 -0.3487
38625W        W81616  19.671   7.584  22.271  0.2405 -0.0540 -0.0018
38626W        W81617  15.270  15.297   0.252 -0.0882  0.0370 -0.2478
38627W        W81618   3.237   5.751  11.444  0.2058  0.1900  0.1311
38628W        W81619  33.705   3.641   4.042 -0.0765  0.3049  0.1967
38629W        W81620  21.650  32.008  19.953 -0.0009 -0.3010 -0.2176
38630W        W81621   4.455   2.119  28.259  0.5367  0.2445 -0.2050
38631W        W81622   5.341  29.458   3.376 -0.2085  0.0197 -0.0295
38632W        W81623  24.705   2.124  17.346 -0.2606  0.3764 -0.2307
38633W        W81624  21.406  14.065  17.866 -0.0138  0.0111 -0.0864
38634W        W81625   8.007  21.384  17.514  0.0613 -0.0034 -0.2356
38635W        W81626  33.503  20.823  18.205 -0.1408  0.0774  0.3191
38636W        W81627   7.863  14.366   3.104  0.1924 -0.3173 -0.0750
38637W        W81628  27.857   5.464  27.548 -0.0180 -0.0265 -0.1115
38638W        W81629  31.736  33.388   4.311 -0.0584  0.0108  0.0905
38639W        W81630  18.876  32.839   2.068  0.0447  0.3413 -0.0007
38640W        W81631  10.377  24.281  16.613 -0.0647 -0.1817  0.3330
38641W        W81632  10.313   8.380  10.660 -0.0155  0.2398 -0.1843
38642W        W81633   6.522  33.508  16.205  0.2944  0.1506 -0.3884
38643W        W81634   0.646   9.129  21.464 -0.0206  0.3154  0.0895
38644W        W81635  33.513  17.079  19.759  0.1674 -0.0570 -0.1524
38645W        W81636  15.689   0.305  24.198 -0.0021  0.1911  0.1456
38646W        W81637   8.568  11.456  19.114 -0.1131 -0.0374 -0.0890
38647W        W81638  17.074   0.180  29.106  0.0961 -0.2071  0.2468
38648W        W81639  19.923  32.597  26.026  0.3176 -0.0663 -0.0860
38649W        W81640  12.605  30.820  25.884 -0.2284  0.2080  0.0665
38650W        W81641  20.731  11.750  13.754 -0.0527  0.3461 -0.1995
38651W        W81642  14.476  21.849  14.902 -0.2362 -0.4615  0.6098
38652W        W81643   0.471  18.355   9.910 -0.0718 -0.1175 -0.2100
38653W        W81644  19.758  34.448   8.712  0.0352 -0.0685  0.0826
38654W        W81645  18.366  33.574   6.159  0.0821  0.0829 -0.1184
38655W        W81646   8.827  30.091   1.247 -0.3011  0.0841  0.0301
38656W        W81647   2.327  15.655  17.205 -0.0589 -0.0919 -0.0612
38657W        W81648   5.664   3.888   3.140 -0.0052  0.1532  0.1573
38658W        W81649  15.867  11.234  20.354 -0.0957  0.0789  0.0180
38659W        W81650  13.806  11.291  24.968 -0.1344 -0.2367 -0.0232
38660W        W81651   3.554  26.482  18.845 -0.1353 -0.5132  0.3462
38661W        W81652   9.514  30.832  27.766 -0.0649 -0.1677  0.0822
38662W        W81653  17.156  31.542  26.900  0.2786 -0.0163  0.1214
38663W        W81654   8.081   0.587  22.351  0.0210  0.1990 -0.3071
38664W        W81655   3.194  16.263  24.434  0.0821  0.0523  0.2930
38665W        W81656  20.728  13.735   3.791 -0.3033 -0.2252 -0.4638
38666W        W81657  16.046   4.296   7.951 -0.2629 -0.0925  0.0042
38667W        W81658  31.032  12.864  15.632  0.1715  0.1356 -0.3398
38668W        W81659   7.056  25.654   7.428  0.0744 -0.1937  0.1409
38669W        W81660   8.316   8.768  21.767  0.0892 -0.1584 -0.5380
38670W        W81661   6.063   5.056  24.537  0.0234  0.0419  0.1548
38671W        W81662  14.159  23.829  22.644 -0.1624  0.0817 -0.2321
38672W        W81663   8.275  11.442   9.981 -0.2435 -0.4165  0.4310
38673W        W81664  33.279  32.784   6.334 -0.1220  0.0513 -0.2184
38674W        W81665  11.834  31.406  25.273 -0.4913  0.0461  0.5047
38675W        W81666   5.361   8.581   6.558  0.0784  0.1738 -0.1250
38676W        W81667   8.949   0.636   5.653  0.2627 -0.0143  0.0496
38677W        W81668  26.022   5.056  24.454  0.0134 -0.2405  0.0911
38678W        W81669  12.362   3.161   9.123  0.2822  0.1795  0.1970
38679W        W81670  12.719   5.818  27.104 -0.2798 -0.0398 -0.0154
38680W        W81671  11.061  10.991   2.599 -0.1396 -0.2119  0.1362
38681W        W81672   5.140   3.781  27.230 -0.2689 -0.0999  0.1955
38682W        W81673  26.918  22.728   0.291 -0.0919  0.1543  0.0309
38683W        W81674   6.353   4.136   3.040 -0.1397 -0.0775  0.0994
38684W        W81675  12.107   3.634   9.310  0.3463  0.4674 -0.0729
38685W        W81676  15.017  13.213  25.766  0.0607 -0.3171 -0.2934
38686W        W81677  25.836  26.542   7.974 -0.0801 -0.0332  0.1409
38687W        W81678  21.752   6.227   3.995 -0.0309 -0.1964  0.1727
38688W        W81679  16.192   4.392  21.707 -0.3885  0.1279 -0.0966
38689W        W81680  21.205  32.502   4.920  0.0933  0.1568 -0.3097
38690W        W81681   9.910  34.082  26.500 -0.0846 -0.4208  0.1724
38691W        W81682   8.045  26.292  21.175 -0.0796 -0.1690 -0.4299
38692W        W81683   1.261  30.643   8.527  0.0059  0.2646 -0.4236
38693W        W81684   9.575   1.634   8.439 -0.0388  0.1121 -0.1839
38694W        W81685  16.648   7.105  22.229 -0.2894 -0.2074  0.0456
38695W        W81686  27.872   6.352  23.543 -0.3559  0.0445 -0.1458
38696W        W81687   5.185  28.969  24.288 -0.2035  0.0474  0.1929
38697W        W81688  31.576   2.195  23.252  0.0314 -0.2355  0.1980
38698W        W81689  11.113  33.091  23.676 -0.1350  0.0332  0.0908
38699W        W81690  10.063   6.063  29.211 -0.2271 -0.1187  0.0573
38700W        W81691   9.426   7.603  19.706 -0.0800 -0.2696 -0.0206
38701W        W81692   7.416  22.335  26.601 -0.0613 -0.1454  0.0208
38702W        W81693   5.492  12.918   8.856 -0.2057  0.3069  0.3706
38703W        W81694  14.660  31.051   2.543 -0.4170 -0.0135 -0.0605
38704W        W81695  10.779  10.126  10.340  0.3485  0.2659 -0.0007
38705W        W81696   2.441  25.529   4.840 -0.0627 -0.0517 -0.3455
38706W        W81697   3.493  13.494  19.469  0.2655  0.0880 -0.2910
38707W        W81698   7.360   8.574  15.356 -0.2066 -0.1298  0.0947
38708W        W81699   2.286   7.207   0.602  0.1540 -0.0241 -0.3591
38709W        W81700  14.528  10.320   5.163  0.1741 -0.0379 -0.1937
38710W        W81701  11.106  27.310  17.390  0.1534 -0.1688 -0.1514
38711W        W81702  29.323  15.740  21.523 -0.0680 -0.0478 -0.1034
38712W        W81703   7.694  22.282  26.105 -0.1808 -0.0959  0.1606
38713W        W81704  30.406   4.169   6.045  0.0516 -0.0692  0.2534
38714W        W81705  28.643  20.972   6.145  0.1088 -0.0372 -0.3347
38715W        W81706   5.114  16.348  28.391 -0.6156 -0.0063 -0.1302
38716W        W81707  23.560   9.298  17.516  0.0601  0.1577  0.1265
38717W        W81708   8.155   5.507  17.620  0.3390 -0.3125 -0.2661
38718W        W81709  20.253  25.950   7.850  0.2311 -0.1124 -0.2150
38719W        W81710  26.090  23.955  22.706  0.2654  0.0122 -0.0834
38720W        W81711   4.837   4.697  25.747  0.0899 -0.1279 -0.1474
38721W        W81712  11.990  27.720   8.246  0.1204  0.0097 -0.1958
38722W        W81713   5.118   6.378   9.439 -0.0568 -0.1472 -0.0220
38723W        W81714   3.445  28.050  18.002  0.0326  0.0650  0.4724
38724W        W81715  34.298   8.445  21.019  0.0566 -0.2145 -0.2696
38725W        W81716  30.163   1.625  24.913  0.0051  0.0930 -0.0708
38726W        W81717   4.344  15.959  21.497 -0.1064 -0.0250  0.2653
38727W        W81718   7.723   3.947  16.546  0.3977  0.5341 -0.2235
38728W        W81719  28.798  11.583  17.657  0.0692 -0.0008 -0.1321
38729W        W81720  10.064  27.484  22.799 -0.0176 -0.0882 -0.0916
38730W        W81721  23.200  27.950  17.430 -0.1357  0.2592 -0.3429
38731W        W81722   4.280   6.167  19.787 -0.1080  0.0301 -0.1017
38732W        W81723  28.230  18.219  10.238 -0.2720  0.1578  0.0222
38733W        W81724  17.427  31.349  19.052  0.0467 -0.0810 -0.2693
38734W        W81725  30.398  30.185  25.602  0.3429 -0.2517  0.2768
38735W        W81726  10.157  27.374  26.558  0.2102 -0.0047 -0.2197
38736W        W81727  16.406   1.359  29.217  0.2952 -0.1758 -0.0069
38737W        W81728  25.564  29.347  19.557 -0.0560  0.1062 -0.2276
38738W        W81729  24.861  28.399   3.543  0.0644  0.0893 -0.0525
38739W        W81730  17.962   0.365  15.439  0.0963  0.0483 -0.0603
38740W        W81731   9.773  11.478   8.600 -0.0118 -0.0869  0.1289
38741W        W81732   2.708  19.802   1.111 -0.4060  0.3614 -0.3114
38742W        W81733  10.355   5.834  10.252 -0.3274 -0.1093 -0.3841
38743W        W81734  10.801   6.000   8.701 -0.1154  0.1664  0.0208
38744W        W81735   2.978  17.453  22.611  0.0929  0.1300  0.2449
38745W        W81736   9.580   3.311  18.563 -0.0883  0.4275 -0.0740
38746W        W81737  25.427   0.212  19.358  0.1025 -0.0831 -0.2367
38747W        W81738  11.083  14.822   4.168  0.1307 -0.0715 -0.3073
38748W        W81739  30.991  24.604  20.041  0.0606 -0.1730  0.1986
38749W        W81740   1.105  10.289   8.565 -0.0334  0.1061 -0.1887
38750W        W81741   5.613   3.835   9.558 -0.1294  0.2063  0.1744
38751W        W81742  27.477   6.709  24.039 -0.1441  0.1504  0.4008
38752W        W81743  25.787  31.528  23.158 -0.0752 -0.2540 -0.0688
38753W        W81744   9.079  16.655  27.174 -0.0990 -0.0387  0.2458
38754W        W81745   6.950  16.292  15.823  0.1544  0.0594 -0.1023
38755W        W81746   6.128   3.874  22.606 -0.1260  0.0257  0.0652
38756W        W81747   5.576   3.369  17.745  0.1151 -0.0723  0.1349
38757W        W81748   1.554  17.395  28.263  0.5321 -0.0630  0.4555
38758W        W81749   0.875  32.067   8.412  0.1881  0.2435  0.2108
38759W        W81750   0.270   2.124   9.618  0.2404 -0.1065  0.2516
38760W        W81751  23.964  12.258  20.039  0.4477  0.1566 -0.0256
38761W        W81752  12.526  25.444  22.113 -0.1465 -0.0619  0.2367
38762W        W81753   9.281  30.472  27.503 -0.1143 -0.0098  0.0265
38763W        W81754  31.084   4.044  28.010 -0.2614 -0.0903 -0.2113
38764W        W81755  13.497   2.949   3.482 -0.0897 -0.2235  0.1954
38765W        W81756   8.294  32.853  26.990 -0.0656  0.1325  0.1986
38766W        W81757  11.514  11.101  28.281 -0.2995  0.2376  0.2456
38767W        W81758  23.187  22.419  19.165  0.2842  0.2554  0.1236
38768W        W81759  23.930  12.292  13.819  0.1211 -0.3445  0.1081
38769W        W81760  33.191  27.785   0.047  0.0411 -0.1749 -0.1318
38770W        W81761  21.643  18.631   2.082 -0.3259  0.0512  0.0623
38771W        W81762  29.273   3.194   1.782  0.0018  0.2565  0.0878
38772W        W81763  22.757  12.245   1.835 -0.1427 -0.3408 -0.0110
38773W        W81764   6.350  11.690  26.284 -0.1128  0.1398  0.0248
38774W        W81765  15.930  11.772  21.514 -0.1116  0.0138 -0.1500
38775W        W81766  31.285  17.341  17.704  0.0621 -0.1519 -0.4032
38776W        W81767  16.334  24.197   1.146  0.0712 -0.0913 -0.1076
38777W        W81768   8.836   8.408   1.053 -0.0258 -0.0233 -0.2773
38778W        W81769  34.131  13.384   5.076 -0.0154 -0.1160 -0.0923
38779W        W81770  20.326  31.676   6.237  0.0537 -0.2839 -0.3128
38780W        W81771  10.298  24.294   2.314 -0.0912  0.3103 -0.0432
38781W        W81772  15.971  27.602  21.043 -0.2789  0.1099  0.0269
38782W        W81773  30.890   2.391   6.501 -0.0561  0.1863 -0.0000
38783W        W81774   6.409   1.713  27.039  0.1314 -0.3022  0.1425
38784W        W81775  19.352  22.967  16.695  0.5354 -0.3944 -0.2087
38785W        W81776  12.553   8.462  27.011 -0.0122  0.0122  0.1884
38786W        W81777   4.650  12.126  11.239 -0.1188 -0.0314 -0.0671
38787W        W81778   9.715  26.150  23.718  0.1854  0.1542  0.2523
38788W        W81779   0.672  10.644  10.908 -0.2812  0.0612 -0.1785
38789W        W81780   9.064  20.379  22.718  0.1593  0.2736 -0.2154
38790W        W81781  11.541   0.761  20.749  0.4339  0.0448  0.0935
38791W        W81782  26.633   3.885  15.448  0.1446 -0.1914 -0.2412
38792W        W81783  22.104  34.230  27.609  0.3937  0.0600  0.2219
38793W        W81784   9.901  25.998  14.854  0.1656  0.3820 -0.5176
38794W        W81785  21.271  16.860  22.844 -0.0673 -0.2931 -0.0299
38795W        W81786  17.474   1.886   4.900  0.0377 -0.2433 -0.0892
38796W        W81787   8.402   0.154   1.028 -0.1284 -0.0666  0.0138
38797W        W81788   7.421  33.551  22.660  0.0725  0.1584  0.1120
38798W        W81789  20.543  21.798   8.180 -0.0440 -0.5093 -0.2190
38799W        W81790   6.945   3.783   0.242 -0.2747 -0.2221 -0.0026
38800W        W81791  18.500  23.387  18.304  0.1587 -0.2173  0.1478
38801W        W81792  14.189  31.564  24.391  0.0591  0.0552 -0.1946
38802W        W81793   5.674  33.295  28.956 -0.0399 -0.1265 -0.1401
38803W        W81794   2.149  28.121  25.154  0.1070  0.0106 -0.2315
38804W        W81795  18.529   8.177  19.424 -0.1156 -0.1724  0.0383
38805W        W81796  15.090  34.477  28.695 -0.2527 -0.1407 -0.0469
38806W        W81797   2.259   3.110  28.161 -0.0695  0.0806 -0.1267
38807W        W81798   2.330  16.766   0.976 -0.1311 -0.0489 -0.1129
38808W        W81799   8.158   8.732  20.406  0.3221 -0.0714  0.0826
38809W        W81800  10.955   5.322  21.392 -0.0782 -0.4186  0.1300
38810W        W81801  24.164   3.537  15.185  0.1541  0.1484 -0.0420
38811W        W81802  23.422  17.701  13.950  0.0583  0.0574 -0.3764
38812W        W81803   7.401   8.895  25.496 -0.1126 -0.0674  0.0710
38813W        W81804  34.289   3.752   7.849 -0.0525  0.0734 -0.0204
38814W        W81805   9.982   3.482  19.204 -0.0217  0.1838 -0.3402
38815W        W81806  10.625  33.746  26.996  0.1367  0.1115 -0.2755
38816W        W81807  21.217   4.654  24.526 -0.2137 -0.4175  0.2230
38817W        W81808   8.321   9.312   7.884  0.0992 -0.1642 -0.0895
38818W        W81809  33.552   1.191  15.735 -0.1142  0.1864  0.2638
38819W        W81810  31.845   5.957   2.901 -0.2367 -0.0888  0.0327
38820W        W81811   3.811   7.545   5.714  0.3487  0.0928  0.1169
38821W        W81812   8.353  32.404   2.656 -0.2241 -0.0792 -0.4277
38822W        W81813  22.332  11.787  13.637  0.2217  0.0325  0.1006
38823W        W81814   3.237  10.178  26.960 -0.0227  0.5228  0.0716
38824W        W81815  33.104  29.191  16.771  0.0479  0.0409 -0.0177
38825W        W81816  27.323  26.129  26.290  0.2433  0.1512  0.0091
38826W        W81817   7.438  23.800   1.377 -0.1406 -0.2969  0.2207
38827W        W81818  12.785  28.815  28.485  0.1520 -0.3594 -0.0463
38828W        W81819   3.461   5.120   2.850 -0.0358  0.0728  0.0002
38829W        W81820  30.998   6.369  22.269 -0.0005  0.1131  0.0398
38830W        W81821  21.299  21.560  23.942 -0.0679 -0.2887 -0.3909
38831W        W81822  11.939  30.144   9.095 -0.2490  0.0137  0.4466
38832W        W81823   3.628  20.451  20.479  0.1696 -0.1643  0.0972
38833W        W81824  11.294   5.582   6.010  0.5150 -0.5348 -0.1240
38834W        W81825  33.976   6.225   2.240  0.0426 -0.0410 -0.0794
38835W        W81826  27.896  34.095   8.648 -0.0115  0.0738 -0.3659
38836W        W81827  16.936  14.683  23.633  0.4149  0.3489  0.1029
38837W        W81828  15.247   0.740  15.644  0.0989 -0.1670 -0.0970
38838W        W81829   4.945   7.306   0.951  0.4041 -0.1081 -0.0033
38839W        W81830  33.676  14.655   6.472 -0.0158 -0.0226  0.4151
38840W        W81831  30.143  20.763  23.230  0.0607 -0.0001  0.0268
38841W        W81832  15.365  25.563  28.075  0.0886  0.1949 -0.0116
38842W        W81833  20.343   2.603  25.437  0.1077 -0.2783  0.5061
38843W        W81834  10.703  30.563   1.113  0.1523  0.3308 -0.0166
38844W        W81835   2.804   9.453  25.523  0.1292  0.2092 -0.0999
38845W        W81836  14.530   8.827  27.882 -0.0517 -0.1026 -0.0068
38846W        W81837   3.617  10.965  21.858  0.0582  0.3965  0.0607
38847W        W81838   8.678   6.669  26.420 -0.3405  0.0717 -0.2930
38848W        W81839  14.738  23.807  17.290 -0.1745 -0.0919  0.0157
38849W        W81840  23.047  30.732  27.022  0.2040 -0.1472  0.1560
38850W        W81841   5.093  12.310   8.791 -0.1584 -0.4215 -0.1058
38851W        W81842   1.293   2.357   0.232 -0.0223  0.0826 -0.0492
38852W        W81843   2.283  11.440   3.547 -0.0373  0.0095 -0.1264
38853W        W81844  14.646  32.302  17.856 -0.1873 -0.1159  0.1287
38854W        W81845   3.115   4.272  27.374 -0.1325 -0.0113 -0.0709
38855W        W81846   1.003  16.782  22.144  0.1808 -0.1383 -0.0066
38856W        W81847  18.434  31.573   3.400  0.0309 -0.0254  0.2480
38857W        W81848  30.627  32.529  20.676 -0.0811 -0.0988 -0.2041
38858W        W81849  14.837   4.732   2.173  0.0370  0.1334 -0.2854
38859W        W81850  18.214  31.096   9.041 -0.0586  0.1066 -0.1684
38860W        W81851   9.797   3.909  16.002 -0.2527 -0.0062 -0.2755
38861W        W81852   5.931   9.789  29.208 -0.0944  0.1266 -0.1301
38862W        W81853   6.984  13.350   8.405 -0.2462  0.0368  0.2956
38863W        W81854  18.062  19.054  28.924  0.1107  0.0494 -0.1781
38864W        W81855   8.591   7.482   4.473  0.2394 -0.0553 -0.0028
38865W        W81856  16.317  12.383   3.089  0.0148 -0.1761  0.1095
38866W        W81857  13.827   2.701  18.476  0.1898  0.0379  0.0920
38867W        W81858   9.897   2.027  22.291  0.2163 -0.1989 -0.0956
38868W        W81859  12.517  16.928   8.640 -0.2907  0.0896 -0.0679
38869W        W81860  11.871   0.235  26.086  0.3350 -0.0370  0.1014
38870W        W81861  12.918   2.152  17.550  0.1174 -0.1012  0.1466
38871W        W81862   3.455  19.521   7.076 -0.0128  0.1045 -0.0470
38872W        W81863  15.291   0.575   9.281 -0.0721 -0.1553 -0.1989
38873W        W81864   2.070  11.589  17.434  0.1629  0.0696  0.1136
38874W        W81865  19.728  34.485  17.677 -0.0065 -0.1987 -0.1997
38875W        W81866  21.642  20.240  27.987  0.0781 -0.5375  0.1745
38876W        W81867  21.375  34.750  25.200 -0.4859  0.1065 -0.0426
38877W        W81868  30.739  20.098  26.566  0.0507 -0.2118 -0.0138
38878W        W81869   2.785   4.259   0.911  0.1678 -0.1539 -0.0745
38879W        W81870  32.572   2.769   3.411 -0.2111  0.2433 -0.1818
38880W        W81871  24.816   7.836   9.180 -0.1493 -0.2802 -0.0664
38881W        W81872   7.372   2.641  15.568 -0.1391  0.0053  0.2270
38882W        W81873  10.840  34.659  18.691 -0.0399  0.0147 -0.0904
38883W        W81874   7.190  26.398   7.909  0.1666 -0.4380  0.1961
38884W        W81875   7.060   8.264  15.700 -0.3211  0.1685  0.0429
38885W        W81876  14.908   2.571   0.327 -0.1476 -0.0236  0.2684
38886W        W81877  15.329  10.276   3.851 -0.1250  0.3493  0.0958
38887W        W81878   7.821  34.708  24.921 -0.1637 -0.0645  0.2084
38888W        W81879   9.280   0.894   8.772 -0.0899 -0.0888 -0.2731
38889W        W81880  26.901  10.857  24.995  0.0633 -0.2397  0.0474
38890W        W81881   8.562  22.276  28.388  0.0533  0.0837 -0.0550
38891W        W81882  19.419  31.443  24.054 -0.0027  0.3077 -0.0163
38892W        W81883   6.479  22.654  18.700  0.1436 -0.1362  0.0970
38893W        W81884   4.109  22.454   3.834  0.1395  0.0519  0.3523
38894W        W81885  27.630  25.648   3.552  0.0134 -0.0708 -0.3388
38895W        W81886   6.615   9.007  23.975 -0.0322 -0.0168 -0.0291
38896W        W81887   3.591  14.220  23.767 -0.0129  0.0207  0.3245
38897W        W81888   7.529  17.162   1.111  0.0141 -0.2101 -0.1099
38898W        W81889   9.933  11.325  16.070 -0.0718 -0.0510 -0.0292
38899W        W81890   0.251  29.722  14.382 -0.0051  0.0941 -0.0246
38900W        W81891   1.559  12.274  18.245 -0.1719  0.3047 -0.0860
38901W        W81892   7.954   4.008  10.873 -0.0649  0.6348  0.2261
38902W        W81893  17.312   3.116  24.539  0.1086 -0.1326 -0.0779
38903W        W81894  15.444  25.394   4.471 -0.3598  0.1143 -0.1932
38904W        W81895  24.302  32.089  23.408 -0.2123 -0.0125 -0.0112
38905W        W81896  15.728  24.889  25.731  0.1042 -0.0424  0.4640
38906W        W81897   5.090   3.270  25.307  0.1584 -0.4195 -0.0434
38907W        W81898  19.215   1.043   4.346 -0.0328 -0.0158  0.0282
38908W        W81899   3.643   1.206   1.475 -0.0824  0.0603 -0.0272
38909W        W81900  14.543   9.791   2.672 -0.0569  0.3959 -0.2113
38910W        W81901  12.960  16.376  23.760 -0.0016  0.3141  0.4162
38911W        W81902  22.684  32.356   7.047  0.0465  0.0249  0.1127
38912W        W81903  17.324  27.432  23.624 -0.3695 -0.0059 -0.0174
38913W        W81904  13.658   5.366   9.323 -0.1479  0.0982 -0.1375
38914W        W81905  20.630  29.251   1.359 -0.3394  0.2926 -0.2954
38915W        W81906   5.263  10.060  26.130  0.0441  0.0037 -0.4230
38916W        W81907   1.239   2.566  17.036 -0.3397 -0.1910  0.0950
38917W        W81908  17.295   8.957   8.331 -0.2603  0.2218  0.2144
38918W        W81909  11.580  33.759  18.983 -0.1687 -0.4091 -0.0606
38919W        W81910  17.337  34.178  19.003 -0.0215 -0.1068 -0.1048
38920W        W81911   8.435  10.881  24.668 -0.0517  0.1467  0.3542
38921W        W81912  16.044  34.097   5.976 -0.1686 -0.1795  0.0010
38922W        W81913  12.809  23.341   0.857  0.1161  0.2385 -0.1546
38923W        W81914   5.005  21.110  17.834 -0.2635 -0.1819  0.0374
38924W        W81915  21.737  11.976   4.458 -0.0475  0.1909  0.0611
38925W        W81916  21.902   7.550  16.534 -0.3531  0.0694  0.1182
38926W        W81917   4.058   3.195   9.692 -0.0336  0.0480  0.1676
38927W        W81918   5.056   5.033   5.941  0.5719  0.5007 -0.0400
38928W        W81919   2.330   6.340  23.049 -0.0412  0.2873  0.0361
38929W        W81920  16.460   9.452  28.342 -0.1726  0.0510 -0.2655
38930W        W81921  18.039  31.316  28.472 -0.1876  0.2032 -0.1579
38931W        W81922   3.318   0.333   2.599 -0.0698  0.1220 -0.0995
38932W        W81923  15.165  20.782  28.066 -0.1146 -0.2956  0.0361
38933W        W81924  29.844  32.302   6.898 -0.1333 -0.0057 -0.1356
38934W        W81925   6.855  20.653  23.991 -0.1065  0.0107 -0.0198
38935W        W81926   5.034   3.337   6.834  0.1056  0.1982 -0.1726
38936W        W81927  31.264   2.497  14.671  0.1136 -0.0248  0.1234
38937W        W81928  27.940  33.112   6.899  0.0000 -0.0510 -0.0760
38938W        W81929   7.358  26.198  15.075 -0.0933 -0.1366 -0.0086
38939W        W81930   9.533   2.332  18.728 -0.0207 -0.1233 -0.4521
38940W        W81931  10.538   0.037  18.973  0.1638 -0.1924 -0.0757
38941W        W81932  10.145  30.867  16.972 -0.0505  0.2480  0.3928
38942W        W81933  15.756  14.339   9.611  0.0390  0.1696  0.0286
38943W        W81934  31.817  33.700  22.856 -0.2754 -0.3421 -0.1085
38944W        W81935   4.453   2.125   0.023 -0.1249 -0.2244 -0.2509
38945W        W81936  21.505   2.843  15.207  0.2216  0.4123  0.2396
38946W        W81937  14.548  27.370   4.423  0.1841 -0.1664  0.0329
38947W        W81938   8.855  11.025  27.352  0.1729  0.0308 -0.0411
38948W        W81939  15.258  33.900   3.505  0.1734  0.3829 -0.0714
38949W        W81940   0.184  20.123   0.701 -0.0589 -0.0399 -0.3455
38950W        W81941   2.757  30.573   2.199  0.2028  0.2091 -0.4235
38951W        W81942  12.687   6.736   2.929  0.0797 -0.2646  0.2595
38952W        W81943  18.967  11.172   7.954  0.0001  0.2646 -0.1665
38953W        W81944  22.446  19.090  22.739 -0.0530 -0.0025  0.0981
38954W        W81945  19.655   1.303  16.347 -0.1108 -0.0647  0.0750
38955W        W81946   4.187  25.794  19.033 -0.4553  0.0403  0.4002
38956W        W81947  30.985   7.889   8.560 -0.1784  0.1215 -0.2063
38957W        W81948   9.630  12.835  15.596  0.1505 -0.0767  0.1279
38958W        W81949  13.524  11.952   2.702  0.0682  0.0481 -0.0210
38959W        W81950   9.872   2.285   2.373  0.0360  0.0022 -0.0045
38960W        W81951  13.525   5.003  28.180  0.1208  0.0682  0.2049
38961W        W81952  19.179  33.874  26.826  0.0220  0.1818  0.2802
38962W        W81953   5.458  25.179   9.327  0.0924 -0.3704 -0.0104
38963W        W81954  31.907   6.892   7.788 -0.2084 -0.1017 -0.1802
38964W        W81955  18.144   5.169  25.472  0.0169 -0.3234 -0.0486
38965W        W81956  32.900   2.963   7.947  0.0663 -0.0942  0.3559
38966W        W81957  12.440   7.538   2.073  0.1018 -0.0372 -0.1759
38967W        W81958   7.032  31.778  21.166 -0.0360  0.0450 -0.1453
38968W        W81959   4.479   7.997   6.727 -0.2347  0.0112  0.0969
38969W        W81960   8.471   0.595   5.156  0.1397 -0.2720  0.1077
38970W        W81961  24.195   3.502  24.602  0.0678 -0.0855  0.1822
38971W        W81962   3.930  24.671   3.765  0.0940  0.0332  0.1241
38972W        W81963  18.355  13.191  16.737 -0.1393  0.1151 -0.0547
38973W        W81964  22.655   4.426   4.370  0.1157 -0.2242 -0.0538
38974W        W81965  15.649  13.465  28.603 -0.0129 -0.1588  0.0111
38975W        W81966   3.545   3.574   0.768 -0.0767  0.1830  0.0365
38976W        W81967  11.428  22.798  24.640 -0.0450  0.1761 -0.3063
38977W        W81968  14.706   0.881   0.238 -0.3056 -0.0301 -0.3547
38978W        W81969   1.972  23.919  28.107  0.0483  0.1695  0.1401
38979W        W81970   8.974  13.847   7.409  0.4866  0.4203 -0.1008
38980W        W81971  28.380   7.627  28.663 -0.3252 -0.1940  0.0508
38981W        W81972  16.087   4.738   4.187 -0.0756 -0.0855  0.1874
38982W        W81973  25.919   6.750  18.403  0.0133  0.5011  0.0953
38983W        W81974  23.305   9.167   1.847  0.0178 -0.1458 -0.2714
38984W        W81975  18.759  33.066  24.506 -0.1696  0.1275 -0.0176
38985W        W81976  14.982   0.578  26.287 -0.0515 -0.1546 -0.0994
38986W        W81977   3.778  11.179   0.904  0.2723 -0.5726 -0.2205
38987W        W81978  10.364  24.386  14.354  0.3421 -0.1687 -0.1201
38988W        W81979   8.328  24.624   9.117 -0.1844 -0.1472  0.4806
38989W        W81980  31.596   8.304  19.309  0.2534  0.0865  0.3030
38990W        W81981  14.714  21.557  26.039  0.0555 -0.2213 -0.2625
38991W        W81982  12.705  23.129  28.915 -0.5356 -0.1749  0.1621
38992W        W81983   2.639   6.305   9.890  0.0745  0.1382 -0.1218
38993W        W81984  10.760   1.551  19.395  0.0946 -0.0596  0.1857
38994W        W81985  13.028   5.341  16.142 -0.0936 -0.0213 -0.1391
38995W        W81986  20.249  29.509   0.484 -0.1193  0.0111 -0.0103
38996W        W81987   6.958  13.439   7.497  0.2722  0.1594  0.2557
38997W        W81988  15.278  29.575  22.261 -0.3033 -0.1682  0.1100
38998W        W81989   8.723   0.821   2.122 -0.4155  0.0148  0.0304
38999W        W81990  22.173   6.602  20.012  0.1173  0.0387  0.2983
39000W        W81991  16.924  10.350   9.757 -0.0010 -0.1543  0.4970
39001W        W81992  23.494   9.206   4.673  0.0573  0.0645 -0.1132
39002W        W81993   4.032   0.374  25.177  0.1501 -0.1700  0.1228
39003W        W81994  14.500  16.396   3.356 -0.1045  0.0758  0.0531
39004W        W81995  21.534   8.200  27.630  0.0307 -0.0770 -0.1292
39005W        W81996  14.896   9.802  25.345 -0.1605 -0.3553  0.2182
39006W        W81997   9.927  20.282   5.461  0.2317 -0.0369  0.2580
39007W        W81998   7.934   4.633  28.755 -0.1703 -0.0547  0.3967
39008W        W81999  32.749  16.653  28.079  0.1890  0.1401 -0.0012
39009W        W82000  34.553   9.071  24.286 -0.0775  0.1558 -0.2038
39010W        W82001   4.317  15.550   5.903 -0.0006  0.1140 -0.0550
39011W        W82002   5.165  34.250  10.089 -0.1518  0.1655 -0.0461
39012W        W82003  19.878  15.507  15.405 -0.0150 -0.3008  0.0916
39013W        W82004   2.139  31.022   7.239 -0.0570  0.1685 -0.1018
39014W        W82005  30.825   5.303   9.132 -0.1441 -0.0473 -0.3613
39015W        W82006   0.682   1.997   9.881 -0.0516  0.0662  0.3164
39016W        W82007  12.297   0.485  20.874  0.2863  0.0293  0.3543
39017W        W82008  12.522  13.645  24.277 -0.0084 -0.0783 -0.0578
39018W        W82009  20.259   7.958  22.625 -0.0928  0.0905  0.1190
39019W        W82010   5.111   6.336   1.481  0.3196  0.1269 -0.3307
39020W        W82011  12.238  34.463   8.486 -0.0581  0.0779  0.0523
39021W        W82012  17.980  30.376   2.826  0.0478  0.0094  0.3694
39022W        W82013   6.322   8.930  20.244  0.1158 -0.1040 -0.1134
39023W        W82014   3.185  24.912  17.746 -0.0002  0.0148  0.2091
39024W        W82015  29.392   5.927  24.539  0.1153  0.0446 -0.1401
39025W        W82016   4.944  28.707  22.007 -0.2163  0.1667  0.3399
39026W        W82017   4.985   5.608  16.483  0.4161  0.2015 -0.0467
39027W        W82018  14.158  13.852  14.073 -0.1398 -0.1656  0.4015
39028W        W82019  26.162  21.624  20.293 -0.1318  0.4173 -0.0146
39029W        W82020  10.963   6.568  15.827 -0.0255  0.0478  0.1745
39030W        W82021  26.645  11.081  24.584  0.1918  0.1060 -0.0626
39031W        W82022  28.297  34.791  13.553 -0.0299 -0.2360  0.2994
39032W        W82023  19.277   5.465  25.378  0.1251  0.3760 -0.2445
39033W        W82024   2.567   3.939  23.507 -0.1265 -0.3535  0.2094
39034W        W82025   4.898   5.264  16.790  0.0154  0.0266  0.1486
39035W        W82026   9.158  17.577   0.195 -0.0981  0.1473  0.1117
39036W        W82027  10.657   2.911  26.863  0.0604 -0.0453 -0.0100
39037W        W82028  13.443   8.775  19.688  0.1801 -0.1183  0.1527
39038W        W82029   3.747  23.401  22.213 -0.2910  0.0164 -0.1055
39039W        W82030  13.962  30.151  16.666 -0.0912 -0.3458 -0.1056
39040W        W82031  16.448   3.592  23.028 -0.3350  0.0732 -0.1323
39041W        W82032  29.406   4.695  16.502  0.0300 -0.1162 -0.1312
39042W        W82033  12.608   3.252  19.577  0.5926  0.0353  0.2766
39043W        W82034  30.368  16.613  14.963  0.0529 -0.1627 -0.2090
39044W        W82035   1.152   6.865   0.819  0.1289  0.0508  0.2366
39045W        W82036  32.591  11.668  18.817 -0.1428 -0.0897  0.3015
39046W        W82037   8.004   9.566  27.436 -0.1643  0.2989 -0.0337
39047W        W82038  26.820   6.702   5.207 -0.0589 -0.2386 -0.0673
39048W        W82039  18.879  14.091  23.007 -0.2720 -0.1501 -0.0774
39049W        W82040  21.641   7.833  22.109  0.1208  0.0816 -0.1283
39050W        W82041  17.165  34.357  18.098  0.0268 -0.1813  0.1036
39051W        W82042  16.625   5.153  18.619 -0.0183 -0.1379 -0.2169
39052W        W82043   5.576  10.136  17.454 -0.4430  0.2103  0.1115
39053W        W82044   2.711  31.962  23.037 -0.0406  0.3173 -0.0022
39054W        W82045   4.236  21.740  23.537  0.0134 -0.2215 -0.3770
39055W        W82046  14.173  19.106  16.057 -0.0708  0.0010  0.2603
39056W        W82047  10.412  13.766  21.880  0.1243 -0.0377  0.1107
39057W        W82048  33.230  29.099  26.126 -0.0793  0.0014 -0.1607
39058W        W82049  13.055  11.174  28.719 -0.0513  0.1552  0.1156
39059W        W82050  14.964   7.976  27.827 -0.4773 -0.2668 -0.5536
39060W        W82051   0.754  19.563  20.565  0.4296 -0.0983 -0.3217
39061W        W82052  18.431  32.939   0.815 -0.0753  0.0228 -0.1202
39062W        W82053  17.314   2.297  22.025  0.1593  0.1470 -0.0359
39063W        W82054  31.416   7.408  22.008 -0.1131  0.1733 -0.1851
39064W        W82055   8.993   4.254  17.703 -0.1789 -0.2082  0.3526
39065W        W82056   7.806  10.515  28.039  0.0290 -0.0079  0.0405
39066W        W82057  12.466  10.205   9.541 -0.0726 -0.2024 -0.1518
39067W        W82058  24.210  16.938  19.472  0.0079 -0.0628  0.0209
39068W        W82059  10.390  10.103  16.341 -0.0028  0.1505 -0.4702
39069W        W82060   8.921  10.559  20.715 -0.0313 -0.1289 -0.1771
39070W        W82061  32.321  14.123  15.927 -0.0750  0.1080 -0.0521
39071W        W82062   2.035   7.495  23.401  0.1906  0.1630 -0.1498
39072W        W82063   8.315  15.185  19.755 -0.1563  0.2265 -0.1402
39073W        W82064  17.750  27.300  27.849 -0.1109  0.0859 -0.1398
39074W        W82065  14.357  15.014  16.174  0.0322 -0.1700 -0.0413
39075W        W82066  31.836  12.085  18.344 -0.1293 -0.1277  0.0324
39076W        W82067  27.583   1.857   3.634 -0.0821 -0.2189  0.1970
39077W        W82068  20.419  15.450  15.962  0.0475  0.0908 -0.0809
39078W        W82069  17.731   9.262  14.979  0.2166 -0.3695  0.0328
39079W        W82070  23.812   4.904  13.201 -0.3384  0.0116  0.0599
39080W        W82071  16.412  33.918  24.445 -0.3957  0.2318 -0.3753
39081W        W82072   4.270   5.400   1.755  0.0882 -0.0154 -0.0114
39082W        W82073  17.171   6.542   6.300 -0.3634 -0.2093 -0.3110
39083W        W82074  25.367   8.682  25.654  0.2367  0.0246 -0.2877
39084W        W82075   2.525   9.620  20.353  0.1159  0.3372 -0.0868
39085W        W82076   5.979  32.740   8.718 -0.0432 -0.0879  0.1519
39086W        W82077   8.928  21.015   2.828 -0.0406  0.2955  0.0122
39087W        W82078  10.129  25.534   4.978 -0.1216  0.1607 -0.1295
39088W        W82079   5.328   5.898  28.863 -0.1352 -0.0693 -0.0105
39089W        W82080   9.928  11.265  20.084 -0.2912 -0.1456  0.0145
39090W        W82081  21.232  24.795  17.614 -0.0207  0.0057  0.1270
39091W        W82082  20.644  22.292   3.300  0.2660 -0.2951  0.2462
39092W        W82083  11.474  15.650  25.538 -0.1800  0.0890 -0.0587
39093W        W82084  26.839   5.555  18.983 -0.1693 -0.5134  0.0645
39094W        W82085  15.987  18.355  13.407 -0.2486 -0.0922  0.0175
39095W        W82086  12.036  16.976  22.201  0.1595 -0.5485  0.0144
39096W        W82087  24.963  13.033  16.844  0.0489  0.3186 -0.0982
39097W        W82088   7.703  14.818  22.141  0.0022  0.0493 -0.4155
39098W        W82089  34.523   6.196  17.444 -0.0206 -0.0278  0.1833
39099W        W82090  16.118  11.866  17.831  0.3967 -0.2119  0.1088
39100W        W82091  24.386  17.808  14.886  0.0893 -0.0832 -0.0801
39101W        W82092  23.712   6.237  13.863 -0.0015  0.0930 -0.3324
39102W        W82093  15.833  10.087  18.372 -0.0361  0.1557  0.0822
39103W        W82094  10.623   3.477  21.624 -0.0710  0.0691  0.0803
39104W        W82095   9.262  30.185  23.858  0.1468 -0.2973  0.3729
39105W        W82096  29.451  26.841  23.590  0.1121  0.0835  0.2687
39106W        W82097   1.332  13.345  20.500  0.2539 -0.0349 -0.1089
39107W        W82098   3.725   4.023  20.951  0.0862  0.0806 -0.0108
39108W        W82099  12.361  19.050  23.969  0.0695  0.4514  0.1870
39109W        W82100  24.057   6.623  17.213 -0.4721  0.1464  0.1506
39110W        W82101  16.200   1.576  16.329 -0.2288 -0.1307  0.2098
39111W        W82102   5.462   9.831  18.889 -0.2708  0.2331 -0.0728
39112W        W82103   1.958  34.121  25.588  0.0341  0.3016 -0.0648
39113W        W82104  24.366  31.344  25.647  0.0142 -0.2909 -0.0322
39114W        W82105  16.341  21.702  14.779  0.1472  0.1903  0.0168
39115W        W82106   4.364  29.039  23.058 -0.2574 -0.0546 -0.0032
39116W        W82107   9.076  14.255   1.301 -0.3002  0.0335 -0.1050
39117W        W82108  15.773   8.812  19.452 -0.2693  0.3987  0.2941
39118W        W82109  17.747   5.250  16.681 -0.2615 -0.0020  0.2603
39119W        W82110   0.991  17.206  25.740 -0.0081  0.1064 -0.2512
39120W        W82111  13.928   7.438   4.317 -0.3080 -0.0811  0.1162
39121W        W82112   8.970   5.399  14.327  0.2128 -0.1222 -0.1043
39122W        W82113  13.782   3.853   2.036  0.2754  0.1021  0.3038
39123W        W82114  24.485   3.387  28.124  0.2181 -0.1068  0.0532
39124W        W82115  14.846   5.848  22.335  0.1802 -0.2823  0.3184
39125W        W82116   5.489  17.133  18.005 -0.0252  0.0670 -0.1232
39126W        W82117  25.491  16.390  14.295 -0.0159  0.1423  0.1831
39127W        W82118  10.158  18.111  17.536 -0.0817 -0.4106 -0.0753
39128W        W82119   4.564  31.402  20.925 -0.0229 -0.0959  0.3591
39129W        W82120  33.196  13.234  16.227  0.0279  0.2650 -0.1120
39130W        W82121  34.183   9.470  27.452 -0.0532 -0.1505  0.0254
39131W        W82122  16.671  17.972  27.201  0.4248 -0.1508 -0.2790
39132W        W82123  34.731  30.823  19.667 -0.3064  0.0141 -0.1076
39133W        W82124  19.569   2.122  21.997  0.0669 -0.4392 -0.2540
39134W        W82125   7.816   7.083  25.141 -0.2533 -0.1103 -0.3036
39135W        W82126   1.751   9.581  18.088  0.1018 -0.0779 -0.0540
39136W        W82127  25.286  15.670  21.931  0.0765  0.0824  0.3630
39137W        W82128  30.306  13.073  16.219 -0.2879 -0.1130 -0.0743
39138W        W82129  12.589   1.799   8.414 -0.0411 -0.0230  0.0319
39139W        W82130  15.726   9.894  15.845  0.0094  0.0036  0.0610
39140W        W82131  22.653  19.381   3.620 -0.0585 -0.1023  0.0257
39141W        W82132  18.041   9.484  16.528  0.0038  0.3393  0.0465
39142W        W82133  17.813   8.408  24.913  0.3272  0.2767  0.0394
39143W        W82134   7.231   9.115  20.461  0.3950  0.0579  0.2940
39144W        W82135  22.593  30.005  20.522  0.1692 -0.0209 -0.2294
39145W        W82136   8.394  14.631   0.178  0.0984  0.2229 -0.0879
39146W        W82137  30.968  18.559  22.577 -0.3147  0.0107  0.2734
39147W        W82138   2.044  14.756  16.475  0.0313 -0.1250  0.1062
39148W        W82139   7.949  22.723   8.541 -0.2041  0.1614  0.0231
39149W        W82140  11.597   4.316  14.651  0.2389  0.2385  0.1944
39150W        W82141   6.184  16.582  16.864 -0.1920 -0.0903  0.0688
39151W        W82142  15.523  12.805  21.048  0.0582 -0.1791 -0.3109
39152W        W82143   2.951   2.536  18.700 -0.0745  0.3538  0.0181
39153W        W82144  31.843  12.457  21.539  0.0549  0.2518  0.2444
39154W        W82145  23.511   0.356  15.873 -0.0067 -0.4602 -0.0124
39155W        W82146  12.437   6.949  22.502  0.3166  0.3137 -0.1155
39156W        W82147  14.378  33.451   2.043 -0.2101  0.0225  0.0759
39157W        W82148  12.438   1.060  28.219 -0.2686 -0.2343 -0.2062
39158W        W82149   5.000  34.410  15.152 -0.2935  0.0831 -0.1491
39159W        W82150  15.331   0.245   0.118  0.2803 -0.0019  0.0826
39160W        W82151   6.687  30.254  17.519 -0.0120 -0.3487  0.0151
39161W        W82152  10.302  20.346  23.623 -0.1571  0.1279 -0.2893
39162W        W82153  32.670  25.849  17.763 -0.3046  0.2205 -0.3927
39163W        W82154  29.431  12.238  19.438 -0.1070 -0.2569 -0.0668
39164W        W82155  33.575  34.611  13.351  0.2146 -0.1933 -0.1534
39165W        W82156  27.565  16.845  23.338 -0.1729  0.1545 -0.2176
39166W        W82157  20.001  32.889  25.106  0.3675  0.1980  0.1110
39167W        W82158  11.083   5.705  28.490  0.2086  0.1441  0.3128
39168W        W82159  29.977  24.098  20.801 -0.1686 -0.2511  0.0397
39169W        W82160  28.500  24.147  28.413 -0.3687  0.1832  0.3260
39170W        W82161  15.766  34.280   4.169 -0.0297 -0.2336 -0.2966
39171W        W82162  31.864   4.650  25.389 -0.0443 -0.0534  0.5246
39172W        W82163  18.779   5.054  16.971  0.1251  0.2064  0.0354
39173W        W82164  12.936  18.584   0.272  0.2918  0.2184 -0.0636
39174W        W82165   6.536  16.408  21.698 -0.1258  0.0587 -0.4535
39175W        W82166  34.482  27.678  15.588  0.1347  0.0837 -0.3023
39176W        W82167   4.558   4.309  22.590  0.3207 -0.0491  0.0755
39177W        W82168  25.536  28.942  24.992  0.0841 -0.0452  0.2263
39178W        W82169  12.099  22.118  15.790  0.0758 -0.1018  0.0657
39179W        W82170  23.166  11.469  19.358  0.3071 -0.1857  0.0172
39180W        W82171   1.033   2.062  20.486  0.2331 -0.0737 -0.2503
39181W        W82172  16.957  10.893  20.257 -0.2123 -0.1906  0.0753
39182W        W82173   9.271  16.966  20.508  0.1155 -0.0984 -0.0773
39183W        W82174   9.878  19.654  21.990 -0.1284 -0.1090 -0.2450
39184W        W82175   6.673  16.968  28.434  0.2214  0.4775  0.0180
39185W        W82176   9.337  33.481  15.778 -0.3290  0.0785 -0.0295
39186W        W82177   7.950   5.926  16.098  0.1179 -0.2502 -0.2241
39187W        W82178   2.401  14.115  25.333 -0.1559  0.1086  0.2193
39188W        W82179   6.418   5.959   0.713  0.0109  0.1962 -0.3758
39189W        W82180  27.750   5.909   0.220 -0.2397  0.3840 -0.1384
39190W        W82181   0.657  28.916  20.764 -0.1443  0.0196  0.2154
39191W        W82182  33.384  26.942  14.632  0.0627 -0.1570  0.0653
39192W        W82183  10.179   4.236  28.177  0.3075 -0.3195  0.0787
39193W        W82184   8.777  15.056  16.400  0.2138  0.0708  0.1849
39194W        W82185  30.478   8.274  28.267 -0.0654  0.0564 -0.2031
39195W        W82186   9.754   0.711  20.765  0.3932  0.0254 -0.1699
39196W        W82187  31.337   7.082  16.147  0.0453  0.0611 -0.1255
39197W        W82188  31.458  10.604  21.374 -0.2792 -0.0465  0.0571
39198W        W82189   0.136   3.666   1.069 -0.1553 -0.1172 -0.0981
39199W        W82190  14.235  28.468  18.581 -0.0826  0.2169  0.2632
39200W        W82191  11.422  31.088  21.420 -0.0548  0.1916 -0.3209
39201W        W82192  16.297  10.997  13.730 -0.2249  0.0924  0.0260
39202W        W82193   8.307  14.185  19.652 -0.2906 -0.0970  0.0480
39203W        W82194   7.496   0.878  27.593  0.2060 -0.0103 -0.1001
39204W        W82195  18.714   3.649  16.626  0.0798  0.0400 -0.4657
39205W        W82196  16.948  31.665  23.306 -0.2542  0.2232 -0.3020
39206W        W82197   9.054  13.767  18.028  0.1413 -0.0270 -0.0149
39207W        W82198  24.390   4.817  26.463  0.1043  0.0898  0.2656
39208W        W82199  14.525  33.227   3.574  0.2636  0.0751  0.0788
39209W        W82200  26.800   5.038  25.561 -0.0725  0.0414  0.3224
39210W        W82201  12.095  24.382  17.414  0.1867 -0.1248 -0.1041
39211W        W82202  18.795  28.058  16.167  0.1838  0.1642 -0.0290
39212W        W82203   0.254  13.038  18.723 -0.2029 -0.1146  0.0947
39213W        W82204   9.792   2.950  16.759 -0.0824 -0.3898 -0.2203
39214W        W82205  21.654   4.371  18.186  0.1788  0.3388  0.2343
39215W        W82206  16.297  28.449  15.259  0.0333  0.1404 -0.0214
39216W        W82207  33.126  18.035  24.346 -0.0616 -0.1204  0.4460
39217W        W82208  33.477   7.980  15.620 -0.1886 -0.0841  0.0357
39218W        W82209  14.006   2.786  25.816 -0.2841 -0.1362 -0.2031
39219W        W82210  10.050   7.438  17.875  0.1056 -0.3157 -0.0542
39220W        W82211   7.264  12.046  25.144  0.1240  0.1062 -0.0167
39221W        W82212  13.567  12.991  26.590 -0.1866  0.1379 -0.0885
39222W        W82213   9.753   7.893  17.265 -0.1012 -0.0806 -0.0801
39223W        W82214   5.292   6.854  20.288  0.2299  0.0020 -0.1225
39224W        W82215  12.888  22.130  17.687 -0.4232 -0.0411  0.2189
39225W        W82216   4.071  33.351  18.575 -0.0430  0.0904  0.3348
39226W        W82217  15.672   2.476  25.670 -0.3087 -0.1904 -0.1574
39227W        W82218  21.636   5.702  14.615  0.1606 -0.2669  0.3754
39228W        W82219   4.220   0.097  28.509  0.1032 -0.0246 -0.0549
39229W        W82220  26.368   2.344  16.431  0.0921  0.0039 -0.2106
39230W        W82221  32.120   2.738  23.097 -0.1126  0.2760  0.3108
39231W        W82222  25.962  11.049  22.847 -0.0232 -0.1700  0.0091
39232W        W82223   7.925   6.339  15.789 -0.0832 -0.1835  0.2201
39233W        W82224  14.652  19.130  14.503  0.0547 -0.3711  0.3466
39234W        W82225  33.470   7.199  28.821  0.0511  0.2314  0.2915
39235W        W82226  31.983  12.546  16.934 -0.0072  0.0827 -0.0111
39236W        W82227   6.278  26.086   1.083 -0.2336 -0.3359 -0.1227
39237W        W82228  34.281  23.539  21.283 -0.3424  0.0988 -0.0264
39238W        W82229  18.169  21.002  16.354  0.4616  0.1003  0.2498
39239W        W82230   6.616  17.668  19.888  0.4190  0.1915 -0.0200
39240W        W82231  21.352  32.056  25.619 -0.2289 -0.0151  0.2346
39241W        W82232   1.101  21.823  26.526  0.1672 -0.0600  0.0702
39242W        W82233  22.625   8.659  19.720 -0.1672 -0.1033  0.2235
39243W        W82234   6.042   1.580  15.847 -0.0730 -0.0441  0.3987
39244W        W82235   6.025   9.321  28.203  0.3590  0.0387 -0.1461
39245W        W82236  34.305  12.592  16.171  0.2451  0.0904  0.0970
39246W        W82237  24.534   3.032  18.976 -0.3275  0.3041 -0.5093
39247W        W82238  10.771  12.309   2.007  0.1789  0.0103  0.1179
39248W        W82239  10.467  18.172  22.512  0.1600  0.1999 -0.2293
39249W        W82240  11.782  34.676  19.515 -0.3867 -0.0249  0.3132
39250W        W82241  27.647  11.553  26.417  0.3190 -0.0666  0.0594
39251W        W82242  29.617  28.331   0.796  0.2604 -0.2308  0.1237
39252W        W82243  27.421  31.619   5.668  0.1980 -0.3260 -0.0266
39253W        W82244  12.803  34.653   1.273  0.3787 -0.2623  0.0844
39254W        W82245   3.762   7.801   0.899 -0.0236 -0.0603  0.0714
39255W        W82246  29.383  15.887   8.736  0.0628 -0.1230 -0.2238
39256W        W82247  22.002   9.820   1.534 -0.2297 -0.0604 -0.0966
39257W        W82248   6.856  26.318  25.158 -0.0273  0.2352  0.2484
39258W        W82249  29.288   0.977   8.589  0.1139  0.3546 -0.0379
39259W        W82250  13.108  21.751  18.770  0.0646  0.1366 -0.0936
39260W        W82251  28.774  15.423  24.566  0.1022 -0.1710  0.1336
39261W        W82252  27.330  18.519  19.871  0.0801 -0.0178 -0.2174
39262W        W82253   5.155  11.612  20.836 -0.2390  0.0663 -0.3189
39263W        W82254   8.307   5.351  19.995  0.0436  0.0294  0.1099
39264W        W82255   9.772   3.114  16.279  0.0101  0.1110  0.0359
39265W        W82256  15.125   1.169  20.267 -0.0848 -0.2556  0.0844
39266W        W82257   1.699   6.883  22.613 -0.0667  0.1344 -0.2472
39267W        W82258   2.641  12.870  19.963  0.3246 -0.4336 -0.0593
39268W        W82259   7.310   0.542  15.631  0.3599 -0.1858 -0.1848
39269W        W82260  30.076   3.924  17.126  0.1726  0.0007  0.1414
39270W        W82261   7.778  32.039  15.091  0.0653 -0.1724  0.0820
39271W        W82262  31.899   6.439  19.028  0.2439 -0.0631 -0.2330
39272W        W82263  14.681  23.745  18.268 -0.1005  0.1843 -0.4987
39273W        W82264   4.376   0.894  20.182 -0.4410  0.1168 -0.0248
39274W        W82265   2.503   5.205  18.223  0.1812  0.3965  0.0036
39275W        W82266  11.488  18.543  14.606 -0.1327 -0.1611 -0.2698
39276W        W82267  12.262   8.032   1.956  0.2572  0.0081  0.1846
39277W        W82268   3.146  34.753  27.025 -0.2629 -0.0536  0.3670
39278W        W82269   2.065  11.396   0.984  0.0901  0.1775 -0.1937
39279W        W82270  33.216   5.628  18.333  0.2433  0.1289  0.0211
39280W        W82271  27.003  18.973  25.347  0.2126  0.3176  0.0998
39281W        W82272   8.297   9.559  22.189  0.1978  0.2102 -0.2747
39282W        W82273  12.550  22.044  17.269  0.2781  0.0157 -0.1407
39283W        W82274  10.945   6.526  15.247  0.0362 -0.1585 -0.1458
39284W        W82275  10.330  11.210   0.070 -0.2010  0.2636 -0.2186
39285W        W82276  32.144  25.593  24.000 -0.2850  0.0223  0.2706
39286W        W82277   9.291  33.341  25.616 -0.0812  0.0241  0.3936
39287W        W82278  12.268  18.250  28.920 -0.0690  0.0934  0.0191
39288W        W82279   4.244  31.347  17.269  0.2129  0.0635  0.1737
39289W        W82280  12.059   1.580  21.089 -0.2650 -0.2927  0.1934
39290W        W82281  11.652  11.240  21.121 -0.0093  0.0012 -0.4137
39291W        W82282  13.657  15.309  23.288 -0.0998  0.1341  0.2441
39292W        W82283   7.914  31.278  16.422 -0.0538 -0.0264  0.2811
39293W        W82284   1.286   7.211   5.113  0.2312 -0.1434 -0.3486
39294W        W82285  16.183   8.731  15.642 -0.2595  0.1597  0.0431
39295W        W82286   2.170   9.846  22.711 -0.2329 -0.2323  0.0360
39296W        W82287   7.175  22.159  16.429  0.1775 -0.1979  0.0585
39297W        W82288  11.030   5.219  18.929  0.1915 -0.1201 -0.1562
39298W        W82289   5.861  18.308  20.298  0.1375  0.2079  0.0306
39299W        W82290   9.027  19.639  15.238 -0.1069 -0.1996  0.3363
39300W        W82291  29.996  18.019  21.629  0.0029  0.1560  0.3130
39301W        W82292  16.725  33.636  18.959  0.2849  0.2579 -0.0478
39302W        W82293   5.510  31.681  16.537  0.0961 -0.1557 -0.1994
39303W        W82294  31.670  20.066   9.740  0.1676  0.1858 -0.1665
39304W        W82295  15.300   5.823  17.875 -0.3813 -0.0945 -0.1937
39305W        W82296   6.015   1.030  21.808 -0.0675  0.2532  0.1201
39306W        W82297   8.477  19.338  25.424  0.1420  0.0312  0.1602
39307W        W82298  12.165  10.037  23.562  0.0163 -0.4157  0.0163
39308W        W82299   6.342  15.794  21.931 -0.3220  0.1301  0.1008
39309W        W82300  16.239  26.444  25.960 -0.1143  0.0140 -0.2802
39310W        W82301  28.179   6.563  15.699 -0.0436 -0.1808  0.2156
39311W        W82302   7.915   7.906  18.817  0.1083  0.0044  0.4093
39312W        W82303  26.197  33.278  18.746 -0.0784  0.2347  0.0265
39313W        W82304   1.927   9.457  27.577 -0.0081 -0.2099 -0.0577
39314W        W82305  19.120  11.711  28.465  0.1175  0.0738  0.1458
39315W        W82306   7.770   6.966  18.803 -0.0663  0.2457  0.0306
39316W        W82307  16.373  33.671  16.277  0.1666 -0.0194  0.1267
39317W        W82308   6.986  34.759  16.323 -0.2031  0.1542 -0.0840
39318W        W82309   5.024   9.244  22.357 -0.4117  0.1902  0.0712
39319W        W82310  26.258  11.356  16.972  0.1582 -0.0637  0.0852
39320W        W82311   3.936   9.497  29.240 -0.0279  0.1701  0.3723
39321W        W82312   1.915   3.823  24.450 -0.2364 -0.1430 -0.0287
39322W        W82313   4.330   9.815  24.034  0.0896 -0.0397  0.0715
39323W        W82314   1.025   1.368  17.683  0.0251 -0.2769  0.0617
39324W        W82315  11.755  11.027  16.800  0.1775  0.1710  0.0044
39325W        W82316  20.190  17.811  13.741 -0.1617  0.1087  0.1955
39326W        W82317   9.462  11.636  20.818 -0.0859 -0.0130  0.1781
39327W        W82318   6.231  29.341  18.299  0.1578  0.0937 -0.0690
39328W        W82319  25.836   2.253   0.017 -0.0224 -0.3529  0.1078
39329W        W82320  21.397  32.943  20.527 -0.1833 -0.1818  0.0011
39330W        W82321  15.410  21.374  16.087  0.1645  0.3053 -0.0283
39331W        W82322  19.696  14.411  12.713 -0.0657  0.2526 -0.2024
39332W        W82323  31.554   0.781  17.384  0.1087 -0.1722  0.1185
39333W        W82324   1.341  15.330  19.411 -0.2183  0.4405 -0.1762
39334W        W82325  27.995  14.713   5.876 -0.0956 -0.2897 -0.1629
39335W        W82326   1.891  25.677  18.378 -0.0528  0.2753  0.1886
39336W        W82327  12.258  23.794  14.335  0.0958  0.1444  0.0673
39337W        W82328   0.546  17.661   2.449 -0.2979 -0.0421 -0.1002
39338W        W82329  14.202   2.085  20.952 -0.2695  0.1952 -0.0339
39339W        W82330  14.565  21.896  13.945 -0.2750 -0.0716 -0.0378
39340W        W82331   9.876  11.525  17.895 -0.0165  0.2181 -0.0461
39341W        W82332  17.463  22.941  20.327  0.4115  0.0566  0.4458
39342W        W82333  11.441   8.627  16.517 -0.1582  0.0442  0.1727
39343W        W82334  25.593   5.059  21.163  0.0998  0.0942 -0.5968
39344W        W82335  24.418   6.105  16.429  0.3239 -0.1329  0.1326
39345W        W82336   5.357   9.742  23.185 -0.1950  0.0850  0.0057
39346W        W82337  23.753   8.642  16.944 -0.1056 -0.0382  0.0526
39347W        W82338  10.354  11.288  18.099 -0.1756  0.3089 -0.0077
39348W        W82339  17.630   7.173  21.315 -0.0329 -0.1413 -0.0249
39349W        W82340  12.772  10.852  20.644  0.2219  0.0048 -0.1724
39350W        W82341  20.251   8.261  20.726  0.3307 -0.2832  0.0592
39351W        W82342  26.178  20.490  24.870 -0.1521 -0.0315  0.0996
39352W        W82343  17.799   8.449  19.231 -0.4214 -0.0859 -0.0790
39353W        W82344   4.123  17.872  26.244 -0.1858 -0.2614  0.2004
39354W        W82345  17.536  34.575  14.431 -0.2609 -0.1464 -0.2252
39355W        W82346  27.136  10.917  16.038 -0.4821 -0.0094  0.2406
39356W        W82347  15.633   8.323  19.703  0.0924 -0.2587  0.1319
39357W        W82348   8.603   8.580  20.116  0.0355  0.0179 -0.1398
39358W        W82349  15.020  12.381  15.594  0.4826 -0.1143  0.0609
39359W        W82350   8.787   0.231  14.979  0.3110 -0.3627  0.0221
39360W        W82351  22.344  14.852  26.669 -0.1309  0.1470 -0.3861
39361W        W82352   8.583   3.215  15.324 -0.0735 -0.1611 -0.0469
39362W        W82353  10.519   8.219  14.939  0.1075  0.1482 -0.1242
39363W        W82354   3.531  13.993  24.943 -0.0941  0.2560 -0.1310
39364W        W82355  16.011   8.539  18.240  0.0985 -0.1399 -0.0437
39365W        W82356  29.207  20.715  14.894  0.3337  0.2618  0.1012
39366W        W82357  13.862   9.698  19.632 -0.0793  0.2582  0.0749
39367W        W82358  14.674   8.872  14.939 -0.2849 -0.0339 -0.1981
39368W        W82359   7.894   7.390   3.789  0.0460 -0.1375  0.0797
39369W        W82360  19.062   7.443  23.432  0.0420  0.3583 -0.2407
39370W        W82361  28.103  21.624  18.243  0.0011  0.3315 -0.1340
39371W        W82362  10.527   8.438   0.611 -0.0093 -0.1644 -0.1502
39372W        W82363  17.736  26.342  20.265 -0.1440 -0.1510  0.0192
39373W        W82364   7.346   1.131   0.189  0.1618 -0.1264 -0.2917
39374W        W82365  30.935  10.099  26.075  0.3283  0.2188 -0.3975
39375W        W82366   3.002  21.431  16.285  0.1036  0.2866 -0.1380
39376W        W82367  32.797  16.434  16.371 -0.1452 -0.4719 -0.0931
39377W        W82368  27.459  16.144  15.586 -0.2767 -0.1639 -0.3182
39378W        W82369  14.742   2.861  17.615 -0.1279  0.0953 -0.0375
39379W        W82370  17.183   3.482   7.703 -0.3496  0.0132  0.0580
39380W        W82371  16.197  28.618  21.710  0.2668 -0.0349 -0.0167
39381W        W82372   5.618   4.803  24.329 -0.0022 -0.4241 -0.0245
39382W        W82373  11.978  10.836  20.932  0.0172  0.0739  0.3567
39383W        W82374  31.689  16.198  23.934 -0.1419  0.1660  0.0170
39384W        W82375  12.635  21.607  17.713  0.1855  0.1581  0.0653
39385W        W82376  12.838  12.556  18.558  0.0978  0.3668 -0.0117
39386W        W82377   2.009   7.419  15.939 -0.0064  0.1966  0.1131
39387W        W82378  21.946   8.921  24.589 -0.0436  0.0551 -0.3126
39388W        W82379  30.981  30.323  17.938  0.3107 -0.0453 -0.0751
39389W        W82380  16.611   2.029  18.956 -0.2640  0.3362 -0.1706
39390W        W82381  17.075   4.532  15.465 -0.1196 -0.0805 -0.0245
39391W        W82382  15.249   0.492   2.561 -0.0164 -0.0029 -0.0013
39392W        W82383  10.759   9.981  17.854  0.5602  0.1274 -0.1107
39393W        W82384  32.225  10.645  15.402  0.0724 -0.0232  0.0392
39394W        W82385   3.471   1.412  19.458  0.0227  0.4317  0.5151
39395W        W82386  28.582  33.533  20.225  0.2408 -0.0680 -0.2205
39396W        W82387  19.344   4.176  15.529  0.4703  0.0921 -0.2053
39397W        W82388   4.455  27.112  23.467 -0.2460  0.2519 -0.4079
39398W        W82389  14.848   0.270  20.862 -0.1390  0.0873  0.1028
39399W        W82390  32.825  13.859  22.850  0.3591  0.0264 -0.0491
39400W        W82391   9.973   1.546   1.666  0.2077  0.0187 -0.0313
39401W        W82392  19.767  32.040  24.278  0.0907  0.0448  0.2059
39402W        W82393   4.463  12.744  20.615 -0.0909  0.0200  0.0455
39403W        W82394  26.415  12.392   5.907  0.0301  0.0673 -0.1501
39404W        W82395  24.226   8.851  16.852  0.0491 -0.2696  0.3030
39405W        W82396  16.697  11.585  14.027  0.0614 -0.0378  0.1487
39406W        W82397   9.222   4.574  23.606 -0.0167 -0.0246  0.0583
39407W        W82398   7.436   0.614  16.586 -0.2828 -0.5293 -0.2688
39408W        W82399  16.176   7.464  19.210  0.0315  0.1678 -0.0057
39409W        W82400   4.110  28.109  22.749  0.1850  0.0041  0.3086
39410W        W82401   5.653   8.252  19.941 -0.0437 -0.0137 -0.4280
39411W        W82402   9.588  25.387   6.669  0.2004 -0.2102 -0.0537
39412W        W82403  13.005  17.431  26.272 -0.0170 -0.1004 -0.2001
39413W        W82404   9.431  20.632  17.592  0.0141 -0.1755 -0.2497
39414W        W82405  20.417  25.324  27.550  0.2620  0.4183  0.1503
39415W        W82406  33.444  34.205  24.179 -0.2792  0.0751 -0.0236
39416W        W82407  34.303  12.152  21.706  0.1517 -0.0286  0.1418
39417W        W82408   7.592   8.535  17.832 -0.0706  0.1019  0.2694
39418W        W82409   2.522  19.075  25.882 -0.0650 -0.1476 -0.2831
39419W        W82410  11.095  17.740   0.650 -0.0468  0.1338 -0.2660
39420W        W82411   3.678  13.726  27.062 -0.0213 -0.1316  0.1661
39421W        W82412  13.348  19.454  15.661 -0.1322  0.2147  0.1114
39422W        W82413  27.736   7.568  20.263  0.0489 -0.3097  0.2052
39423W        W82414  34.786   7.685  19.064 -0.0276 -0.1772  0.2418
39424W        W82415   7.912  13.520  16.170 -0.1162 -0.3770  0.0062
39425W        W82416  12.290  25.904  20.192 -0.1112 -0.0053 -0.0467
39426W        W82417  33.559   8.057  16.236 -0.2196 -0.0546 -0.0981
39427W        W82418   9.785   8.502  25.101  0.0578 -0.2503  0.2645
39428W        W82419  20.168  32.132  25.365 -0.0640 -0.4064 -0.1467
39429W        W82420  12.964   6.755  23.537  0.4230 -0.0860 -0.1792
39430W        W82421   7.219   7.292  18.534 -0.1806 -0.2269 -0.0050
39431W        W82422  34.134  16.283  24.080  0.1978  0.1946  0.2509
39432W        W82423  12.951  13.609  28.627  0.1407  0.3048  0.0984
39433W        W82424   6.637  22.847  26.970 -0.0755 -0.2077 -0.0892
39434W        W82425  10.014  28.234  14.395 -0.2113 -0.4356  0.1039
39435W        W82426   2.612  18.664  10.723 -0.1645 -0.2257  0.0469
39436W        W82427  19.307  26.348  20.586 -0.2869  0.0046  0.2780
39437W        W82428   7.479  31.033  22.138  0.2491 -0.1845 -0.3632
39438W        W82429  10.166   8.202  23.882  0.2819 -0.2222  0.3227
39439W        W82430  10.962  24.054  19.280 -0.0831  0.1041 -0.1844
39440W        W82431  19.407  29.149  19.089  0.0476  0.0865 -0.0756
39441W        W82432  10.675  15.568   5.883  0.2526 -0.2286  0.0539
39442W        W82433   7.774   1.416  19.896 -0.1966 -0.2277  0.0361
39443W        W82434   8.922  10.377   4.989  0.2002 -0.1121 -0.1295
39444W        W82435  20.793  26.880  18.499 -0.1269 -0.3109 -0.2319
39445W        W82436   0.696   5.260  25.460  0.0618 -0.0268 -0.3050
39446W        W82437  23.910  12.492  21.909 -0.0830  0.2783  0.1834
39447W        W82438  25.609  16.133  16.963 -0.1088  0.2079  0.0658
39448W        W82439   2.416  25.053  18.014 -0.3225 -0.0615  0.2519
39449W        W82440   5.649  19.248  28.918  0.1847  0.0169  0.0328
39450W        W82441  24.896  16.478   5.288  0.1413 -0.1308  0.1180
39451W        W82442  21.879  15.208  24.798 -0.0906  0.0312  0.1531
39452W        W82443   8.364  14.160  27.014 -0.2385  0.0085  0.0368
39453W        W82444  11.645  33.640   6.418  0.0295  0.1100 -0.2292
39454W        W82445   2.670   5.932  16.993  0.3577  0.1443 -0.0586
39455W        W82446  22.157   1.074  20.897 -0.1648 -0.1837 -0.0606
39456W        W82447  20.854  12.846  18.180  0.1781  0.0386  0.2171
39457W        W82448  15.411  11.325  24.839 -0.2007 -0.0267 -0.0198
39458W        W82449  16.247  14.114  22.671  0.1679 -0.0930 -0.2275
39459W        W82450  13.264   2.708   7.755 -0.0483  0.1248 -0.0854
39460W        W82451  25.526  27.956  27.621 -0.1512  0.0855  0.0133
39461W        W82452   6.961   3.171  21.070  0.2002  0.0814 -0.0497
39462W        W82453  28.781  32.097   0.431  0.1267  0.1485 -0.4714
39463W        W82454  12.312   7.947  24.172 -0.1928 -0.1148 -0.1115
39464W        W82455  18.811   2.481  15.290 -0.0620  0.3316 -0.0125
39465W        W82456  24.503   4.500  22.704  0.0840  0.1068 -0.1306
39466W        W82457  12.282   3.973  18.031  0.2577 -0.3456  0.0819
39467W        W82458  11.462   2.089  18.893 -0.2388  0.1969  0.2709
39468W        W82459  15.137  11.035  27.281  0.1235 -0.1443 -0.0396
39469W        W82460  12.254  11.166  21.247  0.1600 -0.0490  0.1917
39470W        W82461   6.950  17.089  20.690  0.0391  0.2157 -0.0685
39471W        W82462  31.471   4.343  17.026 -0.1207  0.1565  0.0098
39472W        W82463   7.655  10.579  25.121  0.1966  0.1273  0.1477
39473W        W82464   3.861   0.025  15.118 -0.0919  0.0926  0.2320
39474W        W82465  18.675  34.057  17.805 -0.5237 -0.1002  0.1427
39475W        W82466  26.584   4.748  15.729 -0.2770  0.1620  0.1593
39476W        W82467  17.126  20.676  14.389  0.1236 -0.2955  0.3034
39477W        W82468  32.012   6.540  26.890 -0.4637  0.2004  0.2688
39478W        W82469   1.327  13.397  25.154 -0.5176  0.3669 -0.0959
39479W        W82470   3.592   2.019  29.187 -0.2563  0.0066 -0.0437
39480W        W82471   4.506  18.809  28.293  0.1848  0.3078 -0.1469
39481W        W82472  11.832  11.215   7.738  0.0569 -0.0756  0.0668
39482W        W82473  25.515  13.007  21.149 -0.1543 -0.4607  0.1095
39483W        W82474  12.405  12.883  18.663  0.0913  0.4342  0.0275
39484W        W82475  12.965  11.306  19.207 -0.1712  0.1838 -0.1531
39485W        W82476  15.660   6.828  27.314 -0.0262 -0.1472 -0.1273
39486W        W82477  22.470  11.050  15.860 -0.0257  0.2745 -0.0942
39487W        W82478   4.684   2.724   8.266  0.0144  0.0425 -0.0143
39488W        W82479  22.378   7.385   2.413 -0.2894 -0.2708  0.0543
39489W        W82480  19.373  13.192  21.647  0.2841  0.0317  0.3117
39490W        W82481  16.758   1.275  16.812  0.1559 -0.2830  0.3186
39491W        W82482  25.831  15.525  18.187 -0.1479  0.2672 -0.1714
39492W        W82483   3.928  16.533  16.684  0.2140  0.0912  0.1313
39493W        W82484   3.789  10.340   2.146 -0.3146  0.0989  0.1708
39494W        W82485   1.466  29.251  24.520 -0.0262  0.0503 -0.0449
39495W        W82486  25.118   5.769  23.991  0.1449 -0.1279  0.0372
39496W        W82487  20.004  10.647  25.497 -0.1304  0.1245  0.1849
39497W        W82488   7.633  21.547  15.314 -0.0271  0.0223  0.2237
39498W        W82489   4.426  26.319  19.901  0.2638  0.3136 -0.0815
39499W        W82490  13.707  18.810   7.033 -0.0172  0.0329 -0.0136
39500W        W82491   9.824  12.294  22.728 -0.3298 -0.0194  0.0093
39501W        W82492  12.232   1.923  21.898 -0.3157 -0.0909  0.0451
39502W        W82493  10.777  14.045  19.338 -0.2062 -0.0222  0.0985
39503W        W82494   8.747  14.446  27.628  0.0177 -0.1856 -0.2736
39504W        W82495  31.162  22.444   7.451  0.0957 -0.0426  0.0778
39505W        W82496  12.186  10.450   8.220  0.0579 -0.1498 -0.2554
39506W        W82497   6.189  14.019  17.166 -0.1224 -0.1603 -0.0879
39507W        W82498   4.918  31.392  13.882  0.0622  0.0364  0.0316
39508W        W82499  17.613  29.206   3.614  0.1182  0.0230 -0.1699
39509W        W82500  32.425  14.093  29.099  0.1668 -0.0948 -0.0504
39510W        W82501  19.330   5.630  14.532 -0.0918  0.1495  0.1051
39511W        W82502   8.184   1.292  16.687 -0.0612 -0.1675 -0.0571
39512W        W82503  21.183   7.171  18.761 -0.4706  0.0228 -0.1673
39513W        W82504  13.333  34.076  24.457 -0.4869 -0.0428 -0.0871
39514W        W82505  13.173   8.755  18.291  0.2090 -0.2608  0.3319
39515W        W82506  22.722  15.963  14.891 -0.0355  0.2673 -0.1933
39516W        W82507  33.407   5.429  19.615 -0.0520 -0.2821  0.0939
39517W        W82508  11.232   7.506  15.622 -0.2921  0.1281 -0.0355
39518W        W82509  16.327  25.925  13.732 -0.1904 -0.0118 -0.0803
39519W        W82510  27.680  14.462  21.461 -0.2397  0.1521 -0.1565
39520W        W82511   5.988  10.773  17.100  0.2418 -0.2223 -0.4283
39521W        W82512  24.197  33.281  13.528  0.1305 -0.0818  0.0423
39522W        W82513  33.447  32.238  13.966 -0.2598 -0.1644 -0.4035
39523W        W82514  11.222  25.577  16.291 -0.3806  0.1091 -0.1778
39524W        W82515  15.786   9.855  23.479  0.0085 -0.1823 -0.1455
39525W        W82516  32.451  21.754  14.246 -0.1524 -0.1870  0.0096
39526W        W82517   8.341  22.014  15.852  0.3767  0.2922 -0.1819
39527W        W82518  12.566   7.722  18.945 -0.0309 -0.0805  0.0160
39528W        W82519   9.670   9.329  20.660 -0.1923 -0.0080  0.0961
39529W        W82520  12.933  34.216  25.762  0.0803  0.2641  0.1101
39530W        W82521   4.514   5.056   3.820 -0.2734  0.0898 -0.0505
39531W        W82522  19.018  13.641   1.509  0.2290  0.1327 -0.0200
39532W        W82523   9.227   6.836   5.394  0.1157  0.2485 -0.0660
39533W        W82524   3.426   9.710  17.985 -0.1976  0.1545  0.1653
39534W        W82525   2.274   7.809  21.773  0.1088 -0.0777 -0.1048
39535W        W82526  19.715  10.705  24.048  0.0693 -0.2280  0.1913
39536W        W82527   8.878   4.596  13.914  0.3564 -0.0763 -0.0244
39537W        W82528  16.908  21.534  24.449 -0.6069 -0.0485  0.1409
39538W        W82529   8.160  11.207  19.833 -0.0425 -0.0614 -0.0925
39539W        W82530  12.562   3.043  23.953 -0.1323 -0.1101  0.0457
39540W        W82531  16.834  12.826   6.089  0.0691  0.2589  0.0119
39541W        W82532   7.587   6.713  14.549  0.0236 -0.1111  0.1828
39542W        W82533  15.103   7.743  21.758 -0.1344  0.1264  0.0449
39543W        W82534  13.208  12.321   4.638  0.1100  0.0477  0.0646
39544W        W82535   6.849  30.678  15.735 -0.0892  0.0489 -0.2246
39545W        W82536   5.269  28.932  21.156  0.0779 -0.0447  0.1144
39546W        W82537   5.433  33.556  14.781  0.1987 -0.1506 -0.0272
39547W        W82538   6.026   7.034  26.016 -0.0324 -0.0113  0.0099
39548W        W82539   4.723  21.129  21.224  0.0464  0.0936  0.0228
39549W        W82540  33.797  33.672  25.453 -0.0484  0.3320  0.0354
39550W        W82541   6.155  32.126   3.739 -0.1825 -0.0015 -0.1055
39551W        W82542  22.175   9.160  24.203 -0.0887  0.1220  0.0272
39552W        W82543  27.880   3.907  26.875 -0.0807 -0.3132 -0.0434
39553W        W82544  25.902  26.961  15.185 -0.0381  0.0879  0.3887
39554W        W82545  14.117   9.475  22.593  0.1142 -0.1094 -0.0421
39555W        W82546   3.365   8.066  19.893 -0.3413 -0.0921  0.1023
39556W        W82547  16.109   8.183  24.386 -0.2585 -0.1271 -0.0982
39557W        W82548   3.245   0.203  20.099  0.0042  0.0109  0.0109
39558W        W82549  22.466  11.995  24.583  0.0617 -0.0920  0.1124
39559W        W82550   6.304  11.175  16.216  0.0056  0.1492 -0.3392
39560W        W82551  17.049  28.828  17.617  0.0122  0.1653 -0.1758
39561W        W82552  25.372   9.768  19.335 -0.2230  0.0283  0.0422
39562W        W82553   2.130   8.162  25.666  0.0135  0.1859 -0.2780
39563W        W82554  17.444   1.254   9.410 -0.1093  0.0274  0.0112
39564W        W82555  34.348  13.284   6.622 -0.1372 -0.1198 -0.2340
39565W        W82556  12.797  33.240  24.924  0.0915 -0.0880  0.0492
39566W        W82557   3.439  16.116   6.655 -0.0762  0.0292 -0.1188
39567W        W82558  10.150   9.550   5.439 -0.0106 -0.2172  0.0131
39568W        W82559   5.269  20.250  23.610  0.3033 -0.2166 -0.1634
39569W        W82560  20.327   5.149  20.321 -0.0395  0.0744  0.3354
39570W        W82561  14.244  18.589  12.777  0.2745  0.0661  0.2190
39571W        W82562  26.444   6.631  20.133 -0.0203 -0.0182 -0.1580
39572W        W82563  19.106   5.401  16.976 -0.0449  0.0025 -0.2110
39573W        W82564  16.423  31.661  19.973  0.3035 -0.1470 -0.0636
39574W        W82565  10.439   4.340  18.107  0.3044 -0.2191 -0.0687
39575W        W82566  13.120   1.667  19.121  0.1041  0.1054 -0.1531
39576W        W82567  30.486   0.355  27.429 -0.2514  0.0050 -0.2587
39577W        W82568  10.844  23.136  17.467 -0.2388  0.2021  0.2032
39578W        W82569  30.730  21.718  25.445 -0.2053  0.0679  0.3098
39579W        W82570   5.456   7.925  18.602  0.2137  0.1860 -0.2592
39580W        W82571  19.369   5.393   3.155 -0.1355  0.0746 -0.2776
39581W        W82572  12.945  15.136  24.320  0.1375 -0.0647  0.3514
39582W        W82573  22.796  29.443  23.278 -0.1658 -0.0262  0.1071
39583W        W82574   6.163  17.428  18.631 -0.1075 -0.0893  0.1228
39584W        W82575  13.535  25.959  14.641 -0.2010 -0.0829  0.0008
39585W        W82576   3.265   6.045  15.414  0.0414  0.0185 -0.0369
39586W        W82577   6.304  20.403  18.555 -0.1038  0.1456  0.1873
39587W        W82578   0.730  22.662  22.613  0.0320  0.0566  0.2562
39588W        W82579   7.929  17.578  16.709 -0.1785  0.0426 -0.1365
39589W        W82580  22.484  32.859  26.891 -0.1350  0.2341 -0.2410
39590W        W82581  12.999   4.025   7.996  0.4240  0.2643  0.0717
39591W        W82582  13.744   5.750  17.944  0.1374  0.4346 -0.0172
39592W        W82583  34.324  22.785  21.439  0.0645 -0.1953 -0.2237
39593W        W82584  10.623  19.358  26.454 -0.2997  0.0937  0.0131
39594W        W82585  31.512  24.149  14.547 -0.0074  0.2367  0.5496
39595W        W82586   1.048   1.541  13.973  0.0428 -0.0737  0.0415
39596W        W82587   5.775   1.520  16.509 -0.0007  0.0598  0.4890
39597W        W82588  20.080   6.216  19.723  0.1825  0.2447 -0.0719
39598W        W82589  22.471   7.951  21.006 -0.0832  0.1239  0.1677
39599W        W82590  28.527  27.356  22.599  0.2277  0.1065  0.1095
39600W        W82591  17.846   3.750  17.331 -0.2577  0.1582  0.1464
39601W        W82592  10.258  13.577  15.477  0.0169 -0.1392  0.0202
39602W        W82593  24.884   2.338  27.355 -0.4644  0.1081  0.2239
39603W        W82594  27.954   3.371  14.198  0.3375  0.1025 -0.0318
39604W        W82595   1.899  33.953  17.068  0.4040 -0.2300  0.2501
39605W        W82596   2.216  10.626   0.574  0.2312 -0.2762  0.2983
39606W        W82597   8.270  31.671   9.124  0.0651  0.1995 -0.1140
39607W        W82598  20.158  16.649  14.620  0.0835 -0.0731  0.1672
39608W        W82599  11.527  12.761  18.244  0.0730  0.2667 -0.2608
39609W        W82600  19.481   3.942  23.207 -0.0273 -0.0329 -0.1013
39610W        W82601  18.013   1.671  15.127  0.3580 -0.0753  0.0423
39611W        W82602  16.635  33.104   7.278  0.1239 -0.3927  0.2654
39612W        W82603  10.180  32.257  19.455 -0.0381  0.1917 -0.0433
39613W        W82604  22.736   7.571   0.398  0.0059 -0.0179  0.3348
39614W        W82605  16.741   4.685  15.082  0.1806  0.0552  0.0032
39615W        W82606  34.269   8.430  19.534 -0.1048 -0.3360  0.1585
39616W        W82607  22.383   1.014  13.343 -0.3788  0.2067  0.0708
39617W        W82608   2.568  10.986   0.466  0.1571 -0.4732 -0.2760
39618W        W82609  34.000  23.282  28.111 -0.0800 -0.1756 -0.1203
39619W        W82610  10.676  10.149   2.498  0.3671  0.0818  0.1519
39620W        W82611  15.090  14.464  18.975  0.1032 -0.0477  0.1317
39621W        W82612   3.677  11.888  18.514 -0.0294 -0.0603  0.0557
39622W        W82613  23.057   1.867  20.477 -0.0447  0.0943  0.1225
39623W        W82614  15.549  32.778  14.909  0.2065 -0.1304  0.0789
39624W        W82615  21.738  15.210  21.837 -0.3147 -0.0289 -0.0786
39625W        W82616  19.942  12.290  19.711 -0.1014  0.0503  0.0611
39626W        W82617  26.051  11.273  18.821  0.0999 -0.3276  0.1634
39627W        W82618  31.915  21.881  22.787  0.1559  0.0172  0.1408
39628W        W82619   4.967  17.312  17.232  0.3489 -0.0383 -0.0193
39629W        W82620  15.499   0.608  21.039 -0.1857  0.3085 -0.2052
39630W        W82621  25.680  21.818  24.958 -0.0191 -0.1558 -0.2341
39631W        W82622  20.920  10.192  15.762  0.0388  0.0888  0.3263
39632W        W82623  33.831  12.263  21.007  0.3471  0.0563 -0.0712
39633W        W82624  26.731  27.303  26.351 -0.0174 -0.1126 -0.0663
39634W        W82625  17.623  22.847  15.702  0.1333  0.0819 -0.1742
39635W        W82626  21.898  18.793  15.444 -0.0283  0.0182  0.1306
39636W        W82627   8.122   4.981  22.957  0.0550  0.2220  0.2134
39637W        W82628  17.672  15.744  27.526 -0.1148 -0.1430 -0.2733
39638W        W82629  16.638  22.205  17.805 -0.3953 -0.0447  0.2578
39639W        W82630  14.730  12.593  28.056  0.1280  0.1479 -0.0012
39640W        W82631  11.044  12.219   7.110 -0.1625  0.0308 -0.1923
39641W        W82632  16.033   3.576  16.727 -0.2951  0.1723  0.0981
39642W        W82633  28.375  28.177   1.488 -0.1742 -0.3214  0.3710
39643W        W82634  15.922   5.692  21.826 -0.3094 -0.0458 -0.0513
39644W        W82635  12.738  30.413   8.815 -0.2004  0.2658  0.0080
39645W        W82636  18.427   0.342  15.625 -0.3060  0.2436 -0.2125
39646W        W82637  19.757  28.941  28.622 -0.0330  0.0179  0.0397
39647W        W82638   5.020   1.947  15.689 -0.0945  0.0842 -0.1702
39648W        W82639  31.197  14.928  20.965  0.3767  0.3656 -0.1360
39649W        W82640   4.599  22.205  16.164  0.0080  0.0235 -0.0281
39650W        W82641  11.881  12.796  25.100 -0.2413  0.1224  0.0175
39651W        W82642   7.107  12.040  18.555  0.0213  0.1681  0.2448
39652W        W82643  12.153  13.199  23.268  0.1189 -0.0450 -0.2613
39653W        W82644   8.568  15.360  16.730  0.2858  0.1162 -0.3076
39654W        W82645  10.110  15.575  21.956 -0.0628 -0.2235 -0.1810
39655W        W82646  13.722  13.511   1.326 -0.2506 -0.0802  0.2949
39656W        W82647   6.545  30.094  14.050 -0.3902 -0.2092  0.0956
39657W        W82648  21.425  34.040  19.027  0.2507 -0.1544  0.2214
39658W        W82649  26.240  24.410  23.154  0.2106 -0.0987 -0.0424
39659W        W82650   8.142  13.986  25.973 -0.0559  0.0502 -0.2167
39660W        W82651  34.227  13.374  18.418  0.0493  0.1156  0.1159
39661W        W82652  21.808   7.396  17.025 -0.0285 -0.0481 -0.0562
39662W        W82653   4.098  13.684  16.782 -0.1248 -0.0592 -0.0437
39663W        W82654   5.674   1.285  18.130 -0.1531  0.3003  0.1484
39664W        W82655  13.014  10.502  15.563  0.0851 -0.2043 -0.0917
39665W        W82656  16.749   9.313  24.602 -0.0362 -0.0342  0.3807
39666W        W82657   4.428  11.454  25.048  0.0672  0.0079  0.1078
39667W        W82658   7.285   7.422  17.233 -0.0300  0.0460  0.2997
39668W        W82659   7.543   1.696  21.416 -0.1105 -0.1470 -0.0542
39669W        W82660   4.809  12.119  27.012 -0.2243  0.3035 -0.1093
39670W        W82661   0.602   2.221  23.677 -0.1455  0.1413  0.0586
39671W        W82662  12.462  12.716  27.881  0.1600  0.0739 -0.1323
39672W        W82663   3.919  30.372  19.672  0.1467  0.1412 -0.2658
39673W        W82664  28.860  21.592  14.874 -0.1706 -0.2136  0.0661
39674W        W82665  33.430  32.386  20.856  0.0999 -0.2885  0.1481
39675W        W82666  32.867  15.960  22.039 -0.2863 -0.0277 -0.1026
39676W        W82667   3.482  23.201  22.607 -0.0880 -0.0005  0.0085
39677W        W82668  10.590   1.684  25.382  0.3847  0.1675 -0.0080
39678W        W82669  33.092  32.913   2.518 -0.1729 -0.2518 -0.1790
39679W        W82670  11.398  13.781   7.288 -0.0659  0.0947 -0.0948
39680W        W82671  21.699   8.214  20.321  0.3709  0.4058  0.1606
39681W        W82672  11.725  27.273  15.365  0.0642  0.0453  0.0359
39682W        W82673  29.225  20.558  20.417 -0.2912  0.0581  0.0441
39683W        W82674   1.531  12.462  16.544 -0.1964  0.2667 -0.0310
39684W        W82675  29.833  27.405  13.559  0.0536 -0.1125  0.1269
39685W        W82676  28.833  12.453  21.584 -0.1489  0.1369 -0.1894
39686W        W82677  14.327   6.420   5.684 -0.0014 -0.2063  0.0191
39687W        W82678  32.065   1.906  24.028 -0.1858 -0.2590  0.2166
39688W        W82679  12.608  34.437  24.007 -0.2355  0.0678  0.1288
39689W        W82680   4.898  26.417  25.396 -0.2048  0.1105 -0.1580
39690W        W82681   3.075   5.620  16.878 -0.2679  0.0371  0.0839
39691W        W82682  11.814  30.243  24.225  0.0129  0.0330  0.0444
39692W        W82683   7.667  12.242  18.364 -0.0781  0.0852  0.1120
39693W        W82684   6.917   9.039  16.773 -0.0219 -0.1091  0.1717
39694W        W82685  12.496  32.528  17.709 -0.1927  0.0132  0.1325
39695W        W82686   8.700  30.674   0.581  0.0160 -0.5338 -0.1952
39696W        W82687  18.464  19.606   0.674  0.0722 -0.1405  0.1994
39697W        W82688  16.483   8.020  29.177  0.3267  0.1234  0.1016
39698W        W82689  30.209  12.941   0.038  0.1318  0.1454 -0.1744
39699W        W82690  17.711   3.520  28.764  0.0150  0.0344  0.2191
39700W        W82691  11.633  13.683  17.849 -0.2436  0.4029 -0.4053
39701W        W82692  17.348  12.793  19.168  0.0949 -0.0667 -0.1589
39702W        W82693  16.044   1.917  16.854  0.0812  0.3305  0.2285
39703W        W82694  12.748   8.132  28.597  0.0768  0.2204  0.4885
39704W        W82695  14.762   7.209  19.727  0.0980  0.0403  0.0661
39705W        W82696  19.464  31.401  18.158 -0.0427 -0.3752 -0.0795
39706W        W82697  21.395   5.881   4.252  0.0628 -0.0784  0.1288
39707W        W82698   6.191   7.177  14.561  0.0814 -0.4727 -0.1655
39708W        W82699  30.606   0.206  13.252 -0.0282  0.4440  0.0645
39709W        W82700  13.028   7.415  20.555 -0.1433 -0.1791 -0.0558
39710W        W82701   4.560  10.117  17.410  0.0439 -0.0930 -0.1882
39711W        W82702  12.055  34.579  22.704  0.2166  0.1302  0.1669
39712W        W82703   4.914   2.594   8.763 -0.1971 -0.4340  0.0899
39713W        W82704  12.749   4.866  22.434 -0.2188 -0.0759  0.5332
39714W        W82705  16.110  15.068   1.573 -0.0840 -0.1035  0.0905
39715W        W82706  15.001  11.043  28.155  0.3017  0.3554 -0.3761
39716W        W82707   1.975  19.722  19.768 -0.0446 -0.1326 -0.1409
39717W        W82708   5.500  12.910  19.542  0.1584  0.0954  0.3130
39718W        W82709  13.267  30.933  21.191 -0.2429  0.4630 -0.1712
39719W        W82710   9.770  11.469  14.638  0.0857 -0.0172 -0.2241
39720W        W82711  30.276   2.600  18.621  0.0658  0.1585 -0.1447
39721W        W82712  13.444   3.733  27.833 -0.2683 -0.2206 -0.1858
39722W        W82713  32.066  22.670   5.211  0.4330  0.4037 -0.1631
39723W        W82714   3.976   8.584  25.260  0.1562  0.1865  0.1905
39724W        W82715   2.022  31.162  28.989  0.1484 -0.1120 -0.0440
39725W        W82716   4.418   0.398  19.915  0.0935 -0.1542 -0.0412
39726W        W82717  18.193  14.199  24.264 -0.0104 -0.1197 -0.0119
39727W        W82718   4.452   4.089  17.110  0.3577  0.2605  0.2551
39728W        W82719  12.039   6.950  25.891  0.1376 -0.1307  0.0188
39729W        W82720  12.982  28.066  20.564  0.0344  0.1901 -0.1297
39730W        W82721  11.922  24.067  24.299  0.1756 -0.1079 -0.2406
39731W        W82722  22.863   6.678   0.253  0.1272  0.3930  0.2971
39732W        W82723   5.477  11.639  28.974  0.1823  0.2794 -0.0796
39733W        W82724   4.782  11.581  19.470  0.0472 -0.1609 -0.2098
39734W        W82725   3.520   3.335  25.004  0.0212 -0.1833  0.1047
39735W        W82726  10.442  15.306  19.356  0.4844  0.0828  0.3861
39736W        W82727  29.218  28.165  18.029 -0.0457  0.1572  0.0065
39737W        W82728  14.789  20.934  18.451  0.0517  0.2593  0.2900
39738W        W82729   5.468  31.767  25.058  0.0146 -0.0910  0.1268
39739W        W82730   3.953  21.550  21.118 -0.1085 -0.3535 -0.0579
39740W        W82731  17.750  33.806  14.878 -0.0225  0.1986  0.2461
39741W        W82732  21.764  12.275   5.524 -0.4055 -0.0444  0.0167
39742W        W82733   7.256  10.618  16.236 -0.1772  0.3475 -0.1754
39743W        W82734   1.217  12.726  20.649  0.0132 -0.0433  0.0975
39744W        W82735  17.890   9.286   2.057  0.0913 -0.0449  0.2113
39745W        W82736  32.207   8.653  18.602 -0.1161  0.2534  0.2176
39746W        W82737  11.982   1.169  14.644  0.1090  0.4117  0.1013
39747W        W82738  27.615  17.542  18.126  0.0719 -0.2743 -0.0292
39748W        W82739  26.385  12.270   1.068  0.2741  0.1649 -0.0188
39749W        W82740   4.907  13.232  16.055  0.2020  0.1613  0.0391
39750W        W82741  19.064  13.793  26.892  0.0354  0.0677  0.1866
39751W        W82742  32.447   6.396  23.932  0.2898 -0.1681 -0.1570
39752W        W82743  34.576  12.118  19.357  0.1041 -0.0131 -0.1404
39753W        W82744  18.608  18.842  14.071 -0.0286  0.0695 -0.0818
39754W        W82745   8.176   9.934   4.842 -0.0770 -0.0768 -0.0758
39755W        W82746  20.027   6.005  18.755 -0.0854  0.1530 -0.4009
39756W        W82747  20.125  31.010  22.712 -0.0209  0.0119 -0.1838
39757W        W82748  23.487  22.650  23.829  0.1301 -0.1233  0.3001
39758W        W82749  14.082   0.007  17.135  0.1132 -0.0420  0.2001
39759W        W82750  11.079  15.640  20.226  0.2609 -0.2140 -0.0438
39760W        W82751   3.926  17.321  26.858 -0.0323  0.0579  0.0457
39761W        W82752  14.386   6.773  20.919  0.0856  0.0460  0.0709
39762W        W82753  34.569   7.625  20.835  0.0046  0.3355 -0.4587
39763W        W82754  18.582   5.759  22.290  0.0223  0.3542 -0.0147
39764W        W82755  17.664   3.408  22.346  0.0358 -0.0536 -0.2021
39765W        W82756  17.759  10.364  23.752  0.1730  0.0727 -0.1310
39766W        W82757  17.876  17.466  24.038 -0.0322 -0.0442 -0.1316
39767W        W82758  19.881   1.086  20.590  0.1265  0.2169  0.2982
39768W        W82759   8.419  32.866  15.161 -0.2558 -0.3909  0.0804
39769W        W82760  10.480  30.393  15.130 -0.2348 -0.0482 -0.0490
39770W        W82761  31.744  21.105  18.923  0.3300  0.2463 -0.0361
39771W        W82762  24.197  23.402  18.211  0.0266  0.1248 -0.0229
39772W        W82763  28.047  11.633  19.200 -0.1312 -0.2622 -0.0201
39773W        W82764  18.114  16.380  12.614 -0.0944  0.1145 -0.0226
39774W        W82765   8.278   5.111  17.222 -0.1671 -0.1525  0.0315
39775W        W82766  22.272   8.216  14.153 -0.1750 -0.0290  0.1132
39776W        W82767  27.823  10.767  16.734 -0.0745 -0.0868  0.0992
39777W        W82768   0.073  11.286  27.174  0.0401  0.0848 -0.3653
39778W        W82769   7.185  19.634  21.114  0.0096  0.1641 -0.2179
39779W        W82770   2.681   6.410  28.554 -0.0274 -0.0582 -0.3458
39780W        W82771  16.039  26.643  20.196 -0.2168 -0.0434 -0.3756
39781W        W82772  33.888  10.475  24.651 -0.0417 -0.0074  0.1041
39782W        W82773   9.487  34.472  26.815  0.0528 -0.0605  0.0431
39783W        W82774  10.504   6.491  25.987 -0.1327 -0.0615  0.2445
39784W        W82775  17.515  15.530  25.912  0.1555 -0.0736 -0.2674
39785W        W82776   9.548  30.648  17.993 -0.1058  0.0663 -0.2425
39786W        W82777  20.189  30.638  22.473  0.0037  0.0136  0.1366
39787W        W82778  13.153  11.853  18.875 -0.2955 -0.0363  0.1899
39788W        W82779   8.734   3.326  24.508 -0.1009  0.0151 -0.1971
39789W        W82780  11.057  19.139  18.339 -0.2070 -0.1021  0.0089
39790W        W82781  14.227  27.406  14.915  0.2699 -0.0930  0.2639
39791W        W82782   5.854  18.052   7.957  0.0678 -0.3245 -0.1239
39792W        W82783  15.924  29.843  26.052  0.0297 -0.2313  0.1498
39793W        W82784   6.483   7.538   5.659  0.1816  0.1727 -0.2261
39794W        W82785   8.974   6.766  26.930  0.2752 -0.0229 -0.1568
39795W        W82786  22.298  18.478  14.548 -0.3573 -0.0754 -0.1450
39796W        W82787  24.118   7.789   0.934  0.0809  0.1490  0.0612
39797W        W82788  13.642   1.742  18.216 -0.1535 -0.0507  0.4787
39798W        W82789  11.714   1.688  20.241 -0.0426  0.0916 -0.0694
39799W        W82790  20.063   4.149  17.617  0.1672  0.2068 -0.1525
39800W        W82791  21.282  10.522  15.914 -0.1600 -0.1389  0.0581
39801W        W82792   7.533  16.520   9.142 -0.1979  0.0260 -0.1121
39802W        W82793  23.218  12.799  14.799 -0.3006  0.1105  0.0847
39803W        W82794   1.215   7.750  22.654  0.0412 -0.1765  0.0310
39804W        W82795   7.624  28.498  19.269  0.1502  0.0021 -0.2331
39805W        W82796  15.151   9.340  19.362 -0.0675  0.3054 -0.1229
39806W        W82797  31.628  22.037  15.943 -0.0449 -0.0143  0.0062
39807W        W82798  25.428  29.007  15.461 -0.0999  0.2324  0.0265
39808W        W82799   2.083   8.805  18.385 -0.1237 -0.1776 -0.0944
39809W        W82800  34.360  17.174  16.530 -0.0450  0.1444  0.1429
39810W        W82801   6.737  33.463  19.638 -0.0809 -0.1331  0.0184
39811W        W82802  24.958  28.781   4.371 -0.0786 -0.0385 -0.2218
39812W        W82803  19.604  15.709  13.466 -0.2140 -0.1884 -0.0789
39813W        W82804  15.064   2.908   3.255 -0.2893  0.4531  0.0866
39814W        W82805  12.787  10.251  23.378  0.1413 -0.1498 -0.0269
39815W        W82806   6.728   5.960   4.581 -0.0678 -0.2330  0.1400
39816W        W82807  18.031   5.193  17.579 -0.4345  0.1021 -0.0326
39817W        W82808   3.167  15.712   0.630  0.1522  0.1350 -0.0932
39818W        W82809  18.253   9.905  20.565  0.0543  0.0542 -0.3080
39819W        W82810  15.497  12.062  15.289  0.1086  0.0308  0.1689
39820W        W82811   2.456  14.520   4.727 -0.0948 -0.1356  0.1634
39821W        W82812  19.885  23.639  26.658 -0.2107 -0.1252 -0.2049
39822W        W82813  34.461   7.127  24.789  0.2426  0.0453  0.1203
39823W        W82814   0.398   9.634  24.999 -0.0405  0.2616  0.1731
39824W        W82815   0.738  10.782  22.728  0.0058  0.1663  0.0988
39825W        W82816  12.336   3.486  15.911  0.4511 -0.4047 -0.2531
39826W        W82817  10.408  33.973  18.198 -0.1357  0.1578 -0.4571
39827W        W82818   3.227  11.624  19.816  0.0401 -0.2380  0.0601
39828W        W82819  11.845   8.289  26.138 -0.1993  0.1493  0.1069
39829W        W82820   6.640   2.647  28.903 -0.1438  0.3169  0.6700
39830W        W82821  12.488   7.339  17.198  0.0570 -0.0555  0.1588
39831W        W82822  16.303  30.219   5.641 -0.1992  0.1376 -0.1287
39832W        W82823  10.050  21.743  15.180  0.0287 -0.2121  0.1001
39833W        W82824   9.172   7.185  18.876  0.0580  0.1078 -0.1064
39834W        W82825   6.790  10.460  25.931  0.2174  0.0760  0.2326
39835W        W82826   1.516  11.325   7.030  0.3334 -0.2444  0.0750
39836W        W82827  15.773   4.094  19.140 -0.2685  0.2609  0.0494
39837W        W82828  23.142  25.235  21.007 -0.2151 -0.1974 -0.0238
39838W        W82829  13.341  25.135  17.850 -0.0675 -0.0706 -0.1140
39839W        W82830  13.032  25.029  24.627 -0.2092  0.1944  0.2550
39840W        W82831   1.132   1.229  15.956 -0.0124  0.2732  0.0704
39841W        W82832  17.439   0.842  19.286  0.3381  0.4658 -0.2040
39842W        W82833  10.480  19.128  26.049  0.2117  0.0993 -0.0697
39843W        W82834   7.033  18.527  28.845  0.2559 -0.1985  0.2009
39844W        W82835  18.189   7.483  25.627 -0.1287 -0.3789  0.3845
39845W        W82836  19.350   3.030   3.536  0.0553  0.2183 -0.4416
39846W        W82837  30.536   0.907  16.354  0.2809  0.1452  0.0805
39847W        W82838   0.556  12.247  26.128  0.0893 -0.0520 -0.0551
39848W        W82839  19.030  32.099  18.515  0.0113 -0.0939 -0.0723
39849W        W82840  17.091  17.521   4.392  0.0852  0.0480  0.0810
39850W        W82841  10.879  29.003   0.399 -0.1111 -0.1271  0.0140
39851W        W82842  11.587  14.706  19.337  0.1472 -0.0496  0.1622
39852W        W82843   1.935  11.244  26.966  0.1351 -0.0430  0.4192
39853W        W82844  17.831   0.034  21.854  0.0811  0.1771  0.2812
39854W        W82845  14.695   5.770   2.560 -0.0615 -0.2661 -0.1511
39855W        W82846   6.793  29.727   2.791 -0.0198 -0.1399  0.1307
39856W        W82847  10.465   9.289  17.985 -0.4056  0.0934 -0.2441
39857W        W82848  30.415  20.940  17.724 -0.1043  0.0476  0.1424
39858W        W82849  18.629  26.364  16.361 -0.1557  0.0243 -0.2207
39859W        W82850  20.397  18.881  13.088  0.2682 -0.2351 -0.1888
39860W        W82851  23.232  15.845   4.475 -0.2679  0.2589 -0.1163
39861W        W82852  14.150  30.742  15.355 -0.1902 -0.0786  0.0198
39862W        W82853  27.622  13.322  22.308 -0.1434  0.0450  0.2924
39863W        W82854   4.406  25.325  25.385  0.2715 -0.2962 -0.0513
39864W        W82855  26.862  28.729   4.259  0.2003 -0.1239  0.0782
39865W        W82856  15.961  31.366   0.801 -0.1792 -0.2524 -0.0821
39866W        W82857   8.153  15.792   8.677 -0.2163  0.3516  0.0698
39867W        W82858  27.515  33.920  22.960  0.0882 -0.0670 -0.1920
39868W        W82859  16.897   2.445   8.738  0.0034  0.0406 -0.2603
39869W        W82860  29.115   7.986   5.844  0.0402  0.0946  0.2016
39870W        W82861   6.440  16.054   9.116 -0.2506 -0.3366  0.2959
39871W        W82862   5.036  13.596  19.038 -0.1238 -0.0490 -0.0465
39872W        W82863  21.136  33.933  14.553  0.3576 -0.0126  0.1034
39873W        W82864  17.578   5.862   3.720 -0.3649  0.5259  0.4611
39874W        W82865  21.087  11.241   9.990 -0.1389  0.1175  0.1297
39875W        W82866   3.755   8.934  10.822 -0.0351  0.4254  0.2108
39876W        W82867   3.063  26.344   0.350 -0.0773 -0.1630 -0.2370
39877W        W82868   1.403   7.433  17.654 -0.0081  0.0427 -0.0509
39878W        W82869   4.171  16.989  24.932 -0.3120  0.0727 -0.1679
39879W        W82870   0.857   6.243  15.270  0.1945  0.1274  0.3330
39880W        W82871  31.387   6.104   6.880  0.1645  0.0430  0.4332
39881W        W82872  25.811   5.607  25.872  0.1134  0.1206  0.1378
39882W        W82873  27.490   8.343  20.794 -0.1706  0.0443 -0.0952
39883W        W82874  14.796  11.185   2.604 -0.0555 -0.3859 -0.2269
39884W        W82875   2.088  22.334  19.084 -0.0352 -0.0131 -0.0218
39885W        W82876  24.497   2.010  14.950  0.1402 -0.2256 -0.2597
39886W        W82877   5.222  12.826   5.254 -0.1355 -0.1538  0.5473
39887W        W82878  21.842  13.888  28.681 -0.0246  0.2500 -0.0399
39888W        W82879  23.388  19.918  26.039  0.3340  0.0110 -0.1817
39889W        W82880  31.599   7.921  27.282  0.0732 -0.2161 -0.0196
39890W        W82881   6.548  16.472  10.383  0.0608  0.1349 -0.0537
39891W        W82882  20.998  14.125  18.668  0.1492 -0.1150  0.0382
39892W        W82883  16.812  33.963  18.587  0.0679 -0.0171 -0.0137
39893W        W82884   9.400   7.184   9.668 -0.0101  0.1282  0.0878
39894W        W82885   8.300   7.074  17.910 -0.3273 -0.0158 -0.2909
39895W        W82886  17.994  19.371  24.998  0.2946  0.4151  0.1952
39896W        W82887   8.271  21.522   3.182 -0.4071 -0.0603  0.2096
39897W        W82888  27.818   4.490  22.700  0.0819 -0.2668  0.0225
39898W        W82889  19.271  19.258  23.006  0.0882  0.1299 -0.1901
39899W        W82890  18.920   4.273  26.159  0.1336 -0.0627 -0.1872
39900W        W82891  17.882   5.506  23.656  0.1278 -0.1669  0.1164
39901W        W82892  23.132   3.245  14.250  0.0926 -0.0541 -0.2160
39902W        W82893   4.022  23.329   1.669  0.0985  0.3725  0.2577
39903W        W82894  26.318   1.220   4.185  0.1476 -0.0628 -0.2636
39904W        W82895   5.971  10.231  17.101 -0.1410 -0.0528 -0.0911
39905W        W82896  13.594  15.658  13.849 -0.4253 -0.1324 -0.3666
39906W        W82897  22.230   6.431  17.063  0.1285  0.0533 -0.3558
39907W        W82898   9.880   3.327  25.214 -0.1888 -0.0845  0.1406
39908W        W82899   5.966  12.782   8.639  0.0891  0.1369 -0.2024
39909W        W82900  21.907  21.848   1.950  0.1505 -0.1436 -0.1810
39910W        W82901  22.974   3.611  19.835 -0.3366 -0.1405  0.1593
39911W        W82902   6.377   3.722  22.152 -0.0749 -0.0353  0.2948
39912W        W82903  17.471   3.055  28.043  0.0988 -0.2565 -0.1562
39913W        W82904  25.274   3.960  23.727  0.1845  0.0284 -0.1557
39914W        W82905  12.445   2.219  28.612  0.2144  0.1175 -0.2207
39915W        W82906  31.252  30.716   0.568 -0.1261  0.0257 -0.2519
39916W        W82907  24.893  20.741   2.670 -0.0139 -0.1373 -0.1205
39917W        W82908   5.983   1.986  16.742  0.0878  0.0485 -0.1214
39918W        W82909  31.505  13.116  11.464  0.3008 -0.2301  0.3710
39919W        W82910  11.919  11.641  18.873 -0.0509  0.0414  0.1859
39920W        W82911  16.086   1.431   2.191 -0.0350  0.0874 -0.0230
39921W        W82912  13.497  33.588  28.221 -0.0973  0.0041 -0.0041
39922W        W82913  12.580   1.612  18.130  0.2104  0.1738 -0.1314
39923W        W82914  13.037  14.896  13.615 -0.0174 -0.0908  0.0297
39924W        W82915  14.806  23.362  23.357 -0.1651 -0.0934  0.2579
39925W        W82916   4.640  23.895  24.698 -0.1055 -0.1216 -0.2025
39926W        W82917   7.420  20.593   0.961  0.2008  0.0419 -0.1316
39927W        W82918  14.033  27.106  25.082  0.0255 -0.0844  0.1487
39928W        W82919  13.731   3.157   5.847  0.5777 -0.4708 -0.0237
39929W        W82920  18.291  21.550   4.322  0.0237  0.1029  0.1811
39930W        W82921  14.106  14.902   9.760 -0.2492 -0.0293  0.1607
39931W        W82922  34.518   2.937  22.981  0.2755 -0.2018 -0.1770
39932W        W82923  23.921  16.549  14.327 -0.0548 -0.2667  0.2878
39933W        W82924   2.097  10.794  25.149 -0.0102  0.0775 -0.4218
39934W        W82925   8.172  31.591   4.839  0.0762  0.0124  0.4726
39935W        W82926   8.389  33.215  17.074 -0.2093 -0.0215  0.0654
39936W        W82927   0.482  31.482  24.324  0.0940  0.3092 -0.2066
39937W        W82928  18.178  29.225  15.077 -0.0448 -0.1420 -0.0034
39938W        W82929  10.539   4.497  22.294 -0.2515 -0.0822  0.0230
39939W        W82930  33.830   9.407  15.309  0.0181 -0.4053  0.0079
39940W        W82931  20.161  28.090  27.331 -0.0496  0.0361 -0.0304
39941W        W82932   4.469  14.798  22.570 -0.0365 -0.0842  0.1147
39942W        W82933  12.719   5.687  24.838  0.0122  0.0959 -0.0988
39943W        W82934  12.938  11.783  21.261  0.4161 -0.0565  0.2613
39944W        W82935  11.511   1.437   5.028 -0.2316 -0.0241 -0.1782
39945W        W82936   1.752  23.514  19.842 -0.2552 -0.0033  0.0944
39946W        W82937   7.900  13.963  20.868 -0.2693  0.2526  0.2801
39947W        W82938  12.430  13.482   4.378  0.0359 -0.1565  0.1298
39948W        W82939  11.847  13.953  25.942 -0.1818 -0.1164 -0.0427
39949W        W82940  14.684  30.060   1.741 -0.2899  0.0457 -0.2766
39950W        W82941   7.479  31.902  15.524 -0.1689 -0.0527  0.0989
39951W        W82942  19.683   6.503   8.727 -0.0203  0.2685  0.0585
39952W        W82943   8.171  30.813  23.991  0.0136 -0.1068  0.1785
39953W        W82944   8.122  25.280  22.528  0.2314 -0.2542 -0.1622
39954W        W82945   9.017  18.470  27.263 -0.0716 -0.0013  0.2616
39955W        W82946  15.423  17.992  16.516  0.0900  0.3812 -0.1316
39956W        W82947  10.436  22.209  14.441 -0.0708  0.1000 -0.2448
39957W        W82948   1.640  26.848   3.633  0.1524  0.0961 -0.1418
39958W        W82949   1.001   5.238  15.270 -0.0825 -0.0937  0.0106
39959W        W82950   7.987  15.270  17.467  0.1807 -0.1123 -0.0572
39960W        W82951   4.524   6.243  25.104 -0.1539  0.0258  0.1417
39961W        W82952  18.694  21.423  15.555  0.0996 -0.0036 -0.2032
39962W        W82953  33.984   6.051   0.911  0.1958  0.3174 -0.1292
39963W        W82954  10.128  11.275  16.574  0.0114  0.0298  0.2067
39964W        W82955  27.683  13.954  15.777  0.2188  0.1450  0.2362
39965W        W82956   2.581   1.555   4.644  0.0923  0.1845  0.2702
39966W        W82957  34.471  28.010   0.443  0.4316  0.0704 -0.3958
39967W        W82958  12.441  33.720  23.039  0.1995  0.2264  0.1830
39968W        W82959  11.018  16.199   1.962  0.3160  0.1107 -0.3552
39969W        W82960   9.065  19.181  15.441 -0.1025  0.1676 -0.0822
39970W        W82961  33.310   6.243  24.523 -0.0937  0.0392 -0.0251
39971W        W82962   8.334   5.916  22.585  0.2607  0.0221  0.0499
39972W        W82963  10.326  21.576  22.037 -0.3231  0.1767 -0.0998
39973W        W82964  33.911  18.386  20.113  0.4815 -0.1375 -0.0990
39974W        W82965  23.492  14.654  23.830 -0.1657 -0.0178  0.0074
39975W        W82966   0.927  21.198  16.930  0.1541  0.0961  0.2710
39976W        W82967  12.710   9.763   0.255  0.0509  0.0122 -0.0587
39977W        W82968  18.793  13.978  17.214  0.0595  0.1466 -0.0513
39978W        W82969  30.255  10.520  14.764  0.0372  0.1886  0.1407
39979W        W82970  29.513   8.579  17.090 -0.2466  0.0967 -0.2269
39980W        W82971  16.687  33.401  16.546 -0.2430 -0.1363  0.2498
39981W        W82972   1.741  33.414   8.354 -0.1616  0.0681  0.1160
39982W        W82973  25.268   2.951   1.213  0.3094 -0.2090  0.0965
39983W        W82974  15.858  14.353  21.479  0.2534 -0.0813  0.2424
39984W        W82975  28.013   6.121   4.666 -0.2728  0.2620  0.3915
39985W        W82976  11.104  19.809   9.009 -0.2978 -0.5006 -0.0708
39986W        W82977  15.883   4.443  24.012  0.5072  0.2044 -0.2268
39987W        W82978   0.643   6.560  17.012 -0.1650 -0.0774 -0.1829
39988W        W82979  15.928  26.874  19.134 -0.0016 -0.2149  0.2210
39989W        W82980   3.791  23.454  16.197  0.1765 -0.3667  0.0909
39990W        W82981   3.954   3.695  23.684  0.3037 -0.0281  0.0567
39991W        W82982  22.822   2.688  28.413 -0.0725  0.3194  0.1590
39992W        W82983  23.422   0.399  16.549 -0.0521  0.1930 -0.0135
39993W        W82984   5.448   5.491  16.344  0.0049 -0.0070 -0.2013
39994W        W82985  12.464  25.004  21.047 -0.0986 -0.1826 -0.0785
39995W        W82986  10.248  21.624  16.978 -0.3607  0.0213 -0.0435
39996W        W82987  18.022  29.782   2.662 -0.0107 -0.0636 -0.0035
39997W        W82988  25.410  27.664   0.176  0.2169 -0.2818 -0.1940
39998W        W82989   4.434  16.702  24.572  0.1932  0.0952  0.0782
39999W        W82990  15.342  17.667  26.140 -0.2507 -0.1350  0.0018
40000W        W82991  27.186  14.359  27.075 -0.2496 -0.1766 -0.0955
40001W        W82992   7.449   5.551  18.934 -0.1416 -0.0682 -0.0801
40002W        W82993  16.088  11.511  19.570 -0.0908  0.0100 -0.2853
40003W        W82994  22.196   2.431   2.121  0.1556 -0.1132 -0.0328
40004W        W82995  25.270  20.811  28.338  0.1218 -0.2986  0.1368
40005W        W82996   8.483   1.374  25.324 -0.0178 -0.2382 -0.1380
40006W        W82997  10.989  14.382  18.103  0.2804 -0.0902  0.1002
40007W        W82998   6.643  33.167  20.056  0.0787 -0.0754  0.0428
40008W        W82999   1.199  22.997   3.927  0.0028 -0.1038  0.0811
40009W        W83000  12.944  10.726   0.906  0.2425 -0.0231  0.1532
40010W        W83001   4.770   4.218   1.061  0.1158  0.1562 -0.0914
40011W        W83002  21.205  10.641  24.969 -0.1460  0.2839  0.0110
40012W        W83003  21.951   7.608   0.691 -0.0067  0.1623 -0.2188
40013W        W83004  21.746  32.929  23.516  0.3877  0.2985  0.1754
40014W        W83005  20.605  32.764  18.942  0.0770  0.0863 -0.3800
40015W        W83006  12.642  25.211  16.549 -0.0559 -0.0078 -0.4158
40016W        W83007   4.043   5.029   4.127 -0.3668  0.1775 -0.0581
40017W        W83008   0.123   1.583  28.363  0.2235 -0.3769 -0.0400
40018W        W83009   9.595  11.844  23.152  0.0756  0.0866  0.1317
40019W        W83010  17.617  18.618  24.415 -0.1076  0.1768 -0.1181
40020W        W83011   1.177   9.024   1.481  0.0060 -0.4052 -0.0437
40021W        W83012   5.763  14.153  16.479  0.2057  0.0925 -0.1932
40022W        W83013  28.672   2.729  28.437 -0.0421  0.1734  0.3944
40023W        W83014   5.770  12.648   8.168  0.0526 -0.1747  0.1093
40024W        W83015   2.446   7.339  28.196 -0.0887  0.1559 -0.0031
40025W        W83016   7.875  25.548   3.308  0.2530 -0.0194  0.3081
40026W        W83017  25.981  20.356   1.598 -0.4238  0.1375 -0.0082
40027W        W83018   5.418  20.268  18.356  0.0215  0.0710  0.1853
40028W        W83019  23.160   3.786  14.196 -0.0479  0.0034 -0.0960
40029W        W83020  17.584  11.009  24.795 -0.1351 -0.0649 -0.1992
40030W        W83021   2.524  30.802  28.781  0.2483 -0.2176  0.3802
40031W        W83022   6.602  20.337   9.896  0.0904  0.2183  0.2309
40032W        W83023   2.622   6.951  28.482 -0.2314  0.1299 -0.1632
40033W        W83024  13.591  11.723  25.979  0.1611 -0.1546  0.0123
40034W        W83025  16.277  30.665  13.723  0.0127  0.0485  0.1058
40035W        W83026   5.567  11.806  19.233 -0.1510 -0.0943 -0.1445
40036W        W83027   4.031  25.560   5.529  0.2978 -0.0457  0.1627
40037W        W83028   1.382  23.658  18.242 -0.2692  0.2884 -0.0389
40038W        W83029  16.825  31.757  18.098 -0.2035  0.1297 -0.2518
40039W        W83030  31.136   6.045  15.291  0.1945  0.1626 -0.1119
40040W        W83031  10.192   1.856  28.590 -0.1345  0.1055  0.0310
40041W        W83032  12.722  28.681   1.774 -0.0658  0.0477 -0.3202
40042W        W83033  13.618  14.245  13.507 -0.0870  0.1127 -0.0970
40043W        W83034  24.498  11.326   9.153  0.0435 -0.1981  0.0872
40044W        W83035  32.773   9.289   7.920  0.2455  0.0800  0.1976
40045W        W83036   6.390  17.457  21.273 -0.0592  0.0902  0.2479
40046W        W83037  13.864  10.016  28.850  0.1599  0.1850 -0.1640
40047W        W83038  13.420   1.188  26.837  0.0363  0.0289  0.0999
40048W        W83039  11.079  17.105  20.114  0.0222 -0.1500  0.2193
40049W        W83040   0.139  24.840   5.546 -0.0767  0.0038  0.1674
40050W        W83041  33.201  18.252  24.837 -0.1101 -0.1140  0.0707
40051W        W83042  19.060   0.246  25.956  0.3889 -0.0852 -0.4090
40052W        W83043   2.893   5.041  19.928  0.1016  0.0279  0.4892
40053W        W83044  33.351  32.670  27.610 -0.0796  0.2161  0.0469
40054W        W83045  15.550  25.208   5.803 -0.2071 -0.1601 -0.4306
40055W        W83046  18.723   1.813  28.985  0.1957  0.0637  0.0026
40056W        W83047  12.333  11.786  28.143 -0.1605  0.0753  0.0744
40057W        W83048  24.063  34.580  18.138  0.0968 -0.1921  0.0704
40058W        W83049   1.946   1.938  24.073 -0.0469  0.3630  0.1901
40059W        W83050  13.079  10.686  23.808  0.1308 -0.2304  0.0519
40060W        W83051   8.121   2.194  23.841  0.1522  0.0930 -0.0192
40061W        W83052   8.128   2.321  28.580 -0.1633 -0.1479 -0.0639
40062W        W83053   7.519   6.012  20.678 -0.1171  0.0402 -0.2360
40063W        W83054  18.572  26.723   6.887  0.0568 -0.0148 -0.2973
40064W        W83055   3.289  31.675  18.581 -0.1909 -0.2341  0.1761
40065W        W83056  10.502  24.535  22.383  0.1650 -0.1090 -0.3342
40066W        W83057  16.377   7.978   4.417 -0.0662  0.1275 -0.0678
40067W        W83058  20.427  14.753   9.223  0.1076  0.0209 -0.1653
40068W        W83059   5.976  13.871   1.629 -0.0188 -0.0301  0.1947
40069W        W83060   1.411  19.943  28.559  0.0599  0.6370 -0.0096
40070W        W83061  32.352   5.378  27.431  0.2159  0.1222 -0.0868
40071W        W83062  20.567   3.384  18.340 -0.1167  0.0379 -0.2950
40072W        W83063  27.049  14.565   0.717  0.0777  0.1982 -0.0122
40073W        W83064  25.365   7.747   1.242  0.0586  0.0099 -0.0133
40074W        W83065  12.206  29.355  14.174  0.0183  0.0564 -0.1207
40075W        W83066   4.621   3.379  28.019 -0.3794  0.0687  0.0206
40076W        W83067  11.824  14.211   4.640  0.1210 -0.0920 -0.2047
40077W        W83068  18.013  11.737  20.184 -0.2672  0.1555 -0.0590
40078W        W83069   4.835  14.203  16.743 -0.0181 -0.0901  0.0716
40079W        W83070  20.179  30.677  18.956 -0.3200  0.0806  0.1124
40080W        W83071   1.806  15.981  19.150 -0.1106  0.1635 -0.1279
40081W        W83072  34.392  11.315  20.094  0.3497 -0.2048  0.1957
40082W        W83073   0.720  14.493  21.007  0.1171 -0.0331  0.2869
40083W        W83074   6.091   9.214  24.900  0.3125 -0.0551 -0.1361
40084W        W83075  15.972  11.532   0.185  0.2138 -0.1916 -0.3197
40085W        W83076  19.006   0.711  16.878  0.1868  0.1545  0.0063
40086W        W83077  34.034  17.696  29.089  0.0537  0.2169  0.1533
40087W        W83078  17.552  13.491  14.273 -0.0102 -0.1639 -0.0529
40088W        W83079  29.477   6.640  27.061 -0.0823 -0.0006 -0.0213
40089W        W83080  33.112  32.485  24.141 -0.0261  0.1577  0.1631
40090W        W83081  13.220   9.685  26.253  0.0474 -0.0106  0.0898
40091W        W83082  20.187   9.325   2.282  0.2103  0.0075  0.1433
40092W        W83083  11.742   8.023  19.256  0.0945  0.1044  0.0902
40093W        W83084  10.552  20.642   4.872 -0.0708  0.0250  0.1893
40094W        W83085   5.079   7.387   4.979 -0.0836  0.1582 -0.3241
40095W        W83086   4.372  33.166  22.487 -0.1138 -0.1680 -0.0548
40096W        W83087  16.261   7.128  25.799 -0.1250 -0.0755  0.1282
40097W        W83088   7.770  32.156  24.298  0.2341  0.3059 -0.1941
40098W        W83089   1.972  33.961  18.848 -0.4184 -0.1100 -0.1789
40099W        W83090  18.530   1.748  22.344 -0.1460  0.1575  0.0083
40100W        W83091   1.909  17.035   0.906  0.1712  0.2970  0.0810
40101W        W83092  25.767   7.750  22.809 -0.4078 -0.2033 -0.1935
40102W        W83093   9.241  25.140   1.714 -0.2516 -0.0084 -0.0482
40103W        W83094  12.650   7.855   1.729 -0.1375 -0.0604  0.0633
40104W        W83095  15.104  32.941  17.471  0.1268  0.0039 -0.4045
40105W        W83096  31.468   6.210  23.932  0.0874 -0.3032  0.0760
40106W        W83097  27.460  17.093   0.029 -0.0303 -0.2682 -0.1594
40107W        W83098  10.702  15.612  26.249 -0.0527  0.2810 -0.5443
40108W        W83099   6.109   5.307  16.156 -0.0847  0.1986  0.1743
40109W        W83100   9.560   3.507  25.633 -0.1184 -0.3009 -0.1927
40110W        W83101  13.844  17.909   9.007  0.0976  0.1374 -0.0979
40111W        W83102   3.687  11.684  19.109  0.1980 -0.4453 -0.1412
40112W        W83103  25.523  29.727  24.809  0.0868  0.1485 -0.2543
40113W        W83104   0.532   9.640  15.985  0.0468 -0.2543  0.0656
40114W        W83105  10.364  15.231   0.636 -0.0788 -0.0288 -0.0088
40115W        W83106  25.025  19.156  17.185 -0.1508 -0.1893  0.0859
40116W        W83107  10.015  18.101   9.295  0.0647  0.0572  0.1101
40117W        W83108   7.809  18.451  23.269 -0.2358  0.0934  0.2437
40118W        W83109  16.331  20.041  23.251  0.0160 -0.0158 -0.0351
40119W        W83110  26.312   2.800  23.154 -0.0551 -0.2658  0.4426
40120W        W83111  21.632  29.461  24.111 -0.0668 -0.0720 -0.1683
40121W        W83112  11.941  19.668  17.808  0.3118  0.0902 -0.2329
40122W        W83113   1.957  12.015  23.052  0.3133  0.0530 -0.1455
40123W        W83114  28.888  10.432   2.023  0.0366  0.2091  0.0394
40124W        W83115   7.872  10.070   1.736  0.2518  0.2954 -0.4094
40125W        W83116  19.741  30.045  17.263 -0.1870  0.1239  0.3778
40126W        W83117   4.293  15.022  26.796 -0.0110  0.0516  0.1215
40127W        W83118   8.958   9.746   4.284 -0.0531 -0.0719 -0.3154
40128W        W83119  26.393  34.607  28.333  0.0289 -0.3014 -0.2006
40129W        W83120  24.431  32.290   7.483 -0.0930 -0.0353  0.2916
40130W        W83121   4.036  11.324  17.593 -0.0391  0.0406 -0.1766
40131W        W83122  15.304   3.239   0.251 -0.0236 -0.5655  0.1396
40132W        W83123   1.315  19.018  24.877  0.0243 -0.3208 -0.0375
40133W        W83124  11.024   2.570   6.064 -0.1903 -0.0311  0.2014
40134W        W83125  19.053  28.099  27.569 -0.2282 -0.2668 -0.1449
40135W        W83126  11.815   2.754  26.491 -0.0749 -0.0653 -0.1305
40136W        W83127   4.744   9.294  17.044  0.1137  0.2219  0.1038
40137W        W83128   8.724   2.720  15.376 -0.0043  0.2416  0.1293
40138W        W83129   2.037   7.316  21.114 -0.1161  0.0650  0.0116
40139W        W83130  28.797  11.694  14.920 -0.1539 -0.3284 -0.0236
40140W        W83131   3.413  29.964  17.351 -0.4180 -0.0178 -0.2786
40141W        W83132  11.777   4.536   0.958  0.0981  0.1794 -0.1053
40142W        W83133  27.202  11.210  24.662 -0.2221 -0.1542  0.3238
40143W        W83134   6.030  14.494  18.494  0.1373 -0.0115 -0.0111
40144W        W83135  18.180   4.984   5.134  0.4466  0.0666  0.1144
40145W        W83136   0.362   1.316   6.407  0.0369  0.1476 -0.0435
40146W        W83137  24.173  11.226   1.812 -0.1310 -0.2572  0.1448
40147W        W83138  23.362   0.429   1.113 -0.3789 -0.2842 -0.2170
40148W        W83139   1.650   2.581  19.793 -0.0593 -0.2456 -0.1969
40149W        W83140  18.138  26.363  17.619 -0.2108  0.1193  0.2470
40150W        W83141   2.830  10.309  25.263  0.4399  0.1321 -0.0093
40151W        W83142  33.454  16.272  23.434  0.0542 -0.0710 -0.1852
40152W        W83143   3.058  34.316  17.261 -0.1171 -0.0838  0.0131
40153W        W83144  31.532  27.427  26.741 -0.1218 -0.2022 -0.2194
40154W        W83145   5.063   0.123  22.804  0.0807 -0.4108 -0.1344
40155W        W83146  10.102   7.103   6.885  0.2065  0.1548 -0.0006
40156W        W83147  33.470  28.218  23.703  0.2985 -0.0463 -0.1668
40157W        W83148  11.469  15.346  24.661  0.0967 -0.1529  0.2775
40158W        W83149   0.547  11.691  23.313 -0.1954 -0.0199  0.0953
40159W        W83150   1.949  16.195  15.940 -0.1409  0.0600  0.1042
40160W        W83151  32.134   6.371  20.371  0.3002  0.1810  0.3193
40161W        W83152   4.794   2.273  22.262 -0.0313 -0.1500 -0.1860
40162W        W83153  15.148  12.149  18.611 -0.0221 -0.0308  0.0259
40163W        W83154  16.058  18.011  13.791  0.2622  0.2991 -0.0999
40164W        W83155  13.193  10.762   8.607  0.5383 -0.4008 -0.0718
40165W        W83156   6.554  34.125   9.164  0.2141 -0.0770 -0.0402
40166W        W83157  11.204  27.893  19.895 -0.2553  0.4885 -0.0464
40167W        W83158   7.850   9.031  22.729 -0.0821 -0.0366  0.2370
40168W        W83159  18.211  32.942  20.255  0.0050 -0.0497  0.1365
40169W        W83160  11.509   7.479   7.958  0.2684 -0.1950 -0.0052
40170W        W83161  10.094   0.220  24.748 -0.1089  0.1307  0.0218
40171W        W83162  13.292   4.012   2.382  0.2265  0.4417  0.5448
40172W        W83163   0.290   2.598  21.423 -0.0568 -0.1289 -0.2886
40173W        W83164  32.826  14.505  17.557  0.0565 -0.0480 -0.0134
40174W        W83165  17.320  27.762  28.630  0.0376  0.0363 -0.2345
40175W        W83166  31.765   4.134   5.494 -0.2117  0.4382  0.2097
40176W        W83167   4.166   5.447  21.065  0.3561 -0.2336  0.1767
40177W        W83168   3.352  24.388   9.926  0.0519  0.2719  0.1314
40178W        W83169  26.024  21.317  15.163 -0.1438  0.1886  0.0478
40179W        W83170  33.767  12.280  27.615  0.3753 -0.2627 -0.3026
40180W        W83171  10.691  16.735  22.608  0.1719 -0.3065  0.2066
40181W        W83172  15.953   8.006  17.348 -0.0381  0.2880  0.2103
40182W        W83173   4.936  23.447  22.110 -0.3060  0.2831  0.1474
40183W        W83174  26.827   1.628  22.088  0.0934  0.0383 -0.2541
40184W        W83175  23.572  34.252  23.098  0.1529 -0.4554  0.1535
40185W        W83176  11.382  12.364  26.260  0.2923  0.0403 -0.0003
40186W        W83177  18.256  29.792  26.880 -0.1574  0.0164 -0.0612
40187W        W83178  27.055  21.477   2.566 -0.2361  0.1628 -0.0559
40188W        W83179  19.203  26.126  21.029  0.2208  0.0534  0.0733
40189W        W83180  29.713  23.794  23.833  0.1646  0.0105  0.1455
40190W        W83181   6.160  15.876   8.189  0.0905 -0.0565  0.0496
40191W        W83182   9.769  18.962  16.683  0.1352 -0.3273 -0.2327
40192W        W83183   6.344   5.805   2.491 -0.2361 -0.0564 -0.1726
40193W        W83184  22.316   1.543   8.893 -0.1321 -0.2347 -0.0768
40194W        W83185  14.547   6.048  10.164  0.1224 -0.0652  0.1292
40195W        W83186  15.824  21.349  12.929 -0.3171  0.0004 -0.0740
40196W        W83187  10.663  17.315  25.858  0.1769  0.1992 -0.4068
40197W        W83188  14.506  28.624  17.669 -0.2045 -0.1837 -0.0113
40198W        W83189   6.244  32.817   9.476  0.1278 -0.0063  0.1066
40199W        W83190  29.488  16.525  25.170  0.0454  0.0083 -0.2278
40200W        W83191  17.585  29.630   9.971  0.2451  0.0792 -0.0057
40201W        W83192   4.404  19.764  17.412 -0.1731 -0.0545  0.0486
40202W        W83193  14.604   0.805  17.039 -0.0284  0.1403 -0.2351
40203W        W83194   3.267  21.676  22.478 -0.0648 -0.1244  0.2271
40204W        W83195  22.393  20.323  24.832  0.1197  0.1201  0.1332
40205W        W83196   2.229   7.362  22.152 -0.0922 -0.0899  0.1562
40206W        W83197  32.918  12.804  23.902 -0.1046  0.1974 -0.5477
40207W        W83198   1.184   8.846  21.424  0.0567 -0.1063 -0.0198
40208W        W83199   9.168  19.009  22.034  0.3107 -0.2556 -0.0845
40209W        W83200  29.602   6.200  25.873  0.0732  0.2359  0.0127
40210W        W83201  12.285  12.045  17.597  0.1758 -0.2697  0.2505
40211W        W83202  31.967  30.410  23.524 -0.0694 -0.0661 -0.2083
40212W        W83203   4.870  27.391  19.698  0.0266 -0.1866  0.0255
40213W        W83204  22.027   1.843  18.840 -0.0662 -0.1337 -0.2537
40214W        W83205   8.390   4.314  24.468  0.1530 -0.4185  0.0215
40215W        W83206  15.318  26.228   1.166 -0.1192 -0.1436 -0.5440
40216W        W83207  10.682   8.242  25.567 -0.0359  0.0691 -0.2179
40217W        W83208  18.511  14.061   4.936  0.2773 -0.0087  0.0482
40218W        W83209  21.201   5.962  20.866 -0.2616 -0.2342  0.0067
40219W        W83210  13.492   5.024  21.311 -0.2024  0.1553  0.1395
40220W        W83211  11.283  20.846  17.167 -0.0860  0.3052 -0.0448
40221W        W83212  26.573   5.757  19.338  0.2949  0.1270 -0.0421
40222W        W83213  30.110   3.970  25.783  0.0384 -0.1410  0.0361
40223W        W83214   5.947  14.450  22.272 -0.0308  0.2911 -0.1952
40224W        W83215   7.093  11.485  21.039 -0.1341 -0.1474  0.4097
40225W        W83216  14.916   0.091  14.864  0.0312  0.0726 -0.2066
40226W        W83217   5.801  32.651   0.121  0.2676 -0.3658 -0.1502
40227W        W83218  32.384  34.591   6.094  0.0491  0.2999  0.0425
40228W        W83219  33.484   2.559   1.675 -0.0153 -0.1202  0.1014
40229W        W83220   7.301   0.176   4.774 -0.1755  0.0699 -0.0922
40230W        W83221  20.751   8.909  22.665 -0.3135  0.0220  0.2060
40231W        W83222  12.838   5.577  22.859 -0.1406  0.1675 -0.1308
40232W        W83223  11.277  13.497  10.542  0.1572  0.2992 -0.1044
40233W        W83224  16.410  28.928   4.473  0.3318  0.0561 -0.2373
40234W        W83225  20.672  32.843  23.839 -0.0599 -0.0710  0.0951
40235W        W83226  14.503  11.797   0.583  0.2197 -0.0026  0.1643
40236W        W83227  21.573  10.439  14.466 -0.0665  0.1680 -0.1603
40237W        W83228  18.799  21.530  13.536  0.0710 -0.1678  0.0273
40238W        W83229  19.992  31.556  22.457 -0.0834 -0.2917  0.0485
40239W        W83230  14.464   7.913   3.044 -0.1716 -0.0346  0.1665
40240W        W83231   8.393  34.205   4.359  0.2462 -0.1124 -0.1378
40241W        W83232  25.422  26.071  23.159  0.0795 -0.2809  0.1490
40242W        W83233  33.938  10.756   2.017 -0.3336  0.0813  0.0267
40243W        W83234  11.192  15.462  19.783 -0.2960  0.2097  0.0020
40244W        W83235  18.434   4.915  22.642 -0.0199  0.0180  0.0795
40245W        W83236  28.112   1.001   8.058  0.1152  0.3182 -0.0989
40246W        W83237   5.268  32.447  23.316 -0.1031 -0.0217  0.2937
40247W        W83238  19.766   3.197   3.828 -0.0470 -0.3472 -0.0082
40248W        W83239  15.801  23.007   1.862  0.0967  0.1735 -0.0926
40249W        W83240  30.001   0.457  14.773  0.3496  0.1158  0.0285
40250W        W83241   5.805  12.588  25.611 -0.0542 -0.1854  0.0280
40251W        W83242   7.818  25.374   1.006 -0.1691  0.1543 -0.0798
40252W        W83243   9.080   6.605  29.172 -0.2208 -0.1884 -0.0744
40253W        W83244  10.172  32.043   9.998 -0.2202  0.0093  0.0507
40254W        W83245   9.423   3.499  25.068 -0.3222  0.4023 -0.1449
40255W        W83246   3.914  32.670   2.011  0.1442  0.2355  0.4717
40256W        W83247   7.650   8.769  18.732 -0.1713  0.3180  0.0394
40257W        W83248   1.146   2.264  18.072  0.1778 -0.0041 -0.1421
40258W        W83249  24.295  16.126   0.594 -0.1633 -0.0256  0.0572
40259W        W83250  12.578  16.323  25.216 -0.3563 -0.0238  0.0869
40260W        W83251   6.096  27.963   3.192 -0.0748 -0.2235  0.2467
40261W        W83252  20.067  11.157  26.605 -0.4355 -0.1759  0.2218
40262W        W83253   4.502   4.252   3.656  0.0501  0.1809 -0.2112
40263W        W83254  30.394  13.099  18.035  0.1903 -0.0334  0.3184
40264W        W83255  34.093  21.722   0.347 -0.1551 -0.0445  0.0958
40265W        W83256   2.695  26.190  24.400  0.0494  0.0887  0.2612
40266W        W83257  13.063   5.162  21.160 -0.0181  0.3872 -0.1345
40267W        W83258  27.110  13.157  18.102  0.1652 -0.0281 -0.1630
40268W        W83259   6.646  22.343   9.123 -0.0333 -0.4122 -0.1166
40269W        W83260  10.340  32.593  24.062 -0.0080 -0.0584  0.2798
40270W        W83261   8.760   2.092   6.593 -0.2540  0.0092  0.2261
40271W        W83262  14.329   5.176  23.526  0.2569  0.3077  0.0727
40272W        W83263  19.429   6.328  29.064  0.3348 -0.2497  0.3051
40273W        W83264  16.316   7.710   8.146 -0.3153 -0.0860 -0.0355
40274W        W83265   7.326   3.116  19.481 -0.0220  0.2260  0.0715
40275W        W83266   0.687   4.699  28.579 -0.1066 -0.1100  0.0798
40276W        W83267   8.899  32.666  22.591 -0.1375  0.0377  0.0299
40277W        W83268   6.125  13.694  28.990  0.0018  0.1015 -0.2712
40278W        W83269  25.283  15.305  24.704  0.0346 -0.0628 -0.3933
40279W        W83270  13.493  16.701   1.820 -0.3734  0.0263  0.1001
40280W        W83271  16.093  34.602  26.504  0.0217 -0.1667  0.3465
40281W        W83272  31.608  30.845  16.084  0.0736  0.0795 -0.1292
40282W        W83273   7.992   9.481  22.617  0.1505 -0.0163 -0.0574
40283W        W83274  17.281  25.874  19.597 -0.0674  0.0756  0.1382
40284W        W83275  17.029  12.425  28.089 -0.1212  0.0445  0.2028
40285W        W83276   4.091  13.091  28.504  0.0660 -0.3459 -0.0282
40286W        W83277   4.732   1.660  26.162 -0.2060  0.0797  0.0193
40287W        W83278  15.479  34.474  21.739  0.2361 -0.0068 -0.0899
40288W        W83279  13.604  19.502  23.515 -0.1386  0.1753 -0.1153
40289W        W83280   9.465   1.897   0.427 -0.4733 -0.2748  0.3018
40290W        W83281  24.850   6.333  25.817 -0.1896 -0.1450  0.2374
40291W        W83282  25.776   3.236  20.400  0.0690  0.0806  0.3449
40292W        W83283   8.278  31.441  25.621 -0.0189 -0.1383 -0.2900
40293W        W83284   2.039  14.666  23.772 -0.1529 -0.0092 -0.2949
40294W        W83285   8.384   3.336  22.333 -0.1411 -0.1648 -0.1878
40295W        W83286   9.341   0.782  21.696  0.0602  0.0376  0.1825
40296W        W83287  23.410  33.791   4.542  0.0081 -0.1082  0.0753
40297W        W83288   4.005   5.965  26.812  0.0012 -0.3139 -0.1909
40298W        W83289   5.462   9.748   8.705 -0.0323 -0.1013  0.3240
40299W        W83290   1.417  20.981  16.948  0.3061  0.2228  0.3262
40300W        W83291  12.552   9.750  10.955  0.0271  0.3846 -0.0145
40301W        W83292  24.953  24.742  28.700  0.0746  0.0242  0.0443
40302W        W83293  16.609  33.244   3.621  0.0751  0.2568 -0.2104
40303W        W83294  27.580  27.438   1.190 -0.0952 -0.2758 -0.2509
40304W        W83295  16.955   3.894   7.606  0.0741  0.0547 -0.0217
40305W        W83296  13.274  21.628  25.073  0.2748  0.2096 -0.0293
40306W        W83297   7.159  12.426  10.590  0.0689  0.2643 -0.2281
40307W        W83298   5.927  19.226  28.357  0.1455 -0.0652  0.0729
40308W        W83299   9.340   1.353  23.582 -0.2075  0.0991 -0.1081
40309W        W83300  26.310   0.929   3.759  0.1204  0.0496 -0.0765
40310W        W83301  15.815   2.266  15.923 -0.1452  0.2055 -0.0488
40311W        W83302   7.113  24.994  25.508  0.3031  0.2964  0.1033
40312W        W83303  14.837   3.889   7.766 -0.1854  0.0777  0.0386
40313W        W83304   8.487  18.832   7.570  0.0510 -0.1069 -0.0835
40314W        W83305  14.042   0.628   4.423 -0.1396  0.1789  0.1071
40315W        W83306   5.903   6.282   9.837 -0.0702 -0.1356  0.0910
40316W        W83307   6.459  16.248   6.274 -0.0663 -0.1917  0.0349
40317W        W83308   6.084   0.351  24.171 -0.0941 -0.1434  0.0318
40318W        W83309  19.894   6.580  23.884  0.0337  0.0029  0.0017
40319W        W83310  17.582   9.386  21.188  0.1294 -0.1712 -0.0746
40320W        W83311   3.094  29.739  29.071 -0.5776 -0.0347  0.0208
40321W        W83312  20.524  31.248  16.339 -0.1484 -0.0638 -0.0442
40322W        W83313   5.512  33.135   3.596  0.0874 -0.0332  0.2092
40323W        W83314  25.078  23.857   5.534  0.0365 -0.1998 -0.2264
40324W        W83315   8.605  18.369  23.106 -0.0075 -0.3715 -0.0201
40325W        W83316  31.638  10.021  23.571  0.1102  0.1515 -0.2128
40326W        W83317   4.071  11.304   9.477  0.0666 -0.0737  0.0027
40327W        W83318  31.858  30.312   1.537  0.1001  0.1236  0.0289
40328W        W83319   6.875  19.097  10.586 -0.0736  0.3549 -0.1708
40329W        W83320   6.523  18.796  25.589 -0.3138  0.1806 -0.1898
40330W        W83321  16.398  14.799   3.225  0.3845  0.4706 -0.1878
40331W        W83322  15.741  25.779   5.257  0.1299  0.0424 -0.1137
40332W        W83323   0.735  10.902  17.681 -0.0961  0.0575 -0.2186
40333W        W83324   0.182  10.692   1.966  0.2628 -0.2562  0.1876
40334W        W83325   2.404  15.086  22.745 -0.1278  0.0852 -0.2895
40335W        W83326  13.538  33.958  17.206  0.3037 -0.2362 -0.0522
40336W        W83327  10.777  15.329  18.215 -0.1257 -0.0894 -0.2290
40337W        W83328   7.178  17.572   5.803  0.1218  0.1616  0.3078
40338W        W83329  31.450  10.926  17.703 -0.3039 -0.2734 -0.3849
40339W        W83330   7.475  14.033   7.569  0.2535 -0.3372 -0.0617
40340W        W83331   6.088  32.384  28.141 -0.0948 -0.1124  0.1527
40341W        W83332  17.813  11.762   2.715  0.0099  0.0129 -0.3646
40342W        W83333  11.743  24.225  16.189  0.2242  0.1834  0.0784
40343W        W83334  22.170   1.072  24.186  0.1319 -0.3029 -0.1310
40344W        W83335   1.691   9.060   8.832 -0.1024 -0.1798  0.1855
40345W        W83336  11.814   4.993  17.128 -0.1661  0.1538 -0.0500
40346W        W83337  18.452  21.994   0.083 -0.0555 -0.2106 -0.1230
40347W        W83338  34.234  11.812  22.210  0.0098 -0.0371  0.2487
40348W        W83339  33.815  23.585  21.197 -0.0978  0.2667 -0.1617
40349W        W83340  13.491  18.243  12.332 -0.1351  0.5320  0.2258
40350W        W83341   3.917   7.763   6.626 -0.0746  0.0082  0.1104
40351W        W83342  34.085  31.567  19.833 -0.2296 -0.2401  0.0365
40352W        W83343  17.625  15.631  14.489  0.1502 -0.2854  0.0039
40353W        W83344   0.058   0.095  27.607  0.0933 -0.0401  0.1250
40354W        W83345  13.854  13.769   5.487 -0.1421 -0.1504 -0.0872
40355W        W83346  17.181  31.455   8.827  0.1926 -0.0803  0.2841
40356W        W83347  24.741  14.605  23.737  0.2246  0.1802  0.0695
40357W        W83348  20.928   4.854  16.785 -0.2061 -0.0215 -0.1558
40358W        W83349   5.499   4.917  21.341 -0.2646  0.0198  0.1555
40359W        W83350  11.055   3.628   9.119  0.0995  0.0489 -0.1744
40360W        W83351  33.742   6.135  16.467  0.1805  0.2176  0.0318
40361W        W83352  24.732  29.181  19.660  0.2218  0.3098  0.0590
40362W        W83353   4.264   3.250   4.734 -0.2689 -0.0580 -0.0776
40363W        W83354  10.572   1.752   6.895 -0.0278  0.1064  0.1271
40364W        W83355  17.720   2.572  16.098 -0.0362 -0.2959  0.2960
40365W        W83356  11.267   7.141   2.080 -0.0978 -0.2647  0.1878
40366W        W83357   2.006  13.882   2.996 -0.1263  0.1156  0.0850
40367W        W83358   9.309  19.809  16.282 -0.0324 -0.1232 -0.1184
40368W        W83359  10.761  13.165  16.315 -0.1479 -0.2200 -0.0482
40369W        W83360  12.328   1.072   4.696 -0.0403 -0.2241 -0.0073
40370W        W83361   3.058  18.706   9.664 -0.1441 -0.0371 -0.0737
40371W        W83362  24.030  12.857   6.216  0.2188 -0.5699 -0.0358
40372W        W83363   7.806  19.576  20.506  0.1351 -0.1672  0.2469
40373W        W83364  26.836   0.656  27.093 -0.1789  0.0276  0.0228
40374W        W83365  11.305  31.534  15.703  0.2132 -0.0406  0.3226
40375W        W83366   2.234  19.106  17.050  0.1057 -0.2962  0.0694
40376W        W83367   5.771  24.291  28.316 -0.1007  0.1650 -0.1265
40377W        W83368  13.878   0.265  20.676  0.1717 -0.2222  0.1086
40378W        W83369  15.896  25.864  20.567  0.0769  0.0819 -0.0481
40379W        W83370  11.060  28.381  24.906  0.1948 -0.0905  0.1116
40380W        W83371   4.578  15.553   2.489  0.0317  0.0930 -0.0241
40381W        W83372  21.866  19.988  16.720 -0.0121  0.3467  0.0593
40382W        W83373  15.597   0.640  25.011 -0.1055 -0.1316 -0.1498
40383W        W83374  33.090  32.096   1.042 -0.0968 -0.1353  0.2899
40384W        W83375   9.536  16.871   5.585  0.0783 -0.1891 -0.3992
40385W        W83376   1.817   8.319  25.001 -0.2851  0.0553 -0.2153
40386W        W83377  31.191   8.828   6.035 -0.0713 -0.1979 -0.0643
40387W        W83378   0.646  18.649  21.218  0.3639  0.1755 -0.2590
40388W        W83379  23.015   7.206  29.221  0.3198 -0.0740 -0.0471
40389W        W83380  16.368  33.239   2.057  0.2918 -0.1339 -0.2915
40390W        W83381   7.360  15.763  21.021  0.0027 -0.1591  0.1266
40391W        W83382  14.260  27.835   8.170  0.0537  0.1691  0.1314
40392W        W83383  26.613  32.144  14.723  0.1148  0.2447 -0.1194
40393W        W83384  33.705   8.869  15.546  0.2292 -0.1296 -0.1694
40394W        W83385  10.204  25.091  19.333 -0.1770 -0.2157 -0.0098
40395W        W83386   9.297  22.045  18.489 -0.0692  0.2951 -0.2085
40396W        W83387  19.383   7.473  27.189 -0.1568  0.1724 -0.1635
40397W        W83388  19.446   7.887   2.645 -0.1972 -0.0070 -0.1100
40398W        W83389  13.962  16.197   2.561 -0.0688 -0.1746  0.0132
40399W        W83390  19.943   1.413  19.681 -0.1140 -0.1793 -0.0594
40400W        W83391   6.024   2.485  26.352 -0.0121  0.0864  0.0155
40401W        W83392   7.717   4.013   1.359  0.1537  0.2233  0.0106
40402W        W83393  13.311  31.610   2.124 -0.1405 -0.1694  0.1023
40403W        W83394  22.591  32.471  17.769  0.2560  0.1505 -0.0912
40404W        W83395  22.867  14.694   6.809 -0.2437 -0.1591  0.1891
40405W        W83396   1.787  11.557  24.499 -0.1165  0.0799 -0.2091
40406W        W83397  12.814   6.010  19.961 -0.0640 -0.0717 -0.0854
40407W        W83398  32.403   0.201  16.901 -0.1392 -0.1196  0.1097
40408W        W83399  19.863   8.975  15.556 -0.0519 -0.0504 -0.3680
40409W        W83400   6.202  11.250  19.492  0.1336  0.0102  0.0142
40410W        W83401   6.063   9.591  18.319 -0.2238 -0.0003 -0.2230
40411W        W83402  11.920   9.174   3.615  0.1190  0.0467 -0.1993
40412W        W83403  11.916  25.719  20.503 -0.0830  0.0945  0.2295
40413W        W83404   1.456  10.139  15.290  0.0717 -0.0864  0.1191
40414W        W83405   5.388  15.253   8.683  0.0857 -0.2361  0.0597
40415W        W83406  24.722   5.655  17.249 -0.2093 -0.2431 -0.1020
40416W        W83407  22.374   8.842  20.231  0.0414 -0.2279  0.1355
40417W        W83408   5.229  19.156  24.601  0.1066 -0.2450 -0.0329
40418W        W83409   6.658   1.244   8.273  0.3221  0.2623 -0.3020
40419W        W83410  16.223   6.969  28.127 -0.3204  0.3144 -0.2301
40420W        W83411   5.855   4.382   5.745  0.0531 -0.1146  0.0452
40421W        W83412   8.402   5.920  10.218  0.1390 -0.0418 -0.0888
40422W        W83413  27.472  18.652   8.312 -0.2718  0.1123 -0.1785
40423W        W83414  22.272   8.320  28.868 -0.2580 -0.1774  0.0747
40424W        W83415  24.327   5.947  23.621 -0.2125 -0.2601  0.0229
40425W        W83416   3.222  31.638   5.372  0.1027 -0.1698  0.3350
40426W        W83417   1.836   4.988   7.619 -0.3132  0.1800  0.3813
40427W        W83418  11.795  26.013   8.176  0.3136 -0.2334  0.0187
40428W        W83419  30.554  11.621  27.093 -0.0028 -0.3440 -0.0778
40429W        W83420   8.296  12.574  25.775  0.1719  0.1651  0.2786
40430W        W83421  20.012  13.650   1.967  0.0392  0.0361 -0.1789
40431W        W83422   7.058   0.214   5.222  0.1646  0.0211 -0.1173
40432W        W83423  13.832  24.716  25.421  0.0709 -0.1132 -0.2712
40433W        W83424   8.667  31.204  27.765  0.2691 -0.2306 -0.0566
40434W        W83425  30.965  10.664  28.421 -0.1533  0.2249 -0.0403
40435W        W83426  22.981  15.687  18.840  0.2518  0.1900  0.0238
40436W        W83427  23.903  29.121   0.645  0.0143  0.0701  0.2308
40437W        W83428  28.767  16.306  15.804  0.1049  0.0611 -0.2721
40438W        W83429  32.617   5.704  25.116 -0.3024  0.1732 -0.0470
40439W        W83430  20.922   8.067   0.424  0.0518  0.0800 -0.0007
40440W        W83431   5.360   8.632   0.105  0.1492 -0.2149  0.3063
40441W        W83432   7.468   4.712  25.924 -0.1226  0.0947  0.0434
40442W        W83433  29.472   5.365  17.530  0.2060 -0.0319  0.2534
40443W        W83434  13.188  13.615  17.339  0.5931 -0.1085  0.1635
40444W        W83435  10.889  18.940  21.208 -0.0423 -0.0350  0.2224
40445W        W83436   1.795  20.714   4.457  0.2447  0.1042 -0.1377
40446W        W83437  13.900   0.459  26.681 -0.1220  0.0970  0.2132
40447W        W83438   5.145   4.563  22.581  0.0068 -0.0252  0.1615
40448W        W83439  14.594  27.453  20.222 -0.2385  0.0132  0.0352
40449W        W83440   3.921  19.943   7.002  0.0248 -0.0455 -0.0767
40450W        W83441  15.724  13.931  26.387  0.0131 -0.0920  0.2000
40451W        W83442  10.643   5.957  16.392 -0.2503  0.0688  0.0309
40452W        W83443   7.220  12.940  10.766 -0.2600  0.4374 -0.0553
40453W        W83444  16.161   8.961   3.311  0.2801 -0.0341  0.2940
40454W        W83445  34.792   1.114  19.325  0.0712  0.2144 -0.2676
40455W        W83446  28.887   6.862   9.838 -0.2478 -0.0921 -0.2448
40456W        W83447  29.683   7.227   8.940 -0.1753 -0.2516  0.2860
40457W        W83448  33.888  22.971  17.305 -0.2449  0.0664 -0.0958
40458W        W83449  14.430   5.384   4.382 -0.0093  0.3406  0.0824
40459W        W83450  10.841   2.001  29.055 -0.2019  0.2856 -0.0846
40460W        W83451  15.648  28.725   0.229  0.4753  0.0345 -0.1708
40461W        W83452   1.962  17.229  15.569 -0.1477  0.1183 -0.0551
40462W        W83453  18.159  16.634  26.244  0.2252 -0.0775  0.0207
40463W        W83454  17.986   6.688  27.888 -0.1040 -0.1992 -0.1658
40464W        W83455  34.036  18.606  17.973 -0.2278  0.0893  0.0444
40465W        W83456  21.615  17.791  14.459  0.1746 -0.5522  0.1146
40466W        W83457   2.262  17.453  28.045  0.4476 -0.0042  0.1149
40467W        W83458  10.152   9.416  28.365  0.4241  0.2837 -0.0830
40468W        W83459   8.034  25.424  16.054 -0.0818  0.2859 -0.1740
40469W        W83460   4.116   4.055   2.398  0.3760 -0.1045  0.1208
40470W        W83461   5.757  17.473   5.136 -0.2432 -0.2327  0.1005
40471W        W83462   7.226  15.785   0.566 -0.0108  0.0417 -0.0952
40472W        W83463   5.521  16.495   8.160 -0.1619  0.1813  0.0684
40473W        W83464   3.365   7.753  24.297 -0.3501  0.1342 -0.2057
40474W        W83465  11.958  26.832   4.708 -0.1019  0.1856 -0.0166
40475W        W83466  26.019   1.448  15.059  0.0594 -0.0308 -0.1136
40476W        W83467   3.732  20.211  22.628  0.1429  0.0727  0.2463
40477W        W83468  25.769  28.154  21.842 -0.1011 -0.1599 -0.2086
40478W        W83469  16.734  32.414   1.272  0.0338  0.0478 -0.5911
40479W        W83470  30.673  16.893   2.196 -0.0400  0.1623  0.0351
40480W        W83471  17.298  27.189   7.901 -0.2312  0.0012 -0.1337
40481W        W83472   1.986  12.530  18.395  0.2008 -0.0245 -0.1839
40482W        W83473  24.755   7.105  21.218  0.2561 -0.2075 -0.1983
40483W        W83474  12.651   6.636   1.936 -0.0742 -0.3528  0.1685
40484W        W83475  28.611  14.267   1.072  0.0559 -0.0431 -0.1844
40485W        W83476   3.173   7.275   9.900 -0.4039  0.2586 -0.0379
40486W        W83477   3.087  33.068   8.989 -0.1607 -0.2254 -0.1548
40487W        W83478  31.726  17.624   0.359  0.1132 -0.2778 -0.0266
40488W        W83479  26.572   5.303  19.604 -0.1801  0.0962 -0.0888
40489W        W83480  14.941   2.593  27.314  0.1316  0.0625 -0.2786
40490W        W83481   2.744  16.893  29.111  0.2814  0.0631  0.0611
40491W        W83482  23.670  11.154   3.090 -0.1097  0.0653  0.5697
40492W        W83483  27.494  31.742  14.901  0.1352  0.0322  0.1130
40493W        W83484  30.729  13.159   0.135 -0.1366  0.2676  0.0031
40494W        W83485  14.210  17.974   8.672 -0.0509 -0.1446  0.0109
40495W        W83486  17.470   8.729  17.589 -0.1672 -0.0453 -0.1305
40496W        W83487  21.016   8.472   7.625  0.0926  0.1380 -0.1471
40497W        W83488  28.185  31.772  21.340 -0.0648  0.2312  0.1731
40498W        W83489  21.267  18.404  12.317 -0.0300  0.0597  0.2033
40499W        W83490  23.827  27.756  17.980  0.4277 -0.2153  0.0129
40500W        W83491   8.002  30.543  24.387 -0.2484  0.0539  0.2418
40501W        W83492  11.237   6.969   5.405 -0.0778 -0.0208 -0.1999
40502W        W83493  30.004  31.768   7.225  0.2809 -0.1175 -0.2422
40503W        W83494  34.461  15.492  22.252 -0.0317 -0.2529 -0.0078
40504W        W83495  30.102  13.444  24.666 -0.0415 -0.3961 -0.4096
40505W        W83496   6.906  13.320   2.136 -0.2801  0.1734  0.0046
40506W        W83497  15.185  24.451  28.159  0.1283 -0.2819 -0.2090
40507W        W83498  14.247   2.156   2.475  0.0727 -0.3664  0.1240
40508W        W83499   7.321  16.478  16.149 -0.0832  0.2078 -0.2993
40509W        W83500   4.099   7.183  26.480  0.0822  0.2617 -0.1345
40510W        W83501   0.318  10.925  11.062  0.0138 -0.0970  0.5650
40511W        W83502  12.722   7.319   1.423 -0.1177  0.2878  0.1310
40512W        W83503  10.939  17.878  23.190 -0.0872 -0.1202 -0.0567
40513W        W83504   8.619  31.880  23.274  0.1870  0.2290 -0.0066
40514W        W83505   6.946   9.954   0.715  0.0005 -0.0205 -0.4621
40515W        W83506   6.021  12.060  25.580 -0.0983  0.0552 -0.0947
40516W        W83507   3.332  18.803   0.873  0.3018  0.3742 -0.0634
40517W        W83508  14.321  13.697  13.460 -0.0027  0.3245 -0.1206
40518W        W83509  25.999  33.778   2.888  0.0217  0.1088 -0.0996
40519W        W83510   5.902   0.661   9.705  0.1972 -0.1156 -0.3880
40520W        W83511  17.710  30.640   6.419  0.1980 -0.2540 -0.0486
40521W        W83512  12.783   4.957   0.578  0.1491 -0.4047 -0.1477
40522W        W83513  17.338   9.721   1.407  0.1287 -0.0725  0.1624
40523W        W83514   3.198  17.779  25.700  0.0253  0.2501 -0.1225
40524W        W83515  34.166   7.108  22.588  0.0450  0.1179 -0.0500
40525W        W83516  23.924  16.708   3.475  0.0712  0.0414 -0.0779
40526W        W83517  22.665   7.566  27.812  0.0953  0.0937  0.1930
40527W        W83518   4.271   3.726   6.788 -0.2335  0.2147 -0.1078
40528W        W83519  31.301   0.319  24.008  0.1639 -0.2579 -0.1367
40529W        W83520   3.701   8.094   4.106  0.6176  0.0137  0.0332
40530W        W83521   2.586  28.702  23.999 -0.2703  0.1093 -0.3086
40531W        W83522  13.410   9.773  25.780  0.2029  0.0468 -0.1603
40532W        W83523  21.153  21.310  13.495  0.2829 -0.2059  0.0760
40533W        W83524   0.502  32.803  21.619  0.1759  0.1062  0.0219
40534W        W83525   6.741   4.677  20.875  0.1010  0.0581  0.2440
40535W        W83526   8.933  12.638   8.862 -0.0703 -0.2881  0.0835
40536W        W83527  28.707  18.150  24.918 -0.0968 -0.2018  0.1670
40537W        W83528   3.016   4.412   8.052 -0.0475 -0.1893  0.0668
40538W        W83529   6.470   9.093  10.517  0.0227  0.1820 -0.1607
40539W        W83530   3.166  10.370   6.546 -0.0143 -0.2453 -0.1347
40540W        W83531  27.084   3.439  26.792 -0.0714  0.2424  0.0853
40541W        W83532  15.609   4.793  27.834 -0.2335  0.0527 -0.1376
40542W        W83533  13.817  13.922  18.567 -0.0080  0.1556 -0.1184
40543W        W83534  11.827  32.533  16.953 -0.0933  0.2425  0.0675
40544W        W83535  11.751  15.821  27.716 -0.0627  0.0453  0.4558
40545W        W83536   6.002  16.583  24.967  0.0500  0.2206  0.3684
40546W        W83537  10.549  32.024   3.976 -0.2208  0.0737 -0.1183
40547W        W83538  16.869  12.422  16.341 -0.3504  0.3426  0.2035
40548W        W83539  17.804  15.623  12.529 -0.1624  0.0703  0.0594
40549W        W83540  19.846  33.472   6.758 -0.4170  0.3093  0.0289
40550W        W83541  10.758   6.364   4.731  0.0083  0.0358 -0.2527
40551W        W83542   5.267   7.389  24.944  0.3039 -0.0468  0.0566
40552W        W83543   9.030  14.693   9.997 -0.2466  0.2164  0.2717
40553W        W83544   9.235  12.227   0.601 -0.3910  0.2368  0.0419
40554W        W83545  32.687  22.835   3.283 -0.4082  0.0438 -0.0048
40555W        W83546  32.957   7.966  17.716 -0.0891 -0.2645  0.2700
40556W        W83547   2.614  25.543   5.929  0.1407  0.1000 -0.2445
40557W        W83548  23.179  32.649  13.284  0.0330  0.0405 -0.1345
40558W        W83549  25.079  10.482  29.008  0.1283 -0.2212 -0.0229
40559W        W83550  23.112   7.780  27.618 -0.0693 -0.1604 -0.1059
40560W        W83551   3.828  32.085   9.960 -0.0060  0.0463  0.1623
40561W        W83552  28.016  13.952  27.266  0.2113  0.1241 -0.1605
40562W        W83553   9.020  23.787  27.125 -0.4355 -0.0842  0.0042
40563W        W83554  18.918  27.141   4.361  0.1454 -0.1485 -0.0214
40564W        W83555   1.195   9.118  24.292 -0.0411  0.0926 -0.0737
40565W        W83556   0.959   6.689  27.054 -0.0325  0.2140 -0.3143
40566W        W83557   9.511  19.910  28.333  0.2859  0.0497 -0.0890
40567W        W83558  22.333   7.626  27.372 -0.0984 -0.1787  0.1951
40568W        W83559  20.838   4.693  23.245  0.4060  0.1524 -0.1332
40569W        W83560   2.857   7.910  24.273  0.1033  0.2142  0.1759
40570W        W83561   3.425   2.778  19.678 -0.0378 -0.1531 -0.1124
40571W        W83562   9.944   7.411  28.603 -0.2520  0.0791  0.1038
40572W        W83563  16.674  16.553  24.413 -0.1065  0.0820 -0.1166
40573W        W83564  19.122   9.237   5.725 -0.0571  0.1183  0.1030
40574W        W83565  22.826   2.780  26.944  0.2017  0.2092 -0.1085
40575W        W83566  21.030   1.078  26.072  0.0068  0.2199 -0.2554
40576W        W83567  32.823  10.735   4.247 -0.1741  0.2703 -0.1531
40577W        W83568  27.328  17.337  15.712 -0.2653  0.2012 -0.1630
40578W        W83569  13.085   6.678  15.779 -0.2016 -0.0641 -0.1969
40579W        W83570  34.710  10.675   0.965  0.1494 -0.0310 -0.0697
40580W        W83571   5.696  28.871   8.836 -0.0939  0.1897  0.0481
40581W        W83572   6.309   8.861  28.265  0.3243  0.1931 -0.0925
40582W        W83573  28.297  15.279   3.923  0.1173  0.0010  0.4733
40583W        W83574  34.297  28.476  16.833  0.2237  0.2653 -0.1003
40584W        W83575  21.565  14.113  13.070 -0.2079  0.0305  0.1836
40585W        W83576  33.540   0.697  26.485 -0.2912 -0.0568  0.0786
40586W        W83577  30.713   7.843   2.717 -0.1215  0.2718  0.1154
40587W        W83578  20.882   8.645   1.284  0.2453 -0.3864 -0.2591
40588W        W83579  23.865   3.408  26.354  0.0595 -0.0919  0.1116
40589W        W83580  11.031  13.163  20.590  0.0172 -0.0135 -0.0569
40590W        W83581   9.336   3.403  28.903 -0.0715 -0.0650  0.1594
40591W        W83582   6.296  32.207  20.759 -0.1597 -0.1453  0.0314
40592W        W83583  10.044  34.500  24.449  0.3652  0.0329 -0.3548
40593W        W83584   1.125  15.075  26.087 -0.1206  0.2700 -0.4009
40594W        W83585  21.016   3.275  23.916  0.0650 -0.0800 -0.0256
40595W        W83586  23.954   0.048  28.086 -0.0170  0.0331  0.3151
40596W        W83587  27.652   9.399   5.822 -0.0209 -0.0181 -0.1854
40597W        W83588  29.555   8.421   9.041 -0.1769  0.1762 -0.5096
40598W        W83589  19.898   6.696  27.814  0.2077 -0.0779  0.2425
40599W        W83590   4.663  12.281  18.144 -0.0879 -0.2132  0.0387
40600W        W83591  27.761   7.691  25.370  0.1772  0.1018  0.0796
40601W        W83592   2.377  17.678  23.740  0.3488 -0.1400 -0.0898
40602W        W83593   6.576  29.169   4.712 -0.0465 -0.1391 -0.1743
40603W        W83594  13.443   7.768   8.059 -0.1291 -0.0798 -0.0680
40604W        W83595  13.049   9.300   2.985 -0.2604 -0.2133 -0.1366
40605W        W83596   7.888  32.727  24.593 -0.0636  0.1266  0.0611
40606W        W83597   8.366  21.480  14.252 -0.1380  0.1593 -0.0563
40607W        W83598   7.659   2.388   5.618 -0.1754  0.0886  0.1778
40608W        W83599   5.885   7.388  25.690  0.3216 -0.2281 -0.1448
40609W        W83600   8.977  31.786  23.747 -0.0537 -0.1136  0.1161
40610W        W83601  33.577  11.430  18.576  0.0752 -0.1060 -0.6175
40611W        W83602   5.044  30.308   0.024 -0.1507 -0.0087 -0.1953
40612W        W83603  19.850   4.449  29.056  0.5283  0.0574  0.1308
40613W        W83604   7.587   6.303   7.886 -0.0000 -0.2892 -0.2270
40614W        W83605  23.680   1.234  21.494  0.0376 -0.1341  0.1912
40615W        W83606  12.816  20.669   5.461 -0.0217 -0.0877 -0.1057
40616W        W83607   5.718  10.789  27.362  0.2862  0.0894  0.1181
40617W        W83608   8.685   8.699  22.439 -0.3061 -0.0984 -0.0663
40618W        W83609  15.538  14.415  24.601 -0.2247 -0.0618 -0.1339
40619W        W83610   2.507   4.595   8.113  0.1281  0.0472 -0.3659
40620W        W83611  24.577  14.096  14.980  0.2364  0.1686  0.0985
40621W        W83612  31.643   9.109   7.408  0.0664 -0.1914 -0.2200
40622W        W83613  16.442   8.758  18.766 -0.3300  0.2487  0.2832
40623W        W83614   5.178   7.465  15.501  0.0382  0.0632  0.1039
40624W        W83615   0.657  34.028  26.076 -0.0079 -0.1907 -0.3104
40625W        W83616   1.150   6.905   9.172 -0.2934 -0.0478  0.0419
40626W        W83617   3.262   3.358   9.036 -0.2962  0.2479 -0.0500
40627W        W83618   1.547   4.098  22.897  0.0708  0.0412  0.0368
40628W        W83619   8.820  33.239   7.956 -0.0230  0.0055 -0.1768
40629W        W83620   2.202  25.437   5.580 -0.1048  0.2197  0.1952
40630W        W83621   0.696   9.196  24.209 -0.0155 -0.1670  0.0753
40631W        W83622  19.077  31.064   8.819  0.0104  0.0108 -0.0045
40632W        W83623   9.979   1.571   4.584  0.0890  0.4301  0.0507
40633W        W83624   7.403  15.002  16.162  0.0874 -0.0647 -0.3432
40634W        W83625  12.556   7.918   7.803  0.0632 -0.2485  0.1837
40635W        W83626  16.502  18.961  25.426 -0.3350 -0.2866 -0.1697
40636W        W83627   2.552  21.488   8.309 -0.0074 -0.1395  0.5032
40637W        W83628   5.030  18.715  24.621  0.2265 -0.2670  0.0319
40638W        W83629   5.406   0.515   3.759  0.1117 -0.0435  0.1521
40639W        W83630  25.308   7.684  29.051 -0.0827  0.0245 -0.2674
40640W        W83631   7.413  19.019   3.029 -0.1454  0.0087 -0.1457
40641W        W83632   9.248   6.810  24.013  0.0443  0.0518 -0.0035
40642W        W83633  15.968  34.655  16.544  0.4819 -0.1097 -0.1697
40643W        W83634  12.767   1.568   2.374 -0.0559 -0.0788 -0.0095
40644W        W83635  30.113  21.246   7.586 -0.1022  0.1586  0.2784
40645W        W83636  11.198  12.428   3.752  0.0764 -0.0372 -0.0490
40646W        W83637  12.967  27.042   6.876  0.1002  0.0556  0.1138
40647W        W83638  12.952   7.514   6.932 -0.2735 -0.1871 -0.0585
40648W        W83639  34.612  26.794   4.895 -0.0327 -0.0279 -0.3120
40649W        W83640   6.902   3.206  17.165  0.2991  0.0648 -0.0044
40650W        W83641  27.015  26.712  29.163  0.2544  0.1170 -0.1817
40651W        W83642  20.296  32.315   6.367 -0.0075 -0.0800 -0.0006
40652W        W83643   3.216   7.055   2.510 -0.0600  0.0257 -0.1438
40653W        W83644  20.976   6.165   6.079 -0.2404  0.0711 -0.0006
40654W        W83645  17.408  11.031   7.836 -0.1862  0.3558 -0.1508
40655W        W83646   4.841  15.360   6.481  0.2223  0.1799  0.2736
40656W        W83647  14.466  29.840  26.132 -0.3379 -0.3097 -0.1313
40657W        W83648   7.622   3.640   1.121  0.2191  0.0562  0.0213
40658W        W83649   7.513   7.793   9.337 -0.0452  0.3174  0.0859
40659W        W83650  34.338  30.186  22.524  0.0122  0.1783  0.3360
40660W        W83651  25.573  12.442  18.981  0.0366 -0.3824 -0.1842
40661W        W83652  18.851  21.398  21.778 -0.0447  0.1364  0.1522
40662W        W83653  32.460  10.338  28.236 -0.1048  0.2671 -0.0658
40663W        W83654  26.692  13.411  24.546 -0.0563 -0.1601  0.0849
40664W        W83655  26.472   8.078   9.344 -0.1683  0.0021  0.2302
40665W        W83656  10.392  13.061   2.512  0.4252  0.1137  0.2054
40666W        W83657  20.627   6.841  24.714 -0.0391  0.0041  0.2102
40667W        W83658   1.249   8.548  28.053  0.0215 -0.1613  0.0164
40668W        W83659  18.990   0.471  22.546 -0.0945  0.1713  0.2395
40669W        W83660   7.145   4.444  26.678  0.1045  0.2129 -0.0041
40670W        W83661  22.265   1.832  27.177 -0.2232  0.1361 -0.0295
40671W        W83662  11.974   8.227  11.127 -0.0658 -0.1906 -0.0606
40672W        W83663  31.258  26.241  26.269 -0.1517 -0.1647  0.1466
40673W        W83664  28.091  26.691  26.815  0.2085 -0.0351  0.0367
40674W        W83665  21.975   9.805  15.769 -0.1043  0.0485  0.2283
40675W        W83666  26.324   2.090  25.126 -0.0772 -0.0347  0.1496
40676W        W83667  17.069   9.946  25.404  0.0093 -0.2521  0.1078
40677W        W83668  21.713  24.753   5.394 -0.0718  0.1497 -0.1300
40678W        W83669  14.921  11.437  22.779  0.0878 -0.1086 -0.2078
40679W        W83670  31.874   7.536  29.053 -0.1860 -0.1628 -0.1189
40680W        W83671  21.425  30.456   5.623  0.3165 -0.0736 -0.0143
40681W        W83672  13.022   0.838  11.505 -0.0717  0.1977 -0.2766
40682W        W83673   0.765  15.997  21.781  0.0982  0.0011 -0.1042
40683W        W83674  32.734   3.490  29.107 -0.2116 -0.2114  0.0274
40684W        W83675  26.345  25.711  19.629  0.2242  0.1652 -0.0432
40685W        W83676  32.509  20.116  23.215 -0.1907  0.1259 -0.3445
40686W        W83677  10.335  15.945   2.714  0.0509 -0.1506  0.3039
40687W        W83678  10.825   7.807  26.282 -0.0169 -0.2213 -0.2453
40688W        W83679  10.077   2.127  15.500 -0.1520 -0.1145 -0.1623
40689W        W83680  32.908   9.956  22.343 -0.0939 -0.3313 -0.2410
40690W        W83681  25.823  12.562  29.243 -0.2964  0.0010 -0.0173
40691W        W83682  22.510   7.776   3.878  0.2923  0.0664 -0.1483
40692W        W83683  34.579  28.489  19.311 -0.1514 -0.2179 -0.3305
40693W        W83684   1.795   5.825  21.943 -0.0465  0.0773 -0.0524
40694W        W83685  20.459   1.729  14.733 -0.1781  0.1096  0.0994
40695W        W83686  13.017   0.944   8.750  0.2206  0.1486 -0.3747
40696W        W83687  28.316   6.345  22.194 -0.1130  0.1345 -0.1628
40697W        W83688  17.270  29.053  29.135 -0.2714  0.0973  0.0175
40698W        W83689  27.894   4.258  15.620 -0.3761  0.0389 -0.0410
40699W        W83690   1.701   9.282   4.705  0.0564  0.1938 -0.0585
40700W        W83691  33.629  10.908  20.565  0.0037 -0.3234 -0.0871
40701W        W83692   0.822  24.681  16.055  0.0097  0.2204 -0.2090
40702W        W83693   8.150   6.190  21.489 -0.0677  0.0395  0.1535
40703W        W83694  27.466  18.598  15.179 -0.1435 -0.1459  0.0159
40704W        W83695   9.634  23.821  21.622 -0.3010  0.1038  0.0278
40705W        W83696   2.003  12.128  20.431 -0.0304  0.0133 -0.0911
40706W        W83697  26.774  14.657  17.326  0.0756  0.3197  0.3858
40707W        W83698  10.811  10.718  17.140  0.0529  0.0487 -0.1307
40708W        W83699   6.521  27.062  16.552  0.1845 -0.0081 -0.1706
40709W        W83700  22.255  11.205  20.993 -0.3634 -0.0548 -0.2751
40710W        W83701   8.476  10.471  18.792  0.0127  0.2811 -0.2779
40711W        W83702  21.105  23.172  14.443  0.0516 -0.2593  0.0408
40712W        W83703  29.032  10.153  18.574 -0.4405  0.0303  0.2922
40713W        W83704   7.330  31.774  19.198 -0.0345 -0.2169  0.1183
40714W        W83705   1.335  32.347  15.970 -0.2445  0.2286  0.2019
40715W        W83706   9.770  10.791  17.461  0.2267 -0.0374  0.0185
40716W        W83707  16.361  17.088  26.711  0.1092 -0.2113 -0.2406
40717W        W83708  16.243  24.904  20.668 -0.2444 -0.1304 -0.0685
40718W        W83709   5.843  33.280  18.551 -0.1778 -0.3015 -0.0212
40719W        W83710  20.073  17.343   4.253  0.0169  0.1622  0.1157
40720W        W83711  17.485   5.908  18.331 -0.0366  0.1611 -0.0820
40721W        W83712  31.414   2.616   0.726 -0.2978 -0.0160 -0.0607
40722W        W83713  12.331   2.306  17.488 -0.3019 -0.3237  0.1167
40723W        W83714   3.764  26.357  22.171  0.1504  0.0574 -0.3536
40724W        W83715   9.767  28.735   3.308 -0.2831  0.1738 -0.0737
40725W        W83716  29.897  19.181  21.483  0.1306  0.0051 -0.0266
40726W        W83717  15.571  17.525  14.168 -0.1515 -0.2397 -0.2085
40727W        W83718   8.910   3.627  21.491 -0.0353 -0.0971  0.1056
40728W        W83719   8.576   1.950   9.921  0.0156  0.3679 -0.0476
40729W        W83720   4.809  18.486  16.934  0.0727 -0.2127 -0.0191
40730W        W83721  22.981  11.023  25.068 -0.0264  0.0900 -0.0886
40731W        W83722   1.936   9.073  17.885 -0.1143 -0.2078  0.1857
40732W        W83723   7.364   1.925   0.455  0.4777 -0.2721  0.0947
40733W        W83724   8.553  22.028  26.535 -0.0294 -0.2678  0.1523
40734W        W83725  15.869   8.810  28.698 -0.0434 -0.0465  0.0823
40735W        W83726   4.604  23.540  20.065 -0.1336 -0.1473 -0.2939
40736W        W83727   9.578  11.354  18.707  0.1910 -0.3113  0.1145
40737W        W83728  29.026  26.899  16.298 -0.2809  0.0814 -0.0478
40738W        W83729  30.456   8.579   1.029 -0.0265  0.0390  0.2409
40739W        W83730   0.344   8.237  29.013  0.1524 -0.1807  0.0583
40740W        W83731  13.072   7.113  28.630  0.1624  0.1634  0.2837
40741W        W83732   4.654   7.752   2.732  0.2484 -0.1729  0.0554
40742W        W83733  11.389  12.575  17.437 -0.2182  0.2401  0.1273
40743W        W83734  33.675  17.243   0.361 -0.1525 -0.0134  0.1638
40744W        W83735  16.920   8.260  15.931  0.0247  0.2137  0.3246
40745W        W83736   7.142  14.783  26.746  0.0792 -0.0522  0.0626
40746W        W83737  34.571   8.121  19.050  0.5220 -0.0713  0.0577
40747W        W83738  21.713  11.652  15.309  0.1328  0.0473  0.0446
40748W        W83739   8.445   2.151  18.422 -0.3273  0.1309  0.2364
40749W        W83740   0.682   2.147  20.116 -0.0151  0.0827  0.4891
40750W        W83741  25.777  27.455  20.668  0.1568  0.2664  0.1114
40751W        W83742  15.471   6.873  21.387 -0.1749  0.0001 -0.2370
40752W        W83743   8.657  33.237  22.388 -0.3418 -0.1400  0.0800
40753W        W83744   1.137  30.824  18.811  0.0684 -0.0389  0.0754
40754W        W83745   8.175  17.731  18.321 -0.1256 -0.0674  0.0728
40755W        W83746  10.271  10.102  18.418  0.4033  0.2309  0.3673
40756W        W83747  20.927   7.012  15.289 -0.1918 -0.0985  0.0392
40757W        W83748   7.382  27.698  18.286  0.0070 -0.4302  0.0017
40758W        W83749  22.161   5.890  13.794  0.0525 -0.0355 -0.0971
40759W        W83750   6.947  16.075  24.713 -0.1577 -0.1870  0.1262
40760W        W83751  10.594  28.203  25.085  0.2333 -0.0051 -0.0846
40761W        W83752  10.878  30.881  19.306 -0.0141 -0.2259  0.0565
40762W        W83753   8.716  30.459  15.502 -0.2504  0.0273  0.1394
40763W        W83754   2.299  22.186  19.577 -0.4236  0.0056 -0.0939
40764W        W83755   4.941  13.422  17.363  0.0277  0.1776  0.0621
40765W        W83756   7.821   6.273  19.698 -0.2477  0.1722 -0.3107
40766W        W83757  12.861   2.070  21.949  0.0675 -0.3290 -0.0949
40767W        W83758  27.740   9.234  15.278 -0.2972 -0.1421  0.1836
40768W        W83759  18.446  10.449  25.915 -0.1096 -0.2375 -0.2046
40769W        W83760   1.121  30.095  23.541  0.1135 -0.3868  0.2555
40770W        W83761  33.930   4.229  28.065 -0.3548 -0.0515 -0.0995
40771W        W83762  16.514  17.716  14.578  0.0398 -0.1137 -0.0102
40772W        W83763   8.528  14.216  24.347 -0.0392  0.0283  0.1246
40773W        W83764  23.338   5.888  18.690  0.2444 -0.0984  0.0339
40774W        W83765  33.844   9.638  23.240 -0.1471  0.1962 -0.0152
40775W        W83766  20.942   5.418  23.794 -0.1519  0.3421  0.0180
40776W        W83767  19.676  34.659   0.904 -0.1520 -0.0512 -0.1033
40777W        W83768   9.231  14.013  26.425 -0.4325  0.1578  0.1813
40778W        W83769  13.580  11.604  17.318 -0.0263 -0.1468 -0.1579
40779W        W83770  20.134  11.956  17.774 -0.0634  0.0541  0.1708
40780W        W83771  18.333  19.231  13.841  0.0254 -0.0674  0.0284
40781W        W83772  15.194  25.321  16.526 -0.0764  0.0390 -0.1927
40782W        W83773  10.183   8.159  16.654  0.2596 -0.0169 -0.1199
40783W        W83774  11.398   9.859  17.319  0.1612 -0.0767 -0.3848
40784W        W83775   9.163   5.508  22.509 -0.1184  0.2345 -0.2431
40785W        W83776  18.396  21.711  24.239 -0.0679  0.2404  0.1218
40786W        W83777  31.659  13.138  20.720 -0.2145 -0.1224  0.0910
40787W        W83778  15.310  12.927  17.237 -0.2682  0.0668  0.1788
40788W        W83779  30.583  11.678  16.909  0.3038 -0.3000  0.0885
40789W        W83780   7.873  16.345  21.360  0.0430  0.2534  0.2349
40790W        W83781  28.930  12.243  23.498 -0.1243  0.2051  0.3038
40791W        W83782  18.370   7.087  15.421  0.0588 -0.1113 -0.0152
40792W        W83783  11.685  11.561  21.960  0.1206  0.1992  0.0918
40793W        W83784  22.739  15.586  25.714  0.0481 -0.3115 -0.0049
40794W        W83785   9.525   2.536   9.258 -0.2766 -0.1095 -0.0443
40795W        W83786  24.728  22.816  17.195  0.2805  0.2001 -0.0248
40796W        W83787   5.550   9.001  18.394  0.1703 -0.0041  0.2117
40797W        W83788   9.994   0.978   0.342  0.1075 -0.1238 -0.0968
40798W        W83789  12.372   1.340   2.137 -0.1321 -0.3854  0.1558
40799W        W83790   6.215   8.076  23.070  0.3813  0.2576  0.0397
40800W        W83791   0.575  24.922  17.917 -0.1840 -0.1023 -0.0751
40801W        W83792   4.898   1.730   3.354 -0.0144  0.0778 -0.0692
40802W        W83793  12.068  14.014  17.618  0.2566  0.1637  0.1081
40803W        W83794   1.845  21.228  17.955 -0.0371 -0.0841  0.2127
40804W        W83795   2.511   6.494   7.424 -0.0487 -0.0008 -0.1587
40805W        W83796  12.433  27.236  17.521  0.0390  0.2266 -0.2462
40806W        W83797  31.059  23.678  25.571 -0.1127  0.2556 -0.1539
40807W        W83798  12.370  13.902   6.110 -0.1174 -0.1044 -0.0540
40808W        W83799  11.287  11.106   4.037 -0.0087  0.0004 -0.2360
40809W        W83800   0.665  15.337  23.226  0.1379  0.1017 -0.0243
40810W        W83801   0.923  25.356  25.345 -0.0249 -0.1568 -0.1483
40811W        W83802   0.279  20.553  20.410 -0.4641 -0.0927 -0.2385
40812W        W83803  12.254  14.520  23.102  0.2846  0.1122 -0.2192
40813W        W83804   9.597   6.144  22.728 -0.0153 -0.2239 -0.1411
40814W        W83805  25.548  18.599  17.609  0.1542  0.0706 -0.2391
40815W        W83806   1.581   6.913  24.793  0.1891  0.2074 -0.2066
40816W        W83807   8.891  16.028  16.389 -0.0602 -0.0297 -0.0498
40817W        W83808   6.766  32.421  25.834  0.2678  0.1603  0.2600
40818W        W83809  11.373  10.318  28.718 -0.1167 -0.2855  0.0180
40819W        W83810  33.715  10.053  17.430  0.1455  0.0327 -0.1448
40820W        W83811  23.583  14.059  16.503 -0.2731  0.2056 -0.1232
40821W        W83812  20.676  12.468  17.069  0.0145 -0.2484  0.6137
40822W        W83813   6.830  16.000  15.450  0.1936 -0.0182 -0.1349
40823W        W83814  26.768  11.366  25.089 -0.0760 -0.1500  0.4067
40824W        W83815   6.975  17.867  27.523 -0.1712 -0.1535  0.0660
40825W        W83816  14.495  25.884  14.468 -0.1432 -0.2376  0.0124
40826W        W83817  14.931  20.251  13.063 -0.2384  0.0721  0.0296
40827W        W83818  18.278  10.634  27.910  0.1346 -0.7511 -0.0661
40828W        W83819   6.227  22.657  22.738  0.1548  0.3274  0.2788
40829W        W83820  10.591  20.835  15.384 -0.1900  0.0553 -0.0014
40830W        W83821  33.836   9.124  21.806 -0.1990  0.0651 -0.2183
40831W        W83822  12.385  19.092  14.547  0.3387  0.0401  0.0692
40832W        W83823  18.328   7.367  18.355  0.0407 -0.2430  0.1937
40833W        W83824  17.783  34.417  26.446 -0.0013 -0.0727 -0.0354
40834W        W83825  13.375   3.382  28.954  0.3108 -0.3166  0.0874
40835W        W83826   7.210  30.489  18.569  0.0226  0.0250  0.0336
40836W        W83827  23.232  34.052  18.401 -0.1742  0.2745 -0.0855
40837W        W83828  17.308  19.677  12.716 -0.1596  0.0108 -0.2207
40838W        W83829   8.112  28.710  15.165  0.2679 -0.4507 -0.3461
40839W        W83830  12.182  10.188  17.537  0.3447  0.1325  0.1553
40840W        W83831  10.303   9.487  18.696  0.0655  0.0885 -0.0555
40841W        W83832   6.065  29.457  15.612  0.0221 -0.2593  0.0710
40842W        W83833  32.037  13.709  15.871  0.0160 -0.2990  0.2239
40843W        W83834  21.231  14.037  13.900 -0.1294 -0.0952 -0.0002
40844W        W83835   9.356  24.017  19.830 -0.3470 -0.0555  0.2130
40845W        W83836  34.155  34.360  14.576  0.1253 -0.0707 -0.1870
40846W        W83837   2.424  15.041  16.924  0.1188  0.0808 -0.3676
40847W        W83838   9.976   2.640  23.303 -0.0836 -0.1925  0.2250
40848W        W83839  14.372  17.207  12.963 -0.1067 -0.0108  0.2184
40849W        W83840   3.071  33.583  26.096 -0.1079  0.0242  0.0660
40850W        W83841   4.453   9.208  16.273  0.0094  0.2177  0.0892
40851W        W83842   0.133   0.338  20.309  0.0772  0.4977  0.4990
40852W        W83843  27.866  10.860  28.968 -0.2301  0.0469  0.1877
40853W        W83844   2.888  25.219  25.522 -0.0290 -0.1620 -0.3540
40854W        W83845  13.379  15.924  13.155  0.0265 -0.1636 -0.0216
40855W        W83846  16.685  11.605   5.143 -0.1798  0.0139 -0.3613
40856W        W83847  24.850  30.145  15.004 -0.1900  0.1076 -0.0098
40857W        W83848  12.930  14.198  27.793  0.1583 -0.1394 -0.0870
40858W        W83849   3.068   5.139  18.603 -0.0321  0.4671  0.2044
40859W        W83850   7.736   5.121  16.103 -0.0814  0.0692 -0.1094
40860W        W83851   7.983  23.948  20.665 -0.0210  0.0633  0.1241
40861W        W83852  27.904  34.376  27.785 -0.3744  0.3060  0.0101
40862W        W83853  10.546   9.268  24.448 -0.0838 -0.1749 -0.1132
40863W        W83854  13.699   3.130   2.900  0.4298 -0.0476 -0.0072
40864W        W83855  22.168   9.015  15.358  0.0398 -0.1193 -0.2372
40865W        W83856  19.320  20.147  16.188 -0.1334  0.1470 -0.3136
40866W        W83857  14.750  15.490  14.215 -0.0870 -0.1286  0.0102
40867W        W83858  20.136  13.710  18.391 -0.0322  0.2147 -0.4328
40868W        W83859  13.250  13.973  15.212  0.0396 -0.0101  0.5287
40869W        W83860  28.576   9.127  18.386  0.2259  0.0333  0.2242
40870W        W83861   6.836  30.739  16.748 -0.1971 -0.2451 -0.4599
40871W        W83862   9.510   5.609  18.640  0.1277 -0.3443 -0.1357
40872W        W83863  33.046  11.202  16.188  0.0859 -0.1716 -0.1686
40873W        W83864  10.138  25.718  15.642  0.2008 -0.4255 -0.1203
40874W        W83865   4.145   9.792   0.267  0.2311  0.3132 -0.0226
40875W        W83866  20.580  15.497  24.837 -0.0983  0.1479  0.0736
40876W        W83867  12.963   0.776  17.809 -0.1675  0.1215  0.2915
40877W        W83868  32.075   6.213  17.632  0.2507 -0.2459  0.2162
40878W        W83869  11.131  10.116  25.687  0.0729  0.0282  0.0706
40879W        W83870   2.481  22.222  25.648  0.0092 -0.1209  0.0905
40880W        W83871   5.364  10.131  20.582 -0.0724  0.3717 -0.1058
40881W        W83872   0.308  20.309  21.676 -0.0802  0.0872 -0.0888
40882W        W83873   9.170  26.570  16.430 -0.1534  0.3280 -0.0757
40883W        W83874   9.740   8.880   4.921  0.2554  0.0537 -0.1240
40884W        W83875  12.159   7.791  18.650 -0.2955  0.0259  0.1299
40885W        W83876  32.450   2.935  23.378 -0.1459 -0.1999  0.2276
40886W        W83877   6.288   9.278  16.197  0.0983  0.3306 -0.0447
40887W        W83878  11.259  33.863  10.940 -0.3046  0.1784 -0.1780
40888W        W83879   5.909   6.758   0.327  0.0765  0.1662  0.2238
40889W        W83880   8.126  21.025  29.126  0.1334 -0.1568 -0.2307
40890W        W83881  22.077  21.514  23.632 -0.1727 -0.0726  0.0094
40891W        W83882  32.695  12.937  17.547  0.0039 -0.0276  0.0716
40892W        W83883  29.269  31.784   2.625  0.0755  0.1167  0.2567
40893W        W83884   5.939   4.702  15.560 -0.0787 -0.2600 -0.0202
40894W        W83885  33.869   8.046   0.414  0.0478 -0.1857 -0.2821
40895W        W83886  26.897  10.884  23.190  0.0736 -0.1544  0.2077
40896W        W83887  31.620  22.880  20.498 -0.1374 -0.0862  0.0919
40897W        W83888  22.473  25.703  14.886  0.0203  0.2283 -0.1797
40898W        W83889   6.369  12.069  15.760  0.2031  0.0584  0.0004
40899W        W83890   0.101  30.001  21.449 -0.1190  0.0663  0.0978
40900W        W83891   3.089   1.671  25.649  0.2169  0.3715 -0.2160
40901W        W83892   6.990  14.807  16.334 -0.1643  0.2536  0.2737
40902W        W83893  10.297  21.390   0.303 -0.1678 -0.3498 -0.1722
40903W        W83894   2.857   8.886  21.062 -0.2429  0.2543 -0.0339
40904W        W83895  26.907  21.200  16.484 -0.2073 -0.0980  0.0323
40905W        W83896  11.932  20.707  19.614 -0.0944  0.1875  0.1395
40906W        W83897   7.280  22.796  14.350 -0.1380  0.1221 -0.0440
40907W        W83898  24.020  23.569  23.554 -0.0591  0.2901 -0.0227
40908W        W83899  16.411  23.268   1.626 -0.0833  0.1437 -0.0809
40909W        W83900  20.561   4.309  27.250 -0.0977 -0.0238 -0.1289
40910W        W83901  28.832   2.642  27.057  0.2655  0.2834 -0.4974
40911W        W83902  12.433  13.375   8.706  0.0885  0.3106 -0.2474
40912W        W83903  18.178  22.529  19.811 -0.2344 -0.0433  0.2622
40913W        W83904  13.408   3.947  22.962  0.1673  0.0400  0.0182
40914W        W83905   9.866  26.016  16.627  0.1250  0.1670 -0.1266
40915W        W83906   0.690  18.763  22.832  0.4382 -0.0226 -0.2649
40916W        W83907  19.685  34.528  22.461  0.0290 -0.2638 -0.0960
40917W        W83908  22.199   3.512  13.716 -0.0896 -0.2731 -0.0992
40918W        W83909  12.115   7.478  15.875 -0.1763 -0.0595 -0.0494
40919W        W83910  13.977  21.453  21.366 -0.0952 -0.2132 -0.2369
40920W        W83911  23.336   1.563   1.111  0.0407  0.1573 -0.2625
40921W        W83912   4.581   8.439  16.614 -0.1212  0.3055  0.1325
40922W        W83913  11.857  10.262  23.220  0.1931  0.1474  0.3296
40923W        W83914  17.364   4.885  16.867 -0.1393 -0.0162  0.5405
40924W        W83915  29.551   2.896  22.248 -0.1104  0.0111  0.0904
40925W        W83916  31.076  26.315   1.726 -0.0845  0.3323  0.2904
40926W        W83917  31.875   8.090  20.760 -0.1792 -0.0677 -0.0731
40927W        W83918   6.454  20.607  21.871 -0.0539 -0.0351 -0.2360
40928W        W83919  24.303  18.243  15.947 -0.0580  0.1195 -0.1854
40929W        W83920  10.906  15.497  15.698  0.1812  0.4579 -0.0272
40930W        W83921   7.309   9.455  22.377  0.1840 -0.1502  0.1137
40931W        W83922  13.862  16.066  21.626  0.1134  0.0896  0.0553
40932W        W83923  20.209  18.298  16.733 -0.3550 -0.0613  0.1381
40933W        W83924   4.757  28.217   7.497 -0.1466  0.0886 -0.0430
40934W        W83925   6.902   5.003  24.839 -0.1053  0.1201  0.0924
40935W        W83926  30.488   6.145   4.921 -0.3106 -0.2436 -0.1112
40936W        W83927  26.189  15.963  20.299  0.0577 -0.1404 -0.0498
40937W        W83928  11.648   2.159  22.684  0.0185 -0.1835  0.1085
40938W        W83929  12.823   5.753  17.692 -0.1514 -0.0803 -0.1016
40939W        W83930   9.845  10.401  23.919 -0.0498 -0.0602 -0.2579
40940W        W83931   9.206   3.783  20.476 -0.2241  0.1157 -0.0606
40941W        W83932   2.304   4.523  21.691  0.1585  0.0587  0.0247
40942W        W83933  21.153   0.236  24.113 -0.0804 -0.2121 -0.1413
40943W        W83934   6.838  28.929  15.438  0.0837  0.0899 -0.0006
40944W        W83935  20.638  10.712  15.789 -0.0156 -0.0690  0.1175
40945W        W83936  32.432   0.504  28.580  0.1695 -0.2097  0.0956
40946W        W83937  25.633  17.986  15.399  0.1275  0.0366 -0.0576
40947W        W83938   0.343  30.587  19.215  0.1198  0.0355 -0.1311
40948W        W83939  19.113  29.849  21.350 -0.0638 -0.3258 -0.1688
40949W        W83940   1.589   4.321  22.410  0.0813 -0.0168  0.2568
40950W        W83941  18.098  10.114  18.337 -0.0499 -0.0038 -0.1414
40951W        W83942  29.672  19.129  19.429 -0.2536 -0.2254 -0.1285
40952W        W83943  19.780  18.582   3.753  0.1668  0.0188  0.0408
40953W        W83944  13.293   3.654  25.562  0.1486 -0.1342 -0.3301
40954W        W83945  12.215   7.859   7.439 -0.0929 -0.2518 -0.0123
40955W        W83946  15.868  16.373  13.141  0.0286 -0.1199 -0.0709
40956W        W83947  15.554  21.459  27.231  0.1471 -0.2644  0.1597
40957W        W83948  27.510   0.643  28.808  0.2010 -0.2214 -0.1804
40958W        W83949  34.373  11.796   2.466  0.1127  0.1004 -0.1734
40959W        W83950   6.985   9.657  16.578  0.3635  0.1164  0.1429
40960W        W83951   4.878   6.703  20.593 -0.3559 -0.0840 -0.0539
40961W        W83952  30.204  25.763  23.182  0.1468 -0.0144 -0.0604
40962W        W83953  23.507  13.753  23.229  0.0503 -0.0575  0.1322
40963W        W83954  28.874  12.587  27.805 -0.1639 -0.0339  0.2288
40964W        W83955  23.494   8.112  16.252 -0.1376 -0.0931  0.0450
40965W        W83956   6.034  10.532  16.253 -0.1671  0.4368 -0.2579
40966W        W83957  30.023   9.465  17.510  0.1556 -0.1400  0.0867
40967W        W83958   6.496  17.456  19.413 -0.2542  0.1399  0.2091
40968W        W83959  16.579  11.786  22.733 -0.0256  0.2253  0.2474
40969W        W83960  12.429  15.330  17.978  0.1669 -0.2521 -0.3996
40970W        W83961  24.395  18.733  16.090  0.0432  0.0290  0.0542
40971W        W83962  21.176  18.200  23.756  0.0435 -0.1711  0.2025
40972W        W83963   3.459   7.527  28.459 -0.0433 -0.2325  0.3225
40973W        W83964   2.493  31.240  18.076 -0.0899 -0.3414 -0.2216
40974W        W83965   1.949  20.174  26.278 -0.1648  0.2530 -0.0978
40975W        W83966  20.337   5.972  19.239 -0.0294  0.0279 -0.1948
40976W        W83967  28.135   7.786  28.065 -0.2606 -0.1774  0.0864
40977W        W83968  13.982  22.770   6.387  0.0525 -0.3943  0.1290
40978W        W83969  31.899  21.335  14.829  0.0606  0.0456  0.0698
40979W        W83970  15.980   9.663  16.785 -0.2028 -0.0240 -0.2453
40980W        W83971   3.699   4.165  14.914  0.0475  0.0639  0.0940
40981W        W83972   1.731  19.276  18.869 -0.2232 -0.0780  0.2088
40982W        W83973  17.216  10.201   1.229  0.0073  0.2939 -0.3963
40983W        W83974   1.562  14.726  21.543 -0.0614 -0.2113 -0.0098
40984W        W83975   9.508   5.565  19.221  0.1799  0.2192  0.1654
40985W        W83976  26.696  20.079  15.519  0.0478 -0.0487 -0.1003
40986W        W83977   4.094   5.956  16.096 -0.0939  0.3011 -0.1343
40987W        W83978   3.926  33.878  14.040 -0.2366  0.2465 -0.1085
40988W        W83979   0.463  13.107   6.797  0.1219 -0.1911 -0.0625
40989W        W83980  14.174  14.921  17.068  0.0851 -0.2259  0.2185
40990W        W83981   0.318  20.181  24.332  0.2949 -0.0499  0.2971
40991W        W83982  10.958  24.457  18.049  0.0156 -0.2587 -0.1430
40992W        W83983   3.225  23.082  21.558 -0.2930  0.2740 -0.2490
40993W        W83984   7.588  14.600  25.661 -0.1149 -0.0257 -0.0080
40994W        W83985  34.648  22.829  20.547  0.0564 -0.5478  0.0951
40995W        W83986  10.874   2.088  27.846 -0.0415  0.0196  0.1513
40996W        W83987   9.512  34.726  15.395 -0.4643  0.3484  0.0975
40997W        W83988  10.973  32.896  17.203 -0.1588  0.1842 -0.0923
40998W        W83989  32.482  14.628  23.140 -0.3695 -0.1935 -0.0197
40999W        W83990  11.557  11.345  18.759 -0.0976  0.2474 -0.0553
41000W        W83991  31.703  23.327  20.597 -0.3333 -0.0243 -0.1952
41001W        W83992  11.490  11.604  15.928  0.4880  0.2568  0.0323
41002W        W83993  17.693  22.038  23.917  0.1106  0.1299 -0.0009
41003W        W83994  11.735   5.944  27.251  0.0341 -0.0987  0.0606
41004W        W83995  29.255  17.327   4.384 -0.0465  0.2697  0.0185
41005W        W83996  31.074  31.925  28.297 -0.2029 -0.2432  0.2624
41006W        W83997  10.189  26.223  28.328  0.0882 -0.0659  0.0875
41007W        W83998   3.624  17.882  17.328  0.0575 -0.0949  0.0695
41008W        W83999  10.564  10.296  17.401 -0.0190 -0.0360  0.1658
41009W        W84000  19.147   1.534  18.842 -0.3061 -0.1626  0.0565
41010W        W84001  30.136  18.073  17.527 -0.2349  0.1881 -0.2032
41011W        W84002  23.944   7.116   1.453 -0.1990  0.0072  0.0707
41012W        W84003  27.387   4.314  18.740 -0.1447  0.0286 -0.1683
41013W        W84004  12.234   5.899  20.324  0.3706  0.2568  0.0701
41014W        W84005  14.522  19.531  15.841  0.1120 -0.2996  0.1553
41015W        W84006  28.667   7.998   6.424  0.2765 -0.1235 -0.1408
41016W        W84007  24.369   8.608  25.259 -0.0147 -0.0719  0.1346
41017W        W84008  13.618   9.108  14.797  0.0428  0.0264  0.0980
41018W        W84009   9.488  16.820  25.520 -0.0999  0.0239  0.1497
41019W        W84010   7.961  13.433   3.632  0.2753  0.1064 -0.0069
41020W        W84011   9.956   3.301  20.898 -0.3125  0.1295 -0.1977
41021W        W84012  24.204   8.400  19.366  0.1005  0.0317 -0.2103
41022W        W84013  33.845   8.995  20.603 -0.0650  0.2415 -0.0138
41023W        W84014  16.870   6.684  25.115  0.0369 -0.1227 -0.1204
41024W        W84015  12.087  20.978  14.724 -0.0552  0.1050 -0.1383
41025W        W84016   7.373  11.240  19.252  0.0027  0.1795 -0.2352
41026W        W84017  26.103  17.477  14.332  0.0150  0.4024 -0.2564
41027W        W84018  31.909   5.187   4.834 -0.0371  0.1317  0.0384
41028W        W84019   2.729  23.680  19.924 -0.0761  0.3345  0.1262
41029W        W84020   8.601  17.063  23.062 -0.0439  0.2513  0.3747
41030W        W84021   4.681  11.818  21.002 -0.0945  0.1923  0.3975
41031W        W84022  10.153   6.392  19.340  0.0661 -0.0916  0.2275
41032W        W84023   7.206  20.545  25.658 -0.0638  0.2423  0.0682
41033W        W84024  13.085  26.612   2.549 -0.3354 -0.0934 -0.1048
41034W        W84025   8.016  23.057  19.483 -0.0607  0.1347 -0.1795
41035W        W84026  12.858  16.116  16.055  0.0513  0.2316  0.2372
41036W        W84027   3.065   7.629  24.693 -0.2155  0.0577  0.0458
41037W        W84028   1.148  14.582   7.340  0.0626 -0.2838 -0.0313
41038W        W84029  12.540   5.066  15.770 -0.0482 -0.2245 -0.0252
41039W        W84030  13.940  17.784  28.493 -0.1621  0.1419 -0.2907
41040W        W84031   2.294  15.009  20.786 -0.0741 -0.3429  0.1933
41041W        W84032   5.019   2.455  17.855 -0.0482  0.0006 -0.4109
41042W        W84033  32.445   5.013  14.002  0.0126 -0.1021  0.2241
41043W        W84034  32.670   9.922   8.200 -0.1705 -0.0966 -0.1511
41044W        W84035  11.531   8.745  18.251 -0.3305  0.3454  0.1159
41045W        W84036  11.039  34.680  22.231 -0.0030 -0.3427 -0.0299
41046W        W84037  11.740   2.996  28.441 -0.0632  0.0299 -0.0679
41047W        W84038  15.292   0.005  27.146 -0.0728  0.3945  0.3336
41048W        W84039  10.740  15.050  20.446  0.1748  0.0860  0.0243
41049W        W84040   2.682   1.677  21.720 -0.0846 -0.2422 -0.4096
41050W        W84041   9.682  29.170  24.734  0.1048 -0.1534  0.4220
41051W        W84042   9.843   9.032  29.177 -0.1011 -0.2390 -0.2344
41052W        W84043   0.502  17.286  27.639 -0.0586  0.0141 -0.0796
41053W        W84044   0.856  23.265  16.634  0.0513  0.1425  0.1703
41054W        W84045  19.920  33.715  17.230  0.0449  0.1711  0.1531
41055W        W84046  14.773   3.694  20.168  0.3746  0.0136 -0.2539
41056W        W84047  31.106  18.310  16.875  0.3125 -0.0898 -0.1960
41057W        W84048  27.782  18.553  17.867  0.0871 -0.0545 -0.0110
41058W        W84049  16.399  21.644  23.566 -0.0144  0.2708 -0.0966
41059W        W84050  13.514  17.367  17.059 -0.3883 -0.2187  0.3508
41060W        W84051  13.143  20.686  16.450 -0.1030  0.2446  0.2744
41061W        W84052  11.820  26.761   6.668 -0.0090 -0.2540 -0.3438
41062W        W84053  16.138  15.338  13.962  0.1262  0.1027 -0.2187
41063W        W84054  32.094  23.943   4.846 -0.0922 -0.0346  0.0248
41064W        W84055  11.595   7.706  26.883 -0.0590  0.2903  0.0926
41065W        W84056   2.144  21.861  19.231 -0.1338  0.2646  0.0076
41066W        W84057  29.353  14.852  20.982  0.2742  0.1715 -0.1401
41067W        W84058   8.008  33.733  19.102  0.1147  0.2061 -0.1124
41068W        W84059   1.158  12.901  19.845  0.2180 -0.0685  0.1364
41069W        W84060   9.723  14.530   3.798  0.1097  0.4484 -0.0524
41070W        W84061  10.571  11.628  18.586 -0.5635 -0.3824  0.1280
41071W        W84062  22.835  10.115  20.149  0.2308  0.0311 -0.2986
41072W        W84063  12.346   8.163  20.687 -0.2235  0.1739  0.1180
41073W        W84064  14.436  24.494  24.723  0.0748 -0.2449 -0.1868
41074W        W84065  10.697  16.189  16.335  0.1756 -0.1964  0.0196
41075W        W84066   9.729   8.616  20.011  0.3185 -0.0257 -0.2370
41076W        W84067  10.295   5.408  23.943 -0.3296  0.1453 -0.0522
41077W        W84068  16.756  23.946  22.431 -0.0882 -0.3097  0.0142
41078W        W84069  33.922   1.953  14.538  0.0178 -0.1015 -0.1994
41079W        W84070  10.009  14.828  19.954  0.0306  0.1900 -0.1789
41080W        W84071  23.783  20.292   3.704  0.0055 -0.0195  0.1089
41081W        W84072   3.913  14.295  19.336 -0.0392 -0.1603  0.2529
41082W        W84073  32.536   7.295  26.576  0.0816  0.3340 -0.0524
41083W        W84074  20.386   9.138   6.298 -0.2972 -0.0001 -0.1575
41084W        W84075   8.317  20.946  22.274  0.1833  0.2235  0.1755
41085W        W84076  16.373  17.239   8.884 -0.3169  0.0968 -0.1256
41086W        W84077  10.001   9.236   1.579  0.2490 -0.3368 -0.3010
41087W        W84078   8.574   8.845   1.005  0.0212 -0.3000 -0.2529
41088W        W84079  14.677   9.794  25.832 -0.2485  0.1690  0.0708
41089W        W84080  34.599   3.330  20.650 -0.1089  0.2182  0.1552
41090W        W84081   9.802   8.665  19.341 -0.2944 -0.2098 -0.0017
41091W        W84082  29.495  14.240  17.451 -0.0484 -0.2022 -0.1291
41092W        W84083   9.160   2.200  21.389  0.1597  0.2643  0.2147
41093W        W84084   1.467  17.860  19.434  0.4760  0.1233  0.0124
41094W        W84085  12.472  21.012   5.582 -0.0275  0.0839  0.0914
41095W        W84086  13.029  26.262  25.395 -0.0425  0.0981  0.1926
41096W        W84087   0.729   9.791  20.425 -0.3157 -0.0066 -0.0626
41097W        W84088  23.886  24.430  23.637 -0.0983 -0.0587  0.0109
41098W        W84089   8.995  12.603  21.553 -0.0448 -0.4408 -0.1890
41099W        W84090  14.954   1.091  18.257  0.0425  0.0197  0.0086
41100W        W84091  15.451   3.135  20.642  0.0271  0.0447 -0.3632
41101W        W84092  30.743  23.852  25.209 -0.0250  0.4218  0.0034
41102W        W84093  27.008  13.237  20.719  0.2025 -0.3529 -0.4366
41103W        W84094  31.179  24.946  26.275  0.1266 -0.1738 -0.2405
41104W        W84095  11.294  20.813  13.561 -0.1277 -0.2202 -0.1568
41105W        W84096  26.278   6.382  18.599  0.0860  0.0678  0.2563
41106W        W84097  22.095  24.627   2.038 -0.1346  0.2474  0.1921
41107W        W84098  15.706   8.811   9.657 -0.0452 -0.1272 -0.0867
41108W        W84099  23.935   0.592   7.169 -0.0569  0.1380  0.1536
41109W        W84100  33.894  12.474  24.947 -0.2658 -0.0487 -0.2853
41110W        W84101  16.999  10.773   6.232 -0.0858 -0.0489  0.1888
41111W        W84102   2.536  30.341  18.299  0.2509 -0.0225 -0.0268
41112W        W84103   8.864  28.315   5.695  0.3339 -0.0686 -0.0694
41113W        W84104  11.744  14.889  17.393 -0.0121 -0.1746 -0.3014
41114W        W84105   4.198   5.415  24.770 -0.1613 -0.1207  0.0993
41115W        W84106   6.682  15.110  18.739 -0.1230 -0.0384  0.1320
41116W        W84107  16.060  13.567   0.309 -0.0350  0.2830  0.0974
41117W        W84108  29.421  26.194  26.139  0.1977  0.2601 -0.2485
41118W        W84109  23.749  20.716  18.871 -0.1850 -0.0121 -0.2245
41119W        W84110  22.878  27.328  21.818 -0.0467  0.0793 -0.4696
41120W        W84111   5.076  24.810   1.172 -0.1585 -0.0851  0.0684
41121W        W84112   8.095   3.578   1.330 -0.0616  0.1883  0.5135
41122W        W84113  20.980   8.342  16.476 -0.1421 -0.2242  0.1170
41123W        W84114  15.458  11.474  16.665  0.2185  0.0931 -0.0536
41124W        W84115   9.125  18.829   5.101 -0.1502 -0.2197  0.1250
41125W        W84116   8.909   1.952   4.878  0.3899 -0.2662  0.2829
41126W        W84117   6.843  32.554  28.068 -0.1931  0.0916 -0.0877
41127W        W84118  16.284  32.724   7.216  0.3281 -0.1993  0.0946
41128W        W84119  32.045  19.123  27.843  0.0195  0.0537  0.0885
41129W        W84120  32.992  21.925  21.114  0.2036 -0.0353 -0.0090
41130W        W84121  27.509  16.923  19.471 -0.0511  0.1252 -0.1025
41131W        W84122   3.927  11.697  23.967 -0.0242  0.1491  0.0755
41132W        W84123  15.642   1.550  25.399 -0.4107  0.0386  0.3491
41133W        W84124  20.434  15.743   4.787 -0.0905 -0.0842  0.3825
41134W        W84125  34.181  10.149  21.409 -0.0348  0.1308 -0.1268
41135W        W84126   3.543   8.549   5.486 -0.2857 -0.0602  0.0285
41136W        W84127  34.257  25.437  19.586  0.1139 -0.0536  0.1110
41137W        W84128  15.845  10.071   0.445 -0.3737  0.2078 -0.2551
41138W        W84129  27.505  12.795  16.342 -0.1003  0.1605  0.2063
41139W        W84130  10.862  19.918  26.129  0.1575 -0.0323 -0.1246
41140W        W84131  23.823  13.842  15.934  0.2718  0.1115  0.1390
41141W        W84132  23.194   7.681  15.778 -0.3799 -0.0232 -0.3283
41142W        W84133  31.048   2.400  20.891 -0.1992 -0.2425  0.0672
41143W        W84134  11.668   0.262  20.853 -0.2606 -0.0273 -0.0516
41144W        W84135  11.849  22.270   2.373 -0.1027  0.0456  0.1720
41145W        W84136  27.304  17.020  24.088  0.2164  0.1384 -0.1002
41146W        W84137   0.816  23.995  20.767  0.0829  0.0503 -0.5192
41147W        W84138  10.056  16.450  21.318  0.0298 -0.0291 -0.0064
41148W        W84139  26.071   4.328  18.009 -0.2975 -0.1162 -0.0828
41149W        W84140  10.541  18.121  26.441  0.1659  0.1268 -0.3736
41150W        W84141   2.772  31.484  16.508 -0.0250 -0.1023  0.0143
41151W        W84142  32.737  30.516  17.541  0.1199 -0.0878 -0.3051
41152W        W84143  11.740  18.439  16.561  0.1837  0.1243  0.1186
41153W        W84144  20.927   5.264  19.320 -0.4360  0.0209 -0.3325
41154W        W84145  34.298  16.527  19.409 -0.0517  0.1311  0.0555
41155W        W84146  12.099   1.408  21.662 -0.1710 -0.0555 -0.0239
41156W        W84147  32.865  19.404  20.289 -0.3189  0.1005 -0.0744
41157W        W84148  20.555  34.389  17.693  0.1766 -0.0487 -0.2646
41158W        W84149  12.324  11.258  23.723 -0.1358 -0.1003 -0.1151
41159W        W84150   7.119  33.942  14.880  0.1695 -0.0458 -0.0736
41160W        W84151  13.367   9.765  19.904 -0.2246  0.0869  0.0337
41161W        W84152  16.218  26.850  27.409  0.0035  0.0845 -0.2622
41162W        W84153  33.654  27.298  15.517 -0.0209  0.0744 -0.1122
41163W        W84154   8.019  25.055  16.487 -0.1187  0.0542 -0.0358
41164W        W84155  14.692   4.563   1.123 -0.0453 -0.2806 -0.0402
41165W        W84156  11.606   9.790  23.380 -0.0854  0.3948  0.1615
41166W        W84157  19.828   8.462  21.694  0.0367  0.2198 -0.1576
41167W        W84158  29.490  33.820  22.723  0.0730 -0.1456  0.5107
41168W        W84159  24.569   6.742  28.712 -0.2011  0.1632  0.0626
41169W        W84160   7.847   2.353  17.693  0.1865 -0.3242  0.1565
41170W        W84161  16.413  33.338  27.773 -0.1902  0.1331  0.0622
41171W        W84162  11.241  33.762  26.157  0.0778 -0.2371 -0.2142
41172W        W84163  22.952  19.696  15.926 -0.0269 -0.2060  0.0794
41173W        W84164   8.318  14.009   4.926  0.4073 -0.0250  0.0967
41174W        W84165  11.289   6.152  20.608 -0.0879  0.4324 -0.3644
41175W        W84166  14.856  10.710   0.301 -0.2237  0.3317 -0.1639
41176W        W84167   7.230  23.167  19.132  0.2447  0.1062  0.1027
41177W        W84168  27.963  13.367  17.658  0.1428 -0.2721  0.0628
41178W        W84169  12.592   9.507  20.995 -0.2785 -0.1479 -0.3181
41179W        W84170  10.522  12.007  16.607 -0.0172 -0.0008  0.4141
41180W        W84171  30.972  19.405  22.727  0.1395 -0.4276 -0.0474
41181W        W84172   9.968   1.255  15.332 -0.0757  0.2135 -0.3252
41182W        W84173   7.552   8.887  21.305  0.0571  0.1824 -0.0728
41183W        W84174   3.930  10.860  20.244  0.0936 -0.2418  0.1704
41184W        W84175  22.381  12.278  24.205  0.1991 -0.1570 -0.0950
41185W        W84176  14.658  13.640  23.817  0.1171  0.1455  0.0513
41186W        W84177  31.289   9.894  14.715 -0.0664  0.2404  0.3411
41187W        W84178  10.577   5.427  17.755 -0.1045  0.0339 -0.0387
41188W        W84179   2.082  12.031  19.402  0.0665  0.0718 -0.3837
41189W        W84180   7.871  11.364  16.206 -0.1777  0.0773  0.2348
41190W        W84181  18.115   0.707   0.286  0.2244  0.3578  0.2705
41191W        W84182  16.873   5.767  14.322 -0.0521  0.1554 -0.1634
41192W        W84183   6.132   8.325  19.774  0.1049  0.1227 -0.0135
41193W        W84184   1.416  29.802  18.797  0.2261 -0.0806 -0.2514
41194W        W84185  33.014  11.005  18.492 -0.0611 -0.1612  0.1130
41195W        W84186  26.940  19.277  23.465  0.0217  0.1996  0.1290
41196W        W84187  22.412  25.483  21.608  0.1513  0.2885  0.2569
41197W        W84188  13.220   9.995  23.441 -0.1246 -0.0729 -0.2118
41198W        W84189  13.631  24.292  28.517  0.0444  0.1563 -0.3281
41199W        W84190  10.087   4.655  16.043  0.0634 -0.0407  0.1953
41200W        W84191   9.342  10.149  18.813 -0.3452  0.2739  0.4335
41201W        W84192  25.266  14.096  19.541 -0.1474 -0.2283  0.1188
41202W        W84193  34.360  26.618   8.553 -0.5518 -0.3151  0.0190
41203W        W84194   9.434   8.077  19.791 -0.0380 -0.1607  0.1579
41204W        W84195  15.260  20.356  19.429  0.1400  0.2072  0.1403
41205W        W84196  19.970  26.090  23.286 -0.4970  0.2228 -0.1057
41206W        W84197  10.254  12.976  27.581 -0.1326  0.3804  0.1733
41207W        W84198  29.966  17.244  27.024  0.1609  0.2814 -0.1227
41208W        W84199   5.318  27.848  23.016 -0.1747  0.1236 -0.2411
41209W        W84200  21.810  15.352   2.965  0.1221 -0.2284 -0.2659
41210W        W84201  22.765  25.078  23.733 -0.1325 -0.2246 -0.3885
41211W        W84202  13.766  19.250  15.297 -0.4294 -0.0660 -0.0409
41212W        W84203  33.301  22.765  18.439  0.3720 -0.2673 -0.1264
41213W        W84204  13.281  13.257  26.902 -0.4772 -0.0290  0.0235
41214W        W84205  10.641   8.193   4.979 -0.2443 -0.1043  0.2493
41215W        W84206  16.305   7.268  23.947  0.2067 -0.1567  0.0991
41216W        W84207  32.795  30.110  14.424 -0.0579  0.0613 -0.2392
41217W        W84208   6.512   2.550   0.093  0.0725 -0.1879 -0.2000
41218W        W84209  32.342  29.636  16.990 -0.1374  0.1968  0.3218
41219W        W84210   8.933   2.065  18.602  0.0107  0.0276 -0.0070
41220W        W84211  17.988  33.459  22.009  0.1287 -0.0678 -0.2090
41221W        W84212  14.590  12.131  14.320  0.0484 -0.1283 -0.2034
41222W        W84213  10.750  29.742  16.402  0.0537 -0.0593 -0.1097
41223W        W84214  25.608  34.003  12.810  0.0587  0.0490 -0.1080
41224W        W84215   6.284   7.695  25.473 -0.1017 -0.1029  0.0432
41225W        W84216   3.004  12.003  20.668 -0.2360 -0.2616  0.2373
41226W        W84217   6.729  22.740   2.488  0.2614 -0.0387  0.4346
41227W        W84218  26.062  11.883  25.745 -0.2787  0.2128 -0.1211
41228W        W84219  16.079  13.043  14.561 -0.2206 -0.1676  0.0006
41229W        W84220  34.231   1.013  26.092  0.1118  0.2003 -0.0514
41230W        W84221  34.105   9.080  23.927 -0.1777  0.3075 -0.0629
41231W        W84222  17.149  34.520  18.616  0.0914 -0.3463 -0.3566
41232W        W84223  31.230  26.990  16.461 -0.0112 -0.0304 -0.0355
41233W        W84224  27.683  10.846  15.250 -0.0949 -0.1897 -0.3834
41234W        W84225   9.322  25.182  20.447  0.0054 -0.1520  0.2264
41235W        W84226  21.626  14.689   3.647  0.2924 -0.1395 -0.0371
41236W        W84227   7.829  19.039  17.176  0.2251  0.2353 -0.0073
41237W        W84228  20.665   8.391  25.331 -0.0003  0.2468  0.1804
41238W        W84229  26.681   3.583  17.781  0.0281  0.2084  0.4166
41239W        W84230  22.559   7.593  25.156  0.0269 -0.0081  0.1660
41240W        W84231   8.554  30.198  17.467  0.0202  0.2068  0.0715
41241W        W84232   6.253  22.250  20.220  0.3958  0.2416  0.1008
41242W        W84233   7.631  21.930  18.617  0.1525  0.0049  0.0394
41243W        W84234   8.455  11.656  17.304  0.0575  0.0310 -0.0975
41244W        W84235   6.799  27.602  21.284  0.2173  0.0665 -0.1188
41245W        W84236  32.632   6.376  29.008 -0.0490 -0.0035  0.2063
41246W        W84237  11.292   3.550  20.839 -0.1652  0.0230 -0.0592
41247W        W84238  17.735  19.416  13.005 -0.1877 -0.1529 -0.1129
41248W        W84239  10.056  16.336  26.766  0.0866  0.2873  0.1845
41249W        W84240  13.054   0.324  16.052  0.0544 -0.5315  0.0111
41250W        W84241  19.923   4.004  22.599  0.2405  0.3467 -0.1098
41251W        W84242  26.482  23.908  25.782  0.0146 -0.4129 -0.2136
41252W        W84243  25.985   6.143  25.111  0.0780 -0.1326  0.0378
41253W        W84244   7.251   7.886  21.661  0.0367 -0.0921  0.0127
41254W        W84245  13.741   1.791  26.885 -0.3442 -0.1556 -0.1706
41255W        W84246   0.059   4.403  18.491  0.1538  0.0680 -0.2108
41256W        W84247  12.043  21.183  14.302 -0.0315  0.1419 -0.1941
41257W        W84248  18.595   5.106  25.105  0.1239 -0.0824  0.1004
41258W        W84249   1.446  17.580   2.321 -0.0712  0.0605 -0.2329
41259W        W84250   9.941  15.741  15.344 -0.1771 -0.0948  0.1704
41260W        W84251  31.961   4.507  26.372  0.1177 -0.1774  0.0723
41261W        W84252  20.287  17.018   0.877  0.0715  0.1652  0.0104
41262W        W84253  24.573   8.492  17.370 -0.0582 -0.1511 -0.0119
41263W        W84254   9.854  21.735  17.909 -0.1547 -0.1846 -0.2045
41264W        W84255  15.861   4.052  16.652  0.1388  0.1867 -0.4044
41265W        W84256   3.639  12.133   9.699 -0.0449  0.1629 -0.0705
41266W        W84257  29.453   8.453  23.585  0.0323 -0.0930 -0.2613
41267W        W84258   7.998   9.075  21.164 -0.1489 -0.0216  0.1266
41268W        W84259   3.171   0.119  15.820  0.0122  0.0310 -0.1440
41269W        W84260   6.570  14.875  28.441  0.2429  0.2376  0.2575
41270W        W84261  18.685   7.864   0.875 -0.1679 -0.0909  0.0354
41271W        W84262  15.211   6.379  27.484  0.3541  0.0412  0.1443
41272W        W84263  14.793   7.423  21.409  0.0585  0.1790 -0.1014
41273W        W84264   3.571   6.117   4.508 -0.0020 -0.0206  0.4456
41274W        W84265   5.345   8.901  18.836  0.0843 -0.1742 -0.1135
41275W        W84266  30.504  32.930  20.054  0.0719  0.0461 -0.1758
41276W        W84267  14.529  13.528  18.994  0.1209 -0.1247 -0.0031
41277W        W84268  25.217  16.480  17.666  0.1757 -0.1376  0.1162
41278W        W84269   2.470   4.133  28.765  0.1426  0.2568 -0.1006
41279W        W84270  22.174  12.944  16.054 -0.2395  0.1040  0.3525
41280W        W84271   2.908  15.916  16.191 -0.0026 -0.0094 -0.0265
41281W        W84272  21.004  32.098  12.967 -0.0370  0.1214 -0.3179
41282W        W84273  14.684  13.630  15.274  0.2653 -0.0209  0.0443
41283W        W84274  22.417  22.249  15.774  0.1118  0.2311  0.2530
41284W        W84275  27.297  25.390  14.525 -0.2968 -0.0825 -0.0509
41285W        W84276   3.364   7.271  19.275 -0.1344 -0.0513 -0.0764
41286W        W84277  18.286   6.952  26.896 -0.1719  0.1477 -0.1688
41287W        W84278   0.193   8.411  18.177  0.0261 -0.0786  0.1060
41288W        W84279  33.942   9.951   7.409  0.1203 -0.3805  0.0725
41289W        W84280  13.353  33.867  19.103  0.0742 -0.3968  0.0137
41290W        W84281  11.180   4.176  15.722  0.2350 -0.1222  0.3138
41291W        W84282  12.993  10.813   9.867  0.3543  0.2559  0.0958
41292W        W84283  27.144  32.599   1.369  0.1936  0.3502  0.0901
41293W        W84284   8.534  25.154   5.110  0.0273  0.3076 -0.1215
41294W        W84285  29.119  32.640  22.542  0.0088  0.2660 -0.4176
41295W        W84286  19.456  17.628  28.832 -0.1948  0.0570  0.1029
41296W        W84287  12.283  16.185  15.586 -0.0880 -0.1087 -0.1220
41297W        W84288   0.581  25.583  14.534  0.0844  0.1708 -0.0754
41298W        W84289   8.522  12.122  29.073 -0.1575 -0.2587  0.0584
41299W        W84290  29.757  22.081  25.339  0.1602 -0.2750 -0.0500
41300W        W84291  18.619   2.251  22.076  0.0323 -0.1064  0.2540
41301W        W84292   1.768   5.508  10.882 -0.0406  0.0854  0.3055
41302W        W84293  34.117  17.664  22.121  0.1809  0.0899  0.2154
41303W        W84294  12.040  27.172  22.836  0.1411  0.2355 -0.0984
41304W        W84295  16.648  20.765  14.504 -0.0031 -0.1822 -0.4391
41305W        W84296   0.591  21.703  24.069 -0.1107  0.1683 -0.3464
41306W        W84297  30.333   4.583   1.018  0.1347  0.1173 -0.2101
41307W        W84298  26.512  13.214  17.193 -0.1278  0.1621  0.2829
41308W        W84299   4.305  24.167   2.972 -0.2038 -0.1676  0.3142
41309W        W84300  20.182  15.788  23.858  0.0124 -0.0846  0.1313
41310W        W84301  10.614   6.669  20.227 -0.4095  0.0208 -0.1611
41311W        W84302  10.557  13.413  27.640  0.0687 -0.2430  0.1708
41312W        W84303   8.291  31.472  20.427  0.2862  0.1016 -0.2021
41313W        W84304  17.242  14.961  15.474 -0.4785 -0.2638  0.2282
41314W        W84305  20.510  31.196  19.895 -0.1201 -0.0424  0.3962
41315W        W84306   2.736  34.705  15.703 -0.3538  0.2297 -0.0780
41316W        W84307  29.279  31.621  14.380 -0.0959  0.1878  0.1857
41317W        W84308   1.646  10.230  17.253  0.1854 -0.0826  0.2793
41318W        W84309  21.524  16.188  16.663  0.3391 -0.0687 -0.2409
41319W        W84310  18.594  30.428  22.465  0.1421  0.2937  0.1391
41320W        W84311  32.897  13.200  21.567 -0.0568  0.2234 -0.3714
41321W        W84312   9.324  11.564  21.283 -0.0036  0.1830  0.0957
41322W        W84313   8.258  18.860  20.819 -0.2743 -0.2566 -0.0298
41323W        W84314  24.589  17.219  16.892  0.3509  0.0608  0.2291
41324W        W84315  25.140  23.767   0.998 -0.3212  0.1798  0.1719
41325W        W84316   4.068  17.064   7.927  0.1866  0.1292 -0.1407
41326W        W84317  32.315  13.001   4.979 -0.1921  0.1041  0.5188
41327W        W84318  12.977   2.514   0.490  0.2578  0.0086 -0.0388
41328W        W84319   3.641  11.104  22.684  0.2475  0.0055  0.1335
41329W        W84320   9.959  25.316   3.548 -0.1260 -0.0961  0.0731
41330W        W84321  11.177  12.174  19.001 -0.1649  0.3437 -0.3690
41331W        W84322   3.045   3.907  20.024 -0.0423  0.2136  0.0599
41332W        W84323  32.484  13.679  27.941 -0.0533 -0.1340  0.1092
41333W        W84324   6.900  27.236  22.503 -0.2237  0.1920  0.1393
41334W        W84325   5.918  21.278  19.251 -0.1861  0.0022 -0.0192
41335W        W84326   5.795  20.263  22.689  0.0182  0.0835  0.3978
41336W        W84327  12.357  18.552  25.355  0.0297 -0.0776  0.1263
41337W        W84328   8.800  24.013   1.044  0.0738  0.1547  0.3476
41338W        W84329   5.872  33.278  19.180 -0.1992  0.2398  0.0340
41339W        W84330  29.644  11.757  16.866  0.0035 -0.3698 -0.3820
41340W        W84331  16.409   0.277  26.108  0.1205 -0.1533 -0.2396
41341W        W84332   8.312  10.913  26.159  0.0567 -0.1328  0.1810
41342W        W84333  22.949   0.074  18.194  0.2728  0.0363 -0.0053
41343W        W84334  32.572  12.452  18.482 -0.2002 -0.0705  0.0106
41344W        W84335   7.073   2.469  23.577 -0.2164 -0.0469  0.1555
41345W        W84336  10.506   9.505  22.546  0.0001 -0.3719 -0.1513
41346W        W84337   0.232  14.523  17.882 -0.0090 -0.1756 -0.2180
41347W        W84338  10.559  10.122  19.719  0.0704  0.0753  0.0334
41348W        W84339   7.411  12.657  22.539  0.2004  0.0802 -0.1239
41349W        W84340  15.006   4.817  19.668 -0.2154 -0.0056  0.2668
41350W        W84341   9.118  16.596  25.315 -0.2023 -0.0691 -0.1163
41351W        W84342  13.755  10.904   3.523 -0.0451  0.2338 -0.3873
41352W        W84343  12.959   5.967   0.897  0.3147  0.0821 -0.1009
41353W        W84344   8.517  33.955  20.470  0.0543 -0.0795  0.1090
41354W        W84345   6.761  10.826  15.677 -0.1899 -0.1213 -0.0966
41355W        W84346   3.982  30.475  19.084  0.1205  0.0674  0.1647
41356W        W84347   8.637   2.165   3.772 -0.1480  0.0801  0.0198
41357W        W84348  14.259  14.575  17.504  0.0685  0.0098  0.2006
41358W        W84349  13.808   8.249  28.647  0.1162  0.4052 -0.1593
41359W        W84350  26.194  20.208  26.643 -0.1106  0.2093 -0.1316
41360W        W84351   6.810  21.265  18.834  0.0254  0.0714 -0.2474
41361W        W84352  27.540  12.159  21.528  0.1326  0.1674 -0.0909
41362W        W84353  14.450   8.419  17.529 -0.2558 -0.2002  0.1070
41363W        W84354  21.012   5.360   5.961 -0.0531  0.1260  0.1134
41364W        W84355  12.457   8.534   7.543 -0.1345  0.0008  0.2632
41365W        W84356  11.555  15.605   2.699 -0.0775 -0.1982  0.2931
41366W        W84357  17.799   9.950  14.577  0.4256  0.0478 -0.0151
41367W        W84358   4.379  17.810  18.380 -0.0498  0.1380 -0.0402
41368W        W84359  32.136   2.285  16.552  0.1316  0.0585 -0.0228
41369W        W84360  31.330  13.240   9.790  0.0429  0.3316  0.1804
41370W        W84361  15.304  23.313  19.061  0.1780  0.0829 -0.0208
41371W        W84362  15.242  13.420  20.507  0.1973  0.1297 -0.4724
41372W        W84363   3.622  19.719  26.715  0.0056 -0.1607  0.3505
41373W        W84364  24.818   7.109  16.133 -0.0287  0.1864  0.1877
41374W        W84365  21.953  27.033   0.157  0.1040  0.0265  0.0183
41375W        W84366  10.420   2.322  17.159 -0.2694  0.2020 -0.2850
41376W        W84367   4.623  33.609  15.272  0.0994 -0.0021  0.0925
41377W        W84368  33.891  15.035  21.028 -0.0139 -0.0039 -0.0258
41378W        W84369   9.729  17.832  14.300  0.0271  0.0808 -0.0234
41379W        W84370  20.376   5.593  18.814 -0.0930 -0.0220 -0.0585
41380W        W84371   0.591  14.682   5.095 -0.0333  0.2222 -0.3291
41381W        W84372  24.801   6.401  28.462 -0.1320 -0.0797  0.1606
41382W        W84373  12.979  26.328  23.521 -0.0576  0.2523  0.3420
41383W        W84374  20.076   7.828  16.918  0.3125 -0.2418  0.2670
41384W        W84375   6.651  15.945  18.017  0.0544 -0.0965  0.1279
41385W        W84376   5.054   0.992  15.809  0.1816  0.1086  0.0933
41386W        W84377  13.143   7.565  17.699  0.1234 -0.0727 -0.0601
41387W        W84378   1.400  19.333  17.365  0.0680 -0.0950  0.0388
41388W        W84379   9.598  18.669  14.455  0.2220  0.1282  0.0801
41389W        W84380  10.161  16.096  16.386 -0.0979  0.0631  0.2174
41390W        W84381   5.025   4.720  19.995  0.4741  0.0745  0.1699
41391W        W84382  13.805  33.436   1.166 -0.2299  0.0208  0.1058
41392W        W84383  30.120   8.435  21.037 -0.0697  0.0569  0.2652
41393W        W84384   8.477  10.573  19.286 -0.1636  0.0005  0.1310
41394W        W84385  13.805  29.782  22.068 -0.3296  0.1648 -0.0983
41395W        W84386  14.746  31.991  24.603  0.2298 -0.0919  0.3585
41396W        W84387  32.765  13.714  17.953 -0.1193  0.0419  0.0142
41397W        W84388   0.293  24.159  17.715 -0.1674 -0.1927 -0.0460
41398W        W84389  16.914  32.442  14.888 -0.0347  0.2621 -0.3336
41399W        W84390  21.193  33.559  23.368  0.0423  0.4541 -0.2848
41400W        W84391  12.856  18.479  19.899 -0.0873  0.3102  0.2136
41401W        W84392  19.893  29.091  27.550  0.2264  0.0354 -0.3631
41402W        W84393   2.571   9.671  19.896  0.1109 -0.0778  0.1009
41403W        W84394   8.908  22.773  15.540 -0.0988 -0.1326  0.0547
41404W        W84395  11.473   9.010  24.387 -0.0532  0.5383 -0.0814
41405W        W84396  21.149  32.148  23.434 -0.2542  0.1291  0.3867
41406W        W84397  20.771  31.981  14.896 -0.2041  0.3203 -0.1059
41407W        W84398  21.770  20.789  19.924 -0.1228 -0.0595  0.0006
41408W        W84399  11.401   7.630  16.087  0.2529  0.0438 -0.5457
41409W        W84400  31.339  12.719  21.612  0.2479 -0.2490 -0.0185
41410W        W84401  19.371  20.925  19.027 -0.2226 -0.0023  0.0712
41411W        W84402  16.198  13.129  19.615 -0.3603  0.0739  0.2316
41412W        W84403  13.284  13.569  20.605  0.3331 -0.0454  0.1057
41413W        W84404   3.886  17.649  21.149 -0.0240 -0.1711 -0.0394
41414W        W84405  20.928   7.183  14.859 -0.3521  0.1652  0.1220
41415W        W84406   1.566  20.592  17.338 -0.0450  0.1579 -0.0187
41416W        W84407  25.735  29.850  22.611 -0.0887  0.1360 -0.2475
41417W        W84408  17.244  10.750  27.725  0.0086  0.1131  0.1259
41418W        W84409   1.929   9.594  19.082 -0.1980  0.2244 -0.3683
41419W        W84410   5.972   9.801  17.335  0.1663 -0.2102  0.2046
41420W        W84411  24.466  19.680  13.946  0.2230  0.1346  0.0942
41421W        W84412  15.203  25.775   8.857 -0.0205 -0.2259  0.1644
41422W        W84413   2.703  30.715  22.173  0.3196  0.1394 -0.0094
41423W        W84414   0.403  15.222  17.726 -0.1665  0.1269  0.2322
41424W        W84415  16.773   4.483  19.367  0.1885  0.0321  0.1191
41425W        W84416  21.086  30.464  17.952  0.3835  0.0271  0.2351
41426W        W84417  10.700  12.450  15.114 -0.3206 -0.2582 -0.0859
41427W        W84418  17.411  32.685  25.874  0.1821  0.0846  0.1275
41428W        W84419  11.199  16.890  16.202 -0.1253 -0.0521 -0.0721
41429W        W84420  10.759  10.905   9.785  0.1058  0.2204  0.1233
41430W        W84421  12.098  16.194  23.320  0.0619  0.4626 -0.1311
41431W        W84422  12.964   6.881   2.335 -0.1133  0.0555 -0.0462
41432W        W84423   9.178   5.719  14.970 -0.0520  0.1442 -0.1777
41433W        W84424  17.789  31.509  19.625  0.0496 -0.1885  0.0409
41434W        W84425  18.587  20.419   7.541  0.2147  0.0788  0.1210
41435W        W84426   6.688   4.686  18.404 -0.0680 -0.0671 -0.0942
41436W        W84427  33.677   7.035  22.644  0.0198 -0.0038  0.1026
41437W        W84428  20.193  26.138  14.954 -0.0790  0.2617  0.1144
41438W        W84429  14.821  13.114  20.670 -0.0837 -0.1650 -0.1043
41439W        W84430  14.748   8.412  18.557 -0.1558 -0.0589  0.1269
41440W        W84431   0.736  18.050  20.506  0.3376 -0.1888 -0.3263
41441W        W84432  26.951  15.583   0.783 -0.0515  0.6763  0.1963
41442W        W84433   8.034  13.145  16.481 -0.3140  0.0912  0.3620
41443W        W84434   9.902  14.463  15.542 -0.0048 -0.0787 -0.1239
41444W        W84435   4.285   4.367  19.517 -0.1604  0.1197  0.2843
41445W        W84436   8.047   6.502  18.767 -0.0412 -0.3994 -0.0343
41446W        W84437   5.897  33.868   4.264 -0.2404  0.3966 -0.1568
41447W        W84438  20.653  14.429  25.064 -0.2160  0.3294 -0.1370
41448W        W84439  11.296  11.423  20.106  0.1262  0.0574  0.1275
41449W        W84440  10.014  26.572  18.287  0.3714  0.0228 -0.0842
41450W        W84441   4.453  28.157  16.282 -0.0694 -0.0736  0.1916
41451W        W84442   1.132  16.582  28.760  0.4093  0.0388  0.0202
41452W        W84443   7.726  16.189  20.430  0.0635 -0.2358 -0.1167
41453W        W84444  11.833   5.912   2.321  0.2705  0.2023  0.1187
41454W        W84445   0.280  27.523  28.426 -0.1579 -0.0444 -0.0087
41455W        W84446  13.076   5.687  17.163  0.0937  0.0183  0.0274
41456W        W84447  20.756  23.712  21.767 -0.0868 -0.0435 -0.1258
41457W        W84448  17.788  13.260  16.172  0.0330  0.3486 -0.2927
41458W        W84449  11.576  22.964  27.702 -0.4131  0.0112 -0.3413
41459W        W84450  15.808  19.626  15.229 -0.0232  0.1497 -0.1819
41460W        W84451   7.236   9.479  20.825  0.1898  0.0524 -0.1114
41461W        W84452  23.753  11.206   2.088  0.2015 -0.1920 -0.2072
41462W        W84453  13.572  11.535  18.752  0.1288 -0.4346  0.2287
41463W        W84454   6.961  13.379   9.613 -0.0885 -0.0955  0.0983
41464W        W84455  20.042  26.906   0.629 -0.0318  0.2605  0.1532
41465W        W84456   9.214  30.380  25.885 -0.2031  0.0680  0.0319
41466W        W84457   3.897   8.673  23.394  0.1340 -0.1311 -0.1943
41467W        W84458  22.970  27.593  17.163  0.1210 -0.0439 -0.0589
41468W        W84459  16.614  10.983  19.074  0.1080  0.0120  0.1664
41469W        W84460  17.838  13.556   2.732  0.0658 -0.0202 -0.0268
41470W        W84461  16.120  29.936   2.855 -0.3389 -0.0453 -0.0601
41471W        W84462   8.217   8.634  28.259 -0.1681  0.1617  0.0556
41472W        W84463  20.129  33.194  22.120  0.1298  0.1799 -0.0267
41473W        W84464  18.127  12.003  22.770 -0.1986  0.3518 -0.0049
41474W        W84465  12.397  23.264  20.374 -0.1011  0.1151  0.0182
41475W        W84466  12.205   5.201  24.947  0.0891  0.0380  0.4269
41476W        W84467  29.217  24.744  23.574  0.0459  0.1571 -0.2113
41477W        W84468  13.149  16.873  21.456 -0.2777  0.1757  0.2547
41478W        W84469  22.780   9.098  13.986 -0.1911  0.1235  0.0506
41479W        W84470  24.097   6.430  13.353 -0.1622  0.1123  0.0332
41480W        W84471  20.460  34.244  17.253  0.4011  0.0359  0.0007
41481W        W84472   3.519  32.517  26.801 -0.1508  0.1680  0.2344
41482W        W84473  10.346   1.007   7.586 -0.1716 -0.1084 -0.1828
41483W        W84474  19.058   5.516  26.720  0.2202  0.1239  0.1660
41484W        W84475  17.232  13.140  15.974  0.1504  0.0355 -0.0907
41485W        W84476   9.670  16.108   0.105 -0.3440 -0.2584  0.0200
41486W        W84477  13.584   7.059  15.698  0.0996  0.3764 -0.0361
41487W        W84478   7.945   8.716  28.722 -0.1656  0.3108 -0.0595
41488W        W84479   4.485   9.521  22.143  0.1943  0.0982  0.2271
41489W        W84480  16.892  10.586  19.840 -0.0076 -0.4207 -0.0733
41490W        W84481  19.020   5.955  14.903  0.1045 -0.1964  0.2238
41491W        W84482  13.220  16.951  21.953 -0.0470  0.4008 -0.2377
41492W        W84483  28.131   7.399  24.508 -0.2952  0.0107  0.0154
41493W        W84484  12.746  30.686   0.428  0.1790 -0.1613 -0.1105
41494W        W84485  31.497  12.605  22.909  0.0664 -0.1016  0.1620
41495W        W84486  31.865   0.485  28.742  0.1518  0.0090  0.2643
41496W        W84487  13.182   5.094  27.818  0.2826  0.0218  0.1421
41497W        W84488   1.244   6.720  19.028 -0.1126  0.2398  0.1192
41498W        W84489  23.370   7.895  28.462 -0.4631 -0.2365  0.1633
41499W        W84490  34.743  14.229   5.893 -0.1558  0.2272  0.4618
41500W        W84491  10.806  11.973  20.632 -0.3325  0.1691  0.0297
41501W        W84492  18.401  29.369  16.857  0.2000  0.0038  0.2313
41502W        W84493   9.619  25.499  21.332 -0.1183 -0.0691 -0.1876
41503W        W84494  16.560  28.032  15.070  0.0850  0.4354 -0.1099
41504W        W84495  18.545  14.395  15.705 -0.0545 -0.0940 -0.1583
41505W        W84496  12.663  14.954  16.856  0.0329 -0.1885  0.3120
41506W        W84497   7.229   9.649  18.262  0.2528 -0.4349  0.1299
41507W        W84498  30.375   2.204  23.581  0.0695  0.1445 -0.0958
41508W        W84499   9.129  18.255  19.306  0.1434 -0.1835  0.2482
41509W        W84500  31.001   2.254  19.720  0.0895  0.0692 -0.2198
41510W        W84501  10.389   1.076   3.737  0.0956  0.0527  0.1960
41511W        W84502  28.776  15.790  26.550  0.0178  0.1126  0.0920
41512W        W84503  16.480  13.911   7.582  0.0333  0.2725 -0.0184
41513W        W84504   4.709  10.587  17.259 -0.1843  0.0250  0.0486
41514W        W84505   9.574   7.135  17.038  0.1987  0.1921 -0.3136
41515W        W84506  32.819  23.738  20.944  0.1740  0.0113  0.0340
41516W        W84507  15.976   5.038   0.744  0.1448  0.3504  0.2112
41517W        W84508   6.478   3.583   9.955 -0.0158  0.0481 -0.3922
41518W        W84509  28.062  11.367  24.597  0.3675 -0.3054  0.0543
41519W        W84510  11.628  16.695  14.951  0.0935 -0.0934 -0.5687
41520W        W84511  10.109  17.882  18.588  0.3061  0.1025 -0.0195
41521W        W84512   9.444   9.828  10.662 -0.1189  0.0467 -0.0959
41522W        W84513   5.834   8.147  16.571 -0.1149 -0.2010 -0.0997
41523W        W84514  33.603  13.571  16.735  0.0317 -0.2758  0.1875
41524W        W84515   4.448  23.696  21.514 -0.4437  0.1622  0.0754
41525W        W84516   9.469   6.794  20.037  0.2542 -0.0097 -0.3285
41526W        W84517   6.153  12.997  25.625  0.1976 -0.1530  0.2728
41527W        W84518  10.884   4.067  20.996  0.3814  0.0793 -0.1969
41528W        W84519   6.945  10.757  22.167 -0.1837  0.4011  0.0345
41529W        W84520   4.719  29.049  24.272 -0.1620 -0.1446  0.1567
41530W        W84521   8.099   8.737   0.853 -0.2426 -0.1619 -0.4812
41531W        W84522  11.954  14.519  23.539  0.2614  0.2426 -0.1877
41532W        W84523  12.558  26.742   3.277  0.0462  0.2564 -0.1812
41533W        W84524  11.266   1.792   0.077  0.1308  0.2014  0.3896
41534W        W84525  29.626  12.045  28.010 -0.0512 -0.0402  0.1049
41535W        W84526  34.009   1.519  24.319  0.1479 -0.0233  0.0415
41536W        W84527  28.547  20.964  23.572 -0.3230  0.1373  0.2267
41537W        W84528  27.443   1.100  13.675  0.0832  0.1121 -0.4762
41538W        W84529  18.591   8.687  24.386 -0.1696 -0.2715 -0.2257
41539W        W84530   6.749  15.241  28.084  0.1678 -0.0642  0.0274
41540W        W84531  13.655  14.311  21.675  0.0358 -0.0029  0.0204
41541W        W84532  21.122   9.086  23.408  0.3032 -0.0517 -0.1443
41542W        W84533   1.719  15.514   9.614 -0.1278  0.0991  0.1787
41543W        W84534   1.876  18.655  17.181  0.2050 -0.0871  0.1861
41544W        W84535  12.813   7.280  18.858 -0.4415 -0.1935  0.2769
41545W        W84536  24.924  26.089   4.589  0.1166  0.1531 -0.3002
41546W        W84537  25.927  17.779   7.912  0.1468  0.2793  0.2333
41547W        W84538   4.678  15.431  17.500  0.0067  0.0331 -0.1613
41548W        W84539   9.564  26.096  14.060 -0.4507 -0.0428 -0.0953
41549W        W84540  30.743   2.703   9.846 -0.1678  0.4137  0.0093
41550W        W84541   4.641  11.344  20.781  0.3038 -0.0689  0.1674
41551W        W84542  14.371  13.040  21.905 -0.0372 -0.2522 -0.1063
41552W        W84543  14.034  29.864  18.127  0.0716 -0.2572 -0.1519
41553W        W84544   8.673  12.628  22.032 -0.1623 -0.1214 -0.3166
41554W        W84545  27.651  16.199  24.213 -0.1305 -0.0842  0.0118
41555W        W84546  24.243  34.100   2.535 -0.0390 -0.0721 -0.2308
41556W        W84547   5.715  17.791  16.326 -0.0487 -0.0409  0.0856
41557W        W84548  13.213  14.041  19.829 -0.2069 -0.1939  0.0975
41558W        W84549  13.188  20.735   0.346  0.2396 -0.3437  0.1536
41559W        W84550  11.359  18.640  23.521 -0.1367 -0.1696 -0.2960
41560W        W84551  13.538  24.458  17.298 -0.0554 -0.0409 -0.1681
41561W        W84552  23.932  16.952  26.297  0.1710 -0.1388 -0.1367
41562W        W84553   0.538  20.501  23.474 -0.1204  0.0927  0.2770
41563W        W84554  30.462  20.913  19.213 -0.1882  0.3370 -0.0292
41564W        W84555  15.929   8.876  18.999 -0.3253  0.1919 -0.3751
41565W        W84556  26.460   5.263  23.051 -0.0339  0.3313  0.4215
41566W        W84557  12.441  19.563  13.462 -0.1573 -0.0444 -0.1704
41567W        W84558  23.989  15.803  16.108 -0.0636  0.1103  0.3435
41568W        W84559   3.766  11.337   4.733  0.0579  0.1769 -0.0191
41569W        W84560  17.523  13.951  27.945 -0.1694  0.1843  0.2113
41570W        W84561  19.884  19.615  28.576 -0.1083  0.1165 -0.0218
41571W        W84562   7.460  11.355   3.750 -0.2320 -0.1492  0.2193
41572W        W84563  31.833  13.599  20.740  0.0102 -0.3002 -0.0073
41573W        W84564  27.574  12.413  10.236  0.0229  0.2092 -0.0786
41574W        W84565   9.126  13.136  17.315 -0.1092 -0.1098 -0.0261
41575W        W84566   5.648   0.410  24.944  0.2502  0.0011 -0.3647
41576W        W84567  10.608  21.222  27.812  0.0152  0.1274 -0.0859
41577W        W84568  16.266  23.002   3.696 -0.1250 -0.2691  0.1947
41578W        W84569   2.559   3.860  15.399 -0.2991  0.0593  0.1128
41579W        W84570   7.057  32.416  27.148 -0.0146  0.1187 -0.2200
41580W        W84571   6.038  27.371  21.407 -0.2070  0.0726  0.2656
41581W        W84572  14.822   4.918   2.762 -0.0013 -0.2701  0.1959
41582W        W84573   7.440   9.657  26.106 -0.2235  0.1384 -0.0345
41583W        W84574   8.571  25.315  21.627  0.0243 -0.3704  0.1745
41584W        W84575  15.314  23.455  26.167 -0.0688 -0.0023  0.0651
41585W        W84576   3.373   3.551  20.192 -0.3737  0.0469  0.0831
41586W        W84577   9.133  12.882   2.057  0.3966 -0.4706 -0.0064
41587W        W84578  33.009  17.578  21.037  0.2886 -0.4157 -0.1288
41588W        W84579  13.055   2.196  24.689 -0.0701  0.1716 -0.1476
41589W        W84580  22.535   8.671  28.617  0.0208 -0.0511 -0.0766
41590W        W84581  32.998  14.867  27.882 -0.1769 -0.0287 -0.0817
41591W        W84582  12.626  27.559  27.392 -0.1497  0.2626  0.2096
41592W        W84583   1.534  28.218   6.093 -0.1352  0.0647 -0.3962
41593W        W84584   0.237   8.952   5.378  0.3080  0.1472 -0.0038
41594W        W84585  29.047   0.406  20.158 -0.0898  0.3604 -0.2458
41595W        W84586  18.506  11.336  26.279  0.1985 -0.4065  0.2153
41596W        W84587  18.346  11.172  14.120 -0.0033  0.2429  0.0372
41597W        W84588  12.596   6.342   0.277 -0.3122 -0.0090 -0.5314
41598W        W84589   4.851  22.077   9.174  0.1458  0.3211 -0.1265
41599W        W84590   2.018   6.397   7.596  0.3085 -0.0163  0.1088
41600W        W84591   9.241   6.672  26.430  0.0287 -0.0509 -0.4776
41601W        W84592  26.439  13.682   8.319 -0.1968  0.5994  0.0005
41602W        W84593  22.172  31.928  17.740  0.0728  0.0728  0.1564
41603W        W84594  33.494  16.292  20.970  0.0304  0.2565  0.2140
41604W        W84595  23.504  14.257  21.327  0.2469 -0.2976 -0.0374
41605W        W84596  20.452   7.053  16.455 -0.2828  0.1518  0.2642
41606W        W84597   2.608  25.314  22.976 -0.1721  0.0102  0.2211
41607W        W84598   9.902   7.659   8.570 -0.2502 -0.2693 -0.0549
41608W        W84599  15.002  10.059  17.759 -0.2125  0.2076  0.4321
41609W        W84600  32.414   9.350  24.064  0.1065  0.0817  0.0086
41610W        W84601  34.316  20.327  26.561  0.0668 -0.0702  0.3474
41611W        W84602  29.794  23.980  17.499  0.0302 -0.1911 -0.2006
41612W        W84603  23.522  14.818  15.869 -0.0434  0.0666 -0.3003
41613W        W84604  15.175  11.472  20.827 -0.0955  0.1450  0.1308
41614W        W84605  12.814  24.369  28.165  0.3227  0.2578 -0.1604
41615W        W84606   9.938   4.122  22.601 -0.2033  0.2176 -0.0419
41616W        W84607  17.437  26.941  28.925  0.0288  0.1235 -0.1002
41617W        W84608  16.528   9.257  20.545 -0.1091 -0.0852 -0.2524
41618W        W84609  15.986  29.233  17.419  0.1594  0.4285 -0.0396
41619W        W84610   8.361   2.937  14.080  0.1360 -0.3873  0.2429
41620W        W84611   3.539  34.595  19.885 -0.0522 -0.1526 -0.0625
41621W        W84612  10.988   9.074  24.497  0.2834 -0.0625 -0.2868
41622W        W84613  19.365  17.398  13.162 -0.1051 -0.0254  0.1028
41623W        W84614   8.212  18.548  24.151  0.1002  0.1579 -0.0452
41624W        W84615   8.349  14.543   0.654  0.3307  0.0531  0.1843
41625W        W84616  25.765   5.035   3.047  0.0139  0.3031 -0.0954
41626W        W84617   1.233   5.418  19.825  0.1956  0.4414  0.0521
41627W        W84618  32.845  33.934  25.623 -0.0444  0.0151 -0.0279
41628W        W84619   8.720   7.594  17.064 -0.1724 -0.0205 -0.0755
41629W        W84620   4.662  28.242  17.835 -0.0711  0.3149 -0.2459
41630W        W84621   4.928  31.248   0.442  0.1186  0.0144 -0.0586
41631W        W84622   7.183   5.610   0.796  0.1673 -0.0151 -0.0908
41632W        W84623  20.936  13.244  22.052  0.1912 -0.4744 -0.3235
41633W        W84624   3.629  22.943  28.499  0.0155  0.3623 -0.0384
41634W        W84625  12.476  17.344  21.075 -0.1253 -0.0715  0.2415
41635W        W84626  15.414  29.710  19.338 -0.1061 -0.0545  0.2423
41636W        W84627  27.656  21.534  27.646 -0.3268  0.0314  0.2837
41637W        W84628  29.575  21.875  21.588 -0.2847 -0.1652  0.2636
41638W        W84629   5.940  19.555  23.878 -0.2119 -0.0163 -0.0407
41639W        W84630   2.377  13.509  25.734 -0.2786 -0.1873 -0.3473
41640W        W84631  10.798  17.911   6.775  0.1645 -0.0343  0.1607
41641W        W84632  12.324  24.264  19.595 -0.1343 -0.2812 -0.3244
41642W        W84633   7.453  11.468  15.317 -0.1614  0.2747 -0.1880
41643W        W84634  19.428   3.510  18.734 -0.3797  0.2953  0.0404
41644W        W84635  12.697  11.124  18.060 -0.1936  0.0126  0.0272
41645W        W84636   7.662   9.346  26.411  0.0931  0.0741 -0.3139
41646W        W84637  26.621  15.681   9.232 -0.2164 -0.3231 -0.2707
41647W        W84638   7.501  30.748  19.086 -0.0481 -0.1745  0.0897
41648W        W84639  15.698   2.692  21.321 -0.0371  0.2927 -0.1508
41649W        W84640  29.735  32.284  15.306  0.0356  0.1380 -0.0519
41650W        W84641  30.325  12.895   8.252  0.0257 -0.2564 -0.1157
41651W        W84642  15.823  12.472  20.282 -0.2016 -0.0539 -0.1773
41652W        W84643   3.731  22.627  18.435  0.0592  0.1232  0.1937
41653W        W84644  17.545  26.200  17.088 -0.2398 -0.3174  0.0245
41654W        W84645   2.309  13.676  22.211  0.2829 -0.1967  0.0821
41655W        W84646  24.869  16.952  22.432 -0.0420  0.2508 -0.3338
41656W        W84647  10.256  10.631   2.803 -0.1891 -0.0569 -0.2477
41657W        W84648   3.616   3.884  24.519 -0.0513  0.0545 -0.2049
41658W        W84649  32.615  11.351  18.432  0.1077 -0.3163 -0.2146
41659W        W84650  33.517   7.136   9.510  0.2868 -0.0602  0.0807
41660W        W84651  17.249  11.829  25.963 -0.3193 -0.2815  0.0568
41661W        W84652   3.159  17.716  16.593 -0.0872  0.3494 -0.0122
41662W        W84653  14.140   8.769  15.690  0.3445  0.0703  0.0511
41663W        W84654   5.757   3.713  20.794  0.1964  0.0800 -0.1262
41664W        W84655  15.898   9.756  18.878  0.4158 -0.0848 -0.2618
41665W        W84656   5.700  19.766  28.983  0.1745 -0.3408  0.1194
41666W        W84657  10.856  12.774  15.493 -0.3552  0.0587 -0.1590
41667W        W84658  32.868  10.571  23.618 -0.2518 -0.2305  0.1492
41668W        W84659  18.843  11.333  21.715 -0.0266 -0.2402 -0.1071
41669W        W84660  14.037   4.948  27.166  0.1030  0.1552 -0.0208
41670W        W84661   4.031  32.177   2.082  0.0338  0.2830  0.0036
41671W        W84662   9.781  12.046  16.954 -0.2246  0.3720  0.0570
41672W        W84663   9.130  25.994   6.544  0.0526  0.2117 -0.1635
41673W        W84664  20.699  20.528  18.436  0.0744 -0.0367 -0.0063
41674W        W84665  27.081  24.436  17.037  0.3211  0.0444 -0.0659
41675W        W84666   2.335   2.818  15.262 -0.1510  0.0690 -0.0510
41676W        W84667  24.961  28.484  29.256 -0.2649  0.1006 -0.2144
41677W        W84668  17.855  15.449   6.445  0.1393  0.1649  0.1395
41678W        W84669  16.507   7.260  26.209 -0.0899  0.0427 -0.1755
41679W        W84670  10.816  21.958   6.860  0.1200 -0.3220  0.1026
41680W        W84671  23.387   6.509  22.213  0.1330 -0.0250  0.0593
41681W        W84672   8.731  30.494  28.219 -0.0367  0.0625 -0.1013
41682W        W84673  16.643   4.108   5.399  0.0245  0.0614 -0.1313
41683W        W84674  14.915  31.765   9.782  0.0627 -0.1023  0.0570
41684W        W84675   9.687  12.777  18.729 -0.1350 -0.2463  0.1676
41685W        W84676  16.498  12.090   2.057 -0.4919 -0.0038  0.3044
41686W        W84677  17.726  34.157  19.782  0.2318 -0.0182 -0.1257
41687W        W84678  17.479   8.607  25.788  0.0118  0.1693  0.2032
41688W        W84679  31.692  16.031   0.780 -0.0168 -0.4394 -0.0648
41689W        W84680   5.687  11.713  16.828  0.0639  0.1589  0.0435
41690W        W84681  25.228  21.339  13.240 -0.2857  0.0475  0.3630
41691W        W84682  16.210  26.398  23.952  0.1226 -0.2090 -0.3337
41692W        W84683  11.056  27.856  15.704 -0.0755  0.3040 -0.2955
41693W        W84684  13.411   6.343  28.956  0.0469  0.0283 -0.0153
41694W        W84685   2.168  25.505  26.290  0.0204  0.2167 -0.0948
41695W        W84686   7.676  13.153   6.207 -0.0949  0.1219  0.0416
41696W        W84687  11.369   8.232  20.908 -0.0992  0.0514 -0.1172
41697W        W84688   0.010   8.113  22.340 -0.0154  0.1095  0.2905
41698W        W84689  34.374   8.151  28.039 -0.0827  0.0845 -0.0826
41699W        W84690  12.955  21.925  26.320  0.3216  0.0885 -0.0732
41700W        W84691   4.365  22.914  14.984  0.5246  0.1579 -0.0350
41701W        W84692   2.989   1.821  26.102  0.3916 -0.2642  0.0190
41702W        W84693   5.684   7.371  20.098 -0.1323  0.0874 -0.3291
41703W        W84694  24.693  27.579   3.606  0.2548 -0.3231  0.0310
41704W        W84695  12.258  14.427   5.548 -0.1721 -0.2187 -0.1444
41705W        W84696   7.610  13.898  25.953  0.2276  0.0083  0.0998
41706W        W84697   6.474  10.998  19.887  0.3427  0.0443 -0.0287
41707W        W84698  15.295   2.165   6.529 -0.2109 -0.3370 -0.1164
41708W        W84699   6.057  16.220  18.557  0.2412  0.5440 -0.2038
41709W        W84700   0.700   6.636  26.559  0.2380  0.1304 -0.0608
41710W        W84701  12.526  20.601  24.534  0.0659 -0.0757 -0.2965
41711W        W84702  11.386  17.491  18.872 -0.0780 -0.2030 -0.0155
41712W        W84703  12.810  26.952  28.562 -0.0086 -0.1668  0.0107
41713W        W84704  14.580  28.589  27.879  0.3987 -0.2256  0.2356
41714W        W84705   3.414  20.954   4.030  0.1065  0.5873  0.3829
41715W        W84706   0.772   9.398  17.235 -0.1457  0.0978  0.1099
41716W        W84707  23.825  10.633  15.754 -0.6699  0.0447  0.1783
41717W        W84708  19.615  24.509  25.014 -0.0105 -0.2432 -0.2900
41718W        W84709  12.407  10.563  19.258 -0.0072  0.0265 -0.0172
41719W        W84710  13.555  30.315  24.181 -0.2102  0.0060 -0.0656
41720W        W84711   9.738   8.124  20.783  0.5112 -0.0718  0.1704
41721W        W84712   7.205  19.502  24.413 -0.0168  0.0369  0.1534
41722W        W84713   6.248   7.297  18.252  0.1163 -0.1171  0.1146
41723W        W84714  15.030  27.071  22.649  0.1266  0.2137  0.1043
41724W        W84715   7.717  32.748  13.897 -0.0115  0.1213 -0.0748
41725W        W84716  29.964  34.466   7.827  0.0810  0.0450  0.3165
41726W        W84717  11.281   3.199  26.811  0.0054  0.1509  0.0228
41727W        W84718   3.765  26.213   5.168  0.2269 -0.0905  0.0240
41728W        W84719   8.102   5.380  21.206  0.2035 -0.3366  0.0187
41729W        W84720   3.362  20.733  27.700  0.0632  0.0182 -0.2574
41730W        W84721  14.656  14.646  14.932 -0.0923  0.0505  0.1319
41731W        W84722   2.174   8.838  21.068  0.3219  0.1586  0.3730
41732W        W84723  32.840  26.761  15.459  0.0547 -0.1787  0.1198
41733W        W84724   3.170  22.949  16.411  0.2429 -0.0166  0.0502
41734W        W84725   0.320  17.380  18.849  0.0313  0.1392  0.0605
41735W        W84726   1.788   6.284  21.205  0.1972  0.0764  0.1246
41736W        W84727   2.430  11.928  26.116  0.3447  0.0682  0.2046
41737W        W84728  33.206  15.127  17.801  0.0118  0.1165  0.1847
41738W        W84729  15.075  10.279  18.395  0.1631  0.0948  0.1040
41739W        W84730  21.391  22.399  22.278  0.0514 -0.2074 -0.0605
41740W        W84731   9.074  17.235  15.445 -0.0415 -0.2974  0.0777
41741W        W84732  34.617  16.313   0.413 -0.1969  0.1407 -0.0805
41742W        W84733  10.352  21.647  27.330  0.0083 -0.3626  0.0828
41743W        W84734   2.974  34.471  21.953 -0.0262 -0.3822  0.1729
41744W        W84735  19.421  11.858  23.317 -0.0886  0.1264 -0.1283
41745W        W84736  13.949   8.525  20.235 -0.1966 -0.1769  0.0874
41746W        W84737  32.203   4.608   7.513 -0.0985 -0.1221 -0.0951
41747W        W84738  15.812   3.179  20.063  0.0622 -0.1940  0.2775
41748W        W84739  12.371   5.983  14.697 -0.0735  0.1484  0.2163
41749W        W84740   9.379  29.885  14.390 -0.3604 -0.1307 -0.1340
41750W        W84741  21.498   3.427   8.385  0.2391  0.1476 -0.0387
41751W        W84742  22.368  28.293   4.275 -0.3873 -0.2678 -0.4752
41752W        W84743   3.154  14.940  21.129 -0.1491  0.1722  0.4426
41753W        W84744  34.559  15.262  28.883  0.0616 -0.0212  0.2042
41754W        W84745  12.216  10.583  27.354  0.2023  0.4378 -0.1929
41755W        W84746   5.207   5.201  26.167 -0.1426  0.2082 -0.0882
41756W        W84747  32.654  26.296  20.116  0.2226 -0.4996 -0.0811
41757W        W84748   0.360  34.413  21.527  0.0864 -0.0146  0.0637
41758W        W84749  21.347   4.859  26.836  0.0835  0.2924  0.0998
41759W        W84750  33.527  32.338  22.654 -0.1298  0.0393 -0.0865
41760W        W84751  20.506  15.232  26.485  0.1931 -0.1673 -0.1082
41761W        W84752  30.823   5.583  25.236  0.0254  0.1226 -0.0432
41762W        W84753  13.763  10.341  17.693  0.2246  0.0953 -0.0281
41763W        W84754  32.342  11.963  18.519 -0.1048 -0.1657  0.4106
41764W        W84755  26.357   8.701  14.107 -0.1238 -0.1628 -0.0584
41765W        W84756  15.070   1.654   9.119  0.0837  0.0850 -0.1345
41766W        W84757   0.540  33.276  26.717 -0.2907 -0.0743 -0.2861
41767W        W84758   5.589  13.388  19.663 -0.2220  0.1387  0.0515
41768W        W84759   7.943   8.737   1.353 -0.0082 -0.0183 -0.1488
41769W        W84760   5.709   6.178  16.962 -0.0224  0.1544 -0.1542
41770W        W84761   6.183   7.441  20.248  0.0864 -0.1283  0.1509
41771W        W84762  18.998  34.500  28.888  0.0729  0.0595 -0.0592
41772W        W84763   5.763   9.397  26.470 -0.2586  0.1641 -0.4404
41773W        W84764  11.367  29.797  21.707  0.1290 -0.2508  0.2636
41774W        W84765   7.668  33.914  26.113 -0.1508 -0.0572 -0.0024
41775W        W84766  10.769   7.626   1.622 -0.1403  0.0281  0.2882
41776W        W84767   1.966  12.632  27.308  0.3584 -0.3158  0.0033
41777W        W84768   2.167   6.058  22.293 -0.1718  0.3127 -0.1410
41778W        W84769  11.289  26.479  23.623 -0.3235  0.1055  0.0460
41779W        W84770  17.000  12.105  21.948 -0.1934  0.0128 -0.3772
41780W        W84771  15.221  15.553  13.486 -0.1599  0.0604 -0.0171
41781W        W84772   2.308  19.780   2.679 -0.2170 -0.1287 -0.1874
41782W        W84773  22.432  24.504  18.193 -0.0828 -0.1206  0.2286
41783W        W84774  33.159  17.145  16.339  0.0520 -0.1004  0.1366
41784W        W84775   3.935  10.166  23.409 -0.0281 -0.3015  0.0437
41785W        W84776  34.273  22.881   1.836 -0.0142  0.1079 -0.0354
41786W        W84777  24.417   1.945  20.120  0.0653  0.1054 -0.2108
41787W        W84778  20.500  20.821  16.241 -0.1086 -0.0744  0.0459
41788W        W84779  13.061  20.375  15.062  0.1727 -0.0704 -0.0816
41789W        W84780  11.054  13.166  15.790 -0.0840  0.0413 -0.1173
41790W        W84781  33.061  15.870  21.442  0.0719 -0.0362  0.0634
41791W        W84782  11.626  13.454  28.655  0.1021  0.2755  0.0231
41792W        W84783   4.270  13.642  20.689  0.3922  0.2034  0.0583
41793W        W84784   7.204  32.629  18.656 -0.0819 -0.1956 -0.1414
41794W        W84785  11.817  25.697   4.637  0.0705  0.3108 -0.3602
41795W        W84786  11.766  13.681   6.102 -0.0645  0.4816 -0.0903
41796W        W84787   9.123  31.777  23.266 -0.0947  0.0746  0.1912
41797W        W84788  31.059  24.248   7.183 -0.6460 -0.1102 -0.2712
41798W        W84789   4.671  24.977   2.533  0.0310 -0.2079 -0.1512
41799W        W84790  17.504  31.073   2.088 -0.0475  0.0696 -0.1679
41800W        W84791  25.587  33.761   4.294  0.0664  0.3468 -0.4426
41801W        W84792  32.482   6.195   7.951 -0.3267 -0.2869  0.1042
41802W        W84793   6.179  30.361  20.422  0.0299 -0.2336 -0.0015
41803W        W84794  12.244  16.991  15.151  0.1844 -0.0674 -0.6048
41804W        W84795  20.944  20.014  16.881 -0.0488  0.2321 -0.0384
41805W        W84796  20.462   2.825  22.391 -0.2625 -0.1311  0.0922
41806W        W84797  11.750   9.330  15.764 -0.0600  0.1575  0.0207
41807W        W84798  11.097   7.727  27.223 -0.1329 -0.2971  0.2740
41808W        W84799  10.449  18.251  23.234 -0.1634  0.1481  0.1596
41809W        W84800  12.719   2.929  26.110  0.2244  0.0892  0.0415
41810W        W84801   9.070   7.527  19.259  0.2993 -0.3167 -0.0944
41811W        W84802  19.704   1.394   6.769  0.1070  0.0960  0.0796
41812W        W84803  11.009  16.115   9.603 -0.1249  0.1487 -0.0582
41813W        W84804  15.306   5.103  17.466  0.1488 -0.0016  0.0019
41814W        W84805  15.256  29.704  18.287 -0.0101 -0.0527  0.1303
41815W        W84806   8.988  14.105  15.481  0.0160  0.0106  0.0147
41816W        W84807   0.379  27.034  28.604  0.1610  0.2780  0.1629
41817W        W84808  34.196  15.610  22.919 -0.2687 -0.3890  0.1126
41818W        W84809   9.975  11.588  22.813  0.2191  0.2795 -0.1386
41819W        W84810  14.418   4.284  21.533 -0.0305  0.5393  0.0967
41820W        W84811  14.153  19.460  14.674  0.4244 -0.2991 -0.0550
41821W        W84812  34.711  28.954   4.633 -0.2569 -0.0813  0.3425
41822W        W84813  32.114  30.581  20.184 -0.0032  0.0969 -0.0328
41823W        W84814   4.681  25.691   4.271 -0.0162 -0.0362 -0.2659
41824W        W84815   5.627  14.354  16.916  0.1057 -0.0967  0.2767
41825W        W84816  30.717   8.946   7.243  0.0083  0.2385  0.2384
41826W        W84817  33.866  15.291   0.236  0.2864  0.1984 -0.5792
41827W        W84818  10.362   8.832  20.943  0.1045 -0.1032  0.0317
41828W        W84819  10.081  34.362  21.359 -0.1499  0.3576  0.1766
41829W        W84820  19.382  14.898  27.224  0.1012  0.1406 -0.0171
41830W        W84821  14.140  10.014  22.694  0.1894 -0.0442  0.2148
41831W        W84822  26.478  10.554   6.598  0.2076  0.0363  0.1160
41832W        W84823  16.233   5.857  18.042 -0.2639  0.1213  0.0953
41833W        W84824   7.289   8.344  22.584  0.0518  0.0435  0.2124
41834W        W84825  23.885  14.316  18.510  0.2972 -0.2186 -0.0445
41835W        W84826  14.831  28.826  14.237 -0.1163  0.2529 -0.1204
41836W        W84827  12.753  11.098  22.264 -0.1146 -0.0542 -0.1434
41837W        W84828  32.426  29.720   2.505 -0.1142 -0.0027  0.0528
41838W        W84829  32.212  32.315   7.311  0.0808 -0.1242 -0.2418
41839W        W84830  19.283  11.027  25.056 -0.1588  0.4767  0.1880
41840W        W84831   6.346   6.741  26.674  0.0347  0.0480  0.1439
41841W        W84832  17.470  20.010  12.331  0.3185  0.0116 -0.0332
41842W        W84833   4.885   8.998  24.250 -0.2134  0.0733 -0.0371
41843W        W84834   3.923  18.775  16.315  0.0413  0.5232  0.1058
41844W        W84835   3.241  18.033  26.536 -0.3068 -0.1064 -0.1766
41845W        W84836  11.903   5.802  21.955 -0.0427 -0.0364  0.0808
41846W        W84837   2.740  10.937   4.411 -0.1530  0.1424  0.0476
41847W        W84838   4.085   4.601  22.570 -0.0306 -0.3416  0.4268
41848W        W84839   2.875  23.880   4.989  0.2237 -0.0150 -0.0231
41849W        W84840  16.407  14.688  26.352 -0.1501 -0.0680  0.3361
41850W        W84841  15.599  32.309  15.416  0.1397 -0.2265  0.1164
41851W        W84842   9.394  12.952  18.339 -0.2261 -0.2861 -0.0305
41852W        W84843   3.210  12.559  23.822  0.0372  0.2039 -0.2656
41853W        W84844  12.144  20.700   8.102 -0.2464  0.1630 -0.0198
41854W        W84845   8.697   4.632   9.721 -0.1702 -0.2690  0.4112
41855W        W84846  14.646   4.036   1.503  0.0847 -0.0877 -0.0722
41856W        W84847  31.662   7.480   1.288 -0.2265 -0.1930 -0.1321
41857W        W84848  33.290   6.663  17.183 -0.2890  0.0033 -0.2595
41858W        W84849  10.458  25.461  25.310 -0.0172  0.1471 -0.1971
41859W        W84850  34.418   7.283  27.561 -0.1006 -0.2702 -0.0488
41860W        W84851   4.374  17.026  25.707  0.1178  0.3127  0.0685
41861W        W84852   1.960  32.971   5.546  0.1915 -0.1348 -0.0856
41862W        W84853  13.541  12.953  14.940 -0.2860  0.3822  0.0898
41863W        W84854  10.765  12.755   2.441  0.0882 -0.3458  0.0748
41864W        W84855  27.972  31.761  14.020 -0.1053 -0.2554  0.0990
41865W        W84856  13.836  19.348  22.295  0.2542  0.3519  0.0190
41866W        W84857  12.800  26.821  21.637 -0.3091 -0.0204 -0.1757
41867W        W84858   9.747   5.877   1.878 -0.2951 -0.1501  0.0648
41868W        W84859  26.227  18.105  21.442 -0.0951  0.1826 -0.3047
41869W        W84860  11.032  24.299   9.455 -0.2164 -0.1787 -0.0481
41870W        W84861  10.828   8.920  21.180 -0.3939  0.0998 -0.0308
41871W        W84862  21.584  24.524  19.858 -0.1487 -0.2199  0.5010
41872W        W84863   1.042  30.514  16.087  0.0558  0.1440 -0.1403
41873W        W84864  24.096  16.812   7.876 -0.1726  0.2178 -0.1237
41874W        W84865   1.857   1.258  22.034  0.3820  0.2831 -0.0716
41875W        W84866  13.234  21.012   9.967 -0.2518  0.0059 -0.2124
41876W        W84867  29.909  20.240  16.065  0.0346  0.3309 -0.0011
41877W        W84868  17.800   2.723  28.213 -0.1647  0.0154  0.2902
41878W        W84869   1.800  29.205  22.260 -0.2037  0.3026  0.1978
41879W        W84870   3.911  31.577   9.736 -0.1802  0.0310  0.0105
41880W        W84871  16.966  10.818  20.797 -0.3897 -0.0341 -0.4203
41881W        W84872  23.286   7.458  23.312  0.0692  0.0138 -0.1206
41882W        W84873  13.768  34.629  21.488 -0.0221  0.0523 -0.1388
41883W        W84874   4.875  17.064  18.506 -0.3041  0.1087 -0.0140
41884W        W84875  29.377  15.326  22.661 -0.2716 -0.1329 -0.3223
41885W        W84876  31.641   8.060  25.150 -0.2135 -0.0005 -0.1704
41886W        W84877  12.857   6.483  27.668  0.2843  0.1516 -0.2410
41887W        W84878  17.185  26.916   5.283 -0.2682 -0.0187 -0.0729
41888W        W84879  11.131   8.527  23.633  0.1544 -0.3895  0.0943
41889W        W84880   9.464  11.891  22.674  0.3816  0.3834  0.2640
41890W        W84881  34.549  18.052  19.327  0.0622 -0.1125 -0.0104
41891W        W84882  14.719  20.987   2.131  0.2084 -0.1691  0.0170
41892W        W84883   3.704   9.137   2.081 -0.1538 -0.0879 -0.1857
41893W        W84884   5.253  22.054   5.272 -0.2208 -0.1337 -0.0148
41894W        W84885  18.297  13.350   2.895 -0.0286  0.1252 -0.1908
41895W        W84886  23.439  17.050  16.167 -0.2436 -0.1869  0.1395
41896W        W84887  34.617  18.298  16.906 -0.0642  0.1325  0.0747
41897W        W84888   0.881  20.451  17.876 -0.0425 -0.1856 -0.1722
41898W        W84889  23.376   2.042  27.483 -0.3660 -0.1205 -0.2802
41899W        W84890  16.951  15.826  14.376  0.2234 -0.3330 -0.0334
41900W        W84891  32.083  10.551   6.025  0.0397  0.0030  0.2588
41901W        W84892   2.044  20.481  26.712 -0.0237  0.0888  0.0024
41902W        W84893  12.503   8.563   6.435  0.0589 -0.1415 -0.2071
41903W        W84894   9.188  16.040  17.286 -0.0750  0.1860 -0.0355
41904W        W84895  12.246   6.697  20.528  0.2596  0.1926  0.2770
41905W        W84896  20.417  18.660  14.280 -0.0060  0.0831  0.0972
41906W        W84897  14.575   0.403   5.864  0.2219  0.3418  0.0661
41907W        W84898  12.065   9.138  27.562 -0.0593  0.1237 -0.0626
41908W        W84899  25.164   5.301   3.576  0.0171  0.0119 -0.0862
41909W        W84900  16.743   4.721  23.425  0.4009 -0.2507  0.1839
41910W        W84901  29.731   2.175  26.356  0.0324  0.0066 -0.1398
41911W        W84902  20.722  31.561   1.798 -0.0388 -0.1473  0.0329
41912W        W84903  18.108   1.097   9.780  0.0215 -0.0211 -0.0414
41913W        W84904  17.759   7.005  18.243 -0.1091 -0.0306  0.1282
41914W        W84905  27.064  13.472   5.696 -0.3425  0.0099  0.2100
41915W        W84906  11.017  20.066  27.000  0.2714  0.1943  0.1099
41916W        W84907   3.896   0.772  22.025 -0.2329  0.0400  0.0467
41917W        W84908  13.579  14.974  25.377  0.3652 -0.1234 -0.1701
41918W        W84909   5.445  20.628  20.578  0.0005  0.0197 -0.0378
41919W        W84910  18.493  11.891  24.417  0.2613  0.3171  0.0171
41920W        W84911   5.346   4.811   6.772  0.0991  0.3363  0.0706
41921W        W84912  31.445   3.446  19.288  0.1534 -0.1536  0.0127
41922W        W84913  30.926  11.259   7.529 -0.2570 -0.0508 -0.1559
41923W        W84914  13.236  10.978   7.181  0.2314  0.3821  0.0445
41924W        W84915   4.536   0.376   5.649 -0.1122  0.0620  0.0302
41925W        W84916   7.748  27.214  25.656 -0.4070 -0.2656 -0.3790
41926W        W84917  15.915  12.898  10.218  0.0707  0.2690  0.1516
41927W        W84918   8.231  15.244  15.163  0.2072 -0.1092  0.4540
41928W        W84919   3.791  27.355   2.388  0.1099  0.3018  0.2640
41929W        W84920  31.724  13.909   3.117 -0.3823 -0.2953  0.2051
41930W        W84921  10.495  12.343   3.086 -0.1136  0.1787  0.3109
41931W        W84922  33.647   7.567   4.178 -0.0226 -0.0256 -0.1854
41932W        W84923  16.024  11.702   7.294 -0.0800 -0.1154 -0.1429
41933W        W84924  14.793  11.433  21.748  0.2793  0.0137  0.1430
41934W        W84925  24.645   3.555  24.788  0.2742 -0.3591 -0.2183
41935W        W84926  16.838   0.883  24.480  0.1269  0.1182 -0.1861
41936W        W84927  13.938  12.048   6.743 -0.1615  0.2389  0.2428
41937W        W84928   3.249   8.831  25.208  0.3068 -0.0417  0.0828
41938W        W84929  31.297  13.729  21.287 -0.1785  0.2192 -0.0208
41939W        W84930  12.214  18.469  15.891 -0.0517  0.1337  0.0749
41940W        W84931   9.588  11.678   9.821  0.0558 -0.0613 -0.1862
41941W        W84932  19.413   6.395  23.016  0.2413  0.1567  0.0907
41942W        W84933   6.187   5.836  16.184 -0.0016 -0.0058  0.2061
41943W        W84934   3.544  14.290  10.466  0.1829 -0.0922 -0.1598
41944W        W84935  18.150  18.000   4.466  0.3290  0.2271 -0.2102
41945W        W84936  19.487  13.304  23.189  0.1111 -0.3110 -0.0737
41946W        W84937  24.840  33.904  16.692 -0.0046  0.0234 -0.1601
41947W        W84938   9.158   2.804  17.221  0.1701 -0.1359  0.1776
41948W        W84939  12.812  32.066   9.245  0.3764  0.1030 -0.0974
41949W        W84940  34.412  14.881   4.199 -0.0434 -0.0827  0.1249
41950W        W84941  10.412  24.676   7.260  0.2012  0.0990  0.0635
41951W        W84942   2.899  12.731  22.557 -0.0254 -0.0365 -0.2445
41952W        W84943  28.496  13.675  24.938 -0.2984  0.3174 -0.2039
41953W        W84944  13.235  15.514   4.381 -0.0341  0.3811 -0.0517
41954W        W84945  18.196  23.577  28.889  0.0995  0.0362  0.1943
41955W        W84946   8.507  10.981   5.588 -0.0586  0.4280 -0.3542
41956W        W84947  25.822  17.696  23.308  0.1966 -0.1455 -0.1864
41957W        W84948   4.182  20.432  24.615  0.0612  0.2031 -0.1137
41958W        W84949  13.726  11.658   2.264 -0.2229 -0.0433  0.2738
41959W        W84950   8.183  33.892   1.164 -0.0839  0.0346 -0.1429
41960W        W84951  30.320   2.291  16.073  0.0061 -0.1685  0.0349
41961W        W84952   1.965  22.726   0.658 -0.0550  0.0515 -0.1404
41962W        W84953  12.319   3.301  15.150  0.0768  0.3473 -0.3159
41963W        W84954  14.500  22.441  20.866  0.2127  0.3022 -0.0475
41964W        W84955   0.814  31.428   7.038 -0.0960 -0.3168 -0.0736
41965W        W84956  18.587  21.319  21.349  0.4289  0.0767 -0.0819
41966W        W84957   0.374  17.205  23.195 -0.0734 -0.2682 -0.3812
41967W        W84958  32.286  16.340   0.633 -0.2695 -0.0760  0.0643
41968W        W84959  12.596   5.764   4.516  0.3039 -0.2028  0.1119
41969W        W84960   8.054  20.338   3.348  0.1162  0.1264 -0.0176
41970W        W84961  16.910   3.473  14.279  0.2525 -0.0057  0.1590
41971W        W84962  23.799  13.802  28.813  0.1307 -0.0837  0.2318
41972W        W84963  10.061   7.742  26.214  0.3020  0.0835 -0.3461
41973W        W84964  10.710  30.972  21.320 -0.2261  0.1011  0.0507
41974W        W84965  29.985  20.444  13.764 -0.0482  0.1185  0.1896
41975W        W84966  34.204  31.508  24.252  0.0467  0.0881  0.1505
41976W        W84967  11.579  10.739  21.253 -0.1496  0.0333 -0.2519
41977W        W84968  29.000  13.677  10.506  0.0116  0.0360 -0.1047
41978W        W84969   5.330   5.246  21.669  0.0422 -0.1939 -0.0040
41979W        W84970  12.988   6.635  25.420 -0.1934  0.0758 -0.0119
41980W        W84971  33.616   8.827  24.489  0.2591  0.2471  0.1190
41981W        W84972  14.519   4.174   2.964 -0.0832 -0.3298 -0.1201
41982W        W84973   4.905  19.841   2.314 -0.2081  0.0574  0.0228
41983W        W84974  23.708  24.123  21.399 -0.0546  0.0665 -0.2883
41984W        W84975  10.549  14.493  10.167  0.0056 -0.1720  0.0036
41985W        W84976  31.596   2.370  26.585 -0.0122  0.1176 -0.2964
41986W        W84977  28.648   4.831  27.856  0.2676  0.0236  0.2961
41987W        W84978  34.174  20.367  19.565 -0.1459  0.0062 -0.3452
41988W        W84979   9.209  11.121   2.477  0.1189  0.1131  0.1147
41989W        W84980   4.294  29.242  19.404 -0.0087  0.0902 -0.0559
41990W        W84981  15.994   7.922  21.731 -0.0823  0.2042 -0.2977
41991W        W84982  15.425  32.076  25.542 -0.0851  0.1615 -0.1884
41992W        W84983  18.141  13.436   1.793 -0.2088  0.1037 -0.1031
41993W        W84984   8.846  21.335  19.495 -0.0148  0.1192 -0.1886
41994W        W84985   8.811  33.673  28.457 -0.0309  0.1472  0.2578
41995W        W84986  19.992  11.109   1.884  0.0706  0.0094 -0.0911
41996W        W84987   2.166  30.983  14.991  0.0370 -0.2076 -0.2822
41997W        W84988   8.198  16.661   4.387  0.1236 -0.0616 -0.0669
41998W        W84989   2.514   2.077  16.316 -0.1956 -0.1178 -0.0460
41999W        W84990  21.693  34.391   9.098  0.4210 -0.2351 -0.2388
42000W        W84991  13.694  10.470  18.604  0.2216  0.3224 -0.1207
42001W        W84992  21.556   9.715  24.891  0.0985 -0.2183  0.0110
42002W        W84993   0.716  15.623   2.097 -0.1324 -0.0823  0.0270
42003W        W84994   8.322  11.179  28.661  0.2146  0.0133 -0.1733
42004W        W84995  28.827  25.278  28.409 -0.0529  0.0262 -0.0722
42005W        W84996   1.535   6.999   8.212 -0.0455  0.0411 -0.0926
42006W        W84997  11.451  18.115  16.824 -0.1646 -0.3365 -0.0333
42007W        W84998   9.489  15.044  24.377  0.0409  0.3412  0.1178
42008W        W84999   2.297  16.846  28.835 -0.1097  0.2313  0.2311
42009W        W85000  25.719  31.269   0.329 -0.0617 -0.0982  0.0060
42010W        W85001  28.688  22.493  15.815  0.0768  0.2238 -0.0463
42011W        W85002   5.280  32.299  25.244 -0.1607  0.2356  0.0716
42012W        W85003   3.496  12.649  21.341  0.0759  0.2648  0.2688
42013W        W85004   0.901  14.828  19.782 -0.0404  0.1247 -0.0288
42014W        W85005  21.478  16.291  14.771 -0.0786  0.0171  0.0827
42015W        W85006   2.836  15.865   5.980 -0.1017 -0.1096 -0.2046
42016W        W85007  22.674  16.512  18.983  0.0517 -0.0207 -0.0124
42017W        W85008  23.321  27.695  17.862 -0.0593 -0.2096 -0.0440
42018W        W85009  20.067   4.892   2.545  0.5035  0.0515  0.3446
42019W        W85010  23.212   6.816  21.822  0.1239  0.0286 -0.1849
42020W        W85011  10.990  11.863   5.641  0.0580 -0.1798  0.1786
42021W        W85012   8.387   1.748  27.271  0.0491  0.2095  0.2817
42022W        W85013  11.043  11.013  23.093 -0.0217  0.0851  0.1336
42023W        W85014  30.730  25.991   5.727  0.2384  0.2495  0.2487
42024W        W85015  18.739  12.535  18.987 -0.0450  0.1308  0.0528
42025W        W85016   0.464  12.704  16.224 -0.0637 -0.1608 -0.1368
42026W        W85017   9.902  10.656  24.332  0.2147  0.0157  0.0577
42027W        W85018  24.225   9.062  27.132 -0.2556  0.3371 -0.1347
42028W        W85019   3.861   4.452   9.711  0.1492 -0.0134 -0.1852
42029W        W85020   1.832   7.535  10.289 -0.0134  0.0795  0.0682
42030W        W85021   7.861   2.581  27.229 -0.0430  0.1972 -0.1691
42031W        W85022   9.872  34.539  23.472 -0.0980  0.2846 -0.0950
42032W        W85023  14.271   0.582  26.233  0.1530 -0.0098  0.3560
42033W        W85024  22.545   4.995  23.449  0.0021  0.0133 -0.0093
42034W        W85025   1.363   5.181   4.315 -0.0878 -0.2870  0.1023
42035W        W85026  25.068   0.048  22.713  0.0051  0.2361  0.0326
42036W        W85027  13.010   6.479   0.029 -0.2524 -0.0752 -0.2629
42037W        W85028  34.098   7.325   1.429 -0.2164  0.0757 -0.2586
42038W        W85029  31.351   4.279  19.864 -0.1829  0.2462 -0.0638
42039W        W85030   3.163   7.778   6.859 -0.1678 -0.1416  0.0284
42040W        W85031  13.430   2.636   0.730  0.1279  0.1054  0.2129
42041W        W85032   9.935  14.304  16.833  0.0129 -0.0697 -0.0799
42042W        W85033   9.642  19.222   5.905  0.0970  0.2975 -0.1934
42043W        W85034  34.618  14.874  26.200  0.1376  0.2707 -0.4249
42044W        W85035  28.130   9.262  26.198  0.0208 -0.2558  0.2113
42045W        W85036  30.341  14.131  10.623 -0.3140 -0.1877  0.0964
42046W        W85037   5.913   5.230  27.369  0.0368  0.1054 -0.0381
42047W        W85038  12.132   3.661  16.309  0.0986 -0.0355 -0.1098
42048W        W85039   0.933  20.957  17.884 -0.1726  0.1611 -0.0606
42049W        W85040   0.871   7.568  19.424  0.0783 -0.3538  0.0559
42050W        W85041  13.092   8.139  17.594  0.0967  0.2756 -0.0721
42051W        W85042  31.371  27.113  18.197 -0.2088 -0.0350 -0.2002
42052W        W85043  10.266  12.044  22.920  0.2541  0.0528  0.3322
42053W        W85044   8.975   5.637   1.493  0.0730  0.3684 -0.1397
42054W        W85045  32.783  15.432  19.794  0.1842  0.2524 -0.0300
42055W        W85046   2.610  31.232  14.752 -0.1543  0.0632 -0.1673
42056W        W85047  27.910  16.353  16.955 -0.0856 -0.0017  0.0161
42057W        W85048  17.884   1.256  18.273  0.2360 -0.2110 -0.0493
42058W        W85049  34.180  12.164  22.780  0.1526 -0.3394 -0.2207
42059W        W85050  11.716  34.377   4.039  0.0635  0.1584  0.1817
42060W        W85051  33.334   4.529   4.306  0.0147 -0.2104 -0.3446
42061W        W85052  30.000   6.665  17.664 -0.1601 -0.0166 -0.1614
42062W        W85053  12.284  21.173  27.157  0.2172  0.1481 -0.0666
42063W        W85054   9.239  32.695  18.601  0.1282  0.1463  0.0718
42064W        W85055  20.755  10.579  18.939  0.0109 -0.1068  0.0339
42065W        W85056   2.633  23.559   4.071 -0.2101  0.0811 -0.0323
42066W        W85057  16.574  34.561  19.306  0.0176  0.0702 -0.3289
42067W        W85058   8.737  17.630  23.934  0.2085 -0.1581 -0.3479
42068W        W85059   8.598  15.271  19.031 -0.1424 -0.2214  0.3044
42069W        W85060   9.251  17.759   7.176 -0.0797 -0.1758  0.3430
42070W        W85061  15.987  23.855  28.125 -0.0652  0.1979  0.0114
42071W        W85062   6.284  19.859  10.653  0.0892 -0.2277  0.0250
42072W        W85063  27.217   2.528  29.054 -0.3917 -0.2825  0.2447
42073W        W85064  11.908   6.357  28.011  0.1461 -0.0004 -0.0588
42074W        W85065   8.877  11.252   3.201  0.1253 -0.4026  0.2050
42075W        W85066   2.073   3.799  15.372 -0.2495  0.0606 -0.1271
42076W        W85067   1.630  19.606  26.969  0.0196 -0.1057 -0.2796
42077W        W85068  16.307   8.084   3.548 -0.0336  0.2536  0.0440
42078W        W85069  32.370   2.690   2.945 -0.0278  0.2719  0.0978
42079W        W85070   0.039  10.102  23.685 -0.0402  0.2803  0.1045
42080W        W85071  34.643  27.785  28.234 -0.0561  0.0952  0.1217
42081W        W85072  29.256   0.910   7.518 -0.2914 -0.0819 -0.1662
42082W        W85073   3.847   8.968  25.987 -0.0448  0.0562  0.0490
42083W        W85074  13.703  30.002  26.407 -0.3058 -0.0545 -0.3547
42084W        W85075   5.010  12.212  22.114  0.0393  0.0711 -0.1323
42085W        W85076   6.358  11.618   4.300  0.1971  0.1858 -0.0871
42086W        W85077   9.562   3.686  26.828 -0.1012  0.1215 -0.1133
42087W        W85078  14.320  33.688   3.625 -0.2283 -0.3301  0.0845
42088W        W85079  28.137  12.601   9.044 -0.2312  0.1710 -0.0060
42089W        W85080  10.023   3.240   5.602  0.2373  0.1019  0.2557
42090W        W85081   5.678   6.434  19.371 -0.4263  0.2681  0.0404
42091W        W85082   0.376   1.157  23.814  0.1451 -0.0185  0.0521
42092W        W85083  33.870   8.761   9.043 -0.1503 -0.2313 -0.2464
42093W        W85084  15.831  32.835  17.586  0.5002  0.1109  0.0016
42094W        W85085   3.944  28.332  27.104  0.2665 -0.2127  0.1284
42095W        W85086  15.230   9.467  27.633 -0.2257  0.3173  0.2632
42096W        W85087  13.820  14.834  17.458  0.0456 -0.0334  0.1631
42097W        W85088  19.834  12.389  23.094 -0.2654  0.0890 -0.2070
42098W        W85089  14.959  17.179   4.687 -0.0720  0.0483 -0.1231
42099W        W85090   9.435  23.069   7.835  0.0199  0.3805 -0.0436
42100W        W85091  18.991  16.136   0.645 -0.0501 -0.3331  0.3400
42101W        W85092  19.588  23.149   8.992 -0.0175 -0.0597 -0.0797
42102W        W85093  12.204   3.999  15.302  0.1164  0.0099  0.3022
42103W        W85094  17.072   3.573  19.374 -0.1135 -0.0134  0.0286
42104W        W85095   0.484  15.386  25.014  0.2668 -0.0778 -0.0830
42105W        W85096  20.890  12.884  25.079  0.0794  0.2807  0.2053
42106W        W85097  31.877   2.860  25.627 -0.4065  0.2609  0.1554
42107W        W85098  13.749  15.628   1.988 -0.0968  0.2020 -0.1775
42108W        W85099  17.999  17.844   2.843 -0.1704  0.2524  0.5207
42109W        W85100  19.178  31.423   2.334 -0.3266  0.3474 -0.1830
42110W        W85101   2.020  20.046  28.289  0.1684  0.2438 -0.0682
42111W        W85102  18.236   7.354   1.941 -0.3528  0.3369  0.1188
42112W        W85103  17.587  23.039  22.887  0.0654 -0.2017  0.1903
42113W        W85104  14.386  21.158  21.760 -0.0108  0.1222 -0.0801
42114W        W85105  24.529   7.151   3.531 -0.0734 -0.0280 -0.1992
42115W        W85106   3.308  33.707   2.759 -0.0800  0.2809 -0.1763
42116W        W85107   2.983   0.623   1.366  0.2231 -0.0502  0.1661
42117W        W85108  10.153  25.758  27.233 -0.4045 -0.2378 -0.1504
42118W        W85109  18.912   4.658  28.241 -0.1449  0.0505 -0.0323
42119W        W85110  11.831  25.889  18.878  0.0229 -0.1812  0.2007
42120W        W85111  33.985   9.794  15.567 -0.1227 -0.0591 -0.0360
42121W        W85112   0.752   3.717  23.765 -0.1843 -0.0784 -0.1761
42122W        W85113   4.814  28.893   8.744  0.0869 -0.1759 -0.2757
42123W        W85114  17.740   8.514  18.266  0.0071 -0.2715  0.0490
42124W        W85115  17.119  31.447   2.199  0.1065  0.0800  0.0614
42125W        W85116  14.517  12.129   3.107 -0.2317  0.0939  0.0699
42126W        W85117  20.385  16.583  25.862 -0.1273  0.1354  0.1768
42127W        W85118  13.283  16.886   6.066 -0.1757  0.1617 -0.0610
42128W        W85119   9.041   8.421  21.311  0.0322  0.1674  0.0882
42129W        W85120   9.981   9.050   9.738  0.1242  0.0502  0.0312
42130W        W85121  31.279   1.406  27.500 -0.1631  0.0983 -0.0876
42131W        W85122  19.334  14.645  25.280 -0.4020  0.0379 -0.2577
42132W        W85123  16.439  32.852   1.567  0.1273 -0.3734 -0.1856
42133W        W85124  21.698  34.389  18.519  0.2031  0.2462 -0.1136
42134W        W85125   7.376   6.714   8.320  0.0304  0.1264  0.2542
42135W        W85126  22.854  19.132   1.437  0.1973 -0.0383 -0.1216
42136W        W85127  25.368  18.287  26.453 -0.0766  0.1396  0.2979
42137W        W85128  33.602  14.423  16.151  0.1345 -0.0633  0.0332
42138W        W85129  12.614  10.423   0.732 -0.1338 -0.1742 -0.1028
42139W        W85130  27.012  27.782  14.596  0.0780 -0.0721  0.1482
42140W        W85131  21.694  20.450  25.117 -0.1366 -0.0924 -0.2522
42141W        W85132  13.101  16.602  13.627  0.0557  0.1623 -0.3821
42142W        W85133  14.464  15.474   2.997  0.1867 -0.4909 -0.2815
42143W        W85134  17.280  11.441  18.774  0.2448 -0.0533 -0.0362
42144W        W85135   2.049   5.370  21.720  0.5323  0.1440 -0.2795
42145W        W85136   6.725  19.056  23.319  0.1996  0.1561  0.1399
42146W        W85137  29.751  30.576  29.225  0.0711  0.2676  0.1048
42147W        W85138  12.199   8.037  19.089  0.0260 -0.1068  0.1174
42148W        W85139   5.985  22.077   1.959  0.0858 -0.1211  0.0380
42149W        W85140   3.561   3.623   3.536 -0.2014 -0.3127  0.0407
42150W        W85141   2.127  16.919  10.299  0.1746 -0.3781  0.1228
42151W        W85142  12.685  13.656  20.177 -0.1115  0.0058 -0.0852
42152W        W85143  11.091  10.378  21.570  0.1972 -0.0154  0.3785
42153W        W85144  10.835   6.408   7.553 -0.2447  0.0549  0.0703
42154W        W85145  21.632   9.166  21.977  0.0091  0.2090 -0.0943
42155W        W85146  33.433  16.702   1.713 -0.0099 -0.2972 -0.0216
42156W        W85147  34.379  11.051  18.345  0.4166  0.1259  0.1876
42157W        W85148  22.030  25.072  15.841 -0.0398  0.0934 -0.0705
42158W        W85149   9.187   6.942   4.243 -0.3824  0.1840 -0.2763
42159W        W85150   5.836  17.310  26.830 -0.0247  0.0007  0.2080
42160W        W85151   7.985   0.048  16.670 -0.1081  0.0973 -0.0330
42161W        W85152  21.080  15.232  28.138 -0.0596  0.0226 -0.1508
42162W        W85153   4.407   7.463  25.981  0.0179 -0.2282 -0.0013
42163W        W85154   7.927   1.321   5.197  0.1050  0.2139  0.1658
42164W        W85155  32.056   9.742  17.716  0.3415  0.2995 -0.0502
42165W        W85156   2.237  24.950  23.082 -0.0121 -0.2140 -0.0681
42166W        W85157  18.837   2.912   6.954  0.1046  0.0946  0.2588
42167W        W85158   7.865  21.591  16.815  0.0530  0.1107 -0.1100
42168W        W85159  18.942   8.949  27.627 -0.1715 -0.1396  0.0117
42169W        W85160  32.795  20.466  20.718 -0.0194  0.1990  0.1717
42170W        W85161   6.561  28.734  24.298  0.0828  0.0344 -0.1643
42171W        W85162  11.459   5.330  18.753  0.2267  0.1020 -0.1708
42172W        W85163  27.293  20.602  17.922 -0.0562  0.0141  0.2761
42173W        W85164  30.512   7.687  16.443  0.2360  0.0100 -0.1167
42174W        W85165  17.015  12.695   9.244  0.3152 -0.1284 -0.2662
42175W        W85166   8.234  15.861  17.413 -0.2942 -0.1656  0.0293
42176W        W85167  22.260  15.300   1.351 -0.1388  0.2614 -0.1304
42177W        W85168   5.774  14.316  10.840 -0.1012 -0.0887 -0.2270
42178W        W85169  10.040   8.395   0.351  0.2071  0.0371 -0.0042
42179W        W85170  17.001  32.173  15.378  0.1746  0.0397 -0.0048
42180W        W85171   1.179  11.627  21.506 -0.1211  0.2972 -0.1436
42181W        W85172  13.251   8.077  15.499 -0.3057 -0.1178  0.1470
42182W        W85173   7.578   2.094  22.848  0.2357  0.0853  0.4063
42183W        W85174   5.627  14.429  27.209 -0.2076 -0.0894  0.1784
42184W        W85175  12.718  18.876  16.667  0.1002 -0.2155 -0.0179
42185W        W85176   7.717  11.616  19.041  0.0637 -0.1396  0.0125
42186W        W85177   8.435   6.191  15.829 -0.0708 -0.0616 -0.0859
42187W        W85178   4.062   7.520  17.675 -0.3119  0.2760  0.0936
42188W        W85179  18.850   3.542   2.450 -0.1718 -0.0460  0.0702
42189W        W85180  26.124  18.272  27.064 -0.0150  0.0704  0.0404
42190W        W85181   4.143  12.842   6.225  0.3052  0.4198 -0.2944
42191W        W85182  27.086   6.619  26.648 -0.1425 -0.0661  0.3157
42192W        W85183   6.037   7.304   1.806 -0.3026 -0.2017  0.0094
42193W        W85184  11.666  14.936  23.590  0.2068 -0.0833 -0.0166
42194W        W85185   9.602   7.921   7.088  0.1053 -0.1163  0.0198
42195W        W85186  21.161   2.397  27.917 -0.1516 -0.2375  0.0152
42196W        W85187   6.645  31.368  25.756 -0.2127 -0.0762 -0.0064
42197W        W85188   3.906  33.699  24.619 -0.3314  0.3775  0.1283
42198W        W85189  34.237  14.763  23.233 -0.2942 -0.1337  0.1941
42199W        W85190  34.773  18.345  25.318  0.0962  0.1751 -0.0137
42200W        W85191  34.627  26.474   7.893  0.3089  0.1502  0.1211
42201W        W85192   7.546   7.526   8.822  0.2695  0.0492  0.0719
42202W        W85193  11.680  33.278  22.510 -0.2149  0.2576 -0.0214
42203W        W85194  28.724  17.074  19.526 -0.0329 -0.0229 -0.1292
42204W        W85195   6.664  12.586  28.734 -0.1997  0.0785 -0.1492
42205W        W85196  33.636   5.749   9.738 -0.4039 -0.1075 -0.0196
42206W        W85197   4.796  27.074   2.392  0.0736  0.3212 -0.2427
42207W        W85198  12.376  11.145  23.199  0.1784  0.1422  0.3297
42208W        W85199  25.796  26.143  28.364 -0.0517  0.2608 -0.0500
42209W        W85200  30.091   8.424  15.475  0.4113 -0.1122  0.1882
42210W        W85201  18.502   8.877  15.683  0.1881 -0.1571  0.2956
42211W        W85202   5.942   6.276  21.557  0.1563 -0.1537 -0.1269
42212W        W85203   4.250  22.026  16.602 -0.1371  0.1947 -0.3388
42213W        W85204   7.422  15.818   9.854 -0.0953  0.1824 -0.3341
42214W        W85205   5.180  26.899  28.783 -0.0713  0.1874  0.2156
42215W        W85206  31.207  11.714  27.724  0.1100 -0.1047 -0.2712
42216W        W85207  14.763   5.707   0.042  0.0574  0.1400 -0.1921
42217W        W85208  34.408  10.664  11.773 -0.2210 -0.3361 -0.0050
42218W        W85209  12.481   1.172  23.733 -0.2219  0.1295 -0.0731
42219W        W85210   8.608  32.316   4.751 -0.1656 -0.0233 -0.0441
42220W        W85211  25.930   9.894  26.542 -0.0489 -0.1627  0.1429
42221W        W85212  19.787   4.970   0.534 -0.0422  0.0472  0.2865
42222W        W85213  23.442   5.490  24.066  0.1045 -0.2474  0.3989
42223W        W85214   9.284   3.617  21.981 -0.2076  0.1484 -0.0245
42224W        W85215  12.007  31.893  26.772  0.1182 -0.1261 -0.2224
42225W        W85216  22.899  15.525   4.741 -0.1274  0.0380  0.0580
42226W        W85217  18.926  17.650   8.155  0.0028  0.1690  0.0242
42227W        W85218   4.639   3.696  18.856  0.0523  0.1595 -0.0432
42228W        W85219  11.766  10.514   1.431 -0.3235  0.1934 -0.0737
42229W        W85220   1.128  21.892  15.510  0.2703  0.1853 -0.1022
42230W        W85221  12.595   2.144   5.649 -0.0574  0.0987 -0.0345
42231W        W85222   2.259  10.541  18.828 -0.0468 -0.1519  0.1081
42232W        W85223  13.678  12.706  27.159  0.2001  0.0541 -0.2310
42233W        W85224  23.567  13.707  22.600  0.0251 -0.0431  0.1741
42234W        W85225   7.734   3.279  21.585 -0.0824  0.0669  0.0108
42235W        W85226  21.373  23.065   5.219  0.1704 -0.1667  0.0486
42236W        W85227  15.886  11.803   0.797  0.1272  0.0496 -0.2442
42237W        W85228  34.742  10.087   1.464  0.0085 -0.2549 -0.1312
42238W        W85229  30.804   2.365  14.726 -0.1827  0.0501  0.2597
42239W        W85230  11.223   8.846  20.853 -0.1395 -0.1974 -0.1567
42240W        W85231  32.612  12.413  24.024 -0.0028 -0.0768 -0.1546
42241W        W85232   3.208   7.222   8.961 -0.0178 -0.1427  0.1199
42242W        W85233   2.376  19.770  20.079  0.0220 -0.0438 -0.3735
42243W        W85234   0.561  13.865  28.690  0.0656 -0.3471  0.0521
42244W        W85235   3.335   0.812  25.288 -0.1438 -0.1166 -0.1389
42245W        W85236   6.244   6.745  16.407  0.3178  0.1152  0.2303
42246W        W85237  27.693  14.712  15.768 -0.3046 -0.0800  0.0143
42247W        W85238   9.896  15.962  26.469 -0.2078  0.0351 -0.1642
42248W        W85239   7.676   4.143   4.225 -0.2491  0.1676  0.1940
42249W        W85240   6.453   9.818   6.294  0.0818  0.1388  0.1438
42250W        W85241  21.718  20.745  22.233 -0.1141 -0.0044  0.1809
42251W        W85242   2.684  29.686   4.512  0.2829  0.0099 -0.0110
42252W        W85243  33.589  26.820  18.713  0.0162  0.0784 -0.2514
42253W        W85244  13.845   2.817  24.752  0.1993 -0.1090  0.0245
42254W        W85245   3.046  30.427   6.420 -0.0915  0.1357  0.2284
42255W        W85246  17.125   4.126  16.202 -0.0945 -0.0354  0.1386
42256W        W85247   7.179   3.372   0.013 -0.2149  0.2677  0.2191
42257W        W85248  34.706  25.158  24.727 -0.1839  0.1322 -0.0596
42258W        W85249  18.552  20.714  21.175 -0.1690 -0.0856 -0.0970
42259W        W85250  13.171  23.876   9.819 -0.0795  0.0776  0.2382
42260W        W85251   1.145  31.163   7.456  0.1466 -0.0834 -0.0160
42261W        W85252  17.470  12.017  20.886 -0.2269  0.1028  0.2228
42262W        W85253  21.897   9.286   3.461 -0.0726  0.2814 -0.2594
42263W        W85254  11.463  20.601  24.628  0.0422  0.2535 -0.1614
42264W        W85255   7.054  16.375  22.496  0.2920  0.1023 -0.2143
42265W        W85256  22.101   9.862  28.574 -0.1257 -0.0331  0.0777
42266W        W85257   5.044  21.967  19.694  0.1512  0.2942 -0.3205
42267W        W85258   0.512  18.859   0.587 -0.1635  0.1879 -0.1087
42268W        W85259   9.267  11.856  23.545  0.1129 -0.1929  0.1461
42269W        W85260  10.336  33.890   5.322 -0.0300 -0.0679  0.1848
42270W        W85261  17.189   8.163   3.852 -0.0267 -0.1073 -0.0931
42271W        W85262   5.982  11.459  23.957  0.0037  0.2771  0.2914
42272W        W85263  13.208  23.574   3.318 -0.0564 -0.2507 -0.1379
42273W        W85264   9.363  17.086  28.460  0.0006 -0.0379  0.2236
42274W        W85265   3.846  29.306  28.861  0.2326  0.2410  0.1847
42275W        W85266  28.677   3.452   1.731 -0.1542 -0.1027 -0.0304
42276W        W85267  27.703  15.840  19.341 -0.1373 -0.1363 -0.1452
42277W        W85268  22.863  28.053  16.102  0.1684 -0.0851  0.0648
42278W        W85269  34.507  16.189  19.101  0.0359 -0.2228  0.1928
42279W        W85270  10.148  21.565   4.493 -0.1503  0.0242 -0.1629
42280W        W85271  23.961  24.750   6.153  0.3122 -0.1581  0.1254
42281W        W85272  12.657   3.182   7.431 -0.0354  0.0459 -0.0418
42282W        W85273   5.278  16.651  17.313  0.0843  0.1933 -0.2050
42283W        W85274  27.779  27.248  14.518  0.1581 -0.1158 -0.1984
42284W        W85275  22.110   4.100   3.163 -0.4266 -0.1287  0.0058
42285W        W85276   3.462  18.027   1.615 -0.1277  0.0483  0.2591
42286W        W85277  12.043   3.276  24.423 -0.0742 -0.2313  0.2559
42287W        W85278   9.248  19.920  19.627  0.2572  0.0992  0.2715
42288W        W85279  30.612  11.033   9.935 -0.6599 -0.1348 -0.0032
42289W        W85280  16.831  22.671   9.640  0.1368 -0.0739  0.1237
42290W        W85281   6.932  21.136   5.241  0.1518 -0.0370 -0.0077
42291W        W85282  12.902  17.527  28.559  0.5123 -0.1450  0.0904
42292W        W85283  19.864  11.470   7.037  0.2528 -0.1125 -0.1095
42293W        W85284  21.324  10.038   4.083  0.0560 -0.0966 -0.0073
42294W        W85285   0.594  12.805   8.070  0.1820  0.0204 -0.0096
42295W        W85286  34.657  14.867   3.068 -0.0405  0.1513  0.1001
42296W        W85287  13.403  28.633  24.016 -0.2013  0.2675 -0.0817
42297W        W85288   8.920  18.452   8.907  0.1414  0.1611  0.0092
42298W        W85289   9.583  13.681  22.980 -0.2086  0.1255 -0.0609
42299W        W85290  24.048  10.600  25.837  0.2579 -0.1266  0.3320
42300W        W85291  15.355  17.226   6.039  0.0493 -0.1436 -0.2671
42301W        W85292  32.455  13.824  10.879 -0.4419  0.0697  0.1027
42302W        W85293  30.496  19.046   9.644  0.0108  0.0242  0.0317
42303W        W85294  31.380  14.058  19.503 -0.0279 -0.1349  0.1499
42304W        W85295  11.955   3.288   1.342 -0.0697  0.2003 -0.0255
42305W        W85296   7.075  12.903   8.061  0.0942  0.5199  0.1861
42306W        W85297  32.812  14.478  27.556 -0.0857 -0.1771 -0.1549
42307W        W85298  15.469  16.016  28.477 -0.0688 -0.1898  0.1803
42308W        W85299   8.526  22.846   2.498 -0.1078  0.1670 -0.0334
42309W        W85300  24.786  32.034   3.299  0.3767 -0.2053 -0.1276
42310W        W85301  18.521   7.077   6.629 -0.1128  0.2081 -0.0317
42311W        W85302  22.374  13.614   0.226 -0.0182  0.0446  0.0711
42312W        W85303  21.715   7.306   9.174  0.1586 -0.2547  0.0273
42313W        W85304  30.729  12.787  20.228 -0.3533  0.3587 -0.0523
42314W        W85305  31.995  11.241  25.957 -0.1771 -0.1054 -0.0822
42315W        W85306  16.272   7.321   9.133 -0.5426  0.1000 -0.0606
42316W        W85307   8.024   1.854   5.122  0.1025 -0.2598 -0.1622
42317W        W85308   3.658  31.982  27.204 -0.0480 -0.3609  0.1819
42318W        W85309  21.993  31.903  28.191 -0.0766  0.0885 -0.0218
42319W        W85310  15.666   5.523  29.098  0.5549  0.4331  0.2307
42320W        W85311  13.527  23.263   6.893  0.0294  0.0024 -0.2577
42321W        W85312  13.305  13.916  23.233  0.1452 -0.0680 -0.0473
42322W        W85313  10.348  15.348   4.448 -0.0590 -0.0569  0.1455
42323W        W85314   8.243   1.118   8.453  0.1684  0.0898 -0.2485
42324W        W85315  28.319   8.149  14.860  0.2316  0.3262  0.4346
42325W        W85316  24.564  28.922  24.447 -0.2392 -0.0284 -0.0736
42326W        W85317  24.799  18.505  27.066 -0.0035  0.3282  0.4058
42327W        W85318   3.435  20.207  26.609  0.0775 -0.1854  0.1986
42328W        W85319  16.643  15.260  12.494  0.1249  0.1088 -0.1639
42329W        W85320   0.880  12.484  25.335 -0.2561  0.0299  0.1571
42330W        W85321  15.598  22.254   2.483  0.0009  0.0119 -0.0884
42331W        W85322   4.565  18.812  19.492  0.0258 -0.0656  0.1723
42332W        W85323  21.605   6.538   1.824 -0.1077 -0.0615  0.0860
42333W        W85324  14.541   6.744   6.201  0.2961 -0.0324 -0.0282
42334W        W85325   2.396  17.594   2.761  0.1138 -0.0689  0.1528
42335W        W85326  32.351   2.944   6.366  0.2276 -0.2088 -0.0642
42336W        W85327  18.951  15.475  12.448 -0.1752  0.2218 -0.0270
42337W        W85328  13.630  23.057  25.301  0.0153  0.0448 -0.1246
42338W        W85329  13.190  28.554   2.642 -0.1179 -0.2144 -0.1503
42339W        W85330  27.463  27.481   1.934  0.0294 -0.2946 -0.1630
42340W        W85331  10.656  24.863   0.340 -0.0278 -0.2179 -0.1605
42341W        W85332  33.739  11.805  29.031 -0.2752  0.0981 -0.1478
42342W        W85333  11.999   7.491   9.644  0.3169 -0.0322 -0.1170
42343W        W85334  12.511   6.819   0.194 -0.0513  0.0830 -0.0440
42344W        W85335   6.135  12.279   7.328 -0.0473  0.4996  0.1289
42345W        W85336   8.677  13.421   4.182 -0.1715  0.1925 -0.0403
42346W        W85337   6.613   8.447   2.265 -0.2252  0.0946  0.1820
42347W        W85338  21.164  10.614  26.421  0.0761  0.3098  0.0091
42348W        W85339  10.470  30.596   3.781 -0.4997  0.2836 -0.2376
42349W        W85340   2.402  11.914   3.837 -0.1389  0.2798  0.0651
42350W        W85341  34.616  20.371  20.388 -0.0833  0.1587 -0.2727
42351W        W85342  28.821  10.555  27.370  0.2246  0.3291  0.2820
42352W        W85343  15.044  10.970   9.002  0.0651 -0.0562 -0.0748
42353W        W85344   0.481  19.598  27.380 -0.0958  0.1813  0.0623
42354W        W85345  18.515  11.503  27.662 -0.1416  0.0787 -0.2704
42355W        W85346  30.964   9.186  24.750  0.2327  0.0980  0.1329
42356W        W85347  12.600   6.503  23.261  0.0627  0.2403  0.4740
42357W        W85348  16.779  15.635   0.314 -0.2946  0.2429  0.0601
42358W        W85349  18.747  17.060   9.172 -0.0953  0.3088  0.0578
42359W        W85350  22.020   2.295  15.347  0.1840 -0.1499  0.0411
42360W        W85351  10.625   8.293  16.033  0.5725 -0.1917 -0.3128
42361W        W85352  22.679  10.842  26.197 -0.0430  0.0935 -0.1150
42362W        W85353  13.578   6.471  23.303 -0.1561 -0.1014  0.5012
42363W        W85354  12.647  14.940  14.406 -0.0592 -0.1152  0.2268
42364W        W85355  21.059  27.594  13.968  0.2343  0.4239 -0.0504
42365W        W85356  32.121  32.923   1.104 -0.2681 -0.0549  0.0780
42366W        W85357  22.414  19.741  25.831  0.0323 -0.1956 -0.1959
42367W        W85358  14.463   7.955  17.200 -0.3631 -0.0627 -0.0327
42368W        W85359   4.459   0.349  14.582 -0.1214  0.0156 -0.3168
42369W        W85360  13.698  13.193  27.265 -0.0431  0.0692 -0.2520
42370W        W85361  20.530  21.980  28.239  0.3499  0.0026 -0.0641
42371W        W85362   8.951   6.143  19.320  0.0388  0.1353  0.0434
42372W        W85363   4.004  31.734  22.713 -0.2304 -0.0817  0.0584
42373W        W85364  14.221  15.430  13.364  0.0351  0.3017 -0.0189
42374W        W85365   6.304  22.559  19.701  0.0448  0.3087 -0.2057
42375W        W85366  32.694  29.676   0.661 -0.0433 -0.3887  0.0042
42376W        W85367  18.779  30.692  20.666  0.1840 -0.0222  0.0046
42377W        W85368  15.153  31.208   1.188 -0.1093  0.1209  0.0734
42378W        W85369  13.145  15.386  27.122 -0.1635 -0.3708  0.2328
42379W        W85370  20.989  11.383  20.169 -0.0472 -0.0804  0.1517
42380W        W85371   7.235  12.011  21.195  0.0886 -0.0590 -0.3013
42381W        W85372  10.332  20.692  22.150  0.2320 -0.4745  0.2448
42382W        W85373  12.247  13.917  20.151  0.3758 -0.0487  0.0730
42383W        W85374  10.398  10.845   0.406 -0.1977  0.0848  0.0308
42384W        W85375   5.051   9.522  21.423 -0.0173  0.0640  0.2029
42385W        W85376   1.560  27.255  27.038  0.1577 -0.1059 -0.1178
42386W        W85377  14.679  29.308  29.226  0.2421  0.2697 -0.1124
42387W        W85378   5.211  23.903   2.174  0.1608  0.0224  0.0330
42388W        W85379  18.171   8.664  15.330  0.1483  0.0149 -0.2106
42389W        W85380   6.452  25.224  16.525 -0.0792 -0.0679 -0.2374
42390W        W85381  28.865  20.098  22.602 -0.1761 -0.1063  0.0852
42391W        W85382   6.365  16.759  14.870 -0.1315  0.1368 -0.2866
42392W        W85383   9.651  25.983  28.439 -0.1617  0.0126  0.1002
42393W        W85384  15.285  24.622   4.234 -0.0545 -0.0860 -0.0303
42394W        W85385  11.033  24.595   1.433 -0.3809 -0.0786 -0.2023
42395W        W85386   2.004  12.363  21.419  0.2006  0.0160  0.1326
42396W        W85387  16.834  20.544  25.669  0.0466 -0.1287 -0.1960
42397W        W85388   9.985  12.108  23.349 -0.0422 -0.0541  0.0666
42398W        W85389  11.189  25.572  22.066  0.0749  0.0654 -0.3603
42399W        W85390   1.803  18.837  18.005 -0.0501  0.2315  0.0891
42400W        W85391  13.486  11.907  14.960  0.2637  0.0258 -0.0392
42401W        W85392  23.013   2.658   3.639 -0.0211 -0.0184  0.2428
42402W        W85393   6.575  21.850  17.130 -0.1741  0.0567  0.0517
42403W        W85394  25.849  11.912  22.378 -0.0160  0.4818 -0.3864
42404W        W85395   2.445  28.270  19.271 -0.0203 -0.2282  0.0736
42405W        W85396  23.394  26.028  15.375  0.1357  0.1670  0.3230
42406W        W85397  17.207   5.153   0.113 -0.2164 -0.4472 -0.1498
42407W        W85398  22.914   4.312  23.746  0.1361  0.3200 -0.0413
42408W        W85399  11.052   2.043  26.272  0.2664 -0.1540 -0.1295
42409W        W85400   0.470  14.967  16.440 -0.0631  0.1865  0.1203
42410W        W85401   3.894  26.170   0.726  0.0633 -0.2611 -0.0000
42411W        W85402  26.627  31.498  23.476 -0.0500 -0.1807 -0.2650
42412W        W85403   0.825  18.463   2.114 -0.1671 -0.0620  0.0940
42413W        W85404  10.908  21.280  18.595  0.0058 -0.1027 -0.1073
42414W        W85405  18.163  20.041  22.953 -0.4920 -0.2395  0.0957
42415W        W85406   9.236   2.926  28.525  0.0372 -0.1182 -0.1009
42416W        W85407   5.212  12.440  21.728 -0.1573  0.1135 -0.0260
42417W        W85408  10.604   1.945  24.372  0.0957  0.0144  0.2850
42418W        W85409  11.103  25.042  22.117  0.1006 -0.1236  0.0757
42419W        W85410  22.880  18.035  22.978  0.3520  0.1298  0.3529
42420W        W85411   2.932  11.058  26.729 -0.2309 -0.2616  0.1705
42421W        W85412  29.011  24.201  15.505  0.0450  0.3034  0.0009
42422W        W85413  13.336  12.811  20.190 -0.2076 -0.0631  0.0931
42423W        W85414  13.927  25.852  15.468  0.0651 -0.1827  0.1538
42424W        W85415  24.445  17.828   5.301  0.0942  0.0394 -0.0781
42425W        W85416  31.278  13.616  16.836 -0.0995  0.2850 -0.1260
42426W        W85417  19.065  14.344  16.968 -0.2107  0.2049  0.3567
42427W        W85418  14.265  22.563  28.195  0.0811 -0.2072  0.2164
42428W        W85419  13.184  17.272  25.195  0.1095 -0.0568 -0.3212
42429W        W85420   8.388  24.294  18.382  0.0630  0.2632 -0.0845
42430W        W85421  11.016  32.261  26.556 -0.1643  0.1273 -0.1410
42431W        W85422  28.138  22.714  20.500  0.0252  0.4468  0.0662
42432W        W85423   6.207   0.021  18.339  0.1009  0.0374 -0.0589
42433W        W85424   0.295  17.268  21.311  0.0792 -0.1043 -0.1017
42434W        W85425  14.437  10.255  22.026 -0.3004 -0.2708 -0.1604
42435W        W85426   1.596  24.877  17.038  0.0758  0.0196  0.0172
42436W        W85427  10.910  19.328  17.404  0.1397 -0.2170  0.1596
42437W        W85428  17.872  10.927  17.682  0.1324 -0.0028  0.1122
42438W        W85429   3.415  29.698  24.973 -0.0037 -0.0780  0.1142
42439W        W85430   3.769  26.004  14.869  0.5543  0.0720  0.2853
42440W        W85431  16.555  24.870  21.751 -0.0040 -0.4977  0.1360
42441W        W85432  18.305  11.561  22.575 -0.0475  0.0475  0.1061
42442W        W85433  22.470  31.317  16.939  0.4888  0.0713  0.4232
42443W        W85434   9.798  34.117  20.455 -0.2241  0.1872 -0.0432
42444W        W85435  21.622  13.960  19.344 -0.4081  0.2099 -0.1008
42445W        W85436   8.274   2.832  15.531 -0.0689 -0.2538 -0.1746
42446W        W85437   8.617  26.743  24.744 -0.0419  0.1953  0.2722
42447W        W85438   5.756  22.438  20.037  0.0378  0.1034 -0.3793
42448W        W85439   1.759   9.220  15.555 -0.3065 -0.0491  0.2430
42449W        W85440   4.863  25.016   1.601  0.1394 -0.0876 -0.0219
42450W        W85441  28.455  30.561  18.259 -0.2370  0.2701  0.1003
42451W        W85442  13.316  22.697  13.948 -0.0882 -0.3255  0.0615
42452W        W85443  14.071  18.628  14.270 -0.1662 -0.0387 -0.0303
42453W        W85444  14.114  16.118   8.876 -0.2383 -0.0928 -0.0734
42454W        W85445  31.960   6.388   5.897  0.2491  0.1864  0.0816
42455W        W85446  10.217  17.212  15.467  0.0166  0.0992  0.0863
42456W        W85447   0.992  12.895  19.411  0.3981  0.1868  0.0012
42457W        W85448  13.243  16.351  14.085  0.0695 -0.2031  0.1427
42458W        W85449  13.060  16.844  22.417  0.0393 -0.1528  0.1315
42459W        W85450  24.560  15.004  14.923  0.2446 -0.0162 -0.0427
42460W        W85451  18.418  31.801  26.165 -0.0742 -0.1321 -0.0233
42461W        W85452  17.054  32.995  14.837  0.3385  0.0804 -0.0516
42462W        W85453  33.201  18.268  17.020  0.1112  0.1322 -0.0646
42463W        W85454   5.296   5.711  20.919 -0.0912  0.1631 -0.1768
42464W        W85455   0.657  21.286  16.442 -0.0646 -0.0472  0.1782
42465W        W85456   8.453  32.252   5.528 -0.0763 -0.1779  0.2311
42466W        W85457   2.825  24.003  18.612  0.5138  0.2791  0.3341
42467W        W85458  20.741  15.552   5.127 -0.0875  0.3565  0.0442
42468W        W85459  15.824  13.545  21.123  0.1479  0.1297  0.3684
42469W        W85460  10.246  28.501  24.388 -0.1718 -0.0168  0.0959
42470W        W85461   3.139  22.286  17.436 -0.2930  0.3154 -0.1101
42471W        W85462   3.884  23.350  26.439  0.1698  0.0436 -0.0347
42472W        W85463   3.462  26.324  15.089 -0.1096  0.1571 -0.0549
42473W        W85464  13.317   4.631  27.649  0.3145 -0.1333  0.2704
42474W        W85465  31.780  21.343  18.413 -0.3161  0.3355  0.0294
42475W        W85466  11.053  15.159  17.657 -0.2578  0.0285 -0.1294
42476W        W85467  33.963  17.771   7.047  0.2770 -0.1393  0.0913
42477W        W85468  11.991   9.557  17.581 -0.0684 -0.1626 -0.2679
42478W        W85469  12.609   6.266   2.856 -0.2169 -0.1367  0.0304
42479W        W85470   0.968   3.978  26.740 -0.2219  0.1796 -0.4121
42480W        W85471  11.625   1.786   2.157  0.3811  0.2165 -0.2139
42481W        W85472  18.069  23.272  22.820  0.0695  0.1159  0.1464
42482W        W85473  34.062  20.697  13.931 -0.1497  0.2564 -0.1819
42483W        W85474   9.761  12.790  15.140  0.1086  0.0466  0.3010
42484W        W85475  31.312  22.433  14.547  0.0586  0.1233 -0.0001
42485W        W85476  34.593   8.566  27.415 -0.0748 -0.1788  0.0108
42486W        W85477  19.606   5.499  17.162  0.0251 -0.2208  0.1691
42487W        W85478  30.200  12.047  16.937  0.2829 -0.3291  0.1828
42488W        W85479  16.714  21.149  17.766 -0.0856 -0.0384  0.0239
42489W        W85480  19.539  28.360  21.214  0.2094  0.1090 -0.5185
42490W        W85481  23.559  11.800  22.940 -0.1601 -0.1344 -0.0758
42491W        W85482  26.447  13.984  26.498  0.1026  0.1771 -0.2385
42492W        W85483   6.995   8.282  21.680 -0.1890 -0.1157  0.0865
42493W        W85484   4.584  27.745  16.547 -0.0781 -0.0165 -0.0510
42494W        W85485   6.819  25.922  17.184  0.0651  0.0002 -0.1282
42495W        W85486  17.228  22.078  18.129 -0.3985  0.2377  0.1383
42496W        W85487  10.152  17.055  19.527  0.1218 -0.0767 -0.1875
42497W        W85488  18.738  26.245  18.807 -0.1715 -0.1872  0.1316
42498W        W85489  11.672  22.941  15.423 -0.1573  0.3562 -0.1618
42499W        W85490   9.443  18.859   4.683  0.0377 -0.0611 -0.0315
42500W        W85491  34.136   9.923  16.432 -0.0535  0.0067  0.0127
42501W        W85492  10.675  20.764  27.960  0.0745 -0.2944 -0.1891
42502W        W85493   5.670  27.186  14.094 -0.0533 -0.1395 -0.2067
42503W        W85494   5.318  30.216  14.603  0.0983  0.0820  0.0592
42504W        W85495  19.174   1.112  22.371  0.1437  0.2924 -0.2805
42505W        W85496   5.793   5.562  24.779  0.1192  0.0515  0.0468
42506W        W85497   7.424  30.105  15.597 -0.0366 -0.0062 -0.1860
42507W        W85498  10.132  12.523  23.119 -0.0156  0.0866  0.3183
42508W        W85499  27.254   6.798  16.476 -0.0061 -0.0789 -0.1972
42509W        W85500  18.900  32.310  27.172  0.3450 -0.5311 -0.0852
42510W        W85501  26.072  18.029  15.598  0.0843  0.4197  0.1274
42511W        W85502  11.978   7.293   9.181 -0.0325  0.0435 -0.1900
42512W        W85503  11.537  22.131  14.671 -0.2460 -0.1015 -0.0034
42513W        W85504  12.813  27.540  21.108 -0.0905  0.2377 -0.0470
42514W        W85505   1.919  16.859  19.844 -0.1458 -0.2439 -0.2126
42515W        W85506  33.617  25.590  20.885 -0.2239 -0.0100 -0.3530
42516W        W85507   6.357  21.597  21.305 -0.0075 -0.2466  0.1069
42517W        W85508  25.552   9.092  18.588  0.0775 -0.2645  0.1253
42518W        W85509  11.036   8.101  19.939  0.2679 -0.1970  0.1498
42519W        W85510  20.305  14.933  23.557 -0.0800  0.0331  0.1885
42520W        W85511  11.455  10.462  27.418  0.4704 -0.1571  0.0044
42521W        W85512   9.188  27.092  18.409 -0.2984 -0.2849 -0.2873
42522W        W85513  31.772   3.833  20.973  0.1084  0.1120  0.0697
42523W        W85514  32.033  18.008  15.817  0.0612  0.2632 -0.2322
42524W        W85515  14.626  27.352  14.567 -0.3561  0.1436  0.1687
42525W        W85516   9.650   1.052  18.443 -0.0841  0.1935 -0.2336
42526W        W85517  34.265  12.371   0.550 -0.0136  0.0326 -0.1243
42527W        W85518   7.870   7.035   1.603  0.1160 -0.1726  0.2655
42528W        W85519   3.023  19.015  26.710  0.2030  0.1766  0.0187
42529W        W85520   8.914  17.780  15.367  0.0086  0.3137 -0.1080
42530W        W85521  23.373   6.791  18.643  0.0926 -0.0231 -0.3169
42531W        W85522   2.899  16.570  18.640 -0.2675  0.3167  0.1681
42532W        W85523   4.628  27.174  14.413 -0.1849 -0.0922  0.1305
42533W        W85524  12.626  26.296  27.159  0.0752  0.0817 -0.0718
42534W        W85525  22.763  34.254  14.067  0.2948 -0.1257  0.2426
42535W        W85526  16.001   0.628   5.764  0.3110  0.0405 -0.0214
42536W        W85527  13.071  12.759  17.335  0.0952  0.0986 -0.0253
42537W        W85528  26.718  23.471  24.617  0.0900  0.0373 -0.1708
42538W        W85529   2.494   4.445  10.690  0.0607  0.0360  0.1463
42539W        W85530   9.730  28.606   1.927 -0.2841  0.0916  0.1513
42540W        W85531  24.642   5.716  15.324  0.0995  0.1462 -0.0269
42541W        W85532  14.114  19.142  14.287 -0.2471 -0.3235 -0.1271
42542W        W85533   8.598  17.182  28.227 -0.0380 -0.0934 -0.0210
42543W        W85534   8.848  16.104  21.041 -0.1969 -0.0209  0.0704
42544W        W85535  30.442   3.328  21.112 -0.1548  0.1194 -0.4263
42545W        W85536   7.428  21.764  20.529  0.0788 -0.4390  0.0870
42546W        W85537  15.613  13.858  13.485 -0.0963 -0.3203  0.0820
42547W        W85538   8.731   2.567  18.487  0.0793 -0.0730  0.0106
42548W        W85539  28.462   9.577  29.221  0.1549  0.1364 -0.0501
42549W        W85540  12.975  19.625  23.435  0.2726  0.2373 -0.1529
42550W        W85541   9.012  14.005  15.982  0.0084 -0.0108  0.1246
42551W        W85542  19.361  12.577  16.073  0.3351  0.0568  0.1056
42552W        W85543  12.505   6.796   0.988 -0.0897 -0.0360  0.2780
42553W        W85544  33.492  11.977  15.462 -0.0053 -0.0936 -0.1074
42554W        W85545  13.415  22.709  15.528 -0.1919  0.0188  0.2792
42555W        W85546  12.136  12.050  19.100 -0.1103 -0.3322 -0.0699
42556W        W85547  15.248  13.979  26.024 -0.2522  0.0050  0.1674
42557W        W85548  11.292  19.461  13.496 -0.1030 -0.0366 -0.2968
42558W        W85549   0.537  30.740  24.798 -0.4177  0.1307  0.0615
42559W        W85550  22.948   6.125  24.347  0.1465  0.4167  0.0023
42560W        W85551  10.286  30.780  19.099 -0.0845 -0.0233  0.0426
42561W        W85552   4.787  28.679  25.420  0.2338 -0.0624  0.3793
42562W        W85553  13.877  18.460  13.862 -0.1864 -0.0537 -0.0346
42563W        W85554   4.562  27.023  19.510  0.0071  0.1953 -0.2260
42564W        W85555  12.253  34.675  16.514  0.0898 -0.0341  0.0836
42565W        W85556   3.511  29.485  26.513  0.0410 -0.3190  0.0284
42566W        W85557   4.286  24.733  13.877  0.3430 -0.0074  0.2836
42567W        W85558  23.714  21.751  15.964  0.0481  0.2321 -0.1398
42568W        W85559  25.126  10.088  16.607  0.1160  0.1712  0.2727
42569W        W85560   4.460  23.023  18.088  0.1097  0.0385  0.1764
42570W        W85561  10.699  16.152   2.943 -0.1782  0.1101  0.1065
42571W        W85562  30.400  21.727  26.300 -0.0757  0.0897  0.0995
42572W        W85563  15.085   8.596  15.627 -0.2009  0.0182 -0.2259
42573W        W85564  16.069  25.435  17.772  0.1731  0.0135 -0.1305
42574W        W85565  22.206   7.250  15.243 -0.3762 -0.5795 -0.4448
42575W        W85566   7.316  23.633   9.593  0.0987  0.0449  0.0047
42576W        W85567  12.103  18.189  16.325  0.1015  0.4611 -0.3203
42577W        W85568  14.582  24.771  24.222 -0.2073  0.0888 -0.4182
42578W        W85569  24.750  18.728  13.901 -0.2061 -0.2357 -0.0692
42579W        W85570  19.127  25.895  18.776 -0.0446  0.0370 -0.6794
42580W        W85571  22.358  27.428  17.811  0.3214 -0.1295  0.2838
42581W        W85572   7.721   1.063  21.865 -0.0984 -0.0563 -0.2516
42582W        W85573   7.276   9.248  16.457 -0.1734  0.2818  0.1043
42583W        W85574   7.624  14.609  24.776 -0.1569 -0.2737  0.2738
42584W        W85575  13.661  12.169  27.350  0.0681  0.0010  0.1423
42585W        W85576  13.073  29.766  21.103  0.4534 -0.0321  0.0531
42586W        W85577   4.253   3.146  25.719  0.2461  0.0816 -0.1835
42587W        W85578   9.058  18.811  19.196 -0.3009 -0.3157  0.0973
42588W        W85579  12.834  23.495  16.211  0.2705 -0.2025 -0.3563
42589W        W85580  18.538   6.890   5.529 -0.2234 -0.2394  0.3118
42590W        W85581  12.484   9.504  20.096 -0.0553  0.1730 -0.2942
42591W        W85582   4.544  19.404  25.100  0.0102  0.0543  0.1800
42592W        W85583  33.710  14.802  24.847  0.3045  0.2764  0.2068
42593W        W85584   0.229  13.235  16.956 -0.2277  0.1573 -0.0171
42594W        W85585   3.378  26.291  25.812 -0.3290 -0.1996  0.2077
42595W        W85586   1.563  19.751  18.940  0.2052  0.0245 -0.1327
42596W        W85587   5.609  19.331  22.707 -0.1864 -0.3278 -0.1877
42597W        W85588  20.620  26.394  14.809  0.0181 -0.1992 -0.1303
42598W        W85589  29.028  21.153  18.164  0.0435 -0.3235  0.0164
42599W        W85590  13.450  15.575  24.012  0.3374  0.1974  0.1051
42600W        W85591   7.974  18.028  17.427 -0.0857  0.1182 -0.3597
42601W        W85592   7.128  16.222   1.634  0.1570  0.0991 -0.0650
42602W        W85593   0.446   2.922  16.031 -0.0436  0.1170 -0.1291
42603W        W85594   9.087  13.377  21.297  0.3817  0.0534 -0.1690
42604W        W85595  19.041  11.452   3.708  0.3047 -0.0386 -0.0374
42605W        W85596  34.076  14.651   3.331 -0.4834  0.1948  0.1720
42606W        W85597  34.476  32.508  20.934 -0.3993 -0.1928  0.1953
42607W        W85598   3.218  19.989   4.204  0.1185  0.1648  0.0879
42608W        W85599   1.215   6.472   3.954  0.0177 -0.0004 -0.1799
42609W        W85600  18.955  16.295  13.208 -0.1162  0.1791 -0.0876
42610W        W85601  16.906  22.570  26.210 -0.0799  0.0212 -0.0531
42611W        W85602   6.310  26.818  20.138 -0.5634  0.0082  0.3269
42612W        W85603   9.788   7.216  19.766  0.2504  0.1634  0.0739
42613W        W85604  14.423  14.426  22.172 -0.1418 -0.3285 -0.2460
42614W        W85605   9.373  23.380  27.329  0.3935 -0.1255 -0.3358
42615W        W85606   5.345  16.979   2.208 -0.1967 -0.0639 -0.0747
42616W        W85607  16.632  34.715  25.778  0.1038  0.1091 -0.1604
42617W        W85608  12.249  30.823  28.252 -0.2936  0.5068 -0.6137
42618W        W85609   1.235  26.858  28.908 -0.1576 -0.2381 -0.2745
42619W        W85610  13.523   1.306  18.763 -0.0082 -0.1067 -0.2785
42620W        W85611  32.048  21.756  18.189  0.2020 -0.3171  0.2988
42621W        W85612  34.436  15.221  24.489 -0.1461 -0.1550 -0.3847
42622W        W85613   7.795  23.849  14.017  0.1631  0.0269 -0.0310
42623W        W85614  13.694  13.344  24.382  0.3516  0.3520  0.1769
42624W        W85615   0.574  15.697  17.862 -0.0173  0.1159  0.1378
42625W        W85616  30.012  12.866  17.341 -0.4139  0.1571  0.0224
42626W        W85617  14.396  34.099  19.300 -0.2532 -0.0781 -0.3063
42627W        W85618   2.872  19.606  26.278 -0.0133  0.0147  0.1022
42628W        W85619   7.598   9.088  25.031 -0.3616  0.0232 -0.1047
42629W        W85620  21.942  31.371  14.482 -0.2510  0.1595 -0.1157
42630W        W85621   3.872  24.127  25.286  0.0358 -0.4741 -0.1436
42631W        W85622   6.028  25.564  18.619  0.1795  0.0097 -0.2574
42632W        W85623   2.068  20.240  14.964  0.0694  0.1624  0.0034
42633W        W85624   2.698  17.994  18.404  0.1545 -0.3390  0.1905
42634W        W85625   8.474  16.323  22.655 -0.1483  0.4003 -0.1474
42635W        W85626   6.202  17.492  23.693 -0.2359  0.3517 -0.2074
42636W        W85627  32.531  24.392  18.333 -0.2400  0.0455 -0.0534
42637W        W85628   7.470  30.084  13.746 -0.0426  0.0733  0.2906
42638W        W85629  17.076  19.449  14.021  0.2632  0.2593  0.0249
42639W        W85630   1.125   6.641  25.688 -0.1504  0.3425  0.0703
42640W        W85631   5.286  22.317  18.335 -0.1633 -0.0750 -0.0670
42641W        W85632  21.026  23.523  14.039 -0.1376 -0.0694  0.1574
42642W        W85633  13.300  13.567  14.965 -0.3720 -0.4013  0.2413
42643W        W85634  15.575   3.785  16.933  0.1400 -0.2483 -0.1779
42644W        W85635   9.917  12.838  14.631  0.1433 -0.3735  0.0378
42645W        W85636  27.782  23.427  19.245 -0.0121 -0.2220 -0.0102
42646W        W85637  33.065  16.359  10.797  0.1316 -0.1097 -0.3163
42647W        W85638  24.271   3.512  26.090 -0.5179  0.0092  0.2917
42648W        W85639   9.365  18.175  17.287 -0.0244 -0.1540 -0.3318
42649W        W85640  19.900  26.292  24.308  0.2137 -0.0186 -0.0577
42650W        W85641  26.107  23.461  18.312  0.2228 -0.0217 -0.0823
42651W        W85642  14.694   6.269  16.310  0.0057  0.0973  0.3093
42652W        W85643  21.558  18.740  17.193 -0.1880 -0.0001  0.0764
42653W        W85644  25.252  24.354  16.955 -0.1632 -0.2153 -0.0023
42654W        W85645  14.202   5.607   7.373 -0.0143  0.3756  0.1257
42655W        W85646   1.890  31.280  19.617  0.0412 -0.0462 -0.0976
42656W        W85647   1.322  24.612  27.182  0.1064 -0.0093 -0.0676
42657W        W85648   3.654  14.849  21.966  0.2484 -0.0615 -0.0762
42658W        W85649  12.771  18.771  21.305  0.1534  0.0479  0.0384
42659W        W85650   7.104  14.713  24.269 -0.2050 -0.2318 -0.1860
42660W        W85651   7.024   6.530  22.261  0.3739  0.2458 -0.0380
42661W        W85652  29.442  13.109  19.865  0.2521 -0.1327  0.1644
42662W        W85653  12.308  21.494  18.557 -0.1908 -0.3991  0.1861
42663W        W85654  12.094  31.901  15.768  0.1597  0.0623 -0.2599
42664W        W85655  25.060  12.937  14.643  0.0790 -0.3260  0.0117
42665W        W85656  17.651  33.071  28.382  0.1956 -0.1303  0.1995
42666W        W85657   5.986  13.488  20.853 -0.1664  0.2537  0.1597
42667W        W85658   4.121   4.253  29.084 -0.2395 -0.0306 -0.0349
42668W        W85659  13.144   2.898  19.613  0.3279 -0.0581 -0.1743
42669W        W85660  12.045  19.459  23.176  0.1009  0.0691 -0.0007
42670W        W85661  25.114  18.519  16.557  0.0964 -0.2551  0.0054
42671W        W85662  31.807   9.551   3.859 -0.1615  0.0218  0.1746
42672W        W85663  12.746  12.298  20.136  0.0202 -0.0866 -0.1969
42673W        W85664  15.569  19.696  13.408  0.1855 -0.0648 -0.0185
42674W        W85665   6.981  11.965  23.138  0.2350 -0.1148 -0.1973
42675W        W85666  16.143  25.875  14.218  0.1418 -0.3207  0.0499
42676W        W85667   5.135  26.569  15.091 -0.2145  0.0596  0.2259
42677W        W85668  22.465  25.449  21.114 -0.0845  0.0123 -0.0163
42678W        W85669  23.670  16.713  21.065 -0.1382 -0.1081  0.1792
42679W        W85670   1.206  12.298  24.479 -0.1584 -0.0319 -0.1629
42680W        W85671  20.297  12.188  19.270  0.1168 -0.0468 -0.2501
42681W        W85672  23.309  18.498   2.767  0.4143 -0.1568  0.3419
42682W        W85673  24.867  13.069  15.898 -0.0791 -0.0049  0.0424
42683W        W85674  17.302  21.809  13.407  0.3796  0.2458  0.1791
42684W        W85675   5.714  16.615  17.124 -0.1558  0.0066 -0.1117
42685W        W85676  11.077   9.853  15.375 -0.0080  0.0669 -0.0679
42686W        W85677   9.427   3.685  23.853  0.1702  0.3025  0.1773
42687W        W85678  27.036  10.292   1.223 -0.5024  0.0505 -0.1213
42688W        W85679  11.325  21.317  19.994 -0.1362 -0.0673  0.2981
42689W        W85680   1.943  20.393  16.439  0.2378 -0.1651 -0.2406
42690W        W85681   3.405  23.429   5.843  0.3330 -0.1067 -0.2445
42691W        W85682   4.801  26.059   1.850 -0.1988  0.0176  0.0295
42692W        W85683   5.165  22.298  15.408 -0.2969 -0.0195 -0.1717
42693W        W85684   1.876  25.699  17.596  0.1314  0.1478  0.0123
42694W        W85685   6.992  20.960  18.366  0.2060  0.2373 -0.1096
42695W        W85686  15.640  14.353  25.841  0.2609 -0.2812  0.2599
42696W        W85687  11.571  15.916  14.482  0.4331 -0.1581  0.2383
42697W        W85688   7.496  24.182  24.617 -0.2266  0.2022  0.1663
42698W        W85689  10.446  12.578   5.567 -0.1755 -0.0538  0.1710
42699W        W85690  11.415  18.475  20.109  0.1035 -0.1482  0.2403
42700W        W85691   8.811  20.299  27.678  0.0801 -0.1623  0.0136
42701W        W85692  23.462  16.406  20.661  0.0050  0.0155  0.2157
42702W        W85693   3.127  20.161  17.264  0.1213  0.2934  0.2845
42703W        W85694   8.729   7.906  16.642  0.1555 -0.1325 -0.0569
42704W        W85695  14.351  26.170  18.802 -0.1419  0.0700  0.0363
42705W        W85696   5.812  23.278  21.372 -0.2746  0.1676  0.1023
42706W        W85697   6.724  11.675  27.254 -0.2975 -0.0806  0.3710
42707W        W85698  31.684  22.796  23.391  0.0312  0.1553 -0.1039
42708W        W85699  10.089   1.451   5.995 -0.0089  0.1027  0.1769
42709W        W85700  17.526   7.151  17.006  0.0873  0.0886 -0.0608
42710W        W85701  12.562  30.797  21.194 -0.1997  0.3140  0.2958
42711W        W85702   9.965   9.017  22.033  0.2774 -0.3622  0.0513
42712W        W85703   3.572  24.569  22.383  0.2718  0.1414  0.4537
42713W        W85704   2.739  15.807   5.478 -0.2675 -0.4900 -0.0105
42714W        W85705  25.658  13.533   1.148 -0.2226  0.3401 -0.4009
42715W        W85706   7.500  15.741  25.788 -0.2324 -0.0615 -0.0574
42716W        W85707  15.313  23.167  21.255 -0.2811  0.0417  0.0001
42717W        W85708  19.857  11.977   2.267  0.2806  0.0054 -0.0945
42718W        W85709   2.050  29.235  24.022 -0.0817  0.0542  0.0725
42719W        W85710   3.245  22.909  14.562  0.2475  0.0057  0.0072
42720W        W85711  18.359   9.643   5.225  0.1126  0.1055  0.1582
42721W        W85712  12.403  11.520  19.040  0.5180 -0.1378 -0.3010
42722W        W85713   1.379   5.781  28.795 -0.1444 -0.1385 -0.2812
42723W        W85714   8.304   4.328  20.233 -0.2074 -0.0571 -0.5694
42724W        W85715   9.311   1.013  18.039  0.0984 -0.1350  0.3609
42725W        W85716   2.623  30.792  15.086 -0.3625  0.1935 -0.0824
42726W        W85717  33.430  22.642  27.003 -0.4238  0.0475 -0.0665
42727W        W85718  22.785  11.151  19.465  0.1364  0.0117  0.0774
42728W        W85719  13.366  20.319  15.437  0.0287 -0.1799 -0.0222
42729W        W85720  30.529  24.180  24.888 -0.1180 -0.2708  0.2192
42730W        W85721  16.165  22.310  19.366  0.0584 -0.0999  0.2111
42731W        W85722  26.417  17.903  19.047 -0.3267  0.2238 -0.1386
42732W        W85723  19.467  31.194  24.517  0.0495 -0.1373  0.1001
42733W        W85724   8.179  15.275  22.870  0.0901  0.1589 -0.1737
42734W        W85725   2.441  13.760  22.686  0.0547  0.0074  0.2572
42735W        W85726  24.458   4.404  24.136 -0.0058  0.1173 -0.0637
42736W        W85727  18.043  28.498  15.186  0.0257 -0.2284 -0.0220
42737W        W85728  28.009  30.904  21.373 -0.3003 -0.0058  0.0461
42738W        W85729  28.653  20.212  25.411  0.2754 -0.1176  0.0845
42739W        W85730  24.195   9.373  22.048 -0.0973  0.1042  0.0709
42740W        W85731  10.999  23.936  14.947 -0.1233 -0.2518  0.0720
42741W        W85732  19.683  25.940   2.084 -0.0332  0.2009 -0.2134
42742W        W85733  17.257  13.616  16.187 -0.0997  0.3672  0.0858
42743W        W85734  10.585   0.211  17.936 -0.0277  0.2314  0.0521
42744W        W85735   1.815  29.726   7.150 -0.0410  0.0311 -0.0996
42745W        W85736  14.488  27.938  20.257  0.0023 -0.0711  0.2946
42746W        W85737  33.102   6.317  21.369 -0.0724 -0.0773  0.3144
42747W        W85738  30.798  24.032  18.093 -0.1051  0.0433  0.2055
42748W        W85739  10.343  16.226  24.920  0.0025  0.1103 -0.0629
42749W        W85740  14.330   3.666  23.785  0.3786 -0.0198  0.1191
42750W        W85741  34.628  28.599  26.158  0.1210  0.1585  0.2177
42751W        W85742  21.684  30.830  28.339  0.1468 -0.1357 -0.0497
42752W        W85743  31.044  15.378  20.769 -0.0483  0.0948  0.2113
42753W        W85744   0.917  23.361  25.634  0.1014  0.1693  0.0890
42754W        W85745  11.718  10.203  18.664 -0.1455 -0.0577  0.0464
42755W        W85746   9.206  27.722   2.082 -0.0156 -0.1765  0.1626
42756W        W85747  12.041  14.397  17.939  0.0405 -0.1936 -0.3624
42757W        W85748  11.689  12.077  15.736  0.0524  0.2134 -0.1763
42758W        W85749  23.522  27.841  28.187  0.3128 -0.2503  0.1124
42759W        W85750   8.996   2.081   1.768 -0.1539 -0.0310 -0.0823
42760W        W85751  11.379  29.173  23.472 -0.1103  0.1033 -0.0857
42761W        W85752   9.819  28.629  25.279  0.2475  0.1173 -0.2292
42762W        W85753   8.692  26.226  21.857  0.0418 -0.4267 -0.0416
42763W        W85754  12.041  16.177  21.748  0.0929 -0.0633  0.5136
42764W        W85755   5.360  19.909  23.202 -0.2625 -0.0671 -0.1526
42765W        W85756  30.101   7.592   3.926 -0.0983 -0.1744 -0.0661
42766W        W85757   2.816  19.105  26.278  0.0569  0.2173  0.0637
42767W        W85758   2.324  12.104  21.919  0.0450 -0.3060  0.3839
42768W        W85759   7.792  11.944  20.779 -0.2682 -0.1511  0.0984
42769W        W85760   8.736  18.774   0.356 -0.3857  0.1634  0.2294
42770W        W85761  12.930  28.968  21.469 -0.0108 -0.0160  0.4085
42771W        W85762   3.189   7.589  17.757  0.1977  0.0962  0.1833
42772W        W85763   9.403  11.027   5.221  0.0204 -0.0703  0.0500
42773W        W85764   4.328  16.403  10.687 -0.0539 -0.0382 -0.2393
42774W        W85765  32.824  17.557  22.366  0.1852 -0.1557 -0.1610
42775W        W85766  32.424   2.046  24.753 -0.0552 -0.1617 -0.1615
42776W        W85767  15.487  29.979  20.998 -0.1719 -0.0244 -0.0907
42777W        W85768  26.285  34.428  18.920  0.2301  0.0345  0.0953
42778W        W85769  31.700  10.076  18.385 -0.0983  0.4838  0.2395
42779W        W85770   8.152  31.469  18.085 -0.0287  0.1081 -0.2081
42780W        W85771  31.965  24.662  15.274  0.3030 -0.0656  0.0198
42781W        W85772  10.048  20.365   3.435  0.2759  0.2350 -0.2097
42782W        W85773   0.523   8.982  20.030 -0.0166  0.1316  0.1105
42783W        W85774   9.548  19.544   1.344  0.2697 -0.3192 -0.0100
42784W        W85775   2.199  30.810  20.484  0.1448 -0.1058 -0.1200
42785W        W85776  23.655  21.741  20.249 -0.1990 -0.1977  0.1536
42786W        W85777  20.191  32.149  28.347 -0.2225  0.0340  0.1881
42787W        W85778  28.967  24.848   2.171 -0.3820  0.0383 -0.2464
42788W        W85779   1.497  19.243  19.313 -0.2505  0.2369  0.0765
42789W        W85780   2.681  24.936  27.062 -0.4248  0.2555 -0.0469
42790W        W85781  31.960   4.859  15.179 -0.0508  0.1356 -0.1522
42791W        W85782  29.725  10.279  19.185  0.0859  0.0430 -0.0911
42792W        W85783  18.073   8.921  26.559 -0.2599  0.0649  0.1001
42793W        W85784   0.122  32.520  27.831 -0.3473 -0.1710 -0.1074
42794W        W85785   2.569   9.878   4.002 -0.4785  0.0644 -0.1277
42795W        W85786  30.647  21.313  26.801 -0.1820 -0.1841  0.0379
42796W        W85787  27.004   9.486  20.832  0.4060  0.0826  0.1116
42797W        W85788  31.769  23.190  21.999  0.1103 -0.1164 -0.0055
42798W        W85789  26.768  19.135  15.718 -0.0474 -0.0529 -0.0090
42799W        W85790  19.836  15.149  17.697 -0.3474  0.1721 -0.0789
42800W        W85791  11.579  23.319  16.072 -0.2140  0.0092  0.0285
42801W        W85792  10.445  20.518   4.332 -0.1262 -0.0454 -0.0523
42802W        W85793  12.115  18.837   4.417  0.0775 -0.1618  0.1412
42803W        W85794  25.834  29.396  24.888 -0.0265 -0.0613  0.0079
42804W        W85795  28.978  12.105  22.296 -0.0100  0.0611  0.2503
42805W        W85796  18.609  24.117  14.693  0.2141 -0.1837  0.3134
42806W        W85797   7.376  10.540  14.663  0.0928  0.3881 -0.0238
42807W        W85798  16.803  21.361  16.217 -0.1565  0.0416  0.3427
42808W        W85799   6.028  19.249   6.736 -0.2182  0.1902  0.0089
42809W        W85800  12.170  23.020  24.944 -0.4678 -0.1639  0.2055
42810W        W85801  11.951  30.816  22.156  0.2123 -0.0242 -0.2045
42811W        W85802   8.870  10.863  17.548 -0.0327 -0.0776 -0.3418
42812W        W85803  25.533   9.166  25.720 -0.0601 -0.0810 -0.0999
42813W        W85804  11.364  31.563   7.606  0.0585 -0.0423  0.2065
42814W        W85805  30.102  23.544  16.400  0.1516 -0.2231 -0.5613
42815W        W85806  19.272   6.833  20.821  0.3737  0.2083  0.0322
42816W        W85807   9.675  17.540  27.296  0.1555  0.2488  0.1207
42817W        W85808   7.964  31.452  23.073 -0.0233  0.2613  0.1914
42818W        W85809  10.834  19.547  19.429  0.3934  0.0806 -0.1689
42819W        W85810  14.089   0.201  19.612 -0.0850 -0.1267  0.1887
42820W        W85811   9.972  21.263  17.147 -0.1241  0.2235 -0.2582
42821W        W85812  18.424   4.448  23.085 -0.1270  0.1590 -0.1054
42822W        W85813  21.922  11.032  13.795  0.2240  0.0538 -0.0014
42823W        W85814   2.226  15.256   5.775 -0.3809  0.1071 -0.2490
42824W        W85815  31.831   6.417  23.537  0.1007 -0.2265 -0.2594
42825W        W85816  16.286   2.759  20.351 -0.3779 -0.2403 -0.1837
42826W        W85817  12.670  20.716   5.950  0.1884  0.0648  0.0136
42827W        W85818  17.486  21.605  19.547  0.2308 -0.0632  0.1412
42828W        W85819  32.436  19.769  16.343  0.3465  0.0357 -0.0085
42829W        W85820  11.953  17.759  19.125  0.0753  0.4870  0.1357
42830W        W85821  10.244   9.274  24.034  0.1784  0.1216  0.2337
42831W        W85822  23.791   9.129  16.928  0.1632 -0.2800 -0.2322
42832W        W85823  26.268   6.314  13.175  0.0082  0.1562 -0.1454
42833W        W85824  34.770  25.246  24.170  0.0910  0.0057  0.0504
42834W        W85825   9.696  14.195  22.901 -0.0771  0.1630  0.0292
42835W        W85826  34.559   3.592  14.609  0.1299  0.1437  0.0210
42836W        W85827   2.153  14.569  19.474 -0.1645 -0.1593 -0.2460
42837W        W85828   6.863  11.238  18.030 -0.0646  0.1066  0.0582
42838W        W85829   9.162  32.601   7.003  0.1112 -0.2364 -0.0618
42839W        W85830   6.651  20.385  20.697 -0.1096 -0.1958  0.1589
42840W        W85831  16.915   8.331  23.500 -0.1606 -0.3927  0.1178
42841W        W85832   4.211  13.597  22.079  0.2355 -0.0893 -0.1876
42842W        W85833  32.562  29.565  23.295  0.0874  0.2622  0.1281
42843W        W85834  10.400   4.752  24.970 -0.1003  0.0508  0.1568
42844W        W85835   7.101  28.822   2.791  0.1015 -0.0526  0.0877
42845W        W85836  34.509  22.169  28.421  0.0163  0.1052 -0.0006
42846W        W85837  15.849   4.192  24.781  0.0779  0.1700 -0.0861
42847W        W85838  15.063  15.961  14.240  0.0172  0.0523 -0.2563
42848W        W85839  13.157  10.880  17.176 -0.1538  0.0591  0.3714
42849W        W85840  14.313   1.630   0.741 -0.0533  0.0205  0.1413
42850W        W85841  23.155  13.655  26.214  0.2354  0.0363  0.1750
42851W        W85842  10.515   1.657  24.771 -0.1928 -0.1836 -0.1975
42852W        W85843  15.204   0.304  17.746  0.1967  0.0780  0.0824
42853W        W85844   3.231  16.251  19.796  0.0225  0.1670 -0.0412
42854W        W85845  24.986  16.078  20.876 -0.0191 -0.1224  0.0575
42855W        W85846  18.099   4.814  23.102 -0.6415 -0.0621 -0.1572
42856W        W85847   9.411  10.258  29.048  0.1175  0.0332 -0.1591
42857W        W85848   0.403   1.933  23.319 -0.0571 -0.2684 -0.1644
42858W        W85849   0.140  25.032   3.622  0.0700  0.2781  0.2757
42859W        W85850  13.176  18.955  18.461  0.3163  0.1513 -0.1962
42860W        W85851  12.691  32.098  24.873  0.1031 -0.1169  0.1328
42861W        W85852   8.646  17.488   1.857  0.3260 -0.2524 -0.2824
42862W        W85853  19.742  31.032  20.405  0.2629 -0.3597  0.0348
42863W        W85854  13.603  30.483  19.485  0.1166 -0.1834 -0.0299
42864W        W85855  16.458   6.708  19.995 -0.1617  0.1913 -0.1421
42865W        W85856  30.531  11.577  25.997 -0.2155 -0.2453 -0.0023
42866W        W85857   5.923  14.094  15.987 -0.1175 -0.0832 -0.0446
42867W        W85858  14.162   7.987  21.539  0.0122  0.1148 -0.0956
42868W        W85859  12.555  30.880  16.643 -0.2169  0.5086  0.2179
42869W        W85860  28.762  27.249  20.570  0.3638  0.1851 -0.0337
42870W        W85861  13.234  26.119  20.879 -0.3265  0.3375  0.2352
42871W        W85862   6.544  16.357  15.569 -0.0952  0.0200 -0.0826
42872W        W85863  24.854  25.586  15.942  0.2116 -0.4215 -0.0784
42873W        W85864  11.997  21.083  23.853 -0.0439  0.1565  0.0066
42874W        W85865  15.309   7.503  17.687 -0.0559 -0.1075  0.1267
42875W        W85866  34.374  20.428  23.283  0.3254 -0.0803 -0.0572
42876W        W85867  10.384  26.920  25.035 -0.0801  0.0323  0.0510
42877W        W85868   6.703  32.058  22.472  0.0472 -0.0194  0.4300
42878W        W85869   0.989   6.751  23.646  0.1055  0.1654  0.3126
42879W        W85870   2.811  28.633  14.676 -0.0397  0.1769  0.2919
42880W        W85871  14.168   5.377  26.946 -0.0058 -0.2190 -0.0755
42881W        W85872  32.673  23.771  24.781 -0.0931 -0.2799 -0.0906
42882W        W85873   3.461  31.421  15.225  0.0874 -0.2058  0.2846
42883W        W85874  22.594   6.263  20.131 -0.1328 -0.2296 -0.3317
42884W        W85875   6.256  12.061   1.108  0.1187 -0.3469  0.1051
42885W        W85876   9.136  30.966   2.591  0.0721 -0.1597 -0.0436
42886W        W85877  18.313   3.609  22.756 -0.1818 -0.3774  0.2949
42887W        W85878  29.720  15.243   2.752  0.1459 -0.0329 -0.1367
42888W        W85879   5.690  23.060  16.054 -0.3684 -0.0646 -0.1872
42889W        W85880   0.175  11.058  22.612 -0.2200  0.0630  0.2984
42890W        W85881   9.043  18.922  15.890 -0.0549  0.1545 -0.1988
42891W        W85882  22.106  28.090  14.778  0.2751  0.0768 -0.3052
42892W        W85883  21.129  13.568  14.492  0.0799  0.1909 -0.0903
42893W        W85884   2.655  18.907  19.692 -0.0147  0.0744  0.0188
42894W        W85885  12.495   9.266   2.622  0.3626 -0.3436 -0.0902
42895W        W85886   2.333  21.499  20.795 -0.0992  0.1198 -0.4015
42896W        W85887   5.714   4.690  18.636 -0.1784  0.6516 -0.0452
42897W        W85888   3.068  11.088  17.580 -0.1268 -0.2908 -0.1317
42898W        W85889  13.649   5.364  24.785  0.1217 -0.3609 -0.1630
42899W        W85890   0.231  12.614  19.010 -0.2216 -0.2017  0.0447
42900W        W85891  11.290  19.263  20.826 -0.1018 -0.1065 -0.1306
42901W        W85892  16.427  22.286  17.009  0.0934  0.0229  0.4309
42902W        W85893  34.379  12.527  25.802 -0.0366  0.2531 -0.1179
42903W        W85894  10.302  32.747  23.453  0.0805  0.0675 -0.3836
42904W        W85895  28.070  18.162  14.719  0.1007 -0.0155  0.2707
42905W        W85896  21.708   3.575   2.056  0.1247 -0.1577 -0.0032
42906W        W85897  19.030  19.639  13.912 -0.7056 -0.0368 -0.0538
42907W        W85898  10.454   9.136  15.075  0.0540  0.1193 -0.1974
42908W        W85899  17.064  17.938  24.045  0.2446 -0.2475 -0.1307
42909W        W85900  30.297   5.003  17.473  0.0437  0.0274  0.0024
42910W        W85901  10.202  10.975  22.145  0.0211 -0.0757  0.2512
42911W        W85902   6.820  15.522  18.369 -0.1340  0.0688 -0.0166
42912W        W85903  30.009  30.246  27.391  0.0435 -0.0928  0.1046
42913W        W85904  11.237   4.475  24.062 -0.1073  0.0420 -0.0793
42914W        W85905  25.868   9.378  21.040 -0.1816  0.3641 -0.2848
42915W        W85906   4.562  11.253  27.863  0.1047  0.2779 -0.2287
42916W        W85907  10.950  14.536  20.187  0.0765 -0.2338  0.2212
42917W        W85908  19.351  14.701  20.114  0.0871  0.4166  0.1297
42918W        W85909   5.736  21.218  18.801  0.0469 -0.0480 -0.2830
42919W        W85910   5.627   1.851  17.387  0.2128  0.1063  0.1122
42920W        W85911  29.105   5.610  21.306  0.0497  0.1233 -0.3070
42921W        W85912   5.850  22.185  15.240 -0.0431 -0.1781 -0.0889
42922W        W85913   9.002  23.711  14.339  0.3015 -0.0654 -0.2034
42923W        W85914  11.835  16.703  20.310 -0.0066 -0.0468 -0.1006
42924W        W85915  12.641  24.721  22.772  0.0348  0.3751 -0.1214
42925W        W85916   3.866  25.124   8.332 -0.2249 -0.0934 -0.1100
42926W        W85917   7.435   9.370  24.030 -0.3623  0.0803  0.2212
42927W        W85918  10.737   8.753  16.197 -0.2092 -0.0162  0.1721
42928W        W85919   6.201  32.131  20.176  0.2115  0.1387  0.0359
42929W        W85920  34.443  32.320  15.254 -0.2873 -0.2202  0.1425
42930W        W85921  14.897  13.985  21.502  0.0695 -0.0712  0.1034
42931W        W85922  14.027   4.188  23.367  0.2263 -0.3001  0.1627
42932W        W85923   9.239  11.461   6.064 -0.0074  0.1549 -0.0003
42933W        W85924  18.569  23.785  26.654 -0.1434 -0.4402  0.0737
42934W        W85925  15.856  12.257  22.561  0.2947 -0.2121  0.1802
42935W        W85926   5.821  20.561  25.071 -0.0472 -0.1352 -0.0096
42936W        W85927  25.123  12.634   4.856 -0.2147  0.1040 -0.1545
42937W        W85928   6.252  26.185  23.588 -0.3010 -0.0213 -0.0452
42938W        W85929  25.349  27.249   6.267 -0.2387 -0.1464 -0.1939
42939W        W85930   0.832  16.999   5.710 -0.1369 -0.1702  0.0787
42940W        W85931  30.412   7.156  21.196 -0.1664  0.0145 -0.3786
42941W        W85932  19.566   7.311  23.621  0.1004  0.4176 -0.0705
42942W        W85933   4.089  18.199  16.361  0.1158 -0.0436  0.0177
42943W        W85934  33.382   3.414  15.875 -0.1892  0.2449  0.0090
42944W        W85935   5.620  15.729  16.668 -0.2295 -0.2968  0.1894
42945W        W85936   4.062  19.886  22.836  0.0080 -0.0899  0.2482
42946W        W85937  24.325   6.696   0.394  0.0583 -0.0398 -0.0542
42947W        W85938   1.173  20.690  19.914 -0.1394  0.1088  0.0724
42948W        W85939  16.616  23.125  13.712  0.1284 -0.1568  0.0686
42949W        W85940   2.939  10.544  20.827 -0.2011  0.1521 -0.0656
42950W        W85941   5.285  33.798  29.004  0.1455  0.1101 -0.1066
42951W        W85942   0.999  20.881  24.314  0.1335 -0.1492 -0.2541
42952W        W85943   1.989  20.785  21.411  0.1254 -0.1749  0.3840
42953W        W85944   6.477  17.816  18.451  0.1790 -0.0230 -0.1703
42954W        W85945  20.737   2.169  16.614  0.1949 -0.4988  0.0235
42955W        W85946   3.888   6.197   0.666 -0.1585  0.0148 -0.1191
42956W        W85947   5.297  20.392  16.488  0.0611 -0.2663  0.0175
42957W        W85948  34.772   1.125  23.042  0.0307 -0.0455  0.0784
42958W        W85949  29.628  17.178  24.919 -0.0524 -0.0800 -0.1872
42959W        W85950  31.521  20.562  24.857 -0.0773 -0.0026  0.4507
42960W        W85951  24.048  12.851  23.278  0.0675 -0.1427  0.0619
42961W        W85952   2.099  24.834  27.739  0.2408 -0.0124 -0.0226
42962W        W85953  21.798  10.052  16.606  0.1399  0.0766 -0.3365
42963W        W85954  17.818  25.568  14.084 -0.3715  0.3245 -0.1739
42964W        W85955  16.410  31.273  21.395  0.0427 -0.0728 -0.0130
42965W        W85956   7.830  13.232  15.613  0.2566  0.0873  0.1674
42966W        W85957   9.349  25.121  16.577  0.0102 -0.2703 -0.1049
42967W        W85958  14.152  21.624  16.398  0.0487 -0.0376 -0.2067
42968W        W85959   1.255  10.505  18.680  0.1129  0.0133  0.1563
42969W        W85960   1.188   2.081  19.755 -0.2386  0.0365 -0.2419
42970W        W85961  16.034   8.755  24.038  0.0896  0.0172 -0.0049
42971W        W85962  16.515  26.323  25.497  0.0142  0.0324 -0.2833
42972W        W85963  33.188  22.518  25.673  0.2162  0.0058 -0.1303
42973W        W85964  15.326  23.893  14.419 -0.1908  0.1450 -0.0123
42974W        W85965   5.519   6.414  20.485 -0.3642 -0.1940  0.0100
42975W        W85966  17.954   5.076  19.279 -0.1023  0.0895  0.1568
42976W        W85967   3.254   6.858  29.251  0.1922 -0.0748 -0.1409
42977W        W85968   7.716  17.864  21.640  0.0168  0.0560  0.0464
42978W        W85969   3.764  20.270  27.028 -0.0888  0.1255  0.1716
42979W        W85970  20.734   2.756  24.566 -0.0065  0.4702  0.0447
42980W        W85971   5.934  28.744  22.203 -0.0152 -0.0163  0.1595
42981W        W85972   4.985   0.603  21.125  0.2965  0.1836 -0.1889
42982W        W85973  33.385  13.143  15.153 -0.1358  0.0550 -0.1600
42983W        W85974   4.365  20.358  21.677  0.3711  0.2228  0.2799
42984W        W85975   4.850  11.357  27.448 -0.1489  0.1929 -0.1886
42985W        W85976  20.061  22.058  25.906 -0.2875 -0.1730  0.2527
42986W        W85977   4.896  10.406  25.907 -0.0785 -0.2441 -0.0980
42987W        W85978  26.153  12.935   0.373  0.0411  0.2683  0.0028
42988W        W85979  15.438   0.291  24.647 -0.0050 -0.0187 -0.0308
42989W        W85980  21.372  25.073   6.228  0.1820 -0.0709 -0.1501
42990W        W85981  32.032  24.080   5.521 -0.0431 -0.3119  0.1482
42991W        W85982   1.881  12.731  19.527  0.0594 -0.2478 -0.2129
42992W        W85983   3.623  29.204  27.383  0.1349 -0.0345  0.2281
42993W        W85984  31.214  24.601  21.779  0.1919 -0.0699 -0.1219
42994W        W85985   6.910  15.873  24.289  0.1643  0.2477  0.1454
42995W        W85986  12.702   9.698  16.619 -0.0086 -0.2456 -0.2744
42996W        W85987  11.315  18.175  23.281  0.2116  0.3028 -0.1434
42997W        W85988  23.328  26.164  24.674  0.3265  0.4940 -0.1750
42998W        W85989   8.062  17.519  25.020  0.1723  0.1293 -0.1868
42999W        W85990  11.630   5.007   2.411 -0.0838 -0.1192  0.3571
43000W        W85991   5.480   2.316  17.793  0.1693  0.1120  0.0509
43001W        W85992  18.312  12.717  18.753  0.0029  0.0070  0.1180
43002W        W85993  33.759  27.255  26.172  0.2131 -0.1598  0.1464
43003W        W85994  13.974  24.800   0.046  0.3764 -0.3644  0.2233
43004W        W85995   3.466  25.763   7.194 -0.0207  0.1766 -0.2826
43005W        W85996  33.506  21.038  15.707 -0.0419  0.0336  0.0539
43006W        W85997   0.144  12.258  22.788  0.0705 -0.1050  0.0048
43007W        W85998  11.169  15.994  19.869 -0.2773 -0.2028  0.0545
43008W        W85999   5.733  20.067   6.179  0.1066  0.0564 -0.0752
43009W        W86000  13.693  18.274  15.094 -0.3387  0.2392  0.2060
43010W        W86001   6.828  27.133  16.226  0.0296 -0.1937 -0.0605
43011W        W86002  12.265  21.406  15.267  0.1159 -0.2763  0.1018
43012W        W86003   7.978  26.438  27.938 -0.0665  0.1074 -0.1495
43013W        W86004  29.373  34.625  27.623 -0.0511  0.0532 -0.0012
43014W        W86005  14.208   2.687  24.426 -0.0568  0.1661  0.2841
43015W        W86006  28.138  16.635  17.874 -0.0655 -0.1852  0.1131
43016W        W86007  11.944  17.017  23.772  0.2291  0.0466 -0.2421
43017W        W86008  33.339  34.706  21.133 -0.0425  0.3703  0.2296
43018W        W86009   1.736  25.323  15.926  0.0252 -0.1637  0.3935
43019W        W86010  16.458   5.442  21.901  0.2291  0.0470  0.0392
43020W        W86011  32.790  33.811  17.694 -0.0565 -0.0364 -0.4242
43021W        W86012   6.145   7.025   7.609 -0.0400 -0.3562 -0.1477
43022W        W86013  29.492  11.178  20.424 -0.1933 -0.1344  0.2950
43023W        W86014   7.920  22.220  15.764 -0.0018  0.0576 -0.0606
43024W        W86015   7.697   9.953  27.488  0.1429 -0.0554 -0.0675
43025W        W86016   3.423  14.136   1.624 -0.0268 -0.1422  0.0427
43026W        W86017  12.882  24.867  17.981  0.0785  0.1577 -0.2362
43027W        W86018  11.331  27.204  18.952  0.0516 -0.0856 -0.1397
43028W        W86019   7.572  20.026  16.870 -0.1662 -0.0351  0.1786
43029W        W86020  22.438  22.521   4.381 -0.1501 -0.0723  0.1025
43030W        W86021  26.743  27.348  22.257  0.1205  0.0427 -0.0357
43031W        W86022   4.837  25.106   4.086  0.3124 -0.0927 -0.1183
43032W        W86023  22.706  19.015  16.459  0.4114  0.3216  0.0664
43033W        W86024  11.825   7.765  24.118  0.1707 -0.3842  0.3641
43034W        W86025  16.302  29.460  22.164  0.2859  0.0286 -0.0929
43035W        W86026   8.505   6.785  22.240  0.2042  0.2015  0.0903
43036W        W86027   4.766  15.857  21.340 -0.2282  0.0023  0.2273
43037W        W86028  11.267  20.822  20.852 -0.0243  0.2282 -0.0914
43038W        W86029  28.531   8.112   8.066  0.0181 -0.0137  0.1267
43039W        W86030  29.977   5.315  17.683 -0.2613  0.1683  0.1618
43040W        W86031  19.163  31.493  15.095  0.1748 -0.3882 -0.0103
43041W        W86032  15.368  31.393  21.187  0.1676  0.0481  0.0659
43042W        W86033   8.553  17.081  15.578 -0.0343 -0.0579  0.0521
43043W        W86034  10.476   3.509   5.456 -0.3766  0.0557  0.2711
43044W        W86035   9.794  17.965  16.231 -0.1900 -0.0659  0.2977
43045W        W86036  33.612  17.457  23.040  0.1436  0.1780  0.0190
43046W        W86037  13.261  16.255  20.005  0.0575 -0.0809  0.0533
43047W        W86038  10.972   3.655  26.754 -0.3592 -0.3267 -0.1170
43048W        W86039   8.410   9.543   0.515  0.3548 -0.0568 -0.1188
43049W        W86040   3.504  26.061  21.492  0.0634 -0.0506  0.2975
43050W        W86041  21.477  12.297  17.204 -0.1120  0.1031  0.1552
43051W        W86042   3.796  18.990  22.974  0.4287  0.0141  0.1256
43052W        W86043   1.836  21.592  20.769 -0.0276  0.1533  0.0384
43053W        W86044  30.212  32.513  19.379 -0.0667 -0.1076  0.2445
43054W        W86045  16.832  17.184  15.154  0.4842  0.1024  0.1883
43055W        W86046  14.458   4.444  28.375 -0.2383  0.0925 -0.1320
43056W        W86047   1.446  17.235  17.580  0.1588 -0.1779 -0.1451
43057W        W86048  18.956  21.385  16.082  0.3457  0.0308  0.3033
43058W        W86049   1.157  23.657  21.009 -0.2664  0.0112  0.0691
43059W        W86050   7.108  18.457  18.471 -0.2650 -0.0293  0.3695
43060W        W86051  11.578  33.641   5.901 -0.2432  0.1440 -0.1454
43061W        W86052  24.119  12.875  22.238 -0.0892 -0.0277  0.2428
43062W        W86053   8.855  21.285  27.025  0.0445  0.0669  0.2244
43063W        W86054  18.287  34.732   7.762 -0.1316 -0.2180 -0.0129
43064W        W86055  26.334  31.624  23.971  0.3890  0.1296 -0.0698
43065W        W86056   7.544  16.804  17.236 -0.1129 -0.1616  0.1618
43066W        W86057   7.831  13.094  26.235 -0.0474 -0.0698 -0.1535
43067W        W86058  12.005  17.477  23.088 -0.2047 -0.1786  0.0699
43068W        W86059   2.174  14.077  28.334 -0.1637  0.3387  0.0815
43069W        W86060   0.385   4.945   2.968  0.0667 -0.0417  0.2499
43070W        W86061   7.288   1.335  26.348  0.0165 -0.1174 -0.2460
43071W        W86062   3.216   4.250  17.432  0.0829 -0.1469  0.2205
43072W        W86063   8.679  13.085  23.438 -0.0199  0.0900 -0.1610
43073W        W86064   3.483  28.002   2.451 -0.1363 -0.2474 -0.1714
43074W        W86065  24.871  23.660  25.255 -0.1673 -0.1060  0.0763
43075W        W86066  24.164  19.529  20.659 -0.0770 -0.1397 -0.3522
43076W        W86067   3.710  27.362  20.645 -0.1032 -0.1674 -0.1791
43077W        W86068   3.149  33.190  25.746  0.0028  0.0930  0.2570
43078W        W86069   8.987   7.411   9.500 -0.1073  0.1085 -0.0884
43079W        W86070  10.621  34.221  20.000  0.1477 -0.1572 -0.2018
43080W        W86071  32.138  23.988  16.104  0.0202 -0.0509 -0.2500
43081W        W86072  11.507  11.215   7.248 -0.0841  0.0089  0.2127
43082W        W86073   0.277   5.956  20.211 -0.1162  0.1046  0.1195
43083W        W86074  26.684  31.008  17.192  0.0394 -0.0048  0.1792
43084W        W86075   9.481  26.749  27.820 -0.0446 -0.1156  0.1890
43085W        W86076   2.478  25.298   1.158  0.0305 -0.2867  0.1605
43086W        W86077   6.476  19.460  23.336  0.3353 -0.1175 -0.1617
43087W        W86078   4.316  15.992  23.437 -0.2107  0.0892 -0.2160
43088W        W86079   5.889  19.790  25.419  0.3318 -0.2468  0.3762
43089W        W86080  12.016  13.552   0.600 -0.1997 -0.1566  0.0829
43090W        W86081  24.828   7.357  14.684  0.1385  0.4227 -0.0498
43091W        W86082  15.178  13.090  14.020  0.0506  0.0930 -0.1641
43092W        W86083   2.209  13.746  23.740  0.1469  0.1743  0.3604
43093W        W86084  16.511  12.784  14.411 -0.0967  0.1172 -0.2332
43094W        W86085   9.197   7.406  21.138 -0.2760 -0.1809 -0.0767
43095W        W86086  13.978  23.016  23.807 -0.1155  0.3984  0.0703
43096W        W86087  29.413  22.699  29.025 -0.1329  0.2549  0.1130
43097W        W86088   9.630  29.546  21.752 -0.0369  0.1104  0.0057
43098W        W86089  14.563  10.077  19.847 -0.2137  0.0220 -0.1508
43099W        W86090  31.599  30.277   2.403  0.2809  0.3101  0.1360
43100W        W86091   9.092  16.848  16.764 -0.0243  0.0050 -0.1277
43101W        W86092  14.803  22.274  21.240  0.2586  0.2102  0.0607
43102W        W86093  18.073  25.564  25.123  0.2598  0.0994 -0.3670
43103W        W86094  25.439  21.548  28.408  0.2479 -0.0882 -0.0705
43104W        W86095  11.905  13.317  19.477 -0.1792 -0.1226  0.1752
43105W        W86096   7.343  10.702  23.762 -0.0583 -0.2227  0.1713
43106W        W86097  26.624  32.194  24.458 -0.0729 -0.0646 -0.2117
43107W        W86098   2.603  13.063   0.255 -0.2264  0.1111  0.1608
43108W        W86099  24.551  25.479  16.666  0.2876  0.0821  0.0683
43109W        W86100   8.626  29.272  17.363 -0.1275  0.2708  0.0132
43110W        W86101  13.493  26.219  15.412  0.1011  0.2126  0.0137
43111W        W86102  19.807  12.273  20.192  0.1800 -0.2062  0.3570
43112W        W86103   0.323   3.212   1.361  0.0523 -0.1495  0.1079
43113W        W86104  11.718  18.115   1.650 -0.0002 -0.2768 -0.2516
43114W        W86105   9.362  20.449  21.997  0.2588  0.0736  0.1080
43115W        W86106  15.334   6.105  23.544 -0.0764  0.2917  0.0032
43116W        W86107   4.185  12.562  16.803  0.2093  0.1898 -0.0649
43117W        W86108  14.999  21.052  16.024 -0.2605  0.2052 -0.0416
43118W        W86109   9.120  14.151  17.119  0.1482 -0.0148 -0.1002
43119W        W86110  31.152  10.119  15.154 -0.3017 -0.2148  0.0092
43120W        W86111  12.839  13.145  19.415 -0.0724 -0.1968  0.1163
43121W        W86112   6.891  21.409  18.292  0.2713  0.0810  0.0447
43122W        W86113   1.997  10.517  21.552  0.2174  0.0599  0.2294
43123W        W86114  30.089  32.321   0.079 -0.2494 -0.0408 -0.0289
43124W        W86115  14.072  16.998   0.105  0.0424 -0.3775  0.1226
43125W        W86116  10.297  18.164  24.768 -0.0761  0.0616 -0.1613
43126W        W86117  24.630   7.144  21.799 -0.1129  0.0099 -0.1723
43127W        W86118  32.635  19.437  15.570  0.2467  0.2213 -0.1010
43128W        W86119   1.797  16.278   1.594 -0.1748  0.0032  0.0522
43129W        W86120  34.157  11.390   2.689  0.2931 -0.3744  0.1842
43130W        W86121   1.569  28.692  26.182  0.1083  0.3790  0.1054
43131W        W86122   3.973  16.974  19.184  0.0477 -0.0483 -0.4129
43132W        W86123   6.473  12.652   7.446  0.0121  0.1395 -0.1697
43133W        W86124   0.611  16.120  25.464 -0.1651  0.0458  0.0149
43134W        W86125   9.335  17.488  21.430 -0.1584 -0.3182  0.4547
43135W        W86126  17.065  21.437  19.637 -0.0780  0.1493  0.2186
43136W        W86127  28.198   4.161  23.055  0.0502  0.0440 -0.3955
43137W        W86128   3.650   4.381   2.397  0.1220  0.0556  0.0515
43138W        W86129  10.237  12.185  15.842  0.1334 -0.0337 -0.1497
43139W        W86130   7.065  11.128  23.747 -0.0592  0.3580  0.4055
43140W        W86131  23.873  17.886  22.324  0.2568  0.1978 -0.1197
43141W        W86132   5.108   1.408  23.265  0.1695 -0.0280  0.0541
43142W        W86133  22.531  26.065  28.234 -0.1226  0.1174  0.0258
43143W        W86134   6.838  13.048  16.303 -0.0344  0.1858 -0.1381
43144W        W86135  33.614  12.810  28.836  0.1662  0.3984 -0.2517
43145W        W86136   3.949   6.312  23.361 -0.0323 -0.0261  0.0500
43146W        W86137   6.263  10.799   4.243  0.0743  0.1238 -0.0743
43147W        W86138   3.749  26.126  17.983  0.3599  0.1790  0.2674
43148W        W86139  22.875  18.854  17.491  0.1550 -0.0931  0.1165
43149W        W86140   9.963  21.477   4.054  0.2391 -0.1964 -0.2068
43150W        W86141  29.085  16.333  28.445  0.1268 -0.2164  0.2383
43151W        W86142  13.763  10.352  10.253  0.1070 -0.3087 -0.1364
43152W        W86143  15.622   6.202  17.207  0.1224  0.1221 -0.2770
43153W        W86144   3.211   3.026  17.292 -0.0358  0.1237  0.0044
43154W        W86145  11.389  19.237   0.891 -0.0034 -0.0810 -0.2655
43155W        W86146  17.642  18.759  14.842 -0.0688 -0.0742 -0.2189
43156W        W86147   9.917  29.119  23.077  0.4200 -0.0108  0.3688
43157W        W86148   0.661  17.984  25.737  0.0310  0.0147 -0.2270
43158W        W86149  28.865  14.875  25.135 -0.0698  0.2731 -0.0646
43159W        W86150  25.000  26.737  13.252 -0.1057  0.0734  0.1320
43160W        W86151  30.063  18.152  27.074  0.0804 -0.1920 -0.0270
43161W        W86152  10.791  13.600   4.699 -0.2834  0.0432 -0.1438
43162W        W86153   3.935  20.720  22.498  0.1618  0.1177 -0.1501
43163W        W86154  24.028  27.203  28.450  0.0327  0.0445  0.1198
43164W        W86155   3.736  17.353  21.602 -0.0744 -0.1760 -0.0305
43165W        W86156  10.502  12.907  24.950 -0.0932 -0.4004  0.2268
43166W        W86157  13.223   0.229  16.581  0.1685 -0.0032 -0.1109
43167W        W86158   3.723  24.575   7.558  0.0824  0.1336 -0.0827
43168W        W86159  30.461  16.863  23.478 -0.0077 -0.4981 -0.3559
43169W        W86160  29.504  31.492  20.070  0.0716 -0.2114  0.0301
43170W        W86161  13.982   5.902  24.176  0.2290 -0.1998 -0.0831
43171W        W86162  18.069   2.817  21.699  0.1524 -0.0578  0.2491
43172W        W86163   6.718   1.550  27.383  0.0103 -0.0046 -0.2811
43173W        W86164  15.868   3.658  16.277 -0.0379 -0.0402 -0.0214
43174W        W86165  26.346  32.665  17.527  0.1979  0.1252 -0.0393
43175W        W86166   6.705  10.750  18.850  0.4084  0.3518  0.0122
43176W        W86167  15.192  23.840  27.397  0.0200  0.0870  0.1119
43177W        W86168  11.526  26.031   2.478  0.3214 -0.3845 -0.1672
43178W        W86169   2.880  25.747   1.324  0.1402 -0.2229 -0.1654
43179W        W86170  10.824  17.212  22.706  0.1154  0.0883 -0.1157
43180W        W86171  20.483  19.641  15.338  0.2870  0.2062 -0.2610
43181W        W86172   6.852   4.476  17.672 -0.1771 -0.0996  0.2660
43182W        W86173  17.167   7.417  17.743 -0.0737 -0.0742 -0.2983
43183W        W86174   6.329  30.016  14.758 -0.2109 -0.0058 -0.2244
43184W        W86175  16.505  10.243  18.812 -0.0758 -0.1118 -0.1737
43185W        W86176   2.003  21.647  15.700 -0.1723  0.4580  0.2669
43186W        W86177   9.324  30.459  15.673  0.0973 -0.0788  0.3673
43187W        W86178  14.932   4.685  19.056  0.0163 -0.5046 -0.0217
43188W        W86179  18.258  14.321  21.774  0.3105 -0.1447 -0.0053
43189W        W86180  19.758   9.969  19.241 -0.0726  0.0219  0.0662
43190W        W86181  30.926  23.890   9.779  0.0093 -0.0592  0.0710
43191W        W86182   9.279   1.449  18.237 -0.1624  0.3794  0.4658
43192W        W86183   3.339  19.020  26.144  0.0622 -0.1768  0.2823
43193W        W86184   3.926  25.499   6.936  0.2506 -0.0779  0.0224
43194W        W86185   3.426  11.156  28.850  0.0440 -0.1028  0.1595
43195W        W86186  28.972  17.525  16.467 -0.4753  0.2888 -0.3716
43196W        W86187  14.246  10.959   5.970  0.0580 -0.0429 -0.2715
43197W        W86188   8.718  28.754  29.014  0.2434 -0.1094  0.0004
43198W        W86189  30.574  20.962  20.163  0.3717  0.2889 -0.1395
43199W        W86190  16.585   6.197  27.035 -0.0063  0.1367  0.0826
43200W        W86191   9.841  17.475  19.824  0.3832 -0.0222 -0.0502
43201W        W86192  33.279  24.201   0.113  0.1409 -0.0397  0.3683
43202W        W86193  13.668   5.794  21.458  0.1522  0.2787 -0.0877
43203W        W86194  28.867  23.145   4.458 -0.0839 -0.0493  0.0741
43204W        W86195   3.146   9.528   7.874 -0.2890  0.1155 -0.0209
43205W        W86196   7.437  14.677  22.877 -0.0855 -0.1793  0.0071
43206W        W86197   5.706  33.027  15.794 -0.0252  0.1413  0.0832
43207W        W86198   4.674  22.493  17.866 -0.0442 -0.0720  0.3227
43208W        W86199  19.100   9.870  27.172  0.3138 -0.2873  0.2455
43209W        W86200  32.988   2.871  28.288  0.0060 -0.0248  0.0119
43210W        W86201  28.572   7.996   1.731 -0.0626 -0.1833 -0.6282
43211W        W86202  22.967  22.635  14.607 -0.0954  0.0107  0.0952
43212W        W86203  24.568  31.284  14.309 -0.0260 -0.2180  0.0405
43213W        W86204   3.511  17.921  20.874  0.1162 -0.0988 -0.2736
43214W        W86205   3.250  18.851  17.255 -0.0427 -0.0241  0.1012
43215W        W86206  10.071  23.993   5.361 -0.4663 -0.1305 -0.1932
43216W        W86207  11.087   8.661  26.724 -0.1146  0.4147  0.0834
43217W        W86208  13.624  28.470   3.633  0.1815 -0.2772 -0.1208
43218W        W86209   0.023  27.050  26.040  0.2691  0.4940  0.0728
43219W        W86210  15.619  20.408  21.428 -0.0337 -0.0443 -0.2527
43220W        W86211  10.282   8.845   0.364 -0.3279 -0.1037  0.0163
43221W        W86212   3.938  30.947   7.860  0.0174  0.1857 -0.0510
43222W        W86213   7.655  29.946  16.048 -0.3869  0.0896 -0.0802
43223W        W86214  30.263   2.997  28.125  0.1171 -0.0610 -0.2925
43224W        W86215  27.268   5.069  20.729 -0.2848  0.2825  0.1283
43225W        W86216   2.618  25.122  14.866 -0.0712  0.1222 -0.0592
43226W        W86217  17.854   8.239  18.726 -0.0804  0.0707  0.0323
43227W        W86218   3.273  28.840  28.265  0.2162  0.2438 -0.1271
43228W        W86219  11.370  24.862  15.674  0.3374 -0.0841  0.0027
43229W        W86220   5.073  14.971  25.827 -0.0788  0.0420  0.1583
43230W        W86221  17.948   9.866  27.771 -0.0110  0.0783  0.0437
43231W        W86222  28.944  19.214  21.680 -0.0123  0.0199  0.0033
43232W        W86223   9.378  17.450  17.536  0.0435 -0.0814  0.1111
43233W        W86224   9.199  26.683   1.622 -0.4514 -0.0232  0.0176
43234W        W86225  30.548  15.086  18.194 -0.1729 -0.0426 -0.0311
43235W        W86226  19.521   1.645  23.394  0.0899  0.2838 -0.0156
43236W        W86227  30.784  27.462  16.622 -0.1815 -0.1077 -0.2239
43237W        W86228  34.413  22.435  19.973 -0.0662 -0.1318 -0.2182
43238W        W86229  28.546  24.477  20.572  0.0704  0.1198 -0.1332
43239W        W86230  12.646  28.300  20.146 -0.1134 -0.0772  0.0621
43240W        W86231  20.429  10.197  16.941 -0.1218  0.2001 -0.2236
43241W        W86232  19.583   8.841   2.776 -0.0317  0.1337 -0.0342
43242W        W86233  19.686   2.577  22.131 -0.0200 -0.3247  0.2264
43243W        W86234  29.574  17.058  28.366 -0.1025 -0.0768 -0.0487
43244W        W86235   9.829  14.560  18.975 -0.2089 -0.1299  0.4495
43245W        W86236   4.820  34.269  22.100  0.1247 -0.1529 -0.0197
43246W        W86237  12.743  10.423  22.470 -0.3246 -0.0888 -0.2088
43247W        W86238  11.863  13.487  20.803  0.2688  0.2916  0.2480
43248W        W86239  27.952  11.825  15.397  0.2841  0.1024  0.1515
43249W        W86240  14.743   0.667  15.485  0.2257 -0.1996 -0.1046
43250W        W86241  34.293  25.820  16.707 -0.4601 -0.0984 -0.1239
43251W        W86242  32.983  24.838  22.250 -0.0852 -0.4111  0.0289
43252W        W86243  10.166   8.720  24.805  0.0144  0.0012  0.0961
43253W        W86244   9.425  16.678  28.830 -0.1268  0.1137  0.3082
43254W        W86245   0.401  30.303  14.104  0.0790  0.0607 -0.0828
43255W        W86246  10.744  22.705  22.147  0.4031  0.1691 -0.2338
43256W        W86247  20.785  11.599  28.403  0.1076 -0.1689 -0.1656
43257W        W86248   8.945   8.839   1.930  0.0863  0.0224 -0.0745
43258W        W86249  11.718  30.309  26.266  0.1811  0.0959 -0.4161
43259W        W86250   6.484  11.328  24.867  0.1569 -0.0659  0.2019
43260W        W86251  21.713  28.175   8.400  0.0187  0.0388 -0.1843
43261W        W86252   3.829  12.392  17.207 -0.2151  0.1145  0.1106
43262W        W86253  25.591  17.357   6.924  0.2136  0.0713  0.3839
43263W        W86254  10.914  22.243  15.732 -0.0785  0.1707  0.2954
43264W        W86255  17.095  18.962   7.425 -0.1859  0.1766 -0.0528
43265W        W86256  24.628   9.037  16.547 -0.0165  0.0473 -0.2345
43266W        W86257   4.744  23.757   2.433  0.0697  0.1406  0.2754
43267W        W86258   2.568   9.135   3.167  0.0838  0.0541 -0.1096
43268W        W86259  27.142   8.393  23.942  0.1731 -0.1470 -0.1809
43269W        W86260   4.011  16.600  25.699 -0.1676 -0.1055 -0.1728
43270W        W86261  15.625   2.105  21.601 -0.0717 -0.0306  0.2184
43271W        W86262  10.680   2.316  20.682  0.0046 -0.0540 -0.1464
43272W        W86263   3.497   0.961  21.168 -0.0078  0.1741 -0.0955
43273W        W86264  32.169   6.534   7.430 -0.0287 -0.0381 -0.2480
43274W        W86265   4.365  14.867   0.627 -0.2278  0.2679  0.0796
43275W        W86266   6.898  27.201  21.726 -0.0295 -0.0729  0.3146
43276W        W86267   0.675  23.986  24.699  0.0199 -0.0299 -0.2153
43277W        W86268   6.120   2.977  26.581  0.0212  0.3502 -0.2437
43278W        W86269  30.981  12.043  19.461  0.1663  0.1606  0.0703
43279W        W86270  10.550  25.618   1.182 -0.0599  0.2785 -0.1358
43280W        W86271   8.127   7.740   5.635  0.1745 -0.1084  0.0996
43281W        W86272   1.466  11.561   3.417 -0.0132 -0.1380 -0.0183
43282W        W86273  12.540  23.667  15.774 -0.0592 -0.2265 -0.1522
43283W        W86274  14.673  10.774  25.186 -0.2203 -0.2475 -0.0730
43284W        W86275   8.618  19.256  26.408  0.1312  0.1289  0.0288
43285W        W86276  27.782  32.572  28.478  0.1167 -0.1210  0.0062
43286W        W86277  26.727   9.817  16.289 -0.0132 -0.0880  0.2229
43287W        W86278  33.923  30.460  18.695 -0.0528  0.0020 -0.1316
43288W        W86279   2.488  18.768  14.865 -0.0186  0.0175 -0.4276
43289W        W86280   5.852   7.606  25.139 -0.2669 -0.0047 -0.1607
43290W        W86281  27.286  17.638  24.233  0.0303 -0.0057 -0.1650
43291W        W86282  16.606   6.279  19.207 -0.2186 -0.0965 -0.0171
43292W        W86283   3.684   0.679   6.845  0.2269  0.0205  0.0209
43293W        W86284  14.996   6.902  27.325 -0.0425 -0.1195 -0.0708
43294W        W86285   5.471  19.745  21.279  0.0157  0.0475 -0.0300
43295W        W86286  22.670  16.773  25.419  0.1966  0.1385  0.1397
43296W        W86287  11.029  19.690   6.979  0.0505  0.2147 -0.0568
43297W        W86288  27.371  28.555   4.771 -0.1272 -0.0508  0.1096
43298W        W86289   9.486  20.355   0.352  0.0596  0.3921 -0.0756
43299W        W86290   6.084  13.553   6.470  0.1615  0.0996 -0.1777
43300W        W86291  29.711  12.659   2.615 -0.2381 -0.2393  0.2926
43301W        W86292   7.992   7.831   5.094 -0.0940 -0.1976  0.2845
43302W        W86293   5.290   8.653  26.699  0.3191 -0.0666  0.0017
43303W        W86294  24.140  12.403  22.951  0.1424 -0.2104  0.1203
43304W        W86295   9.596  16.460   6.671 -0.0862  0.1676 -0.0796
43305W        W86296   1.617  30.072  22.074 -0.0980  0.1026 -0.0021
43306W        W86297  18.516  12.411   2.626  0.0058  0.3601  0.1605
43307W        W86298   7.965  10.220  18.653  0.1720 -0.4532 -0.2916
43308W        W86299   4.792  23.128  27.961  0.0943 -0.2226  0.2894
43309W        W86300  24.037  19.146   6.729  0.1834 -0.0190 -0.3660
43310W        W86301  20.818  26.456  15.275  0.1788  0.2387  0.1802
43311W        W86302  30.528  14.217   2.475 -0.0840  0.1635 -0.0432
43312W        W86303   3.557   7.455   1.863 -0.2235  0.1289  0.0860
43313W        W86304  13.180   0.867   0.824 -0.0656 -0.3861 -0.1649
43314W        W86305  20.664  13.994  16.211 -0.0867 -0.0226 -0.1987
43315W        W86306  13.183  16.724  15.785  0.0559  0.0690 -0.0853
43316W        W86307  33.244   3.557   5.744 -0.1146  0.2630 -0.0936
43317W        W86308  32.379  32.888  19.281 -0.4099  0.0284 -0.1731
43318W        W86309   4.212  16.358  21.317  0.1045 -0.2268 -0.3092
43319W        W86310  30.555  20.074  17.647  0.0298 -0.1794 -0.3666
43320W        W86311  28.968  17.877  10.745 -0.1703  0.2349 -0.0183
43321W        W86312   4.625  33.925  24.923  0.1143 -0.2627 -0.0514
43322W        W86313   1.496  24.592   4.898 -0.1159 -0.1799 -0.1194
43323W        W86314  31.703  32.962   5.368 -0.1478 -0.0760  0.4818
43324W        W86315  12.281   9.881  26.027 -0.2063  0.0017  0.2865
43325W        W86316  12.421  19.681  16.756  0.0926  0.1004  0.1844
43326W        W86317  33.176  22.341  17.348  0.1342 -0.2078  0.3650
43327W        W86318   0.514  16.454  23.881  0.1761  0.1156  0.0493
43328W        W86319   6.251  17.371  20.182  0.3983  0.0776 -0.0991
43329W        W86320   3.122   6.160   1.312  0.1365 -0.2959 -0.0047
43330W        W86321   4.786   6.126  22.142  0.2279  0.2854  0.3809
43331W        W86322  16.395   7.345  16.618  0.0816 -0.0414 -0.0324
43332W        W86323   0.836  21.440  27.695  0.2235 -0.1621  0.0060
43333W        W86324   6.727   8.574  29.058 -0.0022  0.2685 -0.5601
43334W        W86325   4.181  18.216  18.195 -0.0362  0.2138 -0.2776
43335W        W86326  15.526  13.971   7.606 -0.1445 -0.0293 -0.6350
43336W        W86327  28.556  13.227   3.389 -0.3740  0.0692 -0.1208
43337W        W86328  33.983  14.184   8.878 -0.2241 -0.1241  0.2031
43338W        W86329  12.793  11.652   9.386  0.0955 -0.3035 -0.2206
43339W        W86330  14.925   6.124  27.840 -0.1539 -0.0697  0.0195
43340W        W86331   4.251  17.194  29.041 -0.1167  0.5165 -0.0128
43341W        W86332  12.866   7.398  18.097 -0.2192 -0.1627 -0.1661
43342W        W86333  29.579  27.607  16.374 -0.0365 -0.3886 -0.2117
43343W        W86334  10.420  15.471  23.343 -0.3642 -0.0445 -0.0464
43344W        W86335   1.253  17.218  16.525 -0.2886  0.1715  0.2172
43345W        W86336   2.972  28.936  15.586 -0.2059  0.3298  0.3824
43346W        W86337  26.241  28.607  16.006 -0.2562  0.0248 -0.2920
43347W        W86338  21.421   2.221  22.614 -0.2524 -0.0017  0.2294
43348W        W86339  10.010  17.659  22.059 -0.0510  0.4288 -0.1888
43349W        W86340  21.258  26.783  26.439  0.1940  0.3509 -0.0195
43350W        W86341   5.544  21.741  17.860  0.0494  0.0760  0.1275
43351W        W86342  22.117  18.586  20.233 -0.1359 -0.0092  0.2592
43352W        W86343  18.613  18.045  24.625  0.0911  0.0736  0.1451
43353W        W86344   3.080  23.213   3.330  0.0694  0.1014  0.0204
43354W        W86345  31.354  25.641   2.499  0.2410 -0.2145 -0.2136
43355W        W86346  24.615  30.484  24.021 -0.1768  0.0214 -0.1347
43356W        W86347  21.138  21.250  14.002 -0.1626  0.2239  0.3545
43357W        W86348  32.732  30.885   4.114 -0.0574 -0.4875 -0.0361
43358W        W86349   2.495  26.470  22.623  0.0649 -0.0952  0.1952
43359W        W86350  11.204  18.263  18.264 -0.1875 -0.0518 -0.1096
43360W        W86351  33.324  22.934  20.620  0.0516 -0.1954 -0.3409
43361W        W86352   7.530  16.105  18.366  0.1878  0.0687 -0.0909
43362W        W86353  20.009   1.537  16.092  0.2750  0.0106  0.0886
43363W        W86354  16.699  27.253  21.589 -0.1627 -0.2533  0.0415
43364W        W86355   9.966  12.489   9.773 -0.2686  0.1168 -0.2636
43365W        W86356  12.002  10.148  25.661 -0.0941 -0.0378  0.0001
43366W        W86357  33.593  20.870  24.609  0.3402  0.4924 -0.1402
43367W        W86358  17.975  27.611  16.625  0.1793 -0.0561 -0.0136
43368W        W86359  12.778  15.342  15.474 -0.2245 -0.0523  0.1109
43369W        W86360   1.973  23.124  20.113 -0.1634  0.3887 -0.1882
43370W        W86361   0.539  27.788   1.416 -0.0323 -0.1198 -0.0445
43371W        W86362  22.255   7.359   3.965 -0.2184  0.1996  0.0095
43372W        W86363  13.720  29.582  28.379 -0.2993  0.4568 -0.1623
43373W        W86364  11.461  18.759   6.019  0.5901  0.0960  0.2998
43374W        W86365   7.044  30.610  25.624  0.1897 -0.1132  0.0770
43375W        W86366  20.455  27.965  17.951  0.0847  0.3291 -0.0596
43376W        W86367  13.493  32.944  18.385  0.0718  0.3375  0.4676
43377W        W86368  17.510   6.536   9.037  0.1088 -0.1529 -0.1523
43378W        W86369   6.051   7.650  21.711 -0.1951 -0.1567 -0.2410
43379W        W86370   5.105   8.921   3.608  0.2163 -0.0900  0.1755
43380W        W86371   7.028   2.668  25.429  0.0337  0.0431  0.3782
43381W        W86372   5.285  17.511  24.196 -0.0652  0.0350  0.1896
43382W        W86373  29.139  14.147  27.052  0.1376  0.2108  0.0257
43383W        W86374   1.667   5.287   1.976 -0.0867  0.0369 -0.3561
43384W        W86375   5.403  31.868  19.384 -0.1385 -0.0461 -0.0361
43385W        W86376   9.970   8.535  18.755 -0.2396 -0.0969  0.3373
43386W        W86377  21.730   7.763   8.632  0.0121 -0.0868 -0.1460
43387W        W86378  13.543   5.601  24.367  0.1218  0.1040 -0.0155
43388W        W86379   9.523  33.696  19.180  0.0048  0.3977 -0.0030
43389W        W86380   1.831  24.204   1.827 -0.0847  0.2476  0.0200
43390W        W86381   8.182  22.544  27.271  0.0521  0.0982  0.0379
43391W        W86382  25.991  30.942  27.772 -0.3227 -0.0468 -0.2243
43392W        W86383  26.504  13.235   0.941 -0.1189  0.0935 -0.0935
43393W        W86384  22.065  33.270  25.377 -0.1272  0.0481 -0.2700
43394W        W86385  12.673  23.979  22.632 -0.0278  0.2388 -0.1925
43395W        W86386  26.730   1.513   4.200  0.1281  0.0079 -0.1414
43396W        W86387  34.462  14.634   0.520  0.1876 -0.3921  0.2038
43397W        W86388   5.617  18.106  18.038  0.0940 -0.0873  0.3583
43398W        W86389  26.909  21.635  24.364 -0.1572  0.1108  0.1053
43399W        W86390  17.132  26.157  16.615  0.2097 -0.1140 -0.0494
43400W        W86391   1.841  21.028  23.349  0.0706  0.2132 -0.2488
43401W        W86392  10.080  30.411  25.801 -0.3680  0.0192  0.6080
43402W        W86393  15.005  23.952  13.528  0.0283  0.2096 -0.2097
43403W        W86394  13.318  19.668   1.969 -0.1555 -0.0973  0.0654
43404W        W86395   9.570  14.389  17.350 -0.1195  0.2490  0.3599
43405W        W86396  21.731  28.903  19.485 -0.2128 -0.0271  0.4199
43406W        W86397  30.708  11.944  26.618 -0.1828 -0.1056  0.2344
43407W        W86398  13.780  27.930   0.517 -0.1778 -0.1413 -0.5787
43408W        W86399  13.302   2.073  16.459 -0.0657 -0.0324  0.2293
43409W        W86400   0.808  16.561  19.866  0.3075  0.0313 -0.2668
43410W        W86401  11.765  17.243  13.570  0.1744 -0.1603  0.1837
43411W        W86402  14.794   3.457  23.897 -0.3056  0.3353  0.1021
43412W        W86403  30.415  24.526   3.866 -0.3349  0.1933  0.1888
43413W        W86404  18.458  16.192  25.197  0.0595 -0.0439 -0.2468
43414W        W86405   8.256  18.193  21.429  0.2249 -0.3431  0.0825
43415W        W86406  14.303  10.465   7.952 -0.3255 -0.0709  0.0662
43416W        W86407   0.327  16.951  16.067 -0.0030  0.2851  0.2953
43417W        W86408  12.580  11.562   5.606 -0.0057 -0.0204 -0.1546
43418W        W86409  20.531  20.458  28.493 -0.1469 -0.2437  0.1112
43419W        W86410  34.080   8.610  24.841 -0.1753 -0.0598  0.0349
43420W        W86411  30.451  26.120  22.747  0.1401 -0.0871 -0.2089
43421W        W86412   9.507  20.157  16.995 -0.0822  0.3505 -0.0691
43422W        W86413  12.828  12.647  26.075  0.1602 -0.0069 -0.1466
43423W        W86414  19.632  16.054  29.136 -0.1823 -0.0329 -0.0518
43424W        W86415  22.455   2.436  15.278 -0.1729 -0.2410  0.1914
43425W        W86416   6.596  19.353  18.126 -0.1574  0.0147  0.3091
43426W        W86417   7.180  27.890  21.480  0.0898  0.0378  0.1716
43427W        W86418   7.218  23.663   3.508  0.0310  0.0442  0.3510
43428W        W86419  32.966  17.142  20.617 -0.1725  0.1354 -0.2501
43429W        W86420  30.638  28.131  15.350 -0.1657  0.2406 -0.2486
43430W        W86421  17.647  12.272   4.754 -0.0453 -0.2254 -0.0650
43431W        W86422   0.002  12.612  24.631  0.1056 -0.3389 -0.2942
43432W        W86423  15.842  11.535  26.416 -0.2506 -0.1569  0.1972
43433W        W86424  11.502  22.984  14.508 -0.2682 -0.0362  0.3460
43434W        W86425   5.577  14.688  19.742 -0.5171 -0.2854 -0.1071
43435W        W86426   0.977  23.871  16.707  0.1444  0.0701  0.1790
43436W        W86427   7.112  24.387  22.681  0.0888 -0.1325 -0.4280
43437W        W86428   1.814  31.024  26.005  0.1024 -0.0258 -0.1319
43438W        W86429  12.081   3.250   1.837  0.2517  0.0612  0.1175
43439W        W86430   6.745  18.566  17.908  0.0118  0.0756  0.0977
43440W        W86431   6.965  16.572  20.935  0.2647 -0.1703  0.0694
43441W        W86432  33.882  12.872  20.266 -0.4406  0.1402  0.2644
43442W        W86433   8.939  10.621  24.831  0.2471 -0.3170  0.5292
43443W        W86434  17.524   7.341  15.482 -0.0290  0.1829  0.2527
43444W        W86435   6.800  15.360  29.088 -0.1810  0.0556  0.1312
43445W        W86436  20.182  24.460  18.387 -0.3549 -0.0604  0.0835
43446W        W86437  18.099  15.935  23.687 -0.0205  0.1814  0.2164
43447W        W86438  30.780  27.079   2.374  0.3935 -0.0733  0.2820
43448W        W86439  14.225  24.639  23.682  0.2139  0.0211  0.0339
43449W        W86440  16.119   8.515  20.594  0.0974  0.1473 -0.2337
43450W        W86441   0.452   7.721  15.677 -0.0762 -0.0663  0.3849
43451W        W86442   4.790  26.554  17.244  0.0089  0.3043 -0.3320
43452W        W86443   9.012  30.939  15.446  0.1375  0.1956  0.1467
43453W        W86444   3.856  11.885  28.113  0.3638 -0.0524 -0.0680
43454W        W86445  10.696  17.773  27.254 -0.1209 -0.0360  0.5092
43455W        W86446   8.618   3.818  20.987 -0.1250  0.2586 -0.1466
43456W        W86447  21.077  34.466  19.681  0.1070  0.0374  0.2152
43457W        W86448  10.459  21.267   7.482 -0.1629 -0.1638  0.2110
43458W        W86449   8.559  18.006   3.084 -0.3058 -0.2535 -0.1343
43459W        W86450  24.965  10.903  18.846 -0.3330  0.1122 -0.4575
43460W        W86451  12.995  27.370  18.720 -0.0625  0.1244  0.3535
43461W        W86452  12.917  15.358   7.390 -0.0214  0.5043  0.0488
43462W        W86453   6.481  17.862  17.543  0.1252 -0.4650  0.1615
43463W        W86454   9.752  15.250  25.123  0.4848  0.2960  0.2084
43464W        W86455  19.856  23.347   4.753 -0.1985  0.2299  0.1504
43465W        W86456  28.134  21.790  24.430 -0.0858 -0.0269 -0.1760
43466W        W86457  31.236  10.452  19.121  0.1895  0.2239 -0.2158
43467W        W86458   3.402   1.451  24.025 -0.1630  0.2170 -0.2792
43468W        W86459  30.590  14.237  23.195  0.2476 -0.4189 -0.1208
43469W        W86460  33.241  17.461  27.020  0.2052 -0.1441  0.0601
43470W        W86461   1.779  18.292   0.362 -0.1440 -0.3009 -0.1984
43471W        W86462   2.171   2.191  10.141  0.1391 -0.3331  0.1410
43472W        W86463  15.945  25.455   4.883 -0.0526 -0.1903  0.2256
43473W        W86464   5.028  13.515   6.923  0.1417 -0.0651  0.0732
43474W        W86465  19.623  11.416   2.660  0.3290  0.2882 -0.3230
43475W        W86466  31.157   0.091  18.162  0.1775 -0.2342  0.0674
43476W        W86467  25.839  17.915  16.961  0.0159  0.0515 -0.0550
43477W        W86468  10.536  27.607   2.334  0.2536 -0.0188 -0.2107
43478W        W86469  20.141  16.109  27.541  0.1711  0.0720 -0.0358
43479W        W86470   6.544  16.286  29.116  0.2108 -0.0899  0.0385
43480W        W86471   6.961  24.407  16.058  0.1003 -0.1935  0.1240
43481W        W86472  28.650  10.156  18.269  0.3751  0.2346 -0.1333
43482W        W86473   1.903  16.992  19.357 -0.0061 -0.0798 -0.0604
43483W        W86474   1.434   1.876  20.226 -0.2502 -0.2389 -0.1750
43484W        W86475   4.980  21.646   4.799  0.5017  0.0696  0.0928
43485W        W86476   2.371  30.529  23.572 -0.0995  0.0176 -0.0485
43486W        W86477  13.404  25.020  18.338 -0.0474 -0.0642  0.0067
43487W        W86478   6.412   0.120  21.172  0.1823  0.0070 -0.0563
43488W        W86479   6.484  27.632  26.614 -0.0158  0.1183  0.0316
43489W        W86480  10.330  20.817  14.581  0.2201 -0.0339  0.0062
43490W        W86481  29.457  10.328  28.162  0.1992  0.0695 -0.1901
43491W        W86482  14.464  12.894  19.815  0.1140  0.0014 -0.0724
43492W        W86483   0.294   7.320   1.248  0.1406 -0.1327 -0.3139
43493W        W86484  14.490  17.474  13.504  0.1539 -0.0400 -0.0239
43494W        W86485  17.584  25.597  25.297  0.3256 -0.1485 -0.2432
43495W        W86486  23.827  22.174  13.998 -0.3928 -0.0727 -0.0665
43496W        W86487   1.222   7.928   5.803  0.0516  0.1002 -0.1380
43497W        W86488   5.070  10.642  21.569  0.0934  0.0572 -0.2166
43498W        W86489  17.009  25.556  19.928  0.0898 -0.3257 -0.0009
43499W        W86490  28.543  17.586  23.484 -0.2592 -0.2185 -0.0144
43500W        W86491   1.386  28.383  28.838  0.2665  0.0837 -0.1030
43501W        W86492   3.655  13.414  23.338  0.1745 -0.2274 -0.0477
43502W        W86493  12.999  23.502  22.608 -0.2013  0.0627  0.0355
43503W        W86494  34.036  22.107  28.764  0.2403 -0.1740  0.1628
43504W        W86495  14.930   9.066  28.945 -0.1341 -0.1298 -0.2601
43505W        W86496  18.231  29.724  13.588 -0.1522  0.0934  0.1731
43506W        W86497   9.041  13.854  22.847  0.1282  0.1236 -0.1222
43507W        W86498   2.301  20.425  24.796  0.3761  0.0993  0.3774
43508W        W86499   2.529  14.901  23.777  0.4131 -0.0809  0.3496
43509W        W86500  33.804  21.736  19.500  0.0032  0.1215 -0.0662
43510W        W86501  32.665  15.797  16.264 -0.1845 -0.1841  0.0020
43511W        W86502  33.923  16.891   4.289  0.0551 -0.0147 -0.3399
43512W        W86503  17.657  26.377  14.020  0.0410 -0.0781  0.0237
43513W        W86504  33.067  12.535  18.287 -0.1285  0.0872  0.3814
43514W        W86505  28.630  20.363  28.698  0.2857  0.0041 -0.0363
43515W        W86506   6.072  24.835  27.038 -0.1446 -0.0706 -0.4142
43516W        W86507  23.317  12.556  25.523 -0.2249  0.3387 -0.1267
43517W        W86508  12.351   5.978   6.435  0.1057  0.0161 -0.0655
43518W        W86509   8.825  11.784   3.875 -0.1578  0.3166  0.0702
43519W        W86510   5.120  18.222  25.265  0.3541  0.1516 -0.0919
43520W        W86511   3.345   3.445  22.925 -0.1259 -0.0827  0.0472
43521W        W86512   9.642  28.872   8.057  0.2341 -0.2068  0.0031
43522W        W86513  11.364  17.467   1.024 -0.3006  0.0174  0.1254
43523W        W86514   9.827   2.589   2.844  0.2604 -0.0740  0.1445
43524W        W86515   0.015  11.347   5.000 -0.1249  0.1468  0.3120
43525W        W86516   9.904  24.045  15.851 -0.0399 -0.1484  0.0228
43526W        W86517  23.884  19.173  26.586 -0.1044  0.0461  0.1698
43527W        W86518  17.467  14.466  25.223 -0.1052  0.0823  0.1304
43528W        W86519  17.854   5.868   5.705  0.0727 -0.0747 -0.2114
43529W        W86520   3.055  17.535  24.927  0.1401 -0.1388  0.1065
43530W        W86521  21.522  12.388  19.897  0.0877  0.0261  0.4329
43531W        W86522   6.672  14.035  21.613  0.1798 -0.0662 -0.0706
43532W        W86523  18.455  19.114   0.578 -0.1488  0.1829  0.1759
43533W        W86524  10.075  17.636   9.033  0.3238  0.2254  0.1058
43534W        W86525   4.691  17.150  22.593  0.1154 -0.3415 -0.0538
43535W        W86526  22.436  26.918   3.447 -0.4082  0.0824  0.1011
43536W        W86527  12.544  13.142  22.379 -0.3994  0.1550  0.0453
43537W        W86528   7.947  10.738  19.646  0.1092 -0.0174  0.1168
43538W        W86529  23.117   9.381  26.474 -0.1633  0.0652 -0.2079
43539W        W86530   4.292  18.408  24.180  0.2479 -0.1289  0.1161
43540W        W86531  15.529  13.050   3.230  0.3927 -0.2152 -0.1630
43541W        W86532   1.187  15.188  18.953 -0.2605 -0.0135 -0.2912
43542W        W86533   9.940  22.513  23.887 -0.1363  0.1072  0.0338
43543W        W86534  12.451  26.793  14.354 -0.1480 -0.1599  0.2175
43544W        W86535   4.460  16.773  22.876 -0.0935  0.2580 -0.1444
43545W        W86536  13.362   6.926  23.284  0.0605 -0.0795  0.0316
43546W        W86537   5.461  14.828  20.674 -0.1301 -0.0135 -0.0143
43547W        W86538  13.407  28.202   8.620  0.1787  0.1227 -0.1354
43548W        W86539   1.860  27.545  28.001 -0.1188 -0.1711  0.0680
43549W        W86540   6.058  11.291   0.042  0.0391  0.1769  0.1748
43550W        W86541  16.173   1.211  27.961 -0.1255 -0.0901 -0.1720
43551W        W86542  10.814   8.545   8.368  0.3851 -0.0737 -0.1650
43552W        W86543   1.293   6.861   8.677  0.1133 -0.2334  0.0722
43553W        W86544   6.407  16.301   7.786 -0.0093  0.3093 -0.0366
43554W        W86545  18.792  23.082  24.831  0.1437 -0.4705 -0.0549
43555W        W86546  12.721  21.295  15.180  0.2250  0.2476  0.2026
43556W        W86547  14.814  13.019   0.618  0.1487 -0.2771  0.1820
43557W        W86548  29.258  29.074  20.901  0.3501 -0.0501  0.0961
43558W        W86549   8.487  11.625   0.573 -0.2969 -0.2347  0.4106
43559W        W86550   7.766   7.075  19.326  0.4387 -0.0576 -0.0231
43560W        W86551  11.275  24.838  15.210 -0.1096  0.3483  0.1683
43561W        W86552  10.840  19.496  25.108  0.1477 -0.0719 -0.0931
43562W        W86553  12.702  21.699   7.929  0.0190 -0.1730  0.0969
43563W        W86554  27.136  11.043   9.400 -0.0370 -0.0402 -0.1219
43564W        W86555  23.547  33.353  28.499  0.0955 -0.1709 -0.0212
43565W        W86556  16.931  20.793  26.107 -0.3848 -0.0471  0.0000
43566W        W86557   2.816  18.361   2.025 -0.1996  0.1858 -0.2364
43567W        W86558  18.199  25.147  14.169  0.0421 -0.0305 -0.0196
43568W        W86559   8.931  20.551  24.208 -0.1760  0.3143 -0.3623
43569W        W86560   2.506   9.982   0.313  0.0323 -0.2573  0.0922
43570W        W86561  12.449  26.587   2.048  0.1825 -0.0085  0.1285
43571W        W86562  31.812   8.937  15.832 -0.1655  0.0653 -0.1059
43572W        W86563   8.267  14.780  10.248  0.1100 -0.1797 -0.4155
43573W        W86564  24.098  19.140   4.674  0.5801  0.1595 -0.0487
43574W        W86565   7.846  15.246  26.986  0.1911 -0.0574 -0.0226
43575W        W86566   2.462  16.186  25.293  0.0194  0.0543  0.0828
43576W        W86567   5.161  17.665  14.740 -0.1234  0.0231 -0.4600
43577W        W86568   6.952  34.662  10.757  0.1503  0.2011  0.0406
43578W        W86569   8.585  13.360  20.768  0.2620  0.1246 -0.0859
43579W        W86570  20.968   7.240  22.474  0.3801  0.1246 -0.1490
43580W        W86571   7.610   6.513  20.596 -0.1086 -0.3359  0.1454
43581W        W86572  10.603  16.541  15.449 -0.0709 -0.0642 -0.0134
43582W        W86573  13.607  12.117  26.438 -0.1768  0.3969 -0.0235
43583W        W86574   7.425  31.955   7.541  0.1388 -0.2067 -0.1580
43584W        W86575  22.652  16.980  20.799  0.1887 -0.3692  0.0289
43585W        W86576  24.864   1.482  15.796 -0.1974 -0.0962  0.3442
43586W        W86577   1.606  18.065  19.989  0.1078 -0.0379  0.0737
43587W        W86578   9.165   5.266  10.155 -0.3374  0.3600  0.2465
43588W        W86579  22.169  23.288   2.819  0.2542  0.0855  0.1346
43589W        W86580  16.606  14.267   2.466  0.1329  0.0441 -0.1739
43590W        W86581   4.887   3.827   4.421 -0.2287  0.0553 -0.1207
43591W        W86582  16.609  12.911   0.402 -0.0038  0.1399 -0.2215
43592W        W86583   2.658  15.007  24.630 -0.0287 -0.0241  0.0616
43593W        W86584   4.624  24.038   7.097 -0.0531  0.2395  0.1046
43594W        W86585  13.989  14.391  22.702 -0.2916  0.0520  0.0892
43595W        W86586   7.513  24.834  25.230  0.2912 -0.1512 -0.2485
43596W        W86587   8.497  23.156   5.459 -0.1653 -0.2815 -0.0051
43597W        W86588  30.404  13.805  22.279  0.0117 -0.0565 -0.1727
43598W        W86589  16.214  10.214  29.165  0.1755  0.2313  0.2043
43599W        W86590  12.124   5.588  23.562 -0.2221  0.1219 -0.0296
43600W        W86591  26.257   9.548  21.970 -0.3228 -0.1764  0.0660
43601W        W86592   9.746  20.498  19.178  0.1860  0.0028 -0.0298
43602W        W86593  21.823  15.513  26.005 -0.2868  0.0087  0.2713
43603W        W86594  11.790  17.159   9.273 -0.2512  0.1186  0.1255
43604W        W86595  29.499  20.517   9.137 -0.1597 -0.2589  0.1919
43605W        W86596  29.208  10.830  27.490 -0.2202  0.1003 -0.4105
43606W        W86597   8.587  15.093  18.090  0.0658  0.2004  0.1244
43607W        W86598  13.765  13.565  22.320 -0.1246  0.0862 -0.1557
43608W        W86599  16.705  30.290   5.281  0.3521 -0.2166  0.1359
43609W        W86600  23.628   8.683  21.471 -0.1284 -0.2243 -0.3318
43610W        W86601  14.699  24.133  15.099 -0.2598 -0.2060  0.0708
43611W        W86602   1.906   3.627   1.473  0.1009  0.0038  0.0263
43612W        W86603  20.088  16.292   8.122  0.1620  0.0657  0.0892
43613W        W86604  34.156  18.121  17.060  0.0139  0.1157 -0.2435
43614W        W86605  18.107   0.044  17.581  0.0472  0.1589 -0.3638
43615W        W86606   4.428  11.861  10.263  0.0275  0.0268  0.1647
43616W        W86607  26.368   2.166  19.079  0.1168  0.0518 -0.0113
43617W        W86608  10.519   0.487   6.345 -0.0950 -0.1775  0.0083
43618W        W86609  32.989  22.943  29.021  0.3450  0.1907 -0.2706
43619W        W86610   5.342  29.494  13.638 -0.3036  0.2840  0.2952
43620W        W86611   5.138   1.871   7.361 -0.0467  0.1505 -0.1634
43621W        W86612  11.143  10.172   0.087 -0.2652 -0.1532  0.0828
43622W        W86613  17.034  31.185  16.573 -0.2872  0.0939  0.0312
43623W        W86614   2.094  14.795  26.189 -0.0222  0.2596 -0.1446
43624W        W86615   9.957  19.537  10.311  0.1622  0.1113  0.3830
43625W        W86616  34.239  25.004   1.858 -0.0011 -0.2305 -0.0474
43626W        W86617  10.027  11.985   2.189  0.0130  0.3076  0.1595
43627W        W86618  34.536  14.475   6.338 -0.0400 -0.1965  0.1594
43628W        W86619  25.518   5.908  28.954  0.0475 -0.4812  0.1946
43629W        W86620  11.430   4.487   9.219 -0.1550 -0.1887  0.0619
43630W        W86621  12.458  19.976  27.358  0.0696 -0.2719  0.1100
43631W        W86622  18.599  25.491  27.908 -0.5037 -0.2966 -0.4119
43632W        W86623   2.194  17.415  22.353  0.3558 -0.0462 -0.1759
43633W        W86624  12.005  14.929  19.577  0.1298  0.3251  0.1408
43634W        W86625  34.625  11.960   6.916 -0.2170 -0.2386 -0.2872
43635W        W86626   8.276  21.341   6.206 -0.1000  0.2244 -0.0274
43636W        W86627  20.308  18.558  14.742  0.2342 -0.0159 -0.0623
43637W        W86628  33.629  13.392   7.328 -0.1560 -0.0817 -0.1325
43638W        W86629   7.969   8.062   0.671 -0.2332 -0.0651  0.3007
43639W        W86630   5.930  19.361  17.070  0.2492 -0.0828  0.3076
43640W        W86631  10.358  15.182   1.672  0.1745  0.1941  0.0004
43641W        W86632  12.534  33.795  28.416 -0.1376  0.2271  0.1501
43642W        W86633   4.900  10.630  19.162 -0.0236  0.1124 -0.0980
43643W        W86634  25.884  17.075  23.936  0.2383 -0.2010  0.4373
43644W        W86635  15.403  24.047  22.052 -0.2918 -0.0379 -0.1003
43645W        W86636   9.224   8.668  16.877  0.1981  0.1972  0.0830
43646W        W86637   8.180  10.373  20.110 -0.5946 -0.2108  0.2865
43647W        W86638   3.099  23.426   4.137  0.1962 -0.3088 -0.1527
43648W        W86639   1.602  22.045  25.251  0.0877  0.3408  0.0969
43649W        W86640  11.889   6.563   5.618  0.2385 -0.0535 -0.0578
43650W        W86641  17.988  25.529  27.119 -0.0056 -0.0062  0.3765
43651W        W86642   0.769  11.077   4.443 -0.0081  0.3814  0.2149
43652W        W86643  28.846   2.782  19.445 -0.1691 -0.1332 -0.1080
43653W        W86644  12.713  31.993  29.141  0.0519 -0.1969  0.1061
43654W        W86645   9.158  13.101   8.674 -0.0433 -0.0369 -0.0161
43655W        W86646  13.418  27.073  14.574  0.0997 -0.0453  0.3121
43656W        W86647   8.056  23.287   0.981  0.1118 -0.0008  0.0811
43657W        W86648   3.004  31.559  29.250  0.3710  0.2060  0.2376
43658W        W86649  14.447  14.749  21.704  0.3894  0.0568  0.1751
43659W        W86650  20.692  25.797  13.002  0.0625  0.2839 -0.1623
43660W        W86651  19.638   4.885  20.109 -0.0544 -0.0634  0.0524
43661W        W86652   2.562  21.927  24.954 -0.0030 -0.1264 -0.1721
43662W        W86653  14.589  18.533  15.257  0.2280  0.1607  0.2439
43663W        W86654  34.632  21.003   1.703  0.3048  0.1262 -0.0043
43664W        W86655  31.606   9.550  19.476  0.1444 -0.1173  0.1029
43665W        W86656   9.475   3.415  23.316  0.3295  0.0980 -0.2622
43666W        W86657  26.691  19.618  25.050 -0.0058  0.0836 -0.0947
43667W        W86658  30.649  13.236  20.084 -0.0508 -0.0005 -0.0673
43668W        W86659  27.340   8.130  28.048  0.1530 -0.0732 -0.0226
43669W        W86660  11.616  17.550  20.590  0.2114  0.1442 -0.1496
43670W        W86661  10.288  16.615  17.021 -0.2535 -0.2358  0.0275
43671W        W86662   4.130   8.943   1.198 -0.1723  0.1413 -0.0117
43672W        W86663  27.754   0.012  26.086 -0.0294 -0.2446 -0.1029
43673W        W86664  13.171  10.737   0.197  0.1888  0.0124  0.3212
43674W        W86665   8.392  20.517  27.477 -0.2143  0.1935 -0.1137
43675W        W86666   3.358  22.133   6.601  0.0799  0.0637 -0.1234
43676W        W86667  10.371   9.406   2.048  0.2083 -0.2631  0.2288
43677W        W86668   7.539  28.650   0.828 -0.0091 -0.0107  0.0978
43678W        W86669   9.383   1.844  18.799 -0.1093  0.0100  0.0983
43679W        W86670  21.005  33.803  21.270  0.0517 -0.2029 -0.2685
43680W        W86671  15.442  12.250   8.109 -0.1921  0.0957 -0.1161
43681W        W86672   5.889  33.314  28.122 -0.1772  0.0800  0.0458
43682W        W86673  14.677  14.745  17.678 -0.0408  0.0719  0.4310
43683W        W86674   9.726  14.139  21.706  0.1947  0.2238  0.0323
43684W        W86675   1.186  15.224   1.981  0.2402 -0.2375  0.3139
43685W        W86676   4.394  13.274  10.938  0.0257  0.0193  0.4793
43686W        W86677  15.067  32.490   4.731 -0.1371  0.1082  0.2222
43687W        W86678   5.092  28.678  21.549  0.0873  0.1371 -0.0150
43688W        W86679   8.016   9.972   9.141 -0.0963  0.2094  0.0666
43689W        W86680  10.927  21.921  28.508  0.0551  0.1569  0.2791
43690W        W86681  31.060  11.275  15.797  0.2339  0.0934 -0.0830
43691W        W86682  12.404  20.566  23.178  0.2961  0.0922 -0.1446
43692W        W86683   6.423   4.984  28.972 -0.0557 -0.3641 -0.2048
43693W        W86684  10.859   9.652  15.870  0.1073  0.1575 -0.1882
43694W        W86685  33.871  32.038   5.850 -0.4014 -0.2295 -0.0244
43695W        W86686   1.668  21.772  28.052  0.1090  0.0702  0.0956
43696W        W86687   2.170  17.028   7.257 -0.1110  0.0320  0.1263
43697W        W86688  23.356  24.961  18.803 -0.0986  0.0554  0.2667
43698W        W86689   1.664  12.489  23.030 -0.2484 -0.2179 -0.1889
43699W        W86690   5.718   2.187   2.659 -0.3827  0.0699 -0.0451
43700W        W86691  20.308   2.539   1.473  0.0265  0.0455 -0.2929
43701W        W86692  10.245  27.924   0.962  0.1516  0.2400 -0.2725
43702W        W86693   8.739   4.381  15.420 -0.1798 -0.0785  0.0531
43703W        W86694  22.674  19.000  19.210  0.0465 -0.0846  0.2589
43704W        W86695  27.461  11.338   6.345  0.0002  0.1317 -0.3670
43705W        W86696  20.157  32.357   4.737  0.1521  0.1157 -0.0088
43706W        W86697   5.685  18.264  10.363  0.3667  0.2416  0.0749
43707W        W86698   0.122   3.153   4.547  0.2785 -0.1124 -0.1708
43708W        W86699  13.507  22.091  24.596  0.0063  0.0413 -0.3042
43709W        W86700  14.104  25.497  20.092  0.0856 -0.0128 -0.1783
43710W        W86701  20.118   5.265  27.262 -0.1863 -0.1889 -0.2267
43711W        W86702   3.676  12.915   8.970 -0.0948 -0.1136  0.0969
43712W        W86703   9.657  12.560  19.778  0.1116  0.1378 -0.0755
43713W        W86704  13.698  21.046   9.193 -0.0727  0.3257  0.2915
43714W        W86705   3.540  21.799  21.311 -0.2283  0.1956  0.4043
43715W        W86706  13.574  14.581  25.669  0.3192 -0.2227  0.1484
43716W        W86707  34.501  21.761  27.973  0.2208 -0.2910 -0.3267
43717W        W86708  33.276   8.704  21.917 -0.1652  0.3233  0.1163
43718W        W86709  16.348   0.937  17.961 -0.4944  0.3489  0.2138
43719W        W86710  20.821   6.055  20.330 -0.0775  0.3380 -0.2267
43720W        W86711  15.629  13.955  28.611 -0.1737  0.4289  0.0980
43721W        W86712   7.193  24.949  19.724  0.2147 -0.2176 -0.0238
43722W        W86713  26.401  24.877   4.137 -0.2818  0.3804  0.2942
43723W        W86714  11.472   9.928   9.574 -0.0530  0.2252  0.0091
43724W        W86715   4.381   2.706  26.592  0.1473 -0.0769 -0.3489
43725W        W86716   5.225  25.641  10.148  0.1127  0.2886  0.2136
43726W        W86717   3.275  15.113  27.134 -0.4018  0.0542  0.0795
43727W        W86718   3.273  28.154  25.633 -0.1176 -0.0554  0.2510
43728W        W86719  13.589  17.838   5.244 -0.2512 -0.0681 -0.2946
43729W        W86720  18.259   4.102  22.748  0.0610  0.1047 -0.0899
43730W        W86721  19.150   1.111   1.753  0.1844  0.1598  0.1009
43731W        W86722  27.700  34.172   7.686 -0.2767 -0.1496 -0.0935
43732W        W86723  11.361  17.444   6.194 -0.0034  0.1919  0.0591
43733W        W86724  16.547   9.624  20.875 -0.2033  0.1688 -0.5233
43734W        W86725  20.093  28.038  18.316  0.0350  0.1039 -0.0745
43735W        W86726  11.240  13.250  21.104 -0.1006  0.0730 -0.1397
43736W        W86727  11.423   7.087  19.547 -0.1492 -0.1202 -0.1420
43737W        W86728   5.149  12.721  14.994  0.0468 -0.0039 -0.1794
43738W        W86729   9.638  23.176   0.132 -0.0026 -0.2285 -0.0442
43739W        W86730   9.359  16.324  24.798  0.4175  0.1670  0.1992
43740W        W86731  31.650  23.902   9.017  0.1223 -0.0816 -0.4376
43741W        W86732  33.095  28.163  17.659  0.0395 -0.5762  0.0834
43742W        W86733   6.306  11.149  17.249  0.1326 -0.1435 -0.2374
43743W        W86734  15.690  25.010   6.751 -0.0497 -0.1662 -0.0865
43744W        W86735  28.116  17.810  16.823  0.1761  0.0590  0.1608
43745W        W86736   5.867  22.958  24.376 -0.1159  0.0854 -0.1350
43746W        W86737   8.084   6.516  20.470 -0.0293 -0.0668  0.0498
43747W        W86738  21.675  22.695  21.942  0.0382 -0.0434  0.2860
43748W        W86739  15.796  13.407   3.490 -0.4985  0.0802  0.4569
43749W        W86740  23.257  17.598  28.983 -0.1074  0.0707 -0.1500
43750W        W86741  21.492  15.550   0.067 -0.2168 -0.0444  0.1857
43751W        W86742   5.567   2.848  24.065 -0.0598 -0.1748  0.1202
43752W        W86743  14.352  15.633  12.923  0.0475 -0.1958 -0.0864
43753W        W86744  11.925  11.319  15.837 -0.1390  0.2633  0.0083
43754W        W86745   2.707  25.344  18.464 -0.1105  0.1121  0.0320
43755W        W86746   6.750  18.687  19.479 -0.2313 -0.0106  0.1998
43756W        W86747   3.074  30.131  15.807  0.2020  0.1594  0.0535
43757W        W86748  16.719  17.581  12.670 -0.0810 -0.3320 -0.2377
43758W        W86749  15.630  14.928   4.589 -0.2081 -0.2133  0.2810
43759W        W86750  15.987  18.008   8.166 -0.0587  0.0353 -0.1854
43760W        W86751   3.259  16.146  24.926  0.1823 -0.1928  0.1744
43761W        W86752  25.908  17.868  22.806 -0.1142  0.3639  0.2828
43762W        W86753  27.312  18.235  21.529 -0.1048 -0.0574 -0.0202
43763W        W86754   2.713  16.761   1.361  0.0206  0.1150  0.0252
43764W        W86755   8.597  22.489  18.339 -0.0235  0.1020  0.3204
43765W        W86756  10.151  28.454  27.227  0.2631 -0.0694 -0.4688
43766W        W86757   4.221  21.918  25.936 -0.0278  0.1529 -0.1034
43767W        W86758   8.339  31.712  22.873 -0.1085  0.0966  0.2028
43768W        W86759   9.709  16.463  19.252  0.1501  0.3240  0.1384
43769W        W86760   8.004   7.139   7.600  0.0019 -0.3561  0.1705
43770W        W86761   0.465  10.552  17.966 -0.0021  0.2076 -0.3029
43771W        W86762   4.291  34.659   0.203 -0.0079  0.1665 -0.0103
43772W        W86763  26.357   9.541   3.206 -0.1748  0.4118  0.1592
43773W        W86764   7.096   9.956  16.967  0.0396 -0.1046  0.0315
43774W        W86765   2.723  11.492  19.813 -0.3092 -0.1257  0.0067
43775W        W86766  15.991  31.161  23.037  0.1980  0.0028 -0.0375
43776W        W86767  32.268  24.383   1.266 -0.2937  0.1968 -0.0284
43777W        W86768   1.366  23.880  17.015  0.0232 -0.0878  0.3146
43778W        W86769   3.082   4.915  23.188  0.3881  0.0851  0.1232
43779W        W86770   8.955   9.139  16.258 -0.2774  0.0719  0.0252
43780W        W86771  22.862   1.069  22.594 -0.1431 -0.0450 -0.1589
43781W        W86772   1.193  11.905  15.907  0.3603 -0.0393 -0.1487
43782W        W86773   4.762   2.722   5.825 -0.3532 -0.0952  0.1832
43783W        W86774  12.570  28.888   4.234  0.1990  0.1509 -0.0340
43784W        W86775  19.606  22.068   4.582  0.0943 -0.0056 -0.1293
43785W        W86776   0.310   5.904  23.409  0.1686  0.1075  0.0330
43786W        W86777   5.430  15.633  10.809 -0.1349  0.1142  0.4631
43787W        W86778  34.297  24.623   5.860  0.2832  0.2483  0.0052
43788W        W86779  12.245  20.610  16.183  0.2316  0.0238 -0.1110
43789W        W86780  21.080  15.814   0.293 -0.0616 -0.0553  0.1761
43790W        W86781   7.366  21.644   9.814 -0.1912  0.1958 -0.1777
43791W        W86782   5.875  11.607  10.114  0.2059  0.1280 -0.1359
43792W        W86783  12.279   9.711  24.277  0.0312 -0.0935 -0.1119
43793W        W86784  12.553  32.401  24.477  0.0577  0.0050 -0.0847
43794W        W86785   6.498  26.330  14.073  0.3190  0.1968 -0.1226
43795W        W86786  19.621  15.342   8.144  0.0006 -0.2825  0.2558
43796W        W86787   8.843  14.276  22.540  0.4465 -0.2198  0.2356
43797W        W86788  32.382  15.740  19.805  0.0501 -0.0085  0.1584
43798W        W86789   9.341   1.586   8.970  0.0075  0.2282 -0.1530
43799W        W86790   1.884  27.684  17.277 -0.0337 -0.2289 -0.4108
43800W        W86791   5.939  13.917   3.494  0.0174  0.0959  0.3341
43801W        W86792  11.495   4.538  26.824  0.0524  0.1889 -0.0443
43802W        W86793  20.342  13.683  28.794  0.0208  0.3069 -0.1100
43803W        W86794  15.336  27.543  22.070 -0.1010  0.2425  0.2648
43804W        W86795   6.996  19.784  21.638  0.0741  0.1998 -0.0620
43805W        W86796   9.279   7.337  17.956 -0.0352  0.0117 -0.2747
43806W        W86797  10.865  14.023  21.869  0.1270 -0.0965  0.1799
43807W        W86798   7.735  17.220   8.664 -0.0780 -0.1790 -0.0831
43808W        W86799  32.698  22.772  21.346  0.3171  0.1224  0.2015
43809W        W86800  34.548   9.310   7.205  0.3576  0.1138 -0.0696
43810W        W86801   5.229   8.163  18.103 -0.0025  0.1517  0.3742
43811W        W86802   9.924  18.933  17.172 -0.2516  0.2466  0.0492
43812W        W86803  31.677  33.655  21.908  0.0918  0.0635 -0.1751
43813W        W86804  25.986  11.777  15.641  0.0513 -0.2530  0.0230
43814W        W86805  33.161   5.455  28.069  0.2413 -0.1231  0.0821
43815W        W86806   6.960   5.621  10.485 -0.0865 -0.0591  0.3765
43816W        W86807  17.811  34.216   5.668 -0.1161  0.2717  0.0596
43817W        W86808  33.595  26.536   6.317  0.1546  0.1685  0.1701
43818W        W86809  34.138  25.368  18.545  0.0080 -0.0960 -0.0538
43819W        W86810   9.634  18.553  16.393 -0.2193 -0.0913 -0.0821
43820W        W86811   5.412  24.583  28.165  0.2142  0.1345  0.0298
43821W        W86812  20.638  15.662  26.139 -0.1572 -0.1839  0.1083
43822W        W86813   4.183  18.623   6.541  0.0708  0.2721  0.0681
43823W        W86814   5.585  20.675   3.386 -0.0879 -0.5347  0.0304
43824W        W86815  22.279  13.730  26.990 -0.0294 -0.0522 -0.1339
43825W        W86816   1.032  11.089  21.593  0.0849  0.0088  0.0848
43826W        W86817  13.478  33.669  25.648 -0.3912  0.0531 -0.1115
43827W        W86818   2.740  21.250  19.665 -0.1029 -0.3936 -0.1778
43828W        W86819  14.151  29.128   9.336  0.0985 -0.3287 -0.1571
43829W        W86820  16.195  19.943   5.159  0.0995 -0.0375 -0.1644
43830W        W86821   2.316  18.667  20.042  0.1149  0.0214  0.2320
43831W        W86822  10.732  29.533   3.892  0.0899  0.2935 -0.3121
43832W        W86823  21.739   3.580  15.933 -0.0130  0.1943 -0.2100
43833W        W86824  16.058   5.915  16.000  0.0180 -0.2272 -0.0727
43834W        W86825  13.772  21.135  18.796  0.1395  0.1494 -0.0955
43835W        W86826   0.235  19.421   6.556  0.1445  0.0670  0.0637
43836W        W86827  14.352  15.042   0.541 -0.1251  0.0942  0.0785
43837W        W86828  15.472  11.859  27.004 -0.1098 -0.0089 -0.2214
43838W        W86829   9.524  17.207  27.783 -0.2272  0.1019 -0.4066
43839W        W86830  18.051  22.590  20.604  0.0857 -0.1081 -0.0633
43840W        W86831  20.525  16.591   0.647  0.2661 -0.0759  0.1985
43841W        W86832  33.073  10.429  19.605  0.1730  0.1918  0.1101
43842W        W86833   9.585  20.763  19.916  0.0846  0.0243  0.2025
43843W        W86834  15.850  19.344  21.857  0.2704 -0.0341 -0.0221
43844W        W86835   3.982  15.714  16.454  0.2422  0.1506  0.4917
43845W        W86836   2.774   4.903  25.939 -0.1186 -0.0154  0.0727
43846W        W86837  10.995  12.527  27.357  0.2987 -0.1676  0.2224
43847W        W86838   6.462  21.855  26.508  0.3033 -0.0921  0.0245
43848W        W86839  15.843  13.170   2.671 -0.0478  0.1335 -0.0314
43849W        W86840  27.163  15.873   2.454 -0.0127 -0.0593 -0.1029
43850W        W86841  16.672  33.319  17.101 -0.0521  0.3087  0.0327
43851W        W86842  13.744  16.150   0.334 -0.2791 -0.4501  0.1182
43852W        W86843   6.748  16.983  21.799 -0.1054 -0.0738  0.0307
43853W        W86844  12.043   8.528  15.521  0.2318 -0.1768  0.1727
43854W        W86845   3.312  14.498   3.337 -0.2358  0.2376  0.1612
43855W        W86846  25.559  34.316   2.148 -0.0477 -0.0514  0.1864
43856W        W86847  17.096  13.110   5.698 -0.0887 -0.4056 -0.1399
43857W        W86848   6.194  20.704  14.367 -0.2271 -0.1081 -0.4370
43858W        W86849  23.557  18.150  17.601  0.1573  0.0134 -0.0583
43859W        W86850  28.535  29.568  21.414  0.1532  0.2864 -0.0199
43860W        W86851   5.154   2.873   5.494 -0.3255  0.2092 -0.4023
43861W        W86852   5.998  13.267   8.398  0.1353  0.0981  0.2332
43862W        W86853   2.303  12.804  21.339 -0.1030  0.1211  0.1593
43863W        W86854  19.815  14.629   2.936 -0.1721  0.0026 -0.1223
43864W        W86855  21.507   7.009  24.451 -0.3876 -0.0873  0.1374
43865W        W86856   9.105  22.265  15.090 -0.0455 -0.0441  0.0215
43866W        W86857   8.510  18.701   8.836 -0.2752 -0.2911 -0.1227
43867W        W86858   6.647  17.917  16.973 -0.0283  0.2306  0.3274
43868W        W86859   5.287  11.430   5.253  0.1368 -0.0701  0.1016
43869W        W86860  18.220   9.762  22.411 -0.0151  0.0640  0.3266
43870W        W86861  20.840  16.468   7.487 -0.0756  0.2284 -0.1060
43871W        W86862   8.425  15.815   0.907  0.2264  0.1542 -0.4261
43872W        W86863  21.748  19.511  22.165  0.1594 -0.2792 -0.1868
43873W        W86864   9.183  33.062  17.601  0.0163  0.1381 -0.2263
43874W        W86865  17.698  20.928  22.974  0.2187 -0.1205 -0.2427
43875W        W86866   6.712   1.613  10.087  0.0007 -0.0482 -0.2136
43876W        W86867  10.796  11.136   7.381 -0.1145 -0.3503 -0.0559
43877W        W86868   0.398  15.896  11.716  0.3730 -0.0894 -0.0888
43878W        W86869   4.926  17.897  10.235 -0.3262 -0.1698  0.0233
43879W        W86870  32.553   3.198  18.060  0.0489 -0.3611 -0.1596
43880W        W86871  24.247   6.357  18.549  0.2567 -0.0127 -0.3737
43881W        W86872  23.671  10.137  18.245 -0.2540 -0.0463 -0.2756
43882W        W86873  25.335  21.297   6.049  0.1051  0.3432  0.1210
43883W        W86874  34.613   1.957  18.838  0.0651 -0.1989  0.3527
43884W        W86875  20.444  16.174   3.255 -0.3167 -0.4509 -0.0404
43885W        W86876  34.207  18.439   8.304  0.0357 -0.1989  0.2271
43886W        W86877  16.835   6.725  19.687 -0.1401  0.0304 -0.0764
43887W        W86878  14.300  15.591   5.273  0.1017 -0.0390  0.0882
43888W        W86879  21.808   8.156  15.416  0.0177  0.0085  0.0353
43889W        W86880  19.065   2.768   5.436 -0.0093  0.0699 -0.0250
43890W        W86881  22.045   0.003  15.036  0.1323 -0.0427 -0.0353
43891W        W86882   0.273   4.783  18.767 -0.0627 -0.2468 -0.0467
43892W        W86883  22.855  12.899   0.515 -0.0138 -0.1808 -0.2306
43893W        W86884  16.442   9.842  26.472  0.0361 -0.0092  0.1154
43894W        W86885   9.430  13.793   4.359  0.2698  0.2438 -0.0381
43895W        W86886  17.220  15.012  26.418 -0.2829  0.3128 -0.3214
43896W        W86887  34.771  13.479  25.019  0.2304 -0.0716  0.1380
43897W        W86888  33.299   5.854  19.841  0.3296 -0.2763  0.2055
43898W        W86889   2.169  33.658   2.440  0.4002 -0.0281  0.1375
43899W        W86890   4.960   8.779  22.420  0.1931  0.2668  0.0543
43900W        W86891  12.830  18.819  14.680 -0.0384  0.0738  0.0535
43901W        W86892   4.195  10.302  22.929 -0.4567 -0.2922  0.3831
43902W        W86893   0.017  12.862  21.134  0.0393 -0.2907  0.1672
43903W        W86894  17.502   5.796  28.165  0.0564  0.0220  0.1147
43904W        W86895  33.398   7.069   4.203 -0.4737  0.4382 -0.0577
43905W        W86896  14.463  25.819  20.023  0.1890 -0.0444  0.1752
43906W        W86897   8.837  14.955   2.497 -0.2120 -0.1777 -0.1532
43907W        W86898  12.639   0.887   1.402  0.0276  0.1321 -0.2798
43908W        W86899   6.144  15.667  17.600 -0.2033 -0.1875 -0.1416
43909W        W86900  14.258  11.655  27.041  0.2299  0.2181  0.2119
43910W        W86901  30.663  26.631   3.376  0.2881  0.0162 -0.1718
43911W        W86902   7.495  20.405  27.333  0.1732  0.4791  0.0065
43912W        W86903   8.117   9.880  19.926 -0.1625 -0.1794  0.2734
43913W        W86904  14.556  16.042   7.925 -0.1975  0.0260  0.0359
43914W        W86905  33.340  27.330   0.175  0.1885  0.1560 -0.2972
43915W        W86906  13.630  34.779  19.341 -0.2585 -0.0259  0.2239
43916W        W86907   2.362  23.495  21.238 -0.0698  0.0648 -0.0143
43917W        W86908  24.265   0.203   1.803 -0.1838 -0.1376  0.1231
43918W        W86909   9.844  17.791   5.137 -0.0239  0.2329 -0.0277
43919W        W86910   9.029  15.816  15.963  0.2699 -0.0421 -0.1891
43920W        W86911  19.140  17.984  28.778  0.0336 -0.2562  0.0788
43921W        W86912  19.791   7.041   9.003  0.0857 -0.1032 -0.4503
43922W        W86913  12.023  17.026  15.593 -0.0075 -0.1647 -0.0934
43923W        W86914   8.835   4.782   8.795  0.0194 -0.1183  0.0901
43924W        W86915  34.269  16.445   2.849 -0.1800  0.1987  0.0033
43925W        W86916  23.109  32.896  16.976 -0.1615  0.0190  0.2585
43926W        W86917  21.731  15.598  15.349 -0.1467  0.3159  0.2885
43927W        W86918  15.799   6.659  17.789  0.0273 -0.3819  0.1341
43928W        W86919  10.351  18.176   6.115  0.0821 -0.0763 -0.0406
43929W        W86920  18.480  24.480  13.710 -0.2613  0.1699 -0.1008
43930W        W86921  29.815  25.921   3.975  0.1000  0.0636 -0.3334
43931W        W86922  32.852   9.237  16.815  0.0754  0.1569 -0.0369
43932W        W86923  13.905  21.872  20.601  0.1778  0.0107 -0.2500
43933W        W86924  33.570  28.194  14.995  0.2170 -0.2165 -0.2057
43934W        W86925  34.247  13.000  24.903  0.4204  0.0210  0.1510
43935W        W86926   6.958  29.345   1.658 -0.1834 -0.0823 -0.1295
43936W        W86927   5.057  19.470  24.209  0.0183  0.0605 -0.1182
43937W        W86928  15.205  20.931   5.195 -0.0068  0.1544  0.0812
43938W        W86929  16.053   6.780  21.312 -0.1448 -0.0081  0.0204
43939W        W86930   7.086  15.095  18.458 -0.3112  0.1692 -0.2070
43940W        W86931   4.721  17.265  18.939  0.1004  0.4622  0.2070
43941W        W86932   4.896   9.435  19.421  0.3202  0.1764 -0.2598
43942W        W86933  13.305   8.590  23.019 -0.5067 -0.2086  0.0090
43943W        W86934  10.983  17.125  17.782  0.1032 -0.2010  0.0041
43944W        W86935  11.181  15.066  29.072 -0.1105  0.0489 -0.2510
43945W        W86936   7.151   6.351  28.989 -0.0666  0.1389 -0.0382
43946W        W86937  15.565  20.408  22.789 -0.2923 -0.0260 -0.3297
43947W        W86938  13.029   5.749  23.863 -0.1710  0.5532 -0.0824
43948W        W86939  12.712  10.394  19.627  0.0212 -0.0775  0.2101
43949W        W86940   6.505  31.564  23.411  0.1996 -0.0753 -0.0176
43950W        W86941  29.638  22.475   1.887 -0.0237 -0.1967  0.2125
43951W        W86942   5.609   8.753  10.604 -0.0381  0.3252  0.2637
43952W        W86943  27.795  27.425  15.554 -0.0021 -0.0918 -0.1257
43953W        W86944  26.065  24.789  14.665 -0.2273 -0.0418 -0.1347
43954W        W86945  17.981  10.835  15.189 -0.0469 -0.1704  0.0415
43955W        W86946   6.952   5.385   1.170  0.1488 -0.0054  0.0515
43956W        W86947   2.923  22.173   3.514 -0.2083  0.0384 -0.0265
43957W        W86948  33.854  25.717   0.214  0.0482  0.3194 -0.0830
43958W        W86949   3.237   9.335  22.206  0.1429 -0.0651 -0.2487
43959W        W86950   1.825  13.072  26.040 -0.1065  0.0438  0.2455
43960W        W86951  18.076  11.205  26.020 -0.0394  0.4219  0.2606
43961W        W86952  13.666   9.263   4.982  0.1898 -0.2917 -0.1437
43962W        W86953   6.571  27.447  24.593  0.2144 -0.1780 -0.1237
43963W        W86954  18.963  11.634  25.645 -0.3236 -0.1191  0.0700
43964W        W86955  30.673   8.438  25.791  0.2182 -0.0566 -0.0927
43965W        W86956  18.703  32.687  26.271  0.1472  0.0848  0.0441
43966W        W86957   5.716   9.448  24.634  0.2166 -0.3522 -0.0342
43967W        W86958  34.640  23.662   1.306  0.0723 -0.0500  0.0445
43968W        W86959   3.900  21.590  25.704 -0.2870 -0.3704 -0.2147
43969W        W86960   3.713   9.464   5.884 -0.1188  0.0250  0.1394
43970W        W86961  10.929  24.944  20.632  0.0445  0.1370 -0.0295
43971W        W86962  15.680  24.571   0.817  0.0011 -0.1131  0.3751
43972W        W86963   5.736  24.301  21.025 -0.0592  0.0212 -0.1616
43973W        W86964   5.796   3.660   1.918  0.0042  0.2028  0.0743
43974W        W86965   2.340  34.685   5.012  0.1380  0.1043 -0.0178
43975W        W86966  33.103   1.803  27.189 -0.1481  0.1194 -0.1272
43976W        W86967  31.512  13.661  21.759 -0.1185 -0.0529  0.1519
43977W        W86968   3.244  12.979  11.189  0.2362  0.0835 -0.2123
43978W        W86969  12.438  34.297   5.939  0.2025  0.1112 -0.2620
43979W        W86970  34.780   0.338   6.698 -0.0823 -0.3619  0.2793
43980W        W86971  12.465  11.170  25.480 -0.2153  0.1656  0.3463
43981W        W86972  13.528   7.922  23.549  0.2450  0.2909  0.1031
43982W        W86973  13.163  23.237  28.025 -0.2580  0.1147 -0.2765
43983W        W86974   4.160  16.887  26.969 -0.1476 -0.0356 -0.1863
43984W        W86975  30.055  16.620   8.648  0.0928  0.1799  0.1188
43985W        W86976   8.966  24.947   6.271  0.3030  0.2032  0.2266
43986W        W86977  11.141  29.145   9.292  0.4175  0.2054  0.1978
43987W        W86978   3.343  20.851   6.895  0.0311 -0.2356  0.3580
43988W        W86979  10.647  10.742   5.234 -0.0279  0.0899 -0.0149
43989W        W86980   9.193  19.860   3.513 -0.0315  0.2347 -0.0207
43990W        W86981  16.222   2.798  27.626 -0.1684 -0.0985  0.0345
43991W        W86982  15.657  28.332   1.050 -0.0907 -0.0351 -0.2724
43992W        W86983   2.392   6.408  22.046  0.1584 -0.1513  0.2834
43993W        W86984  29.611  10.151   7.339  0.0843  0.1886  0.0768
43994W        W86985   0.022  11.011  21.991  0.1690  0.1858  0.0295
43995W        W86986  15.791  34.648   5.364 -0.1855  0.1497  0.1783
43996W        W86987  25.370  16.092  27.897  0.3005 -0.0929 -0.1905
43997W        W86988  12.768   4.183  27.838 -0.3394 -0.0545 -0.4009
43998W        W86989  30.336  12.991  20.586 -0.1406  0.0334 -0.0771
43999W        W86990  13.927  29.756  16.413  0.0244  0.1411  0.1032
44000W        W86991  21.739  10.373  21.791  0.0135 -0.1255  0.0214
44001W        W86992   8.887  18.178  21.844  0.3111  0.0201  0.1744
44002W        W86993  33.232  20.525  26.070 -0.0568 -0.3206  0.0924
44003W        W86994   8.909  10.124   2.443  0.0700 -0.0562 -0.1566
44004W        W86995   1.526  21.972  17.394  0.3597 -0.0602 -0.0192
44005W        W86996   4.769  11.914  17.163  0.1822 -0.2578 -0.1575
44006W        W86997  24.220  10.846   2.490  0.0934  0.1589 -0.1450
44007W        W86998  22.477   8.481  26.211  0.2255  0.1601  0.2489
44008W        W86999   9.663   0.436  25.768 -0.2518  0.1991 -0.0005
44009W        W87000  11.262  25.981  22.906 -0.1653 -0.1604  0.0856
44010W        W87001  11.142  22.582  27.498 -0.2065  0.2593 -0.1562
44011W        W87002  13.683  18.090   4.040  0.1556  0.0405 -0.1852
44012W        W87003  16.096  25.806  18.128  0.0995 -0.2347  0.0515
44013W        W87004  22.164  17.346  22.285  0.2345  0.3478  0.0560
44014W        W87005  10.234  13.323   4.888 -0.0098 -0.1534 -0.0353
44015W        W87006  15.230  10.342  28.389  0.0854  0.1406 -0.0738
44016W        W87007   3.576  13.622   2.898 -0.2434  0.1630  0.0099
44017W        W87008  30.301   2.828   4.346 -0.1954 -0.2177 -0.1160
44018W        W87009   5.333  29.400  28.066  0.0184 -0.2170 -0.0434
44019W        W87010  10.678  17.535  21.734 -0.0169  0.0410  0.0131
44020W        W87011   6.314  19.016   4.462  0.0866 -0.0798 -0.1554
44021W        W87012  19.800  32.728  15.388 -0.2406 -0.1364  0.0744
44022W        W87013  31.351   3.806  25.749  0.0732 -0.1135  0.2660
44023W        W87014  11.684   9.287  23.461 -0.0956 -0.1939 -0.1519
44024W        W87015   4.410  31.109   3.307 -0.0398 -0.3872  0.0848
44025W        W87016  18.907   5.262  14.965 -0.0988  0.0759  0.0559
44026W        W87017  19.024  21.531  25.861 -0.1050 -0.1062 -0.0137
44027W        W87018   8.335   8.199  24.308  0.1378  0.1482  0.1692
44028W        W87019   0.895  19.192  15.492  0.1830 -0.0817  0.0363
44029W        W87020   5.436  15.805  22.692  0.1487  0.1462  0.0371
44030W        W87021   9.585  15.705  18.172 -0.1570  0.0207 -0.0563
44031W        W87022  15.960  26.068  25.643 -0.0012 -0.0170  0.2654
44032W        W87023   7.732  26.318   0.968  0.0678 -0.0470 -0.1923
44033W        W87024  21.649  20.783  16.294 -0.3723 -0.0111 -0.1818
44034W        W87025  13.388  18.866  26.531 -0.2136  0.1141  0.0139
44035W        W87026   1.490  24.594  18.183 -0.2464  0.6447  0.4124
44036W        W87027  19.741  13.539  17.361  0.0019  0.2105  0.3068
44037W        W87028  33.846  17.980  23.680 -0.2272  0.1380  0.0797
44038W        W87029  31.594  31.093  19.597 -0.1451 -0.0458  0.0242
44039W        W87030  12.388   9.354  26.058 -0.3496  0.0360  0.0685
44040W        W87031   6.992  23.552   8.778  0.1439  0.0293  0.1353
44041W        W87032  33.431   3.112  20.045  0.1237  0.1750  0.2081
44042W        W87033   9.804  28.848  29.143  0.0295 -0.5378  0.1055
44043W        W87034  17.756  25.760  16.145 -0.0540  0.4292  0.0288
44044W        W87035  34.234   5.571  15.063 -0.0071 -0.0805 -0.1449
44045W        W87036   4.397  19.882   7.870 -0.0808  0.0617 -0.1843
44046W        W87037   0.323   4.278  19.038 -0.0156  0.0808  0.2040
44047W        W87038  33.854  12.660  22.331  0.0628  0.1957 -0.3261
44048W        W87039  22.622   6.800  17.255 -0.2989 -0.2944 -0.4051
44049W        W87040   5.743   7.447  23.458 -0.0208 -0.0716  0.1556
44050W        W87041   1.491  24.116  18.086  0.0096 -0.1292  0.2863
44051W        W87042   7.412  14.253  20.103 -0.2563  0.3371  0.0096
44052W        W87043   6.626  32.399  15.811 -0.1532  0.0048 -0.1320
44053W        W87044   0.937  20.127  16.740  0.4303 -0.2058  0.0377
44054W        W87045  27.914  13.761  26.060 -0.2599 -0.0431 -0.1529
44055W        W87046   6.000  23.748  14.894 -0.0557 -0.0704  0.2436
44056W        W87047   5.611  23.706  16.203 -0.0049 -0.0848  0.0143
44057W        W87048   1.756  17.124  21.646 -0.0612  0.2289 -0.1169
44058W        W87049  16.525   1.297  18.287 -0.0333  0.0830  0.1104
44059W        W87050  16.714  18.074  13.819  0.0303 -0.0272  0.0292
44060W        W87051  18.209   6.514  25.748  0.2368  0.1126  0.0694
44061W        W87052  32.891   0.816   6.075 -0.1693  0.0557 -0.0872
44062W        W87053  21.987   4.111  21.341  0.1392  0.2804  0.1429
44063W        W87054  28.963  16.838  17.005 -0.0457 -0.0416  0.1766
44064W        W87055   7.679  18.003  23.400 -0.0643 -0.0229 -0.1382
44065W        W87056  15.965  11.198  16.938  0.1536 -0.2251 -0.1999
44066W        W87057  33.056  30.345   5.123  0.2011 -0.0715  0.0925
44067W        W87058   2.254   3.856  15.872  0.1960 -0.2292 -0.1879
44068W        W87059  23.138  20.046  16.294 -0.1270 -0.1508 -0.1818
44069W        W87060  11.664  17.960  22.344 -0.0640 -0.1059  0.3186
44070W        W87061  12.133  14.438  20.818  0.1884 -0.0076 -0.3034
44071W        W87062  10.676  30.214   2.549 -0.4808  0.0222  0.4497
44072W        W87063  33.658  17.376  29.140  0.2652  0.0222  0.1164
44073W        W87064   5.729  22.057  18.264 -0.0136 -0.1648 -0.0112
44074W        W87065   3.979  21.195  24.769  0.0458  0.1729 -0.4241
44075W        W87066  22.599   1.212  24.052 -0.2872 -0.0330  0.2990
44076W        W87067   2.027  10.834   8.678 -0.5114 -0.0047  0.0260
44077W        W87068   9.109  25.418  21.387  0.2066 -0.1053  0.1906
44078W        W87069   7.326   6.338  16.547 -0.0598 -0.3924 -0.2027
44079W        W87070   0.599   7.946   1.905 -0.1489 -0.0379 -0.1173
44080W        W87071  19.483   0.012  21.647 -0.1733  0.0103  0.2545
44081W        W87072   2.422   6.478  18.060  0.2660  0.2169 -0.1380
44082W        W87073   5.682  16.554  19.728 -0.0117 -0.0551 -0.3130
44083W        W87074  28.508  20.640  15.875 -0.0991 -0.0031  0.1291
44084W        W87075  25.311  25.969  14.557  0.4531  0.1376  0.0144
44085W        W87076  15.744  31.654  16.999  0.2807 -0.1144 -0.2458
44086W        W87077   2.925   1.226  26.789  0.0460  0.2676 -0.2000
44087W        W87078  19.278  12.665  17.707 -0.3701  0.2330 -0.1823
44088W        W87079  25.511  17.904  28.570 -0.4157 -0.2167 -0.1296
44089W        W87080  21.861  29.371  19.745  0.0467 -0.1722  0.1017
44090W        W87081  19.121  14.758  23.043  0.0819  0.2468 -0.1041
44091W        W87082  18.791  31.170  20.543  0.1792  0.1414  0.0400
44092W        W87083  10.710  28.824  21.229  0.1533  0.1084  0.4627
44093W        W87084   1.811  13.773  17.446  0.2909 -0.3596  0.1729
44094W        W87085  13.704   0.843  18.523 -0.0990 -0.1280  0.0726
44095W        W87086  28.354   5.994  20.689  0.0381 -0.0835 -0.1184
44096W        W87087  33.791  19.928  20.926 -0.3728 -0.0659  0.2376
44097W        W87088  20.827  13.238  14.629  0.2183  0.2541  0.1608
44098W        W87089  16.301  10.504  14.169  0.2781 -0.3023 -0.1818
44099W        W87090  32.069  12.556  19.989 -0.1861  0.1634 -0.2016
44100W        W87091  34.534  31.832  27.762  0.1453  0.1365 -0.0480
44101W        W87092  25.501  12.593  20.571 -0.0007 -0.0539 -0.3842
44102W        W87093  17.353  20.537  13.929  0.1345 -0.0809  0.0214
44103W        W87094  22.275  24.012  17.905  0.1757 -0.0748  0.0902
44104W        W87095  33.928  12.387  15.477  0.1609  0.0545 -0.0649
44105W        W87096  10.722  16.345  18.175 -0.1555 -0.0928  0.2862
44106W        W87097  15.848  14.203  25.303  0.1472  0.1102  0.0641
44107W        W87098  10.582  23.759  15.984 -0.2829 -0.1173  0.3170
44108W        W87099  33.435  23.240  13.887 -0.2216 -0.1527  0.2700
44109W        W87100  11.099  19.326  24.092 -0.1952  0.1566 -0.0427
44110W        W87101  10.092   9.997  18.898 -0.0685 -0.0107 -0.0509
44111W        W87102  34.623  14.319  18.791  0.1985  0.2413 -0.0554
44112W        W87103  34.568   4.939  22.970 -0.1789 -0.1644 -0.1181
44113W        W87104   5.082  28.898  19.687  0.0357 -0.1401  0.0986
44114W        W87105  17.676  10.989   0.954 -0.4498  0.0714  0.1226
44115W        W87106  14.344  22.183  27.113 -0.1027 -0.0688 -0.0091
44116W        W87107  10.939  22.679   3.027 -0.1776 -0.3714 -0.0077
44117W        W87108  30.020  23.418   7.756  0.0324 -0.1572  0.2792
44118W        W87109  18.539  20.729  22.645 -0.2924 -0.1432 -0.0556
44119W        W87110  15.261  16.657  13.847 -0.2176  0.1120  0.0139
44120W        W87111   9.857   1.586  23.340 -0.2187 -0.0015  0.2000
44121W        W87112   5.290  23.889  23.011  0.0107 -0.0494  0.1031
44122W        W87113  10.821  13.815  28.959 -0.1064  0.0757  0.2154
44123W        W87114  25.536  29.736  26.880 -0.2914 -0.0538  0.0672
44124W        W87115   0.448  15.498  16.929  0.0575  0.0800  0.2358
44125W        W87116  10.673  18.380  20.136 -0.1045 -0.0144  0.0218
44126W        W87117  34.084  23.874  17.889 -0.1155 -0.1154  0.1175
44127W        W87118  17.913  26.045  14.272  0.0128  0.0282  0.0704
44128W        W87119  26.130  28.140  16.150 -0.1428  0.0650  0.1051
44129W        W87120  27.562  28.112  15.615 -0.1622 -0.2069 -0.0058
44130W        W87121   0.139  25.260  26.338  0.1367  0.0739  0.0825
44131W        W87122  23.355  16.226  21.197 -0.1666  0.1287  0.0818
44132W        W87123  33.626  30.235  15.179  0.0549 -0.2899 -0.1695
44133W        W87124  10.849  19.344  22.010 -0.0348 -0.4172  0.0414
44134W        W87125  31.299  19.516  23.713 -0.0148  0.0169  0.0965
44135W        W87126  20.195  19.353   7.526  0.0104  0.0617  0.4616
44136W        W87127  25.039  27.758  20.182 -0.0511 -0.1399  0.1953
44137W        W87128  13.242  27.065  20.748 -0.2245  0.3738  0.3424
44138W        W87129   9.937   2.303  19.978  0.2170 -0.1290 -0.1357
44139W        W87130   5.777   8.351  27.565 -0.1283  0.2002 -0.0400
44140W        W87131  20.142   2.522  21.101  0.2911  0.1723  0.2540
44141W        W87132   6.676  25.381  17.127 -0.1448 -0.2124  0.0977
44142W        W87133   3.623  22.584  23.733 -0.2408 -0.0184  0.3595
44143W        W87134  22.927   3.374  26.174  0.0234  0.0880  0.2047
44144W        W87135  26.535  19.223  24.180  0.2369  0.3219 -0.0402
44145W        W87136   7.634  23.314  20.089 -0.0192  0.1691 -0.1969
44146W        W87137  19.398  21.084  22.415 -0.0777  0.1324  0.1869
44147W        W87138  29.277   9.881  15.965  0.1141 -0.0060  0.2980
44148W        W87139   6.039  16.760  17.974 -0.1531  0.1683  0.4404
44149W        W87140   6.893   3.730  19.405  0.0605 -0.0568  0.2413
44150W        W87141  29.121  16.866  28.396  0.1493 -0.0899 -0.0955
44151W        W87142  27.613  28.519  21.946 -0.1635  0.2463 -0.2638
44152W        W87143  14.892  29.694  27.594 -0.1061  0.0178 -0.0926
44153W        W87144  31.667   4.910  19.617 -0.1890  0.1038 -0.0267
44154W        W87145   8.282  21.814  21.806 -0.0693  0.0776  0.1695
44155W        W87146   6.173  16.638  17.510  0.1258 -0.3548 -0.1278
44156W        W87147  28.662  11.794  22.432 -0.0919 -0.0252 -0.0538
44157W        W87148  19.074  28.570  16.300  0.0873  0.0094 -0.0354
44158W        W87149  15.249   6.010  26.407  0.1391  0.0568  0.4655
44159W        W87150   3.626   7.281  18.590 -0.0489 -0.3817  0.0820
44160W        W87151  16.521  20.044  12.999 -0.0412  0.1688  0.1216
44161W        W87152  25.810  22.844  23.392  0.2608  0.1575  0.1055
44162W        W87153   7.883  33.331  21.822  0.1989  0.0978  0.2185
44163W        W87154   7.412  27.391   0.031  0.1905 -0.0787 -0.0355
44164W        W87155   8.542  18.718  17.451 -0.0051 -0.0845 -0.4054
44165W        W87156   0.125  13.348   3.289  0.2177  0.0137  0.1354
44166W        W87157   8.509  20.007  20.407  0.1822 -0.3147  0.1240
44167W        W87158  17.317  28.003   3.697  0.2051 -0.1228  0.0575
44168W        W87159   9.446   4.098   7.328  0.0218 -0.2096  0.2036
44169W        W87160  18.331  30.920  17.655 -0.2218 -0.0360 -0.0101
44170W        W87161  17.420  33.872   0.197  0.1987 -0.0298 -0.0191
44171W        W87162  27.122  12.723   0.757  0.0993 -0.2990  0.0048
44172W        W87163  34.563  13.885  25.295 -0.0152 -0.2436  0.1696
44173W        W87164   5.196  11.174   3.250 -0.1809 -0.1386 -0.1102
44174W        W87165  34.605  23.563  26.967 -0.1518  0.0116 -0.4747
44175W        W87166  15.565  13.164  15.481  0.3180  0.1271  0.0269
44176W        W87167  22.489  23.103  15.428  0.3001  0.1491 -0.0949
44177W        W87168  34.514  18.589  16.484 -0.3312 -0.2613 -0.2610
44178W        W87169   2.122   6.257  20.195 -0.0672 -0.3512 -0.1233
44179W        W87170  17.863   5.160  22.767  0.3008  0.0680 -0.1022
44180W        W87171  32.661  23.884  16.062  0.2486 -0.1930  0.0686
44181W        W87172   1.040  19.099  14.562 -0.2624 -0.0788 -0.0443
44182W        W87173  34.021   3.010  20.299  0.0448  0.0684 -0.0193
44183W        W87174   5.962  11.718  23.421 -0.1429 -0.1399  0.1523
44184W        W87175  28.721  12.505  22.068  0.0264 -0.1254 -0.0658
44185W        W87176  10.696  13.880  15.116  0.1939  0.0423  0.0267
44186W        W87177  16.304  30.049  26.451  0.2111 -0.3263 -0.3254
44187W        W87178  10.629  17.597  16.790 -0.2303 -0.0397  0.2053
44188W        W87179  21.679  21.228  28.522 -0.0468  0.2088  0.1294
44189W        W87180  32.009  11.177  11.012  0.3496 -0.0670 -0.2727
44190W        W87181   7.712  15.688  20.590  0.2890  0.1607  0.0340
44191W        W87182   0.212  27.968  19.845  0.1545 -0.0763 -0.0924
44192W        W87183   5.143  34.659  25.163 -0.2297  0.3800 -0.3322
44193W        W87184  23.787   3.179  26.901  0.2528  0.0298 -0.1260
44194W        W87185  10.281  10.277  24.322  0.1541 -0.2179 -0.2407
44195W        W87186   4.051  18.769  20.649  0.0246  0.0475 -0.0850
44196W        W87187  30.125  27.135  26.628  0.0966  0.0448  0.1287
44197W        W87188  28.115  22.962  19.176 -0.1355  0.0380  0.1046
44198W        W87189  14.606   1.857  19.197  0.1092 -0.2276  0.0941
44199W        W87190  14.057  25.231  14.552 -0.0058 -0.0503  0.0225
44200W        W87191  21.594  21.351  17.116 -0.1474 -0.1099 -0.0317
44201W        W87192  22.009  18.569  17.482  0.2084 -0.0711 -0.0840
44202W        W87193  15.330  23.996  19.721  0.0409  0.1067  0.0453
44203W        W87194  33.902   7.897  24.815  0.2063  0.2552 -0.0373
44204W        W87195  11.067  18.317  14.128 -0.2912  0.2027  0.0780
44205W        W87196  17.465  27.913   1.252  0.3432 -0.0748  0.2010
44206W        W87197  11.218  11.510  15.024 -0.2796 -0.2612 -0.2694
44207W        W87198  33.213  15.870  22.365  0.2038  0.0986  0.2964
44208W        W87199   3.465  31.297  19.917 -0.1460  0.0345 -0.0850
44209W        W87200  16.797   8.588  22.104  0.2520  0.3317 -0.0513
44210W        W87201  13.100  19.078  17.139 -0.1922 -0.1242 -0.1704
44211W        W87202   1.805  27.452  15.166  0.0131  0.2693 -0.1211
44212W        W87203  12.975  23.043  13.816  0.0133 -0.3608 -0.2213
44213W        W87204   9.484  15.963  15.846 -0.0571  0.2219 -0.1075
44214W        W87205  27.094  24.794  23.086 -0.0320 -0.0360 -0.0664
44215W        W87206  14.132  31.989  20.502 -0.1495 -0.1701  0.0816
44216W        W87207  12.192  18.674  22.727 -0.3773  0.2867  0.1547
44217W        W87208   6.233  19.702  26.510  0.0196 -0.0490 -0.0687
44218W        W87209  16.486  26.780  20.529  0.2326  0.1038  0.1726
44219W        W87210  17.662  28.264  16.986 -0.1623  0.1273  0.1426
44220W        W87211  11.785   2.560  18.649 -0.0206 -0.0957 -0.0821
44221W        W87212  26.376  19.145  17.129 -0.1261 -0.1720  0.0157
44222W        W87213   0.129  30.646  15.463  0.0828 -0.0980 -0.0463
44223W        W87214  18.952  21.820  27.461  0.1105 -0.3242 -0.0236
44224W        W87215   3.843  11.593  16.412  0.0080 -0.0901 -0.0721
44225W        W87216   6.081  10.843  17.683  0.0957  0.0206  0.1081
44226W        W87217   1.026   9.388  17.716 -0.1869 -0.1503 -0.0036
44227W        W87218  10.568  26.883  22.172  0.1063  0.2384 -0.1197
44228W        W87219  26.571   5.495  15.254 -0.2319 -0.2656  0.1342
44229W        W87220  17.340  23.223   5.858 -0.0855 -0.3248  0.0970
44230W        W87221   7.865  23.866  15.776 -0.2847  0.1476 -0.2733
44231W        W87222  20.224   4.281  17.123 -0.0081 -0.1887 -0.1862
44232W        W87223  20.409  25.095  18.908  0.1439  0.1470  0.4455
44233W        W87224  11.471   3.987  22.291 -0.6494 -0.2096  0.1392
44234W        W87225   2.275  34.791  20.349  0.3090 -0.3817  0.2224
44235W        W87226  34.317  21.327  19.677  0.0725 -0.0941  0.1981
44236W        W87227  12.552  27.482  19.670 -0.0177  0.5169  0.0046
44237W        W87228  31.436   6.367  26.711 -0.0989 -0.2888  0.2554
44238W        W87229   9.252  23.391  16.438 -0.2236  0.5723 -0.2221
44239W        W87230   7.408  17.961  19.674 -0.0844 -0.0631 -0.4279
44240W        W87231  30.831   8.969  26.818 -0.2544 -0.0083  0.1459
44241W        W87232   6.523  21.103  23.683  0.3314  0.1621 -0.1163
44242W        W87233  29.936  29.639   1.787 -0.1217  0.2981 -0.1617
44243W        W87234  34.518  33.180  14.226 -0.1444 -0.2328  0.2744
44244W        W87235  25.734  22.354  22.154  0.1489 -0.2674 -0.2379
44245W        W87236  12.287  16.810  20.892  0.0822 -0.1816  0.1032
44246W        W87237  34.522  23.099  25.598 -0.1195  0.1704 -0.0743
44247W        W87238  10.215  17.742  19.037 -0.3390 -0.0222 -0.1536
44248W        W87239  33.468  20.465  15.579 -0.0933  0.0363  0.1091
44249W        W87240  28.069  21.843  20.795 -0.2602 -0.1024 -0.1250
44250W        W87241  10.090  26.604  18.775 -0.0918 -0.1048  0.2179
44251W        W87242   5.524  28.819  16.752  0.2211 -0.3146 -0.2025
44252W        W87243  32.656  19.134  26.157 -0.1514 -0.0148  0.5411
44253W        W87244  12.431  18.832  28.919  0.3984 -0.1114  0.0070
44254W        W87245  12.866   9.449  17.932  0.1899  0.1303 -0.1438
44255W        W87246  20.155  23.592  21.244 -0.1834  0.1432  0.0205
44256W        W87247  32.702  15.417  17.838  0.2168 -0.1261 -0.3139
44257W        W87248  10.306  31.292  25.479 -0.3546  0.2019  0.2688
44258W        W87249  12.078  17.098  20.544 -0.2368  0.2738  0.0647
44259W        W87250  13.583   7.953  17.851 -0.0133 -0.3415  0.1114
44260W        W87251  32.620  20.714  18.535 -0.2019 -0.3606 -0.2818
44261W        W87252  34.713   4.648  21.173 -0.0239 -0.0344 -0.1404
44262W        W87253  19.954   4.481  19.884  0.3029  0.1186 -0.0243
44263W        W87254   0.615  23.767  17.523  0.1125 -0.1335  0.0396
44264W        W87255  10.105  29.127  22.541  0.1853 -0.1848  0.0735
44265W        W87256  13.699  11.894  23.085  0.3312 -0.1123 -0.2162
44266W        W87257  14.923  11.452  16.660 -0.0413 -0.2147 -0.0971
44267W        W87258  15.287  12.231  17.539 -0.1392 -0.1164 -0.1631
44268W        W87259  15.788  10.496  20.836 -0.0748  0.2071  0.2060
44269W        W87260  13.029   3.581   1.148 -0.6777  0.2967 -0.4413
44270W        W87261  12.989  26.546  14.341  0.0858 -0.3641  0.1687
44271W        W87262   0.405   6.639  18.567  0.2543  0.0320  0.0296
44272W        W87263  11.802  24.854  22.144  0.1852  0.0697  0.2224
44273W        W87264  16.472   8.067  19.685  0.2239 -0.1568  0.0345
44274W        W87265   2.012  20.889  16.549 -0.0347 -0.1269  0.2497
44275W        W87266  26.980  27.047   0.422  0.1985 -0.2969  0.0750
44276W        W87267  28.379  12.782  22.411 -0.1408 -0.1336 -0.1426
44277W        W87268  15.093   2.195   1.366 -0.2395 -0.1817 -0.0675
44278W        W87269  30.611  21.110   2.968  0.2457  0.3684  0.0167
44279W        W87270  29.958   2.861  15.842 -0.0594 -0.0294  0.0231
44280W        W87271   9.604   4.307  18.736  0.2211 -0.2756  0.0546
44281W        W87272  20.339  25.612  22.001  0.1039 -0.0359 -0.0079
44282W        W87273  25.733   0.158   9.474  0.0809  0.3837  0.2514
44283W        W87274  16.567  13.431  23.811 -0.3513  0.2836  0.0925
44284W        W87275  13.240  22.173  14.694 -0.0844 -0.1840  0.2913
44285W        W87276  15.788  22.528  13.139 -0.2349  0.2890 -0.0551
44286W        W87277  30.690  32.004  14.669  0.0178 -0.3707  0.0575
44287W        W87278   1.801   5.523  15.468  0.1382  0.1276  0.1749
44288W        W87279  24.802   8.865  20.446  0.1196  0.2658  0.1447
44289W        W87280   8.884   0.196   0.727 -0.0344 -0.3050 -0.4012
44290W        W87281  29.700  18.930  20.717 -0.1507 -0.2400 -0.1560
44291W        W87282  31.847  14.966  18.196 -0.0618  0.5976  0.1818
44292W        W87283   3.233  18.637  17.693 -0.2920 -0.0128  0.4678
44293W        W87284   0.595   6.193   7.948 -0.1161 -0.0528 -0.2954
44294W        W87285  12.053  27.413  15.042 -0.2545  0.1409 -0.0434
44295W        W87286  33.855   5.564   8.920  0.1633  0.0040  0.0707
44296W        W87287   6.573  21.519  15.453 -0.0211 -0.1103 -0.0275
44297W        W87288  15.876  31.831  25.115  0.1175  0.0944 -0.1763
44298W        W87289   3.533  18.003  16.270  0.2426  0.0974  0.2001
44299W        W87290  20.972  18.551  13.583 -0.1013 -0.0954 -0.1840
44300W        W87291  21.174  33.146  17.068 -0.1738  0.0927 -0.1668
44301W        W87292   2.432  13.221  17.175  0.2286  0.0716 -0.1300
44302W        W87293  29.951  14.983  23.080 -0.0313  0.2098  0.0303
44303W        W87294  18.033  26.509  20.631  0.0371 -0.1357 -0.1093
44304W        W87295  33.347  34.692  15.949 -0.1187  0.0873 -0.2165
44305W        W87296  24.426  21.458  12.555  0.1303  0.3275 -0.3656
44306W        W87297  24.747  31.863  19.188  0.1169 -0.0787 -0.0247
44307W        W87298   2.187  23.385  17.037 -0.0072  0.0403  0.2598
44308W        W87299   2.513  16.233  18.437  0.1778  0.1703  0.1317
44309W        W87300  33.525   0.812  22.142 -0.1185 -0.3188 -0.1259
44310W        W87301  12.570  10.509  17.700  0.0809 -0.0479  0.0029
44311W        W87302  13.465  33.193  19.922 -0.0249 -0.3748  0.2485
44312W        W87303  20.484  13.336  24.418 -0.2408  0.0897  0.3511
44313W        W87304   6.138  16.856  22.504  0.2954  0.2284 -0.0134
44314W        W87305   8.245  31.934  25.976  0.1560  0.2173  0.3586
44315W        W87306   3.098  17.652  18.323 -0.0513 -0.2204  0.2037
44316W        W87307  13.908  10.405  18.159 -0.1465  0.1177 -0.2813
44317W        W87308  24.934  34.222  28.665 -0.1924 -0.0093 -0.0868
44318W        W87309  13.542  25.400  13.555  0.1628 -0.0876  0.0804
44319W        W87310  24.399  27.753  17.950 -0.1197  0.4353 -0.0709
44320W        W87311  30.608  16.378  17.108 -0.3520  0.2347  0.1093
44321W        W87312  33.757  26.614  18.276  0.0188  0.2533  0.1245
44322W        W87313   4.223   7.136  23.388 -0.3832  0.0871 -0.1968
44323W        W87314  32.436  24.588  20.821  0.0091 -0.1394 -0.0614
44324W        W87315  33.542  32.136  24.196 -0.1091 -0.0325 -0.0311
44325W        W87316  11.167  27.745  20.425  0.2138 -0.3385 -0.2392
44326W        W87317  20.489  14.487  18.922  0.3998  0.0407  0.0993
44327W        W87318  32.039   7.058  27.076 -0.2615 -0.1489  0.0727
44328W        W87319   6.120  12.940  21.703 -0.0429 -0.4497 -0.0308
44329W        W87320  23.434  20.776   7.883  0.1999  0.0231  0.1757
44330W        W87321  33.176   1.270  13.608 -0.0169 -0.1732 -0.2013
44331W        W87322  22.367  19.772   1.707  0.3637  0.0949 -0.0808
44332W        W87323   6.799  34.143   3.109 -0.1140 -0.1276 -0.0219
44333W        W87324  18.213   5.654  17.776 -0.0831  0.4840 -0.0584
44334W        W87325  34.793  33.239  20.225  0.2152 -0.0399  0.0695
44335W        W87326   6.850  19.356  21.423 -0.1613 -0.1521  0.2895
44336W        W87327  31.017   3.374  20.420 -0.2443 -0.2712 -0.1546
44337W        W87328   2.793  20.310  17.691  0.1389 -0.1137  0.0223
44338W        W87329  33.634  23.769  19.689  0.0596  0.1346 -0.0092
44339W        W87330   0.809  11.327  23.579  0.0196  0.0074  0.3272
44340W        W87331  12.124  17.149  24.717 -0.2089 -0.0132  0.2949
44341W        W87332  13.050  31.003  27.731  0.2875 -0.0638  0.2867
44342W        W87333   6.881  28.559  24.002 -0.1766 -0.0003 -0.1491
44343W        W87334  33.407  14.945  20.174  0.0034  0.1032 -0.0463
44344W        W87335   8.838  28.025  15.706  0.2054  0.2575 -0.2538
44345W        W87336   3.317  24.348  24.534  0.1162  0.1170  0.2024
44346W        W87337  11.022  33.907  17.619  0.0015  0.2622  0.1591
44347W        W87338   9.069   7.187  16.269 -0.0161 -0.2012  0.0139
44348W        W87339   5.449  16.641  15.019 -0.0535  0.1604 -0.0096
44349W        W87340  11.838  22.430  20.548  0.1261 -0.0500 -0.2995
44350W        W87341  24.448  28.660  18.241 -0.0472 -0.3499 -0.0806
44351W        W87342  34.466  26.011  22.467  0.1408  0.1020  0.0263
44352W        W87343   7.857  32.149  21.051  0.1609  0.0638  0.2016
44353W        W87344   9.335   2.665  10.161  0.2106 -0.1248  0.2027
44354W        W87345   2.122  32.230  22.311 -0.1130  0.0254 -0.1978
44355W        W87346  32.813  32.785  22.905 -0.1048  0.1585  0.0299
44356W        W87347   6.613  14.223  22.985 -0.0789 -0.3102 -0.0827
44357W        W87348  30.461   4.824  13.537  0.3012  0.2320 -0.3122
44358W        W87349   3.350  17.524  17.476  0.0830  0.0221 -0.2051
44359W        W87350   6.489  26.431  19.798  0.1912  0.0805 -0.1168
44360W        W87351   4.919  13.943   1.167  0.2292  0.1703 -0.0911
44361W        W87352   2.391  14.323  20.700  0.0941  0.1834  0.0037
44362W        W87353   2.301  24.509  17.693  0.1688  0.0945  0.0229
44363W        W87354  23.979  12.720  13.599 -0.0501  0.0806  0.0609
44364W        W87355   8.620  28.472  24.525  0.3443  0.0828 -0.1738
44365W        W87356  33.432  21.027  17.316 -0.2290 -0.3855  0.0063
44366W        W87357  17.721   9.777  15.061  0.1141 -0.3566  0.0758
44367W        W87358  11.616  29.325  28.936 -0.0643 -0.0298 -0.0570
44368W        W87359   8.470  28.372  18.359 -0.3180 -0.0593  0.2382
44369W        W87360   8.325  20.189  18.288  0.0708  0.0247  0.1836
44370W        W87361   0.223  26.067  17.881 -0.0711  0.4878  0.3751
44371W        W87362  19.297   9.450  17.691 -0.1862 -0.1924 -0.2749
44372W        W87363   3.019   7.591  27.170 -0.1041  0.1688  0.1358
44373W        W87364   6.090  21.757  21.732 -0.1936 -0.2098 -0.1255
44374W        W87365   4.433  27.361  24.034 -0.1819  0.3884 -0.2406
44375W        W87366  12.243  33.196  24.112 -0.0420 -0.0164  0.3001
44376W        W87367  26.014  34.059  24.352  0.2415 -0.1459  0.0425
44377W        W87368   9.306  29.435  29.101 -0.0141 -0.2368  0.0653
44378W        W87369  16.888  15.513  13.936 -0.0467 -0.1594  0.3536
44379W        W87370  19.007  32.591  14.734 -0.2880 -0.1015 -0.0069
44380W        W87371   1.661  29.690  22.401 -0.1767 -0.2534 -0.1088
44381W        W87372  31.765  25.564  18.304 -0.4387  0.0769  0.0078
44382W        W87373  14.154  28.009  18.323  0.0783 -0.0652 -0.0512
44383W        W87374  22.456  28.156  15.225 -0.0947  0.1665 -0.1828
44384W        W87375  10.569   4.966  16.634 -0.0306  0.1537 -0.1100
44385W        W87376   0.064  15.266  16.774 -0.4032 -0.1843 -0.1344
44386W        W87377   7.293  31.981  14.971  0.0886 -0.1023  0.1755
44387W        W87378  16.141   7.100  18.587 -0.2171 -0.0954  0.1656
44388W        W87379  30.081  34.223  15.277  0.1199  0.0020 -0.3846
44389W        W87380  29.362   2.483  21.561 -0.1849 -0.0290  0.0852
44390W        W87381   5.423   0.314  14.999  0.1060 -0.1164 -0.2325
44391W        W87382  19.780  27.540  14.137  0.2686 -0.1560  0.2143
44392W        W87383  15.254  16.487  14.323 -0.0809  0.0729 -0.0459
44393W        W87384   8.551   4.054  27.403 -0.2971 -0.2627 -0.1163
44394W        W87385   4.018   4.504  16.284 -0.1185 -0.1925  0.1107
44395W        W87386  28.043  23.235  18.275 -0.0363 -0.4485  0.1411
44396W        W87387  15.253  23.237  16.020 -0.1011 -0.3364  0.1643
44397W        W87388   3.539  30.843  18.989  0.4047  0.2282  0.1587
44398W        W87389  20.450   0.440  14.405  0.1993 -0.1908  0.0760
44399W        W87390  30.343  18.505  15.662  0.1023  0.0076 -0.2684
44400W        W87391   8.870  16.232   1.939  0.1075  0.1036  0.0549
44401W        W87392   7.306  15.938  16.167  0.1659 -0.0315  0.4613
44402W        W87393  27.616   4.148   2.436 -0.2112 -0.0201 -0.0533
44403W        W87394  15.883   1.379  21.406 -0.0028 -0.0065 -0.2631
44404W        W87395   1.840  13.161  23.696  0.0905  0.1642  0.0023
44405W        W87396  27.267  20.802  16.071 -0.0378  0.3168 -0.1896
44406W        W87397  31.421  13.892  20.527 -0.0696  0.2654  0.0643
44407W        W87398  27.907  17.799  20.099 -0.0913 -0.1108 -0.2208
44408W        W87399  16.121  16.039  23.529 -0.3046 -0.0371  0.0472
44409W        W87400  27.732  16.737  18.652 -0.0490 -0.0763  0.0545
44410W        W87401  19.687  23.790  25.567 -0.1688 -0.0060 -0.0380
44411W        W87402  12.736  24.801  15.607 -0.1278 -0.1811  0.1510
44412W        W87403  11.765  29.215  23.959 -0.0672  0.0364 -0.3139
44413W        W87404  34.476  21.523  21.959  0.0139  0.0187  0.1590
44414W        W87405   9.769  20.693  14.897  0.0231 -0.0185 -0.2288
44415W        W87406  23.636  14.975  28.425  0.1052  0.1103  0.0910
44416W        W87407  28.630   5.558   1.940  0.2033 -0.0175 -0.1471
44417W        W87408  19.213  23.499  22.362 -0.0457 -0.1478  0.3035
44418W        W87409  11.742  28.253   9.089  0.0757 -0.3836  0.0330
44419W        W87410  33.787  31.058  14.710 -0.0817 -0.0226  0.0259
44420W        W87411   7.107  16.286  23.540 -0.1340 -0.4063  0.0618
44421W        W87412  14.686  21.513  23.770  0.0925 -0.2733 -0.1793
44422W        W87413  10.398  34.641  18.490 -0.1933 -0.2622 -0.3320
44423W        W87414  10.132  33.549  16.692  0.1275 -0.1633  0.1831
44424W        W87415   3.898   5.515  17.275 -0.1457  0.7302 -0.0680
44425W        W87416  31.107  15.089  16.814 -0.0491  0.0413 -0.1618
44426W        W87417   5.392  14.402  16.221 -0.0141 -0.2947  0.0043
44427W        W87418  15.405   3.323  23.768 -0.1017  0.1178 -0.0472
44428W        W87419  17.683  13.978  21.205  0.4621  0.2023 -0.1324
44429W        W87420  32.153  17.881  19.227 -0.1007  0.0222  0.0237
44430W        W87421   0.675  32.227   0.711  0.0573 -0.1582  0.0557
44431W        W87422   5.726  23.408  27.774  0.0721  0.1574 -0.1161
44432W        W87423   4.230  17.053  17.443 -0.1564  0.1729 -0.1791
44433W        W87424  12.225  22.658  18.467 -0.2895 -0.4692  0.1156
44434W        W87425  20.845  24.818  17.870  0.1957  0.0745  0.0798
44435W        W87426  19.545  33.223  15.606  0.1113 -0.2140 -0.2274
44436W        W87427  25.917   2.989   0.756 -0.0184 -0.1467 -0.0284
44437W        W87428  21.825  17.004   0.956 -0.4640  0.4657  0.1354
44438W        W87429  17.908  34.148  15.460  0.1645  0.1824 -0.0198
44439W        W87430  29.014  16.717  24.562  0.1930 -0.0718 -0.2900
44440W        W87431  11.270  25.710   2.780 -0.1206  0.0977  0.1853
44441W        W87432  34.539  32.124  17.091 -0.0385  0.1124 -0.1206
44442W        W87433  16.912   3.186  21.713 -0.1282 -0.0851 -0.1716
44443W        W87434  30.489  20.716   4.707  0.2465 -0.2996  0.2039
44444W        W87435  17.691  34.228  24.914 -0.0511  0.0282  0.3110
44445W        W87436  25.478  29.422   2.787  0.1691  0.1988 -0.1261
44446W        W87437   5.511  29.371  26.479  0.2706 -0.0804 -0.0130
44447W        W87438  32.594  19.684  13.866  0.2964  0.2020  0.0870
44448W        W87439  10.040  26.974  14.913 -0.2006 -0.3724 -0.2253
44449W        W87440  18.077  11.257   9.066  0.2176 -0.1206  0.0579
44450W        W87441  11.796   2.148  28.702 -0.0433  0.2663  0.1360
44451W        W87442  13.670   5.876  28.834  0.0974  0.2032 -0.1559
44452W        W87443  15.492  20.650  20.539  0.0868 -0.1817  0.0943
44453W        W87444  30.125  10.376  19.630  0.0752  0.0597  0.0415
44454W        W87445  14.454  26.896  20.999  0.3981 -0.1598 -0.0976
44455W        W87446  33.756  31.488  20.869 -0.0484 -0.1601  0.0138
44456W        W87447  18.173  28.907  16.690  0.0378  0.0425  0.2799
44457W        W87448   9.664  14.786  26.637  0.1089  0.1833  0.0635
44458W        W87449  13.071  24.419  20.018  0.2054  0.0755  0.1598
44459W        W87450  33.045  25.672  17.518  0.0166  0.2599 -0.3495
44460W        W87451  18.047  15.169  13.677  0.1488  0.0928  0.1350
44461W        W87452   7.869   2.915  25.661  0.0299  0.2664 -0.4115
44462W        W87453  32.216  14.291  10.918 -0.1494 -0.2046 -0.2892
44463W        W87454  20.418   4.209  15.171 -0.0054 -0.1559  0.2761
44464W        W87455   0.403  22.057  15.368 -0.1731 -0.1108  0.0087
44465W        W87456   9.782  13.664  28.007  0.0544 -0.0027  0.2572
44466W        W87457   5.729  17.463  23.881 -0.2224 -0.1800 -0.2584
44467W        W87458  34.653  20.917  22.898 -0.0574  0.1529  0.0625
44468W        W87459   3.622  13.265  15.796  0.1643  0.0324  0.3304
44469W        W87460  33.564  27.935  23.301  0.3196  0.1074 -0.0248
44470W        W87461  10.673  10.746  21.166  0.0034 -0.0480 -0.1988
44471W        W87462   8.368  26.802  15.800 -0.0507  0.1509  0.2826
44472W        W87463  12.191   9.112  22.390  0.0718  0.0908  0.1372
44473W        W87464   1.137   6.389  17.144  0.0185 -0.0866  0.2619
44474W        W87465  32.282  14.158  24.638 -0.1832 -0.1974  0.1487
44475W        W87466  17.034   1.150  21.752 -0.1931 -0.1710 -0.0205
44476W        W87467  27.822  19.101  20.462 -0.2328  0.1464 -0.0744
44477W        W87468  31.585  30.146  15.514  0.0170 -0.0025 -0.0286
44478W        W87469   6.181  33.155  15.989  0.1136  0.1068  0.0923
44479W        W87470  31.972   1.070  14.011 -0.1837 -0.2121  0.1512
44480W        W87471   0.181  30.926   0.035 -0.0536 -0.0484 -0.1099
44481W        W87472   2.361  18.354  16.622 -0.1581  0.0073  0.1017
44482W        W87473   2.691   6.847  18.915 -0.2642 -0.5747  0.0354
44483W        W87474  16.410  16.984   6.521  0.1003  0.3611 -0.1790
44484W        W87475  10.606  30.075  17.558 -0.2770  0.1113 -0.0733
44485W        W87476   6.585  25.255  20.425  0.0527  0.2078  0.0042
44486W        W87477  27.094  19.294  17.331  0.1702 -0.0341 -0.1047
44487W        W87478  25.996  27.484  24.621  0.0920  0.2014  0.3216
44488W        W87479   8.262  28.784  19.738 -0.0112  0.0556  0.3092
44489W        W87480  23.045  26.131  15.730 -0.0865  0.1343 -0.0274
44490W        W87481   7.932  12.425  21.642  0.3344 -0.3327 -0.2220
44491W        W87482  26.958  25.693  20.568  0.0956 -0.2253  0.4190
44492W        W87483   6.724  17.862   2.531  0.0812  0.1488 -0.2236
44493W        W87484   2.512  22.045  28.057  0.0212 -0.1193 -0.1299
44494W        W87485   2.707  19.461  18.425  0.0494 -0.0251  0.1843
44495W        W87486   6.471  18.079  26.747 -0.2330  0.0111  0.0192
44496W        W87487  34.429   7.261  26.320  0.0109 -0.0394  0.0069
44497W        W87488  14.811   7.451  18.868 -0.2603  0.1002 -0.1110
44498W        W87489  17.679  11.786   6.286 -0.1324 -0.1843  0.2212
44499W        W87490  27.725   6.652  16.372  0.3222 -0.3607 -0.1187
44500W        W87491  22.247  19.184  16.261  0.3846  0.0814  0.1261
44501W        W87492  21.225  16.375   1.269 -0.0069 -0.0110  0.1772
44502W        W87493  14.466  32.342  20.643 -0.3536 -0.2557 -0.2624
44503W        W87494   5.526  16.800  15.522 -0.1286 -0.1554  0.4606
44504W        W87495   8.900  11.867  17.132 -0.2154  0.0452  0.1688
44505W        W87496  32.406  16.693  16.186  0.0648 -0.1895 -0.1049
44506W        W87497  32.050  23.853  19.027  0.2425 -0.2543  0.0979
44507W        W87498   9.104   6.415  27.889  0.0590 -0.0756 -0.2556
44508W        W87499  28.574  14.310  17.216 -0.1860  0.2963 -0.2946
44509W        W87500  33.481  22.904   1.208  0.0423  0.0401  0.2238
44510W        W87501  30.805   8.063  15.766  0.0573 -0.0024  0.0421
44511W        W87502  14.832  21.545  20.552 -0.2546 -0.2659 -0.0199
44512W        W87503  30.103  11.168  26.060 -0.0924  0.3566  0.1318
44513W        W87504  20.794  21.067   2.475 -0.0349  0.2616  0.1973
44514W        W87505   0.161  30.750  14.184 -0.3174  0.2050  0.0575
44515W        W87506   2.967  17.886  17.489 -0.1148 -0.2981  0.0999
44516W        W87507   4.126   9.765  18.336 -0.0927  0.0366 -0.2025
44517W        W87508  25.086  14.131  26.097 -0.1976 -0.2622  0.0949
44518W        W87509  31.327  27.711   4.244  0.2541  0.0064 -0.2872
44519W        W87510  13.040  18.015   9.188  0.2798 -0.0315  0.0915
44520W        W87511  12.449  22.259  23.875  0.5271 -0.2357  0.2580
44521W        W87512  15.290  20.570  26.651  0.1089  0.0128 -0.1084
44522W        W87513  29.141  31.167  19.862  0.1611  0.0021  0.0001
44523W        W87514  11.171  14.028   4.890  0.1082  0.1145 -0.0199
44524W        W87515   0.611  22.182  23.864 -0.0790  0.0194 -0.0694
44525W        W87516  18.094  26.290  13.840  0.0185  0.1741  0.1977
44526W        W87517  10.384  15.739  15.087  0.2041  0.5188  0.1132
44527W        W87518   9.690  14.212  26.575  0.1876 -0.1368 -0.1001
44528W        W87519   8.300  27.469  25.200 -0.0361 -0.1192 -0.0588
44529W        W87520   8.802  20.743  25.936 -0.0833  0.2355  0.4649
44530W        W87521  16.282  11.869  19.288  0.0171 -0.0393 -0.0947
44531W        W87522  10.484  23.866   3.540  0.2244 -0.0869 -0.2940
44532W        W87523  12.073  23.819  20.730  0.1817  0.1461 -0.1164
44533W        W87524   3.403  20.062  23.581 -0.0557 -0.0429 -0.0917
44534W        W87525   0.862   0.153  17.024 -0.2719 -0.1847  0.1200
44535W        W87526   3.202  31.110  19.368  0.0174 -0.1661  0.0257
44536W        W87527   1.325  26.772  18.899 -0.2317 -0.0153 -0.2927
44537W        W87528  17.070  24.292  16.604 -0.0591 -0.3043  0.0477
44538W        W87529  14.819  21.439  21.054  0.0245 -0.0011  0.1971
44539W        W87530  17.727   4.204  18.173 -0.1075 -0.1809  0.1575
44540W        W87531  32.628  11.542  29.096  0.1848 -0.2238 -0.0987
44541W        W87532   7.104  14.877   0.077 -0.1085 -0.1417  0.0992
44542W        W87533   7.485  25.360  15.312  0.0380 -0.1483 -0.0753
44543W        W87534   7.214  20.828  16.960  0.3116 -0.1024  0.1721
44544W        W87535  31.566  24.650  19.995 -0.4040  0.2770 -0.0289
44545W        W87536  21.443  11.836  16.441  0.1062 -0.0608 -0.0874
44546W        W87537  23.076  29.390   2.768 -0.0901 -0.1017 -0.1756
44547W        W87538  18.838   2.090   5.813  0.1719  0.1915 -0.0711
44548W        W87539   0.977   0.953   3.097  0.0702 -0.0620 -0.0624
44549W        W87540   1.121  29.261   0.981 -0.0351  0.1138  0.2474
44550W        W87541  32.554   0.230  14.772 -0.5735  0.1543 -0.1128
44551W        W87542   1.342   5.582   2.299 -0.0475 -0.2860  0.0320
44552W        W87543  14.459   6.640  16.054 -0.2557 -0.0466 -0.0544
44553W        W87544  16.288  26.572  15.936  0.0214 -0.1512 -0.0133
44554W        W87545   3.796  27.290  24.685 -0.2611 -0.2452  0.2053
44555W        W87546  30.770  12.651  16.117 -0.1431 -0.0954  0.0954
44556W        W87547  34.729  22.724   0.416  0.1557 -0.4629  0.1557
44557W        W87548   7.381  23.483  18.105  0.2303 -0.1469 -0.0546
44558W        W87549   4.075   5.102  21.414 -0.2201 -0.0824 -0.0385
44559W        W87550  16.251  28.939  25.185  0.1030  0.0244 -0.0577
44560W        W87551  32.522  30.364  23.547  0.1511  0.0550  0.4358
44561W        W87552  29.140  29.947  19.484 -0.2372  0.0303  0.2497
44562W        W87553  14.296   7.005  17.429 -0.1638 -0.2395 -0.1441
44563W        W87554   6.968  20.640  25.161  0.0789 -0.1551  0.0984
44564W        W87555  32.724  22.701  19.114  0.4692  0.4453  0.5140
44565W        W87556  15.161  24.747  29.182 -0.4052  0.0342  0.0764
44566W        W87557  23.981   4.835  16.456  0.1975 -0.0474  0.1259
44567W        W87558   8.720  25.210  25.767 -0.1611 -0.1694  0.0370
44568W        W87559  32.221   5.902  15.815 -0.1545  0.2298  0.0611
44569W        W87560  28.950  32.871  18.539 -0.0991  0.3170  0.0907
44570W        W87561  31.520  12.784  23.462  0.0220  0.4643 -0.0280
44571W        W87562  11.001   2.191   6.660  0.3729 -0.0758 -0.1811
44572W        W87563  13.820  18.689   8.250 -0.0795  0.3615  0.0974
44573W        W87564  25.774   6.581  17.348 -0.0693  0.1221  0.1550
44574W        W87565   2.379  22.152  15.129  0.1013 -0.0993 -0.4391
44575W        W87566   7.106  21.315  20.834 -0.1000  0.1337  0.2245
44576W        W87567   6.932  17.458   2.577  0.1421  0.0702  0.2011
44577W        W87568  32.291  19.355  16.669  0.2101 -0.0758 -0.1615
44578W        W87569  24.946  14.459  22.493  0.0841  0.1801 -0.3191
44579W        W87570   8.526  28.214  21.514 -0.1195  0.0196 -0.1580
44580W        W87571  11.350  23.157   8.139  0.0955 -0.2055 -0.0047
44581W        W87572  18.292  11.150  17.968  0.0016  0.1107 -0.0019
44582W        W87573  26.322  16.075  18.989 -0.2705 -0.2280 -0.0801
44583W        W87574  30.961  21.522  17.163  0.2410 -0.2036  0.0243
44584W        W87575   5.252   7.075  29.072 -0.0447  0.3321 -0.0210
44585W        W87576   2.954  12.157  16.222 -0.1631  0.0855  0.0858
44586W        W87577  27.739  29.516  14.479 -0.0201 -0.0601  0.1763
44587W        W87578  15.147  22.474  22.356  0.1027 -0.2383 -0.3124
44588W        W87579  18.804  14.932   5.263 -0.1344 -0.0310  0.0520
44589W        W87580  34.043   4.705  16.390 -0.0306 -0.1573  0.3117
44590W        W87581  26.926   6.651  19.280 -0.4193 -0.1001 -0.1471
44591W        W87582   4.461   4.655   6.467  0.0716 -0.2108 -0.3867
44592W        W87583   9.396  29.094  20.976 -0.0382 -0.1779 -0.5474
44593W        W87584   4.005  22.055  20.828  0.1338  0.0473 -0.3996
44594W        W87585  30.943   7.959  19.637 -0.1060  0.0385  0.1671
44595W        W87586   5.957  33.736  27.889  0.0250 -0.0625 -0.2842
44596W        W87587   8.177  27.536  14.983 -0.0622 -0.5663  0.0060
44597W        W87588  13.387  28.186  17.795 -0.2171  0.0921 -0.4082
44598W        W87589   6.494  20.349  19.602  0.0460  0.0661 -0.5086
44599W        W87590  20.458  22.261  21.989  0.0891 -0.2488 -0.1759
44600W        W87591  34.087  20.013   5.899 -0.0729  0.0929  0.0312
44601W        W87592   5.803  16.061  26.985  0.0142 -0.0135 -0.1574
44602W        W87593  14.517  17.651  25.466  0.0290  0.0715  0.1874
44603W        W87594   8.563   1.046  20.775 -0.3842  0.4820 -0.0486
44604W        W87595  30.218  10.729  16.265 -0.3527 -0.2933 -0.4888
44605W        W87596   6.474  10.916  20.454  0.1392 -0.0943  0.0624
44606W        W87597  24.919  23.681  24.083  0.0610 -0.3485 -0.3132
44607W        W87598   7.226  23.368  29.018  0.1102  0.1026 -0.0016
44608W        W87599  27.777  17.688  23.136  0.1056 -0.0379 -0.0933
44609W        W87600   3.626  31.721  24.617  0.1960  0.1699 -0.2458
44610W        W87601  21.840  24.156  26.734  0.0425  0.3667 -0.0002
44611W        W87602  31.500  19.444   2.339 -0.0008 -0.1646  0.1625
44612W        W87603   3.363  28.897  17.397 -0.2130 -0.1388 -0.2335
44613W        W87604  11.675  15.652  21.055 -0.0893  0.0403 -0.1003
44614W        W87605   2.700  10.116  20.663 -0.0372  0.2800  0.1773
44615W        W87606   6.031  28.490  20.791 -0.1659 -0.0747  0.0362
44616W        W87607   0.089  28.705  27.963 -0.2742  0.3343 -0.0445
44617W        W87608   6.718  15.258  15.945  0.0943  0.1180  0.1607
44618W        W87609  30.297   5.865  21.360 -0.1632  0.3413 -0.0072
44619W        W87610   0.293  16.994   6.433  0.0852  0.1095  0.0247
44620W        W87611   3.086  31.634  13.616 -0.1014 -0.1742 -0.1657
44621W        W87612  10.191  15.857  17.442 -0.2352  0.2468 -0.0574
44622W        W87613  34.464   3.646  25.120  0.3048  0.1096 -0.0002
44623W        W87614   0.695   9.915  22.925 -0.0326 -0.2213  0.0911
44624W        W87615   8.727  34.364  15.984 -0.4966 -0.2504 -0.1943
44625W        W87616  12.277   5.791  17.399 -0.0290 -0.0988  0.0107
44626W        W87617   2.435  32.850  19.828 -0.2085 -0.2570 -0.4166
44627W        W87618  10.655  15.863  20.081  0.1982 -0.0347  0.0553
44628W        W87619   8.037  26.541  18.044  0.0684  0.3119  0.1685
44629W        W87620  30.410   6.862  21.852 -0.1932  0.0459 -0.0184
44630W        W87621  16.068   8.467  17.416  0.3968  0.0451 -0.1993
44631W        W87622   7.619  20.528  17.057  0.0136  0.3641  0.0457
44632W        W87623  10.148  14.715  22.638 -0.0890 -0.3807  0.0222
44633W        W87624  17.590  26.197  24.066  0.2752 -0.2027  0.0532
44634W        W87625  15.681  31.938  16.519 -0.0490 -0.0992  0.2446
44635W        W87626   2.602  10.243  22.210  0.1221  0.5747  0.1091
44636W        W87627   7.447  13.302  23.431 -0.2816 -0.0066 -0.0275
44637W        W87628   1.071  16.854  20.263  0.1844 -0.0794  0.0748
44638W        W87629   2.051  18.904  19.622  0.2569  0.1223 -0.0233
44639W        W87630  10.088  10.386  21.977 -0.3882 -0.3332  0.1241
44640W        W87631   9.281  19.735  16.952 -0.0393 -0.1592 -0.0829
44641W        W87632   6.054  22.256  23.172 -0.0215  0.0583  0.0393
44642W        W87633  15.115  27.663  22.535 -0.0340 -0.0942  0.0101
44643W        W87634  17.074  19.810  25.946 -0.0052  0.3091  0.0353
44644W        W87635  20.073  25.919  17.229 -0.3130  0.1267 -0.2940
44645W        W87636  34.098  30.885  26.912  0.1427  0.0030 -0.1368
44646W        W87637  12.941  14.886  19.654 -0.0328 -0.2817 -0.1223
44647W        W87638   5.727   4.374  10.654  0.2549 -0.2325 -0.1218
44648W        W87639  16.074  23.394  28.319 -0.0227 -0.0927  0.2725
44649W        W87640   2.132  19.991  23.440  0.2067 -0.1971  0.0426
44650W        W87641   0.673   8.120  19.588  0.2525 -0.1474  0.0925
44651W        W87642  17.738  10.333  16.272  0.1228 -0.1467  0.1897
44652W        W87643  29.054  29.171  22.176  0.1003  0.0797 -0.3078
44653W        W87644  10.681  21.752   0.222  0.0112 -0.2379  0.2984
44654W        W87645   1.181  20.239  14.909  0.1120  0.0340 -0.1935
44655W        W87646   9.254  12.944  27.321 -0.2872 -0.1797 -0.1232
44656W        W87647   7.994  33.707  23.332  0.2088  0.3330  0.1326
44657W        W87648   9.374  20.524  19.528 -0.5071  0.2270 -0.2710
44658W        W87649  10.590   3.539  26.457 -0.0321  0.3372 -0.1111
44659W        W87650  33.723  23.967   4.465  0.0268  0.1261 -0.0152
44660W        W87651   9.230  29.148  18.611 -0.0496 -0.1617 -0.3109
44661W        W87652   3.430   0.589  16.414  0.0708  0.3266 -0.0500
44662W        W87653  12.541  19.537   0.829  0.0916 -0.2920  0.2109
44663W        W87654  30.868  14.801  17.821  0.2206 -0.0134  0.0881
44664W        W87655  31.135  27.852  13.641  0.2463 -0.0213  0.0042
44665W        W87656  10.812  20.476  19.330  0.1654 -0.2253  0.3727
44666W        W87657   4.383   8.384  25.016 -0.0366 -0.1444  0.0198
44667W        W87658   5.732   9.403  19.123 -0.0906  0.1029  0.2336
44668W        W87659   9.736  17.329  25.717  0.2662 -0.1727 -0.1046
44669W        W87660  15.703  24.008  17.057  0.2956 -0.2261 -0.0320
44670W        W87661  12.914   6.604  17.831  0.4735  0.1495 -0.1993
44671W        W87662  13.066  25.126  16.921 -0.0457 -0.1403  0.0980
44672W        W87663  32.262  10.787  23.530  0.0975 -0.0839  0.1919
44673W        W87664  33.066  23.069   0.371 -0.1730  0.1598 -0.0449
44674W        W87665  24.589  16.969  22.083  0.2663  0.0648  0.0969
44675W        W87666   2.545  20.587  28.372 -0.4109  0.0875  0.1351
44676W        W87667  23.204  19.442  17.882  0.1086 -0.1230  0.2570
44677W        W87668  27.892  22.386  17.846 -0.2276 -0.3776 -0.2804
44678W        W87669  13.964  26.113   0.407 -0.1356  0.1383 -0.2463
44679W        W87670   6.106  29.743  17.598 -0.2778  0.4144  0.1197
44680W        W87671  14.531  21.387  18.022 -0.0172 -0.0427  0.1574
44681W        W87672  11.568  22.253  17.278 -0.1489  0.1580  0.3272
44682W        W87673  13.664  19.374  17.784 -0.1570 -0.0388 -0.0277
44683W        W87674   0.760  21.460  28.626  0.0358  0.0601  0.2819
44684W        W87675   7.094   5.038  28.668  0.0403 -0.0326 -0.1339
44685W        W87676  14.670  23.776  22.182 -0.1004  0.0620  0.1428
44686W        W87677  31.003  14.335   7.247  0.0388  0.2324 -0.0076
44687W        W87678   9.628   2.452  19.588  0.0117  0.3520  0.0516
44688W        W87679  15.279  24.518  20.569 -0.2083 -0.2905  0.1924
44689W        W87680   6.102  22.137  17.938 -0.0437  0.1338  0.0195
44690W        W87681  12.680  27.234   1.889 -0.0277  0.0116  0.0082
44691W        W87682   6.782  16.450  27.951  0.0369  0.0171  0.0962
44692W        W87683   0.528  25.103  20.944 -0.0386 -0.1620 -0.0502
44693W        W87684  11.796  23.169  27.252 -0.1032  0.0657 -0.1009
44694W        W87685  15.033  28.172   3.737 -0.0760  0.0114  0.1827
44695W        W87686  21.804  20.409   7.958 -0.0585 -0.2037  0.0610
44696W        W87687  33.576  14.743  21.946 -0.2382  0.0996 -0.0129
44697W        W87688   1.061  26.190  27.710 -0.1870  0.0695  0.1120
44698W        W87689  25.815  18.017  16.380 -0.1530 -0.0643  0.0833
44699W        W87690  15.793  17.428  15.139  0.1209  0.2996  0.0649
44700W        W87691  22.413  31.809  16.069 -0.1079 -0.0701 -0.0036
44701W        W87692   8.405  17.413   7.687 -0.0911  0.0100  0.1518
44702W        W87693  11.398  24.483  22.342  0.2324 -0.0831  0.0989
44703W        W87694  23.355  15.796  15.485  0.2649 -0.2358  0.0813
44704W        W87695   2.036  23.785  21.808 -0.1585  0.0326 -0.0451
44705W        W87696  16.076  19.716  25.042  0.0449 -0.1101  0.2074
44706W        W87697  14.180  21.730  14.171  0.0739 -0.0225 -0.2128
44707W        W87698  27.633  17.424  15.372  0.0633  0.2139 -0.2425
44708W        W87699   7.055  14.368   2.028  0.0463  0.0549 -0.0348
44709W        W87700  21.397  24.506  17.976  0.3689 -0.0661 -0.4230
44710W        W87701  33.347  21.862  18.093 -0.5637 -0.1355  0.4263
44711W        W87702  29.881   1.913  20.258 -0.0797 -0.1616  0.0455
44712W        W87703  28.725  11.221   3.139  0.0408  0.0519 -0.1130
44713W        W87704  18.408  22.979  18.020  0.0821 -0.2220 -0.1579
44714W        W87705   4.449  11.947  26.258  0.0167  0.0814 -0.0549
44715W        W87706   0.512   7.064  26.420  0.1758  0.0838  0.0656
44716W        W87707   0.281  24.749  13.601  0.1796 -0.1116 -0.2645
44717W        W87708  13.680  21.618   4.398  0.0501  0.1515 -0.2193
44718W        W87709   6.631  18.168  22.445  0.0553  0.1272 -0.0950
44719W        W87710   3.562  20.623   4.344  0.0370  0.0836 -0.0452
44720W        W87711  32.848  29.269   7.962 -0.1340  0.0975  0.0560
44721W        W87712  31.075   9.639  28.728 -0.0579 -0.2154 -0.0935
44722W        W87713   9.467  23.258  18.902  0.0954 -0.1074  0.1843
44723W        W87714  32.038  32.788  26.038 -0.1672  0.0179  0.0769
44724W        W87715   5.413  15.997  23.206 -0.1431  0.0826 -0.0787
44725W        W87716   4.627  14.922  17.602 -0.1037 -0.1298  0.0972
44726W        W87717   1.435  23.091  24.229 -0.0870 -0.3434 -0.3843
44727W        W87718  22.242   5.981  14.358 -0.2010 -0.1223  0.2667
44728W        W87719  11.477  23.347  22.146 -0.0810  0.4061  0.1182
44729W        W87720   6.656  23.169  25.149 -0.0475 -0.0008 -0.1226
44730W        W87721  15.542  12.593  16.306 -0.0735  0.0197 -0.2377
44731W        W87722  34.129  29.993  18.523  0.1291 -0.2362  0.0090
44732W        W87723  15.645   4.669  18.807 -0.1072  0.0249 -0.0646
44733W        W87724  29.326  27.231  16.050 -0.1739  0.0222  0.0247
44734W        W87725  26.291   6.437   1.044  0.3249 -0.1350  0.1124
44735W        W87726  33.222  29.643  22.684 -0.1453  0.0701 -0.1072
44736W        W87727  31.909   3.735  18.181 -0.0801 -0.0457 -0.0038
44737W        W87728   9.652  20.008   1.703  0.1045 -0.0440  0.1352
44738W        W87729  21.161  20.509  18.929 -0.1101  0.0947  0.0186
44739W        W87730  34.075   7.798  18.359 -0.2238  0.0087 -0.1564
44740W        W87731   4.819  18.583  18.646  0.0194  0.1386  0.1641
44741W        W87732  29.300  26.025  12.679 -0.1951  0.3347 -0.0174
44742W        W87733   7.037  24.239   1.359  0.0191 -0.3080  0.1016
44743W        W87734   3.076  20.914  24.910  0.0509  0.1895 -0.3529
44744W        W87735   6.649  30.423  21.216 -0.0665 -0.1184 -0.1403
44745W        W87736   6.146  33.934   6.751 -0.2396 -0.0010 -0.2082
44746W        W87737  31.563   9.575  15.133  0.1768 -0.0059  0.0694
44747W        W87738  12.490  21.248  17.378 -0.3170  0.1598 -0.4344
44748W        W87739   0.940   1.896   6.777  0.2673  0.2228 -0.1351
44749W        W87740  17.544   9.415  27.813  0.0104  0.0986 -0.0590
44750W        W87741   4.826  21.995   4.422  0.0229 -0.1410 -0.1032
44751W        W87742  34.576  31.697  17.910 -0.1181  0.0087 -0.1336
44752W        W87743  33.835  20.409  26.716 -0.0098 -0.0050  0.0735
44753W        W87744  10.026  33.527   4.301  0.1787  0.0108 -0.2580
44754W        W87745  20.769  26.650  18.066  0.1658  0.0112 -0.0962
44755W        W87746  12.648  24.765  14.630 -0.1513  0.0695  0.2767
44756W        W87747  21.229  18.881  15.315 -0.2256 -0.3096  0.0335
44757W        W87748   2.109   7.653   0.275  0.1044  0.1887 -0.1451
44758W        W87749   4.953   7.670  20.852 -0.3497 -0.0463 -0.2338
44759W        W87750  31.801  17.658   2.327  0.0693  0.0367 -0.2013
44760W        W87751   3.891  19.266   4.376 -0.0158  0.2435 -0.0050
44761W        W87752  16.157  30.753   0.769 -0.0143 -0.2370 -0.2105
44762W        W87753  13.208  17.278  23.861  0.0058 -0.0976 -0.1592
44763W        W87754  21.748   4.717  24.510  0.1163  0.2106  0.0260
44764W        W87755  15.862  31.856  14.328  0.0298  0.1464  0.0643
44765W        W87756   2.540  23.475  23.586  0.2748 -0.1975  0.0860
44766W        W87757  11.938  14.185  15.016  0.1227  0.0704 -0.1193
44767W        W87758  19.378  31.868  14.129 -0.2907 -0.1985 -0.0248
44768W        W87759   9.435  30.642  27.011  0.0837  0.0069 -0.2083
44769W        W87760  10.060  16.757  16.226  0.0747  0.1191 -0.0892
44770W        W87761   0.407   2.758   1.938 -0.0515 -0.1764  0.0106
44771W        W87762  34.523   6.922  25.291  0.1645  0.3759  0.0219
44772W        W87763   6.644  26.230  18.407  0.1584 -0.0170  0.0392
44773W        W87764  26.969  10.304  20.295 -0.2046 -0.2205  0.0397
44774W        W87765   4.150  30.109  17.866 -0.1666  0.0112  0.2181
44775W        W87766  27.089   7.234  14.644 -0.2310 -0.0857 -0.0006
44776W        W87767  22.646   1.515  27.183 -0.4724  0.3382 -0.1127
44777W        W87768  29.269  21.359  22.579 -0.1126 -0.3054  0.2101
44778W        W87769  20.962  26.298  16.308 -0.1673 -0.0688  0.0418
44779W        W87770   1.701  19.412  16.538 -0.2428  0.1787  0.0519
44780W        W87771  12.317  21.509  26.746  0.0860  0.5129  0.1545
44781W        W87772   5.938  17.704  18.293  0.0863  0.4579  0.1034
44782W        W87773   8.651  13.355   0.107  0.3249  0.1371  0.0918
44783W        W87774  31.480   8.865  26.870  0.0439  0.5861  0.0982
44784W        W87775   7.400  14.412  17.499  0.0160 -0.1106 -0.1956
44785W        W87776  14.064  29.202  25.025 -0.1726 -0.2797  0.0745
44786W        W87777   5.124  18.644  22.597  0.1969  0.3047  0.2035
44787W        W87778   7.900  10.543  16.850  0.0741  0.0268 -0.2312
44788W        W87779  26.330  20.907  15.201  0.1911 -0.0555 -0.2217
44789W        W87780  18.216  17.103  25.572  0.1267 -0.0359 -0.2219
44790W        W87781  14.989  30.474  16.421 -0.0495  0.0665 -0.4120
44791W        W87782   5.518  15.974  18.014 -0.2656  0.2504  0.1622
44792W        W87783   5.837  18.343  22.928 -0.0115 -0.3368 -0.0625
44793W        W87784  34.280  23.328  18.687  0.0503  0.1658  0.0092
44794W        W87785  12.352   7.571  21.928 -0.0250 -0.1942  0.0941
44795W        W87786  10.128  21.362  28.042  0.2101 -0.3762  0.3888
44796W        W87787  25.885  17.927  25.239 -0.2491  0.2696  0.1757
44797W        W87788   9.917   8.458   2.532  0.0164 -0.2383  0.1397
44798W        W87789   4.120  26.046  16.554  0.1769  0.1381  0.0776
44799W        W87790  15.021  26.337  16.316 -0.2703  0.2674  0.3622
44800W        W87791   2.151  24.187  19.849 -0.0346 -0.1796 -0.3015
44801W        W87792   4.355  16.641  19.339  0.1351 -0.0444  0.1565
44802W        W87793   0.450  16.649  23.257  0.2031 -0.0298  0.0127
44803W        W87794   8.322   0.723  18.900 -0.2670  0.1787 -0.2465
44804W        W87795   9.142   3.345  17.311  0.1480  0.0757 -0.1297
44805W        W87796  19.168  30.362  20.410  0.0690  0.0185 -0.1329
44806W        W87797  26.828   4.923  19.857  0.0296 -0.1504  0.3146
44807W        W87798   0.592  13.614   3.183 -0.0929  0.0145  0.1315
44808W        W87799  16.987  18.494  25.353 -0.0080 -0.1212  0.0481
44809W        W87800  28.287  16.063  27.352 -0.0841 -0.0870  0.1718
44810W        W87801  11.321  31.185  18.350  0.1296 -0.2646  0.0664
44811W        W87802  24.392  28.860  25.340  0.0453  0.1823  0.0824
44812W        W87803  19.762   0.088  27.230  0.0738  0.1232  0.0207
44813W        W87804  33.799  16.853  25.887  0.1174 -0.1052  0.1331
44814W        W87805  16.063  20.140   0.684  0.0539 -0.1254  0.0545
44815W        W87806   8.473  17.639  20.632 -0.0076 -0.2856  0.1775
44816W        W87807   6.760  20.023  22.045  0.4033 -0.0366 -0.3565
44817W        W87808   9.910   1.008  19.698 -0.0382 -0.0265 -0.0940
44818W        W87809  10.364  28.948  20.397  0.4806  0.0164  0.1483
44819W        W87810  30.168   2.907  17.391  0.0280 -0.4015 -0.1981
44820W        W87811  18.970  25.067  23.795 -0.2814  0.0440 -0.0756
44821W        W87812   6.157  13.290  24.740 -0.0243 -0.1122 -0.2141
44822W        W87813  12.445   7.429  24.296  0.0729  0.2630 -0.0946
44823W        W87814  16.675   9.856  18.079 -0.1523  0.2681 -0.0914
44824W        W87815   6.814  23.788  14.254 -0.1987 -0.1647 -0.1038
44825W        W87816  28.213  13.390  21.632  0.1218  0.1420  0.4056
44826W        W87817   1.387  19.342  22.553 -0.0991  0.4428  0.0066
44827W        W87818  32.126  27.408  22.595  0.1082  0.3927  0.3090
44828W        W87819  15.348  30.463  14.984  0.0940  0.0054  0.1367
44829W        W87820  32.498  22.224   1.057  0.0126 -0.2211 -0.3134
44830W        W87821  33.282   5.041  15.928  0.1673  0.0469  0.0713
44831W        W87822  12.699   5.038  23.561  0.0803  0.1211  0.0509
44832W        W87823  32.242  19.703  21.876  0.1946 -0.2176 -0.0543
44833W        W87824   3.334   8.379  26.522  0.2025  0.0161 -0.2108
44834W        W87825  19.134  26.082  14.034 -0.0737 -0.0759 -0.0271
44835W        W87826  22.486  29.205  13.944 -0.3025 -0.0371  0.2486
44836W        W87827   9.613  28.948   6.810  0.3546 -0.1285  0.2554
44837W        W87828   9.717   8.393   1.608 -0.2935  0.1762 -0.0118
44838W        W87829  10.462  24.375  26.333 -0.3983  0.3295  0.0280
44839W        W87830  13.817  22.793  13.941  0.2278 -0.1417  0.1210
44840W        W87831  17.928   1.204   9.304  0.4347 -0.1910 -0.1705
44841W        W87832   0.297  13.045  26.555 -0.1655 -0.5914 -0.1609
44842W        W87833  10.433  14.890  22.188 -0.1182 -0.0096  0.1122
44843W        W87834   6.507   3.807  17.896  0.0941  0.1048 -0.1625
44844W        W87835  30.185  32.828  15.785 -0.3969  0.0881  0.1416
44845W        W87836  10.757  21.526  17.068  0.0522  0.0934  0.3986
44846W        W87837  13.858  19.121  24.930  0.3388 -0.0276 -0.2293
44847W        W87838  29.095  13.254  26.701  0.1338 -0.0515 -0.2235
44848W        W87839   0.163   2.022  26.368  0.1041  0.3415 -0.0598
44849W        W87840   2.113  20.975  25.669  0.0585  0.2282 -0.1075
44850W        W87841   7.154  11.372  17.624  0.1260 -0.1355  0.0150
44851W        W87842   5.561  28.675  18.794 -0.0224  0.3194  0.1100
44852W        W87843   8.214  28.407  23.612 -0.2756 -0.1005  0.0327
44853W        W87844  27.764   3.053  17.805  0.1355 -0.1194  0.1164
44854W        W87845   0.229  17.032   0.288  0.1128 -0.1647 -0.1483
44855W        W87846   3.240  10.757  20.472 -0.0289 -0.1088 -0.0593
44856W        W87847  11.810  23.336  22.623  0.2487 -0.1628 -0.5227
44857W        W87848  31.089  19.347  19.358  0.1938 -0.0590  0.1522
44858W        W87849  16.740  16.397  15.652  0.0103  0.1550 -0.2190
44859W        W87850   7.553  24.863   2.334  0.0993 -0.0220  0.1107
44860W        W87851  10.906  16.945  14.664  0.2279  0.3369 -0.0195
44861W        W87852   4.431  14.329  10.982 -0.2118  0.0751 -0.3078
44862W        W87853  26.235   3.151   4.881  0.2322  0.0768  0.3283
44863W        W87854  31.306   0.521  25.900  0.1212 -0.0366 -0.1784
44864W        W87855  34.260   6.146  15.020 -0.2117 -0.0356 -0.1144
44865W        W87856   2.058  27.876  18.565 -0.1496  0.0803 -0.0601
44866W        W87857   3.575  18.996  20.281  0.0518  0.1283  0.1154
44867W        W87858  14.316   9.821  25.465  0.2754 -0.0794 -0.0109
44868W        W87859  12.815  22.605   7.642  0.0087  0.1362 -0.2386
44869W        W87860   8.703  34.764  24.433  0.0317  0.0205  0.2177
44870W        W87861   8.240  17.800  19.341  0.2403  0.2419  0.1546
44871W        W87862  24.226  29.266   9.202 -0.0438  0.0683  0.0808
44872W        W87863  30.057  20.546  24.888  0.1561 -0.1143 -0.0961
44873W        W87864  34.062   8.165  19.109 -0.0708 -0.0011  0.2505
44874W        W87865  34.770  32.909  21.211 -0.1799 -0.0961  0.3759
44875W        W87866  10.809  11.935  25.054  0.0372  0.0939 -0.2000
44876W        W87867  21.933   9.754  25.610  0.1261 -0.0983  0.2016
44877W        W87868  13.723  11.274  24.264 -0.1158  0.3616  0.4562
44878W        W87869   8.367  10.775  28.125  0.1265 -0.1366  0.2220
44879W        W87870   7.101  13.553  17.825 -0.2004  0.0505  0.1541
44880W        W87871  11.814   0.218   2.222 -0.1387  0.3393 -0.0350
44881W        W87872   2.753  18.784  27.678  0.2089  0.2577  0.1523
44882W        W87873  13.830   8.491  29.056 -0.0286 -0.1636  0.0941
44883W        W87874  16.852  29.888  19.129 -0.0436  0.2339 -0.0428
44884W        W87875  10.388  30.067  21.108 -0.1625 -0.1113 -0.2234
44885W        W87876   3.287  21.566   4.251 -0.2624  0.1349  0.1200
44886W        W87877  14.969   1.720   1.368  0.1767  0.2549  0.2787
44887W        W87878  14.157  34.357  26.266  0.1055  0.1038 -0.0990
44888W        W87879  24.880  21.567  26.395 -0.2648 -0.0635 -0.1747
44889W        W87880  10.873  17.731  20.476  0.1543  0.0096  0.0173
44890W        W87881   5.992  13.169  27.315  0.1007 -0.0255  0.1432
44891W        W87882  10.464   8.298  18.104  0.0645  0.1253 -0.0772
44892W        W87883  17.861   9.637  28.727  0.0463  0.2038  0.1009
44893W        W87884  12.502  21.047   1.216  0.3157 -0.1287 -0.2029
44894W        W87885  34.029  18.087  19.481 -0.1857  0.2227  0.2637
44895W        W87886  23.130  30.085  16.844 -0.0171 -0.1631 -0.1648
44896W        W87887  15.173  22.788  16.267 -0.0106 -0.0173 -0.1725
44897W        W87888  18.036  21.852  18.877 -0.1536  0.1212  0.0860
44898W        W87889  13.222  19.775   6.155 -0.2079 -0.1263  0.0603
44899W        W87890  13.786  17.211  27.367 -0.0478  0.2948  0.0522
44900W        W87891  25.265  32.810  25.808 -0.1668  0.1301  0.0391
44901W        W87892  32.034  25.036  24.663 -0.0135 -0.2288 -0.0618
44902W        W87893  16.162  18.652  25.136  0.1044  0.1646 -0.2567
44903W        W87894   3.875  18.727  27.355 -0.1269 -0.0479  0.1778
44904W        W87895  19.090  22.691   3.023  0.3339  0.1705  0.0934
44905W        W87896  32.379  13.427   2.558 -0.1004 -0.1771  0.2709
44906W        W87897  34.769  20.929  20.178 -0.2038  0.0809  0.0060
44907W        W87898  17.010  19.178   3.997  0.0874  0.0335 -0.0643
44908W        W87899  26.318  19.010   3.371  0.3959 -0.2782 -0.2252
44909W        W87900   7.353   1.513   2.056 -0.1794  0.1001  0.0041
44910W        W87901  22.204  19.343   3.869 -0.0588 -0.1786  0.0871
44911W        W87902   4.114  20.180  27.389  0.2712 -0.1142  0.0301
44912W        W87903  15.296  20.980  18.324  0.1447 -0.2527  0.1248
44913W        W87904  26.762  21.978   0.713  0.1871 -0.2165  0.1258
44914W        W87905  29.964  30.453  16.264  0.0456  0.1149 -0.1978
44915W        W87906  10.367  20.898  16.366 -0.1071  0.0683 -0.0598
44916W        W87907  33.203   8.818   0.964 -0.0217  0.1167  0.1079
44917W        W87908  26.266  26.997  24.500  0.1067 -0.2439 -0.1321
44918W        W87909  20.931  15.333  20.751  0.1814  0.0597 -0.0658
44919W        W87910   6.360  11.156  21.385 -0.1653  0.1057 -0.0400
44920W        W87911   8.145  15.146   7.219 -0.0217 -0.0814 -0.0811
44921W        W87912  30.473  13.144  23.704 -0.2919  0.1523  0.1423
44922W        W87913  27.906  24.842  27.339 -0.0749  0.0854  0.0392
44923W        W87914  14.642  12.628   6.244 -0.3445  0.0421  0.3227
44924W        W87915   5.303  20.719  22.790  0.1184  0.0463 -0.0494
44925W        W87916   2.179  22.945  20.569  0.2134  0.3684  0.0634
44926W        W87917   1.764  17.111   5.327  0.0486  0.0993  0.0075
44927W        W87918  28.258   7.445  18.245 -0.1928  0.1804 -0.0310
44928W        W87919  17.325  27.311  15.610 -0.3300  0.0662 -0.0872
44929W        W87920   5.258  18.399  18.768  0.0438  0.3116  0.0387
44930W        W87921  13.769  28.454   8.137  0.1232 -0.0014  0.2202
44931W        W87922  12.055  10.205  29.231 -0.3022 -0.0307  0.1094
44932W        W87923  30.340  24.168  19.708  0.2692  0.1168 -0.0020
44933W        W87924   5.761  18.414  16.034  0.0984  0.0734  0.1635
44934W        W87925  13.133  29.278   6.186  0.0606  0.2197 -0.3160
44935W        W87926   9.584   9.308  27.859 -0.3840 -0.0183 -0.1077
44936W        W87927   8.012  15.215  22.370 -0.1017  0.1568 -0.1626
44937W        W87928  13.585  23.920   9.551 -0.0833  0.2775 -0.2567
44938W        W87929  33.073  32.195  25.076 -0.1156  0.5318 -0.0524
44939W        W87930  30.399  34.777   3.824 -0.0124  0.0966 -0.1943
44940W        W87931   6.451  24.257  20.420  0.0267  0.0128 -0.1262
44941W        W87932  13.262  24.481  21.100  0.1507  0.0168 -0.1117
44942W        W87933  26.996  23.460  16.272  0.3422  0.1158 -0.0269
44943W        W87934  34.317  18.795  20.543  0.0202  0.0279  0.2464
44944W        W87935  16.238  14.927  12.588  0.3948 -0.2067 -0.0504
44945W        W87936   8.134  25.479   4.199 -0.0210  0.4255  0.1677
44946W        W87937   5.338   9.368  17.914 -0.2390 -0.0041  0.3700
44947W        W87938   5.279  23.481   1.128  0.0611  0.1832 -0.1399
44948W        W87939  12.623  32.861  24.672 -0.0457  0.3720  0.3318
44949W        W87940   0.380  25.735   7.608  0.3100 -0.2057  0.0441
44950W        W87941   6.162  28.162   1.105  0.1651  0.0125  0.2509
44951W        W87942  34.722  32.186  21.780 -0.0142  0.1767 -0.1012
44952W        W87943   7.913  24.940   1.918  0.2569 -0.1370  0.3527
44953W        W87944  24.614   6.604  23.635 -0.1075 -0.1020 -0.4875
44954W        W87945   1.895  19.105  17.473  0.2150  0.2246  0.1528
44955W        W87946  34.385  25.707  22.063 -0.0780  0.1019  0.1214
44956W        W87947  20.180  25.816  21.209 -0.4507  0.2545  0.1669
44957W        W87948  22.233  14.078   7.953 -0.0233  0.2492  0.2981
44958W        W87949   9.579  28.918  28.088  0.0210  0.0215  0.1011
44959W        W87950  12.710   2.160   2.200 -0.2308  0.1033 -0.0445
44960W        W87951   5.057  27.381  25.301  0.0414 -0.0922  0.1108
44961W        W87952  24.562  18.232   8.879 -0.4528 -0.1762  0.1219
44962W        W87953   9.718   8.609   9.827  0.0683 -0.2161  0.1202
44963W        W87954  13.804  20.649  25.887 -0.1786  0.2467 -0.2089
44964W        W87955  15.183  19.972  27.222  0.0071  0.0924  0.1024
44965W        W87956   1.321  18.717  28.669 -0.0084 -0.2580  0.1284
44966W        W87957   9.008  21.958   5.817  0.3877 -0.0318  0.2138
44967W        W87958   5.628  12.579  18.055  0.2847 -0.0406 -0.1458
44968W        W87959  27.571  17.426  16.163  0.0080  0.1782  0.4133
44969W        W87960   2.516  18.748   2.853  0.1978 -0.3060  0.2294
44970W        W87961   5.993   3.330  16.810 -0.2177 -0.1070  0.0675
44971W        W87962  31.881  13.389   2.473 -0.0533  0.0850 -0.1858
44972W        W87963  14.769  10.390  28.531  0.2179  0.0396  0.1174
44973W        W87964  13.832  19.296   7.077 -0.0677 -0.0694  0.1638
44974W        W87965  13.553  10.016  23.805  0.4753 -0.1787  0.1292
44975W        W87966  21.017  26.337  19.554  0.0583 -0.1291  0.2122
44976W        W87967  31.183   4.744  14.184 -0.0657 -0.2166  0.0612
44977W        W87968   9.930  15.540  20.629 -0.0747  0.0268  0.0414
44978W        W87969   7.673  21.168  23.686 -0.1723  0.2330 -0.2826
44979W        W87970  15.594   8.994  23.674 -0.1138  0.0233 -0.2341
44980W        W87971  18.684  29.020   2.780 -0.0022  0.0873  0.0123
44981W        W87972  15.038  22.789  25.142 -0.2680 -0.1546  0.0033
44982W        W87973  34.117   2.451  24.059 -0.0090 -0.1802  0.2033
44983W        W87974  13.853  11.233   0.182  0.1346  0.0341 -0.0347
44984W        W87975  18.503  15.937  13.241 -0.0414 -0.2298  0.1922
44985W        W87976  10.038  20.121  24.684  0.1067 -0.0878  0.1482
44986W        W87977  13.383  25.269  20.536  0.2669  0.0261 -0.0672
44987W        W87978  10.458  25.218   2.845  0.0255  0.1028 -0.0612
44988W        W87979   9.425  33.043   1.187  0.2721  0.0551 -0.0758
44989W        W87980   5.652  27.602   2.676 -0.1015  0.4006  0.1427
44990W        W87981   6.355  12.502  20.890 -0.0778 -0.0464  0.3033
44991W        W87982  12.706  12.319   3.375 -0.0709  0.0955  0.0233
44992W        W87983   4.019  27.439  25.589 -0.3581 -0.0956  0.0114
44993W        W87984  29.765  24.760  16.902  0.2023 -0.0664  0.1211
44994W        W87985   7.737  21.875  21.910 -0.1979  0.2688  0.2139
44995W        W87986   6.720   1.694   8.004  0.0561  0.2757 -0.1118
44996W        W87987   0.445   4.123  14.774  0.0912 -0.3944 -0.4468
44997W        W87988  25.932   7.348   7.556 -0.3156 -0.1403 -0.0931
44998W        W87989  14.355  22.207   0.363  0.3500 -0.1825 -0.0497
44999W        W87990  12.680  19.430  22.293  0.0956 -0.0847 -0.1159
45000W        W87991  15.327  23.773  14.902 -0.1430  0.1788 -0.3746
45001W        W87992   6.809  23.299  21.323 -0.0519  0.0088 -0.3417
45002W        W87993  16.544  28.774  26.416  0.0852 -0.2464  0.0492
45003W        W87994  16.093   6.372  18.170  0.1102 -0.1945  0.0745
45004W        W87995  32.432  26.729  23.058 -0.0369  0.0190 -0.1260
45005W        W87996  19.012  15.228  14.837 -0.1374  0.2178  0.2358
45006W        W87997  20.719  12.305  28.285  0.5144 -0.1351 -0.1044
45007W        W87998   5.367  13.748  23.933  0.0558 -0.2798 -0.0572
45008W        W87999   3.416  12.406  25.384  0.0448 -0.1241  0.0219
45009W        W88000  33.415  26.160   4.715  0.0381 -0.1216 -0.0356
45010W        W88001  10.358  17.308  25.402 -0.2030  0.2508  0.1727
45011W        W88002   3.833  15.687  28.738  0.1190 -0.2779  0.2385
45012W        W88003   5.113   1.941  17.994  0.1452  0.0629  0.0699
45013W        W88004   9.271  11.516  26.556 -0.1670 -0.0264 -0.0079
45014W        W88005   9.562  22.122  25.513  0.1989 -0.2075  0.1120
45015W        W88006  33.227  24.433  16.459  0.1930 -0.2141 -0.2390
45016W        W88007  12.052   9.604  23.771 -0.0609 -0.0813 -0.1436
45017W        W88008  32.993  27.209  13.543  0.1560 -0.0528 -0.1764
45018W        W88009  32.807  25.072  14.331 -0.2104  0.1662 -0.0079
45019W        W88010  13.141  14.989  16.986  0.2126 -0.2282  0.1406
45020W        W88011  14.136  12.184  21.559  0.2340  0.0817  0.0064
45021W        W88012  25.927   9.817   5.347  0.0403 -0.2627 -0.2586
45022W        W88013  13.615  26.284  17.310  0.0795  0.2787  0.0968
45023W        W88014  13.082  28.625  17.561 -0.2111 -0.2183 -0.0096
45024W        W88015   7.580  23.111  14.152  0.3399 -0.0861 -0.0135
45025W        W88016   5.989  23.294  15.380 -0.0455  0.2763  0.0743
45026W        W88017  11.214   6.704  19.985  0.0839  0.1739 -0.1826
45027W        W88018   8.484  18.768  25.509 -0.1487  0.1576 -0.2756
45028W        W88019  27.136  16.001  24.029  0.1953 -0.0786  0.0215
45029W        W88020  10.258   7.753   5.285  0.0429  0.0716  0.0905
45030W        W88021   7.825  11.473  24.808  0.0274 -0.0423  0.0329
45031W        W88022   2.942  29.150  14.758  0.0569  0.0311  0.0156
45032W        W88023  33.369  19.520  21.905 -0.2430  0.2603  0.1645
45033W        W88024  12.847  20.748  14.746  0.1651  0.1059 -0.0341
45034W        W88025  11.420  26.056   8.558 -0.2640  0.1111  0.1782
45035W        W88026  30.773   7.962  17.498  0.1963  0.0931  0.1166
45036W        W88027   1.895  29.423  14.750 -0.1139 -0.1997 -0.2036
45037W        W88028  33.286  34.235  15.010  0.1535 -0.0081 -0.1501
45038W        W88029   3.551  26.084  23.354  0.0587  0.1478 -0.0968
45039W        W88030   2.861  11.445  22.079  0.2752  0.1417 -0.1131
45040W        W88031  16.708   6.597   0.908  0.1085  0.1428  0.3114
45041W        W88032   5.174  29.295  19.958 -0.1679  0.0150  0.2991
45042W        W88033  24.387  26.422  25.988 -0.0382 -0.0650 -0.0340
45043W        W88034  14.647  19.304  27.137 -0.1884 -0.0808  0.0886
45044W        W88035  14.517  23.878  15.726  0.0468  0.0545 -0.3673
45045W        W88036  29.126  11.646  22.606  0.2980 -0.3361 -0.0096
45046W        W88037   7.420  20.609  28.918  0.1540 -0.1248  0.2275
45047W        W88038   9.327   5.292  24.014 -0.2821  0.2101 -0.0032
45048W        W88039  10.210   9.000  17.655 -0.1013  0.2496 -0.2556
45049W        W88040  29.975  15.546  18.753  0.1133 -0.0802 -0.2023
45050W        W88041  13.354  15.302  16.322  0.0468  0.1146 -0.1066
45051W        W88042  33.265   1.803  19.724  0.0387 -0.4282  0.1777
45052W        W88043   0.817  15.080  20.311 -0.0769  0.1545  0.0066
45053W        W88044   4.660  19.059  27.417 -0.0087  0.1516 -0.3722
45054W        W88045   2.070  22.680   8.425  0.2463  0.4319  0.1577
45055W        W88046  30.491  20.961   0.749 -0.0450  0.2233  0.1783
45056W        W88047  34.489   9.972  19.622 -0.3291 -0.2139 -0.1905
45057W        W88048   8.304  31.984  27.457  0.0938  0.0346  0.0319
45058W        W88049  13.893  24.864  14.892  0.2347 -0.1615  0.0386
45059W        W88050  13.517  21.558   1.580  0.1760  0.1684  0.0339
45060W        W88051  13.348  32.001   4.311  0.2704 -0.1611  0.0099
45061W        W88052   2.749   3.777   4.697 -0.1336  0.0761 -0.1911
45062W        W88053  28.197  21.098  17.562  0.2036  0.0548  0.2641
45063W        W88054  13.013  16.997  24.834 -0.0763  0.0541 -0.2633
45064W        W88055   5.105  11.695  15.671 -0.0995  0.2118 -0.1296
45065W        W88056  19.101   7.979   6.496  0.0665 -0.1997 -0.4222
45066W        W88057   5.648  16.090   3.213 -0.1487 -0.0814  0.1366
45067W        W88058   8.615  18.499  22.580  0.2280  0.2621 -0.1472
45068W        W88059   5.791  12.459  24.575  0.2868  0.1298  0.0381
45069W        W88060  33.582  28.268  26.559 -0.0378 -0.0335 -0.0044
45070W        W88061   5.774   1.730  27.245  0.0653  0.0546 -0.0713
45071W        W88062  31.838  25.971  17.904  0.1135  0.2196 -0.0939
45072W        W88063  11.675  28.724  18.461 -0.0657 -0.1923  0.1031
45073W        W88064  17.521  19.812  23.778  0.0899 -0.0200 -0.0480
45074W        W88065  12.280  32.365  17.240  0.0600  0.3389 -0.1477
45075W        W88066   2.392  11.820  28.990  0.1960 -0.3957 -0.1737
45076W        W88067  12.966  20.908   1.265 -0.0841 -0.0749  0.0557
45077W        W88068  32.170  15.140  10.525  0.0017  0.0851 -0.1962
45078W        W88069   7.406  18.762  21.305  0.0191  0.0034 -0.1397
45079W        W88070  21.182  17.780  21.827  0.2241 -0.3835  0.0895
45080W        W88071   0.420  16.523   2.914 -0.0678 -0.0365  0.2112
45081W        W88072  32.996  19.466  15.184  0.0688 -0.2043  0.1531
45082W        W88073  26.166  32.494  20.483 -0.0606 -0.2097  0.2192
45083W        W88074  23.589  31.331  19.692  0.0729  0.1697  0.1241
45084W        W88075  11.657  22.498  15.956 -0.0938  0.1267 -0.2530
45085W        W88076   1.374  34.429  16.674  0.0547 -0.1149  0.0475
45086W        W88077  22.907  20.616  28.022 -0.0712  0.0366  0.0389
45087W        W88078   7.727  26.562   9.538  0.1718 -0.0064 -0.1222
45088W        W88079  28.292  25.212  16.953  0.2931  0.0110  0.1412
45089W        W88080  13.345  16.751  24.537 -0.0974  0.0099  0.1196
45090W        W88081   6.084  15.382   0.473 -0.0056  0.0370  0.0982
45091W        W88082  28.336  29.453  26.140 -0.3842 -0.0090  0.1785
45092W        W88083   6.276  23.681   2.776  0.1435  0.2094 -0.1200
45093W        W88084  11.960  23.389  16.420  0.1984  0.0004 -0.0246
45094W        W88085  14.200  32.115  21.393  0.1056  0.0408  0.0986
45095W        W88086  11.829  14.504  15.478 -0.3013  0.1962  0.3564
45096W        W88087   7.592  18.321  22.394  0.0760 -0.0540  0.1378
45097W        W88088  31.544  20.731   2.275  0.0982  0.4143 -0.1465
45098W        W88089  12.771  20.336   6.694 -0.0326  0.1285 -0.2594
45099W        W88090  11.628  19.192  27.297  0.0915 -0.2005  0.0309
45100W        W88091   5.245   2.408  16.190  0.0176 -0.1674  0.2622
45101W        W88092  15.904  21.919  14.835 -0.1629  0.0693 -0.1122
45102W        W88093   0.162  15.398  15.400 -0.0900  0.1973 -0.2685
45103W        W88094  34.213  17.707  23.871  0.1775  0.1518 -0.0541
45104W        W88095  31.350  30.798  13.579 -0.0502 -0.0606  0.1466
45105W        W88096   9.170  21.098  24.561  0.0717 -0.0128  0.1266
45106W        W88097  13.172  21.312  17.534 -0.1377 -0.1196 -0.0948
45107W        W88098   7.178  28.624   9.711  0.2049  0.0309  0.0379
45108W        W88099   1.408  32.177  18.581 -0.0010 -0.4051 -0.0584
45109W        W88100  26.979  12.826   9.745  0.0199  0.1905  0.0248
45110W        W88101  11.752  33.555  28.389  0.2237  0.2124 -0.2653
45111W        W88102   5.169  17.019   3.346 -0.0325  0.3578 -0.1423
45112W        W88103  22.048  22.749  14.761 -0.0968  0.0990  0.1254
45113W        W88104  24.341  12.836  17.399  0.0873  0.1375 -0.0061
45114W        W88105  12.867   8.085   1.087  0.1183  0.2299 -0.0005
45115W        W88106   1.641  17.954  22.430 -0.1110 -0.1758 -0.2222
45116W        W88107  24.203  26.981  24.817 -0.3553  0.2551  0.1717
45117W        W88108   1.871   3.625  19.987 -0.2785  0.0292  0.1488
45118W        W88109  15.836  22.352  23.543  0.1332  0.0235  0.1687
45119W        W88110   2.110  34.458  21.676  0.3297  0.0088 -0.3373
45120W        W88111   7.441  31.333  26.115 -0.3681 -0.1890 -0.0864
45121W        W88112   9.117  30.619  20.122  0.1088 -0.1887  0.0598
45122W        W88113  14.610  23.196  18.657 -0.0560  0.0580 -0.0179
45123W        W88114  33.247  14.145  15.985 -0.2101  0.0580  0.2956
45124W        W88115   5.084   9.160  25.910 -0.1822 -0.0174 -0.2848
45125W        W88116   1.666  24.695  28.238 -0.2920 -0.0484  0.0735
45126W        W88117   8.455  27.579  21.416 -0.0100 -0.5613 -0.0843
45127W        W88118   5.166  29.668  16.566  0.0358 -0.2836  0.2105
45128W        W88119   2.282  13.664   9.680  0.1780 -0.1620  0.1883
45129W        W88120  11.712  16.760  22.584 -0.1799 -0.0495  0.1490
45130W        W88121  23.494  19.991  23.655 -0.3287 -0.1708  0.0123
45131W        W88122  31.716  25.975  14.280 -0.2619  0.3084  0.1686
45132W        W88123  18.236   0.992   8.788 -0.3037 -0.3402 -0.0366
45133W        W88124  31.386  25.874   1.471 -0.2338  0.3376  0.3005
45134W        W88125  33.048  30.495  14.606  0.0908  0.0084  0.1170
45135W        W88126   4.058  26.154  21.737  0.1558 -0.1447  0.0447
45136W        W88127  22.603  20.380  20.823  0.0329 -0.0977  0.1105
45137W        W88128   9.026  16.021  17.793 -0.1395 -0.1105  0.0572
45138W        W88129   7.897  10.854  16.002 -0.0855  0.0013 -0.1842
45139W        W88130  28.563  11.715   5.073  0.3603  0.1249  0.2060
45140W        W88131   1.693  23.757  15.298 -0.1347  0.1355 -0.1210
45141W        W88132   9.455  10.312  21.412  0.1322  0.1336 -0.1195
45142W        W88133   0.254  10.403   4.466  0.2068 -0.1813  0.1101
45143W        W88134   2.700  17.255  15.301  0.0024 -0.1219 -0.1041
45144W        W88135  33.442  25.550  22.590 -0.0671  0.0116 -0.3144
45145W        W88136  28.353   9.049  27.187  0.1273 -0.0959  0.0904
45146W        W88137  11.592   3.468  15.716  0.2698 -0.0520  0.0580
45147W        W88138  10.936   3.398  18.219  0.1022 -0.2029  0.1345
45148W        W88139  18.328  23.943  13.164 -0.1174  0.2832 -0.1156
45149W        W88140   4.264   8.700  26.233 -0.3118 -0.4016 -0.0041
45150W        W88141   6.472  24.510  14.720  0.2451  0.0176 -0.2426
45151W        W88142   9.382  20.095  23.080 -0.2065  0.0546 -0.0703
45152W        W88143  10.922  14.377   9.171 -0.3740  0.2111 -0.2466
45153W        W88144  12.209  23.427  19.315  0.1718 -0.1381  0.2229
45154W        W88145   8.116  24.755  22.311  0.2700  0.1498  0.1443
45155W        W88146  10.899   3.182  26.512 -0.0084  0.0327  0.0469
45156W        W88147  18.966  21.957  15.770 -0.3741 -0.2585 -0.2288
45157W        W88148   8.478  26.674   9.530  0.1915 -0.0571 -0.6102
45158W        W88149  19.032  15.927  14.699 -0.0063 -0.2366  0.0897
45159W        W88150  20.553  31.542  26.889  0.0058  0.1548  0.0046
45160W        W88151   8.971   9.015  18.730  0.0611  0.1933  0.1084
45161W        W88152   8.596  33.484   3.616  0.1242  0.0979 -0.0874
45162W        W88153   1.774  33.658   4.940 -0.0078  0.2219  0.1354
45163W        W88154   1.144  34.745  23.946 -0.2568 -0.2073 -0.0493
45164W        W88155  28.070  32.942  16.939  0.3236  0.2219 -0.2304
45165W        W88156  21.742  29.993  15.001 -0.2582  0.0724 -0.1039
45166W        W88157  24.655  25.418   7.194  0.2521 -0.2142 -0.1751
45167W        W88158  29.896   8.157  26.076  0.0669  0.1277  0.0976
45168W        W88159  10.408  23.909  29.102 -0.1447 -0.0912  0.3351
45169W        W88160  18.805  11.059  17.969  0.0695  0.3951 -0.0811
45170W        W88161   3.423  13.154  21.595  0.0293 -0.2844 -0.1914
45171W        W88162  29.219  20.611   6.565  0.2997 -0.0564 -0.2894
45172W        W88163   9.652  19.945  21.495 -0.1856  0.5223  0.2689
45173W        W88164   9.264  10.214  19.342 -0.1486 -0.0915  0.2887
45174W        W88165   6.296   8.172   0.221  0.0695  0.1417  0.2897
45175W        W88166  26.562  10.259   8.172  0.1760 -0.0369 -0.1080
45176W        W88167   8.796  27.802  28.875 -0.2130 -0.0009 -0.1335
45177W        W88168  17.217   1.888   4.439  0.3039  0.3034  0.1370
45178W        W88169   3.499  14.926  25.085  0.0706 -0.1713  0.2249
45179W        W88170  28.190  20.356   1.696 -0.3621 -0.1242  0.2971
45180W        W88171  21.877  26.311   3.257 -0.0012 -0.0395 -0.2213
45181W        W88172  30.130  15.584  26.884 -0.2447  0.0279 -0.3543
45182W        W88173  24.154  13.134  18.919 -0.0047 -0.2796  0.1152
45183W        W88174   7.765  27.047  23.190 -0.1529 -0.0759 -0.2440
45184W        W88175  13.032  21.106  16.626  0.1778  0.2419 -0.2793
45185W        W88176  13.077  26.867   3.039 -0.1733 -0.2591 -0.4086
45186W        W88177  32.667  16.231   9.131 -0.0509 -0.0437  0.0359
45187W        W88178  11.336  16.792  25.686 -0.1988  0.1779  0.4078
45188W        W88179  11.226  16.505  19.573  0.2282  0.1317 -0.0614
45189W        W88180  33.114   4.248  16.326 -0.0745  0.1541  0.0702
45190W        W88181   9.023  29.141   1.732 -0.1207 -0.1613 -0.1961
45191W        W88182  11.065  24.760  20.200 -0.2042  0.1009  0.3267
45192W        W88183   3.470  33.092  24.715 -0.2701 -0.0955 -0.3078
45193W        W88184  17.406   5.970  14.410 -0.2899  0.1486 -0.2221
45194W        W88185  27.728  21.520  26.753  0.1776  0.0587  0.1585
45195W        W88186  17.968  20.998   8.122  0.0981  0.1513 -0.0221
45196W        W88187  12.477  18.014  20.679  0.2520 -0.0981  0.0559
45197W        W88188   3.000  30.181   9.128  0.1079 -0.1857 -0.0267
45198W        W88189  13.997  27.110  15.367 -0.0294 -0.0863  0.3413
45199W        W88190  31.444  15.027  24.729 -0.0865 -0.2555 -0.2271
45200W        W88191   8.757  25.400   2.312 -0.2772  0.0842  0.0130
45201W        W88192  27.486  12.836  18.235 -0.1064  0.4257  0.0879
45202W        W88193  23.186  20.123  15.798  0.0350  0.0372  0.0803
45203W        W88194  30.029  19.364  16.195 -0.1066 -0.3325  0.4741
45204W        W88195   2.560  20.357  18.202  0.1297  0.0925  0.0143
45205W        W88196  19.917  11.975   7.192  0.1342  0.2440  0.1411
45206W        W88197  32.200  32.116  16.230 -0.1130 -0.5150 -0.0964
45207W        W88198  32.683   7.928  21.340  0.0464 -0.0167  0.1631
45208W        W88199   9.827   0.866  21.885  0.1248 -0.1025 -0.1926
45209W        W88200  29.268  16.072  27.475  0.0096 -0.2029 -0.1917
45210W        W88201  12.553  19.047  21.995  0.2293  0.0282  0.5404
45211W        W88202  20.683  22.153  28.697 -0.4049  0.1396 -0.2428
45212W        W88203  30.185  23.439  22.917 -0.0425  0.0110  0.0987
45213W        W88204  11.126  30.282  18.004  0.0941  0.1491  0.1478
45214W        W88205   8.102   3.880   2.930  0.1267  0.1488 -0.5163
45215W        W88206   5.492  19.191  17.621 -0.1527 -0.0493 -0.0241
45216W        W88207  14.933  29.457  23.931  0.3768 -0.0973  0.1207
45217W        W88208  16.901   5.410   2.150  0.0946 -0.1069  0.0263
45218W        W88209   8.307  17.932  26.488  0.0427 -0.0013  0.2429
45219W        W88210  19.237   6.453  13.285 -0.2943 -0.2562  0.1621
45220W        W88211  24.070  27.371  26.005  0.2561  0.0274 -0.0355
45221W        W88212   9.792  22.598  16.924 -0.2539  0.0349  0.0775
45222W        W88213  10.839  29.264  16.504  0.1469  0.1883  0.3624
45223W        W88214  22.748   5.862  23.322  0.0624  0.0244 -0.2845
45224W        W88215   4.465  24.273  24.391 -0.4330  0.5061  0.0231
45225W        W88216   0.867  27.466  17.527  0.2253  0.0600  0.2141
45226W        W88217  11.860  25.609   9.906  0.2064  0.2253 -0.1996
45227W        W88218  15.547  10.127  16.279  0.1806 -0.0243 -0.1163
45228W        W88219   4.532   4.594  21.448  0.0657  0.1648  0.0818
45229W        W88220  15.530  18.179   1.298  0.3243  0.1024  0.2520
45230W        W88221   2.079   0.412  22.365  0.1349 -0.0211  0.0967
45231W        W88222   0.727  24.540  22.039 -0.2411  0.2686 -0.4013
45232W        W88223   8.147  31.151   1.668 -0.0893  0.0897  0.0363
45233W        W88224  33.104  18.266  26.784 -0.0426 -0.1963  0.2086
45234W        W88225  15.034  33.009   4.831 -0.0059  0.1208 -0.0314
45235W        W88226  10.405   0.369  28.932 -0.0945 -0.1458 -0.0638
45236W        W88227  18.442   4.636   3.481 -0.0116  0.3124  0.1591
45237W        W88228   3.634  21.988  24.433 -0.3081  0.0860 -0.1389
45238W        W88229   8.454   7.398   0.386  0.3823 -0.2329 -0.1546
45239W        W88230   9.882  12.379  21.407  0.0580  0.1543  0.1499
45240W        W88231   6.899   9.171  25.514  0.0968 -0.4218  0.1526
45241W        W88232  14.314   7.712  24.018 -0.0704 -0.0386 -0.0756
45242W        W88233  27.445  31.335  19.755  0.1248  0.2740  0.1301
45243W        W88234   3.432  18.824   3.277 -0.1141 -0.3716 -0.4492
45244W        W88235  11.411  13.905  24.778 -0.0917 -0.1807 -0.1535
45245W        W88236  30.836   8.140  27.146 -0.1884 -0.0574 -0.1656
45246W        W88237  28.255  16.702   4.437 -0.0992 -0.3068 -0.0413
45247W        W88238  18.840  15.449   8.884  0.0183  0.0106 -0.2433
45248W        W88239   6.231  12.052   3.294  0.1877  0.1708  0.0348
45249W        W88240  10.235   3.585   5.912 -0.3225  0.0048  0.0824
45250W        W88241   7.574  15.257  24.385 -0.1519  0.0533 -0.4089
45251W        W88242   1.686  17.456   4.101 -0.2657  0.4329 -0.1690
45252W        W88243  10.280  10.981   6.289  0.3335  0.2025 -0.2854
45253W        W88244  12.260  17.372   2.062  0.0588  0.1987 -0.1502
45254W        W88245  33.988  16.268  28.095 -0.0353  0.0635 -0.0547
45255W        W88246  18.309  29.135  24.681 -0.1163 -0.0870 -0.1517
45256W        W88247  29.501  16.570   6.218 -0.0980  0.1205 -0.2374
45257W        W88248  15.572   7.241  16.158 -0.1249  0.1297  0.2836
45258W        W88249  28.268  12.582  20.790  0.0111  0.2955  0.0842
45259W        W88250  25.994  25.189  26.958  0.1295 -0.0641  0.0830
45260W        W88251   4.251  27.064   9.636 -0.0663  0.0056  0.3175
45261W        W88252  23.289  29.512   6.179  0.0689 -0.0006 -0.0513
45262W        W88253  16.000   0.966  17.186  0.0356  0.0990 -0.0249
45263W        W88254   2.026  31.229  19.118 -0.0581  0.0173  0.1421
45264W        W88255  25.101  31.820   2.255  0.2012  0.0752 -0.2093
45265W        W88256  21.521  28.339   5.645  0.4871  0.2039 -0.2125
45266W        W88257  14.150  30.860  24.269 -0.2328  0.0065 -0.0532
45267W        W88258  10.480  22.398  10.041  0.0719 -0.3524  0.0532
45268W        W88259   5.610  18.486  25.247 -0.1711  0.1505  0.0133
45269W        W88260   4.238   3.309  20.621  0.0055  0.0955  0.2644
45270W        W88261   2.401   5.240   1.473 -0.0638  0.0172 -0.0453
45271W        W88262   0.657   0.623   3.972 -0.0043 -0.1286  0.0403
45272W        W88263   6.318   0.172   6.319 -0.2015  0.0610 -0.3968
45273W        W88264  34.474  25.275  14.107 -0.1724  0.0637  0.0483
45274W        W88265   1.764   4.710  24.391  0.2391 -0.2076  0.1191
45275W        W88266   5.011   8.258   3.798  0.0329  0.1184 -0.1712
45276W        W88267  25.118  27.597  22.472  0.1924 -0.1595 -0.1383
45277W        W88268   4.975  33.704   8.672 -0.1457  0.0367  0.0423
45278W        W88269   8.250  10.164   8.066  0.1289  0.0835  0.2907
45279W        W88270   7.788  22.634   3.406 -0.1504 -0.0039 -0.2448
45280W        W88271  33.890  19.835  16.391  0.0524  0.2247 -0.1141
45281W        W88272   8.304   9.685   1.822 -0.2186  0.1692  0.0178
45282W        W88273  16.428  27.266  20.224  0.0071  0.4238  0.2485
45283W        W88274   6.451  18.508  11.013  0.2350  0.0562 -0.3894
45284W        W88275  13.059  29.867  22.470 -0.1018  0.1792 -0.3957
45285W        W88276  11.910  17.913  28.906 -0.0203 -0.0611 -0.0310
45286W        W88277   1.283  16.145  21.735 -0.0596 -0.0745 -0.1005
45287W        W88278   5.000   1.487  16.987 -0.1720 -0.0826 -0.2880
45288W        W88279   9.690   6.396  11.189 -0.3588  0.2463 -0.4038
45289W        W88280  33.140  30.334  21.855 -0.2154 -0.3489 -0.2924
45290W        W88281   9.624  12.149  25.305 -0.2145 -0.1463  0.3453
45291W        W88282  10.249  14.480   9.258  0.1623  0.0885  0.2182
45292W        W88283  29.498  34.734   7.552 -0.2826 -0.2509 -0.2195
45293W        W88284  23.715  32.224  17.023 -0.1276  0.1107 -0.1586
45294W        W88285  32.106  19.740  26.657 -0.3605  0.1125 -0.0042
45295W        W88286  16.765   6.258  21.606  0.0989  0.0652 -0.0261
45296W        W88287   3.547  16.606   1.664 -0.0875 -0.0399  0.0283
45297W        W88288  11.997  11.093  26.457  0.2910  0.1398 -0.0148
45298W        W88289  21.539  15.921  17.293  0.0361  0.2941  0.3628
45299W        W88290  13.418   6.771   4.660  0.0583 -0.1523  0.0415
45300W        W88291  16.518  10.190  26.099 -0.3535  0.0776  0.0806
45301W        W88292  30.595  32.480  25.348  0.0987 -0.2994 -0.2396
45302W        W88293  31.979  15.614   8.919 -0.3883  0.0855 -0.5531
45303W        W88294  14.768  21.127  28.976  0.0323  0.1996  0.1562
45304W        W88295  10.371  12.631   1.134  0.3358 -0.0026 -0.2361
45305W        W88296  13.774  25.369   9.417 -0.1895  0.3127 -0.0073
45306W        W88297  17.690  23.952   1.927 -0.3251  0.0422  0.2718
45307W        W88298  27.978  15.654   3.635  0.2213  0.0699  0.1936
45308W        W88299   7.500  13.947   0.243 -0.1571 -0.0829  0.0637
45309W        W88300  11.480   0.469   9.126 -0.0230 -0.1810 -0.0774
45310W        W88301   7.678  22.462   8.149 -0.0776  0.0692 -0.3305
45311W        W88302  11.890  20.211   2.853 -0.1758  0.0442 -0.2315
45312W        W88303   8.734   8.869  28.461  0.2069  0.0483 -0.1193
45313W        W88304  12.796  21.496   8.424  0.0073  0.2693  0.1365
45314W        W88305  14.164  25.999  21.281  0.0750 -0.0771 -0.0937
45315W        W88306  20.136  34.611  22.257 -0.0636  0.1401 -0.0073
45316W        W88307  30.871  18.499   3.138  0.0789 -0.1370 -0.2323
45317W        W88308  28.770  12.920  23.431  0.1195  0.0069 -0.1066
45318W        W88309   2.644  20.647  22.580  0.1478  0.1220 -0.1385
45319W        W88310  16.646  17.459   2.482 -0.0261 -0.2062  0.0889
45320W        W88311  17.466   9.183  18.888  0.3400 -0.0473 -0.1079
45321W        W88312  13.125  13.193   8.916  0.0547  0.2747  0.0060
45322W        W88313  17.991  26.391   0.089 -0.0567 -0.1545 -0.2945
45323W        W88314  12.125   6.866  24.886 -0.1171  0.1770  0.2455
45324W        W88315  16.628  23.242   3.471  0.1429 -0.1505 -0.5044
45325W        W88316  13.944   8.234  26.838  0.0187 -0.0761  0.0275
45326W        W88317  11.234   7.083   4.958  0.0588 -0.0507 -0.0702
45327W        W88318   0.119  18.355  17.539  0.0440 -0.0128 -0.2383
45328W        W88319  34.306  34.686   1.048 -0.2914 -0.1008 -0.0664
45329W        W88320   7.519   5.303  19.494  0.0880  0.0167  0.1113
45330W        W88321  23.109  27.243   3.592 -0.2233  0.2984  0.3412
45331W        W88322  11.626  31.807  26.486  0.1290  0.1807 -0.1219
45332W        W88323  14.060  12.102   4.935 -0.1063  0.0048  0.2058
45333W        W88324  15.875  17.706  25.772 -0.4971  0.0129  0.0990
45334W        W88325  12.207  16.641  21.895  0.1936  0.0540 -0.0804
45335W        W88326   5.192  33.907  27.308  0.2661 -0.1212  0.0370
45336W        W88327   7.360  11.231  25.565  0.2048 -0.4003 -0.0891
45337W        W88328  11.864  30.129  10.262 -0.0924  0.4758 -0.0672
45338W        W88329  13.263  24.784  19.103  0.0028 -0.1319 -0.0200
45339W        W88330   9.657   9.551   6.695  0.3359 -0.0229 -0.0051
45340W        W88331  13.763  14.075   5.826  0.4144 -0.0762  0.1617
45341W        W88332  12.928  17.248  28.149 -0.3494 -0.1597  0.0072
45342W        W88333   0.592  21.903  14.873  0.0888  0.0108 -0.1924
45343W        W88334  24.835  28.174  23.045  0.2549 -0.1870 -0.1457
45344W        W88335   6.207  17.640   5.820  0.2945  0.0385 -0.0721
45345W        W88336  11.836  20.648  15.379 -0.1625 -0.0079  0.1193
45346W        W88337  10.011  22.283  24.685  0.1988 -0.0917 -0.2560
45347W        W88338  31.806  14.212  25.514  0.1104 -0.1419  0.1742
45348W        W88339   7.221  13.024  18.032 -0.1504 -0.0428 -0.1535
45349W        W88340  31.776  21.415  21.607  0.1951  0.1734 -0.0074
45350W        W88341   7.425   0.467   1.355 -0.0552  0.3299 -0.1886
45351W        W88342  11.505  13.239  15.085 -0.0453  0.1362 -0.2325
45352W        W88343  33.523  28.753  23.746 -0.2434  0.3602 -0.1058
45353W        W88344  32.658  17.722  26.187 -0.1080  0.0500 -0.0455
45354W        W88345   8.719  12.017  23.781 -0.1613 -0.0295  0.3636
45355W        W88346  15.100   2.617   8.371  0.1991 -0.4122  0.3412
45356W        W88347  16.857  25.274  24.279 -0.0514 -0.1810  0.1308
45357W        W88348  18.828  22.830   1.470 -0.2585  0.1675  0.2019
45358W        W88349  11.761   8.994   8.141  0.0255 -0.0016 -0.0499
45359W        W88350  26.462  31.816  17.674 -0.0166  0.1999  0.0177
45360W        W88351   9.325   2.296   4.892 -0.1759 -0.1136  0.1190
45361W        W88352   5.886  21.493  20.380 -0.1428  0.2582 -0.0319
45362W        W88353  11.033  26.448  16.736  0.0471 -0.2584 -0.1746
45363W        W88354  29.402   6.917  27.992  0.2151  0.0352 -0.1488
45364W        W88355  23.448  14.671  24.315 -0.0172  0.0086  0.1470
45365W        W88356   2.054  15.629  18.862  0.0269 -0.2124 -0.0829
45366W        W88357   5.058  23.003  21.725 -0.1395 -0.1402 -0.2479
45367W        W88358  16.854  20.023   3.211  0.0799 -0.1379  0.2523
45368W        W88359  32.010  34.428   5.784 -0.0137  0.0824  0.0098
45369W        W88360  12.109  15.292  21.934 -0.1714 -0.2341  0.1088
45370W        W88361   9.523  19.225  19.370 -0.3863 -0.0143 -0.1871
45371W        W88362   3.241   4.399  24.555 -0.1302 -0.0362 -0.0281
45372W        W88363  10.967  14.233  16.010 -0.0704  0.0297  0.0584
45373W        W88364  25.474  20.707   6.250 -0.0243  0.2754  0.2814
45374W        W88365  10.626  16.436  14.766 -0.2275 -0.2752  0.0665
45375W        W88366   3.537  22.907   5.961  0.3990  0.0263 -0.0170
45376W        W88367  19.125  21.379  27.265 -0.1217 -0.2205 -0.0444
45377W        W88368  30.307  18.114   9.255  0.1258 -0.0850 -0.1623
45378W        W88369  29.631   1.278   7.491  0.3131 -0.0432  0.0766
45379W        W88370   5.341  32.702   5.302 -0.1492  0.2577  0.1156
45380W        W88371  33.353  14.023  26.329 -0.0678 -0.0273  0.0638
45381W        W88372  31.585   8.772  16.780  0.3335  0.3178 -0.0414
45382W        W88373  10.447   1.103  26.169  0.1218  0.0408 -0.1788
45383W        W88374   5.904  12.587   9.093 -0.1230  0.1588 -0.2196
45384W        W88375   8.391  23.136  14.915 -0.1071  0.1712  0.0796
45385W        W88376   7.564  26.693  22.849  0.2153  0.0210 -0.0790
45386W        W88377  19.806   4.331   3.859  0.0852  0.1202 -0.3467
45387W        W88378  30.633  34.335   0.273  0.3454  0.1587  0.0443
45388W        W88379  24.968   7.006  17.452 -0.3449  0.2759  0.2064
45389W        W88380  23.039  11.883  20.630 -0.2287 -0.2594 -0.0628
45390W        W88381  13.847  21.078  13.485 -0.2207  0.1019  0.0323
45391W        W88382   8.260  16.906  20.187 -0.0701 -0.2156 -0.1496
45392W        W88383  12.852   2.695   1.478 -0.1267  0.0345  0.0228
45393W        W88384   9.728  18.865   4.241 -0.1918 -0.0721  0.0503
45394W        W88385  10.935  23.021   7.324  0.2626  0.2163  0.3027
45395W        W88386   5.455   5.471  27.377  0.2990  0.1487  0.0601
45396W        W88387   0.093   5.129  22.480  0.3106  0.1475  0.3695
45397W        W88388   1.861   4.540  22.979  0.1156 -0.1430  0.1330
45398W        W88389  25.197  16.016   9.278  0.0341  0.1684  0.0929
45399W        W88390  15.724  10.951  23.309 -0.1866  0.0521 -0.0557
45400W        W88391   4.776   8.878   2.938  0.1020 -0.3099  0.0592
45401W        W88392  26.039  20.086   3.296 -0.1926  0.0806 -0.1530
45402W        W88393  30.516  26.164  16.042  0.0725 -0.0696  0.0328
45403W        W88394   3.467  17.402  20.012 -0.3439 -0.0392 -0.2223
45404W        W88395   7.549  22.767   3.810 -0.2528  0.1589  0.2014
45405W        W88396  22.427  16.069   0.196 -0.0401 -0.0556 -0.1364
45406W        W88397  27.470  13.992  19.768 -0.2701 -0.4524  0.1106
45407W        W88398   5.313  16.525  25.705 -0.0046 -0.1474 -0.0813
45408W        W88399  12.609   2.520  27.895 -0.4646 -0.0810  0.0937
45409W        W88400  20.272   9.801   2.461  0.1886 -0.0240  0.1948
45410W        W88401   8.996   3.678   2.866 -0.1440 -0.0497  0.0748
45411W        W88402  13.259  24.625  17.700 -0.3645  0.1630  0.1000
45412W        W88403  23.260  17.202   6.575 -0.0637 -0.3478 -0.0945
45413W        W88404   3.067  19.905   3.239  0.2414 -0.3635  0.0844
45414W        W88405  10.852  33.758   3.925 -0.0985 -0.1583  0.0221
45415W        W88406  11.298  13.042  24.307  0.0463  0.2415  0.2007
45416W        W88407   1.568  16.783   1.547  0.0417 -0.1812  0.2320
45417W        W88408   3.844  24.206  24.667 -0.2897  0.1216 -0.4172
45418W        W88409   3.671  22.323  19.313  0.2597 -0.0234 -0.2368
45419W        W88410   6.307   8.670  28.699 -0.4296 -0.0341  0.0298
45420W        W88411  24.017  28.627   4.221  0.1808 -0.1874 -0.2369
45421W        W88412  26.822  23.717   2.078 -0.0542  0.0148  0.0133
45422W        W88413  32.699  19.480  18.502  0.2575 -0.2427  0.0850
45423W        W88414  27.236  31.134  21.835  0.0096  0.3853 -0.1290
45424W        W88415  18.460   6.456  24.714 -0.1070 -0.0924 -0.1926
45425W        W88416  31.628  29.102  13.831 -0.0009  0.1529  0.0624
45426W        W88417  11.390  14.282  28.918  0.0035 -0.0504 -0.0461
45427W        W88418  34.728   5.291  25.523  0.0342 -0.1179 -0.1805
45428W        W88419  27.851  20.469  10.011 -0.0862 -0.0723  0.0279
45429W        W88420   1.343  15.838  23.988 -0.0988 -0.0484 -0.0553
45430W        W88421  20.085   9.715  16.600  0.1025 -0.1374 -0.1722
45431W        W88422   6.085  18.277   9.303  0.1846 -0.0560 -0.0153
45432W        W88423   3.916  17.993  11.124 -0.3811  0.2129  0.2482
45433W        W88424  32.272  15.057  27.789 -0.3759  0.1830 -0.0903
45434W        W88425  21.223  19.070   9.110  0.3104  0.2097  0.2302
45435W        W88426  30.994  11.098   3.234  0.1701 -0.1043 -0.3765
45436W        W88427  30.829  19.623  26.232  0.2574  0.0141 -0.0107
45437W        W88428  28.620  18.508   1.547 -0.0573  0.1371  0.0112
45438W        W88429  15.053   4.529   3.797  0.1141  0.1680 -0.1271
45439W        W88430  34.414  17.787  23.350 -0.1018 -0.2376  0.0642
45440W        W88431  15.785   7.889   6.901  0.1058  0.0180 -0.0491
45441W        W88432  17.868  25.429  27.606 -0.2511  0.1545  0.0117
45442W        W88433   2.006  21.018  19.811  0.0542  0.0283 -0.0130
45443W        W88434   7.548   7.890  20.708 -0.0435  0.1433  0.0072
45444W        W88435  12.079  25.348  19.570  0.0884  0.3258  0.2833
45445W        W88436   9.219  15.600   4.771 -0.0944  0.1160 -0.0552
45446W        W88437  34.675   3.175  25.059  0.1491 -0.2071 -0.2988
45447W        W88438  28.592  16.878  26.440  0.1275  0.6302 -0.1515
45448W        W88439   5.354  21.901  28.566 -0.3663 -0.1634  0.2258
45449W        W88440  24.403  23.844   2.487  0.1777  0.1087 -0.0894
45450W        W88441   1.448  19.745  20.507  0.1209  0.1477  0.0432
45451W        W88442  17.025  25.371   9.417 -0.0937  0.0563 -0.1111
45452W        W88443  32.096  15.426  22.034  0.0753  0.2037  0.0134
45453W        W88444  12.179  16.800   4.473 -0.1206 -0.0883  0.1221
45454W        W88445  25.429   8.806   9.711  0.0035 -0.2873 -0.0379
45455W        W88446   8.452  13.954  21.445  0.0689 -0.1254  0.1615
45456W        W88447   1.677  10.089  10.144  0.0111  0.1115  0.0283
45457W        W88448  11.539  27.496  28.578 -0.0241 -0.1676 -0.1076
45458W        W88449  29.758  11.583  23.368 -0.0317 -0.0056 -0.2992
45459W        W88450   6.606  33.681   3.510 -0.3146 -0.1703 -0.0670
45460W        W88451   9.105  19.156   2.376 -0.0405 -0.1534 -0.2168
45461W        W88452   5.998  13.228  10.092 -0.1324  0.2001  0.0265
45462W        W88453   2.505  14.058   8.882  0.1058  0.1299  0.0557
45463W        W88454   4.149  25.223  21.191  0.1692  0.3085 -0.2841
45464W        W88455  28.565  19.433  18.104 -0.1741  0.2536 -0.2301
45465W        W88456  13.974  34.028  18.545  0.1157 -0.2089  0.1500
45466W        W88457   2.595  30.801   6.654 -0.5362 -0.2463 -0.0737
45467W        W88458   7.493   2.152   6.646 -0.0234  0.0836  0.1520
45468W        W88459  23.644  28.280   3.055  0.1849  0.1124 -0.1314
45469W        W88460  24.402  12.491   0.279  0.2986  0.1781  0.0216
45470W        W88461  27.282  21.270   9.139  0.3001 -0.0952  0.5441
45471W        W88462   3.803  17.632  16.080 -0.0268  0.2386  0.1804
45472W        W88463   4.522  15.341  26.458 -0.0537  0.1921 -0.1598
45473W        W88464  12.640  19.508  20.253  0.1325 -0.1049 -0.1080
45474W        W88465  13.304  20.317  24.027  0.4067  0.2696  0.2481
45475W        W88466  31.593  25.375  24.667 -0.0045 -0.0263  0.1708
45476W        W88467  11.652  17.677  23.928  0.0406 -0.1709 -0.1607
45477W        W88468  18.786   0.799  18.437  0.1516  0.0395 -0.0759
45478W        W88469  26.493   8.975  21.764 -0.1667 -0.1199  0.0058
45479W        W88470  27.668  26.262   0.959 -0.1208  0.0652  0.1577
45480W        W88471  20.997   2.939   1.944 -0.1972 -0.0179  0.1375
45481W        W88472  13.569  15.000   1.624  0.0823 -0.0121  0.0518
45482W        W88473  11.817   7.015  29.068  0.2162  0.0036  0.0939
45483W        W88474  34.389  10.450   1.331  0.1559 -0.1095  0.2209
45484W        W88475   5.270  17.420  25.531 -0.0530  0.2536 -0.0656
45485W        W88476   0.747  24.022   6.385 -0.0848  0.2710 -0.2837
45486W        W88477  15.607   4.156  20.064 -0.0306  0.0165  0.0887
45487W        W88478  27.819   6.248  14.816  0.2679 -0.2590 -0.1833
45488W        W88479  11.809  32.084   4.278 -0.2272  0.3644 -0.1897
45489W        W88480  20.656  19.249  21.236  0.3563  0.3992 -0.1462
45490W        W88481   6.938  31.918  18.303  0.4701  0.0934 -0.2092
45491W        W88482  10.312  17.757   6.782  0.0313 -0.1841 -0.0917
45492W        W88483   6.026  13.614  15.943 -0.0955 -0.0640  0.2509
45493W        W88484  34.457  22.372  20.461  0.1073 -0.0213  0.1739
45494W        W88485  31.984  13.349  20.371  0.1247  0.1551 -0.2209
45495W        W88486  10.967  11.582   7.706 -0.1078  0.4769 -0.3790
45496W        W88487   6.220  16.715   7.363  0.0239 -0.1237 -0.0366
45497W        W88488   0.266  27.312   7.769 -0.0235  0.0541 -0.0518
45498W        W88489   5.951  17.576  27.995  0.2529 -0.2935 -0.0867
45499W        W88490   4.640  27.871   5.989  0.1611  0.1684  0.1543
45500W        W88491  32.417   9.486  21.154 -0.1344 -0.2154 -0.1356
45501W        W88492   8.191   4.379  15.922 -0.0798 -0.1492 -0.2819
45502W        W88493  11.436  29.141   4.992  0.3123  0.0202 -0.0239
45503W        W88494  15.872  12.320  23.265 -0.2441 -0.1152  0.0355
45504W        W88495  20.049  25.431   3.109  0.4997 -0.2902  0.0304
45505W        W88496   5.689  22.735   5.250  0.0879 -0.0742  0.1754
45506W        W88497  15.276  28.951  22.173 -0.0914  0.1162 -0.3356
45507W        W88498   7.806  16.583  10.720  0.1654  0.0018  0.0688
45508W        W88499  19.428  14.933   1.141  0.0715  0.2046  0.0031
45509W        W88500  12.752  14.523   5.618  0.0330  0.0908 -0.0707
45510W        W88501   9.695  30.723   1.457  0.2273 -0.0083 -0.0746
45511W        W88502  32.154  23.344   0.999 -0.0259 -0.0486  0.2424
45512W        W88503   4.510  10.245  10.804 -0.0567  0.4095 -0.1191
45513W        W88504  12.219  26.267   9.494  0.2841  0.1263 -0.0063
45514W        W88505   1.366  11.861   2.015  0.0613 -0.1532  0.4004
45515W        W88506  32.470  21.289  26.942  0.0326  0.0376  0.2586
45516W        W88507   7.143  34.173   7.757  0.0814 -0.0342 -0.6395
45517W        W88508  21.718  13.659  26.094 -0.4866 -0.2443  0.0607
45518W        W88509  15.674   3.241  22.286  0.0385  0.0242  0.1165
45519W        W88510   8.924  20.217   4.720  0.2565 -0.2132  0.1267
45520W        W88511   9.336  15.395  24.018 -0.0337  0.0126 -0.2660
45521W        W88512  15.163  12.772   9.790 -0.5416 -0.0858  0.3415
45522W        W88513  12.728  16.076   6.509  0.0411 -0.0279 -0.1469
45523W        W88514  12.789  29.037   9.519  0.3994  0.3833  0.1654
45524W        W88515   4.907  15.204  20.825 -0.1191  0.1898  0.0285
45525W        W88516  16.558   9.234  18.561  0.1792 -0.2387 -0.0674
45526W        W88517   8.817  29.898   8.928 -0.3757  0.0050 -0.0690
45527W        W88518  19.863   8.612  27.719 -0.0901 -0.0307  0.1583
45528W        W88519  14.051   0.562   1.391  0.0570 -0.0634  0.3113
45529W        W88520  30.350  30.395   1.555 -0.2296 -0.2481 -0.2676
45530W        W88521  15.600  20.210  25.713  0.0480  0.0580  0.1736
45531W        W88522  34.117  24.193  21.777 -0.3601 -0.3520 -0.2409
45532W        W88523   0.307  18.167  19.375 -0.2569  0.1009 -0.2185
45533W        W88524   1.000  32.761  25.614 -0.1521 -0.3024  0.3052
45534W        W88525   9.755  25.200  23.622 -0.2174 -0.1751 -0.0666
45535W        W88526  19.293  24.296  19.484  0.3090  0.0484 -0.1785
45536W        W88527   7.930   0.400   9.737  0.1777  0.3185  0.1355
45537W        W88528  29.358  12.871   9.492  0.0514 -0.2690  0.1533
45538W        W88529  14.184  24.723  27.037 -0.0972  0.1937  0.7537
45539W        W88530  28.251   8.782  13.432 -0.2255 -0.1608  0.1192
45540W        W88531  21.835  15.258   1.769  0.1622  0.1737 -0.0065
45541W        W88532   9.541  12.107  26.987 -0.2516 -0.3252 -0.1379
45542W        W88533   5.902  28.497   1.438 -0.0428 -0.0086  0.1147
45543W        W88534  11.329  28.011  18.627 -0.1804  0.0159 -0.0525
45544W        W88535   5.354  29.708  18.614 -0.3394 -0.0477 -0.0728
45545W        W88536  26.082  15.594   1.440  0.0249  0.0509  0.1401
45546W        W88537   5.741  15.305  15.355  0.2704 -0.3478 -0.1261
45547W        W88538  13.502  29.185  22.745 -0.0993 -0.1148  0.0919
45548W        W88539  19.656  28.352  19.021 -0.0868 -0.0184 -0.2754
45549W        W88540  11.353  18.320   1.963 -0.1758 -0.0953  0.2735
45550W        W88541  28.659  15.669   1.778 -0.0491 -0.2563 -0.0872
45551W        W88542   3.869   0.911  17.816 -0.0816 -0.1402 -0.1048
45552W        W88543  23.720   6.413  26.725  0.2222  0.1167 -0.1549
45553W        W88544  32.423  15.586  25.501 -0.2315 -0.3862 -0.0618
45554W        W88545  25.330  16.441   8.960 -0.0450 -0.3285  0.0910
45555W        W88546  21.836  26.520   0.908 -0.5288 -0.0706  0.0119
45556W        W88547  14.600  25.127   7.448  0.3940 -0.1193 -0.0717
45557W        W88548   9.933  28.650  14.714 -0.0232  0.4178 -0.1403
45558W        W88549  28.249  10.343   3.481 -0.0222 -0.0649  0.0107
45559W        W88550   1.649  31.373  15.724 -0.0058 -0.0843 -0.2453
45560W        W88551  12.913  17.983   0.154  0.0612  0.3914 -0.3719
45561W        W88552  19.952  21.039  18.475  0.1267 -0.0092 -0.0594
45562W        W88553  33.812  14.655  26.703 -0.1511  0.1439 -0.2337
45563W        W88554  12.531  25.462  16.987 -0.3540  0.0009  0.3485
45564W        W88555  32.445  23.973   1.926 -0.0712  0.0414  0.0186
45565W        W88556  18.631  25.903   5.671 -0.2199 -0.1087 -0.1597
45566W        W88557   1.126  28.966   6.943  0.0528  0.2164 -0.0715
45567W        W88558   3.291  24.076  14.598 -0.1197  0.1936  0.1084
45568W        W88559  17.277  16.787   8.142  0.3399  0.1123  0.2477
45569W        W88560  12.843  18.135  14.961 -0.0239 -0.0180  0.1916
45570W        W88561   6.173  20.463  16.162  0.0075  0.1642 -0.0332
45571W        W88562  16.792   7.048   3.436 -0.5355 -0.2892  0.1978
45572W        W88563  17.592  24.213  16.592 -0.2856  0.0628 -0.0471
45573W        W88564   7.437  30.580   3.444 -0.0324 -0.1608 -0.0371
45574W        W88565   5.889  17.839  22.545  0.0381  0.2544  0.2167
45575W        W88566  13.943  10.846  14.394 -0.0567  0.3887  0.0228
45576W        W88567  12.482  13.125   3.566 -0.2084 -0.2553  0.2099
45577W        W88568  33.454  16.977  17.214  0.0106  0.1160  0.0906
45578W        W88569   9.453   0.110  23.461  0.0513 -0.1053 -0.3054
45579W        W88570   2.156   7.964  16.596  0.0487  0.0921 -0.0407
45580W        W88571  25.467   3.434  24.330  0.2615  0.2702 -0.1387
45581W        W88572  25.674  11.235  15.716  0.3581 -0.1930  0.0887
45582W        W88573   4.191  22.016   1.592 -0.1786 -0.1293  0.0828
45583W        W88574  10.191  13.673  23.710 -0.2410 -0.0601  0.1550
45584W        W88575   7.573  26.921  20.343 -0.3199 -0.0020 -0.1966
45585W        W88576  24.012  21.857   6.813 -0.1533 -0.1071 -0.0606
45586W        W88577   7.631  21.850  27.491  0.0406 -0.2253 -0.1218
45587W        W88578   4.616  29.601  24.923 -0.0519 -0.2792 -0.0194
45588W        W88579   2.620  25.526  17.978 -0.2172  0.1005 -0.0174
45589W        W88580   4.251  14.320  22.547  0.2188 -0.2373  0.0724
45590W        W88581  15.756  28.500  17.826  0.2187 -0.1597 -0.1924
45591W        W88582  29.439  32.922  25.901  0.0599  0.1532 -0.1513
45592W        W88583  23.787   4.461  25.015 -0.2739  0.0861  0.0463
45593W        W88584  28.923  22.318   1.271 -0.0404  0.3724 -0.3807
45594W        W88585  14.993  23.214  24.779 -0.0156  0.1401  0.0209
45595W        W88586   2.980  16.243  18.304 -0.2780 -0.0465 -0.0342
45596W        W88587   7.364  22.720  15.229  0.1996  0.0270 -0.0463
45597W        W88588  34.662  19.716   9.356 -0.0810  0.0344 -0.0647
45598W        W88589  23.208  28.334   1.913  0.0280  0.2327  0.0499
45599W        W88590  15.177  29.180   3.751 -0.3410  0.3585 -0.1652
45600W        W88591  25.648  26.370   5.074  0.1284 -0.2764 -0.0106
45601W        W88592  20.492  34.243   7.709  0.0235  0.0700  0.2385
45602W        W88593   8.481  24.983   8.842 -0.1548 -0.0694 -0.0978
45603W        W88594  16.021  23.628   4.151 -0.1106  0.0727 -0.0828
45604W        W88595  31.753   7.118  24.371  0.0438 -0.0675 -0.2840
45605W        W88596   1.657  15.597  15.925 -0.0002 -0.0853 -0.2097
45606W        W88597  10.166  26.023   0.106 -0.0176 -0.1928  0.1084
45607W        W88598   9.975  23.167  22.108  0.1507 -0.0824 -0.1134
45608W        W88599  12.812   3.334  21.703 -0.1478  0.3346 -0.4513
45609W        W88600  21.943  27.516  26.191 -0.0205  0.2365  0.2668
45610W        W88601   4.643  31.730   2.668 -0.0269  0.2592  0.0204
45611W        W88602  18.626   2.409   9.148  0.1408  0.0457  0.2080
45612W        W88603  24.713   6.545  20.111 -0.1698 -0.1841 -0.0607
45613W        W88604   6.057  26.620  28.932  0.0392  0.2568 -0.2142
45614W        W88605   4.827  10.539   4.165  0.0667 -0.3363 -0.2762
45615W        W88606  18.261   0.341  24.818 -0.4086 -0.1137 -0.6716
45616W        W88607  30.417  27.069  20.147 -0.0392  0.0030 -0.1069
45617W        W88608   0.188  16.227  17.432  0.3909  0.1806  0.2984
45618W        W88609  20.326   2.097  19.017  0.0029 -0.0162 -0.5069
45619W        W88610   3.649  27.985   0.327  0.0696  0.0400 -0.0861
45620W        W88611   4.085  34.222   0.343  0.2836 -0.0543 -0.0790
45621W        W88612  14.345   1.685  27.955 -0.1876 -0.0969  0.0828
45622W        W88613  18.550  22.158   8.598  0.0994  0.2968  0.1707
45623W        W88614   9.767  17.581  15.708 -0.3811 -0.0130  0.1820
45624W        W88615   2.933  16.746  28.329 -0.2326  0.1667 -0.0125
45625W        W88616   3.914  18.281   0.301  0.4105  0.0958  0.2911
45626W        W88617   5.767   6.538   1.297 -0.0191 -0.0354  0.1442
45627W        W88618   8.501  24.029   0.592  0.0983 -0.2464 -0.0876
45628W        W88619  20.781  18.078   9.862 -0.1069 -0.0533  0.2646
45629W        W88620  10.064  10.468   8.385  0.0667 -0.4182 -0.2183
45630W        W88621  27.556  15.907   6.328  0.0397 -0.0578  0.0721
45631W        W88622  33.252  19.287  16.283 -0.2888 -0.1287  0.0309
45632W        W88623  19.916  24.504   5.590 -0.3239 -0.0347 -0.0964
45633W        W88624  15.473  17.712  24.203 -0.3143 -0.4311 -0.1422
45634W        W88625   0.814   9.614  25.808 -0.1979 -0.1383 -0.2742
45635W        W88626  13.507  20.178   8.697 -0.1168 -0.0482  0.2196
45636W        W88627  31.106  27.442  25.576  0.4339 -0.0011  0.0870
45637W        W88628   5.175  20.398   7.014 -0.0973 -0.0133  0.0535
45638W        W88629   7.822  21.200  19.310  0.1367 -0.0188  0.2162
45639W        W88630  14.051  23.423  26.419 -0.1203  0.0191 -0.0322
45640W        W88631  10.531  24.596  15.771  0.0077 -0.0429  0.1090
45641W        W88632  19.302  31.253   5.111 -0.1361  0.2671  0.0790
45642W        W88633   3.423  17.166   0.551  0.1424 -0.2443 -0.0002
45643W        W88634   4.656  24.038  25.175  0.1781 -0.0333  0.0155
45644W        W88635  10.101  26.000  24.099 -0.1998  0.1287 -0.0053
45645W        W88636   7.047  27.667   8.891  0.0707 -0.0830 -0.1373
45646W        W88637  32.301  30.755  25.218  0.1089 -0.0415 -0.3542
45647W        W88638  12.281  21.802  23.568  0.0748  0.0676 -0.0076
45648W        W88639  16.566  30.891  15.199 -0.1488 -0.3313 -0.0965
45649W        W88640   5.860  12.290  27.109  0.2480 -0.0348  0.0353
45650W        W88641  33.210   0.261   9.599  0.0645 -0.1967  0.2207
45651W        W88642  11.156  30.814   6.352  0.0460 -0.0912  0.2526
45652W        W88643   4.806  24.148  18.483 -0.2598  0.3520 -0.1360
45653W        W88644  14.651   2.877  23.651  0.0238  0.0977  0.0390
45654W        W88645   2.944  11.397   7.510  0.1020 -0.0155 -0.2978
45655W        W88646   7.182   3.936   3.431 -0.0538 -0.2693 -0.0218
45656W        W88647  20.537   0.057  17.231  0.0456 -0.0800  0.0578
45657W        W88648  20.865   2.464  26.709 -0.0187 -0.2268  0.1328
45658W        W88649  29.484  22.317  16.948  0.0327 -0.0731  0.1271
45659W        W88650   9.620  23.707   5.236 -0.3378  0.0082 -0.2863
45660W        W88651  14.088  16.495   0.343 -0.1171 -0.4690  0.2843
45661W        W88652  10.798  29.922  27.428  0.1920 -0.1915 -0.1461
45662W        W88653  27.159  29.271  13.172 -0.0400 -0.1585 -0.0756
45663W        W88654  34.406   3.816  29.131 -0.0405 -0.0860 -0.1346
45664W        W88655   6.206   8.292   1.942  0.1130  0.2045 -0.2869
45665W        W88656   2.176  17.017  16.424 -0.1555 -0.1449 -0.1119
45666W        W88657   0.691  27.637  27.033  0.2625 -0.0293 -0.0717
45667W        W88658   1.087  24.727  23.044  0.0936  0.1302 -0.0966
45668W        W88659   3.716  27.262   9.410  0.3451  0.0344  0.0440
45669W        W88660   7.077   7.570  24.129  0.0299 -0.1010  0.2116
45670W        W88661   1.092  25.046  23.554  0.2703  0.0751  0.0868
45671W        W88662  10.457  16.794  27.515 -0.1191  0.0359 -0.3618
45672W        W88663   7.187   8.802  21.605 -0.0815 -0.0226 -0.0340
45673W        W88664   7.472   8.934   2.562  0.1779  0.2145 -0.3756
45674W        W88665   1.315  32.800  21.844  0.0906 -0.0774 -0.0429
45675W        W88666  13.424   7.239  16.422  0.0110 -0.0650 -0.1238
45676W        W88667  13.540  23.413  16.212  0.0899  0.0176 -0.1599
45677W        W88668   1.141   9.625   9.014  0.2485  0.0604  0.5177
45678W        W88669   3.310  26.937  13.219 -0.2499  0.1451 -0.2234
45679W        W88670   9.061  20.650   3.230  0.1435 -0.0870  0.0470
45680W        W88671   8.513   9.841   6.455  0.1756 -0.0305 -0.1316
45681W        W88672   8.786  24.016  23.683 -0.4214 -0.2289 -0.0436
45682W        W88673   5.340  26.584   8.246  0.0172 -0.0474 -0.0468
45683W        W88674  32.655  31.018   5.858  0.0753  0.0024 -0.1008
45684W        W88675   8.370   4.475  15.106  0.2147 -0.1858 -0.0476
45685W        W88676  14.395   8.722   2.419 -0.2024 -0.0401 -0.0412
45686W        W88677  11.613  22.581   9.000  0.1512  0.1704 -0.0712
45687W        W88678   5.691  17.983  19.862 -0.0437  0.0898 -0.3108
45688W        W88679   2.061   2.572  21.459  0.1085  0.1270  0.1040
45689W        W88680   9.345  17.729  17.104 -0.2070  0.4481  0.0829
45690W        W88681   5.459  14.932  17.032 -0.0522  0.1843  0.2461
45691W        W88682  16.108  26.417  21.906  0.0276  0.1681 -0.3160
45692W        W88683  30.512  23.875  22.955 -0.1030  0.0031 -0.0874
45693W        W88684  19.500  26.486  16.061  0.0113 -0.1084 -0.2384
45694W        W88685  21.040  13.283  19.660 -0.0698 -0.1378  0.1143
45695W        W88686   0.921  15.848  17.089  0.0290  0.0858 -0.1786
45696W        W88687  13.106   7.654  18.602  0.0165 -0.0811  0.2115
45697W        W88688  12.993  28.071   0.433 -0.0516  0.1021 -0.3059
45698W        W88689  19.723  24.689  14.540  0.2002  0.0025  0.4331
45699W        W88690  16.511  12.121  23.971 -0.2441  0.0831  0.0379
45700W        W88691  20.059  31.371  21.740 -0.0407  0.0490  0.1079
45701W        W88692   2.266  23.161  18.531  0.2323 -0.1069  0.0835
45702W        W88693  34.019   4.228   4.950 -0.0610 -0.2495 -0.0647
45703W        W88694  10.416  32.660  15.045 -0.0747  0.0447 -0.0454
45704W        W88695   9.674   1.275  20.174  0.1536 -0.2122  0.1605
45705W        W88696  32.766   8.096  19.458 -0.0832  0.1781 -0.1361
45706W        W88697  20.722  28.215   1.717 -0.2114  0.2753  0.2068
45707W        W88698  20.914  23.069  26.125  0.0173 -0.0258 -0.0959
45708W        W88699  11.771  33.680  17.332  0.0035 -0.1062 -0.3056
45709W        W88700   4.767  30.224  18.077 -0.0942 -0.1505 -0.2429
45710W        W88701   9.821   0.485   0.087  0.1315 -0.2069  0.1045
45711W        W88702  10.764  10.854   6.976 -0.0759  0.3346  0.0840
45712W        W88703   4.767   8.127  16.291 -0.4091 -0.2605 -0.1642
45713W        W88704  20.455  22.458  13.320  0.0069  0.0641 -0.0578
45714W        W88705   4.189  30.803  19.377  0.0745  0.0089 -0.1217
45715W        W88706  13.500  21.387  24.583  0.0132  0.0376  0.2261
45716W        W88707  32.825  29.375  16.387 -0.0738  0.1634 -0.1482
45717W        W88708   4.078  29.011  15.849  0.3405  0.2368  0.2566
45718W        W88709  22.258   2.433  21.277  0.2231  0.1056  0.3175
45719W        W88710  24.880   1.211  13.521 -0.0951  0.0968 -0.1697
45720W        W88711  19.793  30.187  23.738 -0.0078  0.3675  0.3201
45721W        W88712   5.127   7.540   0.065  0.0539 -0.1655 -0.2068
45722W        W88713  11.233   7.668  20.341  0.4840 -0.0847 -0.0393
45723W        W88714  16.570   3.608  21.241  0.3077  0.0176  0.3323
45724W        W88715  22.304  22.757   4.813  0.1471 -0.2982  0.0352
45725W        W88716   0.412  23.151  19.214  0.0632  0.1302 -0.0581
45726W        W88717  15.483   3.691   3.038  0.0497  0.3873 -0.0678
45727W        W88718  25.389  16.405  21.044  0.1150  0.0249  0.1825
45728W        W88719  12.548   5.314  22.499 -0.0409 -0.3217 -0.0064
45729W        W88720  13.372  10.814  28.633  0.1948  0.0873 -0.1872
45730W        W88721  16.406  12.173  14.276  0.0363  0.1467  0.0889
45731W        W88722  15.588  21.948   2.043  0.0690 -0.0697  0.3146
45732W        W88723  11.539   3.201  24.372  0.1093  0.2897  0.0312
45733W        W88724   0.309  28.251  16.535 -0.0872 -0.0984 -0.0724
45734W        W88725  11.396  29.284   0.657 -0.0468 -0.0305 -0.1238
45735W        W88726   1.362  32.871  27.363  0.1199  0.0374  0.0438
45736W        W88727  11.244  27.928  21.662  0.2624  0.2967 -0.0249
45737W        W88728  20.672  32.584  13.384 -0.0675  0.0971 -0.1573
45738W        W88729   5.537  25.683   7.168 -0.1884 -0.0535 -0.1719
45739W        W88730  22.619  29.594   3.883 -0.1234  0.0976 -0.1593
45740W        W88731   0.878  16.421  23.120  0.1944  0.0309 -0.2864
45741W        W88732   9.942  24.882  23.252  0.1256  0.0583  0.2067
45742W        W88733   3.009  20.989  22.465  0.1570  0.1276 -0.2418
45743W        W88734  33.137  16.476  17.280 -0.1815  0.0479 -0.1820
45744W        W88735   7.417  23.937   0.811  0.0173  0.2108 -0.3902
45745W        W88736   8.302  31.889   0.599  0.4083 -0.0112  0.1006
45746W        W88737   9.601  10.893  23.340 -0.1028 -0.1394  0.0072
45747W        W88738  25.469  29.694  13.889  0.0686  0.2801  0.1087
45748W        W88739   8.876  33.981  19.610  0.2859  0.1229  0.0403
45749W        W88740  28.053  20.924  23.302  0.2317 -0.0070 -0.0367
45750W        W88741  23.864   7.971  15.208  0.0947  0.0128 -0.0900
45751W        W88742  29.871   0.346  15.799  0.0988  0.4811  0.0068
45752W        W88743   0.120  22.481  16.065  0.0866  0.0222 -0.0154
45753W        W88744   7.333  21.277  19.227 -0.0189  0.0399 -0.1007
45754W        W88745  27.190  27.261  23.901  0.5897  0.0733 -0.0988
45755W        W88746  31.726  26.057  14.966 -0.0898 -0.1910 -0.2376
45756W        W88747   0.567  32.573  15.305  0.4453 -0.2514  0.2598
45757W        W88748  33.094   0.958  16.327  0.0095  0.1710 -0.0743
45758W        W88749  34.680   9.563  26.008  0.0089  0.3411 -0.0918
45759W        W88750  18.684   5.183  16.053 -0.1217 -0.1230  0.1830
45760W        W88751   3.989  16.750   3.215  0.2159  0.1654 -0.3024
45761W        W88752  34.629  10.583  20.777 -0.0006 -0.0582  0.0085
45762W        W88753   1.656  26.746  22.567  0.0894 -0.2058 -0.2334
45763W        W88754  14.920  11.546  17.183  0.0667 -0.0205 -0.0126
45764W        W88755  12.333  26.446  15.103  0.0975  0.2159 -0.0074
45765W        W88756   5.962   6.064  26.934 -0.2030  0.1618  0.1589
45766W        W88757   7.836  20.512  17.616  0.0284 -0.2163  0.0536
45767W        W88758   3.272   4.854  18.236  0.1584  0.1398  0.2251
45768W        W88759   8.845  15.133  17.504  0.1947  0.0454 -0.3470
45769W        W88760   1.243  29.687  15.797  0.1041  0.0054 -0.1696
45770W        W88761  13.867  28.753  15.496  0.1304 -0.0100  0.3014
45771W        W88762   7.116  13.221   1.188  0.0218  0.2551 -0.3621
45772W        W88763  23.656  20.672  14.848  0.1389 -0.1508 -0.0067
45773W        W88764  30.215  20.713  20.488  0.0835  0.2309  0.1585
45774W        W88765   1.112  27.608  23.011  0.1352 -0.0125 -0.0651
45775W        W88766  11.952  25.903   5.155 -0.1785 -0.1378  0.0795
45776W        W88767   4.385  16.859  18.770  0.1081 -0.3532 -0.0275
45777W        W88768   5.492  11.302  25.277  0.0414  0.0037  0.1437
45778W        W88769   5.055  31.967  23.389  0.1381  0.0526  0.1853
45779W        W88770   6.488  26.321  24.392  0.2037 -0.0932 -0.0335
45780W        W88771   7.829  16.903  21.363  0.1093 -0.2012  0.0611
45781W        W88772   8.518  20.489  20.470 -0.1732 -0.2860  0.1186
45782W        W88773  28.263  23.824  14.280 -0.2107  0.1937 -0.0661
45783W        W88774  11.439  26.196  21.880 -0.2067  0.3502  0.1512
45784W        W88775  34.265  26.307  17.585  0.1548  0.1025 -0.1116
45785W        W88776   5.583  18.302  22.525 -0.1744 -0.1469 -0.4339
45786W        W88777   0.430  25.986  18.356 -0.1239  0.3914  0.1861
45787W        W88778  22.400   5.901  16.350 -0.3898  0.1730 -0.1045
45788W        W88779  14.064   9.034  26.111 -0.1192 -0.2286 -0.1394
45789W        W88780  24.077  27.984  15.794 -0.2578  0.1582 -0.0117
45790W        W88781  33.720  29.936  21.164 -0.0358  0.0134  0.0411
45791W        W88782   3.481  24.335  17.353 -0.1740 -0.1529  0.0720
45792W        W88783   6.268   8.821   0.636  0.0075  0.3375 -0.3784
45793W        W88784  14.120  20.845  24.873 -0.0239  0.2424 -0.2213
45794W        W88785  28.405  29.982  17.387 -0.1796 -0.0134 -0.0943
45795W        W88786   7.855  30.326  16.836  0.0825  0.1141 -0.1118
45796W        W88787  27.665  31.686  14.392 -0.1212 -0.0465  0.1099
45797W        W88788  24.786  26.956  17.747  0.3160 -0.2540  0.3080
45798W        W88789   0.100  28.303  20.792  0.0676  0.2318 -0.2172
45799W        W88790  16.956  29.760  17.994 -0.0013 -0.3054  0.0768
45800W        W88791  13.039  23.755  27.244 -0.2282  0.0409 -0.2602
45801W        W88792  11.359  28.442  18.223  0.2451 -0.1996 -0.1180
45802W        W88793  10.231  21.180  18.884  0.1618  0.1143 -0.2987
45803W        W88794  13.126  19.688  16.676  0.1635 -0.0237  0.0676
45804W        W88795  29.426  10.017  21.242  0.1310 -0.0561  0.0814
45805W        W88796   2.741  26.242   4.923 -0.2029  0.0160 -0.2195
45806W        W88797  27.535  26.420  18.508 -0.1007  0.0565  0.1942
45807W        W88798   3.245  34.116  20.006 -0.0596  0.0972  0.0105
45808W        W88799  27.357  29.148   3.219 -0.0437 -0.1239  0.3707
45809W        W88800  22.015  26.080  19.026 -0.0403 -0.1046 -0.1864
45810W        W88801  30.605  11.976  15.568  0.3156 -0.2865 -0.0668
45811W        W88802  10.392  17.741  18.199 -0.0641 -0.0810 -0.0841
45812W        W88803   5.765  31.523  27.975  0.0491 -0.1290  0.0271
45813W        W88804  22.630   9.836  13.795 -0.1496  0.0553 -0.0066
45814W        W88805   8.192  19.070  14.373  0.1089  0.0246  0.0012
45815W        W88806  26.712  24.795  17.704 -0.0015  0.2211  0.1977
45816W        W88807  25.575  31.231  22.038  0.3919 -0.2541 -0.1070
45817W        W88808   8.703  16.992  18.065 -0.0924 -0.4220 -0.0709
45818W        W88809  14.178   5.809  22.951  0.1880  0.0858 -0.0162
45819W        W88810  17.960  19.611  15.287 -0.0661 -0.0940  0.1693
45820W        W88811  14.096  19.849  24.880 -0.1583  0.1901  0.1451
45821W        W88812   7.137  23.479  17.221  0.1195  0.0543 -0.1229
45822W        W88813  13.380  29.291   0.276 -0.0034 -0.0879  0.4867
45823W        W88814  13.705  26.949  17.144  0.0801  0.2194 -0.0731
45824W        W88815  31.446  27.803  15.065 -0.0403 -0.0337 -0.0465
45825W        W88816   1.768  27.374  14.663 -0.0854 -0.1739  0.2392
45826W        W88817  23.331  31.946  17.285 -0.2415  0.2359  0.1850
45827W        W88818  21.539  16.636  18.165 -0.1433 -0.1714  0.1415
45828W        W88819   8.205  30.930  19.843  0.0989 -0.1340  0.0278
45829W        W88820  19.450  12.759  24.000 -0.2078  0.4620 -0.2145
45830W        W88821  17.102  20.180  12.688 -0.1664 -0.0987 -0.0743
45831W        W88822  14.986  30.418  28.005 -0.0002  0.2138 -0.2186
45832W        W88823  18.829  19.540  14.972 -0.0737  0.2943 -0.2103
45833W        W88824   0.404  19.847  15.241  0.1578 -0.2690 -0.0305
45834W        W88825  26.176  20.604  13.919 -0.0659  0.0236  0.0855
45835W        W88826  14.982  21.483  18.659  0.3648  0.5104  0.2458
45836W        W88827  11.625  16.689  25.200  0.0332  0.1848 -0.0978
45837W        W88828  13.410  19.402  14.569 -0.2641 -0.2421 -0.1239
45838W        W88829   8.327  17.298  23.920  0.2029 -0.0765  0.1535
45839W        W88830  15.469  24.862  20.291  0.1695 -0.1233  0.0835
45840W        W88831   7.817  14.835  21.198  0.0998  0.1753 -0.0186
45841W        W88832   6.638  28.539  27.753 -0.1814 -0.0225  0.2236
45842W        W88833   0.623  16.951  18.674 -0.0274  0.3510 -0.1935
45843W        W88834  19.041   9.003  16.980  0.2610 -0.1214 -0.1394
45844W        W88835  20.599  31.935  19.691  0.2957  0.2892  0.0954
45845W        W88836   7.415  32.849  17.384 -0.0123  0.1239  0.2696
45846W        W88837   4.897  15.866  23.781  0.0672 -0.0736  0.1445
45847W        W88838   5.688   7.216   7.431  0.0786 -0.0430  0.0133
45848W        W88839  11.469  21.789  18.197 -0.2672 -0.0756 -0.1221
45849W        W88840  14.318   4.145  18.576 -0.2763  0.0000 -0.1556
45850W        W88841  22.925  29.639  21.915 -0.0581  0.0151 -0.1636
45851W        W88842  30.752  19.983  23.336 -0.2396  0.1040  0.3186
45852W        W88843   2.440   9.759  16.024  0.2133  0.0434  0.0531
45853W        W88844  16.307  33.658  15.660  0.3145  0.0941  0.0930
45854W        W88845  12.402  11.551   2.670  0.3967 -0.0109 -0.2938
45855W        W88846  12.460  19.882  15.293  0.1193  0.1607 -0.0653
45856W        W88847  19.886  19.236  16.843 -0.1971  0.1479  0.0935
45857W        W88848   4.032  12.727  19.872 -0.2710  0.1590 -0.0408
45858W        W88849   6.355  28.388  16.350 -0.0508  0.0624  0.0758
45859W        W88850   3.952  27.833   2.349 -0.2710  0.3402 -0.0731
45860W        W88851  27.730  30.097   2.455  0.0830  0.0330 -0.1134
45861W        W88852  31.679  15.950   2.148 -0.1604 -0.1603 -0.1228
45862W        W88853  32.209  17.105  15.405 -0.0443  0.3120 -0.0839
45863W        W88854  16.824  29.254  22.585  0.1430  0.1677  0.4182
45864W        W88855   7.366  11.252  26.841  0.1705 -0.5230 -0.0750
45865W        W88856  16.300   9.751  19.789  0.1031 -0.2606  0.1020
45866W        W88857   4.622  34.798   2.872 -0.0069  0.0351 -0.1651
45867W        W88858   6.933  31.978  15.454  0.0628  0.0555 -0.0303
45868W        W88859  15.585  24.094  16.600 -0.1497 -0.1430  0.1158
45869W        W88860   9.492  32.041  20.902  0.3142  0.0107  0.0777
45870W        W88861  21.684  33.034  17.154  0.0322  0.1514 -0.1576
45871W        W88862   6.596  24.145  21.325  0.2271 -0.1139 -0.0099
45872W        W88863  15.615  32.654  22.998 -0.2972  0.0563 -0.1119
45873W        W88864   4.045  16.488  18.905  0.0944 -0.2118 -0.0027
45874W        W88865  25.719  19.280  23.070 -0.0319  0.1649  0.0994
45875W        W88866  13.241   0.495  21.260  0.0323  0.0846 -0.0534
45876W        W88867  34.389  18.206  27.633 -0.0221  0.0193  0.1872
45877W        W88868   7.260  32.332  26.118 -0.2774 -0.2717  0.2050
45878W        W88869  13.622  29.760  15.475  0.2402 -0.0706  0.0368
45879W        W88870  32.182  33.426  23.295 -0.3825  0.2038 -0.0186
45880W        W88871  18.865  28.969  19.087  0.0370 -0.0377  0.1983
45881W        W88872  28.538   5.046  26.440 -0.0950  0.3373 -0.0307
45882W        W88873  13.529  18.966   0.922  0.1230 -0.1337 -0.3037
45883W        W88874  23.294  33.533  15.810 -0.0822  0.1974 -0.3024
45884W        W88875  18.524  22.893  20.865 -0.5011  0.1108  0.1059
45885W        W88876  12.449  31.445  24.103 -0.2744 -0.3276  0.0200
45886W        W88877   1.595  11.531  26.720 -0.0462  0.0317 -0.0136
45887W        W88878  22.527   3.063  22.697  0.1244 -0.1873 -0.1747
45888W        W88879  25.166  26.959  20.400 -0.1832 -0.0112  0.0178
45889W        W88880  30.642  23.441  25.485  0.1814  0.2622 -0.1258
45890W        W88881  13.907  15.570  24.430 -0.1455 -0.4252 -0.2241
45891W        W88882  23.456   4.795  15.556  0.1993  0.0774 -0.0513
45892W        W88883   4.958  32.062  22.061 -0.2905 -0.3949  0.3075
45893W        W88884  14.811  14.728  16.051 -0.0201 -0.2353 -0.2712
45894W        W88885  11.622  26.173  15.574  0.2004 -0.2678 -0.3375
45895W        W88886  32.465   0.445  21.104 -0.3541 -0.0324 -0.0776
45896W        W88887   8.704  24.616  19.739  0.0289 -0.4030 -0.0188
45897W        W88888  22.659  25.102  15.952 -0.0879  0.0427 -0.3560
45898W        W88889   7.789  21.103  20.325 -0.0276 -0.1503  0.1449
45899W        W88890   5.314  20.465  14.951 -0.1514  0.0257  0.1132
45900W        W88891   4.918   2.949  28.901  0.2154 -0.1187 -0.3278
45901W        W88892  10.396  13.618  24.927  0.1889  0.3619 -0.0143
45902W        W88893  10.567   0.485  21.250 -0.1631  0.3180 -0.2784
45903W        W88894  18.119   3.279  14.913  0.0225  0.3765 -0.2239
45904W        W88895  34.483  14.752   3.680  0.2446  0.0045  0.2163
45905W        W88896  17.459  30.819  18.643  0.0130  0.0545 -0.0951
45906W        W88897  34.801  20.903  16.328  0.0535  0.1659  0.0101
45907W        W88898   6.648  24.915  18.014 -0.1731 -0.0113  0.0420
45908W        W88899   6.648  24.965  27.721  0.1593 -0.4138 -0.1418
45909W        W88900  19.734  21.797  20.632 -0.0599  0.3009  0.0244
45910W        W88901   1.662   5.102  14.772 -0.1867 -0.2744 -0.2515
45911W        W88902   9.347  24.266  27.108 -0.1969  0.0286 -0.1512
45912W        W88903   3.911  22.441   0.828 -0.1634 -0.3358 -0.1497
45913W        W88904   0.287   1.665  15.553  0.1715  0.0658 -0.4319
45914W        W88905  12.398   5.581  19.308 -0.0669 -0.1229 -0.0608
45915W        W88906  11.465  32.043   7.392  0.1389  0.0168 -0.3611
45916W        W88907   6.479  16.190  24.425  0.0318 -0.2128 -0.1586
45917W        W88908  33.825  17.021  18.820  0.4603  0.2562  0.0893
45918W        W88909   8.209  34.740  15.882 -0.1578 -0.3296 -0.0859
45919W        W88910   9.621  15.330  16.663 -0.0634 -0.2668  0.1783
45920W        W88911  27.723  23.224  29.110  0.1544 -0.0063 -0.0786
45921W        W88912  12.677  26.773  20.144  0.1814 -0.1653 -0.0880
45922W        W88913  20.990  16.214  14.965 -0.1744 -0.3477 -0.0317
45923W        W88914  27.075  21.544  20.811  0.1196 -0.0330  0.2050
45924W        W88915  11.366  15.018  22.278  0.1386 -0.2393  0.0108
45925W        W88916  12.936  18.977  20.219 -0.0817 -0.2952 -0.0219
45926W        W88917  14.316  21.985  22.048 -0.0834  0.1683  0.0380
45927W        W88918  33.827  23.733  14.513 -0.0680  0.1594  0.1048
45928W        W88919  29.201  31.521  17.765  0.1076  0.3779  0.2347
45929W        W88920  10.699  25.567  16.440  0.0036 -0.0676 -0.0187
45930W        W88921   6.354  33.068  20.469 -0.0009 -0.0468  0.1196
45931W        W88922   8.110  28.470  17.364 -0.2257 -0.4711 -0.0219
45932W        W88923  27.949  28.853  21.550 -0.0599  0.2152 -0.1902
45933W        W88924  23.788  29.129  24.965  0.0923  0.1242 -0.4026
45934W        W88925   1.502  33.144   1.364  0.3988  0.2510 -0.3496
45935W        W88926   8.348  23.131  14.354 -0.0073 -0.1347  0.0307
45936W        W88927  24.129   5.935   5.937 -0.1703 -0.0598  0.0349
45937W        W88928   0.279  31.288  15.078  0.0336 -0.0457 -0.2539
45938W        W88929   4.932   5.223  18.848 -0.0050  0.0908 -0.0269
45939W        W88930  19.639  28.559  15.130  0.2474  0.0889 -0.1918
45940W        W88931  12.578  19.571   6.108 -0.0101 -0.0165  0.1083
45941W        W88932  30.672  14.647  18.363  0.1472  0.1455 -0.1996
45942W        W88933  11.458  31.622  19.292  0.0019  0.0478  0.1582
45943W        W88934  12.849  17.142  17.686  0.0765 -0.1699  0.0150
45944W        W88935  19.463  28.613  17.024  0.2432 -0.1101  0.0756
45945W        W88936  15.026  29.975  28.425  0.2886 -0.2564 -0.0182
45946W        W88937  26.724  22.313  13.495 -0.0378  0.0696 -0.0074
45947W        W88938  15.196   2.225  26.074 -0.0222 -0.0364 -0.0460
45948W        W88939   4.753  14.838  23.398  0.0688  0.0054 -0.0610
45949W        W88940  15.808   8.411  19.195 -0.0373 -0.1658 -0.0179
45950W        W88941  18.148  15.516  13.279 -0.0702  0.2096 -0.2099
45951W        W88942  20.286  29.726  14.820 -0.1710  0.0493 -0.4108
45952W        W88943  11.396  31.771  18.308 -0.0985  0.3483 -0.0540
45953W        W88944  22.634   0.567   6.759  0.0383 -0.0744 -0.0373
45954W        W88945   5.067   2.102  19.779  0.4468  0.3431 -0.0577
45955W        W88946  32.779  11.170  21.846 -0.2331 -0.1067 -0.0622
45956W        W88947  32.743  20.804  14.556 -0.1641 -0.0361  0.1853
45957W        W88948  31.131  11.558   4.076 -0.2375 -0.1071 -0.1885
45958W        W88949  10.454  22.230   9.551 -0.4329 -0.2585  0.1128
45959W        W88950   7.188  20.085  24.383  0.1703  0.0041 -0.0138
45960W        W88951  12.560  22.762  26.240 -0.0858 -0.0054  0.1015
45961W        W88952  16.381  23.290  13.289 -0.0360 -0.0443  0.0059
45962W        W88953   1.698   3.354  22.224  0.2749 -0.0975  0.0906
45963W        W88954  29.012  20.621  27.191 -0.2680  0.0144 -0.2731
45964W        W88955  23.908  25.323  18.044  0.0323 -0.3440 -0.0196
45965W        W88956  30.606  11.306  25.126 -0.2295  0.2528 -0.1239
45966W        W88957   7.582   5.120  21.469  0.1398 -0.1140 -0.0853
45967W        W88958  12.353  33.800  27.210 -0.1785  0.0769  0.0650
45968W        W88959   9.300  25.319  15.525 -0.0154  0.0783  0.5050
45969W        W88960  10.982  25.051  18.230  0.2463  0.0234 -0.2275
45970W        W88961  29.196   0.255  24.125 -0.1330  0.0177 -0.1133
45971W        W88962  33.276  18.443  26.351 -0.2555 -0.2236 -0.1711
45972W        W88963  32.031  31.107  20.780 -0.0159  0.1331 -0.1873
45973W        W88964  22.839  19.133  17.067 -0.0544 -0.0055  0.0830
45974W        W88965   8.112   5.360   1.648  0.0491 -0.3961 -0.0626
45975W        W88966  33.549  28.273  17.501  0.3850 -0.1499 -0.3775
45976W        W88967   6.900   1.950  17.341  0.1786 -0.2926 -0.0744
45977W        W88968  18.935  29.338  20.175 -0.0615  0.3660 -0.1094
45978W        W88969   6.595  22.033  19.900  0.1327  0.0890  0.0169
45979W        W88970  12.113  20.773  21.174  0.0715 -0.1578 -0.0874
45980W        W88971  18.277  10.332  26.346  0.2772  0.1328  0.1501
45981W        W88972  10.959  22.704  21.130  0.4000  0.1522  0.1527
45982W        W88973  21.113   9.795  26.761  0.0297  0.0928  0.0480
45983W        W88974  13.771  25.074  27.932 -0.1388  0.3512  0.3660
45984W        W88975  15.616  27.231  20.815 -0.1936  0.0798 -0.1270
45985W        W88976  25.130  19.730  27.781  0.0084  0.1600 -0.0901
45986W        W88977   9.051   8.639  28.155 -0.1044  0.0049 -0.3811
45987W        W88978  11.908  16.692  25.613  0.1156 -0.0808 -0.0219
45988W        W88979  13.509  14.463  20.858 -0.2698  0.0583 -0.0257
45989W        W88980  27.882  19.584  20.714  0.0909 -0.2214  0.0132
45990W        W88981  12.466  11.159  24.547 -0.1180 -0.1335 -0.0805
45991W        W88982  24.731  30.907  27.524  0.1532 -0.6404  0.0237
45992W        W88983  22.726  26.518  13.208 -0.0583  0.2176 -0.1034
45993W        W88984   5.680  34.415  21.425  0.0113  0.0055  0.0697
45994W        W88985  14.647  20.020  22.374 -0.1261 -0.2444 -0.3370
45995W        W88986  17.568   2.913  20.181 -0.4118 -0.1182 -0.0616
45996W        W88987  30.738   0.271  17.185 -0.0283  0.0495 -0.2305
45997W        W88988  16.900  31.073  27.048 -0.1272 -0.1729  0.1064
45998W        W88989  11.681   3.715  17.901  0.1128  0.0880  0.2195
45999W        W88990   8.252  21.190  23.604 -0.1606  0.0716  0.1845
46000W        W88991  29.279   3.125  26.502 -0.1814  0.1308  0.3447
46001W        W88992  10.454   3.540  19.217 -0.0685  0.0838  0.1460
46002W        W88993  13.027  16.361  29.249 -0.2871 -0.0956  0.1312
46003W        W88994   6.877  22.382  19.046 -0.2462 -0.0906  0.2968
46004W        W88995  26.287  33.143  21.152  0.1053  0.3116 -0.2662
46005W        W88996  31.882   9.927  19.093  0.0226 -0.1011  0.2150
46006W        W88997   5.555   9.594  15.597  0.1866 -0.1132 -0.0634
46007W        W88998  11.425  24.693  20.754 -0.0147 -0.1702 -0.0719
46008W        W88999  11.002  16.864  19.266  0.2163  0.1267 -0.1014
46009W        W89000  14.478   8.868  18.726 -0.1645  0.0065  0.0717
46010W        W89001  32.440   0.613  28.074  0.1281 -0.1103  0.0520
46011W        W89002   2.388  25.114  23.910 -0.1566 -0.2653  0.1516
46012W        W89003  10.420  24.664  15.312  0.1661 -0.0670  0.0450
46013W        W89004  16.079   2.558  16.305 -0.1344  0.0685 -0.1282
46014W        W89005  16.665  27.935  17.685 -0.1957  0.1007 -0.0520
46015W        W89006   1.059  16.263  18.568  0.2545  0.1612  0.2190
46016W        W89007  11.234  20.580  16.770  0.1729  0.1195  0.1685
46017W        W89008  16.529   3.676  15.780  0.0482 -0.1685 -0.0524
46018W        W89009   1.842  29.917  21.557  0.0384 -0.0027  0.0859
46019W        W89010   6.368  15.636   2.087  0.1692  0.1922  0.1236
46020W        W89011  26.277  31.792  14.909 -0.3507  0.1679  0.2219
46021W        W89012   7.943   5.479  20.726  0.1142 -0.1624 -0.0926
46022W        W89013  11.869   3.713  17.431 -0.2173 -0.1148  0.2231
46023W        W89014   6.134  18.012   7.192 -0.0709 -0.1028 -0.1566
46024W        W89015  33.779  34.597  14.407 -0.2035  0.0609 -0.1201
46025W        W89016  34.630  24.996  18.795 -0.1142  0.1859 -0.2405
46026W        W89017   9.030  27.762  14.457 -0.0336  0.0221  0.1606
46027W        W89018  23.938   6.091  20.655 -0.1647  0.1759 -0.0986
46028W        W89019   8.116   0.253  23.611  0.0148 -0.0013  0.0499
46029W        W89020   8.205  29.594  15.120  0.3202  0.1209 -0.4358
46030W        W89021   3.028  32.711  16.328  0.1114 -0.4837  0.3618
46031W        W89022  32.208  11.909  16.163 -0.1674 -0.0844 -0.2904
46032W        W89023  11.284  28.404  16.637  0.0246 -0.2094  0.0439
46033W        W89024  25.590   1.122  25.755  0.2345  0.2258  0.2084
46034W        W89025  32.794  19.751  24.121 -0.0936  0.0995  0.2671
46035W        W89026  27.996  32.804  16.002 -0.0174  0.0403 -0.2822
46036W        W89027  13.253  19.474  16.201 -0.0924 -0.1413  0.1090
46037W        W89028   7.832   1.786  18.944 -0.1094  0.4060  0.3959
46038W        W89029   8.661  12.760  26.974 -0.2755  0.2506  0.0634
46039W        W89030  10.023  22.574  22.831 -0.0337  0.0400  0.2121
46040W        W89031  11.263  13.902  21.655  0.1335 -0.1609  0.3288
46041W        W89032   9.517  31.248  27.019  0.1790  0.0555 -0.2204
46042W        W89033  17.477  33.549   3.896 -0.0747  0.0307  0.1265
46043W        W89034  14.042   9.522  17.869  0.1534  0.1101 -0.0513
46044W        W89035  32.328  22.471  16.497 -0.1244 -0.2916 -0.1282
46045W        W89036  10.826  23.254  15.087 -0.2728  0.0505  0.0580
46046W        W89037  12.467  32.429  20.395  0.0280  0.0633 -0.2216
46047W        W89038   0.012  23.946  20.275 -0.1710  0.3112  0.2328
46048W        W89039   7.384  31.432  21.309 -0.2436 -0.1203  0.2000
46049W        W89040  23.681  33.289  19.666 -0.0850 -0.0484  0.1769
46050W        W89041  27.593   3.252  19.522  0.1507 -0.0669  0.0524
46051W        W89042   4.624  19.334  22.801  0.3961 -0.1748 -0.2566
46052W        W89043  29.356   8.573  18.540  0.1601 -0.2834  0.0293
46053W        W89044  17.143   2.942   0.820 -0.3187 -0.2980  0.0725
46054W        W89045  24.345  21.285  17.032  0.1023  0.1090  0.1997
46055W        W89046   6.878  15.096  22.484  0.2823 -0.2321 -0.1905
46056W        W89047  28.404  14.986  16.156 -0.1078  0.0675  0.0318
46057W        W89048   5.155  20.896   0.796 -0.2065 -0.1534  0.3784
46058W        W89049  33.739  20.197   3.154  0.3547 -0.1565 -0.2825
46059W        W89050  32.503  19.371  16.065 -0.1352  0.1796  0.1256
46060W        W89051  14.225   1.645  23.918 -0.2236 -0.2577 -0.0063
46061W        W89052  13.742  17.427   4.046 -0.0551  0.0104 -0.0410
46062W        W89053   8.540   1.556  29.176  0.0435 -0.2373  0.0380
46063W        W89054  18.941  28.213  26.983  0.0548 -0.4817 -0.2320
46064W        W89055   5.042  26.006  17.390  0.2047  0.3918  0.3075
46065W        W89056  13.203  24.240   4.573 -0.1584  0.1948  0.0044
46066W        W89057   7.656   1.962  24.252  0.2729 -0.1553 -0.0995
46067W        W89058   8.885  21.732  17.215 -0.0659 -0.3408  0.1693
46068W        W89059  11.309  16.240  14.198  0.1259 -0.2313  0.2100
46069W        W89060  12.507  20.095  21.172 -0.2384  0.1584  0.0056
46070W        W89061   2.386  22.489  20.666 -0.1272  0.1782  0.0405
46071W        W89062  26.628  19.960  14.568  0.4241 -0.0410  0.1198
46072W        W89063  11.789  18.313  26.665 -0.3107 -0.1006  0.0779
46073W        W89064  17.470  14.456  15.498  0.0594  0.1657  0.1200
46074W        W89065  17.507  24.661  17.846  0.2471  0.3584  0.0618
46075W        W89066   1.314  32.437  20.881 -0.3054  0.2423  0.0371
46076W        W89067   9.047  15.464  27.914 -0.2070  0.0185 -0.5525
46077W        W89068   7.759  14.396  17.985  0.2966  0.1191  0.3739
46078W        W89069  16.896  29.666  17.413  0.0227 -0.3658  0.2650
46079W        W89070   0.033  29.840   9.040  0.0673  0.0701 -0.3156
46080W        W89071  34.746  26.148  19.558  0.0343 -0.2331  0.1649
46081W        W89072  14.010   3.235   3.276  0.3301  0.1942  0.1932
46082W        W89073  34.390  16.373  16.022  0.3276  0.0305 -0.0068
46083W        W89074  16.227  25.935  24.217  0.1552 -0.2530  0.2157
46084W        W89075  23.118  21.792  17.865 -0.0692 -0.1160  0.1680
46085W        W89076   7.496  13.129  26.675 -0.2173 -0.0128 -0.0504
46086W        W89077  31.744  23.093  16.877  0.4644 -0.1846  0.1110
46087W        W89078  18.236  31.777   4.243  0.2086  0.0812 -0.0749
46088W        W89079   8.962   6.705  15.361 -0.1264  0.1964  0.1369
46089W        W89080  29.088  25.720  28.623 -0.0280 -0.0686  0.0343
46090W        W89081   4.026  30.213  14.687  0.2659  0.1440  0.0324
46091W        W89082  25.712  21.354  22.733 -0.1920 -0.0749  0.2891
46092W        W89083  28.609  29.926   7.052  0.4080 -0.2468  0.1901
46093W        W89084   3.498  28.813   0.281 -0.1086  0.1654  0.0550
46094W        W89085   7.284  16.847  25.523  0.2969 -0.0723  0.0038
46095W        W89086   3.377   7.136  22.981 -0.3642 -0.1867 -0.0868
46096W        W89087   1.348   3.222  16.325  0.2423 -0.3847  0.0728
46097W        W89088  30.007  31.876  21.237 -0.0383  0.0392  0.0477
46098W        W89089  28.511  18.299   2.016 -0.0308  0.0268 -0.1382
46099W        W89090   1.474  19.308  25.218  0.0640  0.0683 -0.4030
46100W        W89091  22.133  22.156  14.106  0.0868 -0.3782  0.0497
46101W        W89092  21.604  19.033  17.703 -0.0089 -0.0206  0.0605
46102W        W89093  22.280  31.938  20.888 -0.2056 -0.2675  0.1274
46103W        W89094   7.532  33.012  16.277  0.4600 -0.1620  0.4850
46104W        W89095  34.580  12.812  16.940  0.0031 -0.5372 -0.0078
46105W        W89096   1.622  34.353  21.762  0.0238  0.0199 -0.3217
46106W        W89097  11.596  14.523  21.588  0.2253  0.0923 -0.2512
46107W        W89098  21.165  29.186  23.846 -0.1174 -0.3428 -0.0652
46108W        W89099  10.410  29.951  22.682 -0.2342 -0.0641 -0.0840
46109W        W89100  12.757  10.287  22.005 -0.0147 -0.3962 -0.1301
46110W        W89101  33.563  22.787  26.520  0.1489 -0.0419 -0.2477
46111W        W89102   7.684  23.984  14.474  0.2278 -0.1761  0.0436
46112W        W89103  25.891  21.981  21.907 -0.0781 -0.1002  0.1990
46113W        W89104  33.743  21.077  23.577  0.0825  0.0652 -0.1938
46114W        W89105   8.531  29.872  21.220  0.1902  0.0610  0.0157
46115W        W89106   7.207  24.376  27.708  0.0771  0.2695 -0.0495
46116W        W89107  12.172  10.234  21.909  0.2676  0.1606  0.1342
46117W        W89108  26.694  30.381  20.566 -0.3430  0.0907 -0.2062
46118W        W89109  13.171  24.002  22.375 -0.0305 -0.1880 -0.2884
46119W        W89110   6.731   8.585   3.756 -0.0451 -0.2487  0.0583
46120W        W89111  13.855  27.294  18.582  0.0002 -0.1065  0.1365
46121W        W89112   6.412  22.669  19.220  0.4089 -0.2063 -0.1869
46122W        W89113  18.699  29.960   0.243 -0.4138  0.1648 -0.2646
46123W        W89114  16.091  32.218  16.454 -0.1163  0.1088  0.0100
46124W        W89115  19.214  34.292  26.435 -0.0817  0.0229 -0.0398
46125W        W89116   9.375  22.424  22.171  0.0424 -0.2534 -0.2039
46126W        W89117   6.895  15.779   8.940 -0.1203 -0.1175  0.1993
46127W        W89118  10.156  10.859  18.829  0.0282  0.1827  0.1428
46128W        W89119  12.706  22.983  16.196 -0.1512  0.2275  0.3594
46129W        W89120   5.250  21.348  21.088 -0.0962 -0.0000  0.1812
46130W        W89121  21.306  30.748  16.397  0.0112  0.0516 -0.0121
46131W        W89122  27.375  32.820  20.140 -0.2449 -0.2507 -0.1056
46132W        W89123   0.206   5.591  22.955  0.3256  0.1068 -0.1931
46133W        W89124   6.385   0.546  15.817 -0.3421  0.2706 -0.1038
46134W        W89125   9.339  24.249  22.813  0.0145 -0.1379  0.0026
46135W        W89126   9.816   3.494  17.512 -0.4910 -0.0762 -0.1384
46136W        W89127   6.501   9.029  17.714 -0.1536  0.0385 -0.0020
46137W        W89128  19.775   7.589  13.822 -0.0028  0.4625 -0.0833
46138W        W89129   9.982  23.112  18.909 -0.0279 -0.0638  0.4700
46139W        W89130  12.540  18.226  17.584 -0.0699 -0.0724  0.2911
46140W        W89131   5.204  22.247  21.906 -0.0090  0.3889 -0.0522
46141W        W89132  13.321  16.065  13.663  0.0291  0.0808  0.0594
46142W        W89133   5.584  29.688  23.305  0.2579 -0.0441 -0.2221
46143W        W89134  20.759  21.343  18.989 -0.1366  0.2121 -0.0932
46144W        W89135  32.296   8.849  19.055 -0.4305  0.0329  0.0983
46145W        W89136  11.919  20.278  16.257 -0.0642  0.0158  0.1032
46146W        W89137   6.827  22.300  18.559  0.0743 -0.2540 -0.0992
46147W        W89138  11.196  22.910   4.281  0.0027 -0.1105 -0.1430
46148W        W89139   9.961   9.453  17.969  0.1529 -0.1746 -0.2680
46149W        W89140  34.509  26.178  27.820  0.3750  0.1491 -0.0557
46150W        W89141  15.507  22.759  17.869  0.0172 -0.0416 -0.0015
46151W        W89142  21.762  29.015  20.885  0.0192 -0.0187  0.4715
46152W        W89143  31.991  32.496   0.955  0.1022 -0.0046 -0.2888
46153W        W89144  33.001   5.443  14.597 -0.3998  0.0024 -0.0857
46154W        W89145  21.350  32.412  20.611 -0.0458  0.3572  0.1130
46155W        W89146  15.405  26.146  16.015  0.2173  0.0961  0.0747
46156W        W89147  22.615  29.732  18.341  0.1260 -0.0972 -0.0185
46157W        W89148   0.163  11.053  20.552  0.1869 -0.0650 -0.2470
46158W        W89149  28.382  27.800  19.342  0.1442 -0.0776  0.2931
46159W        W89150  13.805   7.609  21.513  0.1203 -0.0208  0.1793
46160W        W89151  16.109  27.613  14.900 -0.1488 -0.0859 -0.1795
46161W        W89152  34.194   0.554  26.265 -0.3344  0.1302  0.2896
46162W        W89153  15.917  23.946  26.179 -0.0414 -0.1124  0.0585
46163W        W89154  14.108  26.500  20.993  0.0583  0.3674  0.0643
46164W        W89155   8.352  18.647  21.268  0.0230  0.0579 -0.3505
46165W        W89156   7.520  19.358  25.127  0.0437  0.2195  0.1366
46166W        W89157   8.712  29.848  15.807  0.2687  0.0102  0.1051
46167W        W89158  28.764   6.571  22.431 -0.0451 -0.3274 -0.0231
46168W        W89159  18.870  25.813  14.777  0.0026 -0.0623  0.1040
46169W        W89160   5.483  12.771  19.019  0.1131  0.2608 -0.1238
46170W        W89161   0.341  34.306  18.189 -0.1647  0.1690 -0.0088
46171W        W89162  10.216  12.170  18.005 -0.2348  0.0164 -0.3866
46172W        W89163   9.714  31.595   2.687  0.2913 -0.0501  0.0338
46173W        W89164   5.937  28.000  23.362 -0.3003 -0.0062  0.2005
46174W        W89165  28.285  30.329   7.186  0.0541  0.0275  0.1670
46175W        W89166  10.856  11.453  20.521 -0.0256 -0.0891 -0.1635
46176W        W89167   7.597  29.367  17.672 -0.2482  0.0396  0.4437
46177W        W89168   0.994  21.875   5.925 -0.2249  0.2010 -0.0534
46178W        W89169  14.355  23.989  28.959 -0.1417  0.0891  0.2057
46179W        W89170  27.807  30.160  21.420  0.4031 -0.2926 -0.0599
46180W        W89171  12.000   3.434  18.157 -0.0279 -0.0851 -0.0091
46181W        W89172  30.889  29.018  28.211  0.0305  0.2310  0.3872
46182W        W89173  14.221   8.051   0.481  0.1120 -0.0606  0.0707
46183W        W89174   6.077  18.893  15.594  0.1829  0.0542 -0.0042
46184W        W89175  30.388  24.467  24.425 -0.2258 -0.1162  0.0028
46185W        W89176   5.996  11.605   0.397  0.3171  0.0401 -0.1066
46186W        W89177   0.652  20.585  24.432 -0.0739  0.0981 -0.4347
46187W        W89178  32.045  34.123  19.726 -0.1274 -0.3233 -0.3675
46188W        W89179  28.366  25.990  25.997  0.1239 -0.0290 -0.0808
46189W        W89180  14.722  19.648  23.681  0.0534  0.1135  0.1153
46190W        W89181  28.836  29.137  28.840  0.3001  0.2680 -0.1851
46191W        W89182   7.763  27.630  25.416 -0.0836 -0.0258 -0.0061
46192W        W89183   3.848  29.051  16.284 -0.0143  0.0715 -0.2604
46193W        W89184  26.450  27.454  24.331 -0.1503 -0.0529  0.3034
46194W        W89185   0.535  17.069   8.528 -0.0673  0.1164 -0.0283
46195W        W89186  21.145   0.479  15.230  0.0099 -0.1957  0.0451
46196W        W89187   1.147   3.740  22.990 -0.0240  0.0706 -0.0203
46197W        W89188  22.722  28.898  21.086  0.3502 -0.3230  0.1849
46198W        W89189  26.554  28.026  25.212  0.0741  0.0585  0.1778
46199W        W89190   3.683  17.079  24.191 -0.0294  0.3707  0.3122
46200W        W89191   0.922  11.851  19.501  0.0294  0.2068  0.1936
46201W        W89192   5.151  29.956  23.398 -0.1115  0.0928 -0.2143
46202W        W89193  33.801  18.841  23.325 -0.2234  0.2365 -0.0511
46203W        W89194  14.259  30.992  17.646 -0.3230 -0.2987 -0.1004
46204W        W89195   7.376  20.810  24.904 -0.1242  0.0362  0.0363
46205W        W89196  23.113  27.961  14.336  0.0892 -0.1134 -0.0543
46206W        W89197  10.422  14.398  24.446  0.1304 -0.0561  0.0858
46207W        W89198  15.944  29.763  19.719 -0.2117 -0.2346  0.3779
46208W        W89199  14.592  26.687   1.923 -0.1523  0.2800  0.0723
46209W        W89200   0.955  26.971  19.595  0.3589  0.1710 -0.2887
46210W        W89201   9.148  21.996  22.116  0.0477 -0.2090  0.0960
46211W        W89202   6.119   3.842   1.336  0.1622  0.0300 -0.2136
46212W        W89203   7.014  21.113  16.090 -0.4084  0.2536  0.2239
46213W        W89204  12.110  23.880  19.881  0.1672 -0.0289 -0.1915
46214W        W89205  34.452  29.741  28.974  0.4416 -0.1690 -0.1206
46215W        W89206  11.888  26.139  22.552 -0.1702 -0.0610  0.2775
46216W        W89207   0.704  29.015  13.867  0.0152 -0.2534 -0.1906
46217W        W89208  15.406   8.902  25.861  0.3169 -0.3562  0.0728
46218W        W89209   4.246   1.826  17.074 -0.3390  0.1012  0.0798
46219W        W89210   9.407  24.082  18.276  0.0605  0.2224  0.0980
46220W        W89211   8.885  26.900  19.762 -0.0676 -0.2016  0.4461
46221W        W89212  34.229  25.251  21.433 -0.0505  0.3181 -0.0015
46222W        W89213  21.114  19.676  22.660  0.1255 -0.0871  0.0889
46223W        W89214  20.804  25.477  13.401  0.0744 -0.0269 -0.0335
46224W        W89215  31.503  26.738  17.950 -0.3696 -0.1948 -0.0105
46225W        W89216   7.505   0.748  18.322 -0.1487  0.1810 -0.1764
46226W        W89217  25.758  25.235  14.941 -0.1723  0.1006  0.0764
46227W        W89218  15.997  30.353  26.800 -0.1406 -0.2567  0.2094
46228W        W89219  19.377  27.770  16.497  0.2473  0.1648  0.2406
46229W        W89220  15.145  20.324  16.954 -0.0687  0.2151  0.3063
46230W        W89221  17.015  17.508  22.742 -0.0656 -0.1443 -0.2725
46231W        W89222   2.045  20.502  23.363  0.1982 -0.2934 -0.1046
46232W        W89223  11.823  26.551  22.938 -0.0778  0.0212 -0.3889
46233W        W89224  13.752   9.899  15.847 -0.0286  0.0983 -0.3702
46234W        W89225  34.217   3.662  14.967 -0.2709 -0.0154 -0.1111
46235W        W89226  12.647  25.504  14.922 -0.1794  0.1409  0.1776
46236W        W89227   3.681   2.207  20.947 -0.0188  0.1615 -0.0977
46237W        W89228  11.083  21.643  15.990  0.0827  0.2016 -0.1310
46238W        W89229   7.887  21.982  22.429 -0.0908  0.1298  0.0867
46239W        W89230  22.500   0.757  23.826 -0.2804  0.2813  0.0622
46240W        W89231   0.499  25.590   1.221 -0.2124  0.0401 -0.4580
46241W        W89232  11.149  34.791  25.271  0.1764 -0.4453 -0.0388
46242W        W89233   4.514  25.131  18.515 -0.1076  0.0966  0.0884
46243W        W89234   1.009   8.779  17.954  0.0414 -0.0926 -0.0781
46244W        W89235  19.942  34.316  29.251 -0.1077  0.1470 -0.1213
46245W        W89236  22.043  15.965  17.987 -0.0928 -0.1162  0.0961
46246W        W89237  10.152  14.912   2.327 -0.1759  0.1551  0.2168
46247W        W89238   9.460  32.007  20.424  0.1628 -0.1913  0.0513
46248W        W89239   1.573  10.843  26.121  0.1830  0.0963  0.2916
46249W        W89240   5.346  25.741  18.289 -0.1400  0.0631  0.2047
46250W        W89241  27.944  14.420  29.042 -0.4022 -0.1667 -0.1525
46251W        W89242   3.056  18.070  16.050  0.2785  0.1327 -0.1491
46252W        W89243  15.482  24.617  17.659 -0.0183 -0.2098  0.0188
46253W        W89244  26.785   5.271   1.008 -0.0832  0.2239 -0.0093
46254W        W89245  18.183  16.273  14.388  0.1293  0.0955  0.2382
46255W        W89246   5.717  26.630  20.194 -0.1342  0.1437  0.0425
46256W        W89247  34.665   8.856  16.978 -0.0957  0.0596  0.0509
46257W        W89248   7.405  29.643  15.678 -0.0699 -0.0638 -0.2463
46258W        W89249   7.415  34.432  27.116  0.0963 -0.1373 -0.0032
46259W        W89250  13.708  23.816  16.463 -0.1858  0.1171 -0.1960
46260W        W89251  23.290  15.578  17.277  0.0022 -0.0203  0.0002
46261W        W89252  16.590  26.988  23.334 -0.0791 -0.0819 -0.0751
46262W        W89253  20.199  12.721  19.778 -0.4424 -0.0018 -0.2104
46263W        W89254   1.616  25.378  17.061 -0.0947 -0.1546  0.3018
46264W        W89255  19.630  31.216   6.613 -0.2671  0.0361  0.0940
46265W        W89256   7.002  22.344   7.875 -0.0801  0.0821 -0.2892
46266W        W89257   8.140  16.318  15.716 -0.0702  0.0084  0.2519
46267W        W89258  11.064  15.508  17.243  0.1456 -0.2963 -0.2220
46268W        W89259  18.847  31.317  14.773  0.1125 -0.1758 -0.1360
46269W        W89260  32.207  34.617  27.442 -0.0428 -0.0535 -0.0276
46270W        W89261  19.448  30.611  23.780 -0.1375  0.3120 -0.2015
46271W        W89262  31.620  31.238  22.637  0.4755  0.1517 -0.1222
46272W        W89263   5.573  15.554  22.284 -0.1178  0.1812  0.0420
46273W        W89264  11.223  21.503  23.882 -0.1241  0.0031  0.3264
46274W        W89265  11.386  24.426  25.931 -0.0802  0.1447  0.2375
46275W        W89266  18.314  17.039  13.997 -0.0883  0.1125 -0.2841
46276W        W89267  21.546  21.428  20.963 -0.2151 -0.0811 -0.1104
46277W        W89268   1.509  22.134  19.887 -0.0658  0.3672  0.1971
46278W        W89269  15.321   3.787  23.663 -0.1011  0.2892 -0.3237
46279W        W89270  20.699   3.718  20.721 -0.2645 -0.0701  0.2065
46280W        W89271   3.667  31.264  18.410 -0.0127  0.1062  0.2667
46281W        W89272  15.756  19.152  14.960  0.1415  0.0382  0.3636
46282W        W89273  22.548  24.071  23.950 -0.0300  0.1006  0.2690
46283W        W89274  30.302   5.371  18.809  0.0892 -0.2511  0.0128
46284W        W89275  16.617  29.985   2.759  0.1189 -0.1226 -0.2692
46285W        W89276  14.817   4.032   0.319 -0.0756  0.1770  0.2051
46286W        W89277   4.690   0.055  20.183  0.2967 -0.0498  0.0990
46287W        W89278  31.024  28.414  25.696  0.0007 -0.0053 -0.0928
46288W        W89279   0.756  33.578  18.043  0.3031  0.1163 -0.1681
46289W        W89280   8.002  30.331  27.474 -0.0019 -0.2157  0.1612
46290W        W89281  10.585  24.435  18.861  0.0728  0.0859 -0.2252
46291W        W89282  19.622  18.000  13.866  0.1558  0.2208  0.2152
46292W        W89283   9.637  23.044  15.117  0.1557  0.2298 -0.0117
46293W        W89284  21.566  24.768   7.752 -0.0191 -0.0200  0.0019
46294W        W89285  31.181  33.392  19.300  0.4057 -0.4837  0.3551
46295W        W89286  16.606  18.189  12.878 -0.0448  0.1615  0.1941
46296W        W89287   5.560  30.341  22.127  0.1358  0.3188 -0.1793
46297W        W89288  16.097  19.992   9.445  0.1797 -0.1884  0.2726
46298W        W89289   6.732   4.815   9.828  0.0059 -0.3742  0.2731
46299W        W89290   5.943  23.003  16.531  0.0559  0.0179  0.1463
46300W        W89291  28.173  28.636  14.413 -0.0811  0.0676 -0.2341
46301W        W89292  30.545  20.030  21.571  0.1530 -0.1238 -0.3141
46302W        W89293  11.543   0.333  22.120  0.2653  0.0608 -0.3143
46303W        W89294   3.702  22.901  17.986 -0.2657 -0.0080 -0.2390
46304W        W89295   6.436  15.864  18.457 -0.2592  0.2027  0.1513
46305W        W89296  28.548  23.465  26.636 -0.0068 -0.2490 -0.1779
46306W        W89297  14.996  31.806  15.791 -0.0200 -0.0788  0.0323
46307W        W89298  18.471  20.645  12.510  0.0436 -0.3799  0.2041
46308W        W89299  30.737  12.160  20.656  0.0412 -0.2450 -0.1748
46309W        W89300  14.451  25.511  14.821 -0.3759 -0.0473 -0.0337
46310W        W89301   8.926  17.544  25.799 -0.2818 -0.4256 -0.0600
46311W        W89302   6.256  17.240  25.580  0.2116  0.0346  0.2456
46312W        W89303  33.583  29.950  16.009  0.0315  0.3247 -0.2612
46313W        W89304   1.945  30.015  18.829 -0.1998 -0.1701 -0.2464
46314W        W89305  13.170  16.446  14.602 -0.1668 -0.0229  0.1939
46315W        W89306  14.256  34.274  27.153 -0.0901 -0.1961 -0.0641
46316W        W89307  10.499  10.612  20.613  0.0346 -0.2642 -0.0089
46317W        W89308  24.964  27.762  17.972 -0.0922 -0.1463  0.0859
46318W        W89309  10.211  23.854  21.838  0.0179 -0.2338 -0.0272
46319W        W89310   2.202  15.617  18.262  0.2015 -0.1228 -0.3598
46320W        W89311   8.061  16.180   7.039  0.0694 -0.0145  0.1302
46321W        W89312  13.212  17.982  14.166  0.1616 -0.0574  0.3434
46322W        W89313  15.182  33.636   4.089  0.0637 -0.1574  0.2106
46323W        W89314  30.673  27.276   6.327 -0.3291 -0.1274 -0.3383
46324W        W89315  17.058   8.754  15.379  0.2161 -0.2906 -0.1569
46325W        W89316  20.162  28.172  26.578 -0.0757  0.2409  0.0325
46326W        W89317   6.551   2.103  18.389  0.0441 -0.0589 -0.1717
46327W        W89318  17.814  24.766  14.771 -0.0341  0.1969 -0.0060
46328W        W89319   7.114   4.351  25.162 -0.2923 -0.1426 -0.1776
46329W        W89320  17.735   2.884  20.746 -0.0611  0.0151 -0.0087
46330W        W89321  16.449  11.819  21.317 -0.0778  0.0909 -0.5941
46331W        W89322   8.282   9.005   7.186 -0.0773 -0.0696 -0.0689
46332W        W89323   7.027  26.004  14.752 -0.3598  0.1041  0.1119
46333W        W89324  18.632  18.938  16.453 -0.3288 -0.0390 -0.3123
46334W        W89325  21.721   2.477  23.565 -0.0050  0.0316 -0.1497
46335W        W89326   4.560  28.356  22.553 -0.0968 -0.3310 -0.2855
46336W        W89327  31.526  32.380  22.642 -0.0907 -0.0504  0.1995
46337W        W89328   4.270  21.447  26.121 -0.2783  0.3118  0.0751
46338W        W89329   5.757  25.142  13.960 -0.0249  0.0406  0.4074
46339W        W89330  12.543  14.912  23.978  0.0777  0.0582  0.3724
46340W        W89331  32.839   8.883  18.998  0.2751 -0.0491 -0.1206
46341W        W89332  24.306   9.408  15.573  0.1408  0.1388  0.1848
46342W        W89333   9.231   5.303  15.563 -0.0935 -0.0632  0.0679
46343W        W89334  25.131  31.783  14.735  0.1485  0.0552  0.0560
46344W        W89335  13.773  18.651  14.693 -0.0887 -0.0770 -0.0839
46345W        W89336  25.596  22.688  21.095  0.1283  0.0259 -0.2718
46346W        W89337  30.501  27.552  18.420 -0.5077  0.3257  0.2997
46347W        W89338  12.665  24.016  17.374 -0.1870  0.0765  0.1277
46348W        W89339   9.365  20.553  27.188 -0.0726  0.2681  0.1867
46349W        W89340  30.635   2.854  26.673  0.0776 -0.3891 -0.1291
46350W        W89341   5.236   4.511   2.069 -0.2606  0.2175  0.0113
46351W        W89342  19.834   1.054   2.581  0.1541 -0.3372  0.1095
46352W        W89343   3.768  15.021  25.535 -0.2289 -0.1262  0.0304
46353W        W89344   2.631  20.058   2.936 -0.1266  0.3431 -0.1594
46354W        W89345  20.536   0.694  21.166  0.0408  0.2742  0.4398
46355W        W89346  23.363  30.351  19.300  0.1352  0.1779 -0.0938
46356W        W89347   9.916  29.610   1.472  0.1510  0.1421  0.5616
46357W        W89348  13.201  30.813  19.419 -0.4078  0.0391 -0.2339
46358W        W89349  29.423  32.184  28.386 -0.1581 -0.1791  0.3056
46359W        W89350  28.792  24.836  15.359  0.1596  0.0035 -0.2766
46360W        W89351  13.508  11.421  20.046  0.1410  0.0666 -0.0185
46361W        W89352  18.629  22.809  14.442 -0.2370  0.1916 -0.2735
46362W        W89353  21.983  25.577  25.915  0.1274  0.3185 -0.0102
46363W        W89354   4.297   9.362  17.978 -0.1079  0.0802 -0.1238
46364W        W89355  10.224  32.218  27.482  0.0747  0.3265 -0.0713
46365W        W89356   4.232  28.898  14.974  0.0912 -0.2839  0.2081
46366W        W89357  17.891  23.360  14.830  0.1752  0.0964 -0.0062
46367W        W89358  16.727  13.043  21.990 -0.0362 -0.1287 -0.0749
46368W        W89359  32.184  26.261  13.552 -0.1682  0.1903  0.1098
46369W        W89360  24.505  16.637  16.156 -0.0005 -0.3447  0.2244
46370W        W89361   9.265   6.237  20.060  0.0346  0.1988  0.0088
46371W        W89362   7.284  22.570  21.144  0.2651 -0.3487  0.0529
46372W        W89363  30.937  16.585  24.373  0.0189 -0.0515  0.3145
46373W        W89364   0.259  29.474  26.731  0.0280  0.2933  0.1741
46374W        W89365  18.253  22.759  19.322 -0.3931  0.4539  0.1602
46375W        W89366   7.652  27.127  18.463 -0.0454  0.1945  0.2751
46376W        W89367   7.075   2.004  17.830  0.3903  0.1990  0.1884
46377W        W89368   9.136   7.529  26.123  0.0441 -0.0138 -0.0251
46378W        W89369  34.323  28.939  14.811  0.0713  0.3437 -0.1803
46379W        W89370   5.096  28.266  20.289  0.0712 -0.1957 -0.2220
46380W        W89371  15.477  30.726  22.594  0.0028  0.0381  0.1250
46381W        W89372   9.182  18.552  15.604  0.1203 -0.2291  0.1385
46382W        W89373  13.839  19.002   2.294  0.1575  0.1913  0.0535
46383W        W89374  23.648  32.602  16.587  0.3568  0.1205 -0.0162
46384W        W89375   7.301  29.764   1.555  0.2946 -0.0252 -0.1752
46385W        W89376  12.552  10.154  16.290  0.1304 -0.0615  0.2128
46386W        W89377  24.451  13.853  23.265 -0.2984  0.2514 -0.0208
46387W        W89378  19.188  12.750  13.874  0.1043 -0.1799  0.1586
46388W        W89379  22.673  17.541  14.420 -0.0299 -0.1276 -0.2778
46389W        W89380  14.941  18.744  28.101  0.2322  0.0377  0.0416
46390W        W89381   5.186  19.383  16.812  0.0466  0.1503 -0.0898
46391W        W89382   0.983   3.230  19.618 -0.1847  0.2602 -0.0475
46392W        W89383   5.116   7.137  20.884  0.4832 -0.3188  0.2438
46393W        W89384  24.143  21.584  26.001 -0.3301  0.1988  0.1894
46394W        W89385  16.933  21.424  15.133 -0.0720  0.1261  0.0133
46395W        W89386  17.254  15.534  13.307 -0.2401  0.0128  0.0764
46396W        W89387   8.946  27.093  18.846  0.1082  0.0656 -0.0171
46397W        W89388  17.574  23.375  18.028 -0.0572 -0.0308  0.1972
46398W        W89389   2.187  20.331  18.749 -0.4008 -0.0159  0.2191
46399W        W89390   6.837  13.942   3.933  0.2244 -0.1326 -0.2482
46400W        W89391   5.131  25.358   1.230 -0.3622  0.0323  0.0716
46401W        W89392   8.893  26.026  16.509  0.0532 -0.1983 -0.0906
46402W        W89393  18.526  28.996  29.056 -0.2549 -0.2011  0.0224
46403W        W89394   8.320  24.813  20.918 -0.3892 -0.0216  0.1205
46404W        W89395   5.738  28.688  21.706  0.2555  0.0068 -0.2711
46405W        W89396  30.338   4.229  28.632 -0.1282  0.0021  0.2252
46406W        W89397  33.739  23.283  15.899 -0.0981  0.1169  0.0474
46407W        W89398   8.060  31.741  18.480  0.0569  0.1841  0.2281
46408W        W89399  11.479  30.135  17.614  0.1320  0.2863 -0.2041
46409W        W89400   9.949  14.270   5.570 -0.5531 -0.1172  0.0684
46410W        W89401   7.879  34.308  18.943  0.2245  0.0603 -0.3596
46411W        W89402  14.042  33.048  16.795  0.0336  0.3315 -0.2449
46412W        W89403   3.313  33.300   5.783  0.0997  0.1889 -0.4168
46413W        W89404  13.432  16.570   4.132  0.2253 -0.1482 -0.2447
46414W        W89405   0.238  21.447  18.512 -0.1559 -0.0329  0.2314
46415W        W89406   6.341  17.958  24.760 -0.1678 -0.0869 -0.2981
46416W        W89407  34.434  29.876  20.631 -0.0620  0.2154  0.0327
46417W        W89408   7.594  21.466  16.223  0.0467 -0.3084 -0.0947
46418W        W89409   9.490  26.979  16.667  0.0493 -0.2222  0.3082
46419W        W89410  16.201  28.982  14.366 -0.1152  0.0642 -0.0998
46420W        W89411  12.014  21.422  24.253  0.4025  0.0231  0.1098
46421W        W89412  20.220  28.059  22.099 -0.3650 -0.3424 -0.0757
46422W        W89413  21.889  13.715  14.560 -0.1907  0.3156  0.0466
46423W        W89414  23.422  34.234  24.917  0.1129  0.0949 -0.1593
46424W        W89415  11.708   8.000  27.225 -0.2449 -0.1129 -0.3482
46425W        W89416  10.181  27.114  15.932  0.4058  0.3464 -0.1746
46426W        W89417   1.105  16.094  25.412  0.1093  0.1035 -0.0899
46427W        W89418  12.932  24.075  14.986  0.0859 -0.1989  0.3198
46428W        W89419  33.002  33.457  17.976 -0.0557  0.1860  0.1240
46429W        W89420  11.513  11.943  16.334 -0.2774  0.1153  0.0307
46430W        W89421   2.251   8.361   4.448 -0.0931  0.0790 -0.0552
46431W        W89422  11.984  30.767  20.026  0.0560 -0.0301  0.1926
46432W        W89423  17.202  30.500  16.371 -0.0284  0.3321 -0.1305
46433W        W89424  21.981  24.211  28.600 -0.1151 -0.0704  0.2655
46434W        W89425   1.136  19.651  18.200 -0.1907  0.2351  0.0157
46435W        W89426  34.182   5.118  19.412  0.2120 -0.1956 -0.5217
46436W        W89427  10.873  25.816  22.536 -0.0545  0.0640 -0.0925
46437W        W89428  18.607  18.235  15.362  0.2645 -0.0211  0.1927
46438W        W89429   7.710  29.305  22.458 -0.1923  0.1137 -0.0664
46439W        W89430   3.463  28.601  19.726  0.2269 -0.1050  0.1093
46440W        W89431  34.204  29.669  22.514 -0.0339  0.0006 -0.3013
46441W        W89432   1.552  22.599  16.393 -0.1475  0.2348 -0.2601
46442W        W89433  32.443  27.019  21.792  0.1079  0.0495  0.1768
46443W        W89434  32.506  11.255  20.009 -0.1540  0.2888  0.1243
46444W        W89435   3.495  17.407  24.823  0.2313  0.2050  0.0951
46445W        W89436  16.449  18.769  13.378 -0.1043 -0.0759  0.1174
46446W        W89437   5.065   9.761  16.638 -0.2849  0.0217  0.1270
46447W        W89438  26.045  26.817  16.198 -0.3283 -0.0459 -0.3601
46448W        W89439  18.871  27.763  20.357  0.1379 -0.1605  0.0770
46449W        W89440  21.787  12.056  17.830  0.1356 -0.3726  0.1238
46450W        W89441  30.838   9.990   3.322 -0.2598 -0.0087 -0.0330
46451W        W89442   4.416  19.076   0.442  0.0830  0.1872  0.2213
46452W        W89443  12.637  20.737  18.216 -0.0447  0.2337 -0.2212
46453W        W89444  14.883  12.485  26.187  0.3569 -0.0819  0.2140
46454W        W89445   9.239   0.099  25.577  0.2756  0.2986 -0.1153
46455W        W89446  14.073  30.339  22.999  0.0420  0.0181  0.1434
46456W        W89447  24.688  32.536  27.070 -0.0386  0.0527 -0.0671
46457W        W89448   6.911  23.306  14.711  0.1226  0.1393 -0.3638
46458W        W89449   7.411  11.017  22.892  0.1191  0.0884  0.1312
46459W        W89450   1.213  26.832  14.372 -0.1734  0.1046  0.1940
46460W        W89451  23.077  18.343  15.386 -0.1211  0.3100 -0.0721
46461W        W89452  15.019  32.509  20.888 -0.0758 -0.0029  0.0171
46462W        W89453  23.741  34.306  17.779  0.3157  0.2689  0.0470
46463W        W89454  14.933  31.738  24.134  0.0113 -0.2571  0.0506
46464W        W89455   7.482  21.546  18.229 -0.2612  0.0329  0.0185
46465W        W89456   8.253  21.927  17.774  0.0586 -0.2769  0.0965
46466W        W89457  24.440  14.500  27.251  0.1476  0.3188 -0.1872
46467W        W89458  17.266  26.325   0.848  0.0631 -0.1169  0.2073
46468W        W89459   0.073  17.873  25.111 -0.0716 -0.1651  0.3129
46469W        W89460   8.939  20.242  16.284  0.1881 -0.1376 -0.0292
46470W        W89461  18.081  31.006  25.446  0.3279  0.0810  0.2204
46471W        W89462   8.071  20.189  16.710  0.0610 -0.1870 -0.1481
46472W        W89463  27.207  24.799  14.954  0.0945  0.0592  0.0402
46473W        W89464  16.175  31.738  23.592 -0.1547 -0.0187  0.1631
46474W        W89465  24.607  25.053  20.867 -0.2872  0.0135  0.2783
46475W        W89466   8.708  11.669  26.279  0.3999  0.1043 -0.1682
46476W        W89467   9.076  31.720  20.039  0.5497  0.1303  0.0804
46477W        W89468   0.009  21.169  22.183 -0.0379  0.1184 -0.1244
46478W        W89469  12.540  31.132  15.527 -0.0265 -0.0419  0.1490
46479W        W89470  19.996  24.180  14.131 -0.0830  0.2778  0.0842
46480W        W89471   7.714  25.577  24.659 -0.2355 -0.0007 -0.2094
46481W        W89472  14.160  12.609  23.470 -0.1352  0.0780  0.3708
46482W        W89473  15.215   2.632  22.204  0.2456 -0.5513 -0.0200
46483W        W89474  15.959  26.835  14.186  0.1381 -0.1965 -0.1980
46484W        W89475  22.957   9.022  17.994 -0.0293  0.0938  0.1794
46485W        W89476  20.569  19.857   0.732 -0.0580  0.0199 -0.0890
46486W        W89477  34.340  28.335  24.791 -0.0344 -0.2305  0.3793
46487W        W89478  16.277   4.150  20.850 -0.2370  0.0832  0.0517
46488W        W89479  15.702  12.553  14.023 -0.1248 -0.1804 -0.2775
46489W        W89480  24.388  26.012  19.079 -0.2924 -0.0007 -0.0605
46490W        W89481  28.464  28.749  19.416  0.0362  0.2009  0.0354
46491W        W89482   4.570  18.819  21.881 -0.0211  0.2461  0.3648
46492W        W89483  11.300  21.281  18.089  0.1063 -0.1421  0.2663
46493W        W89484  15.711  22.865  29.033 -0.0676  0.0851  0.0342
46494W        W89485  15.935  12.024  14.683 -0.1500  0.0905 -0.1848
46495W        W89486   2.506  15.739  19.604 -0.0035  0.0481  0.3513
46496W        W89487   7.212  34.344  15.168  0.1910 -0.1830  0.1019
46497W        W89488   0.778  33.747  20.263  0.0125  0.1781 -0.2844
46498W        W89489   5.518  27.995  14.524 -0.1425 -0.2122  0.2609
46499W        W89490   7.989  21.274  15.010 -0.1965 -0.0510  0.2360
46500W        W89491  21.860  10.257   0.616  0.0990  0.0894  0.2167
46501W        W89492  14.802  21.413  26.598  0.4279  0.1789 -0.0473
46502W        W89493  21.188  10.164  21.851 -0.0339 -0.2118  0.2342
46503W        W89494  11.689  25.197  20.929  0.0236  0.0156  0.1846
46504W        W89495  12.937  13.573   8.501  0.0407  0.0937 -0.0360
46505W        W89496   1.429  24.674  26.186  0.0767  0.1938  0.2937
46506W        W89497  12.561  23.373   3.494  0.0249  0.2037 -0.2038
46507W        W89498  26.422  32.973  21.736 -0.2843  0.1023  0.2568
46508W        W89499   6.920  15.225   4.182 -0.1263  0.0585  0.3153
46509W        W89500   0.116  29.650   1.321 -0.1783  0.1429 -0.2931
46510W        W89501   4.780  28.361  26.422  0.1829 -0.2045  0.0545
46511W        W89502  30.007   1.482   0.744 -0.2083 -0.2697 -0.4123
46512W        W89503  34.724  27.446   8.113 -0.1952 -0.0462 -0.2351
46513W        W89504  15.562  28.200  18.216 -0.3898 -0.0866 -0.0525
46514W        W89505  18.583  29.146  19.824  0.3482 -0.2756 -0.2752
46515W        W89506   8.084  19.346  20.928 -0.3813  0.1250  0.0720
46516W        W89507  26.714  33.752   5.946  0.0575 -0.1506  0.1761
46517W        W89508   2.575  32.816   5.415 -0.1271 -0.3239  0.0067
46518W        W89509   0.669  14.091  22.544 -0.0774  0.1238  0.2960
46519W        W89510  17.918  13.473  16.733 -0.0954 -0.2736  0.1346
46520W        W89511   5.342   1.967   4.270 -0.0826 -0.1186  0.0614
46521W        W89512   5.146  26.934   7.841 -0.1699 -0.0049  0.1506
46522W        W89513  11.232   0.659  23.622  0.1017 -0.0818  0.1757
46523W        W89514  11.186  14.633   0.198 -0.0039  0.1280 -0.0708
46524W        W89515  10.973  27.398  10.148 -0.2166 -0.0897 -0.3391
46525W        W89516   8.330  32.056  15.160  0.1843 -0.0612 -0.1119
46526W        W89517  20.327   0.309  19.615  0.0381 -0.1661  0.0511
46527W        W89518  10.857  22.540  27.072 -0.3196 -0.3590  0.4159
46528W        W89519   6.631  25.329  25.569 -0.0195  0.0007 -0.1363
46529W        W89520  25.978  24.476  20.272 -0.3130 -0.2231  0.0766
46530W        W89521  22.468  20.046  25.427  0.0826  0.1260  0.1754
46531W        W89522   5.501  20.350  10.738  0.0614  0.2798  0.1468
46532W        W89523   2.350  27.769   7.646  0.2352  0.3541  0.0479
46533W        W89524  10.090   3.137  24.737  0.0080 -0.2699  0.3716
46534W        W89525  28.671  21.944  26.952 -0.0973  0.2546 -0.1466
46535W        W89526  22.409  13.034  14.259  0.4351 -0.0099 -0.1380
46536W        W89527   8.857  17.322  17.642 -0.0436 -0.2082 -0.3209
46537W        W89528   0.672  22.106  19.348  0.0301  0.4133 -0.0729
46538W        W89529   1.308  19.747   5.029 -0.5447 -0.0196  0.0709
46539W        W89530   3.107  18.623  20.225  0.1734 -0.1380  0.0906
46540W        W89531   9.524   7.913  22.074 -0.1123 -0.3935 -0.0702
46541W        W89532   3.273  25.673  26.278  0.1449 -0.0439 -0.3094
46542W        W89533  31.801  16.359  23.027 -0.3141 -0.1572  0.0546
46543W        W89534  14.284  15.126  29.216 -0.3215  0.1239  0.0908
46544W        W89535  20.882  27.737  27.450  0.1351  0.1149  0.0028
46545W        W89536  27.261  28.332  22.294  0.1471  0.5152  0.4151
46546W        W89537   6.192  22.581   2.300 -0.0028  0.1003 -0.2101
46547W        W89538  33.153  21.329  21.072 -0.1526 -0.3568  0.2027
46548W        W89539  31.339  34.653  17.565 -0.3301  0.0104  0.0346
46549W        W89540  32.403  16.797  17.369 -0.0146 -0.1166  0.1206
46550W        W89541  23.452  15.809  19.033 -0.3171 -0.0827 -0.0011
46551W        W89542  10.367  24.582  21.027  0.3568 -0.1409 -0.5012
46552W        W89543   0.718  12.040  20.198 -0.1795  0.2327  0.1047
46553W        W89544  13.463  34.111  17.903  0.3498 -0.0195 -0.1080
46554W        W89545  30.786  14.959  20.696 -0.0756  0.2600  0.2195
46555W        W89546  32.468  16.696  22.594 -0.0520 -0.5574 -0.1627
46556W        W89547  12.135  10.962   4.262 -0.0755  0.2368 -0.0433
46557W        W89548  12.470  25.661  19.629  0.1044  0.1692  0.2534
46558W        W89549   9.501  19.157   1.051 -0.0394 -0.1479  0.4820
46559W        W89550  15.205  19.306  25.041 -0.0279 -0.0075 -0.1785
46560W        W89551  34.574   7.188  19.107 -0.2779 -0.0792 -0.1056
46561W        W89552   9.878  21.377  14.905  0.1475 -0.1566  0.1203
46562W        W89553   4.763   2.559  10.635 -0.1871 -0.1592  0.0072
46563W        W89554  11.361  25.570   1.963  0.1808  0.1170  0.2558
46564W        W89555   9.001  16.828  26.370 -0.0039  0.0193  0.1334
46565W        W89556  24.704   5.877   5.837 -0.0977 -0.1327  0.1772
46566W        W89557   7.033  25.061  27.266 -0.0428  0.0866  0.0818
46567W        W89558   1.388  33.280  25.570  0.1035 -0.5352  0.0931
46568W        W89559   3.718   8.996   5.923  0.1885 -0.0641  0.0586
46569W        W89560  29.886  24.208   7.630  0.4716  0.1018  0.1261
46570W        W89561   0.537  31.132  25.176 -0.0055  0.0506 -0.0748
46571W        W89562   3.071  34.695  18.455 -0.2942  0.0438 -0.2129
46572W        W89563  13.576   2.502   8.091 -0.0387 -0.3171 -0.1327
46573W        W89564  34.357  10.126  18.499 -0.2589 -0.0005 -0.2109
46574W        W89565   3.585   7.399  20.750  0.1577 -0.2420  0.1835
46575W        W89566  33.431  30.444  18.434  0.6135  0.0980 -0.2339
46576W        W89567  29.479   1.844  21.399 -0.0572 -0.0310  0.1679
46577W        W89568  20.401  11.041  19.731  0.1348  0.2053  0.1663
46578W        W89569   8.025  20.190  16.145  0.1246  0.0733  0.0624
46579W        W89570  12.328  23.141  17.804 -0.2868  0.1031  0.0153
46580W        W89571   9.465  24.861   1.232 -0.3234 -0.3072 -0.0894
46581W        W89572  15.197   1.162  14.465  0.2086 -0.0173  0.0794
46582W        W89573  20.173  26.388  22.994  0.1849 -0.1594 -0.1583
46583W        W89574  22.049  22.535  12.793  0.4358 -0.1132 -0.0897
46584W        W89575  13.713  31.805  27.549 -0.1669  0.2242  0.3198
46585W        W89576   2.838  14.293  20.301 -0.3498 -0.3188 -0.3879
46586W        W89577  18.902   6.730  18.896  0.0396 -0.1750 -0.2209
46587W        W89578  15.269  15.770  15.234 -0.1062  0.1340 -0.0298
46588W        W89579  22.329  11.084  25.040 -0.1793  0.1193  0.2114
46589W        W89580   9.108  22.227  10.019 -0.3072  0.0648  0.3006
46590W        W89581  12.503  20.232  25.628 -0.0165  0.2274  0.0184
46591W        W89582   6.077  32.949  22.114 -0.0117 -0.1348 -0.1977
46592W        W89583  20.899  26.762  16.820  0.0167 -0.0875 -0.0436
46593W        W89584  16.048  10.475  18.020  0.1561 -0.0807  0.1157
46594W        W89585  16.907  26.189  28.624  0.2222  0.1494  0.2020
46595W        W89586  17.866   9.309  20.187  0.1357 -0.0331 -0.0524
46596W        W89587  17.806   1.223  17.378  0.0932 -0.0292 -0.2014
46597W        W89588   1.876  29.656  15.160 -0.3443 -0.1398  0.3020
46598W        W89589   8.448  30.102   3.180  0.0462 -0.1367 -0.2056
46599W        W89590   4.538   4.892  23.259 -0.0031 -0.4318  0.0526
46600W        W89591  23.198  29.953  19.774  0.0060 -0.1979  0.1663
46601W        W89592   6.493  26.892   0.359 -0.1601  0.1062 -0.0391
46602W        W89593   3.752  15.721  16.920 -0.2231 -0.3466  0.3603
46603W        W89594  19.683  16.723  14.834  0.0221  0.0848 -0.0991
46604W        W89595  18.596   2.859  24.834 -0.1616 -0.1932  0.2130
46605W        W89596   3.017  32.106   0.278  0.1669  0.2259  0.0543
46606W        W89597   1.245  17.670  19.874 -0.0549  0.0927  0.0538
46607W        W89598   5.740  27.576  25.770  0.2569 -0.2612 -0.1080
46608W        W89599   9.566  25.331  17.750 -0.3669  0.0725  0.0923
46609W        W89600   4.889  10.433  22.124 -0.0390  0.2568  0.1218
46610W        W89601  18.903  20.966  15.751  0.1281  0.0233 -0.1859
46611W        W89602  29.128   2.953  16.600 -0.0893 -0.2287 -0.1365
46612W        W89603  12.651   7.356  16.587 -0.0545  0.0247  0.1169
46613W        W89604   3.124  29.198  21.648  0.2379 -0.0865  0.1951
46614W        W89605   2.546  29.938  29.026 -0.2935 -0.1314 -0.0689
46615W        W89606  12.075   2.151   2.811  0.2452 -0.1344 -0.2372
46616W        W89607   7.963  27.122  15.798 -0.1658  0.0258  0.2369
46617W        W89608   3.841   2.863   9.325  0.3338 -0.0029 -0.2309
46618W        W89609  10.333  28.286  15.941 -0.1772  0.2337  0.3466
46619W        W89610  16.380  15.909  27.884  0.0239  0.0124 -0.0338
46620W        W89611  13.423  24.501  16.824  0.0713 -0.0772 -0.3440
46621W        W89612  17.724   6.835   0.682 -0.0812 -0.2503  0.2580
46622W        W89613  13.501  12.328   6.695  0.2766  0.0250  0.1189
46623W        W89614  11.610  21.015  16.847  0.1247 -0.0010  0.2208
46624W        W89615   0.492  30.498  25.768  0.0579 -0.2812 -0.1806
46625W        W89616  26.943   3.399  25.398 -0.4490  0.0972  0.2606
46626W        W89617   7.226   4.618  18.638  0.0535 -0.1620 -0.0245
46627W        W89618   0.995  16.141  27.913  0.0154  0.3518 -0.1511
46628W        W89619   2.233  23.741   4.419 -0.1837 -0.0683  0.0958
46629W        W89620   3.959  25.911  14.299 -0.3050  0.0405 -0.4020
46630W        W89621  33.985  15.978  18.348 -0.0295  0.2955  0.3448
46631W        W89622  27.423  27.436   3.939 -0.0015 -0.0056 -0.0841
46632W        W89623  20.972  10.588  17.661  0.1116 -0.3485 -0.0241
46633W        W89624  11.272  17.050   6.513  0.4478  0.1657 -0.2661
46634W        W89625  18.321  17.721  14.246  0.1055  0.3058  0.1140
46635W        W89626   9.795  34.704  26.478 -0.2535  0.0391 -0.2138
46636W        W89627  10.115  31.576  25.816  0.2391  0.2488 -0.1000
46637W        W89628  13.167  31.554  22.384 -0.2156  0.0031  0.0379
46638W        W89629   8.115  21.915  15.391  0.2505 -0.0565 -0.3914
46639W        W89630  18.907  22.763  25.636 -0.0098 -0.1040 -0.0558
46640W        W89631  25.231  26.877  17.059  0.0104 -0.1021  0.0123
46641W        W89632   2.687  16.957  10.157  0.0860 -0.1145 -0.0655
46642W        W89633  12.958  17.931  13.082  0.2179  0.4012  0.0272
46643W        W89634  21.284  33.739   4.719  0.2101  0.1805  0.3286
46644W        W89635  32.345  13.612  26.157 -0.2971 -0.1112 -0.1972
46645W        W89636  23.892  29.052  17.483  0.0646 -0.0684  0.1805
46646W        W89637  25.161  20.374  20.822 -0.1746 -0.0580 -0.1035
46647W        W89638  14.613  14.489  19.111  0.0452  0.0243  0.1854
46648W        W89639  22.462  26.444  16.527 -0.2671 -0.2081 -0.2501
46649W        W89640   5.488  11.711  20.469 -0.0041  0.1874  0.0373
46650W        W89641  26.998  13.264  21.216 -0.2666 -0.1327 -0.0291
46651W        W89642  14.969  25.703  19.055 -0.2379  0.1993 -0.0328
46652W        W89643   8.938  26.280  23.067 -0.0340 -0.1497  0.2996
46653W        W89644  26.708  28.060   6.360  0.1666 -0.1266  0.0694
46654W        W89645  12.878   9.143   1.458 -0.1242  0.1375  0.0012
46655W        W89646   9.257  13.619  15.619  0.2576  0.3937  0.0784
46656W        W89647   7.490  24.812  22.621 -0.2999  0.0533 -0.1366
46657W        W89648  26.827  13.922  13.766  0.0312 -0.2568 -0.0925
46658W        W89649  16.857   3.179  24.880  0.0051 -0.0752  0.2499
46659W        W89650   9.201  27.971  25.832 -0.0782 -0.1226  0.1608
46660W        W89651  29.871  11.175   7.232  0.0210 -0.0436  0.0005
46661W        W89652  12.328   0.087  19.714  0.2224 -0.2856 -0.1683
46662W        W89653  25.089  23.557   5.945 -0.0240 -0.0375  0.3521
46663W        W89654   3.156  10.395  24.230 -0.2347  0.0596 -0.0845
46664W        W89655  32.698  22.892   2.807 -0.0220 -0.1320 -0.0933
46665W        W89656   8.298  15.649   2.409 -0.1235  0.1602  0.0839
46666W        W89657   3.430  23.781   1.055  0.0288  0.4732 -0.1528
46667W        W89658  12.798  29.382   5.842 -0.2566 -0.1294 -0.0374
46668W        W89659  24.100  13.399  24.087 -0.1209  0.3460  0.3159
46669W        W89660  10.979  21.485  24.343  0.1464 -0.2462  0.2448
46670W        W89661  25.246  27.416  25.297 -0.1685  0.1923  0.3605
46671W        W89662   6.715  12.257  21.151  0.0370 -0.0040  0.0399
46672W        W89663  30.204  24.335  23.044  0.1315 -0.0686 -0.1540
46673W        W89664  12.155  17.059  20.040  0.4549 -0.2441 -0.2655
46674W        W89665  31.750  34.328  24.070  0.0182  0.3472 -0.0345
46675W        W89666  21.797  31.455   2.256 -0.2009  0.2479 -0.0276
46676W        W89667  31.002  27.605  28.425 -0.3070 -0.3068 -0.0979
46677W        W89668  30.575  10.309  19.315  0.2100  0.2202 -0.0212
46678W        W89669  32.622  27.101   9.341 -0.2036  0.1690 -0.0370
46679W        W89670  18.385  23.909   3.717 -0.1072 -0.1219  0.0037
46680W        W89671  22.312  27.364  23.294  0.0292 -0.1549  0.1728
46681W        W89672  10.861  31.530  28.793  0.0855  0.2940  0.0407
46682W        W89673  18.481  23.903  13.681 -0.1299  0.3336 -0.1204
46683W        W89674  11.066  30.743  17.480 -0.0928 -0.1729  0.2804
46684W        W89675   3.678   2.193  22.950 -0.0124  0.1859  0.0200
46685W        W89676   4.773  12.433   6.580 -0.3752  0.1927  0.0126
46686W        W89677  10.240   1.106  21.955 -0.0341  0.3486 -0.0870
46687W        W89678  23.298   0.713  18.684  0.2911 -0.1565 -0.0716
46688W        W89679  12.573  30.910  22.791 -0.2726  0.0218  0.1723
46689W        W89680  13.247  25.578  18.580 -0.1170 -0.2207  0.2754
46690W        W89681  11.639  19.773   4.435  0.1580 -0.0298 -0.2378
46691W        W89682  22.341  16.450  16.916 -0.2558 -0.0785  0.2803
46692W        W89683   0.935  13.093  20.745 -0.2469  0.1080 -0.2298
46693W        W89684  32.703  26.238  13.529  0.1447  0.0671  0.0963
46694W        W89685  29.205   5.947  23.480  0.0755  0.1462 -0.1066
46695W        W89686  13.843  27.263  22.892 -0.1295  0.2652 -0.2129
46696W        W89687  24.869  31.496  18.875 -0.0035 -0.1016  0.0818
46697W        W89688   6.946  25.488  18.858 -0.1080  0.0589  0.1653
46698W        W89689   7.049  22.751  14.822 -0.3753 -0.1809  0.0340
46699W        W89690  17.158  30.325  21.788 -0.1213  0.1288  0.4030
46700W        W89691  27.412  33.677   4.565  0.0211  0.2196 -0.1666
46701W        W89692  11.571  32.437  22.381  0.0763  0.0612  0.2141
46702W        W89693  12.764   8.462  26.528 -0.0035 -0.0005 -0.2028
46703W        W89694  23.963  26.582  24.135  0.0899  0.0783 -0.1253
46704W        W89695   3.854  18.984   9.122  0.2617  0.1488 -0.2096
46705W        W89696   6.906  13.270   2.829 -0.2871  0.1751 -0.2108
46706W        W89697  32.479  25.529  14.105 -0.0837 -0.6387 -0.1508
46707W        W89698  10.551  10.000  15.556 -0.1091 -0.2942 -0.1663
46708W        W89699  14.323  17.151   5.362 -0.2646  0.0457  0.1492
46709W        W89700   6.653  34.276   1.682  0.2626 -0.3047  0.0090
46710W        W89701  10.788  13.461  27.178  0.0828  0.1715 -0.0364
46711W        W89702  33.381  34.102  22.851 -0.4661 -0.0529  0.1430
46712W        W89703  20.916  30.920   5.191 -0.0610  0.2378 -0.1620
46713W        W89704  14.881  10.199  16.216  0.0657 -0.3113 -0.0840
46714W        W89705  26.567  27.362  15.543  0.1060 -0.0033  0.0534
46715W        W89706  18.911  28.764  23.024  0.3392  0.2528  0.0233
46716W        W89707  16.760  26.010  13.354 -0.0018 -0.1197 -0.1285
46717W        W89708   3.964  24.179  27.410  0.1043  0.0315  0.1476
46718W        W89709   0.675  11.169  25.373 -0.0321 -0.1139 -0.1112
46719W        W89710  24.863  21.982  15.075 -0.2183  0.0115 -0.0491
46720W        W89711   9.910  29.227  27.010 -0.2384  0.2005 -0.2873
46721W        W89712  20.126  25.188   6.834  0.0070 -0.0941 -0.0167
46722W        W89713  12.342   7.995  18.201  0.0751  0.0125 -0.2304
46723W        W89714  25.056  33.163  23.916  0.1900  0.1380 -0.0128
46724W        W89715  27.857   4.342  17.847 -0.1291 -0.1058  0.3330
46725W        W89716   4.587  19.895  25.317 -0.1893 -0.1001  0.5135
46726W        W89717  29.616  10.012  27.801 -0.3369  0.0976 -0.0214
46727W        W89718   3.924  24.752  14.785 -0.0189  0.0049  0.0548
46728W        W89719  31.237  27.425  15.686  0.2612  0.0984 -0.1407
46729W        W89720  14.854  30.039  19.102 -0.0959  0.1316 -0.0558
46730W        W89721  16.807   0.449   1.108 -0.0111 -0.0626 -0.1089
46731W        W89722  26.851  20.160  24.999  0.0889  0.1034  0.1454
46732W        W89723  20.196  34.086  27.892 -0.0201  0.1587 -0.1632
46733W        W89724   2.478  33.719  23.970 -0.1420  0.2347  0.2083
46734W        W89725   7.045  32.827  21.462  0.1693 -0.0802 -0.3014
46735W        W89726  20.817  30.365   5.135 -0.0559  0.1049 -0.3786
46736W        W89727  11.361  11.619  19.099 -0.1590 -0.2893 -0.3747
46737W        W89728   7.342  29.783  17.504  0.0252  0.0340 -0.3169
46738W        W89729  33.179  29.703  18.584  0.0187 -0.1815  0.0940
46739W        W89730  30.787  20.889  21.514  0.0816 -0.1073  0.2086
46740W        W89731  25.694   6.293  18.424 -0.1807  0.1968 -0.0214
46741W        W89732  16.643  22.912  22.407 -0.0793 -0.1208  0.2615
46742W        W89733  11.723  33.207   1.953  0.5094 -0.0106 -0.4301
46743W        W89734   8.966  32.117  22.912 -0.0159  0.0598  0.0111
46744W        W89735   0.378  27.611  22.986 -0.0373 -0.2916  0.2668
46745W        W89736  13.277  11.542  23.343  0.2156 -0.0239 -0.0532
46746W        W89737  11.195  15.889  15.478 -0.3670  0.1550 -0.3054
46747W        W89738  11.456  23.295  18.194 -0.0006 -0.0229 -0.0751
46748W        W89739   1.809  22.586  20.612 -0.1900 -0.0561  0.1049
46749W        W89740  29.042  17.517  15.292 -0.0285 -0.3394  0.0370
46750W        W89741   8.155  17.212  18.290 -0.2553 -0.0526 -0.0511
46751W        W89742  34.173  10.788   3.493  0.0046  0.2489 -0.0417
46752W        W89743   9.663  23.244  21.272 -0.1482  0.1620 -0.0453
46753W        W89744   1.248  20.197  19.698  0.2974 -0.1605  0.0389
46754W        W89745  19.834  32.315  23.711  0.0462  0.1718 -0.1433
46755W        W89746  34.733  29.763  25.964  0.1044 -0.1827 -0.4573
46756W        W89747   3.996  29.203  15.376  0.1152 -0.0675 -0.4844
46757W        W89748  21.262  17.716   0.644  0.1995 -0.2442 -0.1390
46758W        W89749  34.658  25.173  19.781  0.1739 -0.0569  0.0052
46759W        W89750  27.276  23.729  15.898  0.1447  0.0255  0.1172
46760W        W89751  14.836  22.703  21.558  0.1931  0.0235 -0.1489
46761W        W89752  28.849  27.972  24.113 -0.1660 -0.0985 -0.0116
46762W        W89753  20.885  28.112  14.397  0.0807  0.0389  0.1820
46763W        W89754   4.104  13.339  27.914 -0.1847  0.1719 -0.0259
46764W        W89755   7.502  20.914   3.344  0.0814  0.1297 -0.1254
46765W        W89756  24.547  24.694  22.780  0.1446 -0.1375  0.1355
46766W        W89757   8.702  32.346   6.837 -0.0008  0.0155  0.0288
46767W        W89758   9.321  23.984  15.695  0.0543 -0.0657  0.1135
46768W        W89759   9.133   3.625  16.560  0.3360  0.1943  0.1094
46769W        W89760  17.456  28.879  17.948  0.0739 -0.0270 -0.1655
46770W        W89761  33.466  12.976  26.330 -0.1063  0.3970 -0.1398
46771W        W89762  22.491  14.286   3.846 -0.2777 -0.2027 -0.0794
46772W        W89763  12.932  16.548  23.188 -0.0853 -0.1180 -0.2696
46773W        W89764   4.116  25.528  14.578  0.0228  0.1100 -0.3362
46774W        W89765   1.869  32.920  27.457  0.0446  0.1512  0.3475
46775W        W89766  14.557  23.790   5.224 -0.4102  0.0906  0.1680
46776W        W89767  19.605   6.246  20.077  0.1773  0.0235  0.2218
46777W        W89768  24.044  30.638  22.171 -0.0840 -0.0973 -0.1120
46778W        W89769  19.422  31.127  19.260  0.2425 -0.2678  0.0992
46779W        W89770   1.916  22.605   1.106  0.0921  0.1009  0.0983
46780W        W89771   4.583  10.934  16.910  0.0663 -0.0499 -0.1907
46781W        W89772   6.455   5.730  26.320 -0.1305  0.0689 -0.2224
46782W        W89773  10.519  23.401   8.218 -0.2457 -0.0500  0.0001
46783W        W89774  25.611  10.717   1.520  0.1934 -0.0664 -0.1969
46784W        W89775  15.030  24.915  26.325  0.0201  0.0436  0.3275
46785W        W89776   7.937  13.022  18.810  0.2861 -0.0452 -0.0177
46786W        W89777  10.057  20.731  18.734  0.0235 -0.2633 -0.2264
46787W        W89778  11.805  11.908   3.895 -0.3237  0.1070  0.0974
46788W        W89779  24.376   5.628  13.931 -0.0099 -0.0545 -0.0729
46789W        W89780   0.513  18.469  11.574  0.1965  0.0453  0.0084
46790W        W89781  29.050  24.279  13.365 -0.1530 -0.1205 -0.1558
46791W        W89782  16.111  28.682  25.691  0.1318  0.1794  0.0039
46792W        W89783  31.008  10.310  21.145 -0.0980 -0.0251  0.1688
46793W        W89784   9.721  18.536  17.017  0.1519 -0.3433  0.1467
46794W        W89785  28.079  30.552  21.081  0.0815  0.3088  0.1754
46795W        W89786  23.675  24.795  15.160 -0.3641 -0.1176  0.0941
46796W        W89787   2.375  14.097   0.371 -0.0439  0.3829  0.0308
46797W        W89788  11.840  13.586  24.546  0.1856 -0.0433  0.0093
46798W        W89789   5.402  22.012  29.090 -0.0781  0.1894 -0.2769
46799W        W89790   1.630  32.022  23.225  0.1998 -0.3898  0.2021
46800W        W89791  13.063  20.619  22.457  0.0831  0.3624  0.0795
46801W        W89792  14.729  25.397   5.414 -0.0427 -0.1255 -0.2181
46802W        W89793  15.316  12.778  15.784  0.1832  0.0844 -0.1900
46803W        W89794  14.598  23.650  16.277 -0.0389 -0.2244  0.1060
46804W        W89795  24.069  22.533  28.684  0.0514  0.1241  0.1194
46805W        W89796  22.109   0.114   2.903 -0.0038 -0.1768  0.0361
46806W        W89797  32.516  29.901   4.115  0.0537  0.1467 -0.2828
46807W        W89798  14.764  12.498  28.584 -0.2069 -0.3446  0.2237
46808W        W89799   7.561  12.745   0.519 -0.1100 -0.0111 -0.0263
46809W        W89800  13.270   9.463  21.694  0.1040  0.0432 -0.4160
46810W        W89801  25.972  23.737  25.703  0.1607 -0.0282 -0.2612
46811W        W89802  14.877  24.020  24.398 -0.2869 -0.1798 -0.1095
46812W        W89803   6.703  25.526  24.436  0.0659  0.2902 -0.6750
46813W        W89804   7.651  21.935  15.026  0.2549  0.0345 -0.1878
46814W        W89805  15.763  20.288  16.913 -0.0524  0.0525 -0.0650
46815W        W89806  19.823  28.785   8.108  0.0286 -0.1265 -0.0558
46816W        W89807  14.416   2.607  20.913  0.4134  0.0662 -0.0260
46817W        W89808   2.758  31.029  21.644 -0.0075 -0.2206  0.1952
46818W        W89809   4.664  24.203  23.235 -0.1064  0.0916 -0.0560
46819W        W89810  25.288  21.668   6.437 -0.1713 -0.4325  0.0640
46820W        W89811   7.333  29.713   6.748 -0.0332  0.0149 -0.3815
46821W        W89812  17.385  22.361   1.434 -0.5009  0.0924  0.1171
46822W        W89813  20.271   8.699   4.138  0.2101  0.3012 -0.1154
46823W        W89814  20.339  27.830  19.059  0.1778  0.0009 -0.1405
46824W        W89815  22.046   8.435  21.550  0.1070  0.0414 -0.2364
46825W        W89816   9.540  24.048  27.668 -0.1526  0.0498 -0.0880
46826W        W89817   0.835  25.313   7.825  0.2629 -0.0800  0.0104
46827W        W89818   5.825  13.042  16.337  0.1249  0.3184  0.0081
46828W        W89819  18.686  30.611  17.277 -0.0235  0.1598  0.0805
46829W        W89820   5.362  28.105   2.433  0.1286 -0.1933 -0.2060
46830W        W89821   4.518  34.106  19.648 -0.2847 -0.3105  0.2053
46831W        W89822   5.858  18.734  23.487 -0.1017 -0.1475 -0.1130
46832W        W89823  17.333  28.379  23.935  0.0440  0.0235 -0.1670
46833W        W89824  34.548   0.956  25.587 -0.2955  0.3707  0.3304
46834W        W89825  27.836  25.538   7.780  0.1946  0.1800  0.0233
46835W        W89826   4.564  24.917  22.159 -0.0259 -0.1060 -0.1345
46836W        W89827  19.924  30.501  21.463  0.0592  0.0121 -0.0370
46837W        W89828   7.682  25.330  23.460  0.0630  0.0629 -0.1677
46838W        W89829   7.881  27.540   0.472  0.1053  0.1598  0.1820
46839W        W89830   3.855  15.519  18.695  0.3093 -0.0615  0.1767
46840W        W89831   8.177  12.499  23.103  0.0145 -0.0627  0.1250
46841W        W89832  10.195  30.401   3.407 -0.1721 -0.1720  0.0578
46842W        W89833  13.872   5.384  21.239  0.0869  0.0197  0.1396
46843W        W89834  28.901  12.199   4.685 -0.0814  0.0706 -0.0232
46844W        W89835  26.552   4.723   9.820  0.1449 -0.0084  0.2502
46845W        W89836   5.828  17.021   4.564  0.0052 -0.0207  0.0886
46846W        W89837   7.498  20.064  17.449 -0.0267 -0.1156 -0.3534
46847W        W89838   9.631   7.641  17.674  0.2748 -0.1311  0.0101
46848W        W89839   2.153  14.890  26.658 -0.0805  0.0794 -0.0689
46849W        W89840  20.268  28.505  18.031 -0.0311 -0.1419 -0.1413
46850W        W89841  21.853  23.197  27.841 -0.2338 -0.3915 -0.0987
46851W        W89842   2.812  26.618  21.301 -0.0913 -0.0545  0.0012
46852W        W89843  16.487  28.910   9.458 -0.2721  0.1225 -0.1218
46853W        W89844  10.038  33.141  14.273 -0.1072 -0.0370 -0.2575
46854W        W89845   4.019  17.355   1.058 -0.2384  0.1712  0.1536
46855W        W89846  10.128  28.792  17.670  0.1759 -0.0483  0.2781
46856W        W89847   4.451  15.345  27.533 -0.1948  0.2455  0.2082
46857W        W89848  14.604  22.974   4.656  0.0112 -0.4400 -0.1890
46858W        W89849  18.013  24.650  21.101  0.0805  0.1375 -0.2019
46859W        W89850   5.820  17.929  15.758  0.0800 -0.0055  0.2226
46860W        W89851  11.780  22.830  17.301 -0.3719  0.1339  0.0861
46861W        W89852  14.011  27.917  22.185  0.2079  0.0183 -0.0629
46862W        W89853  28.808   3.772  23.754  0.2045 -0.1882  0.0743
46863W        W89854  14.986  33.295  17.996 -0.0151 -0.0484  0.0755
46864W        W89855  20.421  12.206  13.752  0.0025  0.0085 -0.0295
46865W        W89856   8.863  21.984  24.297 -0.0889  0.1384  0.1263
46866W        W89857   5.497  20.400  27.909  0.0301  0.2932  0.1669
46867W        W89858  18.687  31.775  20.025  0.1225 -0.1072  0.2761
46868W        W89859   7.377  22.673  16.391  0.2410 -0.1963 -0.3595
46869W        W89860  21.408  15.552  20.968  0.0683  0.0817 -0.0136
46870W        W89861  19.055   9.902  28.986 -0.3690 -0.0634 -0.0352
46871W        W89862  12.097  32.564  26.049 -0.0743 -0.1134 -0.2049
46872W        W89863  19.268  32.116  18.956  0.0221  0.5144  0.2230
46873W        W89864   1.719  32.535  25.743  0.2329  0.0794  0.2126
46874W        W89865  29.149  32.635  16.032 -0.2018  0.0066 -0.1565
46875W        W89866  26.259   4.768  16.774 -0.1031 -0.1906  0.1817
46876W        W89867  29.386  15.163  16.438 -0.0146  0.0183  0.1230
46877W        W89868  26.992  10.393  10.019 -0.2005 -0.0590  0.0603
46878W        W89869  18.932   0.608  19.465 -0.3923  0.0526  0.0826
46879W        W89870  13.882  25.304  16.747 -0.2285  0.0983  0.2331
46880W        W89871   7.465  14.835  18.146  0.1467  0.3858 -0.1861
46881W        W89872  33.754  21.739  17.687  0.3593  0.2753 -0.1049
46882W        W89873   3.360  26.820   3.815 -0.0875  0.1821 -0.1881
46883W        W89874   4.522  31.554   5.695 -0.2457  0.1425 -0.3420
46884W        W89875   0.261  23.522   8.007 -0.2131 -0.1070 -0.1879
46885W        W89876  10.640  12.343  24.213  0.1356 -0.2868  0.0358
46886W        W89877  18.842  20.797   7.761 -0.0679  0.1383  0.2197
46887W        W89878  15.894  27.034  27.043 -0.1911 -0.2123 -0.0516
46888W        W89879  11.227   9.910  24.258  0.1406 -0.1761  0.0270
46889W        W89880   8.082  12.104   1.314 -0.4237  0.0238  0.1295
46890W        W89881   6.935  15.173  17.400  0.1223 -0.0754 -0.1367
46891W        W89882   4.141  17.931  28.584  0.0306 -0.1703 -0.2419
46892W        W89883  14.115   7.596  28.153  0.1799 -0.0059  0.1570
46893W        W89884  16.920  30.869   1.127 -0.0440  0.0476 -0.0254
46894W        W89885  16.538  34.201   6.276  0.1910  0.1125  0.1486
46895W        W89886  21.169  25.720  13.589 -0.0165 -0.0414  0.3578
46896W        W89887  14.862   5.145  20.101 -0.0552 -0.2588  0.1751
46897W        W89888  27.949  24.714   4.808 -0.0937  0.2966 -0.0060
46898W        W89889  10.897  15.826  20.690  0.1226 -0.2338 -0.1174
46899W        W89890  27.030  30.158  24.300 -0.0178 -0.3540  0.0264
46900W        W89891   2.115  30.468  28.141  0.1000  0.1765 -0.0623
46901W        W89892   0.267  31.593   1.058 -0.0295 -0.0952 -0.1061
46902W        W89893   8.717   9.945  28.411  0.0475 -0.1029 -0.0315
46903W        W89894  28.491  25.317  23.429  0.5867  0.2763 -0.0640
46904W        W89895  22.936  24.249  28.598 -0.0928  0.0818  0.1579
46905W        W89896  14.417  22.039   7.622 -0.2107 -0.0159 -0.1495
46906W        W89897   1.826  15.047   5.458 -0.0465  0.1365 -0.4178
46907W        W89898  11.000  26.562   7.176 -0.0290 -0.0865  0.2340
46908W        W89899  10.630  15.484  14.693 -0.0065 -0.0997  0.0993
46909W        W89900   9.137  30.896   6.059 -0.0016 -0.0514  0.3726
46910W        W89901  32.753   8.391  21.060 -0.1778 -0.1386 -0.1892
46911W        W89902  12.769  34.109   8.671 -0.2220 -0.0721 -0.2580
46912W        W89903   7.531  22.483  15.673 -0.3388 -0.1655  0.2284
46913W        W89904  14.667  10.296   6.978  0.0285  0.0913 -0.1450
46914W        W89905  19.090  31.829  27.552  0.0184 -0.1564 -0.0507
46915W        W89906  18.240  26.786   1.205  0.1799  0.0195 -0.1297
46916W        W89907  12.607  29.054  16.205 -0.0907  0.0099 -0.0455
46917W        W89908   4.639  32.305  20.471  0.1995 -0.0838  0.0865
46918W        W89909  17.130  10.917  18.814 -0.1694 -0.1798 -0.2411
46919W        W89910  12.711  25.451   9.618 -0.0539 -0.0913 -0.0625
46920W        W89911   7.114  18.933   4.044 -0.2254 -0.3088 -0.3078
46921W        W89912  23.649  32.517  12.677  0.0110 -0.1572  0.0395
46922W        W89913  17.959  29.257  20.358 -0.1759 -0.0882 -0.0950
46923W        W89914  13.649  28.796  25.771  0.0712 -0.1488  0.0482
46924W        W89915   4.230   3.076   3.366 -0.1479  0.2615 -0.0764
46925W        W89916  12.866  18.249  18.733 -0.3153 -0.2048  0.2200
46926W        W89917  13.524  31.788  21.658 -0.2745  0.1804 -0.2393
46927W        W89918   8.255  25.915  16.316  0.1321  0.2134  0.2076
46928W        W89919  20.202  21.969   6.235 -0.0500  0.1680  0.3159
46929W        W89920   7.211  22.055  18.818 -0.0229 -0.0787  0.3034
46930W        W89921   5.905  27.774   8.710  0.3464  0.1657  0.0354
46931W        W89922  29.907   1.637   2.963  0.0356  0.2518 -0.1762
46932W        W89923  12.311  12.278  29.162 -0.2330  0.0347  0.2271
46933W        W89924   9.679  23.060  24.801 -0.6291 -0.0418  0.1666
46934W        W89925   8.204  20.485   6.882 -0.1912 -0.0944 -0.1807
46935W        W89926  34.006  31.112   3.584  0.0395 -0.0258  0.0731
46936W        W89927  14.400   1.203  28.104 -0.2311 -0.0504 -0.0271
46937W        W89928  16.586  31.694  17.588  0.1407  0.1568  0.2422
46938W        W89929  32.529  28.552   7.467  0.0925 -0.0002  0.3596
46939W        W89930  12.602   6.854  25.163  0.1147  0.3068 -0.0939
46940W        W89931   5.641  28.276  18.526  0.0839 -0.0076  0.1691
46941W        W89932  24.349  22.137  21.889  0.1403 -0.0141  0.2461
46942W        W89933  12.201  12.431  21.818 -0.2145 -0.0175 -0.2420
46943W        W89934  10.663  18.614  26.601  0.2531  0.0837  0.0620
46944W        W89935  15.192  33.801   2.295 -0.0581 -0.1293 -0.0805
46945W        W89936  16.478  25.078  16.903 -0.0796  0.2273 -0.0767
46946W        W89937   2.399   9.765   7.256 -0.1362 -0.0047  0.2899
46947W        W89938   8.713   6.241  25.232 -0.0141  0.2880  0.1449
46948W        W89939   5.037  23.012  10.553 -0.1516  0.1332 -0.2219
46949W        W89940   5.238  13.369  22.112  0.0546  0.1802 -0.0522
46950W        W89941   7.895  14.927   2.423  0.2699 -0.0276  0.3305
46951W        W89942  21.152  30.429   6.073 -0.2181  0.0364 -0.1571
46952W        W89943  19.315  21.298  19.407  0.2350  0.1745  0.3243
46953W        W89944  12.592   6.266  27.347 -0.0233 -0.0526 -0.1786
46954W        W89945   4.883  12.339  28.624  0.1613  0.2719 -0.0123
46955W        W89946   2.881  14.918   8.804  0.1480  0.3002  0.0066
46956W        W89947  12.879  16.392   4.190 -0.0107  0.5320  0.0565
46957W        W89948   2.774  17.059  24.167 -0.0466 -0.0515 -0.1052
46958W        W89949  11.795  19.070   1.164  0.0429 -0.0542  0.0781
46959W        W89950  11.138   1.203   8.566  0.1291  0.0026  0.0165
46960W        W89951   1.548  31.753  28.321 -0.0406 -0.1694  0.1849
46961W        W89952   3.098  17.976  22.521  0.3504  0.1090 -0.2121
46962W        W89953   9.267  25.925  27.625  0.1059 -0.0372 -0.3138
46963W        W89954  14.229  26.195   3.537 -0.0937  0.0126 -0.0269
46964W        W89955  12.750  18.630  18.369 -0.1071 -0.1425 -0.0073
46965W        W89956  34.345  26.020  20.382 -0.2888  0.0643 -0.2011
46966W        W89957  10.918  18.489  20.551  0.0971 -0.1419  0.2156
46967W        W89958  18.123  33.162  19.292 -0.1660  0.1232  0.1382
46968W        W89959   7.031  34.381   0.474  0.0461 -0.0986  0.1909
46969W        W89960   3.758  18.303  21.937 -0.1936  0.0387  0.1745
46970W        W89961   3.236   8.299   4.961 -0.0494 -0.1878  0.3022
46971W        W89962  16.501   0.703  10.409  0.3011 -0.1937  0.0362
46972W        W89963  34.381  28.147   6.057 -0.0916  0.0588  0.1541
46973W        W89964  13.718  16.107   1.773 -0.1940  0.2871  0.0061
46974W        W89965   3.689  26.985  18.549 -0.1167 -0.0021  0.0053
46975W        W89966   3.576  30.025  28.172 -0.1807  0.0956 -0.2137
46976W        W89967  33.398  19.785  27.149 -0.2059 -0.1511  0.1578
46977W        W89968  15.277  24.909  16.207  0.1631  0.0100  0.1406
46978W        W89969  34.088  30.171  26.510  0.1754  0.2042  0.0763
46979W        W89970  15.266  11.230  23.322  0.0059 -0.3385  0.0353
46980W        W89971   1.601  24.864   6.308 -0.1564  0.2419  0.3252
46981W        W89972  10.756   5.968   0.719 -0.0646 -0.2370 -0.1133
46982W        W89973  24.402   4.720   7.471  0.1888 -0.1843  0.1285
46983W        W89974   9.854  19.302  18.953  0.0003 -0.3451  0.0934
46984W        W89975  17.036   8.493  24.200 -0.1026 -0.0414  0.1766
46985W        W89976   3.815  29.199   7.691 -0.0859  0.2913 -0.2446
46986W        W89977   1.415  32.830  22.620 -0.0465 -0.3309  0.2843
46987W        W89978  13.417  14.854  23.312 -0.0103  0.3091  0.0294
46988W        W89979   6.399  18.614   3.041  0.0364  0.0596  0.0308
46989W        W89980  27.287  20.641   5.282  0.3020 -0.0896  0.0772
46990W        W89981  27.690  11.133   1.035  0.1703  0.1054 -0.2055
46991W        W89982   7.945  26.876   3.329  0.1205  0.3332  0.1076
46992W        W89983  14.050   1.243  29.174  0.2878  0.1479 -0.1997
46993W        W89984  32.842  29.519  17.857  0.0166  0.1294 -0.4189
46994W        W89985   7.514   5.597   5.809  0.0004 -0.2583  0.0619
46995W        W89986   7.802  27.158  26.787  0.2700 -0.1890  0.2535
46996W        W89987  10.257  12.713  18.632 -0.2205 -0.0035 -0.1458
46997W        W89988  16.395  22.536  28.143  0.0206 -0.0118 -0.0093
46998W        W89989  22.579  14.843  18.587 -0.0422 -0.3296  0.3021
46999W        W89990   4.307  22.497   7.081  0.0812  0.0755  0.1957
47000W        W89991  33.550  10.534  18.187  0.1500  0.0339  0.1999
47001W        W89992  10.585  27.371  16.927  0.1258  0.0432  0.2269
47002W        W89993  32.327  22.454   0.523 -0.3261 -0.0576 -0.2769
47003W        W89994  19.824  20.181  23.916  0.0656  0.0182 -0.1920
47004W        W89995   2.771  22.149  27.563 -0.1228  0.2744 -0.1659
47005W        W89996  31.780  28.875  25.813  0.0667 -0.1377  0.1068
47006W        W89997  17.131  16.452  27.856  0.1610  0.0112  0.1434
47007W        W89998  18.166  21.817   2.459  0.1018 -0.0344 -0.0219
47008W        W89999   7.104  15.293   0.817 -0.0395 -0.1129 -0.0239
47009W        W90000  34.268  32.599  26.844 -0.0721 -0.0780  0.0887
47010W        W90001  18.063   5.256  24.082 -0.3457  0.0622  0.1191
47011W        W90002  13.489   0.220   2.119 -0.1808  0.1143 -0.2074
47012W        W90003   5.591  31.947  28.642  0.0766 -0.1231 -0.1183
47013W        W90004  15.268  28.086   6.174  0.0500  0.0322 -0.0609
47014W        W90005  18.209  16.602  25.691  0.2046 -0.1818 -0.0617
47015W        W90006   9.130  20.249   7.931 -0.3594  0.3448  0.0978
47016W        W90007   1.073  24.741  16.563 -0.0005  0.0001  0.2102
47017W        W90008   6.446  31.236   9.400  0.0620 -0.2279 -0.2026
47018W        W90009   3.922   4.563   0.134 -0.0074 -0.0134 -0.1841
47019W        W90010   5.355  32.925   2.171  0.2287  0.0543 -0.1539
47020W        W90011   9.567  24.523  23.410 -0.0952  0.1263  0.1026
47021W        W90012  32.456  26.500  24.288 -0.1761  0.1248 -0.6019
47022W        W90013  17.849  28.933  14.865 -0.3077 -0.2101  0.0286
47023W        W90014  12.163  25.646  23.245  0.0734  0.4368 -0.3657
47024W        W90015  14.676  20.105  20.662  0.0460  0.1612 -0.3448
47025W        W90016  12.959  33.084  26.600 -0.0588  0.3821 -0.0526
47026W        W90017  21.368   3.911  14.221 -0.1823  0.0038  0.0304
47027W        W90018  32.761  18.612   7.474  0.2718 -0.0772  0.3646
47028W        W90019  14.911  34.463  18.785 -0.0049  0.0043 -0.0523
47029W        W90020  14.032  18.423  26.504  0.3460 -0.1188  0.2418
47030W        W90021  33.496  22.029   5.540  0.2567  0.0138 -0.1157
47031W        W90022  10.970  24.582  21.958 -0.0724 -0.2677 -0.2748
47032W        W90023   3.765  11.514  23.487 -0.1996  0.0747 -0.0011
47033W        W90024  22.907  10.942  15.643  0.0529  0.1281 -0.0321
47034W        W90025  21.256  22.258  17.248 -0.1326  0.3860  0.0076
47035W        W90026  30.215  10.434  24.067 -0.0763 -0.1203  0.1573
47036W        W90027  11.355  13.123   5.310 -0.1239 -0.1374 -0.0317
47037W        W90028   4.452  30.924   1.655 -0.0280  0.4073  0.1419
47038W        W90029   7.236  11.066   7.549  0.0965  0.4133 -0.3269
47039W        W90030  12.075  26.792  14.759 -0.0365  0.0792  0.1788
47040W        W90031   4.051  16.594  27.706  0.1593  0.3222  0.1888
47041W        W90032  14.090  28.590  22.946  0.0243  0.0495 -0.0024
47042W        W90033  20.076  27.673  17.878  0.0338 -0.0159  0.0497
47043W        W90034  11.899  28.297   6.490 -0.0644  0.0601 -0.2870
47044W        W90035  23.095  30.691   6.733  0.0628 -0.1447 -0.2911
47045W        W90036  13.006  16.347  21.408 -0.0086 -0.0417 -0.0354
47046W        W90037  12.895  17.078  27.327 -0.1867 -0.0500  0.0212
47047W        W90038  10.332  20.099  28.951 -0.0382  0.0209 -0.2523
47048W        W90039   3.941  21.802  17.768 -0.1136  0.0280 -0.1694
47049W        W90040  19.977   5.275  22.356 -0.0148  0.0037 -0.0213
47050W        W90041  10.678  13.854  28.358  0.1607 -0.0577  0.2276
47051W        W90042  12.637  24.671   5.929  0.0964 -0.3299 -0.0574
47052W        W90043   8.020  21.436  22.301 -0.1401 -0.1322 -0.2325
47053W        W90044  18.244  22.558  14.119  0.0483 -0.2737  0.1324
47054W        W90045  33.446  17.106   1.167  0.0402 -0.4085 -0.2404
47055W        W90046  27.413  31.118  28.912  0.4450 -0.1532 -0.0008
47056W        W90047   2.706  28.133   4.038 -0.0517  0.1596 -0.1928
47057W        W90048  22.917   2.872   1.810 -0.2249 -0.4548  0.1993
47058W        W90049  24.331  22.026   2.713  0.0545 -0.0429  0.2493
47059W        W90050   7.391  25.369  17.800  0.1017 -0.3699  0.1543
47060W        W90051   4.650  19.263  15.831  0.3203  0.0318  0.1089
47061W        W90052  34.723  13.841  18.446 -0.3093 -0.3231  0.0465
47062W        W90053  19.449  34.721   3.949 -0.0916  0.0622  0.0874
47063W        W90054  29.776  21.954   8.946 -0.1792 -0.0703  0.0392
47064W        W90055  20.628  16.008   0.057  0.1154 -0.0574  0.0185
47065W        W90056  10.448  13.336   8.721  0.1014 -0.1995 -0.0332
47066W        W90057   8.281  26.484   7.468 -0.0282  0.0081 -0.0792
47067W        W90058  16.918   1.613   1.755  0.0321  0.0583  0.1440
47068W        W90059  23.803  29.639   4.904  0.2117 -0.0616  0.0028
47069W        W90060  10.715  11.998   0.048  0.4254  0.0473 -0.0654
47070W        W90061   2.932  32.001   9.017  0.1910  0.1896 -0.0670
47071W        W90062  13.977  15.438  21.277 -0.2913  0.2914  0.4601
47072W        W90063   3.364  15.324   8.377  0.1081  0.0648 -0.0751
47073W        W90064  34.113   9.552  26.921 -0.0493 -0.2774 -0.0661
47074W        W90065   5.221  18.892  15.429 -0.0201 -0.2021  0.0074
47075W        W90066   2.388  15.512   4.684  0.1369 -0.0869  0.2745
47076W        W90067   8.591  11.759   5.900 -0.0291 -0.1350 -0.0184
47077W        W90068  18.935   2.330   8.758  0.0638 -0.2248  0.0446
47078W        W90069   5.239   4.730   9.566 -0.1345  0.3170 -0.0333
47079W        W90070  22.962  16.024  14.339 -0.1067 -0.3344  0.0124
47080W        W90071   1.587  33.185  26.791 -0.1498 -0.1762 -0.0839
47081W        W90072   3.233   5.096   9.566 -0.1455  0.0455 -0.2157
47082W        W90073   1.533  14.236  21.953  0.0978 -0.0607 -0.0278
47083W        W90074   6.570  24.345  24.808  0.0488 -0.2998 -0.0120
47084W        W90075  23.114  14.085  20.223  0.0033 -0.0182  0.1582
47085W        W90076   8.301  26.814   4.431  0.4339 -0.1057  0.0224
47086W        W90077  33.299  21.712  20.774 -0.3055  0.1017 -0.2325
47087W        W90078  27.692  26.640   4.402 -0.1370 -0.0830  0.3163
47088W        W90079   1.171  23.990  18.632  0.3558  0.0370 -0.3424
47089W        W90080   4.133   8.197  22.500  0.1125 -0.1425  0.1048
47090W        W90081   1.792  33.704   3.978  0.1235 -0.2946  0.1519
47091W        W90082  19.372  16.286  14.882 -0.0579  0.2117  0.1747
47092W        W90083  23.733   9.307   7.763 -0.1053 -0.3860  0.0376
47093W        W90084  14.989  31.043  23.117 -0.0657 -0.1560  0.0920
47094W        W90085  28.378  16.437  20.317  0.1310  0.4364 -0.1313
47095W        W90086  12.128  16.060   8.242 -0.2147  0.1278 -0.2317
47096W        W90087   7.333  20.881  27.135  0.1864  0.0506  0.1426
47097W        W90088   8.148  29.269  23.000  0.0893  0.3326  0.1971
47098W        W90089  34.739   1.812  15.135  0.0754 -0.4134  0.2394
47099W        W90090   1.533  17.959  26.950 -0.0419 -0.4837  0.1845
47100W        W90091  20.634  34.155  13.379  0.1951 -0.0652 -0.3347
47101W        W90092   7.238  27.129  26.790  0.0449 -0.0020 -0.1176
47102W        W90093  18.959  29.649  23.558  0.4138  0.2364  0.3960
47103W        W90094   0.693  17.075   1.788 -0.1866 -0.0030 -0.1393
47104W        W90095  17.341  27.597  20.313 -0.0255 -0.0805  0.0320
47105W        W90096   4.568  24.893  24.030 -0.1369  0.0870  0.3424
47106W        W90097   5.537  14.296  20.633 -0.2897  0.0987 -0.1579
47107W        W90098  33.251  29.978   3.200  0.0001  0.0693 -0.2329
47108W        W90099   3.656  18.063  19.271 -0.0493 -0.1248 -0.0856
47109W        W90100  19.519  28.653   5.854  0.1052  0.2261 -0.0032
47110W        W90101  12.799  23.993   4.795 -0.1613  0.0070  0.1125
47111W        W90102  11.134   0.953   3.225 -0.0961  0.1543 -0.0376
47112W        W90103   9.312   3.511   4.488 -0.0314  0.2086  0.1533
47113W        W90104   8.564  24.904  22.434 -0.2138 -0.1836 -0.1788
47114W        W90105  15.222   6.153   7.623  0.0270 -0.1379 -0.1650
47115W        W90106  17.755  30.539  27.834  0.0923 -0.2335 -0.1337
47116W        W90107  20.938   9.102   8.365 -0.0889  0.1425 -0.0539
47117W        W90108  13.996  28.240  19.538  0.1754  0.4292  0.0212
47118W        W90109   0.549  24.950  26.379  0.3125  0.1528  0.1271
47119W        W90110   9.008  33.841  14.369 -0.1467  0.0210  0.2137
47120W        W90111  27.515  22.053   2.271  0.1104  0.0905  0.1068
47121W        W90112   3.504  27.007  29.019  0.0502 -0.2575 -0.1283
47122W        W90113   4.468  17.995   5.650  0.3791  0.5259  0.1785
47123W        W90114   3.244  34.341  19.490  0.0456 -0.1368 -0.0684
47124W        W90115  16.157   2.194  28.879 -0.0865 -0.3859  0.0086
47125W        W90116   8.136  16.612  16.162 -0.3354  0.0501 -0.1265
47126W        W90117  16.131  27.574   7.255 -0.3404 -0.0640  0.2698
47127W        W90118   6.551  27.879  18.215  0.4093  0.1095 -0.0748
47128W        W90119   3.255  20.125   6.303  0.0416 -0.0489 -0.2278
47129W        W90120   0.404  20.206  29.088  0.4553  0.0852  0.1447
47130W        W90121   9.642  27.281   3.324 -0.3987  0.0883 -0.2460
47131W        W90122   6.025  28.388   1.934  0.3847  0.1262 -0.0671
47132W        W90123  14.533  29.147   8.906  0.0377 -0.2700 -0.2390
47133W        W90124  13.629  31.806  15.644  0.1052  0.0876  0.1176
47134W        W90125   5.156  33.077  15.452  0.1243 -0.0733  0.3307
47135W        W90126  11.737  29.056  20.508 -0.1841  0.0454 -0.0752
47136W        W90127  18.395  21.794   1.950  0.0879 -0.0102 -0.0484
47137W        W90128  28.002   3.582   8.175  0.4027 -0.0827  0.0537
47138W        W90129   5.039  10.842   3.785 -0.0145  0.3490  0.1210
47139W        W90130   7.805  33.029  22.219 -0.1987 -0.0349  0.0202
47140W        W90131   1.709   4.176  10.412  0.2196 -0.1030 -0.1372
47141W        W90132   9.907  18.899   0.265 -0.1008 -0.2402  0.0164
47142W        W90133  13.768  14.808  22.860 -0.0984 -0.1886 -0.1083
47143W        W90134   7.062  10.420  25.110  0.1777  0.1712  0.1079
47144W        W90135  14.459  22.916   2.237 -0.1828  0.2644 -0.1312
47145W        W90136   5.610   6.154  23.282 -0.1680 -0.1301  0.1363
47146W        W90137  26.839   0.864  28.156 -0.1798  0.0616 -0.0043
47147W        W90138   5.525   8.407  20.400  0.0601 -0.4757  0.0278
47148W        W90139   2.651  26.618   5.306 -0.1147  0.1167  0.0492
47149W        W90140  34.187  29.647  15.789 -0.1155  0.1225 -0.3050
47150W        W90141   7.165   3.143   6.278 -0.2831 -0.2175 -0.0373
47151W        W90142  22.963   7.747  20.728 -0.3664  0.1882  0.1644
47152W        W90143  11.696  24.953  17.780  0.2818  0.0371  0.2474
47153W        W90144  27.461  23.475   5.724 -0.3408 -0.1809  0.0805
47154W        W90145  21.375   1.875   6.796 -0.0575 -0.1267  0.0089
47155W        W90146   7.408  22.831  23.509  0.1255 -0.0861  0.1590
47156W        W90147  12.229  18.909  24.605  0.0020 -0.1093 -0.0256
47157W        W90148  21.783   0.145  21.566 -0.0211  0.2640 -0.0751
47158W        W90149   8.271  21.508   0.085 -0.0233 -0.0125 -0.1988
47159W        W90150  29.977  23.935  15.571 -0.1228  0.1592  0.1901
47160W        W90151  34.304   5.077   1.082 -0.4222 -0.2962 -0.1694
47161W        W90152   6.086  26.143  22.616  0.0717 -0.0655  0.3057
47162W        W90153  33.854  34.771  21.168 -0.1808 -0.0061  0.1295
47163W        W90154   9.449  28.484   9.414  0.1587 -0.1122 -0.1641
47164W        W90155  13.775  13.499  16.599 -0.2023 -0.0917 -0.0369
47165W        W90156  15.886   8.266   8.762 -0.0822  0.0623 -0.0021
47166W        W90157  12.081  25.455  24.905 -0.1503 -0.2969 -0.0544
47167W        W90158  28.689  23.553   8.389 -0.0525 -0.0056 -0.1706
47168W        W90159   7.496  25.939   1.415 -0.1983 -0.0148 -0.0491
47169W        W90160  27.377  19.447  24.234 -0.1974 -0.1114 -0.1552
47170W        W90161  20.716   7.412  15.847  0.3963 -0.0336  0.2809
47171W        W90162  12.071  28.754  20.763  0.1807 -0.0130 -0.1423
47172W        W90163  13.893  32.666  24.284  0.0165  0.0147 -0.0910
47173W        W90164   2.409  24.805  18.540 -0.1517  0.1958 -0.1009
47174W        W90165   9.843  19.664  28.881 -0.2363 -0.1243  0.4061
47175W        W90166   0.626  21.981   3.631  0.3558  0.0766  0.2521
47176W        W90167   5.310  19.409  11.210 -0.2212  0.0883 -0.2402
47177W        W90168  14.731  29.125  18.611 -0.0810 -0.0270  0.3460
47178W        W90169  10.843  18.024   9.924 -0.0748  0.2511 -0.2643
47179W        W90170  12.958  25.012   8.718  0.0942  0.0380  0.0804
47180W        W90171  11.449   7.721  28.547  0.1081  0.2991  0.1199
47181W        W90172   8.923  12.116  25.946  0.1932  0.0218  0.4433
47182W        W90173  34.291  26.504  22.457  0.0466 -0.0224  0.0416
47183W        W90174  25.357   1.565   8.884  0.1120 -0.0113  0.1192
47184W        W90175   6.091  29.054   4.607 -0.1659 -0.0086 -0.0012
47185W        W90176  19.120   4.952   0.928 -0.1376 -0.1135  0.1690
47186W        W90177  18.275  20.240   1.332  0.0110 -0.1567  0.0367
47187W        W90178  30.004  27.183  23.426 -0.5411  0.1040  0.1291
47188W        W90179  21.929  27.429  26.680 -0.0255  0.3141 -0.0399
47189W        W90180  10.949  27.363  22.823  0.0798  0.3404 -0.1859
47190W        W90181  33.914  10.791  19.537 -0.1150  0.2336  0.0485
47191W        W90182  25.242  25.077  24.698  0.0151  0.1690 -0.0042
47192W        W90183  12.312   7.075  19.274 -0.2846  0.0543  0.0808
47193W        W90184  11.622  26.468  17.643  0.0091 -0.1358 -0.3049
47194W        W90185  31.725   2.345  28.063  0.3163  0.0824  0.1671
47195W        W90186   0.785  23.421  20.864  0.1288  0.0023  0.0046
47196W        W90187   8.728  24.374  25.951 -0.0037  0.2100  0.1195
47197W        W90188  26.769  24.733   4.405 -0.1411 -0.0909  0.0700
47198W        W90189  20.638  29.465  21.111  0.0902  0.3514  0.3003
47199W        W90190  14.874   0.299  23.067 -0.1011 -0.0674  0.1483
47200W        W90191  27.915  26.829  25.475 -0.2056 -0.3810 -0.0803
47201W        W90192  27.146   3.953  26.587  0.1204 -0.1681  0.0946
47202W        W90193  24.168  25.573   1.117  0.1256 -0.0128  0.4777
47203W        W90194   9.408  23.000  22.175  0.5713 -0.3027  0.2095
47204W        W90195  21.906  19.734  19.429  0.0441 -0.3069  0.0761
47205W        W90196   3.316   5.572  10.982 -0.3582 -0.1136  0.1488
47206W        W90197  32.943  16.056  27.309  0.0609 -0.0353 -0.0208
47207W        W90198   2.406  13.385   8.300 -0.2082 -0.0870  0.1929
47208W        W90199  18.627  27.087   5.927  0.0823 -0.3134 -0.1161
47209W        W90200  15.982  28.084  17.907  0.1541  0.3138 -0.0707
47210W        W90201  18.658  20.977  16.853  0.3668 -0.5232  0.3874
47211W        W90202  11.972  27.580  15.666  0.0999 -0.4373 -0.2692
47212W        W90203  26.543   3.118  28.377 -0.0488 -0.0971  0.3057
47213W        W90204  15.050  24.971   0.426  0.0001  0.0875  0.1057
47214W        W90205   3.248  21.815   0.981 -0.2767 -0.1882 -0.1703
47215W        W90206  21.389  22.466  21.291 -0.0500 -0.0600 -0.0322
47216W        W90207   0.040  27.208   6.297 -0.0869  0.0481 -0.3232
47217W        W90208  28.633  31.217   2.269  0.0903 -0.0049 -0.1218
47218W        W90209  23.636  20.009   1.747 -0.0624  0.1102 -0.0320
47219W        W90210  33.397  24.605   5.643  0.3760 -0.2358 -0.2146
47220W        W90211  19.492   0.402  25.713  0.4957 -0.3047  0.1547
47221W        W90212  22.300   8.558  21.956 -0.2073 -0.0548  0.0663
47222W        W90213  33.739  29.351  25.094 -0.0930 -0.0518 -0.1997
47223W        W90214   3.991  27.863   1.702 -0.2420 -0.3951  0.2810
47224W        W90215  32.071   6.505  19.564 -0.2752 -0.0012  0.0471
47225W        W90216   6.365  10.636  21.566 -0.0606 -0.2101  0.0014
47226W        W90217  13.573   0.170   7.581  0.3982  0.1266  0.2485
47227W        W90218  23.101  25.316  16.153  0.1229 -0.5397 -0.0725
47228W        W90219   6.257  18.528  26.610  0.0365  0.0464 -0.1241
47229W        W90220  21.932  34.414   0.476 -0.0055  0.0728  0.0091
47230W        W90221   3.455   3.313  19.434 -0.2695 -0.0364  0.2045
47231W        W90222  11.756  30.806  29.015  0.1141 -0.1957 -0.0321
47232W        W90223  29.168  28.660  17.642  0.2441  0.0648 -0.2847
47233W        W90224   3.482  10.463  27.810  0.0178 -0.0873  0.1059
47234W        W90225   8.492  27.310   9.248 -0.1473 -0.1014  0.0289
47235W        W90226   8.918  10.602  18.044  0.3118 -0.2844 -0.0770
47236W        W90227  15.394  25.618  22.300 -0.2927 -0.2129  0.2787
47237W        W90228   7.306  15.654  21.775 -0.0996 -0.1186  0.3404
47238W        W90229  29.734  28.141   4.292 -0.0027  0.1818  0.2028
47239W        W90230   9.802  22.793  29.026 -0.0068 -0.0740  0.0226
47240W        W90231  30.727  21.738   1.021 -0.2791  0.1896  0.0325
47241W        W90232   8.804  24.788   9.189  0.1674 -0.1087  0.0384
47242W        W90233   2.266  10.237   4.380  0.0017  0.0984 -0.1406
47243W        W90234   2.858  34.437   6.257  0.0997 -0.0393 -0.3427
47244W        W90235   1.602  23.104   2.577 -0.1427  0.1440 -0.3698
47245W        W90236  26.530  26.220   0.212 -0.0225  0.3000  0.0144
47246W        W90237  25.886  32.053   2.115  0.1336 -0.1791  0.1345
47247W        W90238  26.057  25.858   6.189 -0.0778 -0.0486  0.0397
47248W        W90239   8.479  16.056  25.032 -0.2094  0.3095 -0.4019
47249W        W90240  21.761  19.340   5.166 -0.1216  0.1661  0.0690
47250W        W90241   7.351   1.200   6.747 -0.1061 -0.0852 -0.3223
47251W        W90242  30.265  29.614   4.802  0.1252 -0.3217  0.0659
47252W        W90243   1.895  30.342  23.237  0.1384 -0.0189  0.1239
47253W        W90244  10.945  23.259   4.718  0.3036 -0.3568 -0.0722
47254W        W90245   6.976  17.691   3.878  0.0257 -0.0452 -0.1022
47255W        W90246  31.925  22.272  14.725 -0.0747 -0.0280 -0.0071
47256W        W90247   0.823  11.959  23.713  0.1766 -0.1719 -0.1176
47257W        W90248  14.127  11.864   9.330  0.1017  0.0108 -0.0323
47258W        W90249  26.248  33.755   4.373  0.1398 -0.1372  0.1818
47259W        W90250  13.270  16.587  19.297  0.1316 -0.0383  0.0332
47260W        W90251  12.935   8.648  23.423  0.2436 -0.1748 -0.2456
47261W        W90252  12.267  33.683  10.210  0.0708  0.0217  0.3042
47262W        W90253   8.368   2.492  24.144  0.1713  0.1064 -0.0312
47263W        W90254  11.409  16.993   1.070 -0.0557  0.2051  0.0766
47264W        W90255  33.581  22.078   8.550  0.1659  0.3780 -0.0185
47265W        W90256  32.604  18.198   8.248  0.1720  0.0172 -0.4640
47266W        W90257  13.104  33.367   5.020  0.0424  0.3709  0.0078
47267W        W90258  22.636  31.545   1.070  0.1082  0.0857  0.2808
47268W        W90259   2.631   1.066  21.229 -0.0385 -0.1878 -0.3455
47269W        W90260  30.525  10.642   6.208  0.0882  0.0150 -0.0436
47270W        W90261  28.807   6.992   1.421  0.1695  0.3266  0.1025
47271W        W90262   0.341   0.695   6.632 -0.0804  0.0987 -0.0664
47272W        W90263   1.333  13.968  16.606 -0.1323 -0.0683 -0.1158
47273W        W90264   7.849  25.160   7.537  0.1444 -0.0749 -0.2856
47274W        W90265  31.310  22.106  18.898 -0.1172  0.0399 -0.1753
47275W        W90266  32.496  21.178  25.576 -0.1005 -0.2362 -0.0884
47276W        W90267  11.590  24.239   9.713  0.1391  0.1419  0.0341
47277W        W90268  10.050  18.418   0.733 -0.3213 -0.0980 -0.1961
47278W        W90269  12.127   5.839   7.872 -0.0430 -0.1073  0.1730
47279W        W90270  32.941  22.169  10.653  0.3398 -0.1128 -0.2389
47280W        W90271   8.978  24.870  10.326 -0.2848 -0.0790  0.3209
47281W        W90272  20.370  23.859  14.366 -0.5008  0.0733  0.1238
47282W        W90273   8.802   0.332  27.309  0.2403  0.0078 -0.2076
47283W        W90274  13.407  24.580  18.607 -0.0993  0.0766  0.1237
47284W        W90275   8.101  23.174  19.991 -0.2903 -0.2035 -0.0138
47285W        W90276   2.854  27.953  22.538  0.1894 -0.3971  0.0150
47286W        W90277  28.405   0.126   2.234  0.0483 -0.3080 -0.0705
47287W        W90278   4.506  32.259  22.131  0.1442 -0.3477 -0.1475
47288W        W90279   9.827  25.986  23.227 -0.2552  0.1420  0.0587
47289W        W90280   7.053  18.909  27.497 -0.4700  0.0856 -0.1475
47290W        W90281  24.671  11.785  16.195  0.2458  0.1354 -0.2488
47291W        W90282  10.292  12.306  10.730  0.0332  0.0054  0.2660
47292W        W90283  23.670  25.557  24.004  0.1060  0.0188  0.0281
47293W        W90284   6.508  14.654  18.453  0.3377 -0.0481 -0.1448
47294W        W90285  12.317  10.917   6.836  0.0974  0.1225 -0.0961
47295W        W90286  17.063  10.199   4.654 -0.1259  0.1312 -0.0707
47296W        W90287   2.823  19.965  18.095  0.3035 -0.2751 -0.1112
47297W        W90288   6.907   0.846  28.660 -0.1973 -0.2614 -0.1815
47298W        W90289   4.597  20.864   3.509 -0.0672  0.0806  0.0723
47299W        W90290  14.159  26.800   5.897 -0.0098  0.3529 -0.0036
47300W        W90291   8.439  22.313   9.086 -0.0533 -0.2904 -0.0043
47301W        W90292  30.550   1.736   4.359  0.1319  0.1904  0.1926
47302W        W90293   1.414  25.788   2.321  0.1061 -0.0027 -0.1983
47303W        W90294  31.134   7.928  21.943  0.0872 -0.0091  0.0929
47304W        W90295  33.229  32.193   4.238  0.1191  0.0954  0.3601
47305W        W90296  19.652  23.956   6.779  0.1456  0.1990 -0.3919
47306W        W90297  26.659  21.634  17.181  0.2052 -0.1348 -0.2681
47307W        W90298  18.437  26.560   9.185 -0.2452  0.0138 -0.1755
47308W        W90299  25.846  26.549  19.787  0.1529 -0.1417 -0.0792
47309W        W90300  33.086  21.680  15.114 -0.2282 -0.0612  0.0663
47310W        W90301  19.904  20.917  27.888 -0.1885  0.0359  0.2069
47311W        W90302   1.426  28.205  10.317  0.1009 -0.1269 -0.1739
47312W        W90303   7.883  24.473  24.374  0.0298 -0.0885  0.3794
47313W        W90304  12.668  24.637  21.762  0.0752  0.0111 -0.0371
47314W        W90305   6.056  18.499  18.146  0.3689  0.0979 -0.0995
47315W        W90306  33.206   3.839   7.378  0.1813  0.1202 -0.0356
47316W        W90307   1.639   6.829   3.028  0.2708 -0.0941 -0.3766
47317W        W90308  33.673  21.338  20.979 -0.3135 -0.3016 -0.0687
47318W        W90309  27.258   4.267   1.378 -0.2053 -0.1569 -0.2081
47319W        W90310   2.176   0.993   7.153  0.1257 -0.3446 -0.0262
47320W        W90311  32.781  33.760  27.169 -0.1127 -0.1263  0.0441
47321W        W90312  13.854   4.310  26.165  0.0381  0.1238  0.3606
47322W        W90313  18.579  29.537  27.735  0.2495 -0.1307 -0.0108
47323W        W90314   4.419  33.672  19.417 -0.1139  0.1246 -0.0869
47324W        W90315   2.528  14.430   6.364  0.3302  0.1441 -0.0811
47325W        W90316  16.809  21.294  28.705  0.4045 -0.3194 -0.1593
47326W        W90317  25.343  30.100  15.574  0.0752  0.0328  0.3501
47327W        W90318   0.849   3.140  23.906  0.0212  0.2788 -0.3981
47328W        W90319   6.049  17.169   2.690  0.1478  0.0850 -0.3792
47329W        W90320  34.327  17.529  25.564  0.2432 -0.3954  0.0171
47330W        W90321   3.080  26.613   4.650  0.0361  0.0361 -0.0971
47331W        W90322   8.662   4.401  16.911 -0.1097  0.0400 -0.0307
47332W        W90323  12.012  29.923  28.608  0.1182 -0.0662  0.1647
47333W        W90324   2.983   5.392   7.645 -0.1489  0.1771 -0.0891
47334W        W90325   7.577  12.961  20.928 -0.0853 -0.0071  0.3324
47335W        W90326  30.904  18.944   7.200  0.1613  0.1779 -0.0246
47336W        W90327  30.894   8.276  20.648  0.0673 -0.0844  0.1829
47337W        W90328   3.451  29.347  17.266 -0.0924  0.1071  0.1829
47338W        W90329  30.812  15.217   5.581  0.3426 -0.0595  0.1863
47339W        W90330  10.821  21.948  16.250 -0.2313 -0.3553  0.0907
47340W        W90331   2.362  21.451  18.508  0.1029 -0.1899  0.0821
47341W        W90332   5.200  21.014  21.443 -0.3448  0.2390 -0.4409
47342W        W90333  24.855  23.691  24.717 -0.0455  0.1274  0.1874
47343W        W90334  11.404  34.305  25.464 -0.2540  0.1223  0.2841
47344W        W90335   6.554  27.649   5.599  0.1279  0.4011 -0.0855
47345W        W90336  14.520  32.206   6.441  0.1933 -0.0852 -0.0486
47346W        W90337  34.344  32.834  24.780  0.0400 -0.1236 -0.0652
47347W        W90338  11.248  21.254  25.372  0.2618 -0.0996  0.1342
47348W        W90339   7.682  20.947  27.611  0.1601 -0.0299 -0.0075
47349W        W90340  15.423  21.751  25.864 -0.0844 -0.0066  0.0911
47350W        W90341  22.595   8.574   2.230  0.0412 -0.0864  0.1352
47351W        W90342   4.312  14.692  25.535 -0.1378  0.1296  0.0175
47352W        W90343   6.063  30.071   7.209 -0.1234 -0.1527 -0.3749
47353W        W90344  13.336   0.919  10.558  0.2681 -0.1646  0.0002
47354W        W90345   8.156  15.038  18.607  0.1144  0.4194  0.0291
47355W        W90346  25.956  23.203  27.934 -0.0550 -0.4059  0.2010
47356W        W90347  32.898   1.555  28.245 -0.1180 -0.2726 -0.1137
47357W        W90348  17.975  16.153   0.589 -0.1689  0.3119 -0.0339
47358W        W90349   8.314  16.240  17.029  0.3063 -0.1744  0.0013
47359W        W90350   2.727  26.725  24.049  0.0301 -0.2224  0.0989
47360W        W90351   4.790   6.981  18.993  0.1570 -0.2919 -0.0088
47361W        W90352  21.986  31.946  15.294  0.0195  0.1912  0.3091
47362W        W90353  17.793   8.121  15.964 -0.0293  0.0315  0.0037
47363W        W90354  16.884  29.487  15.754 -0.0607  0.1314  0.0551
47364W        W90355   6.346  32.146  26.027 -0.1773 -0.3412  0.0046
47365W        W90356  27.726  21.059  27.617  0.0881  0.1189 -0.0886
47366W        W90357  22.574  11.601  18.532 -0.0420 -0.0308  0.1179
47367W        W90358  13.260  27.833  17.485  0.3382 -0.1372 -0.1731
47368W        W90359   8.215  28.150  18.738  0.3589  0.0649 -0.2154
47369W        W90360   0.422  21.480   5.958  0.0300  0.4291  0.0738
47370W        W90361   4.322  32.971  21.659  0.1613 -0.0778  0.0983
47371W        W90362  33.973  25.431  14.518 -0.2638  0.1015  0.0266
47372W        W90363  19.931  27.066  16.590  0.1293 -0.1239 -0.1105
47373W        W90364  33.988  23.824  16.978 -0.1819  0.0106  0.1127
47374W        W90365   7.980  18.712  25.446  0.2006  0.3811 -0.1863
47375W        W90366   8.408  31.569   4.105 -0.1725 -0.0316  0.2118
47376W        W90367  11.312   7.166  23.261  0.1499  0.2669  0.1015
47377W        W90368  18.898  32.066   9.894 -0.2174 -0.1557  0.1595
47378W        W90369  21.237  32.717  23.690 -0.2160  0.3839 -0.1057
47379W        W90370   5.250  24.613  16.400  0.0272  0.1129 -0.1330
47380W        W90371  27.306  28.538  16.195 -0.1694 -0.0514 -0.1394
47381W        W90372  33.960  31.943  22.621 -0.2914  0.2112 -0.1075
47382W        W90373  11.938  30.994  21.513 -0.2222 -0.0533  0.1259
47383W        W90374   9.175  21.101  15.957  0.4785 -0.3516  0.1404
47384W        W90375  34.156  20.488  24.471  0.1311 -0.2607 -0.0755
47385W        W90376  19.129  16.390  24.656 -0.1067  0.2337  0.1029
47386W        W90377  29.472  32.076  14.511 -0.2994 -0.1754  0.2151
47387W        W90378  16.618  22.897  17.216 -0.0156 -0.0059  0.0188
47388W        W90379  28.998  32.509  15.396  0.0393  0.0429 -0.2922
47389W        W90380   4.381  34.764   5.502  0.1027  0.4647  0.0497
47390W        W90381  30.478  16.548  18.778  0.2249  0.0243 -0.0255
47391W        W90382  28.886  21.773   0.820  0.3850 -0.1927  0.3499
47392W        W90383  29.807  18.240  15.426  0.0079 -0.0833  0.1813
47393W        W90384  24.903  29.575  23.887 -0.0669 -0.2303  0.1386
47394W        W90385  20.008   4.681  19.422  0.2095 -0.2124 -0.2150
47395W        W90386   4.658  14.200  24.359 -0.1860  0.2623  0.4545
47396W        W90387  10.199  18.909  14.721  0.1398  0.4794  0.0949
47397W        W90388  31.904   6.869  18.066  0.1524 -0.2200 -0.4520
47398W        W90389   2.029  24.238  25.795  0.0019  0.3527  0.1935
47399W        W90390   1.098   5.400  26.980 -0.0260  0.2915 -0.1528
47400W        W90391  31.361  34.343  14.642 -0.2577 -0.0277 -0.0709
47401W        W90392  15.347  24.862   2.646 -0.1744  0.1240 -0.0262
47402W        W90393  15.254  20.931  14.453 -0.0909 -0.0247  0.2023
47403W        W90394  33.557  30.907  27.615 -0.5078 -0.0710  0.1629
47404W        W90395  15.485  25.221  19.592 -0.2567 -0.1588  0.1452
47405W        W90396  13.705  13.693  17.460  0.2043  0.0692 -0.0189
47406W        W90397  30.343  30.750  17.937 -0.4237 -0.0094  0.2337
47407W        W90398  25.304  23.529   2.406  0.3120 -0.0184 -0.0661
47408W        W90399   1.273  31.523  26.529  0.0503  0.1605  0.1440
47409W        W90400  10.334  34.297  17.275 -0.2804  0.1673 -0.0293
47410W        W90401   1.568   0.070  24.991 -0.3277 -0.1558  0.0342
47411W        W90402  27.122   3.110  26.105  0.3812 -0.4562  0.0555
47412W        W90403   8.197  13.700  17.197  0.1097  0.0269  0.0114
47413W        W90404  18.938  22.025  12.857  0.1152 -0.2657 -0.0203
47414W        W90405   8.578  27.041  28.483 -0.2438 -0.2265 -0.1245
47415W        W90406  34.669  22.922  13.572 -0.3145  0.2042  0.2716
47416W        W90407  21.147  34.647  15.990  0.2463  0.0292 -0.1025
47417W        W90408   6.916  19.027  16.699  0.0159  0.0330 -0.1940
47418W        W90409  23.590   3.688  23.771 -0.3171  0.2036  0.3068
47419W        W90410  17.371  27.690  14.831 -0.1163 -0.1060  0.0375
47420W        W90411  11.233  34.190  27.901 -0.1191 -0.2179 -0.1544
47421W        W90412   0.995  32.678  17.775 -0.2345  0.0390 -0.2328
47422W        W90413  31.473  23.098  17.329  0.2055  0.2365 -0.1098
47423W        W90414  13.611  24.678  20.663 -0.1551 -0.0239 -0.1082
47424W        W90415   9.604  32.059  28.362 -0.1271  0.2949 -0.1924
47425W        W90416   6.720   2.886  16.381  0.1078  0.0489 -0.1068
47426W        W90417  12.276  27.709   2.064  0.2114 -0.0958  0.1808
47427W        W90418  17.869  23.956   3.032 -0.5879  0.1076  0.1297
47428W        W90419   8.864  19.724  20.823 -0.0979  0.1548 -0.4164
47429W        W90420   0.914  22.042  16.761 -0.2129 -0.4726  0.1802
47430W        W90421   2.691  25.478  28.492  0.0371  0.4422  0.0793
47431W        W90422  15.295  33.702  19.597 -0.2077  0.0472 -0.0633
47432W        W90423  18.246  29.751  20.491  0.1616  0.3702 -0.2230
47433W        W90424  32.969  24.504  18.234  0.0526 -0.0880 -0.0686
47434W        W90425  13.663  11.281  20.770 -0.4520  0.2792  0.0732
47435W        W90426  12.508  27.533  18.406 -0.0465 -0.1849  0.4815
47436W        W90427  22.565  29.518  16.104  0.0992  0.1028  0.1875
47437W        W90428   3.496  33.655  25.797 -0.1972 -0.0362 -0.0400
47438W        W90429  28.013  20.656   0.364  0.2565  0.1669 -0.3264
47439W        W90430  14.970  26.719  16.844  0.0947  0.1872 -0.1022
47440W        W90431   7.990   3.788  14.679  0.3372 -0.1943 -0.2298
47441W        W90432   3.690   6.702  18.002  0.2766  0.0634  0.2893
47442W        W90433  19.819   2.787  24.865 -0.1128  0.1886  0.0567
47443W        W90434   3.205  23.800  19.619 -0.3228 -0.0683  0.0115
47444W        W90435   3.488   2.990  25.734  0.1437 -0.0406 -0.2560
47445W        W90436  11.224   1.918  20.192  0.0419 -0.2654  0.0188
47446W        W90437   3.026   7.126  20.737 -0.0527  0.2145  0.1100
47447W        W90438   8.902  13.598  18.972 -0.0941  0.2467 -0.0108
47448W        W90439  18.444  24.981  18.188  0.1013  0.0797  0.1144
47449W        W90440  26.403  34.748  14.321 -0.3248  0.1878  0.0363
47450W        W90441  15.343  28.775  20.810 -0.2795 -0.0638  0.1265
47451W        W90442   3.177   8.257  27.803  0.2215  0.2735 -0.1611
47452W        W90443  23.426  16.090  16.601  0.1328 -0.0471  0.0998
47453W        W90444  31.341  15.256  22.877 -0.2069 -0.4146  0.0251
47454W        W90445   0.743  27.192  23.019 -0.0102  0.0216 -0.0247
47455W        W90446  18.190  28.993  14.298  0.0188 -0.0870 -0.1042
47456W        W90447   7.229  30.516  24.096  0.1402 -0.1172 -0.0067
47457W        W90448   8.310  12.872  20.941  0.2283 -0.3269 -0.5226
47458W        W90449   3.525   3.738  23.421  0.1929 -0.2766 -0.3108
47459W        W90450   3.371   5.753  21.589  0.2476 -0.2439  0.0474
47460W        W90451  24.548  23.179  18.508  0.1176  0.0544  0.3077
47461W        W90452  22.769  16.310  27.199 -0.1418 -0.2768  0.0330
47462W        W90453   1.165  23.301  14.774  0.1408  0.0660 -0.1930
47463W        W90454   5.025   2.421   0.476  0.0186 -0.1591 -0.0243
47464W        W90455  10.357  30.510  16.568  0.2316  0.0605 -0.1983
47465W        W90456   3.788  30.483  21.119  0.0307 -0.0269  0.2112
47466W        W90457   9.202  21.923  20.451  0.0310 -0.1854  0.1356
47467W        W90458   4.862  32.667  23.278 -0.0983 -0.3841 -0.2137
47468W        W90459  20.838  12.431  19.480 -0.1053 -0.0860 -0.0047
47469W        W90460  26.717  13.937  15.865  0.0703  0.1683  0.1477
47470W        W90461   0.133  27.642  15.831 -0.0063  0.0874 -0.1378
47471W        W90462   7.909  18.115  19.645 -0.0591 -0.0344 -0.3749
47472W        W90463   7.898  18.898  17.636 -0.2864  0.0469  0.1259
47473W        W90464  26.174  31.405  19.408 -0.3570  0.2226 -0.0149
47474W        W90465   4.311   0.034   1.323 -0.0607 -0.1391 -0.1923
47475W        W90466  11.450  23.921  23.090 -0.0874 -0.2083 -0.0494
47476W        W90467  31.627  14.391   1.816  0.1183  0.0560 -0.0894
47477W        W90468  11.827  33.432  25.934 -0.0761 -0.0333  0.0608
47478W        W90469   2.300  18.518  22.704 -0.4004  0.2122  0.1916
47479W        W90470  10.265  29.077  18.839 -0.0825 -0.0801 -0.1245
47480W        W90471   6.467   9.142  21.576 -0.1730  0.0792  0.0279
47481W        W90472   7.069  13.029  16.762 -0.2579 -0.1279 -0.2978
47482W        W90473  14.438   4.700  26.867 -0.1012  0.1031 -0.2315
47483W        W90474  14.635  26.895  21.449  0.3194  0.0087 -0.0292
47484W        W90475  20.185   2.053  21.448 -0.5077  0.0793 -0.0848
47485W        W90476  24.876  22.834  16.577  0.2191 -0.1032 -0.1375
47486W        W90477  19.639  30.348  21.900  0.1989 -0.0059 -0.1040
47487W        W90478  21.820  34.268   5.581 -0.0105 -0.1443  0.2161
47488W        W90479   9.468  19.779  20.077 -0.2865  0.0765 -0.0588
47489W        W90480   9.354  27.923  22.297 -0.1560  0.0408 -0.5735
47490W        W90481  33.676  21.853  19.996  0.0425 -0.1622 -0.0097
47491W        W90482  16.156  27.522  15.565 -0.0839  0.2418  0.2280
47492W        W90483   3.638  30.472  25.789  0.3099  0.0973 -0.2508
47493W        W90484  16.825  29.547   4.052 -0.0305  0.1995 -0.0364
47494W        W90485  12.730  20.870  20.517  0.0269 -0.1661  0.0277
47495W        W90486  28.003  33.979  17.172  0.1179  0.0406 -0.1183
47496W        W90487   3.807   2.450  15.921  0.4120 -0.0633  0.2211
47497W        W90488  34.152  34.067  20.485  0.0955 -0.2091 -0.0540
47498W        W90489   7.454   2.426  18.552 -0.1372 -0.3803  0.0001
47499W        W90490  30.282  28.015  18.039 -0.0406  0.1747 -0.2242
47500W        W90491  13.280  27.028  19.411  0.2567  0.0710  0.1812
47501W        W90492   2.993   6.516  23.268  0.2637  0.1721 -0.3445
47502W        W90493  16.261  30.878  19.367 -0.0172  0.2412 -0.3102
47503W        W90494  16.747  31.333  24.037  0.0396  0.3838 -0.0426
47504W        W90495  21.072  33.647  16.704 -0.0518  0.1422  0.0223
47505W        W90496   3.001   0.753  22.011 -0.1532  0.1755  0.1065
47506W        W90497   4.107   6.410  15.061 -0.1189  0.2061  0.1012
47507W        W90498   2.086  20.334  18.206  0.3102 -0.0146 -0.0954
47508W        W90499  19.502  30.724  27.895  0.0627 -0.0091 -0.1594
47509W        W90500  31.205  12.865  18.291  0.0245 -0.2748  0.0382
47510W        W90501  21.295  28.055  18.122  0.2776 -0.1369 -0.0270
47511W        W90502   1.342   1.969  24.373 -0.1079  0.1500  0.2570
47512W        W90503   5.111  30.562  18.866  0.0820 -0.2559 -0.1090
47513W        W90504  24.572  21.251  16.394 -0.0454 -0.1367  0.1433
47514W        W90505  29.080  13.146  10.556  0.0900 -0.0219 -0.0535
47515W        W90506   2.393  30.827  17.809  0.1808 -0.1706  0.0144
47516W        W90507  11.906  24.740   3.120  0.0169 -0.2669 -0.2006
47517W        W90508   9.440   0.883  27.300  0.0388  0.1389 -0.1015
47518W        W90509   3.466  25.030  17.190  0.0428  0.1236  0.1669
47519W        W90510  11.987  22.189  23.790  0.1372 -0.0695 -0.1253
47520W        W90511  17.853  23.903  21.796 -0.0012 -0.1225  0.1053
47521W        W90512  25.000  33.830   0.158 -0.3485 -0.3619  0.4326
47522W        W90513  15.923  25.036  27.476  0.3031  0.1265 -0.0118
47523W        W90514  13.284  26.974  21.801  0.4262 -0.2893 -0.1609
47524W        W90515  33.707   7.668  27.611  0.1344 -0.2064 -0.0298
47525W        W90516   7.419   0.692  21.690 -0.1432 -0.0803  0.3030
47526W        W90517  31.735  34.036  18.841 -0.5035  0.1606  0.0243
47527W        W90518   3.281  22.531  24.986 -0.0176  0.0660 -0.1553
47528W        W90519   0.099   1.100  21.884 -0.1925 -0.0180 -0.1960
47529W        W90520   4.463  26.132  21.341  0.1427  0.3274  0.0978
47530W        W90521   1.715  25.506  23.447  0.1019  0.0844 -0.0710
47531W        W90522  23.286  32.743  13.898  0.2580 -0.2494  0.2611
47532W        W90523  23.326  34.494  23.603 -0.0374 -0.0782  0.0007
47533W        W90524   4.401  21.517  16.481 -0.1470 -0.2466  0.0707
47534W        W90525  12.568  27.634   1.458 -0.0817  0.2313 -0.0794
47535W        W90526  21.568  25.602  15.310 -0.1530  0.1246  0.0817
47536W        W90527   2.612   8.050  25.536 -0.0356 -0.1424 -0.0308
47537W        W90528   8.705   6.814  28.922 -0.3887  0.3521  0.0583
47538W        W90529  28.598   6.449  18.850  0.2609 -0.0301  0.0694
47539W        W90530  29.297  29.073  18.397 -0.0058 -0.1560  0.0529
47540W        W90531  16.413  30.445  18.542 -0.1604  0.1143  0.1483
47541W        W90532   5.546  22.167   2.916 -0.0832  0.4706  0.0192
47542W        W90533   8.210  34.268  15.981 -0.2079  0.2318 -0.1829
47543W        W90534  18.790   1.864  14.479 -0.3427  0.1510 -0.0310
47544W        W90535  20.658  34.275  22.239  0.3133  0.2222  0.0777
47545W        W90536  11.070  30.049  20.167  0.1279 -0.1198 -0.0192
47546W        W90537   3.659  14.950  15.565  0.3344  0.1043  0.0115
47547W        W90538  22.845  29.516  19.448  0.0184 -0.0509 -0.1074
47548W        W90539  17.250   3.022  28.533  0.0207  0.2058  0.6130
47549W        W90540   3.542  21.300  16.317 -0.0608  0.1277 -0.0660
47550W        W90541  18.998  27.524  22.483 -0.2097 -0.0447 -0.2094
47551W        W90542  21.384  30.880  14.511  0.0174  0.0854  0.1227
47552W        W90543   1.727  28.995  14.496  0.1250 -0.1010 -0.0825
47553W        W90544  26.988   2.102  17.508 -0.1064  0.3272 -0.3130
47554W        W90545   6.360   0.967  19.970  0.0945 -0.2822  0.1385
47555W        W90546  12.712   9.715  21.422 -0.1466  0.2201  0.2388
47556W        W90547  27.816  21.274  22.799  0.2319 -0.0924 -0.2079
47557W        W90548   5.427   2.284  15.725  0.0982  0.0085  0.1039
47558W        W90549  11.834   8.796  22.182 -0.1265  0.1026  0.0309
47559W        W90550  31.398   7.639  15.019 -0.0394  0.0819  0.5930
47560W        W90551  12.819   6.025  26.202 -0.1410  0.0904  0.2289
47561W        W90552   8.795  14.608  14.816 -0.0236  0.0007  0.1166
47562W        W90553  10.717  23.739  17.568 -0.0389 -0.0924  0.2069
47563W        W90554  33.001  13.808  16.307 -0.1534  0.4748  0.2813
47564W        W90555  32.623   1.083  18.044  0.3657 -0.0531  0.0003
47565W        W90556  13.397  32.124  16.377  0.1474  0.1065 -0.2307
47566W        W90557  19.930  10.395  23.016  0.1486 -0.1119  0.0370
47567W        W90558  11.011  17.930  17.083 -0.0242  0.2525 -0.0799
47568W        W90559  18.067   7.405  17.340 -0.3640  0.0971  0.2098
47569W        W90560  14.504  28.162   1.986 -0.1621  0.0436 -0.2135
47570W        W90561   4.870  23.432  17.950 -0.1784 -0.4023  0.2894
47571W        W90562   7.128  12.439  22.894  0.0209  0.1590  0.0182
47572W        W90563  15.704  31.174  27.796  0.2845  0.0360  0.1195
47573W        W90564   7.102  33.261  20.750 -0.2910  0.2049 -0.3173
47574W        W90565  15.065  27.644  15.182 -0.2049  0.3387  0.2209
47575W        W90566  33.968   4.602  14.785  0.0069 -0.1193  0.3265
47576W        W90567   9.622  30.752  16.642 -0.0160 -0.1453  0.2498
47577W        W90568  24.516   2.155  26.508  0.0625 -0.0870  0.0810
47578W        W90569  16.759  32.990  17.696 -0.0673 -0.3497 -0.2975
47579W        W90570   3.716  30.620  20.066 -0.0862 -0.0865  0.0861
47580W        W90571  28.527  30.512  26.724  0.1006 -0.0076  0.0254
47581W        W90572  10.875  15.147  14.981 -0.0449 -0.0344  0.0174
47582W        W90573  18.669   5.581  17.938 -0.2699 -0.1291  0.1502
47583W        W90574  32.550  24.586  17.413  0.0191 -0.0413 -0.0871
47584W        W90575  18.105  12.418  15.004  0.1206 -0.0383  0.2456
47585W        W90576   9.950  27.286  20.555  0.0772  0.0930 -0.0456
47586W        W90577   8.378  10.882  20.438 -0.2460  0.0768 -0.0495
47587W        W90578   4.181  14.504  26.016  0.1902 -0.1747 -0.3429
47588W        W90579  33.843  26.418  27.030  0.2480  0.2393 -0.1164
47589W        W90580  15.354  31.769  16.151 -0.2212 -0.0618  0.0558
47590W        W90581   3.293   5.836  16.453 -0.0724  0.3159 -0.0692
47591W        W90582  24.624  31.538  17.685  0.0580 -0.3328  0.0372
47592W        W90583  24.706   2.346  21.678  0.1056  0.0996 -0.0787
47593W        W90584  11.902  26.540  24.254 -0.0645 -0.2117 -0.3465
47594W        W90585   0.086   4.333  19.494  0.2480 -0.0483 -0.3185
47595W        W90586  16.343   6.402  20.394  0.1323 -0.0511  0.0821
47596W        W90587   8.685  19.437  21.617 -0.3396 -0.1181 -0.3244
47597W        W90588  27.465   1.415  26.324  0.1862  0.0436  0.4171
47598W        W90589  14.448   0.992  18.220  0.0992  0.0239  0.1051
47599W        W90590   9.513   5.876   5.379 -0.2123 -0.0926  0.0652
47600W        W90591  12.592  10.842   3.940 -0.1700 -0.3015 -0.0762
47601W        W90592  24.101  33.700  14.458 -0.1864  0.1222  0.3214
47602W        W90593  12.381  24.110   2.822 -0.0945  0.1690  0.2204
47603W        W90594  10.127  27.922  14.882 -0.0139  0.0647 -0.1086
47604W        W90595   6.846  29.848  25.830 -0.0355  0.0372  0.6442
47605W        W90596  34.758  31.217  20.018 -0.1068 -0.3567 -0.2325
47606W        W90597  15.723  21.005  29.171 -0.0333  0.1933  0.2483
47607W        W90598  16.548  21.223  14.915  0.0143  0.3107 -0.1568
47608W        W90599  25.857  32.828  22.571  0.3100 -0.1982 -0.1546
47609W        W90600  11.566  25.394  17.091 -0.0465  0.1508  0.0869
47610W        W90601   9.040  31.895  17.531  0.2476  0.0701 -0.1064
47611W        W90602  12.876  21.525  17.209 -0.1602 -0.0569 -0.0214
47612W        W90603  12.761  17.741  14.103  0.4543 -0.3613  0.1823
47613W        W90604  19.877  27.775  25.385 -0.3551 -0.1085  0.1374
47614W        W90605  17.853  12.408   1.076  0.2968  0.0947  0.1351
47615W        W90606   5.233  34.335  16.299  0.0197  0.2601  0.0130
47616W        W90607  25.649  15.835  17.378 -0.3136  0.0766 -0.0962
47617W        W90608  16.854  28.415  23.705  0.1714  0.2308  0.1282
47618W        W90609  33.934  16.301  20.409  0.2289 -0.3731 -0.4423
47619W        W90610   5.717   1.665  22.412  0.0387 -0.0591 -0.0801
47620W        W90611  30.915   5.419   1.510 -0.2464  0.2116  0.1753
47621W        W90612   9.374  11.057  16.068  0.2026 -0.1731 -0.1480
47622W        W90613   3.360  33.308  13.591 -0.3567 -0.1007  0.0785
47623W        W90614  10.252  18.853  23.291  0.1466  0.3244  0.0486
47624W        W90615  30.031   4.142  19.885 -0.2743 -0.0286  0.0620
47625W        W90616   4.093  23.397  18.325  0.1383 -0.0220  0.0064
47626W        W90617   2.701   0.221  22.781 -0.7740 -0.1699 -0.1315
47627W        W90618  19.245  30.526  25.734  0.1362  0.1303  0.1141
47628W        W90619   3.476  20.535  16.400  0.0000 -0.5539  0.1244
47629W        W90620  34.620  28.880  21.635  0.1994  0.2302  0.1643
47630W        W90621   8.237  26.326  17.357  0.0712  0.3587  0.3769
47631W        W90622  31.853   6.871   0.847  0.0954  0.1086  0.4828
47632W        W90623  12.454   8.003  23.703 -0.1825 -0.1533  0.0662
47633W        W90624  29.699  18.423  20.648 -0.1909 -0.0112 -0.0331
47634W        W90625   4.879  30.384  23.508 -0.0192 -0.1917 -0.0095
47635W        W90626   5.019  20.264  15.280 -0.1712 -0.3282  0.1082
47636W        W90627  32.021   7.290  21.845 -0.0038 -0.3295 -0.2401
47637W        W90628  13.402   2.493   1.238 -0.1070  0.1638 -0.3007
47638W        W90629   8.049  34.793  18.323  0.1155 -0.3100  0.0439
47639W        W90630  15.682  26.277  20.721  0.0446  0.0684 -0.2898
47640W        W90631  21.810   2.860  17.112  0.2224 -0.3805 -0.2926
47641W        W90632   7.663   6.409  18.286  0.0703 -0.0118  0.1061
47642W        W90633  30.482  15.038  22.147 -0.3242 -0.1156 -0.0977
47643W        W90634  18.932  31.514  14.209  0.0158  0.2493 -0.3578
47644W        W90635  26.963   6.323  22.350 -0.0279  0.1435  0.1142
47645W        W90636   3.388   0.822  23.043  0.2049 -0.0013 -0.1569
47646W        W90637  12.817  28.067  18.464  0.0478  0.2437 -0.0146
47647W        W90638   3.770  25.417  24.081  0.0883  0.0799  0.0278
47648W        W90639  34.151  19.388  16.163 -0.0766 -0.2573  0.0051
47649W        W90640  11.431   1.441  19.965  0.0380  0.0217 -0.1155
47650W        W90641  10.346  20.919  20.530  0.2687  0.0301  0.0230
47651W        W90642   7.049   2.154  25.184  0.1150  0.2751 -0.0846
47652W        W90643  24.877  32.886  15.718  0.0425 -0.0730  0.3382
47653W        W90644  32.023  24.842  16.106 -0.0485 -0.2391  0.2062
47654W        W90645  11.035   4.160  17.258  0.0088  0.0324 -0.1427
47655W        W90646   5.129   4.490  17.305 -0.1053 -0.0106 -0.1083
47656W        W90647   9.800  25.392  15.611 -0.1393  0.1393 -0.1585
47657W        W90648   5.485  23.490  20.887  0.2950 -0.0312  0.2231
47658W        W90649   1.121  24.591  18.707  0.1948  0.0450 -0.1641
47659W        W90650  11.929   4.241  15.630 -0.0697 -0.1532  0.0851
47660W        W90651  16.090   3.870   0.292  0.2534 -0.0342  0.1167
47661W        W90652  13.948   7.347  15.496 -0.1255 -0.2069 -0.0628
47662W        W90653   1.754  32.907  20.940  0.2044  0.0525 -0.1161
47663W        W90654   9.112  26.581  26.961 -0.1945  0.0883  0.1156
47664W        W90655  11.295   5.667  21.962  0.1096  0.2251  0.0867
47665W        W90656  12.209   6.360  17.245  0.2622  0.1535  0.1605
47666W        W90657  10.822  19.865  23.368  0.2337 -0.0914 -0.1112
47667W        W90658  13.874   0.385  16.958  0.0041 -0.0291 -0.0974
47668W        W90659  32.789  31.819  18.894  0.1349 -0.1838 -0.0528
47669W        W90660  33.599  29.071  18.918 -0.3409  0.1376  0.2191
47670W        W90661  18.690  33.555  16.441  0.0017  0.2084 -0.1928
47671W        W90662  15.753  23.405  14.127  0.1217  0.0791 -0.1664
47672W        W90663   9.611  26.723   4.201 -0.0242  0.0044 -0.0559
47673W        W90664  17.697  21.059  25.539 -0.1646 -0.0027  0.0137
47674W        W90665  10.549  26.749  21.565 -0.0467  0.1514  0.0702
47675W        W90666  29.507  21.989  20.638 -0.2830  0.2837  0.1495
47676W        W90667   9.592  32.143  16.731 -0.1344  0.0573  0.2355
47677W        W90668   9.643  25.949  20.922  0.3057  0.0639  0.2193
47678W        W90669   3.830  28.116  19.671  0.2526  0.2287 -0.1330
47679W        W90670  31.476  31.740   1.101  0.4271  0.5631 -0.0371
47680W        W90671  11.903  20.425  22.948 -0.1959 -0.2779  0.0331
47681W        W90672   0.804   2.263  15.678  0.1627 -0.0883  0.1361
47682W        W90673   9.864  33.164  20.995 -0.3162  0.0241  0.0166
47683W        W90674  14.824   3.324  27.762 -0.4020 -0.2531 -0.0639
47684W        W90675   4.368  13.966  24.864  0.4286 -0.2199 -0.1677
47685W        W90676  13.648  25.611  16.499  0.0544 -0.0839 -0.0752
47686W        W90677  22.311  29.954  25.472  0.1100 -0.0892 -0.3263
47687W        W90678  14.779  27.434  21.232  0.0230  0.1712 -0.1296
47688W        W90679  21.408  29.836  19.187 -0.2929  0.2853 -0.0388
47689W        W90680   8.142  10.806   4.158  0.0101  0.1878  0.0388
47690W        W90681   6.919  16.065  21.724  0.4795 -0.1564  0.0971
47691W        W90682  16.216  25.879  19.875 -0.2827 -0.1584 -0.4147
47692W        W90683  21.246   7.788  27.558  0.1289  0.1270 -0.1202
47693W        W90684  10.515  19.885  21.263 -0.1583 -0.0999 -0.2340
47694W        W90685  10.901   1.273  24.719 -0.0786 -0.1056 -0.2184
47695W        W90686  11.151  25.605  25.812  0.5245  0.0327 -0.3429
47696W        W90687   2.620  23.336   2.879 -0.1503  0.0605 -0.2608
47697W        W90688   9.867  32.002  16.343 -0.0030 -0.0353  0.0855
47698W        W90689  17.969  29.312  14.554  0.0020  0.0197 -0.1149
47699W        W90690  25.650  19.865  28.780  0.0081 -0.0876  0.0877
47700W        W90691   5.437   0.373  15.532 -0.0766 -0.0415 -0.2614
47701W        W90692  22.800  24.131  25.263  0.3671 -0.0325 -0.3166
47702W        W90693  17.076  34.283  15.419 -0.2635  0.2559 -0.0220
47703W        W90694  27.259   7.739  22.517 -0.1553  0.1741 -0.0357
47704W        W90695   8.647   4.751  27.865 -0.2875  0.1844  0.3300
47705W        W90696   5.197  31.322  17.351  0.1159 -0.0029 -0.0817
47706W        W90697   6.447  25.956  15.963  0.5310 -0.0686  0.3186
47707W        W90698   1.525  31.176  21.568 -0.1605  0.2759 -0.1724
47708W        W90699  12.104  18.436  20.744 -0.0637 -0.0462  0.0265
47709W        W90700  32.996  17.000  15.513 -0.2266  0.0936 -0.0249
47710W        W90701  10.649  24.269  22.786  0.0607  0.2039 -0.3495
47711W        W90702   6.532  15.173  16.457 -0.3918 -0.3978  0.1665
47712W        W90703   7.557   0.396  21.019  0.0417 -0.0248  0.3302
47713W        W90704   4.360  23.995  23.846  0.1142 -0.3115  0.1571
47714W        W90705  28.445  21.785  16.505  0.4459 -0.0053  0.1023
47715W        W90706  33.328  27.206  25.850 -0.1600  0.3461  0.3323
47716W        W90707  10.943  19.027  17.026 -0.0978  0.1149  0.0621
47717W        W90708   6.010  27.700  14.843  0.1405  0.1048  0.0948
47718W        W90709  30.517  18.223  14.856  0.0862 -0.2813  0.0180
47719W        W90710  10.706  26.241  25.791  0.1181 -0.1609 -0.2179
47720W        W90711   1.964  33.498  21.798  0.1016 -0.0016  0.3271
47721W        W90712  16.455  24.370  26.874  0.0604  0.2684  0.1231
47722W        W90713   8.611  16.511  26.464  0.0895 -0.1822 -0.0301
47723W        W90714  10.389  21.185  18.343 -0.2942 -0.1897  0.0839
47724W        W90715  15.166  24.816  18.648 -0.0769  0.0373 -0.0260
47725W        W90716   6.188   2.646  21.055 -0.2903 -0.1831  0.0122
47726W        W90717  26.975  22.151  20.310 -0.0926 -0.1261 -0.1212
47727W        W90718  12.989  31.654  28.335  0.0755  0.1440  0.0897
47728W        W90719   2.562  19.477  17.928  0.0479  0.0678 -0.2645
47729W        W90720  12.657   7.506  15.885  0.1089 -0.0988 -0.1446
47730W        W90721   8.612  23.492  17.200 -0.2282 -0.1789 -0.0372
47731W        W90722   7.169   2.462  16.359 -0.0969 -0.1608 -0.4458
47732W        W90723   3.995  19.811   0.086 -0.0113  0.0103 -0.0672
47733W        W90724  27.236  27.369  15.425  0.1087 -0.2098  0.0548
47734W        W90725  22.680  28.789  17.230 -0.2311 -0.2311 -0.1157
47735W        W90726  24.644  16.855  28.349 -0.0962  0.2792  0.0211
47736W        W90727  17.636  25.688  13.307 -0.0018  0.3196 -0.0276
47737W        W90728  13.021   0.356  26.903 -0.2141 -0.1961  0.1188
47738W        W90729   4.569   0.386   0.956 -0.2054  0.3485 -0.0671
47739W        W90730   4.830  16.767  27.594 -0.2319  0.1170  0.4654
47740W        W90731  32.059  21.811  14.567  0.0248 -0.2276 -0.1164
47741W        W90732  12.600   0.405  17.801 -0.0311 -0.0281  0.0733
47742W        W90733   8.017  24.094  23.539 -0.1598 -0.0467 -0.0606
47743W        W90734   4.174  25.292  22.316 -0.2024 -0.0271  0.1008
47744W        W90735  14.264   3.060  22.945 -0.3308  0.2663 -0.4654
47745W        W90736  24.436  31.197  15.814  0.0608 -0.2082 -0.2310
47746W        W90737   2.328  32.176  25.141  0.1569  0.1237  0.4207
47747W        W90738  19.201  17.593  13.757  0.3693  0.0927  0.1564
47748W        W90739   1.142  33.243  15.135 -0.0336 -0.0993 -0.2896
47749W        W90740  24.734  13.106  20.618  0.1225  0.0087  0.0513
47750W        W90741   5.336  21.924  14.856 -0.2303 -0.0661  0.0288
47751W        W90742  31.878  23.710  27.861  0.1959 -0.0232 -0.0215
47752W        W90743   6.896  22.985  26.536 -0.2718 -0.0982  0.0020
47753W        W90744   8.754   1.171  27.384  0.3418 -0.0250 -0.1489
47754W        W90745  31.395  28.961  22.387 -0.1230 -0.4110  0.0216
47755W        W90746  21.263  29.858  18.692 -0.3511  0.0712  0.1953
47756W        W90747   6.167  27.725  22.309  0.0524  0.1464 -0.1201
47757W        W90748  32.587   0.452  25.373  0.1534 -0.1214  0.0821
47758W        W90749  25.639   1.238  16.094  0.2717  0.1474 -0.0445
47759W        W90750  33.632  21.209  18.547 -0.0125  0.0361  0.1009
47760W        W90751  32.545   1.351  20.005  0.3179  0.0242 -0.0731
47761W        W90752  17.187  32.796   1.118  0.2248  0.2733  0.0899
47762W        W90753  34.710  16.099  19.653  0.1426 -0.0881 -0.0007
47763W        W90754  26.631  26.520  15.466  0.0269 -0.4525 -0.3451
47764W        W90755  34.256  18.427  24.612  0.0719  0.0916 -0.2898
47765W        W90756   9.017  20.092  22.239  0.1269 -0.0886  0.0698
47766W        W90757  28.600  26.543  19.439 -0.0625  0.0340 -0.1205
47767W        W90758  27.075   0.528   1.526 -0.2779  0.1193 -0.1035
47768W        W90759   0.583  26.755   0.473  0.0660  0.0276  0.1106
47769W        W90760  29.649  14.400  25.838 -0.3073  0.0668 -0.1458
47770W        W90761  17.330  29.680   1.518 -0.1483 -0.1226 -0.0520
47771W        W90762   2.729  33.821   0.034 -0.1139 -0.0984  0.1275
47772W        W90763   4.445  18.895  14.837  0.0043 -0.0373  0.1900
47773W        W90764  13.174  15.761  26.084  0.1921  0.0419 -0.2103
47774W        W90765  27.820  15.890  27.559  0.1909  0.2854 -0.0762
47775W        W90766   3.117  16.510  16.248 -0.2218 -0.1507  0.3855
47776W        W90767   6.517   0.272  17.470 -0.2828 -0.1628 -0.1741
47777W        W90768  18.479  19.201  25.385  0.0396 -0.1953  0.0222
47778W        W90769  18.784   6.135  16.198  0.5841 -0.2200 -0.2900
47779W        W90770  34.317  28.492  17.360  0.3679 -0.0755  0.2668
47780W        W90771   1.355  34.660  20.453 -0.0646 -0.0314  0.0116
47781W        W90772  18.244  30.953  16.974 -0.1499  0.0249  0.2452
47782W        W90773  30.541   2.161   5.162 -0.1801  0.3609  0.3247
47783W        W90774  14.529  26.016  26.442  0.0586 -0.1662 -0.1574
47784W        W90775  22.277  33.443  24.386 -0.0800 -0.2187  0.0800
47785W        W90776  15.611  10.128  23.911 -0.0566 -0.3155  0.2974
47786W        W90777   5.028  15.528  25.857  0.1809 -0.0679 -0.1240
47787W        W90778  12.522  30.037  16.225  0.1416 -0.0724  0.0527
47788W        W90779  24.763   6.479  16.894 -0.1614  0.0397  0.0903
47789W        W90780  10.105  19.264  21.685  0.0797  0.2123  0.0421
47790W        W90781  32.716  25.827  16.496  0.1154 -0.0504  0.0756
47791W        W90782  28.617  28.953   5.177  0.4429 -0.2856  0.0108
47792W        W90783  23.298  12.850  27.473  0.0200  0.0519  0.1973
47793W        W90784  23.676  21.589  15.032  0.1350 -0.2791  0.0441
47794W        W90785  30.738  34.469   3.086 -0.1622  0.1498  0.0621
47795W        W90786   1.155  30.939  27.771 -0.3122 -0.1125 -0.3189
47796W        W90787   5.534  22.536  24.078 -0.0239  0.1323  0.3255
47797W        W90788   8.578  24.725  25.540 -0.2649  0.1320  0.2000
47798W        W90789   4.442  10.395  16.901  0.2755  0.1404  0.1396
47799W        W90790   7.032  25.228   3.073 -0.1857 -0.0733  0.3245
47800W        W90791  21.075   3.562   0.989  0.2129  0.1978  0.3724
47801W        W90792   0.410  27.791  26.281  0.1827  0.0329 -0.1286
47802W        W90793  30.504   8.048  28.742  0.0747 -0.2407  0.1856
47803W        W90794  28.583   0.537   0.888 -0.1183 -0.2597 -0.1506
47804W        W90795   4.349  23.038  26.831  0.1435  0.3359 -0.2825
47805W        W90796  20.784  27.636  27.924 -0.1883 -0.0783  0.0246
47806W        W90797  28.082   5.004  14.142 -0.1339  0.1974  0.2447
47807W        W90798   5.629  19.441  19.655  0.0866  0.3315  0.1350
47808W        W90799   6.626  30.262  22.353 -0.2184 -0.1584 -0.0088
47809W        W90800  12.869  31.014  24.794  0.2555  0.1485 -0.2374
47810W        W90801   4.461  18.595   3.049 -0.0739 -0.0377 -0.1665
47811W        W90802  30.595   7.241  17.965  0.0721  0.0159  0.0216
47812W        W90803   6.450  13.202   8.716 -0.1446 -0.1959 -0.0523
47813W        W90804  10.970   4.548  15.461  0.0047 -0.0046  0.1821
47814W        W90805  17.214   1.729  15.061 -0.0845 -0.1017  0.0115
47815W        W90806   5.685   5.095  26.039  0.3680  0.6566 -0.1414
47816W        W90807  29.139  31.321  20.882  0.1618 -0.1382 -0.0895
47817W        W90808  12.972   5.672  25.315 -0.2718 -0.1316 -0.3323
47818W        W90809  10.444  28.461  23.089  0.0408  0.0770  0.3672
47819W        W90810  17.374  27.792  15.693 -0.1402 -0.0039  0.1475
47820W        W90811  10.376  34.096  15.013 -0.2054 -0.0657 -0.2986
47821W        W90812  25.051   0.540  15.851  0.0302 -0.2942 -0.0229
47822W        W90813   5.729  25.106   1.858 -0.1075 -0.1213 -0.2847
47823W        W90814  14.841  24.374  19.642  0.0125  0.2560 -0.2309
47824W        W90815   4.593  18.763  26.693 -0.0748  0.1123  0.0028
47825W        W90816  30.398  26.373  17.236  0.4330  0.3625  0.1367
47826W        W90817  19.495  34.571  29.096 -0.0746 -0.2458 -0.0853
47827W        W90818   3.211  31.255  21.493 -0.0873  0.3693 -0.1566
47828W        W90819  19.924  29.426  27.089  0.1906  0.5342  0.1030
47829W        W90820   8.850  13.079  16.077  0.0965 -0.4106 -0.0556
47830W        W90821  15.604  34.233  23.950  0.1072  0.1258  0.1162
47831W        W90822   9.956  30.851  22.403  0.1911 -0.1972 -0.1258
47832W        W90823  10.636  30.938  22.963 -0.1387 -0.2365  0.2307
47833W        W90824   1.895  30.810  23.382 -0.0032  0.0716  0.0089
47834W        W90825   7.726  18.986  19.661  0.2280 -0.0480  0.2886
47835W        W90826  24.072  31.233  14.238  0.3462 -0.0721 -0.0579
47836W        W90827  16.443  28.436  22.098  0.1204  0.1578 -0.0494
47837W        W90828  25.493  23.255  13.537 -0.0724 -0.2734 -0.0413
47838W        W90829  11.690   2.428  11.341 -0.1066  0.1503 -0.0046
47839W        W90830  34.499  26.133  16.143  0.2402  0.3026  0.0411
47840W        W90831  33.930  22.346  20.180 -0.2281 -0.1496 -0.0716
47841W        W90832  25.323  26.245  17.851  0.3727  0.1221 -0.1864
47842W        W90833  15.257  20.897  27.013 -0.1431  0.0431 -0.0072
47843W        W90834   8.302  34.240  15.025 -0.2004 -0.0019  0.0987
47844W        W90835   9.164  21.801   6.271 -0.0633  0.1058  0.1114
47845W        W90836  13.023  15.203  26.034  0.1603  0.0668 -0.2208
47846W        W90837   8.290  30.555  17.733 -0.2807 -0.0582 -0.0038
47847W        W90838  33.201   0.640   0.498 -0.3707  0.2840 -0.0387
47848W        W90839  26.904   2.977  13.861 -0.0720  0.0864 -0.2938
47849W        W90840  23.902  26.575  18.649 -0.0730 -0.1164  0.0803
47850W        W90841  11.919  19.168  22.690  0.0814  0.2917 -0.2161
47851W        W90842   9.883  28.760  18.974  0.5196 -0.1327  0.0716
47852W        W90843   4.568   1.278  27.315 -0.2025  0.3054  0.1525
47853W        W90844  23.132  22.945   0.878  0.0698  0.0322  0.2539
47854W        W90845   5.154  27.008   9.810 -0.0969  0.0424 -0.0899
47855W        W90846  12.297  22.295  20.702  0.0743  0.3350  0.3559
47856W        W90847   3.437  34.730  22.221  0.0682 -0.1823  0.4580
47857W        W90848  17.943  28.522  14.003 -0.3513 -0.1138  0.2139
47858W        W90849   2.115  32.507  16.404 -0.0636 -0.1962 -0.0324
47859W        W90850  10.490  15.937  21.798  0.1165 -0.1705  0.1448
47860W        W90851   4.431  14.156  16.022  0.1617  0.3403 -0.1006
47861W        W90852  11.702  14.603  25.805 -0.0558  0.4475  0.1074
47862W        W90853   8.791  16.251   2.424 -0.1473 -0.1344 -0.2539
47863W        W90854  30.582  22.557  22.037  0.0409 -0.1873  0.2386
47864W        W90855  26.049  19.628  21.157  0.2007  0.2512  0.0190
47865W        W90856  19.128   8.202   5.416  0.2854  0.0746 -0.3407
47866W        W90857  13.535  29.711  25.852  0.3902  0.3088  0.0404
47867W        W90858   2.749  17.164  20.510  0.1995 -0.0103  0.1922
47868W        W90859  10.183   5.253  16.813 -0.1770 -0.0924 -0.1026
47869W        W90860  14.012  26.475  17.215 -0.1609 -0.2990 -0.0433
47870W        W90861   9.294  17.170  14.886  0.1434  0.1402 -0.1430
47871W        W90862  17.611   3.344  14.795 -0.1009 -0.0333 -0.1917
47872W        W90863  21.852  32.915  20.272  0.3977 -0.1040 -0.0905
47873W        W90864  14.033  17.720   6.472  0.0825  0.2548 -0.2635
47874W        W90865  18.790  19.066  24.938 -0.1727 -0.1903 -0.3447
47875W        W90866   1.877  17.779   2.049  0.0920 -0.0273 -0.0829
47876W        W90867  10.109  13.509  23.024 -0.5467 -0.1542 -0.1061
47877W        W90868   8.540  14.319  23.637 -0.0363  0.1635 -0.0622
47878W        W90869  10.840  29.346  20.968  0.3075 -0.0302 -0.1565
47879W        W90870  10.689  17.587  16.296  0.0166  0.0705  0.0686
47880W        W90871  19.112  34.689  27.782 -0.0111 -0.1408  0.0526
47881W        W90872  19.452  21.968  16.024  0.0455  0.1826 -0.1593
47882W        W90873   2.925  19.565   4.090 -0.1080 -0.1395  0.1440
47883W        W90874  20.349  33.270  19.228 -0.2197  0.2174  0.1107
47884W        W90875  16.108  34.634  23.196  0.0369  0.0107  0.2060
47885W        W90876   3.926  22.152   5.481  0.1252 -0.2205  0.2632
47886W        W90877   7.671  12.715  26.959  0.2703 -0.1967 -0.0904
47887W        W90878   6.766   9.397  16.242  0.0628  0.1483 -0.1485
47888W        W90879  13.327  10.232  17.945 -0.4754  0.0829  0.0092
47889W        W90880  11.234  23.734  18.396 -0.3021 -0.3012 -0.0922
47890W        W90881  11.847  19.367   4.272  0.2265 -0.1361  0.1207
47891W        W90882   2.023  32.931  26.596  0.2788  0.1394 -0.2209
47892W        W90883  23.364   3.085  21.918  0.0038 -0.2464  0.2387
47893W        W90884  18.658  30.352  14.313  0.0111  0.2235  0.0542
47894W        W90885  34.187   8.526  16.835  0.0954  0.3204  0.0615
47895W        W90886  29.588  19.475  15.399  0.0250 -0.0298 -0.2676
47896W        W90887  14.908   3.479  26.076  0.2245  0.3101 -0.1271
47897W        W90888  31.101   1.457  25.508 -0.1625 -0.1071  0.0560
47898W        W90889   7.219  33.412   9.401  0.0298 -0.3935 -0.0087
47899W        W90890  29.513  31.355   7.583  0.0618  0.0998 -0.0543
47900W        W90891   5.411  17.143  17.325 -0.1110 -0.2499 -0.0157
47901W        W90892   4.855  10.430   2.771  0.2649 -0.0863  0.0046
47902W        W90893  22.274  26.942  14.420 -0.0836  0.1399 -0.1299
47903W        W90894  17.003  28.781  24.151  0.0507 -0.0647  0.0637
47904W        W90895  12.554  23.555  20.742  0.2157 -0.1264  0.2399
47905W        W90896  16.853  25.105  19.701 -0.0279 -0.1587 -0.3119
47906W        W90897   1.029  27.732  21.283 -0.3700 -0.1716  0.0498
47907W        W90898   4.938  27.713  23.346  0.3840 -0.1138 -0.0240
47908W        W90899   8.952  18.747   5.561 -0.3298 -0.0096  0.2270
47909W        W90900  18.163   1.291   3.419 -0.0615 -0.1382 -0.1229
47910W        W90901   5.550  28.044  20.623  0.0437  0.0472  0.0324
47911W        W90902  13.766  10.625  17.271  0.1794  0.0499 -0.2226
47912W        W90903  17.675  30.560   7.960 -0.1562 -0.0179 -0.0606
47913W        W90904  12.334   1.331   3.156  0.0579 -0.1710  0.0939
47914W        W90905   3.261  34.424  26.650 -0.0846 -0.1924  0.2259
47915W        W90906   2.461   4.603   4.026 -0.2000 -0.1966  0.0364
47916W        W90907  25.817   2.742   2.080  0.4345 -0.1350  0.1977
47917W        W90908  12.893  31.435  25.102  0.1162 -0.2241 -0.3754
47918W        W90909  19.804  28.386  19.634  0.1417  0.1713  0.0319
47919W        W90910   7.968  29.395  16.780  0.2033  0.2322 -0.0130
47920W        W90911  25.634  30.999  15.933 -0.1082 -0.4380 -0.0600
47921W        W90912  10.843   0.831  18.861  0.0136  0.0660 -0.1032
47922W        W90913  10.775  28.162  17.377  0.0174  0.2073 -0.1807
47923W        W90914  25.397  33.635  19.665 -0.1494 -0.3939  0.2318
47924W        W90915  11.887  32.114  16.624 -0.1367  0.1862  0.1178
47925W        W90916  32.316   1.247  14.970  0.3184 -0.0377 -0.1856
47926W        W90917  17.889   2.421  19.975  0.1533 -0.0200  0.2874
47927W        W90918  27.403   6.288  27.051  0.3205  0.3069  0.0672
47928W        W90919   3.427   3.467  18.891  0.2449 -0.1252 -0.2397
47929W        W90920   7.812  18.595  23.751 -0.4931  0.1578  0.0217
47930W        W90921  10.494  16.249  22.201 -0.2150 -0.3300 -0.2954
47931W        W90922   4.661  18.370   6.640 -0.0056  0.2314  0.0645
47932W        W90923  21.179   6.699  14.868  0.0435  0.0251 -0.1286
47933W        W90924   9.674  28.068  26.102  0.0747 -0.3219  0.2362
47934W        W90925  19.971   3.818   3.224  0.0674  0.0819  0.1991
47935W        W90926   7.006  27.028  17.859 -0.1479 -0.3520 -0.0562
47936W        W90927   0.766  23.774  27.683 -0.2801 -0.1798 -0.1815
47937W        W90928  14.403  32.107   2.755 -0.0026 -0.1791  0.2943
47938W        W90929  28.006   3.617  27.862  0.0565  0.2934 -0.3094
47939W        W90930  13.971   4.172   3.033 -0.4014 -0.0164  0.0753
47940W        W90931  14.323  28.242  25.857 -0.3354 -0.3407  0.2613
47941W        W90932   6.424   3.540  15.863 -0.0561  0.2994  0.2616
47942W        W90933  17.013  27.054  13.990  0.0059 -0.2320  0.1167
47943W        W90934  11.492   3.809  26.676  0.3003  0.0419  0.0665
47944W        W90935   3.285  27.961  26.583 -0.1572 -0.1804  0.0350
47945W        W90936   6.447  25.367  18.800  0.0048 -0.0662  0.0002
47946W        W90937   7.782  13.855  21.343  0.1342 -0.1962 -0.1197
47947W        W90938  17.368   2.813  21.856  0.0837  0.0548  0.0208
47948W        W90939  13.389  24.207  15.626  0.0610  0.2898 -0.1068
47949W        W90940  13.253  25.849  20.435  0.0206 -0.0304 -0.0626
47950W        W90941   9.115   6.054   0.672 -0.0033  0.2158 -0.2103
47951W        W90942  34.733  29.450  16.895 -0.0346 -0.0236  0.0314
47952W        W90943  24.971  29.804  26.235  0.1134  0.0871  0.1477
47953W        W90944  30.565  11.219  15.096  0.2838 -0.3452  0.3610
47954W        W90945   7.134  33.852  22.168  0.3187 -0.0750 -0.1059
47955W        W90946  12.835  32.731  16.845  0.0041  0.1506 -0.0473
47956W        W90947   7.331  34.106  25.340  0.1518 -0.0478  0.0713
47957W        W90948  32.278  18.524  22.789 -0.2841  0.0373 -0.3908
47958W        W90949   9.391  20.832  18.969 -0.0213  0.0513  0.1059
47959W        W90950   1.109  29.601   5.613 -0.1984 -0.2136 -0.0271
47960W        W90951  19.968  26.869  21.233 -0.1581  0.0254  0.0206
47961W        W90952  34.159  27.873  24.886  0.1993 -0.1274 -0.0117
47962W        W90953  16.786   1.187  18.657  0.0492 -0.1781  0.2697
47963W        W90954   5.976  31.479   6.385  0.0600  0.0947 -0.0319
47964W        W90955  32.322  17.073  28.030  0.3018  0.0382  0.0082
47965W        W90956  11.366  29.203  15.168 -0.4169  0.2936 -0.5158
47966W        W90957  15.809  29.270  14.273  0.1458  0.1042  0.5383
47967W        W90958  15.734   8.340  16.393  0.0171 -0.2453  0.1099
47968W        W90959  28.443  11.278  26.050 -0.0641  0.2570  0.0699
47969W        W90960  14.798  30.955  17.670 -0.2697 -0.4640 -0.0262
47970W        W90961  15.038  31.204  25.229 -0.1369 -0.0660 -0.0177
47971W        W90962  30.744  30.620  22.608 -0.0872 -0.0393 -0.0543
47972W        W90963  21.539  10.502  17.454 -0.4256  0.0616  0.2337
47973W        W90964  20.247   0.465   4.978 -0.1747  0.0977 -0.3012
47974W        W90965  10.139  28.840  19.725 -0.2106  0.4283 -0.0514
47975W        W90966   4.149   8.642  21.824 -0.0299  0.0375  0.0241
47976W        W90967   1.121   3.512   6.622  0.0681  0.3179  0.0354
47977W        W90968  20.397  31.453   5.376  0.1238 -0.1578 -0.1998
47978W        W90969   7.052  22.409  15.448 -0.0233 -0.1078  0.1186
47979W        W90970  28.475  23.744   8.013  0.1658  0.1821  0.1109
47980W        W90971  30.030  14.692  25.850  0.1955 -0.3284  0.0005
47981W        W90972  17.314  34.664   5.511  0.2008 -0.4313 -0.2995
47982W        W90973  34.253  17.662  19.766  0.2171  0.0063  0.0558
47983W        W90974   5.103  31.090  28.977  0.1262 -0.0617 -0.1734
47984W        W90975  18.876  32.687  14.070 -0.3115 -0.1488 -0.0287
47985W        W90976   1.467   5.739  17.174  0.1911 -0.2310 -0.2523
47986W        W90977  13.997  29.582  24.676  0.1550 -0.0388  0.0371
47987W        W90978   5.372  14.629  17.448 -0.1467  0.3145  0.1048
47988W        W90979   7.090  30.969  17.104  0.0868  0.3203 -0.2429
47989W        W90980  23.914  14.729  14.834  0.0377 -0.0021 -0.0129
47990W        W90981  27.236  20.984  25.623  0.1230 -0.2541 -0.0136
47991W        W90982  15.429  28.061  14.077  0.0108  0.0246  0.0119
47992W        W90983   2.173  29.239   7.609 -0.2571 -0.0967 -0.1579
47993W        W90984  27.229   5.607   3.536  0.1833 -0.2985 -0.1359
47994W        W90985  21.325  24.359  23.113  0.3996 -0.0145 -0.0664
47995W        W90986  26.785   0.517  22.273  0.0255  0.1184  0.0175
47996W        W90987  30.556  29.318  22.819  0.0629 -0.1639  0.1330
47997W        W90988  10.275   1.317  22.470  0.0912 -0.0951  0.0556
47998W        W90989  34.655  26.592   1.008  0.0104  0.2160 -0.0881
47999W        W90990  10.871   4.341  19.171 -0.2444  0.1898  0.0783
48000W        W90991   4.606  31.810   1.272  0.0051 -0.1245  0.0328
48001W        W90992   1.213  34.380   0.912 -0.1698  0.0718 -0.2372
48002W        W90993   6.040  25.051  17.859  0.4987  0.2989  0.0940
48003W        W90994  10.492  33.872  16.609  0.0097 -0.0551 -0.1013
48004W        W90995  16.837  21.209  18.994  0.0486  0.2313  0.0086
48005W        W90996   6.352  33.914  15.607 -0.2668 -0.1689 -0.2146
48006W        W90997  17.549  19.979   2.548 -0.0175  0.0192 -0.1714
48007W        W90998  13.082   4.753  23.237 -0.0393 -0.0630  0.1285
48008W        W90999  32.241  30.032  27.280  0.1115 -0.2236 -0.0336
48009W        W91000   5.103  24.806   2.527 -0.0544  0.1299 -0.5162
48010W        W91001  31.795  26.464   4.542  0.0237 -0.1204  0.1433
48011W        W91002   8.885  15.810   2.255 -0.1216 -0.0970 -0.2537
48012W        W91003  16.128  25.153  14.859  0.2481 -0.2437 -0.2819
48013W        W91004  12.869   3.627  15.958  0.1769  0.2744  0.1995
48014W        W91005  34.038  16.438   3.684 -0.3374  0.1684  0.0932
48015W        W91006  12.266  21.822  24.134 -0.0432  0.1201 -0.0256
48016W        W91007  24.311  28.420   5.604 -0.1579  0.1833  0.2706
48017W        W91008   3.038  34.598  19.930 -0.1828 -0.1409 -0.0847
48018W        W91009   5.604  13.138   7.344  0.0132  0.1720  0.0847
48019W        W91010  12.734  22.512  28.234  0.0043 -0.2556 -0.2415
48020W        W91011  20.332  18.731   6.298 -0.0482 -0.0813 -0.2683
48021W        W91012  11.884  29.709  24.020 -0.0039  0.2269  0.3178
48022W        W91013  12.042   5.197  15.835  0.0878 -0.0434  0.0452
48023W        W91014  28.311  31.697  15.092  0.3213  0.2288 -0.0971
48024W        W91015  30.617  23.198  15.277 -0.0395 -0.0254 -0.0936
48025W        W91016   1.086  26.887  23.327 -0.4064  0.4635  0.0031
48026W        W91017  17.100  21.126  14.730 -0.2018 -0.0927 -0.0826
48027W        W91018   4.372  11.466  26.217  0.2264  0.3309 -0.1922
48028W        W91019   2.851  32.615  14.924 -0.0947 -0.0272 -0.0619
48029W        W91020   1.384  30.848  22.553 -0.1099 -0.2157 -0.1891
48030W        W91021   0.133  14.293   7.265  0.1550  0.0441  0.1318
48031W        W91022  13.353  27.645  14.767  0.2544  0.3983 -0.3129
48032W        W91023  31.411   4.222  15.282 -0.0773 -0.0487  0.1211
48033W        W91024   1.344   4.704  15.080 -0.4157 -0.2777 -0.1461
48034W        W91025  20.874  25.353   7.670  0.2037  0.1131  0.2133
48035W        W91026   6.841  34.685  19.839 -0.4204 -0.0656  0.0267
48036W        W91027  30.207   7.172  17.698  0.1560  0.0669  0.2021
48037W        W91028  17.182  27.928  25.517  0.0985 -0.0676  0.3225
48038W        W91029   5.563  19.803  19.337 -0.1247 -0.1179  0.0049
48039W        W91030   7.197  11.294   0.389  0.1325  0.2337 -0.1510
48040W        W91031  27.921  27.817  22.818  0.2746 -0.1131 -0.0088
48041W        W91032  19.373  27.682  14.490 -0.0138  0.0873  0.2730
48042W        W91033   7.390  15.855  20.167 -0.0575  0.1447 -0.0595
48043W        W91034  31.268  26.348  16.704  0.3133  0.2133 -0.1364
48044W        W91035  12.140   3.692  19.623 -0.0520  0.1178 -0.0985
48045W        W91036  23.481   0.835  23.532 -0.0443 -0.1435  0.0282
48046W        W91037  16.659   6.977   2.510  0.0075  0.1199 -0.1780
48047W        W91038  33.952  25.407  24.146  0.0747  0.0821  0.4542
48048W        W91039   8.946  22.528  19.171  0.0591  0.1001 -0.1652
48049W        W91040  14.102  33.746  15.042  0.0249 -0.0896 -0.1225
48050W        W91041  13.059   0.690  23.479  0.1273 -0.1449 -0.1421
48051W        W91042   3.287  10.876  16.054 -0.1070  0.1309 -0.0845
48052W        W91043   0.527  22.383  19.754 -0.0006 -0.3446  0.2207
48053W        W91044   8.348  20.864  23.212  0.1762  0.0841 -0.0602
48054W        W91045  18.116   1.782  23.480 -0.3324  0.0254  0.2341
48055W        W91046  10.129  12.532  16.745  0.3616  0.2327 -0.2658
48056W        W91047  12.195   1.094  18.981  0.0407  0.0527 -0.2093
48057W        W91048   8.423  32.126   8.527  0.0339 -0.0164  0.2052
48058W        W91049   5.216   3.008  17.800 -0.3043  0.2487 -0.3123
48059W        W91050   0.562  26.093  26.672  0.2914  0.1198 -0.0459
48060W        W91051  29.503   8.012  27.851  0.4147 -0.0961  0.1082
48061W        W91052  18.591  21.378  16.415  0.0697 -0.0643  0.1417
48062W        W91053  31.059  18.151   2.256  0.5561  0.0086 -0.2081
48063W        W91054  31.578  20.306  20.924 -0.2302  0.3125 -0.0152
48064W        W91055   6.376  21.967  25.055 -0.3332 -0.2549  0.1018
48065W        W91056  28.314   3.590  23.818  0.2140 -0.1305  0.1251
48066W        W91057  11.629  27.357  20.345 -0.1882 -0.1543 -0.0286
48067W        W91058  31.398  25.449   4.709  0.0105  0.0153  0.2460
48068W        W91059  11.054  28.400  18.697 -0.0810 -0.2001 -0.3189
48069W        W91060  12.786  32.271   0.369 -0.1347 -0.1183 -0.3305
48070W        W91061  17.156   6.138  16.949  0.0039 -0.1573  0.1502
48071W        W91062   8.918  15.209  23.267  0.1583 -0.2545  0.0070
48072W        W91063  34.783   2.195  23.340 -0.1392 -0.1657  0.0197
48073W        W91064  19.844   9.800  18.412 -0.2572  0.1061  0.0417
48074W        W91065  29.153  24.632  18.017 -0.0778 -0.1985  0.1728
48075W        W91066   7.319  28.587  18.407 -0.2683  0.2956  0.1033
48076W        W91067  32.274  30.379  15.088 -0.1631 -0.1977  0.0216
48077W        W91068   7.417  26.391  27.791 -0.2767  0.0615  0.0991
48078W        W91069  28.920  32.760  14.280  0.0380 -0.0447  0.2555
48079W        W91070  13.210  19.137  24.426  0.0765  0.1103 -0.0998
48080W        W91071  24.459  33.583  19.801 -0.0222  0.0476 -0.1122
48081W        W91072  31.815  28.055  19.647  0.0939  0.0461 -0.0325
48082W        W91073   3.305   0.742   2.932 -0.0289 -0.1137  0.1784
48083W        W91074  18.166  22.401   4.787 -0.3250  0.1610 -0.2535
48084W        W91075  12.662  24.399  18.167  0.1006 -0.2784  0.0205
48085W        W91076  12.225  32.042  25.266  0.0885 -0.1234 -0.0836
48086W        W91077  19.282  15.336  12.847  0.3031 -0.0768 -0.3740
48087W        W91078  17.492  30.274  15.817  0.2696 -0.2379 -0.0180
48088W        W91079  22.577  24.227  22.427 -0.1141 -0.2228  0.1433
48089W        W91080   5.402  16.877   9.909  0.2242 -0.2044  0.0435
48090W        W91081  21.887   3.982  13.957  0.1490  0.3333 -0.0578
48091W        W91082   1.672  21.141  17.463  0.1665 -0.1486 -0.0414
48092W        W91083   6.637  28.560   7.397 -0.1113  0.0482 -0.1048
48093W        W91084  27.029  19.796   1.386  0.1015 -0.3364 -0.0584
48094W        W91085  16.621  16.244  14.306  0.1095 -0.0395  0.2015
48095W        W91086  15.240   3.426  28.058  0.0991  0.1033  0.2082
48096W        W91087  11.561  32.031  15.808  0.0036 -0.1375 -0.0171
48097W        W91088  16.243  25.693  16.328  0.2072 -0.1359 -0.0251
48098W        W91089  13.120  21.417  24.181  0.0780 -0.0693 -0.0181
48099W        W91090  26.576   5.937   0.141  0.0724  0.0080  0.0844
48100W        W91091  13.969  31.929  21.784 -0.0274  0.0602 -0.0002
48101W        W91092   7.391  26.835  20.914 -0.1399 -0.0353 -0.1263
48102W        W91093  11.593  21.990  15.677 -0.0739  0.0480 -0.0096
48103W        W91094   3.244  24.868  27.237 -0.1208  0.4611  0.0037
48104W        W91095  21.679  13.691  16.451  0.0717  0.2699 -0.2250
48105W        W91096   2.300  33.755  21.138 -0.3192  0.0350 -0.2087
48106W        W91097  11.390  34.599  20.054 -0.1673  0.0070 -0.1794
48107W        W91098  33.980   2.763   1.745 -0.1083 -0.0671  0.1546
48108W        W91099   3.859  33.044  14.862 -0.1358 -0.0294 -0.1198
48109W        W91100   9.888  14.216  25.657  0.1586  0.0872  0.2071
48110W        W91101   1.548  22.033  22.501  0.4550 -0.0580  0.1943
48111W        W91102  10.875  31.234  16.456 -0.0356  0.3805  0.0661
48112W        W91103   2.995  22.226  21.860  0.1772  0.1608 -0.1089
48113W        W91104  12.381  19.478  15.714 -0.2717  0.0217 -0.2355
48114W        W91105   4.356  30.146   5.338  0.2951 -0.0334 -0.2686
48115W        W91106   3.297  24.829  21.145  0.1719  0.3390  0.1497
48116W        W91107  23.119  18.433  17.457 -0.3830 -0.2551  0.1082
48117W        W91108  27.850  31.218  20.499 -0.3259 -0.0508 -0.0597
48118W        W91109   8.193  31.275  23.875  0.1329  0.0061 -0.0452
48119W        W91110  20.610   5.925  26.412  0.1920 -0.3511 -0.2155
48120W        W91111   8.103  27.182  28.529 -0.3644 -0.3778 -0.1739
48121W        W91112  34.348  17.787  25.133 -0.4112 -0.0121  0.0997
48122W        W91113  21.761  22.837   5.983 -0.1173 -0.2299 -0.0589
48123W        W91114   7.532  10.922  23.380  0.1433  0.3849 -0.0773
48124W        W91115   2.009  28.728  15.857 -0.0321 -0.0429 -0.0514
48125W        W91116   5.897  10.682  25.828 -0.0042 -0.0916  0.0887
48126W        W91117  31.391  33.092  22.830 -0.5389  0.3346  0.0561
48127W        W91118  16.170   4.741   1.175 -0.1122  0.0387 -0.1568
48128W        W91119  11.228   0.112   0.280  0.1651  0.2850  0.0138
48129W        W91120   4.862  21.261  15.301 -0.0529 -0.0949 -0.1370
48130W        W91121  23.053  24.923  18.397 -0.0338  0.1735  0.0889
48131W        W91122  31.593   2.097   1.197  0.0391 -0.2628 -0.1657
48132W        W91123  12.265   8.369   2.472  0.1889  0.1421 -0.1663
48133W        W91124  11.253   9.949  18.645 -0.0014  0.2408 -0.0070
48134W        W91125   5.853  26.063  14.835  0.1880  0.2357  0.1182
48135W        W91126   8.510  22.907   7.209 -0.2570  0.0503  0.2570
48136W        W91127  26.328   9.057  22.243 -0.2131 -0.1835 -0.0517
48137W        W91128  16.248  19.886  28.531  0.0034  0.1333  0.0382
48138W        W91129  16.791   8.664  16.310 -0.1627  0.1472  0.2947
48139W        W91130  24.997  30.009  19.806 -0.0021 -0.2890  0.1981
48140W        W91131  27.027   1.153  17.731 -0.1068  0.0533 -0.0099
48141W        W91132  29.477  11.793  10.269 -0.0657  0.0145  0.2228
48142W        W91133   0.768   4.200  20.902 -0.0134 -0.1069  0.2712
48143W        W91134  14.236  24.157  15.338  0.3307 -0.0456 -0.0377
48144W        W91135  32.814  22.029  15.815 -0.0626  0.1656  0.0696
48145W        W91136  32.458   2.512  20.262  0.3424 -0.0280 -0.0105
48146W        W91137  24.356   7.956  16.515  0.1545  0.0464  0.0379
48147W        W91138  11.690  30.598  14.293 -0.1281  0.0243  0.2007
48148W        W91139  15.459  28.613  17.423  0.0183  0.5365  0.1107
48149W        W91140   3.185  33.608  20.768  0.0383  0.0928  0.0792
48150W        W91141   4.528  32.640  18.960  0.0249 -0.0170  0.0454
48151W        W91142  14.879  29.590  15.990  0.2018  0.2139 -0.0122
48152W        W91143  17.115  25.395  20.905  0.0689 -0.1211  0.3526
48153W        W91144   0.171  26.993  15.931 -0.0905  0.0713  0.0866
48154W        W91145  32.778  23.427  16.505 -0.3698  0.3946 -0.0705
48155W        W91146  11.125  28.816  23.694 -0.0325 -0.2819 -0.0582
48156W        W91147   2.738  25.326  20.528  0.2244  0.0990 -0.1388
48157W        W91148   7.538  33.694  21.709  0.0844  0.0534  0.0220
48158W        W91149  27.124  18.059  25.802 -0.1028 -0.1082 -0.3791
48159W        W91150  33.913  25.149  15.929  0.2180  0.1025 -0.1349
48160W        W91151   3.683   4.172  23.556  0.0243 -0.2057  0.1016
48161W        W91152  11.975  11.704  19.839 -0.2386 -0.1900  0.2353
48162W        W91153   1.357  28.607   9.376 -0.0992  0.0444 -0.2003
48163W        W91154  10.477   9.397  16.213  0.2581 -0.0417 -0.3001
48164W        W91155  13.181  14.610  27.940  0.1904 -0.4384 -0.1502
48165W        W91156  31.953  25.707  15.260  0.2400 -0.0817  0.0619
48166W        W91157  20.686  28.637   9.042  0.0242  0.1209  0.1809
48167W        W91158   5.987   2.165  27.318  0.1121 -0.1948  0.2847
48168W        W91159   4.910   8.310  26.314  0.0069  0.2683 -0.0104
48169W        W91160  16.307   0.804  23.388  0.0297  0.0600 -0.0640
48170W        W91161  13.439  20.736  22.753  0.1520  0.1910  0.0130
48171W        W91162  16.298   0.879  22.358 -0.1185 -0.2353  0.1225
48172W        W91163  16.777  23.776  17.695 -0.0784 -0.1107  0.3547
48173W        W91164  31.016  28.826  15.259  0.1850 -0.1651 -0.1825
48174W        W91165  19.514   2.637   3.771  0.0030  0.0589 -0.0179
48175W        W91166   3.502  26.520  26.720 -0.1525 -0.0027  0.2115
48176W        W91167   0.845  18.386  22.479 -0.2514 -0.2235 -0.2223
48177W        W91168   0.290  25.983  15.571 -0.0105 -0.0345 -0.3008
48178W        W91169  23.243   3.542  13.305 -0.1748 -0.2022  0.2495
48179W        W91170  34.318  20.760   1.311  0.1031 -0.3035  0.2371
48180W        W91171   2.296  27.994   1.780  0.0956  0.0173  0.1179
48181W        W91172   6.137  13.976  25.005 -0.5644  0.0781 -0.0088
48182W        W91173  18.390  19.885  27.376  0.0331  0.0204  0.1428
48183W        W91174  28.176  18.950  26.963 -0.2056 -0.2233 -0.4826
48184W        W91175  26.485   1.117  18.632 -0.0693 -0.1621 -0.0124
48185W        W91176  26.303  19.959   6.903  0.0658 -0.0061  0.1610
48186W        W91177  11.739  18.606  25.823 -0.1034  0.1076  0.1649
48187W        W91178  24.776   6.312   2.234  0.1563  0.0350  0.2317
48188W        W91179  27.103  32.173  21.674 -0.0734 -0.1417 -0.2883
48189W        W91180  29.522  27.263   9.272 -0.1464 -0.0211 -0.0158
48190W        W91181   3.300  26.937   5.660 -0.1422  0.1347  0.4717
48191W        W91182  13.639  31.185  20.932  0.1635 -0.5381  0.2534
48192W        W91183  11.797  11.687  28.664  0.1625 -0.1619 -0.0279
48193W        W91184   9.022  29.985   4.673  0.0084  0.1956 -0.2626
48194W        W91185   7.087  30.541   7.961  0.0327 -0.2688  0.0281
48195W        W91186  13.162  27.303  17.312  0.3160  0.2471  0.1176
48196W        W91187  11.848   4.095  23.765  0.0834  0.4416 -0.2285
48197W        W91188   8.495  22.691  23.157  0.3213 -0.0152  0.1854
48198W        W91189   7.706  22.010  24.206  0.0497 -0.2959  0.0637
48199W        W91190  17.089  26.372  18.005  0.1026 -0.0863 -0.1544
48200W        W91191   4.544  34.612  22.535 -0.3020  0.1841  0.1696
48201W        W91192   8.944  22.214  29.246 -0.1536  0.1238 -0.0118
48202W        W91193   3.917  25.212  14.970 -0.2733  0.0575 -0.0805
48203W        W91194  10.047  19.745  25.010 -0.0294 -0.1577  0.0515
48204W        W91195  34.498  31.640  20.164 -0.0541  0.4110  0.0054
48205W        W91196  16.969   1.839  23.642  0.1085 -0.0257 -0.0557
48206W        W91197   5.041   4.138   0.647  0.1974  0.0157  0.1140
48207W        W91198   7.403   1.813  25.370 -0.1208  0.3231  0.1269
48208W        W91199  10.075  18.576   9.517 -0.0424 -0.0230 -0.0443
48209W        W91200   8.704  11.626  24.910  0.1183  0.0520  0.1463
48210W        W91201  13.286   2.280  28.535  0.1577 -0.0994 -0.1721
48211W        W91202   1.252   3.092   7.484 -0.0299  0.3482 -0.1915
48212W        W91203   7.990  12.896  20.194 -0.1440  0.0206 -0.2341
48213W        W91204  34.311  29.132   0.091 -0.0185 -0.1273  0.3528
48214W        W91205   6.499   1.531  15.441  0.0574  0.2637  0.3252
48215W        W91206  18.918  18.981  12.976 -0.2065  0.0406 -0.1828
48216W        W91207   7.810   9.982  19.055  0.0862  0.0470  0.1389
48217W        W91208  25.076  32.530  23.392  0.0460 -0.1001 -0.1615
48218W        W91209  21.789  17.624  17.849  0.0172 -0.0548  0.0104
48219W        W91210  14.754   9.658  17.024  0.4452  0.0579 -0.4057
48220W        W91211  13.547  31.852   5.669 -0.0525 -0.3727 -0.0255
48221W        W91212  16.121  24.298  20.061  0.1639 -0.0367 -0.0353
48222W        W91213   4.914  23.202   1.456  0.0010 -0.6500  0.2165
48223W        W91214  29.519  31.707   3.289  0.2632  0.0542  0.2374
48224W        W91215   8.685  27.159  26.060  0.0924 -0.0909  0.0118
48225W        W91216  15.562  29.003  23.125 -0.0520 -0.3781  0.0680
48226W        W91217   0.067  17.938  26.809  0.0600  0.1408 -0.1189
48227W        W91218  13.047   3.697  16.994  0.0736 -0.0209  0.2395
48228W        W91219   1.248  29.453  23.670  0.2885 -0.4182  0.2507
48229W        W91220  27.311  14.980  16.005  0.0176 -0.1796 -0.0036
48230W        W91221   9.924  22.458  14.481  0.0787 -0.0249 -0.3244
48231W        W91222  28.033  23.987  17.039  0.4336 -0.0915  0.1294
48232W        W91223  23.470  20.277   1.135 -0.1992  0.0201  0.1467
48233W        W91224   1.375  17.553  21.630 -0.4110  0.1634  0.0471
48234W        W91225  19.030  26.786  27.579  0.2444 -0.0829 -0.3138
48235W        W91226   7.468  31.291   6.131  0.1054 -0.2852 -0.0217
48236W        W91227  13.782   3.856  25.284 -0.3228  0.1132 -0.0995
48237W        W91228   3.950  27.254  23.322  0.2100 -0.2867 -0.1718
48238W        W91229  14.273  31.895  15.044 -0.0229 -0.1242 -0.0034
48239W        W91230   4.990  25.300  23.419 -0.2040 -0.0933  0.0177
48240W        W91231  26.875   7.095  20.678  0.2726  0.4543  0.1479
48241W        W91232  13.721  27.662   2.374  0.2067 -0.0635  0.0338
48242W        W91233   7.290   5.169  27.390  0.0518 -0.1757 -0.4009
48243W        W91234  14.342  28.479  18.106  0.0501 -0.1789 -0.0329
48244W        W91235  15.277  25.310  25.413  0.3535  0.1830  0.2497
48245W        W91236  24.942   3.341  19.890 -0.1361  0.1796  0.1035
48246W        W91237   9.320  28.701  21.951  0.3267  0.0775  0.0179
48247W        W91238   1.011  30.622  15.167  0.0952  0.1030 -0.3406
48248W        W91239  12.913  14.214  14.076 -0.1456 -0.3702 -0.2075
48249W        W91240   1.775  32.944  18.759  0.0852 -0.1680 -0.0716
48250W        W91241  10.933  11.499  15.472 -0.1423  0.3410  0.0964
48251W        W91242  19.663   1.601  21.131  0.0249  0.0337  0.2658
48252W        W91243  27.391  23.795  14.924 -0.1552  0.2181  0.1294
48253W        W91244  30.208   2.079   1.569 -0.1384 -0.1562  0.1217
48254W        W91245  24.965   2.678   4.119  0.0835 -0.1161 -0.0143
48255W        W91246  29.508   0.403  13.120  0.0566  0.3375 -0.2459
48256W        W91247  16.179  32.281  22.405  0.0499 -0.1074  0.2106
48257W        W91248   0.505  31.431  25.609 -0.1394  0.1271 -0.0971
48258W        W91249   9.621  28.223  16.820  0.0620 -0.1020 -0.0527
48259W        W91250   4.057  27.701  19.803 -0.1384 -0.0769  0.0002
48260W        W91251   6.418  31.371  22.202  0.1260 -0.1042 -0.0740
48261W        W91252  11.060  27.121  29.252  0.1247  0.0016  0.0457
48262W        W91253  30.595  11.582  18.254  0.1852  0.3343 -0.0556
48263W        W91254  27.126  23.876  13.482  0.1482 -0.1485  0.0344
48264W        W91255  23.256   6.125  14.714  0.2937  0.0453 -0.0510
48265W        W91256   1.742  32.453  17.180  0.0939 -0.1052 -0.1103
48266W        W91257   6.491  31.699  17.478 -0.2670 -0.0206  0.4120
48267W        W91258   7.341  23.914  27.381  0.1202 -0.3108 -0.0068
48268W        W91259  29.925  17.455   5.118  0.2466  0.0923  0.0633
48269W        W91260   1.351  28.990  22.616  0.1875 -0.1925  0.0383
48270W        W91261  30.001   6.391  21.035  0.0382  0.2525 -0.0531
48271W        W91262  14.373  12.422  26.053  0.0227 -0.3843  0.0417
48272W        W91263   2.442  29.550   7.302 -0.1482 -0.2739 -0.3348
48273W        W91264  30.527   8.220   7.827 -0.0042 -0.0127  0.0561
48274W        W91265  34.723  18.450  15.001  0.0492  0.3087 -0.0476
48275W        W91266   2.718  32.939  15.390 -0.1526  0.0665  0.0244
48276W        W91267   6.566  24.410  23.811 -0.2640 -0.0126  0.2588
48277W        W91268   3.085  12.322   0.350  0.0331 -0.0414 -0.2133
48278W        W91269  11.210  23.548  15.183 -0.4276 -0.1925  0.1829
48279W        W91270  10.476  29.896  15.036 -0.1206  0.3533 -0.2115
48280W        W91271  13.104   2.154   0.787 -0.2603  0.1235 -0.1786
48281W        W91272  11.160  32.755  22.275 -0.1761 -0.2095 -0.0333
48282W        W91273  10.153  23.524  26.789 -0.0116  0.0140 -0.0412
48283W        W91274   6.187  31.005  16.257  0.2662 -0.1339 -0.4103
48284W        W91275  25.700  24.841  27.014  0.1742  0.0346 -0.1711
48285W        W91276  25.799  19.709  16.756 -0.2120  0.3372  0.0017
48286W        W91277  31.774   0.637  16.103  0.4473  0.1934 -0.1761
48287W        W91278  25.246  32.060  18.496 -0.0374  0.1769 -0.1530
48288W        W91279   2.762  31.040  25.850 -0.0007 -0.2639 -0.1346
48289W        W91280  25.236   3.836  17.054 -0.2590 -0.4219 -0.1620
48290W        W91281  18.493  28.582   6.130  0.5935  0.2859  0.0860
48291W        W91282  20.056  15.142  13.411  0.2305 -0.0363 -0.2989
48292W        W91283   3.813  32.972  27.672  0.1341 -0.2062  0.1327
48293W        W91284   3.824   9.353  27.792 -0.2959 -0.1267  0.1538
48294W        W91285   6.230  29.807  18.163  0.0712 -0.0621  0.1718
48295W        W91286  10.784  25.765  27.183  0.0415  0.0411  0.2353
48296W        W91287   5.888  23.866  14.435  0.0129  0.0552  0.3955
48297W        W91288  24.708  23.345  26.156 -0.1844  0.0297  0.0575
48298W        W91289  11.904   5.625  25.346  0.0639  0.2054  0.3000
48299W        W91290  34.735  22.766  15.619 -0.0103 -0.2814 -0.0249
48300W        W91291  24.411  19.630  22.704  0.2803 -0.1759 -0.1361
48301W        W91292   7.474  28.329  15.535  0.1871  0.2452 -0.2532
48302W        W91293  28.525  27.519  24.832 -0.0113  0.2317 -0.1991
48303W        W91294  12.305  24.498  28.108  0.1765  0.0076  0.2176
48304W        W91295  14.539  26.393  14.778  0.1486 -0.0710 -0.3941
48305W        W91296   9.850   4.794   2.303  0.0049  0.0892 -0.1072
48306W        W91297   3.346  19.592  23.397 -0.0605 -0.0125 -0.2252
48307W        W91298   7.057  28.685  28.086  0.0290 -0.1772 -0.0024
48308W        W91299  34.229  28.553  19.676  0.2425  0.2412 -0.1561
48309W        W91300  12.351  27.753  25.019 -0.2451 -0.1792  0.1542
48310W        W91301   4.537  10.406  24.084  0.0363 -0.0943 -0.0258
48311W        W91302   7.612  21.236  20.791 -0.1799  0.2134  0.2076
48312W        W91303   1.017  34.360  13.722  0.0347  0.1092 -0.1072
48313W        W91304  11.574   3.255  21.977  0.1116 -0.0165  0.2318
48314W        W91305  32.152  21.466  17.394  0.3176  0.6056 -0.3449
48315W        W91306  12.321  26.191   1.019  0.2556 -0.2583 -0.0181
48316W        W91307   1.603  15.077  19.866 -0.2134  0.0233  0.2137
48317W        W91308   9.365  21.663  21.829  0.0845 -0.3291 -0.1456
48318W        W91309  34.489  28.102   3.097  0.2471 -0.3024 -0.1681
48319W        W91310  12.479  27.786   6.597  0.0287  0.1498  0.0212
48320W        W91311  15.726  15.245  26.560 -0.0564  0.2883 -0.0456
48321W        W91312  31.430   2.141   2.208 -0.1932  0.1713  0.0049
48322W        W91313  17.229  24.047  17.748 -0.0503 -0.1378  0.0610
48323W        W91314   4.650  34.794  18.304  0.1783 -0.0174 -0.0701
48324W        W91315   4.647  17.233  17.656  0.0256 -0.0536 -0.2314
48325W        W91316   2.977  31.642  18.985 -0.3964  0.0167 -0.2151
48326W        W91317   5.505   7.737  21.447 -0.2448 -0.0997  0.1183
48327W        W91318  13.606  13.363   0.515  0.0344  0.1448 -0.0158
48328W        W91319  23.189  32.978   2.246 -0.3819  0.3508 -0.0335
48329W        W91320   2.082  27.020   1.523 -0.0260 -0.1676  0.0549
48330W        W91321  24.111  24.892  19.923  0.0482 -0.1268  0.1254
48331W        W91322  29.838  31.405  28.160 -0.1216  0.0233  0.1564
48332W        W91323  27.352  28.580  15.650 -0.3515  0.0449 -0.3515
48333W        W91324  25.496  26.161   1.694 -0.0337  0.5045  0.0923
48334W        W91325  28.357   7.090  21.514  0.0282  0.2174  0.2654
48335W        W91326  11.562  23.637   6.037 -0.0791  0.0466 -0.0992
48336W        W91327   7.303   6.044  18.856  0.0421  0.1092  0.2404
48337W        W91328  23.948  33.960  26.328  0.2195  0.1797  0.2578
48338W        W91329  12.535   1.660  25.059 -0.0045  0.1751  0.0644
48339W        W91330  32.971  20.524  20.064 -0.0463  0.0531  0.1766
48340W        W91331  10.720  30.470  27.222  0.1106 -0.0518 -0.5031
48341W        W91332  14.948   8.244  21.827 -0.0062  0.0507  0.0740
48342W        W91333   1.390   3.418   3.153 -0.1597 -0.3378  0.0539
48343W        W91334  10.615  20.769  19.687  0.1879  0.2529 -0.1025
48344W        W91335  26.208  20.629  14.780 -0.1497 -0.0585 -0.2953
48345W        W91336  13.310   5.518  21.708  0.2024 -0.1444  0.0427
48346W        W91337  10.389   1.599   3.517 -0.0412  0.3237  0.1376
48347W        W91338  34.094   8.789  26.452  0.1398 -0.1466 -0.1472
48348W        W91339  18.811  27.836  23.477 -0.1715 -0.0358  0.0101
48349W        W91340  30.280  19.064   7.264 -0.1019 -0.3487 -0.3887
48350W        W91341  11.210  25.875  21.289  0.1683 -0.3238 -0.2276
48351W        W91342  20.531  23.209   0.166  0.0849 -0.2327  0.1793
48352W        W91343   7.595   8.410   1.649 -0.0080  0.2250  0.0306
48353W        W91344  22.909  24.409  18.298 -0.1252 -0.0683  0.1375
48354W        W91345  17.413  24.812   4.969  0.0971  0.1298 -0.1782
48355W        W91346  25.775  14.936   1.119  0.1234 -0.0317 -0.3464
48356W        W91347  16.108  14.046   0.535 -0.1215 -0.0164  0.0829
48357W        W91348  13.048  25.812   5.699  0.1892  0.0842  0.0169
48358W        W91349   8.352  29.994  15.473 -0.2555 -0.2684 -0.1601
48359W        W91350   2.293  34.125  25.174 -0.1796  0.0800 -0.1080
48360W        W91351   9.882  32.637  24.266 -0.1273 -0.0930  0.3477
48361W        W91352  12.815  12.430  26.571 -0.2110 -0.0321  0.0876
48362W        W91353  11.664  22.746  22.111  0.2714  0.0721  0.1020
48363W        W91354  30.275   7.154  26.596 -0.0238 -0.1405 -0.0956
48364W        W91355  30.473   4.539  26.575  0.2498 -0.1248 -0.3177
48365W        W91356   2.455  29.041   3.523 -0.0472  0.0121  0.0797
48366W        W91357  10.933  12.438   2.830 -0.2126 -0.0083 -0.0857
48367W        W91358  24.667  34.770   2.018  0.0726 -0.1018  0.0820
48368W        W91359   5.003  34.391  28.408  0.0526 -0.3598  0.2677
48369W        W91360  21.213  13.006   3.252 -0.0284 -0.0251  0.0056
48370W        W91361   2.697  10.047  19.579  0.0338  0.0443  0.1282
48371W        W91362   5.345  22.870  24.398 -0.2476 -0.3064 -0.1710
48372W        W91363  15.713  32.057  22.225  0.2099  0.2002  0.3999
48373W        W91364  31.788   8.357  22.619 -0.0134 -0.0281  0.0083
48374W        W91365   1.149  17.730  25.696  0.1241  0.0462 -0.0387
48375W        W91366   1.441  29.372  23.198 -0.0837  0.0934  0.2721
48376W        W91367   2.508  16.925  20.888  0.0359 -0.2056  0.1056
48377W        W91368  32.326   0.518  25.817  0.0512 -0.1876  0.0636
48378W        W91369  19.305  33.037  16.562  0.1339  0.2282 -0.3750
48379W        W91370  19.158  24.527  22.178 -0.1296  0.0186  0.2699
48380W        W91371  29.172  23.780  29.039  0.2908  0.6534 -0.1911
48381W        W91372  18.816   1.063  15.240 -0.2366  0.2211  0.0615
48382W        W91373   8.736  15.060   7.946  0.1708 -0.0700 -0.0085
48383W        W91374   1.104  26.127  25.306  0.0183  0.0240  0.1826
48384W        W91375  10.320   3.940  20.341  0.1384 -0.2631 -0.0582
48385W        W91376  30.942  23.348   5.840 -0.4664  0.0557 -0.1184
48386W        W91377   8.156  19.306  21.903 -0.1741 -0.1035 -0.1999
48387W        W91378  13.756  18.658  28.630  0.1527 -0.1554 -0.2280
48388W        W91379  15.704   2.363  22.918 -0.1118  0.2199  0.2044
48389W        W91380  12.941  24.262  27.290 -0.2543 -0.3959 -0.0872
48390W        W91381  31.506  24.048  28.080 -0.1052  0.1113 -0.1039
48391W        W91382   2.121   5.674  25.019  0.1499 -0.0067  0.1960
48392W        W91383   8.540  20.746  19.638  0.0946 -0.0925 -0.1649
48393W        W91384  16.340   2.295  27.503 -0.0030 -0.2756  0.0527
48394W        W91385  32.984  34.782  14.723  0.0056 -0.3434 -0.1885
48395W        W91386  17.664   5.495  20.971 -0.1871 -0.0284 -0.4733
48396W        W91387  17.519  25.861   5.400 -0.1828 -0.1566  0.0067
48397W        W91388   0.230   2.745  19.238  0.0783  0.0974 -0.1264
48398W        W91389  19.642  26.308  19.118  0.5377  0.0896 -0.1724
48399W        W91390   1.700  15.169  28.934 -0.4393  0.1237 -0.1791
48400W        W91391   7.431  24.681  15.985  0.0975 -0.2619 -0.0809
48401W        W91392   7.653  27.434   5.187 -0.0544 -0.0027  0.1486
48402W        W91393   7.885   9.335  25.405  0.0061  0.4150  0.1333
48403W        W91394   8.320  26.437  19.071  0.0924 -0.1380 -0.0278
48404W        W91395  25.646  22.133  25.313 -0.0560 -0.2490 -0.1288
48405W        W91396  29.278  27.785   4.054 -0.0500 -0.4748  0.0231
48406W        W91397  19.174  24.340  16.798  0.1485 -0.0813 -0.1024
48407W        W91398  32.914  30.457  24.443  0.0355 -0.2097  0.0187
48408W        W91399  26.945  26.812  22.416 -0.3398  0.2034  0.0406
48409W        W91400   8.654  33.128  26.756 -0.0264  0.1159 -0.0031
48410W        W91401   1.991  20.435  22.497  0.1896 -0.0207 -0.2381
48411W        W91402   5.647  26.424  18.400  0.0492 -0.0097  0.1367
48412W        W91403  12.846  26.509  16.010 -0.1880 -0.0175 -0.1515
48413W        W91404  34.646  34.228  23.740 -0.1568  0.1160  0.2338
48414W        W91405  19.946  24.351  23.381  0.1767  0.1975 -0.0871
48415W        W91406  17.940  11.752  13.756  0.0535  0.0061 -0.1107
48416W        W91407   3.625  18.736  16.766 -0.0586  0.1211 -0.5789
48417W        W91408   9.345  31.263  26.448  0.2659  0.0424 -0.1162
48418W        W91409  14.822  11.321  16.017  0.1046 -0.0982  0.4169
48419W        W91410  17.943  26.998  18.664  0.1331  0.1197  0.0909
48420W        W91411  18.867   0.515  23.156  0.0541  0.0244 -0.2639
48421W        W91412  31.119  24.097  17.164  0.2902 -0.2508 -0.3174
48422W        W91413  29.328  11.349   9.917 -0.2583  0.0329  0.2477
48423W        W91414  17.013  30.535  22.585 -0.1732 -0.1563  0.2570
48424W        W91415  11.776  23.103  14.911  0.0761  0.1252 -0.0674
48425W        W91416  22.057  23.808  25.377  0.0941  0.1295 -0.0240
48426W        W91417   1.900   2.584  20.967 -0.0014  0.0603  0.1390
48427W        W91418  30.656  31.862  28.556 -0.0361 -0.0240  0.0538
48428W        W91419  12.558  27.958   5.191 -0.0382  0.4078 -0.0558
48429W        W91420  29.306   2.444  16.391 -0.1098 -0.0736  0.0911
48430W        W91421   7.810  27.569  27.598  0.0296  0.4206  0.0944
48431W        W91422  10.204  21.397   8.382  0.1257  0.2822  0.2460
48432W        W91423   5.793   0.775  19.297 -0.0664 -0.1179 -0.1585
48433W        W91424  14.766   3.814  22.693 -0.1877  0.0749 -0.2432
48434W        W91425  11.832  18.926  20.811  0.1519  0.0275 -0.1684
48435W        W91426   8.324  24.666  15.644  0.3114 -0.0754 -0.2650
48436W        W91427  33.362  29.035  25.182 -0.1221 -0.0987  0.0845
48437W        W91428  18.235  19.515  28.025  0.3702 -0.1182 -0.0888
48438W        W91429  34.428  25.231  15.999 -0.4114 -0.4069  0.1784
48439W        W91430  34.051  25.521  15.611  0.0111  0.0013 -0.0863
48440W        W91431   2.167  27.429  25.291 -0.0893 -0.1001 -0.0419
48441W        W91432  22.779   5.447  21.636 -0.2417  0.0811  0.0355
48442W        W91433   0.090   1.329   2.473  0.1468 -0.0022  0.1794
48443W        W91434  19.501  24.426  23.197  0.2532 -0.0793  0.0349
48444W        W91435   2.922  13.107   4.111  0.1926  0.1744 -0.0917
48445W        W91436   6.427  17.964  23.613  0.0130 -0.2053 -0.4408
48446W        W91437   3.085  31.565  10.307 -0.3027  0.0096  0.0089
48447W        W91438   8.916  20.552  21.826 -0.0541 -0.2651 -0.0850
48448W        W91439  17.690  26.943  14.132  0.4167 -0.0332 -0.0780
48449W        W91440   8.371   9.559  15.230  0.3505 -0.0220 -0.0274
48450W        W91441   0.068  20.921   8.046  0.0688  0.0590  0.3163
48451W        W91442   7.278  28.766  29.185 -0.0394 -0.0288  0.1783
48452W        W91443   9.426  32.548  27.707  0.1768  0.3568  0.0397
48453W        W91444   4.811  34.427  15.732 -0.2962  0.0370 -0.1939
48454W        W91445   1.726  26.011   0.498 -0.1645 -0.0124  0.1792
48455W        W91446   2.168  13.509  15.803  0.1140  0.1654 -0.2069
48456W        W91447  33.894  20.678  15.950 -0.0207 -0.1539 -0.2227
48457W        W91448  18.712   5.083  26.865  0.2266 -0.0558 -0.0889
48458W        W91449  23.220  27.188   7.120  0.3307 -0.2369 -0.0388
48459W        W91450  31.907  20.792  19.331  0.0750  0.2050 -0.1760
48460W        W91451  32.681  30.757  23.116  0.0276 -0.2039 -0.4220
48461W        W91452   8.123  23.895  27.563 -0.0107 -0.1157  0.1265
48462W        W91453  14.097   8.993  20.320  0.1032  0.0922 -0.1814
48463W        W91454   6.643  32.801  28.917  0.1927  0.0428 -0.1704
48464W        W91455   1.461  33.839  23.556  0.0160 -0.1322 -0.1086
48465W        W91456   7.707  16.661  16.445  0.1087 -0.2936 -0.2132
48466W        W91457  16.272  28.059  27.085  0.1007  0.0308 -0.1196
48467W        W91458  14.913  25.338  28.026 -0.2272 -0.1682  0.0502
48468W        W91459  21.767  18.613  19.860  0.0837 -0.0928 -0.0910
48469W        W91460   9.581  21.571  27.346 -0.1672 -0.1590  0.1941
48470W        W91461  34.011  26.198  16.476 -0.1365 -0.3686 -0.1187
48471W        W91462  26.796  29.290  26.650  0.1643 -0.1353 -0.0263
48472W        W91463   6.436   3.452  22.584 -0.2419  0.4515 -0.2804
48473W        W91464  28.368  25.756  22.429  0.2915 -0.1814 -0.3492
48474W        W91465  32.630  28.371   3.136 -0.1364  0.1681  0.1340
48475W        W91466  22.013   8.132  21.915  0.2061  0.2036  0.0884
48476W        W91467  20.013  27.178  18.001 -0.0563  0.0648  0.1945
48477W        W91468  12.510  28.868  18.830 -0.1213 -0.0709 -0.0078
48478W        W91469  21.854  31.940  18.817 -0.2249  0.1121  0.2347
48479W        W91470   5.947  25.623  20.697  0.3279  0.3432  0.0744
48480W        W91471   8.448   2.467  20.655 -0.2387 -0.0138  0.1510
48481W        W91472  18.595  16.813  26.323  0.4065  0.1440  0.0476
48482W        W91473   9.479   0.697   7.227  0.0822  0.2606 -0.0158
48483W        W91474  11.069  13.497  22.012  0.1011  0.1726  0.0982
48484W        W91475   6.891  13.050  19.112  0.0117 -0.2333  0.1489
48485W        W91476  10.969   5.768  22.416  0.1588  0.2657  0.1665
48486W        W91477  22.326   1.309  20.279  0.6128 -0.2715  0.0207
48487W        W91478  33.064  26.072  27.913  0.1113  0.1799  0.0600
48488W        W91479   0.512  25.641  15.914  0.1097  0.2770 -0.1579
48489W        W91480   1.862  17.185  21.106 -0.2063  0.2027  0.0432
48490W        W91481  28.628   0.652  24.663  0.3942  0.0030  0.0017
48491W        W91482  22.104  25.837  21.020 -0.1666 -0.0751 -0.2089
48492W        W91483   7.238   6.068  18.330  0.2128  0.1099  0.1095
48493W        W91484  13.625  16.724  22.736 -0.2874 -0.0918  0.0609
48494W        W91485  14.553  31.394  17.657 -0.1434 -0.2346 -0.0142
48495W        W91486   4.254   2.734  22.975  0.0663 -0.2070 -0.1512
48496W        W91487  18.341  33.613  27.854  0.0546  0.0271  0.2326
48497W        W91488  32.224  14.368   0.185  0.0487  0.1006  0.0180
48498W        W91489   6.083  34.755  20.862  0.1092 -0.1345 -0.0764
48499W        W91490   6.888   8.004  20.059 -0.2364 -0.0559  0.2109
48500W        W91491  31.708  15.297  17.652  0.0291  0.2372 -0.1761
48501W        W91492   2.439   5.797  27.628  0.1814  0.1888 -0.2385
48502W        W91493   1.012  23.873  27.170  0.0920 -0.0514  0.0185
48503W        W91494   2.857  27.478  22.257  0.0399 -0.0534  0.2887
48504W        W91495   0.736  34.114  18.563 -0.1423  0.1256  0.0078
48505W        W91496  34.614   7.571  23.626  0.0380 -0.1603 -0.0712
48506W        W91497  10.402  27.571   3.933 -0.0848  0.0763  0.0593
48507W        W91498  14.939  31.701  22.252 -0.1562 -0.0984  0.1250
48508W        W91499  33.651  33.631  23.473  0.1895 -0.1548 -0.0182
48509W        W91500  23.213  18.638   3.740 -0.4619  0.0773  0.0587
48510W        W91501   1.824  34.068  26.513  0.3480 -0.0878 -0.2811
48511W        W91502  28.335  16.411  25.850 -0.0332 -0.2071  0.0274
48512W        W91503  15.364  25.052  13.620 -0.3789 -0.0035  0.1410
48513W        W91504  21.523   2.696  21.891  0.1774  0.1560  0.0272
48514W        W91505   0.443  27.161   2.415 -0.0127 -0.0602 -0.1459
48515W        W91506  34.542  31.181  22.069  0.0184 -0.2144 -0.2694
48516W        W91507   3.416  22.188  23.983  0.0919  0.1397  0.1985
48517W        W91508  22.144  32.648  20.020  0.0060  0.0848 -0.0606
48518W        W91509   8.409  24.115   9.764  0.2231  0.1459 -0.0487
48519W        W91510   7.763  29.220  17.183  0.0279 -0.0493  0.1792
48520W        W91511  23.457  29.325   0.291 -0.0930 -0.1988 -0.0037
48521W        W91512  15.803  26.163  19.491  0.4216 -0.0877 -0.1773
48522W        W91513   9.758  27.709  28.358  0.0788 -0.1874  0.1696
48523W        W91514  27.871  16.521   9.924  0.2745  0.1290  0.0528
48524W        W91515   0.510  10.872  24.986 -0.0127  0.3515  0.2142
48525W        W91516   4.781  24.238  27.188  0.0961  0.0552  0.2133
48526W        W91517   5.081  17.831  26.863  0.0072  0.0849 -0.2350
48527W        W91518  23.237   1.199  25.509 -0.4943  0.0137  0.0889
48528W        W91519  12.816  26.999  21.141  0.0849  0.0265  0.1253
48529W        W91520  11.980  11.721   5.712  0.1076 -0.0896  0.0406
48530W        W91521  13.793  24.845  16.953  0.0578  0.3185  0.1274
48531W        W91522   4.852  15.530  10.084 -0.1927 -0.0812  0.0438
48532W        W91523  14.457   6.075  17.469 -0.0295  0.1321 -0.2964
48533W        W91524   9.585  27.274  23.080  0.0917  0.2244 -0.2162
48534W        W91525   0.515  30.491  18.551 -0.1068  0.2446  0.3341
48535W        W91526   3.316  11.751   2.132 -0.0319 -0.3067 -0.0128
48536W        W91527   8.475  17.838   8.695 -0.0378 -0.0699  0.2454
48537W        W91528  22.326   3.934  15.293  0.2579 -0.0081  0.1303
48538W        W91529  21.983  21.552  27.236  0.0979 -0.1523 -0.3226
48539W        W91530   1.691  32.636  16.044  0.1803  0.4659 -0.0083
48540W        W91531  21.044  28.254  16.950  0.0100 -0.1786  0.1578
48541W        W91532   6.125  32.316  21.360  0.4026  0.2982  0.0975
48542W        W91533  31.361  20.909  19.211  0.2343 -0.1751  0.1227
48543W        W91534  18.784  32.622   3.669 -0.3412 -0.3246 -0.2026
48544W        W91535   3.431  24.189   9.456 -0.1291 -0.0686 -0.2013
48545W        W91536  12.132  19.756   6.422  0.0662 -0.0236  0.0538
48546W        W91537  16.988   6.744  14.822  0.2301  0.1003  0.2892
48547W        W91538  11.569  24.809   1.779  0.0350  0.1868  0.3175
48548W        W91539  15.835  34.038  16.319 -0.2114 -0.0038  0.0079
48549W        W91540  10.413  33.210   8.404  0.4706 -0.1383  0.1788
48550W        W91541  11.360   0.201   5.904  0.2508  0.2193 -0.0439
48551W        W91542  12.318  12.355  28.651 -0.0966  0.2353 -0.1843
48552W        W91543  32.791  24.060  19.982  0.0026  0.2602  0.1590
48553W        W91544  18.491   3.852   0.447 -0.1598  0.1184  0.0642
48554W        W91545   4.791  19.120  18.974  0.0274  0.2595 -0.2231
48555W        W91546  15.160  30.458  15.447 -0.0316  0.1867 -0.2121
48556W        W91547  10.663  24.172  21.256 -0.3068 -0.2457 -0.0517
48557W        W91548  34.077  22.755  24.122  0.1230  0.0003  0.0637
48558W        W91549  15.987  32.108   3.851  0.2627  0.0785  0.2449
48559W        W91550   2.772  10.925   6.833  0.1120  0.1324  0.1383
48560W        W91551   3.700  34.059   6.538 -0.4265  0.3504 -0.3199
48561W        W91552  14.664  26.597   7.265 -0.2992  0.1978 -0.1159
48562W        W91553  28.444  31.093  18.260  0.2337  0.2139  0.2331
48563W        W91554  12.427  20.763  28.983 -0.5087 -0.1535 -0.0133
48564W        W91555  17.328  28.467  14.168 -0.1683 -0.0693 -0.1458
48565W        W91556   8.503  12.254   1.112  0.1101 -0.1232  0.0872
48566W        W91557  21.284  29.933  27.974 -0.0644  0.3572  0.0180
48567W        W91558  19.797  23.393  20.952 -0.0393 -0.2332 -0.0622
48568W        W91559   9.924  34.087  28.829  0.2096 -0.0937 -0.3509
48569W        W91560  10.838  20.205  14.083 -0.1744  0.0432  0.0712
48570W        W91561  11.626  16.636  18.672 -0.3159  0.3030  0.1401
48571W        W91562  21.456  18.887  26.287 -0.1240 -0.2166 -0.1018
48572W        W91563  27.556  12.604   5.535 -0.0149  0.1707 -0.3315
48573W        W91564   2.259  23.483  28.056  0.1730 -0.3970  0.0667
48574W        W91565  11.897  17.751  22.727  0.0604  0.0712  0.1994
48575W        W91566   2.527   9.722   4.984 -0.2689  0.0884  0.0997
48576W        W91567  33.354  26.828  21.243  0.1605  0.2675 -0.1103
48577W        W91568   2.553  15.792  27.446 -0.3869 -0.0394 -0.1750
48578W        W91569   5.749  22.134  28.795  0.1173  0.2054  0.1713
48579W        W91570   1.048  25.466  24.327 -0.3220  0.5209 -0.4192
48580W        W91571  26.116   2.914   2.773  0.3258 -0.5090 -0.2224
48581W        W91572   9.687  14.804  25.830 -0.2896  0.1661  0.0554
48582W        W91573   9.870  18.322   2.118 -0.0038 -0.2263 -0.1424
48583W        W91574  30.036  27.446  14.015  0.1640 -0.2114  0.2829
48584W        W91575  16.644  29.260  25.898 -0.2386  0.0626  0.0617
48585W        W91576  11.803   7.062  27.742  0.1340 -0.0872  0.1033
48586W        W91577   7.610  34.552  22.043 -0.1900 -0.2286 -0.0019
48587W        W91578   3.770  28.315  18.284 -0.0525  0.1349  0.3259
48588W        W91579   8.033  23.591  23.696  0.0526 -0.1781  0.0733
48589W        W91580  13.551   8.940  15.897  0.0460  0.2847  0.0732
48590W        W91581   2.035   8.181   4.019 -0.1633 -0.1570 -0.0878
48591W        W91582  17.098  17.714  12.190 -0.1688  0.2012 -0.2733
48592W        W91583  10.791  22.434   5.635  0.1018 -0.2787  0.0134
48593W        W91584  16.716   8.318  20.534 -0.0932  0.0206 -0.0310
48594W        W91585  22.086  26.377  28.087 -0.2584 -0.1214 -0.3130
48595W        W91586   6.353  30.203   4.762  0.1112 -0.1822  0.0590
48596W        W91587   5.025  18.725  22.121  0.0601 -0.0904  0.1500
48597W        W91588   6.538   3.814  11.480  0.0851 -0.1570  0.1591
48598W        W91589   8.147  12.944  28.797  0.3297  0.1987  0.0445
48599W        W91590  15.657  21.185   1.681 -0.0805  0.2124 -0.0090
48600W        W91591  34.755  19.425  22.757  0.2059 -0.1804  0.1871
48601W        W91592  33.574  10.028   6.546  0.0315  0.1474 -0.4445
48602W        W91593  15.779  24.740   7.915  0.0125  0.2872  0.2030
48603W        W91594  14.066  21.901  21.647 -0.1641  0.3123 -0.5266
48604W        W91595  27.988   3.132  19.244 -0.2153 -0.2501 -0.2063
48605W        W91596  16.866  24.794  26.840 -0.2498  0.4558  0.2940
48606W        W91597  28.044  21.651  21.811  0.0566  0.1924  0.4682
48607W        W91598  21.095  29.243  16.716 -0.0395  0.0024 -0.0382
48608W        W91599   0.596  22.234   9.454 -0.0675 -0.2287 -0.1620
48609W        W91600  34.010   4.678  27.746 -0.0873 -0.1979 -0.0256
48610W        W91601  31.128  18.651  26.627 -0.1449  0.0250 -0.0245
48611W        W91602   0.990   5.380   7.915  0.4102 -0.3844  0.1530
48612W        W91603  10.010   8.546  18.052  0.0915  0.0700 -0.1196
48613W        W91604  11.857  18.095   2.100 -0.0974  0.3612  0.0209
48614W        W91605  24.953  28.625  20.402  0.0658 -0.2267  0.2242
48615W        W91606   7.480  32.163   8.805 -0.4401  0.1266 -0.0202
48616W        W91607  25.773   0.367  18.279 -0.0599 -0.1615  0.0833
48617W        W91608   4.465  33.370   2.038 -0.3472 -0.0936 -0.0541
48618W        W91609  33.674  27.687   0.117  0.1625  0.1658  0.2163
48619W        W91610  33.457  15.411  22.712 -0.0421  0.2701 -0.0361
48620W        W91611  32.844   2.772  27.558  0.0246 -0.0838  0.1090
48621W        W91612  13.882   5.164   0.387 -0.1998  0.0247  0.1715
48622W        W91613  18.462  19.711  21.910  0.3265  0.0049 -0.0594
48623W        W91614  33.566   2.264  15.068 -0.1379 -0.1231  0.1466
48624W        W91615  34.631  33.414  25.973  0.1803 -0.4743  0.0406
48625W        W91616   9.487  12.544  16.792  0.1174  0.1566  0.1608
48626W        W91617  15.323   5.580   0.917 -0.0104  0.2192 -0.1375
48627W        W91618  13.604  33.304  16.789  0.1055 -0.0921 -0.1134
48628W        W91619  19.038  29.952   0.858 -0.1665 -0.0327 -0.0185
48629W        W91620  20.540  29.930  14.418 -0.2235  0.0941 -0.1429
48630W        W91621   3.862   1.750  25.736 -0.0079  0.0943 -0.0968
48631W        W91622  27.067  28.889  17.065  0.2869 -0.1074  0.4152
48632W        W91623   3.429  13.365  24.787  0.1729  0.2779 -0.2209
48633W        W91624  22.869  34.123  19.390 -0.1180 -0.0326 -0.0574
48634W        W91625   5.532  23.655  19.875 -0.2355  0.1431 -0.2354
48635W        W91626  34.534  20.526   9.615  0.2911 -0.4793  0.5343
48636W        W91627  17.788  15.873  15.250 -0.1986  0.1698 -0.0651
48637W        W91628  33.024  12.262   0.635  0.1792 -0.1355  0.1158
48638W        W91629  16.018   2.514  24.735 -0.0897  0.1697  0.1706
48639W        W91630   5.604  24.832  17.951 -0.2085  0.2602 -0.1081
48640W        W91631  29.971   4.530  21.708  0.2505 -0.1051  0.1840
48641W        W91632  12.014   9.793  24.724 -0.1447  0.0529  0.1141
48642W        W91633  18.296  30.320   1.460 -0.2003  0.0989 -0.1517
48643W        W91634  14.841  27.872   5.330 -0.3750 -0.1023 -0.2291
48644W        W91635   9.867  12.359  26.516 -0.1411 -0.1432  0.1213
48645W        W91636   0.056  16.800  10.419  0.2708 -0.0331  0.1706
48646W        W91637   4.628  18.252   2.098 -0.0893  0.0329  0.1078
48647W        W91638  31.967   7.840   2.886  0.3593 -0.0051  0.0529
48648W        W91639  29.985   2.689  23.974 -0.1084 -0.1657 -0.3284
48649W        W91640  13.804  32.388  17.338  0.1180 -0.2131 -0.1579
48650W        W91641   7.793  27.413  17.673 -0.0168  0.2563  0.0640
48651W        W91642   5.233  18.126   5.782 -0.3754  0.0638  0.3237
48652W        W91643   9.210  17.541  23.999  0.0567 -0.3059 -0.0701
48653W        W91644   9.448   3.364   2.752 -0.0267 -0.0743 -0.3580
48654W        W91645   6.961  17.883  25.588 -0.3346 -0.2839  0.2050
48655W        W91646  14.687  21.853  17.938 -0.1701  0.1196 -0.0717
48656W        W91647  25.104  16.606  28.133  0.1002 -0.1389  0.1032
48657W        W91648   7.609  19.996  16.383 -0.0976 -0.0466  0.0489
48658W        W91649  15.714  25.865   6.654  0.3301 -0.0424  0.2395
48659W        W91650   8.043  14.854   2.859  0.2352  0.3694 -0.1592
48660W        W91651  29.390   5.569   0.411 -0.1574  0.1542  0.0880
48661W        W91652   8.310   5.321   8.943 -0.1035 -0.0851 -0.0699
48662W        W91653  20.038  20.729  24.609  0.0045  0.2547 -0.1975
48663W        W91654  12.603  21.567  26.280  0.1594  0.1755  0.2777
48664W        W91655  12.792  21.544   4.691  0.0358  0.0117  0.0392
48665W        W91656  13.991  34.480  24.346 -0.4019 -0.1605  0.2346
48666W        W91657   6.972  30.978  22.092 -0.0612  0.2020  0.0382
48667W        W91658   4.648  29.414  19.736 -0.1720  0.1207 -0.6876
48668W        W91659  14.219  34.422   7.148  0.0703 -0.0110  0.1461
48669W        W91660   2.930  12.175  23.925  0.0672  0.0372 -0.2072
48670W        W91661  16.555  26.920   8.379  0.0848  0.0402 -0.1162
48671W        W91662   4.267  23.029   5.599 -0.2358 -0.1118 -0.1955
48672W        W91663  33.699  32.055  20.560 -0.3548  0.2841  0.0167
48673W        W91664  14.535  30.052  15.614  0.1819 -0.1245 -0.2278
48674W        W91665  25.996  29.679   4.227  0.0440  0.2224 -0.0535
48675W        W91666   1.488  34.572   4.593 -0.1063 -0.0895  0.0906
48676W        W91667  20.874   7.942  23.825  0.0653  0.3137  0.1377
48677W        W91668   6.138  27.173  24.817  0.1188 -0.2489 -0.2632
48678W        W91669  12.567  19.044  15.420 -0.2725  0.0120 -0.5076
48679W        W91670  23.852  28.184  16.656 -0.0614 -0.0392  0.2330
48680W        W91671   2.273  18.340   5.370  0.1068  0.0806 -0.0026
48681W        W91672   6.796  22.973  20.439 -0.1771  0.1238  0.1651
48682W        W91673  25.981  24.937  21.424 -0.2141 -0.0525  0.0129
48683W        W91674   7.547  20.145  23.060 -0.0289  0.0717 -0.1051
48684W        W91675  25.914  23.869  24.494  0.0110  0.2844 -0.1751
48685W        W91676  10.404  28.975  16.428 -0.1449  0.0784  0.1370
48686W        W91677  14.418  15.543   6.830 -0.0545  0.2698  0.0119
48687W        W91678   4.734  24.208  22.720  0.3216  0.0614 -0.0521
48688W        W91679  32.179   7.599   6.543  0.1902  0.5896 -0.1181
48689W        W91680  34.169  26.280   6.936  0.1764  0.2050 -0.3894
48690W        W91681  10.729  32.481   2.436  0.3158  0.2752  0.2116
48691W        W91682   2.897  18.591  25.183  0.2909 -0.3932 -0.0288
48692W        W91683  12.640  19.325  18.358 -0.0176 -0.1238 -0.0153
48693W        W91684  32.092  11.367  16.017 -0.1996 -0.1281 -0.0780
48694W        W91685  23.085  17.188   3.691 -0.0246 -0.3829  0.0804
48695W        W91686   1.390   5.751  15.639  0.1885 -0.1622  0.0049
48696W        W91687  14.989   2.135  15.526  0.2285 -0.1527  0.2867
48697W        W91688   8.862  25.228  24.211  0.3211 -0.0083 -0.0629
48698W        W91689  13.250   0.939  21.418 -0.5606 -0.1692 -0.1659
48699W        W91690   6.158   8.666   3.752  0.0135  0.0407  0.1026
48700W        W91691  14.704  20.736  28.270 -0.0265  0.4501  0.0373
48701W        W91692   5.535  24.458  29.013 -0.0142 -0.3323  0.0935
48702W        W91693  32.529   7.634   4.453 -0.2050  0.0648 -0.3446
48703W        W91694   0.162  20.483  15.984 -0.1435 -0.0064 -0.1747
48704W        W91695  18.699  25.178  28.348 -0.0125  0.1971 -0.2352
48705W        W91696  18.972  10.531  20.435  0.1041 -0.1867 -0.1886
48706W        W91697  17.677  21.372  28.741  0.0023 -0.2247  0.0216
48707W        W91698  20.307  31.284  12.812  0.1983 -0.1336  0.2209
48708W        W91699   8.004  28.718  23.943  0.0892 -0.0836 -0.0934
48709W        W91700   1.829  30.841  26.962 -0.2903 -0.1202 -0.0358
48710W        W91701  29.875  23.946  27.048 -0.1344 -0.1003 -0.0331
48711W        W91702  29.161  32.129   4.006 -0.0742  0.0698 -0.0882
48712W        W91703  17.422  32.165  27.123 -0.0391 -0.0094 -0.0877
48713W        W91704  28.404  17.008  21.719 -0.1298  0.1303 -0.0585
48714W        W91705  14.930   5.248  21.626 -0.0394  0.1426 -0.1351
48715W        W91706  30.767  17.527  24.110 -0.0854  0.1283  0.1908
48716W        W91707  14.980  28.438   3.244  0.0867  0.0180 -0.0666
48717W        W91708  30.485  24.847   3.494  0.0292  0.1554  0.1418
48718W        W91709  10.509  30.702   5.269  0.0647 -0.1220 -0.0051
48719W        W91710   8.656   8.380  28.351  0.4484  0.0468  0.1042
48720W        W91711  22.641  24.150   5.638 -0.2417 -0.1704  0.2062
48721W        W91712  16.629  21.183  26.849 -0.0848  0.2418  0.3086
48722W        W91713  13.184  25.746  21.897 -0.1887 -0.3174  0.0098
48723W        W91714   0.643  21.001  17.341 -0.0138 -0.0916 -0.2395
48724W        W91715   7.187  29.220  21.776  0.0172  0.0417  0.2930
48725W        W91716   2.214  33.872   4.192  0.1060 -0.1854  0.0055
48726W        W91717  11.191  18.364   1.467 -0.1635 -0.2816 -0.1555
48727W        W91718  16.944  29.557   8.912  0.0806 -0.0460 -0.1562
48728W        W91719  32.247  28.933  24.801  0.5979  0.0887  0.0361
48729W        W91720  14.285  25.023  16.045  0.2213  0.2609  0.4357
48730W        W91721   5.824  28.193   5.632 -0.0367 -0.3197  0.0269
48731W        W91722   7.651  12.997  17.690 -0.0069 -0.1537  0.1364
48732W        W91723  18.672  19.233   2.786  0.0007 -0.1335 -0.1188
48733W        W91724  30.058  30.610  15.721 -0.0868  0.1517 -0.2405
48734W        W91725   0.267  33.619  17.863  0.0113  0.3124  0.1187
48735W        W91726  12.905  14.342  18.748 -0.0323 -0.2237 -0.1164
48736W        W91727   8.673  11.757  20.513 -0.2642 -0.1137  0.0605
48737W        W91728  33.412  18.189   5.238 -0.1690 -0.1102  0.1916
48738W        W91729  25.113  28.526  19.548  0.2623  0.0176 -0.5016
48739W        W91730  11.448  32.141   2.649 -0.0344  0.0763 -0.1861
48740W        W91731  16.631  24.708  25.617 -0.2263 -0.0111 -0.1015
48741W        W91732  16.524  23.998  19.127  0.0141 -0.0523 -0.2898
48742W        W91733  18.386  18.532  22.063  0.0836  0.3601  0.2576
48743W        W91734  12.787  26.499  23.015 -0.1944  0.3471 -0.1596
48744W        W91735  12.576   1.413  18.992  0.0932  0.0114  0.1915
48745W        W91736  32.420  30.370   0.193  0.0503  0.2034  0.0976
48746W        W91737  24.612  28.294   0.961 -0.0685  0.1788  0.1159
48747W        W91738   6.809   2.113   7.259 -0.0788  0.1531  0.1283
48748W        W91739  27.570   3.495  20.173  0.1032  0.2162 -0.0446
48749W        W91740  31.212  34.179  29.038 -0.1094  0.1975  0.2053
48750W        W91741   5.164  28.848  28.456  0.1469  0.1013 -0.2606
48751W        W91742   4.300  20.267   5.983  0.2915  0.3194 -0.1304
48752W        W91743  10.358  29.198  15.609 -0.2296  0.0645  0.1943
48753W        W91744  34.484   3.427  10.199 -0.0884 -0.1672  0.1693
48754W        W91745   8.920  32.830  24.620  0.2811  0.0434 -0.2251
48755W        W91746   8.444  11.806  20.917  0.1705  0.1973 -0.0161
48756W        W91747  20.797  26.131  25.644 -0.1508 -0.0660 -0.3272
48757W        W91748  25.279  18.935  22.736 -0.1256 -0.1839  0.0521
48758W        W91749   7.491  31.900   6.818  0.2026 -0.0997 -0.1344
48759W        W91750  27.669  27.628  19.302  0.3058  0.1057 -0.1398
48760W        W91751  26.619  26.286  14.049  0.0367  0.5285 -0.1491
48761W        W91752   2.690  33.795   9.297  0.0046  0.0876  0.0205
48762W        W91753   9.445  17.903   9.374 -0.0242  0.2167 -0.0512
48763W        W91754  17.947   4.088   5.431  0.1633  0.2578 -0.1949
48764W        W91755  13.612  27.861  19.847  0.0157 -0.0978  0.0778
48765W        W91756  30.296  25.204  18.908 -0.0022  0.3737 -0.1066
48766W        W91757   7.790  26.120  17.329 -0.0142 -0.0941  0.2928
48767W        W91758   4.513   1.864  19.086  0.3117 -0.1343 -0.1657
48768W        W91759   9.214  27.472   1.642 -0.0172  0.0071  0.0685
48769W        W91760  28.751  16.634  28.744 -0.2746  0.1630  0.1108
48770W        W91761  17.147   2.403  16.154 -0.1151  0.0815  0.1651
48771W        W91762   3.912  20.965  10.489  0.0447  0.0780  0.4348
48772W        W91763  22.024   3.177  28.423  0.2244 -0.2344 -0.1596
48773W        W91764   3.785  30.567  20.601 -0.2484  0.0313 -0.0331
48774W        W91765  17.257  27.651   6.889 -0.0697 -0.0697  0.0791
48775W        W91766  29.854  25.071  22.354 -0.0486 -0.1354 -0.0778
48776W        W91767  27.354  21.429  26.275 -0.3347  0.1374 -0.0829
48777W        W91768   1.530  19.857  19.994 -0.3371 -0.0024 -0.3614
48778W        W91769  14.048  21.165  26.696 -0.1221  0.2966  0.0432
48779W        W91770  12.803  34.404  21.477  0.2872 -0.2519 -0.6279
48780W        W91771   9.355  23.896  23.845 -0.2894  0.1535  0.0876
48781W        W91772  25.633  27.491  22.316 -0.2102  0.1241 -0.0157
48782W        W91773   7.149  23.168   7.660  0.4360  0.2176 -0.0516
48783W        W91774  10.844  33.627  18.525 -0.0934 -0.0991  0.2175
48784W        W91775  23.146  22.997   9.778 -0.2131  0.2580 -0.0950
48785W        W91776  10.134  17.900  21.604  0.2822  0.2682 -0.0662
48786W        W91777   3.842  31.178  28.857 -0.1977  0.1346  0.0743
48787W        W91778  18.750  22.462  15.190 -0.0800 -0.1463  0.0627
48788W        W91779  18.851  14.374  24.462  0.0458 -0.1990  0.0869
48789W        W91780   1.525  30.986  25.066  0.1796  0.1301 -0.2884
48790W        W91781   4.384  25.359   5.157 -0.1247  0.0085 -0.0368
48791W        W91782  17.297  19.113  28.409  0.0082 -0.0096  0.0084
48792W        W91783   6.301  28.373  25.594  0.2773 -0.0549 -0.2052
48793W        W91784  25.657  32.949   9.008 -0.0071 -0.1992 -0.1645
48794W        W91785  11.862  25.098  14.529  0.1959 -0.1280 -0.0207
48795W        W91786  16.009  15.033  23.789 -0.1098  0.1698 -0.0072
48796W        W91787  15.327  12.804   1.541  0.4506  0.0970 -0.2363
48797W        W91788  14.376  27.900  17.364  0.3456  0.0161 -0.0977
48798W        W91789   4.100  15.750   2.488  0.2482  0.0000  0.0934
48799W        W91790  22.677  14.308  16.450 -0.0818  0.1564 -0.2228
48800W        W91791  13.148  28.424  18.519  0.0354 -0.2284 -0.0342
48801W        W91792   0.133  25.227  21.557  0.0316  0.0329 -0.1546
48802W        W91793  21.222  27.754  24.902  0.0500 -0.2215 -0.3534
48803W        W91794   0.676   5.127  17.991  0.0937 -0.2676  0.2072
48804W        W91795  12.109  23.487   5.885 -0.0947  0.0582 -0.2002
48805W        W91796   1.066  34.315   6.811 -0.0382 -0.0985  0.0917
48806W        W91797  12.478  17.038  15.900 -0.2982  0.1918  0.2235
48807W        W91798   6.529   9.512  20.163  0.1946 -0.0616  0.1441
48808W        W91799   2.126  26.732  28.701  0.2686 -0.0982 -0.1452
48809W        W91800   7.363  21.917   2.499 -0.1848 -0.0919 -0.2601
48810W        W91801  34.498  24.810  21.510  0.4383 -0.1307  0.1688
48811W        W91802   0.202   4.245   0.981 -0.1143 -0.3247  0.1308
48812W        W91803   5.882  26.322   5.202  0.0734  0.0601 -0.2600
48813W        W91804   9.600   9.399  25.361 -0.1444  0.1563  0.0968
48814W        W91805   8.525  31.943   1.991 -0.0302 -0.2111  0.1902
48815W        W91806  10.510   1.067  19.676  0.1371  0.2916 -0.3266
48816W        W91807  33.697  34.061  23.776 -0.1739 -0.0116 -0.0024
48817W        W91808  12.754  34.134  17.265 -0.0540 -0.0553  0.2599
48818W        W91809  27.762  18.972  28.523 -0.0560 -0.0620 -0.1855
48819W        W91810  16.029  27.013  20.572  0.0240  0.1187 -0.1485
48820W        W91811  27.463  24.450  18.019  0.3287  0.0642  0.2357
48821W        W91812  27.992   1.722  27.957  0.0733  0.0115  0.2011
48822W        W91813  21.099  10.190  28.500 -0.0288 -0.1752  0.5586
48823W        W91814  10.937  28.405  28.839 -0.1144  0.3136  0.0113
48824W        W91815  34.722  27.587  27.069 -0.0839 -0.1936 -0.0966
48825W        W91816   5.756  19.244   1.992  0.0376 -0.1646  0.1961
48826W        W91817  20.897  22.864  18.500  0.2232  0.1461 -0.0425
48827W        W91818   7.537  31.607  25.669 -0.3111 -0.2623 -0.0226
48828W        W91819  12.809  26.665   7.771 -0.3764  0.3044  0.0581
48829W        W91820  27.310   5.584  21.829 -0.0997 -0.3697 -0.1317
48830W        W91821  19.147   7.290  21.130 -0.0718 -0.3064 -0.1799
48831W        W91822  14.123  23.933  17.348 -0.0640  0.3748 -0.1024
48832W        W91823   2.239   3.573  28.354  0.0623  0.2881  0.0311
48833W        W91824   6.832  34.417   2.249  0.2693  0.1962  0.0465
48834W        W91825   6.098  32.877   1.481  0.2174  0.1355 -0.0452
48835W        W91826   3.167  25.158  19.170  0.1256  0.0127 -0.2168
48836W        W91827  34.016  14.298  21.433  0.2080  0.1015 -0.2565
48837W        W91828  14.933  25.606  26.693 -0.1772  0.1402 -0.1540
48838W        W91829  21.278  27.001   4.969  0.0268 -0.3388 -0.3293
48839W        W91830   4.690  31.296  26.299 -0.1637 -0.3720  0.0528
48840W        W91831   5.920  20.917  16.065 -0.0934  0.0956 -0.0222
48841W        W91832  32.355   0.956   3.878 -0.0711  0.1236  0.2720
48842W        W91833   4.069  10.182  10.269 -0.0447 -0.0082 -0.0904
48843W        W91834  21.488   0.754   0.732 -0.3429 -0.1938 -0.1095
48844W        W91835  17.287  22.633  22.246 -0.0922 -0.0633  0.2143
48845W        W91836  20.242   3.373  16.928  0.1289  0.1229 -0.1757
48846W        W91837  14.267   5.083  10.436  0.3509 -0.0841  0.1151
48847W        W91838   0.461   8.076   5.850  0.2180 -0.2158 -0.0861
48848W        W91839  24.557  27.513  25.824  0.0217 -0.0897  0.1043
48849W        W91840   6.917  21.348  25.997  0.1249 -0.4273  0.2341
48850W        W91841  17.678   0.334  14.759 -0.1627  0.1387 -0.0854
48851W        W91842  15.301   9.632  23.520 -0.0872 -0.0481 -0.1658
48852W        W91843   9.049  25.208   0.310 -0.1066 -0.4513 -0.1977
48853W        W91844  29.260  34.629  28.087 -0.2868  0.1882 -0.3806
48854W        W91845  26.391  31.266   2.793  0.1132  0.1308  0.4218
48855W        W91846  30.101  10.679  29.133 -0.1169  0.3028  0.0751
48856W        W91847  23.838   8.680   4.418 -0.0273  0.1769  0.2599
48857W        W91848  33.142  20.159   4.298  0.2154 -0.2172 -0.2218
48858W        W91849  34.241   6.316  23.070  0.0053 -0.3045 -0.0518
48859W        W91850   4.951  26.526   7.294 -0.4622  0.5818  0.2500
48860W        W91851  15.479  29.913  23.300  0.1336  0.0298 -0.1528
48861W        W91852   8.961  20.886  23.404  0.3584  0.3061 -0.3077
48862W        W91853  10.255  22.770   5.271  0.4088  0.0427 -0.1235
48863W        W91854   9.831  29.771  16.229  0.0817 -0.0087  0.3144
48864W        W91855   8.941  24.104  25.533 -0.1196  0.1297  0.0745
48865W        W91856  11.913  12.313  27.083  0.0080 -0.1164  0.2745
48866W        W91857  32.965   4.407  20.347  0.1243 -0.0279 -0.0316
48867W        W91858  20.702  24.274   1.746  0.1892 -0.0667  0.1718
48868W        W91859   5.100  28.277   1.543  0.2907 -0.0172  0.1847
48869W        W91860   9.935  12.270  15.164 -0.0732 -0.3025  0.2046
48870W        W91861   9.760  22.342  16.505  0.2350  0.2198 -0.2586
48871W        W91862   7.488  16.909   7.633  0.1119 -0.3047  0.3277
48872W        W91863   2.153  30.719   7.625  0.0448  0.4277 -0.0235
48873W        W91864   3.434  21.652  26.536 -0.2275  0.2562  0.1644
48874W        W91865  31.963  31.409  17.041  0.1679  0.0754 -0.0723
48875W        W91866  10.390  18.090  25.938  0.1908 -0.1787  0.3744
48876W        W91867  22.855  33.385  29.032  0.2166  0.0172  0.2456
48877W        W91868  27.205  27.182  27.786  0.0196  0.0441 -0.0224
48878W        W91869   6.592  28.676  28.290 -0.1510 -0.1629  0.2533
48879W        W91870   3.245  18.407   6.120  0.0094  0.0110  0.0270
48880W        W91871  14.150  27.022  22.493 -0.2124 -0.1598 -0.1271
48881W        W91872  34.130   0.539  24.270 -0.0392 -0.3013 -0.0783
48882W        W91873   8.167  33.065  21.491  0.0769  0.1478  0.0397
48883W        W91874   4.078  19.407  24.134 -0.0553 -0.0394 -0.3495
48884W        W91875  31.443  19.302  22.304 -0.1133  0.0612  0.0362
48885W        W91876  13.765  25.234  23.446  0.1251 -0.3590  0.2228
48886W        W91877   9.447  22.081  25.988 -0.0062 -0.2475 -0.0020
48887W        W91878  21.834  29.679   5.835  0.0683  0.1797  0.2556
48888W        W91879  20.660   7.583  13.904 -0.6153  0.4674  0.2437
48889W        W91880   3.311   7.605   0.515 -0.2767  0.1647 -0.0549
48890W        W91881   6.752   8.684  22.470  0.1895  0.2585 -0.0618
48891W        W91882  15.327   1.760  21.956 -0.0377  0.0932 -0.0213
48892W        W91883  28.118  28.066   4.580 -0.1188  0.0366 -0.1296
48893W        W91884  16.428   6.599  26.741 -0.1544 -0.0131  0.1810
48894W        W91885  19.225   8.209  17.040 -0.0634 -0.0984 -0.1146
48895W        W91886   0.590  19.138  21.751 -0.2335 -0.0903  0.0043
48896W        W91887  15.718   5.690  23.247  0.0742 -0.1618 -0.0490
48897W        W91888  34.646  31.313  25.050 -0.0258 -0.4197  0.3111
48898W        W91889   5.237  21.545  25.351  0.3054 -0.1032 -0.0514
48899W        W91890   9.066  31.437   5.351 -0.1676 -0.1390  0.2491
48900W        W91891  25.381  28.356  28.901 -0.4129  0.0648  0.3213
48901W        W91892  34.702  30.313   5.433  0.1623  0.1817 -0.1127
48902W        W91893   8.861   0.256   8.151 -0.1307 -0.3689  0.0418
48903W        W91894   5.300  27.587   8.929 -0.3555  0.2298 -0.1568
48904W        W91895   5.487  22.873  20.065  0.2924  0.0504  0.0566
48905W        W91896   6.360  27.174   9.169  0.2250 -0.2136  0.0121
48906W        W91897  23.138  26.585  15.619 -0.0650  0.3865 -0.3949
48907W        W91898  28.806  15.302  18.760 -0.0333  0.2008  0.1738
48908W        W91899  16.449  27.053  15.825 -0.3344  0.3002  0.2692
48909W        W91900  29.928  25.884   1.168  0.0366  0.0559 -0.0285
48910W        W91901   2.109  23.550   5.535  0.1188 -0.2880 -0.2076
48911W        W91902   7.362  16.005   4.527  0.0226 -0.0880 -0.0835
48912W        W91903   4.270  11.135   3.325  0.2458 -0.3078 -0.2630
48913W        W91904  16.445  33.461  24.816  0.0473  0.0922  0.0636
48914W        W91905   0.967  20.797  23.823 -0.1980 -0.0543  0.0211
48915W        W91906   0.600  21.377  20.971 -0.1349 -0.2598 -0.3284
48916W        W91907  11.200   0.039   9.516  0.2572  0.2027  0.0531
48917W        W91908  26.254   6.651   6.333 -0.1204 -0.0461 -0.0143
48918W        W91909   8.762  21.166  26.225 -0.0047 -0.2385 -0.3344
48919W        W91910  29.816  22.036   1.983 -0.1856  0.2753  0.0445
48920W        W91911   0.135  24.710  21.768 -0.0389  0.0492 -0.0982
48921W        W91912  29.323  32.129   3.506 -0.1291  0.0738  0.0778
48922W        W91913  25.299  10.166  24.500  0.0667  0.1999  0.1700
48923W        W91914  28.486  26.924  24.389 -0.1236  0.0552 -0.2662
48924W        W91915  10.399  19.300   0.357 -0.1295  0.1978 -0.1044
48925W        W91916  13.036  22.349  23.210 -0.2261  0.1476 -0.3311
48926W        W91917  13.194  24.714  21.731 -0.0959 -0.0481  0.2855
48927W        W91918   9.968  31.570   6.378 -0.2723 -0.0946 -0.2350
48928W        W91919  14.550  26.660   0.654 -0.1705 -0.1045  0.0698
48929W        W91920   3.607  28.298  27.471  0.2110  0.0570 -0.3423
48930W        W91921  16.669  25.527  20.722  0.1325 -0.0869  0.3134
48931W        W91922   2.750   0.776  21.620 -0.0149  0.0928  0.0264
48932W        W91923  22.398  10.956   0.134 -0.0868 -0.2119 -0.0800
48933W        W91924  27.315  19.338  16.459  0.1015  0.2656  0.0884
48934W        W91925   8.820  13.492  28.131 -0.0066 -0.1961 -0.1480
48935W        W91926  31.499  16.060  27.360  0.0990  0.1546 -0.1473
48936W        W91927  15.644  11.631  14.966  0.0180 -0.0829  0.1125
48937W        W91928   6.943  11.935   9.243 -0.3330  0.1325  0.0081
48938W        W91929   0.066  21.264   8.441 -0.1791 -0.2512  0.2518
48939W        W91930   6.406  23.006  26.455  0.1261 -0.2377 -0.0171
48940W        W91931   5.392  30.997   7.197  0.2146 -0.0677  0.2493
48941W        W91932  33.487  22.402  22.509 -0.1788 -0.2677 -0.1329
48942W        W91933   2.813  23.420  26.620 -0.1337  0.0053  0.1477
48943W        W91934   4.391  32.370  15.765 -0.3104 -0.1100  0.0291
48944W        W91935  23.532  28.139  18.162 -0.3125 -0.2145 -0.0727
48945W        W91936   5.136  32.901   3.863 -0.0973  0.1977 -0.1648
48946W        W91937  33.304  28.742  25.650 -0.2407  0.0327 -0.0046
48947W        W91938  16.791  14.457  23.242 -0.1844  0.1710  0.2530
48948W        W91939  33.594  26.693   3.522  0.0961  0.1163  0.0804
48949W        W91940  20.007   4.960  28.652 -0.1853 -0.1842  0.2276
48950W        W91941   7.716  16.689  15.892  0.1647  0.1232  0.1444
48951W        W91942  11.999  23.965   9.100  0.0755  0.0778  0.1805
48952W        W91943  22.996  26.109  25.860 -0.2460 -0.3447  0.1420
48953W        W91944  34.594  28.899  15.339  0.0596  0.0515  0.0022
48954W        W91945  14.500  31.664   0.746  0.3846 -0.6197 -0.3311
48955W        W91946  13.548  30.441  26.657 -0.2032 -0.0658 -0.1606
48956W        W91947  23.776  27.613  15.126  0.0561  0.4052  0.2750
48957W        W91948   7.306  26.428  14.632 -0.4167 -0.0171 -0.1377
48958W        W91949  20.190  27.124  15.375 -0.1213  0.1938 -0.2125
48959W        W91950   8.754  22.679   6.808 -0.2278 -0.0839 -0.0026
48960W        W91951  17.952  26.969  28.945  0.2309  0.0305  0.1118
48961W        W91952  23.098  31.126   1.409  0.1734 -0.2129 -0.0185
48962W        W91953  10.136  33.408  16.135 -0.2922  0.0008 -0.1426
48963W        W91954   1.072  27.269  20.653  0.0439  0.0961 -0.2277
48964W        W91955  24.306  28.236  20.312 -0.0539  0.0834 -0.2759
48965W        W91956  17.716  22.644   2.881 -0.6028  0.1861 -0.0936
48966W        W91957  13.920  18.633  12.289  0.0096 -0.1585  0.2965
48967W        W91958   4.026  21.701  18.930  0.3253 -0.1794 -0.2571
48968W        W91959   3.602  20.083   1.476 -0.3973  0.0093  0.1202
48969W        W91960  15.116  16.157   4.823  0.2479 -0.1946  0.4452
48970W        W91961  25.537   5.285   0.360 -0.0070  0.0473  0.4651
48971W        W91962  19.223  23.880   5.513  0.1403 -0.0206  0.0854
48972W        W91963  28.900  34.598  23.060 -0.0690  0.1877  0.1619
48973W        W91964   6.053  22.980  21.664  0.2198  0.1906  0.0584
48974W        W91965  19.862  27.864  27.710 -0.1010 -0.0760  0.0912
48975W        W91966  23.108   1.472   6.946 -0.0637 -0.1702  0.3308
48976W        W91967   9.772  32.295   3.283  0.1199  0.0827 -0.3154
48977W        W91968   7.310   5.024   4.075  0.3648  0.0486 -0.1620
48978W        W91969   7.221  15.736  18.752 -0.1271  0.0990 -0.0748
48979W        W91970   2.704  20.102  26.135  0.1099 -0.2426 -0.2696
48980W        W91971   9.414  23.464   0.552 -0.0365  0.1516  0.0967
48981W        W91972  11.159   4.491  25.454 -0.0116  0.2329 -0.1228
48982W        W91973   4.099  30.958  16.836  0.1663  0.1813  0.1511
48983W        W91974   9.106  15.390   2.335 -0.2849 -0.3321  0.1491
48984W        W91975  24.466  15.906   0.130 -0.0552 -0.0593 -0.3477
48985W        W91976   9.674  30.870   9.079 -0.0963  0.0595  0.2025
48986W        W91977  10.460  28.613  25.358 -0.0393  0.3435  0.1141
48987W        W91978  16.522  23.884   6.622 -0.0179 -0.2047 -0.3223
48988W        W91979  10.307  31.584  23.569  0.2016 -0.2302 -0.1411
48989W        W91980   3.492  31.181   7.043  0.1001 -0.4659 -0.3690
48990W        W91981   7.838   8.516  23.432  0.1140 -0.1985  0.0187
48991W        W91982  10.402  11.736   9.152 -0.0486  0.0276  0.2279
48992W        W91983  20.880  34.123   3.240  0.0040 -0.3425  0.2133
48993W        W91984  34.527  12.407   4.210  0.0468  0.1510  0.1250
48994W        W91985   9.921   1.991   1.275  0.0569  0.0381  0.0565
48995W        W91986  32.515   1.188  14.105 -0.0314  0.0071 -0.3636
48996W        W91987  32.746  16.528   1.182 -0.0010  0.2352 -0.1301
48997W        W91988  14.636  12.505  15.946  0.0851  0.0935  0.7106
48998W        W91989  33.421   7.044  26.509 -0.1634 -0.1049 -0.0594
48999W        W91990   7.310   9.893  10.059  0.1700 -0.0124  0.0638
49000W        W91991  18.071  24.235  20.304  0.2337 -0.0611 -0.0401
49001W        W91992  29.027  23.854  22.353  0.1003  0.0453 -0.2116
49002W        W91993  21.700  27.153  28.081 -0.1447 -0.0450  0.2534
49003W        W91994   7.967  20.094  17.801  0.1568 -0.3012 -0.3310
49004W        W91995  34.770  20.055  22.086 -0.0301 -0.1168  0.1812
49005W        W91996   3.970  25.433  25.144  0.0839 -0.0612  0.1607
49006W        W91997   0.686  26.856   5.168  0.0451 -0.1167 -0.0378
49007W        W91998  14.434  28.590   0.986  0.0979 -0.1657  0.4712
49008W        W91999   1.289  12.214  27.993  0.1065  0.1683  0.0055
49009W        W92000  13.740  30.497   2.686 -0.2476 -0.0672 -0.2406
49010W        W92001  34.202  30.034  18.043 -0.1391 -0.3928 -0.0973
49011W        W92002   8.132  24.639   4.406 -0.0951  0.0417 -0.1247
49012W        W92003  16.148  21.835   7.513 -0.3001  0.2857 -0.1057
49013W        W92004  21.273  23.268  22.308 -0.0977 -0.0767  0.0282
49014W        W92005  27.750  32.234  14.851  0.0057 -0.0280 -0.2117
49015W        W92006  15.819  17.351   0.399  0.2774 -0.1132  0.2335
49016W        W92007  25.820  30.100   3.914 -0.5105 -0.4340  0.1798
49017W        W92008   9.275  32.744  17.981 -0.1284 -0.2750 -0.2229
49018W        W92009  33.409   8.404  24.319 -0.2099  0.4268 -0.0838
49019W        W92010   5.859   9.801  25.050 -0.3299 -0.0304  0.1324
49020W        W92011   3.644   0.865   9.296  0.0044 -0.2394 -0.0808
49021W        W92012   5.713  18.697  22.139 -0.0399 -0.1026  0.0615
49022W        W92013  31.796  29.015   4.587  0.0155  0.0897 -0.2015
49023W        W92014   5.438  33.510   8.948  0.0581 -0.1463  0.2672
49024W        W92015  16.839  29.414   0.874 -0.1336 -0.0038 -0.0559
49025W        W92016  14.562  18.807   4.995  0.1460 -0.1254  0.0090
49026W        W92017   7.508  30.495  10.101 -0.1795  0.1132  0.1193
49027W        W92018  16.295  30.954   2.772 -0.1600 -0.2232 -0.1274
49028W        W92019   1.023  17.943  24.577  0.1068 -0.1302 -0.0696
49029W        W92020  19.102  23.611  15.515  0.0608  0.2592 -0.0544
49030W        W92021  14.844  28.978  25.035 -0.0931  0.3627  0.1433
49031W        W92022  15.550  23.392  18.340 -0.2190  0.2130 -0.0331
49032W        W92023  18.453   0.789  17.915  0.1084  0.0614 -0.0659
49033W        W92024   1.857  30.417  19.552 -0.1882  0.0442 -0.2199
49034W        W92025  12.550  24.567  28.591  0.1556 -0.0095  0.1806
49035W        W92026   9.552   0.269  18.838  0.1818 -0.2177 -0.4094
49036W        W92027   6.470  29.787  26.776  0.2330  0.1237  0.2603
49037W        W92028  21.533   2.351  26.535  0.0315  0.3605  0.2591
49038W        W92029  28.217  32.707  28.328 -0.1452 -0.1158 -0.0062
49039W        W92030   7.314  23.704  18.637 -0.0359  0.0144  0.1932
49040W        W92031  16.237  16.228  29.150  0.1578 -0.0125 -0.1477
49041W        W92032   8.967  30.785  25.563 -0.1735  0.1573 -0.1744
49042W        W92033  11.981  34.197  17.542 -0.2069  0.0040 -0.0554
49043W        W92034   1.994  17.631  21.408  0.1540  0.0096  0.2340
49044W        W92035  27.791  33.785   2.040  0.3318  0.3184 -0.1113
49045W        W92036  27.089   1.245  13.360  0.0136  0.0289  0.2578
49046W        W92037  22.728  24.144  16.900 -0.1194  0.0001 -0.4706
49047W        W92038  10.140   3.856  28.504 -0.0111 -0.1787 -0.1042
49048W        W92039  12.907  27.702  16.252 -0.1261  0.0133 -0.1157
49049W        W92040   2.363  18.548   6.425 -0.2121  0.0713 -0.0651
49050W        W92041  12.725  25.625  14.437  0.3085  0.3313 -0.1443
49051W        W92042  10.511  27.728  16.602  0.1548 -0.1973 -0.1597
49052W        W92043   8.702  25.776  16.137  0.0515 -0.0526  0.1522
49053W        W92044  17.629  29.568  16.346  0.3084  0.0899 -0.0825
49054W        W92045   8.864  28.821  24.136 -0.0262  0.1596  0.1103
49055W        W92046  20.973  27.014  17.591  0.2018  0.0128  0.0874
49056W        W92047  12.356  20.388  16.625  0.1167  0.2278 -0.2879
49057W        W92048  32.740  11.580  20.861 -0.0325  0.3734 -0.0676
49058W        W92049  13.429   2.845  22.979 -0.1668  0.1907 -0.3360
49059W        W92050  23.495  28.450  28.498  0.0561 -0.0360  0.0543
49060W        W92051  12.733  28.095  15.222 -0.1653  0.2242  0.4526
49061W        W92052  31.020  31.548  26.237 -0.1019 -0.0017  0.3272
49062W        W92053  33.074  19.986  19.433  0.1704 -0.7450  0.1612
49063W        W92054  31.293  31.092  16.410  0.1675  0.2509  0.0560
49064W        W92055   4.380  10.860   8.474 -0.1321  0.5432 -0.1321
49065W        W92056  12.912   0.879  28.353  0.0793  0.0740  0.3797
49066W        W92057  15.678   2.170   2.129  0.0635  0.0179  0.1213
49067W        W92058   0.072  11.055  18.528  0.0761 -0.2522 -0.0478
49068W        W92059  21.026  32.383  21.391  0.0625  0.3008 -0.0464
49069W        W92060   9.876  29.212  15.465  0.2794  0.0246 -0.2349
49070W        W92061   7.388  22.951  18.091  0.0074 -0.1967 -0.1906
49071W        W92062   2.154   2.088  19.637 -0.1099 -0.1910 -0.2402
49072W        W92063  23.088  25.574  20.653  0.1319  0.0367  0.1551
49073W        W92064  19.438  22.212  15.512  0.2766 -0.2839  0.2467
49074W        W92065   8.190  19.288  19.624 -0.0016  0.1371 -0.3480
49075W        W92066   0.563  30.898  19.527  0.2115 -0.3110  0.2075
49076W        W92067   7.487  23.606  16.058 -0.3400 -0.0752  0.0505
49077W        W92068  33.681  25.389  21.373  0.0567  0.0443 -0.1631
49078W        W92069   7.188   3.204  19.025  0.1449 -0.1005 -0.3081
49079W        W92070  23.887  10.586  22.854  0.4284 -0.0252  0.2462
49080W        W92071   3.069  34.690  22.609  0.2502 -0.0597  0.0136
49081W        W92072  19.008   6.352  16.814  0.1588  0.2359 -0.3523
49082W        W92073   8.666   2.888  20.537 -0.0890  0.1778  0.0997
49083W        W92074  27.188  12.085  23.801 -0.2009 -0.1118  0.2028
49084W        W92075  34.209  33.759  18.746  0.0814 -0.0241 -0.0656
49085W        W92076   6.649  33.159  25.020 -0.0632  0.3739 -0.0116
49086W        W92077  32.810   5.951  24.665  0.3083  0.1733 -0.1041
49087W        W92078  18.252  26.288  14.541 -0.1216 -0.1111  0.0756
49088W        W92079  14.588   6.353  17.048 -0.1324  0.0226 -0.0291
49089W        W92080   9.035  31.938  14.629  0.2017  0.1419  0.1374
49090W        W92081   6.108   2.679  20.098  0.2438  0.0218  0.0152
49091W        W92082   5.738  22.619  15.455 -0.1623 -0.1544  0.0966
49092W        W92083   5.039   5.692   4.813 -0.4354  0.0242 -0.0642
49093W        W92084  10.990  24.493  15.515  0.2549 -0.3354  0.0170
49094W        W92085  10.830  34.319  23.731 -0.2349 -0.1261 -0.0279
49095W        W92086   5.568  26.941  18.239  0.0202  0.2010  0.2549
49096W        W92087   5.247   5.433  26.870  0.1049 -0.4132 -0.1925
49097W        W92088  29.294   5.030  17.088 -0.0199 -0.3222  0.1373
49098W        W92089  11.798   2.104  16.636  0.3692 -0.0624  0.1777
49099W        W92090   6.891  30.270  24.357 -0.2171  0.0832  0.0604
49100W        W92091   8.123   8.410   2.924 -0.0999  0.0420  0.1644
49101W        W92092  23.256  28.571  23.294 -0.2188  0.1986  0.0614
49102W        W92093  11.662  34.257   3.219  0.2228 -0.1650  0.2363
49103W        W92094   8.994  29.552  21.352  0.0165 -0.0763 -0.1494
49104W        W92095   3.318   0.902  17.007  0.2001 -0.0925  0.1429
49105W        W92096   7.177  27.574  14.671  0.1316  0.0361 -0.0379
49106W        W92097  14.205   6.024   1.648  0.5761 -0.2690 -0.0719
49107W        W92098  23.944  17.330  17.548 -0.1055  0.1056 -0.4114
49108W        W92099  32.851   3.824  19.211 -0.0300 -0.0553 -0.0595
49109W        W92100   4.040  26.783  23.333 -0.0393  0.1590 -0.3312
49110W        W92101   2.930  32.129  24.761 -0.0560  0.2128 -0.0658
49111W        W92102  14.353   5.056  22.947 -0.2693 -0.1331  0.0597
49112W        W92103  13.831  22.991  27.049  0.0167 -0.1046  0.1369
49113W        W92104   9.348  24.404  18.696 -0.1194  0.0079 -0.3248
49114W        W92105  23.346  10.100   4.740 -0.0288 -0.1979 -0.0295
49115W        W92106  31.130  34.034  18.835 -0.2630  0.2349  0.0688
49116W        W92107  17.822  31.591  18.131 -0.0757 -0.0259 -0.1435
49117W        W92108  28.715  30.038  19.682  0.1252  0.0872  0.2616
49118W        W92109  26.320  34.358  18.386  0.2435 -0.1911 -0.1595
49119W        W92110  14.605   0.998  29.031 -0.1192 -0.1334  0.1553
49120W        W92111  20.968  25.861  16.855  0.0541  0.0168 -0.0415
49121W        W92112   7.314  24.419  15.558  0.1354 -0.2382 -0.0374
49122W        W92113   8.333  14.741  28.485  0.3000  0.0402  0.2214
49123W        W92114   9.335  19.275  27.089 -0.3673  0.0268  0.0130
49124W        W92115  20.330   7.762   2.535  0.0249 -0.1959 -0.1892
49125W        W92116   7.865  27.025  17.975  0.2127  0.0304  0.1161
49126W        W92117   3.241  33.916  22.547 -0.1558  0.0589  0.0235
49127W        W92118  13.671   6.276  10.608  0.0547 -0.0138  0.2308
49128W        W92119  30.231  25.128  23.706 -0.3613  0.1539 -0.2710
49129W        W92120  34.068  10.877   7.797  0.3576 -0.1815  0.0689
49130W        W92121  14.233  26.809  14.052 -0.0020 -0.0161  0.1562
49131W        W92122  14.059   5.205  17.527  0.0417 -0.1615 -0.2481
49132W        W92123   8.252  14.237  28.974 -0.1909 -0.1114  0.2039
49133W        W92124  11.080  30.338  22.464 -0.0299  0.0030  0.5631
49134W        W92125  31.672  23.906  17.800 -0.1190  0.2665 -0.1612
49135W        W92126  29.307  32.307  15.028  0.0204  0.3425  0.1322
49136W        W92127  17.737  22.330  20.158 -0.0237 -0.0207 -0.1628
49137W        W92128   8.693  30.052  23.132  0.1462 -0.0469  0.0536
49138W        W92129  30.868  18.558  15.842 -0.4151 -0.2292 -0.0320
49139W        W92130   1.766  31.019  23.867 -0.3127  0.1392  0.3029
49140W        W92131   7.809  21.735  15.824  0.0526 -0.0737 -0.2406
49141W        W92132  22.838  22.731  14.001 -0.1934  0.1997  0.0154
49142W        W92133   3.667  31.512  17.337  0.2655  0.1256  0.1540
49143W        W92134  14.287  33.828  27.502 -0.1817 -0.2984 -0.0312
49144W        W92135  22.454  26.811  23.376  0.4290 -0.0217 -0.4669
49145W        W92136  28.013  27.025  19.896 -0.0366  0.0891  0.2329
49146W        W92137   3.463  16.248  22.814 -0.0471 -0.0650 -0.0560
49147W        W92138   6.402  27.151  24.040  0.1748 -0.2287 -0.3031
49148W        W92139   6.619  34.154   0.681  0.0663 -0.0464 -0.0142
49149W        W92140   9.477  33.784   2.759 -0.2156  0.1530  0.2732
49150W        W92141  17.990  22.881  17.825 -0.1888  0.3030  0.0531
49151W        W92142  14.352   2.220  26.624 -0.2532 -0.1019 -0.6261
49152W        W92143  11.175  10.678  27.038 -0.0241  0.0302 -0.0553
49153W        W92144   9.837  29.155  16.428  0.1517 -0.1017 -0.1597
49154W        W92145  12.997  32.345   0.864 -0.0722  0.1019 -0.0644
49155W        W92146   3.815  16.144  21.452  0.3688  0.0975 -0.1551
49156W        W92147  12.370  34.437  24.712  0.0628  0.2077  0.0187
49157W        W92148   9.889  28.361  19.847  0.0241 -0.1805  0.2386
49158W        W92149  15.413  30.777  18.780  0.0847 -0.3102 -0.0852
49159W        W92150  16.875  31.090   0.607 -0.2682  0.1410  0.1777
49160W        W92151  13.030  15.042  14.803  0.0869  0.1977  0.2635
49161W        W92152   6.192  26.414  16.101 -0.2148  0.0422 -0.0405
49162W        W92153  28.090  15.905  18.439 -0.1183 -0.2648 -0.1402
49163W        W92154  13.552  31.982  20.303 -0.0770 -0.1485 -0.3521
49164W        W92155  21.785  24.849  22.295  0.0577 -0.1241 -0.0382
49165W        W92156   6.960  34.411  23.836 -0.0224  0.0714 -0.0950
49166W        W92157  12.167   6.763  18.802  0.0726 -0.3126  0.0094
49167W        W92158   7.005  26.558  19.823 -0.0737  0.0172 -0.0968
49168W        W92159   9.922  27.024  17.764 -0.4629 -0.1884  0.1419
49169W        W92160  15.727  29.644  17.942 -0.1080  0.2209 -0.0664
49170W        W92161  31.199   5.009   1.678 -0.2396 -0.5633 -0.2863
49171W        W92162   2.600  24.148   6.112 -0.2429  0.1085 -0.1507
49172W        W92163  13.407   6.753  16.239 -0.2186 -0.3781  0.0806
49173W        W92164   6.407  30.882  17.921  0.1682 -0.0983 -0.0773
49174W        W92165  17.170   1.242  27.785  0.1746  0.0596  0.0076
49175W        W92166  28.183  13.530  28.838  0.0337  0.1235 -0.0039
49176W        W92167   6.236   9.736  15.984  0.1195 -0.0392  0.0265
49177W        W92168  28.029  31.412  24.780  0.0761 -0.1813  0.4100
49178W        W92169   4.156   1.093  24.538  0.2980  0.0813  0.0565
49179W        W92170   6.050  29.997  20.773  0.5329  0.2396 -0.0671
49180W        W92171   2.501  29.633  18.918 -0.0029 -0.1384 -0.0526
49181W        W92172   4.641   8.912  25.918  0.0527 -0.0671  0.0877
49182W        W92173   2.144  29.298  21.781  0.3157  0.0841  0.1884
49183W        W92174   1.154  22.189  20.854  0.0711  0.4595 -0.0487
49184W        W92175   2.703  11.448  25.509 -0.4272 -0.1594  0.2819
49185W        W92176   8.162  16.913   2.786  0.2010  0.1257  0.2207
49186W        W92177  21.510  34.505  22.173 -0.2132 -0.1419 -0.2088
49187W        W92178  34.527  24.688  14.529 -0.1012  0.2274 -0.2305
49188W        W92179  29.271  22.783  27.311 -0.1713  0.2866 -0.0795
49189W        W92180  12.230   2.713  23.130  0.0788 -0.1414  0.1154
49190W        W92181  14.364   3.209  18.786 -0.3051  0.1306  0.1641
49191W        W92182  20.682   4.092  25.134 -0.2306  0.0061  0.3410
49192W        W92183  34.236  28.790  25.839  0.0706 -0.1771 -0.1450
49193W        W92184   8.068  13.271  19.789  0.3886 -0.1656 -0.1220
49194W        W92185  13.582  29.271  25.575  0.3509 -0.1520 -0.0232
49195W        W92186  20.069  11.077  18.885 -0.1418 -0.0014  0.0282
49196W        W92187  26.691  32.869  20.666  0.1081  0.3686 -0.1864
49197W        W92188   9.869   7.832  22.955  0.3117  0.1387  0.0826
49198W        W92189   7.151  30.949  13.813  0.0876 -0.3067  0.1325
49199W        W92190   9.507   2.301  20.316 -0.1931  0.3990  0.3314
49200W        W92191   0.005  33.864  17.534  0.2495 -0.1199 -0.0283
49201W        W92192   2.305  29.913  15.003  0.0998  0.3065 -0.1517
49202W        W92193  10.363  23.907  17.293 -0.1538 -0.1445 -0.2095
49203W        W92194  17.327  29.572  14.017 -0.1927 -0.0608 -0.2060
49204W        W92195  30.241  13.455  25.440 -0.0410 -0.0165  0.1133
49205W        W92196   5.288  34.220  17.635 -0.1914 -0.0593 -0.0726
49206W        W92197  33.063  27.259  17.957  0.2504 -0.0760 -0.0423
49207W        W92198  17.551  24.667  26.678  0.1718 -0.1094 -0.2236
49208W        W92199  11.200  24.374  16.333 -0.3152 -0.1219 -0.1831
49209W        W92200   9.611  18.826  19.046 -0.2293 -0.1259  0.1299
49210W        W92201  18.396   0.277   0.312 -0.0904 -0.0477  0.2669
49211W        W92202   6.989   3.663  20.298  0.2516  0.1482  0.0641
49212W        W92203   8.268   7.002  25.035 -0.1695  0.3325  0.1804
49213W        W92204   2.463  33.331  25.209 -0.2704  0.1980  0.0881
49214W        W92205  20.093  10.785  22.257  0.1966  0.0303  0.1737
49215W        W92206  16.961   6.917  17.777  0.0709 -0.0779  0.2493
49216W        W92207  20.880  34.155  20.913 -0.0629  0.0773  0.0708
49217W        W92208  12.925   8.693  16.459  0.4929  0.0515 -0.1782
49218W        W92209  15.194  33.184  14.828  0.2250 -0.1399 -0.4450
49219W        W92210   2.556   2.611  21.479 -0.1666 -0.4845  0.0553
49220W        W92211   9.350  29.259  22.096  0.0711  0.4614 -0.0035
49221W        W92212  32.295   3.834  20.936  0.1254 -0.0908 -0.0576
49222W        W92213  33.938   5.699  15.508  0.4668  0.0498 -0.2104
49223W        W92214  32.968   4.325  28.449 -0.0853 -0.1942 -0.2224
49224W        W92215   2.954  33.226  23.797  0.1412  0.0579  0.0230
49225W        W92216  30.850  33.991  20.569 -0.0830 -0.1700 -0.0135
49226W        W92217   6.931  19.260  15.344 -0.1416  0.1336 -0.1374
49227W        W92218   4.336  13.111   1.247  0.0706  0.1527  0.1179
49228W        W92219  32.931  22.523  22.374 -0.2183  0.0897  0.2922
49229W        W92220  10.847  23.733  19.766 -0.0154  0.0484  0.1301
49230W        W92221  22.356   0.622  13.651  0.1726  0.1994  0.3145
49231W        W92222   4.313  28.853  25.872 -0.1957 -0.1293  0.0288
49232W        W92223   7.806  23.044  17.580 -0.0304 -0.0195 -0.2613
49233W        W92224   6.167  21.198  17.350 -0.1863 -0.0822  0.0001
49234W        W92225  31.306  25.631  19.568 -0.0789  0.0802 -0.2951
49235W        W92226   3.475  32.381  21.500  0.2923  0.2328  0.0262
49236W        W92227   6.873   2.414  22.342  0.0830  0.3871  0.2329
49237W        W92228   8.362  22.491  21.380 -0.0212  0.2162 -0.1459
49238W        W92229   1.899  20.906  22.267 -0.2178  0.1673 -0.3250
49239W        W92230  14.247  19.614  27.164  0.2351  0.2676  0.1293
49240W        W92231   6.166  29.605  21.614 -0.1651 -0.0657  0.0111
49241W        W92232  16.912   9.399  22.957  0.0321  0.0742  0.0433
49242W        W92233   6.122  27.405  16.401  0.1075  0.3556  0.0710
49243W        W92234   2.526  33.497  13.749 -0.0209  0.3059  0.3158
49244W        W92235  12.371   1.312  17.708 -0.2124  0.0033 -0.0910
49245W        W92236   2.902   5.030  25.478 -0.2058  0.0414  0.0619
49246W        W92237   8.534   1.452  24.741 -0.0858  0.0919 -0.0537
49247W        W92238   0.890  29.374  24.678 -0.0799  0.2777 -0.3333
49248W        W92239  13.977  32.967  25.478  0.4053 -0.1939  0.0490
49249W        W92240   2.976  31.850  25.153  0.0573 -0.1926  0.3432
49250W        W92241  32.584  24.460  21.868 -0.0586 -0.0149 -0.3719
49251W        W92242  33.872  12.277  28.904  0.3675  0.1897 -0.4094
49252W        W92243  12.851  30.941  27.244 -0.0968 -0.1353 -0.6454
49253W        W92244   9.965  27.795  21.062  0.1967 -0.3213  0.0457
49254W        W92245  34.500  32.599  16.921  0.1203 -0.1678 -0.1002
49255W        W92246  21.371   7.234  24.054 -0.2412  0.0609  0.4439
49256W        W92247  14.093  18.447  25.488 -0.1237 -0.1515 -0.0293
49257W        W92248  24.655   1.914  20.913  0.3196 -0.3502  0.0960
49258W        W92249  14.547  33.215  17.866  0.0999  0.0445 -0.0410
49259W        W92250  29.676  27.191  25.214  0.0165 -0.0038  0.0718
49260W        W92251   6.252   3.554  23.582  0.1010  0.4300 -0.1181
49261W        W92252  22.707  26.546  22.927 -0.2355 -0.2423  0.0576
49262W        W92253  19.628   1.939  25.501 -0.0395 -0.2117 -0.1067
49263W        W92254  32.997  27.011  21.820  0.1372 -0.4624  0.1123
49264W        W92255  17.082  20.442   6.355 -0.2349 -0.1405 -0.1079
49265W        W92256   9.659  30.042  24.164  0.3662 -0.0030  0.0642
49266W        W92257   0.273   7.838  26.916 -0.3024  0.0145  0.0123
49267W        W92258  15.004  30.649  17.348 -0.1397 -0.1635 -0.1824
49268W        W92259   8.289   2.888  26.848 -0.0632  0.0334 -0.0426
49269W        W92260  17.191  26.894   4.189  0.0797  0.1129  0.3789
49270W        W92261  25.001  27.357  18.529 -0.0853 -0.1991 -0.3172
49271W        W92262  18.231   3.400  28.817 -0.1679 -0.0127  0.2400
49272W        W92263  30.301   7.504  15.194  0.2054  0.0072 -0.0958
49273W        W92264  13.267   1.742  23.774  0.4538  0.1470  0.0721
49274W        W92265  10.016  28.700  15.691 -0.3173 -0.1707  0.2845
49275W        W92266   1.087   1.036  19.141 -0.2305 -0.1572  0.4107
49276W        W92267  13.118  29.382  22.389  0.1710  0.0718  0.1092
49277W        W92268  18.511  27.714  22.650 -0.0709 -0.2591  0.1323
49278W        W92269  24.224   3.887  21.002  0.1126  0.0323 -0.2399
49279W        W92270  10.590   9.695  25.069  0.0525  0.1112  0.0879
49280W        W92271  17.224  32.015  26.269  0.4265 -0.0150  0.0362
49281W        W92272   6.492  25.708   4.479 -0.2635  0.0649  0.1576
49282W        W92273   1.946   5.635  22.511  0.0052  0.1997 -0.1320
49283W        W92274   8.086  30.207  26.820  0.3022 -0.3410 -0.1715
49284W        W92275   6.089  29.243  18.873  0.0262 -0.0147  0.0855
49285W        W92276   4.076  32.000  25.997  0.0627  0.2402 -0.2310
49286W        W92277  26.203   1.667  20.794  0.1606  0.1726  0.1737
49287W        W92278   1.088  30.133  19.143 -0.2314  0.1875 -0.0226
49288W        W92279  33.482   1.967  14.662  0.0793  0.2538  0.0874
49289W        W92280   3.000  24.362   5.218 -0.0826  0.2899 -0.1361
49290W        W92281  13.819  23.438  24.030  0.0477 -0.0223 -0.0223
49291W        W92282  16.816  24.519  18.487  0.1082 -0.0473 -0.1339
49292W        W92283  11.888  22.899  17.870  0.0204  0.0912 -0.3125
49293W        W92284  13.303   2.731  20.156  0.0309  0.3553 -0.0253
49294W        W92285  27.934  19.977  17.244  0.2591  0.1153  0.2367
49295W        W92286   9.961  28.132  17.173 -0.0316 -0.0281  0.2233
49296W        W92287  30.245  12.986  16.793  0.1023 -0.1677 -0.2240
49297W        W92288  14.342   1.437  19.907 -0.0444 -0.1384  0.1029
49298W        W92289  15.427   7.926  16.576 -0.1732 -0.0381 -0.2803
49299W        W92290   0.257   2.833  17.200  0.2862 -0.1127 -0.2533
49300W        W92291  32.275  24.825  21.685 -0.1338 -0.3766 -0.0864
49301W        W92292   6.557  16.442  17.251 -0.0067  0.0845  0.1908
49302W        W92293   0.608  25.354  22.341  0.1291  0.1901 -0.2262
49303W        W92294   2.190   4.869   1.097 -0.0288 -0.3043 -0.1153
49304W        W92295  30.343  27.052  14.274 -0.1576 -0.1804  0.1505
49305W        W92296   8.456  33.259  13.949 -0.1968  0.1142  0.1880
49306W        W92297  23.097   0.811  28.561 -0.1081 -0.1204  0.3870
49307W        W92298  17.151  26.341  13.253 -0.1129  0.2982 -0.0383
49308W        W92299  11.635  30.567  15.699 -0.0581  0.1162 -0.0891
49309W        W92300   3.113  16.605  25.881 -0.0991 -0.1933 -0.0393
49310W        W92301  12.042  10.801  26.082  0.0443 -0.2662 -0.1698
49311W        W92302  25.635   8.087  23.615 -0.0035  0.1131  0.0059
49312W        W92303  19.434  28.914  23.042 -0.0711  0.0599  0.0680
49313W        W92304   7.809  21.580  23.168 -0.1443  0.0693  0.0430
49314W        W92305   6.629  11.069  16.615  0.0694  0.2026  0.0901
49315W        W92306  13.720  28.697   0.117 -0.0392  0.2006 -0.1694
49316W        W92307   6.303  29.912  21.177 -0.0071  0.1369 -0.0996
49317W        W92308   7.645  12.606  18.730 -0.2236 -0.1855  0.2580
49318W        W92309   6.646  28.413  17.430 -0.0270 -0.1613  0.4275
49319W        W92310  33.114  33.820  19.608  0.4406  0.0796  0.0976
49320W        W92311   8.988   7.018  17.607  0.1556 -0.0780  0.1250
49321W        W92312  13.558   5.930  17.007  0.1172  0.2883  0.0521
49322W        W92313  16.272  33.543  14.424 -0.3839 -0.3476 -0.1805
49323W        W92314  12.545  19.303  24.745 -0.0281  0.2033 -0.0711
49324W        W92315  13.005  31.217  17.848 -0.1958  0.1072 -0.0154
49325W        W92316  24.727   1.625  17.794 -0.0553  0.1446  0.1207
49326W        W92317  13.449   6.619  21.670  0.2748 -0.2686  0.2857
49327W        W92318   9.386   0.455   2.339 -0.0545 -0.5755 -0.0513
49328W        W92319  23.596   8.306  19.976  0.1960  0.2075  0.1084
49329W        W92320  21.627  21.518  13.625  0.3571  0.1095 -0.1611
49330W        W92321   9.545  14.635  23.766  0.1217 -0.0591 -0.2404
49331W        W92322  13.164  19.047  14.229  0.1297  0.0365 -0.3985
49332W        W92323   6.464  17.959   8.621 -0.0992 -0.1011  0.0502
49333W        W92324   4.878   5.005  18.377 -0.0474  0.2234  0.1274
49334W        W92325   4.523  24.297  16.998 -0.3438 -0.0871 -0.0320
49335W        W92326  28.045   1.296  26.457  0.1033 -0.1181  0.0402
49336W        W92327  15.081   1.372  14.905  0.0574  0.0266  0.2621
49337W        W92328   9.538   5.727  18.133 -0.0252 -0.1361 -0.1799
49338W        W92329  32.863   2.874  17.563 -0.2528  0.3095 -0.1186
49339W        W92330   5.460   8.225  21.364  0.1976 -0.1121  0.1506
49340W        W92331   4.026  32.860  14.050  0.2725  0.0796 -0.0312
49341W        W92332  16.586  33.355  19.368  0.1864  0.2874 -0.3764
49342W        W92333  11.681  27.577  19.479 -0.1423  0.2220 -0.0117
49343W        W92334  24.167   1.407   2.368  0.0782 -0.2250  0.0527
49344W        W92335  19.108   4.685   0.008  0.0739  0.3231 -0.1588
49345W        W92336   7.234   1.238  28.691 -0.0438 -0.3196 -0.0819
49346W        W92337  29.674   6.201  14.867  0.1327  0.1275 -0.1733
49347W        W92338   4.684   5.420  24.880 -0.0305  0.2903  0.1095
49348W        W92339   2.399   2.267  21.130  0.0680 -0.0851 -0.2040
49349W        W92340  17.985  32.024  18.364 -0.2775 -0.0337  0.1867
49350W        W92341   7.534  26.654  15.168  0.0035  0.0082  0.1343
49351W        W92342   8.343   5.105  27.631 -0.2836  0.1847  0.1357
49352W        W92343   9.089  10.898  25.496  0.0790  0.0273 -0.3302
49353W        W92344  16.430   3.902  16.787  0.1254  0.1806 -0.3135
49354W        W92345  25.658  30.497  20.179 -0.0827  0.0964  0.1268
49355W        W92346   4.190   1.808   8.145  0.0352 -0.0513 -0.3467
49356W        W92347   7.203  24.588   2.607 -0.3568  0.0542  0.1579
49357W        W92348   2.591  22.997  22.686  0.2357 -0.0337  0.2650
49358W        W92349   5.559  33.303  16.246  0.4677 -0.0084  0.2671
49359W        W92350  11.926  29.121  18.133 -0.0663 -0.1033  0.0058
49360W        W92351  10.653   5.533  23.545 -0.3118 -0.1525 -0.0313
49361W        W92352  28.909  23.199  25.780 -0.3623 -0.0455  0.0439
49362W        W92353  16.720   1.407  15.718  0.1552 -0.0945  0.0057
49363W        W92354  25.884  32.482  18.393  0.1367 -0.0208  0.4528
49364W        W92355  25.006  15.043  18.380 -0.1420 -0.2917 -0.1509
49365W        W92356  28.084  27.158   8.217 -0.2678 -0.1865 -0.0158
49366W        W92357   2.146  24.671  23.878  0.3794  0.1516 -0.1394
49367W        W92358  12.573  31.140   5.056 -0.1039 -0.2131  0.0324
49368W        W92359  33.918  16.780  19.749 -0.1436 -0.3919 -0.2013
49369W        W92360  17.800  13.162  18.190 -0.1988 -0.2401 -0.1267
49370W        W92361  34.038  31.092  27.809 -0.0166  0.3470 -0.2150
49371W        W92362   1.063   8.299  17.279 -0.1827  0.2871  0.0155
49372W        W92363  31.859  11.631  27.177 -0.3059  0.2699  0.0930
49373W        W92364   6.818  32.352  19.578 -0.0265 -0.3978  0.4009
49374W        W92365   3.813  11.962  25.558 -0.0863 -0.4311 -0.1949
49375W        W92366   8.080  29.726  24.133 -0.3330 -0.1680 -0.4357
49376W        W92367   8.642  28.661   0.219  0.0086 -0.2930  0.1488
49377W        W92368  10.726  34.719  17.524  0.1066 -0.1318 -0.0831
49378W        W92369   2.375   3.128  19.309  0.0301  0.0775 -0.1010
49379W        W92370  33.928  11.259   9.136 -0.1297  0.0223  0.0519
49380W        W92371   9.154  23.601   2.803 -0.0070 -0.0149  0.0157
49381W        W92372   2.732  28.186  14.399  0.2640  0.3604  0.1210
49382W        W92373   3.643  25.267  22.885  0.1365  0.0228 -0.3505
49383W        W92374  19.531   1.665  22.737 -0.0658 -0.0642  0.1269
49384W        W92375  14.617   6.282  23.410  0.1329  0.0801  0.0746
49385W        W92376  14.887   2.616  15.324 -0.0347 -0.1271  0.0733
49386W        W92377  10.190  31.016  14.742 -0.1423  0.0595 -0.4198
49387W        W92378  15.057   1.428  25.570 -0.1388 -0.1131  0.1840
49388W        W92379   8.535  25.380  22.239  0.3096 -0.2594  0.2441
49389W        W92380  34.565  23.374  14.704 -0.2885  0.0596  0.1188
49390W        W92381  10.992   3.690  16.688  0.1733  0.3242 -0.0694
49391W        W92382   2.490   9.738   1.765 -0.0649 -0.1046 -0.3130
49392W        W92383   1.170   6.484  24.014 -0.1093  0.2565  0.2142
49393W        W92384   2.710   3.852   5.229 -0.3936  0.1712 -0.3573
49394W        W92385  18.543  24.204  15.278  0.0850 -0.0098  0.1359
49395W        W92386  32.060  34.302  17.195  0.0756  0.1917  0.2093
49396W        W92387   6.014  31.317  15.833  0.1423 -0.0321  0.2743
49397W        W92388  17.315  29.503  19.033  0.0417  0.0408  0.1336
49398W        W92389  18.301  27.324  18.427  0.2175  0.0827  0.2997
49399W        W92390   7.786  23.400  15.650  0.0800 -0.0754 -0.2264
49400W        W92391  32.141   7.543  15.658  0.2248  0.0739  0.0873
49401W        W92392   7.584  28.574  21.887 -0.3788  0.0492 -0.3042
49402W        W92393   7.374  10.982  18.108  0.0671 -0.0103 -0.2248
49403W        W92394  31.678   3.469   0.022 -0.1333  0.2164 -0.0144
49404W        W92395   7.304  30.216  25.891  0.0950 -0.0432 -0.1217
49405W        W92396  29.574  29.945  18.076  0.0859  0.2811 -0.2332
49406W        W92397  19.577  32.225  13.608  0.0626 -0.3205 -0.2889
49407W        W92398  31.475  33.767  19.149  0.0016 -0.1631 -0.4609
49408W        W92399   0.204  27.643   2.641  0.0977  0.0378  0.0541
49409W        W92400   0.573  25.198  16.990 -0.1048  0.3476  0.0703
49410W        W92401  15.233  29.379  25.392 -0.3472 -0.3100  0.0400
49411W        W92402  20.665  23.172  17.241 -0.1294 -0.3238  0.0407
49412W        W92403   6.550  11.818  24.658 -0.0209 -0.1075  0.1041
49413W        W92404   9.923  28.713  20.181 -0.1253 -0.2138  0.0019
49414W        W92405  23.315  26.187  19.937  0.0903  0.1048  0.2402
49415W        W92406   1.593   3.529  28.736 -0.0715 -0.1116 -0.2483
49416W        W92407  12.521  30.435  17.521 -0.2472  0.0861  0.0990
49417W        W92408  29.341  10.362  16.541 -0.1099  0.1759 -0.2586
49418W        W92409  32.106   2.135  27.239  0.4611  0.2167 -0.0060
49419W        W92410   5.146  21.407  22.413  0.3115  0.2942 -0.5226
49420W        W92411  11.069  20.816  18.139  0.1985 -0.1387 -0.3583
49421W        W92412  27.501  34.423  19.876  0.0057 -0.2469 -0.0651
49422W        W92413   3.190   5.895  23.208  0.1425  0.0081  0.1339
49423W        W92414  19.306  23.057  17.188  0.0751 -0.1436  0.1855
49424W        W92415   7.608  34.051  22.252  0.0449 -0.1665 -0.3236
49425W        W92416   9.400   0.123  18.392 -0.0985  0.0481  0.2016
49426W        W92417   3.551   0.583  27.937  0.1327 -0.0047  0.0116
49427W        W92418   7.601   0.915  20.911 -0.0730  0.0591 -0.1606
49428W        W92419   1.655   5.101   4.675 -0.0321  0.1213 -0.3446
49429W        W92420  10.531  33.112  15.347 -0.2094  0.0120 -0.0668
49430W        W92421   6.290   7.888  15.707  0.1249  0.0648 -0.1080
49431W        W92422   1.244  22.697  16.001  0.1055  0.0951  0.0680
49432W        W92423  20.460  27.073  21.599  0.0916 -0.0960  0.1612
49433W        W92424   3.764  30.220  16.324 -0.0358 -0.0688 -0.2793
49434W        W92425   3.486  12.490  23.461 -0.0553  0.3999 -0.2199
49435W        W92426  12.743   5.454   3.572 -0.1650  0.1141 -0.0602
49436W        W92427   7.832   0.970  16.249 -0.1281 -0.1653  0.2562
49437W        W92428  14.968   1.045  15.306  0.1558 -0.0244 -0.2738
49438W        W92429  10.462   0.543  27.026  0.1646 -0.1991 -0.1267
49439W        W92430  25.704  30.609   4.664 -0.0810  0.0515 -0.0114
49440W        W92431  15.000  24.975  15.190 -0.0285  0.1284  0.1283
49441W        W92432  17.346   2.180  23.241 -0.2509 -0.0631  0.1161
49442W        W92433   3.594  21.328  17.849  0.2913 -0.0347  0.0131
49443W        W92434  16.866   8.764  14.693 -0.2478 -0.0540 -0.4331
49444W        W92435   5.107  13.102  18.795 -0.2649  0.1019 -0.1394
49445W        W92436  26.313  11.093   7.727 -0.2674 -0.0899 -0.3375
49446W        W92437  33.912  22.742   2.274 -0.0521 -0.0450  0.0549
49447W        W92438  33.882  18.979  28.557  0.1620  0.2158 -0.0524
49448W        W92439  16.886   2.693  22.064  0.0297 -0.1831  0.0576
49449W        W92440   9.621   2.215  15.029  0.0878  0.0249  0.0696
49450W        W92441  12.800  11.620  23.131 -0.1681  0.1829 -0.1341
49451W        W92442  18.324  34.776  22.788 -0.2414 -0.0867 -0.1245
49452W        W92443  12.963  19.809  18.913 -0.1025  0.2209  0.1845
49453W        W92444   6.546  34.175  25.602 -0.1519  0.2158 -0.1781
49454W        W92445   2.268  10.432  20.170  0.1209  0.0623  0.1812
49455W        W92446   6.730  26.287  23.749  0.3358 -0.1219  0.5296
49456W        W92447  10.244   2.552  25.548 -0.0335 -0.0006 -0.1789
49457W        W92448   2.229  14.041   3.882  0.1285 -0.1977  0.2313
49458W        W92449  20.763  27.038   1.167  0.0672  0.1865 -0.0682
49459W        W92450  20.555  34.568  14.326  0.2105 -0.2453  0.1633
49460W        W92451  19.183  34.186  27.682  0.1205 -0.1881 -0.0365
49461W        W92452   9.234  15.870  16.731 -0.2287  0.1897  0.0380
49462W        W92453  19.595  29.442  17.673  0.0206 -0.0547  0.0185
49463W        W92454  31.964   7.285   0.574 -0.1453 -0.1208  0.0239
49464W        W92455  14.428  30.810  19.056 -0.0435 -0.0882 -0.0510
49465W        W92456  14.437   2.391   0.195 -0.1425 -0.3776 -0.1488
49466W        W92457   6.761  19.202   3.758 -0.3154  0.1914 -0.0317
49467W        W92458  13.324  10.169  18.886 -0.0038 -0.2187 -0.2102
49468W        W92459   6.901  21.138  28.386 -0.0551 -0.0786 -0.2125
49469W        W92460  15.395  34.709  18.785  0.0271 -0.1360 -0.0742
49470W        W92461  12.777  18.227  24.196 -0.0877  0.1094  0.0380
49471W        W92462  15.724   3.820  25.032 -0.0077 -0.1077 -0.1610
49472W        W92463   8.135  22.038   3.762  0.0818  0.0899  0.0490
49473W        W92464  15.003   9.318   6.558 -0.1109 -0.2186  0.0375
49474W        W92465  33.406   4.381  19.082 -0.4018 -0.2769 -0.3017
49475W        W92466  14.101  30.640  16.343  0.2494 -0.2032  0.4911
49476W        W92467   7.715   9.274  16.928  0.4025  0.0406 -0.1706
49477W        W92468  25.942   2.025  24.476 -0.0438  0.3272 -0.2047
49478W        W92469  33.122   8.521  15.485  0.1130 -0.1924  0.0429
49479W        W92470  15.596  34.126  19.330  0.1892 -0.0856 -0.2484
49480W        W92471   1.339  33.949  28.078 -0.0772 -0.0182  0.1419
49481W        W92472   7.062  28.307  15.835  0.0333  0.0985  0.2098
49482W        W92473  26.030   7.389  20.122  0.4370 -0.1274  0.0601
49483W        W92474  25.328  34.567  16.656 -0.0327 -0.0029  0.1257
49484W        W92475  22.586   3.962   6.459  0.0706  0.0566 -0.0305
49485W        W92476  17.621  23.796  14.592  0.0159 -0.1535  0.0769
49486W        W92477  30.546  20.958  23.921  0.2867  0.2730  0.0548
49487W        W92478   8.071  31.900  23.320 -0.1695 -0.2494  0.0358
49488W        W92479  12.739  11.637  14.677 -0.0014 -0.4235 -0.0422
49489W        W92480  25.742   7.207   3.142  0.1240  0.0959 -0.0896
49490W        W92481   6.804  20.708  19.617 -0.1326 -0.3849  0.1713
49491W        W92482   4.339  19.038  18.022 -0.0023  0.3591  0.1272
49492W        W92483  13.783  23.803  21.370  0.0395  0.1735  0.3303
49493W        W92484   7.775  33.281  21.332  0.1938 -0.5075 -0.3473
49494W        W92485  10.162   2.927  25.192  0.1399  0.0208 -0.0826
49495W        W92486   1.140  21.325  21.892  0.1425 -0.2142 -0.3174
49496W        W92487  24.911   1.176  14.951 -0.0756  0.1840 -0.0911
49497W        W92488  16.498  33.662  13.831 -0.2263  0.1402  0.0824
49498W        W92489   8.804   9.541  14.955  0.1259 -0.3163 -0.1063
49499W        W92490  34.218  13.194   2.386  0.0380  0.1201 -0.0523
49500W        W92491  14.419  28.669  19.541  0.0825  0.1075  0.1448
49501W        W92492   4.402   6.855  16.524 -0.2499  0.0105 -0.4722
49502W        W92493  26.322  10.097  27.857 -0.3175  0.0741  0.5551
49503W        W92494  33.952  21.627   1.552  0.2941  0.0113 -0.0030
49504W        W92495   3.210  23.782  18.353  0.0792 -0.1814 -0.3600
49505W        W92496  32.175   3.363  26.445  0.0437  0.2191 -0.1668
49506W        W92497  16.955  32.613  20.654  0.2977  0.0640 -0.3484
49507W        W92498   2.126  19.506  17.649  0.0692  0.2505  0.2285
49508W        W92499  17.161   3.013  25.371 -0.0063 -0.0447  0.0034
49509W        W92500   7.120   1.268  25.387 -0.1104 -0.3222  0.1181
49510W        W92501  12.526   6.020  23.531  0.1521 -0.0923  0.0304
49511W        W92502   4.526  34.150   3.970 -0.1302 -0.0214 -0.1370
49512W        W92503  16.064  28.338  16.983  0.1026 -0.0338  0.2721
49513W        W92504  34.752   4.138  23.477  0.2100  0.0568 -0.0970
49514W        W92505  15.778  18.474  13.841  0.3165  0.1921 -0.0310
49515W        W92506   6.403  23.640  21.444  0.5486  0.2193 -0.0437
49516W        W92507   8.960   2.113  19.952  0.0948 -0.1154  0.0425
49517W        W92508  18.099   7.908   1.086 -0.2751 -0.0054 -0.0252
49518W        W92509  21.079   0.636  24.702  0.0876 -0.3150  0.2715
49519W        W92510  30.683  18.941  15.190 -0.1203  0.0332  0.2468
49520W        W92511  11.321  33.632  18.060 -0.0431 -0.0320 -0.1028
49521W        W92512  23.410   1.410  14.771  0.2320  0.0812  0.0980
49522W        W92513   7.289  21.720   8.575  0.0938  0.1260 -0.2876
49523W        W92514  10.583  28.987  18.441  0.0537 -0.1179 -0.1456
49524W        W92515   4.809   1.066  20.854 -0.0835 -0.2533  0.0518
49525W        W92516  10.010  22.937   3.472 -0.0751 -0.3108 -0.1504
49526W        W92517   4.667   2.736   0.174 -0.1237 -0.1485  0.1078
49527W        W92518   2.312   2.147  21.604  0.1207 -0.4186  0.0769
49528W        W92519  23.234   8.789  24.460 -0.3500 -0.0612  0.0260
49529W        W92520  25.550  10.010  23.915 -0.1476 -0.1368 -0.0058
49530W        W92521   2.792  22.209  19.547 -0.0884 -0.1118 -0.0586
49531W        W92522  11.054   8.641  22.601 -0.0622  0.1783  0.3347
49532W        W92523   9.106  26.827  23.591 -0.0701  0.1605 -0.2959
49533W        W92524  12.926   1.181  18.136  0.3268 -0.1832 -0.2827
49534W        W92525   5.992   4.909  25.115 -0.1487  0.0540  0.3304
49535W        W92526  28.760  33.023  22.673 -0.2931 -0.2073  0.0009
49536W        W92527   1.397  11.151  17.000 -0.2068  0.2678  0.3025
49537W        W92528  21.201  22.127  25.663  0.0467 -0.0451 -0.0555
49538W        W92529  25.552   8.469  13.901  0.0062 -0.0587  0.0974
49539W        W92530  21.804   2.728  21.038 -0.0925  0.0517 -0.1591
49540W        W92531  17.507  34.456  25.315 -0.2758 -0.4085  0.0719
49541W        W92532  15.394  25.692  16.263  0.0549 -0.1006  0.0894
49542W        W92533  20.801  23.437   6.613  0.0757  0.0725 -0.1561
49543W        W92534   8.431  32.607  20.092 -0.3525  0.2009  0.1362
49544W        W92535  22.241  22.795  19.308 -0.1931 -0.0930  0.0872
49545W        W92536   6.684   2.130  19.267 -0.1678 -0.2509 -0.1745
49546W        W92537   3.314   6.877  23.400 -0.1447  0.1336  0.0264
49547W        W92538   4.621   3.015  23.189 -0.2256 -0.1372  0.1519
49548W        W92539  19.375  32.577  17.756 -0.2940 -0.2068 -0.1873
49549W        W92540   7.021   8.242  15.189 -0.3358 -0.3675  0.1528
49550W        W92541   5.790  27.265  27.221  0.2435  0.2078 -0.1061
49551W        W92542  34.382  30.625  15.597  0.0232 -0.0299  0.2385
49552W        W92543  33.901   3.183  20.882  0.1026 -0.2588  0.2263
49553W        W92544   5.560   0.789  17.321 -0.0674 -0.0075 -0.2162
49554W        W92545  30.441  34.705  21.066  0.1275  0.1058 -0.0291
49555W        W92546  13.418  30.597  22.068  0.1025 -0.0198 -0.0838
49556W        W92547  33.375  20.152  19.864  0.0636  0.2405 -0.0196
49557W        W92548   0.651  28.554  13.682  0.0903  0.2078 -0.1402
49558W        W92549   6.639  19.245  25.066  0.2306 -0.0466  0.0807
49559W        W92550  21.105  31.126  16.782  0.0967  0.2569 -0.0004
49560W        W92551  14.373   3.709  14.966 -0.3456 -0.2032  0.2200
49561W        W92552  14.035  26.792  10.029 -0.1998 -0.0081 -0.4016
49562W        W92553   9.763  22.283  18.623 -0.1600 -0.2149  0.2298
49563W        W92554  20.164  21.238  24.656 -0.1248  0.0658 -0.0037
49564W        W92555  30.285   1.642  27.698 -0.0564 -0.1299  0.3670
49565W        W92556  22.654  14.139  15.595  0.2549 -0.0627  0.0070
49566W        W92557  23.185  14.598  28.335 -0.1537  0.0004  0.2293
49567W        W92558  28.390  19.609  27.038 -0.0964  0.0039 -0.0045
49568W        W92559  14.196   5.284  22.531  0.3598  0.0727  0.2718
49569W        W92560  31.784  28.466  18.758  0.1623 -0.1558 -0.0605
49570W        W92561   7.793  31.539  17.758  0.1490  0.0771  0.1326
49571W        W92562  21.733  30.455  17.163 -0.2254  0.0686 -0.0601
49572W        W92563  19.584   9.768  15.306 -0.0447 -0.3172  0.0676
49573W        W92564  27.166  28.491   8.813  0.0995  0.0178 -0.0883
49574W        W92565  11.957  29.849  20.172 -0.1447  0.0957  0.1833
49575W        W92566  24.491  23.760  27.372 -0.2335  0.0983  0.1826
49576W        W92567  15.633  28.379  14.932  0.2893  0.2384  0.1243
49577W        W92568  14.974  28.075  22.731  0.1723 -0.2460  0.1224
49578W        W92569   8.332  14.735  22.771 -0.3265  0.3274 -0.0424
49579W        W92570  26.968  32.013  13.902  0.4660 -0.3424 -0.2284
49580W        W92571  21.000  20.047  19.227  0.0046  0.0422 -0.0101
49581W        W92572  17.313  34.234   8.465 -0.0653  0.5859  0.0853
49582W        W92573  13.226  33.540  17.007  0.0116 -0.3518  0.0496
49583W        W92574  17.092  25.350  26.069 -0.0531 -0.3483 -0.0883
49584W        W92575  10.463  22.713  20.935  0.2537  0.3016  0.0335
49585W        W92576  11.213  30.585  17.066 -0.0068  0.3388  0.2916
49586W        W92577   2.782  19.929  23.527 -0.0457  0.0008  0.1395
49587W        W92578  19.292  12.906  13.331  0.0615 -0.2694 -0.4377
49588W        W92579  11.999  27.193  17.122  0.2040 -0.0675 -0.0249
49589W        W92580  12.711  15.218  27.074  0.1330  0.2098  0.0904
49590W        W92581  19.323   5.039  20.558 -0.3015  0.2090  0.0330
49591W        W92582   9.333  21.744  14.830 -0.0311  0.1037 -0.1112
49592W        W92583   2.956  30.371  25.229 -0.1592  0.2821 -0.2793
49593W        W92584  10.675  32.218  20.232 -0.0545  0.0184 -0.0179
49594W        W92585   0.239  14.814  17.494 -0.1571  0.1679  0.0374
49595W        W92586  34.524   0.772  26.581  0.0968 -0.1184 -0.2601
49596W        W92587   7.534  20.460  25.239  0.2576 -0.0133  0.2444
49597W        W92588  13.733  15.685  28.444 -0.0298  0.0375 -0.0687
49598W        W92589  22.816  33.774  17.095 -0.1249  0.1282 -0.1220
49599W        W92590  10.873  22.670  23.750 -0.0401  0.1088  0.1472
49600W        W92591  13.138   6.060  21.473 -0.0070 -0.1768  0.1176
49601W        W92592   8.948   4.146  22.721 -0.1036  0.1113  0.1887
49602W        W92593  19.061  17.706  12.757 -0.0399  0.1761  0.0200
49603W        W92594  21.740  11.685  23.712  0.0281  0.0275 -0.0350
49604W        W92595   2.183  31.075   3.119 -0.2092  0.2806 -0.1020
49605W        W92596  17.029   6.277  14.169  0.1747 -0.0455 -0.1198
49606W        W92597  29.054  29.156  26.989 -0.1232  0.0892  0.0910
49607W        W92598  31.953  28.775  19.093 -0.2660 -0.0141  0.4318
49608W        W92599   6.392   4.491  19.947  0.0793 -0.0735 -0.2489
49609W        W92600   1.670  34.764  23.880  0.0582 -0.1413  0.1004
49610W        W92601  24.358  24.951  24.078  0.1403 -0.1501 -0.0324
49611W        W92602  15.239   1.012  18.845 -0.0473  0.0010 -0.2056
49612W        W92603  16.163  20.161  25.838 -0.1430 -0.0099 -0.0703
49613W        W92604   8.965  25.729  14.532 -0.3189  0.0739 -0.2459
49614W        W92605  11.201   3.578   2.489  0.0136 -0.1135 -0.2700
49615W        W92606  11.131  32.411  22.699 -0.1078 -0.0177 -0.0815
49616W        W92607   7.839  30.623  14.433  0.1723  0.1418  0.1097
49617W        W92608   5.731  25.515  22.117 -0.2432 -0.1504  0.0359
49618W        W92609  12.196  28.852  16.716 -0.1372 -0.1060  0.0324
49619W        W92610  15.746   3.367  11.101  0.0465 -0.3570 -0.1637
49620W        W92611  22.435   1.641  21.244  0.0805  0.0146 -0.3503
49621W        W92612  13.266  30.926   2.776 -0.0327 -0.3217 -0.3027
49622W        W92613   0.456  20.058  17.694 -0.0634  0.0474 -0.0338
49623W        W92614  24.445  31.370  19.256 -0.1406 -0.2498  0.1904
49624W        W92615   8.521   3.414  17.123  0.1490  0.0136  0.1057
49625W        W92616  27.727   4.618   3.800 -0.2468 -0.1116  0.2931
49626W        W92617  32.681  24.718   0.319  0.0791  0.1507  0.1903
49627W        W92618  32.013  19.167  16.051  0.2473  0.0499 -0.3381
49628W        W92619  17.680  23.208  12.841  0.1769 -0.1197 -0.1289
49629W        W92620   9.988   8.062  18.541 -0.0793 -0.0273  0.0507
49630W        W92621  20.434   5.066  18.523  0.0135  0.0297 -0.1657
49631W        W92622   9.282  31.737  16.546  0.0256  0.2003  0.2039
49632W        W92623   2.598  30.377  17.778  0.5331  0.1244 -0.2465
49633W        W92624   0.936  33.607  17.150  0.2866 -0.0298  0.2971
49634W        W92625  20.943   7.320  20.981 -0.0842 -0.0049 -0.0176
49635W        W92626   0.438  26.854  25.883  0.2795  0.0469 -0.0059
49636W        W92627  27.493   2.592  27.105 -0.0369  0.2735  0.3229
49637W        W92628   5.054   5.931  16.012  0.2013  0.0088  0.1743
49638W        W92629   1.882  26.870  14.576  0.1340 -0.3032  0.0545
49639W        W92630   8.652  16.119  19.575 -0.0181 -0.3639  0.0948
49640W        W92631  19.074   9.935  13.313  0.0970 -0.0978  0.1966
49641W        W92632  22.383  30.193  25.913  0.1054  0.4004 -0.3374
49642W        W92633  12.161  18.779  14.958  0.4668  0.1227 -0.0895
49643W        W92634   6.423  14.735  19.058  0.2812  0.0153  0.2862
49644W        W92635   9.639  24.705  16.833  0.0709  0.0763 -0.1688
49645W        W92636   4.783   0.067  17.770 -0.2578 -0.1698  0.0615
49646W        W92637  11.469  27.740  15.401  0.3193 -0.0490  0.4648
49647W        W92638   1.535   0.244  22.683 -0.0668 -0.2733 -0.2615
49648W        W92639  33.859  17.029  24.942 -0.4009  0.1067 -0.0991
49649W        W92640  28.676   7.522  22.658  0.0740 -0.3395  0.3994
49650W        W92641   0.096   6.173  22.723  0.2644 -0.0449 -0.0651
49651W        W92642  30.009  33.927  13.412  0.0248 -0.0530 -0.0594
49652W        W92643   7.338  22.935   7.276 -0.1800 -0.0267  0.2640
49653W        W92644  15.042  32.640   2.411 -0.2169 -0.2131  0.0106
49654W        W92645  26.127   4.490  20.796 -0.0419  0.0532  0.2472
49655W        W92646  15.595   5.438  17.716  0.1008  0.0194  0.1114
49656W        W92647  17.485  15.089  13.292  0.2922 -0.2527  0.0020
49657W        W92648   9.168  22.074  26.433  0.3990  0.0017  0.0696
49658W        W92649   8.182   1.533   5.976 -0.5048 -0.0657 -0.1616
49659W        W92650   9.009   3.293  27.453 -0.3810 -0.1139  0.2706
49660W        W92651  34.655  26.581  24.647  0.0403 -0.2214 -0.1497
49661W        W92652  11.579  16.042  23.855 -0.2994 -0.1163  0.3291
49662W        W92653  26.107   1.994  20.420 -0.3215  0.0219  0.0591
49663W        W92654  11.390  34.443  19.395  0.1470  0.1564  0.4313
49664W        W92655  26.358  25.584  21.272 -0.0681  0.2415 -0.1544
49665W        W92656  12.686  23.957  18.389  0.0648 -0.0305  0.4566
49666W        W92657  14.998  29.843   6.756 -0.0060 -0.0189 -0.0865
49667W        W92658  10.596  32.059  22.102 -0.2316 -0.1322 -0.2621
49668W        W92659   9.955  24.150  19.604  0.1861 -0.4282  0.1283
49669W        W92660  22.624  20.938  19.044  0.3159 -0.1455  0.2183
49670W        W92661   7.998  33.716  16.156  0.3653 -0.0246  0.2194
49671W        W92662  19.786  29.045  22.670  0.0569 -0.0222  0.2179
49672W        W92663   4.542   2.151  19.699 -0.0539 -0.0687 -0.1922
49673W        W92664  10.165  29.979  28.808  0.1572 -0.5485 -0.0576
49674W        W92665  18.649   0.332  14.654  0.0093 -0.0460 -0.0461
49675W        W92666   6.132  32.670  28.838 -0.3862 -0.1331  0.0092
49676W        W92667  10.609  18.556  15.293 -0.1371 -0.1083 -0.2673
49677W        W92668  26.660  34.483   2.838  0.1963 -0.0876 -0.1520
49678W        W92669  22.929   7.959  15.024  0.3219  0.3439  0.1194
49679W        W92670   9.757  10.796  16.364 -0.0644  0.0188 -0.0410
49680W        W92671   1.203   4.488  18.346 -0.4487  0.1422  0.1005
49681W        W92672   3.755  32.806  15.304  0.0120  0.2345  0.2307
49682W        W92673  18.299  33.095  22.816 -0.1398 -0.0551 -0.0518
49683W        W92674   1.527  30.204  20.504 -0.2944 -0.0713 -0.0895
49684W        W92675   1.804  19.848  15.847 -0.0908 -0.1794 -0.1992
49685W        W92676   6.739   5.797  15.460  0.3401 -0.2353 -0.0361
49686W        W92677  21.041   5.710   0.004  0.0662  0.3864 -0.3115
49687W        W92678  31.999  27.329  19.427 -0.1533  0.2077 -0.3241
49688W        W92679  23.540  17.975  13.588 -0.0074 -0.0014  0.1694
49689W        W92680  32.041  24.421  16.416 -0.1113  0.2278 -0.2451
49690W        W92681  20.173  29.581  19.988 -0.0952 -0.1201 -0.0475
49691W        W92682  12.877  21.716  25.437  0.3387 -0.3857  0.2575
49692W        W92683   2.655   3.517  15.908  0.0875 -0.1511 -0.1203
49693W        W92684   4.122  21.577  29.180  0.1691 -0.1361 -0.3726
49694W        W92685   5.481  22.978  23.867 -0.3187  0.0073  0.1031
49695W        W92686  19.227   1.038  14.955  0.1659 -0.0494  0.0696
49696W        W92687   3.314  31.865  15.422  0.1265  0.1424  0.0205
49697W        W92688  13.411   4.896  19.060  0.2762 -0.0040  0.2057
49698W        W92689   6.727  30.360   0.286  0.1847  0.2303 -0.1327
49699W        W92690   5.597   1.793  17.918 -0.2006  0.3294  0.0367
49700W        W92691   8.679   8.531  15.680  0.0661 -0.2888  0.1601
49701W        W92692  10.316  26.522   0.885  0.0166 -0.1658  0.1804
49702W        W92693   0.646  11.254  28.342  0.4486 -0.0428 -0.0614
49703W        W92694  23.118  30.661  21.966  0.0158 -0.0853  0.0159
49704W        W92695  14.790  16.714  24.109  0.0304  0.1843  0.1915
49705W        W92696  12.914  11.494  15.598  0.0208 -0.0169 -0.4575
49706W        W92697   8.503  29.142  20.577 -0.0526  0.2662  0.0626
49707W        W92698  23.537  33.816  28.172 -0.3269  0.0093 -0.3631
49708W        W92699  24.051  30.579  13.088 -0.1626 -0.0519  0.0489
49709W        W92700   6.407  31.012  19.499  0.0748  0.1688  0.0050
49710W        W92701  20.268  22.158  22.565  0.2687  0.1651  0.0286
49711W        W92702   7.840   0.308  15.612 -0.1380  0.0812  0.2590
49712W        W92703  19.461  32.477  23.441 -0.3224  0.3204 -0.2177
49713W        W92704  20.320  23.349  15.437  0.3601 -0.2769  0.0185
49714W        W92705  21.119  25.975   1.715 -0.0648 -0.4406 -0.0285
49715W        W92706  13.450  20.684  22.177 -0.1174 -0.1875 -0.1456
49716W        W92707  22.829   8.621  14.152  0.1788  0.1415  0.0706
49717W        W92708  33.999   3.320  21.318  0.2119 -0.1940 -0.0282
49718W        W92709  15.508  25.671  19.274 -0.0085 -0.1507 -0.0913
49719W        W92710   9.823  11.924  15.540 -0.0499  0.1196 -0.1160
49720W        W92711  20.145   8.274  18.747 -0.0350 -0.5185  0.2381
49721W        W92712  12.816   0.559  16.567 -0.2321 -0.0795 -0.2349
49722W        W92713  28.734   4.736  19.426 -0.2491  0.2657 -0.0766
49723W        W92714   2.525  17.568  25.693  0.0567  0.0293 -0.0329
49724W        W92715  11.992  15.796  18.653 -0.2675 -0.4042 -0.3234
49725W        W92716  30.969  21.996   7.447  0.0474  0.0971  0.0706
49726W        W92717   1.294   3.748  23.709 -0.1872  0.0376  0.1167
49727W        W92718  15.165   5.532  18.695 -0.2485  0.0144  0.2678
49728W        W92719  10.825  19.650  15.646  0.3087 -0.1582  0.3521
49729W        W92720  28.796   1.716  20.881 -0.0763 -0.2968 -0.2862
49730W        W92721  14.010  22.820  15.908 -0.0393  0.1484  0.0405
49731W        W92722  13.599  29.568  19.897 -0.1867  0.0406 -0.1047
49732W        W92723  20.598  31.000  20.835  0.2162 -0.2332  0.1075
49733W        W92724  31.987  29.352   4.925 -0.1251  0.0038 -0.2285
49734W        W92725  17.285  21.022  23.867  0.0121  0.0194 -0.1052
49735W        W92726   3.158  10.414  28.251  0.1536 -0.0392 -0.0200
49736W        W92727   6.737  33.481  20.490  0.4926 -0.0527 -0.0274
49737W        W92728   6.146  25.558  22.413 -0.1156 -0.1545  0.0762
49738W        W92729   1.166  10.933  25.599  0.0390  0.0592 -0.2139
49739W        W92730   2.102   5.067  23.136  0.1296 -0.0745 -0.3709
49740W        W92731  21.604  11.725   8.218 -0.2644 -0.1245  0.2357
49741W        W92732  14.350  29.538  20.870 -0.3613  0.0748 -0.0238
49742W        W92733  14.474   8.201  20.321  0.2359  0.3267 -0.0614
49743W        W92734  11.646  21.733   9.490  0.2938 -0.2966  0.0955
49744W        W92735  16.587  12.232  27.021  0.2170  0.2429  0.1417
49745W        W92736   0.547   7.339  21.470 -0.0807 -0.1669 -0.3499
49746W        W92737  24.730  30.363  16.872 -0.2036 -0.1854  0.1435
49747W        W92738  16.236   7.963   2.480  0.1133 -0.2187  0.1160
49748W        W92739  22.187  23.297  27.309 -0.2608  0.1289 -0.1641
49749W        W92740  12.755  20.032  16.656  0.0340 -0.0962 -0.2794
49750W        W92741  14.622  10.597  14.617  0.0677  0.2665 -0.2306
49751W        W92742   5.991  26.302  17.800  0.0078 -0.0542 -0.4406
49752W        W92743  10.169  33.314   0.035 -0.4053  0.1505  0.3883
49753W        W92744   3.624  23.380  26.893 -0.0777 -0.1492  0.0384
49754W        W92745  32.495   5.545  20.707 -0.0559 -0.1020  0.2894
49755W        W92746  11.365   6.358  28.153 -0.0424  0.1742 -0.2564
49756W        W92747   2.334  21.964  21.057  0.2424  0.1150 -0.3011
49757W        W92748  16.840  30.186  22.196  0.2033  0.0282  0.0859
49758W        W92749   9.920   7.702  15.882  0.0118  0.0350  0.2461
49759W        W92750  22.140  33.990  18.671  0.1032 -0.0171 -0.1100
49760W        W92751   8.261  26.793  27.639  0.0116 -0.0398  0.1097
49761W        W92752   2.152  21.280  17.500  0.1259  0.3145  0.2131
49762W        W92753   9.697  21.565  22.911  0.1444 -0.0027 -0.0297
49763W        W92754   7.501   1.173  22.295 -0.2112  0.0391 -0.0161
49764W        W92755  17.850  32.640  14.828 -0.0752  0.2252  0.0079
49765W        W92756  15.662  32.730   0.180 -0.1901  0.0321  0.0658
49766W        W92757   2.273  25.650  16.279 -0.0169  0.0122  0.0353
49767W        W92758  17.207   4.681  23.425  0.2939 -0.1428  0.2901
49768W        W92759   1.864   0.561  23.638  0.1534 -0.0914 -0.0351
49769W        W92760  33.383  26.877  23.242  0.4647  0.0363 -0.1325
49770W        W92761  34.513  31.832  24.016 -0.1631 -0.3080  0.1284
49771W        W92762   6.250  12.157  23.164  0.0486 -0.0159  0.0079
49772W        W92763  15.972  12.309   0.751 -0.3282  0.1057 -0.3482
49773W        W92764  27.102   1.061   1.421  0.0143 -0.0631 -0.1943
49774W        W92765   2.415  19.836  28.146 -0.1855  0.2344  0.3459
49775W        W92766  23.895   0.292  14.853  0.0236  0.3230  0.1996
49776W        W92767  31.436  31.841  26.306  0.1336 -0.1160  0.0585
49777W        W92768  17.238  27.521  27.754 -0.0801  0.2268  0.1447
49778W        W92769  15.098  14.879  29.257  0.0733 -0.0901 -0.2958
49779W        W92770  16.473   2.367  23.396 -0.0139  0.1772 -0.1802
49780W        W92771   4.195  28.754  21.030 -0.2160 -0.1244 -0.0125
49781W        W92772  12.604  16.509   2.354 -0.5623 -0.1532  0.4302
49782W        W92773   4.292   6.377  21.620  0.0668 -0.1227 -0.0829
49783W        W92774   2.685  12.596  14.836  0.0869 -0.0040  0.2592
49784W        W92775   8.610   1.901  19.500 -0.3776  0.1706  0.0389
49785W        W92776  31.418  33.176  21.643 -0.0508 -0.0249 -0.1467
49786W        W92777  34.330  30.347  23.030  0.1204 -0.0742  0.2198
49787W        W92778   7.009   1.401  17.193 -0.0383  0.0049  0.0679
49788W        W92779  11.663   2.166  23.877  0.0579  0.2639 -0.3381
49789W        W92780   2.074  23.425  20.720 -0.1922  0.2330 -0.5457
49790W        W92781  15.540   2.910  24.176 -0.0892  0.0883  0.1471
49791W        W92782   9.200   2.052   2.905  0.4644  0.3162  0.3863
49792W        W92783  32.728  27.606  19.728  0.1380  0.0165  0.2640
49793W        W92784   8.960  10.397   0.987 -0.2503 -0.0916 -0.1318
49794W        W92785   9.247  26.639  14.771 -0.1195 -0.0428  0.1336
49795W        W92786   5.186   4.716  18.812 -0.2491 -0.0161 -0.0778
49796W        W92787  16.079  23.688   0.592  0.0322  0.0835  0.1350
49797W        W92788  13.572  27.648  21.752  0.1549 -0.4887  0.3351
49798W        W92789  15.105   3.030  16.552 -0.0101 -0.3076 -0.1495
49799W        W92790  26.070  28.157   2.529 -0.0077  0.2398  0.3250
49800W        W92791   0.192  24.219  21.780 -0.0089 -0.1650 -0.1358
49801W        W92792  24.054  23.642  20.553 -0.2734 -0.3668 -0.0723
49802W        W92793  29.916  30.952  13.994  0.1331  0.1649  0.1448
49803W        W92794  31.773  29.057  22.055 -0.3855 -0.2984  0.0315
49804W        W92795  11.508  31.508  19.886 -0.1123  0.1154 -0.3088
49805W        W92796  12.760  30.677  17.897  0.0143  0.0253  0.0684
49806W        W92797   3.405  25.600   5.585  0.2071  0.2262  0.1698
49807W        W92798  18.309  13.285  27.963 -0.0399  0.3154 -0.2031
49808W        W92799  10.255   9.303  15.669 -0.2781 -0.0521 -0.1675
49809W        W92800  17.028   3.075   5.621 -0.0399  0.1087 -0.1136
49810W        W92801  26.933  29.952  18.238  0.1140 -0.0796 -0.2771
49811W        W92802  23.156   0.819  12.770  0.1237 -0.0736 -0.1709
49812W        W92803   9.227  10.157   3.904 -0.3653 -0.1239 -0.0658
49813W        W92804  27.027  25.815  25.010  0.1753 -0.2530  0.1874
49814W        W92805  19.059   2.654  24.567 -0.4427 -0.1150  0.2265
49815W        W92806   7.079   0.901   2.374  0.0460  0.1546  0.0247
49816W        W92807  18.415  34.604  22.310  0.0253 -0.3799  0.4505
49817W        W92808  12.554  26.301  14.165  0.3398 -0.2861 -0.0872
49818W        W92809  33.852   0.922  22.580 -0.1968  0.1761 -0.1502
49819W        W92810  20.652  20.592  15.392 -0.0822 -0.0875  0.0694
49820W        W92811  12.758   4.249  23.586 -0.0975  0.2520  0.2831
49821W        W92812   5.928  21.570  27.269  0.0015  0.0935  0.1845
49822W        W92813  24.326  28.892  21.008  0.1142 -0.1358  0.1275
49823W        W92814  10.485   0.615  15.891  0.0789 -0.1906 -0.4325
49824W        W92815   5.722  26.183  21.872 -0.2461  0.0497 -0.0372
49825W        W92816   9.738  31.639   0.422 -0.2572 -0.0469  0.1497
49826W        W92817   8.810   0.879  26.997  0.0767 -0.0760 -0.1432
49827W        W92818   3.499  19.193  22.606  0.1693  0.1704 -0.3194
49828W        W92819  13.748   4.067  27.162  0.3261 -0.0315  0.0426
49829W        W92820  16.066  31.291  18.862 -0.2256  0.3775 -0.1029
49830W        W92821  23.155  31.516  13.309  0.2193  0.0223  0.3494
49831W        W92822  15.499  11.498  28.021  0.2022 -0.0719 -0.0880
49832W        W92823  23.877  32.441  20.271  0.2623 -0.2877 -0.2082
49833W        W92824   3.475  22.407   1.159  0.1331 -0.0678  0.1128
49834W        W92825  14.102  12.568  15.943 -0.3795  0.0660 -0.2148
49835W        W92826  24.978   7.714  16.042 -0.0555  0.1094 -0.0378
49836W        W92827  30.431  23.985  21.890 -0.2677  0.0459  0.2386
49837W        W92828   9.309  19.882   0.726 -0.2004  0.0659 -0.1389
49838W        W92829   0.770  23.842  23.835 -0.3239 -0.1978  0.0437
49839W        W92830  31.949  23.612   5.618  0.2062 -0.2287  0.1895
49840W        W92831   8.077  17.206  19.269  0.1583 -0.0633  0.1793
49841W        W92832  10.244  15.109  20.343  0.1262 -0.1004  0.0032
49842W        W92833   5.372   5.783   2.921  0.0889  0.0582  0.1236
49843W        W92834   3.150  19.666  25.284 -0.1914 -0.2878 -0.1967
49844W        W92835  14.844  24.944  25.712  0.1468 -0.2236 -0.0406
49845W        W92836  26.461  10.868  14.244 -0.4077  0.2481 -0.1919
49846W        W92837  21.546  33.574  17.035  0.0960  0.3724  0.0381
49847W        W92838  27.333  11.498  29.202  0.2373 -0.0027  0.2414
49848W        W92839  13.902  30.086  13.622 -0.1254 -0.3113  0.0459
49849W        W92840   3.687  22.735  25.838 -0.0555 -0.0827 -0.2345
49850W        W92841   8.041  29.100  17.937  0.1018  0.2554 -0.1122
49851W        W92842   1.203   2.813  23.777  0.1771 -0.0263  0.0954
49852W        W92843   2.415   7.490  16.655  0.0110 -0.0027 -0.1676
49853W        W92844  20.682   8.185  13.803 -0.3451 -0.3471  0.2352
49854W        W92845   9.202  24.612  19.982 -0.2715  0.1963  0.0454
49855W        W92846   3.223  30.026  20.076 -0.0837  0.0086 -0.0732
49856W        W92847   8.262  28.999  17.128  0.1657 -0.1523 -0.1196
49857W        W92848  13.984  13.649  25.226  0.1769  0.0678  0.0408
49858W        W92849   3.919  27.865  20.720 -0.0953  0.2319 -0.3488
49859W        W92850   4.876  13.496  27.590 -0.3392  0.4733 -0.2683
49860W        W92851   9.581  19.459  15.432 -0.0180  0.0756 -0.1634
49861W        W92852  14.807  27.871  21.475  0.3013 -0.3038  0.1211
49862W        W92853  16.918  24.877   9.040 -0.2102  0.2152 -0.0704
49863W        W92854  27.902  11.906  19.565 -0.1078  0.1725 -0.1912
49864W        W92855  19.918  32.946   8.805 -0.4333  0.1570 -0.0658
49865W        W92856   1.256  14.715  20.052 -0.2882 -0.0364 -0.1257
49866W        W92857   7.792  27.927  15.527  0.1798 -0.3468 -0.1731
49867W        W92858  11.861  29.904  21.971 -0.0550 -0.1884  0.2250
49868W        W92859   8.514   1.025  17.437  0.3293 -0.2224  0.0948
49869W        W92860   2.077  23.152   1.083 -0.0400 -0.1157  0.1651
49870W        W92861   7.111   3.242  10.696  0.1250  0.2894 -0.2427
49871W        W92862  31.453   1.381  23.705 -0.3096 -0.3102 -0.0806
49872W        W92863   7.233   5.363  25.019 -0.0978  0.0749  0.1397
49873W        W92864  30.046   5.845  14.586 -0.0941 -0.0267 -0.0009
49874W        W92865   5.249   2.665   5.995 -0.0139 -0.2938 -0.0003
49875W        W92866  12.915  21.918  13.417  0.2477 -0.0467  0.1990
49876W        W92867   0.782  26.339  18.367  0.0102 -0.1965 -0.2898
49877W        W92868  13.193   1.218   2.344  0.0292 -0.0719  0.0332
49878W        W92869   9.179  28.546  28.213 -0.1556 -0.0242 -0.5800
49879W        W92870  23.582  25.658  20.533 -0.0096 -0.1395  0.4045
49880W        W92871   9.608  21.847  19.631  0.0909  0.0096 -0.0396
49881W        W92872   7.220  20.203  24.927 -0.1119  0.0676 -0.1719
49882W        W92873  18.187   0.045  18.915  0.0550 -0.1645  0.0272
49883W        W92874  24.031  30.967  16.000 -0.1757 -0.3596 -0.1771
49884W        W92875  33.677  26.775  14.224 -0.0323 -0.3356  0.3672
49885W        W92876  18.058   0.295  16.828  0.2225 -0.0227 -0.1277
49886W        W92877  17.541  28.110  15.071  0.0065 -0.0600  0.1225
49887W        W92878  29.233   1.447  19.771 -0.1996 -0.2637 -0.1466
49888W        W92879  18.143  29.912  22.001  0.0749  0.0014 -0.1814
49889W        W92880  19.201  17.758  14.248 -0.3817 -0.1622  0.0457
49890W        W92881  23.594  16.038  15.904  0.3747  0.0458 -0.1856
49891W        W92882  21.674  13.913  16.899 -0.1799 -0.2640  0.1797
49892W        W92883  12.965  16.184  19.552 -0.1183  0.0987 -0.0244
49893W        W92884   4.023  34.325  14.918  0.0673 -0.0139  0.1601
49894W        W92885  12.724  27.330   7.336 -0.3072 -0.2880  0.1072
49895W        W92886  14.478  10.531   4.291  0.0636 -0.1300 -0.1814
49896W        W92887  24.330  17.674  28.120  0.0333  0.0831 -0.0075
49897W        W92888  14.288  34.760  27.353 -0.0033  0.0668  0.0472
49898W        W92889  14.062  32.416  23.437 -0.2468  0.0627 -0.0383
49899W        W92890   5.786  33.623  22.833  0.0957  0.4528  0.2656
49900W        W92891   9.747  26.255  21.849  0.2175  0.3035 -0.0152
49901W        W92892   8.971  30.095  16.543 -0.1253 -0.3302 -0.1451
49902W        W92893  10.530  18.677  13.901  0.1360 -0.0352 -0.1650
49903W        W92894  12.885   0.684  15.637 -0.3076  0.0309 -0.1100
49904W        W92895  12.738  23.570  28.099 -0.3316 -0.0376  0.0437
49905W        W92896  27.104   6.516  18.848 -0.0890 -0.2333 -0.1839
49906W        W92897   6.823  31.322   1.976  0.2100  0.1452  0.1243
49907W        W92898   8.618   5.130  16.303 -0.5742  0.0959  0.1844
49908W        W92899  19.282   0.504  18.080 -0.0471  0.4411 -0.2506
49909W        W92900   9.891  23.950  25.309  0.1403 -0.0728 -0.0866
49910W        W92901  19.346  14.280   4.733  0.0674  0.2604 -0.0179
49911W        W92902  14.011  11.663  16.262  0.1433 -0.2351  0.0526
49912W        W92903  10.229  20.214  17.267  0.0248 -0.0673 -0.0851
49913W        W92904  17.793  26.023   1.566  0.1518  0.0848  0.0451
49914W        W92905  11.110  15.147   0.790  0.1906  0.2328  0.0656
49915W        W92906  15.091  18.661  14.638 -0.0601  0.1331 -0.3699
49916W        W92907  16.763   6.840  15.678 -0.0002  0.0738 -0.1095
49917W        W92908  19.653  17.645  15.636 -0.2573 -0.1097 -0.1652
49918W        W92909  18.716  18.773  15.463  0.0106 -0.0721 -0.2049
49919W        W92910  10.892   6.811   6.653  0.1894  0.1946  0.3121
49920W        W92911   7.731   1.130   0.709  0.1036 -0.1779 -0.1071
49921W        W92912   1.744  33.861  27.792 -0.1867  0.1023 -0.0751
49922W        W92913   8.973  31.447   1.554  0.0587  0.0199 -0.2092
49923W        W92914   4.667   2.750  16.245 -0.0799 -0.1139  0.1659
49924W        W92915  13.309  28.455  22.318 -0.3953  0.4127 -0.0205
49925W        W92916   3.091  13.377  24.394 -0.0984 -0.1246 -0.2959
49926W        W92917  14.424  26.600  19.782 -0.1981 -0.1225  0.0391
49927W        W92918  13.028   0.443   1.191 -0.1550 -0.2820 -0.2460
49928W        W92919   6.505  30.048  25.203  0.1861 -0.2148  0.0850
49929W        W92920  13.150  31.315  19.624 -0.0893 -0.1113 -0.1642
49930W        W92921  19.430   2.091  20.525 -0.2348 -0.2221  0.0889
49931W        W92922  22.845  34.519  17.872 -0.0036  0.0667 -0.1883
49932W        W92923   3.511   6.695  24.403  0.0316  0.2710  0.1209
49933W        W92924  10.319  10.033  28.996 -0.0314  0.3509  0.0930
49934W        W92925  23.693  13.740  15.462 -0.2212  0.1368  0.1543
49935W        W92926  20.478  10.982  21.978  0.2440 -0.2808  0.2259
49936W        W92927  19.099  27.647  15.307  0.0052 -0.3513  0.2291
49937W        W92928  23.084  33.257  21.464 -0.1182  0.1083  0.0131
49938W        W92929  14.257   1.026  25.357 -0.1440  0.2693 -0.2675
49939W        W92930  10.516  26.415   9.454  0.0794  0.2016 -0.0894
49940W        W92931  11.553  26.270   5.328  0.1964 -0.0595  0.0226
49941W        W92932   2.511   8.666   3.383 -0.2062  0.2758 -0.1593
49942W        W92933   5.256  19.579  23.585 -0.0359 -0.3108 -0.1758
49943W        W92934  31.640  25.764   5.075 -0.3006  0.1232  0.0561
49944W        W92935   7.953   3.815  17.844  0.0711  0.1150  0.1142
49945W        W92936  24.307  14.864   1.823 -0.0284 -0.3208 -0.0210
49946W        W92937  23.641   3.947  27.795  0.0643 -0.0316 -0.2811
49947W        W92938  20.529   7.565  22.386  0.2074  0.0284 -0.3200
49948W        W92939   3.160   6.870  15.693 -0.0439  0.0490 -0.0980
49949W        W92940   3.464   6.156  25.858 -0.0132  0.5237 -0.2539
49950W        W92941  17.404  28.484  24.986  0.0760 -0.1208 -0.0537
49951W        W92942  15.750   4.352  19.565  0.0981  0.3602  0.0146
49952W        W92943   6.883   2.955   1.154  0.2697 -0.2536 -0.3530
49953W        W92944  12.681  33.170   6.615  0.1228  0.0844  0.0032
49954W        W92945  19.275  21.008  22.923 -0.1760 -0.1009 -0.0857
49955W        W92946   3.959  34.265  24.734 -0.2332 -0.1310 -0.1645
49956W        W92947   3.500  30.317  18.312 -0.0478 -0.2001 -0.1448
49957W        W92948  11.863  33.064  15.611 -0.0719 -0.2426 -0.0773
49958W        W92949  15.758  26.565   7.154 -0.2536 -0.0782 -0.2447
49959W        W92950  14.581   7.163  29.159 -0.1502  0.1463  0.3486
49960W        W92951  20.807   6.116  19.430 -0.0374  0.0034  0.0086
49961W        W92952  23.261   9.022  16.124 -0.0711 -0.0934 -0.4292
49962W        W92953   7.545  13.621  15.832 -0.0380  0.0369 -0.1068
49963W        W92954  13.086  31.268   0.466 -0.0293 -0.0064 -0.0005
49964W        W92955   5.695  31.667  20.290  0.1220 -0.0547 -0.1406
49965W        W92956  12.148   7.982   3.365 -0.1405  0.1137  0.2880
49966W        W92957   8.369  17.337   1.371 -0.3750  0.0814  0.0985
49967W        W92958  23.295  17.161  21.253  0.3929  0.1441  0.0956
49968W        W92959  10.741  17.155  23.957  0.1766  0.4076 -0.0833
49969W        W92960   5.782   0.080  19.932  0.1341 -0.0085 -0.2016
49970W        W92961  23.233  31.877  20.240  0.1419 -0.0057 -0.3622
49971W        W92962  13.733   7.197  14.650  0.1495  0.0639  0.1502
49972W        W92963  25.417  31.579  26.098  0.1134  0.0673 -0.0947
49973W        W92964  21.502  14.805  27.044 -0.0829  0.0379  0.2564
49974W        W92965  24.566  18.330  24.908 -0.1241 -0.1592  0.0756
49975W        W92966  13.902   6.622   7.459 -0.0968 -0.1190 -0.0941
49976W        W92967   3.863  29.275  25.745  0.1165 -0.4239 -0.1253
49977W        W92968  31.456  19.378  20.163 -0.0830  0.2033 -0.0144
49978W        W92969  19.948  28.132   4.127  0.1685  0.0930 -0.4879
49979W        W92970  18.810   7.544   0.501  0.2508 -0.1982  0.1220
49980W        W92971  25.016  12.077  16.447 -0.1319  0.0980  0.0299
49981W        W92972  12.979  30.423  20.657 -0.2464  0.0313 -0.4428
49982W        W92973  33.650   3.811  28.357  0.1523 -0.2445 -0.0324
49983W        W92974  18.639  29.131  26.279 -0.0473  0.2684  0.0719
49984W        W92975   9.142  17.812  26.715 -0.1769 -0.1622  0.3176
49985W        W92976   2.236   4.302  18.408 -0.1530 -0.1037  0.1586
49986W        W92977  34.471  12.368  18.903 -0.0189 -0.2047 -0.1660
49987W        W92978   3.169   7.698  18.745  0.0600 -0.2826  0.1472
49988W        W92979   4.723   1.288  26.602  0.1789  0.0238 -0.1576
49989W        W92980  27.000   5.987  17.727  0.1842 -0.3172  0.4587
49990W        W92981  17.258  11.919  15.132 -0.0064 -0.0700  0.4758
49991W        W92982   2.484  27.980  21.079  0.0189  0.2130  0.0560
49992W        W92983   3.996  26.228  17.123  0.0381 -0.0192 -0.4172
49993W        W92984   7.592   5.243  20.960  0.2618  0.0497  0.0828
49994W        W92985  18.215  25.731  21.977 -0.0479  0.1291 -0.4874
49995W        W92986  15.039   5.612   1.981  0.5629 -0.1158  0.1180
49996W        W92987  11.233  26.116  17.570 -0.0202 -0.2131 -0.2251
49997W        W92988  12.310  33.266  24.791 -0.1932 -0.1126  0.2055
49998W        W92989   7.795  25.306   5.773  0.3210  0.0059 -0.3703
49999W        W92990   3.507  10.544  28.548  0.0698  0.1396 -0.3319
50000W        W92991  13.297  33.288  15.663  0.2447  0.1220  0.1999
50001W        W92992  19.720   0.182   4.690  0.2227 -0.1543  0.2918
50002W        W92993  18.831  26.647  21.398 -0.2051  0.2496 -0.3063
50003W        W92994  23.982   0.297   5.050  0.0229  0.1127 -0.2317
50004W        W92995  14.494   6.001  18.483 -0.0736 -0.0066 -0.0349
50005W        W92996  29.556  30.567  26.552  0.0453  0.1665  0.1313
50006W        W92997  13.534  31.590  14.633  0.2453 -0.0298 -0.0522
50007W        W92998  19.098  11.839  27.486 -0.2546  0.1428 -0.2023
50008W        W92999   0.690   4.908   5.709  0.0468 -0.0952  0.1580
50009W        W93000   2.988  33.030  16.964 -0.3128  0.0039  0.2124
50010W        W93001  20.673  33.778  28.910 -0.0411  0.1058  0.1160
50011W        W93002  18.712  31.623  17.815  0.0181 -0.0433 -0.2225
50012W        W93003  21.913   9.099  20.603  0.1898  0.2817  0.0457
50013W        W93004  11.401   0.127  25.851 -0.0554 -0.0589 -0.0337
50014W        W93005  30.450  12.826  26.610 -0.0629 -0.1648  0.0318
50015W        W93006   6.702   0.688  29.058 -0.2406  0.0772  0.0150
50016W        W93007  16.804  20.559  21.048 -0.1805  0.0543 -0.3529
50017W        W93008  22.357  15.108  19.060 -0.0261  0.1010 -0.1039
50018W        W93009  22.640  22.177  24.093  0.0104 -0.0608  0.3227
50019W        W93010  11.349  18.701  18.473 -0.0132 -0.2742  0.2575
50020W        W93011  13.741  16.223  14.620  0.1988 -0.4626 -0.2487
50021W        W93012   4.215  23.557   3.457  0.3947  0.1680  0.3319
50022W        W93013   5.008   2.462   7.499  0.2611 -0.3746 -0.1314
50023W        W93014  33.460  10.951  17.130 -0.1159 -0.1619 -0.0461
50024W        W93015  17.094   2.607  18.356  0.0150  0.0884  0.2319
50025W        W93016  23.372  34.486  14.684  0.4180 -0.1382 -0.0834
50026W        W93017  28.586  29.840  22.991  0.2048  0.2829  0.3368
50027W        W93018  16.120  25.717  18.647 -0.3914  0.0611  0.1204
50028W        W93019   7.603  25.040  28.092 -0.0867  0.0045  0.0569
50029W        W93020  33.588  22.139  18.983  0.1315 -0.3174 -0.0733
50030W        W93021  29.638  30.688  23.118  0.0439  0.0255 -0.1486
50031W        W93022   5.297  20.180  22.689 -0.1893 -0.0334  0.0660
50032W        W93023  15.064  26.755   0.840 -0.0259  0.0823  0.2468
50033W        W93024  34.692  17.837  28.193  0.1299 -0.0207 -0.1387
50034W        W93025  13.644  13.895  15.526  0.1895 -0.1911 -0.1165
50035W        W93026   4.867  12.552  24.525 -0.3238  0.3603 -0.0801
50036W        W93027  25.445  28.877   4.293  0.0235 -0.0821  0.2546
50037W        W93028   6.502  23.254  21.729  0.1804  0.1111  0.0507
50038W        W93029   1.681  25.360  20.312 -0.1084  0.1069 -0.2010
50039W        W93030   5.980  28.958   4.128 -0.2358  0.1296 -0.2117
50040W        W93031  29.501  25.301  21.845 -0.0657  0.1558  0.0266
50041W        W93032  14.433  33.294  28.645  0.0731 -0.2191  0.4745
50042W        W93033  18.126  33.342  14.178 -0.0695 -0.0414 -0.2671
50043W        W93034   3.189  27.057   0.227 -0.0076 -0.0905  0.1383
50044W        W93035   1.640  26.075  14.211  0.1612  0.2618  0.1859
50045W        W93036  14.157   8.651   3.096  0.2472  0.1876  0.0269
50046W        W93037  10.838  22.619  19.008  0.2500 -0.0146 -0.1407
50047W        W93038  11.197  17.132  27.974  0.0355 -0.0145 -0.2622
50048W        W93039  11.672  33.718  16.540  0.1067 -0.0360  0.0193
50049W        W93040  13.096  31.081   1.392 -0.2183  0.0482  0.0381
50050W        W93041  12.540  18.711   1.466 -0.1094  0.0604  0.0664
50051W        W93042  14.521  16.954  15.942 -0.1441 -0.2763 -0.1301
50052W        W93043  21.547  32.908  15.039 -0.6934  0.0960  0.0456
50053W        W93044  10.153   0.930  27.780  0.1606  0.1345  0.1275
50054W        W93045   8.429  30.529  21.029 -0.0606 -0.1163  0.0504
50055W        W93046  15.275  29.437  26.136  0.0207  0.2245 -0.1533
50056W        W93047  22.631  20.321  13.288  0.3658  0.1931 -0.0518
50057W        W93048   9.141   0.745   1.449 -0.2161  0.2602 -0.1777
50058W        W93049  11.656  31.966  14.445 -0.0471 -0.0130 -0.0152
50059W        W93050   3.712  32.892  17.374 -0.2520  0.5903  0.0669
50060W        W93051  34.527  30.213  16.977 -0.2955 -0.0749 -0.1203
50061W        W93052  11.862  31.341  19.059 -0.3552  0.2217 -0.1311
50062W        W93053   1.855  31.691  27.774  0.1525 -0.1457 -0.4154
50063W        W93054   3.615   4.244  16.569 -0.0436  0.0679 -0.2428
50064W        W93055   4.673   0.988  25.366 -0.1079 -0.0360  0.2079
50065W        W93056   4.349  27.736  21.336  0.1713  0.1971 -0.1353
50066W        W93057  12.467  29.812  14.751  0.2576  0.0292  0.1972
50067W        W93058  25.623   6.293   4.174 -0.0610  0.0643  0.1208
50068W        W93059  12.525  14.664  16.062  0.0692  0.2854  0.1184
50069W        W93060  10.334  26.206  15.621  0.0460 -0.1413 -0.2268
50070W        W93061  11.806  27.488   9.499 -0.1817 -0.4170  0.0825
50071W        W93062   1.825  11.816  23.547  0.1820  0.2018  0.0451
50072W        W93063  10.650  26.028  28.508  0.0689  0.0320 -0.0180
50073W        W93064  33.085   7.795  25.237 -0.2306 -0.1384  0.1975
50074W        W93065  33.263  22.640   0.646 -0.0756  0.2013  0.0804
50075W        W93066  20.035  27.066  25.027  0.0897  0.2837  0.0234
50076W        W93067  13.047  27.823  21.952  0.3144  0.1017  0.1248
50077W        W93068  25.106  26.417  14.484  0.2099  0.0240  0.0564
50078W        W93069   3.749  10.032  18.179 -0.0931  0.1153 -0.1841
50079W        W93070   7.704  25.064  24.303  0.1572 -0.1304 -0.1494
50080W        W93071  16.004  33.348  20.940  0.3708 -0.2723 -0.2259
50081W        W93072  34.122  19.370   4.951  0.1989  0.1652 -0.1688
50082W        W93073   5.733  10.950  26.344 -0.0599  0.0789  0.4658
50083W        W93074  29.306  31.776   5.203  0.1684  0.1535 -0.0462
50084W        W93075  13.070  30.441  17.496 -0.1247 -0.1121  0.0327
50085W        W93076  26.405  26.979  15.803 -0.4056  0.0652 -0.2782
50086W        W93077  14.482  23.660  23.001 -0.0726  0.3541 -0.0738
50087W        W93078   1.024   7.388  17.929  0.1265  0.3461  0.0826
50088W        W93079   4.280  31.463  15.744 -0.0795  0.3855 -0.0950
50089W        W93080   2.542  31.145  14.227  0.1687  0.1009  0.0177
50090W        W93081  34.482   3.309  15.913 -0.5379 -0.0190 -0.0684
50091W        W93082   6.690  33.481  23.698 -0.2259 -0.1320 -0.1730
50092W        W93083   2.572  10.660  24.918 -0.0034  0.0995 -0.0370
50093W        W93084   8.052  10.578   7.353 -0.2527 -0.0706  0.0249
50094W        W93085   8.852   6.638  21.034 -0.1630 -0.0066 -0.2586
50095W        W93086  28.107  28.375  21.580  0.0521 -0.1063 -0.2435
50096W        W93087  19.765   6.750  22.897 -0.0830  0.2501  0.0181
50097W        W93088  19.869   1.496  25.510 -0.0210  0.4924  0.0419
50098W        W93089   3.078  23.034   5.682 -0.0282 -0.0571  0.2979
50099W        W93090   6.122  34.358  16.468 -0.1249  0.5073 -0.0539
50100W        W93091  31.791  20.130  18.202 -0.1790 -0.1802  0.2380
50101W        W93092  31.748  32.599   4.927 -0.0030  0.2137  0.1380
50102W        W93093  17.676  24.974  18.687 -0.2010 -0.4213 -0.2749
50103W        W93094  30.456   7.158  16.000  0.0233  0.4032  0.0576
50104W        W93095   6.659  32.486  21.440  0.0466 -0.3353  0.1709
50105W        W93096  11.822  31.765  24.770  0.0779 -0.0421 -0.1998
50106W        W93097  11.104  10.844  24.013  0.0507 -0.2279  0.0254
50107W        W93098  16.728  33.591  15.961 -0.1007  0.2494  0.1087
50108W        W93099  12.312  15.709  26.373  0.0868 -0.2982  0.0269
50109W        W93100   3.070  24.063   7.814  0.3469 -0.4896 -0.0469
50110W        W93101  32.095  13.340  26.907  0.4135 -0.3061  0.0611
50111W        W93102   3.056  21.898   2.779 -0.1592  0.0250  0.1623
50112W        W93103  33.540  14.260  19.731  0.0807  0.2141  0.1946
50113W        W93104  17.245  24.545   0.284  0.1296  0.1470  0.5198
50114W        W93105  11.118  16.531  25.306 -0.1671  0.0312 -0.0716
50115W        W93106  15.028  15.723   0.049 -0.1913  0.0611 -0.1876
50116W        W93107  17.396   6.253  15.558  0.0232  0.0678  0.0357
50117W        W93108   6.237  26.167   3.723 -0.1790 -0.0665  0.0872
50118W        W93109  34.510  30.224  21.004 -0.0573 -0.0857 -0.1984
50119W        W93110  13.378  28.490  27.024  0.0171  0.1578 -0.1373
50120W        W93111   8.423  23.639  21.779 -0.3374  0.3069  0.0495
50121W        W93112  12.791   9.360  17.020  0.0570 -0.3155  0.2432
50122W        W93113   2.459  34.092  27.398 -0.0320 -0.0079  0.3203
50123W        W93114  24.228  32.707  20.024  0.0586 -0.2606 -0.1524
50124W        W93115  12.859   1.094  27.887  0.0348 -0.0137 -0.3416
50125W        W93116   7.587   4.216  16.071 -0.5872 -0.0619  0.0691
50126W        W93117  10.258  30.244  23.118 -0.0520 -0.2531 -0.1562
50127W        W93118  24.052  25.215  25.676 -0.0173 -0.3253 -0.0719
50128W        W93119  30.170  32.996   2.756 -0.0004 -0.0558 -0.0799
50129W        W93120   5.261  24.940   8.431 -0.1284  0.3265  0.0388
50130W        W93121   3.783  29.747   4.432 -0.0897  0.0976  0.1000
50131W        W93122   3.540   5.971   0.279  0.0358 -0.2467 -0.3862
50132W        W93123   5.403  32.284  22.257  0.0369  0.2947 -0.0163
50133W        W93124  10.002   1.692  17.137 -0.1981  0.1771 -0.1604
50134W        W93125  29.786   2.462  29.010  0.0157  0.0746  0.1691
50135W        W93126  32.432  29.150  14.477 -0.0881  0.1332  0.0112
50136W        W93127  18.050  22.936  20.999 -0.1938  0.1488 -0.0265
50137W        W93128  25.814  19.428  18.294 -0.2328  0.3674  0.0780
50138W        W93129   6.026  17.412  19.613 -0.1370  0.0954 -0.1107
50139W        W93130  27.824   8.968  14.858 -0.2440  0.0547 -0.1041
50140W        W93131  24.163  31.191  25.205 -0.4565  0.0745 -0.2970
50141W        W93132   4.821  15.005  16.242 -0.0233  0.1656  0.2083
50142W        W93133  32.347   1.693   0.086 -0.0988 -0.0961 -0.0116
50143W        W93134   2.899  32.410  25.232  0.2795 -0.1800  0.4800
50144W        W93135  22.805  18.414  17.893  0.0120 -0.0378 -0.2906
50145W        W93136  14.244  30.531  16.884  0.2323  0.0365  0.2701
50146W        W93137  16.069  23.645  18.413 -0.0834  0.3377  0.0891
50147W        W93138  26.759   0.321  15.660 -0.1575  0.0699  0.4732
50148W        W93139  21.990  33.023   3.328 -0.0353 -0.0593  0.1311
50149W        W93140  19.261  27.666  24.811  0.1487 -0.0887 -0.0229
50150W        W93141  22.536   2.549  19.172  0.3886 -0.0199  0.2681
50151W        W93142   7.278  34.403  28.505  0.0523 -0.3208 -0.0068
50152W        W93143  12.373   3.965  23.864  0.1368  0.1114  0.0657
50153W        W93144  14.127  33.157  21.818 -0.1657  0.2801 -0.2386
50154W        W93145  28.191  14.986  19.456  0.2449  0.2012  0.1034
50155W        W93146  10.348  10.404  19.028  0.0201 -0.1634  0.1901
50156W        W93147   9.999   9.324  26.160  0.3474  0.1208 -0.4214
50157W        W93148  14.376  10.753   9.597 -0.0607  0.0982 -0.2365
50158W        W93149   3.999   6.133  11.259  0.0469  0.0458 -0.1329
50159W        W93150  33.802   0.076  18.254 -0.2568 -0.0506  0.1349
50160W        W93151  32.485  28.693  25.840 -0.1080  0.1152  0.0540
50161W        W93152  18.278  29.744   6.395 -0.0496  0.5731  0.1016
50162W        W93153   4.371  30.341  19.448  0.0255  0.0288  0.1674
50163W        W93154  19.681  11.079  14.681 -0.0169 -0.0965 -0.3037
50164W        W93155  19.367  21.283  14.034  0.4589 -0.0808  0.0095
50165W        W93156  26.082  18.028  25.731 -0.1220  0.0145 -0.1117
50166W        W93157  17.232   8.732   0.851 -0.0482 -0.0464  0.2793
50167W        W93158  18.865   0.879  28.004  0.1047 -0.0831 -0.3026
50168W        W93159  20.533  13.575  16.023  0.1107 -0.0199 -0.1539
50169W        W93160   8.287   0.615  17.549  0.2704 -0.1255 -0.0246
50170W        W93161   5.562   1.026  22.060  0.2999  0.1793  0.1293
50171W        W93162  20.657   5.681  22.201  0.2347 -0.0673  0.0618
50172W        W93163  23.548   1.023  17.764 -0.0929  0.0634  0.0181
50173W        W93164   5.558  13.424  28.141 -0.0216 -0.1018  0.1959
50174W        W93165   3.605  33.369  15.102  0.1823  0.0767 -0.3697
50175W        W93166  16.445  34.726   0.260 -0.0266 -0.0835 -0.3130
50176W        W93167  17.036   3.524  27.013 -0.1435  0.0190  0.3649
50177W        W93168  18.048  32.753  23.306 -0.1731 -0.0622 -0.1514
50178W        W93169   7.643   2.824  22.365 -0.1029 -0.2295 -0.3038
50179W        W93170  13.443  34.772  16.977 -0.0781  0.0728  0.0457
50180W        W93171  16.899  13.907   6.729  0.0660 -0.2062 -0.2303
50181W        W93172  29.102   7.313   8.046 -0.1169  0.1307 -0.1644
50182W        W93173   8.805  29.631  20.615  0.3506 -0.0729 -0.0553
50183W        W93174  14.157   5.057  23.951 -0.1458  0.2498  0.1147
50184W        W93175  30.482  26.433  28.112  0.0246 -0.1976  0.1568
50185W        W93176   5.319   7.426   3.369 -0.0233  0.0151  0.0682
50186W        W93177  34.447   6.988   1.328 -0.2389 -0.4013 -0.0906
50187W        W93178  34.322  34.742  16.671  0.1631 -0.3274  0.0031
50188W        W93179  12.679   8.726  18.631  0.2048  0.2355 -0.3137
50189W        W93180   0.928  28.232  21.423 -0.2056  0.2646 -0.1239
50190W        W93181  32.296  25.997  21.128 -0.0764  0.1326 -0.0778
50191W        W93182  24.469  17.827  28.931  0.0949 -0.0911  0.0574
50192W        W93183  20.909   5.617  16.783  0.1147 -0.2719 -0.1361
50193W        W93184  11.471   3.431  17.245  0.4806  0.1683  0.1241
50194W        W93185   4.739  26.257  28.214  0.0236  0.0836 -0.1033
50195W        W93186   0.596   6.669   0.040 -0.0691  0.2295 -0.1896
50196W        W93187   3.604  27.612  14.567  0.1896  0.1057 -0.1810
50197W        W93188   2.931  15.095   1.169  0.0091 -0.0271  0.0065
50198W        W93189  15.092  29.050  21.197 -0.1771 -0.1108  0.1973
50199W        W93190  19.877  27.757   7.934  0.0505  0.2480 -0.1092
50200W        W93191  30.989  18.309  25.514  0.4631 -0.1717 -0.1258
50201W        W93192  19.552  33.364  20.342  0.1138  0.1543 -0.0079
50202W        W93193  15.961  34.358  21.762 -0.1088 -0.0356 -0.0105
50203W        W93194  17.834  24.940  22.194  0.0034  0.1790 -0.0400
50204W        W93195  11.162  27.542  21.971 -0.3076  0.0661  0.0140
50205W        W93196  19.074   4.887  15.300 -0.3322  0.3962 -0.2711
50206W        W93197  10.634  18.391  22.039  0.3436 -0.0124 -0.1006
50207W        W93198  13.489  19.346  14.000 -0.1804  0.4000  0.2536
50208W        W93199  30.367  18.135  16.631 -0.0493 -0.1672 -0.0072
50209W        W93200  30.494  27.990  16.726 -0.3143 -0.1179 -0.0786
50210W        W93201  11.381  14.746   1.039 -0.0818 -0.0320 -0.1831
50211W        W93202   9.760  31.902  23.765 -0.0134  0.1045  0.0454
50212W        W93203   4.104  31.265  22.015  0.2572  0.1543 -0.1778
50213W        W93204  19.016  33.916   6.663  0.2769  0.1348  0.2555
50214W        W93205   3.479   0.323  15.095  0.2356  0.1048 -0.1179
50215W        W93206  34.328  31.241  18.737 -0.3423  0.1681  0.3240
50216W        W93207   9.498  23.595  17.463 -0.2434 -0.2070  0.0229
50217W        W93208   3.831  21.895  22.185 -0.2799  0.0792  0.3066
50218W        W93209   8.298   1.749  21.532 -0.0913  0.2582  0.0688
50219W        W93210   3.841  24.749  19.256 -0.1624  0.1959 -0.1578
50220W        W93211  12.985  31.595  24.140 -0.0270 -0.0558  0.1463
50221W        W93212  12.707   3.174  22.436 -0.4158  0.1398  0.1032
50222W        W93213  13.233  19.939  28.419 -0.4566  0.0852  0.0357
50223W        W93214  11.213  11.416   5.546  0.0625 -0.4217  0.0027
50224W        W93215   8.953  25.116  18.055 -0.0024 -0.0513  0.0598
50225W        W93216  21.846  28.659  24.796  0.0742 -0.0474  0.3048
50226W        W93217   9.333  29.181   5.169 -0.2332  0.0318  0.2275
50227W        W93218  13.484  30.181  10.106 -0.0976  0.1337  0.1661
50228W        W93219  13.097  29.102  23.116 -0.2812  0.3987  0.0358
50229W        W93220  12.773  34.226  24.892  0.0639 -0.1777  0.1918
50230W        W93221  21.218  26.608  17.362 -0.0767  0.0552 -0.1373
50231W        W93222   0.996   9.936   0.319  0.1807 -0.4419  0.2149
50232W        W93223   2.631  34.628  20.712  0.1501  0.2284  0.3258
50233W        W93224   5.694  30.376  24.118 -0.0003  0.4134 -0.3453
50234W        W93225  11.941  31.838  25.603 -0.1179 -0.1123 -0.1289
50235W        W93226  11.197   9.065   7.296  0.0594  0.2964  0.0380
50236W        W93227  21.838  30.579  19.492  0.1008  0.0556 -0.0790
50237W        W93228  15.552  29.533   3.487 -0.0025 -0.1078  0.1223
50238W        W93229  11.552  28.705  17.828  0.1640  0.0918 -0.1220
50239W        W93230   7.974  22.365   0.294  0.0246 -0.1225 -0.1833
50240W        W93231  32.924  24.052  21.335 -0.1965 -0.0128 -0.1813
50241W        W93232   1.474  23.807  14.838  0.1920  0.4240 -0.2039
50242W        W93233   4.502  31.206   7.038  0.0442 -0.1838  0.0860
50243W        W93234  14.302   6.273  24.863  0.0673 -0.0169  0.0524
50244W        W93235  18.022  31.074  25.961 -0.2306 -0.2497 -0.0692
50245W        W93236  28.728  12.121   8.677 -0.2127  0.3068 -0.0050
50246W        W93237  20.108  30.221   7.567 -0.1624 -0.0799 -0.3274
50247W        W93238   6.516  33.852  24.015 -0.0440  0.0970  0.1655
50248W        W93239  13.820  26.412  18.823 -0.0627 -0.1389 -0.1186
50249W        W93240  28.857   6.921  17.095 -0.0290  0.0323 -0.1397
50250W        W93241  30.206  28.840  16.642  0.0205 -0.0322  0.2326
50251W        W93242  21.491  25.822  28.272  0.3746  0.1580  0.1047
50252W        W93243   4.096  22.012   4.452  0.2080  0.1937  0.0089
50253W        W93244  26.745   1.007  16.285 -0.0724  0.0436  0.0884
50254W        W93245  28.302   8.066  17.859 -0.0048 -0.2469 -0.1005
50255W        W93246  19.820  22.052  22.357  0.0598 -0.1314 -0.1601
50256W        W93247  16.918  26.403   7.723 -0.0115  0.0037  0.3861
50257W        W93248  24.332  28.884   4.905 -0.2111 -0.0962  0.2099
50258W        W93249   5.678   0.714   5.891  0.1268 -0.1488  0.0340
50259W        W93250  10.989  17.671  28.585 -0.3623  0.3348  0.1977
50260W        W93251   1.014   0.754  22.168 -0.0333  0.0109 -0.0510
50261W        W93252  11.650  25.580  25.653  0.0381 -0.0357 -0.2396
50262W        W93253  19.670   0.241   1.872 -0.2030  0.2176 -0.0649
50263W        W93254   3.131   2.116   6.606  0.1628  0.1434 -0.1014
50264W        W93255   1.782   9.919  27.396 -0.0832 -0.0943  0.1418
50265W        W93256   8.417  27.100   2.436  0.2617 -0.0799 -0.0213
50266W        W93257  30.766   7.996  25.627  0.1283 -0.0250 -0.2423
50267W        W93258   9.009   8.228  25.666 -0.0021 -0.2306 -0.1950
50268W        W93259  19.235  12.567  16.550 -0.0581 -0.2065 -0.0570
50269W        W93260  23.882   9.517   1.596 -0.0043  0.0107  0.4123
50270W        W93261  19.079  32.376   2.197 -0.1938  0.3680  0.0584
50271W        W93262  18.964  33.090  28.364 -0.1535  0.3023  0.0128
50272W        W93263  11.164   4.569   8.740 -0.2651 -0.2599 -0.2907
50273W        W93264   9.722  27.192  15.823 -0.2871 -0.2095  0.0581
50274W        W93265  32.209   6.495   2.104  0.1148 -0.1294  0.4413
50275W        W93266  34.054  24.289  28.123 -0.1653 -0.1051  0.0523
50276W        W93267   2.592   5.835  21.235 -0.3040 -0.1583  0.1163
50277W        W93268   7.707  22.885  19.017 -0.0599  0.0050 -0.3331
50278W        W93269  12.235   5.189  23.826  0.3552  0.2171 -0.0917
50279W        W93270  18.192  13.053   3.459 -0.2697  0.0831  0.0300
50280W        W93271   3.910  31.186  22.465  0.0505  0.0032  0.1857
50281W        W93272  24.908   7.791  14.415 -0.2234  0.0117 -0.2203
50282W        W93273  10.974  21.425  28.685  0.0973  0.1733 -0.0119
50283W        W93274  34.693  28.279   2.193  0.1604  0.1679  0.1981
50284W        W93275  18.053  27.208   1.602 -0.2042 -0.2433  0.1822
50285W        W93276  18.379  33.585   7.701 -0.0119 -0.0563 -0.0421
50286W        W93277   7.852   5.023   0.739 -0.0552 -0.1165 -0.0037
50287W        W93278  33.386  15.496  11.229  0.2024  0.2021 -0.0485
50288W        W93279   4.525   8.104  19.485 -0.0459  0.2686 -0.4662
50289W        W93280   0.083  33.166  20.702 -0.4142 -0.2811  0.1197
50290W        W93281   3.209  24.128   2.678  0.1029  0.1789 -0.2056
50291W        W93282  25.743  25.621  19.626  0.0264  0.3887 -0.1725
50292W        W93283  18.166  25.976  26.858 -0.1656 -0.1930  0.2690
50293W        W93284  13.193  28.572  23.576  0.2157  0.1193  0.2362
50294W        W93285  10.677  29.910   5.861  0.0140  0.3554 -0.2478
50295W        W93286   8.594  32.586  25.434  0.0623 -0.0499 -0.1092
50296W        W93287   1.086  25.103   5.614  0.0922 -0.3178  0.1331
50297W        W93288   4.796  34.081  16.555  0.0175 -0.1034  0.0479
50298W        W93289  10.282  23.764   0.289 -0.1401  0.0999 -0.1196
50299W        W93290  33.660  28.811  21.039 -0.1243  0.2545  0.0039
50300W        W93291   2.398   1.273   8.379 -0.2786 -0.0131 -0.4079
50301W        W93292   3.038  20.721  10.510 -0.0330 -0.2511  0.3230
50302W        W93293  25.422  31.040  27.026 -0.0210  0.0413 -0.1610
50303W        W93294  15.148  32.206  14.017 -0.1753 -0.1168  0.0556
50304W        W93295  12.117  22.182  27.271 -0.0839  0.3061 -0.4170
50305W        W93296   7.397   4.743   3.296  0.0340  0.0010  0.0280
50306W        W93297  33.296   7.485  22.655 -0.2584 -0.3360 -0.2009
50307W        W93298  13.511   1.275   4.028 -0.0220 -0.0585  0.0907
50308W        W93299  12.005  25.308   8.771  0.0884 -0.0575  0.1333
50309W        W93300   1.133  28.660   3.984  0.2680  0.1917 -0.0072
50310W        W93301  18.880  19.036   1.683 -0.1387  0.0827 -0.0385
50311W        W93302   6.218  34.555  23.662  0.1066  0.0910 -0.2238
50312W        W93303  11.291  13.267   7.357 -0.2297  0.2347  0.0208
50313W        W93304   5.778  32.989  14.903 -0.2590  0.1436 -0.0258
50314W        W93305  14.754  32.078  29.099 -0.1304  0.0348  0.0607
50315W        W93306  11.245   4.149  19.675  0.0849  0.1068 -0.2373
50316W        W93307   6.440   1.927  21.488 -0.4026  0.0207 -0.1093
50317W        W93308  26.877   0.847  14.371  0.2798  0.1060 -0.1470
50318W        W93309  26.972  10.844  20.360 -0.4402 -0.0094  0.0323
50319W        W93310   5.867  23.391   6.396  0.2388  0.0687  0.0018
50320W        W93311  33.373   0.346   6.536  0.0742  0.0139 -0.1198
50321W        W93312  33.607  31.923   7.178  0.1806 -0.1843 -0.1677
50322W        W93313   0.678  25.705  23.271 -0.0669 -0.3916  0.1446
50323W        W93314   8.470  23.140  22.846 -0.1638  0.0794 -0.3059
50324W        W93315   3.129  23.950  21.242  0.0966 -0.2414  0.0537
50325W        W93316   6.453  25.646   2.249 -0.3864  0.1055  0.1604
50326W        W93317   1.561  23.697   9.250  0.1377  0.3117 -0.0382
50327W        W93318  26.696   2.499  13.592  0.2500 -0.0983 -0.1681
50328W        W93319  10.289   7.216  25.178 -0.0105  0.1433 -0.1989
50329W        W93320   1.458   6.385  20.769  0.0714  0.1124 -0.1363
50330W        W93321  28.489  24.729   4.938  0.2393  0.3329 -0.2054
50331W        W93322   3.353  25.905   1.190 -0.1918 -0.1068  0.1235
50332W        W93323   7.334  25.670  23.063 -0.2156  0.0507 -0.1463
50333W        W93324   7.058   5.032  21.185 -0.1553  0.4374  0.1377
50334W        W93325  13.290  34.476  28.808 -0.0489  0.0515 -0.1633
50335W        W93326  18.864  34.407   6.839  0.0291 -0.0750  0.0659
50336W        W93327  16.843  26.783   9.287 -0.3061 -0.1439 -0.0504
50337W        W93328   9.882  26.988  28.936 -0.0794 -0.2074 -0.0225
50338W        W93329  20.716  33.514  28.497  0.1649  0.3493 -0.1517
50339W        W93330  19.639  31.771   0.798  0.0644 -0.1408 -0.3330
50340W        W93331  10.589  22.031   6.056 -0.3233 -0.1509  0.2262
50341W        W93332  25.774   5.120  14.256  0.0958  0.0555  0.0955
50342W        W93333  18.168   0.276  20.066  0.1835  0.1600 -0.0750
50343W        W93334  29.233  19.258  19.348 -0.2789  0.1990  0.1017
50344W        W93335   5.341   5.820   3.455  0.2544 -0.1763 -0.1910
50345W        W93336   2.942  12.989   4.969 -0.3210  0.1864  0.2592
50346W        W93337  21.706   3.150  28.998  0.1792  0.1251 -0.3347
50347W        W93338   7.545  24.118  22.838 -0.3162  0.1630  0.1011
50348W        W93339   2.340  29.894  10.159 -0.1884 -0.0854  0.0236
50349W        W93340  13.858  34.309  14.666  0.0751 -0.1202 -0.1297
50350W        W93341   4.270  33.693   5.370  0.1926  0.2767 -0.1523
50351W        W93342  12.190  33.183  25.577  0.1629  0.1397  0.2429
50352W        W93343   7.779   7.551  25.990 -0.0540  0.2496 -0.3469
50353W        W93344  27.668  20.365  14.450 -0.1435  0.0572 -0.1362
50354W        W93345   1.971   8.761  26.927 -0.2145  0.0492 -0.2682
50355W        W93346  12.840  28.217  17.480 -0.0580  0.1412  0.5885
50356W        W93347   1.180  30.855   5.683 -0.1272  0.0519  0.0556
50357W        W93348   6.542  15.660  16.781  0.0304  0.2072  0.1113
50358W        W93349  34.624  26.466  14.736 -0.1169  0.3080 -0.0349
50359W        W93350  18.158  26.709  15.689  0.0520  0.3525 -0.0166
50360W        W93351  12.899  34.486   7.468  0.0209  0.2721  0.0404
50361W        W93352  20.953  29.878  18.134 -0.1450 -0.1884  0.2911
50362W        W93353  16.680  33.883  21.532  0.2338 -0.1498  0.1501
50363W        W93354   2.683  32.299  22.035 -0.1641  0.2258 -0.0019
50364W        W93355  24.343   6.795   1.183  0.2365 -0.1119 -0.2822
50365W        W93356  32.648  30.432   6.481 -0.1130 -0.1028  0.0985
50366W        W93357  28.963   4.303  24.668  0.0766 -0.2221 -0.2029
50367W        W93358   3.052  26.750  25.880 -0.1248  0.3554 -0.0595
50368W        W93359   2.503  28.310  27.727  0.1253 -0.0077  0.3473
50369W        W93360  22.030   3.059  24.591  0.0715 -0.0320 -0.1343
50370W        W93361  24.559  32.439  17.398 -0.5091  0.2145 -0.0876
50371W        W93362  18.625  20.849   7.259  0.0199  0.2496  0.2933
50372W        W93363  11.619  10.102   0.896  0.0287 -0.1285  0.1540
50373W        W93364  32.164  11.942   6.780 -0.4261  0.3237  0.0946
50374W        W93365   3.909  11.922  22.670 -0.0797 -0.1588 -0.1437
50375W        W93366   2.643  31.658  24.688  0.0370  0.0853 -0.1339
50376W        W93367  16.746   2.646   0.637 -0.2177 -0.0103  0.0938
50377W        W93368  20.808  33.521   1.555  0.1032  0.2524  0.1784
50378W        W93369   3.145   4.220  23.112 -0.0683  0.3279  0.5077
50379W        W93370  10.403  13.709  28.779  0.0290  0.1256  0.1001
50380W        W93371   1.100  12.307  15.324  0.2181 -0.0404 -0.2377
50381W        W93372  32.698  15.534   1.552 -0.0534 -0.1685  0.2142
50382W        W93373   5.702  32.786  23.976  0.0073 -0.0996  0.2642
50383W        W93374  15.164   3.909   4.475  0.1321 -0.1529 -0.1201
50384W        W93375  27.232  32.017   0.169  0.2162 -0.0376  0.1366
50385W        W93376  17.956  28.758  19.127  0.1383  0.0007  0.0991
50386W        W93377  10.383  21.085  21.151 -0.1594  0.0831  0.0372
50387W        W93378  21.209  16.761   0.374  0.0839  0.3113 -0.1862
50388W        W93379  10.844  13.661   3.958 -0.0427 -0.1356  0.1610
50389W        W93380  21.109  27.185  22.160  0.1110  0.0043 -0.1227
50390W        W93381  18.785   0.323  24.721 -0.2240 -0.0077  0.1182
50391W        W93382  22.386   0.139   5.633 -0.1931 -0.0797 -0.0739
50392W        W93383   4.383  28.659   4.420  0.0710  0.1645 -0.1257
50393W        W93384   4.044  31.299   2.056 -0.3405  0.0217  0.0431
50394W        W93385   2.206   0.404  29.015  0.1925  0.2037  0.4389
50395W        W93386  30.676  30.596  15.011  0.1051  0.1222 -0.0615
50396W        W93387  10.926   3.696   5.026  0.4133 -0.0055  0.0850
50397W        W93388  20.275  28.816  17.046 -0.2514  0.1944 -0.1547
50398W        W93389   5.448  12.189   6.065 -0.1824  0.2243 -0.1040
50399W        W93390   8.335  17.224  21.098 -0.0468  0.3413 -0.0766
50400W        W93391  32.147  20.303  25.890 -0.0257  0.0781  0.0598
50401W        W93392  19.110  17.019  24.957  0.1375  0.1326 -0.0594
50402W        W93393   0.056  22.384   4.942  0.0616  0.0089 -0.1334
50403W        W93394  13.018  29.220  14.565 -0.1188  0.1224 -0.0703
50404W        W93395   4.545   0.614  10.642  0.0552 -0.0306  0.0285
50405W        W93396  16.775  12.445   0.276 -0.0187  0.0902  0.1778
50406W        W93397   8.540   7.242  25.612  0.2730 -0.0146 -0.0079
50407W        W93398   3.206  17.953  28.378 -0.2725 -0.2681  0.4208
50408W        W93399  14.272   2.664  23.294 -0.0586 -0.0399  0.0083
50409W        W93400  29.853  17.696   3.584  0.1813 -0.0721  0.0187
50410W        W93401  21.659   1.356   2.735 -0.2559 -0.1713  0.0086
50411W        W93402  33.259  14.488  25.707 -0.1394 -0.0489  0.0334
50412W        W93403   4.638   5.816   5.281  0.1077  0.2898  0.0629
50413W        W93404   6.837   3.904   4.683 -0.3829  0.0014  0.1118
50414W        W93405   1.418  22.314   6.366  0.0569 -0.1092 -0.0194
50415W        W93406   6.636   7.142  29.017  0.3633  0.0528 -0.2439
50416W        W93407  24.553  20.761  29.025 -0.4975  0.2786 -0.0502
50417W        W93408  25.830   5.699  21.759 -0.0010  0.0696  0.3135
50418W        W93409  29.002   6.039   4.512 -0.1395  0.0598  0.3602
50419W        W93410  10.369  30.392   8.596 -0.1862 -0.0781  0.0258
50420W        W93411  18.440  16.245   0.781  0.2240 -0.1693 -0.1985
50421W        W93412  11.566  19.327  13.039 -0.1887  0.0354  0.5199
50422W        W93413   9.312   1.571  15.652 -0.0865 -0.0752  0.1425
50423W        W93414  33.400   8.622  14.673 -0.4159 -0.1743  0.1295
50424W        W93415   8.750  26.911  22.658  0.1849  0.0742  0.0997
50425W        W93416   2.529  32.240  14.439  0.3216  0.0662  0.1445
50426W        W93417   3.583  18.806  22.120 -0.1566 -0.2367  0.1418
50427W        W93418   1.918  28.549   5.707 -0.2266 -0.0857 -0.1749
50428W        W93419   6.229   1.555   9.973 -0.1531  0.0533  0.1013
50429W        W93420   9.478  29.674  25.058  0.1964  0.1076  0.1742
50430W        W93421   2.668   6.584  19.362 -0.1285 -0.1202 -0.0149
50431W        W93422  11.912   3.700   1.603  0.3814 -0.2576  0.1605
50432W        W93423  14.668   6.039  18.019  0.1802 -0.1265 -0.1289
50433W        W93424  26.416  29.131  22.037  0.0196  0.0730  0.5845
50434W        W93425   1.249  12.232   4.402 -0.1866  0.0098  0.0581
50435W        W93426  19.055   2.509   2.479 -0.1075  0.0626  0.1994
50436W        W93427   0.196  29.388  25.482  0.0199 -0.0369  0.0814
50437W        W93428  29.897   5.866  26.383 -0.0233 -0.1445 -0.0408
50438W        W93429   3.646   9.945   9.339  0.3789 -0.0857 -0.2942
50439W        W93430   4.136   9.360   2.092 -0.0835 -0.1888 -0.0231
50440W        W93431  12.832  17.638  25.471 -0.1550 -0.3345  0.0039
50441W        W93432   7.429  32.592  22.396 -0.1205  0.0148  0.1389
50442W        W93433  21.457  24.723  23.390 -0.0273  0.1793  0.3376
50443W        W93434  22.994  21.577  13.774 -0.2562 -0.1524  0.3284
50444W        W93435  11.930   1.966  27.383 -0.1034 -0.2338 -0.0111
50445W        W93436  33.351   5.142  26.509 -0.0676  0.2569  0.1294
50446W        W93437  18.631  26.508   1.221  0.1419 -0.1009 -0.0764
50447W        W93438  28.604  17.556  22.987 -0.2956 -0.2350 -0.1062
50448W        W93439   4.392  22.922  19.601  0.0423 -0.1336  0.5763
50449W        W93440  33.821   7.998  24.125 -0.1112 -0.0244  0.0639
50450W        W93441   4.981   1.758   5.388  0.1246  0.2460 -0.0333
50451W        W93442  14.790  19.780   7.010  0.1658  0.1590 -0.1133
50452W        W93443  10.959  15.943  16.681 -0.1912  0.0076  0.1527
50453W        W93444  21.781   1.385  15.311  0.0027  0.0637 -0.0890
50454W        W93445  23.429  34.097  21.255 -0.1147  0.0559 -0.1149
50455W        W93446  33.428  23.333  17.597  0.4044  0.3764  0.0659
50456W        W93447  21.774  14.945   2.138  0.1840 -0.0127  0.0124
50457W        W93448  34.185  26.289  17.018 -0.0799  0.1522  0.1100
50458W        W93449  33.646  15.296  16.575 -0.0644 -0.1101  0.1289
50459W        W93450  16.219  31.947   0.662 -0.3237 -0.1880 -0.0995
50460W        W93451   7.965   1.001  18.143  0.0598 -0.0159  0.0334
50461W        W93452  23.693  25.284  23.411 -0.1806  0.1375 -0.2226
50462W        W93453  19.590  12.743  21.525 -0.1153  0.0071 -0.0259
50463W        W93454  33.993  31.079   7.605  0.0426  0.0145 -0.0781
50464W        W93455   4.513   1.219  10.363  0.0429 -0.3196  0.0503
50465W        W93456  21.926   5.908  15.637 -0.0392 -0.0020 -0.2564
50466W        W93457  20.497  20.545  19.750 -0.0178  0.0065  0.1709
50467W        W93458  31.554   6.211   4.040  0.0624  0.4911  0.1117
50468W        W93459  16.887  33.927   6.759  0.1401  0.1388 -0.0522
50469W        W93460  21.281   0.068  16.475 -0.1336 -0.3824 -0.2777
50470W        W93461  14.067  33.320  28.248 -0.0614  0.0398  0.0479
50471W        W93462  15.712  27.987  10.164 -0.0383 -0.0056  0.1025
50472W        W93463  25.496  13.761   0.283 -0.2578 -0.0201 -0.2773
50473W        W93464   9.107  30.616  23.577 -0.2807  0.1702  0.1934
50474W        W93465  16.224  27.704   9.405 -0.1003  0.1004  0.1126
50475W        W93466   5.330  24.940  19.655 -0.0738  0.2692  0.4469
50476W        W93467   7.514   9.489  20.334 -0.1307 -0.0264 -0.4294
50477W        W93468  11.184  22.775  18.330 -0.1806  0.0520 -0.1943
50478W        W93469  22.812  25.365  15.153  0.1348  0.5419 -0.0383
50479W        W93470  22.068  23.435  23.895  0.0440 -0.1323  0.1586
50480W        W93471  10.408  22.739   3.713  0.2298 -0.1001 -0.0180
50481W        W93472  24.462  28.320  25.195 -0.2294  0.0742 -0.1022
50482W        W93473  13.185  31.646  18.859 -0.0453  0.0820 -0.1824
50483W        W93474  16.234   1.466   9.195  0.0744 -0.0867 -0.0358
50484W        W93475  34.294  22.825  10.850 -0.2592  0.2059  0.4251
50485W        W93476   7.035   0.513   9.891  0.1737  0.0242 -0.0838
50486W        W93477   5.234   2.028   2.652 -0.3175  0.0863 -0.0985
50487W        W93478  23.449   8.752  25.130 -0.1748 -0.1212 -0.0261
50488W        W93479  16.832  33.863   5.676 -0.0332 -0.3151  0.2422
50489W        W93480  16.414  28.332   1.675 -0.2802  0.1915  0.1302
50490W        W93481   0.023   0.977  15.582 -0.0291  0.0301 -0.0555
50491W        W93482  19.445  14.547  19.166 -0.0077  0.0872 -0.1326
50492W        W93483  10.813   3.735   3.659  0.0946  0.1501 -0.1462
50493W        W93484   9.797  30.102  21.197  0.1218  0.1731  0.3324
50494W        W93485  28.401  15.032  25.032 -0.1092  0.0953  0.0589
50495W        W93486  10.076  34.461  27.399 -0.0019 -0.0920  0.0698
50496W        W93487  14.251   9.498  26.302  0.1706 -0.1246 -0.2742
50497W        W93488   1.369   4.714  27.933  0.1566 -0.0998 -0.1284
50498W        W93489   5.741   2.696  26.724  0.1300  0.0273 -0.0984
50499W        W93490   8.241   4.077   4.273  0.2095  0.2471  0.1655
50500W        W93491  19.216  13.815  18.098 -0.1716 -0.1118 -0.0090
50501W        W93492   7.470  29.505  25.303  0.2768 -0.1419  0.2417
50502W        W93493   7.218   5.556  19.808  0.2424 -0.0960  0.2148
50503W        W93494   3.402  20.397   2.591  0.4518 -0.5824 -0.2780
50504W        W93495  30.374   2.908  28.997 -0.3750 -0.1589  0.0914
50505W        W93496   4.653  18.944  23.595 -0.1258 -0.0614 -0.3920
50506W        W93497  31.367   7.979  23.691 -0.0557  0.0031 -0.0449
50507W        W93498   9.406   0.063   9.439  0.0546  0.2218  0.2471
50508W        W93499  17.196  10.705   1.153 -0.0223 -0.0837 -0.0116
50509W        W93500  28.555   8.967  20.334  0.2208  0.4506 -0.3005
50510W        W93501  13.062   9.790  19.086 -0.3604  0.0157  0.2813
50511W        W93502  30.095  32.340  21.397  0.3350  0.0294  0.1119
50512W        W93503  15.473   8.863  16.191  0.0302  0.0463  0.0239
50513W        W93504   8.620   1.761   7.579  0.3063  0.1637 -0.1135
50514W        W93505  22.352  20.449  18.971 -0.1012 -0.1546 -0.2431
50515W        W93506   2.371  27.878   5.015 -0.2437  0.0068  0.1580
50516W        W93507  12.594   2.094  28.122 -0.0858  0.5792  0.1995
50517W        W93508   8.168  18.675  24.644  0.0373  0.1106 -0.0306
50518W        W93509  30.109   0.600  18.080  0.1443  0.0272 -0.2606
50519W        W93510  10.151   4.766  18.060 -0.1378 -0.1277 -0.0588
50520W        W93511  22.475  20.604  29.027  0.0097 -0.1162 -0.0837
50521W        W93512   6.320  24.286  20.951  0.0589 -0.4674  0.0598
50522W        W93513   1.441   3.964  25.935 -0.0204 -0.3240 -0.3092
50523W        W93514  32.198   7.886   5.271  0.1097  0.1757 -0.0585
50524W        W93515   2.717  28.617  14.143 -0.2279  0.1122 -0.2158
50525W        W93516  31.040  11.666  18.554 -0.0361  0.3275 -0.0235
50526W        W93517  16.577  30.143   8.173  0.0150 -0.0418  0.2404
50527W        W93518  24.051  11.730  27.285  0.1801  0.2364  0.0369
50528W        W93519  31.392  10.834  29.220  0.1719  0.2319 -0.1299
50529W        W93520   0.455  25.018  18.447  0.2377  0.0491  0.0201
50530W        W93521  27.457  24.325  21.570  0.1557  0.1611  0.1585
50531W        W93522   0.034   5.654  15.209 -0.0636  0.1242 -0.3683
50532W        W93523  33.139  16.360   9.345 -0.1278  0.1383  0.1201
50533W        W93524  17.165  33.014   7.249  0.0960  0.3505  0.2282
50534W        W93525   4.825  30.617  28.113  0.0343 -0.1412  0.0081
50535W        W93526  19.717  31.441   6.204 -0.3232 -0.0104  0.1657
50536W        W93527  16.333  31.539  18.367 -0.2051  0.3297  0.2737
50537W        W93528  25.657  23.940  25.364 -0.1910 -0.0909 -0.1321
50538W        W93529  22.507  23.226   8.509  0.0199 -0.1970 -0.2715
50539W        W93530  23.439   6.526  28.285 -0.2429 -0.1075  0.1355
50540W        W93531   9.312   5.954  20.691 -0.1058 -0.0091 -0.0045
50541W        W93532  15.629   0.319  28.592 -0.1425 -0.2045 -0.1307
50542W        W93533  25.903   1.324   4.519  0.0698  0.0428 -0.2542
50543W        W93534  11.522   1.043  10.462 -0.0084  0.1098 -0.0855
50544W        W93535  20.887   1.970   2.635 -0.2412  0.3225  0.0863
50545W        W93536  21.160  10.495   9.676  0.0157 -0.0980  0.3470
50546W        W93537   9.075  28.943   6.737 -0.1118  0.0680  0.0477
50547W        W93538  17.100  16.924  24.467 -0.3908  0.0358  0.0336
50548W        W93539  12.803  32.443  16.426 -0.0268 -0.3251  0.3129
50549W        W93540  20.820  21.132   0.040  0.2366  0.2711  0.1268
50550W        W93541   6.081  15.306   6.538  0.0766  0.0784  0.3228
50551W        W93542  20.678   0.636  19.354 -0.1099  0.1877  0.0354
50552W        W93543  16.229  12.932   5.294 -0.1293 -0.0518 -0.0195
50553W        W93544  11.043  24.712   1.902  0.0273 -0.2491 -0.2194
50554W        W93545  33.327  30.639   6.669  0.2593  0.1300 -0.0275
50555W        W93546  16.858  26.572  18.438  0.1411 -0.1792  0.0373
50556W        W93547  20.189  23.767   2.142  0.1317  0.1102  0.0831
50557W        W93548   0.599  27.667  17.991  0.1472 -0.0549 -0.0853
50558W        W93549   9.408  34.681  17.274 -0.1522 -0.0956  0.1816
50559W        W93550   8.335  26.814  10.542  0.2677  0.0242 -0.1063
50560W        W93551   0.226   2.217   4.991 -0.1780 -0.4276  0.0797
50561W        W93552  26.559   7.337  23.336 -0.1114  0.0448 -0.0269
50562W        W93553   1.033  33.207  26.401  0.2977  0.2281  0.1913
50563W        W93554  33.909  14.571  25.634  0.0035  0.1001  0.3957
50564W        W93555   2.317   1.677  14.404  0.0479  0.2419 -0.0540
50565W        W93556   3.476  31.313   3.223 -0.4576  0.1958  0.0442
50566W        W93557   1.840  27.552   0.750 -0.2188  0.0499 -0.2574
50567W        W93558   8.993  28.762  22.831 -0.3396  0.1263  0.1930
50568W        W93559   0.541  22.853  28.372  0.2702 -0.1544  0.0458
50569W        W93560   6.103  33.952  25.609  0.3636 -0.3953  0.0761
50570W        W93561   8.850   3.601  19.584  0.0608 -0.1223 -0.1502
50571W        W93562  34.520  33.966  21.900 -0.1718  0.2071 -0.2832
50572W        W93563   4.799  20.381   4.515 -0.1098 -0.1889  0.0556
50573W        W93564  26.319  29.168   3.134 -0.3037 -0.2772 -0.0686
50574W        W93565   4.557  28.288  18.962  0.3031  0.1713 -0.0423
50575W        W93566  17.421   3.709  26.754 -0.0018  0.1110 -0.1927
50576W        W93567  28.824  26.162  28.538 -0.0295  0.2188 -0.2582
50577W        W93568  16.354  31.244  27.711  0.0317  0.0984 -0.1101
50578W        W93569   2.716   4.485  19.086  0.1735  0.0496 -0.2117
50579W        W93570   7.211  29.615  23.506  0.1106 -0.0430 -0.0437
50580W        W93571  21.531  21.403  28.052 -0.1129 -0.2423  0.0485
50581W        W93572  24.566  20.517  22.372  0.0655 -0.1362 -0.0016
50582W        W93573  21.287   3.322  24.480  0.0922 -0.0256 -0.3273
50583W        W93574   5.401   7.871  15.364  0.0366 -0.2845 -0.1636
50584W        W93575   7.300  14.453   0.882 -0.0270 -0.0368  0.3611
50585W        W93576  19.508  33.301   7.154 -0.1556 -0.0151 -0.0563
50586W        W93577   9.853   3.718  17.939  0.1863  0.0110 -0.2740
50587W        W93578  21.094  15.214   1.743 -0.3535 -0.1738  0.1521
50588W        W93579  28.792  14.322  29.121 -0.0253  0.2192  0.2940
50589W        W93580  13.261  22.565  28.991  0.1134 -0.0089 -0.0070
50590W        W93581   7.799   7.824   4.099  0.2256 -0.1260  0.1202
50591W        W93582  11.778  12.449   2.021  0.1319 -0.0498 -0.0655
50592W        W93583  32.664   4.181  16.817  0.3252 -0.0625 -0.0640
50593W        W93584  31.788   9.007  25.159  0.2028 -0.0773 -0.1431
50594W        W93585  33.888   4.511   7.673 -0.0133  0.0718  0.0901
50595W        W93586  30.428  19.564  16.558  0.1218 -0.1905  0.1294
50596W        W93587  24.282   8.058  25.268 -0.0842  0.1542  0.0026
50597W        W93588   1.287  24.181  20.990  0.0250 -0.0690  0.0830
50598W        W93589  33.706   1.694  22.928 -0.1352  0.0357 -0.4058
50599W        W93590  32.341  28.656  27.851  0.1206  0.0242 -0.2235
50600W        W93591   0.801  23.293   3.268 -0.3154 -0.0188 -0.1621
50601W        W93592   5.798   4.652   6.933 -0.1114 -0.0057 -0.0020
50602W        W93593   6.295  31.625  22.663  0.1290  0.1515  0.2252
50603W        W93594   3.807  30.362  23.521 -0.4312  0.0664  0.1963
50604W        W93595  30.322  33.481   2.632  0.0820 -0.0503  0.1197
50605W        W93596  28.842  33.465  15.669  0.0407 -0.0560 -0.4593
50606W        W93597  12.653   2.769  21.170 -0.0611 -0.0065  0.2847
50607W        W93598  10.486  29.518  19.053 -0.0107  0.2080 -0.1136
50608W        W93599   8.679  12.504   6.655  0.1358  0.1362 -0.0328
50609W        W93600  33.840  32.211  15.361 -0.1092  0.2362 -0.3004
50610W        W93601   2.421  28.580   3.958  0.1038  0.1214  0.1178
50611W        W93602  22.828  26.689  17.899  0.1106  0.1450 -0.2635
50612W        W93603  24.135   3.209  12.532  0.0040  0.0036 -0.0250
50613W        W93604   0.818  15.134  19.435  0.1402 -0.0404 -0.1779
50614W        W93605  11.566   3.868   2.565  0.2286  0.2239 -0.2169
50615W        W93606  29.109  23.043  17.320 -0.6937 -0.0014  0.0006
50616W        W93607  33.310  32.263   7.891 -0.0577  0.3437  0.1148
50617W        W93608  23.933  25.159   5.505 -0.2932 -0.2267 -0.1892
50618W        W93609  11.068  29.419  18.155 -0.1672  0.2730 -0.3009
50619W        W93610   6.130  28.752  27.709  0.2808  0.1119 -0.2772
50620W        W93611   9.222   3.261  20.324 -0.1247 -0.2222 -0.2763
50621W        W93612  19.202  10.060  15.129 -0.0616 -0.0225 -0.0930
50622W        W93613   2.259   3.594   7.655 -0.3580  0.0016 -0.1530
50623W        W93614  14.942  32.174   7.535  0.4786 -0.1707 -0.0202
50624W        W93615   6.204   5.659   3.556  0.0194  0.1031  0.0950
50625W        W93616  11.526  12.607   6.235 -0.2062  0.0085  0.0438
50626W        W93617  11.603  34.509   9.262 -0.0557 -0.0476 -0.0739
50627W        W93618  27.831  28.350   0.371  0.0521  0.1106 -0.1758
50628W        W93619  32.640   5.138   7.541 -0.0365  0.2652 -0.0681
50629W        W93620  16.373  27.441   8.535  0.1475 -0.2261 -0.0541
50630W        W93621  31.260  13.852   2.884  0.0254 -0.1194  0.0002
50631W        W93622  20.068  25.636  27.760  0.1648 -0.0860 -0.1293
50632W        W93623   7.924   4.985   8.164  0.1021 -0.0949  0.1077
50633W        W93624  19.287  34.371   7.938  0.3815  0.3103 -0.0679
50634W        W93625  11.474   2.739   4.768 -0.0795 -0.0676 -0.0095
50635W        W93626   5.188  30.784  27.326  0.2683 -0.1863  0.2781
50636W        W93627  18.672  25.436   0.844  0.0081  0.0194 -0.0878
50637W        W93628  19.080  24.679  18.048 -0.0252 -0.0221 -0.2047
50638W        W93629  29.295  12.432   1.753 -0.1574  0.0950 -0.0306
50639W        W93630   4.846   0.003  10.114  0.3384 -0.2256  0.1428
50640W        W93631  32.149   0.989   0.104  0.2929  0.1440 -0.0911
50641W        W93632  12.674  16.807   4.176  0.1243 -0.0008 -0.2088
50642W        W93633   8.045  25.187  10.893 -0.0467  0.2936 -0.2776
50643W        W93634   7.931   2.357   6.573  0.0297 -0.1786 -0.4559
50644W        W93635  32.906  27.808   1.711 -0.0441  0.2073  0.1138
50645W        W93636  31.688  21.093  29.227 -0.0822 -0.1510 -0.0632
50646W        W93637   3.376   5.937   3.954 -0.1081  0.0049 -0.0143
50647W        W93638  22.103  29.976   2.257  0.0557 -0.2459 -0.0186
50648W        W93639   0.455  27.307   5.913 -0.0181  0.3094  0.0729
50649W        W93640  28.193  12.499   2.864  0.4317  0.0113 -0.0424
50650W        W93641   6.793   3.103   5.685 -0.2350  0.0902 -0.1535
50651W        W93642  10.506  15.786  15.993 -0.2589 -0.0066  0.2101
50652W        W93643  28.811   5.863   6.354 -0.1146 -0.1741 -0.0624
50653W        W93644  33.745  27.602  24.720  0.0865 -0.3225 -0.0672
50654W        W93645   4.494   2.487  18.525  0.2172 -0.4596 -0.0762
50655W        W93646   8.039   8.814   2.305  0.3310 -0.0333 -0.0281
50656W        W93647  14.463   9.311  20.472  0.0499 -0.0040 -0.0965
50657W        W93648   5.789  34.790  25.190  0.1108 -0.1927  0.0943
50658W        W93649  30.306  10.076   6.444 -0.0581 -0.0382  0.0543
50659W        W93650  17.865  28.877   6.398  0.2960 -0.2232  0.0311
50660W        W93651  15.791   8.682   4.175 -0.1872  0.1328  0.4686
50661W        W93652  21.065   0.427  26.070 -0.3617  0.0669  0.1936
50662W        W93653  16.732  27.374   1.584 -0.1000  0.0489 -0.1498
50663W        W93654  10.807   0.027   0.626 -0.2443 -0.3300  0.3251
50664W        W93655  30.328  30.723  17.436 -0.1848  0.2028 -0.1631
50665W        W93656   3.121  29.062   4.971  0.1644 -0.1994 -0.3860
50666W        W93657  11.234  32.948  27.033 -0.0629  0.1616 -0.1493
50667W        W93658   5.888  32.914  26.276 -0.1466 -0.1254  0.0180
50668W        W93659  19.428  28.807   9.018  0.1890  0.2242 -0.2896
50669W        W93660   8.659   5.347   7.086  0.2631 -0.0036  0.1824
50670W        W93661   6.679   2.999  18.866  0.1454  0.1651 -0.2947
50671W        W93662   2.331  31.477  29.191 -0.1001 -0.3231  0.1740
50672W        W93663   4.883  23.910  18.972 -0.0786  0.0789  0.1530
50673W        W93664  30.345  31.165  19.538  0.0312 -0.1603  0.2360
50674W        W93665  13.367  23.505   3.860 -0.2711  0.1687  0.2404
50675W        W93666  34.369   0.107  24.509 -0.0047 -0.1112 -0.1167
50676W        W93667  17.726  13.191  21.707  0.1221 -0.0442 -0.0129
50677W        W93668   3.701  26.010   5.634 -0.1001 -0.1397 -0.1432
50678W        W93669   6.738  17.405  24.753 -0.1714  0.1145  0.0185
50679W        W93670   2.146  13.394  11.545  0.1462 -0.0538  0.0994
50680W        W93671  14.290  18.340   2.798  0.0157 -0.1306  0.1283
50681W        W93672   4.446   5.173  27.716  0.0254  0.1236 -0.1338
50682W        W93673  17.252  29.874  25.539  0.0067  0.6380 -0.0941
50683W        W93674  19.043   2.412  28.317  0.0051 -0.1280  0.0095
50684W        W93675  31.896  13.263   0.915 -0.1464 -0.1534 -0.0074
50685W        W93676  12.811  28.497   6.400  0.0702  0.1622 -0.1364
50686W        W93677   8.959  23.462  22.121 -0.0119 -0.0965  0.0570
50687W        W93678   0.080  27.007   3.362 -0.3709 -0.0837  0.0987
50688W        W93679  23.465   4.262   5.161 -0.0068  0.0848  0.0043
50689W        W93680  34.272  21.756  22.878  0.0061  0.1999  0.0192
50690W        W93681  31.979   2.713  18.191 -0.2802  0.1091 -0.4300
50691W        W93682  23.141   5.506  26.588 -0.0257  0.2451  0.0138
50692W        W93683  20.566  32.884  25.822 -0.0937 -0.1907 -0.0084
50693W        W93684  17.315  23.822   0.647  0.0005  0.0485  0.1066
50694W        W93685  10.234  25.663  24.896  0.1319  0.0758 -0.0124
50695W        W93686  13.804  31.199  24.419  0.0526 -0.1547  0.1218
50696W        W93687  27.316  34.212  14.635 -0.3473 -0.1774 -0.0101
50697W        W93688   1.316  32.993  14.407  0.3180  0.3057  0.0484
50698W        W93689  34.583   2.836  18.546 -0.2352  0.3564 -0.0037
50699W        W93690  30.440  32.284  15.094 -0.2383 -0.0147 -0.2801
50700W        W93691  29.251   1.859  15.311 -0.0138 -0.5086  0.0300
50701W        W93692  26.844  30.740  23.459  0.0308 -0.2741 -0.0028
50702W        W93693  29.499  16.407  27.040 -0.0465  0.0860  0.2014
50703W        W93694  14.385   2.600  17.890 -0.1109  0.2857 -0.1971
50704W        W93695  11.975   3.609  21.752  0.0077  0.1507 -0.0045
50705W        W93696  32.331  21.465  19.913  0.2098  0.2285  0.0362
50706W        W93697  12.523  31.915  20.590  0.4006 -0.0948 -0.0812
50707W        W93698  28.810   3.748  15.025 -0.3904 -0.0137 -0.2039
50708W        W93699  12.779   7.799  16.307  0.1553  0.1883 -0.3576
50709W        W93700  18.821  23.340  19.553 -0.1373 -0.1028 -0.0370
50710W        W93701  30.092  28.408  18.219  0.0784  0.1795 -0.1061
50711W        W93702   4.951  27.983  20.690 -0.4273  0.1712 -0.2604
50712W        W93703  26.345   6.233  27.184 -0.0262  0.0314  0.1091
50713W        W93704  19.461   7.590  23.182 -0.1305  0.1222 -0.1004
50714W        W93705  17.039  31.719  19.857  0.0987  0.0391  0.2458
50715W        W93706  16.087  31.071  15.811  0.2544 -0.2912 -0.2340
50716W        W93707   3.506  15.785   3.931 -0.0708 -0.2312  0.3094
50717W        W93708   7.087  32.932  25.137  0.1490 -0.3204  0.1198
50718W        W93709   8.407  12.855  19.054  0.2242  0.3502 -0.0073
50719W        W93710  20.497  22.870   0.615  0.2252 -0.0511  0.0035
50720W        W93711  26.148  22.477  23.559  0.0517 -0.1329 -0.1206
50721W        W93712  25.952   1.849  26.577 -0.0164  0.1826  0.3595
50722W        W93713   5.313  24.095  28.047  0.8282 -0.1750  0.0527
50723W        W93714  24.495   2.378  12.923  0.1607  0.0579  0.3775
50724W        W93715  10.405   8.370  27.080  0.0039 -0.0156  0.0173
50725W        W93716   5.503   0.865  16.089  0.0937  0.0198 -0.0383
50726W        W93717  31.728  30.421  14.229  0.0753 -0.5131 -0.1669
50727W        W93718  28.813   9.475   5.351  0.1228 -0.1194  0.0768
50728W        W93719  12.709   3.737  29.024 -0.0479 -0.0438 -0.0032
50729W        W93720  33.622   8.429  15.825 -0.0228  0.2017 -0.2109
50730W        W93721   4.706  29.553  16.513 -0.2584 -0.3290 -0.1018
50731W        W93722  15.563   8.899  22.269  0.2780  0.1026 -0.0988
50732W        W93723   2.326   4.185  19.256 -0.2321 -0.1181  0.0420
50733W        W93724   5.371   4.067  22.636  0.4441  0.2660 -0.0535
50734W        W93725  34.130   6.842  23.860 -0.3740  0.1627 -0.2125
50735W        W93726  12.165   9.913  27.065  0.0978 -0.2765 -0.1846
50736W        W93727  22.307   2.885  16.995 -0.1195  0.2349 -0.1216
50737W        W93728   9.697   3.501  29.228  0.3039  0.2064  0.0825
50738W        W93729  12.196  33.868  16.168  0.3386  0.0315  0.2998
50739W        W93730  14.803   7.030   3.350  0.2539 -0.2128 -0.2497
50740W        W93731   9.004  34.657  18.520  0.2800  0.0010  0.0029
50741W        W93732  32.531  11.047  24.469  0.3042  0.0813 -0.3736
50742W        W93733  10.359  32.786  16.995 -0.1351  0.0463  0.0889
50743W        W93734  12.543  10.093  25.384  0.3982 -0.0961 -0.1314
50744W        W93735  14.194  19.758  16.124  0.2646 -0.2282 -0.2092
50745W        W93736  13.147  12.010  21.905  0.0064  0.0872 -0.4744
50746W        W93737   7.135   8.876  19.657  0.1375 -0.0796  0.2902
50747W        W93738  24.550   8.219  15.995  0.1289 -0.1016 -0.3482
50748W        W93739   1.750  28.404  20.500 -0.3038 -0.2384  0.1121
50749W        W93740  19.451  25.107  18.005 -0.1850 -0.0385 -0.0822
50750W        W93741  15.401   8.376  24.615  0.2249  0.1986 -0.3054
50751W        W93742  12.668  25.428  24.266 -0.0368  0.0640 -0.0369
50752W        W93743   1.462   2.876  21.339 -0.0239 -0.2860  0.1461
50753W        W93744  33.218  12.643  24.417 -0.0715 -0.0749 -0.1359
50754W        W93745   1.388   1.901  21.217  0.2691  0.1834  0.1660
50755W        W93746  11.550   4.001  18.687  0.1684  0.0230 -0.0764
50756W        W93747  16.960  27.388  28.332  0.1007 -0.0068 -0.2642
50757W        W93748   4.303  27.660  26.515 -0.2219 -0.3443 -0.1040
50758W        W93749  16.463  24.582  19.202  0.0369 -0.1256 -0.4813
50759W        W93750  22.413  32.969  17.044  0.0531 -0.1370 -0.1095
50760W        W93751  16.731  13.150  13.919 -0.2560 -0.2148  0.0067
50761W        W93752  13.164  28.499  21.407 -0.1984 -0.3178 -0.1138
50762W        W93753  13.495  15.682  21.184 -0.0923 -0.2087  0.2818
50763W        W93754   5.522   9.426  20.004 -0.1708 -0.0018 -0.2450
50764W        W93755   9.438  27.770  20.184 -0.1649 -0.2301  0.1154
50765W        W93756   3.273  21.055  19.332  0.0702 -0.0099  0.1973
50766W        W93757  16.694   4.858  20.363  0.0126 -0.3266  0.0624
50767W        W93758  12.003   1.874  22.798  0.0869 -0.1079  0.0300
50768W        W93759  13.462  32.246  24.560  0.1152  0.0899  0.0062
50769W        W93760   3.895  22.262  18.830 -0.4213  0.0227  0.0120
50770W        W93761   1.278  24.953  15.681 -0.2217 -0.0898 -0.1321
50771W        W93762  29.703  27.462  19.763 -0.2975  0.0677  0.0396
50772W        W93763  12.741  32.368   1.778  0.2657 -0.2772  0.1405
50773W        W93764   2.064   3.801  21.146  0.1417 -0.2309  0.0185
50774W        W93765  15.496   1.215  22.728  0.0541 -0.0778  0.1489
50775W        W93766   5.699  20.006  23.762 -0.1473  0.1738 -0.1932
50776W        W93767  21.732  28.442  20.200 -0.2075 -0.2248 -0.1716
50777W        W93768   9.798  31.158  24.069 -0.1556 -0.3801 -0.1046
50778W        W93769  16.612  22.366  14.327  0.1095 -0.0664 -0.1299
50779W        W93770  21.452  22.763  19.639 -0.0742  0.0768 -0.2214
50780W        W93771  28.651  19.863  16.331  0.0808  0.0101  0.2899
50781W        W93772   0.530   0.868  19.551  0.0913  0.4674 -0.0874
50782W        W93773   0.942  10.625   5.731  0.2437  0.1191  0.1486
50783W        W93774  29.567  34.354  26.966  0.3355  0.0043 -0.0335
50784W        W93775  15.440  30.960  24.927 -0.0621  0.1519  0.0504
50785W        W93776   3.317   6.002  18.157 -0.2827 -0.3203  0.0913
50786W        W93777  33.621  34.691  19.868 -0.0092 -0.1785  0.1736
50787W        W93778  19.485  31.925  21.819  0.0739  0.1451  0.0574
50788W        W93779   1.424  20.833  24.829  0.0910  0.2109 -0.3107
50789W        W93780  17.494  31.329  18.473 -0.3904  0.1600  0.2375
50790W        W93781  23.286  34.225   2.695  0.1395 -0.2755 -0.0972
50791W        W93782   9.749   8.138  15.709  0.3697 -0.0624  0.0378
50792W        W93783  10.606   7.990  21.628  0.2097 -0.1863 -0.1054
50793W        W93784  13.703   3.937  16.875  0.0657  0.1471  0.1946
50794W        W93785   9.897  24.771  25.078  0.0258 -0.2260  0.2812
50795W        W93786  18.070  28.197  19.976 -0.1737 -0.2609 -0.5491
50796W        W93787  22.147  21.551  24.380 -0.1128  0.1337  0.1086
50797W        W93788  11.820  33.130   3.240  0.2129  0.1594  0.3612
50798W        W93789  17.362  28.832  14.483  0.2228  0.1917  0.0772
50799W        W93790  13.047  24.379  15.328 -0.3293  0.0634  0.4068
50800W        W93791  23.578   3.311  15.889 -0.3916 -0.1449  0.0694
50801W        W93792  26.810  31.425  12.420 -0.0849 -0.2826  0.0176
50802W        W93793  10.530  26.980  20.549  0.1045 -0.0862 -0.0936
50803W        W93794  11.292  32.031  21.074  0.1846 -0.1066 -0.2092
50804W        W93795  20.766  24.299  16.082 -0.0130  0.0686  0.2851
50805W        W93796  15.963  31.876  19.977 -0.0757  0.2197  0.0154
50806W        W93797  27.565   0.789  23.670  0.1303 -0.1968  0.0202
50807W        W93798  13.280   8.042  18.324 -0.1941  0.4138  0.0709
50808W        W93799  30.190   4.732  25.004  0.0546  0.0047  0.1768
50809W        W93800   4.652   2.299  17.476 -0.1409  0.3326  0.2136
50810W        W93801   1.127  26.991  25.573  0.0392 -0.1840  0.1395
50811W        W93802   7.834   1.416  18.393  0.4380 -0.0499 -0.0584
50812W        W93803  31.151  31.542  20.995  0.1973  0.1432 -0.1671
50813W        W93804  20.832  32.208  16.438 -0.1450  0.0150  0.0724
50814W        W93805  18.771  24.843  24.844 -0.0195 -0.2381  0.2033
50815W        W93806  21.653   1.684   0.484  0.0638  0.1224  0.2616
50816W        W93807   2.823  29.673  21.464  0.1110 -0.1914  0.1075
50817W        W93808  11.679  13.540  28.175  0.0592  0.0974  0.0292
50818W        W93809  23.967   2.385  26.438  0.4025 -0.0054 -0.0800
50819W        W93810   2.961  23.244  19.859  0.0453 -0.1414 -0.1453
50820W        W93811  17.176  22.448  20.442 -0.3939  0.2764  0.1161
50821W        W93812  21.799  18.979  22.121  0.4252 -0.0737 -0.1957
50822W        W93813  13.808   2.214  21.329  0.2929 -0.1518 -0.1066
50823W        W93814  17.627  27.054  20.289  0.0967 -0.0671 -0.2473
50824W        W93815  13.429   0.488  25.222 -0.4180  0.1874 -0.1448
50825W        W93816  17.745   2.619   0.874  0.0435  0.0234 -0.4678
50826W        W93817  10.934   9.597  18.789 -0.1187 -0.3430 -0.0917
50827W        W93818  27.536  15.196  25.511 -0.2044 -0.0449  0.1504
50828W        W93819   4.554  26.596  14.959  0.0448 -0.0068  0.1242
50829W        W93820   0.018  24.169  22.588 -0.1284  0.1222 -0.0851
50830W        W93821  33.755  34.560  23.981 -0.1344  0.0110  0.0887
50831W        W93822  14.501  24.978  14.705 -0.3208 -0.3353 -0.1410
50832W        W93823  23.154   0.496  16.164 -0.0713 -0.3077  0.1931
50833W        W93824  12.761  25.788  13.901 -0.0382 -0.0245 -0.3198
50834W        W93825   0.312  26.506  16.968 -0.1468 -0.0215 -0.3930
50835W        W93826  16.735  30.654  24.540  0.3975  0.0646  0.1298
50836W        W93827  11.015  28.319  19.685 -0.2970  0.0230 -0.1772
50837W        W93828   3.285  32.842  21.425 -0.0043  0.1262  0.0288
50838W        W93829   2.897  25.118  24.059  0.1434 -0.2414  0.3057
50839W        W93830  28.156   0.947  19.146 -0.0181 -0.0992 -0.1294
50840W        W93831  25.056   9.121   0.097  0.4735 -0.0859 -0.2130
50841W        W93832   8.275  26.948  18.219 -0.2586  0.0637 -0.0066
50842W        W93833  15.291  30.061  27.346  0.0274 -0.1216  0.1830
50843W        W93834   1.452  25.311  19.765 -0.2061 -0.0699 -0.1360
50844W        W93835  23.612   3.557  13.618 -0.1926  0.2476  0.0477
50845W        W93836  17.130  29.907  29.055 -0.1388 -0.2982  0.1749
50846W        W93837   8.701   0.735  18.439 -0.1764 -0.1783 -0.2663
50847W        W93838  26.638   5.090   6.900  0.1226 -0.0247  0.2169
50848W        W93839   6.232  16.285  20.418  0.1821 -0.0412  0.0961
50849W        W93840  30.686  25.977  24.880 -0.3094 -0.0481  0.3824
50850W        W93841  26.721  18.638  25.707 -0.2164 -0.0789  0.1455
50851W        W93842   5.785  28.784  21.226 -0.0601  0.1189  0.3778
50852W        W93843   4.565  29.574  22.148  0.2621 -0.2495 -0.1306
50853W        W93844  16.110  32.322  20.761  0.2764 -0.0801  0.2957
50854W        W93845   4.830  24.696  24.601  0.0243  0.0193 -0.0212
50855W        W93846   1.272  33.470  14.231  0.1675  0.3983  0.0417
50856W        W93847  19.470  10.092  16.074 -0.0420 -0.0685  0.0980
50857W        W93848  11.386  33.005   0.487  0.0093  0.2489  0.0696
50858W        W93849   7.494   5.402  21.860 -0.1921  0.1557 -0.1013
50859W        W93850  16.590  27.893  20.932  0.1579 -0.0640  0.1692
50860W        W93851   1.688   2.166  21.589 -0.1001  0.3004 -0.0514
50861W        W93852   4.087   0.000  22.737  0.2009  0.1789  0.0392
50862W        W93853  27.227  22.748  19.327  0.1549 -0.1702  0.1861
50863W        W93854  25.136   7.414  19.828  0.1477 -0.3173  0.0283
50864W        W93855  11.686  27.663  19.941  0.1804  0.2503  0.0015
50865W        W93856   8.475  29.774  25.465 -0.1810  0.0838  0.0714
50866W        W93857  17.974  33.507  27.405 -0.1505 -0.2136 -0.1029
50867W        W93858  10.448  22.451  14.978  0.0943 -0.3355  0.0490
50868W        W93859   0.781  28.761  19.103  0.0984 -0.3198  0.1150
50869W        W93860   6.742   6.077  23.332  0.0025 -0.2096  0.1517
50870W        W93861  23.013  16.275   2.760 -0.0787 -0.1328  0.1841
50871W        W93862  20.254   5.004  15.011 -0.1050 -0.1092 -0.3579
50872W        W93863  20.572  25.492   2.380  0.1033 -0.1554 -0.0024
50873W        W93864   5.034  29.787  17.740  0.3304  0.3660  0.0584
50874W        W93865  29.734  23.251  20.117  0.2202 -0.0805 -0.1793
50875W        W93866  10.841   2.302  10.397 -0.0667  0.2664  0.0206
50876W        W93867  28.328   2.828  23.116 -0.1953 -0.1569  0.4249
50877W        W93868  18.845   1.051  23.169 -0.0051  0.1492 -0.3003
50878W        W93869  13.443   2.111  21.922 -0.0588 -0.3278  0.2349
50879W        W93870  18.694   9.668  20.239  0.1367 -0.1143 -0.0266
50880W        W93871  13.632  33.338  18.066 -0.1381  0.2341 -0.0465
50881W        W93872  13.006  27.408  28.881  0.2887 -0.0178  0.1051
50882W        W93873  15.611   9.193  22.840 -0.0745  0.2263  0.0544
50883W        W93874  22.545   4.786  27.521 -0.1162  0.0123 -0.1027
50884W        W93875   5.991  13.899  19.531 -0.4426 -0.0118  0.2040
50885W        W93876  10.474  32.462  24.950  0.0800  0.5591  0.0587
50886W        W93877  10.414  14.208  16.769  0.0963  0.2150 -0.0372
50887W        W93878   9.610  27.160  17.119 -0.1390  0.1524 -0.3772
50888W        W93879   2.645  18.515  18.272 -0.0048 -0.0650 -0.0987
50889W        W93880   1.038  34.156  14.811  0.1683 -0.2172 -0.3786
50890W        W93881  15.652   2.408  19.344  0.1344 -0.1508 -0.4912
50891W        W93882  21.247   0.398  26.654  0.1994 -0.4535 -0.0078
50892W        W93883  27.566  12.638  22.949 -0.1012 -0.1824 -0.4416
50893W        W93884  34.363  27.112  26.206  0.1047  0.1850  0.0661
50894W        W93885  14.418   7.627  20.358 -0.0564  0.2676  0.1502
50895W        W93886  24.303   3.474  20.272  0.2201 -0.0112  0.0257
50896W        W93887   3.071  26.715  15.813 -0.1309  0.2063 -0.1640
50897W        W93888  21.685   0.755  25.692  0.0341 -0.1612 -0.1090
50898W        W93889  20.109  32.664  14.302  0.4338 -0.2264 -0.0518
50899W        W93890  14.243  14.266  20.447  0.0973  0.1698  0.0486
50900W        W93891  18.650  23.362  13.769  0.3043  0.0447  0.1523
50901W        W93892  13.107  21.863  19.242  0.1891  0.3980  0.2335
50902W        W93893   5.950  32.462  17.503 -0.0462 -0.0654 -0.1432
50903W        W93894   3.658  29.888  18.073  0.2179 -0.0905  0.3696
50904W        W93895  10.968   0.904  19.413 -0.0389  0.0173  0.3621
50905W        W93896   5.238  27.669  20.204  0.2399 -0.0049  0.0991
50906W        W93897   4.688  31.854  21.756 -0.0562  0.3538  0.0724
50907W        W93898  13.068   1.079  19.606  0.0676  0.0462  0.2947
50908W        W93899   5.116   5.324  24.209 -0.0689  0.0387 -0.1508
50909W        W93900  12.157   6.842  15.757 -0.0555  0.1908  0.0733
50910W        W93901  15.596   2.865  15.197 -0.0382  0.2079  0.0079
50911W        W93902  34.179  22.921  15.564  0.1167  0.1940  0.1302
50912W        W93903   4.394  18.006  21.296  0.2464  0.0556 -0.1194
50913W        W93904  29.474   7.534  15.820 -0.1188  0.0737 -0.1943
50914W        W93905  11.815  32.892  25.821  0.0172 -0.0710 -0.0509
50915W        W93906  22.513   6.360  18.462 -0.0595 -0.1068  0.1429
50916W        W93907   6.549  28.555  20.946 -0.1228 -0.2375  0.0745
50917W        W93908  14.716  30.355  24.167 -0.2284 -0.1044  0.0415
50918W        W93909  28.731  20.338  14.286  0.0347 -0.2389  0.0934
50919W        W93910   5.667  34.632  15.724  0.1178 -0.1989 -0.1062
50920W        W93911   5.941  17.629   6.249  0.1812  0.1364  0.0238
50921W        W93912  22.676   1.479  15.293 -0.3099 -0.1966 -0.0377
50922W        W93913   1.717  31.590   3.656 -0.2444 -0.1265  0.1065
50923W        W93914  28.997  33.963  22.640 -0.0799 -0.2021  0.0377
50924W        W93915  13.074  10.798  24.784  0.0093 -0.0919 -0.2242
50925W        W93916   1.435  33.730  17.524  0.3354 -0.1714  0.2245
50926W        W93917  15.897   8.589  26.840 -0.0437 -0.3374 -0.2535
50927W        W93918  27.859  23.882  12.928 -0.0160  0.1229  0.0912
50928W        W93919  23.281   9.063   7.725  0.1727 -0.1198 -0.0438
50929W        W93920   7.776  26.158  16.336  0.1285  0.1017 -0.0346
50930W        W93921   0.900   6.104   1.654 -0.1282 -0.1284 -0.0157
50931W        W93922  17.942   0.296  23.035 -0.1124  0.1005  0.0646
50932W        W93923  13.061  27.484  25.416 -0.3403 -0.1914 -0.3241
50933W        W93924  27.034  30.879  21.449 -0.2811  0.0590  0.3631
50934W        W93925  19.087  34.502  15.877 -0.1600  0.2811 -0.3176
50935W        W93926  18.593  28.029  17.844  0.2995  0.3136 -0.2296
50936W        W93927  16.569  20.055   0.613 -0.1103  0.2144  0.1670
50937W        W93928   8.942   5.619   3.436 -0.4011  0.1132  0.0268
50938W        W93929  33.950   8.145  27.198  0.0432 -0.1506  0.0955
50939W        W93930   4.256   3.390  18.614 -0.4151  0.0089 -0.1637
50940W        W93931   7.591  29.544  15.052 -0.3694 -0.1616  0.2219
50941W        W93932   6.219   8.008  17.241  0.1335  0.1646 -0.1549
50942W        W93933   0.062  31.847  18.821 -0.4775  0.3221  0.0760
50943W        W93934  21.977   7.474  20.493 -0.2167  0.1235 -0.1426
50944W        W93935  28.288  24.913  22.375 -0.1707 -0.1693 -0.2550
50945W        W93936   2.018  11.554  22.856  0.3554 -0.0677  0.0670
50946W        W93937  12.219   1.873  15.806  0.0626 -0.0449 -0.2074
50947W        W93938  12.674  26.438  24.433  0.1385 -0.3475 -0.1681
50948W        W93939  24.337  27.819  23.693  0.1864  0.1932 -0.0121
50949W        W93940  17.540  31.362  22.412 -0.3316  0.0773  0.0892
50950W        W93941  33.160  28.689  14.967  0.2550  0.1908 -0.0955
50951W        W93942   9.503   6.684   9.468  0.1212  0.2123 -0.1273
50952W        W93943  29.045   1.396  18.959  0.0976 -0.2152 -0.0970
50953W        W93944  19.284   3.310  23.966  0.3362  0.1003  0.3543
50954W        W93945  24.334  10.065   7.815  0.1999 -0.0421  0.0936
50955W        W93946  24.447  24.139  15.496  0.0454  0.1457 -0.0353
50956W        W93947  12.153  33.203  20.841  0.0202  0.2525  0.2165
50957W        W93948   6.831   5.512  26.064  0.1849  0.0162 -0.0382
50958W        W93949   1.650   1.204  20.913 -0.1921 -0.0593  0.1889
50959W        W93950   4.823   5.149   0.949  0.4647 -0.1571 -0.0038
50960W        W93951   4.498  10.758  22.071 -0.0536 -0.0734  0.1330
50961W        W93952   6.537  33.321  17.658  0.0248 -0.1194 -0.0902
50962W        W93953  32.030  32.584  24.756 -0.0874 -0.1273 -0.1540
50963W        W93954  27.151  32.768  28.008  0.0396 -0.1543 -0.0565
50964W        W93955  32.945  34.042  24.194 -0.1274  0.3742 -0.3831
50965W        W93956  20.796  26.659  28.096 -0.3393 -0.3210  0.0075
50966W        W93957  16.161  30.527  24.711 -0.1967  0.3717  0.0096
50967W        W93958  18.231  32.542  24.473  0.0875  0.1298 -0.0882
50968W        W93959   2.937  31.621  15.340 -0.0693 -0.1365 -0.0371
50969W        W93960   3.626  33.637  18.332 -0.0505  0.1488  0.0303
50970W        W93961   2.454   3.617   5.651  0.0925  0.2169 -0.0681
50971W        W93962  11.129  32.062   0.442  0.1405 -0.0799 -0.2953
50972W        W93963   1.317  24.397  22.735  0.0996 -0.3675 -0.2891
50973W        W93964  27.717   3.278  13.756  0.0464  0.3269  0.1108
50974W        W93965  19.542   8.069  23.362  0.2025 -0.3905  0.0924
50975W        W93966   3.433  32.413  17.182  0.1815 -0.1883  0.2765
50976W        W93967   8.546  14.668  28.931 -0.0230  0.4174 -0.1523
50977W        W93968   4.446  32.163  25.705 -0.0396 -0.2845  0.0769
50978W        W93969  17.809  28.491  26.271 -0.1730  0.1491 -0.1140
50979W        W93970  16.979  26.077  26.439 -0.2000  0.1508  0.1265
50980W        W93971   0.563  34.032   2.000  0.2428 -0.1159  0.5637
50981W        W93972  31.412  10.116  17.389 -0.0859  0.5113 -0.0334
50982W        W93973   7.768  11.550   7.131 -0.1524 -0.0870  0.3715
50983W        W93974   3.198   9.252  18.253 -0.1573 -0.0239  0.0629
50984W        W93975  31.016   6.808  29.119 -0.0963 -0.0158 -0.1230
50985W        W93976  14.118  26.159  13.540 -0.1533  0.0858  0.0959
50986W        W93977  17.848   7.542  19.530 -0.1471  0.3394  0.2187
50987W        W93978  16.769  14.856  12.876  0.1079 -0.1364 -0.1036
50988W        W93979  15.177  17.366  13.973 -0.2750 -0.1119  0.0248
50989W        W93980  18.002  28.045   0.747  0.2963 -0.0222  0.0909
50990W        W93981  20.525   6.233  16.601  0.0643 -0.0510 -0.3005
50991W        W93982   2.335  10.435  23.602 -0.0051 -0.0842  0.1988
50992W        W93983   7.352   2.347  11.072  0.0581 -0.0161  0.3582
50993W        W93984  20.325   4.653  28.931  0.0332 -0.2104 -0.0601
50994W        W93985  17.377   8.897  16.235 -0.2167 -0.1332 -0.0783
50995W        W93986  14.964  33.108  17.028  0.3014  0.1237  0.1237
50996W        W93987   8.681   1.624   0.559  0.0268  0.0403 -0.1642
50997W        W93988  32.501  19.493  20.864 -0.0075 -0.0334 -0.1938
50998W        W93989   7.136  24.980  18.133 -0.0967 -0.1700 -0.1209
50999W        W93990  25.199  18.938  21.518  0.1588 -0.0683 -0.3326
51000W        W93991  14.993  31.117  27.227 -0.2430 -0.0640  0.1015
51001W        W93992  12.206  28.284  19.145  0.1098 -0.2231  0.0382
51002W        W93993  14.628  15.975   0.868  0.1444  0.0650  0.1003
51003W        W93994   5.724   5.443  18.484 -0.3192 -0.0535 -0.0393
51004W        W93995  33.842  29.280  21.153  0.0228 -0.1598 -0.1839
51005W        W93996  17.807  30.976  23.919 -0.0455 -0.0423  0.0055
51006W        W93997  23.346  10.946  21.536 -0.3016 -0.6047  0.1427
51007W        W93998   7.066   0.473  27.664 -0.0962 -0.0288  0.5725
51008W        W93999   0.338   3.561  18.824 -0.0311 -0.2352  0.0639
51009W        W94000  22.174  28.053  24.173  0.2341 -0.0798  0.0167
51010W        W94001  31.782  14.740   2.554  0.3767 -0.0309 -0.0631
51011W        W94002  12.014  11.202  18.620 -0.0066 -0.0804 -0.3108
51012W        W94003   5.090   3.626  22.496  0.1541  0.0653 -0.0030
51013W        W94004  25.447   3.255  18.933 -0.1043  0.4263  0.3035
51014W        W94005  25.953  31.012  24.490 -0.1916 -0.0139  0.0506
51015W        W94006  28.572  33.875  15.909  0.6105  0.0744 -0.0978
51016W        W94007   9.984   4.534   4.186  0.0732 -0.1426 -0.5444
51017W        W94008   4.758  34.409  26.642 -0.3709  0.2247  0.1796
51018W        W94009   7.226  32.551  19.734 -0.1621  0.0287 -0.2459
51019W        W94010  19.928  33.350  14.220 -0.1627 -0.1185  0.0503
51020W        W94011   4.930   7.453  18.984  0.1337 -0.1319  0.2099
51021W        W94012  27.163  27.714   1.212 -0.2008 -0.1005 -0.0020
51022W        W94013   8.520  33.128  28.736  0.0477  0.1515  0.1336
51023W        W94014  22.421   7.146  19.815 -0.1895 -0.0850 -0.2950
51024W        W94015   8.008  25.465  24.269  0.2210  0.0857 -0.0830
51025W        W94016   5.362  33.429  23.684 -0.2135  0.2281  0.2706
51026W        W94017  15.525   0.294   2.093  0.3393 -0.3095 -0.0074
51027W        W94018   2.021  18.205  21.097  0.2864 -0.1858  0.1010
51028W        W94019  18.267  33.157  16.291 -0.1853  0.0051  0.1471
51029W        W94020  25.876  12.938  22.043 -0.1836 -0.1283 -0.2259
51030W        W94021  14.575  26.440  16.621  0.1344 -0.1698  0.2085
51031W        W94022  10.156  28.930  25.673 -0.3011  0.0515 -0.0299
51032W        W94023  20.441  32.632   2.030 -0.4216  0.1958  0.3151
51033W        W94024  17.914   1.672   3.776 -0.1562 -0.1870  0.1811
51034W        W94025  33.944  11.327  23.077 -0.1012  0.0524  0.0183
51035W        W94026  11.458   1.285  16.555  0.1473 -0.1745  0.1378
51036W        W94027  32.246  28.043  12.772 -0.3405 -0.1133  0.2224
51037W        W94028  17.809  27.508   2.897 -0.0732  0.1764 -0.0423
51038W        W94029  12.740   9.584  28.065 -0.4275 -0.1130 -0.1515
51039W        W94030  18.870   1.637  20.191  0.0136  0.1280  0.1606
51040W        W94031   7.155  33.420   0.178  0.0714  0.0119 -0.0387
51041W        W94032   4.904  10.478  23.710 -0.1326 -0.0099 -0.2116
51042W        W94033  19.284  33.141  24.756 -0.0206  0.0800 -0.0753
51043W        W94034   5.234  25.104  19.106 -0.0517  0.3358 -0.2670
51044W        W94035   6.455  21.376  19.149  0.1177 -0.0346 -0.1968
51045W        W94036  19.924  19.847  21.707  0.3062  0.2222  0.1944
51046W        W94037  24.131  33.984  16.070 -0.1425  0.2668  0.1300
51047W        W94038  10.108  27.858  24.171 -0.0450  0.1582  0.2524
51048W        W94039  11.674   7.784  25.997 -0.0324 -0.2039  0.2658
51049W        W94040  17.270   9.434  14.907  0.2793 -0.0375 -0.0536
51050W        W94041  15.244  33.360  28.956  0.0828  0.3282  0.0972
51051W        W94042  18.190  33.156  28.274 -0.1362 -0.2016 -0.0336
51052W        W94043   5.633  32.605  28.066 -0.0535 -0.1267  0.3708
51053W        W94044   9.079  27.848  24.358  0.3005  0.2124  0.1067
51054W        W94045   7.904   2.086  16.618  0.0138 -0.2090  0.2783
51055W        W94046  27.391  31.043   2.437  0.2543  0.3055  0.0609
51056W        W94047  11.623   4.796  24.778 -0.1538 -0.2725  0.3282
51057W        W94048   1.027  13.409   0.166 -0.0275  0.3139  0.0879
51058W        W94049  22.552  33.971  13.632  0.1130 -0.1968 -0.1192
51059W        W94050  11.346  20.622  19.311  0.1260 -0.1598 -0.0400
51060W        W94051  33.777  18.993  15.331 -0.1502 -0.1380  0.0488
51061W        W94052  18.023  27.234  14.405  0.0225  0.2050 -0.0204
51062W        W94053  21.208  23.733  23.259  0.3310  0.0764  0.4384
51063W        W94054   4.188   7.179  29.059  0.1757  0.1195  0.0018
51064W        W94055  17.782  33.774  24.731  0.0396  0.1768 -0.0809
51065W        W94056  11.713   6.162  17.434  0.2007  0.0869  0.0536
51066W        W94057   7.279   2.620   6.325 -0.0118 -0.2377  0.0016
51067W        W94058  11.151  31.127  16.024  0.1519 -0.2123 -0.0765
51068W        W94059  27.826   8.954  16.248  0.0022 -0.2524 -0.0291
51069W        W94060  15.462  22.800  22.132  0.4979 -0.0612 -0.0352
51070W        W94061   9.072  21.034  16.449 -0.2531 -0.1161  0.1599
51071W        W94062   5.650  12.456  15.097  0.0436 -0.1448 -0.0383
51072W        W94063  33.607  30.823  12.824 -0.0944  0.2097 -0.4346
51073W        W94064  11.262   6.124  23.226  0.0526  0.0053  0.0706
51074W        W94065  17.327   2.954   6.017  0.2707  0.1456 -0.0960
51075W        W94066  31.704  33.704  23.343  0.2744 -0.0322 -0.2298
51076W        W94067   8.790  24.871  15.639 -0.2027  0.3014  0.2188
51077W        W94068  25.281  31.368   5.379 -0.0600 -0.0723 -0.0123
51078W        W94069   9.880  11.021  17.918 -0.1499  0.2348 -0.3129
51079W        W94070  26.536  20.717  13.557 -0.2625  0.1820 -0.2009
51080W        W94071   6.840   0.846  28.071 -0.1188  0.0645 -0.2121
51081W        W94072   3.687  22.454  21.444 -0.3552  0.0788 -0.1891
51082W        W94073  21.267  22.837  20.494  0.1452 -0.2730  0.1616
51083W        W94074  15.552  31.698   2.246  0.0275  0.2809 -0.0613
51084W        W94075   4.146  23.498  26.816  0.2961  0.0380 -0.0431
51085W        W94076  15.676  29.949   1.626 -0.0157  0.1852 -0.4284
51086W        W94077  13.686  30.076  21.271 -0.0975  0.2363  0.1673
51087W        W94078   8.259   9.101   1.409  0.2032  0.2711  0.1747
51088W        W94079  17.774   3.443  16.380 -0.1041 -0.1070  0.0921
51089W        W94080  13.341   8.758  25.473 -0.0358  0.2212 -0.0722
51090W        W94081   1.541   2.911  15.178 -0.1699  0.0942 -0.0604
51091W        W94082  18.918   1.025   3.801 -0.1671 -0.1319  0.0724
51092W        W94083  15.819  34.711  17.052  0.1240  0.0091 -0.2060
51093W        W94084   0.487   1.706  20.381  0.0450 -0.1831  0.1286
51094W        W94085  26.405  27.977  27.025 -0.1910  0.2416  0.3715
51095W        W94086  29.103  22.128  14.056  0.1354  0.2974  0.0200
51096W        W94087   8.257  34.358  20.341 -0.0861  0.0769  0.4916
51097W        W94088  17.966  34.569  23.245 -0.3223 -0.0379 -0.1085
51098W        W94089   2.743   4.314  17.516 -0.0826 -0.0720  0.1370
51099W        W94090  33.461   5.904  15.959  0.0697 -0.2445 -0.3722
51100W        W94091  10.173  24.869  26.317  0.1695 -0.2354  0.3845
51101W        W94092   6.174  31.869  22.238  0.2136  0.2334  0.0914
51102W        W94093   5.626  12.162  19.709  0.2770  0.1329 -0.2239
51103W        W94094   7.771  34.432  20.141 -0.2915  0.1560 -0.2627
51104W        W94095   0.002  33.352  18.624 -0.0576  0.3361 -0.1773
51105W        W94096   5.377  29.897  16.979 -0.2742 -0.1341 -0.1027
51106W        W94097   7.658  25.921   2.816  0.1686 -0.1778  0.3836
51107W        W94098   2.327   6.263  19.581 -0.2307  0.3400 -0.0268
51108W        W94099   3.143  29.868  26.693 -0.1198  0.0265  0.4508
51109W        W94100  26.750  26.250  18.869  0.2984 -0.0404 -0.3304
51110W        W94101  14.514  33.998  26.275 -0.0595 -0.2997  0.1312
51111W        W94102  27.367   1.542  27.761 -0.1155  0.1714  0.0628
51112W        W94103   5.058   3.910   6.766  0.3278  0.1445 -0.2167
51113W        W94104  22.027   3.149  27.429 -0.1317 -0.3108 -0.0916
51114W        W94105  14.399  10.559  18.905 -0.0881 -0.1604  0.0679
51115W        W94106  29.573  28.254  20.388 -0.2177  0.3915  0.2784
51116W        W94107  17.067   8.869   5.309  0.1293  0.1832 -0.1013
51117W        W94108  23.126  32.871  14.521  0.1062 -0.2415 -0.1553
51118W        W94109  16.022  25.397  24.280  0.5654  0.1090  0.0068
51119W        W94110   8.235   4.961  19.626  0.1863  0.3058  0.0512
51120W        W94111  10.816  32.428  14.894 -0.1486 -0.0569  0.0034
51121W        W94112  23.781   4.467   4.291 -0.0463 -0.1271  0.0536
51122W        W94113  25.055  23.662  21.971 -0.0242 -0.0375 -0.3456
51123W        W94114  27.334   6.634  28.029  0.0318  0.0980  0.3785
51124W        W94115   0.795  14.064  16.385 -0.1238  0.0326  0.0175
51125W        W94116   6.976   1.341  14.621 -0.2306  0.0140  0.3181
51126W        W94117   7.107  21.006  23.724 -0.1668  0.1734 -0.0663
51127W        W94118  11.041  24.725   3.823 -0.2809 -0.1991 -0.2807
51128W        W94119   7.164   6.345  20.494  0.1677  0.0590 -0.1292
51129W        W94120  13.256  14.102   9.435 -0.1465 -0.2483 -0.0377
51130W        W94121  17.439  32.631  25.376 -0.0937  0.0712 -0.1272
51131W        W94122  32.814  29.983  18.889 -0.2136 -0.2017 -0.2798
51132W        W94123  32.474  30.146  13.758  0.3711  0.0959 -0.0973
51133W        W94124  15.087  29.778  20.840  0.0260  0.0745  0.1654
51134W        W94125   8.901  21.298  28.271  0.1520 -0.1849 -0.3409
51135W        W94126   8.547  32.489  21.085  0.1164  0.0676  0.0699
51136W        W94127  21.052  11.863  17.894  0.1103 -0.0332 -0.0965
51137W        W94128  25.383  32.872  23.717 -0.1592 -0.0569  0.2019
51138W        W94129  21.983  10.790  24.779  0.1479  0.1552  0.1748
51139W        W94130  12.983   3.968   1.418 -0.1574 -0.1329 -0.1298
51140W        W94131   2.098   3.194  16.823  0.0574  0.0948  0.3876
51141W        W94132  16.278  29.862  21.064 -0.0400  0.2965 -0.0419
51142W        W94133  16.290  28.280   3.736  0.1950  0.1333 -0.0014
51143W        W94134  27.586   3.714  24.684 -0.0208  0.0094  0.0598
51144W        W94135  20.277   7.791  27.070  0.2774  0.1333 -0.0279
51145W        W94136   7.355  30.059  21.985 -0.0153  0.0840  0.0549
51146W        W94137  30.042  34.288  24.002 -0.0666 -0.3921  0.1559
51147W        W94138  17.851   7.548  18.278  0.2576 -0.3147  0.3669
51148W        W94139  20.382  26.820   0.952 -0.0671  0.0536  0.0767
51149W        W94140  15.666   0.761  23.988  0.3825 -0.1104 -0.2627
51150W        W94141   8.343  23.088  24.324  0.1207  0.2032  0.2119
51151W        W94142   6.732  32.702  24.840 -0.0464  0.0495 -0.1674
51152W        W94143  17.469  32.964  16.999  0.0157  0.0372 -0.1134
51153W        W94144  32.905  22.452  24.892  0.1213 -0.0400 -0.0195
51154W        W94145  10.402  34.575   0.337  0.0319 -0.2712  0.1866
51155W        W94146   2.290   5.623  16.777 -0.1789  0.1148  0.0870
51156W        W94147  28.360   1.732  19.772 -0.0362 -0.1369  0.1805
51157W        W94148  31.934   5.841  16.743 -0.3197 -0.0285 -0.0816
51158W        W94149  17.445   0.235  25.389 -0.0149  0.0087 -0.0286
51159W        W94150   5.442  24.140  17.963 -0.2535 -0.0607 -0.0864
51160W        W94151  15.255  25.736  24.246 -0.2583 -0.0861  0.3344
51161W        W94152   7.216  10.459   1.650  0.0189  0.1501 -0.0034
51162W        W94153   0.033  27.538  19.618  0.4409  0.2058 -0.0454
51163W        W94154  11.013   0.336  28.296 -0.1502 -0.0090  0.1720
51164W        W94155  25.398  13.773  16.849 -0.1225 -0.1237 -0.1714
51165W        W94156   7.056  17.734  20.054 -0.2980  0.0354  0.1077
51166W        W94157   6.905  28.832   0.659  0.2419 -0.1382 -0.2087
51167W        W94158   5.694  30.383  14.299  0.1315 -0.0573 -0.2379
51168W        W94159   6.689  10.274  24.672 -0.1133 -0.2078  0.0592
51169W        W94160  11.094   3.636   0.148 -0.0497 -0.2006 -0.0251
51170W        W94161   6.292   5.957  18.547  0.3450  0.4444  0.3879
51171W        W94162  20.954   4.951  14.329 -0.1716  0.1354 -0.0934
51172W        W94163   2.790   7.512  17.012 -0.1737  0.2948 -0.2903
51173W        W94164   5.101  12.663   4.780 -0.0468 -0.2890  0.3472
51174W        W94165  10.783  29.899   2.931 -0.1844  0.0089  0.0714
51175W        W94166  14.743   8.221  15.651 -0.2460  0.1388  0.0479
51176W        W94167  33.359   9.923  25.955  0.0822 -0.1652 -0.3078
51177W        W94168  30.079  24.312  18.470  0.2085 -0.4322 -0.3047
51178W        W94169   1.756  31.986  24.162 -0.1658  0.2139 -0.1356
51179W        W94170   9.441  19.409  15.920 -0.0327  0.0558  0.0902
51180W        W94171   8.958  30.988  24.623  0.0106 -0.3493 -0.0464
51181W        W94172  12.248  28.731  22.993  0.1113 -0.0738 -0.1576
51182W        W94173  15.423  31.491  19.202  0.0026  0.1306  0.1334
51183W        W94174  11.121  14.184  20.475  0.0230  0.1100 -0.0597
51184W        W94175  34.321  27.749  24.026 -0.1350 -0.1097  0.0547
51185W        W94176  23.365  26.210  28.049  0.0212  0.1796  0.0918
51186W        W94177  13.704  33.718  22.176 -0.0699  0.0815  0.0970
51187W        W94178  17.446   1.580   1.644 -0.0631 -0.1093 -0.0864
51188W        W94179   4.222  32.994   1.782  0.1978 -0.1366  0.1209
51189W        W94180  10.284   8.704  23.548 -0.0547 -0.2192  0.2226
51190W        W94181  18.752  20.081  19.435 -0.1042  0.2820  0.1505
51191W        W94182  23.509  26.124  16.520  0.1517 -0.1585 -0.0046
51192W        W94183   6.636  13.095   9.314  0.1402 -0.0134  0.2928
51193W        W94184   2.585   2.376  20.628  0.3596  0.0883 -0.2636
51194W        W94185   2.013  34.444   1.342 -0.0479  0.1898  0.0584
51195W        W94186  22.721  25.962  19.244  0.0796  0.0233 -0.3458
51196W        W94187   3.063  33.555  27.465  0.0028 -0.0386 -0.0647
51197W        W94188  23.688  30.346  24.230 -0.0999 -0.0177  0.0172
51198W        W94189   3.250   2.017  27.658 -0.0309 -0.0556  0.0628
51199W        W94190   8.091   2.465  26.690 -0.1698  0.0862 -0.3215
51200W        W94191  10.587   4.922  14.244  0.0380 -0.1529 -0.1576
51201W        W94192  21.857  26.162  16.757  0.0108  0.1035 -0.2824
51202W        W94193   0.884  10.462  23.760 -0.1790  0.0247 -0.0473
51203W        W94194  14.492  32.500  24.446  0.1699 -0.0176  0.3102
51204W        W94195  12.684  22.790   4.852 -0.1986  0.1802 -0.1271
51205W        W94196   3.653   0.069  20.381 -0.0419  0.1005  0.1437
51206W        W94197   3.412   8.755  26.830 -0.0497 -0.3512 -0.3489
51207W        W94198  11.870   5.104   6.751 -0.2875 -0.1426  0.1155
51208W        W94199  10.053   9.279  21.142 -0.0780  0.0864 -0.2440
51209W        W94200  25.088  12.885  21.827 -0.0824 -0.0551  0.2020
51210W        W94201  25.829  31.449  12.372  0.1920  0.0825  0.2519
51211W        W94202  11.431  28.755  15.502  0.1042 -0.4372 -0.0148
51212W        W94203   3.408  12.242  19.042 -0.0553  0.1014  0.1843
51213W        W94204   3.827  28.647  24.686  0.1565 -0.1462  0.1084
51214W        W94205   8.789  18.130   4.356  0.1043 -0.0949  0.0404
51215W        W94206  16.335  27.873  27.890  0.2762 -0.0400  0.0130
51216W        W94207   5.025  20.209  24.168  0.0353 -0.3193  0.0019
51217W        W94208  10.822  26.988  23.468  0.1695 -0.1528 -0.3205
51218W        W94209  23.924   9.642  25.934  0.1736  0.0894  0.2252
51219W        W94210   7.862  14.738  22.624  0.2057 -0.0018 -0.1526
51220W        W94211  33.838  10.479  28.860 -0.0912 -0.0634 -0.0802
51221W        W94212   4.759  11.171  22.197  0.1093  0.1076  0.6241
51222W        W94213   3.080  18.643  20.727  0.1024  0.0765  0.0467
51223W        W94214   6.336   6.661  28.007  0.0476  0.2087 -0.0176
51224W        W94215  29.450  23.853  23.329 -0.0055  0.0387 -0.0919
51225W        W94216   5.550   5.280  25.194 -0.2527 -0.1834  0.2967
51226W        W94217  19.918   8.957  25.554 -0.1913 -0.2923  0.1296
51227W        W94218  12.271   2.029   1.396  0.2551 -0.0857 -0.3444
51228W        W94219  31.274   0.924  23.345 -0.2344  0.0703  0.0770
51229W        W94220   4.559  15.235  25.948  0.2640 -0.1510  0.2872
51230W        W94221   0.393   1.534  14.174 -0.0943 -0.0653 -0.1068
51231W        W94222  21.149   8.383  17.350 -0.5089  0.2690 -0.0243
51232W        W94223  27.214  24.972  28.065  0.0221 -0.0757 -0.0204
51233W        W94224   8.122  22.680   4.655 -0.0347  0.0425 -0.0441
51234W        W94225  31.614  25.383  21.205 -0.0033  0.0523 -0.2047
51235W        W94226  17.257  28.546  17.162  0.0108  0.1124 -0.0107
51236W        W94227  18.486   4.360  20.422  0.1963 -0.0237 -0.2086
51237W        W94228   7.393  18.868  22.567 -0.0072  0.1654 -0.1845
51238W        W94229   3.527  15.804  21.275  0.0115  0.0469 -0.1639
51239W        W94230  10.595   2.828  10.295 -0.0903  0.3654 -0.1365
51240W        W94231   8.031  25.992   0.714 -0.1231  0.0405 -0.1448
51241W        W94232   7.233  31.449   3.282  0.3059 -0.1101  0.1184
51242W        W94233   9.272   4.331  23.122  0.2424 -0.3076 -0.2439
51243W        W94234   2.566   2.035  26.087 -0.2675 -0.0303 -0.0263
51244W        W94235  16.433   2.826   3.045 -0.2509 -0.1595 -0.2205
51245W        W94236   0.578   5.943   6.393 -0.0477 -0.2354  0.0930
51246W        W94237  28.216  34.043  19.746 -0.0747 -0.0944 -0.4583
51247W        W94238  21.640  12.957  21.722  0.0378 -0.2398 -0.0009
51248W        W94239  23.464   4.543  26.018 -0.2139  0.2530 -0.1162
51249W        W94240  31.955  30.276   0.564 -0.1698 -0.3065  0.2133
51250W        W94241  21.588  16.131  18.214  0.1465  0.1521 -0.3649
51251W        W94242   1.116  21.889  22.189  0.1156 -0.1318  0.1771
51252W        W94243  18.166  25.265  29.130  0.2273 -0.2055  0.1173
51253W        W94244  13.536  32.498  23.226  0.1039 -0.0248 -0.1683
51254W        W94245  32.455  16.645  25.273 -0.1941 -0.1880  0.1179
51255W        W94246  30.235  34.698  23.773  0.3566 -0.0530  0.1454
51256W        W94247   7.561   3.548  24.799  0.0342  0.0895 -0.2041
51257W        W94248  21.474   2.015  17.378  0.3046  0.0095  0.1124
51258W        W94249  30.284   4.418  18.303 -0.0931 -0.1159 -0.3635
51259W        W94250  11.905  28.240  20.724 -0.1528  0.0316  0.0984
51260W        W94251   9.324   0.238  15.013  0.0633 -0.0366  0.3651
51261W        W94252  12.767  14.340  22.088 -0.1678  0.0335 -0.0718
51262W        W94253   5.119  25.093  25.339  0.1382 -0.0066 -0.3204
51263W        W94254  26.679   0.036  20.758 -0.2387 -0.0664  0.2051
51264W        W94255  21.945  33.879  23.396 -0.1537  0.1724 -0.0502
51265W        W94256  10.357  28.317   7.173 -0.2506 -0.0051  0.0202
51266W        W94257   2.500  23.848  20.421  0.0759 -0.2819 -0.0523
51267W        W94258  10.607   2.635  19.503  0.1433 -0.1668 -0.1369
51268W        W94259   5.626  26.092  20.361 -0.0645  0.1002  0.0065
51269W        W94260  31.060   9.272   6.825 -0.4228  0.2060 -0.2005
51270W        W94261   8.095  29.958  26.256  0.0033 -0.0386  0.0858
51271W        W94262  15.386   8.901  21.344  0.0560 -0.0296 -0.1677
51272W        W94263  15.201   2.483  19.201 -0.1901 -0.0068 -0.2604
51273W        W94264   3.134   9.622   8.772 -0.1786 -0.0346 -0.1031
51274W        W94265   1.691   7.236  20.298 -0.1370 -0.0182  0.0634
51275W        W94266  19.179   1.244  19.312  0.0099 -0.0997  0.0262
51276W        W94267  14.955   3.391  18.698  0.0206 -0.2325 -0.1942
51277W        W94268   4.655   3.806  25.037  0.0932  0.1209 -0.2496
51278W        W94269  13.343  29.025  19.247  0.1920 -0.0002 -0.0403
51279W        W94270  14.238  24.859  28.313  0.4013  0.0554  0.3831
51280W        W94271  15.386  12.965  25.968 -0.0366 -0.2756  0.0173
51281W        W94272  24.916  15.504  17.836 -0.0909 -0.4971  0.2536
51282W        W94273  30.409  11.919  19.745  0.0242  0.5939 -0.0688
51283W        W94274  24.496  33.487   2.792  0.3054  0.2003 -0.0246
51284W        W94275  12.523  31.850  23.848  0.0773 -0.1003 -0.2358
51285W        W94276   9.580  21.802  29.125 -0.1864  0.0418 -0.1582
51286W        W94277  25.804  14.899   6.201  0.0620  0.1356  0.0332
51287W        W94278   9.374  17.961  28.911  0.2427  0.0881  0.0297
51288W        W94279   8.120   4.908  16.607 -0.0261  0.1130 -0.1958
51289W        W94280  12.785   5.280  25.755  0.0991 -0.0232  0.0162
51290W        W94281   6.354  27.074  21.573  0.0157  0.2440  0.3289
51291W        W94282   4.790  30.875  27.633  0.1110 -0.0381  0.1557
51292W        W94283   0.631  23.939  17.043 -0.1946 -0.2030  0.2295
51293W        W94284  34.197  21.711  17.358 -0.1732  0.2110 -0.2048
51294W        W94285   2.738  31.218   0.194 -0.0358  0.1663 -0.0422
51295W        W94286  17.958   7.011  19.204  0.0760  0.0135 -0.3356
51296W        W94287  33.375   9.296  15.532  0.0506  0.0633  0.3405
51297W        W94288  16.626   1.210   1.827  0.0673 -0.2246  0.2649
51298W        W94289   6.242   3.362  28.828 -0.0329  0.0317 -0.3228
51299W        W94290  27.866   7.282  17.339  0.2678 -0.1791 -0.0680
51300W        W94291   9.637  26.708  22.492  0.1755 -0.0889  0.1484
51301W        W94292   0.891   9.278   2.041 -0.0851 -0.0940 -0.1927
51302W        W94293   0.909  29.054  14.598  0.0505 -0.0139  0.0489
51303W        W94294  12.993  19.211  23.221  0.0464 -0.2097 -0.3129
51304W        W94295  12.751   5.382  15.361  0.3077 -0.2588 -0.0587
51305W        W94296  10.620  31.938   1.675 -0.0150  0.2717  0.1263
51306W        W94297   3.420   9.802   2.040  0.0691 -0.0984 -0.1233
51307W        W94298  19.418  14.280   8.938 -0.0291  0.2653 -0.2251
51308W        W94299  25.763   6.251  20.646 -0.0152 -0.1005 -0.1101
51309W        W94300  19.822  28.323  26.985  0.1661 -0.2212  0.0497
51310W        W94301   3.825  24.538  10.165  0.1385  0.1081 -0.2372
51311W        W94302  32.561  11.528  23.137 -0.2115 -0.3520  0.0062
51312W        W94303  15.016   7.670   5.764 -0.3121  0.1576 -0.0239
51313W        W94304  16.730   5.995  16.291 -0.0387 -0.1279 -0.1017
51314W        W94305  19.419  33.433  21.702  0.1106 -0.3249 -0.1795
51315W        W94306  25.988  34.535  17.310 -0.1918 -0.1296  0.2766
51316W        W94307   8.872  30.787   9.672 -0.0169 -0.5732  0.0489
51317W        W94308  15.985  14.582   6.996  0.1441 -0.0046  0.0150
51318W        W94309  29.782   0.909  18.335  0.1787  0.0764 -0.0311
51319W        W94310  10.781  29.920  24.633 -0.1643  0.0401  0.2420
51320W        W94311  12.811  28.802  19.302 -0.4371  0.1329  0.0485
51321W        W94312  27.282  33.255  28.143 -0.0710  0.0724  0.0172
51322W        W94313   5.645   2.221   0.794 -0.0490  0.0761  0.0528
51323W        W94314   0.002  10.088  27.607 -0.0056  0.0832 -0.1279
51324W        W94315  21.981  29.079  27.441 -0.1516 -0.4278 -0.0800
51325W        W94316  31.424  26.874   8.946  0.0534  0.1773 -0.1095
51326W        W94317  26.116  22.818  14.340  0.1460 -0.1888 -0.1114
51327W        W94318   3.719  11.426  21.489 -0.3575  0.1750 -0.0579
51328W        W94319  32.188   4.098  16.508  0.0489 -0.3289 -0.0420
51329W        W94320  21.020   5.562  15.966 -0.0656  0.5169  0.1215
51330W        W94321  17.929   1.738  28.220 -0.1581 -0.0112  0.0296
51331W        W94322  23.870   0.493   4.564  0.0192  0.3136  0.0067
51332W        W94323  29.535  33.972  20.371  0.3118 -0.2353 -0.3554
51333W        W94324  11.839   6.992  21.971 -0.0192  0.1003  0.0667
51334W        W94325  23.106   2.761  16.629 -0.3925  0.0144  0.1834
51335W        W94326  15.511   5.833   6.635  0.0782 -0.3001 -0.0790
51336W        W94327  10.777   3.139  19.352  0.0002 -0.1623 -0.1209
51337W        W94328  25.002  30.513  14.737  0.1581 -0.0296 -0.0776
51338W        W94329  24.658   9.274  24.666 -0.1503  0.3106  0.1742
51339W        W94330  20.981   0.092  28.809  0.2833 -0.0566 -0.2430
51340W        W94331  15.709  13.325  25.783 -0.0297 -0.1106 -0.1462
51341W        W94332   9.169  32.271  15.751 -0.0896  0.0070  0.3073
51342W        W94333  19.602   6.710  14.862 -0.1831  0.1976  0.0454
51343W        W94334   1.720  28.895  19.782  0.2227  0.0707 -0.3163
51344W        W94335  14.717  33.627   0.421  0.3174  0.0204  0.2206
51345W        W94336   8.577  28.334  20.409  0.0236  0.1785  0.0201
51346W        W94337  11.636   7.743  17.210 -0.0586  0.0479  0.2256
51347W        W94338  33.104   3.122  29.145  0.1738 -0.1361 -0.1772
51348W        W94339  24.429  31.339   0.529  0.0943  0.2311  0.1070
51349W        W94340  11.823   3.964  23.281 -0.1681  0.3027 -0.5102
51350W        W94341  23.967  18.545  21.636  0.2827 -0.0738 -0.1460
51351W        W94342  30.538   1.373  29.100 -0.0764 -0.0365  0.0264
51352W        W94343   4.078  26.239  26.398  0.2363 -0.2733 -0.1714
51353W        W94344  13.719  27.019   5.211  0.0744 -0.0491  0.1979
51354W        W94345  30.907  30.632  29.035  0.1828  0.1565  0.1266
51355W        W94346   2.157  33.111  23.228  0.0099  0.1616 -0.2055
51356W        W94347  15.604   9.254   9.526  0.1828 -0.1938  0.2392
51357W        W94348  21.500  11.487  17.261 -0.2140 -0.1327  0.0515
51358W        W94349  19.891  32.141   8.203  0.0156 -0.0767 -0.2901
51359W        W94350  16.544   1.396   5.727  0.0644 -0.0912  0.1758
51360W        W94351  12.516  14.326   2.296 -0.1573 -0.2695 -0.1542
51361W        W94352   6.543   2.645  26.683  0.0591  0.1238  0.1301
51362W        W94353  18.915   8.158   6.924 -0.0390  0.0682  0.0488
51363W        W94354   6.711  22.774  24.792  0.3029 -0.0596 -0.1119
51364W        W94355   9.424  10.459  22.021  0.1666  0.0069 -0.1268
51365W        W94356  12.526  11.527  20.002  0.0751  0.3682  0.1587
51366W        W94357   4.720   3.944   3.244  0.0815  0.1083 -0.1829
51367W        W94358  19.824  12.827  15.984  0.3224  0.1359 -0.1739
51368W        W94359   8.739  32.132   2.955 -0.0526 -0.0830  0.1552
51369W        W94360  25.695  14.101  16.343  0.0167  0.2803 -0.0021
51370W        W94361   3.377  19.035  19.321 -0.3229  0.1091  0.0077
51371W        W94362  17.013  28.816  26.593 -0.1203  0.3979 -0.3246
51372W        W94363   6.429  30.953   0.989 -0.2305  0.2058 -0.1040
51373W        W94364  12.484   4.565   0.371 -0.0284  0.0399 -0.1950
51374W        W94365   4.706  30.736  19.471  0.3328  0.1240 -0.1353
51375W        W94366   6.309   6.130   3.541 -0.0930  0.1625 -0.0951
51376W        W94367   5.409  29.744   1.133  0.0097  0.0288  0.0234
51377W        W94368   0.609   2.654   6.027  0.1707  0.2256 -0.0423
51378W        W94369  12.579   3.932  26.704 -0.1735 -0.2070 -0.0734
51379W        W94370  33.603  25.737  24.069  0.1952  0.2042 -0.3432
51380W        W94371  10.885  22.595  22.879 -0.0864  0.1584  0.0159
51381W        W94372  25.927  28.445  27.786 -0.0250  0.2885  0.0010
51382W        W94373   6.181   7.932  18.830  0.1078 -0.0743  0.4733
51383W        W94374   4.526  33.794   8.436  0.1372 -0.0401 -0.5267
51384W        W94375  24.764  29.648  22.371 -0.1425  0.0038  0.1240
51385W        W94376  11.906   0.659   8.947  0.3078 -0.0332  0.2213
51386W        W94377  15.853  13.976  22.350  0.0592  0.0227  0.0228
51387W        W94378  22.276   4.948   7.688 -0.0230  0.5647 -0.0404
51388W        W94379   1.775  33.411   7.752 -0.2097 -0.2228  0.0590
51389W        W94380  10.172  15.194  16.597  0.0031 -0.1041  0.0654
51390W        W94381  32.553  14.070  17.620 -0.2191  0.2330 -0.3018
51391W        W94382   6.699  34.501   7.431  0.0040 -0.2072 -0.1819
51392W        W94383  11.561  24.356  13.876 -0.3174  0.2585  0.2644
51393W        W94384  23.125   4.594  14.785 -0.0052 -0.0637 -0.1541
51394W        W94385  15.815  32.421  15.005  0.2360  0.0616  0.1310
51395W        W94386  31.030   3.848  17.898 -0.1424  0.1894  0.2231
51396W        W94387  20.052  19.437  14.610 -0.1008 -0.0662 -0.1567
51397W        W94388   6.606  26.925   1.978 -0.0800 -0.0986 -0.2743
51398W        W94389   4.559  25.452  14.858  0.0177  0.2119  0.1467
51399W        W94390   9.567   0.936  15.404  0.0613  0.2689  0.1054
51400W        W94391   5.766  17.541  25.539  0.0139 -0.0636 -0.1136
51401W        W94392  10.765  34.557   4.672  0.0101 -0.1327  0.1188
51402W        W94393  31.483  23.762   2.604 -0.1385  0.0864  0.0421
51403W        W94394  28.381  10.484   2.404  0.0094 -0.1478 -0.1387
51404W        W94395  13.648   3.349   1.955 -0.1958  0.0890  0.1421
51405W        W94396  16.702  26.280  15.902 -0.0258  0.1820 -0.0091
51406W        W94397   1.372  29.008  25.338  0.1342  0.1936  0.0751
51407W        W94398   4.745  29.405  27.421 -0.2331  0.5257  0.2947
51408W        W94399  18.531   6.195   2.908  0.1130 -0.2267  0.0255
51409W        W94400   2.622  29.669   9.139  0.1131 -0.0040 -0.0659
51410W        W94401  25.872  30.590  22.068  0.2459  0.0450  0.1383
51411W        W94402  32.297  31.043   6.719 -0.0234  0.0379  0.0590
51412W        W94403  16.031  21.514  20.993 -0.0373  0.0801 -0.0852
51413W        W94404  11.227   9.214   0.355  0.0615  0.0130 -0.1267
51414W        W94405  18.176  33.885  24.329  0.1323  0.4262  0.0568
51415W        W94406  29.252  32.077  19.341 -0.1452 -0.2051 -0.1785
51416W        W94407  19.029  26.698   5.977  0.1362 -0.1611 -0.1751
51417W        W94408  19.224  24.210  23.626 -0.0162 -0.0226 -0.1616
51418W        W94409   6.409  32.333  22.218 -0.0405  0.1656  0.1368
51419W        W94410   1.601   2.448  23.345 -0.1129  0.5130 -0.1067
51420W        W94411   0.689   1.149  21.008 -0.2444 -0.2403 -0.0909
51421W        W94412   1.608   8.585  11.879 -0.0938  0.0035  0.2340
51422W        W94413  15.125  13.971   9.387 -0.0709 -0.1659 -0.0971
51423W        W94414  15.777  28.462  20.670 -0.1994 -0.0488 -0.2126
51424W        W94415  17.294  21.595  25.097 -0.0358 -0.1163  0.2575
51425W        W94416  25.803   5.897   3.904  0.3935 -0.0682 -0.0649
51426W        W94417  31.913  24.032  21.843 -0.0428  0.1847  0.0100
51427W        W94418  16.191   5.659   3.143 -0.0308  0.1606  0.2864
51428W        W94419   5.941  24.970  24.455  0.1196  0.1394 -0.1845
51429W        W94420   7.504   0.131  16.405  0.2366 -0.3236  0.0384
51430W        W94421  22.233  26.668   8.109  0.0703  0.0445  0.3358
51431W        W94422  25.953  29.392  13.325 -0.0880 -0.1877  0.2122
51432W        W94423  15.623  11.327  26.968 -0.2087  0.1590 -0.0249
51433W        W94424   9.653  25.235  25.490  0.4994 -0.1893 -0.0579
51434W        W94425  33.068   8.329   4.398 -0.3568 -0.1472 -0.0711
51435W        W94426  22.568   5.886  27.699  0.0197  0.0508 -0.0539
51436W        W94427  27.976   9.591   3.555 -0.1300 -0.2355  0.1216
51437W        W94428  16.265  11.300  28.640 -0.3630  0.1440  0.2214
51438W        W94429  27.246   1.875   8.932 -0.0761  0.1926 -0.1996
51439W        W94430  33.376  29.737   6.568 -0.0759  0.1872 -0.4352
51440W        W94431  13.698  25.575  29.211  0.0202  0.1742  0.1431
51441W        W94432   4.843  30.904   0.867  0.2065 -0.0367 -0.0398
51442W        W94433  23.326  15.549   0.346  0.0672 -0.1460  0.3461
51443W        W94434  26.048  25.438  25.027  0.0361  0.0417  0.2963
51444W        W94435  11.777   1.414   3.174 -0.2044  0.0750 -0.0826
51445W        W94436  30.487  27.398  23.870 -0.0462 -0.2352 -0.2369
51446W        W94437   7.294  31.554  23.924  0.0440 -0.0003  0.0419
51447W        W94438  29.058   4.597  27.578  0.1259  0.1183  0.0556
51448W        W94439   1.632  26.601   5.175  0.2449 -0.0930  0.0647
51449W        W94440  33.690  31.507  21.428 -0.0709  0.2313 -0.0435
51450W        W94441  13.769  17.722  20.802 -0.1024  0.3005 -0.1056
51451W        W94442   5.373  30.465  17.088  0.0236  0.2390  0.2825
51452W        W94443  10.828  16.031  18.672  0.0360 -0.0340 -0.0130
51453W        W94444  11.289  21.191  22.988 -0.0996 -0.0039  0.0060
51454W        W94445  21.849  26.520  19.782 -0.0444 -0.2166  0.2452
51455W        W94446  20.528  19.980  13.352  0.1017  0.1987  0.4922
51456W        W94447  29.092   0.981  25.394 -0.0530  0.4386  0.3140
51457W        W94448  34.188  33.818  15.361  0.5374 -0.1223 -0.0995
51458W        W94449  22.352  32.926  15.897 -0.0543  0.1882  0.2006
51459W        W94450  13.055   5.952  27.614  0.0745  0.0740 -0.1181
51460W        W94451  23.929   3.358  14.710 -0.1267  0.0157 -0.0718
51461W        W94452  27.816   0.609  19.291 -0.2699 -0.1528  0.3163
51462W        W94453   1.487  32.554   9.638  0.1014 -0.1248 -0.1537
51463W        W94454  11.548  27.561  29.069  0.0572  0.3483  0.2332
51464W        W94455   3.547  31.951   4.047  0.0696  0.2950 -0.0098
51465W        W94456  28.163  29.892  21.665 -0.1129  0.0331 -0.2493
51466W        W94457  33.603   8.947  22.201  0.3450  0.2011 -0.2200
51467W        W94458  23.783  20.846   2.459  0.0395  0.0962  0.0571
51468W        W94459  27.190  33.458  15.984  0.0214  0.0470 -0.1724
51469W        W94460   8.855  27.674   6.095  0.3830  0.1964 -0.0485
51470W        W94461  18.599  26.731  26.928 -0.2044 -0.1433  0.1034
51471W        W94462  17.243  29.369   6.984 -0.2400 -0.2196  0.0641
51472W        W94463  20.972   0.438   5.245  0.0841  0.1146  0.2351
51473W        W94464  15.989   7.875  23.965 -0.1309  0.3222  0.0359
51474W        W94465   6.071   6.715   4.708  0.0294  0.3248 -0.1253
51475W        W94466   7.138  33.896   3.336  0.1366 -0.0528 -0.3495
51476W        W94467   6.149  34.610   1.491  0.0445  0.0070  0.0967
51477W        W94468  21.032  13.614  17.790 -0.0509 -0.1199  0.2573
51478W        W94469  14.960   3.179  27.311 -0.0254 -0.1235  0.1678
51479W        W94470  24.338  32.398   9.376 -0.0956  0.0214  0.1071
51480W        W94471   1.425   3.042   7.996  0.2435  0.0787  0.3155
51481W        W94472   7.320  26.273   4.272  0.1739  0.1292  0.1426
51482W        W94473  34.318  15.317  26.177  0.0414  0.0032  0.0415
51483W        W94474   3.316  27.394  24.125 -0.1212 -0.1010  0.0859
51484W        W94475  10.236  24.502   8.888  0.1401 -0.0179  0.0177
51485W        W94476   6.767  13.939   6.405  0.2125 -0.2280  0.1013
51486W        W94477   7.111  31.915  20.501  0.2027  0.0079  0.0371
51487W        W94478  14.344  23.726  21.226  0.2365  0.1411 -0.3076
51488W        W94479  17.233  33.016   1.602  0.0563 -0.1529  0.1658
51489W        W94480   9.911  25.339   4.067 -0.5469 -0.2522  0.1284
51490W        W94481   2.448   6.115   5.277 -0.0118  0.0694 -0.0091
51491W        W94482  13.858  14.503  20.264 -0.3090  0.2616 -0.2150
51492W        W94483  27.967  22.425  23.664 -0.0045 -0.2053 -0.0699
51493W        W94484  33.362  18.397   3.056 -0.2942 -0.0874  0.0458
51494W        W94485  27.370  25.631  18.635  0.0651  0.4153 -0.1193
51495W        W94486  23.639  13.742   2.372 -0.0277  0.0202  0.1254
51496W        W94487   0.872  21.297   8.353 -0.3179 -0.0620 -0.0170
51497W        W94488  14.302   4.928   0.470  0.1888  0.1507 -0.0353
51498W        W94489  31.141  23.929  22.950  0.0954  0.1556 -0.0452
51499W        W94490  18.962   7.131  27.228  0.3640  0.0217  0.2322
51500W        W94491  33.926   3.233  22.397 -0.1397 -0.1885 -0.0359
51501W        W94492   0.476   0.626  23.554 -0.0849 -0.0236  0.1307
51502W        W94493  13.382  16.675   8.968 -0.0534  0.2183  0.0320
51503W        W94494  23.394  16.472  24.770  0.0809  0.3313 -0.1275
51504W        W94495  20.358   1.753  22.294  0.1958  0.0360  0.0778
51505W        W94496   2.804  27.489  17.636 -0.0519  0.3493  0.1258
51506W        W94497  29.779   4.134   2.718 -0.0861  0.1413 -0.3326
51507W        W94498  27.551  25.503  26.951  0.0380  0.0517  0.0499
51508W        W94499   9.569   9.101  21.142 -0.0566 -0.0986 -0.3721
51509W        W94500  12.590   9.589  28.589 -0.1332 -0.0932  0.0809
51510W        W94501  12.373  12.117   4.619  0.1330 -0.1726  0.0671
51511W        W94502   5.456   1.539   5.358  0.0812 -0.4092  0.0952
51512W        W94503  11.237  11.914  25.845  0.2543  0.0890 -0.1182
51513W        W94504   4.001  25.842  18.264  0.1097 -0.0575  0.1010
51514W        W94505   6.036  24.975  22.270 -0.1918  0.0203  0.0251
51515W        W94506  13.774  14.600  24.540 -0.2638 -0.1411  0.1412
51516W        W94507   7.503   0.365  27.482  0.1612  0.0472  0.1573
51517W        W94508   1.710  28.821  13.819  0.0260  0.0844  0.4404
51518W        W94509  22.297  15.934   9.715 -0.2112  0.0226  0.2560
51519W        W94510  31.638  34.615  17.131 -0.0919 -0.0341  0.0505
51520W        W94511  23.748  28.729   7.954 -0.1364  0.3369  0.1779
51521W        W94512   9.512   3.516  20.761  0.0617  0.0532 -0.1300
51522W        W94513  13.618  11.959  19.112  0.1137  0.0530 -0.0765
51523W        W94514   5.531   0.233  22.939 -0.0290  0.0084  0.0364
51524W        W94515   4.557  29.796  17.978  0.1720  0.0547  0.3100
51525W        W94516  16.564  34.139   1.450  0.1609  0.0207  0.4598
51526W        W94517  33.629   0.229  23.877 -0.1017 -0.2024 -0.2489
51527W        W94518  22.100   6.858   9.182 -0.1896  0.0398 -0.0752
51528W        W94519   1.991   5.792   4.293  0.1328  0.1329  0.3392
51529W        W94520  11.126   2.934  28.502  0.2913  0.1035  0.1817
51530W        W94521  27.212  28.424  23.849 -0.0226 -0.1726 -0.1447
51531W        W94522  22.601  30.930  18.909  0.0065 -0.0520 -0.2683
51532W        W94523  13.717  30.596   6.606 -0.2098  0.0329 -0.3336
51533W        W94524   0.114   2.636  22.965  0.1499 -0.1660 -0.0379
51534W        W94525  31.891  29.878   4.165  0.3428 -0.0846  0.2488
51535W        W94526   3.765   9.514  10.220 -0.0818  0.2522  0.2065
51536W        W94527  33.395   1.439  18.503  0.2405 -0.1996 -0.2619
51537W        W94528  13.553  27.555  28.893  0.0032 -0.2051  0.0697
51538W        W94529  34.527  22.990   0.820 -0.1222  0.0286 -0.4441
51539W        W94530  22.794  24.945  19.947  0.0256  0.2091 -0.0974
51540W        W94531  14.048   2.194   1.883 -0.1504 -0.3805 -0.1082
51541W        W94532  23.311   2.822   6.712  0.0091  0.2808  0.2095
51542W        W94533   8.112   4.169  27.144  0.0801 -0.2142 -0.0027
51543W        W94534  10.642  31.208  27.441  0.2730  0.0343  0.1121
51544W        W94535   6.101  17.705  24.167 -0.0929 -0.1681  0.0055
51545W        W94536   4.566   1.239  15.150 -0.0146 -0.1280 -0.0494
51546W        W94537   0.471   0.902  24.731 -0.0570  0.1439  0.2316
51547W        W94538   1.507   8.183   6.323 -0.1476  0.1243 -0.4057
51548W        W94539   8.994   9.311  21.438  0.2105 -0.2566  0.1471
51549W        W94540   6.987   1.317   9.387 -0.3735 -0.2679  0.1990
51550W        W94541  27.746  20.743  27.085  0.2426 -0.2723  0.1503
51551W        W94542   5.339  10.853   2.332  0.1977 -0.0020  0.3752
51552W        W94543  11.168  22.008  27.375  0.0516 -0.0754 -0.0163
51553W        W94544   8.296   3.013  23.879 -0.0165 -0.0043  0.0168
51554W        W94545  14.955  26.563  23.989 -0.0262 -0.2877 -0.0960
51555W        W94546   9.858  11.804  18.819 -0.0821  0.3538  0.2627
51556W        W94547  12.568   9.277   3.508 -0.0085 -0.1277  0.0632
51557W        W94548   8.129  10.635   8.077 -0.1143 -0.0456 -0.3620
51558W        W94549   3.385   8.277  21.541 -0.1589 -0.1761 -0.2096
51559W        W94550   3.831   0.136   3.769 -0.1384  0.2276  0.2073
51560W        W94551  13.173  34.653   6.831 -0.2173  0.0390  0.0652
51561W        W94552  10.277  26.571  19.856  0.0547 -0.0513  0.0068
51562W        W94553  14.642  17.918   4.598 -0.3016 -0.0304  0.0372
51563W        W94554  27.168   8.628  25.427 -0.1011 -0.1269  0.0573
51564W        W94555   3.895   0.031   1.610 -0.1033 -0.1066 -0.1955
51565W        W94556  14.808  10.615  24.295  0.0052 -0.0370  0.0407
51566W        W94557  33.932  11.736   6.915 -0.0575 -0.3640  0.1225
51567W        W94558   9.301  31.082  24.301  0.1283  0.0458  0.1279
51568W        W94559  11.084   1.812  10.456 -0.1442 -0.2673 -0.2133
51569W        W94560  10.979  16.515  24.473  0.0748 -0.3446  0.0346
51570W        W94561  29.176  13.646  21.482 -0.2011 -0.1396 -0.0899
51571W        W94562  16.300  31.103  23.705  0.1325  0.0391  0.1317
51572W        W94563   5.140  15.354  15.948  0.0103  0.1451 -0.0463
51573W        W94564  12.047   0.840  23.945  0.0410 -0.2080 -0.1441
51574W        W94565  27.480   5.431   1.012 -0.2470  0.1364  0.1368
51575W        W94566  27.435  11.886  26.085 -0.2165  0.0887  0.3410
51576W        W94567  10.185  30.912   1.543  0.0196  0.0618  0.0644
51577W        W94568  30.657   3.128   7.852  0.0584  0.3887  0.1032
51578W        W94569  34.199  30.092  28.062 -0.0005 -0.0458 -0.1858
51579W        W94570   9.866  27.157  26.170  0.1488  0.3408  0.1117
51580W        W94571  11.600  26.788  23.318  0.0209  0.1256 -0.2341
51581W        W94572  14.357   7.414   2.152 -0.1127 -0.0042 -0.1907
51582W        W94573  28.536  11.049  27.476  0.3057  0.4075 -0.1343
51583W        W94574  28.486  10.247   3.990 -0.4160 -0.0969  0.0979
51584W        W94575  17.255  32.395   5.213 -0.4038 -0.1238 -0.0777
51585W        W94576  11.233  11.651  24.737  0.3563 -0.1968  0.2395
51586W        W94577   7.475  23.421  27.131  0.2438 -0.1500 -0.0578
51587W        W94578  14.962   8.745  11.252 -0.1286  0.2440 -0.1219
51588W        W94579  10.136   2.795   7.578  0.3223  0.2099  0.2522
51589W        W94580  23.815  30.791  27.757  0.0156 -0.0605 -0.2885
51590W        W94581   5.888   7.289  28.464 -0.0872 -0.2403 -0.3984
51591W        W94582  19.693  19.683  24.190  0.1959 -0.0710 -0.1742
51592W        W94583  27.545   4.720  14.884  0.1555 -0.2572  0.2474
51593W        W94584   8.515  23.949  16.418  0.0987  0.0535  0.1256
51594W        W94585  12.560  17.768  13.300  0.1274  0.0547  0.0395
51595W        W94586   7.522   5.406  24.371 -0.0977  0.1695 -0.0371
51596W        W94587  15.392  14.297  21.852  0.2356 -0.0138  0.0490
51597W        W94588  15.078  28.937   3.202 -0.3140 -0.2270  0.0814
51598W        W94589  24.464  33.939  18.751  0.1249  0.0193 -0.2366
51599W        W94590  21.376  21.442  26.154  0.0747  0.0094  0.0161
51600W        W94591   9.547   8.178  18.818  0.1088  0.1545  0.1191
51601W        W94592  17.800  23.241  14.369 -0.1935  0.1580 -0.1437
51602W        W94593   7.311   0.080  24.165 -0.0568 -0.0132  0.0523
51603W        W94594  17.412  33.242  18.705  0.0523 -0.0725  0.0783
51604W        W94595   3.911   2.615  22.613 -0.2622 -0.2154  0.0901
51605W        W94596  24.081  14.164  16.546  0.0709 -0.1863 -0.0022
51606W        W94597  13.217  29.313  20.448  0.1324  0.2091  0.1727
51607W        W94598   8.890  28.102  19.413  0.1929  0.0470  0.1292
51608W        W94599   4.549  30.363  22.777 -0.1266  0.0198  0.1628
51609W        W94600   6.528  34.268  17.889 -0.0676 -0.2419 -0.0409
51610W        W94601  24.817  33.104  16.571  0.4474 -0.2217 -0.0222
51611W        W94602  20.100   5.102  26.077 -0.2529  0.2264  0.0327
51612W        W94603   2.054  30.967   1.777  0.0706 -0.0288 -0.3105
51613W        W94604  23.337  21.846  13.992  0.0858 -0.0029  0.0364
51614W        W94605  33.045  34.436  22.731  0.2291 -0.3349  0.1781
51615W        W94606   7.970  33.860  17.869 -0.2036 -0.1108 -0.0420
51616W        W94607   5.366  26.121  24.573 -0.1331 -0.2232 -0.0423
51617W        W94608  18.182   0.760  18.316  0.1247 -0.1906 -0.2235
51618W        W94609  25.330   8.107  20.623  0.0901  0.1961 -0.0528
51619W        W94610  25.338   4.329  26.452 -0.0148 -0.3536 -0.1673
51620W        W94611  13.986   2.408  17.544 -0.1023 -0.1954  0.3717
51621W        W94612   4.180   7.952  24.693 -0.1368 -0.0453 -0.0246
51622W        W94613   9.197  24.623  17.336 -0.1394 -0.4531 -0.0188
51623W        W94614   9.982  21.640  18.764  0.2288 -0.1414 -0.0441
51624W        W94615  25.652  25.158  15.567  0.0884  0.2118 -0.0905
51625W        W94616  11.591   2.242  19.400  0.2907 -0.3759  0.3555
51626W        W94617   1.924  30.473  23.803 -0.1269  0.1390  0.3133
51627W        W94618   3.551  18.430  21.091 -0.0033  0.3442  0.1049
51628W        W94619  19.062  12.304  15.227 -0.0572  0.2092 -0.1458
51629W        W94620  26.647   7.276   2.814  0.0252 -0.1509 -0.2191
51630W        W94621  19.482   3.199  22.685 -0.0117  0.1725 -0.3827
51631W        W94622  11.208  33.534   0.355  0.0828 -0.0415 -0.0709
51632W        W94623   7.154  32.299  24.489 -0.0517  0.0417 -0.2047
51633W        W94624  22.442   8.807  21.496  0.0008  0.1426 -0.1484
51634W        W94625   6.522  26.746  17.018 -0.0222  0.5669 -0.0540
51635W        W94626   9.295  32.076  24.229 -0.1715  0.2712 -0.0097
51636W        W94627  14.385   3.509  24.875 -0.1755 -0.1413 -0.1421
51637W        W94628   8.799   2.199  24.295 -0.0939 -0.2030  0.0462
51638W        W94629  20.800  27.380  24.006  0.0077  0.0018  0.0741
51639W        W94630  16.352   8.977  22.825 -0.0831  0.3095  0.1512
51640W        W94631  31.713  13.150  17.635 -0.2029 -0.3240  0.1187
51641W        W94632  17.325  21.216  19.228  0.0239 -0.0321  0.1109
51642W        W94633  21.692  32.072  16.122 -0.0988  0.1733 -0.0074
51643W        W94634  23.623  33.670  14.517  0.1029 -0.2054  0.2832
51644W        W94635  11.331   8.240  22.921 -0.2767  0.0292 -0.3470
51645W        W94636   0.916  19.569  14.434 -0.3560 -0.3575 -0.1880
51646W        W94637   7.423  34.255  18.763 -0.0640 -0.1095  0.3629
51647W        W94638  15.915   0.428  25.995 -0.1146  0.1260 -0.3159
51648W        W94639  15.381  29.842  26.459  0.1836  0.0559 -0.0567
51649W        W94640  20.685   1.085  19.116 -0.0691 -0.2147  0.1082
51650W        W94641   2.542   3.571  23.995 -0.0497  0.0382 -0.3914
51651W        W94642  31.956  10.079  17.369 -0.3442 -0.1388  0.1053
51652W        W94643  27.339  15.297  20.601 -0.2550  0.3305  0.2888
51653W        W94644  32.653  26.972  14.438 -0.0099 -0.1181 -0.1763
51654W        W94645  14.347  34.176   6.750  0.0066 -0.0630 -0.1933
51655W        W94646  27.203  14.803  15.537 -0.0580  0.2202 -0.0354
51656W        W94647  27.923  34.004  13.491 -0.0127  0.2165 -0.0983
51657W        W94648  27.675  12.822  23.907  0.1437  0.3558  0.1076
51658W        W94649  25.847   1.045  17.730  0.4291 -0.0639 -0.2280
51659W        W94650   8.923   2.791  19.272  0.1406 -0.1247 -0.3242
51660W        W94651   8.519   7.632  21.159 -0.0620 -0.2942 -0.0425
51661W        W94652  10.898  29.019  24.219 -0.1745  0.2749  0.0219
51662W        W94653  10.257   8.983  17.160 -0.2446  0.3241 -0.4000
51663W        W94654  11.203   1.643   2.499  0.1887 -0.0456  0.0115
51664W        W94655  26.972   9.890  17.104  0.0345  0.0198  0.1243
51665W        W94656  29.390   9.024  20.831 -0.0505  0.0613 -0.0724
51666W        W94657   5.199   5.628  21.377  0.1418 -0.3303 -0.3829
51667W        W94658   2.182  31.234  26.954  0.0598  0.1129 -0.0633
51668W        W94659   8.783  18.694  22.158  0.2341 -0.0091  0.1416
51669W        W94660  24.575  29.653  15.113 -0.1403 -0.3088  0.1417
51670W        W94661   9.500  30.120  18.342  0.1491  0.2559  0.1101
51671W        W94662   5.266  30.238  20.155  0.1488 -0.1020 -0.0844
51672W        W94663  21.746   3.964  24.916 -0.1827  0.6262  0.0770
51673W        W94664   5.082  12.548  18.348 -0.1624 -0.2429 -0.2727
51674W        W94665  28.961   5.512  25.921  0.1390  0.2097  0.1131
51675W        W94666  32.528  19.651  17.512 -0.2255  0.1497 -0.3319
51676W        W94667   4.083  32.081   3.761 -0.1810  0.0921 -0.0402
51677W        W94668  15.544  30.095  26.828 -0.1043 -0.1068  0.1064
51678W        W94669  33.869  26.676  16.424 -0.1527 -0.0420  0.0744
51679W        W94670   5.343  22.048  17.403  0.1967  0.1148  0.1448
51680W        W94671  13.288   1.780  24.858 -0.0305  0.0636 -0.2114
51681W        W94672  16.195  16.786   6.088  0.0684 -0.2938  0.0065
51682W        W94673   7.533  34.625  25.299  0.0280 -0.2241 -0.2219
51683W        W94674  22.676  23.110  16.286 -0.2197 -0.5364 -0.1932
51684W        W94675  11.635   3.613  21.290 -0.3544 -0.2679  0.3603
51685W        W94676  34.577   0.358  18.208 -0.1135  0.1759  0.1931
51686W        W94677  25.448   6.778  22.707  0.1372  0.3327 -0.1913
51687W        W94678  18.212  33.436  20.393  0.1259  0.0893  0.0538
51688W        W94679  12.483   1.686  27.081 -0.1789  0.2020 -0.0661
51689W        W94680  31.582   3.073  18.391 -0.2458  0.0600 -0.0002
51690W        W94681  18.122  24.894   4.863  0.2407 -0.0485  0.0704
51691W        W94682  29.655   7.406  21.843 -0.0560 -0.0325  0.0437
51692W        W94683   7.115   1.955  24.296  0.0556  0.0913 -0.0937
51693W        W94684  29.531  17.772  15.241 -0.3095 -0.1887 -0.0043
51694W        W94685   0.699  24.099  26.313  0.3108 -0.2375 -0.1242
51695W        W94686  34.509   9.110  17.418 -0.1094  0.2345 -0.1531
51696W        W94687   4.305   5.829  15.649  0.0602  0.2803  0.0989
51697W        W94688   4.163   6.492  18.044  0.0921 -0.3241  0.3693
51698W        W94689   2.524   8.524  20.979 -0.2486  0.2382  0.0141
51699W        W94690  23.114   6.772  17.271 -0.0705  0.0438  0.0348
51700W        W94691  16.734   5.974  20.176 -0.2784 -0.0269 -0.1577
51701W        W94692  19.497  27.049  21.410  0.1507  0.0759 -0.1359
51702W        W94693   3.069  33.490  17.043 -0.1100 -0.3026  0.0320
51703W        W94694  19.483   6.917  23.298  0.0380 -0.2188  0.2902
51704W        W94695  10.519   7.752  17.822  0.1541  0.0723 -0.3060
51705W        W94696   6.644   5.552  19.359 -0.0822  0.1803  0.2420
51706W        W94697   3.736  31.977  15.145  0.3036  0.0385 -0.2766
51707W        W94698  13.912  21.355  20.646  0.0375  0.0296 -0.0309
51708W        W94699   4.232  30.001  27.427 -0.0884 -0.0401  0.1290
51709W        W94700  20.691  31.082  18.017 -0.0477  0.1185  0.4672
51710W        W94701  19.744   0.284  23.256 -0.4155 -0.0078  0.1295
51711W        W94702  13.568   1.085  16.879 -0.1091  0.0139 -0.0177
51712W        W94703  12.217  10.619  16.350  0.1768 -0.1599  0.1153
51713W        W94704  19.785  28.397  18.094 -0.0767 -0.0831 -0.2271
51714W        W94705  25.002   5.674  21.258 -0.1799  0.2061  0.1814
51715W        W94706   4.160  31.643  18.176 -0.1013 -0.3950 -0.0329
51716W        W94707  11.742  10.749  23.205  0.0226 -0.1231  0.0763
51717W        W94708  20.354   5.673  13.708  0.2524  0.2688 -0.1637
51718W        W94709  11.216  27.998   5.789 -0.0093 -0.2595  0.1495
51719W        W94710  15.837  31.437  19.501 -0.0957 -0.1534  0.1599
51720W        W94711  13.625  34.350  27.829 -0.2776  0.1684 -0.3777
51721W        W94712  14.459  10.755  20.388  0.3070 -0.2595 -0.2999
51722W        W94713  12.246   2.979  22.649 -0.4615 -0.2136  0.1495
51723W        W94714   9.592  23.380  28.905 -0.0377  0.0524 -0.0157
51724W        W94715   3.293   2.214  14.890 -0.0704  0.0974 -0.0846
51725W        W94716  13.685   9.943  16.507 -0.0133 -0.3701  0.0952
51726W        W94717   4.207   9.132  28.975 -0.0399  0.0977 -0.0792
51727W        W94718  22.154  22.537  20.232  0.2821  0.0343 -0.0251
51728W        W94719  27.189   1.138  24.098 -0.0022 -0.1265 -0.0528
51729W        W94720  15.807   5.436  21.354  0.0657 -0.2651  0.0864
51730W        W94721   2.993   7.225  28.525 -0.0836 -0.0272 -0.4097
51731W        W94722   3.885  30.453  28.292  0.0074 -0.2742 -0.1626
51732W        W94723  11.034  32.985  24.867  0.0450  0.1968 -0.0956
51733W        W94724  16.365  32.627   8.781  0.0609  0.0552  0.0514
51734W        W94725  20.925   0.164  22.826  0.3065 -0.0438 -0.0896
51735W        W94726   4.372  34.555  17.077  0.0646 -0.1404 -0.0860
51736W        W94727  11.922  15.154  24.579  0.0352  0.0770  0.0160
51737W        W94728  19.383   5.607  15.783  0.0683  0.2714  0.4586
51738W        W94729  19.397  27.008  19.881 -0.0595 -0.0991 -0.2520
51739W        W94730  17.885  32.265   3.290 -0.1108 -0.0861 -0.0166
51740W        W94731  12.038  31.575  26.344 -0.0364 -0.0237  0.1213
51741W        W94732  14.480   6.244  20.961 -0.2701  0.2720 -0.1490
51742W        W94733   1.876   7.517  17.967 -0.1156  0.0475 -0.0392
51743W        W94734  10.937  25.657  20.438  0.2241  0.1955 -0.0088
51744W        W94735   5.320  10.280  19.057 -0.0883 -0.1254 -0.0321
51745W        W94736  28.331  11.776  16.771 -0.1018  0.2124  0.2835
51746W        W94737  10.620   7.723  16.053 -0.1758 -0.0941 -0.2792
51747W        W94738  23.147   5.151  19.380  0.1672 -0.0380 -0.0084
51748W        W94739  18.848   2.141  22.526 -0.0347  0.1220  0.0345
51749W        W94740  15.093   7.982  20.254  0.0279  0.1389  0.0594
51750W        W94741   3.443   4.397   5.131  0.0736  0.0000 -0.0810
51751W        W94742  13.861  34.199   3.097  0.0574 -0.6161 -0.3925
51752W        W94743  18.681  29.439  18.920 -0.0464  0.2068  0.2772
51753W        W94744  18.169  11.957  25.748 -0.1176 -0.0518 -0.0766
51754W        W94745  15.276   6.598  27.049  0.1438 -0.1112 -0.2686
51755W        W94746  33.682  15.002  17.587  0.1193  0.1154  0.0745
51756W        W94747  22.146  27.519  25.747 -0.1686 -0.1004 -0.1848
51757W        W94748  16.289   3.673  20.387  0.1225 -0.0390 -0.2082
51758W        W94749  23.969  34.692  15.484  0.1098  0.3298  0.1334
51759W        W94750   2.342   0.408  18.877  0.0157 -0.4409  0.0358
51760W        W94751  19.670  29.149  14.372  0.3282 -0.0413 -0.1661
51761W        W94752  20.797  29.025  12.840 -0.1823 -0.0991 -0.2252
51762W        W94753  14.252  32.288  26.791 -0.1633 -0.1216 -0.1341
51763W        W94754   2.740  23.679  27.813  0.0435  0.1459 -0.0222
51764W        W94755   6.085   0.534  24.936  0.1547 -0.3280  0.0676
51765W        W94756  22.766  18.658  28.657  0.0262 -0.0744 -0.1898
51766W        W94757   9.144  24.729   7.209  0.0297  0.1441 -0.0567
51767W        W94758  29.764  11.982  26.468 -0.4345 -0.1045  0.1660
51768W        W94759  23.161   0.232  13.522 -0.1501  0.1898 -0.0788
51769W        W94760  11.008  16.942  17.128  0.0805  0.0299 -0.2109
51770W        W94761  13.143  31.712  19.369 -0.0573 -0.1599  0.2335
51771W        W94762  18.932   3.595  22.828 -0.0810  0.2549  0.2648
51772W        W94763  11.005  27.930  14.724  0.1675 -0.0409 -0.1807
51773W        W94764  12.587   2.615  18.300 -0.1932  0.0246  0.3655
51774W        W94765   1.927  28.289  23.395  0.2325  0.2812  0.1701
51775W        W94766  23.185  20.374  26.058 -0.1319 -0.5867 -0.3604
51776W        W94767  34.117  10.585  17.134  0.1886 -0.0353  0.2600
51777W        W94768   2.330  32.802  21.049 -0.2635 -0.4302 -0.1722
51778W        W94769  15.643  10.085   5.679 -0.0259 -0.4241 -0.1772
51779W        W94770   8.817  26.835  26.558 -0.0286 -0.1889 -0.2224
51780W        W94771   8.845  30.460  19.424 -0.2057 -0.1885  0.1053
51781W        W94772   0.490   6.432  21.337 -0.1954  0.1480  0.0579
51782W        W94773  30.480  31.883  18.782  0.2449 -0.2271 -0.1017
51783W        W94774  14.495  21.703  28.721  0.2231  0.2266  0.0569
51784W        W94775  26.858   7.336  15.070  0.1698  0.3530 -0.2125
51785W        W94776   5.873  27.628  28.819  0.2180 -0.0752  0.0911
51786W        W94777  10.633   8.498  23.869 -0.0678  0.4498 -0.2612
51787W        W94778  26.103  20.275  18.479 -0.0416  0.2594  0.1969
51788W        W94779  16.985   2.760  27.673 -0.2070 -0.0072  0.3803
51789W        W94780   7.710   0.551  22.800  0.1451  0.2016 -0.3649
51790W        W94781  18.348  31.700  16.279  0.0250 -0.3277  0.1076
51791W        W94782  20.952  30.187   6.856  0.2483  0.0970  0.1705
51792W        W94783  15.171  12.271  27.185  0.0811  0.4525 -0.2622
51793W        W94784  14.567   6.896  25.417 -0.2641 -0.2841 -0.1117
51794W        W94785  15.182  31.326  17.639  0.0616  0.0460 -0.0449
51795W        W94786  10.353  33.727  18.677 -0.2640 -0.1849 -0.1108
51796W        W94787  33.769  19.365  16.512  0.0162 -0.2502 -0.0734
51797W        W94788  10.203   0.179  19.536  0.0967  0.1843  0.1082
51798W        W94789  10.617   2.418  15.407  0.4058 -0.1647 -0.1046
51799W        W94790  15.360   4.553  22.649 -0.1671 -0.2051 -0.1307
51800W        W94791   6.722  34.741  25.987  0.1634  0.1228 -0.4571
51801W        W94792  17.341   4.136  15.708 -0.1686  0.0097  0.2980
51802W        W94793  23.913  21.604  28.002  0.2199 -0.0369 -0.0820
51803W        W94794  20.069   5.040  19.800  0.2149  0.2570  0.1022
51804W        W94795  30.283  15.314  21.291 -0.1762  0.2501 -0.0606
51805W        W94796  12.777  33.362  15.486  0.0778 -0.4865  0.0914
51806W        W94797   7.338  15.024  26.288 -0.0083  0.0713 -0.1422
51807W        W94798  17.848   0.873   2.558 -0.2229 -0.1645 -0.0793
51808W        W94799  19.988  32.195   5.652 -0.3259 -0.1461  0.1120
51809W        W94800  15.900   8.612  23.594 -0.1277  0.0121 -0.0955
51810W        W94801  21.933   7.132  19.375 -0.0660 -0.3063 -0.0048
51811W        W94802  20.162  29.403  13.534 -0.0007 -0.1575 -0.3768
51812W        W94803  10.799  16.013  24.731  0.1487 -0.0285  0.1919
51813W        W94804  24.721  34.186  20.402 -0.1424 -0.1367  0.0578
51814W        W94805  24.633  12.152  18.491  0.1028 -0.0525 -0.0076
51815W        W94806  26.966  22.503  28.066 -0.2163  0.0796 -0.0780
51816W        W94807  27.799   8.942   1.989 -0.3081 -0.0879 -0.0226
51817W        W94808  16.787   5.229  23.483  0.1913 -0.0379 -0.1064
51818W        W94809  11.643  27.592  17.763 -0.0127 -0.0689  0.3095
51819W        W94810   2.489  34.076  20.670 -0.4019  0.0410 -0.3148
51820W        W94811   9.029  21.631  15.178  0.2308  0.1044  0.0423
51821W        W94812  28.944   0.893  26.621  0.2070  0.0178  0.1731
51822W        W94813  23.586  10.202  14.960 -0.2671  0.1900  0.4515
51823W        W94814  13.622   7.020  18.062  0.1969  0.0723 -0.2123
51824W        W94815  19.104  25.052  21.996 -0.1402 -0.1810  0.0782
51825W        W94816   5.220  28.841  25.827  0.1926  0.1126 -0.2907
51826W        W94817  32.780  29.041  14.965  0.1281 -0.0613  0.1389
51827W        W94818  11.295  27.344  18.457  0.3101 -0.0280  0.1487
51828W        W94819  23.378  11.965  27.394 -0.3339 -0.2749 -0.0304
51829W        W94820   7.479   6.835  17.369  0.0808 -0.1010 -0.3093
51830W        W94821  28.370  12.871  19.767  0.1932 -0.0684  0.1848
51831W        W94822   9.292  17.466  20.747  0.0149  0.1543  0.0564
51832W        W94823  14.353   6.102  14.750  0.0983  0.1255  0.1200
51833W        W94824  12.559   1.197  17.097 -0.1401  0.1340 -0.3081
51834W        W94825   6.209   5.055  25.799 -0.0225 -0.3517  0.3365
51835W        W94826  22.460  14.025  19.368  0.2148 -0.3362  0.0941
51836W        W94827  30.253   1.422  21.299 -0.2951  0.2502  0.5574
51837W        W94828  11.092  10.983  15.581 -0.2630 -0.1529 -0.0553
51838W        W94829  16.220  24.917  15.848  0.2578 -0.2302  0.2772
51839W        W94830  20.057  29.473  17.955 -0.4955  0.2487  0.1603
51840W        W94831   7.553   4.542  24.627 -0.2484  0.0567 -0.1668
51841W        W94832  27.891   6.297  17.520 -0.1126 -0.0736  0.0347
51842W        W94833   5.695  19.428  20.170  0.3849  0.0852 -0.0427
51843W        W94834   9.123  22.430  15.809 -0.2854 -0.1605  0.0281
51844W        W94835  18.122  22.818  16.480 -0.2443  0.0044 -0.1536
51845W        W94836  28.482  31.981   0.898 -0.2356 -0.0367  0.1401
51846W        W94837  24.106  29.582  14.871 -0.1066 -0.2073  0.0467
51847W        W94838  18.847   8.884   4.303 -0.2165 -0.1361  0.2244
51848W        W94839  14.485  34.388   0.890  0.1970  0.2652  0.2616
51849W        W94840   2.762   8.919  21.892  0.2436  0.0249  0.0529
51850W        W94841   8.571   0.656  14.703 -0.0150  0.3639 -0.0427
51851W        W94842  16.625   6.172   3.708 -0.2823 -0.2516 -0.1517
51852W        W94843  10.025   2.860  22.125  0.0511  0.0973  0.1918
51853W        W94844  14.667  10.000  18.107 -0.0511 -0.2426  0.1516
51854W        W94845  26.888  31.563  12.953  0.0846  0.1495 -0.4407
51855W        W94846  23.550   1.465  13.404  0.3831 -0.0194  0.0033
51856W        W94847  32.009   2.416  17.734  0.1954  0.1067  0.2223
51857W        W94848   8.847  25.379  24.795 -0.0370  0.2320  0.2624
51858W        W94849   3.188   1.769  15.710 -0.1582 -0.5327  0.0465
51859W        W94850  14.297   4.613  25.102  0.1588 -0.0108  0.0104
51860W        W94851   5.510  13.743  16.325 -0.1801  0.1983 -0.0012
51861W        W94852   7.982   0.252  27.125 -0.2758 -0.0896  0.0060
51862W        W94853   8.996   1.396  14.298  0.2022  0.2040  0.4467
51863W        W94854  32.569  34.406  19.572 -0.0644  0.2585  0.0797
51864W        W94855  16.424   1.206  17.367 -0.0342 -0.0025  0.4998
51865W        W94856  14.956  25.277  14.763  0.0144 -0.2195  0.0774
51866W        W94857   9.482   8.575  15.677 -0.3833  0.0782 -0.1141
51867W        W94858  18.463   2.577  18.015 -0.1058 -0.2318  0.0805
51868W        W94859   5.711  34.581  23.841 -0.0268  0.2720  0.3831
51869W        W94860  19.237  27.392  21.601 -0.1368  0.1437  0.2266
51870W        W94861   7.882  31.073  17.431  0.1279 -0.1717 -0.1389
51871W        W94862  22.722  29.058   2.637 -0.2645 -0.1508 -0.0573
51872W        W94863   8.937  27.584  18.118  0.0548 -0.0191  0.0388
51873W        W94864   4.762   1.040  19.728 -0.1365 -0.2011 -0.3936
51874W        W94865  24.594  32.255   2.776 -0.2241  0.1934 -0.0393
51875W        W94866  25.164   3.085  18.119  0.1035 -0.1819 -0.1314
51876W        W94867  27.655   3.508  19.005  0.1962  0.0649 -0.3370
51877W        W94868  26.493   9.956  14.465  0.4315 -0.0308 -0.0239
51878W        W94869  12.184   8.508   4.223 -0.1282 -0.1426  0.1988
51879W        W94870  32.505  29.943  13.072  0.0102 -0.0968 -0.1150
51880W        W94871  20.251   3.548  20.091 -0.1928  0.0464  0.2364
51881W        W94872  16.127  32.015  26.420 -0.2092  0.4967 -0.1295
51882W        W94873  12.057   2.461  20.267 -0.1887 -0.0100 -0.0337
51883W        W94874   2.310   9.857  27.394  0.1589 -0.0956 -0.0581
51884W        W94875  22.511   0.078  20.213  0.1078  0.2099 -0.0007
51885W        W94876  21.857   7.869  21.513  0.0472 -0.2290  0.3651
51886W        W94877   4.772  28.860  14.857 -0.0302  0.0920 -0.1103
51887W        W94878   7.661  32.105  17.702 -0.0098  0.0207 -0.0125
51888W        W94879   3.825   2.575  19.375 -0.1202 -0.1684 -0.2667
51889W        W94880  10.752  29.480   8.515  0.0427 -0.0539  0.2389
51890W        W94881  34.557  28.584  13.493 -0.1666 -0.1664 -0.4812
51891W        W94882  11.462  28.146  19.420  0.2503 -0.0630  0.2214
51892W        W94883  18.952  32.885  15.673  0.1116  0.1485  0.0149
51893W        W94884  13.251  21.108  23.712  0.0621  0.0388  0.0478
51894W        W94885   4.237   4.421  20.199 -0.0451 -0.0960  0.1267
51895W        W94886  11.872   3.912  18.289  0.0472  0.1216 -0.2541
51896W        W94887  28.273   6.731  20.130 -0.1908  0.3342 -0.1276
51897W        W94888  17.094  31.681  27.410 -0.2504  0.0083  0.0985
51898W        W94889   2.669  33.867  14.365  0.2920 -0.0675  0.0449
51899W        W94890  20.130  34.684  19.461 -0.0750 -0.0684 -0.1015
51900W        W94891  18.704  15.704  20.474 -0.0210  0.1893  0.0668
51901W        W94892  26.955   9.480  13.575  0.0090 -0.0375 -0.3438
51902W        W94893  11.913  24.014  14.548 -0.1650 -0.0176  0.4533
51903W        W94894  28.633   4.870  20.337 -0.1123  0.1190  0.2580
51904W        W94895  22.156   5.778  21.257  0.0186  0.0332  0.3730
51905W        W94896  13.315   4.129  24.441 -0.2439  0.0383  0.0651
51906W        W94897  21.275  12.195  14.262 -0.0215 -0.0138 -0.1009
51907W        W94898   4.210  32.485  21.790  0.2414  0.1579 -0.2199
51908W        W94899  11.917   2.971  17.956 -0.0658  0.0868 -0.1914
51909W        W94900  14.388  30.130  13.796  0.0388 -0.0641 -0.0736
51910W        W94901  22.358  32.521  13.426 -0.2568 -0.0716  0.1287
51911W        W94902  23.402   1.986  14.818  0.1712  0.0188  0.1354
51912W        W94903  25.131  30.716  16.329  0.2883  0.2510 -0.0588
51913W        W94904   2.568  34.054  13.608  0.2072 -0.2375 -0.3704
51914W        W94905   4.901  19.549  25.519 -0.1232 -0.2380  0.4135
51915W        W94906   6.257   7.901  16.718  0.1790 -0.2301 -0.0028
51916W        W94907  16.742   3.573  22.046 -0.2475 -0.1891 -0.1521
51917W        W94908  25.507  16.022  22.305 -0.1437  0.0833  0.1378
51918W        W94909  11.785   8.801  20.236 -0.2587  0.1999 -0.0938
51919W        W94910   7.649   7.186  24.693 -0.2025  0.0258  0.2810
51920W        W94911  27.818  32.913  15.567  0.2849 -0.0609  0.2126
51921W        W94912   6.639   2.965  17.500 -0.0688  0.0259  0.1623
51922W        W94913  11.395  33.673  24.087 -0.2416  0.3147  0.3845
51923W        W94914   6.565  33.831  18.854  0.0015  0.0448  0.4317
51924W        W94915   2.302  11.007  18.980 -0.2003  0.0644 -0.1216
51925W        W94916   4.176  32.169   1.226 -0.0773 -0.0634  0.2902
51926W        W94917  22.228  12.770  18.032  0.4258 -0.0106 -0.2437
51927W        W94918   6.799  15.216  24.942  0.5002 -0.0261 -0.0722
51928W        W94919   7.936  21.618  19.765 -0.0303 -0.2207  0.2054
51929W        W94920  19.208   1.880  23.677  0.2039  0.0174  0.1279
51930W        W94921   2.459  17.905  21.660 -0.0269  0.0023 -0.2214
51931W        W94922   8.174  34.548  16.407 -0.1904  0.0259  0.0418
51932W        W94923  14.361  33.479  21.427  0.1724 -0.0315  0.2255
51933W        W94924   3.567   5.123  26.495 -0.1273  0.1259  0.0604
51934W        W94925  26.933   3.506  14.131  0.2751  0.0207  0.1271
51935W        W94926   5.582  32.448  14.750 -0.1430  0.1742  0.0151
51936W        W94927  27.056  26.964  26.074 -0.0816 -0.1997  0.2696
51937W        W94928  14.246  17.304  16.119 -0.0065 -0.2378 -0.2319
51938W        W94929  21.738   5.413   5.480  0.0860 -0.0053 -0.3358
51939W        W94930  22.260  11.904  19.405  0.3099 -0.4147  0.0781
51940W        W94931  10.689   4.644  20.117 -0.0868  0.3182 -0.1128
51941W        W94932  13.053  29.928  19.673 -0.1942  0.2121  0.1772
51942W        W94933  13.956  12.550  24.054  0.0534 -0.5630  0.0059
51943W        W94934  32.780  27.631  21.038  0.0338  0.4114 -0.1168
51944W        W94935   9.079   1.296  19.195 -0.0700 -0.1803  0.0183
51945W        W94936   7.271  24.150  20.404 -0.0828  0.0207  0.0461
51946W        W94937   0.808  32.716  15.789 -0.1102  0.0036  0.2566
51947W        W94938   0.590  12.764  20.756  0.3094 -0.2426  0.0497
51948W        W94939  21.442   2.748  22.779  0.2091  0.1122  0.3012
51949W        W94940  17.401   4.696  21.003  0.0476 -0.1518 -0.2119
51950W        W94941  19.156  10.364  24.287 -0.0520 -0.1700 -0.1871
51951W        W94942  32.182  11.387  27.463  0.0308 -0.0840  0.1651
51952W        W94943  20.820   8.021  19.879  0.3181  0.1197  0.3370
51953W        W94944  20.667   8.780   4.629  0.3670  0.0495  0.1662
51954W        W94945   2.504  27.658  18.232  0.0291 -0.3874  0.1202
51955W        W94946  14.707   4.712  20.924  0.1679  0.0137 -0.0005
51956W        W94947   3.875  32.447  20.296 -0.3627 -0.2737  0.2105
51957W        W94948  30.078   7.140  14.627  0.0814  0.0844 -0.0383
51958W        W94949  24.294  13.426   8.347  0.0498 -0.3422  0.0274
51959W        W94950  17.685  30.739  18.136 -0.0332 -0.2577 -0.3075
51960W        W94951  15.480  13.820  24.793 -0.0550  0.0004 -0.0550
51961W        W94952  17.684  24.335  14.266  0.0134 -0.2846 -0.0697
51962W        W94953  15.100   4.430  25.495  0.0941 -0.2369  0.2213
51963W        W94954  12.846  34.342  15.947  0.1120  0.0810  0.2707
51964W        W94955   1.986  11.321   7.957  0.0070  0.0838  0.0163
51965W        W94956   4.194  26.648  19.383 -0.0085  0.1799 -0.1897
51966W        W94957  22.805  23.807  13.739  0.0294  0.0495 -0.2275
51967W        W94958  21.252  28.723  17.042  0.1891  0.0797  0.2094
51968W        W94959  20.344  26.972  25.951  0.2374  0.1008  0.1536
51969W        W94960  19.232  20.329  13.226 -0.1379  0.0598 -0.2860
51970W        W94961   9.044   8.774  15.916 -0.2196 -0.4324  0.2748
51971W        W94962  30.012   4.224  13.863 -0.1861  0.2804 -0.1838
51972W        W94963  10.119   6.927  17.742  0.0377  0.0019  0.1936
51973W        W94964  12.400   4.474  16.948 -0.1066  0.0014 -0.1088
51974W        W94965   9.919  33.651  20.317  0.1043 -0.1547 -0.2430
51975W        W94966  20.921   6.448  15.379  0.2744  0.2114  0.2556
51976W        W94967  23.078  32.599  25.282 -0.1751  0.3347  0.0176
51977W        W94968  11.976  10.636  17.786  0.3240 -0.3949 -0.3449
51978W        W94969  20.896   2.817  17.455 -0.1519  0.0894 -0.0695
51979W        W94970  16.744   4.231  20.518  0.3105 -0.0769 -0.1694
51980W        W94971   5.856   3.820  22.141  0.1972  0.3189 -0.0789
51981W        W94972  23.861  25.318  24.708 -0.2817 -0.3736 -0.1330
51982W        W94973  20.231   5.288  18.097  0.3022  0.3291 -0.2424
51983W        W94974  22.448  33.280  20.444  0.2680 -0.2614  0.2473
51984W        W94975  10.256  11.488  22.321 -0.2309  0.0345  0.2587
51985W        W94976   3.163  11.257   6.044  0.0072 -0.0397 -0.0198
51986W        W94977   3.294   1.512  27.625 -0.2634  0.1273  0.1709
51987W        W94978  23.878  24.582  18.873 -0.2508 -0.3533  0.0703
51988W        W94979  29.604   0.288  27.574 -0.1495  0.1626 -0.1440
51989W        W94980  26.591  32.177   3.763  0.1191  0.0841 -0.1285
51990W        W94981  26.759   5.796  18.483  0.2039  0.2261  0.3088
51991W        W94982   0.018  31.084  20.765  0.1327 -0.1324  0.2180
51992W        W94983   8.422  21.462  17.981  0.0775 -0.0314 -0.3077
51993W        W94984  14.879  32.806  16.610 -0.2159  0.1973 -0.2776
51994W        W94985   6.290   3.044  18.413  0.2315 -0.0333  0.0634
51995W        W94986   8.498  17.397  19.101 -0.3513  0.3198  0.0634
51996W        W94987  12.924  11.217  25.235 -0.0660  0.3477 -0.1631
51997W        W94988   8.734  30.842  19.773 -0.1814  0.1946 -0.2636
51998W        W94989  22.151  16.486   0.415  0.5611  0.1134  0.0114
51999W        W94990   7.407  21.061  16.491  0.0160  0.2469  0.0185
52000W        W94991  14.880  34.133  15.125 -0.1016  0.0080 -0.1565
52001W        W94992   8.506  33.574   3.104 -0.1836 -0.1998 -0.2521
52002W        W94993   9.874  18.548  21.261  0.3265 -0.1419 -0.1214
52003W        W94994   1.212  13.041   6.376  0.2589 -0.2034  0.0052
52004W        W94995  23.377  17.181  18.874 -0.2263 -0.2480 -0.0177
52005W        W94996  14.504   8.568  16.982  0.1567  0.0241  0.0058
52006W        W94997   9.691  25.122  14.245 -0.1159 -0.0183  0.0303
52007W        W94998  11.481  33.358  16.086 -0.2172 -0.2431  0.3705
52008W        W94999  28.063  11.945  23.788  0.2100 -0.1172  0.0792
52009W        W95000  26.594  24.786  22.981  0.2975  0.1077 -0.0326
52010W        W95001  26.574  25.031  13.918 -0.0736 -0.0577 -0.2156
52011W        W95002   5.270  34.223  15.555 -0.0585  0.1567 -0.0412
52012W        W95003   7.050  26.522  21.111  0.0320  0.2895 -0.2981
52013W        W95004  21.970   8.395  16.963 -0.3153 -0.1524  0.1416
52014W        W95005  17.052  32.938  18.196  0.1820  0.4104 -0.0691
52015W        W95006  12.982  29.842  19.124  0.1516  0.1070 -0.0104
52016W        W95007   4.271   5.616  18.944  0.3133 -0.3170 -0.4787
52017W        W95008  26.585  10.055  20.411 -0.0645  0.0276  0.1382
52018W        W95009   9.122  33.831  18.736  0.1990  0.3997  0.2540
52019W        W95010   5.225  31.456  18.347 -0.1956 -0.2238  0.0425
52020W        W95011  31.256   4.094  27.052 -0.1786  0.1491 -0.1631
52021W        W95012   5.126  16.702  23.527 -0.1896  0.1093 -0.1584
52022W        W95013  34.771   6.754  28.947  0.0702  0.1037 -0.1234
52023W        W95014   3.295  22.826  25.524  0.0137 -0.0307 -0.1032
52024W        W95015  24.920   7.339  14.103 -0.0384 -0.0711  0.0184
52025W        W95016   1.163   1.257  20.055 -0.0531 -0.0283 -0.0995
52026W        W95017  28.040   4.714  21.138 -0.0144 -0.2740 -0.1035
52027W        W95018   3.453  24.739  21.675  0.1602 -0.0677 -0.1663
52028W        W95019  12.739   1.028  25.493 -0.0027 -0.1413 -0.1064
52029W        W95020  32.545  30.678  16.649 -0.2709  0.2379 -0.3448
52030W        W95021  14.360  22.673   3.915 -0.3821  0.1239 -0.2633
52031W        W95022  17.454  11.721  16.409 -0.1022 -0.0038 -0.0307
52032W        W95023   7.867  13.059  19.344  0.0011  0.2184  0.1259
52033W        W95024  31.295   3.103  15.886 -0.0645 -0.2876 -0.3572
52034W        W95025  20.670  33.201  21.089 -0.1827 -0.0300  0.0027
52035W        W95026  26.596  28.080  17.789 -0.1659  0.3379 -0.4367
52036W        W95027  25.797  21.776   4.685  0.2024 -0.0758  0.2791
52037W        W95028   8.466   6.328  20.835 -0.1210  0.1180 -0.0884
52038W        W95029  12.082   3.222  26.194 -0.0698  0.1136  0.0706
52039W        W95030  26.280  12.034  18.431  0.1283 -0.1036  0.1627
52040W        W95031  21.160  17.655  13.655 -0.2032  0.1662  0.0310
52041W        W95032   4.717   8.334  18.560 -0.1114  0.1773 -0.0379
52042W        W95033  13.077   5.047  27.245 -0.2715 -0.0474 -0.1272
52043W        W95034  14.580   3.646  22.195 -0.2030 -0.3426 -0.0175
52044W        W95035   0.732  31.938  26.745  0.0777 -0.0995 -0.0753
52045W        W95036  20.857   0.725   2.375  0.0687 -0.0215 -0.0293
52046W        W95037  19.279   7.358  16.925  0.0894 -0.3284 -0.2188
52047W        W95038   9.158   9.537  16.787 -0.2267  0.1534  0.0664
52048W        W95039  18.312   0.406  14.180  0.1185 -0.0568  0.1035
52049W        W95040   9.916   5.303  17.249  0.3002  0.0262 -0.1426
52050W        W95041  16.286   3.146  15.486  0.1021 -0.2608 -0.1567
52051W        W95042   5.641   3.565  21.731 -0.2049 -0.3509  0.1645
52052W        W95043  14.115  30.858   1.663 -0.3495  0.0126  0.3187
52053W        W95044  10.304  12.545  21.960  0.0476 -0.0237 -0.0486
52054W        W95045  16.192   0.007  22.180  0.0264 -0.2304  0.1266
52055W        W95046   2.956  24.375  21.460  0.1038 -0.0496  0.0909
52056W        W95047   9.414  28.481  15.603  0.0082  0.0956  0.0985
52057W        W95048   3.216  34.100  15.218  0.0007  0.2665  0.0680
52058W        W95049   3.960  17.434  19.445 -0.2340  0.0452 -0.3324
52059W        W95050   9.460  34.335   0.198 -0.1851 -0.0801 -0.1005
52060W        W95051   7.204  13.743  24.495  0.1021  0.1036 -0.0994
52061W        W95052  14.127   2.861  20.625  0.3181 -0.2093 -0.0140
52062W        W95053  17.453   2.091  20.828  0.0001  0.1218 -0.0123
52063W        W95054  28.910  24.723  16.939  0.1380 -0.0756 -0.1745
52064W        W95055  21.282  32.535  18.011 -0.0432  0.1146  0.1500
52065W        W95056   2.090  18.734  18.458 -0.0125 -0.0867  0.3185
52066W        W95057   1.008  29.116  19.391 -0.0875  0.1438 -0.1693
52067W        W95058  16.861  34.157   2.903 -0.2855 -0.2447 -0.1926
52068W        W95059  11.341  29.367  26.470 -0.1176  0.1773 -0.1190
52069W        W95060   9.822   9.001  18.032  0.0927  0.1658 -0.0941
52070W        W95061  23.638   5.325  24.561  0.0267 -0.0502  0.1490
52071W        W95062   9.665  30.654  24.189 -0.1671 -0.0938 -0.1983
52072W        W95063  15.916   4.701  23.558  0.2639 -0.3811  0.0363
52073W        W95064  21.878   5.748  18.167  0.0719  0.1273 -0.3631
52074W        W95065  24.352  13.293  16.636 -0.1370 -0.3167 -0.3296
52075W        W95066  16.475   5.902   0.428  0.0232  0.1366 -0.1188
52076W        W95067  17.659  28.407  19.277  0.1094 -0.5416 -0.2005
52077W        W95068   3.947   2.047  19.700  0.1181  0.1668 -0.2100
52078W        W95069  34.017   1.700  21.858  0.2345  0.2421  0.2325
52079W        W95070   5.533  25.753  23.714 -0.0561 -0.2020  0.2448
52080W        W95071  23.066  11.399  24.303  0.0776  0.1937 -0.0082
52081W        W95072  22.237   6.234  18.893  0.1056 -0.1090 -0.0808
52082W        W95073  12.999  28.991  23.653 -0.3314  0.3852  0.0236
52083W        W95074  14.919   9.223  14.166  0.1903 -0.0665  0.0725
52084W        W95075  27.487   2.360  17.089  0.0566  0.1801  0.0047
52085W        W95076  10.849  16.125  15.792  0.1813  0.4734  0.0276
52086W        W95077   9.568   8.033  24.500 -0.1984  0.2995  0.0620
52087W        W95078  14.578  28.879  25.949  0.0048  0.0780 -0.0602
52088W        W95079   3.115   1.229  15.693 -0.1766 -0.1423 -0.1801
52089W        W95080   0.016   0.994  26.993  0.2913  0.3266  0.1549
52090W        W95081  10.782  27.254  25.343  0.1447 -0.2329  0.0449
52091W        W95082  22.453  21.119  18.214 -0.3335 -0.1025 -0.0673
52092W        W95083  26.485   7.615  27.214  0.2781 -0.1300  0.0128
52093W        W95084   4.472   2.430  15.214 -0.1957 -0.0212 -0.0092
52094W        W95085  10.987  19.058  22.771 -0.0206 -0.1616 -0.0207
52095W        W95086  34.660  34.470  14.762 -0.0369 -0.0313  0.0083
52096W        W95087  18.039   1.834  25.044  0.1409 -0.0337  0.0042
52097W        W95088  34.790  28.174  23.515  0.0263  0.0192 -0.0596
52098W        W95089  14.626   5.311   1.852  0.0689 -0.1209 -0.0650
52099W        W95090  10.474   0.403  22.717  0.1353 -0.3112  0.4183
52100W        W95091  10.485  28.566  15.489  0.0995 -0.0354 -0.3973
52101W        W95092  11.801  26.889  26.293 -0.2169 -0.0748  0.0804
52102W        W95093   8.916  30.687  16.799  0.0155  0.0832  0.1287
52103W        W95094  20.985  18.119  13.776  0.0439  0.1498 -0.0443
52104W        W95095   7.082  10.268  20.409  0.0434  0.1195 -0.0089
52105W        W95096  17.974  30.116  26.075 -0.2047  0.0633 -0.0434
52106W        W95097  16.549   5.717  25.697  0.0572  0.1182 -0.1274
52107W        W95098   3.826  26.349  19.716 -0.1156 -0.3374 -0.3866
52108W        W95099  22.482  32.895  17.526 -0.1670 -0.2073 -0.0232
52109W        W95100   6.964  19.660   1.093  0.0181  0.3618 -0.0515
52110W        W95101  13.437   2.156  18.992 -0.0510  0.0793  0.2358
52111W        W95102  24.594  28.683  16.879  0.2245 -0.0433 -0.2075
52112W        W95103  24.813  25.010   5.475 -0.0393  0.4213 -0.2413
52113W        W95104  17.407   1.093  28.221  0.3259 -0.0069 -0.3130
52114W        W95105  13.014  32.417  20.318  0.1352  0.4235  0.0987
52115W        W95106   3.016  33.711  28.151 -0.0929  0.0333  0.1923
52116W        W95107   9.242   4.292  21.769  0.3895  0.2311  0.0674
52117W        W95108  13.490  28.472  15.245 -0.1075  0.0523 -0.0179
52118W        W95109  20.016  29.232  20.557  0.1347 -0.0855  0.0800
52119W        W95110   9.837  10.838  15.898  0.0813 -0.1640 -0.0546
52120W        W95111   5.799  25.295  18.273 -0.1833 -0.1032 -0.2242
52121W        W95112  30.257  10.970  17.680 -0.3425 -0.0677 -0.2573
52122W        W95113  32.935  28.781  14.532  0.1179 -0.1761 -0.0167
52123W        W95114  25.565   7.747  23.299  0.1536  0.1243 -0.1792
52124W        W95115  12.991  22.866  24.013  0.0540  0.0865 -0.0928
52125W        W95116  14.899  16.396   6.410 -0.4378 -0.2334  0.1600
52126W        W95117  16.052   2.980  17.449  0.0683  0.1548  0.0014
52127W        W95118  10.038  11.351  18.976  0.1349 -0.2054 -0.0228
52128W        W95119  30.739   0.387  18.347  0.1851 -0.2522  0.1252
52129W        W95120  13.881  13.109   5.992  0.0561 -0.2932 -0.0959
52130W        W95121  10.981   7.282   0.171  0.1950 -0.1443  0.1260
52131W        W95122  25.310  12.871  23.868  0.1194 -0.0131 -0.0834
52132W        W95123  21.136   0.021  14.935  0.0139  0.1511  0.1281
52133W        W95124   2.481  19.368  28.226 -0.0357 -0.2356 -0.0837
52134W        W95125   7.449  10.795  28.443 -0.1270 -0.0264  0.0757
52135W        W95126  14.107   7.063   6.226 -0.0795  0.0367  0.0723
52136W        W95127  12.364  26.422  23.415  0.1211  0.1746  0.0628
52137W        W95128  27.999   9.725  17.034 -0.0622  0.4456 -0.2141
52138W        W95129  27.430   0.117  13.083 -0.0864  0.3288 -0.1251
52139W        W95130  17.514  13.019  27.875  0.1544 -0.2208  0.0102
52140W        W95131   6.455   5.903  24.872 -0.0921 -0.0413 -0.1682
52141W        W95132  17.486  18.913  23.170  0.0596 -0.0665 -0.1177
52142W        W95133   9.649  30.680  19.280 -0.1333 -0.0171 -0.3251
52143W        W95134   8.928  27.482  15.795 -0.1167  0.1325  0.1077
52144W        W95135  14.954  26.078  23.889  0.0448  0.1126 -0.1847
52145W        W95136  15.167   3.960  15.517  0.1176 -0.2811 -0.2000
52146W        W95137  10.794   7.329  15.693 -0.1774 -0.1149  0.0835
52147W        W95138   0.046   4.105  24.085 -0.2068 -0.0082  0.0499
52148W        W95139   4.215   5.873  25.092 -0.0812  0.0438  0.1158
52149W        W95140  30.941   7.522   4.115  0.1699 -0.0671 -0.1645
52150W        W95141   2.153  20.189  16.813  0.1466 -0.2765  0.1336
52151W        W95142  20.223  28.228  15.777 -0.0633 -0.0448  0.0114
52152W        W95143  15.193   9.265  21.002 -0.2009  0.0303  0.1356
52153W        W95144  21.950   5.225  19.824  0.1471 -0.3640 -0.2712
52154W        W95145   4.511  27.090  15.776  0.3892  0.1785 -0.2459
52155W        W95146   5.901  31.942   6.198 -0.1590 -0.1305  0.6113
52156W        W95147  27.206   2.013   0.382 -0.1118 -0.0150  0.3864
52157W        W95148  17.382   5.038  25.882 -0.0528  0.0675 -0.0680
52158W        W95149   4.116   3.585  26.463  0.0381 -0.3194 -0.0424
52159W        W95150  16.149  12.749  16.884 -0.3589 -0.2024 -0.0052
52160W        W95151  13.551  10.224  17.009 -0.2482  0.0073  0.0246
52161W        W95152   7.009  28.355  15.382 -0.0692  0.2312  0.1119
52162W        W95153   5.785  12.420  18.843  0.0940  0.0238 -0.4070
52163W        W95154  25.917   0.174  27.034 -0.1040 -0.0554  0.2126
52164W        W95155  23.383   2.934  15.047 -0.4316 -0.4169 -0.0318
52165W        W95156  14.827   4.387  19.449  0.1595 -0.1307  0.3004
52166W        W95157   9.139  15.528  25.220 -0.0058  0.0752 -0.2103
52167W        W95158  17.271  30.649  25.585 -0.2358 -0.1421 -0.2273
52168W        W95159   1.190  26.773  20.576 -0.1056  0.0542 -0.2149
52169W        W95160   8.905   4.048   2.328 -0.1054  0.0607 -0.3032
52170W        W95161  10.108  30.258  20.636 -0.1135  0.0872 -0.0002
52171W        W95162   4.079  27.850  16.569  0.3312 -0.3735 -0.0853
52172W        W95163  14.629  12.220  27.364 -0.0434 -0.2795 -0.1382
52173W        W95164  20.555   0.682  19.867  0.2153 -0.0891 -0.1789
52174W        W95165  13.051  29.149  16.390  0.0502  0.1162  0.0026
52175W        W95166  10.095  27.592  22.022 -0.0462 -0.2184 -0.1278
52176W        W95167   1.161  12.627  18.070  0.1777 -0.1864  0.1077
52177W        W95168   8.490  26.281  16.038  0.1764 -0.1757  0.2996
52178W        W95169  30.602   5.984   1.217 -0.0655  0.1391  0.0928
52179W        W95170  23.947  20.003  18.256  0.2488  0.1706  0.0441
52180W        W95171  22.645  18.592  26.061 -0.1470  0.0569 -0.0569
52181W        W95172  29.581  12.985  24.934 -0.0032  0.0900  0.2311
52182W        W95173  11.148   7.747  22.513  0.0105 -0.1720  0.2369
52183W        W95174  14.594  34.342  18.359 -0.0493 -0.1194 -0.0235
52184W        W95175  29.221  27.881   1.325 -0.3358  0.2521 -0.1875
52185W        W95176  16.188  12.358  13.029 -0.1149 -0.1368 -0.1213
52186W        W95177  11.004  15.341  22.344  0.1412  0.0344  0.2578
52187W        W95178  18.099  23.176  18.435 -0.1574  0.3446  0.0348
52188W        W95179   8.451  16.153  27.781 -0.0292  0.0405  0.1127
52189W        W95180  14.178   1.842  19.467 -0.2021  0.0508  0.0152
52190W        W95181  17.268  32.961  15.752  0.1131  0.1193 -0.1286
52191W        W95182  24.700  12.685  18.404 -0.0534  0.1408  0.0796
52192W        W95183  23.394   5.556  20.996  0.0080 -0.2945 -0.0820
52193W        W95184  33.132   8.170  26.954  0.0826 -0.1564 -0.0109
52194W        W95185   6.431  20.476  24.313  0.2199  0.0042 -0.3217
52195W        W95186   8.115   6.829   5.261  0.3934 -0.0212 -0.1156
52196W        W95187  26.826  11.430  14.887 -0.1542  0.0968  0.2266
52197W        W95188   8.780   8.745  20.977  0.0148 -0.2797 -0.0167
52198W        W95189  21.466  14.203  21.598  0.0844 -0.0957  0.1224
52199W        W95190  17.970   7.796  16.310 -0.3555  0.0172  0.1529
52200W        W95191  32.022  28.226  21.140  0.1972 -0.0323  0.3232
52201W        W95192  31.609   5.815  28.376 -0.0715  0.2815 -0.0331
52202W        W95193  10.260  30.300  18.629  0.1765 -0.3729 -0.0670
52203W        W95194  19.836  33.843  19.127 -0.2292 -0.1975  0.3012
52204W        W95195  27.829   0.415   1.346  0.2573 -0.1919 -0.0917
52205W        W95196  14.131  29.924   2.000 -0.0618  0.2607 -0.0641
52206W        W95197  12.495   3.027  22.032 -0.0722  0.0353 -0.1914
52207W        W95198  12.635   6.192  21.632 -0.0534  0.3053 -0.2105
52208W        W95199  18.955   3.703  24.175  0.0755  0.0152  0.0249
52209W        W95200   0.346   6.571  27.605 -0.0035 -0.1036  0.0804
52210W        W95201   8.786   5.069  17.438 -0.1952  0.2441 -0.1303
52211W        W95202   2.807   0.025  24.154 -0.4916 -0.0518 -0.0363
52212W        W95203   9.978  31.656   9.475  0.3738  0.0271 -0.1307
52213W        W95204   3.599  22.054  20.466  0.1689 -0.0706 -0.0890
52214W        W95205  24.586  31.326  23.644 -0.1870  0.0120  0.0114
52215W        W95206   9.919  30.492  24.567  0.0073  0.0755  0.0463
52216W        W95207  18.323   5.723   9.574 -0.0918  0.4353 -0.4493
52217W        W95208  18.523   0.922  16.722 -0.3177 -0.0578 -0.2770
52218W        W95209  26.294  10.417  21.499 -0.2117 -0.2062  0.2444
52219W        W95210  22.098   8.637  25.858 -0.0091  0.0793 -0.1442
52220W        W95211  14.074   1.088   9.246 -0.0707 -0.0372 -0.0563
52221W        W95212   8.721  23.346  14.142  0.0515 -0.0396  0.1404
52222W        W95213  20.362   0.660  26.743 -0.0266 -0.1466 -0.1586
52223W        W95214  19.710   8.882   7.281 -0.0113 -0.0572 -0.0936
52224W        W95215  12.937   5.904   3.792 -0.0410 -0.0294 -0.1767
52225W        W95216  19.121  29.287  26.467 -0.2730  0.0403 -0.0858
52226W        W95217  15.748  28.151  21.224 -0.1195  0.2942 -0.1283
52227W        W95218   4.390  19.679  15.462 -0.3996  0.3258 -0.2475
52228W        W95219   0.167  34.410   3.295  0.0718  0.1796 -0.1883
52229W        W95220  13.772   2.756  26.293  0.3126 -0.0296  0.1359
52230W        W95221   5.672  21.424   4.670  0.1550 -0.0688 -0.1918
52231W        W95222  11.680  29.443  17.867 -0.2558  0.0766  0.2320
52232W        W95223  25.073   1.331  15.373 -0.0992 -0.2935 -0.3012
52233W        W95224  29.030  32.211  14.301 -0.0320  0.0668 -0.0566
52234W        W95225  13.275  34.617  24.565  0.1660 -0.1078 -0.0235
52235W        W95226  14.578  34.582  19.160  0.1682 -0.0219 -0.2517
52236W        W95227   9.553   7.366  16.314  0.1044 -0.1890  0.1616
52237W        W95228   0.535   3.946  20.595  0.0322  0.1290 -0.0408
52238W        W95229   9.177   5.044  22.744 -0.2077 -0.1763 -0.0647
52239W        W95230   8.342  20.070  27.746  0.1107 -0.0640 -0.1093
52240W        W95231  11.935   0.673  16.378 -0.1108  0.0035 -0.1755
52241W        W95232   5.808   1.848  14.919  0.1165 -0.0733  0.0708
52242W        W95233  30.491  19.280  25.058  0.2950  0.2683  0.2289
52243W        W95234  12.855  33.104   7.997  0.1732  0.0930 -0.0495
52244W        W95235  19.489   3.562  18.215  0.0776  0.1553  0.0280
52245W        W95236  13.336   5.458  28.348 -0.2109 -0.3113 -0.0522
52246W        W95237  33.375   0.472  28.227  0.0830  0.1046  0.1551
52247W        W95238  14.467  16.543  24.520  0.0260 -0.0508 -0.4383
52248W        W95239  14.290  21.922  24.428 -0.1407 -0.1378  0.2089
52249W        W95240  20.726  33.045  15.965 -0.0722  0.0826 -0.1504
52250W        W95241  33.890   7.558  22.583 -0.0645  0.1962  0.2053
52251W        W95242  28.191  19.908  18.311 -0.0110 -0.0927 -0.1583
52252W        W95243  11.655  12.897  27.552 -0.0329 -0.2457  0.0793
52253W        W95244   1.617  30.883  19.503  0.1331  0.1074  0.0131
52254W        W95245  10.504  17.298  24.899 -0.3335 -0.0714  0.1312
52255W        W95246   7.000  28.604  16.282 -0.0192  0.2024  0.0894
52256W        W95247  26.419  33.644  15.487  0.0089  0.2763 -0.1561
52257W        W95248   6.147  23.315   7.670  0.0870 -0.0061 -0.0151
52258W        W95249   3.736   9.957  16.244 -0.0929  0.2891 -0.0935
52259W        W95250  11.329  34.706  22.890 -0.2397  0.1794  0.0457
52260W        W95251  13.348  14.127  18.581  0.1488 -0.0714 -0.0914
52261W        W95252  14.614   3.601  16.640 -0.0999 -0.2860  0.1014
52262W        W95253   2.676   8.010  22.638 -0.4576  0.5047  0.1876
52263W        W95254  13.790  31.052  17.442  0.1613  0.0856  0.0306
52264W        W95255  23.166  25.698  16.477 -0.0181  0.0215 -0.0821
52265W        W95256   6.068  30.829  15.744  0.0885  0.1160 -0.0430
52266W        W95257  20.269   2.352  15.363 -0.0527  0.0987 -0.1886
52267W        W95258  12.004  12.230  25.224  0.0368 -0.1166 -0.1782
52268W        W95259  12.142  16.018  21.234  0.0325 -0.0365  0.0520
52269W        W95260  12.984  19.165  15.829 -0.0947  0.1130 -0.0489
52270W        W95261   2.547   1.238  21.720 -0.0189 -0.1093 -0.2323
52271W        W95262  20.113   6.788  14.877  0.2891  0.2014  0.1382
52272W        W95263  25.162   0.253  28.429  0.0813 -0.2587 -0.4334
52273W        W95264  25.827  33.976  16.105  0.1233  0.2165  0.2195
52274W        W95265   4.438  30.309  14.939 -0.0047 -0.0675 -0.0825
52275W        W95266   4.328  23.050  23.439  0.0121 -0.1112 -0.2237
52276W        W95267  11.815   4.298   0.071  0.0131  0.0383 -0.0727
52277W        W95268   6.137  16.562  26.183 -0.2523 -0.0659  0.0139
52278W        W95269  17.039  25.066  16.833  0.1258  0.1455  0.1984
52279W        W95270   1.173  13.342  19.603 -0.1943 -0.3812  0.6294
52280W        W95271  17.090   9.211  19.631  0.5204  0.0367  0.2516
52281W        W95272  16.478   1.621  14.555  0.0773  0.1617 -0.2173
52282W        W95273  14.680   7.406  25.288 -0.1769  0.1057 -0.1470
52283W        W95274  14.118  28.424   2.036 -0.0776  0.2107 -0.0796
52284W        W95275  12.845   9.805  15.397 -0.0520  0.3179 -0.1127
52285W        W95276   7.491  33.251  14.076  0.0217  0.1984 -0.1027
52286W        W95277  14.019   7.515   5.959 -0.0266  0.4112 -0.1320
52287W        W95278  21.261   5.329  18.111 -0.2885 -0.2994  0.2578
52288W        W95279   4.221  23.502  25.866 -0.0993 -0.1573 -0.0100
52289W        W95280   1.925   2.004   5.994 -0.0466  0.2469 -0.1116
52290W        W95281   0.026  33.373  23.255 -0.1203  0.0753 -0.2395
52291W        W95282   7.875   2.499  23.136  0.1619  0.2394 -0.0772
52292W        W95283  19.528  32.587  20.295  0.1748  0.5203 -0.0165
52293W        W95284  11.561  30.091   0.869 -0.2098 -0.1334  0.0511
52294W        W95285  12.607   7.548  25.981 -0.0395  0.2349 -0.0435
52295W        W95286   3.665   4.792   3.690 -0.0748  0.1134  0.0067
52296W        W95287  27.190  13.298  17.611 -0.2233 -0.3962 -0.2571
52297W        W95288   9.313   9.771  15.652 -0.2997 -0.1458  0.0904
52298W        W95289  21.880  33.271  13.514  0.0266  0.0198 -0.0767
52299W        W95290   2.329  28.657   0.466 -0.0705  0.5700  0.2827
52300W        W95291  24.940  28.951  15.720  0.3175  0.2043 -0.1673
52301W        W95292  31.627  27.437   2.677 -0.0821 -0.2829 -0.1264
52302W        W95293  17.527  27.077  15.201 -0.0917 -0.0536  0.0595
52303W        W95294  16.446   3.163   0.264 -0.0183  0.2077  0.3090
52304W        W95295  19.969   8.690  18.613 -0.1873 -0.0637  0.0515
52305W        W95296   8.247   6.205  14.867  0.3276 -0.1901 -0.2496
52306W        W95297  13.806  33.094  24.561  0.0482 -0.1568  0.3626
52307W        W95298  15.166  32.435  25.967 -0.1106 -0.1479  0.0379
52308W        W95299  11.474  34.132  20.191  0.4631 -0.2017  0.0696
52309W        W95300  12.647   4.432   7.656 -0.0544  0.1368  0.0046
52310W        W95301   7.720  17.605  20.793  0.0203 -0.4172 -0.0400
52311W        W95302  13.987  11.319  18.544  0.0955 -0.4195 -0.4158
52312W        W95303  31.626  32.549   0.405  0.0864  0.4173  0.1355
52313W        W95304   7.952  34.053   4.730 -0.0309 -0.1624  0.1684
52314W        W95305  17.492   5.947  23.983  0.0460  0.3080 -0.1362
52315W        W95306  17.227  14.228  13.338 -0.1161 -0.1738 -0.2079
52316W        W95307  34.425   6.453  20.883  0.1167 -0.0889 -0.1566
52317W        W95308   5.665   8.149  15.634  0.0193 -0.0160 -0.1701
52318W        W95309  21.826  26.816   5.301  0.2166  0.1901 -0.0735
52319W        W95310   2.398  31.814  15.204 -0.1737 -0.0160  0.1987
52320W        W95311  19.802  11.521  14.923  0.1859  0.1186  0.1899
52321W        W95312  22.780  10.163  16.071 -0.1301  0.0628 -0.0519
52322W        W95313  15.586  25.082   0.046  0.0734 -0.3651 -0.0807
52323W        W95314  23.001   3.789  16.784 -0.0349 -0.2936 -0.2383
52324W        W95315   6.622   2.260  28.336  0.2436 -0.1470 -0.1870
52325W        W95316  20.884   9.654  17.261  0.1593 -0.0566 -0.2975
52326W        W95317   6.133   7.675   9.444  0.0685  0.5894 -0.1227
52327W        W95318  15.710   4.606  15.910  0.0417  0.2390 -0.0661
52328W        W95319  16.951  27.654  22.089 -0.0342  0.0062  0.1197
52329W        W95320   0.397   4.458  25.368 -0.1146 -0.0035 -0.0467
52330W        W95321  30.820   5.884   2.920 -0.2965  0.3468  0.0488
52331W        W95322  23.921  12.937  23.903  0.1085  0.0738  0.1917
52332W        W95323   6.493   3.584  20.342 -0.2929 -0.1729  0.2436
52333W        W95324  15.058  22.295  17.357 -0.2733 -0.0348  0.0287
52334W        W95325   8.634   4.779  19.386  0.1098 -0.0285 -0.0017
52335W        W95326  22.042  13.075  13.707  0.1011  0.1554 -0.2056
52336W        W95327  31.788   4.891  24.894  0.3116 -0.0182 -0.0618
52337W        W95328  18.055  21.961  16.728 -0.2396  0.0987  0.1178
52338W        W95329  25.366   4.305  15.608  0.0617 -0.3707 -0.0771
52339W        W95330  29.124  10.528  17.928 -0.0140 -0.2512  0.0617
52340W        W95331  10.557   3.948   4.091  0.0028 -0.2396  0.1038
52341W        W95332   8.152   2.938   3.061 -0.0726 -0.0370  0.0398
52342W        W95333  15.634  12.615  18.843 -0.3632 -0.1188 -0.2305
52343W        W95334  18.544  31.154  18.037 -0.0605 -0.0774  0.2325
52344W        W95335  26.547  31.413   5.829 -0.2757  0.2832 -0.3706
52345W        W95336  12.877  27.409  19.324 -0.1599  0.1841 -0.0478
52346W        W95337  12.747  11.578  26.909  0.3920 -0.0291 -0.0622
52347W        W95338  11.511  18.710  17.539  0.0128 -0.0709  0.0233
52348W        W95339  17.900   7.915  22.991 -0.2786  0.0281  0.1300
52349W        W95340  27.181   2.797  24.784  0.0170 -0.1368  0.1919
52350W        W95341  18.272   3.746  15.189  0.0762  0.1134 -0.1188
52351W        W95342  19.371   3.019  24.678 -0.1556 -0.3182  0.1514
52352W        W95343  23.219  28.888  27.317 -0.2913 -0.2068  0.1605
52353W        W95344  22.291   7.199  24.316  0.2673 -0.0192  0.2439
52354W        W95345   9.025   9.005  23.250 -0.1549  0.2314 -0.1923
52355W        W95346   2.866  12.051   6.320 -0.0327  0.1222  0.2159
52356W        W95347  30.671   6.343  25.884  0.0030  0.1273  0.0019
52357W        W95348  20.761  13.909  20.445 -0.1573 -0.1588 -0.0236
52358W        W95349  13.282  21.788  20.172  0.1446  0.3353  0.2233
52359W        W95350   7.484  11.617   4.489  0.2800 -0.0352  0.2814
52360W        W95351  19.048  33.510  16.898 -0.2005  0.1699 -0.0220
52361W        W95352  29.260   8.826  21.264  0.1275 -0.0355  0.0832
52362W        W95353   9.432  28.250  18.442 -0.1115 -0.1813  0.1365
52363W        W95354  20.486  11.395  17.286  0.0127 -0.2358 -0.0173
52364W        W95355  31.570  14.948   2.178 -0.1075 -0.0059  0.3424
52365W        W95356  34.552  25.604  21.233 -0.0346 -0.1929  0.1388
52366W        W95357   1.449  11.270  17.761  0.0068 -0.1597  0.1649
52367W        W95358  33.037   8.875   0.407  0.3222  0.0669 -0.2265
52368W        W95359  12.163   5.161  29.251  0.0122  0.1657  0.0144
52369W        W95360  12.959   5.019  19.959 -0.4450 -0.0279 -0.1033
52370W        W95361   3.785  14.814  19.807  0.1416 -0.1127 -0.4691
52371W        W95362  11.369  32.051   3.118  0.0044 -0.1285  0.0773
52372W        W95363   6.361  29.525  22.872  0.2262 -0.3555  0.3449
52373W        W95364  14.741  29.208  21.610 -0.2961  0.1000  0.1305
52374W        W95365  25.286  23.607   3.258 -0.2583 -0.1087 -0.1689
52375W        W95366  13.547   0.619  20.576  0.1585 -0.3193  0.3518
52376W        W95367  12.225  16.876  19.518  0.1706 -0.0450  0.0803
52377W        W95368   9.079   4.028  15.240 -0.2091  0.1212  0.0162
52378W        W95369   4.634  22.587  23.649  0.2827  0.1240 -0.1771
52379W        W95370   1.917  24.093   3.332  0.0524 -0.5676 -0.1706
52380W        W95371  12.780  32.823  27.329 -0.0221 -0.1287 -0.1344
52381W        W95372   6.867   0.860  15.854 -0.1201 -0.0001 -0.1975
52382W        W95373  24.987   8.715   1.450  0.0478  0.0780  0.1687
52383W        W95374  21.891  31.995  19.526  0.1768  0.0044  0.1051
52384W        W95375  11.950  22.522  19.223  0.2636  0.1852 -0.0490
52385W        W95376  27.556   8.028  18.324  0.1205 -0.1801 -0.0314
52386W        W95377  23.995   0.458  17.360 -0.0564  0.1817 -0.2170
52387W        W95378  10.963  34.057  16.156  0.3811  0.2206 -0.1292
52388W        W95379  28.327  14.538  27.396  0.0306  0.0350  0.1789
52389W        W95380   1.980  30.467  24.385  0.1504 -0.0420 -0.0760
52390W        W95381  12.888  31.072  25.517 -0.0071  0.1365 -0.1964
52391W        W95382   4.642   8.743  21.615  0.2212 -0.0743 -0.4541
52392W        W95383  21.281   1.010  22.951  0.2780 -0.1704 -0.0432
52393W        W95384   1.924  16.765  15.805  0.0936 -0.0370  0.2032
52394W        W95385  28.144  29.132  21.056  0.0754 -0.1322 -0.5020
52395W        W95386  20.965  11.448  27.901 -0.1078  0.2383  0.3384
52396W        W95387  26.912   9.757  18.515 -0.0739  0.1484  0.0898
52397W        W95388  16.899  28.380  15.058 -0.0362 -0.1698  0.2392
52398W        W95389  12.405  30.102  23.311 -0.2650 -0.3962  0.0998
52399W        W95390  18.056  34.186  14.936 -0.1098 -0.1319  0.0111
52400W        W95391  29.501   8.218  16.715 -0.0748 -0.0709 -0.0975
52401W        W95392  24.127   2.055  20.932 -0.0351 -0.1085 -0.1525
52402W        W95393   7.144   3.102   3.406 -0.1317  0.1849  0.1654
52403W        W95394  13.928   0.605  24.575  0.1793  0.1612  0.4330
52404W        W95395   1.640   4.262  28.313  0.0323  0.1580 -0.1870
52405W        W95396  30.731   1.799  13.952  0.1428  0.2007 -0.2518
52406W        W95397  17.291  27.971  24.753  0.1622 -0.0214 -0.0294
52407W        W95398  12.724   3.847  14.966 -0.1517  0.0366  0.0138
52408W        W95399  11.885   2.398   4.641  0.0085 -0.0214  0.0882
52409W        W95400   4.974   7.871  18.572  0.1275 -0.0040 -0.1512
52410W        W95401  15.887  31.331  23.505  0.0804 -0.1962  0.1425
52411W        W95402  26.429   6.330  26.044 -0.2669 -0.1929  0.1293
52412W        W95403   1.706  10.943  19.176 -0.2500  0.2353  0.1039
52413W        W95404   7.588  27.943  21.086 -0.0202  0.1692  0.2689
52414W        W95405   6.937  12.926  18.390 -0.0151 -0.1983 -0.1434
52415W        W95406  12.520   8.022   9.105 -0.2870 -0.1931 -0.1910
52416W        W95407  27.748   1.713  27.472  0.2547  0.3178 -0.1856
52417W        W95408  14.200   2.610  27.678  0.1736  0.2409  0.3529
52418W        W95409  14.175  31.988  23.741  0.3124 -0.1633 -0.0566
52419W        W95410   8.731  22.954   9.410 -0.0347  0.3527  0.0179
52420W        W95411  23.882  33.412  18.718  0.2774  0.2372 -0.1996
52421W        W95412   7.975  30.635  25.662 -0.2461  0.0503  0.0150
52422W        W95413   9.246   2.827  15.513 -0.1462  0.1789 -0.2211
52423W        W95414   8.629  23.023  18.580 -0.2690  0.0116 -0.1217
52424W        W95415  12.139   8.754  21.263  0.3498  0.1022  0.3811
52425W        W95416   9.846   7.724  19.499 -0.1010 -0.0052 -0.0381
52426W        W95417  19.338  25.847  25.416  0.1231  0.2976  0.2252
52427W        W95418  27.695   2.629  24.255 -0.0245  0.0414 -0.0984
52428W        W95419  23.654  30.090  27.605 -0.1530 -0.0942 -0.0132
52429W        W95420  18.660   6.886   0.013  0.1036  0.1650 -0.1126
52430W        W95421  14.914  17.827  27.878 -0.1451 -0.2744 -0.1458
52431W        W95422  31.604  13.230  18.131 -0.0181  0.0662  0.0897
52432W        W95423  27.105  33.004  27.500  0.1841 -0.1177 -0.1082
52433W        W95424   2.227  27.624  22.872  0.0203 -0.3594 -0.0945
52434W        W95425   9.797  10.861   1.184  0.1426 -0.0143 -0.0478
52435W        W95426   4.653   3.639  17.342  0.2586 -0.1458  0.1224
52436W        W95427  17.982  14.954  13.246 -0.0721  0.0448  0.1617
52437W        W95428  14.689  17.645   7.585  0.1237  0.2680 -0.3431
52438W        W95429  33.419  13.224  25.472  0.1064  0.2016 -0.0488
52439W        W95430  32.887   2.362  19.034  0.0723 -0.0676 -0.1410
52440W        W95431  27.111   5.054  14.015  0.1294 -0.0811 -0.2747
52441W        W95432  19.327   1.985  24.954 -0.2819 -0.3312 -0.5704
52442W        W95433  15.479  29.043  25.073  0.1291 -0.3439  0.1128
52443W        W95434  21.065  24.687  25.382 -0.1621 -0.1159  0.0770
52444W        W95435  30.237  24.400   7.070  0.0985 -0.0445 -0.0019
52445W        W95436  15.937  15.904  28.182  0.0307  0.0101 -0.1390
52446W        W95437   7.236  30.793  20.126 -0.0490 -0.0891  0.5827
52447W        W95438   1.021   0.554  19.349 -0.1561 -0.4691 -0.3436
52448W        W95439   2.966  32.606  17.221  0.1740  0.4450  0.1880
52449W        W95440  27.964  20.085  24.716  0.1900  0.3977 -0.1056
52450W        W95441  12.749  33.622  19.566  0.1882 -0.3746 -0.0862
52451W        W95442  31.081   6.087  16.293  0.0458  0.2192 -0.0778
52452W        W95443  25.897  12.391  20.139 -0.0010 -0.0693  0.0441
52453W        W95444   9.621   6.569  25.371  0.2748  0.0177  0.3049
52454W        W95445  20.767   2.531  19.038  0.0075 -0.2515 -0.2246
52455W        W95446  29.086  25.969  23.105 -0.0473  0.0321 -0.0704
52456W        W95447  14.261   3.771   3.146 -0.0465  0.0625 -0.2664
52457W        W95448  30.212  33.429  27.773  0.1025 -0.0971  0.3065
52458W        W95449  11.488  10.635  26.224  0.1748 -0.2399  0.0092
52459W        W95450   2.251   0.973   9.322 -0.2561 -0.2629  0.1001
52460W        W95451  26.816   4.951   9.085  0.2972 -0.0742  0.1135
52461W        W95452   7.649   5.528  17.709  0.1123 -0.2113 -0.0940
52462W        W95453  19.168  33.616   7.028 -0.1519  0.1408 -0.0491
52463W        W95454  30.681  21.799  15.290  0.1257  0.1374 -0.0706
52464W        W95455  12.093  29.256  20.866  0.0651  0.1330  0.1266
52465W        W95456   0.562   0.867   0.518  0.3677 -0.0430 -0.0068
52466W        W95457  26.804   2.998   8.881 -0.0851  0.0729 -0.3015
52467W        W95458  15.706  33.525  19.177 -0.1479  0.0146 -0.0816
52468W        W95459  20.447   5.971   4.594 -0.2195  0.3645 -0.2100
52469W        W95460   2.778  25.433  21.879  0.3638  0.2109 -0.0753
52470W        W95461  16.009   4.563  22.984 -0.1854 -0.0188 -0.0808
52471W        W95462   3.552   1.379   7.039  0.1050 -0.1564  0.3992
52472W        W95463   5.273  28.651  17.618 -0.1292 -0.0786 -0.2366
52473W        W95464  19.712   5.237  14.521 -0.0793 -0.2900  0.1674
52474W        W95465  14.930   3.804   1.041 -0.2673 -0.2221  0.2129
52475W        W95466  14.217  18.043  17.391  0.0189  0.1837 -0.1987
52476W        W95467  10.204   5.020  25.926 -0.2553  0.1327 -0.0108
52477W        W95468  33.751  30.399  13.717 -0.0030  0.1889 -0.2368
52478W        W95469  22.802   0.515  17.406 -0.0486  0.2521 -0.1081
52479W        W95470  28.922  22.679   0.743  0.1711 -0.0770  0.3571
52480W        W95471  32.873  28.297   2.397 -0.2342  0.1424  0.0394
52481W        W95472  21.797   6.577  16.752  0.3594 -0.3739  0.1266
52482W        W95473  33.840  18.997  26.283  0.2115 -0.3538 -0.0229
52483W        W95474  16.269  11.429  20.731  0.1186 -0.1358 -0.2292
52484W        W95475   9.788   2.279  16.005 -0.0978 -0.1380  0.0604
52485W        W95476  19.254  30.846  20.539 -0.2982 -0.0442 -0.0437
52486W        W95477  20.603  33.148  29.069 -0.0383 -0.5060  0.0248
52487W        W95478  18.834   2.193  21.630  0.0041  0.1929 -0.0678
52488W        W95479  20.688  29.971  20.842 -0.1822  0.0191 -0.1054
52489W        W95480  23.292  13.250  22.317  0.2416 -0.1385  0.2564
52490W        W95481  26.866  30.428  26.061  0.1731 -0.0688 -0.1189
52491W        W95482   4.860  30.227   1.973 -0.0106  0.2104 -0.2330
52492W        W95483  21.990  16.588  19.442  0.1658 -0.0036 -0.1756
52493W        W95484  33.966   3.390  18.189  0.1805  0.0659  0.3882
52494W        W95485   0.759  29.627  29.240  0.0137 -0.3289  0.1779
52495W        W95486  10.451  12.648  17.128  0.0496  0.0859  0.2041
52496W        W95487  15.911   6.440  19.469  0.0646 -0.1965 -0.0938
52497W        W95488   7.590   1.208  26.920 -0.2635 -0.0762 -0.2231
52498W        W95489  23.612   4.032  28.270 -0.4148 -0.1313 -0.3012
52499W        W95490  19.888  14.210  28.203 -0.1404  0.1145  0.0463
52500W        W95491  23.936  29.573  22.160  0.1271 -0.0502  0.1516
52501W        W95492   9.792   1.808  20.132  0.3020  0.1644 -0.2195
52502W        W95493  21.553   3.273  14.941  0.1409 -0.2021  0.1509
52503W        W95494   3.065  32.772  23.721 -0.3797  0.3044  0.1436
52504W        W95495  21.229   9.213  27.852  0.1949 -0.1778  0.4065
52505W        W95496  26.438   9.406  18.436  0.0336  0.0116  0.4156
52506W        W95497  22.192  28.092  22.647  0.0439 -0.0466 -0.4413
52507W        W95498  24.744  26.868  18.253  0.0683  0.0559  0.0053
52508W        W95499  11.134   9.493  28.503  0.0159  0.2772 -0.2516
52509W        W95500   0.316   9.019  21.099 -0.1925  0.2619  0.0855
52510W        W95501  15.248  27.423   0.072  0.3377 -0.0742 -0.0850
52511W        W95502  18.130  27.921  25.765  0.0177 -0.3174  0.0457
52512W        W95503  18.842   3.344  18.850 -0.4938  0.3020 -0.2706
52513W        W95504  14.079  21.224   4.417 -0.0505  0.3008  0.0192
52514W        W95505  25.792  32.121  21.503  0.2741 -0.3040 -0.2848
52515W        W95506  29.335  30.991   7.297  0.0753 -0.0885 -0.2304
52516W        W95507  11.870  32.656  28.019  0.1103  0.0012  0.4645
52517W        W95508  17.103  13.309  27.076 -0.0082  0.1563  0.1357
52518W        W95509  34.663   0.240  14.859 -0.2953 -0.0392 -0.0667
52519W        W95510  17.161   1.461  16.075  0.1365  0.0813 -0.2366
52520W        W95511  26.307   9.255   1.031  0.0855  0.1684 -0.1115
52521W        W95512  10.706   3.639  27.645 -0.1548 -0.0314  0.0305
52522W        W95513  11.201   4.449  20.919 -0.1042  0.0499 -0.1468
52523W        W95514   9.800   7.193  23.708  0.1683  0.0399  0.2388
52524W        W95515   8.910  31.922   0.108 -0.2357 -0.1193  0.0534
52525W        W95516  17.431  28.985  26.828 -0.0771  0.0455  0.1906
52526W        W95517   8.191   1.238  20.195  0.1075 -0.0123 -0.0384
52527W        W95518   2.668  22.077   2.567  0.0154  0.1251 -0.1140
52528W        W95519  17.046  26.958  24.683  0.0561  0.3554  0.2772
52529W        W95520   9.282  25.521  18.180  0.3557  0.0854  0.0413
52530W        W95521  24.743  29.851  16.739 -0.0654 -0.2069  0.2157
52531W        W95522   2.354  28.501  16.713  0.0090 -0.1310 -0.0551
52532W        W95523  28.107  10.966  15.602  0.3146 -0.0128 -0.1443
52533W        W95524  18.952  28.755  18.620  0.2242  0.1648 -0.0094
52534W        W95525  17.963  33.266  14.614  0.0601 -0.0229 -0.0702
52535W        W95526  19.485  33.855  16.951 -0.4323 -0.2934  0.0729
52536W        W95527  11.593  30.748  25.508 -0.0932  0.0114  0.0115
52537W        W95528   3.049  12.998  19.690 -0.1922  0.0528  0.2145
52538W        W95529  23.603   6.939  14.216  0.1884 -0.2451  0.1329
52539W        W95530  25.215   3.545  22.368 -0.0256  0.1960  0.0931
52540W        W95531  27.048  32.165  16.854 -0.2243 -0.4177  0.0173
52541W        W95532  16.987   1.993  17.349  0.3118 -0.3514  0.1961
52542W        W95533   6.014  17.412  10.282 -0.3095  0.1138  0.1334
52543W        W95534  28.116  24.810   1.820  0.1018 -0.1123 -0.0525
52544W        W95535  14.711  31.059  20.530 -0.1220 -0.3118 -0.0293
52545W        W95536  34.767  31.455  23.020 -0.0193 -0.2389 -0.0602
52546W        W95537  12.496  19.017   3.447  0.0092  0.1917 -0.2988
52547W        W95538  31.956  27.142  13.477  0.1406 -0.1973  0.0443
52548W        W95539   1.895   0.692  22.747 -0.1050 -0.4033  0.0178
52549W        W95540  23.200  32.770  27.600  0.2468  0.2307 -0.1244
52550W        W95541  13.684   4.249  27.787  0.1887  0.0763 -0.1651
52551W        W95542  20.138   9.089  28.944  0.2648  0.0390 -0.2074
52552W        W95543  19.123  29.837  20.830  0.1612 -0.1089 -0.2464
52553W        W95544  34.046   4.876  22.674  0.1240 -0.0977  0.0753
52554W        W95545  24.308  31.011  24.105 -0.1984  0.0806 -0.0248
52555W        W95546  12.723  26.973   4.744 -0.1076 -0.1398 -0.0792
52556W        W95547  12.467  16.306  27.409 -0.0758 -0.2224  0.0921
52557W        W95548  10.602   0.085  26.054 -0.0859 -0.1513 -0.3052
52558W        W95549  26.343  14.437   4.116  0.2586 -0.1508 -0.1595
52559W        W95550  24.930   4.152  16.456  0.5901 -0.0205  0.0625
52560W        W95551  18.770  13.116  23.059 -0.1194  0.0190  0.0526
52561W        W95552  31.358  11.788  23.256 -0.2368  0.2563  0.1686
52562W        W95553  14.770  12.531  25.296  0.2139 -0.3995  0.0424
52563W        W95554  15.267  21.460  13.695 -0.0338  0.0347  0.0367
52564W        W95555  17.913  30.722  16.697 -0.0949  0.0627  0.0856
52565W        W95556   5.171  34.345  28.878 -0.1281 -0.1361  0.5703
52566W        W95557  29.446   7.427  23.249 -0.0852  0.0107  0.1103
52567W        W95558  12.938   7.009  14.765  0.0528 -0.1721  0.1709
52568W        W95559  17.993  31.814   5.625  0.1559 -0.1041  0.2563
52569W        W95560   2.318  14.576   9.649  0.2383 -0.1047  0.0800
52570W        W95561  18.419  26.905  26.485  0.1778  0.0504  0.1137
52571W        W95562  16.351   4.454  23.315  0.2778  0.0992 -0.1126
52572W        W95563   7.541  22.736  16.854 -0.2590 -0.2025 -0.2659
52573W        W95564  25.582   0.487  26.799 -0.0909  0.1791  0.3621
52574W        W95565  10.076  28.233   0.619  0.1913 -0.0122  0.1069
52575W        W95566  19.255  31.064  14.264 -0.0620 -0.0136 -0.2035
52576W        W95567   6.586  21.740   6.105  0.2799  0.0476 -0.2478
52577W        W95568  27.076  12.470  27.549 -0.0700  0.2281 -0.0421
52578W        W95569  30.034  25.852  17.266 -0.0007 -0.2112 -0.0039
52579W        W95570  12.649   2.030  17.079  0.4448  0.1142  0.1858
52580W        W95571   7.879   0.953   1.131  0.2500 -0.0117  0.2109
52581W        W95572  12.757  23.394  24.886  0.0444 -0.1393 -0.0793
52582W        W95573   1.678  15.270  21.493 -0.0340  0.0358 -0.0536
52583W        W95574  34.701  34.007  21.403  0.2316  0.0909  0.1698
52584W        W95575  23.631  20.974  17.050  0.0057 -0.0317  0.0967
52585W        W95576  11.568  28.708  26.728 -0.0766 -0.0110  0.1064
52586W        W95577   5.399   6.381  28.771 -0.0571 -0.3307 -0.0222
52587W        W95578  34.568  15.031   5.093 -0.0691  0.1316  0.2427
52588W        W95579   8.564  32.325  21.603  0.0646 -0.2531 -0.0592
52589W        W95580   9.122  34.397  25.506  0.1418 -0.1942  0.1728
52590W        W95581  22.916   1.269   4.786 -0.1534 -0.1575 -0.0828
52591W        W95582  14.069  34.178   8.797  0.0232  0.0066 -0.2412
52592W        W95583   1.356  10.106  15.802 -0.3942  0.0193 -0.1867
52593W        W95584  24.064  31.526  15.940 -0.0568  0.0332 -0.0043
52594W        W95585  21.823   6.736  18.163 -0.0698  0.2790  0.2568
52595W        W95586  14.624  30.693  27.425  0.2367 -0.1432  0.2328
52596W        W95587   3.006  12.196  22.555  0.2090  0.0890 -0.2444
52597W        W95588  10.940  13.939   4.370  0.0296  0.0656 -0.1766
52598W        W95589  27.358  12.992  16.762 -0.0068  0.1489  0.1140
52599W        W95590  14.149  22.025   7.156 -0.2157  0.1181 -0.0192
52600W        W95591  15.145   3.405   1.804 -0.0296  0.1845 -0.1369
52601W        W95592   4.948   8.989   0.767  0.0556 -0.0119 -0.0011
52602W        W95593   7.988  21.420   2.783 -0.0408 -0.0435  0.0770
52603W        W95594  32.877  32.603  13.612 -0.0652 -0.0727 -0.0812
52604W        W95595  19.133  18.600  26.087  0.0626  0.0691 -0.0017
52605W        W95596  18.736   2.468   0.442 -0.0619  0.0553 -0.0428
52606W        W95597  21.166  34.537  15.513 -0.0348 -0.2055 -0.2043
52607W        W95598   8.476   5.915  17.305 -0.2492  0.0762 -0.1948
52608W        W95599   9.766  13.834  23.859  0.0986  0.1290  0.1172
52609W        W95600   1.350   1.797   8.550 -0.4898  0.0321 -0.3507
52610W        W95601  20.501  12.298  25.454 -0.1808  0.2071 -0.1288
52611W        W95602  14.143  27.056  20.555  0.1234 -0.0008  0.1837
52612W        W95603   0.588   3.342  27.213 -0.2669  0.0079  0.0022
52613W        W95604  10.652   0.621   2.660  0.2723  0.1096 -0.2760
52614W        W95605  16.541   8.991  14.329 -0.2811  0.2335  0.0720
52615W        W95606  13.171  22.732  24.462  0.0290  0.0013 -0.1877
52616W        W95607  12.471  30.940  24.212 -0.4178 -0.0337 -0.2897
52617W        W95608  22.618  15.544  24.010 -0.0449  0.2864 -0.1889
52618W        W95609  30.128  15.460  19.780 -0.4662  0.0690 -0.0935
52619W        W95610  19.643   5.613  27.823 -0.1269 -0.0972  0.0057
52620W        W95611  21.474   9.286   7.685  0.0797 -0.1208  0.0355
52621W        W95612  30.120  29.952  18.552 -0.1265 -0.0825 -0.3331
52622W        W95613  13.484  34.447  24.125 -0.0909  0.1187  0.1892
52623W        W95614  12.107  27.423  19.257 -0.0924  0.0404 -0.2184
52624W        W95615  18.360  21.856  18.468  0.2052 -0.0121 -0.3075
52625W        W95616  18.546  27.073  16.863 -0.3449 -0.0061  0.2203
52626W        W95617  24.683   0.618   8.763 -0.0705 -0.0981  0.0697
52627W        W95618   1.084   8.333  28.575  0.1473 -0.1127  0.0821
52628W        W95619  30.426  18.491  21.208  0.0186  0.0629  0.0194
52629W        W95620   3.855   4.562   5.315 -0.2503 -0.0095  0.3945
52630W        W95621  25.914  23.923   2.636 -0.1396 -0.2487  0.1454
52631W        W95622  21.545  24.225  22.012  0.1195  0.0129 -0.1263
52632W        W95623  32.181  10.153   8.121 -0.0548 -0.0415  0.6897
52633W        W95624  23.476  12.645  17.083 -0.0224  0.0352 -0.0459
52634W        W95625  11.404  19.931  15.031  0.0251  0.2671 -0.0551
52635W        W95626  17.568   7.832  16.978  0.1857 -0.1975 -0.4109
52636W        W95627   1.387  26.835   5.590 -0.3417 -0.0737 -0.0222
52637W        W95628  13.736  10.108   5.666 -0.1203  0.4079 -0.1266
52638W        W95629  31.180  34.164   8.183  0.0742 -0.0861  0.1618
52639W        W95630  10.417   3.537  16.862  0.0969  0.0912  0.2300
52640W        W95631  22.448  34.522   0.291  0.3526  0.1591  0.0201
52641W        W95632  15.791   9.690  20.170 -0.1973 -0.1981  0.1834
52642W        W95633  34.788  16.675  20.775 -0.1096  0.4105  0.2134
52643W        W95634  11.234   8.350  18.486  0.2444 -0.2963 -0.2306
52644W        W95635  23.528  18.594  17.752  0.1369  0.0644  0.5558
52645W        W95636  17.650  34.585  23.880  0.1425 -0.0637  0.2651
52646W        W95637   2.256  17.737   2.302 -0.3692 -0.1856 -0.0536
52647W        W95638   3.239  15.848  25.440 -0.1020 -0.0737  0.0813
52648W        W95639  12.569   1.760  22.251 -0.1571 -0.0681 -0.0545
52649W        W95640  20.339  34.047  18.180 -0.2602  0.1723 -0.2592
52650W        W95641  31.825  25.450  28.136  0.0371  0.1332 -0.1399
52651W        W95642  29.617   1.797   4.122  0.0612  0.0826 -0.0073
52652W        W95643   6.438  24.438  27.110 -0.3188 -0.2179 -0.0537
52653W        W95644  11.687  20.675  17.467  0.1577  0.1827 -0.0204
52654W        W95645  26.215   5.567  19.832 -0.1741  0.0725  0.0166
52655W        W95646  11.984  30.864   2.513 -0.2777 -0.1798  0.1182
52656W        W95647  29.023   5.099  17.535 -0.0770  0.0702 -0.0601
52657W        W95648  34.125  26.405  20.706  0.1972  0.0266 -0.0471
52658W        W95649  16.091   1.867   5.075  0.1906 -0.0735  0.2558
52659W        W95650  24.382  31.821  26.485  0.0135  0.4405  0.1600
52660W        W95651   4.854  31.403  16.878 -0.0464 -0.0075  0.1149
52661W        W95652   9.211  16.398  19.332 -0.3570 -0.0926  0.0382
52662W        W95653  30.215  32.375  15.547  0.0758  0.1750  0.0153
52663W        W95654  19.932  26.875  26.588 -0.2101  0.2066  0.0857
52664W        W95655   3.002  25.792  17.537  0.0321 -0.1235 -0.1701
52665W        W95656   7.537   1.161  21.334  0.0471 -0.0048 -0.3045
52666W        W95657  12.259   6.919   4.974  0.0969 -0.2168  0.0767
52667W        W95658  16.444   0.810   3.243  0.0133  0.2060 -0.2254
52668W        W95659   6.600  14.600  20.037 -0.2615 -0.1415 -0.3267
52669W        W95660  20.765  13.667  13.686  0.2565  0.1276  0.2095
52670W        W95661  22.183  16.933  19.030 -0.1008 -0.1057 -0.1248
52671W        W95662  19.149   7.915  19.178 -0.2287  0.0488  0.2287
52672W        W95663  28.022  34.761  19.118  0.1242  0.3335 -0.2638
52673W        W95664  15.002  28.270   8.700 -0.1018  0.0030 -0.0135
52674W        W95665  26.834  29.563  13.378 -0.0180  0.3183 -0.1201
52675W        W95666   9.120   0.687  15.395  0.0832 -0.1112 -0.2217
52676W        W95667   0.954  11.104  15.797  0.1335  0.0526 -0.5036
52677W        W95668   6.302   4.317   6.137 -0.1695 -0.1649 -0.3957
52678W        W95669  15.428  31.159   0.643  0.1295  0.0722 -0.2315
52679W        W95670  22.378   1.346  28.171 -0.3714  0.1250 -0.0788
52680W        W95671  16.718   0.006  18.804  0.0400 -0.1008  0.2263
52681W        W95672  27.773   2.070  19.071 -0.2019  0.2855  0.1034
52682W        W95673  11.753   6.874  20.600  0.0058  0.2704  0.0236
52683W        W95674  16.217  28.063  24.875  0.0148 -0.0087  0.1565
52684W        W95675  17.088   9.363   2.580  0.1983 -0.0482  0.0768
52685W        W95676  17.911  17.470  13.000 -0.0501 -0.0017  0.1342
52686W        W95677  15.665   3.093  17.813 -0.1032 -0.1406  0.0379
52687W        W95678  23.018   4.694  19.204 -0.2210  0.0664  0.0964
52688W        W95679  22.141   2.613   4.091  0.1986  0.0354  0.3774
52689W        W95680  27.052   2.602  26.895  0.3854  0.0919  0.1068
52690W        W95681  14.387  21.236  16.593  0.2359 -0.1305  0.0460
52691W        W95682   4.739  13.614  22.693  0.0522 -0.3528 -0.5130
52692W        W95683  30.110   3.157  28.577 -0.2943 -0.2232 -0.3434
52693W        W95684  19.492   9.335  20.899 -0.1149  0.2180 -0.0492
52694W        W95685   6.355  28.919  28.967  0.3201 -0.0157  0.0591
52695W        W95686  24.500   9.247  16.060  0.0808 -0.0877  0.1699
52696W        W95687  26.650   0.107  12.392 -0.1402  0.1110  0.2315
52697W        W95688  16.519  32.177   2.305  0.1063  0.1318 -0.0215
52698W        W95689  32.260   0.346   0.838 -0.0122  0.0808  0.1138
52699W        W95690   4.815  16.305  15.117 -0.0841 -0.0916 -0.0974
52700W        W95691  33.477  32.500  26.766 -0.1698  0.1966  0.2154
52701W        W95692   8.267   2.697  18.268 -0.1998  0.1154 -0.2720
52702W        W95693  11.001   4.807  19.308 -0.2484  0.0734 -0.2202
52703W        W95694  13.176  14.044  20.838  0.4218 -0.0015  0.0894
52704W        W95695  26.195  31.490  13.849 -0.2028  0.0358 -0.1378
52705W        W95696  22.714  18.237  28.970  0.3205 -0.4430 -0.0899
52706W        W95697   7.827   1.579  23.355 -0.3882 -0.0597  0.1187
52707W        W95698   9.027  33.101   5.727  0.1994 -0.0230 -0.1206
52708W        W95699  15.312  34.221  22.178 -0.2318  0.0327 -0.0997
52709W        W95700  15.392  31.515  25.073 -0.1759  0.1097 -0.1975
52710W        W95701  23.905  34.590  20.016  0.0111 -0.1150 -0.3040
52711W        W95702  10.716  21.322   2.314 -0.1958  0.0196 -0.0027
52712W        W95703   9.813  26.335  26.241 -0.0023 -0.0841 -0.2409
52713W        W95704  31.307  29.807   3.901  0.0428 -0.4168  0.1973
52714W        W95705  14.979  34.228   5.529 -0.0096 -0.0124 -0.2551
52715W        W95706  22.944  30.430   1.713  0.1570  0.1016 -0.0677
52716W        W95707  12.848  10.008  24.291 -0.1882 -0.1161 -0.2078
52717W        W95708   4.442  19.726  22.586 -0.1542  0.2224 -0.2874
52718W        W95709   6.694  23.447  29.087 -0.2111 -0.2851 -0.3089
52719W        W95710   2.235  10.761  28.276  0.0997 -0.1198 -0.1002
52720W        W95711  18.343  14.049  14.092 -0.2624  0.0199  0.1300
52721W        W95712  24.513  31.542   0.955 -0.1058 -0.1154  0.1256
52722W        W95713   5.260   1.584  19.640  0.3531  0.0631 -0.0952
52723W        W95714  22.633   8.535  25.721 -0.0285 -0.0986 -0.1645
52724W        W95715  16.824  15.643  23.779 -0.2301 -0.1263  0.1721
52725W        W95716  11.139  14.318  17.261 -0.0008 -0.1124  0.2961
52726W        W95717  11.336  29.040   5.878  0.1561  0.1395 -0.0270
52727W        W95718  29.740   9.576  19.987 -0.0657 -0.0918  0.1349
52728W        W95719  31.213  32.338   2.418  0.3115 -0.1421 -0.2124
52729W        W95720  15.187  19.973  22.870  0.1044 -0.2877  0.2238
52730W        W95721  11.229  13.528   8.851  0.1735  0.1188  0.0926
52731W        W95722  23.376   9.111  14.641 -0.1496 -0.2074  0.0193
52732W        W95723  10.343   6.226  25.007 -0.1962  0.3404 -0.0834
52733W        W95724   1.311   9.429   1.851 -0.2271  0.0347  0.0962
52734W        W95725   5.244   1.595  16.584 -0.1460  0.0739 -0.2406
52735W        W95726  17.660  33.819  29.001  0.0073 -0.2754 -0.0071
52736W        W95727  27.264   5.005   2.388 -0.1979 -0.1187 -0.1028
52737W        W95728  21.120   4.290  19.633  0.1460  0.1153 -0.0410
52738W        W95729  17.763   2.292  22.885  0.0318 -0.1213 -0.3045
52739W        W95730  27.691   1.025  16.622  0.1070 -0.0156 -0.0605
52740W        W95731   3.829   0.150  24.473  0.1904  0.1127  0.1127
52741W        W95732  29.907  28.514  15.402  0.1270  0.3089 -0.0573
52742W        W95733  25.095  11.947  23.015  0.0963  0.4604 -0.0082
52743W        W95734  21.044  17.493  15.144  0.2162 -0.1237 -0.3556
52744W        W95735  18.068   4.275  20.671 -0.2266  0.0562  0.1733
52745W        W95736  10.764   0.826  23.687 -0.0020 -0.0225 -0.0228
52746W        W95737  15.751   8.956  28.137 -0.6790  0.3446 -0.1638
52747W        W95738  24.896  18.075  20.479 -0.5265  0.2838  0.1070
52748W        W95739  12.495   0.201  27.890  0.1774  0.2886 -0.0908
52749W        W95740  23.499   8.662   6.641  0.2662  0.0366 -0.0196
52750W        W95741  34.733  25.805  16.528 -0.0837  0.1938  0.3505
52751W        W95742  11.103  34.246   1.537  0.2638 -0.3208  0.0782
52752W        W95743  15.429   5.992   2.069  0.1823 -0.2079 -0.1519
52753W        W95744   3.563  27.301  14.118  0.3052  0.0233 -0.3307
52754W        W95745   7.276  25.153   2.653 -0.0924 -0.0045 -0.0248
52755W        W95746  17.473  12.134  17.261 -0.3409  0.1383 -0.2458
52756W        W95747  18.830  13.405   4.139 -0.0402 -0.1308  0.1336
52757W        W95748  20.912   7.236  19.594 -0.1613 -0.1345  0.0582
52758W        W95749  13.308  29.740  20.677 -0.1420  0.1417 -0.0101
52759W        W95750   6.377   4.538  21.799  0.0014 -0.2124 -0.0284
52760W        W95751  13.764   5.812  23.304  0.3247  0.3546  0.0426
52761W        W95752  14.152   5.173   1.756 -0.0355 -0.2080  0.4032
52762W        W95753  27.610   6.431   6.621 -0.2191  0.3137  0.3348
52763W        W95754  22.730   9.810  24.482  0.4785 -0.1728  0.2198
52764W        W95755  13.727  25.103  15.432 -0.0921  0.0066 -0.0495
52765W        W95756  16.002   8.005  19.026 -0.0453  0.1073  0.1047
52766W        W95757   7.142  18.189  22.630 -0.2943 -0.0476 -0.0344
52767W        W95758  23.450   5.550  27.900 -0.0639  0.1023 -0.0374
52768W        W95759  18.203   2.526  26.392  0.2403  0.0677 -0.0734
52769W        W95760  16.901  30.183  27.468  0.2954 -0.1647  0.0593
52770W        W95761  33.968  27.781   3.388 -0.1552 -0.0512 -0.0752
52771W        W95762   1.478  18.047   8.654  0.2531  0.1151  0.1822
52772W        W95763  24.531  31.426   2.279 -0.0220 -0.2299  0.0733
52773W        W95764  23.288  30.808  26.326  0.1435 -0.2949  0.0973
52774W        W95765  17.406   5.352  24.932 -0.0501 -0.2769 -0.3475
52775W        W95766  16.740  30.082   0.770 -0.1232 -0.0137  0.1611
52776W        W95767  19.511  16.800  13.167 -0.0268 -0.1899 -0.2598
52777W        W95768   8.475  30.837  26.312  0.1315  0.0158  0.0707
52778W        W95769   6.866   8.058  22.395  0.2044  0.1026 -0.1079
52779W        W95770  23.349   1.512   4.636  0.0613 -0.0336  0.0899
52780W        W95771  26.539   1.690  14.061 -0.1588  0.1266  0.1677
52781W        W95772  20.661  19.792  21.262  0.0802 -0.0123  0.2706
52782W        W95773  21.862  20.892  27.092 -0.1655 -0.1485 -0.0443
52783W        W95774  22.892   8.417  22.683  0.0076 -0.1855  0.1719
52784W        W95775  10.891  13.262   2.116 -0.0092 -0.1086 -0.1091
52785W        W95776  28.272   8.437  15.728 -0.1676 -0.0310  0.0416
52786W        W95777  18.182   8.430  19.665  0.2725  0.1035  0.0616
52787W        W95778  31.302  29.132  23.732 -0.1202 -0.2790 -0.3174
52788W        W95779   4.048  32.146  20.677  0.0240  0.2293  0.4301
52789W        W95780  30.165  10.198  16.144  0.1873  0.0028  0.1021
52790W        W95781   2.115  15.482  20.541 -0.2551  0.2904  0.0226
52791W        W95782  14.951  23.179  25.940 -0.0585  0.2255  0.2611
52792W        W95783  26.129  10.035  16.915 -0.1050 -0.0824  0.0211
52793W        W95784  22.553  31.553  19.607 -0.1754  0.1913  0.0546
52794W        W95785  12.675   0.874  28.808 -0.0563  0.1939  0.1894
52795W        W95786  11.548  31.528  21.265  0.0200  0.1801  0.0629
52796W        W95787  24.927  27.613  13.874 -0.4318  0.1023 -0.1996
52797W        W95788  28.165  30.820  20.274  0.1926 -0.1384  0.0033
52798W        W95789  18.924   1.060   6.550 -0.2607 -0.2126  0.2947
52799W        W95790  22.426  27.259  15.874  0.2779 -0.1312 -0.1479
52800W        W95791  32.289  28.065   6.718  0.0779  0.1968  0.1713
52801W        W95792   7.836  12.433   0.873  0.2997  0.2160  0.0174
52802W        W95793   8.905  28.807   5.793  0.1505 -0.3202 -0.3455
52803W        W95794  16.867  33.375  25.067 -0.2509  0.1738 -0.1981
52804W        W95795  14.931  22.772  27.664  0.1205 -0.4683 -0.0743
52805W        W95796  21.765  34.586  29.174 -0.0103 -0.1206 -0.1514
52806W        W95797   9.388   7.387  27.774 -0.0434 -0.0528  0.0183
52807W        W95798  20.328   4.629   4.722  0.1610 -0.2154  0.3363
52808W        W95799   1.207  25.169  16.986 -0.0960  0.0750 -0.0819
52809W        W95800  33.162   4.250  25.094 -0.2542  0.1648  0.1320
52810W        W95801   4.326   5.792   2.477 -0.2021 -0.3895  0.1429
52811W        W95802  14.387  25.683   2.761 -0.0099 -0.0414  0.3371
52812W        W95803  18.930  30.418  19.021 -0.0465 -0.2523 -0.0337
52813W        W95804  10.773   5.123   5.081  0.0885  0.0075 -0.1888
52814W        W95805  21.697   3.078  26.865 -0.0113 -0.1084 -0.4140
52815W        W95806  16.619  24.200   3.218 -0.2994  0.2105  0.2377
52816W        W95807  32.586   6.794  24.218  0.0370  0.1963  0.0107
52817W        W95808  21.791  30.201  19.876 -0.1173 -0.1193  0.4267
52818W        W95809   8.091  27.813  16.672 -0.1754 -0.1957  0.0732
52819W        W95810   6.825  28.829   5.120 -0.0844  0.1264  0.2143
52820W        W95811  17.055  15.319  25.780  0.0636  0.1163  0.1217
52821W        W95812   6.457  20.299   8.098 -0.2201 -0.0503 -0.2829
52822W        W95813  19.241  29.144  23.802 -0.2089 -0.0526  0.2409
52823W        W95814   8.436   3.815   6.988  0.0746 -0.2868  0.1801
52824W        W95815  27.181   7.295  17.928 -0.0145  0.0081  0.2748
52825W        W95816  27.716  25.448  16.215 -0.0279  0.1183  0.2996
52826W        W95817  26.088   2.807  20.423  0.0107  0.0707 -0.1156
52827W        W95818  31.772  14.305   2.249 -0.0304 -0.1910  0.1022
52828W        W95819   2.036   8.798  16.807  0.2252  0.1516  0.1445
52829W        W95820   7.828  33.244  10.469  0.1523 -0.0981  0.2326
52830W        W95821   3.194  13.206   2.896  0.1112 -0.2910 -0.0876
52831W        W95822  13.701  32.203  21.367  0.3709  0.2779  0.1429
52832W        W95823  24.262  19.953  21.353 -0.0071  0.1163 -0.0524
52833W        W95824  23.022  28.226  25.336  0.1890  0.2588 -0.0927
52834W        W95825  17.923   4.798  16.555  0.1890 -0.2083  0.0003
52835W        W95826  23.854  25.105   1.504  0.2160 -0.1454 -0.2591
52836W        W95827  15.564  30.270  20.040 -0.0372 -0.0597 -0.2674
52837W        W95828  16.509   7.930  24.199 -0.0796  0.1755 -0.0649
52838W        W95829  33.826   9.612  25.259 -0.2510 -0.1474  0.0908
52839W        W95830  22.405  23.287  21.306  0.1311 -0.1899  0.1027
52840W        W95831  33.145  27.116  27.320 -0.0885 -0.1230  0.3002
52841W        W95832  26.679   4.633  21.469 -0.1614 -0.0544  0.1257
52842W        W95833   5.505  34.538  10.563 -0.1103 -0.0509  0.0778
52843W        W95834   4.940  23.963   3.527  0.1961  0.0513  0.0928
52844W        W95835  21.195   4.945  21.978 -0.2254  0.0674  0.0324
52845W        W95836   9.773   8.587   5.545  0.0307  0.1943  0.0387
52846W        W95837   7.624   7.690  21.908  0.2439  0.1057 -0.4533
52847W        W95838   0.913   9.534   1.566 -0.0627 -0.2809  0.0669
52848W        W95839   1.356  28.099  28.387  0.2860 -0.0249 -0.3973
52849W        W95840  17.990   5.821  24.008  0.0382 -0.2067 -0.2395
52850W        W95841  14.479  34.784  22.754 -0.2596 -0.6971 -0.0706
52851W        W95842  23.368   7.822  22.601  0.3479  0.1770 -0.0327
52852W        W95843  21.867   6.770  24.208 -0.2109  0.1202  0.1110
52853W        W95844  10.546  20.848   9.826 -0.3273  0.4735  0.1081
52854W        W95845  22.574  22.974  14.874  0.2473 -0.0180  0.0106
52855W        W95846  10.944   3.094   4.480 -0.0230 -0.1116  0.1922
52856W        W95847   7.062  24.870  20.723 -0.0558  0.0812 -0.2876
52857W        W95848  17.883  22.361  18.830  0.0234  0.0041  0.0209
52858W        W95849   4.560  32.649  24.388 -0.1896  0.1898  0.0496
52859W        W95850  22.668  32.299  16.439  0.1234  0.1372  0.2567
52860W        W95851  30.578  29.925  19.144 -0.2132 -0.2028  0.2369
52861W        W95852  29.449   9.589  23.602  0.2384 -0.1020 -0.1272
52862W        W95853   5.130   1.198   9.326  0.3863  0.0870 -0.0643
52863W        W95854  27.862   7.138  26.816  0.2771 -0.0476 -0.0568
52864W        W95855  14.914   8.494  22.869 -0.0420 -0.1581  0.1607
52865W        W95856  20.406  17.590  23.550 -0.0741 -0.5458  0.0995
52866W        W95857  28.352  31.962  15.540 -0.3634 -0.0157 -0.2513
52867W        W95858  33.058   8.089  28.339 -0.0417 -0.3044 -0.2003
52868W        W95859   8.996   4.294  26.802  0.1910 -0.0137  0.1785
52869W        W95860  17.021   9.887  26.653 -0.3067 -0.0892  0.3382
52870W        W95861  29.865   4.651  27.236  0.2228 -0.1942 -0.2262
52871W        W95862  17.220  31.073  27.950  0.0448 -0.0181 -0.0333
52872W        W95863   6.008   0.540  17.482  0.2065  0.0935  0.1407
52873W        W95864  10.699   9.127  19.066 -0.0737 -0.3529 -0.0060
52874W        W95865  22.583  33.484   5.595  0.2645  0.2538 -0.1491
52875W        W95866  16.103  31.717  22.465 -0.1250  0.0632 -0.0231
52876W        W95867  18.642   0.539  13.850 -0.3723  0.0711  0.2487
52877W        W95868  23.971   5.653  28.615 -0.1104 -0.1912 -0.2427
52878W        W95869  26.640  34.608  24.268  0.2031  0.0337 -0.1898
52879W        W95870   4.959  22.828  19.779  0.0264 -0.0405  0.0358
52880W        W95871  20.256  34.764  20.960  0.0439  0.1778  0.2578
52881W        W95872  22.893  27.703  19.581  0.3497 -0.0497 -0.4074
52882W        W95873   9.531  18.024   7.845 -0.0795  0.0663  0.2488
52883W        W95874  15.614  29.949   3.141 -0.2330 -0.0591 -0.0409
52884W        W95875  14.493  13.357  26.464  0.0789  0.1673  0.0889
52885W        W95876  24.243   4.096   4.594  0.3068 -0.1303 -0.2042
52886W        W95877   5.312  16.734  29.110 -0.1542 -0.2434  0.1001
52887W        W95878   6.629   3.963  23.536  0.1379 -0.0548  0.2087
52888W        W95879   6.372   5.116  27.173  0.3546 -0.1234 -0.4507
52889W        W95880  26.464  15.652   8.764 -0.1517  0.3677  0.1268
52890W        W95881  16.372  29.552   4.199 -0.0886  0.0595 -0.2391
52891W        W95882   9.950  32.882  19.617 -0.3025  0.2237  0.0943
52892W        W95883  13.539  22.666   6.259 -0.1782 -0.2183  0.0998
52893W        W95884   2.063   5.336  19.985 -0.0842 -0.3269 -0.0396
52894W        W95885  27.512  30.093  14.793 -0.0392 -0.0766 -0.2028
52895W        W95886  12.621  30.744  25.211 -0.0357 -0.2689  0.0197
52896W        W95887  14.039  15.378  23.855  0.3639  0.1059 -0.0179
52897W        W95888  22.340  28.331  19.111 -0.3011  0.3121 -0.3665
52898W        W95889  31.618   6.183  28.685 -0.0192 -0.1447  0.1421
52899W        W95890  20.159  10.100  25.715  0.1510  0.1922  0.0690
52900W        W95891   4.811   0.882  18.952 -0.2216 -0.2747 -0.4067
52901W        W95892  21.192   2.926  28.859 -0.0009 -0.2399  0.0054
52902W        W95893   2.570  27.300  28.285  0.2278  0.3188 -0.1785
52903W        W95894   5.769  30.286  21.198 -0.0437 -0.0337  0.0241
52904W        W95895  26.966  31.950  23.853  0.0631  0.1731  0.1576
52905W        W95896   3.080  19.592  20.733 -0.0754 -0.4818 -0.0497
52906W        W95897  11.267  30.053  28.041 -0.0621  0.2034 -0.2770
52907W        W95898  31.008   1.172  27.111  0.1987 -0.0941 -0.0595
52908W        W95899  11.508  25.042  27.647 -0.1262  0.1252  0.0649
52909W        W95900   6.704  32.339   2.203 -0.0288  0.0929 -0.2960
52910W        W95901  17.534   4.808   5.829 -0.0506 -0.1155  0.0720
52911W        W95902  12.285   3.416  24.870 -0.0327  0.1608  0.1193
52912W        W95903  17.290  20.181  22.591  0.1111 -0.1703 -0.0415
52913W        W95904  17.893  13.410   3.300  0.2813 -0.1181  0.0772
52914W        W95905  11.758   4.105  10.755 -0.2888 -0.2920 -0.0645
52915W        W95906  26.574   1.224  19.096  0.1060  0.1127 -0.0977
52916W        W95907  12.140   6.927  18.031  0.3471 -0.3249 -0.6176
52917W        W95908  12.988   7.514   5.970 -0.0134  0.1177 -0.1091
52918W        W95909   9.299   5.176  19.096 -0.1187  0.2347 -0.1627
52919W        W95910  22.259  20.812   5.014  0.0795 -0.1878  0.1241
52920W        W95911  20.021   5.499   3.761  0.2110  0.2393 -0.1439
52921W        W95912  15.816  31.596  28.125  0.2847 -0.1384  0.2833
52922W        W95913  19.225   1.774   2.762 -0.1065 -0.3060  0.2397
52923W        W95914  10.348  29.551  28.091 -0.1393  0.2486 -0.0016
52924W        W95915   4.878  16.746  28.235  0.1045 -0.1250 -0.2244
52925W        W95916  22.301  12.566  26.320  0.0629  0.0087 -0.1084
52926W        W95917  18.636  12.241  23.511 -0.0320 -0.3624 -0.0241
52927W        W95918  12.464  14.723  18.647  0.2202  0.1581  0.0172
52928W        W95919   2.120   4.892   4.660  0.1974 -0.2044  0.0618
52929W        W95920   8.572   0.418  23.680 -0.0542  0.1071 -0.1797
52930W        W95921  11.244  30.537   4.677 -0.0493 -0.0702  0.2441
52931W        W95922  23.531  22.157   1.248  0.0185  0.1552 -0.1240
52932W        W95923  32.590   4.685  19.488  0.3111  0.5072 -0.0808
52933W        W95924  14.420   9.676  26.808 -0.0868 -0.0028 -0.1149
52934W        W95925  22.945  27.102   5.199  0.0788 -0.0560 -0.3072
52935W        W95926  16.749  12.127   4.261 -0.1261 -0.0070 -0.1512
52936W        W95927   2.451   6.415  22.557  0.0035 -0.0808 -0.0600
52937W        W95928   9.585  12.191  16.458  0.1028 -0.3043 -0.0837
52938W        W95929  13.824   0.507   2.388 -0.2022 -0.0772 -0.0903
52939W        W95930  11.723   9.792  21.023  0.1263  0.1442  0.0902
52940W        W95931  10.681  33.571  19.539 -0.2448 -0.0689 -0.1614
52941W        W95932  22.394  28.833  27.255 -0.1691  0.2468 -0.0255
52942W        W95933   9.500  26.282   8.771 -0.2402 -0.1614 -0.0572
52943W        W95934  10.134   5.979   1.474 -0.0209 -0.0307  0.1842
52944W        W95935  17.621   7.134  26.702 -0.2264  0.0265  0.1197
52945W        W95936  24.461  16.036  23.703  0.1024  0.4273  0.0662
52946W        W95937  16.947   3.132  28.085 -0.0284  0.0715  0.2114
52947W        W95938  13.760   8.208  27.560  0.1084  0.2526 -0.1092
52948W        W95939  22.751  18.054   7.499 -0.0916  0.1857 -0.2027
52949W        W95940  11.640   0.477   2.673 -0.2643 -0.1707 -0.2648
52950W        W95941  12.045  13.056   2.611  0.0926  0.1737  0.0277
52951W        W95942   0.744  32.702  18.936 -0.5003 -0.1610  0.4115
52952W        W95943  19.621   3.031  23.686 -0.2787 -0.1316 -0.1330
52953W        W95944  15.038  22.698  28.925 -0.0050 -0.2579  0.0963
52954W        W95945   5.956  30.220   5.679  0.0872 -0.1540 -0.0815
52955W        W95946   6.265  18.294  20.615  0.1420  0.0398  0.1777
52956W        W95947  33.704   3.085  18.822  0.0675  0.2969  0.2387
52957W        W95948  10.103   5.050   8.791 -0.0868 -0.3585 -0.0518
52958W        W95949   4.306   9.028  22.515 -0.1519 -0.1303 -0.1825
52959W        W95950  25.161   3.265  16.846  0.1651 -0.2387  0.0539
52960W        W95951   4.289  25.847  27.104 -0.3962  0.3240 -0.1310
52961W        W95952  24.436  34.652   7.133  0.1717 -0.1207  0.2867
52962W        W95953   6.060  24.710  21.017  0.3034 -0.0867  0.0579
52963W        W95954  27.231  12.130  20.628 -0.0478 -0.0110  0.1272
52964W        W95955  15.321  29.003  17.192  0.1677  0.1446  0.2928
52965W        W95956  12.867  24.482   0.339 -0.1271  0.1801 -0.1075
52966W        W95957   3.400  17.795  11.255  0.0125 -0.1166  0.0421
52967W        W95958   6.712  23.747  17.293 -0.0045 -0.2491  0.0330
52968W        W95959  24.673  33.230  19.364  0.0567 -0.0682 -0.2011
52969W        W95960   1.474  24.806   1.190  0.0796 -0.5236  0.0791
52970W        W95961  27.214  29.643  15.007 -0.0303 -0.0650 -0.1265
52971W        W95962   7.607  23.030   2.447 -0.1480 -0.1613  0.1419
52972W        W95963  14.897  12.313  24.393  0.0477 -0.2164  0.2175
52973W        W95964  10.546   3.974  21.337  0.1411  0.0254  0.0183
52974W        W95965  32.186  17.127   0.130  0.3190  0.2805 -0.2827
52975W        W95966   1.360   7.822  10.947  0.1112  0.0941  0.0301
52976W        W95967  16.218  33.257  16.480 -0.0058 -0.0307  0.3305
52977W        W95968   7.478   0.315  10.304 -0.4279 -0.3724  0.0338
52978W        W95969  19.508  21.862  28.854  0.1165  0.2641  0.2494
52979W        W95970  23.744  23.563  19.318  0.0681 -0.0775 -0.2693
52980W        W95971  25.767  26.983   3.921  0.1083 -0.2134  0.0381
52981W        W95972  17.288   4.440   4.397 -0.2475  0.0290 -0.0882
52982W        W95973  21.706  32.420   0.618 -0.1890 -0.2360 -0.1560
52983W        W95974   8.576  32.453  20.572 -0.0617  0.1021  0.1172
52984W        W95975  14.004  29.036  14.297 -0.0600 -0.1827 -0.3308
52985W        W95976  10.227  26.418   5.788 -0.1100 -0.0699 -0.3325
52986W        W95977  24.871  27.587  14.842  0.0032 -0.0525  0.0858
52987W        W95978  13.689   5.226  25.939 -0.1422  0.4143  0.1673
52988W        W95979  19.504  10.256  21.852  0.3276  0.1610  0.1979
52989W        W95980  16.924   2.457  25.579  0.1433  0.0456 -0.0251
52990W        W95981  20.929  20.132   4.831  0.0073 -0.2213 -0.0376
52991W        W95982   3.810  12.326  21.045 -0.0795 -0.1430  0.0266
52992W        W95983  29.586   3.229  25.581  0.0562 -0.0736  0.1878
52993W        W95984  12.857  33.365   7.003 -0.1174  0.0090  0.0079
52994W        W95985  29.672  22.371  21.811  0.3236 -0.1162  0.3507
52995W        W95986  21.173  29.633  24.095  0.3874 -0.3612  0.0006
52996W        W95987   0.214  13.721  27.266 -0.0260 -0.0896  0.2652
52997W        W95988  14.789  30.025  21.855 -0.3641 -0.1914  0.0586
52998W        W95989   4.395  32.695   6.304  0.0370  0.2444 -0.2058
52999W        W95990  15.533   0.294  16.650  0.1132 -0.1095 -0.0877
53000W        W95991  14.114  16.899  17.575  0.0226  0.0539  0.1296
53001W        W95992   4.646  11.295  27.018 -0.0768  0.2792 -0.5854
53002W        W95993  12.939  20.863  18.794  0.4170 -0.0868  0.1978
53003W        W95994  11.703  19.240  21.768  0.0024 -0.0877 -0.2806
53004W        W95995  30.222  31.605   0.762 -0.3403  0.0081 -0.1935
53005W        W95996   0.829  30.828  18.405  0.0029  0.0690 -0.2104
53006W        W95997  16.529  32.925  14.593 -0.0885 -0.3473  0.1614
53007W        W95998   8.624  31.522   7.097 -0.1866 -0.0947 -0.0498
53008W        W95999  13.840  29.252  26.054  0.0292  0.2034  0.0221
53009W        W96000   9.393  13.601   0.618 -0.1335  0.0227 -0.0780
53010W        W96001   5.052   9.640  18.702 -0.3490  0.1262 -0.1068
53011W        W96002  10.258   3.084  16.119 -0.0771 -0.2901  0.5369
53012W        W96003   9.537  32.843  27.217  0.1719  0.0364  0.0125
53013W        W96004  18.337   3.919  28.698  0.4221  0.1676 -0.3035
53014W        W96005  16.452  32.913   5.004  0.2102 -0.1642 -0.0999
53015W        W96006   7.269  28.836  27.332 -0.1023  0.3774 -0.1791
53016W        W96007  24.514  17.792   1.604 -0.0019 -0.0725  0.1691
53017W        W96008   7.392   1.050  28.188  0.2027  0.1479  0.0264
53018W        W96009   9.196   0.617  26.973  0.2606 -0.2174  0.1496
53019W        W96010  18.822   8.516   9.521 -0.0943  0.2897 -0.0403
53020W        W96011  19.724  29.483   5.234 -0.1275  0.2807  0.0413
53021W        W96012  24.291  30.789   1.639 -0.2384 -0.1679 -0.0115
53022W        W96013   9.607  28.424  29.008 -0.1022 -0.0149 -0.2898
53023W        W96014  15.382   0.227  18.301  0.4052 -0.1155  0.2228
53024W        W96015  17.341  27.986   2.097  0.1296  0.1559  0.3433
53025W        W96016  22.704  34.249  24.208  0.2065  0.0110  0.1636
53026W        W96017  12.042  29.663  22.555 -0.0285 -0.0938 -0.1953
53027W        W96018   4.096   9.812   3.601  0.3402  0.0204 -0.1724
53028W        W96019  18.572   1.911   8.984  0.2003  0.0905 -0.0759
53029W        W96020   4.813  20.944   1.565  0.0349 -0.4235  0.3246
53030W        W96021  27.836   9.849  16.528  0.0680 -0.0174  0.1209
53031W        W96022  18.486   8.730  26.672  0.2636 -0.0430  0.0735
53032W        W96023  15.911   6.297  28.910  0.0282  0.2567 -0.1670
53033W        W96024  14.076  27.764  24.801  0.1809  0.4240 -0.2428
53034W        W96025  24.140  12.013  18.463 -0.2859  0.1779 -0.0590
53035W        W96026  16.183  15.407  14.842  0.0388 -0.1682  0.4133
53036W        W96027  19.862  34.502   4.129  0.0182 -0.0234  0.2832
53037W        W96028   3.411  34.518  21.277 -0.1383 -0.0401  0.0792
53038W        W96029   4.916  30.619  22.569 -0.0156  0.3103 -0.2937
53039W        W96030   8.626  32.634   1.150 -0.0940 -0.1571  0.0592
53040W        W96031  19.604  30.250  24.152  0.0912  0.0420 -0.2351
53041W        W96032  23.938   3.320  19.618 -0.2824  0.1365  0.0938
53042W        W96033   4.459  28.555  21.968  0.0326 -0.1714 -0.2749
53043W        W96034  19.233   1.935  17.643  0.1272 -0.2152 -0.2081
53044W        W96035  10.892   7.883  25.304  0.1654  0.0660 -0.0301
53045W        W96036   2.581   0.483   4.857 -0.0718  0.1607  0.2434
53046W        W96037   4.927  16.737  26.053 -0.5210 -0.1299  0.1074
53047W        W96038  15.186  34.693   5.763 -0.3164 -0.3407 -0.2040
53048W        W96039  21.676  10.554   7.412 -0.1535 -0.2110  0.0497
53049W        W96040  16.531   1.561  26.052 -0.2523 -0.4146  0.1631
53050W        W96041  15.516  19.923   4.684  0.0010  0.2626 -0.1280
53051W        W96042  18.211   1.944   4.263 -0.1177  0.2280  0.0941
53052W        W96043  22.995   5.632   4.006 -0.3784 -0.1632 -0.0922
53053W        W96044   9.329  11.140  25.151 -0.0114  0.1215 -0.1397
53054W        W96045  23.463  28.735   0.758  0.0654  0.1270 -0.5548
53055W        W96046   0.676  27.040  16.126  0.1229  0.3555 -0.0230
53056W        W96047  10.442   0.002  21.234 -0.1278  0.0462 -0.0555
53057W        W96048  12.790  20.104   2.653 -0.3111  0.0046 -0.1306
53058W        W96049  24.587  27.454   7.588 -0.0737 -0.0088 -0.0288
53059W        W96050  17.231  10.863   6.744 -0.2591  0.1460 -0.2794
53060W        W96051  16.489   6.721  10.628 -0.1515 -0.0346 -0.1894
53061W        W96052   9.315  30.014   0.177 -0.0051 -0.0305 -0.1718
53062W        W96053  11.473   2.561   2.304 -0.0525 -0.2541 -0.4008
53063W        W96054   9.620  17.160   0.227 -0.0511 -0.0759 -0.3322
53064W        W96055  22.974  19.006  28.267 -0.1853 -0.1320 -0.1092
53065W        W96056   2.619   3.573  20.511 -0.1795 -0.0791 -0.0798
53066W        W96057  10.143  13.898  28.334  0.0620  0.1112  0.2851
53067W        W96058  31.688  28.465   8.435  0.1285 -0.0114 -0.2497
53068W        W96059  22.840  21.958  19.689 -0.1731 -0.1245  0.2210
53069W        W96060  24.351  13.951   1.616  0.2207  0.0720  0.0127
53070W        W96061   0.749   0.246  28.954 -0.0448 -0.1129 -0.0085
53071W        W96062  20.485   4.515  16.641  0.1717 -0.1771  0.3462
53072W        W96063  11.867  18.004   9.048 -0.0112 -0.1141  0.2253
53073W        W96064  12.829  32.103  23.451  0.0630 -0.0300 -0.1830
53074W        W96065   1.301  21.615  18.251 -0.1060 -0.0035 -0.1537
53075W        W96066  13.770  28.423  22.121 -0.1741  0.1520 -0.5047
53076W        W96067  18.475   8.127  22.228 -0.2217  0.4722 -0.0714
53077W        W96068   2.203   5.287  27.697 -0.0494 -0.0041 -0.3308
53078W        W96069  20.463   4.351   0.444  0.0885  0.3071  0.2410
53079W        W96070   2.353  33.683  18.689  0.2303  0.2051  0.1806
53080W        W96071   2.931  31.681   1.605  0.1536 -0.2367 -0.0779
53081W        W96072  19.734   5.863  23.204 -0.2363  0.0160  0.1867
53082W        W96073   5.343  33.230   5.387 -0.0643 -0.2078 -0.0770
53083W        W96074  14.008   0.537  16.433  0.1776  0.1281 -0.2497
53084W        W96075   9.652  28.581  24.689 -0.1517 -0.0123 -0.2089
53085W        W96076  10.534  29.801   2.322 -0.1089  0.3258 -0.1721
53086W        W96077  17.855  20.656  15.486  0.2638  0.0849  0.0093
53087W        W96078   0.615  10.609   6.118  0.2900  0.0598  0.0302
53088W        W96079   5.558  12.503   8.655 -0.2595  0.0203 -0.0465
53089W        W96080  11.733  33.693   3.390  0.2201 -0.1399  0.2598
53090W        W96081  18.154   0.802   2.993  0.1602 -0.0475  0.4275
53091W        W96082  24.420  13.113  18.196  0.0323 -0.1440  0.1284
53092W        W96083  15.455  32.239  10.690 -0.2927  0.1010  0.3461
53093W        W96084  16.353  12.316  21.178  0.1014  0.1969 -0.2080
53094W        W96085  20.644   7.225  26.393  0.1255 -0.0251  0.0143
53095W        W96086  14.230  29.214   6.639 -0.2534 -0.2438  0.0958
53096W        W96087  19.448  31.807  28.685  0.0097 -0.1123  0.1389
53097W        W96088  25.128   6.898   5.620 -0.2901  0.0960 -0.0582
53098W        W96089  11.745  25.458  18.636  0.0383 -0.0207  0.1236
53099W        W96090  25.406  25.686  21.540 -0.1408  0.0894  0.0002
53100W        W96091  31.268   3.822  14.698 -0.2196 -0.0561 -0.1410
53101W        W96092  17.944   4.891   8.546  0.0223  0.0275 -0.0959
53102W        W96093  15.284   0.278  27.679  0.2532  0.1594  0.1622
53103W        W96094  23.289  14.650   8.663 -0.0307  0.0717 -0.1328
53104W        W96095   4.141  28.212  28.256 -0.3081  0.1240  0.1419
53105W        W96096   2.530  20.576   9.231  0.1045 -0.3760  0.0004
53106W        W96097  18.649   5.874  26.666 -0.1188 -0.3674 -0.0289
53107W        W96098  23.696  30.208  13.758 -0.0400 -0.0620 -0.3516
53108W        W96099   4.402   3.122   7.519  0.0543 -0.5054 -0.0135
53109W        W96100  12.064  10.021   6.715 -0.2400 -0.0109  0.0651
53110W        W96101  18.041   0.511  17.727 -0.5743 -0.0552 -0.2435
53111W        W96102  33.728  33.048   5.014 -0.1449 -0.1855  0.0185
53112W        W96103  22.785  21.234  28.768  0.0483 -0.0579  0.4356
53113W        W96104   0.106  27.563  18.748  0.0585 -0.0009 -0.1651
53114W        W96105   4.176  28.681  23.383 -0.0558 -0.3894 -0.0192
53115W        W96106   9.690  13.716   9.229 -0.0264 -0.0423 -0.0151
53116W        W96107  18.773  32.947  25.829  0.1963  0.1438  0.2795
53117W        W96108   2.183   4.325  28.319  0.0552  0.2158  0.5628
53118W        W96109  11.526  10.884  22.739  0.5846  0.3201  0.1307
53119W        W96110   6.258  31.574  23.979  0.0962 -0.3422 -0.0676
53120W        W96111   9.437   5.989  27.900 -0.1267 -0.1535  0.0109
53121W        W96112  23.515  14.640  15.389  0.2077  0.1597 -0.1844
53122W        W96113  17.382   8.420  16.141 -0.0446 -0.1279  0.2077
53123W        W96114  15.829  11.644  19.082 -0.2267 -0.0150  0.1969
53124W        W96115   4.246  32.192   2.837  0.0678  0.2190  0.2967
53125W        W96116  20.155  25.933   5.314 -0.1320 -0.3085 -0.1040
53126W        W96117   8.832   6.631  20.118 -0.0172 -0.0240 -0.0798
53127W        W96118  26.851   1.379  28.309  0.2105  0.0890 -0.2058
53128W        W96119  13.199   1.692   6.409  0.0943 -0.0569  0.1459
53129W        W96120   7.585  26.316  27.227  0.3388  0.0541  0.2080
53130W        W96121  20.876   7.890  21.455 -0.1053  0.0447  0.1908
53131W        W96122  20.015  21.851  19.883  0.1122  0.1123  0.0884
53132W        W96123  15.443  32.870  10.107  0.2980  0.0818 -0.0936
53133W        W96124  10.417   5.183  26.973  0.0033 -0.0863 -0.3142
53134W        W96125  20.462  24.378  23.314 -0.0838  0.1171 -0.1426
53135W        W96126  17.913   6.249   1.460  0.1693  0.0661  0.0390
53136W        W96127  12.086  13.600   7.770  0.0483  0.4580  0.4713
53137W        W96128   5.211   7.633   0.719  0.0356  0.0367  0.0763
53138W        W96129   6.702  31.902  22.041 -0.0520  0.0106 -0.1280
53139W        W96130   8.422   5.914   6.151  0.0499 -0.4122 -0.0520
53140W        W96131  15.226  13.203  28.851 -0.1362 -0.0218 -0.2555
53141W        W96132  21.902  12.007   0.040 -0.2780  0.0780  0.2226
53142W        W96133   1.963  13.337  26.535 -0.1342 -0.0252 -0.0241
53143W        W96134  11.200   6.826  28.220 -0.3709  0.1774  0.0481
53144W        W96135  21.449  23.841   5.798  0.1147  0.0253  0.3937
53145W        W96136  19.279   8.486  28.075 -0.0782  0.1267 -0.1614
53146W        W96137  29.064  10.253   1.563 -0.1631 -0.1682  0.0976
53147W        W96138  10.702  32.285  17.191 -0.0194 -0.2051 -0.1698
53148W        W96139  13.812   9.371  24.635 -0.1319  0.2296 -0.3698
53149W        W96140   9.553  33.434  22.390 -0.0967 -0.1166  0.1540
53150W        W96141  19.661  24.319   4.818 -0.0779 -0.0121  0.2235
53151W        W96142   8.241  32.731  18.566  0.2123 -0.2467  0.2575
53152W        W96143  14.312  12.035   1.606  0.0398 -0.1649 -0.3352
53153W        W96144   1.994  32.196  15.973 -0.1136 -0.2238  0.0925
53154W        W96145   7.970  10.941  25.210 -0.3577  0.2860  0.0300
53155W        W96146  13.326   6.185  18.757  0.1392  0.2201 -0.1596
53156W        W96147   2.895  11.807  25.949 -0.1848 -0.0325 -0.1011
53157W        W96148  15.749   8.191   5.687  0.1201  0.0571 -0.0492
53158W        W96149   1.631  28.423   8.544  0.1807 -0.3515 -0.3090
53159W        W96150  12.295   0.686  10.376  0.1065 -0.1255 -0.1028
53160W        W96151  15.236  26.303   3.287  0.2267 -0.1352  0.1888
53161W        W96152  11.563  33.794  22.618  0.0893 -0.1715 -0.4701
53162W        W96153   8.382   7.566  16.669 -0.0180 -0.2251 -0.1088
53163W        W96154  31.624   1.171   4.408 -0.3003 -0.1853  0.1025
53164W        W96155  29.167   4.273  28.495 -0.2387 -0.0086  0.0918
53165W        W96156   5.562  30.632   8.067  0.0672  0.1613  0.0958
53166W        W96157   2.107  27.710   2.169  0.0344  0.2291 -0.1648
53167W        W96158  15.694   2.369   6.328  0.2572 -0.3996 -0.2192
53168W        W96159  29.317  18.092  16.924  0.1381 -0.0511 -0.2147
53169W        W96160   9.299  16.766  14.404  0.1696  0.1455 -0.2241
53170W        W96161   9.843  25.349  22.232  0.0100  0.2012  0.2963
53171W        W96162  14.747   9.735  14.626  0.1576  0.0662 -0.2247
53172W        W96163  20.478  25.178   5.303 -0.1919  0.1512  0.2894
53173W        W96164  20.126  28.466  28.897  0.4627 -0.0471 -0.0362
53174W        W96165   0.397  10.838   2.495  0.3815  0.1568  0.0194
53175W        W96166   4.145   7.646  22.106 -0.2632  0.0383 -0.0636
53176W        W96167  11.303  32.234   8.355  0.2553 -0.2433 -0.0522
53177W        W96168  12.611   3.557  22.147  0.0782  0.1378  0.1622
53178W        W96169   9.240   3.913   3.263 -0.0800 -0.0174 -0.3542
53179W        W96170   7.597  15.688  19.158 -0.2648  0.3803 -0.1761
53180W        W96171   7.188   8.796   3.368 -0.2428  0.1488 -0.0183
53181W        W96172   9.300  23.081  26.847 -0.0880 -0.0065  0.0658
53182W        W96173  15.596   3.487   1.585  0.0741 -0.1924  0.0996
53183W        W96174  17.777   6.776  16.754 -0.0674 -0.1858 -0.2064
53184W        W96175  23.083  17.793  22.363 -0.2966 -0.2163  0.1495
53185W        W96176   2.981   0.511  28.526  0.2755  0.0410  0.0944
53186W        W96177  22.108   5.290  21.059  0.2956 -0.2907 -0.1126
53187W        W96178   9.844   1.174  21.465 -0.0674 -0.0256  0.1537
53188W        W96179  19.873  28.985   9.050 -0.0580 -0.0275  0.1701
53189W        W96180  24.641  17.794   6.120  0.1311  0.0613  0.0794
53190W        W96181   9.136  34.685  20.303  0.1547  0.2213 -0.0430
53191W        W96182  15.556   3.865  28.243  0.1577 -0.1775 -0.0390
53192W        W96183  22.448  20.844   5.457  0.0138  0.1761 -0.1509
53193W        W96184  22.565  34.629  16.804 -0.0257  0.2106  0.0320
53194W        W96185  18.134   3.744   7.874  0.0404  0.1213  0.0617
53195W        W96186   8.717  10.163  27.956 -0.2954  0.0611 -0.0251
53196W        W96187   6.675  29.841  24.164  0.1692 -0.1129 -0.2098
53197W        W96188   9.664  30.555  25.110  0.1076 -0.0790  0.0167
53198W        W96189  22.135  16.952  13.728 -0.1617 -0.1231 -0.0316
53199W        W96190   2.501  29.252   1.010 -0.0366 -0.1964 -0.2897
53200W        W96191  16.572   0.390  22.555  0.0988  0.0947 -0.1593
53201W        W96192  18.200   6.484  16.701  0.0721 -0.1167 -0.0370
53202W        W96193  33.604  28.321   8.198  0.5464 -0.1764 -0.2007
53203W        W96194   8.496  10.361  24.607 -0.2536  0.5340  0.3140
53204W        W96195  34.785  13.484   8.085  0.3078  0.2248  0.1011
53205W        W96196   7.704   4.188   0.926 -0.2048  0.0760  0.3668
53206W        W96197  10.983  33.289   4.689 -0.0639  0.0578 -0.1086
53207W        W96198   2.692   0.295  21.450  0.1448 -0.4130 -0.0438
53208W        W96199  24.166   9.549  23.185  0.0076  0.2550 -0.1087
53209W        W96200  12.791  11.922   8.983  0.3302  0.1655 -0.0539
53210W        W96201  19.545  21.743  21.094  0.0600  0.1267 -0.1403
53211W        W96202  11.883   6.823   1.354  0.2398  0.3545  0.1362
53212W        W96203   0.686  29.227  23.817  0.2928  0.5594  0.1039
53213W        W96204  16.346  12.728  13.366  0.1478 -0.0492  0.1827
53214W        W96205  10.681  21.495   1.278  0.0038  0.2056  0.0644
53215W        W96206  13.007   3.452  11.400 -0.1418  0.1321 -0.6745
53216W        W96207   9.536  34.669   8.614  0.0942  0.1772  0.0845
53217W        W96208  34.379  33.679  15.765  0.1298  0.0096  0.2813
53218W        W96209  29.221  10.737   7.596  0.1354 -0.1565  0.1092
53219W        W96210  15.566  20.600  14.366 -0.1530 -0.0054  0.2782
53220W        W96211  10.872   0.939   1.436  0.3767 -0.3616  0.1530
53221W        W96212  15.181   3.908  28.976 -0.1307  0.1809 -0.2651
53222W        W96213  13.873   7.178  24.551  0.3345 -0.2650 -0.1756
53223W        W96214  10.496  31.096   4.960 -0.0249  0.2093  0.0260
53224W        W96215  18.873   6.049  17.888  0.2170 -0.0408  0.0859
53225W        W96216   3.026  18.163  18.861 -0.1916 -0.0536 -0.2593
53226W        W96217  22.259   8.314   1.888 -0.0875  0.0301  0.0370
53227W        W96218  13.622   1.568  24.510  0.2354 -0.0881 -0.3434
53228W        W96219  12.897  26.925  17.514  0.0686  0.1583 -0.1035
53229W        W96220  20.497  32.725   4.061 -0.1060  0.0265 -0.0691
53230W        W96221  12.721  34.310   5.403 -0.0080 -0.0797 -0.2009
53231W        W96222  13.046  33.209  22.856 -0.2062 -0.0839  0.1375
53232W        W96223  15.663  12.198   1.848 -0.0525 -0.0527 -0.0952
53233W        W96224   1.699  29.440   3.872  0.0621  0.1323  0.0736
53234W        W96225   8.623   7.773  10.147  0.2209 -0.0438 -0.3918
53235W        W96226  19.873  14.394   7.918  0.4209  0.0440 -0.1487
53236W        W96227  16.605   2.907  24.082  0.1516  0.0829 -0.2206
53237W        W96228  22.980   1.994  23.038 -0.3592  0.2102  0.1323
53238W        W96229  12.671  29.684  15.279  0.0532  0.2452  0.0113
53239W        W96230  11.219   2.026  25.142 -0.0135  0.0762 -0.0421
53240W        W96231  28.311   4.634  22.328 -0.0654 -0.0727 -0.0420
53241W        W96232  10.316  12.422   8.563  0.0232 -0.1941 -0.1055
53242W        W96233   9.634  32.494  28.621  0.0375 -0.1053  0.0538
53243W        W96234  20.830  26.812   3.808 -0.0854 -0.1385  0.0366
53244W        W96235  33.717   2.708   3.608  0.0510  0.0289  0.0687
53245W        W96236  24.328  14.607  16.806 -0.1138 -0.0598 -0.1325
53246W        W96237  14.963  25.206   2.420 -0.0833  0.0936 -0.0339
53247W        W96238  27.187  26.357  17.709  0.0194  0.1056  0.4035
53248W        W96239  26.845   4.712  19.059 -0.0051  0.0366  0.0972
53249W        W96240  18.002   0.453   7.133  0.0331  0.2372 -0.0186
53250W        W96241  14.499  32.075  24.124  0.2452  0.1567 -0.0034
53251W        W96242  21.815  27.481   1.263  0.1724 -0.0533 -0.0506
53252W        W96243  16.049  32.464  26.151 -0.1846 -0.0714  0.1602
53253W        W96244   7.683  23.957   9.400  0.4292  0.0542  0.3668
53254W        W96245  15.046   4.677   6.942  0.0870 -0.0111  0.3436
53255W        W96246  16.312  33.239  28.663  0.3654 -0.2526  0.0980
53256W        W96247   7.626  28.118   0.885 -0.1647  0.1699  0.0783
53257W        W96248  14.941   7.104  24.849 -0.1475  0.2270 -0.1657
53258W        W96249  14.142  10.503  27.299  0.1236 -0.1620  0.5649
53259W        W96250   8.287  23.455   3.193 -0.3288 -0.0101 -0.0376
53260W        W96251  24.110   2.874   5.016 -0.0131 -0.4859  0.1294
53261W        W96252  31.735  26.177   3.642  0.0450 -0.0655 -0.3045
53262W        W96253  18.965  27.981  22.734  0.0027  0.1022  0.1094
53263W        W96254  23.398   1.446   3.643  0.1548  0.1127  0.1158
53264W        W96255  16.056  29.167  29.062 -0.0066  0.1553  0.0057
53265W        W96256  18.686  34.250  15.629 -0.0751 -0.3053 -0.2402
53266W        W96257  25.741  31.099  18.095  0.0012  0.0003  0.0127
53267W        W96258   4.372  12.491  24.567 -0.1578  0.0155  0.2754
53268W        W96259  12.797  13.875  15.606  0.0434  0.0124 -0.0167
53269W        W96260  10.889   5.106  21.821  0.0819 -0.1219  0.0958
53270W        W96261  22.493  29.703  21.217  0.0754  0.1677  0.0090
53271W        W96262  27.163  20.464  19.584 -0.1392  0.3573  0.1074
53272W        W96263  30.365  25.008  20.859  0.0476 -0.0460  0.1041
53273W        W96264   2.819   2.900  16.779 -0.1276  0.0301 -0.1262
53274W        W96265  28.471   3.915  21.059  0.5317 -0.1107 -0.1587
53275W        W96266   8.510   9.991  20.232  0.2469 -0.1044 -0.1005
53276W        W96267   6.910   1.834  15.073  0.0459 -0.0781 -0.1085
53277W        W96268  16.367   6.676  19.465  0.3779 -0.0141  0.0508
53278W        W96269   7.484  17.034  22.081  0.1454 -0.0715 -0.1434
53279W        W96270   4.951  22.792  17.041 -0.2290  0.0436  0.2261
53280W        W96271  10.399   5.205  18.899 -0.0535 -0.2217 -0.0334
53281W        W96272   4.242   4.943  20.948  0.0826  0.0234 -0.3743
53282W        W96273  11.896  30.329  16.098 -0.0107  0.1896 -0.3343
53283W        W96274   7.201  19.977  18.939  0.1359  0.0375  0.0678
53284W        W96275  28.536   6.851  19.700  0.1219  0.4971 -0.2487
53285W        W96276  18.417  30.526  16.820 -0.0439 -0.1329  0.1279
53286W        W96277   4.328  28.447  21.443  0.0557 -0.1869 -0.2003
53287W        W96278  11.471   4.283  18.135 -0.1719 -0.1134  0.0914
53288W        W96279  15.979  22.093  20.873  0.0965  0.0333  0.2696
53289W        W96280   6.467   2.180  26.837 -0.0614  0.2492  0.0085
53290W        W96281  26.916  18.060  19.099 -0.0019  0.0667  0.3181
53291W        W96282   6.076  29.480   0.720  0.3486 -0.2501 -0.0728
53292W        W96283  34.590   1.398  22.612  0.0880  0.5006  0.0807
53293W        W96284  17.800   7.430  23.116  0.0578  0.1711  0.0689
53294W        W96285  19.741  31.250  13.490  0.1310  0.1851  0.1754
53295W        W96286  17.023   2.944   1.664  0.2677  0.5301  0.0940
53296W        W96287   4.557   4.501  26.171 -0.1157 -0.1247  0.1986
53297W        W96288   9.354   3.297  22.869 -0.2103  0.1580 -0.2475
53298W        W96289  12.669  33.596  27.913  0.0157 -0.2438 -0.0887
53299W        W96290  18.633  11.927  16.983 -0.0946  0.1730  0.3970
53300W        W96291   1.331   9.457  27.653  0.1675  0.3463  0.0153
53301W        W96292   9.970   7.590  24.744  0.0478 -0.1948  0.1421
53302W        W96293  17.247  15.493  14.774  0.1097 -0.2789  0.1397
53303W        W96294  17.805  26.528  21.533  0.2983  0.1497 -0.0708
53304W        W96295   4.532  20.414  17.632 -0.0281 -0.1331 -0.2053
53305W        W96296  13.567   7.705  17.420  0.1657 -0.0512  0.1508
53306W        W96297  18.072  29.020  15.527  0.0188 -0.2762  0.1201
53307W        W96298   9.781   5.317  23.858 -0.0241 -0.2042  0.0442
53308W        W96299  15.991   9.766  15.390 -0.0551  0.1760 -0.0380
53309W        W96300   6.067  34.548   6.642 -0.3364 -0.3318 -0.0692
53310W        W96301  10.293  30.611  21.273 -0.0110 -0.1713 -0.3100
53311W        W96302   4.158  29.293   4.759 -0.1269 -0.1595 -0.0427
53312W        W96303  23.417  20.076  18.270  0.1918 -0.1417  0.0000
53313W        W96304  19.627  32.758  17.302 -0.1928 -0.2424  0.0396
53314W        W96305   1.443  34.314  28.875  0.1836  0.4614 -0.0261
53315W        W96306  21.619  16.424  17.203  0.3635 -0.2391  0.1913
53316W        W96307  23.354   8.100  19.125  0.1036 -0.1955 -0.0165
53317W        W96308  26.472  11.762  23.578 -0.3415  0.4159  0.0190
53318W        W96309  27.924  29.939   0.652 -0.1600 -0.0225  0.1518
53319W        W96310   6.176  14.101  24.063  0.0593 -0.0972 -0.2604
53320W        W96311  23.839  14.438  13.709  0.0554 -0.3025 -0.2308
53321W        W96312  32.118  14.438  28.170 -0.0826  0.1601 -0.3039
53322W        W96313  22.811  22.703  16.502  0.1499 -0.3135 -0.0942
53323W        W96314   6.489   2.470  14.894 -0.0262 -0.4910 -0.0298
53324W        W96315  32.788  31.343  24.715  0.2551  0.0204 -0.1477
53325W        W96316  30.109  17.493   1.166 -0.0697 -0.0718  0.0102
53326W        W96317  29.769  11.548  22.459  0.1393  0.0074 -0.2031
53327W        W96318  13.332  19.377  15.101 -0.3400 -0.1266 -0.0345
53328W        W96319  19.752  30.794  17.055 -0.1427  0.1269 -0.1296
53329W        W96320   7.753   9.107  16.377  0.1681 -0.1242  0.0448
53330W        W96321  19.363  15.181  14.110  0.2783  0.0058 -0.0247
53331W        W96322  30.811   2.166  21.620 -0.2700  0.3184  0.1123
53332W        W96323   9.801   1.260  15.827 -0.1506 -0.2068  0.1297
53333W        W96324   9.185  34.080  23.808 -0.0477 -0.0415 -0.0621
53334W        W96325  22.269  11.233  26.006  0.1171 -0.1176  0.0939
53335W        W96326  16.374   8.347  22.841 -0.1205 -0.0644  0.3003
53336W        W96327  19.182   6.877  14.614  0.1603  0.2311  0.1099
53337W        W96328  20.740  10.503  19.562  0.1262 -0.2221  0.0542
53338W        W96329   7.174   5.622  18.491 -0.3597 -0.1395  0.0551
53339W        W96330  21.148  30.370  24.443  0.1419  0.1855  0.2284
53340W        W96331   1.016  14.642   8.383 -0.0014 -0.1815 -0.4170
53341W        W96332  29.211  12.057  21.848 -0.0585 -0.1129 -0.0779
53342W        W96333  29.135  16.117  26.091  0.0379 -0.0697  0.2689
53343W        W96334   3.267   2.252  15.850 -0.0008 -0.1495 -0.0052
53344W        W96335  19.935  33.530  24.002 -0.0020  0.1129 -0.2899
53345W        W96336  18.669  18.572  13.039  0.2822 -0.0577  0.3326
53346W        W96337  11.051  34.465   2.023 -0.2775 -0.1158 -0.1251
53347W        W96338  21.721   2.380  13.999 -0.1081  0.2511 -0.2129
53348W        W96339  28.084  29.851  16.985 -0.3098 -0.3325 -0.2927
53349W        W96340  14.735   0.281  17.656 -0.4411  0.1386  0.3713
53350W        W96341  24.933   1.256  18.888 -0.4219 -0.0201 -0.0514
53351W        W96342   6.003  16.694  15.986  0.0160 -0.0975 -0.2058
53352W        W96343   9.197   6.486  19.624  0.0682  0.0296 -0.0161
53353W        W96344   8.338   8.000  16.292  0.0847 -0.0777  0.2191
53354W        W96345  25.607   8.268  23.133 -0.1008 -0.0736  0.0531
53355W        W96346  31.503   7.381  17.354 -0.0646  0.0418 -0.3589
53356W        W96347  23.389  12.120  13.736  0.0452  0.0193 -0.0183
53357W        W96348   0.893  33.311  25.497  0.1275  0.3869 -0.0607
53358W        W96349  32.456  10.759  19.102  0.1434  0.0759 -0.1785
53359W        W96350  10.531   7.349  18.470 -0.1536  0.1246 -0.0895
53360W        W96351  33.762  10.754  21.091 -0.3110  0.5392  0.2588
53361W        W96352  25.020   4.429  21.295 -0.0860 -0.2739 -0.5094
53362W        W96353   8.635  23.318  20.199  0.1100  0.1188 -0.1876
53363W        W96354   5.751   4.506  17.565 -0.0497 -0.2447  0.0252
53364W        W96355  16.465  10.195  14.465  0.0191 -0.0214  0.2558
53365W        W96356  34.569  25.182   8.264  0.2525 -0.2967  0.0860
53366W        W96357  21.886   5.995   1.834  0.0308 -0.2421 -0.0245
53367W        W96358   7.596   8.326  18.431 -0.3987 -0.0282  0.0695
53368W        W96359  28.508   0.548  18.019  0.1205 -0.1689  0.4539
53369W        W96360  11.367   0.012  21.613 -0.0820 -0.0639 -0.1065
53370W        W96361  16.613  32.031  23.344  0.1830 -0.0031  0.3244
53371W        W96362  29.890  16.281  27.373 -0.4621  0.0154 -0.0358
53372W        W96363  13.405   4.856  15.884 -0.4677  0.1358 -0.0211
53373W        W96364  25.081  15.487  14.571  0.2369 -0.2632 -0.0030
53374W        W96365   9.274  16.013  18.344  0.3186  0.0908  0.0199
53375W        W96366  18.825   2.892  20.842 -0.0309 -0.1324  0.0677
53376W        W96367   0.932  30.323   4.395  0.3521 -0.2066 -0.1990
53377W        W96368  27.257   0.221  24.298 -0.2225  0.0129  0.2042
53378W        W96369   8.333   1.612  23.355  0.0349  0.4826 -0.1440
53379W        W96370   9.331  31.668  19.591 -0.2645 -0.0467 -0.2114
53380W        W96371  29.575   0.702  14.541 -0.0507 -0.2666 -0.1676
53381W        W96372  19.203   0.343  22.048  0.0283  0.0447  0.2423
53382W        W96373  22.678   0.202  23.952  0.0491  0.0237  0.0927
53383W        W96374  12.883  13.522  14.711  0.2320  0.2462  0.0825
53384W        W96375   2.248  10.365  27.277 -0.0527 -0.1787  0.0849
53385W        W96376  14.111  34.770  21.112 -0.1201  0.0042 -0.1868
53386W        W96377  17.197   2.359  19.552 -0.2285 -0.1155  0.4732
53387W        W96378   3.317  10.811  20.977 -0.0923 -0.0916 -0.0618
53388W        W96379   8.582  12.775   3.657 -0.0133  0.0345 -0.0673
53389W        W96380  15.635  10.381  14.946 -0.2729  0.0292 -0.1837
53390W        W96381  13.347   6.047  24.135  0.0566 -0.2106  0.1661
53391W        W96382  34.453   3.726  17.375 -0.2458  0.2350  0.0760
53392W        W96383   8.824   4.158  19.445 -0.3528  0.1945  0.3872
53393W        W96384   3.273  12.939  14.967 -0.1223  0.2147 -0.2212
53394W        W96385  11.907  12.631   4.493 -0.0782 -0.0750  0.3223
53395W        W96386   2.720   7.782  17.808 -0.1976  0.2625 -0.3369
53396W        W96387   1.556  33.584  22.220  0.1499  0.1411 -0.2691
53397W        W96388   1.435   3.483   1.619  0.3183 -0.1726  0.0083
53398W        W96389  33.637  10.532  18.664  0.3671  0.2202 -0.2106
53399W        W96390   7.351  12.013  18.077  0.0968 -0.1285 -0.0002
53400W        W96391  14.141  10.874  17.022 -0.0072 -0.1330 -0.1410
53401W        W96392   8.523   6.800  20.636 -0.3806 -0.1692 -0.3271
53402W        W96393  16.106   7.420  18.115  0.3148 -0.0945 -0.0592
53403W        W96394  21.623  31.817  14.519  0.0765 -0.2727 -0.0784
53404W        W96395  14.331  26.375  23.986  0.1056 -0.1353 -0.1952
53405W        W96396   6.255  10.258  24.033  0.1760  0.0295 -0.2551
53406W        W96397  23.656   2.395  18.158  0.0112 -0.4103  0.0294
53407W        W96398   5.029  33.266  25.708 -0.3241 -0.2149 -0.2427
53408W        W96399   4.517   1.542  21.007 -0.0835  0.1766  0.0867
53409W        W96400  10.577   2.632  28.455 -0.0330 -0.1128 -0.4668
53410W        W96401  12.630   8.225  22.285 -0.3247  0.4401  0.0532
53411W        W96402   7.420  10.212  18.476 -0.1120 -0.1020  0.3775
53412W        W96403  14.389   7.060  16.560 -0.1451  0.1519  0.0607
53413W        W96404  17.515  26.869  21.754 -0.1923  0.1763 -0.1459
53414W        W96405  22.380   9.748  23.557 -0.3256  0.2137 -0.4406
53415W        W96406  31.280  17.930  21.879  0.1451  0.1570  0.0339
53416W        W96407   6.232  18.480  19.100 -0.0857 -0.2328 -0.1126
53417W        W96408  10.834   7.095  23.455 -0.0567  0.1307  0.1347
53418W        W96409  21.890   7.879  18.748  0.0072 -0.1826 -0.4199
53419W        W96410   2.209   1.510  19.095 -0.0777  0.0251  0.0358
53420W        W96411  32.921  10.261  21.899 -0.2014  0.1237 -0.0273
53421W        W96412   8.701  32.236  16.856 -0.0306  0.2745 -0.2501
53422W        W96413   7.485  28.178  22.213 -0.0542 -0.0733 -0.2911
53423W        W96414  29.028   9.454  14.618  0.0934 -0.0621  0.1826
53424W        W96415  28.300  20.642  20.173  0.0382  0.0633  0.2543
53425W        W96416  17.220  28.323  28.509 -0.1296 -0.0457  0.0282
53426W        W96417  27.130  10.841  14.042  0.1737  0.2947 -0.2393
53427W        W96418  32.664  13.324  22.959  0.5971 -0.0914  0.0240
53428W        W96419  25.231   1.357  27.433  0.2602  0.1656  0.2221
53429W        W96420  14.790  29.361   0.496  0.0897 -0.1774 -0.0031
53430W        W96421   4.057  28.925  16.725 -0.2723 -0.2518  0.0561
53431W        W96422  10.430  19.948  14.077  0.0512  0.0529  0.0206
53432W        W96423  17.078  22.301  19.878  0.1914 -0.1925 -0.0951
53433W        W96424   4.285  25.209  17.596  0.2423  0.1325 -0.2524
53434W        W96425   3.514  13.257  21.061 -0.1740 -0.2343  0.1293
53435W        W96426   3.446  11.645  16.754  0.0905  0.2155 -0.1106
53436W        W96427  12.907  13.697  28.088  0.2199 -0.3457 -0.1320
53437W        W96428  34.749   8.110  20.847  0.0101  0.0983 -0.0456
53438W        W96429   1.590  13.129  18.840 -0.0332 -0.0346  0.1236
53439W        W96430  15.341   4.539  19.340 -0.0433  0.1241 -0.2055
53440W        W96431   9.426  11.605  17.848 -0.0160 -0.2250  0.0332
53441W        W96432  27.031  13.449  22.654 -0.1322 -0.1410  0.0624
53442W        W96433  19.481  16.446  13.886 -0.1499  0.0598  0.1325
53443W        W96434  29.209   2.812  25.798 -0.0881  0.2359 -0.1407
53444W        W96435   5.369   8.364  23.213 -0.2074  0.3171  0.0365
53445W        W96436  31.592   5.503  26.427  0.1475  0.1205 -0.1408
53446W        W96437  10.402  29.507  17.652 -0.2047  0.2429 -0.1622
53447W        W96438  18.544   9.000  17.136  0.1087 -0.2250 -0.0529
53448W        W96439  11.392  18.931  21.237 -0.2011 -0.1542 -0.3636
53449W        W96440  17.962  17.079  27.623 -0.3479 -0.0469 -0.1536
53450W        W96441  18.425   2.176  23.387  0.1303 -0.0222  0.2215
53451W        W96442   0.537  23.968  16.511  0.0104 -0.0531  0.2403
53452W        W96443  19.490   0.422  17.080  0.1066  0.2624 -0.2438
53453W        W96444  12.690  19.187  14.951 -0.1914 -0.0509 -0.4629
53454W        W96445   4.763  23.536   3.367 -0.0727  0.1108  0.0865
53455W        W96446   4.841   3.873  16.279  0.1300 -0.1516  0.0246
53456W        W96447  16.686  26.656  23.800 -0.0054  0.1569  0.1352
53457W        W96448  27.241  17.936  22.781 -0.0758 -0.0022 -0.3085
53458W        W96449   2.454  27.190  26.809 -0.0027  0.0606 -0.0242
53459W        W96450  12.215  28.144   7.010 -0.3246  0.2851  0.0341
53460W        W96451  24.825   7.505  24.170  0.1187 -0.3990  0.1391
53461W        W96452  32.497  25.302  17.894  0.1916 -0.0583 -0.1828
53462W        W96453  13.880  14.421  14.474  0.0189 -0.1857 -0.0372
53463W        W96454  27.391  22.276  17.890 -0.0321 -0.2928 -0.0043
53464W        W96455  33.167   5.986  26.852  0.1971  0.1046 -0.0844
53465W        W96456  33.428   3.198   4.285 -0.3511  0.0953 -0.0888
53466W        W96457   4.980  34.419  23.056 -0.0616  0.0150 -0.3115
53467W        W96458   0.872  12.590  16.560 -0.0381  0.0025  0.1282
53468W        W96459  16.434   6.032  20.651 -0.2432  0.0728 -0.5275
53469W        W96460  11.980  33.713   9.787  0.2719 -0.0393  0.1001
53470W        W96461  22.236   3.347  15.944  0.2697  0.0749 -0.0034
53471W        W96462  28.011  24.887  20.910 -0.3527 -0.2098  0.2288
53472W        W96463  12.710  33.782  16.161 -0.1278  0.0101  0.0148
53473W        W96464  29.844  27.297  16.075  0.1213 -0.2547  0.1674
53474W        W96465  33.347  13.251  21.914  0.1535 -0.0251 -0.1248
53475W        W96466   7.141  12.658  19.759  0.1263 -0.1266 -0.1036
53476W        W96467   8.432  22.683  17.113  0.0168  0.1003  0.1612
53477W        W96468  20.699   4.945  28.084 -0.4643  0.1798  0.2850
53478W        W96469  21.637   6.860   0.007  0.0080 -0.0728 -0.0076
53479W        W96470  23.619  15.115  24.699  0.3651 -0.0568 -0.1610
53480W        W96471   8.986  12.688   0.672 -0.1056  0.0322  0.2209
53481W        W96472  11.737  22.589  14.663  0.2886  0.0436 -0.4304
53482W        W96473  13.986  11.945  18.111  0.0123  0.0379  0.3029
53483W        W96474  31.235  15.514  21.229  0.0318  0.1584 -0.1704
53484W        W96475  23.719  10.682  20.751  0.2011  0.2075 -0.2557
53485W        W96476  17.647   6.269  26.596  0.0634 -0.0534 -0.1855
53486W        W96477   7.549  26.182  23.000  0.1750  0.3778  0.3061
53487W        W96478  33.546   8.522  18.400 -0.0598  0.0573  0.1566
53488W        W96479  29.326  33.153  25.283 -0.0626  0.1240  0.2949
53489W        W96480   8.173   0.701  15.338 -0.1549 -0.0234  0.1364
53490W        W96481  19.100   0.528  21.182  0.0120  0.0124 -0.0653
53491W        W96482  24.855   2.060  18.804 -0.0990 -0.0891 -0.2195
53492W        W96483   9.272  17.609  15.685  0.4191  0.0271 -0.3943
53493W        W96484  11.800  27.987  28.576  0.2974 -0.0213  0.4272
53494W        W96485  13.973  31.460  17.740  0.1831  0.0573 -0.0140
53495W        W96486  13.168   0.328  20.747  0.3310  0.1566  0.4675
53496W        W96487  21.763  31.326  26.792 -0.1114 -0.2899  0.1179
53497W        W96488  32.995  11.891  15.633 -0.0644  0.1001  0.2149
53498W        W96489  15.100  28.234  14.814 -0.0652 -0.1028  0.0265
53499W        W96490   1.007  34.188   9.633  0.1234 -0.0772 -0.1203
53500W        W96491   3.818  27.237  28.596 -0.3261 -0.0125 -0.1819
53501W        W96492  26.305   0.081  16.434 -0.2394  0.2379 -0.3678
53502W        W96493  23.861   2.884  19.400  0.2242 -0.0605 -0.0278
53503W        W96494  12.571  11.033  20.189  0.1009 -0.1486 -0.1378
53504W        W96495  22.847  29.824  23.548  0.3240 -0.4322  0.2187
53505W        W96496  29.860  10.756  26.861 -0.0147  0.0758 -0.1037
53506W        W96497   7.206   8.464  16.130 -0.0591  0.0159  0.0326
53507W        W96498  30.423  13.586  23.964 -0.0435  0.2608 -0.0433
53508W        W96499  15.717   9.057  14.792  0.1641 -0.0347  0.0985
53509W        W96500   7.671   4.713  16.946  0.3792  0.0199  0.1181
53510W        W96501  25.065  25.565  14.856  0.0896  0.1030  0.0934
53511W        W96502  31.410  33.582  17.481  0.2448  0.1029 -0.0910
53512W        W96503  21.546  13.464  22.776 -0.1076  0.1878  0.4089
53513W        W96504  20.193  10.829  16.055  0.1884 -0.3352  0.1635
53514W        W96505   0.854  28.732  25.343  0.1565  0.2111 -0.1389
53515W        W96506   5.740  29.371   2.479 -0.0423 -0.1375  0.0899
53516W        W96507  12.892   6.380  18.944  0.1209  0.1788  0.0750
53517W        W96508  18.625  29.969  18.896  0.0125  0.0901 -0.1357
53518W        W96509  28.594  11.181  15.021 -0.0357  0.1170 -0.3181
53519W        W96510  15.954  33.938  23.731  0.0392 -0.1346  0.0864
53520W        W96511  31.540  17.970  21.448 -0.2234  0.0552 -0.1641
53521W        W96512  15.302   3.948  21.068  0.0079 -0.0863  0.0380
53522W        W96513  12.996  11.080   1.828 -0.0976  0.1169 -0.2561
53523W        W96514  14.819  30.829  21.647 -0.2823 -0.1136  0.1749
53524W        W96515  17.453  30.235  25.950  0.0548  0.1361  0.1225
53525W        W96516   7.774   6.374  21.965 -0.0214 -0.1720  0.1814
53526W        W96517  22.593  24.403  19.811  0.0746 -0.4220 -0.0684
53527W        W96518   8.060   9.108   5.297  0.1634  0.1531 -0.0930
53528W        W96519   7.903   3.584  19.503 -0.0531 -0.1036  0.1673
53529W        W96520  21.720  23.432  25.265 -0.1229  0.3717 -0.0787
53530W        W96521  31.775  26.499  28.351  0.1130  0.2639  0.1283
53531W        W96522  15.955  10.454  27.015 -0.0017  0.1497  0.2630
53532W        W96523  12.610   5.113  19.613 -0.1101  0.0635  0.1993
53533W        W96524  20.922   7.776  17.878  0.1466  0.0912  0.1295
53534W        W96525   1.743   9.497  26.326  0.2182  0.0304 -0.0841
53535W        W96526  11.691  19.305  16.483  0.1858 -0.4304 -0.0769
53536W        W96527   7.341  32.763  20.262 -0.1531 -0.0837  0.3671
53537W        W96528  11.877  16.958  17.782 -0.3777 -0.0725 -0.1361
53538W        W96529  22.458  34.247  20.270 -0.0038  0.0380  0.0148
53539W        W96530   3.959   3.718  20.302  0.0831 -0.4297  0.3105
53540W        W96531  28.333  18.144  18.455 -0.3066 -0.0572 -0.2054
53541W        W96532  19.604  26.187  14.220  0.0434  0.0527  0.0802
53542W        W96533   2.206  10.905  24.687  0.2418  0.2421 -0.4002
53543W        W96534  28.862   2.581  21.006  0.3416 -0.1092 -0.1624
53544W        W96535  18.455  18.843  13.591 -0.2334 -0.1540 -0.0758
53545W        W96536  11.559  31.602  16.625 -0.0621 -0.0311  0.0495
53546W        W96537  21.949  21.965  21.443 -0.1658  0.0106 -0.0421
53547W        W96538  24.087  12.772  14.865  0.0154 -0.1835  0.2327
53548W        W96539  13.995   9.608  15.507 -0.4766 -0.0259 -0.0153
53549W        W96540  17.347  27.497  19.205 -0.1233 -0.2064  0.2306
53550W        W96541  18.710  28.480  22.633  0.4386 -0.1407  0.1567
53551W        W96542  12.673   7.300  21.555  0.0341 -0.0739 -0.2387
53552W        W96543  24.045  12.640  16.940 -0.0065  0.2619  0.0651
53553W        W96544   1.591   6.331  15.891  0.0181 -0.0016 -0.0268
53554W        W96545  32.475  24.718  15.166  0.0223 -0.0782 -0.1654
53555W        W96546  11.595   2.717  15.507  0.6636 -0.1781  0.2990
53556W        W96547   3.420  25.282  15.408  0.0951 -0.0840  0.1222
53557W        W96548  12.209  31.152  18.239  0.0285  0.0260  0.1054
53558W        W96549   8.291  12.911  24.417  0.0489  0.1775 -0.0685
53559W        W96550  26.237  31.761  26.155 -0.0796 -0.2350 -0.0909
53560W        W96551  33.086   2.923  24.219  0.0099 -0.0211  0.1529
53561W        W96552  19.193   5.474  20.678 -0.0161 -0.0188  0.2164
53562W        W96553  19.565  21.841  12.296 -0.2434  0.1194  0.1636
53563W        W96554  34.222   7.668  26.679  0.0815  0.1511 -0.3657
53564W        W96555  15.806  29.233  25.417  0.2566  0.0655  0.1243
53565W        W96556   3.887   3.154  16.728  0.0742 -0.1141 -0.2762
53566W        W96557  29.393   2.228  18.778 -0.1395 -0.0673 -0.0688
53567W        W96558   0.696   4.953  18.489 -0.0559 -0.0926  0.0926
53568W        W96559  18.544   6.499  24.160  0.1836 -0.3078  0.0578
53569W        W96560  10.665   2.378   6.329  0.4257  0.1926 -0.0071
53570W        W96561  10.191   7.180  21.847  0.0019  0.0140  0.6210
53571W        W96562  17.922   0.808  19.196 -0.0216 -0.2103 -0.0646
53572W        W96563   7.396  24.808   1.815 -0.3765 -0.3258 -0.0483
53573W        W96564  25.052  10.601  27.596 -0.1071  0.3765  0.2178
53574W        W96565  12.396   8.110  21.839 -0.0440  0.1159  0.0042
53575W        W96566  11.961  30.854  27.843  0.0668  0.1124 -0.0135
53576W        W96567  34.688  33.159  18.074  0.1579 -0.0208 -0.0682
53577W        W96568  29.176  31.232  16.529  0.1679  0.1115 -0.1471
53578W        W96569   0.061  22.612  16.532 -0.0716 -0.1640 -0.1557
53579W        W96570  10.242  17.718  15.539 -0.0535  0.0563 -0.2368
53580W        W96571   5.834   4.254  22.445  0.0944  0.0108  0.1198
53581W        W96572  15.942  12.990  21.946 -0.2345  0.0073  0.0475
53582W        W96573  11.954  30.576  16.614  0.0318 -0.0319  0.1011
53583W        W96574  18.200   4.435  15.367  0.1909 -0.2801  0.0513
53584W        W96575  21.674  31.427  18.914  0.2611  0.0782 -0.2190
53585W        W96576  22.420  17.194  14.061 -0.0382  0.0464 -0.2047
53586W        W96577   3.678   5.551  18.874  0.0719  0.1328  0.0787
53587W        W96578  30.133  33.336  20.971 -0.1751 -0.1923  0.0305
53588W        W96579  18.275  32.420  18.015  0.1283  0.1887  0.2304
53589W        W96580  17.418   3.220  15.488  0.0454  0.0361 -0.1455
53590W        W96581  14.903   4.648  23.716  0.0835  0.1043 -0.1937
53591W        W96582  30.858  12.830   1.805  0.2308  0.2541 -0.4292
53592W        W96583  30.877  32.519  14.019  0.1828  0.3604  0.0566
53593W        W96584  28.344   3.287  15.780  0.2015 -0.2660  0.2018
53594W        W96585  31.871   9.722  15.984 -0.0327 -0.0999  0.2361
53595W        W96586   7.146  25.555  17.066 -0.2322  0.0398 -0.1412
53596W        W96587   9.756   2.772  17.835 -0.2029 -0.0127 -0.0720
53597W        W96588  22.046  20.329  13.297 -0.3372 -0.1715  0.0438
53598W        W96589  19.433   8.166  14.870 -0.2522 -0.4354 -0.1156
53599W        W96590  20.081  25.921  16.306  0.0532 -0.0388 -0.3292
53600W        W96591   9.691   0.236  19.715  0.0367  0.0987 -0.1509
53601W        W96592  30.694  31.401  18.699 -0.1199 -0.0352 -0.1391
53602W        W96593  15.707   3.025   8.646  0.2237 -0.1195 -0.2860
53603W        W96594   8.394  29.794  17.791 -0.1511 -0.0577 -0.0623
53604W        W96595  17.171  11.051  16.755 -0.1838  0.0385  0.2138
53605W        W96596   5.216   7.677  28.310 -0.0375  0.2034  0.0045
53606W        W96597  10.968   9.677  22.622  0.0808 -0.1504  0.0315
53607W        W96598   4.853  33.552   6.693  0.1815 -0.1040  0.1457
53608W        W96599  11.602  25.731  15.852  0.0244 -0.1749  0.0705
53609W        W96600  28.775   9.323  27.938 -0.2239 -0.1107 -0.0300
53610W        W96601  26.316  33.792  16.007 -0.1372  0.3293 -0.1442
53611W        W96602   4.580  16.029  18.235  0.0304  0.2592  0.1262
53612W        W96603  19.323  13.394  22.633  0.2383  0.1497 -0.0250
53613W        W96604  19.448   9.424   6.116  0.0221 -0.0574 -0.1571
53614W        W96605  24.452   3.896  20.058 -0.0757 -0.1401 -0.0990
53615W        W96606  33.071  34.304  13.369 -0.0157  0.0296  0.0544
53616W        W96607  16.573  21.696  17.658  0.0722 -0.0637 -0.1640
53617W        W96608  18.941   6.930  23.552  0.0555  0.0335 -0.0015
53618W        W96609  18.057  10.868  27.247 -0.0015  0.0671  0.1088
53619W        W96610  14.822   5.009  24.733 -0.0469  0.1398  0.1856
53620W        W96611  29.405  27.441  22.843 -0.2399  0.0832 -0.0537
53621W        W96612   0.407  10.896  23.056 -0.0979  0.0702  0.0478
53622W        W96613  18.092  34.405  21.787 -0.2398  0.0382 -0.0506
53623W        W96614  23.775  29.832  20.514  0.0817 -0.1018 -0.1838
53624W        W96615  19.415   5.118  26.012 -0.1694  0.0719 -0.2419
53625W        W96616  18.805  33.679  26.492 -0.1293  0.2337  0.0378
53626W        W96617  18.643  33.909  16.831 -0.1919  0.1147 -0.0750
53627W        W96618   9.880   6.584  24.905  0.4292 -0.4604 -0.3864
53628W        W96619  20.730   6.662  16.327 -0.0089 -0.2517  0.3322
53629W        W96620  34.142   8.632  22.676 -0.0651  0.2401 -0.0301
53630W        W96621  26.951  34.636  17.707  0.0239 -0.1152  0.3156
53631W        W96622  29.516  14.324  19.933  0.2810  0.2720  0.0493
53632W        W96623  13.330  10.103  28.719  0.0946 -0.0389  0.2135
53633W        W96624  24.031   3.615  16.594 -0.1690 -0.1342  0.1715
53634W        W96625  20.607   2.101  21.992  0.0627  0.1808  0.1595
53635W        W96626  19.068   7.157   0.177 -0.1035 -0.0833  0.2271
53636W        W96627  25.200  31.995  13.010  0.0633  0.2259  0.1319
53637W        W96628  24.251   8.366  17.003  0.2075  0.1295  0.3631
53638W        W96629  18.834  31.736   8.416  0.3145  0.0999  0.1612
53639W        W96630  21.787   4.153   6.397 -0.1353  0.1218  0.1179
53640W        W96631  10.000  32.258  18.355 -0.4251  0.5279  0.0383
53641W        W96632   4.736  33.878  20.485 -0.1204 -0.1554 -0.0668
53642W        W96633  23.868  12.107  19.050 -0.0505 -0.3992 -0.1032
53643W        W96634   5.874   3.100  21.896 -0.1138 -0.0862 -0.1014
53644W        W96635  33.800  13.475  18.801 -0.3782  0.0668  0.0708
53645W        W96636   8.174  18.230  19.126 -0.1077 -0.2696  0.2252
53646W        W96637  11.058  33.778  20.814  0.0272  0.2757 -0.3583
53647W        W96638  18.227  31.433  17.086  0.2139 -0.2469 -0.0437
53648W        W96639  20.701  32.014  26.967  0.0055 -0.0021 -0.0676
53649W        W96640  17.640  18.894   6.559 -0.0376 -0.3940  0.2303
53650W        W96641   4.382  17.538  14.989 -0.0700  0.0009 -0.2732
53651W        W96642  19.533  10.054  18.047  0.0101  0.0032 -0.1848
53652W        W96643  12.972  11.311   3.322  0.2506  0.0350  0.1962
53653W        W96644  20.076   7.496  14.632  0.1505 -0.4829 -0.0596
53654W        W96645  16.960   3.986   0.438  0.1922  0.0247  0.4246
53655W        W96646   8.465  34.453  15.539  0.1240  0.0955 -0.0548
53656W        W96647  13.166   8.396  15.925  0.1097  0.2389  0.0173
53657W        W96648  17.745   7.047  22.710 -0.1984 -0.0826  0.2118
53658W        W96649  11.542  26.478  16.664 -0.3616 -0.1088 -0.0261
53659W        W96650   2.182  15.024  24.215 -0.3036 -0.0016 -0.2556
53660W        W96651  10.833  25.114  15.580  0.0834 -0.0044  0.1822
53661W        W96652  15.079  29.332  17.620  0.1758 -0.0506 -0.0875
53662W        W96653  32.835  31.941  26.305  0.1309 -0.0575  0.1419
53663W        W96654  17.490  12.417  19.616 -0.0200  0.1823 -0.0478
53664W        W96655   2.943  11.208   2.995 -0.1365  0.3032  0.0402
53665W        W96656   7.232  28.728  15.133 -0.0280 -0.1994 -0.0403
53666W        W96657  22.828  28.735  25.150  0.2049  0.0799  0.1761
53667W        W96658   6.589  32.848  27.579  0.3316  0.1503 -0.1080
53668W        W96659  33.735  14.878  23.299  0.0398 -0.4029 -0.1704
53669W        W96660   8.045   2.725  16.778  0.0511  0.1913 -0.1499
53670W        W96661   3.157  31.353  27.289 -0.0536 -0.0446  0.0712
53671W        W96662  13.021   2.406  21.556 -0.0451  0.1645  0.2870
53672W        W96663  29.090   3.908  16.223 -0.1440  0.2750  0.1652
53673W        W96664  32.656   7.375  27.656  0.1331  0.1011 -0.4433
53674W        W96665  19.122  11.142  15.929 -0.0251  0.1478  0.2483
53675W        W96666  20.623  10.760  15.170 -0.1021 -0.1860 -0.0557
53676W        W96667  21.188   6.210   0.738  0.1682 -0.1003 -0.1330
53677W        W96668  13.397  11.116  15.130 -0.1458 -0.2371 -0.2279
53678W        W96669  11.359  11.045  18.359  0.0827  0.0164  0.0884
53679W        W96670   7.391  22.169  29.164  0.0080 -0.0720 -0.1781
53680W        W96671   1.392  14.946  28.547 -0.0788 -0.0469 -0.0624
53681W        W96672  12.536  26.932  27.819  0.1772 -0.0643  0.1179
53682W        W96673  11.468   1.759  24.151 -0.4734 -0.0953 -0.2060
53683W        W96674   5.304  11.448   7.116  0.2855  0.0649 -0.0049
53684W        W96675  25.005  17.990  15.928 -0.3575  0.0704 -0.0055
53685W        W96676  30.201   6.615  16.103  0.2419  0.1682  0.0829
53686W        W96677   4.898   4.989  17.674  0.0910  0.1776  0.3202
53687W        W96678  26.267  12.700  28.510 -0.2640  0.0131  0.2537
53688W        W96679   4.233  21.476  25.133 -0.1149 -0.1115 -0.1859
53689W        W96680  13.469   3.619  15.511  0.0437  0.0603  0.0561
53690W        W96681  13.017   3.874  15.504  0.0558 -0.1803 -0.4627
53691W        W96682  14.744  32.087  15.039 -0.0805  0.0754  0.2702
53692W        W96683  29.811   8.582  27.225 -0.1503  0.1889  0.0540
53693W        W96684   7.005  24.405  14.970 -0.1444 -0.0454 -0.1672
53694W        W96685   1.830   7.411  18.870 -0.1595  0.0860 -0.1536
53695W        W96686  19.025   6.012   6.499 -0.0265  0.0689 -0.4147
53696W        W96687  33.612  27.277  21.575 -0.0237 -0.1898 -0.1335
53697W        W96688  15.362  19.581  29.177 -0.0741  0.1170 -0.0816
53698W        W96689  26.513  34.402  16.562  0.1509  0.0228 -0.0763
53699W        W96690   3.229  22.252  15.888 -0.1289 -0.1251  0.0714
53700W        W96691   4.784  18.911   0.786  0.0526  0.1796  0.2241
53701W        W96692  22.696  14.000   0.364  0.1246  0.0579 -0.0082
53702W        W96693  16.267  13.776  21.847 -0.0492  0.0242  0.0338
53703W        W96694  12.252  12.464   2.193 -0.0887 -0.0432 -0.0820
53704W        W96695  22.470  34.059   0.738  0.2463  0.2246  0.0823
53705W        W96696  32.603   5.233   1.601 -0.0545  0.1000 -0.0813
53706W        W96697  30.302   5.904  16.923  0.0057  0.3461 -0.0468
53707W        W96698  17.715  26.813  27.687 -0.0432  0.1206 -0.0697
53708W        W96699  13.899  30.636   1.182  0.1004  0.4211  0.0863
53709W        W96700  26.110   4.667  15.753 -0.0593  0.0988  0.1439
53710W        W96701  21.039   5.359  13.234  0.0690  0.1980 -0.1456
53711W        W96702  28.308   4.366  17.518  0.0046 -0.1239  0.1754
53712W        W96703  28.107  32.640  17.908  0.1904 -0.1339  0.0984
53713W        W96704  17.015   3.081  14.546 -0.1648 -0.3285  0.0630
53714W        W96705  17.129   5.621  16.238 -0.0099 -0.0393  0.1163
53715W        W96706  19.503  30.850  26.030 -0.0239 -0.2175 -0.0822
53716W        W96707  17.076   7.127  19.631 -0.2978  0.0639  0.0941
53717W        W96708  27.885  17.654  25.568 -0.1229 -0.2287 -0.1315
53718W        W96709   3.294  22.958  23.699 -0.2363 -0.0279  0.1606
53719W        W96710  27.751  15.766  22.327  0.3079  0.1449  0.0791
53720W        W96711   0.170  32.164  15.314 -0.2634  0.3484 -0.2805
53721W        W96712  12.633  12.195  22.338 -0.1424  0.0353 -0.0208
53722W        W96713  24.091   0.767  23.899  0.0802  0.0616  0.2330
53723W        W96714   5.718  29.745  27.896  0.1669 -0.1194  0.1398
53724W        W96715   4.115  28.630  27.683 -0.1986  0.2243  0.2055
53725W        W96716  15.035  16.728  25.690 -0.0331 -0.3599 -0.3270
53726W        W96717  15.641  11.205   8.092  0.2549  0.1788  0.2083
53727W        W96718   3.337  22.771  19.227 -0.4066  0.0276  0.2984
53728W        W96719  23.096  13.832  27.424  0.1617 -0.0627  0.2982
53729W        W96720  16.654  11.103  16.233  0.0099  0.1117 -0.0928
53730W        W96721   1.143  15.428   0.615  0.0649 -0.1509  0.0027
53731W        W96722  31.811  30.793  23.211 -0.0309 -0.0711  0.0787
53732W        W96723  16.830  28.601  28.304 -0.1730 -0.0443 -0.0595
53733W        W96724  15.984   0.079   0.809  0.2888  0.2274  0.1170
53734W        W96725   4.534   4.814  14.893 -0.1342 -0.1008 -0.1397
53735W        W96726  13.417   3.857  23.606 -0.0230 -0.0232 -0.0549
53736W        W96727   1.587  25.183  28.530 -0.0509 -0.1511 -0.0275
53737W        W96728  15.223   2.988   5.622  0.1646  0.0213  0.1751
53738W        W96729  17.838  32.725  26.224  0.1966  0.3520  0.1207
53739W        W96730  10.528   6.901  24.243 -0.1193  0.1114 -0.0106
53740W        W96731   1.713   5.292  16.197 -0.0487  0.1463 -0.0316
53741W        W96732   9.346   6.120  15.744  0.4337  0.0294 -0.1129
53742W        W96733  32.759  31.092  13.902  0.1239  0.2862 -0.0014
53743W        W96734  10.616   5.941  20.073 -0.0506  0.0744 -0.0602
53744W        W96735  25.661  14.907  16.789  0.1987  0.0258 -0.0464
53745W        W96736  20.512  31.603   2.350 -0.2240 -0.0269  0.2194
53746W        W96737  22.756   5.310  15.338 -0.0671 -0.0389  0.1050
53747W        W96738   1.628   0.132  14.807  0.2939 -0.2876  0.2296
53748W        W96739  17.641  32.971  19.068 -0.1879  0.2737 -0.3492
53749W        W96740   7.015   3.449  16.653 -0.2643  0.0424 -0.0944
53750W        W96741   7.680   6.668  26.366  0.2336  0.2349  0.1184
53751W        W96742   9.774   6.186   3.258 -0.2468  0.3975 -0.0335
53752W        W96743   6.693  25.112  19.829  0.0590 -0.0029  0.3200
53753W        W96744  17.469  25.362  18.459  0.5255  0.2084  0.1104
53754W        W96745  23.497  13.594  13.935  0.1172  0.0278 -0.4026
53755W        W96746   7.956   7.945  26.213 -0.1532 -0.3572 -0.0768
53756W        W96747  24.970  15.317  28.316 -0.1607  0.2301 -0.1688
53757W        W96748  16.933   4.894  25.382  0.0154 -0.1218 -0.0068
53758W        W96749   6.109  26.900  19.636  0.1248 -0.0568 -0.0928
53759W        W96750  17.220  11.192  21.655 -0.1403  0.2559  0.0011
53760W        W96751  28.163  30.999  26.079 -0.3959 -0.3292 -0.2392
53761W        W96752  17.253  33.118  27.476  0.0458  0.0465 -0.0240
53762W        W96753  11.549   6.307  15.411  0.0083  0.2195  0.0738
53763W        W96754  14.670   8.469  16.413  0.1712  0.0650  0.0028
53764W        W96755   4.720  12.828  27.935  0.4358 -0.2055  0.0767
53765W        W96756  16.511   4.927   2.338 -0.1756  0.1064  0.1833
53766W        W96757  24.059  29.478   3.913 -0.2988 -0.0772  0.0411
53767W        W96758  22.648  27.987  28.400  0.1069 -0.2023 -0.1388
53768W        W96759  14.211   6.204  19.482 -0.2169 -0.1199  0.1967
53769W        W96760  11.858   6.065   1.346 -0.0779  0.1800  0.1398
53770W        W96761  12.592  15.292  23.444 -0.2384 -0.1201  0.0852
53771W        W96762  27.910   4.548  16.860  0.2646 -0.2790 -0.0354
53772W        W96763   8.464  29.116  15.100 -0.1582  0.0629  0.2501
53773W        W96764  22.739   9.650  14.686 -0.0883 -0.1539  0.0240
53774W        W96765   7.413   8.302  23.676 -0.1546  0.0346 -0.0222
53775W        W96766  26.818  27.722  15.786  0.1842  0.1407  0.0605
53776W        W96767  21.192   8.440  19.141  0.1184 -0.2990 -0.0330
53777W        W96768  20.730  17.893   6.090 -0.2069 -0.0149  0.0338
53778W        W96769  26.469  20.430  21.939 -0.1209 -0.1028 -0.1560
53779W        W96770   4.050   4.598  25.079 -0.1549  0.2203 -0.1550
53780W        W96771   3.572   4.711  24.851  0.2503  0.2297 -0.0395
53781W        W96772  13.895   0.078  28.081  0.1163 -0.0462 -0.0588
53782W        W96773  15.039  15.602  24.963  0.1316 -0.1460  0.0143
53783W        W96774   8.164   2.833  17.769 -0.2070 -0.1255 -0.1593
53784W        W96775   0.101  34.612  20.341  0.0138 -0.4192  0.2191
53785W        W96776   6.525  10.831  17.834 -0.1639  0.0280  0.7156
53786W        W96777  20.074  27.355  23.801  0.1774  0.3374  0.3628
53787W        W96778  21.626   8.403   6.183 -0.0079  0.1296 -0.2054
53788W        W96779  13.226  15.199  14.323 -0.1349  0.0792 -0.1696
53789W        W96780  33.073   5.651   4.034  0.3067  0.4379  0.1628
53790W        W96781  12.484  33.751  19.946  0.3757  0.0383  0.0902
53791W        W96782  19.770   3.997  15.297  0.0573  0.1261 -0.1912
53792W        W96783  24.214   8.272  18.846  0.1188 -0.0994 -0.1103
53793W        W96784  32.972  24.741  25.427  0.0626 -0.3523 -0.1967
53794W        W96785  14.768   2.124  21.143 -0.0141  0.1270  0.2477
53795W        W96786   8.795   5.354  15.331 -0.0637  0.1127  0.1864
53796W        W96787  29.418  14.569  18.645 -0.1422 -0.0466  0.1662
53797W        W96788  25.395   2.730  20.715 -0.0743  0.2413  0.1230
53798W        W96789   8.889  25.143  16.751 -0.0290 -0.0138  0.0422
53799W        W96790  21.300  11.094  18.220 -0.1117  0.0189  0.1144
53800W        W96791   3.240  25.741  22.319  0.1617 -0.0452 -0.1930
53801W        W96792  34.261   9.524   5.181 -0.2960  0.4609 -0.1007
53802W        W96793   9.249  22.701  23.570  0.2253  0.2551 -0.0840
53803W        W96794   9.234   7.918  24.063 -0.0382 -0.3186 -0.1160
53804W        W96795   1.991   1.792  17.685 -0.0998 -0.0340  0.1404
53805W        W96796   8.536  21.317  27.996  0.0068 -0.0431 -0.0211
53806W        W96797   6.131  12.688  17.954 -0.3639 -0.3645 -0.0544
53807W        W96798  24.301  30.136  21.321 -0.1141  0.3905  0.0573
53808W        W96799  16.655  22.846  21.720 -0.4420 -0.1332  0.0888
53809W        W96800  23.555  13.820  27.808  0.1187 -0.0945 -0.1175
53810W        W96801  17.898   5.012  26.852  0.2756  0.2134 -0.0173
53811W        W96802  30.461  12.333  17.637  0.1698  0.0769  0.2165
53812W        W96803  32.090  34.378  14.339 -0.0919 -0.2649 -0.0716
53813W        W96804   6.664   6.677  15.388 -0.0908 -0.2202 -0.0349
53814W        W96805  23.826  11.511  16.304  0.1786 -0.3242 -0.3052
53815W        W96806  32.487   5.676  22.451  0.0577 -0.1071 -0.1864
53816W        W96807  22.255  14.998  16.812  0.0838 -0.1787  0.4180
53817W        W96808  16.926  33.337  18.536  0.1553 -0.2427 -0.0376
53818W        W96809  23.777  30.678  13.473 -0.0474 -0.2218 -0.0016
53819W        W96810   9.926  18.074  17.053 -0.2228 -0.2298 -0.3740
53820W        W96811  15.686   3.082  26.218 -0.0369 -0.2139 -0.0775
53821W        W96812  11.315  32.150  24.380  0.0526  0.1495 -0.6266
53822W        W96813   6.265  32.071  21.780  0.0517  0.1025 -0.1012
53823W        W96814   9.229   4.441  16.201 -0.1897  0.1989  0.2759
53824W        W96815  17.989  22.469  23.911  0.0805 -0.2335  0.2236
53825W        W96816   9.490  10.260  15.640  0.0214 -0.0152  0.0753
53826W        W96817   9.674   7.149  15.881  0.2912  0.0404  0.0030
53827W        W96818   3.992  10.662  23.215  0.3783 -0.0268  0.0891
53828W        W96819   3.185   1.105  26.294  0.1252  0.0611 -0.0048
53829W        W96820  15.490   4.159  17.384  0.1695  0.0729  0.0649
53830W        W96821  15.238  11.952  24.205  0.3533  0.1802  0.1189
53831W        W96822   6.255   2.533  24.118 -0.2895 -0.2348  0.0174
53832W        W96823  13.429  27.500  25.097 -0.0961 -0.1258  0.0114
53833W        W96824   7.679  21.033  16.918 -0.1493 -0.5174  0.0554
53834W        W96825  34.043   3.986  16.708  0.1225 -0.1396  0.0912
53835W        W96826   7.692   0.787   1.575  0.0337 -0.0994 -0.1328
53836W        W96827   4.431  33.752  27.202 -0.0168  0.2888 -0.0373
53837W        W96828  14.587  20.632  16.222 -0.1895  0.1503  0.0345
53838W        W96829  20.110   4.349  25.083  0.0153 -0.0491 -0.0359
53839W        W96830   6.774  18.678  19.989 -0.2438 -0.0567  0.1558
53840W        W96831   6.759  16.146   0.810  0.2463 -0.0171 -0.0351
53841W        W96832   2.105   6.522  18.478  0.2069 -0.1021 -0.0029
53842W        W96833  21.262  27.665  23.997  0.0658  0.0918 -0.0596
53843W        W96834   4.295  34.777  17.557  0.3666 -0.1984 -0.3772
53844W        W96835  12.432  34.746  16.068  0.1019  0.0046  0.0967
53845W        W96836  11.032  30.547  15.862 -0.3132  0.2564 -0.1310
53846W        W96837  32.640   9.845  20.085 -0.1132 -0.0684  0.2415
53847W        W96838  29.021  16.023  15.465 -0.3784  0.1536 -0.0528
53848W        W96839  26.611   7.296  22.235  0.1995  0.2767  0.1149
53849W        W96840   7.155  31.675  28.033  0.0992 -0.2105 -0.0306
53850W        W96841  23.985   6.897  15.028  0.1535 -0.0414 -0.0433
53851W        W96842  34.405  19.013   3.409 -0.2301  0.0320  0.0535
53852W        W96843  27.859  14.149  27.679 -0.2490 -0.0975 -0.2411
53853W        W96844  12.891  13.399  25.842  0.0288 -0.1806 -0.0652
53854W        W96845  11.145   9.433  17.636 -0.0418  0.5255  0.3542
53855W        W96846  13.202   1.373   3.379 -0.0176 -0.0585 -0.0498
53856W        W96847  14.809  11.732  18.802 -0.1043 -0.0909  0.0615
53857W        W96848  13.335  22.989  24.906 -0.0691  0.4240  0.1001
53858W        W96849  30.472   7.132  15.472  0.1839  0.1100 -0.0201
53859W        W96850  22.063  29.171  23.980 -0.1674 -0.0037  0.0388
53860W        W96851   5.326   7.855  17.654 -0.4329  0.2059 -0.2863
53861W        W96852  12.657  13.457  26.757 -0.3839  0.3576  0.1194
53862W        W96853  15.066  24.459  15.326  0.1648  0.1098 -0.2150
53863W        W96854  12.209  12.159  23.344 -0.1401 -0.0859  0.2179
53864W        W96855  14.150   3.455  23.391 -0.0343 -0.1021  0.1589
53865W        W96856  11.242   7.111  15.894  0.1354 -0.0609  0.0796
53866W        W96857   0.804  33.301  20.027 -0.2396 -0.0539 -0.1717
53867W        W96858  23.081   3.377  18.954 -0.0754  0.0741 -0.1514
53868W        W96859  12.176  17.460  15.095  0.1750  0.0361  0.4016
53869W        W96860  16.731  11.492  17.637  0.0571  0.2331  0.1776
53870W        W96861  15.963  11.762  20.501  0.0290 -0.0888 -0.0295
53871W        W96862  25.822  10.161  14.281  0.0778 -0.0379 -0.2980
53872W        W96863  13.368   2.869   5.474  0.1754 -0.1606 -0.1356
53873W        W96864   9.491  13.286  28.136  0.4555 -0.1128  0.1506
53874W        W96865  22.924   4.239  17.794  0.0227 -0.0232  0.0537
53875W        W96866   6.622  12.158  17.711  0.3080  0.1095 -0.0930
53876W        W96867  20.109  32.531  15.093 -0.0688  0.0349 -0.2043
53877W        W96868  24.138  10.252  18.432 -0.2180 -0.3999 -0.3165
53878W        W96869  20.251  11.633  14.833  0.0208  0.2052 -0.1891
53879W        W96870  10.224  20.677  21.411  0.0277 -0.3424  0.0612
53880W        W96871  22.247  33.250  27.094 -0.1911  0.1800 -0.4176
53881W        W96872   5.282  15.350   1.633  0.1429 -0.2633  0.1860
53882W        W96873   3.392   8.908   5.147 -0.0476 -0.0466  0.4435
53883W        W96874   5.965  31.701  23.044 -0.0465 -0.1469  0.3791
53884W        W96875  16.954  18.032  14.968  0.2174  0.1863 -0.2244
53885W        W96876  20.194  20.142  18.002 -0.0200  0.0569 -0.2329
53886W        W96877   3.296  32.401  25.542  0.1056 -0.0508 -0.3327
53887W        W96878   7.399  26.912   7.110  0.1468 -0.0796 -0.0396
53888W        W96879   3.966  32.473   6.116 -0.3013 -0.2113 -0.3875
53889W        W96880  22.253  16.335   2.152  0.0751 -0.4518 -0.0103
53890W        W96881  14.213  22.636  13.649  0.1414 -0.0193 -0.3292
53891W        W96882   2.460   5.882  20.166 -0.3172 -0.0799 -0.0688
53892W        W96883  31.940   7.775   0.980 -0.2675 -0.0084 -0.1163
53893W        W96884   9.108   8.702  23.756  0.0580  0.0605  0.2224
53894W        W96885  20.002   6.812   4.250  0.1197 -0.2463  0.0328
53895W        W96886  18.703   9.101  14.265  0.0589 -0.0352  0.1297
53896W        W96887  10.968  33.072  17.705 -0.3401 -0.0707 -0.2778
53897W        W96888   7.153  27.538  15.298 -0.0739  0.0312 -0.2150
53898W        W96889  22.215  18.803  19.762  0.0459  0.0816  0.5032
53899W        W96890  32.331  13.242  21.503 -0.0854 -0.0007 -0.0269
53900W        W96891  23.866   9.089  18.413  0.1444  0.0595 -0.2737
53901W        W96892   5.085   7.018  16.756  0.2620 -0.0376 -0.1698
53902W        W96893  32.914  12.604   2.192  0.0242 -0.3028  0.0874
53903W        W96894  30.046   5.351  14.790 -0.0595  0.1756 -0.0573
53904W        W96895  11.397  13.723  23.803 -0.2051  0.4746 -0.1236
53905W        W96896  14.274  11.722  15.441  0.1505 -0.2376  0.0850
53906W        W96897   0.831  33.574   0.550  0.1211  0.0185 -0.0785
53907W        W96898  31.925   9.790  20.571 -0.1598 -0.0896 -0.2367
53908W        W96899  19.178  27.128  22.753 -0.2573  0.2775 -0.1351
53909W        W96900  30.681  32.856   6.120  0.0677  0.0095 -0.1851
53910W        W96901  17.639  12.227  27.261 -0.0765 -0.0985 -0.0353
53911W        W96902  31.597  33.389   3.825 -0.1721 -0.0818 -0.0703
53912W        W96903   6.580   4.538  20.438 -0.3494 -0.2658 -0.0330
53913W        W96904  22.899  19.716  25.283 -0.1074 -0.1777  0.1111
53914W        W96905   7.341  11.014   1.923 -0.0571 -0.1097 -0.3077
53915W        W96906   9.618   8.300  21.223  0.4185  0.1626  0.1784
53916W        W96907  20.102   9.474  20.609 -0.0727  0.0017  0.4083
53917W        W96908  18.277   4.721  16.860  0.1395  0.1973  0.0090
53918W        W96909   8.940  19.471  18.814 -0.3299 -0.0210  0.2002
53919W        W96910   5.261  15.804   2.486 -0.0788  0.0148  0.0471
53920W        W96911  22.401  27.631  24.064  0.2190 -0.0017 -0.0949
53921W        W96912  15.624  20.909  21.519  0.3051 -0.1567  0.0495
53922W        W96913  21.281  24.971  14.773  0.1854  0.1583 -0.0119
53923W        W96914  10.485   6.431  18.937 -0.0083 -0.0283  0.4846
53924W        W96915   8.956  16.469  19.748  0.1595  0.1278 -0.3447
53925W        W96916  24.786   3.648  17.302 -0.2228 -0.2355  0.0997
53926W        W96917  10.345  33.487   3.248  0.1386 -0.4318 -0.0224
53927W        W96918  11.945  31.362  20.083 -0.3241 -0.1084  0.0336
53928W        W96919  15.688   8.869  15.661  0.0222  0.2678 -0.0440
53929W        W96920   0.394  26.487  15.999 -0.1795 -0.0545 -0.0677
53930W        W96921  22.690   5.314  21.042  0.3511 -0.2811 -0.0653
53931W        W96922  14.539  28.911  20.468 -0.1513 -0.1036  0.1364
53932W        W96923  13.858   3.423  28.642  0.2103  0.0978 -0.3355
53933W        W96924   4.175   6.607   0.578 -0.0554 -0.1138 -0.1101
53934W        W96925  21.232  27.308  28.049  0.1880 -0.0391  0.2939
53935W        W96926   7.535   3.481  16.749  0.0162 -0.0609 -0.1844
53936W        W96927  16.042  33.835  18.398  0.1019  0.0331 -0.0381
53937W        W96928   8.446  15.079  20.230  0.2818 -0.2842  0.0498
53938W        W96929   7.099   7.974  23.307 -0.3306 -0.1276 -0.1996
53939W        W96930  16.461  28.955  23.402 -0.1300  0.3327 -0.0262
53940W        W96931  18.801  32.499   2.957 -0.0758  0.4587 -0.2121
53941W        W96932  20.954  26.073  15.552 -0.0859  0.3499 -0.1162
53942W        W96933  20.584  33.267  27.134  0.2540  0.1623 -0.1771
53943W        W96934  24.893   5.622  19.841  0.0930  0.2258  0.3128
53944W        W96935   1.669   7.786  15.850  0.4929  0.0775  0.1236
53945W        W96936  32.603  20.248  15.139  0.2670  0.0715 -0.1156
53946W        W96937   5.343  31.865  20.716 -0.2379 -0.0622 -0.1203
53947W        W96938  26.684   4.205   5.783 -0.0235  0.2253 -0.0876
53948W        W96939  10.629   3.045  23.761  0.0681  0.0221  0.0536
53949W        W96940   7.327  21.063  24.432 -0.4909  0.0445 -0.0679
53950W        W96941   4.256  21.342  15.317 -0.0580 -0.0773 -0.0458
53951W        W96942  11.994  33.103  25.096  0.2932  0.1230 -0.0973
53952W        W96943  18.105  11.527  24.218 -0.2827 -0.0467  0.0896
53953W        W96944  21.033   0.730  19.668  0.0861 -0.1139 -0.0176
53954W        W96945  15.716  24.912   1.708 -0.0359 -0.0686  0.1142
53955W        W96946  11.568   4.315  23.123 -0.1510  0.0640 -0.1994
53956W        W96947  17.049   3.700  15.854 -0.1679  0.4604 -0.2739
53957W        W96948   5.217  34.701  15.467 -0.0369  0.0762 -0.0596
53958W        W96949  29.358  16.035   5.876  0.2836 -0.3192 -0.1299
53959W        W96950   6.941   6.650  21.308 -0.1585  0.0230 -0.0246
53960W        W96951  13.861  16.530   8.627 -0.2325  0.2125  0.0258
53961W        W96952  22.092  14.109  21.617 -0.0708  0.1960  0.0116
53962W        W96953  25.437   8.275  19.448  0.0454  0.1578 -0.2860
53963W        W96954   2.445  17.738  10.231  0.0301 -0.2121 -0.1876
53964W        W96955  14.409  10.454  22.904 -0.2751 -0.0241 -0.1834
53965W        W96956  16.724  30.575  19.364 -0.1498  0.3076  0.1267
53966W        W96957  20.687  27.940  19.441  0.0937  0.1714  0.0747
53967W        W96958  10.986  33.269  15.527  0.0222  0.1238  0.1422
53968W        W96959  28.032   0.864  18.551  0.2872  0.1990 -0.5151
53969W        W96960  34.195   9.529  25.955  0.1939 -0.2271 -0.0206
53970W        W96961   0.020  21.264  19.581 -0.2184  0.0689  0.1061
53971W        W96962   2.941  29.574  24.839 -0.2531  0.0252  0.2028
53972W        W96963   0.988  34.794  19.282 -0.0329 -0.2058 -0.0962
53973W        W96964  29.935   8.640  14.723 -0.1789 -0.0284 -0.3655
53974W        W96965  19.535   7.101  18.879 -0.0988  0.2684  0.0414
53975W        W96966   9.956   6.647   0.852 -0.2884 -0.1889 -0.3020
53976W        W96967   6.803  32.430  15.278  0.0613  0.0259 -0.2499
53977W        W96968  15.450  10.103  14.007  0.0562  0.0318 -0.0225
53978W        W96969  12.854  34.738  20.989  0.3135 -0.1176  0.2216
53979W        W96970   9.469   9.944  16.412  0.2287  0.0938  0.1254
53980W        W96971   8.767  31.632   9.379  0.1332  0.0666 -0.0533
53981W        W96972  19.284   6.806  29.161 -0.0302 -0.2899 -0.2420
53982W        W96973   1.113   0.132  18.693 -0.0491  0.1492  0.0297
53983W        W96974  33.357   4.476  17.150 -0.3014  0.0480  0.0884
53984W        W96975  15.620  13.777  13.977 -0.1561 -0.1356 -0.0461
53985W        W96976  15.215   7.025  17.587 -0.2276 -0.0184 -0.1686
53986W        W96977  19.234   5.836  23.043  0.0486 -0.2890  0.0112
53987W        W96978  18.766   4.824  15.693  0.3503 -0.0860 -0.0295
53988W        W96979   9.580   0.379  24.381  0.0415 -0.0896  0.1248
53989W        W96980  10.264  11.781  16.187  0.1143  0.0506 -0.0059
53990W        W96981  20.152  15.324  27.045  0.3732  0.0705 -0.0090
53991W        W96982  19.279  34.318   9.231 -0.2069 -0.2507 -0.2956
53992W        W96983  31.362  16.528  27.608  0.2596  0.1362 -0.1505
53993W        W96984  21.996   6.455  22.515  0.3890 -0.0056  0.2180
53994W        W96985  15.813  10.503  22.132  0.0250  0.0363  0.0917
53995W        W96986  12.476  34.762  15.093  0.2981 -0.0864 -0.1203
53996W        W96987  19.587  11.400  23.300 -0.0281  0.0046  0.1129
53997W        W96988  26.168   1.561  14.608 -0.0041  0.1176 -0.2592
53998W        W96989  28.927   8.579  14.453 -0.3425 -0.1384 -0.0120
53999W        W96990  26.117   9.764   1.929 -0.3198  0.1037  0.0216
54000W        W96991   4.161   3.828  18.300  0.1875 -0.1059 -0.1800
54001W        W96992   8.444   9.775  14.730  0.0935  0.0231 -0.1984
54002W        W96993  21.422   4.205  20.906 -0.1028 -0.0484  0.2616
54003W        W96994  10.211  24.246   7.968  0.0551  0.1925  0.1687
54004W        W96995   2.675  19.247  28.891  0.1782 -0.1015 -0.0908
54005W        W96996   7.685  12.111   4.583  0.4101  0.4105  0.3925
54006W        W96997  13.183  31.989   4.794  0.0845 -0.3854  0.1807
54007W        W96998  14.775  10.293  25.104 -0.0836  0.2161  0.3218
54008W        W96999   8.716  26.787   6.651 -0.0376 -0.1170  0.0750
54009W        W97000  12.394  28.941   0.457  0.1891  0.0068 -0.1164
54010W        W97001  12.504   8.713  20.553 -0.0488  0.2379  0.0263
54011W        W97002  15.546   0.187  25.769  0.0862 -0.0097  0.1384
54012W        W97003   9.316   0.824  22.168  0.3179  0.0201 -0.2090
54013W        W97004   9.751  32.377  28.015 -0.0081 -0.0452  0.2074
54014W        W97005  11.124   5.319  23.563 -0.1032  0.1169  0.0478
54015W        W97006  25.371   5.771  19.713  0.0536 -0.3261  0.1420
54016W        W97007  13.139  30.911  18.173 -0.3587  0.0196 -0.1249
54017W        W97008   8.822   6.163   1.558 -0.0711 -0.0560 -0.0840
54018W        W97009   4.641  11.889  28.823 -0.0484  0.0521  0.2326
54019W        W97010   7.257   2.997  14.754  0.1295  0.1001 -0.0208
54020W        W97011  23.445   2.890  24.020  0.0330 -0.0205  0.2438
54021W        W97012  27.852  26.079  13.299 -0.0497 -0.0428  0.1408
54022W        W97013   9.658   3.780   2.518  0.1838  0.2331  0.0999
54023W        W97014  31.087  14.416  23.096 -0.0423  0.4375  0.1689
54024W        W97015  31.334  31.235  20.072  0.0425 -0.0829 -0.0262
54025W        W97016  20.448   7.823  20.655  0.0641  0.3139  0.5957
54026W        W97017   9.616   5.545  25.631 -0.3005  0.0984  0.0631
54027W        W97018   5.429   5.828  24.588 -0.1883 -0.0009  0.1874
54028W        W97019  25.941  32.447  27.769 -0.0162 -0.0420  0.0484
54029W        W97020   7.103  20.491  14.724  0.4030  0.2310 -0.0526
54030W        W97021  14.448  28.500  14.209  0.2234 -0.2467  0.0428
54031W        W97022   9.705   6.432  20.412  0.0558 -0.3081 -0.3436
54032W        W97023  17.636   5.159  15.636 -0.4324 -0.3940 -0.2514
54033W        W97024  19.565   8.318  25.205  0.0859 -0.1001  0.1010
54034W        W97025  22.922  12.045  19.186  0.2961 -0.2863  0.0016
54035W        W97026  30.075  31.258  26.673 -0.2258  0.0043 -0.3216
54036W        W97027  29.474   0.148  14.874 -0.1361 -0.1730  0.2877
54037W        W97028   9.103   1.352   6.348 -0.3145 -0.2256  0.3178
54038W        W97029  20.436   6.137  28.162 -0.0009  0.0510 -0.0628
54039W        W97030  13.301  26.929  18.417  0.0830  0.3224 -0.1980
54040W        W97031  30.833   4.100   3.335  0.0874  0.0173  0.0305
54041W        W97032   2.802   6.582  16.513  0.1542 -0.1712 -0.0946
54042W        W97033  20.137   2.810  15.281 -0.3559  0.0298 -0.0080
54043W        W97034  24.630  11.649  23.779 -0.4574 -0.1877 -0.2068
54044W        W97035   3.366  12.483   3.831 -0.0508  0.2120  0.0665
54045W        W97036   2.712   1.244  26.012  0.0541 -0.0367 -0.0335
54046W        W97037   9.796   4.336  19.282  0.0520  0.2525 -0.2186
54047W        W97038   2.078  30.178  27.649  0.1227  0.3242 -0.2467
54048W        W97039   1.427  13.742  25.484  0.1278 -0.1117 -0.1704
54049W        W97040  30.505  11.538  20.246 -0.2884  0.2549  0.0794
54050W        W97041  26.223   7.335  21.142 -0.0908 -0.0845 -0.0609
54051W        W97042   7.233  15.526  24.184  0.0291 -0.0299  0.1354
54052W        W97043  21.069  28.637  25.707  0.0135 -0.0935  0.0253
54053W        W97044  31.141  19.254  23.241  0.0772  0.1135 -0.2257
54054W        W97045  19.408   4.768  14.213 -0.0304 -0.1347 -0.3198
54055W        W97046   9.569  18.613   5.536  0.0704 -0.0923 -0.0685
54056W        W97047   6.356  27.427  28.729  0.0966  0.3650  0.0846
54057W        W97048  32.548   2.938  19.405 -0.1303 -0.4414 -0.1429
54058W        W97049   5.740   8.359  28.100  0.6042  0.0261 -0.1122
54059W        W97050  16.752  16.179  13.472  0.1509  0.2408  0.1970
54060W        W97051  17.034  34.336   1.414 -0.2120 -0.0047 -0.0341
54061W        W97052  31.970   2.704  16.288 -0.2608 -0.2761  0.1652
54062W        W97053   9.979  12.592  17.276 -0.0563 -0.1350  0.2270
54063W        W97054  13.347   0.311  27.320  0.1075  0.0599 -0.0050
54064W        W97055   4.645   6.144  23.392 -0.1766  0.3640 -0.1035
54065W        W97056  25.848  23.879   4.518 -0.1415 -0.2520 -0.0268
54066W        W97057  22.334  19.828  18.888 -0.1896  0.1736 -0.2694
54067W        W97058  18.219   7.150  22.374  0.1601 -0.0342  0.0239
54068W        W97059  34.111  10.860  23.164 -0.1187  0.0662 -0.0289
54069W        W97060  20.773   2.270  14.525  0.0534  0.1128  0.0418
54070W        W97061   6.451   9.298  16.708 -0.2520  0.2361  0.2835
54071W        W97062  24.362  12.539  21.254  0.1796 -0.1402  0.1815
54072W        W97063  26.719  24.793  20.971 -0.0061  0.0057 -0.2227
54073W        W97064  12.532  32.755  18.163  0.1001 -0.3387  0.0451
54074W        W97065  31.098  14.356  22.577 -0.0214 -0.0093  0.0891
54075W        W97066  17.843  31.057  23.323 -0.0630 -0.0775 -0.1066
54076W        W97067  25.159   3.207  17.457 -0.0257  0.1074 -0.0659
54077W        W97068  23.492  15.974   4.028  0.0452  0.0758  0.1697
54078W        W97069  12.472   5.549  19.813 -0.0319  0.1433  0.1580
54079W        W97070  24.798   3.318   5.322 -0.1249 -0.3406  0.1869
54080W        W97071  22.461  33.844   6.353  0.3760  0.0135  0.2640
54081W        W97072  29.603  17.732  25.212 -0.2971 -0.1565  0.0316
54082W        W97073  32.454   7.556  24.599  0.1204  0.1168 -0.0074
54083W        W97074  17.095  33.791   8.940 -0.0484  0.2371  0.3940
54084W        W97075   6.210   8.822   1.167  0.4152 -0.0561 -0.0527
54085W        W97076  30.779   6.578  23.515 -0.0078 -0.2267 -0.0215
54086W        W97077  19.021  10.810   0.945 -0.0727 -0.1680  0.1842
54087W        W97078   1.990   2.613  27.240 -0.0468 -0.0169 -0.1513
54088W        W97079  20.588   0.172   0.306  0.2868  0.1374 -0.2928
54089W        W97080  14.137  29.715  25.110 -0.0115  0.0213  0.1661
54090W        W97081   0.591   3.190  18.517  0.0571 -0.0131  0.1458
54091W        W97082  14.147   5.559  24.786  0.2213 -0.1000 -0.1329
54092W        W97083  12.779  11.001   7.061  0.1662 -0.1094 -0.2952
54093W        W97084  25.154  24.695   1.791 -0.1657 -0.1649 -0.0708
54094W        W97085   4.272   4.675  18.351 -0.1359  0.0657  0.1563
54095W        W97086  31.461  18.773  28.862  0.2066 -0.1583 -0.0258
54096W        W97087  21.591   8.772   4.239  0.1707  0.1163  0.2260
54097W        W97088  11.437   5.611  18.093 -0.0360  0.0189 -0.2312
54098W        W97089   5.027   8.440  20.621  0.0438  0.1232 -0.3304
54099W        W97090   9.103   8.147   9.524 -0.0892 -0.1803  0.1013
54100W        W97091  11.455   2.372  25.429  0.3583 -0.1922 -0.2492
54101W        W97092  10.498   3.447  23.311  0.0266  0.1121  0.0207
54102W        W97093  12.237  12.538  17.722 -0.0457 -0.1204 -0.0393
54103W        W97094  14.323   4.620  21.899 -0.0030 -0.0294  0.1312
54104W        W97095   3.627  30.634  16.519 -0.1211  0.2400  0.1011
54105W        W97096  21.202   0.336  17.927 -0.1214 -0.2837  0.1746
54106W        W97097  18.244  31.943   3.748 -0.2850  0.1295 -0.0613
54107W        W97098  15.308   4.378  15.731  0.0308  0.1591  0.0967
54108W        W97099  10.804  31.933  26.150 -0.0275 -0.0300 -0.1230
54109W        W97100  33.683   7.526  26.665  0.1963 -0.3882  0.0835
54110W        W97101   5.100   8.507  21.165  0.2664 -0.1893  0.0159
54111W        W97102   4.929  28.906  17.892 -0.0385  0.1801  0.2293
54112W        W97103  33.368   8.350  20.190 -0.1402  0.2527 -0.2039
54113W        W97104   3.048  33.426   0.059  0.3228 -0.2805  0.1303
54114W        W97105  29.041  31.989   0.822  0.1939  0.6242  0.1163
54115W        W97106  19.104   4.754  27.239  0.0385 -0.1027  0.1092
54116W        W97107   6.257  11.667  28.347  0.2433 -0.1278  0.0320
54117W        W97108  24.430  20.358  15.014 -0.0998 -0.4984  0.0245
54118W        W97109  18.255  24.379  22.501 -0.1823  0.0231  0.0129
54119W        W97110  26.268  32.345  21.385 -0.1918  0.0659 -0.0938
54120W        W97111  18.814  26.455  23.111  0.2435 -0.1481  0.0447
54121W        W97112  22.585  13.169   3.059 -0.1301  0.1635 -0.0509
54122W        W97113   9.018   1.290   5.499 -0.1488  0.4014 -0.0024
54123W        W97114   1.902  28.017  22.798  0.0144 -0.0509 -0.2322
54124W        W97115  31.278  13.317  18.985  0.0101 -0.0071 -0.3386
54125W        W97116  21.988  18.482  21.298 -0.2906  0.0976 -0.0321
54126W        W97117   1.015   8.042  19.974 -0.2640  0.1362 -0.0548
54127W        W97118  22.925  19.720  24.426 -0.2005  0.0302  0.0584
54128W        W97119  16.103   9.613  15.952 -0.0151 -0.1739 -0.0345
54129W        W97120   9.309  20.059   4.439 -0.0372 -0.3934  0.1720
54130W        W97121  27.307   5.021  19.685 -0.1828 -0.0701  0.1884
54131W        W97122  26.297  10.929   3.404  0.2077 -0.1992 -0.0848
54132W        W97123  26.964   6.790   2.680 -0.2165  0.1307 -0.0209
54133W        W97124  21.808  14.418  28.713 -0.0641 -0.1046 -0.1751
54134W        W97125   3.790   6.364  22.208  0.1749 -0.2698  0.1533
54135W        W97126   8.718   3.099  25.422 -0.1773 -0.1307 -0.1145
54136W        W97127   1.708   9.784  25.370  0.0384  0.1215 -0.0436
54137W        W97128  19.051   5.595  21.093  0.0247  0.0936 -0.4191
54138W        W97129  30.773  23.567  14.841  0.1433 -0.1571  0.1283
54139W        W97130  15.812   4.115  16.123  0.1269  0.0627  0.0907
54140W        W97131   8.599   4.908  18.556 -0.2036  0.0113 -0.0663
54141W        W97132  22.433   6.591   5.440  0.1237 -0.2186 -0.4868
54142W        W97133  13.371  29.739   0.040 -0.2368 -0.1127 -0.1844
54143W        W97134  33.999   8.030  15.952  0.1542  0.0842 -0.3562
54144W        W97135  31.910  12.529  19.211 -0.3783  0.1328  0.1461
54145W        W97136  14.142  12.168  25.238 -0.3492  0.0728 -0.3077
54146W        W97137  31.365   1.507  23.190  0.2251  0.2027  0.0013
54147W        W97138   7.837   1.692  18.009  0.2042  0.1475  0.1233
54148W        W97139   6.029  15.277   2.180 -0.1954  0.0380  0.0573
54149W        W97140  15.672  10.234  28.856 -0.0182 -0.2759 -0.1805
54150W        W97141  12.256  11.234  22.407  0.0209  0.2581  0.1792
54151W        W97142   1.441   7.159  27.118  0.0103 -0.0677  0.0966
54152W        W97143  13.842   2.533  23.533  0.4872  0.0017 -0.1865
54153W        W97144  20.703  31.261  23.850  0.1164 -0.2530  0.1198
54154W        W97145  10.001  16.888  20.945 -0.2961 -0.2776  0.2205
54155W        W97146  26.669   1.384  14.463  0.0332  0.0226 -0.0733
54156W        W97147   2.445  19.946   7.051  0.0237  0.1016  0.0600
54157W        W97148  10.432  28.079  24.568 -0.2413  0.1945 -0.0548
54158W        W97149  23.545   0.260   8.813 -0.1763  0.1602  0.0604
54159W        W97150   9.189   6.904   2.631 -0.0834 -0.3096  0.2840
54160W        W97151   9.464   5.330  23.064  0.2077 -0.0356 -0.3399
54161W        W97152  25.437  11.616   3.593  0.3006 -0.1771 -0.3159
54162W        W97153  12.865  12.754  23.818 -0.0169  0.1086  0.0884
54163W        W97154   8.451   0.257  24.835  0.3115  0.2806 -0.0113
54164W        W97155  20.130   4.001  14.830 -0.0781  0.0418 -0.1503
54165W        W97156  16.614  13.386  19.406  0.0444 -0.2576 -0.0595
54166W        W97157  11.821  18.797  20.303 -0.2236 -0.0278  0.1221
54167W        W97158  21.795  26.110  17.939 -0.0309  0.1004 -0.2073
54168W        W97159  19.096   6.462   1.297  0.2436 -0.4688 -0.0827
54169W        W97160   4.992  30.999  19.177 -0.0129 -0.1706  0.0216
54170W        W97161   3.440  10.736   2.003  0.0197  0.1223 -0.0896
54171W        W97162  24.050   4.366   3.733  0.2545  0.0374 -0.0096
54172W        W97163  15.501  29.679   1.989  0.1941  0.1047 -0.3268
54173W        W97164  13.741   3.465  20.219 -0.1512  0.2489  0.0299
54174W        W97165   7.184  33.041  16.708 -0.4613  0.1027  0.0136
54175W        W97166  16.093   1.750   1.245  0.0093  0.0056 -0.0301
54176W        W97167   3.292   2.922  15.479  0.3328  0.0953  0.2416
54177W        W97168   4.755  18.378  22.840  0.0195  0.1297  0.0911
54178W        W97169   1.954  10.999  28.534 -0.3731  0.1967  0.2248
54179W        W97170  33.940  21.230  15.821  0.1312  0.2020 -0.1562
54180W        W97171   4.459   9.539  24.992 -0.0858  0.0070 -0.0429
54181W        W97172  34.612   9.160  22.943 -0.0648  0.0415  0.2446
54182W        W97173  20.071   4.475  16.124  0.0230 -0.2128 -0.0267
54183W        W97174  18.579  17.775  12.434  0.2435  0.0886 -0.1543
54184W        W97175   0.059  17.883  17.695 -0.0194  0.1063 -0.2835
54185W        W97176  30.445  27.191  16.087  0.2482  0.0976  0.1973
54186W        W97177  10.323   5.700  20.428  0.2970  0.0580  0.4050
54187W        W97178  14.822  16.813  27.198  0.0383  0.1189  0.3309
54188W        W97179  21.689   4.004  26.660 -0.0577  0.1237  0.1622
54189W        W97180  18.838  33.347  29.224  0.1386 -0.0487  0.0854
54190W        W97181  24.790  21.707  16.253  0.0039  0.0496  0.0269
54191W        W97182   0.538  27.972  27.526 -0.1200  0.1665 -0.0721
54192W        W97183   8.411   6.224   5.048  0.0942  0.0255 -0.4098
54193W        W97184  14.050   3.026  23.574  0.1178 -0.1401 -0.3336
54194W        W97185  20.325   9.196  27.990  0.0250 -0.2087 -0.0240
54195W        W97186  11.698   5.840   5.225  0.0958 -0.2626  0.2177
54196W        W97187   5.630   2.328  17.248 -0.0203 -0.0351  0.3802
54197W        W97188  13.241  30.809   6.613 -0.3515 -0.1567 -0.0829
54198W        W97189  32.784   4.220  17.504 -0.0796  0.2340 -0.0078
54199W        W97190  21.047  31.956  15.291  0.0902 -0.0131 -0.0927
54200W        W97191   2.494  12.542   1.045 -0.0169 -0.1734 -0.0020
54201W        W97192  17.266  13.582  25.798  0.0898 -0.0839  0.2003
54202W        W97193   7.163  34.593  26.159 -0.2486 -0.1447  0.2466
54203W        W97194   5.065   6.208  20.713 -0.1677 -0.5395  0.0369
54204W        W97195  11.597  24.070  22.564 -0.0919  0.0143 -0.1474
54205W        W97196  19.523  10.134  18.805 -0.1357  0.0638 -0.1544
54206W        W97197   6.628  30.278  20.718 -0.2795 -0.0983  0.2758
54207W        W97198  21.510  23.576   1.752  0.0992 -0.1125  0.0016
54208W        W97199   1.795  20.383   8.610 -0.2473 -0.0062  0.0831
54209W        W97200  15.784   4.912   1.980  0.1764  0.2526  0.0028
54210W        W97201  21.279   5.177  24.621 -0.2600  0.3467 -0.1321
54211W        W97202  12.049  21.117  25.863 -0.1885  0.2876 -0.0007
54212W        W97203  11.996  13.542  15.960  0.2673  0.2178  0.0058
54213W        W97204  18.262   8.881  25.696  0.2302 -0.1227  0.0793
54214W        W97205  18.580  26.867  19.830 -0.1361 -0.2003 -0.0387
54215W        W97206  16.416   3.776   5.620  0.0351  0.6349  0.0575
54216W        W97207  11.352   3.350  24.857 -0.1744 -0.0953  0.0328
54217W        W97208   5.839  16.349  23.239  0.0801  0.0812 -0.0138
54218W        W97209   0.307  14.841   2.630 -0.0973 -0.0146 -0.1731
54219W        W97210  17.932  30.066  17.479  0.0870 -0.1091 -0.2967
54220W        W97211  13.080  19.776  22.431  0.0632  0.0839 -0.2244
54221W        W97212  13.110   3.458  10.129 -0.2261 -0.1481  0.0930
54222W        W97213  14.071  13.999  29.208 -0.1435 -0.0491 -0.2049
54223W        W97214  11.854   2.279  28.165  0.0351 -0.1050  0.0086
54224W        W97215  10.166   0.576  19.864 -0.0656 -0.2497 -0.0279
54225W        W97216  11.335   4.522  17.456 -0.0178  0.1583  0.0845
54226W        W97217  14.627   2.741   4.276 -0.0125  0.0487  0.1947
54227W        W97218   9.538  10.057  24.005 -0.1563  0.2301 -0.1750
54228W        W97219  30.906  29.975  21.096 -0.1551 -0.1577 -0.0346
54229W        W97220   0.609  12.000  25.671  0.0243 -0.3548  0.3328
54230W        W97221  10.667  17.204  19.545  0.0279 -0.1562  0.0515
54231W        W97222   6.013   4.401  19.119  0.0879 -0.0624 -0.1303
54232W        W97223   9.837   9.137  24.974  0.1244  0.0323 -0.0819
54233W        W97224   6.741   7.245  20.654  0.1062 -0.0778  0.1634
54234W        W97225  13.853  11.460   6.679  0.1508 -0.0526 -0.3205
54235W        W97226  34.461   9.153  21.341 -0.0597  0.1286 -0.2304
54236W        W97227   6.818  11.045   2.805  0.1519  0.1332  0.0050
54237W        W97228  20.723   4.263  22.891 -0.1328  0.1794 -0.1683
54238W        W97229  23.144  24.261  19.352  0.0811  0.3913  0.1039
54239W        W97230   8.975   1.570  28.923 -0.1464  0.4835  0.0071
54240W        W97231  16.602  20.701  19.001  0.1899 -0.0647 -0.0569
54241W        W97232  19.925  32.916  22.468  0.1531  0.2959 -0.0487
54242W        W97233  30.694   9.846  17.727 -0.1150 -0.1576  0.2683
54243W        W97234  14.418  32.150  14.619  0.2363 -0.0825  0.3093
54244W        W97235  13.077  27.358   2.311  0.0131  0.1755 -0.1073
54245W        W97236  23.496   5.703  26.973  0.2681 -0.3914 -0.0539
54246W        W97237  20.020  26.356  21.120  0.2830 -0.1906 -0.0067
54247W        W97238   5.211  14.230  19.489 -0.0520  0.4145  0.1435
54248W        W97239   9.237   0.206   5.694 -0.1278 -0.0654 -0.0838
54249W        W97240  23.469   1.796   8.969  0.0264  0.0302 -0.2133
54250W        W97241  12.551   0.362  20.077  0.1801  0.0615  0.1059
54251W        W97242   6.912  14.677   4.224  0.0428 -0.1001  0.2723
54252W        W97243  18.563   4.941  16.504 -0.0706 -0.0712  0.0925
54253W        W97244  31.666  32.249  27.592  0.2000  0.0914 -0.0148
54254W        W97245  17.162  21.018  25.710 -0.3974 -0.0946 -0.0347
54255W        W97246  11.719   3.415   0.756 -0.0725  0.1473 -0.1539
54256W        W97247  18.512  14.590  22.264  0.4297  0.1143 -0.2382
54257W        W97248  30.049  10.473  25.201  0.2094 -0.0152  0.1714
54258W        W97249  15.235  23.889   9.453  0.1387 -0.1490  0.0772
54259W        W97250  15.022   5.762  10.571  0.0819 -0.1471  0.0411
54260W        W97251  25.683   1.946  23.456  0.2189 -0.1569 -0.0201
54261W        W97252  17.200  28.034  18.384 -0.0387 -0.3140  0.2143
54262W        W97253   4.299  26.732   8.422  0.0781 -0.0381  0.2271
54263W        W97254  21.524  34.739  23.868  0.1153 -0.0788  0.3926
54264W        W97255  13.460  34.656  21.928  0.2718 -0.1958 -0.1482
54265W        W97256   4.102  12.830  19.147  0.1142  0.1155  0.0320
54266W        W97257   2.150   7.482  25.441 -0.2431 -0.1811 -0.0679
54267W        W97258  12.596   2.662  16.389  0.1106 -0.1069  0.0206
54268W        W97259   8.735  31.411  19.558  0.0365 -0.1643 -0.1328
54269W        W97260  24.928  31.350  19.340 -0.0241 -0.0567 -0.0134
54270W        W97261  20.600  32.664  14.282 -0.1540 -0.2331  0.0794
54271W        W97262   7.707  29.515   5.619 -0.1740  0.0479 -0.1227
54272W        W97263  27.829   4.408  18.363  0.2692 -0.1063  0.2240
54273W        W97264  22.091  12.074  23.406  0.0860 -0.1398  0.0013
54274W        W97265   7.206  26.119  14.255  0.3692 -0.0109 -0.0256
54275W        W97266  22.589  31.354  13.608 -0.1156  0.1097 -0.4676
54276W        W97267   4.561  30.048   4.488 -0.0280 -0.0717  0.1709
54277W        W97268   2.145   0.024  19.164  0.0988  0.1247 -0.1468
54278W        W97269  19.581   6.216   0.662 -0.2705  0.2476  0.0004
54279W        W97270  18.728  32.217   7.619 -0.2074  0.1333 -0.0135
54280W        W97271  15.501   2.345  16.986  0.2460 -0.1118 -0.0282
54281W        W97272   8.117  34.329  18.042 -0.0790  0.2059 -0.1614
54282W        W97273  16.981  31.215  14.799  0.1127  0.0047  0.2384
54283W        W97274   7.903  11.904  23.209 -0.0085  0.0502 -0.0032
54284W        W97275  15.531  32.040  24.171 -0.1322 -0.1303 -0.3276
54285W        W97276  19.179   4.029  22.509 -0.2035 -0.4229 -0.0667
54286W        W97277   8.579  12.777  16.971  0.1542 -0.2297 -0.2978
54287W        W97278   4.040  30.259  25.498  0.3026  0.1446 -0.1110
54288W        W97279  22.767  29.359  14.876  0.1559 -0.2108 -0.3283
54289W        W97280  13.865  11.431  22.962 -0.0645 -0.0276 -0.0867
54290W        W97281  12.076  13.302  28.371 -0.1139  0.0952 -0.0680
54291W        W97282   1.956  11.759   9.538 -0.0433 -0.3257 -0.1169
54292W        W97283   3.432  12.200  27.295  0.0317 -0.2890 -0.2965
54293W        W97284  14.264  10.236  20.381 -0.2697 -0.3735 -0.1261
54294W        W97285  17.914  33.625   5.170 -0.0400 -0.2813  0.0205
54295W        W97286  23.515   5.486  26.131 -0.3269 -0.1011 -0.0026
54296W        W97287  16.198  32.181  24.897  0.1886 -0.2749  0.1677
54297W        W97288  10.954   0.141   4.926  0.1362  0.1462 -0.1072
54298W        W97289   9.242  34.249  17.589  0.0506 -0.1137 -0.2584
54299W        W97290  19.119  34.379   5.971  0.1805  0.0979 -0.1762
54300W        W97291  16.355  13.406  18.003 -0.1574 -0.2291  0.2334
54301W        W97292  32.969   7.182  20.796 -0.0944  0.2652 -0.1022
54302W        W97293  15.628  33.782  17.458 -0.1943  0.0275 -0.3951
54303W        W97294  16.626   4.911   8.399  0.3243  0.5366  0.0203
54304W        W97295  15.387  13.491   9.262  0.0663 -0.0349 -0.2927
54305W        W97296   8.087   3.582  20.575  0.0693 -0.1011 -0.0943
54306W        W97297   8.088   4.498  18.584 -0.0761 -0.0578 -0.1453
54307W        W97298   7.537   0.640  17.048  0.3700  0.0622 -0.2072
54308W        W97299   2.670  32.072  26.747  0.2915 -0.0061 -0.0337
54309W        W97300  20.335  33.161  16.691 -0.2249  0.1900  0.0126
54310W        W97301   3.377  13.256   0.389 -0.0802  0.1700 -0.0616
54311W        W97302   7.655  10.414   0.456  0.3316 -0.2047 -0.2111
54312W        W97303   7.153  29.749  21.631 -0.2037  0.1234  0.0940
54313W        W97304   4.942   4.023  22.830 -0.4494  0.0700  0.0675
54314W        W97305   1.227   4.211  27.158  0.2562 -0.1826 -0.0950
54315W        W97306  18.539  21.857  16.484  0.0877 -0.0454 -0.3891
54316W        W97307   8.254   1.764  25.036  0.1319 -0.3028 -0.2149
54317W        W97308  24.482  26.288  26.528 -0.0526 -0.1948 -0.1637
54318W        W97309   5.476  24.361  20.526  0.0295  0.1605 -0.0745
54319W        W97310  11.469  10.962  26.643 -0.3829  0.4301 -0.2023
54320W        W97311  11.665  30.734  14.821  0.0252 -0.5321 -0.0939
54321W        W97312   0.214  22.471  28.498 -0.2375 -0.0757 -0.0165
54322W        W97313  30.750  29.751   0.810  0.0299 -0.0589  0.1933
54323W        W97314  21.643  13.620  21.714  0.4503  0.2479  0.0850
54324W        W97315  10.502  11.596  23.680 -0.2880 -0.1989  0.1174
54325W        W97316  30.883  13.182  18.044 -0.1552 -0.0290 -0.1793
54326W        W97317   7.194   2.366  24.566 -0.1978 -0.0489  0.2317
54327W        W97318   9.464  17.042  27.309 -0.0757 -0.1115  0.0456
54328W        W97319  25.295  14.879  29.133  0.1170  0.0365 -0.1187
54329W        W97320  18.416  23.715  23.714 -0.0007 -0.2323 -0.0022
54330W        W97321  21.054   7.245  22.976 -0.0956 -0.0580  0.3121
54331W        W97322  19.772  10.871   3.904  0.2569  0.1556 -0.1622
54332W        W97323  15.256  14.239  23.461  0.0609 -0.0151  0.4201
54333W        W97324  22.755  31.064   2.408  0.3416 -0.1840  0.0483
54334W        W97325  17.078  26.121   4.090  0.0197  0.0145 -0.0701
54335W        W97326   5.989  28.685  22.738  0.2904  0.1330 -0.1242
54336W        W97327  12.831  20.505  21.192 -0.0303 -0.2478 -0.0487
54337W        W97328  23.758  17.973  21.526  0.3119 -0.0042 -0.0224
54338W        W97329   9.080   7.550  17.553  0.0513  0.1149 -0.1184
54339W        W97330  12.862  10.180  17.911 -0.1419 -0.1981 -0.2742
54340W        W97331   9.827  16.122   4.581  0.0803 -0.0492 -0.0201
54341W        W97332  12.662   0.586  20.578 -0.0877  0.0184  0.1937
54342W        W97333   9.139  15.481   0.896 -0.2203 -0.0705 -0.0257
54343W        W97334   5.931   1.350  25.615  0.0599  0.0062  0.1762
54344W        W97335  11.960   2.040  20.028  0.0178 -0.0754 -0.1160
54345W        W97336  30.657  10.574  16.430 -0.6179 -0.1262  0.0296
54346W        W97337  18.043  31.219   3.307  0.1922  0.1868  0.2886
54347W        W97338  14.651  29.494  15.045 -0.3153  0.3299 -0.1788
54348W        W97339  16.784   8.989   2.498  0.3069  0.2115  0.0796
54349W        W97340  22.939   2.591   7.600 -0.1690  0.0905  0.0064
54350W        W97341  21.601  19.368  13.208  0.1904  0.0931 -0.0141
54351W        W97342  20.552  14.984   0.221 -0.1367 -0.1855  0.2032
54352W        W97343  15.727   8.432  21.401  0.3370  0.1110  0.0077
54353W        W97344  16.051  14.424  28.301  0.3470  0.0893  0.1182
54354W        W97345  13.380  13.710  18.337 -0.0048  0.3543  0.1086
54355W        W97346  20.557  27.196  14.624  0.0455 -0.1065 -0.1041
54356W        W97347  33.393   5.282  18.751  0.1812  0.0896 -0.2270
54357W        W97348  15.419  25.780  29.252 -0.2964  0.0916  0.0610
54358W        W97349   5.057   6.153  24.651  0.2331  0.0543  0.0408
54359W        W97350  18.680  11.600   6.664  0.1807 -0.0138  0.0977
54360W        W97351  19.062  17.742  25.126 -0.0273  0.1403 -0.0929
54361W        W97352   5.676  21.066   1.063 -0.1745  0.3105 -0.1504
54362W        W97353  10.868  12.551  19.228 -0.1257 -0.1318  0.0316
54363W        W97354  10.970  20.542  24.514  0.0075 -0.0434  0.0072
54364W        W97355  21.162  13.400  15.187  0.0633  0.3030  0.3312
54365W        W97356  33.096   8.556   1.739 -0.0428  0.3555  0.3308
54366W        W97357  13.697  28.900  27.109 -0.1468 -0.0219 -0.0348
54367W        W97358   8.584   1.881   5.730 -0.0749 -0.1023 -0.0924
54368W        W97359  19.196   4.728  18.955 -0.0999 -0.1626  0.0059
54369W        W97360  12.912   7.668   8.226  0.0131  0.0531  0.1956
54370W        W97361   8.905  14.533   0.182 -0.0540 -0.1014  0.2089
54371W        W97362  18.431  14.868  28.292 -0.1254  0.1269 -0.2359
54372W        W97363   7.898  31.370  20.021  0.0968 -0.2074 -0.0688
54373W        W97364  20.477   9.567  14.798  0.0523 -0.2387  0.0843
54374W        W97365   0.753  11.623  15.806  0.2475  0.0828 -0.0461
54375W        W97366  25.943  31.854  17.782  0.1664  0.0898  0.1768
54376W        W97367   3.660  26.876   3.081  0.0636 -0.1533  0.2007
54377W        W97368   7.441   9.916  21.654  0.1153 -0.0287 -0.1539
54378W        W97369  33.672   9.421  19.343  0.0837 -0.0278  0.1108
54379W        W97370  26.538  34.793   6.230  0.1931  0.0684 -0.4944
54380W        W97371  15.616   6.710  26.289 -0.1676  0.1747 -0.0390
54381W        W97372  17.089   1.897  26.039  0.1597 -0.0150 -0.0823
54382W        W97373  30.450   5.633  14.844  0.2190  0.1957  0.1607
54383W        W97374   2.398  17.185  17.398 -0.1862  0.1367 -0.0187
54384W        W97375   3.991  17.178   3.615  0.1017  0.0550 -0.2717
54385W        W97376  23.960  31.335  18.967 -0.0367 -0.0039  0.0142
54386W        W97377  12.927  14.360  14.608  0.0146 -0.0856  0.1261
54387W        W97378   5.575  15.839   7.325  0.0530  0.0991  0.0214
54388W        W97379  17.156   0.877  20.202 -0.1901 -0.0347  0.2702
54389W        W97380  17.872   7.828  15.451 -0.0168 -0.0864 -0.0383
54390W        W97381  12.658   4.631  28.804 -0.0183 -0.0278 -0.1498
54391W        W97382  27.240  32.441  16.493 -0.1684  0.0515 -0.2617
54392W        W97383   1.432  18.607  21.622  0.0154 -0.0132  0.0992
54393W        W97384  11.682   6.618  25.292 -0.0316  0.0212  0.0564
54394W        W97385   7.695   3.598  17.207  0.0938  0.0129  0.1244
54395W        W97386  18.425  24.447  16.079  0.0120 -0.1293  0.0604
54396W        W97387  16.162   9.416   2.425 -0.0106 -0.1985 -0.0017
54397W        W97388  18.925  11.559  19.044  0.0546 -0.3031 -0.3223
54398W        W97389  31.875  30.823  15.180 -0.3537  0.0149 -0.2033
54399W        W97390  24.545   3.114   8.585  0.1429  0.0721  0.1110
54400W        W97391  15.829   6.129  19.876 -0.5024  0.1226  0.2619
54401W        W97392  14.984  27.937   3.244 -0.0112 -0.2571  0.0305
54402W        W97393  20.497  12.775  12.985 -0.0241 -0.0121  0.1847
54403W        W97394  16.961   3.175  20.268 -0.0136 -0.3675 -0.2593
54404W        W97395   2.775   4.507  22.944  0.2016  0.0162 -0.0378
54405W        W97396  16.531  31.954  28.754 -0.4583  0.0436 -0.1623
54406W        W97397   7.127  13.030  25.680  0.3147  0.0047  0.0720
54407W        W97398  29.493  11.581   5.066  0.1919  0.0050  0.1247
54408W        W97399   7.340  34.405  19.899  0.0881 -0.0546  0.2119
54409W        W97400  11.246  16.337  15.927 -0.1663 -0.0247  0.1845
54410W        W97401  25.777  17.821  24.707 -0.1054 -0.2741  0.1296
54411W        W97402  28.385  17.365   5.133 -0.2002 -0.2310  0.1098
54412W        W97403   4.972  32.487   8.912 -0.1808 -0.1776  0.1950
54413W        W97404  27.015  18.318   7.415 -0.1045  0.4104 -0.0235
54414W        W97405   2.489  31.932   5.939 -0.0009 -0.1560  0.0591
54415W        W97406  28.087   4.116  20.303 -0.2103  0.0198  0.4417
54416W        W97407   5.903   9.666  25.959  0.1951  0.1923 -0.0343
54417W        W97408  28.598   9.915  15.394  0.1551  0.0227 -0.2367
54418W        W97409  21.847   6.035  24.035 -0.0896 -0.1323 -0.0574
54419W        W97410   5.877   9.669  21.379 -0.1278  0.2171 -0.0573
54420W        W97411   3.834  25.096  18.895 -0.2448 -0.2920  0.0488
54421W        W97412  17.549  26.708  20.656  0.1406  0.0150  0.0502
54422W        W97413  18.645  13.317   8.929 -0.0970  0.2196  0.0346
54423W        W97414  10.984  33.205   1.377 -0.0892  0.2005  0.2748
54424W        W97415  10.287   7.062  23.339 -0.0454 -0.1273 -0.1815
54425W        W97416   8.880  18.799  21.090  0.4368  0.1796  0.2124
54426W        W97417  23.957   9.831  14.175  0.1372  0.1381  0.3671
54427W        W97418  16.752   1.203   0.592  0.1454  0.2631 -0.0472
54428W        W97419   4.127   7.008  17.910  0.2251 -0.0871 -0.1758
54429W        W97420   9.682   0.333  18.026  0.3125 -0.1436 -0.0553
54430W        W97421  27.064  11.389  21.315 -0.0132 -0.1149  0.0073
54431W        W97422  14.155  27.744   6.354 -0.0328 -0.0165  0.3288
54432W        W97423   8.401  13.113  23.916 -0.0120  0.0094 -0.0761
54433W        W97424  16.297  13.288  22.111 -0.2144  0.0211 -0.0139
54434W        W97425  26.303  24.567   6.719  0.1561  0.1183 -0.0502
54435W        W97426  24.260   3.711  12.319  0.2941  0.1972  0.0066
54436W        W97427  23.587   6.240  20.238 -0.0170  0.2445 -0.0927
54437W        W97428  15.435  27.675  17.993 -0.0800 -0.3951  0.1118
54438W        W97429  11.701  32.755  18.167  0.1829  0.3407 -0.0046
54439W        W97430  12.277  11.968   7.799  0.1824 -0.2103 -0.0535
54440W        W97431   1.953   7.374  16.868  0.0137 -0.2769 -0.1657
54441W        W97432  16.995  21.438  23.886 -0.1934  0.0519  0.1013
54442W        W97433   7.686   6.631  15.484 -0.0299  0.0973 -0.0331
54443W        W97434   8.650  28.343  17.884 -0.2681 -0.1075  0.1643
54444W        W97435  24.457  28.844  21.835 -0.0406 -0.1902  0.0319
54445W        W97436   7.097  34.033   0.829 -0.1069  0.1541  0.1301
54446W        W97437  16.471  29.684   0.591  0.0129 -0.2668  0.0489
54447W        W97438   1.542  10.497  20.741 -0.0930  0.0156  0.2814
54448W        W97439  13.944   9.015   4.091  0.1038 -0.0629 -0.4660
54449W        W97440   9.667   3.745   3.065  0.0122 -0.0649 -0.2534
54450W        W97441  22.406  24.617  14.193 -0.0019 -0.0222  0.1674
54451W        W97442   7.290  14.840   0.544 -0.1433  0.0159 -0.0254
54452W        W97443  11.107  22.335  18.688  0.1025 -0.0877 -0.3937
54453W        W97444   8.412   7.521  24.345 -0.2169 -0.1361  0.1345
54454W        W97445  33.840   7.766   8.601  0.0033  0.4576 -0.3238
54455W        W97446   8.864   4.149  20.281 -0.1124  0.0137  0.0652
54456W        W97447   2.243  24.222  26.824  0.0603  0.1173 -0.1907
54457W        W97448  11.825   7.455  27.387  0.2516 -0.2110 -0.0345
54458W        W97449  10.535  23.918  20.168  0.0371 -0.0848  0.3102
54459W        W97450  34.148   8.052   6.278 -0.0359 -0.2762  0.1833
54460W        W97451  31.645  33.631  18.522  0.1501  0.0231  0.1169
54461W        W97452   2.498   3.221  21.698 -0.0113  0.0156  0.1870
54462W        W97453  16.811  28.584   1.506  0.0752  0.1044 -0.0898
54463W        W97454  26.160  12.869   1.637  0.0595 -0.1843 -0.0323
54464W        W97455  23.257  29.508  26.889  0.1587  0.0665 -0.1137
54465W        W97456   7.885  32.741  16.590  0.0234 -0.1767 -0.0233
54466W        W97457  15.556  22.385  16.376  0.0531  0.3336  0.0070
54467W        W97458  15.073  20.645  21.257 -0.1464 -0.1780 -0.1039
54468W        W97459  19.365  24.630  16.388  0.1533  0.1486 -0.2473
54469W        W97460  19.638   0.794   4.092  0.1041 -0.3063  0.0718
54470W        W97461   7.568  30.134  27.527 -0.1355  0.3663  0.2800
54471W        W97462   4.112  28.678   5.663  0.0370  0.1810  0.2698
54472W        W97463  32.018  19.546   7.310 -0.1155  0.0071 -0.2823
54473W        W97464  24.134   6.297  17.664  0.0695  0.0259 -0.1593
54474W        W97465  16.847  19.410  24.734  0.2478  0.2381  0.2429
54475W        W97466  15.320  12.678  18.433  0.2386  0.0115  0.0166
54476W        W97467  14.655  30.903   8.657  0.2215  0.0261 -0.3685
54477W        W97468  27.061  19.119  18.807  0.0938 -0.1730 -0.2307
54478W        W97469  17.660  20.522   6.294  0.1520 -0.0507 -0.1916
54479W        W97470  14.312  13.900  16.627  0.1584 -0.0751 -0.2366
54480W        W97471   7.779  30.683  22.646 -0.0639 -0.1521  0.1218
54481W        W97472  18.957  32.333  15.774  0.3067  0.2992  0.0441
54482W        W97473  11.384  12.367  15.925 -0.2443  0.1322  0.0962
54483W        W97474  17.530   2.212   0.689  0.2568  0.0208  0.0111
54484W        W97475  10.364   5.783   8.869 -0.2148  0.2409  0.2002
54485W        W97476  18.005  24.638   5.648  0.2523 -0.0861 -0.2330
54486W        W97477  17.277   8.675  28.214  0.2399  0.1315  0.1228
54487W        W97478   6.708   8.657   5.783 -0.0025 -0.2331 -0.0928
54488W        W97479  19.393  28.553  25.144  0.4635  0.1761 -0.0372
54489W        W97480  21.694  20.939   2.941 -0.3579  0.0643  0.0803
54490W        W97481  25.361   2.408  27.919  0.0658  0.0418  0.1466
54491W        W97482  12.184  30.121  27.558 -0.0945 -0.0342 -0.1819
54492W        W97483  26.772   9.521  28.429  0.0030  0.1479  0.2874
54493W        W97484  20.931   8.916  17.503 -0.0376  0.2422  0.3946
54494W        W97485  14.754   1.986   2.220  0.2696 -0.0333  0.0404
54495W        W97486  14.672  13.138  16.776  0.0912  0.0460 -0.0663
54496W        W97487  19.937  17.483   5.872  0.0930 -0.0509  0.0718
54497W        W97488  22.452  10.857  28.786  0.3697 -0.0538  0.1478
54498W        W97489   2.326   6.828  10.874  0.0382  0.0930  0.0418
54499W        W97490  26.536   2.177  14.641 -0.0397  0.0511 -0.2289
54500W        W97491  18.250   0.004  13.189  0.3238  0.0093  0.0279
54501W        W97492  32.444  19.148  18.816  0.2035  0.2163  0.4681
54502W        W97493  18.141  28.463  27.286  0.0572 -0.2889  0.1045
54503W        W97494  31.010  20.793  22.701  0.1376 -0.2198  0.3116
54504W        W97495  25.519  15.242  21.061 -0.0772 -0.1851  0.1356
54505W        W97496  12.182  12.979  20.642  0.0046  0.0726  0.4684
54506W        W97497  18.517   6.553  21.709  0.1606  0.0981 -0.0639
54507W        W97498  31.104  16.886  20.927  0.0609  0.0056  0.0545
54508W        W97499  30.523   6.396   3.569  0.2846 -0.3554  0.0583
54509W        W97500  17.756  12.662   7.381  0.1991 -0.1865  0.1521
54510W        W97501   7.459   9.997   1.485  0.2287 -0.0697 -0.1173
54511W        W97502  31.592   3.484  26.470 -0.0645  0.1682 -0.3297
54512W        W97503   0.364  34.464  16.152  0.0360  0.1706 -0.0015
54513W        W97504   8.734   3.581  27.150  0.0344  0.0032 -0.0738
54514W        W97505  18.045   5.926  19.582 -0.0325 -0.1507 -0.1360
54515W        W97506   6.660   3.465  23.881 -0.0586 -0.0720  0.1429
54516W        W97507  13.790  14.090   6.307  0.1008  0.0114  0.0168
54517W        W97508  30.774  27.453  22.886 -0.2738  0.2706 -0.0624
54518W        W97509   3.701  10.467  18.634 -0.0655 -0.0461  0.0180
54519W        W97510  12.640  32.106  21.659 -0.1042 -0.3328 -0.0012
54520W        W97511  26.220   7.442  26.275 -0.0928  0.1327  0.0551
54521W        W97512  17.233   8.566   0.039  0.1978  0.2003  0.1217
54522W        W97513  32.813   6.675  21.898  0.1758 -0.1413 -0.1570
54523W        W97514  30.276   7.537   0.063  0.1005 -0.0844  0.0338
54524W        W97515  10.712   9.173  17.498 -0.0822  0.0618  0.2703
54525W        W97516  33.503   5.597  22.885  0.2344 -0.2298 -0.2167
54526W        W97517   4.627   5.543  24.039  0.1960 -0.1292 -0.0887
54527W        W97518   8.632  34.586  18.893  0.0071 -0.2113 -0.0873
54528W        W97519  18.930  17.665  24.358  0.0365 -0.2075 -0.0509
54529W        W97520  11.110  19.795  17.309 -0.0095 -0.2312  0.1622
54530W        W97521   8.030  31.983   2.781 -0.0103 -0.1682  0.0507
54531W        W97522  10.998   2.041  14.280  0.1931 -0.3348 -0.1596
54532W        W97523  11.607  17.669   4.170  0.3704 -0.1042 -0.1791
54533W        W97524   9.916   4.560  25.678  0.2704  0.4558 -0.0538
54534W        W97525  19.534  32.713   0.713  0.0690  0.3054 -0.1062
54535W        W97526  26.331  28.243  15.693 -0.0732 -0.2934 -0.1558
54536W        W97527   2.432   7.196   3.399  0.1008 -0.1289 -0.0316
54537W        W97528  28.790   0.648  28.965 -0.1179  0.3072  0.1972
54538W        W97529  16.901  13.851   6.105 -0.1313  0.1760 -0.1402
54539W        W97530   9.057  13.374  16.379  0.0386  0.4301 -0.0961
54540W        W97531  10.931  12.025   2.401 -0.0835  0.1586  0.1236
54541W        W97532  25.920  16.926   0.681  0.0187  0.2307  0.2289
54542W        W97533  16.848  18.680   0.218  0.0534  0.2150  0.4473
54543W        W97534  21.720  23.402   0.456 -0.3930  0.0143  0.1397
54544W        W97535  14.861   0.271  16.331  0.0129 -0.2378  0.0249
54545W        W97536  14.230   1.238   5.498 -0.1811  0.0449 -0.0265
54546W        W97537  20.124  14.343  27.821 -0.0996 -0.3223  0.0664
54547W        W97538  14.509  17.827   9.081 -0.2310 -0.2086 -0.1476
54548W        W97539  33.867  24.202  19.828 -0.0544  0.1256  0.1461
54549W        W97540   4.658  26.282  15.836  0.0397  0.1593  0.0224
54550W        W97541  12.296  29.126  10.570 -0.1442  0.2001 -0.0667
54551W        W97542  17.046  10.336  25.117 -0.2744  0.2865 -0.0106
54552W        W97543  13.562   9.868   2.584 -0.1242  0.0802  0.2022
54553W        W97544   3.786  22.685   0.374 -0.2150 -0.2549 -0.1810
54554W        W97545  24.035   3.087  15.768 -0.0522  0.0902 -0.2280
54555W        W97546  12.197   4.279  23.461  0.0116 -0.2031  0.0843
54556W        W97547  14.075   7.857  28.928 -0.1987 -0.1017 -0.0471
54557W        W97548  12.354   3.226  20.132 -0.1362  0.3073  0.2494
54558W        W97549  17.241  12.843   3.052 -0.2152 -0.1744 -0.1646
54559W        W97550  16.113   0.514  23.783  0.2540  0.0147  0.1000
54560W        W97551  33.100   7.562  21.935  0.0497  0.0898 -0.1148
54561W        W97552  29.045  29.758  28.356 -0.0219  0.0871 -0.0225
54562W        W97553  19.761   4.245   3.376 -0.1619  0.0092 -0.0727
54563W        W97554  30.660   7.291   7.347 -0.0552 -0.1592  0.0234
54564W        W97555  16.960   7.566  19.120  0.1752 -0.3064  0.2156
54565W        W97556  16.547  10.102   8.676  0.1592 -0.0074  0.0474
54566W        W97557   5.259  10.421  20.133 -0.2239  0.0823 -0.1449
54567W        W97558  24.649   3.707   9.488 -0.2958 -0.0344 -0.3465
54568W        W97559  15.300   3.425  21.020 -0.0591  0.0839  0.2341
54569W        W97560  12.396  33.039  15.634  0.0569 -0.0779 -0.2067
54570W        W97561  17.908   4.868  25.897  0.3230 -0.0812 -0.3156
54571W        W97562   9.208  13.444  22.566  0.1456  0.0135  0.2831
54572W        W97563   6.867   3.231  14.425  0.1750  0.0507 -0.1456
54573W        W97564  23.854  34.095   5.375  0.1573 -0.0372 -0.2339
54574W        W97565  10.902   3.213  27.138  0.0031 -0.0525  0.0318
54575W        W97566  10.827  10.153  18.318  0.0380  0.1370  0.1644
54576W        W97567  23.549  29.375   4.326 -0.1276 -0.2633 -0.4598
54577W        W97568  24.656   7.794  21.894  0.1952 -0.1290 -0.0505
54578W        W97569   7.220  15.755  27.029 -0.3230  0.2822 -0.2928
54579W        W97570  10.050   0.393   7.611  0.3728 -0.1464 -0.0108
54580W        W97571  13.936  28.630  16.412  0.4680 -0.2012 -0.0293
54581W        W97572  25.297  13.042   5.276  0.2474  0.1242  0.0214
54582W        W97573  24.668  12.707  24.360  0.1895 -0.4240  0.4606
54583W        W97574   0.039  32.976  23.700 -0.1388  0.0199  0.0769
54584W        W97575  12.423   8.706  16.416  0.0784  0.0437 -0.2574
54585W        W97576   3.716   4.562  26.475 -0.3959  0.1927 -0.0953
54586W        W97577  23.027  30.629  14.831  0.2298 -0.1409 -0.1194
54587W        W97578  24.644  24.945  15.323  0.0252  0.1281  0.0744
54588W        W97579  19.915  15.823  26.569 -0.0012 -0.0968  0.1235
54589W        W97580  11.312  10.399  18.433 -0.0546 -0.0237  0.1184
54590W        W97581  20.493   2.190  21.067 -0.0971 -0.1980 -0.3909
54591W        W97582  10.507  19.035  18.727 -0.1226  0.0972 -0.2776
54592W        W97583   8.714  19.058  18.903 -0.0491 -0.1975  0.0889
54593W        W97584  32.666  25.855  20.393 -0.0250 -0.3779 -0.0471
54594W        W97585  24.366  15.922  19.469 -0.1587  0.4474  0.1001
54595W        W97586  17.539   3.981  18.573  0.3001  0.2879  0.4225
54596W        W97587   2.239  29.012  24.493  0.0703 -0.1555  0.1293
54597W        W97588  10.517   7.608  26.654  0.1463 -0.2427 -0.0989
54598W        W97589  20.633  21.712  18.725  0.3345 -0.0295  0.3307
54599W        W97590  14.401  12.837  18.727  0.1166 -0.1423  0.3936
54600W        W97591   1.605   7.328  23.821  0.2207  0.2344  0.0638
54601W        W97592  10.318  31.252   2.879  0.0423  0.0738 -0.2130
54602W        W97593  29.291   3.384  17.193  0.4134 -0.2011  0.2477
54603W        W97594   7.451  11.375  26.292 -0.1502  0.3319  0.2145
54604W        W97595  20.114   3.155  20.381  0.0618 -0.3954  0.0611
54605W        W97596  21.870  13.868  26.630 -0.0250 -0.3602  0.1568
54606W        W97597  21.815   5.119  13.355 -0.0059 -0.0260 -0.0676
54607W        W97598  23.788   0.424  18.376 -0.2868 -0.2173  0.4666
54608W        W97599   7.614   3.349   0.227 -0.1485 -0.3184 -0.2289
54609W        W97600  32.091  10.763  15.974 -0.0061 -0.0845 -0.1656
54610W        W97601  12.494  20.012  20.291  0.0898 -0.0819  0.1420
54611W        W97602  18.807   6.145  24.981  0.0011 -0.0886 -0.2877
54612W        W97603  27.120  13.753   1.672 -0.0525  0.1828 -0.0115
54613W        W97604  32.830   4.475  15.596  0.2164  0.1057 -0.2108
54614W        W97605  27.974   1.267  15.080 -0.4486 -0.0153  0.1259
54615W        W97606   7.222  18.689  25.682  0.0847 -0.2098  0.0115
54616W        W97607  15.213  26.457  10.047  0.0154 -0.1056 -0.0857
54617W        W97608  21.762  22.316   8.378  0.1445 -0.0839 -0.2008
54618W        W97609  14.366   0.870  22.242 -0.3076  0.0312  0.0016
54619W        W97610   1.564   4.841  28.438  0.4408  0.1577  0.0044
54620W        W97611  15.697  27.097  23.672  0.0615 -0.1624  0.4267
54621W        W97612  21.975  27.128  21.920  0.2603 -0.3009 -0.0939
54622W        W97613  25.677  17.031  24.787  0.1444  0.3445 -0.0750
54623W        W97614   5.808  17.492   4.343 -0.0016  0.1601  0.0581
54624W        W97615   4.657  19.686  21.978  0.2041  0.4990 -0.0289
54625W        W97616  21.627  12.981   8.099 -0.1533  0.3573  0.0387
54626W        W97617  17.959  33.942   4.739 -0.1855 -0.1816 -0.4401
54627W        W97618  27.370  34.010  27.587  0.0296 -0.0337  0.0483
54628W        W97619  12.085  14.150  27.855 -0.5377  0.0404 -0.0398
54629W        W97620  28.982   7.907  17.888 -0.3644 -0.0690  0.0116
54630W        W97621  25.071   6.065  26.723 -0.0101 -0.0766  0.2680
54631W        W97622  32.366  29.588  28.220  0.0460 -0.1871 -0.2275
54632W        W97623   9.488   1.007  25.172  0.1642 -0.1915 -0.1565
54633W        W97624  17.760  34.005  20.867  0.0052  0.2667  0.0329
54634W        W97625  20.725   2.681   0.853  0.2361 -0.2414 -0.1413
54635W        W97626  23.016  23.961  19.807  0.0999 -0.0080 -0.1525
54636W        W97627   8.454  32.845  28.361 -0.0479  0.2589  0.0154
54637W        W97628   4.103  13.720  26.779 -0.2557  0.2776 -0.1017
54638W        W97629   7.020  33.986  19.048  0.0027  0.2364 -0.0759
54639W        W97630  25.616  19.945  20.591  0.2098 -0.1359  0.0573
54640W        W97631  19.176   1.564  17.940  0.1083 -0.2793  0.0860
54641W        W97632  14.032  15.545   3.340  0.0429 -0.0349  0.2062
54642W        W97633  11.707   0.193   0.452 -0.0778  0.1350  0.0106
54643W        W97634  11.183   1.526  25.988 -0.2107  0.0473 -0.2122
54644W        W97635  13.630  10.083   3.828  0.0737 -0.2274  0.0644
54645W        W97636   3.489   9.882  23.448  0.0117  0.0065  0.1567
54646W        W97637  29.926   6.271   0.569 -0.2482 -0.1032  0.0898
54647W        W97638   6.509  22.724   5.448  0.1846  0.1024  0.1474
54648W        W97639  23.876   2.690   7.489 -0.0704  0.2846  0.2204
54649W        W97640  17.488   5.054  28.989  0.0766 -0.0733 -0.1705
54650W        W97641  10.931  11.458   9.971 -0.0117  0.0027  0.0791
54651W        W97642  23.696  18.968  23.813  0.2100 -0.5068  0.2811
54652W        W97643  12.221   7.720  17.349 -0.1442 -0.0073  0.0942
54653W        W97644  21.977  33.292  16.839  0.0267  0.0529  0.1954
54654W        W97645  22.025   1.471   2.078 -0.0860  0.1940  0.3553
54655W        W97646  11.103  13.712   0.122  0.0199 -0.1161 -0.0655
54656W        W97647  27.244  26.356   2.667 -0.4932 -0.4296  0.2110
54657W        W97648  17.241  14.221  23.115  0.0913 -0.0748 -0.2133
54658W        W97649  15.029  33.315  27.231 -0.0776 -0.1777  0.0755
54659W        W97650   0.538  25.817  17.588 -0.2661 -0.1338 -0.1548
54660W        W97651  34.495  14.715  11.090 -0.2312  0.2011  0.1701
54661W        W97652  34.001  19.257   4.146  0.0994  0.1076 -0.2511
54662W        W97653  13.450   7.298   4.641 -0.1299  0.0473 -0.3359
54663W        W97654   4.980   9.508   2.357  0.1015 -0.2909 -0.0857
54664W        W97655  11.219   0.392  20.600  0.1942  0.1668 -0.0712
54665W        W97656  10.179  15.204  21.648 -0.2238 -0.0633 -0.1858
54666W        W97657  21.923  17.883  25.013  0.3132  0.3732 -0.3183
54667W        W97658  13.851   2.391  20.852  0.2799  0.1786  0.1307
54668W        W97659   8.103   4.099  17.274 -0.0456 -0.1192 -0.1279
54669W        W97660  18.764  32.414  29.206  0.0912  0.0469 -0.1444
54670W        W97661  18.187  24.346  17.519 -0.2099 -0.2958  0.2120
54671W        W97662  20.510  24.664  24.260  0.2031 -0.3680  0.0247
54672W        W97663  14.246  18.114  27.876  0.0813 -0.2218  0.0227
54673W        W97664  15.243   3.994  21.741 -0.4474 -0.1735  0.0935
54674W        W97665  31.208  26.738  23.949 -0.2937 -0.2130  0.1836
54675W        W97666  14.638  22.393  26.805 -0.1578 -0.0266  0.0204
54676W        W97667  11.498  31.221  25.698 -0.0563 -0.0645 -0.1595
54677W        W97668  28.538  24.094  26.523  0.2536  0.1499  0.1446
54678W        W97669  17.552  27.258  20.808  0.2664 -0.2181 -0.0417
54679W        W97670  13.691   4.645  11.062 -0.0281  0.0306  0.2450
54680W        W97671   1.275  19.959  21.504 -0.0664 -0.1432  0.0624
54681W        W97672  32.846  12.088  20.283  0.0457 -0.0188  0.0557
54682W        W97673  32.228  32.529  15.754  0.0527  0.2620 -0.6407
54683W        W97674  22.960   7.009  27.031 -0.2655 -0.1932  0.2577
54684W        W97675  28.139  21.927   7.097  0.1259  0.1976  0.2896
54685W        W97676  15.018  29.235  27.642 -0.2502  0.1937 -0.0362
54686W        W97677  24.381   4.951  15.606  0.0431  0.1004  0.0801
54687W        W97678  24.688  31.193  28.062 -0.0392  0.2200  0.1626
54688W        W97679  13.972  25.524  18.655  0.3592 -0.2237 -0.1663
54689W        W97680  32.212  11.980  26.968 -0.0480 -0.1384 -0.0245
54690W        W97681  30.125  22.857   9.167 -0.0766 -0.2166  0.0335
54691W        W97682  13.096   8.893  20.442  0.2232 -0.1286 -0.0746
54692W        W97683   1.017  21.589  23.103  0.0239 -0.0968  0.0136
54693W        W97684   8.629  11.164  26.907  0.0936 -0.2949 -0.2675
54694W        W97685   5.234  13.219  26.124 -0.1877 -0.1562 -0.3332
54695W        W97686   7.037   9.984   1.761 -0.0215 -0.1573 -0.1162
54696W        W97687  15.271  12.323  16.572  0.0984 -0.1203  0.3784
54697W        W97688   8.326  30.220  15.998  0.1107  0.1210 -0.2401
54698W        W97689  11.502   8.071   2.525  0.3556 -0.0305  0.0001
54699W        W97690   2.569  29.046  28.530 -0.0205  0.0858  0.1941
54700W        W97691   2.676  13.329  22.370  0.0743 -0.1874  0.0449
54701W        W97692  16.810  12.769   7.451  0.0440  0.1009  0.1464
54702W        W97693   1.077  26.605  27.390 -0.0082  0.0127 -0.0624
54703W        W97694  11.770  32.402  18.626  0.1969  0.1987  0.0487
54704W        W97695  16.852   9.620  26.135 -0.0862  0.0275 -0.0809
54705W        W97696   4.564   5.552  17.777 -0.3695 -0.1918 -0.1586
54706W        W97697   7.167   7.556   9.676  0.0246 -0.0011  0.2128
54707W        W97698  15.232  23.631   8.559 -0.1232 -0.0180  0.1104
54708W        W97699  25.728  28.453  18.483  0.2361 -0.0211 -0.1938
54709W        W97700  16.107  27.081  28.601  0.2735 -0.3102 -0.2311
54710W        W97701  18.555  26.326  20.607  0.4126 -0.1224 -0.0849
54711W        W97702  10.575  20.407   9.544 -0.2725 -0.3348  0.0464
54712W        W97703   5.324  26.940  27.289  0.1154 -0.0464 -0.0429
54713W        W97704  28.016   5.661   4.519 -0.0258 -0.1710  0.0393
54714W        W97705  21.020  23.018   7.694  0.1829  0.0224  0.1073
54715W        W97706  28.042  26.857   7.572  0.3262  0.2692  0.3585
54716W        W97707  32.978  12.301   4.461 -0.2056  0.0655 -0.3634
54717W        W97708  11.138   5.010  15.325  0.6330 -0.1295 -0.2252
54718W        W97709  27.818  20.208  26.064  0.1829 -0.0710 -0.3944
54719W        W97710  21.615  10.682  26.586  0.0168 -0.0371 -0.3017
54720W        W97711   6.867  30.678  14.855 -0.0825  0.1272  0.1615
54721W        W97712   1.413  14.744  20.793  0.0270  0.2365  0.1768
54722W        W97713  25.029  12.842  19.128 -0.0264  0.0134 -0.1337
54723W        W97714   9.152  27.901   5.814  0.0043 -0.1859 -0.2284
54724W        W97715  10.250  32.600   3.827  0.0279  0.1533 -0.0291
54725W        W97716  10.613  10.286   5.149 -0.0533 -0.1218  0.1064
54726W        W97717  30.077  19.668   6.109 -0.2677  0.1732 -0.3001
54727W        W97718  19.867  32.174   1.061 -0.2335 -0.0265  0.3378
54728W        W97719  22.154  31.504   6.841 -0.1625  0.1833  0.0807
54729W        W97720  19.806  30.260  15.743 -0.2136 -0.1769 -0.0699
54730W        W97721  20.728  22.750   5.969  0.0150 -0.0781  0.4221
54731W        W97722  15.458   5.106   0.800  0.1578  0.0774 -0.2638
54732W        W97723  16.991   8.826  15.900 -0.2718 -0.0703 -0.0732
54733W        W97724   4.915  22.701   1.424 -0.1458 -0.0876 -0.0041
54734W        W97725   7.790  33.510  10.021  0.1612  0.2315 -0.1438
54735W        W97726  14.120  20.170   3.855  0.1779  0.0238 -0.0439
54736W        W97727  22.816  12.265  16.176  0.1680  0.0688 -0.1836
54737W        W97728  11.481  33.484  23.021  0.0526 -0.0076  0.1188
54738W        W97729  22.204   6.337  16.532  0.1954 -0.0251  0.0790
54739W        W97730   6.599  12.394   5.412  0.1875 -0.1441 -0.1172
54740W        W97731  18.497   9.558  26.970  0.0162  0.4090  0.1587
54741W        W97732  12.930   7.925  27.559  0.1234  0.1283  0.1287
54742W        W97733  20.053  26.736   1.286 -0.3375 -0.3387 -0.3395
54743W        W97734  11.079  12.331  27.878  0.2535  0.1421  0.3035
54744W        W97735  11.054  34.501  27.158  0.2217  0.0335 -0.1022
54745W        W97736   4.639   7.000   6.733 -0.1956  0.2610 -0.2878
54746W        W97737  18.412   6.741   9.144  0.1494 -0.1040  0.0870
54747W        W97738  16.038  11.078  14.997  0.1342  0.1781 -0.0940
54748W        W97739  18.303  23.727  28.318 -0.1807 -0.0526 -0.0736
54749W        W97740  11.145  27.287  17.918  0.1804  0.0255 -0.0267
54750W        W97741   4.609  30.588  28.539  0.2297  0.1440  0.0699
54751W        W97742  21.211  33.819  10.027  0.0949  0.0188 -0.0906
54752W        W97743  33.919  23.722   3.957  0.1665 -0.2116 -0.0119
54753W        W97744  18.441   9.478  23.340 -0.0231  0.0050  0.5236
54754W        W97745  21.223   6.643   2.211 -0.2253  0.1404 -0.1597
54755W        W97746   6.830   9.714  19.815 -0.0001 -0.3336 -0.0893
54756W        W97747  13.033  33.208  11.002 -0.0318 -0.1019  0.0715
54757W        W97748  13.636  23.884  22.714 -0.0047  0.1335  0.1040
54758W        W97749  14.777   8.549  19.015  0.0676  0.0796  0.1979
54759W        W97750   3.845   8.268   1.815 -0.3041  0.0952  0.0783
54760W        W97751  12.932  32.877   5.145 -0.2698  0.3029  0.1462
54761W        W97752  22.741  10.363  20.601  0.1278  0.3004  0.1555
54762W        W97753   7.460   6.255   9.874  0.3854 -0.0110 -0.1195
54763W        W97754  18.587  19.568  22.939 -0.1012 -0.0256 -0.1752
54764W        W97755  22.390   5.881   6.820 -0.1048  0.1192  0.1648
54765W        W97756  23.715  22.915  17.544  0.0314 -0.1847 -0.1805
54766W        W97757  26.672  14.368  23.071  0.1407  0.0483  0.1110
54767W        W97758  19.286   5.217   7.084  0.0220  0.2550  0.0036
54768W        W97759  21.586   6.656  28.172 -0.1763 -0.0506 -0.1999
54769W        W97760  20.071  11.524   2.923 -0.1003  0.1308 -0.0142
54770W        W97761  11.471  31.259   5.779  0.0672  0.1299  0.2461
54771W        W97762  13.066   2.064  15.178 -0.2548 -0.1622 -0.2148
54772W        W97763   3.157   4.288  20.379 -0.0939 -0.2055  0.1564
54773W        W97764  10.909  30.589  28.726 -0.1461 -0.3516  0.0740
54774W        W97765  10.942  27.265  20.445 -0.0719  0.3405 -0.0578
54775W        W97766  28.825   9.721  14.187  0.2035  0.0074  0.0637
54776W        W97767   8.975  29.423  25.922 -0.2265 -0.1237 -0.0171
54777W        W97768  27.214  28.267   4.354  0.0920 -0.1577 -0.0789
54778W        W97769   7.531  30.616  20.729  0.0746  0.4361  0.1751
54779W        W97770  30.220   6.049  23.438 -0.2610 -0.1850  0.0354
54780W        W97771  12.414  25.236  21.528  0.2274 -0.0125 -0.0270
54781W        W97772  18.848   2.860   2.009  0.0359 -0.1939 -0.2901
54782W        W97773   4.748   4.330  17.641  0.2597  0.1427  0.1186
54783W        W97774   4.560  14.638   4.517 -0.0339  0.1292  0.1491
54784W        W97775  12.162   1.028  22.036  0.0475 -0.1088  0.1259
54785W        W97776   9.746   7.597  24.122  0.1459 -0.1328  0.0729
54786W        W97777  16.918   5.125  24.399  0.4008 -0.2475  0.0135
54787W        W97778   6.162  28.125   6.119  0.0175 -0.2008  0.0095
54788W        W97779   6.860  34.344  26.528  0.1401  0.0353 -0.2206
54789W        W97780   3.631  18.722   8.357 -0.0635 -0.1338 -0.0506
54790W        W97781   5.292  17.247  10.253 -0.2764  0.2857 -0.1611
54791W        W97782  23.909  19.267  27.608 -0.3316  0.0418 -0.0796
54792W        W97783  23.551  18.552  13.733 -0.2404 -0.0286  0.1059
54793W        W97784   5.544  31.803   6.542  0.2464  0.2711 -0.0302
54794W        W97785  24.794  33.482  24.688  0.0408  0.0192 -0.0394
54795W        W97786  30.592  17.337   9.602 -0.3850 -0.0767 -0.1842
54796W        W97787  10.902  11.108  25.543 -0.0529  0.0577  0.2422
54797W        W97788   4.129   6.802   8.225 -0.3002 -0.2835 -0.1372
54798W        W97789   4.498   3.187  19.073  0.1164 -0.3333  0.0764
54799W        W97790  32.889   1.892  18.677  0.0711  0.1486  0.1111
54800W        W97791   2.135   1.717  28.982 -0.0805 -0.1263  0.0455
54801W        W97792   1.609  22.227   6.903 -0.1392 -0.0795  0.1607
54802W        W97793   6.610  34.297   8.544  0.1449 -0.0662 -0.1119
54803W        W97794   2.178  13.026  15.510  0.2180 -0.1160  0.0895
54804W        W97795  19.025   8.719  24.667  0.0315  0.0006  0.2416
54805W        W97796  10.310  25.597  28.288 -0.0689  0.0889 -0.4414
54806W        W97797  21.565  25.188  22.576  0.0834 -0.0817  0.2972
54807W        W97798  22.692  32.290   0.909 -0.0017 -0.0222  0.2913
54808W        W97799   1.382   9.811   3.131  0.3053  0.1301  0.0254
54809W        W97800  25.697  33.257  23.301  0.0910  0.3257 -0.0387
54810W        W97801   9.069  34.760   0.282  0.0866  0.1358 -0.0440
54811W        W97802  34.408  31.567   6.366  0.2713  0.0447  0.0753
54812W        W97803   1.146   7.320  20.633  0.0362 -0.0998  0.1799
54813W        W97804   6.195   9.327  19.178 -0.1968 -0.3056 -0.0047
54814W        W97805   3.961  27.777  22.326  0.0002 -0.2253 -0.1473
54815W        W97806   8.971  31.364  18.980 -0.0814  0.0595  0.0711
54816W        W97807  22.486  11.876  18.938 -0.1046 -0.0085 -0.1571
54817W        W97808  11.331   2.128  16.972  0.0491  0.2273  0.1838
54818W        W97809  15.587   0.599  25.531 -0.1708 -0.0399 -0.1309
54819W        W97810  25.303  26.664   7.946 -0.0179 -0.1867  0.2212
54820W        W97811  11.230  19.030  21.692 -0.0309 -0.2343  0.0740
54821W        W97812  28.341  12.530  28.496  0.0372 -0.2714  0.0017
54822W        W97813  32.269  21.602  25.616  0.3376 -0.0125  0.0593
54823W        W97814   9.173  33.837  25.454 -0.1829  0.2623  0.0168
54824W        W97815  16.483   8.812   5.054 -0.0792 -0.4600  0.0031
54825W        W97816  22.115   9.135  16.441 -0.0413 -0.0654  0.0506
54826W        W97817  17.347   1.122  26.159  0.0860 -0.0844  0.1189
54827W        W97818  31.091  10.903  25.909  0.1330 -0.2833 -0.1228
54828W        W97819  25.150  33.166  16.123 -0.1545  0.1116  0.1640
54829W        W97820  18.034  11.570   5.362 -0.0591 -0.0803 -0.2319
54830W        W97821  15.207  27.830  23.130 -0.4436  0.1814 -0.1116
54831W        W97822  21.646   3.490  22.398 -0.2493  0.0439  0.1218
54832W        W97823   3.490  10.688  16.842  0.1258  0.1791 -0.2619
54833W        W97824   6.701  15.881  10.487  0.0177  0.2288 -0.1798
54834W        W97825   6.677   4.174  11.215 -0.0892 -0.1836  0.0112
54835W        W97826   7.550  13.922   3.074 -0.2689 -0.1447 -0.2614
54836W        W97827  33.673  16.614   2.234  0.3123 -0.0671 -0.0229
54837W        W97828  21.958  13.319  13.175 -0.0638 -0.1985  0.2322
54838W        W97829  31.632  28.115  17.290  0.0412  0.1214  0.0978
54839W        W97830  19.266  12.207  19.471 -0.0230  0.0925 -0.2422
54840W        W97831  22.905   1.347  26.354  0.0060  0.2685 -0.0874
54841W        W97832  20.230  32.167   3.138  0.0480 -0.3051  0.2444
54842W        W97833  23.501   5.219   2.527 -0.3882 -0.2401  0.0416
54843W        W97834   3.582   2.047   3.068  0.1682  0.0151 -0.2048
54844W        W97835  11.990  13.785  28.620  0.3110 -0.3365  0.0036
54845W        W97836  24.574   4.610   8.799 -0.1417  0.0451  0.3165
54846W        W97837  18.735  22.219  28.402  0.1034 -0.1077  0.0599
54847W        W97838  16.937   4.762  25.871 -0.0272 -0.2963 -0.2733
54848W        W97839   6.699  14.427  24.027 -0.3091  0.1251 -0.3070
54849W        W97840  12.566  14.142  27.465 -0.4813 -0.0447 -0.1408
54850W        W97841  10.105  16.553  24.043  0.2283  0.1771  0.0657
54851W        W97842  18.520   9.949  24.833  0.0937  0.2333  0.2554
54852W        W97843   3.172   6.864   2.034  0.0624 -0.1543  0.0026
54853W        W97844  10.510   4.606  15.602  0.0812 -0.2208 -0.0687
54854W        W97845  32.420  15.151  14.633  0.2064 -0.1309  0.4287
54855W        W97846  19.754   8.976   0.274 -0.0917  0.0333  0.1124
54856W        W97847  13.208  10.910  21.095  0.0158  0.4514 -0.1065
54857W        W97848  14.135  26.976  27.862  0.1770  0.0833 -0.2239
54858W        W97849   8.235  19.625   7.350 -0.3687  0.2646 -0.1919
54859W        W97850  19.076   6.880  16.546  0.2136 -0.1984 -0.6609
54860W        W97851   5.238   1.053   3.149  0.1890  0.0710  0.0111
54861W        W97852  19.080  29.464   2.897  0.2599 -0.3422 -0.1315
54862W        W97853   3.233  22.026  19.502 -0.1348 -0.1393  0.1842
54863W        W97854  18.127  33.119  23.672 -0.0971  0.1165  0.2569
54864W        W97855  16.612  30.260   9.632  0.1965 -0.3599 -0.2914
54865W        W97856  11.726  15.998  28.614 -0.1222 -0.0695  0.3281
54866W        W97857  15.426  21.414  17.673 -0.1904 -0.0880  0.1247
54867W        W97858  15.436  13.146  27.176  0.2905  0.0261  0.0907
54868W        W97859  23.855   0.913  18.488  0.3880  0.0298  0.1348
54869W        W97860  13.884  29.455   1.222 -0.3437 -0.0067  0.0680
54870W        W97861  23.066  12.620  19.924 -0.2795 -0.0223 -0.1991
54871W        W97862  28.755  16.237  27.320  0.2781 -0.0110  0.3669
54872W        W97863  10.406  13.990   1.707  0.0036 -0.1186 -0.2743
54873W        W97864  18.858   3.387   8.260  0.1027 -0.3482  0.2717
54874W        W97865   4.684   1.998  18.173 -0.1293  0.1007  0.0085
54875W        W97866  19.181  12.025   1.597  0.1143 -0.0492 -0.1530
54876W        W97867   4.983  20.480   1.844  0.2308 -0.0230 -0.1584
54877W        W97868  11.084   5.017  26.227  0.1043  0.0650  0.1451
54878W        W97869  15.125   0.816   4.125  0.0294  0.0923  0.1732
54879W        W97870   4.926  32.959  18.169  0.1715 -0.0174 -0.0686
54880W        W97871  18.465  30.358  21.408  0.0911 -0.1914  0.1243
54881W        W97872  31.718   3.943  23.081 -0.2826  0.0186 -0.0060
54882W        W97873  20.611   7.952  26.656  0.0643 -0.0576  0.3010
54883W        W97874  26.780   4.140  26.094  0.1182 -0.2474  0.1058
54884W        W97875   5.671   4.138   0.492 -0.2656 -0.0889  0.2387
54885W        W97876  23.101  31.249  26.201 -0.0808  0.2993 -0.0738
54886W        W97877   8.049   8.517  27.836  0.1479  0.0411  0.2018
54887W        W97878  12.526   2.573  25.612 -0.4802 -0.2073  0.3748
54888W        W97879  17.891  20.549  27.969 -0.1369  0.3644  0.3791
54889W        W97880  11.687  10.430   9.383  0.2780 -0.1948 -0.1834
54890W        W97881  18.794   0.660   1.511  0.0622 -0.0035  0.0149
54891W        W97882  11.455  11.008   1.264 -0.2718 -0.2213  0.0001
54892W        W97883   5.472  31.842  29.115  0.0569  0.0114  0.2712
54893W        W97884  21.931  21.192  16.197  0.2910  0.0225 -0.0638
54894W        W97885   9.016  13.974   6.904  0.3039  0.1185  0.1373
54895W        W97886   7.209   4.898  26.939 -0.0277  0.3364  0.1583
54896W        W97887  13.965  28.360  22.556 -0.0396  0.3071  0.3156
54897W        W97888  17.394   5.703   2.287  0.1955 -0.0219  0.2976
54898W        W97889  28.639  12.422  20.002  0.1502  0.0154  0.1889
54899W        W97890  10.882   0.156   9.138 -0.1628  0.3190  0.4740
54900W        W97891   6.510  15.069   9.114  0.3118  0.1520 -0.0838
54901W        W97892   8.246   9.982  27.179  0.0671 -0.1803 -0.0722
54902W        W97893   5.199  27.162  18.576 -0.0207  0.0739 -0.0573
54903W        W97894  11.523  19.384  28.787  0.4940  0.2703  0.0429
54904W        W97895  18.655   4.421  24.432 -0.1391  0.2056 -0.1232
54905W        W97896   1.393  18.225  11.027 -0.0185 -0.0195  0.0787
54906W        W97897   6.236   9.417  15.610  0.1508 -0.0110 -0.0086
54907W        W97898   8.045  12.827   7.066  0.2381 -0.5401  0.1196
54908W        W97899  20.254   3.931  23.701 -0.0155 -0.0591  0.1509
54909W        W97900   8.634   2.345  19.078 -0.2743 -0.2957 -0.1953
54910W        W97901  12.781   7.292  28.303  0.0465  0.0537 -0.3288
54911W        W97902   8.907   8.148   4.940  0.2294 -0.3001 -0.1138
54912W        W97903   0.623   2.461  17.899 -0.1308  0.0745  0.1054
54913W        W97904  10.392  27.592  26.175  0.2187  0.1037  0.0184
54914W        W97905  17.960  16.177  26.457  0.4773  0.1517 -0.1384
54915W        W97906  21.429   5.761  18.487 -0.4305  0.1701 -0.1345
54916W        W97907   5.684  28.919  28.041  0.1841 -0.1114  0.0253
54917W        W97908  22.396  14.964  28.064 -0.0171  0.3276  0.2314
54918W        W97909  29.458  14.825  17.595  0.1004  0.2433 -0.1410
54919W        W97910  22.707   7.059  22.603 -0.1718  0.0376 -0.0762
54920W        W97911  21.061   3.154  28.473 -0.1926 -0.0247  0.3455
54921W        W97912  11.661   2.949  10.278 -0.0074  0.0534 -0.0327
54922W        W97913   2.849  33.950   5.298  0.0736 -0.0092  0.5329
54923W        W97914  12.600   0.851  18.783  0.0258  0.2910 -0.2880
54924W        W97915  30.803  19.694  10.233  0.1724  0.1413  0.1259
54925W        W97916   9.856  29.117  20.673 -0.1896  0.2858  0.0693
54926W        W97917  28.811  14.701   1.215 -0.0710  0.0829  0.1322
54927W        W97918  12.742  26.977  26.511 -0.0058 -0.0466  0.1385
54928W        W97919  33.586  23.000  21.854  0.0160 -0.0231  0.1691
54929W        W97920  32.717   6.645  21.311  0.3122 -0.4751 -0.0277
54930W        W97921   1.632   9.924  20.413 -0.3215 -0.1113  0.1885
54931W        W97922   3.948   3.447  10.205 -0.1695 -0.2924  0.1172
54932W        W97923  20.403  20.135  13.991 -0.3279  0.4195 -0.0683
54933W        W97924  25.490   3.642  14.363 -0.1359  0.0444 -0.1231
54934W        W97925   6.280  19.388  20.043  0.2053 -0.0619 -0.0144
54935W        W97926  24.926   8.541  23.733  0.1806  0.1002 -0.2078
54936W        W97927   5.876   0.456  16.902  0.1655 -0.2646  0.0363
54937W        W97928  12.696  23.833  14.083  0.2668 -0.0868  0.1813
54938W        W97929  12.038   8.877   8.573  0.2364  0.1769  0.3727
54939W        W97930  22.124  16.201  28.054 -0.1234 -0.0889  0.0163
54940W        W97931  12.163  12.073  18.561 -0.1018  0.1638 -0.2393
54941W        W97932  15.712   6.345   4.211 -0.1856 -0.0459 -0.1862
54942W        W97933   8.480  15.402  17.680 -0.2276 -0.0139 -0.4379
54943W        W97934   3.624   4.181  19.447  0.0123 -0.3181  0.0897
54944W        W97935  25.720   4.245  12.782 -0.1485  0.0056  0.4068
54945W        W97936  33.616  33.213  25.189  0.1006 -0.0814 -0.0454
54946W        W97937  20.948   1.568  15.937 -0.2446 -0.1182 -0.1313
54947W        W97938  21.632   6.756   1.292 -0.0917 -0.0703 -0.0244
54948W        W97939  11.315  17.135  19.671 -0.1184 -0.1580  0.3386
54949W        W97940   4.725   6.003  17.377  0.1293  0.0238  0.0847
54950W        W97941   9.705   0.648   0.854 -0.0913  0.1016 -0.1206
54951W        W97942  30.524  13.189  23.157  0.1409 -0.0450  0.2635
54952W        W97943  34.686   7.422  14.440  0.2503 -0.0867 -0.0145
54953W        W97944  16.430  26.330  15.447  0.1831  0.2222 -0.3347
54954W        W97945  12.849   8.788  15.960  0.3062  0.2755  0.0252
54955W        W97946  15.870   5.833  26.969  0.1193  0.0924  0.0036
54956W        W97947  29.765   7.304  19.547  0.2138  0.1666  0.4105
54957W        W97948  15.596  23.207  13.657  0.0658  0.2201  0.0922
54958W        W97949   7.902   6.897  18.156 -0.0049 -0.1321 -0.1487
54959W        W97950   9.755  10.174  20.102 -0.1510  0.0571  0.2100
54960W        W97951  34.778  19.774  15.450 -0.3130 -0.1837 -0.3571
54961W        W97952  33.803  13.942  16.218 -0.2116 -0.0098  0.0637
54962W        W97953  31.420   6.794   7.851  0.1526 -0.0410 -0.0909
54963W        W97954  21.180  29.430   0.011  0.2239  0.0690 -0.1542
54964W        W97955  28.268  13.099  14.162  0.0332  0.2325  0.0888
54965W        W97956   4.338  12.221   3.189  0.1398 -0.1351 -0.3476
54966W        W97957  24.477  16.024  22.699  0.0700 -0.1472 -0.0580
54967W        W97958  13.749  34.750  23.821  0.1769  0.4135  0.2248
54968W        W97959  23.529   3.098  27.922  0.0127 -0.2458  0.1916
54969W        W97960   9.717  15.835  16.635  0.1040 -0.1238  0.1349
54970W        W97961  12.879  15.315  16.575  0.1237  0.2173 -0.2801
54971W        W97962  11.623  16.701  16.467  0.1564  0.2532  0.0039
54972W        W97963  19.277  17.684  15.246 -0.2536  0.1812 -0.0976
54973W        W97964  24.576   6.211  15.195 -0.1260  0.1524  0.0595
54974W        W97965   6.083   8.542  16.760 -0.3079  0.1322  0.0264
54975W        W97966  31.156  26.561  20.028 -0.1024  0.0737  0.0101
54976W        W97967  21.191  33.986  28.267  0.0991 -0.1047  0.3221
54977W        W97968  12.922  10.892  17.632  0.3870  0.1617  0.2135
54978W        W97969  26.528  24.010  18.942  0.1086 -0.0628  0.4123
54979W        W97970  20.336   2.087  19.571  0.0668  0.3182 -0.3696
54980W        W97971  13.280  17.583  14.631  0.2556  0.0242 -0.2211
54981W        W97972  12.788  24.033  19.983 -0.2153  0.3744  0.0229
54982W        W97973  16.440  10.945  14.531  0.0345 -0.0606  0.0157
54983W        W97974  26.235  13.683  23.665 -0.1226  0.0331  0.2330
54984W        W97975  10.633  26.050  24.323 -0.0495 -0.1071  0.0203
54985W        W97976  26.481  13.226  20.936 -0.0800  0.2385  0.0951
54986W        W97977  16.822   4.210  18.292  0.1692  0.1058 -0.2314
54987W        W97978  10.833  32.892  25.771 -0.2259 -0.0925  0.0781
54988W        W97979  13.982   5.461  20.722 -0.2957  0.0934  0.0802
54989W        W97980  19.658   8.023  17.180 -0.2242  0.3019 -0.2515
54990W        W97981  28.921   2.320  22.037 -0.0823 -0.1680  0.0918
54991W        W97982  22.135  12.976  20.160  0.1307 -0.0380 -0.0751
54992W        W97983   4.434  33.873  23.772 -0.0586 -0.1389  0.0264
54993W        W97984  12.856   1.887  21.459  0.1174 -0.0774  0.1179
54994W        W97985   6.583  13.070  21.441 -0.3237 -0.1299  0.2567
54995W        W97986   9.100  22.339  20.184  0.3182  0.0844 -0.1103
54996W        W97987   5.239  10.562  25.371 -0.0763 -0.0649 -0.2677
54997W        W97988   9.456  30.566  22.126 -0.1095 -0.3046  0.0147
54998W        W97989  28.537  23.402  21.601  0.1968 -0.0350  0.2390
54999W        W97990  12.461  23.350  16.564 -0.1368 -0.3906  0.0537
55000W        W97991  11.007  14.704  16.924 -0.1576 -0.1157 -0.1023
55001W        W97992  12.608   0.792  17.432 -0.1478  0.2307 -0.0026
55002W        W97993  16.720   6.110  16.755  0.2625  0.1105 -0.1961
55003W        W97994   8.129  21.569  19.262 -0.1522 -0.2760 -0.2746
55004W        W97995   7.801  28.734  14.696  0.0921 -0.1071 -0.0121
55005W        W97996  11.243  11.074   5.997  0.2409  0.2707 -0.1883
55006W        W97997   7.072  23.642  23.143 -0.0376  0.1059 -0.1259
55007W        W97998   9.431   2.083  19.834 -0.1732  0.1279  0.0293
55008W        W97999   9.100   8.494  20.075 -0.0456 -0.3068 -0.0670
55009W        W98000  20.812  11.942  26.424 -0.0689  0.2467 -0.2767
55010W        W98001  15.515  22.281  17.761  0.1368  0.2376 -0.0238
55011W        W98002  14.200   8.929  21.749  0.3394  0.0407  0.0247
55012W        W98003  10.634   0.279  19.858  0.2517 -0.2289  0.1397
55013W        W98004   4.617  19.479   0.770  0.0664 -0.0703  0.2831
55014W        W98005   5.330  11.537  21.902 -0.1401  0.1801  0.0672
55015W        W98006   2.817   1.989  20.421 -0.0863 -0.0657  0.1818
55016W        W98007  26.000   2.225  22.188  0.1326 -0.1574  0.0387
55017W        W98008  13.148  24.936  15.406 -0.1357 -0.1726  0.0126
55018W        W98009  29.638  21.932  20.137 -0.2643  0.0300  0.0383
55019W        W98010   6.750   7.465  18.072 -0.1085  0.1838  0.1060
55020W        W98011   4.247   2.607  15.692  0.1440  0.0364 -0.1647
55021W        W98012  19.624   2.177   0.985 -0.3075  0.0778 -0.0216
55022W        W98013  11.772   2.078  18.168  0.1247  0.1172 -0.0582
55023W        W98014  12.235  27.902  25.906  0.3710  0.2503 -0.2015
55024W        W98015   5.890  33.331   4.260  0.0829 -0.3668 -0.1730
55025W        W98016   8.131  13.544  17.801  0.0129  0.1240  0.1504
55026W        W98017   2.624   8.562  22.173  0.4748 -0.3645  0.2934
55027W        W98018  12.897  18.605  16.129 -0.2882  0.0200 -0.1976
55028W        W98019  12.791  34.611  27.189 -0.0447  0.1032  0.1874
55029W        W98020  12.102  19.690  24.677  0.0903  0.0349  0.0984
55030W        W98021  23.592   1.019   5.946  0.5573  0.2282 -0.0329
55031W        W98022  15.536  23.303  22.021  0.1979  0.0803  0.2967
55032W        W98023  28.384  13.575  14.847  0.2207  0.3190  0.1288
55033W        W98024  11.425   6.832  18.847 -0.0579  0.1423  0.1265
55034W        W98025   0.815  10.544  21.441  0.0859  0.2314 -0.0907
55035W        W98026  10.894  34.491  24.402 -0.3113  0.3323 -0.1944
55036W        W98027   7.763   0.949  24.300 -0.0852  0.1697  0.0085
55037W        W98028   9.822  14.391  17.780 -0.0350 -0.2777 -0.1223
55038W        W98029  23.644  25.319  22.395  0.1918 -0.0299 -0.3132
55039W        W98030   8.353   5.012  17.675  0.3230  0.1127  0.1139
55040W        W98031  15.029  23.425  14.922 -0.1258 -0.0241  0.2154
55041W        W98032   2.931  33.991  16.893 -0.0305 -0.4977 -0.1363
55042W        W98033  21.236   0.212  22.029 -0.0529  0.3679 -0.0793
55043W        W98034  15.443   1.304   9.448 -0.0144 -0.0998 -0.0137
55044W        W98035  20.255  29.629  18.545  0.0065  0.1367  0.0582
55045W        W98036  11.600   6.113  19.332 -0.2772  0.0379 -0.1803
55046W        W98037   4.336   9.668  16.982  0.0587 -0.2345  0.0897
55047W        W98038   2.612   6.576  26.444 -0.1900  0.4483  0.0131
55048W        W98039  34.428   3.694   0.936  0.1942 -0.0044  0.1066
55049W        W98040   3.863  10.026  24.760 -0.0391 -0.1959 -0.0259
55050W        W98041  27.812   1.644  17.314 -0.2884  0.2621 -0.0507
55051W        W98042  17.107  15.401  15.562  0.1194  0.2692 -0.0077
55052W        W98043   9.660  21.803  24.542 -0.4411 -0.1336 -0.0286
55053W        W98044   0.350  22.710  25.874  0.0459  0.2839 -0.0840
55054W        W98045  23.874   9.713  16.481  0.1732 -0.3033  0.0184
55055W        W98046   5.334  17.412  24.686 -0.1376  0.0884  0.0334
55056W        W98047  20.075  31.366  18.865  0.0484  0.2447  0.2290
55057W        W98048  18.400  10.748  16.531 -0.1301 -0.3072  0.0444
55058W        W98049   8.588  31.890  16.392  0.4510 -0.2496 -0.4157
55059W        W98050  22.097  12.581  19.374 -0.1386  0.1261 -0.0365
55060W        W98051   5.811   3.032  19.661 -0.0693  0.3756 -0.1429
55061W        W98052   3.624   9.070  21.813  0.3340  0.0370 -0.0366
55062W        W98053  29.304  32.099  27.128  0.0049  0.0806  0.2089
55063W        W98054  31.234  29.105   0.853 -0.0301  0.1505  0.3051
55064W        W98055  31.208  20.251   8.130  0.1591  0.2261 -0.0754
55065W        W98056  31.758  16.525  19.904 -0.0644 -0.1979  0.0693
55066W        W98057  32.988  27.737  17.871 -0.1544  0.1424  0.0126
55067W        W98058  26.952   3.519  21.995 -0.1602  0.2625  0.0719
55068W        W98059  26.011  29.513   3.337 -0.0383  0.1167 -0.3899
55069W        W98060  14.400   5.674   9.803 -0.1225  0.0982  0.0916
55070W        W98061  14.638   6.651  24.855 -0.2859 -0.1277  0.0197
55071W        W98062  12.139   9.859   4.804 -0.1076  0.0629  0.3964
55072W        W98063   0.854  11.416  21.899  0.1880  0.1844 -0.3277
55073W        W98064  13.787  17.096  15.929  0.0854 -0.0071  0.1491
55074W        W98065   9.235  16.003  19.627 -0.3605  0.0477  0.2395
55075W        W98066  19.340   8.941  17.647 -0.2113  0.0736 -0.0588
55076W        W98067  22.249   8.187   2.413  0.0195  0.0145  0.0770
55077W        W98068  23.986   1.978  15.165  0.0060  0.4176  0.0479
55078W        W98069  32.608  15.448  19.017 -0.1373 -0.1615  0.1780
55079W        W98070  31.672  19.455  14.554  0.1937 -0.1736 -0.0529
55080W        W98071  12.154   4.562  25.547 -0.0517  0.0704  0.1073
55081W        W98072  13.589   1.708  15.640  0.0302  0.0903 -0.0563
55082W        W98073  22.832  17.278  16.722 -0.0425  0.0606 -0.1127
55083W        W98074   5.525  16.072   2.097  0.1645  0.2108  0.0501
55084W        W98075  11.913  12.927  27.062 -0.2867  0.0303 -0.0902
55085W        W98076  20.041   3.266  18.344  0.0222  0.0755 -0.0861
55086W        W98077   6.299  11.455  27.704 -0.2025 -0.0480  0.1609
55087W        W98078  14.880   4.306   1.890  0.2950  0.0630 -0.1544
55088W        W98079  16.384  32.796  15.548 -0.0503 -0.2342 -0.0723
55089W        W98080  18.865  22.079  19.636  0.1773 -0.2073  0.3474
55090W        W98081  20.063   5.563  21.922  0.0624  0.0939 -0.4223
55091W        W98082   4.208   9.251   2.888  0.5141  0.6036 -0.1331
55092W        W98083   4.759  19.333  20.735 -0.1930  0.2423 -0.0350
55093W        W98084  14.326  10.338  19.490 -0.0953 -0.1094  0.4218
55094W        W98085  17.898   6.862  26.032 -0.1472  0.1381  0.0883
55095W        W98086  21.773  16.240   4.496  0.0489  0.2359 -0.0830
55096W        W98087  15.112  33.396  21.824  0.0273  0.1246 -0.0408
55097W        W98088  10.971   6.313  24.062 -0.0950 -0.0959  0.1122
55098W        W98089   2.690  29.712  19.515 -0.2465 -0.0992 -0.1332
55099W        W98090   7.143   8.797  22.792 -0.0206  0.3749 -0.0665
55100W        W98091  13.903   4.955  27.855  0.0671 -0.3725 -0.0113
55101W        W98092   3.352  19.104  27.515 -0.0674 -0.1881  0.1908
55102W        W98093  24.700   6.404  13.482 -0.1693  0.2896 -0.2059
55103W        W98094  11.616  28.975  21.029  0.0559  0.2322 -0.0609
55104W        W98095  17.552   5.363  20.501  0.1276  0.0221 -0.1642
55105W        W98096  24.895   2.364  23.603  0.1047  0.2348 -0.0423
55106W        W98097  12.701   5.678   7.444 -0.1472 -0.2560  0.0607
55107W        W98098  25.518  12.556  15.587  0.3695  0.1621 -0.3476
55108W        W98099  12.699  14.024  25.179  0.0591  0.0874 -0.3565
55109W        W98100  24.288   0.096  25.047 -0.0015 -0.1557 -0.1749
55110W        W98101  27.876   6.188  16.393 -0.1523  0.0703 -0.0844
55111W        W98102  18.964  30.178  13.991 -0.0992 -0.0163  0.1662
55112W        W98103  14.704  14.031  26.179  0.0230  0.1976  0.1177
55113W        W98104  19.777   3.374  25.636  0.2329 -0.0027  0.2399
55114W        W98105  27.465  13.128  27.816  0.0288 -0.1906 -0.0300
55115W        W98106   8.319  31.149  14.867 -0.2984  0.0145 -0.1228
55116W        W98107  18.448  11.897  16.388 -0.0271 -0.2655  0.1784
55117W        W98108  18.835  30.868  21.584 -0.1664 -0.1948  0.0097
55118W        W98109  17.440   9.513  20.588  0.0532  0.1578  0.0063
55119W        W98110  28.720  28.497  21.378  0.1914  0.1524 -0.1345
55120W        W98111   3.785  22.164  15.166 -0.3968 -0.2933  0.0553
55121W        W98112  13.193   1.648  25.882  0.3517  0.0674 -0.0197
55122W        W98113  21.884  30.422  18.466  0.1876 -0.0231  0.0585
55123W        W98114  13.340  13.207  18.085  0.1705 -0.4234  0.2733
55124W        W98115  23.898  31.507  15.139  0.1528 -0.0504 -0.4667
55125W        W98116  17.059  33.754  26.730  0.0061  0.2457 -0.0458
55126W        W98117   7.325  34.211  25.838 -0.0315  0.0335  0.0336
55127W        W98118   0.871  12.295   6.695 -0.0051 -0.1634  0.3126
55128W        W98119  15.750   6.714  16.369 -0.2523 -0.1460  0.3951
55129W        W98120  13.841   0.443  27.280 -0.0760  0.1593  0.2450
55130W        W98121   4.146  11.899  20.297  0.2226  0.0662 -0.4459
55131W        W98122   0.480  30.000   3.423 -0.2111 -0.0778 -0.0352
55132W        W98123  28.630  18.164  22.975 -0.3533 -0.2830 -0.0999
55133W        W98124  31.347  15.918  18.864  0.0722  0.0979  0.0951
55134W        W98125   3.225  17.386  24.420  0.1258 -0.3334 -0.0226
55135W        W98126   6.204  33.868  14.729  0.0453  0.0787  0.0579
55136W        W98127  23.421   8.158  13.369  0.2311  0.0345 -0.1795
55137W        W98128  12.210   3.366  22.333  0.1736 -0.0090 -0.0787
55138W        W98129  14.432  34.211  25.844  0.3179 -0.1858 -0.0811
55139W        W98130   5.735  13.267  17.279 -0.0071 -0.0604 -0.1018
55140W        W98131  26.160   8.158  25.547  0.0236 -0.1755  0.1944
55141W        W98132   6.179  15.725  25.086 -0.1100  0.2646  0.2054
55142W        W98133  13.463  12.652  24.668 -0.1942 -0.0872 -0.0706
55143W        W98134  12.894   9.185  27.292 -0.1426 -0.2012 -0.3513
55144W        W98135  29.245   7.929  14.409  0.1702  0.2564  0.3657
55145W        W98136   5.418   6.865   2.125  0.2514 -0.1937  0.0310
55146W        W98137  33.926   7.819  16.987  0.0624  0.1446  0.0471
55147W        W98138   0.390  18.022  23.814  0.0119 -0.1890  0.0421
55148W        W98139   3.820  28.587  21.301 -0.0036 -0.0673  0.0395
55149W        W98140  19.760  33.963   4.118  0.0200  0.3199  0.0565
55150W        W98141  22.502  24.472  17.291  0.2147 -0.3331  0.0074
55151W        W98142   3.337   6.141  20.577  0.0963 -0.3721 -0.1125
55152W        W98143  22.826   4.939   3.134  0.4439 -0.0227 -0.4945
55153W        W98144  15.875  22.885  15.471  0.0725  0.0031 -0.1597
55154W        W98145   4.135   8.955  20.750  0.2188 -0.5359  0.0570
55155W        W98146  11.658   2.865  25.445  0.0053  0.0917 -0.1505
55156W        W98147  22.895  15.921  18.213  0.0265 -0.1985 -0.0319
55157W        W98148   3.966  10.070  29.170  0.4225  0.0911 -0.1057
55158W        W98149  16.011   6.771   4.117  0.0735  0.3152 -0.0527
55159W        W98150   5.453  28.358  14.852 -0.0188  0.0421  0.4174
55160W        W98151  13.607  13.090  23.436 -0.1322 -0.4910 -0.0233
55161W        W98152  28.051  24.238  15.144  0.0878  0.0826  0.2149
55162W        W98153  23.641  14.061  23.596  0.3046 -0.1253  0.0473
55163W        W98154  18.691  11.759   0.862 -0.0177  0.3573  0.0568
55164W        W98155  27.197   1.207  15.904 -0.2847  0.1587  0.1923
55165W        W98156   9.997  21.068  21.763 -0.0313  0.0330 -0.1110
55166W        W98157  28.769  13.365  22.770 -0.1948 -0.1434  0.2371
55167W        W98158   7.183  14.739  15.221 -0.2530  0.1642 -0.2336
55168W        W98159  16.540   5.701  17.081 -0.0612  0.2002 -0.0603
55169W        W98160  14.735  13.148  24.766 -0.2809 -0.6151 -0.2716
55170W        W98161  19.932  25.051  14.238 -0.1403 -0.3184 -0.0296
55171W        W98162  10.082   5.643  25.766 -0.0557 -0.0278 -0.2102
55172W        W98163  20.621   0.598  17.948 -0.1157 -0.2551  0.1194
55173W        W98164   2.890  20.388  16.243  0.0848 -0.2156  0.0654
55174W        W98165  12.383  31.585  26.733 -0.4417 -0.2077  0.4221
55175W        W98166  31.341  10.050   3.170 -0.0917 -0.0110 -0.0751
55176W        W98167  33.402  17.438  19.414  0.1466 -0.1756  0.0774
55177W        W98168   8.684  34.312  27.145  0.5955  0.1385 -0.0544
55178W        W98169  27.933  14.293  22.045  0.1037  0.2319 -0.3090
55179W        W98170  32.184  11.030  16.540  0.0357  0.0200  0.0546
55180W        W98171   2.673  28.805  17.628 -0.0350  0.1330  0.1847
55181W        W98172   0.398   9.293   0.067  0.2526  0.1377 -0.0469
55182W        W98173  21.406  17.455  18.122 -0.0143  0.0209 -0.2104
55183W        W98174   2.008   6.007  19.250  0.0528  0.0742  0.2222
55184W        W98175  12.976  10.694  19.870 -0.2802 -0.0525  0.0959
55185W        W98176  27.812  12.375  28.263  0.3389  0.1745  0.1284
55186W        W98177  17.472   2.528  21.040 -0.2834 -0.3025  0.1458
55187W        W98178  14.605   2.008  27.088 -0.1027 -0.0325 -0.1522
55188W        W98179   8.003   8.346  18.094 -0.2656 -0.0548  0.0289
55189W        W98180  16.630  21.266  23.158 -0.2514 -0.0738  0.0942
55190W        W98181  12.781  11.973  24.835 -0.2711 -0.0184  0.3183
55191W        W98182  11.682  18.459  25.285 -0.0968 -0.0305  0.0918
55192W        W98183   9.810  17.540  21.021  0.1946 -0.2983 -0.2910
55193W        W98184  10.283   3.654   0.445  0.0202  0.0414 -0.1535
55194W        W98185  15.813  33.149  27.369  0.1688  0.0726  0.0184
55195W        W98186  22.494  26.503   7.048  0.1141 -0.3492  0.3594
55196W        W98187  23.323  11.525  14.988 -0.2606  0.0189 -0.1474
55197W        W98188  15.827   1.653  19.203  0.0394 -0.0311  0.1132
55198W        W98189  22.689  26.560  14.619  0.3970  0.3635  0.1134
55199W        W98190  23.805   2.403  19.362  0.0551 -0.3385  0.0839
55200W        W98191  15.778  26.300  24.139 -0.0297 -0.3328  0.5075
55201W        W98192   6.319  18.094  18.021 -0.3599 -0.0117  0.0025
55202W        W98193   6.780  25.411  26.255 -0.1041 -0.0172  0.0302
55203W        W98194  33.027   9.563  22.055  0.0228 -0.0311 -0.1390
55204W        W98195   3.058  12.449  21.359  0.1584  0.1938 -0.1029
55205W        W98196  15.399  24.144  24.466  0.0398  0.1159  0.1612
55206W        W98197   6.035   3.603  17.769 -0.2817  0.0318  0.1209
55207W        W98198  18.085  19.404  14.333  0.0520  0.0597  0.2097
55208W        W98199  15.402  27.532  13.782 -0.1149  0.1116 -0.3599
55209W        W98200  10.283  14.229  22.799 -0.3684 -0.0795 -0.0121
55210W        W98201  16.677  11.704   5.639  0.3112 -0.1960  0.0480
55211W        W98202  32.388  18.513  23.970  0.3154  0.0421  0.1698
55212W        W98203   6.727   1.422  24.983 -0.1687  0.0188 -0.3236
55213W        W98204  12.674  14.764   4.603  0.0002 -0.0947  0.0738
55214W        W98205  33.378  24.052  14.378 -0.2460 -0.0343  0.0377
55215W        W98206  22.704   6.988  21.066  0.2311  0.1432 -0.0300
55216W        W98207  14.345   4.555  15.579  0.1369  0.0984 -0.2244
55217W        W98208  27.329  32.204  19.066  0.3855  0.1973 -0.1061
55218W        W98209   1.612  11.663  23.116 -0.1733  0.1012  0.1338
55219W        W98210  21.246  25.244  13.420 -0.1139  0.0931 -0.0559
55220W        W98211  11.500  15.381  17.015 -0.0927 -0.1252 -0.2816
55221W        W98212  23.387  32.766   9.101 -0.1022 -0.4225 -0.1784
55222W        W98213  10.543  19.837  24.836 -0.2154 -0.0464 -0.2701
55223W        W98214  26.627  33.803  25.461 -0.0002  0.0933 -0.1386
55224W        W98215  15.347  33.019  20.050  0.3044 -0.0674  0.1610
55225W        W98216  27.696   5.958  19.673 -0.2514 -0.1263 -0.1497
55226W        W98217  25.957  34.801  19.124  0.1632  0.1728  0.0229
55227W        W98218  30.721  22.722  19.040 -0.4087 -0.0799  0.3168
55228W        W98219  33.483  11.249  27.670  0.3768  0.1519  0.1953
55229W        W98220  16.198  11.723  14.180  0.0002  0.1988 -0.1595
55230W        W98221   0.224  11.364   3.916  0.1417 -0.0330  0.0185
55231W        W98222  12.583   9.482  17.487 -0.0096 -0.2042 -0.3502
55232W        W98223  13.428   3.619  20.936  0.0670 -0.0484 -0.3909
55233W        W98224  12.014   2.538  18.204 -0.2048  0.2237  0.1539
55234W        W98225  14.140   5.006  26.460  0.0604  0.0249 -0.3948
55235W        W98226  21.495   4.501  18.687 -0.0739  0.1079 -0.0899
55236W        W98227  14.523   1.347  19.386  0.0477  0.0417  0.3699
55237W        W98228  34.234  33.711  25.689 -0.2992  0.1037 -0.2512
55238W        W98229  20.281   4.344  18.112 -0.0553 -0.0190  0.0385
55239W        W98230  13.944   6.423  26.788 -0.0251 -0.1698  0.3000
55240W        W98231  21.897   7.041  28.233 -0.0755 -0.2041 -0.1048
55241W        W98232   5.497   1.068   4.203  0.1715  0.0519 -0.2435
55242W        W98233  24.665   9.706  14.792 -0.0964  0.0288  0.3048
55243W        W98234  21.039  33.516   5.523 -0.1301  0.4869 -0.0946
55244W        W98235  12.189  34.084  24.008  0.1193  0.0520 -0.1778
55245W        W98236   4.961   3.468  16.978  0.1153  0.0225  0.0406
55246W        W98237   4.747  14.403  22.792  0.1177  0.5016 -0.1672
55247W        W98238  19.592   5.191   6.198  0.1961  0.1525 -0.0680
55248W        W98239   1.407   9.634  19.342 -0.1084 -0.2865 -0.2944
55249W        W98240   5.658   1.328  17.621  0.2502 -0.1479 -0.3758
55250W        W98241  11.179  13.192  23.855 -0.2501 -0.0343 -0.1919
55251W        W98242  23.832  14.268   4.562 -0.1568 -0.2639  0.1009
55252W        W98243   9.687   1.984  16.785 -0.2762  0.0038  0.1762
55253W        W98244   2.554  10.362  19.208  0.2320 -0.2824  0.0567
55254W        W98245  22.019  14.978  14.732  0.1352  0.0218  0.0127
55255W        W98246  23.260  19.812  12.590  0.1945 -0.2447 -0.2285
55256W        W98247  17.896  12.349  24.430  0.0779 -0.1649 -0.3024
55257W        W98248   6.905   9.919  20.890 -0.0185  0.0628 -0.1220
55258W        W98249  12.221  29.483  22.113 -0.0789  0.1315  0.1674
55259W        W98250  20.136  11.969  12.585 -0.0350 -0.2779 -0.1671
55260W        W98251  20.674   1.235  20.586 -0.0205 -0.2798 -0.0388
55261W        W98252  10.681   1.250  20.308  0.2858 -0.1865 -0.0506
55262W        W98253   3.039   2.705  21.491 -0.0553  0.0060 -0.1922
55263W        W98254   4.543   9.957  23.591  0.1449 -0.2242  0.1371
55264W        W98255  28.473   4.327  19.219  0.0577 -0.1401  0.2299
55265W        W98256   7.467  14.351  17.013 -0.0370  0.3361 -0.2494
55266W        W98257  12.436  14.504  16.993  0.3594 -0.3255 -0.0706
55267W        W98258  22.797   6.491  21.945 -0.1093  0.0597 -0.0714
55268W        W98259   9.956   0.701   3.955 -0.3431 -0.0004 -0.0087
55269W        W98260  16.333   6.761  16.100 -0.0506 -0.1423  0.1452
55270W        W98261  15.124   5.629  28.424  0.0241 -0.0585 -0.0537
55271W        W98262  17.345  10.865   4.094 -0.4690 -0.2824 -0.3336
55272W        W98263  31.397  20.786  26.171  0.1511 -0.2108  0.2499
55273W        W98264  20.714  12.694  23.624 -0.1398 -0.1355  0.1580
55274W        W98265   8.155  16.675  17.971  0.1967 -0.1677 -0.2428
55275W        W98266  21.973  34.573  19.488  0.1537 -0.1592 -0.0646
55276W        W98267  30.894   1.517  14.723  0.0033  0.0529  0.0419
55277W        W98268  10.225  16.518  19.483 -0.2686  0.2574  0.2608
55278W        W98269  13.631  16.027  24.322  0.1923  0.0824 -0.0872
55279W        W98270  15.349   4.758  28.289  0.1422 -0.2123  0.0528
55280W        W98271  17.088   7.623  15.214  0.2332 -0.0601 -0.1065
55281W        W98272  24.335  34.263  15.671  0.0925  0.0893 -0.2098
55282W        W98273   5.943   6.970  23.820  0.0522  0.2300 -0.1808
55283W        W98274  15.268   5.064  23.569 -0.3042  0.0967 -0.4245
55284W        W98275  12.021   6.447   6.316 -0.1110  0.1749 -0.0152
55285W        W98276  21.155  10.792  22.490 -0.0210  0.0080  0.2684
55286W        W98277  34.482   2.762  17.206  0.0382 -0.1907 -0.2319
55287W        W98278  14.144  14.494  23.688 -0.2896 -0.1894  0.4863
55288W        W98279  25.432  10.001   4.040 -0.0844 -0.1642 -0.1012
55289W        W98280  23.121  34.474  19.639  0.0888 -0.1192 -0.0051
55290W        W98281  11.510   5.830  18.636 -0.1317  0.0678 -0.0694
55291W        W98282  17.990   3.621  23.930  0.0625 -0.0360 -0.1257
55292W        W98283  24.106   3.617  14.202 -0.1123  0.1585  0.0581
55293W        W98284  13.610  29.265  16.331  0.1407  0.3489  0.1768
55294W        W98285   9.502  17.130  22.424  0.0404  0.2719  0.0797
55295W        W98286  20.444   7.236  14.910 -0.0678 -0.0841  0.1309
55296W        W98287   8.121   8.865  25.355 -0.1311 -0.2822  0.3890
55297W        W98288  20.269   6.718  28.250  0.2159 -0.0376  0.2161
55298W        W98289  22.042   6.666  19.052  0.1534  0.2535 -0.0043
55299W        W98290  29.561  13.752  18.445  0.3776  0.1354  0.0177
55300W        W98291  15.638  12.318  21.153  0.0139  0.2521 -0.2547
55301W        W98292   5.864  11.917  18.671 -0.2544 -0.0563 -0.1940
55302W        W98293  21.451   0.648  26.277  0.2573 -0.2599 -0.2678
55303W        W98294  31.886  28.912  23.795 -0.1933  0.2664 -0.0006
55304W        W98295   1.500   4.432  17.064 -0.1302 -0.3113  0.1269
55305W        W98296  28.541   8.845  22.824 -0.1600 -0.1555  0.1545
55306W        W98297  19.670  24.672  18.223 -0.1363  0.0773 -0.3253
55307W        W98298  29.386  26.521  17.050  0.0563 -0.1613 -0.1351
55308W        W98299  18.963  12.188  20.955 -0.2726 -0.0813  0.3662
55309W        W98300  29.912   1.576  18.857  0.0542  0.1673  0.0786
55310W        W98301  11.546  18.204  13.970 -0.2273 -0.3406 -0.2516
55311W        W98302   5.430  23.157  15.636 -0.2385  0.1723  0.0258
55312W        W98303  24.743  30.294  26.256  0.3530  0.3321 -0.0417
55313W        W98304  20.604   7.097  20.016 -0.3679 -0.0476  0.0063
55314W        W98305  17.305  16.965  13.539  0.3822  0.2108 -0.1689
55315W        W98306  21.393   6.898  16.836 -0.2178 -0.0896  0.2805
55316W        W98307  22.467  34.606  14.732  0.1865 -0.0695  0.1547
55317W        W98308   5.871   9.423  23.171  0.2978  0.0791 -0.1649
55318W        W98309   9.262   0.729  21.127 -0.0252  0.1913 -0.0276
55319W        W98310  10.583   9.356  21.136 -0.2637  0.1792  0.2935
55320W        W98311  18.402  27.081  17.884  0.4670 -0.1832  0.1344
55321W        W98312  28.897  30.834  17.213  0.1513  0.3272 -0.2734
55322W        W98313   8.569  30.417  16.463 -0.2169 -0.1972  0.0659
55323W        W98314  19.410  10.234  20.539 -0.0620 -0.0275 -0.2413
55324W        W98315   7.619   2.637  19.553  0.3329  0.0164  0.1892
55325W        W98316   7.514   2.685   3.475 -0.0782  0.0781  0.1539
55326W        W98317  18.288  32.580  20.889  0.2870 -0.1060  0.1636
55327W        W98318   5.250  34.441  24.077 -0.0103 -0.0525 -0.3582
55328W        W98319  25.675  17.054  15.748  0.0014  0.2141 -0.1391
55329W        W98320   2.785  29.562  13.897  0.1590  0.0734 -0.1841
55330W        W98321   7.693  21.289  24.166 -0.0367 -0.2724 -0.1934
55331W        W98322   5.160  10.012  27.294 -0.2081  0.1008  0.6507
55332W        W98323  29.509  26.643  21.096 -0.0934 -0.2438 -0.1467
55333W        W98324   7.420  19.414  19.015  0.2140 -0.2374  0.2173
55334W        W98325  16.177  10.334  23.968  0.2394 -0.0294  0.1234
55335W        W98326  20.079   6.653  13.199  0.0909 -0.0405 -0.2122
55336W        W98327   0.752   9.042  15.384  0.0247 -0.1340  0.0098
55337W        W98328   3.180  15.666  27.142 -0.1153  0.3611  0.3525
55338W        W98329  12.564  12.143  19.280 -0.4612  0.1961  0.1792
55339W        W98330  16.541  25.970  20.974  0.1866 -0.0729  0.0201
55340W        W98331  13.239   4.141  16.899  0.0781  0.1285  0.0769
55341W        W98332   2.399  20.398  19.227 -0.1708 -0.0103  0.0692
55342W        W98333   9.466  11.325  21.783 -0.1612 -0.1676 -0.2336
55343W        W98334  15.458   9.755  17.710 -0.0206  0.1010  0.1996
55344W        W98335  24.413   1.055  24.726  0.2067  0.1051  0.0116
55345W        W98336  23.852  16.226  13.969  0.4312  0.3185  0.3810
55346W        W98337  16.788   5.763  17.690 -0.3049  0.3167  0.0964
55347W        W98338  14.877  15.160  24.422  0.0996 -0.3221  0.1221
55348W        W98339  17.213  16.743  13.106 -0.1874 -0.0389 -0.2729
55349W        W98340   8.342  12.716  17.409 -0.2734 -0.0155 -0.0360
55350W        W98341  16.582   5.456  19.060 -0.0436  0.1259  0.2080
55351W        W98342  10.658   7.370   1.188  0.1293  0.2079  0.1394
55352W        W98343  13.850  18.953  16.451 -0.1681 -0.2204  0.1152
55353W        W98344  33.008  12.892  19.551 -0.0533 -0.1379 -0.0514
55354W        W98345  12.188   3.890  22.127  0.1830 -0.0451 -0.0031
55355W        W98346  15.044  28.587   0.731  0.2001 -0.0853  0.1545
55356W        W98347  23.276  32.743  19.153  0.1258 -0.1344 -0.2051
55357W        W98348  32.420   1.045   1.596  0.0056  0.0080 -0.1102
55358W        W98349  11.729  11.076  21.649 -0.2655 -0.2801 -0.1448
55359W        W98350  15.143  18.350  16.288 -0.3544 -0.0282  0.1016
55360W        W98351   9.360  32.193   2.239  0.2062  0.0500  0.2099
55361W        W98352  25.632   1.453  24.768 -0.1343  0.2193 -0.0664
55362W        W98353  25.624   4.412  21.020 -0.0580  0.1761 -0.1843
55363W        W98354   6.759   6.677  19.150 -0.2564  0.1413  0.3129
55364W        W98355   2.818  32.426  23.379 -0.0261  0.1294  0.3188
55365W        W98356  22.492   2.129  26.884  0.1580 -0.1551 -0.1357
55366W        W98357  15.788  12.372  26.938  0.0699  0.1002 -0.1158
55367W        W98358   7.884  34.254  24.492 -0.0788  0.1870 -0.0638
55368W        W98359  11.594  13.142  20.200 -0.0940 -0.1014 -0.0686
55369W        W98360  10.204   1.377   0.679 -0.0893 -0.0340  0.0239
55370W        W98361  16.450   2.629  19.188  0.0626 -0.1567 -0.2316
55371W        W98362   6.460   5.121  17.562  0.0315  0.1193 -0.0638
55372W        W98363  17.266  11.453  22.600 -0.0548  0.2243  0.0669
55373W        W98364  17.229   3.904  28.023  0.1033 -0.4116 -0.2269
55374W        W98365   2.400   0.494  27.147 -0.2246  0.3759 -0.1280
55375W        W98366   7.154  10.801  20.227 -0.0391  0.0617  0.0507
55376W        W98367  17.541  13.570  22.255 -0.1210  0.0721  0.0831
55377W        W98368  11.528  22.377  13.801  0.2079  0.1238  0.1510
55378W        W98369   5.365   6.067  18.478  0.1937 -0.2217 -0.1198
55379W        W98370  14.902  29.026  16.409 -0.0181 -0.0702 -0.0856
55380W        W98371  17.812  34.656  14.934 -0.1332 -0.0107  0.0633
55381W        W98372  28.553  22.299  13.228  0.2180 -0.1735 -0.1581
55382W        W98373  12.685  31.694  14.835  0.1121  0.2100  0.0806
55383W        W98374  16.303  32.654  23.873  0.1026  0.0146 -0.1511
55384W        W98375  12.318  13.947  20.797  0.5374 -0.1937  0.1866
55385W        W98376   6.652  20.261  22.486 -0.0889  0.1099  0.2382
55386W        W98377  15.074   1.144  25.964 -0.0702  0.1560 -0.0237
55387W        W98378  21.606  14.286  16.376 -0.1821  0.2200 -0.0381
55388W        W98379  24.173  23.560  16.753 -0.1329 -0.0500  0.2244
55389W        W98380   4.759   5.417   1.446 -0.0940  0.1416 -0.2019
55390W        W98381   6.144   2.176  18.122  0.0071  0.1373 -0.1325
55391W        W98382  32.423   7.128  15.658  0.1783  0.2854  0.1675
55392W        W98383  22.463  17.148  15.207 -0.2488  0.2028  0.1291
55393W        W98384   8.269  10.260  14.763 -0.4117 -0.1405 -0.1911
55394W        W98385  10.001  22.581   8.297 -0.0848 -0.4541  0.2548
55395W        W98386  34.218  19.650   5.406 -0.0070 -0.2042 -0.2656
55396W        W98387   3.063  13.353  22.718 -0.1126 -0.0306 -0.0250
55397W        W98388  11.306   8.486   1.749  0.1122 -0.1157 -0.2128
55398W        W98389  24.764  34.230  17.325  0.1149 -0.2298  0.1728
55399W        W98390  32.254  29.317  13.528 -0.0533  0.0910  0.0753
55400W        W98391  20.812  18.142   5.673  0.1883 -0.1636  0.2148
55401W        W98392  16.941   3.187  15.576  0.5973  0.0235  0.0437
55402W        W98393  13.847   6.413  16.900 -0.3104  0.2913  0.0338
55403W        W98394   3.151  16.977  22.365  0.0396 -0.0689  0.3215
55404W        W98395   1.030   7.331  21.713  0.1593  0.1384 -0.2001
55405W        W98396  12.337  23.943   5.688 -0.0199 -0.1931 -0.1774
55406W        W98397   7.771  24.908  14.531 -0.1486  0.1413 -0.1899
55407W        W98398  10.776  13.520   1.135 -0.3179  0.1768  0.1667
55408W        W98399  28.520  14.041   6.944  0.2501 -0.5835 -0.0428
55409W        W98400  24.721   8.960  25.093  0.0502  0.0183  0.0812
55410W        W98401  13.065   2.817  16.464 -0.1121 -0.1171  0.0176
55411W        W98402  18.036  12.624  27.415 -0.0512  0.0789 -0.3783
55412W        W98403   7.632   1.862  20.055  0.4813  0.0924 -0.0265
55413W        W98404   8.079   2.082  25.645 -0.1645  0.0759 -0.1721
55414W        W98405   8.712  10.417   2.063  0.2268 -0.0149  0.0405
55415W        W98406  22.424  32.279  20.491 -0.2424 -0.1643  0.0096
55416W        W98407  33.948  13.245  25.655 -0.1673 -0.1729 -0.1581
55417W        W98408  11.962   7.771  19.647  0.1186  0.3697  0.0711
55418W        W98409  19.550   6.400  19.540 -0.1507  0.1253 -0.2713
55419W        W98410  15.222  16.081  14.739  0.1721  0.2650  0.2275
55420W        W98411   2.690  13.369  19.680 -0.1829  0.3915 -0.1572
55421W        W98412   9.925  14.440  21.319  0.3243 -0.1626  0.4312
55422W        W98413  16.802  24.909  18.115  0.0714 -0.0830 -0.1497
55423W        W98414   9.099   4.613  25.025 -0.0551  0.0632  0.0439
55424W        W98415  10.641   0.248   4.573  0.1015 -0.2568  0.1423
55425W        W98416   5.115   7.082  19.364  0.3843 -0.1788  0.0039
55426W        W98417   4.585   6.304  20.615 -0.0430  0.0851  0.0135
55427W        W98418  32.198  11.867  19.753  0.0592 -0.2220  0.0995
55428W        W98419  17.411  15.581  28.356 -0.2510  0.1897  0.0457
55429W        W98420   4.284  28.021  26.195 -0.1230 -0.0773 -0.0625
55430W        W98421  11.063   8.372  15.054  0.1559 -0.0842  0.4630
55431W        W98422  10.266  24.875  16.145 -0.1761  0.1151  0.0196
55432W        W98423   7.179   5.452  17.519  0.2013  0.0227  0.0876
55433W        W98424  12.402  14.326  23.871 -0.3427 -0.0735  0.0215
55434W        W98425   0.539  33.668  17.402  0.1594  0.1693 -0.1886
55435W        W98426  26.415   3.132  19.687 -0.1506 -0.0809 -0.0479
55436W        W98427   3.338  11.108  25.388 -0.2663  0.0582 -0.2002
55437W        W98428   0.264  29.133   1.400  0.1138 -0.0620 -0.2002
55438W        W98429  17.070  11.278  22.182 -0.1551  0.1924  0.2936
55439W        W98430  19.128   4.388  21.482 -0.1189  0.1653  0.0711
55440W        W98431   9.750  13.104   9.909  0.0258 -0.3480 -0.1835
55441W        W98432  23.355   6.338  18.343  0.3187 -0.2783 -0.0767
55442W        W98433  14.955  12.540   0.627 -0.3468 -0.0167  0.1081
55443W        W98434  12.392   5.631  28.170 -0.3016  0.1173 -0.0664
55444W        W98435  25.165   8.366  21.252  0.1654  0.0435 -0.3095
55445W        W98436   6.182  16.056  19.360  0.2088  0.1786 -0.3820
55446W        W98437   7.285  17.464   4.283  0.0112 -0.1744 -0.1563
55447W        W98438  13.295  17.987  20.608  0.0439  0.0637  0.0796
55448W        W98439  26.574  15.047   1.879  0.1794 -0.0184  0.0435
55449W        W98440  18.438  29.105  24.182  0.1356 -0.1967 -0.0879
55450W        W98441  15.716  15.114   1.185 -0.2237 -0.0223  0.1658
55451W        W98442  13.623   7.017   4.264  0.0936  0.2017  0.1174
55452W        W98443  28.015  13.889  24.129  0.0670  0.2592  0.2131
55453W        W98444  13.058  10.210  14.747 -0.0897  0.0439  0.0676
55454W        W98445  10.313   5.538  19.425  0.0346  0.0490 -0.0720
55455W        W98446  10.525  17.113  16.309 -0.3057 -0.3222 -0.0999
55456W        W98447  10.915  26.398  21.751  0.0056  0.0329  0.1286
55457W        W98448  24.928   8.229  26.597 -0.2136  0.1347 -0.0501
55458W        W98449  11.287  12.863  23.314 -0.3036  0.2219  0.3514
55459W        W98450   5.542  34.067  15.047  0.4561  0.0717  0.1185
55460W        W98451  17.322  33.130   6.813 -0.2862 -0.1840 -0.0109
55461W        W98452  18.904  12.289  13.642  0.0247  0.1300 -0.0621
55462W        W98453   2.389   3.382  18.552 -0.1756  0.0173 -0.1695
55463W        W98454  13.862   5.966   1.184 -0.1490  0.1146  0.1287
55464W        W98455   6.465  34.230  14.233  0.1281  0.1192 -0.2147
55465W        W98456  29.329  19.869   2.581  0.0328  0.2054 -0.2794
55466W        W98457   5.647   4.143  10.184  0.1966  0.0881 -0.2080
55467W        W98458  17.223   2.794  26.446 -0.0845 -0.1636  0.0708
55468W        W98459  28.250  34.382  13.295  0.1636 -0.3325  0.0635
55469W        W98460  32.301  17.803   6.191  0.0111  0.1001  0.0048
55470W        W98461  14.966  27.333  15.605  0.3687  0.0523 -0.0329
55471W        W98462  29.970  17.420  23.800  0.0671  0.0907 -0.1959
55472W        W98463  28.006  12.304  20.173  0.3313  0.1677 -0.2655
55473W        W98464  11.448   9.147  16.393  0.1552  0.1047  0.0153
55474W        W98465  15.925  19.553  29.180 -0.1560  0.2108  0.1667
55475W        W98466  11.359  15.429   4.347 -0.2053  0.3094  0.0107
55476W        W98467  18.498   9.472  14.586 -0.0700 -0.0094  0.2294
55477W        W98468  21.066   0.702   1.625  0.2725  0.1025  0.1828
55478W        W98469  11.940  11.137  17.661 -0.1122 -0.2276  0.0447
55479W        W98470  14.903   4.047  22.246  0.1564  0.0745 -0.0782
55480W        W98471  13.283  31.239  19.145 -0.0622  0.2093  0.0594
55481W        W98472   1.810   5.125  11.699  0.1905  0.3254  0.0832
55482W        W98473   3.411   1.868  26.935  0.1790  0.2189 -0.0429
55483W        W98474   5.056   2.026  16.487  0.1599 -0.0979  0.1686
55484W        W98475   7.754   1.526   1.105  0.0352  0.1632 -0.2926
55485W        W98476  21.546   6.061  14.191 -0.2467 -0.2534  0.1370
55486W        W98477  21.251   7.658   6.729  0.0042 -0.2436  0.0448
55487W        W98478   4.947  31.066  21.175  0.2091 -0.0834 -0.2615
55488W        W98479   7.737   7.880   9.799 -0.2372 -0.0201  0.0777
55489W        W98480  10.939  34.430   6.100  0.0314 -0.2524  0.0618
55490W        W98481  20.108  25.612  15.030 -0.0498 -0.1146 -0.1676
55491W        W98482  12.741  13.724  16.475 -0.0299  0.2453  0.1276
55492W        W98483  17.442  11.135  20.308  0.1750 -0.0971 -0.0548
55493W        W98484  14.241   2.919  17.445 -0.0851 -0.0773 -0.2219
55494W        W98485  13.102  15.726  19.339 -0.2642 -0.0701  0.3122
55495W        W98486  18.037  10.711  25.899 -0.1815  0.1951  0.0729
55496W        W98487   6.041   0.999  25.310  0.1190  0.0917 -0.1287
55497W        W98488  16.039  11.525  28.235 -0.1296  0.2004 -0.0007
55498W        W98489  24.351   7.006  20.026 -0.0918 -0.1241 -0.2184
55499W        W98490  10.429  14.794   5.078 -0.0637  0.0261  0.0088
55500W        W98491  11.446  12.763  18.762  0.0629 -0.3034  0.3865
55501W        W98492  23.138   6.250  15.232  0.0624  0.1696  0.1382
55502W        W98493  28.805  18.711  21.883 -0.1166  0.0295  0.1969
55503W        W98494   5.652  15.028  23.452  0.0821 -0.1878  0.0339
55504W        W98495  16.344   3.257  20.153  0.1570 -0.0296  0.1239
55505W        W98496  27.732  17.266  19.844  0.1391 -0.1114 -0.1113
55506W        W98497  29.727   5.277   0.600 -0.1100  0.0027 -0.0734
55507W        W98498  22.990  31.780  14.634  0.4159 -0.1899  0.0129
55508W        W98499  20.675   7.710  19.244 -0.0925 -0.0544  0.1691
55509W        W98500  13.320   1.657   1.028 -0.1045  0.3007 -0.2090
55510W        W98501  16.075  15.128  23.192 -0.2299  0.3392 -0.1339
55511W        W98502  12.355   9.968   0.510  0.1119  0.2567 -0.3187
55512W        W98503  24.983   2.208  20.664 -0.0992  0.1491 -0.1187
55513W        W98504  15.061  22.936  18.780  0.1443 -0.1880 -0.4176
55514W        W98505  25.740   1.971  20.843  0.0406 -0.1396  0.2011
55515W        W98506  10.490   2.140  14.437 -0.0192 -0.2562  0.1503
55516W        W98507  16.082  21.926  17.548  0.0252  0.1566 -0.1974
55517W        W98508   8.288  11.648   2.180 -0.1464  0.2168 -0.0688
55518W        W98509  16.787  15.371  14.576  0.4159  0.2688 -0.0725
55519W        W98510  26.993   0.561  19.436 -0.0938 -0.1215 -0.1922
55520W        W98511   7.338  19.293  19.473  0.1795  0.3084  0.2998
55521W        W98512  17.552  34.267   4.672 -0.1715 -0.2887  0.0483
55522W        W98513   9.301  25.351  14.502  0.1149  0.0759  0.0951
55523W        W98514  19.842   7.646  18.494 -0.0532 -0.1208  0.3478
55524W        W98515   9.970  20.165  14.075  0.2075 -0.0546  0.2199
55525W        W98516  18.349  13.985  15.382  0.1235 -0.2446  0.2943
55526W        W98517  19.249  13.532  12.601 -0.3729 -0.1818  0.1122
55527W        W98518  15.789  12.583  24.782 -0.4641 -0.0309  0.0199
55528W        W98519   5.733  27.657  22.042  0.1259 -0.1549 -0.0554
55529W        W98520  20.755   3.997  23.464 -0.1027  0.1567  0.1153
55530W        W98521  22.863  14.712  16.770  0.1372  0.2042  0.0084
55531W        W98522  20.609  10.400  14.818  0.1466 -0.2042 -0.0270
55532W        W98523  20.074  10.270  17.929  0.1717  0.0355 -0.3402
55533W        W98524   5.026  15.416  19.422  0.5032  0.1069  0.0816
55534W        W98525  21.212  25.950  19.383  0.2869  0.0580 -0.3688
55535W        W98526  25.940  20.920  19.563  0.4441  0.1486  0.4837
55536W        W98527  31.780  14.800   3.560 -0.3613  0.2160  0.3786
55537W        W98528   3.099  33.580  15.078 -0.0484  0.0692  0.3711
55538W        W98529  26.483   5.287  24.359  0.0425 -0.0905 -0.0862
55539W        W98530  27.894  19.306  21.174 -0.0824 -0.0057  0.0745
55540W        W98531  25.595   9.266  14.383 -0.2038 -0.2833 -0.1846
55541W        W98532   5.679   9.531  17.588 -0.1892  0.1112 -0.0843
55542W        W98533   8.353   1.362   4.270  0.0628 -0.0165 -0.1907
55543W        W98534  10.784   0.422  25.364  0.3171  0.1528 -0.1823
55544W        W98535  22.022  11.480  19.130  0.0813 -0.0397 -0.2345
55545W        W98536  10.266  10.682  17.666  0.2096  0.1996 -0.1228
55546W        W98537  27.040  12.352  28.925  0.0942 -0.2393  0.2263
55547W        W98538  11.132  15.008  14.559 -0.2196 -0.2594  0.1473
55548W        W98539   5.766   4.822   0.390 -0.0855 -0.0554  0.0085
55549W        W98540  21.366  31.254  18.408  0.2252  0.0916  0.0586
55550W        W98541  20.912   9.403  23.064  0.0060 -0.0966 -0.0727
55551W        W98542  28.809   3.005  26.670  0.0002 -0.3088 -0.0369
55552W        W98543   8.479  18.656  26.353  0.1171  0.1660  0.4197
55553W        W98544  13.403  17.013  19.050  0.1786  0.1153 -0.0978
55554W        W98545   7.976   9.186  17.839 -0.0971 -0.0804  0.0165
55555W        W98546  28.196   9.678  24.996  0.2948  0.2371  0.0272
55556W        W98547  20.807  20.158  22.749  0.1092  0.1906  0.3121
55557W        W98548  11.172  18.010  17.643 -0.0590  0.1420 -0.1800
55558W        W98549  18.176  12.818  27.884 -0.0744 -0.0604 -0.0093
55559W        W98550  26.512  17.635  28.459  0.3571  0.1113  0.0931
55560W        W98551   9.399  33.409  21.769 -0.3433 -0.0465 -0.0470
55561W        W98552  15.702  15.974  13.401 -0.0786  0.5047 -0.4562
55562W        W98553  10.469  18.868  15.728  0.0434  0.1724 -0.4110
55563W        W98554   5.195  12.819  17.878  0.2119  0.0931 -0.1399
55564W        W98555  28.704   8.767  18.778 -0.2238  0.3192  0.0521
55565W        W98556  31.551  22.148  20.404  0.2363 -0.3239 -0.0138
55566W        W98557  24.263   3.602  22.749 -0.0474 -0.1579  0.0703
55567W        W98558  14.443  18.187  25.766 -0.0511 -0.0424 -0.0235
55568W        W98559   7.344  10.445  21.929 -0.2422 -0.0254  0.2113
55569W        W98560  12.851   8.005  20.748 -0.0980  0.2598  0.1139
55570W        W98561  11.999  28.485  28.816  0.4441 -0.1727 -0.2052
55571W        W98562  18.008  27.061  15.333  0.2506  0.0550 -0.0866
55572W        W98563  16.316  33.642   0.242 -0.2440  0.0401 -0.0757
55573W        W98564   2.117   9.458  19.944  0.0581  0.2332  0.0572
55574W        W98565  15.639  14.934  15.535  0.3469  0.0555 -0.1123
55575W        W98566  34.255  33.178  15.553 -0.0690  0.2419  0.0673
55576W        W98567  17.731  15.471   8.661 -0.0418 -0.1465 -0.0122
55577W        W98568  23.929  19.751   3.929 -0.0079 -0.1000  0.3759
55578W        W98569   5.135  25.056  20.574 -0.0546  0.0395  0.0375
55579W        W98570  33.010   7.401  23.146  0.2984  0.1860 -0.2906
55580W        W98571  10.036   6.998   2.060 -0.0717 -0.0985  0.1023
55581W        W98572   5.365   4.661  16.484  0.0617  0.0771  0.0534
55582W        W98573  20.023   3.946  19.998 -0.3067  0.1261 -0.0419
55583W        W98574  21.675  18.717  14.985  0.0705  0.2011 -0.4869
55584W        W98575   4.155   8.189  16.703  0.2121  0.3583 -0.0558
55585W        W98576  16.500   5.033  22.260 -0.2870  0.0004  0.3583
55586W        W98577  33.527   6.426  27.680 -0.0384 -0.1578  0.1318
55587W        W98578  25.929  22.373  14.132 -0.0017  0.1591  0.0604
55588W        W98579   4.129  14.183   5.185 -0.2336 -0.4083  0.0479
55589W        W98580  28.724  10.826   0.801  0.0029 -0.1303  0.0922
55590W        W98581  21.958   8.578  15.535 -0.0592 -0.3801  0.0736
55591W        W98582  13.049  21.563  21.000 -0.3023  0.0949  0.1686
55592W        W98583  17.973  12.360   5.164  0.4439 -0.0658 -0.1922
55593W        W98584   1.066  21.778   1.167  0.3493  0.1037  0.2421
55594W        W98585  25.231  10.216  21.702  0.1149  0.0946 -0.4923
55595W        W98586  10.496  10.869  27.782 -0.1580 -0.0950  0.0969
55596W        W98587  21.784   4.047  20.523  0.2082 -0.1346 -0.1522
55597W        W98588   3.631  30.040  16.881  0.1329  0.1385  0.0001
55598W        W98589  16.562   6.084   3.015 -0.3093  0.3237  0.0571
55599W        W98590  18.732   2.827  18.369 -0.3261  0.1228 -0.2371
55600W        W98591  11.133  14.144  17.697  0.2109 -0.1189  0.1447
55601W        W98592  14.691   7.861  22.189 -0.0342 -0.1813  0.1100
55602W        W98593  29.326   8.751  16.573  0.1791  0.1033 -0.0367
55603W        W98594  17.914  13.991  22.524  0.1156 -0.1260 -0.0627
55604W        W98595  23.243  17.454  25.752 -0.3537 -0.0327 -0.1299
55605W        W98596   1.552  27.081  15.950  0.0083 -0.2381  0.1053
55606W        W98597   9.843  23.286  14.705  0.2711 -0.2813 -0.0271
55607W        W98598  14.600  33.427  25.585  0.0107 -0.2976 -0.0867
55608W        W98599   5.975   4.327   8.367 -0.1648  0.2108 -0.1789
55609W        W98600  10.012  24.531  22.435  0.0214  0.2598  0.1199
55610W        W98601  20.527   4.348  25.561 -0.1500  0.1446 -0.0580
55611W        W98602  19.298   6.028  16.086 -0.0844 -0.0506 -0.1021
55612W        W98603   7.751  34.767  17.122 -0.0530  0.0834 -0.0663
55613W        W98604  26.896  14.246  14.919 -0.1466  0.0018  0.1326
55614W        W98605  12.652   3.923  25.765  0.0368 -0.0745 -0.1695
55615W        W98606  27.312  14.906  19.259  0.0205 -0.0742 -0.1352
55616W        W98607  32.936  22.732  27.966  0.2009  0.2340 -0.0411
55617W        W98608  22.927  26.440  18.782 -0.3179  0.1366 -0.1430
55618W        W98609   8.081   9.305  21.762  0.1739  0.2334 -0.2531
55619W        W98610  10.795  33.309   4.149 -0.0301  0.0026  0.0861
55620W        W98611  16.852   5.830  26.672 -0.1738  0.1459 -0.2245
55621W        W98612  34.283  20.831   2.676  0.1674  0.0310 -0.0168
55622W        W98613  17.068  12.683   8.401  0.0578  0.0588 -0.1188
55623W        W98614  28.363  34.584  20.896  0.0652 -0.0319 -0.4628
55624W        W98615  15.438  26.100  15.548 -0.0680  0.1693 -0.2351
55625W        W98616   0.060   9.584  19.337 -0.2392 -0.0311  0.1208
55626W        W98617  18.096   1.611  19.555 -0.0143  0.0573 -0.0706
55627W        W98618  15.223   8.952  25.389 -0.0411 -0.3576  0.0297
55628W        W98619  17.704  33.674  14.380 -0.4201 -0.1475  0.0249
55629W        W98620  34.350  19.738  27.429 -0.1870 -0.0335 -0.3683
55630W        W98621   7.143   9.213  26.275 -0.2198  0.1097 -0.1751
55631W        W98622  29.217   5.773  18.447  0.0450  0.0543 -0.4098
55632W        W98623   2.566   3.096   4.230  0.0127 -0.0382 -0.2209
55633W        W98624   6.979  19.414  28.535 -0.0698 -0.1282  0.1504
55634W        W98625  17.892   2.316  24.822  0.3466  0.2135 -0.0826
55635W        W98626  15.518  22.417  20.816 -0.1337  0.1890 -0.1478
55636W        W98627   2.511  31.257  24.233  0.0965 -0.2182  0.0284
55637W        W98628   9.700  22.193  24.311  0.1339 -0.1599  0.1289
55638W        W98629   9.726   3.918  18.394 -0.0280 -0.1301 -0.0238
55639W        W98630  23.466  20.358   2.789 -0.1558  0.1394 -0.0492
55640W        W98631  13.144   7.278  22.278 -0.1419 -0.0872 -0.0295
55641W        W98632  19.244   3.020  21.446 -0.1157  0.1129  0.1856
55642W        W98633  21.803  30.280   1.543  0.2703  0.3033 -0.2232
55643W        W98634  23.870  33.441  20.831  0.0604 -0.0106  0.2300
55644W        W98635  31.359  33.666  27.129  0.0563 -0.1868  0.2160
55645W        W98636  16.350   2.926  14.733 -0.0841 -0.2308 -0.0346
55646W        W98637  31.890   8.457  15.075  0.1561 -0.0631  0.1876
55647W        W98638  20.135  22.216  23.278  0.0696  0.0592  0.0794
55648W        W98639  22.763   9.465  18.118 -0.0735 -0.0282 -0.1448
55649W        W98640  28.218  19.240   6.849  0.0187  0.1779  0.0611
55650W        W98641   7.032  11.252  18.890 -0.2883  0.0562 -0.2334
55651W        W98642  16.379   8.182  15.427  0.0104  0.0314 -0.1212
55652W        W98643   7.220  11.518   1.720  0.2212  0.0805  0.5694
55653W        W98644   9.065   1.002   9.832  0.0801  0.1630  0.1062
55654W        W98645   3.295   5.179  25.900  0.1984  0.0069  0.0753
55655W        W98646   6.744  23.302  27.889 -0.3023  0.1870  0.2163
55656W        W98647  22.206  26.530  17.100 -0.2276 -0.0653  0.0681
55657W        W98648   9.343  21.402  17.241  0.0086  0.1253 -0.0195
55658W        W98649  20.418  26.840  22.996  0.0762  0.0887 -0.3504
55659W        W98650   4.696   9.927  21.780 -0.0632 -0.3554 -0.0830
55660W        W98651  32.398  23.381  16.179 -0.1060  0.1165  0.1656
55661W        W98652  22.139  20.330  14.773  0.0064  0.3127  0.1168
55662W        W98653  15.990  17.169  25.702 -0.2021  0.1181  0.2251
55663W        W98654  14.360  13.102  17.180  0.1064  0.1387  0.1685
55664W        W98655   2.011  12.443  17.914 -0.0813  0.1149 -0.0674
55665W        W98656  31.706  15.950  26.869  0.1343  0.1478 -0.3786
55666W        W98657  11.790   0.113  28.744 -0.0614 -0.0562 -0.2295
55667W        W98658  16.505  31.518  29.036 -0.1193  0.1222  0.2525
55668W        W98659  13.647  27.795  17.910  0.3914 -0.0738 -0.3179
55669W        W98660  17.337  11.213  19.732 -0.3431 -0.0653  0.0926
55670W        W98661   9.559  19.451  21.624  0.2042 -0.0047  0.0208
55671W        W98662  24.147   5.787   6.468  0.2232 -0.0725 -0.0310
55672W        W98663   6.753   5.895  18.142 -0.0485  0.4360  0.2336
55673W        W98664   1.704  13.476   3.155  0.0869  0.0939  0.2318
55674W        W98665  10.476   6.914  19.694  0.0397 -0.2065 -0.1233
55675W        W98666   2.611  17.819  22.581 -0.1075 -0.1830 -0.0283
55676W        W98667  31.803  10.524  27.578  0.1767  0.1708 -0.1358
55677W        W98668  10.717  21.311  14.230 -0.0607 -0.2017 -0.1876
55678W        W98669  11.356  24.341   1.708  0.2038  0.5359  0.0076
55679W        W98670  32.860   4.858   2.898  0.1712  0.1790 -0.1334
55680W        W98671  17.493  11.077  22.311  0.3079  0.1201 -0.1529
55681W        W98672  22.182  15.499  19.414  0.2644 -0.2968  0.2599
55682W        W98673  33.068   3.186  17.229  0.2059 -0.0437 -0.3311
55683W        W98674   8.845   8.854  24.940 -0.1659 -0.0792 -0.3039
55684W        W98675  20.418   6.417  14.658 -0.2094 -0.1547  0.1554
55685W        W98676   0.253  32.641  19.749 -0.0172 -0.0389 -0.0537
55686W        W98677  17.347   9.160  26.139 -0.4340 -0.0792 -0.0068
55687W        W98678  20.287  12.175  16.071  0.4177 -0.0254 -0.1133
55688W        W98679   6.653  21.109  17.044  0.1277 -0.1972 -0.0349
55689W        W98680  28.304   5.017  15.929  0.3893  0.1627 -0.2635
55690W        W98681  12.405  10.288  11.613  0.1756  0.1270  0.3349
55691W        W98682  13.927   7.445  16.613 -0.0865  0.0168  0.0622
55692W        W98683  22.518  17.889  27.384 -0.1304 -0.2762 -0.2953
55693W        W98684  12.271  11.990  21.463 -0.3113  0.1556  0.1401
55694W        W98685  24.008  10.221  20.579  0.1591 -0.0043 -0.0252
55695W        W98686  12.430  34.426  17.533 -0.0827  0.1472 -0.0463
55696W        W98687   5.611  18.284  23.441 -0.2002  0.1309 -0.0127
55697W        W98688  16.107  34.608  22.633  0.3450  0.1941 -0.1240
55698W        W98689  12.261  20.865  15.198 -0.1833  0.1747  0.0398
55699W        W98690  11.621  12.905  21.310  0.1314  0.0271 -0.0140
55700W        W98691   8.607   0.739  24.063 -0.3908  0.0835 -0.1992
55701W        W98692  20.698   4.595  24.503 -0.0880 -0.0861 -0.0228
55702W        W98693  23.995   1.767   5.958  0.0551  0.0525  0.0125
55703W        W98694  20.058  14.580  15.614 -0.3287  0.6433 -0.0247
55704W        W98695  26.401   5.582  21.718  0.1304 -0.1493 -0.0439
55705W        W98696   6.806  10.118  17.851 -0.2209 -0.1949  0.1785
55706W        W98697  12.829   5.709   4.928 -0.0767  0.0043  0.2228
55707W        W98698  15.809  27.697  21.508 -0.3320  0.1767  0.2997
55708W        W98699   9.534  22.269   3.629  0.2479 -0.2816 -0.1175
55709W        W98700  19.807   1.087  13.887 -0.1484  0.0818 -0.2653
55710W        W98701  12.564  17.661  15.991 -0.1999  0.4089  0.0530
55711W        W98702   7.207  34.044   0.111 -0.2290  0.2989  0.2920
55712W        W98703   6.830   2.834  23.277  0.0225 -0.0808  0.1512
55713W        W98704  18.557   3.796  21.169  0.1437 -0.1870  0.0513
55714W        W98705  10.599  10.263  21.786  0.1403  0.1396  0.1202
55715W        W98706  16.650  25.449  27.642 -0.2747 -0.1641 -0.0146
55716W        W98707   4.987  23.665  23.426 -0.0827  0.1448 -0.1667
55717W        W98708  17.126   2.775   5.213  0.2195 -0.0593 -0.1344
55718W        W98709  11.039  16.618  13.890 -0.1492 -0.0440  0.1526
55719W        W98710  15.119   4.944   0.429 -0.0715 -0.1740  0.1069
55720W        W98711  10.380  33.325  26.679 -0.3625 -0.0419 -0.0161
55721W        W98712   7.515  14.340  22.436 -0.0737  0.1857 -0.0554
55722W        W98713  29.471   8.592  25.970  0.0341  0.0742  0.0347
55723W        W98714  16.813   4.730  23.895  0.3067 -0.1385 -0.0733
55724W        W98715  13.117  32.619  19.622  0.0313  0.1130 -0.2281
55725W        W98716  17.577  29.977  17.121  0.1681  0.1776 -0.1598
55726W        W98717  25.789  21.904  13.863 -0.1340 -0.1443 -0.0970
55727W        W98718   8.941  32.331  18.927 -0.0099 -0.0925 -0.0850
55728W        W98719   1.705  19.403  24.071  0.0509  0.0677  0.1480
55729W        W98720  16.656   7.593  22.400 -0.0343  0.0529  0.0289
55730W        W98721  19.396   1.914  21.608 -0.1974  0.0345  0.0598
55731W        W98722   9.690   8.217  17.787  0.1585 -0.5072 -0.0392
55732W        W98723  12.807   0.639  27.787 -0.1022  0.1906 -0.1648
55733W        W98724   0.436   4.470  20.549 -0.1098 -0.1158  0.0808
55734W        W98725   7.309  12.841  24.858 -0.0355 -0.3082  0.0092
55735W        W98726  32.354  13.144  27.459 -0.0951 -0.0376  0.0294
55736W        W98727  23.532   3.115  18.935  0.1454  0.0250 -0.2941
55737W        W98728  27.385  28.386  26.828  0.0460  0.1823  0.1392
55738W        W98729  24.631   1.990  16.415 -0.0106 -0.2357 -0.1145
55739W        W98730  12.557   9.593  18.326  0.1815 -0.3548 -0.2201
55740W        W98731  10.423   6.686   9.979 -0.1126 -0.0113 -0.4867
55741W        W98732  16.032  13.472   8.419  0.0907 -0.1894 -0.2053
55742W        W98733   2.703  30.620  23.924 -0.0703 -0.1684 -0.0277
55743W        W98734  24.666  11.341   2.967 -0.0752 -0.0165 -0.2040
55744W        W98735  16.595   7.124  27.039 -0.0245  0.2391  0.3772
55745W        W98736  17.369   2.764  16.981 -0.3783 -0.1568 -0.0442
55746W        W98737  28.955  28.408   2.746  0.2005  0.1884  0.3376
55747W        W98738  27.786  13.207  14.149 -0.0122 -0.1002  0.2935
55748W        W98739   5.125  11.171  19.454 -0.1362  0.1996  0.1951
55749W        W98740  20.120  31.219   6.470  0.1464  0.0518  0.5404
55750W        W98741   9.593   8.990  19.686  0.2676  0.1478  0.1218
55751W        W98742  32.111   6.908  18.861 -0.0665  0.1919  0.1089
55752W        W98743   9.327   1.789  20.194  0.1817 -0.1594  0.0956
55753W        W98744  11.315  10.584   0.471  0.0527 -0.2588 -0.4346
55754W        W98745  12.529   7.279   0.332  0.1713  0.3194 -0.3179
55755W        W98746  13.380  34.185   7.073  0.2506 -0.1873 -0.0020
55756W        W98747  29.824  10.805  20.499  0.1807 -0.0569 -0.3247
55757W        W98748  19.857  19.356  24.943  0.2669  0.0814 -0.4948
55758W        W98749  13.377  33.001   9.499 -0.2820 -0.1129  0.1187
55759W        W98750  27.340  22.105  10.202  0.0345  0.0101  0.1453
55760W        W98751  18.085   2.811   2.145  0.0222  0.0997 -0.3364
55761W        W98752   9.399   1.733  26.987 -0.2574  0.1261  0.0100
55762W        W98753   8.336   2.552  23.600  0.1990 -0.1108 -0.0704
55763W        W98754  22.370  29.936  16.623 -0.0952  0.0841  0.1408
55764W        W98755   2.425  10.829   0.981  0.0211  0.2743  0.0778
55765W        W98756   9.610   6.332  10.662  0.1538 -0.0235 -0.0387
55766W        W98757  11.543  12.428  14.809  0.1994  0.0573  0.1655
55767W        W98758  10.688  29.886   9.568 -0.1379  0.0838  0.0765
55768W        W98759   7.374  11.894  15.574 -0.0171 -0.2713 -0.2307
55769W        W98760  20.122   3.843  26.364  0.0055 -0.1062  0.4453
55770W        W98761   2.945   8.301  16.025 -0.1113  0.0176  0.2224
55771W        W98762  24.055  15.614  29.252  0.0700 -0.1905 -0.0786
55772W        W98763  15.759  12.056  14.167  0.0770  0.1437  0.0369
55773W        W98764   5.454  12.435  23.357  0.4391  0.0417 -0.0174
55774W        W98765  18.099  17.238  21.171 -0.1037  0.1645  0.0438
55775W        W98766  21.733  15.658  20.623 -0.0773 -0.1828 -0.0981
55776W        W98767  20.001  29.036   1.843  0.3958 -0.0209  0.0167
55777W        W98768   1.277   4.870  15.607  0.0041 -0.1681  0.0166
55778W        W98769  31.831  34.386  16.230  0.0251 -0.1985  0.1082
55779W        W98770   9.442   2.757  24.595 -0.1051 -0.2802 -0.1818
55780W        W98771  20.220  34.034   8.129 -0.2407 -0.0120  0.1382
55781W        W98772  24.351   5.324   1.080 -0.0943  0.0360 -0.3258
55782W        W98773  12.773  12.430   2.387  0.1272  0.2134  0.0732
55783W        W98774  31.938  21.152  23.977  0.0831  0.0655  0.0985
55784W        W98775  15.004  11.634   0.970 -0.1231  0.1437  0.0735
55785W        W98776  23.930   5.680  18.969 -0.3086  0.0990 -0.1461
55786W        W98777  29.308  21.340   3.057  0.0593  0.0999 -0.1162
55787W        W98778   3.349   7.988  23.369  0.0018 -0.1774  0.1347
55788W        W98779  18.160   1.605   0.063 -0.1781 -0.2828  0.2694
55789W        W98780  13.419  33.390  19.040  0.0239 -0.0045 -0.3786
55790W        W98781  27.555  15.825  20.373  0.0760 -0.2796  0.2238
55791W        W98782  34.078  11.015  16.339 -0.0880 -0.1937  0.1596
55792W        W98783  13.687  30.632  18.266 -0.0807  0.2680  0.2789
55793W        W98784  17.339  14.128  16.289 -0.1827 -0.1574  0.0170
55794W        W98785   8.723  25.979  15.622  0.1204  0.2447 -0.2815
55795W        W98786  21.874  14.412  18.031 -0.1927  0.0119 -0.2138
55796W        W98787  23.638  34.775  20.444  0.2380  0.0132 -0.2325
55797W        W98788  13.795   4.215  20.323  0.1276 -0.1910 -0.0206
55798W        W98789   7.093  33.211  28.762  0.2303 -0.0755 -0.1805
55799W        W98790  25.375   0.103  26.583  0.0679  0.2006  0.2984
55800W        W98791  12.701  13.853  25.733 -0.2159 -0.1049 -0.4459
55801W        W98792  33.454   9.867   1.730 -0.3258  0.0530 -0.1886
55802W        W98793  18.135  11.433  24.810 -0.1367  0.2063 -0.1032
55803W        W98794  29.033   5.514  22.996  0.0327  0.0570 -0.5378
55804W        W98795  11.797  34.766  17.258 -0.0303  0.4655 -0.1940
55805W        W98796  20.525  29.711  19.602 -0.1104  0.0104 -0.3565
55806W        W98797  14.398  18.780  15.665  0.1043 -0.0222  0.0022
55807W        W98798   7.902   1.272  19.211 -0.1581 -0.0396 -0.1997
55808W        W98799   1.265  29.897   4.563  0.0044 -0.3294 -0.0432
55809W        W98800   6.533   4.368  24.035  0.0628  0.0008  0.1752
55810W        W98801  24.002   4.710  14.442  0.2174 -0.0973  0.1138
55811W        W98802   6.992  16.393   4.612 -0.3160  0.1631 -0.0663
55812W        W98803  19.930   8.863  27.065 -0.2223  0.0973  0.2112
55813W        W98804   4.909   9.221   1.289 -0.2656 -0.3706 -0.2375
55814W        W98805  18.851   4.752  14.272 -0.2254  0.0060  0.3348
55815W        W98806   8.306   3.164   7.370  0.0616 -0.0412  0.1265
55816W        W98807  14.503  29.256  24.743  0.4268  0.0954 -0.1881
55817W        W98808  10.761  33.065   3.311  0.0554 -0.0506 -0.2638
55818W        W98809  33.784  16.216  26.960  0.0657 -0.0522 -0.1118
55819W        W98810   3.176  14.593   8.973  0.0630  0.1529  0.1221
55820W        W98811  17.614  10.842  20.736  0.1314 -0.0876 -0.2533
55821W        W98812  16.743   6.611  21.268  0.0209  0.2004 -0.1388
55822W        W98813  10.569   6.978  21.644  0.1204 -0.4596 -0.1064
55823W        W98814   6.936   8.628   0.205  0.0904  0.1382 -0.1027
55824W        W98815  11.845  23.515  19.676 -0.1352  0.3384  0.1312
55825W        W98816  31.176  28.963  16.406 -0.1697  0.0619  0.1256
55826W        W98817   7.841  29.140  16.361  0.0750 -0.1489 -0.0895
55827W        W98818  19.020  10.315  14.741 -0.1227 -0.1604 -0.0534
55828W        W98819  28.374  21.730  24.011 -0.1059  0.1786 -0.0750
55829W        W98820   7.353  14.775  20.893  0.1194  0.0539 -0.0672
55830W        W98821  17.453   3.265  16.737 -0.0152  0.1793 -0.0686
55831W        W98822  33.343  14.664  20.633  0.0379 -0.1067  0.0588
55832W        W98823  34.692  13.373  11.604  0.1293  0.0464 -0.1412
55833W        W98824   9.006   3.221   5.848 -0.3247 -0.2863 -0.3213
55834W        W98825   1.098  22.069  23.234 -0.2563  0.1600 -0.1323
55835W        W98826   5.245   7.797   6.369 -0.1083 -0.1176 -0.0866
55836W        W98827   8.794  27.328  24.445  0.3549 -0.0482 -0.3998
55837W        W98828  16.911  32.777  22.415 -0.2292 -0.1843 -0.1975
55838W        W98829  34.261   6.702   9.743 -0.0250  0.0601  0.0666
55839W        W98830  33.230   4.007  17.303 -0.0507 -0.0453  0.2514
55840W        W98831   4.942  15.814  28.794 -0.0348 -0.1820  0.2513
55841W        W98832  27.289   5.072   9.145 -0.1342 -0.2408 -0.2867
55842W        W98833  22.863  11.340  15.000  0.1690  0.2778 -0.1345
55843W        W98834  17.084  13.367  14.396 -0.1105 -0.2530 -0.0828
55844W        W98835  32.942   6.132   7.781 -0.1313 -0.0913 -0.1742
55845W        W98836  11.330  16.089  10.445 -0.0585  0.0235 -0.2906
55846W        W98837  14.067  14.469  21.394  0.2151 -0.0741  0.3163
55847W        W98838  24.852   4.572   6.275  0.2289 -0.0687 -0.0147
55848W        W98839  11.674  12.058  20.739 -0.2497 -0.1430 -0.0024
55849W        W98840   0.495  24.349  17.305  0.0958  0.0199 -0.3353
55850W        W98841  15.174  14.881   6.445  0.1825  0.0022 -0.1938
55851W        W98842  13.406   7.504   6.665 -0.0264  0.2178 -0.1712
55852W        W98843   9.411  31.126  10.352  0.3010  0.1971 -0.0100
55853W        W98844  13.178   2.347  23.633 -0.2012 -0.2521 -0.2710
55854W        W98845   0.459  11.483  23.917 -0.0723  0.3510 -0.0073
55855W        W98846  20.789   8.989  16.558  0.1099 -0.0422  0.0908
55856W        W98847   9.803  22.745  17.403 -0.0628  0.2911  0.1146
55857W        W98848  10.043   5.145  17.691 -0.2405  0.3315 -0.1013
55858W        W98849  30.598   1.680  20.985 -0.2088 -0.0134 -0.0414
55859W        W98850  18.696   9.502  17.693 -0.2008 -0.1843  0.1435
55860W        W98851  31.417   6.422   3.535  0.1555 -0.2880 -0.0006
55861W        W98852  25.033  28.879   5.802  0.3360 -0.1169  0.2057
55862W        W98853  33.353   2.209  21.579 -0.3196 -0.0038 -0.1124
55863W        W98854  17.113  12.958  20.083 -0.3949 -0.1008 -0.3963
55864W        W98855  13.736   0.549  21.036  0.3330  0.0615  0.2745
55865W        W98856  13.684  21.710   4.933  0.2276 -0.4747  0.0580
55866W        W98857  16.738   5.309   3.274  0.0736 -0.1105 -0.1456
55867W        W98858   7.500   5.668   1.182 -0.0919 -0.3874  0.0504
55868W        W98859   6.169   9.195  26.813 -0.3965 -0.0876 -0.0803
55869W        W98860  25.641   3.177  14.618 -0.0138 -0.2726  0.0163
55870W        W98861  14.073  12.051  24.214  0.2525 -0.1299  0.1900
55871W        W98862  33.575  15.607  28.109  0.0177  0.2787  0.0927
55872W        W98863  13.860  33.798  25.345  0.0437  0.1776 -0.0879
55873W        W98864  21.628  26.285  19.346 -0.1810  0.0408 -0.0845
55874W        W98865  19.491  18.281   5.980  0.1220 -0.2974 -0.1102
55875W        W98866  15.567   1.630   2.006  0.2682 -0.2158 -0.0338
55876W        W98867  16.172  26.675  23.529 -0.1029 -0.0312  0.0312
55877W        W98868  29.273  24.398  18.761 -0.0298  0.0812  0.2539
55878W        W98869   4.837   6.672   4.333 -0.1071  0.0354  0.0573
55879W        W98870  11.998   2.763   2.516 -0.2450  0.3104 -0.0853
55880W        W98871  30.248  15.439  20.309  0.0721 -0.1497  0.2636
55881W        W98872  31.424   2.364   5.137 -0.0175  0.1750  0.1933
55882W        W98873  17.259   6.791  24.451 -0.3273 -0.1404 -0.0806
55883W        W98874   2.111  18.063   2.878  0.0827 -0.1818 -0.0276
55884W        W98875  18.566  16.552   3.153 -0.1429 -0.2327 -0.0205
55885W        W98876  34.681  10.124  20.103  0.2634 -0.0408  0.1786
55886W        W98877  15.943  26.981  24.413  0.0512 -0.1121  0.0202
55887W        W98878   0.761  18.092  28.058 -0.1282  0.0604  0.0263
55888W        W98879   8.585  22.994  16.089 -0.2196 -0.1725 -0.1610
55889W        W98880   7.181   9.496  19.620  0.0368  0.0221 -0.1506
55890W        W98881   3.123  19.556  17.982 -0.0299  0.2010  0.0211
55891W        W98882  12.205  13.532   3.382 -0.0498 -0.1309 -0.3381
55892W        W98883  33.159  25.579  26.334 -0.3421 -0.0662 -0.0671
55893W        W98884   4.542  31.313  23.871  0.0144 -0.1189  0.1441
55894W        W98885  14.849  30.639  21.226 -0.0706  0.4766  0.1727
55895W        W98886  26.497   6.984  27.796  0.0719  0.3795  0.0703
55896W        W98887  19.724  19.972  19.146  0.1397  0.0348  0.1136
55897W        W98888  20.668  19.581   7.399 -0.1408 -0.3565 -0.0151
55898W        W98889  27.893  32.076  13.320  0.2266  0.1244 -0.2267
55899W        W98890  32.388  11.838   3.295  0.0531  0.0253 -0.1414
55900W        W98891  13.926  24.289   0.923  0.0283  0.1416 -0.1536
55901W        W98892   3.571  21.376  23.189 -0.0759  0.0460  0.2798
55902W        W98893  11.710  16.814   4.343  0.1294  0.1091 -0.1038
55903W        W98894  27.850  12.131  20.646  0.1559  0.0647 -0.1391
55904W        W98895   8.104   7.260   5.538  0.0167  0.0212 -0.0159
55905W        W98896  22.656   5.851   4.932  0.0490 -0.0041 -0.0347
55906W        W98897   6.492   6.442  19.848 -0.0858 -0.1130  0.0986
55907W        W98898  20.488  28.047   4.699 -0.1236  0.1525 -0.2337
55908W        W98899  11.368  11.022   0.180 -0.2537  0.1794  0.0110
55909W        W98900  17.965  19.203   2.164 -0.1738  0.2912 -0.0797
55910W        W98901  24.381  19.570  21.744 -0.1142 -0.1710  0.2344
55911W        W98902  17.201   4.230  22.477 -0.2644  0.2315  0.0904
55912W        W98903   3.033   8.959  26.565 -0.0775 -0.2814  0.2805
55913W        W98904   6.087  14.878  16.511 -0.0786 -0.0202  0.0146
55914W        W98905   1.301  24.351   1.827 -0.0111  0.2074  0.1727
55915W        W98906  21.844  24.666  14.264  0.1043 -0.0427  0.2323
55916W        W98907  13.708   2.831  19.722 -0.1392  0.2519 -0.1537
55917W        W98908  29.681   4.131  18.940  0.2756 -0.5168 -0.2530
55918W        W98909  22.978   1.910  26.273  0.0253  0.1656  0.3324
55919W        W98910  17.015   1.460  18.253  0.0680 -0.1745  0.0822
55920W        W98911  22.669   0.028  26.718  0.2102  0.1684 -0.1875
55921W        W98912  19.349   3.547   0.327 -0.2882 -0.0473 -0.2055
55922W        W98913  22.438  12.944  19.088 -0.1047  0.1362 -0.3859
55923W        W98914  13.429  13.264   0.991  0.0942  0.1073 -0.1424
55924W        W98915   5.455  10.120  19.613 -0.1446 -0.0792 -0.1061
55925W        W98916  15.699  28.018  16.677  0.1358  0.1469  0.2449
55926W        W98917  20.764   5.632  18.418 -0.1889  0.0957 -0.1213
55927W        W98918  11.778   7.188  23.123  0.0017 -0.4379 -0.2810
55928W        W98919  15.477   4.078   2.668  0.1949  0.1956  0.1730
55929W        W98920  30.468   1.825  15.978 -0.0358 -0.0528 -0.1900
55930W        W98921  13.187   4.793   3.931 -0.1701  0.1518 -0.0635
55931W        W98922   3.544  10.113   6.458  0.3383  0.1525  0.1053
55932W        W98923  12.916  16.062  14.306 -0.3826  0.0572 -0.0776
55933W        W98924   3.807  32.020   5.949  0.1886 -0.0020  0.2940
55934W        W98925  25.355  19.838  15.634 -0.0402 -0.1908 -0.2152
55935W        W98926  18.913  30.766  26.054 -0.1552  0.0714  0.0821
55936W        W98927  26.838   7.665   1.402 -0.0800 -0.0517 -0.3376
55937W        W98928  22.089   7.378   1.813 -0.0254 -0.0712  0.0225
55938W        W98929  11.850   8.148  21.895  0.0961 -0.0229 -0.0920
55939W        W98930  22.801  17.163  27.542  0.0208  0.0010 -0.1653
55940W        W98931  16.635   2.347  28.372  0.1873 -0.0607 -0.1716
55941W        W98932  29.326  24.627  15.568  0.3302 -0.0252 -0.0085
55942W        W98933   4.055  27.628  19.251 -0.1861 -0.0662 -0.0190
55943W        W98934  14.064   1.107  23.490  0.2423  0.0563  0.2204
55944W        W98935  16.497   2.332  26.662  0.1795  0.1284  0.2690
55945W        W98936   6.175   3.825  29.158  0.1127 -0.2448 -0.0986
55946W        W98937   7.304   0.863  20.466  0.2746 -0.3027 -0.1421
55947W        W98938  33.015   8.727  25.141  0.2439 -0.2278 -0.2073
55948W        W98939   6.066  15.294  21.066  0.2503 -0.0269 -0.1786
55949W        W98940  19.628   2.221  27.553  0.2287  0.0309 -0.0515
55950W        W98941  17.504  29.649   3.407 -0.0518 -0.0279 -0.0788
55951W        W98942  11.174   7.707   6.488 -0.0152 -0.1046 -0.0179
55952W        W98943  27.293  28.386  14.090 -0.0795  0.3651 -0.1598
55953W        W98944   2.711  21.233  23.446  0.0288 -0.0264  0.0099
55954W        W98945  14.780  10.463   4.638  0.0156 -0.1472 -0.4499
55955W        W98946   9.406   8.612  27.415  0.1439  0.1345 -0.0914
55956W        W98947  11.393   9.492  24.573 -0.0264 -0.0584  0.0185
55957W        W98948  14.429  31.728   6.513 -0.0533 -0.0176 -0.0026
55958W        W98949  16.882   4.617   6.123 -0.0026 -0.2512  0.3262
55959W        W98950   6.941   9.303  22.733 -0.0497  0.1222 -0.0037
55960W        W98951   7.829  26.890  21.746 -0.1781  0.0306 -0.1411
55961W        W98952  28.495  19.955  14.751 -0.5103 -0.2226 -0.1056
55962W        W98953  12.602  26.726  22.537  0.1243  0.0063  0.0486
55963W        W98954  19.940  34.562   3.162 -0.1541  0.0382  0.0856
55964W        W98955   4.783  29.913  26.320  0.0231 -0.1871  0.0027
55965W        W98956  27.233  20.686  14.815  0.1433 -0.0004  0.1527
55966W        W98957  23.793  26.554  14.406  0.1562 -0.2665 -0.0007
55967W        W98958  13.254  10.538   4.933  0.2373  0.0080 -0.0767
55968W        W98959   9.971  14.524  24.676 -0.1052  0.1056  0.0540
55969W        W98960  33.248  18.232   0.618  0.3074  0.3088 -0.4080
55970W        W98961  10.917  14.125  16.875 -0.1255 -0.2029 -0.2447
55971W        W98962  16.871   4.915   3.596  0.1428 -0.2149  0.3982
55972W        W98963  18.999  21.861  16.278 -0.1289 -0.0116 -0.2317
55973W        W98964   5.824  14.633  16.103  0.2366 -0.0798  0.2120
55974W        W98965  17.994   3.702  27.408  0.1004 -0.3042 -0.0862
55975W        W98966  22.239  20.004   3.123  0.0933  0.3344  0.1468
55976W        W98967   4.501  12.685   0.217  0.0022  0.2097  0.0386
55977W        W98968  30.000   5.632  21.803  0.2222 -0.0592 -0.1842
55978W        W98969  33.777  13.232  27.912 -0.0453 -0.2024 -0.1931
55979W        W98970  17.648  15.673  13.518  0.0219 -0.3147 -0.1130
55980W        W98971  34.692   1.925   7.659 -0.1614 -0.1416  0.0243
55981W        W98972   2.071  34.403  20.570  0.1984  0.1716 -0.1575
55982W        W98973  14.367   0.232   4.222  0.1593 -0.1130  0.0482
55983W        W98974  10.624   2.277  26.315  0.2502 -0.3112 -0.1428
55984W        W98975   7.896  15.623  15.401 -0.0867  0.0338  0.1297
55985W        W98976  11.260   8.836  17.378 -0.3193  0.0986 -0.1408
55986W        W98977  14.885  32.083   2.596  0.3087  0.0953 -0.0160
55987W        W98978  11.788   5.567  20.896  0.0207 -0.0397  0.1434
55988W        W98979   8.202  14.455  25.757 -0.0624 -0.2398 -0.2277
55989W        W98980  17.757  32.247  24.582 -0.0266 -0.1205 -0.0717
55990W        W98981  20.898   9.425   0.254  0.0730  0.0393  0.0015
55991W        W98982   7.775   5.828   0.128  0.0706 -0.2127  0.0109
55992W        W98983  10.783  30.464  21.070  0.1451  0.1902 -0.2958
55993W        W98984  23.446  25.900  25.605 -0.1372  0.0746  0.0769
55994W        W98985  11.009  26.537  16.142 -0.0477 -0.2019  0.0823
55995W        W98986  34.137  21.626  25.837  0.2691 -0.0302  0.0252
55996W        W98987  32.616   7.752  18.741 -0.1797 -0.0719  0.0997
55997W        W98988  33.840   6.049  26.153 -0.1506  0.1692 -0.3943
55998W        W98989  18.591   9.254  27.872 -0.1403  0.1969 -0.1339
55999W        W98990  11.433  15.058   2.660 -0.0522 -0.0519 -0.3901
56000W        W98991  31.030   4.158   5.192 -0.1229 -0.0206 -0.0905
56001W        W98992   9.418  28.282  19.554 -0.2293 -0.0489 -0.2597
56002W        W98993  22.837   4.075  21.670  0.1053  0.2085  0.1269
56003W        W98994  17.315  21.632  14.386  0.2946 -0.2038 -0.0911
56004W        W98995   9.167  24.443   9.364  0.0700  0.2882 -0.1519
56005W        W98996  22.906  22.603  27.234  0.1771 -0.0785  0.1895
56006W        W98997   6.842  22.081  14.590 -0.0138 -0.2974 -0.0997
56007W        W98998  10.926  20.248   3.281 -0.4076 -0.3088  0.0405
56008W        W98999  16.690  32.662  19.083  0.0548 -0.1502  0.1141
56009W        W99000  10.192   2.215   1.665  0.1746 -0.2692 -0.1768
56010W        W99001   6.176  14.340  20.026  0.3045 -0.2324 -0.0482
56011W        W99002  14.043   6.929  16.944 -0.1673 -0.1346 -0.0013
56012W        W99003   5.334  31.191   9.609  0.0077 -0.2337 -0.1139
56013W        W99004  27.557  15.794  21.409  0.0516  0.1161  0.0199
56014W        W99005  24.151  26.534  26.833  0.0985 -0.0728  0.1938
56015W        W99006   9.279   2.005   5.701 -0.1302 -0.0275 -0.1778
56016W        W99007  20.418   6.831   5.327 -0.0126 -0.1056 -0.1396
56017W        W99008   3.304  16.686  23.100 -0.1817 -0.1835 -0.0957
56018W        W99009   9.946  28.447   9.493  0.1728 -0.1110 -0.1149
56019W        W99010  24.080   7.074  28.373 -0.0499  0.1168 -0.1278
56020W        W99011  30.996   7.919   1.494  0.1707 -0.0425 -0.0564
56021W        W99012  29.961  33.690   5.257 -0.0593 -0.0717 -0.0743
56022W        W99013   5.009  31.175  25.312 -0.1458  0.2323  0.2508
56023W        W99014   5.204  33.772  19.187  0.2435  0.1253  0.2292
56024W        W99015  31.356   4.095  17.463  0.2123 -0.0739 -0.1001
56025W        W99016  10.396   8.886  28.464  0.5251  0.0883  0.2483
56026W        W99017  22.627  26.451   6.168  0.0493  0.1479 -0.1862
56027W        W99018  11.308   9.089  16.903  0.0085  0.1137 -0.0812
56028W        W99019  27.544   4.404  23.961 -0.3842 -0.0744  0.0479
56029W        W99020   4.944  28.926   2.222  0.2733 -0.1087 -0.1442
56030W        W99021  22.267   8.619   8.914  0.0255  0.1599  0.0436
56031W        W99022   6.409  25.189   5.827 -0.3609  0.1336  0.1648
56032W        W99023  12.047  17.927  14.698  0.4335 -0.3544 -0.1649
56033W        W99024  11.925  33.099  18.479  0.0283  0.0240  0.1891
56034W        W99025  13.612  32.254   4.833 -0.1670 -0.0516  0.2147
56035W        W99026  12.548  28.988  15.526 -0.2136 -0.0440  0.2120
56036W        W99027  23.340   8.854  26.476 -0.3346 -0.0093 -0.2013
56037W        W99028  21.552   7.767  15.288 -0.2419  0.0426 -0.2346
56038W        W99029   8.981   9.944  16.533  0.1429 -0.0712 -0.2832
56039W        W99030   9.228   7.250  21.914  0.0676 -0.0782  0.3584
56040W        W99031  25.274   8.840  23.756  0.1846  0.0281  0.1840
56041W        W99032  29.018   7.213   3.545 -0.3546 -0.0092 -0.0517
56042W        W99033  15.143   5.814   9.356  0.2551 -0.0996  0.0678
56043W        W99034  27.932  29.601  14.032 -0.0523  0.1474  0.2580
56044W        W99035  14.673  21.487  16.017 -0.0962  0.1118 -0.1518
56045W        W99036   8.511  11.339   7.614 -0.1044 -0.0122  0.3439
56046W        W99037  13.820   2.485   2.684 -0.0112  0.0038 -0.1926
56047W        W99038  10.701  31.085  26.232  0.0948  0.3609  0.0781
56048W        W99039  24.044  20.997  22.772 -0.2364 -0.1602  0.2706
56049W        W99040   6.144   8.120  21.961 -0.2171 -0.1286 -0.4485
56050W        W99041  26.523   9.164  23.682 -0.1016  0.2656  0.3885
56051W        W99042  27.843  21.202  13.903  0.1673 -0.4140  0.1508
56052W        W99043  34.777  34.348   1.700  0.0684 -0.0043 -0.1066
56053W        W99044  20.839   4.652  20.264 -0.0503  0.0437 -0.2328
56054W        W99045  25.884  15.862  16.408  0.4999  0.1525 -0.3887
56055W        W99046  20.625  33.722  20.930 -0.0066  0.3359  0.1366
56056W        W99047  19.065   4.525   3.936  0.1204 -0.1197  0.0584
56057W        W99048  13.569  16.249  23.088  0.2721  0.0961  0.1419
56058W        W99049  21.285  13.388   8.527 -0.1050  0.0038 -0.2181
56059W        W99050  17.619  16.315  15.184  0.0818  0.1138  0.0660
56060W        W99051  27.502  19.529  20.086 -0.0600  0.1866  0.1706
56061W        W99052  29.868   1.271  25.175  0.1080 -0.3009  0.3118
56062W        W99053  33.104   5.000  24.101  0.0218  0.0307 -0.0156
56063W        W99054  17.130  24.369   1.983  0.1477  0.3530 -0.1793
56064W        W99055  23.241  24.025  18.515  0.2137  0.0486  0.2634
56065W        W99056   6.709   7.921  25.607  0.1223  0.0710 -0.1468
56066W        W99057  20.716  17.373  28.046  0.0252  0.1327  0.0416
56067W        W99058   7.495  13.829  25.027  0.3087 -0.0430 -0.2936
56068W        W99059  14.659   6.336  28.726 -0.0794  0.1856 -0.0714
56069W        W99060  12.521   5.511  16.092  0.0861 -0.0359  0.1321
56070W        W99061  26.596   3.608  26.850  0.0235 -0.2753  0.0700
56071W        W99062  11.683  12.896  19.351  0.3021 -0.0883 -0.2206
56072W        W99063  31.566  22.565  26.455 -0.2449 -0.2472  0.0662
56073W        W99064   9.756  11.875  21.356  0.0474  0.0039 -0.2494
56074W        W99065  15.092  26.456  15.742  0.2206  0.2002 -0.1307
56075W        W99066  19.037  33.259  25.171 -0.1727  0.0602 -0.0873
56076W        W99067  10.812  31.356   8.642  0.1018 -0.4307  0.1539
56077W        W99068  34.269  18.233  20.432 -0.3023  0.4254  0.0151
56078W        W99069  18.962  30.502  15.164 -0.2501 -0.0475  0.2528
56079W        W99070   2.514   4.461  23.884 -0.0723 -0.1982  0.0125
56080W        W99071  13.426   4.711  26.922 -0.3285 -0.1205 -0.4881
56081W        W99072   4.853   7.171  14.811 -0.1774 -0.2628 -0.2570
56082W        W99073  17.634  30.976  21.399 -0.3908  0.2383 -0.2240
56083W        W99074   9.679  10.411  19.602 -0.1444 -0.3128  0.0274
56084W        W99075  34.382  13.329   3.103  0.2244 -0.3549 -0.0427
56085W        W99076  18.551  33.406  14.474  0.1659 -0.1939 -0.0568
56086W        W99077   6.266   8.526  15.748 -0.1003  0.0793  0.0107
56087W        W99078  24.913   0.525   3.427 -0.2189  0.0391  0.1030
56088W        W99079  23.753   6.460  21.128 -0.2497  0.3479 -0.0203
56089W        W99080  30.656  16.323  24.949 -0.0609 -0.2219  0.1166
56090W        W99081   2.799   4.588  21.362  0.1630 -0.0697  0.3804
56091W        W99082  18.567   2.957   0.381 -0.1380 -0.0336  0.0067
56092W        W99083  14.260  11.069  25.044 -0.0889 -0.0409  0.1306
56093W        W99084   2.320   9.560  18.690  0.0469  0.0948 -0.3306
56094W        W99085   6.338  24.153   9.247 -0.0521 -0.0334  0.0802
56095W        W99086   7.380  28.956  17.018  0.0418 -0.1125  0.0761
56096W        W99087  18.906   6.326  15.231  0.0407  0.2463 -0.0158
56097W        W99088  21.644   8.607   4.686  0.4054 -0.0234 -0.1766
56098W        W99089  11.160  15.920  27.117  0.2907  0.5992 -0.0109
56099W        W99090   5.817   3.401  26.581  0.2837  0.3044  0.0207
56100W        W99091  25.768   9.224   4.010 -0.1878 -0.0084 -0.1595
56101W        W99092  25.244  33.577  22.392  0.2927 -0.1532 -0.1103
56102W        W99093   6.772  32.165  24.879 -0.1559 -0.3725 -0.0148
56103W        W99094  13.879   2.201   6.075  0.2480  0.2529  0.0177
56104W        W99095   4.540  15.728  22.927 -0.3062 -0.0048  0.0247
56105W        W99096   7.974   8.773  18.297  0.2201  0.0679  0.0958
56106W        W99097   2.633   5.746  28.607 -0.0354 -0.2572 -0.2146
56107W        W99098  30.294  14.735   3.046  0.0799 -0.0482  0.0160
56108W        W99099  23.329  12.136  15.833  0.1113 -0.0494 -0.0513
56109W        W99100  15.696  20.991  14.667  0.0348  0.0752  0.1153
56110W        W99101  10.300  33.704   3.896 -0.1454 -0.0461 -0.4118
56111W        W99102   4.511   2.604  23.442  0.4693 -0.2351 -0.2806
56112W        W99103   1.220   8.221  25.792 -0.1629 -0.1414  0.0046
56113W        W99104  15.245  29.687   4.683 -0.2012 -0.2152  0.0098
56114W        W99105  17.696   5.143   1.329 -0.0574 -0.2593 -0.1157
56115W        W99106  28.375  21.656  21.237  0.2603  0.1934 -0.1396
56116W        W99107   7.602   7.876   0.049 -0.0091  0.2472  0.0034
56117W        W99108  28.885   1.485  23.992 -0.1019  0.3003 -0.0788
56118W        W99109  30.114  12.397  25.819  0.2081 -0.0417  0.1574
56119W        W99110  23.591   0.964  13.555  0.0750 -0.3252 -0.1566
56120W        W99111   5.247  10.093  23.542  0.3953 -0.3030  0.1267
56121W        W99112  24.472   3.864   8.499  0.0150 -0.1081  0.2377
56122W        W99113  26.222   9.548  24.308  0.5847 -0.0875 -0.1870
56123W        W99114  10.326  16.046  18.700  0.2097 -0.2753 -0.2680
56124W        W99115  20.081  19.654  13.441 -0.1996  0.1057  0.0580
56125W        W99116   4.714   3.555   4.849  0.1142 -0.3849  0.3000
56126W        W99117  10.002  11.865   1.725 -0.0499 -0.2074 -0.1706
56127W        W99118  13.803  12.422  16.795 -0.2681  0.1894 -0.2511
56128W        W99119  17.152   9.817  14.622  0.0605 -0.1162 -0.2334
56129W        W99120  14.294   8.645  18.276 -0.1037 -0.0654 -0.1131
56130W        W99121  29.613  25.146   0.245 -0.0461  0.3055 -0.1960
56131W        W99122  13.170   0.086  28.565  0.2717 -0.1335 -0.2454
56132W        W99123  17.283   8.664  23.349  0.0608 -0.2138 -0.2231
56133W        W99124   3.996   7.642  15.913  0.0919 -0.2860 -0.1054
56134W        W99125  22.583   4.421  19.530  0.0548  0.4623  0.2450
56135W        W99126  20.405   4.539   8.803 -0.0862 -0.4995  0.2021
56136W        W99127  20.339  25.379   4.792  0.1808  0.1454  0.0892
56137W        W99128  18.059   7.990   9.302  0.3232 -0.0300 -0.1645
56138W        W99129  31.426   3.682  20.546 -0.1356 -0.2361 -0.1515
56139W        W99130   2.780   8.876  10.075  0.0096 -0.2138 -0.5168
56140W        W99131   2.587  33.178   5.040 -0.2693 -0.0601  0.3266
56141W        W99132  14.491   5.555  18.241 -0.1840 -0.0719  0.0140
56142W        W99133  18.417   1.405   6.003 -0.3443 -0.2435 -0.0157
56143W        W99134   1.421  10.081  10.652  0.0856  0.0501  0.1964
56144W        W99135   1.784  15.856   5.205  0.2139  0.3427 -0.4651
56145W        W99136  18.954  23.318  24.427  0.1188  0.0089  0.0607
56146W        W99137  15.519  21.961   4.519  0.3890 -0.1294  0.1749
56147W        W99138  16.508  14.950   1.329  0.1542 -0.2144 -0.0411
56148W        W99139  27.859   7.596  19.187 -0.0083 -0.5041 -0.0244
56149W        W99140   7.678  30.863  28.796 -0.0452 -0.1748  0.1102
56150W        W99141  15.358  16.207   4.032 -0.1130  0.2607  0.1557
56151W        W99142  30.026   5.522   5.136  0.0003 -0.1491  0.1610
56152W        W99143  16.741  10.650  10.107  0.1987  0.1570 -0.0294
56153W        W99144  30.917  24.427   9.025  0.1278  0.0287 -0.3460
56154W        W99145   8.475  24.937  16.072  0.1636 -0.1479  0.0928
56155W        W99146  22.342   7.942  22.880  0.1214 -0.3114  0.1452
56156W        W99147  16.013   7.273   7.900  0.0862  0.1260  0.0751
56157W        W99148   1.451  32.494  17.946  0.0920  0.3458 -0.1275
56158W        W99149  29.913  34.461  19.013 -0.0234  0.0138 -0.1147
56159W        W99150  13.656  11.942   6.343  0.2090 -0.0137  0.2898
56160W        W99151   4.647  31.294  24.594  0.1283  0.1265 -0.2055
56161W        W99152   2.074  12.321   6.022  0.1257  0.3235  0.1613
56162W        W99153  10.657   8.178  23.515 -0.0343  0.1398 -0.1817
56163W        W99154  17.421   4.837  20.416  0.2714 -0.0087  0.1571
56164W        W99155  18.513   2.956   2.897 -0.0725 -0.1387  0.1233
56165W        W99156  19.055  32.673   8.316 -0.2111  0.1771  0.1451
56166W        W99157  33.547   9.081  19.727 -0.1641  0.1843 -0.4478
56167W        W99158  12.533  32.059   5.623  0.2695  0.2002 -0.0927
56168W        W99159   4.782  12.455  10.598  0.2730  0.1116  0.0245
56169W        W99160  23.060   9.841  21.195 -0.4581 -0.0292 -0.2013
56170W        W99161  21.985  11.358  15.610  0.1002 -0.1484  0.1887
56171W        W99162  23.577   8.297  14.780  0.2808  0.1522 -0.1856
56172W        W99163  19.221  10.482  17.094 -0.1028 -0.1564 -0.1006
56173W        W99164  16.508   2.481  14.867  0.0134  0.0642 -0.0293
56174W        W99165   0.199  24.970  20.184 -0.0068 -0.2726  0.1944
56175W        W99166  27.809  33.045  26.644 -0.0081 -0.1601 -0.1928
56176W        W99167  33.546   8.690   4.343  0.0763  0.0263  0.1104
56177W        W99168  10.673   3.924  19.965 -0.3788 -0.3504  0.2001
56178W        W99169   7.181   8.431  21.241  0.0069 -0.2615 -0.0020
56179W        W99170  34.418  10.706  25.870  0.1737  0.4214 -0.2479
56180W        W99171   9.499  26.818  25.437  0.4384  0.0617  0.5257
56181W        W99172   8.537   0.337   4.308 -0.2981  0.2799 -0.1442
56182W        W99173   7.709  19.835  19.199 -0.0208  0.0369  0.0622
56183W        W99174  30.292  17.549  23.004  0.0181  0.1003  0.4554
56184W        W99175  27.360   9.423  14.334  0.1458 -0.2052 -0.1399
56185W        W99176   4.672  23.236  17.158  0.0105  0.0541  0.0808
56186W        W99177   0.943  19.760  21.007  0.1926 -0.2001  0.0860
56187W        W99178  11.837   0.739   3.469  0.0871 -0.1175 -0.1983
56188W        W99179  21.693   4.065  26.171 -0.3697 -0.1594  0.0889
56189W        W99180  18.620   2.525   7.985 -0.3582  0.0439 -0.3606
56190W        W99181   5.905  14.357   7.356 -0.0323 -0.0886  0.1358
56191W        W99182  20.474   5.383  17.095  0.1042  0.2567  0.4883
56192W        W99183   7.041   4.866  22.630 -0.4215  0.0643  0.1351
56193W        W99184  31.377   6.674  18.835  0.0975 -0.1240 -0.1822
56194W        W99185   2.106  11.769  16.355  0.4236  0.3168 -0.0086
56195W        W99186   9.415   7.592   9.325 -0.2189 -0.0623 -0.0304
56196W        W99187  16.178  13.590  23.047  0.2077 -0.1088 -0.1565
56197W        W99188   7.432   5.182   8.566  0.1792  0.0521  0.2604
56198W        W99189  19.668   5.643  22.236  0.2285 -0.0559 -0.0932
56199W        W99190  19.209  10.741  13.434  0.2450 -0.0329  0.0187
56200W        W99191   2.005   5.955  23.229 -0.1906 -0.0758  0.5516
56201W        W99192   8.199  26.479  16.480  0.0289 -0.1864  0.3341
56202W        W99193   0.862   1.454   6.513 -0.1065 -0.0367  0.0711
56203W        W99194  15.683   5.959   1.171  0.1068 -0.1220 -0.2125
56204W        W99195  21.780  19.213   0.204  0.2800  0.0708  0.0229
56205W        W99196  18.084   6.670  19.540  0.3688  0.4583 -0.0286
56206W        W99197   6.374   4.844  16.519 -0.0528 -0.1161 -0.0587
56207W        W99198  10.209  24.377  20.062 -0.2778 -0.1023 -0.0152
56208W        W99199   2.817   9.144  22.866  0.5948 -0.3610  0.0283
56209W        W99200   6.896  14.764   0.888 -0.2635  0.2577  0.2252
56210W        W99201   8.787  10.925  21.811 -0.0134 -0.1609 -0.0036
56211W        W99202   2.807  33.682   3.993  0.1499 -0.1899 -0.1004
56212W        W99203   2.970   2.467   1.576  0.6293 -0.1668 -0.1738
56213W        W99204  20.438  32.734  20.912  0.0221 -0.0543  0.0554
56214W        W99205  21.229   9.597  13.201 -0.2936  0.1361  0.0420
56215W        W99206  17.095   2.775  21.376  0.4875 -0.3081 -0.3797
56216W        W99207  14.850   4.280   0.776  0.4527 -0.0851 -0.0844
56217W        W99208  15.223   6.375  20.554  0.0404 -0.2875  0.0303
56218W        W99209   7.161  12.675  10.140 -0.1321 -0.2125 -0.1175
56219W        W99210  13.436   7.969  18.938 -0.0555  0.1555 -0.1665
56220W        W99211  15.761  13.061  24.910 -0.1354 -0.3784 -0.3931
56221W        W99212  10.086  30.340  24.105  0.0149  0.0957  0.1236
56222W        W99213  22.469   1.284   4.555  0.3145  0.0253  0.1584
56223W        W99214   9.120  33.832  16.829 -0.0880  0.0847  0.0619
56224W        W99215  32.691   6.873  25.669 -0.0762 -0.0330  0.0590
56225W        W99216  12.831   9.949  25.985  0.0085 -0.2218 -0.0981
56226W        W99217  10.357   7.344   1.695  0.1559 -0.1366 -0.1812
56227W        W99218   2.473  15.575   8.484  0.1716  0.1355 -0.1064
56228W        W99219  12.102  24.204   7.277 -0.2222  0.1035  0.2538
56229W        W99220  10.098  32.832  27.058  0.1191 -0.0010  0.3044
56230W        W99221   4.279   2.812  21.946 -0.0322  0.2777  0.0374
56231W        W99222  21.934  26.322   5.080 -0.3899 -0.0304  0.2441
56232W        W99223  18.439  29.652  16.009  0.0169 -0.2533 -0.0822
56233W        W99224   4.387   3.117  10.254  0.0395 -0.4247 -0.3569
56234W        W99225  16.311   9.186  27.450 -0.2774  0.0924  0.2072
56235W        W99226  16.788  29.491   6.754  0.0366  0.2301  0.0400
56236W        W99227  22.028   5.420  15.950 -0.2204  0.2118 -0.2238
56237W        W99228  16.552  28.562  20.160  0.2873  0.4595  0.0426
56238W        W99229  19.801  20.575  14.973  0.2097 -0.3779  0.2481
56239W        W99230  16.400  33.365   3.118  0.1634 -0.2057 -0.0758
56240W        W99231  20.289  23.842  15.254  0.1535  0.2788  0.0647
56241W        W99232  23.458   0.787   0.791 -0.0013 -0.3420 -0.0029
56242W        W99233  15.617  22.570   2.143  0.0752  0.2019 -0.1449
56243W        W99234  25.916   1.741  23.824  0.0296  0.3015 -0.3019
56244W        W99235   2.601  30.223  22.127  0.0498 -0.1046  0.1290
56245W        W99236  11.327  18.649  26.487  0.0561  0.1430  0.0885
56246W        W99237  19.044  25.518  26.860  0.1647 -0.3015  0.1709
56247W        W99238  12.695   1.653  20.434  0.0540  0.0622  0.3777
56248W        W99239  11.159   0.711   5.902 -0.1802  0.2047 -0.1729
56249W        W99240  16.044   1.247   8.145  0.1247 -0.0821  0.2991
56250W        W99241  17.856   1.135   0.869 -0.0146 -0.0778 -0.0153
56251W        W99242   8.425   3.736   8.113 -0.3602 -0.1602 -0.1130
56252W        W99243  13.272  20.731   5.370 -0.0181  0.3192  0.0647
56253W        W99244  14.096  11.439  19.401 -0.0776 -0.0689 -0.2250
56254W        W99245  18.255  31.470  27.832  0.1655 -0.2454  0.0672
56255W        W99246  25.155  23.527   1.496 -0.0607 -0.0900  0.2468
56256W        W99247  28.485   1.724  20.355  0.3514  0.1912  0.2353
56257W        W99248  34.173   5.476  16.886 -0.1540  0.0335  0.2352
56258W        W99249  22.475  33.547   8.356  0.1389 -0.1205  0.3519
56259W        W99250  29.717  31.265   7.124 -0.1876 -0.0911  0.2890
56260W        W99251   7.024   8.810  15.702 -0.1758  0.3880  0.2658
56261W        W99252  14.098  15.408  14.979  0.5733  0.0736  0.2837
56262W        W99253   9.794  10.234   5.218  0.4272  0.2529 -0.0578
56263W        W99254  23.424  20.152  23.140  0.4275 -0.2687 -0.0832
56264W        W99255   5.931   0.016  27.959  0.0997  0.1570  0.0165
56265W        W99256   8.582  32.240   3.878  0.2368 -0.3830 -0.0079
56266W        W99257  14.182   6.470   7.066  0.2488 -0.0960 -0.1148
56267W        W99258   6.588   4.786  15.247 -0.2753 -0.0819  0.1459
56268W        W99259   7.638  17.297   0.043  0.1733 -0.2349 -0.2026
56269W        W99260   6.957  29.134  26.431  0.1294  0.1391 -0.0982
56270W        W99261   5.979  32.350   1.206 -0.2205 -0.0697 -0.3816
56271W        W99262  17.227   4.414  28.223  0.0541 -0.4246  0.2308
56272W        W99263   3.463  13.335   8.086  0.1121  0.0915  0.3748
56273W        W99264  21.636  14.200  15.526 -0.0246  0.0481 -0.0898
56274W        W99265   5.580  12.462   4.667 -0.0265  0.0102  0.1458
56275W        W99266   5.118  13.184   7.293  0.0977  0.3116 -0.2251
56276W        W99267   7.717  16.323  26.873  0.0888  0.1094  0.2359
56277W        W99268  11.809   3.894   0.649 -0.0508  0.0591  0.3199
56278W        W99269  15.634  15.890  24.298  0.1861 -0.2395 -0.1839
56279W        W99270   3.294  11.090  21.438 -0.3458  0.1140  0.0212
56280W        W99271   5.836  30.245  22.693  0.0536  0.2801  0.1216
56281W        W99272  21.053  14.467   1.267  0.2606  0.1383  0.0564
56282W        W99273  13.829   2.214  22.268 -0.2138  0.0316 -0.1561
56283W        W99274  22.930  16.423  18.431 -0.4458  0.3666  0.0295
56284W        W99275  18.443   5.135   9.322 -0.2196 -0.2234  0.2369
56285W        W99276  26.896  31.567  19.476 -0.3182  0.1526 -0.0630
56286W        W99277  22.758  18.681   9.176 -0.0188  0.0624 -0.1303
56287W        W99278   4.617  10.733   5.522 -0.1105  0.2976 -0.1969
56288W        W99279   8.862  20.692  27.323  0.1483  0.0601  0.1831
56289W        W99280  20.470  28.418  20.506  0.0506  0.0041  0.1207
56290W        W99281  15.417  28.940  26.894 -0.1764 -0.1883 -0.2395
56291W        W99282   5.025   0.798   1.735  0.0834 -0.3346 -0.2052
56292W        W99283  20.353  18.934  28.900 -0.0792  0.2384  0.0704
56293W        W99284   0.965  34.496  16.893 -0.3523 -0.1863  0.1752
56294W        W99285   6.840  22.474   1.357 -0.4447 -0.1365  0.0576
56295W        W99286  26.642  31.268  16.707 -0.1241  0.2618 -0.0342
56296W        W99287  14.999   1.037  17.767  0.4147 -0.2852 -0.0826
56297W        W99288  10.398  15.660   1.555  0.2365 -0.1777  0.2165
56298W        W99289  13.200  31.691  14.980 -0.0564  0.1789 -0.0978
56299W        W99290  14.983   9.493  15.676  0.0539 -0.2446 -0.0931
56300W        W99291   2.499  12.770   2.442 -0.0652  0.1847  0.1531
56301W        W99292  11.968   0.204   0.031  0.2618 -0.1273  0.2115
56302W        W99293   5.512   9.057  27.628 -0.0865 -0.0975  0.5422
56303W        W99294  30.375  24.846  21.601  0.0536  0.0698 -0.2576
56304W        W99295  33.839  32.223  25.957 -0.1730 -0.1746  0.2308
56305W        W99296   5.788   0.404   7.239 -0.0714  0.0371  0.0141
56306W        W99297   8.735  24.576   8.766 -0.1379 -0.0346  0.0657
56307W        W99298  18.699   7.996   4.170  0.0030  0.0164 -0.0189
56308W        W99299  21.585  23.810  27.505 -0.0503  0.1920  0.2605
56309W        W99300  28.194   0.595  24.309  0.1321  0.2146 -0.0892
56310W        W99301  14.600   6.941  24.418  0.1903  0.0396 -0.0427
56311W        W99302   0.168  15.161  28.236  0.0728 -0.2835  0.2379
56312W        W99303  11.089  15.492   6.286  0.4660 -0.5171  0.0876
56313W        W99304  22.937  20.694   0.108 -0.0100  0.1164 -0.2587
56314W        W99305   4.304   7.995   1.614  0.2486 -0.3459  0.1585
56315W        W99306  19.037  17.556   3.494  0.0578  0.1250 -0.0868
56316W        W99307   4.111  26.304  27.399 -0.0597  0.1046  0.1593
56317W        W99308  30.809   2.155   4.637  0.2948  0.2012 -0.1000
56318W        W99309  15.877   2.887  28.116 -0.1473 -0.1117 -0.1562
56319W        W99310  22.964   8.026   7.268 -0.3277 -0.0363 -0.1261
56320W        W99311  23.592   6.274   6.830  0.0600 -0.2019  0.4008
56321W        W99312  10.628   2.838  28.922  0.0159 -0.0590  0.0963
56322W        W99313  13.209  13.624  24.238  0.1524  0.3352 -0.1046
56323W        W99314  26.567  13.870  24.634  0.1040  0.3932 -0.0967
56324W        W99315   5.923   4.965  17.642 -0.1082 -0.1237  0.0601
56325W        W99316  20.014   6.313   6.633 -0.0660 -0.1892 -0.0844
56326W        W99317  12.303  17.409   5.587 -0.3560  0.0387  0.1840
56327W        W99318   0.617  32.775   0.584  0.2242  0.2710 -0.0275
56328W        W99319   2.904   0.504  23.279 -0.0286 -0.1289  0.3616
56329W        W99320  20.678  11.593   1.867  0.1187 -0.1373 -0.1945
56330W        W99321  24.349   6.801  17.663 -0.0297 -0.0385  0.0746
56331W        W99322  33.232   1.167  27.053 -0.3237  0.1229  0.0693
56332W        W99323  25.793  15.106   4.725 -0.2058  0.2060  0.3708
56333W        W99324  27.192  13.075  22.211 -0.1618  0.1006 -0.0889
56334W        W99325  21.508   1.657   2.254  0.1093 -0.0152 -0.0896
56335W        W99326   9.168   9.311   1.530 -0.0193  0.2795 -0.1866
56336W        W99327   7.104   3.545  21.347 -0.0620 -0.2550  0.0641
56337W        W99328  30.208  22.863   2.455  0.0216 -0.1447 -0.0412
56338W        W99329   4.147  34.345  22.904  0.2047 -0.2757 -0.1816
56339W        W99330  13.652   1.860   5.737  0.4103  0.0833 -0.2003
56340W        W99331  12.827   8.461   9.983  0.3186  0.0460  0.2284
56341W        W99332  17.139   1.357   8.458 -0.0531  0.0412  0.1568
56342W        W99333  22.858  32.931   5.494  0.1187  0.0859  0.1245
56343W        W99334  12.406  29.427   2.092 -0.2237 -0.1324  0.1903
56344W        W99335   6.832  21.866  23.129  0.1055  0.2319  0.1319
56345W        W99336  11.572  17.749  23.155 -0.0150 -0.0414  0.1351
56346W        W99337   6.301   5.795  21.733 -0.3331  0.1616  0.0022
56347W        W99338   3.403  11.614   2.939 -0.0562  0.0518 -0.1432
56348W        W99339  20.499   7.319  23.835 -0.0956 -0.0183 -0.1836
56349W        W99340  17.282   7.139  18.179  0.2745 -0.2267  0.0891
56350W        W99341  34.253   3.790  24.554  0.3164  0.0559  0.4254
56351W        W99342  25.378  21.846  15.185  0.0521 -0.1836  0.0186
56352W        W99343   4.260   4.083  15.545  0.2609 -0.2062 -0.0811
56353W        W99344  29.338   9.836   5.845 -0.0354  0.0043  0.0174
56354W        W99345  29.949   0.224  24.581 -0.0809 -0.0504  0.3383
56355W        W99346   3.412  12.057   6.309 -0.0169 -0.0088  0.2423
56356W        W99347   8.598  25.035   4.597 -0.0035  0.2752 -0.1840
56357W        W99348  33.348   3.022  17.560 -0.1016 -0.0415 -0.0814
56358W        W99349  25.343  30.953   8.644 -0.3718  0.1743 -0.0353
56359W        W99350  31.101   1.081  28.280  0.4516 -0.0513 -0.1568
56360W        W99351  14.856  15.063   1.461  0.2234  0.1967  0.2599
56361W        W99352   8.912   4.454  14.888 -0.0126 -0.0366 -0.1845
56362W        W99353  21.150  15.582  28.595 -0.0368  0.2222  0.0637
56363W        W99354  20.579  30.036  21.876  0.2446  0.3871 -0.1870
56364W        W99355   5.793   2.301  16.382 -0.3100  0.1346 -0.0223
56365W        W99356  22.291  10.357  22.253  0.0527  0.1711 -0.0003
56366W        W99357  25.071  24.986  16.988 -0.3138 -0.0451  0.2479
56367W        W99358  12.038  24.583  29.115 -0.3532 -0.1622  0.3659
56368W        W99359  19.704  31.792  19.692  0.0996 -0.0116 -0.0774
56369W        W99360  26.607  22.820  27.298 -0.2012  0.0654 -0.1754
56370W        W99361   5.555  27.510  19.371 -0.0412 -0.0232  0.4402
56371W        W99362  18.602  19.240  23.916 -0.1454  0.3132  0.1464
56372W        W99363  12.877  31.621   3.941  0.2142  0.0007  0.1424
56373W        W99364  34.611   7.540  24.172 -0.0729 -0.2143  0.1053
56374W        W99365  14.771  13.452   1.514  0.0868  0.0040  0.1784
56375W        W99366  24.510  18.056  17.156  0.1830  0.1883  0.0451
56376W        W99367  26.710  15.630  25.864 -0.0527 -0.0023  0.1921
56377W        W99368  15.927   2.334  19.739  0.3604 -0.0473 -0.0406
56378W        W99369  18.292   2.640  15.154 -0.0633 -0.0340  0.0898
56379W        W99370   7.240   5.828  29.216 -0.2157 -0.0195  0.2434
56380W        W99371  20.882  15.865  21.451 -0.0144 -0.0118  0.0066
56381W        W99372  10.506   0.497   1.683 -0.1122  0.0609 -0.0137
56382W        W99373   8.342  16.673  15.309 -0.3553  0.1250 -0.2052
56383W        W99374  34.733  11.494  18.555  0.1418 -0.2843  0.2252
56384W        W99375  23.640   2.305  20.530 -0.1089 -0.0065 -0.0639
56385W        W99376  18.240  14.741   8.697  0.0090 -0.2132 -0.0959
56386W        W99377  26.204  23.885  18.052  0.0575 -0.2115 -0.1752
56387W        W99378  28.686   7.493   7.883  0.2333  0.1255  0.1863
56388W        W99379   7.051  12.738   1.367 -0.0262  0.3531 -0.3633
56389W        W99380  12.972  21.147   5.427  0.2877  0.2680  0.0415
56390W        W99381  14.816  10.085  24.613 -0.0045 -0.2798  0.2869
56391W        W99382  32.849  27.933  16.508  0.2603  0.0698  0.1124
56392W        W99383   7.908   3.020   2.611  0.1427  0.1743 -0.1020
56393W        W99384  23.092   8.695  28.116  0.1100  0.0266  0.2026
56394W        W99385  17.683   0.718  22.799 -0.0304  0.0679  0.0096
56395W        W99386  10.217  33.497  21.140 -0.3504  0.1962 -0.2188
56396W        W99387  18.969  10.561   0.520  0.1018 -0.0081  0.3342
56397W        W99388  26.293  31.648  23.063  0.4452  0.0110  0.0280
56398W        W99389  22.203  30.709   8.726 -0.2201  0.1111 -0.3162
56399W        W99390  10.762  16.353   5.930 -0.0997 -0.1926  0.1860
56400W        W99391  27.440   2.388   3.408  0.0742 -0.0870 -0.1630
56401W        W99392  22.643  18.412  13.735  0.1754 -0.3217 -0.0597
56402W        W99393   6.587  24.543  22.892  0.1097  0.1113  0.2094
56403W        W99394   7.203  13.260  17.417  0.0610  0.1007  0.2153
56404W        W99395  23.868   6.993  23.058  0.2377 -0.1166  0.4284
56405W        W99396   0.387  28.269   4.731  0.0615  0.0417 -0.1471
56406W        W99397   8.412   6.895   0.005  0.2135  0.0851  0.0256
56407W        W99398  25.438   6.158  26.152 -0.1466  0.1212 -0.0373
56408W        W99399  27.223  32.908  28.915  0.0151 -0.1224 -0.0151
56409W        W99400   5.741  34.493  17.602 -0.1439  0.1331 -0.4298
56410W        W99401   1.571   6.785   5.096 -0.0991  0.0498 -0.0419
56411W        W99402   8.166  13.144   1.882 -0.1186  0.0850 -0.0222
56412W        W99403   5.557   6.811  22.767  0.0623  0.2927 -0.3578
56413W        W99404  32.351  12.532   1.257 -0.1253 -0.0139  0.0489
56414W        W99405  15.252  21.210  14.930 -0.1337  0.1408  0.0780
56415W        W99406  16.332   0.019   2.379 -0.1411  0.0291 -0.2490
56416W        W99407  34.199  10.530  23.511  0.1131 -0.1039 -0.3015
56417W        W99408  19.217  28.730  14.264 -0.1143 -0.2783 -0.2791
56418W        W99409  20.625   9.379   3.278  0.1631  0.1313 -0.1449
56419W        W99410  30.474  19.766  28.858  0.3708  0.3545  0.0530
56420W        W99411  13.653   8.117   9.097 -0.2824  0.5507 -0.0068
56421W        W99412  21.703   1.214   0.341 -0.0298 -0.4111 -0.1877
56422W        W99413   3.217  12.586  18.790 -0.1054  0.0376 -0.0816
56423W        W99414  27.944  34.774  22.979 -0.1077  0.1529 -0.0855
56424W        W99415  25.043  30.028   1.842 -0.2228  0.0373  0.1284
56425W        W99416   3.062  30.679  28.806  0.0986 -0.0197  0.0352
56426W        W99417  10.640  31.125  28.942  0.0199 -0.1436 -0.1558
56427W        W99418   5.587  24.733   9.177 -0.3278 -0.1512  0.2591
56428W        W99419  27.620  30.441   3.604 -0.3189  0.1173 -0.2542
56429W        W99420   3.570   3.994   6.426 -0.1840 -0.0341  0.0464
56430W        W99421  17.486   2.830   8.696 -0.1847 -0.0230  0.0364
56431W        W99422  20.562   7.295  25.868  0.2799 -0.1734 -0.2403
56432W        W99423  18.893   7.474  25.473 -0.1311 -0.0935  0.2198
56433W        W99424  11.682   5.402  27.736  0.2369 -0.1444  0.2503
56434W        W99425  14.105   5.914   2.963 -0.2120 -0.2660  0.0324
56435W        W99426   5.292  19.498   4.103  0.2990 -0.0343  0.2230
56436W        W99427  16.003  27.297  18.705 -0.1233  0.1702  0.2971
56437W        W99428   6.261   2.964  22.265 -0.2328 -0.2478 -0.0133
56438W        W99429   9.447  15.375  19.356 -0.3197 -0.1783  0.2494
56439W        W99430   6.683   8.130  27.296  0.0415  0.2338  0.1504
56440W        W99431  13.440  13.599   7.676 -0.5092 -0.4625 -0.4372
56441W        W99432   5.922   7.511  19.582  0.0077 -0.0814  0.0307
56442W        W99433  12.400   5.074   1.014  0.1235  0.0729  0.3878
56443W        W99434  12.215  19.176  27.951  0.0082 -0.0075  0.2842
56444W        W99435  15.934  29.639  29.132 -0.2336 -0.0473 -0.0101
56445W        W99436  34.661  31.794  26.607 -0.0302  0.0900  0.1359
56446W        W99437  20.798  10.096  28.867  0.1294 -0.0396  0.1207
56447W        W99438  13.985  31.687  26.669  0.1774 -0.0222  0.0176
56448W        W99439   6.402   9.391   5.935  0.0673  0.1178  0.3708
56449W        W99440  18.014  12.008   0.013  0.0913 -0.0238  0.1133
56450W        W99441  15.288  28.059  26.616  0.0782  0.1312 -0.5605
56451W        W99442  29.415  16.292  23.964 -0.2949  0.1826  0.0502
56452W        W99443  16.359  21.094  18.117  0.0692  0.1278  0.3821
56453W        W99444  14.005  27.269   2.276  0.0171  0.0390  0.0805
56454W        W99445  29.322  18.483  15.503  0.0399  0.1690  0.0526
56455W        W99446  32.424  30.763   7.229 -0.1163 -0.1497  0.2758
56456W        W99447  12.276  10.623  17.293  0.2014 -0.0601  0.1073
56457W        W99448   6.962  30.007  24.756  0.0550 -0.1277  0.2663
56458W        W99449   1.720  19.756  22.470 -0.1491 -0.1143 -0.0589
56459W        W99450  11.242  16.699   2.826 -0.0581  0.0794 -0.1347
56460W        W99451  10.208   9.452  21.593  0.4591 -0.3349 -0.3233
56461W        W99452  12.661   0.508  23.707  0.0222  0.0347 -0.0468
56462W        W99453  12.182   8.534   1.014  0.0053 -0.2738 -0.0740
56463W        W99454  32.073  23.039  27.588  0.2278 -0.1809  0.1368
56464W        W99455   6.099   5.853   8.010  0.1181 -0.3867  0.2997
56465W        W99456   9.981   5.113  27.956 -0.0042 -0.0363 -0.0054
56466W        W99457  16.672   3.726  24.287 -0.0854 -0.1198  0.1801
56467W        W99458  29.882  18.485  13.934  0.1196  0.1270  0.0765
56468W        W99459  18.807  21.141  22.505  0.1180 -0.2578 -0.0067
56469W        W99460  11.818  21.187  15.129 -0.1358 -0.1983  0.0037
56470W        W99461  16.153  30.367   5.024 -0.0332  0.3005 -0.3135
56471W        W99462  25.523   7.865   1.758  0.3359 -0.0204  0.1630
56472W        W99463  13.561  31.520  23.161  0.2198  0.1632  0.2000
56473W        W99464  23.922  11.515  13.567 -0.0665 -0.0097  0.1497
56474W        W99465  26.811  14.713  27.490 -0.0805  0.2482  0.0953
56475W        W99466  11.186   4.309  28.042 -0.3537  0.0274 -0.4180
56476W        W99467  22.704   8.788  16.518  0.1724  0.1566  0.2461
56477W        W99468  29.025  28.114  29.081  0.1624 -0.2775 -0.4168
56478W        W99469   1.237  11.348  25.921  0.1676  0.0596 -0.2378
56479W        W99470  32.609  25.127   2.154 -0.0962 -0.1070 -0.0880
56480W        W99471   2.974  21.285  26.358  0.2832  0.4707 -0.1804
56481W        W99472  19.226  14.471  12.842 -0.1906  0.1531  0.0463
56482W        W99473   0.405   3.279   1.886  0.0232  0.0080  0.1868
56483W        W99474  28.734  20.849  24.488  0.1946  0.0024 -0.1742
56484W        W99475  19.707   1.794  27.378  0.0841 -0.2802 -0.4009
56485W        W99476  19.750  31.273  17.664  0.3125 -0.5128  0.2878
56486W        W99477  16.059  12.697  21.037  0.0964 -0.2098 -0.0005
56487W        W99478  14.162   2.101   0.973  0.0041 -0.2659 -0.1637
56488W        W99479  12.855   5.310   6.642  0.1861 -0.2966 -0.0312
56489W        W99480  30.456   4.511   1.617 -0.1347  0.2540  0.2954
56490W        W99481   9.689   7.024   7.355  0.0680  0.2094  0.1326
56491W        W99482  15.686  20.427  24.396  0.1929  0.1556  0.0844
56492W        W99483  10.979  15.517  25.308  0.0145 -0.0767  0.1424
56493W        W99484   5.992  33.406  25.271  0.0935  0.0028  0.0653
56494W        W99485  17.226   2.448  26.000  0.1501 -0.0962 -0.1926
56495W        W99486  16.171  25.908  15.145  0.0291 -0.0723 -0.2294
56496W        W99487  22.549  27.853   2.495 -0.0070  0.0798 -0.0974
56497W        W99488  16.380  13.739  29.230  0.2082 -0.2208  0.3102
56498W        W99489  17.430  10.105   7.441  0.3184  0.1118 -0.0331
56499W        W99490   6.609   2.721  25.780  0.0304 -0.1628  0.0363
56500W        W99491  14.698  10.259  15.294 -0.0510  0.0419  0.3047
56501W        W99492  12.266  31.811   4.814 -0.1372  0.0544 -0.1271
56502W        W99493  11.560   7.331   6.625 -0.1609  0.0617 -0.1232
56503W        W99494  19.358  26.955  27.163 -0.1204 -0.0622 -0.1293
56504W        W99495  13.435   6.195   9.086  0.3001  0.2523  0.1362
56505W        W99496   2.212   6.370  24.892 -0.0345 -0.0083 -0.4210
56506W        W99497  21.242  31.102  22.116 -0.0633  0.1623  0.1343
56507W        W99498   7.610   0.244   2.426 -0.1927 -0.1319 -0.0042
56508W        W99499   1.566   0.982   5.139 -0.3774 -0.0288  0.1308
56509W        W99500  24.573  10.964  22.692 -0.0928 -0.0306 -0.1024
56510W        W99501   7.520  13.538   3.389  0.0571 -0.1336 -0.1623
56511W        W99502   7.004  11.483   2.823  0.3749  0.0734  0.0085
56512W        W99503  26.784  23.584   5.321 -0.0710 -0.0361  0.0110
56513W        W99504  22.449   6.375   0.379  0.2751 -0.0996 -0.1214
56514W        W99505  15.529   5.502  26.662  0.4059 -0.2098  0.0355
56515W        W99506  15.275   4.723   9.729 -0.0879  0.0677 -0.0552
56516W        W99507   0.560  21.663  21.411  0.0326 -0.0831 -0.2527
56517W        W99508  25.322   3.031  19.349 -0.3071  0.1716 -0.1440
56518W        W99509   9.600  18.509  18.048 -0.1663 -0.0711 -0.1475
56519W        W99510  19.609  17.099   8.192 -0.0473 -0.1714  0.0379
56520W        W99511   0.165  34.498   6.075  0.3086 -0.2581 -0.0079
56521W        W99512   8.528   9.997  17.968 -0.0081 -0.2123  0.0559
56522W        W99513  23.521  28.309   1.449 -0.1577  0.0906  0.2477
56523W        W99514  10.806   5.170  22.635 -0.0614 -0.0849 -0.1196
56524W        W99515  16.549  14.402   4.076 -0.0038 -0.1216 -0.1252
56525W        W99516  21.897  12.421  25.504  0.0211 -0.0273  0.0732
56526W        W99517  25.920   2.707  28.663  0.1959  0.1735  0.0260
56527W        W99518  10.847  12.110   4.208  0.0341 -0.0261 -0.0448
56528W        W99519  12.238  14.972  23.320 -0.0161 -0.1580  0.0354
56529W        W99520  12.538  14.538  27.895 -0.3065 -0.0460 -0.0657
56530W        W99521  21.638   1.848  27.706 -0.3345 -0.2703 -0.2640
56531W        W99522  24.225  12.921   2.450  0.1650  0.0655 -0.1112
56532W        W99523   9.795   6.123  17.690  0.0566  0.0660  0.4383
56533W        W99524  12.654   0.687  26.958 -0.0153  0.0557  0.0614
56534W        W99525  30.615  25.458  13.299  0.1222 -0.0508  0.1022
56535W        W99526  28.107   7.534  15.598  0.0744  0.1412  0.0443
56536W        W99527  12.562   4.900   9.901 -0.2305  0.1585  0.1711
56537W        W99528  15.103  10.385  27.027 -0.1371 -0.0269  0.1099
56538W        W99529  14.747  31.590  27.623 -0.2377 -0.0427 -0.1522
56539W        W99530  27.997  21.262  20.172  0.2389 -0.0683  0.0523
56540W        W99531  17.140  18.770  27.779 -0.0952 -0.1556  0.0664
56541W        W99532   8.115   5.353  26.257  0.1817 -0.1946  0.0874
56542W        W99533  29.181   0.268  20.681  0.0111 -0.1126  0.0637
56543W        W99534   1.392   9.990   1.953 -0.0894  0.0464 -0.1670
56544W        W99535  28.256  33.364   7.205 -0.2458 -0.0305 -0.2448
56545W        W99536  25.660  32.082   1.500  0.0830  0.1108  0.2696
56546W        W99537  21.859  18.767   7.527  0.0614 -0.1796  0.2617
56547W        W99538   9.901  22.905   1.220  0.2298 -0.0073 -0.0876
56548W        W99539  17.702   4.696  18.967 -0.1220 -0.1781  0.3887
56549W        W99540  10.902   6.750   2.742  0.0922  0.3153 -0.0231
56550W        W99541  14.446  25.573   0.972  0.2272  0.0813 -0.1654
56551W        W99542  18.251   9.102   8.359  0.1551 -0.4146 -0.2354
56552W        W99543  22.656   6.558  16.762  0.0673 -0.2362  0.1169
56553W        W99544   0.831  11.606   8.171  0.3778  0.0951  0.0325
56554W        W99545  27.408  18.758   0.365 -0.2909  0.0255  0.2181
56555W        W99546  14.544   3.367  10.443  0.1880 -0.0327 -0.1186
56556W        W99547  23.046  28.587  19.562 -0.2384  0.2253  0.2496
56557W        W99548  34.011  22.309  20.696  0.0381 -0.2051  0.3648
56558W        W99549   2.315  18.570  27.663  0.2535 -0.0292 -0.1961
56559W        W99550  15.146   0.864   6.851 -0.3730 -0.1075 -0.0609
56560W        W99551   3.681  16.895   6.345 -0.0687  0.2284  0.0387
56561W        W99552  17.452  33.863   4.309 -0.2362  0.1942 -0.0691
56562W        W99553  18.071   0.074   8.681  0.1899  0.0529  0.0668
56563W        W99554  31.774  24.433  15.752  0.0421  0.0403  0.0994
56564W        W99555  11.982  25.951   0.731  0.4206  0.0272 -0.1451
56565W        W99556   6.637   3.801   1.592  0.0062  0.3835 -0.0103
56566W        W99557  30.052  13.463  18.425 -0.2057  0.0657  0.0484
56567W        W99558  16.485   8.738  15.033 -0.0271 -0.0278 -0.0054
56568W        W99559  12.494  13.315   2.577 -0.3133  0.3477 -0.3221
56569W        W99560  17.648   7.422   3.588  0.5142  0.0436  0.0760
56570W        W99561   9.367  10.476  16.271  0.4036  0.0035  0.1877
56571W        W99562  32.071  31.192  25.318  0.0407  0.1770  0.5183
56572W        W99563  10.232  31.090  29.204 -0.3044 -0.1006  0.3090
56573W        W99564   1.739  26.372  15.211  0.2140  0.2836 -0.0377
56574W        W99565  14.095  16.262  23.533 -0.0001 -0.0608  0.1688
56575W        W99566  30.375   7.635  22.228 -0.0437 -0.0202  0.0148
56576W        W99567   0.239   6.929  17.671 -0.1313 -0.0178 -0.1634
56577W        W99568  21.280   4.286   6.912 -0.1529  0.1155  0.2079
56578W        W99569   9.782  19.284   4.851  0.1320 -0.1106 -0.2640
56579W        W99570  17.620   3.434  18.102 -0.3189  0.0489  0.1740
56580W        W99571  21.360  17.493   7.272 -0.3022  0.0099  0.0027
56581W        W99572  10.546   5.320  19.808  0.1652  0.0199 -0.2350
56582W        W99573  23.560  11.385  20.112  0.1019 -0.0351 -0.1134
56583W        W99574   9.062   8.841  24.459 -0.0287  0.1173 -0.2251
56584W        W99575  33.212  13.535   3.968 -0.1331 -0.1861 -0.0853
56585W        W99576   2.144  13.367   0.801  0.2526 -0.0182  0.0829
56586W        W99577  22.136  30.419   2.811  0.0943  0.1494  0.1177
56587W        W99578  27.214   1.790  25.072  0.0564  0.1301 -0.2435
56588W        W99579  13.944  23.908  19.589 -0.1156 -0.1669  0.0172
56589W        W99580  12.000   6.348  27.496  0.1328 -0.1215  0.0361
56590W        W99581  12.160   7.752  10.068 -0.1287  0.1231  0.1504
56591W        W99582  21.091   6.405  26.190  0.1303  0.2062 -0.0079
56592W        W99583   8.326   2.550  17.354 -0.3994 -0.1576 -0.0289
56593W        W99584   7.091  13.445  26.788 -0.0618 -0.0898 -0.2077
56594W        W99585  24.183  20.079   0.799  0.1182 -0.3885  0.0110
56595W        W99586   6.124  22.114  19.510 -0.2525 -0.3734  0.0236
56596W        W99587  23.181  15.479  18.471  0.2126  0.2176  0.0571
56597W        W99588  11.497  27.141  22.102  0.0675 -0.1945 -0.1959
56598W        W99589  21.248   6.665   5.255  0.2393  0.2739  0.0400
56599W        W99590  23.570  22.082  14.964 -0.2030  0.1359 -0.0060
56600W        W99591  28.193   9.276  14.632  0.3040  0.2645 -0.2958
56601W        W99592   7.329   9.262  25.821  0.0455 -0.1791  0.1066
56602W        W99593   0.155   5.604   0.499  0.1916  0.1035 -0.2758
56603W        W99594   6.333   2.539  18.432  0.0617  0.1002 -0.0792
56604W        W99595  32.231  13.002  17.578 -0.1138  0.2124  0.1414
56605W        W99596   7.244   3.489  14.808  0.0344 -0.2689 -0.0882
56606W        W99597  14.430  25.605  22.470  0.0599 -0.0601 -0.3738
56607W        W99598   8.389   3.927   1.556 -0.2256  0.4002 -0.0344
56608W        W99599   0.862  22.185  18.923  0.1979  0.0160  0.0968
56609W        W99600  22.397  13.764  15.846  0.0674 -0.0989  0.2639
56610W        W99601  21.918  27.415  20.385 -0.0664 -0.0447  0.1433
56611W        W99602  14.149  13.705  19.367  0.2579  0.0998  0.3371
56612W        W99603  11.866  26.411  21.719 -0.0024 -0.4336 -0.1858
56613W        W99604   9.149  11.083  18.648  0.1422 -0.2052  0.1763
56614W        W99605   8.589  13.516  18.140  0.3099 -0.0530  0.0379
56615W        W99606  21.976   6.856  23.436 -0.0030 -0.1282 -0.0770
56616W        W99607  10.762   5.943   5.034  0.1027 -0.0532 -0.4051
56617W        W99608   6.875   1.940  26.596  0.0690  0.0718 -0.2193
56618W        W99609  12.504  10.828  19.746  0.1383  0.0961  0.0087
56619W        W99610   9.497  12.786  22.531  0.0264  0.0608 -0.1990
56620W        W99611  22.907  21.517  19.993 -0.0393 -0.1581  0.0477
56621W        W99612  13.470  19.179  13.414 -0.4288  0.1806 -0.3006
56622W        W99613  20.775   8.310  20.687 -0.1058  0.2790  0.0986
56623W        W99614  32.148  14.505   3.851 -0.1997 -0.0295  0.2229
56624W        W99615  13.842   2.338   1.346  0.0686 -0.0440  0.0363
56625W        W99616   3.514  27.210  19.752  0.0562 -0.0278 -0.2007
56626W        W99617   3.360  12.173  20.363  0.0206  0.1337 -0.0768
56627W        W99618  32.924  30.315  15.988 -0.0883 -0.2042 -0.0418
56628W        W99619  19.012  14.165  21.719 -0.0321  0.2779  0.1803
56629W        W99620   0.376  17.099  15.271  0.1607 -0.1396  0.2706
56630W        W99621  11.724   2.991  15.914 -0.1431  0.1138 -0.2794
56631W        W99622  26.618  22.858  16.931  0.4547  0.0480  0.0518
56632W        W99623  16.042  23.340  29.104  0.2020 -0.0991 -0.5500
56633W        W99624  33.282  12.654  26.719  0.3367  0.1141  0.1307
56634W        W99625  21.841  24.459  21.429  0.2903 -0.1487  0.2260
56635W        W99626  23.702   2.951  25.437 -0.0097 -0.2067  0.0841
56636W        W99627  34.272   8.110  16.460 -0.3542 -0.2116  0.0267
56637W        W99628  15.940  11.097  19.858  0.1041  0.0360 -0.1225
56638W        W99629  27.072  12.908  14.859 -0.1194  0.1710 -0.3285
56639W        W99630  31.077  28.648  19.527  0.2772 -0.1251  0.1819
56640W        W99631  33.210   7.894   3.619 -0.1505 -0.2040  0.1594
56641W        W99632   8.981  21.101  24.033 -0.2033  0.1305  0.0986
56642W        W99633   0.074   5.094   0.986  0.2582 -0.2034  0.2491
56643W        W99634  20.985  11.252  15.217 -0.1114 -0.1714 -0.1276
56644W        W99635  13.914  24.598  18.431 -0.0936 -0.0999  0.1238
56645W        W99636   3.081   1.569  10.909 -0.0761  0.0071 -0.1302
56646W        W99637  18.644  17.492   6.788 -0.1411 -0.0036 -0.0286
56647W        W99638   4.084  27.150  19.522  0.0958  0.0298  0.2271
56648W        W99639  12.969  10.367   1.949  0.0896  0.1293  0.2143
56649W        W99640  11.981   4.428  18.130  0.1779  0.0783  0.0771
56650W        W99641  26.283   0.984  26.527 -0.1424  0.0638  0.1038
56651W        W99642  18.690   8.921  21.497 -0.1064  0.1648 -0.1098
56652W        W99643  24.485  26.047  20.726  0.0551  0.2731  0.1356
56653W        W99644   0.035   9.004  28.246 -0.2089 -0.0227 -0.0984
56654W        W99645   7.551  31.155  16.903 -0.1525 -0.2331  0.0278
56655W        W99646   9.780  10.541  28.748  0.0780  0.2243  0.0068
56656W        W99647   7.827  23.636  21.048  0.2065  0.2803 -0.0183
56657W        W99648  20.010  19.648  16.571 -0.0122  0.0486 -0.1518
56658W        W99649  12.006   3.348  25.672 -0.2449  0.2055  0.1285
56659W        W99650  15.982   2.382  16.892  0.0361 -0.0517 -0.1613
56660W        W99651  11.529  12.067  27.623 -0.0313  0.0560 -0.0311
56661W        W99652  12.504  19.325  14.173 -0.1462  0.1190  0.1723
56662W        W99653  18.562  26.429  25.939  0.1196  0.0139 -0.1967
56663W        W99654   0.624  13.347  19.409 -0.0990  0.0067 -0.0180
56664W        W99655  22.937   5.041  17.560  0.1409  0.0151  0.5247
56665W        W99656   5.806   4.402  25.360 -0.1907  0.4782 -0.1737
56666W        W99657  29.421  17.904  14.207 -0.0705  0.0367 -0.0837
56667W        W99658   5.279  18.207   0.524  0.3437 -0.1182  0.2242
56668W        W99659   3.088  28.974  18.064 -0.1072  0.1211  0.0918
56669W        W99660  18.847   9.820  14.848  0.1630 -0.0491 -0.2546
56670W        W99661  24.068   9.143  16.458  0.1511 -0.0910  0.1981
56671W        W99662  25.778  33.795  16.693 -0.1714 -0.1747 -0.1295
56672W        W99663  20.112   4.822  16.460 -0.0307 -0.1703 -0.0403
56673W        W99664  21.447  33.145  13.891 -0.1085  0.0595 -0.1245
56674W        W99665  34.698  33.639  28.869  0.0617  0.0306  0.0095
56675W        W99666  13.795  13.024  21.245  0.1889 -0.1077 -0.0305
56676W        W99667  20.473  13.987   2.473 -0.2533  0.1141 -0.1015
56677W        W99668   7.266  13.546  20.404  0.1669 -0.1358  0.1887
56678W        W99669   3.108  18.338  22.844  0.3129  0.3620 -0.2092
56679W        W99670  12.336  15.378  16.673  0.0240 -0.2850  0.3932
56680W        W99671  14.901  10.269  18.921 -0.2713 -0.0362 -0.3324
56681W        W99672  28.034   2.810  18.895 -0.0126 -0.1152 -0.1056
56682W        W99673  16.618  21.211  15.412 -0.0726  0.2057 -0.2755
56683W        W99674  33.878   2.656  23.116 -0.1726  0.0702  0.0723
56684W        W99675  14.500  12.524  21.690 -0.1781  0.0794 -0.2885
56685W        W99676   2.974  21.381  24.509  0.1557 -0.1857  0.1731
56686W        W99677  14.588  12.725  27.181 -0.2127  0.1884 -0.1591
56687W        W99678  27.906   4.557  26.852  0.0886 -0.3063  0.1671
56688W        W99679  25.110  13.977  22.212  0.0669 -0.0389 -0.2382
56689W        W99680  13.347   9.011  21.401  0.0538 -0.0215  0.1206
56690W        W99681   9.640  21.111  16.319 -0.1869  0.2490 -0.2999
56691W        W99682  19.610   8.119  20.240 -0.0353 -0.5512  0.3548
56692W        W99683  32.213  15.691  18.727  0.0426  0.1980  0.0880
56693W        W99684  17.661   8.845  22.672  0.3552 -0.0028 -0.1500
56694W        W99685  27.788  32.318   6.359  0.0700  0.0335  0.0782
56695W        W99686   4.955   9.826  20.489 -0.4033 -0.3043 -0.1427
56696W        W99687  19.715  23.527  19.005  0.1058 -0.2824  0.1070
56697W        W99688  19.147   9.677   4.898 -0.1067  0.0731  0.0081
56698W        W99689  15.420  13.281  25.288  0.0744 -0.2354 -0.0907
56699W        W99690   8.359  30.883   2.727 -0.1230 -0.0230 -0.0702
56700W        W99691   8.457  14.366  20.951 -0.0944 -0.1134 -0.0316
56701W        W99692  11.154  18.503  21.042  0.2212  0.1489  0.0920
56702W        W99693   5.357  23.519  21.590  0.1492 -0.1380  0.0797
56703W        W99694  15.322  14.236  16.622 -0.1378 -0.0490 -0.0790
56704W        W99695  12.107  22.630  21.808  0.2830 -0.0560  0.1065
56705W        W99696  34.752  30.834  17.727  0.1511 -0.1144 -0.0795
56706W        W99697  25.521  12.197  14.426  0.0317  0.2455  0.3367
56707W        W99698  33.983  32.638   5.367 -0.0377  0.1675  0.0311
56708W        W99699   3.423  24.965  15.978 -0.1019 -0.1103 -0.1714
56709W        W99700   9.368  17.890  21.106  0.0161 -0.2041 -0.4466
56710W        W99701   7.505  29.099  14.835  0.0432  0.2840 -0.1923
56711W        W99702   6.864  19.494   3.304 -0.0421 -0.0573  0.2855
56712W        W99703   3.625  27.172   1.908  0.4005 -0.1350  0.1874
56713W        W99704   7.861  32.408   1.833 -0.2659 -0.1499  0.1401
56714W        W99705   9.776   1.727  27.260  0.1662  0.1064  0.0164
56715W        W99706   8.691  17.703  18.456  0.1822 -0.0574  0.0868
56716W        W99707   6.744   0.596   2.044 -0.0722  0.0480 -0.0321
56717W        W99708   4.910   0.123  19.630  0.0835  0.3652 -0.3020
56718W        W99709  18.782   5.619   2.252  0.1686 -0.1909  0.2071
56719W        W99710  29.613  22.048  14.100 -0.2457 -0.0403 -0.2340
56720W        W99711  12.948   3.720  21.464  0.2894  0.0111 -0.0754
56721W        W99712  12.360  17.428  14.081 -0.1830  0.0762  0.0170
56722W        W99713   3.876   4.998  18.079  0.0632  0.2321  0.0746
56723W        W99714  16.832   1.200   1.115 -0.0188  0.0090 -0.1652
56724W        W99715  10.496   4.265  28.630  0.0490  0.1186  0.0117
56725W        W99716   8.517  15.722  22.543 -0.0769  0.0623  0.1149
56726W        W99717   7.907  13.685  28.218  0.1021  0.1775  0.1913
56727W        W99718  11.060  15.073  15.944 -0.2607 -0.1190  0.0412
56728W        W99719  12.661  14.280  22.565 -0.0031 -0.0042 -0.0504
56729W        W99720  13.225   7.046  19.567 -0.0397 -0.3742 -0.1743
56730W        W99721   3.804   2.204  21.451 -0.2011 -0.1526 -0.2292
56731W        W99722  18.975  21.691   1.023  0.1697  0.1050  0.2599
56732W        W99723   3.338  23.106  15.545 -0.1146 -0.4024  0.0944
56733W        W99724  22.802  18.806  15.153 -0.0623  0.1494 -0.1142
56734W        W99725  13.876   5.988  14.904 -0.2246 -0.1402 -0.2925
56735W        W99726  14.183  22.869  18.060  0.2289  0.2196 -0.1014
56736W        W99727  14.027   4.541  23.875  0.1697  0.0578 -0.1620
56737W        W99728  11.997  31.694  20.623 -0.0259 -0.1041 -0.0367
56738W        W99729  21.547   7.939  26.888 -0.0772 -0.3069  0.0486
56739W        W99730   8.795  25.647  21.067  0.1330 -0.0490  0.0212
56740W        W99731  19.269   7.876  20.987  0.0672 -0.2390  0.3137
56741W        W99732  16.628  13.793   2.278  0.1974 -0.1830  0.2408
56742W        W99733  14.420  32.166   2.119  0.4138  0.0720  0.1021
56743W        W99734  27.464  31.434  25.489 -0.2513  0.2473  0.1966
56744W        W99735   3.813  29.964  25.164  0.1684  0.3401 -0.1540
56745W        W99736  19.876   5.935  22.635 -0.1175 -0.3294 -0.1703
56746W        W99737  22.433  30.527  18.122 -0.1485 -0.1244  0.1497
56747W        W99738  14.259  14.936  15.023 -0.0353 -0.0458  0.2341
56748W        W99739   9.108  15.347  21.757  0.1708  0.0548  0.2283
56749W        W99740   9.568   1.764  23.861  0.0566 -0.3619  0.1190
56750W        W99741   5.934   0.108  24.672 -0.0646 -0.1408 -0.2027
56751W        W99742  33.820  25.226  20.559  0.2973 -0.1260  0.2031
56752W        W99743  20.308  21.506  15.505 -0.0340  0.0786  0.2780
56753W        W99744  10.582  14.523  17.138  0.1453 -0.0820  0.2075
56754W        W99745  14.481  21.624  12.349  0.1386  0.0915 -0.1427
56755W        W99746  22.527  18.302  17.508  0.1171  0.0259  0.0127
56756W        W99747  19.315   9.877   1.201  0.0981  0.0861 -0.5269
56757W        W99748  22.627   1.091  28.686 -0.0991 -0.1765 -0.0950
56758W        W99749  11.647  21.574  16.028  0.0959 -0.0363 -0.0586
56759W        W99750   5.434   8.201  24.150 -0.1382 -0.1709 -0.0184
56760W        W99751  23.952  14.517   4.071 -0.3221 -0.0322 -0.0855
56761W        W99752  23.004  13.843  25.306  0.1898  0.1783  0.1187
56762W        W99753   2.703  24.273  22.389  0.2133 -0.1132  0.0368
56763W        W99754  28.664  11.478  27.060 -0.0339 -0.1609  0.2286
56764W        W99755  10.948  31.810  18.464  0.1676  0.2061  0.0658
56765W        W99756  16.890  23.358  26.225  0.0489 -0.2603 -0.1398
56766W        W99757  18.713   9.471  17.126  0.3485  0.2744 -0.2573
56767W        W99758   2.572  15.953  21.143 -0.1702 -0.0452 -0.0538
56768W        W99759  18.845  31.729   5.686 -0.0274 -0.1953  0.0800
56769W        W99760  18.143  15.239  28.150 -0.0164 -0.0160 -0.1698
56770W        W99761  19.595  17.934   1.837  0.0183  0.3257 -0.3337
56771W        W99762   5.028  21.412  25.825  0.0825  0.3735  0.1954
56772W        W99763   1.270  31.011  16.278 -0.2369 -0.1047 -0.0326
56773W        W99764  18.615  23.769  14.110  0.0877 -0.1730  0.3977
56774W        W99765  18.932   7.248   4.790 -0.1346  0.0001 -0.1148
56775W        W99766  10.322  34.114   2.878 -0.0227  0.0325  0.3335
56776W        W99767  19.708   1.050  13.315 -0.0259  0.2294  0.1984
56777W        W99768  30.474  16.459   5.912  0.1094 -0.1697 -0.2403
56778W        W99769  27.984  13.070   4.805  0.2585  0.0996 -0.0696
56779W        W99770   0.623   8.029  17.203 -0.1879  0.0535 -0.1244
56780W        W99771   6.520  16.959  20.113  0.1413 -0.1620  0.1944
56781W        W99772   3.962   7.086  21.950  0.2556 -0.0111  0.0352
56782W        W99773  16.174  23.227  19.615  0.0782 -0.0830 -0.0646
56783W        W99774  18.111   1.997  15.929 -0.0298 -0.0517  0.2341
56784W        W99775  24.782   0.027  13.029 -0.0264  0.0171  0.1435
56785W        W99776  28.802  19.245  22.142  0.0884 -0.0237  0.0340
56786W        W99777  18.714  14.718  12.108  0.2486 -0.0895  0.1897
56787W        W99778  18.053  21.050  13.773  0.2110  0.0116 -0.0103
56788W        W99779  21.279   3.547  16.920 -0.0576  0.1953  0.1191
56789W        W99780  27.693  13.335   0.467  0.4226 -0.1171  0.1643
56790W        W99781  24.013   5.340  16.477 -0.4310 -0.1136  0.0306
56791W        W99782  17.489   9.691  13.499  0.1644 -0.0528  0.1580
56792W        W99783  17.746  22.025  13.539 -0.0504 -0.2169  0.1581
56793W        W99784   3.449  22.169  26.801 -0.1372  0.0457 -0.0270
56794W        W99785  17.386   5.518  15.739 -0.0328  0.1055 -0.3551
56795W        W99786   8.413   1.627  21.986  0.0035  0.1473 -0.0920
56796W        W99787  13.674   5.714  23.854  0.0652  0.2793  0.2891
56797W        W99788   7.437   9.907   0.481  0.2449  0.2009 -0.2174
56798W        W99789   5.876   8.821  27.962  0.2340  0.1838 -0.0650
56799W        W99790   5.029   6.787  28.138 -0.2921 -0.1949 -0.1975
56800W        W99791   5.886  15.429  24.713 -0.0016 -0.1449 -0.1171
56801W        W99792  18.495  12.067  15.081 -0.0606 -0.3228  0.1326
56802W        W99793  17.541  31.990  20.584  0.1060 -0.0784  0.0015
56803W        W99794  12.690  20.129  14.826 -0.0316 -0.0828 -0.0004
56804W        W99795   0.200  26.178   5.163  0.0006  0.2928 -0.0172
56805W        W99796   4.788  17.290  15.863 -0.0257  0.0762  0.1550
56806W        W99797  20.678   5.248  15.834  0.0524  0.2275  0.3815
56807W        W99798  16.131   1.245   5.129 -0.0003  0.0834 -0.2589
56808W        W99799   5.950  32.974  23.231  0.0339  0.1341  0.0372
56809W        W99800  18.841   9.507  24.340 -0.0493  0.4175 -0.1378
56810W        W99801   7.078  27.258  18.435 -0.0324  0.1584  0.1099
56811W        W99802  15.076   7.906  18.791  0.3155 -0.1050  0.1340
56812W        W99803  24.750   8.424  23.262 -0.0023  0.0840  0.0087
56813W        W99804  16.275  32.928  29.088  0.0633  0.0981 -0.0021
56814W        W99805  20.327   4.014  25.872  0.2162 -0.3174 -0.0641
56815W        W99806  12.114   5.493   4.328 -0.0937 -0.0718 -0.1291
56816W        W99807   2.896  11.541  18.498  0.1600 -0.1239 -0.1762
56817W        W99808  19.545   5.580  22.743 -0.1696 -0.0177 -0.0109
56818W        W99809  10.603  10.931  24.974 -0.2299  0.2120  0.3077
56819W        W99810  21.007   9.922  22.415 -0.2878 -0.1398 -0.2659
56820W        W99811  19.902   2.833  23.329 -0.0530 -0.4306  0.1259
56821W        W99812  11.430   0.650  15.708  0.1268  0.1434  0.0703
56822W        W99813  17.921  12.509  16.356 -0.0301 -0.0047  0.3719
56823W        W99814  10.567   1.926  15.562  0.2296  0.2033 -0.0095
56824W        W99815  14.252   4.503  20.271  0.0043 -0.0431 -0.0780
56825W        W99816   9.400  19.351  16.584  0.2568 -0.1154  0.0788
56826W        W99817  12.010  25.415  19.086  0.1097  0.0817  0.0377
56827W        W99818  17.211   4.633   3.031  0.0541  0.2192 -0.1338
56828W        W99819  14.570  10.553  17.490 -0.1912 -0.2497 -0.0061
56829W        W99820  12.996  29.427  19.529  0.0504  0.2195 -0.0001
56830W        W99821  21.011   1.770  17.270  0.1250  0.0102  0.1299
56831W        W99822   8.735   5.656  19.385 -0.0050 -0.0151 -0.1496
56832W        W99823  24.201  14.448  18.109  0.3005  0.0789  0.1650
56833W        W99824  24.063   8.072  16.161  0.2690  0.0643 -0.0262
56834W        W99825  18.410   9.702  15.600  0.0142 -0.1220 -0.0812
56835W        W99826   4.973   6.859  25.967  0.0625 -0.1448 -0.1492
56836W        W99827  11.113  21.000   3.769  0.0003 -0.2036 -0.1988
56837W        W99828   6.605  15.169  22.009 -0.3257  0.0126 -0.0592
56838W        W99829   5.690  14.540  17.930 -0.1660  0.2359  0.0148
56839W        W99830   5.943  10.316   0.262 -0.1675  0.2056  0.3448
56840W        W99831  10.301   7.710  21.064 -0.0595  0.3688 -0.0114
56841W        W99832   6.699  20.161  18.089  0.0836 -0.1562 -0.1761
56842W        W99833  11.421  21.780  28.357 -0.1294 -0.3016 -0.2863
56843W        W99834   8.257   6.457  23.227 -0.0358 -0.1659 -0.1811
56844W        W99835  11.041  22.333  18.172  0.1352 -0.0457 -0.1146
56845W        W99836  21.960  21.741  18.431  0.1135 -0.0983  0.4330
56846W        W99837   9.423  25.260  18.893  0.0595 -0.2383 -0.0513
56847W        W99838  11.042  12.039  26.290 -0.1082 -0.1497  0.0956
56848W        W99839   0.520  21.903  27.689 -0.1162  0.2452 -0.2659
56849W        W99840  24.817  16.789   3.428 -0.0207  0.0952  0.1378
56850W        W99841  21.056  25.396  14.674  0.2091 -0.1752 -0.0077
56851W        W99842  25.658   1.955  18.192 -0.1983  0.1600  0.4169
56852W        W99843  18.742  13.829  17.799 -0.2165 -0.2370 -0.1161
56853W        W99844  32.542   9.590  15.443 -0.0727  0.0070  0.1926
56854W        W99845   9.566  10.303  18.380  0.0838 -0.0098  0.3451
56855W        W99846   1.914  16.825  18.638  0.1524  0.0831 -0.1332
56856W        W99847   3.725  27.714  20.235  0.1125  0.3412 -0.0678
56857W        W99848  27.112  30.084  28.927  0.0286 -0.1114  0.1897
56858W        W99849  16.439   4.201  15.208  0.2428 -0.1619 -0.1274
56859W        W99850  16.273  11.006  18.611 -0.5632  0.1252  0.2526
56860W        W99851  23.317   5.563  19.677  0.1520  0.4225 -0.0237
56861W        W99852  20.639  21.550  18.105  0.1753  0.1270 -0.2184
56862W        W99853  30.619  15.160  21.700  0.3229  0.1227 -0.0155
56863W        W99854  17.293  11.134  14.040 -0.0323  0.1329  0.2602
56864W        W99855  17.377  25.281  24.184  0.3021 -0.1508  0.0534
56865W        W99856  14.147   5.801   0.777  0.1029 -0.0759 -0.0485
56866W        W99857   7.736   6.875  16.491 -0.1471  0.2680 -0.2346
56867W        W99858   8.706  11.067  17.106  0.0251  0.1693 -0.1139
56868W        W99859   2.744  22.642  17.470  0.2230 -0.1638  0.1428
56869W        W99860  11.017  16.845  23.602 -0.1052 -0.1454  0.0394
56870W        W99861  18.751   4.406  15.471  0.2288  0.3679 -0.1513
56871W        W99862  24.016  18.969  21.234 -0.1069  0.1760  0.2052
56872W        W99863   0.941  17.237   4.731  0.4596 -0.3779  0.0234
56873W        W99864  16.978   7.269  15.622 -0.0751  0.3324 -0.0907
56874W        W99865  18.196   4.676  21.033 -0.1203 -0.1805 -0.1377
56875W        W99866  26.252  11.561  13.811  0.2056 -0.5197 -0.2481
56876W        W99867  13.742  16.239  13.924  0.2690 -0.1740 -0.0071
56877W        W99868  17.690  30.433  19.382  0.0922 -0.0698 -0.2558
56878W        W99869  29.568  19.417  24.091  0.1381 -0.2896 -0.1084
56879W        W99870   5.947   6.855  22.214  0.1816  0.0399  0.2445
56880W        W99871  12.770  20.501   4.932  0.0686  0.0658 -0.1187
56881W        W99872  16.131  19.684  22.083 -0.0718  0.0359 -0.0025
56882W        W99873  32.060  19.593  21.047 -0.2572  0.0091 -0.0074
56883W        W99874   9.960  17.792  23.279  0.0082  0.0005  0.0881
56884W        W99875   6.548   5.174  26.345  0.2023 -0.1529  0.2380
56885W        W99876  32.582  22.128   8.236 -0.1439 -0.0248 -0.0786
56886W        W99877   7.515  34.007   4.014  0.0787  0.1357  0.0343
56887W        W99878  12.854   8.170  19.742  0.1077  0.1529 -0.0449
56888W        W99879   1.737  11.995   5.774 -0.0670  0.0576 -0.1536
56889W        W99880  17.142  15.927  26.644 -0.5380  0.0005  0.1372
56890W        W99881  13.978  31.379  21.717  0.1286 -0.1727 -0.2875
56891W        W99882  21.473   2.249  17.987 -0.2292  0.1104  0.0010
56892W        W99883  16.443  32.277  18.714  0.1697  0.0901  0.0067
56893W        W99884  20.019   0.295   0.911 -0.0340  0.0185  0.1028
56894W        W99885  14.593   8.764  22.541  0.1464 -0.1633 -0.1314
56895W        W99886  26.229  27.633  16.897 -0.1631  0.1365 -0.2454
56896W        W99887  16.285  30.044   2.368  0.1462  0.1995  0.0223
56897W        W99888   7.643  25.786  15.079 -0.3073  0.0965 -0.0162
56898W        W99889  18.647  11.742  20.950  0.0003  0.1825  0.1881
56899W        W99890  15.452   6.650  16.943 -0.1773 -0.0829  0.4283
56900W        W99891  21.099   7.902  16.736  0.0604  0.2235  0.1784
56901W        W99892  23.193   5.151  14.154  0.0062 -0.0162  0.0543
56902W        W99893  12.568   1.760  20.917 -0.1446 -0.2542 -0.0416
56903W        W99894  26.760   9.696  24.302 -0.0272 -0.0802  0.4480
56904W        W99895  11.110  12.838  16.506  0.5843 -0.0056 -0.0201
56905W        W99896  24.499  22.443  16.574 -0.1573 -0.0601  0.3746
56906W        W99897   6.388  26.314  15.634 -0.1672 -0.0845  0.0178
56907W        W99898  18.620   6.533   1.120  0.0645  0.2308  0.1793
56908W        W99899  10.720  10.831  18.922  0.1023  0.0682 -0.1168
56909W        W99900  19.247  10.859  15.535  0.1894 -0.0230 -0.2465
56910W        W99901  11.841  17.890  18.529  0.2931  0.3187 -0.2794
56911W        W99902  16.205  32.215  27.727 -0.0472 -0.0813  0.0519
56912W        W99903  14.708   2.338  22.460  0.3701 -0.0624 -0.1454
56913W        W99904  20.568   2.044  17.032  0.0507  0.0396  0.0677
56914W        W99905   9.755  10.809  21.882  0.0988 -0.3616  0.0510
56915W        W99906  34.061  30.993  24.149 -0.2618 -0.0571  0.1279
56916W        W99907  23.939   4.739  27.828 -0.2422 -0.1733 -0.2391
56917W        W99908   1.764  20.677  17.948  0.1214  0.0393  0.2206
56918W        W99909   0.251  26.798  24.378  0.1293  0.0046 -0.0151
56919W        W99910  17.654  19.617  14.078  0.0701  0.2449  0.0372
56920W        W99911   3.616  11.559  25.272 -0.0937 -0.1725  0.0949
56921W        W99912  11.512  28.482  28.967  0.0998 -0.1615 -0.1028
56922W        W99913  34.228  33.338  24.153  0.2353  0.2813 -0.0496
56923W        W99914   0.694  28.680  15.514 -0.1970  0.1953 -0.3525
56924W        W99915  29.618  22.464  20.071 -0.1269 -0.2179  0.0793
56925W        W99916  22.010   7.970  19.220  0.0087 -0.1810  0.1975
56926W        W99917   9.133  12.564  18.549 -0.0405 -0.0341 -0.3690
56927W        W99918  26.188  15.142  18.000 -0.1543  0.0100  0.3173
56928W        W99919  24.943  21.397  18.167 -0.1201 -0.2085  0.0633
56929W        W99920  15.450  26.235  20.294  0.3402  0.1144 -0.0799
56930W        W99921  30.916   0.765  26.236  0.2628  0.0294 -0.1376
56931W        W99922  13.669  16.695  14.226  0.1801 -0.2619  0.0824
56932W        W99923  14.792   6.876  16.349 -0.0319  0.2855  0.2813
56933W        W99924  24.244  34.538  14.279  0.0144 -0.0944 -0.1541
56934W        W99925  15.473  20.782  16.853  0.1129  0.1459 -0.0992
56935W        W99926  13.752  10.225  23.413  0.0757 -0.0726 -0.2132
56936W        W99927  11.579  13.967  15.261 -0.1129 -0.0765  0.1914
56937W        W99928  22.232  16.826  19.867  0.1002 -0.1365 -0.1596
56938W        W99929   5.535  12.585  17.531 -0.2653 -0.1451  0.0744
56939W        W99930   1.428  31.929  24.680  0.0716 -0.1021  0.0361
56940W        W99931  14.545  20.113  15.995  0.2769 -0.1180  0.3388
56941W        W99932   2.975  33.769  24.171 -0.0464  0.2465 -0.2340
56942W        W99933   1.109  26.026  13.830 -0.0958 -0.0447  0.0781
56943W        W99934  33.320  12.911   9.648  0.2384  0.0498 -0.1839
56944W        W99935  10.109  20.676  15.433  0.1754 -0.0423  0.2266
56945W        W99936   0.766   8.583  24.443 -0.0072 -0.2903  0.3431
56946W        W99937   7.129  15.409  20.016 -0.0907 -0.0252  0.0629
56947W        W99938  22.465  17.294  17.031 -0.2595  0.3343 -0.1449
56948W        W99939  18.595  14.181  13.253 -0.0829 -0.0398  0.0616
56949W        W99940   3.708  19.803  16.698 -0.1260  0.2925  0.1270
56950W        W99941  16.689  12.800  16.807  0.0039 -0.2601 -0.1966
56951W        W99942  17.785  11.461  22.146 -0.0599  0.0657  0.0633
56952W        W99943  20.503   6.704  20.361  0.1297 -0.1785  0.1953
56953W        W99944   9.848  22.898  23.542 -0.1270  0.1342 -0.0901
56954W        W99945  17.613  10.455   5.093  0.0091  0.2982 -0.0508
56955W        W99946   4.264  23.216  14.362 -0.0819 -0.0200 -0.2343
56956W        W99947  19.303  26.387  13.219  0.1556 -0.2784 -0.1129
56957W        W99948   1.844  21.333  16.673  0.2913  0.1434 -0.3591
56958W        W99949   9.281   2.688  20.475 -0.2225 -0.0838 -0.3147
56959W        W99950  19.342   8.882   2.101 -0.1566 -0.1219  0.1509
56960W        W99951  34.170   6.535  28.984  0.0071  0.1808  0.0993
56961W        W99952  27.036  17.514   8.979  0.2794  0.0414 -0.5523
56962W        W99953  24.339   4.914  22.454 -0.0914  0.0895 -0.0118
56963W        W99954  23.232  17.810  20.717 -0.1632  0.2642  0.1241
56964W        W99955  18.057  12.756  17.505  0.1743 -0.0379 -0.2320
56965W        W99956  13.924   9.346  14.449 -0.1198 -0.0268  0.2895
56966W        W99957   5.642   6.393   2.229  0.5168  0.0313  0.0086
56967W        W99958  18.247   8.424  18.993 -0.1452 -0.0776  0.2658
56968W        W99959  13.037  18.197  15.777  0.0203 -0.0300 -0.1034
56969W        W99960  21.775  29.167  13.198 -0.1520 -0.1402  0.0306
56970W        W99961  27.712  24.129  18.384  0.1399  0.0153  0.0604
56971W        W99962   0.437  13.360  22.440  0.0195  0.0419 -0.1084
56972W        W99963  19.360   9.551  18.303 -0.4236 -0.1610 -0.2420
56973W        W99964  10.709   0.190  15.731  0.2564  0.2659  0.4201
56974W        W99965  18.994  31.324  20.095  0.1302  0.0152 -0.0287
56975W        W99966  28.038  21.159  17.015 -0.0239  0.1210 -0.0994
56976W        W99967  23.113  18.913  20.615 -0.1475  0.0683  0.2773
56977W        W99968  11.219   7.106  18.365 -0.1122  0.1424 -0.0999
56978W        W99969  10.403  20.940   3.046  0.2485 -0.1038  0.0766
56979W        W99970  32.975   9.444  24.076 -0.0743 -0.0804 -0.1480
56980W        W99971   9.325  17.102  23.669  0.1751 -0.1650  0.4426
56981W        W99972  12.173  15.217  14.722 -0.3550 -0.0969  0.0543
56982W        W99973  10.372   2.622  26.542  0.0205 -0.3081  0.4130
56983W        W99974  18.195  11.098   0.053  0.1401 -0.1955  0.1483
56984W        W99975  12.080  19.133  19.137  0.1244  0.0460  0.0458
56985W        W99976  22.623   1.776  13.143 -0.1789  0.1211  0.0968
56986W        W99977  17.455  13.111  17.837 -0.2074  0.0307  0.0421
56987W        W99978  24.034  29.688  27.641  0.3168 -0.0771  0.0675
56988W        W99979  12.243  11.076  16.734  0.0066 -0.0191  0.0779
56989W        W99980   3.749   6.570  20.621  0.0310  0.0028 -0.0229
56990W        W99981  11.573  11.312  27.819  0.2809 -0.1988 -0.1518
56991W        W99982  16.510   6.130  18.530  0.2228  0.4060  0.1615
56992W        W99983  17.490   0.152  19.682 -0.1387 -0.0651  0.3079
56993W        W99984   4.329  23.849  15.616 -0.1358 -0.0517  0.1834
56994W        W99985  18.224  26.157  18.978 -0.0478 -0.2473  0.1231
56995W        W99986  11.709   3.912  22.783 -0.1171  0.1345 -0.2191
56996W        W99987   8.377  25.144  15.232  0.2143  0.1128 -0.4449
56997W        W99988   6.006   7.319  16.536  0.1300 -0.0845  0.2153
56998W        W99989  28.970  28.680  12.056  0.0975  0.0254  0.0052
56999W        W99990   6.514   1.440  17.576 -0.0384 -0.1595 -0.1832
57000W        W99991  32.992  20.353  15.762 -0.0490 -0.0506  0.2666
57001W        W99992   9.679  32.446  20.595  0.0435 -0.3553  0.0051
57002W        W99993  15.303  20.539  12.840  0.2136 -0.2831  0.0687
57003W        W99994  25.969   7.204  23.546  0.1814 -0.0749  0.1745
57004W        W99995  19.522  13.878  14.778  0.2278  0.1913  0.1157
57005W        W99996  22.969  10.237  26.813 -0.0135 -0.5137 -0.1590
57006W        W99997  23.874  31.436  22.968 -0.1536  0.0161  0.3874
57007W        W99998  31.563  20.198  14.946  0.2632  0.1694 -0.2505
57008W        W99999   1.303  25.671   0.467 -0.0046 -0.2538 -0.0320
57009W        W    0  20.988  10.064  27.626 -0.2119  0.1086 -0.1912
57010W        W    1  12.549  14.789  13.423  0.0355  0.2481 -0.0673
57011W        W    2  15.629  14.783   0.834  0.1915 -0.0655 -0.1481
57012W        W    3  22.344  19.194  18.151 -0.2539 -0.5001  0.1435
57013W        W    4   1.973  17.698  25.682 -0.0282 -0.0654 -0.1560
57014W        W    5  13.475  11.500  21.695 -0.4588 -0.2558  0.1009
57015W        W    6  28.381   5.958  18.224 -0.0921 -0.0092 -0.1215
57016W        W    7   4.099  34.327  18.768  0.1838 -0.0601 -0.0508
57017W        W    8  13.018   5.150  14.983 -0.1769 -0.0420  0.0067
57018W        W    9  13.388  26.602  22.263  0.2640 -0.2170 -0.1886
57019W        W   10  12.163  16.202  27.804  0.2071  0.2083 -0.2466
57020W        W   11  29.625  26.651  18.122 -0.0427 -0.2502 -0.2419
57021W        W   12  17.841  21.255  18.004  0.0702  0.2859  0.1072
57022W        W   13  33.573  14.095  25.477 -0.0101 -0.1203  0.0731
57023W        W   14  24.107  17.472  23.550 -0.3322  0.1155  0.0603
57024W        W   15   5.383  18.407  21.145  0.1022  0.2565 -0.0232
57025W        W   16  19.923  10.988   2.892  0.1074  0.3412  0.4984
57026W        W   17   9.733  14.575  19.479  0.2295 -0.1866 -0.0645
57027W        W   18   6.805   5.943  25.731  0.1961 -0.1486  0.0916
57028W        W   19   6.616  20.751  29.142  0.1465  0.0937 -0.1970
57029W        W   20   9.297   3.240   3.903  0.0144 -0.3715  0.1706
57030W        W   21  15.883   5.871   1.866 -0.0607 -0.2550 -0.1938
57031W        W   22  19.415  24.330  16.015 -0.1399  0.0904 -0.1728
57032W        W   23   9.087  12.154   9.276 -0.0841  0.0726  0.2375
57033W        W   24  13.095   3.896   0.147 -0.0622  0.1146  0.1715
57034W        W   25  23.616  25.180  16.711 -0.2124 -0.1817 -0.2344
57035W        W   26  10.342   9.923  16.831  0.1931  0.1937  0.1546
57036W        W   27  16.069  30.301   6.111 -0.0662  0.2020  0.0293
57037W        W   28  15.134  11.893  20.431 -0.1406  0.4282 -0.1008
57038W        W   29  11.395  14.360  24.527 -0.2598  0.1799  0.4072
57039W        W   30  15.366  18.983  23.176 -0.2014  0.1997  0.1538
57040W        W   31  31.021  25.248  14.031 -0.0396 -0.1246 -0.0499
57041W        W   32   8.947  15.085  22.150  0.1071 -0.1072  0.0953
57042W        W   33   3.366  11.589  18.287 -0.0999 -0.1309 -0.2328
57043W        W   34   2.950  22.838  20.153 -0.0721 -0.3785 -0.3234
57044W        W   35  14.990  26.430  13.699  0.1614 -0.0496 -0.0303
57045W        W   36  15.077   6.859  23.245 -0.0265  0.1559 -0.1121
57046W        W   37  16.359  21.957  13.373  0.0933 -0.0967  0.4863
57047W        W   38   6.655  14.673   1.841 -0.0857 -0.1720 -0.1166
57048W        W   39  23.402  15.873  28.302 -0.1465 -0.0192  0.1286
57049W        W   40  34.003  13.422  27.439 -0.2086  0.0051 -0.1795
57050W        W   41   7.446  27.863  17.115  0.0582 -0.0722  0.1509
57051W        W   42   8.149  25.362  14.799 -0.0446  0.3997 -0.1203
57052W        W   43  31.377  33.521  25.699  0.2687 -0.1981 -0.3758
57053W        W   44   3.664  16.283  23.402 -0.0717  0.0403 -0.0943
57054W        W   45  22.820  23.090  18.641 -0.0214  0.1700 -0.2630
57055W        W   46  22.657  17.944  20.716 -0.0508 -0.0567  0.0557
57056W        W   47  33.596   5.919  18.059  0.1961 -0.2370 -0.1722
57057W        W   48   3.415  24.524  20.649 -0.3023 -0.0539  0.0089
57058W        W   49  11.998  16.180  17.965 -0.2219  0.0273  0.3298
57059W        W   50  14.462   9.436   2.981  0.1485 -0.2174 -0.2782
57060W        W   51  14.395  21.407  13.780 -0.1905 -0.3136  0.2262
57061W        W   52  23.454   7.160  17.080  0.0346 -0.0953  0.0719
57062W        W   53  15.784  27.835  13.827  0.2854  0.0985  0.1339
57063W        W   54  11.036  23.113  26.239 -0.0548 -0.0790  0.2048
57064W        W   55   6.804  31.989  14.968 -0.3127 -0.1885 -0.2893
57065W        W   56  19.941   5.990  23.723 -0.0199 -0.0470  0.0580
57066W        W   57  13.838  30.562   3.542 -0.1289  0.2557 -0.0723
57067W        W   58  20.283   8.559   4.991  0.1466  0.2501 -0.2553
57068W        W   59   7.981   8.792  19.880  0.2300  0.0937 -0.0160
57069W        W   60  31.962  10.838  24.112 -0.1518 -0.0369 -0.2355
57070W        W   61  11.827  14.912  16.297 -0.2046 -0.1284 -0.2345
57071W        W   62  22.172  14.467  20.987  0.0022  0.1814  0.4273
57072W        W   63  15.473  11.218  14.668 -0.2674 -0.1539  0.0905
57073W        W   64  13.957   4.840  23.473  0.0391 -0.0756  0.3349
57074W        W   65  17.220  12.322  25.959  0.2114 -0.0420  0.3221
57075W        W   66  20.500   4.641  26.854  0.1701 -0.0083 -0.0755
57076W        W   67  28.201   6.798   3.167 -0.0204  0.1616 -0.1546
57077W        W   68  30.972  12.539  17.278 -0.1878 -0.2873  0.1955
57078W        W   69  26.892  13.176  23.051 -0.1757 -0.0804 -0.0037
57079W        W   70  14.698   2.188  15.133  0.2248  0.5827  0.0133
57080W        W   71   9.026   7.764  20.209 -0.2892  0.1733 -0.1396
57081W        W   72  21.081   9.674  18.738  0.0648  0.1120  0.0982
57082W        W   73  10.597  32.758  20.570 -0.1264  0.1885 -0.0674
57083W        W   74  15.853   6.652  18.529 -0.1161 -0.0663  0.1435
57084W        W   75  13.069   8.432   7.000 -0.1063 -0.0229 -0.3865
57085W        W   76   0.518   8.129  23.642  0.2532 -0.0686  0.0761
57086W        W   77   5.924  15.537  29.021 -0.2896 -0.2889 -0.1018
57087W        W   78  26.543   1.090  27.781  0.0066 -0.0620 -0.0636
57088W        W   79  27.145  34.665  22.500 -0.3138 -0.1383  0.2719
57089W        W   80   8.059  28.779  21.814  0.0041  0.0514 -0.0387
57090W        W   81  25.003  19.184   1.641 -0.3663 -0.0747  0.0189
57091W        W   82  10.353   2.244  19.692 -0.0561 -0.1268 -0.0420
57092W        W   83   0.391  30.500  28.847  0.0747 -0.0908 -0.0088
57093W        W   84  30.528  15.962  27.712  0.1502 -0.2222 -0.0994
57094W        W   85  17.439  11.796  13.551  0.0584  0.1371 -0.0602
57095W        W   86  26.574  30.180  15.226  0.1755  0.0803  0.0131
57096W        W   87   7.624   5.082  22.794 -0.1525 -0.1125  0.3835
57097W        W   88  27.213  25.291  22.805  0.2509 -0.1138  0.1083
57098W        W   89  17.863   4.855  16.058 -0.2463  0.0759 -0.0629
57099W        W   90  23.071  18.134   0.529  0.2233 -0.4016  0.0489
57100W        W   91  31.629  24.824  22.520  0.1091  0.1982 -0.3008
57101W        W   92  15.284   8.875   3.408 -0.2148 -0.4969  0.1698
57102W        W   93   7.682  32.145  17.175  0.0448  0.1228 -0.1041
57103W        W   94  12.202  15.120  18.570  0.1758 -0.0435  0.0530
57104W        W   95  29.832  10.526  22.185  0.1535 -0.1933 -0.0111
57105W        W   96  27.626  21.274  18.370 -0.2572 -0.1032  0.1371
57106W        W   97  20.289  26.392  16.132 -0.2307 -0.0872  0.2220
57107W        W   98  16.437  13.925   2.796  0.0475  0.2495  0.0419
57108W        W   99  20.411  32.592  18.355 -0.3011  0.1959  0.3427
57109W        W  100   8.213   7.302   2.713  0.2278 -0.2670  0.0856
57110W        W  101  24.172  12.043  23.699  0.0439  0.0317 -0.3829
57111W        W  102   9.101  12.311  16.216 -0.0584 -0.1374  0.0136
57112W        W  103  24.453  16.680  18.363  0.4024  0.1911  0.2231
57113W        W  104  16.050  33.146  22.675 -0.1459 -0.1065  0.1516
57114W        W  105  30.956  34.249   9.097  0.1886  0.2331  0.3309
57115W        W  106  16.297  31.257  15.366 -0.0130  0.0788  0.1511
57116W        W  107  17.552  20.274  13.480 -0.2568  0.1271  0.0468
57117W        W  108  17.860   8.036  24.416  0.4220 -0.1788  0.1992
57118W        W  109  20.230  16.659   2.026  0.0234 -0.1294 -0.0795
57119W        W  110   4.341   9.050  24.410 -0.1919  0.0758  0.4105
57120W        W  111  19.593  11.237   1.549 -0.1460  0.1025  0.0136
57121W        W  112   4.502  28.537   3.376 -0.1053  0.1010  0.0449
57122W        W  113  25.752   7.465  21.055  0.1602 -0.3780 -0.0645
57123W        W  114  25.537  23.419  25.506  0.0522  0.1661  0.2002
57124W        W  115  14.535   2.976  21.250 -0.1543 -0.2937 -0.0415
57125W        W  116   8.212  25.070  21.392  0.1776 -0.2115 -0.1483
57126W        W  117   9.670   4.463  23.404  0.0563 -0.2402  0.2152
57127W        W  118  10.846  13.588  19.003  0.0396  0.2913 -0.1234
57128W        W  119  11.769  28.712  22.855 -0.1519  0.1281  0.3268
57129W        W  120  30.095  15.707  28.600 -0.2768  0.1875 -0.2558
57130W        W  121  14.098  26.810  26.003  0.1631 -0.1125  0.0651
57131W        W  122  23.558   1.090  27.364 -0.0268 -0.1580 -0.0154
57132W        W  123  26.728  31.844  23.132 -0.2154  0.2940 -0.1481
57133W        W  124   9.176   0.871   9.316 -0.0773  0.0057  0.1936
57134W        W  125  26.288   2.710  19.974  0.1645 -0.0894  0.0065
57135W        W  126  31.532  33.612  25.203  0.2999  0.1892 -0.2127
57136W        W  127   7.119   8.276  18.564  0.0658  0.1713 -0.1900
57137W        W  128  23.902  12.668   0.331 -0.1290  0.2378  0.2161
57138W        W  129   5.143  11.296  26.744  0.3732  0.3194 -0.1859
57139W        W  130   2.394   0.829  20.207  0.0286 -0.2370 -0.1985
57140W        W  131   0.493  18.381  28.426 -0.0872  0.1386  0.1809
57141W        W  132  26.858  11.650  15.768  0.3084 -0.1108  0.1179
57142W        W  133  19.839  24.759  23.225 -0.0364 -0.2947 -0.0827
57143W        W  134  10.317  12.777  17.576 -0.0255  0.3586  0.0646
57144W        W  135  18.971  19.908  13.430 -0.0478  0.0838 -0.0072
57145W        W  136  28.982  13.703  18.411  0.1903 -0.4301  0.1621
57146W        W  137  14.680  11.114  13.769 -0.1021 -0.1163  0.2620
57147W        W  138  29.169  32.710  25.512  0.2800 -0.2061  0.2279
57148W        W  139  14.485  18.533  13.284  0.2319 -0.1643  0.0476
57149W        W  140  10.328  10.779  22.941  0.1015 -0.0636  0.0004
57150W        W  141  32.527  17.281  17.501  0.0032 -0.1350  0.0204
57151W        W  142  10.748  28.897  28.026 -0.0307  0.0277  0.1076
57152W        W  143  20.376  11.395  16.734  0.0800  0.0613  0.2280
57153W        W  144  19.059  20.297  13.735 -0.1417  0.0996  0.0530
57154W        W  145  25.486  15.039  18.085 -0.3041  0.4836 -0.1720
57155W        W  146  32.107  34.724  21.897  0.1654  0.0996  0.0327
57156W        W  147  14.063  12.366  23.014 -0.1916  0.0718 -0.1032
57157W        W  148  33.803  29.522  22.801 -0.0150  0.2613  0.2000
57158W        W  149  29.168  17.323  23.242  0.0175  0.2025 -0.0256
57159W        W  150  19.888  19.619  15.121  0.2331  0.1364 -0.3422
57160W        W  151  20.280  28.845   2.889 -0.2605  0.4169  0.2221
57161W        W  152   4.672  27.319  20.718  0.0163 -0.2259 -0.0746
57162W        W  153  10.643  11.815  15.711 -0.0973 -0.1102  0.0141
57163W        W  154   5.824  30.333  18.961  0.0736 -0.4025 -0.0853
57164W        W  155  21.897  31.676  16.411  0.0220  0.0683  0.1362
57165W        W  156  32.073  12.695  24.800 -0.0546 -0.1073  0.0120
57166W        W  157   4.887   7.693  17.221 -0.1683 -0.1473 -0.1700
57167W        W  158  19.397   9.253  16.139 -0.0632  0.0725 -0.1353
57168W        W  159   3.676  21.747  15.378  0.1162  0.0989 -0.0368
57169W        W  160   8.416  31.006  19.401  0.1596 -0.2668 -0.0958
57170W        W  161   8.536  25.100  18.348 -0.1994 -0.1106  0.0635
57171W        W  162  12.822  10.074   1.541 -0.4403 -0.0264 -0.0729
57172W        W  163  14.675  20.568   3.445 -0.0926 -0.0113  0.0889
57173W        W  164   9.395  13.781  16.395  0.1738 -0.3625 -0.0088
57174W        W  165   6.272   9.046  17.096  0.1980  0.2246  0.1569
57175W        W  166  17.661  31.488  20.499  0.0070 -0.0170 -0.0671
57176W        W  167  29.890  16.145  19.333  0.0846  0.1335 -0.0292
57177W        W  168  18.717  18.036   1.856  0.1152  0.0054 -0.0573
57178W        W  169  11.339  10.273   1.390 -0.1184  0.0190  0.5759
57179W        W  170   1.106  27.014  15.263  0.0495 -0.0530  0.2869
57180W        W  171   5.434  11.659   9.812 -0.0639  0.1431 -0.2021
57181W        W  172  15.169   8.535  14.491  0.1500 -0.0300  0.0140
57182W        W  173   8.910   5.781  26.524 -0.0459 -0.1107  0.1898
57183W        W  174  29.558  15.263  25.153  0.2697  0.0672  0.1392
57184W        W  175  18.702   1.374   3.394  0.1357 -0.0215 -0.3176
57185W        W  176   5.576  21.652  20.069 -0.1573  0.2013 -0.0806
57186W        W  177   2.893  13.527   8.015 -0.3947  0.2188  0.2309
57187W        W  178  13.674  12.242   0.585  0.5016  0.0901  0.2292
57188W        W  179  32.624  33.526  14.504 -0.1360  0.2934  0.0126
57189W        W  180  18.860  26.604  20.289  0.2287 -0.0069  0.0982
57190W        W  181  28.821   6.272  25.522 -0.2505 -0.1993 -0.3187
57191W        W  182  11.556  28.452  25.271  0.0776  0.1742  0.2629
57192W        W  183  17.114  33.764  22.386 -0.2960 -0.0710  0.1714
57193W        W  184  12.862  16.296  16.551  0.3897 -0.0217  0.0329
57194W        W  185   9.788   9.712  17.543  0.1036 -0.0699  0.0583
57195W        W  186  15.421   6.236   9.437  0.0540  0.0633  0.0653
57196W        W  187   2.388  31.998  15.690  0.0102  0.2237 -0.0044
57197W        W  188  18.578  11.144  19.293  0.1058 -0.1613 -0.1446
57198W        W  189  30.482   9.684  26.305  0.0140  0.2932 -0.0792
57199W        W  190  10.626   3.015  22.767 -0.4528 -0.1575  0.0650
57200W        W  191  19.014  14.012  14.744  0.1264 -0.1241 -0.3425
57201W        W  192   9.000   6.148   0.218 -0.4125 -0.1181 -0.2252
57202W        W  193  21.732   7.403  15.988  0.3324  0.0258  0.1265
57203W        W  194  17.646  18.741   6.076 -0.0994  0.0202  0.2721
57204W        W  195  29.687  11.369  19.936 -0.1276 -0.3236  0.0634
57205W        W  196  19.180   4.958  18.509  0.2553 -0.1572  0.2662
57206W        W  197  19.271   5.188  19.511 -0.1325  0.0488  0.2353
57207W        W  198   7.260   2.887  22.905  0.0259  0.2485 -0.0514
57208W        W  199  13.402  11.078  27.857 -0.1379  0.2495 -0.0676
57209W        W  200   6.793  16.619  18.268  0.0768  0.2564  0.2168
57210W        W  201  17.476  12.191  21.847 -0.0420 -0.0472 -0.0488
57211W        W  202   8.529  30.905  14.140 -0.0859 -0.5812 -0.2069
57212W        W  203  24.321  11.032  14.199 -0.2988  0.0014 -0.0239
57213W        W  204  30.677   3.175  14.908 -0.3875 -0.2140 -0.0109
57214W        W  205  11.652  16.267  26.610 -0.3781 -0.0386  0.1622
57215W        W  206  13.941  23.014  20.157  0.0578 -0.1834  0.1808
57216W        W  207   4.476   0.164  25.791  0.2334  0.0386 -0.1215
57217W        W  208   3.847  21.703  16.257 -0.1770  0.2137  0.0989
57218W        W  209  14.690  11.468  17.978  0.2251 -0.0943  0.2015
57219W        W  210  13.325  14.215  19.089 -0.0216  0.2618 -0.2033
57220W        W  211   5.557  17.358  19.241  0.0694  0.0197  0.0526
57221W        W  212   9.902   3.837  27.212  0.1643  0.0027 -0.2128
57222W        W  213  24.788   2.563  25.937 -0.0004  0.0260 -0.0983
57223W        W  214   7.966   4.052   1.997  0.0340 -0.0053 -0.0737
57224W        W  215  11.460  22.476  21.004 -0.0443  0.0345  0.1245
57225W        W  216  25.577  27.702   3.716 -0.2634  0.0749  0.4547
57226W        W  217  19.449  17.154  15.088  0.1295 -0.1499  0.2424
57227W        W  218  17.005  28.017  21.281  0.1110 -0.2931  0.0321
57228W        W  219  15.090   9.431   3.294 -0.1033  0.0864  0.0276
57229W        W  220  10.968  10.615  16.648 -0.1048 -0.0703 -0.2456
57230W        W  221  24.305  34.109  16.565 -0.2077 -0.1625  0.0270
57231W        W  222   9.952  32.437  21.002  0.1331 -0.1285 -0.0132
57232W        W  223  12.796  11.876  22.710  0.1605  0.2760  0.1110
57233W        W  224  22.973  13.164   3.507  0.1171 -0.0467 -0.0073
57234W        W  225  15.989   4.741  18.058 -0.2651  0.0566 -0.1595
57235W        W  226   4.413   0.409  27.961  0.3894  0.2496 -0.0590
57236W        W  227  20.526  28.325  21.427 -0.1915 -0.0755  0.0117
57237W        W  228  28.382  17.088  20.498 -0.2720  0.0932 -0.2067
57238W        W  229  28.845   5.668  18.802 -0.1495  0.0351 -0.0128
57239W        W  230  11.675   6.065  18.181 -0.4413 -0.0069  0.0707
57240W        W  231  25.243  15.728  20.365  0.0834  0.1070  0.3742
57241W        W  232  18.606  28.162  17.069  0.0083  0.0342  0.1791
57242W        W  233  13.740   6.210  19.617  0.1576 -0.0999 -0.2776
57243W        W  234  16.239   4.389  15.838  0.0278  0.1168 -0.1193
57244W        W  235  28.544   9.527   7.108 -0.1358  0.0830  0.0019
57245W        W  236  24.240  10.864  27.205  0.1844  0.1116 -0.1560
57246W        W  237  34.645  28.438  27.617  0.2242  0.1154  0.1683
57247W        W  238   4.351  12.147  18.578 -0.0874 -0.1019 -0.0383
57248W        W  239  15.804  12.267  16.800 -0.1044 -0.1358 -0.1579
57249W        W  240   2.271  25.498  21.657 -0.0616  0.1462  0.0330
57250W        W  241  12.407   8.506   5.422 -0.2637  0.0405 -0.1232
57251W        W  242  20.284  31.810  18.748 -0.0523  0.4251 -0.0415
57252W        W  243  25.199  30.069  28.353  0.1095  0.0881  0.0584
57253W        W  244  17.045  22.380  16.267 -0.0224 -0.0534 -0.0214
57254W        W  245  18.653   8.780  28.000  0.0935 -0.2616 -0.0138
57255W        W  246  10.753   6.423  28.812  0.0301 -0.1958  0.1733
57256W        W  247   3.391   8.773  22.142 -0.1335  0.0776  0.1842
57257W        W  248  26.695   5.912   0.643  0.2288  0.0638  0.5876
57258W        W  249  16.590   2.810  21.646  0.0072  0.0531 -0.2688
57259W        W  250   9.221  16.825  19.948 -0.0446 -0.1831 -0.0329
57260W        W  251  17.521   9.500  23.581 -0.0804  0.1215 -0.3979
57261W        W  252  31.741   9.302  25.579  0.2524 -0.1977  0.0491
57262W        W  253  11.790  33.733  15.389  0.1053  0.0417  0.2364
57263W        W  254  10.102   5.006   8.247  0.0691 -0.1866 -0.1392
57264W        W  255  16.851  18.493  13.611 -0.1188 -0.6268  0.6753
57265W        W  256  12.082   7.622  26.984 -0.1079  0.3114  0.4887
57266W        W  257  17.865  20.789  14.639  0.1588 -0.2633  0.0778
57267W        W  258  10.541   3.555  18.608 -0.1011  0.1939  0.1091
57268W        W  259   6.483  23.754   7.666 -0.0732 -0.0458  0.0017
57269W        W  260   8.112  14.321  21.328  0.0130 -0.5886 -0.1687
57270W        W  261  25.933  25.672  23.503  0.0743  0.1882  0.1676
57271W        W  262  33.714  23.643   7.478 -0.1998  0.0892 -0.3393
57272W        W  263  18.710  31.555   0.583  0.0607 -0.1324  0.2060
57273W        W  264  26.064  12.424  25.125 -0.0067  0.1593  0.0067
57274W        W  265  28.120   3.943  17.722  0.3131 -0.0960  0.3638
57275W        W  266  17.702   0.108  20.176 -0.0985  0.0606 -0.0714
57276W        W  267   8.014   1.587  24.601  0.0269 -0.0649 -0.1229
57277W        W  268  16.576  12.688  13.904 -0.2158 -0.0787  0.1896
57278W        W  269  10.716  17.576  19.053  0.1692 -0.0815  0.1067
57279W        W  270  17.022  18.364  13.152  0.0479 -0.4780 -0.0107
57280W        W  271  29.362  10.298   3.429  0.2092 -0.0028 -0.0511
57281W        W  272  13.600  16.212   8.970  0.1635 -0.0137 -0.0912
57282W        W  273  14.383   4.938  28.108 -0.0476 -0.2149 -0.0816
57283W        W  274  17.752  11.287  17.082  0.3236  0.3322 -0.1688
57284W        W  275  23.960   7.918  24.413  0.0686  0.0037  0.1710
57285W        W  276  12.519  24.028  17.888  0.1339 -0.0446  0.2808
57286W        W  277  20.925   1.984   9.932  0.0390  0.1825 -0.1652
57287W        W  278   3.793   0.773  24.900  0.0942  0.0892  0.1821
57288W        W  279  15.060  27.100   3.790 -0.1099  0.1699 -0.1443
57289W        W  280  12.022  25.083  21.292  0.2846  0.2486 -0.1506
57290W        W  281  14.338   3.181  29.177 -0.2747  0.2390  0.0523
57291W        W  282   9.992  11.004  14.586 -0.0065 -0.1878 -0.3200
57292W        W  283   1.085   2.618  13.885  0.0502 -0.1397  0.0759
57293W        W  284  19.830  14.760  13.677  0.0796  0.0641  0.2867
57294W        W  285   5.970  19.757  21.938  0.2532 -0.2010 -0.1232
57295W        W  286   8.159  22.394  18.080 -0.2334 -0.3023 -0.3620
57296W        W  287  31.879   6.532  27.800  0.1183  0.2668 -0.1919
57297W        W  288  27.397   9.056  18.020 -0.2490  0.0156 -0.0432
57298W        W  289  27.469  10.896  23.157  0.0506  0.0392  0.2771
57299W        W  290   8.395  16.042  25.508  0.1541  0.2857 -0.1806
57300W        W  291   9.565   4.938  27.066 -0.1058  0.1964  0.1695
57301W        W  292   7.859  16.549  20.913  0.1021 -0.0588 -0.0698
57302W        W  293  28.706   6.381  15.844  0.0952 -0.1617 -0.2188
57303W        W  294  25.310  14.007  14.360 -0.0794  0.0126  0.0053
57304W        W  295  31.063  15.753  23.202  0.1056  0.0950 -0.0197
57305W        W  296  15.444   5.994   0.631  0.2159 -0.1186  0.0743
57306W        W  297   9.675   6.432  27.811 -0.2244  0.0645  0.0465
57307W        W  298   9.613  11.752  18.358  0.0807  0.0713 -0.0711
57308W        W  299  14.352   9.221  22.142 -0.1658  0.2970  0.0162
57309W        W  300  20.174   7.333  18.635  0.2065  0.3984  0.0327
57310W        W  301  17.838  19.592  13.612 -0.0567  0.1468 -0.1799
57311W        W  302  24.619   7.211  22.452 -0.1391 -0.0352 -0.1110
57312W        W  303   5.246   9.523   0.338  0.0485 -0.1073  0.0174
57313W        W  304  12.649  34.610  26.647 -0.1237 -0.0072 -0.0050
57314W        W  305   3.351   6.879  24.847  0.2372  0.1439  0.0467
57315W        W  306  11.243   0.166   2.835  0.2543 -0.0127 -0.0483
57316W        W  307  16.306  11.817  17.052  0.0088 -0.1899 -0.0646
57317W        W  308  14.472   0.236  24.921  0.1368 -0.2645 -0.1226
57318W        W  309  33.176  29.662  12.686  0.3765  0.0887  0.1585
57319W        W  310  31.294  18.700  15.659 -0.0263  0.0403 -0.0142
57320W        W  311   2.869  13.708  26.989 -0.1235  0.0725  0.1180
57321W        W  312  20.462   8.652  24.194  0.0460  0.5612  0.1116
57322W        W  313  33.331   6.495  24.020 -0.2790  0.0455  0.1259
57323W        W  314   0.850  29.229  21.765 -0.0822 -0.0048 -0.0026
57324W        W  315  22.116  19.507  15.280  0.1451  0.0758 -0.0631
57325W        W  316   7.511  19.141  18.292  0.0276 -0.0542  0.0525
57326W        W  317  17.158   4.240  27.678 -0.1045  0.3142 -0.1704
57327W        W  318   9.969  33.540  22.949  0.1227 -0.3095 -0.3532
57328W        W  319   8.334  18.019  22.490 -0.2001 -0.3228  0.2041
57329W        W  320  25.605  15.991  14.654  0.2510  0.0332 -0.2556
57330W        W  321  18.984  19.860   6.689  0.2762  0.0545 -0.0340
57331W        W  322  26.804   1.424  20.355  0.0767 -0.0439 -0.6295
57332W        W  323   3.655  14.652  25.889 -0.0608  0.0051  0.3247
57333W        W  324   3.759   1.819  20.122  0.0374  0.0386 -0.1486
57334W        W  325   5.507  34.586  19.042  0.0738  0.1077  0.1224
57335W        W  326  23.498   2.130  28.780  0.1493  0.0222 -0.0944
57336W        W  327  25.004  26.163  14.953  0.0275 -0.2463  0.1330
57337W        W  328   8.466  15.849  14.756 -0.1296 -0.0146  0.0440
57338W        W  329   9.034  25.700  18.714  0.0768 -0.1918 -0.2639
57339W        W  330  13.309   7.779  20.971  0.0517 -0.2409 -0.0411
57340W        W  331  14.048  11.516  17.130 -0.0402  0.0346 -0.2804
57341W        W  332  24.497   7.867  20.618  0.0190 -0.2669 -0.1980
57342W        W  333  15.735   0.839  22.006 -0.0731  0.0497 -0.0450
57343W        W  334  16.114  20.801  26.198  0.1121  0.1421  0.1778
57344W        W  335  13.358  17.172   4.305  0.0039 -0.1152  0.3005
57345W        W  336  31.937  12.658  15.922 -0.0203 -0.0416 -0.3575
57346W        W  337  14.976  16.084  23.294 -0.0198  0.2283 -0.2295
57347W        W  338  13.978   7.438  23.169  0.0097  0.2636 -0.1031
57348W        W  339  15.863   8.358  15.564  0.0928  0.0480 -0.0422
57349W        W  340   9.825   7.781  18.996 -0.0800 -0.0734  0.0731
57350W        W  341  15.329  10.321  19.128 -0.4216 -0.1801 -0.1308
57351W        W  342   0.518  12.976  19.149  0.0763  0.0827 -0.0786
57352W        W  343  11.555   1.215  26.198 -0.1878 -0.0659  0.2909
57353W        W  344  27.651  21.788  18.529 -0.4740  0.1775 -0.2068
57354W        W  345  11.330   6.192  17.885 -0.2151  0.3411  0.3217
57355W        W  346  32.283   1.575   8.153 -0.0739 -0.0701  0.0038
57356W        W  347  30.483  25.506  29.024  0.1705  0.1383 -0.1451
57357W        W  348  10.338  13.761   4.535  0.0358 -0.0275  0.1235
57358W        W  349  11.369   9.842  10.444  0.2040  0.0842  0.1287
57359W        W  350   5.077  10.410  21.118  0.0343  0.0083 -0.2511
57360W        W  351  32.021  11.068   7.578 -0.1676 -0.1559  0.1116
57361W        W  352   9.203  12.665   2.977 -0.1688 -0.0764 -0.1226
57362W        W  353  19.016  28.929  28.020 -0.3012  0.1605  0.2211
57363W        W  354  24.060   2.397  18.589 -0.2366 -0.1830 -0.0921
57364W        W  355   7.913  18.040  16.872  0.2246  0.0920 -0.2486
57365W        W  356   5.897  13.040  22.859 -0.2148 -0.1694 -0.0014
57366W        W  357   8.152  21.726  14.898  0.2739  0.0663 -0.1026
57367W        W  358  26.526  18.686  25.246  0.0823  0.2221 -0.5670
57368W        W  359  16.328  23.369   5.897  0.0928 -0.3501 -0.2112
57369W        W  360   9.543  24.501   4.586 -0.1182  0.1506  0.1866
57370W        W  361  11.294  23.477   4.464  0.1591  0.2574 -0.0529
57371W        W  362  29.695  12.595  22.450 -0.1978  0.1543  0.0502
57372W        W  363   8.740  21.106  23.009  0.0647 -0.0067 -0.1762
57373W        W  364  11.764   5.066   1.921 -0.1412 -0.1743 -0.0231
57374W        W  365   4.064  16.252   0.645 -0.1271 -0.0805 -0.2216
57375W        W  366   6.861  14.268   2.481  0.3081  0.0922 -0.2269
57376W        W  367  27.453  32.798  27.209  0.0150 -0.1361  0.2948
57377W        W  368  11.620   8.675  21.082 -0.3502  0.1812 -0.1667
57378W        W  369  33.121  30.703  26.892  0.1905 -0.0949  0.1854
57379W        W  370  13.511  18.101  22.547 -0.2867  0.0476  0.0724
57380W        W  371  30.910  12.862  21.465  0.0850 -0.0100 -0.0395
57381W        W  372  20.510  20.317  16.908  0.0687  0.0061  0.0303
57382W        W  373   4.721  31.335   3.662  0.3070  0.4409 -0.0772
57383W        W  374   0.539  18.566  17.710 -0.1284 -0.2607  0.1347
57384W        W  375  16.045  24.753  14.107 -0.1443 -0.2456 -0.1594
57385W        W  376  12.998  15.204  26.662  0.2630  0.0242 -0.1123
57386W        W  377  32.019  10.175  18.010 -0.2255  0.1251 -0.1233
57387W        W  378  24.015   8.949   6.356 -0.2611  0.1987 -0.2793
57388W        W  379   6.735  31.462  23.935 -0.1842  0.1005 -0.2073
57389W        W  380   1.955  10.099  24.466  0.1788 -0.1503 -0.2485
57390W        W  381  17.594  28.501  15.414  0.0993 -0.2117  0.1504
57391W        W  382  11.661  34.274  19.759  0.0304 -0.0614 -0.1110
57392W        W  383   6.985  26.778  26.535  0.1418  0.1190 -0.0018
57393W        W  384  22.420  17.829  19.712  0.1325  0.2918  0.1099
57394W        W  385  34.661   8.229  18.490  0.2048  0.0514  0.5090
57395W        W  386  15.997   8.412  18.733  0.1579 -0.1290  0.0344
57396W        W  387  15.569  10.905  19.594  0.3250 -0.1942  0.0867
57397W        W  388   7.373  13.415   2.366  0.1787  0.1229  0.2137
57398W        W  389  11.574  10.966  25.309  0.1644 -0.1839  0.2884
57399W        W  390   3.976  13.020  10.800  0.0387  0.0853  0.0376
57400W        W  391  14.507  13.562  17.028  0.0867 -0.0791  0.1693
57401W        W  392  13.244  33.063  21.496 -0.1175 -0.0612  0.0982
57402W        W  393  14.533  31.076  24.044  0.1877 -0.1383  0.0742
57403W        W  394  29.514  30.948   6.302  0.1538  0.1248 -0.2415
57404W        W  395   5.689  33.109   2.986  0.0324  0.1558  0.1038
57405W        W  396  15.568   8.770  24.396  0.1847 -0.0401  0.1775
57406W        W  397  10.543   2.631  15.836  0.2004 -0.0253  0.0797
57407W        W  398  28.597  12.383  22.734 -0.1599 -0.1727  0.0288
57408W        W  399  19.413  10.543  21.097  0.1887 -0.1762  0.2891
57409W        W  400   5.728   5.615  27.000  0.1089 -0.5516 -0.0919
57410W        W  401   2.838  20.484   6.502  0.2377 -0.0526 -0.0232
57411W        W  402  17.403  14.682   7.963  0.1452 -0.2085 -0.0938
57412W        W  403   1.933  23.958   4.719 -0.0592 -0.0864  0.0569
57413W        W  404  22.900  25.318  17.558 -0.0689 -0.2522  0.1356
57414W        W  405  12.986  20.703  25.195 -0.1165 -0.0175  0.2214
57415W        W  406   4.076  22.917   8.382  0.0723 -0.0506  0.0154
57416W        W  407  13.061  32.066   5.783  0.2836 -0.2199  0.3214
57417W        W  408   7.054  33.123  26.797  0.1357  0.0479 -0.0638
57418W        W  409   2.523  20.927  17.506 -0.0349 -0.1637  0.3360
57419W        W  410  14.174  13.247  18.519 -0.1329  0.1033  0.2814
57420W        W  411  28.282   1.901  24.604 -0.0503 -0.2890  0.1271
57421W        W  412  10.633  14.844  24.594 -0.0733 -0.0822 -0.3074
57422W        W  413  25.069  26.913  14.456 -0.1485  0.1228  0.2112
57423W        W  414  22.994   4.791  23.625  0.2787  0.2433  0.1185
57424W        W  415  12.369  22.893  28.422 -0.1220  0.1528  0.3747
57425W        W  416   2.722  34.097  25.436 -0.1657 -0.0768 -0.0917
57426W        W  417   7.389  31.090  15.175  0.5061  0.2075 -0.1937
57427W        W  418   4.500  16.843  19.850  0.0440  0.2959 -0.1457
57428W        W  419   7.298   7.574   6.619 -0.0923 -0.2081 -0.0317
57429W        W  420   0.860  30.129  27.079  0.0153  0.2717 -0.1219
57430W        W  421   3.483   2.386  28.180  0.0747 -0.0150  0.0633
57431W        W  422  15.016  16.214   8.900 -0.2773  0.0058  0.1234
57432W        W  423  16.498   5.490  24.796 -0.2194  0.2240 -0.1379
57433W        W  424  18.239  15.128  24.247 -0.4234  0.2007 -0.3665
57434W        W  425  29.587   4.681  27.669 -0.1526  0.0051 -0.0042
57435W        W  426   3.828  23.669   6.667  0.2919 -0.2532 -0.0007
57436W        W  427  15.880  28.267  14.111  0.1120  0.3016 -0.2042
57437W        W  428  20.942  15.526  16.032  0.0732  0.1316 -0.1635
57438W        W  429  21.716   1.362  26.772 -0.0425 -0.1500 -0.2951
57439W        W  430  26.082   5.731   7.255  0.2574 -0.2138  0.3912
57440W        W  431  27.175  19.820   3.709  0.1059  0.1406 -0.0650
57441W        W  432  12.341  14.551   9.673  0.0591  0.0826 -0.0462
57442W        W  433  11.803   2.662   0.062  0.0928 -0.3289  0.2066
57443W        W  434   4.205  19.968  15.129 -0.1334 -0.4337  0.0688
57444W        W  435  12.989  12.382  28.049 -0.0921 -0.2360 -0.2496
57445W        W  436   2.295  19.275  23.122 -0.0828 -0.0924  0.2955
57446W        W  437  10.721   9.123  15.820  0.0940 -0.2036 -0.0465
57447W        W  438   7.799   9.973  15.885  0.2144  0.3862 -0.1462
57448W        W  439  12.166  12.907  21.647 -0.1929 -0.2359  0.3584
57449W        W  440  16.870  27.728  14.776  0.1505 -0.2370  0.2464
57450W        W  441  19.278  11.949  26.228 -0.0624  0.2136 -0.0267
57451W        W  442  13.879   3.065  16.941  0.1987  0.0461  0.1997
57452W        W  443  13.013  20.592  17.877 -0.0986  0.2157 -0.1791
57453W        W  444  32.615  13.437   5.086 -0.3979  0.1084  0.1914
57454W        W  445  14.948  21.900   4.131 -0.2201  0.0077 -0.1339
57455W        W  446  19.006  25.754  15.624  0.1561 -0.1536 -0.0199
57456W        W  447   6.947   9.870  21.886 -0.0939  0.0111  0.1177
57457W        W  448   1.786  17.226  17.974  0.0026 -0.2460  0.0922
57458W        W  449   9.599   9.380   6.188  0.0841 -0.2496  0.0247
57459W        W  450  27.106  15.978  22.967  0.1177  0.2411  0.0660
57460W        W  451   6.812   5.272   8.221  0.3403  0.0340 -0.0514
57461W        W  452   6.286   0.512  21.484  0.1050 -0.0714  0.0744
57462W        W  453   2.213  11.286  28.249  0.2173 -0.0902  0.1796
57463W        W  454   7.165  13.245  24.456 -0.1051  0.0509 -0.0726
57464W        W  455   9.979  29.974  24.569 -0.2944 -0.0521  0.0088
57465W        W  456  21.558   5.396  20.199  0.0251  0.1629  0.1967
57466W        W  457   5.571  29.850  20.002  0.1275  0.0445  0.0476
57467W        W  458  21.078  15.783  19.453 -0.1142  0.1998  0.0298
57468W        W  459  24.883  25.714  21.447 -0.0011 -0.0835 -0.2547
57469W        W  460  30.863   0.219  21.074 -0.4880 -0.3697 -0.0223
57470W        W  461  13.167  11.915   7.389 -0.1290  0.0674 -0.1105
57471W        W  462   5.572  26.499   4.320  0.2464  0.0051 -0.0253
57472W        W  463  15.439   4.987   7.816  0.0744 -0.0176  0.0112
57473W        W  464  11.373  27.859  23.343  0.4486  0.2338  0.1245
57474W        W  465  12.387   5.767   5.743 -0.2428 -0.0412 -0.1057
57475W        W  466  26.762   2.437   8.230 -0.0810 -0.2629  0.0436
57476W        W  467  11.564  12.635  24.270  0.5618  0.0115 -0.3027
57477W        W  468  10.631  21.322  20.393 -0.0309  0.2817  0.1724
57478W        W  469   0.230   9.974  27.015 -0.0368 -0.3758 -0.3008
57479W        W  470   6.008  13.401   9.638 -0.2895 -0.0912  0.1412
57480W        W  471  12.214  25.390  16.224 -0.4213  0.2196 -0.0338
57481W        W  472   1.396  31.398  13.841 -0.2026 -0.0777  0.1801
57482W        W  473  18.523  17.121   0.592  0.1597  0.1878  0.1531
57483W        W  474  16.644   2.125  23.897  0.0111 -0.0776 -0.1684
57484W        W  475  21.583  29.967   3.979  0.0196 -0.0858 -0.1913
57485W        W  476  26.835   0.321  14.481  0.0220  0.0483  0.0566
57486W        W  477  15.016  27.190  27.075 -0.0775  0.2603 -0.3243
57487W        W  478  11.684  20.147  15.814  0.0994  0.0659  0.1789
57488W        W  479   8.156   7.478  15.494 -0.5103  0.1248 -0.1252
57489W        W  480   5.994   4.763  27.247  0.1624 -0.3598  0.1514
57490W        W  481  33.753   0.080  28.079  0.2108 -0.1620  0.0059
57491W        W  482  18.967  24.854  16.145  0.3622 -0.0886 -0.2251
57492W        W  483  13.048  17.151  14.861 -0.2467 -0.3641  0.0856
57493W        W  484   6.104  11.006   9.024  0.2512 -0.0789 -0.3260
57494W        W  485   8.166  31.923  17.413 -0.0925  0.0454 -0.3455
57495W        W  486  11.471   1.403  15.257  0.2919  0.0874  0.3157
57496W        W  487   4.950  22.544  21.521  0.2247 -0.0064 -0.2673
57497W        W  488  28.079  17.473  26.053  0.1247  0.1984 -0.0483
57498W        W  489   7.571  29.375  14.457 -0.4242 -0.1213 -0.0203
57499W        W  490   4.839   1.399   9.717  0.1941  0.1107 -0.2094
57500W        W  491  14.706  15.161  27.684 -0.3868 -0.1604 -0.1134
57501W        W  492  15.754  27.639  22.397 -0.1779 -0.2117  0.4516
57502W        W  493  31.730  18.200  26.150  0.2260 -0.2788 -0.1540
57503W        W  494   6.379  16.135  23.185 -0.1403  0.3303  0.1294
57504W        W  495  25.983   4.448  26.382 -0.0713  0.0968 -0.2364
57505W        W  496  18.829  26.823  17.243 -0.1655 -0.0917  0.0391
57506W        W  497  10.703   4.485  24.697  0.0804  0.0046  0.2502
57507W        W  498   1.153  10.832  17.950  0.1342 -0.3130 -0.1161
57508W        W  499  19.411   7.255  24.228  0.1602 -0.0129 -0.0969
57509W        W  500   9.124  21.654  27.968 -0.1230 -0.0422  0.2930
57510W        W  501  31.186  32.576   3.528 -0.3040  0.4578  0.2475
57511W        W  502   6.171  11.231  22.702 -0.1537  0.0460 -0.0196
57512W        W  503   9.016  25.677  16.884  0.4030  0.0372  0.0250
57513W        W  504   1.190  10.234  27.594 -0.1972 -0.2550 -0.0920
57514W        W  505  29.500  18.702  23.505  0.3450  0.1419 -0.0334
57515W        W  506  13.879  16.357  22.034 -0.0816 -0.2483 -0.0749
57516W        W  507  19.747   4.710  20.719 -0.4169  0.1556 -0.0229
57517W        W  508  30.546  21.116  27.878  0.3866 -0.0427  0.2097
57518W        W  509  18.939  30.930  24.340  0.3819 -0.1745  0.2809
57519W        W  510  28.167  32.243  14.536  0.1009  0.1400  0.0146
57520W        W  511   9.035  19.644   8.106  0.1442  0.0312  0.3395
57521W        W  512  10.307  25.918  21.654 -0.1460  0.1553  0.2388
57522W        W  513  11.482  22.187  19.564  0.0985 -0.3287 -0.2056
57523W        W  514  14.815   5.705  17.691  0.0322 -0.1306  0.1272
57524W        W  515  33.117  15.343   1.583 -0.0122 -0.0218 -0.0647
57525W        W  516   6.973   1.409   1.577 -0.0404 -0.1460 -0.0345
57526W        W  517  25.571  16.792  28.139  0.2071 -0.2931 -0.0776
57527W        W  518  14.277  11.100  17.460  0.0777  0.1460  0.1979
57528W        W  519  33.939  32.578   4.868 -0.3257 -0.2021 -0.1526
57529W        W  520   9.551   8.815  26.970 -0.0812  0.0399  0.1448
57530W        W  521  14.460  14.671  22.694  0.1372 -0.1711  0.1611
57531W        W  522  14.938   9.179   2.329 -0.2463 -0.0004 -0.0055
57532W        W  523   7.747   0.819  19.277 -0.0174  0.0728 -0.0292
57533W        W  524  15.598  11.392  21.442 -0.2342  0.1987  0.0116
57534W        W  525  23.381  11.065  24.790 -0.1483  0.1364 -0.2583
57535W        W  526  10.545  32.616  23.035  0.2989  0.0060 -0.2008
57536W        W  527  25.620  12.931  18.889  0.1021  0.2099  0.1273
57537W        W  528   7.675   4.129  19.459 -0.0644 -0.3521  0.3774
57538W        W  529  23.390  10.888  14.221  0.2324 -0.2541  0.1819
57539W        W  530   8.913   6.879   5.854 -0.0924 -0.0298  0.0783
57540W        W  531   4.773  29.221   9.233 -0.2009 -0.3048  0.1389
57541W        W  532  23.794  15.078   4.981  0.0777 -0.2160 -0.2720
57542W        W  533  13.485  31.763  27.069 -0.0712  0.4034  0.0230
57543W        W  534  25.722  32.870  25.501  0.3593 -0.1244  0.2061
57544W        W  535   4.802  12.472  27.439 -0.3105 -0.2620 -0.0515
57545W        W  536  30.790  14.062  20.024 -0.3501 -0.0141 -0.0373
57546W        W  537   6.166   3.763   9.514  0.4291  0.0385 -0.3130
57547W        W  538   1.691   6.016  10.136  0.0391 -0.3103 -0.0678
57548W        W  539  23.020  11.674  26.555  0.1865 -0.0537  0.0999
57549W        W  540  20.543  14.913   1.583 -0.1954  0.1684  0.0522
57550W        W  541  13.273  14.578  26.650 -0.2964  0.0207 -0.0835
57551W        W  542  21.978  14.496  20.490 -0.0006 -0.4787  0.0502
57552W        W  543   5.129  26.170  20.463 -0.3871 -0.1676  0.1109
57553W        W  544  12.369  18.581  22.273 -0.0029 -0.1227 -0.0869
57554W        W  545   1.005   3.510  16.751  0.0730  0.1567 -0.3406
57555W        W  546  14.590  10.458  27.747  0.3612 -0.0696  0.2044
57556W        W  547  24.175  10.371  20.099 -0.1658 -0.1112  0.0348
57557W        W  548  16.156   0.863  19.656  0.1282  0.0847 -0.0134
57558W        W  549   3.449   9.256  29.159  0.2799 -0.0273 -0.0353
57559W        W  550  19.210  32.268  19.961 -0.2702 -0.0586 -0.2333
57560W        W  551   2.929  13.401  24.891 -0.0522 -0.4124 -0.0618
57561W        W  552   2.661  33.055  20.539 -0.0234 -0.2607  0.0495
57562W        W  553  16.113  27.553   6.435  0.2758  0.0717  0.0478
57563W        W  554  29.843   5.970   7.992 -0.0234  0.0804  0.0217
57564W        W  555  15.263  10.634  21.894  0.0733  0.3191  0.0759
57565W        W  556   7.740  17.592  23.042 -0.3014 -0.0124 -0.0195
57566W        W  557  22.119  19.226   2.674  0.1835 -0.0503  0.1733
57567W        W  558  21.560  10.963  14.702  0.1258  0.3197 -0.0449
57568W        W  559   0.813  20.523  18.532  0.2634 -0.0625 -0.2948
57569W        W  560   8.266  15.632  22.106  0.0348  0.0282 -0.0603
57570W        W  561   6.071  24.177  22.866  0.3653 -0.2760  0.3115
57571W        W  562   8.922   3.890   5.099  0.0069  0.0622 -0.1114
57572W        W  563  16.289  10.112  17.558  0.2634  0.0834 -0.0856
57573W        W  564   2.970  11.622  16.964 -0.1991  0.0976 -0.0592
57574W        W  565   4.443  14.375  27.380  0.0063 -0.0354 -0.1405
57575W        W  566  19.892   8.787  15.093 -0.0210  0.3097 -0.1166
57576W        W  567  19.981   4.273   8.813 -0.1837 -0.2401 -0.1883
57577W        W  568  12.541  19.052   6.267  0.1245  0.2420  0.0625
57578W        W  569  34.546   7.840  26.358 -0.2489  0.2936 -0.0641
57579W        W  570  20.171   9.364  17.011 -0.0410 -0.1562 -0.0542
57580W        W  571  24.203  18.643  19.777  0.1195 -0.0946 -0.3863
57581W        W  572  16.672   1.630  21.782  0.3615 -0.1716  0.0598
57582W        W  573  13.990   4.968   6.640 -0.1077 -0.0667 -0.2905
57583W        W  574  14.508  31.188  21.429 -0.1298 -0.0811  0.0854
57584W        W  575   5.643  30.732   2.648 -0.0651  0.2365 -0.0890
57585W        W  576   7.261  34.506  17.854 -0.1715  0.1140  0.0532
57586W        W  577   8.020  13.625  25.592  0.0112  0.4192 -0.0326
57587W        W  578  12.916  32.530  17.458 -0.2843  0.0056 -0.0586
57588W        W  579  12.439   9.645   6.756  0.5056  0.3481  0.0071
57589W        W  580  21.253  30.373   8.609  0.1235 -0.1129 -0.3125
57590W        W  581  16.565   5.126  16.426 -0.3318 -0.0883  0.1701
57591W        W  582  14.213  15.112  13.753  0.1050 -0.1309 -0.1813
57592W        W  583   7.377   2.574  26.964  0.0447  0.0792 -0.3014
57593W        W  584  26.762  13.999  28.427 -0.0613  0.4062 -0.2022
57594W        W  585   5.333  13.015  20.015 -0.0651 -0.1802  0.0284
57595W        W  586   9.119  11.821   7.236  0.1326  0.0350  0.0053
57596W        W  587   3.445  15.651  16.395  0.1562 -0.1148 -0.1313
57597W        W  588   2.227  23.758  28.499 -0.0107 -0.0774  0.0402
57598W        W  589  25.471  15.006  17.285 -0.2840 -0.2513 -0.1046
57599W        W  590  10.824   4.718   3.135 -0.3299 -0.1051  0.0810
57600W        W  591  13.247  10.487  19.418  0.1056  0.1829  0.1970
57601W        W  592  10.654  33.907  26.093 -0.0996 -0.1827 -0.0090
57602W        W  593  15.974  30.869   2.338  0.2130 -0.1582 -0.2059
57603W        W  594  21.559  12.304  18.930 -0.0960  0.0781 -0.0134
57604W        W  595  12.893   5.888  18.780 -0.1829 -0.2559  0.0199
57605W        W  596  33.761  11.392   6.542  0.1321 -0.3414 -0.2024
57606W        W  597  24.399   9.534  24.980 -0.1524  0.0823  0.0938
57607W        W  598  24.258  13.913  25.285 -0.0176 -0.0239 -0.0263
57608W        W  599  15.724   7.742   4.550  0.0760 -0.0457 -0.1039
57609W        W  600  26.114  32.616  14.033 -0.2809  0.2952  0.2858
57610W        W  601   5.610  24.792  20.804 -0.0731  0.1628 -0.1381
57611W        W  602  21.677   0.073  24.338 -0.0664 -0.1480  0.1399
57612W        W  603  13.464  10.410  21.206 -0.1181 -0.2079 -0.2373
57613W        W  604   4.256   0.166  21.932 -0.0325  0.4381 -0.0335
57614W        W  605  19.033  34.020  22.756 -0.1007  0.3024 -0.2399
57615W        W  606  23.242  22.942  26.934  0.0769 -0.0716  0.2075
57616W        W  607  32.401  19.628   7.671  0.0558  0.0784 -0.1374
57617W        W  608   1.109  21.582  24.820  0.0525  0.2820 -0.1645
57618W        W  609  19.942  16.872  24.459 -0.0638 -0.1094  0.0634
57619W        W  610   4.155   8.258  26.963  0.3488 -0.2232 -0.2408
57620W        W  611  11.299  24.278  24.300  0.2697 -0.1984 -0.1533
57621W        W  612  20.769   0.112  17.660  0.0689 -0.1950  0.0621
57622W        W  613  16.124  32.310  19.745 -0.0135 -0.1249  0.1673
57623W        W  614  14.665  24.895  15.696 -0.0998  0.0777 -0.0327
57624W        W  615   5.542  34.641  19.590  0.0706  0.0709  0.1235
57625W        W  616   3.097  16.553  22.616 -0.0904  0.0402 -0.0555
57626W        W  617   7.051   7.981  26.020  0.3634 -0.1127 -0.2303
57627W        W  618  22.563  34.774  28.314  0.2046 -0.1346  0.2688
57628W        W  619   5.735  21.899  24.494  0.1367  0.0057 -0.0170
57629W        W  620  18.695  19.993  15.544  0.0463  0.0315  0.0212
57630W        W  621  30.532  14.824  11.236  0.0637  0.0738  0.1547
57631W        W  622   2.785   8.488  26.398  0.0018 -0.2483 -0.1258
57632W        W  623  19.609   9.256  15.152  0.0365 -0.2505  0.0760
57633W        W  624   8.958  16.317  15.966  0.1917  0.0831 -0.0829
57634W        W  625  14.319   6.678  28.734 -0.2660 -0.3753 -0.1713
57635W        W  626  30.403   3.335  26.391 -0.0079  0.0871 -0.0327
57636W        W  627  13.739  10.908   4.908 -0.2183 -0.2509  0.1891
57637W        W  628  33.094  18.632   0.910  0.0107  0.2189 -0.2231
57638W        W  629  10.509   8.513   6.730  0.0717 -0.1029  0.0146
57639W        W  630  15.003   6.336  18.279 -0.4705  0.1857 -0.1711
57640W        W  631   7.448  16.567  22.789 -0.0895 -0.1945 -0.3043
57641W        W  632  26.507  12.405  17.023 -0.1485 -0.1093  0.0819
57642W        W  633  20.357   5.376  24.881 -0.1201 -0.0339 -0.0254
57643W        W  634  12.731  25.621  18.565 -0.0057  0.0036 -0.1782
57644W        W  635  20.932  34.061  15.389  0.1590  0.1727 -0.0852
57645W        W  636   5.313  17.912  19.498 -0.0014 -0.2444  0.3395
57646W        W  637   8.556   0.023  26.977  0.0422 -0.0426 -0.0582
57647W        W  638  15.634  14.772  22.768  0.4713  0.2873  0.2114
57648W        W  639  31.870   2.273  14.159 -0.0294 -0.0673  0.3487
57649W        W  640   1.298  11.756  24.449 -0.0258 -0.0214  0.1270
57650W        W  641   2.752  34.036   7.141  0.0917 -0.0968 -0.1676
57651W        W  642  11.522   4.076  24.096 -0.0260 -0.1068 -0.4570
57652W        W  643   2.712  11.354   2.545 -0.1128 -0.1408  0.0298
57653W        W  644  13.716  17.296   7.336  0.2649  0.3402 -0.2730
57654W        W  645  34.567  26.111  24.481  0.3486 -0.2974  0.2946
57655W        W  646  11.314   9.144  20.427 -0.0596 -0.0359 -0.5405
57656W        W  647  19.338   7.300  16.384 -0.2725  0.3579 -0.0337
57657W        W  648  24.079  27.512   5.312 -0.1158 -0.0158 -0.0414
57658W        W  649  14.702  20.531  24.031  0.0442 -0.0574 -0.0944
57659W        W  650   3.904  12.976  24.293 -0.0059  0.2762 -0.4687
57660W        W  651  20.534   1.194  28.058 -0.3751  0.2956 -0.0598
57661W        W  652  10.420  24.996  20.719  0.2635 -0.0840 -0.4489
57662W        W  653  11.604  18.003  27.478  0.0769  0.3959 -0.2027
57663W        W  654  13.517  21.109  26.649  0.0805  0.1285  0.0236
57664W        W  655  17.270   4.382  18.445 -0.0938  0.2755  0.3222
57665W        W  656   0.251  21.998   3.245 -0.0165 -0.1455  0.0606
57666W        W  657  10.194   3.307  28.403 -0.1958 -0.3506 -0.1409
57667W        W  658   4.574   1.030   4.379 -0.1370  0.3894  0.1650
57668W        W  659   9.492  28.438   3.654  0.2341 -0.0340  0.2437
57669W        W  660  33.566  11.492  20.625  0.0938 -0.0510 -0.2896
57670W        W  661  29.287   6.606  13.451 -0.0589  0.0074  0.3356
57671W        W  662  12.501  14.121  28.189 -0.1471 -0.1039  0.2951
57672W        W  663   9.299   4.244   1.742  0.2159  0.4747  0.0345
57673W        W  664  24.402   7.647  14.906  0.0331 -0.0025 -0.0733
57674W        W  665   9.511  33.161  25.217  0.0065  0.1923 -0.2508
57675W        W  666   2.407   9.249  21.706 -0.2879 -0.2622 -0.0889
57676W        W  667   1.042  11.645   1.722 -0.1481  0.1327 -0.0844
57677W        W  668  23.562   3.437  24.582 -0.0068  0.0270  0.3582
57678W        W  669  15.013  21.824   5.627 -0.1970  0.1849  0.0697
57679W        W  670  10.212  27.615  24.555 -0.1412 -0.1050 -0.0579
57680W        W  671  27.843  20.907  20.525  0.0116  0.1712 -0.0255
57681W        W  672  27.757  26.648  22.177  0.0430  0.0811  0.0452
57682W        W  673   3.944  11.979  16.900  0.0051 -0.0854 -0.0742
57683W        W  674  11.114   6.820  24.230  0.1358 -0.2381  0.1746
57684W        W  675  13.726   4.582  21.281  0.4087 -0.0250 -0.0948
57685W        W  676  19.047  24.149  15.629  0.2346 -0.0725 -0.2901
57686W        W  677  16.226   5.546   6.949 -0.0602  0.2112  0.0256
57687W        W  678  14.748  23.137  26.788  0.2439  0.1722  0.1585
57688W        W  679   7.371  16.024  26.628  0.0902  0.0217  0.0500
57689W        W  680  20.141   6.767  21.267 -0.1559  0.0087  0.1794
57690W        W  681  29.465  10.865   8.670  0.3331  0.0850 -0.2170
57691W        W  682  15.092  21.528  18.070 -0.1489 -0.4338 -0.1336
57692W        W  683  14.249  25.512  14.160  0.1282 -0.1638  0.3617
57693W        W  684  22.295  25.283   4.379  0.1587  0.2228 -0.3464
57694W        W  685   8.481   8.444   6.305  0.1715  0.2769 -0.1424
57695W        W  686  23.639  22.411  17.471  0.1346  0.0335  0.1083
57696W        W  687  23.396   2.677   8.444  0.0525  0.2497 -0.0368
57697W        W  688  12.620   9.134  22.651 -0.0030 -0.0444 -0.0320
57698W        W  689   8.002  10.970   9.514 -0.0272  0.3122  0.2718
57699W        W  690   7.714  13.331  21.485 -0.2843 -0.1277 -0.0110
57700W        W  691  15.132  18.899   5.900  0.0786 -0.1540 -0.1896
57701W        W  692  12.747  28.173  17.970  0.1275  0.2077 -0.0904
57702W        W  693  15.952   0.368   6.669 -0.0150 -0.1502  0.1310
57703W        W  694   9.207   1.921   8.642 -0.0123  0.2569  0.1232
57704W        W  695  18.514   8.456  25.913  0.3012 -0.0862 -0.0574
57705W        W  696  17.989  28.410  18.580  0.0471 -0.1280 -0.1294
57706W        W  697  11.613  19.623   1.121  0.2384  0.0740  0.0990
57707W        W  698   8.095  17.182  23.062  0.1121  0.1147 -0.0733
57708W        W  699  13.755   3.636  26.854  0.1101 -0.1232 -0.1240
57709W        W  700  19.393   6.227  17.489  0.1648 -0.0851 -0.2190
57710W        W  701  18.190  34.604  27.614 -0.2268 -0.0948  0.2668
57711W        W  702  34.425  25.658  27.764  0.1494  0.0590  0.0285
57712W        W  703   9.387  19.003  21.008 -0.2466  0.0735  0.1165
57713W        W  704  15.840   6.940  24.418 -0.2467  0.1262  0.1762
57714W        W  705   7.105  12.644  18.833  0.0071  0.0002 -0.0049
57715W        W  706   9.678  14.630  16.005  0.1325 -0.1973 -0.0499
57716W        W  707  13.253   5.288  26.785 -0.1076 -0.1524  0.2402
57717W        W  708  28.043  12.550  16.266  0.1807 -0.1787 -0.1356
57718W        W  709  16.803  14.615  14.837  0.1185  0.1104 -0.1059
57719W        W  710   8.681  30.650   1.106 -0.2519  0.2994 -0.0159
57720W        W  711   6.890   3.353   2.747 -0.1137 -0.0757  0.0363
57721W        W  712  25.098  10.324  24.914  0.1393 -0.1276 -0.2298
57722W        W  713  13.955  10.592   6.172  0.0204 -0.1208 -0.1279
57723W        W  714   6.088  28.117  27.466  0.2480  0.1492  0.1362
57724W        W  715  11.474   2.531  28.562 -0.0894 -0.1813 -0.0157
57725W        W  716  14.686  19.422  22.451 -0.1686  0.0854  0.0910
57726W        W  717  23.555   6.094  17.760  0.0415  0.1557 -0.2939
57727W        W  718  26.819  11.942  18.278  0.2521  0.1482  0.0512
57728W        W  719   1.083   7.247  23.869 -0.0053 -0.1405 -0.0996
57729W        W  720  21.092  28.529  26.784  0.1048 -0.0214  0.3624
57730W        W  721  22.194  24.766  28.430  0.0030  0.1914 -0.1818
57731W        W  722   9.627   5.646  24.772  0.1571  0.0485 -0.2833
57732W        W  723  30.778  24.940  16.371  0.2020 -0.0170  0.2416
57733W        W  724  11.724  14.349   1.704  0.0459  0.0790 -0.0338
57734W        W  725  17.608   5.878   0.321 -0.0721  0.0740 -0.0149
57735W        W  726  33.740   4.912  20.466  0.2430  0.1377 -0.1707
57736W        W  727   5.414  27.303  16.859  0.0072 -0.1442 -0.2013
57737W        W  728  16.133  29.431  25.791 -0.3177  0.0068  0.2705
57738W        W  729   8.021  20.689  16.124  0.3218 -0.1325 -0.1017
57739W        W  730  32.218  18.006  22.726  0.1127 -0.2852 -0.0823
57740W        W  731  12.207  24.559   1.465  0.1326 -0.3746  0.1979
57741W        W  732  12.932  20.392  15.717  0.1855 -0.2686  0.1606
57742W        W  733  17.139   5.036  15.567 -0.2388  0.2182 -0.1150
57743W        W  734  20.658  28.584  23.604 -0.1276 -0.0294  0.2136
57744W        W  735  33.119  19.966   1.350  0.1878  0.1303  0.1045
57745W        W  736  12.317  11.727  22.445  0.0511  0.0939  0.3398
57746W        W  737  14.719  20.882  14.201 -0.1065  0.2226 -0.0373
57747W        W  738  20.882  11.033  13.359  0.2306  0.1398  0.4033
57748W        W  739   4.629   8.290   1.242  0.2218 -0.1826  0.1674
57749W        W  740  12.751  20.183  28.305 -0.0395  0.0718  0.1817
57750W        W  741   8.376   6.944  23.401 -0.0219 -0.3435  0.1029
57751W        W  742  21.500   4.414  21.474  0.0453  0.1799  0.0640
57752W        W  743   8.888  22.711   0.084 -0.3957  0.2177  0.0958
57753W        W  744   8.754   3.856   7.399 -0.3097 -0.1802  0.0442
57754W        W  745  12.234  24.777   1.028  0.0935 -0.0012 -0.1735
57755W        W  746  17.545   3.766  20.393  0.0939 -0.3217  0.0760
57756W        W  747   9.822  23.378  16.481 -0.3248 -0.2157 -0.0611
57757W        W  748  10.487  32.555   0.134  0.0323 -0.1194 -0.1033
57758W        W  749  17.939  13.257  14.489 -0.4328  0.0497  0.3814
57759W        W  750  11.794   3.283   3.818 -0.2985  0.1343  0.0134
57760W        W  751  19.561  31.339  28.772 -0.1307  0.4343 -0.0182
57761W        W  752  14.698  29.172   1.736  0.2814 -0.0785  0.0274
57762W        W  753  21.343   9.234   2.672 -0.0338  0.0451  0.3574
57763W        W  754  16.519  20.093  19.141 -0.1804  0.1584  0.2660
57764W        W  755  32.108   9.295  14.697 -0.1748 -0.0237 -0.0296
57765W        W  756  14.842  16.135  21.978  0.0889 -0.2609 -0.0279
57766W        W  757  13.428   6.838   7.191 -0.1584  0.0790 -0.0843
57767W        W  758   4.305  18.991  17.467  0.0256  0.0460  0.0584
57768W        W  759  23.693   7.432   6.905 -0.0769 -0.0510  0.3073
57769W        W  760  17.399  10.794  15.402  0.0120  0.0167  0.0576
57770W        W  761   5.291   9.813  17.701 -0.1144  0.1948  0.0933
57771W        W  762  11.634  27.053  26.812  0.0525  0.2641 -0.1546
57772W        W  763  28.802   6.649   6.134  0.3039 -0.0021  0.3394
57773W        W  764  24.554  10.415  20.580  0.1393  0.2897  0.0137
57774W        W  765   7.485  13.085  21.975  0.1780  0.3695  0.0364
57775W        W  766  15.949   1.947  25.464 -0.1267 -0.0836 -0.0771
57776W        W  767  11.314  14.471   3.954 -0.0638  0.4894 -0.1080
57777W        W  768   2.410   7.736   8.923  0.1417 -0.1679  0.0312
57778W        W  769   8.032  14.806  26.970 -0.3476 -0.1442 -0.1663
57779W        W  770   4.544  19.376   1.293  0.0184  0.1682 -0.0490
57780W        W  771  17.600   1.394  15.328 -0.0141  0.2126 -0.2085
57781W        W  772   9.136   9.064   7.130 -0.1549  0.1913  0.0801
57782W        W  773   2.868   0.689  10.130 -0.2309 -0.0476  0.0882
57783W        W  774  19.384   8.602  26.383 -0.0005 -0.2091  0.1830
57784W        W  775  12.425  25.864  27.528  0.1991 -0.1311 -0.1278
57785W        W  776  17.840  29.373   2.891 -0.0588 -0.0385 -0.1434
57786W        W  777  13.539   2.197  18.527  0.1783  0.2666 -0.0961
57787W        W  778  24.716  14.153  25.142 -0.2585 -0.1750  0.0491
57788W        W  779  13.730  14.829   5.607 -0.0287 -0.0031 -0.0946
57789W        W  780   0.740  13.949   1.190 -0.2185  0.1937  0.2653
57790W        W  781  23.610  17.185  15.686 -0.0169  0.1645  0.5435
57791W        W  782   9.022  22.496   8.621  0.3151 -0.1406 -0.0554
57792W        W  783  11.578   1.879  21.047  0.2612 -0.0572 -0.0297
57793W        W  784  31.211   5.841  16.873  0.0113  0.0334  0.2752
57794W        W  785  21.100  10.786  15.514 -0.0733 -0.0639 -0.2501
57795W        W  786  33.113   8.791  19.361  0.0577 -0.1139  0.0017
57796W        W  787  17.082  12.881   2.547  0.1949  0.1100  0.0274
57797W        W  788  23.261  33.346   9.330  0.1573  0.2082  0.2193
57798W        W  789   9.756   1.815   5.999  0.0756  0.1316 -0.0381
57799W        W  790  25.249   5.388   5.129 -0.0686 -0.0091  0.0607
57800W        W  791  16.720   7.396  27.832  0.0285  0.1495 -0.0922
57801W        W  792  26.129  24.176  26.010 -0.2485  0.1630  0.1953
57802W        W  793  22.035  25.250  24.157 -0.0285 -0.1747 -0.0230
57803W        W  794  19.754  17.162  26.985 -0.2116  0.3036 -0.0213
57804W        W  795  25.462  24.405   2.131  0.0010  0.1901  0.2137
57805W        W  796  14.969   7.029  14.837 -0.1195 -0.0261 -0.0064
57806W        W  797   2.368  21.832  17.375 -0.0694  0.0880  0.2867
57807W        W  798  15.427  33.898  16.569 -0.3424 -0.2447 -0.1642
57808W        W  799   6.274   3.851  20.783 -0.1806 -0.1161  0.2037
57809W        W  800  20.789   6.290  23.912  0.0733  0.2540  0.1791
57810W        W  801   7.246  34.795  14.708 -0.1633  0.3702  0.4032
57811W        W  802   2.183   8.164  20.239  0.2479  0.1724 -0.1565
57812W        W  803  16.327  26.633   4.135 -0.1635  0.3108  0.3148
57813W        W  804  25.124  20.135  28.327  0.2340  0.3757  0.4920
57814W        W  805  13.050  20.971   3.619  0.3431 -0.1013  0.1505
57815W        W  806  25.069   9.792   2.041 -0.0752 -0.1890 -0.3201
57816W        W  807  15.166  12.215  28.613  0.2099  0.0366 -0.0476
57817W        W  808  10.958   8.233   2.599  0.2285 -0.0184 -0.0336
57818W        W  809  32.311  11.151  15.663 -0.0211  0.1342 -0.0958
57819W        W  810  20.679   4.746  14.960 -0.0565 -0.1105 -0.2218
57820W        W  811   0.525   0.207  23.324 -0.1348 -0.1177  0.1630
57821W        W  812  11.865  15.262   9.920 -0.0391  0.1182 -0.1681
57822W        W  813  24.982  14.776  15.410  0.0687  0.1217  0.1279
57823W        W  814  27.166  10.442   4.245  0.0772  0.0172  0.0844
57824W        W  815  26.729  14.290  18.120 -0.3941 -0.2559  0.1184
57825W        W  816   5.053  34.574  24.508 -0.0016  0.1038  0.0410
57826W        W  817   6.039  15.066  29.260 -0.0518  0.0803 -0.0254
57827W        W  818  34.624  18.582  19.459  0.0934  0.1197 -0.0796
57828W        W  819  16.122   0.733   4.376  0.2613 -0.0293  0.0230
57829W        W  820   3.740  11.298  27.528  0.0346 -0.0280  0.0299
57830W        W  821   9.068  29.960  24.832  0.2345 -0.0381 -0.0429
57831W        W  822  13.110   2.436   5.927  0.1906 -0.0187  0.1472
57832W        W  823   4.682  13.676   4.033 -0.4362 -0.1109 -0.1005
57833W        W  824   4.277  23.716   1.292  0.1321 -0.3258 -0.0906
57834W        W  825  29.581   8.480   3.068 -0.0036  0.1641 -0.2810
57835W        W  826  22.739  21.159  26.116 -0.0033  0.1638 -0.0570
57836W        W  827  13.772  20.916   6.615  0.0812 -0.1191  0.0940
57837W        W  828   6.942   8.358   9.331 -0.1916  0.0861 -0.0520
57838W        W  829  11.824  14.054  23.633  0.1647  0.2023 -0.2917
57839W        W  830  21.111  28.577  16.057 -0.0396  0.1066  0.2728
57840W        W  831  14.692  24.133  24.904  0.4255  0.0540 -0.3091
57841W        W  832  13.898   7.480  20.248  0.2088  0.0156  0.1085
57842W        W  833  14.916  10.936   4.756 -0.0952  0.2398 -0.1808
57843W        W  834   6.728  29.825   0.049  0.1297  0.0177  0.1070
57844W        W  835  26.050  10.404   0.187 -0.0757  0.0151 -0.0235
57845W        W  836   2.628  17.407  27.179  0.2144  0.0562 -0.2023
57846W        W  837   2.495  24.211   4.270 -0.0424 -0.0875  0.0567
57847W        W  838   8.698   1.693  16.556  0.0638  0.2045 -0.4934
57848W        W  839   5.568  15.876  18.537 -0.0238 -0.0812 -0.2626
57849W        W  840  13.273  15.805  14.648  0.4065 -0.1601 -0.1339
57850W        W  841  14.176  27.463  16.408  0.0386 -0.2566  0.0936
57851W        W  842   9.930   7.635   1.905 -0.2436  0.0569 -0.2045
57852W        W  843   8.527   3.903  15.168 -0.0773 -0.0201  0.0242
57853W        W  844  13.279   9.338  29.224  0.2357  0.1333 -0.2345
57854W        W  845   9.130  12.434  10.842  0.0563 -0.1338  0.0119
57855W        W  846  13.198   4.280  26.358  0.0088  0.1631  0.1490
57856W        W  847  12.069  16.908   9.669  0.0566 -0.0118 -0.1332
57857W        W  848  13.468  11.017  14.587 -0.2126  0.0424  0.2065
57858W        W  849  31.041   2.900   5.395  0.2380 -0.0310  0.0568
57859W        W  850  26.209   0.723  17.840 -0.2885 -0.4494 -0.2804
57860W        W  851  14.050  14.991  28.175 -0.0704 -0.2941  0.0652
57861W        W  852  17.670  25.929   5.850  0.0257 -0.2868 -0.2172
57862W        W  853  34.592  27.983  16.544 -0.2854 -0.1298 -0.4355
57863W        W  854   9.812  18.884   6.821  0.2580  0.2194  0.2071
57864W        W  855  21.543  10.293  19.818  0.1969  0.0857 -0.0181
57865W        W  856  22.246   5.281  27.293 -0.0473 -0.0351  0.1634
57866W        W  857   8.486   5.448  10.464  0.2105  0.2026  0.1474
57867W        W  858   9.500  11.754   0.769  0.0699  0.2263 -0.0944
57868W        W  859  14.588  11.711  14.046 -0.3490  0.2520  0.3125
57869W        W  860  28.328  13.451   2.831 -0.0088  0.3931  0.2880
57870W        W  861  30.383   7.097  19.094  0.1992 -0.4697  0.0593
57871W        W  862  12.084  13.962  27.365  0.2123  0.1834 -0.4032
57872W        W  863  12.690  28.257   2.532 -0.0556 -0.5756  0.0215
57873W        W  864   7.231  17.792   1.518 -0.1341 -0.0904 -0.1392
57874W        W  865  19.114  25.738   6.636 -0.2240 -0.0950  0.0664
57875W        W  866   8.776  18.277   0.455 -0.0795  0.0204 -0.1186
57876W        W  867  31.454  14.395  25.932  0.0338 -0.1359 -0.1056
57877W        W  868  25.788   1.024  12.910  0.1614  0.1887  0.0669
57878W        W  869  16.493  26.840  19.389  0.1387  0.2661 -0.0367
57879W        W  870   7.717  16.680   4.227  0.1502  0.2116 -0.0009
57880W        W  871  20.685  28.581  19.955  0.2888 -0.1307  0.0134
57881W        W  872   7.862  12.042   6.974  0.0521 -0.0644 -0.0500
57882W        W  873   8.002  18.091   9.777 -0.2201  0.2176 -0.0336
57883W        W  874  27.357  11.436  27.308 -0.0155  0.3646  0.1029
57884W        W  875  23.199   9.216  27.624 -0.0125 -0.0459  0.0963
57885W        W  876  10.110  17.551  15.031  0.0486 -0.2308  0.1144
57886W        W  877   9.677   7.028  27.507  0.0833 -0.0541  0.0045
57887W        W  878   7.617  13.058  17.159 -0.0148 -0.0146  0.3117
57888W        W  879  23.241  14.046   8.172 -0.1012  0.1774  0.1250
57889W        W  880  34.445  14.204  24.554 -0.1713  0.0005  0.6380
57890W        W  881  11.681   9.860   7.594 -0.2560 -0.1089 -0.0779
57891W        W  882   0.566  33.577   9.166  0.0343  0.0747 -0.0390
57892W        W  883  15.815   3.755  22.443 -0.1621 -0.0532 -0.1907
57893W        W  884  22.374   7.249  21.324  0.0249 -0.1631 -0.2852
57894W        W  885  15.432   0.398  23.757 -0.0068  0.0288  0.0491
57895W        W  886  22.753  33.864  21.882  0.3739 -0.4204  0.1042
57896W        W  887  21.640   1.370  22.933 -0.3969  0.2571 -0.3376
57897W        W  888  18.639  28.972  17.576  0.0121  0.0314  0.0472
57898W        W  889   8.153   4.680   6.804  0.3797 -0.3591  0.0893
57899W        W  890   4.139   1.763   0.486 -0.1362  0.0470 -0.2687
57900W        W  891  19.232  12.206   8.813 -0.0535  0.1582  0.2450
57901W        W  892   7.214  21.365   3.323 -0.3549 -0.0753  0.3314
57902W        W  893  19.644  27.762  28.698  0.0612  0.1651 -0.0152
57903W        W  894  16.660   9.412   2.805 -0.0341 -0.1480 -0.1330
57904W        W  895   9.628  14.002  14.757 -0.0323 -0.1985  0.0297
57905W        W  896  11.895   9.972   9.203  0.0986 -0.4104  0.1714
57906W        W  897  29.328   7.513  13.994 -0.0781 -0.2138  0.1465
57907W        W  898  15.694  11.664   2.612  0.1691  0.0664  0.2465
57908W        W  899   2.625  27.320  20.780 -0.1448 -0.2099  0.1827
57909W        W  900  16.208   7.813  16.803  0.3796 -0.2040 -0.0549
57910W        W  901  18.096  13.998   4.209  0.1955 -0.0356  0.0272
57911W        W  902  13.701   6.054   6.716  0.0689 -0.3310 -0.1065
57912W        W  903  26.254   0.687  16.859  0.0331  0.0796 -0.1624
57913W        W  904   7.645   9.062   0.744 -0.5776 -0.1254 -0.1291
57914W        W  905   7.357  17.528  21.379 -0.1336 -0.3041  0.1156
57915W        W  906  10.534  17.070  16.879 -0.3168  0.0410 -0.0498
57916W        W  907  18.145  10.566  24.564  0.0833 -0.4048 -0.3109
57917W        W  908  12.899  14.122  20.283  0.3216  0.0647  0.0920
57918W        W  909  18.181  31.401  23.058  0.0401 -0.2161  0.1244
57919W        W  910  12.341  17.261  28.562  0.3181  0.1740 -0.0741
57920W        W  911  15.842   2.401   3.713  0.5218 -0.2675 -0.2414
57921W        W  912  15.467  27.908  18.688  0.3213 -0.1913 -0.2877
57922W        W  913   7.546   4.210  23.158  0.3106 -0.0737  0.1084
57923W        W  914  20.536  31.229   7.866  0.1761  0.1546 -0.1453
57924W        W  915   4.010   2.202  16.784 -0.0426  0.0102  0.0386
57925W        W  916   1.774  16.805   9.872 -0.0897  0.0234 -0.1346
57926W        W  917   4.132  16.838  28.512  0.0467 -0.1497 -0.1528
57927W        W  918  10.919   6.190   5.451  0.0322 -0.3119  0.2038
57928W        W  919  16.418  30.221   4.567  0.0465  0.1185 -0.1328
57929W        W  920  12.875  18.281   7.624  0.3598 -0.2358 -0.3949
57930W        W  921   9.355  15.354  18.864  0.1150 -0.1886  0.0183
57931W        W  922   6.093  10.806   1.155 -0.1343  0.0603 -0.1450
57932W        W  923  31.098  18.850   4.108 -0.2852 -0.1518 -0.0845
57933W        W  924  29.956  17.675  24.292 -0.1183  0.1303  0.0357
57934W        W  925  21.608  23.376  28.505 -0.1934 -0.0139 -0.1350
57935W        W  926  13.138  27.764  26.434 -0.1351 -0.4797  0.0705
57936W        W  927  19.173  24.236  21.678 -0.2330 -0.1062 -0.0003
57937W        W  928   5.510  20.904  21.926 -0.2406 -0.1030 -0.0524
57938W        W  929  30.983  26.412  25.061  0.0744 -0.3643  0.0699
57939W        W  930  16.445  23.624   2.463 -0.2743  0.1911  0.0318
57940W        W  931  18.963  13.398  26.569  0.3953 -0.0106 -0.1792
57941W        W  932   0.397  10.529   8.918  0.0760  0.1924  0.4573
57942W        W  933  16.005   9.865   8.396 -0.0939 -0.4554 -0.1652
57943W        W  934  17.439  16.311  26.430  0.0467  0.1122  0.0592
57944W        W  935  18.566   9.879   3.499  0.0073 -0.2156 -0.1179
57945W        W  936  25.736  31.093  23.478 -0.0109 -0.2072 -0.1208
57946W        W  937   2.439   9.965  16.636 -0.0852  0.0657  0.2949
57947W        W  938  17.804  11.165  14.786 -0.1710 -0.0506 -0.0784
57948W        W  939  17.337  33.427   1.332 -0.2646 -0.0822 -0.0333
57949W        W  940  10.357  11.695  17.773 -0.1786  0.2490  0.1607
57950W        W  941  16.898   2.746   9.158 -0.2254 -0.1690  0.1431
57951W        W  942  17.300   9.191   7.930  0.2588  0.1573  0.1250
57952W        W  943  20.519   8.343   6.942  0.0144 -0.0243 -0.1337
57953W        W  944  16.363   1.841   0.091 -0.5477  0.1563 -0.1603
57954W        W  945  12.304   5.375   3.199  0.2279 -0.4194 -0.1337
57955W        W  946  21.515  33.295  17.551 -0.0878 -0.0685 -0.1709
57956W        W  947   9.638   5.158   0.336  0.2630 -0.3779 -0.0743
57957W        W  948  31.397   5.339  10.305 -0.1763  0.1408  0.2661
57958W        W  949  12.657  20.021   3.350  0.1200 -0.0192  0.0243
57959W        W  950   6.767   1.634   5.557  0.1554 -0.0960 -0.1968
57960W        W  951  20.987  26.886  25.431 -0.2162  0.2265  0.1023
57961W        W  952   2.832   7.181  11.482  0.2033  0.1568  0.1305
57962W        W  953   4.282  10.970  27.055  0.0801 -0.2344 -0.4340
57963W        W  954  11.396  12.017   3.112  0.3469 -0.0775  0.0758
57964W        W  955  11.526  10.573  16.603 -0.2001 -0.3259  0.0212
57965W        W  956  17.149  13.486  18.848 -0.0638 -0.3342 -0.0173
57966W        W  957  10.217  32.406  17.314 -0.2416 -0.0572 -0.0875
57967W        W  958  27.222   9.277  26.595  0.1230  0.0978  0.1807
57968W        W  959   9.377   4.725   7.405 -0.0110 -0.0049 -0.0498
57969W        W  960   2.001   8.662  21.494  0.4003  0.2097  0.0682
57970W        W  961   7.281   4.918  21.823  0.0935  0.0336  0.1524
57971W        W  962  15.775  26.809   5.197 -0.3342 -0.0116 -0.5751
57972W        W  963  13.031   7.282  23.372 -0.0025 -0.2011  0.5206
57973W        W  964  17.439  24.583  27.257 -0.1035  0.2256 -0.1009
57974W        W  965  12.292  18.672  26.394 -0.0730  0.0937 -0.2302
57975W        W  966   8.518  12.540   0.176 -0.2225  0.0272 -0.3309
57976W        W  967   5.928   6.068   1.017 -0.0837 -0.1637 -0.2704
57977W        W  968  22.012  13.105   1.600 -0.1860 -0.0173  0.1934
57978W        W  969  32.351   6.966  17.049 -0.2187 -0.0001 -0.0368
57979W        W  970  16.693  12.510   2.389 -0.0467 -0.0121 -0.0089
57980W        W  971   0.846  34.530  26.205  0.2141  0.0837  0.1221
57981W        W  972   1.368  31.778   2.509  0.4219  0.2922  0.1926
57982W        W  973   6.972   3.662  22.108  0.0056 -0.0939 -0.1125
57983W        W  974   7.651  13.004  27.672  0.2168  0.1291  0.1148
57984W        W  975  34.286  15.528   1.672  0.0806  0.0705 -0.0774
57985W        W  976  27.583   9.945   0.758  0.0695  0.0042 -0.2240
57986W        W  977   3.885   6.295   5.277  0.0536 -0.2713  0.0299
57987W        W  978   0.863  10.429  25.449 -0.1841  0.3799  0.0016
57988W        W  979  21.546   5.813  29.221 -0.1423 -0.0457 -0.3065
57989W        W  980  16.208  17.376   6.312 -0.2158  0.0668 -0.0057
57990W        W  981   6.752  25.691  17.602 -0.2272 -0.4646  0.3380
57991W        W  982  16.456  17.557  22.786 -0.0042  0.0042 -0.0151
57992W        W  983  33.895  12.379  23.218 -0.1607  0.1418 -0.1223
57993W        W  984  21.579   3.029  15.750 -0.2619 -0.4943  0.2489
57994W        W  985   1.874  13.156   3.519  0.0898  0.5353 -0.0438
57995W        W  986  11.010  23.663  21.860 -0.0995  0.0187  0.0232
57996W        W  987  23.823  14.151  25.751 -0.1643  0.3061 -0.0258
57997W        W  988   9.413  29.347  16.303  0.3431 -0.1098 -0.0423
57998W        W  989  10.485  13.904  20.398 -0.1203  0.0983 -0.1577
57999W        W  990   6.175  11.151   6.495 -0.1143 -0.3076  0.0572
58000W        W  991  13.244  17.912   6.227  0.1418  0.0530  0.3235
58001W        W  992   9.468   9.493  21.415  0.3494 -0.0177 -0.0441
58002W        W  993  21.099   4.227  24.269  0.4038  0.0758  0.0504
58003W        W  994  33.084  27.036   1.654 -0.1119  0.1098  0.3437
58004W        W  995  16.958  12.084  24.291  0.1970  0.1569  0.0002
58005W        W  996  15.502   2.666  28.677 -0.0395 -0.2152  0.0255
58006W        W  997  13.111  12.884   6.202 -0.0658  0.0869 -0.0933
58007W        W  998  12.327   6.348   6.761 -0.1119  0.0332  0.2550
58008W        W  999  34.129  10.588  18.458 -0.2165 -0.0792 -0.0600
58009W        W 1000   9.644  18.321   0.451 -0.0033 -0.1691 -0.0868
58010W        W 1001   0.206  27.031   4.929  0.3049  0.1757 -0.1144
58011W        W 1002  15.617  11.909   6.696 -0.0740 -0.1519 -0.3158
58012W        W 1003  12.093   5.366  22.286 -0.1981 -0.0899 -0.0405
58013W        W 1004  16.456   3.258  20.646 -0.0509  0.2565  0.1914
58014W        W 1005  21.992  25.680   1.218 -0.3196 -0.0678  0.1277
58015W        W 1006  22.196  28.979  23.106 -0.1902 -0.2384  0.1419
58016W        W 1007  10.607   8.082  28.073 -0.1274  0.0045 -0.1184
58017W        W 1008  24.998   8.789  28.409 -0.0460  0.2546  0.2504
58018W        W 1009  11.548   2.525   9.935  0.1646 -0.2354 -0.0730
58019W        W 1010  22.603  20.905  22.330  0.0629  0.0511  0.2311
58020W        W 1011  20.038  16.341   7.017 -0.0970  0.0213 -0.0051
58021W        W 1012   7.715  25.405  14.434  0.0394 -0.0409 -0.4300
58022W        W 1013  17.605   8.709  17.077  0.2724 -0.1534 -0.1040
58023W        W 1014  18.447  23.058   1.774 -0.1698 -0.1774 -0.1116
58024W        W 1015  19.364  33.278  23.163 -0.1319 -0.1821 -0.2814
58025W        W 1016  21.084  33.715  23.830  0.0739 -0.4996  0.1428
58026W        W 1017  21.892  18.376  18.511 -0.3795  0.0332  0.0838
58027W        W 1018  12.004  13.913  16.661 -0.1080  0.0971  0.0869
58028W        W 1019  10.780  27.017  26.528  0.0154  0.0213 -0.0015
58029W        W 1020   5.563  19.705  16.851 -0.0120 -0.0373  0.2767
58030W        W 1021   8.796  14.177  17.660 -0.1336 -0.1083  0.0004
58031W        W 1022   9.463   0.816   0.468 -0.2858  0.0394  0.0125
58032W        W 1023   7.182   2.715   0.775 -0.0844  0.0211 -0.0212
58033W        W 1024  13.852   0.706   3.433 -0.0052 -0.1986 -0.1473
58034W        W 1025  20.513  11.108   4.476 -0.3266  0.0990 -0.0383
58035W        W 1026  12.106   5.505   0.843 -0.0322  0.0573 -0.1176
58036W        W 1027  28.425  30.898   4.532  0.1164 -0.0531 -0.1595
58037W        W 1028   5.938   9.779   8.502 -0.0757  0.0838 -0.1519
58038W        W 1029  11.121  25.443  26.262  0.1214  0.0988  0.1304
58039W        W 1030  30.525  12.525   3.965  0.1461  0.0744  0.0593
58040W        W 1031   5.702  24.035   8.652 -0.2523 -0.2272  0.1211
58041W        W 1032   3.308  31.028  23.942 -0.1951  0.2865 -0.1573
58042W        W 1033  11.924  25.891  24.402 -0.1912  0.2572 -0.0153
58043W        W 1034  23.076   7.089  14.348  0.3201  0.0706  0.1876
58044W        W 1035   6.554  12.629  17.581  0.1639 -0.0616  0.0797
58045W        W 1036  15.090   9.636   1.024  0.0624  0.1239  0.1428
58046W        W 1037  21.234   7.198  27.904  0.0630  0.0411 -0.1515
58047W        W 1038  18.222   7.330   2.780 -0.1362 -0.3464 -0.0234
58048W        W 1039   5.249  28.596  25.301  0.1582 -0.0291  0.0892
58049W        W 1040  16.239  21.635  27.620  0.1352  0.2095 -0.0668
58050W        W 1041   5.419   0.942  19.586  0.1627 -0.2578  0.0507
58051W        W 1042  15.203  17.653   6.195  0.4497  0.1550 -0.0572
58052W        W 1043  31.226  14.311  16.540  0.2802 -0.0044  0.0541
58053W        W 1044   8.808  17.628  27.869  0.0476  0.3338 -0.3412
58054W        W 1045  27.350   7.609  14.512 -0.2667  0.1624  0.1444
58055W        W 1046   9.430  29.290   1.262  0.0142  0.0934 -0.2712
58056W        W 1047  23.300  17.610   3.726  0.1221 -0.1871  0.2751
58057W        W 1048  32.346  20.457   2.791 -0.6079 -0.2360  0.0466
58058W        W 1049  19.447  28.475   8.517  0.2108 -0.0962 -0.0017
58059W        W 1050  13.106   7.106   4.305 -0.1552  0.1274  0.2632
58060W        W 1051   7.128  22.080   8.256  0.0776  0.2294  0.1484
58061W        W 1052  20.217  16.338  25.499  0.0585  0.0518  0.0533
58062W        W 1053   0.680  16.057   6.203  0.1386  0.0207 -0.2367
58063W        W 1054  12.681  13.450   0.513 -0.2822  0.1523  0.1893
58064W        W 1055  13.423   6.792  14.881  0.0963  0.0554 -0.2883
58065W        W 1056  17.152  21.068   1.984 -0.2249 -0.0363  0.0580
58066W        W 1057  15.247  15.319  16.425  0.1051 -0.0958 -0.1370
58067W        W 1058  16.214   6.339   4.989 -0.1968  0.0213  0.3889
58068W        W 1059  11.217  12.393   0.301  0.2160  0.2380  0.0327
58069W        W 1060   6.783   1.352  16.658 -0.2524  0.1337 -0.1748
58070W        W 1061  10.987  15.362  10.726  0.0171 -0.4108 -0.2317
58071W        W 1062  14.319   4.052   4.161  0.2880  0.0237  0.3643
58072W        W 1063  24.217  24.841   1.507 -0.1920  0.2144 -0.2557
58073W        W 1064  25.941  19.569  21.658 -0.1824  0.0322 -0.0086
58074W        W 1065  10.950   0.911  28.495  0.0674 -0.0650  0.1913
58075W        W 1066   4.811   2.673  17.099  0.2338  0.1885 -0.1314
58076W        W 1067  20.941  12.095  23.892 -0.2539  0.1930 -0.0020
58077W        W 1068   3.119   6.059  10.571 -0.0354 -0.0010 -0.1542
58078W        W 1069  21.238  13.122  28.829 -0.0815  0.0949  0.0503
58079W        W 1070  11.172   2.846  24.485 -0.0028 -0.3956  0.1978
58080W        W 1071  10.979   7.205  21.370 -0.0895 -0.1747  0.2575
58081W        W 1072   4.221   1.228  22.279  0.2660  0.5138 -0.1004
58082W        W 1073  25.999  18.252   7.839  0.0334  0.0675 -0.0650
58083W        W 1074   7.398   4.929  29.041  0.1428  0.1873  0.1069
58084W        W 1075  12.323  10.769  18.268  0.2395 -0.3045  0.3272
58085W        W 1076   0.148   9.079  18.849 -0.1394  0.4666 -0.4555
58086W        W 1077  11.317  12.526   8.693 -0.0534  0.3502 -0.0887
58087W        W 1078   7.905  14.154  27.170  0.0463 -0.3273  0.0540
58088W        W 1079  14.813   4.877   1.611 -0.0885  0.0369  0.2761
58089W        W 1080  16.557  13.722  14.839  0.1364  0.0028 -0.1590
58090W        W 1081  11.803  30.008  25.839  0.0191  0.0991  0.1603
58091W        W 1082   7.871   2.023   0.327  0.1787  0.0034  0.0745
58092W        W 1083  14.850   0.282  10.517  0.0218  0.2397  0.0175
58093W        W 1084  29.551  13.272   0.733 -0.0136 -0.0117 -0.0631
58094W        W 1085  32.049  12.325  20.687  0.1593 -0.0581  0.0248
58095W        W 1086   9.125  11.435   9.914 -0.2137 -0.0181 -0.0036
58096W        W 1087  14.602  14.682  26.265  0.0943  0.2290 -0.3312
58097W        W 1088  33.330   8.671  22.939 -0.0697 -0.0361 -0.0812
58098W        W 1089  27.068   4.239   8.080 -0.1459  0.0118 -0.1086
58099W        W 1090  29.061   8.788  23.341  0.1774 -0.1057  0.1227
58100W        W 1091   9.952   3.680  22.314 -0.1054 -0.1723  0.1046
58101W        W 1092  10.373   9.589  23.198 -0.3239  0.0953 -0.2662
58102W        W 1093  32.679  31.735   7.307 -0.0482  0.0038  0.1925
58103W        W 1094  18.745   2.207  19.619 -0.1533  0.1136 -0.0946
58104W        W 1095  18.855  12.242  27.148 -0.0159  0.1462  0.0265
58105W        W 1096   5.989  33.872   3.404 -0.1815  0.1166 -0.1279
58106W        W 1097  17.711   6.085  27.099  0.1197  0.0056  0.0198
58107W        W 1098  24.006  13.599  16.382  0.1090  0.3795  0.2586
58108W        W 1099   6.161  23.940  23.300  0.0097 -0.4530  0.4250
58109W        W 1100  34.678  18.409  24.266 -0.1215  0.3528  0.3829
58110W        W 1101  21.309  17.399  16.606 -0.0712 -0.2117  0.2510
58111W        W 1102  20.080  18.072   1.556  0.2619  0.1564  0.0673
58112W        W 1103   8.195   3.516   9.350 -0.0435 -0.1226 -0.1386
58113W        W 1104  12.657  15.778  22.225  0.0504  0.1373  0.0940
58114W        W 1105  31.196  17.529  28.542 -0.0898 -0.1212 -0.1411
58115W        W 1106  17.982   3.588   0.846 -0.0745  0.0691  0.0984
58116W        W 1107  23.306   1.923   7.732 -0.2781 -0.1618  0.1184
58117W        W 1108   0.993  16.374  24.115  0.1315  0.1081 -0.1945
58118W        W 1109  14.504  12.798  20.845  0.1546  0.0659 -0.2466
58119W        W 1110  22.937  15.179  27.612 -0.1666 -0.1576 -0.1403
58120W        W 1111   1.268  23.085  23.236 -0.1204  0.0860  0.0196
58121W        W 1112  11.460   0.926  15.278  0.1689 -0.0949 -0.3601
58122W        W 1113  28.197   8.045  26.237 -0.2929 -0.3817  0.2189
58123W        W 1114  14.876  31.921   1.628 -0.2706 -0.0046  0.0646
58124W        W 1115   4.845  10.910   2.548  0.0937 -0.3062  0.2232
58125W        W 1116   4.940  17.817  17.515 -0.1242 -0.3736  0.0667
58126W        W 1117  21.105  26.465   6.655  0.0388 -0.0845  0.0693
58127W        W 1118   0.776  10.040  21.315  0.2079  0.2013  0.0907
58128W        W 1119  20.656   5.788  16.262  0.0380  0.1121 -0.0615
58129W        W 1120  12.136   6.082  19.184  0.1522 -0.0506  0.4106
58130W        W 1121  22.947  16.063  19.827 -0.1016  0.0853 -0.0190
58131W        W 1122  14.337   7.484  18.602 -0.0347 -0.4467  0.3569
58132W        W 1123  33.048  12.494   4.991  0.1331 -0.2772  0.0604
58133W        W 1124   3.618  10.307  10.322  0.0017  0.2678 -0.2363
58134W        W 1125  15.486  10.386   1.858  0.0120  0.3252 -0.0613
58135W        W 1126  17.666  14.336   0.963  0.1578  0.0985 -0.2359
58136W        W 1127  30.671  19.566  17.575 -0.1924  0.0876  0.0355
58137W        W 1128  19.421   5.576  16.305  0.0404  0.1436  0.0570
58138W        W 1129   3.293  34.679   0.354  0.0399 -0.1238  0.0766
58139W        W 1130  18.659  10.536  24.473  0.0799  0.0580  0.0534
58140W        W 1131  28.379  34.324  15.424 -0.2037  0.2935  0.3577
58141W        W 1132  21.825  10.316   6.069 -0.1949 -0.2260  0.0623
58142W        W 1133  30.989   9.142  21.767  0.0929  0.0996 -0.0188
58143W        W 1134  21.762   5.982  15.111 -0.2525 -0.1987  0.1682
58144W        W 1135   4.413   6.356  16.484 -0.1155  0.2581  0.0054
58145W        W 1136  28.440   4.989  18.404  0.5581  0.1319  0.0423
58146W        W 1137  20.970  16.946   2.575  0.0421  0.0243  0.2985
58147W        W 1138  11.144  33.784  29.038 -0.1166  0.3098  0.0048
58148W        W 1139   6.597  32.362   6.575 -0.1936  0.0251 -0.0630
58149W        W 1140  25.202  20.951   8.807 -0.0388 -0.2158 -0.0519
58150W        W 1141  16.903   1.002   8.181 -0.2355 -0.0305 -0.3251
58151W        W 1142  23.673   4.261  25.508  0.3124 -0.1761  0.0829
58152W        W 1143  29.230  22.516   3.705 -0.4085 -0.1517  0.0091
58153W        W 1144   8.561  22.411  24.479 -0.1706 -0.0060  0.0666
58154W        W 1145   2.044   4.337  26.784  0.1630 -0.1058 -0.1040
58155W        W 1146   3.487  11.184   9.327 -0.0410  0.2411 -0.2618
58156W        W 1147  21.357   8.790  24.563 -0.1366 -0.0628 -0.1160
58157W        W 1148  29.647  10.657   2.457  0.0235  0.2565 -0.1267
58158W        W 1149   1.691  30.989  16.059  0.0671  0.1534 -0.0293
58159W        W 1150  15.788  31.493   3.140  0.0749 -0.0707  0.0197
58160W        W 1151  11.194   0.182  23.785 -0.1400  0.2411 -0.1796
58161W        W 1152  10.683  31.189  25.151 -0.2450 -0.1213  0.0618
58162W        W 1153  14.720  30.184  28.915 -0.1135  0.0317 -0.0630
58163W        W 1154  28.460  17.073   7.360  0.2560  0.4200  0.2797
58164W        W 1155   5.395   0.111   7.319  0.0940 -0.0600  0.1427
58165W        W 1156  15.391  21.075  25.242  0.0607  0.0351  0.4221
58166W        W 1157   9.417  14.360  15.681  0.0044  0.2540  0.0652
58167W        W 1158  20.057  14.339  17.419  0.3150 -0.1409 -0.0090
58168W        W 1159   4.795  14.487  27.751 -0.2170 -0.0804  0.3727
58169W        W 1160   9.057  27.477   5.601  0.0359  0.1506  0.0958
58170W        W 1161  16.250  31.174  28.747 -0.0240 -0.3461 -0.0978
58171W        W 1162  22.925   7.038   5.115  0.3444 -0.0750 -0.2148
58172W        W 1163  32.168   0.309   0.289 -0.0718 -0.0688  0.0254
58173W        W 1164  10.955  19.517   7.543  0.2328 -0.0388  0.1369
58174W        W 1165   1.027  20.361  19.072  0.0521  0.0769 -0.1174
58175W        W 1166  15.686  15.261  15.124  0.1708 -0.1046  0.0398
58176W        W 1167  14.391  19.222  17.060 -0.3039  0.3078 -0.0388
58177W        W 1168  15.454   1.085   8.403  0.2468  0.1015 -0.1034
58178W        W 1169  32.328   5.485   3.510 -0.1633  0.0025 -0.1559
58179W        W 1170  19.227  31.775  19.935 -0.0566  0.1540 -0.3896
58180W        W 1171  13.153   1.822   7.475 -0.0271  0.0148 -0.1398
58181W        W 1172   5.845  34.177  18.417  0.3072  0.3134 -0.1430
58182W        W 1173   8.994  10.260  26.410  0.0846  0.0614  0.0274
58183W        W 1174   5.592  10.285  15.541 -0.0971  0.0241  0.1208
58184W        W 1175  14.793  14.396  21.870 -0.0101  0.1158  0.0745
58185W        W 1176  14.646  24.332   6.036  0.2883  0.3277  0.1225
58186W        W 1177   6.954   2.561   5.013  0.0466  0.2582  0.4552
58187W        W 1178   9.753   6.874  20.645 -0.3009  0.1171 -0.3415
58188W        W 1179  28.652   7.668   2.045  0.2740  0.0501  0.0966
58189W        W 1180  20.358   3.088  27.928  0.0199 -0.3971 -0.1660
58190W        W 1181  23.369   5.840   7.102  0.2980  0.2696 -0.3540
58191W        W 1182  26.900  17.295  21.629  0.1992  0.0025  0.0855
58192W        W 1183  12.463  22.152  26.256  0.1399 -0.1037 -0.1575
58193W        W 1184  25.433   9.670   9.600  0.1927 -0.2495  0.0654
58194W        W 1185   9.240  13.063  26.167  0.0578 -0.0176  0.0686
58195W        W 1186  24.878   5.568  20.367 -0.0997 -0.0542 -0.0515
58196W        W 1187  28.429  14.864  24.079  0.2062  0.1305 -0.2498
58197W        W 1188  17.782  26.398   4.626 -0.0529 -0.2549  0.0632
58198W        W 1189   7.576  15.520   9.307 -0.0521 -0.0649 -0.1411
58199W        W 1190  26.910  28.844  28.575 -0.2796 -0.0131 -0.0928
58200W        W 1191  23.795  26.873  18.179  0.0545 -0.2030 -0.3581
58201W        W 1192  25.759  17.973   8.308  0.2264  0.0946 -0.2994
58202W        W 1193  31.966   2.145   3.952  0.1124  0.0689  0.0516
58203W        W 1194   6.079  16.163   5.156  0.2389  0.5248 -0.0070
58204W        W 1195   8.660   6.872   3.580  0.1496 -0.2978  0.1481
58205W        W 1196  15.127   9.969   8.146 -0.3773 -0.0250  0.3840
58206W        W 1197  21.583  19.331   2.786 -0.1933 -0.2849 -0.2995
58207W        W 1198  10.072  11.087   5.296  0.2784  0.3320  0.0946
58208W        W 1199  20.149   5.707  13.088  0.0140 -0.0241  0.0428
58209W        W 1200  11.176  16.163   7.091 -0.0367 -0.2779 -0.0193
58210W        W 1201  21.682  10.575   1.436  0.1458 -0.0735  0.1189
58211W        W 1202  17.244  19.059   8.428 -0.1673 -0.2195 -0.0250
58212W        W 1203   2.131   2.371  26.643 -0.0431  0.0153  0.1287
58213W        W 1204  12.956   7.329   4.702 -0.0018 -0.0107 -0.0347
58214W        W 1205  12.274   6.675  27.201 -0.2420 -0.0951 -0.1518
58215W        W 1206  10.983   9.282  20.830  0.1213 -0.1077  0.0856
58216W        W 1207  18.062   4.581  17.309 -0.1464  0.0902  0.1783
58217W        W 1208   9.014  14.989  20.363 -0.1318 -0.1309 -0.1435
58218W        W 1209  13.305  10.313  16.077  0.1699  0.0970  0.0212
58219W        W 1210  10.377   7.798  22.054  0.0751 -0.0312 -0.0794
58220W        W 1211  16.888  15.882  15.585 -0.1820  0.1951 -0.2901
58221W        W 1212  16.004  20.357  16.414 -0.0567  0.3836  0.0061
58222W        W 1213  14.609  25.443  25.829  0.0526  0.0838 -0.0019
58223W        W 1214   8.279  19.418   2.936 -0.3012 -0.1417 -0.0108
58224W        W 1215   1.706  21.659  24.597 -0.2955  0.1561  0.0993
58225W        W 1216  13.966  34.205   4.187 -0.0075  0.0743  0.0164
58226W        W 1217  14.528   8.089   4.335  0.2393  0.0801 -0.0093
58227W        W 1218  16.532  14.177  20.616  0.0836 -0.2670 -0.0949
58228W        W 1219   7.528  28.171  18.204  0.0434 -0.2075  0.2841
58229W        W 1220  15.869  25.484   6.961  0.1337 -0.3631  0.1586
58230W        W 1221  19.733  15.051  28.761  0.1411 -0.1132 -0.0453
58231W        W 1222  12.691  33.222  26.038 -0.0404  0.1376  0.0884
58232W        W 1223  16.354  13.397   2.069 -0.0591 -0.0578 -0.0482
58233W        W 1224  29.385   4.105  24.541  0.1070  0.3512  0.0116
58234W        W 1225  28.802   7.868   3.029  0.3163  0.0048  0.2237
58235W        W 1226  15.882  18.991  24.384 -0.1480  0.1233  0.1864
58236W        W 1227  18.533  19.175  23.298  0.1143 -0.0554  0.0764
58237W        W 1228  19.964  33.949   8.706 -0.2254 -0.0534 -0.0562
58238W        W 1229  15.894   9.474  14.958 -0.2251  0.0233 -0.2444
58239W        W 1230  17.415   3.247   1.727 -0.0195 -0.2386 -0.1347
58240W        W 1231   3.859   8.546  18.799  0.1004  0.2326  0.2218
58241W        W 1232  12.887   0.363  28.201 -0.3267 -0.0745  0.1880
58242W        W 1233  17.051  10.302   8.739  0.0616 -0.2489  0.0163
58243W        W 1234  17.644   5.874   6.618 -0.0707 -0.0150  0.3445
58244W        W 1235  19.324  12.690   6.296 -0.1552 -0.1270  0.1067
58245W        W 1236  18.341  18.706  24.012  0.0216  0.0113 -0.1358
58246W        W 1237   7.576  17.289   6.099 -0.1421 -0.0530  0.3624
58247W        W 1238   8.374  29.298  19.748 -0.2303 -0.0197  0.2724
58248W        W 1239   5.951  33.628  27.200 -0.0376 -0.0912 -0.2866
58249W        W 1240   4.988  14.569  11.584  0.1605  0.1746 -0.4822
58250W        W 1241  32.997  22.498   2.295 -0.1268 -0.2639 -0.2831
58251W        W 1242  13.026   9.986  28.266  0.0676  0.1059 -0.2257
58252W        W 1243  12.541   0.630  24.197  0.0085  0.0958 -0.2275
58253W        W 1244  13.374   3.073   4.582  0.1315  0.0482  0.0653
58254W        W 1245   6.508  13.921  20.193  0.5371 -0.4354 -0.0805
58255W        W 1246  11.802  21.672   8.383 -0.2698 -0.1049  0.0445
58256W        W 1247   6.104  16.158   0.229  0.3875  0.0298 -0.0831
58257W        W 1248   7.460   7.015  23.137 -0.0841 -0.2321  0.2354
58258W        W 1249  14.621  13.155   4.475 -0.1190 -0.1617 -0.0718
58259W        W 1250  18.120  14.680   6.257  0.0796 -0.0270 -0.3461
58260W        W 1251   0.984   5.653  25.048  0.1711 -0.0908  0.2518
58261W        W 1252  19.324   7.450   4.870  0.0619 -0.0088 -0.0495
58262W        W 1253   7.154   8.195   1.570 -0.0907 -0.0605 -0.1381
58263W        W 1254  16.430   5.183  19.873 -0.0304  0.0588  0.4521
58264W        W 1255  11.279  17.761  27.768 -0.0499 -0.0027  0.1602
58265W        W 1256   6.881  32.452  17.142  0.1219 -0.2676 -0.1002
58266W        W 1257  20.399  14.040  27.486  0.1908  0.3014 -0.0198
58267W        W 1258   3.201  18.793  19.726 -0.3173  0.2763 -0.2586
58268W        W 1259  19.082   0.522  15.026 -0.0787  0.3240  0.0996
58269W        W 1260  26.032  11.221  21.297  0.3216 -0.0840 -0.0901
58270W        W 1261  12.905  23.118  17.806  0.1991  0.2811  0.1150
58271W        W 1262   8.343  13.723  10.387 -0.0359 -0.2089  0.1394
58272W        W 1263  13.607  13.904  19.342  0.3176  0.1097  0.3480
58273W        W 1264  13.620  14.124  14.838 -0.1591 -0.1612 -0.1067
58274W        W 1265  12.868  17.534  18.070 -0.2682 -0.2597 -0.1703
58275W        W 1266  13.370  20.995  28.796  0.0638 -0.2284  0.0900
58276W        W 1267   7.106  11.465  16.142  0.2011  0.1270  0.4519
58277W        W 1268  14.627  23.709  20.215 -0.0452 -0.2818  0.2717
58278W        W 1269  12.021  19.945  19.465 -0.0026 -0.0799 -0.0793
58279W        W 1270   2.356  21.677  27.686  0.0002  0.1187 -0.0453
58280W        W 1271  27.003  19.061  25.862 -0.0520 -0.1358  0.2360
58281W        W 1272   9.568  13.159  22.159  0.0782  0.1299  0.1163
58282W        W 1273  22.213  24.645  22.996 -0.0043  0.1599  0.0350
58283W        W 1274   7.422  15.343   9.733 -0.0234 -0.0755 -0.1182
58284W        W 1275   5.599  14.915  22.903  0.0972 -0.0081 -0.0734
58285W        W 1276  14.826  28.179  15.317  0.1811 -0.1245  0.2526
58286W        W 1277   8.899  33.368  19.710  0.1059  0.1073 -0.1442
58287W        W 1278  15.915  13.548  18.158 -0.1947 -0.0159 -0.2034
58288W        W 1279  27.723  19.823  17.760  0.1697  0.1579 -0.0810
58289W        W 1280   6.538  15.827  21.299  0.0798 -0.0647 -0.0931
58290W        W 1281   1.874  17.599  19.344 -0.1242  0.2388 -0.1436
58291W        W 1282  19.710  17.956  13.376 -0.1196  0.0122 -0.1032
58292W        W 1283  18.178  11.396  16.369  0.4113 -0.3045 -0.3103
58293W        W 1284  17.434   8.282  19.003  0.4858 -0.2445  0.0133
58294W        W 1285  12.802  18.715  18.935 -0.1299  0.1803 -0.1363
58295W        W 1286   0.956  19.086  17.477 -0.0744  0.0973 -0.0648
58296W        W 1287   4.259   4.408  24.634  0.0595 -0.1744 -0.2923
58297W        W 1288  20.579  25.005  25.937 -0.2735  0.1201  0.1052
58298W        W 1289  23.844  23.767  26.138  0.0299 -0.0173 -0.0592
58299W        W 1290   3.681  22.688   5.203  0.3391  0.0085  0.1321
58300W        W 1291  12.407  10.468  23.717 -0.1905 -0.0091  0.0438
58301W        W 1292  19.469  16.686  12.083  0.1867 -0.0259 -0.1733
58302W        W 1293  12.208  30.170  18.586 -0.0196 -0.4893 -0.0079
58303W        W 1294  18.537  27.052  19.378 -0.1325 -0.0032  0.1768
58304W        W 1295  19.322  13.445   7.077 -0.0212 -0.2259 -0.0615
58305W        W 1296  14.152  21.499  15.887 -0.0335  0.3561 -0.3814
58306W        W 1297  19.541  26.138  18.418  0.2985 -0.0555 -0.0470
58307W        W 1298  17.603  24.970  15.451  0.0937 -0.2435 -0.1782
58308W        W 1299   9.992  19.632  19.853 -0.4746 -0.1910  0.1825
58309W        W 1300   5.559  13.981   7.199  0.0663  0.1757  0.0379
58310W        W 1301   6.639  24.366  28.373  0.2485  0.4658  0.0737
58311W        W 1302  26.034  15.396  15.014 -0.3295 -0.1528 -0.0178
58312W        W 1303  23.084  22.340  25.249  0.1361 -0.0298 -0.0750
58313W        W 1304   7.040   7.437  14.695 -0.0960 -0.0499 -0.2980
58314W        W 1305  31.616  23.727  24.641 -0.2033  0.1954  0.3759
58315W        W 1306  33.979  11.911  19.960 -0.3103 -0.2455  0.1757
58316W        W 1307  16.449  32.704  22.292 -0.1317 -0.0859  0.0093
58317W        W 1308  20.701   9.454  26.251 -0.0081 -0.1284  0.0804
58318W        W 1309   5.360  29.459   3.891 -0.0119  0.1018  0.1559
58319W        W 1310  31.972  18.135  20.570  0.1854 -0.1447  0.1397
58320W        W 1311  17.963   3.328  25.412 -0.0088 -0.1443 -0.1406
58321W        W 1312   2.205   1.887  23.039 -0.0347  0.1819 -0.1227
58322W        W 1313  21.960  18.752  18.916  0.1180  0.2198 -0.1037
58323W        W 1314   1.778  29.752  23.153 -0.0463 -0.2217 -0.0528
58324W        W 1315  15.746  34.201  14.762  0.1876 -0.0208  0.3219
58325W        W 1316   3.895  17.336  22.895 -0.2282 -0.0010  0.1673
58326W        W 1317   9.030  12.258  22.007  0.2204  0.3457 -0.1197
58327W        W 1318  24.470  18.779  15.541 -0.0631 -0.1031  0.1433
58328W        W 1319  11.881  15.649  13.446 -0.3034 -0.2362  0.0157
58329W        W 1320  24.473   9.333  16.999  0.0657  0.2984  0.3929
58330W        W 1321  22.365  21.287  20.042 -0.0500  0.0090  0.2259
58331W        W 1322  14.802  12.291  17.712  0.4200  0.0824  0.1038
58332W        W 1323   0.169   4.241  16.436 -0.1081  0.0562  0.1781
58333W        W 1324   7.543  23.589  20.597 -0.0504  0.0183  0.0565
58334W        W 1325  12.120  34.475  27.908 -0.2269  0.0854 -0.2025
58335W        W 1326   8.639  19.737  14.930  0.0893  0.0080 -0.1100
58336W        W 1327   2.200  16.787  19.059  0.0788 -0.0731 -0.3172
58337W        W 1328   5.697  19.938  18.016  0.3417  0.0912  0.1442
58338W        W 1329  10.996  17.929  13.647  0.3834  0.0720 -0.3300
58339W        W 1330  20.442  29.282  24.729  0.1514 -0.2663 -0.3475
58340W        W 1331  14.594  26.870  22.748  0.0355 -0.3278 -0.0644
58341W        W 1332  27.201   7.316  14.077  0.1445 -0.1045  0.0082
58342W        W 1333  18.535   6.131  16.664  0.1552 -0.0663 -0.2693
58343W        W 1334  16.692  16.227  24.940 -0.0762  0.1136  0.0578
58344W        W 1335  10.602  15.747   4.906 -0.2343  0.0046  0.2319
58345W        W 1336   8.510  10.806  23.116  0.0654 -0.1202  0.0640
58346W        W 1337  30.213   3.383   6.715  0.0001 -0.3402 -0.0055
58347W        W 1338  26.411  17.380  16.229  0.2179 -0.2024  0.0731
58348W        W 1339   6.952  11.151  25.273  0.1670 -0.2382 -0.1411
58349W        W 1340  21.037   1.827   1.274 -0.1455 -0.2209 -0.4888
58350W        W 1341   0.415  20.554  17.426 -0.1000  0.0962 -0.1502
58351W        W 1342   7.157  23.730  23.615 -0.1609 -0.2437  0.0894
58352W        W 1343   9.374   4.279  14.921  0.1734  0.0499  0.1813
58353W        W 1344  10.362  21.002  15.881 -0.3220 -0.1543  0.0045
58354W        W 1345  16.986  22.509  17.318 -0.3126 -0.2761 -0.1288
58355W        W 1346  20.247   6.743  16.064  0.1668 -0.5549 -0.1716
58356W        W 1347  19.049   2.215   8.065  0.0113 -0.0754 -0.1391
58357W        W 1348  16.086   1.603   4.669  0.0790  0.3372 -0.1482
58358W        W 1349  22.294  10.976  15.306  0.4495  0.0065  0.0807
58359W        W 1350  17.541  20.601   2.374 -0.3298  0.3127  0.2250
58360W        W 1351   4.845  31.799  15.141 -0.0551  0.2789 -0.2176
58361W        W 1352   8.492  18.010   3.940  0.1206  0.1712  0.1099
58362W        W 1353  34.406   3.368  18.576 -0.2456 -0.1802 -0.0324
58363W        W 1354   9.982  10.274  17.491  0.2300 -0.1407 -0.3775
58364W        W 1355  12.437  15.527  17.494  0.2607 -0.0953  0.1532
58365W        W 1356  28.498  13.780  18.563  0.2693 -0.1713 -0.0323
58366W        W 1357   8.235  21.034  18.087  0.1306  0.2171 -0.1957
58367W        W 1358  18.020  21.437  16.259 -0.1282 -0.3941  0.3546
58368W        W 1359  32.392  23.004  23.599  0.1075 -0.0943  0.1562
58369W        W 1360  15.983  15.002  13.437  0.2618  0.1396 -0.0334
58370W        W 1361  23.073   9.395  14.346  0.2365  0.0996  0.3576
58371W        W 1362   8.726  24.376  15.599 -0.5037  0.0356 -0.1149
58372W        W 1363  10.607  13.000  20.277 -0.0331  0.0330  0.1480
58373W        W 1364  26.081  29.362  19.751 -0.1920  0.3383  0.2671
58374W        W 1365   8.367  10.671  16.894 -0.1015  0.1983  0.1325
58375W        W 1366   7.773  22.374  15.243 -0.2248  0.1292 -0.0465
58376W        W 1367  13.317  18.681  17.432  0.0176  0.3408 -0.2712
58377W        W 1368  14.292  12.441  21.111  0.4225  0.0330  0.1297
58378W        W 1369  16.479  15.000  14.698 -0.0120  0.1381  0.2129
58379W        W 1370   8.671  28.818  20.220 -0.3927 -0.2896  0.1596
58380W        W 1371  28.161  28.314  16.871  0.4730  0.2427  0.2613
58381W        W 1372  16.487   3.672   1.871 -0.3241 -0.0110 -0.0265
58382W        W 1373  28.390  22.815  13.859  0.0068  0.0629 -0.0495
58383W        W 1374  19.324   6.852  25.143 -0.3286  0.1028 -0.1992
58384W        W 1375  28.209  20.764  24.258 -0.3272 -0.4743 -0.0299
58385W        W 1376  19.963   9.874  21.914  0.2530 -0.0443  0.0477
58386W        W 1377  11.413   3.287  28.063  0.0371  0.0156 -0.0773
58387W        W 1378   3.147  19.069  22.253  0.1054  0.0011  0.0876
58388W        W 1379  27.417  13.140   6.094 -0.0019  0.1077 -0.1952
58389W        W 1380   7.273  27.541  17.522 -0.0463 -0.3210  0.2755
58390W        W 1381  20.263  27.260  20.196  0.1012 -0.1711 -0.4448
58391W        W 1382  16.554  11.666  18.039 -0.1373 -0.2286  0.1374
58392W        W 1383  22.516   0.761   2.316 -0.3524 -0.0090 -0.2140
58393W        W 1384  15.105   3.889  18.647  0.0264 -0.1534 -0.0491
58394W        W 1385   4.726   8.515  19.815  0.0935 -0.2160 -0.1290
58395W        W 1386  24.529   0.119  14.015 -0.1907  0.0199 -0.3570
58396W        W 1387  14.404  10.349  26.760 -0.0351  0.1308  0.3685
58397W        W 1388  12.618  19.380  16.295 -0.1890  0.1268 -0.1322
58398W        W 1389   8.074  18.686  19.392  0.0881 -0.2546  0.0434
58399W        W 1390  21.967  31.387  21.507 -0.1884  0.2952  0.0093
58400W        W 1391  16.286  17.591   0.430 -0.4015 -0.0560  0.2928
58401W        W 1392  20.480   6.053  18.505 -0.0052  0.4134 -0.0908
58402W        W 1393  25.205  22.313  15.219 -0.0663  0.3987 -0.1311
58403W        W 1394  16.284  13.346  14.136  0.0523 -0.0067  0.0495
58404W        W 1395  19.367  15.595  28.010  0.0122  0.1246  0.1536
58405W        W 1396  15.377  32.961  16.233  0.2645  0.0126 -0.1797
58406W        W 1397  16.021   1.181  25.377 -0.2322  0.1200  0.1469
58407W        W 1398   1.038  13.823  20.572 -0.1390 -0.2799 -0.0092
58408W        W 1399  18.050  29.790  16.833 -0.2631 -0.0609  0.1684
58409W        W 1400  13.990  23.121  23.246  0.1649 -0.1541  0.0617
58410W        W 1401  13.638  31.687  25.873 -0.0688  0.0623 -0.0907
58411W        W 1402   7.445  18.003  22.048 -0.0006 -0.4052  0.3787
58412W        W 1403  15.722  10.500  14.049 -0.0742  0.3086 -0.1005
58413W        W 1404  14.591  10.245  21.449 -0.3894  0.3028 -0.0325
58414W        W 1405  29.446   2.940   3.754  0.0458  0.1098 -0.0628
58415W        W 1406  25.574  24.162  18.607 -0.1603  0.0373  0.1939
58416W        W 1407   9.748  17.508  23.692  0.1281  0.2799 -0.0601
58417W        W 1408  32.783   8.473  28.607  0.0850  0.1834  0.2123
58418W        W 1409  10.684  15.539  16.948  0.1283 -0.0981  0.2372
58419W        W 1410  16.393  12.715  21.920 -0.0290 -0.0134  0.0935
58420W        W 1411   4.294  22.692  24.841  0.1721 -0.2272 -0.0941
58421W        W 1412  14.311  18.874  28.843  0.2222 -0.1492  0.0645
58422W        W 1413  23.319  24.109  22.233 -0.1686 -0.0103 -0.3494
58423W        W 1414  10.364  17.675  17.706 -0.1691  0.1901  0.2114
58424W        W 1415  20.256  11.692  15.856 -0.0603 -0.0277 -0.0723
58425W        W 1416  19.119  28.797  26.507 -0.1278  0.0189  0.2584
58426W        W 1417   7.027  16.887  20.223 -0.2344 -0.5513  0.3121
58427W        W 1418  15.409  13.390  14.347  0.0503 -0.1359  0.2380
58428W        W 1419  34.371  14.778  15.878  0.2761  0.0921  0.0544
58429W        W 1420  10.947  17.903  19.500  0.4271  0.0711  0.3489
58430W        W 1421   7.009  15.363  16.351 -0.2888  0.0124  0.2693
58431W        W 1422  15.638   3.682  18.726 -0.1445  0.0036  0.2108
58432W        W 1423   1.139   8.738  16.814 -0.0055  0.3708 -0.1313
58433W        W 1424  22.820  32.471   3.438  0.2253  0.2089 -0.1185
58434W        W 1425  11.534  29.520   2.646  0.1093 -0.2675 -0.1506
58435W        W 1426  10.483   6.909  19.167 -0.0242  0.0077  0.1868
58436W        W 1427   0.878  18.262  18.107  0.2838  0.0370  0.0744
58437W        W 1428  13.094  13.586  23.584  0.1680 -0.0411 -0.2703
58438W        W 1429  18.303  27.135  22.002 -0.3329 -0.1230  0.0796
58439W        W 1430  19.012   2.980  14.516 -0.1823  0.0224 -0.2050
58440W        W 1431   0.289  19.360  23.372  0.2729 -0.2510 -0.0590
58441W        W 1432  20.967   3.643  28.427 -0.1170 -0.2684 -0.0829
58442W        W 1433  11.940  24.010  20.329 -0.0395  0.0414 -0.2039
58443W        W 1434  18.235  12.718  19.299  0.1837  0.2873 -0.1683
58444W        W 1435   8.493   6.900  10.001 -0.3471  0.2882 -0.2064
58445W        W 1436  18.521  22.892  15.253 -0.1435 -0.1371  0.0592
58446W        W 1437   8.201   6.603  21.852 -0.2346  0.0807 -0.0771
58447W        W 1438   9.597  23.915  17.834 -0.0559  0.0859  0.2551
58448W        W 1439  19.396   0.993  21.315  0.0820  0.2204 -0.0927
58449W        W 1440  24.097  34.190  20.449 -0.0003 -0.4413 -0.0473
58450W        W 1441  14.530  30.782   3.402  0.0495 -0.2077  0.2505
58451W        W 1442  20.940  32.982  14.181 -0.0513 -0.3263 -0.0057
58452W        W 1443  19.420   9.666  18.811 -0.1082  0.2041  0.0609
58453W        W 1444  23.559  13.277  22.993  0.0534  0.1158 -0.1805
58454W        W 1445  28.869  31.064  23.610 -0.3551 -0.1349 -0.0350
58455W        W 1446  10.452   7.152  23.850  0.3532 -0.0306 -0.2234
58456W        W 1447  16.827   6.078  17.261  0.1525 -0.1761  0.0938
58457W        W 1448  24.675   2.793  25.511  0.2280 -0.0638 -0.2347
58458W        W 1449  15.560  23.279  15.067 -0.2653  0.1493 -0.2604
58459W        W 1450  16.261   7.755   0.406  0.1434 -0.1102 -0.4689
58460W        W 1451  19.172   4.326  19.346  0.0417  0.2470 -0.1162
58461W        W 1452  27.217  14.765  14.088  0.1847  0.0785 -0.1426
58462W        W 1453  12.706  14.314  23.083  0.1046 -0.0449  0.0134
58463W        W 1454  22.867   1.725  26.786 -0.2734  0.0522  0.1891
58464W        W 1455  21.044  17.003  17.446 -0.0630  0.0009 -0.1085
58465W        W 1456  10.680  12.843   2.920 -0.2218 -0.0181 -0.3408
58466W        W 1457  11.072  21.033  23.944 -0.1351 -0.0906 -0.0161
58467W        W 1458  23.491  12.564   4.541  0.0299 -0.0774 -0.4876
58468W        W 1459  17.960  19.080  15.166 -0.0393  0.1731 -0.2253
58469W        W 1460  25.746   6.538  23.122 -0.0271  0.5794 -0.0808
58470W        W 1461  29.219   8.703  22.889  0.1082  0.0439  0.2496
58471W        W 1462  16.928  17.516  14.747  0.0456  0.0990  0.0924
58472W        W 1463  17.386  32.661  17.381 -0.1084  0.1374  0.0365
58473W        W 1464  24.878  34.125   7.089  0.3414 -0.1622 -0.0603
58474W        W 1465   5.735   8.125  17.421 -0.0724 -0.0604 -0.0590
58475W        W 1466  26.185  11.623  20.879 -0.0586 -0.0934 -0.2568
58476W        W 1467  27.841  20.176  15.394  0.3991  0.5940  0.1022
58477W        W 1468  20.789   5.112   5.057 -0.0965  0.2886 -0.3710
58478W        W 1469  19.112   9.531  16.590 -0.0939 -0.3977  0.3074
58479W        W 1470   6.622  21.412  17.421  0.0937  0.0029  0.1204
58480W        W 1471  18.590  19.594  14.165  0.2560 -0.0127 -0.3332
58481W        W 1472  14.160  16.435  14.173  0.0053  0.0907  0.1093
58482W        W 1473  11.611  19.227  14.361 -0.1558  0.0208  0.2567
58483W        W 1474  21.444  27.841  14.088 -0.1113 -0.0240 -0.1411
58484W        W 1475   0.376  11.415  20.174 -0.0370  0.2355 -0.0480
58485W        W 1476  13.157   7.979   3.174 -0.1743  0.0527  0.0669
58486W        W 1477  15.329  10.092  21.888  0.0008 -0.1698  0.1285
58487W        W 1478  23.739  20.454  20.902 -0.1993 -0.1886  0.0273
58488W        W 1479  11.251  19.209  27.734  0.0011  0.4014  0.2295
58489W        W 1480  33.172  12.295  17.157  0.1220 -0.1264 -0.0683
58490W        W 1481  13.551  17.275  12.723  0.4299  0.0424 -0.0492
58491W        W 1482  17.918  23.352  15.636 -0.0748 -0.1047 -0.1705
58492W        W 1483  31.420  18.131  19.228 -0.2651 -0.1242  0.1730
58493W        W 1484  10.826   9.842  21.156 -0.3054  0.2493 -0.0358
58494W        W 1485  26.912  15.115   3.035  0.0906  0.1231  0.1974
58495W        W 1486   4.363  18.643  24.641 -0.0629 -0.3505  0.2688
58496W        W 1487  16.263   5.032   0.355 -0.2263 -0.0775 -0.0004
58497W        W 1488  19.593   0.542  18.805  0.1555 -0.1378  0.2175
58498W        W 1489  16.724   9.038  16.736 -0.0672  0.3875  0.4175
58499W        W 1490  26.519  21.464  22.724 -0.1770 -0.0897  0.1896
58500W        W 1491  17.759  18.230  12.630  0.0318  0.0901  0.0675
58501W        W 1492  19.830  13.494  16.588 -0.0273  0.1285 -0.3078
58502W        W 1493  27.846  17.046   1.168  0.0997 -0.0170 -0.1108
58503W        W 1494   5.074  17.253  19.411 -0.2670  0.1764 -0.0413
58504W        W 1495  13.563  18.256  15.549  0.1959 -0.2289  0.2257
58505W        W 1496  20.291   5.030  17.525  0.5501 -0.0088  0.3781
58506W        W 1497  17.083  12.939  18.698 -0.1296 -0.0091 -0.2554
58507W        W 1498  12.949  24.375  18.564 -0.0431 -0.1214 -0.5075
58508W        W 1499   6.697  19.583  17.667  0.1230 -0.1934  0.4005
58509W        W 1500  19.361  12.238  19.975 -0.0940 -0.0180  0.0614
58510W        W 1501  20.084  32.022  16.019 -0.3674 -0.1770 -0.1844
58511W        W 1502  24.932  26.608  24.136  0.0815  0.0631  0.0840
58512W        W 1503  24.287  19.677  18.427 -0.1833 -0.1687  0.0520
58513W        W 1504  34.791  17.826  18.556  0.2013 -0.1794  0.0964
58514W        W 1505  17.712  10.192  21.910  0.2062 -0.0279  0.0248
58515W        W 1506  32.147  17.075  22.389 -0.0980 -0.0193  0.2702
58516W        W 1507  15.569   7.267  27.044  0.0772 -0.0789  0.4059
58517W        W 1508   3.652  34.496   8.589  0.0175 -0.2432  0.1381
58518W        W 1509  27.301   4.050  16.388 -0.0846  0.1212  0.3304
58519W        W 1510   7.224   2.826  24.237  0.1805 -0.0759 -0.0347
58520W        W 1511   6.127  16.250  21.978 -0.0321 -0.1975 -0.2155
58521W        W 1512  24.607  17.182  18.273  0.1213  0.1436 -0.1270
58522W        W 1513  13.728  10.366  15.198  0.1191 -0.3183 -0.0676
58523W        W 1514  24.809  25.386  21.784  0.0047 -0.0375  0.1443
58524W        W 1515  12.507  11.014   2.583 -0.0739  0.4485  0.0123
58525W        W 1516  13.546  23.802  15.937 -0.1807 -0.1954 -0.0999
58526W        W 1517  20.866  11.497  15.662 -0.2270 -0.0173 -0.1271
58527W        W 1518  16.443  23.781  17.356  0.3099  0.2411  0.0382
58528W        W 1519  32.162  20.418  25.364 -0.1919 -0.0340  0.3688
58529W        W 1520  13.994  18.496  15.493  0.3129 -0.2123  0.1192
58530W        W 1521  19.296  10.239  17.543  0.2135  0.0366  0.0202
58531W        W 1522  20.909  22.558  21.429  0.0895 -0.0031 -0.0464
58532W        W 1523  13.290  34.432  16.189 -0.2722  0.1062  0.0899
58533W        W 1524   5.909   1.339  23.820  0.0412 -0.0476 -0.2417
58534W        W 1525  10.499  32.773  21.673 -0.0272 -0.2188  0.1794
58535W        W 1526   0.114   2.867  18.213  0.0483  0.3618 -0.2002
58536W        W 1527   9.856  29.642  26.762  0.1192 -0.1836 -0.1088
58537W        W 1528  24.197  13.750   1.224  0.3047 -0.3535 -0.0519
58538W        W 1529  12.125  11.187  24.193  0.1671  0.2208  0.0701
58539W        W 1530  19.726  15.217  14.523 -0.2505 -0.0322  0.1062
58540W        W 1531  16.152  34.031  15.304  0.0349  0.0127  0.1821
58541W        W 1532   8.086  19.760  18.436  0.3350  0.1327  0.2229
58542W        W 1533   3.672  14.011   3.331 -0.0081  0.1156 -0.2116
58543W        W 1534  16.430  20.420  22.294  0.0475  0.1246 -0.0361
58544W        W 1535   5.177  31.417  20.879  0.3813  0.1958 -0.0442
58545W        W 1536  18.127  20.670  23.116 -0.2044  0.1574 -0.0909
58546W        W 1537  34.477  22.225  22.854 -0.0332 -0.0572 -0.1444
58547W        W 1538  17.860   7.449  22.169 -0.1753  0.0993  0.1566
58548W        W 1539  12.937  12.482  22.054 -0.2174 -0.0751  0.4190
58549W        W 1540  15.634   6.065  22.005  0.2509 -0.1060 -0.1862
58550W        W 1541   9.528  27.469  26.456 -0.0343  0.0454 -0.1027
58551W        W 1542   8.584  17.241  18.562  0.2727 -0.1247 -0.4443
58552W        W 1543  33.417  12.841  19.936 -0.1434  0.1588 -0.2005
58553W        W 1544  11.354  26.936  17.685 -0.0644 -0.1406  0.0477
58554W        W 1545  28.483   4.513  21.330 -0.5726  0.0545  0.1978
58555W        W 1546  12.762  17.112  13.956 -0.0814  0.2737 -0.0120
58556W        W 1547  10.507  21.480  16.392 -0.3307 -0.0950 -0.0040
58557W        W 1548  18.799  15.291  13.013 -0.1456 -0.4463  0.2039
58558W        W 1549   8.373   9.912  16.336  0.1984  0.0570  0.1333
58559W        W 1550  11.219  14.208  18.555  0.3007  0.0797 -0.1300
58560W        W 1551  17.194   9.332  22.008 -0.2344  0.0158  0.0750
58561W        W 1552  11.384  17.569  13.675 -0.0168 -0.1220  0.0438
58562W        W 1553   7.849  19.617  26.384  0.1061 -0.2972  0.0512
58563W        W 1554   7.767  11.381  27.926 -0.2090  0.1391  0.2106
58564W        W 1555  19.924  20.072  16.284  0.1375  0.0695 -0.0468
58565W        W 1556  11.842  12.408  24.705  0.0012  0.1803  0.2260
58566W        W 1557  15.279  20.023  21.518 -0.2984 -0.1477  0.2473
58567W        W 1558  14.980  24.507   0.331  0.4088 -0.3873  0.2969
58568W        W 1559  23.427  19.350  18.948  0.3471 -0.2728 -0.0695
58569W        W 1560  11.869  24.702  23.148  0.1576  0.3831 -0.1127
58570W        W 1561  14.566  17.675  27.256  0.0747 -0.1001  0.0275
58571W        W 1562  31.610  15.727  19.274  0.0857 -0.0089  0.4433
58572W        W 1563   6.747   5.602  21.974 -0.1403 -0.1684  0.2331
58573W        W 1564  20.955  12.036  15.634  0.0085 -0.0390  0.0515
58574W        W 1565  14.589  10.352  25.589  0.1026  0.0042 -0.0007
58575W        W 1566  21.945  22.366  15.122  0.1226 -0.0134 -0.0549
58576W        W 1567   8.358  17.913  15.936  0.2993  0.0328  0.2049
58577W        W 1568   7.917  21.424  14.545 -0.1888 -0.0945 -0.1938
58578W        W 1569  19.735   9.566  17.263  0.0543  0.0235 -0.3664
58579W        W 1570  19.593  34.555  17.054 -0.1661 -0.0320 -0.1200
58580W        W 1571   7.819  18.136  16.090 -0.1538  0.1294 -0.0467
58581W        W 1572  19.620  30.001  27.119  0.0021  0.0699 -0.1243
58582W        W 1573  33.904   5.128   6.320  0.2874  0.0417  0.0554
58583W        W 1574  20.805  13.521  17.251 -0.1512 -0.0802 -0.0176
58584W        W 1575  14.163  28.800   2.555 -0.2093 -0.2863 -0.0944
58585W        W 1576  19.362  30.329  14.773 -0.1007 -0.1237  0.0628
58586W        W 1577  13.454  24.484  14.696  0.0815  0.3114 -0.1695
58587W        W 1578  18.762  10.206  19.647  0.0913  0.1110 -0.1512
58588W        W 1579  12.246   1.571  17.330  0.0724 -0.0581  0.2037
58589W        W 1580  32.372  25.012  26.056 -0.3280  0.0307 -0.1037
58590W        W 1581  20.313  11.174   2.617  0.2387  0.0366  0.0283
58591W        W 1582  19.824  18.842  11.883 -0.2361  0.0313  0.2024
58592W        W 1583  33.410   7.748  27.130 -0.1488  0.0546  0.1109
58593W        W 1584  14.827  15.548  23.214 -0.0293  0.2712  0.4612
58594W        W 1585  24.903  29.627   3.511 -0.0768  0.2492 -0.0063
58595W        W 1586  15.522   8.639  22.794 -0.0061 -0.2759  0.2744
58596W        W 1587   2.260  24.375  15.086 -0.1544 -0.0791  0.0888
58597W        W 1588   2.566  15.322   2.075  0.1190  0.1210  0.0867
58598W        W 1589   4.839  27.340  25.776  0.1427  0.3083  0.0471
58599W        W 1590  17.822  24.252  21.406 -0.1160  0.2402  0.5341
58600W        W 1591  25.866  25.400  20.434  0.2754 -0.1162 -0.0721
58601W        W 1592   5.452  10.072  24.114  0.2033 -0.0796 -0.3772
58602W        W 1593   4.417  18.357   0.158  0.1113  0.1135 -0.1329
58603W        W 1594  10.084  27.454  14.040  0.1622 -0.1037 -0.0881
58604W        W 1595  19.077  26.637   0.962  0.1908 -0.1102 -0.0030
58605W        W 1596  16.078  23.029  15.920 -0.1478 -0.0912 -0.1877
58606W        W 1597   7.967  12.513  24.877 -0.4971 -0.1806  0.1226
58607W        W 1598   7.278  15.151  16.704 -0.2288 -0.1889  0.0301
58608W        W 1599  20.247  20.666  19.319  0.0460 -0.0974  0.0978
58609W        W 1600  14.583  33.545  16.248  0.2484  0.1138 -0.1899
58610W        W 1601   3.580  23.188   3.824  0.1757  0.3066 -0.0627
58611W        W 1602  18.747  31.494  15.883 -0.1611 -0.2208 -0.1553
58612W        W 1603  22.785   9.177  16.153  0.2211  0.1053  0.0679
58613W        W 1604   6.932  16.060  17.406 -0.1032 -0.0947 -0.0355
58614W        W 1605   9.847  21.161  25.189 -0.0272  0.1127 -0.0666
58615W        W 1606  11.638  15.694  19.711  0.1221 -0.1613  0.3881
58616W        W 1607   6.309  22.976  18.307  0.0364  0.0678 -0.1820
58617W        W 1608   6.197  13.902  22.764  0.3502  0.0341 -0.2694
58618W        W 1609   5.764  33.103  19.593 -0.0988 -0.0783 -0.3038
58619W        W 1610  10.777   1.108  15.952  0.0728 -0.2093  0.1086
58620W        W 1611   6.217  18.683  18.586  0.1613  0.2139 -0.0072
58621W        W 1612  12.092   9.116  19.882 -0.0436 -0.1156 -0.2315
58622W        W 1613  22.711  16.293  15.944  0.4277 -0.0829 -0.0543
58623W        W 1614  26.447  20.101  25.274 -0.0485 -0.1810 -0.1545
58624W        W 1615   9.464  16.204  26.582  0.0185 -0.0128 -0.3239
58625W        W 1616  24.070  30.067  18.368 -0.2505  0.1460  0.1602
58626W        W 1617  17.527  22.094  20.868  0.1478 -0.1300  0.1088
58627W        W 1618  14.479  10.338  18.462 -0.2283 -0.4317 -0.1886
58628W        W 1619  30.340  16.358  20.930  0.1175 -0.1049  0.1449
58629W        W 1620  12.325  20.624  22.662  0.0857 -0.2446 -0.0731
58630W        W 1621  19.619  16.892  15.637  0.0024  0.1825 -0.0720
58631W        W 1622   8.293  25.842  15.842 -0.2241  0.0057 -0.5101
58632W        W 1623   7.750  14.152  28.020  0.0521 -0.1029 -0.1475
58633W        W 1624  19.421  14.626  22.599  0.1114 -0.2020  0.2885
58634W        W 1625   7.758  30.246   5.014 -0.1115  0.2019 -0.0689
58635W        W 1626  12.793   9.570   1.832 -0.0574 -0.2399  0.3926
58636W        W 1627   5.725   6.915  16.208 -0.1631 -0.5452 -0.1264
58637W        W 1628  18.322  11.386  21.599 -0.0433  0.3840  0.1863
58638W        W 1629  11.608  34.123  20.696 -0.0122 -0.0113  0.0625
58639W        W 1630   2.020  34.245  27.630  0.1934  0.1251  0.2877
58640W        W 1631  17.895  26.865  14.858 -0.0966  0.1573  0.0602
58641W        W 1632  15.650  27.193  17.554  0.1077 -0.3367 -0.1105
58642W        W 1633  22.690  15.016  17.168  0.1557  0.3910 -0.1530
58643W        W 1634   3.589   9.111  17.306 -0.1666  0.0420  0.0756
58644W        W 1635  15.255   9.391  25.155 -0.1043  0.0825  0.0746
58645W        W 1636  12.436  17.637  21.902 -0.4331  0.1292 -0.1789
58646W        W 1637   3.542  22.746  22.358 -0.0697 -0.0215  0.4317
58647W        W 1638  18.855  29.881  25.593  0.1942 -0.0948  0.2693
58648W        W 1639  34.549  30.527   0.283  0.0402 -0.1141  0.0873
58649W        W 1640   5.337  32.640   0.330 -0.1453 -0.1567  0.0690
58650W        W 1641   8.219   6.598  27.579  0.2547 -0.1687  0.0474
58651W        W 1642  26.369  17.273  18.959 -0.0391 -0.1661  0.2649
58652W        W 1643  29.578   7.190   0.856 -0.0061 -0.3156 -0.3007
58653W        W 1644   5.194  13.672  15.983 -0.1202  0.1665  0.1438
58654W        W 1645  14.165  23.041  15.481  0.0499  0.1995 -0.0806
58655W        W 1646  29.171  28.580  16.849  0.1889  0.0598  0.1678
58656W        W 1647   8.150  27.196   1.079  0.1674 -0.0228 -0.1959
58657W        W 1648   7.151   2.506  28.273 -0.0123 -0.4847  0.2069
58658W        W 1649  26.527  11.783  13.398  0.0046  0.0254 -0.3408
58659W        W 1650   7.712  12.452  23.532 -0.3024 -0.0838  0.0221
58660W        W 1651  13.233   6.791  15.328  0.0635  0.1802 -0.2263
58661W        W 1652   9.985   8.258  14.975 -0.1272 -0.0831  0.1485
58662W        W 1653  10.620  24.317   0.829 -0.2896  0.0688  0.2169
58663W        W 1654  14.139  27.702  13.644 -0.0112 -0.0110  0.1089
58664W        W 1655  23.991  31.622   8.728 -0.0829  0.0049  0.2127
58665W        W 1656  22.796  19.529  14.628 -0.1414 -0.0373 -0.0544
58666W        W 1657  17.434  27.080  18.502  0.4241 -0.0797  0.0327
58667W        W 1658  22.420  19.399  13.439  0.2857 -0.0119  0.1779
58668W        W 1659   8.035  26.428  24.528  0.1923  0.0442  0.2909
58669W        W 1660   9.853  15.138  22.731  0.0709  0.2020 -0.0933
58670W        W 1661  10.250   7.187  15.270  0.2965 -0.1194 -0.1279
58671W        W 1662   5.491  12.108  20.215  0.0676  0.0680  0.2913
58672W        W 1663   0.966  28.495  20.588 -0.2851  0.2246 -0.1425
58673W        W 1664  29.530  15.992  23.477  0.0881 -0.4135  0.0345
58674W        W 1665  12.971  20.200  21.742 -0.1014 -0.3884 -0.3589
58675W        W 1666  21.551   7.595  13.967  0.4571 -0.2265  0.1490
58676W        W 1667   6.371   8.953  27.236 -0.2781  0.0104 -0.1040
58677W        W 1668   6.916  14.997  15.531  0.1362  0.2418 -0.2679
58678W        W 1669   5.530   3.675   5.256  0.0450 -0.6061 -0.2663
58679W        W 1670   1.377  22.696  19.539 -0.2069  0.1632  0.1389
58680W        W 1671  31.338   8.835  19.136  0.1589 -0.1553 -0.4187
58681W        W 1672  14.622  30.545  20.648 -0.1517 -0.0123 -0.1433
58682W        W 1673   7.520  21.358  22.117  0.0049 -0.0747  0.2255
58683W        W 1674  17.402  15.707  11.667  0.3250 -0.0945 -0.3381
58684W        W 1675  13.092   4.034  22.288 -0.2679 -0.0639  0.1849
58685W        W 1676  14.230  10.144  23.252  0.1146  0.0722  0.0603
58686W        W 1677  32.748  20.291  14.686  0.0793  0.0888  0.1213
58687W        W 1678   6.030   4.975  15.168  0.0614 -0.1451  0.0248
58688W        W 1679   6.728   3.079  26.543 -0.2809 -0.1832  0.1642
58689W        W 1680  16.626  13.198  22.472  0.0490 -0.1291  0.2415
58690W        W 1681  19.897   4.237  26.174  0.1437 -0.1386  0.1646
58691W        W 1682   5.257  11.110  20.874  0.0078 -0.1206  0.0952
58692W        W 1683  11.313  22.672  16.254 -0.0868  0.1308  0.0430
58693W        W 1684  31.035  12.405  20.282 -0.0800  0.0431 -0.0702
58694W        W 1685  15.790  30.501  17.552  0.1180 -0.3455 -0.1952
58695W        W 1686   9.400  33.329  23.928  0.1683 -0.0162  0.0056
58696W        W 1687  11.452  20.435  22.351 -0.1577  0.1948 -0.1406
58697W        W 1688  16.673  31.780  20.911  0.0826  0.0464  0.2272
58698W        W 1689  24.494  27.892  24.536  0.1596  0.1896  0.0152
58699W        W 1690  16.246  21.561  15.347  0.0512 -0.0860 -0.1476
58700W        W 1691  27.511  20.767  17.091 -0.0152 -0.3771  0.2643
58701W        W 1692   8.853  16.511  17.590 -0.1112  0.0542  0.2651
58702W        W 1693   0.069  25.622  17.674  0.2599 -0.1699  0.2308
58703W        W 1694   2.312  18.917  17.491  0.0146  0.0846 -0.0628
58704W        W 1695  18.899  30.383  16.859  0.0101 -0.2153 -0.3883
58705W        W 1696   6.004   6.498   4.242 -0.0265 -0.4845 -0.1766
58706W        W 1697  23.317  33.866  17.195 -0.0408  0.0288 -0.1334
58707W        W 1698  18.636   9.921  14.326  0.0811  0.1646 -0.2542
58708W        W 1699   6.465   4.901  14.754 -0.0116 -0.4846  0.3020
58709W        W 1700   7.744  29.371  20.536 -0.0778 -0.0900 -0.0099
58710W        W 1701  15.238  13.779  27.398 -0.1701 -0.0196 -0.1539
58711W        W 1702  24.083  23.269  20.889 -0.1634  0.0608  0.2566
58712W        W 1703   1.025   6.861  21.984 -0.0591 -0.0595  0.2222
58713W        W 1704  19.168  23.960  28.002  0.0527  0.1713 -0.1824
58714W        W 1705  25.441  18.765  20.480 -0.0604  0.3169 -0.4180
58715W        W 1706  10.138  26.614   5.139 -0.1776  0.2011 -0.1743
58716W        W 1707  20.145  18.649  25.323 -0.1206  0.2949 -0.0935
58717W        W 1708  34.122  23.641  16.097  0.0013  0.0027  0.4673
58718W        W 1709  33.611  22.582  16.538  0.0149  0.1646 -0.1415
58719W        W 1710  14.496  13.574   5.350  0.2366  0.2379  0.0926
58720W        W 1711  12.555   8.764  25.697  0.0778  0.3376  0.1666
58721W        W 1712  20.721  12.089  20.906 -0.1309  0.1301  0.2788
58722W        W 1713  21.386  10.452  22.200 -0.3627 -0.3778 -0.0280
58723W        W 1714  10.792  20.732  14.333  0.1831 -0.1816 -0.0018
58724W        W 1715  11.111  19.630  14.775  0.0789 -0.0055 -0.2947
58725W        W 1716  28.859  11.638  19.750  0.0929  0.3336  0.0288
58726W        W 1717   2.122  28.133  17.505  0.2628  0.2097  0.1196
58727W        W 1718   4.278  23.987  28.325 -0.1800 -0.1664  0.3171
58728W        W 1719   5.964  14.594  20.752  0.1489  0.2123 -0.0449
58729W        W 1720   5.968  32.153  15.052 -0.0856  0.0815 -0.0912
58730W        W 1721   1.081   1.115   0.312  0.2679 -0.1428  0.3306
58731W        W 1722   2.736  30.613  20.377  0.0805 -0.2859 -0.0340
58732W        W 1723  14.630  11.900  22.466  0.1343 -0.2112 -0.1439
58733W        W 1724  19.669   8.569  23.009  0.0866 -0.0542  0.2416
58734W        W 1725  19.659  22.383  15.923  0.0628 -0.2944 -0.1322
58735W        W 1726  26.404  27.041  13.845 -0.0728  0.0447  0.0027
58736W        W 1727  16.754   8.809  23.128  0.1892 -0.0584 -0.1020
58737W        W 1728  14.086  20.153  14.970  0.0236  0.0844 -0.1169
58738W        W 1729  26.220  13.331  14.999 -0.0463 -0.0067 -0.0260
58739W        W 1730  10.499  20.036  26.957 -0.0845  0.1028 -0.1773
58740W        W 1731  14.953  10.454  23.729  0.0956 -0.3067 -0.0633
58741W        W 1732  31.730  32.075   3.018 -0.3596 -0.2147  0.0833
58742W        W 1733  28.908  16.803   7.140  0.1550 -0.2659 -0.0140
58743W        W 1734   3.375  24.672  27.773  0.0928  0.2205  0.3234
58744W        W 1735  28.774  15.681  19.066 -0.4839 -0.3037  0.1218
58745W        W 1736   4.666   9.499  16.628 -0.0060 -0.2314 -0.0401
58746W        W 1737   8.520  10.960   8.156  0.1662  0.1038  0.3551
58747W        W 1738  16.290  13.087  15.885  0.0739 -0.0426  0.1073
58748W        W 1739   6.587  12.112  17.181  0.0321 -0.0137  0.0956
58749W        W 1740  18.368   3.443  16.379 -0.1442  0.2960 -0.0971
58750W        W 1741   1.965  17.529   7.439  0.2031 -0.3785  0.0210
58751W        W 1742  14.153  27.401  24.381 -0.0510 -0.0097 -0.0047
58752W        W 1743  33.988  15.961  25.533  0.1661 -0.0324 -0.1834
58753W        W 1744   5.959  25.322  15.287 -0.3910  0.0665 -0.0143
58754W        W 1745  20.943  25.233  27.578  0.2665 -0.2523 -0.1731
58755W        W 1746  19.416  12.609  18.210 -0.2332  0.0649 -0.2763
58756W        W 1747   7.903  18.702  16.223  0.4988  0.4885 -0.1133
58757W        W 1748  11.630  34.465  14.883  0.1308  0.0958  0.0147
58758W        W 1749  14.713  24.758  19.110  0.2894 -0.0659 -0.0342
58759W        W 1750   7.179  23.025  25.217  0.3550  0.1593  0.1647
58760W        W 1751  15.767  17.233  24.852  0.2311  0.3242 -0.0432
58761W        W 1752   9.068  27.178  16.158  0.0887 -0.4469 -0.0245
58762W        W 1753   2.320   1.465  18.153  0.1069  0.1043  0.0075
58763W        W 1754   7.269  22.241  15.013  0.4693 -0.2357 -0.3206
58764W        W 1755  13.142  28.267   0.896  0.0218  0.0804 -0.1575
58765W        W 1756   7.383  11.609  14.775 -0.0716 -0.0796 -0.0442
58766W        W 1757   4.055  19.646  25.228 -0.1979  0.1044 -0.1608
58767W        W 1758   4.761   0.711  16.081  0.0922  0.2210  0.2945
58768W        W 1759   9.430   5.998  22.307 -0.1033  0.2349 -0.0173
58769W        W 1760  11.878  24.695  18.292 -0.0266 -0.1014 -0.0399
58770W        W 1761   3.200  31.166  18.835  0.0263 -0.0494 -0.0901
58771W        W 1762   9.661  20.978   7.455  0.1229  0.2265 -0.1870
58772W        W 1763   4.856  28.336  16.608 -0.2821 -0.2496  0.2815
58773W        W 1764   1.766   1.870  16.503 -0.0329  0.0141  0.1241
58774W        W 1765  10.615   7.592  22.593 -0.2093  0.0647  0.1217
58775W        W 1766  18.225  10.546  19.058 -0.1801  0.2246 -0.0538
58776W        W 1767   6.213  26.384  26.796 -0.0064  0.0287  0.0297
58777W        W 1768  12.142  14.780  26.530  0.0706 -0.1009  0.0949
58778W        W 1769  13.196   4.625  29.016  0.0410 -0.2926 -0.0992
58779W        W 1770  15.112  13.410  16.696 -0.2878  0.0673 -0.3354
58780W        W 1771  14.979  17.317  22.794  0.1540  0.0295 -0.0816
58781W        W 1772  19.085  25.219  20.202 -0.0326 -0.0876  0.3210
58782W        W 1773   1.216   5.939   7.318  0.0597 -0.1704 -0.3275
58783W        W 1774  10.986  18.499  24.016 -0.0653 -0.1053  0.3788
58784W        W 1775  12.589  13.040  21.893  0.0508 -0.0729  0.0773
58785W        W 1776  31.679   5.012  24.079 -0.0038 -0.1785 -0.0077
58786W        W 1777   5.319  31.896  24.360  0.1120 -0.0367  0.0263
58787W        W 1778   5.419  12.462  16.241 -0.0219 -0.1690  0.0337
58788W        W 1779  20.692  34.737  15.833  0.6290 -0.3468 -0.1085
58789W        W 1780  19.647  21.609  22.343 -0.1679  0.4599 -0.4544
58790W        W 1781  26.491  21.989  16.767  0.1034  0.0671 -0.0529
58791W        W 1782  10.448   4.132   1.967 -0.0737 -0.0716  0.0840
58792W        W 1783  23.015  20.707  20.499 -0.4629  0.0682  0.1143
58793W        W 1784   8.341  23.873  22.250 -0.1341 -0.2776  0.1011
58794W        W 1785  23.367   1.487   0.569  0.2538  0.0293 -0.0754
58795W        W 1786   1.792   4.514   7.642  0.1258 -0.0258 -0.0597
58796W        W 1787   2.955  19.158   0.130  0.1555  0.2835 -0.0451
58797W        W 1788   0.511  14.356  23.973 -0.5018  0.0826  0.1524
58798W        W 1789   4.389  30.781  17.176  0.0800 -0.2539  0.2133
58799W        W 1790  27.911  29.532  17.883  0.0498  0.3498 -0.1650
58800W        W 1791  21.414   4.864   1.551  0.1982 -0.1340  0.2804
58801W        W 1792  15.472  21.276  25.708 -0.3439 -0.1604  0.3572
58802W        W 1793   4.751  34.517  16.214 -0.0932  0.0003  0.0312
58803W        W 1794  17.645  13.566  24.163  0.0304 -0.5421 -0.2915
58804W        W 1795   3.235   2.790   1.970 -0.1244  0.1033  0.2853
58805W        W 1796  17.135  30.822  17.236 -0.0616 -0.2102  0.1888
58806W        W 1797  19.059   5.875  17.133  0.1285  0.3658 -0.3546
58807W        W 1798   9.093   5.012  15.135 -0.1014 -0.1809 -0.0452
58808W        W 1799  14.739  21.034  17.196  0.0836  0.0983 -0.2430
58809W        W 1800  15.764  21.586   5.236  0.1554  0.1734  0.0530
58810W        W 1801  19.465  27.508  17.733  0.0206  0.0830 -0.2596
58811W        W 1802  32.637  30.484  14.101  0.2721 -0.1970 -0.0423
58812W        W 1803  17.599  26.138  13.058 -0.1219 -0.1388 -0.3859
58813W        W 1804  14.048  30.792  23.760 -0.0738 -0.3356 -0.0633
58814W        W 1805  25.161  32.392  17.490  0.1131 -0.1378 -0.0917
58815W        W 1806  29.986   0.579  19.905 -0.0523  0.0683 -0.1764
58816W        W 1807  34.315   9.311  21.827  0.2233 -0.1824 -0.0237
58817W        W 1808  24.312  24.859  28.238 -0.1214 -0.2256 -0.3607
58818W        W 1809  15.543   4.216  24.387 -0.4272 -0.0199  0.1108
58819W        W 1810  12.191   4.652   0.768 -0.1462  0.1600  0.2647
58820W        W 1811  19.201  14.964  15.595  0.1101  0.0221 -0.0348
58821W        W 1812  32.068   7.442  23.613 -0.0117  0.2123  0.0995
58822W        W 1813   6.182   6.937  29.131  0.4704 -0.0715 -0.0378
58823W        W 1814  15.629   9.371  15.335 -0.0758 -0.1103 -0.1049
58824W        W 1815  29.377  13.618  14.795  0.0243 -0.2018 -0.0405
58825W        W 1816   7.162   8.225  27.277 -0.0147  0.1095 -0.2805
58826W        W 1817   8.112  10.635   5.498  0.0156  0.0540  0.0787
58827W        W 1818  11.408  18.170  26.936 -0.0841  0.1174 -0.1214
58828W        W 1819  10.938   8.983  27.485  0.0789  0.2231 -0.0820
58829W        W 1820   8.239   6.159  25.109 -0.1568 -0.0503  0.2116
58830W        W 1821  16.810  16.728  26.926  0.0017 -0.0203 -0.0789
58831W        W 1822   8.036  26.313  15.866  0.0080 -0.0139  0.2596
58832W        W 1823  12.032  20.964  17.643  0.2863 -0.0273 -0.0910
58833W        W 1824  22.708  34.231  14.947 -0.0376  0.0339 -0.2565
58834W        W 1825  14.817   2.451  23.247 -0.1712  0.0140  0.2782
58835W        W 1826   9.759  24.322   5.705 -0.3272 -0.3640  0.2987
58836W        W 1827  31.719  13.768  25.228  0.1366  0.1603 -0.3465
58837W        W 1828  20.066  13.669  27.178 -0.1829  0.3234 -0.2410
58838W        W 1829  18.621   7.337  26.904 -0.0584  0.3442 -0.2541
58839W        W 1830  11.553  30.836  16.132 -0.2113  0.0766  0.2232
58840W        W 1831  19.910   9.552  23.932  0.2210  0.1253  0.2214
58841W        W 1832  10.773  12.843  19.766 -0.1106 -0.1114 -0.1971
58842W        W 1833  17.573  31.027  19.922 -0.4344  0.0008  0.1161
58843W        W 1834  30.036   7.972  16.382  0.0596  0.0680 -0.5299
58844W        W 1835  14.471  14.097  13.769  0.0473 -0.1057 -0.0396
58845W        W 1836  16.579  16.495  13.877 -0.2657 -0.0487  0.1322
58846W        W 1837  15.148  14.075  13.694 -0.0230  0.0922  0.2827
58847W        W 1838  30.016  16.490  14.629  0.3684  0.2396  0.1504
58848W        W 1839  19.217  13.502  13.122  0.0625  0.0708 -0.3753
58849W        W 1840  24.245  16.904  14.160 -0.0304  0.1219 -0.3432
58850W        W 1841  10.561  15.983  14.584 -0.0216  0.0477  0.2716
58851W        W 1842  25.947  11.926   0.109 -0.1722  0.2286 -0.2338
58852W        W 1843  12.470  33.368   5.229  0.1727 -0.1221  0.2887
58853W        W 1844  23.582  21.396   3.682 -0.0920 -0.0552  0.1146
58854W        W 1845  13.045  17.268  19.336 -0.2327 -0.0829 -0.1017
58855W        W 1846  19.768  13.219  20.375  0.1558  0.2919 -0.1069
58856W        W 1847  22.192   4.460  25.660 -0.2696 -0.0092 -0.2510
58857W        W 1848   9.822  14.277   8.440  0.0821  0.0279 -0.2415
58858W        W 1849   4.177  16.368  17.968  0.1908 -0.0500  0.2878
58859W        W 1850  32.963  25.547  19.687  0.0642  0.1888 -0.0333
58860W        W 1851  27.233  21.013  17.591 -0.1684 -0.0037  0.0084
58861W        W 1852  28.060   9.344  16.591  0.1201 -0.0923  0.2153
58862W        W 1853   0.132  22.782  26.865 -0.2150 -0.0159  0.0710
58863W        W 1854  14.038  27.626   1.527 -0.0682 -0.0260 -0.1022
58864W        W 1855   2.983  19.921  27.670 -0.0992 -0.1675 -0.2644
58865W        W 1856   6.920  21.918  25.198 -0.0588  0.1985  0.2451
58866W        W 1857   8.785  12.627  15.262  0.0822  0.2865 -0.0924
58867W        W 1858  11.203  11.954  19.477 -0.0040 -0.2261  0.1865
58868W        W 1859   6.179  26.424  27.402 -0.1465  0.3465  0.0763
58869W        W 1860  16.659   4.828  14.125  0.0074 -0.2065 -0.0252
58870W        W 1861  10.450  15.581  20.507  0.1214 -0.1253 -0.1712
58871W        W 1862  12.200  26.254  28.961  0.0098  0.2631 -0.1087
58872W        W 1863  22.242   0.409  24.069 -0.0255 -0.2627  0.1142
58873W        W 1864   5.451  34.109   1.266  0.1557 -0.2154  0.0616
58874W        W 1865  29.306  19.559  17.198 -0.2355  0.1508 -0.2022
58875W        W 1866   5.991  16.255  17.851 -0.0081 -0.3073 -0.0078
58876W        W 1867  10.877  13.315  17.877 -0.2166 -0.0024  0.1995
58877W        W 1868  16.575  21.768  14.294 -0.1072 -0.2007 -0.0959
58878W        W 1869   3.609  10.827   0.256  0.1958  0.0769  0.0180
58879W        W 1870   3.774  20.471  27.682  0.1745 -0.0216  0.3993
58880W        W 1871   3.480  30.733   9.318  0.2670 -0.1245  0.1521
58881W        W 1872  19.027  21.685  12.495  0.0771 -0.1177 -0.1079
58882W        W 1873  20.763  20.231  27.443  0.2492 -0.2886  0.4549
58883W        W 1874   9.457  20.698  15.668  0.2154  0.2936  0.1706
58884W        W 1875   3.838  19.047  15.042 -0.0468 -0.2362 -0.2096
58885W        W 1876  13.192  17.012  17.081  0.3071  0.1351 -0.1705
58886W        W 1877  25.065  19.759   9.030 -0.0009  0.3854  0.3904
58887W        W 1878  24.491  23.489  17.643 -0.4032  0.0813 -0.2249
58888W        W 1879   5.953  29.642  14.413 -0.0657  0.2816  0.0217
58889W        W 1880  10.905  17.183  16.590  0.2462 -0.1221 -0.1617
58890W        W 1881  11.719  16.330   1.358 -0.0270  0.1127 -0.1381
58891W        W 1882  17.028  31.008  20.004  0.1495  0.1231  0.3851
58892W        W 1883   9.199  23.207  20.777 -0.2350 -0.0718  0.1702
58893W        W 1884   9.850  31.729  20.131 -0.1662 -0.1925 -0.2974
58894W        W 1885   7.143   9.278  18.693  0.3271 -0.1194 -0.0102
58895W        W 1886   0.794  31.530  27.560 -0.1143 -0.0155 -0.2336
58896W        W 1887  13.087  10.915  28.201  0.2209  0.1559 -0.0301
58897W        W 1888  10.454  13.286  19.690  0.2685  0.0384  0.0642
58898W        W 1889  32.263   6.746  23.516  0.0794 -0.1405 -0.0026
58899W        W 1890  16.033   2.020  23.408 -0.1388  0.0471  0.1340
58900W        W 1891  11.790  11.644  17.764 -0.1299  0.0912 -0.3814
58901W        W 1892   3.371  14.812   0.972 -0.1504  0.3182 -0.1192
58902W        W 1893  19.153  13.235  24.074  0.2506  0.0495  0.1209
58903W        W 1894   4.707  11.309   1.116  0.1257 -0.0932  0.0370
58904W        W 1895  30.929  20.473  18.558 -0.1136 -0.1082  0.2702
58905W        W 1896  14.385  11.259   9.364 -0.0672  0.5307 -0.1310
58906W        W 1897  13.092  21.704  24.634  0.0647  0.2324 -0.0687
58907W        W 1898   3.013  16.112  18.754 -0.1336 -0.1016 -0.3519
58908W        W 1899   0.864  23.797   2.758  0.2082  0.0881 -0.1814
58909W        W 1900  18.875  28.314  20.004 -0.2942 -0.0509 -0.0376
58910W        W 1901   0.135   5.933   6.143 -0.2063  0.0322  0.0109
58911W        W 1902  13.651   1.955  23.467  0.0069  0.1617  0.1390
58912W        W 1903  14.212  13.039  19.218  0.0590  0.2555  0.2063
58913W        W 1904  25.332  15.196  25.742 -0.3848 -0.0513  0.0768
58914W        W 1905   8.524  33.799  15.176  0.2437  0.0060  0.2851
58915W        W 1906  15.536   8.448  17.539 -0.2868  0.2422  0.5072
58916W        W 1907   4.312  28.720  24.518  0.1295  0.1669  0.0164
58917W        W 1908   9.764  11.085   4.799 -0.0108  0.0912  0.0361
58918W        W 1909   0.217   7.279  20.984 -0.3386 -0.0709  0.1398
58919W        W 1910   7.753  18.042  20.599  0.0778  0.2202  0.0729
58920W        W 1911   6.603  12.953  20.497  0.1279 -0.0420 -0.1336
58921W        W 1912   8.852  34.156  23.005  0.0289  0.3677 -0.1864
58922W        W 1913  13.271  32.782  20.517 -0.0144  0.1015 -0.0978
58923W        W 1914  11.779  19.805  23.504 -0.0398 -0.1869 -0.0415
58924W        W 1915  34.236  25.101  16.988 -0.1370  0.1446  0.1060
58925W        W 1916  16.802   1.671  20.369  0.1559  0.2625  0.1768
58926W        W 1917  11.981  28.251  22.704 -0.0600 -0.0318 -0.4924
58927W        W 1918   7.971  15.224   1.969  0.0667  0.0009 -0.1589
58928W        W 1919   2.633  15.476  26.092 -0.5003 -0.0666  0.0868
58929W        W 1920  20.785  29.973  15.752 -0.0054 -0.2274 -0.1123
58930W        W 1921  25.916  12.932  25.004  0.2117 -0.5640  0.0032
58931W        W 1922   3.550  26.103  28.599  0.0092 -0.1751 -0.0503
58932W        W 1923  17.516  16.910  15.030 -0.3740  0.1190 -0.1427
58933W        W 1924  29.407  30.049  14.924  0.1023 -0.1159  0.1699
58934W        W 1925  15.783  34.343  19.769 -0.0001 -0.0414 -0.0446
58935W        W 1926  25.811   4.957  13.343 -0.0744  0.4239 -0.0580
58936W        W 1927   7.802  30.290  18.452  0.2479  0.5327 -0.0861
58937W        W 1928  25.751  12.879  23.668 -0.3336 -0.0150  0.0286
58938W        W 1929   6.090  14.624   4.092 -0.0364 -0.0400  0.1949
58939W        W 1930   7.600  19.233  24.653  0.0614  0.2495 -0.2646
58940W        W 1931  24.608  18.699  18.412 -0.0027  0.2568  0.0088
58941W        W 1932  21.620  16.961  26.224  0.0460  0.1599 -0.1666
58942W        W 1933   2.456  10.931  28.686 -0.2882  0.1943  0.4300
58943W        W 1934  16.783   2.204  16.480  0.2019  0.2345  0.2087
58944W        W 1935  18.015   8.313  21.457  0.0021  0.0768  0.0817
58945W        W 1936   7.347  24.162   0.356  0.5030 -0.4284  0.0549
58946W        W 1937  15.096  13.569  14.032  0.2219 -0.0276 -0.2629
58947W        W 1938  11.337  10.734  20.178 -0.0736 -0.1700 -0.1582
58948W        W 1939  19.764  19.527   4.648 -0.1539 -0.0216 -0.1219
58949W        W 1940  17.107   5.180  20.383 -0.2567  0.0520 -0.2218
58950W        W 1941  10.184   6.251  18.041 -0.0999 -0.0433  0.2521
58951W        W 1942   2.234  31.867   3.627 -0.1951 -0.2014  0.2038
58952W        W 1943   5.936  34.445  19.338  0.1269 -0.1052  0.0829
58953W        W 1944   8.418  27.667  24.201  0.1789  0.2139 -0.0900
58954W        W 1945  22.129  22.247  18.461  0.1549  0.2687  0.0199
58955W        W 1946  11.374  16.258   3.687 -0.0065 -0.2666  0.4129
58956W        W 1947  10.260  16.604  28.925 -0.0796  0.1644 -0.1255
58957W        W 1948   7.002  25.449  23.986  0.0928  0.1845 -0.2324
58958W        W 1949   0.122  22.267  25.732 -0.1800  0.1399  0.1019
58959W        W 1950  14.809  17.420   8.030 -0.2529  0.0368 -0.1188
58960W        W 1951  23.520  31.151  14.328  0.0231  0.2153  0.2363
58961W        W 1952  12.633  10.358   4.201  0.1830  0.0858  0.1812
58962W        W 1953   5.702  30.450  25.180 -0.1858 -0.0411 -0.0529
58963W        W 1954  12.485  22.515   3.098  0.0772  0.2409 -0.0720
58964W        W 1955   9.136  20.024  28.584  0.2491  0.3230  0.1660
58965W        W 1956  26.793  12.642   6.096  0.1525  0.0511  0.0000
58966W        W 1957   8.506   8.619   2.634 -0.2029 -0.0424  0.2313
58967W        W 1958  20.832  18.996   2.619 -0.0928 -0.0265 -0.2946
58968W        W 1959  10.700  19.033  24.070  0.0471 -0.2305  0.1557
58969W        W 1960  10.439  27.440   4.931  0.1443  0.0597  0.4006
58970W        W 1961  19.384  12.629  12.942  0.0406  0.1134 -0.1271
58971W        W 1962   6.848  21.726  25.653 -0.4860  0.0982  0.0269
58972W        W 1963   8.607  10.765   0.322  0.0089 -0.0022 -0.1661
58973W        W 1964  14.388  21.908  18.834  0.0360 -0.2051  0.1213
58974W        W 1965  21.577   7.402  20.187  0.0617  0.0320 -0.1249
58975W        W 1966   4.231  11.107  20.576 -0.2205  0.3674  0.0917
58976W        W 1967  19.264  11.440  14.762 -0.1268 -0.0172 -0.0328
58977W        W 1968  12.053  22.035  17.060 -0.3043  0.0579  0.0217
58978W        W 1969  24.930  29.855  23.482 -0.1300 -0.1089 -0.0441
58979W        W 1970   8.659  28.575  16.507  0.1390 -0.0099  0.1036
58980W        W 1971  19.545  19.677  15.536 -0.0643  0.2356  0.0412
58981W        W 1972  12.016   5.180  23.306 -0.3503 -0.0857 -0.0409
58982W        W 1973   4.911  21.826  20.673 -0.0312  0.0283  0.1519
58983W        W 1974   9.689  21.267  17.689 -0.2690 -0.2099  0.0265
58984W        W 1975   6.751  15.982  14.698 -0.2279  0.0138  0.1822
58985W        W 1976  26.604  15.985  15.050 -0.4610  0.0871  0.0130
58986W        W 1977  12.379  27.279  20.953 -0.0897  0.0335 -0.0289
58987W        W 1978  17.151  21.237  23.392 -0.2570 -0.1651 -0.1218
58988W        W 1979   3.111  18.170  20.018 -0.0144  0.1292  0.0776
58989W        W 1980   9.484  10.683  25.737  0.0177  0.2896 -0.4037
58990W        W 1981  17.155  26.976  15.983  0.2491 -0.1632  0.0253
58991W        W 1982  13.105  14.478  27.400  0.1424  0.3951 -0.3746
58992W        W 1983  22.801  28.673  18.432  0.0284  0.2164  0.0597
58993W        W 1984  19.624   0.384   5.669 -0.0855 -0.1284  0.2110
58994W        W 1985  30.293  28.847  28.375 -0.1437 -0.0451 -0.3335
58995W        W 1986   1.357  28.504  25.361  0.0723 -0.3614 -0.0656
58996W        W 1987  25.102  13.185  14.223  0.2319 -0.0400 -0.0708
58997W        W 1988  17.587  20.880  19.606  0.1047 -0.0658 -0.1644
58998W        W 1989  21.361  11.137  12.944  0.0046 -0.1142 -0.0249
58999W        W 1990   7.222  28.217  17.479 -0.0839 -0.0532 -0.1134
59000W        W 1991  13.668  19.075  17.316  0.1880  0.3122 -0.0532
59001W        W 1992  24.786  16.765  17.506 -0.0530 -0.2761  0.1321
59002W        W 1993   3.207  23.342  19.349  0.1385  0.0491  0.0802
59003W        W 1994  20.177  22.978  14.346 -0.0434 -0.0935  0.0491
59004W        W 1995  11.425  19.086  17.241 -0.0934  0.0133 -0.0625
59005W        W 1996  10.413  10.836   0.910 -0.2940  0.0976  0.3608
59006W        W 1997  31.614   3.785   7.229  0.0011  0.3029  0.1447
59007W        W 1998   8.471  21.991  16.462  0.2433 -0.3576 -0.1272
59008W        W 1999  15.911  14.020  16.639 -0.3134  0.1384  0.0979
59009W        W 2000   9.390  19.338  24.161 -0.0735  0.2182 -0.1662
59010W        W 2001   9.745   5.157  20.899 -0.0306  0.4420 -0.3122
59011W        W 2002   8.124  28.464  24.360 -0.0202  0.2028  0.1385
59012W        W 2003  32.478  31.826  17.699  0.2859  0.0887  0.0676
59013W        W 2004  27.813  17.887   9.537  0.0309 -0.0319 -0.0903
59014W        W 2005  26.869  10.270  16.612 -0.1804  0.3158  0.2133
59015W        W 2006  11.801  14.518  16.577 -0.2016  0.0993 -0.2761
59016W        W 2007  17.832  11.383  19.928 -0.2563  0.1352  0.0320
59017W        W 2008  22.026  21.692  13.823  0.0881 -0.5067 -0.2010
59018W        W 2009  20.012  23.710   4.355  0.2699  0.2697 -0.2094
59019W        W 2010   9.779  23.345  19.263 -0.3261  0.3177  0.1904
59020W        W 2011   4.914  29.355  16.916 -0.0234 -0.2486 -0.1404
59021W        W 2012   1.485  30.529   1.060 -0.0876 -0.3236 -0.0852
59022W        W 2013   1.966  20.593  19.430  0.0703  0.0277  0.1065
59023W        W 2014  10.045  19.713  15.189  0.1234  0.2710 -0.1803
59024W        W 2015   4.808  19.855  17.100 -0.2320  0.2067  0.3377
59025W        W 2016   7.085  29.350  17.624  0.0511  0.4872 -0.1331
59026W        W 2017   4.429  29.732  20.162 -0.1302  0.0232 -0.2832
59027W        W 2018  33.280   4.901   6.350 -0.2651 -0.0902 -0.1924
59028W        W 2019  13.093  27.897  25.826  0.0764  0.1907  0.4120
59029W        W 2020  25.955  13.302  23.457 -0.0066  0.3533 -0.1211
59030W        W 2021  19.874  25.435  16.328  0.2496  0.1328 -0.1610
59031W        W 2022  16.832   4.380   2.287 -0.3991 -0.2592 -0.1057
59032W        W 2023   2.648  11.848  27.008 -0.0892 -0.1517 -0.0852
59033W        W 2024   7.517  15.298  18.697  0.1257 -0.0841 -0.0594
59034W        W 2025  17.108   9.299  20.203 -0.0416  0.1189 -0.2997
59035W        W 2026  14.232  20.335  18.909 -0.1643  0.2397  0.2694
59036W        W 2027  13.878  29.738   2.506  0.3663  0.0140 -0.3215
59037W        W 2028  15.883   5.027  26.760 -0.1255  0.2428 -0.0845
59038W        W 2029  18.664  32.851  20.602 -0.0229  0.0953  0.0422
59039W        W 2030  18.223  31.159  21.422  0.2964 -0.0447 -0.3367
59040W        W 2031  32.165  10.740  17.421 -0.3235 -0.0393 -0.0874
59041W        W 2032   0.292   7.175  16.881  0.1239  0.1461 -0.3026
59042W        W 2033  27.501  23.515   0.330 -0.1447  0.0673 -0.2873
59043W        W 2034  18.989  23.588  17.410  0.2369  0.0663 -0.0804
59044W        W 2035  12.171   8.091   8.762  0.2320  0.3910 -0.0175
59045W        W 2036  18.457  14.097  23.820 -0.2448 -0.3151 -0.0543
59046W        W 2037   8.066  20.919  23.973 -0.2531  0.0004 -0.0894
59047W        W 2038   6.182   1.466  16.840 -0.1116  0.0353 -0.2416
59048W        W 2039   5.977  29.898   0.431  0.1412  0.1463 -0.2100
59049W        W 2040  15.409  22.435  14.105 -0.3862  0.0093  0.0727
59050W        W 2041  29.133  13.467   0.457  0.0072  0.0114 -0.2038
59051W        W 2042  10.349  12.057  28.945 -0.0584  0.3382 -0.2663
59052W        W 2043  12.927  12.939  17.834 -0.1932 -0.0502 -0.1905
59053W        W 2044  14.793  26.703  16.072 -0.0311 -0.0320  0.0219
59054W        W 2045  20.047  11.956  21.155 -0.0116 -0.1308  0.0238
59055W        W 2046   1.113   8.968  21.937 -0.1074 -0.0942 -0.1014
59056W        W 2047  10.766  29.644  29.225 -0.2812  0.2441  0.0332
59057W        W 2048  14.893  28.393   1.766 -0.1669  0.1493  0.1896
59058W        W 2049  23.786  30.746  23.929  0.0802 -0.0484  0.0841
59059W        W 2050  16.402  23.880  14.065  0.0355 -0.1642  0.0499
59060W        W 2051  14.842  13.657  20.791 -0.1085 -0.1329  0.0540
59061W        W 2052  12.531  34.351  16.795 -0.0204  0.0525 -0.4277
59062W        W 2053  23.483  11.651   1.992 -0.0843 -0.0108 -0.2430
59063W        W 2054   9.679   6.380  19.807  0.2585  0.0491 -0.2683
59064W        W 2055  20.370  10.505  16.472 -0.2110  0.2484  0.0516
59065W        W 2056  29.820   8.211   2.680 -0.4482  0.1027 -0.2515
59066W        W 2057  11.948  23.921  17.818 -0.3151 -0.2169 -0.0726
59067W        W 2058  26.770  14.791  24.647 -0.1886 -0.5833 -0.0402
59068W        W 2059   0.658  10.937  21.858 -0.1714  0.0402 -0.1478
59069W        W 2060   2.373  13.273  17.756  0.3724 -0.0448 -0.1296
59070W        W 2061   1.619  18.155  23.377 -0.0277 -0.1849 -0.2611
59071W        W 2062  19.685  33.771  17.666  0.1564 -0.1426  0.1769
59072W        W 2063  15.814  26.077  13.832  0.3447 -0.0920  0.1372
59073W        W 2064   1.611  14.313  27.117  0.0982 -0.1585 -0.1229
59074W        W 2065  10.650  14.995  16.635 -0.0891  0.0833  0.3140
59075W        W 2066  24.841  23.751  16.239  0.1597  0.2606 -0.1469
59076W        W 2067  22.703   1.981   6.146 -0.0986  0.2002 -0.0330
59077W        W 2068  12.016  20.052  14.075  0.1004  0.1636 -0.1253
59078W        W 2069   2.085  10.636   7.080  0.1608  0.0410  0.1692
59079W        W 2070   0.796  28.256  22.485 -0.0623  0.2080 -0.1668
59080W        W 2071  34.733  10.954  10.551  0.0073 -0.0210  0.0726
59081W        W 2072   8.988  28.562  25.244 -0.2173 -0.0112 -0.3400
59082W        W 2073   5.902  14.744  19.244 -0.3754 -0.3428 -0.4123
59083W        W 2074  23.918  12.236  20.967 -0.3348  0.3464 -0.0848
59084W        W 2075   2.649  26.142  27.122 -0.0447 -0.1455 -0.1484
59085W        W 2076  14.095  11.890  26.571  0.3557 -0.2381  0.1155
59086W        W 2077  10.724   5.962   2.217  0.2339  0.0177 -0.0054
59087W        W 2078  15.406  33.457  23.119 -0.1122 -0.2699  0.1690
59088W        W 2079  12.500  16.273  19.571 -0.0193 -0.1819 -0.1062
59089W        W 2080  11.790   6.410  18.972 -0.0279 -0.0661  0.0737
59090W        W 2081  17.392  16.211  27.451  0.0487 -0.1897 -0.2708
59091W        W 2082   9.609  15.273   3.470  0.0230 -0.4565 -0.1134
59092W        W 2083  10.260  15.234  24.176  0.0495 -0.0226  0.4447
59093W        W 2084   6.215  22.498  27.289 -0.0914  0.2161  0.0111
59094W        W 2085   5.484  18.840  24.832 -0.0608 -0.0074  0.0401
59095W        W 2086  12.053  17.686  18.157 -0.1421 -0.1729 -0.0245
59096W        W 2087  16.721  20.809  28.867  0.1658  0.0611  0.2122
59097W        W 2088  10.960   8.092   1.195  0.3130 -0.0072 -0.1302
59098W        W 2089  28.102  26.205  21.443 -0.3968 -0.0091  0.1596
59099W        W 2090  29.674  10.918  28.311 -0.0946  0.0725  0.1918
59100W        W 2091   5.437   2.304  16.752 -0.1295  0.0032 -0.0075
59101W        W 2092  14.908  10.137   6.543  0.0009 -0.0544 -0.0475
59102W        W 2093  13.900  23.567  17.604 -0.0556 -0.0376  0.3123
59103W        W 2094   8.838   6.177  19.828 -0.0437 -0.1364  0.0628
59104W        W 2095  19.411   9.559  14.248 -0.0709 -0.1433 -0.0540
59105W        W 2096   9.599  30.512  15.184 -0.1000 -0.2878 -0.0371
59106W        W 2097  17.083  20.515  13.518 -0.0586  0.2524  0.2631
59107W        W 2098  13.545  16.715  14.799  0.0026 -0.1361 -0.1349
59108W        W 2099  27.593  13.953  16.540 -0.1433 -0.1915 -0.0086
59109W        W 2100   3.847  19.001  18.725 -0.1033 -0.2666 -0.0785
59110W        W 2101   9.645  22.536  25.881  0.1808  0.2015  0.3100
59111W        W 2102   6.465   4.517  29.011  0.1005 -0.0958 -0.1239
59112W        W 2103  11.924  18.653  13.932 -0.1755  0.1619 -0.3133
59113W        W 2104   8.100  15.386  19.339 -0.3574 -0.1005  0.0806
59114W        W 2105  11.089  19.377  17.890 -0.1139 -0.1094 -0.1124
59115W        W 2106   4.840   7.021  23.775 -0.0743 -0.0452 -0.0255
59116W        W 2107  18.405  29.423  28.793 -0.2370 -0.0048 -0.1697
59117W        W 2108  26.823  33.860   1.217  0.2196 -0.0303  0.0101
59118W        W 2109   8.366  17.761  24.289 -0.0450 -0.1749 -0.1068
59119W        W 2110   7.972  12.794  15.741 -0.2175  0.0858  0.0470
59120W        W 2111   7.639  15.120  22.890 -0.0970 -0.1678  0.3300
59121W        W 2112  14.441  17.710   6.788  0.0040  0.1282  0.3200
59122W        W 2113  26.413  17.493  19.416  0.1149 -0.2825  0.2868
59123W        W 2114  22.106  25.139   7.396 -0.0167  0.0626  0.0215
59124W        W 2115  22.947   0.893  22.076  0.2307 -0.1431 -0.1322
59125W        W 2116   3.272  13.967  19.933 -0.1091  0.0357  0.1462
59126W        W 2117  31.076   7.716  24.048  0.3810 -0.1072  0.0839
59127W        W 2118   6.251  11.913  21.997  0.0214  0.5819  0.0107
59128W        W 2119  10.733  19.154  26.882  0.2494 -0.0194 -0.2549
59129W        W 2120  11.553   1.730  22.490 -0.2666  0.1035  0.1961
59130W        W 2121  13.740   9.900  22.994 -0.0079  0.1755 -0.1039
59131W        W 2122   7.254   1.317  27.797  0.3488 -0.0331 -0.2358
59132W        W 2123  14.564  19.626  20.765 -0.0391 -0.1273  0.0858
59133W        W 2124  18.795  18.610  14.945  0.2496  0.0226  0.0443
59134W        W 2125   2.628   5.946  23.179 -0.1327 -0.0221  0.3343
59135W        W 2126  31.241  21.233  21.491  0.1531 -0.1181 -0.0083
59136W        W 2127   3.415  31.566   2.692  0.2205  0.2300  0.2700
59137W        W 2128   4.188   0.529  18.936  0.1534 -0.0851  0.0217
59138W        W 2129   6.302  16.032   7.370  0.4206  0.3893  0.2460
59139W        W 2130  19.031   9.761  17.411 -0.0510  0.2718  0.1169
59140W        W 2131   7.098  32.788   2.162  0.0223 -0.2534 -0.1062
59141W        W 2132  14.582  33.534  10.204 -0.0587 -0.0902  0.0245
59142W        W 2133  24.111  21.444  21.187  0.4300  0.1096  0.1059
59143W        W 2134   2.805  17.462   2.539 -0.1867 -0.1875  0.0421
59144W        W 2135  33.328  29.697  23.682  0.0592 -0.1615  0.1904
59145W        W 2136  12.481  11.813  16.159  0.1294 -0.0436  0.0796
59146W        W 2137   1.660  12.091  28.397  0.0356 -0.1282  0.1511
59147W        W 2138   9.460  20.083  26.911  0.2630  0.2706 -0.1537
59148W        W 2139  18.680  30.909  23.606  0.1517  0.0580  0.0058
59149W        W 2140  26.302   6.963  15.252 -0.0534  0.3654  0.0716
59150W        W 2141   9.465  21.538  25.495 -0.0649  0.0318  0.3045
59151W        W 2142   4.829  13.833  23.150  0.1308 -0.1907 -0.0936
59152W        W 2143  29.958  22.528  24.124 -0.1366  0.1984 -0.1152
59153W        W 2144  10.033   3.047   4.649  0.1937 -0.2098 -0.1003
59154W        W 2145   0.705  23.975   0.516 -0.0690 -0.3455 -0.0565
59155W        W 2146  26.559  19.109  25.576  0.1197 -0.0722  0.0626
59156W        W 2147   4.853  17.254  14.936  0.0947  0.2444 -0.3222
59157W        W 2148  32.412  13.467  28.507 -0.2954  0.3347  0.2248
59158W        W 2149  19.201  30.889  26.994 -0.0938 -0.0229 -0.2216
59159W        W 2150  19.727  21.239   2.529 -0.1475  0.3114  0.1680
59160W        W 2151  11.635  25.964   6.071  0.0420 -0.1649 -0.0440
59161W        W 2152   0.113  21.906  18.447 -0.0598  0.2331  0.1776
59162W        W 2153   7.331  13.355   9.271 -0.0476  0.1179 -0.0603
59163W        W 2154   0.595  12.879  17.009 -0.1060 -0.0862 -0.0252
59164W        W 2155   7.677  23.950   2.733  0.0433  0.3371 -0.0649
59165W        W 2156  21.980  20.083  15.150 -0.2637 -0.0997 -0.3078
59166W        W 2157   1.203  14.288  27.990 -0.0842  0.0913  0.1908
59167W        W 2158   8.868   7.426  24.169  0.1464  0.0280  0.1864
59168W        W 2159   2.291  27.345   8.708 -0.3712  0.2935 -0.1907
59169W        W 2160   8.764  25.499  15.392 -0.0330 -0.0272  0.2400
59170W        W 2161   2.324  22.422   5.958 -0.0682 -0.0439 -0.2583
59171W        W 2162  16.029  22.148   1.888  0.1475  0.0362 -0.3359
59172W        W 2163  26.178   9.464  21.450  0.1203  0.0268 -0.1637
59173W        W 2164   6.608  10.951  19.305 -0.1382  0.0383  0.1683
59174W        W 2165   9.285  23.608  18.433 -0.1749  0.0055 -0.0602
59175W        W 2166  15.288  31.523   3.853  0.1099  0.0684 -0.4251
59176W        W 2167  13.186  31.606   1.206  0.0459  0.3160 -0.3241
59177W        W 2168   4.446  24.911  19.871  0.1280 -0.0347 -0.1766
59178W        W 2169  30.407  20.592  24.498 -0.1078  0.0552 -0.3200
59179W        W 2170  20.415  22.961   5.325  0.1389  0.0059  0.3310
59180W        W 2171  14.458  24.022  17.856  0.0177 -0.0984 -0.1620
59181W        W 2172  18.259   9.511  18.798 -0.2374 -0.2007 -0.0816
59182W        W 2173   4.151  11.179   2.192  0.0346 -0.1721 -0.2480
59183W        W 2174  32.262  16.771  10.825 -0.1507 -0.0749 -0.3343
59184W        W 2175   4.633  25.630   4.745  0.1204 -0.1796  0.1457
59185W        W 2176  26.413  15.272  17.035 -0.3494  0.3216  0.0143
59186W        W 2177  22.084   9.186   1.017 -0.0370 -0.1469  0.2506
59187W        W 2178  34.798  10.817  25.520  0.0599 -0.0760  0.3607
59188W        W 2179  22.510  33.232   2.971 -0.5244  0.2723  0.2312
59189W        W 2180  13.277  23.086  22.578 -0.1555 -0.0883  0.0371
59190W        W 2181  14.785  27.490  28.377 -0.1612  0.0387 -0.0024
59191W        W 2182  23.490  27.835  22.586  0.0153 -0.3270  0.2141
59192W        W 2183  14.020  10.844  24.598  0.1558 -0.0468 -0.2337
59193W        W 2184   4.210  14.530   8.083  0.0193  0.4131  0.1420
59194W        W 2185  17.278  13.265  29.192 -0.2564 -0.1094 -0.1633
59195W        W 2186   3.619  24.104   6.651  0.2884 -0.0389 -0.3770
59196W        W 2187   9.758   1.722   2.575 -0.2439 -0.0053 -0.1957
59197W        W 2188  29.773   8.734   4.620  0.2851  0.3128 -0.0055
59198W        W 2189  31.698   1.617  24.859  0.0518  0.0323  0.1484
59199W        W 2190   5.246  17.037  24.251 -0.1433  0.2405 -0.1597
59200W        W 2191   3.041  19.848  25.775  0.2699 -0.0693  0.0913
59201W        W 2192  17.058   0.191  25.834  0.1096 -0.1954  0.1558
59202W        W 2193  10.546  13.192  15.508 -0.1818  0.2423  0.0099
59203W        W 2194  13.920  11.725  21.492 -0.0075 -0.0568 -0.2759
59204W        W 2195  15.626  13.775  23.496 -0.2051 -0.2858 -0.1126
59205W        W 2196  23.271   3.646   3.575 -0.0530 -0.1199  0.1750
59206W        W 2197  12.632  26.416  25.688 -0.2231 -0.1700  0.0264
59207W        W 2198  19.600  25.083  20.816  0.4619 -0.0377 -0.2843
59208W        W 2199   7.380  20.887  26.247  0.2732  0.1359 -0.0462
59209W        W 2200   4.034  15.403  29.045  0.0132 -0.3089  0.0657
59210W        W 2201  20.050  22.693  16.333  0.1083 -0.1866  0.0306
59211W        W 2202   4.243  12.320   1.848  0.1822  0.0771 -0.0319
59212W        W 2203  23.694  11.076  21.878 -0.0217 -0.3170  0.2284
59213W        W 2204   7.967  24.880  15.954 -0.2091  0.1885  0.1035
59214W        W 2205   8.056  16.278   1.279  0.3569 -0.2467  0.3535
59215W        W 2206   7.940   4.243   5.880 -0.0217  0.2451 -0.0902
59216W        W 2207  20.562   5.624  20.201 -0.0530  0.2196  0.0481
59217W        W 2208  23.403  23.233  15.666  0.2477 -0.4716 -0.0451
59218W        W 2209   8.002  33.331  10.982 -0.2502 -0.1278 -0.3428
59219W        W 2210  14.610   1.706  15.466 -0.2206 -0.1193 -0.0138
59220W        W 2211  14.591  14.404   5.057 -0.1503 -0.0260 -0.0699
59221W        W 2212  17.018  24.237   3.587  0.0487  0.1655 -0.0760
59222W        W 2213   6.225  11.686   2.800 -0.1213 -0.2298 -0.0521
59223W        W 2214  30.720  18.397  20.812  0.1071  0.2395 -0.1313
59224W        W 2215  30.721  12.428  19.886 -0.0271 -0.0706  0.2486
59225W        W 2216  22.170  15.288   0.771  0.0296  0.0548  0.4070
59226W        W 2217  20.860  30.873  24.779  0.3572  0.2983 -0.3260
59227W        W 2218   6.321  21.431  19.635  0.2072  0.3044 -0.2179
59228W        W 2219  11.721  24.725  27.354  0.1052 -0.0386  0.0475
59229W        W 2220   6.761  28.120  26.363  0.1741 -0.1052  0.0605
59230W        W 2221   3.823  13.728   5.486  0.0396 -0.0322 -0.2429
59231W        W 2222   7.349   5.935  17.508  0.4301  0.0736 -0.3037
59232W        W 2223   1.737  12.498  29.149 -0.0978  0.1166 -0.2333
59233W        W 2224  27.602  10.771  21.069 -0.1236  0.1628  0.3029
59234W        W 2225  23.295   7.680  18.764  0.1417 -0.0777  0.0618
59235W        W 2226   2.714  17.943   1.730  0.1442 -0.2786  0.0819
59236W        W 2227  13.371   2.787  26.701  0.0141 -0.0969  0.0146
59237W        W 2228   7.012  30.459  17.235  0.0355 -0.1430  0.3110
59238W        W 2229  23.089  19.741   3.727 -0.3289  0.0891 -0.3750
59239W        W 2230   4.831  29.428  20.403  0.3326 -0.0649 -0.0620
59240W        W 2231  34.041  11.608   4.942 -0.0792  0.1754 -0.0831
59241W        W 2232  11.400  14.908   8.398 -0.0560  0.1369  0.0714
59242W        W 2233   8.138  26.067   7.713  0.1983 -0.3334 -0.0045
59243W        W 2234  33.928  13.208  28.866  0.0495  0.0562 -0.2604
59244W        W 2235   7.013  12.642  20.278 -0.2936  0.0207  0.2643
59245W        W 2236  31.613  22.935   5.312 -0.3068 -0.1019  0.0110
59246W        W 2237   0.110  27.353   3.740  0.2665  0.1088  0.2765
59247W        W 2238  31.520  34.371   0.477 -0.0118  0.0004 -0.2356
59248W        W 2239   9.844   8.178  26.202  0.1951 -0.0983 -0.1225
59249W        W 2240  19.187  21.406  16.577 -0.1683  0.1156  0.0748
59250W        W 2241   1.925   6.931  27.188 -0.1817 -0.2677 -0.3306
59251W        W 2242  11.342  13.736  20.054 -0.1050  0.1253 -0.0062
59252W        W 2243   4.381  22.108   1.051  0.3567  0.3769 -0.1889
59253W        W 2244  19.929   9.988  15.852 -0.0735  0.0511  0.2051
59254W        W 2245  12.245   9.354   3.062  0.0682  0.2111 -0.1749
59255W        W 2246  17.714  11.916  19.600  0.1101  0.0804  0.2330
59256W        W 2247  17.823  22.403  26.587 -0.5041 -0.0893 -0.0577
59257W        W 2248  14.599   2.390   4.779 -0.3290  0.0214 -0.1707
59258W        W 2249   9.350   2.640  25.694  0.0443  0.3078  0.0986
59259W        W 2250   1.934   4.878   6.394 -0.2593 -0.1782 -0.0319
59260W        W 2251  16.179  23.730  19.365 -0.0130 -0.1003 -0.1066
59261W        W 2252   6.055  16.182  17.192 -0.1262  0.1096 -0.0949
59262W        W 2253  10.728  14.034  17.433 -0.0990  0.1696  0.0107
59263W        W 2254   4.946   4.976  20.569  0.2104 -0.0901 -0.2613
59264W        W 2255  16.107   9.291  27.978  0.0198 -0.0352  0.0943
59265W        W 2256   3.032   2.265  17.359 -0.1083  0.4711  0.0756
59266W        W 2257   9.928  25.350   9.005 -0.1754  0.4500  0.2458
59267W        W 2258  15.238  11.236  21.903 -0.0874  0.1296  0.3942
59268W        W 2259   9.655   9.627  28.485 -0.0466  0.3028 -0.1428
59269W        W 2260  14.068   6.352  20.515 -0.1224 -0.1014 -0.0628
59270W        W 2261  10.293  27.182  25.739 -0.1218 -0.2530  0.1748
59271W        W 2262   3.302   3.861  27.167 -0.0550 -0.1414 -0.0180
59272W        W 2263   0.770  21.634  19.368 -0.1830 -0.1241 -0.0248
59273W        W 2264  15.739  29.132  20.680  0.1063  0.0788 -0.0438
59274W        W 2265  12.755  10.639   4.990 -0.1200  0.2946  0.1702
59275W        W 2266  16.770  30.562  21.505 -0.1250  0.1135  0.1912
59276W        W 2267  24.263  19.016  25.817  0.3222 -0.0899 -0.1483
59277W        W 2268   4.411  19.347   4.216 -0.1974 -0.1894  0.0670
59278W        W 2269   6.712  20.409  23.356 -0.0699  0.1225 -0.0650
59279W        W 2270  13.043  28.902   0.051  0.1141 -0.0229  0.3553
59280W        W 2271  27.271   3.281  14.908  0.0148  0.0060 -0.0844
59281W        W 2272   9.747  23.978  21.100 -0.2319 -0.2038 -0.1664
59282W        W 2273  31.147  11.588  22.273 -0.1167 -0.0690  0.0761
59283W        W 2274  13.064  21.056  22.104  0.3175 -0.0750  0.0967
59284W        W 2275   6.548   1.177   0.013  0.0641 -0.1894  0.1419
59285W        W 2276  24.142  21.925   7.397  0.0382 -0.2591 -0.1086
59286W        W 2277  18.792  19.839   2.287 -0.0205  0.2168 -0.0939
59287W        W 2278  31.899  21.971   6.134 -0.0360 -0.1415 -0.0664
59288W        W 2279  27.190  22.473  22.475  0.1387  0.0019 -0.2111
59289W        W 2280   5.862  34.678   5.676  0.2010  0.0695 -0.3137
59290W        W 2281  23.175   1.014  20.073 -0.0476 -0.1120  0.0532
59291W        W 2282  32.849   2.332  22.920  0.0365  0.4007  0.0278
59292W        W 2283  18.978   2.276  28.828  0.0145  0.2093 -0.2662
59293W        W 2284   5.035  33.563  26.896 -0.1435  0.0266 -0.0324
59294W        W 2285  11.879  16.420  19.500 -0.0144 -0.1658  0.1004
59295W        W 2286  24.597  25.746  13.146  0.2747  0.0854  0.1614
59296W        W 2287  15.866  24.324  17.916 -0.1891 -0.2592 -0.0362
59297W        W 2288  13.946  15.218   5.250  0.3327 -0.1164 -0.0668
59298W        W 2289   3.115  19.094  18.788  0.4285 -0.0172 -0.0211
59299W        W 2290   1.473  12.678  18.478 -0.1343 -0.1439  0.1662
59300W        W 2291   3.904   5.593   3.219  0.2394 -0.1241 -0.0220
59301W        W 2292  29.358   8.131   2.039 -0.4747 -0.0139 -0.1426
59302W        W 2293  20.096  16.076  15.465  0.2127  0.0364  0.1268
59303W        W 2294   9.000  18.050  14.766 -0.1021 -0.0418  0.1708
59304W        W 2295   4.710  12.354  21.709 -0.0934  0.0011  0.0127
59305W        W 2296   8.893  10.681  19.692 -0.1465 -0.0306 -0.1322
59306W        W 2297  15.678  26.459  18.956  0.3085 -0.0419 -0.3759
59307W        W 2298  10.244  18.386  27.327  0.1137  0.0651  0.1046
59308W        W 2299  20.152  30.657   3.481 -0.3390  0.0698 -0.2622
59309W        W 2300  25.722  19.852  17.803  0.0615 -0.2573 -0.2514
59310W        W 2301  20.882  17.688  22.949  0.4246  0.0395 -0.0215
59311W        W 2302  10.642  24.731  19.903  0.0527 -0.2393 -0.1967
59312W        W 2303  30.032  13.950   1.229 -0.0344 -0.3601 -0.0441
59313W        W 2304   9.155   0.742  28.246 -0.1239 -0.1378 -0.1238
59314W        W 2305   2.458  32.377  24.727  0.1828 -0.0290  0.0154
59315W        W 2306   6.845  26.451   2.033 -0.0808 -0.2073  0.0925
59316W        W 2307   9.051  16.710  14.849  0.2425 -0.3661 -0.0029
59317W        W 2308  12.465   1.246   9.394  0.2368 -0.1118 -0.1592
59318W        W 2309  12.777   1.617  23.079  0.1324 -0.0919  0.1301
59319W        W 2310  20.574  11.231  14.964 -0.0850 -0.0106 -0.0817
59320W        W 2311  25.343   1.160   5.489  0.1499  0.1864  0.0063
59321W        W 2312  11.737   9.688  24.258 -0.0157 -0.4914  0.0192
59322W        W 2313  11.920  12.377   3.137 -0.0967 -0.1242  0.1327
59323W        W 2314  13.486  16.202  29.138  0.2529  0.1194  0.0380
59324W        W 2315  15.185  13.801  25.188  0.3207 -0.1051  0.1417
59325W        W 2316   7.580  31.760   0.918 -0.3374 -0.0134 -0.1601
59326W        W 2317   8.629   4.485  29.253  0.0474  0.1755  0.4337
59327W        W 2318  11.108  31.345   2.282 -0.4742 -0.0191 -0.4900
59328W        W 2319  30.180  11.279   0.896  0.1239 -0.1272  0.0560
59329W        W 2320   7.542  18.764  27.704  0.2621 -0.2029 -0.3524
59330W        W 2321   8.032  13.677  15.317 -0.0924  0.0529 -0.0355
59331W        W 2322  13.728  26.907   6.067  0.2064  0.0302  0.1475
59332W        W 2323   6.995  29.624  18.063  0.0626  0.4507  0.1822
59333W        W 2324   9.166  28.264  16.534 -0.2204 -0.1603  0.0451
59334W        W 2325  17.141  11.732  23.471 -0.0539 -0.2069 -0.3677
59335W        W 2326  23.140   0.556  22.347  0.0240  0.0430 -0.1502
59336W        W 2327  29.126  29.561   6.973  0.1697 -0.2269 -0.1064
59337W        W 2328  18.750  31.784  25.778  0.2973  0.0525  0.0898
59338W        W 2329  25.320   4.033  27.382  0.0575 -0.2644 -0.1409
59339W        W 2330  25.538  19.483  15.994  0.1030 -0.0120  0.0736
59340W        W 2331  15.150   8.011  23.521  0.4546  0.2932 -0.2635
59341W        W 2332  15.056   7.196  26.947  0.2146  0.3491 -0.2570
59342W        W 2333   4.996  29.000   3.145  0.0568 -0.0034  0.0094
59343W        W 2334  33.596  29.251   1.566 -0.0290  0.1064 -0.4097
59344W        W 2335  12.466  27.057  19.330 -0.1382 -0.0553 -0.1750
59345W        W 2336  15.948  14.720   3.472 -0.1692  0.0042  0.3857
59346W        W 2337  16.811   8.842  20.209  0.0876 -0.0491 -0.2190
59347W        W 2338   7.528   4.173  15.303  0.1969 -0.1232 -0.0385
59348W        W 2339  17.556  32.053  16.872 -0.1937  0.0740 -0.0457
59349W        W 2340  33.533   8.232   4.101 -0.2131  0.1260 -0.0314
59350W        W 2341  13.232   8.945  24.995  0.0396 -0.1436  0.0175
59351W        W 2342  16.876  20.154  26.680  0.2574  0.1630 -0.0961
59352W        W 2343  19.797  25.038  28.696 -0.0467  0.2870  0.0745
59353W        W 2344  10.923  19.519   6.038  0.0906 -0.2462 -0.0401
59354W        W 2345  16.076   8.403   2.283 -0.0192  0.1168 -0.0085
59355W        W 2346   5.026  23.140  20.864  0.0157  0.0290  0.2387
59356W        W 2347  23.781   5.213  13.593  0.1788 -0.0352  0.2149
59357W        W 2348  20.543  34.298  15.030  0.2475 -0.3415 -0.0479
59358W        W 2349  19.064  30.552  23.474 -0.1963 -0.0257 -0.1998
59359W        W 2350   7.741   8.050  27.940 -0.0543  0.0447  0.1414
59360W        W 2351   9.768   3.054  23.130 -0.0784 -0.1611  0.1208
59361W        W 2352  15.128  33.519  17.568 -0.1286 -0.1088 -0.1787
59362W        W 2353   1.551  20.062   3.893 -0.1616  0.1731  0.0844
59363W        W 2354   9.968  11.238  21.665 -0.1240 -0.0707  0.2014
59364W        W 2355  24.727   3.204   6.353  0.0114 -0.0816  0.4984
59365W        W 2356  13.970   0.053   2.263 -0.0732  0.2652 -0.3575
59366W        W 2357   7.987  31.161  15.937  0.2732  0.1715  0.1712
59367W        W 2358   6.540  21.774  22.175  0.0403 -0.0719  0.0579
59368W        W 2359   6.352  11.216   1.417 -0.3782  0.2581  0.1978
59369W        W 2360  12.864  28.259  22.226  0.0356  0.0230 -0.0589
59370W        W 2361  12.992  14.910  20.176  0.0422 -0.2063  0.1711
59371W        W 2362   1.273  20.593  23.493  0.3416 -0.0801 -0.0008
59372W        W 2363  14.095  17.821  13.449 -0.3063 -0.0127 -0.0468
59373W        W 2364   3.786  26.561  14.807 -0.3476 -0.1328  0.2106
59374W        W 2365   8.457   2.390   9.660 -0.0114  0.1509  0.0566
59375W        W 2366   6.925  32.834  26.212 -0.0151 -0.2566  0.1865
59376W        W 2367  15.194   2.240  21.878  0.0593 -0.1103 -0.0208
59377W        W 2368   7.299  20.003  15.106 -0.1068 -0.0657  0.0741
59378W        W 2369   6.623   8.971   0.962  0.1649 -0.1851 -0.3060
59379W        W 2370   8.762  12.602  25.959 -0.1753  0.2424 -0.3623
59380W        W 2371  16.149  15.220  15.323  0.2061  0.1196  0.1770
59381W        W 2372  15.182   4.447  18.749 -0.1006 -0.1922  0.0853
59382W        W 2373  11.436   1.618   6.006 -0.0414  0.1221 -0.3699
59383W        W 2374  23.487  10.649  17.934 -0.3475 -0.0987  0.2046
59384W        W 2375  10.150  15.738  14.610  0.3467  0.0037  0.0358
59385W        W 2376  12.444   3.007  17.214 -0.1179 -0.0938 -0.1398
59386W        W 2377  10.383  31.370   1.741 -0.1862 -0.3318 -0.1020
59387W        W 2378  17.904  15.300  29.005 -0.1041  0.2771  0.0604
59388W        W 2379   0.006  32.716  16.162  0.0844 -0.0161  0.1598
59389W        W 2380  17.810   1.791  25.589 -0.1729  0.0696 -0.0616
59390W        W 2381  32.257  13.260  18.827 -0.0397  0.1054 -0.1718
59391W        W 2382  11.481  15.200   0.363  0.0258 -0.1739 -0.2916
59392W        W 2383  34.656  13.014  21.592 -0.0767 -0.1418 -0.0680
59393W        W 2384  10.856  25.270  27.282 -0.2855 -0.2696 -0.1034
59394W        W 2385  12.591  18.516  26.794 -0.1162 -0.1928 -0.1308
59395W        W 2386  12.491  12.817   2.633 -0.4206 -0.1066 -0.0775
59396W        W 2387  15.010  13.591  27.799  0.0747 -0.0899  0.0957
59397W        W 2388   2.872  19.611   2.781 -0.3206 -0.3481  0.0087
59398W        W 2389  29.143   6.348  26.792  0.4103  0.0235  0.1172
59399W        W 2390  34.030  18.404  23.281 -0.0065  0.1808 -0.2137
59400W        W 2391  26.680  16.309   3.607 -0.3634 -0.1179  0.0857
59401W        W 2392  10.945   9.977  16.861  0.0316  0.1285 -0.0135
59402W        W 2393  16.599  19.900  25.858  0.4134  0.1663 -0.3426
59403W        W 2394  10.547  12.175  27.309  0.0206  0.0205  0.6645
59404W        W 2395  24.331   5.469  18.129  0.0559  0.0518 -0.0612
59405W        W 2396  23.859  14.677  20.729  0.0446  0.2553  0.2302
59406W        W 2397  34.332  12.678  20.469  0.0334  0.2417  0.0998
59407W        W 2398  25.903  16.515   4.342  0.2151 -0.0610  0.2467
59408W        W 2399  34.187  18.712  15.352 -0.0367 -0.3341  0.0666
59409W        W 2400   3.907  29.648   7.432 -0.2110 -0.1192 -0.1997
59410W        W 2401   8.326  15.032  14.640 -0.1991  0.0143 -0.2125
59411W        W 2402   3.559  30.490  14.552  0.4337  0.2096 -0.3574
59412W        W 2403  12.596  16.686  22.229  0.0078 -0.3810 -0.2296
59413W        W 2404  22.469  34.364   8.461 -0.0028 -0.0708 -0.2539
59414W        W 2405  11.534   1.300  28.073  0.0424  0.2842 -0.2004
59415W        W 2406  30.716  22.165  18.307 -0.0713  0.1304  0.1900
59416W        W 2407  22.640  28.730   4.184 -0.0825  0.2179  0.0500
59417W        W 2408  19.521  24.496  24.182  0.2335  0.2537 -0.0689
59418W        W 2409  12.062  21.975  26.785 -0.1785 -0.0071 -0.2244
59419W        W 2410  12.049  18.064  17.299  0.0080  0.0106  0.0637
59420W        W 2411  26.359  16.585   7.486  0.1189 -0.2628 -0.2486
59421W        W 2412  11.992   5.801  27.895 -0.0558  0.1126 -0.0614
59422W        W 2413  22.793   8.788   8.022 -0.2671  0.1507 -0.0844
59423W        W 2414   6.478  13.384   9.795  0.0728 -0.2128 -0.0300
59424W        W 2415  19.062   9.098   2.645 -0.4539 -0.0496 -0.0586
59425W        W 2416  33.832  15.242  11.321  0.1166 -0.3701 -0.1423
59426W        W 2417  27.292  10.561  24.146 -0.1034 -0.0303 -0.0352
59427W        W 2418  13.037  17.027   5.498  0.1604 -0.1161  0.3398
59428W        W 2419  24.963   9.230  19.975  0.1044  0.2322  0.0541
59429W        W 2420  18.284  23.039   6.329 -0.1063  0.0648 -0.0328
59430W        W 2421  12.393  11.015  28.737 -0.1932  0.2909 -0.5102
59431W        W 2422  10.347   4.821   1.295 -0.0671  0.0158 -0.0760
59432W        W 2423  31.799  19.619   5.431 -0.0770 -0.2345  0.0754
59433W        W 2424  20.930  25.210   3.625 -0.3429  0.0962  0.1677
59434W        W 2425  16.762   2.221  24.707  0.1043  0.0141 -0.1997
59435W        W 2426   3.520  18.654  22.641  0.0118  0.0232  0.0577
59436W        W 2427  14.367  11.661  21.754 -0.0116 -0.1335  0.1208
59437W        W 2428  32.369   7.173   9.425 -0.0690  0.2811  0.4197
59438W        W 2429  10.783  12.712  23.144  0.0702 -0.0443 -0.1823
59439W        W 2430  16.583   6.709   1.806 -0.3669  0.1293  0.3862
59440W        W 2431  10.651  28.511  21.591 -0.0343 -0.1319 -0.1147
59441W        W 2432  13.180  11.893   6.573  0.1189 -0.1898 -0.3519
59442W        W 2433   1.017  19.751   9.750 -0.0595 -0.0695 -0.0860
59443W        W 2434  24.710  18.972  19.505  0.2650 -0.2380  0.1831
59444W        W 2435   6.689  17.436  25.788 -0.2458 -0.0726  0.3917
59445W        W 2436  24.636  10.413   4.075 -0.0778 -0.2174 -0.3224
59446W        W 2437  15.220  12.220   7.573  0.1449 -0.0069 -0.3431
59447W        W 2438  21.221  16.703  27.014 -0.0662  0.0059 -0.1331
59448W        W 2439  21.329   1.012   0.118  0.3597 -0.1796  0.1033
59449W        W 2440   6.141  18.636  24.265  0.2325  0.4141 -0.0513
59450W        W 2441   7.287  14.472  27.115  0.1715 -0.0012  0.0072
59451W        W 2442   2.604  18.885  16.185  0.0875 -0.0050  0.3232
59452W        W 2443  21.593  11.501  22.255 -0.1118  0.1802  0.1345
59453W        W 2444   8.610  14.062   1.092 -0.3676 -0.2704  0.0865
59454W        W 2445  17.705  20.376  20.727 -0.1239 -0.0903  0.2418
59455W        W 2446  19.736   6.785  28.956  0.1716 -0.0501  0.0472
59456W        W 2447   3.349  13.985  19.366 -0.3548  0.0953 -0.0928
59457W        W 2448  19.568  27.227  14.469 -0.4205 -0.0030 -0.0205
59458W        W 2449  32.428  31.535  22.226  0.2562  0.0417 -0.0183
59459W        W 2450   2.724  30.813  22.844  0.0429  0.1409 -0.3052
59460W        W 2451  10.756   7.952  20.335 -0.1020  0.1783 -0.1344
59461W        W 2452  11.673   7.075  25.014  0.1352 -0.0928 -0.1593
59462W        W 2453  18.987  19.452   1.970 -0.0762  0.0917 -0.0279
59463W        W 2454   5.637  20.891  24.241 -0.0551  0.0399 -0.1559
59464W        W 2455  17.947  21.451  14.860  0.0533 -0.2185 -0.1685
59465W        W 2456  13.174  23.688  18.338 -0.3582 -0.2257  0.1911
59466W        W 2457  11.322  10.847  10.292  0.1672 -0.1674 -0.1900
59467W        W 2458  18.791   8.062  17.376  0.1019  0.1871  0.0265
59468W        W 2459   6.411  34.743   8.310 -0.2895 -0.0618  0.0315
59469W        W 2460  27.881   3.753  13.737 -0.3902 -0.1002  0.0975
59470W        W 2461  15.031  30.980   2.223  0.2010 -0.1421  0.1535
59471W        W 2462  15.037  10.825  20.338  0.1805 -0.3743 -0.0537
59472W        W 2463  32.179  17.336  10.649  0.0109 -0.0608 -0.3193
59473W        W 2464  10.448  10.295  21.315 -0.0479  0.3572  0.0184
59474W        W 2465  33.185  26.990  26.863  0.2685  0.0976  0.4181
59475W        W 2466  21.215  25.058  16.561  0.1918  0.0559  0.3067
59476W        W 2467  13.437  16.368   3.303  0.0894  0.0464  0.1068
59477W        W 2468  22.623   7.999   3.381 -0.0744 -0.0801  0.0635
59478W        W 2469  18.200   2.774   7.821  0.1460 -0.0734  0.1033
59479W        W 2470   6.474  18.397  16.784  0.1018  0.1366  0.0893
59480W        W 2471  22.045  26.284   4.213  0.0187  0.1076 -0.3264
59481W        W 2472  25.365  19.433  13.185 -0.1058  0.1276 -0.0435
59482W        W 2473   6.200  31.435  27.700 -0.0738 -0.4250  0.1129
59483W        W 2474   1.625   3.479   0.520  0.0103 -0.2581  0.3882
59484W        W 2475   6.485  33.532   8.696 -0.0384 -0.2030 -0.0323
59485W        W 2476   5.759  12.053   9.894  0.1432  0.1734  0.1824
59486W        W 2477   9.607  28.301  14.738 -0.2910 -0.0269 -0.1897
59487W        W 2478   5.150  10.445  24.845 -0.2928 -0.1084  0.0770
59488W        W 2479  15.029  24.014  16.200 -0.4049 -0.1932 -0.1413
59489W        W 2480  33.005  20.102   5.343  0.1260 -0.0414 -0.4153
59490W        W 2481  12.584   9.874  19.269  0.2969 -0.2564 -0.0746
59491W        W 2482  16.813  16.967   1.099 -0.3991 -0.4941  0.2871
59492W        W 2483  31.340  10.056  24.100  0.1133  0.0694 -0.0639
59493W        W 2484   8.210  12.526   9.893  0.0078  0.1188 -0.1680
59494W        W 2485   6.316  24.990  21.606 -0.0792 -0.0758 -0.1745
59495W        W 2486  28.716   1.252  13.878  0.2097 -0.0354  0.1588
59496W        W 2487   5.381  23.025   5.515 -0.3001  0.0570 -0.0502
59497W        W 2488  10.687  27.551  24.739 -0.1018  0.0872 -0.0860
59498W        W 2489  21.289  13.475   7.599  0.0346  0.1535 -0.2063
59499W        W 2490  29.050  22.441  29.161  0.4443 -0.0172 -0.0404
59500W        W 2491  14.269  29.442   0.638  0.2403  0.0416  0.2866
59501W        W 2492   1.337  21.264  17.851 -0.2203 -0.0205  0.1437
59502W        W 2493   4.956  29.088  23.829 -0.3377  0.0406 -0.3559
59503W        W 2494  25.055  20.921  28.872 -0.0683  0.0150  0.2024
59504W        W 2495   5.123   3.762  25.949 -0.1381 -0.0223 -0.3636
59505W        W 2496  14.365   7.713   2.582  0.0916  0.2178 -0.2854
59506W        W 2497  17.944  21.153  26.650  0.3747  0.0143  0.2403
59507W        W 2498  15.665  31.101  24.365 -0.4729 -0.0752  0.2259
59508W        W 2499  33.104   0.531   4.555 -0.2253  0.0113 -0.1065
59509W        W 2500  32.975  15.286  10.854  0.2080  0.2189  0.1563
59510W        W 2501   1.862  30.961  22.404 -0.2217 -0.1083 -0.3273
59511W        W 2502  33.655  25.943  25.121 -0.0055 -0.4970  0.0833
59512W        W 2503   3.361  18.081   6.639 -0.3129  0.1722 -0.0066
59513W        W 2504   9.350  31.312  28.823  0.1183 -0.0359  0.1245
59514W        W 2505  25.004  16.069  22.090 -0.0027 -0.1283 -0.0992
59515W        W 2506  20.979  15.725  29.038  0.0375 -0.0922 -0.1199
59516W        W 2507  33.377  15.476   0.297  0.0347  0.2336 -0.1294
59517W        W 2508   3.925  24.536   8.079 -0.0781 -0.1578 -0.2362
59518W        W 2509  26.290  10.238  14.839 -0.1749 -0.4442  0.2697
59519W        W 2510   9.578  22.016  15.162  0.1074 -0.2360  0.1120
59520W        W 2511  17.737   4.191  23.951  0.1341  0.1292  0.1687
59521W        W 2512   8.492  20.684   8.628 -0.2876  0.0441  0.0684
59522W        W 2513  27.770  19.904  16.451  0.0273 -0.0537 -0.1588
59523W        W 2514  22.232   3.750  23.431 -0.2368 -0.2757  0.0599
59524W        W 2515  13.451   9.293  10.116  0.0551  0.2203  0.1226
59525W        W 2516   7.076  33.072  19.774 -0.2040  0.0310 -0.0379
59526W        W 2517  11.587   3.133  25.852 -0.0218  0.3436 -0.1978
59527W        W 2518  10.152   8.368  23.100 -0.0058  0.1697 -0.0515
59528W        W 2519  18.989  11.533   4.313  0.0111 -0.1235 -0.0142
59529W        W 2520   0.890  12.899   1.381  0.0785 -0.1161  0.0652
59530W        W 2521  10.209   7.507  29.047  0.1395  0.1067 -0.0650
59531W        W 2522   2.869  12.968  23.033  0.4003 -0.0163  0.2528
59532W        W 2523  23.702  18.732  14.991 -0.4036  0.2231 -0.0153
59533W        W 2524  28.216  28.326  28.975  0.1653  0.4359 -0.0358
59534W        W 2525   9.991   9.771  16.421  0.1346  0.2003 -0.1086
59535W        W 2526   0.384  18.730   2.179 -0.1147 -0.0309 -0.4758
59536W        W 2527  17.731  22.215   6.505  0.0268  0.1733  0.0068
59537W        W 2528   6.637  29.282  17.312  0.1420  0.1038 -0.0446
59538W        W 2529   3.745   7.830  22.373 -0.0501 -0.0442  0.1361
59539W        W 2530   0.226  32.467  24.388 -0.0372  0.1613 -0.3986
59540W        W 2531  14.260  12.499  20.500  0.3533 -0.1735  0.1561
59541W        W 2532  21.055  18.975  17.177  0.1419 -0.0614  0.2035
59542W        W 2533  12.202   6.790   6.010  0.0680  0.0347  0.0019
59543W        W 2534   1.813   6.608  10.229 -0.2154  0.1026  0.3074
59544W        W 2535   6.120   3.569  24.287 -0.1728  0.0053  0.2653
59545W        W 2536  15.300  19.699  26.526  0.1886 -0.0113  0.0195
59546W        W 2537  14.668  24.758  17.774 -0.2038 -0.2205 -0.0067
59547W        W 2538   4.190  16.009  16.829 -0.0428 -0.4435  0.0316
59548W        W 2539  15.299  13.234   7.038  0.0152 -0.0896 -0.0088
59549W        W 2540   7.668   7.856  22.713  0.2073  0.2352 -0.0633
59550W        W 2541  14.537   1.201  27.556 -0.1898  0.1019 -0.4130
59551W        W 2542  12.658  17.714  22.387  0.2877  0.2110  0.2411
59552W        W 2543   7.669   0.535  19.705 -0.2177 -0.2282  0.1465
59553W        W 2544  11.893  22.203   9.486 -0.0085 -0.1776  0.3988
59554W        W 2545   9.395   3.242   0.949  0.1759  0.0726  0.0030
59555W        W 2546   5.537  19.756   1.234 -0.0214  0.2280  0.0307
59556W        W 2547  17.203  17.755   3.964  0.3391  0.0508  0.1493
59557W        W 2548   9.769  21.116   8.493 -0.0776  0.0003 -0.0241
59558W        W 2549  10.756  17.777  24.772 -0.3303 -0.0339  0.1496
59559W        W 2550   3.980  18.482   9.728  0.0368 -0.0787 -0.2362
59560W        W 2551  11.311  27.706  14.347  0.0059  0.1350 -0.1367
59561W        W 2552  17.798   2.458  22.028 -0.0006 -0.0553  0.0358
59562W        W 2553   4.061  16.300  22.568 -0.1518  0.0359 -0.3589
59563W        W 2554  20.327  15.186  22.471 -0.0801  0.4869 -0.3102
59564W        W 2555  30.662  24.613  24.934 -0.0690  0.0960  0.1810
59565W        W 2556  34.680  12.073  17.561  0.1855  0.0569  0.2314
59566W        W 2557  19.795   5.569  18.081 -0.1854  0.2729  0.2937
59567W        W 2558  22.258  14.218  20.143 -0.0199  0.1354 -0.0110
59568W        W 2559   2.106  22.197   2.587  0.0496  0.1165  0.1083
59569W        W 2560  19.176   3.151  23.480 -0.2897 -0.0691  0.2026
59570W        W 2561  23.557  33.738   6.726  0.2487  0.4508  0.1834
59571W        W 2562  27.047  14.910  18.345  0.0090  0.0728 -0.3473
59572W        W 2563   7.296  12.321  25.593  0.3249 -0.1702  0.3361
59573W        W 2564   4.519  14.757   8.496 -0.1826  0.0729  0.0611
59574W        W 2565  34.081  33.947  19.479  0.3596  0.0847 -0.1101
59575W        W 2566   5.751  22.962   2.089  0.1691  0.0171 -0.1461
59576W        W 2567  14.171  28.750   8.563  0.0470  0.2725 -0.1544
59577W        W 2568  32.015  16.440  24.444  0.0563  0.0877  0.2257
59578W        W 2569  14.813  14.072  15.613  0.0677  0.0423 -0.0807
59579W        W 2570   6.291  13.941   3.928  0.2685 -0.0124 -0.0742
59580W        W 2571  27.685  22.990   1.200 -0.1768 -0.1474  0.1057
59581W        W 2572  16.415  14.333   5.986 -0.1381  0.0183 -0.2985
59582W        W 2573  15.901  21.742   7.045 -0.0247  0.0305  0.0586
59583W        W 2574  17.529   8.003  18.369  0.1985  0.2772  0.1746
59584W        W 2575  30.279   6.443  21.583  0.0625  0.0927 -0.3367
59585W        W 2576  11.573  19.507  17.500 -0.0880 -0.2682  0.2182
59586W        W 2577  15.275  21.221   6.363  0.3096  0.2771  0.5280
59587W        W 2578  26.544   6.001  15.086 -0.1546 -0.4938 -0.1686
59588W        W 2579  14.784  10.722  19.133  0.2181 -0.1268  0.2272
59589W        W 2580  12.669  30.725  18.830 -0.1738 -0.1084 -0.2227
59590W        W 2581  19.792   4.799   8.768 -0.1521  0.1008  0.1141
59591W        W 2582  26.261  19.840  20.745 -0.1545 -0.0044 -0.0964
59592W        W 2583   8.380  14.240  27.968 -0.0196 -0.2194  0.0920
59593W        W 2584   0.555  21.823   5.586  0.0398  0.1742 -0.1178
59594W        W 2585   8.187  21.547  25.605  0.0975  0.0048  0.1616
59595W        W 2586  16.004  21.778  15.742  0.1684 -0.2361 -0.1848
59596W        W 2587  12.165  20.400   3.732  0.1612  0.2348  0.0336
59597W        W 2588   2.518   5.022  11.016 -0.3799 -0.1481  0.0060
59598W        W 2589  17.599   2.132  25.210 -0.2611  0.2434  0.4568
59599W        W 2590  15.784   8.783  17.136 -0.1743  0.1664 -0.1227
59600W        W 2591  14.182  31.305   2.530  0.0640  0.0604  0.2234
59601W        W 2592   3.289  21.765  25.506  0.0677  0.0160 -0.0806
59602W        W 2593  32.618  27.789   4.769  0.0686 -0.1268  0.2541
59603W        W 2594  13.415  23.584  24.299  0.0161  0.1108 -0.0041
59604W        W 2595  33.695  21.507   3.619  0.2003  0.4768  0.0746
59605W        W 2596  26.928  33.348  20.712 -0.0265  0.4738 -0.1246
59606W        W 2597  15.412   5.004   6.988 -0.2577  0.3768 -0.2433
59607W        W 2598   1.014  22.718  27.887 -0.0240  0.0189 -0.1962
59608W        W 2599   2.948   6.864  24.181  0.2100 -0.1337 -0.4170
59609W        W 2600   9.367   0.829   6.316  0.2083 -0.0610 -0.2144
59610W        W 2601  21.154  17.737   1.181  0.1603  0.1501  0.0096
59611W        W 2602  19.511  29.613  14.311 -0.2862 -0.1580  0.1609
59612W        W 2603  15.404   7.373  22.906  0.0644 -0.2154 -0.2634
59613W        W 2604   9.400  11.292  25.663  0.3438  0.1658  0.4245
59614W        W 2605  23.241  24.624   1.888 -0.2137 -0.5135 -0.0750
59615W        W 2606  19.690  15.691  21.934  0.3369 -0.2139  0.1154
59616W        W 2607  10.272  23.825   2.576 -0.3209  0.0358  0.1930
59617W        W 2608  11.689  13.397  16.501 -0.0426  0.0482 -0.0367
59618W        W 2609  29.140  12.381   3.895 -0.2239  0.0605  0.0859
59619W        W 2610  21.768   2.100  19.899  0.0454 -0.0097 -0.0256
59620W        W 2611   1.442  14.781   9.432 -0.1008 -0.0940  0.3258
59621W        W 2612  16.924  22.918  27.203  0.0071 -0.0439  0.0476
59622W        W 2613  16.802   4.457  26.838  0.1192  0.2383  0.1740
59623W        W 2614  16.575  22.310   5.563 -0.0620 -0.0104 -0.0839
59624W        W 2615   9.906  15.590   7.784  0.2940  0.1290  0.1286
59625W        W 2616   9.414  31.485   0.950 -0.1007  0.1313  0.0544
59626W        W 2617  11.357  33.780  27.592 -0.0252  0.1075 -0.0754
59627W        W 2618   2.925   9.578   3.754 -0.2145 -0.1185  0.0268
59628W        W 2619  17.608  19.378  23.116  0.2104 -0.2557  0.0284
59629W        W 2620  31.309  22.754   0.094 -0.1503  0.0273  0.1016
59630W        W 2621  17.168   5.666  24.338 -0.3224  0.1390  0.2385
59631W        W 2622  32.877  25.489  27.020  0.0532  0.1356  0.1402
59632W        W 2623  17.084  30.997   8.512 -0.0998 -0.0788  0.5039
59633W        W 2624  14.083  24.375   9.064  0.2737 -0.3544 -0.0567
59634W        W 2625   7.712   8.947  26.031  0.1599  0.2262  0.4838
59635W        W 2626  11.720  11.722  29.168  0.2735  0.2024  0.0348
59636W        W 2627  12.956   2.530  28.877 -0.2591 -0.0407 -0.0325
59637W        W 2628   7.631  12.764  18.282 -0.3022 -0.0151  0.0831
59638W        W 2629   0.238  18.008   7.140  0.0884 -0.1021 -0.1147
59639W        W 2630   4.890  16.699  20.196  0.3250  0.1736  0.2976
59640W        W 2631  11.373  14.556  22.485 -0.1909 -0.0065 -0.2006
59641W        W 2632  16.607  20.888  20.491  0.0129 -0.2088  0.1877
59642W        W 2633  21.089   3.858  15.914  0.2299  0.0780 -0.4140
59643W        W 2634  29.923  20.443   7.664 -0.0799  0.0523 -0.1557
59644W        W 2635  25.467  29.889   2.023  0.3093 -0.0475  0.5162
59645W        W 2636   6.440  19.637  22.310 -0.1832 -0.2223 -0.0218
59646W        W 2637  14.660   1.076  28.527 -0.2154  0.0869  0.2128
59647W        W 2638  30.091  30.331  27.892 -0.2983  0.0915  0.1316
59648W        W 2639   9.768  21.519   5.818 -0.1519 -0.1568 -0.0805
59649W        W 2640  12.532  19.488  27.524  0.1212 -0.3630  0.3911
59650W        W 2641  11.731  18.487  28.201 -0.1063 -0.0298 -0.2509
59651W        W 2642  29.577   4.271  29.034  0.2034 -0.3857  0.1549
59652W        W 2643  11.547  15.280   1.300  0.3740  0.2342  0.1062
59653W        W 2644   7.015  22.066  21.344  0.0079 -0.1437  0.1954
59654W        W 2645  16.192  18.481   4.949 -0.0240  0.1031 -0.1988
59655W        W 2646  21.495  23.357   3.589 -0.1938 -0.2604  0.0266
59656W        W 2647  11.440  16.940   2.426 -0.1876 -0.0722  0.0458
59657W        W 2648  32.438  19.354  19.371 -0.2183  0.0430  0.3223
59658W        W 2649   3.681   8.242  16.939 -0.1472 -0.0442  0.0049
59659W        W 2650  30.681  14.826   5.849  0.0941 -0.0656 -0.0113
59660W        W 2651  16.617   6.285   5.325  0.1146  0.1527 -0.0193
59661W        W 2652   3.912   6.399  25.898  0.2182 -0.0163 -0.0228
59662W        W 2653  24.564  28.323  17.600 -0.0064 -0.0308 -0.1744
59663W        W 2654   7.490  23.338  10.245 -0.1150 -0.0373  0.1047
59664W        W 2655   4.721  24.054   9.887 -0.1080 -0.2149  0.1752
59665W        W 2656  16.545  11.345   3.995  0.0343 -0.0379 -0.1123
59666W        W 2657   6.762  32.360   4.618 -0.1419  0.0367  0.0261
59667W        W 2658   7.540  20.264   4.372  0.3624 -0.0409 -0.0013
59668W        W 2659   7.086  19.601  25.125  0.1694 -0.0906  0.4840
59669W        W 2660  22.187  23.426   3.421 -0.0647  0.0057  0.0163
59670W        W 2661  18.172  18.215  26.548  0.2476  0.0878 -0.0020
59671W        W 2662   0.545   6.826   1.894  0.0021  0.2839 -0.3618
59672W        W 2663  19.082   2.086   1.307 -0.0408  0.2489 -0.1127
59673W        W 2664  15.515  18.117   4.223 -0.1651  0.0883  0.0506
59674W        W 2665   4.377  33.493  18.135  0.0155  0.1385  0.0141
59675W        W 2666  29.052  31.159   6.482 -0.2245 -0.1053 -0.2361
59676W        W 2667  17.821   2.076   7.005  0.2476 -0.1872 -0.1720
59677W        W 2668   4.972   6.289  18.679 -0.0996 -0.1847 -0.3318
59678W        W 2669   7.324  33.411  22.067  0.3844  0.3062  0.1886
59679W        W 2670  23.220   9.723  22.709  0.3516 -0.1969 -0.0484
59680W        W 2671   4.959  22.114  26.018 -0.0611 -0.1974 -0.2634
59681W        W 2672   7.704  10.803  15.237 -0.0654  0.0447 -0.1579
59682W        W 2673   6.231  23.749  27.760  0.0743 -0.0342  0.1215
59683W        W 2674   7.150  22.847  15.675  0.0617 -0.0606  0.2265
59684W        W 2675  10.479  21.802  28.302  0.0289  0.2227  0.0281
59685W        W 2676  20.707  31.750   5.008  0.2688 -0.1123 -0.1449
59686W        W 2677  15.368   8.219  26.951 -0.0893 -0.0457  0.2131
59687W        W 2678  26.539  12.462  27.282 -0.0895 -0.1729  0.2012
59688W        W 2679  15.976   8.193  15.108  0.1399  0.2220 -0.0580
59689W        W 2680  31.757  11.625  25.510 -0.1796 -0.0838  0.0658
59690W        W 2681  12.452  32.351   9.390 -0.0336  0.3646  0.0332
59691W        W 2682  16.050  26.656   5.598  0.1166  0.0364  0.0881
59692W        W 2683  24.576  22.237  19.362 -0.0293 -0.2601  0.2193
59693W        W 2684  15.485  14.543   0.206 -0.1194  0.2268  0.2719
59694W        W 2685  11.536  28.416  24.030 -0.1513  0.1441  0.1466
59695W        W 2686   4.136   7.770   4.875  0.2588 -0.1279 -0.1246
59696W        W 2687  19.456   4.370  24.920 -0.0244 -0.1039  0.0520
59697W        W 2688   6.048  11.648   1.466  0.2631  0.1121 -0.1200
59698W        W 2689   5.147  20.672   4.745 -0.2098  0.0523  0.0448
59699W        W 2690  15.249  22.055  24.145 -0.3777  0.0296 -0.7334
59700W        W 2691   1.085  25.324  19.318 -0.1111 -0.0674  0.0267
59701W        W 2692   5.732  15.563  17.819  0.0716  0.0971  0.1803
59702W        W 2693  18.469  12.991  24.420  0.2490 -0.1743 -0.0395
59703W        W 2694   3.197   5.235  20.837 -0.3631  0.2271 -0.0475
59704W        W 2695  14.727   5.314   3.815  0.1929  0.0158  0.1609
59705W        W 2696   4.504  25.199  23.656  0.0148 -0.0357  0.0160
59706W        W 2697  12.181   1.271   6.902  0.3623  0.2470 -0.0680
59707W        W 2698   8.371  31.179   3.221 -0.0208  0.3294  0.2586
59708W        W 2699  32.634  14.243  26.456  0.2701 -0.2576  0.1902
59709W        W 2700  31.683   6.656  28.768  0.1124 -0.1793 -0.0236
59710W        W 2701   2.205  12.903  26.462 -0.2080 -0.0218  0.0688
59711W        W 2702   7.851   4.526   3.356  0.1828  0.0242  0.0995
59712W        W 2703  12.491   6.850   1.507 -0.1374 -0.1120  0.3233
59713W        W 2704  20.154   7.743   5.664  0.1054 -0.0237 -0.1069
59714W        W 2705  29.894  24.918   1.942  0.1576 -0.2345 -0.2233
59715W        W 2706   9.041  28.632   1.684  0.1609 -0.2620 -0.1785
59716W        W 2707  11.147  16.447  18.467  0.0095  0.3919  0.2492
59717W        W 2708  19.450  26.047  27.197  0.2004  0.2326 -0.0228
59718W        W 2709   4.421  19.880   2.068  0.2215 -0.0082 -0.3125
59719W        W 2710  25.919   9.366   8.007 -0.0172  0.0579 -0.0173
59720W        W 2711  16.944  18.914  12.463 -0.2751  0.0536 -0.0456
59721W        W 2712  18.722  20.692  13.321 -0.3042  0.2448  0.1682
59722W        W 2713  31.637  25.554  13.570 -0.3030  0.2844  0.0827
59723W        W 2714  15.475  11.239  19.995 -0.1166  0.4237 -0.0304
59724W        W 2715  20.772  10.581  28.371 -0.3012 -0.0593 -0.1022
59725W        W 2716  11.142  26.188  24.400 -0.2084 -0.0168  0.1453
59726W        W 2717   9.439   9.892   4.396  0.0696  0.2978  0.1171
59727W        W 2718   9.809   2.627   9.668  0.0928 -0.1023 -0.1071
59728W        W 2719  12.261  23.461  27.291 -0.1200 -0.1428  0.1107
59729W        W 2720  18.470   7.325  24.918 -0.0915  0.0051  0.2248
59730W        W 2721  13.292  15.337  25.665  0.0725 -0.0692  0.1621
59731W        W 2722  20.588   5.071  25.883  0.1714  0.1767  0.1376
59732W        W 2723  22.796   2.615  21.121 -0.2600 -0.2766  0.1006
59733W        W 2724  29.506  26.186   2.543 -0.1445 -0.2372 -0.0126
59734W        W 2725  15.889   2.805  22.915  0.0828 -0.0733 -0.0831
59735W        W 2726  15.083   8.661  17.781  0.0156  0.0122  0.1481
59736W        W 2727  29.271  20.019  22.827  0.1942  0.0537 -0.0416
59737W        W 2728  32.360  14.258  11.425 -0.3402 -0.0318  0.2447
59738W        W 2729  32.168  18.478  15.601 -0.0162 -0.0764 -0.0022
59739W        W 2730  14.050  19.512   4.479 -0.4197  0.0587  0.0480
59740W        W 2731   9.810  14.417   7.238  0.0853  0.0607 -0.1339
59741W        W 2732  26.106  23.661   9.041 -0.0138  0.2021  0.1215
59742W        W 2733  10.458  24.418  17.097  0.1861 -0.0627  0.1480
59743W        W 2734  17.727  20.379  22.723  0.0018  0.0477 -0.0243
59744W        W 2735  28.729  17.540  25.189 -0.2947  0.0279 -0.3535
59745W        W 2736  34.072  19.166  17.996  0.3948 -0.1109  0.0293
59746W        W 2737   4.050  29.698  23.691 -0.3639  0.0081  0.0937
59747W        W 2738  17.296   3.852  26.114 -0.0444 -0.5248  0.1720
59748W        W 2739   0.254  12.447  28.929  0.0239  0.1057 -0.1846
59749W        W 2740  25.293   3.559  19.514 -0.3170  0.3168 -0.0770
59750W        W 2741  22.464  19.300  21.668  0.0835 -0.1044  0.4027
59751W        W 2742  13.465  20.024   2.272 -0.1861 -0.0392  0.3600
59752W        W 2743  17.272  29.644  28.369 -0.0311  0.0152 -0.3601
59753W        W 2744   9.490   8.661  20.939  0.3775  0.0317  0.2357
59754W        W 2745  34.361  19.877  17.040 -0.0521  0.2430 -0.1648
59755W        W 2746  22.962  20.754  18.268  0.2797 -0.1253  0.1921
59756W        W 2747  15.184  22.524  14.562  0.3461 -0.0524 -0.1595
59757W        W 2748   7.897  33.353   0.150  0.0269 -0.1671  0.1712
59758W        W 2749   7.573  12.644   3.948 -0.2205  0.5528 -0.2849
59759W        W 2750   4.234  18.623   0.541 -0.3009  0.2374  0.0498
59760W        W 2751   6.186  12.481   4.497 -0.1165 -0.4913  0.0238
59761W        W 2752  11.148   2.878   5.163 -0.1432  0.0593 -0.1110
59762W        W 2753  33.455  22.140   3.115  0.1546  0.0989 -0.1705
59763W        W 2754  30.313  14.357   2.024  0.2819  0.1031  0.0643
59764W        W 2755   2.775  10.156  26.228 -0.2976 -0.0489  0.0320
59765W        W 2756   3.989  15.278   3.163 -0.5177 -0.0361  0.0650
59766W        W 2757  10.095  24.789   7.904 -0.0558  0.1927 -0.0105
59767W        W 2758  12.723   4.204  18.928 -0.1972 -0.0112 -0.1660
59768W        W 2759   7.903  14.850  26.056  0.0979 -0.3092  0.0262
59769W        W 2760   7.928  13.616  24.115  0.0310  0.2202 -0.0217
59770W        W 2761  17.370  31.838  23.574 -0.2372 -0.0236 -0.1547
59771W        W 2762  17.107   0.383  18.796  0.1746 -0.0362  0.3822
59772W        W 2763   4.208  13.585   5.863  0.2953  0.2268  0.1053
59773W        W 2764   9.506  33.654   3.494  0.1565  0.0553 -0.1111
59774W        W 2765  18.782  32.507  20.998 -0.0007 -0.0688 -0.3177
59775W        W 2766   2.075   8.996  19.816  0.2838 -0.1042 -0.0196
59776W        W 2767  14.070   6.919   2.985  0.1251  0.1588  0.1917
59777W        W 2768  12.541  15.290   9.310  0.0227 -0.0328  0.1158
59778W        W 2769   9.543  28.177   6.726 -0.0582  0.2784 -0.0942
59779W        W 2770   8.479  17.024  26.387 -0.3722  0.0016  0.0569
59780W        W 2771   6.224  23.013   3.327  0.0089  0.3039 -0.3905
59781W        W 2772  25.791   6.112  25.733 -0.2685 -0.0541  0.0204
59782W        W 2773  25.540  34.462  17.872  0.2797 -0.0057 -0.2294
59783W        W 2774  24.168   1.793  27.856  0.1210  0.2790  0.2976
59784W        W 2775  32.012  16.307  29.032  0.0680  0.0011 -0.2018
59785W        W 2776   7.943  10.841   0.696  0.2092  0.0936  0.0459
59786W        W 2777  16.917   4.174   2.777  0.0672  0.1555 -0.1470
59787W        W 2778   8.387  30.940  21.360  0.2596 -0.1972  0.2191
59788W        W 2779  19.137  19.902  26.438  0.0817 -0.1788 -0.0146
59789W        W 2780   7.840  21.762   7.329  0.1484 -0.2981  0.1053
59790W        W 2781  26.179  25.665   4.808  0.1050  0.1482 -0.0682
59791W        W 2782  32.605   0.886  23.114  0.1661 -0.0837  0.3064
59792W        W 2783   7.330  16.828  27.295  0.0203 -0.1426 -0.1363
59793W        W 2784  20.195   3.462   4.189  0.0451 -0.1475  0.0158
59794W        W 2785  16.131  14.482   8.757 -0.1541 -0.0300  0.0806
59795W        W 2786  11.836   6.402  15.982  0.0991 -0.3803  0.1944
59796W        W 2787   1.664  27.451   2.756  0.1796 -0.3472  0.2763
59797W        W 2788  30.272  30.573   4.021  0.1282 -0.3905  0.1207
59798W        W 2789  14.208  20.346  27.855  0.1350 -0.1201 -0.0125
59799W        W 2790   6.453  31.188  17.567  0.0751  0.2742 -0.0857
59800W        W 2791   0.254   0.509  27.570 -0.4005 -0.0884  0.1211
59801W        W 2792  21.876  18.188   0.752  0.2710 -0.0221  0.0972
59802W        W 2793   4.917   6.593  23.463  0.0864  0.1021  0.1583
59803W        W 2794  20.181   2.783   8.515  0.1943  0.0081 -0.0952
59804W        W 2795  12.395  17.406   8.595  0.0893 -0.0325 -0.2674
59805W        W 2796  26.427  18.744  28.376  0.4073 -0.0818  0.1408
59806W        W 2797  20.449  29.149   3.689  0.3052  0.1138  0.0872
59807W        W 2798  16.648  23.646   8.182  0.0682 -0.0745 -0.1124
59808W        W 2799  12.618  15.518  10.194  0.0211  0.3135  0.1113
59809W        W 2800  15.300  29.248   8.149  0.1821  0.1684  0.1429
59810W        W 2801   8.525   1.751  26.064 -0.0138 -0.1325 -0.3571
59811W        W 2802  30.178  21.419   3.014  0.1458  0.0892 -0.1145
59812W        W 2803  14.385  21.900  19.628  0.0607 -0.0462  0.2440
59813W        W 2804   2.448   9.085   8.269  0.1134  0.0322 -0.3834
59814W        W 2805  10.932   5.680  21.008 -0.2382  0.1333 -0.1033
59815W        W 2806  32.861  19.434  10.913  0.0570 -0.2050  0.2262
59816W        W 2807   3.960  15.801   5.405 -0.1632  0.1044 -0.3396
59817W        W 2808   3.678  25.048   0.214 -0.0924  0.0861 -0.3084
59818W        W 2809  23.296  22.834  24.281  0.3374 -0.0865  0.1525
59819W        W 2810   4.594  15.493  22.280  0.0144 -0.1125 -0.1851
59820W        W 2811   7.983  26.075  17.812  0.0600  0.2081  0.1590
59821W        W 2812   6.856   8.621   1.446  0.0981  0.1643  0.1853
59822W        W 2813   1.094  25.434   3.687  0.1005 -0.1113 -0.0139
59823W        W 2814  10.055  31.504   4.470 -0.3291  0.2204  0.2558
59824W        W 2815   4.358  21.778  15.947  0.1334 -0.0637  0.0716
59825W        W 2816  17.700  13.598  18.031  0.0412  0.0411 -0.0711
59826W        W 2817  23.312  15.389  15.896  0.0368 -0.1064  0.3461
59827W        W 2818   4.575  10.246  27.319 -0.1663 -0.3519  0.2126
59828W        W 2819  34.276  14.454  16.929 -0.1865  0.0197  0.1309
59829W        W 2820  20.275  11.280   8.238  0.2115  0.0533 -0.1975
59830W        W 2821  21.942   9.901  17.022 -0.1002  0.1885 -0.0442
59831W        W 2822  11.840   7.041  18.557 -0.0666  0.1008  0.4015
59832W        W 2823  13.721  18.268  26.965  0.0318  0.0494 -0.1466
59833W        W 2824   6.050  24.822  18.286  0.0681 -0.0804 -0.1703
59834W        W 2825   4.952  32.215  24.387 -0.2907  0.2229  0.2088
59835W        W 2826  17.939  27.119  26.107 -0.0550 -0.2548  0.0460
59836W        W 2827   6.280  22.009  16.633  0.1949  0.0556 -0.1515
59837W        W 2828  20.179  18.999   0.509 -0.0762 -0.6073  0.2071
59838W        W 2829  24.258  11.947  27.753 -0.0736  0.0332  0.1126
59839W        W 2830   9.790  30.528   8.045  0.2270  0.1472 -0.0462
59840W        W 2831   8.465   0.207   7.836 -0.0845  0.1455  0.1647
59841W        W 2832  11.944  21.761  22.592  0.2686  0.2924  0.0411
59842W        W 2833  32.572  32.962  23.361 -0.0566 -0.1715  0.4353
59843W        W 2834   0.337  29.183   5.606  0.1495  0.2340  0.1020
59844W        W 2835  34.570  23.137  21.201  0.2979  0.1979 -0.1217
59845W        W 2836  11.836   0.761  26.112  0.0306  0.2018 -0.1414
59846W        W 2837   3.811  21.398  23.611 -0.1391  0.0861  0.0009
59847W        W 2838  26.182  18.746   2.729 -0.0493  0.0917  0.2533
59848W        W 2839   3.152   2.961  20.981  0.1044 -0.1284  0.3178
59849W        W 2840  11.113   2.601   9.136  0.3034 -0.1987  0.1760
59850W        W 2841  23.594  19.944  29.158  0.1272  0.0289  0.1685
59851W        W 2842  11.758  26.664  17.170  0.0795  0.1914  0.0779
59852W        W 2843  17.996   5.659  27.018 -0.0373 -0.0643 -0.2198
59853W        W 2844  16.540   8.046  23.304 -0.0152 -0.1603 -0.1860
59854W        W 2845  31.337  11.561   8.734  0.2536 -0.1296  0.3029
59855W        W 2846  11.179  18.841   4.619  0.0387 -0.1920 -0.0761
59856W        W 2847   9.265  16.168  25.733 -0.3965  0.2391 -0.0238
59857W        W 2848  28.395  16.898  19.941  0.2309  0.3321  0.1561
59858W        W 2849  22.742  14.436  22.312 -0.0115 -0.1286 -0.1305
59859W        W 2850  19.428  21.472  16.120  0.1346  0.1056  0.1610
59860W        W 2851  10.437  32.939   0.945 -0.1090 -0.3633  0.3133
59861W        W 2852   5.274  29.919   6.057 -0.0358 -0.3674  0.3185
59862W        W 2853   8.659  19.100   7.969  0.0989  0.2050 -0.1177
59863W        W 2854  32.240  13.713   0.291 -0.0738  0.2200  0.2764
59864W        W 2855  22.785  16.783   4.022 -0.0832  0.1263  0.0707
59865W        W 2856  13.484   6.182  26.797  0.1211  0.0539 -0.0134
59866W        W 2857  10.273   6.157   3.245 -0.1947  0.2117 -0.3544
59867W        W 2858  17.550  17.473   4.670  0.1130 -0.2392  0.0925
59868W        W 2859  32.472  18.920  27.425  0.1013 -0.3605  0.0380
59869W        W 2860  11.203  33.634   5.000  0.1609  0.1987  0.2335
59870W        W 2861   6.577  34.311  24.219 -0.0617 -0.1288 -0.0322
59871W        W 2862   4.745  14.211  10.282  0.1416  0.2498  0.0720
59872W        W 2863   6.270   6.434  27.024  0.2527 -0.0565 -0.1144
59873W        W 2864  33.192  19.673   1.982 -0.3381  0.4679 -0.3708
59874W        W 2865  12.372   8.621  19.078  0.0622  0.1886 -0.3301
59875W        W 2866   9.188  24.305   7.562 -0.0875 -0.0784 -0.0178
59876W        W 2867   2.132   7.798   2.948 -0.4191  0.1017  0.1735
59877W        W 2868   8.206  27.240   8.604 -0.0487  0.0386  0.0555
59878W        W 2869  30.629  15.571  18.454  0.0460  0.0557 -0.2041
59879W        W 2870  11.614  32.571  22.947 -0.1031 -0.0740 -0.3742
59880W        W 2871   4.885   3.864   1.557  0.2013 -0.1461  0.1124
59881W        W 2872  10.140  10.137   4.817 -0.2153  0.2661 -0.2315
59882W        W 2873  14.149  23.890   5.656 -0.1066 -0.1646 -0.1829
59883W        W 2874  32.087  31.849  27.609  0.0165 -0.0272 -0.0621
59884W        W 2875   3.141  18.159   4.788  0.1091  0.3026  0.1252
59885W        W 2876   7.801  17.675   9.974  0.0430 -0.1966 -0.3237
59886W        W 2877   0.148  14.653   5.969 -0.1091  0.1178 -0.4676
59887W        W 2878  31.447  17.827   7.533 -0.1761 -0.0107 -0.0826
59888W        W 2879  31.892   5.600  27.307  0.1200  0.1772 -0.1739
59889W        W 2880   5.914  31.188  24.861  0.0548 -0.2005 -0.0467
59890W        W 2881  12.456  14.907  22.025 -0.4197 -0.1129 -0.0094
59891W        W 2882  11.890  10.388   1.922  0.4202  0.3618  0.0911
59892W        W 2883  14.747  13.240  22.807  0.1110  0.3439 -0.0870
59893W        W 2884  20.762  13.998  15.384  0.0402  0.2371  0.1376
59894W        W 2885  18.466  25.272  19.091 -0.1103 -0.2556 -0.2188
59895W        W 2886  22.616  21.732  23.503  0.0379  0.2510  0.5345
59896W        W 2887  14.712  27.195  22.169 -0.1816 -0.0166 -0.2065
59897W        W 2888  17.551  22.673  16.179 -0.2027 -0.0254  0.0652
59898W        W 2889  33.394  18.357   1.720 -0.1007 -0.0663 -0.0039
59899W        W 2890  15.854  24.287  15.250  0.3796 -0.2529 -0.4017
59900W        W 2891   5.343  28.475  20.683 -0.2315  0.1578  0.1216
59901W        W 2892  14.122   9.206  19.059  0.2343 -0.0946  0.1976
59902W        W 2893   1.484  21.723  15.831  0.0884 -0.0618  0.2040
59903W        W 2894  22.406  25.420  26.809 -0.2036  0.1460 -0.0684
59904W        W 2895  33.097  24.594  24.808  0.1808 -0.0321 -0.0103
59905W        W 2896  11.043  15.996  23.173 -0.1611  0.1057 -0.0755
59906W        W 2897   7.620  15.618  24.748 -0.0294  0.0111  0.0123
59907W        W 2898  15.089  23.090  16.703 -0.1318  0.0751 -0.1027
59908W        W 2899  14.787  22.818  19.921 -0.0466 -0.0116 -0.0884
59909W        W 2900  15.453  25.618  14.708  0.4361 -0.3911 -0.1472
59910W        W 2901  32.799  26.135  19.557  0.0800  0.0145 -0.2342
59911W        W 2902   0.030  16.540  19.392  0.1360  0.0200 -0.3725
59912W        W 2903  17.922   7.710   5.248 -0.0412  0.1920 -0.0749
59913W        W 2904  33.667  15.803  23.547 -0.0916 -0.2700  0.0285
59914W        W 2905  17.283  24.227  15.967 -0.2558 -0.1299 -0.0481
59915W        W 2906   8.125   3.466   7.820 -0.0270 -0.2259  0.1597
59916W        W 2907  13.788  29.592  21.311 -0.1806 -0.1542  0.0896
59917W        W 2908   3.796  21.763   5.196  0.1508 -0.0275  0.1796
59918W        W 2909  11.206  33.448  20.460 -0.0724  0.0772  0.1160
59919W        W 2910  26.373  10.283  22.502  0.0548  0.5285 -0.2982
59920W        W 2911  13.212  12.088  19.991 -0.1131 -0.0263 -0.0590
59921W        W 2912  16.043   3.031  29.243  0.1692 -0.0826  0.0023
59922W        W 2913   2.031  16.426  17.075 -0.1317 -0.1706  0.0723
59923W        W 2914   0.852  10.378   1.148  0.2391 -0.1078  0.2052
59924W        W 2915  14.160  18.887  15.242  0.1707 -0.0565  0.3315
59925W        W 2916  25.758  32.320  13.609  0.0524  0.0623  0.0810
59926W        W 2917  25.905  30.050  20.269 -0.1661 -0.0492  0.1310
59927W        W 2918  15.217  34.387  14.709  0.0100 -0.2068  0.2162
59928W        W 2919  26.295  26.864  23.783 -0.2500  0.1927  0.1313
59929W        W 2920   8.776  20.078  21.688 -0.0895  0.0175 -0.2907
59930W        W 2921   2.698  24.548  16.459  0.2606 -0.1939 -0.0440
59931W        W 2922  21.253  15.927  23.544 -0.1582  0.0428  0.0953
59932W        W 2923  18.060  20.123  12.748 -0.1854 -0.2034  0.2670
59933W        W 2924  22.401  14.740  20.286  0.1275  0.2355 -0.0234
59934W        W 2925   8.343  27.537  23.695  0.0607 -0.3127 -0.1027
59935W        W 2926  23.457  16.725  14.492 -0.0220  0.5379 -0.0605
59936W        W 2927  16.918   3.649  17.419 -0.3040  0.2393  0.2413
59937W        W 2928  30.453   0.904   0.394  0.0012 -0.0797 -0.1058
59938W        W 2929  15.415  32.721  17.806  0.1743  0.4511 -0.1158
59939W        W 2930  11.420   9.747   1.245  0.1353  0.2880  0.1656
59940W        W 2931   0.548  16.162  27.701  0.0458 -0.2829 -0.2116
59941W        W 2932   2.934   3.800  17.432 -0.0613  0.0226  0.0337
59942W        W 2933  24.996   8.743  17.812  0.1476 -0.3936  0.0349
59943W        W 2934  13.576  25.744  15.101  0.2677 -0.2985  0.1883
59944W        W 2935  12.353  26.310  15.996  0.1003  0.0279  0.1267
59945W        W 2936  21.274  24.385  28.057 -0.2225  0.3502  0.0326
59946W        W 2937  28.565  14.331   3.542  0.0050  0.4246  0.3118
59947W        W 2938   8.202  29.545  20.615  0.3066 -0.0921 -0.0233
59948W        W 2939   5.652   4.900  25.524  0.1543 -0.0706  0.0230
59949W        W 2940   5.829   7.703  16.826  0.2328  0.0380 -0.0288
59950W        W 2941  32.139   6.264  28.924 -0.0658 -0.1462 -0.1860
59951W        W 2942   0.023  17.366  17.600  0.0302 -0.0865  0.4461
59952W        W 2943  25.837  29.746  19.212  0.0673  0.2230 -0.4452
59953W        W 2944  10.152  21.411  17.723 -0.3755 -0.1143  0.1803
59954W        W 2945   5.425  32.351  18.608  0.0650  0.0124  0.1509
59955W        W 2946   6.855  22.859  18.927  0.0726 -0.0077  0.2684
59956W        W 2947  11.554  24.306  20.993  0.3054  0.0621 -0.0894
59957W        W 2948  21.391  30.319  23.799  0.1826 -0.1075  0.2713
59958W        W 2949  10.175  12.142  26.135 -0.0649 -0.2137  0.1660
59959W        W 2950  24.199  20.296  17.981  0.0580 -0.2049 -0.3348
59960W        W 2951   7.619   7.312  20.454 -0.1809 -0.0366  0.1770
59961W        W 2952   0.735  20.947  26.067 -0.3172 -0.0716  0.4730
59962W        W 2953   4.008  22.149  21.783 -0.0313  0.0437 -0.0333
59963W        W 2954  25.209  24.046  22.791 -0.2379  0.0667 -0.0411
59964W        W 2955  20.657  21.186  17.705 -0.2161 -0.0408 -0.0124
59965W        W 2956   6.236   1.971  18.821  0.4608  0.2666  0.1121
59966W        W 2957  32.949  22.126  26.676 -0.1179 -0.1613 -0.0457
59967W        W 2958  13.841  25.514  27.721  0.1037  0.0243 -0.0672
59968W        W 2959  13.941  23.111  19.476 -0.1000 -0.1330 -0.2137
59969W        W 2960   5.124  32.399  17.139  0.1287  0.1584 -0.0981
59970W        W 2961   6.512  30.440  14.425  0.0792 -0.1364  0.2475
59971W        W 2962  25.645  11.996  24.688 -0.0558 -0.1367 -0.2441
59972W        W 2963  14.166  28.912  15.842  0.2958  0.3259  0.0819
59973W        W 2964  22.452  19.302  17.345  0.0351  0.1159  0.1767
59974W        W 2965  11.550  20.164  16.628 -0.2482  0.0666 -0.0991
59975W        W 2966   6.854  19.759  18.293  0.0055 -0.1497  0.0617
59976W        W 2967  11.949   9.866  19.708 -0.0266 -0.0152 -0.2181
59977W        W 2968  32.078   9.754  23.646 -0.1060  0.3680 -0.2389
59978W        W 2969  14.232  21.303  19.641 -0.2409  0.0331 -0.1109
59979W        W 2970   3.111   3.239  21.442  0.0484 -0.1425  0.2303
59980W        W 2971  25.704  21.904  14.387 -0.1573  0.1028  0.5903
59981W        W 2972  18.903  27.893  19.457 -0.0916 -0.1522 -0.1793
59982W        W 2973  26.482  12.656  16.544 -0.0013 -0.3353 -0.0011
59983W        W 2974  29.355   6.932  16.946 -0.2565  0.2472  0.2339
59984W        W 2975  33.417  13.138  23.375  0.3863  0.1813  0.2724
59985W        W 2976  21.087   5.097  26.176 -0.0652  0.3638  0.4409
59986W        W 2977  22.881   8.422  15.463  0.3718  0.0685  0.1288
59987W        W 2978  11.556  33.903  23.313 -0.1871 -0.0467  0.2003
59988W        W 2979  15.734  17.955  15.142 -0.1167  0.2824  0.1654
59989W        W 2980  12.807  26.920  19.648 -0.0217  0.2411  0.0391
59990W        W 2981  14.711  29.242  23.477 -0.1304  0.0141 -0.0213
59991W        W 2982   4.591  16.773  23.755 -0.2565  0.0063 -0.1490
59992W        W 2983  12.940  21.052  17.170  0.1514  0.1071  0.0379
59993W        W 2984  10.201  22.782  16.630  0.0015 -0.0018 -0.0077
59994W        W 2985  25.612  18.866  16.568 -0.2142  0.0284 -0.2725
59995W        W 2986  26.368  29.997   4.937 -0.2670  0.2557 -0.2503
59996W        W 2987  25.372  14.152  21.149 -0.2008  0.4672 -0.0361
59997W        W 2988  16.236  23.430  13.749 -0.0553  0.3669  0.2161
59998W        W 2989  10.884  24.086  28.363 -0.3130 -0.1028 -0.0319
59999W        W 2990  27.103  15.029  20.246 -0.0963 -0.2070  0.2187
60000W        W 2991   6.892  12.720  29.201  0.1389 -0.1121 -0.1119
60001W        W 2992  17.950  22.964  13.999 -0.2883 -0.2990 -0.1101
60002W        W 2993  31.394  33.990  28.032 -0.1519 -0.0801  0.2367
60003W        W 2994   9.175  18.719  15.176  0.1755 -0.5394  0.1974
60004W        W 2995  24.833  16.201  20.363 -0.1260  0.0254  0.1687
60005W        W 2996  17.255  26.710  14.339  0.0965 -0.1695 -0.0579
60006W        W 2997  16.561  30.253  23.751 -0.2848 -0.2110  0.2315
60007W        W 2998   6.902  19.001   2.251  0.0579  0.4140 -0.0340
60008W        W 2999   0.421  28.395  19.927 -0.1228  0.1652  0.0727
60009W        W 3000  25.810  17.300  19.590  0.0114  0.4248  0.1407
60010W        W 3001   9.929  13.459  21.861  0.2225  0.3276 -0.1333
60011W        W 3002   4.657  18.439  20.058  0.0254  0.4230 -0.0988
60012W        W 3003   7.189  18.226  17.356  0.1211  0.0432 -0.0867
60013W        W 3004   6.769  22.449  21.025 -0.0071  0.2202 -0.1075
60014W        W 3005   4.409  13.985  23.510  0.0426  0.3638 -0.1338
60015W        W 3006  10.179   8.378  21.574  0.1494 -0.3224  0.0358
60016W        W 3007   6.694  22.394  14.950 -0.2009 -0.0839 -0.2594
60017W        W 3008  10.796   4.615  22.693 -0.0180 -0.0239  0.1167
60018W        W 3009   6.061  17.694   1.535  0.3740 -0.0521  0.2450
60019W        W 3010   6.638  12.627  22.009 -0.4315 -0.0590 -0.3958
60020W        W 3011   4.122  22.500  16.556 -0.2021 -0.0049  0.1722
60021W        W 3012   9.855  33.932  28.251  0.2022  0.3058 -0.3190
60022W        W 3013  20.089   1.947  15.536 -0.0459  0.0251  0.1336
60023W        W 3014  16.119  23.772  27.204 -0.0721 -0.1157 -0.0020
60024W        W 3015  11.970  19.293  13.586  0.4771 -0.3454 -0.0641
60025W        W 3016  12.346  20.285  19.348 -0.2514  0.1391 -0.1280
60026W        W 3017  12.464   4.321  18.473  0.1508  0.0710 -0.0107
60027W        W 3018  18.510  26.912  15.412 -0.1820  0.3026  0.1348
60028W        W 3019   7.665  30.665  23.926  0.1139 -0.0809 -0.0152
60029W        W 3020   2.868  17.516  21.179  0.2177 -0.4744  0.4141
60030W        W 3021  11.092   9.816  16.273 -0.2494  0.0393  0.2029
60031W        W 3022   2.009  30.328  21.817 -0.0016  0.0678  0.0673
60032W        W 3023  11.089   7.056  21.944 -0.0243 -0.1481 -0.0785
60033W        W 3024  34.512  18.345  17.910 -0.1728  0.0725 -0.1612
60034W        W 3025  12.875  22.013   6.529 -0.2463  0.1161 -0.0669
60035W        W 3026   6.938  17.666   0.702 -0.3866  0.0905 -0.2657
60036W        W 3027   3.973  14.559  16.739 -0.2154 -0.1484  0.0921
60037W        W 3028  28.732  18.382  21.507  0.0969  0.2845  0.0490
60038W        W 3029  20.596  32.013  15.995 -0.1830  0.3886 -0.1514
60039W        W 3030   8.864  22.460  19.712 -0.2326 -0.1118 -0.0979
60040W        W 3031  26.393  15.110  24.869 -0.1574  0.0632 -0.1811
60041W        W 3032   0.103  21.871  17.892 -0.4230 -0.1251 -0.1085
60042W        W 3033  19.674  15.921  12.906 -0.0578  0.0748  0.0709
60043W        W 3034  22.190  21.820  18.887 -0.0730 -0.0818  0.4976
60044W        W 3035  10.438  23.888  14.461 -0.0417  0.0662  0.1195
60045W        W 3036   9.854  19.583  19.353 -0.1995 -0.1988  0.0800
60046W        W 3037  34.445  21.549  24.739  0.1435 -0.1212  0.0479
60047W        W 3038  30.249  22.743  14.345  0.0530  0.0657  0.3619
60048W        W 3039  16.892  15.940  13.058  0.5492 -0.0202 -0.1407
60049W        W 3040  28.023  26.964  17.808 -0.2393  0.1656  0.1879
60050W        W 3041  32.403   6.322  18.832  0.1960 -0.6994  0.1355
60051W        W 3042  28.424   2.141  17.252 -0.0904 -0.1590 -0.3078
60052W        W 3043  15.679   9.266   6.135 -0.3026 -0.0882 -0.0558
60053W        W 3044  20.351   4.152  18.680 -0.2768  0.1917 -0.2089
60054W        W 3045  17.130  12.389  20.013 -0.4316  0.2024  0.1898
60055W        W 3046  21.689  15.339  17.285 -0.0730 -0.1556 -0.0451
60056W        W 3047  32.156   9.107  26.882  0.0378  0.2736  0.1572
60057W        W 3048  15.277   3.359  24.850 -0.1189  0.0210  0.3402
60058W        W 3049  18.762  26.653  19.145 -0.0722 -0.1773  0.1129
60059W        W 3050  15.059  14.422  26.295  0.0046  0.0466  0.0848
60060W        W 3051   5.664  31.421  28.470 -0.4489  0.0894  0.2225
60061W        W 3052   7.911  14.025  22.473  0.1265  0.2240  0.0836
60062W        W 3053  19.462  14.927  22.183  0.0090  0.2508  0.0693
60063W        W 3054  32.463  22.727  20.075  0.2180 -0.1936 -0.0907
60064W        W 3055  19.756   3.705   4.057 -0.1661 -0.3585 -0.3617
60065W        W 3056  24.832  18.557  21.576 -0.2647 -0.0248 -0.2772
60066W        W 3057   4.306  26.300  22.518 -0.0838 -0.3360  0.0595
60067W        W 3058  29.411   8.693   6.417  0.2071  0.2106 -0.1616
60068W        W 3059   4.238   6.754  22.907 -0.2963  0.0677  0.0064
60069W        W 3060  10.377  25.981  15.146  0.1862  0.1548  0.0168
60070W        W 3061   9.718   5.591  19.688 -0.1820  0.0809  0.1144
60071W        W 3062   8.020  25.601  25.579 -0.0503 -0.0858  0.0335
60072W        W 3063  15.470  21.434  18.630  0.0154  0.1979 -0.1269
60073W        W 3064   6.674  28.056  24.476 -0.0694  0.2668  0.0565
60074W        W 3065  11.292  25.310  25.393  0.2255 -0.0003 -0.3318
60075W        W 3066   7.512  27.375  14.302  0.2997  0.0883 -0.4337
60076W        W 3067  15.605   6.106  27.251 -0.1296 -0.2669 -0.0183
60077W        W 3068  32.751  28.124  14.951  0.2002 -0.2002 -0.0718
60078W        W 3069   8.304   2.199   4.823  0.0246 -0.1152  0.0826
60079W        W 3070   1.144  21.517   0.727  0.0658 -0.4739  0.1792
60080W        W 3071   7.470  16.809  19.989 -0.0768 -0.0999  0.2721
60081W        W 3072   1.353  20.196  18.116  0.0621  0.1857  0.1217
60082W        W 3073  21.468  28.580  17.654 -0.3430  0.2153 -0.1290
60083W        W 3074   8.503  30.286  27.799 -0.1634 -0.0069  0.4034
60084W        W 3075  14.789  23.671  15.294  0.2435 -0.1427 -0.0628
60085W        W 3076  25.364  26.955  18.392  0.0464 -0.0906 -0.1049
60086W        W 3077   5.644  13.510  27.012  0.1116  0.0284  0.1625
60087W        W 3078   4.071  17.006  22.532  0.3070 -0.0287  0.1645
60088W        W 3079   5.588  31.201  20.568 -0.1290  0.1728  0.1635
60089W        W 3080  29.301  14.257  27.762  0.4488  0.1139 -0.0222
60090W        W 3081   7.863  22.648  23.419 -0.0429 -0.1820 -0.0702
60091W        W 3082  10.751  15.901  22.461 -0.0294  0.0106  0.1647
60092W        W 3083  12.363  32.479  24.972 -0.1407  0.1723 -0.2759
60093W        W 3084   4.007   6.522  19.083  0.0727  0.1688  0.2381
60094W        W 3085  19.539  22.826  13.031  0.1184 -0.2817 -0.1331
60095W        W 3086   3.494  14.453   4.617 -0.1776  0.0018  0.0171
60096W        W 3087  18.104  16.438  23.632 -0.1176  0.1801  0.1877
60097W        W 3088  23.375   5.637  25.202  0.0835  0.0938 -0.0248
60098W        W 3089  14.898  25.659  20.402 -0.2078  0.2898 -0.2545
60099W        W 3090  11.468  21.597  17.742  0.0375 -0.1953  0.0635
60100W        W 3091  15.865  30.808  28.869 -0.1413 -0.0015 -0.2201
60101W        W 3092  26.902  24.111  21.851  0.1957  0.1586 -0.0788
60102W        W 3093   3.106  21.222  25.497 -0.1179  0.2232 -0.2694
60103W        W 3094  33.285  19.136  21.071  0.1185  0.1361 -0.1225
60104W        W 3095   4.331   7.690  28.875 -0.1767  0.0211 -0.1569
60105W        W 3096  34.266  21.296  20.979  0.1114  0.0911 -0.4594
60106W        W 3097  19.994  22.162  18.801  0.2167  0.1783  0.2056
60107W        W 3098  13.927  20.210  14.505  0.1873  0.2252 -0.2365
60108W        W 3099   7.847  21.688  20.910 -0.4254 -0.2461 -0.0151
60109W        W 3100   3.296  19.473  18.456  0.2488  0.1098 -0.4206
60110W        W 3101  23.270  25.305  14.869  0.0601  0.1836 -0.0289
60111W        W 3102  29.853  22.569  18.869 -0.0672 -0.1833 -0.2081
60112W        W 3103  22.349  11.487  23.577 -0.0993 -0.1040  0.0290
60113W        W 3104  11.647  20.684  16.478  0.0495  0.0074 -0.2950
60114W        W 3105  25.320   9.842  15.811  0.0208 -0.0349  0.0075
60115W        W 3106  26.868  18.673   0.417  0.0690 -0.0943 -0.0894
60116W        W 3107  13.321  16.361  20.555  0.0160 -0.0692  0.2462
60117W        W 3108   1.443  14.402  21.176 -0.1270 -0.1580 -0.3136
60118W        W 3109  33.699  10.467   6.324 -0.2366 -0.2835  0.0573
60119W        W 3110  25.606  23.153  19.667 -0.0766  0.1460  0.3021
60120W        W 3111  10.321  14.649  21.062 -0.1497  0.5482  0.1590
60121W        W 3112  15.473  10.297  19.668 -0.2047 -0.1247 -0.0796
60122W        W 3113  25.365  24.677  17.286 -0.3130 -0.1545 -0.2023
60123W        W 3114  28.002  21.087  15.182  0.1363  0.0553  0.2484
60124W        W 3115  27.095  34.125  24.368 -0.1024  0.1713 -0.0296
60125W        W 3116  22.825  30.352  26.142  0.0924 -0.1614 -0.1373
60126W        W 3117  10.918  17.721  18.131 -0.0401 -0.2055 -0.0105
60127W        W 3118  12.089  33.894  21.470 -0.1993 -0.1216 -0.0529
60128W        W 3119   1.674  29.237  27.382  0.1062  0.1886 -0.3435
60129W        W 3120   8.892  30.838   8.410 -0.3010 -0.2839  0.0544
60130W        W 3121  13.448  29.270  16.812  0.2611 -0.0073  0.1672
60131W        W 3122  24.565  15.215  16.169  0.1937  0.1827  0.0106
60132W        W 3123   7.904  24.746  19.956  0.1166  0.1246 -0.1481
60133W        W 3124  15.711  10.152  15.384  0.0267 -0.0137  0.0460
60134W        W 3125  17.004  30.570   5.712  0.1179  0.1431 -0.1689
60135W        W 3126  18.721  16.048  15.089  0.0703 -0.1746  0.1031
60136W        W 3127   4.462  18.136  16.946  0.1159  0.1378  0.1049
60137W        W 3128   3.504  19.718  15.615 -0.0064 -0.0342 -0.1276
60138W        W 3129  17.468  33.300  18.210 -0.2254  0.3019 -0.1596
60139W        W 3130  32.278  26.438   6.745 -0.1569 -0.1873  0.0576
60140W        W 3131  22.106  21.307  17.095  0.3424  0.2116 -0.0101
60141W        W 3132  19.239   1.317  22.929  0.0884  0.0638  0.1244
60142W        W 3133  12.070  10.892  29.086  0.0549  0.1992 -0.0047
60143W        W 3134   1.958  24.046  16.367 -0.0465  0.3087 -0.1728
60144W        W 3135  23.976  11.564  23.008 -0.4521  0.0059  0.1005
60145W        W 3136  19.438  10.338  15.575 -0.1074  0.3612 -0.4289
60146W        W 3137   4.646  15.488  16.069  0.0537  0.0526  0.1538
60147W        W 3138   4.317  15.656  21.115 -0.0461 -0.0488  0.5710
60148W        W 3139  25.995  32.529  28.555 -0.1862  0.2331  0.0955
60149W        W 3140  13.265  34.746  21.445 -0.0911 -0.0228 -0.0146
60150W        W 3141  28.820  15.676  19.543 -0.0254 -0.0285 -0.0094
60151W        W 3142  30.391   0.718  20.641 -0.0889  0.0454  0.1344
60152W        W 3143  13.093  33.629  16.574  0.2744 -0.3734 -0.0098
60153W        W 3144   3.928  17.899  17.845 -0.1966 -0.2532 -0.0484
60154W        W 3145  16.786   6.333  23.535  0.0811 -0.5554  0.0203
60155W        W 3146  17.515  10.717  21.985  0.0835 -0.1361 -0.0763
60156W        W 3147  11.387  25.586   0.496  0.2079  0.1583  0.0259
60157W        W 3148  12.123  20.354  15.747  0.0025  0.1194  0.0534
60158W        W 3149  17.999  32.382  26.667  0.0885  0.2156  0.0600
60159W        W 3150   9.760   6.157  16.720  0.0174  0.4055 -0.2431
60160W        W 3151   3.072  22.138  25.193  0.3003  0.1011 -0.2823
60161W        W 3152  17.315  15.767  15.248  0.3714  0.3296 -0.1635
60162W        W 3153  12.784  20.297  29.211 -0.2219 -0.2598  0.2174
60163W        W 3154  22.630  32.246  20.966  0.3053  0.0291 -0.1198
60164W        W 3155  31.276  17.751  18.239 -0.0572 -0.2042 -0.0739
60165W        W 3156  12.575  15.566   2.735 -0.2775  0.1112  0.2188
60166W        W 3157  17.723  29.501  15.024 -0.1202  0.1382  0.1358
60167W        W 3158   2.059  17.637  23.338  0.0159  0.0611  0.2347
60168W        W 3159  20.574  22.020  23.405 -0.1399  0.3063 -0.1753
60169W        W 3160  15.180   7.958  15.564  0.0015 -0.1433  0.1243
60170W        W 3161  19.342  12.385  17.212 -0.0248  0.0350 -0.1506
60171W        W 3162  17.410  32.500  20.305  0.1322  0.2206  0.1142
60172W        W 3163  12.115  20.354  20.834 -0.3876 -0.0138 -0.1265
60173W        W 3164   4.229  21.646   3.292  0.0420  0.1349  0.1333
60174W        W 3165  12.048  12.705  21.091  0.0277 -0.0583 -0.1726
60175W        W 3166  11.514  31.383  17.964  0.0900  0.0786  0.2775
60176W        W 3167  15.685  25.440  22.814 -0.0173  0.1244  0.3737
60177W        W 3168   0.309  13.175  19.726  0.0402  0.0898  0.0234
60178W        W 3169   5.341  15.654  27.994  0.2657 -0.1337  0.0580
60179W        W 3170  22.387  17.761  12.798 -0.0198 -0.1364  0.0363
60180W        W 3171   8.854  15.555  23.993  0.3517  0.4036  0.0536
60181W        W 3172   6.137   5.416  25.160  0.0807 -0.1057  0.1071
60182W        W 3173  20.463   4.343   3.921 -0.0648 -0.1236  0.3844
60183W        W 3174   1.975  13.334  16.857  0.0340 -0.0518  0.2598
60184W        W 3175  32.834   1.512  14.955 -0.1738 -0.1305 -0.2044
60185W        W 3176  18.969  29.940  16.016 -0.1760  0.2514  0.2129
60186W        W 3177   4.739  29.427  26.466  0.0132 -0.2355 -0.0019
60187W        W 3178   4.225  34.504  21.420  0.1354  0.2401 -0.1419
60188W        W 3179   0.003  34.040  18.015  0.2523  0.0822  0.2005
60189W        W 3180   9.051   9.435  21.954  0.4040 -0.0005  0.0208
60190W        W 3181   1.624  21.031  18.828  0.0770  0.0431 -0.4116
60191W        W 3182  13.008  12.746  16.190  0.1656  0.0043 -0.0086
60192W        W 3183  16.382  30.913  21.751  0.1079  0.0727  0.0967
60193W        W 3184  23.977   1.775  28.963 -0.0614  0.1362 -0.0614
60194W        W 3185  13.105   2.771   4.827  0.1801 -0.1344  0.0359
60195W        W 3186  22.211  24.900  15.297  0.2682 -0.0307  0.0341
60196W        W 3187  11.317  18.270  15.935 -0.3057  0.1441 -0.2063
60197W        W 3188  31.873  21.101  22.479  0.0232 -0.0360  0.3521
60198W        W 3189   7.694  16.483  28.249  0.0802 -0.0092  0.1240
60199W        W 3190  19.123  21.165  17.073 -0.1854 -0.0030  0.0119
60200W        W 3191  31.642  33.254  14.791  0.1058 -0.0275 -0.1450
60201W        W 3192   9.451   2.703  26.257  0.0609  0.2412  0.2397
60202W        W 3193  22.631  12.442  18.205 -0.1657 -0.1926  0.1505
60203W        W 3194  15.734  12.593  17.273 -0.0502 -0.1069  0.2943
60204W        W 3195  18.729  31.467  24.832 -0.1688 -0.1218  0.0402
60205W        W 3196  13.649  27.415  20.717 -0.2675 -0.1593  0.0424
60206W        W 3197  19.846  20.425  22.918 -0.1616  0.0787 -0.0339
60207W        W 3198  19.203  14.468  22.116  0.3348 -0.0152 -0.0635
60208W        W 3199  13.602  11.552  27.882 -0.1095 -0.0414  0.0695
60209W        W 3200   8.585  16.719  25.871  0.0629  0.0019 -0.1390
60210W        W 3201   6.849  33.632  26.895 -0.1642  0.2458  0.0211
60211W        W 3202  33.757  15.370   6.378  0.1777 -0.1884  0.3229
60212W        W 3203  32.533  21.975   5.611  0.0317  0.0926  0.0178
60213W        W 3204  17.144  33.919  15.042  0.1944 -0.1107 -0.0802
60214W        W 3205   7.291  13.749  19.606 -0.1953  0.1286  0.0123
60215W        W 3206   6.595  32.228  17.699  0.0069  0.0796 -0.0879
60216W        W 3207   3.476  33.706  16.014  0.1684  0.0349 -0.1605
60217W        W 3208   1.231   8.396   0.927  0.4527 -0.2962  0.1593
60218W        W 3209   8.354  33.907  18.474 -0.0075 -0.2388  0.0932
60219W        W 3210   8.725  17.426  16.638  0.2028  0.3472  0.2971
60220W        W 3211  15.255  25.843  16.739  0.2007  0.1333 -0.0523
60221W        W 3212  17.745  21.935   8.195  0.4240 -0.2027 -0.1720
60222W        W 3213   4.451  11.036  20.004  0.0900 -0.3494  0.3470
60223W        W 3214   6.338  10.815  22.194  0.1009  0.0369 -0.1246
60224W        W 3215  26.847  23.426  23.272  0.0453 -0.0356 -0.1264
60225W        W 3216  33.521  17.780  14.780  0.3092 -0.1228 -0.1819
60226W        W 3217  19.319  13.620  19.991  0.3367  0.0411 -0.0757
60227W        W 3218   5.770  11.349  26.676 -0.1277 -0.0228  0.2374
60228W        W 3219  24.831   6.310  21.798  0.1314 -0.1332 -0.0635
60229W        W 3220  14.518  28.131  16.521 -0.0488 -0.1931 -0.2905
60230W        W 3221   7.754  19.571  19.667  0.1751 -0.2106  0.1269
60231W        W 3222  26.893  32.519  16.112  0.3470 -0.2330  0.1731
60232W        W 3223   9.312  25.440  20.939  0.1094  0.0557 -0.1357
60233W        W 3224  22.315  17.324   6.332 -0.0584  0.1515  0.2285
60234W        W 3225  18.844  20.692  27.752 -0.4301 -0.2981  0.0626
60235W        W 3226  16.744   5.467  26.361  0.2876 -0.0207 -0.0342
60236W        W 3227  26.104  30.120  15.485 -0.0582  0.0933 -0.0001
60237W        W 3228  25.671  15.093  23.756 -0.3682 -0.2871 -0.2776
60238W        W 3229  32.894  13.967  15.165  0.1829  0.0424 -0.1040
60239W        W 3230  17.097   8.678  18.190  0.2273 -0.1358  0.1920
60240W        W 3231  10.638  32.916  18.058  0.1380  0.1051 -0.4268
60241W        W 3232  12.452  28.482  22.548 -0.0915 -0.2710  0.0026
60242W        W 3233  23.328  20.518  19.117 -0.0245  0.0400  0.2856
60243W        W 3234  23.264  20.449  22.268  0.1089  0.2161 -0.3476
60244W        W 3235   2.265  12.899  18.601 -0.2372  0.0012 -0.1854
60245W        W 3236   7.465  13.198  19.019  0.0888 -0.3304 -0.1841
60246W        W 3237  16.954  22.993  23.755  0.0060 -0.1880 -0.5962
60247W        W 3238  14.855  28.348  17.914  0.0451 -0.2222  0.1985
60248W        W 3239   8.926  17.561  14.925 -0.2372 -0.0987 -0.1354
60249W        W 3240  12.055  18.145  25.762 -0.1600  0.1536 -0.0881
60250W        W 3241   9.993  24.498  20.510 -0.0516  0.0120 -0.0065
60251W        W 3242  22.774  15.440  15.942  0.0331  0.1693  0.0048
60252W        W 3243   9.472  17.181   2.343 -0.0542 -0.1552  0.2905
60253W        W 3244   8.960  18.964  27.315  0.0761 -0.0092  0.1017
60254W        W 3245   3.370  21.094  26.534  0.0339  0.2018  0.0328
60255W        W 3246  14.604  34.447  21.268 -0.0015 -0.1195 -0.0244
60256W        W 3247   2.049  24.764  17.215 -0.0309 -0.1127 -0.0649
60257W        W 3248   5.184  24.037  14.619  0.0260  0.2181  0.2374
60258W        W 3249  18.886   9.812  25.362  0.0687 -0.1188  0.0435
60259W        W 3250   7.047  25.571  21.777 -0.1094  0.0755 -0.2696
60260W        W 3251   5.956   1.036  17.248  0.0770  0.0231 -0.2134
60261W        W 3252  28.576   8.862  23.336 -0.3601 -0.0823  0.0817
60262W        W 3253  27.392   9.524   0.821  0.2978 -0.0290  0.2860
60263W        W 3254   9.190   6.995   9.197  0.2601  0.1574 -0.2107
60264W        W 3255   0.505  19.615   2.505 -0.0786 -0.4394 -0.2696
60265W        W 3256  18.410   7.705  15.376  0.3404 -0.1320  0.1826
60266W        W 3257  28.864  26.634  23.985  0.0674 -0.1230 -0.0105
60267W        W 3258  17.648  19.873  25.821 -0.0119 -0.2580  0.1285
60268W        W 3259  17.483  18.014   7.035  0.0114  0.1864 -0.2529
60269W        W 3260   8.995  27.144  14.526 -0.1651  0.0377  0.2386
60270W        W 3261   1.460  20.655  19.502  0.2059  0.1425 -0.2479
60271W        W 3262  19.713  21.303  17.981  0.0319 -0.1444 -0.1116
60272W        W 3263   8.164  22.810  15.859  0.0125  0.2777 -0.1691
60273W        W 3264  12.765  22.179  14.429 -0.0210  0.1234  0.0354
60274W        W 3265  16.269  22.021  15.190 -0.0551 -0.1282 -0.2090
60275W        W 3266  12.099  15.381  16.200  0.0946 -0.1793 -0.1910
60276W        W 3267  18.275  32.408  18.583  0.1088  0.0672  0.0732
60277W        W 3268   7.055  19.926  17.860  0.2568  0.1070  0.0803
60278W        W 3269  14.056  22.316  14.140  0.0903  0.0901 -0.0434
60279W        W 3270   5.128   4.047  24.548 -0.0239 -0.0049  0.5686
60280W        W 3271  32.678   8.619  22.365  0.0604 -0.4240  0.1927
60281W        W 3272  10.956   0.261  21.388 -0.1164  0.2789 -0.4277
60282W        W 3273  21.333  26.760  14.440  0.1206 -0.1245 -0.3061
60283W        W 3274  25.842  13.498  25.057 -0.0313  0.2058 -0.1329
60284W        W 3275  28.678  15.541  22.396 -0.0288 -0.2567 -0.2845
60285W        W 3276  12.729   0.993  23.242  0.2287  0.1687 -0.0311
60286W        W 3277  13.554  22.936  16.001  0.0069 -0.2994  0.3282
60287W        W 3278   7.992  13.448  19.046 -0.3058  0.0378  0.0463
60288W        W 3279  21.958  30.314  13.987  0.0225 -0.2038  0.1730
60289W        W 3280   2.468  33.317   0.081 -0.0545  0.0077  0.4110
60290W        W 3281   5.776  12.603  22.537 -0.0476  0.1833  0.0343
60291W        W 3282  11.534  27.408  22.956 -0.2999 -0.3030 -0.4544
60292W        W 3283  30.315  15.947  24.777 -0.0266  0.0755  0.1891
60293W        W 3284   0.269  30.442   0.608  0.0486  0.0644  0.2328
60294W        W 3285  14.136  22.383  28.663  0.0230  0.2741  0.3337
60295W        W 3286  14.811  34.161  17.936 -0.0686  0.2532  0.1745
60296W        W 3287  25.160  20.983  19.240 -0.2386  0.1250  0.2190
60297W        W 3288  13.724  22.748  17.720 -0.2580 -0.2143 -0.4092
60298W        W 3289   6.807  16.122  18.966 -0.0293  0.0018  0.1307
60299W        W 3290  11.125  21.542  19.548  0.0091 -0.0156 -0.0756
60300W        W 3291  24.000  30.277  16.647  0.1294  0.0653  0.2169
60301W        W 3292  17.007  30.748  18.431 -0.2565 -0.0144  0.2483
60302W        W 3293  25.284  26.489  20.246 -0.0766  0.1272  0.2017
60303W        W 3294   4.940  16.307   1.631 -0.0599 -0.1351 -0.2602
60304W        W 3295   2.048  14.142  23.954  0.0097 -0.0035 -0.1489
60305W        W 3296  19.358  21.582  13.605 -0.0148  0.0285  0.1036
60306W        W 3297  13.423  30.770  17.242 -0.1560  0.1323 -0.1560
60307W        W 3298  11.805  24.674  22.658  0.0753  0.1709  0.0324
60308W        W 3299   7.495  33.959  18.279 -0.2934 -0.0043  0.0360
60309W        W 3300   2.198  21.995   4.457 -0.0643 -0.0188 -0.0020
60310W        W 3301   5.181  24.615  15.036 -0.0120  0.0804  0.0638
60311W        W 3302  15.823  17.349  12.395  0.1554  0.1491 -0.0843
60312W        W 3303   4.811  22.729  24.686  0.1696 -0.3107 -0.0154
60313W        W 3304  23.066  28.914  24.498 -0.3801 -0.0816 -0.0683
60314W        W 3305  25.735  16.664  14.627  0.2756  0.0454  0.1568
60315W        W 3306   0.476  31.640  20.071  0.1702  0.0127  0.1400
60316W        W 3307   7.870  24.162  25.488  0.0444 -0.2386  0.1202
60317W        W 3308   5.974   7.495   3.944  0.3019  0.0002 -0.1256
60318W        W 3309  28.399  23.937  18.865  0.0309  0.2176  0.0503
60319W        W 3310  27.249   8.435  26.044  0.0855  0.2002 -0.2177
60320W        W 3311   2.723   9.945  28.640  0.4245  0.2950 -0.1422
60321W        W 3312   7.703   7.124  28.719  0.0662 -0.0109  0.0512
60322W        W 3313  17.774  27.948  18.549  0.1198  0.0698  0.4850
60323W        W 3314  18.601   4.128  17.691  0.1649 -0.2652  0.1267
60324W        W 3315  28.690  15.084   1.619 -0.0106 -0.2654  0.1498
60325W        W 3316  28.074  23.403  14.875 -0.1851 -0.0825  0.0156
60326W        W 3317  13.621  23.191  24.530  0.0889  0.1407 -0.1041
60327W        W 3318  32.126  22.526   6.881  0.0678  0.3195 -0.2460
60328W        W 3319  10.188  19.814  16.397  0.0150 -0.4332  0.0835
60329W        W 3320  15.014  12.485  20.379 -0.0202 -0.3434 -0.0030
60330W        W 3321   6.721  10.808  24.932 -0.0750  0.0756 -0.1777
60331W        W 3322  19.280  25.301  15.485 -0.0707  0.1456 -0.0449
60332W        W 3323  22.972  27.710  16.450  0.5526 -0.1891 -0.0260
60333W        W 3324  24.961  25.221   6.888 -0.0364 -0.0648 -0.3885
60334W        W 3325  10.377  18.558  18.524 -0.0713  0.1989  0.2566
60335W        W 3326  30.149  21.816  24.827  0.1760  0.0667 -0.1593
60336W        W 3327  28.800  13.355  18.817  0.1981 -0.3597 -0.1286
60337W        W 3328  31.719  29.984  23.673 -0.4154  0.3107  0.0296
60338W        W 3329  10.353  28.185  10.176  0.1140 -0.1592  0.1892
60339W        W 3330  34.241  30.535  28.519  0.0925 -0.4846 -0.0009
60340W        W 3331  18.920  21.539  19.676  0.1671 -0.1120  0.2744
60341W        W 3332  11.095  12.304  16.394 -0.1625 -0.0232  0.1629
60342W        W 3333  11.972  28.822  17.155  0.1102 -0.2590  0.0928
60343W        W 3334  18.181  27.051   8.717  0.0830 -0.3205 -0.0034
60344W        W 3335   6.541  18.249  18.747 -0.5317 -0.2562 -0.1430
60345W        W 3336  26.806  14.459  15.799 -0.0559 -0.5053  0.1818
60346W        W 3337   7.254  22.614  18.766 -0.0030  0.3534  0.1978
60347W        W 3338  16.350  20.385  14.928 -0.2634 -0.0677 -0.2597
60348W        W 3339  18.894   5.720  26.207  0.2867 -0.0146  0.2256
60349W        W 3340  20.290  24.330  19.458 -0.0768  0.2753 -0.1993
60350W        W 3341   3.207  12.846  18.383  0.1162 -0.0297 -0.0460
60351W        W 3342  18.934  24.438  20.632  0.4121 -0.1621 -0.1267
60352W        W 3343   1.603  33.150  15.261  0.2894  0.2723 -0.1337
60353W        W 3344  34.620  23.100  19.378  0.4578  0.0640 -0.1112
60354W        W 3345   5.013  10.964  17.236 -0.1360  0.3788 -0.1936
60355W        W 3346  24.577  23.788  26.870  0.1377  0.2015  0.0850
60356W        W 3347  30.675  28.240  17.550 -0.3406  0.2642 -0.1065
60357W        W 3348   3.428  19.197  14.840 -0.2810 -0.0551  0.0798
60358W        W 3349  23.729   2.760  16.128  0.1499  0.2779 -0.0345
60359W        W 3350  18.702  13.946   5.980  0.1045 -0.1796  0.0228
60360W        W 3351  16.540   7.454  18.820  0.0323 -0.0064  0.1144
60361W        W 3352   3.921  16.637  17.521 -0.0050  0.1224 -0.1954
60362W        W 3353  11.501   9.325  17.291  0.0352  0.4642  0.2086
60363W        W 3354  21.223  20.296  13.563 -0.1023  0.5486 -0.2940
60364W        W 3355   6.463   5.365   4.898  0.1161  0.0934 -0.1100
60365W        W 3356  34.453  20.698  26.874 -0.0809 -0.1766  0.0312
60366W        W 3357  14.503  28.370  17.203  0.0630  0.3068  0.0107
60367W        W 3358  20.424  31.024  26.824 -0.0925 -0.4024 -0.1143
60368W        W 3359   5.222   7.937  19.072 -0.3245  0.0487 -0.6753
60369W        W 3360  33.231  12.723  22.998  0.2845 -0.4141 -0.0175
60370W        W 3361  32.835  30.473  16.988 -0.1723  0.0106 -0.2433
60371W        W 3362   7.497  15.940   4.042 -0.0522  0.0391  0.1075
60372W        W 3363  30.625   2.090  19.409  0.1859 -0.1658  0.0150
60373W        W 3364   1.844   2.362   4.812  0.1293 -0.2221  0.1232
60374W        W 3365  15.021   8.727  16.190 -0.0219  0.1179  0.0801
60375W        W 3366  24.724  27.475  17.672 -0.1406  0.2556 -0.0348
60376W        W 3367   3.817  20.331  19.448 -0.0599  0.0332 -0.1261
60377W        W 3368  16.621  10.394  24.797  0.1118  0.0343  0.3671
60378W        W 3369   8.464  14.683  26.153  0.2152  0.3262 -0.0787
60379W        W 3370  22.106  13.022  17.110  0.0449  0.0378  0.0809
60380W        W 3371  11.542  12.037  21.214 -0.0838 -0.1731 -0.0287
60381W        W 3372   4.986  21.148   5.481 -0.2192 -0.2246  0.1249
60382W        W 3373  16.227  13.804   3.337 -0.1231 -0.0111  0.2389
60383W        W 3374  33.175   0.497  21.766  0.1135 -0.3162  0.0224
60384W        W 3375  13.877  26.267  19.319  0.0997  0.2649  0.1172
60385W        W 3376  11.177  13.745  18.711 -0.0345 -0.1481 -0.0037
60386W        W 3377   0.420  23.774  25.978  0.3677  0.1552 -0.2387
60387W        W 3378   6.876  21.526  21.297  0.0462  0.3488 -0.0690
60388W        W 3379   9.113   1.015  22.692 -0.1948  0.0348  0.1926
60389W        W 3380  12.949  23.285  19.548  0.0232 -0.2618 -0.0175
60390W        W 3381  30.080  25.197  29.114 -0.2108  0.0007  0.0199
60391W        W 3382  26.123  21.112  26.846 -0.2504  0.2511  0.1324
60392W        W 3383  26.152  24.112  27.612  0.1772 -0.3798  0.1972
60393W        W 3384  13.882  21.195  14.456 -0.0054  0.1828  0.1131
60394W        W 3385  12.008   6.644  21.026 -0.0817 -0.0527 -0.3327
60395W        W 3386  20.234  33.120  26.677  0.2565 -0.0304 -0.0483
60396W        W 3387   4.546  22.612   6.628 -0.2349 -0.2274  0.1138
60397W        W 3388  22.906  25.149  29.105 -0.1131  0.1228  0.0590
60398W        W 3389  16.972  25.074  21.579 -0.1469  0.3005 -0.0828
60399W        W 3390  12.749   7.601  24.626 -0.0321 -0.1894  0.3483
60400W        W 3391  24.552  31.410  21.901  0.2515 -0.1745 -0.3721
60401W        W 3392  32.472  23.008  14.228  0.0626 -0.2523 -0.0492
60402W        W 3393  15.972  29.672  14.921 -0.0607  0.2969  0.0833
60403W        W 3394  19.418  26.484  20.134 -0.2061  0.0448  0.1408
60404W        W 3395   0.354  20.605  16.517  0.0596  0.1365 -0.0350
60405W        W 3396  21.501   1.170   6.408 -0.0576 -0.2130  0.1790
60406W        W 3397  15.266  25.334  17.429  0.0101  0.0564 -0.0202
60407W        W 3398  25.132   0.647  14.322 -0.0171  0.4780  0.0774
60408W        W 3399  20.227  11.667  22.744 -0.3690  0.2111  0.2724
60409W        W 3400  21.979  31.650  19.861 -0.2380 -0.0060  0.1389
60410W        W 3401  12.154  21.862  13.942  0.0677  0.0581  0.1366
60411W        W 3402   3.696  20.343  21.795  0.4475  0.0569  0.0726
60412W        W 3403  12.358   7.906  15.970  0.3463 -0.0145 -0.1881
60413W        W 3404   6.067  29.740   0.014  0.0070  0.0275 -0.3703
60414W        W 3405   7.770  12.176  19.341 -0.0131  0.1181 -0.1610
60415W        W 3406  12.143  11.720   2.195 -0.0015 -0.1367 -0.0850
60416W        W 3407   1.786  21.224  24.267 -0.0342  0.1540  0.0189
60417W        W 3408  16.271  21.029  23.345 -0.2354 -0.0001 -0.0282
60418W        W 3409   9.521  31.147  15.012  0.2084  0.4190  0.0597
60419W        W 3410  24.940  33.760  17.426  0.1853 -0.2178 -0.3116
60420W        W 3411   3.086  28.649   6.596  0.0608  0.0922  0.0565
60421W        W 3412  34.709  33.871   1.904 -0.0780 -0.0042 -0.3269
60422W        W 3413  33.281  28.694  17.589 -0.1573 -0.1090 -0.2527
60423W        W 3414  27.538  25.305  18.219 -0.0201 -0.6007  0.2135
60424W        W 3415   9.006  20.030  18.780 -0.2434 -0.1253  0.1906
60425W        W 3416  19.104  26.586  28.004 -0.0101 -0.2848 -0.1194
60426W        W 3417  20.280  25.258  28.093 -0.1361  0.0784 -0.2007
60427W        W 3418  10.678  21.321  23.901 -0.1078  0.1126 -0.2028
60428W        W 3419  19.269  27.925  21.900 -0.1948  0.0292 -0.1636
60429W        W 3420  16.131   9.254  22.392 -0.1117  0.3268  0.2230
60430W        W 3421  12.369  17.987   0.069 -0.1857  0.0877  0.0455
60431W        W 3422   7.279  34.581  18.410  0.1199  0.3117 -0.1639
60432W        W 3423  24.286  29.134  18.525  0.1103  0.5409  0.0377
60433W        W 3424   6.983  20.125  15.818  0.1660 -0.0357 -0.0947
60434W        W 3425  32.499  33.800  18.323 -0.2057  0.1795  0.0635
60435W        W 3426  31.807  22.983   1.632  0.0660 -0.1955 -0.4083
60436W        W 3427  33.321  20.420  14.846 -0.2145 -0.0477 -0.1703
60437W        W 3428   9.006   1.853  26.186 -0.2445 -0.0606  0.1263
60438W        W 3429   7.270  19.792  16.080 -0.0992 -0.0997  0.0834
60439W        W 3430  12.560  18.649   2.643 -0.0453  0.0076 -0.3274
60440W        W 3431  32.254  18.088  14.879 -0.2302 -0.1385 -0.0319
60441W        W 3432   3.624   1.896  27.381  0.1482  0.2623 -0.0409
60442W        W 3433  12.276  20.091  17.799 -0.0967  0.1568  0.0880
60443W        W 3434  14.618  31.352  19.017 -0.0633  0.2095  0.1276
60444W        W 3435  13.180  20.808  15.943 -0.0267  0.0238 -0.1465
60445W        W 3436  10.509   5.684  18.623 -0.2583 -0.0915  0.6562
60446W        W 3437  22.672  23.061  17.797 -0.0415  0.0471 -0.1476
60447W        W 3438  11.269   1.149  22.110  0.3046 -0.2901 -0.2075
60448W        W 3439  18.971  29.132  15.535 -0.2943 -0.3384  0.0047
60449W        W 3440  21.260  19.698  13.168 -0.2079  0.2107  0.1897
60450W        W 3441  20.584  32.177  20.146 -0.2783  0.0997 -0.0057
60451W        W 3442  21.399  16.002  15.152  0.2674  0.2242  0.0100
60452W        W 3443  33.384  15.583  15.955  0.1364  0.0264 -0.1068
60453W        W 3444  31.215  20.829  21.841 -0.1701 -0.3794  0.3219
60454W        W 3445  21.719   5.374  17.419 -0.0065  0.0879  0.7322
60455W        W 3446   2.446  26.737  17.355 -0.1433  0.0833 -0.2537
60456W        W 3447   1.607  12.311  18.742 -0.0114 -0.0676 -0.1526
60457W        W 3448   6.670  16.023   4.490 -0.1689 -0.1258 -0.1179
60458W        W 3449   7.055  27.711  24.498  0.0545  0.1028  0.1555
60459W        W 3450  13.977  13.366  17.962 -0.0659 -0.1087  0.0783
60460W        W 3451  34.206  22.097   1.557  0.1520  0.1339  0.1650
60461W        W 3452   5.771   8.822   1.465 -0.1053  0.1996 -0.0285
60462W        W 3453  10.602  21.782  24.062 -0.1423 -0.0125 -0.1183
60463W        W 3454  19.747  33.214  15.087 -0.3395  0.2603  0.0779
60464W        W 3455  21.844  16.540  13.335  0.2976 -0.2940  0.0589
60465W        W 3456   0.091  31.294  17.971 -0.1051 -0.2392  0.4459
60466W        W 3457  28.313  13.950  14.023  0.1062  0.1189  0.1086
60467W        W 3458  27.992  22.813  27.137  0.1344  0.0722  0.0031
60468W        W 3459  13.452   9.393  15.618  0.2709 -0.0089 -0.0010
60469W        W 3460   2.561  14.214  19.467  0.1362  0.0904  0.0991
60470W        W 3461  21.494   6.362  17.691  0.1332 -0.1448 -0.4113
60471W        W 3462  21.732   4.855   1.114  0.0539 -0.0066 -0.0382
60472W        W 3463   5.320  25.958   3.619 -0.5117  0.0357 -0.1103
60473W        W 3464  14.323  25.548  21.311 -0.1145  0.3726  0.0914
60474W        W 3465  23.111  19.876  15.354  0.3131  0.2607  0.2789
60475W        W 3466   7.343  27.036  14.001  0.0058 -0.1216  0.1365
60476W        W 3467   7.788   2.880  22.828 -0.1534 -0.0333  0.2828
60477W        W 3468  11.825  14.098  23.134 -0.3383  0.2223  0.1213
60478W        W 3469   9.781  19.738  17.207  0.4030 -0.0493  0.2637
60479W        W 3470  32.522  20.115  20.178 -0.3658  0.0516 -0.0431
60480W        W 3471   8.422  27.060  22.995  0.2343  0.0103  0.2316
60481W        W 3472  13.431  22.120  23.106 -0.0064  0.0134  0.0002
60482W        W 3473  32.635  25.931  15.678  0.1040 -0.1561 -0.1070
60483W        W 3474  22.286   3.035  24.034 -0.0621  0.0303 -0.2654
60484W        W 3475   2.814  18.830  15.291  0.0591 -0.0247  0.2084
60485W        W 3476  12.675  28.565  17.143 -0.0868 -0.0575  0.0811
60486W        W 3477  16.457  25.031  20.177  0.2909  0.3200 -0.0533
60487W        W 3478   1.095  29.549  17.543 -0.1736 -0.3278 -0.2011
60488W        W 3479  23.778  15.684  19.461 -0.3105 -0.2385  0.1298
60489W        W 3480   8.240  16.826  20.721  0.0661 -0.1558  0.0409
60490W        W 3481  10.719  34.103  21.740  0.0257  0.0749  0.0356
60491W        W 3482   9.275  17.774  19.102  0.1963  0.0523  0.0393
60492W        W 3483   9.214   8.334  24.671  0.2150 -0.1388  0.2080
60493W        W 3484   9.416  10.073  17.647  0.1400 -0.0768  0.1400
60494W        W 3485  32.454  15.273  19.454 -0.3505  0.0578  0.0463
60495W        W 3486  15.235  16.733  18.043 -0.1947  0.2537 -0.0541
60496W        W 3487   2.939  20.137   1.370  0.3282 -0.0224 -0.3248
60497W        W 3488   7.256  11.404  24.658 -0.2440  0.4000 -0.1873
60498W        W 3489  20.978  25.058  27.048 -0.1895  0.0672  0.1955
60499W        W 3490  18.175  16.646  15.523 -0.0556  0.0091  0.0174
60500W        W 3491  31.954   7.537  14.945  0.0957 -0.1308  0.1273
60501W        W 3492  10.211  18.819  23.904  0.0815 -0.2875  0.0775
60502W        W 3493  25.244  29.773  24.301 -0.0383  0.1240  0.0643
60503W        W 3494  13.950   6.817  22.489 -0.1451 -0.2065  0.0984
60504W        W 3495  20.994  10.413  15.182 -0.0526 -0.0243 -0.2274
60505W        W 3496  18.571  15.087  12.564 -0.1880 -0.0575  0.1564
60506W        W 3497  22.619  23.704  26.757  0.2421 -0.2000  0.0738
60507W        W 3498   0.957  23.245  27.611 -0.2436  0.1027 -0.2141
60508W        W 3499  14.722  18.503  22.882  0.1539 -0.0742 -0.1033
60509W        W 3500   5.666  15.155   1.356 -0.1405 -0.3620  0.1328
60510W        W 3501  15.221  30.871  23.565 -0.1554 -0.1319 -0.2056
60511W        W 3502  10.952   5.558  26.162  0.3730 -0.2168 -0.3053
60512W        W 3503  27.607  23.854  20.466  0.0027  0.1395  0.0508
60513W        W 3504  25.399   0.009   0.133  0.3173 -0.5122 -0.0311
60514W        W 3505   6.510  28.621   2.065 -0.1223 -0.0418 -0.1633
60515W        W 3506  22.654  30.302  23.510  0.2035  0.3112 -0.1407
60516W        W 3507   5.052  13.547   9.293  0.1821  0.2601  0.1360
60517W        W 3508  14.922   1.125  28.008 -0.2664 -0.1380  0.0496
60518W        W 3509  18.195   8.578  18.051 -0.2869  0.0777  0.1545
60519W        W 3510   0.752  26.291  25.738 -0.1994  0.0644  0.4100
60520W        W 3511  13.870  10.121  20.825  0.2279 -0.1856  0.2047
60521W        W 3512  33.727  18.306  26.456 -0.0455 -0.0961  0.2226
60522W        W 3513  13.237   5.624  17.947 -0.2608  0.0587 -0.0432
60523W        W 3514   8.412  17.220   7.147 -0.0235 -0.0195  0.0926
60524W        W 3515  29.902   8.856  19.637  0.0219 -0.0561  0.5717
60525W        W 3516  15.169  20.790  17.426  0.1369 -0.0377 -0.1310
60526W        W 3517  32.279  26.672   4.363  0.1912 -0.2263  0.1331
60527W        W 3518  26.686  19.776  20.376 -0.0752  0.0059  0.1172
60528W        W 3519   6.961  17.316  22.275 -0.3083  0.1766  0.0934
60529W        W 3520   6.918  21.978  28.257  0.1187 -0.0720  0.0125
60530W        W 3521  25.731  31.612  18.842 -0.1814 -0.4551 -0.2142
60531W        W 3522   1.752  20.634  22.952 -0.1768 -0.0309 -0.2696
60532W        W 3523  17.237  29.355  16.094 -0.0533  0.1284 -0.1027
60533W        W 3524   9.276  20.247  21.589  0.1024  0.4112  0.1420
60534W        W 3525   9.877  23.230   7.484  0.0754 -0.0772  0.1948
60535W        W 3526  10.442  19.004  18.226  0.2483  0.2109  0.2892
60536W        W 3527   3.261   9.372  16.171  0.2677  0.1717 -0.0139
60537W        W 3528  19.828  25.589  20.771 -0.1081  0.3094 -0.1272
60538W        W 3529  12.232  18.517  17.333  0.3675 -0.2501  0.0126
60539W        W 3530  21.848  15.744   4.818  0.2382  0.0823 -0.1340
60540W        W 3531  12.995  13.528   1.007 -0.1994 -0.1393 -0.3400
60541W        W 3532  11.574  31.698  25.940 -0.0068 -0.1267  0.2022
60542W        W 3533   7.938  21.196  16.475 -0.0602 -0.2759  0.1611
60543W        W 3534   9.192   3.805  14.036 -0.1003 -0.3156  0.0677
60544W        W 3535   4.142  27.455  20.918 -0.1556  0.0449  0.2561
60545W        W 3536  31.029  21.096   5.076 -0.2425 -0.0962  0.1221
60546W        W 3537  15.019  34.100  19.406 -0.2074  0.0105 -0.0940
60547W        W 3538  10.804  29.917  17.999  0.2168 -0.0562 -0.2499
60548W        W 3539   9.993  21.588  21.697  0.2849  0.2130 -0.0208
60549W        W 3540  13.383  14.748   3.453 -0.1225  0.1655 -0.1878
60550W        W 3541  15.710  23.405  20.902 -0.1562 -0.2313  0.2644
60551W        W 3542  15.777  23.762  17.958 -0.0653 -0.1297  0.1118
60552W        W 3543  31.027  25.070   1.211  0.0291 -0.0607  0.0795
60553W        W 3544  10.243  14.662  21.618  0.1944 -0.1416  0.2142
60554W        W 3545  14.676  20.561  12.819  0.2452  0.1071 -0.0220
60555W        W 3546   2.546  13.934  17.483 -0.1618  0.1190  0.4222
60556W        W 3547  15.878   5.512   4.623 -0.1295 -0.1472 -0.1574
60557W        W 3548  34.676  26.707  22.768  0.0617 -0.1500 -0.2276
60558W        W 3549  23.309  22.986  28.989  0.0879  0.1851  0.0866
60559W        W 3550   5.016  19.744  20.132 -0.0721 -0.1924 -0.1963
60560W        W 3551   8.572   8.880  19.732 -0.0263  0.2802 -0.3757
60561W        W 3552   5.387   5.549  15.107  0.2991 -0.1589 -0.2392
60562W        W 3553  31.030  22.584  26.554  0.0666  0.1564  0.1896
60563W        W 3554  25.697  29.814  15.744  0.0938  0.2621 -0.1179
60564W        W 3555  28.992  14.794  26.493  0.0258  0.2288  0.2395
60565W        W 3556   3.340  20.533  22.688 -0.1499  0.1462  0.0315
60566W        W 3557  13.696  11.786   3.843 -0.0579 -0.1767  0.1274
60567W        W 3558  25.659  18.646   4.218 -0.3064 -0.1983 -0.4078
60568W        W 3559   6.740  19.728  26.965 -0.1184 -0.0091 -0.1259
60569W        W 3560  27.793  27.919  18.533  0.1171  0.0180 -0.0979
60570W        W 3561  15.828   0.169  18.816  0.2074 -0.2090  0.1026
60571W        W 3562   8.311  23.769  20.164 -0.0844 -0.0902 -0.0850
60572W        W 3563  11.154  10.602  25.449  0.0030 -0.1630  0.2099
60573W        W 3564  21.975   6.144  22.934  0.0593  0.2139  0.1562
60574W        W 3565  20.732   8.261  14.723 -0.0031 -0.5481  0.1393
60575W        W 3566  10.933   0.681  16.881 -0.0223 -0.3267  0.2268
60576W        W 3567   6.692  27.428  17.567  0.1005  0.0481  0.0003
60577W        W 3568   8.779  25.024  25.211 -0.0897  0.0161 -0.1431
60578W        W 3569  13.903  31.569  23.571  0.1191  0.1021  0.1685
60579W        W 3570  17.448  22.244  28.009 -0.2562 -0.0408  0.2338
60580W        W 3571   8.436  11.600  19.650 -0.0078  0.1703 -0.0306
60581W        W 3572   6.530  30.340  16.429  0.1626 -0.1919 -0.1720
60582W        W 3573  24.698  18.120  27.427 -0.0267 -0.1647 -0.1489
60583W        W 3574   8.129  16.006  19.197  0.4717 -0.2802  0.1467
60584W        W 3575  22.668  27.050  16.350 -0.1306 -0.1223 -0.2843
60585W        W 3576  31.065  20.021  18.529  0.1231 -0.2822  0.2323
60586W        W 3577  30.352   4.319  22.358 -0.0348 -0.0404 -0.1767
60587W        W 3578  22.185  31.575  18.894  0.0072  0.2466 -0.3772
60588W        W 3579  29.813  17.129  20.963  0.3051  0.0696  0.1820
60589W        W 3580  12.188  17.690  16.414 -0.0713 -0.0180  0.1028
60590W        W 3581   2.993  15.370  26.694  0.0042 -0.2503  0.3377
60591W        W 3582  30.002  12.343   0.945 -0.0636  0.0198 -0.2769
60592W        W 3583  27.201  16.221  25.155  0.1294  0.0744  0.1721
60593W        W 3584   7.229  21.500  18.712 -0.1293  0.1172 -0.0649
60594W        W 3585  20.314  20.716  26.000 -0.0567  0.0003  0.1982
60595W        W 3586   6.292   2.390   3.955 -0.0567 -0.2165  0.0991
60596W        W 3587   4.492  27.055  20.340  0.0390  0.0079 -0.0612
60597W        W 3588   2.498  18.814   9.190  0.0933  0.3592  0.1185
60598W        W 3589   7.916  27.134   0.231  0.0456 -0.4465  0.1773
60599W        W 3590  12.983  23.814  15.426 -0.0966 -0.0948 -0.1314
60600W        W 3591   5.239  31.080  14.843  0.0386  0.1239  0.1292
60601W        W 3592  13.839  10.894  18.082  0.1984  0.3066  0.2579
60602W        W 3593  17.623  21.188  29.198  0.1803  0.2011  0.0650
60603W        W 3594   3.626  27.927  22.753  0.1539 -0.0646 -0.0681
60604W        W 3595  28.314   4.254  24.985  0.1228  0.5382  0.0750
60605W        W 3596  12.054   8.789   6.590 -0.3663  0.0281 -0.0860
60606W        W 3597   1.402  15.157  16.779 -0.2508 -0.2311  0.2415
60607W        W 3598  14.357  29.921  19.225  0.0666  0.1983  0.2251
60608W        W 3599   5.776  26.560  26.420 -0.3606 -0.0279 -0.2827
60609W        W 3600   1.157  19.887  24.561  0.0499  0.0239 -0.1380
60610W        W 3601   6.571  27.679  19.645  0.1361 -0.3040 -0.0699
60611W        W 3602   6.096  15.215  27.055  0.1339 -0.0540 -0.2528
60612W        W 3603   6.830  10.791  27.119 -0.0628 -0.2367 -0.0742
60613W        W 3604  21.705  25.189   3.419 -0.1327 -0.0435 -0.1722
60614W        W 3605  30.384  15.552  17.441  0.3308  0.1890  0.3414
60615W        W 3606   9.151  14.384  14.529 -0.1259 -0.0215 -0.2086
60616W        W 3607  30.215  33.120  13.799  0.2077 -0.2254  0.0226
60617W        W 3608  18.923   9.875  16.918 -0.3314  0.0078 -0.1708
60618W        W 3609   1.039  20.442  16.262 -0.1049 -0.0202 -0.0390
60619W        W 3610  13.540  28.997  23.469  0.0088  0.0220  0.0110
60620W        W 3611  14.711   4.182  15.628 -0.1325  0.4486  0.0302
60621W        W 3612  16.019  28.667  17.462 -0.0386 -0.0803 -0.3210
60622W        W 3613   6.976  31.084  16.156 -0.0177  0.0250 -0.2701
60623W        W 3614   9.542  13.200  21.078  0.0475  0.0642  0.0280
60624W        W 3615   3.158   0.258  28.078 -0.2086  0.1402  0.4021
60625W        W 3616  17.516   4.569  26.759 -0.4486 -0.2665  0.2488
60626W        W 3617  22.985  21.257  13.201 -0.0543 -0.1667  0.0763
60627W        W 3618  18.502  14.946  15.759  0.1251 -0.1241  0.1048
60628W        W 3619  15.421   1.905  16.823  0.0621  0.0474  0.5886
60629W        W 3620  12.038   1.454  10.308  0.3316 -0.1520 -0.2676
60630W        W 3621  21.318   1.260  19.476  0.0355  0.1352  0.0104
60631W        W 3622   3.628  15.203  19.111 -0.3154  0.0677 -0.2813
60632W        W 3623   6.603  24.561   6.376 -0.3005 -0.0944  0.0383
60633W        W 3624  14.920  26.702  21.117 -0.1115  0.0635  0.2267
60634W        W 3625  32.970  21.641  16.356  0.0008  0.1090  0.1435
60635W        W 3626   8.482  21.722  25.222  0.2124  0.2796 -0.0978
60636W        W 3627  15.402  24.788  25.317 -0.0219 -0.0316 -0.1515
60637W        W 3628   4.144   7.682  23.273 -0.1404  0.3766  0.0002
60638W        W 3629  11.065  22.103  22.249 -0.0906 -0.3782  0.2291
60639W        W 3630  17.205   8.075   2.413 -0.0018 -0.0903 -0.0478
60640W        W 3631  16.674   5.346  17.442 -0.1526  0.2895  0.0322
60641W        W 3632  12.564  33.110  20.022 -0.1026 -0.1737 -0.1160
60642W        W 3633  11.355   0.589  18.814  0.0388  0.0247 -0.1836
60643W        W 3634  12.480  29.850  24.986 -0.0119 -0.0887  0.2927
60644W        W 3635  17.783  17.698  14.498 -0.1394 -0.0066  0.0744
60645W        W 3636  31.705  21.410  14.366  0.0269 -0.0116 -0.1499
60646W        W 3637  17.924  20.580  12.261  0.1292 -0.0891 -0.0934
60647W        W 3638  16.146  19.863  12.081 -0.2258 -0.0178 -0.2620
60648W        W 3639   8.701   7.727  18.159 -0.1317  0.1284 -0.2260
60649W        W 3640  22.189  10.353  24.824 -0.2654  0.1272 -0.0580
60650W        W 3641   8.590  22.805  21.097 -0.1896 -0.0942 -0.2568
60651W        W 3642  10.495  30.736  20.721  0.1942  0.0626  0.1920
60652W        W 3643  15.415  22.696  16.687  0.0395 -0.0803  0.0611
60653W        W 3644   7.514   3.612  20.307 -0.0937  0.2075 -0.5866
60654W        W 3645  23.095  30.146   7.261  0.3114 -0.2869 -0.1134
60655W        W 3646   9.143   3.053  25.110  0.1695 -0.3192 -0.1357
60656W        W 3647  12.134  15.105  17.658  0.0305  0.3979 -0.1491
60657W        W 3648  16.983  16.811  13.929  0.1467 -0.1012  0.0549
60658W        W 3649  28.546  28.241   7.632 -0.1909 -0.0771  0.3327
60659W        W 3650  15.021  18.105  26.766 -0.0214  0.1574  0.1768
60660W        W 3651  24.608  33.537  21.547 -0.0891 -0.0030 -0.0593
60661W        W 3652  21.998   7.015  18.723 -0.2550 -0.0062  0.0467
60662W        W 3653  13.724  24.904  19.367 -0.0200  0.0376  0.1090
60663W        W 3654   5.641   3.702  22.581  0.2306 -0.0467 -0.1619
60664W        W 3655  10.467  23.813  15.005 -0.0437  0.2699 -0.0924
60665W        W 3656  11.611  10.522   4.303 -0.0883 -0.1544 -0.1120
60666W        W 3657  33.480   1.464  27.896  0.3141 -0.0687 -0.0915
60667W        W 3658   7.876   9.797  21.884 -0.0032 -0.1765  0.3142
60668W        W 3659  14.173  27.803  21.708  0.0315  0.1716 -0.2926
60669W        W 3660  31.011  22.236  14.213 -0.3043 -0.2094 -0.0081
60670W        W 3661   2.756  25.287  26.627 -0.1387  0.0072  0.0053
60671W        W 3662  15.872   6.198  24.210  0.0558  0.0555  0.3811
60672W        W 3663  13.254  12.643  25.764  0.0912  0.2841 -0.3538
60673W        W 3664  17.343   6.430  10.298 -0.2555 -0.1805  0.2299
60674W        W 3665   4.462  23.649  22.004  0.0407 -0.1691 -0.0606
60675W        W 3666  23.856  15.581  18.005 -0.1255  0.4155 -0.1269
60676W        W 3667  13.544  22.428  25.639  0.0913 -0.2402 -0.0998
60677W        W 3668   1.547  18.153  24.522 -0.1059  0.0693  0.2183
60678W        W 3669  11.463   6.737  15.070 -0.0840  0.0308  0.1165
60679W        W 3670   6.503   8.001  26.076  0.1604 -0.0157  0.3023
60680W        W 3671  27.597  21.656  19.002  0.0087  0.1599  0.1540
60681W        W 3672   5.166   3.134   5.026 -0.0509 -0.3036 -0.3753
60682W        W 3673  18.930   2.020  16.205  0.1384  0.1942  0.0564
60683W        W 3674   9.732  16.753  17.102 -0.1701 -0.0916  0.3355
60684W        W 3675  34.032  10.825  18.062  0.1764  0.0651  0.0356
60685W        W 3676  19.498  10.000  16.609  0.0007  0.1572 -0.0468
60686W        W 3677  22.457  18.754  17.178 -0.0339  0.0810 -0.2010
60687W        W 3678  19.641   0.065  22.119  0.0794  0.0449 -0.0110
60688W        W 3679  30.615  27.464  19.243 -0.1076 -0.0137 -0.0037
60689W        W 3680  16.907  26.533  28.167 -0.0806 -0.3284  0.1115
60690W        W 3681  23.021  14.192  15.266 -0.0908 -0.1237  0.0546
60691W        W 3682  19.781   5.295   6.978  0.1337 -0.2081  0.0266
60692W        W 3683  33.905  29.643  21.934  0.2627  0.0600  0.1154
60693W        W 3684  23.557  29.070   2.933  0.1155 -0.1244  0.1960
60694W        W 3685  13.813  10.850  15.085  0.2843  0.0589 -0.0501
60695W        W 3686  22.651   0.909  23.049  0.1708  0.1462  0.0188
60696W        W 3687  10.839  17.566  19.975  0.2073 -0.1648  0.2029
60697W        W 3688  23.885   8.826   4.916 -0.0247  0.0633  0.0605
60698W        W 3689  20.437  24.586  13.595  0.3012 -0.2280  0.2694
60699W        W 3690  19.547  13.790  28.783 -0.3115  0.0728 -0.3505
60700W        W 3691  27.151  30.971  14.276  0.0471 -0.5093 -0.2583
60701W        W 3692  10.265  28.628  19.267  0.3978 -0.0932 -0.2813
60702W        W 3693  31.884   4.465  23.960  0.3403 -0.1628 -0.2448
60703W        W 3694  10.779  16.279   0.254  0.2541  0.0806 -0.1179
60704W        W 3695  11.521  21.324  19.462  0.0643  0.1215 -0.1094
60705W        W 3696  12.956  26.380  17.780 -0.1338  0.1441 -0.0924
60706W        W 3697   8.104   9.588  26.900 -0.0761  0.4050 -0.1122
60707W        W 3698   8.856   0.757   7.975  0.1579  0.0654 -0.1756
60708W        W 3699   0.845   2.279   2.091 -0.0720  0.2179 -0.0206
60709W        W 3700  27.260  30.752  26.062  0.0106 -0.0128 -0.1010
60710W        W 3701  14.915  31.197   5.906  0.1987 -0.2428 -0.1524
60711W        W 3702   1.836  17.615   3.578 -0.1285  0.1075  0.2807
60712W        W 3703  14.190   8.329  19.701  0.0428  0.1806  0.2905
60713W        W 3704  10.316  20.999  24.776 -0.2594 -0.0619  0.0421
60714W        W 3705  23.087  32.642   5.855 -0.4082 -0.0057 -0.1178
60715W        W 3706  13.797  24.724  12.916 -0.1530  0.1247  0.2318
60716W        W 3707  19.493   4.747  19.671 -0.1997  0.1722  0.1819
60717W        W 3708  10.724  18.047  17.791 -0.0568 -0.1403 -0.3734
60718W        W 3709  11.220  34.249   9.300 -0.1760  0.0062  0.1579
60719W        W 3710  17.526  34.392  21.824  0.0031 -0.1443  0.0314
60720W        W 3711  25.650  12.202  17.725  0.2592 -0.1282 -0.1653
60721W        W 3712  13.838  13.968   2.657 -0.1340 -0.2468  0.1695
60722W        W 3713  34.254  18.728   0.697  0.0410  0.1457 -0.1591
60723W        W 3714  20.022   1.519  14.605  0.1892 -0.0236  0.2682
60724W        W 3715   5.252  10.497  27.510  0.0790 -0.0551  0.2805
60725W        W 3716  14.920  16.122   5.846  0.0642  0.0239  0.1005
60726W        W 3717  30.337  21.330  25.020  0.1900  0.0256 -0.1293
60727W        W 3718   6.964  21.670   1.433  0.1163 -0.1503  0.0390
60728W        W 3719  14.015  30.624  19.212  0.0424  0.0342 -0.0267
60729W        W 3720  22.183  18.779  25.794 -0.0671  0.1140  0.0153
60730W        W 3721   8.018  21.252  27.137 -0.0042  0.0129 -0.0891
60731W        W 3722  20.014  26.918   0.033 -0.1187 -0.1282 -0.2806
60732W        W 3723  24.815  20.170  20.461  0.0620  0.1204 -0.0757
60733W        W 3724   1.540  31.341  19.180 -0.0911 -0.0534 -0.4415
60734W        W 3725  20.578  26.080  18.238  0.2923 -0.1333  0.1160
60735W        W 3726  13.504  20.827  16.774  0.1156 -0.2963  0.2064
60736W        W 3727  15.144  27.915  23.976  0.1928 -0.2305 -0.1078
60737W        W 3728  12.428  18.530  23.990  0.1570 -0.1453  0.1525
60738W        W 3729  16.438  28.211  25.927 -0.0903  0.0091  0.1113
60739W        W 3730  12.714  12.732  15.773 -0.1332  0.1532 -0.1092
60740W        W 3731  29.873   7.089   4.110  0.2365 -0.0191  0.0921
60741W        W 3732   9.038  13.497   5.208 -0.2290  0.0095  0.2523
60742W        W 3733  23.682   6.041  21.794 -0.2529 -0.1963  0.1848
60743W        W 3734  18.951  18.468   7.703  0.0401 -0.0409 -0.2473
60744W        W 3735   6.360  27.715   1.395  0.2045 -0.0390  0.1608
60745W        W 3736  16.422  16.180  25.658 -0.3027 -0.0339  0.1827
60746W        W 3737  26.032   2.895  13.823  0.1843  0.3314 -0.2131
60747W        W 3738   9.438  13.180  23.064  0.1615  0.0289 -0.2268
60748W        W 3739  26.354  27.159   4.836 -0.0853  0.0035 -0.0652
60749W        W 3740  11.028  27.612  18.861 -0.0625  0.2870  0.1548
60750W        W 3741  12.129   3.502   4.869 -0.1350  0.4655  0.1718
60751W        W 3742   3.110  29.297   0.586  0.2076  0.0465 -0.3608
60752W        W 3743  13.236  23.549   5.657 -0.1622  0.0140 -0.1233
60753W        W 3744   5.956  16.122  19.892  0.0118  0.0159  0.1157
60754W        W 3745   0.773  15.139  25.513  0.3173  0.1819  0.2836
60755W        W 3746   8.872  32.771   5.364 -0.0675 -0.1076 -0.0163
60756W        W 3747  16.226   9.493  26.774  0.0399 -0.0024  0.2178
60757W        W 3748   4.615  25.310   2.073  0.0797 -0.3596  0.0522
60758W        W 3749   3.338  10.510  21.873  0.1698  0.1964 -0.0846
60759W        W 3750   3.957   6.835  19.450  0.2466 -0.5453  0.2019
60760W        W 3751  11.076  33.276  10.872 -0.1188  0.1098 -0.0343
60761W        W 3752  23.846  30.186  17.922  0.1037  0.2231  0.4678
60762W        W 3753  24.477  12.076  23.319  0.1374  0.2122 -0.1091
60763W        W 3754  23.840  30.509  15.656  0.0905 -0.0103  0.3377
60764W        W 3755  18.167  18.846   2.440  0.2616  0.0410  0.2918
60765W        W 3756  24.545   1.371   1.124  0.2728 -0.0729 -0.0108
60766W        W 3757  30.350  14.919   2.110  0.0575 -0.1581  0.1013
60767W        W 3758  20.260  27.104  28.839 -0.2133  0.1583  0.1517
60768W        W 3759  16.372  11.082  20.393 -0.3165 -0.1224 -0.1084
60769W        W 3760   7.134   7.596   1.220 -0.0569  0.1415  0.1123
60770W        W 3761  15.507  22.613  26.691 -0.2010 -0.0737  0.0341
60771W        W 3762   8.928   9.692  23.981 -0.3462 -0.0821 -0.0376
60772W        W 3763  14.720  14.693   2.858 -0.2147  0.0781  0.4886
60773W        W 3764  10.597  11.124  28.223 -0.3517 -0.0347 -0.1182
60774W        W 3765  21.922   0.052   5.887  0.1644  0.2231  0.1407
60775W        W 3766  18.135  23.675  14.411  0.2174 -0.1083 -0.2882
60776W        W 3767   7.722  22.851  23.939  0.1514 -0.0007  0.1593
60777W        W 3768  21.424  22.512  22.791 -0.2244 -0.0938  0.1379
60778W        W 3769   8.663  30.083   7.391 -0.2577 -0.1464  0.0904
60779W        W 3770  31.523  31.209  16.890 -0.0124 -0.0059 -0.2035
60780W        W 3771  14.687  27.706  16.240  0.0785  0.2400 -0.1591
60781W        W 3772  23.369  31.841   2.499  0.0682 -0.4374  0.1118
60782W        W 3773   2.068   2.486  23.920  0.2015 -0.4012  0.0354
60783W        W 3774  10.990  34.365  28.535  0.3939  0.1147  0.0707
60784W        W 3775  18.797   6.383  22.113  0.0273 -0.2732 -0.0704
60785W        W 3776   7.174  23.510  25.323 -0.0673 -0.1160  0.0525
60786W        W 3777  11.955  16.808  19.028 -0.1332  0.3180  0.2972
60787W        W 3778   1.557  10.332   6.399 -0.1505 -0.3690  0.1390
60788W        W 3779  24.271  11.696   2.820 -0.0268 -0.0943  0.0281
60789W        W 3780  14.868  27.440  16.591 -0.0023 -0.3506 -0.1407
60790W        W 3781  11.288  17.706  23.521  0.0131 -0.0207 -0.2658
60791W        W 3782   9.011  11.902   6.187 -0.0560 -0.2468 -0.0613
60792W        W 3783  32.568  13.420  20.820  0.0780  0.0402  0.3441
60793W        W 3784  19.973  12.487   5.082 -0.3987 -0.1237 -0.0883
60794W        W 3785  27.632  25.761  20.250  0.3190  0.3573 -0.1618
60795W        W 3786  12.265  26.817   9.273 -0.0282 -0.1299 -0.1984
60796W        W 3787   0.821  23.210  21.847 -0.3641  0.3119 -0.0070
60797W        W 3788  13.985  13.854  26.578  0.0874  0.0858 -0.1528
60798W        W 3789  11.292  10.216  25.166 -0.3845  0.3931  0.1022
60799W        W 3790  12.600   9.034  28.659  0.2166  0.3459  0.2803
60800W        W 3791   5.741  16.204  24.050  0.2053  0.1215  0.0286
60801W        W 3792  30.467   1.703   3.328  0.0595  0.0086 -0.0315
60802W        W 3793  21.863  18.728  27.497  0.0881 -0.0919  0.0199
60803W        W 3794  12.572  29.687  26.557 -0.1411 -0.0996  0.0453
60804W        W 3795  33.331  26.637  15.511 -0.0075 -0.1929  0.1485
60805W        W 3796   2.984  25.909  21.944  0.2996  0.0087  0.0578
60806W        W 3797  14.316  12.369   2.661  0.0160 -0.0715  0.0798
60807W        W 3798  17.837  19.011  13.814 -0.1817 -0.0164  0.0208
60808W        W 3799  32.423  27.500  25.161 -0.0308 -0.0071 -0.0278
60809W        W 3800  33.540  12.162  18.354  0.0338  0.0220 -0.1223
60810W        W 3801  34.344  20.481  28.082  0.0713 -0.0296 -0.2436
60811W        W 3802  15.289  24.315  27.689 -0.0097  0.1846  0.4412
60812W        W 3803  18.645  24.750  22.811 -0.1552  0.0786  0.3040
60813W        W 3804  15.211  28.603   0.093 -0.0396 -0.2434  0.1407
60814W        W 3805   8.309  17.734   9.998  0.0778  0.0664  0.2965
60815W        W 3806   5.624  16.528  23.683  0.1302 -0.0998 -0.1421
60816W        W 3807  25.016  27.091  15.564  0.0277 -0.0337  0.1308
60817W        W 3808  19.278  26.849  20.545  0.2952 -0.1797  0.1008
60818W        W 3809  12.060   5.511  24.319 -0.1244  0.1910  0.1626
60819W        W 3810  13.588  12.355   1.840 -0.2692 -0.3438 -0.1770
60820W        W 3811   2.466  27.590  10.337  0.2516 -0.1225 -0.1267
60821W        W 3812  12.712  20.976  17.692 -0.2563 -0.1981 -0.2733
60822W        W 3813   9.690  30.520  23.711  0.0131  0.1983  0.0093
60823W        W 3814  10.552  23.240  26.678 -0.0950 -0.3201 -0.0437
60824W        W 3815  26.861  20.607  16.293 -0.0968 -0.3547  0.0523
60825W        W 3816   3.074  32.895  18.485 -0.2822 -0.2759 -0.0690
60826W        W 3817  24.239  18.762  19.285  0.4670  0.0296  0.0402
60827W        W 3818   4.448  22.194  23.392  0.1998  0.0509 -0.1546
60828W        W 3819   4.471  22.791  16.928 -0.0232 -0.1770 -0.3400
60829W        W 3820  18.053  21.917   6.167 -0.0766  0.0711 -0.1740
60830W        W 3821  12.459  19.020  26.980  0.2067 -0.4338  0.2469
60831W        W 3822   5.001  33.332  27.351 -0.0572  0.1290  0.1780
60832W        W 3823  13.884  12.016  17.370 -0.0409 -0.1360  0.2474
60833W        W 3824  15.162   3.391  16.888 -0.0595 -0.0765 -0.1137
60834W        W 3825  11.141   9.013   9.722  0.0674 -0.1133 -0.0836
60835W        W 3826  19.961  23.394  23.682 -0.2226 -0.1185  0.2892
60836W        W 3827   9.328  15.113  23.571 -0.0381  0.1574  0.1413
60837W        W 3828  31.797  10.418   0.733  0.0525 -0.0514 -0.3660
60838W        W 3829  18.100   7.517  20.055  0.0500 -0.2274 -0.2443
60839W        W 3830  11.525  21.454  20.570  0.3092  0.0474  0.1612
60840W        W 3831  28.769  12.759  26.688  0.1775 -0.1892  0.0651
60841W        W 3832  31.993  22.827   0.607 -0.0770  0.1079 -0.0479
60842W        W 3833  28.843  30.892  19.570  0.4127 -0.3739 -0.2112
60843W        W 3834  19.956  15.521  22.886 -0.1650  0.1965  0.1025
60844W        W 3835  34.573   0.321  18.770 -0.3670  0.1521  0.1719
60845W        W 3836   8.186  20.952  27.740  0.2732 -0.2266 -0.0936
60846W        W 3837   9.333  15.064  25.333 -0.1581  0.0692  0.0506
60847W        W 3838  11.051  23.126  26.764 -0.1033 -0.0520 -0.2857
60848W        W 3839  20.627  15.411  14.592 -0.0513  0.0839  0.0049
60849W        W 3840   5.109  25.546  15.240  0.1155 -0.1548  0.1692
60850W        W 3841   2.988   1.036  29.253 -0.1674  0.0737 -0.1573
60851W        W 3842   4.477  22.406   0.530  0.0049  0.3107  0.0974
60852W        W 3843  20.855  25.584  18.190  0.1646  0.2032  0.0365
60853W        W 3844   2.213  33.620  19.153 -0.0713  0.3135 -0.2895
60854W        W 3845  19.513  25.751  15.380 -0.2364  0.4479 -0.0724
60855W        W 3846  12.932  26.992  25.187 -0.0481 -0.2571 -0.0929
60856W        W 3847  17.283  14.550   3.401 -0.1270 -0.2305  0.2676
60857W        W 3848   1.228  21.643  27.967 -0.0965  0.1517 -0.0538
60858W        W 3849  24.926  15.755  26.038  0.0241 -0.1225 -0.0972
60859W        W 3850   7.416  32.703   2.772  0.0905 -0.2220 -0.1968
60860W        W 3851  26.956  27.142   4.116 -0.0308  0.2015 -0.2145
60861W        W 3852  14.512  25.180   0.634  0.0757  0.1717  0.0588
60862W        W 3853   2.281   8.426   7.420 -0.1651  0.1622 -0.2364
60863W        W 3854  21.302  11.115  26.489 -0.1912  0.2980 -0.4816
60864W        W 3855  18.844  10.811  27.248 -0.2321  0.5575 -0.1243
60865W        W 3856  20.970   0.331  16.098 -0.0850 -0.1214  0.2799
60866W        W 3857  24.590   7.366  19.697  0.2120 -0.3222 -0.0396
60867W        W 3858   8.439  17.810  25.982 -0.0953 -0.2210 -0.2422
60868W        W 3859   4.389  29.593   5.397 -0.1664  0.0781 -0.0666
60869W        W 3860  26.208  22.085  22.291 -0.2963  0.0188 -0.3421
60870W        W 3861   9.429   5.524  26.989  0.0463 -0.1897 -0.1109
60871W        W 3862  19.360  14.416   8.096  0.0487  0.1600  0.2530
60872W        W 3863  16.731  21.042  20.953 -0.0399 -0.1882  0.0581
60873W        W 3864  33.086   7.220   1.499  0.3013 -0.1830  0.2146
60874W        W 3865  24.172   4.156   5.131  0.2707 -0.3534  0.0245
60875W        W 3866  17.456   2.274  28.239 -0.2911 -0.0387 -0.1626
60876W        W 3867  30.460   8.253  17.964  0.1254 -0.3835  0.0108
60877W        W 3868  14.311  27.468  28.696  0.0040  0.1144  0.1234
60878W        W 3869  20.556   7.325  20.516  0.1157  0.4262 -0.0587
60879W        W 3870  15.371  33.534  20.070 -0.0780  0.3626  0.2394
60880W        W 3871  22.378   8.996  26.198  0.0105  0.0731 -0.1601
60881W        W 3872   8.619  27.764  25.702  0.2664 -0.0420  0.2404
60882W        W 3873   4.415  16.105  19.124 -0.1096 -0.1134  0.1061
60883W        W 3874  13.279  32.302  15.929 -0.0563 -0.2067  0.3188
60884W        W 3875   4.014   4.869  10.968  0.3057  0.0946 -0.0750
60885W        W 3876   1.211  15.244  27.116  0.0238  0.1520  0.1125
60886W        W 3877  13.120  28.824  25.974 -0.0156 -0.1095 -0.0850
60887W        W 3878   9.745  13.356  20.079 -0.1370 -0.1053  0.0044
60888W        W 3879  14.506   8.748  26.115 -0.0479 -0.2322  0.1201
60889W        W 3880  25.787   4.121  22.413 -0.0808 -0.0521 -0.0917
60890W        W 3881  10.622  23.086   5.490 -0.3095 -0.1512 -0.2005
60891W        W 3882   5.670  18.101  20.804 -0.0937 -0.0999  0.1001
60892W        W 3883  23.441  30.528   1.871  0.0967 -0.0916  0.2133
60893W        W 3884   4.121  13.676   4.095 -0.2085 -0.0037 -0.0498
60894W        W 3885   7.847  27.621   2.383  0.3875 -0.1075 -0.2415
60895W        W 3886  34.133  26.897  20.971  0.0733  0.2907  0.0397
60896W        W 3887  16.943  25.576  28.016  0.0692  0.1624  0.0958
60897W        W 3888   6.291   9.738  20.548  0.1909  0.3552  0.1323
60898W        W 3889  14.494  16.413  15.891  0.1739  0.0523  0.0825
60899W        W 3890   9.662   8.819  17.078  0.0171 -0.0137  0.1487
60900W        W 3891   9.271  32.230   1.551 -0.0911 -0.1293  0.2459
60901W        W 3892   8.894  16.840  28.705  0.3993 -0.1005 -0.0075
60902W        W 3893  17.992  24.718  20.199 -0.0522  0.2469 -0.1858
60903W        W 3894  23.075  30.793  25.849 -0.1027 -0.3918 -0.2478
60904W        W 3895   0.659  19.344  20.100 -0.0317 -0.0039 -0.1386
60905W        W 3896  15.589  11.450  16.087  0.0664  0.5616  0.0985
60906W        W 3897   5.781  14.684  26.753 -0.0772 -0.2563  0.0835
60907W        W 3898  22.760  25.478   4.409  0.0192 -0.2895 -0.1046
60908W        W 3899   3.585  26.730  17.138  0.1156 -0.2161  0.0022
60909W        W 3900  19.447  22.634  14.765 -0.1453  0.3121  0.1995
60910W        W 3901  31.692  20.020   8.158 -0.0519 -0.2276 -0.2669
60911W        W 3902  21.738  17.303  16.306  0.3065 -0.2127 -0.3091
60912W        W 3903  19.914  22.715   5.308 -0.0653 -0.0667  0.4830
60913W        W 3904  17.342  18.203  25.761  0.1110  0.0792  0.0557
60914W        W 3905  10.806  18.501  21.459  0.0214 -0.1719  0.0682
60915W        W 3906   6.177  16.076   4.688  0.0514  0.1073 -0.2690
60916W        W 3907  31.985  24.197  27.048 -0.2130  0.2966  0.0513
60917W        W 3908  19.460  23.068  15.065 -0.2072  0.0606 -0.2564
60918W        W 3909   8.683   6.550   0.291 -0.3129  0.1140 -0.2595
60919W        W 3910  12.835  28.205  21.581  0.0425 -0.1744 -0.2976
60920W        W 3911   8.460  12.793   3.112 -0.2629 -0.0831 -0.2449
60921W        W 3912  31.641  28.232  19.200  0.3532 -0.2704 -0.1981
60922W        W 3913  19.514   5.431   0.118 -0.0137  0.0590  0.0200
60923W        W 3914   9.937  17.079  22.212 -0.1455 -0.1954  0.2363
60924W        W 3915  14.802   7.986  18.313 -0.0895 -0.0216 -0.2299
60925W        W 3916  24.774  29.112  20.206 -0.0550 -0.2570  0.1993
60926W        W 3917  22.302   2.728   4.982 -0.1539  0.1801  0.0482
60927W        W 3918  16.262  29.382  17.870 -0.0693  0.0787 -0.2189
60928W        W 3919   0.593  29.944   4.783 -0.3205 -0.2246  0.1163
60929W        W 3920   9.844  13.461   0.719 -0.1432 -0.0013 -0.2090
60930W        W 3921  30.270   1.384  17.336 -0.1996 -0.0416  0.0485
60931W        W 3922  20.098  23.325  19.785  0.2464 -0.1621 -0.1909
60932W        W 3923   3.072  12.099   9.705  0.0940  0.1126 -0.1149
60933W        W 3924  11.781  19.899   1.582  0.0570  0.1270 -0.2466
60934W        W 3925   6.938  11.873  25.455  0.0870  0.3565 -0.0457
60935W        W 3926  11.719  22.261  24.641 -0.3469 -0.0148 -0.0966
60936W        W 3927  29.179  29.061  24.660  0.0610 -0.1431  0.0387
60937W        W 3928  11.306   8.681  27.512 -0.0103 -0.1002  0.2151
60938W        W 3929  21.705  24.449  26.147 -0.1273 -0.1391 -0.0510
60939W        W 3930   6.180  23.137  29.066 -0.0534 -0.0894 -0.0742
60940W        W 3931  20.197   7.140  26.626  0.0346 -0.3453  0.0320
60941W        W 3932   8.914  14.640  20.032 -0.1535  0.2054 -0.1344
60942W        W 3933  13.503  14.786  20.456  0.1977  0.1658  0.0430
60943W        W 3934   3.772  13.838  19.666  0.1192  0.1704  0.0095
60944W        W 3935   0.938  12.547   0.433 -0.0288 -0.0440  0.2062
60945W        W 3936  13.931   9.426  20.471 -0.5189  0.0837 -0.3346
60946W        W 3937   8.614   5.332  21.046 -0.0490 -0.4012  0.2756
60947W        W 3938  11.650  33.316  17.015 -0.2994  0.2282  0.0142
60948W        W 3939  23.872  18.300  26.389  0.1176 -0.2769 -0.2850
60949W        W 3940  13.698   3.634   7.661  0.0908  0.0776 -0.1062
60950W        W 3941  12.928  22.399  23.796  0.0521 -0.1812  0.1190
60951W        W 3942  13.416   4.112  25.394 -0.1756  0.0237 -0.0366
60952W        W 3943   1.337  28.307   1.439 -0.0861  0.1134 -0.3331
60953W        W 3944  15.515  13.723   2.018 -0.2176 -0.0404 -0.0008
60954W        W 3945   8.840  24.126  19.798 -0.0543  0.2138 -0.3689
60955W        W 3946  21.466  24.811   3.835 -0.2176  0.1154 -0.0970
60956W        W 3947   6.780  12.375   0.578  0.2246  0.2859  0.2150
60957W        W 3948  26.062  33.923  23.888 -0.0087 -0.2297 -0.1797
60958W        W 3949  26.800  19.521  21.486 -0.2222  0.0756 -0.2243
60959W        W 3950  11.467   4.877  27.877  0.3863  0.1621 -0.0529
60960W        W 3951  10.018   5.634  17.866 -0.1166 -0.0220  0.0506
60961W        W 3952   0.883  30.258  14.331 -0.1886 -0.0041 -0.1599
60962W        W 3953  16.478  23.925  16.399  0.0811  0.0754  0.0249
60963W        W 3954  16.459  25.560  16.727  0.2931 -0.1404 -0.0492
60964W        W 3955   7.823  11.125   8.587 -0.0028  0.1177 -0.1307
60965W        W 3956  13.622  13.013  20.740 -0.2906  0.0850 -0.1196
60966W        W 3957   9.440  22.887  27.684 -0.1518 -0.1188  0.0742
60967W        W 3958   8.429  32.735  22.469 -0.0075 -0.3006  0.0376
60968W        W 3959  25.554  18.271  24.804 -0.4151 -0.1577  0.2462
60969W        W 3960   1.854  19.267  20.629  0.2179 -0.0692 -0.2127
60970W        W 3961   2.648  17.989  20.099 -0.1895  0.1644  0.0242
60971W        W 3962   3.390  31.437  16.819  0.1385 -0.0237 -0.0974
60972W        W 3963   4.664   0.066  28.754 -0.4157  0.0410 -0.5672
60973W        W 3964   2.219  31.032   9.117  0.3103  0.1235 -0.1593
60974W        W 3965  17.665  21.205  23.365  0.1999 -0.2075  0.4810
60975W        W 3966   9.108   8.220   7.769  0.1408 -0.0151  0.0139
60976W        W 3967  28.779  22.885  14.775  0.0918  0.1127  0.0232
60977W        W 3968   7.166  13.609  21.758 -0.0089  0.2172 -0.3923
60978W        W 3969   2.973   1.690  24.126 -0.2357 -0.0209  0.1258
60979W        W 3970   2.036   1.315  27.202  0.0456  0.0479  0.1353
60980W        W 3971  32.540   9.035  18.607 -0.2163 -0.0360  0.0873
60981W        W 3972   1.015  32.340  24.633  0.0868  0.2219 -0.2738
60982W        W 3973  11.381  17.602   7.965 -0.3399 -0.1264 -0.1985
60983W        W 3974  14.803  21.080  19.179  0.3005  0.0069 -0.0510
60984W        W 3975  11.025  15.637  25.858 -0.0574  0.3490 -0.1089
60985W        W 3976  34.312  19.425  17.580 -0.0788 -0.0471 -0.3707
60986W        W 3977  23.298   2.738  18.655  0.0538 -0.3465  0.1765
60987W        W 3978   1.843  12.780  17.499 -0.3890  0.0613 -0.1384
60988W        W 3979  29.340  23.851  25.175  0.1899  0.0881  0.1817
60989W        W 3980  20.741  25.537  27.892  0.1691 -0.1066 -0.0237
60990W        W 3981   6.551  18.741   0.845  0.1100  0.1778  0.0792
60991W        W 3982   4.384  22.871   7.950  0.0719  0.1314  0.1819
60992W        W 3983  19.514  10.598  14.513 -0.2618 -0.2647  0.0159
60993W        W 3984  12.386  26.372  26.700 -0.1525  0.0530 -0.2052
60994W        W 3985  34.174  24.538  20.706 -0.1620  0.0133 -0.0438
60995W        W 3986  14.099  27.278  15.890 -0.1208  0.0469  0.2752
60996W        W 3987   8.810  21.977  20.837 -0.1445 -0.0191  0.0334
60997W        W 3988   4.161   7.632   1.271  0.1077 -0.1708  0.2623
60998W        W 3989  15.964  25.784  28.628  0.2135 -0.1898 -0.0581
60999W        W 3990   2.329  15.147  27.199  0.1470 -0.0920  0.0990
61000W        W 3991  20.001  32.708  27.114  0.0605  0.2998  0.2275
61001W        W 3992  31.707  34.700  19.468  0.1044  0.0669  0.0611
61002W        W 3993  17.886  20.027   2.167 -0.1228 -0.2482 -0.0946
61003W        W 3994  33.317  20.667  15.997  0.3161 -0.0164 -0.3306
61004W        W 3995   9.229   1.094   4.644  0.1519  0.0921  0.0166
61005W        W 3996   4.746  13.338  19.884  0.1157  0.0350 -0.2017
61006W        W 3997   5.898  15.595  21.838  0.2218 -0.2942  0.2431
61007W        W 3998   1.493  17.259  23.847 -0.1393 -0.3018 -0.3252
61008W        W 3999   8.572  29.780   0.343  0.1352  0.1433 -0.2678
61009W        W 4000  16.517   9.973  22.619  0.1468 -0.0260 -0.2252
61010W        W 4001  13.978  20.803  21.992 -0.2123 -0.3197  0.0279
61011W        W 4002  16.875  12.170  23.610  0.0081  0.1306 -0.2486
61012W        W 4003  14.190  20.138  27.155 -0.0222 -0.0089 -0.1245
61013W        W 4004   8.187   2.859   2.205  0.0208 -0.1290  0.3824
61014W        W 4005   8.079  12.464   4.816  0.2970  0.0515  0.0427
61015W        W 4006  10.792  20.519  28.898  0.2065 -0.4595  0.2668
61016W        W 4007  15.889  18.538  26.021 -0.2053 -0.1822  0.0140
61017W        W 4008  13.203  14.127   0.865  0.2378 -0.2347 -0.2019
61018W        W 4009  18.834  24.640  21.304  0.1287  0.2008  0.0531
61019W        W 4010  11.445  14.520   2.932  0.1507  0.1112  0.2045
61020W        W 4011   8.311  12.422  27.916  0.1161  0.1418 -0.1461
61021W        W 4012   8.408  23.666  22.798 -0.0036 -0.2022 -0.0371
61022W        W 4013  18.343   1.153  14.997 -0.3953 -0.0967 -0.1652
61023W        W 4014   5.877  27.706  17.880  0.1109 -0.1641  0.0401
61024W        W 4015   8.290   3.413  14.992  0.1471 -0.0587 -0.1680
61025W        W 4016   7.905  15.897  19.674 -0.1129  0.3024 -0.1543
61026W        W 4017  15.993  21.710  19.994 -0.2272  0.2710  0.0099
61027W        W 4018  14.292  24.953  24.630 -0.1181 -0.1830  0.0283
61028W        W 4019   1.043  24.386   0.510 -0.1716 -0.2572  0.0021
61029W        W 4020   6.946  20.980  23.207  0.1815 -0.2217  0.0077
61030W        W 4021  22.716  19.542  20.412 -0.5451 -0.3308 -0.2885
61031W        W 4022   9.881  27.654  26.092  0.2132 -0.0336 -0.2556
61032W        W 4023  19.154   7.742  16.516 -0.1977 -0.0147  0.0218
61033W        W 4024   8.444  26.861   1.930 -0.0513 -0.0158  0.0794
61034W        W 4025  28.469  27.981  16.646 -0.0173 -0.0535 -0.0980
61035W        W 4026  17.418   0.602  23.217  0.1088  0.0133 -0.0105
61036W        W 4027   3.699  29.296  20.565  0.0197 -0.2836 -0.0891
61037W        W 4028  28.501  14.917   9.258  0.1818 -0.0345 -0.0812
61038W        W 4029   7.073  22.054  19.764  0.0597  0.1146 -0.2898
61039W        W 4030  17.819   9.885   4.390 -0.0566 -0.0171 -0.0515
61040W        W 4031  14.009  29.189  21.141  0.1892 -0.0713 -0.1137
61041W        W 4032  34.690  25.962  20.904  0.2825 -0.1838 -0.1649
61042W        W 4033   7.207  17.958   2.008 -0.1171  0.2476 -0.1391
61043W        W 4034  21.011   7.287  23.722  0.1993 -0.2545  0.1386
61044W        W 4035  19.584  26.610  28.252  0.0410  0.0637 -0.1610
61045W        W 4036   5.338  28.400  15.748 -0.1552 -0.2155 -0.0581
61046W        W 4037   9.221   9.752   5.236 -0.3428  0.0898  0.0633
61047W        W 4038  13.035  27.403  26.942 -0.1765  0.2046 -0.1307
61048W        W 4039   5.987  28.650  18.418  0.0062  0.1600  0.0446
61049W        W 4040  13.091  32.560  13.800  0.0386  0.1514 -0.1776
61050W        W 4041   8.676  14.573  23.995 -0.0461  0.2039  0.0908
61051W        W 4042  28.394  22.930  25.511 -0.0589 -0.2164 -0.0999
61052W        W 4043   4.004  25.996  24.238 -0.1150 -0.1952 -0.1553
61053W        W 4044  32.220   5.126  28.175 -0.0290  0.2125 -0.0984
61054W        W 4045   9.529  15.229   2.047  0.2209 -0.2448  0.3821
61055W        W 4046  10.552  22.010   5.500 -0.0666 -0.0975  0.0552
61056W        W 4047  27.165  22.225  25.069  0.0201 -0.0679 -0.2409
61057W        W 4048  22.720  28.594  20.045  0.3826 -0.1934  0.0474
61058W        W 4049  33.303   5.803  16.623  0.1334 -0.3119  0.0761
61059W        W 4050   1.500   8.590  22.743  0.2348  0.0421  0.0389
61060W        W 4051   7.556   0.874  26.535 -0.1890  0.3008  0.0751
61061W        W 4052  10.045  22.095  14.160  0.1795  0.0934  0.1316
61062W        W 4053  11.471  15.049  28.643 -0.1670 -0.0068 -0.1746
61063W        W 4054  15.498   6.760   2.754  0.0448  0.0314  0.0526
61064W        W 4055  14.187   2.562   5.984  0.5511 -0.0198 -0.2490
61065W        W 4056   7.811  26.696  14.499  0.2085 -0.4344  0.2336
61066W        W 4057   6.074  32.887  26.768 -0.4160 -0.0523  0.0400
61067W        W 4058  19.184  13.144  25.778  0.0938 -0.1973  0.0166
61068W        W 4059   7.828  15.374  19.756 -0.0627 -0.0151  0.1171
61069W        W 4060   3.482   4.060   3.326  0.1959 -0.0905 -0.2122
61070W        W 4061  11.493  10.218  10.728 -0.0759 -0.0917 -0.0809
61071W        W 4062  20.797  24.170   8.239  0.0636 -0.2409  0.0066
61072W        W 4063   8.740  31.772  22.538  0.1671 -0.0122  0.0325
61073W        W 4064  14.335  29.670  16.738  0.0761 -0.0974  0.2369
61074W        W 4065   2.313  27.934  27.020 -0.3373 -0.0774 -0.0094
61075W        W 4066  10.852  28.410  15.977  0.2173 -0.1256  0.0153
61076W        W 4067  29.723  18.769  21.820 -0.0332  0.0314 -0.0124
61077W        W 4068   6.806   6.737  20.790 -0.0240 -0.1027 -0.0770
61078W        W 4069  10.918  20.512  22.753  0.1450 -0.0127  0.1098
61079W        W 4070  33.812  11.325  18.149 -0.1651  0.1555  0.0678
61080W        W 4071   2.680  19.310   1.513 -0.3124 -0.0096  0.0946
61081W        W 4072  26.762  34.676  21.220 -0.0017 -0.1488  0.0077
61082W        W 4073   6.558  18.237   6.418 -0.2334  0.1349  0.2042
61083W        W 4074  13.508  16.527  22.303 -0.1446 -0.2217  0.1993
61084W        W 4075  23.267  11.498  23.743  0.1476  0.0434  0.0720
61085W        W 4076  15.969  16.848   8.745 -0.2785 -0.0926  0.2371
61086W        W 4077   1.479   8.501   7.210  0.3002 -0.0779 -0.4577
61087W        W 4078   7.863   1.525  22.039  0.2474  0.0930 -0.1127
61088W        W 4079  22.264   8.999  24.955  0.0560 -0.0905 -0.0940
61089W        W 4080  10.020  15.822   1.929 -0.2294  0.3131 -0.0105
61090W        W 4081  13.572   8.725  17.098  0.0025  0.1983  0.2502
61091W        W 4082   8.311  19.151  28.082  0.1128 -0.2278  0.2374
61092W        W 4083   7.189  32.849   3.335 -0.1274 -0.0722  0.1067
61093W        W 4084  23.308   3.824  21.555 -0.3595 -0.2598  0.0612
61094W        W 4085  16.965  23.033  23.261 -0.0021 -0.0037  0.0736
61095W        W 4086  22.321  34.451  18.740 -0.1451  0.0787 -0.0035
61096W        W 4087  21.251  21.675   4.040 -0.1039  0.3651 -0.3052
61097W        W 4088  29.167   6.066  18.935  0.2444 -0.4004  0.0905
61098W        W 4089  11.566   4.480   2.470  0.1735 -0.0435  0.0635
61099W        W 4090   7.127  21.898  27.361 -0.1429  0.0895 -0.1289
61100W        W 4091   8.160  33.271  26.624  0.0017  0.1002  0.2997
61101W        W 4092   5.692  27.138  28.666  0.0360  0.1850 -0.1848
61102W        W 4093  33.521  15.842   6.066 -0.0022 -0.1785 -0.1658
61103W        W 4094  33.488   4.272   2.590 -0.0790  0.1104 -0.1453
61104W        W 4095  29.646  10.218  20.787 -0.0127  0.0198 -0.0558
61105W        W 4096  12.288  18.403  24.538 -0.3175  0.0916  0.1090
61106W        W 4097  13.976  19.288   1.006 -0.0281 -0.0349  0.1255
61107W        W 4098  27.372   9.435  23.139  0.1076  0.3556  0.0412
61108W        W 4099   5.885  12.480  23.046  0.0692 -0.0285 -0.1043
61109W        W 4100  34.782  18.164  29.258 -0.2875  0.1518 -0.1230
61110W        W 4101   8.421  15.890  24.198 -0.1467 -0.1475 -0.1371
61111W        W 4102  15.745   2.907  24.895 -0.2499 -0.0533  0.1901
61112W        W 4103   0.276  11.059   1.585 -0.1623  0.1169  0.0488
61113W        W 4104   2.668  16.348  28.334 -0.2329  0.0610 -0.0689
61114W        W 4105  22.090  27.875   4.448 -0.0040 -0.2473  0.0524
61115W        W 4106  11.615  19.531  26.646  0.3437 -0.1330  0.1829
61116W        W 4107  14.041  30.468   5.209  0.1460 -0.0906  0.1540
61117W        W 4108  14.305  20.189  21.889  0.0807  0.0353  0.2699
61118W        W 4109  29.598  19.529   2.224  0.1024 -0.0585 -0.2659
61119W        W 4110  28.853  29.589  19.079 -0.0688 -0.2983  0.4113
61120W        W 4111   7.812  11.332  28.461 -0.0716 -0.1704 -0.1753
61121W        W 4112  10.598  21.642  25.773 -0.1609 -0.0109  0.1277
61122W        W 4113  33.152  18.908  26.186 -0.1109  0.2571  0.0303
61123W        W 4114   1.181  33.846  29.062  0.1611 -0.4245 -0.0664
61124W        W 4115   9.169  12.326   2.592  0.2090  0.1782  0.3892
61125W        W 4116   2.145  16.765   3.770  0.5521 -0.2372 -0.2611
61126W        W 4117   2.075  17.747  18.809 -0.2485  0.0416 -0.2355
61127W        W 4118  28.055   5.883  14.598  0.0036 -0.2435  0.0027
61128W        W 4119  12.141  28.311  16.562 -0.0071  0.0404  0.2662
61129W        W 4120  17.454  31.222  17.453 -0.2290  0.0643 -0.2163
61130W        W 4121  19.247  12.479  19.077  0.2011 -0.0845 -0.1216
61131W        W 4122  16.110   6.788   1.945  0.0890  0.2879  0.2132
61132W        W 4123  18.490  22.160  21.508  0.3667  0.2034  0.1795
61133W        W 4124  13.106  29.554  15.547 -0.0958  0.0105  0.0403
61134W        W 4125   8.704  16.377   8.308 -0.0227 -0.0197 -0.1110
61135W        W 4126  34.053  10.314  19.862  0.0448 -0.0808  0.1027
61136W        W 4127  12.896  22.879  29.259  0.0119  0.1940  0.0407
61137W        W 4128   8.306  27.406  27.685  0.1558 -0.2787  0.2295
61138W        W 4129  10.426  29.078   6.192 -0.1481  0.2610  0.3655
61139W        W 4130   2.370  28.352  23.137 -0.1923  0.1376 -0.3546
61140W        W 4131  13.850  21.611  25.308 -0.3047 -0.0305 -0.0055
61141W        W 4132  29.316  23.612  16.134 -0.0966 -0.1293 -0.1310
61142W        W 4133  12.002  13.069  27.922 -0.0648 -0.1019 -0.3474
61143W        W 4134  11.692  26.125   7.692  0.3334  0.5169 -0.2834
61144W        W 4135  31.519  19.403  24.204 -0.1756  0.0704  0.3228
61145W        W 4136  28.471   4.419   1.991 -0.1888  0.3422 -0.0361
61146W        W 4137  26.548  13.680  16.351 -0.1008 -0.2643 -0.0135
61147W        W 4138   3.829  26.336   9.854  0.3500  0.0547  0.0422
61148W        W 4139  14.206  24.382   8.244  0.3086 -0.1098 -0.1092
61149W        W 4140  10.453  17.517   4.469  0.1216 -0.0834 -0.2151
61150W        W 4141   4.102  23.076  22.982  0.1085 -0.1480  0.0029
61151W        W 4142   8.628  14.503   7.664  0.3004 -0.0675  0.3460
61152W        W 4143  24.214  24.101  27.613 -0.1003 -0.2326  0.0859
61153W        W 4144  31.641  32.631  27.079 -0.0020 -0.2111 -0.1900
61154W        W 4145   4.980  14.810   2.399  0.0695 -0.2523  0.1291
61155W        W 4146   8.271  33.332  15.074 -0.2648  0.0131  0.1548
61156W        W 4147  32.500  22.592   2.460  0.1758 -0.1207 -0.1010
61157W        W 4148  16.078  14.666  29.222  0.0013  0.2848  0.0514
61158W        W 4149  14.890  28.485  16.266  0.2708  0.1245 -0.0582
61159W        W 4150   7.311   3.505  18.486 -0.2476  0.0630 -0.2959
61160W        W 4151  24.662  20.293   4.096  0.0072  0.0650 -0.0117
61161W        W 4152  10.111  10.130  25.847  0.0510 -0.0910  0.1410
61162W        W 4153   1.839  24.289  17.730 -0.0184 -0.0985  0.4155
61163W        W 4154  22.989   8.073  16.854 -0.0903 -0.0661 -0.1431
61164W        W 4155   5.755  22.608  22.918 -0.5211 -0.0225 -0.0672
61165W        W 4156  23.331  23.759  21.390 -0.2421  0.1299  0.3567
61166W        W 4157   0.086  21.841  13.588 -0.3891  0.0270  0.1044
61167W        W 4158  25.018  25.476   0.073 -0.3456 -0.0744  0.1636
61168W        W 4159  25.796   4.283   1.899 -0.4123 -0.3014 -0.0911
61169W        W 4160  10.526  15.842   9.717 -0.1814 -0.1455 -0.0622
61170W        W 4161   7.601  26.534  23.392 -0.0134 -0.3093 -0.0419
61171W        W 4162   7.113   6.024   6.764 -0.0494  0.2123  0.0262
61172W        W 4163   1.209  13.749   3.995 -0.0859  0.1522 -0.1411
61173W        W 4164   8.521  21.988  28.858 -0.0547  0.2321 -0.1850
61174W        W 4165  18.060  12.332  27.026 -0.1771  0.2187 -0.0843
61175W        W 4166   9.010  12.382   6.270 -0.3240  0.1617  0.1049
61176W        W 4167   0.145  22.249   5.381  0.1824 -0.0678 -0.2596
61177W        W 4168  27.509   3.866  15.329 -0.1127 -0.3524  0.0299
61178W        W 4169   6.222  21.102  15.441 -0.0564  0.0806 -0.2996
61179W        W 4170  14.128  31.126   5.454  0.0911  0.1449  0.5632
61180W        W 4171  18.472  17.319  26.250 -0.0668  0.0551  0.0861
61181W        W 4172  17.969  33.510   9.570  0.0073 -0.1855 -0.2289
61182W        W 4173  32.895  29.526  15.905  0.2072  0.3270 -0.2638
61183W        W 4174   7.821  18.462  15.706 -0.2063  0.0469 -0.0769
61184W        W 4175  30.887   6.730  26.048 -0.1108 -0.1475 -0.0689
61185W        W 4176  14.394   9.276  14.244 -0.1069  0.2212  0.1435
61186W        W 4177  12.389   7.584  19.403 -0.3822  0.0854  0.0557
61187W        W 4178   3.502  26.204  16.296 -0.1107  0.2279 -0.0639
61188W        W 4179  18.189  26.035  28.823 -0.1454  0.1058  0.0300
61189W        W 4180   9.097  21.874  25.654 -0.2502  0.1152  0.0364
61190W        W 4181  34.763  22.959  17.470  0.0594  0.2077 -0.0268
61191W        W 4182   3.162  25.345   5.132 -0.0112 -0.1501  0.0968
61192W        W 4183  34.273  19.449  20.009 -0.3083  0.0167 -0.3038
61193W        W 4184   3.323  20.340   8.654  0.1019  0.0180 -0.2092
61194W        W 4185  24.836   7.495  15.191  0.1978  0.2049 -0.0803
61195W        W 4186  24.880  26.202  19.369 -0.0749 -0.3638  0.2447
61196W        W 4187  18.850  12.311  20.275  0.3717 -0.1850 -0.1115
61197W        W 4188  30.932  22.997  28.914 -0.0331  0.0974  0.0458
61198W        W 4189  18.031  20.946   6.265 -0.1357 -0.1979  0.3173
61199W        W 4190  13.572   4.332  17.238 -0.0569  0.1914  0.0589
61200W        W 4191   5.045   3.149   3.695 -0.1539 -0.1533  0.0201
61201W        W 4192  13.770  20.518  21.076  0.1330  0.3720  0.1178
61202W        W 4193  22.296  28.270  23.413  0.2380  0.0300 -0.0362
61203W        W 4194   2.151  21.228  27.911 -0.0775  0.1321  0.0681
61204W        W 4195   6.979  16.500  22.971 -0.1190 -0.0949  0.1322
61205W        W 4196  10.200   8.106  24.828  0.0065 -0.0376 -0.1206
61206W        W 4197   7.532  30.029   2.758 -0.1104  0.2093 -0.0911
61207W        W 4198  13.294  21.470  26.357 -0.1578 -0.0059 -0.0396
61208W        W 4199  29.682  14.709  27.950  0.2383 -0.0204  0.0851
61209W        W 4200  30.456  18.000  19.849 -0.2689  0.0162  0.2099
61210W        W 4201  11.029  17.052   2.107  0.1803  0.0649  0.0257
61211W        W 4202  31.599  22.243  22.082  0.0480  0.0582  0.1269
61212W        W 4203  13.918  22.739  25.493  0.1047  0.4009  0.1357
61213W        W 4204   3.842  19.392  26.311  0.2148 -0.1887  0.0592
61214W        W 4205  10.751  21.949  24.557  0.0241 -0.1965 -0.1000
61215W        W 4206  33.978  27.723  25.916  0.0088  0.1265  0.0937
61216W        W 4207   9.307  10.845  21.668  0.1330 -0.0936 -0.1675
61217W        W 4208  11.876  18.291  24.077 -0.1093  0.0611  0.2403
61218W        W 4209   4.193  15.289  18.400  0.0815 -0.0615 -0.2138
61219W        W 4210  23.940  27.572   0.962 -0.1218  0.0918  0.1088
61220W        W 4211   1.089  18.459   2.523 -0.0608  0.2671 -0.1849
61221W        W 4212   0.241  23.389   1.721  0.0483  0.2404 -0.3249
61222W        W 4213  23.140  34.525   5.603 -0.0088  0.0736 -0.1308
61223W        W 4214   4.152  18.659   1.354  0.2188 -0.2292  0.2403
61224W        W 4215  11.699  18.450  17.107 -0.2208 -0.0639  0.0964
61225W        W 4216   5.197  10.859   0.558 -0.0316  0.0133 -0.3345
61226W        W 4217  23.440   1.152   1.936  0.3788  0.0975 -0.1488
61227W        W 4218  16.761  16.659  27.430  0.1152  0.3523 -0.0974
61228W        W 4219  12.984  22.769  19.933 -0.1751  0.0600  0.1492
61229W        W 4220   8.279  11.371   9.381 -0.1497  0.3078 -0.0269
61230W        W 4221   7.502  14.220  19.546 -0.0694  0.2367  0.2369
61231W        W 4222   6.564  23.946   9.811  0.0348 -0.1742  0.0897
61232W        W 4223  26.993  29.375  24.042  0.0263 -0.3149  0.2406
61233W        W 4224   2.695  15.485  18.131  0.1844  0.1381  0.0579
61234W        W 4225  10.194  13.886   0.437  0.2366 -0.0592 -0.1454
61235W        W 4226  10.112  31.752  27.684  0.1024 -0.0757  0.1467
61236W        W 4227  24.412  16.794   2.056  0.2799  0.0484 -0.0288
61237W        W 4228  19.605   2.197  22.822  0.1674  0.1689 -0.0444
61238W        W 4229  23.385  13.270   9.696  0.2720 -0.1887 -0.0415
61239W        W 4230   5.152  21.407   9.542  0.0731  0.0723 -0.0631
61240W        W 4231   1.540  16.992  18.920  0.0719  0.0840 -0.4071
61241W        W 4232   4.836  19.604   4.204 -0.1859 -0.0649 -0.1602
61242W        W 4233  29.212  14.611  28.393 -0.2546  0.1153  0.1170
61243W        W 4234  14.799  10.789   7.990  0.0788  0.0713  0.1043
61244W        W 4235   1.575  29.439  16.077  0.4564 -0.2737  0.0143
61245W        W 4236   4.884  26.365  14.694 -0.1971  0.2052 -0.1321
61246W        W 4237   0.448   9.380  18.601 -0.1246 -0.0805 -0.2936
61247W        W 4238  33.632  20.527   2.000  0.0271 -0.1577 -0.1600
61248W        W 4239  14.164  10.299   7.076  0.1185 -0.0539 -0.2382
61249W        W 4240   0.037  19.388  10.952 -0.1623  0.0717 -0.0920
61250W        W 4241   8.884  24.774   2.045  0.2847 -0.0507 -0.2459
61251W        W 4242  31.826  27.267   7.624  0.0793 -0.0258  0.1079
61252W        W 4243  11.414  23.834  27.128 -0.1111  0.0977  0.1303
61253W        W 4244   3.785   9.127  25.313 -0.0029  0.2673  0.0316
61254W        W 4245  17.577  28.138   7.529  0.1033 -0.1311 -0.0700
61255W        W 4246   2.610  11.363   9.208  0.2936 -0.2195  0.0434
61256W        W 4247   7.276   7.279   5.394 -0.1987 -0.0481  0.0540
61257W        W 4248  19.299  14.675   6.448 -0.2157 -0.3139  0.0231
61258W        W 4249   6.781  12.307  10.346 -0.1521 -0.1547  0.0558
61259W        W 4250   7.238  34.475   3.029  0.2567  0.0150 -0.1581
61260W        W 4251   8.912  18.061  25.906 -0.1128 -0.1146  0.1036
61261W        W 4252  11.839  12.314   7.012  0.1035  0.1484 -0.1450
61262W        W 4253  12.629  15.894   5.329 -0.0659 -0.4132 -0.1913
61263W        W 4254  33.252  10.263  22.586 -0.0431  0.0637 -0.0148
61264W        W 4255   8.247   9.067  25.867 -0.1530  0.2123 -0.2824
61265W        W 4256   7.909  25.083  13.572 -0.1637 -0.2137 -0.1029
61266W        W 4257  29.026  33.714  20.246 -0.2162 -0.2888 -0.1635
61267W        W 4258  11.688  16.295  17.149  0.0149  0.3182  0.1224
61268W        W 4259   7.210  13.830  18.383  0.1706  0.1349 -0.3083
61269W        W 4260   5.411  13.321  15.730 -0.0395  0.1538 -0.1124
61270W        W 4261  28.993  20.272   1.620 -0.1958 -0.0996  0.1817
61271W        W 4262  15.701  24.711  17.038 -0.1352 -0.0788 -0.1259
61272W        W 4263   5.318  19.604  17.272  0.1238 -0.1673 -0.1525
61273W        W 4264  23.702  24.626  22.817  0.2667  0.3771  0.3273
61274W        W 4265   5.855  28.394  26.250  0.0003 -0.0506 -0.1440
61275W        W 4266  14.035  23.949  20.880  0.1981  0.0538 -0.0995
61276W        W 4267  31.589  29.457  26.305  0.3989  0.2388 -0.1695
61277W        W 4268  19.764  20.634  13.561 -0.2146  0.1258 -0.0850
61278W        W 4269   2.175  11.664  24.792 -0.1872  0.1414  0.0732
61279W        W 4270   3.417  13.361  10.180 -0.0519 -0.0540 -0.1367
61280W        W 4271  30.871  23.745  26.946  0.0112 -0.0934  0.0361
61281W        W 4272  14.280  26.443   0.240  0.1961 -0.0667  0.2053
61282W        W 4273  16.908  21.645  14.703  0.1400 -0.0785 -0.0806
61283W        W 4274  34.404  29.186   2.072 -0.1238 -0.0159  0.0021
61284W        W 4275  16.147   3.276  22.672  0.0078 -0.1268 -0.3053
61285W        W 4276  12.975  29.257  21.016  0.1171 -0.1363  0.3374
61286W        W 4277  15.461  23.185  15.564 -0.1737  0.2625 -0.0237
61287W        W 4278   3.031  19.384   8.443  0.1654 -0.1311 -0.2354
61288W        W 4279   1.849   6.167   3.647  0.0524 -0.1797  0.6177
61289W        W 4280  30.016  10.357  28.021  0.0827  0.2315  0.3190
61290W        W 4281  12.536  24.145  20.595 -0.1008  0.2731  0.0932
61291W        W 4282   8.418  17.498   0.847 -0.1806  0.4126 -0.1982
61292W        W 4283  16.478  24.757   5.769 -0.2324 -0.1920  0.1346
61293W        W 4284  32.308  12.494  10.237  0.0696 -0.1609 -0.0457
61294W        W 4285  32.409  24.862  25.509 -0.3115  0.0589  0.0516
61295W        W 4286  27.570  26.674   0.555 -0.0346 -0.1276 -0.1770
61296W        W 4287  32.128  19.234   3.307  0.0389  0.0095  0.2254
61297W        W 4288  18.165   9.065   3.996 -0.2948  0.1227  0.0154
61298W        W 4289   0.420  27.653   0.049  0.0132  0.3454 -0.0182
61299W        W 4290  16.375  24.080   0.679 -0.0144  0.0060 -0.2961
61300W        W 4291  12.191   8.548  17.751 -0.0405  0.3725 -0.3579
61301W        W 4292  13.453   3.835  21.442  0.1939 -0.2227 -0.0228
61302W        W 4293  27.434  11.670  17.294 -0.0325 -0.0838  0.1783
61303W        W 4294  24.451  28.453   7.397 -0.2302 -0.1879 -0.1631
61304W        W 4295  17.942  18.254   4.079  0.1099 -0.1901 -0.1131
61305W        W 4296  18.094  13.691   3.751  0.1270  0.2071 -0.2500
61306W        W 4297  28.011  17.792  10.434  0.1645 -0.3558  0.1079
61307W        W 4298  10.753  23.286   9.206 -0.1321  0.1849 -0.0246
61308W        W 4299  31.043  25.263  28.545  0.0704 -0.0700  0.0125
61309W        W 4300  19.800  15.304   3.629 -0.0317  0.1490 -0.0497
61310W        W 4301  32.257  26.002  17.537  0.0603  0.3960 -0.1201
61311W        W 4302  21.694  27.665  18.441 -0.0888 -0.0437  0.0558
61312W        W 4303  20.750   2.370   9.144  0.2335  0.1979 -0.2880
61313W        W 4304   8.970   7.172  27.994 -0.0815  0.3861  0.3605
61314W        W 4305  34.513  16.459   7.070  0.0567  0.1983 -0.0659
61315W        W 4306  19.935  14.801   7.627 -0.0214 -0.3531 -0.0370
61316W        W 4307  11.246  10.091  15.752  0.5726 -0.2588 -0.2447
61317W        W 4308   2.950  23.222  14.803 -0.0632 -0.1526 -0.3920
61318W        W 4309   2.260   0.143   4.549 -0.2903  0.2255 -0.0295
61319W        W 4310   3.460  17.906   4.455 -0.0639  0.0321 -0.1598
61320W        W 4311  15.561  29.369  14.695  0.1393 -0.1348 -0.0222
61321W        W 4312   7.574   9.089  10.209 -0.1635  0.0420 -0.3032
61322W        W 4313   9.273  15.340  19.840 -0.1290 -0.0507  0.0166
61323W        W 4314  13.680  22.587  24.620 -0.1854  0.0180 -0.1550
61324W        W 4315   5.552   2.824  20.260  0.1455  0.0186  0.2220
61325W        W 4316   9.577  20.637  16.711  0.0222 -0.0993 -0.0354
61326W        W 4317   6.294   1.860  28.440  0.0016 -0.0873  0.0570
61327W        W 4318   8.213  34.627  24.626  0.0883 -0.2943  0.0793
61328W        W 4319   0.421  21.769  28.886  0.2061 -0.1301  0.0148
61329W        W 4320  10.546  17.669   6.303 -0.1749 -0.0345 -0.4249
61330W        W 4321   9.650  11.528  17.028  0.0807 -0.2068 -0.0525
61331W        W 4322   8.526  31.688  28.884  0.2931 -0.1223 -0.4081
61332W        W 4323   8.689  25.858  22.213  0.0398 -0.2216 -0.0124
61333W        W 4324   7.753  16.750   5.316 -0.0002 -0.0894  0.0418
61334W        W 4325   2.975  25.297  19.669  0.0887  0.1300  0.1602
61335W        W 4326  13.236  18.138  27.923  0.2293  0.1038 -0.0890
61336W        W 4327   1.256   8.577  23.792  0.0808 -0.0712  0.2434
61337W        W 4328  34.451  15.941   1.227  0.2744  0.0181  0.2036
61338W        W 4329  11.770  22.274   7.214  0.3584 -0.2049  0.5517
61339W        W 4330  25.601   4.972   6.897 -0.1335 -0.1374  0.1294
61340W        W 4331   2.004  16.663   0.278  0.2408  0.0780 -0.0792
61341W        W 4332   4.981  32.033   7.207  0.1170 -0.0748 -0.3137
61342W        W 4333  23.213  24.884  17.874  0.2018  0.1586 -0.1414
61343W        W 4334   8.350  28.455  29.089  0.0600 -0.2356 -0.0450
61344W        W 4335  18.903   8.888   9.854 -0.1534  0.1034  0.1779
61345W        W 4336  34.640  10.540   9.485 -0.0524  0.0109 -0.3453
61346W        W 4337  20.518  24.403  14.478 -0.1775  0.0510 -0.1455
61347W        W 4338  10.470  25.143  21.571 -0.0173 -0.2930 -0.0792
61348W        W 4339   5.594  13.323  16.725 -0.1732 -0.3068 -0.2656
61349W        W 4340   5.947  20.550  18.262  0.0353  0.0144 -0.1137
61350W        W 4341  24.249  23.091  24.436  0.5293  0.1393  0.3472
61351W        W 4342   6.837  22.595  14.426  0.3671  0.0629 -0.4465
61352W        W 4343  21.508  31.250   4.511 -0.0884 -0.0453 -0.1851
61353W        W 4344   9.952  34.715  20.941  0.0864  0.1076  0.0205
61354W        W 4345  17.580  18.808  27.580 -0.0511  0.1889  0.1035
61355W        W 4346  21.687  13.722  13.367  0.1317  0.0314 -0.0840
61356W        W 4347  10.680  14.726  16.074  0.0047  0.2422 -0.0311
61357W        W 4348   9.918   7.319   4.440  0.1325  0.0099  0.0133
61358W        W 4349  27.121  26.702   0.780 -0.0909  0.1831 -0.1177
61359W        W 4350   6.932  14.544   3.749  0.0683 -0.1896 -0.3588
61360W        W 4351   2.193  22.111  24.587  0.1355 -0.0146  0.2937
61361W        W 4352   4.893  19.984   5.738  0.1890 -0.2209 -0.3642
61362W        W 4353  13.469  23.155  21.891 -0.3251  0.3762 -0.0129
61363W        W 4354  22.142  27.021  26.854  0.0564  0.0023  0.3306
61364W        W 4355  15.016  23.796  20.616  0.0662  0.1162  0.1433
61365W        W 4356  10.603   7.590   6.415  0.2643  0.0470 -0.0107
61366W        W 4357   7.732  22.980  22.574 -0.0840 -0.0624 -0.0507
61367W        W 4358  16.027   6.292  17.606 -0.0049  0.1149  0.0604
61368W        W 4359  14.156   0.655   6.539 -0.0628 -0.0298 -0.1411
61369W        W 4360   3.036  31.193  27.849 -0.4642 -0.2690  0.1127
61370W        W 4361   6.719  22.201   5.231 -0.2911  0.1787  0.1852
61371W        W 4362  15.283  23.545  13.835 -0.0075 -0.1019 -0.1071
61372W        W 4363  12.695  10.772  23.443 -0.4832 -0.2898 -0.0391
61373W        W 4364   1.804  26.597   4.090  0.0354 -0.2775 -0.0899
61374W        W 4365  17.593  11.398  25.985 -0.1397 -0.1822  0.1041
61375W        W 4366  34.584  34.011  29.183 -0.1659  0.0114  0.2378
61376W        W 4367  15.596  26.552  26.200 -0.2953  0.0740  0.1118
61377W        W 4368  20.621   7.846  25.489  0.0464 -0.1215  0.0427
61378W        W 4369  16.487  17.572  13.887 -0.0855  0.2696 -0.3177
61379W        W 4370  32.009  11.483   1.360  0.1583 -0.2768  0.4582
61380W        W 4371  11.071  15.998  24.175 -0.0081 -0.1512 -0.1853
61381W        W 4372   8.442  33.933  23.226 -0.0169  0.0997 -0.1775
61382W        W 4373   1.146  13.970   7.998  0.0442 -0.0072  0.2339
61383W        W 4374   1.052  26.347  20.301 -0.3212  0.2978 -0.0153
61384W        W 4375  24.900   9.764  19.196  0.0818  0.3068 -0.1937
61385W        W 4376  10.743  19.460  18.731  0.1219  0.0021  0.0778
61386W        W 4377   4.146  25.345   7.966  0.1017 -0.0197  0.2901
61387W        W 4378  13.634  22.291   5.849  0.1477 -0.0937  0.1459
61388W        W 4379  10.409  26.172  18.571 -0.2139 -0.2315  0.0997
61389W        W 4380  19.767  18.959  25.172  0.0415  0.0896  0.2270
61390W        W 4381   2.653  13.442   2.489 -0.1518 -0.1852  0.1186
61391W        W 4382  25.763  30.202  26.652 -0.0063 -0.1045  0.3780
61392W        W 4383  12.591   5.680   8.477 -0.1016  0.0926  0.0226
61393W        W 4384  30.987  21.357   8.207  0.3071 -0.1186  0.2005
61394W        W 4385  28.902  15.752  21.219  0.1970 -0.0208 -0.1791
61395W        W 4386  17.621   8.518   8.778  0.0592  0.2191  0.0673
61396W        W 4387   7.596   2.176  20.485 -0.3590  0.1055  0.0052
61397W        W 4388  18.855  29.158  21.449  0.0011  0.0009 -0.2447
61398W        W 4389  28.499  31.714   4.816  0.0523  0.4112 -0.0606
61399W        W 4390  11.861   5.855  25.838  0.2763  0.1438  0.3546
61400W        W 4391  29.186  25.155  28.714  0.0209  0.0634 -0.0155
61401W        W 4392  12.488   1.379   1.139 -0.2250  0.0755  0.2440
61402W        W 4393  17.565  22.259   7.029 -0.2149  0.0173  0.0033
61403W        W 4394  11.312  12.116  17.619 -0.0038  0.0108 -0.1230
61404W        W 4395   5.695  17.647  18.832 -0.0425  0.1937  0.0956
61405W        W 4396  22.645  20.153   5.909 -0.1633  0.0231 -0.3044
61406W        W 4397  15.713  21.330   1.204  0.0976 -0.1949 -0.1846
61407W        W 4398   8.474  31.309  20.935  0.2480  0.1147 -0.0009
61408W        W 4399  11.161  30.920  18.779 -0.2497 -0.5728 -0.2930
61409W        W 4400   7.189   1.207  20.842  0.0994 -0.0503  0.2670
61410W        W 4401  21.190   1.077   6.015  0.0472 -0.0817 -0.3127
61411W        W 4402  13.164  30.204  24.471 -0.2283 -0.1939 -0.1114
61412W        W 4403  13.737  20.755  23.972  0.0350  0.2472  0.1112
61413W        W 4404  24.209   5.060  27.482  0.0659  0.1621 -0.0555
61414W        W 4405  22.337  24.115  22.847  0.3757  0.1217 -0.1762
61415W        W 4406  19.404  15.344   0.263 -0.0089 -0.0138  0.3701
61416W        W 4407  13.919  16.061  27.248 -0.2221 -0.0737  0.1885
61417W        W 4408   7.445  30.860  16.185 -0.0121 -0.1932 -0.2239
61418W        W 4409   7.565   3.533  26.519 -0.2792 -0.1552  0.1542
61419W        W 4410  12.083  23.688   6.439 -0.1665 -0.0574  0.3382
61420W        W 4411   4.879  16.327  27.306 -0.2050 -0.1558 -0.0457
61421W        W 4412  13.552  33.904  20.505  0.1330 -0.1216  0.2172
61422W        W 4413   9.449  24.515  14.408 -0.1748 -0.1114  0.0310
61423W        W 4414  26.587  15.821  20.044  0.1651 -0.2789 -0.0397
61424W        W 4415  14.309   8.372  18.802  0.0020 -0.0637 -0.0713
61425W        W 4416   3.323  26.813   2.156  0.1768 -0.3318  0.1075
61426W        W 4417  10.634  11.390   3.949 -0.1029 -0.0809  0.0052
61427W        W 4418  17.171  30.851   2.480 -0.0985 -0.1931  0.1680
61428W        W 4419   1.822  28.110  19.629  0.1890 -0.1806  0.0337
61429W        W 4420   4.775  28.116   9.235 -0.0255  0.4390 -0.0237
61430W        W 4421  11.182   3.425  17.787 -0.1638 -0.2806  0.0062
61431W        W 4422  30.938  33.427   1.269 -0.5618 -0.2797 -0.1247
61432W        W 4423  34.112  34.112   4.561 -0.1254 -0.1242  0.0877
61433W        W 4424  16.711  16.733  27.941 -0.0962 -0.0537  0.1184
61434W        W 4425   7.680  19.472  23.653  0.2634  0.2434 -0.0375
61435W        W 4426  11.093  13.916   6.802 -0.3213  0.4232 -0.1800
61436W        W 4427  25.390  30.394   4.127  0.0333  0.2329  0.1478
61437W        W 4428  10.201  20.574  23.016  0.4673  0.0848 -0.1788
61438W        W 4429   0.539  30.135  27.428  0.2669 -0.1648 -0.1401
61439W        W 4430   6.013  18.941  18.970  0.1200  0.1899  0.1032
61440W        W 4431   1.091   7.435   5.706 -0.0642 -0.0190  0.2503
61441W        W 4432  21.991  30.914   0.798  0.0304 -0.2009  0.1170
61442W        W 4433   2.054  30.025  29.094  0.0519 -0.1558 -0.2378
61443W        W 4434   4.763  16.964   3.681  0.4697 -0.1859  0.1507
61444W        W 4435  11.826  13.608  20.150 -0.3831  0.0358  0.0735
61445W        W 4436  34.454   6.223  28.214  0.0545  0.4326 -0.0134
61446W        W 4437  32.167  20.434   3.240 -0.2510 -0.1508  0.1086
61447W        W 4438   3.303  16.159  29.025 -0.1741  0.2211 -0.0787
61448W        W 4439  10.673  26.707  26.984  0.0395 -0.0194 -0.0525
61449W        W 4440  25.311  17.729   4.024  0.1919 -0.2020 -0.1356
61450W        W 4441  13.901  16.151   8.328  0.1060 -0.3723  0.1154
61451W        W 4442  11.426   8.467  24.254 -0.3367  0.3745 -0.3879
61452W        W 4443  11.143   3.050   1.334 -0.1157 -0.0823 -0.3017
61453W        W 4444  10.868  33.095  28.653  0.1120  0.0065  0.2711
61454W        W 4445  13.459   7.723   1.858  0.0180  0.4635  0.2340
61455W        W 4446  21.470  20.730  28.602  0.1262 -0.0187 -0.2279
61456W        W 4447   1.809   4.381   5.713  0.1983  0.1950  0.3924
61457W        W 4448  19.843  23.863  26.196  0.2702  0.0051 -0.0337
61458W        W 4449   6.957  22.456   9.529  0.1690 -0.0380  0.2206
61459W        W 4450  12.356  25.254  25.306 -0.0008  0.2368 -0.2612
61460W        W 4451  18.434   3.925   1.409 -0.0503 -0.4035 -0.0959
61461W        W 4452  15.628   6.353  24.981 -0.1767  0.0605  0.1431
61462W        W 4453   8.773  21.293  27.522 -0.1304 -0.1133 -0.0243
61463W        W 4454  13.677  32.636   5.376  0.3154 -0.0339 -0.1731
61464W        W 4455  20.122  32.413  24.200 -0.0908 -0.1961  0.0573
61465W        W 4456  10.525  21.466   1.802 -0.2407  0.2911 -0.1984
61466W        W 4457   9.427   6.244  29.203 -0.0394 -0.0993  0.1645
61467W        W 4458   9.759  19.075  26.926 -0.0226  0.4668  0.3555
61468W        W 4459   8.984   9.430   7.884 -0.3807  0.0003 -0.0053
61469W        W 4460  29.680   0.452  26.435  0.1897  0.4188  0.0757
61470W        W 4461  15.113   8.344   2.276 -0.1180 -0.2346  0.1252
61471W        W 4462   7.311  21.646  29.103 -0.1337  0.2035  0.0906
61472W        W 4463  30.790  13.436  22.282 -0.0610  0.1307  0.0805
61473W        W 4464  30.847   7.769   0.002 -0.2624  0.1290  0.1218
61474W        W 4465   9.188   7.030  18.335  0.1470  0.2230  0.0731
61475W        W 4466   8.409  17.507   2.290 -0.0226 -0.0494  0.2336
61476W        W 4467  11.816  25.159  10.157  0.0025 -0.1724  0.2215
61477W        W 4468   0.344   1.768   5.978 -0.1015  0.0318  0.1566
61478W        W 4469   2.140  29.037  17.161 -0.1515 -0.1322 -0.0191
61479W        W 4470  10.243  10.717  23.468 -0.0975 -0.1081 -0.1406
61480W        W 4471  24.537  34.568  17.635 -0.1246  0.0885 -0.2695
61481W        W 4472  17.864  29.908  27.252  0.1673 -0.4329 -0.0918
61482W        W 4473   5.304   4.800   3.001  0.0911  0.0154 -0.1190
61483W        W 4474  12.425  13.360  21.496 -0.0549  0.0171 -0.0344
61484W        W 4475  28.192   9.116   3.659  0.0503  0.0289  0.1561
61485W        W 4476  13.079  15.482  15.039  0.0515 -0.2761 -0.1354
61486W        W 4477   4.786   2.580  22.993 -0.0517 -0.3651 -0.1994
61487W        W 4478   2.463  18.509   9.908  0.0310  0.0985  0.3111
61488W        W 4479  21.105   4.543  18.281 -0.1382  0.1728  0.0444
61489W        W 4480  16.855   1.648  21.281 -0.4149  0.0380 -0.0262
61490W        W 4481  15.562  25.970   9.301 -0.0994 -0.0350 -0.1070
61491W        W 4482  16.885  12.890   0.020 -0.3495  0.2562 -0.1532
61492W        W 4483  14.014  17.305  24.459  0.1274  0.2360 -0.0219
61493W        W 4484  19.578  19.695  27.729 -0.0045  0.2349 -0.0244
61494W        W 4485  32.402  30.431  24.382  0.2455 -0.0377  0.0662
61495W        W 4486  24.913  34.019  18.519 -0.0957 -0.2130  0.1001
61496W        W 4487   9.798  13.042  18.071  0.0361 -0.0545  0.0129
61497W        W 4488  33.627  24.027  21.535  0.5327 -0.0739 -0.0815
61498W        W 4489  19.861  15.076  24.801  0.2533 -0.4682 -0.3123
61499W        W 4490  19.997   0.493   7.199  0.0682 -0.3011  0.0017
61500W        W 4491  20.737  27.822  15.392 -0.1648  0.0897  0.1446
61501W        W 4492   1.741  21.351   2.943  0.3182  0.3872  0.1391
61502W        W 4493  23.520  16.309   5.035 -0.0689 -0.1514  0.2572
61503W        W 4494   1.134  30.007  26.329  0.0061  0.0935 -0.1657
61504W        W 4495  27.179  31.506   0.425 -0.0985 -0.3449  0.0507
61505W        W 4496  26.620   7.819  15.157 -0.0497  0.1663  0.0206
61506W        W 4497  19.991  18.195  26.093 -0.1403  0.2249 -0.2709
61507W        W 4498   1.564  12.873   1.517  0.0369  0.1600 -0.3027
61508W        W 4499   3.139  20.755  21.743  0.1986 -0.0248  0.1468
61509W        W 4500   9.315  13.654   6.635  0.2833 -0.2479 -0.0694
61510W        W 4501  11.178   7.538   5.334  0.2177  0.1960  0.0660
61511W        W 4502   1.395  29.607   0.662  0.0574  0.6075 -0.1886
61512W        W 4503  19.338  15.367   9.035  0.0825 -0.0000 -0.1228
61513W        W 4504  10.856  14.365  25.667 -0.3424 -0.1285 -0.1397
61514W        W 4505  11.299  24.634  26.832  0.2355 -0.1376 -0.0581
61515W        W 4506  24.395   3.021  22.644  0.0358  0.0778  0.1460
61516W        W 4507  12.044   6.275   8.099 -0.4877 -0.0441 -0.2574
61517W        W 4508   9.177  29.910  20.907 -0.2732 -0.0505 -0.3357
61518W        W 4509   1.507  22.727  20.096  0.1743  0.0156  0.1377
61519W        W 4510   7.262  22.184  17.755 -0.1995 -0.0853  0.0316
61520W        W 4511   4.459  31.244  22.466  0.1374 -0.1370  0.1826
61521W        W 4512   1.148  25.777  27.316  0.2720  0.1706  0.0010
61522W        W 4513   3.634  33.246   6.570  0.2777 -0.1371  0.0754
61523W        W 4514   8.478  29.501   9.616 -0.0196 -0.1958 -0.4243
61524W        W 4515  31.436  24.716   8.219 -0.0919  0.1782  0.0259
61525W        W 4516   3.284  30.593   0.857  0.0264  0.0292 -0.0829
61526W        W 4517   5.143  26.703   8.843  0.0184  0.4963 -0.3454
61527W        W 4518   5.594  23.098   9.984  0.0225 -0.0988  0.0382
61528W        W 4519  12.816  11.345  20.575  0.3001 -0.1846  0.1254
61529W        W 4520   2.733  10.257   9.253 -0.0514 -0.3849  0.0938
61530W        W 4521  11.010  13.344  27.609 -0.1279 -0.2142  0.2602
61531W        W 4522  10.746  16.105   4.002 -0.2385 -0.2415 -0.0018
61532W        W 4523  22.048  16.037   0.619 -0.3670  0.0777  0.0825
61533W        W 4524  26.417  30.874   6.075 -0.0062 -0.0873 -0.2971
61534W        W 4525  12.890  32.313   3.804 -0.0579  0.0160 -0.0495
61535W        W 4526  17.921  24.175   7.129 -0.1163 -0.2515 -0.1043
61536W        W 4527  12.591  21.784   3.859  0.0801  0.1824 -0.0619
61537W        W 4528  32.459   5.520  21.569 -0.0731  0.0899  0.2464
61538W        W 4529  15.103  23.655  20.098  0.1238 -0.2536 -0.1626
61539W        W 4530   2.434   8.457   1.519  0.1252 -0.1833 -0.0672
61540W        W 4531  16.130  33.211  28.199  0.0611  0.0288 -0.0274
61541W        W 4532   2.427  20.829   8.263 -0.0662 -0.0268 -0.2787
61542W        W 4533  14.788   3.097   7.437  0.0431 -0.0443  0.2763
61543W        W 4534   0.495   1.642  16.393  0.2705  0.2439  0.0238
61544W        W 4535   1.579  34.189  18.552 -0.1125 -0.2646 -0.0165
61545W        W 4536  10.577  28.456  17.756  0.1647  0.0881  0.0709
61546W        W 4537   7.437  25.879  19.999 -0.1410  0.1817 -0.0013
61547W        W 4538   7.222  32.979  18.132 -0.0632  0.1879  0.1671
61548W        W 4539   0.591  22.572   1.211  0.1411  0.0122  0.2333
61549W        W 4540   5.562  24.907  18.779  0.3213  0.0180 -0.2006
61550W        W 4541  18.030  30.777  20.019  0.2210 -0.1156  0.0328
61551W        W 4542   1.257  20.636  25.304  0.2277 -0.0733  0.1375
61552W        W 4543  11.099  24.295  25.505  0.1481  0.3063  0.0923
61553W        W 4544   0.661  32.088  15.414  0.2582  0.1097  0.2692
61554W        W 4545  26.497  31.396  19.771  0.1999 -0.1058 -0.2502
61555W        W 4546  21.977  25.502   0.774  0.0198 -0.1223  0.0003
61556W        W 4547  11.461  21.975  18.642  0.2838  0.3640 -0.2168
61557W        W 4548  13.084  21.207  23.245  0.0162  0.2119 -0.0136
61558W        W 4549  18.236  12.686  15.565  0.1832  0.1431 -0.4640
61559W        W 4550  18.677   8.983   2.961  0.1780  0.1866 -0.0877
61560W        W 4551  31.201  30.149  18.395 -0.2900 -0.0006 -0.2731
61561W        W 4552  16.479  24.553   3.976 -0.0925  0.2305 -0.0370
61562W        W 4553   5.921  25.637   7.606 -0.0748  0.1880 -0.2362
61563W        W 4554  20.087  34.399  27.063  0.0400  0.4467 -0.2794
61564W        W 4555   9.303  26.535  22.056  0.1103 -0.0566 -0.4169
61565W        W 4556   9.798  22.579  20.385 -0.1108  0.2136  0.0927
61566W        W 4557   5.042  28.152  18.326  0.0329  0.2800  0.1567
61567W        W 4558  34.039  21.417  26.622  0.1415 -0.2816  0.0223
61568W        W 4559  33.590  13.054  16.495 -0.0159  0.0227  0.1705
61569W        W 4560  23.509  14.998  20.577  0.0601  0.0686  0.1284
61570W        W 4561   1.048   2.003  27.458  0.0201  0.0357 -0.0195
61571W        W 4562  15.141  25.573   1.576 -0.1493 -0.0886  0.2686
61572W        W 4563  26.732  32.022  19.694  0.3244  0.1562  0.1898
61573W        W 4564  15.574  10.934  15.102 -0.1810  0.0767  0.0366
61574W        W 4565  24.545  24.692  18.212  0.1211 -0.0084 -0.0607
61575W        W 4566  10.106  27.048  17.267  0.0858 -0.2915  0.1304
61576W        W 4567  11.584  19.632  14.670 -0.2026 -0.1092 -0.1273
61577W        W 4568  11.618  20.457  13.722 -0.0720  0.1861  0.0214
61578W        W 4569  16.166  31.490  20.359 -0.1488 -0.1839  0.0339
61579W        W 4570  28.674   2.150  26.277  0.0183  0.2264 -0.1037
61580W        W 4571  32.369   2.630  15.422  0.2151  0.2325 -0.2328
61581W        W 4572  11.431  29.062  18.161 -0.0485  0.2136 -0.0269
61582W        W 4573   9.817  31.880  15.881  0.2629 -0.1777 -0.2689
61583W        W 4574  13.360  22.563  22.620  0.1311 -0.1253  0.1970
61584W        W 4575  24.575  24.006  22.919  0.0031 -0.0655  0.0685
61585W        W 4576  15.660  26.919   2.717  0.1455  0.0063 -0.0351
61586W        W 4577   8.742  23.458  26.234 -0.0368 -0.2166  0.1607
61587W        W 4578  16.712  29.084  18.582  0.0697  0.0200 -0.0071
61588W        W 4579   6.461  13.843  14.718 -0.4262  0.1244 -0.4682
61589W        W 4580  33.794   6.871  28.582 -0.1320 -0.0527 -0.1360
61590W        W 4581   3.215  13.031  28.243 -0.1801  0.3427  0.1040
61591W        W 4582  15.411   5.407  22.344  0.1550  0.1687  0.0293
61592W        W 4583   4.806  25.409  14.194 -0.3135 -0.4026  0.2453
61593W        W 4584  15.328  22.048  15.473  0.3001 -0.0793  0.0149
61594W        W 4585   7.534   6.121  28.580 -0.1432 -0.1213  0.1266
61595W        W 4586  23.959   4.352  16.666  0.0314 -0.1777  0.1182
61596W        W 4587  13.973  30.609  25.058  0.1241 -0.0764 -0.1124
61597W        W 4588  19.982  27.285  15.790  0.0211 -0.1548  0.0467
61598W        W 4589  13.483  22.531  19.771  0.1060  0.1228 -0.1212
61599W        W 4590   7.743  31.577  15.825 -0.0897 -0.1765  0.0280
61600W        W 4591  14.072  21.615  14.658  0.0193  0.0360  0.0387
61601W        W 4592  20.039  13.290  14.472  0.1559  0.3034  0.2759
61602W        W 4593  13.641  20.166  17.891  0.2117  0.1857  0.1277
61603W        W 4594  18.325  34.620  15.275 -0.0650 -0.3149 -0.0152
61604W        W 4595  30.303  32.889  29.153 -0.2017  0.2371 -0.0660
61605W        W 4596  29.268  26.491  15.461  0.1231 -0.2777 -0.1359
61606W        W 4597  32.844   6.190   4.205 -0.3130  0.3031 -0.1219
61607W        W 4598   3.736  21.489  22.700 -0.1278  0.0416 -0.4662
61608W        W 4599  16.511  30.456  22.496 -0.0519  0.0503  0.4016
61609W        W 4600  14.887   6.107  27.039  0.0318  0.0418  0.0228
61610W        W 4601  11.036   2.242  22.669  0.1662 -0.0263 -0.1528
61611W        W 4602  20.303  29.090  21.262  0.1532  0.2381  0.1457
61612W        W 4603   6.560  24.999  22.240  0.2320  0.1045  0.1089
61613W        W 4604  13.615  15.616  21.685 -0.1253  0.1729 -0.0047
61614W        W 4605  26.449   6.742  18.947  0.0519  0.3126 -0.1728
61615W        W 4606   9.388  25.517  17.313  0.2893  0.0730  0.2016
61616W        W 4607  20.597  12.378   1.517 -0.0092  0.0025 -0.3098
61617W        W 4608  18.162  31.909  17.774 -0.3994  0.0225  0.1116
61618W        W 4609  13.515  22.213  19.310 -0.1313  0.1340 -0.0517
61619W        W 4610   7.050  30.420  19.815  0.0725  0.1399 -0.1035
61620W        W 4611  14.436  25.893  17.825  0.1504  0.2131 -0.0067
61621W        W 4612   0.247  11.821  28.310 -0.3027  0.0635 -0.0549
61622W        W 4613   5.898   4.112  20.437  0.2487 -0.3719  0.2200
61623W        W 4614  33.460  16.439  28.783  0.1717  0.0307 -0.1180
61624W        W 4615  30.334  12.032  14.468  0.3533  0.1203 -0.1790
61625W        W 4616  10.153   3.756  26.755  0.2483  0.3338  0.0014
61626W        W 4617  13.982  26.906  16.312  0.0608 -0.1351 -0.0844
61627W        W 4618  26.047  26.662  17.487  0.1776  0.2672 -0.1003
61628W        W 4619  13.144  23.914  21.779 -0.0709  0.1637  0.3371
61629W        W 4620  20.146   4.817  18.203  0.0708  0.1130  0.3367
61630W        W 4621   3.306   3.192  16.186  0.0903 -0.0016  0.2883
61631W        W 4622   9.768   7.267  20.304 -0.0799  0.2183  0.0065
61632W        W 4623  25.649  31.603  17.276 -0.0943 -0.1609  0.2543
61633W        W 4624  13.215  20.453  19.747  0.0540  0.1238  0.0762
61634W        W 4625   6.226  19.709  14.901 -0.1313 -0.4932 -0.1020
61635W        W 4626  22.512  25.883  16.462  0.0366 -0.3314  0.2384
61636W        W 4627  10.567  27.570  17.383 -0.2418  0.1100 -0.2674
61637W        W 4628   4.284  24.373  17.502  0.0523  0.1315 -0.1054
61638W        W 4629   0.585  22.797  20.173  0.0459 -0.0374  0.0280
61639W        W 4630   4.160  27.000  27.027 -0.2418 -0.0364 -0.0045
61640W        W 4631  14.842  20.443  19.697  0.0813 -0.0726  0.2154
61641W        W 4632  22.977  29.822  16.057 -0.2081  0.0982 -0.0900
61642W        W 4633   9.677  28.760  15.138 -0.1397  0.1238 -0.1593
61643W        W 4634   3.464  34.116  21.659 -0.1342 -0.0958 -0.3720
61644W        W 4635  32.473   2.764  27.175 -0.2496 -0.1447  0.2304
61645W        W 4636   0.736  17.541   0.415  0.2585  0.1588 -0.2755
61646W        W 4637   4.801   5.221  15.998  0.0940 -0.0747 -0.2354
61647W        W 4638  30.035   7.789  24.853 -0.3260 -0.0052 -0.3467
61648W        W 4639   8.732  23.079  16.537  0.0360 -0.1997 -0.0189
61649W        W 4640   5.787  19.638  14.657  0.1685  0.0369 -0.0636
61650W        W 4641  12.403  26.138   5.155 -0.1838 -0.2194  0.0622
61651W        W 4642  19.232  17.977  15.628 -0.0348 -0.0579  0.0250
61652W        W 4643  17.895  20.300   4.302 -0.1918  0.0201  0.0844
61653W        W 4644   4.102  23.606  17.905 -0.0620  0.1345  0.1810
61654W        W 4645  34.663  15.567  15.827 -0.0426  0.2188 -0.4485
61655W        W 4646   6.260  15.326  18.985  0.2558 -0.0366 -0.2419
61656W        W 4647   9.015  32.651  20.853  0.0909  0.1577 -0.2110
61657W        W 4648   3.585  20.771  21.261 -0.1445  0.3628  0.2583
61658W        W 4649  15.955  29.625  24.605 -0.0466 -0.0532  0.0362
61659W        W 4650  10.818  28.081  21.481 -0.1918  0.0236 -0.0620
61660W        W 4651  11.386  30.484  15.191 -0.1668 -0.0031 -0.1302
61661W        W 4652   5.561  22.278  17.869 -0.0313 -0.2395  0.2523
61662W        W 4653   6.158  30.374  28.888  0.1056  0.5516  0.0747
61663W        W 4654  18.649  13.874  16.318 -0.0350  0.0951  0.0098
61664W        W 4655  20.562   4.377  26.347  0.0169  0.1151  0.2097
61665W        W 4656   5.866  28.793  23.646 -0.1771  0.0672 -0.0426
61666W        W 4657  11.066  17.687  24.127  0.1564  0.1390  0.0686
61667W        W 4658  13.779  27.776  24.347  0.1951 -0.2063  0.2987
61668W        W 4659  14.522  31.614  13.739 -0.0635  0.1181 -0.2072
61669W        W 4660  14.500  26.197  25.326  0.1995  0.2400  0.0383
61670W        W 4661   7.041  17.334  14.683 -0.0879  0.0540  0.1482
61671W        W 4662  30.514  17.985  28.924  0.1473 -0.0732 -0.0868
61672W        W 4663  18.788   4.777  17.667 -0.0115 -0.1090  0.0643
61673W        W 4664  14.202  22.528  14.645  0.0943  0.0906 -0.0751
61674W        W 4665  10.534  18.495  21.000 -0.1235 -0.0066 -0.1901
61675W        W 4666  14.559  23.257  15.157  0.3390  0.0809 -0.1311
61676W        W 4667  19.426   6.382  26.322 -0.2794 -0.2800 -0.0544
61677W        W 4668  22.405  26.484  14.208 -0.3684 -0.3855  0.0419
61678W        W 4669   5.207  20.752  18.185  0.0296  0.1641 -0.0586
61679W        W 4670   5.531  29.913   3.963 -0.1884 -0.0212  0.0392
61680W        W 4671   6.364  31.042  21.289  0.0759  0.0724 -0.1584
61681W        W 4672  21.088   2.861  20.231 -0.2132  0.1571 -0.4530
61682W        W 4673  11.468  24.672  19.812  0.0731  0.0549 -0.0317
61683W        W 4674  30.243   9.504   4.182 -0.2072 -0.1393  0.0910
61684W        W 4675  17.108  21.423  21.986 -0.2230 -0.4551  0.0720
61685W        W 4676  19.388   3.462  16.211  0.2352 -0.4657 -0.0612
61686W        W 4677  21.101  34.251  14.205 -0.1924  0.3312  0.1249
61687W        W 4678   6.155  19.069   2.303  0.1396  0.0387 -0.2185
61688W        W 4679  31.979  24.044  22.378  0.3030  0.1079  0.0314
61689W        W 4680  32.568  25.420  15.574 -0.1410 -0.2380 -0.3098
61690W        W 4681  17.384  30.365  28.985  0.0557 -0.0808 -0.0872
61691W        W 4682  10.930  26.874  15.621  0.0529 -0.1428 -0.0558
61692W        W 4683  11.047   4.799  21.194 -0.1322  0.1030 -0.1625
61693W        W 4684   4.364  18.291  18.639  0.1346 -0.1375 -0.1144
61694W        W 4685  22.913  32.801   4.931  0.0011  0.0459  0.0832
61695W        W 4686   4.005  13.533  25.577  0.0508 -0.1973 -0.0046
61696W        W 4687  14.971  23.990  19.302 -0.1895  0.1309  0.0278
61697W        W 4688   9.772  20.465  17.283  0.4962 -0.1745  0.0591
61698W        W 4689   1.571   7.054   1.133 -0.2292  0.0802 -0.1460
61699W        W 4690   6.782  21.580  27.508 -0.2386 -0.0894 -0.0511
61700W        W 4691  23.403   1.332  28.037 -0.0861  0.0330  0.0311
61701W        W 4692   2.642   0.891  28.366 -0.0146 -0.0512 -0.2196
61702W        W 4693  33.744  24.188   2.726 -0.1122  0.0524  0.0877
61703W        W 4694  10.025  22.840   4.227  0.0430 -0.1033 -0.0645
61704W        W 4695   3.438  25.648  15.061 -0.2461 -0.1434  0.0751
61705W        W 4696   9.033  22.096  19.360  0.2086  0.1367 -0.0126
61706W        W 4697   4.826  19.719  27.855 -0.1993 -0.1543  0.4491
61707W        W 4698  17.407  30.948  23.612  0.4934  0.2303 -0.0458
61708W        W 4699  11.081  25.996  23.388 -0.1128 -0.1365 -0.0567
61709W        W 4700  15.151   2.292  27.762 -0.2636 -0.2255 -0.0477
61710W        W 4701   6.023  23.324  18.548 -0.0538  0.0590 -0.3750
61711W        W 4702  14.183  13.593   0.201 -0.0190 -0.1720 -0.3828
61712W        W 4703   8.446  17.122   9.984  0.0164 -0.2440  0.0720
61713W        W 4704  10.428  34.644  15.896 -0.1846  0.0559 -0.0055
61714W        W 4705  18.026  10.776   2.867  0.0841  0.1896  0.0232
61715W        W 4706   9.657  19.293  19.955 -0.1462  0.1763 -0.0214
61716W        W 4707  29.195  25.982  13.153 -0.0637 -0.0024 -0.1675
61717W        W 4708  34.047  32.988   0.437 -0.2348  0.0468  0.1155
61718W        W 4709  11.279   9.755  27.955 -0.0029 -0.2015 -0.0271
61719W        W 4710  17.709  25.466  22.084 -0.0912  0.1431  0.2729
61720W        W 4711   3.686  22.953  21.792 -0.0923  0.2541 -0.2146
61721W        W 4712   1.683  29.695  25.085  0.0718  0.0522  0.1316
61722W        W 4713  15.494  23.158  16.473 -0.1179  0.0405  0.1085
61723W        W 4714   9.122  11.370  20.445 -0.2255  0.1596 -0.1542
61724W        W 4715  10.385  29.569  23.612 -0.1087  0.0193  0.0383
61725W        W 4716  19.098  28.663  23.980  0.2635  0.1339 -0.0933
61726W        W 4717  10.111  18.430  16.148  0.1827  0.2284 -0.2153
61727W        W 4718  19.056  25.307  21.523 -0.1692  0.0262  0.2271
61728W        W 4719  21.624  22.038  22.582  0.0494  0.0832 -0.6750
61729W        W 4720  20.349  32.269  16.351  0.1242  0.0189 -0.0512
61730W        W 4721  17.414  34.077  14.630 -0.5768  0.4606  0.1242
61731W        W 4722  10.373  14.515  13.961  0.0223 -0.0171  0.1908
61732W        W 4723  27.310  33.233  21.532  0.2053 -0.1093 -0.0619
61733W        W 4724  10.267   1.436  21.613 -0.2925 -0.0026 -0.2013
61734W        W 4725   9.953  30.838  21.865  0.2254  0.0348 -0.4308
61735W        W 4726   5.566   3.003   1.375 -0.2445 -0.1753  0.1530
61736W        W 4727  17.663  33.857  27.009  0.0819  0.0732  0.0276
61737W        W 4728  15.787  28.770  14.158 -0.0379 -0.0101 -0.1951
61738W        W 4729  25.282   0.805  29.187 -0.1700 -0.0228 -0.1454
61739W        W 4730  19.846  23.316  14.944 -0.1103 -0.0633 -0.1455
61740W        W 4731  15.150  26.297  28.141 -0.1771 -0.0668  0.0196
61741W        W 4732  16.365  29.003  16.008  0.1851  0.1343 -0.1314
61742W        W 4733  34.267  31.058  26.003  0.0294  0.0137 -0.4467
61743W        W 4734  16.738  30.053   1.370  0.1695  0.2736 -0.0687
61744W        W 4735  16.192  26.405  13.918  0.0417 -0.3141  0.1448
61745W        W 4736  11.295  19.898  23.384 -0.2419  0.1175 -0.0918
61746W        W 4737  17.150  10.778  14.327 -0.0910 -0.1688 -0.0024
61747W        W 4738  17.528  23.041  25.383  0.0182  0.0445 -0.1544
61748W        W 4739   9.367  22.857  17.035  0.0939  0.2317 -0.1566
61749W        W 4740  19.244   5.172   8.015  0.1071  0.1561 -0.2403
61750W        W 4741  21.677  34.217  13.031  0.0003  0.5254  0.0342
61751W        W 4742  12.844  11.448  18.744 -0.1060 -0.1502 -0.1031
61752W        W 4743   3.713  20.496  28.202 -0.0761 -0.0395 -0.0611
61753W        W 4744  12.710  23.774  16.707  0.0380  0.1188 -0.0944
61754W        W 4745  29.630   4.859  19.301  0.2639  0.1805  0.0970
61755W        W 4746  23.179  21.992   4.811 -0.0712 -0.1196 -0.0951
61756W        W 4747  17.990   3.245  21.414  0.2109  0.0271 -0.0321
61757W        W 4748  15.139  11.041  25.496  0.2481 -0.0650 -0.0493
61758W        W 4749  20.993  22.772  28.678  0.0498 -0.2949  0.2387
61759W        W 4750  17.722  28.089   8.516 -0.1300  0.0795  0.2166
61760W        W 4751  17.011  24.637  21.853  0.4849 -0.2700  0.1280
61761W        W 4752   6.223  24.544  21.482 -0.2873  0.1113  0.0692
61762W        W 4753   5.052  22.387  25.476 -0.0068  0.4410 -0.0408
61763W        W 4754   8.989   5.197  22.153 -0.2481 -0.0180  0.0011
61764W        W 4755  11.512  33.617  22.144 -0.4059  0.0538 -0.0090
61765W        W 4756  17.907  21.768  21.196  0.1622 -0.3722  0.2363
61766W        W 4757  14.256  29.690  14.800  0.0631  0.0429  0.2124
61767W        W 4758  14.562  30.601  18.391 -0.1613  0.3976 -0.0099
61768W        W 4759  34.577  24.301  23.869  0.2411  0.2460 -0.1150
61769W        W 4760   8.479  16.987  16.377 -0.0937 -0.0654  0.1609
61770W        W 4761   9.437  14.135  23.835  0.0069  0.3618  0.2430
61771W        W 4762  17.433  12.401  16.558 -0.2342  0.0651  0.0937
61772W        W 4763  22.137  18.256  19.050 -0.0254  0.2409  0.1161
61773W        W 4764   3.673  30.491  17.082  0.0971  0.1405 -0.1615
61774W        W 4765  16.576   1.810  16.690 -0.0579 -0.2585 -0.0471
61775W        W 4766  16.329   2.824  15.904  0.1031  0.4138  0.0470
61776W        W 4767  11.751  27.390  18.592 -0.4311  0.0719  0.2054
61777W        W 4768   9.407  16.121  21.054 -0.2950 -0.1434  0.1408
61778W        W 4769   5.914  27.184   3.580  0.1122  0.1597 -0.0110
61779W        W 4770  19.834  24.064  28.986  0.3338  0.0270  0.3493
61780W        W 4771  27.584  13.385  13.708  0.1688 -0.1136 -0.1901
61781W        W 4772  18.123  11.891  23.704  0.0772 -0.1182 -0.1616
61782W        W 4773  17.047  28.281  17.514 -0.4804 -0.1761  0.0705
61783W        W 4774   2.171  31.247  14.545 -0.4737  0.3129  0.2660
61784W        W 4775  30.460  33.005   4.952  0.0193  0.4258  0.0237
61785W        W 4776  17.838   1.104  19.676  0.1510 -0.1173 -0.2044
61786W        W 4777  13.835  20.117  18.454  0.3317  0.0047  0.1929
61787W        W 4778   4.345  31.793  24.908 -0.2404  0.0102 -0.0596
61788W        W 4779   9.700   0.914  14.057  0.2404 -0.0618 -0.1049
61789W        W 4780  16.173  22.174  18.009 -0.0585 -0.2271  0.0463
61790W        W 4781  17.150  33.544  14.631  0.0268 -0.1586 -0.3036
61791W        W 4782  13.843   2.585  28.341 -0.0033 -0.0066 -0.0278
61792W        W 4783  14.837   0.204  22.150  0.1157  0.2048  0.0056
61793W        W 4784  20.652  28.292  15.454  0.2181 -0.1587  0.2508
61794W        W 4785  30.983  25.737  20.765 -0.1440 -0.1019 -0.3116
61795W        W 4786   7.488  32.909   0.844  0.2687 -0.0742  0.1025
61796W        W 4787  18.128  18.859  14.199  0.3093  0.0796 -0.0370
61797W        W 4788  28.281  28.125  18.480 -0.4855 -0.0518 -0.1220
61798W        W 4789  18.274  28.176  18.225  0.0869 -0.1237 -0.1320
61799W        W 4790   6.558  26.912  22.687  0.3651 -0.1415 -0.1763
61800W        W 4791  15.470  29.454  15.930 -0.1064 -0.0123  0.0415
61801W        W 4792  10.577  23.479  27.096 -0.3196  0.1168  0.0081
61802W        W 4793   2.820  26.572  16.998 -0.0446 -0.1175 -0.1730
61803W        W 4794  32.539  26.402  21.163 -0.1376  0.2473 -0.1174
61804W        W 4795  11.896  27.895  15.076  0.0424  0.0063 -0.1148
61805W        W 4796   5.666  24.194  23.775  0.1363 -0.1728 -0.0192
61806W        W 4797   6.813  11.102   1.712 -0.1917 -0.5079  0.0857
61807W        W 4798  15.823  28.065  19.791  0.1768 -0.0081  0.1225
61808W        W 4799   1.706  28.007  13.484 -0.0466  0.0164 -0.0934
61809W        W 4800  26.319  20.088  23.094 -0.2443 -0.0929 -0.1502
61810W        W 4801  18.138  30.616  22.647  0.2492 -0.2944  0.1912
61811W        W 4802  23.154  22.473  17.455  0.1534  0.2969 -0.0937
61812W        W 4803   5.309  23.329  16.574 -0.0523 -0.1387 -0.1597
61813W        W 4804  20.631  32.821  15.479 -0.4699 -0.0742  0.1674
61814W        W 4805  20.051  30.597  19.399  0.0814 -0.1714 -0.0296
61815W        W 4806  29.853  14.711   0.792 -0.1983 -0.0276 -0.0645
61816W        W 4807  26.136  33.005  24.137 -0.0250  0.2117 -0.0891
61817W        W 4808   5.531  26.987  19.529  0.0903 -0.0153  0.0813
61818W        W 4809  21.821   0.558  16.409 -0.3141  0.1580  0.2385
61819W        W 4810   7.170  20.291  22.485 -0.0079  0.1709 -0.1965
61820W        W 4811  10.202  24.337  21.821  0.1814 -0.1815 -0.0256
61821W        W 4812  13.440  17.107  14.478  0.1179  0.0719 -0.1064
61822W        W 4813   4.943   3.844  24.160  0.2715  0.0008 -0.0215
61823W        W 4814  17.963  26.725  20.079  0.0928  0.4068 -0.1645
61824W        W 4815   9.202   1.771  21.039 -0.1420  0.0255  0.0999
61825W        W 4816  11.510   0.732  19.362 -0.0983 -0.0152  0.0517
61826W        W 4817  14.773  29.628  18.408  0.0862 -0.3478  0.1042
61827W        W 4818  28.268  24.085  18.433 -0.1136  0.2661 -0.1767
61828W        W 4819  19.343  14.319  29.204  0.2192 -0.1085 -0.2843
61829W        W 4820  11.972  26.273   1.989 -0.0725 -0.4520 -0.1906
61830W        W 4821   5.245  28.704  16.348  0.4644 -0.0098 -0.2762
61831W        W 4822  26.896   1.741  16.971 -0.1094 -0.2514  0.3082
61832W        W 4823  31.784  33.893  15.792  0.2336 -0.0290 -0.0496
61833W        W 4824   3.344  34.099  22.135  0.1037  0.2066 -0.2590
61834W        W 4825  24.165   3.238  27.283 -0.0368 -0.1048  0.0038
61835W        W 4826   2.840  20.075  19.323  0.0916 -0.1568 -0.1045
61836W        W 4827  19.247  30.434  17.241 -0.0878  0.1723 -0.0183
61837W        W 4828   8.129  14.886  24.180  0.2828 -0.1964  0.1612
61838W        W 4829   1.609  20.262  15.546 -0.1973 -0.1612 -0.2070
61839W        W 4830  12.931  28.921  24.228  0.0713 -0.2287 -0.2420
61840W        W 4831  29.723  34.506  13.644  0.1176  0.0203  0.1213
61841W        W 4832  33.353  16.479  18.208  0.1463  0.0541 -0.3088
61842W        W 4833   7.494  17.896  17.596  0.0355 -0.0794  0.1877
61843W        W 4834  22.739  23.615  18.682  0.0644  0.0537  0.4949
61844W        W 4835  10.605  10.836  29.143 -0.1551 -0.1411 -0.0553
61845W        W 4836  13.185  16.019   2.879  0.0847  0.2278  0.1794
61846W        W 4837  32.556  18.751  14.108  0.1189  0.3038  0.1435
61847W        W 4838  16.754  29.317  19.749 -0.0496  0.2301 -0.2829
61848W        W 4839   2.634  29.996  26.728 -0.1513  0.0020 -0.0917
61849W        W 4840  10.810  20.952  13.393 -0.1842 -0.2478 -0.0728
61850W        W 4841  12.639  25.645  23.638 -0.2098  0.0474  0.2799
61851W        W 4842  18.192   3.235  17.434 -0.2338 -0.0334  0.0908
61852W        W 4843  34.137  31.159  25.090 -0.4539 -0.0168 -0.2746
61853W        W 4844  11.578  29.580   4.794 -0.1018 -0.0093 -0.2171
61854W        W 4845  25.530  30.793  14.477  0.0296  0.1835 -0.0012
61855W        W 4846  24.359  26.068  13.432 -0.0619  0.0308  0.0369
61856W        W 4847   8.934  17.850  20.662 -0.3453 -0.2251 -0.0358
61857W        W 4848  27.899  16.370  19.958 -0.1476  0.0835  0.0450
61858W        W 4849  14.462   4.953  17.277  0.1375  0.3656 -0.2366
61859W        W 4850  18.410  32.486  17.470  0.0965 -0.3646 -0.0162
61860W        W 4851  17.558  22.066  21.400  0.0745  0.1215  0.0658
61861W        W 4852   0.323  10.337  16.629  0.1521 -0.0327  0.0270
61862W        W 4853   4.283  14.969  19.962 -0.1709 -0.2728 -0.0352
61863W        W 4854   7.294  23.136  17.600 -0.0523 -0.1089 -0.0280
61864W        W 4855   7.154  26.544   9.766 -0.1423  0.2174 -0.2137
61865W        W 4856  16.494  28.547  16.800  0.0778  0.6178 -0.1134
61866W        W 4857  16.196  26.446  19.126 -0.3863  0.1523 -0.0577
61867W        W 4858  30.887  18.230  23.720 -0.4286 -0.1130  0.2470
61868W        W 4859  21.218   5.121  15.980  0.0963  0.1248 -0.0002
61869W        W 4860  15.533  23.985  17.547 -0.3007  0.0338  0.3450
61870W        W 4861   4.601  33.574  16.569  0.2406  0.0742 -0.1066
61871W        W 4862  28.437   3.095  26.285  0.0140  0.0687 -0.0756
61872W        W 4863   2.906   9.684   4.376 -0.2000  0.0065  0.0491
61873W        W 4864  33.958  21.474  20.005 -0.2728  0.0206 -0.0423
61874W        W 4865   9.481   4.016  17.798 -0.1688  0.2464  0.0460
61875W        W 4866   6.786  24.220  17.188 -0.2071  0.1011  0.2169
61876W        W 4867  20.550  32.871  13.762 -0.0240 -0.2664 -0.1580
61877W        W 4868  33.463  23.460   9.679  0.1163  0.1940  0.3326
61878W        W 4869  13.534  25.880   2.460 -0.0093 -0.1678  0.1938
61879W        W 4870  10.437  16.074  16.850 -0.0823 -0.0693  0.0517
61880W        W 4871  11.633   9.528  20.506  0.1206 -0.0978  0.0345
61881W        W 4872  32.026   5.240  16.696  0.0219 -0.2383 -0.4055
61882W        W 4873   4.794  26.163  14.185  0.2267  0.0025 -0.0350
61883W        W 4874  15.023  25.320  16.049 -0.1559 -0.1842  0.1360
61884W        W 4875   5.215  24.743  22.526 -0.1307  0.0275 -0.2952
61885W        W 4876  27.339  22.764  14.963  0.1815 -0.0268  0.0892
61886W        W 4877  13.076  30.194  16.282 -0.4003  0.2121 -0.3576
61887W        W 4878  13.344  11.988  13.981 -0.3465 -0.1323  0.3096
61888W        W 4879   8.441  19.115  17.159  0.1667 -0.0189  0.1926
61889W        W 4880  27.942  33.608  25.001 -0.3843 -0.3075 -0.0515
61890W        W 4881  10.197  19.486  14.827  0.1141  0.2806 -0.0609
61891W        W 4882  15.928   5.665  19.109 -0.2353  0.0084  0.0599
61892W        W 4883   4.293  16.776  18.240 -0.0550 -0.2158  0.2422
61893W        W 4884  14.155  13.178  20.713  0.1660 -0.2383 -0.1828
61894W        W 4885  21.016  10.760   5.692  0.0531 -0.0448 -0.2591
61895W        W 4886  28.080  33.009  24.079 -0.0691  0.2450  0.1224
61896W        W 4887  19.366  34.506  14.627 -0.1729 -0.2095  0.0728
61897W        W 4888  19.145  31.329  17.820 -0.0890 -0.0832 -0.0494
61898W        W 4889   9.092  30.247  20.462 -0.2577 -0.1249 -0.1385
61899W        W 4890   9.721  19.819  18.037  0.2240  0.0007 -0.1689
61900W        W 4891  33.821  27.746  13.456  0.2702  0.0015 -0.1862
61901W        W 4892  27.085  15.894   8.011  0.0513 -0.0825  0.2902
61902W        W 4893  23.355  30.135  16.144  0.0156  0.0975  0.2797
61903W        W 4894  12.586  21.210  16.894  0.1184  0.0107  0.1196
61904W        W 4895   3.330  19.192   3.898 -0.1647  0.0766 -0.0462
61905W        W 4896  22.292  23.957  18.875  0.0662  0.0643  0.1691
61906W        W 4897  11.108  14.337  21.541 -0.1832  0.2211 -0.2929
61907W        W 4898  21.680  20.066  14.656 -0.0486  0.2718  0.0069
61908W        W 4899  30.404   8.154  27.668  0.0081 -0.2614 -0.0451
61909W        W 4900  10.834  20.135  20.814 -0.0913 -0.3089 -0.2745
61910W        W 4901  18.391  11.797  17.504  0.1791  0.3168  0.0297
61911W        W 4902   7.420  21.797  16.762 -0.1116 -0.3398  0.0371
61912W        W 4903   4.953  19.156  21.877 -0.1009 -0.0193 -0.3058
61913W        W 4904   6.570   2.545   9.152 -0.2945 -0.2972 -0.1691
61914W        W 4905  26.768  25.012  15.245 -0.2455 -0.0486 -0.2892
61915W        W 4906  13.649  33.163  21.105 -0.0873 -0.0117 -0.1264
61916W        W 4907  33.186  29.215  26.648  0.0882  0.2637  0.0050
61917W        W 4908  20.738  28.286  16.540  0.0250 -0.0508 -0.1804
61918W        W 4909  10.922  16.425   3.629  0.2539 -0.1209 -0.1656
61919W        W 4910  19.960  22.946  23.053 -0.0245  0.0206  0.0522
61920W        W 4911   5.964  17.216  18.174 -0.2039 -0.1454 -0.2066
61921W        W 4912  33.252   4.040  16.781 -0.0089  0.0223 -0.1062
61922W        W 4913  10.117  19.622  22.534  0.4235  0.1007  0.1879
61923W        W 4914   1.913  23.901  17.265 -0.3936 -0.2835 -0.2286
61924W        W 4915   4.484  11.233  16.034  0.1264  0.1877 -0.1116
61925W        W 4916  10.622  12.399  16.279 -0.0285 -0.1009  0.0962
61926W        W 4917  25.524  33.743  14.861  0.2467  0.0048  0.1698
61927W        W 4918   9.894  29.640  20.884  0.0414  0.0224 -0.0363
61928W        W 4919  25.209  30.731  16.854 -0.1514  0.1723 -0.2273
61929W        W 4920   6.693  17.461  27.305 -0.2073  0.2411  0.3041
61930W        W 4921   1.528  27.490  16.519  0.0459 -0.0716  0.1651
61931W        W 4922   1.085  25.809  19.490  0.0027  0.2788 -0.0732
61932W        W 4923   9.306   1.768  21.566  0.2366 -0.0243  0.1141
61933W        W 4924  23.664  27.048  20.433 -0.2813  0.1977 -0.3500
61934W        W 4925  27.058  22.919  19.788 -0.1090  0.0527 -0.0323
61935W        W 4926   7.044  29.193  21.342  0.1367 -0.1055  0.0345
61936W        W 4927   3.429  10.330  22.533  0.1101  0.1521  0.1938
61937W        W 4928   6.109  16.164  15.781  0.0524  0.1772  0.2075
61938W        W 4929   9.736  14.449  18.322 -0.4480 -0.0951  0.1004
61939W        W 4930   7.972  32.781  23.564  0.1614  0.0569  0.1785
61940W        W 4931  15.104  13.867  14.392 -0.0441 -0.0062  0.1081
61941W        W 4932  11.190  14.679  15.666  0.0267  0.0060  0.3289
61942W        W 4933  11.019  17.978   1.741  0.2979 -0.0954  0.0144
61943W        W 4934  25.815   2.402  15.505  0.2068 -0.2735  0.1529
61944W        W 4935  34.405  14.001  23.610 -0.1271  0.1163 -0.0521
61945W        W 4936   9.803   8.496   4.445  0.0065  0.0392  0.2700
61946W        W 4937   9.108  34.222   1.020 -0.1456  0.0315 -0.3510
61947W        W 4938  32.074  16.469  25.001  0.0088 -0.2512 -0.5422
61948W        W 4939   3.337  10.043  21.510  0.6737  0.3311  0.2735
61949W        W 4940  27.813  11.292  22.352  0.1158 -0.2503  0.0170
61950W        W 4941  22.930   0.052  15.570  0.1314 -0.0501 -0.2705
61951W        W 4942   1.715  27.510  22.880  0.0144  0.0218 -0.2525
61952W        W 4943  28.246  23.654  16.230  0.0560  0.1458  0.1392
61953W        W 4944  10.408  34.132  26.694  0.0974 -0.1271 -0.2585
61954W        W 4945  12.797   5.030  26.710 -0.0082  0.0919 -0.2020
61955W        W 4946   2.333  17.620  20.287 -0.1569  0.0717 -0.3217
61956W        W 4947   0.334  12.684  28.311 -0.1067 -0.0621 -0.2337
61957W        W 4948  10.691  25.918  18.977  0.0477  0.0986  0.1635
61958W        W 4949  20.628  25.783  24.597  0.0211 -0.1592 -0.0376
61959W        W 4950   8.875   1.676  27.499 -0.0124 -0.0891  0.3386
61960W        W 4951  14.634  25.129   2.764  0.1351  0.2822  0.0342
61961W        W 4952  32.931  29.006  14.105  0.0910  0.2934  0.1568
61962W        W 4953  30.817  16.748  21.325  0.0065 -0.1936  0.1903
61963W        W 4954  27.662  30.667  20.410  0.2216 -0.1767 -0.2059
61964W        W 4955  21.134  21.162  16.920  0.1282  0.0102 -0.1173
61965W        W 4956  31.404  34.716   1.461  0.0288  0.1369  0.0865
61966W        W 4957  13.619  29.764  16.814 -0.0358 -0.1598  0.0499
61967W        W 4958  13.237  32.475  17.106 -0.0207 -0.5413 -0.1590
61968W        W 4959  26.281  18.957   6.431 -0.1221  0.0306  0.1441
61969W        W 4960  22.505  33.378  15.877 -0.1732  0.3225  0.1389
61970W        W 4961  10.436  16.525  20.973 -0.2194  0.0092  0.0364
61971W        W 4962  19.897  24.716  16.392 -0.0491 -0.2561  0.1516
61972W        W 4963   8.231  14.900  16.760  0.1054  0.0335  0.2562
61973W        W 4964   9.733   0.806   1.358  0.1307  0.0083 -0.1889
61974W        W 4965  13.978  14.963  23.465  0.0761  0.0046 -0.1355
61975W        W 4966  12.620  19.155  20.567 -0.0281 -0.1259  0.1772
61976W        W 4967  16.784  31.896   1.366  0.0278  0.3649 -0.2724
61977W        W 4968  14.212  24.417  21.970 -0.1390 -0.1150 -0.2425
61978W        W 4969  17.583   6.322  28.751  0.0903  0.0392 -0.0210
61979W        W 4970  15.278  30.718   1.215  0.1590 -0.2415  0.1646
61980W        W 4971  11.754  31.626  22.718 -0.0300 -0.1807  0.0110
61981W        W 4972  18.577   0.304  17.683  0.1701 -0.0755 -0.1230
61982W        W 4973  29.188  25.911  23.631 -0.0125 -0.3713  0.2690
61983W        W 4974  32.457  18.857  20.952  0.0086  0.1284  0.1032
61984W        W 4975  17.933  21.853  19.421  0.2574  0.1004 -0.0040
61985W        W 4976   8.850  33.331  15.685 -0.0260 -0.0734  0.0477
61986W        W 4977  24.087  20.036  14.209 -0.3083  0.0464 -0.0172
61987W        W 4978  15.645  19.302   4.694  0.1419  0.2165 -0.0597
61988W        W 4979   9.120  24.653  26.902 -0.0505  0.2149  0.0127
61989W        W 4980   1.883   3.780  23.120  0.1716  0.2658 -0.0507
61990W        W 4981  18.880  17.525  22.754  0.0174 -0.2894 -0.0271
61991W        W 4982  26.068  23.344  16.914  0.0370  0.0865 -0.2548
61992W        W 4983  18.160  13.218  18.563 -0.3482 -0.1439  0.1717
61993W        W 4984  34.214  29.214   7.275 -0.1063 -0.0704  0.1404
61994W        W 4985  18.000  19.927  26.863 -0.2304  0.1276  0.1511
61995W        W 4986  20.220  28.909   8.331  0.1566 -0.0568 -0.1704
61996W        W 4987  19.349   8.226  19.841  0.2437  0.0455 -0.0559
61997W        W 4988  34.578   1.894  19.933  0.1094 -0.0400  0.1570
61998W        W 4989  14.028  16.726  23.407  0.2138  0.1233 -0.2290
61999W        W 4990  15.379  25.356   7.575 -0.0693  0.3005 -0.0347
62000W        W 4991  30.965  31.591  27.922  0.0658  0.2507 -0.0426
62001W        W 4992   2.004  34.293  28.628  0.0101  0.0990 -0.0324
62002W        W 4993  23.392  27.205  15.782  0.2769  0.4267 -0.0182
62003W        W 4994  32.306   1.366  16.257 -0.1194  0.2481 -0.4577
62004W        W 4995  14.534  21.075  24.938  0.1705 -0.2711  0.1963
62005W        W 4996  27.446   3.988  28.472 -0.0621 -0.1457  0.1886
62006W        W 4997  11.484  25.612  26.583  0.1287  0.0274  0.1165
62007W        W 4998  19.083  28.741  15.836 -0.1841 -0.0866  0.0308
62008W        W 4999   8.788  31.092   0.321 -0.0961 -0.2350  0.1659
62009W        W 5000  10.477  28.689  27.612  0.0507 -0.3147  0.1764
62010W        W 5001  31.252   7.547   7.978 -0.4813 -0.0543  0.0639
62011W        W 5002  22.828  26.064  20.598  0.0369 -0.0861  0.0117
62012W        W 5003   4.790  22.711   0.015  0.0911  0.0507  0.0824
62013W        W 5004  21.034  33.561  26.434  0.3261  0.1290  0.5402
62014W        W 5005  14.686  12.036  21.931  0.1120  0.0665 -0.0493
62015W        W 5006  25.359  18.418  14.302  0.2134 -0.2733  0.3526
62016W        W 5007   4.986   4.070  22.323 -0.0953 -0.0955  0.0079
62017W        W 5008   6.358  28.760  15.322 -0.0521  0.1538  0.0606
62018W        W 5009  14.216  30.359  25.539  0.0651  0.2370  0.0181
62019W        W 5010  20.852  24.333  25.085 -0.1624 -0.0522  0.0675
62020W        W 5011   3.736  23.826  27.722 -0.1357  0.0723 -0.2270
62021W        W 5012  20.411  25.838  26.435 -0.0653 -0.3658 -0.1461
62022W        W 5013  21.627  15.247   8.132  0.1019 -0.0987  0.0975
62023W        W 5014  16.795  11.277  20.648  0.1238 -0.3591  0.2479
62024W        W 5015   8.658  30.883  23.703  0.1887  0.0964  0.1269
62025W        W 5016   8.656  24.570   3.378 -0.0418  0.4728 -0.0270
62026W        W 5017   6.456  24.260  19.784  0.0280 -0.3068 -0.1999
62027W        W 5018   5.567  14.801  10.053 -0.1736  0.0725 -0.0769
62028W        W 5019   4.038  21.716  14.563 -0.2375  0.2947 -0.0033
62029W        W 5020  30.576  28.003   1.079 -0.1050  0.1256  0.0569
62030W        W 5021  24.360  30.527  25.134 -0.1165 -0.0905  0.0748
62031W        W 5022   4.720  18.222  18.190 -0.0514 -0.2241  0.1745
62032W        W 5023   9.011  24.414  19.429 -0.1047  0.1603 -0.1212
62033W        W 5024   6.134  18.175  24.064  0.1309  0.1691  0.1982
62034W        W 5025  22.421  28.802  15.413 -0.1915  0.2235 -0.0564
62035W        W 5026  19.822  20.574  16.363  0.3825  0.2369 -0.1492
62036W        W 5027  22.577  29.718  24.061 -0.0481  0.1897  0.1102
62037W        W 5028  12.889  30.830  15.865 -0.0950 -0.0116  0.3124
62038W        W 5029   6.513  17.696  24.426  0.0849 -0.1276  0.0247
62039W        W 5030  23.060   1.512   8.760  0.0816 -0.0919  0.0207
62040W        W 5031  27.175  26.689  18.701  0.0451  0.1168 -0.0333
62041W        W 5032   0.448  30.251  23.670 -0.1393 -0.0561 -0.1560
62042W        W 5033  10.994  21.065  15.073  0.3154  0.3143 -0.0051
62043W        W 5034  21.305  32.737  21.894 -0.1815 -0.0592 -0.1533
62044W        W 5035  18.372  23.225  14.212  0.2250  0.0215 -0.0060
62045W        W 5036   1.476   1.676  17.668 -0.0071  0.0790 -0.1249
62046W        W 5037  26.783  12.904  16.864  0.1812  0.0223 -0.0456
62047W        W 5038   6.679  13.700  18.671  0.0335  0.0377 -0.0123
62048W        W 5039  27.193  20.893  13.791  0.1552  0.0890 -0.1226
62049W        W 5040   5.874   0.498  21.807  0.0239  0.2462  0.2310
62050W        W 5041  26.505  23.052  18.868 -0.0917  0.0512 -0.0898
62051W        W 5042  16.883  32.672  15.397 -0.3009 -0.1138  0.0842
62052W        W 5043  20.917  31.722  16.236  0.1803  0.2958 -0.0498
62053W        W 5044  19.813  30.336  13.558 -0.0303  0.3729 -0.1115
62054W        W 5045  24.726   7.490  20.852  0.3001  0.1097  0.0187
62055W        W 5046  11.990  11.025  16.330  0.0067  0.4541 -0.1611
62056W        W 5047  20.788  21.192  15.216  0.0351 -0.0056  0.1007
62057W        W 5048  11.299  33.697  28.100 -0.2191 -0.0341 -0.2015
62058W        W 5049  10.169  15.158  16.083  0.2068 -0.0396 -0.1301
62059W        W 5050  14.710   7.340  15.087 -0.0930 -0.0100 -0.1092
62060W        W 5051  21.424  31.245  15.227 -0.1029  0.1995  0.2519
62061W        W 5052  10.361  28.143  20.429 -0.0918 -0.1200 -0.1598
62062W        W 5053   3.652  29.892   1.148 -0.0624 -0.1775  0.1142
62063W        W 5054  27.892  25.503  23.745  0.3402 -0.1728  0.1139
62064W        W 5055  12.311  22.633  17.874  0.0819 -0.0629 -0.1422
62065W        W 5056  18.541   8.327  21.694  0.1010  0.0034  0.1223
62066W        W 5057  13.934   0.886  14.981  0.0524  0.2309  0.1839
62067W        W 5058   3.565  24.845  15.195 -0.1185 -0.0530 -0.2177
62068W        W 5059   8.682  19.353  16.653  0.2082 -0.1496  0.3094
62069W        W 5060   9.843  26.374  19.623 -0.1338  0.3239 -0.1602
62070W        W 5061  16.793  26.755  17.346  0.1041 -0.1173  0.2374
62071W        W 5062  23.143  17.328  20.776 -0.0382  0.1121 -0.2925
62072W        W 5063  14.292  31.238  20.168  0.5784 -0.3923  0.3510
62073W        W 5064   1.217   4.655  26.262  0.0791 -0.0675 -0.2984
62074W        W 5065   3.321   0.397  24.884 -0.1424 -0.0844 -0.0616
62075W        W 5066   2.383  17.575  18.410 -0.2171 -0.0008 -0.0318
62076W        W 5067  10.803   6.563  19.782 -0.1493 -0.1305 -0.0479
62077W        W 5068   0.334  18.763   4.212  0.1139  0.1221  0.3598
62078W        W 5069  17.670  14.764  12.831  0.3887  0.0800 -0.1483
62079W        W 5070   7.217   0.861  19.609 -0.2851 -0.0565 -0.0001
62080W        W 5071  12.222  14.274   1.846 -0.1523  0.1564  0.0393
62081W        W 5072  28.410  14.902  27.052 -0.1775 -0.1827 -0.0397
62082W        W 5073  14.119  24.968  22.998 -0.0422 -0.0083 -0.2682
62083W        W 5074  14.230  22.215  17.095 -0.0612  0.0574 -0.1387
62084W        W 5075  27.536  28.927  19.391 -0.0863 -0.1492  0.2844
62085W        W 5076   7.154  20.405  17.342 -0.1941 -0.1248  0.3355
62086W        W 5077  12.152  23.875  17.329 -0.0273  0.3747  0.5556
62087W        W 5078   9.775  17.283  17.093  0.5950  0.0273 -0.0945
62088W        W 5079  19.904  25.251  15.362 -0.1069  0.1055 -0.1698
62089W        W 5080   9.521   7.995  22.555 -0.0806  0.1776 -0.0810
62090W        W 5081  11.114  21.568  14.132  0.1506 -0.0412  0.1584
62091W        W 5082  10.406   8.700  19.052 -0.0728  0.3434 -0.0392
62092W        W 5083  15.658  33.857  22.726  0.0322 -0.2744  0.2250
62093W        W 5084  17.054  21.752  17.591 -0.1603  0.1340  0.0831
62094W        W 5085  25.025  26.650  20.827  0.0866 -0.0610 -0.2059
62095W        W 5086   3.529  24.244  16.564  0.0827 -0.4269  0.2175
62096W        W 5087  17.173  15.105  12.697  0.0273 -0.4147  0.2086
62097W        W 5088  23.312  28.853  26.316 -0.0388  0.0571 -0.1775
62098W        W 5089  13.850  21.830  22.825 -0.2017 -0.0482  0.0718
62099W        W 5090  23.540  19.794  18.749  0.0327  0.1638  0.0963
62100W        W 5091   7.581  17.331  19.056  0.0843 -0.0699  0.1503
62101W        W 5092  30.956  34.594  25.360  0.1450  0.0667 -0.0975
62102W        W 5093   8.720  20.877  27.805  0.1938 -0.3577 -0.4540
62103W        W 5094  15.513  29.411  16.920  0.0485  0.1068  0.2104
62104W        W 5095   9.681  23.645   4.590 -0.0574  0.0487  0.0339
62105W        W 5096  33.946  30.898  20.750  0.1560  0.0534  0.0695
62106W        W 5097  14.507  25.187  22.783 -0.1456  0.0533 -0.1278
62107W        W 5098  19.280  33.914  21.594  0.0721  0.0672  0.3182
62108W        W 5099  11.030  30.750  16.315  0.0072 -0.1519 -0.0646
62109W        W 5100  15.679   7.792  16.979  0.0459  0.0787 -0.2120
62110W        W 5101  33.878   9.851  24.287 -0.1464  0.1307  0.1094
62111W        W 5102  22.127  33.234  22.159 -0.0497  0.1334 -0.1012
62112W        W 5103  30.583  16.553  28.787  0.2885 -0.1723  0.3850
62113W        W 5104   4.251  14.346  25.176  0.0183 -0.1591 -0.2327
62114W        W 5105  10.540  15.603  25.004 -0.1311  0.1964 -0.1138
62115W        W 5106  16.038  23.399  20.049  0.3171 -0.3055 -0.1555
62116W        W 5107   7.011  20.059  20.764  0.4504 -0.0027  0.1684
62117W        W 5108   6.532  21.135   3.059  0.1335  0.1472  0.0747
62118W        W 5109   5.070  10.217  17.443  0.0753 -0.1325 -0.2990
62119W        W 5110   7.165  10.425   0.650 -0.0877  0.0432  0.2412
62120W        W 5111  31.554  32.467  13.992 -0.0044 -0.0753 -0.0653
62121W        W 5112   9.759  10.711   9.652  0.2172  0.2047  0.0794
62122W        W 5113  30.820   5.081  14.336  0.0618 -0.0001 -0.1138
62123W        W 5114  14.463  15.429  21.383  0.0965 -0.0971 -0.0497
62124W        W 5115   7.163  17.234  15.943  0.1994 -0.2158  0.0782
62125W        W 5116   5.164  18.206  11.052 -0.0196  0.1058 -0.1906
62126W        W 5117  20.739   1.370  23.449 -0.2374  0.0448  0.2061
62127W        W 5118  33.098  17.106  18.291  0.1123  0.3924 -0.2211
62128W        W 5119  11.260  24.873  19.312 -0.6095 -0.0879  0.0016
62129W        W 5120  17.631  28.709  16.766 -0.2541 -0.0097  0.1551
62130W        W 5121  19.860   2.534  15.765 -0.0098 -0.1204  0.0750
62131W        W 5122  10.748  26.437  17.565 -0.1110 -0.3074 -0.0152
62132W        W 5123   8.953  13.340  18.493 -0.0507 -0.0480 -0.1334
62133W        W 5124  17.295  28.222   8.246 -0.0499 -0.0282 -0.0570
62134W        W 5125   8.419  19.252  23.359  0.0631 -0.1453 -0.1619
62135W        W 5126  22.745  12.268  27.965  0.0755 -0.2464 -0.0287
62136W        W 5127  20.835  31.729  27.364  0.0067 -0.2344 -0.0126
62137W        W 5128  11.449  15.802  14.996 -0.3016  0.0350  0.0222
62138W        W 5129   5.200  31.720   8.527 -0.2220  0.3926  0.2470
62139W        W 5130  24.068  28.137  17.502  0.0340 -0.1284 -0.1656
62140W        W 5131   3.617   2.144  18.367 -0.1663  0.2329 -0.1241
62141W        W 5132  16.457  14.484  27.186 -0.3489  0.3165  0.0198
62142W        W 5133  18.358  25.926  27.722  0.2274  0.1352 -0.1343
62143W        W 5134  18.491  32.688  14.585  0.1245 -0.0181  0.2221
62144W        W 5135   9.763   5.077  25.605  0.0152  0.0115 -0.0566
62145W        W 5136   3.646  24.402  18.267 -0.1197 -0.0017  0.0691
62146W        W 5137  25.890  31.501  24.326  0.1386  0.0158  0.2787
62147W        W 5138  17.480  13.284  14.748 -0.1237 -0.3206  0.2472
62148W        W 5139   7.274  31.375  13.641  0.0072  0.2883 -0.2944
62149W        W 5140   4.971  21.886  18.650 -0.2054 -0.1848 -0.3726
62150W        W 5141  29.060  19.966  17.096 -0.0919  0.0186 -0.0122
62151W        W 5142  20.718   5.216  25.344  0.1219 -0.3020 -0.0776
62152W        W 5143   8.822  26.672  16.047 -0.2026  0.1089  0.4436
62153W        W 5144  27.325  31.966  18.622  0.1116  0.5058 -0.2080
62154W        W 5145  22.581  16.938  18.768  0.0317  0.1185 -0.3295
62155W        W 5146   7.493  12.680  24.350  0.4111 -0.0534  0.0445
62156W        W 5147   8.975  21.437  14.656 -0.1565 -0.1782 -0.0362
62157W        W 5148  13.639  19.281  20.774  0.1640 -0.0657 -0.0902
62158W        W 5149   9.132   5.837  16.878 -0.0423 -0.1937  0.2235
62159W        W 5150  10.974  29.740  20.566 -0.2113  0.2550  0.2523
62160W        W 5151  13.900  19.981  24.417 -0.1460 -0.3075 -0.2352
62161W        W 5152  20.806   4.285  16.137 -0.0083  0.1050 -0.0806
62162W        W 5153  18.965   8.822  26.728  0.0417 -0.2542 -0.1087
62163W        W 5154   0.102   9.813  20.434 -0.2199  0.1648 -0.0836
62164W        W 5155  14.492  19.823  15.086  0.0485  0.0144  0.0853
62165W        W 5156   8.852  31.204  26.414 -0.3426  0.0943 -0.3883
62166W        W 5157  24.475  26.945  15.552 -0.3751  0.1450 -0.1318
62167W        W 5158   8.294  15.372  15.665 -0.2166 -0.0505  0.2187
62168W        W 5159  18.554  30.675  28.949  0.0347  0.1853 -0.0104
62169W        W 5160  22.888  17.146   0.367  0.2737  0.2469  0.0431
62170W        W 5161  11.015  12.653  23.909  0.0803  0.1196  0.0500
62171W        W 5162   6.973  19.681  19.293 -0.3532  0.2999 -0.0432
62172W        W 5163  34.341  18.868  17.598 -0.0285 -0.0758  0.3662
62173W        W 5164   5.990  22.515  17.441 -0.1385 -0.1139 -0.3400
62174W        W 5165  15.912   0.366  20.102  0.1163  0.1122 -0.0542
62175W        W 5166  23.416  19.713  16.619  0.0590 -0.0344  0.2361
62176W        W 5167   8.198  16.566  26.774  0.3570 -0.1160 -0.5205
62177W        W 5168  18.580  34.015  14.802 -0.0051 -0.4265  0.1286
62178W        W 5169  25.462  24.178  17.532  0.0736  0.2528  0.1570
62179W        W 5170   4.847  22.536   0.799 -0.0554  0.1260  0.0738
62180W        W 5171   6.872  29.643   2.067 -0.1901 -0.4514  0.1811
62181W        W 5172  16.935  30.189  18.283 -0.0552 -0.1365  0.0661
62182W        W 5173  15.086   4.355  20.888 -0.1504  0.1856  0.0892
62183W        W 5174   9.401  13.168   6.051  0.0876  0.0673 -0.0929
62184W        W 5175   8.085  29.337  21.863 -0.1363 -0.2163  0.3270
62185W        W 5176  21.220  13.015  21.011  0.2125  0.3138 -0.1764
62186W        W 5177  30.731  21.768  14.393 -0.0176  0.1087 -0.4554
62187W        W 5178  18.784  31.440  27.662  0.1562  0.2273  0.3029
62188W        W 5179  10.336   6.454  19.875 -0.3222  0.1901 -0.2289
62189W        W 5180  28.717  20.648  15.348  0.1464  0.0240 -0.1119
62190W        W 5181  12.148   1.881  28.386  0.0686  0.1413 -0.0544
62191W        W 5182   9.498  27.715  22.757  0.1186 -0.0405  0.0619
62192W        W 5183  25.106  32.291  20.867 -0.0581  0.1796 -0.2652
62193W        W 5184  13.040   5.461  20.731 -0.0995  0.3395 -0.0372
62194W        W 5185  15.844  30.705  16.766 -0.4015 -0.1856  0.1473
62195W        W 5186  18.958  26.033  16.642  0.2652  0.1121  0.0172
62196W        W 5187  13.317  11.661   5.138  0.1784  0.1357  0.1862
62197W        W 5188  20.667  28.331   7.667 -0.0612 -0.0321  0.3397
62198W        W 5189  18.367  17.878  18.753 -0.0640  0.0075  0.2193
62199W        W 5190  11.004  19.155  14.927 -0.0532  0.1342  0.1208
62200W        W 5191  12.334  11.856  28.659 -0.0026  0.2137 -0.0412
62201W        W 5192  14.078   1.937  25.303  0.0913 -0.2528  0.1012
62202W        W 5193   5.820  33.756   1.748  0.1429  0.0605 -0.0662
62203W        W 5194  24.390   0.229  27.549 -0.4314 -0.1051  0.1385
62204W        W 5195   9.231  22.580  26.683  0.3280  0.0189 -0.0539
62205W        W 5196  11.580  12.800   3.963  0.0414 -0.1514  0.1138
62206W        W 5197   0.655   1.057  16.517 -0.0546 -0.1346  0.0000
62207W        W 5198  33.814  34.643   1.359 -0.2373 -0.0519  0.1211
62208W        W 5199  21.089   6.832  13.793 -0.4794  0.1606 -0.1818
62209W        W 5200  18.330  26.616  14.973 -0.0798 -0.3555  0.4263
62210W        W 5201  32.668  20.397  29.262 -0.0318 -0.0642 -0.0030
62211W        W 5202  15.607  15.204  27.734 -0.0245  0.3752  0.2192
62212W        W 5203  21.182  26.708  14.946 -0.0845  0.0988  0.1480
62213W        W 5204  24.095   5.684  25.778 -0.0094 -0.1104 -0.0297
62214W        W 5205  12.348  20.560  20.250 -0.0298 -0.1190 -0.3336
62215W        W 5206  27.239  22.783  21.643  0.1347  0.1063 -0.0202
62216W        W 5207   4.729  17.791  21.618  0.2062  0.0895  0.0483
62217W        W 5208  12.935  20.423  18.499 -0.3690  0.1472  0.1781
62218W        W 5209   3.570  32.978   8.928  0.1768 -0.0698 -0.0047
62219W        W 5210  11.970  28.095  15.598 -0.2172  0.1590 -0.1941
62220W        W 5211   1.978  27.621  16.316 -0.2644  0.0538 -0.2377
62221W        W 5212  15.935  34.396   0.543  0.1148  0.0330  0.3340
62222W        W 5213  12.919  30.140  20.143  0.2431  0.0904  0.0609
62223W        W 5214  34.292  24.320  14.868 -0.0849 -0.1755  0.1154
62224W        W 5215   2.635  29.761   3.654 -0.2962 -0.1992  0.0854
62225W        W 5216  14.652   0.224  15.263 -0.1714 -0.2078 -0.1347
62226W        W 5217  17.004  22.150  18.543  0.1620 -0.3998 -0.1649
62227W        W 5218   5.072  21.536  20.022 -0.0760 -0.1389  0.0851
62228W        W 5219   0.068  22.063  14.999 -0.1476  0.0549 -0.1913
62229W        W 5220   8.080  29.694  22.225  0.0953 -0.1808  0.2902
62230W        W 5221   7.469  27.371  26.449  0.0082 -0.1057  0.1746
62231W        W 5222  11.426  15.004   7.061 -0.1559  0.0973  0.0141
62232W        W 5223  11.559  14.698  29.180 -0.3095  0.0066  0.1673
62233W        W 5224   7.863  23.768  18.928 -0.2423 -0.1456 -0.2533
62234W        W 5225   8.415  26.693  23.357 -0.0779 -0.0480 -0.0958
62235W        W 5226  30.911   0.344  29.020  0.1131  0.0143  0.2177
62236W        W 5227  16.823  26.618  14.187 -0.0561 -0.2239 -0.1246
62237W        W 5228  34.615   4.106  19.134 -0.2278  0.3565  0.0529
62238W        W 5229   1.402  15.237  26.584 -0.1912 -0.2265  0.0476
62239W        W 5230   0.721  16.491  18.864  0.0430 -0.3340  0.0220
62240W        W 5231   0.309  25.658  22.634 -0.1948 -0.1118  0.0713
62241W        W 5232  15.487   7.719  25.311 -0.0136 -0.1154  0.0818
62242W        W 5233  25.882   1.178  26.167  0.1837 -0.2226  0.1907
62243W        W 5234  19.862  14.289  16.648  0.1218 -0.1457  0.0939
62244W        W 5235   5.005  17.844  22.049  0.0659 -0.1024  0.0921
62245W        W 5236  22.881  23.202   7.029  0.1491 -0.1376  0.2629
62246W        W 5237  17.049  23.397  15.234  0.1285 -0.2658 -0.0125
62247W        W 5238   2.310  16.537  21.155 -0.2710  0.1362  0.2372
62248W        W 5239  17.597  24.834  22.720  0.3880  0.0922  0.2724
62249W        W 5240  12.785  33.341  23.278 -0.3439  0.0287  0.3645
62250W        W 5241  33.467  20.260  19.091 -0.3234  0.0556 -0.1107
62251W        W 5242  33.236  33.731  18.747 -0.1388  0.1368  0.0126
62252W        W 5243  14.671   1.924  18.285 -0.2450 -0.5538 -0.1055
62253W        W 5244  16.966  32.976  16.752 -0.3372  0.0335 -0.1622
62254W        W 5245  10.700  27.445  17.871  0.0970 -0.0061  0.0346
62255W        W 5246   9.662  34.228  22.022 -0.0911  0.1544  0.0936
62256W        W 5247   7.442  23.174  22.901 -0.0049  0.1276  0.0360
62257W        W 5248  26.468  26.397  14.509  0.0447 -0.4623 -0.1744
62258W        W 5249   0.307  33.707  13.716 -0.0167  0.0744 -0.2392
62259W        W 5250  20.753   9.350  28.173 -0.1438 -0.1090  0.1337
62260W        W 5251  18.009  28.559  20.910 -0.0864 -0.1508  0.1577
62261W        W 5252   6.486   2.383  21.367  0.2765  0.1781 -0.2211
62262W        W 5253   8.355   1.508   8.177 -0.1572 -0.0431  0.1912
62263W        W 5254  23.860  30.965  20.764 -0.0411  0.2414 -0.3254
62264W        W 5255   4.717  14.990  25.475  0.0472  0.0224  0.3585
62265W        W 5256  10.078  17.925  28.477  0.1407 -0.2358  0.2837
62266W        W 5257  17.347  21.360  22.753 -0.2455  0.0196 -0.2023
62267W        W 5258  10.136  31.396  24.949  0.1655 -0.1715 -0.1517
62268W        W 5259   5.979  28.804  26.506  0.0949  0.1935  0.0519
62269W        W 5260  21.099  27.620  19.449  0.3219  0.0420 -0.0045
62270W        W 5261  14.236   3.219  15.961  0.0353  0.2039 -0.1499
62271W        W 5262  26.356  18.710  24.215 -0.0682 -0.3239 -0.0498
62272W        W 5263  31.986  30.408  18.360  0.0555 -0.0038  0.1399
62273W        W 5264  18.175  34.470  23.702 -0.1699  0.3858  0.3624
62274W        W 5265  31.346  26.215  22.809 -0.0152  0.2011 -0.0608
62275W        W 5266   3.055  32.333  16.761  0.1802  0.1903 -0.1003
62276W        W 5267  18.160  28.041   8.773 -0.0304 -0.0512  0.1593
62277W        W 5268  24.879  33.628  24.087 -0.0977 -0.1759  0.2714
62278W        W 5269   4.036  30.390  16.719  0.1039 -0.2436  0.0761
62279W        W 5270  10.621  22.913   8.867 -0.2427 -0.1873 -0.0483
62280W        W 5271  11.940  21.871  16.582 -0.1304  0.0794  0.1320
62281W        W 5272  13.984  23.243  27.536  0.0306 -0.0219  0.1260
62282W        W 5273   8.567  21.292  22.577  0.3781 -0.0549 -0.2563
62283W        W 5274  13.290  29.134  15.931 -0.1828  0.3009 -0.0243
62284W        W 5275  13.654  28.814  20.191  0.1421  0.1345  0.1773
62285W        W 5276   7.712  15.766  21.481  0.0156  0.1676  0.1567
62286W        W 5277  15.807  26.460  22.361 -0.0066  0.1220 -0.3462
62287W        W 5278  11.602  25.811  23.293 -0.1808  0.3904 -0.1557
62288W        W 5279   2.758  13.425  20.332  0.0790  0.0957  0.0829
62289W        W 5280  18.379  12.439  17.115 -0.2111 -0.0572  0.5296
62290W        W 5281  14.466  29.338  25.321  0.1629  0.2151  0.0124
62291W        W 5282   5.368  12.806  23.895  0.0567 -0.0829 -0.0827
62292W        W 5283   4.991  30.321  14.937 -0.0382 -0.1336  0.1374
62293W        W 5284   1.635  25.924  22.129  0.2915  0.4180 -0.2333
62294W        W 5285  22.436  19.180  26.033  0.0813  0.0622 -0.0940
62295W        W 5286   9.161  20.207  15.428 -0.1036 -0.3161 -0.2586
62296W        W 5287  30.621  24.025  18.669 -0.2959  0.0399  0.0179
62297W        W 5288  12.633   7.001  15.718  0.0342  0.1581  0.2368
62298W        W 5289  19.249  25.710  19.233  0.0796  0.0524 -0.0745
62299W        W 5290  26.716  26.769  26.529  0.0912  0.1562 -0.0644
62300W        W 5291  34.447  26.091  24.000 -0.2284  0.1627  0.0803
62301W        W 5292  30.630  16.561  20.477 -0.1759 -0.0045  0.2975
62302W        W 5293   9.614  17.825  21.727 -0.0177 -0.2078  0.0554
62303W        W 5294  28.890  30.799  20.899 -0.1900  0.2579  0.1700
62304W        W 5295   7.910  21.955  25.820  0.2680 -0.0549  0.1616
62305W        W 5296  34.659  13.654  16.661 -0.1034 -0.1844  0.0389
62306W        W 5297  19.363   5.475  26.340 -0.3861 -0.1046 -0.1017
62307W        W 5298   6.870  19.837  24.660  0.3401 -0.2666 -0.1610
62308W        W 5299  19.779  30.893  18.927  0.2850 -0.0566  0.2207
62309W        W 5300  18.980  20.552   4.901 -0.1710 -0.1296 -0.2475
62310W        W 5301  25.141  22.134  17.766  0.0615  0.1176  0.2477
62311W        W 5302   2.462   1.896   9.324  0.2339  0.0925 -0.2357
62312W        W 5303   2.706  26.349  23.094 -0.2087  0.0886 -0.1110
62313W        W 5304  25.315  28.530  15.585 -0.1947 -0.1655 -0.1559
62314W        W 5305  11.748  13.120  24.066  0.0595  0.0401 -0.0221
62315W        W 5306  18.397  30.205  17.247 -0.0737 -0.0573 -0.1166
62316W        W 5307  20.600  24.368  25.479  0.4937  0.0600  0.0469
62317W        W 5308  18.350  34.203  21.008 -0.1927 -0.0803 -0.0637
62318W        W 5309  34.709  18.838  26.793 -0.1039  0.2535 -0.0358
62319W        W 5310  13.415  13.152  16.245  0.2381  0.1738  0.1908
62320W        W 5311  20.363  31.103   4.558  0.0540  0.0014  0.0372
62321W        W 5312  10.923  23.022  22.482 -0.3031 -0.1377  0.1055
62322W        W 5313  10.354  25.518  19.668 -0.3204  0.1856 -0.2439
62323W        W 5314  14.040  28.240  20.082 -0.1233  0.2640  0.0394
62324W        W 5315   9.343  14.841  19.969  0.0248  0.2284  0.2745
62325W        W 5316   9.844  24.233  24.885  0.1247  0.0432  0.1703
62326W        W 5317  28.815  21.969  15.593 -0.3863 -0.3065  0.0757
62327W        W 5318   4.494   1.910  15.843 -0.3630  0.0691 -0.0691
62328W        W 5319  17.123  13.961  14.095  0.1787 -0.0505 -0.1201
62329W        W 5320  13.349  18.492  28.322  0.0655 -0.1855  0.4304
62330W        W 5321  33.000   7.128  19.350 -0.2054 -0.2129  0.0428
62331W        W 5322   5.563  30.208  16.629 -0.0841  0.0616  0.0919
62332W        W 5323  12.717  21.482  28.433  0.1002 -0.4045 -0.1757
62333W        W 5324  11.632  25.761  15.019  0.0403 -0.1165 -0.1212
62334W        W 5325  13.976   2.488  16.734  0.2410  0.2769  0.0242
62335W        W 5326  23.097   0.499  23.565  0.0154 -0.0226  0.0964
62336W        W 5327  10.545  16.214  28.999  0.0410 -0.0481  0.4011
62337W        W 5328   6.232  32.146  22.664 -0.0764  0.0052 -0.0616
62338W        W 5329  13.832  25.697  25.440 -0.1725 -0.2517 -0.2891
62339W        W 5330  11.006  11.348  18.621 -0.5035  0.2289 -0.1700
62340W        W 5331  15.448  18.635  13.431  0.0482 -0.1587  0.3575
62341W        W 5332  11.399  25.335  15.007 -0.0123  0.0418 -0.1217
62342W        W 5333  26.748  26.766  18.354  0.0304 -0.0040  0.2051
62343W        W 5334  22.438  20.309  23.484 -0.1520 -0.1372 -0.0569
62344W        W 5335   0.735  23.281  18.805  0.0657  0.0611 -0.1304
62345W        W 5336  22.663  22.287  26.975  0.0549  0.1010 -0.1923
62346W        W 5337  17.624  26.292  16.210 -0.3546 -0.0620  0.1785
62347W        W 5338  10.262  18.534  17.184 -0.1712  0.1569 -0.1733
62348W        W 5339   3.770  19.775   0.511  0.1124  0.1585 -0.1192
62349W        W 5340   3.559   1.923  16.112 -0.1385  0.2854 -0.1486
62350W        W 5341  15.595  21.422  15.601 -0.0825 -0.1400  0.0725
62351W        W 5342  17.041  32.295   2.217  0.1261  0.3976  0.1377
62352W        W 5343  10.239  27.749  14.418  0.0913  0.0218 -0.0177
62353W        W 5344  16.000   5.069   3.839  0.2484 -0.1082  0.2197
62354W        W 5345   2.624   4.535   4.751  0.1447  0.2109 -0.3914
62355W        W 5346  20.646  32.196  14.348  0.1141  0.3118 -0.3622
62356W        W 5347  12.943  19.821   0.889 -0.0000  0.1644  0.1373
62357W        W 5348   4.069  30.757  16.270  0.1553  0.1300  0.0029
62358W        W 5349   2.847  26.599   1.794  0.0458  0.0853 -0.1178
62359W        W 5350  12.016  21.399  13.844  0.2475 -0.1639 -0.1945
62360W        W 5351  13.351  20.081  20.120 -0.3208  0.2668  0.0049
62361W        W 5352  20.673  27.473  22.408  0.3684  0.1156  0.1643
62362W        W 5353  20.477  21.679  17.580 -0.1742 -0.0001 -0.1018
62363W        W 5354  26.081   7.605  16.481  0.2878  0.1107  0.0058
62364W        W 5355  17.582  19.568   2.933 -0.0619  0.0267  0.0901
62365W        W 5356   6.649  33.219   6.228 -0.0500 -0.2629 -0.1918
62366W        W 5357  21.711   6.445  16.187  0.1522 -0.0163  0.5747
62367W        W 5358  21.098  19.406  28.727 -0.2568 -0.1080  0.3373
62368W        W 5359   3.054  31.102   3.501 -0.2457  0.2261 -0.1171
62369W        W 5360  31.759  34.439  26.279  0.3144 -0.0784  0.3172
62370W        W 5361   7.291  17.499  28.937 -0.0141 -0.2807 -0.0654
62371W        W 5362  11.585  31.573  24.136  0.1464 -0.0724 -0.1965
62372W        W 5363  34.709  31.860  24.967  0.0624  0.0006  0.2213
62373W        W 5364   8.739  27.428  22.730 -0.0940  0.0678 -0.0978
62374W        W 5365   3.140   8.208  25.547  0.2006 -0.1363  0.0536
62375W        W 5366   3.304  34.153  28.484  0.0415  0.1593  0.0384
62376W        W 5367   8.811  12.790   7.626 -0.1713  0.0735  0.3342
62377W        W 5368  19.402  29.530   4.834 -0.0985  0.0466  0.0580
62378W        W 5369  14.567  33.014  10.028 -0.0967 -0.1638  0.1656
62379W        W 5370  20.462  24.150   5.185 -0.0924  0.1976  0.0409
62380W        W 5371  17.120  29.219   6.520 -0.0337  0.2043 -0.1184
62381W        W 5372  22.230   2.801   2.761  0.3020  0.2056  0.1178
62382W        W 5373   7.691  32.661  28.871  0.2184 -0.1011 -0.1251
62383W        W 5374  12.281   7.192  17.583  0.1908  0.0910 -0.3893
62384W        W 5375  10.916  18.354  13.126  0.1052 -0.1340 -0.2656
62385W        W 5376   7.902  25.136  18.085  0.3375  0.1672 -0.0937
62386W        W 5377  19.735  28.690   3.201 -0.2520  0.0412  0.0880
62387W        W 5378  13.465  21.677  17.418  0.0515  0.2003 -0.0059
62388W        W 5379  16.383  32.161   9.084  0.0622  0.3489 -0.0570
62389W        W 5380   5.740  15.185  18.900  0.0323 -0.1135  0.2112
62390W        W 5381   3.727  28.628   5.957  0.4454 -0.1620 -0.3555
62391W        W 5382  14.065  34.213   9.306  0.0578  0.0711 -0.1003
62392W        W 5383   4.232   0.509  22.696 -0.0167 -0.0856 -0.0211
62393W        W 5384   4.539  21.764  15.446 -0.0201 -0.1943 -0.1165
62394W        W 5385  20.697  28.555  22.586 -0.2082  0.0880 -0.1057
62395W        W 5386  17.926  24.506  26.963  0.1692  0.1462  0.1263
62396W        W 5387   2.226  23.127   5.227 -0.0553 -0.1718 -0.1466
62397W        W 5388   8.476  21.158  19.248  0.2116  0.0126  0.4212
62398W        W 5389  15.709   4.867   3.327  0.0926  0.2362 -0.0515
62399W        W 5390  25.743  25.181  22.937  0.0393  0.1224 -0.2490
62400W        W 5391  14.237  24.775  13.637 -0.1007 -0.0389 -0.0040
62401W        W 5392  17.519  13.291  19.117  0.0676  0.5015  0.2040
62402W        W 5393  19.290  21.054  24.677  0.0769 -0.0694  0.3927
62403W        W 5394   7.444   3.513   3.539  0.0909  0.0005  0.3118
62404W        W 5395  26.988  22.520   0.734 -0.0177  0.1976 -0.3739
62405W        W 5396   5.583  27.157  25.416 -0.4194 -0.1835 -0.2457
62406W        W 5397  30.916   0.590   2.879  0.0494 -0.0684  0.1436
62407W        W 5398   6.340  21.142   0.003 -0.0809  0.0740  0.1389
62408W        W 5399  15.433  33.199  17.874 -0.1159  0.0079  0.0174
62409W        W 5400  14.430  18.702  25.861  0.0922  0.1198  0.4519
62410W        W 5401   0.681  17.086  18.089 -0.1786 -0.0684 -0.1942
62411W        W 5402  15.436  22.652  15.462  0.1863  0.0428  0.1208
62412W        W 5403  24.341  19.050  14.954 -0.2378  0.2189  0.0874
62413W        W 5404  21.292  32.796  12.788 -0.0512 -0.1629 -0.0363
62414W        W 5405   5.887  12.368  24.131  0.0400 -0.0377  0.2840
62415W        W 5406  31.662  27.693  22.642  0.0776  0.2597 -0.0448
62416W        W 5407  29.454  21.066  13.914 -0.0733 -0.4439  0.1441
62417W        W 5408   6.069  17.354  22.528  0.1503  0.1030  0.2142
62418W        W 5409   5.966  34.693   8.041 -0.1721 -0.1543  0.2095
62419W        W 5410   1.714  22.975  21.922  0.1644 -0.2669  0.0401
62420W        W 5411   9.946  26.428  17.747 -0.0944  0.1956 -0.0158
62421W        W 5412   4.484  21.335  26.559 -0.1505 -0.0802 -0.1834
62422W        W 5413  18.126  23.750  21.387  0.4711 -0.0397 -0.0085
62423W        W 5414  23.955  32.908  20.480  0.1148  0.1181  0.2766
62424W        W 5415  29.268   2.306  15.934  0.0069  0.3208  0.1444
62425W        W 5416   4.915  11.793   9.898  0.0269 -0.2457 -0.1950
62426W        W 5417   8.844  28.619   1.202  0.1726 -0.0248 -0.0202
62427W        W 5418  17.444  20.031   1.214  0.1022  0.0069  0.2575
62428W        W 5419  24.402  11.168  26.186 -0.2497  0.3592 -0.2367
62429W        W 5420  21.558  22.085  23.094 -0.1608 -0.1458 -0.0515
62430W        W 5421   5.462  23.686  26.335  0.0535  0.1905  0.0693
62431W        W 5422  12.974  18.633   2.284  0.0619 -0.0717  0.1007
62432W        W 5423  13.517  26.221   4.803  0.2956 -0.0397  0.0080
62433W        W 5424  17.349  34.666  16.420 -0.4440 -0.0501  0.0225
62434W        W 5425  26.374  30.861   3.743 -0.1060  0.0678  0.0148
62435W        W 5426  30.226  28.626   0.603  0.2291 -0.1150 -0.4237
62436W        W 5427  32.191  29.227  23.463  0.1862  0.0055 -0.0344
62437W        W 5428  16.841  34.426  27.743 -0.0593  0.1124  0.1939
62438W        W 5429  20.324   8.099  25.118  0.2113  0.3505  0.1308
62439W        W 5430   5.891  23.310  26.323  0.0961  0.0108  0.2255
62440W        W 5431   7.274  28.608  23.376  0.1585  0.2493  0.2557
62441W        W 5432   7.465  11.273   2.973  0.1612  0.2099 -0.0375
62442W        W 5433  15.541  25.301  15.996 -0.2855 -0.3383 -0.0912
62443W        W 5434   3.622  13.196   5.446  0.2979  0.0539  0.0804
62444W        W 5435  22.365  32.613   0.147  0.1867  0.0943  0.2817
62445W        W 5436   8.319  25.430  25.944  0.1911  0.0790 -0.1138
62446W        W 5437  13.255  30.010  17.777 -0.0318  0.0218  0.0919
62447W        W 5438  25.805   1.714  15.998  0.0552 -0.1612 -0.1070
62448W        W 5439  24.146  19.302  26.197  0.1127 -0.0441 -0.4114
62449W        W 5440   1.349   6.908  16.599 -0.3365  0.4827  0.1697
62450W        W 5441   1.315  21.201  22.407  0.0248  0.2139  0.2165
62451W        W 5442  29.715  23.572  20.542 -0.0075  0.0514 -0.1432
62452W        W 5443  15.613  13.481   0.163 -0.3347  0.3649  0.1626
62453W        W 5444  23.149  23.128  25.429  0.2458 -0.4666 -0.5130
62454W        W 5445  19.829  27.971  14.419  0.1868  0.2608 -0.1286
62455W        W 5446  11.359   0.177  14.787  0.0772 -0.2611 -0.4391
62456W        W 5447   4.705  27.471  18.580 -0.4199  0.0404 -0.0326
62457W        W 5448  17.936  27.708   6.076 -0.3801 -0.3797 -0.0311
62458W        W 5449  26.978  25.306  16.638  0.2808 -0.0027 -0.1532
62459W        W 5450  14.636  22.520  17.244  0.1704 -0.0604  0.0943
62460W        W 5451  15.557   1.772   6.776  0.0964 -0.0828 -0.1576
62461W        W 5452   5.633   1.391  23.092 -0.2160  0.2196  0.0910
62462W        W 5453  18.430  24.672   7.354 -0.0338 -0.2972  0.0664
62463W        W 5454  34.792  11.412  21.393 -0.3381 -0.0236 -0.0018
62464W        W 5455   4.517   7.254  18.627  0.1759  0.0282  0.4684
62465W        W 5456  21.366  15.435   4.576  0.0123  0.4518  0.3645
62466W        W 5457  18.072  17.632  25.162  0.0947 -0.0908  0.0726
62467W        W 5458  30.425  19.158   1.965 -0.2466 -0.3067 -0.1167
62468W        W 5459  24.458   0.154  17.333  0.0465 -0.2479  0.2422
62469W        W 5460  22.014  27.550  19.823  0.1232 -0.1058  0.1888
62470W        W 5461  34.355   0.789  19.580 -0.0374 -0.1466  0.2240
62471W        W 5462   1.469  18.064   2.205  0.0014 -0.3156 -0.1196
62472W        W 5463  34.703  29.552   3.069 -0.2857 -0.0118  0.0400
62473W        W 5464  25.598  17.105  29.165  0.1982 -0.2598  0.1081
62474W        W 5465  19.560  30.254  15.218 -0.3481 -0.3065  0.1559
62475W        W 5466  12.654  20.261  18.072  0.2750  0.0075 -0.0264
62476W        W 5467   2.149  30.047  19.999 -0.0077  0.0876  0.1620
62477W        W 5468  11.880   8.134  24.470 -0.1176 -0.3703  0.1179
62478W        W 5469   2.605  32.986  22.996 -0.0329  0.2790 -0.0087
62479W        W 5470  29.731  32.380  13.132 -0.0234 -0.0901 -0.3624
62480W        W 5471  19.189  20.637  16.992 -0.2785 -0.0680 -0.0850
62481W        W 5472  19.390  29.645  26.309  0.1688  0.0974 -0.0530
62482W        W 5473  11.800  24.099  15.157  0.0436  0.1192  0.1360
62483W        W 5474   6.378  26.619   3.865 -0.0845  0.1389 -0.0691
62484W        W 5475  31.452  27.988   0.944 -0.1737 -0.5316  0.0418
62485W        W 5476   0.258  28.351  27.407 -0.1294  0.1818 -0.2257
62486W        W 5477   6.634  16.751  20.516  0.1065  0.1481  0.0680
62487W        W 5478  14.288  11.047  23.518 -0.1235  0.1514  0.1728
62488W        W 5479   9.532  27.075   5.736  0.3376  0.0112  0.0596
62489W        W 5480  33.294  20.710   5.852  0.1688 -0.1119  0.0024
62490W        W 5481  29.620  25.694  27.930  0.1803  0.0645 -0.0444
62491W        W 5482  31.292  32.368  23.188 -0.2702  0.1135  0.0501
62492W        W 5483   6.758  24.831  16.147  0.0954 -0.1705 -0.0834
62493W        W 5484   0.372  17.851   0.132 -0.2115  0.1155  0.0190
62494W        W 5485  16.557   1.802  23.415  0.1142 -0.0497 -0.1195
62495W        W 5486  29.499  34.702  20.932  0.3112 -0.0034  0.0277
62496W        W 5487  12.654  27.662  25.725 -0.1812 -0.0750  0.0245
62497W        W 5488   0.584  12.402  22.835  0.3310 -0.1995 -0.3872
62498W        W 5489   6.766  16.653   8.418  0.0012  0.3989  0.1158
62499W        W 5490   6.651  26.075  21.151 -0.1357  0.2061 -0.1659
62500W        W 5491  31.476  25.495   1.060  0.2755 -0.1113 -0.2353
62501W        W 5492   8.534  25.345  20.058 -0.1344  0.3255 -0.3939
62502W        W 5493   1.928  20.088  19.093 -0.2441  0.0704 -0.1389
62503W        W 5494  14.661  21.424  15.307 -0.2146  0.3691 -0.0277
62504W        W 5495  17.608  24.675  13.450 -0.4011 -0.0753  0.1025
62505W        W 5496  34.208  18.643  16.999  0.1627  0.1943 -0.1795
62506W        W 5497  21.207  13.781   2.353 -0.2060 -0.0391 -0.0500
62507W        W 5498   5.031  16.372  15.928  0.1286  0.0678  0.1796
62508W        W 5499  19.598  13.902  17.694 -0.1825 -0.2495  0.0132
62509W        W 5500  10.660  14.143  18.853  0.1428  0.3611 -0.1483
62510W        W 5501  11.457   3.394  23.376  0.1331 -0.2509 -0.0898
62511W        W 5502  14.474  28.325  15.016 -0.2282  0.0341  0.1065
62512W        W 5503   0.329  33.411  28.123  0.1981 -0.1226  0.1033
62513W        W 5504  15.829   2.066   4.682  0.0877 -0.1683 -0.0221
62514W        W 5505   5.353  28.862  27.061  0.2419  0.0356 -0.2196
62515W        W 5506  14.508  26.971  16.450  0.0651 -0.4053  0.1120
62516W        W 5507  26.972   9.123   0.874 -0.1197 -0.0990  0.3318
62517W        W 5508  14.434  19.966  21.164 -0.0423 -0.0711  0.0351
62518W        W 5509  11.193  23.417   4.006 -0.1823  0.0899 -0.0656
62519W        W 5510  33.272  15.251   2.333  0.0717  0.5092 -0.2549
62520W        W 5511  18.587  21.916  26.137 -0.0790 -0.2025  0.0564
62521W        W 5512  20.607  14.558  19.743 -0.1851  0.2315 -0.2019
62522W        W 5513  21.015  15.552  25.811 -0.2664  0.1385  0.1878
62523W        W 5514  12.926  18.708   1.116  0.0719  0.3105  0.2967
62524W        W 5515   4.670  20.618  18.077  0.0813 -0.2434 -0.1929
62525W        W 5516   9.303  27.129  19.999 -0.2317  0.5571  0.5276
62526W        W 5517  16.296   3.959  16.244 -0.5703 -0.0602 -0.0254
62527W        W 5518  18.282  27.638  14.689  0.0126 -0.0963 -0.2570
62528W        W 5519   9.115  24.443  15.948 -0.0753 -0.5506  0.0562
62529W        W 5520  17.120  16.718  15.319 -0.1080  0.0024 -0.0229
62530W        W 5521  16.171  22.776   3.266  0.0577  0.2493  0.1710
62531W        W 5522   9.091  20.879  19.803 -0.1464  0.1883 -0.0164
62532W        W 5523   8.230  29.378  29.021  0.2044  0.3188 -0.1943
62533W        W 5524  12.761   7.213   0.963  0.1466 -0.0795  0.2308
62534W        W 5525  13.529  28.240   5.670 -0.1954 -0.1212 -0.0730
62535W        W 5526  15.650   1.436  16.925  0.2476 -0.0141  0.1016
62536W        W 5527  12.488  11.447  16.970 -0.2365  0.5484  0.3171
62537W        W 5528   4.767  24.535  14.761 -0.0468  0.0191 -0.2143
62538W        W 5529  11.291  29.828  29.245  0.0103  0.1487 -0.3356
62539W        W 5530   8.841  20.340  19.531 -0.3085 -0.1600 -0.1256
62540W        W 5531  33.180  29.278   6.633  0.1006  0.2227  0.2388
62541W        W 5532  12.155   2.225  15.472 -0.4308 -0.0438  0.1969
62542W        W 5533  20.066  21.385  29.197  0.5292  0.2012 -0.2223
62543W        W 5534  10.108  33.560  22.200  0.1055  0.1112 -0.0323
62544W        W 5535   8.911   3.490   4.142 -0.1198  0.0097 -0.0998
62545W        W 5536  16.056  23.496  27.828 -0.3170  0.1664 -0.1178
62546W        W 5537  19.042  28.716   8.669 -0.0736 -0.0164  0.0904
62547W        W 5538   3.996  27.819  14.845  0.0396 -0.1311  0.1220
62548W        W 5539  14.675   1.181  22.587 -0.1798 -0.1490 -0.1088
62549W        W 5540  21.673  34.325   4.233 -0.0501 -0.0938 -0.3375
62550W        W 5541   9.774  31.772  17.130 -0.1449  0.0214 -0.3007
62551W        W 5542   4.387  17.988  25.021 -0.1523 -0.0715 -0.2541
62552W        W 5543  12.477  29.194  17.086 -0.1661  0.3114 -0.1445
62553W        W 5544  22.556  32.409  21.964  0.0422  0.2494 -0.2745
62554W        W 5545   3.226  29.842  24.529 -0.0727  0.0658 -0.2459
62555W        W 5546   7.759  18.777  24.372  0.0332  0.2838  0.0374
62556W        W 5547   3.265  24.039   8.334 -0.0898  0.0789  0.1746
62557W        W 5548  19.802  23.302  13.352  0.0582  0.2131 -0.3937
62558W        W 5549   8.711  34.157  20.087  0.0661 -0.4139  0.3691
62559W        W 5550   6.606  18.220  19.965 -0.1705 -0.1904  0.0457
62560W        W 5551  30.840  24.294  23.162 -0.1282  0.4453 -0.2216
62561W        W 5552  14.475  34.713  24.483 -0.1106 -0.1211  0.1655
62562W        W 5553   5.726  12.557  21.854 -0.1297  0.0012  0.1103
62563W        W 5554   5.699   3.143   5.211  0.4195 -0.1561  0.3268
62564W        W 5555   7.965  33.935  20.153  0.1817  0.2242 -0.0027
62565W        W 5556  27.751  21.202   9.352  0.2079 -0.1260  0.1914
62566W        W 5557  20.170   1.128   4.440 -0.1061  0.1152  0.2022
62567W        W 5558  18.163  23.483  25.669 -0.2014 -0.0786 -0.1817
62568W        W 5559  10.851  19.592   1.666  0.0888 -0.0528 -0.0192
62569W        W 5560  22.360  19.109  26.515 -0.2126 -0.1802  0.1581
62570W        W 5561  12.436  17.784  27.764  0.2828 -0.1549 -0.0268
62571W        W 5562  11.803  29.217  17.369 -0.1736  0.2070 -0.2463
62572W        W 5563  32.987  23.042  18.820  0.0080  0.0533  0.2366
62573W        W 5564  15.048  25.533  22.727  0.1058  0.0639  0.1830
62574W        W 5565  19.601  30.789  19.656  0.0186  0.3771  0.1081
62575W        W 5566  15.841  27.470  23.289  0.1099  0.1295 -0.3240
62576W        W 5567   0.790   0.798   8.255  0.2171 -0.1895  0.0128
62577W        W 5568  11.347  25.530   5.910 -0.3000  0.1299  0.1107
62578W        W 5569   8.869  17.466  22.982 -0.3230 -0.2100  0.0702
62579W        W 5570  28.801  28.495  13.967 -0.0956  0.4286 -0.0173
62580W        W 5571  18.703  24.165  27.236 -0.1512  0.4164  0.0359
62581W        W 5572  20.458   3.668  21.704 -0.2592 -0.0465 -0.3010
62582W        W 5573  29.900  27.234  27.977  0.0264 -0.2021  0.0903
62583W        W 5574  11.747  23.404   3.671  0.2109  0.0613  0.0999
62584W        W 5575  11.368  19.895   3.466 -0.0908 -0.0715  0.1473
62585W        W 5576  28.879  24.997  18.991 -0.2374 -0.0881  0.0037
62586W        W 5577   3.790   3.083  26.852 -0.0026 -0.1289 -0.1347
62587W        W 5578  12.228  28.693   6.405  0.0973 -0.0066 -0.1521
62588W        W 5579  11.898   2.822  24.053  0.3825  0.0654 -0.4197
62589W        W 5580  11.553  25.532  27.804 -0.0019  0.0064 -0.0449
62590W        W 5581  10.697  23.235  24.953  0.4187  0.2092  0.3100
62591W        W 5582  18.264  23.781  15.439  0.1014  0.0117  0.3080
62592W        W 5583  12.872  10.008  27.792  0.2619  0.0647  0.1337
62593W        W 5584  14.213  23.554   3.460  0.0841  0.0058 -0.0460
62594W        W 5585  12.548  33.684  18.182  0.0850  0.2215  0.0629
62595W        W 5586  29.955  27.680  20.510  0.0053  0.0750  0.0302
62596W        W 5587  12.106  34.086   8.084  0.1109 -0.3569  0.0283
62597W        W 5588  14.538  19.564   2.056 -0.0943 -0.0092  0.3222
62598W        W 5589  27.647  21.419  23.689 -0.0426 -0.2728 -0.1680
62599W        W 5590  12.167  26.662   3.670  0.0184 -0.1352 -0.0307
62600W        W 5591  12.788  17.725  15.583  0.0089 -0.2873 -0.2117
62601W        W 5592   7.567   5.322  15.560 -0.2783  0.1441  0.0570
62602W        W 5593  10.078   8.729  26.823  0.1229 -0.0676  0.0238
62603W        W 5594  33.669  17.328  25.256 -0.0338  0.2553  0.1151
62604W        W 5595   3.169   4.976  22.124 -0.3315  0.0301  0.0539
62605W        W 5596  10.167  19.155   2.975 -0.2282  0.1333 -0.0556
62606W        W 5597  15.508  22.568  17.292 -0.1440 -0.1491 -0.0579
62607W        W 5598  33.823  23.956  27.826 -0.0874  0.0637 -0.1095
62608W        W 5599   5.187  17.507   1.635 -0.1441  0.3388  0.1029
62609W        W 5600  27.189   1.125  21.873  0.1859 -0.0484 -0.0847
62610W        W 5601  24.543  22.052  28.424  0.1472 -0.2745  0.5101
62611W        W 5602  33.671  29.987   3.595 -0.4918  0.0561 -0.0926
62612W        W 5603  12.352  30.055  21.206  0.0821 -0.0995  0.4474
62613W        W 5604  12.133   9.062  15.621  0.3856  0.1477 -0.0786
62614W        W 5605  24.095  11.570  19.653 -0.0416  0.1473 -0.0388
62615W        W 5606  16.125  22.374  24.778  0.4740  0.0353 -0.0205
62616W        W 5607   1.234  34.592  16.114 -0.4903  0.0997  0.4205
62617W        W 5608  12.814  20.546  17.426  0.0347  0.0905 -0.2533
62618W        W 5609  24.148  20.190  25.015  0.1116 -0.2070  0.1745
62619W        W 5610  14.095  22.556   6.810  0.1694 -0.0725  0.0279
62620W        W 5611   4.846  33.135  14.445  0.1059 -0.1513  0.1099
62621W        W 5612  32.467  27.176  26.176 -0.0712 -0.0214  0.0706
62622W        W 5613  20.857  33.049  21.902  0.0217  0.0020 -0.2039
62623W        W 5614   4.437  23.933   8.632 -0.1102  0.1146 -0.1279
62624W        W 5615   7.327  32.265  20.097 -0.3400  0.0139  0.4295
62625W        W 5616  22.457  23.016  24.378  0.0820  0.0101  0.2964
62626W        W 5617   7.835  25.768   5.876  0.1306  0.0597  0.1714
62627W        W 5618  19.620  11.748  27.587  0.1893  0.3301 -0.1425
62628W        W 5619   9.145   5.525  28.201  0.0220  0.3666  0.2423
62629W        W 5620  12.691  14.171  29.210  0.0179 -0.2468  0.0503
62630W        W 5621  14.011  30.315  10.224 -0.0330 -0.0621  0.0541
62631W        W 5622  10.889  13.939  16.373 -0.1031  0.1954  0.3345
62632W        W 5623  20.446  27.983  26.223  0.1473 -0.1236 -0.3748
62633W        W 5624   7.838  12.952   0.157  0.0148  0.0746  0.3576
62634W        W 5625   6.540   9.409   3.006  0.0737  0.1770  0.0178
62635W        W 5626   7.589  18.664  25.988  0.1601 -0.1739  0.2052
62636W        W 5627  24.593  29.962  20.897  0.4589 -0.1061  0.1460
62637W        W 5628  28.237  31.111  13.921 -0.2411  0.0347 -0.1336
62638W        W 5629  10.851  29.556  18.547 -0.0315 -0.0370 -0.0706
62639W        W 5630   9.831  20.774  21.173 -0.2418  0.4498 -0.0839
62640W        W 5631   8.788  20.583  15.365  0.0637 -0.1292 -0.0719
62641W        W 5632  29.100   6.634  22.027  0.2067  0.3627 -0.0611
62642W        W 5633  17.564  26.720   0.087  0.1030  0.2058 -0.1491
62643W        W 5634  19.705  26.357  27.824  0.0063 -0.3330  0.1750
62644W        W 5635   1.940  13.605   8.267 -0.1795  0.3625 -0.1015
62645W        W 5636  19.943  26.130  27.342 -0.0860  0.0441  0.0332
62646W        W 5637  16.295   4.423  26.819 -0.1553  0.0296  0.3020
62647W        W 5638  14.530   0.625  18.486  0.0318  0.2344 -0.2394
62648W        W 5639  27.702  24.182   5.404 -0.3029 -0.1166 -0.2850
62649W        W 5640  28.844  10.193   6.148  0.0774  0.0254  0.1179
62650W        W 5641  25.741  27.804  18.548 -0.0982  0.1192  0.1547
62651W        W 5642  26.795  28.622  23.287 -0.0180  0.1385  0.2091
62652W        W 5643  21.622  27.737  20.267  0.1296 -0.1179 -0.5679
62653W        W 5644  26.607  28.959  24.802  0.0481  0.0241  0.0699
62654W        W 5645   7.178  32.165  22.279 -0.0385  0.0170  0.1256
62655W        W 5646  19.389  27.957  27.108  0.1416 -0.0604  0.1047
62656W        W 5647  31.595   3.759   2.273 -0.1476  0.0213  0.1153
62657W        W 5648  32.968  24.333  14.602  0.2419 -0.3421  0.3379
62658W        W 5649  12.887  29.643  20.399  0.0515  0.3921  0.3351
62659W        W 5650  26.777  23.437  19.682 -0.0604  0.3608 -0.2715
62660W        W 5651  16.189  24.542  22.000 -0.1765  0.0345  0.0020
62661W        W 5652   0.124  31.543  22.442 -0.3253  0.2418 -0.3260
62662W        W 5653   1.906  32.869   0.660 -0.1518  0.2873 -0.1133
62663W        W 5654   0.595  27.651   7.845  0.1573 -0.0312  0.1775
62664W        W 5655  29.907  27.247  16.584  0.1296 -0.0882 -0.1860
62665W        W 5656  27.096   2.299   2.402  0.0672 -0.2973 -0.1899
62666W        W 5657   6.795  22.322  18.080 -0.0791  0.2397  0.0560
62667W        W 5658  17.466  30.035   1.939 -0.0937  0.0012 -0.0178
62668W        W 5659   7.675  34.626   3.284 -0.0782 -0.1568 -0.1787
62669W        W 5660   3.169  24.116   6.857  0.2195  0.0614  0.1441
62670W        W 5661  31.101   7.349  25.165 -0.1830  0.1101 -0.3252
62671W        W 5662  32.138  25.308  25.690 -0.1067 -0.1120  0.0466
62672W        W 5663  15.780  12.853  15.896  0.1522  0.1104 -0.0406
62673W        W 5664  14.707  27.655  21.975  0.2493  0.2462 -0.0460
62674W        W 5665  10.515  13.368  21.258  0.0241  0.3266 -0.3277
62675W        W 5666  30.749  25.435   8.684 -0.0587  0.5058 -0.1775
62676W        W 5667   0.114  32.435  22.746  0.1572  0.0655  0.2617
62677W        W 5668  24.737  26.090  18.727  0.1991 -0.0402 -0.0660
62678W        W 5669  22.095  12.475  20.228 -0.2975  0.0797  0.1808
62679W        W 5670   9.057  21.791  18.973  0.4646  0.3941 -0.0228
62680W        W 5671  12.143  17.101  18.267 -0.2736 -0.4291  0.1122
62681W        W 5672  19.168  28.591  15.385 -0.1859 -0.0075 -0.1558
62682W        W 5673   5.700  24.471  15.353 -0.2168  0.0276  0.2745
62683W        W 5674  21.157   3.316  26.468 -0.3124  0.1681 -0.2295
62684W        W 5675   8.383  17.277  14.294  0.1106 -0.0930 -0.0492
62685W        W 5676  29.466  28.573   2.030  0.2349  0.0765 -0.0371
62686W        W 5677   3.486  18.303   9.447 -0.0676 -0.3246  0.1554
62687W        W 5678   1.998  19.870  18.673  0.0650 -0.0271 -0.0579
62688W        W 5679   6.610  27.146   5.381  0.1782 -0.0494 -0.1578
62689W        W 5680  17.103  24.482  17.318 -0.0022 -0.1225  0.0922
62690W        W 5681   5.332  25.515   1.664  0.1027 -0.3623 -0.4336
62691W        W 5682  10.718   7.819  18.952  0.1017  0.3713 -0.3277
62692W        W 5683   1.629  16.006  20.059 -0.4137 -0.0723  0.0866
62693W        W 5684   6.025  25.093  18.881 -0.2881 -0.0192  0.0219
62694W        W 5685  22.189  25.160  27.231 -0.3222 -0.0844  0.1462
62695W        W 5686   8.829  15.861  21.723  0.1964 -0.1980  0.1788
62696W        W 5687  12.943  19.752  13.213  0.0966  0.3088 -0.2426
62697W        W 5688  15.949  26.117  14.747  0.2198 -0.0875  0.3876
62698W        W 5689   7.466  32.816   1.795 -0.1630 -0.3404 -0.2400
62699W        W 5690   6.169   8.804  19.550  0.2238  0.0577  0.0986
62700W        W 5691  32.782   9.033  26.209  0.0423 -0.0290  0.1492
62701W        W 5692   6.667  33.220   3.968 -0.2037  0.1902 -0.3494
62702W        W 5693  23.166   5.941   6.204  0.0095  0.2261 -0.1196
62703W        W 5694  14.979   1.330   6.171  0.1201  0.2631 -0.2804
62704W        W 5695   0.235   3.607  25.750  0.1088  0.3434 -0.1106
62705W        W 5696  32.333  18.832  25.283  0.0422  0.0400 -0.1390
62706W        W 5697  33.756  32.080  26.743  0.0850  0.2039  0.0054
62707W        W 5698  19.206  19.977   8.207 -0.3726 -0.0492 -0.0557
62708W        W 5699  15.313   7.455  16.623  0.0267  0.1246 -0.0017
62709W        W 5700  32.444  30.164  18.579 -0.0377 -0.2080  0.0546
62710W        W 5701  16.764  30.796  22.092  0.3961 -0.0793  0.1939
62711W        W 5702  25.235  23.626  13.872 -0.0534 -0.0323  0.1696
62712W        W 5703  11.300  18.465   3.268  0.1802  0.0397  0.1336
62713W        W 5704  10.053   0.826  26.304 -0.2189  0.1250 -0.0613
62714W        W 5705   8.707  12.001  28.437 -0.0865 -0.1187  0.0085
62715W        W 5706  24.594  24.011   0.661  0.0764 -0.1692  0.2162
62716W        W 5707  18.481  19.329  22.487  0.0723 -0.3066 -0.1692
62717W        W 5708   4.102  22.371  19.676  0.0009  0.0504 -0.4563
62718W        W 5709  19.896  34.261   3.630 -0.0909  0.1372 -0.0864
62719W        W 5710  20.552  30.158  18.001  0.1278  0.0077  0.0244
62720W        W 5711  26.827  23.281   6.460 -0.0219  0.0023 -0.2086
62721W        W 5712  10.488  28.490   3.797  0.0230 -0.1399 -0.3488
62722W        W 5713   4.123  17.133  21.968  0.0973  0.0400  0.1020
62723W        W 5714  33.536  14.543  28.458  0.0353  0.0146  0.0265
62724W        W 5715   4.553   5.136   7.427 -0.0274  0.0770  0.0015
62725W        W 5716  11.085  10.202  27.239  0.1907 -0.0702 -0.2909
62726W        W 5717  11.057  16.050  19.312  0.2398  0.0043  0.1486
62727W        W 5718  31.102  34.267   2.379 -0.1987 -0.0364  0.0624
62728W        W 5719  30.038  19.348  15.109  0.0700 -0.0486 -0.1832
62729W        W 5720   6.764  12.856  17.191 -0.1148  0.0381  0.1018
62730W        W 5721  17.373  22.666  26.162 -0.2159  0.2374  0.2518
62731W        W 5722   6.418   8.109  25.179  0.0344 -0.0338  0.3958
62732W        W 5723  15.186  23.319  20.771 -0.1072 -0.2349  0.1290
62733W        W 5724  34.257   2.896  19.780 -0.0080  0.2920  0.1205
62734W        W 5725  10.085  17.033  27.221 -0.0048  0.0588  0.0322
62735W        W 5726   5.038  28.892  18.738  0.3860  0.1500 -0.0552
62736W        W 5727   8.347  10.049   0.418  0.0797  0.0616 -0.2442
62737W        W 5728  16.106   0.695  22.960  0.2484  0.0510 -0.1353
62738W        W 5729  12.112  34.365  22.275  0.5742 -0.1267 -0.1005
62739W        W 5730   5.133   9.561   1.655  0.0607  0.0417 -0.2861
62740W        W 5731   7.863   2.352  17.113 -0.0966  0.1356  0.0865
62741W        W 5732  11.435  29.832  18.834 -0.1057  0.0587  0.1273
62742W        W 5733   8.186  19.916   3.032 -0.0845  0.0486 -0.2402
62743W        W 5734  16.675  30.999  17.040 -0.2119  0.1077  0.3529
62744W        W 5735  30.438   7.392  27.121 -0.1250  0.1465 -0.1850
62745W        W 5736  32.859   9.117  27.024  0.1851 -0.0901  0.1240
62746W        W 5737  12.897   2.703   2.890  0.3087 -0.0067 -0.4431
62747W        W 5738   4.908  24.447  25.056 -0.0451 -0.4131 -0.0099
62748W        W 5739   6.296   9.510  28.996 -0.1954  0.0054  0.0091
62749W        W 5740  16.055  16.110   5.305 -0.4445 -0.2483 -0.0283
62750W        W 5741  11.471  29.138  22.989 -0.2136  0.1638 -0.2424
62751W        W 5742   7.063  19.274   9.066  0.0466  0.2983  0.3051
62752W        W 5743  14.056   1.256  18.589 -0.3562 -0.0343  0.0332
62753W        W 5744   7.209   3.717   2.961 -0.3301 -0.2968 -0.2431
62754W        W 5745  12.588  16.560  13.582  0.3534  0.1009 -0.0543
62755W        W 5746  13.451  20.873  17.323  0.0632 -0.3918  0.0912
62756W        W 5747  14.445  18.089  14.386 -0.0843  0.0135  0.1040
62757W        W 5748   0.692  13.339  21.117  0.2849  0.2118  0.1425
62758W        W 5749  18.218  22.935  28.093 -0.0953  0.3793 -0.0783
62759W        W 5750  29.799  30.718   5.302  0.0237  0.0644 -0.1810
62760W        W 5751   6.835  12.620  10.942  0.2833  0.3814  0.0980
62761W        W 5752   9.286  14.492  20.352 -0.0197  0.4396 -0.3369
62762W        W 5753  32.021  23.213   3.091  0.3180 -0.2938 -0.3976
62763W        W 5754   6.647  13.068   8.211  0.0137  0.0415 -0.3640
62764W        W 5755  15.273  34.190  17.645  0.3114 -0.1200  0.1826
62765W        W 5756  11.575  11.192   6.371 -0.1925  0.1238  0.3358
62766W        W 5757  20.967  21.432  18.465  0.1201  0.0414 -0.2330
62767W        W 5758  11.136  15.120  15.456  0.0448 -0.3714 -0.6840
62768W        W 5759  34.093  33.117   1.857  0.2903 -0.2543  0.0524
62769W        W 5760   7.030  10.079  26.111 -0.2091 -0.0786 -0.3052
62770W        W 5761  16.993  30.929   4.039  0.1674 -0.0649 -0.0230
62771W        W 5762   9.628   7.587  21.044 -0.3273 -0.0203 -0.0649
62772W        W 5763   4.162  18.062  25.616  0.2325 -0.1373  0.1626
62773W        W 5764   7.008  34.558  18.796  0.1090 -0.0886 -0.1644
62774W        W 5765   4.613  28.920  27.589 -0.1211 -0.1025 -0.0043
62775W        W 5766   6.555   1.658  10.870 -0.0681 -0.1370  0.0151
62776W        W 5767  16.527  11.901  10.158  0.1396 -0.0706 -0.0757
62777W        W 5768   4.742  15.616  19.817 -0.2486  0.0949 -0.0988
62778W        W 5769   2.250   8.633   1.073 -0.0836  0.0357  0.1924
62779W        W 5770  34.400  17.905  18.250 -0.0751  0.0064  0.2711
62780W        W 5771  14.767  16.236   2.007 -0.1633 -0.1359  0.0119
62781W        W 5772   1.813   1.256   0.885  0.0741 -0.2918  0.0643
62782W        W 5773  31.513  12.600   7.832 -0.0558  0.1490 -0.2309
62783W        W 5774  28.703  20.341  23.049 -0.2874  0.2817  0.1649
62784W        W 5775  20.738  19.405  26.170  0.1873  0.1650  0.2080
62785W        W 5776  19.702  30.347   0.480  0.2343  0.2226  0.0531
62786W        W 5777  15.174  33.539   5.041 -0.0147 -0.1955  0.1528
62787W        W 5778  33.800  20.682   4.538 -0.0476  0.0024 -0.0253
62788W        W 5779   5.342  14.113  23.506 -0.0061  0.0244  0.1122
62789W        W 5780   3.059  26.496  18.943 -0.0079  0.3490  0.1341
62790W        W 5781   9.096  34.228  21.975  0.1423  0.1562 -0.1256
62791W        W 5782   9.758   0.030  23.007  0.2537 -0.5526  0.0410
62792W        W 5783  20.624   5.106   9.558  0.0442 -0.1185  0.4686
62793W        W 5784  27.236  16.846  16.859  0.1822 -0.0722  0.1043
62794W        W 5785  18.178  20.652   2.906  0.0513 -0.1288  0.0361
62795W        W 5786   9.226  24.059  21.401  0.2615 -0.1869  0.2686
62796W        W 5787  11.819  23.084  20.599 -0.4811  0.1635  0.0426
62797W        W 5788  30.722   3.942  22.540  0.2630 -0.0529  0.2425
62798W        W 5789   5.840  20.553   1.487  0.1967 -0.1538 -0.0077
62799W        W 5790   7.884  20.677  23.609 -0.1377 -0.2813 -0.0690
62800W        W 5791  29.331  28.835  15.652 -0.0078  0.1043 -0.2122
62801W        W 5792   6.337   0.781  22.624 -0.1927  0.1117  0.0285
62802W        W 5793  11.226  11.301   2.178 -0.1088 -0.0541 -0.2137
62803W        W 5794  30.023  29.255  14.464  0.1543  0.1225 -0.1864
62804W        W 5795   3.118  17.836  19.224 -0.0513  0.1913  0.0555
62805W        W 5796  21.069   7.414   3.025 -0.0117  0.0336  0.4826
62806W        W 5797  16.882  18.161  26.015  0.0481 -0.2253  0.2450
62807W        W 5798   6.192  17.745  16.182 -0.1781  0.0168 -0.0434
62808W        W 5799  18.412  19.024  22.845 -0.1087  0.1125 -0.1198
62809W        W 5800   3.966  34.288   2.198 -0.1495 -0.1318  0.1384
62810W        W 5801  12.763   2.011  10.771 -0.0752 -0.0861  0.2477
62811W        W 5802  13.566  26.558   8.111  0.1322  0.4441 -0.1592
62812W        W 5803   6.886   3.449   2.129  0.3474 -0.1311 -0.2494
62813W        W 5804  29.533  28.549  25.229 -0.0835 -0.1639  0.1656
62814W        W 5805  22.467  27.667  19.940 -0.2561  0.0430 -0.1976
62815W        W 5806  11.845  14.494  22.728 -0.0148  0.2781 -0.1968
62816W        W 5807  22.141  32.452  19.466  0.2584 -0.1698 -0.2609
62817W        W 5808  19.959  21.727  27.456 -0.1007 -0.1243  0.0096
62818W        W 5809   6.081  30.268   1.751  0.0217  0.0174  0.0265
62819W        W 5810   7.333   2.169  27.258 -0.0727 -0.1670 -0.1421
62820W        W 5811   7.735   8.241   5.289  0.3152  0.1732 -0.2508
62821W        W 5812   2.875  10.684  16.827 -0.1124  0.0792 -0.1471
62822W        W 5813  15.099  25.253   4.951  0.0730  0.2871 -0.1245
62823W        W 5814  34.581  18.168   2.241  0.0636 -0.1647  0.0372
62824W        W 5815  18.090  26.804  28.109 -0.0000  0.2042 -0.2525
62825W        W 5816  26.289  17.091  22.751 -0.0408 -0.0098  0.4455
62826W        W 5817  12.150  20.296  15.195  0.0920  0.3184 -0.0213
62827W        W 5818   9.008  16.395  21.939  0.1660 -0.0622  0.0634
62828W        W 5819  34.042  34.450  28.841 -0.2026 -0.1257  0.0827
62829W        W 5820   0.150  28.277   3.228 -0.0293  0.2583  0.1711
62830W        W 5821  23.092   6.844  13.354  0.1433  0.0401 -0.2296
62831W        W 5822  12.787  17.115  19.786 -0.2101 -0.2893 -0.1055
62832W        W 5823  10.929  23.741  27.953 -0.0374  0.2105 -0.0795
62833W        W 5824  19.673  14.472  27.385  0.1238 -0.1353  0.2644
62834W        W 5825  16.145  33.199   7.456  0.0177  0.1591  0.0255
62835W        W 5826   6.828  28.753   3.784 -0.0879 -0.0705  0.2877
62836W        W 5827  32.433  23.316  20.753  0.3480  0.0522 -0.1427
62837W        W 5828   5.439  23.068   0.812 -0.0362 -0.1401  0.0189
62838W        W 5829  20.847  13.179   2.840 -0.0321 -0.0496  0.1583
62839W        W 5830   8.196  28.481  27.692 -0.0373  0.0799  0.0153
62840W        W 5831  34.207   2.143  23.258 -0.1611 -0.2117 -0.0773
62841W        W 5832   8.611  29.252  18.732  0.0611  0.1370 -0.1973
62842W        W 5833  34.559  13.884   1.140  0.0748  0.2154  0.1616
62843W        W 5834  12.683  22.969  26.710  0.1262 -0.1882  0.3246
62844W        W 5835  14.732  18.670  24.926 -0.1178  0.0299 -0.0959
62845W        W 5836  27.865   4.648  16.354 -0.0526 -0.0816 -0.0740
62846W        W 5837  23.007  18.403   1.286  0.2288  0.0474 -0.1585
62847W        W 5838  25.473   8.399   1.760  0.1237  0.0573  0.4437
62848W        W 5839  11.277  10.990   8.148 -0.0084  0.0647  0.1457
62849W        W 5840  15.869  34.080   9.193  0.0342  0.0722  0.1218
62850W        W 5841  22.110  22.151  25.791  0.0194 -0.2105  0.2622
62851W        W 5842  23.003  23.674   9.074 -0.0337  0.3403  0.1481
62852W        W 5843  34.481  11.038  20.493  0.0524 -0.2102 -0.1376
62853W        W 5844  24.835  20.550  28.260  0.2767  0.1526  0.0791
62854W        W 5845   8.444  17.385  20.156 -0.0055  0.1352 -0.4124
62855W        W 5846   6.447  19.971   2.424  0.0597  0.2809  0.0630
62856W        W 5847  26.680  12.319  23.864  0.1880  0.2084  0.2853
62857W        W 5848   9.121  27.725  27.685 -0.2865  0.2013  0.1611
62858W        W 5849  32.516  17.704  23.544  0.0129  0.0659  0.2563
62859W        W 5850  17.826   0.202  21.310  0.0472 -0.2346  0.0084
62860W        W 5851  24.787  32.457  21.223  0.0318  0.1665 -0.2548
62861W        W 5852  22.719   6.811  26.500  0.2509  0.2485 -0.2197
62862W        W 5853  18.045  30.393  21.681  0.1044 -0.2130  0.0047
62863W        W 5854  17.091  30.460  13.848  0.0641  0.0549 -0.0295
62864W        W 5855   8.986  26.537  25.538  0.4115 -0.0278  0.0390
62865W        W 5856   7.358  10.027  17.969  0.0620  0.0145 -0.0108
62866W        W 5857  12.640  12.683  17.094 -0.1015  0.2468 -0.0355
62867W        W 5858  14.267   0.771   8.921  0.2675  0.0888  0.0299
62868W        W 5859   6.716  18.212  29.088  0.1066 -0.0917 -0.1618
62869W        W 5860   5.627   7.463  18.516  0.0854 -0.0299 -0.2898
62870W        W 5861  33.424  24.186  26.834 -0.1513 -0.1250  0.0678
62871W        W 5862   5.466  29.581   7.298  0.1155  0.3561 -0.2245
62872W        W 5863   1.653  11.099   8.474 -0.0246 -0.1719 -0.3169
62873W        W 5864  14.920  22.593   1.940  0.0572  0.0994 -0.0015
62874W        W 5865   8.104  30.391   4.635  0.0252  0.0770  0.0246
62875W        W 5866  25.824  20.041  17.131 -0.1730 -0.1675 -0.1015
62876W        W 5867  10.311   5.177   1.802  0.0217 -0.0518 -0.0261
62877W        W 5868   9.538   1.552   5.572 -0.1745  0.1337  0.1972
62878W        W 5869  20.390  16.804   6.927  0.0485  0.2559  0.1843
62879W        W 5870   2.549  30.976  23.406 -0.0410 -0.2442  0.0219
62880W        W 5871  13.915  12.629   3.984 -0.2252 -0.1814 -0.3378
62881W        W 5872  25.763  25.190   0.485  0.0559 -0.1031 -0.1852
62882W        W 5873  22.400  26.243   8.233 -0.1095 -0.0540  0.0135
62883W        W 5874   0.192  26.376   0.694 -0.4097 -0.2088 -0.4759
62884W        W 5875  12.013  26.413  21.225  0.0108 -0.0860 -0.1666
62885W        W 5876  12.788   8.878  23.917 -0.0372  0.0087  0.4193
62886W        W 5877  10.284  29.875  25.842 -0.0098 -0.1744 -0.3615
62887W        W 5878  30.585  19.104  22.973 -0.4874 -0.2175 -0.4391
62888W        W 5879   4.751  22.251   6.068  0.1254 -0.2207  0.5367
62889W        W 5880  18.896   8.586   0.680 -0.1044 -0.3105  0.3873
62890W        W 5881  16.158  30.426   4.111  0.1201  0.0696  0.0502
62891W        W 5882  30.449  29.777  25.879  0.1886 -0.1903 -0.1365
62892W        W 5883  10.060  16.923  24.847 -0.1371  0.0607  0.0112
62893W        W 5884   4.085  31.123   0.035 -0.1239 -0.0701  0.1410
62894W        W 5885  12.175  15.415  20.552 -0.1799 -0.0699 -0.0513
62895W        W 5886  34.690   1.243   4.263  0.1534  0.0536  0.0052
62896W        W 5887  13.122  32.212  19.230 -0.0407  0.0359 -0.0296
62897W        W 5888  13.635  22.154  21.762  0.1325  0.0428 -0.1541
62898W        W 5889  10.901   9.118  18.041 -0.0979  0.2547  0.1332
62899W        W 5890  18.792   1.180  18.957  0.1449  0.0873  0.1674
62900W        W 5891  13.344  13.638  16.466  0.2291 -0.0022  0.3228
62901W        W 5892   6.687  22.964  22.670  0.0647  0.0841  0.0696
62902W        W 5893  16.731  22.975  24.212  0.2426 -0.0676 -0.1330
62903W        W 5894  16.154  33.710  28.603 -0.0090  0.0413  0.0989
62904W        W 5895   0.570  21.713  18.790  0.1071 -0.0447 -0.2535
62905W        W 5896   5.197  31.075   8.388  0.1147  0.1590 -0.0864
62906W        W 5897  16.614  25.705   1.545 -0.0931  0.0308  0.0635
62907W        W 5898  20.063   1.612   5.551  0.2957  0.0191  0.4826
62908W        W 5899  17.098  11.072  13.319  0.1089  0.0636  0.1801
62909W        W 5900   8.933  16.059   4.907 -0.2382  0.0172 -0.1393
62910W        W 5901  32.058  24.765   6.228  0.4849 -0.2605  0.0982
62911W        W 5902   9.106  26.375  13.832 -0.1838 -0.2075 -0.2045
62912W        W 5903  34.694  28.764   2.520 -0.4807  0.2525 -0.0130
62913W        W 5904   4.685   0.945   0.973 -0.1071 -0.0481 -0.0097
62914W        W 5905   7.714  27.219  16.286  0.2705 -0.0335 -0.0550
62915W        W 5906  16.403   8.562  26.649  0.0153  0.0324  0.0449
62916W        W 5907   0.205  23.306  26.889 -0.1173 -0.0120 -0.0538
62917W        W 5908  29.063  18.272  22.751 -0.1702  0.0567  0.1610
62918W        W 5909  29.617  14.570  10.166  0.1505  0.1495 -0.0009
62919W        W 5910  34.479   5.240   5.536  0.0025  0.0853 -0.0491
62920W        W 5911  20.396  23.399  25.372  0.5039 -0.1164  0.0105
62921W        W 5912   6.759  31.963  26.124 -0.0291  0.0589  0.0064
62922W        W 5913   5.120  26.467  22.741  0.1166  0.0818 -0.0971
62923W        W 5914  33.240  12.503  22.524 -0.0697  0.1497  0.1666
62924W        W 5915  33.306  25.766   1.830  0.0366 -0.0256  0.0096
62925W        W 5916  10.270  15.246  28.815 -0.1703  0.2246 -0.1177
62926W        W 5917   3.708   3.408  19.850 -0.0692  0.0462 -0.0319
62927W        W 5918   7.772  15.304   5.249 -0.1576  0.2913 -0.0602
62928W        W 5919  15.034  19.651  24.587 -0.0350 -0.0754  0.1999
62929W        W 5920   5.542  26.538  20.641  0.1268 -0.0073  0.2194
62930W        W 5921   5.366  23.445  25.917  0.2568 -0.1157 -0.0282
62931W        W 5922  14.229  27.440  19.583 -0.0476  0.1298  0.1151
62932W        W 5923  23.542  13.082  25.809 -0.0320 -0.4298  0.3005
62933W        W 5924  29.228  18.521  21.530 -0.0577 -0.1857 -0.1809
62934W        W 5925   1.745  16.909  29.017  0.2646  0.0054 -0.4389
62935W        W 5926  20.347  14.463   4.286  0.0356  0.2512 -0.2535
62936W        W 5927   4.013  10.183  24.217 -0.0175 -0.0548  0.0103
62937W        W 5928   1.726  15.479  10.168  0.0154 -0.2986  0.0224
62938W        W 5929  29.534  18.938  26.997  0.2543 -0.0260  0.0606
62939W        W 5930  11.836  31.393   6.628  0.3654 -0.1161 -0.0835
62940W        W 5931  19.206  26.540  24.709  0.1867 -0.0597 -0.1102
62941W        W 5932   2.128   4.283  22.199 -0.0608  0.0667  0.0232
62942W        W 5933  22.917  30.649   2.157 -0.1819 -0.5105  0.3893
62943W        W 5934   6.497  22.777  28.198 -0.0570 -0.1709  0.2699
62944W        W 5935  10.563  18.145  18.782  0.2263  0.1052  0.2106
62945W        W 5936  13.162  29.060  10.477 -0.1021  0.3869 -0.3158
62946W        W 5937  15.020  22.730   2.590 -0.1650 -0.4051 -0.0526
62947W        W 5938  30.739   4.188  17.459  0.1450  0.2566  0.3032
62948W        W 5939  16.258  21.833  19.087 -0.1910  0.1567  0.2972
62949W        W 5940  24.919   0.926  18.061  0.4460  0.0723 -0.2260
62950W        W 5941  28.859  27.470  28.333  0.2923 -0.1198  0.2084
62951W        W 5942   4.138  29.307  22.088 -0.1423  0.0580  0.1114
62952W        W 5943   9.719  17.842  17.446 -0.0719  0.1217  0.0997
62953W        W 5944  17.828  33.367   1.091 -0.0313 -0.2492  0.1371
62954W        W 5945  24.884  20.814  26.972  0.0437  0.6487 -0.0848
62955W        W 5946  14.240   3.188  24.530  0.1713  0.0943 -0.1451
62956W        W 5947  32.076  23.615   7.711  0.0931  0.0156  0.0981
62957W        W 5948   9.658  30.323  22.526 -0.0263  0.1531 -0.1601
62958W        W 5949  20.255  25.974  19.090 -0.0613 -0.4737  0.0098
62959W        W 5950  11.485  29.182   4.521  0.3251  0.1653 -0.0304
62960W        W 5951   6.918  27.892   2.281  0.1458 -0.0452 -0.0214
62961W        W 5952  22.258  22.434  24.165  0.0294  0.2940  0.1063
62962W        W 5953  32.485   2.171   1.422  0.1115 -0.0827  0.1473
62963W        W 5954  13.560  26.372  21.193  0.0275  0.1280 -0.2897
62964W        W 5955  19.615  27.552   2.291  0.1157  0.0399  0.3762
62965W        W 5956   4.234  16.416   3.474  0.3118  0.1577 -0.3095
62966W        W 5957  29.464  34.677  21.840  0.0267 -0.0873 -0.0869
62967W        W 5958  32.385  14.750  23.799  0.1166 -0.2539  0.2010
62968W        W 5959  24.769  21.013  26.447  0.0516 -0.1255  0.0940
62969W        W 5960  21.080  17.357  18.515  0.0151 -0.0993 -0.2367
62970W        W 5961  10.355  12.156  22.374 -0.1586  0.2165 -0.2379
62971W        W 5962   6.835  16.645  17.769  0.1355  0.0597  0.2513
62972W        W 5963   7.972  18.966  15.445  0.0034 -0.2040  0.1009
62973W        W 5964  15.412  19.563  14.896  0.0714  0.1581 -0.0234
62974W        W 5965  14.034   1.477  25.369  0.0842 -0.0424  0.1645
62975W        W 5966  11.232  18.445   0.107 -0.1005 -0.1982 -0.0863
62976W        W 5967  17.772  14.884   1.260  0.1826  0.4260 -0.1874
62977W        W 5968  21.562  18.566  27.895  0.0611  0.1247 -0.2202
62978W        W 5969  11.710   7.733   4.493 -0.0902 -0.2027 -0.4683
62979W        W 5970  27.129  26.398  18.284  0.0220  0.0170  0.1045
62980W        W 5971   0.522   5.401  27.758  0.1276  0.0298 -0.1206
62981W        W 5972  11.994  23.305   0.554 -0.1437 -0.1803  0.0432
62982W        W 5973   3.098  20.318  10.131  0.2249 -0.1936 -0.1519
62983W        W 5974  11.804  24.952  19.267 -0.2586 -0.1867 -0.1054
62984W        W 5975  34.637   9.663   0.793 -0.2777 -0.0667  0.2501
62985W        W 5976  18.461   5.033  23.894 -0.2218 -0.3068 -0.2246
62986W        W 5977  18.728  17.951  13.321  0.3710 -0.0713 -0.0971
62987W        W 5978   3.898  22.868   4.691 -0.0068 -0.2926 -0.3414
62988W        W 5979  19.785  17.120   0.506 -0.1384  0.0139  0.6663
62989W        W 5980   6.612  10.257  26.336 -0.0386  0.0441  0.1177
62990W        W 5981  20.194  21.213   1.159 -0.2301 -0.1158 -0.0355
62991W        W 5982  15.058   0.760  21.016 -0.1365 -0.2421  0.1008
62992W        W 5983  15.245  17.472  28.263 -0.2084 -0.1157  0.0723
62993W        W 5984   2.329  18.528   2.020  0.2718 -0.6437  0.0146
62994W        W 5985  10.227  14.602  20.377  0.2934 -0.0402 -0.1068
62995W        W 5986  12.702  22.584  13.982 -0.1091  0.3588 -0.0782
62996W        W 5987  31.553   7.431   0.193  0.3043  0.1071 -0.0645
62997W        W 5988   6.316  12.497  10.058  0.0682 -0.2630  0.3622
62998W        W 5989   7.750  24.768  26.256  0.1491 -0.2366  0.0547
62999W        W 5990  14.043  27.820  26.219  0.1706  0.4259  0.0047
63000W        W 5991  17.323  11.792   2.013 -0.2609  0.3080 -0.0741
63001W        W 5992   2.611  20.145  25.040  0.2601 -0.0960  0.1295
63002W        W 5993   1.635  18.580   0.003  0.0142 -0.1694  0.4433
63003W        W 5994   5.570  25.229  23.609  0.0349 -0.0291 -0.4026
63004W        W 5995  27.240  20.907   5.732  0.1509  0.0047 -0.1653
63005W        W 5996  33.494   6.144   2.143 -0.1421  0.1123  0.1932
63006W        W 5997  16.029  31.045  24.684  0.1977  0.0481  0.0171
63007W        W 5998  28.522  28.363   9.317 -0.2648 -0.0564 -0.2613
63008W        W 5999  17.530   0.168  16.747  0.1502  0.1308  0.0428
63009W        W 6000  22.988  24.580  25.167 -0.0578 -0.1775  0.2073
63010W        W 6001   5.941  32.907   4.583  0.0688  0.0165 -0.0036
63011W        W 6002   0.530  14.663  10.500 -0.2284  0.1482 -0.0127
63012W        W 6003  16.966  19.201  28.100  0.1072  0.0423 -0.2688
63013W        W 6004   6.325  34.702  23.172 -0.3861 -0.1310 -0.1228
63014W        W 6005  13.946  28.729  20.836  0.0299  0.0133 -0.0162
63015W        W 6006  11.122  33.246  29.116 -0.2600  0.0112 -0.1648
63016W        W 6007  25.759  30.818  17.707 -0.1509 -0.0604 -0.0605
63017W        W 6008   0.409   2.214   1.938  0.0646 -0.1923  0.3787
63018W        W 6009   6.435  28.023  14.895  0.0477 -0.3452  0.1361
63019W        W 6010   0.327   5.734   9.693  0.0206  0.1620  0.0731
63020W        W 6011  21.834   4.354  19.557  0.2853 -0.0826  0.2311
63021W        W 6012  21.343   5.310   4.387  0.0185 -0.1215 -0.4558
63022W        W 6013  17.447  22.898   3.790  0.3046  0.0657  0.0299
63023W        W 6014   4.751  25.253  26.797 -0.1150 -0.0454  0.1026
63024W        W 6015   2.246  26.601  20.630 -0.0418  0.1007 -0.0452
63025W        W 6016  26.376  15.826  27.453  0.2751  0.3220  0.0936
63026W        W 6017  30.728  34.298   4.499  0.0414  0.0122  0.2372
63027W        W 6018  31.696  29.478   8.486 -0.0685 -0.1613  0.3314
63028W        W 6019   1.906  20.850   6.686 -0.1514 -0.1767  0.2848
63029W        W 6020  14.644  26.852   4.211 -0.2510 -0.1904  0.2500
63030W        W 6021  10.633  15.667   4.202  0.1576 -0.3377  0.0025
63031W        W 6022   9.084  10.205  23.269  0.2078  0.1261 -0.0583
63032W        W 6023  28.499  17.663   9.555 -0.1833 -0.1224 -0.1128
63033W        W 6024  11.488  26.023  27.806 -0.1817 -0.3405  0.0286
63034W        W 6025   3.764  21.990   6.040 -0.1386  0.2850  0.0787
63035W        W 6026   4.261  24.770  18.882  0.1418 -0.0712 -0.0175
63036W        W 6027  17.096  15.493  26.219 -0.0785  0.0438  0.0508
63037W        W 6028  18.028   8.423  22.409 -0.1494 -0.1244 -0.0382
63038W        W 6029  10.037   9.616  27.938  0.3154 -0.0810  0.0999
63039W        W 6030  34.055  18.854  22.048  0.0419  0.2131  0.2618
63040W        W 6031   6.991  23.086  15.222  0.1957 -0.0165 -0.1578
63041W        W 6032  16.350   4.155   1.102  0.0549  0.0845  0.0208
63042W        W 6033  19.616  25.373  27.744  0.1713  0.0709  0.3069
63043W        W 6034   2.242   9.971   8.249  0.3379 -0.1192  0.2164
63044W        W 6035   5.341  10.156   4.761  0.2653  0.3480  0.0562
63045W        W 6036  11.009  17.479  26.214 -0.2227  0.0301 -0.2256
63046W        W 6037   6.339  21.040   8.759  0.0296  0.0169 -0.1297
63047W        W 6038  19.660  31.138  16.185  0.0989 -0.4410  0.0486
63048W        W 6039   1.997  13.776  20.023 -0.0924 -0.2607 -0.3766
63049W        W 6040   7.693  15.795  22.212  0.0929 -0.0492 -0.0107
63050W        W 6041   6.183  18.471  17.215  0.5375 -0.0990  0.0327
63051W        W 6042  32.935  27.879  25.726 -0.3471 -0.0492 -0.2325
63052W        W 6043   6.474   7.997  21.620 -0.2484  0.2624 -0.0816
63053W        W 6044  17.836  27.375  14.810 -0.0314 -0.1845 -0.0734
63054W        W 6045  12.736  21.720  18.280 -0.3235 -0.0574 -0.1610
63055W        W 6046  24.804   0.982   6.680 -0.0422 -0.4235  0.0022
63056W        W 6047  11.158  25.056   8.234 -0.0772  0.4407  0.0419
63057W        W 6048   7.746   7.767  25.456  0.1062  0.1663  0.2608
63058W        W 6049   2.873  21.139   8.445  0.1236 -0.4279  0.0961
63059W        W 6050  11.672  17.647   2.860 -0.0429  0.0909 -0.0921
63060W        W 6051   8.383   7.063   1.611  0.0521  0.3473 -0.1469
63061W        W 6052  20.649  29.997   3.997  0.2968  0.0613 -0.0534
63062W        W 6053  10.416  19.373  15.529  0.5730 -0.0558 -0.4034
63063W        W 6054  19.843  32.987  23.096 -0.0915 -0.1014 -0.1858
63064W        W 6055  13.223  20.382  28.598  0.3054  0.1141 -0.0215
63065W        W 6056  25.290  10.576  16.734 -0.1486  0.2183  0.0699
63066W        W 6057  28.638  19.681   4.290  0.4000  0.1808  0.1703
63067W        W 6058   5.316   5.162  11.275  0.0591  0.1084  0.0470
63068W        W 6059  19.104  34.769   0.842  0.0266  0.0775  0.1265
63069W        W 6060   7.884  17.085   9.156 -0.0490  0.2709  0.0194
63070W        W 6061  32.623  12.102  19.462  0.1081  0.1134 -0.2308
63071W        W 6062  11.359  16.888  18.105 -0.0154  0.0935 -0.2737
63072W        W 6063  33.082   2.149  25.544  0.3396  0.0820  0.2147
63073W        W 6064   5.004  16.213   2.316  0.0776 -0.1356 -0.1167
63074W        W 6065   8.401  15.146  25.190  0.3183 -0.1577 -0.3546
63075W        W 6066  23.129  18.025  18.436 -0.2391  0.3267 -0.3155
63076W        W 6067  12.133  23.092  15.459  0.1982  0.1040  0.1375
63077W        W 6068   6.957  27.144   1.601 -0.0491 -0.0340 -0.0975
63078W        W 6069   6.308  28.852   1.553 -0.2363 -0.1206  0.0466
63079W        W 6070   4.918  28.163  28.959  0.1236 -0.1694 -0.0821
63080W        W 6071   0.128  20.222   9.672 -0.1001 -0.2879  0.1200
63081W        W 6072  33.714  17.386   8.588  0.0088 -0.2545  0.0283
63082W        W 6073  25.512   1.231  16.945 -0.1615 -0.1416  0.0741
63083W        W 6074   9.565  26.916  19.460  0.0913  0.1496  0.0534
63084W        W 6075   5.208  10.432   1.516  0.4204 -0.0567  0.0893
63085W        W 6076   8.468  17.895  27.571  0.1129  0.0304  0.1573
63086W        W 6077   5.763  16.439  19.262  0.0351 -0.0050  0.0298
63087W        W 6078  32.812  26.416  18.222 -0.0250  0.3648 -0.1916
63088W        W 6079   4.942  25.523  20.344  0.1473  0.0093  0.0931
63089W        W 6080   8.771  22.179  15.549 -0.2157  0.1000  0.1606
63090W        W 6081  17.354  29.187   3.132  0.2359  0.1262 -0.0243
63091W        W 6082   7.117  17.303   0.442 -0.0709  0.0572  0.0889
63092W        W 6083   6.082  24.949  20.432  0.0081 -0.0179  0.4588
63093W        W 6084   8.745  20.386  24.701 -0.1765 -0.1178 -0.1641
63094W        W 6085  31.149  26.633   3.141 -0.1931 -0.1214 -0.0504
63095W        W 6086   6.756  29.623   4.371 -0.1352 -0.0523 -0.1978
63096W        W 6087  27.879  29.465   7.175  0.0855 -0.1156 -0.1856
63097W        W 6088  16.700  10.217   0.161 -0.1737 -0.1690  0.1189
63098W        W 6089  13.852  26.149   8.819  0.0068 -0.0290 -0.1338
63099W        W 6090   7.307  29.608  24.762  0.2310 -0.1120 -0.1174
63100W        W 6091  25.456  17.145  21.562 -0.0470 -0.0507 -0.3267
63101W        W 6092   5.302  23.013  22.197  0.1117  0.0048 -0.0375
63102W        W 6093  11.062  22.337   1.908 -0.2610  0.0065  0.1752
63103W        W 6094   9.766  19.413  22.801  0.1156 -0.2014  0.1393
63104W        W 6095  13.361  18.648  27.235  0.2504 -0.0532  0.1344
63105W        W 6096  32.112   7.733  25.550 -0.0631 -0.0667 -0.0326
63106W        W 6097  22.614  11.388  19.948 -0.0193  0.1760 -0.0908
63107W        W 6098   3.120  27.263  23.530 -0.2745 -0.0017  0.1440
63108W        W 6099  11.844  29.394  15.924 -0.1319  0.1310  0.1938
63109W        W 6100  28.816  26.548   6.922 -0.4148 -0.2518  0.1115
63110W        W 6101  14.396  27.121   6.715 -0.0883  0.1423 -0.1966
63111W        W 6102  16.777  27.075  19.710 -0.1041  0.0456  0.1719
63112W        W 6103   5.242  30.729   2.945  0.1412 -0.0283 -0.0137
63113W        W 6104  19.723  29.340  18.717  0.1516  0.2943  0.3260
63114W        W 6105   8.577  21.594  20.326  0.1464  0.2504 -0.4161
63115W        W 6106  24.058   4.626  27.320 -0.4457 -0.0155  0.1668
63116W        W 6107  10.735  17.765  18.579  0.3054  0.3819 -0.0378
63117W        W 6108  12.451  17.334  27.991 -0.6419  0.2844 -0.0534
63118W        W 6109  11.841  28.946  28.645 -0.0319 -0.1607 -0.1834
63119W        W 6110  17.062  34.411  14.956 -0.1154  0.0477  0.2690
63120W        W 6111   7.037  15.874  25.214 -0.1649 -0.0492  0.0103
63121W        W 6112  11.111  27.342  28.842 -0.0506 -0.0849  0.1882
63122W        W 6113  28.793  21.277   0.904  0.1504 -0.0084  0.0540
63123W        W 6114  28.731  32.899   1.978 -0.2087 -0.1028  0.4196
63124W        W 6115  11.352  16.525  24.067 -0.1744  0.1893  0.1551
63125W        W 6116  14.579  27.072   1.051 -0.1190  0.1584 -0.2642
63126W        W 6117  10.304  22.808  10.418  0.1602 -0.0971  0.3290
63127W        W 6118   0.361  15.537   6.319 -0.0969  0.0392 -0.0865
63128W        W 6119   3.639  26.289   1.187  0.0929 -0.0294 -0.0513
63129W        W 6120  15.204   6.018  11.601  0.0962  0.3305 -0.2900
63130W        W 6121   1.493   3.210   8.994 -0.0486  0.1340  0.3326
63131W        W 6122  20.679  12.653  20.027 -0.1292 -0.2289 -0.4204
63132W        W 6123   0.825   6.470  17.500 -0.1303 -0.0849 -0.3069
63133W        W 6124   5.893  16.473  25.760  0.3649  0.2948  0.1076
63134W        W 6125  11.675  24.113   2.102  0.2161  0.2543 -0.0045
63135W        W 6126   9.523   9.762  18.510  0.1675 -0.1339 -0.0654
63136W        W 6127   6.080  29.144  22.569  0.1582 -0.0290  0.3689
63137W        W 6128  15.246  23.777   2.057  0.1314  0.2443 -0.0560
63138W        W 6129  16.352  26.123   9.571  0.0132  0.0321  0.1328
63139W        W 6130  11.176  12.928  19.127  0.0151 -0.1306 -0.2888
63140W        W 6131  33.531  19.878  17.993  0.1309  0.0324 -0.0482
63141W        W 6132   2.302   1.745   0.199  0.1211  0.3212 -0.0340
63142W        W 6133   4.053  17.524   4.356  0.3002 -0.0673  0.2743
63143W        W 6134  29.758   6.458  28.276 -0.0530  0.1640 -0.0812
63144W        W 6135  29.514  18.149  15.914  0.1955  0.2609 -0.2381
63145W        W 6136  14.444  15.992  27.144 -0.1121  0.1146 -0.4016
63146W        W 6137  29.544  25.816   6.028 -0.1180  0.0583 -0.0196
63147W        W 6138   5.241  24.875  27.711  0.2060 -0.0515  0.0636
63148W        W 6139   0.692  15.504  21.872  0.1242  0.2950  0.1651
63149W        W 6140   4.488  13.253   4.091 -0.0768  0.2453  0.0675
63150W        W 6141   7.576  15.692  14.982 -0.0736  0.1283  0.1170
63151W        W 6142   7.996  27.807   8.740  0.1210  0.0756  0.4504
63152W        W 6143  25.979  24.016   5.585  0.1031  0.1638  0.0469
63153W        W 6144   3.704  22.803  22.826  0.0266 -0.2488  0.1670
63154W        W 6145  16.276  21.878  18.508 -0.2201 -0.0058  0.0769
63155W        W 6146   3.797  29.273  26.895 -0.1798 -0.2001  0.1323
63156W        W 6147   5.407  22.717  15.836 -0.0559 -0.3327  0.2391
63157W        W 6148   0.086  13.741  28.827 -0.0491  0.2105  0.0032
63158W        W 6149   6.862   9.443   2.612  0.0074  0.1216  0.1396
63159W        W 6150   6.600  25.402   1.837  0.1708  0.2057 -0.1775
63160W        W 6151  23.381  23.171  22.966  0.2196  0.0085 -0.1142
63161W        W 6152  10.721  10.452   0.187 -0.0684 -0.0645 -0.0399
63162W        W 6153  14.516  30.543   8.998  0.1410 -0.0308  0.2335
63163W        W 6154  29.634  20.776  22.141  0.2214  0.2042  0.0386
63164W        W 6155  21.919  22.459  28.786 -0.2797  0.1609 -0.2858
63165W        W 6156  23.785  13.786   8.141 -0.0237  0.0938 -0.0844
63166W        W 6157  20.440  25.833   4.208 -0.0948 -0.0457 -0.1533
63167W        W 6158  15.739  19.461  27.887 -0.1216  0.2321  0.3271
63168W        W 6159   9.748  20.985  23.095 -0.0042  0.0852 -0.1297
63169W        W 6160  20.512  26.339   4.563 -0.1202 -0.1995  0.0275
63170W        W 6161   2.152  33.444  28.222  0.1339  0.2029  0.1089
63171W        W 6162  13.814  24.757  23.906 -0.1160  0.4682  0.0142
63172W        W 6163  19.663  21.464   5.343  0.4322  0.0950  0.2527
63173W        W 6164  22.287  24.956  19.746  0.1596 -0.1001 -0.0267
63174W        W 6165  13.093  23.121   9.185  0.2505  0.1804 -0.1713
63175W        W 6166  10.005  31.619  17.820 -0.1456 -0.2276 -0.0714
63176W        W 6167  13.207  23.619   6.188 -0.4564  0.2948  0.0458
63177W        W 6168  16.813  32.775   8.133 -0.1930  0.0009  0.3079
63178W        W 6169  33.928  31.970  16.234 -0.0881  0.2057 -0.2114
63179W        W 6170  10.938  27.467   4.124 -0.1954 -0.1947 -0.3904
63180W        W 6171  17.625   7.681  29.206  0.0153 -0.1494  0.1015
63181W        W 6172  26.061   6.186  22.714  0.2233  0.1324  0.0999
63182W        W 6173   2.458  15.451   9.919  0.0274 -0.1138  0.1203
63183W        W 6174  13.967  23.799   1.223 -0.1063 -0.1338 -0.0339
63184W        W 6175  16.658   4.866  28.666 -0.2729 -0.0996  0.3072
63185W        W 6176   7.667   3.399   9.351 -0.3046  0.0112  0.1270
63186W        W 6177   1.159  21.203   1.953 -0.1222 -0.0901  0.0675
63187W        W 6178  29.133  17.553   7.927 -0.0505 -0.0341  0.2222
63188W        W 6179  10.406   1.752   1.367  0.1951 -0.0534  0.2963
63189W        W 6180   5.405  25.690  26.452 -0.0243  0.2615 -0.3428
63190W        W 6181  27.397  15.660  16.498 -0.1620  0.0004  0.1343
63191W        W 6182  21.706   2.398  14.950  0.3049 -0.1003  0.0023
63192W        W 6183   4.197   6.164   0.090 -0.2499  0.0061 -0.4802
63193W        W 6184  12.324  17.324  25.373  0.0431 -0.0266  0.2525
63194W        W 6185  32.302  25.687  16.096 -0.0717  0.1077  0.0433
63195W        W 6186   9.900  21.584  19.254 -0.1471 -0.1516  0.2918
63196W        W 6187  17.912  25.092   4.185 -0.2401  0.0095  0.0188
63197W        W 6188  12.898  24.622   8.278 -0.0649  0.0139  0.1888
63198W        W 6189  26.443  30.882  14.656  0.0423 -0.0511  0.4462
63199W        W 6190  12.703  16.518   7.497  0.1315 -0.1246  0.1353
63200W        W 6191  28.066  23.166   2.552  0.0008 -0.3801 -0.1925
63201W        W 6192  18.269  18.166   5.628  0.3157  0.1547 -0.0447
63202W        W 6193  14.613  29.543   3.911 -0.0109 -0.2071 -0.2210
63203W        W 6194  12.302  19.210  23.485 -0.0021  0.1752 -0.2477
63204W        W 6195   2.353  19.760   1.581  0.0178 -0.2284  0.1239
63205W        W 6196  15.473   2.540  26.910  0.2136 -0.1487 -0.3414
63206W        W 6197  11.399  24.855   4.264 -0.2907 -0.1498  0.1627
63207W        W 6198  24.624   4.802  20.377 -0.2382  0.2109  0.1433
63208W        W 6199  24.848  26.653  26.915  0.0611  0.0259  0.4214
63209W        W 6200   3.905  14.583  10.739 -0.1136  0.0598  0.2830
63210W        W 6201  11.489  29.383  16.992 -0.0094 -0.2772 -0.1295
63211W        W 6202  24.573  32.008  20.334 -0.0201 -0.1112  0.4196
63212W        W 6203  23.506  18.212  14.093 -0.1535 -0.0057  0.0360
63213W        W 6204  28.378   6.383  17.940  0.1131  0.1008 -0.1299
63214W        W 6205  10.995  29.102  14.812  0.1774 -0.1472 -0.0537
63215W        W 6206  10.718  11.043  26.113 -0.5786  0.1437  0.1531
63216W        W 6207   5.988  23.797  26.204  0.1635  0.0587 -0.1498
63217W        W 6208  26.931   7.045  16.816  0.2984 -0.2350 -0.0815
63218W        W 6209  18.079  33.740  17.142 -0.0947 -0.1687 -0.0219
63219W        W 6210  10.501  26.744  25.713  0.1261  0.0893  0.0899
63220W        W 6211  22.410  22.148  15.298  0.1137 -0.2845  0.0265
63221W        W 6212   5.144   1.077   4.595 -0.1293 -0.0920 -0.2227
63222W        W 6213  10.997  32.888  15.171 -0.0508 -0.0532 -0.2274
63223W        W 6214   7.632  31.622  20.942  0.1131 -0.0196 -0.4653
63224W        W 6215  12.737  32.531  15.963  0.2438  0.1520  0.1502
63225W        W 6216  14.382  31.659  21.503  0.0551  0.1362  0.0304
63226W        W 6217  18.055  26.210  15.858 -0.1679 -0.2089 -0.0617
63227W        W 6218  19.728   2.120  16.451  0.3142 -0.1335 -0.1674
63228W        W 6219  28.846  27.770  16.343  0.0363  0.0755 -0.1169
63229W        W 6220  28.263  29.606  12.753  0.2167  0.0514  0.3102
63230W        W 6221  16.241   1.419  15.793 -0.2062  0.1313  0.1133
63231W        W 6222  11.924  28.268  26.053  0.5025  0.1890 -0.0527
63232W        W 6223   8.890  20.020  26.461 -0.2137 -0.2945 -0.1586
63233W        W 6224   3.718  31.121  16.467  0.0537  0.1686  0.1813
63234W        W 6225  13.418  15.865  25.614 -0.1855 -0.1412 -0.0268
63235W        W 6226   9.225  25.009  22.034 -0.2170 -0.0724 -0.1952
63236W        W 6227   8.212  30.532  18.608 -0.1186 -0.1008  0.2529
63237W        W 6228   3.473  33.962  26.802 -0.1785 -0.1069  0.0691
63238W        W 6229  12.884   0.576  25.389  0.4637  0.1539 -0.0112
63239W        W 6230  28.066  19.596   3.842  0.0235 -0.0223  0.1392
63240W        W 6231  10.346  30.883  17.535 -0.1419 -0.1142 -0.2231
63241W        W 6232   3.635  33.946  16.486 -0.3992 -0.0692 -0.2091
63242W        W 6233   6.072   4.019  10.414  0.0452 -0.0205  0.0561
63243W        W 6234  17.488  27.193  19.803 -0.0867  0.1536 -0.0119
63244W        W 6235  25.122  32.354  22.893 -0.2193 -0.2129  0.1808
63245W        W 6236   2.372  22.727  20.199 -0.1530  0.0342 -0.1443
63246W        W 6237  11.352  28.819  18.888  0.0088 -0.2964 -0.3090
63247W        W 6238   8.468  30.127  28.571 -0.1062 -0.1262  0.1598
63248W        W 6239  21.245  22.865  21.629 -0.1246  0.1528 -0.2534
63249W        W 6240  16.834  30.866  16.238 -0.1324 -0.2577  0.2003
63250W        W 6241  12.759  21.098  27.174 -0.0595 -0.0078 -0.2841
63251W        W 6242   8.837  33.335  16.836  0.0044  0.1500  0.2220
63252W        W 6243  14.240  22.361   5.417  0.1508  0.2088 -0.0805
63253W        W 6244  15.387  32.010  17.161 -0.2813 -0.0891 -0.0771
63254W        W 6245  23.320  28.349  21.750  0.0136  0.0715  0.1745
63255W        W 6246  14.584   1.601   6.418  0.1474 -0.0929  0.2197
63256W        W 6247  10.351  22.398  21.923  0.1497  0.0498 -0.1058
63257W        W 6248   7.286  25.280  24.411 -0.1282  0.1753 -0.1510
63258W        W 6249  15.162  26.928  22.113  0.1297  0.4550 -0.3037
63259W        W 6250  17.445  23.042   5.143 -0.2831 -0.2498 -0.2693
63260W        W 6251  14.191   5.804  19.947  0.0070 -0.1852  0.0167
63261W        W 6252  33.183  32.223  18.983 -0.0533 -0.1197  0.1995
63262W        W 6253   3.393  17.801  20.344  0.0006  0.6153  0.2283
63263W        W 6254   7.621  23.035  21.266 -0.2791  0.0228 -0.0824
63264W        W 6255   6.776  28.933  23.685 -0.0095 -0.0217  0.1415
63265W        W 6256   6.217  20.950  14.936 -0.0307  0.0674  0.1920
63266W        W 6257   5.462  27.361  27.641  0.0647  0.0856 -0.1780
63267W        W 6258  15.643  32.483  16.378  0.0089 -0.6047  0.0225
63268W        W 6259  14.804   9.366  21.882 -0.1520  0.0639  0.0101
63269W        W 6260  33.625   3.724  18.514  0.2631 -0.0552  0.1752
63270W        W 6261  27.061   2.989  22.251 -0.1052  0.0947 -0.0570
63271W        W 6262  13.275  14.490  20.030  0.1325  0.0958 -0.1256
63272W        W 6263   8.545  31.278   1.383  0.0418  0.0434  0.1027
63273W        W 6264   3.146  31.164  20.271  0.4200  0.0370  0.2080
63274W        W 6265  17.362  26.650  14.889 -0.0384 -0.2029 -0.3773
63275W        W 6266  27.236   3.638  16.839 -0.3225 -0.1128  0.5380
63276W        W 6267   6.923  14.112  15.893  0.4329  0.2714  0.1502
63277W        W 6268   0.667   7.329  18.801  0.2279 -0.1651  0.2088
63278W        W 6269  21.237   6.259  17.198 -0.0617 -0.5080  0.1618
63279W        W 6270  14.797  27.031   9.591  0.1752 -0.1749  0.0363
63280W        W 6271  20.814  28.943  17.045  0.2463 -0.0762  0.1903
63281W        W 6272  20.654  30.895  14.191  0.0791 -0.0199  0.2231
63282W        W 6273  10.653  17.929   2.536 -0.1131 -0.1491  0.0741
63283W        W 6274  18.302  32.019  13.772  0.0556  0.1286  0.4234
63284W        W 6275  25.731   0.050  13.326 -0.0112  0.0692 -0.2776
63285W        W 6276   3.700  13.348  17.263  0.3083  0.1319  0.1351
63286W        W 6277  22.590  31.584  23.607 -0.1418 -0.1137  0.2738
63287W        W 6278   8.008  15.913   2.749  0.1405  0.0878 -0.4785
63288W        W 6279  19.126  25.980   3.507 -0.0432  0.0590  0.0131
63289W        W 6280   8.837  32.786  17.028 -0.1023  0.0342 -0.1762
63290W        W 6281  34.186  28.252  15.970 -0.2696  0.0171 -0.0402
63291W        W 6282   2.115  27.240  22.069 -0.2650  0.0074 -0.0831
63292W        W 6283  12.721  34.492  19.693  0.2928 -0.2475  0.1184
63293W        W 6284  17.374   5.052  21.408 -0.2788 -0.0472 -0.3527
63294W        W 6285  10.787  15.608  17.759  0.1996 -0.1830 -0.0031
63295W        W 6286  26.024  16.679  15.830  0.1867 -0.1344  0.1060
63296W        W 6287  25.381  32.624  14.737  0.0986 -0.0381 -0.1159
63297W        W 6288  16.720  34.025  16.323 -0.2423  0.2871  0.1659
63298W        W 6289  20.523  27.442  23.547 -0.1181 -0.0642 -0.2435
63299W        W 6290  17.226  28.727  23.577  0.0094  0.0122 -0.2564
63300W        W 6291  31.697  16.570  20.419  0.0003  0.1799  0.3425
63301W        W 6292  34.171   8.061  15.052  0.2047 -0.0462  0.2407
63302W        W 6293  11.172  16.409  22.671 -0.0755 -0.1632 -0.0596
63303W        W 6294  10.888  28.941   3.884 -0.0031 -0.0247  0.1271
63304W        W 6295  23.312  15.669  21.379 -0.1153 -0.1225 -0.1831
63305W        W 6296  33.316  29.456  14.005  0.0241 -0.1484 -0.1423
63306W        W 6297   2.209  21.451  19.824  0.1534  0.0205 -0.0276
63307W        W 6298   6.613  27.022  24.955  0.1330 -0.1938 -0.1409
63308W        W 6299  17.150  16.490  13.590 -0.2377 -0.0413 -0.1138
63309W        W 6300   0.886  31.607  20.439  0.2755  0.1726  0.2158
63310W        W 6301  21.882  34.355  14.912  0.3175 -0.0686  0.0647
63311W        W 6302  16.059  33.202  19.488  0.0101 -0.1725  0.3600
63312W        W 6303  12.006  26.734  15.867 -0.0832 -0.0246  0.0693
63313W        W 6304  23.259   2.530  14.758 -0.1326 -0.1373  0.1483
63314W        W 6305  11.856  27.432  20.930  0.1652 -0.2099  0.1601
63315W        W 6306   6.265  17.598  25.112 -0.0139  0.0200  0.0969
63316W        W 6307  12.086  21.030  17.135 -0.1296 -0.3359 -0.1369
63317W        W 6308  17.898  20.398  22.073 -0.1843 -0.0038 -0.1495
63318W        W 6309  34.510  34.065  19.026 -0.2201  0.2568 -0.1373
63319W        W 6310  28.979   6.955  20.399 -0.1376  0.0847  0.1167
63320W        W 6311  19.424  29.173  21.959  0.1315  0.2432 -0.0210
63321W        W 6312   7.131   0.984  26.784  0.0340 -0.0135 -0.3279
63322W        W 6313  13.220  31.870  24.984  0.0052 -0.1140  0.0601
63323W        W 6314   2.937   5.100  20.413 -0.0196  0.0506  0.3809
63324W        W 6315  18.195  20.558  28.854  0.0394  0.2267 -0.0991
63325W        W 6316  13.493  28.606  18.858 -0.1790  0.0008  0.0583
63326W        W 6317   6.084  21.111  19.947 -0.1481  0.1022  0.2394
63327W        W 6318  19.759  20.616  12.422 -0.0476  0.2727 -0.2301
63328W        W 6319  27.473   6.736  13.244  0.1438 -0.2196 -0.1992
63329W        W 6320  18.442  27.160  13.429  0.1748  0.0629  0.0974
63330W        W 6321  12.185  32.000  17.624  0.1000  0.2750  0.0807
63331W        W 6322  30.160  28.320  17.576 -0.2751 -0.0922 -0.1952
63332W        W 6323  22.105  20.512  16.477 -0.2151 -0.1963  0.0752
63333W        W 6324  27.897  32.924  14.336  0.1688 -0.1470 -0.2220
63334W        W 6325   1.183  19.659  24.986 -0.1807  0.0745 -0.3460
63335W        W 6326  26.293  25.270  19.375  0.0336 -0.0729 -0.0570
63336W        W 6327  19.398   1.389  16.982  0.1333 -0.3699  0.2077
63337W        W 6328  23.333  13.895  24.911  0.2023  0.0125 -0.0334
63338W        W 6329  11.144  21.743  26.743 -0.2449 -0.2309 -0.0172
63339W        W 6330  19.770  28.699  23.923 -0.4634  0.2226  0.0490
63340W        W 6331   6.823  30.702  20.399  0.1867 -0.2712 -0.0033
63341W        W 6332  12.717  13.954  14.485  0.0121 -0.2327  0.0929
63342W        W 6333   8.021   9.422  18.280 -0.2674  0.1307 -0.2498
63343W        W 6334   1.344   4.695   1.715  0.2675 -0.0866  0.0689
63344W        W 6335   2.590  30.641  18.722 -0.5052 -0.2198 -0.2096
63345W        W 6336  17.506   0.058  28.146  0.0082 -0.3608 -0.0215
63346W        W 6337   1.551  30.578  26.675  0.1052  0.4135  0.1559
63347W        W 6338  22.365   4.677  19.168 -0.1736 -0.0916 -0.2977
63348W        W 6339  22.398  22.521   1.955  0.2876 -0.1373 -0.0734
63349W        W 6340  27.059  17.909  20.590  0.0136  0.1651 -0.1057
63350W        W 6341   5.416   0.362  19.687 -0.2569  0.5373 -0.0192
63351W        W 6342  12.661  33.576  29.046  0.0962  0.3458 -0.1156
63352W        W 6343  16.275  19.387  28.755 -0.1978  0.1510  0.0053
63353W        W 6344   5.115   6.108  21.235 -0.4370 -0.1060 -0.1873
63354W        W 6345  14.986  22.340  20.778  0.2545 -0.0105 -0.0013
63355W        W 6346  12.880  23.333  15.352  0.0286 -0.0563  0.1460
63356W        W 6347   8.601   9.640  27.949 -0.1284  0.1419 -0.1205
63357W        W 6348   5.136  27.017  16.511 -0.0450 -0.0802  0.0225
63358W        W 6349  30.094  12.606  17.842  0.0016  0.1002  0.1364
63359W        W 6350   7.455  21.971  15.557 -0.0850 -0.2793  0.2576
63360W        W 6351  13.590  28.355  19.893 -0.1057  0.0357  0.0748
63361W        W 6352  27.548  13.761   0.794  0.1777  0.2786  0.0582
63362W        W 6353   2.423  31.643  22.257 -0.0181 -0.2915  0.0433
63363W        W 6354   4.974   5.008  23.041 -0.0677  0.2671  0.1346
63364W        W 6355  13.046  27.764  22.972 -0.1817  0.0109  0.1361
63365W        W 6356  12.667  25.310  20.673 -0.0325  0.1552 -0.0786
63366W        W 6357  10.759  17.901  14.299 -0.2642 -0.4102  0.1665
63367W        W 6358  15.301  28.974  14.230  0.0738  0.1702  0.5118
63368W        W 6359   7.648  32.667  25.537  0.0002 -0.3138  0.1619
63369W        W 6360  33.988  24.993  19.062 -0.2131 -0.0601  0.1496
63370W        W 6361  26.181  30.872  21.022 -0.3529 -0.0179 -0.1567
63371W        W 6362  20.383   4.187  29.210  0.0493 -0.2484  0.0505
63372W        W 6363  15.130  29.593  15.514 -0.1225  0.0682  0.0600
63373W        W 6364   5.455  25.874  15.778 -0.0534  0.1302  0.1025
63374W        W 6365  13.131  34.091  20.393 -0.1331 -0.2243 -0.0173
63375W        W 6366   2.301  14.856  19.851 -0.1093  0.0265 -0.1909
63376W        W 6367  19.505  21.537   4.362 -0.2955 -0.0609 -0.1141
63377W        W 6368   2.504  25.624  19.609 -0.1636 -0.2023  0.1044
63378W        W 6369  13.671  33.926  15.355  0.0363  0.0768  0.3412
63379W        W 6370  18.318  24.901  13.008 -0.1089 -0.0432  0.0836
63380W        W 6371  28.134  33.178  21.199  0.0092  0.0383  0.0591
63381W        W 6372  34.090  31.511  20.386 -0.1124  0.3972 -0.1154
63382W        W 6373   3.402   0.051  19.005 -0.0071 -0.0742  0.2792
63383W        W 6374  15.432  28.825  24.497 -0.0079 -0.4229 -0.0824
63384W        W 6375  11.377   2.038  27.560  0.0193 -0.0220  0.1073
63385W        W 6376  25.632  21.847  17.435  0.0835  0.0723 -0.1395
63386W        W 6377  18.283   6.638  15.965  0.0231 -0.1966 -0.0630
63387W        W 6378  31.769  24.745  19.509  0.0528  0.2710 -0.1608
63388W        W 6379  26.345   8.619  21.490  0.0022  0.0290  0.1606
63389W        W 6380  24.833  28.926  14.630  0.2859 -0.0167 -0.0649
63390W        W 6381  19.830   1.084  17.389  0.1111 -0.2455  0.3656
63391W        W 6382   6.467  31.637  18.462 -0.0319  0.0166 -0.2965
63392W        W 6383  25.399  20.118  13.464  0.2143 -0.1057  0.0472
63393W        W 6384  19.723  19.977  20.971  0.1029  0.0924  0.0940
63394W        W 6385  33.124   5.955  25.225  0.2273  0.0289  0.0426
63395W        W 6386   3.304  22.888  17.093  0.2395  0.0121  0.4058
63396W        W 6387  18.858  32.936  15.075  0.1432  0.0859 -0.0311
63397W        W 6388  19.848  21.572  13.504  0.0453  0.3060  0.3700
63398W        W 6389   2.599  24.405  25.842  0.1061  0.3144  0.2133
63399W        W 6390   1.641  30.060  19.960 -0.1007 -0.0647  0.1572
63400W        W 6391   9.128  24.716  18.434  0.1004 -0.3606 -0.0955
63401W        W 6392   1.556  16.651  21.248 -0.6471 -0.2016 -0.0486
63402W        W 6393  34.120   6.035  19.718  0.1857  0.4829  0.1161
63403W        W 6394   6.848  28.803  22.454  0.1618  0.0118 -0.0586
63404W        W 6395  16.742  33.866  20.072 -0.0629  0.0066  0.0122
63405W        W 6396  14.033  21.548  17.463 -0.3187 -0.2769  0.1478
63406W        W 6397  16.764  30.171  23.312 -0.2712 -0.0688 -0.0179
63407W        W 6398   1.534   7.901  26.996 -0.0985 -0.1756  0.0736
63408W        W 6399   1.935  30.016  18.263  0.1157 -0.1412  0.0854
63409W        W 6400  22.582   2.138  18.778 -0.1206  0.1092  0.2167
63410W        W 6401   8.844  23.097  17.042  0.0114 -0.0325 -0.1695
63411W        W 6402   6.290  34.173  26.439  0.0360 -0.2257 -0.2805
63412W        W 6403  31.691  32.208  15.866 -0.4617  0.2134 -0.1176
63413W        W 6404  21.892  27.739  18.912 -0.2941  0.0616 -0.2936
63414W        W 6405  17.138  28.189  13.720 -0.0572 -0.2780 -0.3739
63415W        W 6406  22.246  14.608  19.777  0.0697 -0.0013  0.0898
63416W        W 6407  15.850  20.241  27.769 -0.2731 -0.1527 -0.3382
63417W        W 6408  26.386  30.135  17.608  0.0791 -0.0617  0.1714
63418W        W 6409   6.671  28.600  25.969  0.1490  0.0420  0.0261
63419W        W 6410   3.434   1.705  16.529  0.0953 -0.2932 -0.1120
63420W        W 6411  14.293  14.906  20.527  0.0333  0.0325 -0.0851
63421W        W 6412  28.375   0.721  22.415 -0.0936  0.0217 -0.4156
63422W        W 6413   6.331   2.155  19.609  0.0355  0.0669  0.1236
63423W        W 6414  10.592  29.523   8.977  0.0413  0.0339  0.2604
63424W        W 6415  13.790  34.461  18.838  0.1701 -0.0958  0.0992
63425W        W 6416  20.202  29.073  15.558 -0.4939  0.2935 -0.0832
63426W        W 6417   8.321  29.314  24.987  0.2044  0.1603 -0.0193
63427W        W 6418  13.723  10.239  21.722  0.2972  0.0228  0.1740
63428W        W 6419  10.947  28.798  14.430 -0.2274 -0.0266 -0.1788
63429W        W 6420   7.393  21.863  23.202 -0.1543 -0.1552  0.0329
63430W        W 6421  21.035  27.089   5.412  0.2086 -0.1619  0.2399
63431W        W 6422  17.254  21.803  12.854  0.0194 -0.1182  0.0273
63432W        W 6423  20.959  27.225  13.689  0.1845  0.1183 -0.2108
63433W        W 6424  31.680  16.940  27.572 -0.3183  0.1632 -0.1349
63434W        W 6425   1.806  30.007  16.213  0.0485  0.1264 -0.2919
63435W        W 6426   3.833  26.440   7.018  0.2220 -0.2427 -0.0677
63436W        W 6427  11.654  27.204  18.086 -0.1845 -0.2403  0.1669
63437W        W 6428  22.276  23.767  13.882 -0.0432 -0.1924 -0.2413
63438W        W 6429  26.176  27.162  24.990  0.0812  0.1294 -0.1904
63439W        W 6430   0.789   6.327  18.752  0.0016  0.1217  0.3148
63440W        W 6431  26.436  30.125  26.066  0.0345 -0.4209 -0.0735
63441W        W 6432  21.996  24.733  25.719  0.5006  0.0430 -0.2530
63442W        W 6433  13.702  30.001  28.716 -0.2234  0.0538 -0.0007
63443W        W 6434   2.257  17.163  23.348  0.0456  0.0315  0.1175
63444W        W 6435  12.084  28.785  26.113  0.0257 -0.1925  0.2113
63445W        W 6436  14.086  12.732   0.816 -0.4278  0.0057 -0.0702
63446W        W 6437  23.327  30.122  17.848  0.0957  0.2495  0.2389
63447W        W 6438  19.324  24.839  17.604  0.2786  0.0595  0.1944
63448W        W 6439   8.394  27.496  28.330 -0.1033 -0.4348  0.0376
63449W        W 6440  30.607  20.919  24.925  0.1640 -0.0457  0.2276
63450W        W 6441   4.444  29.186  18.058 -0.1869  0.0362 -0.1205
63451W        W 6442  33.237  17.182  17.678 -0.0171  0.0276  0.0110
63452W        W 6443   3.350  11.685  28.902 -0.0936 -0.0823  0.4942
63453W        W 6444  13.712  27.783  18.449  0.2385  0.1367 -0.0320
63454W        W 6445  22.130  16.421  24.145  0.4196 -0.2007  0.1383
63455W        W 6446  21.704  11.963  13.969 -0.0791  0.0825 -0.2234
63456W        W 6447  34.603  31.419  14.902 -0.0151  0.0869  0.0160
63457W        W 6448  28.760  27.699  14.253 -0.0064 -0.1071 -0.1357
63458W        W 6449   6.284   7.266  16.970  0.0448  0.0416  0.4007
63459W        W 6450   9.963  13.994  15.581  0.1186  0.2823  0.2234
63460W        W 6451   0.218   5.211  24.572  0.4166 -0.0154  0.2356
63461W        W 6452   6.622  10.583  24.199  0.0743 -0.0815 -0.1359
63462W        W 6453  12.949   8.174  26.893  0.1446  0.1905  0.0521
63463W        W 6454  18.902  22.241   0.101 -0.4004 -0.1022 -0.0537
63464W        W 6455  12.977  30.313  21.891 -0.0104  0.0684  0.0840
63465W        W 6456  11.857  22.427  17.664  0.1403 -0.2472  0.1436
63466W        W 6457   8.060   8.468  17.073 -0.0637 -0.4172  0.1783
63467W        W 6458  16.443  14.241  12.345 -0.3513 -0.1419 -0.1058
63468W        W 6459  10.835  31.153  20.891 -0.0552 -0.0958  0.2396
63469W        W 6460  12.572  24.491  17.150  0.2157  0.3152  0.1981
63470W        W 6461  15.008  22.578  16.922  0.3394  0.1616 -0.2000
63471W        W 6462  16.664  15.927  13.918  0.1126 -0.2237 -0.0008
63472W        W 6463  11.070   5.815  14.574  0.2677 -0.0836  0.4984
63473W        W 6464  10.732  20.348  24.100  0.2205 -0.1747  0.1553
63474W        W 6465  25.564  25.866  18.315  0.2205 -0.0898  0.1438
63475W        W 6466  12.121  27.136  24.405  0.3021 -0.1750  0.1180
63476W        W 6467  11.794  29.591  24.509  0.1076 -0.2230  0.1792
63477W        W 6468  27.728   9.173  20.091  0.1013  0.2926  0.0764
63478W        W 6469  10.763  24.124  20.756 -0.3292 -0.1245 -0.2972
63479W        W 6470  13.523  13.230   4.308  0.0621 -0.0745 -0.0656
63480W        W 6471  12.067   0.839  18.462 -0.0137 -0.2041 -0.0684
63481W        W 6472  22.329  32.323  15.993 -0.1575 -0.0105  0.2043
63482W        W 6473  31.698  12.009  21.005  0.3232 -0.1597  0.1048
63483W        W 6474  11.198  30.001  16.875  0.0158  0.0918 -0.0285
63484W        W 6475  13.963   4.427  24.720 -0.0176  0.1758 -0.0010
63485W        W 6476  30.859  18.235  23.084 -0.0532 -0.0657  0.1226
63486W        W 6477  30.671  11.038  21.305 -0.1280 -0.2242 -0.5181
63487W        W 6478  14.870  15.330  13.778 -0.1726 -0.3794  0.1563
63488W        W 6479   1.679  20.719  24.360  0.2661  0.0716  0.2117
63489W        W 6480  16.559  13.435   7.891 -0.0931 -0.0730 -0.0894
63490W        W 6481  18.141  28.868  16.113 -0.1085  0.0210  0.1459
63491W        W 6482  14.867   5.577  20.413 -0.2316  0.1762  0.2294
63492W        W 6483  16.540  25.031  26.095  0.0122 -0.0877  0.0091
63493W        W 6484  16.306  21.970  24.927  0.0482  0.2352 -0.0004
63494W        W 6485  21.449  26.767  20.186 -0.2018  0.3815  0.0096
63495W        W 6486  10.458   3.465  20.100  0.2685  0.0503  0.1327
63496W        W 6487  10.435  29.689  19.808 -0.0688  0.2141  0.0270
63497W        W 6488  11.699  31.758  15.407  0.2272  0.0033 -0.1602
63498W        W 6489  33.305  30.795   1.858  0.0856 -0.2358  0.2834
63499W        W 6490  10.882  23.968  18.028 -0.2080 -0.1876  0.0847
63500W        W 6491  10.078  25.920  26.081 -0.0831 -0.0587 -0.2457
63501W        W 6492  33.884   5.063  21.706 -0.2268  0.2446 -0.1753
63502W        W 6493  10.458  29.618  20.809  0.1148  0.0070  0.1339
63503W        W 6494  13.700  32.551  16.181 -0.0347 -0.2279  0.0038
63504W        W 6495  13.418  15.423  15.481 -0.0989  0.1592 -0.2215
63505W        W 6496   7.602  22.688  26.964  0.0566 -0.1423  0.0418
63506W        W 6497  23.417  25.734  26.556 -0.1216  0.1388 -0.2325
63507W        W 6498   4.472   2.517  17.927 -0.1522  0.1670 -0.0477
63508W        W 6499   6.755  23.900  28.344 -0.0346  0.1270  0.1643
63509W        W 6500   8.472  29.446  22.143 -0.1903 -0.1723 -0.1769
63510W        W 6501  33.725  34.410  17.311  0.3825  0.1390 -0.3098
63511W        W 6502  33.660  21.018   0.329  0.0282 -0.0619 -0.0288
63512W        W 6503  17.700  31.556  23.175  0.3858 -0.1932  0.1690
63513W        W 6504   2.806  22.363  26.138  0.1963 -0.0753  0.3175
63514W        W 6505   4.451  18.172  23.307 -0.2790 -0.1712 -0.0830
63515W        W 6506  32.261   7.259  20.567 -0.2182 -0.0000 -0.2533
63516W        W 6507  20.471   1.306  16.600 -0.0081 -0.0875  0.3397
63517W        W 6508   9.998  23.769  14.835  0.0707 -0.5695 -0.0440
63518W        W 6509  13.321  13.144  28.467  0.1837 -0.1039  0.0845
63519W        W 6510  13.407   9.525  19.409 -0.0180 -0.1681  0.0558
63520W        W 6511   8.198   4.405  17.666  0.2266 -0.3482  0.2852
63521W        W 6512   1.366  10.554  25.284 -0.0894 -0.0373  0.3274
63522W        W 6513  33.913  28.643  28.154 -0.2842  0.1116 -0.1165
63523W        W 6514  32.356  15.508  22.675  0.3217  0.4126  0.1370
63524W        W 6515  14.778   8.096  24.552 -0.0071  0.1149  0.1161
63525W        W 6516  20.986  16.730  18.499  0.2627  0.0664  0.2363
63526W        W 6517  12.739   1.896  25.986  0.2135  0.2259 -0.0136
63527W        W 6518  32.726  30.255  14.929  0.1372 -0.0991 -0.1445
63528W        W 6519   9.879  34.372  14.046  0.1243  0.1152  0.1910
63529W        W 6520   9.939  21.264  18.147  0.2895 -0.4775 -0.4622
63530W        W 6521  23.425  23.658   0.265 -0.1007 -0.1041  0.0593
63531W        W 6522  13.724  33.712  17.717  0.0213  0.1066  0.1814
63532W        W 6523  21.814  17.193  20.590  0.0924  0.1088  0.2666
63533W        W 6524   5.239  28.636  18.304  0.1695  0.1523  0.0080
63534W        W 6525   5.704  28.166  27.074 -0.2804 -0.1198 -0.0023
63535W        W 6526  16.384  27.002  14.281 -0.0204 -0.1302 -0.3789
63536W        W 6527   3.714  30.390  22.183 -0.2221 -0.0204  0.1348
63537W        W 6528  29.003  33.657  15.154 -0.3141 -0.0127  0.0154
63538W        W 6529  17.519   4.021  17.022 -0.0620 -0.2716 -0.0762
63539W        W 6530  32.215   8.485  20.806 -0.1469  0.3146 -0.0585
63540W        W 6531  14.838  24.405  24.029  0.1121 -0.2641  0.1374
63541W        W 6532  30.483  33.923  13.702  0.2850 -0.0564  0.2024
63542W        W 6533  16.851   0.972  26.278 -0.1777  0.0693  0.3238
63543W        W 6534  24.533   3.457  22.304  0.0887  0.1750 -0.1054
63544W        W 6535   0.915  31.557  17.698 -0.0931  0.1378  0.0895
63545W        W 6536  19.359   3.972  20.379  0.0852 -0.0471  0.2554
63546W        W 6537  25.196   3.525   4.883  0.1033 -0.1131 -0.1771
63547W        W 6538  20.252  28.211  27.987 -0.2774  0.1202  0.0989
63548W        W 6539  10.591   6.298  15.460 -0.1282 -0.0461  0.0917
63549W        W 6540   4.100  29.452  19.831  0.1352 -0.0712  0.0439
63550W        W 6541   9.838   0.791  20.150  0.2151 -0.1708 -0.1211
63551W        W 6542  29.388  31.661  23.191  0.0202 -0.0916  0.3433
63552W        W 6543   2.917  20.877  27.405  0.0443  0.0755 -0.0441
63553W        W 6544  34.323   6.081  27.706 -0.1304  0.1517  0.2392
63554W        W 6545  14.631  27.908  22.427 -0.0111  0.1835  0.2450
63555W        W 6546  18.610  26.116  19.299  0.1724  0.2134 -0.0135
63556W        W 6547   3.039  31.433  18.255 -0.0933 -0.2404 -0.1242
63557W        W 6548   0.834   0.577  17.993 -0.2177 -0.3296 -0.0580
63558W        W 6549   2.015  31.649  15.477  0.1378  0.0742 -0.0080
63559W        W 6550  21.338  19.240   3.505 -0.2776  0.3310 -0.2073
63560W        W 6551  23.655  30.280  13.207  0.1606 -0.3608 -0.0250
63561W        W 6552  33.336   1.492  26.120 -0.2102 -0.1544 -0.0682
63562W        W 6553  12.423  14.368   0.335  0.4563  0.5027  0.1529
63563W        W 6554  29.954  28.911  12.997  0.0988 -0.2705  0.1048
63564W        W 6555  21.917  22.376  15.620  0.1945 -0.0521  0.3314
63565W        W 6556   5.244  12.536  19.736  0.0058  0.0512  0.0506
63566W        W 6557   7.748  34.508  25.729 -0.2538 -0.2380  0.0274
63567W        W 6558  26.116  15.186  25.834  0.1347 -0.4154  0.3083
63568W        W 6559   8.938  22.943  19.447 -0.1086  0.3351 -0.0757
63569W        W 6560   2.756   3.986  14.902 -0.0822  0.0972 -0.1505
63570W        W 6561   9.475  13.487  19.591 -0.2605 -0.1292  0.0342
63571W        W 6562  11.343  31.253  22.673  0.1189 -0.3932  0.1812
63572W        W 6563  11.155  20.389  26.413  0.1154 -0.0910  0.2937
63573W        W 6564  20.842   0.736  22.112 -0.1872  0.3287  0.0402
63574W        W 6565  15.091  13.171  18.339 -0.1678 -0.0123  0.2855
63575W        W 6566   5.875  23.049  20.409 -0.0117 -0.1034 -0.1613
63576W        W 6567   9.605  31.466  18.195 -0.0540 -0.0787  0.0822
63577W        W 6568  28.510  30.502   8.641 -0.1072 -0.3473 -0.0540
63578W        W 6569  16.011  31.608   5.554  0.3078 -0.2533 -0.1441
63579W        W 6570  28.700  33.842  23.973 -0.1810  0.0473 -0.2461
63580W        W 6571  22.620   2.381   5.905  0.0259 -0.2415  0.2341
63581W        W 6572   2.795  34.317  22.880  0.2521  0.2468 -0.1227
63582W        W 6573   6.919   4.517  19.094 -0.0303 -0.0735  0.3158
63583W        W 6574  11.290  18.997  28.563  0.1770 -0.0141 -0.0195
63584W        W 6575   1.043  25.337  21.112  0.2465  0.3682  0.3431
63585W        W 6576  26.925   4.527   3.359 -0.2004 -0.0839  0.3223
63586W        W 6577  32.041   2.014  16.981 -0.0892 -0.0942 -0.0329
63587W        W 6578   0.194   4.068  15.244 -0.0339  0.0927 -0.2081
63588W        W 6579   2.191   9.173  20.324 -0.0790 -0.0706  0.0540
63589W        W 6580   0.300  13.217  20.829 -0.0894 -0.0197 -0.0714
63590W        W 6581   7.011  30.959  25.252 -0.2956 -0.0742 -0.1463
63591W        W 6582  34.396   9.362  24.701  0.2322  0.0336 -0.1907
63592W        W 6583  28.907  31.140  18.597 -0.0036  0.1352 -0.0084
63593W        W 6584  19.444  29.606  16.054 -0.2684 -0.2820 -0.0022
63594W        W 6585  28.156  34.237  17.921 -0.0352 -0.2522 -0.2991
63595W        W 6586  15.149  29.860  18.716 -0.1185 -0.0510  0.0541
63596W        W 6587  21.241  27.670   0.240  0.0154 -0.1129  0.2770
63597W        W 6588  22.064  19.772   7.674 -0.1282 -0.0284  0.3407
63598W        W 6589  28.934  30.393  16.402  0.0005  0.0598  0.1031
63599W        W 6590  25.806   1.424  18.036  0.1356 -0.0931 -0.1763
63600W        W 6591  12.899  13.677  16.931  0.2283  0.0978  0.1859
63601W        W 6592   7.810   0.264   1.615  0.2850  0.0831  0.1128
63602W        W 6593  11.809  22.626  24.999  0.2096  0.0935  0.0289
63603W        W 6594   4.375  33.456  24.889 -0.0284  0.0929 -0.0074
63604W        W 6595   9.654   4.917  14.301 -0.1224 -0.2719  0.0663
63605W        W 6596  12.842  27.761  15.707 -0.1970 -0.1298 -0.0318
63606W        W 6597   3.869   2.382  26.323  0.0541 -0.1269 -0.0298
63607W        W 6598  12.735   3.823  17.726  0.1337  0.2457  0.0247
63608W        W 6599  17.494  32.848  18.394 -0.1699 -0.3119  0.0770
63609W        W 6600  21.545  34.708  15.231  0.3585  0.1037 -0.0460
63610W        W 6601   8.399   2.967  25.838 -0.2799 -0.0056  0.0507
63611W        W 6602   4.639  25.552  21.584 -0.1097 -0.1752  0.0461
63612W        W 6603  21.737  19.781  16.238 -0.0789  0.0243  0.2108
63613W        W 6604  17.962  34.564  14.134 -0.3893  0.0648  0.3081
63614W        W 6605  10.069  22.377  23.304  0.1636 -0.0766 -0.2028
63615W        W 6606   9.094  12.696  17.074  0.1427  0.3011  0.1488
63616W        W 6607   7.798  32.432  18.633 -0.0867  0.0334 -0.1473
63617W        W 6608  27.785  21.672  13.494  0.1065  0.2358 -0.0078
63618W        W 6609   2.258  26.754  23.403 -0.0057  0.4281 -0.0356
63619W        W 6610   3.122  25.246  18.133  0.2529 -0.1640  0.0131
63620W        W 6611  14.371  29.971  17.106  0.0441 -0.0159 -0.2658
63621W        W 6612  19.603  29.871  21.334  0.1615 -0.0794 -0.0353
63622W        W 6613  14.159  23.127  16.839 -0.0423 -0.1204  0.2614
63623W        W 6614   4.793  21.873   0.766  0.0108 -0.3754  0.0353
63624W        W 6615  23.280  32.447  15.246  0.1948  0.1820 -0.0566
63625W        W 6616  21.159  31.615   1.469 -0.0272 -0.1457  0.3306
63626W        W 6617  11.128  15.088  18.515  0.1174 -0.2113 -0.0120
63627W        W 6618  13.934  18.336  17.032 -0.1014  0.0522  0.0211
63628W        W 6619  29.174   1.228  13.612  0.3931  0.3318  0.0718
63629W        W 6620   8.405  25.795  21.828 -0.2747 -0.0281  0.0590
63630W        W 6621  14.609  29.845  20.628  0.2443  0.1483 -0.2335
63631W        W 6622  29.071   1.428  21.791  0.1405 -0.2946  0.4202
63632W        W 6623  18.145  28.197  17.477  0.0604  0.2768  0.0743
63633W        W 6624   8.546   8.165  25.816  0.0960 -0.0023  0.3751
63634W        W 6625   8.811  33.009   0.189 -0.3326 -0.0826 -0.1374
63635W        W 6626  30.891  19.911   5.627 -0.1735 -0.1352 -0.0809
63636W        W 6627   9.693  17.576  14.769  0.1842  0.2012 -0.1520
63637W        W 6628   5.987  27.335  15.696  0.4506 -0.1046 -0.1318
63638W        W 6629   1.839   4.489   1.579 -0.0030 -0.1574 -0.2592
63639W        W 6630  27.898  26.775  14.556 -0.2296 -0.0946  0.1351
63640W        W 6631  21.805  26.407  28.936 -0.1858  0.0545 -0.0912
63641W        W 6632  10.051  30.349  20.092  0.3502 -0.1655  0.0956
63642W        W 6633  22.534   7.985  25.626  0.1870 -0.2341  0.1417
63643W        W 6634  12.360  14.681  28.631 -0.0677 -0.1972 -0.2937
63644W        W 6635  27.886  32.136  19.190  0.0039  0.0912 -0.3102
63645W        W 6636  24.977  19.249  18.787  0.0239  0.0192 -0.0550
63646W        W 6637  13.773  23.579  23.525 -0.3146  0.0669  0.0233
63647W        W 6638   5.139   8.914  19.288  0.1180 -0.0476  0.1819
63648W        W 6639  28.468  29.438  14.056 -0.2287 -0.1594  0.2084
63649W        W 6640  11.890  11.213  14.678 -0.0832  0.1757 -0.0153
63650W        W 6641   6.223  15.814  23.979  0.0522 -0.2300 -0.1024
63651W        W 6642  11.498  19.717  22.579 -0.0052  0.4359  0.1576
63652W        W 6643  15.605  22.924   2.534  0.2666 -0.1094 -0.1522
63653W        W 6644  15.429   7.881   2.995 -0.0412  0.0298 -0.0782
63654W        W 6645   3.182  26.814  16.375  0.1612  0.0765  0.0976
63655W        W 6646  19.175  29.213  14.297 -0.0380  0.2207 -0.1465
63656W        W 6647   0.499   5.433  24.959  0.1582  0.1931  0.0936
63657W        W 6648  17.854   5.767  16.258 -0.3530  0.0102 -0.4366
63658W        W 6649  34.148  33.860  14.578 -0.0001  0.1956 -0.1552
63659W        W 6650   3.580  25.665  24.902  0.0924 -0.3736  0.2414
63660W        W 6651  14.998  15.099  24.941  0.1967  0.2740  0.1383
63661W        W 6652  15.140   2.889  23.444  0.1226 -0.0657  0.0925
63662W        W 6653  25.407   1.626  12.695  0.1064  0.1419  0.1200
63663W        W 6654   5.812   9.151  17.971 -0.0009 -0.2437 -0.1149
63664W        W 6655   5.851  20.505  15.202 -0.0664 -0.2874 -0.0695
63665W        W 6656  16.762  28.338  19.206 -0.0658  0.0855  0.2326
63666W        W 6657  25.017   2.049  15.041 -0.1381  0.2028  0.1121
63667W        W 6658   7.735  31.071  19.578 -0.2257 -0.0888  0.1416
63668W        W 6659  20.291  31.815  17.052  0.2515 -0.1800  0.3090
63669W        W 6660  14.379  26.308   6.032 -0.1756 -0.0155  0.0257
63670W        W 6661   2.579  11.368  16.192 -0.1806  0.3308 -0.1310
63671W        W 6662  18.964  29.397  16.995  0.0740 -0.0539 -0.3473
63672W        W 6663   6.397  25.787  23.297  0.0248  0.2800  0.2714
63673W        W 6664  31.494  31.917  22.355  0.0508  0.0761 -0.0455
63674W        W 6665  19.653   0.165  17.903  0.0485 -0.1252 -0.2867
63675W        W 6666  12.278  23.266  25.521 -0.0037  0.1621 -0.2261
63676W        W 6667   8.605   1.561  14.632  0.3507  0.1871 -0.1314
63677W        W 6668  14.765  30.566   0.548 -0.0788  0.2653  0.0019
63678W        W 6669  20.195  34.515  16.409  0.0627  0.1703 -0.0479
63679W        W 6670  28.008   5.382  22.305 -0.0407 -0.1271  0.3761
63680W        W 6671   9.898  28.476  23.221  0.1660  0.2274 -0.0395
63681W        W 6672  10.575   2.787  17.486  0.2162  0.3026 -0.1344
63682W        W 6673   3.970  14.935  23.375  0.0616 -0.1205  0.0254
63683W        W 6674   7.295  32.358  23.270 -0.1224 -0.1485  0.1484
63684W        W 6675   7.101  19.090  21.059 -0.0176 -0.1394  0.0881
63685W        W 6676  21.091   7.419  19.165  0.1353  0.3035  0.0745
63686W        W 6677  17.093   6.592  24.033  0.1366  0.4524  0.0738
63687W        W 6678   5.420   0.939   1.448 -0.0470  0.2924 -0.6386
63688W        W 6679   9.080  29.828  25.363  0.1196  0.1619  0.0001
63689W        W 6680  21.116   0.646  20.146 -0.0496 -0.1784 -0.1647
63690W        W 6681  18.399   3.609  26.936  0.1197 -0.0584 -0.1388
63691W        W 6682   6.395  28.443  17.005  0.1779 -0.0624 -0.1164
63692W        W 6683  10.791   1.679  21.683  0.1263  0.1948  0.0227
63693W        W 6684  32.753  24.618  15.552  0.1678  0.1292 -0.2536
63694W        W 6685  13.786  20.272  23.973  0.0977 -0.2698  0.0080
63695W        W 6686  14.703  23.449  16.886 -0.2217 -0.0913 -0.0838
63696W        W 6687   4.451   1.102  23.527  0.0300  0.2280  0.1005
63697W        W 6688   4.639  16.252   4.297 -0.1785  0.1089 -0.0124
63698W        W 6689   6.052  24.353  14.543  0.0829  0.0011  0.0715
63699W        W 6690   3.580  15.781  18.013 -0.0903 -0.1492 -0.1150
63700W        W 6691   6.180   0.861  20.862  0.0363 -0.1494  0.1742
63701W        W 6692   6.507  10.060   1.872 -0.1360 -0.2477 -0.3012
63702W        W 6693  21.449  31.991   0.802  0.1423  0.0065  0.2336
63703W        W 6694   0.400  14.849  20.514 -0.2418 -0.3237  0.2605
63704W        W 6695  18.337   8.201  25.256  0.1827  0.0308 -0.0494
63705W        W 6696  24.057  23.002  21.450 -0.0803  0.1587 -0.0790
63706W        W 6697  24.187  34.651  14.903  0.1232  0.0099 -0.1222
63707W        W 6698   5.572  24.745  23.435 -0.2528 -0.1621  0.1227
63708W        W 6699   3.942  21.779  23.942 -0.0069  0.2997 -0.0672
63709W        W 6700  10.203  32.783  25.464  0.1139 -0.1191  0.2544
63710W        W 6701  12.760  11.890  15.331 -0.2223 -0.0515 -0.0021
63711W        W 6702  21.164   2.777   7.866  0.0681 -0.0880  0.2009
63712W        W 6703  20.668  16.771  14.442  0.2790  0.2985 -0.2096
63713W        W 6704  18.795  25.333  20.604 -0.0932  0.1310  0.3430
63714W        W 6705  26.582  23.497  14.500  0.2584  0.1125  0.3259
63715W        W 6706  27.100   2.094  15.987  0.3285 -0.0678  0.1380
63716W        W 6707   0.039   1.880  29.008  0.0535 -0.0591 -0.0207
63717W        W 6708  32.782   2.480  24.100 -0.4785  0.0943 -0.4023
63718W        W 6709  19.774   5.416  16.014 -0.1584 -0.0543  0.1687
63719W        W 6710  26.712  29.734  19.038  0.0560 -0.1456 -0.1403
63720W        W 6711   0.008  25.234  25.824  0.0636 -0.2408  0.2190
63721W        W 6712  16.127   7.312  27.786 -0.3256 -0.0693  0.0600
63722W        W 6713  30.994  10.456  15.964 -0.0984 -0.1750  0.2598
63723W        W 6714  18.573   2.916  15.533 -0.3506 -0.0365  0.0130
63724W        W 6715  22.440  29.061  25.311 -0.0314 -0.1728  0.0412
63725W        W 6716  17.472  29.988  19.207 -0.1182  0.0755 -0.0447
63726W        W 6717  12.605  17.911  17.153 -0.1591  0.1701 -0.0141
63727W        W 6718   9.746  20.745  22.141  0.2989 -0.0240 -0.1007
63728W        W 6719  16.477  22.367  16.360  0.1857 -0.0591 -0.0548
63729W        W 6720   6.935  32.626  17.659  0.1465  0.1351  0.1437
63730W        W 6721  17.590   1.170  20.181 -0.0589  0.1033 -0.0635
63731W        W 6722  11.245  29.394   0.192  0.0580 -0.2206 -0.0330
63732W        W 6723  32.547  11.467  22.555 -0.0897 -0.0807  0.3355
63733W        W 6724   5.690  18.484  27.741  0.0683  0.0953 -0.3079
63734W        W 6725   2.499  25.097  19.681 -0.2849 -0.0933 -0.0377
63735W        W 6726   1.338   9.238  25.193 -0.0395 -0.1795  0.1329
63736W        W 6727   9.192  20.743  18.223  0.1988  0.0868 -0.1700
63737W        W 6728  20.050   2.326  23.045  0.0792  0.0065  0.1444
63738W        W 6729  18.376  34.721  19.619 -0.0857 -0.2985 -0.1120
63739W        W 6730  17.680   4.016   3.669  0.1239 -0.1358  0.1242
63740W        W 6731   0.371  17.895  16.744 -0.1449  0.1647  0.1045
63741W        W 6732  34.473  32.430  24.432 -0.2433 -0.4147 -0.1910
63742W        W 6733  22.601  17.745  22.559 -0.2530  0.0075 -0.2473
63743W        W 6734   2.939   1.452   0.776  0.3935  0.0747  0.0881
63744W        W 6735   3.313  30.656  17.813  0.0448  0.0729 -0.0663
63745W        W 6736  32.396  31.211  26.646  0.2966  0.3282 -0.0512
63746W        W 6737  12.796   0.783  20.019 -0.2564  0.2543 -0.1285
63747W        W 6738  34.320  33.396  15.071  0.3200  0.2989 -0.1537
63748W        W 6739  11.795  18.432  24.503  0.0239 -0.1962  0.0772
63749W        W 6740  14.498   5.780  27.858 -0.0165 -0.0552 -0.0475
63750W        W 6741  11.278  27.052  14.605  0.1887  0.0234  0.1985
63751W        W 6742  21.047  30.717  13.594  0.1000 -0.2769 -0.1338
63752W        W 6743  23.455  14.510  14.875 -0.0776  0.2541 -0.1739
63753W        W 6744  12.043  18.949  15.845  0.1853 -0.0135  0.1290
63754W        W 6745  22.394  32.366  26.868  0.0284  0.0271 -0.1530
63755W        W 6746  27.632  25.406  13.713  0.0156 -0.3325 -0.0365
63756W        W 6747  10.532   2.183   0.130 -0.0549  0.2570  0.0020
63757W        W 6748  15.442  30.731  14.575  0.1225  0.0489 -0.0151
63758W        W 6749  28.739   0.703  14.154 -0.1297 -0.1930  0.1507
63759W        W 6750   6.557  23.809  18.748  0.0095  0.2646 -0.0769
63760W        W 6751   6.198   5.554  18.266  0.0304 -0.1621  0.2785
63761W        W 6752  31.445   9.492  27.534 -0.0260  0.2233 -0.3077
63762W        W 6753   2.988  24.070  20.477  0.1711 -0.1178  0.0879
63763W        W 6754   5.600  24.551  26.821  0.1152 -0.0299  0.1043
63764W        W 6755  27.820  29.767  14.918 -0.0144  0.4031  0.1389
63765W        W 6756   2.484  18.455  24.945  0.0733 -0.0595 -0.0461
63766W        W 6757  16.887  30.436  28.729 -0.0091  0.1896 -0.0649
63767W        W 6758   3.962  23.844  18.319 -0.0849 -0.2430  0.1776
63768W        W 6759  16.982   4.789  16.509  0.2979  0.0087  0.0721
63769W        W 6760   1.437  34.654  19.006  0.4221  0.0734  0.0922
63770W        W 6761  11.177  18.101  21.414 -0.0603  0.2344 -0.0510
63771W        W 6762  15.447   1.181  23.273  0.1367 -0.0083  0.0164
63772W        W 6763  21.965   7.521  22.535  0.1199 -0.3791 -0.1940
63773W        W 6764  11.575  27.240  16.320  0.0860 -0.1172 -0.2273
63774W        W 6765   8.428   2.173  19.820 -0.3543  0.2681 -0.2489
63775W        W 6766  10.363   5.946  19.073 -0.2745 -0.2543 -0.1924
63776W        W 6767   0.908  23.780  16.263 -0.0590  0.0666  0.0472
63777W        W 6768  27.346  30.526  12.614  0.1130 -0.1107  0.1442
63778W        W 6769  23.738   3.885  13.920 -0.0267  0.3476 -0.3394
63779W        W 6770  32.214  15.273  26.437  0.0717  0.2128 -0.2093
63780W        W 6771  31.469  28.394  20.989  0.0385 -0.0889  0.1715
63781W        W 6772  24.304   0.178  20.176 -0.0457 -0.4158 -0.2687
63782W        W 6773   8.047   5.461  15.833  0.1801 -0.0002 -0.2830
63783W        W 6774  28.005  18.582  17.400 -0.0816  0.2435 -0.4842
63784W        W 6775  31.229   7.205  19.139  0.0752  0.2375 -0.1587
63785W        W 6776  17.010  27.064  14.639 -0.2968  0.0673 -0.1534
63786W        W 6777  29.759  30.439  14.872 -0.0616 -0.2621 -0.0833
63787W        W 6778  28.241   0.805  23.784  0.0869 -0.1234 -0.0750
63788W        W 6779   7.627  21.519  17.262 -0.0389  0.0543 -0.1067
63789W        W 6780  22.354  12.995  19.610  0.2728  0.2661  0.2910
63790W        W 6781   9.915  14.918  27.625  0.1152 -0.3504 -0.1500
63791W        W 6782  14.330   3.723   1.759  0.0988  0.0095  0.3173
63792W        W 6783  22.365  24.784  21.552  0.0592  0.1876  0.1882
63793W        W 6784   8.418   7.995  26.305 -0.2059 -0.0079  0.1469
63794W        W 6785  22.489  10.673  16.750  0.0859  0.2722  0.0689
63795W        W 6786  20.092  29.979  18.200  0.0413 -0.2039  0.1349
63796W        W 6787  10.783   5.471   2.073 -0.1028  0.0547 -0.0174
63797W        W 6788  16.380  32.585  21.425  0.3438  0.2648  0.1674
63798W        W 6789  33.496   6.806  22.201 -0.0593 -0.2845  0.0387
63799W        W 6790   8.414  25.257  26.960 -0.1129 -0.0530 -0.2222
63800W        W 6791  29.476  19.536  18.875 -0.0460 -0.0938 -0.2577
63801W        W 6792   3.736  34.636  25.539 -0.1080  0.2378 -0.1478
63802W        W 6793   4.707  22.162  22.776  0.1115 -0.0217 -0.3085
63803W        W 6794  18.479  32.739  28.400 -0.0766  0.1245 -0.0310
63804W        W 6795  26.425  24.854  18.273 -0.1719  0.0948 -0.0989
63805W        W 6796  14.590  26.010  13.587 -0.2819 -0.1583  0.2154
63806W        W 6797  15.087   2.743  21.703  0.0857 -0.1564 -0.0240
63807W        W 6798   1.977  18.391  28.961  0.1487 -0.0255  0.4473
63808W        W 6799  13.625  28.516   1.641 -0.1738  0.0721 -0.4065
63809W        W 6800  24.307  16.647  17.485  0.3785  0.0613 -0.1274
63810W        W 6801  10.900  33.454  16.025  0.1930  0.2620 -0.0449
63811W        W 6802  17.003   3.685   4.245  0.2728 -0.2983 -0.3206
63812W        W 6803   9.094  14.051  18.826  0.1218  0.2435  0.0165
63813W        W 6804  26.554  27.968  29.132  0.1372  0.2436  0.3530
63814W        W 6805  18.607  28.537   1.291  0.1599  0.3809 -0.2275
63815W        W 6806  11.489   6.054  21.812  0.4154 -0.1507 -0.0525
63816W        W 6807  26.101  29.053  21.443  0.0368  0.1636  0.2023
63817W        W 6808  22.429  24.085  21.987 -0.0089 -0.0592 -0.1764
63818W        W 6809   7.161   2.446   4.160 -0.0258  0.2538  0.1763
63819W        W 6810  16.385  12.047  14.848  0.1085  0.0337  0.0569
63820W        W 6811  23.017   1.587  14.436  0.0361  0.1796 -0.0960
63821W        W 6812  10.792  22.132  14.776 -0.0114  0.0591  0.0459
63822W        W 6813  12.408   8.288  27.574 -0.1645 -0.1710 -0.2214
63823W        W 6814   8.423  22.920  26.417  0.0054 -0.1493  0.2194
63824W        W 6815  15.329  34.754  16.941 -0.0424  0.2331  0.0596
63825W        W 6816   3.714  34.202  19.521 -0.0395 -0.1141 -0.0215
63826W        W 6817  17.012  33.070  16.253 -0.4588  0.1661  0.0602
63827W        W 6818   9.846  29.535  16.749 -0.0566 -0.1206 -0.0549
63828W        W 6819  14.926  22.851  22.061 -0.0941 -0.0953 -0.1255
63829W        W 6820  23.914  29.743  18.809  0.1611  0.0547 -0.1363
63830W        W 6821  32.078   2.995   3.221  0.0501  0.0342  0.0248
63831W        W 6822  14.810  18.014  15.958 -0.2390 -0.1091 -0.1747
63832W        W 6823  21.619  24.826  17.115 -0.0585 -0.2400  0.0928
63833W        W 6824   8.648  21.831  14.821  0.1712  0.1352 -0.0622
63834W        W 6825  13.383  13.706  21.106  0.2548 -0.0362 -0.1044
63835W        W 6826  22.925  14.459  18.617  0.0875  0.3323 -0.1517
63836W        W 6827  18.213  24.772  25.342 -0.0972 -0.2685  0.0359
63837W        W 6828  20.152  31.626  25.861 -0.0453 -0.3382  0.2526
63838W        W 6829  12.918  21.388  13.764  0.2634  0.0258 -0.1515
63839W        W 6830  17.328  14.710   8.927 -0.4330 -0.0407 -0.0835
63840W        W 6831  22.352  30.604  26.518  0.2498 -0.1791  0.3326
63841W        W 6832  26.597  34.429   5.138  0.4842  0.2721  0.0703
63842W        W 6833   5.893  31.669  15.121 -0.1855  0.1910  0.0349
63843W        W 6834  16.142  19.034  26.415 -0.1604  0.0859  0.1628
63844W        W 6835  31.669   4.617  14.688  0.2070 -0.0059 -0.0798
63845W        W 6836   7.459  22.330  24.733 -0.2835  0.2635  0.1804
63846W        W 6837  12.293   9.152  25.451  0.2649 -0.0112  0.2586
63847W        W 6838  15.152  26.922  15.897 -0.1407 -0.3440  0.0832
63848W        W 6839  18.459  28.608  14.191  0.5679 -0.1447 -0.0602
63849W        W 6840  28.835  34.659  24.569  0.2911 -0.2274  0.0194
63850W        W 6841  18.055  30.130  25.104  0.4517 -0.1765  0.2188
63851W        W 6842   4.326   1.828   2.433 -0.0830 -0.0894 -0.2549
63852W        W 6843  16.140   3.275   1.479  0.0186  0.0792 -0.0580
63853W        W 6844  14.225  16.083  12.665 -0.0464  0.0346 -0.0537
63854W        W 6845   9.138  29.249  26.353  0.0127 -0.4381 -0.0066
63855W        W 6846  20.151   0.039  14.058 -0.0980 -0.0859 -0.1142
63856W        W 6847  21.739  20.221  13.691 -0.0621 -0.1368  0.0588
63857W        W 6848  13.137  17.988   2.540  0.2191  0.1047 -0.0513
63858W        W 6849  14.419  12.391  19.987 -0.3745 -0.1798  0.2952
63859W        W 6850   5.249  25.882  20.025  0.1004 -0.1925  0.2724
63860W        W 6851   8.322  30.689  22.978  0.1206  0.0244 -0.1185
63861W        W 6852  31.790   6.827  16.357  0.0697  0.2001 -0.0943
63862W        W 6853  33.847  16.545  17.985  0.1978 -0.1204  0.1762
63863W        W 6854  30.918  29.461  14.992  0.0947  0.1094  0.0752
63864W        W 6855  21.688  31.007  17.899  0.0655  0.2127 -0.0146
63865W        W 6856   6.091  28.091  18.235  0.1518  0.2877 -0.2048
63866W        W 6857   1.700  25.725  22.860  0.1347  0.1398  0.3907
63867W        W 6858  19.966  19.336   1.869  0.0540  0.3673  0.0887
63868W        W 6859   4.746  14.184  15.187  0.5711 -0.1689  0.1503
63869W        W 6860  17.518  13.396  28.248 -0.0771 -0.1284 -0.1045
63870W        W 6861  21.743  33.231   1.588 -0.3640 -0.0802 -0.1496
63871W        W 6862  23.272  31.896  15.594  0.0596 -0.2561  0.3498
63872W        W 6863  33.219  20.309  28.879  0.2821  0.0149  0.2453
63873W        W 6864  18.820  22.596   8.523 -0.0116 -0.1951  0.1220
63874W        W 6865  12.464  30.129  19.230 -0.2016  0.1478  0.0015
63875W        W 6866  11.463   4.926  19.066 -0.3319  0.0528 -0.2982
63876W        W 6867   2.418  27.783  19.415  0.1346  0.0189  0.0860
63877W        W 6868  13.091  34.708   2.610 -0.0903 -0.1755  0.1362
63878W        W 6869   9.838  21.051  26.142  0.0362 -0.0101  0.0487
63879W        W 6870  12.062  26.297  17.367 -0.0742  0.0036 -0.0068
63880W        W 6871  16.399  31.226  17.466 -0.1735 -0.2377  0.2529
63881W        W 6872  15.184  15.181  14.361  0.1226  0.0728 -0.1290
63882W        W 6873  26.591  25.422  20.348  0.1960  0.1377 -0.0983
63883W        W 6874  27.747   3.854  22.067  0.1271  0.2604 -0.0055
63884W        W 6875  20.156  32.137  18.318  0.1522 -0.0620  0.0838
63885W        W 6876  15.823   2.046   0.484 -0.0799  0.1015 -0.4928
63886W        W 6877   2.340  30.769  14.528 -0.0712  0.0271  0.2413
63887W        W 6878   3.929  19.818  27.685  0.2785  0.2213 -0.0586
63888W        W 6879   5.445   7.160  26.834 -0.0379  0.3808 -0.0823
63889W        W 6880  26.269  32.968  28.434  0.3668 -0.2261 -0.2704
63890W        W 6881  27.710   0.469  13.814  0.1891 -0.0676 -0.0499
63891W        W 6882   7.652  29.392  26.939  0.3941 -0.0697  0.2622
63892W        W 6883  14.081  30.329  19.941 -0.0024 -0.2441 -0.2383
63893W        W 6884  20.252  18.372  13.057 -0.1996  0.2142  0.0614
63894W        W 6885  13.422  27.032  24.999 -0.0181  0.0955  0.1271
63895W        W 6886  27.493  31.176   0.158 -0.0229 -0.4178  0.0355
63896W        W 6887   6.926  26.600  22.338  0.1643  0.1917  0.2613
63897W        W 6888   6.353  29.617  13.931  0.1688  0.0037 -0.0429
63898W        W 6889   3.619  22.914  27.851  0.0252 -0.0057 -0.0761
63899W        W 6890  16.320  31.482  21.862  0.0918 -0.2670  0.2058
63900W        W 6891  11.320  24.116  15.314  0.0147 -0.2693 -0.0138
63901W        W 6892   1.970  11.661  28.033 -0.0342  0.0164 -0.0514
63902W        W 6893  13.634  31.557  17.349  0.2682  0.2575  0.0899
63903W        W 6894   9.258   9.618  17.567 -0.0670  0.2054 -0.1641
63904W        W 6895   3.570   3.969  22.896 -0.2550  0.1289 -0.1765
63905W        W 6896  20.369   3.328  22.077  0.1202  0.0594  0.0091
63906W        W 6897  22.121   3.665  17.540  0.0174 -0.0795 -0.1316
63907W        W 6898   8.332   4.108  15.548  0.2092 -0.1618 -0.4007
63908W        W 6899  11.711  30.084  14.340 -0.1331  0.0649  0.3104
63909W        W 6900  16.366  27.171  24.711 -0.1848 -0.0274  0.0433
63910W        W 6901   6.037  24.682  10.033 -0.2123 -0.2417  0.2346
63911W        W 6902   3.614  17.412  20.628 -0.0247 -0.4579 -0.0612
63912W        W 6903   7.294  29.526  28.061 -0.3001  0.1410 -0.0466
63913W        W 6904  15.662  11.844  19.543 -0.0573 -0.3221  0.1939
63914W        W 6905  11.576  18.792   0.781 -0.0601  0.0632 -0.0147
63915W        W 6906  33.028  24.778  21.279 -0.0964  0.5331 -0.1007
63916W        W 6907  11.458  27.069  17.110 -0.0730  0.1701 -0.0106
63917W        W 6908   2.582  24.632  24.181  0.2274 -0.0310  0.1490
63918W        W 6909   9.900  21.254  21.298 -0.1222  0.2043  0.2685
63919W        W 6910   8.982  16.609   0.406  0.1258  0.1191 -0.1038
63920W        W 6911   2.599   7.948  16.881  0.0397 -0.0326 -0.0033
63921W        W 6912   2.433  20.769   2.351  0.0355 -0.3952  0.2156
63922W        W 6913  21.946  15.904  21.114  0.1400 -0.0818  0.1744
63923W        W 6914  12.047  15.941  19.346 -0.0492  0.0503  0.0328
63924W        W 6915  14.425   1.192  23.145 -0.1506  0.2301  0.1788
63925W        W 6916   5.054  11.218  15.422 -0.0569  0.2679  0.0926
63926W        W 6917   8.326  33.266  14.537 -0.0677  0.0579  0.0232
63927W        W 6918  21.505  19.652   1.666 -0.1145  0.0470  0.0150
63928W        W 6919  24.818  26.347  16.312  0.2429 -0.1055 -0.3795
63929W        W 6920  18.787  25.142  15.513 -0.1382 -0.0659  0.0813
63930W        W 6921  20.484  21.995   3.619 -0.2341 -0.1465  0.2773
63931W        W 6922  18.558  13.226  23.477 -0.3097  0.0938  0.1307
63932W        W 6923  20.048  24.929  13.796  0.3260 -0.3168  0.0630
63933W        W 6924  22.335   6.658  18.088  0.0767 -0.2308 -0.0041
63934W        W 6925   4.180  26.139  19.434  0.0308 -0.2179 -0.1590
63935W        W 6926  21.018  26.031  14.230 -0.0412 -0.0116  0.0786
63936W        W 6927   7.776  12.672  15.248  0.0317  0.0275 -0.0754
63937W        W 6928  26.803  26.724  15.994  0.2490  0.0775 -0.0888
63938W        W 6929  22.235  22.539  17.968 -0.0551  0.2982  0.2452
63939W        W 6930  22.423  20.782  23.269 -0.1927 -0.0146 -0.1500
63940W        W 6931   1.717   6.616  28.415 -0.1259  0.0682 -0.2722
63941W        W 6932  15.027   2.420  23.800  0.0890  0.1246 -0.0973
63942W        W 6933  31.535  14.484  10.250  0.2804  0.0031  0.1676
63943W        W 6934  12.124   4.990  16.281 -0.2763  0.0839  0.1254
63944W        W 6935  22.171  23.594  26.496 -0.0263  0.3711  0.1052
63945W        W 6936  13.250  32.939  17.902  0.0872  0.2246  0.0045
63946W        W 6937  16.602  30.176  25.989  0.0463 -0.1449  0.1271
63947W        W 6938   9.722  14.831  16.623  0.1103  0.2744 -0.0108
63948W        W 6939  18.493  22.100  14.335 -0.2456  0.1307  0.0262
63949W        W 6940  29.955   4.502  26.636  0.1871 -0.7184 -0.3420
63950W        W 6941  14.650  19.158  28.550 -0.1044 -0.1390 -0.1735
63951W        W 6942  11.713   4.286  15.118 -0.1305 -0.2878  0.0482
63952W        W 6943  34.009  20.941  23.157 -0.2575 -0.1365 -0.0638
63953W        W 6944  21.131  32.276  16.809 -0.0713 -0.0773 -0.0664
63954W        W 6945  22.776  22.342  17.884 -0.1878  0.2199  0.0468
63955W        W 6946  34.785   5.755   7.688 -0.0150  0.0209 -0.1033
63956W        W 6947  19.264  19.068   0.305 -0.1383 -0.2342  0.0459
63957W        W 6948  16.695  21.010  18.543 -0.1535 -0.1938 -0.1300
63958W        W 6949   9.064  23.673  23.467  0.2693 -0.2683 -0.1094
63959W        W 6950  16.810  28.939  19.444  0.1512 -0.4127  0.0006
63960W        W 6951  10.459  29.919  18.410 -0.0062  0.0885  0.1541
63961W        W 6952  11.662   0.317  15.157 -0.4089  0.0393 -0.3167
63962W        W 6953  12.358  15.050  27.415  0.2044 -0.3713  0.0354
63963W        W 6954  30.161  24.958  19.849  0.0510 -0.0661 -0.2079
63964W        W 6955  16.633  32.228  16.324 -0.0691  0.0180  0.1858
63965W        W 6956   6.192  31.972   3.243 -0.0617 -0.3233 -0.0177
63966W        W 6957  20.937   9.653  16.692 -0.3552  0.3141 -0.0502
63967W        W 6958  34.569   5.437  23.150 -0.0022 -0.1076 -0.3672
63968W        W 6959   7.849  33.669  17.451 -0.0336  0.1335 -0.1651
63969W        W 6960  11.102   0.146   3.382  0.1535  0.0214 -0.2903
63970W        W 6961  15.831   8.771  16.582  0.2139 -0.0347  0.1022
63971W        W 6962  14.721  24.366  18.136  0.1381  0.2712  0.2006
63972W        W 6963  12.541  10.161  18.310 -0.2735 -0.1942  0.1332
63973W        W 6964   6.002  21.353  27.852  0.1373  0.1741 -0.4372
63974W        W 6965  14.873  29.765  17.938  0.1279 -0.0832  0.1153
63975W        W 6966  17.180  24.404   4.190 -0.1483  0.0544 -0.0943
63976W        W 6967   8.986   2.014  20.621 -0.0818 -0.0959  0.2294
63977W        W 6968  29.312   4.287  16.025 -0.0470 -0.3308 -0.0140
63978W        W 6969  10.624  25.205  26.364 -0.0053 -0.1268  0.0069
63979W        W 6970  11.735  30.943  18.131  0.1944 -0.0319  0.1507
63980W        W 6971  13.877  26.346  25.252 -0.1671 -0.1915  0.1715
63981W        W 6972  19.593  32.400   4.559  0.0626 -0.1820  0.0720
63982W        W 6973  34.486  28.517  14.977 -0.4004 -0.1119 -0.0439
63983W        W 6974  29.103   3.024   0.030  0.0665 -0.0257  0.0412
63984W        W 6975   8.286  19.108   6.455 -0.1114  0.0712  0.0672
63985W        W 6976   1.353  15.949  20.813  0.4789 -0.2381  0.1302
63986W        W 6977   1.358   8.966   1.025 -0.0723  0.2017 -0.0197
63987W        W 6978   7.481  26.135  17.781 -0.0726  0.2109 -0.2283
63988W        W 6979  10.947  14.106   3.352  0.2381  0.0434 -0.3906
63989W        W 6980   8.575  22.209  19.177  0.0091 -0.0701 -0.0842
63990W        W 6981  19.079  33.655  19.087 -0.0528  0.2336  0.2537
63991W        W 6982   4.358  34.378  18.248 -0.0958  0.0307  0.4259
63992W        W 6983  33.927   5.033  22.217 -0.0392 -0.1495  0.1801
63993W        W 6984   5.858  19.801  16.459  0.0533 -0.0321  0.0347
63994W        W 6985  11.310   6.838  16.719  0.1491 -0.0177  0.0258
63995W        W 6986  11.153  23.472  20.995  0.1006 -0.0715 -0.2621
63996W        W 6987   6.924  22.018  22.409 -0.1275  0.2455 -0.1895
63997W        W 6988  15.832  27.784  18.279  0.4039  0.1250 -0.2580
63998W        W 6989   1.552  25.258   0.174  0.1093  0.2003  0.2715
63999W        W 6990  28.823  27.750   1.581  0.1263 -0.0489 -0.0331
64000W        W 6991   7.705  34.167  21.059  0.1258  0.2214 -0.3038
64001W        W 6992  19.168  24.492  14.083 -0.3621  0.0799 -0.1413
64002W        W 6993  13.324  29.800  21.976  0.1102  0.2832 -0.1256
64003W        W 6994  31.989  26.501  17.902 -0.2366  0.0946 -0.0898
64004W        W 6995  21.438  25.721  22.318  0.0291 -0.1145  0.2923
64005W        W 6996  21.217   4.983  14.767 -0.2957 -0.3813  0.0534
64006W        W 6997  11.659  23.538  20.836 -0.3546 -0.2902 -0.2711
64007W        W 6998  12.650  28.808  14.774 -0.1506 -0.1258 -0.2894
64008W        W 6999  11.036  33.744  22.412 -0.5056 -0.1138  0.1995
64009W        W 7000  11.331  30.030   4.569 -0.0824  0.0087 -0.0143
64010W        W 7001  30.182  21.773   8.158 -0.0988 -0.0088 -0.2576
64011W        W 7002  14.139   8.868  29.138 -0.0660  0.1214 -0.3074
64012W        W 7003  11.419  18.514  21.513 -0.2314  0.1568 -0.0081
64013W        W 7004  17.979  34.296  25.435  0.1980  0.0655 -0.0349
64014W        W 7005   5.884  29.006  17.038 -0.1641  0.2329 -0.1742
64015W        W 7006   8.391  26.151   5.490  0.2264 -0.0282 -0.2008
64016W        W 7007  18.934  13.863  22.554 -0.2950 -0.2449 -0.0302
64017W        W 7008  20.130  28.544  14.283  0.0322 -0.0501 -0.1397
64018W        W 7009  34.284  19.319  20.669  0.0411  0.0112 -0.0325
64019W        W 7010  34.337  22.060   2.803 -0.3548 -0.3085 -0.3152
64020W        W 7011   8.456  17.986  24.788  0.0709  0.1500 -0.1061
64021W        W 7012  25.375  24.918  19.086 -0.1203 -0.3273  0.0974
64022W        W 7013  12.289  10.809  18.803 -0.1318 -0.2329  0.2979
64023W        W 7014  25.416  29.293  24.600 -0.0735 -0.1127 -0.0603
64024W        W 7015   4.486  30.798   0.415  0.1665 -0.2242 -0.1590
64025W        W 7016  14.281   5.604   2.097  0.0756  0.2644  0.1759
64026W        W 7017  22.135  29.237  15.348  0.1138 -0.1937  0.3848
64027W        W 7018  14.114   1.270  20.542 -0.3802  0.1000  0.1762
64028W        W 7019  20.298   6.750  15.448 -0.0809 -0.0966  0.2271
64029W        W 7020  12.172  34.800  20.657  0.2852 -0.1770  0.3683
64030W        W 7021  25.855  33.536   4.692  0.0014 -0.0985  0.3932
64031W        W 7022  17.923   0.199  15.968 -0.3484 -0.0842 -0.1621
64032W        W 7023   7.404  34.120   9.569  0.2982 -0.1820 -0.1705
64033W        W 7024  16.734   3.396  25.566  0.3699  0.1438 -0.1747
64034W        W 7025   6.735   1.674  24.072  0.1033  0.1071  0.0018
64035W        W 7026   5.410  11.190  15.779  0.0264 -0.1570 -0.0083
64036W        W 7027   5.303  13.667  27.412  0.0378 -0.4815  0.2154
64037W        W 7028  15.949  31.136   6.051 -0.0009  0.1534  0.3519
64038W        W 7029  23.459  23.471   8.871  0.1079 -0.0809 -0.0587
64039W        W 7030   2.886  12.583   0.815  0.1249 -0.1179  0.1464
64040W        W 7031   7.178   1.655  21.026 -0.1265 -0.1809 -0.0828
64041W        W 7032  13.597  32.987   1.968 -0.0854  0.1149 -0.0377
64042W        W 7033  10.022  27.900   4.078 -0.0613 -0.1468 -0.4071
64043W        W 7034   5.282   2.061  23.951  0.1466 -0.0497 -0.2103
64044W        W 7035  12.863   2.907  16.033  0.0099 -0.0597  0.1783
64045W        W 7036  20.643   6.731  15.016  0.3148  0.0102 -0.1668
64046W        W 7037   9.232  12.923  18.870 -0.1039 -0.1247 -0.3059
64047W        W 7038   9.267  22.146  24.709 -0.1680  0.0883 -0.1553
64048W        W 7039  17.967  22.634  13.663 -0.1338  0.0281 -0.1563
64049W        W 7040  20.510  20.999  19.968 -0.0476  0.4331  0.0906
64050W        W 7041  13.609  23.978  19.956  0.1246 -0.1269 -0.1300
64051W        W 7042   6.792   9.425  18.392  0.1862  0.2209  0.0597
64052W        W 7043  13.528  28.995   7.333  0.0970 -0.0325  0.1679
64053W        W 7044  30.542   7.806   1.672 -0.0026 -0.2538 -0.1032
64054W        W 7045   7.458  29.619   8.484 -0.3646 -0.0272  0.0664
64055W        W 7046  17.039  13.931  26.156 -0.2914  0.2526  0.5054
64056W        W 7047  10.939  33.072  16.675  0.0918 -0.1714 -0.0824
64057W        W 7048   9.106   0.214  24.715  0.1891  0.1528 -0.2354
64058W        W 7049   4.008  26.346  28.779  0.1060 -0.1992  0.0853
64059W        W 7050  22.270  29.423  28.116  0.5478 -0.3546  0.2379
64060W        W 7051  27.457   6.252  16.144 -0.0383  0.0037  0.0328
64061W        W 7052  16.065  28.205  28.886 -0.4155  0.1475  0.1847
64062W        W 7053   6.773  17.789  28.766  0.0670  0.1534  0.0786
64063W        W 7054   6.454   6.277  16.245 -0.1041  0.0553 -0.1764
64064W        W 7055  34.261  34.736  14.301  0.1942  0.1607 -0.1467
64065W        W 7056   8.682  19.914  19.124  0.2441 -0.1153 -0.0100
64066W        W 7057   3.193   1.867   0.885 -0.0006 -0.0542  0.0268
64067W        W 7058  23.772  33.207   0.426  0.0283 -0.2324  0.1640
64068W        W 7059  20.206  28.968  18.761 -0.2122 -0.0991  0.3669
64069W        W 7060  19.418  30.444  13.996 -0.0538  0.1839  0.0358
64070W        W 7061   5.217  30.027  26.134  0.1622  0.1040  0.0225
64071W        W 7062  12.262  27.686  26.931 -0.3904  0.0598  0.1989
64072W        W 7063  33.015  20.853   9.777 -0.1537 -0.2707  0.0627
64073W        W 7064  19.913  21.512   2.154 -0.0151 -0.4002  0.3386
64074W        W 7065  16.491  20.015  16.253  0.1612 -0.1454  0.0364
64075W        W 7066  32.309   5.660   8.110  0.0446  0.0923  0.2302
64076W        W 7067  16.777  31.310  26.579  0.2424 -0.0685  0.2281
64077W        W 7068   9.390  21.562  22.466 -0.0202 -0.0943 -0.0122
64078W        W 7069   4.156   1.536  14.936  0.1619  0.0318 -0.1953
64079W        W 7070   4.242   0.268  17.124  0.4266 -0.1012  0.1801
64080W        W 7071  14.717  27.531  17.909 -0.1687  0.0768  0.1332
64081W        W 7072  17.559  33.269  15.521  0.2873 -0.2578  0.0109
64082W        W 7073   7.276  25.620  25.473  0.4071  0.2452 -0.0604
64083W        W 7074  28.885  34.442   5.579 -0.0204  0.0692  0.2607
64084W        W 7075  33.044  20.025  23.321  0.2391 -0.1352 -0.1065
64085W        W 7076  15.816  21.863  18.327  0.1057 -0.0051 -0.1000
64086W        W 7077   6.235  27.555   3.497 -0.3079  0.1800 -0.1021
64087W        W 7078   1.173  32.123  14.247  0.2464 -0.0682 -0.0410
64088W        W 7079   1.358   0.415  23.806  0.0616  0.0135 -0.1328
64089W        W 7080  10.121  15.275   3.397 -0.0800  0.4714 -0.1604
64090W        W 7081  19.842  32.999   6.458 -0.1129 -0.1842  0.0603
64091W        W 7082  15.935  32.892  20.474  0.1538 -0.2427 -0.0485
64092W        W 7083  15.445  25.817  21.531  0.0911  0.0319 -0.1660
64093W        W 7084  13.924  21.057  16.024  0.1735  0.2583 -0.1453
64094W        W 7085  17.524  28.502   1.793 -0.0546 -0.0186  0.1423
64095W        W 7086  16.877  26.602  20.054  0.0555 -0.2405 -0.1838
64096W        W 7087  15.240  19.278  24.334  0.0539  0.0435 -0.0900
64097W        W 7088  26.250  26.382   4.306 -0.0411 -0.1011  0.0887
64098W        W 7089  10.118  27.638  17.230  0.1882 -0.1968  0.0838
64099W        W 7090  20.180   1.996  16.243 -0.1494 -0.1471 -0.1603
64100W        W 7091   2.119  22.126  24.039 -0.1234  0.2448 -0.1873
64101W        W 7092   5.439   5.641  18.083  0.1228 -0.1475 -0.1467
64102W        W 7093  17.619  28.304   2.913  0.2292 -0.0363  0.1225
64103W        W 7094  20.287  33.785  22.203  0.0763 -0.1402 -0.1556
64104W        W 7095   2.289  24.083  18.581 -0.1267  0.0809 -0.0354
64105W        W 7096  16.378  28.447   4.241 -0.0571  0.2911  0.3554
64106W        W 7097  17.144   3.379  28.864 -0.0676 -0.0725 -0.3052
64107W        W 7098  11.885  15.803  16.361 -0.1549 -0.0329 -0.5215
64108W        W 7099  23.281  23.101   7.392  0.1535  0.3602  0.1947
64109W        W 7100  22.505  26.544   2.120 -0.1054  0.0586  0.1419
64110W        W 7101  22.008   5.418   1.051  0.0923 -0.0700  0.0145
64111W        W 7102  19.065  18.544  25.534  0.0915  0.2637  0.0170
64112W        W 7103  15.055   0.177  20.344 -0.1463  0.3382  0.1404
64113W        W 7104  32.087  30.006  22.025 -0.4715  0.1015  0.0873
64114W        W 7105   0.735  30.669  13.795  0.2066  0.0473 -0.1659
64115W        W 7106   8.551  20.125  22.810 -0.1973 -0.4142 -0.2471
64116W        W 7107  10.310  24.194   1.219  0.0275 -0.1835  0.1157
64117W        W 7108  13.751   3.602   2.459 -0.2523 -0.1218 -0.0518
64118W        W 7109  24.436   0.980   9.486 -0.1733 -0.0756  0.0049
64119W        W 7110  24.657   7.013  23.993 -0.0219 -0.0081  0.2470
64120W        W 7111   7.038  34.519  25.051 -0.5981 -0.1444  0.1698
64121W        W 7112  18.134  27.732  18.230  0.1332  0.0585 -0.0562
64122W        W 7113  33.664   5.957  23.253  0.1050 -0.1326 -0.2458
64123W        W 7114  26.814  30.411  23.114 -0.0301  0.0179 -0.0235
64124W        W 7115  26.377  26.205  26.131  0.0426  0.1312  0.1258
64125W        W 7116  32.473  26.487  17.316 -0.0486  0.0704  0.2158
64126W        W 7117  13.787  27.029  14.868 -0.2611  0.5321 -0.0062
64127W        W 7118  27.561   8.574   0.447 -0.1892 -0.0421 -0.2052
64128W        W 7119  15.904  13.225  17.072 -0.1050 -0.1439 -0.4046
64129W        W 7120   9.663  27.109   3.786 -0.0891  0.0111 -0.1284
64130W        W 7121   8.226   4.835  20.101 -0.0235 -0.0686 -0.0013
64131W        W 7122  12.979  21.260  18.055 -0.0463 -0.3217 -0.0475
64132W        W 7123  22.283  32.866  27.451  0.3436  0.0586 -0.0569
64133W        W 7124   5.254  18.840  26.703  0.0514 -0.0624  0.1320
64134W        W 7125  32.565  25.479   3.839  0.0717 -0.2719  0.0642
64135W        W 7126   4.523   0.596   0.395 -0.1633  0.0724 -0.2187
64136W        W 7127   4.049  22.670  10.712 -0.1117 -0.3533  0.0054
64137W        W 7128  15.205  18.431  28.911 -0.0066 -0.0559  0.3827
64138W        W 7129  18.423  29.362  20.686 -0.2759  0.1546  0.0044
64139W        W 7130  16.874  21.593  20.402  0.1564  0.2729 -0.0715
64140W        W 7131  12.859   5.311  21.789  0.2696 -0.1989  0.2620
64141W        W 7132  10.575  31.098  17.113  0.0067  0.1310  0.2226
64142W        W 7133  33.978  33.257   4.172  0.0739 -0.0589  0.4471
64143W        W 7134   6.781  30.704   6.688 -0.0575  0.0925 -0.0226
64144W        W 7135  12.239  30.608  19.509 -0.0769  0.3161 -0.0828
64145W        W 7136  22.382  31.947  25.044  0.1144 -0.1894 -0.0356
64146W        W 7137  24.984  24.530  24.589  0.0066  0.1522  0.1016
64147W        W 7138  11.118  21.004   1.161  0.0703  0.1583 -0.0457
64148W        W 7139   1.582  12.551  27.617 -0.0941  0.0339 -0.2760
64149W        W 7140  19.689  20.594  20.158  0.1662  0.2388  0.0230
64150W        W 7141  18.965  34.109  18.199 -0.0233  0.0117 -0.0937
64151W        W 7142   8.182  22.104   7.432  0.0414 -0.3237  0.0205
64152W        W 7143  28.946   9.116  26.677  0.0835  0.1418 -0.1091
64153W        W 7144  13.782  30.252  22.378 -0.0991  0.1343  0.0533
64154W        W 7145   9.831  17.387  28.544 -0.0654  0.0315  0.0013
64155W        W 7146   3.240  23.570  27.531 -0.0682 -0.0729 -0.0162
64156W        W 7147   5.426  25.367   6.154 -0.0905  0.0265 -0.0648
64157W        W 7148  28.808  19.961  15.824 -0.1623 -0.1170  0.2749
64158W        W 7149  21.070  26.710  22.788  0.1372  0.1657 -0.1718
64159W        W 7150  16.033  11.876  23.074  0.1614 -0.0629  0.0872
64160W        W 7151  12.929   8.525  20.712 -0.0578 -0.0311 -0.0624
64161W        W 7152  16.708  25.767   0.630 -0.1401  0.1506 -0.2222
64162W        W 7153   3.530  26.025   6.244  0.0188 -0.0001 -0.1031
64163W        W 7154  17.451  27.798  16.677 -0.1473 -0.0761 -0.0589
64164W        W 7155  24.851  32.818  18.442  0.0134 -0.0545  0.2358
64165W        W 7156  19.842  32.521  22.916  0.1107  0.4329  0.1946
64166W        W 7157  33.846   3.787   2.524  0.0561  0.0887  0.0024
64167W        W 7158   5.812   0.138   6.387 -0.1056 -0.3407  0.1352
64168W        W 7159   4.071  32.096  28.267  0.0370  0.1671  0.0651
64169W        W 7160  31.022   2.830  20.645  0.0157  0.0938 -0.2367
64170W        W 7161  34.572  12.808   5.875 -0.2660  0.1980 -0.1500
64171W        W 7162  19.308  10.149   0.365 -0.3824  0.1647 -0.0361
64172W        W 7163  30.307  10.097   1.034  0.1137  0.0288  0.0090
64173W        W 7164  19.428  23.189  27.937  0.0910  0.0816  0.1315
64174W        W 7165   8.240  27.956  26.041  0.1418 -0.0561  0.3095
64175W        W 7166  13.949  16.310   6.370 -0.0912 -0.3432 -0.2443
64176W        W 7167  26.065  14.701  24.716  0.1228 -0.1340 -0.0045
64177W        W 7168   8.773  31.755  27.579  0.0442 -0.0068 -0.1633
64178W        W 7169  29.892  15.948  15.388  0.1977  0.4027 -0.1592
64179W        W 7170   6.323  27.613   9.384 -0.1176  0.0292  0.0591
64180W        W 7171   2.513  30.844  26.291  0.0507 -0.1059 -0.2037
64181W        W 7172  33.965  28.200  23.470  0.4607 -0.2080  0.2135
64182W        W 7173  14.197   5.383  28.739  0.0582  0.2763  0.0138
64183W        W 7174   7.300  24.122  10.328 -0.0863  0.1914  0.1735
64184W        W 7175  10.900  16.572   8.874  0.0343  0.1883  0.1864
64185W        W 7176   8.171  28.337  14.774 -0.0604  0.0752  0.4462
64186W        W 7177  18.122  30.749  19.490 -0.2154  0.1138 -0.1893
64187W        W 7178  24.053  18.307  19.376 -0.0894 -0.1391 -0.0578
64188W        W 7179   5.203   3.589   0.149 -0.1351 -0.1993 -0.5771
64189W        W 7180   1.320  19.485  21.831 -0.1402  0.2972  0.1325
64190W        W 7181  28.198   3.040  14.419 -0.1584  0.1003  0.0290
64191W        W 7182   3.965  34.231  25.235  0.2361 -0.3606 -0.0199
64192W        W 7183   6.407   3.894  21.337  0.1215 -0.4689  0.0023
64193W        W 7184  20.897  29.133  29.026 -0.0853 -0.2574  0.3514
64194W        W 7185  34.267  22.419  14.774 -0.2608 -0.0660 -0.1223
64195W        W 7186  10.128  19.338  18.523  0.0471 -0.0450 -0.1814
64196W        W 7187  10.068   0.498  24.317  0.0631  0.0757  0.1965
64197W        W 7188  28.564  27.806  18.728 -0.2256  0.0501 -0.1522
64198W        W 7189  32.051  32.669  16.199 -0.0013  0.1258 -0.0004
64199W        W 7190   5.593  31.360  16.969  0.0389 -0.0652 -0.2661
64200W        W 7191  25.179   1.576  14.808 -0.0621  0.0909 -0.3643
64201W        W 7192   2.410   7.971   2.433  0.2113  0.1966 -0.1846
64202W        W 7193  19.349  20.427  14.947 -0.2363 -0.2637  0.1847
64203W        W 7194  11.351  20.226  22.790 -0.2146  0.0448  0.0436
64204W        W 7195   5.343  29.915  10.246 -0.0116 -0.3717  0.2478
64205W        W 7196   3.596  29.034   8.635 -0.4472 -0.0134 -0.0800
64206W        W 7197  26.259   3.124  20.747 -0.0566 -0.1479 -0.0868
64207W        W 7198  17.619  11.231  16.640 -0.3381  0.0324  0.3201
64208W        W 7199  15.150  32.439  23.220  0.1062  0.0377 -0.2258
64209W        W 7200  17.007  30.310   9.940  0.4131 -0.0009 -0.0782
64210W        W 7201  11.487   1.672  25.451 -0.0110  0.0201  0.2285
64211W        W 7202  19.971  20.552  26.414 -0.0583  0.1633 -0.1617
64212W        W 7203  23.067   4.280  23.252  0.2644 -0.4858 -0.1437
64213W        W 7204   8.395  23.756  15.933 -0.0246  0.0475 -0.4900
64214W        W 7205  33.649  27.253  25.114  0.1212  0.3989 -0.1008
64215W        W 7206  12.495  15.773  20.898  0.0574 -0.0090 -0.1972
64216W        W 7207  31.205  20.848  25.493 -0.0438  0.1108  0.2647
64217W        W 7208  29.905  17.632   0.165  0.2868 -0.2203 -0.1716
64218W        W 7209   8.118  33.644  26.145  0.0073  0.1889 -0.0794
64219W        W 7210   6.426  29.297  15.271 -0.0710  0.1835 -0.1245
64220W        W 7211   6.055   3.264  20.027 -0.3005 -0.2028 -0.0815
64221W        W 7212   0.675   5.666  27.026 -0.2407 -0.1153  0.0498
64222W        W 7213   9.224  24.485  14.919 -0.3423 -0.0330 -0.2220
64223W        W 7214  25.167  24.180   1.813 -0.0121  0.2427  0.3018
64224W        W 7215  24.399  26.072  22.279  0.3789  0.1094 -0.1752
64225W        W 7216  12.573  29.564  29.102  0.1540  0.1362 -0.1872
64226W        W 7217  15.237  30.118  29.059 -0.2544  0.1569  0.2027
64227W        W 7218  16.027  22.530   6.832 -0.3095 -0.2458  0.0028
64228W        W 7219   1.480   2.183  29.098  0.2707  0.1790 -0.0944
64229W        W 7220   5.374   7.306   1.813  0.3137  0.0580 -0.1207
64230W        W 7221  14.120  27.906  14.955 -0.3039 -0.0695 -0.3294
64231W        W 7222  11.751  30.929   2.991  0.3952  0.1330 -0.2173
64232W        W 7223   7.046  31.021  24.747  0.1805 -0.1878 -0.2108
64233W        W 7224  20.160  29.964  16.047  0.1456  0.0970 -0.2318
64234W        W 7225  33.492  33.707  17.090  0.0833 -0.2099 -0.0420
64235W        W 7226  22.631   6.803   0.747 -0.0984  0.0824  0.0884
64236W        W 7227   9.822   3.724  15.482 -0.0062  0.1842 -0.1064
64237W        W 7228   8.947   5.582  24.234  0.2848  0.1440  0.3427
64238W        W 7229   9.713   3.996  20.948  0.2198 -0.0411  0.1621
64239W        W 7230   7.369  23.168  14.776  0.0985  0.0833  0.3856
64240W        W 7231  23.590  24.705  29.000  0.1742  0.4098 -0.1879
64241W        W 7232   4.069  21.258  28.551  0.0144 -0.1722 -0.1184
64242W        W 7233  21.495  30.243  22.394  0.0306  0.1728  0.1597
64243W        W 7234   7.192   3.659  25.492 -0.0133 -0.0909 -0.4452
64244W        W 7235  15.477  27.106  24.707 -0.2706 -0.1855  0.0637
64245W        W 7236  27.719  32.346  14.270  0.0432  0.2390  0.2803
64246W        W 7237  27.813   6.307   2.552 -0.5241 -0.0391  0.3336
64247W        W 7238  25.739  28.777  15.835  0.1032  0.0250 -0.2443
64248W        W 7239  13.434  32.009  17.252 -0.0693  0.2177 -0.0251
64249W        W 7240  15.838  18.360  14.798 -0.0460 -0.1891 -0.0250
64250W        W 7241  20.957  30.954  26.217 -0.0310 -0.2337 -0.0516
64251W        W 7242  13.714  26.786   7.640  0.3293  0.0156 -0.0873
64252W        W 7243  10.677  11.675   0.854  0.0800  0.0917 -0.1947
64253W        W 7244  11.292  25.181  15.999  0.0231  0.1766  0.0406
64254W        W 7245   5.790  14.185  26.753  0.0776  0.4878 -0.1504
64255W        W 7246   4.500  16.004   0.585  0.3212  0.0286 -0.1876
64256W        W 7247  14.673  32.178   5.844  0.0204 -0.2202  0.3547
64257W        W 7248  11.605  15.101  19.796  0.0088  0.2446 -0.0958
64258W        W 7249  23.134  23.353  22.625 -0.2218  0.1456 -0.1591
64259W        W 7250  17.846  24.722  17.389 -0.1618 -0.1144  0.1680
64260W        W 7251  17.460  22.542   5.204  0.0673 -0.1279  0.0572
64261W        W 7252  15.982  28.560  14.545 -0.1545 -0.0791  0.0666
64262W        W 7253  31.210   7.955  17.909 -0.0966  0.2672 -0.1048
64263W        W 7254  28.175  20.651  18.403 -0.0283  0.1022 -0.2117
64264W        W 7255   7.008  17.842  22.221 -0.0520 -0.0341 -0.2681
64265W        W 7256   1.406  32.494  26.057  0.1282  0.1228 -0.2407
64266W        W 7257  10.895  21.247  15.546 -0.0770 -0.2013  0.1854
64267W        W 7258   4.669  11.597   1.974 -0.0355 -0.0090 -0.0872
64268W        W 7259   3.273  28.722  27.742  0.1160  0.0268 -0.2990
64269W        W 7260   1.263  15.128   3.844 -0.0510 -0.0942 -0.2364
64270W        W 7261   3.631  27.124  14.559  0.0092  0.2057 -0.0219
64271W        W 7262  16.354  13.808   6.831  0.2288  0.2864 -0.4086
64272W        W 7263   5.589  10.845  23.237  0.3399  0.1022 -0.2398
64273W        W 7264   7.765  30.558  13.916 -0.0621 -0.0909  0.2526
64274W        W 7265  11.389  17.285  17.527  0.1343  0.0938  0.1156
64275W        W 7266  12.417  20.894  23.561  0.0672 -0.1504 -0.0679
64276W        W 7267  25.363   3.068   3.303 -0.0153 -0.0308 -0.6519
64277W        W 7268  14.504  22.869  15.922 -0.1258 -0.3500 -0.4397
64278W        W 7269   0.179  34.395  14.400  0.2089  0.2782  0.3398
64279W        W 7270  23.813  22.086   0.341  0.1455 -0.1505 -0.1587
64280W        W 7271   0.003  21.032  27.106 -0.1807 -0.2708 -0.1583
64281W        W 7272  15.877  30.592  18.538  0.0298 -0.0275  0.3713
64282W        W 7273  32.431   2.719  16.453 -0.3391  0.1020 -0.1005
64283W        W 7274  12.372  18.473  18.725  0.0936 -0.0746 -0.0487
64284W        W 7275  18.262   1.091   4.479 -0.0818  0.0348  0.2133
64285W        W 7276  25.126  25.545   2.301  0.0179  0.3992 -0.1363
64286W        W 7277  31.111  30.008  23.199  0.1964 -0.0730 -0.2251
64287W        W 7278  12.127   4.194  22.500  0.1215  0.1643  0.0726
64288W        W 7279  20.832  25.063   0.808  0.2870  0.4158 -0.0279
64289W        W 7280  33.401   0.320  27.781 -0.3160 -0.0281  0.1566
64290W        W 7281  15.871  22.144  12.812  0.1820  0.2734 -0.1102
64291W        W 7282  18.501  33.163   4.973 -0.1858  0.1911 -0.0466
64292W        W 7283  24.423   4.323  14.956 -0.1620 -0.1160  0.1734
64293W        W 7284  24.438  25.965  21.220 -0.1344 -0.2110  0.1602
64294W        W 7285  16.019  23.881  17.521 -0.1118 -0.1408 -0.1654
64295W        W 7286  34.446  32.948  27.198  0.4020  0.0189  0.1841
64296W        W 7287   6.680   3.708  22.900  0.1154 -0.0453 -0.1773
64297W        W 7288   9.145  29.140  28.474  0.0259 -0.0240  0.3434
64298W        W 7289  12.912  19.249  21.640  0.2727  0.0242  0.0425
64299W        W 7290   3.974  30.014  15.821 -0.1222 -0.0964  0.2092
64300W        W 7291  15.738  32.845  18.597  0.0719 -0.0751 -0.1085
64301W        W 7292  10.957   4.842  28.056 -0.1018 -0.0266  0.0503
64302W        W 7293   8.319  27.110  15.349 -0.1117 -0.2586  0.0107
64303W        W 7294  33.663   2.423   2.112  0.1630 -0.0930 -0.0403
64304W        W 7295  25.965  17.694  21.744 -0.1681 -0.0330  0.1585
64305W        W 7296  23.934  28.055   2.097 -0.2263  0.0936 -0.0227
64306W        W 7297   8.714  18.494  15.001 -0.3025 -0.0096  0.0745
64307W        W 7298  10.517  19.801   7.403 -0.0777  0.0288 -0.3241
64308W        W 7299   9.316   5.903   7.246 -0.2222  0.2923  0.0543
64309W        W 7300  32.686  30.125  24.052 -0.0218 -0.1520  0.1562
64310W        W 7301  14.275   1.497  22.606  0.0103  0.2017 -0.0714
64311W        W 7302  31.177  31.894  24.809 -0.0023 -0.2687  0.1827
64312W        W 7303  21.917  24.703   2.562 -0.2097 -0.2049 -0.0138
64313W        W 7304  30.391   7.770  21.369 -0.1141 -0.0719 -0.1810
64314W        W 7305  11.675   1.065  20.346  0.1565 -0.2386 -0.2125
64315W        W 7306  31.690  32.418   3.352 -0.0527  0.2391 -0.1000
64316W        W 7307  22.797  18.678  22.389  0.0635  0.1765  0.0507
64317W        W 7308  33.059  23.237  21.995  0.0836  0.0790  0.4053
64318W        W 7309   6.706  23.865  26.082  0.1518 -0.0690  0.0469
64319W        W 7310   4.017  30.818  22.189 -0.1118  0.3716  0.1302
64320W        W 7311  16.787  29.355  16.327  0.2067  0.0528 -0.1337
64321W        W 7312  15.756  32.707   7.352 -0.0570  0.5011  0.0853
64322W        W 7313   5.603  31.946  14.644 -0.0299  0.0070  0.0382
64323W        W 7314  22.194  28.663  28.882 -0.0119  0.3253  0.0608
64324W        W 7315  14.977  32.012   0.726 -0.1792  0.2576 -0.2034
64325W        W 7316   8.439  15.409   3.475 -0.2620 -0.0978  0.1626
64326W        W 7317   2.330   4.925  22.044  0.2672 -0.1096 -0.0667
64327W        W 7318  29.191  20.734  29.062 -0.1709 -0.0197  0.0380
64328W        W 7319  20.302  25.131  15.070  0.0228 -0.4133  0.1302
64329W        W 7320  21.866  31.089  18.637 -0.2708  0.1054 -0.1039
64330W        W 7321   5.012  10.283  24.346  0.1108 -0.2088  0.1358
64331W        W 7322  21.020  27.132  14.793 -0.0280 -0.1867 -0.0049
64332W        W 7323  23.083   2.618   4.538 -0.1153 -0.2577 -0.2025
64333W        W 7324  14.245  30.397  22.423 -0.1720  0.0591  0.0991
64334W        W 7325   4.247  15.009  24.612  0.1366  0.0505 -0.1343
64335W        W 7326  19.864  26.118   1.255 -0.0729 -0.0626 -0.2025
64336W        W 7327  13.980  13.099  17.501 -0.2391 -0.0814  0.0157
64337W        W 7328  10.263  34.006   4.307 -0.0859  0.1913 -0.0628
64338W        W 7329  16.661   0.642   2.421 -0.0420 -0.3123  0.2882
64339W        W 7330  34.446  15.197  22.705  0.1260 -0.2171  0.0463
64340W        W 7331   8.228  28.905  28.713 -0.0196  0.1468 -0.0969
64341W        W 7332  27.959   5.717  28.286 -0.0137 -0.1206  0.2717
64342W        W 7333  19.003  24.085   6.412 -0.0597 -0.2976  0.4175
64343W        W 7334  17.444   9.146   0.650 -0.2557 -0.1163 -0.1540
64344W        W 7335   5.041  12.157   0.828 -0.1869 -0.0687  0.2727
64345W        W 7336  33.289  23.974  17.869  0.1412  0.0750 -0.0921
64346W        W 7337  27.107  18.100   7.971 -0.0501  0.0415 -0.0295
64347W        W 7338  14.301  15.908   3.671  0.4191  0.2658 -0.2026
64348W        W 7339   9.690  26.594   5.847  0.0303 -0.3210  0.1908
64349W        W 7340  22.219  10.572  21.750  0.3299  0.0968  0.0208
64350W        W 7341   5.262  29.180  16.475  0.0697 -0.0939  0.0296
64351W        W 7342  15.312  31.893  24.655 -0.0835 -0.0302  0.0088
64352W        W 7343  15.110  22.492  15.105  0.2974  0.0741  0.0810
64353W        W 7344  20.668   0.470  29.120  0.0252  0.0299 -0.2666
64354W        W 7345  14.024  28.084  15.602  0.1213 -0.0685 -0.1612
64355W        W 7346   2.235   4.565  25.866  0.1982 -0.1369 -0.0762
64356W        W 7347   9.184   4.189  15.687  0.1081 -0.1661 -0.4667
64357W        W 7348  17.275  27.376  13.307 -0.2652 -0.1949 -0.3677
64358W        W 7349  17.467  26.350  22.019 -0.1162 -0.2316 -0.0237
64359W        W 7350  13.636  29.232   3.559 -0.1484 -0.0777  0.0878
64360W        W 7351  28.970  21.313  23.051 -0.0478 -0.0507  0.2879
64361W        W 7352  21.402   4.312  19.239  0.3143 -0.0420  0.0690
64362W        W 7353  29.198  17.333  17.253  0.2717  0.2464  0.0189
64363W        W 7354   3.651   4.669   5.745 -0.2906 -0.0100 -0.0893
64364W        W 7355  22.878  11.773  21.431 -0.0948 -0.4836 -0.2141
64365W        W 7356   5.476  25.244   9.960 -0.2434 -0.0564 -0.1043
64366W        W 7357  20.837  15.708  23.385 -0.1151  0.0433  0.3475
64367W        W 7358  11.625  27.569  21.818 -0.1484  0.3047 -0.3315
64368W        W 7359  12.968  29.669  26.962 -0.0126  0.2516  0.0201
64369W        W 7360  31.261  33.340  18.323 -0.0048  0.1465  0.1082
64370W        W 7361  14.167  20.474  23.151 -0.1434 -0.1312  0.0442
64371W        W 7362  28.825  26.308   5.980 -0.5047  0.1100 -0.0370
64372W        W 7363  26.654  21.085  20.244 -0.0085 -0.0816 -0.5902
64373W        W 7364  16.879  30.727  23.025 -0.1900 -0.1919 -0.0550
64374W        W 7365   9.098  12.731  19.915 -0.0488 -0.0700 -0.3198
64375W        W 7366  23.652   7.245  15.427  0.2900 -0.1129  0.1312
64376W        W 7367  24.161  29.096  16.965  0.1681  0.2554  0.0682
64377W        W 7368  12.857  21.347  24.965 -0.1011 -0.4230 -0.0790
64378W        W 7369   8.693   7.553  16.260 -0.0774 -0.1788  0.2267
64379W        W 7370  14.993  30.239  17.039 -0.0152 -0.2297 -0.0799
64380W        W 7371  13.196   3.084  11.060  0.3273  0.0464  0.0264
64381W        W 7372  21.106   0.834   1.068  0.2363  0.3482 -0.0417
64382W        W 7373  13.412  16.205   3.807  0.0311 -0.1230 -0.0811
64383W        W 7374  13.102  22.017  17.240  0.2741 -0.0747 -0.0760
64384W        W 7375  26.918  19.972  21.858 -0.2245 -0.2126  0.3413
64385W        W 7376  17.608  31.906   4.904 -0.0557 -0.3551 -0.0318
64386W        W 7377  13.269  25.742  27.126  0.1881 -0.2012 -0.2488
64387W        W 7378   4.371   2.349   2.248  0.0322 -0.1986 -0.1522
64388W        W 7379  29.742  12.247  19.004 -0.0875 -0.0746  0.1784
64389W        W 7380  26.041  13.791  20.502  0.0381 -0.2289 -0.1741
64390W        W 7381   4.205  23.409  23.756  0.0694  0.0164  0.0041
64391W        W 7382  15.549   5.062  16.329 -0.0053  0.1822 -0.0735
64392W        W 7383  16.684  21.015  23.728 -0.0074  0.1279  0.5527
64393W        W 7384  27.651  32.324  22.999 -0.0960 -0.3472 -0.0723
64394W        W 7385  16.145  32.154   1.936  0.2700  0.0127  0.0171
64395W        W 7386   2.346  29.172  18.763  0.0823  0.4995  0.1928
64396W        W 7387  12.416  26.890  25.231 -0.3143  0.1711 -0.0766
64397W        W 7388  29.570  24.374  17.197  0.0351 -0.2952 -0.0813
64398W        W 7389  12.723  31.521  19.117 -0.0272 -0.1574 -0.1737
64399W        W 7390  12.341  17.365  19.666  0.1020  0.0042 -0.0323
64400W        W 7391  21.731  29.827   0.771  0.0161 -0.3159 -0.3353
64401W        W 7392  29.738  26.505  15.376 -0.0508  0.2762  0.0331
64402W        W 7393  12.543  28.096  23.661  0.1589 -0.0565  0.0810
64403W        W 7394  18.497   2.655  20.136 -0.0541  0.2549 -0.1211
64404W        W 7395   8.177  33.102   3.128  0.2270  0.0554 -0.0382
64405W        W 7396  23.841  26.508  21.570 -0.0056 -0.0108 -0.0984
64406W        W 7397  22.575  27.223  18.579  0.1268  0.0410 -0.0505
64407W        W 7398  32.810  27.122  21.038  0.0887 -0.2625  0.3426
64408W        W 7399  22.023  24.997  16.300  0.3152 -0.2852 -0.1628
64409W        W 7400  10.808  20.272   8.255  0.4872  0.0410 -0.3536
64410W        W 7401  11.321   9.401  23.176 -0.0609 -0.2428 -0.1891
64411W        W 7402  18.200  26.023  25.679 -0.1626  0.1870 -0.4595
64412W        W 7403  12.176  28.871   7.656 -0.2699 -0.3046 -0.0126
64413W        W 7404  15.228   2.571  26.514  0.1896 -0.1357  0.5469
64414W        W 7405  16.921  26.035   1.024  0.1270 -0.0091  0.0458
64415W        W 7406  22.427  16.330   8.958  0.0455  0.0669 -0.3037
64416W        W 7407  13.071  10.638   1.533  0.0083 -0.0849  0.2589
64417W        W 7408  33.066   8.745  18.516 -0.2223 -0.0809  0.1031
64418W        W 7409  21.891   1.656   6.115  0.0303 -0.1279  0.0118
64419W        W 7410  13.020  20.392  26.152  0.2139 -0.0060  0.2967
64420W        W 7411   5.881  25.593  17.290 -0.0109 -0.0837  0.1459
64421W        W 7412  22.839  10.778  26.972 -0.0758  0.0369  0.1572
64422W        W 7413  20.822  17.182  15.991  0.0901 -0.1868  0.1663
64423W        W 7414   6.176  19.119  18.361 -0.0553 -0.0655 -0.0083
64424W        W 7415   4.245  12.556   4.065 -0.3919 -0.2025  0.0847
64425W        W 7416  10.162  21.891  19.622 -0.1311  0.0953 -0.1294
64426W        W 7417   4.169   5.674   5.822  0.0223  0.2289  0.2388
64427W        W 7418   1.726  26.853  23.968  0.2711 -0.0616 -0.1650
64428W        W 7419   4.000  20.597  24.132 -0.0875 -0.0873  0.1410
64429W        W 7420  29.180  23.601  16.629  0.3528 -0.2411 -0.1075
64430W        W 7421  16.909  21.876  26.106 -0.0164 -0.1257 -0.2325
64431W        W 7422  16.849  22.164   4.953  0.1265 -0.0565  0.1001
64432W        W 7423   5.804  33.779  29.063 -0.0786  0.3227 -0.1086
64433W        W 7424   4.570  28.882  19.719 -0.1485 -0.1827 -0.0464
64434W        W 7425  25.470  21.041  23.022  0.0390 -0.1385 -0.1481
64435W        W 7426  26.897  11.949  20.918  0.3239 -0.2234 -0.2925
64436W        W 7427   3.278  21.707  10.060 -0.1035  0.0695  0.1698
64437W        W 7428  12.939  32.227  21.249 -0.1335  0.4153  0.0409
64438W        W 7429  24.705  19.233  15.878 -0.2157  0.0692 -0.2167
64439W        W 7430  13.216  25.851   0.028 -0.3839  0.3857 -0.3954
64440W        W 7431  21.463  11.251  23.795 -0.3337  0.3792  0.2132
64441W        W 7432  15.108   2.728   7.065 -0.1601  0.1684 -0.1036
64442W        W 7433  26.105  24.318   8.766  0.0217 -0.1290 -0.2101
64443W        W 7434  17.490  10.966   8.378 -0.2361  0.0446  0.1523
64444W        W 7435   1.191  17.891  17.651  0.0015  0.3794 -0.1439
64445W        W 7436  30.864  33.597   7.394  0.4138 -0.0588 -0.0976
64446W        W 7437  24.009  21.203  12.655 -0.2256 -0.2065 -0.0745
64447W        W 7438   3.234   6.616  22.821 -0.0493 -0.0129  0.1500
64448W        W 7439  23.700  20.450  20.255 -0.2732 -0.0808 -0.0164
64449W        W 7440  30.837  27.778  26.872  0.0983  0.0052  0.1867
64450W        W 7441  27.349  29.668  18.410  0.0604 -0.3445 -0.0542
64451W        W 7442  22.998  28.591   0.810  0.1207 -0.1049  0.0955
64452W        W 7443   9.475  31.839  24.630 -0.3075  0.1933 -0.1024
64453W        W 7444   6.577  30.447  21.901 -0.3640 -0.2899  0.2194
64454W        W 7445  20.794  17.082   6.708 -0.2184  0.1885  0.0358
64455W        W 7446  13.887  23.290  29.238 -0.0568  0.2457 -0.0344
64456W        W 7447   4.562  30.964   9.678  0.1531  0.0040  0.0045
64457W        W 7448   3.764  21.803   1.850 -0.0527 -0.0201  0.1867
64458W        W 7449   4.614   3.108  20.198 -0.0789  0.0068 -0.1616
64459W        W 7450   9.303  16.914  26.808  0.1170 -0.1235 -0.2099
64460W        W 7451  25.533  31.572   0.737 -0.0819  0.0806  0.2893
64461W        W 7452  27.411  14.639   6.518  0.1109  0.3045  0.2332
64462W        W 7453   3.726  26.078   4.116  0.0295  0.2358 -0.0206
64463W        W 7454   6.025  24.961  16.733  0.0578 -0.0513 -0.0719
64464W        W 7455  16.915  11.834   3.073  0.1458  0.1371 -0.5248
64465W        W 7456  14.987  20.758  28.797  0.0011 -0.2793 -0.2340
64466W        W 7457  20.888   3.730  20.248  0.1012 -0.3626 -0.1440
64467W        W 7458   9.261   3.291  26.986 -0.0794 -0.1068  0.1129
64468W        W 7459  27.226   4.783  23.511 -0.0626  0.0677 -0.1539
64469W        W 7460   4.775  17.349  23.359 -0.1020  0.0993 -0.0810
64470W        W 7461  12.481  13.142  15.799  0.0156  0.4258 -0.1764
64471W        W 7462  19.309  22.747  23.614  0.1334 -0.0517 -0.1510
64472W        W 7463   7.983  31.204  21.187 -0.0908  0.0449  0.4089
64473W        W 7464  13.821  11.189   3.132  0.2270  0.0087 -0.2695
64474W        W 7465  24.166  34.365   0.604  0.1575  0.3246  0.1193
64475W        W 7466  16.926   6.574   3.450  0.1885 -0.2828  0.0091
64476W        W 7467   1.564   5.530  10.442 -0.0172  0.0609 -0.0037
64477W        W 7468   7.430  18.884   1.956  0.2499 -0.1482 -0.0061
64478W        W 7469  30.500  24.091   7.288 -0.3941  0.1590  0.0198
64479W        W 7470  26.889   3.785  23.284 -0.0306 -0.1399 -0.1190
64480W        W 7471  21.266  30.622  27.238  0.1248 -0.2585  0.0374
64481W        W 7472  22.833  22.051  23.150 -0.1958  0.0833 -0.0850
64482W        W 7473   3.132  26.992   1.611  0.1111  0.0316  0.1108
64483W        W 7474  11.263   2.826   3.155  0.1340 -0.0901  0.0215
64484W        W 7475  10.321  10.997   1.436  0.0491 -0.2184 -0.2240
64485W        W 7476  16.948  23.779  24.715 -0.0778 -0.0455  0.0726
64486W        W 7477  19.684  23.394  23.255 -0.2387 -0.2212  0.5113
64487W        W 7478  16.526   4.115  28.295  0.2948  0.1216  0.5503
64488W        W 7479   5.056  25.424   9.126  0.0399 -0.1349  0.0053
64489W        W 7480  32.032  22.083  20.656  0.1518 -0.0389 -0.0868
64490W        W 7481  19.010  31.664  26.371  0.1619 -0.1518  0.2804
64491W        W 7482   9.432  19.860  26.406  0.0535 -0.1866 -0.2145
64492W        W 7483  20.131  29.353   1.359  0.0317 -0.3066 -0.1080
64493W        W 7484   5.513   8.054  28.541  0.0389  0.0559 -0.0664
64494W        W 7485   5.261  25.134   0.795  0.0521 -0.0009  0.1779
64495W        W 7486   7.851  12.795   5.195 -0.0219  0.3410  0.0849
64496W        W 7487  16.162   1.020  15.474  0.3107  0.0238  0.0768
64497W        W 7488  10.676  32.550  17.674  0.0653  0.3577  0.1290
64498W        W 7489  26.233  34.190  15.213  0.1540  0.1509  0.2234
64499W        W 7490  17.884  22.450  19.418 -0.1268  0.1475  0.0326
64500W        W 7491  12.231  23.132  20.951 -0.0494 -0.1463 -0.0493
64501W        W 7492  12.257  33.201  26.555 -0.0151 -0.2552  0.1602
64502W        W 7493  28.989  32.947  15.619  0.2492 -0.3069  0.0619
64503W        W 7494  27.610  10.003  25.446 -0.1213  0.0289  0.1596
64504W        W 7495  21.140  28.063  26.599 -0.0902 -0.0838 -0.0870
64505W        W 7496  10.756  24.911   5.369 -0.1471 -0.3169 -0.2287
64506W        W 7497  21.108  26.692   0.256 -0.0077 -0.0474 -0.0158
64507W        W 7498   8.157  24.411   1.864  0.1884  0.0535 -0.0722
64508W        W 7499  19.107  31.841  24.773 -0.0092 -0.1272 -0.1646
64509W        W 7500  14.576   7.381  26.610  0.2492  0.0534 -0.1444
64510W        W 7501  30.419   0.410  28.119  0.2836  0.1629  0.0774
64511W        W 7502  18.222  21.032   3.886  0.2952  0.0455  0.4294
64512W        W 7503   3.191  15.415  23.075 -0.3255 -0.1400  0.0118
64513W        W 7504  16.059  26.730   6.650  0.5421  0.0160 -0.4003
64514W        W 7505  13.707   4.489  21.989 -0.1021  0.4333 -0.1612
64515W        W 7506  13.082  29.010  28.078  0.0422  0.0209 -0.1546
64516W        W 7507  17.895  24.761  28.468 -0.3183 -0.2086 -0.0891
64517W        W 7508   6.838  16.396  10.777 -0.1403  0.1035 -0.0040
64518W        W 7509   9.371   2.801  16.408  0.0912 -0.0175 -0.3235
64519W        W 7510   6.433   1.464  22.671  0.0175  0.2848 -0.2188
64520W        W 7511  15.600   1.758   9.205 -0.0103  0.2735  0.0409
64521W        W 7512  21.831  27.999  19.883 -0.0856  0.0417 -0.1173
64522W        W 7513  12.215   1.392  16.770 -0.3290  0.2176 -0.0274
64523W        W 7514   1.516  33.456  20.821 -0.0337 -0.5789 -0.0392
64524W        W 7515   1.118  21.051  18.627  0.3729 -0.1742 -0.2193
64525W        W 7516  28.394  24.618  28.534 -0.1745 -0.1607 -0.1708
64526W        W 7517   7.001  27.583  26.597 -0.1486 -0.2266 -0.2581
64527W        W 7518  23.395  32.207   8.416  0.1142 -0.3186  0.1859
64528W        W 7519  13.295  20.586  21.225 -0.1835 -0.0453  0.0749
64529W        W 7520  22.119  27.630  24.420  0.0630  0.0606 -0.3342
64530W        W 7521  24.602  25.079   1.800 -0.2937  0.2444 -0.0909
64531W        W 7522  13.386  22.150  13.321 -0.0535  0.0633  0.2711
64532W        W 7523  22.264   3.284   5.031  0.0414 -0.0611  0.0160
64533W        W 7524   9.441  25.675   7.543 -0.0830  0.0367 -0.2114
64534W        W 7525  15.517  24.885   1.234 -0.0783  0.0583 -0.2933
64535W        W 7526   4.966   9.893   3.634 -0.2100 -0.1336 -0.4569
64536W        W 7527  33.243  32.102  28.176 -0.1257 -0.2011  0.1578
64537W        W 7528  17.028  20.354  21.937 -0.0117  0.3323  0.2302
64538W        W 7529  10.350  26.129  17.557  0.0586 -0.1653  0.3608
64539W        W 7530   0.361   5.018  27.469 -0.2261  0.2626 -0.0466
64540W        W 7531  17.462  34.783  15.943 -0.3948  0.0655  0.0478
64541W        W 7532  24.760  31.218  20.705  0.1162  0.0191 -0.0634
64542W        W 7533   6.393  21.439  15.029 -0.0670  0.0470  0.2729
64543W        W 7534  16.348  33.043  17.401  0.1357  0.4043  0.0764
64544W        W 7535  13.391  31.514  29.232 -0.1466  0.3704 -0.0532
64545W        W 7536  11.064  28.888  18.472  0.1454 -0.0157  0.0431
64546W        W 7537  25.549  26.614  15.342 -0.1124  0.0921  0.3122
64547W        W 7538   5.473   4.939  17.674  0.0753 -0.4524  0.1163
64548W        W 7539   1.579  25.213   2.501 -0.0597 -0.5960  0.0997
64549W        W 7540  19.981   3.954  28.929  0.3137 -0.0623  0.1426
64550W        W 7541  16.396   0.956   8.448 -0.3824  0.0239  0.0633
64551W        W 7542   0.119   1.211   4.745 -0.0297  0.0444 -0.1984
64552W        W 7543  13.540  14.443  28.267  0.0470  0.1248 -0.0613
64553W        W 7544   5.639  14.857  25.603 -0.2650 -0.0861 -0.0156
64554W        W 7545   2.580  16.904   8.527  0.1420 -0.0798  0.1957
64555W        W 7546   3.892  15.247  21.933 -0.2653 -0.0822  0.0860
64556W        W 7547  34.102  17.709   6.099 -0.1436 -0.2919 -0.0018
64557W        W 7548   6.847   5.943  27.795 -0.2264 -0.1023  0.0841
64558W        W 7549  21.147  33.981  28.945 -0.3141  0.0603 -0.2024
64559W        W 7550  17.141  10.079  27.130  0.0742 -0.1116 -0.0426
64560W        W 7551  33.867  30.470  20.355  0.0755 -0.1229 -0.0632
64561W        W 7552  17.274  31.910  24.291 -0.2597 -0.3562 -0.1542
64562W        W 7553  31.960  22.332  21.735  0.1622  0.1553 -0.0795
64563W        W 7554  28.371  32.444   4.203  0.1775  0.0155 -0.0627
64564W        W 7555  11.009  21.087  22.610 -0.1894  0.0248  0.1021
64565W        W 7556  23.705  23.144   4.496  0.0118  0.0652 -0.1784
64566W        W 7557  26.987  20.814   0.843 -0.2129  0.3281  0.2082
64567W        W 7558  21.680  26.308  20.238  0.3522  0.0904 -0.2133
64568W        W 7559  17.608  27.225   0.087  0.0938 -0.1414 -0.5462
64569W        W 7560  10.484  29.128  28.376 -0.2715  0.0579 -0.1194
64570W        W 7561  20.119  21.694  24.396  0.0981 -0.2251  0.0851
64571W        W 7562  21.916  30.811   7.221 -0.0927  0.2415 -0.2464
64572W        W 7563   1.800   7.463  27.711  0.3077  0.1533  0.1066
64573W        W 7564  19.860   5.578  19.072  0.0138 -0.0261 -0.2853
64574W        W 7565  16.204  24.803   1.869  0.1577  0.2429  0.1386
64575W        W 7566  20.435  15.872  23.147  0.1330  0.3961 -0.2084
64576W        W 7567   5.984   3.738  18.593 -0.0523  0.0306 -0.0863
64577W        W 7568   5.892  25.579   6.819  0.0317 -0.0785 -0.1267
64578W        W 7569  28.649  25.790   5.616  0.0370 -0.2745 -0.0003
64579W        W 7570   6.957  16.370  24.091 -0.1709  0.2776 -0.2234
64580W        W 7571  26.317  15.520  21.698  0.1294  0.3188 -0.0444
64581W        W 7572   8.293  19.767   0.866  0.1706  0.1413 -0.2828
64582W        W 7573  13.454  14.624  18.758 -0.1220 -0.4435 -0.0071
64583W        W 7574  20.008  31.459  26.937 -0.0284 -0.0482  0.0466
64584W        W 7575  13.434  30.098  25.044 -0.1664  0.1179 -0.1967
64585W        W 7576   3.720  17.629   2.514 -0.1318  0.3068  0.1013
64586W        W 7577  12.976  28.088   5.944  0.1043 -0.0500  0.0543
64587W        W 7578   8.365   8.703  24.915 -0.0466 -0.1581  0.2015
64588W        W 7579  31.202  25.833  14.361  0.0260  0.1065 -0.1028
64589W        W 7580  25.308   3.010  21.718  0.3471  0.1011 -0.0280
64590W        W 7581   3.206  27.921   2.841 -0.0905 -0.1754  0.0877
64591W        W 7582  18.221  19.706   9.213 -0.2044  0.3643  0.4016
64592W        W 7583  25.322   5.429  20.078  0.0546  0.1239  0.1967
64593W        W 7584  15.145  21.349  26.057 -0.3020 -0.3314 -0.2512
64594W        W 7585   8.023  34.497  22.420  0.0547  0.0068  0.3554
64595W        W 7586  16.745  20.719   5.504 -0.0641  0.0113 -0.5338
64596W        W 7587  15.606  34.590   0.108 -0.0397  0.0837  0.0535
64597W        W 7588  14.776   1.297  24.664  0.1089 -0.3409  0.2771
64598W        W 7589  28.212  24.105  28.958  0.2715 -0.0618 -0.0184
64599W        W 7590  23.439   0.647  20.712  0.0641  0.0545  0.2288
64600W        W 7591   4.292  23.657   0.755  0.3114 -0.1157  0.0137
64601W        W 7592  19.394  26.254   7.605  0.1876  0.1933 -0.1782
64602W        W 7593  33.978  29.973  21.618  0.1064  0.1232  0.2283
64603W        W 7594  14.627  30.419  14.260  0.0396  0.6397 -0.0654
64604W        W 7595  33.155  30.430  15.172 -0.0414 -0.0200 -0.2805
64605W        W 7596  16.400  29.857  23.586  0.0098  0.0259 -0.0264
64606W        W 7597   1.585  24.262   4.478 -0.2785 -0.1773  0.2764
64607W        W 7598   6.928  32.473  18.161  0.0679  0.1145 -0.1772
64608W        W 7599   8.070  33.412  19.925  0.0780 -0.1420 -0.1650
64609W        W 7600  14.496  17.562   1.862  0.0682  0.0425 -0.1701
64610W        W 7601  22.155  13.709  18.401 -0.1534  0.0188  0.1060
64611W        W 7602  31.593   1.946  26.232  0.0169 -0.1431  0.1192
64612W        W 7603   2.372   8.952  25.226  0.0622  0.1091 -0.1931
64613W        W 7604   4.711  15.534   0.306  0.0434 -0.0018  0.2594
64614W        W 7605  13.275  20.216   0.666  0.0176 -0.0221 -0.1121
64615W        W 7606  11.227  15.111  19.327 -0.1537  0.0341 -0.3405
64616W        W 7607   2.464  33.604  21.585 -0.1397  0.0457 -0.2577
64617W        W 7608  29.958  30.235   0.706 -0.1924 -0.0863  0.2591
64618W        W 7609  11.657  21.726   7.884 -0.0227 -0.0448 -0.4157
64619W        W 7610  27.163  25.752   6.537 -0.2495 -0.2574  0.2011
64620W        W 7611  28.234  20.347  28.074  0.1564  0.0789 -0.3634
64621W        W 7612  14.280  27.263  28.212 -0.2722  0.0296  0.1856
64622W        W 7613   2.035  30.308  14.815 -0.1493  0.3460 -0.0462
64623W        W 7614  15.239  21.760   4.895 -0.1786  0.2223  0.0924
64624W        W 7615  24.446   3.669  23.966 -0.1775  0.2596 -0.3659
64625W        W 7616  13.906  21.860   8.158  0.2130  0.1624 -0.0171
64626W        W 7617  15.479  29.529   3.992 -0.0505  0.3147  0.0500
64627W        W 7618  12.962  25.614   7.350 -0.0325  0.0279  0.4530
64628W        W 7619  14.085  27.763  23.964  0.0650  0.1046 -0.2528
64629W        W 7620  10.350  31.635  20.295  0.2126  0.0183  0.0558
64630W        W 7621  13.427  28.782  21.804 -0.2776 -0.0206  0.2006
64631W        W 7622  11.942  28.074  26.896 -0.1308  0.0706  0.3847
64632W        W 7623  33.159  17.895  18.628 -0.3202 -0.0616  0.0346
64633W        W 7624  14.935  17.501  29.007 -0.1024 -0.0848 -0.1798
64634W        W 7625  12.619  31.653  27.278 -0.1707  0.1368 -0.2945
64635W        W 7626   6.137  24.774   4.612  0.1548 -0.0109  0.1417
64636W        W 7627   4.440   3.587   1.569  0.1106  0.3177 -0.0658
64637W        W 7628  27.650  29.718  18.812  0.2696  0.2028 -0.0028
64638W        W 7629  20.494   2.031  12.649 -0.3203  0.1350 -0.0129
64639W        W 7630  26.462  33.908   5.524 -0.3278 -0.2653 -0.0541
64640W        W 7631  19.699  33.895  14.956  0.1237  0.2158 -0.0183
64641W        W 7632  17.326  21.274   0.322 -0.1376 -0.0288 -0.1726
64642W        W 7633  15.470  30.873  17.480  0.0856 -0.0541 -0.0201
64643W        W 7634  18.939   4.676  20.246 -0.1521  0.1593 -0.2415
64644W        W 7635   9.831  25.609   5.400 -0.2553 -0.2288  0.2526
64645W        W 7636  12.206  18.635  15.441 -0.3531  0.3699  0.1507
64646W        W 7637   2.404   3.763  29.092  0.1251  0.2658  0.0155
64647W        W 7638   7.938  28.136  29.042  0.1075 -0.1039 -0.0149
64648W        W 7639  13.155   8.493  24.778  0.2088  0.1637  0.0966
64649W        W 7640  22.411  14.560  16.977  0.1301  0.3439  0.1862
64650W        W 7641  12.998  33.589  26.265  0.5871 -0.0913 -0.1025
64651W        W 7642  12.576  27.265  14.187 -0.2041 -0.4181 -0.1880
64652W        W 7643  20.995   1.107   7.276  0.2157  0.0677 -0.1737
64653W        W 7644   7.122   2.502  10.356 -0.3098  0.0059  0.1483
64654W        W 7645   4.297   0.785   5.490  0.1307 -0.0312 -0.1397
64655W        W 7646   9.577  18.394  22.814  0.1950  0.1816  0.4800
64656W        W 7647  31.434   8.651  25.832  0.0815  0.0180 -0.0602
64657W        W 7648  15.606   3.229   7.824  0.0934  0.0895  0.2163
64658W        W 7649  18.607  15.353  28.393  0.5547  0.1108  0.1433
64659W        W 7650  17.306  27.464   2.158  0.0613 -0.0478  0.0287
64660W        W 7651  20.892  12.844   0.266 -0.0271 -0.0638 -0.2404
64661W        W 7652  11.516   4.117   3.773  0.1577  0.1222 -0.0435
64662W        W 7653   7.389  20.536  24.378  0.2883  0.0925 -0.0313
64663W        W 7654  23.364  23.448  25.802 -0.1896  0.1042 -0.2579
64664W        W 7655   3.977   7.414   6.225  0.0769 -0.1218  0.1462
64665W        W 7656  19.146  32.027   0.665 -0.0839 -0.0497 -0.2137
64666W        W 7657  13.302  22.835   7.861  0.0404  0.2821  0.0036
64667W        W 7658  13.771  23.189   4.174 -0.0376  0.1836  0.3312
64668W        W 7659   5.853   0.685   6.848 -0.0171  0.2744  0.2995
64669W        W 7660   2.340   2.761   9.763  0.2225  0.2343 -0.1422
64670W        W 7661  17.044   0.087  16.826 -0.0066  0.3664  0.0383
64671W        W 7662   1.673  33.017   9.702 -0.0314  0.1129 -0.0493
64672W        W 7663  12.722  34.785   3.127 -0.0521  0.2341 -0.1992
64673W        W 7664  19.565  32.012  17.329 -0.1997  0.1327  0.0704
64674W        W 7665  20.768  23.045  21.462 -0.2235  0.1088 -0.0196
64675W        W 7666  13.505  32.615   2.622 -0.1385  0.0812 -0.1050
64676W        W 7667   5.698  28.705  28.468 -0.1438  0.0338 -0.2605
64677W        W 7668  27.811  20.399  18.590  0.1322  0.1242  0.0497
64678W        W 7669   8.223  29.335   7.793 -0.2586 -0.0875 -0.0040
64679W        W 7670  15.327  18.894   4.467 -0.1935 -0.0041  0.1659
64680W        W 7671  16.659  28.016   2.893  0.3035  0.0178  0.1682
64681W        W 7672   1.679  29.564  21.908 -0.3021  0.2356 -0.3560
64682W        W 7673  12.065   2.104   4.225 -0.0444 -0.0379  0.3359
64683W        W 7674   8.598  10.250  27.454  0.1544 -0.0886  0.0769
64684W        W 7675  25.780  24.403  17.183 -0.1531 -0.2272  0.2755
64685W        W 7676   2.958   2.194  19.180  0.2343 -0.4011 -0.0437
64686W        W 7677  32.364  19.939  29.129  0.0554 -0.0817 -0.2063
64687W        W 7678  28.453  24.450   3.557 -0.2537 -0.1719 -0.0398
64688W        W 7679  32.943  28.569  25.947 -0.3222 -0.0095  0.1272
64689W        W 7680  13.065  27.363  19.790  0.0120 -0.0925 -0.3731
64690W        W 7681  34.370   1.226  19.811 -0.0893 -0.0830 -0.0563
64691W        W 7682   7.115  25.812   1.124  0.1932 -0.2439  0.1436
64692W        W 7683  17.295   3.943  24.999  0.3140 -0.0401 -0.0303
64693W        W 7684  11.069  22.326  24.446  0.1354  0.1831 -0.2366
64694W        W 7685   3.424  32.245   6.127 -0.1428 -0.0325  0.0025
64695W        W 7686  14.822  24.330   3.306 -0.1264  0.0048  0.1431
64696W        W 7687  19.338  25.761  23.129  0.4140 -0.1045 -0.0479
64697W        W 7688   3.189  10.530   3.679 -0.0640 -0.1351  0.3691
64698W        W 7689  16.133   0.486  26.770  0.2072  0.3673  0.1203
64699W        W 7690  20.902   2.060   0.843 -0.0710  0.0399  0.0359
64700W        W 7691   1.169  19.855   3.593 -0.1597 -0.0645 -0.0107
64701W        W 7692  26.333  30.820   7.734 -0.0038 -0.1677 -0.0278
64702W        W 7693   6.933  29.756  15.851 -0.1605  0.1326  0.2881
64703W        W 7694  12.979  29.802  25.124 -0.0457 -0.0162  0.0043
64704W        W 7695  13.695   4.703  16.958 -0.0880  0.0807  0.2485
64705W        W 7696  14.541  18.465   5.430  0.0509 -0.3618  0.3691
64706W        W 7697  13.529   2.105  28.154  0.1125 -0.0677  0.1886
64707W        W 7698   8.136   6.120   3.239 -0.0580 -0.0593 -0.4387
64708W        W 7699   9.907  29.991  21.717  0.1577  0.2633  0.1380
64709W        W 7700  22.806   4.500  18.289 -0.0850  0.0984 -0.3432
64710W        W 7701   6.999  32.402  16.636  0.0385 -0.3738  0.1850
64711W        W 7702   0.268  27.961  25.779  0.1462 -0.0059 -0.2453
64712W        W 7703  27.615  26.271  22.744 -0.0743 -0.5068 -0.2926
64713W        W 7704  31.661  26.827  24.831  0.0075  0.0996  0.0500
64714W        W 7705  17.511   1.512   4.080  0.0986  0.3393 -0.1727
64715W        W 7706  17.280  32.589   7.469  0.0559  0.1444 -0.1543
64716W        W 7707  10.274  15.245  19.840  0.0147  0.0726 -0.2292
64717W        W 7708  11.527   9.604  25.110 -0.0506  0.0926  0.0726
64718W        W 7709   7.014  14.334  23.666  0.0630 -0.5487  0.0397
64719W        W 7710  13.216  26.556   0.735 -0.1476 -0.0632  0.0868
64720W        W 7711  11.975  18.387   5.267  0.1599  0.2130 -0.1565
64721W        W 7712  33.666   6.781   5.318 -0.1816 -0.1045 -0.1958
64722W        W 7713   0.776  13.307  23.147 -0.1295 -0.0487 -0.0120
64723W        W 7714  32.606   8.147  20.359  0.0794 -0.0301  0.2369
64724W        W 7715  13.865  14.653  14.925  0.1924  0.1810  0.0860
64725W        W 7716   6.413   3.186  23.007 -0.3636  0.1923 -0.4212
64726W        W 7717  11.007  32.341   4.545 -0.2473 -0.0010  0.0524
64727W        W 7718   4.368  34.423  24.960  0.0332  0.3435  0.1883
64728W        W 7719  22.087  31.870   8.123 -0.0267  0.1625  0.0663
64729W        W 7720  23.687  29.031   2.302  0.1295 -0.0819 -0.2326
64730W        W 7721   5.819  26.555  14.877 -0.0886  0.1285  0.2799
64731W        W 7722  23.708  13.904   1.414  0.1802 -0.2759 -0.1077
64732W        W 7723  11.357   1.991   6.961  0.1337  0.2293 -0.2549
64733W        W 7724   9.149  16.926  17.735  0.0059 -0.0145 -0.0598
64734W        W 7725   9.990  27.981  27.250  0.3523  0.0784 -0.2528
64735W        W 7726  21.136  20.987  14.897 -0.3746  0.1431  0.0690
64736W        W 7727   7.558  17.344   4.664  0.1189 -0.3414 -0.1402
64737W        W 7728  22.922   3.072  16.191  0.3749 -0.0178  0.0630
64738W        W 7729  29.673  16.080   5.248 -0.1597 -0.0471 -0.0144
64739W        W 7730  19.059  22.628  17.398 -0.0285  0.1175  0.1883
64740W        W 7731   0.930   0.632  17.268 -0.3866  0.1574 -0.0278
64741W        W 7732  10.486  33.383  18.327 -0.0524  0.5486 -0.0219
64742W        W 7733   5.779   9.003   1.918  0.0655 -0.0250 -0.0669
64743W        W 7734  25.511  27.898  24.234 -0.2615  0.1242 -0.0017
64744W        W 7735  27.759  24.347  25.193  0.1093  0.1293  0.0634
64745W        W 7736  33.713   2.262  18.486  0.0895  0.2122  0.3851
64746W        W 7737  12.557  22.078   1.698  0.0808  0.0613  0.0794
64747W        W 7738  19.002  27.867  26.397 -0.0024 -0.1842 -0.0545
64748W        W 7739  11.636  10.928  15.581 -0.0790  0.0978  0.0608
64749W        W 7740   0.632  26.808  27.290  0.1601  0.1231 -0.0145
64750W        W 7741  30.916  34.611   8.771 -0.0294 -0.2575  0.2455
64751W        W 7742  27.422  22.411  22.050  0.1869 -0.1375 -0.0587
64752W        W 7743  20.623  34.774  29.102 -0.2148  0.1767 -0.0655
64753W        W 7744   7.982  31.517   7.635  0.0959  0.1125  0.0379
64754W        W 7745   9.969  19.068   6.332 -0.2287  0.0273 -0.2452
64755W        W 7746   1.644  30.613   6.784  0.0095 -0.1774 -0.1795
64756W        W 7747  21.940  10.293  26.692  0.3927 -0.4343  0.4599
64757W        W 7748  11.479  28.079  25.608 -0.0093 -0.2499  0.0563
64758W        W 7749   8.531  34.601   8.399 -0.0863  0.2310  0.2349
64759W        W 7750  20.768   1.193  19.562 -0.1746 -0.0008 -0.0530
64760W        W 7751  10.624  24.834   3.646  0.2253 -0.2392  0.0726
64761W        W 7752  10.024  20.437  14.527 -0.0197  0.0063  0.1892
64762W        W 7753   9.470  11.636  20.152 -0.0419 -0.0265 -0.2759
64763W        W 7754  16.697   3.353  23.933  0.1663  0.2209 -0.2787
64764W        W 7755  26.844  30.601  16.459  0.2736 -0.2680 -0.3305
64765W        W 7756   4.066   2.164  25.898 -0.1110  0.1899 -0.2651
64766W        W 7757   9.691  26.371  18.624  0.2322  0.2158 -0.1925
64767W        W 7758   8.554  20.334  18.720 -0.1490 -0.0464 -0.2410
64768W        W 7759   2.249  23.755  24.041 -0.0473  0.0776 -0.0898
64769W        W 7760  15.389  19.850  22.026  0.3982  0.0462  0.2392
64770W        W 7761   4.220   8.149  25.471 -0.1845 -0.0179  0.2567
64771W        W 7762   9.529  25.543   4.289 -0.1591 -0.0070 -0.1980
64772W        W 7763   5.111  34.236  19.008 -0.1314 -0.1655 -0.3444
64773W        W 7764   6.769  28.135  16.544 -0.0791  0.1328 -0.0508
64774W        W 7765  20.988   1.078  15.982  0.0980  0.0068 -0.0154
64775W        W 7766  18.126   2.097  14.667  0.0077  0.1819  0.0141
64776W        W 7767  20.980  25.612  23.319 -0.1285 -0.2320  0.0112
64777W        W 7768  19.903  34.094  22.251  0.2602  0.1252 -0.2685
64778W        W 7769  19.288  13.338  28.884  0.0261 -0.0064  0.1461
64779W        W 7770  14.607  14.443   7.759 -0.2928 -0.1598 -0.2415
64780W        W 7771  16.500  27.789  26.183  0.3600  0.0305  0.3566
64781W        W 7772  19.727  24.111  28.074  0.3858  0.0257 -0.1342
64782W        W 7773  15.467  27.608   6.577  0.3716  0.0768 -0.0785
64783W        W 7774  18.446  33.826  19.383 -0.0639  0.2174  0.1160
64784W        W 7775   8.990  23.767  20.066  0.0692  0.1285 -0.1833
64785W        W 7776  24.842  21.072   7.079  0.1836 -0.1828 -0.0358
64786W        W 7777   1.048  20.872  21.723 -0.0311 -0.2683 -0.0072
64787W        W 7778  14.541  31.983   7.315 -0.1653 -0.0775 -0.1107
64788W        W 7779   3.142   3.902  24.266 -0.0453 -0.2252 -0.2436
64789W        W 7780  19.998   7.118   7.604  0.0558 -0.2941  0.3817
64790W        W 7781  16.142   2.087  23.870  0.0312 -0.0351 -0.1043
64791W        W 7782  26.806   0.802   0.207 -0.1373  0.3281 -0.1689
64792W        W 7783  14.561  31.182  15.586  0.1449 -0.0905  0.1006
64793W        W 7784  12.180  33.964  27.960 -0.3849  0.3428 -0.0962
64794W        W 7785  16.159  27.040   4.369 -0.1018  0.1350  0.0391
64795W        W 7786   5.978   4.737  21.510  0.0757 -0.1121 -0.3007
64796W        W 7787   5.052   4.241  26.107 -0.5888 -0.0308 -0.0051
64797W        W 7788  21.330   8.185  22.229  0.0177 -0.0538 -0.3826
64798W        W 7789  28.379  26.574  18.099 -0.3333  0.2381  0.0647
64799W        W 7790  18.211  30.499  14.935  0.3018 -0.1148  0.2638
64800W        W 7791  29.178  24.516  21.407 -0.2416 -0.1808  0.3169
64801W        W 7792  14.878  19.223  23.389  0.0145  0.1545  0.0689
64802W        W 7793   4.292  26.263  10.217 -0.0759  0.0884 -0.1544
64803W        W 7794  10.089  13.726   3.255  0.0614 -0.3738  0.3814
64804W        W 7795  19.873  29.133   9.521  0.1365  0.1494  0.3924
64805W        W 7796  22.887   1.044  18.348  0.0640 -0.1886 -0.1412
64806W        W 7797  31.772   6.248  28.205 -0.3241  0.1374  0.0640
64807W        W 7798  12.276  20.911  20.710 -0.0243 -0.0875 -0.3210
64808W        W 7799   9.458  15.653  16.292  0.0265  0.0353 -0.0010
64809W        W 7800  14.665  28.398   3.954  0.1710  0.3476  0.1346
64810W        W 7801  17.276   3.925  25.517  0.1465  0.2458  0.4367
64811W        W 7802  33.049  16.542   3.338  0.1053 -0.1736 -0.2677
64812W        W 7803  14.654   1.494  25.952  0.0296  0.1765 -0.3946
64813W        W 7804  32.721  19.256  24.281 -0.1863  0.2382 -0.0921
64814W        W 7805   0.922  32.944  17.318 -0.1211 -0.0534  0.2844
64815W        W 7806  24.197  16.273  22.991 -0.0403  0.0182  0.1528
64816W        W 7807   5.741   7.889   6.409 -0.1982 -0.1744 -0.1028
64817W        W 7808  11.903  27.704   5.063  0.1271  0.1633  0.1689
64818W        W 7809   6.218   3.042  17.699  0.1191  0.4646 -0.2445
64819W        W 7810  23.858  22.306  25.389 -0.1576 -0.0663 -0.1851
64820W        W 7811   5.404  13.773  21.691 -0.2290 -0.0220 -0.2019
64821W        W 7812   8.696   7.698  25.972 -0.1599  0.1259  0.0114
64822W        W 7813  11.591  12.492  20.977  0.3600 -0.3820  0.0670
64823W        W 7814   9.782  20.509  21.622  0.1542  0.0924 -0.1811
64824W        W 7815  10.267  32.848  19.203 -0.1942 -0.1977  0.1304
64825W        W 7816   9.363  34.663   0.663 -0.2044 -0.0032 -0.0087
64826W        W 7817  11.038   3.748   1.269  0.2360 -0.0704  0.2039
64827W        W 7818  13.277  23.136   2.640  0.2932  0.1388  0.0760
64828W        W 7819   2.388  22.476  21.560  0.2129 -0.2282  0.4018
64829W        W 7820   9.607   1.261   4.271  0.0530 -0.3338  0.1397
64830W        W 7821  15.504  28.025  21.839  0.1955  0.1457 -0.1192
64831W        W 7822  11.237   3.291   5.897  0.0508 -0.0530  0.1623
64832W        W 7823  24.245  21.898  17.769 -0.0873 -0.0584 -0.1725
64833W        W 7824  19.847  22.703  29.114  0.0270  0.2404  0.1766
64834W        W 7825   8.082  27.086  29.008 -0.1269 -0.2608 -0.3809
64835W        W 7826  14.111  28.738  20.361  0.0625  0.1354 -0.2011
64836W        W 7827  13.615  28.181  23.973 -0.4298 -0.1638 -0.0797
64837W        W 7828  13.834   3.499   0.583 -0.2514 -0.0172 -0.1710
64838W        W 7829   8.239  27.165  23.439  0.1608  0.1298  0.0647
64839W        W 7830  23.898  23.712   2.745 -0.1471  0.0032 -0.3676
64840W        W 7831   2.157  28.402   2.485  0.2007  0.0632 -0.3939
64841W        W 7832  14.650   2.038   1.010  0.4021 -0.1377 -0.0360
64842W        W 7833   5.292  25.358  21.392  0.3497 -0.2098  0.0260
64843W        W 7834  29.658  26.522  27.376 -0.0645 -0.0018  0.1568
64844W        W 7835  12.023  13.327  29.022 -0.4224 -0.0857 -0.0189
64845W        W 7836   8.539  11.851   8.610 -0.1013 -0.0016 -0.0151
64846W        W 7837  27.569  18.469   5.692 -0.2627  0.1187  0.1238
64847W        W 7838  21.204  24.827  22.714  0.0715  0.2214  0.1488
64848W        W 7839   3.377  29.770  26.163 -0.0789  0.3854 -0.1162
64849W        W 7840  16.059  22.449  28.909  0.1807  0.0312  0.0821
64850W        W 7841  17.386  21.609  26.140  0.1009  0.3259  0.1366
64851W        W 7842  29.435  28.879   7.443 -0.1447 -0.1764  0.0212
64852W        W 7843   5.778  23.566  20.424 -0.1912  0.1138 -0.0305
64853W        W 7844  13.496  25.038   4.027  0.0587  0.2829 -0.0437
64854W        W 7845  13.717  22.491  27.264 -0.5089  0.0510  0.4282
64855W        W 7846   4.112   2.561   0.225 -0.1078 -0.0481  0.0013
64856W        W 7847   2.877   0.774  27.127 -0.1057  0.0211 -0.0842
64857W        W 7848  12.188  26.981   1.954  0.2690  0.2150 -0.1894
64858W        W 7849  15.896  30.428  24.293 -0.1318 -0.0618  0.2232
64859W        W 7850  11.871  22.253   4.431  0.0339  0.0351  0.2153
64860W        W 7851  31.862  32.771   8.945  0.1394 -0.3869 -0.1507
64861W        W 7852  16.679   1.421   8.434 -0.2410 -0.0888 -0.1192
64862W        W 7853  13.448  22.026  26.495 -0.1787  0.0555 -0.1431
64863W        W 7854  10.069  32.498  28.408 -0.3525  0.1895 -0.0087
64864W        W 7855   8.067  10.220  26.583  0.0610  0.2900 -0.2425
64865W        W 7856   7.245  17.987  19.203 -0.1805  0.4813 -0.0140
64866W        W 7857   2.450   2.676  29.080  0.3606  0.0119 -0.1898
64867W        W 7858  30.047  28.628  20.573 -0.1221  0.1885  0.2180
64868W        W 7859  10.961   3.580  23.225  0.0798  0.3228 -0.4430
64869W        W 7860  20.485  10.601  17.751 -0.0368 -0.0220  0.0159
64870W        W 7861  31.212  10.650   8.438 -0.0947  0.1586  0.0149
64871W        W 7862   9.431  22.037  22.809 -0.3182 -0.3959  0.1460
64872W        W 7863  24.712  24.442   5.472 -0.3823 -0.0699  0.1892
64873W        W 7864  17.045  20.763  20.173 -0.0399 -0.1266 -0.2015
64874W        W 7865  13.776  26.336  23.003  0.0251  0.1663 -0.2386
64875W        W 7866  14.291  22.598  16.779 -0.1646  0.0802 -0.2477
64876W        W 7867   2.780  21.522   4.200  0.2497  0.3140  0.0709
64877W        W 7868  24.136  30.306  13.515  0.1957 -0.0036  0.1689
64878W        W 7869  14.466  28.733  16.291 -0.0301  0.0487 -0.1609
64879W        W 7870   1.565   0.309  29.219 -0.0423 -0.3194  0.0016
64880W        W 7871  18.550   4.971  14.647 -0.2687  0.1261 -0.2739
64881W        W 7872  21.866  24.285  22.876 -0.1557 -0.1030 -0.0289
64882W        W 7873  21.972  20.512  28.933 -0.1116  0.1034 -0.1028
64883W        W 7874   9.203   2.730  23.657  0.1972 -0.0767  0.2025
64884W        W 7875  12.157  23.184  18.311  0.1658  0.1070 -0.2418
64885W        W 7876  10.359  23.329  17.288  0.1539 -0.0040  0.0278
64886W        W 7877   8.382   2.959  21.974  0.0821  0.4106  0.0131
64887W        W 7878  18.511  26.070  23.014  0.1432  0.0086 -0.1004
64888W        W 7879  18.675   4.431  14.605  0.1747 -0.0421 -0.1790
64889W        W 7880   0.623  11.154  16.162  0.1554  0.2403 -0.0181
64890W        W 7881  22.238  18.248  17.914 -0.2270 -0.1271  0.1892
64891W        W 7882   7.727  14.200  16.339 -0.1183 -0.1147  0.2434
64892W        W 7883   9.081  32.389  28.694 -0.1093 -0.2358 -0.1092
64893W        W 7884   0.381  16.239  19.185 -0.1802  0.1755 -0.1022
64894W        W 7885  10.867  22.343  21.845 -0.0695 -0.2143  0.1586
64895W        W 7886   4.370  31.929  16.031 -0.2380  0.2107 -0.3092
64896W        W 7887  13.427  34.319  14.909 -0.1479 -0.1356 -0.0934
64897W        W 7888  20.132  28.624  24.366  0.0529  0.0795  0.0193
64898W        W 7889  11.513  34.218  16.524 -0.1220  0.0147  0.2301
64899W        W 7890  27.806   3.889  23.837  0.0688 -0.3441  0.3119
64900W        W 7891  27.053  33.757  22.855 -0.0612  0.3182 -0.0060
64901W        W 7892  16.794   9.947  27.558  0.0294  0.0024  0.0299
64902W        W 7893  10.206   0.654  20.510 -0.0207 -0.3261 -0.1423
64903W        W 7894   2.556  29.720  20.384  0.1634 -0.2089  0.0288
64904W        W 7895  14.738   8.967  15.634  0.1217 -0.0062 -0.0495
64905W        W 7896  12.992  31.890  20.402 -0.2636  0.0848  0.1042
64906W        W 7897  32.643  26.937  28.957  0.1783  0.2422  0.1806
64907W        W 7898  12.476  34.323  27.001  0.1861  0.0481 -0.1883
64908W        W 7899   8.193   0.152  18.805 -0.1557 -0.2933 -0.0422
64909W        W 7900  11.481  26.943  22.596  0.3082  0.3141  0.1503
64910W        W 7901  12.238  29.118  14.595  0.2836 -0.1114 -0.1367
64911W        W 7902  11.154   1.694  15.565 -0.2234 -0.0383  0.1188
64912W        W 7903  28.919   5.047  18.596  0.0155  0.0781  0.1586
64913W        W 7904  22.658  28.032  24.395 -0.1624 -0.1455 -0.0562
64914W        W 7905  32.979  10.256  16.667  0.3341 -0.1316  0.1835
64915W        W 7906  14.942   2.019   0.605  0.1471  0.1871  0.3692
64916W        W 7907   5.404  22.790  18.089 -0.0820 -0.1138  0.1716
64917W        W 7908  15.250  21.167  19.938  0.1159  0.1364 -0.1280
64918W        W 7909  16.961   6.656  18.231  0.0699  0.0791 -0.1140
64919W        W 7910   4.971  29.571   1.263 -0.0420  0.5010  0.0048
64920W        W 7911  18.796   7.165  25.916  0.1818  0.3285  0.1653
64921W        W 7912   5.426  34.558  23.462  0.0998  0.2249  0.1705
64922W        W 7913  23.791  15.586  18.719 -0.1543 -0.2695  0.1175
64923W        W 7914   5.884  11.920  23.903  0.3593  0.0982  0.4056
64924W        W 7915  25.525  33.165  19.613 -0.0839 -0.0831  0.0051
64925W        W 7916  13.579  23.204  19.170 -0.1935 -0.1292 -0.5128
64926W        W 7917   6.182  15.280  20.216 -0.2316 -0.0557  0.1362
64927W        W 7918  31.998   2.561  26.959  0.1185 -0.2198  0.2465
64928W        W 7919  13.720  30.924  26.627 -0.2402  0.2766  0.2042
64929W        W 7920  17.272   1.075  26.667  0.1812 -0.1112 -0.2510
64930W        W 7921  16.427  10.212   2.706  0.1788 -0.0798  0.1309
64931W        W 7922  23.416   1.223  13.013  0.1121 -0.4109 -0.0585
64932W        W 7923   8.765  32.595   4.288  0.1307 -0.1186  0.1439
64933W        W 7924  10.917  27.137  25.807  0.0185 -0.0004 -0.1662
64934W        W 7925   5.704  26.914  26.908 -0.0413  0.2196  0.0898
64935W        W 7926   6.050   1.786  15.406  0.1067 -0.0352 -0.3362
64936W        W 7927   1.271  11.931  23.331  0.2533  0.2644  0.0971
64937W        W 7928  18.640  29.706  21.514 -0.3804  0.1027  0.2588
64938W        W 7929  19.832   3.684   6.904 -0.0703 -0.1535 -0.2577
64939W        W 7930   1.675  30.920  18.968 -0.1934  0.0734 -0.1614
64940W        W 7931   6.992   2.149  18.804  0.0294  0.1092 -0.0548
64941W        W 7932  24.403   1.266  22.269 -0.3191 -0.0088 -0.2670
64942W        W 7933  26.942  26.317   6.180  0.0592 -0.1667  0.3855
64943W        W 7934  31.170  26.340  13.548  0.3890 -0.0444  0.0770
64944W        W 7935  21.977  32.425  20.810 -0.0162  0.2814  0.0673
64945W        W 7936   6.432  32.022  15.335 -0.0634  0.0716 -0.0089
64946W        W 7937  30.998  22.907  16.196 -0.1340  0.3426  0.1866
64947W        W 7938   8.716  34.541  14.843  0.0546  0.1163 -0.1231
64948W        W 7939   1.965  32.012  13.660 -0.3295  0.0785 -0.0421
64949W        W 7940  22.406   7.306   7.433  0.1305  0.1293  0.1136
64950W        W 7941  18.291   3.640  24.793 -0.1041 -0.1235 -0.0209
64951W        W 7942  13.732  27.522  16.189  0.1223  0.2597 -0.1452
64952W        W 7943  23.777   7.566  17.025 -0.4812  0.0376  0.1938
64953W        W 7944  14.617  26.202  24.344  0.1347 -0.0275 -0.2779
64954W        W 7945  13.487  27.085  18.975 -0.0091  0.1095 -0.2507
64955W        W 7946  10.798  25.425  20.874  0.0942  0.1446  0.1756
64956W        W 7947   9.752  32.552  19.267  0.2273 -0.0070 -0.1457
64957W        W 7948   3.240   3.676  17.998  0.2398  0.0096 -0.0996
64958W        W 7949  12.464   4.043  21.196  0.0533 -0.0971  0.1348
64959W        W 7950   2.649   3.448  22.650 -0.1913  0.4311  0.4451
64960W        W 7951   1.146   1.909   0.946  0.0495 -0.4588  0.0955
64961W        W 7952  18.749  30.147  20.669 -0.3792  0.1478 -0.0257
64962W        W 7953  13.395  15.434  16.766 -0.2355 -0.0831 -0.1530
64963W        W 7954  22.389   1.920  15.342  0.0387 -0.2814  0.1740
64964W        W 7955  25.837   9.130  19.906 -0.0979 -0.0834  0.0435
64965W        W 7956  16.772  29.460  21.976  0.0140  0.2235 -0.1107
64966W        W 7957  26.575  19.975  22.216 -0.3105 -0.0047 -0.0993
64967W        W 7958   2.053   6.513  16.321 -0.2209 -0.1852  0.3226
64968W        W 7959   1.438  26.264  23.850 -0.1180  0.0064 -0.1160
64969W        W 7960  22.847   2.937  24.123  0.2084 -0.0170 -0.4507
64970W        W 7961   5.102  30.145  15.547  0.0036  0.0470  0.0901
64971W        W 7962  18.716   7.527   1.762  0.2980 -0.2270 -0.2389
64972W        W 7963   8.668  30.135  20.780 -0.0579  0.1585  0.0061
64973W        W 7964  17.879  32.559  18.254 -0.2365  0.1057 -0.1197
64974W        W 7965  33.986   7.120  17.572  0.2420 -0.1360 -0.5027
64975W        W 7966   6.094   0.855  18.356 -0.2038 -0.0418 -0.0211
64976W        W 7967  16.594  34.726  16.956  0.0965  0.0226 -0.2780
64977W        W 7968  19.866   9.103  16.654 -0.3549  0.0116  0.1154
64978W        W 7969  16.107   2.890  24.333 -0.1882 -0.1732  0.2728
64979W        W 7970  13.728  33.686   0.101 -0.0093  0.2178  0.0521
64980W        W 7971  23.942  28.615  12.996 -0.3255 -0.0498  0.0361
64981W        W 7972  11.710   4.476  27.660 -0.1494  0.0321 -0.1800
64982W        W 7973   1.843  32.242  17.646 -0.0970  0.0313 -0.2961
64983W        W 7974  12.813  32.063  16.128  0.0884  0.0317  0.1140
64984W        W 7975  11.308   4.420  21.432 -0.0108  0.2429  0.1093
64985W        W 7976  17.905  12.205   9.114 -0.0509  0.1513 -0.3343
64986W        W 7977   6.365  30.743  16.633  0.1604 -0.0366 -0.1228
64987W        W 7978  14.997  21.625  19.175 -0.3175 -0.1545 -0.0382
64988W        W 7979   4.835   0.518  25.384 -0.1394  0.0257  0.3342
64989W        W 7980   6.539  34.382  10.419  0.2826  0.1610  0.0549
64990W        W 7981  13.687  20.933  24.478  0.3773  0.2010 -0.1017
64991W        W 7982  11.276  19.691  26.239 -0.2355  0.2175 -0.2313
64992W        W 7983  10.297   8.439  20.050  0.4693 -0.2095 -0.0076
64993W        W 7984  13.313  17.746  17.357  0.2818 -0.0302  0.2339
64994W        W 7985  13.268  13.654  17.849  0.2552 -0.0910 -0.1068
64995W        W 7986  13.000  24.314  26.472  0.1076 -0.4390 -0.0377
64996W        W 7987  10.104  30.652  17.902  0.1732 -0.1255  0.2688
64997W        W 7988  16.891  29.257  21.516 -0.1114 -0.1995  0.3136
64998W        W 7989  10.121  23.590  22.275  0.0203  0.0175 -0.0078
64999W        W 7990  22.475  34.679  15.276 -0.1995  0.3018  0.1353
65000W        W 7991  19.905  27.435  16.924 -0.1548  0.1879 -0.0672
65001W        W 7992  11.759   4.376  19.592  0.2057 -0.2617 -0.1793
65002W        W 7993  22.745   9.447   3.778  0.1346 -0.0054 -0.0208
65003W        W 7994  23.608  31.982  15.123  0.0766  0.2036 -0.2433
65004W        W 7995  10.376  13.091  14.663 -0.0852 -0.4057  0.0940
65005W        W 7996   9.041  31.949  28.248 -0.0820  0.1064 -0.3322
65006W        W 7997  12.934  23.824  23.349  0.0548  0.1401  0.0262
65007W        W 7998  24.551  27.857  19.723 -0.0525 -0.0828 -0.0424
65008W        W 7999  13.098  28.890  19.704  0.1737  0.0393 -0.0230
65009W        W 8000  13.951   6.041   8.049 -0.1541 -0.4651  0.0302
65010W        W 8001  16.930  29.694  23.504  0.0661 -0.4474 -0.0206
65011W        W 8002  19.531  23.200  13.974  0.1770  0.1124 -0.1491
65012W        W 8003   7.339  31.444  17.981  0.1986  0.3194 -0.0010
65013W        W 8004  16.257  32.565  26.641  0.0005  0.1743 -0.3061
65014W        W 8005  27.474  22.016  20.075 -0.3020  0.1987  0.0685
65015W        W 8006   7.746  10.301   8.761 -0.0664  0.0192 -0.2198
65016W        W 8007   8.525  34.611  18.228 -0.0627 -0.0314 -0.0195
65017W        W 8008  19.651  32.126  19.328 -0.0963 -0.0536  0.2033
65018W        W 8009   0.444  33.463  19.154 -0.2436  0.0072  0.0413
65019W        W 8010  10.715   9.738   5.369 -0.3087  0.1151  0.0544
65020W        W 8011  14.003   6.104  17.673 -0.1826  0.1095  0.3439
65021W        W 8012  10.618  29.891  21.549 -0.0392 -0.0784  0.2559
65022W        W 8013  10.370  25.883  25.637  0.1372 -0.2211  0.1085
65023W        W 8014  10.152  13.700  15.976  0.1242  0.0686 -0.0637
65024W        W 8015  15.734  11.491  22.108 -0.1116  0.0305  0.0109
65025W        W 8016   1.045  33.803  18.907 -0.0410  0.0768 -0.0073
65026W        W 8017  18.682  30.123   1.927 -0.0329  0.2234  0.0869
65027W        W 8018   1.994  34.247  23.506 -0.2230 -0.1915  0.1684
65028W        W 8019   7.782  34.026  15.822 -0.1565 -0.2662  0.0992
65029W        W 8020  20.236  22.526  28.662  0.1057  0.3606 -0.2650
65030W        W 8021  12.498   3.367  25.989 -0.1152  0.0381  0.0243
65031W        W 8022   5.980   2.439  16.880 -0.0472 -0.0623 -0.1356
65032W        W 8023  29.714   1.894  18.377 -0.0190  0.0583  0.1266
65033W        W 8024  17.835   0.721  17.019 -0.1725  0.1953  0.0803
65034W        W 8025  16.471   4.975  21.650 -0.1502  0.3766  0.0741
65035W        W 8026  24.591   0.647  19.555  0.0010  0.1586 -0.1620
65036W        W 8027  24.051  11.100  22.758 -0.1817  0.1800  0.1363
65037W        W 8028  18.897  32.663  17.573 -0.2448 -0.3163  0.0645
65038W        W 8029   2.865  34.498   2.984  0.3118 -0.0592 -0.0461
65039W        W 8030   4.378  26.628  18.359 -0.0071  0.2268 -0.1394
65040W        W 8031  25.369   4.119  25.146  0.0753 -0.0390 -0.2928
65041W        W 8032   6.676   3.078   3.206 -0.2367  0.5128  0.1861
65042W        W 8033  26.310  32.423  17.108  0.0414  0.1035 -0.0787
65043W        W 8034  11.354  32.799  29.197 -0.1942 -0.0016 -0.0678
65044W        W 8035  10.087   5.100  18.495 -0.3572 -0.0289 -0.0527
65045W        W 8036  20.580  34.072  14.547 -0.4159  0.2459  0.2989
65046W        W 8037  19.796  25.792  16.802  0.1486  0.1798 -0.4193
65047W        W 8038  31.958   5.459  21.844  0.3240  0.4251 -0.2291
65048W        W 8039   8.023   2.237  15.365  0.4677 -0.3493  0.2458
65049W        W 8040  33.435  16.662   6.603  0.3019 -0.0148  0.0996
65050W        W 8041  11.357  26.756  21.834 -0.1562  0.0650 -0.0030
65051W        W 8042   1.048  29.940  13.183 -0.0524 -0.2124  0.0893
65052W        W 8043  22.170   2.380  18.799  0.1203 -0.2447 -0.0342
65053W        W 8044   2.436  32.115  19.441  0.1469  0.0754 -0.0104
65054W        W 8045   1.690   4.638  18.585  0.0510  0.1046 -0.1605
65055W        W 8046  19.252   6.709  17.012 -0.1821  0.1182 -0.2288
65056W        W 8047  26.481  29.400  16.393  0.0098 -0.2089 -0.4286
65057W        W 8048  12.595  17.078  19.230  0.0314  0.2607 -0.0973
65058W        W 8049  17.686   2.034  19.570  0.1445  0.1784  0.0516
65059W        W 8050   6.143  12.077  20.162  0.1187 -0.3669 -0.0915
65060W        W 8051   1.506  23.993  14.420  0.4702  0.3512  0.2510
65061W        W 8052  16.869   3.139  19.341 -0.2005 -0.1612  0.2666
65062W        W 8053  30.112  33.291  20.131  0.0697 -0.0117 -0.0457
65063W        W 8054   6.960  30.155  25.421  0.0659 -0.1798 -0.2572
65064W        W 8055  25.975  34.149  24.924  0.0491 -0.1826 -0.1328
65065W        W 8056  22.194   3.636  25.079  0.0074 -0.3466  0.0906
65066W        W 8057  32.639  31.565  23.973  0.3663  0.3173 -0.1323
65067W        W 8058   6.357  22.477  17.763 -0.0916 -0.1378  0.2332
65068W        W 8059   7.309  23.654  19.175 -0.3870  0.2301  0.1014
65069W        W 8060   2.159   6.599  17.622  0.1105 -0.0594  0.1983
65070W        W 8061  26.414  31.906  21.067 -0.0152  0.0201 -0.0909
65071W        W 8062  33.116  33.085  18.293  0.2077 -0.1650 -0.4818
65072W        W 8063   5.421  24.373   0.738 -0.0045  0.2401  0.0447
65073W        W 8064  23.627  34.643  15.814  0.1740  0.2198  0.4264
65074W        W 8065   7.566  23.368  18.855 -0.3168 -0.0297 -0.0966
65075W        W 8066  15.125  29.152  19.484  0.0335 -0.0866  0.0164
65076W        W 8067  15.763  28.199  16.181  0.1624 -0.3545  0.0843
65077W        W 8068  15.061  33.134  14.245 -0.0431  0.0227  0.2952
65078W        W 8069  34.664  33.608  15.368  0.1463 -0.0438  0.1593
65079W        W 8070  19.109  28.768  16.776  0.1238 -0.0723  0.1344
65080W        W 8071   8.879  21.705  22.592  0.1949 -0.1187  0.0657
65081W        W 8072   9.297  28.658  17.102 -0.3391 -0.3651  0.0820
65082W        W 8073  30.270  32.946  27.694  0.3593  0.1304 -0.0706
65083W        W 8074  28.076  28.469  25.256  0.0358  0.1475 -0.2295
65084W        W 8075  11.104  28.902   1.391  0.0042 -0.1058  0.0789
65085W        W 8076  13.658   9.381  23.048  0.1941 -0.0742 -0.2743
65086W        W 8077   8.037  20.573  15.293 -0.0496  0.0228  0.1159
65087W        W 8078  28.696  32.395  16.309  0.1373  0.1799 -0.1581
65088W        W 8079  19.598  34.376  24.072  0.0590  0.0487 -0.3080
65089W        W 8080   7.439  29.217  16.641 -0.1630  0.1375  0.2209
65090W        W 8081  16.604  14.611  14.272  0.1932  0.0806 -0.2559
65091W        W 8082  12.417  17.324  17.875 -0.3063 -0.2508 -0.1759
65092W        W 8083  17.934  20.072  28.010 -0.0016  0.3948 -0.1127
65093W        W 8084  18.702   7.966  15.120  0.1741 -0.1149 -0.0282
65094W        W 8085   5.028   4.745  26.303  0.0467  0.0268 -0.0117
65095W        W 8086  24.983  28.633  28.743 -0.3376 -0.1380  0.0751
65096W        W 8087  23.644   6.006  16.122  0.2468 -0.0185  0.1477
65097W        W 8088  15.213   5.320  15.937  0.0890  0.1572  0.0237
65098W        W 8089   1.514  27.566  16.040  0.3329  0.1204  0.2078
65099W        W 8090   6.891  27.242  23.129 -0.2945 -0.2323  0.1034
65100W        W 8091  17.949  27.341  17.935 -0.1806 -0.1975 -0.0413
65101W        W 8092   6.472  30.142  24.693 -0.2092  0.1812 -0.1144
65102W        W 8093  26.603  33.468  13.615 -0.0575  0.0727 -0.1069
65103W        W 8094  16.876  14.149  22.636  0.1816  0.2332 -0.0245
65104W        W 8095  10.622  27.994  15.641  0.0578  0.1304 -0.3422
65105W        W 8096   4.082  15.685  22.114  0.0076 -0.0092  0.3088
65106W        W 8097   0.541  23.352  23.577 -0.1122 -0.0243 -0.1549
65107W        W 8098  17.083   2.081  14.657  0.1734 -0.1284  0.1317
65108W        W 8099  20.034  29.543  21.368  0.0644 -0.1754  0.2289
65109W        W 8100  22.829  15.073  18.169  0.2173  0.1840 -0.0384
65110W        W 8101  27.744   1.352  28.549  0.0921 -0.0561 -0.4164
65111W        W 8102   8.079  28.852  26.260  0.1672 -0.2815 -0.0254
65112W        W 8103  15.931  28.688  16.100 -0.1063  0.0206 -0.1437
65113W        W 8104   7.663  13.520  17.410 -0.0470 -0.0102 -0.0026
65114W        W 8105  30.360  30.371  13.674  0.1334  0.0730  0.4511
65115W        W 8106   9.542  28.586  14.304 -0.2120 -0.1745 -0.1563
65116W        W 8107  29.878   2.186  14.006 -0.1425 -0.0135  0.0885
65117W        W 8108  17.565   2.301  14.541 -0.0982  0.1008  0.1964
65118W        W 8109  10.795  25.784  18.438 -0.3229 -0.3186  0.2661
65119W        W 8110  21.932  30.981  22.889  0.1496 -0.1083 -0.2473
65120W        W 8111  19.822   2.656   1.737  0.4995 -0.3437 -0.1870
65121W        W 8112  33.073  19.776  21.627  0.0529  0.1749 -0.3244
65122W        W 8113  14.991  32.671  14.848  0.2666 -0.0443  0.4428
65123W        W 8114   2.122  22.028  20.598 -0.1708  0.1965 -0.2868
65124W        W 8115   5.517  33.788   2.639 -0.0790  0.0672 -0.1474
65125W        W 8116  11.400  19.789  15.531  0.2023 -0.3260 -0.2229
65126W        W 8117   6.023  24.372  19.996 -0.0302  0.0306  0.1016
65127W        W 8118  20.502  34.351  27.373 -0.2308  0.3013 -0.0701
65128W        W 8119   2.724  27.152  14.395  0.1260  0.1657  0.3419
65129W        W 8120   0.996  21.300  26.394 -0.0348 -0.0047  0.1367
65130W        W 8121   5.431   8.504  19.192 -0.5165  0.1190 -0.1015
65131W        W 8122  33.497  11.402  27.083 -0.2102 -0.1901  0.2196
65132W        W 8123   8.094  14.364  15.401 -0.2011 -0.0895 -0.2153
65133W        W 8124   5.960  31.374   5.074  0.0405 -0.0936  0.1674
65134W        W 8125   3.149   2.699  23.985  0.2558 -0.0905 -0.1974
65135W        W 8126   1.238   0.315  23.046 -0.1211 -0.0065 -0.0914
65136W        W 8127  29.867  31.091  15.452 -0.5565  0.5245  0.1300
65137W        W 8128   7.450   6.847  18.380 -0.0388  0.2220  0.0717
65138W        W 8129  32.121  28.824  14.243 -0.1577  0.0782 -0.2344
65139W        W 8130  16.326  26.194  21.421  0.4803 -0.1910  0.1553
65140W        W 8131   7.970  14.741  18.255 -0.3240  0.0511 -0.1244
65141W        W 8132  24.600  17.155  26.067  0.3102  0.4198  0.0986
65142W        W 8133  22.762  33.331  15.011 -0.1544 -0.0152 -0.1753
65143W        W 8134  18.891  30.200  21.636 -0.1116  0.1507 -0.0420
65144W        W 8135  30.329  28.015  17.176  0.2825  0.0852 -0.0229
65145W        W 8136  15.171  34.426  24.075 -0.1822  0.2488 -0.3079
65146W        W 8137  31.444  32.830  15.061 -0.0082  0.0221  0.0283
65147W        W 8138  16.803   0.635  17.933  0.3025 -0.1140 -0.0767
65148W        W 8139  23.762  27.437  16.042 -0.2729  0.0167 -0.0224
65149W        W 8140  11.992  32.261  23.143 -0.0075  0.2789  0.2748
65150W        W 8141   1.776  29.206  28.556 -0.2603 -0.1623  0.0881
65151W        W 8142  21.819  21.774  17.060 -0.0355  0.1268 -0.0292
65152W        W 8143  29.229  16.632  20.169 -0.1257 -0.0780 -0.0268
65153W        W 8144  12.018  29.394  16.817 -0.2365 -0.0100 -0.2594
65154W        W 8145  21.563  26.736  16.823 -0.0057  0.2381  0.0673
65155W        W 8146   7.244  23.688  14.620 -0.0023  0.2778 -0.1452
65156W        W 8147  18.877  31.737  18.873  0.2825  0.0089  0.0761
65157W        W 8148  19.599  23.466   2.639  0.3898 -0.1962  0.0058
65158W        W 8149   8.602  11.409  22.301 -0.2393 -0.0652 -0.1167
65159W        W 8150  17.306  22.727  24.586 -0.0682  0.0395 -0.0437
65160W        W 8151   2.315   4.346  20.683  0.1232 -0.3526 -0.0719
65161W        W 8152  32.926  17.964   4.787 -0.3033 -0.0471 -0.0506
65162W        W 8153  24.724  30.754   7.441  0.0377  0.2305 -0.0676
65163W        W 8154  18.160  28.261  14.340 -0.2736  0.2654 -0.1739
65164W        W 8155   2.366  18.072  20.569  0.0410 -0.2573  0.1824
65165W        W 8156  19.142  24.482  13.595  0.1154  0.1086  0.3193
65166W        W 8157   6.327  27.252  22.986  0.2115 -0.0823  0.1728
65167W        W 8158   0.436   0.854  14.858 -0.3919  0.0122  0.0607
65168W        W 8159   3.086  31.311  14.589  0.1355  0.1720  0.2372
65169W        W 8160   3.364  25.735  17.909  0.1897 -0.1165  0.2906
65170W        W 8161  15.865  32.622  24.231 -0.1287  0.1390 -0.0245
65171W        W 8162  22.723  28.811   0.087  0.0117 -0.0182 -0.1829
65172W        W 8163  11.363  34.692  15.256 -0.0425 -0.1072  0.0918
65173W        W 8164  14.384  29.721  16.210  0.0483 -0.2690 -0.1886
65174W        W 8165  13.158  32.287  28.503 -0.1978  0.4996  0.0504
65175W        W 8166  21.578  33.755  19.451  0.3705  0.3877  0.1579
65176W        W 8167   6.833  24.589  27.502  0.1232  0.1672 -0.3215
65177W        W 8168  18.783  34.540  14.624 -0.0069 -0.0120  0.0874
65178W        W 8169   1.638  25.304  19.285 -0.3312  0.0477 -0.0523
65179W        W 8170  25.366  12.724  22.296  0.0142 -0.0251 -0.1381
65180W        W 8171  14.282  29.641  13.684  0.2279 -0.2013  0.3725
65181W        W 8172   5.745   7.863  26.436 -0.1258  0.4211  0.2335
65182W        W 8173  12.214   1.250  24.729  0.3168 -0.2175  0.0755
65183W        W 8174  18.613  24.833   2.605  0.1303 -0.0742  0.1385
65184W        W 8175  12.495  26.849  15.931  0.2398  0.1693 -0.1521
65185W        W 8176  15.467   0.837  27.285  0.0324  0.1354 -0.0270
65186W        W 8177  18.776  24.838  20.349 -0.2251 -0.0990 -0.1146
65187W        W 8178   6.620   1.474  21.260  0.2294 -0.1097  0.1240
65188W        W 8179  30.120   0.476   5.235 -0.0225 -0.1314 -0.0460
65189W        W 8180  20.182  30.235  13.893 -0.1307  0.0115 -0.0095
65190W        W 8181  17.288   4.326  17.905  0.3372  0.1149  0.1197
65191W        W 8182  16.956  27.919  23.847  0.0144 -0.1376  0.1900
65192W        W 8183   7.590   5.834  24.049  0.0427  0.1284 -0.1504
65193W        W 8184  19.443   1.225  20.836 -0.0095 -0.3625 -0.1663
65194W        W 8185  24.175  15.615  19.053 -0.2547  0.1097 -0.1208
65195W        W 8186   7.503  30.277  19.312  0.0783 -0.0177  0.2122
65196W        W 8187  15.489  32.626  17.260 -0.0420  0.3266  0.3051
65197W        W 8188  30.951  24.690  15.400  0.3417  0.0046 -0.2003
65198W        W 8189  14.610  13.569  16.442  0.0339  0.0004 -0.2673
65199W        W 8190   2.517  30.942  20.850  0.0892 -0.0537  0.3363
65200W        W 8191  20.941  29.405  27.579 -0.1845 -0.0266  0.2767
65201W        W 8192  19.336  28.406  18.566 -0.1682  0.2165 -0.5018
65202W        W 8193  33.704   0.181  26.497  0.0527  0.2788  0.1509
65203W        W 8194  23.606  14.265  22.595 -0.0233 -0.1635 -0.1887
65204W        W 8195  17.013   8.028  21.363  0.1520  0.1895 -0.0342
65205W        W 8196  28.266  10.563  15.975  0.0421  0.0083 -0.1344
65206W        W 8197  15.588  25.669  24.801  0.2465 -0.0491  0.3760
65207W        W 8198  32.474  29.816  21.508  0.0227  0.0734 -0.1175
65208W        W 8199  20.127   1.397   5.047  0.1505  0.1217 -0.0654
65209W        W 8200   1.604  33.493   1.734  0.0339 -0.0429  0.2933
65210W        W 8201  11.944  18.844  24.209 -0.1490  0.2633  0.3049
65211W        W 8202   0.486   6.263  16.675 -0.1034 -0.4669 -0.2188
65212W        W 8203  27.643  28.293  13.263 -0.1873 -0.0325  0.0801
65213W        W 8204  14.417  32.506  25.876  0.2504 -0.0078  0.3332
65214W        W 8205  25.853  19.445  18.788  0.2414 -0.0564  0.0172
65215W        W 8206  15.485  27.187  16.187 -0.2693  0.0181  0.2982
65216W        W 8207  15.203  22.995  26.448  0.2472 -0.1304 -0.1084
65217W        W 8208  11.480  25.771  16.694 -0.0286 -0.0002 -0.1722
65218W        W 8209  18.896  31.646   0.078  0.1187  0.0039  0.3026
65219W        W 8210   7.567  23.025  15.888 -0.0840  0.0964 -0.0844
65220W        W 8211  29.251  10.015  22.489 -0.0040 -0.3264  0.1071
65221W        W 8212  30.260  33.927  17.976  0.0396  0.0799  0.2543
65222W        W 8213  13.923   5.531  22.093  0.1664 -0.0340 -0.1049
65223W        W 8214  32.060  10.631  26.192 -0.1645  0.0021 -0.3515
65224W        W 8215  33.127  26.774  18.598 -0.0264  0.1692  0.5601
65225W        W 8216  32.683   0.857  23.621  0.2785 -0.0997 -0.1652
65226W        W 8217  11.512   2.163  21.794  0.0449 -0.1328 -0.1438
65227W        W 8218   8.337  34.203  22.713 -0.2229  0.0020 -0.3139
65228W        W 8219   9.729   1.948  28.548  0.0233 -0.1933 -0.2690
65229W        W 8220  25.311   0.669  19.033 -0.0943 -0.0282 -0.0888
65230W        W 8221   5.259  33.123  19.586  0.0422 -0.0885  0.0385
65231W        W 8222  22.272   2.096  19.815 -0.0780  0.3563 -0.2625
65232W        W 8223   8.968  24.502  23.098  0.1700 -0.1694 -0.2535
65233W        W 8224   0.346  19.386  15.736  0.0690  0.0377 -0.3883
65234W        W 8225  21.114  31.203  20.190  0.0074 -0.2801 -0.3308
65235W        W 8226  15.816   3.169  21.085  0.2662 -0.1642  0.1213
65236W        W 8227  27.321   2.370  20.890 -0.0209  0.1193  0.2846
65237W        W 8228  34.163  23.261  19.906 -0.2016  0.0544  0.0371
65238W        W 8229   4.980  26.987  26.038  0.1404  0.0093 -0.2437
65239W        W 8230   5.374   7.475  16.854  0.0497 -0.1316 -0.2213
65240W        W 8231   9.195   2.602  18.292 -0.0631  0.3606  0.2192
65241W        W 8232  12.981  19.036  16.291 -0.3508 -0.1328  0.2513
65242W        W 8233   4.145   4.558   2.420 -0.0787 -0.2699  0.2521
65243W        W 8234   7.162  20.669  16.330  0.0935 -0.0198 -0.2472
65244W        W 8235   5.386   8.837  20.138  0.2167  0.0468  0.0887
65245W        W 8236  14.751  34.074  14.553  0.2257 -0.0479  0.0288
65246W        W 8237   9.463   6.395  20.907 -0.0550  0.0304  0.3012
65247W        W 8238  34.603   4.307  29.095 -0.0710 -0.0993  0.2150
65248W        W 8239   9.480   7.536  21.574  0.1902 -0.2157  0.2347
65249W        W 8240   4.254  13.112  22.040  0.0761 -0.1049  0.0260
65250W        W 8241  13.372  31.901  21.123 -0.4008  0.0305  0.0884
65251W        W 8242   5.245  33.817  20.312  0.0089  0.3779 -0.0122
65252W        W 8243  27.482  33.038  12.036 -0.0168  0.0046  0.0807
65253W        W 8244  33.537  15.828   4.266  0.2296 -0.0747 -0.1147
65254W        W 8245  28.662  33.165   0.282  0.0129  0.1257  0.3377
65255W        W 8246   4.057  33.040  25.001  0.1527  0.0576 -0.1065
65256W        W 8247   5.428  13.711   0.912 -0.2947 -0.0344  0.0754
65257W        W 8248  25.263  10.231  18.370  0.0337  0.1176  0.1343
65258W        W 8249  24.469  29.952  14.695  0.1565  0.2330  0.0408
65259W        W 8250  27.306  26.983  23.014  0.1195  0.1186  0.1695
65260W        W 8251  13.793  32.411  14.716 -0.4276 -0.3165  0.2911
65261W        W 8252  33.654   3.980  20.340 -0.3535 -0.0762  0.0495
65262W        W 8253  16.723   2.278   4.789  0.0232 -0.2620  0.3886
65263W        W 8254  33.171   2.586  25.089 -0.2040 -0.0633 -0.0815
65264W        W 8255   9.641   4.952  15.353 -0.2424  0.0387  0.1707
65265W        W 8256  29.453   4.619  28.662 -0.0980  0.2967  0.0789
65266W        W 8257   5.517  27.915  28.528 -0.2256  0.1129 -0.1583
65267W        W 8258   4.600  29.826  21.101 -0.0634  0.1591 -0.2623
65268W        W 8259   1.613  30.755   4.327  0.0698 -0.4435  0.1360
65269W        W 8260  16.009  10.726  22.915  0.1627 -0.1226  0.1021
65270W        W 8261  12.771  21.021  21.697 -0.0814 -0.3689 -0.0116
65271W        W 8262   7.359   0.464  17.934  0.1391  0.0327  0.1905
65272W        W 8263  10.320  12.031  15.376  0.0615 -0.3095  0.0661
65273W        W 8264  33.049   1.889  21.340  0.0935 -0.2572 -0.2142
65274W        W 8265   4.007  24.039  19.144  0.1333 -0.0826 -0.1649
65275W        W 8266  26.984   7.484  19.757 -0.0697 -0.2368 -0.0527
65276W        W 8267   0.282   8.978  15.318  0.1104  0.0869  0.0306
65277W        W 8268   7.434  32.338  15.288  0.0057 -0.0486  0.3246
65278W        W 8269   4.665  34.460  19.251 -0.0480  0.0641  0.2358
65279W        W 8270  18.313  21.426  18.910 -0.2457  0.2836  0.0438
65280W        W 8271  25.479  24.863  25.820 -0.2942 -0.1109 -0.0381
65281W        W 8272  11.012   5.152  17.682 -0.0080  0.1233  0.1215
65282W        W 8273  13.046  34.657  24.019  0.0388  0.1180  0.1264
65283W        W 8274  31.413  13.596   3.841 -0.0872  0.0237 -0.1641
65284W        W 8275  23.648  19.942  17.839  0.2515 -0.1084 -0.0316
65285W        W 8276  11.336   0.494  19.859 -0.0213  0.2614 -0.0174
65286W        W 8277  14.094  29.076  16.372  0.2228  0.0026  0.0138
65287W        W 8278  26.794  31.225  28.216 -0.1907 -0.2869 -0.1039
65288W        W 8279   9.044   2.464  22.273 -0.0639 -0.1729 -0.3592
65289W        W 8280   2.187   0.538   1.008 -0.4368  0.1396 -0.2923
65290W        W 8281  24.971   0.694  17.295  0.2699  0.0338 -0.0259
65291W        W 8282  20.160  21.156  18.973  0.1519  0.0971  0.1451
65292W        W 8283  20.753  32.125  23.084  0.3095 -0.3057 -0.1455
65293W        W 8284  22.454  18.603  21.529 -0.0840  0.0694  0.2287
65294W        W 8285  19.283  28.691  19.255 -0.2020  0.1986 -0.3500
65295W        W 8286  12.568   0.412   3.639  0.2173 -0.0002 -0.0092
65296W        W 8287   5.025  22.137  17.830 -0.1611  0.0005  0.1523
65297W        W 8288  15.000  30.529  22.626 -0.1827 -0.0820 -0.2435
65298W        W 8289   5.971  17.856  20.490 -0.1990  0.3193 -0.0020
65299W        W 8290  17.760   6.685  14.615  0.0939  0.1264 -0.1699
65300W        W 8291   4.958  16.804  21.704  0.1724 -0.0265 -0.0783
65301W        W 8292  14.860   2.630  21.071  0.1303  0.0054 -0.2310
65302W        W 8293   3.176   7.389   3.887 -0.1951  0.0715 -0.1432
65303W        W 8294  33.502  31.805  25.821  0.0320 -0.0997  0.2387
65304W        W 8295  15.173  25.655  27.604  0.2500 -0.2248  0.2645
65305W        W 8296  10.849  24.327  16.720  0.0099  0.0208 -0.1013
65306W        W 8297   8.156  28.629  17.829 -0.0856 -0.1727  0.2172
65307W        W 8298  31.395  26.585   4.175 -0.0059  0.3431  0.0103
65308W        W 8299  26.497  21.929  24.411 -0.0700 -0.1252 -0.2237
65309W        W 8300   7.158  15.216  19.568  0.0039  0.1882  0.0029
65310W        W 8301   6.948  29.102  19.819  0.0441  0.1660  0.2362
65311W        W 8302  15.580   0.009  14.779  0.0490  0.0713  0.1228
65312W        W 8303   6.986   8.776  26.600 -0.1145 -0.0648 -0.3554
65313W        W 8304   3.615   1.357  26.603 -0.1351 -0.4438  0.1469
65314W        W 8305  22.043  28.035   2.182 -0.1706 -0.2496  0.2870
65315W        W 8306  18.667  26.173  21.084  0.0716 -0.1963  0.0539
65316W        W 8307   7.335  34.757  19.125 -0.3986  0.0008  0.1149
65317W        W 8308   7.185  10.083  16.351  0.0553  0.0805  0.3749
65318W        W 8309  22.448  34.023  13.138  0.0411 -0.1311 -0.0763
65319W        W 8310  12.866  31.201  16.378 -0.3648  0.2894 -0.0367
65320W        W 8311  12.845  24.322  21.422  0.0295  0.3326 -0.2570
65321W        W 8312  11.408   4.716  15.037 -0.3956  0.3523  0.2907
65322W        W 8313  20.838   1.944   0.348 -0.0614 -0.0279  0.1123
65323W        W 8314  18.753  29.009  14.334  0.1592 -0.0403 -0.3569
65324W        W 8315  20.323  34.358  24.054 -0.1690  0.2784 -0.1782
65325W        W 8316  10.238  33.797  17.141  0.2604  0.3300  0.0624
65326W        W 8317   3.613  30.065  19.334  0.0941 -0.0435  0.0824
65327W        W 8318  11.859   1.776  21.490  0.0129 -0.1113  0.1370
65328W        W 8319   7.796  19.757  16.002  0.1592  0.2923 -0.0512
65329W        W 8320  16.742  28.080  18.183  0.0906  0.2077 -0.1473
65330W        W 8321  24.626  24.178  26.442 -0.1425  0.0616  0.0994
65331W        W 8322  19.976   3.771  16.705 -0.1558 -0.0145  0.1882
65332W        W 8323  28.233   8.341  24.824  0.4020  0.1092 -0.0149
65333W        W 8324   7.935  31.538  25.995 -0.3277 -0.0913  0.0207
65334W        W 8325  23.694  11.903  16.735 -0.0290  0.3375  0.2080
65335W        W 8326  18.555  31.112  18.538  0.0491  0.0314  0.3732
65336W        W 8327  12.215  14.722  20.112 -0.1682 -0.0518 -0.3560
65337W        W 8328   4.317  28.544  25.401  0.0039 -0.2903 -0.3286
65338W        W 8329  17.942  21.501  18.570 -0.0774  0.1019  0.0191
65339W        W 8330  24.260  18.787  26.456  0.0082  0.1056 -0.3093
65340W        W 8331  30.601   2.867  20.959  0.1688 -0.0949 -0.0678
65341W        W 8332  13.948  27.905  28.550 -0.1948  0.0018  0.4536
65342W        W 8333   5.081  28.400  15.211 -0.0479 -0.1554  0.2793
65343W        W 8334  14.634   6.601  26.223 -0.1394  0.1059  0.1452
65344W        W 8335   5.551  34.518  22.934 -0.0245 -0.1856 -0.1007
65345W        W 8336   3.072  22.653  15.493  0.1373 -0.1869 -0.1483
65346W        W 8337   7.703  28.286   0.425 -0.1026  0.2381  0.0485
65347W        W 8338   2.258   0.253  23.888 -0.2002  0.0419 -0.2463
65348W        W 8339  20.641  26.533  19.102  0.0473  0.1717 -0.1293
65349W        W 8340  30.999  29.016  14.755  0.2649  0.1459 -0.0530
65350W        W 8341  18.646  19.977  24.770 -0.0804  0.1907 -0.0909
65351W        W 8342  31.119   5.185  14.722 -0.1485  0.2426  0.3927
65352W        W 8343  28.127  31.757   1.780 -0.1246  0.0892  0.1438
65353W        W 8344   1.454   2.383  24.744  0.1033 -0.1965  0.1465
65354W        W 8345  25.313   0.898  20.217  0.1274  0.3367 -0.3347
65355W        W 8346   1.597  31.222  24.262 -0.1276  0.2185 -0.1980
65356W        W 8347   6.814   1.857   1.282  0.1448  0.4534  0.1010
65357W        W 8348  22.762  11.343  21.240 -0.1897 -0.0369  0.0234
65358W        W 8349   4.737   0.473  18.075  0.2801  0.1580  0.3481
65359W        W 8350   9.222   1.853  17.758 -0.1688  0.0350  0.0723
65360W        W 8351   7.250  24.336  19.279  0.1768  0.2166  0.0566
65361W        W 8352  21.692  27.291  12.939 -0.4209 -0.1099  0.0720
65362W        W 8353   4.944  30.280  23.032  0.4458  0.0340  0.2509
65363W        W 8354  21.709   5.402  28.475  0.0303  0.1807 -0.0352
65364W        W 8355  10.940   5.960  16.949 -0.2503 -0.2660  0.3522
65365W        W 8356   3.342  23.706  18.994  0.2406 -0.0042  0.1822
65366W        W 8357  12.074   5.908  23.999  0.0702 -0.1611 -0.2876
65367W        W 8358  17.333   5.827   5.612 -0.0862  0.2532  0.1686
65368W        W 8359   8.144  29.758  15.987 -0.0740 -0.1133 -0.1674
65369W        W 8360   8.428  32.125   1.052  0.0992 -0.1096  0.2297
65370W        W 8361  15.431  30.700  25.292 -0.1841  0.2652 -0.0310
65371W        W 8362  25.936  28.783   0.597 -0.2276 -0.0503  0.0650
65372W        W 8363  21.628  27.240  22.391  0.0006 -0.0268  0.0050
65373W        W 8364  32.832  21.849   6.671 -0.5151  0.2907  0.1381
65374W        W 8365  13.673   3.047   4.051 -0.2849  0.1051 -0.0431
65375W        W 8366  26.154  33.468  16.793 -0.0895  0.1461 -0.2019
65376W        W 8367  10.506  18.652  22.894 -0.1871  0.0921  0.1046
65377W        W 8368   3.794  32.772  21.774  0.2077 -0.2149  0.0092
65378W        W 8369  28.218  27.058  14.271 -0.2908 -0.1959 -0.1664
65379W        W 8370   4.741  24.196   1.411  0.0752 -0.2635  0.0127
65380W        W 8371  12.365  25.657  15.432  0.3517 -0.0396 -0.3411
65381W        W 8372  23.214   5.871  20.137 -0.0562 -0.2411  0.0873
65382W        W 8373   4.843  33.822  27.657 -0.1847  0.0151 -0.0356
65383W        W 8374   5.611   0.055  14.610 -0.0802 -0.3421 -0.1438
65384W        W 8375   2.194  28.044  16.450 -0.2751 -0.2218  0.2524
65385W        W 8376   5.245   2.540  17.393 -0.0904  0.0238  0.1096
65386W        W 8377  28.533   2.749  19.936  0.1274  0.2810  0.2522
65387W        W 8378   2.066  30.070  22.275  0.1540 -0.0078 -0.2828
65388W        W 8379  32.929  33.925  15.290 -0.3713  0.1316  0.0451
65389W        W 8380  28.674  14.523  10.587 -0.1021  0.1641 -0.2162
65390W        W 8381  17.329  28.282  16.594  0.2821  0.1282  0.1150
65391W        W 8382  21.221   0.166   4.795  0.1525 -0.0899  0.0390
65392W        W 8383   5.106  30.034   1.463 -0.0788 -0.1637  0.3371
65393W        W 8384   9.233  18.050   0.301  0.0744 -0.2246 -0.1016
65394W        W 8385  10.837   5.634  17.308 -0.0826  0.2358 -0.1750
65395W        W 8386  28.994  25.708   4.882 -0.0773  0.0878  0.2380
65396W        W 8387  33.707  25.644  18.550  0.5411 -0.1040 -0.1088
65397W        W 8388  16.272   0.463   9.490 -0.0426  0.0349 -0.0497
65398W        W 8389  22.728  16.991  28.566 -0.1167  0.0258 -0.0797
65399W        W 8390   5.822  30.392   0.627 -0.3509 -0.1488 -0.3589
65400W        W 8391  22.688   0.045   0.625  0.0643  0.1030  0.2364
65401W        W 8392   6.558   2.556  23.668 -0.1363 -0.0528 -0.3736
65402W        W 8393  11.735  15.497  14.646  0.3795 -0.0313  0.0018
65403W        W 8394   1.980  22.785   4.382  0.1127 -0.1257 -0.4299
65404W        W 8395  17.175  33.620  16.390  0.1376 -0.3608 -0.1712
65405W        W 8396  17.761  13.893  27.432 -0.2768  0.0775  0.0535
65406W        W 8397  12.669   0.405   1.574  0.1228 -0.0695 -0.1145
65407W        W 8398  32.371  31.279  15.720 -0.1820 -0.1068  0.1183
65408W        W 8399  18.476  23.385  22.488 -0.1953 -0.0296 -0.1019
65409W        W 8400   7.521   6.170  15.305 -0.0513  0.1486  0.0090
65410W        W 8401  26.385  32.770  24.688  0.3427  0.0877 -0.1746
65411W        W 8402   3.078   4.506  22.324 -0.0672  0.1186 -0.2587
65412W        W 8403  19.285  34.632  18.809  0.0469 -0.3134  0.0525
65413W        W 8404  14.965   8.541  25.351  0.0946  0.0475 -0.0953
65414W        W 8405  12.271  32.250   4.401  0.1753  0.1049 -0.0075
65415W        W 8406   6.847  29.476  15.399 -0.0947 -0.0141 -0.1761
65416W        W 8407   8.596  21.052  16.144 -0.0006  0.0685 -0.1772
65417W        W 8408  18.446  29.564  22.148 -0.1147  0.0339  0.1135
65418W        W 8409  15.729  25.190   2.136  0.0088  0.2469  0.0956
65419W        W 8410  17.059  32.528  16.135 -0.1285 -0.2252  0.2879
65420W        W 8411  27.658  30.818  17.944  0.0762  0.1437 -0.0189
65421W        W 8412  13.701  28.757  22.605  0.3151 -0.2146  0.1941
65422W        W 8413  22.442  16.943  22.125 -0.0147  0.0607 -0.0504
65423W        W 8414  20.875  10.133  19.274 -0.2055 -0.1922 -0.2108
65424W        W 8415  17.730  26.608  15.363 -0.0682 -0.0770 -0.1982
65425W        W 8416  31.437  19.027  19.188  0.3397  0.2620 -0.0667
65426W        W 8417  26.188  32.829  25.578 -0.3192  0.0012 -0.1458
65427W        W 8418  10.919   3.819  22.454 -0.1963  0.0769  0.5250
65428W        W 8419  17.878  22.837   0.089 -0.0882 -0.0228  0.1435
65429W        W 8420  14.007  24.495  14.546 -0.2265 -0.3318 -0.0490
65430W        W 8421  15.384  29.922  16.900 -0.2466  0.0425  0.1003
65431W        W 8422  15.447  27.507  14.299 -0.1596  0.0806  0.2505
65432W        W 8423  23.293   0.644  13.837 -0.2416  0.0108 -0.1343
65433W        W 8424   8.792  13.881  23.449  0.3605  0.2188  0.1214
65434W        W 8425  33.699  13.813   3.166  0.3182 -0.1715  0.0464
65435W        W 8426  26.000  23.388  24.706 -0.3564 -0.1308  0.5110
65436W        W 8427   9.618  31.797  23.190 -0.1640  0.2883 -0.0611
65437W        W 8428   0.026  19.658   0.962  0.2376  0.1349 -0.2283
65438W        W 8429  34.189  10.586  22.597  0.0298 -0.0147  0.1054
65439W        W 8430  10.060   0.418   3.119 -0.1807  0.1448 -0.0221
65440W        W 8431  21.501  34.125  17.998 -0.1686 -0.1664  0.6460
65441W        W 8432  12.730  18.730  12.997 -0.0445  0.1697 -0.3168
65442W        W 8433  24.083  25.487   0.100  0.0217  0.0906  0.0783
65443W        W 8434  27.582  32.171   1.011 -0.3860  0.1662 -0.2617
65444W        W 8435  14.506  28.249  13.708  0.0090 -0.3631  0.2074
65445W        W 8436   2.351  22.948  15.578 -0.3165 -0.0429  0.2289
65446W        W 8437  15.209  26.625  17.779 -0.4050 -0.1727 -0.0882
65447W        W 8438  17.048  10.188  22.279 -0.1492 -0.2100 -0.0428
65448W        W 8439  12.426   2.480  18.793  0.0333 -0.3325 -0.2968
65449W        W 8440   6.408   1.629  26.502 -0.1013  0.3503  0.1863
65450W        W 8441   2.660   7.694  18.850  0.4012 -0.1708  0.1047
65451W        W 8442  20.938   1.475  18.405  0.1070 -0.1301  0.0268
65452W        W 8443  19.365   5.190   5.355  0.1706 -0.0864 -0.1685
65453W        W 8444  18.795  23.165  25.351 -0.1573  0.1447  0.4122
65454W        W 8445  11.377  18.131  15.416 -0.3313 -0.2484  0.2029
65455W        W 8446  26.719  26.055   0.657  0.3799 -0.3794 -0.0699
65456W        W 8447  10.675   4.093  15.656 -0.2883  0.2028  0.0959
65457W        W 8448  18.253  18.059  25.932  0.1680 -0.0979 -0.1009
65458W        W 8449  20.457  12.438  14.577 -0.0264  0.2090 -0.2070
65459W        W 8450   7.792  25.751  15.664 -0.2446  0.1254 -0.2956
65460W        W 8451  24.281   7.871  21.069  0.1406  0.0967 -0.0114
65461W        W 8452  28.587   4.099  13.909  0.0618 -0.0132 -0.1699
65462W        W 8453  25.536  21.144   3.275  0.0922 -0.0191  0.0833
65463W        W 8454  18.527   5.685  19.676  0.0074  0.0030 -0.0626
65464W        W 8455  32.761  19.935  15.508 -0.0398  0.1826 -0.2873
65465W        W 8456   6.274  22.784  20.179 -0.1588  0.2638 -0.0322
65466W        W 8457  14.922  34.142   7.596 -0.1691  0.2116 -0.2939
65467W        W 8458  12.121  30.024  16.605 -0.0754 -0.0978 -0.0336
65468W        W 8459  10.931  33.117  24.149 -0.2540 -0.0516 -0.0441
65469W        W 8460  10.189   7.967  17.465  0.1048 -0.0638  0.0215
65470W        W 8461  19.625  13.973   0.117 -0.0489  0.0630  0.0349
65471W        W 8462  16.717  11.231  18.586  0.1488  0.0164  0.0099
65472W        W 8463   6.592  15.078  18.177 -0.3756 -0.0213  0.2421
65473W        W 8464  23.037  23.067  15.163 -0.0007  0.2548 -0.1386
65474W        W 8465   3.805  32.305  23.946 -0.0898 -0.1157  0.4553
65475W        W 8466   5.647  26.332  14.371 -0.1269 -0.1742 -0.2473
65476W        W 8467  12.844  25.952  18.155 -0.0788  0.0020 -0.0708
65477W        W 8468  22.934   1.336  17.767  0.0400 -0.0243  0.0143
65478W        W 8469   6.725  28.817  14.951 -0.2925  0.0644  0.1059
65479W        W 8470  24.427  34.375  21.404 -0.1901 -0.1913  0.0205
65480W        W 8471  17.047  31.900  21.232 -0.3346 -0.0604 -0.2179
65481W        W 8472   4.475  23.008  29.038 -0.1518 -0.2133 -0.0974
65482W        W 8473  10.802  29.730  22.352  0.2331  0.1419  0.1598
65483W        W 8474   0.179   1.154  24.267  0.0087 -0.1953 -0.1192
65484W        W 8475  16.501   3.410  17.071  0.2431  0.0045  0.0068
65485W        W 8476  31.307  10.275  28.384  0.3741 -0.1193 -0.0323
65486W        W 8477  11.835   5.132   0.874  0.1471 -0.1259 -0.1398
65487W        W 8478  12.788   3.736  18.709  0.0461  0.0124 -0.1021
65488W        W 8479  25.357  26.057  16.414  0.2042  0.1585  0.0561
65489W        W 8480  22.035  33.632  20.282  0.1066 -0.0473 -0.0534
65490W        W 8481  33.750  32.256  25.124  0.2633 -0.0449  0.1941
65491W        W 8482  34.667  26.632  18.718 -0.2370 -0.2723 -0.0536
65492W        W 8483  14.753  28.042  25.621 -0.1170  0.1554 -0.3020
65493W        W 8484  10.184  22.372  26.363 -0.1225 -0.0288  0.0118
65494W        W 8485   7.829   8.010   4.602 -0.0376 -0.0510 -0.1940
65495W        W 8486   3.742  31.975  19.863 -0.0220  0.3329 -0.2667
65496W        W 8487  17.007  23.893  22.870  0.4936 -0.0667  0.0244
65497W        W 8488   3.545  31.625  29.257  0.0575  0.1869 -0.1866
65498W        W 8489  31.863  18.230  14.394  0.2861 -0.0147 -0.0060
65499W        W 8490  15.616   1.110  27.700  0.0153  0.2489 -0.0661
65500W        W 8491  15.496  27.307  26.790 -0.1721 -0.0821  0.2109
65501W        W 8492   6.324  30.653  18.519 -0.0848 -0.2828  0.1087
65502W        W 8493  20.049   3.270  23.488  0.1770 -0.1189 -0.1623
65503W        W 8494  34.542   2.389  21.415 -0.0984  0.1198 -0.0282
65504W        W 8495  30.324   3.242  16.098  0.1452  0.1574  0.0632
65505W        W 8496   8.835   1.289  19.700 -0.0228 -0.2369 -0.1165
65506W        W 8497  10.323  13.366  16.835 -0.1608 -0.1626 -0.0815
65507W        W 8498  19.679   6.818  16.221  0.0161 -0.1820  0.1966
65508W        W 8499  11.130  26.089  28.111  0.2278 -0.0124 -0.1631
65509W        W 8500   5.263  22.318  27.044  0.0183  0.3713 -0.1289
65510W        W 8501  15.997  18.835  13.617  0.0871 -0.1922  0.3953
65511W        W 8502  20.842  28.066  20.623 -0.0792 -0.0453 -0.1563
65512W        W 8503  23.329  34.676   4.313  0.2639 -0.1443 -0.3319
65513W        W 8504  10.688  34.505  18.084  0.0617  0.0244  0.1501
65514W        W 8505   5.988   0.271   2.390  0.0634 -0.1957  0.1985
65515W        W 8506  16.491   0.893  25.476  0.2494 -0.5798 -0.1067
65516W        W 8507  21.866  22.249   2.696 -0.1122 -0.0304  0.0033
65517W        W 8508  13.547   1.624  20.537  0.2894 -0.1678 -0.1796
65518W        W 8509  16.829   8.232  14.088  0.1392  0.0842  0.1513
65519W        W 8510  20.654  15.440  17.295 -0.1586 -0.0778  0.2731
65520W        W 8511  21.303   2.200  20.820 -0.0022  0.2115  0.2106
65521W        W 8512  22.697  32.485   8.401  0.3260  0.0765  0.4387
65522W        W 8513  19.493  33.736  18.813  0.0387  0.1436  0.1105
65523W        W 8514  33.320  22.071  16.312 -0.0307  0.0975  0.2384
65524W        W 8515   2.735  33.951  14.875  0.0646  0.1181  0.0667
65525W        W 8516   1.159  26.736  18.197 -0.3666  0.2951  0.2523
65526W        W 8517  15.130  19.307  14.196  0.0096 -0.1123  0.2991
65527W        W 8518   5.954  33.564  19.835 -0.2151  0.1024 -0.0669
65528W        W 8519  27.373  21.740  14.261  0.0803 -0.0712  0.1441
65529W        W 8520  22.209  25.962  21.460 -0.1282  0.1498  0.0981
65530W        W 8521  13.781  21.568  20.220  0.1967 -0.0172  0.1031
65531W        W 8522  32.416  29.399  17.633  0.1490 -0.0972 -0.2230
65532W        W 8523  27.168  27.463  19.221 -0.2911 -0.0378  0.1134
65533W        W 8524  18.948  34.341  17.526 -0.1277 -0.0846  0.0277
65534W        W 8525  19.629  29.739  15.194 -0.1612 -0.0015 -0.0818
65535W        W 8526  13.758  32.860  17.960 -0.2370 -0.0241 -0.1840
65536W        W 8527  20.900  31.221  22.855  0.0917  0.4926 -0.3107
65537W        W 8528   8.097  21.987  19.000 -0.1032 -0.1933 -0.3120
65538W        W 8529  13.797  34.093  22.639 -0.0024 -0.3351 -0.1494
65539W        W 8530   8.251  33.298  27.146  0.1008 -0.0121  0.0218
65540W        W 8531   1.754  26.366  19.893 -0.0828 -0.0200  0.0379
65541W        W 8532   3.547  23.183  19.035  0.0699  0.2771 -0.0345
65542W        W 8533  20.782  34.598  21.206 -0.1552 -0.0991  0.1784
65543W        W 8534  18.075  26.336  24.860 -0.3967  0.0149 -0.4970
65544W        W 8535  15.491  34.366  16.167 -0.0721  0.1279 -0.2129
65545W        W 8536  17.500  24.107   0.310  0.0512  0.0149  0.5245
65546W        W 8537  16.059  25.283  14.267 -0.1423  0.5029  0.0860
65547W        W 8538  22.651   5.416   4.703 -0.2218 -0.0834 -0.1223
65548W        W 8539  30.228  25.239  25.607  0.0298 -0.1823  0.0212
65549W        W 8540  18.721  22.539   2.564 -0.3089 -0.0181 -0.0885
65550W        W 8541  33.391  26.016  20.327  0.1183  0.0531 -0.0990
65551W        W 8542  15.671  25.630  14.284 -0.3209  0.2567 -0.2792
65552W        W 8543  16.205  10.672  19.001  0.1074  0.4879  0.0644
65553W        W 8544   8.727  23.100  22.415 -0.0587 -0.1313 -0.0282
65554W        W 8545  23.060  27.375  14.169  0.1773  0.3812  0.2812
65555W        W 8546  18.308  25.075  20.293  0.0990  0.0283 -0.1120
65556W        W 8547  10.368  21.064  20.049  0.2680  0.2345 -0.2041
65557W        W 8548  18.129  23.661  18.591 -0.0959  0.3044 -0.1319
65558W        W 8549  12.615  33.512  21.627 -0.0776  0.1029 -0.0443
65559W        W 8550  21.084  21.842  23.488  0.1371 -0.1134  0.1999
65560W        W 8551  13.323  30.930  19.920  0.0963  0.1349 -0.0937
65561W        W 8552   1.354  20.597  18.676  0.2177  0.4253  0.0543
65562W        W 8553  12.403   6.263  16.020 -0.3143 -0.0526 -0.3678
65563W        W 8554  10.392   0.481   2.242  0.0084 -0.3933 -0.0800
65564W        W 8555  22.015   7.792  24.988 -0.0112  0.2716 -0.1149
65565W        W 8556   8.962   0.304  23.440  0.0754 -0.1121 -0.0991
65566W        W 8557  14.555  21.388   7.682  0.4427  0.0583  0.0427
65567W        W 8558   4.375  23.316   2.525  0.1403  0.1087  0.1187
65568W        W 8559   1.473  10.996  22.507  0.0433  0.0837 -0.0572
65569W        W 8560  27.963  21.113  25.310 -0.1007 -0.0244 -0.0142
65570W        W 8561  14.863   3.011  19.500  0.2089 -0.0623  0.1509
65571W        W 8562   3.392  18.563  27.483 -0.1092  0.0724  0.1420
65572W        W 8563   7.868  33.450  14.644  0.0755 -0.2697 -0.2712
65573W        W 8564  32.672  34.210  22.475  0.0615 -0.0424  0.2683
65574W        W 8565   8.006   3.413  21.199  0.1240 -0.1596 -0.0853
65575W        W 8566   4.443   3.627  19.710  0.0907 -0.0543  0.2401
65576W        W 8567  26.264   1.551  16.741 -0.2548  0.0635  0.0756
65577W        W 8568   0.575   6.472  16.203 -0.1053 -0.0582 -0.0626
65578W        W 8569  12.378  12.452  16.562 -0.0119 -0.2524  0.2155
65579W        W 8570   5.419   9.130  15.697 -0.2391 -0.1420 -0.0514
65580W        W 8571  14.695   3.399  20.893  0.3161 -0.1179  0.0653
65581W        W 8572   0.032   8.860  23.431  0.3738 -0.0935  0.4521
65582W        W 8573  21.600  31.876  23.447 -0.1037 -0.1889  0.1912
65583W        W 8574  19.882  29.198  16.964 -0.0119 -0.0830  0.1620
65584W        W 8575  12.312  24.266  10.243  0.1809  0.0286  0.0549
65585W        W 8576  19.989  18.890  29.240  0.3312 -0.0411 -0.0344
65586W        W 8577   9.598  27.751   4.925  0.3769 -0.0462 -0.1253
65587W        W 8578  23.207  33.389  17.090  0.0395 -0.0600  0.2362
65588W        W 8579  26.442   3.201  14.038  0.2428 -0.0773 -0.0051
65589W        W 8580  10.743   5.901  22.812 -0.0841 -0.2933 -0.0774
65590W        W 8581  16.100  32.548  22.863  0.0390 -0.2197 -0.2354
65591W        W 8582  12.380  18.989  13.733  0.0762  0.0513 -0.0966
65592W        W 8583   2.605  25.950  16.055  0.5031 -0.0296  0.0276
65593W        W 8584   2.807   2.893  10.522  0.0250  0.2565 -0.3032
65594W        W 8585  21.551  33.839  17.530  0.0336  0.1949  0.0371
65595W        W 8586  21.898  10.782  14.286 -0.2809 -0.1421  0.0002
65596W        W 8587  20.868  26.726   2.386  0.0577  0.3686 -0.1880
65597W        W 8588   7.464   2.675  27.485  0.1226  0.1570  0.2731
65598W        W 8589  19.053  22.617  24.675 -0.0007  0.2713 -0.2742
65599W        W 8590   2.648   8.934  27.519 -0.1866 -0.1312  0.0304
65600W        W 8591  13.899  11.054  25.377  0.1455 -0.0217  0.1200
65601W        W 8592  23.171  26.894  20.021  0.0336 -0.0188 -0.1527
65602W        W 8593  12.017   5.849  15.935  0.2465 -0.1928  0.2230
65603W        W 8594  16.316  32.104  22.906  0.1241  0.0565  0.2844
65604W        W 8595  17.062  32.173  27.564  0.3141 -0.2415 -0.4656
65605W        W 8596  23.417  32.374  18.185  0.0444  0.2166  0.0548
65606W        W 8597  23.377   3.239  26.291 -0.1178  0.0455  0.3627
65607W        W 8598  10.381  33.473   1.260 -0.1116 -0.0641  0.4030
65608W        W 8599   8.193  19.965  22.415  0.1590  0.0722 -0.1368
65609W        W 8600  15.220   5.312   9.377 -0.2225 -0.0376  0.1269
65610W        W 8601  17.586   4.444  16.243  0.0608  0.1122 -0.1253
65611W        W 8602   5.414  32.259  19.061 -0.0325  0.1689 -0.0306
65612W        W 8603  13.656  24.719  21.305 -0.1393  0.1879  0.0465
65613W        W 8604   8.333   4.132  14.727  0.0800  0.0323  0.1193
65614W        W 8605  14.461  33.298  18.717  0.0531  0.0845 -0.0368
65615W        W 8606  33.679  30.197  14.671 -0.0346 -0.1761 -0.1631
65616W        W 8607  18.175   3.389  15.517  0.3887  0.2944 -0.0678
65617W        W 8608   3.679  23.254   4.946 -0.0322 -0.2599 -0.1130
65618W        W 8609  34.087  24.790  22.721 -0.5104  0.4188  0.0460
65619W        W 8610  12.398   9.097  17.840  0.0056  0.1730 -0.2666
65620W        W 8611  19.325   3.518  13.779 -0.2461 -0.0616 -0.2667
65621W        W 8612  10.265   4.323  18.967 -0.0406 -0.1334  0.2934
65622W        W 8613  19.792  33.309  18.638 -0.1073 -0.2599  0.2148
65623W        W 8614  29.318   0.393  16.569  0.1627  0.0513  0.1320
65624W        W 8615  21.363  25.878  14.630  0.1238  0.1306  0.1580
65625W        W 8616  11.521  30.051  19.869  0.1372 -0.1616  0.0450
65626W        W 8617  15.517  21.494  22.457  0.3546 -0.1229  0.1607
65627W        W 8618  16.206   2.724   3.859 -0.2863 -0.1736 -0.2137
65628W        W 8619  16.543   0.851   0.103 -0.1252 -0.2342 -0.1110
65629W        W 8620   2.148  17.439  24.656  0.3103  0.2624 -0.0508
65630W        W 8621   8.390  31.261  29.242 -0.0775  0.1669 -0.1868
65631W        W 8622   4.792  26.456  18.609 -0.3537 -0.0713 -0.0075
65632W        W 8623  21.828  29.014  16.138  0.0915  0.1887  0.2258
65633W        W 8624  13.496   6.260  16.506 -0.4510  0.0560  0.1955
65634W        W 8625  13.209  31.216  28.242 -0.1304  0.2673  0.3379
65635W        W 8626  34.162  22.064  19.285  0.1812 -0.0934  0.2058
65636W        W 8627   1.764   2.303  25.935  0.0450 -0.2217 -0.0429
65637W        W 8628   0.743  31.742  19.040 -0.0892 -0.1295 -0.1176
65638W        W 8629  29.201  27.890  13.681  0.1443  0.1362 -0.2093
65639W        W 8630   4.605  19.893  24.857 -0.3140 -0.0224 -0.1159
65640W        W 8631  15.953  29.950  20.253  0.0017  0.1624 -0.0387
65641W        W 8632  21.239  29.805   0.830  0.2587 -0.0103  0.2280
65642W        W 8633   2.725  23.831   2.085  0.0348  0.1495 -0.2305
65643W        W 8634  13.630  30.289   1.402 -0.2964  0.2319  0.0978
65644W        W 8635  24.783  34.318  14.815 -0.0734  0.1594  0.0216
65645W        W 8636   9.449  18.174  16.696  0.0370 -0.2475  0.2129
65646W        W 8637  29.920  34.165  17.700  0.2315 -0.3202 -0.4091
65647W        W 8638  15.290  32.403   0.869  0.2171 -0.1168 -0.2305
65648W        W 8639   6.075  25.078  16.247  0.1380  0.1126  0.1094
65649W        W 8640  19.034  31.003  21.036  0.1315  0.0857  0.3822
65650W        W 8641   7.287   2.484  22.071 -0.1592 -0.0409 -0.0688
65651W        W 8642  13.600   4.842  25.553  0.1267 -0.0746 -0.1257
65652W        W 8643  12.561  22.992  19.496  0.1790  0.0265 -0.0558
65653W        W 8644  10.672  22.329   1.441  0.0210 -0.1299  0.1693
65654W        W 8645  16.085   4.022  26.065  0.0448 -0.2827  0.2056
65655W        W 8646   6.939  34.535  15.515 -0.1939  0.0038  0.2035
65656W        W 8647  10.043  32.411  14.596  0.3391 -0.1009 -0.1193
65657W        W 8648   8.850  12.318  27.758  0.1390 -0.0279  0.1707
65658W        W 8649   0.424  13.335   8.265 -0.1625 -0.0698 -0.2922
65659W        W 8650  23.304  27.345  19.677  0.3662 -0.0669 -0.0659
65660W        W 8651  17.415  28.753   0.812  0.1916 -0.0807  0.0458
65661W        W 8652  24.525  15.363  21.503  0.0043  0.3828 -0.0984
65662W        W 8653  34.059   2.848  14.614  0.3765 -0.1925  0.0288
65663W        W 8654  30.571  33.304  16.230 -0.0322 -0.0412 -0.0462
65664W        W 8655  26.885   3.175  18.135 -0.1460 -0.4218  0.0593
65665W        W 8656  19.747   5.588  25.503 -0.3600 -0.1390  0.0877
65666W        W 8657  12.249   4.115   0.976  0.1262 -0.3780 -0.0734
65667W        W 8658   2.966   8.008  19.619 -0.2574  0.1254  0.1143
65668W        W 8659  21.905  22.079  24.472 -0.0564  0.1510  0.2362
65669W        W 8660   7.602  24.628  23.126 -0.0280  0.0714  0.0603
65670W        W 8661  32.025  31.279   4.617  0.0983  0.3165 -0.0913
65671W        W 8662  16.201   6.351   6.152  0.0789 -0.1878 -0.3155
65672W        W 8663   4.209  32.305  23.033  0.0341 -0.0626  0.0132
65673W        W 8664  21.306  23.806  20.444  0.2429  0.0325  0.2451
65674W        W 8665  33.315  21.655  22.273  0.4569 -0.2630  0.0026
65675W        W 8666  33.122  26.462  27.579 -0.1289  0.2629 -0.0271
65676W        W 8667  17.754   8.478  28.083 -0.2836 -0.3493 -0.3417
65677W        W 8668  26.995  28.447  17.298  0.2791 -0.0454  0.1286
65678W        W 8669  17.170  34.565  17.645 -0.0851 -0.3511 -0.0204
65679W        W 8670   2.890   2.408   6.984 -0.1929  0.2361  0.1035
65680W        W 8671  30.256   1.165  22.292 -0.1813  0.0819 -0.2886
65681W        W 8672  14.528  22.400  13.967  0.0396 -0.0382  0.1430
65682W        W 8673  17.533  23.234   0.826  0.0134 -0.0293 -0.1147
65683W        W 8674  24.368  19.291  29.059 -0.2799  0.0022  0.0398
65684W        W 8675   0.243  22.245  25.250 -0.2049  0.0991  0.1859
65685W        W 8676   6.738   2.406  23.003 -0.1126 -0.1232 -0.0900
65686W        W 8677   0.147   6.380  15.930  0.0029  0.1236 -0.0184
65687W        W 8678  27.046   1.952   3.311 -0.2329  0.1046  0.0266
65688W        W 8679   6.189  12.403  17.273  0.2013  0.2697  0.3202
65689W        W 8680   0.070  21.066  25.432  0.0909 -0.0092  0.1438
65690W        W 8681   8.311  33.384   1.827  0.1691  0.1729  0.1644
65691W        W 8682  17.748  28.752   3.239  0.3073 -0.2749  0.1094
65692W        W 8683  10.138  29.626  15.746 -0.1688 -0.2164 -0.0584
65693W        W 8684  10.208  16.140  25.419 -0.1442 -0.0013 -0.1404
65694W        W 8685  32.403   4.873   2.600  0.0514 -0.0233  0.2660
65695W        W 8686  13.166  14.220  24.421 -0.0292 -0.0122  0.1858
65696W        W 8687  27.283  14.296  14.577 -0.0133  0.0228  0.2236
65697W        W 8688  21.408  28.026  28.652  0.1430  0.0671  0.0274
65698W        W 8689  13.165  24.726  14.337  0.2106 -0.0291  0.2646
65699W        W 8690  23.297  34.119  15.202 -0.1033  0.1059 -0.2160
65700W        W 8691  16.624   0.759  17.489  0.0155  0.1930 -0.2237
65701W        W 8692  30.688  10.590  26.004 -0.0401 -0.3039 -0.1859
65702W        W 8693  12.544  13.269  10.723  0.1485 -0.2859 -0.3517
65703W        W 8694   5.903  22.230   3.875  0.0302 -0.0048 -0.0424
65704W        W 8695   0.610  29.470   7.950 -0.2294 -0.0563 -0.1497
65705W        W 8696  22.709  33.305  17.237  0.2001  0.0665  0.2759
65706W        W 8697  17.011  25.621   1.279 -0.3807 -0.1144  0.0552
65707W        W 8698  20.350  26.862  25.431  0.0497 -0.0336  0.0479
65708W        W 8699  10.572  34.064  28.690  0.1094  0.1175  0.2066
65709W        W 8700  11.787  16.944  21.660  0.0188 -0.1712  0.0125
65710W        W 8701   2.894   1.678  17.584  0.2760 -0.1761 -0.0094
65711W        W 8702  23.689  12.497  14.698  0.0286  0.1527  0.3368
65712W        W 8703  19.305  17.822  24.066 -0.4889 -0.1074  0.1269
65713W        W 8704   6.511   5.880   2.038 -0.0561  0.1073 -0.1375
65714W        W 8705  25.314   5.532  26.615 -0.1526  0.1652  0.2381
65715W        W 8706  16.208  12.116  20.191 -0.1234  0.3189 -0.2302
65716W        W 8707  17.599  23.571  16.013 -0.1555  0.0327  0.2549
65717W        W 8708  17.143  31.572  20.763  0.0315 -0.3161  0.0098
65718W        W 8709  32.239  34.434  18.782  0.1278  0.0138 -0.0706
65719W        W 8710  33.027  32.344  22.837 -0.2345 -0.1140 -0.2441
65720W        W 8711  21.844  12.270  24.116  0.0731  0.4020  0.2049
65721W        W 8712   3.059   2.795  26.598  0.0230 -0.2761  0.0034
65722W        W 8713  27.097  31.611  26.320  0.0222 -0.0535 -0.1968
65723W        W 8714  23.589   2.830  13.041 -0.0411  0.1427 -0.0199
65724W        W 8715  11.820  31.055  23.555  0.0575 -0.1572 -0.0006
65725W        W 8716  10.152  10.067  22.363  0.3627 -0.0650  0.1939
65726W        W 8717  25.058   8.417  17.191 -0.1651  0.2070  0.0357
65727W        W 8718   1.126  19.341  23.946 -0.1295  0.0113  0.1674
65728W        W 8719  10.047   1.449  16.226 -0.0881 -0.0406 -0.0143
65729W        W 8720  32.858  25.128   0.562  0.0463  0.3509  0.0913
65730W        W 8721  17.595  17.057   4.934  0.1540 -0.0361 -0.0064
65731W        W 8722   8.409  25.702  21.336 -0.4919  0.1870 -0.1755
65732W        W 8723  10.007  15.571  13.902 -0.0134  0.5042 -0.0706
65733W        W 8724  19.910   5.974  20.810 -0.0787 -0.3760  0.0845
65734W        W 8725  10.946  34.095  27.458 -0.2935  0.0818 -0.0772
65735W        W 8726  11.328  28.856  16.407 -0.4239 -0.1540  0.0228
65736W        W 8727  21.731   8.984   6.780  0.2514  0.0531  0.2291
65737W        W 8728  18.628   4.359  14.072  0.1912  0.0226  0.2123
65738W        W 8729  32.528  30.859  24.738  0.2288 -0.0431  0.2832
65739W        W 8730  15.440  25.997  23.829  0.0412  0.0086 -0.2114
65740W        W 8731  16.340  22.183   4.832 -0.1712 -0.2366  0.0119
65741W        W 8732  34.102  27.344  25.011  0.0714 -0.2132  0.2311
65742W        W 8733  13.951  18.472  24.068  0.0838 -0.1886  0.0680
65743W        W 8734  11.423  25.838  20.393 -0.0193 -0.4885  0.2263
65744W        W 8735  11.922  21.108   5.607 -0.1566 -0.0348  0.0911
65745W        W 8736   2.394  31.111  21.271  0.0644  0.1710 -0.0701
65746W        W 8737  13.416   4.565  24.596 -0.0176 -0.1282 -0.0573
65747W        W 8738  31.077  28.247  29.048  0.1334 -0.0801 -0.0772
65748W        W 8739  29.269  26.898  25.307  0.0067  0.0522 -0.0060
65749W        W 8740   6.567  31.176  18.644 -0.0878 -0.0799  0.1921
65750W        W 8741   9.400  31.844  26.371  0.0160  0.0032  0.1036
65751W        W 8742  14.815  21.397   1.477  0.1670  0.1798 -0.1168
65752W        W 8743  23.047   0.714  19.183  0.3684 -0.0392 -0.0609
65753W        W 8744   9.163  10.631  14.779  0.1881 -0.0543  0.1234
65754W        W 8745   3.564   9.338  23.425  0.2635  0.1224 -0.2831
65755W        W 8746  26.726   7.495  27.649 -0.2262 -0.0348  0.0080
65756W        W 8747   8.651   6.576  19.058 -0.2757  0.0191 -0.0379
65757W        W 8748   4.958   4.141  18.821  0.0997  0.3858  0.2110
65758W        W 8749  15.030   2.879  28.899 -0.0526 -0.0844 -0.0809
65759W        W 8750   8.831  25.646  20.537  0.2106  0.0047  0.3431
65760W        W 8751  19.005  15.076  21.957  0.1039 -0.2006  0.2209
65761W        W 8752  13.972  33.757   8.529 -0.0719  0.3660 -0.3955
65762W        W 8753  24.094  19.961  20.195  0.3133  0.1109  0.0110
65763W        W 8754   2.011   4.970  19.641  0.2036 -0.1137 -0.2734
65764W        W 8755   8.079  22.446  28.315  0.2605 -0.1257 -0.1808
65765W        W 8756  21.131  24.612  28.499 -0.2558  0.2954 -0.0185
65766W        W 8757  30.122   5.425  24.134 -0.0249 -0.2137 -0.1646
65767W        W 8758  24.746  13.606  15.871 -0.3079 -0.2323 -0.2479
65768W        W 8759  16.502  23.272  20.237  0.0377 -0.0288 -0.2792
65769W        W 8760  14.286  24.197  23.909  0.0766  0.2412  0.0617
65770W        W 8761   5.813   0.246  18.144  0.1203 -0.0147 -0.1830
65771W        W 8762  26.333  25.095  14.945  0.2900  0.2372  0.0051
65772W        W 8763  15.749  34.519  22.182 -0.0813 -0.2995  0.3014
65773W        W 8764  23.587  33.187  26.945  0.5021 -0.1917  0.0585
65774W        W 8765   5.959  30.771  18.127 -0.3235  0.0916  0.0333
65775W        W 8766  26.115  21.728  27.582 -0.0084 -0.1627 -0.1104
65776W        W 8767  23.042  24.786   9.871 -0.2223  0.3983  0.1092
65777W        W 8768  11.072   1.099  26.873  0.3539  0.2415  0.0410
65778W        W 8769  24.386  30.082  29.001 -0.1492  0.1037  0.0154
65779W        W 8770   0.062  23.181  23.796 -0.0936  0.0392 -0.3865
65780W        W 8771  24.357  23.531  23.136 -0.1676 -0.1154 -0.1916
65781W        W 8772   6.994  25.623  29.185 -0.0498  0.1784 -0.0813
65782W        W 8773   3.421  10.186   2.429  0.3127 -0.1552  0.1246
65783W        W 8774  20.954   4.040   1.193  0.2198 -0.5661  0.0283
65784W        W 8775  32.559  25.083  17.107 -0.0844  0.1417 -0.0463
65785W        W 8776  21.375   4.432  17.778 -0.3592  0.3885 -0.0831
65786W        W 8777  28.259   3.133  21.385  0.2003 -0.1180  0.0160
65787W        W 8778  11.670   0.821  28.970  0.0862  0.2746  0.0858
65788W        W 8779  14.417   1.461  25.024 -0.0433  0.4379 -0.0092
65789W        W 8780  26.634  18.952   6.881 -0.1361 -0.3329 -0.0427
65790W        W 8781  14.526  26.675  18.969  0.1623 -0.0978  0.1146
65791W        W 8782   6.241   6.010  24.076 -0.0954 -0.0229 -0.0753
65792W        W 8783  23.715  27.485  21.239 -0.2165  0.3983  0.3314
65793W        W 8784  13.608  25.541  14.087  0.1920 -0.0359  0.1421
65794W        W 8785   5.068  24.175  13.985 -0.2445 -0.1036 -0.0695
65795W        W 8786  26.719  34.036  22.628 -0.0176  0.0213 -0.2691
65796W        W 8787   4.628  23.193  13.998  0.4097 -0.0776 -0.0624
65797W        W 8788  21.283   4.431  20.232  0.2331  0.0255 -0.2021
65798W        W 8789  16.899  25.073   6.288  0.0526  0.0729 -0.2530
65799W        W 8790  12.385  11.950  14.864  0.4878 -0.0765  0.1047
65800W        W 8791   1.187  33.799  18.398  0.0924 -0.0528 -0.2203
65801W        W 8792  11.726  15.104  18.759 -0.0706 -0.0759  0.1914
65802W        W 8793  14.550  28.648   2.142  0.2393  0.1135 -0.0201
65803W        W 8794   6.186  34.791  17.210  0.0683  0.2594  0.0444
65804W        W 8795  11.076   4.405  14.685  0.0727 -0.2229  0.2502
65805W        W 8796  13.358   9.687  22.683  0.0575  0.1689 -0.0155
65806W        W 8797   1.209  11.803  11.475  0.0041 -0.0998 -0.4841
65807W        W 8798  22.105  20.516  13.889 -0.1521  0.3537  0.0388
65808W        W 8799  33.596  33.294  27.017  0.0128 -0.0977 -0.3021
65809W        W 8800  27.442   3.025  25.139  0.3350 -0.2728 -0.1035
65810W        W 8801  25.334  32.235  17.935  0.0412 -0.2307 -0.2051
65811W        W 8802  25.790  24.684   0.802  0.1124 -0.2638  0.0283
65812W        W 8803  24.887   6.416  15.521 -0.0694 -0.3330  0.2698
65813W        W 8804  14.134  31.415  14.689 -0.0314 -0.1635 -0.0960
65814W        W 8805   7.112  30.349  20.295 -0.2644 -0.2722 -0.0225
65815W        W 8806  18.866  10.413  18.644 -0.1635  0.1059  0.0519
65816W        W 8807  15.182  24.386  27.153  0.2394 -0.1136 -0.3521
65817W        W 8808  12.020  19.578  13.100 -0.0092 -0.1479 -0.0209
65818W        W 8809  12.571  15.015  19.892 -0.1781 -0.0339  0.3552
65819W        W 8810  15.669  10.158   4.250 -0.0152 -0.1409  0.1032
65820W        W 8811  25.393  11.926   3.186 -0.1666  0.0516 -0.1970
65821W        W 8812   0.241  24.528   1.154 -0.1897 -0.0279 -0.0116
65822W        W 8813   7.394  16.020  17.092  0.1159  0.1420  0.1579
65823W        W 8814  13.738  28.621  26.610  0.0323  0.0063 -0.1249
65824W        W 8815   7.267   8.523  18.932  0.0390 -0.0142 -0.0229
65825W        W 8816   0.777  33.757  27.678  0.1497  0.0254  0.0314
65826W        W 8817  26.185  29.481  28.693 -0.1418 -0.0135  0.1203
65827W        W 8818  34.662   9.374  20.574 -0.2541  0.1183  0.2333
65828W        W 8819   9.512  29.672   7.511 -0.1591 -0.0284  0.0859
65829W        W 8820  15.609  26.638  24.598  0.1278  0.1112  0.2746
65830W        W 8821  11.407   2.971  18.768  0.0275 -0.1981 -0.0487
65831W        W 8822  23.803   5.906  19.403  0.1088  0.3737  0.0669
65832W        W 8823  13.402  33.174  22.329 -0.1237  0.2229  0.0980
65833W        W 8824   7.434  19.125   0.368 -0.2973  0.0024  0.0345
65834W        W 8825  31.702  24.353  18.944  0.0049 -0.1580  0.0780
65835W        W 8826   6.779  10.222  23.391  0.1575  0.1060 -0.1809
65836W        W 8827  25.746   0.372  28.807 -0.2366  0.1168 -0.2955
65837W        W 8828  12.128  10.151  19.370  0.0944  0.4099 -0.1406
65838W        W 8829  24.007  12.795  20.971 -0.0451  0.0411  0.0629
65839W        W 8830  12.381  33.850   9.363  0.2128 -0.3547  0.0153
65840W        W 8831   4.730  13.433   1.126 -0.0233  0.0041 -0.0045
65841W        W 8832  27.869   9.574  21.416  0.2326 -0.0622  0.0074
65842W        W 8833  15.828  12.070  25.864 -0.2530 -0.1485  0.3175
65843W        W 8834  31.560  11.098  25.573 -0.1347 -0.1778  0.2427
65844W        W 8835  11.736  16.214  15.122  0.0130 -0.0693 -0.0517
65845W        W 8836  34.350   8.882  25.238  0.2553  0.1172 -0.0734
65846W        W 8837  26.797  12.129  21.938  0.1470  0.2211 -0.5247
65847W        W 8838  17.691  20.291  11.983  0.2202  0.2208 -0.0041
65848W        W 8839   4.195   5.140  26.372  0.2200 -0.2423 -0.2123
65849W        W 8840  12.912   1.432  28.843 -0.2003 -0.1307 -0.1592
65850W        W 8841  11.883  34.684  15.772  0.0614  0.0374  0.2940
65851W        W 8842  34.795  26.283  28.667 -0.0896  0.0811  0.2167
65852W        W 8843  20.439  18.519  12.668 -0.1227  0.2706 -0.0240
65853W        W 8844  21.120  14.559  17.385  0.0540 -0.0509  0.0326
65854W        W 8845  10.114  33.614  18.052 -0.3456  0.0362  0.2244
65855W        W 8846   0.933   9.868   1.920  0.0271  0.0795 -0.1132
65856W        W 8847  18.498  29.997  27.900 -0.0153 -0.0736 -0.4187
65857W        W 8848   9.841  27.538  18.034  0.1595 -0.0380 -0.0402
65858W        W 8849  26.134  27.574   0.744  0.3827 -0.1006 -0.0175
65859W        W 8850  20.168  33.870  22.890  0.1063  0.2180 -0.4543
65860W        W 8851  18.466  32.970   6.857 -0.1279  0.1489 -0.0163
65861W        W 8852  15.751   0.041  21.759 -0.1288 -0.2179 -0.2047
65862W        W 8853  18.945  28.685   3.862  0.1062 -0.0049 -0.0046
65863W        W 8854  18.068  32.421  28.317 -0.2217 -0.2731  0.0105
65864W        W 8855   9.387  33.561  20.726  0.1841  0.0254 -0.0758
65865W        W 8856  31.160   2.180   6.093 -0.3021 -0.1167 -0.1975
65866W        W 8857  27.036   2.359  14.782 -0.1825  0.0193 -0.0709
65867W        W 8858  23.610  29.245  16.997 -0.2254  0.2915  0.1781
65868W        W 8859   8.250  33.360  17.603  0.2379  0.1015 -0.1291
65869W        W 8860   0.149  22.336  24.048 -0.1433 -0.2696  0.2356
65870W        W 8861  20.294  12.831  27.279  0.1717  0.0952 -0.0377
65871W        W 8862  11.262   0.624  25.502 -0.1563  0.0275  0.0980
65872W        W 8863  21.349  23.787  21.036 -0.2515  0.2702  0.3063
65873W        W 8864  10.364  11.189  19.855  0.2587 -0.2047 -0.0102
65874W        W 8865  10.913  21.535  22.146 -0.0687  0.4436  0.1180
65875W        W 8866  23.785  34.152  18.279  0.2707  0.1782 -0.0824
65876W        W 8867  17.812   5.719  15.676  0.0885  0.0616  0.3244
65877W        W 8868   9.799  29.594   2.780 -0.0156 -0.0917 -0.0652
65878W        W 8869  18.858  10.314   8.357  0.1176 -0.1785  0.2023
65879W        W 8870  19.232   1.055  14.378  0.0367 -0.0045 -0.0956
65880W        W 8871  11.911  31.419   5.569  0.2899  0.0029  0.0844
65881W        W 8872  33.753  30.024  13.417  0.1624  0.2883  0.0535
65882W        W 8873  17.139  27.007  16.506 -0.0037  0.1642 -0.0908
65883W        W 8874  10.543   2.733  21.356 -0.0509  0.1332  0.3461
65884W        W 8875  23.420   8.987  20.989 -0.1574  0.1669  0.0226
65885W        W 8876  14.053  13.198  25.011  0.0421  0.2070 -0.4391
65886W        W 8877  16.228  16.460  24.169 -0.2455  0.1085 -0.3207
65887W        W 8878   7.947  32.123  19.435 -0.0937 -0.2991  0.1512
65888W        W 8879   7.729  31.760   2.457 -0.1147  0.3046 -0.0259
65889W        W 8880  21.479   6.705  28.712 -0.0174  0.0734  0.0632
65890W        W 8881  17.639  21.956  26.577 -0.0243  0.2105  0.1172
65891W        W 8882  11.274  16.903  22.702  0.0674 -0.0898  0.0849
65892W        W 8883  24.781   1.614  15.082  0.5457  0.0882  0.3202
65893W        W 8884   8.780  34.591  21.915 -0.0677 -0.0904  0.3873
65894W        W 8885  21.308   2.837  26.468 -0.1250 -0.3348 -0.2090
65895W        W 8886  21.579  26.939  15.283 -0.4994 -0.0216  0.1797
65896W        W 8887   7.445  31.795  27.579  0.0669 -0.0260 -0.2190
65897W        W 8888   1.403  23.674  27.497 -0.5957  0.0349  0.1887
65898W        W 8889  13.178  30.859  24.086  0.0872 -0.2045  0.0575
65899W        W 8890   2.529  27.141  17.970 -0.0157 -0.1244  0.0842
65900W        W 8891  13.950   7.947   7.374  0.1317 -0.1107  0.2469
65901W        W 8892  18.816  29.586  22.961 -0.2391 -0.0515 -0.0321
65902W        W 8893  14.160  20.105  18.040 -0.2340  0.1600  0.1485
65903W        W 8894  21.574  27.567  28.419  0.2155  0.0293 -0.0579
65904W        W 8895  28.321  31.921  16.441  0.0841  0.2543  0.0284
65905W        W 8896  12.046  22.479  22.907  0.0190  0.0482  0.0632
65906W        W 8897  20.671   9.826  20.915 -0.1811  0.1962 -0.1921
65907W        W 8898   1.906   1.395  24.863  0.0632  0.2209 -0.2077
65908W        W 8899   0.469  10.304  28.292 -0.0338  0.0048  0.0770
65909W        W 8900  13.237   8.482  16.852  0.0723 -0.4856 -0.0757
65910W        W 8901   6.881   0.760  14.744  0.2658 -0.4311  0.1699
65911W        W 8902  12.143  32.980  17.905 -0.0373  0.4014  0.2630
65912W        W 8903  32.966  26.037  23.322 -0.0618  0.0803  0.2404
65913W        W 8904  21.299  21.956  22.108 -0.0909  0.3611  0.5079
65914W        W 8905  22.773  28.548  28.581  0.1029  0.1881 -0.2324
65915W        W 8906   8.960   2.859   0.197  0.3775 -0.0980 -0.1598
65916W        W 8907   8.804  20.973  14.874  0.0636 -0.0766  0.0099
65917W        W 8908   3.447   8.128  25.921  0.0421  0.4289  0.2970
65918W        W 8909  32.789   7.051  28.162  0.1455  0.0859 -0.1258
65919W        W 8910   8.828  24.734  17.695  0.1460  0.0459  0.2828
65920W        W 8911  20.263   1.815   2.650  0.0362 -0.0789 -0.1802
65921W        W 8912   5.594  13.798  15.694  0.3085 -0.0176  0.2117
65922W        W 8913   5.796  29.306  19.255 -0.3871  0.1967 -0.0131
65923W        W 8914  22.966   2.224  19.550  0.3761 -0.2824  0.1192
65924W        W 8915   6.082   7.312  23.019 -0.3251  0.0226 -0.0956
65925W        W 8916  24.658  30.389  25.561 -0.0605  0.0870  0.0950
65926W        W 8917  15.655  20.928  13.083  0.0944  0.0226  0.6045
65927W        W 8918  12.674  10.456   1.254  0.0440 -0.1268  0.0943
65928W        W 8919  29.717  24.204  16.735 -0.1622 -0.0345 -0.3782
65929W        W 8920   9.572  20.910  14.045 -0.0839  0.1336  0.2827
65930W        W 8921  23.970   5.027   5.060  0.1315  0.1011 -0.3197
65931W        W 8922  23.586  28.262  21.229  0.0177  0.2463 -0.0912
65932W        W 8923  32.314   3.939   3.369 -0.0727  0.1506 -0.0119
65933W        W 8924  17.400  14.228   3.758 -0.2379 -0.1142 -0.2050
65934W        W 8925  21.374  26.316   1.031 -0.0120  0.0972 -0.2091
65935W        W 8926   4.437  33.632  16.132  0.0771 -0.0892  0.2716
65936W        W 8927  25.086  28.849  27.354  0.1183 -0.0450 -0.1835
65937W        W 8928  15.058  20.506  20.694  0.2935 -0.2284  0.0840
65938W        W 8929  28.076   4.691  20.220  0.0535  0.2039  0.0707
65939W        W 8930  12.191  28.380  17.053  0.1646  0.0899 -0.2485
65940W        W 8931  20.205  34.595  17.465  0.0459  0.0882  0.2143
65941W        W 8932  18.386  29.498  20.100  0.0343 -0.1643  0.2574
65942W        W 8933  30.254  32.154   5.992  0.1195  0.0410  0.2721
65943W        W 8934  11.860  19.442  15.672 -0.2831  0.1187  0.0130
65944W        W 8935  11.639  21.478   2.707 -0.0976 -0.3206  0.0183
65945W        W 8936  11.842   2.892  27.423  0.0329  0.3946  0.4036
65946W        W 8937  20.798  23.848   4.841 -0.2099 -0.0515  0.0702
65947W        W 8938  13.321  20.017  19.312 -0.4729  0.0624 -0.0750
65948W        W 8939   4.351  29.147   7.678  0.0703  0.1597  0.3136
65949W        W 8940  23.341  32.801  21.782 -0.1293  0.3010  0.2398
65950W        W 8941   9.461  16.054  22.866 -0.0077  0.1152  0.1907
65951W        W 8942  20.277  30.862   2.121 -0.2454 -0.2404  0.1450
65952W        W 8943  15.991   6.168  23.137  0.0543 -0.1797  0.3553
65953W        W 8944  29.738   3.977  26.604  0.0785  0.0713  0.1161
65954W        W 8945  24.841  23.985  19.375 -0.1311  0.1601 -0.1292
65955W        W 8946  33.994   2.194  28.862  0.1597  0.1257 -0.1165
65956W        W 8947   6.176  22.720   0.110 -0.0931  0.2803  0.0991
65957W        W 8948   6.270  31.789  25.623  0.1041 -0.0358 -0.2334
65958W        W 8949   5.111   0.368   5.677 -0.3444  0.0872 -0.2509
65959W        W 8950  12.571  33.083  26.958 -0.2674  0.4438 -0.0687
65960W        W 8951  28.979  31.076  22.104  0.1326 -0.0127  0.4369
65961W        W 8952   6.686  29.243  22.610 -0.1130 -0.0329 -0.0893
65962W        W 8953   3.989   3.154  10.590  0.0817 -0.1161  0.0721
65963W        W 8954   0.251  19.695   5.762  0.2979 -0.3368 -0.1244
65964W        W 8955  20.500  12.609  23.089  0.2951 -0.1490  0.1426
65965W        W 8956  11.920   2.693   6.367 -0.1442 -0.1819  0.1050
65966W        W 8957  12.147   9.683  28.498 -0.1570  0.0523 -0.0518
65967W        W 8958   2.321  27.853  16.017 -0.0235 -0.0849 -0.1223
65968W        W 8959   2.712  27.834  26.327 -0.2752 -0.0797  0.3160
65969W        W 8960  11.994  30.301  17.526 -0.1544 -0.1165  0.1457
65970W        W 8961  17.002  30.460  26.000 -0.1394 -0.1230  0.0473
65971W        W 8962  25.403  13.693   4.147 -0.0559  0.0807 -0.1821
65972W        W 8963   4.399   0.318  15.115  0.0448  0.2157  0.1997
65973W        W 8964  11.892  32.639  24.925 -0.0975  0.1649 -0.0202
65974W        W 8965  25.221  27.652  16.677 -0.0845 -0.0553  0.1525
65975W        W 8966  12.488  12.602  19.725  0.0892  0.0672  0.2287
65976W        W 8967   7.322   6.456  26.048 -0.0237 -0.0614 -0.1185
65977W        W 8968   1.464  25.120  14.943  0.3320  0.2141  0.3672
65978W        W 8969  17.727  34.699   3.000 -0.1307  0.1088  0.2855
65979W        W 8970   4.435  25.119   4.489 -0.0381 -0.1411 -0.1130
65980W        W 8971  31.695  30.700   2.729  0.1495 -0.2141 -0.1352
65981W        W 8972  28.275   1.575  17.435  0.1924 -0.0130  0.2542
65982W        W 8973  20.406   7.053  14.010 -0.5236 -0.2724  0.1176
65983W        W 8974  28.587  32.873  16.640  0.1949 -0.0009 -0.2853
65984W        W 8975  26.495  17.769   0.741  0.0533 -0.1864  0.1299
65985W        W 8976   8.403   9.303  17.135  0.0781 -0.0885  0.0842
65986W        W 8977  20.269   8.981   0.219  0.1080 -0.0797  0.2360
65987W        W 8978   9.544   4.025   9.617  0.2918  0.2543 -0.2536
65988W        W 8979   2.282  28.748   3.110 -0.1544  0.0310  0.3974
65989W        W 8980  16.696  24.462  23.949  0.3047  0.0854  0.1508
65990W        W 8981  21.613   3.125  17.765  0.0220  0.0222  0.0615
65991W        W 8982  24.084  31.325  17.529  0.2352  0.3303  0.0966
65992W        W 8983  17.481  24.195  19.558 -0.1264  0.0065 -0.1973
65993W        W 8984  27.213  19.575  21.962  0.1662  0.2508 -0.0478
65994W        W 8985  16.108  26.670   8.166 -0.0373  0.0228  0.0224
65995W        W 8986  34.284   4.247  16.323  0.1249  0.1103  0.2005
65996W        W 8987   4.112  33.506   2.525  0.2026  0.2382 -0.0730
65997W        W 8988  16.075  12.172  27.329  0.2599  0.3660  0.0950
65998W        W 8989   4.412  34.627  19.811 -0.1642 -0.3049 -0.1557
65999W        W 8990  14.008  11.566  20.446  0.2444  0.0797 -0.0992
66000W        W 8991  32.912  32.495   1.203  0.3094 -0.1035  0.0191
66001W        W 8992  13.696  16.152  28.321  0.1607  0.1034 -0.0264
66002W        W 8993  22.987  26.219  17.400  0.3205  0.3843  0.0351
66003W        W 8994  14.702   3.391  19.190 -0.2407 -0.0809  0.0293
66004W        W 8995  14.439  27.056   9.984  0.1120 -0.0906 -0.2329
66005W        W 8996   9.658  32.922  21.409  0.1728 -0.0009  0.0420
66006W        W 8997   6.097  23.890  18.560 -0.1330  0.0498 -0.0513
66007W        W 8998  12.246  23.490  25.081 -0.0738  0.0327  0.1176
66008W        W 8999  27.789   9.279  17.111  0.0554  0.0185  0.0880
66009W        W 9000  25.787   2.323  23.137  0.0647  0.4363  0.1755
66010W        W 9001  10.994  19.685  25.600  0.0237  0.1070 -0.3797
66011W        W 9002  18.443  15.317  24.821 -0.0044  0.0079 -0.2693
66012W        W 9003   3.980  13.849  23.317  0.2794  0.1245 -0.1226
66013W        W 9004  11.613  30.767  22.556  0.1189  0.0443  0.1783
66014W        W 9005   6.212  29.346   9.578 -0.2572 -0.0314  0.0254
66015W        W 9006  12.053  33.987  20.216 -0.4335 -0.0663 -0.1376
66016W        W 9007  15.741   1.348  18.819  0.0878  0.2736  0.0819
66017W        W 9008  15.878  21.928  16.190 -0.1133  0.0292 -0.3626
66018W        W 9009  32.543  24.630  21.322  0.1673  0.2467  0.2288
66019W        W 9010  23.111  26.293  17.828 -0.1348  0.0322  0.1809
66020W        W 9011  20.401  26.829   3.084  0.0668  0.1140  0.2284
66021W        W 9012  23.985  15.982  19.787  0.2960 -0.1250  0.0577
66022W        W 9013   2.648   8.917  23.288 -0.1698  0.2586 -0.2443
66023W        W 9014  21.873  34.062  22.013  0.0714 -0.0402  0.1914
66024W        W 9015  31.209  16.664  23.879 -0.1306  0.1316  0.1048
66025W        W 9016   6.696   1.750   2.890  0.2245  0.0506  0.2141
66026W        W 9017   8.998  16.543  18.901  0.2082  0.0201  0.0956
66027W        W 9018  17.020  29.353  20.481  0.1435 -0.0222  0.1490
66028W        W 9019  12.091  31.065  14.623  0.0847 -0.1891  0.1329
66029W        W 9020   9.390  28.765  21.346  0.1426  0.0553 -0.2103
66030W        W 9021  11.872  25.542  28.308  0.1396  0.1042 -0.1238
66031W        W 9022  20.254  22.628  22.797  0.2986  0.0009  0.0786
66032W        W 9023  29.096  25.160  18.178 -0.1388  0.0681 -0.0080
66033W        W 9024  26.149  31.644   4.555  0.3019 -0.1544 -0.1684
66034W        W 9025  20.663   4.123  21.493 -0.1473  0.0269  0.0956
66035W        W 9026  19.130   0.815  20.778  0.1161  0.2134 -0.2211
66036W        W 9027  33.428  26.901  22.513 -0.2488 -0.3542 -0.1780
66037W        W 9028   7.430  33.449  26.988  0.0364  0.2661 -0.3731
66038W        W 9029  10.998  23.189  22.031  0.0971  0.2719 -0.0592
66039W        W 9030  10.724  24.474  24.243  0.2080  0.3130 -0.1736
66040W        W 9031   1.976   5.499  27.336 -0.0810 -0.0712 -0.0382
66041W        W 9032   8.951  16.532   0.904  0.0222  0.0871  0.1691
66042W        W 9033  17.634   1.859  14.814  0.0015  0.0891  0.2693
66043W        W 9034  21.959  14.638  14.353 -0.1940  0.0297  0.0190
66044W        W 9035   5.533  26.633  21.959  0.2857  0.2852 -0.1093
66045W        W 9036  28.187  15.923  28.435  0.2005  0.1895 -0.2203
66046W        W 9037   9.444  12.255  22.317  0.0402  0.3058 -0.0341
66047W        W 9038  24.741  33.568  20.864  0.1623  0.1005 -0.1080
66048W        W 9039   6.473   0.206  22.768  0.0363 -0.1263  0.0478
66049W        W 9040  24.091  26.633  15.459 -0.1309 -0.0763 -0.0612
66050W        W 9041   6.885  24.608  17.572 -0.0462  0.0700 -0.1694
66051W        W 9042  20.439  33.684  13.441  0.0566  0.1394 -0.0544
66052W        W 9043   4.817   0.347  26.412  0.0984  0.0567  0.0022
66053W        W 9044  11.704  11.672   6.284  0.2865  0.2752 -0.1408
66054W        W 9045  30.895  19.212  18.884  0.0634  0.0976  0.2710
66055W        W 9046  19.083  32.155  21.127  0.1404  0.0885 -0.1684
66056W        W 9047  19.743   7.599  16.020  0.0667  0.2356  0.2662
66057W        W 9048   4.447   4.818  17.668  0.0634  0.2190  0.0008
66058W        W 9049  26.540  29.403  27.090  0.1735  0.0468  0.1485
66059W        W 9050   8.744  28.950  28.428 -0.0368 -0.1091  0.2279
66060W        W 9051  13.455  17.769  15.633 -0.1678 -0.0139 -0.2942
66061W        W 9052   0.256  27.392  17.605  0.1287 -0.2464 -0.1631
66062W        W 9053  16.475  29.993  20.458 -0.1804  0.0382  0.1734
66063W        W 9054   8.708   1.935  24.711 -0.0879 -0.1917  0.2245
66064W        W 9055   6.530  34.711  14.148  0.2569  0.0157  0.1139
66065W        W 9056  24.929  30.271  13.560  0.0924  0.0857  0.0210
66066W        W 9057  14.094   0.661  19.793  0.0725  0.1009  0.0466
66067W        W 9058  32.237  19.225  28.276 -0.1192 -0.1877 -0.2260
66068W        W 9059  13.565  21.424  17.926 -0.0583  0.0110 -0.1765
66069W        W 9060  21.148  34.157  21.878  0.0491  0.2965 -0.0580
66070W        W 9061   8.043  33.928   3.866  0.1014  0.2016 -0.0554
66071W        W 9062  20.317   0.511  22.412 -0.2825 -0.1437  0.0911
66072W        W 9063  33.558  29.162  29.105  0.0997 -0.0481 -0.1955
66073W        W 9064  16.050  21.737   1.308 -0.0462  0.1514 -0.1546
66074W        W 9065  21.396   0.062  22.528 -0.0633  0.3858 -0.1736
66075W        W 9066   3.448   5.719   1.211 -0.2281  0.1256  0.0842
66076W        W 9067   6.707  33.839  23.270  0.2748  0.0835  0.0516
66077W        W 9068   3.578  21.309   7.162 -0.1723  0.1964 -0.4155
66078W        W 9069  34.550   5.591  21.393 -0.0271  0.0194  0.0884
66079W        W 9070   1.035  29.000  29.230 -0.2824  0.1467  0.3374
66080W        W 9071  19.652  26.738   7.535  0.0933  0.0277  0.1251
66081W        W 9072   9.812  16.490  29.075 -0.0067 -0.3699  0.0119
66082W        W 9073  15.659   8.861   7.603 -0.1879 -0.0564 -0.1354
66083W        W 9074  12.175  29.311  28.863  0.2337 -0.2442  0.0631
66084W        W 9075  27.395  28.435  19.228  0.0687 -0.3104  0.1084
66085W        W 9076  12.949  31.866   2.497 -0.2187 -0.1095 -0.1741
66086W        W 9077  32.722  26.780  23.923 -0.0910  0.2541 -0.1712
66087W        W 9078   7.994   4.399   2.908 -0.4342  0.1326 -0.0422
66088W        W 9079  14.212   8.034  24.568  0.1517 -0.0902 -0.2412
66089W        W 9080  11.761  12.846  22.053 -0.0596  0.0774  0.0226
66090W        W 9081  16.867  28.698  22.744 -0.2219  0.0348 -0.2186
66091W        W 9082  22.943   3.244   3.716 -0.0817  0.0526  0.2994
66092W        W 9083   3.799  29.010  23.886  0.2232  0.1715 -0.1776
66093W        W 9084  20.139  34.589  19.005  0.1389 -0.1192  0.1946
66094W        W 9085   1.423  15.062  21.151 -0.0449 -0.0584  0.1862
66095W        W 9086  15.841   8.485  24.755  0.0209 -0.0084  0.1944
66096W        W 9087  22.704  33.737  26.590  0.0319  0.0167 -0.0744
66097W        W 9088   9.321   7.979  17.499  0.0318  0.2131  0.2908
66098W        W 9089  20.125  21.766   0.395  0.0037 -0.1910 -0.1324
66099W        W 9090  12.133  23.781   0.317  0.0882 -0.2170 -0.3203
66100W        W 9091  10.559  30.632  29.067 -0.4018 -0.2266 -0.3208
66101W        W 9092   4.904  34.301   4.791 -0.1843  0.4124 -0.4829
66102W        W 9093  19.894  32.748   4.786  0.1117 -0.5295 -0.2627
66103W        W 9094  17.867  23.226   6.374 -0.1214  0.0474 -0.1501
66104W        W 9095  18.088  19.576  22.350 -0.0137  0.1051  0.1457
66105W        W 9096  14.554  26.327   5.206  0.1644 -0.0783 -0.1489
66106W        W 9097   3.765  33.561  27.669 -0.0162 -0.3042 -0.1846
66107W        W 9098  11.959  31.298  24.829  0.0404 -0.0388  0.2657
66108W        W 9099   3.874  26.138  25.784 -0.2277 -0.1609  0.0202
66109W        W 9100  17.606  27.869   2.535  0.1034  0.0569  0.0986
66110W        W 9101  15.832  21.446   0.531 -0.0272  0.2197 -0.1991
66111W        W 9102   7.075  30.178   3.560 -0.0143  0.0446  0.3228
66112W        W 9103  11.564  34.089  23.772 -0.0181 -0.2655 -0.0798
66113W        W 9104  11.253  28.274  24.374  0.1110  0.2384  0.4565
66114W        W 9105  15.010  29.664   5.681  0.2603  0.1074  0.0128
66115W        W 9106  27.059   0.308  29.086 -0.1376  0.0135  0.0208
66116W        W 9107   5.355  22.869  16.716 -0.0918 -0.2590  0.0133
66117W        W 9108  28.374  19.156  16.838 -0.2126 -0.1541  0.0098
66118W        W 9109  26.563  34.690  25.494  0.4508  0.2117  0.0140
66119W        W 9110  33.735  17.527  10.678  0.1744 -0.1131  0.0109
66120W        W 9111  13.290  21.125   0.678  0.5710 -0.1720  0.1462
66121W        W 9112   1.884  23.664   6.130 -0.4601 -0.0637  0.2136
66122W        W 9113  15.962  11.369   9.837  0.1942 -0.0434 -0.2848
66123W        W 9114   7.153  32.849   9.709 -0.0495 -0.3244 -0.1979
66124W        W 9115  10.404  24.036  17.888 -0.1192  0.1403  0.4231
66125W        W 9116  17.414  31.498  14.963 -0.0287 -0.0830  0.0726
66126W        W 9117   7.792   3.104  24.794 -0.0826  0.1734 -0.0761
66127W        W 9118  31.753  23.647  29.188  0.1749 -0.1697  0.2162
66128W        W 9119   0.642   0.341  14.969  0.1323  0.2200  0.1195
66129W        W 9120  16.877  14.092  27.615  0.3463  0.0562  0.0376
66130W        W 9121  24.006  16.529   8.936 -0.1424  0.0932  0.1475
66131W        W 9122  15.300  28.178  17.707  0.1984  0.1270 -0.1762
66132W        W 9123  30.950  31.777   1.207 -0.2434 -0.0359  0.3021
66133W        W 9124  24.137  29.720   5.808  0.0088  0.0068  0.0430
66134W        W 9125   5.415  31.806  23.798 -0.0880  0.0524 -0.0526
66135W        W 9126   8.152  26.404  25.117  0.2120 -0.0392 -0.0693
66136W        W 9127   8.911  14.821   9.345  0.1359 -0.0317 -0.2014
66137W        W 9128   7.670   7.993  17.808 -0.2627  0.0668  0.0335
66138W        W 9129   6.952   8.203   4.124 -0.0895 -0.1375 -0.0691
66139W        W 9130  10.045  33.772   1.566 -0.4112 -0.0577  0.1481
66140W        W 9131   8.645   0.832   1.618 -0.1806  0.4371  0.0361
66141W        W 9132  32.495  16.218   2.742 -0.3900 -0.1815 -0.0496
66142W        W 9133  19.725  33.266  25.783 -0.1224 -0.4273  0.1920
66143W        W 9134  18.446   8.902  27.536  0.1246  0.0249  0.2519
66144W        W 9135  26.195  24.185  17.399  0.3368  0.1378  0.3266
66145W        W 9136   5.965  15.855  18.179  0.1549  0.0065 -0.2765
66146W        W 9137   9.136  25.645  10.560  0.1990  0.0730  0.1348
66147W        W 9138   8.823  22.514   2.194 -0.3592  0.1972  0.0402
66148W        W 9139  32.679   7.368  25.809 -0.0039  0.0250 -0.1306
66149W        W 9140  10.001  13.106   6.849 -0.0286 -0.0326 -0.0993
66150W        W 9141   8.263   4.512   9.504  0.0496  0.0446  0.1556
66151W        W 9142   3.452  24.616   0.436  0.1176  0.0228  0.1452
66152W        W 9143  17.710  34.229   7.728  0.2262 -0.0424  0.0152
66153W        W 9144   8.376  32.932  25.796  0.1530 -0.0651 -0.0984
66154W        W 9145   1.758  32.674   2.117  0.1070  0.2038 -0.3263
66155W        W 9146  14.914   0.751   1.513  0.0665  0.3116 -0.0778
66156W        W 9147  34.075  29.794  14.381 -0.1221 -0.1424 -0.0257
66157W        W 9148  26.461   5.251  19.117 -0.0804  0.0350 -0.1096
66158W        W 9149  19.140   6.132  20.016  0.0284 -0.1186 -0.3582
66159W        W 9150  18.507  10.276   1.780 -0.2078 -0.2714 -0.1088
66160W        W 9151   8.403  33.601  18.024 -0.2247 -0.3215 -0.2371
66161W        W 9152  15.616   6.334  16.032  0.1950  0.2252 -0.0353
66162W        W 9153  18.426   5.572   0.848 -0.1950  0.0938  0.1789
66163W        W 9154  21.794  21.625  22.366 -0.0355 -0.3582  0.0757
66164W        W 9155  20.190   6.329   3.951 -0.2588 -0.1236  0.1998
66165W        W 9156  19.388   4.433   5.884  0.1910 -0.0179 -0.2234
66166W        W 9157   4.861   4.510   6.719  0.0019 -0.2273 -0.1758
66167W        W 9158  13.113  20.357  23.147 -0.0331 -0.1189 -0.0192
66168W        W 9159  11.473   9.362  20.973  0.0198 -0.1710  0.4279
66169W        W 9160  34.104   0.537   5.166  0.0613  0.1354  0.1072
66170W        W 9161  32.892  32.877   5.984 -0.0305 -0.1531  0.0768
66171W        W 9162  25.844  25.544  27.282  0.2276  0.0141  0.4136
66172W        W 9163  11.645  14.753  26.601  0.0941  0.2012 -0.0050
66173W        W 9164  23.617   0.370   9.308  0.0651 -0.0329 -0.0724
66174W        W 9165  15.781  24.785   4.166 -0.0762  0.3378  0.3560
66175W        W 9166  21.741  30.365   2.034  0.0897  0.2981 -0.1958
66176W        W 9167  15.666  21.433   4.260  0.2126 -0.0005 -0.2374
66177W        W 9168   8.623  12.919  22.451 -0.0227 -0.0940  0.2861
66178W        W 9169  32.613  12.179  26.813  0.2294  0.2537 -0.3209
66179W        W 9170  10.132  28.734  22.872 -0.3187  0.0544  0.0094
66180W        W 9171   2.916  22.570  23.634 -0.1130 -0.1630 -0.1336
66181W        W 9172   5.447  29.788   1.978 -0.2060  0.0306  0.0328
66182W        W 9173  30.231  23.850   3.538 -0.5428 -0.1519  0.1379
66183W        W 9174  21.440   1.491  16.095 -0.1809  0.0113 -0.0443
66184W        W 9175  34.270   7.724  27.446  0.1156  0.1770  0.1563
66185W        W 9176  10.972  17.421   0.151  0.1469  0.3563  0.0856
66186W        W 9177   4.563  33.519  18.687  0.0845  0.2938 -0.2766
66187W        W 9178  18.970   6.945   6.821  0.0437  0.2681  0.4411
66188W        W 9179  13.638  24.403   3.359 -0.0203  0.2959 -0.0254
66189W        W 9180   2.451  31.474   1.634  0.1280  0.1098  0.0970
66190W        W 9181   9.977  28.051  19.371  0.3302 -0.0536  0.0115
66191W        W 9182   8.931  30.394  21.110 -0.2307 -0.1814  0.0835
66192W        W 9183  19.027  21.214   0.949 -0.2111 -0.0860 -0.0722
66193W        W 9184  19.059   1.544  15.498  0.2259  0.3149 -0.0460
66194W        W 9185   1.619  14.460  27.675 -0.1734 -0.1561 -0.4566
66195W        W 9186   5.996   0.237   5.134 -0.4813  0.1058 -0.1521
66196W        W 9187  21.874  24.598   4.709 -0.0300  0.0991 -0.0784
66197W        W 9188  20.610  17.634  28.645  0.0592  0.2522  0.0419
66198W        W 9189  34.027  34.133  25.964  0.0885 -0.0016  0.1121
66199W        W 9190  12.330  20.012   2.894 -0.1420  0.0026  0.0579
66200W        W 9191  13.293   0.607   7.440  0.1516 -0.1664 -0.0924
66201W        W 9192   7.022   7.155  21.090  0.1031  0.2594 -0.0543
66202W        W 9193  16.717  16.707   4.486 -0.0244  0.0332 -0.1485
66203W        W 9194  32.864  32.497  27.474 -0.0304  0.0438  0.3330
66204W        W 9195   6.009  21.545  25.760 -0.1149  0.2130  0.2619
66205W        W 9196  14.883  34.319  29.149 -0.0341  0.3153 -0.0063
66206W        W 9197  12.309  31.703  24.811  0.0266  0.0024  0.0586
66207W        W 9198  32.533  23.338   9.769  0.1780  0.3623  0.0180
66208W        W 9199  16.363  10.218   4.095 -0.0282  0.0979 -0.0772
66209W        W 9200  23.406   9.941  25.239 -0.0100 -0.4059  0.2702
66210W        W 9201  12.289  21.112  19.609 -0.0431  0.0260 -0.1850
66211W        W 9202  13.198  30.033   5.667  0.1449 -0.1415 -0.1895
66212W        W 9203  25.494  18.493  28.300 -0.0528  0.3455  0.2046
66213W        W 9204   6.259  27.331  26.996  0.5142  0.0016 -0.0186
66214W        W 9205   5.294  33.304   6.852  0.0318  0.2070 -0.0314
66215W        W 9206   3.089  33.405  18.237  0.0017 -0.1237  0.2293
66216W        W 9207  19.157  22.805   8.807  0.0034 -0.0471  0.0177
66217W        W 9208   2.298  25.304  26.840  0.0069 -0.1091  0.0799
66218W        W 9209  15.722  24.478  21.550 -0.1192  0.1271  0.3529
66219W        W 9210   7.642  29.568  23.862  0.1552  0.1494 -0.2272
66220W        W 9211  32.346  30.459  28.044  0.0507  0.1276  0.0979
66221W        W 9212  26.743   5.045  26.055  0.2064  0.0373 -0.0575
66222W        W 9213   5.621  24.238  16.154  0.0097  0.1384 -0.1637
66223W        W 9214   4.638   5.068  17.224 -0.1073  0.0454  0.1731
66224W        W 9215  18.658  31.857  19.482 -0.1683  0.0092  0.1493
66225W        W 9216  15.615  21.472  17.044  0.1731  0.0423 -0.1135
66226W        W 9217   5.982   9.294  27.703 -0.2720  0.4227  0.0513
66227W        W 9218  16.072  34.606   8.911 -0.3118  0.1859 -0.1780
66228W        W 9219   5.619  28.565   0.114 -0.0345  0.0516  0.1577
66229W        W 9220  12.731  31.047   2.703  0.0960  0.0363  0.0608
66230W        W 9221  24.788  33.337   7.349 -0.0107  0.0694  0.0569
66231W        W 9222  33.274   4.527  18.123 -0.0905 -0.1000 -0.1210
66232W        W 9223   3.107  30.191   0.531 -0.0876  0.0069 -0.2531
66233W        W 9224  29.184  20.511   8.193 -0.0335 -0.1144 -0.0532
66234W        W 9225   3.954   8.134  27.518 -0.0432 -0.0194  0.2405
66235W        W 9226   0.763  20.258  19.762 -0.1486 -0.1017  0.1807
66236W        W 9227   3.074   6.817  28.808  0.1559 -0.3202  0.0872
66237W        W 9228  12.500  18.135   8.947  0.2645  0.1125  0.1743
66238W        W 9229   4.627   8.122  28.876 -0.0037  0.0143  0.0032
66239W        W 9230  12.705  30.021  26.191  0.0930  0.0083  0.0267
66240W        W 9231  30.426  23.038   7.669 -0.3657 -0.3585  0.0651
66241W        W 9232  32.214  28.870   7.814 -0.0088  0.2106 -0.2303
66242W        W 9233  16.429  31.511   0.743 -0.1281 -0.4759 -0.0560
66243W        W 9234  12.541  30.367  16.699  0.3067 -0.0173  0.0463
66244W        W 9235   6.409  13.472  11.751  0.0786  0.1409 -0.0021
66245W        W 9236   9.146  17.056   5.295 -0.0012 -0.1814 -0.0576
66246W        W 9237  11.303  32.173   0.874  0.1710  0.1112 -0.1751
66247W        W 9238  26.699  26.918   3.256 -0.0476  0.3515 -0.1710
66248W        W 9239  24.879  25.208  16.293 -0.1775 -0.2463  0.0323
66249W        W 9240   1.447  18.222  10.100 -0.1688 -0.1549  0.1495
66250W        W 9241   8.668  33.956  15.635  0.1520  0.0495 -0.0223
66251W        W 9242  23.352   3.146  23.610  0.0460 -0.1771  0.2050
66252W        W 9243  19.546  31.882   5.886  0.1410  0.0643 -0.2482
66253W        W 9244  17.951   8.977  23.970  0.0203 -0.0602 -0.2395
66254W        W 9245  12.783  24.020   8.738  0.1602  0.2933  0.2140
66255W        W 9246   9.915  20.586  24.766 -0.1611 -0.0043  0.2015
66256W        W 9247  10.088  23.366   9.971  0.0997 -0.5332 -0.1109
66257W        W 9248  27.514   1.579  25.745  0.3711 -0.2960  0.2048
66258W        W 9249   2.940  29.618   2.407  0.0331  0.3394  0.4433
66259W        W 9250   1.261  28.165  17.514 -0.0712  0.0458  0.0375
66260W        W 9251  24.916  26.215  23.751  0.0451 -0.1192 -0.0918
66261W        W 9252  30.997  29.563  24.481  0.0348 -0.3029  0.0512
66262W        W 9253   4.718  27.625  20.295  0.1772  0.2006  0.1826
66263W        W 9254  12.336  26.516   4.217 -0.0610 -0.0647  0.1207
66264W        W 9255  18.501  31.049   2.067 -0.0583 -0.0884  0.2057
66265W        W 9256  19.089   7.002  19.256  0.2452 -0.2079  0.0723
66266W        W 9257   6.418  30.186   6.370 -0.1195  0.3798  0.2681
66267W        W 9258  21.134  31.610  20.780 -0.2218  0.1684 -0.0756
66268W        W 9259   8.741  26.671  14.661 -0.0849  0.1886 -0.1499
66269W        W 9260   1.132   2.156   7.158  0.0467  0.0956  0.3136
66270W        W 9261  34.272  31.941   1.863 -0.1809  0.0466  0.1359
66271W        W 9262  24.282  27.788   3.910  0.2226 -0.1572 -0.0108
66272W        W 9263   2.561   2.776  22.734  0.1100  0.0227  0.1600
66273W        W 9264  21.310   5.370  16.703 -0.0475  0.1893  0.0539
66274W        W 9265   7.984  32.605  22.443  0.1498  0.0847  0.1806
66275W        W 9266   3.528  32.669   5.240  0.0716 -0.0737  0.3387
66276W        W 9267   4.072  32.561   1.520  0.0341 -0.2068 -0.1903
66277W        W 9268   1.734   8.102  18.182 -0.1147  0.1737 -0.2243
66278W        W 9269   5.081  17.985   6.691  0.1161  0.3126 -0.4149
66279W        W 9270   0.998   2.971   5.845 -0.3227 -0.1457  0.0816
66280W        W 9271  26.652   4.677   6.618 -0.3904 -0.3143  0.4527
66281W        W 9272   6.100   9.872  22.638 -0.0454 -0.0320  0.0375
66282W        W 9273  11.382  23.849   1.812 -0.0471 -0.0988  0.3780
66283W        W 9274  14.993   6.964  23.927 -0.2404 -0.1420  0.1712
66284W        W 9275  21.786  24.164   6.583 -0.2107 -0.2027 -0.0567
66285W        W 9276   8.557  31.569   0.939 -0.0636 -0.0689 -0.1276
66286W        W 9277   8.266  34.708  27.917 -0.2062 -0.1438  0.0772
66287W        W 9278  18.971  10.588  23.073  0.5256  0.2663  0.0243
66288W        W 9279   7.061   0.508   7.392  0.0880 -0.2028 -0.1621
66289W        W 9280  20.752  25.747  21.240 -0.2161 -0.2591 -0.0370
66290W        W 9281  21.776   1.788  18.375 -0.4156 -0.2699 -0.0095
66291W        W 9282  23.764  28.197   9.271 -0.2022  0.0939 -0.0279
66292W        W 9283  24.158   1.147  27.749  0.1505 -0.0665 -0.2415
66293W        W 9284  11.695  28.916   6.782 -0.0383  0.1907  0.1381
66294W        W 9285   7.665  32.131   1.429 -0.1826 -0.1014  0.2211
66295W        W 9286   1.247  21.282  15.687  0.2024  0.0797  0.0515
66296W        W 9287   7.421  16.774  23.734 -0.1992  0.4422 -0.2487
66297W        W 9288  15.026  18.356  15.572  0.1106 -0.0731  0.0200
66298W        W 9289  12.535  23.346  28.467  0.0532 -0.2831 -0.0763
66299W        W 9290  24.307  21.466   7.908  0.1093  0.0636 -0.2568
66300W        W 9291  22.923  20.028  21.007  0.0878 -0.2933 -0.1767
66301W        W 9292  13.073   2.423  10.917 -0.3207 -0.1378  0.5243
66302W        W 9293  30.751  31.593  17.001  0.1118 -0.3084 -0.0388
66303W        W 9294   4.849   5.919  18.338  0.1704 -0.0362  0.0399
66304W        W 9295  16.142  26.998   9.873 -0.1448  0.1884  0.3409
66305W        W 9296  20.466   1.379  29.111 -0.1023  0.2172  0.1795
66306W        W 9297  33.620  29.926   6.177 -0.1583 -0.1031  0.0821
66307W        W 9298   9.158  15.526   1.870 -0.2242  0.2724 -0.0868
66308W        W 9299  28.884  25.549  17.843 -0.1877  0.1853 -0.0609
66309W        W 9300   5.506   6.461  16.278 -0.2091 -0.0457  0.2322
66310W        W 9301  15.290   0.274  25.294  0.0089 -0.0239  0.2487
66311W        W 9302  32.862  33.524  24.234 -0.2639 -0.0491  0.0547
66312W        W 9303   0.679  28.413   3.109 -0.1405  0.1820 -0.1121
66313W        W 9304  30.598   0.768   5.245 -0.2846 -0.1041 -0.0469
66314W        W 9305  33.763  30.011  20.274 -0.2255 -0.0381 -0.1931
66315W        W 9306  32.416  16.777   7.748 -0.0453 -0.2355  0.1575
66316W        W 9307  25.575   0.243  22.684  0.0973  0.3061 -0.3227
66317W        W 9308  22.786  26.253   7.328 -0.1271  0.2030 -0.2803
66318W        W 9309   7.615  10.756  25.655  0.3140 -0.0340 -0.1662
66319W        W 9310  22.731  27.732  26.502 -0.0288  0.0115 -0.1436
66320W        W 9311  15.558   0.789  16.439 -0.1837  0.0002 -0.1038
66321W        W 9312  13.643  34.299   1.774  0.1861 -0.1191 -0.2307
66322W        W 9313  23.371  26.369  25.627  0.0329  0.1745 -0.0322
66323W        W 9314  26.656   6.130  21.407  0.0716 -0.3537  0.0818
66324W        W 9315  18.307   0.774   6.883  0.0099 -0.0562  0.1223
66325W        W 9316  16.935  26.386  24.690  0.0238 -0.2842 -0.1764
66326W        W 9317  20.594  10.604   4.408  0.0146 -0.2102 -0.0756
66327W        W 9318  31.734  28.238  18.319  0.2435  0.1136 -0.3853
66328W        W 9319  18.181  34.237  19.585  0.0966  0.2752  0.1011
66329W        W 9320   5.712  21.595  17.249 -0.2521  0.0798 -0.1572
66330W        W 9321  10.934   8.677  25.587  0.0674  0.0244 -0.1008
66331W        W 9322  20.729  16.891  24.327 -0.3406 -0.0018  0.1949
66332W        W 9323   8.877  11.687  24.347 -0.0145 -0.0111 -0.0329
66333W        W 9324  14.867  24.100  21.486  0.0406 -0.2530  0.0112
66334W        W 9325   5.833  31.034  22.078 -0.1541 -0.0252 -0.2077
66335W        W 9326  13.845   3.981  28.711  0.2658  0.3192 -0.2470
66336W        W 9327  15.348  10.866  25.070  0.4339  0.2904  0.0971
66337W        W 9328  32.317  27.191   6.399  0.0464  0.4047 -0.0991
66338W        W 9329   5.959  31.401   3.199 -0.1784 -0.1454 -0.0574
66339W        W 9330   9.781   2.691  24.222 -0.0414  0.2538 -0.0219
66340W        W 9331   4.105   5.387  25.944 -0.0977  0.3293 -0.1716
66341W        W 9332  26.054  10.789   2.891 -0.1309 -0.0783 -0.0983
66342W        W 9333  14.863  30.054   2.249 -0.0354  0.2691  0.1492
66343W        W 9334  12.372   3.979  10.146 -0.1450 -0.1864 -0.1083
66344W        W 9335  21.177  27.495   5.050 -0.1981 -0.1700  0.0542
66345W        W 9336   2.466  26.931  25.978  0.3997 -0.0614  0.4269
66346W        W 9337  14.743  30.085  18.383 -0.2119 -0.0370 -0.2152
66347W        W 9338  19.595  15.946  28.365  0.5491 -0.1148 -0.0679
66348W        W 9339   9.941  29.820   3.697  0.2374 -0.0672  0.0205
66349W        W 9340  20.974  32.902   8.555 -0.0342  0.2837  0.2939
66350W        W 9341  17.476  31.434  24.287 -0.0310 -0.0519 -0.0056
66351W        W 9342  23.479  14.555  27.141 -0.6511  0.1585  0.0831
66352W        W 9343  27.347  26.513  27.254  0.1083  0.0197 -0.0701
66353W        W 9344  17.232   6.938   7.658 -0.0946  0.2346 -0.2214
66354W        W 9345   7.886  25.594  28.787  0.2671 -0.0974 -0.1756
66355W        W 9346  11.829  29.822   0.266 -0.1230 -0.0555 -0.0556
66356W        W 9347  10.311  33.486  25.168  0.0033  0.0744  0.3850
66357W        W 9348   3.357  11.287   0.055 -0.1954  0.1220  0.1431
66358W        W 9349   6.033  32.588  27.146 -0.1189  0.2258 -0.2634
66359W        W 9350  20.722  32.757  21.291  0.2782  0.1257 -0.2230
66360W        W 9351  30.732  34.209   5.034  0.1569 -0.1237  0.0368
66361W        W 9352   5.048  34.571   8.553 -0.1435  0.0119 -0.1204
66362W        W 9353   0.770  30.034   5.816  0.2177 -0.1292  0.3180
66363W        W 9354  32.345  25.468  24.805  0.2589  0.0930 -0.4946
66364W        W 9355   3.659   5.899  23.179 -0.3702 -0.2061 -0.0802
66365W        W 9356  23.635  21.289   4.155  0.4247  0.3268 -0.0807
66366W        W 9357  24.180  31.091  15.241  0.1393  0.1250  0.1306
66367W        W 9358  11.059   8.945   1.819 -0.0715  0.1444 -0.2264
66368W        W 9359  11.530  34.496  26.998 -0.1936  0.1558 -0.1826
66369W        W 9360  17.016  16.628  14.414  0.1694  0.0863  0.0156
66370W        W 9361  34.122  17.301   1.604 -0.0787  0.2762  0.0448
66371W        W 9362  21.977  33.998  13.595  0.2487 -0.0877  0.3409
66372W        W 9363  19.181  34.673  23.305 -0.4077 -0.1871  0.3618
66373W        W 9364  14.694  29.101  28.625  0.1099 -0.4251 -0.0109
66374W        W 9365   9.025  32.540  24.094  0.0915  0.2848  0.0666
66375W        W 9366  12.719  28.953   6.597 -0.2001 -0.1707 -0.0734
66376W        W 9367   4.899   8.441  22.028 -0.2141  0.0257  0.2053
66377W        W 9368  11.108  26.475   1.685 -0.3215  0.3464  0.0797
66378W        W 9369  15.920   0.244  24.669 -0.0119 -0.2824 -0.0843
66379W        W 9370  24.478  28.759   0.413 -0.1358  0.0295  0.0467
66380W        W 9371   2.297  21.803  25.842  0.1368  0.2668  0.0611
66381W        W 9372   6.220  25.379   1.047  0.0789 -0.0972 -0.1203
66382W        W 9373  16.503   0.350  28.272  0.0999  0.0262 -0.1321
66383W        W 9374  12.735  30.520  19.344  0.0327 -0.1369 -0.0334
66384W        W 9375  34.752   3.170   1.712 -0.0295 -0.0639  0.2463
66385W        W 9376  23.108   0.780  27.241 -0.2461  0.0670 -0.3113
66386W        W 9377   9.257  29.472   3.676  0.2563 -0.1956 -0.1833
66387W        W 9378  13.068  30.271  28.162 -0.4198 -0.1196  0.0578
66388W        W 9379  10.067   1.170   9.393 -0.2324  0.3034 -0.0841
66389W        W 9380  17.113  27.335  26.955  0.2083 -0.1618 -0.0336
66390W        W 9381  14.346   1.289  15.625 -0.1452 -0.1324  0.0968
66391W        W 9382  16.475  21.093  13.557 -0.3614 -0.1557  0.0137
66392W        W 9383  20.226  24.034   7.966 -0.1402 -0.0698 -0.4262
66393W        W 9384  29.657  29.646  23.137 -0.1145  0.5219  0.1886
66394W        W 9385   4.815   0.266   0.057 -0.0086 -0.2567  0.1676
66395W        W 9386   6.064   4.901  26.407  0.3003  0.0489 -0.2778
66396W        W 9387  27.817   0.137  12.097 -0.1127  0.0811 -0.2066
66397W        W 9388  11.352   3.615   3.688 -0.0860  0.0757  0.2365
66398W        W 9389  13.568  32.501   1.140 -0.0643  0.0414  0.0356
66399W        W 9390  27.003  12.252  24.526  0.0117  0.1212 -0.4104
66400W        W 9391  18.670   6.111   5.151 -0.0595 -0.2963 -0.1432
66401W        W 9392   6.505  20.840   2.339  0.2630  0.0345  0.0816
66402W        W 9393  22.721  29.610  25.420 -0.1610  0.1279  0.0943
66403W        W 9394   7.479  29.200   2.694 -0.0182  0.1772 -0.0711
66404W        W 9395   2.512  18.393  25.439 -0.2189 -0.2454 -0.1222
66405W        W 9396  24.253   1.645  28.453 -0.0293 -0.0480 -0.1162
66406W        W 9397   1.623  17.764   0.436  0.2515 -0.0248 -0.0143
66407W        W 9398  27.143  19.743   7.591  0.0381 -0.0790  0.0325
66408W        W 9399  17.600  31.692  26.458 -0.3923 -0.0261  0.0344
66409W        W 9400  17.408  23.231   7.867 -0.1421 -0.3869 -0.2428
66410W        W 9401   6.204  26.823  17.393 -0.1256  0.0229  0.1226
66411W        W 9402  22.476  21.905   6.730 -0.0918 -0.2537 -0.3706
66412W        W 9403  16.962  25.305   0.875 -0.0619 -0.2416 -0.4899
66413W        W 9404  19.908  30.656   6.736 -0.1890  0.1815  0.2133
66414W        W 9405   8.496   5.197   3.383 -0.0136  0.0700 -0.1096
66415W        W 9406   5.677  24.139  14.837 -0.1599  0.2419  0.0467
66416W        W 9407   5.554  30.094  26.749 -0.2173  0.2336 -0.3963
66417W        W 9408  10.774   2.100   1.821  0.2086 -0.1441 -0.3746
66418W        W 9409  22.783  16.618  17.426 -0.1622 -0.2915  0.1215
66419W        W 9410   4.123   5.657  11.079  0.0495  0.2752  0.1159
66420W        W 9411  19.015  25.765   0.164 -0.1304  0.0282  0.0586
66421W        W 9412  32.504  29.240  16.682 -0.0057 -0.0507 -0.0627
66422W        W 9413   3.565  23.654   9.447  0.1040 -0.0673  0.1171
66423W        W 9414  29.330  33.561  28.741  0.1970 -0.0390 -0.3116
66424W        W 9415   8.033  28.401   4.581 -0.0207  0.0563  0.0120
66425W        W 9416  20.588   5.850   4.102 -0.1350  0.0259 -0.0953
66426W        W 9417  11.354  13.589   4.111 -0.0671 -0.1673  0.0332
66427W        W 9418   2.468  12.205  18.217 -0.0204  0.3509  0.1680
66428W        W 9419   3.299  32.732   5.703  0.1590  0.2781  0.1032
66429W        W 9420  17.157  19.191   0.133  0.1801 -0.1710  0.1903
66430W        W 9421  18.743  34.580  27.056 -0.0785  0.1085 -0.0889
66431W        W 9422   8.887   4.449  27.313 -0.2690 -0.1745 -0.0680
66432W        W 9423  33.460  23.096  27.378 -0.0807  0.1864  0.0610
66433W        W 9424   0.373   7.894  27.389  0.1774  0.0184 -0.1325
66434W        W 9425  14.160   8.071  22.777 -0.0205  0.0681  0.1816
66435W        W 9426   0.914  30.234  25.610 -0.2212 -0.0338 -0.2142
66436W        W 9427   9.246  21.634   2.155 -0.3107  0.2990 -0.1384
66437W        W 9428  34.252  31.861   0.538 -0.1222  0.2795 -0.0683
66438W        W 9429  17.628  29.608  27.786 -0.3394 -0.4425  0.1689
66439W        W 9430  11.229  23.298  27.330 -0.1003  0.4015  0.1860
66440W        W 9431   6.784   8.520   5.311 -0.1160 -0.0242  0.2704
66441W        W 9432   8.493  10.312  26.853  0.0745  0.0054 -0.4079
66442W        W 9433  16.965   8.635  19.431 -0.1520 -0.3300  0.0762
66443W        W 9434  23.202  30.357   8.767  0.2277  0.1510 -0.3461
66444W        W 9435  28.056   2.042  17.647 -0.0482 -0.1604 -0.1354
66445W        W 9436  29.389  30.134  17.035  0.3160  0.0944  0.0056
66446W        W 9437  14.549  28.750  25.477 -0.2422 -0.0797  0.1996
66447W        W 9438  13.339  17.029  19.695 -0.0844 -0.0927 -0.0962
66448W        W 9439  14.073   1.995   3.078  0.2572  0.0016  0.2439
66449W        W 9440   6.401   5.707  27.589  0.1453 -0.0057  0.1324
66450W        W 9441  23.741  23.237  19.730 -0.1982  0.0108  0.0630
66451W        W 9442  13.172   6.358  27.211 -0.0234 -0.3534  0.0031
66452W        W 9443  23.073  27.378  18.695  0.0946  0.0721 -0.0671
66453W        W 9444  18.525   4.632  24.856  0.0971 -0.1804  0.0255
66454W        W 9445   8.078  15.809  27.714 -0.2021  0.0828  0.2754
66455W        W 9446   6.043  33.651  15.334 -0.1449 -0.1164 -0.3035
66456W        W 9447  23.437  10.228  28.742 -0.0675 -0.0854 -0.2122
66457W        W 9448   5.103   2.088  17.495 -0.1832 -0.1793  0.2561
66458W        W 9449  11.358  17.198  27.461  0.1769  0.0545  0.3458
66459W        W 9450  12.379  25.673  18.218  0.0443  0.0989 -0.0300
66460W        W 9451   7.645   4.339   2.447 -0.1302 -0.2559 -0.3074
66461W        W 9452  12.487   4.770  24.657 -0.2761  0.0789  0.1065
66462W        W 9453  26.793  29.534  23.538 -0.1026  0.0351  0.1804
66463W        W 9454  24.122   6.175   3.575 -0.4350 -0.1948  0.0218
66464W        W 9455  10.709   5.002   6.138 -0.0345 -0.3846  0.1103
66465W        W 9456  13.489  32.720  24.682  0.3526 -0.0970 -0.2496
66466W        W 9457  23.568   9.792  26.290  0.6405 -0.1944 -0.0742
66467W        W 9458  20.741  11.576  18.561 -0.1298  0.0721  0.0122
66468W        W 9459  33.780  23.744  15.700  0.1796 -0.1222  0.0876
66469W        W 9460  23.464  25.522   7.240 -0.1931 -0.1559  0.1018
66470W        W 9461  25.844  18.341  21.234  0.0933  0.1790 -0.0011
66471W        W 9462   5.210  33.559  22.661 -0.0420 -0.1219 -0.3013
66472W        W 9463   7.591  19.533   7.765  0.1030  0.2546  0.1519
66473W        W 9464  10.238  30.785  24.283 -0.0769 -0.1805  0.3756
66474W        W 9465  19.715  25.523  28.929  0.0022  0.2170 -0.1999
66475W        W 9466  22.750  11.486  23.909 -0.1351  0.1208 -0.1143
66476W        W 9467  33.688  26.808  17.764 -0.2136  0.2797  0.2490
66477W        W 9468   7.675  21.560   9.434 -0.0475  0.0852  0.1138
66478W        W 9469   6.415   0.755  23.821  0.1930 -0.2255  0.0344
66479W        W 9470   5.291  32.269  24.711 -0.1673 -0.1123 -0.3397
66480W        W 9471  19.785   5.049  25.613 -0.3018  0.2348 -0.2179
66481W        W 9472   9.366  27.154  17.573  0.0430 -0.1007  0.0416
66482W        W 9473  24.498  20.583  19.712 -0.0797 -0.2191  0.3441
66483W        W 9474  23.883   4.622   3.070  0.0506 -0.0121 -0.2539
66484W        W 9475  17.746  28.685   8.136  0.1008 -0.2223  0.1393
66485W        W 9476   5.516  29.204   5.671 -0.0699  0.0266 -0.3851
66486W        W 9477  23.423   0.050  27.354 -0.1851  0.1499 -0.0481
66487W        W 9478  23.274  32.303  27.809 -0.1700 -0.1624  0.2923
66488W        W 9479  27.317  34.130   5.783  0.1112  0.2713  0.1746
66489W        W 9480   0.491  33.182   9.520  0.0567  0.3500  0.4707
66490W        W 9481   0.784   3.866  18.839 -0.3602 -0.2967  0.2655
66491W        W 9482   7.588  32.499   3.318  0.0721 -0.2623 -0.0651
66492W        W 9483  10.001  24.940   7.349 -0.0149 -0.5483  0.1346
66493W        W 9484  34.584  22.485   2.193 -0.0984 -0.0618  0.1108
66494W        W 9485  15.825  31.972  14.854  0.1742 -0.0915 -0.0981
66495W        W 9486  22.948   6.937   6.693  0.3499 -0.0922  0.1835
66496W        W 9487  30.605  19.039  24.072  0.2520  0.2756 -0.1173
66497W        W 9488   8.716  25.323  17.197  0.3613  0.0283  0.1001
66498W        W 9489   9.522   4.392  24.586  0.0506  0.1367  0.1098
66499W        W 9490  23.374  23.842   5.063  0.3203 -0.0584  0.0742
66500W        W 9491  15.227  25.956   0.669  0.1055  0.1144 -0.0087
66501W        W 9492  15.978  29.703   3.433 -0.0581 -0.0251  0.1755
66502W        W 9493  19.215  22.063   8.474  0.0817 -0.2229  0.2961
66503W        W 9494  12.817  17.694  16.483  0.2040 -0.0929  0.1831
66504W        W 9495  14.285  23.590  17.998 -0.3452 -0.0589  0.1373
66505W        W 9496  21.156  22.484  14.335 -0.0589 -0.0441  0.0667
66506W        W 9497   7.778  12.439   3.546 -0.0654  0.2357 -0.0312
66507W        W 9498  11.097   1.351  18.106 -0.1219 -0.1402 -0.1138
66508W        W 9499  14.878   5.410  24.395  0.2395  0.0255 -0.2310
66509W        W 9500  27.318   0.339   1.154 -0.2293  0.1651  0.2948
66510W        W 9501  10.351  32.908  27.667  0.0007 -0.0245 -0.1969
66511W        W 9502  21.124  32.275  21.852  0.3009  0.0782 -0.2541
66512W        W 9503  12.968   2.517  25.157  0.2448  0.1614 -0.2220
66513W        W 9504  12.491  34.076  29.239  0.1881  0.0632 -0.0041
66514W        W 9505   5.528   0.300   6.814 -0.1482 -0.2613 -0.1524
66515W        W 9506   5.498  32.884   4.174  0.0213  0.3569  0.0335
66516W        W 9507   0.920  19.289  27.425  0.4023 -0.2008  0.0498
66517W        W 9508  17.568  20.749   1.749 -0.3842 -0.0285 -0.0649
66518W        W 9509  10.854   7.310  26.500  0.6278  0.0668  0.0002
66519W        W 9510  25.407  31.907  24.632  0.1851  0.1966  0.0687
66520W        W 9511  17.386   2.971   4.385 -0.1380 -0.4351 -0.4428
66521W        W 9512  16.838   3.255  16.107  0.3402  0.0747  0.1530
66522W        W 9513  11.735  22.671  25.957 -0.0470  0.4015  0.2654
66523W        W 9514   3.394  24.867   3.437 -0.0126  0.1748 -0.0882
66524W        W 9515   8.218   0.732   8.761  0.1658 -0.0486  0.1722
66525W        W 9516  17.566  31.500   9.633  0.0306 -0.1293  0.1193
66526W        W 9517  13.839  24.744   4.306  0.0080 -0.0034  0.0382
66527W        W 9518  25.303  22.907   0.159 -0.2073 -0.0553  0.4268
66528W        W 9519   5.761   4.767   9.644  0.0091  0.0272 -0.0367
66529W        W 9520  22.541  24.920  18.469 -0.1824 -0.0623  0.0485
66530W        W 9521   1.293   6.776   6.964  0.1567  0.0886  0.1885
66531W        W 9522   9.648  15.559   9.738  0.2067 -0.2929  0.0567
66532W        W 9523   6.079  27.332  24.349 -0.1049 -0.0422 -0.0503
66533W        W 9524  26.972  29.127   0.254 -0.1693  0.1814  0.0470
66534W        W 9525  30.700  31.496   6.515 -0.1188 -0.2834 -0.2655
66535W        W 9526  34.515   2.319  27.816  0.0829  0.0899 -0.1123
66536W        W 9527  33.191   5.140   7.500  0.0274  0.2145 -0.2956
66537W        W 9528   1.264   1.267  26.980 -0.1795  0.0079  0.0065
66538W        W 9529  16.927  25.149   3.082 -0.2403  0.1211 -0.1090
66539W        W 9530  18.004  27.049  16.536 -0.2143  0.1837 -0.1444
66540W        W 9531  16.411  33.737   6.718 -0.0361 -0.1690  0.2317
66541W        W 9532  12.906  24.866  21.406 -0.1825  0.1384 -0.0377
66542W        W 9533  10.475  28.235  19.445 -0.2074 -0.0418 -0.1299
66543W        W 9534  26.944  28.598  26.683 -0.1642 -0.4052  0.1626
66544W        W 9535  31.864  23.512  16.062  0.1097  0.3594  0.0163
66545W        W 9536   8.098  11.585  21.980  0.0037  0.2331 -0.1927
66546W        W 9537  15.925  28.323  22.789 -0.1026 -0.1075 -0.2968
66547W        W 9538  34.489  32.895  17.309 -0.0910  0.0294  0.1207
66548W        W 9539  31.427  32.086  17.463  0.0627 -0.0389  0.1015
66549W        W 9540   5.196   5.102  16.286 -0.4795 -0.0288  0.3294
66550W        W 9541   1.259  22.620   1.871 -0.1235 -0.1612 -0.2401
66551W        W 9542  11.002  30.060  15.944 -0.0202  0.0393  0.1661
66552W        W 9543  23.021   1.302  19.706 -0.0032 -0.5683 -0.2307
66553W        W 9544  14.973   6.236  17.619 -0.1616  0.1093 -0.0671
66554W        W 9545  11.922   1.253  15.096 -0.2072 -0.2242 -0.2368
66555W        W 9546   8.979  26.109  20.760  0.3098 -0.1271  0.3180
66556W        W 9547  16.521  10.749   1.404  0.2664 -0.0062 -0.0148
66557W        W 9548  16.824   2.344  15.722 -0.0179  0.0296  0.2493
66558W        W 9549  12.479  32.532  15.519  0.0136  0.0979 -0.0126
66559W        W 9550   4.102   9.194  15.910 -0.1566 -0.1454  0.2044
66560W        W 9551   7.674   3.716  22.761  0.0902 -0.0486  0.2962
66561W        W 9552  21.262   7.335  18.295  0.1264 -0.2502  0.2915
66562W        W 9553  33.172  19.337  23.938  0.1178  0.0739  0.0355
66563W        W 9554  11.480  31.096  23.933  0.0562  0.2493 -0.0484
66564W        W 9555   3.815  34.647   0.538 -0.3286 -0.1712 -0.1463
66565W        W 9556  15.584  27.407  18.434 -0.3635 -0.1240  0.1473
66566W        W 9557  15.003   2.948  18.986 -0.0709 -0.2075  0.2581
66567W        W 9558   5.754   2.865  22.338 -0.2199 -0.0039 -0.3315
66568W        W 9559  28.940  22.773  16.241  0.3693 -0.1410 -0.2179
66569W        W 9560   5.835  24.658  16.357  0.1058  0.1782 -0.0919
66570W        W 9561  20.605  33.750  17.774  0.1038 -0.0807 -0.0615
66571W        W 9562  14.333  25.116  27.926 -0.1585  0.1936  0.2939
66572W        W 9563  30.051   4.376  15.647 -0.1067 -0.4686 -0.0468
66573W        W 9564   0.616  27.564  21.012  0.1089 -0.1324 -0.2135
66574W        W 9565  14.945   1.499  19.010 -0.0248 -0.1204 -0.0101
66575W        W 9566  33.819  28.506  23.050 -0.1963  0.2956 -0.3134
66576W        W 9567   2.376   0.882   8.040 -0.3119  0.4248  0.1083
66577W        W 9568  28.117   5.694  18.625  0.1706 -0.4256 -0.1649
66578W        W 9569  12.306  28.753  19.368  0.0969  0.0140  0.3113
66579W        W 9570  23.374   0.223   3.836 -0.2901 -0.1684 -0.1963
66580W        W 9571  12.967  23.689  24.522 -0.1938 -0.0947  0.4601
66581W        W 9572  10.892  21.507  28.179 -0.1703 -0.3045 -0.1452
66582W        W 9573  19.252  29.199  18.233  0.2254  0.1027  0.2808
66583W        W 9574  19.718  20.279  13.194 -0.0083  0.0266  0.1464
66584W        W 9575  26.761  29.408  17.119 -0.0436 -0.0757  0.3080
66585W        W 9576  33.366  10.946  18.848  0.1658  0.1019 -0.0631
66586W        W 9577   8.700  25.645  24.351 -0.0666  0.3440  0.1440
66587W        W 9578  19.154   0.016  24.983  0.0225 -0.1992 -0.0694
66588W        W 9579  22.670   4.852  27.993  0.2638  0.0743 -0.3516
66589W        W 9580   4.444  31.799  20.505 -0.0971  0.1351  0.0299
66590W        W 9581  23.882  21.131  17.477 -0.1738 -0.0197 -0.0390
66591W        W 9582  24.542   3.838  28.790  0.2057  0.0280  0.0283
66592W        W 9583  30.946  16.876  15.332  0.3188 -0.0355 -0.2483
66593W        W 9584   8.913  25.004  22.966 -0.1881  0.1108  0.3184
66594W        W 9585   6.520   3.034  15.930 -0.0667  0.0014 -0.1613
66595W        W 9586  15.736  25.755  15.056 -0.0686  0.2161 -0.0537
66596W        W 9587  18.233   9.571  18.299  0.3006  0.0357 -0.1255
66597W        W 9588   9.518  18.229  23.282  0.2646 -0.1222  0.5227
66598W        W 9589  27.871  34.397  19.556  0.1638 -0.0080 -0.1682
66599W        W 9590   0.369   1.108  28.810  0.0070 -0.1361  0.1181
66600W        W 9591  22.503  29.857  14.603 -0.0611 -0.2321  0.0716
66601W        W 9592  12.617  29.608  17.948 -0.3503  0.1360 -0.4151
66602W        W 9593  16.690  28.654  15.436  0.0531 -0.2017  0.0418
66603W        W 9594   9.467  12.298  23.310 -0.0043  0.0093  0.2224
66604W        W 9595  16.260   4.033  22.603  0.0947  0.1605  0.0091
66605W        W 9596  19.058   4.784  14.819 -0.0271  0.0876  0.1785
66606W        W 9597   0.264  28.122  24.888  0.2651  0.0625  0.3133
66607W        W 9598  11.287   5.007  25.332  0.2304 -0.0467 -0.1235
66608W        W 9599  24.032  31.881  14.837  0.1668  0.1596 -0.1997
66609W        W 9600  12.156   1.898  16.940 -0.1369  0.0659 -0.1434
66610W        W 9601  20.642  20.842  14.802 -0.0532 -0.1384  0.2942
66611W        W 9602  34.717  24.453  15.170  0.0817  0.2093 -0.1466
66612W        W 9603  15.070  28.899  20.429  0.0482  0.0068 -0.1682
66613W        W 9604  16.724   6.125  22.882  0.0807  0.1327  0.1572
66614W        W 9605  13.564  25.451  14.651  0.1881 -0.0233 -0.1197
66615W        W 9606  27.187   3.940  20.256 -0.0499 -0.4420 -0.2032
66616W        W 9607  15.202  27.425  24.382  0.3624 -0.0253  0.2779
66617W        W 9608   6.389   5.830  25.337  0.0893  0.0790  0.0407
66618W        W 9609  26.075   2.504  22.786 -0.2082 -0.0150 -0.0936
66619W        W 9610  24.027  23.029  14.812 -0.1046  0.2188  0.0051
66620W        W 9611  16.921   4.425   7.284 -0.1928  0.1698  0.4656
66621W        W 9612   6.731   3.261  10.279 -0.0991 -0.1714 -0.1433
66622W        W 9613  10.861  28.013  16.611 -0.2184 -0.3180 -0.1460
66623W        W 9614  19.539   2.234  18.146 -0.2559 -0.1790 -0.1792
66624W        W 9615   9.496   4.568  11.057 -0.1820 -0.3575 -0.2333
66625W        W 9616  13.437   3.201  15.204  0.0847  0.1282  0.0177
66626W        W 9617  29.406  31.068  13.967 -0.0961  0.0284  0.1884
66627W        W 9618  17.974  30.739   2.039 -0.0091 -0.1441  0.1166
66628W        W 9619  23.131  24.097  14.192 -0.1383  0.4259  0.1525
66629W        W 9620  15.988  20.781  16.720 -0.2613  0.0535 -0.1036
66630W        W 9621  21.841   6.934  15.348  0.0459 -0.1003  0.3897
66631W        W 9622  17.427   8.497  24.552  0.1543  0.0651 -0.0663
66632W        W 9623  17.282  25.016   0.496 -0.0281 -0.0275 -0.0213
66633W        W 9624   9.341   5.452  16.533 -0.0116 -0.0724  0.3998
66634W        W 9625  29.614   5.890  14.196 -0.2337 -0.2086  0.1625
66635W        W 9626  17.777   3.363  19.283 -0.1329  0.4258 -0.1560
66636W        W 9627  23.379  29.099   8.083 -0.0170  0.1903 -0.0005
66637W        W 9628  13.649  10.254   2.864  0.1046 -0.1446  0.1651
66638W        W 9629  14.498  29.714  17.550  0.2869  0.1074 -0.2005
66639W        W 9630  16.746  23.929  21.574  0.0710  0.1621  0.1467
66640W        W 9631  15.366  33.672  22.159  0.1139 -0.1846  0.2567
66641W        W 9632   4.327  17.383  18.651 -0.0881 -0.2224  0.1417
66642W        W 9633   2.682  12.362  16.676 -0.0769  0.1800 -0.0506
66643W        W 9634   4.838  11.766  17.686 -0.0027  0.1890 -0.0323
66644W        W 9635  10.965  22.015  25.828  0.2186  0.1883 -0.0292
66645W        W 9636  16.657   0.633  14.964  0.0219  0.2766  0.1323
66646W        W 9637   7.652   1.774  16.270  0.1765  0.2166  0.0800
66647W        W 9638  16.928  11.461  16.591 -0.2431  0.0620  0.0026
66648W        W 9639  27.148  28.377  20.193  0.7050 -0.0232 -0.1211
66649W        W 9640   2.778   3.895  16.961 -0.0878  0.1113 -0.0783
66650W        W 9641  33.428  10.625  21.499 -0.2816  0.0439  0.3681
66651W        W 9642  17.872  34.641  19.756  0.1821  0.3334 -0.0239
66652W        W 9643  29.634   6.679  26.080  0.0591 -0.0487  0.2951
66653W        W 9644  13.472   1.181   9.220  0.1094  0.1446 -0.2030
66654W        W 9645   7.591   9.189  18.412  0.1457  0.1807 -0.2759
66655W        W 9646  15.357  32.195  14.884  0.1027 -0.1537  0.1824
66656W        W 9647   8.332  24.855  17.830  0.1087 -0.2177  0.0035
66657W        W 9648  13.084  25.742  14.752 -0.3719 -0.0977 -0.4149
66658W        W 9649  21.781  25.092  13.465 -0.2775  0.1149 -0.0231
66659W        W 9650  34.467   2.179  16.524 -0.3041 -0.3252  0.0963
66660W        W 9651   6.130  25.532  26.335 -0.3689 -0.2033  0.2173
66661W        W 9652  20.976   6.963  14.327  0.0364 -0.4451  0.0772
66662W        W 9653  19.000   2.769  16.362 -0.0878 -0.3509  0.3445
66663W        W 9654   8.795   1.542  15.088  0.3464 -0.0177  0.1030
66664W        W 9655   2.626   5.885  25.621  0.1975  0.1812  0.1278
66665W        W 9656  17.211   3.942   4.626  0.0430  0.0481  0.2230
66666W        W 9657  21.488  27.784  22.603  0.0910  0.0643  0.1923
66667W        W 9658  16.367   0.677  16.983  0.3664  0.4628 -0.1026
66668W        W 9659   6.909   4.672  22.099 -0.2644  0.2944  0.2035
66669W        W 9660  26.024   5.545  24.433  0.0119  0.0549 -0.0752
66670W        W 9661  14.232  28.061  14.046 -0.1267  0.1793  0.1017
66671W        W 9662  14.509  11.860  28.294  0.0061  0.1537  0.2224
66672W        W 9663  17.806   0.845  15.591 -0.1839 -0.0895 -0.0491
66673W        W 9664  17.820  34.132  23.875 -0.1159 -0.3661 -0.0898
66674W        W 9665   6.565  32.903  15.208 -0.0929 -0.0381  0.1498
66675W        W 9666  19.034   5.778  18.830 -0.0452  0.3938  0.0235
66676W        W 9667  23.403  24.888  21.626  0.0341 -0.0945 -0.4364
66677W        W 9668  16.755   4.411  17.444 -0.0916 -0.2485  0.0904
66678W        W 9669  20.727  33.495  14.328 -0.1092  0.0564  0.1075
66679W        W 9670   8.267  22.686  10.151 -0.2003 -0.1340  0.0035
66680W        W 9671   5.680   1.054  24.221 -0.1134  0.2265  0.1263
66681W        W 9672  19.894  28.747  20.447 -0.1327  0.0930 -0.3482
66682W        W 9673   2.988   8.084  24.932 -0.0392 -0.2309  0.2269
66683W        W 9674  16.389  34.594  27.013 -0.0716 -0.2312  0.1661
66684W        W 9675  16.836  27.764  15.742  0.1298  0.0204 -0.0934
66685W        W 9676   7.732  19.481  25.889  0.0085 -0.1466 -0.3549
66686W        W 9677  11.137  12.318  15.512  0.0531  0.0485 -0.0282
66687W        W 9678  21.996   3.721  14.756 -0.2239  0.1704  0.0067
66688W        W 9679   5.093   3.669  20.344  0.0720 -0.0551  0.1871
66689W        W 9680  12.685  31.851  23.039  0.0078 -0.2189  0.3541
66690W        W 9681   3.736   0.869   1.932 -0.0578  0.2305 -0.1131
66691W        W 9682  32.099  27.739  17.346 -0.1599 -0.1952  0.2201
66692W        W 9683  25.511  20.648  17.106  0.3843 -0.0528  0.1120
66693W        W 9684  12.190   6.782  26.347 -0.1570  0.3117 -0.0877
66694W        W 9685  11.615   5.269  20.439  0.0001 -0.0530 -0.3476
66695W        W 9686  31.447   7.787  29.128 -0.1890  0.2903  0.0578
66696W        W 9687  17.401  31.104  20.891  0.0835 -0.2937  0.1257
66697W        W 9688  12.397  25.704  20.632  0.2165  0.1238  0.0105
66698W        W 9689   9.134   3.823  21.014  0.1660  0.2533  0.2104
66699W        W 9690   2.748   3.773  26.547 -0.0558  0.0176 -0.0623
66700W        W 9691  10.534   5.831  15.357 -0.1526  0.4186  0.3342
66701W        W 9692   1.714  11.866  24.891 -0.0603  0.0965  0.1082
66702W        W 9693  16.217  34.230  28.382 -0.0436 -0.1488  0.0294
66703W        W 9694  14.698  27.174  15.994 -0.0067 -0.1335 -0.1135
66704W        W 9695  30.421  25.358  19.446 -0.1504 -0.0439 -0.0428
66705W        W 9696  20.410  30.520  29.019 -0.1101  0.1394 -0.3179
66706W        W 9697  14.481  27.950  17.949  0.0228 -0.0913 -0.0204
66707W        W 9698   7.912  33.100  19.283  0.1605  0.1784  0.2130
66708W        W 9699  25.578  26.380  14.732 -0.5593 -0.3794  0.0600
66709W        W 9700  26.912  27.558  27.780  0.0322 -0.0996 -0.2983
66710W        W 9701  24.914  28.124  22.462 -0.0409 -0.1246  0.4279
66711W        W 9702   9.429  32.112  16.143  0.0556 -0.0575  0.1391
66712W        W 9703   3.755   7.289  28.124  0.0480 -0.2780 -0.3398
66713W        W 9704   7.767   0.831  24.926  0.0019 -0.0272  0.1989
66714W        W 9705   9.456   4.937  22.301  0.0215 -0.0214 -0.1476
66715W        W 9706   4.222  33.248  19.584 -0.2244  0.1629 -0.1083
66716W        W 9707   7.870  34.394  14.170 -0.0708 -0.0481  0.0534
66717W        W 9708  31.163  34.626  19.353  0.1672 -0.2868  0.1106
66718W        W 9709  29.854  26.669  16.645  0.0068 -0.3474 -0.1041
66719W        W 9710  11.629   7.994  16.540 -0.0913 -0.0240  0.0355
66720W        W 9711  13.497  25.777  19.528  0.2664 -0.1850  0.2742
66721W        W 9712  19.111  23.865  12.923 -0.0742  0.1938 -0.1094
66722W        W 9713  19.027   5.071  20.967 -0.4346  0.1697 -0.2862
66723W        W 9714   1.426  28.631  29.235 -0.1212 -0.1998  0.0086
66724W        W 9715   8.652   1.689   3.554 -0.0595 -0.0050 -0.2848
66725W        W 9716  12.295  26.096  25.817 -0.1225 -0.0359  0.1766
66726W        W 9717  12.765  27.704  17.532 -0.0057 -0.0960  0.0830
66727W        W 9718  16.220  29.019  26.077 -0.5499 -0.0543  0.1097
66728W        W 9719   6.721   9.330  26.021  0.0061  0.1837  0.1748
66729W        W 9720  21.866  21.333  18.734 -0.0385 -0.1320 -0.0356
66730W        W 9721  14.009   7.684  19.560 -0.0114  0.0659  0.0805
66731W        W 9722   5.082  31.063  21.732 -0.1197  0.0421  0.0248
66732W        W 9723  22.813   1.943  14.690  0.0600 -0.1251 -0.2792
66733W        W 9724  16.182   5.712  15.239  0.3366 -0.1244  0.0562
66734W        W 9725   3.480  30.771  21.941 -0.0624 -0.0501 -0.0921
66735W        W 9726   6.352  17.565  22.878 -0.0897 -0.2964  0.0142
66736W        W 9727   9.013   4.346  19.881  0.3352  0.0886  0.2165
66737W        W 9728  10.129   4.525  17.608  0.2296 -0.0689  0.1772
66738W        W 9729   5.917  32.116  19.811  0.0864 -0.2694  0.0587
66739W        W 9730  17.679   5.891  21.227  0.0048  0.3746 -0.2154
66740W        W 9731  33.158  26.432  19.446 -0.0043  0.1392 -0.1601
66741W        W 9732  18.347  15.479  27.626 -0.0947 -0.0725 -0.4802
66742W        W 9733  17.659  24.456  18.561  0.0528  0.2644 -0.0771
66743W        W 9734   8.057  22.003  23.839 -0.1205 -0.0411  0.2305
66744W        W 9735   6.434   4.984  24.883  0.3106  0.0712  0.0469
66745W        W 9736  17.667   3.621  25.732 -0.0287 -0.0081 -0.1708
66746W        W 9737   0.209  28.132  29.170 -0.0923  0.1407  0.1804
66747W        W 9738   1.694  21.219  21.436  0.1284  0.1681 -0.1700
66748W        W 9739  12.101  30.979  27.080  0.1607 -0.0968  0.1894
66749W        W 9740  11.103  27.078  16.090  0.1023 -0.1690 -0.1233
66750W        W 9741  26.996   3.267  20.301  0.0145  0.0354  0.1694
66751W        W 9742  20.788  29.737  20.081  0.0590 -0.0176 -0.1778
66752W        W 9743  17.783   3.515  15.258 -0.1116 -0.3008  0.1255
66753W        W 9744   4.318  27.071  18.600  0.2117  0.1976 -0.1017
66754W        W 9745  23.573   8.739  22.037  0.0649 -0.2198 -0.0321
66755W        W 9746  11.825  26.735  15.334  0.0893 -0.1656  0.0838
66756W        W 9747  11.851  20.542  14.665  0.0494  0.0549  0.1577
66757W        W 9748  22.011  26.366  16.070 -0.3760  0.0029 -0.0085
66758W        W 9749  15.176   6.937  19.707 -0.0223  0.0979 -0.2841
66759W        W 9750   6.891  30.513  17.937  0.0393 -0.2179 -0.3428
66760W        W 9751   9.580   6.136  23.537  0.1201  0.0041  0.1204
66761W        W 9752  14.069  22.422  21.996  0.0992 -0.0089  0.2355
66762W        W 9753  13.645   0.468  19.524  0.1483 -0.0238  0.2251
66763W        W 9754  24.436  34.780  16.703 -0.2463 -0.4802 -0.0429
66764W        W 9755   0.011  29.668  17.592 -0.0968  0.0511 -0.2044
66765W        W 9756  17.938  26.311  14.985 -0.0281 -0.0062  0.1952
66766W        W 9757   7.897   5.286   0.193 -0.2720  0.0178 -0.0783
66767W        W 9758  11.361   0.695   3.731  0.1595 -0.0184 -0.3052
66768W        W 9759  10.003  22.801  21.208  0.1574  0.1909  0.1352
66769W        W 9760  21.795  23.307  22.419  0.0221 -0.1857  0.1661
66770W        W 9761   3.241   0.589  21.545 -0.2662 -0.1206 -0.1745
66771W        W 9762   9.779   6.217  28.700  0.0876  0.0996 -0.1914
66772W        W 9763  33.412   1.039  20.064  0.4129  0.0520  0.3163
66773W        W 9764  22.191  25.807  17.713 -0.1312 -0.0700 -0.1145
66774W        W 9765   6.248  30.865  14.436  0.1293 -0.2917  0.1725
66775W        W 9766   7.913  21.548  14.021 -0.2176  0.0059  0.2299
66776W        W 9767   1.553  26.541  21.434  0.3566 -0.2204 -0.0820
66777W        W 9768  31.298  23.180  23.158  0.2436 -0.0275  0.0545
66778W        W 9769  20.313  29.019  18.272 -0.1623 -0.1961 -0.0730
66779W        W 9770  19.821   1.433   0.829 -0.0553 -0.0696  0.1727
66780W        W 9771  28.185   8.055  23.850 -0.2122 -0.2401  0.0626
66781W        W 9772  26.139  16.765  21.304 -0.1295  0.2076 -0.0019
66782W        W 9773  18.997  28.119  16.622  0.1110 -0.0558 -0.0892
66783W        W 9774  20.529   8.911  24.939 -0.1660 -0.4941  0.1698
66784W        W 9775  18.605  13.491  17.450 -0.3294  0.0808 -0.1374
66785W        W 9776  11.371   1.811  16.540 -0.2056  0.2518  0.1464
66786W        W 9777   9.978  20.294  16.834  0.1612 -0.0741 -0.3097
66787W        W 9778   4.444  24.903  14.960  0.1974  0.1983  0.0369
66788W        W 9779  17.511  33.556  28.090 -0.0527  0.2207  0.1400
66789W        W 9780  26.308  10.917   2.117  0.0649  0.0764  0.2451
66790W        W 9781  22.835  19.658  18.159  0.0907  0.3629  0.1458
66791W        W 9782   0.055   8.598  19.204  0.1377 -0.1230 -0.0593
66792W        W 9783  11.052   7.073   8.695  0.0851 -0.0550  0.0282
66793W        W 9784  16.054  28.730  18.643  0.0954 -0.1175 -0.1188
66794W        W 9785  17.055   3.506   0.843  0.1706  0.2833  0.0042
66795W        W 9786   8.938  11.959  18.800 -0.1490 -0.0323 -0.1433
66796W        W 9787  25.143  22.341  25.306  0.2435 -0.2418 -0.1233
66797W        W 9788   7.967   0.406   1.114  0.2427  0.0114 -0.2431
66798W        W 9789   4.809   9.420  17.818 -0.1643 -0.1097  0.0272
66799W        W 9790  31.454  32.045  16.312 -0.2672 -0.0617 -0.0193
66800W        W 9791   6.818  25.352  10.316 -0.3647  0.2822 -0.2566
66801W        W 9792  15.301  29.170   1.967  0.0254  0.0293 -0.2693
66802W        W 9793  32.606   2.083  14.398 -0.3242  0.1028 -0.4541
66803W        W 9794   1.287  13.128  18.039 -0.2539  0.2202 -0.3475
66804W        W 9795  28.781   6.220  24.588  0.0791  0.1028 -0.0628
66805W        W 9796  12.391  21.294  19.040  0.2679  0.0531  0.2455
66806W        W 9797  16.486   9.451  16.957 -0.0182 -0.2314 -0.0664
66807W        W 9798  21.700   9.840  22.689 -0.2729 -0.1162 -0.1428
66808W        W 9799   8.625  16.798  24.694 -0.0484  0.0124  0.0295
66809W        W 9800   9.482  33.717   0.357 -0.0783 -0.1036  0.1856
66810W        W 9801  19.195   6.402   2.307  0.1367 -0.1235  0.1080
66811W        W 9802  27.361  32.694  15.581  0.2133 -0.2041 -0.1334
66812W        W 9803   5.164   9.369  17.418  0.2045 -0.2111 -0.1079
66813W        W 9804  19.594   1.800  14.801 -0.1146 -0.0884 -0.2222
66814W        W 9805  16.017  10.581   2.753 -0.1443  0.3511 -0.2334
66815W        W 9806  11.715   4.713  16.591 -0.2798  0.1165 -0.2090
66816W        W 9807  21.154  18.478  26.111  0.3870 -0.1854  0.1572
66817W        W 9808   9.675   6.814  18.495  0.1588 -0.0783  0.2914
66818W        W 9809  12.487  13.799  18.983 -0.0905  0.0898 -0.1700
66819W        W 9810  27.007  33.936  17.122 -0.4112  0.3273  0.1542
66820W        W 9811   9.951  31.509   0.905 -0.1485  0.3055  0.0525
66821W        W 9812  17.492  23.706  19.361 -0.0323 -0.2004 -0.0573
66822W        W 9813   5.599  33.583  18.876 -0.1110 -0.1040 -0.2625
66823W        W 9814  22.575  32.056  23.333 -0.1443  0.2166  0.2306
66824W        W 9815  24.113  33.073  19.704  0.1962 -0.0841 -0.0708
66825W        W 9816  17.229   4.313   3.906 -0.2012 -0.0982  0.0357
66826W        W 9817  28.252  15.184  27.483  0.0241 -0.0378  0.2130
66827W        W 9818  21.168  32.549  13.272 -0.0483 -0.2454  0.1811
66828W        W 9819  32.623   2.355  17.798  0.2258 -0.0161 -0.1970
66829W        W 9820  19.467  27.344  15.474  0.0733 -0.0094 -0.0590
66830W        W 9821  27.390   9.036  22.445  0.1557 -0.0769 -0.0113
66831W        W 9822   9.254  10.563  17.553  0.0310  0.0075 -0.1070
66832W        W 9823  25.001   1.451   3.748 -0.0565  0.0314 -0.0747
66833W        W 9824  11.377  29.515  19.739  0.2133  0.2079  0.1435
66834W        W 9825  12.259  34.578  25.173  0.0158 -0.1581  0.1516
66835W        W 9826   8.609   1.868  22.853 -0.0769 -0.2212 -0.2707
66836W        W 9827  30.565   8.857   5.552 -0.1386 -0.3279 -0.0894
66837W        W 9828  18.953   2.738  27.789 -0.0724 -0.4369  0.2251
66838W        W 9829   5.684   4.214  18.003 -0.0058 -0.1448  0.0133
66839W        W 9830  14.211  27.442  19.067 -0.1615 -0.4639 -0.0725
66840W        W 9831  26.874  12.390  20.190 -0.1318 -0.0444  0.0120
66841W        W 9832   7.145   4.203  22.623  0.1355 -0.2138 -0.1415
66842W        W 9833  12.672  26.356   9.660  0.1632  0.2721  0.1974
66843W        W 9834   9.972   5.317  23.014  0.2231 -0.1939  0.3294
66844W        W 9835  24.745  26.798   5.216  0.1984  0.1483  0.0044
66845W        W 9836  14.822  31.875  23.690  0.1738  0.3418 -0.0503
66846W        W 9837   7.434  32.995  28.331 -0.1743  0.3718  0.1575
66847W        W 9838  20.192  32.268  23.113 -0.1092 -0.0102  0.1813
66848W        W 9839  15.265  27.858  25.128 -0.2115 -0.0991 -0.0287
66849W        W 9840  33.816   6.034  25.333  0.1594 -0.1045  0.0125
66850W        W 9841  10.511  33.047  16.018  0.2468  0.2587 -0.1762
66851W        W 9842  21.511   0.202  15.978 -0.1064  0.0306  0.1556
66852W        W 9843  21.554  19.338  28.511 -0.0636 -0.1834  0.1283
66853W        W 9844  18.620  29.113  18.603  0.1334 -0.1502 -0.0654
66854W        W 9845  21.592  14.464   2.223 -0.4313 -0.0392  0.6770
66855W        W 9846  29.762   6.811  19.557 -0.1827 -0.0429  0.0541
66856W        W 9847  14.145   8.569  22.922 -0.0845 -0.1380  0.0628
66857W        W 9848  10.817   8.742  18.758  0.1454  0.1327 -0.3147
66858W        W 9849  20.421  30.095  25.178  0.0152 -0.1353 -0.3339
66859W        W 9850  27.640  20.994  22.411 -0.3497 -0.1387  0.0273
66860W        W 9851   6.128  34.355   4.212 -0.1516  0.1467  0.2218
66861W        W 9852  19.090  30.027  15.206 -0.1583  0.0952  0.1488
66862W        W 9853  19.182  25.585  13.710 -0.1954 -0.2316 -0.0368
66863W        W 9854   9.165  28.116  17.771  0.0518  0.2410  0.3853
66864W        W 9855  25.671   0.450  15.600 -0.0837 -0.1004  0.1726
66865W        W 9856  11.746  10.711  27.125  0.3149  0.0921 -0.0215
66866W        W 9857  12.019  11.310   0.142 -0.4093 -0.2289 -0.0089
66867W        W 9858  14.496  32.823  14.800 -0.0635 -0.2859  0.1098
66868W        W 9859  12.513  27.464   0.475 -0.0108  0.1307 -0.0084
66869W        W 9860  32.505  27.349  14.838 -0.1261  0.3694 -0.0299
66870W        W 9861   2.199   2.249  15.205  0.0318  0.2096  0.2796
66871W        W 9862  15.471  28.018  22.682  0.0821 -0.1991  0.2555
66872W        W 9863  20.318  12.627  25.124  0.0714  0.1306 -0.0195
66873W        W 9864  13.568  28.272  20.972 -0.0581 -0.1138 -0.0143
66874W        W 9865  33.646   6.158  15.550  0.0580 -0.1797  0.0985
66875W        W 9866  16.413  28.372   8.453 -0.1468  0.1867  0.1004
66876W        W 9867  10.818   3.817  15.260  0.0370  0.1021  0.1379
66877W        W 9868  17.575  23.075  24.399  0.1070  0.2960 -0.1677
66878W        W 9869  11.593  31.510  23.614 -0.0334 -0.0982  0.1001
66879W        W 9870  16.200  16.208  28.571  0.1505  0.0419 -0.0722
66880W        W 9871  10.208   3.590  21.299  0.2097  0.0510  0.1171
66881W        W 9872  22.921   2.903  18.998  0.0100  0.2398  0.1336
66882W        W 9873  32.586  10.879  17.134  0.0832  0.2278 -0.0173
66883W        W 9874  18.770  26.879  25.023  0.0060 -0.3037  0.0239
66884W        W 9875  20.465  31.518  22.252  0.0065 -0.1015  0.2798
66885W        W 9876   3.936   5.141   3.008 -0.0427 -0.0203 -0.3081
66886W        W 9877  13.820  22.946  14.986  0.0119  0.0711 -0.1272
66887W        W 9878  18.166   7.425  21.349 -0.1164 -0.0532 -0.0121
66888W        W 9879  17.250  11.255  16.259  0.0669  0.1170  0.2035
66889W        W 9880  15.019   3.130   2.314 -0.2074  0.0463 -0.0331
66890W        W 9881   2.770   3.818  25.666  0.3485 -0.0737  0.0177
66891W        W 9882  18.914  14.957  28.123  0.2049  0.2523 -0.1517
66892W        W 9883  17.317  20.729  16.815  0.2211 -0.0852 -0.1428
66893W        W 9884  16.821  24.103  18.177  0.1838 -0.0897 -0.1492
66894W        W 9885   6.368   3.508  19.652  0.2289  0.1776  0.2038
66895W        W 9886  25.133   0.094  15.681  0.0808  0.2101 -0.2126
66896W        W 9887  27.286   5.372  14.519  0.0918 -0.1357  0.1728
66897W        W 9888  23.184  31.875  24.485 -0.2415 -0.5130 -0.2719
66898W        W 9889  14.366  31.585  20.528  0.1144 -0.3746  0.0798
66899W        W 9890   2.544   7.055  21.321 -0.0228 -0.1376 -0.1456
66900W        W 9891  13.965   5.469   9.711 -0.2160 -0.3273  0.0302
66901W        W 9892  19.671  29.127   0.020  0.0746 -0.2114 -0.2246
66902W        W 9893  19.624   8.712  23.954  0.0670 -0.1466 -0.0539
66903W        W 9894  15.273  32.864   7.512  0.1385 -0.0554 -0.1594
66904W        W 9895  29.414   0.867  26.390  0.1326 -0.0780  0.2802
66905W        W 9896  16.022  31.737   3.537 -0.1029  0.0766 -0.3915
66906W        W 9897   5.235   5.137  19.235 -0.2031 -0.5041 -0.0143
66907W        W 9898   5.765   0.077  22.049 -0.0510 -0.0252 -0.1382
66908W        W 9899  20.956  29.722  16.441  0.2280 -0.2437  0.1165
66909W        W 9900   0.529   4.059  21.383 -0.0405 -0.0041 -0.1755
66910W        W 9901  13.515   1.154  20.885 -0.0326  0.0187  0.2244
66911W        W 9902  18.786  14.391  25.395 -0.0163  0.3244 -0.0130
66912W        W 9903  11.580  23.836  21.292 -0.2173  0.1398 -0.0633
66913W        W 9904   3.630  30.432  25.256 -0.0729  0.2834 -0.1981
66914W        W 9905  25.194  27.871  22.981  0.2533  0.0596 -0.0899
66915W        W 9906  23.033   5.833  13.262  0.1957  0.1480 -0.0721
66916W        W 9907  26.651   0.341  18.545  0.1409 -0.0921 -0.1563
66917W        W 9908  13.285   5.548  22.679  0.2726  0.4372 -0.0560
66918W        W 9909   5.717  16.600  20.710  0.0287 -0.0854 -0.0426
66919W        W 9910  25.808   2.593  18.768 -0.2503  0.2418  0.4590
66920W        W 9911  17.660  24.798  25.352 -0.2726  0.0391 -0.1460
66921W        W 9912  25.981   0.876  15.627  0.0978  0.2527  0.0491
66922W        W 9913   0.581  21.182  24.105 -0.2461 -0.2667  0.3635
66923W        W 9914  30.165   4.300  14.478 -0.0768  0.1346  0.0537
66924W        W 9915  18.334  30.877  23.084 -0.2134 -0.3498  0.0262
66925W        W 9916  11.225  11.060  26.057 -0.3553 -0.0008 -0.2578
66926W        W 9917   9.063  24.965  21.547  0.2909 -0.3207  0.0726
66927W        W 9918  31.224  28.015  15.945 -0.2800  0.0388  0.1843
66928W        W 9919  16.652  13.695  14.266  0.1278 -0.1276 -0.3537
66929W        W 9920   7.559   4.087  21.340  0.1434  0.3955 -0.1716
66930W        W 9921   7.559   6.751  19.758 -0.1686 -0.1484  0.0361
66931W        W 9922   1.279   2.745  16.303  0.1206 -0.0252  0.0730
66932W        W 9923  22.382  25.074  13.839 -0.4015 -0.2559  0.4133
66933W        W 9924  22.210  28.533   0.947  0.1110 -0.1585  0.1621
66934W        W 9925  28.383  23.953   8.910 -0.1251  0.1874  0.1785
66935W        W 9926   0.696  31.002  18.915  0.1552  0.1529 -0.2630
66936W        W 9927  27.613  28.117  27.231 -0.0100  0.1707 -0.1323
66937W        W 9928  28.736  33.286  23.623 -0.3069 -0.2007 -0.1123
66938W        W 9929  11.596  20.172  19.682  0.1922 -0.1570  0.1053
66939W        W 9930  15.045  20.707  18.072  0.2394  0.0806  0.2861
66940W        W 9931  16.877   0.815  19.292 -0.1881 -0.1172 -0.1873
66941W        W 9932  22.580   4.746  18.731  0.0447  0.0880  0.0169
66942W        W 9933  25.627   2.866  18.068 -0.0689 -0.0444  0.0411
66943W        W 9934   9.474  34.132  17.124  0.0101 -0.3564 -0.0288
66944W        W 9935  22.478  19.855  20.738 -0.0865 -0.2592  0.0551
66945W        W 9936  17.271  31.454  22.975 -0.0805 -0.4304  0.0279
66946W        W 9937  25.323   0.617  25.105 -0.0118 -0.0203 -0.0632
66947W        W 9938  17.245  34.761  19.095  0.1058 -0.1845  0.1385
66948W        W 9939  16.176  10.641   3.697 -0.0854  0.0683 -0.1014
66949W        W 9940  11.136   2.798  29.221 -0.3684  0.1266 -0.1316
66950W        W 9941  12.822  33.095  19.595 -0.1145 -0.0690 -0.0582
66951W        W 9942   5.526  21.265   4.185 -0.0737  0.1348 -0.1566
66952W        W 9943   5.168   7.583  16.119  0.0580 -0.3284  0.0193
66953W        W 9944  28.168  24.167  23.968 -0.1803  0.1390  0.1108
66954W        W 9945  14.470  20.093  19.869 -0.2036  0.4392 -0.4976
66955W        W 9946  26.841   7.401  15.905  0.3750  0.2160  0.0732
66956W        W 9947  18.661  31.019  15.212  0.0177  0.4064  0.1267
66957W        W 9948  29.766  22.963   7.494 -0.1392 -0.0635 -0.0813
66958W        W 9949   3.266  30.392  26.928  0.1435 -0.2400  0.0907
66959W        W 9950  12.058   4.651  20.061 -0.0954  0.1868 -0.1881
66960W        W 9951   6.298  20.143   3.717  0.1040  0.1496 -0.1503
66961W        W 9952   9.413  29.290  16.809  0.0004  0.1474 -0.4878
66962W        W 9953  24.412  31.497   6.684  0.4014 -0.0610  0.1572
66963W        W 9954   5.813  31.727  13.849 -0.0154 -0.1818  0.0189
66964W        W 9955  14.517   3.495   7.514  0.0231  0.1790 -0.3331
66965W        W 9956  31.189  19.224  25.480 -0.4104 -0.1774  0.0708
66966W        W 9957  18.017  29.594  17.298 -0.0732  0.1193  0.0329
66967W        W 9958   4.543   6.537  18.874 -0.0650  0.3167 -0.0766
66968W        W 9959   6.768  30.318  25.948 -0.2113  0.1893 -0.0295
66969W        W 9960  26.534  32.154  12.984 -0.1165 -0.0334 -0.2583
66970W        W 9961  17.761   1.443  16.969 -0.0327  0.0202 -0.0856
66971W        W 9962  34.316  22.767  14.430 -0.0565 -0.0666  0.2499
66972W        W 9963  15.433   0.806   3.628  0.1412 -0.1254 -0.3396
66973W        W 9964  11.352   1.200  25.623  0.2359  0.0855 -0.2917
66974W        W 9965   8.795  33.656   4.744  0.1695 -0.1497  0.0483
66975W        W 9966  21.572   1.209   0.873  0.1473 -0.3621 -0.0178
66976W        W 9967   2.749  25.540  16.218 -0.0522 -0.0258 -0.0403
66977W        W 9968   7.636  18.310  19.262 -0.1900  0.1759 -0.3069
66978W        W 9969   6.509  27.289  14.181 -0.1399  0.0953  0.3190
66979W        W 9970  13.379  30.961  15.722 -0.0879  0.0067 -0.0624
66980W        W 9971  18.013   7.709  20.554 -0.1055  0.1004 -0.2546
66981W        W 9972   8.899  25.565  25.270  0.2396 -0.0066  0.1975
66982W        W 9973  32.980   3.916  14.887  0.4210 -0.0947 -0.1661
66983W        W 9974   7.429  31.780  14.134  0.0315 -0.0789  0.0380
66984W        W 9975  21.824  24.823  27.168 -0.0090 -0.1422 -0.3509
66985W        W 9976  23.053   3.241  19.432 -0.0888 -0.0876  0.3642
66986W        W 9977  10.920  33.815   0.643 -0.1814 -0.1579 -0.2561
66987W        W 9978  15.519  27.886   1.904 -0.0673 -0.0944  0.0880
66988W        W 9979   8.030  33.921  19.599  0.0841  0.5899 -0.2414
66989W        W 9980  14.048   0.280  20.214 -0.1327  0.2308 -0.2353
66990W        W 9981  19.022  27.917   3.319  0.0093 -0.0498  0.2421
66991W        W 9982  27.438   0.762  21.605 -0.2888 -0.1039  0.0470
66992W        W 9983   8.394   2.325  17.803 -0.1296 -0.3869  0.1247
66993W        W 9984   1.943  34.310  19.209 -0.4282 -0.0778  0.0800
66994W        W 9985   4.449  20.226  17.146  0.0504  0.0915  0.2537
66995W        W 9986   2.381   3.606  23.029  0.1194  0.1515  0.1595
66996W        W 9987  13.979   1.560  16.334 -0.2400  0.4222 -0.0908
66997W        W 9988  16.202   3.782  21.839 -0.4642  0.0565  0.1108
66998W        W 9989  33.420   7.206   6.255  0.1989 -0.0788 -0.1863
66999W        W 9990  17.259  12.967   7.176  0.2076  0.0658 -0.1882
67000W        W 9991  11.921  14.334  28.269  0.0274 -0.0184 -0.1356
67001W        W 9992   8.185  17.473  15.719 -0.0686  0.1245  0.1107
67002W        W 9993  30.275   3.891  15.705  0.0034  0.0499 -0.4204
67003W        W 9994   9.710  26.491  16.451 -0.2426 -0.1155  0.0041
67004W        W 9995   6.133  23.709  23.711  0.0955  0.3187 -0.0985
67005W        W 9996  20.689  20.950  18.159 -0.3096  0.0734 -0.3515
67006W        W 9997  18.046  22.159   1.672 -0.1945 -0.0586  0.0574
67007W        W 9998  16.479   2.928  28.114  0.2186  0.1975  0.0382
67008W        W 9999  21.825   3.198   3.218 -0.0997 -0.0870  0.0400
67009W        W10000  19.761  33.845  14.095  0.3800 -0.0432  0.3714
67010W        W10001  25.499  28.892  18.277  0.2467 -0.4274 -0.1080
67011W        W10002  15.797  24.625  20.601  0.1630 -0.1276 -0.0107
67012W        W10003  10.281  25.164  17.141 -0.1343  0.1079  0.1890
67013W        W10004  19.538   7.865  19.489  0.1093  0.3676 -0.1677
67014W        W10005   5.313  20.210  20.803  0.1518  0.0827 -0.0919
67015W        W10006  23.564   6.553  14.770  0.0865 -0.2374  0.0588
67016W        W10007  17.407   5.360  17.071 -0.1336  0.0450  0.0903
67017W        W10008  31.451  33.647  14.496  0.1305  0.0136  0.0794
67018W        W10009   4.762  27.239  18.960  0.0109  0.4110  0.3304
67019W        W10010   1.049  10.416  23.289  0.0287  0.2441  0.0245
67020W        W10011  10.338  28.657   3.272  0.1385 -0.0695  0.2972
67021W        W10012  11.481  31.153  17.485  0.2058 -0.2751  0.1951
67022W        W10013  10.994  31.404  17.596  0.1919  0.2030 -0.0789
67023W        W10014  23.848  33.737  20.418 -0.0281  0.1421  0.0059
67024W        W10015  28.360  33.348  16.878 -0.2676  0.4586 -0.0565
67025W        W10016  10.808  28.500  19.215  0.2214 -0.1179 -0.2935
67026W        W10017   2.581  22.645  24.083  0.1949 -0.1555 -0.0291
67027W        W10018   7.062  17.239  23.692  0.2488  0.0652 -0.2098
67028W        W10019  25.463   3.666  25.327 -0.2084  0.0320  0.0860
67029W        W10020  29.567  12.678   9.108 -0.2719 -0.1813 -0.4153
67030W        W10021  16.679  13.815  20.253  0.3554 -0.3190  0.0146
67031W        W10022  19.048  30.422  17.692  0.0578 -0.0046 -0.0156
67032W        W10023  12.874   1.291  21.037 -0.2121 -0.1227 -0.0348
67033W        W10024  26.145  26.426   5.494 -0.0286 -0.0752  0.2753
67034W        W10025  21.448  14.083  17.323 -0.0059 -0.1656 -0.3311
67035W        W10026  26.937  28.052  21.164  0.0812 -0.1219 -0.1161
67036W        W10027  17.816   2.977   5.925  0.1162  0.2672 -0.2696
67037W        W10028   7.499  17.598   3.894  0.2846  0.4213  0.0724
67038W        W10029  21.256   2.405  13.799  0.0902 -0.1624 -0.1353
67039W        W10030  31.005   4.285   0.850  0.2149  0.0314 -0.0456
67040W        W10031  11.128  31.634  16.314 -0.0885  0.1595  0.2491
67041W        W10032  18.461   4.920  27.752  0.2579  0.1269  0.0597
67042W        W10033   6.183  33.961  28.349  0.4157 -0.3708 -0.0736
67043W        W10034  17.508  23.933  27.830  0.0724 -0.0987 -0.2171
67044W        W10035  15.756   2.776  20.383 -0.2210 -0.1887  0.0769
67045W        W10036  22.545   6.161  22.310 -0.2571 -0.0531  0.0696
67046W        W10037  17.928   3.130   3.858  0.2243 -0.0563 -0.0139
67047W        W10038   1.912  32.775  19.615 -0.2090 -0.1448  0.2660
67048W        W10039  15.416  33.506   6.951 -0.0030 -0.2527  0.0331
67049W        W10040  17.755  29.293  19.934 -0.2300 -0.0669 -0.0485
67050W        W10041  16.909   3.158   4.319 -0.3026 -0.3250 -0.3297
67051W        W10042   2.001  27.181  24.249  0.1494 -0.0752 -0.0847
67052W        W10043  10.842   4.494  16.446  0.1930 -0.0322  0.2192
67053W        W10044  19.296  28.695  18.131 -0.0411  0.0691 -0.1731
67054W        W10045  21.447   4.151   9.085  0.1292 -0.2376 -0.0205
67055W        W10046   9.496  24.478  27.921  0.2649  0.3173  0.1300
67056W        W10047  33.591   4.424  26.264  0.2021  0.0018  0.1108
67057W        W10048  13.502   4.087  15.299 -0.1238  0.2509 -0.0063
67058W        W10049  31.636   1.949  14.579  0.0691 -0.2580  0.0091
67059W        W10050  22.648   6.681   4.975  0.1887 -0.0352 -0.0064
67060W        W10051  13.792  21.689  19.720  0.1198  0.0329  0.3263
67061W        W10052  20.991  34.056   0.810  0.0540 -0.0745 -0.4851
67062W        W10053   6.901  22.646  16.685  0.0320 -0.0994 -0.0808
67063W        W10054  25.912   3.549  26.359  0.0415 -0.1122 -0.0795
67064W        W10055  16.746   5.591   0.741 -0.0831 -0.1906 -0.1592
67065W        W10056  13.690   4.915  26.381 -0.3256  0.0059 -0.1615
67066W        W10057  10.039   1.851  22.984  0.0369 -0.0033 -0.0956
67067W        W10058   6.934  11.458  19.386  0.0951 -0.1763  0.1719
67068W        W10059  16.303   8.809   0.471  0.1655 -0.0200  0.0825
67069W        W10060  16.857  30.838   2.936  0.1152 -0.0993 -0.0769
67070W        W10061  23.780  23.033  26.119 -0.0633 -0.1265 -0.0459
67071W        W10062  20.602   1.503  17.022  0.0585 -0.1514  0.1476
67072W        W10063   6.918  33.058  21.920 -0.3778 -0.3466  0.1087
67073W        W10064  24.813  12.150  23.934 -0.0875 -0.1604  0.5977
67074W        W10065  19.661  30.321  18.193  0.2563 -0.1959 -0.1164
67075W        W10066  17.288  27.135  27.519 -0.0870  0.1571 -0.1109
67076W        W10067  11.464  11.498   8.018  0.0249  0.1068  0.1119
67077W        W10068   1.920  23.063  27.589 -0.0721  0.2370 -0.0836
67078W        W10069  19.057  31.733  28.064  0.1600  0.3501  0.1206
67079W        W10070  16.153  19.986  22.773 -0.1036  0.0185 -0.2833
67080W        W10071  16.016  25.128  16.953 -0.3441 -0.0563 -0.1167
67081W        W10072  10.019  18.314  18.806  0.0391 -0.1856 -0.0954
67082W        W10073  11.767   0.139  26.892  0.3310 -0.4102 -0.3154
67083W        W10074  14.536  29.062  15.534  0.0516  0.0038 -0.0110
67084W        W10075   9.427  34.702  28.586  0.1444  0.1733  0.2111
67085W        W10076   3.146  27.717  25.215  0.2506 -0.2881 -0.0554
67086W        W10077   3.363   1.782  15.180  0.1655 -0.2335  0.5114
67087W        W10078   1.304  18.592  20.089  0.1237  0.4398 -0.1296
67088W        W10079   1.774   7.648  21.832  0.0829 -0.3949  0.3615
67089W        W10080  16.439  25.638  23.895  0.1890 -0.0847 -0.0386
67090W        W10081   8.686  23.949  14.009 -0.2973 -0.0884 -0.0749
67091W        W10082  28.034   9.164  25.383 -0.1188  0.1555 -0.3238
67092W        W10083  33.947  28.787  16.713  0.1899 -0.3879  0.0825
67093W        W10084  20.368  28.668  16.593  0.1810  0.0312 -0.3450
67094W        W10085  18.764   3.996   9.899 -0.2368  0.0047  0.0710
67095W        W10086  15.473  27.350   8.837  0.1895 -0.0306 -0.1397
67096W        W10087  23.088   4.664  24.577  0.1001 -0.2018 -0.1574
67097W        W10088  12.373   3.171  27.621  0.0347 -0.0246 -0.0727
67098W        W10089  12.786   3.365  27.918 -0.0484  0.1138  0.1398
67099W        W10090  12.698  34.714  22.917 -0.2058 -0.0108  0.4127
67100W        W10091  20.729  25.843  28.770 -0.1336  0.0184 -0.1356
67101W        W10092   2.651  34.293  24.878 -0.0438  0.2504 -0.0253
67102W        W10093   9.788   0.364   9.806 -0.1039 -0.0094  0.0212
67103W        W10094  13.213  22.280  18.811 -0.1850 -0.1376 -0.0826
67104W        W10095  12.394   8.657  18.170  0.0881  0.0487 -0.3740
67105W        W10096  31.604   1.688   4.910  0.0819 -0.0471  0.3299
67106W        W10097  24.387   0.713  17.641 -0.2586  0.2508 -0.2489
67107W        W10098  13.299   1.156  17.798 -0.0798  0.2268 -0.3213
67108W        W10099   6.731  33.650  21.543 -0.2329  0.0034 -0.0358
67109W        W10100  13.842  18.997  26.406  0.0502  0.0325 -0.0070
67110W        W10101   6.437   0.635  20.304 -0.0990 -0.1990 -0.1008
67111W        W10102  33.388  11.925   6.056 -0.1260  0.3968  0.1572
67112W        W10103  12.690  20.400  24.935  0.1441 -0.0056  0.0934
67113W        W10104  26.882  31.690  16.786  0.0024  0.4132 -0.3338
67114W        W10105   3.560  22.137  28.510 -0.0166  0.0455 -0.4797
67115W        W10106  25.385  28.539  21.782  0.1336 -0.1877  0.1526
67116W        W10107  17.257  29.173  16.582 -0.1598  0.0481  0.2634
67117W        W10108   7.055  33.442  18.033  0.0466  0.3562 -0.0992
67118W        W10109  14.633  24.876  19.580  0.1207 -0.2935 -0.0329
67119W        W10110  33.037  32.888   1.473  0.2717  0.2530 -0.1170
67120W        W10111   6.503  23.890  26.799 -0.0010  0.0430  0.0251
67121W        W10112  16.298  27.729  23.509  0.1193 -0.1641 -0.2575
67122W        W10113  11.573   1.638  15.781  0.0441 -0.0948  0.1317
67123W        W10114   8.668  10.112  19.281 -0.0818  0.2118 -0.0286
67124W        W10115  17.442   9.646   0.710  0.1687 -0.1322 -0.4218
67125W        W10116   9.650   8.770  24.690  0.1228  0.2136  0.1249
67126W        W10117  33.492  28.529  14.574  0.0102  0.0036 -0.1371
67127W        W10118   7.429  29.995  25.181  0.0563  0.0104 -0.0239
67128W        W10119  17.334   8.845   4.693  0.0979  0.2209  0.0973
67129W        W10120  25.743  31.639  14.776 -0.3445 -0.0074  0.0796
67130W        W10121  15.245  28.884  18.466 -0.0269  0.0783 -0.0545
67131W        W10122  21.426   5.979  23.120  0.2712  0.2687 -0.5175
67132W        W10123   4.684  34.179  28.019  0.2327 -0.0754  0.1129
67133W        W10124  30.359   1.545  19.527  0.4383  0.0268  0.1502
67134W        W10125  13.841  32.222  18.178  0.0546  0.4541  0.1405
67135W        W10126  23.092   5.524  22.004 -0.0865  0.1282  0.2503
67136W        W10127  12.189   1.225  16.021  0.0559  0.2199 -0.1324
67137W        W10128  24.029  11.738   1.788 -0.0078 -0.2084  0.0689
67138W        W10129  14.506  18.395  24.438  0.1419 -0.2703  0.0789
67139W        W10130  16.733  33.712  23.311  0.0847  0.3848  0.2713
67140W        W10131   0.564  10.588   1.496  0.2373  0.0313  0.1199
67141W        W10132  11.505  34.567   1.466 -0.0702  0.0362 -0.1422
67142W        W10133  30.288   3.212  15.537  0.4239  0.1682 -0.0598
67143W        W10134  11.295  21.277   2.255  0.0330  0.0640  0.1734
67144W        W10135  16.223   5.214   4.327  0.0309  0.2623 -0.0735
67145W        W10136   2.843  22.701  24.550 -0.0591 -0.2218 -0.0316
67146W        W10137  26.661  31.589  21.344 -0.3401  0.2208  0.0408
67147W        W10138  14.007   3.268   7.590  0.1928 -0.0752 -0.0130
67148W        W10139  23.146  28.215  13.904  0.1604 -0.0938  0.0514
67149W        W10140  20.684  23.912  24.925 -0.0333 -0.0048  0.0294
67150W        W10141   9.938  29.340   1.040 -0.0883 -0.3496  0.1028
67151W        W10142  33.031  26.267  16.454  0.3631 -0.4942 -0.1919
67152W        W10143  11.293  26.952  16.597  0.2812  0.0249 -0.2068
67153W        W10144   7.386  21.012  21.309  0.3665 -0.1243 -0.2004
67154W        W10145   2.747  12.573  24.221 -0.1114  0.0824 -0.0221
67155W        W10146  10.090   4.215  18.493 -0.1003 -0.1602 -0.1564
67156W        W10147   4.782   6.119  19.754  0.1442  0.2292 -0.1948
67157W        W10148  12.318  33.612  26.294 -0.0385  0.2218 -0.0384
67158W        W10149  14.238  19.165  22.682 -0.1525 -0.2126 -0.1150
67159W        W10150  30.107  25.438  20.930 -0.1362  0.1389  0.2039
67160W        W10151   2.460   1.046  25.636  0.0283  0.1922 -0.0937
67161W        W10152  29.729   4.437  24.824  0.2279  0.1798 -0.1348
67162W        W10153  33.258  28.799  19.655  0.0368 -0.1938  0.1291
67163W        W10154  11.610  32.093  22.816 -0.1238  0.1258  0.3216
67164W        W10155  26.152  23.203  14.684 -0.1483 -0.0089  0.0142
67165W        W10156  14.151   5.147  18.495 -0.1739  0.0282 -0.0076
67166W        W10157  23.395  34.607  21.344 -0.2110 -0.3249  0.0091
67167W        W10158  33.916  33.133  13.697  0.2228  0.0731  0.1325
67168W        W10159   8.408   7.683  22.684 -0.2722 -0.2227  0.0232
67169W        W10160  16.824   6.522  18.689 -0.4252  0.0018  0.0330
67170W        W10161   6.023   3.136  23.281  0.0755  0.0099 -0.0439
67171W        W10162  33.758  33.574   1.867 -0.0038 -0.4442  0.2101
67172W        W10163  17.517  31.135  24.951  0.2592  0.2396 -0.1857
67173W        W10164  12.856  22.816  15.374  0.0864  0.2479 -0.1200
67174W        W10165   6.776   1.045   6.161  0.1191 -0.1868 -0.0019
67175W        W10166   7.456  24.100   8.059 -0.0095 -0.1342  0.0817
67176W        W10167  28.137  21.175  14.643  0.0986  0.1970  0.0269
67177W        W10168  24.529   6.436  14.679 -0.2167 -0.0982  0.0358
67178W        W10169   7.859  24.584   0.239  0.1780  0.3410  0.4325
67179W        W10170  15.905  13.433   4.357 -0.0324  0.0315  0.0753
67180W        W10171  13.637   4.822  23.940  0.2497  0.0668 -0.0274
67181W        W10172   7.915  34.348  27.863  0.0454  0.4798  0.0764
67182W        W10173  15.255   8.017   0.160 -0.0790  0.1091  0.1323
67183W        W10174  19.806  20.043  15.741  0.0490  0.0185 -0.0519
67184W        W10175   6.816  32.920  20.495 -0.1388 -0.1300  0.1120
67185W        W10176  18.762  28.228  20.684  0.1521 -0.0042 -0.1241
67186W        W10177  21.395  19.219  27.379 -0.1746 -0.2906  0.1309
67187W        W10178  13.849   7.466  17.777  0.0817 -0.1226 -0.4428
67188W        W10179  19.409  23.200  23.728  0.2815 -0.1435 -0.1206
67189W        W10180   2.119  26.305  25.822 -0.1025 -0.2146 -0.1625
67190W        W10181  33.434  14.669  19.494 -0.0907  0.0073 -0.0623
67191W        W10182   2.951  32.953  22.660 -0.1988 -0.3412 -0.2186
67192W        W10183   9.466  26.397  10.071  0.1264  0.4033  0.0093
67193W        W10184   9.712  24.909   6.951  0.0965 -0.1814  0.0877
67194W        W10185  22.149   2.563  19.593  0.0370  0.0324 -0.2738
67195W        W10186  21.195  31.805   5.988  0.0227  0.0504 -0.2174
67196W        W10187  12.644  31.406   8.114 -0.0507 -0.0141 -0.2250
67197W        W10188  15.284  11.937  27.937 -0.4032 -0.2037  0.1993
67198W        W10189  19.146  29.146   3.834  0.0299  0.0893  0.2217
67199W        W10190  27.756  26.996  16.340 -0.1033  0.0677 -0.1742
67200W        W10191  10.182  32.984   9.642  0.1400  0.2306  0.0447
67201W        W10192  14.403   0.677   2.908  0.3456  0.2716 -0.2593
67202W        W10193  15.035  23.505  14.269  0.2680  0.1678  0.0082
67203W        W10194   5.680  28.978  17.551  0.0017  0.2110 -0.1431
67204W        W10195   8.126  17.742  17.837  0.0305  0.0308 -0.3718
67205W        W10196  30.827   7.318  20.515  0.1998 -0.0782 -0.1776
67206W        W10197   0.749   3.291  22.007  0.1027  0.1427  0.3376
67207W        W10198  29.962  13.462  16.117  0.2418  0.1824 -0.1686
67208W        W10199   8.068   7.163  27.948  0.0291 -0.1193  0.1608
67209W        W10200   0.406  13.856  24.104  0.2713 -0.1194  0.0474
67210W        W10201   8.074  28.699  25.786  0.0611 -0.1826 -0.5604
67211W        W10202  20.604  25.451  26.187 -0.2812 -0.3077 -0.0028
67212W        W10203  27.872  11.616  28.544  0.5267 -0.0027  0.1840
67213W        W10204   0.656  23.574  26.982 -0.0754  0.1877  0.1785
67214W        W10205  27.684   7.612  26.170  0.0021 -0.1529 -0.0120
67215W        W10206  11.580  19.763   7.091  0.0379  0.0188 -0.0554
67216W        W10207  23.002  18.423  25.720  0.1732 -0.5123 -0.1014
67217W        W10208   5.086   2.502  28.741  0.1949  0.0553 -0.3293
67218W        W10209   0.418  12.240  25.279  0.1204 -0.0215  0.2192
67219W        W10210   7.962  20.065   0.135  0.0231  0.4680  0.4937
67220W        W10211  14.650  17.723   1.038 -0.1167  0.1011  0.3229
67221W        W10212  31.495  20.916   1.669  0.1301 -0.1270 -0.1056
67222W        W10213  27.672   4.641  13.982  0.0290  0.0141 -0.1806
67223W        W10214  25.089  10.872  22.837  0.1686 -0.0164  0.0164
67224W        W10215   4.418  16.596  27.319 -0.2406 -0.3502 -0.0701
67225W        W10216  19.075   1.513   3.785 -0.0738  0.0093 -0.3044
67226W        W10217   0.322  28.829  25.159  0.0805 -0.2471 -0.0854
67227W        W10218  12.009  26.450   5.047 -0.0003  0.2425  0.0994
67228W        W10219  11.533   6.734   9.723 -0.0884 -0.0203  0.2377
67229W        W10220  12.077  30.892   7.904 -0.1475  0.0672  0.0557
67230W        W10221  14.238  29.744   6.452 -0.0357  0.0390 -0.0113
67231W        W10222  23.195  33.608  14.780  0.1093  0.3369  0.2553
67232W        W10223   3.467  34.173   6.050  0.0518  0.0256  0.1546
67233W        W10224   1.694  27.418  27.514  0.0249  0.2355 -0.0862
67234W        W10225  21.755   1.850  28.214 -0.1892  0.0074  0.4152
67235W        W10226  10.722  33.939   5.608 -0.2355 -0.1013 -0.0956
67236W        W10227   0.344  17.327  19.406  0.0180 -0.0562 -0.1596
67237W        W10228  18.255  31.203  23.499  0.0531 -0.0411  0.0169
67238W        W10229  16.810  18.551   6.072  0.1250  0.1791  0.0735
67239W        W10230  10.739  23.442   3.725 -0.1403 -0.1323 -0.0014
67240W        W10231  17.999   6.600  22.734  0.2178 -0.2123  0.1113
67241W        W10232  14.239  18.053  26.210  0.1989  0.2213  0.0468
67242W        W10233  21.093   7.309  20.497  0.0141  0.0844 -0.1503
67243W        W10234  30.510  14.205   8.843 -0.0928  0.1073 -0.0732
67244W        W10235  29.516  33.184  13.068  0.4679 -0.2053  0.0976
67245W        W10236  10.337  31.074  21.600  0.2692 -0.1486 -0.1784
67246W        W10237  11.198  14.398   9.693 -0.1526  0.0490  0.0843
67247W        W10238  13.116   1.870   2.032 -0.1730 -0.0232  0.1555
67248W        W10239  22.005  34.479  24.521 -0.2058  0.3325 -0.0516
67249W        W10240  25.903  23.363  21.759 -0.0419  0.3090 -0.0970
67250W        W10241  12.380  30.961  20.297 -0.1973  0.3250  0.0309
67251W        W10242  25.327   2.387  19.940  0.2224  0.3903 -0.2281
67252W        W10243  21.703   6.848   6.765 -0.0031  0.1591  0.0169
67253W        W10244  16.329   1.547  20.656 -0.1744 -0.3132 -0.2442
67254W        W10245  14.904   5.690   9.979 -0.0759  0.0934 -0.0538
67255W        W10246  16.295  21.710  16.169  0.1800  0.1377 -0.1801
67256W        W10247  31.180  31.881   4.674 -0.1167 -0.1170 -0.3595
67257W        W10248  32.589   2.519  15.936  0.1728  0.1275 -0.1070
67258W        W10249  27.381   1.019  14.159  0.1396  0.3677 -0.0992
67259W        W10250  30.819   3.835  25.870 -0.0463 -0.0130 -0.2697
67260W        W10251   7.485  30.935  14.201  0.2728 -0.1329 -0.0155
67261W        W10252   8.949   8.164  20.468 -0.0846  0.0069  0.2365
67262W        W10253  28.094  19.467  24.734  0.0600 -0.1333 -0.0624
67263W        W10254   1.515  30.550   1.979  0.0076  0.0289  0.3117
67264W        W10255   5.934  23.962   1.888  0.0438 -0.0753  0.1882
67265W        W10256  28.082  14.950  20.668 -0.2328 -0.2938  0.1045
67266W        W10257  19.107  28.508  20.911 -0.0784  0.1164  0.0700
67267W        W10258  23.453  11.774   5.459  0.3448  0.2523  0.3006
67268W        W10259  26.602   5.265  16.457 -0.0910 -0.0832  0.2578
67269W        W10260  20.377  22.486  17.633  0.0119 -0.0573 -0.1471
67270W        W10261   0.328  30.908  19.988 -0.0643  0.0076  0.4396
67271W        W10262  12.783   0.326  27.348  0.0102  0.1473  0.1078
67272W        W10263  12.614  17.631   0.401 -0.0681  0.0634  0.0211
67273W        W10264   6.589   4.848   2.432  0.0776  0.2101  0.1819
67274W        W10265  23.039   5.047   0.891 -0.2117 -0.1180 -0.2596
67275W        W10266   5.799  18.230   2.457 -0.1443 -0.2301 -0.0861
67276W        W10267   5.205   4.304  28.398 -0.2357 -0.0719 -0.4074
67277W        W10268  24.880  27.257   5.329  0.1448  0.3167 -0.0831
67278W        W10269  15.515  32.906  21.965 -0.1177 -0.1964  0.1570
67279W        W10270  18.949  27.388  25.607  0.1423 -0.0564  0.2649
67280W        W10271  19.299  34.449   6.529 -0.2842  0.0604  0.2870
67281W        W10272   5.294  31.094   2.419  0.1563 -0.4243  0.2194
67282W        W10273   4.259  34.127  20.519 -0.0175  0.1356  0.1406
67283W        W10274  32.373  29.017  28.819  0.2213  0.1012 -0.1508
67284W        W10275  12.567   0.043  10.004 -0.2626  0.0639 -0.0988
67285W        W10276  28.905   0.921  23.128 -0.1144  0.2606 -0.1563
67286W        W10277  15.584   5.892  28.736 -0.1592  0.0310  0.0911
67287W        W10278   7.818   2.927  21.279  0.2487  0.1674  0.1877
67288W        W10279  23.725  33.994  27.218 -0.0526  0.0920 -0.0588
67289W        W10280  23.372  12.499  21.944  0.0587  0.2275  0.2991
67290W        W10281  19.961  24.781  26.055  0.0557  0.1074  0.0830
67291W        W10282  16.724   1.516   9.329  0.0987  0.0935  0.1188
67292W        W10283  34.466  33.335  17.575 -0.0988  0.0824  0.0577
67293W        W10284  12.665  17.533  20.045 -0.1354 -0.4249  0.0521
67294W        W10285   7.489  13.645  10.419 -0.0257 -0.1876  0.0418
67295W        W10286   2.521  24.272  20.192  0.0027 -0.0699  0.2524
67296W        W10287  30.337  22.096   6.702 -0.0388 -0.3293 -0.0351
67297W        W10288  13.500  24.762   8.913  0.1625  0.1256 -0.0482
67298W        W10289  11.863   5.683  18.999 -0.0476 -0.2450 -0.0127
67299W        W10290   2.328  18.543  23.370  0.0118  0.0091  0.4524
67300W        W10291  16.882  29.754   7.220 -0.3382  0.2882  0.4038
67301W        W10292   8.999  34.351   3.136 -0.2346  0.0545 -0.3123
67302W        W10293   4.770  25.103  17.332 -0.0201  0.1327  0.0497
67303W        W10294  21.738  30.188   2.636 -0.0508 -0.3439 -0.0502
67304W        W10295  18.199  32.879   8.406 -0.1816  0.0019  0.0698
67305W        W10296  17.761   6.322  19.652  0.5088  0.1884  0.0357
67306W        W10297  10.820   6.170  26.180 -0.0335  0.1291  0.3224
67307W        W10298  21.187  16.286  26.632  0.2308 -0.3290 -0.0085
67308W        W10299  11.155  31.748  29.165 -0.3782 -0.4626 -0.2273
67309W        W10300   4.107   4.517  17.130  0.1686 -0.1017 -0.1648
67310W        W10301   0.173   0.523   0.142 -0.0099  0.0370 -0.1043
67311W        W10302   2.578  15.496  21.559  0.3239 -0.0853 -0.1511
67312W        W10303  16.893  28.825  14.789  0.0567 -0.2101  0.0817
67313W        W10304   7.733   4.599  20.410 -0.0286  0.1554 -0.1908
67314W        W10305   4.718   8.938  22.813  0.0609  0.1483  0.1848
67315W        W10306  18.162  30.160   1.914 -0.0601  0.1933 -0.0284
67316W        W10307   1.278  31.851   6.124  0.0369  0.4255  0.1392
67317W        W10308   8.143   8.452  18.609 -0.0608 -0.1619 -0.2917
67318W        W10309  16.658   0.541  23.173 -0.0910  0.3756  0.2264
67319W        W10310  15.913  21.633   1.803  0.2258 -0.1080 -0.0860
67320W        W10311  29.762  18.843   0.855  0.0231  0.0025  0.0715
67321W        W10312  34.705  31.719  13.696  0.2116  0.1714  0.4189
67322W        W10313  15.261  28.320  20.355  0.1433  0.1243 -0.1737
67323W        W10314  15.914  32.162  23.230  0.2353  0.0793  0.3112
67324W        W10315   5.364   5.066  18.501 -0.1394 -0.0065 -0.1225
67325W        W10316   3.110  27.940  16.246 -0.2609 -0.0744  0.0921
67326W        W10317   7.412   3.946   7.122  0.1070 -0.0078 -0.1253
67327W        W10318   3.762  32.601   7.458  0.0064  0.0227  0.2401
67328W        W10319  19.208  26.577  19.649  0.0375  0.4429 -0.1725
67329W        W10320  27.779   5.242  28.057 -0.1627 -0.0132  0.0011
67330W        W10321   2.544  26.554   6.995  0.1796  0.0689  0.3837
67331W        W10322   6.628  32.940  22.807  0.0052 -0.0611  0.1682
67332W        W10323   0.725  24.971  15.013  0.0491 -0.1686 -0.1032
67333W        W10324  12.135  30.897  15.613 -0.2731 -0.4802 -0.3860
67334W        W10325  14.329  30.738  14.074  0.1015 -0.0367 -0.1783
67335W        W10326   0.059  23.526  15.969  0.3688 -0.2499 -0.3174
67336W        W10327  12.302   8.479  14.678 -0.1710  0.0435 -0.0741
67337W        W10328  27.989  26.203  24.193 -0.0033  0.0335  0.2808
67338W        W10329  21.877  30.381  20.373  0.4173 -0.0292  0.0940
67339W        W10330  16.018  10.580   4.169 -0.3625 -0.0415 -0.2197
67340W        W10331  21.208  33.377  26.993 -0.1828 -0.1812 -0.3493
67341W        W10332  24.133  34.736  29.127 -0.0774 -0.0682  0.0112
67342W        W10333   0.346  33.101  24.782  0.3093 -0.0599 -0.1163
67343W        W10334  23.824  23.577  21.264 -0.1837  0.1005 -0.1269
67344W        W10335  29.270   5.954   3.756 -0.0778  0.0037  0.0592
67345W        W10336  14.695   1.549  16.505  0.1467 -0.0789 -0.0034
67346W        W10337  10.903   9.873   9.517 -0.0666  0.2764  0.0344
67347W        W10338  11.267   5.956  29.099 -0.4150  0.3008  0.1215
67348W        W10339   3.824  32.163   1.629  0.2614  0.2653  0.2409
67349W        W10340   7.143  26.098   0.313  0.0404 -0.2215  0.4564
67350W        W10341  15.408  11.324  24.259  0.0505  0.1202  0.2277
67351W        W10342  10.227   0.018   2.228  0.0945 -0.0800  0.0528
67352W        W10343  24.909  25.168  20.443 -0.0732 -0.0034  0.3052
67353W        W10344  14.305  33.857   4.327  0.1081 -0.2112  0.0977
67354W        W10345  25.246  17.545  17.169  0.1454  0.0237 -0.2735
67355W        W10346  13.092  31.811   9.629 -0.3348  0.1777 -0.1041
67356W        W10347  31.234   7.645  14.277 -0.0036 -0.0329 -0.0997
67357W        W10348  14.482  14.594  13.215 -0.0867 -0.1183  0.0751
67358W        W10349  12.640   1.979  15.451  0.1289  0.1022  0.0522
67359W        W10350  15.799   1.408  20.914  0.1364  0.0850  0.1418
67360W        W10351  33.200   6.744  15.134  0.5365 -0.0528  0.1897
67361W        W10352   3.323  29.359   7.555  0.0980 -0.0381 -0.3004
67362W        W10353  12.253  24.757  19.460  0.2970  0.1128  0.2436
67363W        W10354  14.401  27.877  19.342  0.2213 -0.0797 -0.1431
67364W        W10355   5.222   0.376  17.249  0.0536 -0.1636 -0.1270
67365W        W10356  26.525  32.437   1.140  0.2548 -0.1705 -0.2447
67366W        W10357  23.903   1.358  24.725  0.0841  0.1635 -0.1013
67367W        W10358  17.064  28.994   1.338  0.1270  0.0105 -0.0200
67368W        W10359  24.690   1.351  23.353 -0.4417  0.1172 -0.0091
67369W        W10360  16.635  26.348  13.687 -0.0425 -0.0395 -0.1339
67370W        W10361  16.231  23.299  23.215  0.3522  0.1124 -0.1761
67371W        W10362  13.134  30.366  23.422 -0.0467  0.1599  0.0601
67372W        W10363  20.517  28.113  16.145  0.0941 -0.1810 -0.2224
67373W        W10364  21.343  11.536  21.211 -0.3388 -0.1862  0.0310
67374W        W10365  25.212  20.506  23.124 -0.1959 -0.0446  0.2268
67375W        W10366  17.479  33.939   8.091  0.2268  0.1915  0.0490
67376W        W10367  17.789   5.691   1.640  0.3355  0.4020 -0.2199
67377W        W10368  12.538   4.107   3.705  0.2672 -0.2404  0.1124
67378W        W10369   4.983  30.992  24.860  0.4270  0.0583  0.3512
67379W        W10370  13.444  24.720  15.693 -0.2867  0.7529 -0.0416
67380W        W10371  28.048  16.407  18.318 -0.0101 -0.1284  0.3065
67381W        W10372  26.170  23.812  20.449  0.0376 -0.3463  0.1301
67382W        W10373  15.767   0.844  19.047  0.3383  0.1001 -0.0201
67383W        W10374  29.638  33.715  28.311 -0.1187 -0.5147 -0.1012
67384W        W10375  11.648  25.432  26.169  0.0515 -0.0840  0.1082
67385W        W10376  16.309  32.417   7.639 -0.1546 -0.1181  0.1776
67386W        W10377  33.455  31.716   6.739  0.0976 -0.1371 -0.2262
67387W        W10378   7.994  30.139  17.878 -0.2835  0.1780 -0.1219
67388W        W10379   3.098  29.279   3.102 -0.1552  0.2549 -0.1365
67389W        W10380  23.374   2.682   0.269  0.0318  0.2929 -0.0293
67390W        W10381  16.929  25.057  22.116  0.1028  0.2099  0.1416
67391W        W10382   9.181  23.538   4.684  0.1357  0.1224 -0.0203
67392W        W10383  22.243  30.889   6.131 -0.4506  0.1752  0.0146
67393W        W10384  16.765   0.129   2.587 -0.0807  0.1360  0.2284
67394W        W10385  24.822  34.390   1.580 -0.0534  0.0399 -0.2351
67395W        W10386  23.097  17.158  15.189 -0.0412  0.1728 -0.2267
67396W        W10387   6.415  33.098   1.122  0.0324  0.3205 -0.2712
67397W        W10388   4.763   4.635   9.335 -0.0978 -0.0583 -0.1592
67398W        W10389   8.152   5.441  27.298 -0.0023 -0.0819  0.2810
67399W        W10390   8.009  21.771   4.970 -0.0732  0.4705 -0.1634
67400W        W10391  11.410  22.331  25.839  0.3639  0.0585 -0.3007
67401W        W10392  17.059   4.578  20.202 -0.1670 -0.0986  0.0205
67402W        W10393  20.965  20.279   6.904  0.0039 -0.0386 -0.0847
67403W        W10394  19.004  30.852  19.675 -0.2748  0.2425 -0.0475
67404W        W10395   9.875   0.419   2.219  0.0771 -0.1747 -0.2128
67405W        W10396   3.506  17.411  16.499 -0.2108 -0.1010  0.1003
67406W        W10397  17.104  25.908  24.712  0.0085 -0.4000  0.0837
67407W        W10398   8.994   8.275  22.385  0.1654  0.2320 -0.1358
67408W        W10399  16.160  27.767  22.662 -0.0547 -0.0959 -0.1374
67409W        W10400   4.489  10.119  16.078  0.0518  0.0300  0.0811
67410W        W10401   0.454   2.424  28.140 -0.0021  0.2304  0.4124
67411W        W10402  33.816   2.632  22.152 -0.0649 -0.5868  0.0153
67412W        W10403  15.783   6.815   0.505  0.2836  0.1000 -0.0125
67413W        W10404  11.922  14.324   0.453 -0.0775 -0.2699  0.3642
67414W        W10405   2.221  22.865  23.668 -0.1278  0.0795  0.0583
67415W        W10406  17.901  29.720  26.535 -0.1343  0.0469  0.0179
67416W        W10407  26.661   1.702  17.535  0.0321  0.0695  0.4024
67417W        W10408  22.018   2.446  25.899 -0.0941  0.0309  0.1643
67418W        W10409  10.691  22.269   3.822  0.0791 -0.0626 -0.0529
67419W        W10410  25.118  28.388   1.290 -0.3467 -0.0609  0.0457
67420W        W10411   7.189  29.167   3.164  0.0695 -0.3749 -0.0853
67421W        W10412   9.790   5.766   6.477  0.2793 -0.1095 -0.1141
67422W        W10413  26.421   2.903  17.385 -0.0331  0.1244  0.2780
67423W        W10414  17.146  23.232   3.522 -0.1479  0.2208  0.1731
67424W        W10415  12.492  22.250  22.879 -0.2416 -0.3208  0.0319
67425W        W10416  22.879  30.517  13.714 -0.2032 -0.0860 -0.3428
67426W        W10417   6.627  30.837  14.104  0.2615  0.2046 -0.1335
67427W        W10418  32.688  28.807  20.540 -0.1094  0.0759 -0.1588
67428W        W10419  16.416  25.276  15.584  0.3382  0.2621 -0.1086
67429W        W10420   3.265   3.620  17.014 -0.0596  0.2148 -0.1766
67430W        W10421  31.020  21.865   6.659  0.4397 -0.0614  0.2243
67431W        W10422   6.927  10.630   9.758  0.4224 -0.3782  0.2683
67432W        W10423  32.870  27.411  29.151 -0.2785  0.1421 -0.5119
67433W        W10424  13.868  29.739   8.489  0.0462 -0.2244 -0.0569
67434W        W10425   6.810  27.956   0.480 -0.0811 -0.1540 -0.2632
67435W        W10426   3.200  29.292  26.168 -0.3942 -0.2265  0.1262
67436W        W10427   1.163   3.210  24.255 -0.1569  0.0447 -0.0586
67437W        W10428   1.303   4.355  21.366 -0.0521 -0.2386 -0.0744
67438W        W10429   5.697  14.347  10.353 -0.0522 -0.0159 -0.2014
67439W        W10430  10.989  20.799  19.004  0.0929  0.2740  0.0552
67440W        W10431  25.347   0.762  21.616 -0.0375  0.0427  0.0954
67441W        W10432  28.073  17.515   4.718 -0.1462  0.2755 -0.3739
67442W        W10433  27.390  33.734  21.432 -0.1558  0.1182 -0.0003
67443W        W10434  19.694   8.147   1.073 -0.1316  0.1031  0.0262
67444W        W10435  23.378  19.513   0.747  0.6451 -0.1458  0.0604
67445W        W10436  21.740   5.342  17.921  0.2282 -0.4585 -0.3700
67446W        W10437  13.175  33.141  26.161  0.0523  0.0882  0.1313
67447W        W10438  12.310   3.645   0.664  0.1306 -0.0890 -0.2986
67448W        W10439  13.495  25.521  17.491  0.0726  0.1813  0.0230
67449W        W10440   6.935   0.075   1.851  0.1123  0.0362 -0.2162
67450W        W10441  15.112  28.769  16.812  0.1795  0.1783 -0.2617
67451W        W10442   3.811   5.179  22.662  0.0069  0.4380  0.1778
67452W        W10443  20.403  17.951  23.236 -0.1781  0.1518  0.1020
67453W        W10444  22.017   5.267  20.349 -0.2763  0.0554 -0.0925
67454W        W10445  20.155   2.998  16.272  0.0284 -0.2340 -0.1826
67455W        W10446  22.532  34.124  19.815  0.1066 -0.0321 -0.0052
67456W        W10447  18.263  28.325  23.992  0.1408  0.0174 -0.0605
67457W        W10448  23.551  18.301  19.267 -0.1169  0.1530  0.2531
67458W        W10449  21.393  19.627   6.491  0.2358  0.3728  0.1310
67459W        W10450  12.499  31.641   3.086 -0.0382 -0.2133  0.1825
67460W        W10451  17.173  21.152  14.220 -0.1744  0.0823  0.4369
67461W        W10452  33.559  34.078  16.738  0.1174 -0.0431 -0.5091
67462W        W10453   1.970  31.145  17.684  0.0329  0.3030  0.2041
67463W        W10454  32.091  33.143  22.714 -0.2411 -0.0515 -0.0585
67464W        W10455   7.388   3.090  27.225  0.4200 -0.3117  0.4907
67465W        W10456  11.472   4.316  17.060 -0.1001 -0.2855 -0.2733
67466W        W10457  18.160  34.046  17.793 -0.0047 -0.1733  0.2847
67467W        W10458  31.014   6.659  23.004 -0.1194  0.2439 -0.4251
67468W        W10459  14.018  31.578  16.102 -0.1087  0.1482  0.0842
67469W        W10460  13.381   5.053  16.881  0.3299  0.4944 -0.2546
67470W        W10461   6.011  22.655  16.995 -0.0581  0.0454  0.0762
67471W        W10462  28.275  18.596   0.579 -0.3918 -0.0342  0.1376
67472W        W10463  13.630  33.068  26.445  0.0914 -0.1529 -0.1797
67473W        W10464  24.859  22.375  19.725 -0.0189  0.0831  0.2338
67474W        W10465   8.435   9.302   3.521  0.4093  0.2336 -0.0412
67475W        W10466   5.258   3.574  17.387 -0.3943 -0.0089 -0.0298
67476W        W10467   2.132  10.688  26.261  0.1709 -0.0794  0.1854
67477W        W10468   8.927  31.277  22.343  0.0764 -0.1604  0.2071
67478W        W10469  11.141   6.409  25.310 -0.2049  0.0883 -0.3268
67479W        W10470  14.685  13.130  23.838 -0.2836  0.1808  0.1277
67480W        W10471  23.500  19.414  14.616 -0.2833  0.0847  0.1248
67481W        W10472  24.577  15.233   5.649  0.0285 -0.2387  0.2840
67482W        W10473  25.788  16.149  21.297  0.2130 -0.1935  0.4313
67483W        W10474  19.849  27.522  15.199 -0.1532  0.1125  0.1607
67484W        W10475   7.447   9.690  18.801  0.0490  0.3752  0.2119
67485W        W10476  18.674   7.824  14.164  0.3093 -0.0614  0.0958
67486W        W10477  22.969  28.760  21.809 -0.0430  0.1211  0.3450
67487W        W10478   8.557   4.432  19.769 -0.2257  0.1140 -0.0569
67488W        W10479  17.727   2.096  18.672  0.0516 -0.4460 -0.2996
67489W        W10480  19.201   7.249  20.576 -0.0627  0.1730 -0.0053
67490W        W10481   1.479   6.304   6.442  0.2657 -0.0022 -0.0858
67491W        W10482  18.515  30.532  24.232 -0.0428 -0.0885  0.2312
67492W        W10483  17.296  32.598  19.845  0.1563  0.1338  0.1156
67493W        W10484  15.396  12.382  22.427 -0.3142  0.3043  0.0239
67494W        W10485  17.169   1.509  27.265 -0.1672  0.1200  0.4099
67495W        W10486  14.146  14.006  18.976 -0.3142  0.1536 -0.0004
67496W        W10487  22.662   8.903  15.223  0.4198  0.1777 -0.2036
67497W        W10488  27.010   5.795  13.434 -0.1585 -0.1748 -0.0658
67498W        W10489  14.646  33.740  18.312  0.4910 -0.0317 -0.1927
67499W        W10490  32.791   8.554  26.329 -0.0124  0.1088  0.2614
67500W        W10491   9.341   6.358   2.023 -0.1650  0.1577  0.4975
67501W        W10492  15.042  16.649  12.007  0.0756 -0.1470 -0.2258
67502W        W10493   5.796  14.973   0.430 -0.1409 -0.1025 -0.1287
67503W        W10494  15.079  27.969  18.261  0.2821  0.2156  0.1266
67504W        W10495  30.675   9.722  15.351 -0.0631 -0.0554  0.3264
67505W        W10496  33.255  12.842  20.430 -0.1810  0.3731  0.1401
67506W        W10497   3.707   5.968  17.387 -0.0123  0.0596  0.1429
67507W        W10498   8.596   6.717  25.397  0.1526 -0.2091  0.1702
67508W        W10499  11.629   3.851  14.937 -0.1993 -0.2646 -0.1669
67509W        W10500  31.289   8.756  28.187  0.0639 -0.2139 -0.0930
67510W        W10501  32.641  14.099  18.986  0.1952  0.1322  0.3944
67511W        W10502  28.788  30.347  24.152 -0.3049 -0.1145 -0.0754
67512W        W10503  12.274   4.880   7.432 -0.2366 -0.0368 -0.1714
67513W        W10504  26.100  19.242  15.655 -0.2706  0.0002  0.1117
67514W        W10505  28.631   3.161  18.218  0.2594 -0.0746  0.1563
67515W        W10506   6.217   8.468  18.772 -0.1340 -0.3139  0.0500
67516W        W10507  28.942  26.195  19.622 -0.2907  0.0483 -0.2346
67517W        W10508  20.398   6.788  21.803  0.2188  0.0264 -0.2677
67518W        W10509  19.491   2.873  16.044  0.6559 -0.0260 -0.1422
67519W        W10510  25.622   5.595  14.327  0.2582  0.0976  0.0688
67520W        W10511  20.215   0.985  24.780  0.1162 -0.1655 -0.0019
67521W        W10512  13.799  32.561  18.739 -0.2636 -0.1480 -0.2306
67522W        W10513  17.767  33.921  17.507 -0.2732  0.2620  0.1271
67523W        W10514  19.538  25.220  14.426 -0.1811  0.0435 -0.0112
67524W        W10515  11.092  11.485   3.716  0.3351  0.1387 -0.1245
67525W        W10516  10.727  19.746  16.647 -0.4871  0.0611 -0.1137
67526W        W10517  13.669  11.758  19.599  0.2928  0.0235 -0.1018
67527W        W10518  24.285  14.653  23.980  0.0453  0.0485 -0.1892
67528W        W10519  25.959  30.669  19.412 -0.1833 -0.0961 -0.2949
67529W        W10520  16.955  31.812  23.851 -0.1503  0.2263  0.1133
67530W        W10521  21.261  16.086  27.187 -0.1313 -0.3465 -0.0282
67531W        W10522  32.077  34.490  18.106  0.2712 -0.0865  0.0068
67532W        W10523  34.138   5.065  26.246  0.0963  0.1421 -0.2556
67533W        W10524  21.084   1.498   3.319 -0.2470 -0.1369 -0.1521
67534W        W10525  15.591  32.277  19.862  0.1205  0.2339 -0.0110
67535W        W10526  25.745  14.263  20.374  0.2753  0.1729 -0.0487
67536W        W10527  21.322  34.084  19.940 -0.2357 -0.0623  0.2306
67537W        W10528  26.115   9.355  15.826  0.2653  0.0256  0.1379
67538W        W10529  18.086  30.664  21.315  0.0111  0.1478  0.0170
67539W        W10530  12.345   0.396  16.547  0.1814  0.0211 -0.1293
67540W        W10531  21.459   2.968  14.517  0.3441  0.1335 -0.0368
67541W        W10532   8.199  21.386  18.424 -0.2013  0.0904 -0.0508
67542W        W10533  18.468   2.490  26.995  0.1311  0.1409  0.0974
67543W        W10534  15.937   3.309  15.833 -0.3749 -0.1856  0.0284
67544W        W10535  15.816  31.107  21.039 -0.5327 -0.3342 -0.4112
67545W        W10536  32.690   5.661  15.769  0.2376 -0.1021  0.2057
67546W        W10537   5.141  32.647  15.748  0.2454 -0.0539 -0.2044
67547W        W10538  29.336  20.561  18.701 -0.0509 -0.0801  0.0431
67548W        W10539  17.590   2.778  24.773  0.1757 -0.0940 -0.3573
67549W        W10540   1.637  29.214  26.544 -0.1171  0.0797  0.2981
67550W        W10541  21.584   0.419  15.525  0.4390 -0.0411 -0.1842
67551W        W10542  32.451   3.762  20.470 -0.1313  0.0929 -0.0518
67552W        W10543   2.884  33.722  23.654 -0.1481 -0.0386 -0.0206
67553W        W10544  13.781  29.937  22.826 -0.2325  0.0512 -0.1287
67554W        W10545   9.138  18.030  18.301 -0.1203 -0.3215  0.0377
67555W        W10546   7.047   3.451  28.085  0.0065 -0.1007  0.1375
67556W        W10547  21.561  33.010  24.653  0.2349  0.2099 -0.0094
67557W        W10548  26.514   6.222  17.654 -0.0446 -0.2511 -0.2318
67558W        W10549  25.999   5.475   7.948 -0.2212 -0.0869  0.0016
67559W        W10550  33.079  30.773  17.850 -0.3416  0.0082  0.4108
67560W        W10551  20.055   0.172  16.376  0.0033  0.0238  0.1545
67561W        W10552   2.886  10.980  24.676 -0.1527  0.0876 -0.0830
67562W        W10553   9.773   1.744  14.057 -0.1925 -0.1948 -0.0749
67563W        W10554  19.004  31.951  23.954 -0.0105 -0.2655  0.0226
67564W        W10555  10.582  31.152  20.108 -0.1012  0.0088 -0.2385
67565W        W10556  18.280  25.693  18.839 -0.1577 -0.1921 -0.1860
67566W        W10557   4.449   8.500   6.496  0.0170 -0.1602  0.1213
67567W        W10558  10.672  31.972  26.661 -0.0355 -0.2950 -0.1085
67568W        W10559   8.696   4.482  18.975  0.0057 -0.0943 -0.1581
67569W        W10560  16.803  31.441  16.176 -0.1354  0.1005  0.1411
67570W        W10561  18.443  14.419  14.456 -0.0963 -0.2305  0.1162
67571W        W10562  22.706   5.062  28.466  0.3062  0.2406 -0.1179
67572W        W10563  14.046  29.283  20.065 -0.0176  0.2407  0.1374
67573W        W10564   4.605  20.874  23.400 -0.1223 -0.0679 -0.1312
67574W        W10565  21.852  21.495  26.250 -0.2481  0.2123 -0.0984
67575W        W10566  29.822  33.946  26.683  0.1244 -0.0738 -0.0419
67576W        W10567   7.076  30.472  14.445 -0.0917 -0.0773  0.2521
67577W        W10568  13.223  34.717  26.874  0.0236  0.0382  0.0689
67578W        W10569  25.695  29.631  15.212 -0.2325 -0.0939 -0.0078
67579W        W10570  14.411   9.807  15.321  0.0475  0.1291 -0.1811
67580W        W10571  28.385  15.441  21.755  0.1157  0.0450  0.1191
67581W        W10572  20.336  34.267  22.625  0.0008 -0.1194  0.0221
67582W        W10573  11.735   5.038  22.007  0.0488 -0.4170  0.2211
67583W        W10574  25.533   3.797  13.690 -0.0973  0.0136  0.1243
67584W        W10575   8.120  24.586  13.760 -0.1677 -0.0621  0.0425
67585W        W10576  15.969  27.228  26.541 -0.1706 -0.2538 -0.0144
67586W        W10577  24.055   9.926  21.293 -0.3401  0.3328  0.0136
67587W        W10578   3.767  26.012  20.669  0.1599  0.1738  0.1627
67588W        W10579  11.295  34.490  23.760  0.3497 -0.0353  0.1422
67589W        W10580  16.367  10.727  20.029 -0.0350 -0.0102  0.0301
67590W        W10581  17.070   0.633  15.400 -0.0247  0.0911 -0.0371
67591W        W10582  14.082  29.854  23.348  0.0362 -0.0577 -0.0010
67592W        W10583  17.281   4.976  18.753 -0.0285 -0.0752 -0.2171
67593W        W10584  11.096   1.652  19.743 -0.1113 -0.2399  0.0745
67594W        W10585  13.169  34.604  19.433  0.2696 -0.1439 -0.0269
67595W        W10586  15.253  32.842  24.881  0.0629  0.2107  0.0815
67596W        W10587  25.216  32.857   1.136  0.0939  0.1878  0.0358
67597W        W10588  13.522  29.679  22.495 -0.1147 -0.0501 -0.0514
67598W        W10589  14.870  32.035  28.451  0.1227 -0.2182 -0.1526
67599W        W10590   8.460   3.310  20.981  0.2886  0.2327  0.3915
67600W        W10591  26.272  34.728  28.786 -0.1099  0.1759  0.1454
67601W        W10592  20.536   7.315   2.432  0.2649 -0.2915 -0.0611
67602W        W10593  17.406   1.841  24.176 -0.1231 -0.3921 -0.0421
67603W        W10594  10.922  29.779  14.251  0.0073  0.3305 -0.1767
67604W        W10595  33.560   5.566  20.300  0.1126 -0.0957  0.0180
67605W        W10596  29.019  21.444  17.200  0.1078  0.0171  0.0312
67606W        W10597  17.602  19.009  13.252 -0.4278  0.0372  0.1653
67607W        W10598  15.995  11.988  25.400 -0.1704  0.3573 -0.0083
67608W        W10599   7.874   8.006  15.653 -0.5548 -0.0855  0.0622
67609W        W10600  18.000   3.733  14.726 -0.0030 -0.1571  0.0719
67610W        W10601  22.517   2.100  17.510  0.0096 -0.0491 -0.0980
67611W        W10602  21.175  23.023  16.596 -0.0994 -0.2905  0.0027
67612W        W10603   8.918   2.946   4.105 -0.0561 -0.3596  0.1545
67613W        W10604  24.946  30.392  22.847 -0.1595  0.1298 -0.0178
67614W        W10605  25.590  34.258   3.557 -0.1477 -0.0268  0.0371
67615W        W10606  10.875  34.536  19.240  0.2135 -0.0119 -0.0867
67616W        W10607  17.244   1.965  19.857 -0.1015  0.0290  0.1902
67617W        W10608  18.790  18.437  13.508 -0.0026 -0.2407 -0.2864
67618W        W10609  12.887   5.495  19.414  0.2303  0.2075 -0.0618
67619W        W10610  28.009  27.590  13.664 -0.0161 -0.2876  0.0167
67620W        W10611   1.244  34.786  21.394 -0.1693  0.0091 -0.1095
67621W        W10612  22.241  25.275  18.920 -0.0264 -0.0178 -0.3222
67622W        W10613  10.244   1.228  17.091  0.1708 -0.1076  0.0242
67623W        W10614  24.680  21.211   2.505  0.1589  0.0933 -0.3874
67624W        W10615  25.996  22.990  16.078  0.2674 -0.2053 -0.1796
67625W        W10616  16.010   9.712  22.592  0.2732  0.2450 -0.0672
67626W        W10617  27.739   3.230  21.181  0.1373  0.2397 -0.2768
67627W        W10618  18.169   8.076  14.499  0.1997 -0.2023 -0.1075
67628W        W10619  25.176   2.911  22.652 -0.1587 -0.0185 -0.1617
67629W        W10620  28.616   1.057   0.544 -0.0755  0.1351  0.0128
67630W        W10621  17.739  21.064  17.518 -0.2128  0.1588  0.2065
67631W        W10622  20.941   6.828  20.620  0.0412 -0.1369 -0.1959
67632W        W10623  17.784   3.065   1.320  0.0176  0.2935  0.0814
67633W        W10624   8.598  32.857  21.648 -0.1821 -0.0645  0.5095
67634W        W10625  26.510  33.449  21.980  0.1392 -0.0401 -0.1689
67635W        W10626  20.716   2.451  19.557 -0.1402 -0.1059  0.1323
67636W        W10627  13.735   5.288  23.665 -0.3108  0.0512 -0.1204
67637W        W10628  22.193  30.515  25.374  0.0189 -0.2849  0.0883
67638W        W10629  33.774  10.165  22.394 -0.1565  0.1496 -0.3334
67639W        W10630  30.830   2.074  18.974  0.0711  0.1649 -0.1528
67640W        W10631   4.788   5.780  18.818  0.3877  0.0836  0.1447
67641W        W10632   3.426   6.134  22.821  0.2135 -0.0218 -0.0755
67642W        W10633  13.173  30.620  22.594  0.0971 -0.3584 -0.0173
67643W        W10634   5.190  31.667  20.248 -0.1159  0.0731  0.1651
67644W        W10635  10.147  28.047  15.475 -0.2167 -0.0658 -0.1286
67645W        W10636  32.265   2.194  25.243 -0.2079  0.1917  0.2622
67646W        W10637  12.909   6.395  19.481  0.2443 -0.0246  0.4270
67647W        W10638  14.825  12.054  17.216  0.4339 -0.2522  0.0526
67648W        W10639  17.981  18.594  12.957  0.0868  0.2131 -0.0689
67649W        W10640  18.989  21.749  17.287 -0.0549 -0.0425 -0.2524
67650W        W10641   9.368   7.574  17.092 -0.0421  0.0858 -0.3532
67651W        W10642  30.751   2.864   2.739  0.2947  0.2382 -0.0535
67652W        W10643  28.739   0.231  29.259  0.1389  0.0429  0.1411
67653W        W10644  21.087  30.609  22.502 -0.0935 -0.0264  0.0540
67654W        W10645   9.547   6.643  24.471 -0.1271  0.0621  0.1319
67655W        W10646  24.990  34.560  26.592  0.1338  0.3257  0.0619
67656W        W10647  11.974  22.522  16.342  0.1772  0.2593 -0.1545
67657W        W10648  20.149  10.462  15.076  0.0174 -0.3341 -0.1368
67658W        W10649   6.327   7.122  27.765 -0.0644  0.0446  0.0085
67659W        W10650  18.459  28.881  27.275 -0.3677  0.1554 -0.1141
67660W        W10651  21.462  32.468  14.770  0.0441  0.1294 -0.2404
67661W        W10652  11.139  16.196  20.512 -0.1391  0.3046 -0.0870
67662W        W10653   3.746  30.296  24.131  0.3153 -0.2794  0.1517
67663W        W10654   1.151  24.137  16.034 -0.2308 -0.0549  0.3263
67664W        W10655  25.686  14.157  15.854  0.0320  0.0675 -0.0104
67665W        W10656  25.911   3.202  24.346 -0.0562  0.0286 -0.0937
67666W        W10657  14.724  29.625  25.011 -0.0505  0.1599  0.2782
67667W        W10658  22.365  32.330  17.333 -0.2360 -0.2396  0.3032
67668W        W10659  24.104  29.941  13.871 -0.2800 -0.0934  0.5173
67669W        W10660  23.251  12.378  18.933 -0.2637  0.1877  0.0800
67670W        W10661   3.164   7.092  17.917 -0.0665 -0.0849 -0.2486
67671W        W10662   6.610   9.113  14.937  0.0354  0.3065 -0.1099
67672W        W10663  22.196  34.557  19.963 -0.1135  0.5699  0.0650
67673W        W10664   6.383  31.726  17.979 -0.1835  0.0648  0.1521
67674W        W10665  23.268  32.118  14.237 -0.2439  0.1545  0.2366
67675W        W10666  28.325  21.242  14.027 -0.1009  0.0610 -0.5537
67676W        W10667  22.957   3.519  22.765  0.2476 -0.1154 -0.2670
67677W        W10668  11.455  33.750  19.927  0.0495 -0.0367 -0.0478
67678W        W10669   2.643  33.663  17.281 -0.0267 -0.1269  0.0164
67679W        W10670   3.293  18.827  24.975 -0.1750 -0.2249  0.1648
67680W        W10671  14.874  13.284  27.331  0.1865  0.2530 -0.0194
67681W        W10672  16.972   4.798   2.480 -0.3447 -0.1908  0.0526
67682W        W10673  17.748   6.189  22.055 -0.1752  0.1977  0.0915
67683W        W10674  11.452   3.053  16.883 -0.0099 -0.0968  0.0652
67684W        W10675  16.391  30.057  19.470  0.0731  0.4405  0.2337
67685W        W10676  27.498   3.670   0.398  0.3869 -0.0954  0.1859
67686W        W10677  11.435   3.135  28.807  0.0054 -0.1027  0.0147
67687W        W10678  19.085  30.958  23.888 -0.1914  0.3358 -0.2334
67688W        W10679  18.811   4.273  20.982 -0.1153 -0.4603  0.2485
67689W        W10680  24.293  32.241  26.198 -0.1982  0.0223  0.3407
67690W        W10681   8.996  27.381  21.501  0.2339 -0.0109 -0.0849
67691W        W10682  20.278   0.843  20.284 -0.2567  0.1552 -0.0129
67692W        W10683   6.843   7.584  21.896 -0.0942 -0.1415  0.2570
67693W        W10684  24.884  29.498   0.329 -0.2083  0.2897 -0.2831
67694W        W10685   2.220  32.077  21.843 -0.3187 -0.0465 -0.1721
67695W        W10686   4.297   6.795   0.110  0.1344 -0.0968  0.2124
67696W        W10687  15.396  10.520   1.319 -0.1634 -0.1336 -0.0392
67697W        W10688  12.814  26.108  14.527 -0.0858  0.1510 -0.0902
67698W        W10689  26.532  23.873  22.842 -0.1119  0.1716  0.0620
67699W        W10690  18.758  10.112  17.693 -0.0096 -0.1081  0.1451
67700W        W10691   3.851   1.218  15.166 -0.0058 -0.1037 -0.1063
67701W        W10692  18.559  29.826  23.296 -0.0261 -0.0636  0.3014
67702W        W10693  21.860   3.270  25.074  0.1523 -0.0826  0.0814
67703W        W10694  12.765   7.160  15.201 -0.0695  0.0816  0.0027
67704W        W10695   6.347  26.650  24.004  0.3070  0.1806 -0.1564
67705W        W10696  18.416   9.668  19.781  0.2441  0.1078 -0.2613
67706W        W10697   4.837  27.089  15.371  0.1504  0.0547 -0.0325
67707W        W10698  26.213   4.022  21.601  0.1425  0.3375  0.1639
67708W        W10699   2.814   9.835  27.677  0.0049  0.0080 -0.1117
67709W        W10700  10.345  31.824  15.801  0.0066 -0.0413 -0.0093
67710W        W10701   8.369   1.058  14.923 -0.0475 -0.3046  0.2213
67711W        W10702   9.559  33.907  13.993  0.0551 -0.1576 -0.2611
67712W        W10703  11.897  24.982  18.710 -0.2067  0.0333 -0.3211
67713W        W10704  28.327  28.522  16.463  0.0452 -0.1117  0.1231
67714W        W10705  23.160  24.426  19.821  0.3495 -0.1122 -0.3478
67715W        W10706  18.744   2.568  16.773 -0.1380 -0.3120 -0.1360
67716W        W10707  14.931   7.788  16.425  0.0076 -0.2052  0.0109
67717W        W10708   6.847  30.446  26.709  0.0671 -0.1524 -0.1651
67718W        W10709  15.279  34.363   1.478  0.1335  0.0691  0.2090
67719W        W10710   0.991  31.046  16.665  0.0905  0.2091 -0.2156
67720W        W10711   6.299  30.809  22.582  0.3978  0.0640 -0.0456
67721W        W10712  22.880   1.977  28.372 -0.0076 -0.1216 -0.1228
67722W        W10713  28.157   1.633  23.180 -0.0648  0.1368 -0.2847
67723W        W10714  23.247  24.364  21.477  0.1270 -0.1314  0.1672
67724W        W10715  15.438  28.360  27.669 -0.0394 -0.1163 -0.2262
67725W        W10716  30.985  30.180  13.805  0.2541 -0.1271 -0.1657
67726W        W10717  28.698  27.781  18.263  0.2361  0.0663 -0.0458
67727W        W10718  11.629  31.777  22.159  0.0002 -0.0580  0.0385
67728W        W10719  27.026  32.432  14.264 -0.0725 -0.0595 -0.4408
67729W        W10720  29.901  20.389  17.173  0.2755  0.2048  0.1259
67730W        W10721  28.194  29.783  22.590  0.0898 -0.0633 -0.1032
67731W        W10722   2.391   2.465  15.599 -0.0980  0.1420 -0.0830
67732W        W10723   6.502  28.339   5.010  0.0572  0.1018 -0.0855
67733W        W10724  30.017   4.368  15.081  0.2597  0.0565  0.1760
67734W        W10725  33.545   5.412  21.690  0.0226 -0.0782 -0.1896
67735W        W10726  12.124   6.367  15.515  0.0370  0.1973 -0.1135
67736W        W10727  28.880   6.158  16.266  0.4325 -0.0165  0.2398
67737W        W10728  23.489  13.362  18.329 -0.3032 -0.2991  0.2811
67738W        W10729  23.881   8.388  14.425  0.1002 -0.1281 -0.0868
67739W        W10730  18.670   0.058  16.503  0.0608  0.0041 -0.1018
67740W        W10731   8.428   2.152  21.770  0.1098  0.0023  0.2312
67741W        W10732  22.635  34.199  21.389 -0.0164  0.2145  0.1024
67742W        W10733  33.496   3.420  25.083 -0.2848  0.1819 -0.0325
67743W        W10734  17.327  31.180  25.922  0.2459  0.2347  0.6878
67744W        W10735  11.544  10.571  24.898 -0.0888  0.1614 -0.2907
67745W        W10736  21.021  22.896  24.233  0.1052  0.1705 -0.1812
67746W        W10737   9.398  31.564  23.647  0.0951 -0.0122 -0.2476
67747W        W10738  21.235  23.398  20.748  0.0996  0.1153  0.1446
67748W        W10739  17.861   5.626  20.111  0.1841  0.1908 -0.0766
67749W        W10740   0.298  28.826   5.973  0.1832  0.0290  0.0851
67750W        W10741  17.346   7.336  28.810 -0.2230 -0.0095  0.1762
67751W        W10742  18.787  34.403  16.606 -0.1752  0.0074 -0.1574
67752W        W10743  26.028   2.890  28.183  0.1385  0.0780 -0.1324
67753W        W10744  13.716  32.544  20.688  0.3379  0.0662  0.0553
67754W        W10745  14.893  30.247  17.710 -0.0861  0.0527 -0.0824
67755W        W10746  22.203  23.313  25.140  0.0900 -0.2387 -0.0708
67756W        W10747  33.244   0.763  15.340  0.3531 -0.0421 -0.1191
67757W        W10748  24.837  24.109  21.059 -0.0920 -0.0843  0.0719
67758W        W10749  25.888  24.826  14.090 -0.0965  0.2697 -0.0868
67759W        W10750  19.200  13.304  18.141  0.0117  0.0885  0.0818
67760W        W10751  30.989   7.748  20.861 -0.0607 -0.0653  0.0252
67761W        W10752  24.582   3.084  25.943  0.3484 -0.1089 -0.2775
67762W        W10753  12.763  32.587  19.931 -0.1405 -0.0679 -0.2074
67763W        W10754  11.548  13.377  26.122  0.4226  0.1058  0.1015
67764W        W10755  18.949  29.517  26.087  0.1128  0.1316  0.1493
67765W        W10756   8.685  19.234  23.832 -0.0491 -0.1646 -0.0839
67766W        W10757  24.718  10.304  25.217 -0.0439  0.0117  0.0306
67767W        W10758  28.005   2.565  16.992 -0.0244 -0.1873 -0.2159
67768W        W10759  20.381   2.410  20.514 -0.1297 -0.2900  0.0722
67769W        W10760   9.110  27.332  16.656 -0.1151 -0.0788  0.2333
67770W        W10761  15.129  29.916  27.941 -0.0206  0.3044 -0.1381
67771W        W10762  22.472   8.592  26.734  0.3574 -0.0324  0.0889
67772W        W10763  20.243   7.087  19.477 -0.0050 -0.1006 -0.2097
67773W        W10764  19.676  27.931  20.193 -0.3991  0.1669 -0.0051
67774W        W10765  23.926   7.854  14.680 -0.1413  0.2258  0.2423
67775W        W10766  10.605  12.319  18.879  0.0767  0.2296  0.1082
67776W        W10767  12.126  29.532  21.366 -0.1175  0.1126 -0.0179
67777W        W10768  33.685   3.222  27.878 -0.0167 -0.0138  0.2229
67778W        W10769  30.234  31.305  22.196 -0.0733  0.1877  0.0820
67779W        W10770  33.925   9.677  21.347  0.0896  0.0730  0.0832
67780W        W10771  15.104   1.519  22.535 -0.1343 -0.1118  0.0593
67781W        W10772  27.411  10.323  15.459 -0.3179  0.1946  0.0172
67782W        W10773   5.928   1.848  14.414  0.2373  0.0800 -0.1159
67783W        W10774  13.176  33.468  17.802  0.1935 -0.0703  0.3342
67784W        W10775  11.050  18.703  14.484 -0.2375  0.0585 -0.0608
67785W        W10776  24.260   3.981   2.496  0.1800 -0.0781  0.2970
67786W        W10777   3.143  23.575  15.277 -0.4154  0.1566 -0.2130
67787W        W10778  29.329  14.338  22.652  0.3049 -0.3744  0.0775
67788W        W10779   7.075  28.909  22.951 -0.1265 -0.3525 -0.2220
67789W        W10780  26.607  34.392   8.856  0.3326 -0.2025 -0.2343
67790W        W10781  21.346   5.958  15.529 -0.0764 -0.0823  0.1306
67791W        W10782   7.979  11.231  29.247 -0.0614 -0.2847  0.1248
67792W        W10783  18.795  17.770  15.003  0.0022 -0.2035  0.1462
67793W        W10784  14.281  29.844  18.576  0.1683 -0.0173 -0.0053
67794W        W10785  28.646   3.142  13.319  0.2268  0.3719 -0.0597
67795W        W10786  17.249  29.862  22.054  0.0223 -0.2590  0.1398
67796W        W10787  12.809  28.919  16.796  0.0883 -0.0475  0.1699
67797W        W10788  13.918  33.964  24.873 -0.2886  0.1857  0.0036
67798W        W10789  32.472   3.174  15.322  0.1844  0.0491 -0.2121
67799W        W10790   5.212   1.565  18.974  0.1769  0.0696 -0.2639
67800W        W10791   0.877   6.078  16.399  0.0543 -0.2712  0.0647
67801W        W10792   7.108   7.571  24.741  0.1037  0.1082 -0.1757
67802W        W10793  19.901  11.009   6.756  0.0135  0.3950 -0.1096
67803W        W10794   1.319   4.216   2.541 -0.1640 -0.1744  0.1651
67804W        W10795  14.565  15.609  16.878  0.0948  0.1292  0.3414
67805W        W10796  22.675  32.385  28.135  0.1603 -0.1094  0.0320
67806W        W10797   2.164   2.549  18.502  0.0131  0.1753  0.5094
67807W        W10798  14.480   2.487  22.895  0.0489  0.0906  0.0792
67808W        W10799  11.302  27.185   1.532  0.0511  0.2329  0.3245
67809W        W10800  25.021   1.343   5.110 -0.1438  0.0259 -0.1553
67810W        W10801  11.809  21.821  20.634  0.0085  0.0193 -0.0892
67811W        W10802   6.663  32.601  12.889  0.2867 -0.3841 -0.2021
67812W        W10803  25.251  14.794  23.113 -0.0007 -0.3143 -0.5026
67813W        W10804  18.679  24.807  14.767  0.3689  0.0125  0.2672
67814W        W10805  13.956   4.040  14.915  0.0752  0.0742 -0.1152
67815W        W10806  11.689  13.388  17.418  0.0078  0.1677 -0.2328
67816W        W10807  26.748  13.003  18.418  0.1383 -0.0928 -0.3347
67817W        W10808  19.282  10.578  15.151 -0.1234 -0.2462  0.3133
67818W        W10809  16.732  23.474  14.097  0.1728 -0.4062  0.0775
67819W        W10810  31.382   5.209  20.021 -0.1201 -0.0659  0.1104
67820W        W10811  17.460  32.644   2.087  0.0324 -0.2354  0.2683
67821W        W10812  28.886  30.585  21.865  0.2190  0.0754  0.0543
67822W        W10813  11.904  34.513  20.232 -0.3327  0.0854 -0.0641
67823W        W10814  18.735   2.322  18.657 -0.0741 -0.0840 -0.2501
67824W        W10815  28.700  14.704  21.185  0.1872 -0.3077  0.1392
67825W        W10816  24.323  27.460  22.584  0.0163  0.2086  0.1584
67826W        W10817  25.905   1.278  19.537 -0.0441 -0.1231  0.4293
67827W        W10818  13.201   4.028  18.756 -0.1280 -0.3974 -0.2291
67828W        W10819   2.133   4.152  16.253 -0.2065 -0.5601  0.0773
67829W        W10820  16.468  29.391  17.239 -0.2434  0.1952  0.0038
67830W        W10821  33.423  21.248  23.196  0.0419 -0.2858 -0.2359
67831W        W10822  16.093  20.014  15.294 -0.1534  0.2523  0.1371
67832W        W10823  17.474  11.305  13.493  0.0074 -0.3894  0.4881
67833W        W10824  21.119  30.084  19.983 -0.0654  0.1079 -0.1661
67834W        W10825  26.239  32.654  18.047 -0.1393  0.1718  0.1921
67835W        W10826  25.739   4.620  14.323 -0.1597 -0.2068  0.1726
67836W        W10827  23.118  32.308  13.652 -0.0759  0.0596  0.1645
67837W        W10828  13.849   1.842  27.349 -0.1401 -0.0433 -0.2149
67838W        W10829   3.105   8.238  20.375  0.3409  0.1416  0.0724
67839W        W10830   6.982  30.287   1.589  0.1103 -0.0686  0.2490
67840W        W10831  25.100  29.925  24.975 -0.3581  0.1741 -0.1123
67841W        W10832  31.312  17.153  26.087  0.3157  0.1236 -0.1204
67842W        W10833  31.000  29.802  18.693  0.4574  0.1047 -0.2782
67843W        W10834  11.275  32.016  16.766 -0.2792 -0.2268 -0.2302
67844W        W10835  23.377  28.613   0.259  0.1117  0.0998  0.1849
67845W        W10836  21.583   2.660   5.259  0.0120 -0.0822 -0.0316
67846W        W10837  27.274   2.119  13.340 -0.1632  0.1912  0.1647
67847W        W10838   9.174   7.695  16.231 -0.0056  0.1882  0.1612
67848W        W10839   9.474   4.937  24.805  0.2223 -0.1438 -0.1395
67849W        W10840   6.120  20.095  26.869 -0.3090  0.2061 -0.3686
67850W        W10841   3.257  32.278  15.028  0.0493  0.1263  0.0852
67851W        W10842  20.980   6.942  17.081 -0.0809 -0.0325 -0.5294
67852W        W10843  12.088   8.300  21.481 -0.1247  0.2071 -0.3755
67853W        W10844  19.347   3.210  15.730 -0.0219 -0.1490 -0.1231
67854W        W10845   6.413  13.000  22.312 -0.1827  0.1490 -0.0368
67855W        W10846  24.901   7.121  28.707 -0.0976  0.1597 -0.0037
67856W        W10847   2.970  18.275  25.617  0.1925  0.2657  0.4043
67857W        W10848  18.727   6.756  15.593  0.2573 -0.1637 -0.0172
67858W        W10849  17.483   2.175  19.124 -0.1490 -0.1711 -0.1514
67859W        W10850   4.934  22.521  15.858  0.0192 -0.0239 -0.0795
67860W        W10851  13.978   5.991   4.892  0.1714 -0.2275 -0.0111
67861W        W10852  17.234  11.176  17.322 -0.1256  0.0006 -0.1070
67862W        W10853   8.013  23.382  22.731 -0.4413 -0.0619  0.0444
67863W        W10854  14.669  24.509  16.462 -0.0774 -0.0093 -0.2791
67864W        W10855   4.674   3.827  26.271  0.0401  0.1567  0.1729
67865W        W10856  18.566  31.390  22.767 -0.1056  0.2770 -0.1770
67866W        W10857  14.382   5.307  19.701  0.0229  0.1650 -0.1310
67867W        W10858  14.067   8.273  17.129 -0.2174  0.0191 -0.0067
67868W        W10859  12.604   9.112  19.636 -0.3153 -0.1374  0.1881
67869W        W10860   5.207  18.273  17.255  0.1269 -0.2841 -0.1341
67870W        W10861  31.510   5.943  19.359  0.4949 -0.1715 -0.2416
67871W        W10862  24.888   7.435  22.102 -0.0958  0.0274  0.0277
67872W        W10863  27.208  34.727  28.156 -0.1174  0.1947  0.0918
67873W        W10864  23.214   9.645  17.369 -0.1918  0.1240 -0.2181
67874W        W10865   6.195  30.494  25.050 -0.2204  0.0860  0.1359
67875W        W10866  17.792  25.055   6.799 -0.1856 -0.3153  0.1144
67876W        W10867  19.731   8.069  13.618 -0.0446 -0.0504  0.1875
67877W        W10868  18.014   7.152  24.614 -0.1348  0.0414 -0.0640
67878W        W10869   3.018  30.318  20.775  0.0663 -0.2378 -0.3143
67879W        W10870  12.103   3.659  21.093 -0.0729  0.1349  0.0253
67880W        W10871  19.991  23.451  24.564 -0.2400 -0.3847 -0.0160
67881W        W10872  10.769   4.112  29.256 -0.0463 -0.1958  0.3436
67882W        W10873  23.751  24.958   3.541  0.0748  0.1722 -0.3010
67883W        W10874  26.611   1.895  19.588  0.1990 -0.2587  0.2701
67884W        W10875   7.356  34.203  21.830 -0.1384 -0.1995 -0.0058
67885W        W10876  18.087  12.821  21.881  0.0083  0.1403  0.3207
67886W        W10877  25.960  21.133  20.171  0.0238  0.3359  0.3728
67887W        W10878  13.765  28.767  24.769  0.1518  0.0842 -0.1347
67888W        W10879  21.519  14.718  13.529  0.0166  0.0307 -0.0935
67889W        W10880   9.486   8.722  21.415  0.1377  0.1722  0.1807
67890W        W10881   2.333  28.537  14.488  0.3449 -0.1971  0.0442
67891W        W10882  10.696   1.896  20.426 -0.1646 -0.0702  0.0917
67892W        W10883  27.156  11.463  16.983 -0.1587 -0.1757  0.3341
67893W        W10884  21.848  10.650  22.159  0.1158 -0.3825 -0.0528
67894W        W10885  19.092  12.104  24.252 -0.1346 -0.0715  0.2198
67895W        W10886  13.675  13.403  15.265  0.0788  0.1049  0.0530
67896W        W10887  18.269  28.473  16.387  0.1116  0.1328  0.0329
67897W        W10888  15.718   7.509  22.542 -0.0163 -0.1176 -0.0746
67898W        W10889  22.813  29.086  13.469  0.0023  0.1331 -0.2126
67899W        W10890  25.889   5.290  22.998  0.1059  0.0749 -0.0559
67900W        W10891  11.419   2.602  19.086 -0.0373  0.1054  0.1774
67901W        W10892  10.361  31.935  18.515 -0.2446  0.1865  0.0343
67902W        W10893  21.818  23.335  18.387 -0.0281 -0.0166 -0.2302
67903W        W10894   7.044   9.690   3.582 -0.1427 -0.2326 -0.2477
67904W        W10895  19.463  32.962  19.484  0.0738  0.0252  0.1419
67905W        W10896  13.797  34.491  16.347 -0.0182  0.0354 -0.0493
67906W        W10897  31.898  31.454  13.917  0.0286  0.1848  0.2497
67907W        W10898   3.270   2.571  16.894 -0.1371  0.0786 -0.1118
67908W        W10899  18.851   9.202   6.794 -0.2899 -0.0758 -0.3214
67909W        W10900  20.469  11.314  21.478 -0.0741 -0.0818 -0.0333
67910W        W10901  21.041  19.604  16.521  0.2297  0.1377 -0.2197
67911W        W10902  31.409  12.409  21.244 -0.1840  0.2727 -0.2261
67912W        W10903  18.619   3.297  15.829  0.0090  0.1148  0.1055
67913W        W10904  25.886  33.453  14.613  0.3942 -0.1369 -0.3247
67914W        W10905  24.595   4.326  20.700  0.1754  0.2183  0.4130
67915W        W10906   9.285  19.033  17.680  0.0175 -0.2023  0.0474
67916W        W10907  16.999  33.371  17.985  0.1039 -0.1577 -0.4844
67917W        W10908  11.942   5.588   4.845  0.1431  0.0767  0.0227
67918W        W10909  19.723  32.672  19.047 -0.1854 -0.2228  0.1629
67919W        W10910  13.844   2.942  24.142  0.0021  0.1525  0.2617
67920W        W10911   6.114  14.346  18.975 -0.0174 -0.2013  0.0584
67921W        W10912  21.289   3.442  16.101  0.3106 -0.2914 -0.0155
67922W        W10913   6.068   1.258  22.875 -0.0288  0.2648  0.3352
67923W        W10914  30.165   9.738  17.978  0.1288  0.0686  0.0710
67924W        W10915  15.347  10.871  24.533  0.1614  0.2609  0.3014
67925W        W10916   4.656  27.368  17.609 -0.0091  0.0605  0.0639
67926W        W10917  15.844  13.728  16.168  0.1657 -0.1249  0.3022
67927W        W10918  18.074  13.673  15.739  0.0168  0.0884 -0.1658
67928W        W10919   1.140  20.942  16.175  0.0120 -0.3693  0.0266
67929W        W10920   3.255  32.489  17.651  0.1239  0.1986  0.0811
67930W        W10921   9.874  32.970   7.470  0.0694  0.2592  0.0999
67931W        W10922   2.555   5.905  24.034  0.0523  0.0460 -0.1038
67932W        W10923  12.458  27.292  24.762 -0.3335  0.0655 -0.3316
67933W        W10924  22.170  29.989  22.962 -0.2116  0.3534  0.2485
67934W        W10925  16.026  32.805  14.732  0.2020 -0.2139 -0.1311
67935W        W10926  21.083  26.728  16.080  0.1167  0.0558 -0.0951
67936W        W10927   6.822   6.739  24.224 -0.3127  0.0296  0.0757
67937W        W10928  18.360   1.429  24.030  0.1493 -0.4506 -0.1201
67938W        W10929  15.174  33.163  15.386 -0.2320  0.1495 -0.2945
67939W        W10930  23.757   2.037   6.991 -0.4014 -0.2344 -0.0006
67940W        W10931  11.618   5.482  15.923 -0.3809  0.4299 -0.0663
67941W        W10932   9.616  34.155  17.894 -0.1841 -0.0851 -0.1478
67942W        W10933  21.405  22.386  23.464 -0.2083 -0.0377 -0.0329
67943W        W10934  27.760   2.016   0.703 -0.0168 -0.0573 -0.1426
67944W        W10935  11.300  28.256  15.064 -0.0229 -0.0271 -0.2637
67945W        W10936  12.365   0.942   1.872 -0.3092  0.0153 -0.1461
67946W        W10937  11.206  30.301  23.153 -0.1850  0.0782  0.0660
67947W        W10938  34.390  31.605   0.949 -0.2162 -0.0491  0.0380
67948W        W10939  25.071  10.951  21.015  0.2443 -0.2021  0.1150
67949W        W10940  22.403   0.848   7.819 -0.1498  0.1274  0.2456
67950W        W10941  33.053  13.875  15.610  0.1809 -0.0170 -0.1846
67951W        W10942  19.000  28.122  15.139 -0.0227 -0.2311 -0.4924
67952W        W10943  19.713  29.528  21.766 -0.0691 -0.0472 -0.0481
67953W        W10944   5.853   4.345   1.405  0.1101  0.2974 -0.0775
67954W        W10945   4.557  19.463  29.030  0.0501 -0.0845 -0.2377
67955W        W10946  20.170  30.170  28.776  0.1503  0.1653 -0.1632
67956W        W10947  24.173  11.430  17.632  0.0836 -0.3835 -0.3300
67957W        W10948   9.669   4.699  18.320  0.1278  0.0243  0.0138
67958W        W10949  21.749   5.447  16.882 -0.0530  0.0811 -0.3440
67959W        W10950  14.745  25.224  17.473  0.1267  0.1933 -0.0102
67960W        W10951  32.089  11.536  20.124 -0.2076 -0.1554 -0.0968
67961W        W10952   3.757   3.630  18.572  0.1842  0.3479 -0.0147
67962W        W10953  23.379   3.973   1.985  0.0321 -0.3808  0.0645
67963W        W10954  21.201  27.245  21.632  0.0237  0.1282 -0.0488
67964W        W10955  29.500   0.390  23.740  0.0051  0.3866 -0.0248
67965W        W10956  18.211  31.244   0.448 -0.1366  0.3065  0.1331
67966W        W10957  10.731   0.080  20.828 -0.1710 -0.0966 -0.0802
67967W        W10958   9.960  15.086  15.564 -0.0456  0.0924 -0.1175
67968W        W10959  14.963   6.365  15.420 -0.1613  0.1345  0.1099
67969W        W10960  28.161  16.477  21.229 -0.1689 -0.0294  0.1563
67970W        W10961  31.358   3.140  23.445 -0.1226 -0.2176  0.0666
67971W        W10962  16.092  24.713   3.681 -0.2476  0.2026  0.1309
67972W        W10963  33.162   0.357  15.593 -0.0477 -0.1684 -0.0021
67973W        W10964  19.912   0.808  19.743 -0.3116 -0.1307  0.3994
67974W        W10965   1.248  31.850  22.868 -0.1169  0.0896 -0.0161
67975W        W10966   7.681   0.983  25.708  0.1530 -0.0029  0.2346
67976W        W10967  10.689   4.438  25.261  0.0455 -0.1000 -0.1127
67977W        W10968  16.280   0.383  19.668  0.1019 -0.0498 -0.0600
67978W        W10969   9.379  31.601  28.387  0.3574 -0.2122 -0.0958
67979W        W10970  14.035   7.788  16.979  0.0528  0.2695 -0.5004
67980W        W10971  12.364  32.247  16.200 -0.2301 -0.1035 -0.0748
67981W        W10972   1.408  28.791  19.412  0.0607  0.0344  0.2231
67982W        W10973  24.960   6.435  19.668 -0.0013  0.1167 -0.0694
67983W        W10974  23.331   3.094  26.788  0.0748 -0.1244  0.0168
67984W        W10975  22.002  11.500  13.847 -0.2557  0.0897 -0.0933
67985W        W10976  17.905  33.151  19.775 -0.2783  0.2003  0.1864
67986W        W10977  20.348   0.711  21.960 -0.0209  0.2242 -0.4305
67987W        W10978  14.466  31.545  25.414 -0.0090 -0.2589 -0.0506
67988W        W10979  16.849  10.245  14.087 -0.0947  0.0178  0.0544
67989W        W10980  31.575  23.684  21.070  0.0527 -0.1671  0.1923
67990W        W10981  31.097  33.467  14.076 -0.0282  0.3600 -0.0230
67991W        W10982   5.882  25.865  16.830  0.3711  0.0470 -0.0321
67992W        W10983  15.664  32.245   2.033  0.3476 -0.0753 -0.0050
67993W        W10984  26.469  31.740  19.302  0.2552  0.0604  0.1137
67994W        W10985  10.474  11.363  16.029 -0.1506  0.0410  0.1016
67995W        W10986  10.482  27.139  15.525 -0.5052 -0.3264 -0.1128
67996W        W10987  32.966  19.007  18.204  0.1600 -0.0844  0.0480
67997W        W10988  23.279  15.539  23.317 -0.2557  0.0087 -0.2038
67998W        W10989   4.429   6.382  19.403  0.1232 -0.1350 -0.1901
67999W        W10990   1.675   5.051  21.737  0.2133  0.0622 -0.1042
68000W        W10991  19.226  23.521  18.877  0.1085  0.2528 -0.0877
68001W        W10992  11.351  28.753  14.820  0.0564 -0.1395  0.1506
68002W        W10993  26.511   3.963  19.641 -0.0096  0.1765  0.1047
68003W        W10994  24.224   0.140  16.279 -0.2313  0.1708  0.4596
68004W        W10995  12.360  34.622  25.753  0.0538 -0.0211 -0.1142
68005W        W10996  29.985  14.478  22.758  0.0527  0.2085  0.6401
68006W        W10997  28.319   5.783  22.112  0.1658  0.0250  0.1781
68007W        W10998  24.392   0.487  13.667  0.2393  0.0347 -0.0509
68008W        W10999  20.087  13.208  16.265  0.0262 -0.4692  0.0658
68009W        W11000  17.740  28.342  28.245 -0.2312 -0.0179  0.1554
68010W        W11001   8.860   0.357  27.841  0.1107 -0.1874  0.0538
68011W        W11002  33.894  26.370  15.414  0.1566  0.0533  0.1813
68012W        W11003  34.671  11.401  20.922 -0.4468  0.2854  0.0307
68013W        W11004   8.493   5.156  15.823  0.0525 -0.0752  0.0033
68014W        W11005   5.836  13.205  23.847  0.2987 -0.0734 -0.0259
68015W        W11006   3.886  28.411   0.435  0.1288 -0.0942  0.2405
68016W        W11007  34.354   2.665  15.261  0.2395 -0.1888 -0.0467
68017W        W11008  22.318   5.890  14.829 -0.0940  0.1093  0.1676
68018W        W11009  34.144   2.157  15.334 -0.0371  0.0470 -0.1649
68019W        W11010   6.811   8.562  19.386  0.0259 -0.0905  0.0370
68020W        W11011   9.235  31.214  22.838 -0.1733 -0.0320 -0.1606
68021W        W11012  16.832   8.613  22.648  0.2684  0.2870  0.2194
68022W        W11013  20.298  29.071   5.460  0.1331  0.0673 -0.2669
68023W        W11014  11.469   4.281   0.511 -0.0302 -0.0347 -0.1862
68024W        W11015  20.939  24.554  26.763 -0.0617 -0.4704  0.1723
68025W        W11016  17.357  28.452  21.443 -0.2761  0.1944  0.0356
68026W        W11017  10.680  30.073  14.585  0.2177 -0.2748 -0.2255
68027W        W11018  22.115  10.866   3.067  0.0968 -0.1060 -0.0604
68028W        W11019   2.444   0.169  26.683 -0.3504  0.2770 -0.0887
68029W        W11020   7.212   0.328   5.751 -0.1014 -0.0146 -0.2912
68030W        W11021  24.179  20.791  14.782  0.1828  0.1694 -0.1642
68031W        W11022  16.508   9.946  13.542  0.0174 -0.0381  0.3038
68032W        W11023   8.028   5.625  23.203 -0.0580  0.3449 -0.0676
68033W        W11024  19.007  24.414  14.607  0.0223  0.1675  0.0198
68034W        W11025  22.124  13.002  21.456  0.0150 -0.1351 -0.0620
68035W        W11026  22.452   2.850  15.880 -0.0458 -0.0489  0.0147
68036W        W11027  20.331  12.565  15.539 -0.3716 -0.0632  0.1286
68037W        W11028  10.327   7.657   0.406 -0.3576 -0.1917  0.1192
68038W        W11029  18.531   5.521  20.746  0.0402 -0.1896  0.2613
68039W        W11030  23.889   1.457  23.323  0.2577 -0.0401 -0.1308
68040W        W11031  23.225  34.492  13.662  0.2821  0.1256 -0.3214
68041W        W11032  14.261  26.454  16.175 -0.2734  0.1334  0.1891
68042W        W11033   3.019  29.141  16.085 -0.0484  0.0732 -0.2603
68043W        W11034  15.602  29.621  25.686 -0.0027  0.1133 -0.2036
68044W        W11035  27.682  31.888   2.909  0.3418  0.2470  0.1412
68045W        W11036   1.103   8.277  22.645 -0.3457  0.2471  0.1819
68046W        W11037   2.784  21.208  18.692 -0.0207  0.3373 -0.0784
68047W        W11038  13.885   3.003  18.844  0.1789  0.0319  0.1701
68048W        W11039  28.254   8.246   7.674  0.1705  0.1550 -0.0943
68049W        W11040  20.185  33.257   5.967 -0.1494 -0.0610 -0.1238
68050W        W11041  16.095  20.642   3.101 -0.0044  0.1811 -0.1304
68051W        W11042  27.386   1.428  22.711  0.0039 -0.0030  0.0494
68052W        W11043  15.350   2.945  19.398 -0.1894 -0.1237 -0.1646
68053W        W11044  26.079  29.802  18.322 -0.0817 -0.1868 -0.0864
68054W        W11045  22.208  17.172  24.220 -0.0406  0.0024  0.2893
68055W        W11046  34.447  24.863  17.825 -0.4223 -0.0180  0.2929
68056W        W11047   9.105  26.193  14.831 -0.0504  0.1531 -0.2178
68057W        W11048  11.149   8.577  16.949 -0.1277 -0.0556 -0.2066
68058W        W11049  28.637  10.712  14.994  0.0234  0.1024  0.0330
68059W        W11050  21.540  22.016  28.030  0.0135 -0.0273 -0.0607
68060W        W11051  24.865  33.858  19.980  0.0800 -0.1970  0.1082
68061W        W11052   7.452  20.802  23.944 -0.1959 -0.0172  0.0693
68062W        W11053  11.606  32.663  25.291  0.0403 -0.0504  0.0979
68063W        W11054  20.579  32.350  27.510 -0.0382 -0.2018 -0.0619
68064W        W11055  23.947  33.187  25.397  0.3481 -0.3882  0.0191
68065W        W11056  18.667   0.792  20.468 -0.6658 -0.4165  0.0612
68066W        W11057  33.415  10.792  27.618  0.2986 -0.1151 -0.2970
68067W        W11058   0.766  27.251  26.097  0.0973  0.1359 -0.2859
68068W        W11059   0.963  14.400  25.881  0.2951 -0.0983  0.2897
68069W        W11060  12.044  31.510   2.547  0.0653 -0.1696 -0.0595
68070W        W11061  16.978   7.773  23.408  0.0638 -0.0040 -0.0473
68071W        W11062   3.233   2.849  27.969  0.0167 -0.0272 -0.2969
68072W        W11063  12.699  31.213  15.080 -0.1149 -0.1692  0.1576
68073W        W11064  28.757  28.142   3.159 -0.0126  0.0818 -0.0620
68074W        W11065  20.198   3.300  13.321 -0.1407  0.1460  0.4312
68075W        W11066   9.983  13.920   0.902 -0.3605 -0.1322  0.1510
68076W        W11067  12.383   8.741   1.695 -0.0307 -0.0448 -0.0698
68077W        W11068  30.542   0.242  25.928 -0.0705  0.1920 -0.1087
68078W        W11069  21.708   7.383  18.571  0.0082  0.0465 -0.0673
68079W        W11070  22.704  34.299  22.638  0.0954  0.1271  0.4003
68080W        W11071  22.440  29.778  19.286  0.1199 -0.2057  0.1457
68081W        W11072   2.139   1.408   4.783 -0.4056 -0.4170 -0.0333
68082W        W11073   1.420   8.738  27.530  0.0271 -0.3309  0.1324
68083W        W11074  21.558   8.932  25.652 -0.1070  0.1577 -0.3598
68084W        W11075  26.839  25.909  26.457 -0.0160  0.1818  0.0417
68085W        W11076  10.594   6.933  27.258 -0.1082 -0.1878  0.0627
68086W        W11077  19.698  33.266   8.421  0.0391  0.4408 -0.2969
68087W        W11078   4.494   4.045  22.206 -0.3471 -0.0902 -0.0169
68088W        W11079   3.182   2.799   8.112  0.0842  0.0492  0.0217
68089W        W11080   2.620   0.016   3.979 -0.2838  0.0468  0.1287
68090W        W11081  23.182   3.307  16.678 -0.5667  0.4178 -0.1947
68091W        W11082  16.438  29.232  15.504  0.0782  0.0358  0.1637
68092W        W11083   3.030   2.109  19.653  0.0990  0.0097  0.1016
68093W        W11084  26.317   2.083  22.952 -0.0799  0.0660 -0.2257
68094W        W11085   3.755  11.785  14.922  0.1962  0.0672  0.0292
68095W        W11086  13.242   9.882  15.647 -0.1276  0.0373  0.0084
68096W        W11087  33.301   7.264  21.287  0.2865  0.2133  0.1315
68097W        W11088   2.363   6.736  16.653 -0.0778 -0.0736 -0.1471
68098W        W11089   3.533  30.248  22.673 -0.2414 -0.2116 -0.2307
68099W        W11090  21.207  11.211  18.713 -0.0869 -0.0147  0.0143
68100W        W11091  14.665   9.137   6.184 -0.4292  0.0130  0.0344
68101W        W11092  16.286   7.050  22.890 -0.0605  0.1239  0.1309
68102W        W11093   7.858  34.569  19.667  0.0606 -0.3100 -0.1226
68103W        W11094  10.526  18.934  17.191 -0.1028  0.0948 -0.1239
68104W        W11095   4.259   0.086  18.654  0.0480  0.1768 -0.0308
68105W        W11096  18.562  33.059  14.143  0.0905  0.1801  0.4125
68106W        W11097  13.032  12.261   3.724  0.0254  0.2512  0.1967
68107W        W11098  20.127  32.064  22.297 -0.0115 -0.2837 -0.0968
68108W        W11099   8.387   2.643  20.190 -0.1969  0.0596 -0.3641
68109W        W11100  16.868  31.350  21.156  0.1697 -0.0522  0.1176
68110W        W11101  23.509   3.643  16.258  0.1672  0.0730  0.0303
68111W        W11102  11.390   6.342  23.704  0.1857 -0.0805  0.2366
68112W        W11103   2.393   0.616   0.551 -0.1369 -0.2623 -0.0607
68113W        W11104  21.074  10.308  18.061 -0.3887  0.2014  0.1747
68114W        W11105   8.772   8.266  27.313  0.0710  0.0110 -0.5420
68115W        W11106  25.454   6.111  14.306 -0.0655  0.0401 -0.2985
68116W        W11107  13.986  17.027  16.953  0.2244  0.2604  0.2542
68117W        W11108  10.002  13.041  16.994  0.3368 -0.0491 -0.0625
68118W        W11109  27.996   7.104  16.037  0.0094 -0.3279 -0.0689
68119W        W11110  33.012   2.004  14.795  0.0784 -0.0398  0.0927
68120W        W11111  21.891   1.483  14.695 -0.3084  0.2730 -0.0358
68121W        W11112   8.766  33.333  15.114  0.1605  0.0304  0.0052
68122W        W11113  25.254   3.554  14.785 -0.0206  0.0889 -0.0727
68123W        W11114  27.232  17.323   0.422  0.0568  0.2307  0.0821
68124W        W11115   7.341  14.410  19.050  0.0133  0.3104  0.3162
68125W        W11116  22.685  10.972  24.129  0.0156 -0.0208 -0.2702
68126W        W11117  12.920  31.569   3.406  0.1555  0.1041 -0.0860
68127W        W11118  27.466  27.540  22.956 -0.0067 -0.2310 -0.0269
68128W        W11119  26.182  17.065  19.319 -0.0269 -0.0061 -0.0322
68129W        W11120  21.594   6.759  18.959  0.2265 -0.2546 -0.0553
68130W        W11121  19.021  11.994  22.608 -0.1725  0.3426 -0.2671
68131W        W11122  12.694  25.693  28.817 -0.2569  0.0730 -0.1491
68132W        W11123  30.799  10.386  25.533  0.1576  0.1008 -0.3323
68133W        W11124  14.061   7.988  17.579  0.1044  0.0663  0.0418
68134W        W11125   1.410   1.165   7.175 -0.1289  0.0205 -0.1206
68135W        W11126  14.105  34.412  18.252  0.1813 -0.4046  0.1887
68136W        W11127  12.680   6.752  20.777 -0.0931  0.1734 -0.3371
68137W        W11128  18.498   4.209  18.585  0.1454  0.0470  0.0614
68138W        W11129  19.268   6.769  18.569  0.1787 -0.1133  0.1282
68139W        W11130   9.038  14.970  18.900  0.1497 -0.3290  0.1588
68140W        W11131  21.863  24.604  15.739  0.3498  0.1591  0.3501
68141W        W11132  24.465  13.774  17.240 -0.0620 -0.0395  0.2619
68142W        W11133  28.261  22.639  28.469 -0.1432  0.2205 -0.2121
68143W        W11134  19.534  32.536  26.398 -0.1929  0.1511  0.1043
68144W        W11135  26.016   0.731  27.015  0.0205  0.0051 -0.1854
68145W        W11136  30.930   2.023  24.879 -0.0181  0.3652 -0.1233
68146W        W11137   7.169   4.735  28.263  0.0453 -0.1281  0.1588
68147W        W11138  27.502  30.798  27.923 -0.2812 -0.0939  0.0820
68148W        W11139  15.076   2.534   4.421  0.3758 -0.1092 -0.0746
68149W        W11140  20.285  21.406  16.124  0.1321  0.2883  0.3084
68150W        W11141   4.760  28.454  15.597  0.0503 -0.2144  0.1051
68151W        W11142  22.096   3.821  26.391  0.1322 -0.0029 -0.2858
68152W        W11143  15.906   0.248  26.412  0.2890 -0.1568  0.0813
68153W        W11144  13.156   5.696  27.051 -0.0746  0.1822 -0.1580
68154W        W11145  25.228  14.877  16.496  0.2754 -0.0478 -0.1922
68155W        W11146  21.898  25.777  20.000 -0.3080 -0.2385 -0.0185
68156W        W11147   0.600  10.743  16.491 -0.0513  0.0117  0.0048
68157W        W11148  13.644   1.140  20.433  0.1870 -0.3604 -0.0017
68158W        W11149  20.608   6.067  14.395 -0.3560  0.1050  0.0629
68159W        W11150  31.521  32.515  16.332 -0.2366  0.0752  0.0498
68160W        W11151  10.418   0.024   6.008 -0.0903 -0.0881  0.0922
68161W        W11152  29.506   9.034  15.363  0.4270  0.0482 -0.1515
68162W        W11153  30.825  14.343  17.942 -0.0194  0.2150 -0.1777
68163W        W11154   7.146  15.598  24.719  0.3675 -0.4457  0.1272
68164W        W11155  10.708  25.313  16.027  0.2012 -0.0411 -0.0913
68165W        W11156  27.304  27.265  29.129 -0.1592  0.1618 -0.4448
68166W        W11157  29.242   9.750  20.703  0.0160 -0.1396  0.1382
68167W        W11158  31.122  12.908   0.300  0.0388 -0.1751 -0.1423
68168W        W11159   8.238  30.784  21.788  0.0230  0.1828  0.5788
68169W        W11160  15.869   6.111   5.244 -0.1538  0.1311  0.0125
68170W        W11161  14.741   4.627  20.392  0.0109  0.0968  0.1465
68171W        W11162   9.854   1.478  28.381  0.2749  0.2773  0.3812
68172W        W11163  17.816  32.076  23.669  0.1350 -0.2307  0.0203
68173W        W11164  25.200   8.884   1.028  0.2710 -0.1951  0.1822
68174W        W11165  10.175   1.060  16.645 -0.2009  0.5647 -0.1479
68175W        W11166   9.417   1.450  17.615  0.0323  0.3730 -0.0216
68176W        W11167  26.420   8.304  22.437 -0.0555  0.1876  0.0484
68177W        W11168  22.552  33.851  24.558 -0.0450 -0.1119  0.1015
68178W        W11169  14.126   9.605  24.154  0.1536 -0.1820  0.1288
68179W        W11170   8.865   1.117  14.800 -0.1192 -0.0622  0.1701
68180W        W11171  23.021   3.419   4.190  0.0962  0.2720  0.2700
68181W        W11172  31.700  26.560  23.869  0.1909  0.1886 -0.1038
68182W        W11173  10.361  33.749  24.693 -0.0670  0.0878  0.0744
68183W        W11174  26.692   2.241  21.039 -0.1122  0.1462 -0.0831
68184W        W11175  29.188   6.042   2.483 -0.0686  0.1002 -0.2446
68185W        W11176  27.142   1.631   5.943  0.1867  0.0198 -0.0746
68186W        W11177   6.375  11.975  18.412 -0.0941  0.3890 -0.1882
68187W        W11178  22.014  34.757  24.053  0.0313 -0.2046 -0.2029
68188W        W11179  16.099  30.449  23.776 -0.1735  0.3825  0.2505
68189W        W11180  19.115   9.809  19.724  0.1035 -0.0028 -0.1541
68190W        W11181  21.314  10.992  14.296  0.3403 -0.0450  0.0253
68191W        W11182  15.444  11.069  20.502  0.1515  0.1512  0.4406
68192W        W11183   7.861  11.505  16.958  0.0852  0.2149  0.2316
68193W        W11184  19.923  33.525  16.045 -0.1626  0.2781  0.2055
68194W        W11185  31.470  18.585  25.029  0.0919  0.0195 -0.3369
68195W        W11186  15.664   1.326   2.400 -0.0538 -0.0020  0.0099
68196W        W11187  11.903  17.576  28.452  0.3967  0.1912  0.0285
68197W        W11188   9.733  32.712  26.233  0.2741  0.1993 -0.1377
68198W        W11189   2.986  27.273  13.995  0.3814 -0.0537 -0.2640
68199W        W11190   0.225  34.745  13.936 -0.2191 -0.0292 -0.1020
68200W        W11191  11.880   1.171  15.610  0.4913 -0.4174  0.1439
68201W        W11192  18.521   0.734  22.023  0.3706  0.0608 -0.0018
68202W        W11193  23.615   4.368  19.344  0.2551  0.4129  0.3296
68203W        W11194   8.029  30.970  19.030 -0.0830 -0.3329 -0.2442
68204W        W11195  17.015  33.523   4.665 -0.0430 -0.2457  0.3924
68205W        W11196  20.572  30.980  28.845 -0.0043  0.1088 -0.2788
68206W        W11197  22.072  19.579  26.226 -0.2145 -0.1033 -0.0541
68207W        W11198  11.966  27.911  21.108 -0.1545  0.3291  0.3011
68208W        W11199  16.789   4.513   1.749 -0.0244 -0.1605 -0.1785
68209W        W11200   6.248   2.946  19.200  0.0157 -0.0150 -0.0804
68210W        W11201  15.668  27.725  26.596 -0.0644  0.1139 -0.1535
68211W        W11202   8.064  11.377  17.896  0.0401  0.5129 -0.1142
68212W        W11203  11.390   3.578  29.058  0.2164 -0.1479 -0.1662
68213W        W11204  17.569   5.108  14.317  0.1944  0.0711  0.0367
68214W        W11205   4.663  13.363  18.625  0.1251  0.0187 -0.2358
68215W        W11206   5.831  23.590  15.770 -0.0085 -0.0293 -0.0471
68216W        W11207  21.415  29.629  18.167 -0.0519  0.2420  0.0321
68217W        W11208   3.586  14.712  17.397  0.2467  0.1984 -0.0358
68218W        W11209  32.147   2.861  21.686  0.1828  0.1113 -0.1256
68219W        W11210  12.327  19.756  18.158  0.1855 -0.3312  0.1228
68220W        W11211   7.206   1.689  14.300  0.3717 -0.1088 -0.0287
68221W        W11212   4.874  27.779  22.459  0.2226  0.1949  0.0887
68222W        W11213  29.756   8.715  15.804 -0.0206 -0.3216  0.1051
68223W        W11214  21.401  29.362   0.573 -0.0863 -0.0881 -0.2239
68224W        W11215  18.132   1.978  22.854  0.1628  0.2290 -0.2340
68225W        W11216  21.420   9.441  15.238 -0.0972 -0.1490  0.3873
68226W        W11217   8.686   3.775  26.235  0.1905  0.0016  0.3520
68227W        W11218  16.019  33.096  14.334  0.1908  0.0109 -0.1010
68228W        W11219  16.049  33.824   2.614  0.1580 -0.0880 -0.0396
68229W        W11220   5.108   0.081  21.286  0.1159 -0.0362  0.3373
68230W        W11221  11.060  13.333  19.428  0.1769 -0.0066  0.0202
68231W        W11222  10.619   7.828  24.560 -0.2093 -0.2359  0.0368
68232W        W11223  17.537   4.928  17.414 -0.0662  0.0215  0.0153
68233W        W11224  33.645   2.084  23.277 -0.1555  0.1184  0.1935
68234W        W11225  15.372   1.607  23.015 -0.1907  0.1460 -0.3116
68235W        W11226  10.241  24.798   6.453  0.0001 -0.3178 -0.0106
68236W        W11227  21.470   0.462   3.204 -0.3461 -0.2943  0.1643
68237W        W11228   6.974  19.362   0.304 -0.0708  0.0595  0.0052
68238W        W11229  26.022  28.572  26.477  0.1279  0.3149  0.1234
68239W        W11230  21.630   4.110  15.681  0.0371  0.4190  0.2648
68240W        W11231  15.241   9.085  15.600  0.1621  0.0858 -0.0112
68241W        W11232  21.462   2.395  24.245 -0.0278 -0.0364  0.2601
68242W        W11233  11.799   2.643  14.604 -0.2313 -0.2532 -0.2083
68243W        W11234  22.779   7.453  16.068  0.1007  0.1266  0.2164
68244W        W11235  15.178   1.313   1.645  0.2028 -0.0174  0.1371
68245W        W11236  16.243  30.780  17.198  0.0028 -0.1003 -0.3605
68246W        W11237   5.763   2.743  23.090 -0.0494 -0.4506 -0.1974
68247W        W11238  26.321  22.814  10.156  0.1790 -0.1073  0.0612
68248W        W11239  24.368  21.523   6.790 -0.3032 -0.0588 -0.1515
68249W        W11240  15.119  25.939  21.921 -0.2918  0.4250 -0.0948
68250W        W11241   6.234  16.210   3.350 -0.0426 -0.1102 -0.0193
68251W        W11242  20.630  30.077  14.941  0.2012 -0.0095  0.0877
68252W        W11243  23.638  32.259  15.566  0.1019  0.0009 -0.0611
68253W        W11244   3.088   5.836  24.067 -0.0068 -0.3355 -0.1647
68254W        W11245  14.992  29.180  15.275 -0.0673 -0.0128  0.1153
68255W        W11246  21.229   7.987   9.300  0.2034  0.1078 -0.0510
68256W        W11247   4.791  22.594  25.985 -0.1505 -0.0913 -0.0455
68257W        W11248  11.380  13.501  22.800  0.0740 -0.1188 -0.2244
68258W        W11249  13.051   0.603   3.736 -0.0737  0.0765  0.3529
68259W        W11250  16.790   6.554  17.009  0.0363  0.3972  0.0201
68260W        W11251  27.152  12.079  17.029 -0.1542  0.2062 -0.1656
68261W        W11252   3.667  10.500  20.423  0.0115  0.0523 -0.2332
68262W        W11253  30.683  28.105  21.186  0.0575  0.0370  0.0477
68263W        W11254  22.518  31.108  20.066  0.5435  0.3683  0.3786
68264W        W11255  33.502  32.889  20.963 -0.2755 -0.1232  0.0373
68265W        W11256  17.160   4.494  26.448  0.1405  0.0793  0.1634
68266W        W11257   2.761   2.400  16.008  0.1978  0.1077 -0.1558
68267W        W11258  14.072  29.404  21.859  0.1792  0.0868 -0.1968
68268W        W11259  19.166  32.691  17.109  0.3616  0.1591 -0.1720
68269W        W11260  18.638  25.372   0.040 -0.2246 -0.2672 -0.2460
68270W        W11261  32.669   9.327  18.212 -0.1763 -0.0825 -0.0115
68271W        W11262  33.542  14.513  22.489 -0.2879 -0.1705  0.2756
68272W        W11263  24.883  34.773   7.481 -0.1784  0.0883 -0.1669
68273W        W11264  18.799  10.987  19.860 -0.0558 -0.1715 -0.0299
68274W        W11265  20.572  16.647  23.435  0.0098  0.0842  0.0340
68275W        W11266  17.762   4.542   3.085  0.2732 -0.1034 -0.0065
68276W        W11267  20.326  31.479  20.865  0.4487 -0.0417 -0.2565
68277W        W11268  17.655  15.229  26.242  0.0250 -0.0143 -0.2576
68278W        W11269   2.746  10.096  12.077 -0.1252 -0.0606 -0.0661
68279W        W11270  22.478  33.273  24.965 -0.0943  0.1209  0.2631
68280W        W11271   4.167   7.884   9.209  0.2476 -0.3953  0.0637
68281W        W11272   4.689   2.537  21.819  0.2520 -0.0144 -0.2922
68282W        W11273  19.180  24.988  20.644  0.1264 -0.1768 -0.0227
68283W        W11274  11.647  32.070   0.402 -0.1710 -0.0879  0.0855
68284W        W11275  20.170   5.028   4.988  0.3746 -0.3114  0.0659
68285W        W11276  17.206  30.330  14.761  0.1670 -0.2404 -0.1359
68286W        W11277  24.332  11.451  16.170 -0.0603 -0.2154 -0.1196
68287W        W11278  19.274  12.771   0.106  0.0194  0.1017  0.1037
68288W        W11279  18.544  12.205   0.650  0.1187  0.2201 -0.2416
68289W        W11280  16.424  14.701  19.878 -0.0697  0.0929  0.1757
68290W        W11281  14.877  21.293  25.209  0.0618 -0.2359 -0.2095
68291W        W11282  20.258  13.196  15.844  0.2283 -0.1267 -0.2343
68292W        W11283  15.190   9.261  23.187  0.0029 -0.1649 -0.0213
68293W        W11284  20.978  23.638  26.374 -0.3122 -0.0916  0.1185
68294W        W11285  17.325  32.711  16.492 -0.0793  0.2053  0.0313
68295W        W11286  28.789  33.497  22.614 -0.2192  0.0032  0.3932
68296W        W11287   6.617   8.056  26.807  0.0235 -0.1221  0.0079
68297W        W11288  31.914   7.419   7.450  0.0013 -0.0799 -0.0585
68298W        W11289   5.667   9.374  25.101  0.1436  0.1844 -0.1153
68299W        W11290  29.758   6.154  24.957 -0.0590  0.2763  0.1398
68300W        W11291   0.864   7.650  23.060 -0.0047 -0.2343 -0.0269
68301W        W11292  34.448   9.459  20.141  0.0855 -0.3968  0.0148
68302W        W11293  24.611  29.182   0.629 -0.0071  0.0616 -0.2244
68303W        W11294  12.277   3.879  18.547  0.0742  0.1619 -0.0757
68304W        W11295  12.331  14.904  25.762  0.1713  0.4218 -0.3417
68305W        W11296  13.343   5.903   6.160  0.1268 -0.1894  0.5401
68306W        W11297  13.860   1.674  21.473  0.0647 -0.2642  0.2118
68307W        W11298  14.042  29.236  13.785 -0.0994 -0.1779  0.0912
68308W        W11299  17.620  12.702  20.065 -0.0717  0.0086  0.1740
68309W        W11300   3.988  28.515   8.893 -0.2415 -0.2515 -0.2822
68310W        W11301  14.671   1.971  23.944  0.0509 -0.1052 -0.1285
68311W        W11302  33.871   3.750  25.637 -0.0595 -0.2151  0.2434
68312W        W11303  14.546   5.657  21.988  0.0366 -0.0580  0.1050
68313W        W11304  10.097   5.959  21.152  0.2392 -0.0273 -0.0538
68314W        W11305  16.024  22.002  24.461  0.0209  0.3210  0.0949
68315W        W11306  24.464   9.129  20.217  0.0669 -0.0333 -0.1641
68316W        W11307  16.907   4.682   4.088  0.1589 -0.1035  0.2712
68317W        W11308  20.841   0.422  14.786  0.1373  0.2756  0.0732
68318W        W11309   9.443   3.127  26.515 -0.1986 -0.2286  0.2880
68319W        W11310   6.895   4.658   0.772 -0.3461 -0.0060 -0.0319
68320W        W11311  10.413   5.177  18.138  0.0059 -0.1083  0.1412
68321W        W11312  21.577  31.011   6.891 -0.1402  0.1740  0.0137
68322W        W11313  12.390  13.341  14.804  0.0040 -0.0031 -0.0823
68323W        W11314  20.448  13.167  20.107 -0.1334 -0.4179 -0.0840
68324W        W11315  12.679  26.571  19.243  0.0481  0.0440 -0.0684
68325W        W11316  23.810   3.095  24.379  0.3634 -0.2634  0.1554
68326W        W11317  10.998   1.826  25.578 -0.1074  0.1658 -0.1756
68327W        W11318   2.496   3.411   2.434 -0.0531 -0.0697 -0.3697
68328W        W11319  20.115  26.888  17.561  0.0387  0.1300 -0.1629
68329W        W11320  34.033  13.045  16.266 -0.3134 -0.2946 -0.1303
68330W        W11321   9.294  30.651  19.678 -0.2483  0.0705  0.0211
68331W        W11322  21.964   1.599  19.755 -0.0312  0.1257  0.1029
68332W        W11323   1.169   8.789  18.390  0.0019  0.2445 -0.3489
68333W        W11324  23.999  25.570   1.745 -0.0647  0.1145 -0.0761
68334W        W11325  11.907  14.018   1.282 -0.0594 -0.0566  0.2706
68335W        W11326  13.619  30.996  23.528 -0.1114 -0.1569  0.0727
68336W        W11327  21.836  31.590  26.251  0.0020 -0.3469  0.0320
68337W        W11328  16.595  34.663  15.039  0.2366  0.1765 -0.0451
68338W        W11329  22.360   6.310   2.905 -0.0016 -0.1043  0.0901
68339W        W11330  23.068  11.829   1.717 -0.1402 -0.0716 -0.0700
68340W        W11331  10.310  33.821  28.136  0.1637  0.0136 -0.3461
68341W        W11332   7.701  19.817  29.037 -0.0070 -0.0370 -0.2226
68342W        W11333   7.917  12.890   1.496 -0.2119 -0.3748  0.0325
68343W        W11334  11.541  20.753  15.825 -0.0756 -0.2166  0.0766
68344W        W11335  13.313   1.608  23.281 -0.2256  0.0032  0.0651
68345W        W11336  25.898   5.335  25.163  0.1846 -0.3929 -0.1070
68346W        W11337  12.797  18.140  20.374  0.4307  0.0959  0.1216
68347W        W11338  24.865  19.331  21.805 -0.2458  0.1132  0.3133
68348W        W11339  30.900  32.784   8.053 -0.0674 -0.1099  0.0722
68349W        W11340   7.748  31.390  18.319  0.0395  0.1803  0.2980
68350W        W11341  30.635  32.275   1.384 -0.2452  0.0945 -0.0196
68351W        W11342  16.127  19.622   4.241  0.1596 -0.0283  0.0485
68352W        W11343  18.085  19.500  12.225 -0.2887 -0.1545  0.0990
68353W        W11344   9.220   5.401  19.542 -0.3161 -0.0417  0.0148
68354W        W11345  16.515  19.465   4.601 -0.0514  0.2305  0.0390
68355W        W11346  34.315   0.781  23.691 -0.2658  0.0246  0.3702
68356W        W11347  28.949   3.209  22.683 -0.0898  0.1468  0.0234
68357W        W11348  22.581  32.470  20.054  0.0623 -0.2143  0.2453
68358W        W11349  22.260   4.300   8.928 -0.0767  0.0049 -0.1350
68359W        W11350  11.450   9.353  26.793  0.2468 -0.0309 -0.1211
68360W        W11351   0.314   0.166  27.199  0.0556  0.1995  0.1181
68361W        W11352  21.984  26.114  27.392 -0.0234  0.0403  0.3278
68362W        W11353   8.905   3.446   9.968 -0.0572  0.0506  0.2636
68363W        W11354  30.531  33.555  20.216 -0.0861  0.2196 -0.2753
68364W        W11355  16.265   4.509   9.363  0.2034  0.1676 -0.4031
68365W        W11356  17.076  32.699  19.327 -0.0308  0.1441  0.5508
68366W        W11357  17.870  24.468  26.200 -0.0410 -0.1418  0.0581
68367W        W11358  25.561  30.764  19.029 -0.0506 -0.3456 -0.1116
68368W        W11359  17.977  12.167   4.073  0.1173 -0.1848 -0.0492
68369W        W11360  19.968  31.752  17.429 -0.0210  0.1862 -0.0950
68370W        W11361   8.210  24.660  14.255 -0.0139  0.1712  0.0395
68371W        W11362  13.535  12.598   1.333  0.0516 -0.0410 -0.2410
68372W        W11363  33.829  33.566  15.675  0.2158 -0.4318 -0.0334
68373W        W11364  22.224  29.969  13.647  0.1240 -0.3669 -0.0933
68374W        W11365  24.850   3.032  14.609  0.2379 -0.0530 -0.0460
68375W        W11366   3.352   4.243  29.076  0.1250  0.2821 -0.1025
68376W        W11367   0.159   2.575   3.618  0.2548 -0.1775 -0.1915
68377W        W11368  19.490   2.174  23.323  0.2414 -0.0957  0.0174
68378W        W11369  33.573   0.864  28.568 -0.3689 -0.2176  0.3592
68379W        W11370  19.171   4.144   1.889 -0.2602  0.0409  0.1241
68380W        W11371  12.162  16.228   1.009 -0.0777 -0.0288 -0.0221
68381W        W11372   2.276  34.157  23.914 -0.2245  0.1883  0.2414
68382W        W11373  29.442   8.645   9.517 -0.0549  0.0162 -0.1165
68383W        W11374  32.149  13.787  27.575  0.0221 -0.0472 -0.2049
68384W        W11375  26.747  17.882  26.121  0.3916  0.1041  0.0116
68385W        W11376  14.866  14.262  16.281 -0.1152  0.2539 -0.1202
68386W        W11377  20.499   1.473  24.691 -0.0863  0.0942 -0.1086
68387W        W11378  12.894   8.625  28.308  0.0158  0.2071 -0.0796
68388W        W11379  18.584  24.698  15.587  0.0680 -0.0173  0.1939
68389W        W11380   3.199   0.250  22.977 -0.2342  0.3283 -0.1095
68390W        W11381  17.457   2.937  25.964  0.0654 -0.0844  0.1616
68391W        W11382  24.516  21.931  23.747 -0.2942  0.1177 -0.3186
68392W        W11383  12.907   3.260  18.602 -0.3300  0.0220 -0.0453
68393W        W11384  17.637  34.184  20.284 -0.0133 -0.3059  0.2334
68394W        W11385   9.182  26.743  25.062  0.2294 -0.0751 -0.2529
68395W        W11386  13.917  20.482  27.438 -0.0695 -0.0237 -0.0481
68396W        W11387  16.286   2.366  15.757  0.1391 -0.0972 -0.0784
68397W        W11388  23.031  32.025  16.617  0.1686 -0.0518  0.1463
68398W        W11389   6.915  30.539  23.239  0.1208 -0.4450 -0.0991
68399W        W11390  23.421   4.390   2.303  0.0992 -0.2407  0.3052
68400W        W11391   9.966  17.798  24.641  0.3438 -0.0739 -0.1158
68401W        W11392  12.021   0.687   5.596  0.0275  0.0176 -0.2360
68402W        W11393   7.573   6.747  15.958  0.0924  0.4543 -0.1594
68403W        W11394  32.049  33.546  15.582 -0.2413 -0.0221 -0.1524
68404W        W11395  28.026   5.761   1.674  0.0512  0.1408 -0.0853
68405W        W11396   1.373   7.767  21.034 -0.1496  0.2371  0.6204
68406W        W11397   7.815  26.112  27.639  0.0840 -0.3431 -0.0498
68407W        W11398  22.677  17.207  24.535  0.0203 -0.1602  0.3547
68408W        W11399  25.598  28.256   1.234 -0.2646 -0.0543 -0.0276
68409W        W11400   1.918  34.560  25.345  0.5098  0.0560 -0.1088
68410W        W11401   4.352  11.390  28.896  0.2655  0.2576 -0.0876
68411W        W11402   3.753  14.107  16.678 -0.0881 -0.0040 -0.2732
68412W        W11403   8.142  13.650  20.543  0.4692 -0.0192 -0.0334
68413W        W11404  10.685   2.083  19.403 -0.1381  0.2141  0.3718
68414W        W11405  13.358   1.877  27.668 -0.4666 -0.0639 -0.1339
68415W        W11406  17.139   5.658   7.683  0.1608  0.0242 -0.1874
68416W        W11407  27.937  32.410  17.035 -0.2149  0.1533  0.3112
68417W        W11408  21.879  33.981  14.455  0.3521  0.0358  0.1628
68418W        W11409  17.590   5.352  16.197 -0.3300 -0.0307  0.1047
68419W        W11410  33.564  19.245   5.321 -0.0777  0.1895  0.3164
68420W        W11411  30.303   3.316  17.871 -0.0421  0.3663  0.2465
68421W        W11412   0.832   7.958  16.736  0.0912 -0.1715 -0.0821
68422W        W11413  28.738  26.990   6.533  0.0542  0.0979  0.1907
68423W        W11414  28.001  30.018  25.391  0.2545  0.1289  0.2608
68424W        W11415   1.495  26.721  25.220 -0.1935 -0.0796 -0.0593
68425W        W11416  10.217  32.463  27.960  0.0036 -0.0896 -0.1248
68426W        W11417   1.976   5.681  27.949  0.2236 -0.0253 -0.0603
68427W        W11418   7.490   4.688  22.451  0.0686  0.3376 -0.1259
68428W        W11419  19.962  16.578  25.046  0.2270  0.1425 -0.0185
68429W        W11420   5.466   2.135  18.271  0.0475 -0.0456  0.2569
68430W        W11421  19.358   0.489  26.359 -0.0056  0.1170 -0.1579
68431W        W11422  24.687  28.439   9.199 -0.0926 -0.1356  0.0851
68432W        W11423  24.817   7.224  26.784 -0.2920  0.0920 -0.2613
68433W        W11424  22.522  29.199   0.343  0.1491  0.0431 -0.3462
68434W        W11425   1.689   1.653  22.369 -0.0985 -0.1919 -0.1370
68435W        W11426  20.698   4.770  22.783 -0.1881 -0.0964  0.3310
68436W        W11427  24.982  23.234   4.124 -0.3399 -0.0320 -0.3916
68437W        W11428  24.985   4.369   9.028 -0.0082  0.0279 -0.1936
68438W        W11429  10.173   6.040  18.580  0.0776 -0.3161  0.2030
68439W        W11430  15.898  14.503  22.398 -0.1145  0.1372  0.0499
68440W        W11431  27.094   9.489  15.819  0.1024  0.1388 -0.2113
68441W        W11432  24.650   3.395  27.595 -0.1613 -0.0299  0.0292
68442W        W11433  33.799  32.929  23.455  0.0225 -0.1358 -0.3797
68443W        W11434  15.678  13.646   6.679 -0.1871  0.0438  0.1511
68444W        W11435  26.593   9.430  15.900 -0.1806  0.1443 -0.1936
68445W        W11436  31.283  13.722  15.138 -0.0717  0.0467  0.3981
68446W        W11437  19.877   1.949  24.989  0.1375 -0.0069  0.1785
68447W        W11438  13.607   6.284  21.344 -0.0637 -0.0062 -0.3136
68448W        W11439  18.729  28.442   1.805 -0.1166  0.2323  0.2070
68449W        W11440   0.350  30.658  22.449 -0.0982 -0.1971 -0.0104
68450W        W11441  14.303  29.115  17.503  0.1668  0.2109  0.0716
68451W        W11442   6.159   1.087   9.605 -0.0304  0.1648  0.0733
68452W        W11443  17.602  11.453   2.265  0.2285 -0.0261  0.3244
68453W        W11444  23.481   5.587  28.410 -0.0175  0.1264  0.1837
68454W        W11445  13.922   3.232  26.033  0.4189 -0.1644 -0.2296
68455W        W11446  10.182   8.411  17.614  0.0196 -0.1479  0.1952
68456W        W11447  15.003   4.236  17.296 -0.1208  0.4621  0.1296
68457W        W11448   6.475  31.370  19.178 -0.1267 -0.0601  0.1529
68458W        W11449  24.412   3.682  23.275 -0.0302  0.1779  0.1741
68459W        W11450  20.146  21.721  22.075 -0.2143  0.2848 -0.0349
68460W        W11451   0.754  18.608   9.527 -0.0025 -0.0202 -0.0032
68461W        W11452  13.465  30.432   9.341  0.0784 -0.1314  0.0225
68462W        W11453   3.408  28.452  24.275 -0.1369 -0.1631 -0.1299
68463W        W11454  13.103   4.207   9.782 -0.0136 -0.0721  0.1631
68464W        W11455  24.547  33.752   0.457  0.2317  0.2456  0.1285
68465W        W11456   6.988  14.997   3.550  0.0197  0.3682 -0.0503
68466W        W11457  19.173  17.993   0.628  0.0552  0.0615 -0.4596
68467W        W11458  25.818   1.221  22.127 -0.1134  0.0773  0.2023
68468W        W11459  13.325  24.329  22.051 -0.2007  0.1550  0.4876
68469W        W11460  10.210   1.000  26.736  0.4180 -0.0464 -0.2692
68470W        W11461  19.835  12.114  22.497 -0.1107  0.1851  0.1201
68471W        W11462  27.975  12.023  26.175 -0.0888  0.0052 -0.1077
68472W        W11463  24.219   3.076  21.383 -0.1749 -0.0091  0.0431
68473W        W11464   8.570   1.918  27.857 -0.0606 -0.0262  0.1306
68474W        W11465  18.931   5.890  25.585  0.0310  0.0415  0.2077
68475W        W11466  31.834   2.269   5.669  0.0553 -0.2344  0.1406
68476W        W11467  29.825  19.789  16.445  0.0389  0.1902  0.1897
68477W        W11468  33.986  29.910  13.873  0.0069 -0.1692  0.0255
68478W        W11469   7.340   4.644  22.931 -0.0997  0.0248  0.1142
68479W        W11470  27.492  28.713   5.762  0.1638 -0.0490  0.0407
68480W        W11471  26.612   3.398  23.496 -0.2939 -0.1547  0.0750
68481W        W11472  10.118  28.470  22.464 -0.4444 -0.2127  0.1697
68482W        W11473   4.595  11.873  21.463  0.1974  0.1706 -0.2816
68483W        W11474  15.126   3.077  15.201 -0.0318  0.1818 -0.1650
68484W        W11475  15.509  11.561  20.397 -0.2645 -0.1173  0.0423
68485W        W11476  10.413  26.669   7.455 -0.0534  0.1633 -0.1598
68486W        W11477  27.559  31.308  15.520 -0.1145  0.4108 -0.0942
68487W        W11478  26.248  14.211  20.233 -0.0071  0.3208  0.0826
68488W        W11479  27.749  34.614  16.637  0.0512  0.2536 -0.5231
68489W        W11480   5.940  16.963  10.571 -0.0801 -0.4236 -0.1308
68490W        W11481   7.378  27.382   8.616 -0.0655  0.0651 -0.0969
68491W        W11482  14.807   4.390  21.848 -0.2355 -0.3539  0.0059
68492W        W11483   9.286  33.673  23.603  0.0675  0.0465 -0.1214
68493W        W11484  33.654   5.326   8.123  0.1364 -0.2377 -0.0545
68494W        W11485  13.110   3.806   5.853 -0.0259  0.0132 -0.1390
68495W        W11486   9.751   3.807  28.873  0.0633  0.0256  0.1933
68496W        W11487  10.330   5.572  26.594  0.4030 -0.1412 -0.0568
68497W        W11488   2.875  24.752  19.766 -0.1927  0.1846 -0.0160
68498W        W11489  23.330  18.271  16.897  0.0969 -0.2197 -0.0431
68499W        W11490  30.934   5.450   6.343 -0.0357 -0.0551 -0.1634
68500W        W11491  31.269  14.397  23.972  0.0123  0.0776 -0.2669
68501W        W11492  19.020  26.792   8.316  0.1431 -0.3200  0.0006
68502W        W11493  14.262  29.044  26.318 -0.1217 -0.0877  0.0336
68503W        W11494   8.176  18.140  26.939 -0.0947 -0.1197  0.0770
68504W        W11495  24.491  26.329  15.218  0.0786  0.0320 -0.0228
68505W        W11496  25.803  18.350  19.582  0.2201  0.1811 -0.2420
68506W        W11497  18.858  12.700   6.742 -0.0834 -0.4328 -0.3239
68507W        W11498   2.662  29.046   5.250 -0.2022 -0.3173  0.0134
68508W        W11499  31.164  26.940  17.393 -0.1302  0.3109 -0.0108
68509W        W11500  24.884  13.601  18.616  0.0713  0.1653 -0.0242
68510W        W11501  22.421  10.180  26.939 -0.0815  0.1044  0.1935
68511W        W11502  34.786  27.695  23.337  0.0573  0.0502  0.0169
68512W        W11503  30.511   6.002  14.515  0.1915 -0.0940 -0.3101
68513W        W11504  16.907  12.090  14.888  0.1529 -0.0618 -0.1044
68514W        W11505  28.985  13.663   4.194  0.3629 -0.1766  0.1281
68515W        W11506   1.071  10.756  24.357  0.2988  0.0265  0.0652
68516W        W11507  22.666   0.974   6.404 -0.1260 -0.0016 -0.1778
68517W        W11508   9.858   3.140   8.590 -0.0524 -0.4177 -0.0984
68518W        W11509   2.473  34.125  26.922  0.3075  0.2610  0.2026
68519W        W11510  22.642   9.351  13.620  0.3111  0.1611  0.1923
68520W        W11511  34.315  28.228   9.291 -0.0228 -0.3993 -0.0972
68521W        W11512  17.290  26.283  20.512 -0.0503  0.2319  0.0473
68522W        W11513  25.783  28.618  25.237 -0.3086  0.1673  0.0188
68523W        W11514   5.287  31.051   7.874 -0.1938  0.0116 -0.3187
68524W        W11515  13.126   5.008  16.462 -0.1804  0.0775  0.2837
68525W        W11516  25.814  30.769  20.676  0.0531 -0.0384  0.1344
68526W        W11517   9.696  29.231  18.429  0.0733 -0.0724  0.1226
68527W        W11518   5.512   9.803  21.733  0.0189  0.1260  0.0543
68528W        W11519  18.352  27.736  10.072  0.1022  0.2763 -0.1048
68529W        W11520  28.233  19.902  27.791 -0.0007 -0.0016  0.0068
68530W        W11521  13.001   6.430  10.184 -0.1718 -0.0157 -0.1309
68531W        W11522  11.847   0.675  18.075  0.0531  0.4770  0.2670
68532W        W11523  18.881   9.376  21.501 -0.1224 -0.0481 -0.0044
68533W        W11524  14.284  32.845   1.599 -0.2337 -0.0819  0.1522
68534W        W11525   4.228  24.160  16.152 -0.1441 -0.0088  0.0493
68535W        W11526   1.352   3.095  21.812  0.1818  0.0742  0.0477
68536W        W11527  16.295  27.366   0.761 -0.0559 -0.3828  0.0271
68537W        W11528  23.496   1.792  27.957 -0.2907 -0.1206 -0.0924
68538W        W11529  20.291   3.230  24.756  0.1989  0.1415  0.0247
68539W        W11530  14.636   3.551  15.390  0.1144  0.1623  0.2271
68540W        W11531   5.698   3.736  23.296 -0.1098  0.1137 -0.1376
68541W        W11532  33.460  14.429  20.193 -0.0208 -0.0320 -0.0430
68542W        W11533  22.265  32.057   3.767  0.1618 -0.0875 -0.0328
68543W        W11534  25.970  14.152   3.403  0.3014 -0.0424  0.1432
68544W        W11535  21.984  22.376  22.448  0.0327 -0.0184 -0.0218
68545W        W11536  13.584   0.453  27.769 -0.0618  0.2009 -0.1525
68546W        W11537  28.985  12.294   0.143  0.0573 -0.0683 -0.1303
68547W        W11538  15.682   6.987  19.872  0.1205 -0.1970 -0.0988
68548W        W11539  28.029  10.333  24.760 -0.1279  0.2566  0.1063
68549W        W11540  26.539  22.283   0.409  0.0492  0.0138 -0.4136
68550W        W11541   6.307  16.730  21.987  0.2363 -0.0310  0.0471
68551W        W11542  15.750  34.035  20.201 -0.1464 -0.0431 -0.1320
68552W        W11543  11.867  26.595  20.101 -0.2865 -0.2908  0.0088
68553W        W11544  19.428   6.853  23.915  0.2190 -0.0260  0.0009
68554W        W11545   3.531  28.736  18.046  0.2334  0.1562 -0.2983
68555W        W11546  25.308  31.996  26.493 -0.0137  0.1759 -0.2848
68556W        W11547  21.349  27.521  23.108 -0.1681  0.2300  0.2399
68557W        W11548  19.170  23.369   5.440 -0.1988  0.0043 -0.4640
68558W        W11549  10.015  33.253  19.894  0.2311  0.1656 -0.2053
68559W        W11550  20.087   4.613  18.716  0.0064  0.0183  0.0255
68560W        W11551   1.614  33.942   0.082 -0.1338  0.1750  0.1093
68561W        W11552  25.881   0.412  20.467  0.4067 -0.0608  0.1183
68562W        W11553  13.352  24.989  22.162  0.0159  0.2212 -0.0674
68563W        W11554  32.745  34.669  20.960 -0.1060  0.2439 -0.3091
68564W        W11555  23.592  30.890  27.269 -0.0671 -0.1828  0.1340
68565W        W11556  20.955  33.234  23.929 -0.1791  0.3178 -0.2024
68566W        W11557  18.632  16.112   0.336  0.0482  0.1589  0.0449
68567W        W11558   8.176   1.081  21.193 -0.0356 -0.0731  0.0056
68568W        W11559  11.983   2.790  22.307 -0.1101  0.1581  0.0520
68569W        W11560  11.916   6.891  14.821  0.1527  0.1065  0.4017
68570W        W11561   9.489   0.567  19.329 -0.0136  0.3036  0.1597
68571W        W11562  25.346   2.790  13.195 -0.1858 -0.1685 -0.1255
68572W        W11563  21.900   7.918  16.850  0.0700  0.3233 -0.0329
68573W        W11564  22.592  17.636   4.416 -0.1177 -0.3463  0.0171
68574W        W11565  18.240   9.380  16.000  0.2488  0.4216  0.0919
68575W        W11566   0.507  19.094  22.438 -0.0086 -0.1092 -0.4430
68576W        W11567   8.894  17.352  20.478 -0.2140 -0.1310  0.0315
68577W        W11568  20.079  31.625  13.567 -0.3872 -0.1819 -0.2452
68578W        W11569  13.822   6.706  15.959  0.1095 -0.0976  0.0307
68579W        W11570  32.435  28.957   0.107 -0.0492 -0.1067 -0.2511
68580W        W11571  10.803   9.515   0.436 -0.2583  0.0115  0.0604
68581W        W11572   6.443   7.187  16.299 -0.0876  0.1169  0.1262
68582W        W11573   4.084   6.122  24.685 -0.0265 -0.2504  0.2354
68583W        W11574  18.421   5.841   3.255 -0.2016 -0.1322 -0.0873
68584W        W11575  29.127  10.664  24.333  0.0466  0.0942 -0.1678
68585W        W11576  18.981  31.236   5.576  0.1404 -0.0942 -0.0051
68586W        W11577  16.141  11.028  25.761 -0.0747  0.2085 -0.3887
68587W        W11578  23.734  26.690  26.600 -0.0113 -0.2247 -0.1019
68588W        W11579   2.921  30.508   6.930 -0.3896 -0.1040 -0.2294
68589W        W11580  29.513   1.961  14.817  0.0943 -0.2000 -0.0459
68590W        W11581  18.375   1.790  16.268 -0.0045 -0.1509 -0.0865
68591W        W11582  24.427  33.129  20.966 -0.2951  0.0809  0.0685
68592W        W11583   9.140  29.141  17.162 -0.0238  0.1889 -0.0934
68593W        W11584   5.730  31.301  18.834 -0.1197 -0.2210  0.0688
68594W        W11585  10.437   3.904  22.428  0.2146 -0.1545 -0.1210
68595W        W11586   8.918  20.175  14.956  0.0990 -0.2341  0.1829
68596W        W11587  14.521  24.919  21.398  0.1009  0.3018 -0.2464
68597W        W11588  14.376   0.306  28.117 -0.0859  0.0035  0.0237
68598W        W11589  20.387  31.945  17.854  0.1404 -0.1404 -0.1201
68599W        W11590   6.281   1.065  21.326 -0.0668  0.1212 -0.0619
68600W        W11591  28.173  30.453  25.192  0.3594  0.2115  0.1885
68601W        W11592  23.163  20.615  12.334 -0.1041  0.1478 -0.0720
68602W        W11593  21.347   1.399  17.375 -0.4556 -0.1995  0.0908
68603W        W11594  13.639  12.788  22.026 -0.0821 -0.4464 -0.1070
68604W        W11595   7.291  12.560  16.889 -0.1967 -0.0463 -0.0078
68605W        W11596  15.780   4.210   3.135  0.1644  0.0648  0.2932
68606W        W11597   7.419   3.270   9.827 -0.0674 -0.0823 -0.0631
68607W        W11598  17.787  20.060  15.215  0.0769  0.1266  0.3410
68608W        W11599  26.831  32.068  19.182  0.2054 -0.1593  0.0915
68609W        W11600   0.793  33.362  22.383  0.0299 -0.0731  0.1293
68610W        W11601  19.497   6.465  15.764 -0.0066 -0.4375  0.1492
68611W        W11602  20.643   5.964  15.164 -0.2234  0.1775  0.0775
68612W        W11603  21.634  10.085   5.655  0.3218 -0.1293 -0.1799
68613W        W11604  27.242   3.506  15.440 -0.0002  0.3423 -0.2469
68614W        W11605  24.519   6.368  24.091  0.1771 -0.0047 -0.2235
68615W        W11606  14.948   1.042   7.536 -0.0293  0.1973 -0.0579
68616W        W11607   6.645  20.181  27.098  0.0785 -0.1512  0.4252
68617W        W11608  10.992   3.303  18.807 -0.1008 -0.1144  0.3075
68618W        W11609  13.050  12.513   4.207  0.1907 -0.1000  0.0851
68619W        W11610  25.827  26.515  21.906 -0.1100 -0.0385  0.0505
68620W        W11611  19.846  34.468   1.822  0.0827 -0.1585  0.2455
68621W        W11612   6.295  16.193  14.673  0.0234 -0.0650  0.1129
68622W        W11613  15.349  27.101   1.090 -0.0295  0.5615 -0.2692
68623W        W11614  11.746  19.461   5.591  0.4331  0.1084  0.1306
68624W        W11615  25.644  27.404  24.171 -0.0925 -0.1997 -0.1715
68625W        W11616  14.100  31.461   3.023  0.0527 -0.1372  0.0506
68626W        W11617  18.566  27.096   9.105 -0.0867 -0.0963 -0.1885
68627W        W11618  17.837  28.322  25.088 -0.1133 -0.3314  0.3826
68628W        W11619  13.267   1.430  29.258 -0.0400 -0.1267  0.2132
68629W        W11620  16.932  22.128  15.847  0.0817  0.3470  0.0054
68630W        W11621  11.030   8.620  23.124  0.1747  0.0372  0.2696
68631W        W11622  16.931  21.656  23.462 -0.2254  0.0514 -0.1534
68632W        W11623   7.811   7.892  20.162  0.0194  0.1728  0.2836
68633W        W11624  25.831  25.201  19.927 -0.2746 -0.3776 -0.0043
68634W        W11625   5.137  31.286   3.279  0.0306 -0.0416 -0.0243
68635W        W11626  21.744  12.461  29.162  0.2296  0.2665  0.2292
68636W        W11627   5.498  15.906  15.915 -0.3555 -0.0132 -0.2270
68637W        W11628  26.805   7.721   9.715 -0.0980  0.2546 -0.2276
68638W        W11629  14.309  14.183   8.518  0.1059 -0.1430  0.1415
68639W        W11630  16.226  17.945  25.258 -0.0957  0.0131  0.2328
68640W        W11631   0.416  31.390   6.672 -0.4492  0.0926 -0.5052
68641W        W11632  29.141  15.479  22.196  0.1973  0.0319  0.0061
68642W        W11633  19.548   5.529  24.939 -0.0748  0.4778  0.2749
68643W        W11634  31.980   3.878  21.895 -0.3036 -0.0970  0.0687
68644W        W11635  15.267   7.671  27.056  0.2096 -0.2020  0.2744
68645W        W11636   5.468   7.226  15.923  0.1758  0.0771 -0.0163
68646W        W11637   4.569  15.742  26.151  0.0107  0.0097  0.1535
68647W        W11638  15.427  27.893  24.396  0.4106  0.1647 -0.0891
68648W        W11639  22.574  33.989  18.358  0.1082  0.0592  0.0095
68649W        W11640  22.208  33.123   1.450  0.0137 -0.0066 -0.0308
68650W        W11641  18.603  15.014   3.005  0.0190 -0.1730 -0.0107
68651W        W11642  22.672   4.768  29.235  0.0450  0.0240  0.1764
68652W        W11643  13.549   8.753   1.150 -0.3218  0.0690  0.2176
68653W        W11644   4.918  30.449  16.297 -0.1231 -0.2390 -0.2862
68654W        W11645   2.962   9.469   3.133 -0.1082  0.0391 -0.1606
68655W        W11646  33.258  29.549  21.177 -0.2131 -0.0516  0.1192
68656W        W11647  32.151  28.233  24.586 -0.3490 -0.0007  0.1842
68657W        W11648  18.776  29.497  16.502 -0.1796  0.1068  0.2253
68658W        W11649   6.113  28.736  16.618 -0.3214  0.0562 -0.1111
68659W        W11650   7.226  10.953  20.742  0.0224 -0.2772 -0.2859
68660W        W11651  30.478   8.335   5.673  0.2916 -0.4507  0.0101
68661W        W11652  12.592   1.161  22.650  0.0988  0.3608  0.0355
68662W        W11653   1.931  31.884   9.024  0.2047 -0.0943 -0.1914
68663W        W11654  13.717  27.574   3.337  0.0329 -0.2861  0.0293
68664W        W11655  20.395  19.029  14.662  0.3376 -0.1450  0.0521
68665W        W11656  28.779   5.225  19.666 -0.2782  0.3738  0.2441
68666W        W11657  13.188  16.249   0.466  0.0466  0.0171  0.1099
68667W        W11658  18.034  29.668  23.685 -0.0461  0.1965  0.0091
68668W        W11659   5.736  24.554  16.815 -0.0178  0.1066  0.4181
68669W        W11660  10.972  14.824  26.941  0.2770  0.1281  0.1192
68670W        W11661   5.023  22.461  28.393  0.0114 -0.0707  0.1890
68671W        W11662  31.103   3.139   1.964 -0.0614 -0.0289  0.3655
68672W        W11663  11.807  15.492   0.950 -0.0858  0.1344  0.0273
68673W        W11664  13.988  32.572  19.290 -0.0045 -0.1117 -0.0820
68674W        W11665  30.702  23.292   1.668 -0.0303 -0.0086  0.1345
68675W        W11666  16.852  28.719   6.676  0.3762 -0.0630  0.0882
68676W        W11667  21.908   2.944  25.965  0.0395  0.2379 -0.0634
68677W        W11668  14.669  12.905  24.338  0.2529  0.1095 -0.0972
68678W        W11669  16.578  23.345   2.927  0.1398 -0.3292  0.3521
68679W        W11670  22.657  27.898  25.160 -0.2994 -0.1483 -0.1253
68680W        W11671  17.987   3.278   3.166 -0.2330 -0.0737 -0.0534
68681W        W11672  18.212   7.142  24.121  0.1121  0.0721  0.3451
68682W        W11673  31.382  22.919  14.597 -0.1119  0.4552 -0.2134
68683W        W11674  15.114   8.483   9.230  0.1029 -0.2573 -0.0043
68684W        W11675   9.572  31.888   9.287 -0.2016  0.2999  0.3016
68685W        W11676  13.478  33.838   4.196 -0.0347 -0.3755 -0.0744
68686W        W11677   2.991  15.608   1.109 -0.1182  0.4478  0.2567
68687W        W11678  19.349  33.806   3.496 -0.1720 -0.0516  0.0716
68688W        W11679   8.280  26.169  23.259  0.0178 -0.0157  0.0935
68689W        W11680   7.012  31.602   9.788  0.2158 -0.3383  0.3080
68690W        W11681   2.935   0.668  21.127 -0.0348  0.2463 -0.1641
68691W        W11682   4.814  30.308  20.992  0.1227  0.4537 -0.0864
68692W        W11683  15.372   5.488   2.436  0.1860  0.2397 -0.0930
68693W        W11684  33.352   4.512   2.042 -0.1778  0.0774 -0.2683
68694W        W11685  22.743  20.491  26.333  0.0547  0.2209  0.0281
68695W        W11686   3.708  11.924  21.664  0.0933  0.1716  0.0898
68696W        W11687  19.183   4.188  17.338  0.0200  0.0039 -0.0882
68697W        W11688  11.678  18.683   0.271  0.1863 -0.1443 -0.2619
68698W        W11689  17.752  14.032  26.665 -0.0551 -0.0889  0.0311
68699W        W11690  13.114  29.433   6.719  0.4070 -0.1938  0.0737
68700W        W11691  15.120  16.896  26.187  0.3250  0.2472 -0.2334
68701W        W11692  12.639  22.230  24.655 -0.0812 -0.2725 -0.2575
68702W        W11693  26.913  28.884  23.784 -0.0949 -0.1082 -0.1051
68703W        W11694   6.555   8.917  24.885 -0.2519 -0.0389  0.1712
68704W        W11695  23.917  14.458  15.209 -0.1845 -0.0156 -0.0486
68705W        W11696  23.509  23.636  12.742  0.0667  0.1141 -0.0304
68706W        W11697   8.505   7.469  25.107 -0.1112 -0.3511 -0.0559
68707W        W11698  32.673   1.017   3.413 -0.2282 -0.0694 -0.2890
68708W        W11699  31.826  11.369   8.460 -0.1719 -0.0514 -0.2528
68709W        W11700  28.925   1.274   7.516  0.1941  0.2936 -0.4725
68710W        W11701  21.404   3.150   6.463 -0.3560 -0.2123  0.0801
68711W        W11702  25.887  30.324   1.368  0.0083  0.0853  0.2818
68712W        W11703  15.672  10.903   8.484  0.2660  0.0143  0.0811
68713W        W11704  28.142  13.351  18.722 -0.2000 -0.0794  0.1405
68714W        W11705  18.529   0.200  25.816 -0.1196  0.0145  0.1731
68715W        W11706  15.102  33.017  23.997 -0.3184 -0.0604  0.2320
68716W        W11707  15.086   7.552  26.575 -0.0276  0.0750  0.2350
68717W        W11708  31.483   1.689   6.791  0.0367 -0.3201  0.3228
68718W        W11709  16.160  29.416  26.990 -0.0275 -0.2854  0.5090
68719W        W11710  27.340   2.974   1.081 -0.0002 -0.1342 -0.0614
68720W        W11711   4.052   5.324   4.641  0.2237 -0.1598 -0.1531
68721W        W11712  25.005   9.236   8.714 -0.2433 -0.3093 -0.1958
68722W        W11713  32.063   4.238  23.363 -0.3757 -0.2135  0.1014
68723W        W11714  12.115  21.750   3.748  0.1209 -0.2170  0.2372
68724W        W11715  21.118   5.891  27.742 -0.0940 -0.1185  0.1214
68725W        W11716  22.963  13.197  26.127 -0.0743 -0.3225  0.0334
68726W        W11717  24.615  11.030  19.244  0.0328  0.0230 -0.2362
68727W        W11718  19.936  10.777   4.473 -0.1054  0.1382  0.1162
68728W        W11719   0.178  32.164  25.868  0.0813 -0.0789  0.0227
68729W        W11720  16.246  28.539  14.032 -0.0262 -0.1384 -0.0357
68730W        W11721  16.607  13.359   9.142 -0.0472  0.3422  0.1449
68731W        W11722   7.513   3.305  23.098  0.2413 -0.0422 -0.0192
68732W        W11723  27.584  31.118  14.563  0.2549  0.2499  0.2485
68733W        W11724  15.270  30.700   4.233  0.1040 -0.1765  0.1521
68734W        W11725  20.690   3.372  18.846 -0.1589 -0.0865  0.2688
68735W        W11726   9.834   2.299  26.365 -0.0225 -0.1249 -0.1548
68736W        W11727  11.829   4.077  21.672  0.1137 -0.1492 -0.0014
68737W        W11728   1.621  26.077  25.836 -0.0054  0.1008 -0.1791
68738W        W11729  25.177   9.943  25.872  0.3190  0.0745 -0.2168
68739W        W11730  20.689  17.314   4.071 -0.1729  0.1316  0.4127
68740W        W11731  24.138   4.525  26.802  0.1780  0.0467 -0.0301
68741W        W11732  17.013  32.424  21.843  0.0840 -0.0528  0.1963
68742W        W11733  23.185  34.250  23.991  0.2850  0.0041  0.0620
68743W        W11734   8.216   9.842  20.880 -0.1325  0.1751  0.0633
68744W        W11735  21.716   3.515  18.736  0.0964 -0.1453  0.3594
68745W        W11736  20.560  18.138  13.460 -0.1508 -0.0440 -0.1039
68746W        W11737  23.008  33.285   7.925 -0.1994  0.5806 -0.1001
68747W        W11738  10.389  21.248   3.898 -0.2695 -0.4192 -0.1049
68748W        W11739  10.982   3.432  23.687  0.1787  0.1591  0.0348
68749W        W11740  17.723  34.186  22.994  0.2615  0.0377  0.0559
68750W        W11741  13.130   7.737  25.140  0.0220  0.3010 -0.1823
68751W        W11742  15.836  27.044  19.583 -0.0131 -0.1792 -0.2001
68752W        W11743  14.307   5.867  23.402  0.0104 -0.0545  0.2810
68753W        W11744  11.908  14.840  28.836  0.2659 -0.1241  0.1621
68754W        W11745  15.079  23.178  21.701 -0.0081  0.0715  0.1544
68755W        W11746  33.737  14.640  16.636  0.1978  0.1354  0.0071
68756W        W11747  24.121  28.956  28.142  0.1884 -0.1108  0.1467
68757W        W11748  29.628  27.107   4.079  0.0950  0.2178 -0.0647
68758W        W11749   4.895  11.962  23.759  0.0326 -0.0410 -0.1553
68759W        W11750  20.607  10.028  16.523  0.0885  0.1108 -0.1577
68760W        W11751  13.010  24.065  17.964  0.0407 -0.2564 -0.2108
68761W        W11752  29.854  19.593   2.686 -0.0612 -0.3945  0.3196
68762W        W11753  25.883  26.354  27.347 -0.2324 -0.0463  0.0813
68763W        W11754  16.951  11.806  17.195  0.1253 -0.1078  0.0292
68764W        W11755  33.666   0.311  21.935  0.0544 -0.3943  0.1181
68765W        W11756   6.557  32.750  21.948 -0.0757  0.2616 -0.0274
68766W        W11757  21.536   8.013  14.227  0.0135 -0.0103  0.0878
68767W        W11758  15.544   5.111  27.243  0.3294  0.1903 -0.0848
68768W        W11759  18.350  28.040   1.858 -0.0096  0.0299 -0.2307
68769W        W11760  25.165  10.851  18.330 -0.3642 -0.1376 -0.2908
68770W        W11761   2.478  27.319   4.894 -0.1018  0.1533  0.3038
68771W        W11762  25.440   0.513  14.021 -0.0170 -0.1743 -0.2887
68772W        W11763   3.077  10.631  26.069 -0.0300 -0.0433  0.2307
68773W        W11764  18.972   8.722   5.208  0.1689 -0.5059  0.0349
68774W        W11765  24.970  32.485  25.465  0.2031 -0.1490 -0.0389
68775W        W11766   6.821   1.500  26.837  0.1243  0.1150 -0.0116
68776W        W11767  29.886  26.652  19.263  0.1180  0.4321  0.1710
68777W        W11768  11.366  16.582   0.050 -0.0925  0.0220  0.2858
68778W        W11769  11.816  16.660   1.008  0.0738 -0.1500  0.1728
68779W        W11770   3.939   6.614  24.649 -0.0360  0.0386 -0.0736
68780W        W11771  15.369  14.261  29.058 -0.0967 -0.0515  0.0436
68781W        W11772  18.373  19.205   3.221 -0.0969  0.1698  0.0381
68782W        W11773  29.522   3.554   9.003  0.1449  0.1766 -0.0235
68783W        W11774  27.658  18.923  17.487  0.1110 -0.0428 -0.0397
68784W        W11775  10.848   0.633  10.149 -0.1365  0.2707  0.0842
68785W        W11776  12.095   4.924  27.070  0.0149  0.0687 -0.0656
68786W        W11777   7.762   5.534   0.648  0.1879 -0.0111 -0.1896
68787W        W11778  22.139  32.439  25.079  0.0464  0.0399 -0.1365
68788W        W11779   1.346   2.693  25.136  0.2475 -0.0173  0.1729
68789W        W11780  22.019  18.399   0.359  0.0150  0.0092  0.1305
68790W        W11781  13.634  15.821  24.769 -0.4172 -0.2529  0.4983
68791W        W11782   8.415   3.426  28.365  0.1386  0.0806  0.0118
68792W        W11783   9.683   7.007   5.356  0.1102 -0.0650  0.0329
68793W        W11784  31.364  10.074   7.344 -0.0315 -0.0931 -0.0950
68794W        W11785  34.491   6.062  21.207 -0.0138  0.2834  0.0567
68795W        W11786  27.119  30.054  13.934  0.1017  0.2493  0.2330
68796W        W11787  24.114  10.693   8.749 -0.0882  0.1908  0.0506
68797W        W11788  25.205  12.017  26.990 -0.0618  0.3692  0.4396
68798W        W11789  16.746   2.075   4.304  0.0687 -0.0436 -0.1850
68799W        W11790   2.354   0.845  26.128 -0.5359  0.2524 -0.0638
68800W        W11791  34.564  29.843   5.287 -0.1557  0.0211 -0.0639
68801W        W11792  11.437   5.738  19.684 -0.0600 -0.1496  0.0939
68802W        W11793  19.404  21.658  26.737 -0.2669 -0.3579 -0.2537
68803W        W11794   7.779   3.515   1.765  0.0747 -0.1047 -0.1654
68804W        W11795  31.711  11.831   2.614  0.0249  0.1684  0.2929
68805W        W11796   8.052  33.163   4.989  0.0156  0.0800  0.2686
68806W        W11797  18.775   6.028  28.045  0.1362 -0.1042 -0.1658
68807W        W11798  13.208  16.216  15.655  0.0414  0.2934  0.1782
68808W        W11799  22.553  17.254   2.299  0.2090 -0.3035  0.1629
68809W        W11800  21.004  24.512  27.292  0.2017  0.2091  0.0061
68810W        W11801  10.920  11.726  25.488  0.0378 -0.3177  0.1166
68811W        W11802  18.015  34.782  18.448  0.2224  0.3067 -0.0825
68812W        W11803  23.264   0.403  19.718 -0.1212  0.0540 -0.1152
68813W        W11804  30.536   5.806  27.017  0.1160 -0.3781 -0.0882
68814W        W11805  32.372   2.199   2.726 -0.1170 -0.0332  0.0777
68815W        W11806  19.726   4.850   7.907  0.0808 -0.0433 -0.0332
68816W        W11807  19.585   7.466  20.859 -0.1642  0.3058 -0.1958
68817W        W11808  14.253   6.421  24.350  0.0496 -0.0361 -0.3427
68818W        W11809  23.742  32.272  26.521  0.0772 -0.1265 -0.2334
68819W        W11810  13.972  29.392  16.692  0.1236 -0.1043  0.2027
68820W        W11811  16.733   1.915  26.510 -0.2365  0.2895  0.0853
68821W        W11812  15.649   9.749   5.285  0.1987  0.0469 -0.1919
68822W        W11813  20.824  16.854  12.604  0.0039  0.4210 -0.1182
68823W        W11814  17.612  24.970  27.531 -0.1731 -0.0147  0.0039
68824W        W11815  11.446  22.450  14.265  0.0990 -0.2011  0.0823
68825W        W11816  17.889   0.949   7.197  0.2899 -0.1175 -0.3743
68826W        W11817  23.157  25.292  26.879 -0.2592 -0.3567 -0.1577
68827W        W11818  22.242   0.169  25.267  0.0291 -0.1514  0.1360
68828W        W11819  20.493  14.119   0.970  0.1944  0.2260  0.1555
68829W        W11820  13.148  32.944  27.627 -0.0771 -0.1177 -0.1112
68830W        W11821  15.850   9.549   3.149 -0.1208  0.0915 -0.0016
68831W        W11822  30.828   8.177  18.922  0.1357 -0.3179 -0.0225
68832W        W11823  30.778   8.299  24.697 -0.1170  0.0739  0.1161
68833W        W11824  24.617   2.195   4.616 -0.3198  0.1924  0.0966
68834W        W11825  13.273  11.138  18.905 -0.1268  0.0234  0.1566
68835W        W11826  26.243  32.585  22.724 -0.2039 -0.1600 -0.0336
68836W        W11827  24.370   3.949  16.538  0.0067  0.0794  0.1264
68837W        W11828  26.369   7.104   8.448 -0.1405 -0.4309  0.0606
68838W        W11829  16.581   0.124   7.728  0.1141  0.2559  0.1221
68839W        W11830  33.481  13.256  20.773 -0.0308 -0.0238 -0.2463
68840W        W11831   0.520   2.303  26.695  0.0524 -0.2454  0.1632
68841W        W11832  17.789   3.248   4.542 -0.0861  0.0200  0.2098
68842W        W11833  16.087  21.998  25.819 -0.2238  0.0911 -0.0728
68843W        W11834  20.511  18.107   1.223 -0.1343  0.1935 -0.1892
68844W        W11835   9.297  30.054   5.096 -0.4285  0.0080 -0.2762
68845W        W11836  23.654  11.987   3.225  0.2982 -0.1056 -0.2348
68846W        W11837  28.403  10.651  17.540  0.2142  0.1521 -0.3615
68847W        W11838  18.092  11.753  19.233  0.1587  0.0486 -0.1474
68848W        W11839  20.994  28.333  21.660  0.0388 -0.1244  0.1246
68849W        W11840  12.327  21.105   8.432  0.0378  0.1360  0.3924
68850W        W11841   8.221   4.671  18.104 -0.1330  0.3334 -0.1572
68851W        W11842  29.715  31.816  26.920  0.2436 -0.2272 -0.2625
68852W        W11843  20.957   4.589   0.668 -0.1248  0.0591  0.1850
68853W        W11844  21.104   4.420   1.709 -0.4975  0.0979 -0.1878
68854W        W11845   6.834   7.405   4.729  0.2311  0.1611  0.0130
68855W        W11846  17.694  34.102   5.168 -0.0911  0.1211  0.4185
68856W        W11847  11.567   0.974  16.126  0.0078 -0.2655 -0.3255
68857W        W11848  10.214  34.378  28.358  0.0160  0.1145 -0.1709
68858W        W11849  11.407  33.871  15.949  0.2572 -0.0763 -0.0032
68859W        W11850  15.559  27.588  27.830 -0.0373 -0.1392  0.3588
68860W        W11851  26.481   6.156  28.907 -0.1569 -0.0667  0.0302
68861W        W11852  14.413  19.149   5.364  0.2520 -0.0446  0.0179
68862W        W11853  29.976  27.824  23.616  0.2666 -0.1118 -0.1154
68863W        W11854  21.697   2.819   4.278  0.1008  0.1175  0.2115
68864W        W11855  31.665   7.450  16.416 -0.2110  0.0707 -0.1076
68865W        W11856  21.123   3.230  16.481 -0.2282  0.1980  0.0608
68866W        W11857  13.394  34.365   2.865 -0.1012  0.1830  0.2657
68867W        W11858   5.773  34.193   7.006 -0.2128  0.2102 -0.2144
68868W        W11859  34.558   8.351  23.500  0.3517  0.3518  0.0953
68869W        W11860  13.032   5.116   5.507  0.2168  0.1525  0.2631
68870W        W11861  24.613   2.659   3.350 -0.0790  0.0930  0.0656
68871W        W11862   2.920  30.430  19.952 -0.1282  0.0870  0.0148
68872W        W11863  34.582  16.922   4.605 -0.1427 -0.2465 -0.0213
68873W        W11864  23.755  11.889   8.926 -0.3690 -0.2508  0.1290
68874W        W11865   5.629  32.022   0.914  0.0187  0.1076  0.0473
68875W        W11866   3.214  23.717  26.635 -0.4805 -0.2009  0.0835
68876W        W11867  20.522  22.557   1.868 -0.2733 -0.0514  0.0347
68877W        W11868  24.000  28.069   3.404 -0.0603  0.0482  0.0988
68878W        W11869   8.526  33.057  19.823 -0.4348  0.0097 -0.3617
68879W        W11870  10.379  19.428  24.116  0.1304  0.1703  0.4274
68880W        W11871  15.936   9.958  24.395 -0.2193 -0.0967  0.1953
68881W        W11872  15.724  29.048   0.597 -0.2720 -0.1327 -0.1573
68882W        W11873  32.868  21.526   6.299  0.2305 -0.0623  0.1872
68883W        W11874  11.667  26.263  28.803 -0.1951 -0.1607 -0.0212
68884W        W11875  22.627  26.236  27.328 -0.1322  0.0417  0.2033
68885W        W11876  23.746  34.389  26.055 -0.0798  0.1334  0.2378
68886W        W11877   7.721   0.083   4.537  0.2438  0.2368 -0.1200
68887W        W11878  20.942  14.911  19.928  0.1750  0.2178 -0.2482
68888W        W11879  13.946  30.273  15.474  0.0198  0.0562 -0.0852
68889W        W11880  13.985  34.455   0.928  0.1826  0.0893  0.1948
68890W        W11881  21.119   9.983   7.094  0.0187 -0.0139  0.3641
68891W        W11882  20.595  30.654  24.384 -0.1558 -0.0376 -0.1823
68892W        W11883  11.574   1.831  19.684 -0.1118  0.0733 -0.0896
68893W        W11884  28.231   3.980  16.087 -0.1686 -0.2155  0.0443
68894W        W11885  14.447   1.913   3.502  0.4095  0.1611 -0.0708
68895W        W11886   5.991  28.822   3.358 -0.0106 -0.1919 -0.0266
68896W        W11887  18.685  17.494   1.951  0.0563  0.2893 -0.2111
68897W        W11888   4.882   9.928  24.737  0.4585 -0.1590 -0.4110
68898W        W11889   9.375  22.842   2.899 -0.0607  0.2062  0.4556
68899W        W11890   1.858  32.792  22.889  0.3084 -0.4142 -0.2930
68900W        W11891  15.284  25.789  15.183 -0.0209 -0.2967 -0.0237
68901W        W11892   4.800  33.365   6.232 -0.0959  0.0409  0.0316
68902W        W11893   0.550   5.250  24.070 -0.1572 -0.2974  0.0759
68903W        W11894   4.407  20.848  22.375 -0.0962 -0.1769 -0.1099
68904W        W11895  26.179  29.861   7.390 -0.4871  0.0744  0.2043
68905W        W11896  17.988  29.404   5.229 -0.1447 -0.0740  0.1234
68906W        W11897  34.749   0.673   8.327  0.1232 -0.0838 -0.2422
68907W        W11898  20.319   1.882   3.256 -0.0195 -0.0320  0.1398
68908W        W11899  26.315   4.611   8.040  0.1186  0.0842  0.1987
68909W        W11900  27.743   0.446  27.466 -0.0473 -0.0378  0.2004
68910W        W11901  21.998  33.720  22.427 -0.0318  0.0718  0.2347
68911W        W11902   2.270   4.706   7.653 -0.0472  0.0885 -0.0451
68912W        W11903  17.242  30.316   5.281 -0.0155  0.0867 -0.2245
68913W        W11904  19.191  34.230  23.628  0.1284  0.0389 -0.1715
68914W        W11905  19.353  34.207   7.028  0.0008  0.0236  0.2363
68915W        W11906  22.388  19.424   2.108  0.1607  0.1759  0.1854
68916W        W11907  19.570   4.007  28.100 -0.1879  0.0585  0.3183
68917W        W11908   5.979  12.080   4.759  0.2894  0.1592 -0.0316
68918W        W11909  28.073   7.342  14.592  0.1589  0.0945  0.0365
68919W        W11910  10.886  27.621   2.646  0.1443  0.3157  0.0215
68920W        W11911  19.092   4.511  13.899 -0.1642 -0.1598  0.0768
68921W        W11912  19.220  24.169   4.538 -0.2008  0.1161  0.0641
68922W        W11913  17.438   8.853   6.452  0.1136 -0.2057 -0.2561
68923W        W11914  11.719   9.346  16.774 -0.0478 -0.2069  0.0904
68924W        W11915  13.280  30.738  28.131 -0.0328  0.0919  0.3777
68925W        W11916  28.367  32.735  25.342 -0.2215 -0.0615  0.1115
68926W        W11917  28.052  30.667  22.269  0.1901 -0.2420 -0.0224
68927W        W11918  12.169   2.347  27.704 -0.2120  0.1866 -0.1692
68928W        W11919  26.189  24.440   7.672 -0.0180 -0.0266  0.1443
68929W        W11920  21.168   2.629  15.537  0.2345  0.1931 -0.1030
68930W        W11921  30.810   6.781  19.889 -0.0437 -0.0987 -0.1593
68931W        W11922  23.693   1.843  26.743 -0.1323  0.0156 -0.3965
68932W        W11923   1.669  19.076   9.747  0.0140 -0.2717  0.0672
68933W        W11924  15.278   3.548   4.833  0.1307  0.0069 -0.2401
68934W        W11925   6.605  27.969  22.330  0.0675  0.1966  0.3606
68935W        W11926  13.546   2.912  16.555  0.2279  0.2434 -0.3533
68936W        W11927  33.958  11.413  17.644  0.3427  0.0127 -0.0082
68937W        W11928  11.898  17.987   3.819 -0.2459  0.0545  0.2633
68938W        W11929  27.410  28.517   8.000 -0.0886  0.1580  0.0873
68939W        W11930  20.093  22.584  24.877  0.2590  0.1154  0.1732
68940W        W11931  11.251  15.041   8.981  0.2655  0.1684 -0.0552
68941W        W11932  16.412  15.610   8.659 -0.0496 -0.0390 -0.3643
68942W        W11933  19.451  26.899  27.838  0.1852 -0.2791  0.0556
68943W        W11934  20.832  16.611  26.510 -0.0199  0.0052  0.0714
68944W        W11935  25.602   0.883  13.649  0.1591  0.2268  0.0331
68945W        W11936  10.313  11.042   4.241  0.0341  0.0112  0.2376
68946W        W11937  25.517  10.131   6.971 -0.3161  0.2357 -0.2648
68947W        W11938  25.261  10.940   8.557 -0.0190  0.2525 -0.2074
68948W        W11939   7.880   9.906  21.308  0.0833 -0.2782  0.0855
68949W        W11940  17.864  24.236   4.863  0.0460  0.1446  0.1690
68950W        W11941   7.623  10.529  22.894 -0.3455  0.1360 -0.2243
68951W        W11942  28.910  26.527   4.082 -0.1179 -0.1708 -0.2628
68952W        W11943   4.953  30.863  15.708 -0.3782 -0.2784 -0.0345
68953W        W11944   5.918   0.807  20.120 -0.3423 -0.2914  0.0236
68954W        W11945  22.730   7.958  19.468 -0.2221  0.2947 -0.0809
68955W        W11946   1.480  31.200   3.279 -0.2131  0.1571  0.0120
68956W        W11947  18.345  20.595  21.715 -0.0838  0.0035 -0.0001
68957W        W11948  11.534   3.676   5.830 -0.1000 -0.0628 -0.1278
68958W        W11949  26.584  12.344  25.373 -0.1104 -0.0162  0.1518
68959W        W11950  10.178   3.783   0.002  0.1227 -0.1745  0.0136
68960W        W11951  11.968   4.119   2.345  0.2705  0.2600  0.2709
68961W        W11952   0.075  33.675   8.349  0.0079 -0.2131  0.1659
68962W        W11953   3.344   3.968  28.571 -0.1198 -0.1359  0.2354
68963W        W11954   4.324  30.754   5.184  0.1161 -0.1976 -0.0537
68964W        W11955  19.832   8.115  19.828  0.1373 -0.0073  0.0223
68965W        W11956  10.494  32.998   6.725 -0.1287 -0.3314  0.1308
68966W        W11957  12.549  32.340  28.094 -0.1151  0.0436  0.0336
68967W        W11958   3.299  25.877   0.595  0.2352 -0.1381 -0.2877
68968W        W11959  21.048   8.446   6.442 -0.1201  0.0812  0.0727
68969W        W11960  19.300  22.285   5.584  0.2221 -0.1085 -0.1225
68970W        W11961  30.195  33.922   8.509  0.0734 -0.0379 -0.1544
68971W        W11962  14.639   4.497  27.323  0.0177 -0.0940  0.1337
68972W        W11963  15.875  25.305  18.984 -0.2405  0.2445 -0.0025
68973W        W11964  21.988  33.270  21.436  0.0225  0.2094  0.2283
68974W        W11965  24.939   9.220  27.957  0.0197 -0.2156 -0.0516
68975W        W11966  19.887  14.933  27.390 -0.3410  0.0858  0.0460
68976W        W11967   8.424   6.506  24.825  0.1442 -0.0268 -0.0666
68977W        W11968  23.274  15.565  24.476  0.0894 -0.0080 -0.3460
68978W        W11969   4.242  23.116  18.979 -0.0810  0.0788  0.0912
68979W        W11970   8.520   5.476   9.339 -0.1965 -0.2022 -0.2116
68980W        W11971  14.678  24.584   4.822 -0.0627 -0.1054 -0.1917
68981W        W11972   2.668  33.773  20.308  0.0558 -0.0052 -0.1591
68982W        W11973  13.021  15.889   5.674 -0.2803 -0.2119 -0.4388
68983W        W11974  23.251  11.271   4.282  0.1681  0.2816  0.0601
68984W        W11975  24.889   0.544  25.895  0.0126  0.1015 -0.0097
68985W        W11976  11.706   1.948  23.207  0.0844  0.2153 -0.3407
68986W        W11977  10.119   3.382  19.662  0.2169  0.0631  0.0032
68987W        W11978  27.658   1.070  17.579 -0.2552 -0.0852  0.3603
68988W        W11979  25.003   8.087   1.311  0.0349 -0.1180  0.0246
68989W        W11980  10.278  19.656  17.880  0.0464  0.0288  0.0400
68990W        W11981  29.893  19.877  20.558  0.0330  0.4169 -0.1450
68991W        W11982  14.562  30.523  22.831 -0.3459  0.1219  0.3014
68992W        W11983   4.699   0.176  21.541 -0.0044 -0.0738 -0.0210
68993W        W11984  13.180  28.669  17.021  0.1852 -0.1411 -0.2340
68994W        W11985  19.852  14.413   4.553  0.0047 -0.4206  0.0701
68995W        W11986   3.977  32.664  22.215  0.1578 -0.3179 -0.1573
68996W        W11987  18.051  30.270   4.621 -0.0099 -0.0212 -0.0559
68997W        W11988  33.436   9.364  22.324  0.0588  0.2481 -0.1944
68998W        W11989  15.361  20.363  21.878  0.2656  0.0399 -0.2294
68999W        W11990  30.934  29.980  28.285 -0.1846  0.0968  0.0701
69000W        W11991   9.094   9.500  25.373  0.1722 -0.1322  0.0304
69001W        W11992  19.684   9.480  22.167  0.0639  0.1553 -0.1997
69002W        W11993  11.370   8.898  23.375 -0.0181  0.1032  0.2264
69003W        W11994   7.375  34.098  20.307 -0.0121  0.0886  0.1872
69004W        W11995  28.399  25.851   3.028 -0.2275 -0.1050 -0.0894
69005W        W11996  10.033  33.094   1.229 -0.2557 -0.0293  0.2602
69006W        W11997  14.026   9.925  16.838 -0.3086 -0.0446 -0.1851
69007W        W11998  29.404  26.619   1.338 -0.1079  0.1078 -0.3523
69008W        W11999   4.539  21.439   3.705 -0.2075 -0.0054  0.0789
69009W        W12000  13.401   2.068   6.130  0.1951 -0.1242 -0.3330
69010W        W12001  11.401   1.528   5.496 -0.3777  0.0618  0.2310
69011W        W12002  18.050   8.415   0.988  0.0573  0.1068  0.0131
69012W        W12003  20.181   8.917  17.349 -0.2829  0.0751  0.2643
69013W        W12004  22.742   3.619   3.371  0.1343 -0.1199  0.3971
69014W        W12005   8.635  26.501   1.679  0.1173 -0.1619  0.1084
69015W        W12006   8.892   0.712  20.352  0.1971  0.1382 -0.3447
69016W        W12007  17.883   9.144  25.970 -0.1305 -0.0921 -0.0720
69017W        W12008  17.604  19.173  29.180  0.0143 -0.0449  0.3707
69018W        W12009  18.313  12.766  22.947 -0.1869  0.1796  0.2493
69019W        W12010   0.608   7.553   6.014  0.1446  0.0984  0.4520
69020W        W12011   5.074   0.471  25.943  0.0048  0.3243 -0.0519
69021W        W12012  13.883  24.086  14.848 -0.1929 -0.3656 -0.1138
69022W        W12013  27.908   3.038  26.740 -0.2204  0.2577 -0.1423
69023W        W12014   7.594   3.859   2.591 -0.1950 -0.0889 -0.1335
69024W        W12015  27.261   6.074   5.601 -0.0962  0.0630  0.0238
69025W        W12016  10.316   8.540  28.858  0.0764  0.1034 -0.0795
69026W        W12017  10.196  11.217  24.148 -0.0445 -0.0225  0.0294
69027W        W12018  13.232   9.315  26.882 -0.0536  0.0586 -0.0281
69028W        W12019  27.289  24.893   9.447  0.0457  0.2625 -0.2890
69029W        W12020  25.795  30.011   0.449  0.4899 -0.3678 -0.1496
69030W        W12021  29.082   0.436   2.186  0.0118  0.0762  0.0657
69031W        W12022  17.143  12.452  23.935 -0.2389  0.1352 -0.0986
69032W        W12023  20.692  31.693  25.304  0.1783  0.0353 -0.2315
69033W        W12024   8.034   4.327  23.150 -0.0702 -0.0201  0.1349
69034W        W12025  25.401  16.050  23.911 -0.0746  0.0582 -0.0111
69035W        W12026  20.105  18.383   5.570 -0.0782 -0.0088 -0.0303
69036W        W12027  17.325  30.140  23.574 -0.0154 -0.0066  0.0703
69037W        W12028  27.098  12.228  25.760  0.2538  0.0592  0.1084
69038W        W12029  10.221  31.209   5.372 -0.0720  0.2932 -0.1491
69039W        W12030  30.060  27.405  20.118 -0.0012 -0.0837 -0.2092
69040W        W12031  14.519  29.165  14.517  0.0226  0.1536 -0.1117
69041W        W12032  19.053   8.122   8.937  0.2317 -0.1929 -0.1400
69042W        W12033   7.697  33.346   0.830 -0.1320  0.2175  0.1004
69043W        W12034  22.741   7.574  23.264 -0.0052 -0.0906 -0.2037
69044W        W12035  15.202   8.092  25.044 -0.2095 -0.5154 -0.0869
69045W        W12036   2.954  10.055  22.588 -0.2042  0.0689 -0.1236
69046W        W12037  24.465   0.606   5.591 -0.0359 -0.0813  0.0500
69047W        W12038   1.333   8.479  20.020 -0.2545 -0.1844 -0.0596
69048W        W12039  17.077   6.496  25.534 -0.2014  0.1567  0.0738
69049W        W12040   4.548  34.364   9.331  0.0385  0.4377 -0.3488
69050W        W12041  20.064  22.514  17.180 -0.4593 -0.1366 -0.2314
69051W        W12042  19.100   6.012  28.377 -0.5070 -0.2592  0.0251
69052W        W12043  10.685   6.589  22.085  0.2749  0.4215  0.4406
69053W        W12044  17.577   4.405  24.341 -0.2948 -0.3233  0.1969
69054W        W12045  17.156  22.842  28.579 -0.2114  0.0123 -0.3378
69055W        W12046  17.252   1.426  23.895  0.2536 -0.0151  0.0398
69056W        W12047   0.101  34.053  27.587  0.1794  0.1305 -0.0732
69057W        W12048   3.246  21.116  22.071 -0.4150  0.0170  0.1718
69058W        W12049  14.167  13.646  10.068 -0.0060 -0.0225  0.0992
69059W        W12050  23.614   9.724  17.913 -0.1794  0.0539 -0.0575
69060W        W12051  30.420  30.051  28.272  0.1266 -0.2619 -0.0269
69061W        W12052  23.500  25.755  20.051  0.2872 -0.4145  0.1513
69062W        W12053  19.157  28.525   4.874  0.0018  0.3378  0.1864
69063W        W12054  17.851  16.974  13.811  0.1365  0.3392 -0.1682
69064W        W12055  17.073  28.657   9.533 -0.3306  0.2077  0.0248
69065W        W12056  19.764  23.429   4.031  0.1376 -0.1391 -0.1048
69066W        W12057  21.607  33.406  22.278  0.0249  0.1776  0.5486
69067W        W12058  16.488  11.023   6.303 -0.1613  0.4572  0.1348
69068W        W12059  15.900  25.428   1.091 -0.3272 -0.0307 -0.2713
69069W        W12060   6.146   9.782   5.041  0.2528  0.1806 -0.0461
69070W        W12061   9.676  25.412   1.774 -0.2021 -0.0415  0.1206
69071W        W12062   4.153  33.435   3.206 -0.2071 -0.0676  0.4363
69072W        W12063  10.774  26.584   3.863 -0.2277  0.1932  0.3602
69073W        W12064   2.636  24.690   2.221  0.1131 -0.1460 -0.0989
69074W        W12065  17.107   5.548  22.549  0.1287 -0.2621  0.1199
69075W        W12066  12.668  12.145  26.154 -0.0016 -0.2688  0.0562
69076W        W12067  20.354  19.989  24.904 -0.0804 -0.0362  0.1295
69077W        W12068  13.068  25.367   0.148  0.3186 -0.1021 -0.2237
69078W        W12069  20.642  19.501  24.985 -0.0638  0.1324  0.0550
69079W        W12070  21.126   1.857  17.779  0.2559 -0.2012  0.4009
69080W        W12071   5.506   4.249   8.213  0.1487 -0.1443 -0.0971
69081W        W12072  15.821   2.230   6.780 -0.2425  0.2049 -0.1568
69082W        W12073   9.252  19.420  25.452  0.2422  0.0202 -0.1217
69083W        W12074  21.523  28.572  15.343 -0.0596  0.0627  0.0110
69084W        W12075   6.825  28.293   6.839 -0.0392  0.0085  0.3182
69085W        W12076  16.828  34.034   0.321  0.0203  0.0934 -0.0958
69086W        W12077  33.372  27.416   2.927 -0.1835 -0.1993  0.0123
69087W        W12078  24.384  23.305   8.969 -0.0945 -0.0380  0.1172
69088W        W12079  19.544  21.767   6.268  0.1656 -0.0489  0.0634
69089W        W12080  11.672  23.728   5.175 -0.2941  0.3226  0.0934
69090W        W12081   0.541   6.386  19.191  0.0513  0.2316  0.0607
69091W        W12082  13.146  16.584   0.861  0.1427  0.0548 -0.0467
69092W        W12083  12.432  26.048  21.843 -0.0876  0.1892 -0.0622
69093W        W12084  20.934   2.946  22.420  0.1228 -0.3335  0.1424
69094W        W12085  27.348   1.107  23.297 -0.0860 -0.1416  0.1199
69095W        W12086   2.730  29.187   7.609  0.3845 -0.0485 -0.1757
69096W        W12087  29.951  14.931   0.045 -0.1126  0.0039 -0.0853
69097W        W12088  24.374   6.914  27.412  0.0993  0.0928  0.0886
69098W        W12089  18.610   0.634  27.019 -0.2825  0.1048 -0.0615
69099W        W12090  14.729   1.051  25.119 -0.0140  0.1035 -0.0860
69100W        W12091  18.759   3.378  19.945  0.3008 -0.2452  0.0405
69101W        W12092   1.752   3.011  10.654  0.2327 -0.1270  0.0861
69102W        W12093   1.752  25.169  24.586 -0.1963 -0.3812  0.3180
69103W        W12094   6.643   5.680  16.337 -0.0008  0.0518  0.1076
69104W        W12095  13.574  20.979   0.107 -0.0918  0.2064 -0.0829
69105W        W12096  32.434  20.747   9.845 -0.4888 -0.1047  0.2150
69106W        W12097   6.627   2.295  17.962  0.0927 -0.4291  0.5611
69107W        W12098  21.637  21.622  16.299 -0.1008 -0.2386  0.1583
69108W        W12099  11.044  10.236   2.850 -0.0305 -0.0036 -0.1454
69109W        W12100  16.164  21.227  20.173  0.0628 -0.0263  0.1233
69110W        W12101  13.920  19.736  18.802 -0.1852 -0.0361 -0.3331
69111W        W12102  13.253  33.974  23.221 -0.1736  0.1167  0.0744
69112W        W12103  15.802   7.975  22.196 -0.1437  0.1181 -0.0668
69113W        W12104  11.583  32.388  15.271 -0.2672  0.1617  0.2270
69114W        W12105  34.701  23.344  18.373  0.0285 -0.0311 -0.1432
69115W        W12106   1.725  28.473  18.854  0.0853  0.0047  0.0866
69116W        W12107   2.526   3.849  20.928  0.2188  0.2588 -0.2253
69117W        W12108  19.007  30.999  18.224  0.2356  0.2549  0.0806
69118W        W12109   9.384  32.552  15.327 -0.0590 -0.2163 -0.1459
69119W        W12110   8.645  13.701  16.684  0.0617  0.3259  0.0267
69120W        W12111  12.900  10.666  18.077 -0.0551  0.0342  0.1249
69121W        W12112  24.532  19.226  18.491 -0.1051  0.1640  0.3002
69122W        W12113  17.470  22.868  13.936 -0.0394  0.0686  0.0358
69123W        W12114  30.851   7.273  15.108 -0.0524  0.0000  0.1545
69124W        W12115  16.051  32.805  16.379 -0.1303  0.0994 -0.1066
69125W        W12116   6.979   6.934  23.162  0.0589  0.1183  0.0211
69126W        W12117   2.080  32.319  18.962 -0.1434  0.0663 -0.1224
69127W        W12118   9.396   0.642   5.457  0.4013 -0.2480  0.0167
69128W        W12119  20.581  12.389  27.067  0.1731  0.2090 -0.1510
69129W        W12120   9.209  18.035  27.141 -0.0001  0.2366  0.0241
69130W        W12121  12.641  25.697  22.577 -0.0900  0.3061  0.0345
69131W        W12122  20.260   0.378  20.144  0.2306  0.2534 -0.0820
69132W        W12123  22.525  11.980  23.638  0.1961  0.0816  0.0829
69133W        W12124  12.928   3.778  23.264  0.1572 -0.0508 -0.4301
69134W        W12125  13.960   7.390   2.965  0.2599  0.0754 -0.5641
69135W        W12126  13.203  28.595  18.063 -0.2422  0.0558  0.0172
69136W        W12127   0.092  29.938  13.929  0.1070  0.1319  0.0303
69137W        W12128  14.201  32.009  29.088 -0.1428 -0.3162 -0.0874
69138W        W12129  21.863   1.131   4.141 -0.4042  0.1088 -0.3863
69139W        W12130  21.282   1.871   4.980  0.1758 -0.0581 -0.3427
69140W        W12131  20.156   4.049   3.650  0.0405  0.1055  0.4432
69141W        W12132  11.837  31.512  18.566 -0.1715  0.1377  0.0981
69142W        W12133  24.351  31.791  19.614  0.1101  0.1378  0.1540
69143W        W12134  22.876  31.763  21.000  0.0223  0.0486  0.0428
69144W        W12135  33.740  11.686  24.459 -0.1943  0.1165  0.3722
69145W        W12136  12.251   0.676  23.498  0.1434 -0.0662 -0.4318
69146W        W12137   5.024   5.579  19.226  0.0879 -0.0655 -0.0647
69147W        W12138  10.287   2.339   0.550  0.2263 -0.1220  0.1318
69148W        W12139  11.413   5.340  14.951  0.0115 -0.0088 -0.2676
69149W        W12140  34.735  18.206  15.834  0.0786 -0.0305 -0.1262
69150W        W12141   2.606  10.585  19.825  0.0666 -0.2691 -0.0283
69151W        W12142  17.638  13.956  15.422 -0.2325  0.1099 -0.0780
69152W        W12143   9.716   8.510  16.661  0.1632 -0.0331  0.1704
69153W        W12144  29.081  19.093  28.295 -0.1273 -0.0143  0.0248
69154W        W12145   5.750   7.073  21.310 -0.0601  0.1065 -0.3069
69155W        W12146  13.543  17.821  16.185  0.0705  0.1747 -0.2559
69156W        W12147  19.242  12.735  14.392 -0.1071 -0.5108 -0.0667
69157W        W12148  24.803   9.093  22.418 -0.0382  0.2708  0.2191
69158W        W12149  27.191   0.272  23.764 -0.0043 -0.1258 -0.1525
69159W        W12150  10.328  10.324  25.383 -0.0069 -0.1053  0.1058
69160W        W12151  21.863   9.885  24.417  0.1113 -0.1627  0.0394
69161W        W12152   8.846  29.181  24.526 -0.2141  0.1241  0.0238
69162W        W12153  29.351  22.362  17.876  0.0108 -0.2225 -0.3278
69163W        W12154  30.245  10.945  15.689 -0.0288  0.0888 -0.1954
69164W        W12155  20.978  33.603  17.230  0.1851  0.1825  0.2210
69165W        W12156  23.908  19.449  18.670 -0.0031 -0.0268 -0.2077
69166W        W12157  33.804  10.974  18.570  0.0659  0.1520  0.2111
69167W        W12158  22.518   1.874  26.386  0.2786 -0.0562  0.0906
69168W        W12159  14.759  25.696  24.316 -0.1542 -0.0689 -0.2198
69169W        W12160  15.596  26.713  20.430 -0.1783 -0.1714 -0.1497
69170W        W12161  10.536  13.260  25.846  0.1281  0.1392  0.0760
69171W        W12162  23.427  14.739  14.398 -0.1308  0.1878  0.1023
69172W        W12163  14.177  34.099  22.914  0.2296  0.2717 -0.0646
69173W        W12164  33.516  26.846  27.665 -0.0518 -0.1349 -0.1256
69174W        W12165  28.574  32.853  17.738  0.0803 -0.1397  0.0275
69175W        W12166  24.290   2.494  17.390  0.3071 -0.1159  0.3404
69176W        W12167   7.139  16.427  25.209 -0.2442  0.1453 -0.0170
69177W        W12168   2.959   0.375  17.555  0.2597 -0.4046  0.4323
69178W        W12169  22.402  14.026  22.343  0.1214 -0.2005  0.1371
69179W        W12170   2.262  31.683  24.355 -0.0818  0.1029  0.1019
69180W        W12171  25.451   4.456  13.228 -0.4811  0.1056  0.2033
69181W        W12172  16.187   4.769  19.922 -0.2565  0.2506 -0.1489
69182W        W12173  31.448  29.632  13.266 -0.1430 -0.2312 -0.3160
69183W        W12174  22.698  13.088  16.931 -0.1350  0.0704 -0.0029
69184W        W12175  13.986  22.579  15.434 -0.2926  0.0702  0.0668
69185W        W12176   3.271  34.125  23.996 -0.0684  0.1406  0.3066
69186W        W12177  29.477   1.182  18.913  0.1504 -0.0095  0.0733
69187W        W12178  14.379  18.143  12.966 -0.0393  0.1336 -0.1678
69188W        W12179  18.140  25.233  21.601  0.5541  0.1475 -0.1631
69189W        W12180  17.958  30.293  14.184 -0.2255 -0.1056 -0.3040
69190W        W12181  20.518  16.491  25.034 -0.1323  0.0301 -0.5417
69191W        W12182  18.303   8.404  17.154 -0.2356 -0.3393  0.1637
69192W        W12183   7.074  26.457   9.282  0.0562 -0.1522 -0.0640
69193W        W12184   6.317   7.654  23.243 -0.0483  0.0379 -0.0759
69194W        W12185  27.004   0.456   4.368 -0.1954 -0.1772  0.1158
69195W        W12186  24.436  10.754  15.126  0.1014  0.1561  0.0536
69196W        W12187  13.476   0.071  21.022 -0.0421 -0.2407  0.2380
69197W        W12188  19.176   5.151  20.066 -0.0342 -0.1190 -0.1428
69198W        W12189   0.304  20.291  19.994 -0.1649  0.1090 -0.0596
69199W        W12190  21.414   2.168   2.256  0.0929 -0.0650  0.3284
69200W        W12191   9.614  34.762  24.740  0.0982 -0.0481 -0.3981
69201W        W12192  12.223  22.240   0.362  0.1909 -0.2551  0.1666
69202W        W12193   1.533   1.377  16.305 -0.1490  0.0846 -0.3049
69203W        W12194  14.772  12.941  15.810 -0.3951  0.2216  0.1842
69204W        W12195   1.984   3.669   0.001  0.1080 -0.1330  0.1878
69205W        W12196  14.034  25.373  21.783  0.1265 -0.2131 -0.0883
69206W        W12197   4.989   3.710  15.214 -0.1739  0.2885  0.1069
69207W        W12198  19.269   4.235  19.915 -0.0270  0.2531  0.1960
69208W        W12199  32.623  22.941  17.754 -0.0609 -0.0267 -0.2723
69209W        W12200  17.861  31.629   4.540 -0.3098 -0.0528 -0.1327
69210W        W12201  28.738  29.371  24.577  0.4688  0.0187  0.1617
69211W        W12202  13.014  11.092   1.248 -0.2203 -0.0788  0.1826
69212W        W12203  10.392   7.899  25.390 -0.2203 -0.2523  0.0902
69213W        W12204  18.511   4.328   1.728  0.2081 -0.1182  0.0674
69214W        W12205  17.530   0.525  16.004  0.2126 -0.1344 -0.1335
69215W        W12206  19.503  28.785  20.769 -0.1896 -0.0875  0.1926
69216W        W12207  10.197  15.350  22.405 -0.0512  0.0358  0.0221
69217W        W12208  21.606  26.778  25.991 -0.0858 -0.0855  0.4921
69218W        W12209  31.848  34.585  17.638  0.0259 -0.3828  0.2450
69219W        W12210  27.482  12.768  14.284 -0.0790  0.0010 -0.3114
69220W        W12211  22.942   2.947  18.085 -0.0419  0.0114 -0.1031
69221W        W12212  20.270  13.217  20.616  0.2189  0.1910 -0.0276
69222W        W12213   8.456   6.651  15.592 -0.1798 -0.0279 -0.0463
69223W        W12214  23.823   1.485  20.280 -0.0095 -0.2249 -0.1679
69224W        W12215  14.579  22.260  16.523 -0.2461  0.2530 -0.4240
69225W        W12216   4.860  24.071  23.736  0.0627 -0.1938  0.1553
69226W        W12217  24.097   6.031  22.646  0.1263 -0.0476 -0.1957
69227W        W12218  17.510  32.568   6.599 -0.2436  0.1529  0.0766
69228W        W12219   9.284   9.036  26.664 -0.1989 -0.2007 -0.0553
69229W        W12220   9.590   5.438  22.185  0.2579  0.4212  0.0496
69230W        W12221  12.475  15.240  20.913  0.0760  0.3345  0.0879
69231W        W12222  21.134   1.758  21.809 -0.1308 -0.2335  0.0665
69232W        W12223   8.124  32.112  22.244 -0.0718  0.2221  0.0391
69233W        W12224  18.721   1.119  19.485 -0.0819  0.3384  0.2434
69234W        W12225  11.799  21.024  20.786 -0.0536  0.1489  0.0505
69235W        W12226  32.542   7.087  18.113 -0.2012  0.0921 -0.0908
69236W        W12227  13.474   0.098  16.075  0.0889  0.0727  0.0628
69237W        W12228  14.240  33.400  27.798  0.1715 -0.3952  0.0217
69238W        W12229  28.273   7.020  13.555  0.2226 -0.3965  0.5324
69239W        W12230  26.282   1.492  20.272 -0.2013  0.2835 -0.2669
69240W        W12231  17.602   2.100  17.806  0.1084 -0.2051 -0.0935
69241W        W12232  15.372  10.224  17.511 -0.1973  0.2292 -0.4488
69242W        W12233  17.510   3.866  14.802  0.3601 -0.3622  0.0134
69243W        W12234  29.249   8.228  15.242  0.2565  0.1989  0.1353
69244W        W12235  18.137  34.137  16.852  0.0548 -0.3261 -0.0567
69245W        W12236  14.622   7.634  19.332  0.0501 -0.3350  0.3808
69246W        W12237  17.776  10.895   5.965  0.2385 -0.1177  0.2672
69247W        W12238  14.236  11.287  17.927 -0.1435 -0.0351 -0.0105
69248W        W12239  17.841   5.615  18.115  0.0772 -0.0098 -0.1304
69249W        W12240  27.167   9.371  15.305 -0.5407  0.0035 -0.1494
69250W        W12241  16.982   7.131  26.058  0.0507 -0.0071  0.2213
69251W        W12242   5.619  29.871  20.882  0.0523  0.1359  0.1091
69252W        W12243  34.255  13.276  21.882 -0.0921 -0.1843 -0.2112
69253W        W12244  24.359   7.088  25.282 -0.0439 -0.0867  0.0330
69254W        W12245  30.667  25.502   0.617  0.2252  0.2362 -0.1988
69255W        W12246  28.658  10.268  27.830 -0.2189  0.1844 -0.1817
69256W        W12247   1.045  18.110  20.072  0.2495 -0.1279  0.0240
69257W        W12248   8.935  31.440  16.379  0.2039  0.1280 -0.1175
69258W        W12249  18.208  13.708  17.675  0.0440  0.1270 -0.3048
69259W        W12250   6.568   3.230  16.720 -0.0155  0.1967 -0.0880
69260W        W12251   4.907  26.726  27.998 -0.1164  0.2039 -0.0913
69261W        W12252  14.276   7.058  26.306  0.0886 -0.1062 -0.1897
69262W        W12253  21.589   2.059  22.149  0.0568  0.0756  0.0698
69263W        W12254  14.025  14.522  23.213  0.2066  0.1040 -0.2876
69264W        W12255  16.552   2.176  17.111 -0.2426  0.0491 -0.1634
69265W        W12256  21.287  33.152  25.965  0.1969 -0.1542 -0.0938
69266W        W12257  19.318  33.488  15.056 -0.0816 -0.1492 -0.0048
69267W        W12258  15.619  16.299  17.944  0.0855 -0.2702  0.0231
69268W        W12259  16.404  15.164  22.225 -0.2999 -0.0819 -0.1718
69269W        W12260   6.618  16.798  19.679  0.0573 -0.0938 -0.1825
69270W        W12261  14.418   4.217  22.157 -0.0566  0.3989 -0.1539
69271W        W12262  18.073   0.887  22.547 -0.0844  0.1448  0.0905
69272W        W12263  17.207   4.114  20.251  0.1403  0.1437 -0.0698
69273W        W12264  17.472   7.813  19.139  0.1884  0.0288  0.0221
69274W        W12265   5.409  14.632  19.282  0.0315 -0.2052  0.0870
69275W        W12266  11.935  18.386  13.023  0.0515  0.0158  0.1441
69276W        W12267  32.975   7.030  17.545 -0.0519  0.2135  0.0275
69277W        W12268   0.503   1.087  26.819 -0.3038 -0.3038 -0.0019
69278W        W12269  17.203  20.898  21.053  0.0256 -0.0483  0.2116
69279W        W12270  21.182  16.248  18.568  0.1042  0.0014 -0.0147
69280W        W12271  12.908  31.869  22.123  0.2338 -0.2387 -0.0600
69281W        W12272  18.734   3.422  23.214 -0.0952 -0.0933  0.3740
69282W        W12273  12.223  10.991  15.018  0.0895 -0.1755  0.0085
69283W        W12274  17.631   4.074  20.038 -0.0121 -0.0708  0.0698
69284W        W12275  26.650  28.701  21.841 -0.0752  0.1088 -0.3288
69285W        W12276   5.707   8.650  19.573  0.0219  0.0742  0.2668
69286W        W12277  23.991   8.358   7.636 -0.0584 -0.0919 -0.0241
69287W        W12278  20.934  31.396  25.701 -0.2726  0.0214 -0.1745
69288W        W12279  16.849  21.422  13.981  0.1987  0.2038  0.0119
69289W        W12280  19.546  12.651   4.079  0.0225 -0.1503  0.0479
69290W        W12281  16.297   2.633  17.198 -0.0667 -0.1999  0.1563
69291W        W12282  20.571   6.581  21.200 -0.1696  0.3420  0.0835
69292W        W12283  19.652  34.602  18.233 -0.0608 -0.0893  0.1477
69293W        W12284   9.512  17.317  21.946 -0.2242  0.2028 -0.0573
69294W        W12285  29.758   0.283  25.075  0.0131 -0.1906 -0.0595
69295W        W12286  16.652  10.036  20.588  0.0984 -0.2945 -0.0745
69296W        W12287   0.635  17.557  25.356  0.2276  0.2909 -0.4906
69297W        W12288   5.039   1.444  23.844  0.0335  0.3157  0.0769
69298W        W12289   6.010   7.315  16.050 -0.1218  0.1177 -0.0030
69299W        W12290  22.609  22.295  14.876  0.1456 -0.2529 -0.2421
69300W        W12291  30.528  17.828  17.309 -0.2978  0.1949  0.1344
69301W        W12292  13.664  33.841  23.490  0.4195 -0.1389 -0.1180
69302W        W12293  13.510   2.846  22.444  0.1608  0.0267  0.1633
69303W        W12294  22.119   6.161  19.386  0.0698  0.0344 -0.2099
69304W        W12295   7.858  14.038  17.125  0.4395  0.0716 -0.1198
69305W        W12296  17.014   9.157  20.678  0.1011 -0.2473  0.1761
69306W        W12297   6.976  27.639  15.812  0.0501  0.1836 -0.0210
69307W        W12298  24.900   8.729  22.096  0.0087  0.1742 -0.1761
69308W        W12299  20.922  14.214  28.914 -0.1070  0.2360  0.2286
69309W        W12300  15.137  18.906  25.693 -0.0591  0.2192 -0.1253
69310W        W12301  26.163   0.721  22.216 -0.1747  0.5051  0.2281
69311W        W12302  18.826   5.134  20.496 -0.0958 -0.0138  0.0845
69312W        W12303  20.445  28.043   0.412  0.4472 -0.2223 -0.1093
69313W        W12304  28.735   4.458  22.253 -0.2831  0.3016  0.3558
69314W        W12305  15.417   8.940  15.199  0.1897  0.0868  0.1762
69315W        W12306   3.954  25.769  26.637  0.2689  0.0924 -0.0793
69316W        W12307   2.331   3.955   2.912 -0.3555 -0.4000 -0.0729
69317W        W12308  22.328   9.042   3.850  0.0981  0.1932 -0.1414
69318W        W12309  18.416  28.074  14.795 -0.2130 -0.1162  0.0325
69319W        W12310   3.445   4.899  19.686 -0.1075 -0.1965 -0.3436
69320W        W12311  24.499  30.308   0.269 -0.1562  0.0784  0.0008
69321W        W12312  29.079   5.709  21.789  0.0597 -0.1026 -0.1624
69322W        W12313  32.251   9.014  25.838 -0.1570  0.2220  0.3976
69323W        W12314  15.351   7.743  16.060  0.0705  0.4871 -0.2706
69324W        W12315   0.723   2.740  14.423  0.0610 -0.1049  0.2154
69325W        W12316  19.847  13.373  19.318  0.1076  0.2293  0.0824
69326W        W12317  26.704  29.094  19.824  0.4369  0.1647 -0.1839
69327W        W12318  21.082   5.756  22.728  0.3303  0.0841  0.0925
69328W        W12319  24.418  19.912  17.314 -0.0206 -0.2381 -0.0995
69329W        W12320  17.310  20.611  12.944  0.0713  0.2922 -0.0085
69330W        W12321  16.922  33.255  13.357  0.0133  0.1232  0.1339
69331W        W12322  14.516  30.820   6.198  0.1903 -0.3509 -0.1252
69332W        W12323  27.499   4.500  14.395 -0.3216  0.2137 -0.1748
69333W        W12324  26.161  24.275  16.086  0.3160  0.1118  0.2061
69334W        W12325  18.567  20.034  13.868  0.1248 -0.0677 -0.2290
69335W        W12326  18.764  10.448  22.629  0.0832 -0.2356  0.0105
69336W        W12327  10.388  17.727  20.287  0.2779 -0.0181  0.3897
69337W        W12328  14.792  28.092  17.510  0.3269  0.0807 -0.4963
69338W        W12329  28.889  10.841  16.020  0.1067  0.1415 -0.0889
69339W        W12330  19.030   2.929  19.255  0.1150  0.0207  0.0342
69340W        W12331  14.962   8.536  17.207 -0.0974 -0.3633  0.0935
69341W        W12332  13.978  10.162  22.120 -0.2449 -0.2547  0.0599
69342W        W12333  18.874  33.075   3.557 -0.3891 -0.0579 -0.1447
69343W        W12334  14.884  32.053  21.024 -0.3114  0.2145  0.1671
69344W        W12335  14.917  25.995  25.554  0.1542  0.2111  0.1163
69345W        W12336  16.534  25.528  19.645  0.0171 -0.0032 -0.0656
69346W        W12337  13.038  33.463  28.624 -0.1145 -0.0413  0.0954
69347W        W12338  23.700   9.592  19.189  0.1305  0.1366 -0.2896
69348W        W12339   9.400  33.843  20.347 -0.0764  0.1718  0.2382
69349W        W12340  12.060   3.989  18.992 -0.0776  0.4583 -0.3146
69350W        W12341  26.969   2.851  14.846 -0.0716  0.0290 -0.1327
69351W        W12342  25.262   5.146  26.133 -0.0858 -0.2013  0.2594
69352W        W12343  11.344  10.616  15.853 -0.1132  0.1934  0.1428
69353W        W12344  27.435  17.065  20.918  0.0349 -0.1589 -0.1971
69354W        W12345  15.742  33.732  15.389 -0.0632  0.2820 -0.0804
69355W        W12346  17.726  33.042  17.498  0.0771  0.2548 -0.0262
69356W        W12347  25.988  21.488  18.909 -0.1034 -0.0897 -0.1399
69357W        W12348  13.132   1.196  22.993 -0.0407  0.1706 -0.0170
69358W        W12349  28.923  14.430  24.826 -0.5263  0.0881  0.2610
69359W        W12350   2.271  33.378  20.401 -0.0719 -0.3397 -0.1243
69360W        W12351  14.827  10.923  27.682 -0.5296  0.1599  0.0426
69361W        W12352  17.849  12.265  12.685  0.1345 -0.0895 -0.1849
69362W        W12353  25.951  30.491  25.333 -0.2926  0.0102  0.0475
69363W        W12354  26.242  33.289  19.293  0.4223 -0.1676  0.0279
69364W        W12355   8.184  24.631  16.322 -0.1197  0.0550 -0.2912
69365W        W12356  11.766   9.970  28.634 -0.0845 -0.0642  0.0444
69366W        W12357  33.643  29.551  20.211  0.0967  0.2152 -0.4547
69367W        W12358  24.737  31.660   4.952  0.0657 -0.2211  0.2789
69368W        W12359  33.574   7.116  15.936  0.1766 -0.0390  0.1669
69369W        W12360  25.371  13.261  22.522 -0.0257  0.1390 -0.2071
69370W        W12361  10.604   0.778  28.079  0.1445  0.0362  0.3947
69371W        W12362   3.012   7.400   1.443 -0.0872 -0.1627  0.3188
69372W        W12363  22.953   6.556  20.886 -0.3161  0.0010 -0.1319
69373W        W12364  19.853  15.026  12.059 -0.0007  0.0615  0.3363
69374W        W12365  33.235   9.691  19.044  0.0094  0.1975 -0.0648
69375W        W12366  16.135  13.816  25.191  0.0993  0.2497  0.1577
69376W        W12367  15.643   8.980   1.514 -0.1485  0.2539 -0.2798
69377W        W12368  29.045  22.307  22.985 -0.3099 -0.2714  0.0998
69378W        W12369   2.045  25.178   0.289 -0.2087 -0.1925 -0.3472
69379W        W12370  14.141   4.075  16.660 -0.0331  0.0917 -0.0394
69380W        W12371  21.456   1.542  16.600 -0.1767 -0.3783  0.2708
69381W        W12372  11.182   4.847   7.365 -0.0364 -0.1264 -0.2448
69382W        W12373  25.602   9.740  17.448 -0.3321 -0.0005 -0.1350
69383W        W12374  18.451   7.618  26.166 -0.0798  0.1484  0.1978
69384W        W12375  27.787   6.008  17.047  0.4260  0.1875  0.1713
69385W        W12376  19.138  12.093  16.850 -0.0033 -0.1364  0.0431
69386W        W12377   8.335   3.231  23.373  0.0739 -0.1567 -0.1650
69387W        W12378  24.906  12.085  20.031 -0.2258  0.0828 -0.1142
69388W        W12379  21.634   3.377   0.879  0.2498 -0.0412  0.1180
69389W        W12380  32.854   5.892  18.121  0.3316  0.0557  0.1445
69390W        W12381  26.302   6.621  17.428 -0.0835 -0.1815 -0.2742
69391W        W12382  15.449   2.449  15.529 -0.3194  0.2885  0.1681
69392W        W12383  26.881  34.132  17.635 -0.1080  0.3092 -0.1221
69393W        W12384   4.189  11.591  21.648  0.1080 -0.3180  0.1418
69394W        W12385  27.800  25.784  22.461 -0.0253 -0.3040 -0.1010
69395W        W12386  11.429  20.364  17.783  0.2034 -0.3599 -0.2768
69396W        W12387  12.130   2.555  26.832  0.1675  0.2869 -0.1546
69397W        W12388  15.757   7.503  17.466 -0.0928 -0.0119 -0.2267
69398W        W12389  29.010   6.047  17.154  0.3570  0.0468  0.1203
69399W        W12390  30.415   3.414  21.613  0.1530 -0.4228  0.0153
69400W        W12391  13.224  31.197  22.933 -0.2496 -0.2621  0.2428
69401W        W12392  11.212   9.018  15.649  0.2154 -0.1408 -0.2236
69402W        W12393  11.502   4.336  20.524  0.1755  0.2699 -0.0413
69403W        W12394   1.099  31.370  18.892 -0.2148 -0.3480  0.0101
69404W        W12395  18.866  10.719  14.995  0.0599  0.1905  0.2007
69405W        W12396   8.903  32.161  20.852 -0.1174 -0.2370 -0.0091
69406W        W12397  29.208  11.306  17.862 -0.1544  0.1942 -0.1043
69407W        W12398  11.732  11.278  19.888  0.1243  0.1415  0.1721
69408W        W12399   0.358  13.151  21.499  0.0664 -0.2694  0.2242
69409W        W12400  13.503  33.714  15.777 -0.1693  0.1913 -0.0522
69410W        W12401  23.334  20.499  22.828  0.1013  0.1655 -0.0166
69411W        W12402  11.186  28.923  16.908 -0.2599 -0.4609 -0.1809
69412W        W12403  16.216  33.578  17.269 -0.0767  0.0388  0.1595
69413W        W12404   0.074  10.272  18.206 -0.1453 -0.3057  0.5160
69414W        W12405  25.909  31.278  24.936 -0.1995 -0.3691 -0.1059
69415W        W12406  25.814  26.913  24.145 -0.1910 -0.0938  0.1631
69416W        W12407  22.485   8.190   2.875 -0.0457 -0.0729  0.1254
69417W        W12408  16.570  13.497  26.933  0.1308 -0.0297  0.2048
69418W        W12409   0.554   0.003  27.621  0.1542  0.0007 -0.2706
69419W        W12410   9.181  10.234  28.537  0.0059  0.0236 -0.1433
69420W        W12411  15.416   6.493  10.537  0.0887 -0.0711  0.0020
69421W        W12412  14.520  28.457  20.251  0.2810  0.0707 -0.0280
69422W        W12413  32.916  30.157  16.568 -0.3239 -0.1332  0.0036
69423W        W12414  29.041   7.685  15.550  0.1302  0.1129  0.0943
69424W        W12415   2.299  16.488  15.691  0.1483  0.1671  0.0072
69425W        W12416  20.851   7.369  21.516 -0.2621 -0.0386  0.1169
69426W        W12417  29.252   9.665  28.749 -0.3535  0.2854  0.0688
69427W        W12418  29.090  31.143  27.168 -0.1745 -0.3096 -0.0903
69428W        W12419  25.156  21.814   8.653 -0.2587  0.3321  0.2117
69429W        W12420   6.762  25.588  21.292 -0.1965  0.3009  0.0687
69430W        W12421  30.760   7.702   1.024 -0.0922 -0.4107 -0.0673
69431W        W12422  13.078   3.608  22.474  0.1891  0.1901 -0.0816
69432W        W12423  17.959   3.712  21.164 -0.2708  0.1432 -0.1846
69433W        W12424   7.053   7.281  25.463 -0.0059  0.2348  0.0388
69434W        W12425  21.547  20.217   3.793  0.1926 -0.2452 -0.1431
69435W        W12426  12.516  28.083  24.547 -0.2401 -0.3726  0.0576
69436W        W12427  15.404   0.508  28.979 -0.3469 -0.0243  0.2080
69437W        W12428  16.484   5.584  16.158  0.1205 -0.1536 -0.0878
69438W        W12429  27.162  32.003   0.840  0.1406  0.4740 -0.2566
69439W        W12430  10.539  21.426  15.287  0.1158  0.3076 -0.1066
69440W        W12431  33.304   5.722  14.896 -0.1463 -0.0363 -0.0755
69441W        W12432  18.225   3.985   8.371  0.0324 -0.2777  0.0795
69442W        W12433  17.597   9.973  23.319 -0.0669 -0.0430  0.0185
69443W        W12434   0.639  27.753   0.538 -0.0432 -0.3785 -0.1160
69444W        W12435  16.981   9.442   1.719 -0.0950  0.1492 -0.1174
69445W        W12436  12.409   6.333  18.736  0.0066 -0.1771  0.0052
69446W        W12437  11.831   7.709  18.228 -0.2480 -0.2088  0.0112
69447W        W12438  19.721  32.072   9.779  0.1934  0.0996  0.2893
69448W        W12439   7.808   2.762  18.657  0.4602 -0.0497  0.1484
69449W        W12440   1.368  12.210  17.296 -0.1676  0.3788  0.2238
69450W        W12441  15.329  23.120  28.804 -0.0238  0.1395  0.1249
69451W        W12442  33.307   4.611  24.456  0.0496  0.0770 -0.1801
69452W        W12443  33.260   8.153  21.075 -0.0911  0.0190 -0.2945
69453W        W12444   9.540   5.759   3.532 -0.3766 -0.0749 -0.2086
69454W        W12445  15.182   3.900   1.672 -0.0154  0.0289 -0.1240
69455W        W12446  23.315  16.600  22.609  0.2078 -0.0571  0.0253
69456W        W12447  11.166  34.291  23.199 -0.1860  0.2687  0.2619
69457W        W12448  24.304   6.571  16.655  0.0566 -0.0288 -0.2167
69458W        W12449  12.203  15.716  23.167 -0.1419 -0.0701 -0.4441
69459W        W12450  15.059  30.907  14.932 -0.0749  0.1083  0.0291
69460W        W12451  27.107  33.525  25.483  0.1366  0.1293 -0.0547
69461W        W12452   9.430   3.576  22.472 -0.2283 -0.1577  0.0594
69462W        W12453   7.811   4.314  19.917 -0.1992  0.1474 -0.1393
69463W        W12454  11.278   3.121  19.227  0.3801  0.3528 -0.2281
69464W        W12455  14.590  13.883  21.868  0.1020  0.0681  0.1667
69465W        W12456  22.088   7.046  23.879  0.0565  0.3517 -0.0130
69466W        W12457  17.124   2.911  19.871 -0.2264 -0.2237  0.1003
69467W        W12458  18.770  17.116   1.644  0.0249  0.1864  0.0134
69468W        W12459  11.640  19.902  25.805  0.2748  0.1116  0.2378
69469W        W12460  29.450  31.792   1.175 -0.1154  0.0296  0.0468
69470W        W12461  23.089  10.018  21.676  0.1335 -0.3293  0.0564
69471W        W12462  22.021   4.031   7.337  0.1458 -0.1577  0.1197
69472W        W12463  28.497  14.838  17.519  0.1785  0.0529 -0.2146
69473W        W12464  13.632  34.554  17.474  0.2002  0.2813 -0.1955
69474W        W12465  22.955  12.712  23.424  0.0311 -0.0548  0.3503
69475W        W12466  24.139  26.937  20.677 -0.3899 -0.1137  0.1163
69476W        W12467  23.180  33.399  26.677 -0.1048  0.0552  0.0234
69477W        W12468  20.450  17.633   0.148 -0.1102  0.0763 -0.1094
69478W        W12469  13.718   6.495  18.626  0.0292  0.2517  0.1432
69479W        W12470  18.182  22.520  15.415  0.2302  0.3316 -0.1024
69480W        W12471   6.263  14.514  15.095 -0.0961  0.2326  0.1416
69481W        W12472  16.269   9.076  21.038 -0.4681 -0.0599  0.0756
69482W        W12473  17.181  28.764  15.393  0.1407  0.0227 -0.0607
69483W        W12474  26.177   3.706  15.845  0.1102  0.1927 -0.2312
69484W        W12475  24.231   7.263  18.041  0.1685 -0.0398  0.0531
69485W        W12476  16.931  34.282   2.416 -0.1775  0.1234 -0.0572
69486W        W12477  25.108   5.522  17.771  0.0068  0.2382  0.3846
69487W        W12478  30.995   3.500  16.814  0.1059 -0.2978 -0.3618
69488W        W12479   3.017  26.021  15.278  0.0859  0.1058 -0.0988
69489W        W12480  26.032  19.090  23.823  0.2879 -0.1155  0.0655
69490W        W12481  11.478  28.960  19.771  0.0174 -0.1203  0.1516
69491W        W12482  22.608   4.065   3.043  0.2781 -0.1738  0.0722
69492W        W12483  22.204  27.518  16.909 -0.1349 -0.2755 -0.1129
69493W        W12484  10.319  22.778   3.146  0.1104  0.2247  0.1061
69494W        W12485   4.865   5.919  25.022  0.1290 -0.1158 -0.0193
69495W        W12486  17.653  33.136  27.161 -0.1758 -0.0968  0.1107
69496W        W12487  17.800  30.155  28.787  0.1326 -0.3379  0.1427
69497W        W12488   6.531   6.734  18.459  0.0288  0.1929 -0.1960
69498W        W12489  31.170  23.326  20.836 -0.2435 -0.0493 -0.1480
69499W        W12490  21.026  30.709   7.860 -0.0198  0.0723 -0.2392
69500W        W12491  13.724   2.082  20.266  0.1196 -0.0580 -0.0605
69501W        W12492  13.335  33.447  26.647  0.2447  0.0086 -0.2235
69502W        W12493  14.720   9.912  21.868 -0.0771 -0.0378  0.2054
69503W        W12494  18.776  34.497  17.999  0.0061 -0.0557  0.2342
69504W        W12495  18.950   5.303  19.080  0.1092  0.2289 -0.2665
69505W        W12496  12.027   3.213  15.575  0.2229  0.2259 -0.1806
69506W        W12497   2.225   4.595  18.861 -0.1138  0.2959 -0.0997
69507W        W12498   7.757  12.178  20.366 -0.1548 -0.0947  0.0067
69508W        W12499  14.536  31.730  26.490 -0.1471  0.0630 -0.0796
69509W        W12500  10.202  15.921  21.383  0.0717  0.0023  0.0672
69510W        W12501  13.486  23.188  17.715  0.1511  0.3108 -0.2232
69511W        W12502   7.463  31.050  25.704 -0.2315  0.3184 -0.3778
69512W        W12503  17.769   0.387  18.196 -0.1791 -0.2005 -0.2127
69513W        W12504   9.712  21.805  25.106 -0.1442  0.1226 -0.1430
69514W        W12505   9.265   9.707  19.113 -0.0277  0.2409 -0.4761
69515W        W12506  29.479  13.283  21.130 -0.0343 -0.1859 -0.2450
69516W        W12507  24.375  10.802   9.139  0.0067  0.0105  0.3560
69517W        W12508   6.167   9.006  23.094  0.3404  0.2030  0.2741
69518W        W12509  30.088  10.340  15.273  0.4513 -0.0487  0.1629
69519W        W12510   3.177   9.573  23.770 -0.0266  0.3366  0.1655
69520W        W12511   1.560   8.966   2.830 -0.1381  0.1181 -0.0652
69521W        W12512  19.007   2.142  13.629 -0.2910  0.0093  0.1795
69522W        W12513  28.260   0.418  23.138  0.3466 -0.1789  0.1022
69523W        W12514  14.088  10.169  15.519 -0.1814 -0.0325 -0.1108
69524W        W12515  28.454  17.581  24.806  0.0777 -0.1878  0.1619
69525W        W12516  18.859   2.943   5.033 -0.0224 -0.1990 -0.1698
69526W        W12517  25.075  33.445   3.481 -0.3268 -0.3444  0.2283
69527W        W12518  28.461  21.596  17.506  0.2277  0.0547  0.0397
69528W        W12519  17.865  12.347  14.530  0.0410 -0.1662  0.2208
69529W        W12520  18.216  10.388  23.973 -0.0998 -0.0897 -0.1468
69530W        W12521  13.339  30.393  28.602 -0.2347  0.2182  0.1380
69531W        W12522   7.375  17.247   3.020 -0.1101  0.0318 -0.2078
69532W        W12523  24.776  22.882  24.396  0.3336  0.0651 -0.0368
69533W        W12524   9.466  20.464  20.314 -0.2141 -0.2322 -0.1331
69534W        W12525   1.020  16.584  25.410 -0.0068 -0.0263  0.1492
69535W        W12526  24.224  17.853  14.324 -0.2074 -0.0118  0.0960
69536W        W12527  23.131   3.348  25.665  0.0235  0.3012 -0.0041
69537W        W12528   0.595  14.323  24.431 -0.3591  0.2741 -0.2061
69538W        W12529  12.489  33.075  29.093  0.0155  0.0367 -0.1624
69539W        W12530  11.919   7.518   5.873 -0.1837  0.2285  0.2030
69540W        W12531  20.227  13.468  13.486  0.0250 -0.0876 -0.2017
69541W        W12532   4.522  27.534  19.311  0.2999 -0.0368 -0.0986
69542W        W12533  16.550  25.356  14.626  0.0973  0.1624  0.1354
69543W        W12534  18.899   5.163   5.492  0.0768  0.0075 -0.0676
69544W        W12535   2.357  10.099  20.990  0.3917  0.1218  0.3139
69545W        W12536  10.278   8.857  27.358  0.0228  0.2481  0.0007
69546W        W12537  10.238   2.981  20.152 -0.0306  0.0818  0.1783
69547W        W12538  20.320   4.657  21.984 -0.1485 -0.0449  0.1912
69548W        W12539   8.182  18.104   4.334 -0.0861  0.2898  0.3719
69549W        W12540   7.357  20.929  21.849 -0.0570  0.4591 -0.0410
69550W        W12541  25.390   5.826  14.797  0.0758  0.3057 -0.3254
69551W        W12542  26.364  22.540  22.674  0.1329 -0.0783  0.0386
69552W        W12543  17.157  10.246  17.216  0.1084 -0.1082  0.1135
69553W        W12544  20.783   2.574  22.025  0.1352  0.0251  0.0127
69554W        W12545  15.397   5.572  16.529  0.1959 -0.0634  0.0219
69555W        W12546  11.227  33.810  15.292 -0.1234 -0.0813  0.2823
69556W        W12547  28.376  10.093  17.859  0.0982  0.1248 -0.2650
69557W        W12548  20.574   3.040  17.188 -0.0370 -0.1809 -0.1026
69558W        W12549  32.020   6.263  22.021  0.0946 -0.0290  0.0429
69559W        W12550  19.986  11.156  17.016 -0.0320 -0.0663 -0.2710
69560W        W12551  26.296  28.459   0.394 -0.0772 -0.1927  0.0712
69561W        W12552  12.762  34.180  22.408  0.0114  0.0131 -0.2099
69562W        W12553   1.417   4.081   6.521  0.1902  0.1989  0.0367
69563W        W12554   3.921  10.849  17.717  0.0038 -0.0257  0.2303
69564W        W12555  28.660   5.741  19.630 -0.2188 -0.1602  0.0844
69565W        W12556  18.789  11.467  15.656 -0.0061  0.1137 -0.0045
69566W        W12557  18.981   5.047  25.593 -0.0132 -0.3099  0.3086
69567W        W12558  25.261   7.401  18.810  0.0830 -0.2030  0.0365
69568W        W12559  28.158  29.157  25.784 -0.0325  0.0261 -0.0802
69569W        W12560  33.025   0.203  20.644  0.2181 -0.1797  0.1921
69570W        W12561  15.546   5.404  27.739 -0.2432  0.2523 -0.0880
69571W        W12562  18.747  13.926  25.133 -0.2105 -0.1069  0.2255
69572W        W12563  27.538  25.381  22.443  0.0027  0.0557  0.0531
69573W        W12564  12.389  24.022  23.960  0.2260 -0.2365 -0.0713
69574W        W12565  20.095  32.238  19.038  0.0075  0.0129  0.0812
69575W        W12566  20.682   2.824  22.896  0.0552 -0.1597  0.0788
69576W        W12567  23.502  30.655  21.577  0.1068 -0.0844  0.1785
69577W        W12568   4.182  20.311  18.112 -0.0738 -0.0601  0.2513
69578W        W12569  18.355   3.164  20.042 -0.1778 -0.0827  0.1465
69579W        W12570  12.647  11.149  21.627  0.0737 -0.1165  0.0972
69580W        W12571  11.424  14.334  20.120  0.0393  0.0240  0.0167
69581W        W12572   9.396  34.040  15.052 -0.0703  0.2621  0.2572
69582W        W12573  28.949  15.542  22.878 -0.2489 -0.1385  0.2145
69583W        W12574  18.690   2.554  19.292 -0.0931  0.1284  0.1497
69584W        W12575  21.705  25.003  19.819  0.0251 -0.1570 -0.1045
69585W        W12576  22.396   2.059  14.887  0.0945 -0.1249  0.1011
69586W        W12577  26.039  32.261  20.951 -0.1066 -0.1313 -0.0507
69587W        W12578  19.397   0.682  24.393 -0.1346 -0.0877 -0.2182
69588W        W12579  18.737   7.688  18.737  0.2995  0.2498 -0.1358
69589W        W12580   6.501   8.280  16.924 -0.0154 -0.0176  0.1651
69590W        W12581  13.756  12.514  14.790 -0.0505 -0.1879 -0.0224
69591W        W12582  27.662   3.840  20.504  0.0766 -0.2580  0.0096
69592W        W12583  20.147  19.149  15.626 -0.0027  0.1332 -0.2463
69593W        W12584  21.090  27.320  20.783  0.0770  0.0854 -0.2458
69594W        W12585  32.821  31.823  14.596  0.1207  0.0455  0.1646
69595W        W12586   1.784  10.880  27.967  0.1296  0.0585 -0.0842
69596W        W12587  15.701   6.979  25.445  0.0800 -0.0091  0.4881
69597W        W12588   7.156   5.601  23.852 -0.0584  0.1945 -0.2004
69598W        W12589  31.082  13.594  24.362 -0.1619 -0.3171  0.3798
69599W        W12590  23.310  19.024  28.687 -0.2519  0.2852 -0.0154
69600W        W12591  25.406  11.252  16.141 -0.1627 -0.0242 -0.0436
69601W        W12592  11.668  30.656  24.476 -0.1555  0.0597  0.1099
69602W        W12593   9.087   7.099  26.565 -0.0563  0.0229 -0.0775
69603W        W12594  10.323   9.791   8.939  0.0058  0.2010  0.3084
69604W        W12595  13.202   3.793  17.426  0.2963  0.0552  0.0792
69605W        W12596   4.852  16.725  25.489 -0.0139  0.0513  0.0447
69606W        W12597  13.297  11.975  23.678  0.1590 -0.0248  0.0148
69607W        W12598  19.802   0.843  21.514  0.3028 -0.1088  0.2060
69608W        W12599   6.387   7.716  28.528  0.1218 -0.3159  0.0516
69609W        W12600  25.693   4.931   2.553  0.1053 -0.5027 -0.0351
69610W        W12601  16.320   9.442  14.178 -0.0732  0.0373  0.3565
69611W        W12602  29.415  24.149  22.524 -0.2230 -0.0724  0.1367
69612W        W12603  13.080  15.033  15.276 -0.1818 -0.1743  0.1132
69613W        W12604  29.422   2.696  18.889  0.0338  0.1716 -0.0650
69614W        W12605  23.210  27.796  22.191  0.0316  0.0450 -0.4291
69615W        W12606   1.782  16.895  17.614  0.1017  0.3479  0.0547
69616W        W12607  11.458   3.672  21.815 -0.2424 -0.1553 -0.2602
69617W        W12608  19.669  13.925  18.447  0.1532 -0.0494 -0.0331
69618W        W12609  16.482   0.673  26.452  0.0467 -0.0548 -0.2292
69619W        W12610   1.626  12.084  16.159 -0.1237  0.0101  0.3127
69620W        W12611   9.775  15.012   3.886  0.0971 -0.0370  0.1079
69621W        W12612   6.923   6.792  17.720 -0.1479  0.1081 -0.0319
69622W        W12613  24.626  30.336  27.270  0.0174  0.0864  0.3231
69623W        W12614  22.726   9.554  17.112  0.0461 -0.0341  0.1606
69624W        W12615  24.549  18.230  18.434  0.0434  0.2701  0.3268
69625W        W12616  14.294   7.369  16.952  0.2979 -0.1068  0.2342
69626W        W12617  21.751  28.967   2.770  0.0544 -0.1415 -0.1015
69627W        W12618   9.787  18.653  23.269 -0.2232  0.0134  0.2251
69628W        W12619  20.578  14.826  20.253  0.0023  0.1093 -0.1089
69629W        W12620  23.165  12.378   7.273 -0.0657 -0.1341  0.2317
69630W        W12621  13.166   8.815   3.322 -0.2669  0.2596 -0.1123
69631W        W12622  17.524  26.049  28.673  0.1836  0.1645 -0.1876
69632W        W12623  14.106  33.660  24.147 -0.0543  0.0658  0.0679
69633W        W12624  24.424   5.967   7.323 -0.1488 -0.1164  0.2255
69634W        W12625   8.478  28.423  25.164  0.0958 -0.0445  0.2391
69635W        W12626  22.219   4.806  24.290 -0.0450 -0.0032  0.4361
69636W        W12627  16.729   5.613  16.575 -0.1348  0.3719  0.1797
69637W        W12628  17.842  18.198  13.723  0.0215  0.1957 -0.3079
69638W        W12629   9.755   2.542   1.385 -0.0303  0.3733  0.2138
69639W        W12630  17.942   0.924  25.984  0.0165 -0.0944  0.2088
69640W        W12631   0.159  11.921  18.380 -0.4454 -0.2179  0.1884
69641W        W12632  31.711  29.533  14.709  0.0072  0.2210 -0.0751
69642W        W12633  14.373   6.553  16.617 -0.1257 -0.1059 -0.0513
69643W        W12634  33.024  13.468   3.193  0.1278 -0.0090 -0.0038
69644W        W12635  20.104  12.293  14.116  0.1791 -0.0376 -0.1969
69645W        W12636  12.945  16.164  27.567  0.1496  0.3308  0.0668
69646W        W12637  17.910  25.677  20.884 -0.2343  0.0992  0.0541
69647W        W12638  24.492  29.144  23.382  0.0029  0.2595 -0.0153
69648W        W12639   4.704  30.917  13.998  0.0592  0.1686  0.0217
69649W        W12640  26.441  31.352  12.779 -0.0171  0.0446 -0.0890
69650W        W12641  15.219   8.384  16.603 -0.1401  0.1157  0.1142
69651W        W12642   3.679  10.106  22.929  0.1540 -0.1705 -0.0191
69652W        W12643  11.111   5.512   5.092 -0.0916  0.1190  0.2286
69653W        W12644   2.573   9.291  21.270 -0.0708 -0.2788  0.1502
69654W        W12645  24.825   7.925  14.914 -0.0492 -0.0892 -0.1574
69655W        W12646  25.984   9.706  14.202 -0.1967  0.2569 -0.1748
69656W        W12647  23.749  17.034  14.055 -0.0926 -0.1808  0.2247
69657W        W12648  30.426   1.109  25.963  0.0611  0.1122  0.4709
69658W        W12649  19.180  29.961  17.101 -0.2318 -0.1253 -0.1080
69659W        W12650   2.767  11.133  20.470  0.1402  0.1026 -0.1359
69660W        W12651   9.694  34.614   3.891 -0.2247 -0.2085 -0.3099
69661W        W12652  19.822  11.023  28.237  0.0376 -0.1125 -0.0898
69662W        W12653   2.774  16.000   1.368  0.2771  0.2333  0.4304
69663W        W12654   0.265  28.427  18.448  0.0605  0.0143 -0.1225
69664W        W12655  26.862  25.266  27.665 -0.0537 -0.0902 -0.0689
69665W        W12656   5.172   5.234  22.636  0.1742  0.2099 -0.2765
69666W        W12657   4.229  34.039  13.685 -0.1632  0.1573 -0.0647
69667W        W12658   7.266  33.869  16.187  0.1363 -0.1650  0.1487
69668W        W12659  10.770   4.353  27.109 -0.0577 -0.0098 -0.0707
69669W        W12660   7.360  15.090  25.712  0.0733 -0.4145 -0.2998
69670W        W12661  26.910   8.024  20.880  0.1320  0.0295  0.1738
69671W        W12662   0.638   9.493  23.201  0.1807 -0.1784 -0.0670
69672W        W12663   0.395   1.085  23.284 -0.0230 -0.2520 -0.0638
69673W        W12664  25.041  30.558  19.137 -0.0733 -0.0534  0.2828
69674W        W12665  15.605   3.219  28.518  0.0069  0.2077 -0.0317
69675W        W12666  28.931   4.420  16.485  0.1872 -0.0319 -0.0066
69676W        W12667   9.870   8.110   3.156 -0.2096  0.1337  0.2701
69677W        W12668  11.786  13.396  25.651  0.0007  0.1121  0.0574
69678W        W12669   3.365   4.541  23.418 -0.0312 -0.2494  0.1723
69679W        W12670   8.153   4.028  21.994 -0.1888 -0.2069 -0.0401
69680W        W12671   2.785  32.657  21.253 -0.2781  0.2914 -0.0319
69681W        W12672  26.587  15.578   1.157 -0.2461  0.0751  0.2587
69682W        W12673  30.392  19.239  24.493 -0.1317  0.2149  0.1579
69683W        W12674  20.681   6.269  21.631 -0.0522  0.2262 -0.1377
69684W        W12675  20.659  14.467  27.541  0.2722 -0.2777  0.1344
69685W        W12676  17.932  19.272   7.904 -0.2315  0.2244 -0.1011
69686W        W12677   9.455  19.799  20.616  0.1967  0.3211  0.0392
69687W        W12678   9.574   2.148  19.231  0.3633 -0.2453  0.1797
69688W        W12679  34.114  10.724  20.471 -0.1173 -0.3588  0.2148
69689W        W12680   5.734  30.854  14.459  0.0286 -0.4579 -0.0992
69690W        W12681  32.481  17.786   4.837  0.0856 -0.0332 -0.0893
69691W        W12682   3.124   5.452  25.286  0.1940  0.3541  0.1888
69692W        W12683  17.448  25.458  16.856  0.2944 -0.4167  0.2086
69693W        W12684  23.419   3.675  15.396 -0.2158 -0.1459  0.0980
69694W        W12685  11.973  24.424  19.930  0.2421 -0.2780  0.0713
69695W        W12686   6.169  21.681  17.395 -0.0611  0.4179  0.1099
69696W        W12687  23.622  14.762  18.082 -0.0311 -0.1902 -0.1764
69697W        W12688  16.775  24.078  14.891 -0.0606  0.0790  0.4826
69698W        W12689  12.190  11.342  18.075  0.0289 -0.2453  0.1148
69699W        W12690  29.451  28.107  28.774 -0.0162 -0.1762  0.1727
69700W        W12691  17.067  32.061  14.486  0.0183 -0.0870  0.2180
69701W        W12692  22.602   7.245  14.329 -0.0584  0.0354 -0.2115
69702W        W12693  22.588  10.644  27.478 -0.2948  0.3427  0.3814
69703W        W12694  11.490  32.503  16.476  0.1593  0.2174 -0.2739
69704W        W12695  25.617   0.830  15.149 -0.2903  0.0800 -0.1191
69705W        W12696   1.038   4.200   0.553  0.1921 -0.2428  0.0570
69706W        W12697  20.749   1.451   8.659  0.0597  0.1698 -0.1625
69707W        W12698  12.930  29.672  14.807  0.0088 -0.0906 -0.1492
69708W        W12699   6.558  20.927  16.221 -0.0043  0.3425 -0.2928
69709W        W12700  22.107  17.976  27.620  0.0835  0.0571 -0.1321
69710W        W12701   9.351   4.075   6.734  0.2054 -0.2623 -0.1828
69711W        W12702   5.399   6.660   7.732 -0.1014 -0.2216  0.2413
69712W        W12703  19.056  11.128  28.697 -0.1183  0.0475  0.0921
69713W        W12704   5.436   7.605  22.376 -0.1087 -0.0033 -0.0384
69714W        W12705  11.660  14.974  15.481 -0.0947 -0.2238  0.0688
69715W        W12706  25.644  15.081  14.000  0.0390 -0.0149  0.0652
69716W        W12707  12.408   9.793  15.891 -0.0583  0.0881  0.0304
69717W        W12708  12.590  29.987  18.351 -0.1773  0.0223  0.0702
69718W        W12709  10.592   1.480  18.166  0.1599  0.0369  0.0757
69719W        W12710  11.747   5.168  25.213  0.0728  0.4373 -0.0636
69720W        W12711  20.077  22.005  13.355  0.3529  0.1826 -0.1719
69721W        W12712  24.163   0.262  18.066 -0.0392 -0.4198  0.0059
69722W        W12713  15.283  18.031  15.284 -0.3289 -0.2976  0.1492
69723W        W12714   5.434   3.950  20.010  0.1573  0.2200 -0.4048
69724W        W12715  18.332   5.437  20.220  0.1064 -0.1415  0.0917
69725W        W12716  14.409   8.191   0.980 -0.0404  0.0838  0.2329
69726W        W12717   6.745  34.163   0.098  0.2657  0.2112  0.3563
69727W        W12718  22.808   7.421  18.818  0.2444  0.1001 -0.0168
69728W        W12719  23.669   9.614  19.722 -0.0119 -0.1352 -0.2248
69729W        W12720   4.394  19.829  19.022 -0.1925 -0.0112  0.2279
69730W        W12721  12.106  10.197  24.180 -0.3908  0.0069  0.0439
69731W        W12722  32.529   9.875  22.896  0.0931  0.2110  0.3294
69732W        W12723   8.546   7.143  15.226 -0.1431 -0.0756 -0.1170
69733W        W12724  30.182  31.078  12.576 -0.0790  0.3808 -0.0305
69734W        W12725  10.030   4.691  22.484  0.2867 -0.2143 -0.2014
69735W        W12726  17.440  13.362  18.462  0.2455  0.2149  0.0257
69736W        W12727  25.378  34.527  12.777 -0.0078 -0.0186  0.0565
69737W        W12728   8.807  28.915   0.824 -0.1449  0.1029  0.1448
69738W        W12729  17.691   7.718  20.928  0.1107 -0.1520 -0.1361
69739W        W12730  22.984   2.392  18.971 -0.0494 -0.0286  0.0219
69740W        W12731  14.361   2.276  24.179  0.0565  0.1975  0.0140
69741W        W12732  21.143   2.459  14.857  0.0150  0.0089 -0.1288
69742W        W12733  33.974  11.840  16.745 -0.3885 -0.0728 -0.1981
69743W        W12734   8.889  12.808  17.637 -0.2493 -0.2324  0.0424
69744W        W12735  27.138  15.742  20.758  0.0085  0.3050 -0.0336
69745W        W12736  13.857   0.166   3.551 -0.2362  0.2411 -0.1766
69746W        W12737  21.060  14.471  24.436  0.2161  0.0082 -0.0769
69747W        W12738  27.668   5.993  14.253  0.1687 -0.0048  0.0956
69748W        W12739  16.617   6.349  15.957  0.0192 -0.1577  0.0465
69749W        W12740  21.197  34.594   1.235 -0.0236  0.1784 -0.2796
69750W        W12741  34.593  11.860  10.366  0.0380 -0.1039  0.0849
69751W        W12742   8.707   8.639  23.442 -0.0631 -0.2743  0.2190
69752W        W12743  21.258   6.335  13.887  0.1378 -0.2175  0.2814
69753W        W12744  25.009   3.450  28.457 -0.1538 -0.1320  0.2588
69754W        W12745  31.176  32.635  17.180  0.0937 -0.1568  0.2672
69755W        W12746  18.093  20.953  13.039 -0.3357  0.2036  0.0037
69756W        W12747   1.744  30.870  15.604  0.3726  0.2482  0.2561
69757W        W12748   6.150  31.940  27.836  0.3338 -0.1130  0.0393
69758W        W12749  34.020  20.444   0.980  0.0526  0.2158  0.1745
69759W        W12750  24.410  32.106  21.227 -0.1147 -0.1727 -0.1030
69760W        W12751   3.640  31.228   0.256 -0.1572  0.2337  0.2662
69761W        W12752  26.683  13.323  17.821  0.1817  0.4032  0.0701
69762W        W12753  29.759   9.860  20.409 -0.0876  0.1239 -0.3773
69763W        W12754  27.563   5.800  14.745  0.1339 -0.1624  0.1108
69764W        W12755  22.890  11.405   3.643  0.2464  0.0168  0.1866
69765W        W12756  20.866  19.079   8.000  0.1669 -0.2486  0.1688
69766W        W12757  14.959   9.421   2.753  0.0189  0.2095  0.0394
69767W        W12758  16.908   9.311  17.122 -0.0285  0.0318  0.1467
69768W        W12759  22.006   0.594  26.228 -0.1449  0.2612  0.0892
69769W        W12760   7.532  30.647  25.985 -0.0520  0.2342 -0.2936
69770W        W12761  14.729   2.413  21.551 -0.2349  0.5586  0.0377
69771W        W12762  13.253   9.477  23.437 -0.1181  0.2956 -0.1170
69772W        W12763  24.703  22.782  14.008 -0.0610 -0.0269 -0.2816
69773W        W12764  12.009  13.015  19.009  0.2623 -0.1195  0.0986
69774W        W12765  19.425  29.327  27.820 -0.1918 -0.1777  0.0302
69775W        W12766   6.116  12.754  23.784 -0.2934 -0.3483 -0.0412
69776W        W12767  14.052  14.695  16.025 -0.3402  0.0966  0.1945
69777W        W12768  13.138  30.741  18.890  0.5045  0.1793 -0.0640
69778W        W12769   4.858   4.581  22.158 -0.0365 -0.0238 -0.3055
69779W        W12770  30.926   8.909  25.698 -0.1100 -0.1612 -0.2583
69780W        W12771   3.581  14.780  19.312  0.0541 -0.1250 -0.0740
69781W        W12772  29.944  31.462  17.373  0.0436  0.0826 -0.1699
69782W        W12773  13.000  13.071  23.414  0.0234 -0.3775  0.0111
69783W        W12774  14.133  34.087  23.480 -0.0274  0.3978  0.3142
69784W        W12775  19.654  29.634  25.333 -0.0544 -0.2242 -0.1399
69785W        W12776  26.363   1.591  16.243  0.2804 -0.1546  0.2654
69786W        W12777  26.704   2.280  24.276 -0.3196  0.0209 -0.2685
69787W        W12778  14.524   0.078  23.422 -0.0071  0.2297  0.0756
69788W        W12779  26.927  11.244  16.587  0.2617  0.2069 -0.0356
69789W        W12780  11.593  27.979  15.936 -0.0832  0.0054  0.2021
69790W        W12781  13.768  11.118  15.506 -0.0385  0.2461 -0.0952
69791W        W12782   1.980  23.564  23.054 -0.1512 -0.1773 -0.2013
69792W        W12783  10.583   4.874  23.343 -0.0971  0.0015  0.0468
69793W        W12784  11.081   8.506  15.732 -0.1346  0.0600  0.3331
69794W        W12785  25.267  16.983  17.510  0.3977  0.0388  0.0053
69795W        W12786  19.235   0.787  22.785  0.0387 -0.3357 -0.1333
69796W        W12787  11.078  28.092  25.943  0.1061 -0.2838  0.1651
69797W        W12788  19.159   8.498  16.573  0.1794 -0.0287 -0.1927
69798W        W12789  18.544  33.258  23.263  0.0265 -0.0930 -0.1218
69799W        W12790  10.504   3.817   7.224  0.0181  0.1812  0.3148
69800W        W12791  13.567   2.447  16.280  0.3600  0.3139 -0.3183
69801W        W12792   9.833  33.236   2.358  0.0076 -0.2207 -0.0439
69802W        W12793  24.634  19.122  16.774 -0.1986  0.0490  0.1550
69803W        W12794  22.334   3.699  27.316 -0.1591 -0.0787 -0.3692
69804W        W12795  10.649   6.210   5.912 -0.2813 -0.2586  0.0058
69805W        W12796   9.958   0.590  27.161  0.0036  0.4228 -0.1387
69806W        W12797  27.724  28.711  14.125  0.0545  0.0002 -0.2874
69807W        W12798  31.066  30.217  15.284 -0.2110 -0.0308 -0.0714
69808W        W12799  18.102  20.833  16.809  0.1425 -0.1101 -0.3910
69809W        W12800  23.922  14.370  16.104  0.0495 -0.1076 -0.0153
69810W        W12801  20.202  21.807  13.820  0.2027 -0.0277  0.1629
69811W        W12802   9.971   2.050   0.195  0.1182 -0.3035 -0.3222
69812W        W12803  22.767  23.842   7.719  0.0454  0.2997  0.2674
69813W        W12804  16.743  23.598  14.844  0.2677 -0.0168 -0.1350
69814W        W12805  11.272   9.007   6.662 -0.0883  0.2154  0.0175
69815W        W12806   4.997  33.656   8.018 -0.3645  0.0558  0.1760
69816W        W12807  12.639   4.739  27.052  0.3929 -0.1372  0.1665
69817W        W12808  16.748  11.250  15.518  0.1989 -0.2068  0.0604
69818W        W12809   1.293  30.566  16.572  0.1864 -0.1532  0.1289
69819W        W12810   1.252  11.413  23.377  0.1889 -0.1304  0.0278
69820W        W12811  21.724  16.298  19.103  0.0849 -0.1383  0.1453
69821W        W12812  16.149  33.459  18.984 -0.3313 -0.1961 -0.1499
69822W        W12813  30.412  10.114  18.085 -0.1550 -0.1906  0.0849
69823W        W12814  14.536   3.716  18.850  0.1930  0.0949  0.0272
69824W        W12815  20.221   3.013  14.711  0.1712  0.2075 -0.1827
69825W        W12816  10.160  29.768  17.992  0.1965  0.3573 -0.0987
69826W        W12817  33.668   9.679  23.873 -0.4370 -0.2976  0.0052
69827W        W12818  20.056   5.595  26.903 -0.1173 -0.0405 -0.2829
69828W        W12819  22.999   9.049   5.494 -0.0901 -0.1668 -0.0528
69829W        W12820  17.096   2.642  28.201  0.1575 -0.2505  0.0877
69830W        W12821  12.243   1.047  23.067 -0.0555 -0.0230  0.0708
69831W        W12822  15.548  22.706  23.255 -0.1180  0.1532 -0.1504
69832W        W12823  19.147  12.824  14.974 -0.0393  0.3064  0.0195
69833W        W12824  32.411  19.364  21.374  0.0941  0.0426 -0.0769
69834W        W12825   2.134  10.842   3.713 -0.0225 -0.1446 -0.1638
69835W        W12826  16.937   7.312  23.730 -0.1373  0.2901  0.0785
69836W        W12827   1.346   7.067  25.652  0.1698  0.0178 -0.2091
69837W        W12828  17.892   4.414  15.874  0.0911  0.2158  0.0556
69838W        W12829   1.823   2.220  22.958  0.5312  0.0073 -0.2686
69839W        W12830  14.775   8.893   8.970  0.2108  0.0945  0.0184
69840W        W12831  13.451  34.406  16.670  0.0246  0.1472 -0.0514
69841W        W12832  24.804  14.702   2.748 -0.2104  0.0459 -0.4126
69842W        W12833  13.964  25.656  22.283 -0.1962  0.1112  0.1476
69843W        W12834  24.992   4.108   3.940  0.0764  0.0468  0.0765
69844W        W12835  14.408  31.035  18.644  0.1916 -0.1867 -0.0705
69845W        W12836  21.616  17.681  27.706  0.3304  0.1347 -0.1670
69846W        W12837  10.444   9.947  22.905  0.1719 -0.3975  0.1199
69847W        W12838   1.494  12.313  20.937  0.1486  0.1357  0.1101
69848W        W12839  15.849  17.622  16.711 -0.0162  0.0105 -0.0588
69849W        W12840  18.659   3.318  25.087  0.1394 -0.0538 -0.3424
69850W        W12841  27.751   9.200  23.903 -0.1333 -0.0830 -0.1476
69851W        W12842   3.700   1.536   3.289  0.0985 -0.0755  0.0150
69852W        W12843  18.995  11.897  17.828  0.0441 -0.1409 -0.0254
69853W        W12844  19.225  12.014   4.424  0.2993  0.1196 -0.0549
69854W        W12845  25.608  32.365  15.278  0.1897 -0.0973  0.1364
69855W        W12846  23.155  24.403   2.952  0.0480 -0.0240 -0.0745
69856W        W12847  15.653   9.946  19.266 -0.0139  0.2009  0.0525
69857W        W12848  29.160   6.988  23.465 -0.0515  0.1670  0.1259
69858W        W12849  24.297   3.172  23.575 -0.0024  0.0980 -0.1631
69859W        W12850  15.904   0.323  21.149  0.0445 -0.0650  0.1615
69860W        W12851   9.207  27.674  18.706  0.3939  0.1727 -0.3382
69861W        W12852  29.720  28.496  29.007  0.2357  0.1411 -0.0780
69862W        W12853  16.161   2.056  14.950 -0.2532 -0.0205  0.2123
69863W        W12854  22.459  34.139  15.617 -0.2739 -0.1109 -0.0301
69864W        W12855  15.156  34.714  15.960 -0.0803  0.1767  0.0218
69865W        W12856  17.760   2.336  27.398 -0.4041 -0.3466 -0.0163
69866W        W12857  23.956  28.246  13.330 -0.1312  0.0014 -0.0811
69867W        W12858  15.566   3.379  16.481  0.0655  0.1228 -0.2688
69868W        W12859  15.236   3.668  22.213  0.0032 -0.1241 -0.2825
69869W        W12860  17.131  16.754  12.015  0.1194  0.1750 -0.1676
69870W        W12861  27.376  21.730  25.519 -0.0788  0.0644 -0.0052
69871W        W12862  25.735  20.173  14.692  0.0764  0.0741  0.1239
69872W        W12863  34.631   5.604   1.098  0.2741 -0.0513 -0.1326
69873W        W12864  23.459   1.789  13.913  0.1330 -0.3239  0.0026
69874W        W12865  25.631  14.740  21.098 -0.0871 -0.1922 -0.0408
69875W        W12866  26.716   1.114  21.865  0.0616 -0.0502 -0.0795
69876W        W12867  15.847   5.212  19.929 -0.2651 -0.0329 -0.0316
69877W        W12868  11.991   8.195   5.266 -0.1323 -0.0141  0.1715
69878W        W12869  23.992  11.647  18.194 -0.3265  0.2218  0.1826
69879W        W12870  23.304  32.973   3.527  0.4066  0.0001  0.3487
69880W        W12871  31.512  11.340  25.124 -0.4081 -0.0995 -0.1230
69881W        W12872  20.463   9.428  19.578 -0.0788  0.0166  0.0935
69882W        W12873  16.677   7.721  17.788 -0.0852 -0.0420  0.1391
69883W        W12874   4.730   1.457  18.883  0.0284  0.1530  0.1503
69884W        W12875  15.644   3.768  23.080 -0.2366 -0.1380 -0.0648
69885W        W12876  26.751  32.803  18.766 -0.1554  0.0469  0.3563
69886W        W12877  14.367   3.571  25.973  0.1354  0.2698 -0.1263
69887W        W12878  33.592  17.970  22.759 -0.0613 -0.1093  0.1952
69888W        W12879   6.257   4.855  20.687 -0.0205 -0.2379 -0.0197
69889W        W12880   4.045   6.321  26.478  0.2944  0.0159 -0.0380
69890W        W12881  16.903   7.116  24.265 -0.0635  0.0132 -0.1716
69891W        W12882  26.396  11.653  28.635  0.0425  0.1314 -0.0665
69892W        W12883   9.091  13.980  19.363  0.1185 -0.4733  0.3261
69893W        W12884   9.829   8.215  19.570  0.2858  0.0407  0.0341
69894W        W12885  11.426  33.203  15.090  0.0481  0.0479  0.1429
69895W        W12886  20.224   9.751  23.578  0.0573  0.1970 -0.0738
69896W        W12887  11.091  14.364  27.253 -0.1031 -0.2659 -0.1598
69897W        W12888  23.954   3.346   7.968 -0.1333  0.0199 -0.0085
69898W        W12889  26.197   3.583  19.546  0.1089 -0.2185  0.2164
69899W        W12890  11.218   1.690  27.909 -0.0039  0.1263 -0.0361
69900W        W12891  24.076   9.344  19.415 -0.1060 -0.1155 -0.1461
69901W        W12892  10.349   4.741  17.030  0.2506  0.2067 -0.1816
69902W        W12893  17.759   4.652  28.952  0.4097 -0.0520  0.0489
69903W        W12894  27.551  18.616  20.616  0.1040  0.1661  0.1519
69904W        W12895  11.921   5.709  19.530  0.1528  0.0989  0.0033
69905W        W12896  11.355   2.088  22.276  0.4514  0.0512  0.1887
69906W        W12897  26.571  21.549  21.526  0.1048  0.2690  0.0999
69907W        W12898  28.608  31.461  16.456 -0.1596  0.0959 -0.2676
69908W        W12899  16.127  33.973  13.900  0.1344  0.0387 -0.0500
69909W        W12900  20.406  32.604  28.261  0.1173  0.0319 -0.0775
69910W        W12901  30.575  29.999  12.266 -0.0882  0.0576  0.1302
69911W        W12902  33.379  10.410   6.792 -0.1249 -0.1018  0.0018
69912W        W12903   9.417   0.327  25.096  0.0109 -0.0655 -0.2447
69913W        W12904  19.720  14.195  15.558  0.0915  0.1200 -0.1685
69914W        W12905  30.654   8.412   6.720 -0.2931  0.0485 -0.3608
69915W        W12906  29.705   3.092  18.668 -0.3995  0.1849  0.2640
69916W        W12907  22.511  13.937  13.687 -0.1003 -0.1914 -0.0743
69917W        W12908  18.289   4.447  16.317 -0.0314 -0.1529  0.0983
69918W        W12909  22.374  16.274  25.709 -0.1649  0.0511 -0.1497
69919W        W12910  19.753  23.594   3.160  0.0952 -0.0758 -0.0154
69920W        W12911   2.396   3.150   6.753  0.0822  0.0565 -0.0820
69921W        W12912  25.389  23.571  22.644 -0.1128  0.0040  0.0016
69922W        W12913  16.701   5.787   9.689  0.0974 -0.0572 -0.3499
69923W        W12914  26.539   2.436  23.388  0.0566  0.1472  0.4316
69924W        W12915   1.125  18.147   0.447  0.0071 -0.2148  0.2599
69925W        W12916  11.142  12.797  17.000 -0.0068  0.2960  0.1166
69926W        W12917   4.546  28.303   5.694 -0.3990  0.1109 -0.2936
69927W        W12918  15.010   1.621  20.594  0.0879 -0.1156  0.0114
69928W        W12919  15.876  13.766  17.717  0.2354 -0.1186  0.1378
69929W        W12920  24.842   9.216  17.833 -0.3166  0.1175 -0.0406
69930W        W12921  17.477   7.748  28.191 -0.2037  0.1721 -0.0913
69931W        W12922  12.585  15.852  17.863 -0.1558  0.1214 -0.1723
69932W        W12923   8.867  24.841  13.870 -0.0094 -0.4365  0.1624
69933W        W12924  24.014   6.266  21.505  0.3081  0.0110 -0.0055
69934W        W12925  30.652   8.494  28.766  0.0902 -0.0850  0.2130
69935W        W12926  11.380   7.990  24.267 -0.1775 -0.2397  0.1251
69936W        W12927  15.719  13.668  15.298  0.1841  0.2420 -0.2288
69937W        W12928  17.737  34.424   2.238  0.1657  0.1686 -0.2661
69938W        W12929  22.804   2.879   5.950 -0.0441 -0.0138 -0.0847
69939W        W12930  14.470   7.789  24.993  0.3209 -0.3032 -0.2622
69940W        W12931  10.241   9.221  22.878 -0.2105  0.0479  0.0548
69941W        W12932  17.121   7.044  26.948 -0.2534 -0.1176  0.0301
69942W        W12933   8.730   5.964  22.349  0.0667  0.0817  0.0874
69943W        W12934  16.633  32.294  26.355 -0.1828  0.0451  0.0807
69944W        W12935  21.603  33.845  25.081 -0.1542 -0.2201  0.1153
69945W        W12936  10.519  25.726  20.220  0.4406  0.1025  0.0727
69946W        W12937  10.910  22.174  23.820 -0.2720  0.3932 -0.4069
69947W        W12938  28.013   5.439   0.746  0.0727 -0.0052  0.0816
69948W        W12939   1.115   5.967  26.394  0.2198 -0.2095  0.1383
69949W        W12940   5.915  26.642  21.641 -0.1820  0.2671 -0.1409
69950W        W12941  22.319  15.596  27.019 -0.0828 -0.0563 -0.0626
69951W        W12942   4.176  31.691  20.970  0.0402  0.1508 -0.0905
69952W        W12943  14.751  30.664  15.661 -0.1146  0.0514 -0.2562
69953W        W12944  16.471  10.309   1.693 -0.1718 -0.2540 -0.1070
69954W        W12945  11.408  34.252  24.512 -0.1248 -0.1205  0.0406
69955W        W12946  12.727  14.553  16.534  0.1153 -0.2800 -0.2027
69956W        W12947  11.641  31.111  18.691  0.0948 -0.3085 -0.2832
69957W        W12948  19.333   0.476  24.881 -0.1740 -0.0848 -0.1112
69958W        W12949  13.253   8.567  27.801  0.3346  0.1081 -0.2853
69959W        W12950  13.420  12.923  21.557 -0.0517 -0.2655  0.2011
69960W        W12951  12.869   7.097  21.057  0.2740  0.0858  0.1305
69961W        W12952  16.120   3.458  22.200 -0.1428 -0.1193  0.4393
69962W        W12953  13.645  12.278  15.667  0.0310 -0.1032 -0.1552
69963W        W12954  24.121   4.357  24.561 -0.0816  0.1011 -0.0161
69964W        W12955  31.939   5.493  15.811  0.0807  0.0294 -0.0912
69965W        W12956  27.069  24.898  17.383  0.1173  0.0551  0.1206
69966W        W12957  21.818  31.551  27.234  0.3528  0.0116  0.2842
69967W        W12958  13.704  13.303  22.865 -0.0626  0.1180 -0.0013
69968W        W12959  26.276  23.664  17.374 -0.2067 -0.0795  0.2507
69969W        W12960  18.903  24.209   5.307  0.4180 -0.0766 -0.0525
69970W        W12961  20.234   7.257  16.061  0.1146  0.0227  0.2033
69971W        W12962  17.764  33.314  28.828 -0.3637 -0.0142  0.1623
69972W        W12963  25.107   0.691  16.789  0.1340  0.2415  0.1033
69973W        W12964  15.557  12.859   7.290 -0.1125 -0.0229  0.1076
69974W        W12965  16.788   4.145  25.041 -0.0705 -0.2435  0.1812
69975W        W12966  24.846   7.358   5.584  0.1857  0.4608  0.3060
69976W        W12967  16.834  33.901   3.366  0.2934 -0.3649 -0.1625
69977W        W12968  15.814   8.222  23.294  0.2667 -0.3420 -0.0921
69978W        W12969  18.732  24.414  28.109  0.1235 -0.1862  0.1152
69979W        W12970  18.635   8.183  23.740 -0.0602 -0.0198 -0.1742
69980W        W12971  29.748  29.797  26.649 -0.2000 -0.1761  0.1211
69981W        W12972  19.212  30.369  19.461  0.0180 -0.0536  0.3664
69982W        W12973  30.953   3.387  14.505 -0.2226  0.1395  0.1540
69983W        W12974  13.479  10.690   3.973  0.1364  0.0022  0.0608
69984W        W12975  20.323   9.750  19.078 -0.0758  0.0435  0.0626
69985W        W12976  21.993  33.503  20.734  0.1506 -0.1361  0.1373
69986W        W12977   6.937   7.848  14.935  0.3195 -0.0531 -0.1456
69987W        W12978   0.940   4.008  19.292  0.0164  0.1798 -0.1121
69988W        W12979  12.911  10.866   2.895  0.0721  0.3176  0.2534
69989W        W12980  28.089   6.444   1.868 -0.1230 -0.1135  0.2208
69990W        W12981   5.444  15.722  28.977 -0.0867 -0.0138 -0.2133
69991W        W12982   6.940  11.005  27.965 -0.2062 -0.2874 -0.1894
69992W        W12983  10.699  17.328   2.965 -0.0886 -0.2241  0.0860
69993W        W12984  12.730  17.811  24.588 -0.1218 -0.4069  0.1770
69994W        W12985  15.335  30.939  28.564 -0.0092  0.1083 -0.1558
69995W        W12986   7.636   4.785  15.258 -0.0013  0.2243 -0.0315
69996W        W12987   9.179  14.135   0.371 -0.1871 -0.1252  0.2716
69997W        W12988  28.087  26.066   3.456  0.1659 -0.1170  0.0600
69998W        W12989  23.884   6.927  26.615  0.4088  0.1783 -0.1306
69999W        W12990  19.696  32.170  17.856  0.3184  0.1401 -0.0297
70000W        W12991  23.448  20.083  21.040 -0.3479 -0.1450  0.1615
70001W        W12992   8.864  11.748   1.354  0.2922  0.1000 -0.3081
70002W        W12993  30.884  34.310   7.806  0.0084  0.1292 -0.0889
70003W        W12994  23.494  26.322  14.840 -0.1138 -0.0096  0.0673
70004W        W12995  30.953  12.085   4.167 -0.1328  0.0614  0.0287
70005W        W12996  16.203   8.665  24.491  0.1193  0.0911 -0.0558
70006W        W12997  27.815  27.341  22.703  0.2126  0.2187 -0.0314
70007W        W12998   3.737   6.814  15.755  0.2787  0.1116 -0.1070
70008W        W12999  22.172  17.667  20.757  0.3217 -0.1102 -0.2381
70009W        W13000  17.248  30.549   6.883  0.0771  0.1532  0.0203
70010W        W13001  14.180  20.759   1.037  0.1695 -0.0155 -0.3304
70011W        W13002  18.600  24.167   6.018 -0.2429 -0.3714 -0.1117
70012W        W13003  30.002  16.622  22.630 -0.1213  0.1757 -0.0754
70013W        W13004   8.518   4.656  25.698 -0.0148 -0.1176  0.2311
70014W        W13005  23.290   4.615  25.494 -0.2846  0.1339  0.0081
70015W        W13006  14.114  33.365   4.828 -0.1153  0.0007  0.0003
70016W        W13007  18.863   5.156  28.455 -0.4245  0.1375  0.3501
70017W        W13008   9.785  20.213  21.109 -0.3832 -0.0191  0.1081
70018W        W13009  17.221   4.358   5.896 -0.0719 -0.0492 -0.0499
70019W        W13010  12.476   6.118  11.506  0.0952  0.1506  0.0587
70020W        W13011   5.371  33.914  19.822  0.0006  0.0500  0.1219
70021W        W13012   3.208  20.014  15.865 -0.1915  0.0423 -0.1121
70022W        W13013  29.625  28.584  27.431 -0.0278 -0.0322 -0.3684
70023W        W13014   8.603  10.548   5.327 -0.1009  0.1054 -0.1817
70024W        W13015   9.319  12.981  20.268  0.1802  0.0581 -0.1377
70025W        W13016  18.503   9.221  18.481 -0.2013  0.1179 -0.0549
70026W        W13017  14.441  34.627  17.398  0.2111 -0.3775  0.2540
70027W        W13018  11.569   2.053   1.196 -0.1120  0.1534  0.1988
70028W        W13019   5.423  21.810  27.597 -0.0387 -0.0765 -0.4004
70029W        W13020  25.113  28.146  15.234  0.0581  0.1592  0.1370
70030W        W13021  15.520  26.926   1.616  0.0579  0.0854 -0.0719
70031W        W13022  28.790  26.062  20.472 -0.2252  0.0984 -0.3208
70032W        W13023   5.191  29.810  15.984  0.0301  0.1919  0.0979
70033W        W13024  12.167   2.668  28.339 -0.2371 -0.1926  0.3232
70034W        W13025  17.004   1.012  23.296 -0.0316  0.1440 -0.0908
70035W        W13026  11.503  28.891  28.269 -0.0637 -0.1314  0.0892
70036W        W13027  24.526  28.823   5.908  0.1013  0.0772 -0.0774
70037W        W13028  18.892  12.589  17.104  0.1625  0.1608  0.1716
70038W        W13029  19.077  12.008  23.666 -0.0688  0.1244 -0.0946
70039W        W13030   8.770   6.012  23.874  0.2180 -0.2272 -0.2790
70040W        W13031  21.677  16.885  19.148  0.2700  0.1535  0.1322
70041W        W13032  25.259  14.075  24.172  0.1405 -0.3789  0.0256
70042W        W13033  32.152   4.030  14.911  0.1084 -0.0386  0.2247
70043W        W13034  17.264  16.622  27.277  0.2029  0.1423 -0.0702
70044W        W13035  23.430   0.348  26.233  0.0122 -0.0427 -0.1729
70045W        W13036  17.012   0.429  22.841 -0.2057  0.1853  0.0749
70046W        W13037  11.444  13.637  27.591 -0.2563  0.0344  0.2039
70047W        W13038   9.624   5.756  24.129 -0.0560 -0.3006 -0.1813
70048W        W13039  29.872  32.297  14.242  0.0517  0.0246 -0.0372
70049W        W13040  29.999  16.427  18.934 -0.0898 -0.1719  0.0770
70050W        W13041   6.245  27.035  29.154 -0.1273  0.2449 -0.2612
70051W        W13042  23.919  15.959  15.440 -0.1382  0.2209 -0.2265
70052W        W13043  19.558  33.370   9.646 -0.1241 -0.2037 -0.2286
70053W        W13044  25.153   3.829  21.598  0.0561  0.0265  0.1284
70054W        W13045  25.213   7.602  14.863  0.1482  0.0425 -0.2151
70055W        W13046  21.693  32.958  16.360  0.1622 -0.2184 -0.2054
70056W        W13047  11.572  12.680  23.798  0.2258  0.1721  0.2028
70057W        W13048  25.135  25.803   8.868 -0.0412 -0.0585 -0.0358
70058W        W13049  25.427   2.125  18.694  0.0340 -0.1418  0.0317
70059W        W13050  16.135   7.813   1.071  0.1271 -0.1331  0.1004
70060W        W13051   2.265  17.867  16.997 -0.1246  0.3658  0.3283
70061W        W13052   4.851  10.173  28.310 -0.0147 -0.1242  0.2939
70062W        W13053  18.239   1.448  18.767  0.0832 -0.0400 -0.1996
70063W        W13054  28.133   7.848  19.634  0.0490  0.0351  0.0364
70064W        W13055  11.110   4.205  26.634 -0.1653 -0.0990 -0.0596
70065W        W13056   4.794   2.125  28.684  0.0075  0.2005 -0.0977
70066W        W13057  21.370   8.192  20.815  0.1804 -0.2352  0.1307
70067W        W13058  31.776  22.147  24.038 -0.1219 -0.0329 -0.0397
70068W        W13059   5.933   1.816  25.295 -0.0020 -0.1307  0.1168
70069W        W13060   5.479   1.130   4.960 -0.2017  0.2257  0.1098
70070W        W13061  18.343  25.348  27.469 -0.0003  0.0177 -0.1805
70071W        W13062  19.161  20.794  14.494  0.0081  0.1623 -0.0156
70072W        W13063  34.685  10.573  20.238  0.1539 -0.3966 -0.4141
70073W        W13064   2.298   8.307  25.207 -0.1313  0.3391 -0.0470
70074W        W13065  21.321  31.984  17.099  0.0797 -0.2938  0.1670
70075W        W13066  26.817  21.613  28.166 -0.2190 -0.0376 -0.1982
70076W        W13067  19.150  11.783  21.666 -0.0185 -0.2579 -0.1042
70077W        W13068  34.055  18.981  15.799  0.0138  0.2500 -0.2742
70078W        W13069  25.514  24.039  28.313 -0.2133  0.1579 -0.0750
70079W        W13070  22.335  12.361   7.760 -0.1750  0.0127 -0.0022
70080W        W13071  20.088  26.508   4.411 -0.0269 -0.3031  0.1724
70081W        W13072  20.929  12.344  18.100  0.2075  0.2013  0.2633
70082W        W13073  31.421   7.943   5.335 -0.1425  0.0289 -0.0097
70083W        W13074  23.946  11.026   8.314  0.2276  0.2341 -0.0670
70084W        W13075  27.272   4.534  22.679 -0.1672 -0.0804 -0.0355
70085W        W13076  30.425  33.274   1.509 -0.1199  0.0872 -0.2029
70086W        W13077  22.107  28.440  19.804  0.0071  0.1101  0.0799
70087W        W13078  27.442  11.151  18.683  0.0732 -0.0194 -0.0650
70088W        W13079  14.755  11.065   6.140 -0.2118 -0.2112 -0.2381
70089W        W13080  30.813  11.729  25.497 -0.1581  0.0004  0.0472
70090W        W13081  34.712   5.631  20.928  0.1103  0.0177  0.1418
70091W        W13082  14.145  10.975  29.087  0.0942 -0.0508 -0.0189
70092W        W13083  24.880  28.484  18.370 -0.0502  0.1813  0.0264
70093W        W13084  24.951   2.448   5.454  0.2788 -0.1739  0.2281
70094W        W13085  15.622   4.138  25.832  0.2952 -0.1872  0.3878
70095W        W13086  30.393  25.610  21.469  0.2636  0.2079 -0.4784
70096W        W13087  20.163  10.337  21.865  0.1447 -0.2026 -0.4395
70097W        W13088  33.476  29.964  21.910 -0.1126  0.3765  0.2350
70098W        W13089   8.064   0.487   4.431  0.2527  0.0213 -0.3245
70099W        W13090  15.205  27.730   7.480  0.0053  0.0836  0.0865
70100W        W13091  19.311  13.869  15.349  0.1908 -0.2002 -0.0876
70101W        W13092  33.146   7.656   6.072  0.3701 -0.1203  0.1084
70102W        W13093  25.877  34.164  19.090 -0.2481  0.0924  0.2319
70103W        W13094  17.275   9.954  24.883 -0.3498  0.3454 -0.0270
70104W        W13095   9.666  20.717  25.401 -0.0535  0.3509 -0.1888
70105W        W13096  12.927   0.446  18.947 -0.0096 -0.2335 -0.1185
70106W        W13097  28.665   2.927  24.950  0.3839 -0.4874 -0.2240
70107W        W13098   4.348   9.087  16.766  0.1224  0.1094  0.0063
70108W        W13099  20.720  12.032  22.096  0.2357  0.0352 -0.0146
70109W        W13100  22.422  32.460  21.504  0.4728 -0.0011  0.1977
70110W        W13101  14.751  16.253  17.344  0.5108  0.1850 -0.2055
70111W        W13102   0.734   3.676  10.150  0.0105 -0.2828  0.3528
70112W        W13103  31.190   0.827  16.078 -0.3313  0.0736  0.1311
70113W        W13104   4.173  28.786  28.163  0.0925  0.1872  0.1618
70114W        W13105   3.196   4.845  23.750 -0.1489  0.2517  0.0305
70115W        W13106  18.766  11.286  14.759  0.3678 -0.0201  0.1639
70116W        W13107  22.766  15.788  25.212  0.1585  0.1735 -0.0634
70117W        W13108   5.799  13.337  15.370  0.0465 -0.1017  0.2177
70118W        W13109  20.686  30.796   7.464 -0.0862  0.2894  0.0431
70119W        W13110  19.353  16.891  28.297 -0.0938 -0.2227 -0.1272
70120W        W13111  17.733  10.633  19.134  0.2798 -0.2228  0.0010
70121W        W13112  19.210   3.029  28.955 -0.0423  0.1932  0.1262
70122W        W13113  22.830  19.612  17.569  0.0603 -0.2772 -0.1481
70123W        W13114  22.940   2.027  17.719  0.0128 -0.3013 -0.1525
70124W        W13115  31.145  11.566  23.670  0.1644 -0.2748  0.2344
70125W        W13116  16.322  34.461  20.884  0.0197 -0.2751 -0.0313
70126W        W13117  19.281  30.538  19.926 -0.2150  0.2971  0.0584
70127W        W13118  13.120   8.083   2.682  0.1212  0.1017 -0.1560
70128W        W13119   0.416   6.053   0.419  0.2770  0.1014  0.1618
70129W        W13120   5.300  33.036  14.651 -0.0179  0.1684  0.0091
70130W        W13121  29.399  25.762  22.761  0.1902  0.1257 -0.1171
70131W        W13122   7.754  22.904   0.281 -0.2781 -0.2047 -0.2889
70132W        W13123  13.027  13.146  15.785  0.0850  0.0372 -0.2745
70133W        W13124  12.606  10.442  20.237 -0.0411  0.0000 -0.2128
70134W        W13125   5.637  30.107  21.720 -0.0996  0.2013 -0.2358
70135W        W13126  11.670  13.253  23.412  0.0996 -0.2559  0.1867
70136W        W13127  31.197   8.343  25.416 -0.2217 -0.2355  0.1033
70137W        W13128  25.962  22.046  16.710 -0.3613  0.0503  0.1749
70138W        W13129  19.104   5.641  22.593 -0.0162  0.1206  0.3806
70139W        W13130  23.537   0.688  14.856 -0.0218 -0.1177  0.2003
70140W        W13131  29.237   1.904   7.385  0.0682 -0.0808  0.1726
70141W        W13132  21.148   7.419   1.691  0.0596 -0.1447 -0.1764
70142W        W13133  26.604  28.840   5.933 -0.2044 -0.0553 -0.2815
70143W        W13134  31.564   7.952  24.689  0.0301  0.3498 -0.1345
70144W        W13135  10.107   9.224   9.293 -0.3642  0.0295  0.0470
70145W        W13136  33.214   4.981   0.604 -0.1538  0.0844  0.1294
70146W        W13137  19.985  26.518  25.295 -0.0551 -0.1451 -0.2288
70147W        W13138  20.788   7.618   0.875 -0.0084  0.0469 -0.0973
70148W        W13139   8.506   9.142  17.705 -0.1689 -0.2830  0.1708
70149W        W13140   7.777  23.173  23.299  0.0932 -0.3427 -0.0871
70150W        W13141  22.084   7.717  14.906 -0.0768  0.2095 -0.0589
70151W        W13142  11.905  29.054  24.429 -0.0074 -0.1657 -0.0176
70152W        W13143  27.971  34.753   2.152 -0.0348  0.0255 -0.3408
70153W        W13144  11.088   3.112   6.343 -0.1350  0.2668  0.1442
70154W        W13145  22.331  24.225  21.500 -0.2599 -0.1273  0.1564
70155W        W13146  10.583  15.553  10.179  0.0171  0.1240 -0.3823
70156W        W13147  12.620  16.082  24.637 -0.1699 -0.0492 -0.0493
70157W        W13148  21.896  28.267   1.644  0.1977  0.2423  0.2417
70158W        W13149  28.931   8.495  26.064 -0.4545  0.0335  0.3544
70159W        W13150  24.853  13.010  27.636  0.0074 -0.0328  0.2789
70160W        W13151   6.663   9.264  26.560  0.1630  0.1071  0.2430
70161W        W13152  15.007  14.492  28.859  0.0834 -0.1232 -0.0370
70162W        W13153  22.468   2.894  18.732  0.0057 -0.0717  0.3643
70163W        W13154  21.877   6.120   4.489  0.2763 -0.3722  0.0489
70164W        W13155  10.675   6.896  15.962 -0.2230 -0.0533 -0.2664
70165W        W13156  14.986  26.576  22.586 -0.2176 -0.0088 -0.1354
70166W        W13157   8.073  32.812  22.992  0.2067 -0.0203 -0.0040
70167W        W13158  17.090  32.116  20.689 -0.1909 -0.0527 -0.4826
70168W        W13159  12.626  12.226  25.230  0.1442  0.1675  0.1770
70169W        W13160  12.658   1.414   9.966  0.0607 -0.0001 -0.0220
70170W        W13161  11.879   2.638   0.615 -0.0544 -0.0433  0.0822
70171W        W13162  15.188  11.546   3.026  0.1609  0.1425  0.0301
70172W        W13163  21.094  25.217  16.091 -0.0009  0.0715  0.3631
70173W        W13164  23.613   9.547  16.038 -0.1897 -0.0937  0.2042
70174W        W13165  21.798   8.233  25.113  0.1210  0.1073  0.1513
70175W        W13166  10.981  16.683  16.638  0.3710 -0.1985 -0.1827
70176W        W13167  19.911   9.557   5.861  0.0922  0.1130  0.3737
70177W        W13168  18.348   6.531  13.949 -0.0859  0.1454 -0.3800
70178W        W13169   9.691  16.290  20.277  0.1202  0.1937 -0.1703
70179W        W13170  28.831  10.274  25.936 -0.1670  0.0966  0.0441
70180W        W13171  34.639   0.479  22.793  0.0856  0.1108  0.1311
70181W        W13172  11.256  27.784  18.123  0.1387 -0.1963 -0.0907
70182W        W13173  29.764   9.954  22.131  0.1307 -0.1441 -0.0877
70183W        W13174  27.019  34.485  23.526 -0.0100 -0.0936 -0.1523
70184W        W13175  18.143   0.554  20.532  0.4248  0.3456 -0.2970
70185W        W13176  22.056  14.979  17.247  0.0287  0.4034 -0.1678
70186W        W13177  31.332   6.977  28.773 -0.1255 -0.1409  0.0500
70187W        W13178  19.604   8.955  22.122 -0.4117 -0.3884  0.0690
70188W        W13179  13.021  33.680  24.672  0.1156 -0.0667 -0.1432
70189W        W13180  14.294   7.044   7.631  0.1193 -0.0030 -0.1492
70190W        W13181   5.962  33.954  21.225 -0.1940 -0.0668 -0.4168
70191W        W13182  23.580   6.504   0.960 -0.1691 -0.2549 -0.0297
70192W        W13183  30.781  12.891  20.931 -0.2028  0.2086 -0.1602
70193W        W13184  11.765   2.610  23.511  0.1117 -0.0429  0.2367
70194W        W13185  13.624   4.074   3.408 -0.0167  0.0270 -0.2948
70195W        W13186  11.409   9.653  15.908  0.2044 -0.0209 -0.2202
70196W        W13187  23.013  29.466  21.030 -0.0202 -0.0630 -0.0276
70197W        W13188  17.028  11.630  14.781  0.1801 -0.0593 -0.1696
70198W        W13189  15.994   6.223   9.307 -0.0777 -0.0354 -0.0409
70199W        W13190  17.134  18.848  13.370 -0.1154  0.3578  0.1267
70200W        W13191  26.840   3.065  27.063 -0.0556 -0.2419 -0.1960
70201W        W13192  11.668   1.626   0.357 -0.0186 -0.0965 -0.0326
70202W        W13193  32.422  33.890  15.345 -0.0563  0.0575 -0.1672
70203W        W13194  12.026  13.645  23.421 -0.0482 -0.1089  0.1819
70204W        W13195  16.351  27.393  23.133 -0.1099  0.1895  0.1318
70205W        W13196  23.296   6.810  18.141 -0.4541  0.0734 -0.0024
70206W        W13197   7.331  12.207  19.506 -0.1298  0.0159 -0.2759
70207W        W13198  18.705   1.774  18.568  0.2856 -0.0425 -0.0775
70208W        W13199  27.372  24.240  19.394  0.2410  0.0794  0.1392
70209W        W13200  19.921   7.967  15.723  0.2316  0.0129 -0.0768
70210W        W13201  23.467   4.744  21.294 -0.0428  0.3087  0.2934
70211W        W13202  14.725  23.066  17.453 -0.0039  0.0358 -0.1214
70212W        W13203  22.318  26.005   5.185  0.0160  0.0583 -0.0086
70213W        W13204  24.764   6.708  27.714  0.3361 -0.0256  0.4593
70214W        W13205  34.734   6.656  19.512 -0.0975 -0.0786  0.1422
70215W        W13206  34.233   7.496  19.758  0.0196 -0.0630 -0.0449
70216W        W13207  26.969  23.243  17.857  0.1327 -0.0803  0.2768
70217W        W13208  10.011  11.209  17.123 -0.4655 -0.2409  0.0742
70218W        W13209  13.301  18.076   5.755  0.0135  0.1421  0.2170
70219W        W13210  21.708   7.781  20.872 -0.0454 -0.1332 -0.2869
70220W        W13211  28.848  27.277   1.241 -0.4884 -0.1135 -0.0856
70221W        W13212   3.672  14.343  18.505  0.0277 -0.0604  0.0769
70222W        W13213  25.045  32.571  22.385 -0.3122 -0.1462 -0.0596
70223W        W13214  14.156  31.234  26.697  0.0063 -0.0671  0.1033
70224W        W13215  16.556   4.091  21.680 -0.1323  0.0657 -0.2301
70225W        W13216  22.280   0.973  21.815 -0.4859 -0.0328 -0.2443
70226W        W13217  21.197   8.932   4.459  0.0166 -0.0847  0.0010
70227W        W13218   9.924  12.562  18.260  0.1882 -0.0553 -0.4602
70228W        W13219  29.147   1.266   0.993 -0.1207 -0.0281 -0.2343
70229W        W13220  18.560  31.277  19.225  0.1396 -0.1268 -0.1042
70230W        W13221  13.836   3.283  15.544  0.0573  0.3196  0.0583
70231W        W13222  26.011   3.756   1.025 -0.3846  0.0755 -0.1496
70232W        W13223  26.915  31.405  18.070 -0.0873  0.1459 -0.1606
70233W        W13224  18.289  33.102   6.359 -0.1212  0.0082 -0.5754
70234W        W13225   9.687  30.533  21.573  0.0397 -0.2936 -0.0415
70235W        W13226  12.091   4.178   1.770  0.0722 -0.0201 -0.1610
70236W        W13227  20.215  22.981  29.016 -0.4222 -0.3155  0.3048
70237W        W13228  19.358  16.121  25.791  0.2696 -0.0024  0.0268
70238W        W13229  17.116   5.652  18.070 -0.2668  0.1308  0.3286
70239W        W13230   6.131  30.140  21.581  0.1391 -0.0334  0.2928
70240W        W13231   6.143  11.586   5.627  0.1202 -0.4282 -0.3032
70241W        W13232   6.926   3.536  15.678  0.1409 -0.2213  0.0555
70242W        W13233  23.642  33.931  25.940 -0.0836 -0.1672 -0.0382
70243W        W13234  14.341   0.192  18.224  0.1742 -0.1858 -0.0185
70244W        W13235  23.724  14.162  17.555  0.1023  0.0137 -0.1753
70245W        W13236  33.292   4.313  22.134 -0.2219 -0.1503  0.0015
70246W        W13237  14.377   5.544  24.270 -0.0113 -0.4097  0.2821
70247W        W13238  11.068   6.636   5.000 -0.2305 -0.2587  0.1013
70248W        W13239   8.898   2.289  21.840  0.1134  0.0234 -0.1017
70249W        W13240  18.812  28.651  22.183  0.2102  0.1828  0.2428
70250W        W13241   3.836   4.047  24.019 -0.1159 -0.0323 -0.0178
70251W        W13242  13.044   3.023  22.699  0.0542  0.2225 -0.1334
70252W        W13243  16.433  12.035   2.593  0.0528  0.0952  0.2588
70253W        W13244   7.886  29.637  15.571 -0.2327  0.0192  0.1152
70254W        W13245   9.281   2.007  18.286 -0.0981  0.1176  0.1960
70255W        W13246  27.133  34.000  12.651 -0.2991  0.1579 -0.0904
70256W        W13247  22.158  18.354  27.287 -0.0922 -0.1022  0.1162
70257W        W13248  18.571   3.832   8.081  0.1614  0.0087  0.0778
70258W        W13249  19.499  15.514  23.123 -0.0021 -0.3334  0.0422
70259W        W13250  32.523  22.481  26.740  0.0079 -0.1988  0.0652
70260W        W13251   6.051   6.334  17.293 -0.2271 -0.0884  0.2539
70261W        W13252  24.856  12.115   0.066 -0.3260 -0.0660  0.2098
70262W        W13253  31.741   1.772  20.519 -0.1560  0.0626  0.1723
70263W        W13254  22.684  14.161  17.701  0.1249 -0.0030  0.2969
70264W        W13255   1.366   3.554  20.035 -0.2761  0.1343  0.2817
70265W        W13256  23.611   6.321   6.251 -0.3140 -0.0918  0.4428
70266W        W13257  10.369   1.242  25.636 -0.1142  0.0317  0.0400
70267W        W13258  30.607  29.611  28.099 -0.2706 -0.0430 -0.0255
70268W        W13259  22.176   1.609   4.898  0.2338 -0.0976  0.0455
70269W        W13260  11.076  22.909   0.933  0.0165 -0.0261  0.0588
70270W        W13261  32.689  18.618  17.962 -0.0228  0.2556 -0.1525
70271W        W13262  33.155  33.322  20.646 -0.0657  0.1121  0.2348
70272W        W13263  30.856  32.232   2.061 -0.1356  0.2127 -0.0006
70273W        W13264   2.930   2.527  20.948  0.0240 -0.2540  0.2633
70274W        W13265  12.735   2.880  16.826 -0.3061 -0.1510 -0.0126
70275W        W13266   2.777   1.927  18.725  0.0941 -0.1768  0.2133
70276W        W13267  33.065  28.395  12.863 -0.0348 -0.2101  0.1839
70277W        W13268  10.473   3.925  25.749  0.0086 -0.0762 -0.2870
70278W        W13269  23.991  22.606  23.704  0.2002 -0.0225  0.6784
70279W        W13270  24.837  22.829  22.338  0.0702  0.1717 -0.1492
70280W        W13271  13.299   9.816  16.130  0.0440 -0.0169  0.1281
70281W        W13272   4.819   3.155  24.387 -0.0039 -0.2841  0.3136
70282W        W13273  16.270   8.333   5.257 -0.3726 -0.0060 -0.2474
70283W        W13274  14.356  19.942  19.373 -0.1571 -0.1495 -0.1841
70284W        W13275  21.828  10.388  15.873  0.0214  0.0670  0.1254
70285W        W13276  19.994  31.144  18.228  0.1453  0.2239  0.2163
70286W        W13277  18.428  12.223  21.013 -0.0963  0.2881  0.0805
70287W        W13278  24.607   3.948   6.966 -0.0363  0.0482 -0.0213
70288W        W13279  12.047   2.517  25.512 -0.4648 -0.0989 -0.1289
70289W        W13280  11.671  21.057  21.310  0.0413 -0.2199  0.1009
70290W        W13281   2.914  16.725  20.512 -0.2368 -0.2422  0.2031
70291W        W13282  28.932  13.528   7.728  0.1780 -0.0838 -0.1633
70292W        W13283  30.947   0.950  13.925  0.0875 -0.0972  0.3316
70293W        W13284  23.765  14.887   0.456 -0.1398 -0.0327 -0.2287
70294W        W13285  28.598  27.070   4.011  0.4061  0.0852  0.0578
70295W        W13286  20.376  24.370  15.543  0.0186  0.0917 -0.1100
70296W        W13287  12.966   5.843  21.863 -0.0159  0.0770 -0.1131
70297W        W13288  18.669  20.869  16.250  0.0074  0.1972  0.1195
70298W        W13289  20.369  30.389   5.366  0.1897 -0.0057 -0.2190
70299W        W13290  19.374   5.161  23.705  0.1458 -0.0545  0.1064
70300W        W13291  18.260  32.518  22.140  0.0001 -0.0280 -0.3395
70301W        W13292  34.656  20.261  19.292  0.1298 -0.1695 -0.0182
70302W        W13293   9.619  13.381  16.222  0.1242  0.1500  0.0030
70303W        W13294  27.443  10.237  22.071  0.1593 -0.1518  0.3139
70304W        W13295  20.581   7.188  25.340 -0.1142 -0.2108  0.1402
70305W        W13296  16.181  30.808   1.302 -0.2790 -0.1496  0.2012
70306W        W13297  28.048  10.608  13.666 -0.1238 -0.0812  0.3768
70307W        W13298   9.889  29.877   0.553 -0.1115 -0.0743 -0.1480
70308W        W13299  21.852  25.495   2.582  0.0870 -0.1563 -0.1076
70309W        W13300  21.385   4.034  14.787 -0.2675 -0.0728 -0.0765
70310W        W13301  13.760  25.514  21.280 -0.3909 -0.1399  0.0167
70311W        W13302  32.402  10.088  18.925  0.2475  0.1027  0.1316
70312W        W13303  16.910   4.295  23.666  0.1477  0.1651 -0.1955
70313W        W13304  11.561  24.106  19.739 -0.1666  0.0371  0.0607
70314W        W13305  20.270   6.423  18.734 -0.0531  0.0227  0.0061
70315W        W13306   3.500   0.014  25.919 -0.1405 -0.2620 -0.1228
70316W        W13307  29.946  30.447  17.730  0.0635  0.0309  0.3277
70317W        W13308  16.211   7.049   5.421 -0.1676 -0.1567  0.0180
70318W        W13309  15.383   5.035  25.825  0.3133  0.2051 -0.0783
70319W        W13310   4.755  33.048  28.595 -0.0651 -0.0584  0.2751
70320W        W13311  24.077  12.502   9.756 -0.1609 -0.0861  0.0869
70321W        W13312   7.862  10.864  20.137 -0.3777 -0.2766  0.0907
70322W        W13313  20.941  30.214  14.524 -0.0443 -0.1355  0.1170
70323W        W13314  26.763  24.234   2.888 -0.1652  0.4055  0.1057
70324W        W13315   5.440   6.895  23.639  0.1915 -0.2334  0.2654
70325W        W13316  13.254  33.002  19.355 -0.0655  0.0829 -0.0375
70326W        W13317  24.019  17.721  21.064  0.0434 -0.1245 -0.0087
70327W        W13318  22.675   8.776  17.684 -0.0131  0.0746  0.2659
70328W        W13319  34.527  32.252  14.764  0.2629 -0.1425  0.2367
70329W        W13320   7.285   8.969  27.383 -0.1250  0.0186  0.0233
70330W        W13321  30.658   4.569   6.440 -0.0443  0.0220 -0.0716
70331W        W13322   1.641   7.521  25.565  0.1102 -0.0963  0.1129
70332W        W13323  14.488   3.936   0.690 -0.0039  0.1155 -0.2425
70333W        W13324  22.510  28.209  14.367  0.1437  0.4280 -0.1977
70334W        W13325  21.546   0.564  27.003  0.1891 -0.3593 -0.1080
70335W        W13326  26.176  21.726  28.992 -0.2226 -0.3757  0.2191
70336W        W13327  13.451  26.094   6.011 -0.1330  0.2513  0.1022
70337W        W13328  17.646  10.235  27.890 -0.1828  0.0172  0.1012
70338W        W13329  15.035  31.375  26.453  0.0133  0.1906  0.0236
70339W        W13330   6.706   6.631  16.498 -0.3773 -0.1177 -0.0893
70340W        W13331  14.507   4.394  18.132 -0.0208  0.4522 -0.2030
70341W        W13332  24.728  11.258  15.261 -0.2173  0.0930  0.1060
70342W        W13333   7.514  11.015  24.296  0.0365  0.2087  0.2006
70343W        W13334  32.930  13.020  16.605  0.0257  0.1136 -0.2334
70344W        W13335  13.670   3.771   2.960 -0.0799 -0.0769 -0.0295
70345W        W13336  17.677  24.887  16.882 -0.0213 -0.2352 -0.1175
70346W        W13337  25.640  26.576  18.826 -0.1716 -0.2022  0.1492
70347W        W13338  27.458  12.087   8.499  0.1851  0.0548  0.0983
70348W        W13339   5.089   8.682  18.311  0.3128  0.1666 -0.1476
70349W        W13340  20.569   2.457  17.524  0.0259 -0.2106  0.2515
70350W        W13341  14.254  11.122   6.951  0.0306 -0.0049 -0.1128
70351W        W13342  13.599  25.182   8.590  0.0944  0.3133  0.1587
70352W        W13343   7.315  31.478  23.102 -0.0058 -0.0034 -0.1799
70353W        W13344  17.287  27.006  23.933  0.0706  0.2833  0.0229
70354W        W13345  19.688  13.495  24.981  0.1041  0.0242  0.0318
70355W        W13346   3.336  30.485   8.968 -0.3550 -0.1567 -0.0078
70356W        W13347  16.790  15.339   6.884  0.3776 -0.2572  0.1148
70357W        W13348   7.726  12.819  28.235  0.1245 -0.1172  0.0820
70358W        W13349  16.287   5.354  21.411  0.0384 -0.2776 -0.2182
70359W        W13350  10.178  15.487   9.863  0.0694  0.1976 -0.0673
70360W        W13351  10.361  27.823  26.780 -0.0565 -0.1605 -0.4360
70361W        W13352   6.128  30.248  28.399  0.0368 -0.0307 -0.1817
70362W        W13353   7.413   2.325   8.571  0.1843 -0.1415 -0.0801
70363W        W13354  13.606  28.397  27.479 -0.1235  0.0556  0.0530
70364W        W13355  22.083  12.987  20.913  0.0497  0.0166 -0.0771
70365W        W13356  12.773  25.882  22.135  0.0505 -0.0514  0.3050
70366W        W13357  18.238  30.869   4.670 -0.0557 -0.1156  0.1969
70367W        W13358  16.979  26.469  26.809  0.0821 -0.1006 -0.1748
70368W        W13359  26.276  25.687  28.664 -0.0817  0.1303 -0.1744
70369W        W13360  27.462  15.241   2.954 -0.2655  0.0641 -0.0458
70370W        W13361  17.238   8.493  16.591  0.2791  0.1209 -0.1342
70371W        W13362  27.644  13.242  27.312 -0.1976  0.0519  0.1593
70372W        W13363  11.831  31.824  23.300 -0.0182 -0.1622 -0.1754
70373W        W13364  16.112  25.160  21.111 -0.3424  0.1823 -0.0699
70374W        W13365  23.214  30.815  16.338  0.1378 -0.1165 -0.0236
70375W        W13366  21.605  30.667   8.549  0.1552  0.0309  0.2637
70376W        W13367  15.808  28.398   5.395  0.1629 -0.0585 -0.1706
70377W        W13368  10.842  10.000  20.371 -0.2798 -0.2316  0.1255
70378W        W13369  18.789  33.301   6.999  0.0836 -0.3732  0.0532
70379W        W13370  18.238   0.946  17.474  0.3692  0.0353 -0.0819
70380W        W13371  22.174  24.089   6.925 -0.0186 -0.1094  0.1012
70381W        W13372  18.891  34.621   1.802 -0.2881 -0.1754 -0.0729
70382W        W13373   2.956  13.434   7.034 -0.0875 -0.0443 -0.1190
70383W        W13374  15.665  25.583  18.538  0.2313 -0.4254 -0.3076
70384W        W13375   0.225   0.470   5.345  0.1314  0.1122 -0.2730
70385W        W13376   8.599  14.649  20.407 -0.0790  0.1092  0.2302
70386W        W13377  32.425   1.946  25.653 -0.0235 -0.0599  0.1492
70387W        W13378   6.890  27.827  25.343 -0.1185  0.1166  0.1122
70388W        W13379  13.930  10.088   7.926 -0.0309  0.1182 -0.2610
70389W        W13380  15.656   9.570   9.957  0.1749  0.2121 -0.0235
70390W        W13381  15.535  10.448   6.028 -0.4242 -0.0142  0.2158
70391W        W13382   9.790  10.320  20.591  0.0102 -0.0945  0.1606
70392W        W13383  29.774  13.508   1.597  0.3710  0.1494 -0.2910
70393W        W13384  16.866   2.665  24.982 -0.0539  0.1035 -0.0305
70394W        W13385  19.409  13.244  25.315 -0.3068  0.0585 -0.0546
70395W        W13386  12.092   1.942  19.498  0.0285 -0.5276  0.2989
70396W        W13387  27.519   1.113  18.581 -0.3285  0.1145  0.1034
70397W        W13388  20.976  33.487  27.441 -0.0039  0.0604  0.0829
70398W        W13389  30.355  30.094   3.877  0.0007 -0.2341  0.1282
70399W        W13390  15.797  32.971  18.092 -0.1512  0.1450 -0.1405
70400W        W13391  26.091   5.494   3.257  0.1898 -0.0161  0.2279
70401W        W13392  29.953   7.683  23.697  0.1449  0.0063 -0.0277
70402W        W13393  24.869  17.851  14.888 -0.0422  0.1952  0.0979
70403W        W13394  19.521   1.667   2.231  0.1075 -0.0655  0.2430
70404W        W13395   0.463   2.092  21.580 -0.0059  0.1637 -0.1578
70405W        W13396  28.597  33.618  19.175 -0.2740  0.2729 -0.0476
70406W        W13397   7.625  20.517   9.902  0.0691 -0.0147  0.2010
70407W        W13398  17.789  23.894  15.714 -0.0863 -0.0683  0.1324
70408W        W13399  31.600   2.771  15.080 -0.0429 -0.0901  0.0550
70409W        W13400  26.137  32.484   4.536  0.1134  0.0446  0.1157
70410W        W13401  13.456   0.770  22.145  0.0863  0.3709 -0.2995
70411W        W13402  33.443  34.775  26.873 -0.0491 -0.1316  0.1856
70412W        W13403   7.786  34.154  26.819  0.0749 -0.2549 -0.1714
70413W        W13404   3.442   8.430  23.573 -0.0231 -0.1173  0.2159
70414W        W13405  25.315   2.112  25.849 -0.0716 -0.0944 -0.5081
70415W        W13406  16.567  14.043  23.069  0.0946  0.2479 -0.0277
70416W        W13407  22.550  23.373  15.876  0.0056  0.0779 -0.2428
70417W        W13408  26.433   6.129   3.167  0.2326 -0.0199 -0.0047
70418W        W13409   9.712  19.705  23.256  0.3256 -0.1647  0.0301
70419W        W13410   8.431  10.447  21.650  0.0396  0.1538  0.0023
70420W        W13411   7.733   3.991  26.447  0.1994 -0.2223 -0.5443
70421W        W13412  30.700  12.896   0.636 -0.2434 -0.0796  0.3200
70422W        W13413  23.404  29.324   0.927 -0.0345  0.2699  0.0731
70423W        W13414  10.251   1.791  22.532  0.3484 -0.4160  0.0263
70424W        W13415  13.200  17.495  14.114 -0.0577 -0.3564  0.0176
70425W        W13416   7.591   0.663  22.189  0.3013  0.1946 -0.1906
70426W        W13417  17.851   0.235  24.532 -0.1146  0.2106 -0.1301
70427W        W13418  15.842   7.710   5.988 -0.0367 -0.1128  0.0623
70428W        W13419  18.106   9.413  20.627  0.0945  0.1769 -0.2824
70429W        W13420  32.656  25.391  18.659  0.0490  0.0751 -0.0370
70430W        W13421  25.551  18.941  23.760  0.1067 -0.1545  0.3485
70431W        W13422   9.317   0.997   1.030  0.0745  0.0070  0.0857
70432W        W13423  10.397  13.541   2.246  0.2301  0.0722 -0.3038
70433W        W13424  29.709  15.040  18.733  0.2464 -0.1995  0.1365
70434W        W13425   5.860  23.717  25.714 -0.1165  0.4153  0.1426
70435W        W13426  10.091  31.838   8.200  0.3740  0.2249  0.2508
70436W        W13427  24.431   7.928  14.532 -0.1975  0.1149  0.1865
70437W        W13428  26.828  16.855  21.121  0.0128  0.1580  0.3867
70438W        W13429  28.154  34.730  21.338  0.1617 -0.0953 -0.0521
70439W        W13430  24.489  34.720   0.782 -0.2000 -0.0234  0.1747
70440W        W13431  21.377   7.662   8.970 -0.1263  0.4879  0.1226
70441W        W13432  19.648  14.170  17.126  0.0113 -0.0054  0.1079
70442W        W13433  12.029  12.350  14.945  0.1253 -0.1852  0.2201
70443W        W13434  25.233  32.730   2.060 -0.2896  0.2402  0.1655
70444W        W13435  17.539   8.341  20.071  0.0565  0.3052  0.0961
70445W        W13436  22.173  28.570  21.470  0.0722 -0.3233 -0.1597
70446W        W13437  10.955  10.024   3.318 -0.3190 -0.0490  0.1578
70447W        W13438  15.911   2.747   2.803 -0.2496 -0.0520  0.2104
70448W        W13439  16.132  33.072   8.597  0.1663  0.1547 -0.2897
70449W        W13440   8.556  15.741  19.223 -0.0780  0.0615  0.0766
70450W        W13441  16.868   5.935   5.573 -0.6002 -0.1371  0.0783
70451W        W13442   3.287  14.479   6.013 -0.0680 -0.1897  0.2488
70452W        W13443  15.192  14.989  27.477  0.0498 -0.0211 -0.1023
70453W        W13444  18.976  19.120   5.864  0.0297 -0.1251  0.2098
70454W        W13445   2.368   6.942  18.363  0.0103 -0.0675 -0.0866
70455W        W13446   8.345   6.648   3.999  0.0159 -0.3299 -0.4265
70456W        W13447   9.915   8.374  17.232 -0.0086  0.0228  0.0397
70457W        W13448  16.063   0.653  29.080  0.1372 -0.4176 -0.3507
70458W        W13449  19.743   6.630  26.580 -0.2173 -0.3151  0.4241
70459W        W13450  17.691  28.430   6.610  0.1483  0.2220 -0.5054
70460W        W13451  18.391   1.975   8.019  0.1477 -0.1564 -0.1183
70461W        W13452  14.253   7.301  23.697 -0.2190 -0.1484  0.2416
70462W        W13453  30.028  11.569  24.671 -0.0157  0.3602 -0.0839
70463W        W13454  32.457   8.372  27.537  0.2675 -0.2881 -0.5131
70464W        W13455   9.748   9.302  18.448 -0.1279 -0.1336  0.2078
70465W        W13456  16.699   2.322  28.979 -0.1389  0.3435 -0.2136
70466W        W13457  12.943  25.269  23.506  0.1847  0.1083 -0.0175
70467W        W13458  22.415   9.468   2.768  0.2651  0.1371  0.2588
70468W        W13459  22.700   9.405   7.222 -0.1354  0.0452 -0.0762
70469W        W13460  12.049  29.274  27.169 -0.0829  0.0223  0.1975
70470W        W13461  24.960  16.213  27.001 -0.1155  0.2391 -0.0412
70471W        W13462  11.312  12.349  18.527  0.1197  0.0938  0.1135
70472W        W13463  28.380   5.980   9.699  0.3848  0.1573 -0.1280
70473W        W13464  26.357   0.659  21.778  0.4720 -0.3533 -0.0865
70474W        W13465  23.456   8.479   4.731 -0.0575  0.4137 -0.1574
70475W        W13466  12.641  29.825  15.745  0.0178 -0.2695  0.4028
70476W        W13467  29.021  26.390   7.485 -0.1995 -0.0729  0.1098
70477W        W13468  27.609  18.533   6.211 -0.1341 -0.0734 -0.0298
70478W        W13469  27.595   9.464  19.677  0.2582 -0.1013  0.0316
70479W        W13470  24.175  17.452  18.247 -0.0086 -0.0316 -0.1603
70480W        W13471  25.603   9.383  25.114  0.1936 -0.2846  0.1612
70481W        W13472  15.709  32.116   7.978  0.3364 -0.0197  0.1458
70482W        W13473  21.459   8.949  26.662 -0.0924 -0.2253 -0.0898
70483W        W13474   1.552  11.150   3.183 -0.0530  0.2149  0.1790
70484W        W13475  28.009   1.720   4.914  0.5091  0.0994 -0.1328
70485W        W13476  19.135  29.317   8.171  0.1827  0.4944  0.1462
70486W        W13477  18.059   7.673   6.174  0.0742 -0.0975 -0.0030
70487W        W13478  24.103  17.683   6.362  0.5032  0.2499  0.2515
70488W        W13479   9.827   5.976  15.913  0.0499 -0.0820  0.0292
70489W        W13480  14.519   7.601  27.150  0.1200  0.0435  0.4108
70490W        W13481  14.777   0.596   9.232  0.2042 -0.0589 -0.2754
70491W        W13482  16.189   7.412  21.602  0.2829 -0.0977 -0.1533
70492W        W13483  13.885   0.521  21.992  0.4780  0.0307 -0.3730
70493W        W13484   5.267  20.322  21.470  0.0281 -0.2974 -0.0057
70494W        W13485  31.860  22.641  16.308 -0.0161  0.1186  0.1223
70495W        W13486  15.306  34.164  19.843 -0.1166  0.0465 -0.0843
70496W        W13487   9.172  26.563  22.707 -0.1862 -0.1631 -0.3135
70497W        W13488   7.275  19.120  28.744  0.2438  0.2294 -0.6216
70498W        W13489  10.727   0.317  22.293 -0.0173 -0.0755  0.0346
70499W        W13490  19.894  17.878   7.083 -0.1644 -0.1126 -0.5281
70500W        W13491  16.584  31.625  22.451  0.0339 -0.1360  0.0694
70501W        W13492  27.546   5.290   5.729 -0.0594 -0.0446 -0.3682
70502W        W13493  30.246  10.459   8.281  0.3108  0.0682 -0.1191
70503W        W13494  25.548  15.454   6.217 -0.3039  0.4852 -0.1220
70504W        W13495  18.182   6.200   2.536  0.1152  0.1600 -0.0112
70505W        W13496  17.910   3.189   1.859  0.1357  0.1980 -0.3111
70506W        W13497  26.033   3.274   8.149 -0.4633 -0.1647 -0.0988
70507W        W13498  14.036   4.903  21.468 -0.1061 -0.0000 -0.0863
70508W        W13499  11.856  20.262  18.682  0.2045  0.1273  0.0298
70509W        W13500  18.474  29.469  25.357 -0.0242  0.0625 -0.3117
70510W        W13501  13.495   3.215   9.732 -0.0241  0.1304  0.2693
70511W        W13502   4.937   5.106  26.645 -0.1439  0.2818 -0.1642
70512W        W13503   2.303   3.753  26.353 -0.1216  0.2399  0.1488
70513W        W13504  10.696  21.293  19.670 -0.0391 -0.0244 -0.0645
70514W        W13505  29.712   8.874  21.637 -0.1487  0.0240  0.0635
70515W        W13506  15.088   5.590  22.774 -0.2116 -0.0490  0.0546
70516W        W13507  22.680  21.925  20.266  0.0541  0.0464  0.0639
70517W        W13508  20.675  11.085   9.162  0.1425  0.0774 -0.0286
70518W        W13509  16.917   9.130   1.259  0.0853 -0.0156 -0.0034
70519W        W13510  12.292  34.219  27.520 -0.0395  0.1722 -0.1220
70520W        W13511  16.210  11.929  16.554 -0.0444 -0.3712 -0.2690
70521W        W13512  23.836   6.752  18.385 -0.2516  0.1994 -0.0286
70522W        W13513  13.230   5.938  28.543 -0.0409 -0.1412 -0.0318
70523W        W13514  19.549  26.400   2.717 -0.0777 -0.0729  0.0336
70524W        W13515  18.474   6.650   2.590 -0.3781  0.0102 -0.0373
70525W        W13516  11.785  26.450  28.008  0.1278  0.1354 -0.0987
70526W        W13517   8.278  23.188  23.306 -0.0405 -0.3189 -0.0316
70527W        W13518  15.642  10.583  28.476  0.0683 -0.1655 -0.1495
70528W        W13519   2.489  22.787  26.211 -0.0723  0.1669  0.0863
70529W        W13520  22.590   2.750  23.674 -0.0047 -0.0205  0.1842
70530W        W13521   5.919   1.911  28.838  0.0843 -0.1414 -0.2812
70531W        W13522  23.007   0.964   2.147 -0.1561 -0.0741  0.1178
70532W        W13523  19.659   7.413   8.704 -0.1483 -0.0231  0.1532
70533W        W13524   4.660   6.549   9.162  0.1756 -0.0581  0.2419
70534W        W13525  22.979   6.672  28.058  0.0577 -0.0182 -0.1179
70535W        W13526  11.522   5.194   7.159 -0.0908 -0.0241  0.1056
70536W        W13527  31.570  11.371   4.937  0.0385  0.0490  0.0902
70537W        W13528  17.372   6.414  18.328 -0.0478  0.5250 -0.0620
70538W        W13529  19.093  12.837  28.876 -0.1452  0.0784 -0.1305
70539W        W13530  28.658  20.575   8.781 -0.1729  0.1256 -0.0147
70540W        W13531  23.146  33.668   5.075  0.1031  0.2344 -0.0666
70541W        W13532  15.461  16.493   8.084 -0.0673  0.1525 -0.0131
70542W        W13533  26.178  13.202   8.927 -0.2596  0.0338 -0.4138
70543W        W13534  23.856   7.739  23.075  0.1215 -0.2955 -0.0407
70544W        W13535  15.304  34.775  22.221 -0.1184 -0.2140 -0.1574
70545W        W13536  21.523   2.390   4.529 -0.2085  0.0051 -0.0541
70546W        W13537  21.784   7.387   5.302  0.2511 -0.0704 -0.0890
70547W        W13538   4.876   5.958   1.712  0.0650 -0.1146  0.1399
70548W        W13539  16.022  15.488  27.872 -0.0575 -0.0968  0.1943
70549W        W13540   8.106  13.932  21.778  0.0463 -0.2595 -0.0201
70550W        W13541  28.722   4.244   8.754 -0.1588  0.0121  0.4044
70551W        W13542  22.944  25.237  28.353  0.1101 -0.0304  0.0743
70552W        W13543  25.147   9.162   7.193  0.1136  0.1182  0.0773
70553W        W13544  10.366  16.923  15.852 -0.0876 -0.0491 -0.4951
70554W        W13545   0.751  21.468  17.288  0.0155 -0.0939 -0.0998
70555W        W13546  28.597   5.894  24.180  0.2220 -0.1520  0.3899
70556W        W13547  23.148  19.865  14.652 -0.0717  0.1996  0.2450
70557W        W13548  19.819  12.157  20.723 -0.0589  0.0420 -0.1376
70558W        W13549  19.170   4.330   2.400  0.0220  0.1422 -0.1534
70559W        W13550  18.019  15.045  19.010 -0.1083 -0.1082  0.0254
70560W        W13551  31.698   6.998  17.673  0.0188  0.0328  0.2938
70561W        W13552   8.127  10.659   3.615 -0.0332 -0.0106 -0.0970
70562W        W13553  18.280  32.915  15.874  0.1769  0.2044  0.1269
70563W        W13554  28.033  33.116   8.349  0.0692  0.0745  0.0894
70564W        W13555   9.089   0.088  14.015 -0.2005  0.1093  0.0505
70565W        W13556  13.643  11.026  10.960  0.0470 -0.0001 -0.3571
70566W        W13557  23.268   1.251  23.985  0.0745 -0.2410  0.2242
70567W        W13558  24.434   5.071   8.629 -0.5322 -0.0252  0.0122
70568W        W13559  31.475  11.800  21.919 -0.2648 -0.0379 -0.1486
70569W        W13560  21.292  21.436  21.422  0.3133  0.0904 -0.0017
70570W        W13561  20.299  11.113  25.483  0.2195  0.1244  0.1298
70571W        W13562  17.257   8.324  21.992 -0.1942  0.3489  0.3377
70572W        W13563  25.272  11.596   4.592  0.0730 -0.3816  0.2289
70573W        W13564  15.140   7.613   9.116 -0.2433  0.0031 -0.0969
70574W        W13565  16.965  34.782  21.171 -0.2865  0.1620  0.1641
70575W        W13566  15.584  18.111   7.869 -0.2818 -0.1633 -0.0122
70576W        W13567  22.097  28.897  18.259  0.0151  0.0309  0.0564
70577W        W13568  23.309  14.478  25.849 -0.0130 -0.1203 -0.2305
70578W        W13569  21.117  11.938  28.547 -0.1287 -0.2088  0.1393
70579W        W13570  23.546  33.656  24.007  0.0320 -0.0364  0.3051
70580W        W13571   0.436   9.885  19.186 -0.2105 -0.2691 -0.2043
70581W        W13572  10.896  31.342  24.712 -0.2020 -0.1555  0.1806
70582W        W13573  17.500  33.752   7.603 -0.3515 -0.0741  0.0770
70583W        W13574  23.167   1.706  24.536 -0.0113 -0.3254  0.0757
70584W        W13575  21.885  23.211  26.739 -0.0146 -0.0124  0.2188
70585W        W13576  12.581   0.522   2.062  0.1980 -0.1278 -0.2928
70586W        W13577  14.291  20.143   8.821 -0.0531  0.3415  0.1254
70587W        W13578  15.629  10.610  25.360 -0.0453 -0.0729 -0.2137
70588W        W13579  13.940   2.034  11.244  0.0440  0.0605 -0.1400
70589W        W13580  15.279  31.680  20.807 -0.3195 -0.0525  0.0883
70590W        W13581   9.213  33.343   6.835  0.0056  0.0489 -0.2073
70591W        W13582  14.303  14.319  14.774  0.0835  0.0037  0.0286
70592W        W13583  25.910  22.213  17.190  0.1035 -0.2725  0.3326
70593W        W13584  13.452  29.384  26.881 -0.4109 -0.0393 -0.2588
70594W        W13585  20.516  11.187  15.499  0.2790  0.2964  0.0160
70595W        W13586  13.793   5.308   0.848 -0.1433 -0.0218 -0.2132
70596W        W13587  13.984   8.539   1.290  0.1577 -0.0400 -0.1497
70597W        W13588  21.043  34.010  15.924 -0.2415  0.0153  0.2672
70598W        W13589  18.299  27.245  23.625  0.2159 -0.1877 -0.1014
70599W        W13590   1.129  12.806  24.368 -0.0400 -0.0634 -0.0022
70600W        W13591  14.161   7.153  28.012  0.1030  0.0864  0.1669
70601W        W13592  18.349   7.729   0.435  0.0457  0.1034  0.2471
70602W        W13593  14.251  13.521  28.953 -0.1462 -0.1762 -0.3672
70603W        W13594  20.959   5.513  15.146 -0.3300 -0.2688 -0.0081
70604W        W13595  14.813  15.629  26.338 -0.3314 -0.1114 -0.1404
70605W        W13596  26.417   7.737  15.625  0.5071 -0.2410  0.0593
70606W        W13597  11.656  30.510   3.787 -0.1265  0.0114 -0.0284
70607W        W13598  13.739  23.044  22.308 -0.1304  0.1874 -0.2793
70608W        W13599  14.443   5.043  24.469 -0.0613 -0.1277 -0.0550
70609W        W13600  25.687   8.470  20.001 -0.1165  0.2157  0.0556
70610W        W13601  18.586   5.965  18.486 -0.3916  0.1310 -0.0123
70611W        W13602  11.589  34.750  22.452 -0.2406  0.1734 -0.0093
70612W        W13603  18.915   1.446   0.743  0.1531 -0.2351  0.0415
70613W        W13604  21.589   8.636  19.567  0.1349  0.0750  0.2390
70614W        W13605  13.928  32.903  14.905 -0.1728 -0.1883 -0.0496
70615W        W13606   4.590   5.301  26.982 -0.1580 -0.1776  0.1933
70616W        W13607  18.290   7.733   5.770  0.1129 -0.1578 -0.2260
70617W        W13608  33.086   6.776  25.980  0.0687 -0.0115 -0.0033
70618W        W13609   8.054   1.069   5.680  0.2184 -0.0012  0.0288
70619W        W13610  17.619  30.479  20.036  0.1692  0.1599  0.1676
70620W        W13611   2.790   9.685  23.385  0.2125  0.1106  0.0835
70621W        W13612  32.521  20.671  24.888 -0.1743  0.0953 -0.0751
70622W        W13613  18.633  29.838  28.797 -0.2363 -0.1407 -0.2133
70623W        W13614  13.962   5.697   8.499 -0.1001  0.0879  0.2870
70624W        W13615  31.144  22.836  19.224 -0.1331 -0.0147 -0.2067
70625W        W13616  30.474   4.783  20.166 -0.3213  0.0324 -0.1342
70626W        W13617  17.458   4.426  24.827  0.2169 -0.1672  0.2179
70627W        W13618  31.129  31.208  20.582  0.1777 -0.0917 -0.0041
70628W        W13619  26.173   1.387  21.208 -0.1118 -0.2109  0.3676
70629W        W13620   3.534   5.452   0.288  0.2425 -0.0891 -0.1306
70630W        W13621  24.130   7.565  28.833 -0.4171  0.3661 -0.0476
70631W        W13622  19.500  29.560  17.127  0.0453  0.0619  0.1713
70632W        W13623  18.829   4.553  25.730 -0.0794  0.2449 -0.1375
70633W        W13624  15.907  12.847  27.058 -0.2916  0.0884 -0.1003
70634W        W13625  21.635   3.484  26.548 -0.0990  0.0990  0.3637
70635W        W13626  14.434  15.997   1.310 -0.3905  0.0489 -0.1255
70636W        W13627  10.446   5.880   0.264  0.1144 -0.5518  0.0397
70637W        W13628   1.884  31.045   8.246 -0.0122  0.2136 -0.2207
70638W        W13629  22.904   6.411   3.632  0.1522 -0.1478 -0.1901
70639W        W13630  22.666   1.571  28.573  0.0298  0.1465 -0.0359
70640W        W13631  34.523  16.328   1.764 -0.1802  0.3327 -0.1033
70641W        W13632   7.985  12.582  11.174 -0.1426 -0.3955 -0.1853
70642W        W13633  33.035   0.086   1.315  0.3199 -0.3589 -0.0667
70643W        W13634   0.265  11.727  21.626  0.0362  0.2362  0.0266
70644W        W13635  29.168   2.941  14.802  0.2225  0.0671  0.1720
70645W        W13636   7.438   8.765  24.623 -0.1706 -0.1522 -0.1504
70646W        W13637  12.394  23.154  27.995  0.0941  0.0529 -0.0499
70647W        W13638   8.308  25.393   5.787  0.1464  0.1231 -0.3208
70648W        W13639   1.050  15.562   0.080 -0.0706 -0.0835  0.1578
70649W        W13640  16.465  33.087   9.509  0.0959  0.0078 -0.0079
70650W        W13641   0.798  19.891   0.700  0.1729 -0.0925 -0.3424
70651W        W13642  13.264   9.833  16.947  0.0319  0.0437 -0.0733
70652W        W13643  15.152  34.176  27.786  0.3174 -0.0040  0.0742
70653W        W13644   9.655   0.064  14.697  0.3863 -0.1870  0.2226
70654W        W13645   0.844  11.250  24.306  0.1636 -0.2184  0.1227
70655W        W13646   2.551  29.941  20.831  0.0204  0.1945  0.1355
70656W        W13647  25.022   5.158  22.069  0.0547  0.1508 -0.1343
70657W        W13648  16.497  28.948   7.641 -0.5372  0.1163  0.1373
70658W        W13649  10.105  18.123  24.277  0.1596  0.2505  0.0343
70659W        W13650  23.348  13.311  21.749  0.0810  0.1669  0.0082
70660W        W13651  18.331   4.534  17.717  0.1076  0.1176 -0.0334
70661W        W13652  10.948   5.215   4.175 -0.5662 -0.0199  0.2675
70662W        W13653   7.175   5.150  24.092  0.1309  0.4110 -0.0679
70663W        W13654   7.034   7.529  29.029 -0.3445 -0.0469  0.2181
70664W        W13655  29.081  31.937  14.742  0.0179 -0.1964 -0.2968
70665W        W13656  15.807   1.826   8.241 -0.2686  0.1741  0.1730
70666W        W13657  33.498  26.533  20.615  0.1944 -0.0058  0.0066
70667W        W13658  29.867  14.518   4.376 -0.1741 -0.0831  0.1612
70668W        W13659  24.091  21.445  17.823 -0.1496  0.0712  0.2517
70669W        W13660  14.333  24.530  14.907  0.1983  0.3352  0.1053
70670W        W13661  23.966   2.472  20.158  0.0929 -0.5456 -0.2967
70671W        W13662  24.705  11.047   1.215 -0.0438  0.0726  0.0897
70672W        W13663   6.474  23.178  15.506  0.0514 -0.0393 -0.1216
70673W        W13664  12.127  32.175  24.677  0.0732 -0.1653 -0.1378
70674W        W13665  11.090  24.784  26.217  0.0554 -0.1030  0.2424
70675W        W13666  26.066  28.114  23.561  0.0755 -0.1489  0.0096
70676W        W13667  22.254   0.365  14.103 -0.0730  0.1846  0.2474
70677W        W13668  13.442   3.399  22.843  0.0337  0.1865 -0.0182
70678W        W13669  12.535  21.707  15.984  0.0852  0.0885  0.1643
70679W        W13670  31.351   8.391   5.839 -0.1804 -0.1699 -0.1335
70680W        W13671   3.250   9.686   5.413  0.0526 -0.0858 -0.2342
70681W        W13672  29.911  30.525   7.600 -0.1472  0.1455 -0.4201
70682W        W13673  10.564   1.247  25.132 -0.0711  0.1263  0.2943
70683W        W13674   5.394   8.148  25.317 -0.1548 -0.1435  0.1205
70684W        W13675  18.706  32.248  25.389 -0.1294  0.1308  0.2643
70685W        W13676  33.491   7.044  19.222  0.1791 -0.0524 -0.0833
70686W        W13677  15.399  22.730  24.186 -0.0956 -0.3071 -0.0709
70687W        W13678  18.898  20.764  25.266  0.2450  0.2110  0.2131
70688W        W13679  12.980   5.563  20.011 -0.0921 -0.2137  0.0342
70689W        W13680  14.201  11.598   5.369 -0.0844 -0.0369 -0.0248
70690W        W13681  18.326  15.102  28.762  0.3246 -0.0630  0.0582
70691W        W13682  23.141  25.818   1.159 -0.3627 -0.4965 -0.0771
70692W        W13683  26.177   5.174  18.224 -0.2067 -0.1362 -0.0783
70693W        W13684  31.259  28.943   0.327 -0.4081 -0.0846  0.1418
70694W        W13685  12.582  24.628   6.497  0.0177  0.0636 -0.0256
70695W        W13686  23.794  13.007   1.593  0.0966  0.1932  0.0938
70696W        W13687  23.115   1.233   9.699 -0.1040 -0.0774 -0.0579
70697W        W13688  25.040   0.293  21.892 -0.1090 -0.1837  0.2441
70698W        W13689  24.005  12.416  17.550 -0.4713  0.1516 -0.1140
70699W        W13690   2.438  12.871   3.565 -0.4680 -0.0433 -0.0804
70700W        W13691   3.413   7.587  22.098 -0.1512  0.0203  0.0557
70701W        W13692  34.016  16.727   0.815 -0.0397  0.1157 -0.3474
70702W        W13693  20.899  14.078   6.081  0.3267  0.0427 -0.2923
70703W        W13694   0.080  12.884  23.765 -0.2290  0.1593  0.2950
70704W        W13695  30.734  30.715  18.272  0.0191  0.1822  0.1363
70705W        W13696   5.395  25.778  21.615 -0.1194 -0.1678  0.0745
70706W        W13697   8.545  18.461  27.689 -0.1580  0.1270 -0.1041
70707W        W13698  31.737  16.524   1.100 -0.0344  0.1037 -0.2339
70708W        W13699  12.802  33.205   7.486 -0.2700  0.2542 -0.2172
70709W        W13700  20.878  28.807  16.625  0.3820 -0.0626  0.3637
70710W        W13701   3.575  10.854   3.795  0.3138 -0.2008  0.0739
70711W        W13702   7.407  16.065  28.476 -0.2743 -0.0350  0.0745
70712W        W13703  17.989   1.468   4.244 -0.1172  0.0371  0.0563
70713W        W13704  17.970  34.036  16.274 -0.1409  0.0001  0.0986
70714W        W13705  11.005   8.127  23.920  0.1141 -0.0001  0.1335
70715W        W13706  17.002   4.853  22.216 -0.1860  0.1452 -0.2453
70716W        W13707  23.179  12.060   6.060  0.0929  0.0417 -0.0106
70717W        W13708  27.934  25.824   5.735  0.4485  0.4353  0.0297
70718W        W13709   2.868   6.804   5.648  0.0076 -0.0209 -0.1762
70719W        W13710  14.261   9.872  10.499  0.4735 -0.3126 -0.0782
70720W        W13711  16.471  29.165   0.052 -0.0809  0.1802 -0.1849
70721W        W13712  13.829   7.029   2.464 -0.3181  0.0742 -0.0540
70722W        W13713  19.711  21.986   3.159 -0.0327 -0.2509 -0.0007
70723W        W13714  17.762  11.995  26.124  0.1537 -0.0559 -0.1600
70724W        W13715  16.716  15.660  26.511  0.0904 -0.0444  0.2047
70725W        W13716  11.328  33.185  24.508 -0.0610 -0.0817  0.2402
70726W        W13717  12.133  14.956  15.876 -0.2396  0.1626 -0.2036
70727W        W13718  24.532  19.530   1.603 -0.0957  0.2357  0.2116
70728W        W13719  15.841   1.107   4.743  0.3243  0.1050  0.0254
70729W        W13720  10.102  10.137  19.515  0.3586  0.3005  0.3269
70730W        W13721  19.693  34.744   6.424 -0.3669 -0.2221 -0.0452
70731W        W13722  18.181  31.807   4.913  0.1574  0.1712 -0.3055
70732W        W13723   9.861  30.211  26.433  0.0852  0.0296  0.2307
70733W        W13724  16.290  21.741  28.130 -0.2427 -0.2730 -0.1824
70734W        W13725   7.515   8.022   1.288 -0.2545  0.3169 -0.1105
70735W        W13726  18.154  27.801  27.565 -0.0427  0.1930 -0.1909
70736W        W13727  15.400   3.359  18.405  0.0096 -0.4927  0.1390
70737W        W13728  25.672  13.223  25.461  0.3609  0.0036 -0.1709
70738W        W13729  16.571  34.386   5.718  0.0181 -0.0198 -0.2087
70739W        W13730  21.160  13.647  16.345  0.2665 -0.2758 -0.0516
70740W        W13731   3.003   6.394   4.738 -0.1172 -0.0967 -0.0995
70741W        W13732  21.716  12.161  20.348 -0.1758 -0.1050  0.1973
70742W        W13733   7.320  24.987  14.238 -0.0171 -0.3573 -0.0474
70743W        W13734   5.525   3.223  23.151  0.0089 -0.2397  0.2845
70744W        W13735  27.899   9.234  27.347  0.1458  0.1621 -0.0866
70745W        W13736  15.011  25.391  27.189 -0.1367  0.1211 -0.0280
70746W        W13737  10.287  13.957   5.636  0.2083 -0.1341 -0.1862
70747W        W13738  16.541  12.868  10.482  0.0637 -0.1197  0.0420
70748W        W13739  17.472  10.175   5.487 -0.0774  0.2839 -0.0212
70749W        W13740  20.205  15.289   7.827 -0.0532  0.0594  0.2227
70750W        W13741   9.887  33.367  19.032 -0.1786 -0.0010 -0.1945
70751W        W13742  26.789  24.968  29.125  0.0921 -0.2202  0.1263
70752W        W13743  10.283   2.431   3.149  0.1155  0.0104  0.4562
70753W        W13744   1.044  22.188   3.405 -0.2246 -0.0893 -0.2466
70754W        W13745  13.485  21.502   9.139 -0.1519 -0.2505 -0.2048
70755W        W13746  10.557  28.849   4.910  0.3159  0.0504 -0.1168
70756W        W13747  16.031   6.561  25.350  0.0584  0.1104  0.4470
70757W        W13748  19.156  30.501  16.471 -0.2942 -0.0247  0.2015
70758W        W13749  29.513  33.552   2.982  0.0115 -0.0247 -0.1422
70759W        W13750  11.231   5.535   6.831 -0.0748  0.1991  0.0148
70760W        W13751  21.267  14.750   5.658  0.3730  0.1496 -0.3092
70761W        W13752  27.365  25.362   5.789  0.0445  0.0422 -0.2160
70762W        W13753   6.122  16.377  23.658  0.0148 -0.2349 -0.4439
70763W        W13754  13.586  19.331   1.663 -0.0322  0.1654 -0.2160
70764W        W13755  26.959  11.641   7.261  0.0352  0.1896  0.1348
70765W        W13756  13.651   0.785  21.599  0.2102  0.0337 -0.2886
70766W        W13757  22.270  34.007   0.275 -0.1963 -0.2942  0.3437
70767W        W13758  12.449  23.543  17.045  0.0138 -0.1525  0.0575
70768W        W13759  14.771   1.336  11.316 -0.1398  0.0276  0.5279
70769W        W13760  23.088  22.035  27.932 -0.2742 -0.0617 -0.0948
70770W        W13761  15.511   5.540  10.391  0.1107 -0.0748  0.1620
70771W        W13762   8.627   3.451   5.062  0.0977 -0.2457  0.3948
70772W        W13763  12.721  13.099   1.043  0.1708  0.0846 -0.0532
70773W        W13764  28.150   9.732  26.036 -0.0055  0.3444  0.1489
70774W        W13765  11.707  34.454   4.906  0.3174  0.2519 -0.1084
70775W        W13766   1.297   2.053   7.673 -0.1942 -0.0728 -0.1029
70776W        W13767  33.160  25.146  20.032 -0.3795 -0.2141 -0.0552
70777W        W13768  17.453  13.223  22.710  0.0875  0.0680 -0.0523
70778W        W13769   0.382  15.296  24.519  0.0738 -0.2211  0.2648
70779W        W13770  14.752   3.968   3.537  0.1776  0.2580 -0.1432
70780W        W13771   8.917  23.717  15.478  0.0897  0.4444  0.0270
70781W        W13772  33.884   0.540  28.309  0.0190  0.1327  0.1684
70782W        W13773   9.760   3.436  16.677  0.1830  0.2434 -0.3371
70783W        W13774  10.835   3.804  26.110 -0.1609  0.0764 -0.0094
70784W        W13775   7.303   6.458   4.772 -0.2322  0.2921  0.2075
70785W        W13776  22.645  17.896  17.792 -0.1099 -0.2099 -0.0644
70786W        W13777  24.709  12.064  16.892 -0.1658 -0.0658 -0.3003
70787W        W13778  19.300   2.934  20.951  0.3972  0.4098 -0.0326
70788W        W13779  17.549  13.128  20.319 -0.0800  0.2706 -0.3016
70789W        W13780   3.832  26.617  27.077 -0.4064 -0.4311  0.0008
70790W        W13781  24.415  34.352  23.157 -0.1477 -0.0872  0.0688
70791W        W13782   2.457  15.420   3.704  0.0257  0.5754  0.0810
70792W        W13783  15.019   9.980  23.783  0.4531 -0.0879  0.1675
70793W        W13784  20.748  13.891  22.124 -0.0949 -0.1051  0.3994
70794W        W13785  27.653   8.463  16.554 -0.1259 -0.0766 -0.1717
70795W        W13786   1.679  16.091  26.109  0.1824 -0.0555  0.1019
70796W        W13787  19.134   7.250  27.687 -0.2220 -0.1081 -0.1597
70797W        W13788  12.115  13.694  21.196 -0.0112 -0.0109 -0.3359
70798W        W13789  21.352  12.404  15.633  0.0415 -0.0659  0.3619
70799W        W13790  27.313  20.261  21.836 -0.2349 -0.0746  0.3063
70800W        W13791  25.801  25.210  18.994 -0.3466  0.3097  0.1112
70801W        W13792  13.982  17.158  14.295  0.2072  0.0392 -0.2380
70802W        W13793  13.883   8.028  25.936  0.0523  0.1580  0.0238
70803W        W13794  13.745   2.318  26.952  0.0885 -0.0062  0.3173
70804W        W13795  24.646  13.504  15.359  0.1419  0.2849 -0.1468
70805W        W13796  25.356  14.542  14.611  0.1854 -0.0037  0.2193
70806W        W13797  21.799  10.844  15.408 -0.1487  0.1892 -0.2152
70807W        W13798  22.459  20.884  14.000  0.1499 -0.2514 -0.0064
70808W        W13799  10.747  16.663  16.157  0.0875 -0.1423  0.0778
70809W        W13800  32.132  32.723  14.169 -0.1286 -0.1176 -0.0817
70810W        W13801  13.757   4.766  18.329 -0.0164  0.0456 -0.2462
70811W        W13802  21.192  34.300  15.040 -0.0110 -0.0940 -0.2728
70812W        W13803  27.623   5.361  26.664 -0.0320  0.3706  0.0318
70813W        W13804  25.352  12.218  13.551  0.0459 -0.0344  0.2569
70814W        W13805  15.050   9.668  28.067  0.0070  0.3800 -0.1084
70815W        W13806  26.564  10.972  13.225  0.0584 -0.1045  0.0853
70816W        W13807  26.376  11.915   0.401 -0.0967 -0.0736 -0.0168
70817W        W13808  27.979  13.624  16.694  0.1954 -0.0216 -0.3973
70818W        W13809   1.395  25.233  20.683 -0.0400  0.1202  0.0592
70819W        W13810   1.034  24.972  28.332  0.1074  0.1368  0.2230
70820W        W13811  15.761   5.993  16.381  0.1471  0.0891 -0.2333
70821W        W13812  32.363  14.764   8.449  0.0792 -0.5704  0.1936
70822W        W13813  30.329   8.539  17.533  0.2191  0.2362  0.3398
70823W        W13814  28.404  32.274  19.097  0.2068  0.3704  0.1312
70824W        W13815  11.474  17.062  14.657  0.1853 -0.0950 -0.0995
70825W        W13816  20.107  18.720  13.901 -0.1000  0.2363  0.1285
70826W        W13817  19.258  19.861   2.110 -0.0680 -0.1743 -0.0158
70827W        W13818  15.984   3.924  17.156 -0.0425 -0.2938  0.0476
70828W        W13819  29.616  12.166  16.582 -0.1460  0.0445 -0.1952
70829W        W13820  15.354  13.020  19.157  0.1044 -0.3090 -0.0627
70830W        W13821  26.989  34.224  26.684 -0.0732  0.0691  0.2627
70831W        W13822  13.430   6.093  23.582 -0.1910 -0.0451  0.1601
70832W        W13823  17.416  19.228  27.923 -0.0151  0.4145  0.0706
70833W        W13824  15.836  10.688  20.325 -0.2834 -0.1575 -0.0526
70834W        W13825  33.995   6.883  22.143 -0.2706 -0.1761 -0.1298
70835W        W13826  13.150  33.392  23.720  0.0684 -0.0866 -0.2153
70836W        W13827  23.469   7.449  24.635 -0.1314 -0.1747  0.1661
70837W        W13828  19.734  10.088  21.003 -0.1306 -0.1613  0.0115
70838W        W13829  22.775  26.187  19.911  0.0069  0.0406  0.0271
70839W        W13830   8.390   5.621  16.119  0.1393  0.0559  0.0756
70840W        W13831  24.082   1.559  18.967 -0.0577 -0.0801 -0.1002
70841W        W13832  25.062  13.761  28.119  0.1889 -0.1437  0.0156
70842W        W13833   7.699  33.158   8.140  0.3053  0.0763  0.3049
70843W        W13834   5.454   3.999  20.535  0.1138 -0.1175 -0.1964
70844W        W13835   1.478  13.073  17.152  0.0762 -0.2378  0.0561
70845W        W13836   9.175  22.347  10.821  0.2671  0.0094 -0.1047
70846W        W13837  10.551  31.588  22.978 -0.0428 -0.0483  0.0919
70847W        W13838   7.088  14.039  18.847 -0.3643 -0.0145 -0.2537
70848W        W13839  32.696  13.748   2.875 -0.0693 -0.0287 -0.1256
70849W        W13840  24.445  23.520  25.814  0.4108 -0.1285  0.2840
70850W        W13841  21.328  12.904   5.707 -0.1815 -0.2295  0.0469
70851W        W13842  25.612  14.827  20.582 -0.1638 -0.1048  0.1939
70852W        W13843   9.436  31.147  17.418  0.0090  0.2523  0.3040
70853W        W13844  13.841   4.468  15.775 -0.1129  0.0660 -0.2068
70854W        W13845  14.285  26.478  21.449  0.2547  0.0017  0.1764
70855W        W13846  16.693   4.745  19.825 -0.2943 -0.3124 -0.1523
70856W        W13847  27.793   0.083  16.142 -0.0825 -0.1120  0.0510
70857W        W13848   5.107  19.894  24.580 -0.1857 -0.0621 -0.2488
70858W        W13849  12.303   3.067  19.122 -0.0590 -0.0866 -0.2610
70859W        W13850   8.076   4.051  22.708 -0.0300  0.2425 -0.0495
70860W        W13851  18.507  13.161  19.489 -0.3152 -0.1414  0.1534
70861W        W13852   9.379  14.761   4.135 -0.1997  0.1468 -0.0352
70862W        W13853  11.745  30.232  18.996 -0.0914  0.0146 -0.1266
70863W        W13854  15.263  20.627  16.039 -0.0474  0.1527  0.0362
70864W        W13855  18.985  22.074  14.270  0.1952  0.0675 -0.2226
70865W        W13856  22.682   0.462  25.461 -0.1190 -0.0725 -0.1344
70866W        W13857  13.885  12.128  21.127  0.1302  0.2850 -0.1573
70867W        W13858  26.417  30.491  19.156  0.1881  0.0063  0.0293
70868W        W13859  17.528  33.487  17.751  0.0039 -0.2015 -0.1504
70869W        W13860  31.631  24.737  27.604 -0.0304 -0.4247  0.1122
70870W        W13861  25.909  10.815  23.277  0.2246 -0.3229 -0.3597
70871W        W13862  28.201  20.050  18.796 -0.0383 -0.0659 -0.1352
70872W        W13863  17.292   0.397  20.035  0.1770  0.2963  0.0774
70873W        W13864  19.067   3.190   1.471 -0.0720 -0.1350 -0.0968
70874W        W13865  24.163   4.588  16.094  0.2013 -0.0581 -0.0193
70875W        W13866  27.583   3.135  16.815 -0.0076 -0.1469  0.0284
70876W        W13867  18.888   6.533  19.365 -0.2501  0.3372  0.2052
70877W        W13868  10.342  16.629  24.525 -0.0353  0.0180  0.0138
70878W        W13869  10.423   5.879   1.105  0.1021  0.1117  0.1404
70879W        W13870  32.218  16.041  20.948 -0.1016  0.1777 -0.0782
70880W        W13871   3.207  18.504  22.312  0.0737  0.1184 -0.1460
70881W        W13872  14.141   6.170  18.142  0.0068  0.0115  0.2131
70882W        W13873  30.905  32.062  24.067  0.1292  0.1327 -0.2984
70883W        W13874   4.977  33.790   2.834  0.1713  0.0896  0.0689
70884W        W13875  31.061  22.137  22.887  0.1137 -0.2138 -0.0760
70885W        W13876  18.944  31.964  15.142 -0.0316  0.1302 -0.1837
70886W        W13877  10.270   9.803  15.909  0.2806 -0.1554  0.1503
70887W        W13878   9.903  14.121  19.264 -0.1593 -0.1578 -0.0068
70888W        W13879  23.179  15.314  13.867  0.1963  0.3128  0.0939
70889W        W13880  20.390  12.035  15.566 -0.1852 -0.1730  0.0558
70890W        W13881  18.855  14.543  23.820  0.0007  0.1744 -0.0849
70891W        W13882  19.074   3.218  25.439 -0.0959  0.3850 -0.0274
70892W        W13883  27.372  10.139  25.973  0.1343  0.0505 -0.2657
70893W        W13884   7.222  12.357  15.447 -0.1552 -0.0018 -0.1482
70894W        W13885  19.215  16.790  15.297  0.0629  0.1279  0.2241
70895W        W13886  21.162  16.525  13.464  0.0145  0.0832 -0.1627
70896W        W13887  19.607  25.327  17.602 -0.0467 -0.0729 -0.2685
70897W        W13888  33.475   7.528   2.761  0.0612  0.2017 -0.2749
70898W        W13889  11.536  15.510  18.531 -0.3296 -0.0774 -0.2774
70899W        W13890  15.812  15.777  12.373  0.0317  0.2487 -0.1213
70900W        W13891  14.408   8.441  26.606  0.1831  0.0940  0.1369
70901W        W13892   9.564   5.849  15.435  0.0891 -0.2771  0.1495
70902W        W13893   4.641   2.815  15.440 -0.0133  0.1738 -0.1347
70903W        W13894  11.630   2.865  19.547 -0.1600 -0.1117 -0.0239
70904W        W13895  12.350  24.887   4.792 -0.0867 -0.2765 -0.1532
70905W        W13896  11.226  32.052  17.250 -0.0351  0.0132 -0.3971
70906W        W13897  25.243  16.116  18.693 -0.0705 -0.1527  0.1823
70907W        W13898   6.446  15.684   7.814  0.0223 -0.1878  0.2431
70908W        W13899  15.351   6.316   3.073  0.2586  0.0395  0.2564
70909W        W13900  29.658   7.504  20.170 -0.2571  0.0050 -0.0923
70910W        W13901   7.800  16.294  17.423 -0.1348  0.0097  0.2152
70911W        W13902  25.096  12.675  21.338  0.0915  0.0279 -0.1952
70912W        W13903  23.338   2.684  27.211  0.1634  0.1633  0.0565
70913W        W13904  26.522  33.919  21.804  0.0071 -0.0438 -0.0525
70914W        W13905  16.354   3.762  14.336 -0.2814 -0.2847  0.0328
70915W        W13906  10.746   1.653  22.636  0.0099 -0.0794 -0.3627
70916W        W13907  27.882  20.231  22.766  0.2456  0.1180 -0.1031
70917W        W13908  12.524  31.366  16.818 -0.0640 -0.3218  0.4034
70918W        W13909   8.016  16.368  29.010 -0.2543 -0.1590  0.0582
70919W        W13910  31.426  19.085  19.737  0.3085  0.1558  0.0829
70920W        W13911  18.942  15.866  14.214 -0.0021 -0.3228  0.0297
70921W        W13912  23.375  34.160  15.700  0.1902  0.0161  0.1079
70922W        W13913  19.424  11.615  22.576  0.1671 -0.0712 -0.1146
70923W        W13914  12.107  13.722  21.699  0.0309  0.2983 -0.2261
70924W        W13915  13.205  24.487  18.129 -0.1314  0.0091 -0.1832
70925W        W13916   8.176  34.107  20.892  0.2673  0.1652 -0.1040
70926W        W13917  19.254   0.487  23.952 -0.1656 -0.0895 -0.0258
70927W        W13918  30.582   0.746  19.643 -0.1567  0.3045  0.0737
70928W        W13919  10.256   2.073  19.143 -0.2108  0.0516 -0.0099
70929W        W13920  11.600   9.835  21.873  0.0209  0.0401  0.0129
70930W        W13921  22.594  15.187  20.605 -0.1417  0.3130  0.0110
70931W        W13922  29.494   2.573  27.913 -0.2624 -0.2536 -0.0223
70932W        W13923   3.847   0.243  26.511 -0.0404 -0.1991 -0.0925
70933W        W13924  32.509  14.943  17.078 -0.1237  0.1004 -0.0655
70934W        W13925  10.065  13.050  15.478  0.3078  0.1154 -0.0011
70935W        W13926  12.378  12.978  14.478  0.0385  0.1079 -0.3303
70936W        W13927   9.004  14.151  21.146  0.0150  0.2862 -0.0953
70937W        W13928  26.545  16.216  17.104 -0.2566  0.0200  0.0162
70938W        W13929  19.654   4.308  19.561  0.1597 -0.1904  0.2962
70939W        W13930  26.517  20.213  15.021  0.2351  0.4506 -0.1288
70940W        W13931  27.984  34.694  13.007 -0.0077 -0.2914 -0.0936
70941W        W13932  18.538   1.660  19.138 -0.0462 -0.0373  0.0412
70942W        W13933  13.132  16.149  15.049  0.0083  0.0998  0.0549
70943W        W13934  11.417  14.072  15.748 -0.0834 -0.1071  0.0144
70944W        W13935  12.323   2.492  26.174  0.1009  0.0066  0.0443
70945W        W13936  10.188   6.602  22.126 -0.0828 -0.0264  0.0551
70946W        W13937  15.129  14.777  22.085  0.1195  0.0429  0.0912
70947W        W13938  14.937   4.467  15.202  0.0188  0.0641  0.1801
70948W        W13939  30.319  17.830   2.644 -0.0893  0.2165 -0.1269
70949W        W13940  16.578   9.059  15.355  0.0394 -0.1123 -0.0887
70950W        W13941  21.705  10.890   7.899  0.0191  0.0629 -0.0902
70951W        W13942  31.552   1.285  17.088 -0.0382 -0.1342 -0.0149
70952W        W13943  25.591   6.450  13.806  0.3097 -0.0962 -0.4012
70953W        W13944  30.887  26.659  16.522 -0.1713  0.0270 -0.0739
70954W        W13945  18.095   8.396  28.439  0.2821  0.2129 -0.1275
70955W        W13946  23.477  22.478  14.587  0.1143 -0.1283 -0.1592
70956W        W13947  18.936  11.116  20.366 -0.1334  0.0639 -0.2272
70957W        W13948  17.032  27.126  17.516  0.3646  0.0144 -0.0722
70958W        W13949  13.259   1.762  18.577  0.2426 -0.1044 -0.1536
70959W        W13950  24.865  20.902  23.156 -0.0754 -0.1235  0.0261
70960W        W13951  24.078  22.610   7.455  0.0885  0.0062  0.0817
70961W        W13952  17.368  26.497  15.755  0.0695 -0.0859  0.0156
70962W        W13953   8.329   8.441  16.597  0.4336  0.1286  0.2226
70963W        W13954  13.692   8.280  19.654  0.0906  0.3272  0.2733
70964W        W13955  12.912  13.228   0.103 -0.1368  0.1257  0.1328
70965W        W13956  14.242   7.743   4.623 -0.1818  0.3125  0.0295
70966W        W13957  28.211  28.275  19.593 -0.1382 -0.0400 -0.0499
70967W        W13958  22.257  14.507  19.256 -0.3044 -0.0329  0.3020
70968W        W13959  22.212   9.566  13.550 -0.3519  0.1692  0.0569
70969W        W13960  11.922   6.826  17.580 -0.3746 -0.2851 -0.1285
70970W        W13961  23.840   4.452  18.252  0.0340  0.1306 -0.2734
70971W        W13962  17.713   6.614  15.746 -0.0770  0.0358  0.1426
70972W        W13963  28.136  24.610  23.260  0.1293 -0.0468 -0.4401
70973W        W13964  30.887  23.164   7.345  0.0213 -0.0575 -0.1444
70974W        W13965  31.638  16.383  24.771 -0.0449  0.1295  0.2339
70975W        W13966  10.259   3.690  17.309 -0.1151  0.5039 -0.0093
70976W        W13967  14.812  19.513  14.822  0.4185 -0.3109 -0.0090
70977W        W13968  24.652  33.042  17.954  0.2370  0.2599  0.2053
70978W        W13969  13.907   8.636  19.351  0.1575  0.2379  0.1538
70979W        W13970  19.546   4.804  17.713  0.3219 -0.0146 -0.1172
70980W        W13971  30.052   5.628  20.081  0.1621 -0.1699  0.0268
70981W        W13972  10.995  12.899  18.233 -0.4252 -0.1426 -0.3381
70982W        W13973  24.604   5.396  17.737 -0.0106  0.1581  0.1474
70983W        W13974  10.301   5.749  17.192 -0.3342  0.3220 -0.1272
70984W        W13975  28.983  19.285  24.986  0.0606 -0.0371  0.0932
70985W        W13976  21.070  29.554   2.580 -0.0374 -0.1803  0.3362
70986W        W13977  30.693  11.899  21.455  0.1258 -0.1746  0.0006
70987W        W13978  13.436   9.246   4.210 -0.2620  0.2148  0.0050
70988W        W13979  15.746   9.253  26.053 -0.0701 -0.0224 -0.0129
70989W        W13980  10.590  16.249  19.062 -0.0409  0.0767  0.2400
70990W        W13981  15.587  19.641  12.259  0.0620 -0.0495  0.2757
70991W        W13982  15.806   8.036   9.250  0.0527 -0.2634 -0.0631
70992W        W13983  26.397  11.253   9.053  0.1062 -0.0579  0.4045
70993W        W13984  19.237   2.097  14.649  0.1947 -0.2229 -0.4204
70994W        W13985  28.661  21.986  14.360  0.3876 -0.1718 -0.3554
70995W        W13986  19.068  22.256  13.270 -0.2067  0.2597 -0.1819
70996W        W13987   6.767  15.738  20.780 -0.0857  0.0784 -0.0411
70997W        W13988  26.029   4.940  26.499 -0.0439 -0.1282 -0.1764
70998W        W13989  27.659  31.826  21.189  0.0742  0.0107  0.1214
70999W        W13990  12.626   7.670   4.449  0.1452 -0.0185  0.1407
71000W        W13991  28.972  30.595  24.508 -0.0613  0.0985  0.0257
71001W        W13992   0.923  13.844  16.891  0.0119 -0.1680 -0.1399
71002W        W13993  22.282   0.872  22.715  0.1229 -0.0486 -0.2028
71003W        W13994  30.630  19.421  18.122 -0.2148  0.1265 -0.0216
71004W        W13995  11.284  21.637  22.585  0.1526  0.1252  0.1257
71005W        W13996  16.312  26.816   0.787 -0.0826 -0.1929 -0.1018
71006W        W13997  23.265  25.374  22.778  0.0261 -0.0414  0.4084
71007W        W13998  12.993  14.879  16.186 -0.0468  0.1845 -0.0834
71008W        W13999  27.968   2.820  13.975  0.0784 -0.1237 -0.1837
71009W        W14000  20.137  10.405  13.560  0.1856  0.0076  0.0613
71010W        W14001  13.186  32.925  28.199 -0.0539 -0.1250 -0.0757
71011W        W14002  13.729  31.329   4.044  0.0590  0.2688 -0.3367
71012W        W14003  20.295   9.867  14.393  0.0979 -0.2482 -0.4708
71013W        W14004  12.903   8.060  21.774 -0.2308 -0.1032  0.2824
71014W        W14005  27.511  19.585  15.108 -0.1089  0.1345  0.1037
71015W        W14006  29.928   7.579  23.199  0.4630 -0.2018 -0.3231
71016W        W14007   6.514   2.524  19.916  0.1146  0.3481  0.0547
71017W        W14008  19.440   3.871  22.122 -0.2643  0.0551 -0.2809
71018W        W14009  17.092   5.944  23.384 -0.0211  0.0972  0.1777
71019W        W14010  24.800  14.365  14.227  0.2942  0.3128 -0.0912
71020W        W14011   0.388  23.119   9.706 -0.0457  0.1627  0.0881
71021W        W14012  19.547  12.901   9.394  0.0561  0.4496  0.0782
71022W        W14013  19.146   0.134  28.624  0.4143 -0.1058 -0.0829
71023W        W14014   8.130   1.667  19.393  0.0532 -0.2621  0.0570
71024W        W14015  13.088  17.492  19.743  0.4036  0.3300 -0.0091
71025W        W14016  19.125   4.378  16.394  0.0189  0.0315  0.1855
71026W        W14017   7.675  16.978  14.996  0.2487 -0.2121  0.0859
71027W        W14018  17.178  21.510  27.431  0.1663  0.1557 -0.1616
71028W        W14019  24.194   1.091  18.781 -0.0039  0.0977 -0.0761
71029W        W14020  31.504  29.984  24.886  0.2216 -0.0979  0.3597
71030W        W14021  18.700  13.345  18.018 -0.2456  0.0086  0.1722
71031W        W14022   7.748   4.270  24.267 -0.0244 -0.4610  0.1063
71032W        W14023  25.937  20.937  27.342 -0.3487 -0.1778 -0.1931
71033W        W14024  23.388   7.341  20.157  0.1732 -0.2503  0.2660
71034W        W14025  32.781   0.721  20.593  0.0602 -0.2261 -0.1746
71035W        W14026   3.987   9.205  16.433 -0.3026 -0.1521  0.2412
71036W        W14027  27.815   7.201  23.736 -0.1979 -0.3131 -0.0634
71037W        W14028  20.910   7.294  13.194  0.0686  0.0690  0.1188
71038W        W14029  25.743  23.775  23.622 -0.0685 -0.1288  0.2839
71039W        W14030  17.959  33.889  22.614  0.2564  0.2610  0.0068
71040W        W14031  20.451  23.135  26.256 -0.0498  0.3618 -0.0298
71041W        W14032  22.461   7.794  15.865  0.1689  0.0947 -0.0958
71042W        W14033  11.214   1.200   1.059 -0.0203  0.1405 -0.1549
71043W        W14034  22.442  27.339  28.860  0.1275  0.0601 -0.0076
71044W        W14035  24.170   4.402  13.752  0.1086  0.0122  0.0131
71045W        W14036   7.163  17.999  23.188 -0.2153  0.0067 -0.1449
71046W        W14037  26.539  13.898  19.378 -0.1339  0.3005  0.2078
71047W        W14038  24.854   7.741  18.638 -0.0165 -0.0285 -0.3586
71048W        W14039  12.563   0.523  14.902  0.2445 -0.2003  0.0297
71049W        W14040  27.428  21.560  16.445  0.0030  0.0153  0.0342
71050W        W14041  16.237  15.241  16.171  0.1022  0.1077  0.2541
71051W        W14042  16.197  15.470  13.403 -0.2217  0.2594 -0.0302
71052W        W14043   7.953   4.880  20.767 -0.0102  0.0858 -0.0352
71053W        W14044  22.880  32.845  16.521 -0.1996 -0.4364 -0.1632
71054W        W14045  12.489  17.196  16.404  0.2140 -0.1415 -0.1264
71055W        W14046  15.336   8.271  23.138 -0.1324 -0.1156 -0.1450
71056W        W14047  12.224  12.987   6.519 -0.1766 -0.1005 -0.0507
71057W        W14048   3.407   3.298  27.130 -0.1269  0.1460 -0.1972
71058W        W14049  18.428   6.070  14.553  0.0349 -0.1592  0.1205
71059W        W14050  19.446  33.121  21.226 -0.0071 -0.3513  0.0167
71060W        W14051  22.616   9.366  23.253  0.1308 -0.1355 -0.0438
71061W        W14052  19.537  10.324   3.369 -0.1243  0.0362 -0.1968
71062W        W14053   0.079  33.804  28.383 -0.3977 -0.2774  0.0038
71063W        W14054  22.541  23.412  25.539 -0.0729  0.1946  0.0189
71064W        W14055  24.118  13.989  15.306  0.2960  0.0759  0.2504
71065W        W14056  23.287   5.355  21.511 -0.0378  0.0244 -0.0283
71066W        W14057  22.081   1.203  23.210  0.0233  0.2260  0.1431
71067W        W14058  13.448   7.627  20.428 -0.3633 -0.2753  0.1453
71068W        W14059   8.637  12.954  27.917 -0.1018  0.0366 -0.1980
71069W        W14060  25.812  20.802  15.234  0.1082 -0.1054  0.0460
71070W        W14061  11.839  34.181  18.704  0.1879 -0.0018 -0.1372
71071W        W14062  15.119   9.872  17.167  0.0766  0.3046  0.1040
71072W        W14063  19.987   7.004  21.773 -0.0153 -0.1499  0.2596
71073W        W14064  22.439  34.287  24.664 -0.1838  0.2126  0.2028
71074W        W14065  29.408  29.000  27.334  0.0319  0.2645 -0.1578
71075W        W14066  26.183  16.794  21.936  0.0726 -0.3506  0.3721
71076W        W14067  19.487   4.055  17.728  0.2101  0.0561 -0.2868
71077W        W14068  17.645  34.599   0.541  0.0748 -0.1622 -0.3519
71078W        W14069  15.588   7.922  24.771 -0.0504 -0.0442  0.0613
71079W        W14070  20.798   9.951  20.181  0.2831  0.0976 -0.0650
71080W        W14071   7.895   4.143  20.405  0.0924  0.1403  0.2569
71081W        W14072  30.943   1.679  27.218  0.2622  0.0487 -0.1335
71082W        W14073   9.258   9.166  25.698 -0.0511 -0.1497  0.0747
71083W        W14074  12.040  18.229  18.945  0.0538 -0.0713  0.1163
71084W        W14075  21.023  33.666  20.507  0.0056  0.3057  0.0851
71085W        W14076  17.558  11.899  17.862  0.1669 -0.1063 -0.2127
71086W        W14077   9.240   8.280  20.864  0.0826  0.0495 -0.1843
71087W        W14078  32.612   2.853  18.870 -0.1575  0.0383 -0.3468
71088W        W14079  17.827  34.441  18.716  0.1275  0.0530  0.0679
71089W        W14080  26.872  17.550  27.104 -0.6032 -0.0735 -0.3021
71090W        W14081  20.143   7.898  17.488 -0.1423 -0.0532  0.0738
71091W        W14082   2.875   9.610  15.895 -0.2152  0.0013 -0.2198
71092W        W14083  16.212   7.631  26.452  0.0889  0.1909  0.1408
71093W        W14084  34.535  20.347  17.067 -0.0374 -0.1129  0.4454
71094W        W14085  18.267  14.539  13.017  0.3700  0.0227 -0.0911
71095W        W14086  21.125   5.729  17.261  0.1471  0.1657  0.0084
71096W        W14087  16.033  11.884  26.851 -0.0122  0.0677 -0.3316
71097W        W14088   2.686   5.816  22.174  0.1161  0.3470  0.1206
71098W        W14089  30.188   8.969  22.264  0.0927  0.0154 -0.2868
71099W        W14090  27.107   8.132  19.527 -0.0001  0.0042  0.2621
71100W        W14091  15.568   2.594  21.829 -0.0563  0.1294 -0.0899
71101W        W14092  21.509   8.686  15.808  0.2936  0.0004 -0.2516
71102W        W14093   7.338   3.447  19.880 -0.1884 -0.1892  0.2741
71103W        W14094   4.563  21.685  14.501  0.1272  0.2565 -0.3675
71104W        W14095   9.494  15.289   0.079 -0.1859 -0.1774 -0.2798
71105W        W14096  26.739  27.642  16.907  0.3615 -0.0023 -0.2385
71106W        W14097  19.259   5.190   9.912  0.0213  0.3120 -0.0890
71107W        W14098  10.779  10.748  24.456  0.2562 -0.4482  0.0243
71108W        W14099  21.942  21.083  18.302 -0.2015  0.3613 -0.0138
71109W        W14100  29.593  12.721  21.139  0.3064  0.0490 -0.0084
71110W        W14101  21.731   0.400  23.976 -0.1383  0.0670  0.1540
71111W        W14102  21.982   0.803  23.622 -0.0528  0.1918 -0.4194
71112W        W14103   2.361  32.493  26.655  0.1277 -0.1607  0.0576
71113W        W14104   4.993   0.833   0.170 -0.0419  0.0247  0.1337
71114W        W14105  16.635  12.107  18.658  0.3534  0.0869  0.0368
71115W        W14106  20.748  24.403  21.250  0.1180  0.1650  0.1774
71116W        W14107  16.067   2.851  25.444 -0.0035  0.0430  0.1887
71117W        W14108   3.573   7.816  24.766  0.0839  0.0275 -0.2467
71118W        W14109  13.391  10.388  25.060 -0.0232  0.1619 -0.1446
71119W        W14110   3.189  12.773  16.460 -0.0888  0.0774  0.0567
71120W        W14111  26.816  17.357  15.525  0.0253 -0.0786  0.1460
71121W        W14112  20.882   7.774  24.592 -0.0422  0.2835  0.1685
71122W        W14113  15.347  11.872  15.774  0.1547  0.0949 -0.0555
71123W        W14114  31.858  33.472  24.278 -0.0287  0.4054  0.2138
71124W        W14115  25.247   9.264  18.988  0.0569 -0.3130 -0.0614
71125W        W14116  15.927  10.586  16.549 -0.2811 -0.3648  0.3784
71126W        W14117  15.297  13.927  20.626  0.1111 -0.0001 -0.0775
71127W        W14118  31.448  11.931  24.228 -0.0523 -0.0098 -0.0673
71128W        W14119  28.054  13.501  27.407  0.0815  0.2430 -0.0619
71129W        W14120  21.821   3.676  21.941 -0.1355  0.0126  0.1327
71130W        W14121  21.481  13.538  19.111 -0.1334 -0.1375 -0.1095
71131W        W14122  20.756   3.250  20.892  0.2262 -0.2486  0.1643
71132W        W14123   6.522  11.462  20.385  0.0386 -0.0482 -0.1421
71133W        W14124   5.540  13.373  22.600 -0.2737  0.2601 -0.0525
71134W        W14125  25.023  34.258  27.902  0.0266 -0.1649 -0.3123
71135W        W14126  28.135  32.605  19.407  0.0167 -0.1731  0.1183
71136W        W14127   3.078   2.577  28.406  0.1205  0.1466 -0.0287
71137W        W14128   9.980  24.726  17.232  0.1959  0.1961 -0.0913
71138W        W14129  18.656  24.378  19.641 -0.4436 -0.0853 -0.2953
71139W        W14130  24.919   6.185  20.662  0.0998  0.1860 -0.2463
71140W        W14131  20.004  29.678  17.473  0.2755 -0.2887  0.1069
71141W        W14132  13.264  21.253  18.596 -0.1879 -0.0183 -0.2471
71142W        W14133  15.580  23.247  26.637  0.3235  0.1343  0.1292
71143W        W14134  17.623  33.169  24.672 -0.1341 -0.1651  0.0128
71144W        W14135  22.440  20.292  15.251  0.1708 -0.3773 -0.2178
71145W        W14136  24.688  33.989  13.872 -0.0680  0.1160  0.0343
71146W        W14137  18.819   0.813  19.941  0.2322 -0.2845 -0.0992
71147W        W14138  12.622  34.146  20.322  0.0173 -0.0656 -0.1700
71148W        W14139  20.319   3.226  21.258  0.1930  0.0867  0.3174
71149W        W14140  16.870  28.225   4.207  0.2309  0.0273  0.3189
71150W        W14141  30.986   3.708  17.440 -0.0701  0.2243 -0.0149
71151W        W14142  22.068  19.991  23.353  0.1135 -0.0522  0.1212
71152W        W14143  30.668  14.650  22.886 -0.0356  0.0787  0.1837
71153W        W14144  15.611   9.376  22.398 -0.1432  0.0045  0.0534
71154W        W14145  23.043   7.425  22.842 -0.0361 -0.0437  0.3226
71155W        W14146  16.565   7.170  19.259 -0.1557  0.1691  0.0481
71156W        W14147   7.948   8.231  20.545  0.1227  0.2739  0.1728
71157W        W14148  13.081  12.904  16.656  0.1480 -0.0986  0.4153
71158W        W14149  29.995  28.369  25.163  0.2403 -0.1245  0.0608
71159W        W14150  28.701  33.685  23.151  0.2434  0.0360  0.0359
71160W        W14151  22.964   5.810  16.098 -0.0004 -0.0375 -0.1178
71161W        W14152  21.152  15.854  14.132 -0.0232 -0.0525  0.1038
71162W        W14153  14.364  23.775  16.862 -0.0884 -0.0416  0.1825
71163W        W14154  10.937   8.578  24.243 -0.0968 -0.0632 -0.2250
71164W        W14155   9.517  13.159  21.631 -0.2373  0.1663  0.1355
71165W        W14156   4.153   7.077  17.376 -0.3062  0.1683 -0.1425
71166W        W14157  22.492  19.996  14.650 -0.1783  0.1816  0.3961
71167W        W14158  26.209   0.062   0.827 -0.0079 -0.1759 -0.0086
71168W        W14159  26.573  21.021   1.697  0.0955  0.1447  0.3341
71169W        W14160   5.523  33.057  20.776  0.0909  0.1340 -0.0297
71170W        W14161  18.525  32.742  23.312 -0.2749  0.3322 -0.2370
71171W        W14162  23.704  17.260  25.868  0.0150 -0.1029  0.4855
71172W        W14163  15.088  11.158  18.856  0.3511 -0.2669  0.0565
71173W        W14164  27.986  15.172   0.801  0.0607  0.0047  0.0418
71174W        W14165   7.409  11.099  21.309 -0.0234  0.3312  0.0549
71175W        W14166  11.296   3.512  22.330 -0.0445 -0.0993  0.2270
71176W        W14167  24.646  31.213  15.331  0.0479 -0.0901  0.0493
71177W        W14168  24.056   2.022  18.169  0.2494 -0.2517  0.0724
71178W        W14169  17.119   3.710   8.643 -0.0314  0.1925 -0.2275
71179W        W14170   9.560  22.694   0.153 -0.0020 -0.2382  0.0895
71180W        W14171   2.718  12.937  16.395 -0.0502  0.0332  0.1623
71181W        W14172  15.483  10.541  22.554  0.0072  0.0962 -0.0356
71182W        W14173  16.598  31.463  23.607  0.2436  0.1455 -0.1513
71183W        W14174   0.740  17.676  19.822  0.2368  0.0291 -0.0907
71184W        W14175  34.178  18.171   5.906  0.1986  0.1226 -0.1569
71185W        W14176  27.440  13.945  27.268  0.1832  0.2582  0.0081
71186W        W14177   7.234   0.276  18.685 -0.1611 -0.0473 -0.2612
71187W        W14178  18.237  13.560  19.118 -0.3086  0.2123  0.0190
71188W        W14179   3.089   2.082  24.675  0.0137 -0.0077 -0.1969
71189W        W14180  19.338   3.234  27.109  0.0265 -0.1310  0.0634
71190W        W14181   4.877   8.318  22.641 -0.1015 -0.0964 -0.0500
71191W        W14182   9.573  12.137   9.661  0.1568  0.0094 -0.2198
71192W        W14183   6.468  16.003  19.830 -0.2750  0.1283  0.3832
71193W        W14184  21.092  22.843  19.975  0.2106 -0.4851  0.3550
71194W        W14185  15.299   5.172  24.645  0.1680  0.1255 -0.2757
71195W        W14186  17.193  31.005  24.076 -0.1238 -0.0221 -0.0159
71196W        W14187  12.514  29.099  18.087  0.0687 -0.4766 -0.1054
71197W        W14188  11.820   4.779  15.239 -0.2261  0.1254 -0.0204
71198W        W14189  26.573   3.094  18.841  0.2001  0.0733  0.1553
71199W        W14190  29.073   6.934  26.052 -0.0796 -0.1421  0.2009
71200W        W14191  10.001  11.035  10.990  0.0848  0.2081  0.0143
71201W        W14192  24.482  32.325  16.167 -0.1055  0.0313  0.0152
71202W        W14193  14.744  19.382  13.194 -0.0475  0.1150 -0.5306
71203W        W14194  31.390  19.586  16.884 -0.2761  0.1774 -0.4118
71204W        W14195  12.982  23.228  27.041 -0.1745 -0.2565 -0.2889
71205W        W14196  23.602  32.795  13.094  0.1401  0.1728  0.0212
71206W        W14197  13.256   1.610  19.632  0.5310 -0.2173  0.1403
71207W        W14198  16.109   7.141  15.766  0.2241  0.4021 -0.2359
71208W        W14199  19.559   4.164  21.750  0.3676  0.0886  0.0555
71209W        W14200  18.353   4.045  14.473 -0.1693 -0.0168  0.1484
71210W        W14201  18.338  14.843  23.134  0.0428  0.0006 -0.2021
71211W        W14202  20.831   9.185  26.894  0.2341  0.0638 -0.0809
71212W        W14203  10.979  15.279  21.347 -0.4107  0.0849  0.1105
71213W        W14204   6.862   0.997  27.634 -0.1147 -0.0280 -0.0132
71214W        W14205  12.437  21.530  25.202 -0.1545 -0.2862  0.0479
71215W        W14206  25.688   2.649  17.427  0.0058 -0.2089 -0.2792
71216W        W14207  24.711  22.373  15.473  0.1898 -0.0223  0.0965
71217W        W14208  12.910  19.628  17.263 -0.2199 -0.0983  0.1467
71218W        W14209  18.730   4.611  16.119 -0.2100 -0.0836  0.1304
71219W        W14210  10.660  11.831   5.316 -0.0840  0.1366 -0.1137
71220W        W14211   6.659  34.469  22.013  0.5135 -0.0627  0.0310
71221W        W14212  24.038   8.483  28.043 -0.0715  0.0855  0.0438
71222W        W14213  17.512  17.914  13.950  0.0372  0.1780  0.1522
71223W        W14214   2.123  13.101   5.995 -0.3383 -0.1483 -0.0985
71224W        W14215  19.358   9.487  20.095 -0.1150 -0.2291  0.0362
71225W        W14216  24.650  16.524   2.458  0.0312  0.0371 -0.2530
71226W        W14217  14.807   3.562  25.579 -0.4180 -0.0854  0.1725
71227W        W14218  21.441   9.235   8.236 -0.1480 -0.0466 -0.2228
71228W        W14219  22.697   9.240  15.636 -0.0194  0.0148 -0.0143
71229W        W14220   4.910   4.790   1.339 -0.3045  0.2522 -0.0382
71230W        W14221  15.862  11.537  25.568 -0.2205 -0.0073  0.3006
71231W        W14222  23.042   7.345  18.003 -0.1516  0.1213 -0.0881
71232W        W14223   3.042   7.350  15.718  0.0189  0.1538 -0.0331
71233W        W14224  21.353   6.963   2.879 -0.2427  0.1553 -0.0581
71234W        W14225  22.126  14.481  14.914 -0.1376 -0.1894  0.2102
71235W        W14226   3.308   3.974  15.795 -0.2340  0.0050  0.1393
71236W        W14227  14.287  29.357   2.640 -0.2707  0.3979 -0.1481
71237W        W14228  16.361   8.066  18.649 -0.1220  0.0389  0.2548
71238W        W14229  13.520  10.292  24.317  0.0321  0.1136  0.2231
71239W        W14230  16.904   7.462  20.010  0.2421 -0.0763 -0.3736
71240W        W14231  23.774  19.791  22.249 -0.0564 -0.1097 -0.1913
71241W        W14232   4.060   3.724   4.921  0.0862 -0.2145 -0.1724
71242W        W14233   8.650   9.185  22.168 -0.0942 -0.1937  0.0299
71243W        W14234   3.709  18.967  19.652  0.2386 -0.1724 -0.1409
71244W        W14235  17.334   6.644   2.693 -0.0583  0.1038 -0.2314
71245W        W14236   3.748  22.758  16.355 -0.0965 -0.1411  0.1079
71246W        W14237  20.021  33.088  26.092  0.1117  0.0673  0.1196
71247W        W14238  30.242   6.213  19.425  0.0762  0.2003 -0.1529
71248W        W14239  27.431  17.021  14.766 -0.0762  0.2395  0.1959
71249W        W14240  14.001  24.132  23.120  0.0146 -0.0456  0.0173
71250W        W14241  33.738  10.931   2.851  0.0559 -0.1251  0.0233
71251W        W14242  10.561  20.970   5.278 -0.2376  0.1519 -0.3120
71252W        W14243  21.681  31.046  19.672  0.2975 -0.0066  0.0279
71253W        W14244   5.567  28.095  20.048 -0.1277  0.0115  0.0346
71254W        W14245  12.687  25.783  17.678  0.2739  0.0826 -0.1698
71255W        W14246  14.072  10.884  26.246 -0.3276  0.1780  0.0903
71256W        W14247  14.688  15.133  21.896 -0.0760  0.0392  0.0825
71257W        W14248  15.615   1.929  19.615  0.2330 -0.1601 -0.0785
71258W        W14249  21.875  24.201   3.312 -0.3890 -0.3261 -0.0602
71259W        W14250  10.614   9.862  22.194 -0.0107 -0.0575 -0.1356
71260W        W14251   0.325  12.802   0.128  0.0692  0.0982  0.2648
71261W        W14252  24.008  26.751   7.376 -0.1644 -0.0559 -0.1982
71262W        W14253   2.690  16.188  19.883 -0.0006  0.1530  0.2256
71263W        W14254  26.874  27.128  14.995 -0.0730  0.2514  0.2497
71264W        W14255  30.645  31.073  20.458  0.1752  0.0727  0.1511
71265W        W14256  16.511  18.257  15.218  0.2391 -0.0694 -0.2227
71266W        W14257  22.814  10.325  19.677  0.0533 -0.1125  0.2905
71267W        W14258  23.469   8.472  17.340 -0.0506  0.0153 -0.1385
71268W        W14259  32.795  13.372  23.767  0.1398  0.2024 -0.1494
71269W        W14260   6.326  17.206  22.040 -0.2943 -0.3074 -0.1381
71270W        W14261  12.208  19.301  19.949 -0.0566  0.0364  0.0382
71271W        W14262  33.452   7.872  17.187  0.1523  0.1732  0.2205
71272W        W14263  20.390  11.627  24.524  0.0984  0.0859 -0.0282
71273W        W14264  30.567  16.714   4.954  0.0900  0.1299 -0.1911
71274W        W14265   5.210  31.737   3.566  0.0878  0.2720 -0.0408
71275W        W14266  11.977   4.570  20.927 -0.1141 -0.0712 -0.2248
71276W        W14267  22.069  14.388  26.558  0.1127  0.2029  0.2534
71277W        W14268  18.023   4.826  19.702  0.0183  0.3287 -0.2368
71278W        W14269  16.674  10.801  22.935 -0.0890  0.1913 -0.0170
71279W        W14270  22.285  34.211  22.401 -0.1475 -0.3556  0.2697
71280W        W14271  22.079  33.365  23.618 -0.0517  0.3865  0.0322
71281W        W14272  29.492  17.527  21.029  0.0203 -0.2553 -0.0792
71282W        W14273  11.791  12.486  21.540 -0.4023  0.2957 -0.0571
71283W        W14274  25.074   6.181  20.081  0.2192  0.1962  0.0406
71284W        W14275  12.941  17.793  18.977  0.1691  0.1455 -0.3303
71285W        W14276  21.828   1.675  13.831  0.1890  0.1052  0.2601
71286W        W14277  14.745   4.577  22.329  0.1529  0.0501 -0.1141
71287W        W14278   1.611   4.483  24.829 -0.0353 -0.1304 -0.0518
71288W        W14279  21.475   6.275  14.698 -0.1715 -0.1529 -0.0328
71289W        W14280   9.460  10.891  15.527 -0.0504 -0.3462  0.1517
71290W        W14281   9.905  23.405  24.433  0.0260 -0.3414 -0.0688
71291W        W14282   2.169   9.949  20.090 -0.2677 -0.1011  0.0691
71292W        W14283  22.979   5.201  16.397  0.1097 -0.3199 -0.1294
71293W        W14284  17.787  28.274  23.739 -0.3366  0.1017  0.1451
71294W        W14285  16.376  17.933  24.701 -0.2040  0.0456 -0.0211
71295W        W14286  17.448  23.662  27.385  0.1823 -0.0579  0.2745
71296W        W14287  18.893  33.480  13.960  0.0407 -0.4603 -0.2018
71297W        W14288  18.407  27.940   4.092  0.1841  0.1537 -0.3403
71298W        W14289  11.113   6.144  19.618  0.1231  0.0820 -0.0707
71299W        W14290  30.604  12.273  23.704 -0.2651 -0.0619 -0.0066
71300W        W14291   9.796   5.617  16.861  0.1009 -0.1702 -0.0564
71301W        W14292   7.264  10.807  16.973  0.0087 -0.1090  0.1056
71302W        W14293  23.849  34.194  15.712  0.1422  0.0074 -0.0547
71303W        W14294  26.036  27.035  17.901  0.2760  0.3258 -0.2678
71304W        W14295   0.797   7.125  19.600 -0.2458  0.0234 -0.0639
71305W        W14296   6.813  14.549  21.678 -0.2950  0.0455  0.3070
71306W        W14297  28.898  12.299  15.369  0.0815 -0.2495 -0.1569
71307W        W14298  20.676  10.705  21.003 -0.2167  0.1889  0.0912
71308W        W14299  13.866  33.796   9.035 -0.0160 -0.0840 -0.0936
71309W        W14300  25.093   7.841  17.345 -0.1196  0.4199  0.0355
71310W        W14301  25.615   2.633  13.697 -0.0444  0.1896 -0.2717
71311W        W14302   2.541  33.061  14.904  0.2211  0.2738  0.0610
71312W        W14303  30.976  23.039   2.073 -0.0318 -0.6794  0.0567
71313W        W14304   2.727  33.676  26.517 -0.1299  0.1930  0.2035
71314W        W14305   2.983   6.050  24.597  0.1091  0.2416 -0.1996
71315W        W14306   0.555  17.814   3.339  0.1308  0.2377 -0.1153
71316W        W14307   7.654   7.155  26.542  0.0530 -0.1109  0.1778
71317W        W14308  17.952  11.903  16.372  0.2555  0.0066 -0.0374
71318W        W14309  27.065  15.993  21.195 -0.2789  0.2874 -0.2317
71319W        W14310  14.637  34.551   6.862 -0.3946  0.0598  0.1652
71320W        W14311  26.315  31.984  25.252 -0.2458  0.1579  0.1435
71321W        W14312  18.890  34.080  21.139  0.0712 -0.1421 -0.1180
71322W        W14313  12.922   1.211   5.728  0.1956  0.2350 -0.2314
71323W        W14314  22.894  29.005  17.731 -0.1146 -0.0596  0.1585
71324W        W14315   9.961   1.521  22.069 -0.1436  0.0465 -0.0725
71325W        W14316  15.687   4.636  21.175  0.0165 -0.0353  0.1107
71326W        W14317   5.094  13.947  22.077  0.0615 -0.1013  0.1527
71327W        W14318   1.877   1.989  14.363  0.1209  0.1781 -0.1152
71328W        W14319  21.562   9.021  19.957 -0.2500  0.1466  0.0726
71329W        W14320   3.180   1.553  26.487  0.1078 -0.0760 -0.1655
71330W        W14321  25.621   5.443  17.895  0.1490  0.1988  0.2793
71331W        W14322  32.664   5.733  24.229  0.0502 -0.0629  0.3546
71332W        W14323  21.915  23.727   7.311  0.3223  0.0335  0.5480
71333W        W14324  32.746   4.050  18.772  0.2096  0.1255  0.2224
71334W        W14325  16.661   3.999  19.461 -0.0078  0.4175 -0.0898
71335W        W14326  23.341  12.890  19.589 -0.0109  0.1259 -0.2343
71336W        W14327  24.282   6.073  18.154  0.2819  0.3318  0.0731
71337W        W14328  26.305  34.454  29.217  0.3142 -0.1356 -0.2136
71338W        W14329  20.200   3.299  15.241  0.3951  0.0721 -0.1235
71339W        W14330  28.745  10.017  14.643 -0.4201 -0.0632 -0.0240
71340W        W14331   9.749   1.174  23.933  0.0896  0.1365 -0.1036
71341W        W14332  18.744   7.733  24.790  0.0703  0.1701 -0.1565
71342W        W14333  24.143  21.170  27.031 -0.3284  0.0516 -0.3349
71343W        W14334  21.506   3.706  18.309 -0.0926  0.1585  0.0570
71344W        W14335  13.252  14.514   4.447 -0.0750  0.5298 -0.1691
71345W        W14336   4.522  10.971  18.566 -0.0254 -0.0376 -0.2460
71346W        W14337  16.643  12.660  27.851 -0.1305  0.3570  0.1320
71347W        W14338  24.155   7.522  14.421 -0.4803  0.0353 -0.2958
71348W        W14339  33.128  27.753  19.482 -0.0020 -0.1270  0.0366
71349W        W14340  19.802  26.592  23.268 -0.0501 -0.1009 -0.1197
71350W        W14341  29.326  25.314   5.204  0.0536  0.0767  0.1402
71351W        W14342  12.379   6.530  19.252 -0.1173  0.0940 -0.0567
71352W        W14343  25.545   3.190  22.601  0.0702  0.0719 -0.0930
71353W        W14344   9.404   2.557  25.067  0.1227 -0.0574  0.0894
71354W        W14345  15.302   1.671   0.487  0.0025 -0.4027 -0.5238
71355W        W14346  25.024  18.536  20.318 -0.0674 -0.0625  0.0976
71356W        W14347  22.709   4.624  23.202 -0.3754 -0.1650  0.1297
71357W        W14348   9.457  32.633   2.036  0.2259 -0.1682  0.2665
71358W        W14349  18.196   7.907  15.020 -0.3218  0.0723 -0.0931
71359W        W14350  19.141  13.688  24.250  0.6425  0.0118  0.1857
71360W        W14351  34.328  28.997  27.127 -0.1918 -0.3001  0.0009
71361W        W14352  29.573   0.597  20.671 -0.1832 -0.4491 -0.1813
71362W        W14353   5.604  28.880  19.771 -0.1634  0.1667  0.1653
71363W        W14354   3.626  16.597  21.244  0.1811 -0.1197  0.4621
71364W        W14355  12.068   1.627  18.183 -0.0500 -0.0733 -0.1526
71365W        W14356  25.545   4.059  28.699 -0.0500 -0.1434  0.1513
71366W        W14357  17.880   9.079  17.400 -0.0284 -0.0698 -0.2839
71367W        W14358  21.089  31.324   6.615  0.0856  0.1474 -0.0358
71368W        W14359  15.303   2.393  23.341 -0.2509 -0.1579  0.1108
71369W        W14360   4.929   8.352  19.263 -0.1078  0.0846 -0.3149
71370W        W14361   3.286   4.579  22.802  0.2077 -0.0606 -0.0651
71371W        W14362  25.414  25.140  20.258 -0.1622 -0.0723  0.2344
71372W        W14363  10.868   6.819   2.201  0.3293  0.1670  0.2947
71373W        W14364  13.853  27.049   0.178  0.3322 -0.2144 -0.1730
71374W        W14365  20.808   3.677  22.976  0.0596  0.0657 -0.0090
71375W        W14366  30.993  11.938  24.485 -0.1896 -0.2147 -0.1157
71376W        W14367  10.615  31.506  21.701 -0.0673  0.1609  0.0393
71377W        W14368  26.467  20.297  17.784  0.0768  0.0065  0.0126
71378W        W14369  16.407   2.356  19.953 -0.0583 -0.1271 -0.1945
71379W        W14370  32.729  17.514  24.398  0.3219  0.1009 -0.1395
71380W        W14371  22.726  25.844  18.295 -0.1633 -0.1076 -0.2699
71381W        W14372  18.344  10.330  17.521 -0.3045  0.0952  0.3231
71382W        W14373  15.888   4.777   0.155  0.0460  0.0292 -0.0895
71383W        W14374   7.173  15.448  19.129 -0.0256  0.2498  0.1080
71384W        W14375  16.300  33.369  20.347  0.4184 -0.0648  0.0292
71385W        W14376  23.324  12.047  19.674 -0.0505 -0.3211  0.2294
71386W        W14377  14.125  32.809  20.681  0.2710  0.0597 -0.0659
71387W        W14378   5.127  16.987  17.719 -0.0884  0.3952  0.1254
71388W        W14379   1.924   3.595  18.512 -0.2333  0.2050  0.0592
71389W        W14380  25.767  10.156  18.593 -0.1243 -0.1712 -0.3389
71390W        W14381  13.324  12.357  27.033  0.0854  0.1028 -0.2370
71391W        W14382  23.542   3.743  26.119  0.3326  0.1749 -0.1184
71392W        W14383  17.696   1.116   5.061 -0.1048 -0.1048  0.2280
71393W        W14384  13.907   2.219  18.077  0.0601 -0.2495  0.3764
71394W        W14385  24.316  23.778  16.069 -0.0184 -0.1887  0.2072
71395W        W14386  22.158  19.610  20.313  0.1687  0.2293  0.2701
71396W        W14387  17.416  18.136  14.431 -0.1363  0.1672  0.1589
71397W        W14388  25.080  31.366  24.015  0.0442  0.0333 -0.0787
71398W        W14389  16.478  32.084  15.421  0.0647  0.2675  0.1912
71399W        W14390  10.468  21.780  20.439 -0.1478  0.1574 -0.0141
71400W        W14391  20.238   2.768   0.073 -0.0635 -0.0719 -0.1514
71401W        W14392  12.084  15.334  23.623 -0.1575  0.2678  0.0142
71402W        W14393  27.432   2.848   4.843  0.0242  0.2653 -0.1167
71403W        W14394  24.673  21.706  22.123  0.0101 -0.0703  0.3382
71404W        W14395  27.541  10.194  26.814  0.0122  0.0250  0.0415
71405W        W14396  10.293  33.154   4.049 -0.2312 -0.3346  0.1246
71406W        W14397   6.100  20.346   0.371  0.5117 -0.0532  0.3357
71407W        W14398  12.558   1.272  26.626 -0.0622  0.2686  0.1678
71408W        W14399  23.011   4.905  21.360  0.0140  0.0826 -0.0192
71409W        W14400  16.855   2.087  18.470 -0.2458  0.0694 -0.0669
71410W        W14401   6.428  28.009   2.518  0.2312 -0.0700  0.2016
71411W        W14402  19.392  29.735   2.426 -0.0973 -0.1306 -0.0144
71412W        W14403  12.929  31.156  24.344 -0.1222 -0.0753  0.1596
71413W        W14404  25.088  33.026  20.146 -0.1128 -0.1828 -0.0537
71414W        W14405  13.001  19.500  14.099  0.0739 -0.0070  0.1219
71415W        W14406   5.296  15.254  22.649 -0.0046 -0.1130  0.0492
71416W        W14407  22.784  18.385  15.932 -0.1562  0.3849 -0.0386
71417W        W14408  18.589  10.141  19.144 -0.0275  0.0320 -0.0927
71418W        W14409  27.505   7.703   2.726 -0.0818  0.1020 -0.0986
71419W        W14410  16.275   6.000   2.205 -0.0506  0.0603 -0.0109
71420W        W14411  22.382   3.796  19.959 -0.0947 -0.0452  0.0044
71421W        W14412  25.010   7.455  16.513  0.1921 -0.2666 -0.0148
71422W        W14413  23.018  16.168  19.004  0.1245  0.0592  0.0724
71423W        W14414  11.182   4.000  20.529 -0.3151  0.1660  0.3192
71424W        W14415  15.184  23.995  17.098 -0.0372 -0.0873 -0.2536
71425W        W14416  29.225  16.129  16.563 -0.0475 -0.1798 -0.0731
71426W        W14417  11.987  15.394   5.660  0.3289 -0.0950  0.1709
71427W        W14418  24.059  21.922   0.947  0.2657  0.3682 -0.1468
71428W        W14419  18.131   4.240  25.274 -0.0641 -0.4171  0.1357
71429W        W14420  20.505  14.784  16.858  0.0142  0.1946 -0.0593
71430W        W14421   7.769  11.386  23.324  0.1666  0.2975  0.4328
71431W        W14422   7.311  22.677  19.259 -0.2749  0.0853  0.1317
71432W        W14423  18.467  13.468  20.443  0.4410 -0.4432  0.0389
71433W        W14424   8.259  16.240  21.065 -0.0505 -0.1651  0.4079
71434W        W14425   0.481  29.128  19.324  0.3284  0.1193 -0.1887
71435W        W14426  17.967  11.379   0.411  0.0062 -0.0614 -0.0333
71436W        W14427  22.910   3.288  17.697  0.3305  0.1865  0.2221
71437W        W14428  23.870   5.995  13.374  0.2077  0.2750 -0.0876
71438W        W14429   4.664   3.361  21.285  0.1530  0.1237 -0.1173
71439W        W14430  24.781  27.268  14.254  0.2417 -0.0845 -0.1293
71440W        W14431   7.064  13.677  15.665 -0.0613 -0.0948 -0.1669
71441W        W14432  17.307  12.760  22.031  0.2835  0.3003  0.0997
71442W        W14433  12.803  32.965  17.712 -0.1695  0.1057  0.4034
71443W        W14434  11.485  12.413  25.770  0.0795 -0.1775 -0.1029
71444W        W14435  33.591   5.312  28.370  0.0784 -0.0578  0.0300
71445W        W14436  13.627  29.581  23.419  0.0225  0.0958 -0.0643
71446W        W14437  34.340   8.875   0.271  0.1898 -0.4098  0.0006
71447W        W14438  10.046   9.046  18.787  0.0178 -0.0593  0.3886
71448W        W14439  28.506  13.565  22.082 -0.0346 -0.0234  0.0802
71449W        W14440  33.858  14.732   2.853  0.1140  0.3652  0.1460
71450W        W14441  19.302   4.125   5.391 -0.0147 -0.1018  0.0589
71451W        W14442  12.922   5.359  18.440 -0.0210  0.0071 -0.4719
71452W        W14443   3.940  14.371  16.248 -0.2555  0.1149  0.1985
71453W        W14444  23.929  13.075  16.540 -0.2347  0.1492 -0.0201
71454W        W14445  24.628  21.479  17.713  0.2179  0.0127 -0.1555
71455W        W14446  20.037  21.566  26.122  0.2601 -0.1519  0.2535
71456W        W14447  24.942  26.135  17.491 -0.2354 -0.0670 -0.1497
71457W        W14448  23.063  13.601   2.285  0.0985  0.1769 -0.3600
71458W        W14449  15.745  12.090  18.817 -0.0645  0.2144  0.0042
71459W        W14450  11.695  28.155   4.999  0.1699 -0.3642  0.0157
71460W        W14451  12.844  14.986  27.688 -0.2436  0.1463  0.0676
71461W        W14452  20.729  10.048   3.231  0.0627  0.0020  0.1126
71462W        W14453  13.977  24.032   6.969 -0.3235 -0.5266  0.1845
71463W        W14454  15.816   9.269  19.296 -0.2126  0.0137  0.0270
71464W        W14455  26.213   6.043   2.637  0.1967  0.2994  0.0085
71465W        W14456  30.100   3.156   9.135 -0.0501 -0.1356 -0.2874
71466W        W14457   5.486   6.629  17.823 -0.0899  0.0926  0.1473
71467W        W14458  16.188   2.317  23.011 -0.1265  0.2928  0.1618
71468W        W14459  13.405   5.816  17.494  0.0575  0.1807 -0.0962
71469W        W14460  21.995  18.729  24.337 -0.0317 -0.0608 -0.0649
71470W        W14461  16.835  21.037  17.259 -0.1112 -0.0180  0.0022
71471W        W14462  20.049   7.578  19.418 -0.3670  0.1356 -0.2082
71472W        W14463  27.454  26.818   3.799  0.0433  0.0851  0.1960
71473W        W14464  15.232   6.685   6.842  0.1678  0.0340 -0.0257
71474W        W14465   3.440  11.189   0.560 -0.0839 -0.0534 -0.2421
71475W        W14466  32.430   9.330  17.068  0.0572 -0.0192  0.1204
71476W        W14467  23.712  30.047  23.214  0.1092  0.0139  0.2664
71477W        W14468   9.126  17.011   5.782 -0.1212  0.2818 -0.0607
71478W        W14469   5.539  12.885  20.479  0.2260  0.0023  0.1202
71479W        W14470  22.033  20.629  12.432  0.0961  0.2215 -0.1974
71480W        W14471  13.461   2.583  17.687 -0.2464  0.2751  0.0934
71481W        W14472  28.869   7.425  26.228 -0.1769 -0.1496  0.0855
71482W        W14473  23.799  14.262  25.157  0.2794 -0.0154 -0.4239
71483W        W14474   9.871  14.550  21.937 -0.6693 -0.0245 -0.0252
71484W        W14475  21.925  11.811  17.417  0.0373 -0.1210  0.1378
71485W        W14476  16.369  12.549  18.280  0.2233 -0.0867 -0.0899
71486W        W14477  11.607  30.827  26.046  0.0662  0.2143 -0.1886
71487W        W14478  19.183  19.417  27.177  0.2246 -0.2435 -0.0653
71488W        W14479   7.280   8.042  18.113 -0.3389  0.0538 -0.1620
71489W        W14480  18.671   1.137   0.303  0.1133 -0.2552 -0.0697
71490W        W14481  20.286  19.114  15.153 -0.2388 -0.1900 -0.1161
71491W        W14482  27.376   0.158  28.599 -0.1124 -0.2254 -0.0741
71492W        W14483  23.996   7.725  22.640  0.1319 -0.1535 -0.0028
71493W        W14484  22.030  11.601  21.901 -0.0214  0.1198 -0.0240
71494W        W14485   0.664  20.377  28.671 -0.3356  0.2673  0.2183
71495W        W14486  33.095   1.823  19.129  0.3884  0.0027 -0.0849
71496W        W14487  10.467   6.990  16.418 -0.2762  0.1181 -0.1954
71497W        W14488  23.474  26.037  13.361  0.4967 -0.0058 -0.0349
71498W        W14489  19.648  28.925  17.313  0.2162  0.2294  0.0035
71499W        W14490  28.170  18.088  22.701 -0.2995 -0.0411 -0.0183
71500W        W14491  28.847  16.323  26.472  0.1867  0.2079 -0.2180
71501W        W14492   7.313  15.818   2.241 -0.1906  0.0639  0.1685
71502W        W14493  14.659  18.894  13.016  0.1057  0.1418  0.2820
71503W        W14494  34.545  10.107  22.657  0.0745 -0.3129 -0.6019
71504W        W14495  13.248   4.576  19.835 -0.2259 -0.2017  0.1116
71505W        W14496  27.274   7.613  29.063  0.1193  0.2779  0.3083
71506W        W14497   1.470  23.764  23.581 -0.0353  0.0986 -0.3473
71507W        W14498  33.365   9.236  26.200  0.0973  0.0746  0.0053
71508W        W14499   9.696  31.745  28.002  0.1616  0.3235  0.2282
71509W        W14500  30.272  17.059  16.398  0.0166 -0.1818 -0.1580
71510W        W14501  22.815   3.663  15.447  0.0971 -0.1632  0.1296
71511W        W14502  10.526   5.206  15.270 -0.3653 -0.2185  0.4510
71512W        W14503  19.162   3.482   9.073  0.4059  0.2748  0.0218
71513W        W14504  20.318   6.340  15.123  0.0400  0.1967  0.2343
71514W        W14505  10.981  13.904  23.298  0.3069  0.4906  0.2603
71515W        W14506  20.912  30.055  17.653  0.1745 -0.1434  0.2921
71516W        W14507  21.046  31.182  23.368  0.1011  0.5294 -0.0412
71517W        W14508  15.259  29.573  15.031  0.2092 -0.0798  0.2429
71518W        W14509   4.477  15.062   0.105  0.0367  0.2378  0.1048
71519W        W14510  11.079   7.116   0.698 -0.0207  0.1528  0.0412
71520W        W14511  23.943  10.220  13.777  0.0604 -0.1104  0.0001
71521W        W14512  13.100   0.578  21.762 -0.0008 -0.1683  0.2273
71522W        W14513   3.875   8.198  23.347 -0.0043 -0.2521  0.0684
71523W        W14514  13.911  19.055  18.355  0.3630 -0.1162 -0.0497
71524W        W14515  15.749   7.149  21.729  0.1509  0.0229  0.0079
71525W        W14516  29.490   8.531  20.688 -0.0968  0.0139 -0.1093
71526W        W14517  12.569   5.285  24.455  0.0004  0.2414  0.2131
71527W        W14518  18.575  15.475  13.506  0.1256 -0.0358 -0.1577
71528W        W14519  14.376  10.547  16.386  0.0375  0.1054  0.0879
71529W        W14520  25.181  24.543  21.857 -0.3343  0.0338  0.1905
71530W        W14521  19.763  22.211  16.359 -0.0374  0.2498  0.2243
71531W        W14522  12.105  11.985  16.522  0.1653  0.0958  0.0484
71532W        W14523  23.001  15.190  23.002  0.1293 -0.1722 -0.3566
71533W        W14524  26.229  10.290  22.061  0.0137 -0.1657 -0.1044
71534W        W14525  12.578   7.422  23.195 -0.1120 -0.0118  0.1676
71535W        W14526  13.148   1.676  25.355  0.0593  0.1124  0.2952
71536W        W14527  33.372  18.998  16.699  0.1955  0.0712 -0.0676
71537W        W14528  18.588   8.251  28.618 -0.0046  0.2330 -0.2667
71538W        W14529  23.128  12.488  21.388 -0.2392  0.1628  0.0886
71539W        W14530  16.488   2.039  17.590 -0.0035 -0.0654 -0.0146
71540W        W14531  27.529  15.185  22.847  0.0536 -0.0044 -0.3624
71541W        W14532  25.267   2.338  21.059  0.0143  0.1176 -0.1003
71542W        W14533  12.804  13.668  20.684  0.0229  0.1139  0.0546
71543W        W14534  28.394  28.609  15.263  0.2855 -0.2058 -0.2187
71544W        W14535  28.478  14.650  18.840  0.1518  0.0859 -0.0940
71545W        W14536  30.652  10.009  21.622  0.3674  0.2398 -0.1552
71546W        W14537  17.331  13.512  20.005 -0.0495 -0.0723 -0.1384
71547W        W14538  11.361   2.884  25.006  0.1592  0.1593  0.0348
71548W        W14539   7.925  26.512   0.505 -0.1157 -0.2631 -0.3044
71549W        W14540   8.094  20.706  16.703 -0.0025  0.1652 -0.1086
71550W        W14541  20.629   4.593  18.386  0.0360 -0.1086 -0.3158
71551W        W14542   6.606  14.723  17.818 -0.0962  0.1851  0.2493
71552W        W14543  14.409  11.854  21.240 -0.0479  0.1323  0.1737
71553W        W14544  25.343  29.429  25.266  0.0648 -0.0807 -0.0306
71554W        W14545  17.146  10.086  20.715 -0.2714 -0.0002  0.0014
71555W        W14546  30.039   8.082   8.971  0.2756  0.0956 -0.1523
71556W        W14547  16.972  16.321  16.473  0.1458  0.0744  0.0700
71557W        W14548  20.275   6.980  24.246 -0.0670  0.0420  0.0673
71558W        W14549  30.897  11.836  19.947  0.3771  0.1446  0.0747
71559W        W14550   3.923   6.901   6.322 -0.0887 -0.0372 -0.1929
71560W        W14551  26.968   6.658  20.996  0.2117 -0.1780 -0.2493
71561W        W14552  17.075  31.624   1.675  0.1409 -0.0117  0.2248
71562W        W14553  29.845   7.302  14.175 -0.1469 -0.1382  0.0826
71563W        W14554  17.427   6.962  17.543  0.1772 -0.1104  0.1480
71564W        W14555  22.662   5.922  23.923 -0.0682 -0.1210 -0.0614
71565W        W14556  17.294  25.489  15.772  0.1304  0.0248  0.2719
71566W        W14557  10.574  13.963  15.828  0.3069  0.2329 -0.0894
71567W        W14558  20.697  22.985  15.232 -0.2007  0.2618 -0.1694
71568W        W14559   0.785  17.355  23.013 -0.1490  0.0427  0.5063
71569W        W14560  20.983  22.680  16.331  0.2208  0.1287 -0.2174
71570W        W14561  19.537  15.036  22.884  0.2228 -0.0029 -0.0897
71571W        W14562  31.719  31.876  17.097 -0.0989  0.2148  0.0458
71572W        W14563  14.030  34.051  15.697  0.0256 -0.0776  0.0481
71573W        W14564  26.351  12.121   6.742  0.1191  0.3233 -0.4080
71574W        W14565  22.058  14.306  24.261 -0.1542  0.1762  0.0055
71575W        W14566   0.642  24.022  14.380  0.0159 -0.0525 -0.0806
71576W        W14567  33.522  12.569  23.970 -0.0736  0.1087  0.0380
71577W        W14568  28.112  33.895  23.778 -0.3356 -0.0837  0.1934
71578W        W14569  25.967  23.070  22.199  0.2297 -0.0008  0.3332
71579W        W14570  32.775  14.450   8.294  0.1320 -0.1006 -0.0195
71580W        W14571  19.008  10.558  18.117  0.0844  0.1135  0.1241
71581W        W14572  16.720  33.780  17.316 -0.0563  0.0027  0.2917
71582W        W14573  26.588  12.440  28.127  0.0431  0.1274 -0.3192
71583W        W14574  30.791  14.144  25.764 -0.1651 -0.1088 -0.0526
71584W        W14575  30.473  18.973  27.229 -0.0740 -0.0089  0.1053
71585W        W14576  16.112   9.315  21.838  0.1162 -0.1462  0.0208
71586W        W14577   8.599  34.483   4.001 -0.2050 -0.1025 -0.0565
71587W        W14578  19.476   9.424  23.685 -0.1128  0.0224  0.2906
71588W        W14579   4.439   6.023  23.863  0.2524  0.2430  0.0979
71589W        W14580  21.383   9.102  20.446 -0.1357 -0.2136 -0.0036
71590W        W14581  10.901   2.103  14.752  0.2227  0.2086  0.2340
71591W        W14582  32.363  28.501  21.375 -0.2259  0.0219  0.1226
71592W        W14583  26.414   3.626  20.923 -0.1458  0.1458 -0.0612
71593W        W14584   3.725   5.535  21.405 -0.1905 -0.2142 -0.0532
71594W        W14585  16.130   8.974  18.003 -0.3432  0.2659 -0.0238
71595W        W14586  30.252   7.516  14.282  0.1988 -0.0792 -0.2612
71596W        W14587  21.095  19.744  22.049 -0.0222  0.1183 -0.1319
71597W        W14588  16.059  23.102  20.468  0.1156 -0.2445  0.2292
71598W        W14589  14.851   8.945  21.358  0.1069 -0.4204  0.2579
71599W        W14590  16.690  27.171  23.824 -0.0319 -0.1392 -0.2268
71600W        W14591  12.431   3.669  27.990 -0.2443  0.0910 -0.2440
71601W        W14592   6.325  15.400  21.582 -0.4436  0.1359 -0.2058
71602W        W14593  25.379   6.097  27.945 -0.1722 -0.0879 -0.4166
71603W        W14594  22.381  10.221  14.037  0.3361 -0.2623 -0.1061
71604W        W14595  33.647  26.269  27.518 -0.3213  0.1002 -0.2544
71605W        W14596  19.595  26.640   0.451  0.0144  0.2915 -0.1497
71606W        W14597  12.565  19.782  19.359  0.3107 -0.0539  0.0373
71607W        W14598  26.732   8.044   2.895 -0.0846  0.0655 -0.3272
71608W        W14599  20.252  14.240  16.904  0.1632  0.2893  0.0627
71609W        W14600  10.786   3.940  19.495  0.2235  0.0121 -0.0566
71610W        W14601  11.178   7.532  26.068 -0.1236 -0.0733 -0.0806
71611W        W14602  15.942  11.042  19.233  0.0922 -0.0853 -0.3018
71612W        W14603  18.375  22.829   2.223  0.2202  0.3727  0.2262
71613W        W14604  14.541  11.566  17.505  0.3226  0.3166 -0.1003
71614W        W14605  25.239   1.447   0.560 -0.0107  0.1462  0.0393
71615W        W14606  16.147  17.675  27.845 -0.0113  0.0510  0.0753
71616W        W14607  22.512  14.885   7.730  0.1808 -0.2588  0.1097
71617W        W14608  16.801   7.323   5.887 -0.1683 -0.1262  0.1910
71618W        W14609   9.595   3.907   0.898  0.0068  0.1343 -0.0467
71619W        W14610  20.511   6.908   3.407 -0.2389 -0.0431  0.1904
71620W        W14611   0.338   7.339  19.275  0.0512 -0.3124  0.2517
71621W        W14612  12.937  31.097  16.891  0.0033 -0.0352  0.2218
71622W        W14613  18.169   0.905  24.042 -0.0457 -0.0118  0.3212
71623W        W14614  15.144  23.128  22.354  0.0576 -0.2079  0.1068
71624W        W14615  15.490   4.389  20.530 -0.2194  0.1415  0.2408
71625W        W14616  22.871   9.831  20.630  0.2470  0.2162 -0.0624
71626W        W14617  22.385  10.081  13.326  0.2659  0.2687 -0.3379
71627W        W14618  18.732  24.247  13.348  0.0191 -0.0178  0.0650
71628W        W14619   3.695   4.936  20.979  0.3273  0.0281  0.1363
71629W        W14620  24.272  33.495  17.199  0.2217  0.0356 -0.1595
71630W        W14621  12.934  12.305  20.641 -0.2164  0.0030  0.2933
71631W        W14622  22.199   3.289  25.451  0.2067 -0.1122  0.1418
71632W        W14623  22.903   9.331   0.253  0.0737  0.2527 -0.2158
71633W        W14624  34.511   8.272   6.529 -0.0604 -0.0681 -0.1782
71634W        W14625   3.539   5.824  22.062 -0.1369  0.0580  0.0408
71635W        W14626  19.722   0.981  19.264  0.0844 -0.2515 -0.2100
71636W        W14627  26.219   1.213  13.202  0.3273  0.3473  0.2529
71637W        W14628  10.617   9.373   0.994 -0.1319 -0.0087  0.1829
71638W        W14629  16.563  20.891  22.226 -0.0910 -0.0727 -0.1214
71639W        W14630   9.544  15.708   2.626  0.2271  0.3708 -0.0604
71640W        W14631  14.503   7.945  17.757  0.1867  0.1470  0.3143
71641W        W14632  18.196  21.146  25.732  0.2882 -0.3371 -0.2027
71642W        W14633   1.029  11.376   7.828  0.0987 -0.2195  0.1905
71643W        W14634  22.208   5.906  23.310 -0.0859 -0.1815  0.3129
71644W        W14635  10.685   7.816  17.317  0.0597 -0.1233 -0.0549
71645W        W14636  23.269  13.725  28.905 -0.0153  0.2058 -0.0615
71646W        W14637  11.359  32.658  21.770 -0.1816 -0.0513  0.0489
71647W        W14638   6.935  17.917  19.572  0.2445 -0.0880  0.1787
71648W        W14639  24.032   7.964  14.189 -0.1544 -0.0669  0.1064
71649W        W14640   6.231   4.433   0.488  0.2406 -0.3035 -0.0395
71650W        W14641  20.432   2.928  18.836  0.1522 -0.2088  0.0624
71651W        W14642  15.101   7.062  28.996 -0.0582  0.0761  0.0380
71652W        W14643  17.864  15.387   1.125  0.0997 -0.0041  0.1510
71653W        W14644  11.999  20.113  24.352  0.0442 -0.0883  0.1225
71654W        W14645  22.423  11.473  25.437  0.0583 -0.1866  0.1748
71655W        W14646  32.169  14.160  20.061  0.0739  0.1500 -0.2146
71656W        W14647  19.161  11.414  16.365  0.1359 -0.0610  0.1007
71657W        W14648  21.017  18.089   4.440  0.2819 -0.0954 -0.4527
71658W        W14649  31.108   7.988   7.228 -0.1758 -0.2900 -0.1026
71659W        W14650  18.420  11.716   0.302  0.0462  0.0711 -0.1252
71660W        W14651   4.049   5.959  17.019  0.0266  0.0018  0.0209
71661W        W14652  18.550  12.673   9.475  0.1297 -0.0419  0.0028
71662W        W14653   6.331  31.328   2.162  0.0118 -0.1146  0.2752
71663W        W14654   7.433  24.215  18.417 -0.0542 -0.0359  0.0621
71664W        W14655   3.268   2.999  25.272 -0.1529 -0.0285 -0.1016
71665W        W14656  21.054   3.755  25.288  0.1461 -0.0791  0.0271
71666W        W14657  21.188  33.750   7.766 -0.3759 -0.3221  0.0705
71667W        W14658  16.016   0.367  10.362  0.1343  0.0374 -0.2549
71668W        W14659   1.651  19.121  28.279 -0.1064  0.0764 -0.0320
71669W        W14660  28.858  18.084  23.668 -0.0286  0.0780  0.3149
71670W        W14661  17.480  22.544  13.506 -0.1037  0.1056  0.5771
71671W        W14662  33.207  25.228  20.533  0.1781 -0.1318 -0.1627
71672W        W14663  20.678  12.522  15.074 -0.1212  0.3408  0.3866
71673W        W14664   8.888  25.235   6.928  0.1985  0.1397 -0.2956
71674W        W14665  10.445   0.108   5.163  0.0548  0.0297  0.1485
71675W        W14666  14.840  20.588  26.408  0.0754 -0.0430  0.2161
71676W        W14667  27.005  26.253  14.573 -0.0420  0.3210  0.2360
71677W        W14668   4.443  32.350   3.414  0.0601 -0.0150 -0.2349
71678W        W14669   7.502   5.237  18.564 -0.2344  0.1795  0.0911
71679W        W14670  28.434  17.304  23.898 -0.0075  0.2031 -0.2070
71680W        W14671  15.452   8.333   4.703  0.0598 -0.1880  0.0062
71681W        W14672  21.295  12.102   4.189 -0.1832  0.0932  0.3413
71682W        W14673  30.850  12.000  16.564 -0.1717  0.0373  0.2494
71683W        W14674  31.496  32.519  22.149  0.2485  0.1307 -0.2584
71684W        W14675   6.855  18.023  27.051  0.1656 -0.1360  0.0640
71685W        W14676  28.790   6.099  14.969 -0.1306 -0.4708 -0.2842
71686W        W14677  32.465  32.544  17.022 -0.1462 -0.2729 -0.0625
71687W        W14678  30.178  15.276  26.497 -0.0905  0.2162  0.0259
71688W        W14679  20.621  33.796  13.896  0.0996 -0.0995 -0.3181
71689W        W14680  22.363   0.130  16.421  0.1298 -0.1560 -0.3409
71690W        W14681  22.476   9.363  28.655  0.1683  0.0633 -0.1017
71691W        W14682  27.249   9.220  16.904 -0.1627  0.0067  0.3346
71692W        W14683  27.627  16.727  23.865 -0.1583  0.3537  0.3503
71693W        W14684   1.509  20.220  22.589  0.0024  0.0978  0.3850
71694W        W14685  18.734  28.414   9.496  0.1383  0.3956  0.0166
71695W        W14686   6.679   9.244  18.930  0.1076 -0.0823 -0.1248
71696W        W14687  16.846   4.034   4.930  0.3560  0.1452 -0.0339
71697W        W14688  10.586  12.487  20.088 -0.1946 -0.1793  0.0946
71698W        W14689  17.262   7.467  26.691 -0.3598  0.2492 -0.2694
71699W        W14690  30.757  14.636   2.188 -0.1011 -0.2489  0.2000
71700W        W14691  10.875  27.408  16.381 -0.3078 -0.0966  0.0067
71701W        W14692  10.162  11.980   7.405 -0.0922 -0.0180 -0.0640
71702W        W14693  13.290  28.883  21.131  0.2629 -0.0464 -0.1025
71703W        W14694  14.378  30.417   4.364 -0.0884  0.1543 -0.1528
71704W        W14695  12.451  27.490  17.104 -0.3605 -0.2086  0.0267
71705W        W14696  19.711  17.528   3.877  0.1740 -0.0786  0.0538
71706W        W14697  23.222  25.730  17.898 -0.1198  0.3810  0.2286
71707W        W14698  14.327  21.269   1.075  0.0573 -0.0030  0.5542
71708W        W14699  27.260   5.685  16.728  0.1782 -0.2511  0.0282
71709W        W14700  20.276   7.634   7.118 -0.0070  0.0123 -0.0841
71710W        W14701  12.508  12.337  15.157 -0.2417  0.4398 -0.0706
71711W        W14702  13.065   6.409  23.150  0.0169 -0.0050 -0.0711
71712W        W14703   8.433   8.485  18.195  0.0069 -0.1682 -0.0795
71713W        W14704   6.286   1.040   6.358  0.1691 -0.1531 -0.2394
71714W        W14705  26.472  22.674  19.303 -0.4169 -0.1960  0.1427
71715W        W14706  29.723  22.898  23.798  0.0447 -0.0623 -0.0362
71716W        W14707  25.641   3.402  22.077 -0.2023  0.0722  0.3233
71717W        W14708  12.983  11.972  16.876 -0.2312  0.0645  0.1555
71718W        W14709  13.558  19.417   4.390  0.0819 -0.0126  0.3515
71719W        W14710  10.319   9.076  22.418  0.0067 -0.4474  0.3127
71720W        W14711  15.144  17.628  25.402 -0.1179  0.2359  0.1011
71721W        W14712  15.019  13.485  16.004 -0.2454 -0.0698 -0.1514
71722W        W14713  24.673  29.795   2.773  0.2298  0.0222  0.3343
71723W        W14714  24.370   3.259   2.092  0.0497 -0.0919  0.0325
71724W        W14715  12.654  29.862  28.174 -0.4274 -0.0385 -0.2112
71725W        W14716  18.882   8.037   3.115  0.0003  0.3504  0.1888
71726W        W14717  25.651   4.644  18.044 -0.0935 -0.0524 -0.1050
71727W        W14718  13.934  17.007   9.001  0.1037  0.2229  0.2181
71728W        W14719   8.752  32.035  26.076  0.0326 -0.2299  0.1443
71729W        W14720  10.229  12.236  18.522 -0.0051 -0.1598 -0.0730
71730W        W14721  33.968   9.378  19.745  0.1616 -0.0586  0.1649
71731W        W14722   7.207  10.822  18.645 -0.0074 -0.1926 -0.0249
71732W        W14723  11.293  14.629   5.857 -0.0984 -0.1405 -0.1841
71733W        W14724  14.715  13.450  28.261  0.0990  0.1814  0.0249
71734W        W14725  11.748  28.604  16.409  0.0473  0.0465 -0.0941
71735W        W14726  34.439   9.678   4.709  0.0583 -0.1751  0.1852
71736W        W14727  25.412   1.190  28.306  0.1722  0.1028  0.0157
71737W        W14728  21.090  17.585   4.165  0.0599 -0.1042  0.2657
71738W        W14729  23.069   6.731  14.735  0.0734 -0.1096 -0.1429
71739W        W14730  18.819  12.750  15.971  0.0558 -0.0510 -0.4320
71740W        W14731  21.568   4.535  23.406 -0.2611 -0.1871  0.2298
71741W        W14732   9.392   8.269   2.372  0.0772 -0.0107  0.1435
71742W        W14733  16.246   3.924  25.177  0.2609 -0.3527 -0.1331
71743W        W14734  13.175  14.344  25.285 -0.1177 -0.1090  0.3140
71744W        W14735  16.176  11.539  27.743 -0.2629  0.1005  0.4283
71745W        W14736  25.639  29.995   5.476  0.1428  0.3542  0.2446
71746W        W14737  31.162  12.470  20.786  0.1334 -0.0347  0.3656
71747W        W14738   8.435  31.317  16.536  0.0974  0.2789  0.0136
71748W        W14739  20.068   2.031  12.910  0.0186 -0.0822 -0.2494
71749W        W14740   5.142   4.272  19.785  0.2523  0.0152 -0.0289
71750W        W14741   8.151   9.452  16.634 -0.1115  0.0240  0.3031
71751W        W14742  23.400   8.108  25.820 -0.0967 -0.1487  0.1153
71752W        W14743  22.971  12.918   4.412  0.1841  0.1683  0.1381
71753W        W14744  27.227  33.561   0.245  0.2914 -0.0262  0.0763
71754W        W14745  29.771  17.239   2.652 -0.0156  0.0100  0.0591
71755W        W14746  22.656  27.413  16.754 -0.0132 -0.1210 -0.0359
71756W        W14747  20.999   3.692  24.291 -0.0728 -0.0120 -0.2044
71757W        W14748  24.903   1.667  12.660  0.0741  0.0599  0.3078
71758W        W14749  13.855  16.438  26.860 -0.1066  0.1187  0.4530
71759W        W14750  31.226  30.191  23.694  0.2036 -0.1163 -0.0081
71760W        W14751  13.683   9.166  17.009  0.0539  0.0578  0.4236
71761W        W14752  14.516   3.064  16.501 -0.1486 -0.1407 -0.2761
71762W        W14753  21.108  15.733  28.067 -0.0072  0.2557  0.2055
71763W        W14754  30.120  14.196  19.633 -0.0149 -0.1299 -0.0540
71764W        W14755  32.683  29.313  29.093 -0.1928  0.0994 -0.1522
71765W        W14756  26.821  10.734  21.441  0.0282  0.0565  0.0896
71766W        W14757  11.099   2.751  20.160  0.2036  0.0552  0.2391
71767W        W14758  14.077  15.409   9.846 -0.1895  0.0961  0.2234
71768W        W14759  25.983   9.326  14.921  0.0214  0.1157 -0.0427
71769W        W14760  22.727   4.529  15.303  0.1094  0.0709  0.0168
71770W        W14761  13.791  12.332  26.850  0.4249 -0.0759  0.0684
71771W        W14762   3.888   8.849   5.248  0.2018 -0.1289 -0.1266
71772W        W14763  12.630  16.850  23.691  0.0494  0.1019  0.0937
71773W        W14764  14.798   9.235  28.042  0.0971  0.0387  0.0096
71774W        W14765  14.921  34.434  22.303 -0.0033 -0.0916 -0.0661
71775W        W14766  22.156   5.058  21.918  0.3676 -0.1978 -0.1250
71776W        W14767  23.209   1.486  27.549 -0.0120 -0.2911  0.0824
71777W        W14768  27.599  17.001  25.285  0.1316  0.0605 -0.1105
71778W        W14769  10.435  16.693  28.330  0.2287 -0.0896  0.0750
71779W        W14770   7.283  11.326  17.086 -0.0526  0.0090  0.0544
71780W        W14771  21.589  13.209  19.505 -0.3485 -0.0709 -0.1817
71781W        W14772   6.928   2.343  26.938 -0.1529 -0.4357 -0.2266
71782W        W14773  21.041   6.054  18.555 -0.1067  0.4145  0.0361
71783W        W14774  31.199  16.203  24.028 -0.4103 -0.0267 -0.3644
71784W        W14775  33.652  17.152   2.964 -0.0354 -0.0069 -0.1793
71785W        W14776   5.655  19.252  19.180  0.0782  0.0919 -0.2327
71786W        W14777   0.100  14.039   6.408 -0.3442  0.0633 -0.0216
71787W        W14778  20.960  11.516   2.306 -0.0588  0.0058 -0.1112
71788W        W14779  14.300   3.935  17.995 -0.1231 -0.1355 -0.0952
71789W        W14780  18.426  24.383  19.092 -0.1017  0.0115  0.2889
71790W        W14781  12.665  30.999  18.415  0.2102  0.0026  0.0573
71791W        W14782  12.379  34.081  25.560 -0.2240 -0.5376 -0.3430
71792W        W14783  18.592   0.149   8.700  0.2265  0.0974 -0.1151
71793W        W14784  16.340  29.087   2.362  0.0921  0.0240 -0.2797
71794W        W14785  23.821  28.448  19.195  0.0639  0.4280  0.0101
71795W        W14786   9.288   5.652  15.947 -0.1500 -0.4770 -0.0780
71796W        W14787  12.580   7.080  10.804 -0.0558 -0.2611 -0.2244
71797W        W14788  10.385  24.394   0.424 -0.0789  0.2812 -0.0751
71798W        W14789  18.062   8.943  22.460  0.2659 -0.0891  0.0898
71799W        W14790  23.016  11.445   8.216 -0.0765  0.0813 -0.0556
71800W        W14791  19.664   3.866  27.255 -0.2190 -0.0916  0.0320
71801W        W14792  26.650   5.215  22.429  0.0943 -0.1229  0.1188
71802W        W14793  23.867  26.433  16.175  0.0151 -0.1342  0.1622
71803W        W14794  19.655  13.725  28.054  0.0325 -0.1750  0.3285
71804W        W14795   2.220   3.437  24.351  0.1500  0.1891  0.0370
71805W        W14796  21.372   9.664  16.351 -0.1436  0.4126  0.0806
71806W        W14797  20.131   9.195  21.888  0.2430 -0.0865  0.1594
71807W        W14798  30.767  25.389  22.241 -0.0306 -0.4045  0.1407
71808W        W14799  24.596   1.141   7.537  0.3898 -0.1649 -0.1714
71809W        W14800   8.530   3.847  22.163  0.0384  0.0097  0.0643
71810W        W14801  21.353   3.949  22.693  0.3267  0.0438  0.0659
71811W        W14802   8.917   4.446   7.364  0.2640 -0.0445 -0.1127
71812W        W14803  14.831  32.080  27.469 -0.0475 -0.0451  0.1495
71813W        W14804  17.630  20.262   5.215 -0.3440 -0.2030 -0.1224
71814W        W14805  29.938   6.228   3.590 -0.1389  0.2405  0.1273
71815W        W14806  13.581   1.348  23.593  0.1278  0.1520 -0.3683
71816W        W14807  14.548  10.130  27.299  0.3047 -0.3176 -0.1077
71817W        W14808  25.285  13.997  17.503  0.0193  0.2401  0.2309
71818W        W14809  22.269   4.955   3.622  0.3766  0.0857  0.2189
71819W        W14810  34.584  14.337  23.993 -0.0755 -0.0153 -0.2441
71820W        W14811  24.578  25.971  22.738 -0.3080  0.2093 -0.1119
71821W        W14812  16.777  34.074  15.813  0.4317 -0.4306  0.0956
71822W        W14813   3.526   3.217   3.842  0.2354 -0.2667 -0.2200
71823W        W14814   8.554   9.173   5.771  0.1152 -0.1288  0.1349
71824W        W14815  11.086  12.576   9.138  0.2150  0.0117 -0.2028
71825W        W14816  17.322  13.813   8.512  0.0161 -0.1268 -0.0381
71826W        W14817  12.927  21.470  23.708 -0.0624  0.1641 -0.2717
71827W        W14818  10.194  34.256   6.015 -0.3005  0.1711 -0.2334
71828W        W14819  15.481   6.874  24.747 -0.1281 -0.1440  0.0160
71829W        W14820  14.769  22.873   7.273  0.2425 -0.3439 -0.1049
71830W        W14821  24.734   1.469  25.763 -0.0232  0.1852  0.0950
71831W        W14822  11.790   7.655   2.788  0.2150  0.0596 -0.0098
71832W        W14823  20.799  29.131  21.499  0.0608 -0.2666  0.3014
71833W        W14824  14.045  34.239   6.277 -0.0816  0.1787  0.0483
71834W        W14825  19.989  11.782  27.154  0.0937 -0.0551  0.3330
71835W        W14826   0.682  10.147  20.770 -0.3348  0.0636 -0.1318
71836W        W14827   3.902  21.226   5.495  0.0275  0.1756 -0.3192
71837W        W14828  28.322   4.179  15.258 -0.1637 -0.1175  0.2902
71838W        W14829  16.168   5.529   0.530 -0.0291 -0.2628 -0.0254
71839W        W14830   0.146  16.496  27.853 -0.3151  0.1477  0.3095
71840W        W14831  13.833  13.039  23.895  0.5623 -0.3051  0.0405
71841W        W14832  29.149   6.749   1.804 -0.1702 -0.0727 -0.2202
71842W        W14833  15.670  13.116  17.526 -0.0627 -0.2498 -0.3905
71843W        W14834  25.788   2.646  27.009 -0.1370 -0.0057  0.4344
71844W        W14835  22.129   4.648   8.644  0.2591 -0.0659 -0.0894
71845W        W14836  19.415   8.071  25.682 -0.1951  0.2167  0.0168
71846W        W14837  20.230   5.902  15.764 -0.0713  0.1130 -0.0590
71847W        W14838  17.027   3.767  21.085 -0.0440  0.0410  0.1014
71848W        W14839  32.467  15.916   4.415 -0.1686 -0.0048 -0.1255
71849W        W14840  15.142  24.584  16.645  0.3889 -0.0693 -0.1535
71850W        W14841  18.187  21.651   0.992  0.1086 -0.0516 -0.1519
71851W        W14842   6.680  28.604  14.419 -0.0159 -0.1193  0.2929
71852W        W14843  29.221   5.055  22.537  0.0038  0.2189  0.2694
71853W        W14844  16.575   4.393   3.776  0.1597 -0.1063 -0.0358
71854W        W14845  16.868  12.819  20.556  0.1054 -0.0208 -0.1132
71855W        W14846   7.025   8.781  20.120  0.2061  0.0652 -0.1526
71856W        W14847  21.691  11.411   9.704  0.0519  0.2782 -0.3302
71857W        W14848  12.938  20.856   7.526  0.1246 -0.0713  0.1500
71858W        W14849  28.782   7.930  20.086  0.2839  0.0348  0.0695
71859W        W14850  31.689   9.896  17.000  0.1419 -0.0018  0.5989
71860W        W14851  19.882  26.466   0.831  0.1038 -0.0304  0.0075
71861W        W14852  19.074  31.370  22.808 -0.1331  0.3390 -0.4918
71862W        W14853   6.824   9.195  19.886  0.3012 -0.1017  0.2802
71863W        W14854  31.696  25.625   0.561  0.1466 -0.0427 -0.3788
71864W        W14855   5.844   0.893  26.545 -0.1774 -0.2136  0.0427
71865W        W14856   1.715  22.233  19.432  0.0055 -0.2282  0.0856
71866W        W14857  20.205   1.691  18.751  0.3025  0.0407  0.0609
71867W        W14858  28.942  31.116   2.662 -0.0685 -0.0344 -0.3198
71868W        W14859  25.789   4.926  17.235  0.4254  0.0727 -0.2398
71869W        W14860  23.084  31.787  26.379  0.2401 -0.3513  0.2984
71870W        W14861  24.737   3.590  14.659  0.1435 -0.0892 -0.0319
71871W        W14862  33.415  11.879  17.535  0.0511 -0.1445 -0.0632
71872W        W14863   5.235  16.321  19.927  0.0494 -0.1444  0.3108
71873W        W14864  14.136   7.826  27.648 -0.0162  0.0314  0.1179
71874W        W14865  12.033   5.774  26.881 -0.0040 -0.3388 -0.1038
71875W        W14866   4.782  11.687  22.867  0.2824  0.1115  0.0703
71876W        W14867  20.789   3.947  18.787  0.1786  0.0957  0.0932
71877W        W14868   7.636   4.194  22.583  0.0500  0.1344 -0.2284
71878W        W14869  15.915  21.584  25.851 -0.0309  0.0004 -0.1583
71879W        W14870   3.465   8.626  29.014  0.1298 -0.4449  0.0598
71880W        W14871  33.039  13.875  19.088  0.0556  0.1293  0.0763
71881W        W14872  24.690  19.312  15.221 -0.1214 -0.4135  0.3746
71882W        W14873  18.248  26.207  18.460  0.0724  0.4168  0.2916
71883W        W14874  23.010  30.541   3.568 -0.2562 -0.3656  0.0078
71884W        W14875  24.558  32.211  19.640  0.0238  0.0154  0.1172
71885W        W14876  32.227   9.332  27.411 -0.0520  0.0474 -0.0562
71886W        W14877   0.460   3.107   6.250  0.2970  0.1000 -0.1265
71887W        W14878  28.726  20.463  23.530 -0.2853  0.4318 -0.0410
71888W        W14879  27.684  11.998  19.080 -0.0094 -0.1455  0.2346
71889W        W14880  19.421   4.546  27.820  0.2216 -0.3060  0.1108
71890W        W14881  11.248  16.361  16.874 -0.2548 -0.0899  0.0192
71891W        W14882   2.650   7.963   7.907  0.3619 -0.2151 -0.1426
71892W        W14883  16.575  25.468  20.117 -0.1134 -0.2464  0.0913
71893W        W14884  22.791  18.096  16.866 -0.0116 -0.0050 -0.2483
71894W        W14885  11.604  32.499  17.503 -0.0017  0.1589  0.2550
71895W        W14886  26.758   5.743  27.163  0.0274 -0.0050 -0.1682
71896W        W14887  27.700   3.791   9.485 -0.0643 -0.1654  0.3567
71897W        W14888  16.533  22.217  26.082  0.0262  0.0533  0.2806
71898W        W14889  14.011   7.329  24.126 -0.0272 -0.0936 -0.1211
71899W        W14890  12.513  15.168  22.968  0.0319  0.1773  0.2394
71900W        W14891  21.290  33.371  14.341 -0.0649 -0.1838  0.0950
71901W        W14892   4.146   7.101  14.746 -0.1035 -0.2393 -0.1683
71902W        W14893   4.251  13.161  25.877 -0.0336 -0.2677  0.4765
71903W        W14894  10.031  32.362  15.907 -0.3555 -0.1209 -0.3275
71904W        W14895  28.527  14.250  19.840 -0.0562 -0.1035 -0.3562
71905W        W14896  15.200  11.579  15.297  0.0663 -0.1734  0.0497
71906W        W14897  25.538   5.880  15.257  0.1235  0.3287 -0.0879
71907W        W14898  17.962  13.657  15.248  0.0730  0.1138  0.2005
71908W        W14899  22.783  21.674  18.790  0.2439  0.2966  0.1229
71909W        W14900   2.173  20.895  22.731 -0.0116 -0.1378  0.1947
71910W        W14901   1.686   7.939  18.741 -0.5187 -0.0399 -0.1498
71911W        W14902  29.785   0.039  21.467 -0.0474  0.0812  0.2306
71912W        W14903  24.035  12.598  24.912 -0.1721  0.3404  0.1265
71913W        W14904  17.911   7.476   8.705 -0.1325  0.0261  0.0041
71914W        W14905   6.432  12.178   5.828  0.1239 -0.0534 -0.0927
71915W        W14906  21.533  15.179   0.907 -0.3165 -0.0785  0.0042
71916W        W14907  23.677  10.343  20.169 -0.0063 -0.1821 -0.2809
71917W        W14908  29.170   7.535  27.166  0.1725 -0.1545 -0.2949
71918W        W14909  30.434   2.176  20.869 -0.2331  0.2138  0.2864
71919W        W14910  34.192   1.409   4.618 -0.3692 -0.1021  0.1356
71920W        W14911  17.461   2.745  27.038 -0.0627  0.1094 -0.1214
71921W        W14912  26.168  15.072  16.593 -0.0370 -0.2413 -0.1214
71922W        W14913  16.542   2.658   3.468  0.0478  0.0600  0.2650
71923W        W14914  33.135   7.954   0.022  0.1553  0.0250  0.1233
71924W        W14915  19.675  13.022  14.149 -0.0749 -0.1758  0.3799
71925W        W14916   9.412   2.549  21.082  0.0111  0.0154 -0.1720
71926W        W14917  26.890  14.064  26.286  0.0609 -0.1344  0.2245
71927W        W14918  26.193   9.403   9.200 -0.0012  0.2779 -0.0528
71928W        W14919   9.096   5.327  18.659 -0.0410  0.2003 -0.1478
71929W        W14920  14.900  23.649   1.143 -0.2060  0.0493  0.0006
71930W        W14921  32.205   7.850  20.391 -0.0892  0.3726 -0.2823
71931W        W14922  12.324   4.038   6.314  0.2826 -0.2204  0.1405
71932W        W14923  25.018  14.124   0.760 -0.2418 -0.0035  0.1017
71933W        W14924   2.029  24.274   4.266  0.2465 -0.0781 -0.1906
71934W        W14925  24.308   5.180   4.064  0.0806  0.1678 -0.1300
71935W        W14926   2.818  12.175  17.118 -0.0369 -0.0259 -0.0194
71936W        W14927   6.371  10.342   7.571 -0.1261  0.0291  0.1945
71937W        W14928  16.620   9.409  15.746 -0.0467 -0.1033 -0.1127
71938W        W14929   3.164   2.443  20.026  0.3083 -0.2041 -0.0819
71939W        W14930  25.464  21.947  16.070 -0.0380  0.0677 -0.3149
71940W        W14931  11.155  23.282  15.607  0.2924 -0.0839 -0.0805
71941W        W14932  32.915   4.665  16.083 -0.1828  0.0777  0.0354
71942W        W14933  31.236  13.220  14.821  0.0802  0.1076  0.3660
71943W        W14934  22.927  14.504  23.781 -0.0723  0.0524 -0.2457
71944W        W14935  20.116   6.352  18.208 -0.0538  0.1080  0.0103
71945W        W14936  12.785  17.132   6.031  0.0306  0.0816  0.3330
71946W        W14937   9.308   9.002  21.857  0.1463  0.1666  0.0769
71947W        W14938  17.754   2.916  26.497  0.2642 -0.0439  0.2033
71948W        W14939   4.861   3.656   3.641 -0.0739 -0.0496 -0.0851
71949W        W14940  19.046  20.865  22.051 -0.2423  0.1327 -0.2879
71950W        W14941  25.115  30.102  26.651 -0.0924 -0.0521 -0.1763
71951W        W14942  22.376   2.557  27.097 -0.0340 -0.0000  0.1301
71952W        W14943  20.346  23.205  20.388 -0.2671  0.0901 -0.2342
71953W        W14944  20.999  12.977  20.429  0.0485 -0.2298  0.0495
71954W        W14945  13.608   9.456  16.072  0.1074  0.1818 -0.0154
71955W        W14946  18.441  11.073  21.057 -0.1030 -0.0841  0.1997
71956W        W14947  19.859  14.132   1.679 -0.2304  0.1380 -0.1953
71957W        W14948  11.636   8.075  15.208 -0.1504  0.0862  0.0377
71958W        W14949  27.952  16.473  29.163 -0.0939  0.1164 -0.2242
71959W        W14950   9.569  26.310   3.315  0.0319 -0.0660 -0.2254
71960W        W14951  15.595   4.560  18.279  0.2938  0.0418 -0.0279
71961W        W14952   8.846   5.454  17.122 -0.0945 -0.0284  0.0918
71962W        W14953  22.067   1.092  27.744 -0.1571 -0.1339  0.4644
71963W        W14954  17.067  25.288   4.223  0.0169  0.2494 -0.1389
71964W        W14955   6.414  32.822  26.361  0.2678  0.1456 -0.0654
71965W        W14956  14.253   5.615   1.325  0.0326 -0.0464 -0.1975
71966W        W14957  23.547  20.835  18.066 -0.0543 -0.2262  0.0850
71967W        W14958  24.871  14.428  24.267  0.1486  0.2599 -0.0614
71968W        W14959  23.929   8.384  16.543  0.0582  0.1930 -0.1014
71969W        W14960  24.213  10.977  14.676 -0.2421  0.0833  0.1859
71970W        W14961   9.011  14.329  23.648  0.0953  0.0810 -0.1989
71971W        W14962   6.182  33.501  29.184 -0.1151 -0.0104  0.0523
71972W        W14963  14.348   3.999   6.365 -0.2236  0.4140  0.2083
71973W        W14964  11.041   4.443   2.728  0.3809  0.2727  0.3792
71974W        W14965  22.517  25.407  24.852  0.1812 -0.1747  0.1076
71975W        W14966  10.282  28.412  18.247 -0.2411  0.4217 -0.3023
71976W        W14967  23.912  26.466  15.042 -0.0588 -0.0362  0.2130
71977W        W14968  19.282  27.911  24.016 -0.0603  0.1999  0.0597
71978W        W14969  19.478   9.407  26.980 -0.4564 -0.2159  0.0239
71979W        W14970   9.592  26.249  22.891  0.1724 -0.1383  0.0196
71980W        W14971  22.416   6.559  14.151  0.1856  0.0020 -0.0722
71981W        W14972  25.679  30.330  28.451  0.4053  0.1564  0.2535
71982W        W14973   7.944  20.779   1.686 -0.5126  0.0157  0.1917
71983W        W14974  34.757  29.149  24.999  0.0678 -0.2227 -0.0507
71984W        W14975  23.518  24.018  25.813 -0.1431 -0.0374  0.1712
71985W        W14976  19.717   6.450  21.035 -0.0136 -0.2531  0.0415
71986W        W14977   7.544  33.379  24.078  0.2051 -0.0653 -0.0535
71987W        W14978  20.277  19.797   1.991  0.1777  0.2966  0.1909
71988W        W14979  17.085  12.664  15.472 -0.3921 -0.2502 -0.1582
71989W        W14980   9.820   3.551   1.699  0.3137  0.0129  0.1234
71990W        W14981   1.640  15.399  22.995 -0.1509  0.1607  0.2281
71991W        W14982  28.034   5.862  17.887  0.0284 -0.0325  0.0350
71992W        W14983  12.613  11.768  17.274 -0.3529  0.0269  0.1181
71993W        W14984   2.306   9.355  20.812 -0.1107 -0.2368  0.0845
71994W        W14985  34.735   3.803   2.493 -0.0278 -0.2268 -0.0795
71995W        W14986  12.283  22.304   2.695  0.0608 -0.0148  0.0207
71996W        W14987   9.118   8.755  22.757 -0.3158 -0.0726 -0.2192
71997W        W14988  20.812  25.661   4.629 -0.0187 -0.1981 -0.0195
71998W        W14989  21.714   6.457  13.720 -0.0752 -0.4097 -0.2558
71999W        W14990   4.846  31.852  27.356  0.0157  0.1422 -0.0472
72000W        W14991  14.182  16.597   4.579 -0.1716 -0.1760 -0.1420
72001W        W14992  12.376  30.231  26.639 -0.0143 -0.2664  0.2452
72002W        W14993  17.486   4.768   7.859 -0.1724 -0.1594 -0.0247
72003W        W14994  22.262  22.127  23.752 -0.2812 -0.0434 -0.1082
72004W        W14995  17.243  14.824  24.208  0.1366 -0.1002 -0.3778
72005W        W14996  22.633  12.798   3.439 -0.2455 -0.2468 -0.0816
72006W        W14997  31.475  16.828   3.537  0.2773  0.0028  0.1527
72007W        W14998  12.972   5.885  23.246  0.3071  0.4394 -0.0069
72008W        W14999  22.235  20.055  16.362  0.0497  0.0107  0.0973
72009W        W15000  25.805   8.711  24.212  0.0421 -0.1469  0.3129
72010W        W15001  18.201   1.043  24.601 -0.2432  0.1609  0.0081
72011W        W15002  20.671  25.186  19.674 -0.1728  0.0431 -0.3093
72012W        W15003  32.845  22.631  18.551  0.0507 -0.2459  0.2834
72013W        W15004  22.660   7.545  15.138 -0.0867  0.0166  0.5053
72014W        W15005   5.057  24.165   1.020  0.2534  0.0738 -0.1721
72015W        W15006  33.120   9.695  28.274 -0.1516 -0.2672 -0.0065
72016W        W15007  16.319   5.952  18.957  0.2007  0.2149 -0.0838
72017W        W15008  23.344  10.208   1.624  0.2750 -0.2973 -0.1124
72018W        W15009  28.328   5.020  25.963  0.4135 -0.4266  0.1916
72019W        W15010   2.503   1.409   2.173 -0.0550 -0.0151 -0.2002
72020W        W15011  11.302   1.020   5.365  0.3475 -0.2384  0.1991
72021W        W15012   5.150  23.409  23.024 -0.0949 -0.0914 -0.1117
72022W        W15013  15.632   8.304  26.510  0.0315 -0.1228 -0.0505
72023W        W15014   9.499  13.953  27.530  0.1232 -0.1825  0.2183
72024W        W15015  10.955  27.703   5.262 -0.2849 -0.0238 -0.0889
72025W        W15016  28.787   6.352   9.702 -0.0750 -0.0034  0.3692
72026W        W15017   9.274   1.808   6.378  0.1821  0.0375 -0.0822
72027W        W15018   1.305  33.098  16.525 -0.1035 -0.0502  0.2808
72028W        W15019  17.011  16.129   3.233  0.4971 -0.0779 -0.0964
72029W        W15020   9.828  20.836   8.034 -0.1386  0.0059 -0.3915
72030W        W15021  11.968   5.798  23.180  0.1746  0.1551 -0.3348
72031W        W15022  27.686  12.876   0.715 -0.1097 -0.2034 -0.1810
72032W        W15023   7.537  32.532   0.445  0.0479  0.0903  0.1214
72033W        W15024  19.092  33.424  24.401  0.1389 -0.0172 -0.2799
72034W        W15025  26.681  32.451  20.401  0.0627 -0.2534  0.0248
72035W        W15026  25.120  28.948  26.799 -0.2514 -0.1510 -0.0862
72036W        W15027  30.211  17.378   0.611  0.0024 -0.0507  0.1441
72037W        W15028  12.032  14.086   0.023 -0.1299 -0.1194 -0.0725
72038W        W15029  24.616  11.529  17.741  0.2754  0.2592 -0.1487
72039W        W15030   8.615   8.719  25.748  0.2305  0.1871  0.1527
72040W        W15031  31.333  33.384  24.107 -0.1828 -0.3699 -0.3211
72041W        W15032  28.188   7.135  13.001  0.3372  0.0885  0.3482
72042W        W15033   9.211  34.494  27.265  0.1728 -0.0096 -0.3090
72043W        W15034   7.421  13.179  24.010 -0.5266  0.2341  0.1918
72044W        W15035  28.942  12.854  10.140  0.2543 -0.0520 -0.0434
72045W        W15036  20.928  10.395   3.958  0.0093  0.1765 -0.1971
72046W        W15037  11.756   6.353  28.457  0.3479  0.1036  0.2199
72047W        W15038  13.376  24.059  24.509 -0.1687  0.0090  0.1063
72048W        W15039  11.162  18.137   4.168 -0.0425 -0.1843  0.0530
72049W        W15040  25.541   8.960  24.791 -0.1012  0.2756 -0.3488
72050W        W15041  25.810  11.497  20.507 -0.0764  0.3221 -0.2371
72051W        W15042   8.730  30.607   5.915 -0.0803  0.2355 -0.2710
72052W        W15043   6.428   3.732   9.095 -0.7071 -0.0255 -0.0956
72053W        W15044  16.294   7.334   9.801 -0.1164 -0.1456 -0.2139
72054W        W15045  17.345  31.460  13.659 -0.1595  0.0003 -0.1310
72055W        W15046  31.164  15.737   2.143  0.2963  0.0034 -0.2136
72056W        W15047   7.111   8.479   9.838 -0.3019 -0.0827  0.2388
72057W        W15048  16.375   8.125   3.019  0.0435 -0.0971 -0.1062
72058W        W15049   3.237   8.756  21.656  0.1847 -0.1345  0.1067
72059W        W15050  13.403   6.327   2.329  0.2183 -0.1047 -0.1173
72060W        W15051   1.835  14.629   9.860  0.3256 -0.1764 -0.0499
72061W        W15052  17.278  14.025  22.344 -0.1925  0.0122  0.1160
72062W        W15053  17.917   6.713  14.010  0.0190  0.0664  0.0846
72063W        W15054  12.297   4.063  27.697  0.0294  0.0093 -0.1004
72064W        W15055  21.260   4.524  22.930  0.1631  0.1741 -0.0230
72065W        W15056  17.661  30.488   9.583 -0.1126 -0.0560  0.1232
72066W        W15057  22.213   6.071   5.475 -0.1535  0.3810 -0.1041
72067W        W15058  24.725  16.179   6.660  0.1528 -0.0192 -0.1207
72068W        W15059   9.125   9.531   1.022  0.1767  0.2918 -0.0092
72069W        W15060  12.916  13.513   2.658 -0.1679  0.2868 -0.0652
72070W        W15061  23.418  26.770   9.086 -0.0559  0.0917  0.1782
72071W        W15062  22.243  30.376  20.826  0.1850 -0.0432  0.1019
72072W        W15063  14.193   3.040  20.173  0.3138 -0.0339  0.2088
72073W        W15064   1.919   7.595  15.442  0.2580 -0.1513  0.3506
72074W        W15065  28.722  34.281  24.210 -0.1404 -0.0666 -0.3282
72075W        W15066  12.780   9.174  23.497 -0.0080  0.2434  0.3853
72076W        W15067  29.344  34.499   4.758 -0.0077 -0.1676  0.0836
72077W        W15068  13.842  29.989   9.830 -0.0838 -0.2248 -0.3141
72078W        W15069  14.564   5.028  16.541 -0.0779  0.1235 -0.0991
72079W        W15070  32.892   0.741   4.001 -0.0061  0.0366  0.0858
72080W        W15071  21.583   0.615  28.852  0.0619 -0.1206 -0.0148
72081W        W15072  19.908  31.813   5.348 -0.3084 -0.2940 -0.4132
72082W        W15073  20.509  23.289   7.314 -0.1264  0.1205  0.0129
72083W        W15074   5.361  12.187   1.836 -0.1800  0.1687 -0.1398
72084W        W15075  22.534  21.323  13.047 -0.1219  0.1354  0.0396
72085W        W15076   0.781   6.125   5.831 -0.2702  0.0611  0.0014
72086W        W15077  32.626  10.042  23.335 -0.1637  0.0017 -0.1991
72087W        W15078  14.686   7.649   6.649 -0.1942  0.0629  0.0666
72088W        W15079  22.021  14.081   2.959 -0.1090  0.0779  0.1086
72089W        W15080  20.110  15.546  24.267 -0.4146 -0.0860  0.3201
72090W        W15081  26.101   0.376  19.985  0.2015  0.0452  0.4759
72091W        W15082   6.203  18.391   9.794 -0.0457 -0.1053  0.1161
72092W        W15083  12.677   6.767   3.401 -0.1030  0.0476  0.0385
72093W        W15084  14.301   6.178   1.186  0.1582 -0.2852 -0.0754
72094W        W15085  12.502  21.153   3.277  0.6080 -0.1395 -0.1045
72095W        W15086  14.771  16.284   9.348 -0.0999  0.1364  0.0179
72096W        W15087  26.223  11.952  25.240 -0.0903 -0.0431 -0.0627
72097W        W15088  33.961  13.516   7.785 -0.1507 -0.3490  0.0335
72098W        W15089   5.155   1.424  17.902 -0.2462  0.0303  0.2556
72099W        W15090  25.298  10.955  24.058  0.0382 -0.1556  0.0083
72100W        W15091   5.511  20.590   1.063  0.0905 -0.2397 -0.1299
72101W        W15092   8.588   0.089  28.320 -0.2195 -0.2696 -0.1255
72102W        W15093  19.465  14.630  26.371 -0.3445  0.0327 -0.0683
72103W        W15094  30.721  13.198   8.241  0.0626  0.2046 -0.0522
72104W        W15095  19.689  12.656   3.514  0.1033  0.2003 -0.0183
72105W        W15096  25.421   2.686   6.280  0.1667 -0.0365 -0.1124
72106W        W15097   8.556   8.843  22.992  0.2155  0.0814  0.2617
72107W        W15098   1.842  10.499  28.467 -0.0786 -0.0616  0.1639
72108W        W15099  15.502  13.833   3.513  0.1700 -0.0942 -0.1428
72109W        W15100  21.874  14.006  27.868 -0.2637 -0.1359 -0.1222
72110W        W15101  21.281  11.791  28.095  0.5123 -0.1412  0.0460
72111W        W15102  28.160   1.377  28.246 -0.2084  0.0803 -0.1236
72112W        W15103   6.426  31.155   3.072 -0.0709 -0.1294  0.0839
72113W        W15104  31.835  25.774  27.742  0.1503 -0.0055  0.0612
72114W        W15105   4.410  12.193   1.396 -0.0248 -0.1515 -0.0746
72115W        W15106  14.049  15.854   7.974 -0.1590 -0.2052 -0.1162
72116W        W15107  15.576   9.267  20.694 -0.0855 -0.3208  0.2286
72117W        W15108  30.314  17.642   6.765 -0.3537  0.0492  0.0886
72118W        W15109  16.912  31.109  24.476 -0.0791  0.0634  0.0215
72119W        W15110   2.731  24.252  24.578  0.3380  0.2952 -0.2812
72120W        W15111  22.236  16.846  14.887  0.1063  0.3512  0.0796
72121W        W15112  18.821   5.571  20.335  0.0522 -0.0625 -0.1189
72122W        W15113  27.862   7.460  19.778 -0.1662 -0.2807 -0.0710
72123W        W15114   9.695   6.412  15.393  0.0382 -0.1942 -0.1313
72124W        W15115   1.388  10.929   4.141 -0.2621  0.0183 -0.1212
72125W        W15116  21.024  10.766   6.260  0.0751  0.0145  0.0214
72126W        W15117   9.385   2.624  14.752 -0.3724 -0.1162 -0.2084
72127W        W15118  29.099  19.531   4.231 -0.0557 -0.0821  0.0164
72128W        W15119  32.468   6.087   1.165  0.3444 -0.1115 -0.0666
72129W        W15120  10.324  33.030  23.041  0.2560 -0.0456  0.1401
72130W        W15121  21.665  34.258   1.248 -0.4120  0.0636  0.0054
72131W        W15122   5.592  30.958   8.696 -0.2231  0.0940 -0.1826
72132W        W15123  18.336  12.540   8.795  0.1746  0.0605  0.0559
72133W        W15124  13.246  13.712  26.007 -0.0146  0.0856  0.0089
72134W        W15125  14.592  34.582  15.114 -0.1376  0.0010  0.0198
72135W        W15126  16.707  13.711   4.857  0.0370 -0.0203  0.1536
72136W        W15127  21.901  17.718  24.550 -0.1025 -0.0107  0.1606
72137W        W15128  29.579   3.956  22.177  0.0445  0.2060 -0.2831
72138W        W15129   7.262  29.504  28.554 -0.4333  0.2384  0.1767
72139W        W15130   7.336   0.704   4.945  0.0959 -0.2728  0.1644
72140W        W15131  26.013  22.455   2.321 -0.0146 -0.1440 -0.0141
72141W        W15132  23.970  13.743  23.799 -0.1473 -0.0107  0.0167
72142W        W15133  21.436   4.908  16.541  0.2021 -0.1577 -0.0630
72143W        W15134  12.735   1.492   3.443  0.1120  0.1852 -0.2564
72144W        W15135  30.329  15.978  19.523 -0.0532 -0.0054  0.4008
72145W        W15136  30.172  29.927   1.407 -0.0551 -0.1417  0.0586
72146W        W15137  10.463  10.308  18.027 -0.2144 -0.1517 -0.1674
72147W        W15138  19.454  30.173  28.008 -0.0887  0.0901 -0.1780
72148W        W15139  27.542  28.574  13.633  0.0561 -0.0515  0.1654
72149W        W15140  25.839   5.687  17.040  0.1928  0.2469  0.2256
72150W        W15141   0.566  16.393  16.985  0.0014 -0.2505 -0.2036
72151W        W15142   3.093   4.619   7.369 -0.2183  0.0351  0.1142
72152W        W15143  19.504  12.017  28.498  0.1676 -0.0257 -0.0789
72153W        W15144  18.932  13.003  17.447 -0.0053  0.3041  0.2396
72154W        W15145  23.701  11.132  19.013  0.2082 -0.3249 -0.0994
72155W        W15146  32.434   8.388   6.636 -0.1597  0.3756  0.4467
72156W        W15147  25.796  27.668  25.988  0.0892  0.0798  0.0668
72157W        W15148  16.143   5.855   7.772  0.0541  0.2823 -0.0817
72158W        W15149  22.328   2.047   2.352  0.0593 -0.2323  0.1699
72159W        W15150  13.961  11.234   5.688  0.1486  0.0340 -0.0310
72160W        W15151   7.011   2.069  23.282  0.1182 -0.0012  0.2282
72161W        W15152  26.641  30.175  22.289  0.1924 -0.3195 -0.1348
72162W        W15153   5.853  30.568  28.116  0.0547  0.1541  0.0767
72163W        W15154  28.572  21.697  13.898 -0.1366  0.0449 -0.0228
72164W        W15155  23.229  31.125   5.337  0.0886  0.1210 -0.0976
72165W        W15156  22.363  16.704  28.898 -0.1573  0.1032 -0.0986
72166W        W15157  18.096  13.140  13.070 -0.0584  0.1064  0.0952
72167W        W15158   8.452  24.374  23.847  0.3315 -0.1177  0.1035
72168W        W15159  18.153  13.016  13.625  0.0048 -0.1503 -0.2983
72169W        W15160  20.746  11.518  27.000  0.0502 -0.1950 -0.0328
72170W        W15161  22.245   2.669  18.327  0.1754  0.0468 -0.1295
72171W        W15162  11.421  24.882  14.640  0.1184  0.0164 -0.1749
72172W        W15163  20.146  34.478  28.311 -0.0735 -0.0517 -0.1263
72173W        W15164   3.644   8.726   1.858 -0.1421  0.1262  0.0193
72174W        W15165  28.267  24.160  26.081  0.1786  0.2261  0.1153
72175W        W15166  33.179  17.120  11.767  0.2938 -0.0319 -0.0315
72176W        W15167  12.770  10.697  28.612 -0.0425  0.2395  0.1572
72177W        W15168  23.692  11.860  10.258 -0.3032 -0.0369  0.0548
72178W        W15169   9.591   7.172   6.585  0.1268  0.1855  0.0067
72179W        W15170  11.444   1.495  24.983  0.0117  0.0800 -0.0777
72180W        W15171  26.111  22.397   8.123  0.0162  0.0640  0.3539
72181W        W15172  14.270  10.275  28.737 -0.2654 -0.2431  0.2936
72182W        W15173   4.596  25.228   9.338 -0.0823  0.0762 -0.0450
72183W        W15174   0.942  19.752  27.205  0.1554  0.0071 -0.2763
72184W        W15175  29.003  21.915   2.110 -0.2039 -0.0856  0.0918
72185W        W15176  13.024  11.241   5.743  0.1727  0.4444 -0.0667
72186W        W15177  28.025  11.060  25.245 -0.2004 -0.1046 -0.3008
72187W        W15178  23.189   9.399  19.631  0.0825 -0.0947  0.2407
72188W        W15179  31.444   4.525   0.711  0.5356  0.0166  0.1791
72189W        W15180  31.140  24.163  28.401 -0.0924  0.0272  0.0682
72190W        W15181  14.681  16.894   8.080 -0.0232  0.0977  0.0717
72191W        W15182  18.113   2.724  23.048 -0.0256  0.0038  0.1866
72192W        W15183  19.161  13.704  14.406  0.0390  0.1032  0.0094
72193W        W15184   7.732   4.731   9.934 -0.0112  0.1094  0.2230
72194W        W15185  20.194  30.112  16.531  0.0361 -0.1570  0.1380
72195W        W15186   7.534  12.146  22.688 -0.0906  0.2149 -0.0103
72196W        W15187  17.927   6.517  25.154  0.0819 -0.1003 -0.2498
72197W        W15188  15.735  11.093   2.446 -0.0352 -0.1213 -0.0091
72198W        W15189  15.430   9.828  24.311  0.1269  0.1496 -0.0179
72199W        W15190  15.137  25.799   5.404  0.1061 -0.1167  0.0408
72200W        W15191  18.051  13.855  20.301  0.1288 -0.1261  0.5102
72201W        W15192  12.324  11.346   7.814 -0.2685  0.2284  0.0001
72202W        W15193  13.246  27.809   1.086 -0.3969 -0.2724 -0.2872
72203W        W15194  26.168  34.621  13.647  0.0223  0.1919 -0.5134
72204W        W15195  22.079  34.521   1.276  0.0510  0.2392  0.2636
72205W        W15196  31.007  15.126  10.087 -0.0202  0.0125  0.3321
72206W        W15197  28.517  13.831  22.978 -0.1413 -0.0583  0.0467
72207W        W15198   5.058  27.207   1.976 -0.0088 -0.1353 -0.1535
72208W        W15199   6.743  33.385  27.745 -0.0168 -0.0944 -0.1365
72209W        W15200   2.230  26.863   4.038 -0.2625  0.1666  0.0864
72210W        W15201  26.311   3.167  21.287 -0.2022 -0.0865 -0.0769
72211W        W15202  17.056   3.939  18.646 -0.0985  0.2001  0.1669
72212W        W15203  10.698   4.218  14.982  0.1304  0.0242  0.0627
72213W        W15204  23.079  19.549  25.880 -0.3560 -0.3705 -0.0577
72214W        W15205  11.791   8.165  10.641  0.0289 -0.1752  0.1540
72215W        W15206  20.448   9.400  21.011 -0.1507 -0.2428  0.1678
72216W        W15207  23.182  13.131  26.646 -0.3659  0.3218 -0.1834
72217W        W15208  18.704   0.174  25.162  0.0139 -0.2883  0.3350
72218W        W15209  15.858   9.896  27.190  0.1855 -0.0102  0.0033
72219W        W15210  27.225   0.116   4.665 -0.2560  0.1724  0.1425
72220W        W15211  14.436  30.564  28.876  0.0270  0.2375  0.0801
72221W        W15212  13.901  26.591  20.520 -0.1412  0.2082  0.1156
72222W        W15213  24.606  10.986  16.332 -0.2303 -0.4717  0.0616
72223W        W15214  27.675  29.154  26.684  0.0477 -0.2566 -0.0761
72224W        W15215   5.910  27.187  23.830 -0.1067  0.0954 -0.0763
72225W        W15216  29.520  18.294  22.918  0.1828 -0.0931 -0.0376
72226W        W15217   9.738  14.998  10.511 -0.0873 -0.2678  0.4496
72227W        W15218   7.903  23.127  14.753  0.2660 -0.0038  0.2229
72228W        W15219   8.870  17.893   6.786 -0.0113  0.2028 -0.0915
72229W        W15220  33.035   7.590  17.068 -0.1118 -0.5503  0.2263
72230W        W15221  16.785   3.644  25.977 -0.1725 -0.3315  0.0143
72231W        W15222  31.510  19.576  25.816 -0.1379  0.1223 -0.2910
72232W        W15223  33.148   1.358  24.373  0.0881 -0.0575 -0.0586
72233W        W15224   7.475  13.677  25.520 -0.4779  0.0756 -0.1084
72234W        W15225   1.750  12.056   7.388  0.1545 -0.0735  0.0192
72235W        W15226  30.969  29.805   1.884 -0.1226 -0.3215 -0.1652
72236W        W15227   8.839   5.315  25.770 -0.1175  0.2082  0.0207
72237W        W15228  32.317   4.046   7.414 -0.1591 -0.1016 -0.0179
72238W        W15229  30.442  22.857   9.568  0.0090  0.0927 -0.0527
72239W        W15230  26.651  22.106  26.828 -0.0547  0.1873 -0.3111
72240W        W15231  22.315  12.790  16.622  0.0608  0.0709 -0.0366
72241W        W15232  13.163  10.546  20.351 -0.2896  0.3459  0.1614
72242W        W15233  13.935  13.760   7.103  0.0420  0.0339  0.1766
72243W        W15234  12.521  23.699   6.129  0.2931  0.2073 -0.0112
72244W        W15235  26.933   7.709  14.789 -0.4572 -0.1496 -0.0317
72245W        W15236   2.087   1.436  15.094 -0.1213  0.2216 -0.0273
72246W        W15237  28.836   7.696  23.407  0.3241  0.1117  0.2179
72247W        W15238   5.334  12.958   0.610  0.0200  0.0668 -0.2124
72248W        W15239  19.229  25.557  21.039 -0.1024  0.1182 -0.3555
72249W        W15240  32.614  16.045  21.422 -0.3976  0.0394 -0.1993
72250W        W15241  12.059   8.817  26.968 -0.0194  0.4119  0.1529
72251W        W15242   8.249   1.606  22.451  0.0751  0.0595 -0.2090
72252W        W15243  27.410  11.435   2.171  0.2334  0.0467 -0.3931
72253W        W15244  12.265   9.305  28.917  0.0122  0.0939 -0.0335
72254W        W15245  26.775   5.682  28.944 -0.0737 -0.0445  0.0943
72255W        W15246  27.299  27.950   2.998  0.2617  0.1962 -0.0928
72256W        W15247  24.386  12.022   5.101 -0.1524 -0.1286  0.1050
72257W        W15248  18.885  25.244   3.205 -0.1245 -0.0711  0.0617
72258W        W15249   5.903  31.237  22.580  0.0701 -0.1394 -0.0331
72259W        W15250   1.080  10.762   3.529  0.2391 -0.3228 -0.1732
72260W        W15251  20.376  15.657  17.740  0.1506 -0.0401 -0.0107
72261W        W15252  17.482   4.134   2.969  0.0984  0.1313 -0.1015
72262W        W15253  31.042  12.526  23.689  0.2011 -0.3043 -0.0956
72263W        W15254  21.766  25.158   4.436  0.0494  0.2749  0.4275
72264W        W15255  21.191   3.668   6.872  0.0433 -0.0587 -0.1352
72265W        W15256  20.353   1.631  23.668 -0.3461 -0.0216 -0.0070
72266W        W15257  19.203   3.994  23.702 -0.2087 -0.0387  0.2815
72267W        W15258  30.092   0.457  29.048  0.1061  0.0347 -0.0238
72268W        W15259  20.658   5.854  10.129  0.0738 -0.0892 -0.1911
72269W        W15260  20.272  11.342  27.043 -0.2303 -0.0216  0.1316
72270W        W15261  26.097  28.197  13.847 -0.0433  0.0025  0.0125
72271W        W15262  18.819  10.919  18.526  0.2490  0.1227 -0.2803
72272W        W15263  20.298   4.205  23.201  0.3785 -0.0911  0.0445
72273W        W15264  16.513  19.333   8.606  0.0871  0.0003 -0.0287
72274W        W15265  18.401  21.760   1.425  0.3440  0.2711 -0.0375
72275W        W15266  13.034  15.285  25.162  0.2869 -0.1209  0.0531
72276W        W15267   7.795  14.211   1.264 -0.1358 -0.1182  0.0403
72277W        W15268  22.739   2.614  17.042 -0.1992  0.0771 -0.1192
72278W        W15269  20.539  10.907  23.107 -0.0589 -0.1052 -0.1374
72279W        W15270  31.245  22.759  17.551  0.1270 -0.6244  0.1918
72280W        W15271  27.449  10.791  24.941 -0.0145 -0.2547 -0.1364
72281W        W15272   0.591   2.517   4.880  0.1484  0.0870 -0.2507
72282W        W15273  22.649  18.434  27.185  0.1316 -0.0065  0.2368
72283W        W15274  20.757  29.401   2.184 -0.2816  0.2601  0.1270
72284W        W15275  12.601   4.056  24.585  0.3851  0.1041  0.2316
72285W        W15276  12.694  27.983   1.097  0.1724  0.2996  0.4467
72286W        W15277   9.924  12.865  20.944 -0.0722  0.3537  0.0478
72287W        W15278  33.483  16.970  27.846 -0.3498 -0.2013  0.1131
72288W        W15279   9.816  31.286  10.075  0.1005  0.4190 -0.0868
72289W        W15280  17.843  13.029   0.963  0.2107  0.2058 -0.2948
72290W        W15281   8.243  22.037  19.500 -0.3623  0.1263 -0.2362
72291W        W15282  10.486  26.261   6.745  0.2633  0.0525 -0.0543
72292W        W15283  33.081   6.211  23.386  0.0776 -0.0795 -0.0802
72293W        W15284   1.704  13.597  18.034  0.1962  0.0879 -0.2601
72294W        W15285  10.547  33.223  19.909 -0.0503  0.0580  0.1489
72295W        W15286  20.955  10.628   1.037 -0.1182 -0.1991 -0.0615
72296W        W15287  18.343  22.407  21.005  0.1226 -0.0229  0.0021
72297W        W15288   2.603   1.191  19.842  0.0889  0.0720  0.2527
72298W        W15289  18.450  31.578  20.567 -0.2142  0.0420  0.0474
72299W        W15290  13.620   0.038  26.117  0.2936 -0.1101 -0.1126
72300W        W15291   3.302   3.612  29.121 -0.1044 -0.0689  0.0904
72301W        W15292  26.760   6.349  18.464  0.3453 -0.4574  0.0450
72302W        W15293  29.917  31.458  27.316 -0.1789  0.2959  0.0153
72303W        W15294   4.522  31.192   7.680  0.2485  0.0307 -0.0005
72304W        W15295  32.177  10.528  19.471  0.1628  0.2704 -0.0951
72305W        W15296  27.289  18.049  24.473 -0.2217 -0.4283  0.1233
72306W        W15297  29.122  17.973  25.112  0.0060  0.0656  0.2829
72307W        W15298  13.410  30.868  17.729  0.0019  0.0733 -0.1485
72308W        W15299  24.427  17.311  23.095 -0.1360  0.0092  0.2337
72309W        W15300  26.015  32.255   6.804  0.1649  0.0713  0.0315
72310W        W15301  19.483  31.226  14.856 -0.1717 -0.0343  0.4121
72311W        W15302   5.776  17.764  19.358 -0.0883  0.2116 -0.0978
72312W        W15303  17.298  15.634   8.483  0.2579  0.0495 -0.1910
72313W        W15304  16.123   3.601   5.203  0.2027 -0.0475  0.0859
72314W        W15305  16.494   3.529   6.138  0.1059  0.0763 -0.1234
72315W        W15306  15.034  30.609  24.517 -0.1986  0.0911  0.1176
72316W        W15307  22.476   6.453  22.774 -0.3345 -0.2421  0.2527
72317W        W15308  16.074   6.458   8.838 -0.4153  0.1566 -0.2127
72318W        W15309  13.903  17.547  25.870  0.3354  0.3000 -0.1296
72319W        W15310  23.550   2.558  26.206  0.1552  0.0728 -0.1766
72320W        W15311  25.579   7.310  19.645  0.0300  0.2290 -0.3310
72321W        W15312   2.844   8.136  26.880 -0.1918  0.0359 -0.4328
72322W        W15313  27.377  12.186  17.529 -0.2184  0.0760 -0.0654
72323W        W15314  31.505   0.674   1.968  0.3253  0.2461 -0.1235
72324W        W15315  12.213  18.688  25.882 -0.1080 -0.1078 -0.1498
72325W        W15316  16.696  11.797   9.250 -0.1778  0.0659  0.2182
72326W        W15317  17.633   3.605  24.830 -0.0454 -0.1869 -0.0388
72327W        W15318  26.322  18.118  17.430 -0.0691 -0.1630 -0.0355
72328W        W15319  20.842  20.183   7.477  0.1848 -0.1188  0.4814
72329W        W15320   2.512  32.119   6.782  0.0163  0.0036 -0.1576
72330W        W15321  15.187  11.424  10.395  0.0539  0.0472 -0.1342
72331W        W15322  21.338  13.931  26.573 -0.3082 -0.2077  0.0205
72332W        W15323  17.185  14.683  22.270 -0.5652 -0.0427  0.1226
72333W        W15324  14.025  10.863  22.797 -0.3070  0.0832  0.0425
72334W        W15325   6.122  34.356  25.335 -0.0855  0.0025  0.0328
72335W        W15326   6.429   7.739   4.812  0.0686 -0.1822  0.6721
72336W        W15327  20.837   4.102  26.071  0.0280  0.1330  0.1772
72337W        W15328  31.065   4.317   3.842  0.0104 -0.2217  0.0554
72338W        W15329   8.309  20.616  21.808 -0.1112  0.1829  0.2047
72339W        W15330  25.563  18.364  27.750  0.0486  0.2999  0.0388
72340W        W15331  23.398   2.477  25.688 -0.1093  0.0271  0.1411
72341W        W15332  24.293  13.737  29.102  0.2160 -0.0634  0.0296
72342W        W15333  26.407  31.877   6.092  0.0514 -0.1008 -0.1319
72343W        W15334  15.849   3.398   8.249  0.0182 -0.2358 -0.0749
72344W        W15335   6.218   1.417  18.756 -0.0248  0.2642 -0.1514
72345W        W15336  12.794   5.404  27.512  0.0165  0.1520  0.0621
72346W        W15337   2.826  32.681  27.312  0.0106  0.0611  0.2593
72347W        W15338   0.972  12.289   2.112 -0.0602 -0.0893 -0.0807
72348W        W15339  26.054  21.385  21.528 -0.0399  0.1114 -0.0886
72349W        W15340  18.236  33.571  23.484 -0.3704  0.0069 -0.0520
72350W        W15341  22.908   5.060  23.005  0.1136 -0.2904 -0.0172
72351W        W15342  29.099   5.607  19.844 -0.1969 -0.1484  0.2279
72352W        W15343  31.617   6.954   7.013  0.5216  0.0414 -0.0727
72353W        W15344  12.373   1.151  15.384  0.2271  0.0543 -0.1733
72354W        W15345  22.077  14.979   3.391 -0.2675  0.2696  0.2736
72355W        W15346  26.433  18.745  18.292 -0.0611  0.0058 -0.2606
72356W        W15347  15.001  29.708  28.866  0.1811  0.1671  0.2177
72357W        W15348  18.227  14.510  20.888 -0.1902 -0.1772 -0.0831
72358W        W15349  21.203   8.590  25.627  0.2153 -0.0129  0.1413
72359W        W15350  17.145   2.877  20.865 -0.0276  0.0426  0.1849
72360W        W15351  12.513   1.765  24.568 -0.0717  0.0879  0.1664
72361W        W15352  18.930   5.673   5.102 -0.0383  0.0148  0.1316
72362W        W15353  17.435  33.359   4.387 -0.0532  0.0396 -0.0235
72363W        W15354  14.332  11.974   7.527 -0.0048 -0.2863  0.1139
72364W        W15355  15.374  33.334  27.610  0.0950  0.1658 -0.1302
72365W        W15356  21.145  17.425  28.751 -0.0196 -0.0389  0.0742
72366W        W15357  20.731   0.641   0.355  0.0551 -0.1861 -0.0241
72367W        W15358  12.144  24.770  10.176  0.4574 -0.0960  0.1507
72368W        W15359  19.757   9.986  17.574  0.1080 -0.1156  0.3083
72369W        W15360  25.916  34.436   1.176  0.0089  0.0023 -0.0487
72370W        W15361  22.804  34.638  27.120 -0.0456 -0.0213  0.1519
72371W        W15362  11.483  20.582  25.220  0.0761  0.3560 -0.1474
72372W        W15363  10.859   9.919   4.969  0.1817 -0.0031 -0.1230
72373W        W15364  15.990  19.935  17.170  0.0291  0.0004 -0.0412
72374W        W15365  33.250  18.490  17.461  0.3645  0.0137  0.2449
72375W        W15366  23.250   3.598  25.194  0.0457 -0.0241 -0.0016
72376W        W15367  29.042  12.121  27.997 -0.4461  0.0127  0.0322
72377W        W15368  29.382  14.857   2.673  0.2024 -0.1392 -0.0016
72378W        W15369  12.880  15.395  17.703 -0.2221  0.0423  0.0206
72379W        W15370  25.549  14.005   5.377  0.1532 -0.0296  0.2512
72380W        W15371  24.819  10.328  25.703  0.3202  0.2137 -0.0390
72381W        W15372  24.872  34.422   6.471  0.1836  0.0771 -0.1415
72382W        W15373  19.593  14.441  15.182 -0.0124 -0.3240  0.0374
72383W        W15374   2.346   2.875  10.278  0.0450 -0.2717  0.3032
72384W        W15375  27.423  16.468  28.985 -0.3071 -0.0180 -0.1610
72385W        W15376  21.925   6.409   1.442  0.4631 -0.1008  0.0616
72386W        W15377  10.924   3.312   9.799  0.0289 -0.0665 -0.1173
72387W        W15378  19.364  24.035   1.412 -0.2718  0.2370 -0.3477
72388W        W15379  16.753  11.514   3.473  0.1863  0.1521 -0.1457
72389W        W15380  32.625  17.739   2.019 -0.1701  0.1194 -0.0105
72390W        W15381  13.942  30.210  26.915 -0.1471 -0.1423  0.2790
72391W        W15382  18.945  17.300  14.105 -0.2372 -0.2206  0.2921
72392W        W15383  22.287   6.104  25.173  0.3368  0.0469  0.4139
72393W        W15384  21.284  13.985   8.457  0.1197  0.0109 -0.0674
72394W        W15385  21.210  16.048   4.294  0.2370 -0.0897 -0.0749
72395W        W15386  26.098  13.269   1.289  0.2131  0.1784  0.1916
72396W        W15387  18.605  12.992  18.417  0.0198  0.0348 -0.0746
72397W        W15388  18.261  21.626   8.823  0.0840  0.4160  0.0546
72398W        W15389  21.578  16.197   3.990  0.1510  0.0181 -0.1618
72399W        W15390  26.611  10.618  18.088  0.0162 -0.0302 -0.1990
72400W        W15391  25.170  32.166  24.223 -0.0332 -0.2330  0.1209
72401W        W15392  24.142   7.314  19.156  0.4034  0.0468  0.1329
72402W        W15393  24.545  26.492   1.574 -0.0140  0.1173 -0.2803
72403W        W15394   0.509  13.065   1.745 -0.0876 -0.1681 -0.0292
72404W        W15395  29.840  14.600  18.378  0.1154 -0.0305 -0.0408
72405W        W15396  15.714  13.536   9.633 -0.1756  0.0235 -0.0276
72406W        W15397  15.238  19.555  16.823  0.0061  0.3296  0.0015
72407W        W15398  23.304   0.333  17.901  0.2305  0.1995 -0.0929
72408W        W15399  13.483  31.553  28.509 -0.1391 -0.0771  0.0054
72409W        W15400  12.004   3.192  17.519 -0.5617 -0.3469  0.0915
72410W        W15401  14.677   2.054   6.645  0.1616  0.0922 -0.1744
72411W        W15402  32.200  14.494  27.513  0.2126  0.0540  0.0021
72412W        W15403   8.744   3.127  21.365 -0.1646  0.0424  0.1209
72413W        W15404  32.077   7.342  17.982 -0.1685 -0.1546 -0.0003
72414W        W15405  16.491  15.135   3.825 -0.1315  0.0598  0.3013
72415W        W15406  15.417  14.485   1.225  0.3132 -0.1120 -0.3230
72416W        W15407  10.922  21.226   7.424  0.1054  0.2539  0.1145
72417W        W15408  17.960  15.648  25.209  0.0186 -0.1873  0.0281
72418W        W15409  27.779   6.715   8.679 -0.3031  0.0133  0.0860
72419W        W15410   8.298  20.989  18.799 -0.1108 -0.2048  0.0243
72420W        W15411  27.933   1.907  16.051 -0.1543  0.1090  0.1399
72421W        W15412   6.384   4.061  18.570  0.0232 -0.4732  0.1255
72422W        W15413   8.094   1.250  24.981 -0.0099 -0.0752 -0.0777
72423W        W15414  15.514  19.332   4.174 -0.0466  0.4247  0.0096
72424W        W15415  14.068  17.429  22.882 -0.1166 -0.2524  0.0367
72425W        W15416  10.669   8.028   7.433  0.0926 -0.0090 -0.0663
72426W        W15417  14.903  33.239   3.167 -0.3889  0.3390 -0.1656
72427W        W15418  29.218  33.957  24.897 -0.0291 -0.2075 -0.1217
72428W        W15419  21.568   9.871   0.843  0.1802 -0.0950  0.1385
72429W        W15420  18.112  21.315   6.764 -0.3029  0.0207 -0.2805
72430W        W15421  12.436   2.690   3.477  0.2128  0.0104 -0.0111
72431W        W15422  17.505   7.345  19.930  0.2479 -0.0468  0.1000
72432W        W15423  11.141   8.674   3.775  0.3816  0.3466  0.1117
72433W        W15424  13.018  12.502  23.346 -0.1619 -0.0273  0.0522
72434W        W15425   2.484  20.522   0.340  0.2978  0.1141 -0.0827
72435W        W15426   2.650  25.385   5.263  0.0994 -0.2293 -0.0126
72436W        W15427   8.448  15.155   0.174  0.0677 -0.1168  0.1878
72437W        W15428  28.841   3.368   7.045  0.1228  0.0535 -0.1844
72438W        W15429  15.021   3.321  10.435  0.2908 -0.1147 -0.0048
72439W        W15430  22.007   4.337  16.028 -0.3955 -0.1754 -0.1718
72440W        W15431   7.313   8.756   9.281 -0.0377 -0.0553 -0.3277
72441W        W15432  16.654  13.502  28.403 -0.0071  0.2116 -0.1204
72442W        W15433  11.293  33.759   7.825  0.0392  0.1369 -0.2785
72443W        W15434  21.398  34.600  13.268 -0.0099  0.1053 -0.1033
72444W        W15435   2.181  34.755  23.487  0.0363  0.0485  0.2378
72445W        W15436  33.026  11.576   5.803 -0.1718 -0.0382 -0.1700
72446W        W15437  15.002   1.799  26.908 -0.1623  0.2218  0.0743
72447W        W15438  12.499  29.335  16.615  0.3411  0.2654  0.1401
72448W        W15439  11.248  19.808   1.514  0.2693  0.3062 -0.2245
72449W        W15440  17.754   7.486  21.707  0.0360  0.0113 -0.2582
72450W        W15441  14.464   0.901  20.092 -0.3512 -0.1037 -0.1556
72451W        W15442  20.996   7.945  28.330 -0.1098  0.0919  0.0550
72452W        W15443  30.084  19.972  17.438  0.0849 -0.0635 -0.0912
72453W        W15444  26.268  11.205  22.175 -0.0442  0.0715 -0.1579
72454W        W15445  14.238  24.891  21.869 -0.0230 -0.0265  0.0253
72455W        W15446  15.477  16.978  14.278  0.0377  0.0522  0.0358
72456W        W15447  20.278  22.560  18.902  0.1257 -0.0190  0.2905
72457W        W15448   5.069   4.464  19.289  0.0386  0.0681 -0.2739
72458W        W15449  24.908  20.539  13.694  0.1276  0.3273  0.4100
72459W        W15450  26.754   8.692  17.130 -0.1128 -0.0282 -0.0386
72460W        W15451   4.135  15.657  25.328  0.0494 -0.2667 -0.3198
72461W        W15452  17.264  17.540  14.338 -0.0552  0.2988  0.0780
72462W        W15453  22.122   3.862  15.725 -0.1832  0.1970 -0.1876
72463W        W15454  14.447  27.649  16.845 -0.1658  0.1987  0.1225
72464W        W15455  18.034   3.806  18.961  0.2395  0.2042  0.2162
72465W        W15456  12.103   9.386  22.775  0.0787 -0.2415  0.0936
72466W        W15457  14.100   7.651   3.406 -0.1729 -0.1401  0.1660
72467W        W15458  24.147  28.228  14.452  0.2313 -0.0104 -0.0938
72468W        W15459  14.333  26.716  27.092 -0.2664  0.0903 -0.0473
72469W        W15460  29.355  33.423  20.532 -0.2909 -0.0746 -0.1927
72470W        W15461  12.954   0.217  26.249  0.0278 -0.0115  0.1987
72471W        W15462  21.774   9.580  14.845  0.0568 -0.3065 -0.2320
72472W        W15463   6.039  33.522  16.366  0.0319  0.2734 -0.1352
72473W        W15464  21.582  25.163  14.403  0.0024 -0.2218  0.1490
72474W        W15465  23.117  16.882  13.215  0.0275  0.0881  0.1322
72475W        W15466  13.465  19.211  23.917  0.1681 -0.2792 -0.1405
72476W        W15467   9.357  18.172  18.827  0.1332  0.3961 -0.2015
72477W        W15468  12.020   9.940  15.600 -0.4343 -0.1195  0.0049
72478W        W15469   2.540  28.337   1.037  0.1539 -0.1814  0.1783
72479W        W15470  16.331  21.225  16.282 -0.1782 -0.2295  0.0795
72480W        W15471  29.134  12.019  18.776  0.1078  0.0595  0.1937
72481W        W15472   8.748  28.671  26.646 -0.0406 -0.0854  0.0567
72482W        W15473  23.402   5.958   8.742 -0.1161  0.1008 -0.2520
72483W        W15474   6.799  11.657  17.823  0.1338 -0.1269 -0.0389
72484W        W15475  20.452   4.571  17.444  0.3422  0.1022 -0.2724
72485W        W15476   8.655  24.737  24.133 -0.0217 -0.1238 -0.1550
72486W        W15477   1.363  13.277  21.688  0.0596  0.1364 -0.1400
72487W        W15478  18.121  11.997   6.097 -0.2302 -0.1264  0.1209
72488W        W15479   0.047  13.601  20.572  0.1508 -0.0783  0.0701
72489W        W15480  31.846   4.771  17.741  0.0109 -0.3534  0.0619
72490W        W15481  17.106  23.621  15.939 -0.2118 -0.0476 -0.2341
72491W        W15482  34.774   6.319  20.396  0.0493  0.2017  0.1449
72492W        W15483  32.140  34.634  16.704  0.2126 -0.0521  0.0241
72493W        W15484  19.627   5.734  26.692 -0.0007 -0.1033  0.0856
72494W        W15485  27.914   3.514  17.681  0.2210  0.2401 -0.0555
72495W        W15486  10.031  16.252  17.140 -0.1697  0.1762  0.0145
72496W        W15487  18.798  12.435  19.585  0.0318  0.1483  0.0090
72497W        W15488   8.906   9.320  20.438 -0.0791  0.2244 -0.1563
72498W        W15489  13.932  23.783  14.494  0.1206  0.0923  0.3814
72499W        W15490   8.754   5.364  20.273 -0.2147  0.1922  0.0169
72500W        W15491   8.624  29.636   7.597 -0.0621  0.1836  0.1715
72501W        W15492  34.416  29.655  14.016  0.0160 -0.1100 -0.1353
72502W        W15493  24.307  16.081  20.355 -0.1649  0.0582  0.2912
72503W        W15494  10.628   9.824   1.866 -0.1188 -0.0634  0.1317
72504W        W15495   3.443   8.144  18.851  0.0571 -0.2732  0.2832
72505W        W15496  10.249  12.850  20.509 -0.4192 -0.1870 -0.0874
72506W        W15497  34.160  33.334  14.620 -0.2973  0.0403 -0.1093
72507W        W15498  12.222   6.130   5.417 -0.4431 -0.2159  0.0201
72508W        W15499  33.594  32.291  17.179  0.0798  0.3560 -0.4690
72509W        W15500  15.312   1.474  19.772  0.3691 -0.0721  0.2779
72510W        W15501   4.626   7.265  15.613  0.0426  0.0150 -0.2521
72511W        W15502  10.022  13.952  28.799  0.2424 -0.0216  0.0745
72512W        W15503   0.837  30.887  15.596  0.0404  0.0558  0.2546
72513W        W15504  14.039  16.931  16.429  0.2833 -0.0880 -0.0017
72514W        W15505  22.365  15.225  24.697  0.0553  0.1066  0.0088
72515W        W15506   5.790  16.652  16.499 -0.2343  0.1443 -0.2978
72516W        W15507   8.213   2.257  27.663 -0.2288  0.0476 -0.0695
72517W        W15508  20.507   8.826  14.320 -0.1704  0.1407  0.0007
72518W        W15509  12.250   2.875  16.704 -0.1735 -0.0689  0.1355
72519W        W15510  20.238   8.311  13.538  0.1214 -0.2006  0.0837
72520W        W15511   7.975  14.634  16.374 -0.1493  0.1327 -0.3505
72521W        W15512  14.391  24.940  20.181  0.2519  0.0767 -0.0500
72522W        W15513  22.445  33.112  15.485  0.1017  0.1093 -0.2880
72523W        W15514  11.493   0.169  15.624  0.4448  0.0225 -0.0495
72524W        W15515  14.772  25.006  16.758  0.1100  0.0976 -0.1997
72525W        W15516  16.747  19.314  29.131  0.1492  0.3210  0.0380
72526W        W15517  21.384  24.241  20.583 -0.3264 -0.4708  0.0104
72527W        W15518  13.979  19.800  17.679 -0.0867 -0.1134 -0.1768
72528W        W15519   1.986   7.988  17.116 -0.1582  0.0205  0.0769
72529W        W15520  19.033  13.915  15.785 -0.0567  0.1636 -0.1380
72530W        W15521  18.119   4.101  20.180  0.2576  0.0973 -0.1075
72531W        W15522   8.537  16.419  16.508 -0.1030 -0.1200 -0.0526
72532W        W15523  30.398  11.136  23.739 -0.0234 -0.0291  0.1280
72533W        W15524  18.863  18.168  12.734  0.2364 -0.0849  0.3107
72534W        W15525  33.858  16.803  24.123 -0.1454  0.0810  0.0737
72535W        W15526  11.368  13.190  27.916 -0.0562 -0.2175 -0.0284
72536W        W15527   8.962  13.375  19.483 -0.2306  0.1025 -0.1576
72537W        W15528  20.858  13.018  15.120  0.0059 -0.0429  0.4136
72538W        W15529   7.110  23.103  16.878 -0.0106 -0.2522  0.2060
72539W        W15530  16.907  25.625  27.100 -0.1551  0.0256  0.4682
72540W        W15531   7.790  23.149  29.138 -0.1527  0.0674 -0.0499
72541W        W15532  21.281  33.834  27.227 -0.0489  0.1751  0.0478
72542W        W15533  10.898   6.280  22.507 -0.1861 -0.2608  0.3390
72543W        W15534  25.452  14.872  19.280 -0.2657  0.1481  0.1454
72544W        W15535  30.224  30.672  12.863 -0.1135  0.0877  0.0126
72545W        W15536  18.207  14.629  16.533 -0.0654 -0.2145  0.1234
72546W        W15537  26.421  14.848  26.035 -0.0889  0.0130 -0.0939
72547W        W15538  10.030  33.510  27.798 -0.0278 -0.1504 -0.1370
72548W        W15539  29.557  28.024  26.476 -0.3629 -0.0037  0.4848
72549W        W15540  13.253  11.019  20.583  0.0524  0.2721 -0.0274
72550W        W15541  25.226  17.705   9.161  0.0989 -0.2422  0.1666
72551W        W15542  26.516  16.111  16.416  0.1051  0.0319 -0.3660
72552W        W15543  25.290   4.017  23.232 -0.0767 -0.0187  0.1329
72553W        W15544   6.145   4.972  20.024 -0.0225  0.1894  0.1025
72554W        W15545  16.155  25.385  19.894 -0.0331 -0.2911 -0.0970
72555W        W15546  11.087  22.003  19.841  0.0588 -0.0443 -0.1860
72556W        W15547   3.265   1.850  19.331 -0.0574 -0.0855 -0.3559
72557W        W15548  12.483   8.957   5.118  0.1938 -0.1045  0.2258
72558W        W15549   4.881  26.251  16.889  0.1988  0.0524  0.0363
72559W        W15550  31.993   7.453  28.301  0.1896 -0.0706  0.1325
72560W        W15551  17.022  19.483  15.237  0.0061  0.0396  0.1175
72561W        W15552  18.435  31.311  14.301 -0.4086 -0.0123 -0.0797
72562W        W15553   8.529  24.803  27.094 -0.1880 -0.3323  0.1171
72563W        W15554  20.426   7.731   6.220 -0.0138 -0.0928  0.1328
72564W        W15555  16.600   2.230  19.453 -0.3504 -0.0453  0.0538
72565W        W15556  16.868   4.976   5.029  0.1341  0.1109 -0.0797
72566W        W15557   1.005  31.938  26.303 -0.0422 -0.2246  0.0688
72567W        W15558  26.223  15.136  23.441 -0.3112 -0.0099  0.0180
72568W        W15559  19.527  32.621  16.779 -0.1369 -0.1160 -0.4846
72569W        W15560  10.418  32.067  22.977  0.1270 -0.2657  0.1672
72570W        W15561  32.352  22.182   4.293 -0.0570 -0.0495  0.0518
72571W        W15562   1.962   6.008  20.652 -0.1113 -0.1447  0.1921
72572W        W15563  23.043  20.077  19.751  0.4478  0.3956  0.6187
72573W        W15564  11.376  18.567  24.895 -0.2014  0.1496 -0.5409
72574W        W15565  21.311   5.972  18.961  0.0656  0.1637 -0.1068
72575W        W15566  16.265   8.911  26.168 -0.0521  0.0324 -0.0856
72576W        W15567  23.715   8.704  16.215 -0.2517 -0.1050 -0.0408
72577W        W15568  22.382  30.256  19.516 -0.2305 -0.3442  0.1627
72578W        W15569  10.767   8.691  14.849 -0.3244 -0.3082 -0.0334
72579W        W15570  22.045  17.431   5.191  0.1217  0.0925 -0.0607
72580W        W15571  29.775  17.420  14.940  0.0932  0.1345 -0.0041
72581W        W15572  20.725   3.749  26.471 -0.1668  0.2178  0.3505
72582W        W15573  13.232   8.427  18.675  0.2603 -0.1833 -0.1832
72583W        W15574  20.888  15.299  19.419  0.2545 -0.1578  0.2491
72584W        W15575  32.244  11.023   2.729 -0.2084 -0.3199  0.1678
72585W        W15576  16.537   9.407  16.239  0.1707  0.2532 -0.2386
72586W        W15577  26.685  20.445  19.300 -0.1705  0.0728  0.3276
72587W        W15578  28.872  29.501  22.556 -0.0753 -0.0569  0.0287
72588W        W15579  16.696   5.564  22.774 -0.3697 -0.1129 -0.0443
72589W        W15580  16.529  12.738   8.445 -0.0113  0.1340  0.3280
72590W        W15581  11.951  13.263  16.872  0.2674  0.0399 -0.0288
72591W        W15582  28.230   8.717  18.616 -0.0616 -0.1118  0.0871
72592W        W15583  18.561  24.484  17.935 -0.0829  0.0627 -0.0473
72593W        W15584   3.376  19.178  28.028 -0.0530  0.4484 -0.0073
72594W        W15585  26.503  27.597  13.877 -0.0244  0.2689  0.0377
72595W        W15586  19.206  17.787  14.746  0.1303  0.0651  0.0649
72596W        W15587  13.210  25.422  16.303  0.1479 -0.3575 -0.1111
72597W        W15588  33.499  19.440  15.417 -0.0738  0.0749  0.1070
72598W        W15589   3.775  15.002  28.790 -0.2113  0.2118  0.0453
72599W        W15590  29.307  21.867  23.243 -0.1560  0.1798 -0.0306
72600W        W15591   4.442   3.913   4.629 -0.3064 -0.1710  0.2259
72601W        W15592   0.555  19.475  25.883 -0.2835 -0.2816  0.0862
72602W        W15593   7.366   1.725  15.337 -0.1664  0.4612  0.0765
72603W        W15594  31.786  14.382  20.287 -0.0312 -0.1806  0.3004
72604W        W15595  19.572   5.763   6.988 -0.3111  0.0250  0.5126
72605W        W15596  17.951  12.991  23.381  0.2688  0.0477  0.2972
72606W        W15597   8.683   1.689  19.981 -0.0959 -0.0512  0.0551
72607W        W15598  29.798   9.754  21.428 -0.2157 -0.2138 -0.2771
72608W        W15599  26.649  10.804  25.816 -0.3459  0.4005 -0.0817
72609W        W15600  30.017  22.062  15.128 -0.3111  0.0565 -0.0089
72610W        W15601   3.212  21.128  18.428  0.1642 -0.0292  0.2360
72611W        W15602  10.815   6.514  17.595 -0.2025  0.1338 -0.1623
72612W        W15603   4.608  25.086  20.874 -0.1488 -0.3435 -0.3196
72613W        W15604  34.117  17.923  24.684  0.0804  0.1929  0.3341
72614W        W15605  12.140  19.663  20.378 -0.4173  0.0436  0.2158
72615W        W15606   6.876  18.784  26.048 -0.2200 -0.3753  0.1349
72616W        W15607   8.239  18.195  25.445  0.1135 -0.3462  0.1378
72617W        W15608  22.545  11.317  23.119 -0.2283  0.0555  0.0389
72618W        W15609   7.662   3.759  25.617  0.3919  0.3226 -0.0643
72619W        W15610  13.303   2.326  21.067  0.0156 -0.1446 -0.1289
72620W        W15611  26.595  20.162  16.490  0.2097 -0.1094  0.2363
72621W        W15612  25.923  11.909  19.602  0.0369 -0.3635 -0.1862
72622W        W15613  19.070  34.087  14.586 -0.1239 -0.1251 -0.1324
72623W        W15614  14.698   1.034  21.853 -0.2809  0.2692 -0.1773
72624W        W15615  21.688  13.371  21.200 -0.0997 -0.0567 -0.3207
72625W        W15616  34.490  13.035  16.021  0.0338  0.3519 -0.1576
72626W        W15617  14.519  18.138  12.355 -0.2625 -0.0787 -0.1357
72627W        W15618  31.865  17.244  23.875  0.0046 -0.1337 -0.1760
72628W        W15619  30.391   8.487  13.591  0.2450  0.1292 -0.2553
72629W        W15620   5.704  13.641  22.120 -0.1081 -0.0549  0.0341
72630W        W15621   6.299   3.178  14.935 -0.0191  0.1350 -0.3933
72631W        W15622   8.873   5.223   3.776 -0.4105  0.1728  0.1520
72632W        W15623   7.064  10.129   9.599  0.1908  0.1164 -0.1905
72633W        W15624  23.473   7.708  20.559  0.3042 -0.0513  0.1537
72634W        W15625  31.217  10.202  21.571 -0.4611 -0.0909 -0.1689
72635W        W15626  10.085  14.036  26.923 -0.1816  0.0501 -0.0133
72636W        W15627  11.754  10.245  16.907  0.3253 -0.2060 -0.2091
72637W        W15628  20.918  20.703  13.078  0.1271 -0.1023 -0.1930
72638W        W15629  22.314  18.206  14.002 -0.0559  0.6343 -0.3407
72639W        W15630  17.800   2.352  15.602  0.1683  0.0884  0.1925
72640W        W15631   3.503   9.160  21.323  0.2008  0.1631  0.0653
72641W        W15632  15.159   2.767  18.466 -0.1064 -0.2820  0.1429
72642W        W15633  14.884  13.610  25.993 -0.1936 -0.1406 -0.0489
72643W        W15634  24.003  12.324   5.229 -0.0541  0.0138  0.0018
72644W        W15635  14.416  16.083  13.901 -0.1791  0.0191 -0.1256
72645W        W15636  10.544  24.618  21.574 -0.0682 -0.1980  0.1814
72646W        W15637  20.776  29.292  27.070  0.1071 -0.0613  0.0652
72647W        W15638  19.982  11.433  24.570  0.3566  0.1184  0.1828
72648W        W15639  13.545   3.433  17.086  0.1959 -0.0288  0.2431
72649W        W15640  21.903  25.006  14.849 -0.1422 -0.1276 -0.3254
72650W        W15641  24.935  23.762  22.457 -0.0567 -0.2503 -0.0851
72651W        W15642  11.385  20.306   1.594 -0.0193 -0.0451 -0.1768
72652W        W15643  17.882   7.553  24.315 -0.0255  0.1631  0.1333
72653W        W15644  27.127  12.148  18.904 -0.2645  0.3108  0.1274
72654W        W15645  21.570   2.543  19.658 -0.1716 -0.1429 -0.0013
72655W        W15646  17.594  24.226  15.035  0.1369  0.3483  0.3285
72656W        W15647  21.228  13.232  21.591  0.2306 -0.0452 -0.0410
72657W        W15648   2.399   6.190  17.549 -0.3748 -0.0680 -0.0781
72658W        W15649  11.979   3.641   6.425 -0.0071  0.0843 -0.2990
72659W        W15650  24.565   9.048  21.124 -0.0149  0.0765 -0.2327
72660W        W15651   9.511   4.423  17.425  0.2735 -0.2742  0.1566
72661W        W15652  19.035   3.901  27.815  0.2656 -0.1252 -0.1442
72662W        W15653   1.717  13.164  17.824  0.0041  0.1179  0.0627
72663W        W15654   9.043   7.748   8.566 -0.3741  0.0075  0.0832
72664W        W15655  23.189  24.652  13.533 -0.0597  0.2198 -0.0439
72665W        W15656  25.193  28.641  22.366 -0.0546 -0.0276 -0.1250
72666W        W15657   6.678  10.899  26.237 -0.0006 -0.1492 -0.4308
72667W        W15658  14.390  26.864  17.262 -0.1614 -0.0797 -0.1698
72668W        W15659  10.369  19.795  18.578 -0.3215  0.0315  0.1656
72669W        W15660  23.742  18.127  12.848 -0.1482  0.3109  0.0586
72670W        W15661  25.367  27.041  23.361 -0.0146 -0.1933  0.2453
72671W        W15662  34.752  25.694  21.730 -0.0039 -0.1302  0.0416
72672W        W15663  34.390   5.669  24.824 -0.1067  0.2765 -0.5655
72673W        W15664   7.873  24.425  15.876  0.0289  0.0968  0.1773
72674W        W15665  17.814  12.305  17.573 -0.2174  0.1078  0.1942
72675W        W15666  27.262   7.934  16.992  0.0978 -0.1435  0.1453
72676W        W15667  16.506  12.933  16.337  0.1194  0.1417 -0.2725
72677W        W15668   6.922   1.536  19.173  0.0032 -0.0912 -0.1159
72678W        W15669  20.403  25.118  14.112 -0.2198  0.1366  0.1364
72679W        W15670  16.656  22.173  19.281  0.0400  0.0322  0.2939
72680W        W15671  21.946   6.934  20.430  0.1247 -0.3919  0.1416
72681W        W15672  25.301   4.147  20.225 -0.1608  0.1492 -0.0574
72682W        W15673   9.860  27.138  27.854  0.2983  0.1432 -0.1079
72683W        W15674   0.348  17.845  20.113 -0.2590  0.1581  0.1339
72684W        W15675   9.820   9.716  20.251  0.0436 -0.0747 -0.0612
72685W        W15676  21.523   4.747  21.024  0.0253 -0.0197  0.2538
72686W        W15677   5.396   1.258  25.096  0.1153 -0.0859  0.3107
72687W        W15678  26.872  30.461  15.551  0.1572 -0.1367 -0.3613
72688W        W15679  27.545  24.875  17.719 -0.0116 -0.1536 -0.1258
72689W        W15680  23.422  23.985   3.276 -0.2284 -0.3722  0.3071
72690W        W15681  19.508  24.016   0.398  0.1433 -0.0269  0.1941
72691W        W15682  16.037  22.240  22.596  0.2360  0.4965  0.0167
72692W        W15683  18.472  23.952  24.629  0.0003  0.1076  0.1328
72693W        W15684  14.432  21.189  27.133  0.1516  0.0499 -0.2138
72694W        W15685  11.452  16.152  20.932 -0.2184  0.1178  0.0129
72695W        W15686  20.688  13.496  26.137  0.0849 -0.4044 -0.2772
72696W        W15687  22.021  13.634   7.817 -0.0762  0.1957 -0.0162
72697W        W15688   1.856   7.433  27.109  0.1748  0.1635  0.1118
72698W        W15689  22.614   0.728  14.357  0.0621 -0.0963  0.3149
72699W        W15690   3.707   9.121  26.917 -0.0873  0.1793 -0.1687
72700W        W15691  19.199   7.526  14.065  0.1323 -0.0331 -0.0824
72701W        W15692   2.182  23.892  20.904 -0.0462 -0.1733  0.0167
72702W        W15693  11.417   9.765  19.728  0.0023  0.1158  0.0963
72703W        W15694  29.780  15.804  27.567  0.2150  0.2343 -0.2524
72704W        W15695  18.203  21.715  13.388  0.3660 -0.1040 -0.0473
72705W        W15696  11.326  14.266  22.074  0.0203  0.2926  0.4924
72706W        W15697   2.659  23.267  17.234  0.0180 -0.3235  0.1164
72707W        W15698   9.622  23.113  17.782  0.0172 -0.0712  0.0153
72708W        W15699  11.752   1.813  16.220  0.0990 -0.0978  0.0353
72709W        W15700  10.615   1.564  19.925  0.0477 -0.0492 -0.3328
72710W        W15701  17.222  14.408  24.583  0.0192 -0.1622  0.1113
72711W        W15702   4.047  23.321  14.856 -0.2344  0.0769 -0.1001
72712W        W15703   3.009  16.001  20.253  0.2298  0.2272  0.0062
72713W        W15704  18.302  24.595  14.468 -0.0202  0.1552 -0.4981
72714W        W15705   6.317  20.686  20.014  0.2510 -0.0221  0.0926
72715W        W15706   3.037  24.175  19.335 -0.1118 -0.1468 -0.0201
72716W        W15707  20.508  12.776  20.485  0.0550 -0.0311  0.0350
72717W        W15708   0.085   8.143  15.639  0.2812  0.1887 -0.1050
72718W        W15709   6.462  25.560  19.664  0.2469  0.0064 -0.0702
72719W        W15710  11.228  19.205  19.416 -0.0666 -0.0437  0.0362
72720W        W15711  17.922  17.182  14.287 -0.1591  0.0245  0.1007
72721W        W15712  22.155  18.290  19.642 -0.0846  0.4185  0.3023
72722W        W15713  26.982  13.328  15.905 -0.1791  0.1106  0.1319
72723W        W15714  14.819  20.072   3.165 -0.3244  0.1682  0.1676
72724W        W15715  31.876  17.933  28.308 -0.2331  0.0659 -0.1176
72725W        W15716  23.021  15.682  23.726  0.1553 -0.0144  0.1748
72726W        W15717  24.870  26.330   4.048 -0.3927 -0.0779 -0.2253
72727W        W15718  33.783  30.810   0.978  0.3022 -0.1002  0.1937
72728W        W15719  26.677  18.409  16.867  0.1584  0.3366 -0.0548
72729W        W15720  10.315  28.912  21.546  0.1082  0.3734  0.0630
72730W        W15721  11.956   3.806  27.985  0.0288  0.1972 -0.2299
72731W        W15722  16.197   7.960  22.474 -0.5363  0.0701 -0.2354
72732W        W15723  11.405  17.216  16.515  0.1475 -0.3080  0.2111
72733W        W15724   3.698   5.515  20.922 -0.0343  0.3927 -0.2938
72734W        W15725  19.512  11.261  15.652  0.1376 -0.0463  0.1417
72735W        W15726  32.026  20.704  20.675  0.0529 -0.0672 -0.4237
72736W        W15727  26.198  33.759   1.888 -0.0187  0.0124 -0.0785
72737W        W15728   8.741  15.652  26.122  0.0767  0.2979 -0.0003
72738W        W15729  33.355  21.538  19.621 -0.0794  0.1913  0.1876
72739W        W15730  13.027  21.575  19.830 -0.3069  0.0105 -0.1368
72740W        W15731  13.990  26.273  17.878  0.4672 -0.1708 -0.5464
72741W        W15732  28.820   7.387  18.383 -0.0547  0.2436  0.4185
72742W        W15733  20.574  27.828  24.797 -0.2084  0.1713 -0.0304
72743W        W15734   4.544   4.297  25.051  0.1360  0.0744 -0.1459
72744W        W15735  15.245  16.052  15.617 -0.0741 -0.2338 -0.1991
72745W        W15736  30.965  19.138  26.398  0.0877 -0.1729  0.0152
72746W        W15737  16.118  23.200  15.112  0.1806  0.0930  0.2148
72747W        W15738  13.157  22.307  15.693  0.1659  0.1183 -0.0412
72748W        W15739   9.336  10.643  18.863  0.0076 -0.2893 -0.2773
72749W        W15740   4.711  16.261  15.586 -0.1108 -0.1563 -0.3468
72750W        W15741  20.872  12.076  19.166  0.2089 -0.0223  0.2591
72751W        W15742   7.068   2.736  15.192  0.0915 -0.0030 -0.1093
72752W        W15743  20.603   6.792  18.784 -0.2907 -0.2411  0.1114
72753W        W15744  23.193  19.404  23.120 -0.0951 -0.3143  0.2108
72754W        W15745  29.899  30.376  17.252 -0.0047 -0.4243  0.0906
72755W        W15746   5.968  12.674  18.440 -0.2254 -0.3612 -0.1607
72756W        W15747   2.376  20.104  21.040  0.1767  0.1225 -0.0548
72757W        W15748  17.683  27.854  16.180  0.0126 -0.0076 -0.0356
72758W        W15749  19.558  26.053  16.348  0.2244 -0.2311  0.1833
72759W        W15750  31.134  11.339  20.666 -0.0727  0.0704 -0.1729
72760W        W15751  20.760   2.490  17.082  0.0955  0.2327  0.0036
72761W        W15752   7.007  12.821  15.405  0.4290  0.0934 -0.0173
72762W        W15753  32.468  12.490  20.409 -0.3456 -0.0481  0.0687
72763W        W15754  13.520  15.200  24.935 -0.1141 -0.2366  0.1257
72764W        W15755  26.053  12.129   0.709 -0.1165  0.0083 -0.0225
72765W        W15756  12.477   6.688  17.571 -0.0522  0.1419  0.1295
72766W        W15757  23.638   3.884  14.476  0.1329  0.0947 -0.1839
72767W        W15758  22.399   6.519  26.119  0.0802  0.0810 -0.2108
72768W        W15759  19.404  30.303  21.476  0.3451  0.0752  0.3728
72769W        W15760  25.923  12.994  24.478 -0.2002 -0.1628 -0.1000
72770W        W15761   3.186  28.082  22.894  0.2836 -0.1184 -0.0154
72771W        W15762  18.986   6.943  24.154 -0.2940  0.2352 -0.2111
72772W        W15763  11.444   3.868  16.998  0.1162  0.1726 -0.3420
72773W        W15764   0.622   4.747  15.874 -0.2546 -0.1639  0.1731
72774W        W15765  17.654  17.810  13.460  0.1746  0.0312 -0.3414
72775W        W15766   3.248  26.021  20.570  0.5065  0.1364 -0.1185
72776W        W15767  28.279  11.493  19.650 -0.1895  0.1418 -0.1660
72777W        W15768   6.665  23.103  19.443  0.1214  0.1528 -0.2273
72778W        W15769   5.541  32.019  26.419 -0.1285 -0.3541 -0.0144
72779W        W15770   2.514  17.941  24.800  0.3430 -0.1046  0.0092
72780W        W15771  11.286  12.028  22.223  0.2316  0.2023 -0.3119
72781W        W15772  20.915  29.489  20.674  0.1406 -0.1770  0.0313
72782W        W15773   1.233   8.618   2.238 -0.0105 -0.0404 -0.0922
72783W        W15774   2.506   7.678  27.843  0.1402  0.1331 -0.1192
72784W        W15775   0.329  21.297  20.088  0.0706  0.1778 -0.0938
72785W        W15776  24.310   9.232  18.411 -0.0092  0.0241 -0.1412
72786W        W15777  31.189  22.449  21.156 -0.3469 -0.3508  0.0182
72787W        W15778  23.531  21.225  12.760 -0.1573  0.0617 -0.0502
72788W        W15779  16.775  33.794  21.020 -0.1905 -0.0234  0.1633
72789W        W15780  34.592   3.763  20.847 -0.0971  0.1743 -0.0231
72790W        W15781  24.686  18.853  20.124  0.0319 -0.1249  0.0547
72791W        W15782  10.630   5.559  16.843  0.1187  0.0910  0.1348
72792W        W15783  15.983  12.420  21.548  0.2111  0.0831 -0.1511
72793W        W15784  31.618   1.180   2.633  0.1380  0.0778 -0.1472
72794W        W15785  23.787   7.031  15.881 -0.2480 -0.1060  0.0560
72795W        W15786  33.080  17.691  17.769 -0.0638  0.1541 -0.1434
72796W        W15787   7.317  33.291   2.003  0.0933 -0.0134 -0.2146
72797W        W15788  17.477  24.161  26.494  0.0425 -0.1830  0.0733
72798W        W15789  24.991  17.041  13.062  0.3710  0.1107  0.1915
72799W        W15790   2.385   6.829   2.160 -0.0315 -0.0108 -0.1485
72800W        W15791   6.434  20.182  15.672  0.1739 -0.1159  0.1418
72801W        W15792  28.820  32.710  20.679 -0.0099 -0.2227 -0.0498
72802W        W15793  26.455  20.678  23.108  0.1227 -0.1801 -0.0575
72803W        W15794  15.454  12.458  20.616  0.2011 -0.1774  0.3220
72804W        W15795  33.507  26.158  15.690  0.2434  0.3209  0.1602
72805W        W15796  21.497   6.207  26.007  0.2058  0.1508 -0.1935
72806W        W15797  27.689  22.884  15.845  0.0019  0.1513  0.1547
72807W        W15798  27.673  11.034  23.768 -0.1576 -0.1490 -0.1590
72808W        W15799   4.558   5.629  23.527  0.2555 -0.2076 -0.0177
72809W        W15800  15.230   4.747  24.886 -0.0565 -0.1897 -0.0472
72810W        W15801  16.281  27.510  14.451  0.0823  0.1779  0.2896
72811W        W15802  18.709   2.448  21.109  0.1208 -0.2459  0.0254
72812W        W15803   8.163  17.982  16.407  0.0289 -0.0498  0.1058
72813W        W15804  18.745   6.667  16.097 -0.1609  0.0779  0.1295
72814W        W15805  12.127  29.557  15.068 -0.0961  0.0675  0.0372
72815W        W15806   8.179   6.816  19.649 -0.3204 -0.0853 -0.1559
72816W        W15807   6.645  21.888  21.638  0.2723  0.0326  0.2232
72817W        W15808  28.220   1.302  20.307  0.1733  0.1651  0.1487
72818W        W15809  26.909   9.196  18.537  0.0325 -0.1571 -0.0960
72819W        W15810  18.419   4.431   0.359 -0.3502 -0.2137  0.0734
72820W        W15811  12.036   9.741  29.028  0.2221 -0.0069  0.1732
72821W        W15812  13.210   7.127  26.581 -0.1389 -0.3013 -0.3686
72822W        W15813   9.841   9.784  20.808  0.1629  0.0162  0.3833
72823W        W15814  13.162  31.509  18.352  0.2919  0.0671  0.2421
72824W        W15815   6.546   4.305  21.145 -0.0698 -0.0329  0.0009
72825W        W15816  13.465  21.121  16.310 -0.2625 -0.0144 -0.1993
72826W        W15817  19.213   4.618  13.393 -0.2811  0.1841  0.2913
72827W        W15818  11.485  27.098  19.458 -0.0393 -0.3485  0.4152
72828W        W15819  12.022  11.472  24.636  0.0874  0.1545  0.0417
72829W        W15820  16.977   8.097  16.462  0.0471 -0.2946  0.1320
72830W        W15821  34.768  12.692  27.911  0.1982 -0.1190 -0.1332
72831W        W15822   1.061   4.716   1.190 -0.1657  0.1777  0.0440
72832W        W15823  15.654  13.058  18.509  0.0181  0.0377 -0.3502
72833W        W15824  12.326  18.669  13.321  0.0023 -0.2234  0.0083
72834W        W15825   9.758   1.777  15.290 -0.0975 -0.1617  0.3072
72835W        W15826   2.557  11.835  23.872 -0.0434  0.0306 -0.1730
72836W        W15827   8.771  30.098  21.923 -0.1034  0.0844  0.1516
72837W        W15828   7.497  11.124  25.011 -0.0222  0.4608 -0.0334
72838W        W15829  20.904  14.425   5.615 -0.1010  0.0191  0.1769
72839W        W15830  19.624  11.029  19.136 -0.2789 -0.2442 -0.1477
72840W        W15831  17.690   6.444  17.482  0.1599 -0.0242 -0.2554
72841W        W15832  31.135  28.223  21.271 -0.0745 -0.0975 -0.0819
72842W        W15833  25.674  15.013  19.713 -0.0227  0.0796  0.0747
72843W        W15834  27.357   0.809  19.196 -0.0897 -0.1060  0.2771
72844W        W15835  23.643  18.707  20.008 -0.0490 -0.2742  0.4637
72845W        W15836  10.064   3.410  18.507  0.0721  0.2849  0.0421
72846W        W15837  24.004  10.572  18.120  0.2816  0.1196 -0.0707
72847W        W15838  13.067  16.492   2.547  0.0285  0.3338 -0.5532
72848W        W15839   2.786   4.357  20.847  0.2755 -0.2273  0.2887
72849W        W15840  15.474  19.270  22.706 -0.2761 -0.1122  0.0132
72850W        W15841  12.002  15.692  14.280  0.3048 -0.0469 -0.0831
72851W        W15842  10.810  18.449  16.139  0.1962 -0.1670  0.2397
72852W        W15843   2.694  20.426  21.266 -0.3293  0.1156  0.0215
72853W        W15844  17.119   9.147  24.198 -0.1122  0.2342  0.1508
72854W        W15845   1.434  20.029  21.007 -0.0507  0.1187 -0.2097
72855W        W15846  25.981  14.987  13.575 -0.1265  0.3502 -0.1617
72856W        W15847  29.300   2.439   2.051  0.3489  0.3844  0.2394
72857W        W15848  12.725  24.723  18.906 -0.1262 -0.3059  0.0918
72858W        W15849  12.515   4.358  22.170  0.0829 -0.1658  0.3032
72859W        W15850  21.396  22.882  14.752 -0.0676 -0.0080 -0.0637
72860W        W15851   8.699  21.903  18.330 -0.0244 -0.0451 -0.2471
72861W        W15852  22.816  27.378  23.367  0.2048  0.0272 -0.0878
72862W        W15853  19.235   1.469  25.872 -0.2006 -0.4680 -0.1243
72863W        W15854  20.036  13.766  19.597  0.0437  0.3126 -0.0789
72864W        W15855  20.215   8.682  21.934  0.1639 -0.1096  0.0946
72865W        W15856  34.270  20.257  24.054 -0.2131 -0.5327  0.0665
72866W        W15857  22.605   4.346  27.888  0.0218 -0.0620 -0.0133
72867W        W15858  10.777  15.535  19.017 -0.1529 -0.0614 -0.3532
72868W        W15859  24.050   8.839  19.425  0.1139  0.2251 -0.1477
72869W        W15860  12.085  16.256   2.037 -0.1129 -0.0262 -0.0068
72870W        W15861   3.589   0.943  15.709  0.0198 -0.0109  0.1399
72871W        W15862  14.311  29.534  24.274  0.0485 -0.1505 -0.3815
72872W        W15863  10.772   3.224  16.949  0.0091  0.3238  0.1140
72873W        W15864  11.634  17.142   7.940  0.0389 -0.1151  0.0737
72874W        W15865  23.014  23.128  16.755 -0.2621  0.0324 -0.0675
72875W        W15866  13.751  15.359   8.954  0.1278 -0.0659 -0.1525
72876W        W15867  16.502  33.844   2.400  0.0458  0.0846  0.2148
72877W        W15868   1.144  11.560  27.146  0.0833 -0.0530  0.1450
72878W        W15869   9.798  14.469  29.151 -0.1847 -0.0074 -0.3597
72879W        W15870  11.042  18.466  15.570  0.0213  0.1590  0.3317
72880W        W15871  22.071  30.847  18.245  0.0122 -0.1959 -0.1556
72881W        W15872  12.273  20.744  19.206 -0.1472  0.0757  0.2241
72882W        W15873  22.607  14.621  20.771  0.1782 -0.2552  0.1471
72883W        W15874  24.871  11.403  22.812  0.1346 -0.0340 -0.0183
72884W        W15875  26.049  22.786  18.921 -0.0267 -0.3700  0.0472
72885W        W15876  33.496  11.895  18.758 -0.0577 -0.2025 -0.1213
72886W        W15877  17.548  11.308  15.526 -0.0350  0.2247 -0.0780
72887W        W15878   5.417   6.866  19.066  0.0614  0.0485 -0.0066
72888W        W15879  10.360   3.128  29.185 -0.0678 -0.1538 -0.0271
72889W        W15880  28.772  19.532  14.610 -0.1564  0.0644  0.0775
72890W        W15881  23.598   8.978  18.024 -0.0644  0.3570 -0.0622
72891W        W15882   7.827  11.889  15.868 -0.1743  0.2509  0.0532
72892W        W15883  13.458  17.135  15.565 -0.0741  0.0578  0.3381
72893W        W15884  21.269  18.282  21.831  0.1163  0.1744 -0.1776
72894W        W15885  21.951  18.748  13.292  0.2933 -0.0834  0.2494
72895W        W15886  13.607  19.154  18.993 -0.1334  0.3175  0.1014
72896W        W15887  25.355  14.069   3.324 -0.0016  0.3046 -0.2331
72897W        W15888   4.796  22.108   5.525 -0.0011 -0.1486  0.0395
72898W        W15889  15.357   9.103   0.176 -0.1690 -0.3466  0.1664
72899W        W15890  20.929  27.951  28.878 -0.0225 -0.2535 -0.1841
72900W        W15891  23.388  15.685  27.787  0.1049  0.0544 -0.2031
72901W        W15892  10.153  11.435  28.855 -0.1678 -0.0943  0.2116
72902W        W15893  29.688  22.447  15.570 -0.0199  0.0353 -0.0806
72903W        W15894  25.604  13.381  18.676  0.0385 -0.2378 -0.1364
72904W        W15895  17.906  32.086  23.082 -0.0916 -0.1636  0.0955
72905W        W15896  22.022   5.265  24.559 -0.2043 -0.0736  0.2761
72906W        W15897   3.545  18.732  20.715 -0.0230 -0.0169 -0.1584
72907W        W15898  26.196  22.603  24.565  0.2198  0.0411  0.0016
72908W        W15899  16.963  20.547  16.507  0.1440 -0.2098 -0.0038
72909W        W15900   7.216  21.212  15.284 -0.1016 -0.0015  0.2381
72910W        W15901  15.462  14.204  12.575  0.2253 -0.0553 -0.3092
72911W        W15902  10.639   5.507   5.988  0.1205  0.2765 -0.2073
72912W        W15903  34.345  16.327  18.095 -0.0426 -0.3798 -0.0858
72913W        W15904  12.020  27.891  17.855 -0.2853 -0.2078 -0.1547
72914W        W15905  13.595  16.518  15.877 -0.2487 -0.1248 -0.1656
72915W        W15906   4.329  17.609  16.040  0.0099 -0.1466  0.0743
72916W        W15907  28.800   0.003  25.477 -0.2978 -0.1781 -0.0261
72917W        W15908  26.709  15.228  18.050  0.3342  0.0787 -0.2193
72918W        W15909   6.755  16.872  23.322 -0.1822 -0.0621 -0.1831
72919W        W15910  31.098   1.659  18.824 -0.2048 -0.1185  0.1106
72920W        W15911  19.983  27.819   0.238  0.4665  0.1225  0.0911
72921W        W15912   4.603  10.879   5.056 -0.1641 -0.0517  0.0715
72922W        W15913  17.754   8.689  23.574 -0.0207  0.1919 -0.2413
72923W        W15914  17.489  25.539  23.797  0.1152  0.0769 -0.0187
72924W        W15915  29.022  16.348  21.761 -0.1334 -0.0714 -0.1648
72925W        W15916  30.873  22.946  23.308 -0.0900  0.0406  0.0554
72926W        W15917  25.145   7.160  22.467  0.1000 -0.2121  0.1605
72927W        W15918  13.038  21.604  14.272  0.1204  0.0730  0.1250
72928W        W15919   8.819   3.276  16.771 -0.1228 -0.1434 -0.0882
72929W        W15920   9.694  12.224  18.573  0.0477 -0.2654 -0.1829
72930W        W15921   5.175  15.509  26.697  0.3487 -0.1052  0.1443
72931W        W15922  33.656  11.155   8.160  0.0818 -0.1362 -0.0059
72932W        W15923  12.088  22.629  15.073  0.0046  0.2163 -0.0482
72933W        W15924  17.286   7.561  23.047  0.0225 -0.0732 -0.0410
72934W        W15925  20.464  31.242  14.487 -0.0825  0.2923 -0.0921
72935W        W15926  12.708  20.517  28.621 -0.3165 -0.0735  0.0306
72936W        W15927  24.761  10.945   4.205 -0.0909 -0.3506 -0.2841
72937W        W15928  22.540   9.725  18.433 -0.3064 -0.0365 -0.1327
72938W        W15929  19.743  11.139  23.684 -0.1666  0.1758 -0.2763
72939W        W15930  21.614   5.297  19.449  0.2576 -0.2504 -0.1486
72940W        W15931  22.057  24.335  23.350 -0.0518 -0.1286 -0.1053
72941W        W15932   8.921  28.109  18.303 -0.2201 -0.1606  0.1940
72942W        W15933  26.718   4.430   2.193 -0.4032  0.0473  0.3799
72943W        W15934   9.153   9.047  20.792 -0.4533 -0.2146  0.1879
72944W        W15935  20.193   8.870  13.494 -0.1137  0.1891  0.3086
72945W        W15936  23.906   4.860  24.365 -0.0818  0.1719  0.0465
72946W        W15937  33.330   9.958  24.037 -0.1020 -0.0649 -0.0040
72947W        W15938  22.751  31.067  14.946 -0.0860  0.0608  0.0259
72948W        W15939  26.414  11.281  28.252 -0.1121 -0.0120 -0.1419
72949W        W15940   7.648  20.939   1.338  0.5023 -0.0151  0.2456
72950W        W15941  18.937  12.245  21.423  0.2228 -0.2278 -0.0979
72951W        W15942  34.335  29.378  20.671 -0.1667 -0.0780 -0.2849
72952W        W15943  17.828  16.797  28.969 -0.0374 -0.1404 -0.0754
72953W        W15944  14.005  27.980  27.495  0.1689 -0.0314 -0.0522
72954W        W15945  12.977  15.275  19.292 -0.1244  0.1470  0.0091
72955W        W15946  20.565  21.048  23.144 -0.0340 -0.0075 -0.3657
72956W        W15947  24.707   9.067  15.616 -0.1205  0.1860  0.0858
72957W        W15948   0.264  14.309  27.327 -0.3538 -0.0349  0.0292
72958W        W15949  22.268  23.214  26.073  0.1177 -0.1730 -0.3884
72959W        W15950   7.018  20.917  28.879 -0.1447 -0.0350  0.0173
72960W        W15951   1.438  12.342  21.422  0.1026 -0.0715  0.3520
72961W        W15952  20.499  13.433  18.684 -0.4049 -0.0782  0.2895
72962W        W15953  15.735  10.502  16.035  0.2378  0.2232  0.3368
72963W        W15954  32.274  22.104  15.174 -0.2378 -0.3073  0.0864
72964W        W15955  14.996  12.033  15.229  0.2277 -0.0400 -0.0076
72965W        W15956  14.315  25.958  13.961 -0.3311 -0.1420  0.2566
72966W        W15957   7.913  14.869  27.767  0.0170  0.2470 -0.1860
72967W        W15958  18.048  17.197  14.798 -0.1889 -0.0192 -0.1920
72968W        W15959  28.148  15.557  27.179  0.1089  0.3542  0.2077
72969W        W15960  21.321  25.468  27.302  0.2162 -0.2391  0.0805
72970W        W15961   7.536   9.007  28.799  0.0920 -0.0505  0.2361
72971W        W15962  16.090  19.365  14.111  0.2517  0.2296 -0.2483
72972W        W15963   8.625  31.871  18.744  0.2146 -0.4111 -0.0669
72973W        W15964  24.455  15.752  19.999  0.0124 -0.0934 -0.1595
72974W        W15965  15.684   9.632  18.160  0.0884  0.2264  0.0331
72975W        W15966  13.625  12.989  16.730 -0.1209 -0.1703 -0.2890
72976W        W15967   7.362   3.799  22.359 -0.1733  0.0813 -0.1528
72977W        W15968  25.759  18.870  17.948  0.3204  0.2049  0.1524
72978W        W15969  12.809  18.352   3.743  0.1430  0.0936 -0.0215
72979W        W15970  20.572  15.901  15.753  0.1406 -0.1140 -0.2747
72980W        W15971  20.408  16.466  12.336  0.1503 -0.1894  0.0775
72981W        W15972  33.855  20.970  14.487 -0.0176  0.0709  0.2273
72982W        W15973  20.571   8.459  18.524  0.1616  0.1207  0.2422
72983W        W15974  24.522   6.650  29.179 -0.1512 -0.1668  0.1246
72984W        W15975   8.339   6.082   1.017 -0.1139 -0.1009  0.1660
72985W        W15976  19.781  26.350  14.697  0.1891 -0.0374 -0.0111
72986W        W15977   9.118   3.915  27.150 -0.2581  0.2991 -0.2363
72987W        W15978  32.368   4.914  18.438  0.1569 -0.3685  0.3556
72988W        W15979  24.283  12.006   0.093 -0.2393 -0.2862 -0.1800
72989W        W15980  24.376  14.481  14.641  0.2911  0.2037  0.0488
72990W        W15981  11.287   5.862  15.071 -0.1675 -0.1417 -0.2698
72991W        W15982  34.633  22.698  25.872  0.3293 -0.2103  0.1143
72992W        W15983  19.100  11.822  13.513  0.0149 -0.2426 -0.0193
72993W        W15984  33.357  15.815   1.539  0.2299  0.3651 -0.1589
72994W        W15985  18.106  14.024  25.756 -0.2360  0.0152 -0.2107
72995W        W15986   3.510   8.056  28.376  0.0596  0.1057  0.1123
72996W        W15987   8.767  25.615  18.308 -0.0249  0.2519  0.2818
72997W        W15988  19.331  20.959  27.513 -0.1333  0.0075 -0.1021
72998W        W15989  11.334  21.466  26.429  0.2505  0.2808 -0.1579
72999W        W15990  18.343  12.496  16.144  0.2617 -0.1148 -0.2944
73000W        W15991  11.895  31.590  19.629 -0.2436  0.1152  0.2210
73001W        W15992  24.415  15.058  19.297  0.1374 -0.0551 -0.0222
73002W        W15993  21.824  32.374  18.578  0.2656  0.0356  0.0389
73003W        W15994   2.468  13.741  16.192  0.2304  0.0860 -0.1178
73004W        W15995  13.498  23.042  21.367 -0.1668 -0.1316  0.0245
73005W        W15996  12.917  34.313  23.612 -0.1148 -0.3096 -0.0585
73006W        W15997   8.101  12.965  26.862  0.0935  0.2951 -0.1146
73007W        W15998  13.342   4.968   2.146 -0.2766  0.2669  0.0238
73008W        W15999  11.477   5.700   0.443 -0.1334 -0.1887  0.2940
73009W        W16000  24.816  31.168  25.827  0.1393  0.0047 -0.4101
73010W        W16001   9.611  17.249  24.058  0.1582 -0.1202 -0.0788
73011W        W16002  14.059  26.350  18.356  0.1680 -0.1338 -0.5696
73012W        W16003  10.739  27.560  25.718 -0.0303  0.0912  0.1602
73013W        W16004   6.030  11.113  24.632  0.3656  0.1946  0.0658
73014W        W16005  10.885   2.435  16.161  0.0228 -0.3104 -0.0839
73015W        W16006  13.193  21.347  27.108 -0.0300 -0.0048  0.1331
73016W        W16007  25.180  13.675  25.790 -0.0859 -0.2016  0.0457
73017W        W16008  10.453  14.301  22.282  0.0568  0.2483 -0.5103
73018W        W16009  16.722  19.841  14.008  0.1168  0.0929  0.0837
73019W        W16010  33.239  20.469   3.390  0.0382  0.0750 -0.2382
73020W        W16011  19.818  28.089  15.309  0.2961  0.0317  0.0354
73021W        W16012  13.944  18.876  25.625 -0.0129 -0.1157  0.0058
73022W        W16013  15.406  18.036   1.839 -0.0510  0.0678 -0.0028
73023W        W16014  11.052  16.704  15.661  0.2048 -0.0812 -0.2364
73024W        W16015  22.920  22.364  15.575  0.0407 -0.1268  0.0733
73025W        W16016  14.449   6.099  21.537 -0.1977  0.1845 -0.0615
73026W        W16017  24.386   4.835  18.852 -0.1384 -0.0455 -0.1518
73027W        W16018  21.811  10.115  14.803 -0.0188  0.0827  0.0447
73028W        W16019   2.228  11.167  17.106 -0.0929  0.0004 -0.2001
73029W        W16020   8.509  21.777  18.771 -0.2066  0.3050  0.0336
73030W        W16021   2.076  27.589  17.748 -0.0617 -0.2849  0.0112
73031W        W16022  17.613   8.157  16.523 -0.4272  0.1479  0.2304
73032W        W16023  24.762  24.172  20.220  0.0084  0.0324  0.0493
73033W        W16024  24.248   3.739   2.937 -0.0391 -0.2761  0.2267
73034W        W16025  18.243  11.954  14.445 -0.0388  0.0822 -0.0871
73035W        W16026  19.557  11.190  15.145  0.2519  0.1338  0.2311
73036W        W16027  16.121  10.117  22.253 -0.1735 -0.2176 -0.0342
73037W        W16028  25.709  15.827  15.157  0.1588  0.3746 -0.0936
73038W        W16029  15.409  14.557  13.599  0.2525 -0.0077 -0.1993
73039W        W16030  28.560  32.409  29.099 -0.2376 -0.3857 -0.0777
73040W        W16031  16.940  13.990  24.654 -0.1846 -0.0177 -0.0417
73041W        W16032   8.371  13.787   3.611 -0.4244 -0.1663  0.3472
73042W        W16033  17.456  10.378  14.422 -0.3005  0.0678 -0.1066
73043W        W16034  18.814   4.338  18.974  0.2141 -0.1282  0.1957
73044W        W16035  30.913   9.258   8.154  0.0076  0.1522 -0.1748
73045W        W16036   9.445  17.597  16.163 -0.0247 -0.2165  0.2083
73046W        W16037  12.006   1.590  25.067 -0.3755  0.1022 -0.0040
73047W        W16038  10.768   8.449  26.031  0.1732  0.1108  0.2252
73048W        W16039  19.508   8.375   5.806 -0.1437  0.1461 -0.3158
73049W        W16040  19.788   3.007  15.009  0.1559 -0.3633 -0.0269
73050W        W16041  15.252  11.672  23.045 -0.1280 -0.1018 -0.0199
73051W        W16042   7.872  21.332  18.773 -0.1229 -0.0778  0.1359
73052W        W16043  22.174   7.360  16.159  0.0613  0.2664  0.0837
73053W        W16044  15.457   9.501  19.017  0.0985 -0.2427  0.0940
73054W        W16045  11.131  21.911  24.157  0.3822 -0.2381  0.1148
73055W        W16046  28.442   6.568  13.644 -0.1990  0.3029  0.3777
73056W        W16047  17.013  11.975  10.160 -0.0247 -0.2526  0.0582
73057W        W16048  28.992   7.523  14.691  0.1165  0.3717  0.1071
73058W        W16049  19.782  13.360  15.606 -0.0572 -0.0289 -0.2995
73059W        W16050  11.375  15.736  16.599 -0.0989 -0.1594 -0.0519
73060W        W16051  15.463  22.961  22.793  0.1025 -0.2088 -0.0872
73061W        W16052  18.063   5.042  14.377 -0.0429 -0.0831  0.2285
73062W        W16053   6.672  34.014  14.710  0.2181 -0.0996 -0.0593
73063W        W16054  29.861  18.139  18.587  0.1514 -0.0743  0.0080
73064W        W16055  14.113  28.421  16.009  0.2238  0.2601  0.1686
73065W        W16056   9.264  11.836  21.730 -0.0246 -0.1614  0.0758
73066W        W16057  30.898  16.332  20.897  0.4369  0.2592  0.2009
73067W        W16058  25.380  14.032  15.422  0.0832 -0.0127  0.0763
73068W        W16059  14.118  24.095  20.010  0.0196 -0.3635  0.0336
73069W        W16060   8.470  33.002  21.025 -0.1065  0.1310  0.1271
73070W        W16061  16.762  10.233  25.643 -0.1611  0.0707 -0.0645
73071W        W16062  15.047  19.008  13.380 -0.4783 -0.1239 -0.0049
73072W        W16063  27.755  29.421  16.959 -0.1253  0.1655  0.3176
73073W        W16064  27.230  11.254  25.316 -0.1092  0.0004 -0.0152
73074W        W16065  15.951  12.396  17.671  0.0078  0.1850 -0.0722
73075W        W16066  18.226   4.434  28.799 -0.1144 -0.2408 -0.0697
73076W        W16067  33.065   8.971   5.250  0.1113 -0.1046 -0.0248
73077W        W16068  27.799  29.658   5.325  0.2410 -0.1932  0.0123
73078W        W16069  30.567  19.744  22.930  0.1888  0.3675  0.3217
73079W        W16070  13.254  13.133  15.336 -0.0366  0.1687  0.1677
73080W        W16071  33.245  10.905  20.962 -0.2688  0.1421 -0.1511
73081W        W16072   9.958  18.091  25.075  0.1436 -0.2172  0.1600
73082W        W16073  23.226   9.547   4.891 -0.2953 -0.0994 -0.3636
73083W        W16074   2.165  21.583  28.352  0.2020 -0.0144 -0.2860
73084W        W16075  15.971   1.024   9.419 -0.2879 -0.2189  0.0933
73085W        W16076  30.503  20.708  19.704  0.1957 -0.0099 -0.2270
73086W        W16077  26.824  24.783  21.513  0.0416  0.1943  0.0676
73087W        W16078  24.005   5.409  20.171  0.0966 -0.0415 -0.0129
73088W        W16079  25.861  11.447  25.346 -0.0657 -0.1108 -0.1905
73089W        W16080  17.805  22.287  25.647 -0.1360  0.0754  0.1345
73090W        W16081   9.526  24.610  18.203 -0.0655 -0.2009 -0.1503
73091W        W16082  11.146   4.217   9.457  0.0503  0.1286  0.2227
73092W        W16083  15.585  14.881  13.212  0.0274  0.0506 -0.1072
73093W        W16084   8.483   9.062  21.347  0.0397 -0.0415  0.3106
73094W        W16085  33.057  10.519  18.406  0.4818  0.0741  0.2797
73095W        W16086   0.852  12.846  27.905 -0.1353  0.3220 -0.0187
73096W        W16087  14.915  11.658  19.836  0.0801  0.2738 -0.4276
73097W        W16088  13.723  30.508  26.204  0.4044 -0.1383  0.1817
73098W        W16089  12.199   7.972  20.166 -0.2753  0.0640  0.1032
73099W        W16090   9.005  28.056  18.918  0.0107  0.0622 -0.3626
73100W        W16091  17.753  12.757  20.582 -0.1110 -0.0157 -0.4929
73101W        W16092   2.960  16.310  21.824 -0.1998  0.2814 -0.2454
73102W        W16093  34.048  24.136  20.475 -0.0300 -0.4237 -0.1200
73103W        W16094   0.580   7.572   4.757 -0.0034 -0.1633  0.2338
73104W        W16095  14.242  21.698  16.941 -0.1018 -0.3283  0.1505
73105W        W16096   3.138  11.459  28.530  0.1050  0.0278  0.0971
73106W        W16097  26.300   8.956   1.555 -0.0113 -0.2134 -0.0981
73107W        W16098  17.437  23.264  19.684  0.1373 -0.1279 -0.0269
73108W        W16099  24.446   5.558   6.140  0.0402 -0.0380 -0.1069
73109W        W16100  13.108  17.231  20.186 -0.1448  0.1172 -0.2261
73110W        W16101  23.661  17.628  23.932 -0.0142 -0.0386  0.1497
73111W        W16102  19.448   5.953  25.409 -0.1610 -0.2030  0.0700
73112W        W16103  22.556  20.008  17.960  0.0214  0.1341 -0.2246
73113W        W16104  19.767   5.544  15.478  0.0588  0.0037 -0.1625
73114W        W16105  20.766   0.810  21.633  0.3091 -0.1174  0.1594
73115W        W16106  12.992  28.260  16.597  0.0350  0.1191 -0.4115
73116W        W16107   9.761   9.356  23.624 -0.0488  0.0349  0.3823
73117W        W16108  14.691  28.686  23.402  0.2128 -0.0555  0.2573
73118W        W16109  17.159  12.767  17.663 -0.0014  0.1298  0.2880
73119W        W16110  11.803  17.361  22.420  0.0282  0.4712 -0.2365
73120W        W16111  12.353  29.969  22.326  0.0256 -0.3587 -0.1420
73121W        W16112  15.731  10.321  18.793 -0.1212  0.4168  0.0335
73122W        W16113  15.319   9.409  14.936 -0.1738  0.0033  0.2562
73123W        W16114  14.181  12.761  15.052  0.1338  0.0701 -0.1040
73124W        W16115  20.887  25.161  17.515  0.0783  0.0187 -0.1739
73125W        W16116  17.410   6.524   3.197 -0.1454  0.0450 -0.0324
73126W        W16117  13.563  12.774  14.041  0.2095  0.1594 -0.1307
73127W        W16118  23.419  23.001  18.367  0.0573 -0.1421  0.2008
73128W        W16119   5.381  27.525  13.829 -0.2626  0.0579  0.1216
73129W        W16120  11.803  17.096   3.653 -0.0398  0.1824  0.2798
73130W        W16121  14.553  30.212  28.471 -0.0012  0.0467 -0.3735
73131W        W16122  11.016  26.245  25.411  0.1489  0.0469  0.0139
73132W        W16123  17.788  33.762   0.819  0.2261  0.1150  0.1546
73133W        W16124  11.279   8.831  10.789 -0.0368  0.0775  0.0372
73134W        W16125  18.283  10.063  13.911  0.0696 -0.1320  0.0327
73135W        W16126   8.517  28.425  24.048  0.1895 -0.0525  0.0944
73136W        W16127  33.652  26.011  19.888  0.0792  0.2845 -0.3364
73137W        W16128  24.447  17.338   1.380 -0.0303  0.1061  0.0839
73138W        W16129  20.252  24.265  27.930 -0.0537 -0.1677 -0.0304
73139W        W16130  19.915   9.384   4.422  0.0562 -0.3642 -0.1721
73140W        W16131  21.898  15.305  19.036  0.1246  0.4028  0.1929
73141W        W16132  17.772  11.757  17.356 -0.0826 -0.0201 -0.1561
73142W        W16133  26.563   8.835  17.639 -0.0015 -0.1357  0.2374
73143W        W16134  25.714  13.896   9.550 -0.0337  0.0871  0.1808
73144W        W16135  19.539  24.159  14.346  0.1930 -0.1060  0.1923
73145W        W16136   3.331  15.330   5.212 -0.1541 -0.1383  0.0075
73146W        W16137  26.962  10.932  22.720  0.0163  0.0177  0.0032
73147W        W16138  30.012  14.001  18.236 -0.0495 -0.0603 -0.1227
73148W        W16139  18.969  14.694  29.085  0.4127  0.2933  0.0965
73149W        W16140  23.623  31.416   2.686 -0.3277 -0.1268 -0.2485
73150W        W16141  34.751  27.498  24.222  0.0129  0.2344 -0.1037
73151W        W16142  20.166  21.736  17.976 -0.1289 -0.2501 -0.2150
73152W        W16143  29.589   7.159  21.177 -0.1304 -0.0742  0.1259
73153W        W16144  23.800   5.864   3.164 -0.1491  0.2986  0.0416
73154W        W16145   2.918  18.061  23.648 -0.0669 -0.0915 -0.1066
73155W        W16146  26.806  21.372  15.617  0.2781  0.2581 -0.1517
73156W        W16147  26.514   8.521  23.382  0.0676  0.0292  0.3885
73157W        W16148  10.710  14.891  15.608 -0.0374 -0.1230 -0.1679
73158W        W16149   2.487   5.718   1.055  0.4644 -0.1297 -0.3104
73159W        W16150  18.788  13.226  13.350  0.1352  0.4422 -0.1149
73160W        W16151  23.909  31.270  24.155 -0.0285  0.0033  0.1033
73161W        W16152   3.617   0.039  16.239  0.1064  0.1967  0.1792
73162W        W16153  17.586  20.744  19.104 -0.1688  0.0941  0.1137
73163W        W16154  12.588  21.482  23.310 -0.2390 -0.2562  0.2606
73164W        W16155  11.086   4.898  14.580  0.2104 -0.2271 -0.0921
73165W        W16156   8.054   4.894  14.997 -0.4660 -0.0234 -0.1767
73166W        W16157  14.997  12.750  18.834  0.3155  0.2688 -0.0288
73167W        W16158   6.443  15.359  20.648  0.2531 -0.3003 -0.3947
73168W        W16159   8.266   4.494  28.206  0.0176 -0.0656  0.0769
73169W        W16160   8.465  21.299  14.883 -0.0129  0.1654 -0.0857
73170W        W16161  32.144  11.614  26.628 -0.1239  0.2143 -0.0325
73171W        W16162   9.991  28.584  20.657 -0.3082 -0.0099 -0.2117
73172W        W16163  32.390   3.864  10.201 -0.0321  0.1063  0.2810
73173W        W16164   9.630   9.143   3.926 -0.2745  0.0465 -0.0532
73174W        W16165  23.620  15.865  23.014 -0.0556  0.1968 -0.0517
73175W        W16166  15.651   7.877  18.656 -0.1152  0.1002 -0.2396
73176W        W16167  30.579  16.061  22.410  0.0372  0.1003  0.0437
73177W        W16168   3.595  15.840  19.712 -0.0358  0.0319  0.1278
73178W        W16169  32.538  20.047  26.135 -0.1305 -0.0478 -0.1411
73179W        W16170  22.932   7.188  20.610  0.0234  0.0489  0.0709
73180W        W16171  16.118   9.070  25.303  0.0047 -0.4077 -0.0260
73181W        W16172  20.914  31.250  15.208 -0.1243  0.0452  0.1197
73182W        W16173  12.700  31.460  18.210  0.0508 -0.4890  0.0471
73183W        W16174  15.472   9.904  27.726 -0.1556  0.3687  0.1213
73184W        W16175   5.003   4.015  17.307  0.1452  0.2662  0.1083
73185W        W16176  10.435   2.822  24.205 -0.1779 -0.0208  0.2280
73186W        W16177   2.138  11.531  23.857 -0.1581 -0.1766  0.1105
73187W        W16178  20.284  32.525  28.717 -0.0322  0.0510  0.0831
73188W        W16179  17.576  21.508  23.856  0.1208  0.0792  0.0206
73189W        W16180  20.868  22.047  16.993  0.0399 -0.2565  0.0656
73190W        W16181  17.644  12.956   3.462  0.1583  0.1634  0.0500
73191W        W16182  13.285  10.974  23.447  0.0023  0.1488  0.0831
73192W        W16183   0.956   1.967  17.684  0.0647 -0.1199  0.0859
73193W        W16184  12.959  34.141  16.444 -0.2520 -0.0315 -0.1282
73194W        W16185  13.262  30.121  18.758 -0.1176 -0.0127  0.0048
73195W        W16186   1.704  16.549  10.347 -0.2115 -0.1077  0.1181
73196W        W16187  28.641   3.113  24.003  0.2304  0.1555 -0.2044
73197W        W16188  18.331  27.402  19.038 -0.1660  0.0097  0.1045
73198W        W16189  21.986  34.457   6.226  0.1471 -0.2457 -0.0061
73199W        W16190   7.143  29.704  16.657 -0.2455  0.4081 -0.0761
73200W        W16191  25.707  13.774   6.923  0.0398 -0.0507 -0.1277
73201W        W16192  19.276   6.819   7.182 -0.0408  0.0692  0.1322
73202W        W16193  10.460   3.190  18.235  0.5174 -0.1705  0.0961
73203W        W16194   8.584  12.452  21.164 -0.3541  0.2144  0.1099
73204W        W16195  10.123   4.246  15.697  0.0620 -0.0294 -0.4480
73205W        W16196  21.093  21.351  28.847 -0.0985  0.0446  0.0166
73206W        W16197  23.320   1.943   5.623 -0.0260 -0.0028 -0.1051
73207W        W16198  26.875   8.690  25.908  0.0779 -0.1714  0.0559
73208W        W16199   7.436  29.141  24.636 -0.1175  0.3480  0.0748
73209W        W16200  12.399  24.875  17.525 -0.0789  0.1170 -0.0364
73210W        W16201  15.711  32.654  24.838  0.1934 -0.1181  0.3514
73211W        W16202  13.596  14.419  15.778  0.3339  0.4242  0.3793
73212W        W16203  12.520   5.991  21.151 -0.4272 -0.1449  0.0394
73213W        W16204  25.483   6.964  17.459 -0.1445 -0.0410  0.0387
73214W        W16205  22.964  10.716   2.337 -0.2395 -0.2858  0.1243
73215W        W16206  12.837  18.730  22.278 -0.0117  0.1523 -0.2931
73216W        W16207  20.790   2.962  19.728 -0.0536  0.0037  0.0284
73217W        W16208   3.370  32.785  14.892 -0.3944 -0.1912 -0.2872
73218W        W16209  15.036  33.346  19.813 -0.0333 -0.0019  0.3586
73219W        W16210   6.788  14.498   0.369 -0.1501  0.3507  0.2707
73220W        W16211  16.072  19.341  14.616  0.3393 -0.3197 -0.2665
73221W        W16212   3.713  20.319  15.921 -0.1138  0.2681 -0.2330
73222W        W16213   5.438  10.263  16.781 -0.0578  0.0843 -0.2017
73223W        W16214  24.265   8.639  19.903  0.2249 -0.0018 -0.0908
73224W        W16215  26.600   5.077  16.930 -0.1098  0.0416 -0.0900
73225W        W16216  12.613  33.434  23.892 -0.0461  0.1624 -0.0580
73226W        W16217  29.040  32.390  26.572 -0.0825 -0.0848  0.0694
73227W        W16218  13.936  10.623  15.558  0.1218  0.0261  0.3617
73228W        W16219  30.703  10.535  18.787  0.0451 -0.1448 -0.4935
73229W        W16220  20.640  24.921  14.525 -0.4142  0.0812 -0.0448
73230W        W16221  13.691  12.334  18.574  0.0684  0.2500 -0.1078
73231W        W16222  18.880  25.370  17.478  0.1794  0.3439  0.0888
73232W        W16223  27.608  13.128  14.634 -0.0599 -0.1457  0.0766
73233W        W16224  31.775  13.578  28.416 -0.1368  0.0198 -0.3622
73234W        W16225  24.351  21.461  19.505  0.2864 -0.1244 -0.0572
73235W        W16226  16.975   7.502  18.607 -0.0026 -0.2106 -0.0010
73236W        W16227  17.360  11.409  10.161  0.2548 -0.2361 -0.4181
73237W        W16228  24.783   8.268  15.340 -0.2122 -0.1366  0.2714
73238W        W16229  24.698   9.561   9.287  0.0980 -0.0195  0.1463
73239W        W16230   9.092   1.907   0.823 -0.2848  0.0332  0.0146
73240W        W16231  11.202  28.013  22.209  0.1467 -0.1863  0.1386
73241W        W16232  10.093   3.094  17.491  0.2123  0.2529  0.0512
73242W        W16233  14.560  13.863  16.058 -0.2718  0.0287  0.0800
73243W        W16234   3.898  21.993  17.299  0.3079  0.2520  0.1006
73244W        W16235  11.963  19.745   2.019 -0.1096  0.0834  0.5272
73245W        W16236  32.057  18.723  25.729 -0.0912 -0.2896 -0.2227
73246W        W16237  24.495  17.070  13.720 -0.1807  0.0864 -0.0523
73247W        W16238  12.105  25.843  19.329  0.1991  0.2526  0.4619
73248W        W16239  24.731   2.821  22.955  0.0587  0.0960  0.2010
73249W        W16240   1.828   3.134  14.789  0.2836 -0.1178 -0.2388
73250W        W16241  30.000  12.124  24.680 -0.0995  0.0548  0.0647
73251W        W16242  18.535   5.981   0.103  0.0908 -0.0753 -0.0704
73252W        W16243  19.974  33.502  21.263  0.0298  0.0538 -0.0039
73253W        W16244  15.133  15.136  15.907 -0.1029 -0.3014  0.1222
73254W        W16245  17.205   6.773  20.507 -0.1344 -0.0632  0.0067
73255W        W16246  30.757  26.743  24.233  0.1108  0.1461 -0.0547
73256W        W16247  15.965  23.572  14.636  0.0417 -0.1473 -0.0199
73257W        W16248  11.096   9.495  19.462 -0.2356 -0.0666  0.3758
73258W        W16249  13.896  22.327  22.838 -0.1410  0.1591  0.3109
73259W        W16250  10.942  20.260  17.551  0.0759  0.0556  0.3733
73260W        W16251  16.542  31.526  26.228  0.2142  0.2171  0.0047
73261W        W16252   9.681  12.660  20.329  0.0669 -0.0878  0.2931
73262W        W16253  21.008  16.912  15.223 -0.0169  0.2237 -0.2719
73263W        W16254  28.150  21.618  14.345  0.1081 -0.0433 -0.0441
73264W        W16255  23.649  15.335  29.112  0.0714 -0.3125  0.2070
73265W        W16256  23.945  29.996  20.968 -0.3248 -0.2104  0.2138
73266W        W16257  15.513  10.362  27.964 -0.0026  0.3267 -0.0161
73267W        W16258   9.998  17.374  24.947 -0.0043  0.1008  0.1549
73268W        W16259  19.164  13.483  21.000  0.0150  0.0505  0.2845
73269W        W16260  13.289   6.218  26.275 -0.1761 -0.0628  0.0425
73270W        W16261  17.437   0.010   5.023  0.0164  0.1304 -0.2323
73271W        W16262  22.294   2.879  14.422  0.2624 -0.0409 -0.0918
73272W        W16263   6.954  11.274  10.411 -0.2855 -0.0577  0.3897
73273W        W16264   1.029   0.805  16.206 -0.2495  0.3097 -0.1202
73274W        W16265  15.292  26.686  25.085  0.3371  0.1577  0.1041
73275W        W16266  13.625   2.017  17.605  0.1671 -0.3890  0.2853
73276W        W16267  27.723   8.409  27.725 -0.0359  0.0924  0.1447
73277W        W16268  26.488   3.075  22.539 -0.2669 -0.3895 -0.3503
73278W        W16269  21.585   5.228  18.520  0.1673 -0.1390 -0.0314
73279W        W16270   3.991  13.323   6.943 -0.0229  0.1401 -0.1426
73280W        W16271   1.403   6.315   2.628 -0.2058  0.2031  0.3428
73281W        W16272  29.398   5.004   6.228 -0.2116  0.1003 -0.1057
73282W        W16273  11.266   1.678   7.338  0.3286  0.1969  0.0107
73283W        W16274  17.386  14.636  12.076  0.0065  0.0654 -0.2169
73284W        W16275  22.074  12.476  26.718  0.0963 -0.1073  0.1590
73285W        W16276  32.743  10.056   6.860  0.1308  0.0526  0.2532
73286W        W16277  24.427  18.709  25.400 -0.0501  0.1325  0.0002
73287W        W16278  26.433   6.831  18.419  0.2778 -0.2174  0.1317
73288W        W16279  19.555  19.967  18.698  0.3538 -0.1038 -0.0866
73289W        W16280  14.824  21.879  24.594  0.0038 -0.1136  0.1923
73290W        W16281  16.560   2.452  16.153  0.0443 -0.3325 -0.1597
73291W        W16282  18.782  10.370  21.929 -0.1542 -0.1701 -0.0223
73292W        W16283  12.121  13.991   5.056  0.2738 -0.0830  0.1079
73293W        W16284  23.987  14.171  17.026 -0.2338  0.0585 -0.0188
73294W        W16285  10.669   8.600  16.727 -0.0411 -0.2858 -0.5294
73295W        W16286   4.506  14.562   2.526  0.0056 -0.1392  0.3086
73296W        W16287  14.759   6.944   0.791  0.2985  0.2574 -0.1841
73297W        W16288  19.980   4.640   3.009  0.1289  0.2180  0.2107
73298W        W16289  13.277   7.166  18.516 -0.0461 -0.2758  0.0348
73299W        W16290   7.378  33.887  27.305 -0.2078 -0.1203  0.0411
73300W        W16291   2.198  25.261  24.391 -0.0602  0.2876 -0.1339
73301W        W16292  12.996  20.090  20.962 -0.0311 -0.1475  0.1876
73302W        W16293  20.566   3.039   2.928 -0.2939  0.1906  0.1243
73303W        W16294  30.530  27.970  20.377  0.2549 -0.4634 -0.4728
73304W        W16295  13.514   6.745  16.681 -0.5972 -0.0907  0.1456
73305W        W16296  31.744  19.545  23.325  0.0395  0.1053  0.5532
73306W        W16297  12.951  30.685  21.523 -0.1437 -0.1394  0.6059
73307W        W16298  17.743  11.545  22.635 -0.0181 -0.0470  0.1426
73308W        W16299  23.415   7.057  20.524  0.0418 -0.5518 -0.0443
73309W        W16300  26.174   3.858  18.103  0.0135  0.0755  0.1110
73310W        W16301   2.453  13.328  16.668  0.3118 -0.1441 -0.3370
73311W        W16302  26.794  11.689  17.277  0.1217 -0.1450  0.1276
73312W        W16303  18.777  21.363  19.222  0.0654  0.2251  0.1312
73313W        W16304  19.507   7.920  27.201 -0.2383  0.1868 -0.2944
73314W        W16305   1.712  11.139  20.791  0.2399  0.3080  0.0537
73315W        W16306   9.727  20.044  19.438 -0.3411 -0.2979  0.1663
73316W        W16307  24.802   3.990  24.078 -0.2579 -0.0585  0.2480
73317W        W16308  19.478   2.156  27.090 -0.0353  0.1042 -0.0652
73318W        W16309  21.034  33.516  27.950 -0.1263 -0.2648  0.2118
73319W        W16310   9.620  13.868  17.046  0.0031 -0.1817 -0.3335
73320W        W16311  29.624  17.811  28.188 -0.1240  0.1312 -0.0124
73321W        W16312  17.604  23.476  22.533  0.0263 -0.0261  0.0576
73322W        W16313  20.619   8.237  27.053  0.3456 -0.1264  0.0338
73323W        W16314  10.470   7.866  28.681  0.1675  0.2428  0.1125
73324W        W16315  30.141  24.868  24.226 -0.0805  0.0639 -0.0313
73325W        W16316  17.553   5.081   8.358 -0.4193  0.0143  0.1364
73326W        W16317   5.454  34.273   2.717 -0.1059  0.1002  0.0156
73327W        W16318  12.909  24.740  26.109  0.1382 -0.1372 -0.1896
73328W        W16319  16.849  26.558  20.922  0.0197  0.2880 -0.1347
73329W        W16320  22.113  14.164   4.367  0.0632  0.0391  0.1243
73330W        W16321  19.664  22.114  20.143 -0.2033  0.1222  0.1253
73331W        W16322   2.069  26.528  27.761 -0.0222 -0.0295  0.0275
73332W        W16323  27.244   1.057   0.662  0.1456  0.1453  0.2278
73333W        W16324   3.902  19.896  19.104 -0.0137  0.1087 -0.1211
73334W        W16325   0.907  17.439   5.600  0.2227 -0.0111 -0.1882
73335W        W16326  11.692  10.417  22.822  0.2670  0.0464 -0.0321
73336W        W16327   0.879   1.076   2.435  0.2207 -0.0917 -0.5176
73337W        W16328   9.585  10.167   3.001 -0.1697  0.2810 -0.1561
73338W        W16329  10.391  33.557  20.549  0.1822  0.1807 -0.1595
73339W        W16330   2.476  11.798   2.695  0.4639 -0.1385 -0.2414
73340W        W16331  15.345  15.560  15.978  0.1792 -0.0829 -0.3216
73341W        W16332  11.875   1.443  11.164  0.1506 -0.0030  0.1545
73342W        W16333   2.834   8.009   4.965 -0.2269  0.0890 -0.1053
73343W        W16334  26.191  11.197   3.890  0.0027  0.0362 -0.1118
73344W        W16335  17.872   4.791  20.613 -0.2303 -0.0726 -0.1242
73345W        W16336  22.967   3.027  27.393 -0.1704  0.2072 -0.1887
73346W        W16337  18.820  19.501  13.067 -0.3236 -0.3125  0.0429
73347W        W16338   2.395  11.986   5.191 -0.2664 -0.2513  0.1544
73348W        W16339   5.774  24.382   5.934 -0.2445 -0.1038 -0.0598
73349W        W16340  17.878  13.163   8.042  0.0279  0.0610 -0.1428
73350W        W16341  21.836   4.910   2.704 -0.0737  0.3860  0.0059
73351W        W16342  13.827   6.794  25.619 -0.2831 -0.3067 -0.2816
73352W        W16343   4.505  18.041  17.733 -0.0505 -0.0998 -0.0381
73353W        W16344  31.607   8.616   7.045  0.2240 -0.2278  0.2803
73354W        W16345  16.833   4.710  17.040 -0.1179 -0.1194  0.0055
73355W        W16346  16.069  34.111  28.871  0.0938 -0.0621 -0.0230
73356W        W16347  18.214   0.385  26.213 -0.0507  0.0987 -0.1768
73357W        W16348   9.986  14.910  18.537  0.0426 -0.2466 -0.1255
73358W        W16349  14.551  29.821   0.591 -0.1484 -0.0494  0.2321
73359W        W16350  15.275  14.263  14.719  0.3889  0.0851  0.0044
73360W        W16351   9.004  16.929  18.523  0.4776  0.2158 -0.1013
73361W        W16352   6.401  28.504  28.722 -0.0819 -0.1589  0.0634
73362W        W16353   3.806   6.436  19.670 -0.0019  0.1743 -0.0015
73363W        W16354  23.798  31.289  23.665  0.0616  0.1579  0.1616
73364W        W16355  10.791   0.413   3.123 -0.0428  0.1301 -0.1863
73365W        W16356  28.702   8.516   2.168 -0.2091 -0.3064  0.1947
73366W        W16357  31.333  20.366   3.149  0.0519  0.0081 -0.5099
73367W        W16358  26.653   5.657  21.201  0.2490  0.2812 -0.1915
73368W        W16359   8.786  28.554   8.643 -0.0819 -0.1456  0.0307
73369W        W16360  22.217  12.510  23.716 -0.1779  0.0086  0.1958
73370W        W16361  19.448  21.807  14.195  0.0677  0.0294  0.1873
73371W        W16362  10.091   1.821  24.321 -0.3816 -0.0888 -0.1184
73372W        W16363   3.699  11.015  20.710 -0.3598  0.0041 -0.1826
73373W        W16364   2.690   9.405  17.894  0.0397 -0.2447 -0.1278
73374W        W16365  28.703  21.157  22.650 -0.3562 -0.0392  0.2382
73375W        W16366  31.367  17.506   1.134  0.0178  0.1354  0.0224
73376W        W16367   1.120   7.003  24.344  0.1278 -0.0658 -0.2507
73377W        W16368  21.427   3.077  18.734 -0.2112  0.5307 -0.3096
73378W        W16369  11.624   7.533  29.116 -0.0508  0.1124 -0.1419
73379W        W16370   1.725  23.375  24.899  0.2288 -0.2501  0.2348
73380W        W16371  33.964  23.481  17.484  0.1359 -0.1973  0.1866
73381W        W16372  14.107   6.639  25.194 -0.2018  0.1507  0.0303
73382W        W16373  27.932   5.188   3.013  0.0257  0.1709 -0.1523
73383W        W16374  19.545   9.669   2.999  0.0467 -0.1146 -0.0030
73384W        W16375  20.671  10.493   1.465  0.0761 -0.2721 -0.0084
73385W        W16376  16.720  13.165  21.408  0.0224 -0.1191  0.0994
73386W        W16377  15.687  25.929   7.924  0.1270  0.1877 -0.1305
73387W        W16378  11.683  15.553  10.262  0.0449 -0.1757 -0.0695
73388W        W16379   4.936  17.839   2.800 -0.2880  0.2113 -0.0101
73389W        W16380  22.297  20.745  27.678  0.1187 -0.1376 -0.4223
73390W        W16381  14.953  31.964  23.158 -0.3347  0.2809 -0.1870
73391W        W16382  21.905  34.418  16.807  0.0938 -0.0732 -0.1111
73392W        W16383  21.342  20.658  17.239  0.0979 -0.1692  0.0086
73393W        W16384  12.584  18.182  16.023 -0.1734 -0.1160  0.3818
73394W        W16385  17.736  30.428  24.854 -0.0680  0.0560  0.0508
73395W        W16386  31.596  11.317  22.103  0.0123  0.0701 -0.0330
73396W        W16387  16.265   2.585   8.202  0.0274 -0.2081  0.0634
73397W        W16388  16.017  26.555  25.381  0.0087 -0.0239  0.0132
73398W        W16389  15.486   9.467  17.309  0.0669  0.0763 -0.0357
73399W        W16390  12.472   3.920  14.481 -0.1405  0.2336 -0.0314
73400W        W16391   6.963  18.749  14.615  0.0878  0.1569 -0.2196
73401W        W16392  14.375  24.081  24.387  0.1052  0.0458 -0.1017
73402W        W16393   5.594   9.170  22.279 -0.1230 -0.1461  0.3337
73403W        W16394  22.324  25.811   4.343  0.4961  0.4337  0.1963
73404W        W16395  16.076  20.287  24.005  0.1855 -0.1279 -0.3348
73405W        W16396   6.486   8.762  16.688 -0.0562 -0.0325 -0.0626
73406W        W16397  11.315   9.369  24.047 -0.1785 -0.0894  0.0668
73407W        W16398   3.759  17.532   3.010 -0.1051 -0.1312 -0.0084
73408W        W16399  18.243  12.000  28.265 -0.1999 -0.0459 -0.0480
73409W        W16400  11.641   5.518  22.289  0.1105  0.2199  0.1352
73410W        W16401   7.876   7.321   5.125 -0.0620 -0.0107  0.2231
73411W        W16402  10.956   6.324  29.260  0.0301  0.1808 -0.1167
73412W        W16403   6.792  34.791  26.451 -0.0442  0.1150  0.0008
73413W        W16404   5.240   1.385  15.568  0.1012 -0.0689 -0.3402
73414W        W16405  22.952   3.338   5.926 -0.1171  0.0357 -0.3235
73415W        W16406  14.839   9.392  26.724 -0.3333 -0.3878  0.0311
73416W        W16407  30.475  18.258  18.487 -0.0284  0.0155 -0.2210
73417W        W16408  12.890  12.586  27.592 -0.0225  0.0193 -0.1581
73418W        W16409  10.629  18.505   0.863  0.2051 -0.2118  0.0982
73419W        W16410  18.929  13.572  15.459  0.0634 -0.1757  0.1518
73420W        W16411  26.472   8.077  26.878  0.0441  0.1160 -0.0786
73421W        W16412  14.922   8.215  15.195  0.2241 -0.0563 -0.0881
73422W        W16413  23.896  16.048  19.118 -0.1488 -0.3891 -0.0365
73423W        W16414  18.683  15.894  26.780 -0.3532 -0.0467 -0.1955
73424W        W16415  29.485  14.801  23.159  0.0398 -0.2481  0.1033
73425W        W16416  14.395  12.198  26.927  0.0563  0.1605 -0.0153
73426W        W16417  34.056  33.033  21.904  0.1568  0.1879 -0.0550
73427W        W16418  20.547  16.620   2.433  0.0203 -0.1020 -0.3475
73428W        W16419  15.202   7.587   2.240 -0.1134  0.1584  0.0411
73429W        W16420  17.793   7.422  27.990 -0.4009  0.1253  0.1630
73430W        W16421  25.595  17.388  14.261 -0.3596 -0.4074 -0.2291
73431W        W16422   1.730  10.642   3.179  0.1495 -0.2749 -0.1759
73432W        W16423  14.579  14.593  13.810  0.0544 -0.0999 -0.1489
73433W        W16424   2.823  21.051   1.052  0.1117  0.0374 -0.1373
73434W        W16425  27.509  20.237  24.244 -0.1185  0.1328  0.0177
73435W        W16426  13.831  22.317  17.965 -0.0152  0.0581 -0.2559
73436W        W16427   2.078  26.314  16.980 -0.0149  0.3259  0.0277
73437W        W16428  19.350   6.983   6.496 -0.2359 -0.1113 -0.0686
73438W        W16429  25.241   5.852  22.448  0.0962 -0.0779 -0.1656
73439W        W16430   9.407  14.892  18.389  0.3020 -0.0606  0.2273
73440W        W16431  28.354  10.898  25.745  0.0722 -0.1688  0.1197
73441W        W16432  10.804  12.968  17.467 -0.1773 -0.0486  0.0136
73442W        W16433  24.088  10.734  19.090 -0.1552 -0.1829 -0.0199
73443W        W16434  20.964  13.172  23.552 -0.4427  0.1210  0.2856
73444W        W16435  15.495  34.602  28.372  0.2977 -0.1691  0.1408
73445W        W16436  10.529  15.750  23.926  0.0609  0.2323  0.2079
73446W        W16437  21.636   8.343   6.773  0.2486  0.2047 -0.1162
73447W        W16438  12.549  25.883   7.433 -0.1838  0.1514 -0.1391
73448W        W16439  11.935  17.341   4.303  0.2800  0.0267 -0.0094
73449W        W16440   2.273  15.549   5.381 -0.3139 -0.1603  0.4028
73450W        W16441  33.884  32.817  27.837  0.1515 -0.3909  0.1351
73451W        W16442  21.525   8.667   8.244  0.3123  0.1300  0.1014
73452W        W16443  21.996  16.135   1.169 -0.0676 -0.1131  0.0281
73453W        W16444  16.727   2.173   2.330 -0.2476  0.1104  0.2763
73454W        W16445   3.176  10.161  23.100  0.0841  0.1211 -0.3156
73455W        W16446  26.029  22.901  18.355  0.1710 -0.3424 -0.1319
73456W        W16447  15.530  27.737  20.576  0.0719  0.0502 -0.1944
73457W        W16448  18.690   8.647  14.514 -0.1781  0.0164  0.1428
73458W        W16449  16.446  27.737  19.104  0.2401 -0.1319  0.4456
73459W        W16450  22.210  22.698  21.581  0.0459 -0.1390 -0.1170
73460W        W16451   2.800   6.615  26.975 -0.1623  0.1834  0.0044
73461W        W16452  19.250   4.683  15.879 -0.2167  0.1223  0.1139
73462W        W16453  20.489   3.482  17.422 -0.0446  0.0815  0.2848
73463W        W16454  15.054  28.999  26.558 -0.2442  0.0432 -0.1762
73464W        W16455  15.633   2.994  23.449 -0.2247 -0.2308 -0.0591
73465W        W16456  28.466  22.228  28.787 -0.1909 -0.4807  0.1293
73466W        W16457   3.558  17.901  19.737  0.3652  0.0355 -0.0246
73467W        W16458   2.830  16.216  17.616  0.2977 -0.0423 -0.1427
73468W        W16459   2.998  32.449  18.083 -0.0898 -0.2304  0.3462
73469W        W16460  18.453   5.757  16.925 -0.3917 -0.0009 -0.0770
73470W        W16461  17.158   9.707  21.026  0.1822  0.1061 -0.0371
73471W        W16462  27.084   5.785   6.895  0.2084  0.0052 -0.0088
73472W        W16463  15.684  32.864   2.770  0.1575 -0.2447  0.1595
73473W        W16464  18.797   5.168   2.373 -0.0432 -0.0744  0.0423
73474W        W16465   1.217   0.445  28.866  0.0350  0.0623 -0.0913
73475W        W16466  28.943  19.443   0.931 -0.1734 -0.1524 -0.5150
73476W        W16467  28.307   2.065  23.416 -0.2008 -0.0417  0.1777
73477W        W16468  31.347   8.676  22.926  0.0259 -0.4000 -0.1119
73478W        W16469  28.407  29.960  26.714  0.1748  0.4275  0.1431
73479W        W16470   8.577   8.115  17.898  0.1055 -0.1301  0.1416
73480W        W16471  12.215  18.926  20.499 -0.1665 -0.0198 -0.0418
73481W        W16472  21.988   7.342  26.423 -0.0780 -0.2114 -0.0036
73482W        W16473  23.591  19.682  14.149  0.0489  0.1698 -0.4727
73483W        W16474   9.076  10.517  15.789 -0.0966 -0.3896 -0.1523
73484W        W16475  12.539  31.908  24.386 -0.0709  0.1052  0.1681
73485W        W16476   6.760  23.493   2.607 -0.0323  0.1147 -0.1329
73486W        W16477   7.996   3.676  22.345  0.0495  0.3453 -0.2474
73487W        W16478   3.021  18.515  16.898 -0.3986 -0.1799 -0.1992
73488W        W16479  30.573  10.177  15.141 -0.4262 -0.3040 -0.1385
73489W        W16480  24.500  16.763  21.532  0.0516  0.1861 -0.1634
73490W        W16481  21.015   8.817  14.475  0.0334  0.1498 -0.0331
73491W        W16482  11.156  27.598   1.863  0.2981  0.0646  0.2402
73492W        W16483  25.669  28.946  21.815  0.1600  0.1829  0.1978
73493W        W16484   0.701  29.812  19.959  0.1462 -0.1426 -0.0506
73494W        W16485   9.078  16.510  17.082  0.1423 -0.0396 -0.0510
73495W        W16486  34.746  15.514  20.778 -0.2646 -0.0349  0.1889
73496W        W16487  28.705  19.147  16.391 -0.2958 -0.0664  0.3466
73497W        W16488  12.409   4.815   8.742 -0.0625 -0.1743 -0.3190
73498W        W16489   6.892   6.861   0.641 -0.0584  0.0299 -0.0060
73499W        W16490   6.160  14.845  19.986  0.0122 -0.1893  0.2113
73500W        W16491   1.081  33.371  24.283  0.0658 -0.3009  0.0531
73501W        W16492  25.245   1.481  13.093 -0.0737  0.0578  0.2585
73502W        W16493   5.007   0.402  18.465  0.0423  0.2022 -0.0373
73503W        W16494  20.479   5.836  19.716 -0.3849 -0.2837 -0.0031
73504W        W16495  16.531  12.289  24.779  0.1290 -0.2159 -0.0254
73505W        W16496  33.482   0.596  24.271 -0.0533 -0.2689 -0.0599
73506W        W16497  17.746   5.482  26.468 -0.0938  0.1470  0.0548
73507W        W16498  32.449  30.735  21.449  0.2859  0.1430 -0.1268
73508W        W16499  19.363  27.789  19.283  0.1498  0.1761  0.0229
73509W        W16500  26.934  24.329  25.073 -0.3612 -0.1759  0.5258
73510W        W16501   7.249  12.697  14.999  0.4230 -0.1087  0.0694
73511W        W16502  11.424  31.038  19.171 -0.2806 -0.0702  0.3641
73512W        W16503  20.402   9.928  17.545 -0.2426 -0.1188 -0.0778
73513W        W16504  30.136  20.525  21.207 -0.0679 -0.3904  0.1815
73514W        W16505  25.760  15.635  23.925 -0.0584  0.2597  0.0622
73515W        W16506  25.994  19.265   6.851  0.2001 -0.0202 -0.1146
73516W        W16507  27.317   4.924  24.027 -0.0434 -0.1050 -0.0213
73517W        W16508  14.112  20.062  13.536 -0.0512 -0.1258  0.0356
73518W        W16509  14.849   9.741  20.076 -0.0267  0.3286 -0.1432
73519W        W16510  15.016   7.613  23.047 -0.1035  0.0932 -0.3128
73520W        W16511  27.220  15.788  24.507 -0.1929 -0.0768 -0.1275
73521W        W16512  20.597  17.150   2.177  0.0394  0.0687  0.0414
73522W        W16513  24.692  26.519  15.664  0.0540  0.1398  0.3074
73523W        W16514  21.556   5.286  21.114 -0.0841  0.0681  0.3361
73524W        W16515   4.597  20.923  21.752 -0.0324  0.3367  0.0301
73525W        W16516  19.317  24.872   2.889  0.0886  0.1463  0.0737
73526W        W16517  17.029   5.169  16.156  0.1073 -0.0952 -0.0450
73527W        W16518   6.920  12.267  20.687  0.3459  0.0250  0.3106
73528W        W16519  22.018   3.877  24.548 -0.4120 -0.3668  0.0548
73529W        W16520  25.423  23.478  18.918  0.3178  0.2228  0.1724
73530W        W16521  17.196  15.158  18.647 -0.0635  0.0929  0.2708
73531W        W16522  29.513   7.738  26.875  0.1062  0.1980 -0.2252
73532W        W16523   5.498   2.717   3.542  0.2981  0.3621  0.0997
73533W        W16524  10.129  11.237  24.844  0.1287  0.0180 -0.1307
73534W        W16525  12.819   2.187   1.575 -0.0532 -0.0438  0.0369
73535W        W16526   7.887   7.027   8.701 -0.0632  0.0495 -0.2991
73536W        W16527  25.784  22.336   4.755 -0.2059  0.2990 -0.0635
73537W        W16528  19.057   5.147  24.133  0.2920  0.0395 -0.0649
73538W        W16529  19.895   9.545  18.889 -0.2095  0.4739 -0.2263
73539W        W16530   9.024   9.835   4.774 -0.1417 -0.2592  0.3364
73540W        W16531   1.659  29.358  20.512 -0.1898  0.0415 -0.1146
73541W        W16532  16.924  17.244  13.666  0.0532  0.1739 -0.0001
73542W        W16533  22.890  26.532   3.443  0.1511  0.1835 -0.0597
73543W        W16534  11.548  19.033   8.853 -0.1707  0.1308  0.0509
73544W        W16535  19.057  34.737  20.744 -0.0821  0.4128  0.1430
73545W        W16536  14.129  10.703  17.719 -0.1821 -0.0468 -0.0445
73546W        W16537  17.065  17.934   7.772  0.3950 -0.4573 -0.0616
73547W        W16538  10.182  17.687  17.182 -0.1121  0.1046 -0.0232
73548W        W16539   4.322  17.943   1.862 -0.0645  0.0375  0.1624
73549W        W16540   6.302   0.621   3.942  0.1053  0.2944  0.2119
73550W        W16541  26.345   6.172  14.684  0.1677  0.1178 -0.1530
73551W        W16542  28.235   6.164  21.158 -0.0698 -0.3506 -0.1714
73552W        W16543   9.768  12.794  23.471  0.0279 -0.1549  0.0785
73553W        W16544  24.678   1.613  17.249 -0.1334 -0.1020 -0.1256
73554W        W16545   8.371  33.527  21.752  0.1481 -0.3527 -0.2673
73555W        W16546   1.004  12.812  24.851 -0.1226  0.2801 -0.1337
73556W        W16547  29.849  13.924   4.933  0.0181 -0.0770 -0.0771
73557W        W16548   6.480   5.932  26.804 -0.0111 -0.0802 -0.1711
73558W        W16549  19.163   3.493  22.390  0.0326  0.2755 -0.1172
73559W        W16550  17.676  11.958  23.002  0.0473  0.0899  0.2898
73560W        W16551  23.039  10.697  26.541  0.0237  0.2431 -0.0073
73561W        W16552  19.497  12.052  14.327  0.2616  0.2132 -0.0241
73562W        W16553  10.040   4.622   2.790  0.1683 -0.1690  0.0969
73563W        W16554  21.272   4.468   0.002  0.1500 -0.2635  0.1684
73564W        W16555  25.697  31.959  15.675  0.1314  0.1053  0.1915
73565W        W16556  25.348  12.312  21.048  0.2043  0.1283  0.0600
73566W        W16557  17.228   3.369  25.756 -0.0734  0.0767  0.2073
73567W        W16558  23.283  16.007  18.559  0.1384 -0.0592  0.0655
73568W        W16559  13.094  16.727  16.636  0.1162  0.1497 -0.3008
73569W        W16560  20.268   1.363  20.847  0.1363  0.0718  0.0895
73570W        W16561  32.622  27.861  22.287 -0.0859  0.0511 -0.0226
73571W        W16562  12.052  12.518   2.658  0.1524  0.1125 -0.1523
73572W        W16563   9.299  29.080  24.395 -0.0021 -0.1898  0.1117
73573W        W16564  13.122  13.321  18.531  0.0568 -0.1682 -0.3347
73574W        W16565   4.889  15.697   6.900 -0.0623  0.0164  0.0212
73575W        W16566   6.611   5.004   4.499  0.2514  0.0726  0.1852
73576W        W16567   5.149  14.255  17.141  0.1014 -0.0720  0.1685
73577W        W16568  12.770  24.478   8.740 -0.3818  0.0545 -0.4026
73578W        W16569  14.758  23.172  16.270 -0.2277  0.1067 -0.1259
73579W        W16570   7.798  12.508  16.619  0.1287  0.0694  0.0958
73580W        W16571  12.915  14.111  26.183 -0.5475 -0.2594  0.1286
73581W        W16572   7.211  33.521  13.776 -0.1286  0.1420  0.0214
73582W        W16573  27.913  10.455   2.347  0.0163 -0.5095  0.1660
73583W        W16574  14.573  25.315  21.709 -0.1616  0.1285  0.1588
73584W        W16575  23.885   9.001   6.808  0.1918  0.0191  0.1279
73585W        W16576  17.476  31.793   2.672  0.1776  0.1394 -0.0011
73586W        W16577  17.640  20.820  21.673 -0.1236 -0.1412 -0.0545
73587W        W16578  17.363  17.642  25.558  0.1557  0.0390  0.0511
73588W        W16579   6.409  16.506  25.772  0.1191  0.0957  0.0098
73589W        W16580  27.504  18.968  24.129  0.0152  0.1114 -0.3438
73590W        W16581  12.747  29.675  19.934  0.1226  0.1381 -0.0869
73591W        W16582  15.206  21.005  15.559 -0.2369  0.2134 -0.2550
73592W        W16583  21.839  22.338  21.657  0.1784 -0.0263 -0.1382
73593W        W16584  15.423  29.225   4.460 -0.0294 -0.1096  0.1962
73594W        W16585  19.816  13.421   2.930 -0.3212  0.2704  0.0902
73595W        W16586  19.550  24.735  13.642  0.0803 -0.1304  0.0381
73596W        W16587  21.302  17.204  18.956 -0.3083 -0.2918  0.3189
73597W        W16588   8.968  30.130  27.756  0.3731 -0.2442 -0.1863
73598W        W16589  31.035   0.120  25.765 -0.2462  0.3443  0.0956
73599W        W16590  12.286  26.136  18.931 -0.1855 -0.3484  0.0863
73600W        W16591  21.831   3.644  28.901 -0.2516  0.2137 -0.0049
73601W        W16592   4.894  30.040  14.426 -0.0762  0.2635  0.0586
73602W        W16593  25.324  25.044  16.456  0.0657 -0.3972  0.1336
73603W        W16594   9.068   8.656   7.420  0.2114  0.1886 -0.1751
73604W        W16595  16.006  19.869  16.162 -0.0389 -0.2975 -0.3815
73605W        W16596  20.132  34.709  14.531  0.2967 -0.1258 -0.1613
73606W        W16597  12.806  15.954  15.495 -0.1446 -0.2742 -0.1829
73607W        W16598  10.057   7.946   7.386  0.0781  0.2227 -0.1481
73608W        W16599  27.327  23.273  26.665  0.3901 -0.0481 -0.0724
73609W        W16600  27.665  17.139  25.921 -0.1084  0.0279  0.0220
73610W        W16601  29.258  14.408  21.930  0.0507 -0.1570 -0.0295
73611W        W16602   4.072  12.338   6.008 -0.1517  0.0637  0.0405
73612W        W16603  23.642  27.507  24.926 -0.0606 -0.2436 -0.3348
73613W        W16604  23.308  10.040  19.925  0.1613  0.0308  0.5223
73614W        W16605   6.597  32.014  21.446  0.1105  0.3101  0.1892
73615W        W16606  13.560   3.778   5.235  0.3834  0.2505 -0.2498
73616W        W16607  15.055  29.600  21.794 -0.0213  0.2577  0.0201
73617W        W16608  24.367  16.727   5.997 -0.2521  0.0008 -0.4787
73618W        W16609  10.096  34.646  26.081  0.1986 -0.2804 -0.0152
73619W        W16610   5.167  23.007  25.065 -0.1213  0.2651  0.2274
73620W        W16611  24.528   5.262  24.348 -0.0310 -0.0856  0.1038
73621W        W16612  17.154  11.794   3.555  0.0286 -0.3367 -0.1680
73622W        W16613  19.534  34.463  20.778  0.0367  0.0545 -0.1471
73623W        W16614  32.194  16.135   4.087 -0.0439 -0.1701  0.1061
73624W        W16615   3.017  17.332  25.751  0.1026 -0.0890 -0.1954
73625W        W16616  16.407   6.261  19.791  0.0092 -0.2765 -0.2813
73626W        W16617  26.453  13.106  13.704 -0.3179  0.1390 -0.0672
73627W        W16618   8.921  13.065  10.228  0.0125  0.2145  0.3954
73628W        W16619  15.317  26.658  13.436 -0.0155  0.0860  0.0025
73629W        W16620  23.600   2.051  22.755 -0.1164 -0.2521  0.1749
73630W        W16621  29.444  23.263  19.440  0.1169 -0.2201  0.1254
73631W        W16622  11.923   7.632   6.910 -0.2184 -0.1906 -0.1427
73632W        W16623  32.923  25.854  25.968 -0.0614 -0.0877 -0.1083
73633W        W16624  26.518  10.103  24.077  0.2453 -0.0432  0.1227
73634W        W16625   2.308   7.242  27.166 -0.0128 -0.1242  0.1224
73635W        W16626  15.455  30.260   2.801 -0.1194 -0.1017  0.1688
73636W        W16627  22.958  32.030  23.864 -0.0869  0.1631  0.0517
73637W        W16628  23.479  31.423  27.520  0.1402  0.0326  0.1400
73638W        W16629   3.890  15.308  25.095  0.1274  0.2474 -0.2387
73639W        W16630  19.465   7.721   9.173  0.0103 -0.0551  0.0012
73640W        W16631  30.330  20.565  25.331  0.0341 -0.1227 -0.0576
73641W        W16632  21.717   4.451   3.213  0.1271 -0.2613  0.0702
73642W        W16633  10.759  32.893  27.179  0.0286 -0.0700  0.1008
73643W        W16634  12.857  16.024  17.456  0.0256  0.2933  0.1003
73644W        W16635  24.991  16.466   1.787 -0.1422  0.0032  0.0262
73645W        W16636  12.787   0.344  23.220 -0.0357  0.2026  0.1105
73646W        W16637  23.393   4.323  24.774  0.3061  0.0311 -0.0570
73647W        W16638   3.113  12.793   0.216  0.1760 -0.3094  0.2775
73648W        W16639  14.127  12.484  27.223  0.0987  0.0580 -0.1476
73649W        W16640  25.724  34.289   7.025  0.1338 -0.2909 -0.1603
73650W        W16641  20.934   6.104   3.384 -0.4489  0.2209 -0.1705
73651W        W16642  12.333   3.048  18.214 -0.0171  0.0456  0.1167
73652W        W16643  31.076  21.007  29.215  0.4603 -0.1605  0.1673
73653W        W16644  10.517   6.489   9.393  0.1136  0.2782 -0.0959
73654W        W16645  23.411   2.392   5.232  0.0067  0.0153 -0.1164
73655W        W16646  23.948   8.614   9.688 -0.0001  0.1471  0.1174
73656W        W16647   0.467   6.141  18.328 -0.1272 -0.3816 -0.0269
73657W        W16648   9.232   8.928  15.404 -0.0091 -0.0561 -0.0209
73658W        W16649  27.534  18.405  19.284 -0.0175  0.3297  0.0420
73659W        W16650  26.856   8.760  21.368 -0.0239 -0.4340 -0.1503
73660W        W16651  17.889   7.287  23.775  0.1155  0.0866  0.2272
73661W        W16652  31.601   6.930   0.409  0.2177  0.0122  0.3954
73662W        W16653   7.979  32.069  21.693 -0.0858  0.0223  0.2621
73663W        W16654  31.766   4.988  10.503 -0.0710  0.0836  0.0115
73664W        W16655  13.637  21.051  28.355 -0.2152  0.2775  0.1887
73665W        W16656  18.507  12.588  27.136  0.3542 -0.0277  0.4493
73666W        W16657  24.288   7.074  20.981 -0.2191 -0.0123 -0.1604
73667W        W16658  17.857  10.841  20.270  0.0115  0.1257  0.0090
73668W        W16659   8.479  33.363   7.628 -0.1917 -0.0224 -0.0247
73669W        W16660   5.346   8.759  24.133 -0.2878 -0.1520 -0.1196
73670W        W16661  13.598   5.012  20.042  0.1068 -0.1709  0.0433
73671W        W16662  12.711   1.875   9.864  0.0963 -0.2494 -0.0031
73672W        W16663  14.570  33.890  21.352 -0.1891  0.0276 -0.2479
73673W        W16664  26.935  24.459  29.041  0.0433 -0.3586  0.1680
73674W        W16665   4.711  17.969  27.930 -0.0112 -0.0584  0.0862
73675W        W16666  32.976  25.919  10.309 -0.0571 -0.4368 -0.4082
73676W        W16667  11.754  31.833   2.874  0.0119  0.1601  0.1526
73677W        W16668  15.837  12.003  27.873 -0.0133 -0.0274  0.1183
73678W        W16669  23.367  10.181  22.075  0.2289 -0.2139  0.0736
73679W        W16670  27.329   6.262  23.731 -0.1294 -0.1634  0.1509
73680W        W16671  16.532  11.588  28.132  0.2827 -0.1171  0.2442
73681W        W16672  15.426  26.990  19.917 -0.0003  0.2349  0.3972
73682W        W16673   0.950   5.016   3.027  0.3239  0.0376 -0.3101
73683W        W16674  19.694   8.620  19.870 -0.0475 -0.2063 -0.1397
73684W        W16675  25.767  12.971  15.485 -0.1941 -0.2429  0.0019
73685W        W16676  19.005  12.779  21.589 -0.0834 -0.1941  0.2473
73686W        W16677  15.444  15.491   7.937 -0.1267  0.1334 -0.1633
73687W        W16678  14.916  11.857  18.256  0.1752 -0.0781  0.0853
73688W        W16679  13.547   7.641   7.579 -0.1054  0.0898  0.1724
73689W        W16680  28.176  20.422   8.224 -0.0296 -0.1574  0.0912
73690W        W16681  15.440  19.496  21.542  0.4630 -0.1156  0.1954
73691W        W16682   8.267  15.718  10.001 -0.1143  0.0813 -0.2148
73692W        W16683  28.454  22.142  21.190 -0.1834 -0.1977  0.0362
73693W        W16684   7.946  23.767  21.917 -0.1791 -0.5250  0.1985
73694W        W16685  12.997   6.034  16.764 -0.0111 -0.0157  0.0551
73695W        W16686  28.331  12.733  25.621 -0.0570 -0.0662 -0.1343
73696W        W16687   9.447  31.335  24.696  0.1527  0.1690  0.0430
73697W        W16688  13.646   5.382  27.890 -0.0812 -0.0733 -0.0731
73698W        W16689  23.370  19.579  15.052 -0.1645  0.1337 -0.0358
73699W        W16690  15.233  10.940   3.780  0.1161  0.2993  0.2030
73700W        W16691   9.002  16.654  29.145 -0.1913  0.2535 -0.0660
73701W        W16692  14.930   6.964  21.124  0.3174 -0.4203 -0.2572
73702W        W16693   4.847  10.122  20.074 -0.0043 -0.1845 -0.0106
73703W        W16694   1.125  26.435  17.838 -0.0701 -0.0963  0.0155
73704W        W16695   8.279  24.614  27.495  0.0914 -0.0986 -0.0140
73705W        W16696  28.174   8.261  20.839 -0.0994 -0.0206  0.3111
73706W        W16697  27.410  11.089   1.714  0.0460  0.0468 -0.1572
73707W        W16698  13.304   7.988  19.884  0.0414  0.1877  0.2323
73708W        W16699  31.001  12.377  15.744 -0.3090 -0.0473 -0.1153
73709W        W16700  15.196  12.584  21.301 -0.0916  0.0509  0.0426
73710W        W16701  14.349  13.487   6.767 -0.0320  0.1778 -0.2166
73711W        W16702  23.683  19.834  24.043  0.0012  0.0953  0.0084
73712W        W16703  21.906  16.646  27.877 -0.0874 -0.0729 -0.1772
73713W        W16704  16.228   5.814   9.815  0.0847  0.1177 -0.0798
73714W        W16705  11.882  23.844   9.549  0.1179  0.2763 -0.0921
73715W        W16706   6.897  20.610  26.894 -0.1738  0.1332  0.2020
73716W        W16707   9.059  14.101  16.574  0.0767 -0.0422 -0.1045
73717W        W16708   9.505   1.490  16.140 -0.1868 -0.1539  0.0116
73718W        W16709  24.800  21.894  18.017  0.1874 -0.2563  0.0079
73719W        W16710  15.515   6.541   3.761  0.2087  0.0127  0.1323
73720W        W16711  20.018  31.505   8.127  0.2948  0.1126  0.3728
73721W        W16712  10.967   2.460  28.855 -0.0047 -0.1890  0.0380
73722W        W16713   4.978   4.126  20.784 -0.2896 -0.0419 -0.0498
73723W        W16714   8.030   9.812  17.932 -0.1966  0.0931  0.2261
73724W        W16715  15.967   0.761  27.270  0.5732 -0.1492  0.0649
73725W        W16716  23.423  21.139  26.668  0.0950 -0.0688 -0.0932
73726W        W16717   1.785  16.022   2.075 -0.0235  0.1888 -0.0472
73727W        W16718  24.907  29.227   1.273  0.1170  0.1155  0.1915
73728W        W16719  17.135  12.950   3.520  0.0691 -0.3648  0.0813
73729W        W16720  17.533   9.894  27.436 -0.0246  0.2915  0.1379
73730W        W16721   3.927   9.756  18.941 -0.0540 -0.0944  0.0598
73731W        W16722  11.856  19.293  21.142  0.2067  0.0638 -0.0280
73732W        W16723  19.316  12.684   1.518 -0.0888 -0.1603  0.0002
73733W        W16724  12.775  34.706   5.727  0.0275 -0.0143 -0.0762
73734W        W16725  16.156   9.349  18.875 -0.1636  0.0906 -0.2268
73735W        W16726  22.577  33.334  21.414  0.0308 -0.1969  0.0745
73736W        W16727   4.433   3.549  10.491  0.0536 -0.0982 -0.0494
73737W        W16728  10.715   2.923   6.115 -0.0605 -0.1117  0.1707
73738W        W16729  12.310   6.491  21.426  0.3875 -0.0218 -0.2262
73739W        W16730  17.295  12.316   6.692 -0.1254  0.3426 -0.2048
73740W        W16731  22.100  18.187  26.133 -0.0812 -0.0368 -0.2408
73741W        W16732  29.024   3.938  16.754  0.2822  0.4586 -0.2726
73742W        W16733  18.511  29.511  19.409  0.2680  0.3092  0.1614
73743W        W16734  18.637   9.813   1.585 -0.0598 -0.1838 -0.1087
73744W        W16735  24.582  33.807  22.990  0.2565 -0.0286  0.1464
73745W        W16736  22.513   6.619   2.121 -0.2578 -0.0981  0.2607
73746W        W16737  24.465  10.267  14.951 -0.1590 -0.0421 -0.0602
73747W        W16738  14.630  16.404  12.561 -0.4380 -0.2915 -0.0803
73748W        W16739  16.565  19.355  27.285  0.1607  0.0664  0.2813
73749W        W16740  12.588   1.671   9.095  0.0738 -0.1333 -0.2089
73750W        W16741  32.663  18.739  20.488  0.1250  0.1437 -0.0735
73751W        W16742  13.939  11.147  10.163 -0.0282  0.0540  0.0592
73752W        W16743  13.594   3.647  19.212  0.0407  0.1493  0.0494
73753W        W16744  17.196  32.151   4.737  0.1023 -0.0234  0.3613
73754W        W16745  17.695   7.211  20.372  0.2900  0.2918  0.2819
73755W        W16746  23.283  13.525  21.259 -0.0975 -0.1678 -0.0602
73756W        W16747  21.564  11.585   4.133  0.3895  0.0882  0.0706
73757W        W16748   6.950   4.532   1.563  0.0496 -0.2390  0.1864
73758W        W16749  21.715  32.763  19.554  0.0281  0.2020  0.3303
73759W        W16750  17.709  16.805   5.400  0.2152 -0.1283 -0.1403
73760W        W16751  17.401  17.244  24.127  0.0578 -0.1197 -0.0306
73761W        W16752  28.471  19.450  17.561 -0.1163  0.0403 -0.1326
73762W        W16753  29.841  14.350  16.687  0.0101 -0.3453 -0.1677
73763W        W16754  29.813  32.849  19.440 -0.3903 -0.0998  0.0162
73764W        W16755  17.264  30.504  26.632 -0.1952 -0.0501 -0.0720
73765W        W16756  11.948   3.763   9.813 -0.0408 -0.4532 -0.1459
73766W        W16757   9.579   9.071  15.075  0.1620 -0.0484 -0.0025
73767W        W16758  22.093   2.309   3.046 -0.1501 -0.0984  0.3119
73768W        W16759  13.576   5.243  10.456 -0.0822  0.1075 -0.3956
73769W        W16760  34.129  28.627   3.110 -0.2497  0.1318  0.2740
73770W        W16761  14.778   9.582  27.201  0.2377 -0.0493  0.0162
73771W        W16762   2.036   9.436   7.028  0.1528  0.0731  0.0424
73772W        W16763  14.160  15.350  20.395 -0.0959  0.1048  0.0262
73773W        W16764  24.603   8.106   0.265  0.0184  0.0435  0.0160
73774W        W16765  19.797   4.979  17.323 -0.3223  0.0666  0.0325
73775W        W16766  20.293  16.598   7.589  0.1035  0.0970 -0.0121
73776W        W16767  32.310  32.940  22.294  0.0210 -0.1621 -0.1130
73777W        W16768  21.633  31.312   5.362 -0.1840  0.2798  0.3772
73778W        W16769  20.672  29.561  24.244 -0.1302  0.1284 -0.0697
73779W        W16770  21.378  15.293  23.162 -0.1874 -0.0688 -0.2630
73780W        W16771  18.633  29.265   5.110 -0.0296 -0.1948 -0.5090
73781W        W16772   7.932   5.494   9.510  0.1900 -0.0991  0.2027
73782W        W16773  11.263   9.906   2.534 -0.0890  0.1880 -0.2296
73783W        W16774  11.689  34.708  26.456 -0.1230  0.2273  0.0531
73784W        W16775  17.228   5.717  27.804  0.0428 -0.0216  0.1924
73785W        W16776  13.178  10.752   3.368  0.0655  0.1059 -0.1380
73786W        W16777   8.542  24.882  20.489 -0.1658 -0.1578  0.2123
73787W        W16778   1.478  16.449   2.076 -0.4112 -0.2326  0.0164
73788W        W16779  29.475  10.223  27.395  0.1798 -0.2033 -0.1217
73789W        W16780  24.047   9.428  24.589  0.0509  0.2614  0.2597
73790W        W16781  22.565   2.672   4.524 -0.0195 -0.4107  0.1627
73791W        W16782  13.147   9.708   4.934 -0.1319 -0.0352  0.3672
73792W        W16783  20.629  10.193  17.981 -0.0999 -0.0116 -0.1156
73793W        W16784  22.122   4.560  27.988  0.3021 -0.2918  0.3604
73794W        W16785  29.895  24.940  15.414  0.0980 -0.1066  0.2702
73795W        W16786  32.348  20.594   8.862 -0.0866 -0.1215  0.4629
73796W        W16787   9.065  18.290   9.353 -0.0417 -0.4612 -0.2302
73797W        W16788   8.290  22.417  15.470 -0.0676  0.0359 -0.1278
73798W        W16789  23.791   2.288  24.929 -0.2655 -0.2984 -0.1532
73799W        W16790  33.589  13.560  28.844  0.0212 -0.0410 -0.1655
73800W        W16791  18.286   9.965   8.856  0.0470 -0.1356 -0.1218
73801W        W16792  24.318   1.565  24.489  0.2137 -0.1303  0.0957
73802W        W16793  22.320  10.907   1.114  0.1296  0.1270 -0.4050
73803W        W16794  13.072  28.360  19.712 -0.4451 -0.1517 -0.3792
73804W        W16795   5.501   0.160   2.952  0.1445  0.3459  0.1732
73805W        W16796   8.834   2.857  15.828  0.0254  0.0608  0.0501
73806W        W16797   0.514   2.288   5.635  0.0062  0.1008  0.1035
73807W        W16798  32.296   6.738   9.857 -0.4202 -0.0042 -0.1464
73808W        W16799  13.065  19.427   1.677 -0.1917  0.1783  0.0656
73809W        W16800  32.037   8.810  14.371 -0.1200 -0.0315  0.1688
73810W        W16801  25.758  17.357  24.312 -0.0640 -0.2998 -0.1482
73811W        W16802  16.558  15.416   4.266  0.0971  0.1798 -0.3206
73812W        W16803  15.753  12.063   4.120 -0.0941 -0.1198 -0.1159
73813W        W16804  27.619  33.330   5.894  0.0534 -0.1263  0.1083
73814W        W16805   7.510   8.910   1.582 -0.2654  0.0023 -0.2471
73815W        W16806  11.620  29.935  28.889 -0.0272 -0.0882  0.0127
73816W        W16807  20.523  20.352  18.966  0.1245  0.1982 -0.0859
73817W        W16808  23.717  11.506  17.767  0.2978 -0.0069 -0.3540
73818W        W16809  18.294   8.352  16.006  0.1555 -0.2867 -0.2246
73819W        W16810   0.535  30.045  18.709  0.2821  0.0472  0.1665
73820W        W16811  17.073  20.102   0.425 -0.1152 -0.0521  0.1974
73821W        W16812  13.411  32.738   3.580  0.1694  0.2291  0.1419
73822W        W16813  28.215  12.240   3.322  0.1454 -0.0873 -0.1940
73823W        W16814   6.662  32.674   1.548  0.0293  0.1981 -0.1078
73824W        W16815  27.535  16.079  25.908  0.1723 -0.1362  0.1710
73825W        W16816   7.571   0.713   9.954 -0.1173  0.1356 -0.1242
73826W        W16817  26.267  34.711  21.413  0.0648 -0.0545 -0.1786
73827W        W16818  16.027   6.753   3.642  0.1706 -0.3127  0.1346
73828W        W16819   7.283  23.769   9.082  0.0200  0.0329 -0.3025
73829W        W16820  32.034  16.591   4.211 -0.3417  0.2790  0.0202
73830W        W16821  17.922  19.554   3.940  0.1875 -0.0502 -0.0924
73831W        W16822  15.147  20.973   1.803 -0.0468 -0.1866 -0.0872
73832W        W16823   4.351  11.493  23.064  0.1351  0.0020  0.2091
73833W        W16824  22.733   5.145  19.024 -0.1445 -0.1359 -0.0580
73834W        W16825   2.266   8.782  21.884 -0.1361  0.0628  0.0489
73835W        W16826  33.398  10.817   8.427  0.2430  0.0556  0.2408
73836W        W16827   8.826  16.480  20.281 -0.2669 -0.1221 -0.0887
73837W        W16828  21.182  17.545  14.493  0.0170 -0.1260 -0.1023
73838W        W16829  31.289  16.710  22.229 -0.0288 -0.0001 -0.0760
73839W        W16830   5.219  17.012   3.934 -0.0273 -0.0107  0.1495
73840W        W16831  13.199   3.050   8.898  0.1612 -0.0948 -0.0854
73841W        W16832   6.245   3.299  26.158 -0.0006  0.3439  0.2941
73842W        W16833  21.648  31.507   6.686  0.1401 -0.2849  0.1127
73843W        W16834  20.270   4.776  17.002 -0.1615  0.2377 -0.0658
73844W        W16835  15.622   7.941  23.657 -0.1617 -0.0872  0.1652
73845W        W16836  15.166   1.474  18.572 -0.0925 -0.0197 -0.1304
73846W        W16837  30.327  14.115   8.386  0.2146  0.1037  0.4925
73847W        W16838  20.103  10.923  27.074  0.2216 -0.4367 -0.0872
73848W        W16839  13.906   4.948  10.747  0.3140  0.1817 -0.1102
73849W        W16840  11.212  11.954  18.125  0.1011  0.0859 -0.0145
73850W        W16841  19.176  12.136  15.667  0.1122  0.1026  0.2052
73851W        W16842  32.980   8.005   7.586 -0.2409 -0.1325 -0.0402
73852W        W16843  17.554   8.661   0.490 -0.1979  0.0479  0.1415
73853W        W16844   1.847  30.154  22.741  0.0801  0.1363  0.1658
73854W        W16845  17.791  11.303  23.908  0.1807 -0.0656 -0.1621
73855W        W16846  21.445  13.287   3.695  0.0509 -0.2728 -0.0428
73856W        W16847  19.126  12.804  18.584  0.0065  0.0910  0.0958
73857W        W16848  16.645  12.221  19.867 -0.4138 -0.0644  0.1810
73858W        W16849  18.048   4.282  26.621  0.0006  0.1187  0.0107
73859W        W16850  16.735   5.353  26.919  0.3857 -0.0075  0.1456
73860W        W16851   9.486  29.521  20.675  0.0279 -0.0876  0.1276
73861W        W16852  17.694  10.580   3.769  0.0295 -0.1082  0.1829
73862W        W16853  19.485  19.300  28.639  0.0904  0.1384 -0.2516
73863W        W16854  15.018  11.427   4.609  0.2749  0.2401 -0.1059
73864W        W16855  23.591  20.498  21.880  0.0090 -0.0643  0.1400
73865W        W16856  33.798  33.213  20.087  0.3514  0.3461  0.0729
73866W        W16857  17.127  21.054   5.573  0.1208 -0.1681  0.1431
73867W        W16858  27.741   3.874   7.190 -0.5401 -0.1849 -0.4746
73868W        W16859  18.735  11.861  20.453  0.0894  0.1433 -0.3056
73869W        W16860  22.434  12.573  14.463 -0.1007 -0.1802 -0.0830
73870W        W16861  30.091  19.305  23.565 -0.1363  0.0222  0.0841
73871W        W16862  17.404  13.091  28.590 -0.3976 -0.3371  0.1560
73872W        W16863  31.341  18.362   0.418  0.0645 -0.0401 -0.3220
73873W        W16864  24.145  13.934   2.404 -0.1716  0.0491  0.2217
73874W        W16865  26.405  31.129  25.803 -0.2424 -0.1492  0.1792
73875W        W16866  20.458  13.110  24.893 -0.1245 -0.3907 -0.3782
73876W        W16867  25.214   7.633  26.380 -0.3374 -0.1160  0.0710
73877W        W16868  29.941   2.424   8.060 -0.1281  0.0311 -0.1449
73878W        W16869  27.291  23.149  22.658  0.3207 -0.0966  0.0563
73879W        W16870   3.619  34.418  15.258 -0.2088 -0.1430  0.3373
73880W        W16871  31.096   6.154   4.240 -0.0293  0.1060  0.2385
73881W        W16872   7.329  16.365  20.222  0.4475  0.1872 -0.0652
73882W        W16873  19.715   4.422  18.051  0.1473  0.1632 -0.1749
73883W        W16874  27.492  16.128   1.597 -0.0908  0.0262  0.4015
73884W        W16875   8.917  18.102  23.867 -0.1802 -0.0832 -0.0183
73885W        W16876  20.250  17.109   5.953  0.3163 -0.2590  0.2240
73886W        W16877  25.857  21.602   3.490  0.1105 -0.0673  0.0384
73887W        W16878   9.846  30.420  18.860 -0.1704 -0.0136  0.1050
73888W        W16879  19.261  18.281  23.897 -0.1391  0.1920 -0.1573
73889W        W16880  11.702   3.718   2.040 -0.3480 -0.2954 -0.4372
73890W        W16881  10.776   6.292   4.221  0.2004 -0.1243  0.1746
73891W        W16882  18.138   5.331  18.855 -0.1049  0.2691  0.2658
73892W        W16883  21.348   9.127   0.494  0.0956  0.0797 -0.0885
73893W        W16884  21.314  33.424  24.204 -0.1375 -0.3494  0.0093
73894W        W16885  15.311   6.074  24.508  0.0257  0.0011  0.1964
73895W        W16886  34.671   5.211  19.727 -0.2588 -0.1618  0.0311
73896W        W16887  14.281  14.093  27.679 -0.1106  0.1674  0.0974
73897W        W16888  17.253   3.901  18.108 -0.2922  0.0891 -0.1254
73898W        W16889  14.395  11.796  19.793  0.1569 -0.2004 -0.0833
73899W        W16890   3.998   1.596   9.707 -0.2554 -0.2307  0.3711
73900W        W16891  15.253   7.313  21.547  0.0774 -0.0088 -0.1890
73901W        W16892   4.084  34.053   6.090 -0.0360  0.2272 -0.0148
73902W        W16893  23.204  17.175  28.709 -0.0280  0.0578 -0.0425
73903W        W16894   6.957   6.234  15.612  0.0115  0.0930 -0.1217
73904W        W16895  20.839  33.668   8.918  0.2376 -0.2878 -0.1296
73905W        W16896   1.157   2.543  27.668  0.3430 -0.1343 -0.1535
73906W        W16897  28.556  32.104  22.914 -0.0198  0.4599  0.1701
73907W        W16898  29.961   3.552  15.741 -0.0011  0.0230  0.1425
73908W        W16899   4.330  24.391   7.309 -0.1119  0.0951 -0.1118
73909W        W16900  25.122  10.552  23.188 -0.0386 -0.2293  0.0026
73910W        W16901  13.494  10.801   7.726  0.0418  0.3005  0.2295
73911W        W16902  21.012  10.072   1.086  0.0853 -0.2277 -0.0034
73912W        W16903  16.388  15.466  27.058 -0.4207  0.0355 -0.0902
73913W        W16904  14.813  25.171  18.690 -0.0110 -0.1770  0.3217
73914W        W16905  17.509  12.786  16.343 -0.0711 -0.0795  0.3205
73915W        W16906   7.354  28.622  24.748 -0.1215  0.0221 -0.1190
73916W        W16907  19.041  21.723   6.418  0.1418  0.0809  0.0502
73917W        W16908  15.075  11.710   7.410  0.0183  0.1507  0.1325
73918W        W16909  28.389  13.943  21.181 -0.4022  0.0867 -0.2697
73919W        W16910   7.195  10.988  25.941 -0.1790  0.1757 -0.0327
73920W        W16911  15.578  14.251  15.438 -0.2203 -0.2010 -0.0839
73921W        W16912  14.788  10.087   1.186 -0.0671 -0.2926 -0.2862
73922W        W16913  22.208  12.018  17.067  0.4182 -0.0249  0.0374
73923W        W16914  19.471  12.074  22.830 -0.1243 -0.0389 -0.0180
73924W        W16915   1.527   4.101   7.941 -0.1180 -0.0705  0.1918
73925W        W16916  33.167  12.912  22.223 -0.1731  0.1923 -0.2345
73926W        W16917  13.759   6.062   2.129 -0.0777 -0.0159 -0.1701
73927W        W16918  26.563  32.770   6.976  0.1637 -0.0431  0.0444
73928W        W16919  13.853  29.962   5.538 -0.0492  0.1375 -0.2774
73929W        W16920  16.078   0.224  28.467  0.0919 -0.2253  0.1364
73930W        W16921  11.811   8.873  25.185 -0.0914  0.2212  0.0390
73931W        W16922  23.389  13.817  13.142 -0.0555 -0.3400 -0.0629
73932W        W16923  17.386  19.637  28.419 -0.0828 -0.1554 -0.0331
73933W        W16924  25.783   0.989   6.317  0.2261  0.2423  0.1841
73934W        W16925  24.739  10.703   6.769 -0.0833  0.0529  0.1326
73935W        W16926   6.745  14.416  16.217  0.0928  0.0033 -0.1313
73936W        W16927  21.822   6.392  21.194  0.1810 -0.1187 -0.0757
73937W        W16928   3.005  26.990  22.320 -0.4334 -0.1280  0.2051
73938W        W16929  31.308   8.906   2.763 -0.0707  0.2208  0.3205
73939W        W16930  18.672   9.952  27.454  0.1031  0.2937  0.1655
73940W        W16931  34.168   9.787  18.116 -0.1493  0.3274 -0.0394
73941W        W16932  19.526  34.522   3.473  0.2290  0.2465  0.0510
73942W        W16933   2.580  33.746  24.966  0.1415  0.0802  0.1448
73943W        W16934  14.580   3.859  25.237  0.0304  0.0976 -0.0787
73944W        W16935  14.906  20.773   9.065  0.0916  0.1815 -0.0106
73945W        W16936  15.675  27.908   4.910 -0.1623  0.0706  0.3105
73946W        W16937  21.996  11.787  24.499  0.0827 -0.0756  0.0809
73947W        W16938  27.601  30.091  16.307 -0.3684 -0.0643  0.0912
73948W        W16939  24.685   4.706   2.894 -0.2586  0.2771  0.0444
73949W        W16940  27.179  18.284  16.731 -0.2132  0.0394  0.2126
73950W        W16941  23.324  20.739   0.922 -0.0564  0.0230 -0.4009
73951W        W16942   2.984  20.346   2.308 -0.0201  0.0948  0.1258
73952W        W16943  29.071  15.331  20.740 -0.3286 -0.0735 -0.0063
73953W        W16944   2.845  21.257   1.886 -0.0146  0.4454  0.1167
73954W        W16945   9.690  11.456   1.649 -0.1609 -0.3355  0.4290
73955W        W16946  31.086  33.579  20.484  0.0141  0.0059 -0.0564
73956W        W16947  21.307  16.417  23.721  0.0020  0.1846  0.1328
73957W        W16948  14.569  10.764  27.170  0.1971  0.0011  0.0381
73958W        W16949  22.914   5.759   4.465 -0.1590 -0.0379  0.0887
73959W        W16950  21.656   4.846   6.277 -0.1060 -0.0102 -0.0737
73960W        W16951  11.847  11.478  25.308 -0.1035 -0.1137 -0.0749
73961W        W16952   8.599  19.491  27.923  0.2131  0.3778 -0.1648
73962W        W16953  17.099  10.727  24.031 -0.0871 -0.0737 -0.2314
73963W        W16954  24.569  15.308   6.411 -0.1115 -0.1372  0.3381
73964W        W16955  17.493  22.040  17.673  0.0900  0.0664 -0.0199
73965W        W16956  14.373  33.071  29.141 -0.0740 -0.3006 -0.2555
73966W        W16957  26.093  22.845  16.723 -0.1097  0.2629 -0.1714
73967W        W16958  12.365  26.698  24.761  0.0308 -0.0698 -0.0627
73968W        W16959  29.029  33.140   7.462 -0.2515 -0.1330 -0.2663
73969W        W16960  29.935  14.016  15.951 -0.1207 -0.2409 -0.0010
73970W        W16961   1.492  12.909  19.333  0.0668  0.1497  0.1164
73971W        W16962  15.554  12.613  17.935 -0.1868  0.1227 -0.0435
73972W        W16963  14.038   3.078   5.007  0.0297  0.1083  0.1413
73973W        W16964  15.888   0.152   0.294  0.0615  0.1666  0.0064
73974W        W16965  12.808   7.294   3.342  0.0451  0.2472  0.1756
73975W        W16966   8.096  15.618   7.563 -0.0233  0.0864 -0.0397
73976W        W16967  31.469  26.208  27.949  0.1091  0.0921 -0.3953
73977W        W16968  18.114   6.998   0.910  0.1347 -0.2300 -0.1373
73978W        W16969  23.516   6.449   8.311  0.0915  0.3117 -0.0431
73979W        W16970  17.008  13.756  15.230 -0.1228  0.3268  0.1816
73980W        W16971  13.177   3.449   6.267 -0.0071  0.0073  0.0457
73981W        W16972  10.842  19.532  21.465  0.1491 -0.0658  0.1560
73982W        W16973  29.465  31.121  13.022 -0.1325 -0.1760 -0.3377
73983W        W16974  10.860  29.784  24.121 -0.0802  0.1116  0.2702
73984W        W16975  21.267  22.809   3.864  0.2896 -0.0161 -0.0251
73985W        W16976  15.907  31.789  24.279 -0.1836 -0.1899 -0.2649
73986W        W16977  21.722  23.467  15.885  0.0352  0.0628 -0.1999
73987W        W16978  33.421  31.744   5.416 -0.1076  0.0408 -0.3034
73988W        W16979  21.069   9.470  18.248 -0.1709  0.0092  0.0755
73989W        W16980  25.270  26.944   1.114 -0.0355 -0.2014  0.3044
73990W        W16981  26.730  20.006  18.938  0.0000  0.2080 -0.1828
73991W        W16982  10.736  16.020  25.288 -0.0207 -0.0139  0.3810
73992W        W16983  20.613  19.013   7.568 -0.0349 -0.3665  0.0430
73993W        W16984  19.601  24.675  19.850  0.1450 -0.0015 -0.0190
73994W        W16985  30.055  20.850  17.230 -0.0078 -0.1166 -0.1041
73995W        W16986  19.797  25.850  24.570  0.1100 -0.1030  0.0499
73996W        W16987  31.195  15.178  17.385 -0.0587 -0.2563 -0.0793
73997W        W16988  22.605  30.810  21.282 -0.2073 -0.2594 -0.1321
73998W        W16989  33.482  17.108  20.771 -0.0380  0.2415  0.0388
73999W        W16990  17.338  22.418  19.434  0.1093  0.2858  0.3834
74000W        W16991  32.862  15.831  23.989 -0.0627 -0.3174  0.2053
74001W        W16992  27.598   5.137  13.960  0.1319 -0.2128 -0.0371
74002W        W16993  23.949  20.509  15.403 -0.0945  0.1239  0.0768
74003W        W16994   3.977  11.655  10.464  0.0906 -0.0922 -0.1743
74004W        W16995  23.767   9.015   9.393 -0.1964 -0.1386  0.4639
74005W        W16996  20.901   8.297  28.703 -0.0501 -0.2293  0.1795
74006W        W16997  29.535  16.590  27.497  0.1336  0.2263  0.1553
74007W        W16998  14.982  11.378  19.281 -0.0772  0.0076  0.1328
74008W        W16999  33.960   5.169   8.516 -0.1420  0.0609 -0.0038
74009W        W17000   6.244  12.214  24.796  0.0170 -0.0043  0.1315
74010W        W17001   9.688  11.590   6.789 -0.0189  0.1615 -0.2728
74011W        W17002   5.395  29.683   7.861  0.1851  0.0495  0.3689
74012W        W17003  18.996  12.879   7.601  0.1253  0.3366  0.2936
74013W        W17004  14.703   7.073  20.633 -0.3995 -0.0312 -0.0066
74014W        W17005  19.787  32.635   7.718 -0.0788 -0.0442  0.0646
74015W        W17006  30.272  19.053  25.718 -0.0631  0.1836 -0.3468
74016W        W17007  12.181  28.129  28.343 -0.3609 -0.0336 -0.1355
74017W        W17008  15.440   9.338   2.942  0.1944 -0.1202 -0.0517
74018W        W17009  14.405   8.771  19.947  0.1930 -0.1072 -0.0866
74019W        W17010  21.555  19.559  26.025 -0.1875  0.1625  0.1282
74020W        W17011  23.552  18.480   6.341 -0.3179 -0.4790 -0.4879
74021W        W17012   2.914   6.752   9.804 -0.0413  0.1220  0.0518
74022W        W17013   2.044  24.433  20.907 -0.2655 -0.1817  0.0618
74023W        W17014  14.138  14.238   4.256 -0.1717  0.3349 -0.0811
74024W        W17015  19.721  16.555   6.703 -0.2156 -0.2378 -0.0923
74025W        W17016  21.016   7.490  20.039  0.0893  0.1213 -0.0239
74026W        W17017  11.008   2.595   0.581 -0.0381  0.1919 -0.4573
74027W        W17018   9.134  11.332  16.479  0.0638 -0.0207 -0.0158
74028W        W17019  22.200   9.204  23.394  0.3590 -0.0018  0.2915
74029W        W17020  31.000  33.511   5.738 -0.0247  0.4447 -0.0579
74030W        W17021   9.365  12.376  18.961  0.0637  0.0163 -0.3572
74031W        W17022  20.412  10.759  19.291 -0.0155  0.0339 -0.0061
74032W        W17023  10.863  12.920  21.318  0.0399 -0.0567  0.2360
74033W        W17024  23.288  18.420  18.108 -0.2287  0.2340 -0.2034
74034W        W17025  13.498  23.545   5.082 -0.0831 -0.2291 -0.1807
74035W        W17026  23.286  16.188  10.037  0.0652 -0.1976  0.0178
74036W        W17027  30.835  17.618  11.824  0.0286 -0.2354 -0.4218
74037W        W17028  12.838  15.152   1.656 -0.1935 -0.3061 -0.1094
74038W        W17029   8.540   6.339  23.597  0.1325 -0.3298 -0.0876
74039W        W17030  11.017  22.472   6.435 -0.0948 -0.1013 -0.3321
74040W        W17031   3.789  19.869  10.937  0.0652  0.3818 -0.1097
74041W        W17032  16.888   0.416   9.109 -0.2423 -0.1013 -0.0339
74042W        W17033   2.748   1.007   0.564  0.4665  0.5401  0.0029
74043W        W17034  26.662  16.145   7.765  0.1521  0.0256  0.0028
74044W        W17035  13.684  26.449   9.525  0.0155  0.2086 -0.5092
74045W        W17036  20.847   4.115   6.773 -0.1609  0.3407 -0.0367
74046W        W17037  24.905   8.963  17.352  0.0622 -0.0875  0.1111
74047W        W17038  17.671   6.205   7.045  0.1577  0.3364 -0.1314
74048W        W17039  12.584  13.517  25.323  0.0658  0.0620  0.0259
74049W        W17040  27.645   3.456  23.029  0.0464  0.0174  0.0944
74050W        W17041  10.164   2.935  20.631  0.0212  0.2208  0.3340
74051W        W17042   2.104  30.824   6.679  0.0708  0.0381  0.0065
74052W        W17043  22.125  23.427  15.476  0.2121  0.1102 -0.0325
74053W        W17044  16.182   7.174  20.745 -0.2659 -0.2053 -0.2910
74054W        W17045  25.398  16.629  16.771 -0.1052 -0.0637  0.0384
74055W        W17046  12.061   3.351   7.426  0.0925  0.1774  0.0029
74056W        W17047  22.655   6.008   3.934  0.2561  0.1593  0.0343
74057W        W17048  16.953   2.268  21.649 -0.1160  0.2540 -0.0114
74058W        W17049   9.094  12.906  26.745  0.2155  0.0680 -0.1166
74059W        W17050   7.361   6.340  21.600  0.3360  0.0595 -0.0833
74060W        W17051  25.667  12.908   1.355  0.0737 -0.0518  0.0354
74061W        W17052  14.098  33.098  22.830 -0.0158  0.0760 -0.1016
74062W        W17053  17.373  20.505  26.953  0.2045  0.0234 -0.1331
74063W        W17054  25.405  10.223   8.417 -0.0299 -0.0577  0.0571
74064W        W17055  14.248  16.300  28.842  0.0723  0.2678  0.0844
74065W        W17056  11.733   8.271  20.538 -0.0597 -0.1789  0.0555
74066W        W17057  19.068  32.402  26.502 -0.1473  0.0001 -0.2311
74067W        W17058  10.463   2.504   5.297  0.2946  0.1382 -0.1698
74068W        W17059  21.114  26.456  26.066  0.2107  0.0101 -0.0238
74069W        W17060  14.321  30.859  27.821  0.0742  0.0633  0.1923
74070W        W17061   7.012  15.861   9.508 -0.0049  0.0112  0.0443
74071W        W17062   8.630   5.437  17.748  0.1802  0.0561  0.1450
74072W        W17063   3.862   2.989  28.904  0.1814 -0.0532  0.0480
74073W        W17064  16.905   4.403   3.443  0.1547 -0.2349  0.2941
74074W        W17065  31.935  21.413   8.076 -0.1668 -0.1860 -0.1811
74075W        W17066  25.461   5.372  25.546  0.1674  0.0344  0.2571
74076W        W17067   1.469  20.169  17.577  0.3539 -0.1788  0.0460
74077W        W17068  28.517  34.297  27.779  0.0516 -0.0826  0.2935
74078W        W17069  29.896   5.956  16.730  0.2478  0.2333 -0.0945
74079W        W17070  28.115   7.963   4.892  0.3576  0.1813 -0.0067
74080W        W17071   8.947  18.350   5.947 -0.0111 -0.1975 -0.3538
74081W        W17072  33.542   6.209   6.260 -0.1608 -0.0819 -0.1002
74082W        W17073  19.439  11.796   2.426 -0.0215 -0.1105 -0.1572
74083W        W17074  33.643   2.683  27.600 -0.0554 -0.0690  0.0241
74084W        W17075  16.973  10.773  17.129 -0.0964  0.0588  0.1543
74085W        W17076  32.189  13.845  23.623  0.0331 -0.0607  0.1337
74086W        W17077  11.598  14.013   2.180  0.2877  0.1404 -0.0428
74087W        W17078  30.262  23.103   1.162  0.2331 -0.1479 -0.0954
74088W        W17079  29.530  19.889  16.869 -0.2436 -0.1473 -0.1039
74089W        W17080  11.244  28.835  28.763  0.1592 -0.0431  0.1586
74090W        W17081  19.349  13.698  24.679 -0.5013 -0.4191 -0.0308
74091W        W17082  31.849  21.835   9.953  0.0460  0.2352  0.1223
74092W        W17083  31.518   6.410   5.039 -0.1284  0.0152 -0.0439
74093W        W17084  24.162  23.764  15.545  0.0841 -0.1824 -0.0164
74094W        W17085  11.435   3.194   9.904 -0.0523  0.1039 -0.1972
74095W        W17086  22.929   4.092   0.735  0.1559 -0.0636 -0.2007
74096W        W17087  20.447  15.642  26.727  0.2255  0.0910  0.0605
74097W        W17088  12.647   6.884  28.557  0.0478 -0.1813  0.1884
74098W        W17089   6.276  20.255  16.654 -0.3837 -0.1919  0.0613
74099W        W17090  27.528  14.289   0.850 -0.1030  0.0507 -0.1398
74100W        W17091  12.128   8.927   0.195  0.0194  0.1856 -0.0518
74101W        W17092  20.697  17.224  18.182  0.1973 -0.2120 -0.1080
74102W        W17093   3.719  10.728  16.374  0.0817  0.1239  0.2112
74103W        W17094  17.014  14.879  14.465  0.0364 -0.0004 -0.0510
74104W        W17095  29.683  33.687  20.787 -0.0689  0.1499  0.0058
74105W        W17096  33.429  26.497  20.052 -0.2264  0.2960  0.0997
74106W        W17097   0.058  24.764  28.588 -0.0618  0.1483 -0.2418
74107W        W17098   7.990  31.764  24.759 -0.3450 -0.6197  0.0647
74108W        W17099  18.541  13.070  20.101  0.0244  0.1750  0.2576
74109W        W17100   2.425  18.847  27.213 -0.0546 -0.1841  0.1485
74110W        W17101  26.366  22.244  15.394  0.1901  0.2899 -0.2983
74111W        W17102  11.922  28.371  17.629  0.1001  0.2033  0.0154
74112W        W17103  10.804  11.911  21.983 -0.2599 -0.1353 -0.1408
74113W        W17104  31.463  23.328  15.562 -0.1560  0.0288  0.0947
74114W        W17105  14.243   3.805  17.089  0.1823  0.2643 -0.2583
74115W        W17106  16.109  11.554  14.656  0.0094  0.0675 -0.3282
74116W        W17107  15.077  20.971  24.854 -0.0443 -0.1516 -0.0562
74117W        W17108  10.867   2.285  20.075  0.1023 -0.0099 -0.0282
74118W        W17109  16.451  18.720  14.956  0.2734  0.0946  0.1836
74119W        W17110  11.199  10.549   7.967  0.1098  0.0187 -0.3492
74120W        W17111   9.450  13.203  26.958  0.3964  0.2667 -0.2882
74121W        W17112   4.938  17.349  26.890  0.1183 -0.4145  0.1747
74122W        W17113   3.818   5.950  19.777  0.1403  0.0734  0.2434
74123W        W17114  14.505  12.835  23.097 -0.1984 -0.0176 -0.0296
74124W        W17115  12.646  30.519  14.052 -0.4980  0.3034  0.1194
74125W        W17116  11.676  17.329  19.223  0.4679 -0.0134  0.1104
74126W        W17117  10.621  19.620  16.153  0.0861 -0.0490  0.2293
74127W        W17118  30.247   2.743  25.022  0.3167 -0.0690  0.1471
74128W        W17119  15.796   9.226  21.279  0.1829  0.2402 -0.1042
74129W        W17120   8.365  20.506  27.968 -0.0168 -0.0308  0.2507
74130W        W17121  22.621  17.464  20.633 -0.2102  0.0488 -0.1068
74131W        W17122   9.430  22.470  15.404 -0.1719 -0.1086  0.2218
74132W        W17123  11.953  10.155  16.441  0.1119  0.0536  0.1426
74133W        W17124  10.771  28.406  16.895  0.0772 -0.1086  0.3817
74134W        W17125  22.516   4.975  17.299  0.1479 -0.1199 -0.0417
74135W        W17126  33.202  11.747  19.479  0.1416 -0.0069 -0.1435
74136W        W17127   2.557  12.810  23.399 -0.0579  0.1154 -0.0049
74137W        W17128  14.653   6.872  23.619  0.0503  0.0786 -0.1000
74138W        W17129  29.283  26.557  22.401  0.1177 -0.3772 -0.2391
74139W        W17130  17.263   8.391  15.051  0.3319  0.2385  0.1595
74140W        W17131   9.955  25.149  20.584 -0.1933 -0.0102 -0.2012
74141W        W17132  19.496  11.833   1.290  0.1227  0.1954 -0.0769
74142W        W17133  14.705  22.720  24.737  0.4597  0.3707 -0.1778
74143W        W17134  27.847  26.690  18.149  0.0931 -0.0858  0.2462
74144W        W17135  10.641  17.748  14.795 -0.1949  0.0767 -0.0611
74145W        W17136  20.412  15.189  17.730 -0.2767  0.3711 -0.0811
74146W        W17137  23.299  19.406  17.359 -0.2968 -0.2442  0.2500
74147W        W17138  14.341  16.322  13.115 -0.1726  0.0378  0.1833
74148W        W17139   9.910  16.192   7.550 -0.0120  0.0728  0.2709
74149W        W17140  13.026  10.478  20.859  0.2592 -0.0542  0.3145
74150W        W17141   4.820  15.500  18.354 -0.0346  0.1587  0.0730
74151W        W17142  29.475  26.207  22.945 -0.0889 -0.2485  0.0080
74152W        W17143  26.901  27.314  13.766 -0.3967  0.1820  0.2464
74153W        W17144   9.937  23.615  19.636 -0.0378 -0.0514 -0.1584
74154W        W17145  11.109  10.693  29.143 -0.0982 -0.3094 -0.0865
74155W        W17146  27.578  22.899  16.836 -0.1458  0.0120 -0.3044
74156W        W17147  20.847   9.155  19.421  0.2581 -0.0605 -0.0757
74157W        W17148   8.033   5.386  25.216 -0.4759 -0.0948  0.0363
74158W        W17149   4.175  13.764  17.929 -0.1524 -0.2243  0.2726
74159W        W17150   7.756   6.375  23.368  0.0315  0.0574  0.1946
74160W        W17151  18.363  19.519  14.732 -0.1541 -0.1300 -0.0250
74161W        W17152  11.817  14.039  20.919 -0.2930  0.0856  0.2569
74162W        W17153  20.941  20.719  27.302  0.1958  0.3974 -0.0998
74163W        W17154  26.969  15.956  15.513  0.1720 -0.2539 -0.0462
74164W        W17155  30.825   9.731  18.651 -0.0295 -0.4185 -0.0433
74165W        W17156  25.535  17.506  21.144  0.0952 -0.1668  0.1305
74166W        W17157   2.389  18.997  22.515  0.3508 -0.1906  0.1755
74167W        W17158  29.249   2.693  22.738  0.0323  0.0633 -0.0374
74168W        W17159  16.520  28.012  16.060 -0.3501  0.0967  0.1458
74169W        W17160  11.885  20.154  20.419  0.1424  0.0369  0.1310
74170W        W17161  24.101  22.086  20.067  0.0331  0.0524  0.2317
74171W        W17162   5.903  30.224  17.960  0.1902 -0.2250 -0.1884
74172W        W17163  23.192  17.551   0.262 -0.2263 -0.0401 -0.0732
74173W        W17164  21.246  34.372  21.261  0.1919 -0.0396 -0.0347
74174W        W17165  15.583  21.114  23.916 -0.0636 -0.1815  0.2362
74175W        W17166  32.041  22.678  16.810  0.2170 -0.3884  0.1259
74176W        W17167  14.606  22.491  18.876 -0.2280 -0.0825  0.1392
74177W        W17168  11.377  21.637  14.534  0.0362  0.2204  0.4292
74178W        W17169  18.640  17.529  17.656  0.1220 -0.0202 -0.1372
74179W        W17170   8.163  31.407   2.802 -0.2793 -0.0371  0.1370
74180W        W17171  12.273   5.049   0.464  0.0287 -0.1692 -0.2173
74181W        W17172  24.721  14.777  20.806 -0.0859  0.1007 -0.0920
74182W        W17173  22.098   1.374  27.264  0.1402 -0.1244 -0.2279
74183W        W17174  20.951  12.229  21.699  0.0829  0.1574  0.0315
74184W        W17175  18.362   5.482  18.284  0.0608 -0.0298 -0.0714
74185W        W17176   6.547  18.213  16.006  0.0920 -0.0141  0.2905
74186W        W17177  25.074  31.396  28.982  0.0674 -0.0488  0.1207
74187W        W17178  28.268  17.050   6.885  0.2444  0.1011  0.3173
74188W        W17179  18.367  11.653  14.024  0.0739 -0.2148  0.1241
74189W        W17180  25.293  15.450  23.806  0.1338  0.0261  0.2567
74190W        W17181  21.641   8.471  13.422  0.2018 -0.1137  0.2072
74191W        W17182  30.797  23.258  20.437  0.0728  0.1391 -0.0259
74192W        W17183  13.870  23.800  29.076  0.2640 -0.0074 -0.0238
74193W        W17184  25.011  17.298  18.993 -0.0148  0.2160 -0.1167
74194W        W17185  11.608  12.362  15.340  0.3999 -0.2733  0.0028
74195W        W17186  21.938  32.311  15.684  0.1515 -0.1294 -0.2598
74196W        W17187  11.064   7.561  23.432  0.0629  0.3372 -0.3916
74197W        W17188  21.645  27.812  15.847  0.0254 -0.1008  0.0525
74198W        W17189  14.433  34.305   5.935 -0.1255  0.2658  0.2259
74199W        W17190  25.614  33.412  13.477  0.0599  0.0333  0.1230
74200W        W17191  19.591  25.229  13.736 -0.0517 -0.1978 -0.2371
74201W        W17192   9.421  27.751  18.047  0.0930  0.0591 -0.2308
74202W        W17193  25.948  30.093  12.612 -0.0002 -0.2418  0.2701
74203W        W17194  22.693   0.359  17.875  0.2114 -0.0959 -0.0560
74204W        W17195   8.100  22.626  17.651  0.1712  0.2845  0.0117
74205W        W17196   8.519  16.062  16.086 -0.0881  0.0716 -0.1313
74206W        W17197   7.810  13.945  17.647 -0.2813  0.0879  0.1613
74207W        W17198   0.915   7.911  20.784 -0.3350  0.3315  0.1160
74208W        W17199  18.497   7.061  17.346 -0.0114 -0.0436 -0.1143
74209W        W17200  13.239  19.625   0.534  0.3651 -0.1892 -0.1970
74210W        W17201  33.123   1.026  23.159  0.0970  0.1249  0.1209
74211W        W17202  27.014  30.918  23.919  0.1751 -0.1311 -0.1565
74212W        W17203  20.402  16.832  24.705 -0.1269  0.1817 -0.1805
74213W        W17204  12.584  10.730   6.336  0.2942  0.0213 -0.0241
74214W        W17205  11.912   9.260  24.578 -0.0908 -0.0807 -0.1158
74215W        W17206  22.285  14.360  13.936  0.1016 -0.0180  0.1914
74216W        W17207  21.979   2.999  23.633  0.0932  0.0474 -0.1555
74217W        W17208  13.723  23.425  21.019  0.2699 -0.0049  0.1398
74218W        W17209  21.294  11.074   4.464 -0.1699  0.2523  0.2625
74219W        W17210  12.707  26.918   8.356  0.3458 -0.0309  0.2806
74220W        W17211  10.325  23.063  24.364  0.0005  0.0238 -0.1085
74221W        W17212  14.521  14.322  29.084  0.0045 -0.0251  0.2930
74222W        W17213   7.281  28.601  14.613  0.1203  0.2739 -0.1499
74223W        W17214  24.213   8.373  24.395  0.0614  0.1112 -0.1114
74224W        W17215  17.584  23.194  15.277  0.1589  0.3377  0.4106
74225W        W17216   7.557   3.062   3.823  0.2172 -0.0515  0.3192
74226W        W17217  18.115  33.184  26.219  0.1494  0.2519 -0.1147
74227W        W17218  10.613  10.375  22.757  0.0330  0.1880 -0.1026
74228W        W17219   6.980  25.365  15.434  0.2723 -0.0539  0.0122
74229W        W17220  29.065  17.152  17.841 -0.1430  0.0252  0.0510
74230W        W17221  10.902  26.400  18.855  0.0751 -0.1142  0.1503
74231W        W17222  22.427   7.251  17.303  0.0940  0.0172 -0.0451
74232W        W17223  31.598  12.482  20.132 -0.0074  0.0691  0.1807
74233W        W17224  24.494  13.875  18.878 -0.4621 -0.1275 -0.3364
74234W        W17225  25.578  13.030   8.236 -0.0839 -0.1355 -0.1110
74235W        W17226  19.872  10.191  15.386 -0.0146  0.1318  0.0480
74236W        W17227   3.530  13.137  20.589 -0.2232  0.1586  0.3042
74237W        W17228   9.805  11.311  22.172 -0.0551 -0.0866  0.2504
74238W        W17229   8.201  26.240   0.166 -0.2433  0.2815  0.1301
74239W        W17230  19.101   7.990  27.817  0.0375  0.1395  0.0610
74240W        W17231  21.170   8.713  28.097  0.0133  0.3314 -0.0872
74241W        W17232  28.366  13.628  17.829  0.2030 -0.0372  0.1213
74242W        W17233  15.576  10.231  17.025 -0.2014  0.0506  0.1251
74243W        W17234  14.672  31.362  22.510 -0.0052  0.2967  0.2812
74244W        W17235  22.512   7.820  23.668 -0.0707  0.1048 -0.0259
74245W        W17236  19.352  24.096  26.021 -0.2929  0.0142 -0.1781
74246W        W17237  11.551  28.769   3.386 -0.0094 -0.0524  0.1003
74247W        W17238  15.948  27.398  16.057  0.0854 -0.0011  0.0258
74248W        W17239   3.562  21.301  25.610  0.1398  0.3606 -0.0937
74249W        W17240   1.555  21.086  21.981 -0.1033 -0.1795 -0.2350
74250W        W17241  23.931  14.782  24.807 -0.4098  0.1451  0.0239
74251W        W17242   2.181  23.352  24.658 -0.0780 -0.1819  0.3252
74252W        W17243   0.793  14.876   7.548 -0.0596 -0.2393  0.0327
74253W        W17244  10.307  20.884   0.605  0.0824 -0.2215 -0.0415
74254W        W17245  34.057   6.854   4.413  0.2946  0.0361 -0.0763
74255W        W17246  34.219  27.561  21.754 -0.1414 -0.1114 -0.0344
74256W        W17247  26.913  15.500  18.516  0.2873  0.0320 -0.0356
74257W        W17248  33.100  20.663  21.877  0.1813 -0.3328  0.0246
74258W        W17249  13.789  26.738  22.496 -0.0686 -0.1021 -0.0037
74259W        W17250   7.382   1.980  24.805  0.0554 -0.0548  0.0423
74260W        W17251  22.457  31.853   0.771  0.1207 -0.2427  0.2063
74261W        W17252  23.964  12.074  17.908  0.1088 -0.1332  0.0613
74262W        W17253  21.831  15.637  13.467 -0.2963  0.0463  0.0859
74263W        W17254  26.134  23.013  22.825  0.1075  0.0669 -0.4156
74264W        W17255   4.411  20.297  21.207 -0.0893 -0.0015  0.0784
74265W        W17256  23.089   5.980  17.877 -0.2482  0.0348  0.0719
74266W        W17257  15.515  28.531  15.921 -0.0616 -0.3210 -0.0632
74267W        W17258  27.631  32.584  19.140  0.1167 -0.1038  0.0351
74268W        W17259   4.027  20.508  22.906 -0.1149  0.2906 -0.4635
74269W        W17260   8.084  13.783  22.937  0.0302  0.1302 -0.2881
74270W        W17261  17.849  10.168  22.422  0.2423  0.0776 -0.2695
74271W        W17262  16.354  23.620  16.832  0.1539 -0.0779  0.2810
74272W        W17263   8.563   8.865  17.039  0.0506 -0.0776  0.2401
74273W        W17264  12.994  13.912  19.401 -0.1663 -0.1927 -0.2413
74274W        W17265   6.339  20.169  21.587  0.2074 -0.2816 -0.0943
74275W        W17266  11.039  20.795  15.753  0.2207  0.0091 -0.0717
74276W        W17267   4.898  17.751  24.402  0.0846  0.0554 -0.1418
74277W        W17268  17.396  16.047  14.759  0.0992  0.0022  0.1552
74278W        W17269  15.017  34.169  21.434 -0.2844 -0.3107 -0.0977
74279W        W17270  24.559   9.589  19.492 -0.1780 -0.1255 -0.2558
74280W        W17271  13.501  17.724  12.507 -0.1037 -0.1663 -0.0365
74281W        W17272  12.112  26.798  23.241 -0.2341  0.0120 -0.1002
74282W        W17273  14.370  26.262  19.311 -0.0001 -0.0262 -0.0678
74283W        W17274  10.084  24.743  21.486  0.0603  0.2286  0.1181
74284W        W17275  23.136   3.289   8.033  0.0187 -0.1432  0.0801
74285W        W17276  19.437   0.736  27.173 -0.1891 -0.4934 -0.1223
74286W        W17277  30.237  19.070  22.617 -0.0482  0.2114  0.2456
74287W        W17278  24.194  25.498  17.467 -0.3767 -0.2256 -0.4182
74288W        W17279  18.979   5.135   1.879 -0.1033 -0.1683 -0.0732
74289W        W17280  13.046  26.814  17.973 -0.0943 -0.1152 -0.0261
74290W        W17281  21.049  30.443  14.105 -0.2042  0.0311 -0.1663
74291W        W17282  18.296  28.748  21.964  0.0065 -0.0113 -0.0460
74292W        W17283  17.837  14.206  16.497 -0.1428  0.1608  0.1818
74293W        W17284   6.894  14.610  19.311 -0.0858 -0.2086 -0.4262
74294W        W17285   5.539  17.971  18.483 -0.2057  0.0837  0.2209
74295W        W17286   2.786   6.688  14.865  0.2870  0.0777  0.1023
74296W        W17287   9.748  15.311  26.576 -0.0061  0.0951 -0.2133
74297W        W17288  23.300  30.109  20.343 -0.4076 -0.1957 -0.2587
74298W        W17289  11.867  33.469   3.806 -0.2888  0.1869 -0.1828
74299W        W17290  26.774  13.423  22.184  0.2484  0.1092 -0.1758
74300W        W17291  19.896  13.761  13.211  0.1281 -0.0068 -0.0478
74301W        W17292   0.211  16.636  26.973 -0.1436  0.0571  0.0040
74302W        W17293  11.947  30.501  25.825  0.0013  0.0889  0.1245
74303W        W17294  30.033  21.699  20.239 -0.2189 -0.0824  0.0096
74304W        W17295   8.031  30.891   0.789 -0.1721 -0.1941 -0.1198
74305W        W17296   7.846  16.785   3.321  0.1699  0.0990  0.3382
74306W        W17297  13.533  21.296  13.008 -0.0229  0.3373 -0.2313
74307W        W17298  11.781  24.632  27.912 -0.1822  0.1693 -0.0693
74308W        W17299  18.346   0.486  13.041 -0.0297 -0.1330 -0.0298
74309W        W17300  20.554   7.719  17.194  0.1033 -0.0532  0.1345
74310W        W17301  10.477  11.192  27.247  0.2763 -0.0678 -0.1556
74311W        W17302  22.222   5.468  14.459  0.1026  0.1713  0.5013
74312W        W17303  17.528   1.471  25.797  0.2365 -0.0392  0.1914
74313W        W17304  23.337  26.722  17.625  0.1573  0.0784 -0.1010
74314W        W17305   5.499  30.392  27.796 -0.2144  0.5342 -0.1584
74315W        W17306  10.262  12.635  19.620 -0.0599  0.0856 -0.0335
74316W        W17307  13.502  33.034  13.938 -0.0169  0.1351  0.3671
74317W        W17308  29.093  17.122  21.725 -0.2547 -0.0152 -0.3510
74318W        W17309   2.176   2.297  27.498 -0.0029  0.1757 -0.0884
74319W        W17310  20.952   7.278   2.133 -0.0376  0.0708 -0.1613
74320W        W17311  21.885  16.009  14.975 -0.0892 -0.0068 -0.0143
74321W        W17312   7.136  14.260  20.988  0.2613  0.2349  0.2074
74322W        W17313  15.882   0.020  15.253  0.2951  0.0136  0.1813
74323W        W17314   1.191  15.081   2.501 -0.2080 -0.4147 -0.2640
74324W        W17315  28.844  34.281  18.234  0.0497  0.2179  0.1068
74325W        W17316  26.730  11.334  22.994 -0.2079 -0.2322  0.0998
74326W        W17317   5.369   2.202  10.293 -0.0114  0.0887 -0.0381
74327W        W17318  15.466  32.703   9.248  0.0903 -0.2048 -0.0118
74328W        W17319  17.734  13.824  16.062 -0.2944  0.3476 -0.0330
74329W        W17320  34.060  14.748  21.822 -0.0779 -0.0185 -0.4606
74330W        W17321  13.293   9.360  24.607  0.3014 -0.2022  0.0176
74331W        W17322   7.858  19.194  19.234 -0.0829  0.2676  0.2121
74332W        W17323  23.150  24.645   1.174  0.0115 -0.1126 -0.2133
74333W        W17324   8.905  17.973  18.765 -0.0694 -0.1272 -0.1725
74334W        W17325  24.039  11.189  20.015  0.0342 -0.1160  0.2432
74335W        W17326  24.146  14.523  26.411 -0.0075 -0.1553 -0.0071
74336W        W17327   4.070  18.389  26.848  0.0771  0.0851  0.0544
74337W        W17328  20.267  11.817  22.229 -0.1954 -0.1329  0.1754
74338W        W17329  14.883   7.774  17.403  0.1849 -0.0400  0.0616
74339W        W17330   2.538   4.510  22.341  0.0567 -0.3200  0.0851
74340W        W17331  20.677  28.176  24.092  0.2818  0.4562 -0.1783
74341W        W17332  12.649   5.809   0.488 -0.1127 -0.1698 -0.2472
74342W        W17333  16.438   5.067  18.034 -0.1215  0.2285 -0.0497
74343W        W17334  17.458   3.363   4.124  0.2600  0.1024  0.1067
74344W        W17335  24.170  20.138  19.378 -0.1586 -0.1948  0.1064
74345W        W17336  12.950  26.139  16.579  0.2284 -0.3865 -0.1960
74346W        W17337  17.946  17.585  11.964 -0.3419  0.2235 -0.0279
74347W        W17338  10.701  27.494  26.749  0.0592 -0.4158  0.1774
74348W        W17339   5.230  15.581  20.101 -0.0386 -0.0069 -0.1447
74349W        W17340  14.264  13.825  24.818  0.2972  0.2168  0.2470
74350W        W17341   8.015  14.952  15.513 -0.3239 -0.3768 -0.2556
74351W        W17342  12.957   1.791  27.333 -0.0804 -0.1931 -0.1525
74352W        W17343  30.466   9.445  14.502  0.1167  0.0907 -0.1328
74353W        W17344  26.139  29.463  15.396 -0.1740 -0.1933 -0.1319
74354W        W17345  16.288  31.634   0.216 -0.1790 -0.3129 -0.0810
74355W        W17346  13.473   6.401  20.896  0.3010 -0.0070  0.0503
74356W        W17347   7.994   7.137   6.573 -0.2479 -0.2190 -0.1508
74357W        W17348  19.158  25.354  18.809 -0.2651  0.3202 -0.3046
74358W        W17349   9.759  22.486  27.439 -0.0336  0.0102 -0.0176
74359W        W17350  25.930  25.791  13.985 -0.0789  0.4580 -0.0828
74360W        W17351  31.312  25.424  24.222 -0.0819  0.0493 -0.1007
74361W        W17352  27.461  12.640   2.421 -0.0116  0.0083 -0.1409
74362W        W17353  33.517  11.909  17.022  0.1200  0.1280  0.2780
74363W        W17354  30.917  27.062  19.116 -0.2703 -0.0472 -0.1046
74364W        W17355  25.822  16.008   4.575 -0.1038 -0.0577  0.1168
74365W        W17356  15.072  31.313  14.573  0.1978 -0.1522 -0.1717
74366W        W17357   6.457  14.857  17.317 -0.3425 -0.0016  0.0757
74367W        W17358  19.635  23.371  16.945  0.0312  0.0070  0.0534
74368W        W17359   2.753   7.108  23.248 -0.1951 -0.2686 -0.0166
74369W        W17360  27.457  19.619  19.253 -0.1665 -0.2468  0.2418
74370W        W17361  18.837  10.575  16.698 -0.1996  0.0356 -0.0787
74371W        W17362   2.970  16.223  16.662  0.1417  0.3181  0.0524
74372W        W17363  11.404  24.739  18.119 -0.0448 -0.1065  0.0868
74373W        W17364  19.893  14.242  14.396 -0.0401  0.0064 -0.1120
74374W        W17365  11.289  13.826  20.855 -0.0939 -0.4243  0.4306
74375W        W17366   9.323  22.372  18.893 -0.0404  0.0542  0.3787
74376W        W17367  17.858  22.891  22.429  0.2912 -0.0244 -0.1522
74377W        W17368   9.362  13.922  26.964  0.1328 -0.3966 -0.0495
74378W        W17369  10.618   0.763  20.159 -0.1229 -0.0233  0.1539
74379W        W17370   1.738  23.602  16.742 -0.0587  0.1516 -0.0040
74380W        W17371   8.997  13.106  20.840  0.1125  0.0187 -0.1210
74381W        W17372  19.170   6.927  16.009 -0.1309 -0.2072 -0.1082
74382W        W17373  22.464  16.385  19.830 -0.0167  0.2237  0.0294
74383W        W17374  15.064  18.628   3.590 -0.1657 -0.2193  0.0740
74384W        W17375  25.363   6.916  14.858  0.0959 -0.3504 -0.1917
74385W        W17376  29.342  26.074  14.476 -0.3282 -0.2492  0.1624
74386W        W17377   3.402  11.598  23.787 -0.0929 -0.0534  0.3716
74387W        W17378   8.294  24.301  15.014 -0.2503  0.0713  0.3903
74388W        W17379  29.618  33.543  19.090 -0.1495  0.0097 -0.1683
74389W        W17380  19.914  24.995  18.960  0.2359 -0.2777 -0.0005
74390W        W17381  16.918   8.208   0.129 -0.2733  0.0129  0.0592
74391W        W17382   7.075   1.628  23.056 -0.1520 -0.0967  0.0723
74392W        W17383  16.405  13.479  18.499  0.0035  0.0507  0.1202
74393W        W17384  16.112  13.381  17.548  0.1574 -0.2989  0.0169
74394W        W17385  17.846  29.440  21.397  0.1013  0.0377  0.0376
74395W        W17386  10.145  12.270  19.901  0.0141 -0.1620 -0.1684
74396W        W17387  24.471  22.248  20.359 -0.0763  0.1433 -0.3927
74397W        W17388  27.010   3.776  21.582 -0.0539 -0.2482 -0.2544
74398W        W17389  14.322  26.462  20.291 -0.0823 -0.2285 -0.1185
74399W        W17390  12.642  15.096  18.942  0.3849 -0.0081  0.1568
74400W        W17391  11.490  30.428  24.901 -0.2119 -0.3637 -0.0124
74401W        W17392  28.938  33.418  25.504 -0.0876  0.2198 -0.0938
74402W        W17393   6.703  21.182  26.885 -0.1651  0.0898  0.2275
74403W        W17394  25.747  20.769  17.694  0.6383 -0.0137 -0.1677
74404W        W17395  14.746  14.292   1.940  0.0972 -0.1360  0.0797
74405W        W17396   6.597  24.090  15.163  0.3979 -0.0200  0.0775
74406W        W17397  19.719   2.188  13.882 -0.0287 -0.3447  0.0328
74407W        W17398  25.443  20.133  27.647  0.0116 -0.3648  0.3257
74408W        W17399   0.759  13.382  19.964  0.2092  0.1851  0.0678
74409W        W17400  13.286  12.724  15.654 -0.2473 -0.0174 -0.0020
74410W        W17401  28.485  15.365  19.934  0.3254  0.2819  0.0850
74411W        W17402  23.907  18.757  24.209  0.1183 -0.1368 -0.4331
74412W        W17403  19.060   5.939  22.159  0.0054 -0.0093  0.2758
74413W        W17404  14.927  33.860  28.156  0.2698  0.0109  0.1829
74414W        W17405  15.414  21.149   3.560  0.0445 -0.0863 -0.1569
74415W        W17406  13.517   3.927   0.366 -0.0085  0.1343 -0.2813
74416W        W17407  16.191  26.727  14.948 -0.0557 -0.2647  0.2036
74417W        W17408  30.139  31.407  26.052  0.1861  0.0297 -0.0174
74418W        W17409  26.195  18.840  24.783  0.1975 -0.2167 -0.1511
74419W        W17410  31.979   1.403  26.655 -0.0101  0.1151 -0.1794
74420W        W17411  25.788  22.344  21.475  0.2925 -0.1360 -0.0688
74421W        W17412   6.777  20.103  24.087 -0.1269 -0.3267 -0.0443
74422W        W17413   6.763  26.778  15.474 -0.1083  0.1317  0.1807
74423W        W17414  24.253  26.933  18.408 -0.3402  0.1783 -0.0903
74424W        W17415  25.491  13.057  14.851  0.4310  0.3519  0.1003
74425W        W17416   2.460  10.775  16.161  0.1360  0.0555  0.1078
74426W        W17417   4.334  13.144  21.214  0.1437 -0.0673  0.1209
74427W        W17418  29.401  10.799  22.118 -0.1848  0.1064 -0.0094
74428W        W17419  25.423  29.082  14.056 -0.0068 -0.1233 -0.1393
74429W        W17420  20.755  10.164  14.327  0.0196 -0.1499  0.1307
74430W        W17421  27.400  19.295  23.682 -0.1084 -0.0981 -0.4263
74431W        W17422  28.676  16.045  17.269 -0.1569 -0.1568  0.0836
74432W        W17423   7.476  17.237  20.410  0.2325 -0.5271 -0.3515
74433W        W17424  24.540   4.027  19.186 -0.0062 -0.5627 -0.0665
74434W        W17425   3.653  12.750  15.899 -0.1089  0.0987 -0.3890
74435W        W17426  17.788  31.211  14.734  0.2627 -0.0678  0.2551
74436W        W17427   7.474  33.738  23.594 -0.2326  0.1078  0.2292
74437W        W17428  24.996  23.411  15.006  0.0851 -0.2247  0.1026
74438W        W17429  30.324   6.640  15.339 -0.1410  0.1198 -0.2424
74439W        W17430  21.551  11.190  15.121 -0.1368 -0.0257  0.0157
74440W        W17431  11.418  12.829  26.932  0.0431 -0.4337 -0.0252
74441W        W17432  18.458   5.816  15.937 -0.0161 -0.0661  0.2841
74442W        W17433  17.398  14.843  14.129 -0.0944  0.0113 -0.1313
74443W        W17434  31.428  22.654  15.010  0.0596 -0.1921 -0.1718
74444W        W17435  12.812  33.211  21.255 -0.3205 -0.0323  0.3337
74445W        W17436  10.363  23.367  23.965  0.0904  0.0812 -0.1520
74446W        W17437  27.912  21.190  21.446  0.1575  0.0392  0.1526
74447W        W17438  21.447   8.533  23.341 -0.1352 -0.2980  0.1979
74448W        W17439  24.455  21.608  18.258 -0.0281 -0.0918 -0.4208
74449W        W17440   3.509  34.342  22.561 -0.2035 -0.2610 -0.0231
74450W        W17441  23.544   7.710   6.406 -0.2213 -0.3051  0.0163
74451W        W17442   5.597  18.587  21.647  0.1767 -0.1977 -0.1400
74452W        W17443   5.202   8.403  18.744  0.1066  0.1093  0.0248
74453W        W17444   4.224  14.315   0.735 -0.0898 -0.2592 -0.1876
74454W        W17445  16.716  21.710  19.837  0.0919  0.1725  0.2779
74455W        W17446  24.296  24.266  17.332 -0.1711 -0.2551 -0.1280
74456W        W17447   7.407  20.875  22.426  0.0638  0.0994 -0.1130
74457W        W17448  12.350  17.360  13.090 -0.2515  0.0433 -0.0813
74458W        W17449  26.080   9.149  16.772  0.0956  0.2834 -0.1213
74459W        W17450  24.392  21.097  17.478 -0.4249  0.0265  0.0575
74460W        W17451  21.055  11.093  24.942  0.0418  0.3259  0.3503
74461W        W17452   0.761  16.660   2.191 -0.2322 -0.2338 -0.0745
74462W        W17453   5.820  32.478   7.062 -0.3090 -0.0667 -0.0040
74463W        W17454  19.185  28.501   6.914  0.1681 -0.1819 -0.1915
74464W        W17455  17.922  10.625  25.087  0.3617  0.1002  0.0496
74465W        W17456  30.710   2.183  13.631 -0.4389 -0.0067 -0.2001
74466W        W17457  13.380  16.905  16.217  0.0362  0.0165 -0.2054
74467W        W17458  21.899  11.016  13.022 -0.2224  0.2727 -0.3453
74468W        W17459   3.152  34.320  27.980 -0.1868 -0.0643 -0.0518
74469W        W17460   2.881  26.024   3.939 -0.1550  0.1543  0.1370
74470W        W17461  21.956   4.887  18.713  0.2198 -0.0333  0.2643
74471W        W17462  28.608  17.788  23.949 -0.0190 -0.1766 -0.0426
74472W        W17463   8.809  15.117  19.918 -0.2320  0.1793  0.2505
74473W        W17464  13.098  20.041  18.121 -0.1769  0.4518 -0.1981
74474W        W17465  20.631  22.647  14.265 -0.4858  0.0142 -0.1644
74475W        W17466  19.118   9.234  18.712 -0.1030  0.0024 -0.1043
74476W        W17467  26.663   8.490  14.496 -0.1218  0.0346  0.1986
74477W        W17468  11.755  22.455  26.866 -0.0960  0.2878  0.0215
74478W        W17469  25.485  33.251  14.878 -0.1165  0.5170 -0.0377
74479W        W17470  25.252  30.420  15.178 -0.2147 -0.0779 -0.3705
74480W        W17471  13.634  22.815  25.942  0.3555  0.3232  0.1039
74481W        W17472  26.291  13.114  22.400 -0.0638 -0.0448  0.2387
74482W        W17473   5.971  21.876  24.093  0.2372  0.2591 -0.1116
74483W        W17474  14.344   9.250  15.236  0.0524 -0.1532 -0.2173
74484W        W17475  13.336  13.353  14.509  0.0399  0.1417 -0.1842
74485W        W17476   8.322  33.022  22.063  0.0777  0.4513  0.0681
74486W        W17477  19.204  22.577   2.385  0.2827 -0.0072  0.0677
74487W        W17478  26.235  26.389  22.925  0.1777 -0.2329  0.3489
74488W        W17479  11.160  27.008   4.838  0.2133 -0.1800  0.0461
74489W        W17480  10.295  25.872  16.403  0.2245  0.1103  0.2461
74490W        W17481  17.930  11.241  22.958  0.3611 -0.1192  0.0145
74491W        W17482  24.742  19.270  13.668  0.2833 -0.2258  0.0671
74492W        W17483   9.853  18.015  21.244 -0.0314 -0.4722 -0.1189
74493W        W17484   1.237  12.446  19.555 -0.0385 -0.0419  0.1836
74494W        W17485   8.800  10.118  28.922 -0.1491  0.2708  0.2643
74495W        W17486  16.554   8.247  21.217  0.0786 -0.1698 -0.0991
74496W        W17487   7.544  20.199  20.073  0.1456 -0.0038  0.1295
74497W        W17488   5.367  16.064  23.694 -0.0045  0.0139 -0.0400
74498W        W17489  13.952  13.126  16.139  0.2082 -0.0587  0.0211
74499W        W17490  27.172   9.644  14.838  0.0881 -0.0452 -0.2967
74500W        W17491  15.407  21.863  22.892 -0.0132  0.1200  0.1077
74501W        W17492   3.471  16.499  27.598  0.1061  0.1351  0.1584
74502W        W17493  32.560   7.221  16.141  0.0167 -0.1276 -0.0946
74503W        W17494  14.885  14.481  22.510 -0.1084 -0.0288 -0.3611
74504W        W17495  29.292   6.337  15.132 -0.0542  0.2128 -0.0583
74505W        W17496  16.824  12.266  22.577 -0.1384  0.2029  0.2793
74506W        W17497  11.060  30.195  17.367 -0.1392 -0.0464  0.1418
74507W        W17498  32.528  17.267   2.144  0.2132  0.2260  0.1836
74508W        W17499  21.671   8.531  21.134 -0.2452  0.2830 -0.4418
74509W        W17500  17.341   8.291  26.483 -0.0819 -0.1848  0.0975
74510W        W17501  17.832  23.180  20.557  0.5528 -0.0356  0.1503
74511W        W17502  18.140  13.856   2.526 -0.4760 -0.3006  0.2573
74512W        W17503   9.373   2.695  14.259 -0.1543 -0.2881 -0.1135
74513W        W17504  28.603  11.934  15.449  0.2797 -0.0701  0.1367
74514W        W17505  14.976  30.033  14.255 -0.0737  0.1633 -0.0638
74515W        W17506  13.423   5.688   1.816 -0.2814  0.0329 -0.1828
74516W        W17507  15.238   8.167   0.950  0.0931  0.2770  0.0660
74517W        W17508  17.641  15.033  14.719 -0.1474  0.1278 -0.0901
74518W        W17509  16.443  18.734  15.427  0.0187  0.0181 -0.0580
74519W        W17510   8.943  22.664  17.471  0.0666 -0.3949  0.3183
74520W        W17511  18.268  25.050  14.649 -0.1019  0.0451  0.0187
74521W        W17512   9.534  17.213  20.117 -0.1837 -0.2191 -0.2106
74522W        W17513  24.404  32.657  18.214  0.0612  0.2254  0.0896
74523W        W17514  27.245  22.338  20.668 -0.1969  0.0973  0.0867
74524W        W17515  14.850   8.771  16.722  0.0987  0.1364  0.2159
74525W        W17516  13.846  20.407  22.591  0.1221  0.0290 -0.3306
74526W        W17517  16.385  22.098   1.459 -0.0002  0.1957  0.0289
74527W        W17518   6.883  22.495  22.432  0.0303 -0.2913  0.0096
74528W        W17519   6.249  22.246  29.165  0.2254 -0.1170  0.1503
74529W        W17520  13.943   5.322  24.316 -0.1335 -0.1820 -0.2777
74530W        W17521  23.329   2.037  19.215  0.0732 -0.2797 -0.0943
74531W        W17522   9.708  18.648  22.181 -0.1145 -0.1484 -0.0646
74532W        W17523  20.090   4.216  27.327 -0.1625 -0.2159 -0.4766
74533W        W17524  28.011   6.857   9.437 -0.0901 -0.3501  0.1427
74534W        W17525   3.267  17.650   3.267 -0.0459  0.0483  0.1001
74535W        W17526   2.911  13.954   7.150 -0.1037  0.5230 -0.0078
74536W        W17527  10.536  21.465  23.334 -0.1307 -0.4330 -0.0465
74537W        W17528  24.228  13.333  24.558  0.1146  0.1096 -0.1644
74538W        W17529   2.026  31.046  14.136  0.2043  0.0217 -0.0604
74539W        W17530   9.480  25.040  25.015 -0.3481  0.0709 -0.0062
74540W        W17531  27.298  18.392  17.827 -0.3299  0.1385 -0.0952
74541W        W17532   2.778   8.414  19.413 -0.0577  0.2867 -0.2669
74542W        W17533  13.801  12.195  20.630 -0.1271  0.4065 -0.0199
74543W        W17534  16.578  34.394  14.561  0.3334  0.0112  0.1692
74544W        W17535  14.633  24.318  17.465  0.0019  0.1682  0.0784
74545W        W17536   2.905   5.761  22.834  0.1503  0.0151  0.1633
74546W        W17537  16.265  11.522  21.767 -0.0081  0.2900  0.1330
74547W        W17538  11.376  23.254  19.662  0.0592  0.0434  0.0201
74548W        W17539  19.302  14.554  28.152 -0.0942 -0.0789 -0.0387
74549W        W17540  20.554  33.850   9.414  0.3334  0.0925 -0.1600
74550W        W17541  11.579  34.292   2.018 -0.1998  0.0141  0.3003
74551W        W17542  25.301  25.274  22.549 -0.0022 -0.1487 -0.1369
74552W        W17543  34.276   4.573   5.085  0.4660  0.0199  0.1398
74553W        W17544   9.201  20.666  15.080  0.1228 -0.1600 -0.0518
74554W        W17545  21.680  29.268  12.604 -0.0340  0.0114 -0.3715
74555W        W17546   8.746  28.998   9.917  0.3117  0.1760 -0.2294
74556W        W17547  22.667  22.936  19.583  0.0271 -0.0796  0.2405
74557W        W17548  29.351  29.920  25.875 -0.1647 -0.1386 -0.0724
74558W        W17549   8.697  27.306  21.035  0.0093  0.0830 -0.1445
74559W        W17550  24.436  21.135  20.395  0.0381 -0.0578  0.0267
74560W        W17551  26.418  20.314  20.165  0.0594 -0.1463 -0.3053
74561W        W17552  17.783   3.396  18.652  0.2504 -0.2125 -0.1034
74562W        W17553  21.947   1.129  21.415 -0.1959 -0.4772 -0.0846
74563W        W17554  13.738   6.269  25.980 -0.2603 -0.0107 -0.0737
74564W        W17555  16.824   1.308   6.490  0.2737 -0.0055 -0.3223
74565W        W17556  32.942   9.698  18.184  0.0847  0.1406  0.1433
74566W        W17557  17.752  13.436  23.122 -0.1913 -0.1259 -0.2178
74567W        W17558  28.345  28.033  13.458  0.2674  0.2276  0.1704
74568W        W17559  21.135   7.319   1.116  0.0249  0.1995 -0.0424
74569W        W17560   8.307  17.694  21.434 -0.0265 -0.1584  0.1080
74570W        W17561  21.090  20.894  16.269 -0.0298 -0.0914 -0.0140
74571W        W17562  28.727  19.873  21.132 -0.1615 -0.0052 -0.0697
74572W        W17563  10.425   3.337  20.588  0.0612  0.1198 -0.2099
74573W        W17564  23.069  14.976  13.075  0.0367  0.1740  0.2223
74574W        W17565  18.196   0.209  14.973 -0.0196  0.2962  0.1919
74575W        W17566  25.215  12.904  20.340 -0.2915 -0.1552  0.1136
74576W        W17567  13.455  31.519  17.843 -0.1476 -0.0123  0.3763
74577W        W17568   7.727  32.188  16.647 -0.0126 -0.2357 -0.5216
74578W        W17569  21.221  26.739   2.961 -0.0701  0.2233  0.3839
74579W        W17570  17.361  17.217  19.596  0.1017  0.1615  0.0713
74580W        W17571   7.846  10.196  20.912  0.0684  0.1920 -0.2947
74581W        W17572  33.493  18.297  22.415  0.0613  0.2020  0.0397
74582W        W17573   3.195  29.165  24.731  0.0982 -0.3063  0.1637
74583W        W17574   0.701   4.650  29.097 -0.0923 -0.0063  0.1138
74584W        W17575  17.297  15.109   4.710  0.0700 -0.1106  0.0009
74585W        W17576  15.550  33.072  22.674  0.3112  0.1091  0.4367
74586W        W17577  18.610  17.770  18.121 -0.2420 -0.4550  0.0222
74587W        W17578  22.060  26.176  24.597 -0.1469  0.1960  0.0804
74588W        W17579  21.723  13.958  23.323  0.0202  0.0782  0.0692
74589W        W17580  24.447   9.176  19.144 -0.2518  0.0371  0.1094
74590W        W17581  10.125   6.109  15.554 -0.0035 -0.0516  0.0018
74591W        W17582  21.216  20.376  16.083 -0.1130  0.1647  0.1505
74592W        W17583   2.795  10.668  22.253 -0.0635 -0.0504 -0.3050
74593W        W17584  22.085  19.269  27.588 -0.2205  0.2039  0.0214
74594W        W17585  17.626  26.941  19.414  0.1931 -0.1720 -0.0539
74595W        W17586  19.502  17.315  14.122  0.2288  0.0193 -0.1916
74596W        W17587   5.052  16.391  21.423 -0.0316  0.0518  0.1464
74597W        W17588  13.201  22.247   6.839 -0.2006  0.4219  0.2746
74598W        W17589  33.653  26.998  20.895  0.1010 -0.1338 -0.0032
74599W        W17590  22.444   7.711  19.877  0.1081 -0.1271 -0.2520
74600W        W17591   4.796  24.456  15.316 -0.0895  0.0650 -0.0515
74601W        W17592   8.778   0.636  20.920 -0.0116  0.1189  0.0490
74602W        W17593  11.663  16.045  24.885  0.0525 -0.0637 -0.1435
74603W        W17594  14.511  10.978  23.071 -0.0160 -0.1668  0.0390
74604W        W17595  13.793   2.888  25.341 -0.2904  0.2497 -0.3503
74605W        W17596  19.189   9.413  28.911  0.0187 -0.0468  0.1116
74606W        W17597   5.410  13.021  11.190 -0.0163  0.1396 -0.1018
74607W        W17598  31.642  32.587  24.286 -0.0327 -0.3404  0.0592
74608W        W17599  31.577  14.029  22.093 -0.1662 -0.1030 -0.1619
74609W        W17600  20.469  26.580  22.588 -0.0238  0.0256 -0.0040
74610W        W17601  11.249  27.816  23.980  0.0558  0.2867  0.1237
74611W        W17602   9.068  24.523  21.914  0.3203  0.2433  0.4296
74612W        W17603  10.897  13.955  21.258 -0.3748  0.0611 -0.1328
74613W        W17604  28.964   1.146  26.193 -0.0242 -0.0700  0.1371
74614W        W17605  22.091  22.142  17.235 -0.1308 -0.1744 -0.4471
74615W        W17606  21.786  28.920  20.404  0.1778  0.1684  0.1794
74616W        W17607  29.318  18.268  19.041 -0.1889 -0.0419  0.2218
74617W        W17608   3.858   5.126  25.560  0.2378  0.1638 -0.0221
74618W        W17609   8.430  27.366  15.796  0.1407  0.0684 -0.0782
74619W        W17610  23.169   2.758  13.885 -0.1757  0.0933  0.0440
74620W        W17611  11.012  11.100  21.017 -0.0961  0.1513 -0.0101
74621W        W17612  21.660  32.481   6.298 -0.3162 -0.1976 -0.0989
74622W        W17613  25.859   9.439  25.488 -0.0608  0.0766 -0.0550
74623W        W17614  22.468  17.231  19.375  0.4038  0.2980  0.0734
74624W        W17615  22.907  34.291  15.995  0.0886  0.0581 -0.3296
74625W        W17616  18.423   2.523  21.606  0.0633  0.2031 -0.3189
74626W        W17617  18.826  20.688  15.019 -0.2483 -0.1378 -0.0545
74627W        W17618  13.784   3.191  23.135  0.1933 -0.0105  0.2103
74628W        W17619  12.444  18.397  19.240 -0.0157 -0.0629 -0.4080
74629W        W17620  21.223   5.876  14.855 -0.0992  0.1806  0.1140
74630W        W17621  20.831  27.272   7.818  0.0321  0.1061  0.1206
74631W        W17622  13.392   2.403  23.159  0.1109  0.0285 -0.0338
74632W        W17623   9.284  21.476  16.334  0.2476  0.1045  0.1694
74633W        W17624  30.865  34.751  15.282 -0.4344 -0.2642  0.0261
74634W        W17625  21.169  22.918  21.150 -0.1933  0.4023  0.2392
74635W        W17626   8.226  34.134  23.616  0.2162  0.1772  0.3679
74636W        W17627   8.890  19.923  23.080  0.0591  0.0184 -0.0273
74637W        W17628  16.839  31.072  21.596  0.0662  0.2216  0.2938
74638W        W17629   6.687  17.559  26.754 -0.0867  0.1243 -0.1063
74639W        W17630  27.881  23.678  13.957 -0.3285  0.0643 -0.3927
74640W        W17631   6.983   9.323   3.239  0.0690  0.1437  0.2998
74641W        W17632  11.719   1.205  21.815 -0.1357  0.2372  0.0962
74642W        W17633   1.789  21.052  19.298 -0.0622 -0.0765 -0.0459
74643W        W17634  27.186  21.990  19.652 -0.3470  0.0636  0.1066
74644W        W17635  31.588  21.541  26.656  0.1256 -0.1309  0.0811
74645W        W17636   6.099  10.344  22.431  0.0811  0.0019 -0.3037
74646W        W17637   5.854  14.054  18.704 -0.4291 -0.1783 -0.2353
74647W        W17638   4.149  19.838  26.095 -0.1319 -0.0153  0.1786
74648W        W17639   9.724  24.370  21.548  0.1060  0.1810 -0.0736
74649W        W17640  10.439  21.294  22.603  0.2450 -0.0956  0.0173
74650W        W17641   2.239  33.997  19.444  0.0644 -0.0439  0.0014
74651W        W17642   8.685  10.567   4.506  0.0054  0.1582 -0.0922
74652W        W17643  18.796  17.069  17.557 -0.2310 -0.0176  0.1911
74653W        W17644  20.539  34.496  26.777  0.2292 -0.1494  0.2353
74654W        W17645  11.111  20.264  13.632  0.0491 -0.0622  0.1179
74655W        W17646  11.962   2.618  17.606  0.0334  0.0957  0.0386
74656W        W17647  12.819  16.482  17.095 -0.0281  0.0587 -0.3081
74657W        W17648   3.644   0.453   1.559  0.2217  0.1429 -0.2277
74658W        W17649  17.701   0.326   1.571  0.2098  0.1464 -0.2527
74659W        W17650   8.798  13.263  22.904 -0.1532 -0.0552  0.0855
74660W        W17651   8.348  21.824  24.737  0.1999 -0.1033  0.0008
74661W        W17652   9.062   7.215  17.143 -0.1102  0.1444  0.3028
74662W        W17653  11.721  17.594  16.229 -0.0346 -0.1224  0.0401
74663W        W17654  23.802  32.248   3.536  0.2573 -0.1346  0.0074
74664W        W17655   6.028  25.390  25.062 -0.1558 -0.1802 -0.0188
74665W        W17656  29.295  26.095   7.170  0.2903 -0.0594 -0.0708
74666W        W17657   1.454  22.760   4.266 -0.1593 -0.1033 -0.0225
74667W        W17658  17.643  20.838  14.215  0.0820 -0.2692  0.2352
74668W        W17659   5.948  11.071  19.957  0.0087 -0.1689  0.2987
74669W        W17660  11.177  15.161  27.326 -0.2096 -0.1323 -0.1043
74670W        W17661  29.227  11.218  26.693  0.2860  0.1823  0.2637
74671W        W17662   8.725  10.736  21.288 -0.1789  0.1152  0.0334
74672W        W17663   4.249  21.356  23.972  0.3621  0.3238 -0.0690
74673W        W17664  24.572  21.491  25.819 -0.0028  0.0009  0.0015
74674W        W17665  26.079   8.701  20.113  0.0152  0.3542  0.0322
74675W        W17666   7.617  20.509  16.532 -0.1225 -0.2464  0.0735
74676W        W17667  13.898   9.740  27.896 -0.3504 -0.0440  0.4191
74677W        W17668  32.297  10.826  25.012 -0.0892  0.0232 -0.0306
74678W        W17669   3.434  14.739  10.663  0.2882  0.1465  0.1378
74679W        W17670   2.925  23.669  16.455 -0.0199  0.0628  0.1237
74680W        W17671  20.028  21.342  19.901  0.1490 -0.2423  0.2075
74681W        W17672  19.794  25.327  17.126  0.0849  0.2469  0.6002
74682W        W17673  12.980   7.070  16.191  0.1850 -0.0665 -0.2213
74683W        W17674  21.273  11.717  25.653 -0.2801  0.2569 -0.1043
74684W        W17675  17.751   9.537  14.020 -0.1545 -0.2799  0.2386
74685W        W17676  28.162  17.383  21.429  0.1064  0.0797 -0.0232
74686W        W17677  16.966   1.623  14.524  0.2133  0.1314  0.1393
74687W        W17678  20.470  12.686  24.626  0.2019  0.1331 -0.0166
74688W        W17679  15.264  33.019   0.065 -0.2382 -0.0818 -0.2738
74689W        W17680  29.768  12.120  23.132  0.1877 -0.0258 -0.1152
74690W        W17681  26.173  25.885  13.121 -0.0004  0.1205 -0.0480
74691W        W17682  19.023   3.768  13.440 -0.0245 -0.4622  0.1893
74692W        W17683   8.359  24.877  20.000 -0.0890 -0.1559  0.2952
74693W        W17684  28.486  33.436   2.877  0.0111 -0.2539 -0.2997
74694W        W17685  23.202   3.428  15.041 -0.1708 -0.4436 -0.2590
74695W        W17686  31.236  23.855  18.256 -0.1364  0.3005  0.1597
74696W        W17687  21.368  28.766   6.799 -0.0550 -0.3480  0.0156
74697W        W17688  25.674  32.863  13.443 -0.1374 -0.1387  0.0785
74698W        W17689  11.435  15.271  16.211  0.1158  0.1644  0.0275
74699W        W17690  20.341  28.293  25.780 -0.0502  0.0580 -0.1095
74700W        W17691   5.343  10.135  26.800  0.1871  0.0627  0.2011
74701W        W17692  34.003  30.165  20.753  0.1360 -0.2249  0.1534
74702W        W17693  11.254  28.869   2.627  0.3037 -0.2822  0.1718
74703W        W17694  22.591  23.090  20.839  0.1084  0.1980  0.2630
74704W        W17695   4.375  26.879  28.222 -0.2312 -0.1322 -0.1626
74705W        W17696  15.213  15.348  15.017 -0.0865 -0.0545 -0.0005
74706W        W17697  10.351   6.448  15.858  0.3655 -0.0193 -0.1821
74707W        W17698  16.058  24.885   3.032  0.1504 -0.0452 -0.2169
74708W        W17699  17.451  29.311  14.585 -0.3567  0.1345 -0.1860
74709W        W17700  13.349   9.503  16.590 -0.1799  0.0169 -0.2180
74710W        W17701  19.372  30.372   0.926 -0.3591  0.1593  0.1522
74711W        W17702  24.313  11.095  15.431  0.1856 -0.1891 -0.1056
74712W        W17703   9.895  14.326  22.467 -0.1587 -0.1673 -0.0506
74713W        W17704  26.114  32.784   1.703 -0.1832  0.2118  0.2290
74714W        W17705  17.807  12.674  15.301 -0.1311  0.0810 -0.3709
74715W        W17706   5.949  15.075  20.618  0.1813  0.1013  0.2110
74716W        W17707   5.682  21.938   3.382  0.1703 -0.2828 -0.1534
74717W        W17708  14.098  28.835  27.441  0.1537  0.3638  0.1676
74718W        W17709  30.481   8.505  22.040  0.3030  0.2303 -0.0254
74719W        W17710  18.380  29.387  15.576  0.0583 -0.0516 -0.1141
74720W        W17711  13.145  12.567  18.098  0.0893  0.2273 -0.1225
74721W        W17712  12.281  28.421  18.660  0.0691  0.0648 -0.0297
74722W        W17713  23.684  16.457  18.414  0.1387  0.1802 -0.2561
74723W        W17714  16.338  13.236  13.615 -0.2158 -0.0074 -0.0528
74724W        W17715  31.266  14.278  20.251  0.1599  0.0383 -0.1590
74725W        W17716  28.645   7.972  16.292 -0.1811 -0.0652 -0.0699
74726W        W17717  10.502  12.203   7.042  0.0371 -0.0787 -0.0219
74727W        W17718  28.094   0.113  17.862 -0.1948  0.1190 -0.0706
74728W        W17719  29.917  13.319  25.131 -0.0473  0.2261 -0.0725
74729W        W17720  15.590   3.286  22.777 -0.2224 -0.1486 -0.0486
74730W        W17721  18.500   8.744  19.256  0.0982 -0.0548  0.2234
74731W        W17722  13.646  25.667  15.915 -0.1389 -0.1496  0.0909
74732W        W17723  10.528   7.289  17.967 -0.0808 -0.0600 -0.1183
74733W        W17724  11.214  17.797  14.095  0.3507 -0.2468  0.3494
74734W        W17725  22.442  11.848  14.244 -0.0402  0.0464 -0.1563
74735W        W17726  21.839  12.040  21.830 -0.0200 -0.1314  0.3436
74736W        W17727  18.186  10.169  17.040 -0.3420 -0.1166  0.0862
74737W        W17728  31.918  16.962  21.909 -0.0969 -0.1342  0.0979
74738W        W17729  10.620  30.636  26.350  0.0667 -0.2827 -0.1334
74739W        W17730  10.958   3.615  19.155  0.1832  0.0068 -0.0795
74740W        W17731  19.682   3.882  16.198 -0.1140  0.0237  0.0136
74741W        W17732   5.826  11.596  22.822 -0.1483  0.1847 -0.2097
74742W        W17733  15.827   2.535  18.474  0.0910 -0.0315  0.2846
74743W        W17734  17.275   7.369  16.136  0.2167 -0.1289 -0.1477
74744W        W17735   5.172  31.609  25.460  0.0724  0.4369 -0.1980
74745W        W17736   7.817  22.745  16.288  0.2558  0.1400 -0.1488
74746W        W17737  20.023   9.253   1.618  0.0764  0.0034  0.2119
74747W        W17738   4.976  12.383  23.520 -0.0063 -0.1022 -0.0344
74748W        W17739  31.574  27.763   1.744 -0.1865  0.0693 -0.1754
74749W        W17740  28.371  11.779  26.043  0.0354  0.1997  0.1236
74750W        W17741  10.868  22.389  25.569  0.0931 -0.0742  0.1102
74751W        W17742   9.423  10.149  26.714 -0.1099 -0.2167 -0.0650
74752W        W17743  20.818  28.909  24.305 -0.1901 -0.0932 -0.0874
74753W        W17744   4.799  25.934  29.144  0.1227 -0.1875  0.0402
74754W        W17745  13.481  11.428  19.253 -0.1934 -0.0284  0.0777
74755W        W17746  18.299  20.624  15.195 -0.0343  0.1832  0.1231
74756W        W17747  27.654  27.174  19.509  0.0031  0.1532 -0.1373
74757W        W17748  22.832   1.521  23.248 -0.0120 -0.0079  0.1092
74758W        W17749  13.082  33.587  24.188 -0.2486 -0.1651 -0.0502
74759W        W17750  19.669   7.665  16.595  0.1189  0.1403  0.1844
74760W        W17751  17.417  32.215  21.340  0.3013 -0.0533 -0.0352
74761W        W17752  18.720  15.356   1.707 -0.2065 -0.1159  0.0910
74762W        W17753   0.389   9.316   1.979 -0.1714 -0.1921 -0.2137
74763W        W17754  32.876  25.506  17.054  0.1486 -0.1838 -0.3532
74764W        W17755  15.592  19.487  13.916 -0.2455  0.1751 -0.1326
74765W        W17756  21.094  21.263  13.000 -0.2437 -0.1719 -0.1193
74766W        W17757  23.784  32.147  14.379 -0.1023  0.0908  0.1262
74767W        W17758  12.583  20.895  21.065 -0.0855  0.0938  0.0277
74768W        W17759  31.833  20.498   0.456 -0.1547 -0.2039 -0.1029
74769W        W17760   7.217  33.167   2.935 -0.1262 -0.0414 -0.0294
74770W        W17761  14.042  10.659  20.648 -0.0133 -0.0435 -0.2251
74771W        W17762  21.142  10.250  24.641 -0.0861  0.0473 -0.3182
74772W        W17763  26.660  11.771  26.384  0.1386  0.0984 -0.2548
74773W        W17764  11.098  19.298  28.980  0.1362 -0.1612  0.0940
74774W        W17765  16.978   0.921  17.077  0.0797  0.0695 -0.1246
74775W        W17766  10.156  30.794   8.966 -0.1457 -0.1560 -0.1094
74776W        W17767  20.282  32.723  17.158  0.0095  0.0332  0.1061
74777W        W17768   2.408  10.621  17.870 -0.1090  0.1356 -0.0236
74778W        W17769   2.950  27.117  29.070  0.0306 -0.2749  0.0178
74779W        W17770   5.622   0.146  27.181 -0.2280  0.1098  0.0185
74780W        W17771  16.138   6.392   0.490  0.0462  0.0180 -0.1268
74781W        W17772  22.157  33.668  18.317  0.0223  0.1874  0.1492
74782W        W17773  24.992  22.109   1.378  0.1319  0.1156  0.2063
74783W        W17774   7.907  34.362  23.998 -0.2858 -0.0647 -0.1552
74784W        W17775  23.271  18.914  17.210 -0.1618 -0.0180  0.3477
74785W        W17776  12.995   9.282  15.852 -0.1548  0.0278 -0.0106
74786W        W17777  10.155  10.957  26.936 -0.2873 -0.0867  0.0855
74787W        W17778  19.169   7.529  19.594 -0.1301 -0.0270 -0.0806
74788W        W17779   0.906  20.782  15.702  0.0279 -0.1698  0.1331
74789W        W17780  21.181  25.831  21.392  0.0556 -0.0046 -0.3560
74790W        W17781   7.069  20.261  23.711  0.0112  0.3101  0.0474
74791W        W17782   9.008   7.429  15.202 -0.0584  0.0897 -0.3035
74792W        W17783  29.210  30.663  21.445  0.0613  0.2650 -0.1088
74793W        W17784  17.803   2.835  17.345 -0.0190  0.0066 -0.0492
74794W        W17785   3.152  19.326  21.779 -0.0538  0.0731 -0.1376
74795W        W17786  23.975  12.646  15.534 -0.2215 -0.1103  0.0614
74796W        W17787  27.766  14.720  26.259  0.0317 -0.3411  0.1829
74797W        W17788   5.324  31.018   5.629 -0.0011 -0.0953 -0.1126
74798W        W17789  21.238  11.226  28.522  0.1673 -0.0745 -0.0020
74799W        W17790  25.044  20.768  19.813  0.2014 -0.1362  0.2109
74800W        W17791  12.209  24.648  18.959  0.3301  0.3381  0.0396
74801W        W17792  27.258  11.644  20.961 -0.2289 -0.1865  0.0770
74802W        W17793  27.984  17.950   0.351  0.1592 -0.6352  0.2177
74803W        W17794  20.037  14.675  15.157 -0.1592 -0.4481 -0.0667
74804W        W17795   6.737  20.648  18.769  0.3385 -0.1248  0.0951
74805W        W17796  31.121   3.523   9.790 -0.1033 -0.0340  0.0216
74806W        W17797  10.881   5.455  18.141  0.0458  0.0017 -0.1141
74807W        W17798  32.410  18.804  16.986 -0.0279  0.0439 -0.1985
74808W        W17799  26.336  23.721  25.319  0.1256 -0.0884  0.4927
74809W        W17800  10.167  18.178  22.009 -0.1450 -0.0032  0.0270
74810W        W17801  30.971  27.050  16.898  0.0545  0.3456  0.2185
74811W        W17802  17.956  17.099  15.329 -0.0661  0.1338 -0.2523
74812W        W17803   5.855  15.453  23.652  0.2216 -0.5213  0.1476
74813W        W17804   5.515   0.379   4.290 -0.2620  0.1186  0.1086
74814W        W17805  33.237  20.302  17.926  0.0726 -0.1454  0.4450
74815W        W17806  30.108  25.312  24.779  0.1685  0.1566  0.2771
74816W        W17807  12.400  10.398   2.155  0.2305 -0.3450  0.2991
74817W        W17808  27.633  18.072  23.836  0.4182  0.1510  0.4386
74818W        W17809  21.572  15.585  18.237 -0.0945 -0.0270 -0.2599
74819W        W17810  16.081  16.205  18.294 -0.0445  0.0506  0.0034
74820W        W17811  27.230  11.823   5.166 -0.2755  0.2791 -0.2627
74821W        W17812  17.081  13.802   0.303 -0.2087  0.1033 -0.0359
74822W        W17813  16.624  17.367  21.016  0.0063 -0.4771 -0.1923
74823W        W17814   4.387   1.226  26.217 -0.0417 -0.2315 -0.3159
74824W        W17815  16.860  17.058  19.617  0.0739  0.2290 -0.1897
74825W        W17816  21.160   7.604  28.757 -0.3441 -0.1793  0.1895
74826W        W17817  30.136   7.805   4.946  0.0376 -0.1897  0.0029
74827W        W17818   9.381  13.726   6.162  0.0267 -0.0585  0.1169
74828W        W17819  17.791  16.583  21.249 -0.1483  0.3328 -0.1513
74829W        W17820  21.214  20.470  18.414 -0.1958  0.1021  0.1097
74830W        W17821   9.539  10.761   6.263 -0.0152  0.3015  0.1416
74831W        W17822  18.352  23.347   2.269  0.0802  0.0133  0.0459
74832W        W17823  15.295  17.161  20.585 -0.0072 -0.2999  0.1047
74833W        W17824   6.504  23.843   3.548 -0.0888  0.2933  0.1179
74834W        W17825  25.427  15.771  27.309  0.1065  0.0873 -0.0334
74835W        W17826  24.714  17.996  27.928 -0.0115 -0.2033  0.6728
74836W        W17827  20.555  14.742  25.491  0.1067 -0.2866  0.2124
74837W        W17828   4.966  18.918  21.008 -0.2478  0.4799 -0.0142
74838W        W17829   7.143  22.860   1.012 -0.1968  0.2385  0.1407
74839W        W17830  16.249  15.620  17.890 -0.1676  0.4324  0.2346
74840W        W17831  13.088   9.157   3.715  0.0985 -0.1356  0.1072
74841W        W17832  30.390   4.475  16.479  0.3091 -0.1302  0.0774
74842W        W17833   8.429  25.419  23.925  0.0456 -0.4532 -0.0345
74843W        W17834  21.197   6.185   5.602 -0.1246 -0.0805  0.1550
74844W        W17835  16.830  17.717  20.163 -0.1486 -0.1753 -0.0558
74845W        W17836  19.406  17.092  18.221  0.0045 -0.4108 -0.2428
74846W        W17837  25.756   4.014  18.362 -0.1050 -0.1531  0.2377
74847W        W17838  30.260  12.677  27.509  0.1004 -0.0648  0.0295
74848W        W17839   5.040  18.725  25.155  0.0391  0.0232  0.1017
74849W        W17840  17.319  16.305  18.562  0.0211  0.0200  0.0461
74850W        W17841  24.101  15.230   2.004 -0.0908 -0.0619  0.1604
74851W        W17842  19.264  27.526  28.379 -0.0739 -0.1857  0.4580
74852W        W17843  15.838  16.929  19.528 -0.0264 -0.1038  0.1469
74853W        W17844   5.376  19.602  17.840  0.0568 -0.2292 -0.1214
74854W        W17845  20.551   4.723  25.028  0.0321  0.1734 -0.2352
74855W        W17846  21.278  15.406  23.654  0.0616  0.1557  0.0372
74856W        W17847  13.205   7.750   2.372 -0.0974  0.1655  0.1060
74857W        W17848  15.832  10.151  17.726  0.0567 -0.1325  0.0623
74858W        W17849  23.949   3.578  28.088 -0.1457 -0.0931 -0.0193
74859W        W17850  12.997  10.011  22.398 -0.1787 -0.2354 -0.0930
74860W        W17851  11.052  19.190   8.915  0.0467 -0.0620 -0.2275
74861W        W17852  24.531   6.109  19.844  0.0219 -0.0039 -0.0466
74862W        W17853  26.301  19.577   3.861  0.1582  0.0668 -0.0605
74863W        W17854   3.788  15.745  20.407  0.1322 -0.2443 -0.2010
74864W        W17855  25.034  12.464   8.759 -0.0180 -0.0006  0.1983
74865W        W17856  26.161  20.111  19.779 -0.0373  0.2380  0.2306
74866W        W17857  22.567  30.741   6.652 -0.2890 -0.0366 -0.1988
74867W        W17858  14.855  24.376  22.601  0.2367  0.2851  0.2524
74868W        W17859  24.175   4.985   1.847 -0.1174 -0.4672 -0.1651
74869W        W17860  16.159  17.445  20.808 -0.2723 -0.2206  0.0860
74870W        W17861  18.257  17.205  20.144  0.2420  0.4204 -0.1748
74871W        W17862  19.711   6.457  23.445 -0.1807 -0.0215  0.1013
74872W        W17863  26.208  17.106  18.469 -0.2759 -0.0393 -0.0218
74873W        W17864  10.535  24.154  27.739 -0.2827 -0.3817 -0.1710
74874W        W17865  14.754  15.411  19.184  0.2524 -0.0675  0.0740
74875W        W17866  19.926   9.327  21.110 -0.1065  0.0551 -0.2075
74876W        W17867  23.527  18.540   4.579  0.1215  0.2306 -0.0271
74877W        W17868  25.362   6.828   1.253 -0.1609 -0.2158  0.1418
74878W        W17869  13.988  20.826   0.571 -0.1394  0.0043 -0.1431
74879W        W17870  32.959  29.765  24.592  0.5227  0.1053  0.0936
74880W        W17871  20.362  21.367   3.096  0.1144 -0.1163  0.2889
74881W        W17872  30.359  22.921  24.747  0.0390  0.0243 -0.1271
74882W        W17873  13.320  20.038  18.622  0.2091 -0.1008  0.1310
74883W        W17874  10.564   1.849   4.004  0.0237 -0.1495  0.1030
74884W        W17875  11.281   4.303  24.555  0.0867  0.0619 -0.1406
74885W        W17876  23.665  28.942  24.459  0.2165  0.2188  0.0782
74886W        W17877   5.145   9.152   4.923  0.0541  0.2725  0.0524
74887W        W17878  18.855  16.310  27.061  0.1458 -0.0640  0.0558
74888W        W17879   8.690   5.784  28.624  0.0119 -0.1410  0.1250
74889W        W17880   2.146  13.709   5.311 -0.3700  0.3200 -0.3010
74890W        W17881  28.216   8.279  22.282 -0.3595 -0.3938  0.2817
74891W        W17882  15.053  17.655   0.172 -0.0328 -0.1180 -0.0372
74892W        W17883  24.484   8.655   6.233 -0.1400 -0.0823  0.2317
74893W        W17884  14.167  14.624  28.957 -0.1731 -0.0666 -0.2459
74894W        W17885  16.236  16.382   8.639  0.1078  0.2490 -0.0866
74895W        W17886  16.463  19.139  19.549  0.0073 -0.1162 -0.1133
74896W        W17887  22.402  27.073  25.599  0.0630 -0.3946  0.2523
74897W        W17888  12.658   3.097  27.007 -0.0519 -0.1294 -0.0541
74898W        W17889   7.279  27.823  14.180  0.0178  0.1784 -0.0093
74899W        W17890  29.543  16.864  29.111 -0.1012 -0.0442 -0.2498
74900W        W17891  12.686   3.351  16.877  0.2556 -0.2287 -0.0362
74901W        W17892  29.802  19.200   9.045  0.0981 -0.2172 -0.2030
74902W        W17893   9.660  32.284   4.868  0.2375 -0.2496 -0.0493
74903W        W17894  16.520  14.322   6.849 -0.0960 -0.3121 -0.0926
74904W        W17895  23.682  21.419  22.925  0.0363 -0.1365 -0.1906
74905W        W17896  17.807  24.424  12.903  0.0257 -0.0261  0.0412
74906W        W17897  16.319  17.658  20.130  0.2164  0.2505 -0.1223
74907W        W17898  12.369  10.080   5.190  0.0129 -0.1427  0.0779
74908W        W17899  25.130  19.312   2.982 -0.2173  0.1101  0.1105
74909W        W17900  24.953   9.791   3.965  0.3851  0.2111  0.3045
74910W        W17901  19.433   4.651  21.863  0.0472 -0.1725 -0.0977
74911W        W17902  17.285  17.713  20.559 -0.1866  0.3488 -0.0607
74912W        W17903  17.324  13.949  24.341 -0.0465 -0.2112 -0.3458
74913W        W17904  19.039  17.828  17.961 -0.1320 -0.2782 -0.2241
74914W        W17905  22.149  19.912  15.597  0.0001 -0.1800 -0.2222
74915W        W17906  10.097  34.532   8.741  0.0918 -0.0416  0.0444
74916W        W17907  18.773  32.363  23.727  0.0168  0.0485 -0.3612
74917W        W17908   0.924  31.291  23.537 -0.1601  0.4656 -0.0677
74918W        W17909  16.855  23.698  20.201 -0.0850 -0.1448 -0.0409
74919W        W17910  17.346  12.039  28.280  0.1726 -0.0923  0.1614
74920W        W17911  19.783  11.668  22.170 -0.1473  0.1720  0.0828
74921W        W17912  20.567  26.247  21.159 -0.1449  0.0154 -0.2020
74922W        W17913  16.561  33.056  27.004 -0.1410  0.1761  0.2971
74923W        W17914  12.022   9.683   5.886  0.2419  0.3724  0.1584
74924W        W17915  27.611  28.324  20.316  0.0652  0.0030 -0.0493
74925W        W17916  13.856  17.878   2.795  0.3388  0.2428  0.0357
74926W        W17917   5.082   1.559  22.762 -0.1076 -0.0357 -0.1304
74927W        W17918   5.713  21.909  21.435  0.1627 -0.0887  0.0317
74928W        W17919  31.022   5.522  15.492  0.2295 -0.2685  0.0078
74929W        W17920  33.784  21.702   3.058  0.3265  0.0357  0.1389
74930W        W17921  13.824   0.489   6.068  0.2685  0.1498  0.0730
74931W        W17922  19.379  11.633  16.789 -0.0980  0.1162 -0.0640
74932W        W17923  18.646  17.224  20.952 -0.1811  0.1175  0.1210
74933W        W17924  33.089   2.992   8.377 -0.3900 -0.0810  0.0770
74934W        W17925  20.832  23.389  25.772  0.1943 -0.1417  0.2831
74935W        W17926  20.469  15.337   1.090  0.1033 -0.2661  0.0141
74936W        W17927  13.622  22.851   1.709 -0.2207  0.4512  0.0214
74937W        W17928  18.442  15.040  27.769  0.1941  0.0528  0.1022
74938W        W17929  16.038  17.253  19.936  0.0770  0.0890 -0.0477
74939W        W17930   3.241   4.601  21.109 -0.2163  0.1036 -0.3493
74940W        W17931  12.677  18.453  25.790  0.1281  0.0935 -0.4338
74941W        W17932  32.762  22.190  14.961  0.2685 -0.0306  0.1325
74942W        W17933  13.873   9.071  23.808 -0.1118  0.0586 -0.2359
74943W        W17934  19.094  19.959   2.796  0.1974 -0.0586  0.0686
74944W        W17935  10.758  11.617  27.079  0.1126  0.2018 -0.1253
74945W        W17936  19.708   4.422   0.558  0.0395 -0.0855 -0.2825
74946W        W17937  14.976  21.108   8.237 -0.0267  0.0398  0.0221
74947W        W17938  21.098  33.159   3.745  0.3269 -0.2819 -0.0814
74948W        W17939  16.367  15.960  18.652  0.2477  0.0516 -0.1310
74949W        W17940   8.636  27.211   6.350 -0.0089 -0.1750 -0.0063
74950W        W17941  19.470  11.158  27.332  0.1877  0.2654  0.1136
74951W        W17942   6.067   9.474   4.616 -0.0569  0.2917 -0.0717
74952W        W17943  11.603  20.859  28.966 -0.1236 -0.3478 -0.1155
74953W        W17944  15.590  24.082  23.649  0.2206  0.2483 -0.1353
74954W        W17945  21.124  13.360   5.558 -0.1232 -0.0576 -0.0985
74955W        W17946  19.546  25.376   0.760  0.0717  0.1498 -0.0978
74956W        W17947  24.119   3.906  21.893 -0.3447 -0.1151  0.1725
74957W        W17948  16.009  15.691  18.417 -0.1434  0.0676 -0.0572
74958W        W17949  29.662  18.099   6.301  0.0581 -0.0320  0.0245
74959W        W17950  11.238  23.725  14.338 -0.2787 -0.0188  0.0783
74960W        W17951  16.587  16.423  20.909 -0.1091 -0.1757 -0.3250
74961W        W17952  23.329  29.193  24.167 -0.2088 -0.0026  0.0790
74962W        W17953  17.952  16.295   3.897  0.0669 -0.2636  0.1922
74963W        W17954   5.538  10.643   3.223  0.1473  0.0134  0.1914
74964W        W17955  16.017  16.929  17.601 -0.1581 -0.1059 -0.2327
74965W        W17956  15.839  24.160   3.741  0.1464 -0.2210  0.1474
74966W        W17957  17.967   8.862   1.833 -0.1444  0.1117 -0.2319
74967W        W17958  14.106  16.955   0.580 -0.0547 -0.0299 -0.0745
74968W        W17959  23.653   3.320  15.128  0.0238  0.2773  0.1069
74969W        W17960  13.835  11.874   7.566 -0.2025 -0.1407 -0.0233
74970W        W17961  13.035   4.631   6.481 -0.0576 -0.2298  0.0659
74971W        W17962  14.856  20.273  23.636  0.0447 -0.0852 -0.3838
74972W        W17963  16.008  17.139  19.045 -0.0990  0.0768  0.2266
74973W        W17964  15.721  28.906   6.202 -0.2868 -0.1236 -0.4195
74974W        W17965  20.091  16.575  15.121 -0.1101  0.1318  0.2683
74975W        W17966  25.105  17.190   5.581 -0.1451 -0.4633 -0.0878
74976W        W17967  16.678  17.202  20.584  0.1068 -0.3358  0.2667
74977W        W17968  14.859  17.078  19.818  0.0151 -0.0402 -0.3005
74978W        W17969  21.937  19.711  13.378  0.1348  0.0169 -0.0219
74979W        W17970  18.974   0.385  27.695  0.4387 -0.2611 -0.2093
74980W        W17971  12.105   2.253  29.081  0.1491  0.1232 -0.0133
74981W        W17972   9.058   5.842   7.711  0.0385  0.0926  0.0031
74982W        W17973   3.302  28.326   2.010  0.0243 -0.0977  0.3544
74983W        W17974  16.964  17.004  18.682 -0.0769  0.1577  0.0747
74984W        W17975  16.714  16.675  19.318  0.0783 -0.0373 -0.3121
74985W        W17976  26.103  10.668  19.568 -0.0497 -0.0764  0.3559
74986W        W17977  20.450   4.269   4.407 -0.0678 -0.0206 -0.0806
74987W        W17978  19.070  17.329  17.850 -0.1326 -0.0035  0.0226
74988W        W17979   0.551  27.926  18.472 -0.1075 -0.1883 -0.2982
74989W        W17980  16.231  21.603  18.007 -0.1201  0.0142  0.0657
74990W        W17981  16.725  30.813  25.499 -0.0905  0.0939  0.1468
74991W        W17982  14.712  10.870  16.075 -0.2520 -0.2749 -0.1981
74992W        W17983  34.742  20.034  16.754  0.1714  0.1746 -0.0375
74993W        W17984  14.237  18.594  22.149 -0.0162  0.0148  0.2085
74994W        W17985  16.616  18.916  18.093 -0.1081 -0.1232 -0.2440
74995W        W17986  11.169  17.461  16.084 -0.3685  0.0356 -0.2154
74996W        W17987  24.563   0.971  25.818  0.0818  0.1537 -0.2093
74997W        W17988   8.350  22.777   0.151 -0.0955  0.2419  0.0827
74998W        W17989   6.006   5.346   4.027 -0.1431  0.0636  0.0277
74999W        W17990  16.794  18.487  18.368 -0.3512  0.0896 -0.1313
75000W        W17991   2.037  15.842  16.854  0.2737  0.0326  0.0329
75001W        W17992  12.594  11.138  26.335 -0.1081 -0.2277  0.0605
75002W        W17993  16.563  17.027  19.025 -0.0429  0.0854  0.2516
75003W        W17994   4.211  28.630  18.086  0.0933  0.3646 -0.0920
75004W        W17995   6.288  20.890   6.620  0.5511  0.1857  0.1445
75005W        W17996  15.340  16.976  19.646 -0.1551  0.3933 -0.0397
75006W        W17997  10.339   9.714   4.998 -0.0663  0.0523  0.1748
75007W        W17998  11.066  33.123   2.639  0.0761 -0.2965  0.1885
75008W        W17999  18.258  17.105  20.614 -0.1119  0.4335  0.0655
75009W        W18000  20.360  19.891  16.074  0.0210  0.0369  0.2578
75010W        W18001   0.115  22.792  25.423 -0.1954  0.2047  0.2315
75011W        W18002  26.935  14.433  16.790  0.1261  0.1415 -0.0110
75012W        W18003  15.394  16.411  25.285 -0.0882  0.0566  0.0639
75013W        W18004  13.051  16.050  25.153 -0.1369  0.1288 -0.1743
75014W        W18005  20.294  14.465  23.144 -0.0132  0.0903  0.1113
75015W        W18006  22.036  11.834  18.191 -0.1972  0.0873 -0.3329
75016W        W18007  16.814  13.658  21.237 -0.1647 -0.0165 -0.0834
75017W        W18008  16.646  17.290  19.977  0.1820 -0.0563  0.0870
75018W        W18009  12.689   9.804   4.969  0.2763 -0.0718 -0.1746
75019W        W18010  19.176  28.920   7.252 -0.0607 -0.2089  0.1477
75020W        W18011  12.986  20.311  27.486 -0.2004  0.0765  0.0404
75021W        W18012   6.843   0.897  20.582  0.1839  0.1168  0.0097
75022W        W18013  17.927   3.769  26.742 -0.1678 -0.0926 -0.2981
75023W        W18014  18.231  18.593  21.260 -0.2281 -0.3217  0.3712
75024W        W18015  13.990   5.011   5.156 -0.0566 -0.1473  0.1591
75025W        W18016  19.880  17.184   5.027 -0.0532  0.2123  0.1976
75026W        W18017  27.957  20.154   7.292  0.0369 -0.0594 -0.0231
75027W        W18018  16.450  33.757  25.743 -0.4127  0.1980 -0.1376
75028W        W18019  15.069  18.178  23.585 -0.4476 -0.0830 -0.0675
75029W        W18020  11.725  13.678   9.159  0.2338 -0.2732 -0.0013
75030W        W18021   5.046  12.685  27.050  0.0049 -0.0931 -0.0971
75031W        W18022  34.122   2.012  27.723  0.1534  0.1035  0.2728
75032W        W18023  10.411  32.928   9.170  0.0038  0.0298 -0.1188
75033W        W18024  32.672  17.503   0.127 -0.2945 -0.0164 -0.1449
75034W        W18025  17.220  23.788   1.924 -0.2054  0.1566 -0.1069
75035W        W18026   9.029  18.551   6.447  0.0302 -0.2336 -0.0471
75036W        W18027  22.696  24.255   3.567  0.1219 -0.0526 -0.0309
75037W        W18028  26.110  17.059   3.704  0.1202 -0.1936 -0.3135
75038W        W18029  17.583   4.566  14.209 -0.0451 -0.1906 -0.2425
75039W        W18030  19.756   2.312   5.101 -0.0967  0.0997  0.1672
75040W        W18031  10.555  23.175  26.076 -0.1537 -0.1235 -0.3027
75041W        W18032  22.605  13.506  22.830  0.0885 -0.1726 -0.3162
75042W        W18033  12.917   4.189  24.144  0.1544  0.4208 -0.1175
75043W        W18034  25.168   1.985   3.601 -0.4140  0.0236 -0.1044
75044W        W18035  11.255  12.365  26.832 -0.0447  0.0009  0.3320
75045W        W18036   4.531  19.866  21.452 -0.0439  0.0750  0.0625
75046W        W18037  14.797   7.802   3.874  0.0667 -0.1418  0.3358
75047W        W18038  13.788  27.274  27.591  0.0327 -0.0809 -0.1399
75048W        W18039  15.779   7.302  10.469 -0.0744  0.1890  0.1129
75049W        W18040   9.790  18.913   1.374  0.3944 -0.0138 -0.1172
75050W        W18041   5.916   0.912   9.130 -0.3069 -0.0720 -0.2938
75051W        W18042  34.788  13.596  19.527  0.1682  0.5390  0.0388
75052W        W18043  20.429  23.598  22.734 -0.2018  0.1628  0.0021
75053W        W18044  21.760  15.658  23.344  0.2627  0.1534  0.1609
75054W        W18045  24.732  24.497  15.242  0.0891  0.2227  0.1287
75055W        W18046  19.255   9.765   8.776 -0.0315  0.1836  0.3758
75056W        W18047  30.914  29.332  22.416 -0.0229 -0.0806 -0.2159
75057W        W18048   5.260   4.564   5.460 -0.0135  0.1671 -0.2240
75058W        W18049  19.987  18.638  26.341  0.0505  0.0157 -0.0739
75059W        W18050  15.765  10.538  24.765  0.0752  0.1327  0.3993
75060W        W18051   2.615  16.357  20.832  0.1166  0.3856 -0.1049
75061W        W18052  19.999   9.921   0.372  0.0298 -0.2924  0.1122
75062W        W18053  18.296  29.127  27.747  0.1092 -0.1013 -0.1605
75063W        W18054  17.358  26.424   5.558 -0.2308 -0.0972  0.0942
75064W        W18055  13.162  15.883  27.008 -0.3915  0.2996  0.0166
75065W        W18056  21.449  17.466   9.416 -0.0447 -0.1494  0.3443
75066W        W18057  15.808  10.439  26.497  0.0736  0.3791 -0.3431
75067W        W18058  13.460  18.243  13.733 -0.0998  0.1205  0.0603
75068W        W18059   0.650  21.321  21.724 -0.0700  0.0543 -0.0422
75069W        W18060  13.324  17.659  22.242  0.0215  0.0049 -0.0953
75070W        W18061  17.604  11.132  18.579 -0.2666  0.0992 -0.1718
75071W        W18062  19.118  23.710   7.114  0.2899 -0.1709  0.0298
75072W        W18063  23.999  28.413  23.110  0.1800  0.1193 -0.3929
75073W        W18064  11.998  19.594  28.384 -0.1037  0.0180 -0.0783
75074W        W18065   5.095  17.310  11.488 -0.0000 -0.0565  0.0681
75075W        W18066  30.167  27.127   1.877  0.0920  0.0153  0.1301
75076W        W18067   1.432   4.490  20.126  0.4151 -0.1482  0.2953
75077W        W18068   4.006   8.704  28.203  0.1362  0.0439  0.0799
75078W        W18069  11.599   8.835   8.884 -0.1261 -0.0210 -0.0438
75079W        W18070  22.699  20.377  16.693  0.1111  0.0666  0.1534
75080W        W18071  17.167  33.248   8.980  0.1391  0.3034 -0.2122
75081W        W18072   5.069  21.864  27.098  0.3769 -0.1404  0.2150
75082W        W18073  20.794  19.994   5.804  0.1505 -0.3188 -0.0361
75083W        W18074  29.682   1.139  27.737 -0.0996 -0.4414 -0.1292
75084W        W18075  19.300  16.064   5.499  0.2604  0.2734  0.1840
75085W        W18076  13.323  21.596  22.831  0.0011 -0.0833 -0.0574
75086W        W18077  16.718  23.700   1.843 -0.2076  0.2220 -0.0201
75087W        W18078  12.083  18.666   7.082 -0.0241  0.2417 -0.2136
75088W        W18079  13.413  18.640  23.202  0.1613 -0.0881  0.1697
75089W        W18080  23.599   7.005   1.786  0.1639  0.0563  0.0833
75090W        W18081  34.252  23.856  24.042 -0.2159 -0.0398 -0.0583
75091W        W18082  15.829  21.247  26.729  0.1360  0.0961 -0.2200
75092W        W18083   2.615  17.113  16.824  0.3308  0.0457 -0.1373
75093W        W18084  16.936  16.674   1.757 -0.1737 -0.0923  0.1018
75094W        W18085  14.800   4.675  18.537  0.1812  0.1853  0.0924
75095W        W18086  20.180  16.466   1.021 -0.2032  0.3516  0.0688
75096W        W18087   1.353  17.554  21.145  0.3455  0.0650 -0.1053
75097W        W18088  13.274   2.203  27.301 -0.1162  0.2147  0.1401
75098W        W18089  18.100  17.764  21.177 -0.0131 -0.1443  0.2597
75099W        W18090  16.274   7.456   2.676 -0.0646  0.1467 -0.1426
75100W        W18091  30.212   2.860  16.809 -0.1949 -0.1072  0.0675
75101W        W18092   9.777   0.631  27.639  0.1439  0.0439 -0.2046
75102W        W18093  24.076  15.440  27.686  0.2095 -0.1319 -0.0532
75103W        W18094   8.222  14.501  17.893  0.0770 -0.0676  0.1051
75104W        W18095  11.513   9.014   3.793 -0.0652 -0.1289 -0.2183
75105W        W18096  25.891   5.338   8.750 -0.0431 -0.0206 -0.2574
75106W        W18097   5.150   7.196   0.423 -0.0375  0.0911  0.0628
75107W        W18098  12.112   5.682  26.337 -0.2233  0.1456  0.0891
75108W        W18099  16.598  13.697  18.855  0.0179  0.0022  0.2236
75109W        W18100  24.098  11.864   6.077 -0.3559  0.1834  0.0074
75110W        W18101  17.118  16.012   3.706 -0.1540  0.3200  0.0169
75111W        W18102  12.210   2.605   4.380  0.1430 -0.3543  0.2841
75112W        W18103  27.012  15.095   0.888 -0.1512  0.3170 -0.1114
75113W        W18104  10.711  23.372   1.722 -0.0605  0.0454 -0.3509
75114W        W18105  33.616   7.977   6.836 -0.1827  0.1388  0.0359
75115W        W18106   9.540   9.013   8.583 -0.2002 -0.0382 -0.0315
75116W        W18107   6.683  22.637   4.898  0.0602  0.0367 -0.0446
75117W        W18108  16.307  14.205  25.444  0.1462  0.0880 -0.1901
75118W        W18109  31.661   8.873   0.571 -0.1776  0.0912 -0.1356
75119W        W18110  11.768   0.542  25.641  0.1544 -0.1618  0.0611
75120W        W18111  17.605  12.705  17.376  0.1557  0.0494 -0.0701
75121W        W18112  12.275  19.664  13.916 -0.0931 -0.1689 -0.2753
75122W        W18113  24.367  16.099   8.413 -0.0044  0.1625  0.0024
75123W        W18114  14.086  14.815  16.636  0.0424  0.0667 -0.0640
75124W        W18115   7.695  18.613   1.261  0.2869 -0.0383  0.1479
75125W        W18116   5.914   3.114  10.125  0.0172 -0.1467  0.3015
75126W        W18117   8.677   6.310   2.590  0.3228 -0.0077 -0.1534
75127W        W18118  26.803  16.176   5.033  0.1962 -0.0663  0.0532
75128W        W18119  20.742  17.208   1.067 -0.1533  0.1713 -0.0392
75129W        W18120  22.094  33.632   1.645  0.2045 -0.0511 -0.4447
75130W        W18121  28.472   8.193   3.483 -0.1079  0.2688  0.0862
75131W        W18122   5.678  11.196  28.973  0.2298 -0.0504  0.2528
75132W        W18123  18.736  12.270  16.596  0.0442  0.1716 -0.1797
75133W        W18124  21.261   4.918  27.960  0.1012  0.2220  0.1628
75134W        W18125  21.525  23.216  16.953  0.0204 -0.2209 -0.3686
75135W        W18126   8.554   8.642  24.402 -0.1330 -0.0333  0.3763
75136W        W18127  20.566  31.876  20.802  0.1249  0.0142 -0.2470
75137W        W18128   5.330  22.631   0.912 -0.1040  0.4620  0.1251
75138W        W18129  33.898  19.596  17.760  0.0752 -0.2905 -0.1870
75139W        W18130   4.643  22.386   2.732  0.0309 -0.0702  0.1123
75140W        W18131  21.545   5.502  18.993 -0.0111 -0.1966 -0.1962
75141W        W18132  23.700  14.639   3.471  0.0680 -0.0119  0.3234
75142W        W18133  26.488  22.724  23.181  0.0121  0.1207  0.2613
75143W        W18134  18.533  22.685  21.379  0.2006 -0.0371 -0.0991
75144W        W18135   8.703  16.092  17.350  0.0728 -0.2628 -0.1578
75145W        W18136   7.467   3.830  28.503 -0.0976 -0.0867 -0.3228
75146W        W18137  20.153  14.465  13.909  0.2240  0.0942  0.1822
75147W        W18138   4.598  14.852  18.978 -0.0667  0.0649 -0.0609
75148W        W18139  27.247  11.260  26.711  0.0359 -0.4085  0.1448
75149W        W18140  34.288  27.887  26.274  0.1135  0.2157  0.0856
75150W        W18141  10.921   6.479  16.696  0.1005  0.0636  0.1344
75151W        W18142  33.535   1.518   7.438 -0.1422  0.2086 -0.0614
75152W        W18143  21.582  12.027   6.625  0.1203 -0.0547 -0.2266
75153W        W18144  30.800  14.503  20.293 -0.0088 -0.0926  0.0374
75154W        W18145  11.967  15.729  20.164 -0.1196  0.2029 -0.0975
75155W        W18146   6.610   7.792   8.989 -0.1274  0.0274  0.0053
75156W        W18147  34.743   7.086  27.033 -0.0605  0.2940 -0.0506
75157W        W18148  13.953   3.549   8.585 -0.1297  0.3506  0.2028
75158W        W18149  27.570  25.927  19.326  0.1033 -0.1263  0.0841
75159W        W18150  17.524  21.312   1.632 -0.0943  0.3041  0.0161
75160W        W18151   5.160  14.384   0.459 -0.1525 -0.0946 -0.2301
75161W        W18152  20.802  31.350   0.019 -0.2022 -0.0851 -0.2844
75162W        W18153   7.089   2.093   4.662  0.0093  0.0726 -0.0412
75163W        W18154  22.549  29.524  20.719 -0.1425 -0.1066 -0.3973
75164W        W18155  16.479  14.087  21.202 -0.1315  0.0239  0.0954
75165W        W18156   4.060  27.221   1.486 -0.3058  0.2173  0.0631
75166W        W18157  13.409  25.704   4.771  0.1897  0.0046 -0.0640
75167W        W18158  26.069  16.430  28.129  0.2472  0.0705 -0.2002
75168W        W18159  22.672  19.171   7.246  0.1133  0.1392  0.0817
75169W        W18160   9.220  27.471   8.154  0.1600  0.1958 -0.3793
75170W        W18161   4.920  22.416  20.582  0.1320 -0.3085  0.1273
75171W        W18162   6.488  20.945   0.899 -0.2066 -0.4111 -0.1384
75172W        W18163  10.766  26.351  23.560  0.1937 -0.1065 -0.1797
75173W        W18164  22.989  31.515  16.798  0.0032  0.1383  0.0925
75174W        W18165  14.357  26.715   9.633  0.1033  0.1309  0.0750
75175W        W18166  18.265  11.437   2.660 -0.0815 -0.3469  0.0150
75176W        W18167  17.368   6.001  21.692  0.0690  0.1178 -0.0460
75177W        W18168  19.515  20.375   5.850  0.0861  0.3637  0.1842
75178W        W18169  18.180  14.343   5.609  0.0295 -0.2256  0.1286
75179W        W18170   6.492   3.845   2.578 -0.2158  0.1742 -0.0128
75180W        W18171  17.835  25.696  28.498 -0.0076  0.1333 -0.1716
75181W        W18172  17.144  25.436  21.884 -0.0723  0.0519  0.1802
75182W        W18173  17.927  16.713   7.716 -0.1397 -0.3913 -0.2012
75183W        W18174  14.719  20.370  25.537 -0.1656  0.0913 -0.1198
75184W        W18175   6.972  17.167  26.964 -0.1221 -0.4052 -0.1371
75185W        W18176  19.631  11.840   6.820 -0.0803 -0.1225  0.3189
75186W        W18177   9.143  16.270  21.476  0.2334 -0.1273  0.3795
75187W        W18178   9.391   2.084   9.217 -0.0588  0.0846 -0.0112
75188W        W18179  34.109   7.567   8.156  0.0373  0.0206  0.0134
75189W        W18180  10.662  11.734  21.538 -0.1112  0.0343  0.1297
75190W        W18181  24.367  22.490  22.364  0.3184 -0.2576 -0.2009
75191W        W18182  19.775  25.517   8.683  0.0889 -0.0030  0.1370
75192W        W18183   8.727  24.202   6.624 -0.0163 -0.1583 -0.1341
75193W        W18184  23.451  18.655  28.135 -0.2349  0.0688 -0.0053
75194W        W18185  10.385  17.301  22.924 -0.0244  0.0751  0.0689
75195W        W18186  34.598  19.908  22.541 -0.3077  0.2189  0.0881
75196W        W18187  15.612  14.643   6.679 -0.1271  0.0897  0.1345
75197W        W18188  13.663   3.944  22.012  0.2089 -0.2976 -0.3019
75198W        W18189  16.654   6.298   9.733 -0.2372 -0.0000 -0.0964
75199W        W18190  25.382  17.605  18.648  0.1156  0.0373 -0.5127
75200W        W18191  13.458  32.417  18.418  0.1791  0.0934 -0.2271
75201W        W18192   9.544   9.397   7.191  0.0784 -0.1379 -0.1107
75202W        W18193  19.497  34.379   9.704  0.2261  0.0937 -0.3555
75203W        W18194  24.747  21.280  21.833  0.0949 -0.3723 -0.0018
75204W        W18195  19.377  18.066   8.018 -0.2304 -0.2890  0.2245
75205W        W18196  27.855  26.354   1.835  0.4148 -0.0208 -0.1347
75206W        W18197  11.885   6.493   6.947 -0.1298 -0.2112 -0.2373
75207W        W18198  23.659  25.970  19.048  0.1107 -0.1351 -0.1080
75208W        W18199  13.327  12.592  16.933  0.0725 -0.0777 -0.4149
75209W        W18200  13.826  19.506  23.033 -0.1930  0.2277 -0.2157
75210W        W18201  26.200  19.183  28.248  0.2062  0.1063  0.1748
75211W        W18202   9.831  11.739  26.919  0.1223  0.0259 -0.0425
75212W        W18203  17.775  26.509  22.369  0.0521 -0.0454 -0.1491
75213W        W18204   7.634  24.516  26.815 -0.1669 -0.1383  0.0388
75214W        W18205  15.199  14.908  22.582  0.3019 -0.1760  0.1030
75215W        W18206   9.017  28.122  10.299 -0.2012  0.0722 -0.0987
75216W        W18207  13.411  26.274   2.857  0.0870  0.0255  0.0703
75217W        W18208  24.789  28.365   5.783 -0.2349 -0.0875 -0.0629
75218W        W18209   5.922  13.031  27.815 -0.2054 -0.0074 -0.1686
75219W        W18210  22.775  16.909   1.182  0.0292 -0.1046 -0.1161
75220W        W18211  25.797  25.636  26.742 -0.1259  0.0615 -0.0222
75221W        W18212  11.032   8.867  21.679 -0.0801 -0.2091 -0.1502
75222W        W18213  18.268   2.026  29.039 -0.1815 -0.3307  0.2322
75223W        W18214  13.441  13.171  22.418  0.2837 -0.0212 -0.3033
75224W        W18215  13.926  16.320   7.005  0.1360  0.1018 -0.2568
75225W        W18216  31.023  14.434  20.736  0.1656  0.1066  0.0212
75226W        W18217  27.173  23.954   6.140  0.0723 -0.0512 -0.1911
75227W        W18218  26.490  14.604  23.465 -0.1226 -0.0307  0.0759
75228W        W18219  29.174  25.735  14.849 -0.0479  0.2217 -0.2250
75229W        W18220   3.450   6.831   7.690  0.1068 -0.0899 -0.0861
75230W        W18221  24.862  24.730  16.214  0.1262 -0.2528 -0.0826
75231W        W18222  22.975  13.191   8.440 -0.0433  0.0161  0.1826
75232W        W18223  12.904   6.071  22.812  0.0931 -0.1299  0.2369
75233W        W18224  11.618  22.810  14.013 -0.0964 -0.2312 -0.2126
75234W        W18225  15.548   0.338  15.576  0.2476 -0.3137 -0.1914
75235W        W18226   8.134  16.073  26.768  0.1402 -0.2582  0.3178
75236W        W18227  12.059  19.319   5.138 -0.2870 -0.0256  0.1545
75237W        W18228  23.874  32.842   6.371 -0.1077  0.2627  0.0392
75238W        W18229  25.798   1.254   9.011 -0.1858 -0.1784  0.1977
75239W        W18230   2.134  10.126  20.547  0.0975 -0.1846 -0.0852
75240W        W18231  10.443  21.892  16.653  0.1411  0.1376 -0.2762
75241W        W18232  16.870  27.905   6.839  0.2481 -0.0482  0.0717
75242W        W18233   3.689  12.168   0.859  0.2480  0.3109  0.1747
75243W        W18234   6.726  11.382  15.828 -0.0021  0.1868 -0.0599
75244W        W18235   2.910  15.759   6.483 -0.1556  0.1760 -0.2993
75245W        W18236  14.273  22.174  18.054  0.0720 -0.3750 -0.0388
75246W        W18237  19.896  10.763  19.917 -0.2129  0.0658 -0.0375
75247W        W18238  33.295  18.194  11.288 -0.2479  0.0823  0.2555
75248W        W18239  21.131   8.052  24.257  0.1704  0.1422  0.3007
75249W        W18240  33.015  26.391  24.300 -0.0500 -0.0958  0.1145
75250W        W18241  28.850  16.478   4.334  0.0806 -0.1311 -0.0405
75251W        W18242  17.802  18.467  20.743 -0.0626  0.2903  0.2183
75252W        W18243   7.990  19.861  28.641  0.0920 -0.0970 -0.2078
75253W        W18244  29.804  26.906  21.470 -0.4766 -0.1577 -0.0915
75254W        W18245  24.103   2.175  26.937 -0.1915  0.2848 -0.1132
75255W        W18246  13.097  32.792   2.118 -0.1080  0.1290 -0.3563
75256W        W18247   5.571   5.038  27.034  0.2214 -0.0242 -0.0936
75257W        W18248  13.302  17.119   1.914 -0.1912  0.0463  0.1493
75258W        W18249  25.979  27.894  27.290  0.1200 -0.1536  0.1135
75259W        W18250  18.584  17.880  20.945 -0.1926  0.0656 -0.3793
75260W        W18251  25.995  20.668  21.883 -0.6448 -0.1607 -0.0838
75261W        W18252  23.694  13.609  14.893  0.0523  0.0654 -0.0269
75262W        W18253  20.752  18.369  14.929  0.2878 -0.1766  0.1201
75263W        W18254   4.219  25.398  28.442  0.1195 -0.0935 -0.1108
75264W        W18255  34.744  12.337  28.339 -0.2749 -0.2883 -0.3342
75265W        W18256   7.863  15.265   9.930  0.3446  0.0993  0.0833
75266W        W18257  19.392  30.939   5.489 -0.0891 -0.1191 -0.1643
75267W        W18258   1.660  28.603  28.393  0.3315  0.2677 -0.2011
75268W        W18259  20.667  20.566   7.820 -0.0230 -0.0207  0.0365
75269W        W18260   1.928   9.861  29.179  0.0387 -0.0427 -0.2533
75270W        W18261  25.145  19.463   2.435 -0.1203 -0.0191  0.0021
75271W        W18262  22.872  13.015   6.926  0.1646 -0.1235 -0.3082
75272W        W18263   3.929  18.213  27.298 -0.0074 -0.0813  0.1090
75273W        W18264   8.748  25.688  27.389 -0.0777 -0.2365  0.0017
75274W        W18265  24.221  10.161   2.023  0.0512 -0.1302 -0.1155
75275W        W18266   2.407  24.778  19.019  0.0872 -0.2279 -0.1519
75276W        W18267   5.208  16.216  28.874 -0.2621  0.1193 -0.1599
75277W        W18268  15.572  13.963  14.423 -0.0585  0.0052 -0.0694
75278W        W18269   4.807   6.983  27.324 -0.1398  0.2193 -0.3170
75279W        W18270  16.787  14.034  29.242 -0.3903  0.0985 -0.4033
75280W        W18271  24.962  15.900   4.068  0.3808  0.1366 -0.1291
75281W        W18272  20.567   6.455  29.119 -0.0414  0.0418  0.0329
75282W        W18273   1.632  13.048   5.145 -0.2479  0.1148  0.2773
75283W        W18274  12.818  14.663  18.174  0.1203  0.2221 -0.2534
75284W        W18275  13.035  22.951  21.666  0.2313  0.2085 -0.0909
75285W        W18276  26.499  10.828  19.012  0.2340  0.3296 -0.0978
75286W        W18277  15.943  22.826   1.036  0.0715  0.0360 -0.1595
75287W        W18278  13.079  18.992   3.415 -0.1573 -0.3019 -0.0224
75288W        W18279   0.317  32.854   8.618 -0.2878 -0.2840 -0.0595
75289W        W18280  13.670  11.762   9.053  0.1674 -0.1142 -0.0484
75290W        W18281  11.862  10.150  21.540 -0.2887 -0.0048 -0.0153
75291W        W18282  24.188   6.991   2.912 -0.1325 -0.0618 -0.1321
75292W        W18283   9.876   7.571  21.913  0.1715  0.0135 -0.1604
75293W        W18284  25.229   6.903   0.672 -0.0371 -0.0950 -0.0037
75294W        W18285  34.474  26.099  25.839 -0.0430  0.3459 -0.2552
75295W        W18286   9.880  19.676  26.089 -0.1271 -0.0148  0.0555
75296W        W18287  18.532  10.784   0.748 -0.2490  0.0336 -0.1957
75297W        W18288  11.847   4.655   3.091  0.2916  0.0347  0.1496
75298W        W18289   6.442  34.441   3.816  0.0503  0.0621  0.1660
75299W        W18290  18.538  31.987  27.459 -0.0676 -0.1030 -0.1082
75300W        W18291  18.829  15.015  28.643 -0.0581  0.1065 -0.2589
75301W        W18292  26.176  16.081   3.286  0.1476 -0.0839  0.0577
75302W        W18293  26.447  12.902   6.350 -0.1228  0.2188  0.0673
75303W        W18294  16.442  27.871   4.619  0.0383 -0.1784  0.2599
75304W        W18295  24.479   1.444   4.003  0.0899 -0.0927 -0.1600
75305W        W18296  34.793  28.038  27.135 -0.0730 -0.2921  0.0963
75306W        W18297  14.974  32.774  26.289  0.2455  0.0252 -0.2650
75307W        W18298   8.640  17.537  25.124  0.1844 -0.0494 -0.1194
75308W        W18299  21.597  19.909  22.420 -0.4249 -0.0001  0.2722
75309W        W18300  19.069  10.382  27.250  0.3846  0.1927 -0.1774
75310W        W18301  21.613   8.299   1.987  0.1245  0.2295 -0.0549
75311W        W18302  11.934   9.794   0.292  0.0155 -0.0794 -0.1562
75312W        W18303  29.490  30.891  28.942  0.0453 -0.0431 -0.4187
75313W        W18304   2.877   8.016  21.661 -0.0552  0.1270 -0.2910
75314W        W18305  26.527   6.754   1.430 -0.1146 -0.0449  0.1054
75315W        W18306  15.199  22.412   7.847  0.1334 -0.0331  0.0356
75316W        W18307  15.603  11.787  28.399  0.0288 -0.0148  0.1391
75317W        W18308  12.676  18.910  23.463  0.2785 -0.1367  0.0608
75318W        W18309  19.915   3.895   1.222  0.0676  0.1877  0.0055
75319W        W18310   7.171   4.028   5.771 -0.1256 -0.1768 -0.1686
75320W        W18311  23.318  22.693   8.897  0.2081  0.0630 -0.1172
75321W        W18312  24.369  10.526  16.580 -0.2818 -0.2022 -0.2262
75322W        W18313   8.536  18.062  18.054  0.0410 -0.0578  0.3595
75323W        W18314  20.673  11.593   5.236  0.1659  0.0065  0.1290
75324W        W18315   8.930  13.328   7.191 -0.1845 -0.0692  0.2183
75325W        W18316  21.982  34.562  26.619 -0.1874  0.2904  0.0190
75326W        W18317  33.140  34.321  20.594  0.1763  0.1356  0.0654
75327W        W18318  19.719  19.139   5.007  0.1937 -0.0380  0.2881
75328W        W18319   5.706  15.472  28.270 -0.1417  0.3419  0.1294
75329W        W18320  16.053  14.489   4.057 -0.1042  0.0300 -0.2610
75330W        W18321  20.239  13.513  25.120  0.0130  0.2095  0.2466
75331W        W18322  14.369   4.094  28.031  0.0009 -0.3796  0.0173
75332W        W18323  12.480  18.124   5.100  0.1032 -0.2691  0.1461
75333W        W18324  15.658  15.289  14.648 -0.0889 -0.3077 -0.1490
75334W        W18325  26.204   8.019  23.307  0.0067 -0.0483  0.0103
75335W        W18326   0.584  29.400   4.218  0.1487 -0.2053 -0.0667
75336W        W18327  21.979  28.107   3.113  0.0842  0.0857 -0.1550
75337W        W18328   9.726  17.111   3.369 -0.1777 -0.4469  0.2566
75338W        W18329  33.313   9.197   3.153 -0.0874  0.0164  0.1251
75339W        W18330   2.397  33.254  26.675  0.0948  0.5984 -0.1116
75340W        W18331   4.496  25.177  22.713  0.0767  0.0199 -0.0536
75341W        W18332  23.738  22.285   4.352 -0.1638 -0.1648 -0.3389
75342W        W18333  10.516  23.664  27.612  0.2245 -0.4281 -0.2333
75343W        W18334  25.154   0.795   2.226 -0.2844 -0.1830 -0.1480
75344W        W18335  22.264   5.073  14.129  0.1387 -0.2287 -0.1005
75345W        W18336  13.673  22.075  20.130  0.0533 -0.1980  0.2523
75346W        W18337  18.113  21.034  19.619 -0.6273  0.0572 -0.2191
75347W        W18338  25.190  14.944   1.196 -0.0337  0.3643 -0.2866
75348W        W18339  17.032  18.456   6.938  0.2225  0.1324  0.1249
75349W        W18340   1.683  11.522   8.271  0.2256  0.3617  0.0845
75350W        W18341  19.542  15.237  21.000  0.0486  0.0242 -0.0680
75351W        W18342  29.433  31.719   7.070  0.0683 -0.1411 -0.1873
75352W        W18343  10.171  12.891   8.855  0.0908  0.1333  0.2841
75353W        W18344   4.134  32.824   4.793  0.1702 -0.0459 -0.0925
75354W        W18345   6.266  17.931  21.717 -0.1075 -0.4000  0.0996
75355W        W18346   4.185  23.016   9.806  0.1168  0.2776 -0.0478
75356W        W18347   4.962   8.942  25.487 -0.0825 -0.4319  0.0654
75357W        W18348   9.996  18.789   3.618  0.0125 -0.3203 -0.2823
75358W        W18349  33.192  16.251  23.947  0.0484  0.2856 -0.1727
75359W        W18350  11.487  24.639   2.384 -0.1488  0.0019 -0.0284
75360W        W18351  31.335   9.642   5.637 -0.0387 -0.0366  0.0693
75361W        W18352   8.832  27.547   1.345  0.1160 -0.0445  0.4244
75362W        W18353  26.991   4.969   4.683  0.3402 -0.4042 -0.0970
75363W        W18354  19.808  15.044   0.564 -0.0872  0.4315  0.2651
75364W        W18355  12.602   3.804   5.033 -0.2150 -0.4748 -0.1796
75365W        W18356  23.246  18.561  20.221 -0.1634 -0.0556 -0.3645
75366W        W18357  16.831  10.676   5.384 -0.2730  0.0558 -0.1750
75367W        W18358  13.233  21.963  21.109 -0.2411  0.0736  0.0677
75368W        W18359  11.777  20.213  28.406  0.1089 -0.1565 -0.1329
75369W        W18360   7.942  26.965  22.649  0.0765  0.0974 -0.3821
75370W        W18361  28.748  25.468  27.775 -0.0649 -0.1603 -0.0764
75371W        W18362   6.359   3.317   6.487  0.2681 -0.2285  0.1710
75372W        W18363   9.221  23.280  26.335  0.1027 -0.3962 -0.2354
75373W        W18364  17.370  15.341   7.221 -0.1461  0.2293 -0.1340
75374W        W18365  30.499   2.689   8.959  0.1747 -0.0587 -0.0957
75375W        W18366  11.833  17.446  14.594 -0.4728  0.3480 -0.0512
75376W        W18367  15.492  13.807  23.956 -0.1146  0.0497 -0.2429
75377W        W18368  13.678   8.277   7.003  0.2751  0.2413  0.0505
75378W        W18369  34.019   6.330  16.855  0.2633 -0.2003 -0.1973
75379W        W18370  10.914  10.525  17.943 -0.1842  0.1912  0.2390
75380W        W18371  25.204   9.271   6.085 -0.2419  0.2258  0.0450
75381W        W18372  23.022  15.906  24.748 -0.2261  0.0364 -0.0990
75382W        W18373   8.269  13.888  23.932  0.0812  0.1187 -0.1608
75383W        W18374  26.940  18.354   9.963  0.2249 -0.0176 -0.0980
75384W        W18375  32.484  17.740   9.119 -0.1285  0.2648 -0.2420
75385W        W18376   3.869  18.793  26.266 -0.3051  0.1285  0.1169
75386W        W18377  18.362  30.831  28.425 -0.0171 -0.1876 -0.0846
75387W        W18378  19.527  13.123  18.486 -0.0988  0.0015 -0.0179
75388W        W18379  12.423  22.362   5.069 -0.1028 -0.4638  0.0685
75389W        W18380   3.040   8.959   3.269  0.0428  0.0012  0.0585
75390W        W18381   8.876   2.554  17.647  0.1597 -0.0540 -0.1854
75391W        W18382  19.769  28.245  28.576 -0.1347 -0.0502 -0.0640
75392W        W18383   5.363  15.690  11.625 -0.0176  0.2745 -0.0294
75393W        W18384   7.067  14.764   9.511 -0.2443  0.0876 -0.1094
75394W        W18385  18.474  25.487   7.906  0.1301 -0.2086  0.2998
75395W        W18386  19.218   6.966   2.125  0.4676  0.4336 -0.1361
75396W        W18387  11.362  22.131   0.073  0.0782  0.1486  0.3350
75397W        W18388  20.864  16.962   8.536  0.2556 -0.0574  0.2438
75398W        W18389   8.045  15.414   6.183 -0.0128 -0.0395  0.1099
75399W        W18390  34.146   6.592   9.240  0.1723  0.1271  0.1618
75400W        W18391  11.017  22.215   4.666 -0.1572  0.0064  0.0271
75401W        W18392  26.302  21.807   4.238  0.1446 -0.2102 -0.0190
75402W        W18393   9.994  12.791  22.714  0.2482  0.1657 -0.0413
75403W        W18394  25.730  24.776   2.457 -0.0879 -0.1530 -0.3391
75404W        W18395  16.905   8.482  26.589  0.2190 -0.0808 -0.0139
75405W        W18396  22.457  25.260  19.406  0.0279 -0.1266 -0.1820
75406W        W18397  31.465  24.907  23.889 -0.5114  0.0798 -0.0967
75407W        W18398  24.525  11.641   3.488  0.0664  0.0545 -0.0010
75408W        W18399  22.035  14.194  19.646 -0.1279 -0.1435  0.1738
75409W        W18400  25.224  21.545   1.284  0.3415 -0.1424  0.4209
75410W        W18401  30.577  16.649  26.552  0.1025  0.0575  0.2834
75411W        W18402  18.296  15.160   1.707  0.1421 -0.0712 -0.1363
75412W        W18403   4.283  17.096   7.483  0.1530  0.1700  0.1756
75413W        W18404   9.784  19.811   0.810  0.1882 -0.0058  0.1617
75414W        W18405  14.193  16.769   6.223 -0.0519 -0.0438 -0.0241
75415W        W18406  17.771  18.990   8.396  0.0175 -0.1040  0.1210
75416W        W18407  15.812  30.067   9.777 -0.0822  0.0181  0.1784
75417W        W18408  28.147  10.588   4.543  0.2754  0.2959 -0.0592
75418W        W18409  10.824  23.312  27.612 -0.0152 -0.0740 -0.0383
75419W        W18410  13.006  21.305  19.061  0.0901  0.0969  0.3419
75420W        W18411   8.010  15.577  16.348  0.3113 -0.3047  0.2283
75421W        W18412  11.988  13.691  22.243  0.1069  0.2101  0.0243
75422W        W18413   2.280   1.802  16.732 -0.1660 -0.0703  0.0366
75423W        W18414  28.463  25.813  21.276 -0.0307 -0.0695  0.3251
75424W        W18415   0.347  25.487  16.639 -0.1762 -0.0763 -0.1589
75425W        W18416  13.212  33.557  19.483  0.3129  0.2975  0.1189
75426W        W18417   2.824  31.551  28.244  0.0179 -0.0578  0.2316
75427W        W18418  24.871  23.978  26.055 -0.0038  0.1268  0.1081
75428W        W18419  19.550   9.954  22.858  0.0048 -0.1096  0.4471
75429W        W18420  22.169  17.252  14.545 -0.0466 -0.1966  0.0385
75430W        W18421  21.695  21.089  20.590  0.2233  0.1382  0.2687
75431W        W18422  20.308   5.339  28.123  0.0355  0.1610 -0.0047
75432W        W18423  16.222   2.025  18.674 -0.0812 -0.2788 -0.3283
75433W        W18424  24.313  26.899   1.300  0.0082 -0.1642 -0.0404
75434W        W18425  14.318  24.457  15.759  0.0017 -0.2213  0.1719
75435W        W18426  24.482  34.522  18.733  0.1309  0.0106  0.1324
75436W        W18427  27.596   5.890  21.054  0.0245  0.1434 -0.4840
75437W        W18428   4.219  11.207   4.941  0.0297  0.0740 -0.1184
75438W        W18429  30.236  20.506  23.621 -0.0799 -0.0592 -0.3831
75439W        W18430   1.569  26.971  28.572 -0.1984 -0.0299  0.1334
75440W        W18431  25.222  12.863  22.834 -0.1510 -0.1378  0.0813
75441W        W18432  15.561  12.167  18.321  0.4883  0.0383  0.0658
75442W        W18433  22.245   7.651  21.960 -0.1002  0.1974  0.1175
75443W        W18434  30.593  18.743  24.499  0.0909  0.2158 -0.2658
75444W        W18435  10.113  28.153  28.277  0.1113 -0.0761 -0.0660
75445W        W18436  22.776  28.119  19.889 -0.1568 -0.1230 -0.2384
75446W        W18437   7.111   0.512  20.846 -0.2988 -0.2104  0.0114
75447W        W18438  22.251  23.040  14.404  0.3976  0.0202  0.0828
75448W        W18439   6.239  16.884  16.520 -0.0699  0.2253  0.2471
75449W        W18440  18.211  25.612  15.294  0.1319  0.0652  0.0511
75450W        W18441  29.352  17.499  16.186 -0.2738  0.1982  0.0388
75451W        W18442  27.609  30.234  23.882  0.1075  0.2382 -0.1775
75452W        W18443  13.884  20.463  20.583  0.0715 -0.3235 -0.0086
75453W        W18444   6.944  26.445  17.198 -0.0535 -0.0332 -0.0474
75454W        W18445   6.810  20.228  27.997  0.2221  0.2215 -0.1304
75455W        W18446  21.660  14.148   5.647  0.1275  0.0516  0.2692
75456W        W18447   6.753  32.240   1.191  0.0656 -0.0668  0.2033
75457W        W18448  11.329  16.379   5.919 -0.0741  0.2458  0.1225
75458W        W18449  30.303  23.456  19.238  0.1479  0.0843 -0.1292
75459W        W18450  11.706  26.089  21.366  0.1034 -0.4541  0.0630
75460W        W18451  15.947  26.836  29.239  0.1564 -0.1398 -0.1648
75461W        W18452  25.173  29.561  26.625 -0.3140  0.2024 -0.4714
75462W        W18453   2.698  27.030  23.587 -0.0837 -0.0156 -0.2582
75463W        W18454  21.475  22.104  13.561  0.1737 -0.2940  0.4104
75464W        W18455  10.606  21.205  14.762  0.1639 -0.1281  0.4893
75465W        W18456  21.144  28.999  19.216  0.2873 -0.2118 -0.3835
75466W        W18457  25.284  26.198  26.262 -0.0061 -0.0871 -0.0218
75467W        W18458  13.657  29.281  15.548  0.0401  0.0023  0.0018
75468W        W18459  34.712  19.995  24.123  0.0443  0.2707  0.1546
75469W        W18460  29.740  33.271  15.227 -0.1169 -0.0344  0.1621
75470W        W18461  33.518  23.626  22.926  0.2454  0.2017  0.0574
75471W        W18462  15.771  24.793  21.204  0.0178 -0.1265  0.4593
75472W        W18463  24.512  33.937   1.453 -0.3188  0.0468  0.2879
75473W        W18464  34.401  27.562  15.106 -0.1838 -0.2664  0.2784
75474W        W18465   4.428  29.495  17.024 -0.0968  0.0035  0.1395
75475W        W18466  34.392  21.834  15.041 -0.1022 -0.1684  0.0632
75476W        W18467  20.832  27.175  15.994 -0.0035 -0.1122  0.1789
75477W        W18468  27.573  20.039  20.191  0.0252  0.2643  0.0379
75478W        W18469  16.189   6.787  22.504 -0.0398  0.0224  0.1155
75479W        W18470  12.062  24.038  27.033  0.1154 -0.0622  0.4148
75480W        W18471  26.942  26.379  16.346  0.0114 -0.1564 -0.1167
75481W        W18472   9.391  18.668  25.936 -0.3246 -0.0040  0.0529
75482W        W18473   8.218  16.744   7.303  0.2672 -0.0209  0.5331
75483W        W18474  23.404  21.827  16.851  0.2976 -0.4249  0.1532
75484W        W18475  18.823  18.029  14.520  0.1378  0.0610 -0.0888
75485W        W18476   5.444  27.394  15.600  0.2560 -0.3272  0.0646
75486W        W18477  29.498  14.136  16.188  0.0831 -0.0978  0.2353
75487W        W18478   1.275  11.847  20.988  0.0669 -0.0424 -0.3835
75488W        W18479   3.639  28.488  17.643 -0.1934 -0.0808  0.0540
75489W        W18480  14.619  10.733  17.004 -0.2280  0.1098  0.0876
75490W        W18481  16.503   2.430  25.223  0.0098 -0.0696  0.3551
75491W        W18482   3.639  11.269   8.170  0.0642  0.0910 -0.0587
75492W        W18483   0.528  30.013  18.222  0.0208 -0.0798  0.1465
75493W        W18484   8.329  13.290  22.582 -0.0318  0.1169  0.1196
75494W        W18485  14.849   4.454  15.984  0.0827  0.2894  0.0684
75495W        W18486  20.757   1.292  15.571 -0.3198  0.1658 -0.1392
75496W        W18487  11.685  32.300  14.769  0.1451 -0.1329 -0.1644
75497W        W18488  15.076  19.958  16.626 -0.2393 -0.0755  0.1705
75498W        W18489   2.063  24.243  18.178 -0.1612 -0.0307  0.2528
75499W        W18490  12.842  11.450   1.503 -0.0724 -0.1934 -0.2481
75500W        W18491  22.582  23.917  16.357  0.2708 -0.1590 -0.0462
75501W        W18492  11.702   9.970  23.867 -0.0321  0.1051  0.1107
75502W        W18493  15.464  21.640  12.834  0.4342 -0.1546 -0.3462
75503W        W18494  19.566  31.336  25.871  0.0996  0.1510  0.2514
75504W        W18495   6.336   9.523  23.575  0.3805  0.0331 -0.0181
75505W        W18496  16.049  13.874  21.411  0.0156 -0.1321 -0.2555
75506W        W18497   8.436  30.213  18.121 -0.0061 -0.0924  0.0157
75507W        W18498  19.527  22.412  22.343  0.0448 -0.1994 -0.1206
75508W        W18499  10.642  14.542  22.815  0.0039  0.0753  0.1442
75509W        W18500  31.685  28.317  26.487 -0.0734 -0.0159 -0.1282
75510W        W18501  29.259  22.795  22.774 -0.1158  0.0761  0.1685
75511W        W18502   4.573  12.217  17.580 -0.0106 -0.4453  0.2292
75512W        W18503  24.086  10.505  24.782  0.1982  0.0238 -0.0637
75513W        W18504  22.425  27.988  15.812 -0.2850  0.2825 -0.3542
75514W        W18505  17.129  12.117  15.855  0.0892  0.2313  0.1280
75515W        W18506  34.111   2.015  18.874  0.1301 -0.1157  0.0868
75516W        W18507  23.205  16.345  15.732 -0.2973 -0.1170 -0.0940
75517W        W18508  34.414   9.684  27.825  0.2390 -0.0902 -0.1921
75518W        W18509  16.003   5.819  25.936  0.1603  0.0933 -0.1210
75519W        W18510  14.852  33.098  18.949  0.1557  0.1663 -0.0113
75520W        W18511  11.572  28.630  24.499 -0.1467 -0.1357 -0.1704
75521W        W18512   0.402  23.768  14.826  0.3302  0.1065  0.2007
75522W        W18513  11.755  19.130  17.782  0.2503  0.3654  0.1577
75523W        W18514  20.665  20.416  17.955  0.0725  0.2092  0.0064
75524W        W18515  22.888  24.556   8.949 -0.2154  0.3590 -0.2365
75525W        W18516   7.101  14.639  19.832  0.0974 -0.2372 -0.1564
75526W        W18517  17.061  26.305  25.522 -0.1444  0.1974 -0.0022
75527W        W18518   9.086   1.317  16.821  0.3437  0.0117  0.1617
75528W        W18519  26.293  23.565  21.383  0.0254 -0.2427  0.1871
75529W        W18520   7.382  18.792  16.304 -0.0644 -0.2815 -0.1797
75530W        W18521  32.202  26.026  17.019 -0.0379 -0.1464  0.2045
75531W        W18522  10.439  19.833  26.524  0.0365  0.0591  0.2270
75532W        W18523  25.559  26.856  19.465 -0.0179 -0.0874  0.1925
75533W        W18524  15.731  23.384  15.948 -0.0888  0.0243  0.1029
75534W        W18525  21.406  27.699  19.006 -0.1032  0.0832  0.2260
75535W        W18526  12.562  27.006  18.362  0.2305  0.3676  0.0169
75536W        W18527   3.792   2.670  17.423 -0.0100  0.1489 -0.1101
75537W        W18528  11.360  32.891  15.613 -0.0951 -0.0996  0.1069
75538W        W18529  17.607   8.178  22.653 -0.0748 -0.0814  0.0299
75539W        W18530  13.692  28.447  23.442  0.1349  0.0215 -0.0159
75540W        W18531  13.141  19.503  26.628  0.1459  0.0009  0.1913
75541W        W18532   7.592  13.327   1.357 -0.0957  0.3191  0.1016
75542W        W18533   8.220  19.838  20.968  0.2310 -0.1125  0.2306
75543W        W18534  26.369   7.544  19.808 -0.0092  0.3743  0.0970
75544W        W18535  25.885  27.580  18.132 -0.0318  0.0322  0.0953
75545W        W18536  28.106  17.313  15.356 -0.1580  0.1749 -0.2368
75546W        W18537  34.336  26.930  23.725  0.2575 -0.0544  0.3423
75547W        W18538  20.367  22.294  26.301 -0.0075  0.1647  0.0744
75548W        W18539  32.279  25.872  26.263  0.2406  0.0095 -0.2277
75549W        W18540  17.535  21.314  15.632 -0.0151  0.2270  0.0419
75550W        W18541  12.713   0.964   2.254 -0.3424 -0.1117  0.1684
75551W        W18542   7.579  15.270   1.658 -0.5784 -0.2625  0.1835
75552W        W18543  17.335  33.383  16.003  0.4184 -0.3106  0.3103
75553W        W18544  14.469  13.334  14.683  0.2570 -0.3335  0.0314
75554W        W18545  12.377  16.033  14.082 -0.0477 -0.0941 -0.2401
75555W        W18546  20.804  25.641  26.635  0.0456  0.1135 -0.2959
75556W        W18547   7.261  15.157  28.433 -0.0424 -0.3000 -0.1793
75557W        W18548  34.017  14.979  18.781  0.0853 -0.1735  0.0160
75558W        W18549  15.025  28.917  18.939  0.2814 -0.0974 -0.1209
75559W        W18550  34.208  30.848  19.516  0.3827  0.3150 -0.0719
75560W        W18551  15.484  27.938  14.672 -0.1273 -0.1280  0.0673
75561W        W18552  16.740  10.740  14.091 -0.1903 -0.0057 -0.1116
75562W        W18553  14.546  31.198  25.018 -0.3639  0.1998  0.0737
75563W        W18554  23.201  18.187  22.056  0.0945  0.0907 -0.2545
75564W        W18555   6.813  20.574  16.014 -0.2654  0.2933 -0.1891
75565W        W18556  24.200   2.666  24.238  0.0033  0.0715  0.0520
75566W        W18557  27.951   1.303  12.806  0.3226  0.1491 -0.0218
75567W        W18558  21.028  23.208  17.758  0.3176 -0.3660 -0.1088
75568W        W18559  28.307  18.888  26.190  0.0020  0.2194  0.1953
75569W        W18560  23.604  16.660   2.958 -0.0466 -0.1283  0.2425
75570W        W18561  22.540  11.898  21.831  0.1531 -0.0373 -0.2822
75571W        W18562   8.963  27.714   7.455 -0.0594  0.3167 -0.2506
75572W        W18563   7.894  30.059  15.164  0.1888 -0.1331 -0.0941
75573W        W18564  21.949   8.765  27.059  0.3851 -0.0457  0.3691
75574W        W18565   7.112  10.657   3.697 -0.3391 -0.0656  0.2149
75575W        W18566  18.097  16.566  12.144 -0.2367  0.2034  0.2940
75576W        W18567  32.709  12.318  22.445 -0.4219 -0.3333 -0.2346
75577W        W18568  26.542  33.058  26.858  0.0443  0.0446 -0.2334
75578W        W18569  19.746  27.325  19.309  0.1393  0.2028  0.2803
75579W        W18570  26.769   5.185  29.070  0.4095 -0.1385  0.2191
75580W        W18571  20.059  25.508  17.658 -0.2734 -0.1192 -0.0961
75581W        W18572  26.724  17.908  25.260  0.4003  0.0002  0.1592
75582W        W18573   5.408  27.813  15.855 -0.2413 -0.2010 -0.2431
75583W        W18574  17.211  31.027  22.230 -0.1935  0.2051 -0.0961
75584W        W18575   8.524  31.735  19.964 -0.1640 -0.2096  0.2176
75585W        W18576   2.603  15.518  19.015  0.0698 -0.1597 -0.3508
75586W        W18577  13.865  24.926  16.433  0.1673  0.1008  0.0170
75587W        W18578  22.409  33.572  16.919  0.1540 -0.4799 -0.0543
75588W        W18579  16.765   9.624   0.371 -0.0465 -0.1841  0.0115
75589W        W18580  33.976  28.120  17.252  0.0923  0.0376 -0.0432
75590W        W18581  22.887  13.725  15.939  0.0384  0.1268  0.1219
75591W        W18582  12.959  24.652  16.686  0.1238  0.1083 -0.0521
75592W        W18583  22.112  19.581  28.154 -0.3500  0.1027  0.1051
75593W        W18584   3.679  20.330  16.861  0.0534 -0.2024  0.0274
75594W        W18585  20.201  22.816  16.837 -0.2486  0.0023  0.1871
75595W        W18586  16.912  11.872  21.495 -0.1068 -0.2317  0.3138
75596W        W18587  19.152  31.860  22.182 -0.0879  0.0202  0.0112
75597W        W18588  14.535  26.325  23.555  0.1874  0.0223  0.1203
75598W        W18589   0.369  26.554  18.793  0.1672 -0.1973 -0.1987
75599W        W18590  13.325  25.858  16.787 -0.0435 -0.2163  0.0137
75600W        W18591  14.947  28.251  27.827 -0.3868 -0.3742 -0.1024
75601W        W18592  19.030  22.322  20.240  0.2272 -0.1281 -0.0000
75602W        W18593   0.432  32.887  21.023 -0.0789 -0.1128  0.3028
75603W        W18594  16.257  11.382  19.064 -0.0419 -0.0393 -0.0234
75604W        W18595  23.773  18.722  19.461 -0.0061  0.1937 -0.1832
75605W        W18596  26.555  22.110  14.764 -0.1639  0.1098  0.3425
75606W        W18597  26.848  34.154  13.072 -0.0219  0.1014  0.0870
75607W        W18598  31.193  25.082  16.229 -0.3273 -0.1902  0.0754
75608W        W18599   9.322  30.231  17.867 -0.3898  0.0432  0.0538
75609W        W18600  13.293   6.413  24.534  0.4267  0.0827  0.1913
75610W        W18601   1.577  30.719  17.520  0.0182  0.0663  0.1482
75611W        W18602  15.005  30.399  21.632 -0.1223  0.0856 -0.1050
75612W        W18603  29.991   8.474  24.245  0.0984 -0.0049 -0.0634
75613W        W18604   8.258  15.420   2.962  0.0547 -0.1134  0.2504
75614W        W18605  31.096  25.998  25.332 -0.2845  0.3150 -0.0640
75615W        W18606  29.599  24.009   1.870 -0.0622 -0.3037 -0.0416
75616W        W18607  29.319  10.540  23.472 -0.1765  0.1369 -0.2099
75617W        W18608   8.731  22.418  22.109 -0.1746 -0.0132  0.0937
75618W        W18609   6.612   3.384   7.834 -0.1668 -0.1009 -0.0062
75619W        W18610  13.952  30.004  14.900  0.0076  0.2362  0.3991
75620W        W18611  24.463  26.764   9.221 -0.1933  0.1599  0.3681
75621W        W18612  27.797  20.515  23.375 -0.1410 -0.0142  0.0436
75622W        W18613   9.980  10.620  19.296 -0.1415 -0.2914  0.2146
75623W        W18614  29.739   7.321  16.847  0.0175 -0.1447  0.2699
75624W        W18615  30.787   1.668  17.551 -0.0177  0.0066 -0.1236
75625W        W18616   4.957  30.404  25.674 -0.0198 -0.0965  0.0006
75626W        W18617  21.364  18.899  19.552  0.4395 -0.0524  0.3792
75627W        W18618  18.957  26.483   3.924 -0.0236  0.1718  0.0735
75628W        W18619  26.498  30.787  23.092  0.2278  0.1705  0.1365
75629W        W18620  26.940  15.652  27.021  0.2508  0.1532 -0.3679
75630W        W18621  12.137  31.479  23.491  0.1075 -0.2306  0.1601
75631W        W18622  20.403   5.830  16.917  0.4377 -0.1509  0.1770
75632W        W18623  11.310  29.851  22.436  0.0690 -0.0010  0.1933
75633W        W18624  24.951  16.457  16.723 -0.0548  0.1850  0.1974
75634W        W18625  14.961  18.187  14.978  0.2261 -0.1182  0.1609
75635W        W18626  10.242  14.044  18.626  0.2978  0.2808 -0.1630
75636W        W18627   9.458  22.439  25.086 -0.1012  0.1318  0.2656
75637W        W18628  19.846  16.370  14.270  0.3123 -0.0844  0.0350
75638W        W18629  18.202  28.893  17.221  0.1694 -0.0467 -0.0290
75639W        W18630  17.931  20.558  18.695  0.1597 -0.3491  0.0982
75640W        W18631  20.858  30.549  25.601  0.0147  0.1720  0.0243
75641W        W18632  24.685  19.798  13.535 -0.0987 -0.2944 -0.0279
75642W        W18633  32.449  18.466   4.347 -0.0831 -0.1983 -0.1584
75643W        W18634  12.909  27.247  22.715 -0.0688  0.1125  0.0116
75644W        W18635  10.801  18.017  25.282  0.2326  0.1004  0.1071
75645W        W18636  27.108  18.963  20.634 -0.3448 -0.0428 -0.2750
75646W        W18637  19.313  30.921  25.423 -0.0955  0.0059 -0.3211
75647W        W18638   7.508   7.881  15.005 -0.2421  0.0297 -0.1743
75648W        W18639  24.890  15.728  22.452  0.0086 -0.0157 -0.0795
75649W        W18640   0.720  23.592  22.168  0.0866 -0.1783 -0.0389
75650W        W18641   2.396  23.026  19.777 -0.2772  0.1532  0.2325
75651W        W18642  16.707  10.828  21.498  0.0150 -0.0816  0.0348
75652W        W18643  21.077  31.258  16.226  0.1654 -0.0332 -0.2311
75653W        W18644  16.834   1.755  29.240  0.1116 -0.1324  0.0923
75654W        W18645  11.566  20.116  26.252  0.2957  0.0745 -0.0105
75655W        W18646  10.532  33.001   4.957 -0.1184  0.3755  0.0097
75656W        W18647  23.929  25.422   3.554 -0.0491  0.0423 -0.0165
75657W        W18648  23.161   5.983  17.391 -0.0962 -0.3065  0.1245
75658W        W18649  29.377   9.653  22.211  0.2764  0.0379  0.0733
75659W        W18650  33.123  26.014  18.019  0.3995 -0.0370  0.0912
75660W        W18651  32.862  26.553  27.035  0.2265  0.1377 -0.0356
75661W        W18652   7.469  14.377  23.303  0.1344 -0.0544  0.2355
75662W        W18653   7.475  19.597  23.171  0.0991 -0.0794  0.4131
75663W        W18654  19.788  24.102  16.304 -0.0701  0.1895  0.0360
75664W        W18655   2.163  26.559   8.974  0.0776 -0.1361 -0.2817
75665W        W18656  32.089  16.306   2.048  0.1432 -0.0655 -0.0188
75666W        W18657   9.143   7.173   0.877 -0.1099  0.1709  0.1578
75667W        W18658  15.546  18.613   1.575  0.0205  0.3640 -0.0926
75668W        W18659   4.433  24.985  27.138  0.0927  0.1671 -0.1592
75669W        W18660   0.548  25.658  27.506 -0.2181  0.1411 -0.0444
75670W        W18661  24.056  18.364  16.365  0.0705  0.0395 -0.0277
75671W        W18662  11.551  19.715  19.487 -0.0231  0.1960 -0.1404
75672W        W18663   0.898  19.242  25.014 -0.0596  0.2214  0.4277
75673W        W18664  10.518  34.552  19.625  0.2029 -0.1904  0.2251
75674W        W18665  20.290  23.931  24.504  0.0155  0.0579  0.0168
75675W        W18666  33.773  21.213  19.575 -0.0074 -0.0189 -0.2198
75676W        W18667  20.866  20.719  17.544 -0.3763  0.0828  0.0595
75677W        W18668  22.217  33.394  19.085 -0.1006  0.0272  0.0521
75678W        W18669  23.111  19.419  27.744  0.2049  0.1458  0.0459
75679W        W18670   6.792   9.497  25.166 -0.0772 -0.1259 -0.3336
75680W        W18671  19.792  28.978   1.335  0.2034 -0.0469  0.1152
75681W        W18672  12.781  30.720  15.020  0.0332 -0.1623  0.0654
75682W        W18673  14.052  28.146  23.668 -0.0159  0.0159  0.3083
75683W        W18674   2.020  10.052  18.959  0.0154  0.0174  0.2772
75684W        W18675  25.487  12.934  17.399 -0.1438 -0.0692 -0.1024
75685W        W18676   6.652  18.014  23.083 -0.2861  0.1876  0.1011
75686W        W18677   9.516  32.969  16.498 -0.0686  0.1129 -0.0980
75687W        W18678  11.123   2.983  23.668 -0.0960 -0.0739 -0.0900
75688W        W18679  14.603  24.007  20.985  0.0762  0.2796  0.0076
75689W        W18680  23.627  31.729  21.415 -0.0949 -0.1186 -0.1508
75690W        W18681   4.496  17.326   2.777 -0.0760 -0.0550 -0.1615
75691W        W18682  16.920   1.296   3.204 -0.3042  0.2216 -0.2197
75692W        W18683  25.123  27.106  19.487  0.0377 -0.2845 -0.2989
75693W        W18684  16.175  28.356  15.844 -0.2667  0.1689 -0.2582
75694W        W18685  13.806   7.815  23.986 -0.1671  0.0930 -0.3402
75695W        W18686  10.179  20.067  25.991  0.1433 -0.1645  0.1030
75696W        W18687  14.303   0.216   0.284 -0.0365  0.0623  0.0170
75697W        W18688  20.408  32.275  17.298 -0.3393  0.0137  0.0153
75698W        W18689  21.385  14.261  18.382 -0.0259 -0.0480  0.3618
75699W        W18690  20.636  17.019  25.857  0.5418 -0.0284  0.1601
75700W        W18691  27.224  18.369  18.738 -0.1026 -0.0510  0.2485
75701W        W18692  25.764  23.879  20.831  0.3616  0.0323  0.2704
75702W        W18693  27.741  16.976  24.765  0.0356 -0.2744  0.0098
75703W        W18694  24.965  22.814  12.779 -0.0519  0.1047  0.0627
75704W        W18695   4.837  28.191  22.177 -0.1666  0.0789 -0.1978
75705W        W18696  13.435  10.101   9.448 -0.2571  0.2597  0.4055
75706W        W18697  25.233  26.316  17.086  0.0204  0.0819 -0.0156
75707W        W18698  21.225  13.293  15.681  0.0379  0.3337  0.3082
75708W        W18699   2.573   0.824  20.748 -0.0814 -0.0949  0.4519
75709W        W18700  24.022  30.231  26.329 -0.0575 -0.3569  0.1594
75710W        W18701  32.315  20.287  20.637 -0.1456  0.1924 -0.2697
75711W        W18702  29.476   7.323  14.669  0.0557 -0.0566 -0.1693
75712W        W18703  16.093  17.308  21.268 -0.0542 -0.3154 -0.0044
75713W        W18704  10.497  24.934  27.102 -0.1490 -0.0180  0.2162
75714W        W18705  30.208  12.149  23.974  0.0076 -0.0211 -0.2673
75715W        W18706  15.086  11.353  17.605  0.1202 -0.0829 -0.2226
75716W        W18707  10.796  13.802  27.853  0.0287 -0.2935  0.3265
75717W        W18708  20.386  21.469  13.417 -0.0037  0.0873  0.1673
75718W        W18709   1.717  23.888  20.817 -0.0793 -0.3444 -0.2404
75719W        W18710  21.676  25.984  15.005 -0.2975 -0.2420 -0.3066
75720W        W18711  10.884  18.245  22.888  0.2687 -0.1250  0.6337
75721W        W18712   6.830  17.415   3.169  0.1795  0.1527  0.3676
75722W        W18713  21.645  13.991  22.793  0.2109 -0.1136  0.0096
75723W        W18714   4.645   6.498  27.237 -0.1367 -0.2439  0.1094
75724W        W18715   3.520  15.639  27.613 -0.0542 -0.0406  0.4776
75725W        W18716  11.213   1.638  28.437 -0.0136  0.2591  0.1273
75726W        W18717  28.140  19.650  25.220  0.0207 -0.3367 -0.0308
75727W        W18718   8.207  25.126  21.908 -0.0314  0.1340 -0.4550
75728W        W18719  26.528  29.709  15.420 -0.1138  0.0839 -0.0642
75729W        W18720  12.639   0.036  16.783  0.1320  0.1117 -0.2092
75730W        W18721  17.736  12.239  13.687  0.0783 -0.1354 -0.0301
75731W        W18722  17.388  22.702  15.270 -0.0842 -0.5564 -0.2918
75732W        W18723  25.104  17.817  21.298 -0.2860  0.2980  0.2740
75733W        W18724  15.160   9.058  21.812  0.0394  0.2636 -0.0048
75734W        W18725  15.827  24.119  19.472  0.2926 -0.2987 -0.0561
75735W        W18726  20.323  14.960  13.767 -0.0957 -0.1498  0.2501
75736W        W18727  14.175  18.606  26.945  0.1245  0.0510 -0.1706
75737W        W18728  25.649  28.871  19.584 -0.5740  0.1123  0.0388
75738W        W18729  11.903  31.779  17.087 -0.1319  0.0964 -0.1413
75739W        W18730   4.460  14.037  26.797 -0.0282 -0.0095 -0.0530
75740W        W18731  26.540  22.281  23.851 -0.0864 -0.3422  0.1071
75741W        W18732   4.815   6.361   2.512 -0.1634  0.0416 -0.2880
75742W        W18733  28.861   6.625  20.054 -0.1386  0.1532 -0.4637
75743W        W18734   6.447  31.608  26.186 -0.1520 -0.0311  0.2384
75744W        W18735   2.941  11.668  22.619  0.1399  0.1151  0.0629
75745W        W18736  15.530  11.275  18.918 -0.0661  0.0299 -0.3806
75746W        W18737   5.636  20.941  18.398  0.0175 -0.2226 -0.1577
75747W        W18738  21.997  31.801  15.798  0.0125 -0.2432  0.2019
75748W        W18739  12.944  15.439   0.682 -0.0465 -0.0077  0.4388
75749W        W18740  25.246  34.152  17.526 -0.0747 -0.0349  0.1986
75750W        W18741  18.984   1.715  21.614 -0.0646 -0.0112 -0.0327
75751W        W18742   0.865  16.464  16.446  0.4237  0.0460 -0.3659
75752W        W18743  18.168  20.397   5.390 -0.2937 -0.0683 -0.1936
75753W        W18744   3.861  25.018  13.942 -0.4129 -0.2603  0.2315
75754W        W18745   7.969  10.842  18.057  0.0821  0.0771 -0.1154
75755W        W18746  11.918  25.580  18.081 -0.0143 -0.0008  0.0072
75756W        W18747   7.077  25.061  20.226  0.0204 -0.0121  0.0172
75757W        W18748   8.259  28.392  27.120 -0.1538 -0.3549  0.0553
75758W        W18749  18.780  21.542  16.911  0.1126  0.0541 -0.0654
75759W        W18750  26.622  15.906  18.578  0.0215 -0.0861  0.1077
75760W        W18751  25.071   9.991  23.993 -0.2041  0.1483 -0.1116
75761W        W18752  23.032   9.173  25.201 -0.1321 -0.0017 -0.2098
75762W        W18753  10.911  25.007  14.355 -0.1671  0.2953 -0.1111
75763W        W18754   6.160   9.076   9.186 -0.1258 -0.2110  0.1793
75764W        W18755   8.715  18.802  15.397 -0.2942 -0.1177  0.0919
75765W        W18756  12.713  26.142  20.884  0.1374 -0.1360  0.2551
75766W        W18757  32.540  26.229  26.849  0.1063  0.1306  0.0635
75767W        W18758   3.638   9.537   1.665  0.1389  0.3038  0.1082
75768W        W18759   7.298  16.773  18.260 -0.1484  0.1989  0.1697
75769W        W18760  24.977  22.746  23.216 -0.1027  0.0067  0.0942
75770W        W18761  17.195  34.708  24.118  0.3649  0.1408 -0.0015
75771W        W18762   9.242  12.786  15.204  0.1980  0.0226 -0.0739
75772W        W18763  12.988   4.816  14.610  0.3998  0.0593 -0.1932
75773W        W18764   6.627   2.586  19.422  0.2258 -0.1454  0.3176
75774W        W18765  24.675  10.097  17.400 -0.0284 -0.3579  0.3466
75775W        W18766  15.490  24.554  24.702  0.1800 -0.1952  0.2112
75776W        W18767   8.181   4.870  16.100  0.0397  0.0876  0.2060
75777W        W18768   9.712  16.319  23.614  0.0432  0.1032 -0.0480
75778W        W18769   9.765   9.606  18.893  0.0007  0.2372 -0.0422
75779W        W18770  24.630  22.154  24.650 -0.0270 -0.1362  0.1585
75780W        W18771  20.289  31.411  17.776 -0.2112 -0.1269 -0.0328
75781W        W18772   3.282  22.470  18.053 -0.0634 -0.0681 -0.1002
75782W        W18773  25.434  20.979  20.399 -0.1125 -0.1300 -0.2633
75783W        W18774  12.372  14.350  13.872  0.0124 -0.0726  0.2025
75784W        W18775  22.265   0.642  17.775  0.1725  0.1645  0.1112
75785W        W18776  30.561  19.285  29.051 -0.1929  0.1265 -0.0033
75786W        W18777  10.390  13.225  17.280 -0.2364  0.1573 -0.1002
75787W        W18778  15.768  25.719  23.355 -0.2123  0.0431  0.0179
75788W        W18779   9.007  15.973  26.625 -0.0474  0.1427 -0.0904
75789W        W18780  29.172  24.315  25.838 -0.0510 -0.0003 -0.1879
75790W        W18781  19.376   1.752  18.407  0.0560  0.1905  0.0060
75791W        W18782  18.033  22.208  14.478  0.3933  0.0813  0.1251
75792W        W18783  21.749   4.075  22.359  0.1645  0.0730 -0.1716
75793W        W18784  11.824  10.824   7.317 -0.0332  0.3154 -0.1479
75794W        W18785   7.851  20.422  26.780 -0.2141  0.0874  0.0781
75795W        W18786  19.461   2.700  22.541  0.0267 -0.0582 -0.1851
75796W        W18787  13.775  27.867  20.751  0.0232  0.0561  0.1498
75797W        W18788   9.887  15.734  28.606  0.1116 -0.0206  0.1851
75798W        W18789  14.700  19.557  16.792  0.1203 -0.1116  0.2007
75799W        W18790  17.741  27.409  24.725 -0.1823 -0.1453 -0.3787
75800W        W18791   5.389  22.125  18.795 -0.0060  0.0721  0.3216
75801W        W18792  17.150  22.809  19.774 -0.0902 -0.0551  0.0522
75802W        W18793   9.105  16.596   6.288  0.0038  0.1424 -0.0232
75803W        W18794  34.081   8.292  18.575 -0.0840  0.2421 -0.4175
75804W        W18795  19.955  21.579  17.413  0.0890  0.0426  0.0361
75805W        W18796  21.734  20.281   0.438 -0.2934  0.4470  0.0505
75806W        W18797   1.289   7.406  26.043 -0.1580 -0.0950 -0.1670
75807W        W18798  10.056  31.575  24.050  0.1718  0.0779  0.4472
75808W        W18799  21.033  23.209  13.219  0.0213 -0.2139 -0.0258
75809W        W18800  22.579  10.718  17.456 -0.0232 -0.1937  0.1905
75810W        W18801  13.337  28.426  25.720  0.1345 -0.0278 -0.3613
75811W        W18802  13.380  21.306  20.053  0.1362 -0.1078  0.2027
75812W        W18803  12.643   1.242  19.927  0.0520  0.4815 -0.0088
75813W        W18804  31.543  30.112  14.641 -0.2788  0.2498 -0.0331
75814W        W18805   0.534  30.881  15.048 -0.0552  0.0575  0.0526
75815W        W18806  24.735   9.549  18.207 -0.1958  0.1502  0.1173
75816W        W18807  23.218  13.401  15.458 -0.2409 -0.0239 -0.0202
75817W        W18808  14.094  32.776  22.233  0.3108  0.0451  0.2411
75818W        W18809  21.861   0.358  19.371  0.1017 -0.1007 -0.2101
75819W        W18810  24.382  12.218  15.390 -0.0231  0.5354 -0.3014
75820W        W18811  22.917  31.597  15.850  0.1513  0.2788 -0.1586
75821W        W18812  20.778  28.233  25.530  0.1313 -0.0258  0.0948
75822W        W18813  23.239  25.755  24.199 -0.1850 -0.1404 -0.2617
75823W        W18814  21.663  23.631  24.136 -0.2671 -0.1409  0.2849
75824W        W18815   7.571  12.295  24.012 -0.0694  0.1261 -0.1554
75825W        W18816  14.689  16.772   6.670 -0.2262  0.0411 -0.0545
75826W        W18817   7.961  26.151  23.706  0.0670  0.2071  0.4319
75827W        W18818  11.929  18.859  14.436 -0.0175 -0.1789 -0.0674
75828W        W18819  23.015  15.792  19.394 -0.2211  0.1474  0.3157
75829W        W18820  15.983  14.672  15.259 -0.2919  0.2905  0.1596
75830W        W18821  23.386  23.355  16.534 -0.1595 -0.6204 -0.2186
75831W        W18822   1.592  12.462   4.060  0.1799  0.3664 -0.1141
75832W        W18823  21.315  23.989  14.366  0.1644 -0.1212 -0.0068
75833W        W18824  10.630  15.248  16.019  0.0698  0.1526  0.0210
75834W        W18825  23.111   9.538  13.861 -0.5545  0.2090  0.0597
75835W        W18826   8.867  10.228  17.646 -0.3279 -0.0570 -0.1413
75836W        W18827  13.720  27.200  14.158 -0.3000 -0.1169  0.3445
75837W        W18828  20.905  17.305  13.894 -0.0988  0.2140  0.2332
75838W        W18829   3.424   7.152  21.883  0.2921  0.2199 -0.0386
75839W        W18830  24.305  20.435  21.042 -0.0939 -0.0469  0.2175
75840W        W18831  13.138  19.254  19.757 -0.0654 -0.0859  0.0389
75841W        W18832  22.189   7.145  25.953  0.0404 -0.1577  0.0001
75842W        W18833  16.916  25.060  14.906 -0.2627 -0.1754  0.1635
75843W        W18834  11.692   8.886   0.432 -0.1130 -0.0604 -0.0272
75844W        W18835   6.833  22.738  25.578  0.3077 -0.0340  0.0603
75845W        W18836  21.058   3.898  17.579 -0.1232 -0.2017  0.0650
75846W        W18837   8.999  30.667  18.232  0.1023 -0.2851  0.0109
75847W        W18838   4.699   2.282  26.767 -0.0777 -0.1191  0.1712
75848W        W18839   6.638  23.825  20.968 -0.0392 -0.2896  0.1435
75849W        W18840  14.741   3.512   1.542  0.1705  0.0713 -0.2330
75850W        W18841   2.779   9.503  18.921 -0.0998 -0.0450  0.0109
75851W        W18842  18.554  32.927  21.235 -0.1055  0.1449 -0.0799
75852W        W18843   1.985  24.148   0.073 -0.2154  0.1178  0.2489
75853W        W18844  19.763   7.551  21.757 -0.3070 -0.1085  0.0332
75854W        W18845  18.702  10.065  20.568 -0.1789  0.3150  0.1075
75855W        W18846  19.312   8.956  20.084  0.1260 -0.3697 -0.0468
75856W        W18847   8.469  20.270  26.525  0.0357 -0.0427  0.3151
75857W        W18848   9.533  12.892  26.555  0.1406 -0.0920 -0.1019
75858W        W18849  29.323   3.147   2.615 -0.5039 -0.1807  0.0087
75859W        W18850   2.401  23.083  15.048  0.0193 -0.0160  0.0027
75860W        W18851   5.775  25.508  15.927 -0.1741  0.1555 -0.0392
75861W        W18852   6.238  18.468  19.599  0.1858 -0.2410  0.2320
75862W        W18853  12.734   7.810  17.422  0.0223  0.1326 -0.0124
75863W        W18854  28.889  25.506   0.503 -0.3621  0.1083 -0.0708
75864W        W18855  20.216  23.410  14.605  0.5275 -0.0174 -0.0126
75865W        W18856  23.045  12.985   9.870 -0.1340  0.1102 -0.1345
75866W        W18857  31.762  33.993  25.608 -0.1903  0.0175 -0.2223
75867W        W18858  10.748  29.856  25.672 -0.0757 -0.1166 -0.0380
75868W        W18859   1.956  25.442  25.159  0.0417  0.0284  0.1495
75869W        W18860  11.719  29.038  26.342 -0.0875 -0.0188  0.1138
75870W        W18861   3.247   4.440  25.079 -0.0099 -0.5246 -0.1109
75871W        W18862   2.963  19.955   0.634 -0.1653  0.1105  0.2990
75872W        W18863  29.635  32.400  24.893 -0.2084 -0.0408  0.2457
75873W        W18864  31.485  31.005  18.097  0.0683 -0.2036 -0.0409
75874W        W18865   6.819  12.532  17.988 -0.1815 -0.0951 -0.0924
75875W        W18866  11.307  15.495  23.227 -0.0602  0.0636 -0.0189
75876W        W18867  24.070  27.111  27.950 -0.0630  0.0817 -0.1351
75877W        W18868  31.331  25.858  16.001  0.1378  0.1450 -0.3458
75878W        W18869   6.338  14.530  22.602 -0.1501  0.2729 -0.0574
75879W        W18870  10.513  17.288  14.820 -0.1980 -0.0259  0.0021
75880W        W18871  34.155  25.658  16.176  0.2792 -0.1834  0.2193
75881W        W18872  17.935  24.143  19.284 -0.3057 -0.2738 -0.1716
75882W        W18873  27.011   8.990  13.650 -0.0905 -0.0223  0.0982
75883W        W18874  17.052  30.008  15.181 -0.0706 -0.3402  0.0291
75884W        W18875  20.584  27.354  15.573 -0.4581 -0.0870 -0.0256
75885W        W18876  15.924  25.538  27.094  0.2850 -0.1944 -0.0950
75886W        W18877  16.937  20.546  23.732  0.1904  0.1478 -0.2173
75887W        W18878  13.810  32.089  16.059  0.1512  0.0583 -0.0773
75888W        W18879  18.736  30.291  24.742  0.0711 -0.2164  0.1090
75889W        W18880   1.029  21.243  10.262 -0.3980  0.0312  0.0046
75890W        W18881  23.287   5.088  25.603 -0.1204 -0.1396  0.1772
75891W        W18882   7.472  27.030  17.577  0.1814 -0.3442  0.1517
75892W        W18883   7.308   4.837  25.168  0.2104  0.3659  0.0476
75893W        W18884   3.545   6.546  25.141  0.1236  0.0813  0.1609
75894W        W18885   4.446  18.410  22.304 -0.0583  0.4203  0.0328
75895W        W18886  23.841  31.238  15.623 -0.0452  0.0239 -0.0152
75896W        W18887   4.693  11.265  25.927  0.2850 -0.2303 -0.0139
75897W        W18888  13.284  23.690  23.747 -0.0192 -0.2119  0.0699
75898W        W18889  23.484  29.096  15.380  0.2144  0.2442 -0.1807
75899W        W18890  10.787  29.976  18.932 -0.3680 -0.0251 -0.0307
75900W        W18891  18.809  23.481  27.074 -0.3606 -0.1458 -0.0970
75901W        W18892  11.480  15.271  27.703 -0.5222 -0.1069  0.0634
75902W        W18893  23.373  15.780  18.119 -0.2232 -0.0089 -0.0283
75903W        W18894  33.553  28.470  24.685 -0.0359  0.0485  0.1148
75904W        W18895  16.105  27.781  17.051  0.0186  0.2432  0.2153
75905W        W18896  21.050  11.536  27.393  0.1189  0.0674 -0.0007
75906W        W18897  12.419  20.055  21.690  0.0602 -0.0611  0.0203
75907W        W18898   0.124  32.893   2.501 -0.0832 -0.1675 -0.2043
75908W        W18899  17.885   4.083  21.625  0.2894  0.2987  0.2007
75909W        W18900  21.290  29.332  21.663  0.3615 -0.0469  0.1771
75910W        W18901  16.651  20.871  16.165  0.0650  0.0177  0.2392
75911W        W18902  11.507   8.469   0.696  0.1851 -0.0705 -0.1047
75912W        W18903  12.226  25.578  18.682  0.3426  0.2006  0.1419
75913W        W18904  18.523   3.108  17.898 -0.0535 -0.0097 -0.1122
75914W        W18905  17.816  31.495  21.399  0.0705  0.1334 -0.1524
75915W        W18906  34.540  23.592  23.658  0.1120  0.1080 -0.0140
75916W        W18907   3.275  17.064  20.365 -0.3589 -0.0703 -0.2005
75917W        W18908  24.327  18.085  19.777  0.1265  0.1089  0.0552
75918W        W18909  10.867   6.046  25.137  0.1886  0.3784 -0.0115
75919W        W18910  23.733  11.130  13.254  0.0149  0.1737 -0.1990
75920W        W18911   4.607  34.417  25.940  0.0178 -0.1325 -0.2641
75921W        W18912  17.780  14.353   6.586  0.1543 -0.0334  0.1924
75922W        W18913  10.350  14.604  18.773 -0.1076  0.1825 -0.1471
75923W        W18914  23.178  22.357  14.175 -0.1109 -0.0240  0.0918
75924W        W18915  22.840  33.776  21.178 -0.0879  0.2211  0.0976
75925W        W18916   4.726  29.716  15.542 -0.1045  0.0205 -0.2556
75926W        W18917   7.798  22.802  19.883 -0.0028  0.1040  0.3786
75927W        W18918   5.373  20.317  19.187 -0.0979 -0.0151 -0.1168
75928W        W18919   0.209  15.838  18.164  0.1572 -0.1243  0.2320
75929W        W18920  15.647  29.297  19.641  0.0866  0.0059 -0.0939
75930W        W18921  33.853  18.041  21.855 -0.3582 -0.1361 -0.1616
75931W        W18922  15.132  20.162  28.137  0.2430 -0.1212  0.0095
75932W        W18923  23.143  10.691  25.439 -0.1786 -0.2932 -0.1388
75933W        W18924  10.146   6.534  20.625 -0.0722 -0.1123 -0.0969
75934W        W18925  15.014   0.225  18.733  0.0895  0.2022 -0.0245
75935W        W18926   9.734  17.914  13.795  0.0537 -0.1499  0.3354
75936W        W18927   2.604   6.864   0.334  0.0183  0.3400  0.1185
75937W        W18928   5.767  25.725  22.764 -0.1014  0.0485  0.2633
75938W        W18929   2.132  22.645  16.332 -0.0486  0.2690  0.2646
75939W        W18930  18.494  23.979  20.072  0.0633  0.1362 -0.0189
75940W        W18931  22.451  15.644  17.688  0.0981 -0.2332 -0.1054
75941W        W18932  14.965  32.065  18.483  0.2605 -0.6742 -0.0260
75942W        W18933  29.972  29.517  23.955 -0.0639  0.0841  0.0536
75943W        W18934  24.988   1.643  19.918  0.1027  0.1562 -0.1039
75944W        W18935  19.764  25.556  22.987 -0.4853 -0.1211 -0.0969
75945W        W18936  31.401  25.222  18.317 -0.0710  0.1721 -0.0976
75946W        W18937  23.098  20.555  24.290  0.0706  0.2919 -0.3297
75947W        W18938  23.909  24.000   2.208  0.0959 -0.2437  0.0199
75948W        W18939  13.511  19.268  25.365 -0.0704 -0.1533  0.1554
75949W        W18940  16.085  16.404   4.456 -0.2700 -0.0527 -0.0441
75950W        W18941  16.314   5.961  26.638  0.1876 -0.1719 -0.1997
75951W        W18942  29.303   7.501  28.053 -0.0712 -0.3936  0.0492
75952W        W18943  21.855  10.567  16.471 -0.4962 -0.1258 -0.1436
75953W        W18944  15.589  25.975  18.179  0.0710  0.1449 -0.5053
75954W        W18945  19.086  15.534  20.744 -0.0633  0.4087 -0.1359
75955W        W18946  19.399   7.351  25.285  0.0186  0.2682  0.0227
75956W        W18947  19.914   9.412  23.395 -0.0856 -0.0416  0.0734
75957W        W18948  23.694  20.996  27.047 -0.1996 -0.2346 -0.1240
75958W        W18949  19.474  25.155  22.279 -0.0170 -0.1065  0.0084
75959W        W18950  18.281  29.124  22.291 -0.1318 -0.3079  0.0756
75960W        W18951   9.051   4.126  26.184 -0.0678 -0.0799 -0.1914
75961W        W18952  31.497  23.999  16.844 -0.0334 -0.0938 -0.2637
75962W        W18953   5.064  15.820  16.174  0.1619  0.2016  0.2030
75963W        W18954  22.837  25.634   6.483 -0.1437  0.1069  0.2434
75964W        W18955  23.042  19.643  23.517  0.1405 -0.4039  0.0615
75965W        W18956  15.508  11.733  13.936  0.1570 -0.0757 -0.0115
75966W        W18957   6.084   2.189  20.001 -0.0011  0.2715  0.2422
75967W        W18958   5.693  30.166  20.372  0.1990 -0.1014 -0.2319
75968W        W18959  10.734  23.942  24.351 -0.1677  0.1005  0.3634
75969W        W18960  12.136  26.555  17.849  0.3188 -0.4607  0.1532
75970W        W18961   8.170  22.773  24.796  0.3921 -0.2859  0.1857
75971W        W18962   5.497   0.031  21.625  0.0107  0.0692 -0.0083
75972W        W18963   4.887  17.338   4.621 -0.0785  0.1644 -0.1340
75973W        W18964  23.683  28.931  28.701  0.0138  0.2955 -0.1212
75974W        W18965   6.165  23.795  19.973  0.2153  0.2286  0.0167
75975W        W18966  15.594   8.279  18.366  0.1358  0.0517 -0.1606
75976W        W18967  20.306  25.599  18.119 -0.1131 -0.1246  0.0381
75977W        W18968  15.132   5.445   0.443 -0.2577 -0.0369  0.3265
75978W        W18969   5.954  17.902  25.985 -0.2946  0.3118  0.3306
75979W        W18970   6.668  29.739  17.497 -0.1710  0.0121 -0.1282
75980W        W18971   4.323  17.009  15.896 -0.0068 -0.2669 -0.2392
75981W        W18972  27.641  31.655   8.771 -0.1980  0.0292 -0.1336
75982W        W18973   4.123  24.904  28.516 -0.1044 -0.1029  0.2886
75983W        W18974  27.678   9.954  22.917  0.0660 -0.4975  0.0462
75984W        W18975  27.239  14.177  21.745 -0.0590  0.1443  0.0923
75985W        W18976  20.834  21.379   5.738  0.4200  0.2770 -0.1870
75986W        W18977  32.529  33.098  29.000 -0.0826  0.1539  0.0725
75987W        W18978  19.788   4.961   2.015  0.0797  0.0489  0.0031
75988W        W18979  23.887  16.385  20.162  0.0371  0.1716 -0.3301
75989W        W18980  17.002  17.018  26.118 -0.1142 -0.1939  0.0977
75990W        W18981  18.961  22.752  19.417  0.0160 -0.1735  0.1098
75991W        W18982  22.178   2.719  28.270  0.0677  0.0158 -0.0381
75992W        W18983  30.957  18.728  23.672 -0.3529 -0.1671 -0.1640
75993W        W18984   9.389  12.297   3.319  0.0317  0.0502 -0.3398
75994W        W18985   8.727  12.366  15.796  0.1742  0.1409  0.1169
75995W        W18986   9.661   4.999  16.868  0.0600 -0.1277  0.0961
75996W        W18987   5.410  20.057  17.467 -0.0893  0.0376  0.0636
75997W        W18988  17.090  17.699  13.925  0.2178  0.2773 -0.1304
75998W        W18989  20.117  27.784   8.875  0.2728 -0.1306 -0.0217
75999W        W18990  30.312  20.458  17.435 -0.3621  0.0070 -0.0999
76000W        W18991  17.234  29.909  22.681 -0.1393  0.2530  0.0327
76001W        W18992  25.676  14.942  14.881 -0.0242 -0.2142 -0.2168
76002W        W18993  22.345  16.366  15.124  0.0716 -0.1420  0.1609
76003W        W18994   4.329  15.416  19.920 -0.0963  0.0119 -0.1622
76004W        W18995  30.903  17.027  20.447  0.0427 -0.1434 -0.2124
76005W        W18996  19.931  20.312   1.561 -0.1723 -0.0923  0.0626
76006W        W18997  20.462   5.102  16.674 -0.1056 -0.0718  0.1106
76007W        W18998   8.062  32.271  24.672 -0.2513  0.0204  0.0470
76008W        W18999  16.509   7.165  15.344  0.1381  0.1453  0.0912
76009W        W19000   2.686  22.165  17.591 -0.0972 -0.1754 -0.3588
76010W        W19001  25.703  27.035  17.507  0.1529  0.2474  0.1274
76011W        W19002  14.316  10.230  17.846 -0.1560  0.0380  0.0922
76012W        W19003   7.603  19.161  21.017  0.2491 -0.0321  0.1544
76013W        W19004   5.482  17.152  19.728 -0.1703 -0.1429  0.0005
76014W        W19005  12.565  21.778  24.753  0.1933 -0.0209  0.0847
76015W        W19006  28.133  26.423   7.796  0.2288  0.1692  0.2526
76016W        W19007  18.740  22.158  25.657 -0.0063  0.0446 -0.2790
76017W        W19008  18.752  12.025  18.806 -0.1708 -0.2285 -0.0127
76018W        W19009  28.264  25.129  17.519 -0.2629  0.1328  0.0725
76019W        W19010  26.524  16.852   0.090 -0.0994 -0.1166  0.0086
76020W        W19011   7.689  30.567  15.343  0.0650  0.1553  0.1733
76021W        W19012  18.082  28.921  18.619 -0.1101  0.3387 -0.0742
76022W        W19013   0.610  20.774  16.127 -0.1057  0.0615 -0.0026
76023W        W19014  17.860  15.653  23.375 -0.0513  0.0539  0.3295
76024W        W19015  12.777  22.488  25.201  0.2615  0.5790 -0.4655
76025W        W19016   5.549  30.943  17.311  0.0078  0.0092 -0.4197
76026W        W19017  12.818   0.202  21.485 -0.0826 -0.0968 -0.0046
76027W        W19018  13.884  16.426  12.921  0.1665 -0.0634 -0.5592
76028W        W19019  11.314  11.246  21.765 -0.1346 -0.1080 -0.0421
76029W        W19020   3.563  13.046  19.982 -0.1249 -0.0888 -0.1735
76030W        W19021   5.797  11.251  18.620 -0.2375 -0.1135  0.1245
76031W        W19022   3.773   6.106  18.791 -0.3204  0.1254 -0.1506
76032W        W19023   0.600  16.529  22.669  0.3075 -0.0410 -0.2766
76033W        W19024   5.932  29.989  25.420 -0.0675  0.1471  0.1487
76034W        W19025  25.596  11.682  24.300 -0.0407  0.1656 -0.2038
76035W        W19026  12.002   0.179  27.928 -0.1618 -0.1659 -0.1553
76036W        W19027   2.833   4.552  21.900 -0.0114 -0.1163 -0.0085
76037W        W19028   1.946  18.268  16.899  0.0935  0.0805 -0.0314
76038W        W19029   6.640  16.259  20.647  0.2011  0.0117  0.1482
76039W        W19030  20.930  20.167   8.598  0.1106 -0.1374  0.2822
76040W        W19031   7.902  19.388   6.608  0.1355  0.0388 -0.2800
76041W        W19032  13.480  28.248  24.476 -0.1854 -0.1121 -0.2695
76042W        W19033  14.938  27.822  23.535  0.3172  0.3992 -0.0038
76043W        W19034  33.537  29.813  19.795  0.1190  0.3028 -0.2067
76044W        W19035  16.116  11.055   2.859 -0.0868  0.0786 -0.0721
76045W        W19036   2.627   6.357  27.651  0.1010  0.3547 -0.0008
76046W        W19037   3.971  15.680  26.405  0.0088  0.0071  0.0370
76047W        W19038  17.189  27.136  21.477 -0.2142 -0.0902 -0.0104
76048W        W19039  10.086  12.790  19.119 -0.0555  0.1704  0.0274
76049W        W19040  17.547  10.439  28.632  0.0321  0.0228  0.0657
76050W        W19041  22.546  19.805  23.566  0.0257 -0.4362 -0.2307
76051W        W19042   1.981  25.068  23.498  0.0438 -0.0896  0.0798
76052W        W19043   8.615  27.563  15.306 -0.1367  0.2426 -0.0989
76053W        W19044  12.714   1.587  19.477 -0.3100  0.2187  0.3848
76054W        W19045  14.586  26.358  21.068 -0.1489  0.0958 -0.0708
76055W        W19046   9.384  14.415  22.170 -0.3899  0.3465 -0.1618
76056W        W19047  14.791  28.605  14.683 -0.3563 -0.2166  0.0780
76057W        W19048  10.717  33.774  25.033 -0.1379  0.1152 -0.2000
76058W        W19049  26.777  22.470  16.094 -0.0911 -0.0317 -0.2799
76059W        W19050  34.553  28.019  14.058  0.0405  0.0107  0.2855
76060W        W19051  20.670  16.877  13.953 -0.1512  0.1002  0.1967
76061W        W19052  20.892  19.960  13.670 -0.1944  0.1034 -0.0418
76062W        W19053   5.356  11.977  18.811 -0.0999 -0.1805  0.0032
76063W        W19054  11.198   6.353  27.444 -0.0589  0.0516 -0.0275
76064W        W19055  15.987  27.035  23.188 -0.2460  0.0816 -0.2174
76065W        W19056  10.953   4.724  26.635 -0.1423  0.1121 -0.0515
76066W        W19057  13.268  26.867  19.914 -0.5840 -0.0625 -0.1478
76067W        W19058  11.380   3.803  23.638 -0.0462  0.2669 -0.1620
76068W        W19059  12.109  26.717  18.349  0.1365 -0.0692  0.0444
76069W        W19060  28.213  28.696  21.973 -0.1845 -0.2664  0.0997
76070W        W19061   1.415  25.348  25.228  0.2154 -0.0763  0.1267
76071W        W19062   2.104  14.673  18.891 -0.0776  0.0201 -0.0954
76072W        W19063   6.943  20.789  20.109  0.1228  0.3965 -0.1123
76073W        W19064   8.666  17.956  25.481 -0.0537  0.0697 -0.1029
76074W        W19065  29.744  22.701  21.184  0.1515  0.0728 -0.1444
76075W        W19066  12.824  21.794  15.423  0.1012 -0.3184 -0.2079
76076W        W19067  27.210  21.736   0.487 -0.1013  0.1383 -0.2070
76077W        W19068  13.641  15.945  15.579  0.0737  0.0960  0.0624
76078W        W19069  18.108  32.935  15.357  0.1576  0.4410 -0.0936
76079W        W19070  13.166   4.798  26.409  0.3093 -0.0308  0.0831
76080W        W19071   5.482  10.793  21.855  0.1578  0.2670  0.0476
76081W        W19072  28.703  18.488  19.681  0.2008  0.0447 -0.4871
76082W        W19073  25.508  22.005  26.375 -0.0104 -0.4556 -0.2540
76083W        W19074  12.587  28.253  14.754 -0.2141  0.2754  0.0793
76084W        W19075  21.045   0.453  22.432  0.3433 -0.1946 -0.2690
76085W        W19076  16.307  30.366  15.320  0.3004 -0.0845  0.1333
76086W        W19077   7.372  19.054  28.099  0.3725  0.1798 -0.0028
76087W        W19078   7.808   0.203   0.094 -0.2697  0.0014 -0.0210
76088W        W19079   7.958  16.636  19.198 -0.1656  0.3694  0.0339
76089W        W19080   7.314  14.813  23.476  0.3181 -0.1062  0.0108
76090W        W19081  26.223  25.385  26.029 -0.0162  0.0277 -0.0623
76091W        W19082  27.880  15.336  20.445 -0.0801  0.1052  0.0250
76092W        W19083  18.725  21.580  12.945  0.0986  0.1235  0.2381
76093W        W19084  20.142  31.446  16.742 -0.0668  0.0143  0.1556
76094W        W19085  13.034  22.343  21.425  0.1455 -0.0351 -0.1203
76095W        W19086  18.503  21.200  18.500  0.3006  0.0560  0.2213
76096W        W19087  10.994  28.640   8.483 -0.0456 -0.0291 -0.1508
76097W        W19088  15.685  15.898  13.972  0.2794 -0.1338 -0.1081
76098W        W19089  26.019  26.293  26.451  0.3330  0.0674  0.0451
76099W        W19090  12.140   4.312   2.798  0.0371  0.0262  0.0259
76100W        W19091  18.858  13.690  13.502 -0.0942  0.1703 -0.1143
76101W        W19092   9.344   4.378  27.161  0.1799  0.0670  0.2125
76102W        W19093  19.249  13.862  17.285 -0.1652  0.1484 -0.2155
76103W        W19094  20.784  21.920  26.681  0.2082 -0.2751 -0.0864
76104W        W19095   6.685  20.331  20.088 -0.2718  0.2773  0.1441
76105W        W19096  24.888   0.432   5.930  0.0828  0.2264 -0.1660
76106W        W19097  14.171  24.103  14.257 -0.0988  0.3606 -0.1578
76107W        W19098  13.936  14.423  27.962  0.1894  0.1115 -0.2387
76108W        W19099   8.212  30.534  15.353  0.3772 -0.0689 -0.0513
76109W        W19100  26.616  23.655  24.121  0.1245  0.0733  0.0088
76110W        W19101   7.615  21.655  19.088 -0.0994 -0.0827 -0.0126
76111W        W19102  17.580  16.880  17.751 -0.1120  0.1106  0.3198
76112W        W19103  21.342  32.602  24.517  0.0034  0.2359 -0.4116
76113W        W19104   8.897  14.446  26.326  0.0374  0.1659  0.0593
76114W        W19105  25.644  33.938  28.634 -0.0277 -0.1038 -0.0348
76115W        W19106  14.451  21.566  19.221  0.0355 -0.0550  0.2463
76116W        W19107  23.781   0.262  19.760  0.3946  0.3120 -0.0003
76117W        W19108  20.063  27.346  27.889  0.0182 -0.0364 -0.2437
76118W        W19109  26.309  23.333  25.656  0.1801 -0.0398  0.1346
76119W        W19110  12.218  22.932  16.368 -0.1142  0.1599 -0.0129
76120W        W19111  16.656  15.940  12.163  0.2901  0.0269  0.0331
76121W        W19112  12.535  22.692   9.861 -0.1527 -0.1674 -0.0464
76122W        W19113  21.512  12.600  19.355 -0.0368 -0.2348 -0.2401
76123W        W19114  21.016  25.125  23.516 -0.3929  0.2966 -0.0494
76124W        W19115   5.427  28.006  24.360 -0.1268 -0.2122 -0.3553
76125W        W19116  16.445  11.254  23.058 -0.0108  0.1109 -0.0091
76126W        W19117  13.202  25.158  27.079 -0.0369  0.1207 -0.1703
76127W        W19118  12.420  15.641  19.947 -0.0218 -0.1603  0.1396
76128W        W19119   9.420  14.950  22.040  0.1562  0.2755 -0.2735
76129W        W19120  17.371  18.681  23.911 -0.4468 -0.0279  0.2636
76130W        W19121  26.148  10.266   4.814 -0.2636  0.1554  0.3351
76131W        W19122   2.860  24.826  20.661 -0.0059  0.0898  0.0098
76132W        W19123  32.881  26.845  22.956  0.0641  0.1544  0.1173
76133W        W19124  16.790  33.153  22.155  0.2734 -0.0923 -0.2374
76134W        W19125  15.193  25.528  19.982  0.1534 -0.1565 -0.4078
76135W        W19126  13.164   4.005   1.869  0.3500  0.1846 -0.0598
76136W        W19127  19.502  21.818  16.519  0.1539  0.2271 -0.2794
76137W        W19128  24.968  10.218   7.017  0.1988  0.2687 -0.0791
76138W        W19129  16.731  33.756  15.352  0.1234 -0.0455  0.1104
76139W        W19130  12.540  14.810   0.972 -0.1189  0.4270 -0.0189
76140W        W19131   6.293  28.299  24.700 -0.0708 -0.1037  0.1193
76141W        W19132   0.882  22.447  14.459 -0.2609 -0.3284  0.3917
76142W        W19133   9.537  33.020  19.967 -0.1999  0.0830 -0.2781
76143W        W19134  34.028  17.753  22.616 -0.2577  0.1971 -0.3544
76144W        W19135  20.019  14.308  23.542  0.0371 -0.0409 -0.4676
76145W        W19136  18.110  15.191  15.838  0.0877 -0.3026 -0.0742
76146W        W19137  14.401  21.158  17.574 -0.0859 -0.0404  0.0947
76147W        W19138  33.726  14.075  23.003 -0.1034 -0.0807 -0.1547
76148W        W19139  13.776  20.171  25.059 -0.0571 -0.0099  0.0048
76149W        W19140  25.562   7.711   7.956 -0.0234 -0.0363  0.0040
76150W        W19141   3.023  30.983  26.978  0.0577 -0.1852  0.0616
76151W        W19142  22.223  30.532  23.678 -0.3591 -0.0906  0.2244
76152W        W19143  14.746  33.735  19.606  0.0922  0.0647  0.0613
76153W        W19144  15.748  27.151   1.972  0.1584 -0.0935 -0.2245
76154W        W19145  23.670   2.852  13.913  0.1687 -0.1385  0.1840
76155W        W19146  20.862   6.143   2.874 -0.1110 -0.0668 -0.5529
76156W        W19147   9.144  32.852  14.321  0.3028  0.0744 -0.1921
76157W        W19148   5.346  27.469  19.791  0.0596  0.3365 -0.0969
76158W        W19149  21.809  20.327  22.513  0.3006  0.1553 -0.1507
76159W        W19150  31.543  12.923   7.088  0.1833 -0.1423 -0.1335
76160W        W19151  20.800  11.716  23.532  0.1378 -0.0868 -0.3175
76161W        W19152  16.633   5.613  27.974  0.3521  0.1564 -0.3844
76162W        W19153   7.201  21.764  15.241 -0.2035 -0.0246  0.1220
76163W        W19154  10.087   0.289  14.244 -0.0041  0.1419  0.1459
76164W        W19155   0.554  26.835   4.496 -0.1529  0.0297  0.0939
76165W        W19156  21.248  25.259  15.212  0.0007  0.0204  0.0085
76166W        W19157   7.806  16.642  15.357 -0.1020  0.1867  0.4261
76167W        W19158  16.226  14.657  12.010 -0.3373  0.0547 -0.1719
76168W        W19159  19.681  34.718  14.277  0.1471  0.2170 -0.1302
76169W        W19160   9.189  11.521   2.810  0.1322 -0.2414  0.1877
76170W        W19161   2.670  28.743  19.406 -0.0688 -0.0607 -0.3308
76171W        W19162   7.198  33.604  19.302 -0.0413 -0.2353  0.0856
76172W        W19163  10.955  28.898  15.891  0.0534 -0.3376  0.2850
76173W        W19164  11.022  15.598  18.544  0.2180  0.1423  0.1837
76174W        W19165  17.425  20.578  28.290 -0.0774  0.1159  0.0862
76175W        W19166  13.645  19.555   2.402  0.2277  0.0577 -0.0852
76176W        W19167  13.542  31.151  28.892  0.1297 -0.0286  0.2058
76177W        W19168  16.377   3.199   3.398 -0.1044 -0.1317  0.0870
76178W        W19169  12.129  22.020   0.902  0.1320  0.0389 -0.0404
76179W        W19170  15.755  29.445   1.177  0.2584 -0.1399 -0.0064
76180W        W19171  27.294  27.107  27.305 -0.4061  0.1622  0.0496
76181W        W19172  18.786  28.711   6.536  0.0792  0.0072  0.1374
76182W        W19173  15.776  12.557  14.849  0.0152 -0.0482  0.0350
76183W        W19174   6.020  13.782  20.314  0.0105  0.1310 -0.1434
76184W        W19175  13.811  14.852   3.894 -0.1325  0.0689 -0.2694
76185W        W19176  11.475  30.059  21.210  0.0634  0.1503  0.0216
76186W        W19177   6.949  23.890   8.125 -0.4900 -0.1294 -0.0127
76187W        W19178  13.350  12.262   8.408  0.1268 -0.0989 -0.0480
76188W        W19179  34.433  33.643  23.011  0.1420  0.0600  0.1641
76189W        W19180   7.453  19.338  14.556 -0.1640  0.2673  0.0079
76190W        W19181  28.113  29.720  15.488 -0.1363 -0.1482 -0.1912
76191W        W19182  26.257  27.280   1.114  0.2036  0.2297  0.1268
76192W        W19183  16.800  27.705  28.748 -0.1760  0.3563  0.4676
76193W        W19184   2.532  31.238  18.982  0.0732  0.1600  0.1675
76194W        W19185  25.257  12.682   0.635 -0.0106 -0.1373  0.0036
76195W        W19186   8.169  19.563  23.645  0.1593 -0.1860 -0.0255
76196W        W19187  21.107  25.117  28.535  0.2084 -0.3826  0.0902
76197W        W19188  17.364   3.167  26.789  0.0823 -0.0619  0.1605
76198W        W19189   1.502  13.980   1.457 -0.3733 -0.0480  0.1155
76199W        W19190  32.469   3.126  24.686 -0.1071 -0.1769 -0.1292
76200W        W19191  23.617  22.483  29.135 -0.2588 -0.1812  0.1909
76201W        W19192   8.698  27.100  27.638  0.2612 -0.0582 -0.0629
76202W        W19193   6.360  17.638  28.449  0.3170  0.2132 -0.0867
76203W        W19194  33.131  22.998  25.431  0.1392  0.2299 -0.1798
76204W        W19195  21.110   4.755   7.773 -0.1117 -0.0329 -0.2889
76205W        W19196  12.354  15.360  14.264 -0.2285 -0.0400  0.0311
76206W        W19197  26.231  18.303   6.027 -0.2168  0.0236 -0.0644
76207W        W19198   0.008  33.933  24.577 -0.1836  0.1041 -0.0038
76208W        W19199  27.820  28.541  17.686  0.0315  0.1112 -0.1829
76209W        W19200  27.378  29.682  19.786 -0.0521 -0.0590  0.2797
76210W        W19201  11.507  18.490  13.593 -0.0247  0.0385  0.1189
76211W        W19202   4.891  23.622  20.840  0.0515 -0.1611  0.1803
76212W        W19203  11.612  20.323  23.821 -0.0505 -0.0185 -0.2189
76213W        W19204  20.882  13.626  26.563  0.1280  0.0349  0.0340
76214W        W19205  21.542   1.574  24.895 -0.0370 -0.2954 -0.3189
76215W        W19206  14.660   1.845  15.927 -0.0590 -0.0043  0.0872
76216W        W19207   8.752  30.292  25.561 -0.0367  0.0888  0.1489
76217W        W19208  16.950   0.474  20.428 -0.0751  0.2580 -0.2651
76218W        W19209  30.759  18.232   4.011  0.2299 -0.0670 -0.2347
76219W        W19210  21.448   2.996  19.911 -0.1674 -0.2370  0.0116
76220W        W19211  15.919  18.822  18.788  0.2276  0.0099 -0.0600
76221W        W19212  30.160   2.088   3.846  0.1998  0.1961 -0.3289
76222W        W19213   6.277   6.826  10.465  0.2182  0.2316  0.2275
76223W        W19214  26.006  20.180   8.281  0.0442  0.1846  0.2404
76224W        W19215  20.414  14.703  14.428 -0.1837 -0.0915 -0.2505
76225W        W19216  20.205  17.589   5.403 -0.0932 -0.1173 -0.1249
76226W        W19217  17.637  18.462  18.461  0.0815  0.0984  0.0126
76227W        W19218  17.379   5.794  15.333 -0.0181  0.0770 -0.0190
76228W        W19219  21.312  26.323  15.916 -0.1277  0.1639 -0.1005
76229W        W19220  10.637  25.883   1.583  0.0728  0.1404  0.2026
76230W        W19221  22.061  31.141  13.611 -0.1754 -0.0458 -0.1011
76231W        W19222  24.646  24.190  15.958 -0.1912  0.0513  0.1362
76232W        W19223  21.091  26.371  14.602  0.0768 -0.0163  0.0385
76233W        W19224  14.887  27.652  17.091  0.2787  0.1058 -0.3430
76234W        W19225  12.344  15.291  26.679 -0.2819  0.4694 -0.0084
76235W        W19226   4.170  25.337  26.951 -0.0976 -0.0548 -0.0542
76236W        W19227  28.010  16.107   2.709  0.2433  0.1036 -0.0154
76237W        W19228  29.987  32.553  16.203 -0.1733  0.0602 -0.4173
76238W        W19229  20.135   2.164  25.508 -0.1384 -0.1128  0.1234
76239W        W19230  22.097   2.106  27.955 -0.2517  0.0711  0.2005
76240W        W19231  10.414  30.082  27.111 -0.1449 -0.0494  0.1092
76241W        W19232  28.920  32.203   2.373 -0.0185 -0.1355 -0.0517
76242W        W19233   5.395  10.593  25.797 -0.0353  0.2280 -0.0867
76243W        W19234  16.095  22.394  14.789  0.1176  0.3821 -0.1316
76244W        W19235   9.646  34.532  25.404 -0.0898  0.1646  0.0923
76245W        W19236  14.626  31.537  22.956  0.2692  0.3596 -0.1496
76246W        W19237  23.904  18.082  18.948 -0.2121  0.1368  0.0668
76247W        W19238   5.409  28.795  23.851 -0.0582 -0.0470 -0.2331
76248W        W19239  25.469  22.731  15.257  0.0435  0.1656 -0.5289
76249W        W19240  16.992  27.779  19.085 -0.3741 -0.0664 -0.0251
76250W        W19241   8.316  11.824  22.397 -0.1869 -0.0620  0.1515
76251W        W19242  16.581  15.689  18.297 -0.1280  0.3920 -0.2397
76252W        W19243  25.140  15.981  16.871 -0.5128 -0.1462 -0.4441
76253W        W19244  32.756  22.062  25.920  0.2003  0.0200  0.1613
76254W        W19245  23.771  13.791  16.850  0.1132 -0.1722 -0.2462
76255W        W19246  22.555   5.349  27.672  0.0543 -0.0672 -0.0276
76256W        W19247  27.252  23.490  22.279 -0.2485 -0.3403 -0.1354
76257W        W19248  13.525  10.507  23.811 -0.0655 -0.1010  0.0351
76258W        W19249  20.424  11.953   4.452 -0.1787  0.0035 -0.1221
76259W        W19250  11.382   2.275  15.219  0.0279 -0.2481 -0.1015
76260W        W19251  30.419  19.313  21.570 -0.0861  0.1499  0.0896
76261W        W19252  17.037   5.008  23.122 -0.2699 -0.1365 -0.2122
76262W        W19253  11.088  31.270   5.107 -0.0343  0.3140  0.1837
76263W        W19254  14.458  16.718  13.848 -0.1648  0.1951 -0.2891
76264W        W19255   7.356  18.372  15.987 -0.1365  0.0154  0.0013
76265W        W19256  10.398  18.362  28.500  0.0561 -0.0934  0.1730
76266W        W19257  12.995  11.486   4.765 -0.2547  0.0279 -0.2220
76267W        W19258   0.534   3.203   3.388 -0.2204 -0.1179 -0.7183
76268W        W19259  31.661   1.192  24.564 -0.0078 -0.4145 -0.1011
76269W        W19260  17.881  18.475  14.497  0.0444 -0.0508  0.1025
76270W        W19261  19.030   3.679  18.495  0.1342  0.1572 -0.1830
76271W        W19262  18.295  18.602  20.730 -0.1420  0.1172 -0.1984
76272W        W19263  15.160  24.331  18.448  0.0847  0.1944  0.1465
76273W        W19264   8.045  18.329  20.904 -0.3705 -0.3392 -0.2980
76274W        W19265  16.279   1.598  18.985 -0.0089 -0.1962 -0.0603
76275W        W19266  11.481  22.396   3.917 -0.3580  0.2486 -0.0723
76276W        W19267  30.435  21.414  20.042  0.1885  0.2930  0.0222
76277W        W19268   3.092  31.700  22.906 -0.0512  0.0194 -0.1047
76278W        W19269  12.956   2.634  17.939 -0.2100 -0.4174  0.0109
76279W        W19270   1.645  28.343   2.600 -0.2321  0.0979  0.3444
76280W        W19271  31.193  16.969   7.503 -0.0071 -0.1909 -0.1319
76281W        W19272   3.428  12.667  17.277  0.1991 -0.4292 -0.3358
76282W        W19273   7.643  25.924  25.741  0.2892  0.1600 -0.1607
76283W        W19274  13.522   6.541   5.107  0.2664 -0.1237 -0.2259
76284W        W19275   8.582  25.129   1.102  0.1441  0.2468 -0.0189
76285W        W19276  15.780  34.440  18.489 -0.1949 -0.1795  0.0499
76286W        W19277   9.924  22.945   7.931  0.4763  0.3003  0.0258
76287W        W19278  14.061  19.855  20.020  0.0369 -0.0530  0.0424
76288W        W19279  13.796  21.566  26.303  0.1632 -0.2273 -0.0179
76289W        W19280  31.771  31.776  22.844  0.0818  0.0857  0.0658
76290W        W19281   2.651  12.401   8.171 -0.0379  0.0817 -0.0272
76291W        W19282  16.567  12.580   1.596 -0.0120  0.1047  0.2590
76292W        W19283   5.107  13.891  20.599 -0.1737 -0.1611 -0.0046
76293W        W19284  16.643  18.288  19.301  0.0998 -0.3006  0.3325
76294W        W19285  10.487  16.027  28.193  0.1780 -0.0236  0.0864
76295W        W19286  34.180  24.427  23.123  0.0520  0.1063  0.1604
76296W        W19287  15.642  16.956  15.027  0.5071  0.0311 -0.1340
76297W        W19288   9.474  20.189  22.443  0.0551 -0.0422  0.1182
76298W        W19289  17.068  17.367  20.834 -0.2170  0.0962  0.1392
76299W        W19290   3.261  22.603  26.547 -0.1632 -0.0534 -0.4797
76300W        W19291  31.878  25.169  24.215 -0.0055  0.0777  0.1740
76301W        W19292  24.282  17.403  19.629 -0.1169 -0.0238  0.2105
76302W        W19293  15.459  18.330  25.198 -0.0305  0.2661 -0.2235
76303W        W19294  33.078  10.009  24.998 -0.1229  0.0554 -0.4072
76304W        W19295  15.987  18.877  19.335  0.1203 -0.0992  0.0395
76305W        W19296  15.054   8.410  26.469 -0.2172  0.3076  0.3694
76306W        W19297  15.192   3.091  17.525 -0.3066 -0.1842  0.0507
76307W        W19298  10.697  22.625  28.234  0.0055 -0.2281  0.0868
76308W        W19299  12.319  16.670  20.420  0.2205  0.1574 -0.1472
76309W        W19300  15.326  15.478   1.259 -0.1987  0.0611  0.3081
76310W        W19301   3.216  22.142  26.343 -0.0966  0.0857 -0.3652
76311W        W19302  19.299   3.188   0.995 -0.0100  0.0416 -0.0966
76312W        W19303  23.138   5.427   1.711  0.0914  0.0964 -0.0250
76313W        W19304  16.570  17.430  19.318 -0.1850  0.2313  0.0709
76314W        W19305  21.027  29.535  19.033 -0.0099  0.3511 -0.1662
76315W        W19306   0.783   3.764  22.299  0.1353 -0.0597 -0.1396
76316W        W19307   6.093  18.050  21.059  0.1528  0.1533 -0.1108
76317W        W19308  17.299  27.266   8.912 -0.0320 -0.0622  0.0088
76318W        W19309  28.077  19.884   2.055 -0.1749 -0.0596  0.0260
76319W        W19310  18.633  28.591  25.524  0.1799 -0.0413  0.0121
76320W        W19311  10.884   7.657   7.136 -0.0097  0.2826 -0.2193
76321W        W19312  25.066  25.171   1.915  0.0773 -0.2398  0.1389
76322W        W19313  14.362  30.596  23.313 -0.1381  0.0311  0.2939
76323W        W19314   1.254  21.023  28.507 -0.0372  0.4668  0.3119
76324W        W19315   2.133  13.193  28.047 -0.2076  0.2642 -0.0126
76325W        W19316   7.964  32.531  15.032  0.0656  0.0447 -0.1283
76326W        W19317   5.260  20.764  17.251 -0.0128  0.0444  0.3471
76327W        W19318  23.579  20.824  26.129  0.0703  0.1813 -0.2459
76328W        W19319  16.285  26.468  14.467 -0.3201 -0.0819 -0.0110
76329W        W19320  34.159  25.233   8.534  0.1010 -0.0110 -0.0493
76330W        W19321  13.276  22.351  18.036  0.0973  0.2012  0.1457
76331W        W19322  28.867  22.975  20.116 -0.0473 -0.1974 -0.1708
76332W        W19323  22.686  32.617  16.077  0.0655  0.1696  0.2808
76333W        W19324  26.244  15.485  20.269  0.0233  0.0673 -0.0949
76334W        W19325   1.270  16.848  26.040  0.3363 -0.0216 -0.0096
76335W        W19326  16.591  32.564  18.105  0.1947  0.2494 -0.1939
76336W        W19327   4.771  23.375   0.684 -0.1705  0.1208 -0.0406
76337W        W19328  18.337  14.218  25.304 -0.0339 -0.3435 -0.2095
76338W        W19329  27.481  24.427  28.442  0.1686 -0.1818 -0.0732
76339W        W19330  30.057  30.099  24.468  0.0401  0.0991  0.2236
76340W        W19331  21.690  12.946  15.053 -0.3575 -0.3188  0.1665
76341W        W19332  20.587  12.739   4.274 -0.2049 -0.1823  0.2995
76342W        W19333  10.997  14.787   5.343  0.0540  0.0404 -0.1002
76343W        W19334  34.302  26.682  16.149 -0.2320  0.1371  0.1749
76344W        W19335  24.103  15.229  22.713  0.1564 -0.0148  0.1028
76345W        W19336  19.064  28.783   5.545  0.3087 -0.0670 -0.1801
76346W        W19337  16.168  19.684   7.244 -0.1641  0.0922  0.0163
76347W        W19338  26.302  23.315  28.450  0.0795  0.3306 -0.2335
76348W        W19339  11.659  18.747  22.669  0.1550 -0.1100  0.3603
76349W        W19340  16.487  17.164  21.500  0.1877  0.3677  0.2845
76350W        W19341   8.827  18.328  16.781 -0.3539 -0.0630 -0.1495
76351W        W19342  21.970  27.376  16.062 -0.3196 -0.0208 -0.4953
76352W        W19343  34.022   2.425  18.045  0.0799 -0.2223  0.0900
76353W        W19344  21.010   6.417  14.364 -0.2789 -0.0224  0.0961
76354W        W19345   5.706  22.326   1.326 -0.0472 -0.0294  0.0512
76355W        W19346   7.057  12.447   4.000  0.1771  0.0857 -0.2785
76356W        W19347  12.573  13.631  19.453  0.1881  0.3460  0.0334
76357W        W19348  14.979  34.710  25.507 -0.2542  0.2393  0.0031
76358W        W19349  16.135  28.202  20.290  0.0951  0.1840 -0.1168
76359W        W19350  13.381  18.156  27.329 -0.0228 -0.1652  0.5969
76360W        W19351   5.207  15.124  19.022  0.2069  0.1097  0.1586
76361W        W19352  10.225  19.254  27.109 -0.1533  0.0151 -0.0906
76362W        W19353  21.910   1.170  20.086 -0.0705  0.2458  0.0757
76363W        W19354  13.136  22.332  20.171  0.1396 -0.2514  0.1654
76364W        W19355  30.155  19.624   3.078  0.0344 -0.1759  0.0537
76365W        W19356  12.331  24.130  16.971 -0.0092 -0.0879  0.2120
76366W        W19357  10.908  13.372  28.096 -0.2503  0.2274 -0.1932
76367W        W19358  29.433  18.118  25.507  0.1180  0.0740 -0.1334
76368W        W19359  23.874  23.015  19.240  0.5835 -0.0598  0.2346
76369W        W19360   1.377  10.420   4.802  0.0909 -0.0465 -0.0314
76370W        W19361  16.224  28.938  16.529 -0.1693 -0.1416  0.3244
76371W        W19362  19.687  21.109   0.745  0.1565  0.3141 -0.0204
76372W        W19363   3.874  30.411   9.053  0.1118  0.2893 -0.2236
76373W        W19364  14.065  14.442   2.278 -0.3843  0.2848  0.0237
76374W        W19365   2.403  24.350  16.042 -0.0527  0.1849 -0.3864
76375W        W19366  20.409  22.899  22.017 -0.2541 -0.1180 -0.0247
76376W        W19367   5.460  31.326  27.306  0.0557  0.0247 -0.3193
76377W        W19368  21.524  20.818  23.447 -0.2142 -0.2618 -0.0579
76378W        W19369  34.226   0.343   1.023  0.0470  0.1352 -0.0528
76379W        W19370  17.316  26.915  26.630 -0.2097 -0.2360  0.1787
76380W        W19371  24.620  10.730  17.324 -0.0822 -0.2251  0.0037
76381W        W19372  22.868  10.733   4.743 -0.2120 -0.0182  0.1940
76382W        W19373  14.579   1.223  26.678  0.1476  0.1035  0.1718
76383W        W19374  10.463  13.905   7.750  0.0380 -0.1457  0.0862
76384W        W19375  20.454  34.091  18.874 -0.1906 -0.0798 -0.2654
76385W        W19376  12.544  22.068  25.328 -0.0686 -0.1969  0.3478
76386W        W19377  15.561  25.464  16.948 -0.1596  0.4582  0.0272
76387W        W19378  24.345  13.708  19.970 -0.3219 -0.1948 -0.0488
76388W        W19379  16.618  18.937  18.630  0.1289  0.0270 -0.1277
76389W        W19380  34.528  16.905  17.372  0.0053 -0.1550 -0.1917
76390W        W19381  20.005  32.116  26.410 -0.1116 -0.4269 -0.0928
76391W        W19382   7.672  12.168   3.093 -0.0796 -0.0143 -0.1633
76392W        W19383   4.966  23.478   5.235 -0.0577  0.0492  0.0727
76393W        W19384  29.611  24.456  21.693  0.0624  0.1059 -0.3514
76394W        W19385  15.675  17.795   7.512 -0.1144 -0.3263  0.1562
76395W        W19386  21.032  13.741  23.756 -0.2173 -0.0853 -0.1696
76396W        W19387   4.270  28.783  23.977 -0.1337  0.0445 -0.1594
76397W        W19388   5.853   8.604   5.724  0.1327  0.0835 -0.1112
76398W        W19389  17.498  31.204  13.228 -0.0526  0.0381  0.2716
76399W        W19390   4.030  34.002  18.105  0.0162 -0.0828  0.0347
76400W        W19391  18.231  14.440  17.083  0.0614 -0.1857 -0.0445
76401W        W19392  17.280  15.346  14.277 -0.1680  0.0071  0.1740
76402W        W19393  15.476  27.206  20.362 -0.3041 -0.2939  0.1944
76403W        W19394   8.993  26.078  10.285  0.0183  0.0119 -0.0630
76404W        W19395  24.496  20.259   2.186 -0.2488  0.0711 -0.0899
76405W        W19396   7.651   0.593   3.888  0.0799  0.0318  0.2644
76406W        W19397  19.799  20.260  26.887 -0.1987  0.0270  0.0640
76407W        W19398  28.758  14.349   8.478 -0.1090 -0.0014 -0.2265
76408W        W19399  16.864  16.180  27.561 -0.1884 -0.0248 -0.0418
76409W        W19400  20.575  15.957  27.782  0.1496 -0.2755  0.1861
76410W        W19401  15.936  27.387  14.124 -0.0234 -0.2126  0.1880
76411W        W19402  27.842  23.035  25.395  0.1667  0.0034  0.3579
76412W        W19403  16.299  15.289  18.345 -0.2495  0.3713  0.1914
76413W        W19404  17.445  32.956  20.617  0.2497  0.1056  0.2003
76414W        W19405   2.590   8.577  22.849 -0.0204 -0.2444 -0.0635
76415W        W19406  16.140  26.835  18.609 -0.1706 -0.2758  0.4290
76416W        W19407  21.401  28.131  24.538  0.1211  0.2591  0.1776
76417W        W19408  18.216   5.883  15.423  0.0340  0.1570 -0.1469
76418W        W19409  28.322  12.102  16.277 -0.0990 -0.0009 -0.1234
76419W        W19410   5.026  23.850  20.003 -0.0889  0.4179  0.1605
76420W        W19411  15.309   9.025   2.607 -0.2608 -0.3020 -0.0515
76421W        W19412  32.926  12.251  25.990 -0.2017 -0.0596 -0.0134
76422W        W19413  13.828  27.271  21.899  0.3105  0.2310  0.0636
76423W        W19414  32.752  19.127   3.120  0.0731 -0.1512  0.1467
76424W        W19415   5.716  23.510   9.718 -0.5396  0.4401 -0.0526
76425W        W19416  27.270  15.256  15.184  0.0515  0.4345  0.1358
76426W        W19417  23.469  26.711   7.267  0.2134 -0.0958 -0.1220
76427W        W19418  14.465  12.833   8.909 -0.1732 -0.1588 -0.0456
76428W        W19419   6.434  16.975  18.156 -0.1267 -0.1842  0.2884
76429W        W19420  13.565  24.317   6.280 -0.0392 -0.2484  0.2377
76430W        W19421  34.304   3.417   2.396 -0.3687 -0.0813 -0.2101
76431W        W19422  10.238  31.392  16.075  0.0083 -0.2873  0.1128
76432W        W19423   7.685   1.800  23.781  0.0645 -0.0073  0.4008
76433W        W19424  14.642  17.578  23.010 -0.0146 -0.1687 -0.2626
76434W        W19425  18.570  28.948   1.753  0.1687 -0.2021  0.2679
76435W        W19426   7.648  15.133  19.144  0.1654  0.0864  0.2092
76436W        W19427   9.235  32.073  27.719  0.1175 -0.2559 -0.0233
76437W        W19428  20.778  20.431  23.505  0.1141  0.2509  0.5075
76438W        W19429   9.570  19.310  17.088 -0.0668 -0.2510  0.1624
76439W        W19430  29.126   2.064   3.413 -0.1132 -0.0131 -0.3202
76440W        W19431  34.156  23.280  26.853 -0.1493 -0.0517  0.1723
76441W        W19432  32.085  19.480  27.527  0.0505  0.0934  0.1536
76442W        W19433   6.322  33.110   4.312 -0.0180  0.0086 -0.1713
76443W        W19434  24.303  20.501  22.854 -0.2186 -0.1109  0.1725
76444W        W19435  11.042  32.929  10.154 -0.1155 -0.3231  0.0400
76445W        W19436  27.012  10.062  25.577  0.0600 -0.1839 -0.1401
76446W        W19437   7.925  16.581   1.673 -0.2029  0.0674 -0.1350
76447W        W19438  14.688  25.635  22.034  0.1258 -0.0880 -0.0235
76448W        W19439  20.250  22.968  17.470  0.0477 -0.4781  0.1430
76449W        W19440  20.514  18.421   3.618 -0.1069  0.0516  0.1806
76450W        W19441   8.805  13.974  23.969  0.4373 -0.0227 -0.0843
76451W        W19442  31.866  16.498   7.141  0.0193  0.2108 -0.0211
76452W        W19443  11.130  26.285  10.111 -0.0264 -0.1490 -0.1088
76453W        W19444   5.428  13.783  18.858  0.0178  0.2526 -0.1371
76454W        W19445  33.650   1.793  20.934  0.0401 -0.1201  0.0705
76455W        W19446   2.398  22.969  27.792 -0.1531 -0.0768 -0.0262
76456W        W19447  26.400   2.381  20.380  0.2065  0.2950 -0.3363
76457W        W19448   4.901  31.606  24.137  0.1939 -0.0954 -0.0275
76458W        W19449   8.308  14.225  22.707 -0.1381  0.0224  0.4113
76459W        W19450  16.394  28.878  21.335  0.0078  0.0512  0.1151
76460W        W19451  33.224  12.621  23.500  0.2516  0.0790 -0.0748
76461W        W19452   7.799   9.363  22.162  0.2694  0.1012  0.0164
76462W        W19453   9.265  19.119  20.200  0.2149 -0.1025  0.1669
76463W        W19454   3.455  29.443   3.636  0.0859  0.0386 -0.1803
76464W        W19455  12.798  33.664  20.398  0.1502  0.1754  0.0965
76465W        W19456  12.502  31.013  16.058  0.2165 -0.1315 -0.0658
76466W        W19457   8.904  28.377  23.130  0.1775 -0.1861  0.1090
76467W        W19458  29.110  20.121  28.077  0.0715 -0.0608 -0.0779
76468W        W19459   8.504  14.932   3.529 -0.2332 -0.5939 -0.1170
76469W        W19460  12.849   7.207  17.515 -0.0802  0.1272 -0.0475
76470W        W19461  16.437   9.473  15.192 -0.0682 -0.1720 -0.0422
76471W        W19462  32.628  30.337   2.613  0.0995 -0.0192  0.0725
76472W        W19463  22.441  13.350   4.974  0.0819 -0.0178  0.1863
76473W        W19464  20.253  21.374  14.718 -0.0357  0.3298 -0.1518
76474W        W19465  34.246  26.508  25.513  0.1004  0.3431 -0.0188
76475W        W19466   6.438  15.849   8.600 -0.1434 -0.1757  0.0520
76476W        W19467   6.791  16.063  27.081 -0.1232  0.0070 -0.2650
76477W        W19468   4.212  18.397   2.258 -0.0429  0.0825 -0.1131
76478W        W19469   2.932   1.351  24.956 -0.0969  0.1939  0.0485
76479W        W19470  19.396  13.624   0.435  0.0063  0.1490  0.1496
76480W        W19471  19.390  22.715  26.511  0.0146 -0.1299 -0.0033
76481W        W19472  26.803  31.393   7.426 -0.0588 -0.0622 -0.3328
76482W        W19473  34.235   0.918   3.319 -0.0474  0.1411 -0.1795
76483W        W19474  18.497  15.617  25.291  0.2015  0.0430  0.2490
76484W        W19475   8.439  15.696  28.624  0.0723 -0.1413 -0.2188
76485W        W19476   8.571  19.480   8.287  0.2028 -0.0124 -0.0643
76486W        W19477  13.509   3.945   6.217  0.3053  0.0264  0.2571
76487W        W19478  11.593  29.355   8.991 -0.0569 -0.1999  0.1487
76488W        W19479  29.217  22.232  22.019 -0.1203  0.2138  0.2104
76489W        W19480  19.114  23.507  20.052  0.0702  0.1149  0.0718
76490W        W19481  12.163  13.668   2.683  0.0239 -0.1185 -0.0016
76491W        W19482  28.853  31.572  19.367  0.0727  0.0284  0.3438
76492W        W19483   9.722  15.974   1.558  0.1687 -0.2453 -0.2480
76493W        W19484  28.296  17.566   4.266  0.0816  0.1241 -0.3391
76494W        W19485   3.988  27.004  25.394  0.1711  0.1162 -0.0240
76495W        W19486  29.563  23.489   2.387 -0.3640  0.1820  0.2023
76496W        W19487  10.037  25.313  27.916 -0.0966  0.1116  0.3679
76497W        W19488  17.672  26.935   0.543 -0.0971  0.2619  0.2747
76498W        W19489  11.439  25.112  24.592  0.0155 -0.1354 -0.1163
76499W        W19490   3.971  19.647  19.611 -0.2061  0.0503 -0.0880
76500W        W19491  20.540  29.713  17.835 -0.2443 -0.1554 -0.2051
76501W        W19492  23.507   8.816   2.188 -0.0527  0.1655  0.3280
76502W        W19493   6.888  25.699   2.086  0.1653  0.3383  0.0334
76503W        W19494  34.135  26.176  27.390  0.2656 -0.3736  0.1550
76504W        W19495  31.573  17.064   9.687 -0.2346 -0.2181  0.0117
76505W        W19496  23.019  25.197  24.728  0.0836 -0.0009 -0.2308
76506W        W19497  23.709  21.776   4.437 -0.0073  0.3172 -0.1316
76507W        W19498  10.828  17.233   1.369 -0.1064  0.1410 -0.0766
76508W        W19499  26.131  13.275  25.417 -0.0878 -0.1956  0.1602
76509W        W19500   8.639  20.294  16.883 -0.0918 -0.0014 -0.0825
76510W        W19501   8.908  21.866   7.921 -0.0828  0.2827 -0.2068
76511W        W19502  21.667  20.054  25.950 -0.1227 -0.1292 -0.1383
76512W        W19503  19.128  31.077  27.800 -0.0719  0.2865  0.2409
76513W        W19504  14.270  12.682   5.307 -0.0213  0.4048  0.3491
76514W        W19505  13.305  14.729  18.282 -0.1001 -0.1786  0.0437
76515W        W19506  11.497  27.000  19.924 -0.1044  0.1488  0.1709
76516W        W19507   7.012  22.357   1.806 -0.0463 -0.1067  0.1880
76517W        W19508   7.246  24.698   6.081  0.0669 -0.0160 -0.0574
76518W        W19509   9.031   9.010  20.015 -0.1795  0.1397  0.0594
76519W        W19510   2.689  18.398  19.796  0.1900 -0.1446 -0.1203
76520W        W19511  10.941  22.769  24.669 -0.0667  0.0855 -0.0562
76521W        W19512  25.408  26.836   5.164 -0.3968  0.4075  0.1261
76522W        W19513   6.583   7.851  10.410 -0.1688 -0.3012  0.0603
76523W        W19514  18.152  24.676   4.295 -0.2024 -0.1479  0.0574
76524W        W19515   0.448  32.961   4.749  0.2396 -0.2385 -0.1388
76525W        W19516  25.192  14.739  28.212  0.1837  0.3690 -0.0149
76526W        W19517  24.363   8.688   6.791 -0.0366  0.1158  0.2322
76527W        W19518  13.111   2.629   4.297  0.0202  0.0151  0.0087
76528W        W19519  11.436  14.451  15.206 -0.2156 -0.0371  0.1973
76529W        W19520  19.028  22.824  27.213 -0.1854 -0.0221 -0.0121
76530W        W19521  14.913   5.340  17.296  0.3757 -0.0351 -0.1769
76531W        W19522   6.456  30.226  23.275 -0.1597 -0.0436  0.1362
76532W        W19523  19.964   0.146  15.869  0.1925  0.1020 -0.0591
76533W        W19524  27.420  19.882  25.867 -0.0073  0.1874 -0.0150
76534W        W19525  29.427  10.714   7.106  0.3748  0.1323 -0.0640
76535W        W19526  32.153  24.847   0.127 -0.2417 -0.0641  0.2701
76536W        W19527   9.664   4.319   2.911  0.0418  0.1210 -0.4571
76537W        W19528  19.255  23.998  18.153 -0.1294  0.1264 -0.0501
76538W        W19529   8.908  20.385   3.634 -0.1424 -0.1152 -0.1138
76539W        W19530  13.690   1.474   3.592 -0.0942  0.1229 -0.1699
76540W        W19531  14.185  25.552   6.117 -0.0287 -0.1579 -0.0663
76541W        W19532  23.456   9.353   8.642 -0.1756 -0.0044  0.0134
76542W        W19533  26.861  32.536  24.708  0.0345 -0.0658 -0.2288
76543W        W19534  23.917   6.874  19.757  0.0787 -0.1700 -0.3208
76544W        W19535  11.630  11.445   0.881  0.1957  0.1302 -0.1868
76545W        W19536  14.097  11.929   8.315  0.1199  0.0552 -0.1457
76546W        W19537   5.710   3.167   7.719  0.0332 -0.4577 -0.0269
76547W        W19538  14.402  17.566  25.972  0.0476  0.1904  0.1461
76548W        W19539   4.885  14.960   9.936 -0.2473 -0.2123 -0.2940
76549W        W19540  14.968  19.762  23.256 -0.0782  0.0400  0.3178
76550W        W19541   1.752  21.200  23.780  0.3773 -0.5152  0.0345
76551W        W19542  15.402  25.383   1.057  0.0337  0.1549 -0.0272
76552W        W19543   7.981   9.954   6.258 -0.3219  0.0842 -0.0141
76553W        W19544  10.329   9.826  10.290  0.0786 -0.0533 -0.0318
76554W        W19545   0.176  21.492  24.491 -0.1031 -0.1445  0.1908
76555W        W19546   0.836  13.844   3.639 -0.2667  0.3279  0.2398
76556W        W19547  11.458  16.870  16.908  0.1635 -0.2932  0.1823
76557W        W19548  20.287  11.397   0.859  0.0320  0.3160 -0.0639
76558W        W19549  22.348   5.398   7.880 -0.3978  0.4882 -0.0655
76559W        W19550  33.086  16.019  24.428  0.2613 -0.0285 -0.0159
76560W        W19551  13.119  24.697  27.890  0.0580 -0.1083 -0.2122
76561W        W19552  34.452  23.606   9.288  0.0496 -0.2607  0.0813
76562W        W19553  20.530  29.724   1.265  0.0416 -0.1826 -0.2130
76563W        W19554  17.499  20.191   1.955 -0.2287  0.1088  0.0797
76564W        W19555  21.749  13.687  22.373 -0.0020 -0.2261 -0.2709
76565W        W19556  10.094  25.010  13.897  0.2081  0.2649 -0.0165
76566W        W19557   7.523  22.474  24.238 -0.1525 -0.6027 -0.0084
76567W        W19558  20.231  27.321  24.509  0.1037 -0.0456 -0.0237
76568W        W19559  12.641  25.009  15.048 -0.2243 -0.4000  0.2087
76569W        W19560   8.062  19.767  16.403 -0.0915 -0.2283 -0.3046
76570W        W19561   2.964  16.480   1.712 -0.1056  0.0265 -0.0928
76571W        W19562  18.126  25.786   5.623  0.0134 -0.2949  0.1872
76572W        W19563  17.146  33.663  19.224  0.1914 -0.3405  0.0588
76573W        W19564   5.669  22.207  27.784 -0.3308 -0.0864  0.1374
76574W        W19565   3.083  25.610   3.191 -0.0957  0.0812  0.1938
76575W        W19566  34.454  16.520  22.743  0.0777  0.1579 -0.0198
76576W        W19567  10.606  17.691  13.861 -0.0573 -0.0688 -0.0379
76577W        W19568  14.070  23.619   2.108  0.1087  0.0131  0.0443
76578W        W19569  15.595   7.597   9.380  0.1332  0.2334  0.0891
76579W        W19570   9.597   4.212  23.841  0.1376  0.0853 -0.1686
76580W        W19571  16.866  25.082   2.539 -0.2095 -0.0667  0.1991
76581W        W19572  28.679  18.356   9.544 -0.1564  0.0681  0.0022
76582W        W19573   3.695  14.829  10.163 -0.1476  0.0266 -0.0002
76583W        W19574  27.939  33.188   0.668  0.2129 -0.0202  0.0284
76584W        W19575  18.230  12.909  14.133  0.0428 -0.0019  0.0282
76585W        W19576  14.284  25.837  18.433 -0.1412 -0.0574  0.0493
76586W        W19577   3.662  24.976   7.905 -0.0628  0.0293  0.1417
76587W        W19578  29.099  28.775   1.368 -0.0774  0.0884  0.0290
76588W        W19579  26.456  25.246   3.447  0.1565 -0.0824  0.1546
76589W        W19580  21.434  32.775  27.315  0.1059 -0.3911  0.2331
76590W        W19581   4.371   6.302  22.576 -0.0372  0.0569  0.0067
76591W        W19582   6.592  23.755  22.510  0.0506  0.0896  0.1077
76592W        W19583  16.574  26.813  21.946  0.0063  0.2401  0.1364
76593W        W19584  18.316  13.585   4.253 -0.1250 -0.1345  0.1216
76594W        W19585  23.566  23.291   4.008 -0.2123  0.0255  0.2368
76595W        W19586  19.480  22.045  25.335 -0.1052  0.0297  0.1966
76596W        W19587  24.324   5.626   4.353  0.2890 -0.3892 -0.0331
76597W        W19588  26.551  15.277   0.652 -0.0818 -0.0199 -0.2574
76598W        W19589  23.099  11.861  13.353  0.2484 -0.1663 -0.0538
76599W        W19590  31.262   3.934  22.699 -0.0435  0.1940 -0.3277
76600W        W19591  23.308  30.360  28.464  0.1237 -0.0482 -0.0385
76601W        W19592  11.158  22.407  21.477 -0.2129 -0.0038 -0.1095
76602W        W19593  15.338  26.292  21.588  0.0578  0.2473  0.3098
76603W        W19594  33.639  13.686   9.486  0.0773 -0.2724 -0.0347
76604W        W19595  24.507  30.362  24.549 -0.1605 -0.2511 -0.0563
76605W        W19596  11.527   3.052  20.047 -0.3541 -0.0068 -0.2192
76606W        W19597  13.288  15.981  23.866  0.0663  0.0122 -0.0023
76607W        W19598  27.246  13.815   6.668  0.1455  0.0529  0.0361
76608W        W19599  22.178  17.417  25.712  0.0149  0.0983 -0.3112
76609W        W19600   7.249  22.558   8.318  0.1273  0.0173 -0.0219
76610W        W19601  34.213  18.211  26.266  0.2011  0.1064  0.0294
76611W        W19602   6.608  29.310   0.399 -0.0684 -0.0800  0.3313
76612W        W19603  29.522  25.387  18.054 -0.2038  0.4367 -0.0393
76613W        W19604  24.889   0.405  19.041 -0.3433 -0.0035  0.0466
76614W        W19605   4.935  13.017  11.069  0.1038  0.1502  0.1393
76615W        W19606  18.911  11.851   7.233  0.0177  0.0571 -0.2286
76616W        W19607   5.191  23.385  18.884  0.2000 -0.2037  0.0281
76617W        W19608  13.756   3.470  16.054 -0.0233 -0.1743 -0.0817
76618W        W19609  28.086  33.926   1.628 -0.2851  0.0280  0.0243
76619W        W19610  22.590  24.857   5.123 -0.2619  0.5417 -0.2599
76620W        W19611  22.440  17.873  18.823 -0.2570  0.1212  0.0985
76621W        W19612  21.139  28.270  27.512 -0.0897  0.0824  0.1550
76622W        W19613   3.819  24.883   6.233 -0.0195 -0.0224 -0.2207
76623W        W19614   1.932  19.384   1.946  0.0873 -0.0203 -0.1740
76624W        W19615  15.578  23.526   4.508  0.0029  0.1700 -0.1557
76625W        W19616  32.966  26.012  26.863  0.2409  0.0510  0.1942
76626W        W19617  16.221  20.279  28.904  0.1323 -0.3935  0.3695
76627W        W19618  26.964  28.354  29.016  0.0217 -0.1967 -0.0642
76628W        W19619   3.178  16.505  20.941 -0.0145 -0.0174 -0.0974
76629W        W19620  12.459  22.704  20.935  0.0971  0.4007 -0.2844
76630W        W19621  16.451  25.578  27.222  0.0433 -0.0460 -0.1159
76631W        W19622  12.279  34.323   2.701 -0.0666 -0.2214  0.1009
76632W        W19623  30.847   7.006   3.862 -0.0788  0.1761 -0.1567
76633W        W19624  17.956   4.855  27.527 -0.3827 -0.0754 -0.0789
76634W        W19625  20.444  13.152   8.440 -0.3330  0.0660  0.1542
76635W        W19626  31.476  21.171  15.035  0.3235 -0.0989  0.0664
76636W        W19627  21.460   1.635  25.373  0.1678  0.1369 -0.3390
76637W        W19628  19.396   6.028  22.590 -0.1907 -0.1167  0.1741
76638W        W19629  10.243   6.234   1.997 -0.1003  0.0309  0.0812
76639W        W19630  10.418  17.213  17.829  0.2075  0.1962 -0.2035
76640W        W19631   3.675   9.592  19.432  0.1885 -0.1486 -0.1985
76641W        W19632  21.069  11.250   6.477 -0.2048  0.0303 -0.0427
76642W        W19633  10.110  27.622  27.936 -0.1972 -0.2176  0.1226
76643W        W19634  30.903   8.322   0.337  0.2265  0.0697 -0.1796
76644W        W19635  17.865  27.940  14.757 -0.3201  0.1507 -0.2355
76645W        W19636  25.798  31.119  18.678 -0.1690  0.0872 -0.1660
76646W        W19637  26.875  25.622  22.448  0.0305 -0.0079  0.3186
76647W        W19638  23.951   9.351  26.352  0.0073 -0.0364  0.1745
76648W        W19639  19.791  22.956  23.495  0.1578 -0.0473 -0.1851
76649W        W19640  22.279  14.920  21.854  0.1517 -0.3542  0.1283
76650W        W19641  15.678  31.599  13.890  0.1820 -0.1121 -0.1487
76651W        W19642  17.487  12.254   7.672  0.0925  0.1252 -0.0726
76652W        W19643  15.916   3.532   9.540  0.3547 -0.0563  0.2111
76653W        W19644  25.944  26.124   7.673 -0.3942  0.1234  0.2431
76654W        W19645   3.121   7.315   5.004 -0.0763 -0.1881  0.3164
76655W        W19646  10.364  13.530   1.475  0.2317 -0.1012  0.2982
76656W        W19647  10.318   3.279   9.520 -0.1516 -0.2359  0.0903
76657W        W19648   9.142   8.109   1.909  0.2396 -0.0107 -0.1025
76658W        W19649  18.627  27.670  27.653  0.0797 -0.0289  0.0050
76659W        W19650   9.481  13.915   3.671  0.2228  0.0098  0.1125
76660W        W19651  27.371  10.414   7.491 -0.1029  0.0725  0.1976
76661W        W19652  12.525   9.037  25.021  0.1023  0.0801  0.0985
76662W        W19653  15.486  15.756  24.823 -0.0897  0.0676 -0.0425
76663W        W19654   7.008  24.998   3.692  0.2286 -0.1863 -0.0828
76664W        W19655  17.315   0.492  22.449  0.1281  0.0256  0.1790
76665W        W19656   7.646  22.104  10.076 -0.1217  0.1689 -0.1893
76666W        W19657   9.849  24.797  24.196 -0.1291  0.1787 -0.1097
76667W        W19658  10.364  13.154   1.131 -0.1826 -0.0343 -0.2701
76668W        W19659  33.625  31.986  14.412  0.0463 -0.0115 -0.0758
76669W        W19660   8.789   8.850   5.412 -0.3536  0.3553  0.1819
76670W        W19661   6.463  22.686   4.374  0.0207  0.3177  0.0470
76671W        W19662  22.063  25.189  28.896 -0.0959  0.0774  0.3010
76672W        W19663  12.516  22.112  18.026  0.1852  0.0614  0.3231
76673W        W19664  22.677   7.729   5.355 -0.4372  0.0594 -0.0002
76674W        W19665  17.001  25.816  27.601  0.3399 -0.5517 -0.2226
76675W        W19666   9.362  22.245   6.139  0.1981  0.1009 -0.1149
76676W        W19667  19.337  18.229  25.066  0.2044 -0.0671 -0.0859
76677W        W19668   5.621  18.461   0.871  0.1317 -0.1871  0.2010
76678W        W19669  33.559  25.864  18.973  0.1707 -0.2499 -0.2040
76679W        W19670  20.333   5.868   7.525 -0.1963 -0.3921  0.0809
76680W        W19671   7.766  27.900  20.537  0.1086 -0.0429  0.0572
76681W        W19672  24.153  20.870   8.571 -0.1871 -0.2362 -0.1620
76682W        W19673   4.479   8.499  22.822 -0.2798  0.2386 -0.1895
76683W        W19674  31.569  19.193   1.518 -0.0654 -0.4825 -0.2723
76684W        W19675  10.447  27.215  22.577  0.1432  0.0432  0.1617
76685W        W19676  14.770  19.716   1.636  0.0175 -0.1714 -0.2685
76686W        W19677   0.039  25.390  28.475  0.2826 -0.2018  0.0822
76687W        W19678   6.232   1.482  25.084  0.3339  0.0850  0.0607
76688W        W19679  32.190  17.336   9.724 -0.0707  0.2236 -0.1674
76689W        W19680  22.244  26.195  22.302  0.2086  0.1147  0.0205
76690W        W19681  24.463  16.992  10.129  0.2692 -0.2194 -0.0078
76691W        W19682  21.166  28.065   5.214  0.0507  0.3449  0.1249
76692W        W19683   6.068  22.503   2.747 -0.1001  0.0212 -0.0982
76693W        W19684   5.987  15.772   7.720 -0.1517 -0.1019  0.1393
76694W        W19685  19.572  12.563  22.713 -0.0092 -0.1207  0.1096
76695W        W19686  15.944  27.830  19.276 -0.0083 -0.1034 -0.2337
76696W        W19687  11.866  26.584  20.764  0.0345  0.0053 -0.0520
76697W        W19688  33.398  16.935  25.479 -0.2390  0.0698 -0.0176
76698W        W19689  16.195   8.959   2.325 -0.2654  0.0941 -0.2885
76699W        W19690  23.545   0.280  26.708 -0.1835 -0.0131  0.0314
76700W        W19691  12.183  18.495  16.789  0.0547 -0.2804 -0.0362
76701W        W19692   9.046  13.116   5.504 -0.1062  0.0492 -0.0465
76702W        W19693  10.000  17.182   6.935  0.1577 -0.0423  0.1001
76703W        W19694   9.604  12.613   0.692  0.0309 -0.0611 -0.0730
76704W        W19695  22.245  27.354  14.141  0.1628  0.0562  0.0362
76705W        W19696  21.752   4.896  25.548 -0.1063 -0.1692 -0.1235
76706W        W19697  28.496   0.586   5.836 -0.1332  0.0280  0.0410
76707W        W19698  11.860   7.662  21.107  0.2395  0.0560  0.0094
76708W        W19699  10.455  19.694   8.349 -0.1446 -0.1659 -0.1055
76709W        W19700  17.160  28.629  19.175  0.2355 -0.0569  0.2854
76710W        W19701   7.106  17.043   8.434  0.0600 -0.2864  0.0544
76711W        W19702   1.550  23.497   1.425  0.0981  0.2901  0.3348
76712W        W19703  12.270  25.501   2.040  0.0924  0.1585 -0.2351
76713W        W19704  25.748   9.138  29.201 -0.0490 -0.0315  0.2795
76714W        W19705  34.233  24.004   0.089 -0.1223  0.0903  0.4194
76715W        W19706   0.482  19.099  20.543 -0.1103  0.1629  0.0476
76716W        W19707  22.182  27.084  20.672  0.3962 -0.0505 -0.4382
76717W        W19708  21.400  34.543   0.363 -0.3228 -0.3668 -0.0467
76718W        W19709  22.858   9.156  14.784  0.0383 -0.2567  0.0625
76719W        W19710  17.076  16.520  25.197  0.3136  0.0652 -0.0271
76720W        W19711   1.587  17.465   7.089  0.1213  0.1903 -0.0551
76721W        W19712  13.498  11.473   5.695 -0.0445 -0.2548 -0.1473
76722W        W19713  15.075  21.858  14.021  0.1047 -0.2413  0.0371
76723W        W19714  25.538  16.522  24.669 -0.0197 -0.1067  0.0175
76724W        W19715  12.746  16.541   8.245  0.0863 -0.0345 -0.0892
76725W        W19716  17.272  16.787   1.309 -0.0007  0.0855 -0.3402
76726W        W19717  11.010  27.848  22.963 -0.4204 -0.0408  0.1282
76727W        W19718   9.591  31.634  25.083 -0.0057  0.3036  0.0543
76728W        W19719   5.473  28.803  19.315 -0.1507 -0.3219 -0.0970
76729W        W19720  20.606  23.448   6.028 -0.4224 -0.2268 -0.0879
76730W        W19721  17.995  17.274  21.787  0.3513 -0.3411  0.0293
76731W        W19722   8.416  22.216   0.129 -0.1127  0.0116  0.1594
76732W        W19723   2.775  12.409  24.666  0.1087  0.2199 -0.0527
76733W        W19724  31.979  14.348   2.870  0.0009 -0.0086 -0.1422
76734W        W19725  20.598  11.900   5.612 -0.0332 -0.2428  0.1619
76735W        W19726   0.172  19.227   2.244 -0.2270  0.3754  0.1002
76736W        W19727  24.676  31.350   6.205 -0.1817  0.0561 -0.2029
76737W        W19728  10.031  14.471   1.630 -0.0269 -0.0319 -0.0883
76738W        W19729   5.283   8.596  28.226  0.1379  0.3162  0.0955
76739W        W19730  13.538  14.035   7.391  0.1721 -0.0553  0.1964
76740W        W19731   2.350   2.467   2.234 -0.0724  0.0189 -0.0816
76741W        W19732   3.801  23.686   0.677  0.0948 -0.2699  0.0176
76742W        W19733   3.490  29.814   3.945 -0.3078  0.0092 -0.0277
76743W        W19734  16.240  26.530   5.141  0.1797  0.1606 -0.2009
76744W        W19735  11.903  28.624  24.869  0.0284 -0.1571 -0.0975
76745W        W19736  10.343  29.129   4.128 -0.0328 -0.0237  0.2830
76746W        W19737   9.775  31.070  20.809  0.2277 -0.0526  0.0374
76747W        W19738  13.684   8.433  24.774 -0.0068 -0.1442  0.1708
76748W        W19739   1.092  25.385   2.425 -0.1338 -0.0026 -0.1212
76749W        W19740   5.585  11.959  10.344 -0.2110  0.0110 -0.0447
76750W        W19741  29.032   3.617  20.405 -0.1331 -0.2416  0.4346
76751W        W19742  30.321  15.757  29.070 -0.2648  0.1720 -0.2036
76752W        W19743  16.236  21.904  21.271 -0.0718 -0.0589  0.0919
76753W        W19744  26.865   7.717  19.298 -0.3427  0.1216  0.0100
76754W        W19745   8.150   8.941  16.632 -0.0468 -0.4413  0.2252
76755W        W19746  14.327  28.651  24.457  0.1288  0.2282 -0.0422
76756W        W19747  20.168  14.250   1.282  0.1882  0.2322  0.3257
76757W        W19748   5.802  25.832   3.464  0.0646 -0.0282 -0.0573
76758W        W19749   4.037  21.583   5.857 -0.2987 -0.2892  0.1736
76759W        W19750   4.649  29.023  21.708  0.1103  0.0946 -0.1048
76760W        W19751  13.877  29.379  27.773 -0.1627 -0.2194 -0.0670
76761W        W19752   3.490  34.426  24.657 -0.0416 -0.3786 -0.2706
76762W        W19753   0.159  26.553   3.083 -0.1025 -0.0932 -0.1154
76763W        W19754  26.875  28.428   7.418 -0.0420  0.1552 -0.1521
76764W        W19755  18.474   9.522   3.143  0.0366  0.0621  0.1010
76765W        W19756   7.336  14.857   3.976 -0.1567 -0.1852  0.2051
76766W        W19757  34.271  25.407  28.275  0.4465  0.2080  0.3803
76767W        W19758  30.013  21.033   0.748  0.1609 -0.0269 -0.1684
76768W        W19759   6.938  31.465  14.872  0.1450 -0.1761  0.0157
76769W        W19760   2.611  20.687  24.093 -0.1985 -0.1545 -0.3791
76770W        W19761  16.931  15.706  28.574 -0.0148 -0.0224 -0.0982
76771W        W19762  18.004  12.580   2.494  0.1220  0.0045  0.0661
76772W        W19763   4.988  20.221  28.722 -0.1903  0.0003 -0.0370
76773W        W19764  19.231  28.486  24.651  0.2760 -0.0439  0.0382
76774W        W19765  24.176  28.972   3.597 -0.2266 -0.0796  0.2479
76775W        W19766   8.183  25.181   8.546 -0.0081 -0.0023 -0.0359
76776W        W19767  15.475   1.686   5.485  0.4429 -0.0783 -0.0321
76777W        W19768   9.246   3.230  23.742  0.1145 -0.0574 -0.2618
76778W        W19769   0.434  13.454  25.805 -0.1879  0.1566  0.0444
76779W        W19770  15.904  20.607  13.936 -0.1258  0.0943  0.2466
76780W        W19771   7.397  25.270   0.832 -0.0348  0.0335 -0.0057
76781W        W19772  15.032   9.912  28.544 -0.0947  0.0935 -0.0756
76782W        W19773   1.620  20.237   1.466 -0.2609  0.2937  0.0205
76783W        W19774  14.956  13.827   0.264 -0.2044  0.4723  0.3133
76784W        W19775  16.668  21.466  28.240  0.0009 -0.0662  0.0670
76785W        W19776  23.886  21.709   1.965 -0.0217  0.1040 -0.3096
76786W        W19777   1.679   2.612  28.724 -0.1067 -0.1491 -0.0205
76787W        W19778  33.627  22.006   3.556  0.0315  0.3764  0.0030
76788W        W19779  34.209  21.183   0.327  0.0351 -0.3438  0.0464
76789W        W19780   6.225  22.127   9.332 -0.0051 -0.1898 -0.2028
76790W        W19781  20.849   6.973   5.086 -0.1653  0.1027 -0.1939
76791W        W19782   9.906  13.840   4.094  0.1564  0.0862  0.1066
76792W        W19783  23.753   2.001   5.451  0.0907  0.0808 -0.1070
76793W        W19784   5.407  24.499   1.248 -0.0447  0.0905 -0.0861
76794W        W19785  18.387  27.905  20.724 -0.3315 -0.1509 -0.1292
76795W        W19786  21.691  21.888   7.962  0.0393  0.2432 -0.3505
76796W        W19787  34.456  10.811  25.013 -0.0621  0.2177  0.1224
76797W        W19788  15.247  25.674   8.045 -0.3091 -0.1601 -0.0475
76798W        W19789  25.681  12.114  15.896 -0.2157  0.2084  0.0682
76799W        W19790  21.813   2.735  26.442  0.3321  0.3662  0.0914
76800W        W19791   7.170  31.865   2.071  0.1302  0.2973 -0.0434
76801W        W19792  12.755  23.459   6.601 -0.0544 -0.0123  0.2092
76802W        W19793  25.837  12.988   5.390 -0.0529 -0.2161  0.1564
76803W        W19794  21.479  21.018  21.534 -0.1189  0.0669 -0.1126
76804W        W19795  22.565  28.385   2.003 -0.0607 -0.1232 -0.3159
76805W        W19796  15.343  24.500  22.831  0.1465 -0.1937 -0.0647
76806W        W19797  10.104   0.144  18.139 -0.0920 -0.0623  0.0062
76807W        W19798  10.106  26.554   3.961 -0.1570  0.2410  0.6019
76808W        W19799  32.972  31.803  29.238 -0.1420  0.0161  0.2002
76809W        W19800  14.958  12.672   8.012 -0.0091 -0.0619  0.0619
76810W        W19801   4.542  18.396   5.252 -0.0925  0.1992  0.1450
76811W        W19802  23.091   9.862  16.897  0.1375 -0.0238  0.5074
76812W        W19803  11.032  16.000  14.543  0.1468  0.2373  0.2708
76813W        W19804   8.670  28.504   9.160  0.3177 -0.2182 -0.3975
76814W        W19805  20.767  23.201  28.161 -0.1223  0.2828 -0.0787
76815W        W19806  34.527  33.026   7.275 -0.0092  0.1877 -0.0453
76816W        W19807  32.739  29.475  21.943  0.0717  0.1162 -0.0478
76817W        W19808  18.694  30.261  28.403 -0.2212 -0.2753 -0.2378
76818W        W19809   2.692  12.041  24.343  0.1908  0.3905  0.0627
76819W        W19810  15.138  30.148   3.940 -0.0825 -0.1376  0.2523
76820W        W19811  13.456  29.433   1.607 -0.1938 -0.1371  0.0570
76821W        W19812  27.333  10.539  28.131 -0.0191 -0.1283 -0.2724
76822W        W19813  26.063  18.313  23.079 -0.0082  0.0207  0.0567
76823W        W19814  28.947  26.193  17.032 -0.2154 -0.0797 -0.0493
76824W        W19815  15.519   1.593   3.833  0.2280  0.1061  0.0858
76825W        W19816  26.897   6.239  27.013  0.0019 -0.2970  0.2352
76826W        W19817  12.975  10.171  20.006 -0.0429  0.2760 -0.0628
76827W        W19818   4.757  23.927   2.939  0.0338 -0.0021  0.1632
76828W        W19819  10.448   9.068  26.304 -0.1353 -0.1413  0.0703
76829W        W19820  22.408  27.410  22.712  0.1328  0.1356  0.5129
76830W        W19821  14.661   1.598  22.971 -0.3354 -0.0589 -0.2230
76831W        W19822  25.284  18.794   7.591 -0.1886  0.2589  0.4061
76832W        W19823  20.681  29.310  28.525  0.0570  0.1522 -0.1210
76833W        W19824  29.206  21.538  25.835  0.2235  0.1665  0.2900
76834W        W19825  33.124  14.593  16.079 -0.3023  0.0013  0.2553
76835W        W19826  13.790  19.031   7.456  0.1624 -0.1822 -0.1014
76836W        W19827  16.703  24.565  19.664  0.0122 -0.1935  0.0531
76837W        W19828   9.210  13.339   3.144  0.2804  0.2103  0.0298
76838W        W19829  26.395  22.631   7.143  0.1360 -0.2070  0.2115
76839W        W19830   4.402  19.410  21.672 -0.1602 -0.1388  0.1410
76840W        W19831  11.394  23.658   7.227  0.0041  0.0932  0.1054
76841W        W19832  25.186  21.865  21.326 -0.2398  0.3763 -0.2448
76842W        W19833  15.251   6.288  25.954  0.1429 -0.3447  0.1812
76843W        W19834  13.344   2.462  16.700 -0.0873  0.1081 -0.2027
76844W        W19835  11.030  20.053  19.494 -0.1029  0.2271  0.0984
76845W        W19836  29.416  24.912   4.956  0.0213  0.0358  0.0910
76846W        W19837  25.187  15.731   6.859  0.0206  0.1819  0.1512
76847W        W19838  14.897  12.809   1.818  0.0079 -0.1646  0.1620
76848W        W19839  20.661  29.440  23.216  0.0185  0.0042 -0.0368
76849W        W19840  18.136  20.829  28.326 -0.0656  0.1838 -0.1760
76850W        W19841   7.434  21.330  15.737 -0.1032 -0.0776  0.1712
76851W        W19842  16.179  27.077  21.119  0.0173 -0.1133 -0.1567
76852W        W19843  29.026  19.036   9.135 -0.0990 -0.0381 -0.0860
76853W        W19844  22.507  17.251   8.656  0.0695 -0.1036  0.0321
76854W        W19845   5.237  19.975   2.812 -0.1586 -0.1535  0.0098
76855W        W19846  26.264  31.827  29.044 -0.1212  0.0520 -0.1493
76856W        W19847  16.461  17.010   3.350  0.2251 -0.2079  0.1522
76857W        W19848  20.099  24.789  25.062 -0.2047  0.0270 -0.0820
76858W        W19849  18.729  19.589  24.297  0.0669 -0.1609  0.2435
76859W        W19850   4.881  16.730   2.379 -0.3574  0.4530  0.0582
76860W        W19851   9.206  32.776   9.689  0.1463  0.1385  0.1570
76861W        W19852  20.251  18.760   7.370  0.0260 -0.1393  0.1592
76862W        W19853  11.621  12.312   8.037 -0.1392 -0.3210 -0.3129
76863W        W19854  11.301   8.555  28.709 -0.2952  0.3038 -0.2195
76864W        W19855  13.690   9.097   9.119  0.0158  0.2022  0.0044
76865W        W19856  22.087  28.349  15.708 -0.2416 -0.4074 -0.0295
76866W        W19857  15.379  20.019   7.828 -0.0170 -0.0166 -0.1295
76867W        W19858  10.448  18.889  16.290  0.3655 -0.1977 -0.1442
76868W        W19859   9.391  11.010   5.736 -0.0084 -0.1205  0.2693
76869W        W19860  12.654  33.917  23.880 -0.0147 -0.0988  0.0333
76870W        W19861   5.805  17.079  16.719  0.1712 -0.1285 -0.1237
76871W        W19862  22.316  26.204   4.686 -0.2063  0.1886 -0.1478
76872W        W19863  16.229  20.338   2.088 -0.0170 -0.0734 -0.0176
76873W        W19864  27.322  13.991   7.538  0.0984 -0.1568 -0.0825
76874W        W19865  32.742  33.917   4.983  0.2114 -0.0139 -0.0139
76875W        W19866   6.421   3.048  26.999 -0.0092 -0.0299 -0.2285
76876W        W19867   9.192  21.641  24.758 -0.2252  0.0744 -0.2404
76877W        W19868  16.427  27.535  16.016  0.1849  0.1963  0.1740
76878W        W19869   4.215  22.733   2.927  0.0183  0.2748  0.2562
76879W        W19870  11.573  24.629  24.545 -0.2588 -0.2267  0.1065
76880W        W19871   9.025  20.301  26.848 -0.1828  0.0627  0.1934
76881W        W19872   8.425   9.142  20.168 -0.1577 -0.0592  0.0762
76882W        W19873  30.649  26.940  25.493  0.1127  0.0426  0.0655
76883W        W19874  32.540  28.791  13.353 -0.2230 -0.1356 -0.3474
76884W        W19875  18.155  19.986  25.740  0.4667 -0.1974  0.2242
76885W        W19876   9.705   2.110   6.398  0.1218 -0.0079  0.2947
76886W        W19877   8.251  15.056  26.458  0.0597  0.0380 -0.1240
76887W        W19878  13.030  20.756  19.383  0.0235  0.2329 -0.0319
76888W        W19879  22.188  32.970   2.312  0.2448  0.1254 -0.1399
76889W        W19880  13.978  18.903   3.516 -0.0065  0.1970 -0.0463
76890W        W19881  28.397  28.436  23.081  0.3620  0.0635 -0.2647
76891W        W19882  23.769  34.426   4.052  0.0934 -0.0385 -0.1459
76892W        W19883   9.923  21.122  20.803  0.2078  0.0633  0.0305
76893W        W19884  20.341  14.915  26.100  0.1972 -0.2811 -0.0276
76894W        W19885  11.750   7.989   0.658 -0.2962 -0.3081  0.0101
76895W        W19886   7.233  21.623  28.496 -0.2984  0.1351 -0.1341
76896W        W19887  11.267  30.919   9.896  0.0865  0.1103  0.0262
76897W        W19888   8.992  31.289  10.199  0.4001 -0.0980  0.0369
76898W        W19889   5.489  27.945  18.941  0.0659 -0.2086 -0.2389
76899W        W19890   4.933   8.393  24.246  0.1406 -0.0118  0.1950
76900W        W19891  21.861   5.068  26.369 -0.1671 -0.1095  0.4153
76901W        W19892  13.577   6.827  17.157 -0.1924  0.0977 -0.0251
76902W        W19893  31.957   5.981   7.919 -0.0601 -0.1508  0.0091
76903W        W19894   6.706   3.608  18.751  0.2926  0.4905 -0.0696
76904W        W19895  14.522  19.435  26.242  0.0563 -0.2630 -0.3765
76905W        W19896  10.672  10.668  25.417 -0.1364  0.1064 -0.1759
76906W        W19897  25.056  24.826  26.871  0.0583 -0.3249  0.0024
76907W        W19898  17.288  14.055   7.195 -0.0696 -0.2131 -0.2747
76908W        W19899  23.211  27.790  18.358 -0.0039 -0.2647 -0.0493
76909W        W19900   1.189  24.635  17.332 -0.1692 -0.2396  0.0965
76910W        W19901  16.195  29.348  19.899  0.0440  0.0363  0.1030
76911W        W19902  28.874  34.163  15.273  0.0896 -0.3266  0.1085
76912W        W19903  24.985  31.357  15.818  0.0494  0.2868  0.1634
76913W        W19904  24.961  32.541  23.885 -0.5348  0.1539  0.1483
76914W        W19905  34.177  27.432  18.738  0.1947 -0.0453  0.0063
76915W        W19906  14.146   3.909  25.630 -0.0018 -0.1721 -0.1417
76916W        W19907   2.218  19.825  21.443 -0.3179 -0.0123 -0.0241
76917W        W19908  13.922  33.665   4.020  0.1284 -0.2709 -0.1470
76918W        W19909  21.775  22.761  16.118  0.0532  0.2174  0.0427
76919W        W19910  28.396  34.554  18.428  0.1405  0.1243  0.0601
76920W        W19911  17.515  11.123  27.871 -0.2932  0.2319 -0.1984
76921W        W19912  10.795  21.689  14.546 -0.1014  0.1390 -0.0256
76922W        W19913  19.382  33.824  18.251  0.0844 -0.3065  0.0788
76923W        W19914   4.768   3.328  17.732 -0.4729 -0.2685 -0.1831
76924W        W19915   2.057  19.585  16.211 -0.0453  0.1508  0.2670
76925W        W19916   6.458  19.347  22.713 -0.1037 -0.0203 -0.1268
76926W        W19917  16.641  24.233  25.500 -0.0345  0.2290  0.0392
76927W        W19918   7.633  33.172  24.591 -0.0192  0.1725  0.2805
76928W        W19919   2.656  23.832  20.940  0.1519  0.1980 -0.0185
76929W        W19920   9.352  33.805  17.488  0.0257  0.1733 -0.0690
76930W        W19921  29.048  19.145  16.728 -0.1605  0.0992 -0.1686
76931W        W19922  29.660  22.992  28.685 -0.0710  0.1837 -0.3767
76932W        W19923   1.906   7.152  17.569 -0.1317 -0.1247  0.3665
76933W        W19924   4.040  25.700  15.118  0.3034  0.2101  0.1785
76934W        W19925  10.440  26.023  22.534 -0.2957 -0.0413  0.0584
76935W        W19926  14.150  26.302  26.260  0.0070  0.3595 -0.1494
76936W        W19927   7.840  30.693  21.088 -0.1265  0.0069  0.2106
76937W        W19928  11.551  14.031  28.507 -0.0109  0.2146  0.1380
76938W        W19929   1.626  24.776  20.021  0.2560 -0.1547 -0.0058
76939W        W19930  11.414  19.240  22.599 -0.2434  0.1313  0.2843
76940W        W19931   4.219   8.917  18.248  0.0670 -0.0346 -0.1839
76941W        W19932   7.208   6.959  22.682 -0.0653  0.0045 -0.1712
76942W        W19933   9.060  33.133  18.309 -0.0637 -0.1073  0.0728
76943W        W19934  24.111  26.800  17.444 -0.0798 -0.0135 -0.1220
76944W        W19935  16.433  26.862  19.998  0.1635  0.1375 -0.0516
76945W        W19936  20.360  32.433   2.633 -0.1254  0.1156  0.1876
76946W        W19937  25.239   3.492  28.873  0.2102 -0.1651 -0.0047
76947W        W19938  16.604   0.665  25.054 -0.1322  0.0707 -0.0534
76948W        W19939  28.678   9.331   2.847  0.2926 -0.1875 -0.0332
76949W        W19940   8.627  11.894  18.186 -0.1514 -0.1079 -0.2350
76950W        W19941  13.086  11.565  15.017  0.1736 -0.2519  0.3207
76951W        W19942   3.052  27.138  25.450 -0.0394 -0.0004  0.0400
76952W        W19943  11.416  30.280  16.083 -0.2022 -0.1151 -0.1607
76953W        W19944  32.202   3.677  22.739 -0.0926 -0.0204  0.0412
76954W        W19945  23.049  29.321  15.610 -0.3952  0.2954  0.1797
76955W        W19946  20.111  30.526  18.138  0.0495 -0.0652 -0.4513
76956W        W19947  16.542  14.010  27.053 -0.1452  0.2256 -0.2174
76957W        W19948   0.321  33.950   6.116  0.1057  0.1993  0.0056
76958W        W19949  16.048  23.626   3.659 -0.0340  0.2196 -0.0687
76959W        W19950   7.363   5.415  16.576 -0.1798  0.3199  0.0136
76960W        W19951  18.697  34.084  26.224  0.0321  0.0416 -0.1956
76961W        W19952  27.507  28.348  25.901  0.3092 -0.3016  0.2282
76962W        W19953  33.969  27.688  15.422 -0.0359  0.0063  0.1652
76963W        W19954  32.715  32.467  19.592 -0.0950 -0.2684  0.0758
76964W        W19955  23.477  28.826  20.428 -0.1365 -0.2046  0.0614
76965W        W19956   6.163  19.547  18.619 -0.1801 -0.3015  0.1544
76966W        W19957   9.086  22.778  20.917  0.2416 -0.1579 -0.0689
76967W        W19958  28.446  28.683  18.915  0.3104 -0.2400  0.0725
76968W        W19959  34.250  18.346  23.837  0.0887 -0.2112 -0.1188
76969W        W19960   4.732  18.104  16.487 -0.2227 -0.0245 -0.1190
76970W        W19961   5.745  20.215  20.550  0.0104  0.1335 -0.0918
76971W        W19962  27.208  17.625  14.749 -0.0015  0.2512  0.1950
76972W        W19963  10.657  15.064  14.435 -0.1268 -0.3019  0.2941
76973W        W19964  21.107  16.919  13.084 -0.1155  0.1840  0.0852
76974W        W19965  12.836  13.996  14.955  0.1817 -0.0174 -0.0297
76975W        W19966  14.892   4.906  17.535  0.1896 -0.0350  0.3590
76976W        W19967   2.869  25.571  15.493  0.0105  0.0962  0.2880
76977W        W19968  26.564  28.802   7.466 -0.3338 -0.2431 -0.0056
76978W        W19969  20.018  17.666   0.427 -0.1155 -0.1205 -0.2126
76979W        W19970  21.858  33.396  16.048 -0.1856  0.1466 -0.1225
76980W        W19971  27.257  18.117  14.927  0.2299  0.0233 -0.0599
76981W        W19972  13.456  22.290  16.625  0.2758 -0.0128 -0.0383
76982W        W19973  17.281   2.151  25.601  0.2409 -0.0221  0.1219
76983W        W19974  32.076  17.839  18.429  0.2140  0.2269 -0.0364
76984W        W19975  32.445  30.477  14.567 -0.2983  0.2096  0.4884
76985W        W19976  15.624   4.962  26.324 -0.3285 -0.1952  0.2486
76986W        W19977  22.745  32.545  16.929 -0.1022  0.0715 -0.2206
76987W        W19978  19.358   8.690  21.678  0.0635 -0.0586  0.0210
76988W        W19979  15.514  33.458   7.992 -0.0789 -0.1365  0.0716
76989W        W19980  22.067  27.635  21.845  0.1763  0.2570  0.0702
76990W        W19981  13.840  33.363  23.209 -0.0456 -0.2719 -0.0718
76991W        W19982  14.956   6.513  15.884  0.3060 -0.0299 -0.0021
76992W        W19983  11.516  19.490  23.219  0.1125 -0.0148  0.0397
76993W        W19984  34.260  19.153  23.143  0.0687 -0.6134 -0.0024
76994W        W19985  15.633  23.597  19.419 -0.1970  0.2955 -0.2811
76995W        W19986  18.628   1.876  15.858 -0.1406  0.1262 -0.0585
76996W        W19987  14.007   4.907  15.453 -0.0656 -0.1125  0.1458
76997W        W19988   7.855  32.953  27.596  0.0372  0.1409 -0.5958
76998W        W19989   0.238  22.623  22.329 -0.3109 -0.1093  0.0117
76999W        W19990  18.980  18.200  24.281 -0.2716  0.1206  0.1020
77000W        W19991  24.205  26.592  22.058 -0.2856  0.0231  0.0423
77001W        W19992   9.449  22.952  15.606 -0.1055  0.0213 -0.0863
77002W        W19993  21.182  29.114  13.456  0.1106  0.1414  0.0638
77003W        W19994   3.953  24.232   1.638 -0.2120  0.2713  0.0008
77004W        W19995  16.766  22.611  19.495  0.0055 -0.0789 -0.0418
77005W        W19996   3.144  26.092  24.574 -0.0314  0.1202  0.1126
77006W        W19997  14.377  19.935  14.583  0.0469  0.1914 -0.0576
77007W        W19998  20.584  17.947  15.710  0.2847  0.4397 -0.2416
77008W        W19999  30.813  20.272  17.117  0.1030  0.0223 -0.0759
77009W        W20000   1.081  27.508  19.836  0.1437 -0.2870  0.3349
77010W        W20001  25.397  18.097  25.231  0.2220  0.1100 -0.0694
77011W        W20002  23.651  25.530  27.096 -0.4817  0.3006  0.0614
77012W        W20003  10.881  29.172  15.483 -0.2281 -0.0770 -0.1542
77013W        W20004  27.292  29.282  16.792  0.3950  0.2994 -0.0287
77014W        W20005  26.633  23.201  16.539  0.0247  0.0706 -0.0075
77015W        W20006  23.778  30.750  19.685 -0.2593  0.1521  0.0884
77016W        W20007  26.102  16.986  17.892 -0.1359 -0.1442  0.0742
77017W        W20008  12.460  30.724  24.739 -0.2681 -0.1137 -0.0332
77018W        W20009  16.701  30.583  17.986  0.1767 -0.1017  0.3993
77019W        W20010  31.479  19.004  16.945 -0.0493  0.0734  0.1299
77020W        W20011  12.344  30.166   1.922  0.0231  0.0164 -0.0459
77021W        W20012  12.895  18.968   1.876  0.0543  0.0105 -0.2810
77022W        W20013  31.462  30.713  14.550  0.0361  0.1126  0.0332
77023W        W20014  19.484  19.425  14.179  0.4119  0.0301  0.2674
77024W        W20015   6.840  20.281  21.591  0.0116  0.0675  0.2510
77025W        W20016  19.879  10.650  16.705 -0.4679 -0.0923 -0.1206
77026W        W20017   0.196  33.295  29.117  0.0332 -0.1793 -0.0171
77027W        W20018  10.072   4.773  23.667 -0.2762 -0.2216  0.0488
77028W        W20019  11.164  32.706  18.087  0.0906  0.2382  0.1295
77029W        W20020   8.580  28.586  15.012 -0.0232  0.1391 -0.2710
77030W        W20021   8.021  29.334  27.967  0.0182 -0.0784 -0.3654
77031W        W20022  19.396   4.954  13.717  0.1346 -0.1630  0.1034
77032W        W20023   3.239  23.453   4.898 -0.1975  0.1449  0.0498
77033W        W20024  10.543  27.673  22.801 -0.0263 -0.0159 -0.2862
77034W        W20025  20.157  23.526  16.251  0.1040  0.0149  0.0983
77035W        W20026  18.988  22.710   9.285 -0.1522 -0.1728  0.1527
77036W        W20027  10.113  29.545  22.850 -0.0987  0.2310  0.1613
77037W        W20028  16.110  23.494  22.726 -0.2115  0.3802 -0.0047
77038W        W20029  32.258   6.610  15.421  0.1707 -0.4025  0.2465
77039W        W20030  21.270  29.983  26.311 -0.1168 -0.2650  0.1507
77040W        W20031  21.840   5.624  14.165  0.2035  0.0013  0.0043
77041W        W20032   7.083  22.699  17.774  0.1583  0.1241 -0.0874
77042W        W20033  25.711  28.874  13.259 -0.2171 -0.0840  0.0513
77043W        W20034  34.463  11.691  19.128  0.0743  0.0310  0.1973
77044W        W20035   5.960  26.145  23.179  0.0866 -0.0861  0.1198
77045W        W20036  27.126  10.762  15.522  0.1222  0.2096  0.0450
77046W        W20037  18.682  16.565  15.546  0.0040  0.0478  0.1367
77047W        W20038  29.538  27.850  23.307  0.2346  0.1866  0.0758
77048W        W20039  26.640   2.768  16.531 -0.0395 -0.1525  0.0643
77049W        W20040   8.015  16.588  22.287 -0.1905 -0.1634  0.1223
77050W        W20041  26.140   5.285  13.537  0.3994 -0.0088 -0.0161
77051W        W20042  26.645  12.498  14.673  0.0097 -0.2976  0.2423
77052W        W20043  24.991  32.388  18.768  0.1359  0.1156 -0.1869
77053W        W20044  21.686  21.081  12.297  0.0232  0.2900  0.3371
77054W        W20045  29.637   6.146  26.944 -0.0951  0.0274  0.0232
77055W        W20046  19.716   3.512  17.125  0.2404  0.0368 -0.0105
77056W        W20047  16.812  32.638  17.078  0.0457  0.1533  0.1415
77057W        W20048  16.981  11.944  13.758  0.0930 -0.0354  0.1191
77058W        W20049  23.175   1.438  18.591 -0.1112 -0.0895 -0.2160
77059W        W20050  12.093  26.007  23.708  0.2531 -0.0130  0.1808
77060W        W20051  23.964  18.947  25.300  0.1912 -0.1088 -0.4674
77061W        W20052  11.531  23.019   6.789  0.0002  0.1373 -0.3034
77062W        W20053   9.631  31.545  20.727  0.0819  0.1046  0.1527
77063W        W20054  13.352  29.753  21.504  0.0058 -0.0273 -0.0129
77064W        W20055   9.728  15.801  22.411 -0.1041  0.1563 -0.3980
77065W        W20056  24.010  28.005  20.004 -0.0656 -0.0549 -0.1451
77066W        W20057  15.475  15.058  13.749 -0.1953 -0.0254 -0.2154
77067W        W20058  32.154  26.521  16.863 -0.2741 -0.4224 -0.1682
77068W        W20059  24.945  17.392  15.231 -0.3724  0.2241 -0.2285
77069W        W20060   0.380  25.537  18.116  0.0324  0.2871 -0.0911
77070W        W20061  27.100  18.117  16.187  0.1121 -0.2273  0.1955
77071W        W20062  24.542  24.491  22.129 -0.0866  0.0001  0.0348
77072W        W20063  18.637   9.766   9.722  0.0084  0.1175 -0.0460
77073W        W20064  20.451   0.621   3.301 -0.2946  0.0528 -0.2527
77074W        W20065  29.452  26.135  25.665  0.2371 -0.3667 -0.1170
77075W        W20066   1.637  20.499  15.046 -0.0263 -0.1920  0.0039
77076W        W20067  14.301  32.584  25.224  0.1597 -0.0075  0.2356
77077W        W20068  22.316  25.928  15.379  0.0678 -0.4527  0.2228
77078W        W20069  29.701  14.121   6.382 -0.0365  0.1269 -0.1479
77079W        W20070  34.102  19.696  14.255 -0.1969 -0.1770 -0.0342
77080W        W20071  12.730  24.567  20.412  0.1703  0.1447 -0.0855
77081W        W20072  10.288   1.932  20.068  0.0328  0.2375 -0.3740
77082W        W20073   8.082  32.383   0.470 -0.1592 -0.1335  0.0972
77083W        W20074  20.947  33.706   8.315  0.0834  0.2437 -0.0018
77084W        W20075  28.323  18.469  25.716 -0.0643  0.0423 -0.2413
77085W        W20076  17.418  27.875   3.114  0.1173  0.2277 -0.1570
77086W        W20077  15.161   5.194   8.860  0.2094 -0.0182 -0.2172
77087W        W20078  19.500  34.572  24.651 -0.2360 -0.0004  0.3135
77088W        W20079   2.986  21.383  15.744  0.0830  0.1092 -0.0997
77089W        W20080   2.628  17.361  16.229  0.0768 -0.1036  0.2174
77090W        W20081  18.440  33.508   4.542  0.0867  0.0588 -0.0478
77091W        W20082  13.161  20.662  21.736  0.0631  0.0185 -0.1579
77092W        W20083  20.689   2.512   0.381  0.1318 -0.3233 -0.0536
77093W        W20084   8.327  33.041  20.457  0.1438  0.0443 -0.0570
77094W        W20085  19.140  32.326  22.545  0.0129 -0.2201 -0.3132
77095W        W20086  13.891   8.423  21.028  0.0172 -0.1036 -0.1612
77096W        W20087   6.373  15.542  18.031  0.3323  0.1782 -0.0058
77097W        W20088  29.286  29.581  26.405 -0.3523  0.0649 -0.0368
77098W        W20089  12.362  28.524  24.648  0.1967 -0.1801  0.0705
77099W        W20090  20.355  32.079  13.699  0.0833  0.2304  0.0064
77100W        W20091  11.989  14.596  14.539 -0.1347  0.1059  0.2660
77101W        W20092   7.512  12.918  19.949  0.0996 -0.1141 -0.2898
77102W        W20093   9.579  22.054  17.578 -0.2548 -0.2597  0.1443
77103W        W20094  10.378  24.166  15.627  0.3759 -0.0171 -0.0508
77104W        W20095  16.059   4.453  18.522 -0.0948  0.1016 -0.0503
77105W        W20096  16.304  19.837  13.544  0.0733 -0.1860 -0.2051
77106W        W20097  21.031  18.934  18.123  0.0070  0.0082 -0.0177
77107W        W20098  14.721  11.783  20.698 -0.0763 -0.0400 -0.0625
77108W        W20099  16.677  23.487   5.480 -0.1831 -0.2637 -0.3514
77109W        W20100   9.626  21.679  18.371 -0.0575  0.0057 -0.1030
77110W        W20101  17.550  28.423  13.313 -0.0599  0.0839  0.0021
77111W        W20102  27.121   5.910   2.833  0.1155  0.0619  0.1103
77112W        W20103   9.699  24.796  18.646  0.0461 -0.3520 -0.2572
77113W        W20104  23.636  22.197  18.964  0.0950 -0.0398  0.0685
77114W        W20105  10.575  20.826  18.654  0.1822 -0.0178  0.0361
77115W        W20106  22.916  24.878  21.657 -0.1211 -0.1061  0.0246
77116W        W20107  16.690  18.004  12.387  0.0907  0.3439  0.2415
77117W        W20108   5.165  22.500  24.989 -0.1378  0.0858  0.2365
77118W        W20109   3.550  18.234   1.077 -0.2609 -0.0608 -0.2155
77119W        W20110  12.502   3.459  14.763  0.0787  0.0159 -0.1566
77120W        W20111   6.707  34.279  15.154  0.0582 -0.2219 -0.0414
77121W        W20112  20.414  17.217  12.508 -0.1294 -0.2509 -0.3075
77122W        W20113   6.647  19.186  28.144 -0.1470  0.1582 -0.0315
77123W        W20114  26.861  30.835  25.691 -0.1916  0.1539  0.1419
77124W        W20115  32.046   5.111   0.181 -0.4090  0.0121  0.0806
77125W        W20116  17.227  26.845  27.127  0.2892 -0.0436 -0.0816
77126W        W20117  10.692  18.411  17.501  0.2554 -0.0080 -0.2790
77127W        W20118  26.409  23.691   1.374 -0.0104 -0.1730  0.4737
77128W        W20119  10.993  12.422  29.079  0.0573 -0.1189  0.1757
77129W        W20120   9.524  23.630  14.734 -0.2714  0.0937 -0.2364
77130W        W20121  28.965   1.906  19.769 -0.1863  0.1086  0.1209
77131W        W20122  19.121   7.854  14.438  0.1928 -0.2081  0.0465
77132W        W20123  13.580  22.250   2.339 -0.0873 -0.4711 -0.1807
77133W        W20124  14.562  18.594  14.690 -0.0291  0.1030  0.0626
77134W        W20125  18.148  10.805  14.354  0.2474  0.2076  0.3384
77135W        W20126  21.281  13.776  15.485  0.0518 -0.1787 -0.0900
77136W        W20127  18.348   9.827  17.869 -0.0220 -0.0134  0.0818
77137W        W20128  20.370  17.226  16.787  0.0445 -0.1648  0.0020
77138W        W20129  19.723  28.482  22.954  0.0422  0.0519  0.2840
77139W        W20130  27.236  30.532  24.098 -0.1104  0.2920 -0.2443
77140W        W20131  29.863   3.500  19.746  0.0298  0.1586 -0.1561
77141W        W20132   7.425  20.351  16.055  0.0957 -0.0588 -0.0069
77142W        W20133  23.185  32.975  24.170 -0.1910  0.2038 -0.0044
77143W        W20134  24.887  34.473   2.406  0.2050 -0.3240  0.1701
77144W        W20135  11.301  27.965  28.785 -0.1511 -0.0958  0.5056
77145W        W20136  22.171  30.785  27.267 -0.0051  0.1369  0.0992
77146W        W20137  18.788   8.923  20.166 -0.1084 -0.0973 -0.0234
77147W        W20138   6.360   5.072  18.155  0.0033 -0.3503  0.0135
77148W        W20139  19.590  11.402  17.158  0.0949  0.3787 -0.2545
77149W        W20140   7.521  30.361  22.326 -0.0221  0.1010  0.1706
77150W        W20141  12.183  18.837  23.222 -0.0883  0.0260 -0.1209
77151W        W20142  16.799  24.948  27.891 -0.2924  0.2124  0.0764
77152W        W20143   9.835  20.901  14.478 -0.1315  0.2180  0.0554
77153W        W20144  19.458  14.887  12.847  0.3763 -0.3658 -0.0408
77154W        W20145  21.661  22.852  15.243  0.0580  0.3904  0.0894
77155W        W20146  17.792  31.692  28.032  0.0883  0.0117 -0.2188
77156W        W20147  32.530  17.948  15.585  0.0489 -0.1421  0.1257
77157W        W20148  15.598   0.730  22.996 -0.2555 -0.1378 -0.3558
77158W        W20149  22.802  31.374  18.134  0.0523 -0.0033  0.0490
77159W        W20150  10.900   2.511  17.233  0.0738  0.2247  0.1304
77160W        W20151  11.932   0.661  15.838 -0.0234  0.2457 -0.1461
77161W        W20152  14.203  30.241  17.585  0.0804  0.2112  0.2800
77162W        W20153  31.458  25.553  28.536  0.1727 -0.0138  0.0284
77163W        W20154  24.842  22.425  14.881 -0.0220 -0.1319 -0.0937
77164W        W20155  25.607  13.691  19.763 -0.1928  0.2994 -0.0649
77165W        W20156  19.435  27.642   3.329  0.1264  0.2636  0.0242
77166W        W20157   0.147  20.036   5.345 -0.2304 -0.1512 -0.1153
77167W        W20158  17.674  31.707  26.988  0.0327  0.2849 -0.1131
77168W        W20159   6.591   3.503  29.151 -0.2179  0.3209  0.0319
77169W        W20160  15.500   2.579  24.576 -0.1393  0.2603 -0.1552
77170W        W20161  17.463   3.244  20.532 -0.1860  0.0306  0.2305
77171W        W20162  10.356  26.282  14.725 -0.2638  0.3509 -0.1508
77172W        W20163  22.922  26.278  22.520  0.2445  0.3605  0.0083
77173W        W20164  30.461  29.853  16.954  0.0598  0.1153  0.2076
77174W        W20165  15.315  25.299  15.382 -0.1069 -0.1444  0.3855
77175W        W20166  20.026   4.005  15.768  0.1852  0.3349 -0.2034
77176W        W20167  29.633  23.946  24.789  0.2055  0.0431 -0.0809
77177W        W20168  13.144  20.996  13.154  0.3012  0.0805 -0.1380
77178W        W20169  34.400  25.390  19.084  0.2749 -0.2926  0.2877
77179W        W20170  12.874  31.788  20.956  0.2990  0.0245  0.1306
77180W        W20171   5.280  25.458  26.919 -0.1269  0.1124 -0.1804
77181W        W20172  34.758  31.243   1.173 -0.0196 -0.1200 -0.0328
77182W        W20173  32.701  24.895  24.960  0.0022 -0.3731  0.0217
77183W        W20174  15.482  22.162  15.010 -0.0202  0.1961  0.2418
77184W        W20175  10.447   0.452  28.459  0.0743 -0.1415 -0.0832
77185W        W20176  12.357  14.026  22.209 -0.2338 -0.1320  0.0461
77186W        W20177  14.990   0.348  15.785  0.0263  0.3917 -0.0143
77187W        W20178  13.231   1.748   2.672 -0.1402 -0.0452 -0.1103
77188W        W20179   8.481  21.165  24.102  0.1005 -0.1301  0.4342
77189W        W20180  20.486  18.747  16.740 -0.0828  0.2467 -0.0083
77190W        W20181  27.373  15.345  22.269 -0.3153 -0.0825 -0.0871
77191W        W20182  34.582  26.589  19.413 -0.0541 -0.3040 -0.1865
77192W        W20183  21.826  13.740  12.858 -0.0406 -0.0309  0.0525
77193W        W20184  13.092  19.248  22.081 -0.1807  0.0162 -0.1293
77194W        W20185  13.297  31.453  15.491 -0.3122 -0.3810 -0.2906
77195W        W20186  10.952  32.362  24.686  0.1748 -0.3724  0.0299
77196W        W20187   3.028   5.964   0.221 -0.1731  0.3605 -0.0324
77197W        W20188  24.791   0.118  13.557 -0.0755 -0.2504  0.2435
77198W        W20189  26.901  30.165  26.470  0.0590 -0.2100  0.3356
77199W        W20190   2.927  24.262  17.790  0.1801 -0.0225 -0.0978
77200W        W20191  31.990  27.568   2.160  0.0700  0.2406  0.1705
77201W        W20192  13.356  28.272  21.834  0.2027 -0.1566 -0.3039
77202W        W20193   0.877  19.696  15.489  0.0229  0.0054  0.1426
77203W        W20194  10.478  28.760  15.954  0.0366  0.3451 -0.0515
77204W        W20195  17.502  11.516  15.035  0.1708 -0.0510 -0.1250
77205W        W20196  28.058  23.482  24.163 -0.0871  0.1274 -0.2500
77206W        W20197  13.397  22.641  19.158 -0.2035 -0.1317 -0.1788
77207W        W20198   6.325  15.930  18.911  0.0787 -0.1345  0.0331
77208W        W20199  22.315  21.973  16.788  0.1369 -0.0695 -0.1977
77209W        W20200  32.791  29.484  24.209 -0.1357 -0.0189  0.0130
77210W        W20201  29.819  17.293  17.977 -0.0665 -0.3009 -0.0450
77211W        W20202  22.227  16.161  12.711 -0.1883 -0.0201  0.0973
77212W        W20203  23.850   7.793  25.313 -0.0987  0.1947 -0.0756
77213W        W20204  23.120  28.349  17.129  0.4121 -0.2770  0.0833
77214W        W20205  31.649  15.214  23.767 -0.0120 -0.1912  0.2160
77215W        W20206  16.665  12.549  24.324 -0.2200  0.0359  0.1229
77216W        W20207  12.853  16.966  15.337  0.1030 -0.0517  0.0426
77217W        W20208   4.114  15.486  25.890 -0.1518  0.0492 -0.1018
77218W        W20209  18.771  27.811  15.738  0.1382  0.3091 -0.0486
77219W        W20210  23.606  27.329  21.746 -0.0816 -0.2573 -0.0813
77220W        W20211  18.615  29.777  16.958 -0.2167  0.2189  0.1586
77221W        W20212  16.469  27.151  17.283  0.0675 -0.2493 -0.0256
77222W        W20213  12.390  33.269  15.205 -0.1212 -0.0697  0.0625
77223W        W20214  24.382  17.050  28.000  0.0628 -0.0505 -0.0766
77224W        W20215  18.303  32.764  26.629 -0.0749  0.0943  0.2714
77225W        W20216  18.082   1.573  24.436  0.0068 -0.1436 -0.3272
77226W        W20217  20.068  18.311  14.280 -0.0704 -0.3872 -0.0529
77227W        W20218  27.169  25.653  21.722  0.0222  0.5362  0.0005
77228W        W20219   0.662  29.622  13.298  0.0439  0.1213  0.2279
77229W        W20220  10.127  20.159  21.546 -0.0966 -0.0509  0.0463
77230W        W20221  16.794  27.234  15.567  0.1756  0.0095 -0.1002
77231W        W20222  17.968  24.808  16.034  0.0362 -0.0332  0.3248
77232W        W20223  11.062  24.960  21.642  0.1324 -0.2495 -0.0601
77233W        W20224  14.231  21.161  17.103 -0.0143 -0.0713 -0.1547
77234W        W20225  19.989  25.706   1.004 -0.0916  0.3950  0.0313
77235W        W20226   5.263  12.348  28.980  0.0155 -0.0533 -0.0600
77236W        W20227  19.475  20.736  25.838 -0.1494 -0.0758 -0.0292
77237W        W20228  10.780  13.529  16.691  0.1525 -0.1631 -0.0826
77238W        W20229  10.322  21.378  25.426  0.0803  0.0591 -0.1429
77239W        W20230   3.402  25.969  19.643 -0.0618  0.3781 -0.3211
77240W        W20231   3.701   8.506  19.769  0.1740 -0.2007  0.1389
77241W        W20232  27.477  33.767  25.170 -0.1707 -0.1572  0.3168
77242W        W20233  32.962  18.685  20.975  0.1415 -0.0021  0.2021
77243W        W20234   7.226  25.716   0.601 -0.1147 -0.0506 -0.2728
77244W        W20235  18.893  25.161  19.730  0.2483  0.1667 -0.0680
77245W        W20236  28.739  19.016  14.556  0.2507  0.1783 -0.0595
77246W        W20237  10.137  26.414  21.582  0.2534 -0.1187 -0.3003
77247W        W20238  19.117  26.618  17.614  0.3728 -0.2466 -0.4695
77248W        W20239  25.120  28.051  19.682 -0.0872 -0.1624  0.2775
77249W        W20240  14.227  20.179  20.457 -0.0136  0.0175  0.0962
77250W        W20241  32.112  24.426  18.720  0.1877  0.0313 -0.0013
77251W        W20242   1.778  22.233  24.835 -0.1654  0.2140  0.0707
77252W        W20243  13.821   6.065  26.459 -0.3617 -0.3012 -0.0086
77253W        W20244  11.152  16.972   1.625  0.3002  0.1647  0.1733
77254W        W20245   5.561  29.883  15.690 -0.0048 -0.0057  0.4328
77255W        W20246  19.645  28.484  12.808 -0.6401 -0.0323  0.1027
77256W        W20247   8.490  15.711  18.710  0.1935 -0.0735  0.0213
77257W        W20248   2.195   0.399  14.339 -0.0584  0.3103  0.3527
77258W        W20249  28.749  14.379   0.342 -0.0363 -0.3331  0.0957
77259W        W20250   1.644  24.346  20.572  0.1363  0.0067 -0.0782
77260W        W20251   1.715  31.237  14.772  0.0652 -0.2845 -0.1193
77261W        W20252  26.223  21.658  21.913 -0.4689  0.0632 -0.0158
77262W        W20253  17.423  32.426  13.706 -0.1419  0.2172 -0.0437
77263W        W20254  28.609  21.835  13.427  0.0007 -0.1797 -0.0159
77264W        W20255  20.868  30.123  17.080 -0.2274  0.2263 -0.2193
77265W        W20256  25.808   4.286  21.905  0.1238 -0.1019 -0.1287
77266W        W20257  29.993  23.534  25.428  0.0512 -0.3299  0.2345
77267W        W20258  12.179  27.193  14.531 -0.1785  0.2574  0.1500
77268W        W20259   2.871   7.171  23.790  0.2614  0.0478  0.1658
77269W        W20260  14.393   8.136  15.256 -0.1732  0.0667  0.1516
77270W        W20261  31.908  19.747  17.550 -0.0451  0.1609  0.1319
77271W        W20262  11.463  18.428  22.352 -0.1987 -0.2581 -0.0332
77272W        W20263  30.919   0.778   0.242  0.2151  0.0325 -0.1554
77273W        W20264  20.446  23.060  19.371 -0.1370  0.0608  0.2274
77274W        W20265  11.211  19.758  24.886 -0.3652  0.1822  0.3822
77275W        W20266   3.725  32.726  23.147 -0.2158  0.1148 -0.0165
77276W        W20267   6.720  19.616  15.036  0.1148  0.0124 -0.0772
77277W        W20268  27.461  22.520  20.228  0.2116 -0.0012 -0.1119
77278W        W20269  22.184  33.280  13.035 -0.0537 -0.1519 -0.1115
77279W        W20270  14.102  23.554  15.556  0.2712 -0.1276  0.1771
77280W        W20271   5.305   6.630  18.537  0.2030 -0.1145 -0.0186
77281W        W20272  14.801  11.070  17.264 -0.4947  0.0478  0.0810
77282W        W20273  10.423   3.915  23.317  0.4040 -0.0359  0.4227
77283W        W20274   7.172  22.681  23.980  0.2300 -0.1679 -0.0958
77284W        W20275  20.435  26.287   3.129  0.0450 -0.3590 -0.1155
77285W        W20276  32.715   4.351  25.310 -0.0966 -0.1804  0.0021
77286W        W20277  11.103  24.099  14.016 -0.0005 -0.1284  0.1050
77287W        W20278   2.684  11.931   3.370 -0.4257  0.1077 -0.0126
77288W        W20279   4.425  28.094  21.774 -0.0739  0.2682  0.2385
77289W        W20280  12.724  27.158  25.679 -0.0120 -0.2990  0.0819
77290W        W20281  19.085   7.667  14.919 -0.0583  0.0618 -0.1040
77291W        W20282  12.458   6.927  24.310 -0.0348 -0.1815 -0.1022
77292W        W20283  34.590  22.249   1.152 -0.1503  0.2210 -0.4144
77293W        W20284  15.447  33.872  15.968 -0.0439 -0.1086 -0.0473
77294W        W20285  22.140  25.340  18.489 -0.2981 -0.2721 -0.1059
77295W        W20286  11.447  17.433  24.360  0.2550 -0.4755  0.0831
77296W        W20287  15.163   5.031  18.797 -0.0837 -0.0109 -0.0773
77297W        W20288  12.230  25.486  22.776 -0.0224  0.0621 -0.4844
77298W        W20289  25.771  31.222  12.930  0.1743 -0.0826  0.0747
77299W        W20290  22.605  27.206  25.149 -0.2586 -0.0065  0.0139
77300W        W20291  23.303  20.521  19.650  0.0253 -0.0813  0.1587
77301W        W20292  32.041  22.769  27.980  0.0787 -0.1991 -0.1463
77302W        W20293   0.414   6.208  27.891  0.4747 -0.2549  0.2812
77303W        W20294   5.966  26.876  22.525 -0.0631  0.1815 -0.0894
77304W        W20295  18.677  20.538  17.044  0.1555 -0.1011  0.1624
77305W        W20296   5.937  30.787   5.038 -0.1245 -0.0021 -0.0029
77306W        W20297  28.053  15.899  20.150 -0.2461  0.3349  0.0212
77307W        W20298  33.004   5.870  16.209  0.1692  0.0599  0.1405
77308W        W20299  15.902  14.506  12.485  0.1915  0.1986  0.3445
77309W        W20300  17.478  12.954  15.561  0.2927  0.1105 -0.1523
77310W        W20301  24.974  24.892  22.681 -0.0073  0.0611 -0.2735
77311W        W20302   9.539  14.613  14.747  0.1870 -0.2578 -0.0060
77312W        W20303  18.318  23.834  18.010 -0.0628 -0.0698  0.0223
77313W        W20304  15.262  20.621  24.427 -0.1659 -0.3401 -0.1649
77314W        W20305  20.206  17.890  13.205 -0.0274 -0.1041 -0.0030
77315W        W20306  21.590  32.484  19.935  0.1726 -0.2511 -0.0097
77316W        W20307  26.117   7.690  18.568  0.2697 -0.0793 -0.3070
77317W        W20308  24.000  18.601  23.598  0.0241  0.0536 -0.0129
77318W        W20309  19.174  29.026  19.574 -0.1363 -0.1607 -0.1114
77319W        W20310  19.686  20.790  17.898  0.1293  0.3855 -0.2043
77320W        W20311   5.977  10.299  17.671 -0.2731  0.1112 -0.0411
77321W        W20312   2.456  22.312  18.253 -0.1333  0.2668 -0.0894
77322W        W20313   1.393  28.098  21.391  0.2656  0.1694  0.0365
77323W        W20314  12.543  22.196  13.634  0.0156 -0.0682 -0.2268
77324W        W20315  18.318   8.749  14.081  0.1361  0.0037  0.0137
77325W        W20316  29.585   0.806  21.875  0.1567 -0.0488  0.0158
77326W        W20317   1.866  22.079  28.372  0.1177  0.2059 -0.0543
77327W        W20318  34.040  26.708   7.195  0.1816  0.0370  0.0614
77328W        W20319  12.153  17.359   2.667  0.4397  0.0282  0.3171
77329W        W20320  12.191  34.598   3.159 -0.0136 -0.3871 -0.2183
77330W        W20321  12.924  27.970  25.356 -0.0201 -0.0612  0.3207
77331W        W20322   6.503  26.013  17.880  0.0911  0.0894 -0.0158
77332W        W20323  14.808  22.980   0.021 -0.1083  0.0893  0.0384
77333W        W20324  31.093  32.325  12.982 -0.1474  0.0405 -0.4263
77334W        W20325   5.065  30.208   9.447 -0.1199 -0.0849 -0.0941
77335W        W20326  19.751  24.368  18.629  0.1012 -0.3167  0.1364
77336W        W20327  10.611  21.407  29.173 -0.1451 -0.1814  0.1329
77337W        W20328  23.765  14.187  23.108  0.0581  0.1600  0.0012
77338W        W20329  22.284   1.126  18.378 -0.0848  0.2968  0.0892
77339W        W20330  19.550  28.760  27.791 -0.0026  0.2452  0.1132
77340W        W20331  27.136  18.849  17.568  0.2631  0.1572  0.0800
77341W        W20332  16.800   1.402  23.480 -0.0089 -0.1596  0.1387
77342W        W20333  10.220  19.486  17.393 -0.2157  0.2608  0.0139
77343W        W20334  23.525   0.141  17.468 -0.0751  0.0233 -0.1414
77344W        W20335  31.782  11.031  17.277 -0.2215 -0.0202 -0.3491
77345W        W20336  15.355  14.582  17.418  0.0559  0.0957 -0.0811
77346W        W20337   7.960   0.470  24.672 -0.0183 -0.1224  0.0209
77347W        W20338  13.101  25.841  15.360 -0.4087  0.0854 -0.0058
77348W        W20339  20.090  26.870   7.767 -0.0317 -0.2017  0.2320
77349W        W20340  14.099  24.446  17.890  0.2603 -0.0754 -0.0750
77350W        W20341  15.455  33.720  26.006 -0.0871  0.0271 -0.1130
77351W        W20342  13.708  21.537  16.163 -0.3838 -0.0859  0.1240
77352W        W20343  20.315  23.718  22.290  0.0465  0.1623  0.2316
77353W        W20344  22.959  31.064  20.918 -0.2590 -0.1591  0.1219
77354W        W20345  13.115  29.435   7.890  0.0007 -0.0736  0.0419
77355W        W20346  13.531  23.945  19.098 -0.0889 -0.2384 -0.1603
77356W        W20347  18.426  28.988  20.291  0.0023  0.4543  0.1778
77357W        W20348  11.722   3.275   5.071 -0.2625  0.0280 -0.1366
77358W        W20349  23.494  20.634  21.367 -0.1441  0.0022 -0.3008
77359W        W20350  25.184   1.521  25.569 -0.3846 -0.2087 -0.0058
77360W        W20351  21.877  34.297  23.733 -0.1053 -0.0708 -0.2007
77361W        W20352  29.325  14.859  19.640 -0.3077 -0.3011  0.1098
77362W        W20353  31.106  23.235  23.696  0.0970 -0.0005 -0.3777
77363W        W20354   9.073  22.545  24.409 -0.0755 -0.1435  0.4372
77364W        W20355  25.230   4.768  20.978 -0.0353  0.0358  0.1868
77365W        W20356  26.597  19.982  16.020 -0.2310  0.1115 -0.0763
77366W        W20357  24.775  27.899  16.242 -0.2558  0.1589 -0.1595
77367W        W20358  21.670  21.629  15.798 -0.1269 -0.2653  0.0318
77368W        W20359  24.044  18.889  15.327  0.0209  0.3456 -0.0256
77369W        W20360  14.088  13.689  16.220 -0.2172  0.0870 -0.2316
77370W        W20361  16.564  29.047   1.101  0.0658 -0.5867  0.1555
77371W        W20362  13.805  12.586   4.788  0.2344 -0.2332  0.1471
77372W        W20363  24.500  12.485  19.359 -0.0046  0.0142 -0.0602
77373W        W20364  26.908  30.875   5.885  0.1705 -0.2202 -0.2435
77374W        W20365  11.462  28.890  25.041 -0.2851  0.1809 -0.0796
77375W        W20366  19.136  29.155  21.001 -0.1654 -0.0759  0.2652
77376W        W20367  19.881  29.513   1.868  0.0011  0.0080  0.1829
77377W        W20368  12.971   6.787  19.168  0.1272  0.0253 -0.1011
77378W        W20369  25.656  10.560  18.312 -0.2896  0.0717 -0.0461
77379W        W20370  11.550  26.370  24.611  0.1353 -0.0521 -0.0614
77380W        W20371   9.443   2.129  20.811  0.1683  0.1411 -0.1112
77381W        W20372  22.762   2.445  14.642 -0.2812 -0.1279 -0.0498
77382W        W20373  29.846  15.220  17.422  0.0888 -0.2066  0.2285
77383W        W20374  17.268  26.548  22.638 -0.2681 -0.2201 -0.4600
77384W        W20375  29.738  19.708  18.064 -0.3989  0.3096 -0.1435
77385W        W20376  16.702  22.056  17.323  0.0964  0.1862 -0.1504
77386W        W20377  20.056  24.708   7.154  0.1111 -0.0988 -0.1362
77387W        W20378  15.780  31.054  25.280 -0.2901 -0.3391 -0.0535
77388W        W20379  34.535  32.894  16.527 -0.2682 -0.2646 -0.0217
77389W        W20380  32.606  23.708  18.716  0.2277 -0.1588 -0.6389
77390W        W20381  22.974  20.091  13.544 -0.0191 -0.1948  0.0149
77391W        W20382   3.044  32.562  15.418 -0.0268 -0.0531 -0.4127
77392W        W20383  12.358  21.586  21.627  0.1461 -0.0680 -0.0404
77393W        W20384   6.363  26.575  22.354  0.0528 -0.1120  0.1214
77394W        W20385  27.549  22.349  17.437  0.0564 -0.3217  0.0263
77395W        W20386   9.375  20.555  21.114  0.0604 -0.1189  0.3077
77396W        W20387  16.379   8.720  22.411 -0.2367  0.2242  0.1660
77397W        W20388  11.158  31.811  24.059 -0.0192 -0.4469 -0.3361
77398W        W20389   7.859  27.206  14.647 -0.0306  0.0197  0.0677
77399W        W20390  14.310  25.519  23.106  0.2066  0.1654 -0.2715
77400W        W20391  17.074  29.706  16.506 -0.2074  0.0455 -0.0617
77401W        W20392   8.605   1.056  15.640  0.1316  0.1119  0.2304
77402W        W20393  19.538  24.641  23.636 -0.1690  0.0441  0.1483
77403W        W20394   6.511  13.904  17.625  0.0951 -0.0335  0.0733
77404W        W20395  17.267  30.772  14.482  0.0314  0.0650  0.0867
77405W        W20396   1.869  19.337  15.535  0.0784 -0.0027 -0.1172
77406W        W20397  19.919  31.290  19.424 -0.1246  0.2216  0.1199
77407W        W20398  23.758  17.292  18.568 -0.0174 -0.1608 -0.1682
77408W        W20399  29.580   5.625  14.636 -0.0615 -0.0905 -0.1280
77409W        W20400  13.305  26.876  21.275  0.1182 -0.1955 -0.2028
77410W        W20401  21.236   9.295  16.653  0.2641 -0.1420  0.3764
77411W        W20402  17.269  25.909  17.947 -0.1028  0.3626 -0.1202
77412W        W20403  25.005  22.450  17.353  0.0149 -0.1193  0.1549
77413W        W20404  18.746  21.541  15.041 -0.0533  0.3665  0.0287
77414W        W20405  16.396  24.882  18.459 -0.0274  0.1258  0.1581
77415W        W20406  19.288   3.534  20.137  0.4296 -0.1558  0.0354
77416W        W20407  17.577  31.425   3.059 -0.0624  0.0156  0.2176
77417W        W20408   3.764  17.101  28.346 -0.3104 -0.0572 -0.2480
77418W        W20409   5.003  18.173  23.543 -0.0275 -0.0095 -0.0798
77419W        W20410  11.656  27.420   3.960 -0.0916 -0.0005 -0.1351
77420W        W20411  14.888  24.953  21.936 -0.0232 -0.2201 -0.0943
77421W        W20412   1.361  18.161  16.595 -0.3432 -0.0229  0.0930
77422W        W20413  14.160  22.286   3.063 -0.0261 -0.2951  0.4384
77423W        W20414  12.347  13.557  16.760  0.3691  0.0304  0.1514
77424W        W20415  33.292  21.004  19.584 -0.2339 -0.1791 -0.1514
77425W        W20416  11.013  29.807  26.565  0.2353 -0.0509  0.0339
77426W        W20417   4.712  21.955  20.092 -0.1803  0.2123 -0.1464
77427W        W20418   8.622   9.474  18.113 -0.2285  0.3372 -0.0121
77428W        W20419   7.223  11.616  25.886  0.0281 -0.2890 -0.0984
77429W        W20420  18.719  29.935  20.105  0.0744  0.1263 -0.1098
77430W        W20421  20.437  15.772  25.705 -0.0425 -0.0405 -0.0389
77431W        W20422  10.835  18.073  24.374  0.0187 -0.0680 -0.2758
77432W        W20423   8.406  12.067  23.178  0.0740  0.2704 -0.0682
77433W        W20424  20.036  12.914  16.655 -0.0731  0.1517  0.0018
77434W        W20425  19.363  10.933  21.820 -0.0908  0.2369 -0.2934
77435W        W20426  19.319  27.189  13.414 -0.2241 -0.0881 -0.0469
77436W        W20427  12.665  20.760   0.157  0.1139  0.1162  0.0226
77437W        W20428  13.472  23.484  20.136 -0.1179 -0.0558  0.3443
77438W        W20429  16.936  24.412  20.307  0.1279  0.1896  0.0398
77439W        W20430  19.221  28.600  20.387 -0.0863 -0.1739  0.1458
77440W        W20431  10.428  11.658  19.480 -0.0357 -0.1527 -0.0840
77441W        W20432  16.771  30.381  14.981  0.0552 -0.2955  0.1052
77442W        W20433  14.204  27.718   2.483 -0.1815 -0.0559 -0.5327
77443W        W20434  13.210  26.125   4.428 -0.1075 -0.1639 -0.0585
77444W        W20435  29.397  34.244  23.566 -0.0867 -0.0101  0.1621
77445W        W20436   2.412  27.322  13.492 -0.1079 -0.0204  0.1085
77446W        W20437   9.766  31.288  25.574 -0.3761  0.0611  0.2418
77447W        W20438   1.797  13.567  20.671 -0.1395  0.0822 -0.2756
77448W        W20439  17.435  12.707  28.295  0.0480 -0.0790  0.0229
77449W        W20440  22.607  20.267  21.764 -0.0768  0.4667  0.3282
77450W        W20441  24.689  27.225   7.030 -0.1740 -0.1703 -0.2368
77451W        W20442  15.857   2.459  27.592  0.0101  0.1725 -0.2084
77452W        W20443  32.578  13.709  23.303 -0.1984  0.2074 -0.0951
77453W        W20444  15.770   0.843  18.000  0.2062 -0.0897  0.1496
77454W        W20445  16.663  31.827  20.388  0.1476  0.0874 -0.0145
77455W        W20446   3.117  29.671   8.977  0.0729  0.3235 -0.1047
77456W        W20447   1.512   0.681  22.417  0.0670  0.1672 -0.2902
77457W        W20448  13.244  23.049  16.395 -0.1616  0.2509 -0.2395
77458W        W20449   2.996  24.726  22.382  0.0211  0.0088 -0.1141
77459W        W20450   9.912   0.049  17.262  0.0595 -0.1364  0.0911
77460W        W20451  34.313   4.243  24.565 -0.0685 -0.2434 -0.3596
77461W        W20452  29.548   5.729   5.268 -0.0924  0.1185 -0.0193
77462W        W20453  10.793  32.795  26.566  0.0175  0.0621 -0.2472
77463W        W20454  17.974  31.236   9.499  0.0981  0.0361  0.1246
77464W        W20455  26.092  13.522  16.172 -0.0046  0.2300 -0.1593
77465W        W20456  29.437  15.393  19.649 -0.0009 -0.0234 -0.0110
77466W        W20457  19.980  25.481  13.906  0.0640 -0.0917 -0.2714
77467W        W20458  18.395  28.556  17.916 -0.0487 -0.3291 -0.1453
77468W        W20459   7.702  25.556   0.544  0.2595  0.1617  0.0429
77469W        W20460  19.592  23.736  20.313 -0.0808 -0.2342  0.2100
77470W        W20461  12.835  13.393  17.785  0.0573  0.2014  0.0680
77471W        W20462  32.357  23.790   7.359 -0.1119 -0.0568  0.0050
77472W        W20463   2.843  25.782  25.372 -0.4917 -0.3125 -0.0163
77473W        W20464  15.282  17.507   1.935  0.0261  0.0523  0.0300
77474W        W20465  24.892  34.117  23.225  0.0727  0.1978  0.3555
77475W        W20466   5.728  22.424  20.967  0.3070 -0.2786 -0.1448
77476W        W20467  25.527  34.795   2.152  0.2394  0.2211  0.2141
77477W        W20468  26.442  11.502  15.303  0.1260 -0.2614 -0.0199
77478W        W20469  12.389  17.971  15.106 -0.3864  0.0766  0.0524
77479W        W20470  15.880  14.362   7.450  0.0069  0.0148 -0.2986
77480W        W20471  20.889   6.011  23.134  0.0397  0.2751 -0.0458
77481W        W20472  10.386   7.402  14.754  0.2410  0.4034 -0.4103
77482W        W20473   7.816  17.469  28.844 -0.0033  0.2895 -0.2776
77483W        W20474  17.091  18.243   2.534 -0.1245  0.3527  0.1634
77484W        W20475  12.731   1.233  24.616 -0.0054  0.0620 -0.0506
77485W        W20476  12.354   3.057  21.511 -0.0870 -0.1700 -0.2298
77486W        W20477   1.726  20.546  19.003  0.2627  0.1603 -0.2744
77487W        W20478  24.046  20.022  22.932 -0.0548  0.2085  0.0654
77488W        W20479   9.381  12.307  20.666 -0.0902  0.3244  0.0260
77489W        W20480  26.849  18.505  16.385 -0.2430 -0.1428 -0.1967
77490W        W20481   5.187  27.507  28.022  0.1344 -0.0460  0.1253
77491W        W20482   7.318   0.984  15.859 -0.3049 -0.0408  0.1723
77492W        W20483  10.237  28.089  18.953  0.0648 -0.0717 -0.4634
77493W        W20484  22.794  33.179  26.434  0.0582 -0.1139 -0.3496
77494W        W20485  19.053  24.547  23.907  0.0032  0.0128  0.0938
77495W        W20486  18.284  21.176  22.356  0.1094 -0.0899 -0.0630
77496W        W20487   7.437  18.498  22.872 -0.1819  0.1292 -0.0181
77497W        W20488  23.926  31.497  16.419 -0.1167 -0.2066 -0.2776
77498W        W20489  11.857  23.670  28.825 -0.1211  0.1399  0.1261
77499W        W20490   9.084  30.622  24.233  0.2260 -0.2716 -0.0987
77500W        W20491  23.335  20.326  17.325  0.2347  0.1408  0.0907
77501W        W20492   8.201  28.899  25.251  0.4906 -0.2009 -0.1635
77502W        W20493  25.756  25.801  15.421 -0.4554 -0.0453 -0.2459
77503W        W20494  24.001   9.161  22.907  0.1058 -0.2547  0.0367
77504W        W20495  17.667   1.250  24.443  0.0663  0.2948  0.3427
77505W        W20496  24.934  27.040   4.337  0.3200 -0.0124 -0.2488
77506W        W20497  15.713  25.337  13.396 -0.1799  0.0148 -0.0514
77507W        W20498  10.330   6.892  21.127  0.0287  0.4123  0.1391
77508W        W20499  19.592  20.237  24.713 -0.1095 -0.0593 -0.0193
77509W        W20500  16.041   5.436  10.619 -0.1490  0.4821 -0.0669
77510W        W20501  25.106  27.858  23.925  0.0024  0.1509  0.1134
77511W        W20502   9.214   4.995   0.643 -0.1387  0.0083  0.0400
77512W        W20503  13.043  18.116  16.342  0.1676  0.1193  0.1047
77513W        W20504  14.207  30.993  16.667  0.1195  0.1245  0.1370
77514W        W20505  20.144   9.689  15.411 -0.1391 -0.0008  0.0331
77515W        W20506   0.202  18.976  16.539  0.3445 -0.1485 -0.1603
77516W        W20507  13.793  26.109   7.346 -0.2003  0.2593  0.2351
77517W        W20508   7.676  20.739   3.741 -0.3265  0.3237 -0.0803
77518W        W20509  15.853  13.529  16.673  0.0964 -0.3072  0.1939
77519W        W20510  21.721  22.457  19.385  0.0584  0.0218 -0.0851
77520W        W20511   2.683  33.371   8.942 -0.0583 -0.4505  0.0877
77521W        W20512  17.569  11.572  24.604  0.0283  0.1318 -0.0402
77522W        W20513  28.889  25.188  14.947  0.0658  0.1902 -0.4037
77523W        W20514   8.871  32.339  23.389 -0.1841 -0.2903  0.0245
77524W        W20515   4.718  19.476  23.549  0.0653 -0.2942  0.1431
77525W        W20516  16.452  21.714   5.917  0.0276 -0.0209 -0.0803
77526W        W20517  23.818  27.643  15.607  0.0577 -0.3704  0.1235
77527W        W20518   6.218   5.410  17.047  0.1792 -0.1647  0.1234
77528W        W20519  29.762   1.072   1.023  0.0345  0.3897 -0.0797
77529W        W20520  15.595  23.562  19.910  0.0496  0.0675 -0.2147
77530W        W20521  30.996  31.671  17.547  0.0363 -0.1608 -0.2751
77531W        W20522  25.282  28.121  14.210 -0.3166 -0.1417 -0.1920
77532W        W20523   8.990   2.644   1.902  0.0427 -0.2008  0.0597
77533W        W20524  33.339  17.094  25.943 -0.2551  0.1589 -0.0648
77534W        W20525  16.606  23.803  15.817  0.1652 -0.0878  0.2278
77535W        W20526   9.773   4.932  28.597 -0.1264 -0.2012  0.1999
77536W        W20527   0.867  19.567  21.531 -0.0367 -0.2069  0.0714
77537W        W20528   0.035   1.279   1.651 -0.1826  0.0354 -0.1253
77538W        W20529  28.939  10.184  23.438  0.2447 -0.1689  0.3007
77539W        W20530  13.059  23.855  25.013  0.0918 -0.1713 -0.0423
77540W        W20531  32.165  28.654  23.424  0.2066 -0.1956  0.0739
77541W        W20532   7.367  19.594  21.884 -0.2965 -0.1168 -0.1561
77542W        W20533   7.650  13.473  20.958 -0.2005 -0.0332  0.0149
77543W        W20534  23.874  23.988  18.286  0.0872 -0.1861 -0.1875
77544W        W20535  14.823   7.989   7.003  0.0614  0.0378  0.3191
77545W        W20536  15.795  32.443  14.381 -0.2513  0.0416 -0.1856
77546W        W20537  26.304  18.825  21.161  0.0187  0.1159  0.2008
77547W        W20538  10.617  26.186  21.375 -0.1876  0.3539 -0.1116
77548W        W20539   6.718  29.884  16.309  0.1458 -0.3441 -0.2458
77549W        W20540  30.415  16.375   3.714 -0.1418 -0.2002  0.3800
77550W        W20541  12.180  23.006   9.701  0.1327  0.1728  0.0470
77551W        W20542  32.445  23.292  17.280  0.1940  0.1825  0.4927
77552W        W20543  26.676  27.272  18.434 -0.1175 -0.2427  0.0940
77553W        W20544  24.539   4.688  28.732 -0.1982 -0.1633  0.1701
77554W        W20545  21.499   0.919  16.700  0.0882  0.0401 -0.2134
77555W        W20546   7.326  34.595  23.578 -0.0523  0.0159 -0.1241
77556W        W20547  13.795   2.314  27.468 -0.2643  0.2577 -0.1237
77557W        W20548   7.247  26.591  28.423  0.4120 -0.2446 -0.3060
77558W        W20549  33.464  21.853  23.184 -0.0200  0.0467 -0.1929
77559W        W20550  29.124  20.106  14.099 -0.1611 -0.0336 -0.0164
77560W        W20551  22.893  31.651  14.178 -0.1030 -0.0276 -0.1723
77561W        W20552  18.773  27.777  24.864  0.0909 -0.0262  0.1119
77562W        W20553   6.348  30.653  20.013 -0.0513 -0.3212  0.0839
77563W        W20554  17.219  28.174   9.207  0.0697  0.0994 -0.1296
77564W        W20555   9.252  30.654  20.826  0.0524 -0.1122  0.5119
77565W        W20556  23.448  26.371  18.810  0.0170 -0.0476 -0.0286
77566W        W20557  28.733  23.152  13.059  0.0959 -0.1718  0.1462
77567W        W20558  21.379  19.752  27.960  0.0579  0.2611  0.1311
77568W        W20559   8.769  18.438  21.449 -0.0903 -0.1694  0.1927
77569W        W20560  23.590  29.895  17.439  0.1295  0.2978  0.1101
77570W        W20561   9.551  18.902  24.564 -0.1925  0.0942  0.0184
77571W        W20562  14.873  24.909  22.590 -0.2669  0.2512 -0.2781
77572W        W20563  21.500  30.815  22.835  0.0110  0.0692  0.3622
77573W        W20564  18.192  31.189   1.099  0.2041 -0.3539 -0.1136
77574W        W20565  30.757  13.539  28.450 -0.1428 -0.1845  0.0999
77575W        W20566  10.792  10.169  25.312 -0.1226  0.1479 -0.1455
77576W        W20567  27.874  34.116  24.606  0.1807 -0.2736  0.1262
77577W        W20568  22.945  32.383  19.247  0.0095  0.0303  0.0875
77578W        W20569  24.948  33.795  19.464  0.0297  0.0115 -0.0514
77579W        W20570  15.078  27.160  19.580 -0.5265 -0.0288  0.1280
77580W        W20571   4.250   7.244   3.191  0.1810  0.0533 -0.3065
77581W        W20572   5.205  20.192  20.355 -0.1711 -0.2445 -0.1668
77582W        W20573  31.354  31.158  19.124  0.3683 -0.0895  0.1517
77583W        W20574  22.880  24.049  18.936 -0.0169  0.1589  0.2331
77584W        W20575   9.130  33.458  17.870 -0.1447  0.2416 -0.4485
77585W        W20576  21.931  31.516  19.299 -0.0211 -0.0927 -0.1492
77586W        W20577  14.495   1.108  15.120 -0.2045  0.0800  0.1747
77587W        W20578   4.035  11.836  23.229  0.0467  0.0914  0.1205
77588W        W20579  13.083  22.116  27.918  0.0073 -0.2443  0.1024
77589W        W20580  13.200  26.161   2.216  0.2445 -0.2577 -0.0671
77590W        W20581  10.591  28.307  28.074 -0.1346 -0.0029 -0.3952
77591W        W20582   7.669   0.656  29.147  0.1073 -0.0726 -0.1636
77592W        W20583   2.183  32.600  15.728 -0.0949 -0.2084 -0.3230
77593W        W20584  18.961  33.180  17.290 -0.0651 -0.0390  0.1574
77594W        W20585  13.559  10.978   8.300 -0.1437  0.1155 -0.0264
77595W        W20586  12.426  17.625  14.560  0.2503  0.2212 -0.0561
77596W        W20587   6.811  24.807  14.505 -0.2236  0.3699  0.1673
77597W        W20588  14.746  16.605  15.478  0.0246 -0.2581  0.1652
77598W        W20589   8.309  31.159  22.094 -0.0755 -0.1640  0.1438
77599W        W20590   2.132  23.647   3.349 -0.1770  0.1761 -0.0720
77600W        W20591  23.935  30.670  26.016  0.1002 -0.0286 -0.0290
77601W        W20592   3.681   6.774   8.430 -0.2766  0.0012  0.0558
77602W        W20593  23.980  24.592  17.555  0.1147 -0.0432  0.0089
77603W        W20594  21.529  22.901  23.366  0.2025  0.0987 -0.0747
77604W        W20595   9.962  11.641  20.452 -0.1211  0.0115 -0.1362
77605W        W20596  19.433  13.942  20.891 -0.0451  0.0738 -0.1327
77606W        W20597   3.925  31.745  19.375  0.0471 -0.1109 -0.2892
77607W        W20598  25.067  16.048  14.430 -0.0502  0.0567  0.0647
77608W        W20599  11.015   3.011  14.961  0.0215 -0.0688  0.3786
77609W        W20600  27.937  26.213  16.550  0.2528  0.1938  0.1499
77610W        W20601  34.503  18.119  28.691  0.0704 -0.0728 -0.0621
77611W        W20602  25.227  14.611  17.935  0.0864  0.2654 -0.3779
77612W        W20603  30.299  22.292  16.585 -0.2156 -0.1195 -0.0599
77613W        W20604   3.078  27.587  22.741 -0.2300 -0.1087  0.0453
77614W        W20605  17.041   7.824  22.592  0.0627  0.1468 -0.0758
77615W        W20606   2.662  21.769  18.261 -0.0204 -0.1291  0.0732
77616W        W20607  27.674  25.841   6.557  0.0776 -0.0089 -0.0061
77617W        W20608  12.030  14.775  23.930 -0.1545 -0.1502 -0.1837
77618W        W20609  11.349  26.719  25.060  0.2745  0.1815 -0.1570
77619W        W20610  13.548  20.150  20.907 -0.1170  0.4753  0.0949
77620W        W20611  16.396  29.802  17.589 -0.0416  0.4145 -0.1099
77621W        W20612   6.530  25.125  17.563  0.1366  0.3352  0.1969
77622W        W20613  10.813  22.435  19.945 -0.0311 -0.1547  0.0595
77623W        W20614  23.415  19.524  19.460  0.1841 -0.0418 -0.0443
77624W        W20615  33.151  29.208  21.806 -0.1570 -0.0488  0.0085
77625W        W20616  16.704  26.337  16.368 -0.0785  0.3547 -0.0684
77626W        W20617   4.363  27.328   2.399 -0.0959  0.0953  0.1602
77627W        W20618  24.133  33.030  19.141  0.2969 -0.0425  0.0090
77628W        W20619  12.181  34.273  20.656  0.0324 -0.4192 -0.0080
77629W        W20620  13.777  23.203  28.743  0.0802 -0.1164  0.0544
77630W        W20621  18.997  27.883  13.683 -0.0228  0.0395  0.1019
77631W        W20622  10.792  20.206  20.274  0.0127 -0.2323  0.0455
77632W        W20623  13.653  31.554  22.106  0.0620  0.2564 -0.1085
77633W        W20624  18.886  25.755  21.333  0.1916 -0.2059  0.3483
77634W        W20625  26.414  34.679   1.242  0.3003  0.0541  0.1956
77635W        W20626   0.651  19.742  24.809  0.1708  0.2179 -0.1700
77636W        W20627  16.637  24.786  17.607  0.0025  0.1745 -0.0857
77637W        W20628  20.205  33.220  20.791  0.2778 -0.1120  0.0145
77638W        W20629   8.162  25.963  19.327 -0.1301 -0.3584 -0.0098
77639W        W20630  23.012  12.153  17.977  0.0574  0.2250  0.1925
77640W        W20631  16.107  21.090  15.383  0.0899 -0.0088  0.2283
77641W        W20632  13.757  14.861  15.655 -0.0744  0.1398  0.1199
77642W        W20633  21.150  28.656  18.072 -0.1159  0.2187 -0.0205
77643W        W20634  19.363  14.198  16.092  0.1821 -0.1661 -0.0091
77644W        W20635  14.129   7.497  19.075  0.1095  0.0375 -0.0261
77645W        W20636  22.793  27.686  28.743 -0.1142 -0.1470  0.0473
77646W        W20637   5.238  18.729  24.158  0.0157 -0.0921 -0.1112
77647W        W20638  17.253  21.001  18.741  0.0946  0.3249 -0.0911
77648W        W20639  11.517  23.931  20.588  0.1942  0.2810  0.1257
77649W        W20640   8.667   2.995  18.864  0.2525  0.0694  0.0073
77650W        W20641  22.120   8.499  13.557  0.1180  0.0266 -0.1026
77651W        W20642  15.946  26.696   1.715  0.2341 -0.1452 -0.0353
77652W        W20643   9.294  14.501  18.703  0.0197 -0.2371 -0.1702
77653W        W20644  25.907  30.501   0.847  0.2874 -0.1356 -0.1064
77654W        W20645   4.408   3.156   8.062  0.0630 -0.3755 -0.1533
77655W        W20646   9.046   0.348  19.426 -0.2808  0.0759 -0.2252
77656W        W20647   2.619  34.107   1.625  0.4391 -0.2039  0.0543
77657W        W20648  26.524  18.512   4.118  0.1721  0.2409 -0.0628
77658W        W20649  21.135   3.570  15.074  0.1613 -0.0071  0.0455
77659W        W20650  15.158  18.793  14.185 -0.0801  0.0188  0.0556
77660W        W20651  18.168  26.088   4.340 -0.2793 -0.3815  0.1678
77661W        W20652  20.289  34.096   5.514 -0.1302 -0.5308 -0.1008
77662W        W20653  11.767  12.115   5.950  0.1716  0.0209 -0.0069
77663W        W20654  18.809  14.227  12.532  0.2313 -0.0520  0.3743
77664W        W20655  13.831  24.431  16.566 -0.0519 -0.2060  0.3057
77665W        W20656  19.702  10.696  13.555 -0.0084  0.0444 -0.2621
77666W        W20657  15.131  30.423   3.109  0.2790 -0.1758 -0.0697
77667W        W20658   9.092   5.107  16.072  0.0149  0.1510 -0.1519
77668W        W20659  14.940  32.461  16.175 -0.0669 -0.2446  0.0670
77669W        W20660  14.817  30.642  20.219  0.0500  0.0087 -0.1307
77670W        W20661  10.800  18.656   1.336 -0.0777  0.1242 -0.1248
77671W        W20662  23.459  32.278  14.720 -0.2364 -0.0172  0.2509
77672W        W20663  24.103  13.887  14.833 -0.3291  0.0104 -0.1303
77673W        W20664  25.897   6.092  14.942 -0.0632 -0.0868  0.1778
77674W        W20665   5.753  24.002  10.165  0.0329  0.3931 -0.2102
77675W        W20666  17.393  20.734  29.126 -0.1860  0.1786 -0.2041
77676W        W20667  18.425   2.555  25.951 -0.2893  0.2122  0.1756
77677W        W20668   6.473  22.144  14.237  0.2213  0.0011  0.1575
77678W        W20669  28.494  16.083  21.014  0.0821  0.0064  0.2739
77679W        W20670  10.734  21.908  14.111  0.0149 -0.0479  0.3702
77680W        W20671  30.952  24.217  21.697  0.0351 -0.0708  0.2996
77681W        W20672  28.463  28.397   2.819 -0.0467 -0.0613 -0.2173
77682W        W20673   2.095   1.837  14.859 -0.0523 -0.2435  0.1013
77683W        W20674   6.776   9.240  15.432  0.1033 -0.4008  0.3395
77684W        W20675   3.729   2.743   1.104 -0.2994  0.2211 -0.0666
77685W        W20676  29.025  24.318   8.445  0.2297 -0.0430 -0.0095
77686W        W20677  30.609  23.464  21.930 -0.0897  0.1663  0.2603
77687W        W20678   0.261  16.867  27.471 -0.3095 -0.0058 -0.2713
77688W        W20679  26.505  17.896  15.397 -0.1201  0.1249  0.0642
77689W        W20680  13.758  20.045  20.373  0.0016  0.0049 -0.1606
77690W        W20681  16.107  30.410  26.009  0.0466 -0.0087  0.1577
77691W        W20682  30.470  22.330  15.073  0.0363  0.0792 -0.0605
77692W        W20683  22.925  29.101  18.834  0.0175  0.2319 -0.0327
77693W        W20684  27.682  19.020  26.943 -0.1094  0.4740  0.0023
77694W        W20685  16.931  20.625  15.611 -0.1397 -0.0108 -0.1394
77695W        W20686   1.219  26.306  14.248  0.3512 -0.0577  0.2070
77696W        W20687  11.875   6.088  25.127  0.3109 -0.2531 -0.1526
77697W        W20688   8.579  33.003  22.865 -0.0149 -0.1903 -0.1051
77698W        W20689   4.189   5.789  24.305  0.2535  0.0325  0.0760
77699W        W20690  16.224  26.059  17.003 -0.1350  0.3530 -0.1879
77700W        W20691   8.914   1.827  19.021  0.1623 -0.5083 -0.3517
77701W        W20692  11.916  28.381  10.064 -0.1161  0.1323  0.2328
77702W        W20693   7.753  14.770  26.577 -0.0925 -0.3494 -0.2641
77703W        W20694   6.925  16.101  21.109 -0.2269  0.0663  0.1245
77704W        W20695  16.875  26.777  17.828  0.1969 -0.2260 -0.1316
77705W        W20696  21.962  17.565  23.295  0.1035 -0.2595 -0.0555
77706W        W20697   5.213   1.580  17.433  0.0537  0.1239 -0.0999
77707W        W20698  24.501   3.951  21.541 -0.1585 -0.2481 -0.2944
77708W        W20699  23.358  17.883  14.445  0.0594  0.0679 -0.1404
77709W        W20700  25.296   4.909  14.601  0.0658 -0.0636 -0.0814
77710W        W20701  25.981  20.832  13.506  0.1813  0.1803 -0.1394
77711W        W20702  16.319  30.735  14.196  0.2604  0.1635 -0.0655
77712W        W20703   9.690  25.526  25.935 -0.3480  0.2747  0.0078
77713W        W20704  25.423   4.899  25.598 -0.2907  0.1881 -0.1356
77714W        W20705   9.360  21.144   2.438 -0.2721  0.0611 -0.0142
77715W        W20706   6.582  25.314  16.056  0.1564 -0.0204 -0.0432
77716W        W20707  21.663  30.141  15.445  0.0055  0.1769  0.0067
77717W        W20708  14.100  32.047  16.534 -0.0025  0.1179 -0.0922
77718W        W20709   4.746  18.686   1.265  0.1228  0.1947 -0.0607
77719W        W20710   9.674  21.317   0.045  0.0303  0.2700  0.1165
77720W        W20711  13.472  25.982  23.187  0.3727  0.2866 -0.0177
77721W        W20712  12.675  10.071  17.471 -0.0410 -0.0809  0.0520
77722W        W20713  22.075  25.279  20.672  0.1172  0.4040  0.0328
77723W        W20714   7.793   8.619  25.584  0.2077 -0.2804 -0.3291
77724W        W20715  16.679  12.679   2.855 -0.3920 -0.0091 -0.0343
77725W        W20716   9.778  24.491  27.477  0.0764  0.3425  0.1547
77726W        W20717   8.812  16.104  23.949 -0.0083 -0.1474 -0.1874
77727W        W20718  27.924  12.882   2.593 -0.0256 -0.1883  0.2596
77728W        W20719  27.323  18.524  10.541 -0.0023 -0.2209  0.0992
77729W        W20720  10.097   2.311  22.767  0.0036  0.2862  0.1082
77730W        W20721  33.002  26.669   0.918  0.1406  0.4818 -0.1263
77731W        W20722  22.413  17.702  13.296 -0.0308  0.0888 -0.0699
77732W        W20723  21.886  23.799   2.520 -0.1511  0.0102  0.0753
77733W        W20724   1.215  20.007  15.338 -0.0092  0.0418  0.1709
77734W        W20725   2.619  21.991   4.240 -0.1195 -0.1552 -0.0140
77735W        W20726  21.180  11.131  26.998 -0.2081 -0.1628  0.0099
77736W        W20727  14.773  32.366  23.781  0.1221  0.2414  0.2297
77737W        W20728  20.300  22.466  19.812  0.0049  0.1562  0.3341
77738W        W20729  28.092  30.364  21.735 -0.2736 -0.0441  0.0678
77739W        W20730  26.275  18.539  20.606  0.2502  0.2386 -0.1239
77740W        W20731  18.928  24.919  18.892 -0.0165  0.4292  0.3661
77741W        W20732  27.220  19.812  17.311 -0.2817 -0.0677 -0.0580
77742W        W20733  12.228  28.578  15.633  0.0718  0.3779 -0.4255
77743W        W20734  15.128  26.563   9.212  0.0414 -0.0113 -0.1978
77744W        W20735  18.504  23.471   6.195  0.2112 -0.0553 -0.0728
77745W        W20736   4.623   6.394  18.370 -0.2917 -0.0001  0.0299
77746W        W20737  33.047  24.426  15.119  0.0439 -0.0542  0.2193
77747W        W20738  18.303  32.527   6.194 -0.2600  0.0640 -0.2378
77748W        W20739  14.498  24.918   1.633 -0.0794  0.1527  0.2867
77749W        W20740  16.443  31.310   6.134  0.0819 -0.1026  0.1281
77750W        W20741  13.110   0.443   0.657 -0.2789  0.0433  0.0039
77751W        W20742  34.028  30.865  17.737 -0.1212 -0.0451  0.0133
77752W        W20743  21.241  33.536  12.951  0.2044  0.3706  0.0040
77753W        W20744  24.672  22.067  17.559  0.0032 -0.2327  0.0512
77754W        W20745  33.530  34.553  25.347 -0.1571  0.2392 -0.1576
77755W        W20746  13.569  33.749  14.868  0.0076 -0.1776  0.1533
77756W        W20747  28.766  18.017   1.365  0.1295  0.1259  0.1566
77757W        W20748  20.883  27.344  20.153 -0.0520 -0.1988  0.1583
77758W        W20749   9.851   0.928   6.300  0.2065  0.1824 -0.2754
77759W        W20750   8.073  13.792  28.674  0.2740  0.1846  0.0231
77760W        W20751  33.520  25.234  15.383 -0.0026  0.2279  0.0629
77761W        W20752   9.811  23.896  20.038 -0.1504 -0.1621 -0.1233
77762W        W20753  12.087  19.922  15.935  0.1335  0.0161  0.0118
77763W        W20754  18.718  29.322  24.941 -0.0820  0.2861 -0.0584
77764W        W20755   0.352  29.275   7.528  0.1310  0.1737 -0.2459
77765W        W20756   8.149  19.740  19.317 -0.0089 -0.1420 -0.3080
77766W        W20757  15.278  27.168  13.445  0.0638 -0.1651 -0.4511
77767W        W20758  18.932  21.197  23.502 -0.0012  0.0856 -0.2106
77768W        W20759   4.391  29.759  15.912  0.3135  0.0337  0.0049
77769W        W20760  14.128  22.250  15.031 -0.2432 -0.1588 -0.0195
77770W        W20761  20.111  23.748  17.776  0.1159 -0.1731 -0.1671
77771W        W20762  34.217   0.548  17.853 -0.0017 -0.3346 -0.0723
77772W        W20763  13.084  34.507  23.184  0.0401  0.1134 -0.0647
77773W        W20764   8.191  17.401   0.382 -0.1237  0.1777  0.1710
77774W        W20765  18.802  30.571  18.099 -0.0151  0.0873  0.0238
77775W        W20766  15.484  26.771  22.499  0.5860  0.2542  0.0379
77776W        W20767   8.264  30.344  25.352  0.2844 -0.0858 -0.1542
77777W        W20768  21.598  12.189  16.108  0.4138  0.2876  0.2690
77778W        W20769  12.799  31.208  20.012 -0.2346  0.0774 -0.1479
77779W        W20770  18.653  32.079  18.199  0.2670  0.3647  0.0317
77780W        W20771  14.832   9.286  24.553 -0.1720  0.0759  0.1906
77781W        W20772   5.240  26.451  28.370  0.2352  0.0556 -0.1490
77782W        W20773  21.573  32.214  28.083  0.0891 -0.0660 -0.0619
77783W        W20774  17.233   3.592  21.982  0.0993 -0.0907  0.2496
77784W        W20775  13.292  21.139  14.491  0.0857 -0.3336 -0.2374
77785W        W20776  24.364   3.215  16.663  0.0927 -0.0521  0.1535
77786W        W20777  11.483  21.872  22.225 -0.1812 -0.2619 -0.0679
77787W        W20778  12.676  12.263  16.207  0.0372  0.1290  0.0466
77788W        W20779  23.535   9.780  21.832 -0.1225 -0.0271  0.3053
77789W        W20780  17.386  10.023  23.876  0.1458 -0.1258 -0.2719
77790W        W20781  27.954   1.524  27.100  0.0368 -0.1984  0.3063
77791W        W20782   8.701  32.306  16.006  0.1554  0.1246  0.0836
77792W        W20783  30.318  27.533  19.667  0.0104  0.2034 -0.1128
77793W        W20784  13.204  22.164   5.599 -0.0416  0.1141  0.1548
77794W        W20785  34.318  18.205   0.621  0.2557 -0.1800 -0.1743
77795W        W20786  10.372  24.753  24.039 -0.0610  0.1574 -0.1269
77796W        W20787  21.412  25.467  16.346 -0.1634  0.0740  0.0308
77797W        W20788   1.312   6.021   3.816  0.0411 -0.2345  0.2365
77798W        W20789  29.403   0.720  22.952  0.1210 -0.1702  0.1246
77799W        W20790  13.459   7.194  17.526  0.0002  0.1268  0.1859
77800W        W20791  25.973  13.224  23.993  0.2625 -0.0921 -0.1978
77801W        W20792  33.954  31.752   5.078 -0.0883  0.0098 -0.0923
77802W        W20793  23.358  26.483  21.427  0.2823  0.0614  0.0841
77803W        W20794  17.986  24.831  29.124 -0.1560 -0.0240 -0.1046
77804W        W20795  18.136  19.099   6.008 -0.2755  0.0131  0.1945
77805W        W20796  23.858   6.681  13.722 -0.0484 -0.0888 -0.0977
77806W        W20797  21.135  30.909  14.105 -0.0794 -0.0523  0.0979
77807W        W20798  18.002  33.883  25.211  0.0604  0.3220 -0.2357
77808W        W20799  13.387  21.439  19.503 -0.1459  0.2801 -0.0993
77809W        W20800  34.583  13.571  26.998  0.1873 -0.0713 -0.0789
77810W        W20801   6.797  17.307  22.957 -0.0436  0.0989 -0.2876
77811W        W20802  22.545  22.711   3.891  0.0509 -0.0958 -0.0190
77812W        W20803   7.327  25.864  15.497  0.0827 -0.1261 -0.0951
77813W        W20804  18.132  12.021  15.416  0.4347 -0.0483  0.4320
77814W        W20805  16.977  32.836   9.333  0.0560 -0.3338 -0.0743
77815W        W20806   2.005  26.102  18.048 -0.1190 -0.0782  0.0085
77816W        W20807  11.218  10.644  23.614 -0.0285 -0.0252 -0.0478
77817W        W20808  22.879  23.907  28.222  0.3335  0.0051  0.0094
77818W        W20809  19.282  31.676   5.372 -0.1712 -0.0165 -0.0067
77819W        W20810   8.813   4.329  27.789 -0.2013  0.2118 -0.1851
77820W        W20811  15.058  22.483  18.589  0.0242  0.1571 -0.2083
77821W        W20812  18.728  13.713   7.374  0.1036 -0.0234  0.2309
77822W        W20813   3.179  27.507  29.251  0.0695  0.1957  0.0040
77823W        W20814  24.121  33.853  23.108  0.0341  0.3273 -0.3913
77824W        W20815   7.088  19.670  14.510 -0.0028  0.0372 -0.1846
77825W        W20816  30.254  27.847  15.713 -0.0115  0.0431  0.3350
77826W        W20817  17.585  32.029   5.899  0.2342  0.0305 -0.2674
77827W        W20818  20.553  27.012  22.096 -0.1580  0.0276  0.0482
77828W        W20819  25.088  28.172  27.919 -0.1535 -0.0491  0.1714
77829W        W20820  24.264  17.410  13.995 -0.0637  0.1038  0.1199
77830W        W20821   7.115   3.036   0.419 -0.2348 -0.1097  0.2521
77831W        W20822  22.629  30.237  18.488  0.0312 -0.0611 -0.2751
77832W        W20823   0.696   8.735  26.891 -0.3370  0.1913  0.3213
77833W        W20824  24.399  13.425  18.607  0.2717  0.1115  0.1911
77834W        W20825  22.604  21.016   6.425 -0.0460  0.0221  0.2709
77835W        W20826  16.199   0.006   8.204 -0.0498  0.0166 -0.0243
77836W        W20827   9.212  18.569  21.821 -0.1266 -0.1272  0.1565
77837W        W20828  14.053  25.730  19.579 -0.3326  0.1911  0.0927
77838W        W20829  10.520  31.572   5.632  0.1058 -0.1635 -0.2099
77839W        W20830  14.914  26.879  15.440 -0.0703 -0.0757  0.1922
77840W        W20831  29.143  28.148  20.678  0.0994  0.1222 -0.2924
77841W        W20832  16.989  23.314   0.069  0.2821 -0.1659  0.0636
77842W        W20833  16.418   9.471  18.006 -0.0045  0.2819 -0.1646
77843W        W20834  31.945  26.028   1.298  0.0948 -0.0282  0.0823
77844W        W20835  31.966  28.118  20.647  0.1370  0.1861 -0.0610
77845W        W20836   2.079  28.135  22.031 -0.0233 -0.3672 -0.0362
77846W        W20837   1.363   0.979  18.745  0.2087 -0.0608  0.5115
77847W        W20838  18.446  27.934  19.204  0.2309  0.0003 -0.1311
77848W        W20839  18.241  30.622  18.087  0.1311 -0.1613  0.0855
77849W        W20840  24.752  33.143  27.966  0.0275  0.1518  0.1673
77850W        W20841  12.914  17.874  14.537 -0.4824 -0.0930  0.3075
77851W        W20842  30.897  14.344  23.587 -0.2752 -0.0932  0.2219
77852W        W20843  22.447  25.442  17.423  0.0669  0.0314 -0.2930
77853W        W20844   2.269   7.819  24.350  0.1484  0.3192 -0.2104
77854W        W20845  15.356  33.586  28.487 -0.0784 -0.2654 -0.1212
77855W        W20846  15.954  21.189  28.575 -0.0536  0.0542 -0.2512
77856W        W20847  20.118  28.606  28.322  0.2444 -0.2711 -0.0991
77857W        W20848  33.318  24.864  16.743 -0.1036 -0.0828  0.1425
77858W        W20849   4.908  23.594  16.824 -0.1117 -0.1107  0.3325
77859W        W20850  18.144  13.997  13.153 -0.0537 -0.2664 -0.1945
77860W        W20851   5.462  28.197   1.853 -0.0014  0.1781 -0.0472
77861W        W20852   7.503  14.544  27.871 -0.3175  0.1100 -0.1953
77862W        W20853  20.039  29.514   0.042  0.1349  0.3843  0.0341
77863W        W20854  20.539   3.071  28.425  0.0053 -0.1800  0.0057
77864W        W20855   5.742  19.077   0.765 -0.1448  0.1135  0.1601
77865W        W20856  27.235  22.110   0.827  0.0111  0.1023 -0.1706
77866W        W20857   8.317  28.411   2.927  0.1234  0.2396  0.1032
77867W        W20858   8.057  25.488  25.062  0.3016  0.0975 -0.2769
77868W        W20859   7.606  24.316  10.704  0.0072  0.0924 -0.0241
77869W        W20860  13.089  13.658  14.137 -0.2605  0.2015  0.4584
77870W        W20861   4.812  21.251   0.693  0.0837  0.2221  0.2808
77871W        W20862  22.810   4.470  21.149 -0.3470  0.0398 -0.0431
77872W        W20863  18.960  28.388   4.447 -0.3546 -0.1619  0.2529
77873W        W20864  29.272  13.383   2.218 -0.1144  0.0545 -0.1004
77874W        W20865  18.997  23.660  18.498 -0.3442 -0.0380  0.0148
77875W        W20866  14.478  24.389  20.134 -0.2482  0.1079 -0.2009
77876W        W20867  30.214   1.565   1.934 -0.2351 -0.0551 -0.3052
77877W        W20868  34.514   1.856  25.554 -0.0338 -0.2404 -0.0715
77878W        W20869  19.186  16.842  13.991 -0.2159  0.0998  0.1432
77879W        W20870  23.121  24.189   5.921 -0.0042  0.1686 -0.2093
77880W        W20871  14.796  20.211  15.428 -0.0107 -0.1041  0.1268
77881W        W20872  13.926  19.214  16.883 -0.2989  0.0492 -0.1869
77882W        W20873  24.462  19.966  20.753 -0.0875 -0.3932  0.1502
77883W        W20874  13.853  19.989  27.713  0.0243 -0.0064 -0.1550
77884W        W20875  11.522   6.170   8.243  0.2492  0.3737  0.0877
77885W        W20876   7.497  18.584   6.782  0.0831 -0.4291  0.1449
77886W        W20877   0.380  32.804   8.068 -0.0424  0.0853  0.0724
77887W        W20878   8.018  29.624   9.858  0.5111 -0.1813 -0.0103
77888W        W20879   5.487  13.031  27.033 -0.0469  0.1663  0.2197
77889W        W20880  30.650  28.307  19.383  0.2223 -0.4946 -0.0226
77890W        W20881   6.123  16.202  21.450 -0.0982  0.1338 -0.1227
77891W        W20882  10.637  31.717  15.336 -0.0466 -0.0695 -0.0111
77892W        W20883   8.274  21.689  22.570  0.1550 -0.2787 -0.0163
77893W        W20884  33.626  12.483   5.726 -0.0165  0.3931  0.0418
77894W        W20885   3.958  18.366  17.590  0.1612 -0.1520  0.1091
77895W        W20886  20.757  25.935  20.724 -0.1016 -0.0710 -0.0482
77896W        W20887  23.040  20.364  21.374 -0.1052 -0.0524 -0.2895
77897W        W20888   8.106  13.193  17.349 -0.1854 -0.2204  0.0938
77898W        W20889   9.343  25.773  16.284  0.0582  0.1038  0.0197
77899W        W20890  18.956  28.114  21.252 -0.0650  0.0001 -0.3303
77900W        W20891   1.216  30.057   8.752  0.3451 -0.1906 -0.0220
77901W        W20892   6.984   0.535  16.744  0.1271 -0.0977 -0.1056
77902W        W20893   5.238   3.486  20.796  0.1795 -0.4183 -0.2147
77903W        W20894  34.226   7.046   0.885  0.0478  0.1858  0.1662
77904W        W20895  16.398  11.626  18.577  0.2850  0.0350  0.0398
77905W        W20896  14.840  10.139  19.418  0.0177 -0.2321  0.0468
77906W        W20897  21.236  25.431  28.159 -0.1684  0.2118  0.4724
77907W        W20898  12.282  30.957  15.117 -0.0632 -0.0229  0.1074
77908W        W20899  17.584  28.822  23.880 -0.3160  0.0413 -0.0104
77909W        W20900  33.627  24.847  23.636  0.3012 -0.0085 -0.1105
77910W        W20901  30.393  27.964  14.972  0.2335  0.0026  0.3305
77911W        W20902  13.348  22.509  26.227  0.1370 -0.1570  0.0491
77912W        W20903  20.297   0.215  17.698 -0.2385 -0.2200 -0.0453
77913W        W20904  12.215  33.418   2.050 -0.0558 -0.2756  0.1777
77914W        W20905  18.236  22.458  26.915  0.0737 -0.3077 -0.0386
77915W        W20906  29.523  18.668   2.424 -0.1267  0.2827 -0.1341
77916W        W20907  27.622  30.999  25.819  0.2108 -0.1722  0.0775
77917W        W20908  19.171   4.310  22.091 -0.1080  0.3315 -0.3722
77918W        W20909  13.676  11.471   0.613 -0.0513 -0.0051 -0.1427
77919W        W20910  18.097  33.460  17.539  0.1596 -0.4950  0.0592
77920W        W20911  13.049  18.863  26.100 -0.1168  0.0979  0.2512
77921W        W20912  12.484  26.949  22.940  0.0651 -0.3971 -0.2184
77922W        W20913  15.807  31.815   5.005  0.0329  0.1346  0.1899
77923W        W20914  29.722  23.982   3.690 -0.1231  0.0066  0.2944
77924W        W20915  10.485   4.071  27.501 -0.1657  0.1085 -0.0444
77925W        W20916   8.071   6.429  26.132  0.1081  0.0395  0.1652
77926W        W20917  33.681  21.144  17.805  0.1978  0.0871 -0.0047
77927W        W20918  22.603  25.265   6.691  0.4853 -0.2969  0.2333
77928W        W20919  28.230  25.981  23.834  0.3339 -0.1199  0.1773
77929W        W20920  21.397  30.372  18.702 -0.1915 -0.1451  0.1183
77930W        W20921  25.983  16.742   7.693  0.1541 -0.0088 -0.1211
77931W        W20922  13.588  28.280  14.721  0.0431  0.2016  0.1414
77932W        W20923  21.318  13.173  14.753 -0.1092 -0.2977  0.2179
77933W        W20924   3.408   3.334  20.660 -0.0080  0.1660  0.1723
77934W        W20925   6.022  31.495  17.566  0.1625  0.1833  0.2492
77935W        W20926  12.017  30.559  21.733  0.0657 -0.0280  0.0130
77936W        W20927  13.637  27.534  13.788  0.1334 -0.1003 -0.3049
77937W        W20928  24.862  24.770   2.640  0.0823 -0.0369  0.1222
77938W        W20929  11.158  26.499  17.936 -0.1269 -0.2775  0.2114
77939W        W20930   5.300  23.814  20.453  0.3010  0.4823  0.1084
77940W        W20931  31.128  10.266   4.342  0.2385  0.0186  0.4161
77941W        W20932  16.110   9.248  15.571 -0.0297 -0.0036  0.1620
77942W        W20933  28.935   5.979   1.970 -0.1945 -0.1442 -0.3320
77943W        W20934  34.488  23.922  15.849 -0.0248 -0.1538  0.0012
77944W        W20935  30.472  16.829  27.741 -0.1546  0.0037 -0.3272
77945W        W20936  13.439   2.723  21.395 -0.0860 -0.1990  0.3351
77946W        W20937  22.209  19.193  15.729 -0.2323 -0.2674  0.1716
77947W        W20938  14.306  26.426   6.511  0.1981 -0.1254  0.0842
77948W        W20939  10.716   9.383   8.867 -0.1202  0.0676  0.1922
77949W        W20940  24.985  15.910  16.297  0.1203 -0.0786  0.2078
77950W        W20941   5.076  14.292   3.326 -0.0533  0.3641 -0.2804
77951W        W20942  31.570  10.829  22.274  0.1186  0.2555 -0.3347
77952W        W20943  17.242  22.007  16.533  0.0481 -0.0451 -0.0808
77953W        W20944  12.087   0.412  20.417 -0.0941  0.0424 -0.2018
77954W        W20945  18.025  24.358  17.011  0.2976  0.2309 -0.0768
77955W        W20946  27.292   4.101  26.127 -0.0536  0.1772  0.0415
77956W        W20947  33.370   7.526   4.558 -0.1104 -0.0024 -0.2456
77957W        W20948  12.228   5.139  15.375 -0.2451  0.0095 -0.0889
77958W        W20949  24.226   9.142   3.462 -0.1614  0.0913 -0.2169
77959W        W20950   8.570   1.111   7.579  0.0862 -0.0613  0.1963
77960W        W20951   3.962  31.561  14.995  0.1282  0.1393  0.0785
77961W        W20952  25.103  33.056  15.225  0.3595 -0.0226 -0.0978
77962W        W20953  17.439  25.074  19.379 -0.1981  0.0489  0.0556
77963W        W20954   7.787  34.087  28.250 -0.0661 -0.0255  0.1493
77964W        W20955  14.807  31.388   4.024  0.0515 -0.3247 -0.1894
77965W        W20956  22.637  16.020   5.108 -0.1197  0.1660 -0.0437
77966W        W20957  15.199  31.614  25.513 -0.1026 -0.0549 -0.2706
77967W        W20958  13.229  19.623  21.118  0.0608  0.1743 -0.2980
77968W        W20959   8.044  26.936   7.947 -0.2487  0.1177  0.2508
77969W        W20960  31.042   0.473   5.512 -0.1611 -0.1583 -0.5308
77970W        W20961  24.693  13.622  18.131  0.0697  0.3062 -0.3380
77971W        W20962  24.853  21.243  24.276  0.2449  0.0021 -0.1877
77972W        W20963   4.780  19.985  22.888 -0.2271 -0.2783  0.0110
77973W        W20964  31.845  13.752   5.029 -0.1054 -0.0370 -0.2711
77974W        W20965  30.237  11.857   8.848 -0.1031  0.3759  0.0802
77975W        W20966  15.041  20.871  19.583 -0.0868  0.0855  0.2200
77976W        W20967   2.660  13.215  18.356  0.0821  0.2228  0.1575
77977W        W20968   4.890  24.241  16.500 -0.2440  0.2192  0.0744
77978W        W20969  27.847   4.620  27.748  0.0059 -0.0964 -0.0816
77979W        W20970   2.468  26.328  25.201  0.3807  0.0325 -0.5232
77980W        W20971  14.515  23.139  22.970 -0.0919 -0.1972  0.1925
77981W        W20972   1.213  24.410  17.787 -0.0075  0.1693  0.2084
77982W        W20973   8.735  25.735   3.616  0.3419  0.0797 -0.0027
77983W        W20974  13.184  29.503  17.714  0.0308  0.1883 -0.1134
77984W        W20975  15.760  25.354  20.677 -0.3012  0.4054 -0.2788
77985W        W20976  18.645   9.053  27.075 -0.0975  0.0020 -0.2265
77986W        W20977  18.517  34.558  28.734 -0.2773  0.3258 -0.0122
77987W        W20978  20.973   2.323   4.492  0.1129 -0.2942  0.0491
77988W        W20979   0.427  28.703   6.431  0.0176  0.1647  0.2289
77989W        W20980  10.127  24.653  18.824  0.2446 -0.1319  0.3394
77990W        W20981  11.984  27.443  28.900 -0.1010  0.3033 -0.1651
77991W        W20982  22.508  22.910  27.383  0.1903  0.0762 -0.0287
77992W        W20983  14.670  20.071  13.480  0.2993 -0.1139 -0.1812
77993W        W20984  14.695  30.067   1.188 -0.0337  0.1704 -0.0099
77994W        W20985   4.118   3.984  19.869  0.4002 -0.2233 -0.1185
77995W        W20986  12.167  25.181  22.402  0.3231  0.2139  0.1387
77996W        W20987  29.788  30.932   8.425  0.0792 -0.1276  0.2501
77997W        W20988  25.144  22.130   6.657  0.1325 -0.2455 -0.1290
77998W        W20989  16.770  26.915  26.587  0.1212  0.0041  0.0840
77999W        W20990   7.985  23.085  26.281 -0.0888  0.1553  0.1491
78000W        W20991  24.829  19.947  26.426  0.2091 -0.0229 -0.0398
78001W        W20992  12.850   2.790   6.147  0.0969 -0.0822 -0.0231
78002W        W20993  22.896  16.979   8.390  0.0999  0.0873  0.1134
78003W        W20994  17.346  24.233  12.754 -0.0849 -0.0477 -0.2653
78004W        W20995   4.019   1.118  28.515  0.4503 -0.0223 -0.1379
78005W        W20996  24.338   9.732  18.462 -0.0180  0.0659  0.0335
78006W        W20997  10.231  16.173   9.346 -0.0639 -0.2837 -0.0051
78007W        W20998  12.149   4.128  19.899 -0.0444  0.1675 -0.3140
78008W        W20999  30.136   4.343   3.650  0.0621 -0.3324 -0.0409
78009W        W21000  20.970  18.530  14.088 -0.0986 -0.2211 -0.2079
78010W        W21001  20.772  19.043   1.556  0.1854  0.1064  0.1021
78011W        W21002  17.507  31.752  14.556 -0.1898  0.1752  0.3435
78012W        W21003   7.887  27.327  24.856  0.1753 -0.0472  0.3483
78013W        W21004  11.773   6.942  16.141 -0.1189  0.1049  0.1695
78014W        W21005   2.071  18.686   4.525 -0.3324 -0.1769  0.4141
78015W        W21006  23.600  25.464   8.286 -0.0053  0.3051 -0.1493
78016W        W21007  11.060  24.659  24.549 -0.3159 -0.2398 -0.2458
78017W        W21008   8.843  28.169   2.201 -0.3280 -0.0430 -0.0038
78018W        W21009   9.582  11.007   7.230 -0.0560 -0.1606 -0.0426
78019W        W21010  16.689  11.254  23.507 -0.0736 -0.2103  0.1543
78020W        W21011  33.037   0.138  28.043  0.0941 -0.2791 -0.2177
78021W        W21012  27.785  14.468  20.546 -0.0750 -0.4769 -0.1334
78022W        W21013  13.453   2.937  16.040  0.1312 -0.1746  0.0429
78023W        W21014  23.294  22.688  16.592  0.1330 -0.0282 -0.4877
78024W        W21015  20.003   5.959  20.131 -0.0149  0.0585  0.0127
78025W        W21016  26.031  34.319  17.790 -0.2435  0.4029 -0.3376
78026W        W21017  25.833   5.762  22.382 -0.2050 -0.0875 -0.0419
78027W        W21018   9.852  32.525  16.422 -0.2179 -0.1112  0.0069
78028W        W21019  29.944  33.693   0.722 -0.2102 -0.0592 -0.0978
78029W        W21020  16.575  23.504  19.230 -0.2564  0.1673 -0.2983
78030W        W21021   0.862   6.854  17.895  0.3120 -0.1174 -0.1354
78031W        W21022  22.400  26.409   3.392 -0.2169  0.1712  0.2630
78032W        W21023  27.454  27.959  14.297  0.0344  0.0513  0.1600
78033W        W21024   8.411  12.736  20.452  0.1590  0.1577  0.2300
78034W        W21025  11.566  10.389  25.801 -0.1022 -0.1340 -0.4368
78035W        W21026   9.986  26.602  15.992 -0.1662 -0.3156 -0.1595
78036W        W21027   5.476  33.914  24.225  0.1114 -0.2405 -0.0911
78037W        W21028  18.521  23.985  17.564  0.2370  0.1547  0.0778
78038W        W21029  17.742   7.834  17.743  0.1182 -0.0646 -0.1508
78039W        W21030  19.448  29.748   6.595  0.1661 -0.3773 -0.2017
78040W        W21031  30.432  25.070  25.135  0.1669  0.0980 -0.1088
78041W        W21032  19.890  23.222  17.709  0.0659  0.0325  0.2678
78042W        W21033  19.709  21.331  24.482 -0.3060  0.3000 -0.1363
78043W        W21034  23.607  22.816  26.516 -0.0230  0.1501  0.2911
78044W        W21035   4.788  22.789   7.650 -0.1562 -0.0055 -0.1233
78045W        W21036  12.423  11.735  20.838  0.1186 -0.0472  0.1274
78046W        W21037  26.143  12.756   4.025  0.1509  0.1662 -0.2478
78047W        W21038  16.301   1.696   8.276  0.0209  0.3414  0.0310
78048W        W21039  21.568  25.792  17.630  0.1012 -0.1660  0.0935
78049W        W21040  32.096  23.244   5.266  0.1582  0.0841  0.1230
78050W        W21041  24.189  24.335  21.067 -0.1100  0.0254  0.1850
78051W        W21042   9.469  33.836   5.029  0.0287 -0.0777  0.0098
78052W        W21043  13.660  29.019  10.514 -0.3656  0.2476  0.0744
78053W        W21044   8.309  26.837   1.448  0.1744  0.1440 -0.0823
78054W        W21045  14.115  26.182  19.780  0.0645  0.0321 -0.0589
78055W        W21046  11.858   2.185   2.323 -0.1357  0.1207  0.0781
78056W        W21047  21.388  23.531  22.786  0.0750 -0.0186 -0.1138
78057W        W21048  13.978  17.057   5.856  0.1614  0.1100 -0.2469
78058W        W21049  24.260  22.459  28.221 -0.2181 -0.3791 -0.1993
78059W        W21050   4.379  29.342  24.488  0.2381 -0.2200 -0.0296
78060W        W21051  11.935   9.524   4.436 -0.3096 -0.0272 -0.0744
78061W        W21052   5.655  30.698  16.205  0.2591  0.1649  0.3188
78062W        W21053   0.370  19.797   9.445 -0.0136 -0.1199 -0.4283
78063W        W21054  15.774   8.872  20.949  0.1739 -0.0776  0.0562
78064W        W21055  12.149  16.070  19.842 -0.0971 -0.2404  0.0885
78065W        W21056  20.314  29.626  22.296  0.0274  0.3118 -0.0302
78066W        W21057  14.320   2.564  18.808 -0.1002  0.0336 -0.0362
78067W        W21058  15.526  29.215  18.240 -0.1613 -0.0896 -0.1845
78068W        W21059  10.169   2.641  16.276 -0.0178  0.0718  0.4870
78069W        W21060  19.998  28.624  15.449  0.1745  0.2137 -0.2574
78070W        W21061   5.515  23.402  29.071 -0.2254 -0.3081 -0.1457
78071W        W21062  13.229  34.237  21.727  0.3180  0.0503 -0.0800
78072W        W21063  11.360  23.931  16.203 -0.0720 -0.0080 -0.3731
78073W        W21064  13.005   5.246  23.247 -0.2534  0.0573  0.1010
78074W        W21065   2.176   0.615  28.501 -0.0103  0.0067  0.1952
78075W        W21066   7.994   0.077  21.821 -0.1906  0.0102 -0.0061
78076W        W21067  25.105   4.486   3.081 -0.1471 -0.0768 -0.2018
78077W        W21068  15.586  23.958   8.495 -0.0276  0.1378 -0.2167
78078W        W21069  13.480  26.980  16.244  0.1872  0.0958 -0.1879
78079W        W21070   9.997  29.969   4.478  0.0828  0.3678 -0.2077
78080W        W21071  11.359   6.675   1.899  0.0741 -0.2666 -0.3326
78081W        W21072  21.480  27.013  23.051 -0.0997 -0.0994 -0.0343
78082W        W21073  10.103  21.236  27.399 -0.0512 -0.1661  0.1140
78083W        W21074   5.708  20.445  17.379  0.2071  0.3321  0.0395
78084W        W21075   2.538  15.616  16.215 -0.0276  0.0925 -0.1801
78085W        W21076  16.113  22.698  20.729 -0.0674  0.1005  0.1550
78086W        W21077  11.487  21.201  16.372 -0.0528  0.0478  0.1992
78087W        W21078  21.604  20.503  15.392  0.1507 -0.1490  0.0611
78088W        W21079  27.365  31.265  15.044  0.0959  0.0055  0.2863
78089W        W21080  19.672  21.855  24.614 -0.0604 -0.0929 -0.2427
78090W        W21081  16.129  27.383  19.334 -0.2784  0.3319 -0.3424
78091W        W21082  14.093  17.969   1.757 -0.1232  0.0101  0.0819
78092W        W21083  11.831  22.133  21.029 -0.0850 -0.0890  0.0491
78093W        W21084  11.319  21.399  16.908  0.0172  0.0316 -0.0973
78094W        W21085  24.534  30.874  25.506  0.1764 -0.1333 -0.1665
78095W        W21086  33.607  27.408  19.406 -0.1717 -0.2110 -0.1353
78096W        W21087  12.384  29.290   4.430  0.4075  0.0673  0.0255
78097W        W21088  20.001  31.201  23.242 -0.1150  0.0006  0.0755
78098W        W21089  20.428  30.381  15.902 -0.3874  0.2535 -0.0776
78099W        W21090  12.198  25.139  16.746 -0.0677  0.1522  0.0677
78100W        W21091  10.580  23.377  20.440  0.2161 -0.0325  0.0449
78101W        W21092  16.473  21.380  20.678  0.0122 -0.2857 -0.2731
78102W        W21093  31.619  23.588  13.881 -0.1539  0.1084 -0.0051
78103W        W21094  11.603  21.813  26.186 -0.1145  0.1724  0.1517
78104W        W21095   0.506  31.362  26.086 -0.0469 -0.1496 -0.0489
78105W        W21096  26.184  28.342   3.606  0.0062  0.2063 -0.1023
78106W        W21097   7.782  24.363  25.971  0.2187  0.0455 -0.0401
78107W        W21098  25.350  14.721  18.669  0.1244 -0.0195 -0.0098
78108W        W21099  11.784  29.767  19.561 -0.1493 -0.0036  0.3023
78109W        W21100  13.665  18.378   5.946  0.2792 -0.0312 -0.1709
78110W        W21101  22.115   8.995  22.165 -0.0818 -0.0377  0.2956
78111W        W21102  27.126  21.611   8.618  0.1378  0.0826 -0.0752
78112W        W21103  29.870  24.029  10.031 -0.4575 -0.1468 -0.1072
78113W        W21104  14.441   6.091  23.969  0.2390  0.1022  0.1047
78114W        W21105  24.764  16.471  24.183  0.1048 -0.0256  0.4783
78115W        W21106  13.326  25.652   9.282  0.0657 -0.3554  0.1288
78116W        W21107  16.351  19.004  19.048  0.0656  0.0942 -0.0373
78117W        W21108  17.548  23.297   1.749  0.3410  0.1078  0.0381
78118W        W21109  15.998   0.122  15.740  0.2093 -0.2196 -0.2091
78119W        W21110  23.082  22.823  26.484 -0.0828  0.0046 -0.1705
78120W        W21111   9.745  30.776  28.149  0.2373  0.1050 -0.1117
78121W        W21112  18.407   0.304  26.690 -0.1297 -0.2377 -0.4831
78122W        W21113  19.067  32.468   8.815  0.2078 -0.2749  0.2426
78123W        W21114  12.946  20.936   3.076  0.1895 -0.0599 -0.0412
78124W        W21115   4.252  19.253   8.749 -0.0604  0.2093 -0.0531
78125W        W21116  21.431  16.525  22.416  0.0498 -0.1663  0.1848
78126W        W21117   4.599  14.698   1.177 -0.3678  0.0958  0.3673
78127W        W21118  27.086  27.033   8.598  0.0129 -0.1903 -0.1418
78128W        W21119  16.430  20.300  25.467 -0.0933 -0.3521  0.2964
78129W        W21120  11.509  11.655   9.074  0.1395  0.2518 -0.2467
78130W        W21121  32.941  12.557  24.919  0.0727 -0.1913 -0.2074
78131W        W21122   4.521  23.787  17.159  0.1159 -0.1420 -0.1669
78132W        W21123  13.016  22.049  22.784  0.0650  0.1202 -0.0191
78133W        W21124  21.917  11.597  20.815  0.3752 -0.0141  0.1120
78134W        W21125  21.767  25.873   3.465 -0.0587 -0.0155 -0.0282
78135W        W21126  24.532  32.518   5.088  0.1573  0.1290 -0.2338
78136W        W21127  16.927   2.498  24.010  0.1230  0.2909 -0.0030
78137W        W21128  34.599  14.402   6.831 -0.2339 -0.1138  0.3303
78138W        W21129  14.826   7.153  25.879 -0.0977  0.5228  0.1469
78139W        W21130  22.136   2.094  20.432 -0.2057 -0.3511  0.0288
78140W        W21131  31.188   5.511  26.094 -0.2130 -0.2640  0.1830
78141W        W21132   7.648   7.537  15.453  0.1400 -0.2370 -0.0314
78142W        W21133   7.713  15.935  26.218 -0.1021 -0.0245 -0.2873
78143W        W21134  10.843   2.118  16.857  0.3552 -0.4042 -0.2946
78144W        W21135   7.145  26.105   2.275 -0.0834  0.3436 -0.0898
78145W        W21136   7.875  27.549  17.188 -0.1021 -0.1396  0.0149
78146W        W21137  18.219  26.714   1.760  0.5249 -0.0812  0.2324
78147W        W21138  20.343   9.209  13.922  0.0229  0.0078  0.0276
78148W        W21139  29.199   7.266   1.589  0.0903  0.0719  0.0042
78149W        W21140   6.505  28.310  15.250  0.1376 -0.0492  0.1665
78150W        W21141  15.786  13.739  17.192 -0.0896 -0.0457 -0.1873
78151W        W21142  20.342  26.646  24.935  0.3176  0.1398 -0.1381
78152W        W21143  33.751  23.736   5.335  0.1689 -0.2116  0.2918
78153W        W21144  25.017  21.642   2.072  0.1916 -0.1821 -0.2032
78154W        W21145  14.711   7.302   5.192 -0.0765 -0.1125 -0.1307
78155W        W21146  17.646  28.011  21.909  0.1435  0.2682 -0.2381
78156W        W21147  27.139  23.436  18.289 -0.0068 -0.0309  0.3611
78157W        W21148   2.527   5.424  10.282  0.1284 -0.1060  0.1115
78158W        W21149   5.019   0.997  28.933 -0.3603  0.6764  0.3875
78159W        W21150  13.732  27.507  20.214 -0.1414  0.0271 -0.0743
78160W        W21151  14.846  30.253  27.567  0.1954  0.0341 -0.0894
78161W        W21152   7.882  20.451  29.066  0.1914  0.0683 -0.0705
78162W        W21153  30.876   0.177  23.347 -0.1318  0.0853  0.0223
78163W        W21154   4.023   7.088  10.714  0.1364  0.3060  0.3529
78164W        W21155  23.772  26.260  13.849 -0.3301 -0.4453 -0.2626
78165W        W21156   8.924  24.322   6.159 -0.3431  0.0776  0.0927
78166W        W21157   2.644   5.393  15.985  0.0731  0.1011 -0.1557
78167W        W21158  26.563   8.574  15.718  0.2456 -0.1077  0.1440
78168W        W21159   7.756  32.359  23.325 -0.0044 -0.0334 -0.2414
78169W        W21160  17.693  30.378   4.989 -0.0070  0.0329 -0.1003
78170W        W21161   6.734   4.531   4.661 -0.2470 -0.0233  0.1182
78171W        W21162  14.252  22.419  26.454  0.1238 -0.4630 -0.2390
78172W        W21163  16.599  33.888  27.737 -0.0424  0.0749 -0.0365
78173W        W21164  18.146  18.257   3.138 -0.0345 -0.0552  0.1091
78174W        W21165  10.839  17.347  28.935  0.1627  0.2471  0.0816
78175W        W21166   4.938  19.325  16.331 -0.1535 -0.0410  0.1030
78176W        W21167  20.411  14.310   5.949  0.1006 -0.0269 -0.2394
78177W        W21168  34.025  30.860   2.576 -0.0309  0.2443  0.1520
78178W        W21169  21.287  27.787  25.552 -0.3808 -0.0352 -0.1707
78179W        W21170  26.029  21.426   5.960 -0.3712 -0.1423  0.1033
78180W        W21171  13.250  14.361   3.763 -0.1028  0.1279 -0.1824
78181W        W21172  11.934   5.290  26.715 -0.0024 -0.2442 -0.0020
78182W        W21173  13.542  22.100   7.335 -0.1672 -0.1815  0.0019
78183W        W21174   1.315  16.851  24.996 -0.0115 -0.0096  0.0633
78184W        W21175  20.790  24.430  20.720 -0.1989 -0.3088  0.1629
78185W        W21176  32.315  28.655  27.290 -0.0125  0.0174 -0.1355
78186W        W21177  11.590   9.065   4.894 -0.2259  0.2581  0.1328
78187W        W21178  19.127  21.107  25.578  0.1437 -0.0338  0.1439
78188W        W21179   4.472   0.551  24.997  0.3051 -0.2702  0.1022
78189W        W21180   5.430  29.035  21.611  0.0226 -0.2046 -0.1186
78190W        W21181   6.221   3.770  19.044 -0.0079  0.1591 -0.0009
78191W        W21182  21.647  32.258  25.983  0.1741  0.0978 -0.1945
78192W        W21183  22.090  28.805  28.365 -0.2110  0.0476  0.0876
78193W        W21184  10.176  29.904  18.962 -0.1194 -0.3682 -0.1416
78194W        W21185  23.385   3.081  24.988 -0.4690  0.0788  0.0891
78195W        W21186  22.630  15.572   2.169 -0.5277  0.2375 -0.3036
78196W        W21187  12.691  19.319   8.110 -0.0389  0.2431 -0.0304
78197W        W21188   7.191  12.528  21.056 -0.0261 -0.1510  0.0803
78198W        W21189  22.993  15.355   3.783  0.4438  0.1921  0.1781
78199W        W21190  33.507  21.487  24.198 -0.0398 -0.0187 -0.0974
78200W        W21191  14.971  25.918  24.683 -0.2562  0.2542 -0.3208
78201W        W21192  23.167  16.287  26.925 -0.0228 -0.0556  0.0307
78202W        W21193  17.670  28.614  26.994 -0.2678 -0.0506  0.0053
78203W        W21194  17.471  21.644  22.304  0.5059  0.2011  0.0785
78204W        W21195  23.202  29.725   2.248  0.1844 -0.1571  0.0543
78205W        W21196  10.061   9.654  22.778  0.0504 -0.0308  0.2291
78206W        W21197  13.202  17.928  23.754 -0.0792 -0.3200 -0.0459
78207W        W21198   8.086   4.908  22.424  0.0809 -0.0272  0.0135
78208W        W21199  16.290   4.735   1.916  0.2596 -0.2671  0.0380
78209W        W21200  27.869  25.227  28.574  0.2089  0.0655 -0.2857
78210W        W21201  12.589  21.870   4.323 -0.0505 -0.1323  0.0320
78211W        W21202  18.692  21.567  23.225  0.0340 -0.0364  0.0944
78212W        W21203  23.884  17.550   4.387 -0.0122  0.1040 -0.3524
78213W        W21204  23.069  16.675  17.987 -0.1810  0.3782  0.0726
78214W        W21205  15.224  27.446  23.792  0.0532 -0.3594  0.1116
78215W        W21206  20.535  34.468  23.177 -0.0935 -0.1664 -0.0680
78216W        W21207  24.502  28.428  28.787  0.0432  0.0814  0.0707
78217W        W21208  29.891  18.892  16.911  0.0475  0.2792 -0.2536
78218W        W21209   4.514  25.504  20.048  0.1220  0.1128  0.1375
78219W        W21210  12.630  20.198   9.763  0.0928 -0.2473  0.0737
78220W        W21211  10.955  10.542  27.556 -0.1622 -0.2389  0.0806
78221W        W21212  12.683  29.300   7.442  0.0928 -0.1227 -0.0797
78222W        W21213  10.470  10.512  18.561 -0.2866  0.0236 -0.0686
78223W        W21214  13.535   5.444  15.772 -0.1348 -0.0318  0.1870
78224W        W21215   8.776  31.082  25.913  0.0787  0.0016  0.1235
78225W        W21216  15.055  24.806  17.290 -0.1400  0.2663 -0.1313
78226W        W21217  13.010  34.513  16.814  0.3272  0.1066  0.0025
78227W        W21218  33.841  30.529   3.449 -0.1744  0.1659  0.0933
78228W        W21219   8.210   9.092  28.430 -0.1138 -0.1019  0.2563
78229W        W21220  13.640  13.311  18.511 -0.4226  0.2501  0.3430
78230W        W21221   3.834  24.159   0.063  0.0723 -0.1615 -0.1900
78231W        W21222  26.018  30.750  23.623 -0.2512 -0.0045 -0.2170
78232W        W21223  22.115   9.384   1.528 -0.2488  0.2769  0.0760
78233W        W21224  22.737  20.026   6.903  0.1473 -0.0025  0.1046
78234W        W21225  11.950  22.363   6.319  0.1489 -0.3847  0.1731
78235W        W21226  14.241  25.830   4.177  0.2090 -0.1853  0.0939
78236W        W21227  14.077  17.168  13.444 -0.1858  0.2579 -0.1239
78237W        W21228  25.345  32.446  17.022 -0.1761  0.1965 -0.1126
78238W        W21229  14.624  22.030   7.006 -0.3158 -0.0744 -0.3057
78239W        W21230  13.277  20.325  25.235 -0.0955 -0.3273 -0.2866
78240W        W21231  13.852  25.622   5.123 -0.1073 -0.1520  0.2561
78241W        W21232   4.292  20.218  16.003 -0.2158 -0.1916 -0.0944
78242W        W21233  22.027  19.608  17.452  0.0381  0.4886 -0.1564
78243W        W21234  20.920  30.010  27.691  0.1621  0.0467 -0.0996
78244W        W21235  16.156   7.045  27.327 -0.2116 -0.0495  0.4975
78245W        W21236  21.593  22.614   7.441 -0.1349 -0.0008  0.0564
78246W        W21237  23.253  28.725   8.911 -0.0672  0.2975  0.2335
78247W        W21238   6.803   3.788   3.872  0.1211 -0.2448 -0.2869
78248W        W21239  15.133   7.825  28.942  0.3320  0.2367  0.1990
78249W        W21240   8.705  33.084  17.949  0.0091  0.2433 -0.1060
78250W        W21241  30.221  29.838   5.286 -0.0430 -0.0739  0.1741
78251W        W21242  13.727  22.366  15.814  0.2015  0.0663 -0.1358
78252W        W21243  28.429   9.112  26.566  0.1085  0.3008  0.0770
78253W        W21244  31.281  34.600   3.638  0.0903 -0.1786 -0.0682
78254W        W21245   3.144  13.440  14.969  0.1994  0.0404 -0.1918
78255W        W21246  28.277  25.855  18.585 -0.0674  0.0090 -0.4139
78256W        W21247  28.064  33.633  25.916 -0.0337 -0.0691 -0.3268
78257W        W21248   4.178  15.809  19.639  0.1219  0.2120  0.0539
78258W        W21249  14.956  19.120  24.711  0.0323 -0.0423 -0.0299
78259W        W21250  27.924  11.820   2.803  0.2756  0.0175 -0.0482
78260W        W21251  11.305  26.014  27.370  0.3344  0.1764  0.1130
78261W        W21252  17.649   8.849  27.110  0.3962 -0.1861 -0.1219
78262W        W21253  23.552  32.405  20.617  0.0604 -0.2963 -0.1401
78263W        W21254  20.380  30.202   6.669  0.2351  0.0255 -0.3297
78264W        W21255  32.248  16.726  19.000 -0.0440 -0.3585  0.1370
78265W        W21256  12.863  21.508  22.326 -0.0070 -0.3049 -0.0801
78266W        W21257   5.263  11.215   1.520 -0.1125 -0.0450  0.4640
78267W        W21258   7.470  32.902   7.675 -0.1092 -0.2433  0.4830
78268W        W21259  15.117  25.900  19.494 -0.2482 -0.3731 -0.1067
78269W        W21260  18.904   0.162   1.347 -0.2373  0.1201  0.2135
78270W        W21261   8.749  17.914   0.881 -0.0251 -0.3253  0.0052
78271W        W21262  33.778  24.540   6.032  0.2041  0.1896 -0.2124
78272W        W21263  17.298   7.288  24.478 -0.0182  0.0541 -0.1128
78273W        W21264  23.223  22.445  21.989 -0.0255 -0.2871 -0.0929
78274W        W21265  10.371  32.046   9.551 -0.2707 -0.0714 -0.1371
78275W        W21266  29.621  34.012   5.007 -0.2148 -0.3190 -0.1597
78276W        W21267  15.914   8.928  22.619 -0.0643  0.0230  0.3749
78277W        W21268  13.091  33.467  21.859  0.0227 -0.0295 -0.0743
78278W        W21269   7.254  33.531  27.839  0.0915 -0.1617 -0.1360
78279W        W21270   3.601   4.925  21.786 -0.0071 -0.1542 -0.3234
78280W        W21271  18.866   6.070  27.324 -0.2463 -0.0044  0.1038
78281W        W21272  16.993  20.908   3.570 -0.2368 -0.0831 -0.1951
78282W        W21273  11.554  29.660  27.294 -0.0254  0.0431 -0.2564
78283W        W21274  33.509  24.064  16.130  0.0809 -0.1267  0.1025
78284W        W21275  11.753  27.825  25.913 -0.3228  0.1927 -0.1628
78285W        W21276  18.437  27.433  16.530 -0.0934 -0.1134 -0.0596
78286W        W21277   7.110  22.749  23.051  0.1300  0.1526  0.0728
78287W        W21278  23.577  31.854  26.185  0.0810  0.0720  0.0348
78288W        W21279  14.419  31.901  17.446 -0.4833  0.1191 -0.0640
78289W        W21280  33.566  21.056  27.315 -0.1759 -0.1521  0.0638
78290W        W21281   2.456  17.467  11.233  0.0635  0.4063 -0.3043
78291W        W21282   4.272  16.003   1.034 -0.2701 -0.1261 -0.2706
78292W        W21283  11.103  18.848  15.999 -0.2705  0.0600 -0.0318
78293W        W21284  12.579  28.123   2.088  0.1216  0.0368  0.1626
78294W        W21285  33.389   3.615   1.700 -0.1567  0.0658 -0.1097
78295W        W21286   1.128  22.401  22.468 -0.1458  0.1637 -0.4187
78296W        W21287  20.271  18.350  25.741 -0.1148  0.3056 -0.0465
78297W        W21288  10.590  28.744  19.788 -0.0482 -0.0147  0.3958
78298W        W21289  27.947   7.743  17.452 -0.2654 -0.0673 -0.0338
78299W        W21290   9.530  30.551   5.196  0.0272 -0.0140 -0.2457
78300W        W21291  27.092  31.503  15.383 -0.2166 -0.0440 -0.1016
78301W        W21292   4.377   3.295  16.771 -0.1496 -0.1116  0.2199
78302W        W21293  17.358  18.564  26.668 -0.1571 -0.1349 -0.1825
78303W        W21294   9.934  27.210   4.446 -0.1274 -0.2010 -0.0998
78304W        W21295  19.383  32.028  26.587  0.0144 -0.1361 -0.1553
78305W        W21296   8.830  22.602   1.082 -0.0136 -0.1901  0.2160
78306W        W21297  20.720  16.339  25.492 -0.0806  0.2263  0.0027
78307W        W21298  27.369  17.593   9.653  0.0552 -0.1455  0.2199
78308W        W21299   4.760  28.201   2.051  0.0694 -0.1411 -0.2425
78309W        W21300  21.710  26.605   2.900 -0.0067 -0.1141  0.2807
78310W        W21301   9.973  23.605  22.945  0.1106 -0.0989 -0.1319
78311W        W21302   6.225  18.592  27.614  0.1492 -0.4194 -0.1861
78312W        W21303  23.689  25.025   7.425  0.3379  0.0758 -0.2210
78313W        W21304  10.348   8.362   7.648 -0.3480 -0.0229 -0.0807
78314W        W21305  22.041  31.313  16.130 -0.1230 -0.2639 -0.1011
78315W        W21306  23.202  10.534  15.148  0.2112  0.0405 -0.1033
78316W        W21307  27.113  20.231  16.454 -0.1056  0.1506  0.1118
78317W        W21308  21.626  12.948   4.718  0.0161  0.2654  0.1831
78318W        W21309  24.154  32.742  26.589 -0.1276  0.0305 -0.0575
78319W        W21310   7.047  27.920  27.142  0.0756 -0.0909  0.2443
78320W        W21311  32.889  30.437   1.295  0.1765 -0.1751  0.2474
78321W        W21312  14.027  17.522   7.007 -0.1223  0.3399  0.2122
78322W        W21313  16.670  32.463  26.900 -0.1548  0.0725 -0.2271
78323W        W21314  19.364   1.477  26.440  0.1301 -0.1545 -0.1959
78324W        W21315  14.470  18.897  27.348  0.1847  0.0982  0.1988
78325W        W21316  24.699  29.908  27.472  0.3440  0.0808  0.1142
78326W        W21317   1.532  25.100  23.709 -0.1708  0.2985 -0.0114
78327W        W21318  18.818  29.296   5.550 -0.1905 -0.0588  0.1910
78328W        W21319  13.402  14.430   9.070 -0.0464 -0.1376 -0.1580
78329W        W21320   1.216   1.005  27.452 -0.0776  0.3574 -0.0865
78330W        W21321  27.299  13.783   7.980 -0.4710 -0.0664 -0.3201
78331W        W21322  28.821   2.137  13.777 -0.2725 -0.1512  0.1016
78332W        W21323  17.370  23.541   8.287 -0.2213 -0.0010  0.0701
78333W        W21324   1.152  17.586  10.638 -0.0212 -0.2136  0.2364
78334W        W21325   9.967  29.685  15.225  0.0413  0.2952  0.4244
78335W        W21326  14.394  30.779   6.680  0.0302 -0.0661  0.0908
78336W        W21327  19.127   0.103  16.794  0.2967  0.1239  0.0706
78337W        W21328  24.640  20.381  15.505 -0.0007  0.2105 -0.0475
78338W        W21329   4.561  24.123  27.962 -0.1616  0.0742 -0.5043
78339W        W21330   8.322  20.288   0.718  0.0341 -0.1693 -0.0268
78340W        W21331  31.944  29.747  19.042 -0.0589  0.0148 -0.2499
78341W        W21332  17.408  27.443   5.792  0.1246 -0.1867 -0.2521
78342W        W21333  28.243  25.782  26.396 -0.1058  0.2319  0.3479
78343W        W21334  23.063  29.396   7.889  0.1843 -0.1966  0.1056
78344W        W21335  14.539  19.913   1.278  0.0962  0.2050 -0.3229
78345W        W21336   0.946   0.086  15.600 -0.0736 -0.1831 -0.0109
78346W        W21337   6.750   9.748  24.709 -0.0437  0.1092 -0.2304
78347W        W21338  16.033  16.988  12.906  0.0667 -0.1397  0.2943
78348W        W21339   9.836  18.988   1.870  0.0922 -0.0554  0.2550
78349W        W21340  34.258  19.738  20.926  0.0782 -0.1111 -0.2326
78350W        W21341  11.750  32.158  25.084 -0.1612  0.2444 -0.0223
78351W        W21342   0.296   3.898  16.777  0.1889  0.1870 -0.1534
78352W        W21343  17.095   6.224  27.361 -0.1817  0.0089 -0.1365
78353W        W21344  24.763  23.729  29.086  0.0782  0.1917 -0.0730
78354W        W21345  12.451  24.409   5.567 -0.0848  0.0593 -0.3205
78355W        W21346  20.600   0.058   5.093 -0.0126 -0.1133  0.0451
78356W        W21347  12.720   3.175   0.775  0.0282 -0.1984 -0.0173
78357W        W21348  14.451  25.995  16.342 -0.0224 -0.2885  0.1138
78358W        W21349  30.392   2.550  17.614 -0.0300 -0.0190 -0.1361
78359W        W21350  20.490   3.174   6.500 -0.0032  0.0518  0.1314
78360W        W21351   6.326  10.679  23.750  0.3172  0.0458  0.0127
78361W        W21352  20.284  25.080  26.370 -0.0542  0.1029  0.1639
78362W        W21353  13.848  15.341  17.678 -0.1175  0.0779 -0.2458
78363W        W21354  16.280   9.738   5.999  0.0129 -0.5155 -0.0913
78364W        W21355   9.139  25.345  23.266  0.0204 -0.0878  0.1223
78365W        W21356  16.058   3.858  15.742  0.0114 -0.1497 -0.1395
78366W        W21357  20.441  32.308  26.601  0.2231 -0.1791 -0.1006
78367W        W21358   7.877  13.776   8.622 -0.0996  0.0508 -0.2095
78368W        W21359  17.364  19.216   9.127 -0.0237  0.1329  0.2658
78369W        W21360  17.173  20.546  26.490  0.1199  0.0466  0.2366
78370W        W21361  30.799  18.053   0.085  0.0112 -0.0611 -0.2001
78371W        W21362  26.417  22.317  17.218  0.3536 -0.1321 -0.0932
78372W        W21363   8.119  21.170   1.267  0.0804 -0.0979 -0.3521
78373W        W21364  29.786  15.156   5.358  0.0882  0.4280  0.0176
78374W        W21365  17.972  19.902   0.513 -0.1584  0.0931 -0.1740
78375W        W21366  22.436  20.834  25.174  0.1171  0.2374  0.2020
78376W        W21367   1.287  26.579   3.893  0.2416  0.0460  0.0301
78377W        W21368   4.145  32.111   6.480 -0.3171  0.2417  0.0479
78378W        W21369   8.827  34.227   2.376  0.0245 -0.3147 -0.1762
78379W        W21370  16.902  23.743  25.354 -0.1369  0.2735  0.0256
78380W        W21371  16.545  11.307   0.313  0.0902  0.0974 -0.0875
78381W        W21372  24.964  19.001  20.621 -0.0392  0.2144  0.1934
78382W        W21373  12.386  30.702   2.679  0.0357  0.0113 -0.1301
78383W        W21374   0.767  22.417   2.701  0.2617  0.0210 -0.0267
78384W        W21375  25.326  27.533  26.136  0.2418  0.0366 -0.0202
78385W        W21376  32.408  25.593  16.779  0.0373  0.2922  0.0559
78386W        W21377  25.355  29.174  22.227  0.3155 -0.1805 -0.1457
78387W        W21378  11.665   9.879   8.717  0.0787 -0.1772  0.4424
78388W        W21379  17.440   7.296   0.553  0.0653  0.1431 -0.1359
78389W        W21380  14.300  13.827   1.611 -0.1574  0.0117 -0.1906
78390W        W21381  15.936   4.595  28.897  0.0569  0.3265 -0.2144
78391W        W21382   7.539  11.022  14.822 -0.0005 -0.2772  0.2754
78392W        W21383  20.675  16.347   4.109  0.2479  0.1450 -0.0368
78393W        W21384  31.019  30.952  15.935 -0.3719  0.0854 -0.0347
78394W        W21385  25.477  21.145  19.923 -0.3014  0.1713 -0.1050
78395W        W21386  17.997  21.943  20.697 -0.1036 -0.0414  0.0148
78396W        W21387   7.444  21.882  26.368 -0.2454  0.0409 -0.1431
78397W        W21388  12.742  21.347   2.235 -0.2497 -0.2912  0.1475
78398W        W21389  19.993  25.019  27.751 -0.0639  0.2812  0.0090
78399W        W21390  20.708  22.989  16.739 -0.2830  0.3227 -0.1000
78400W        W21391   9.980  19.279  27.635  0.1197 -0.0339  0.0345
78401W        W21392  13.894  26.747   9.077 -0.0697 -0.0712  0.1943
78402W        W21393  22.175  13.008  27.977  0.1090 -0.0931 -0.0163
78403W        W21394  26.047   6.874   5.480  0.0380  0.0740  0.3588
78404W        W21395   8.367  25.691  28.529  0.0046  0.1639 -0.1733
78405W        W21396  21.335  24.644   5.995 -0.2369  0.0319  0.0683
78406W        W21397  16.137  22.882  24.806 -0.2438 -0.0777  0.3623
78407W        W21398  12.901  23.253  24.365  0.2548  0.2069  0.0761
78408W        W21399   2.008  15.364   5.023  0.2943  0.2805 -0.0947
78409W        W21400   9.497  25.394   1.244  0.1516 -0.2638  0.0095
78410W        W21401  20.964  25.452  21.675  0.0135  0.2011  0.0166
78411W        W21402  23.300  14.453   5.274  0.1183 -0.1470 -0.1752
78412W        W21403  13.830  33.414   2.871 -0.0052  0.0635  0.1082
78413W        W21404  14.791  26.063   9.040 -0.1225  0.2134 -0.0001
78414W        W21405   5.789  26.719  23.808 -0.1918  0.0090 -0.0499
78415W        W21406  17.171  10.374   7.107  0.1075 -0.0336 -0.0057
78416W        W21407  21.657  28.567  18.121  0.2286  0.0014  0.2817
78417W        W21408   5.734  18.220   3.822 -0.0383  0.2485  0.4488
78418W        W21409  17.923  19.842  27.556 -0.0075  0.0177 -0.1040
78419W        W21410  11.857  13.113   0.900 -0.0548  0.2823  0.2663
78420W        W21411   7.531  13.398  24.836  0.0216  0.0749  0.0784
78421W        W21412   9.934  16.737  15.243 -0.1012  0.2604 -0.2702
78422W        W21413  29.572  12.106  14.879 -0.0690 -0.1363  0.0359
78423W        W21414   9.205   4.606  26.506 -0.0149 -0.1293  0.0081
78424W        W21415  14.627  15.469  22.631  0.1321  0.1881  0.1857
78425W        W21416  20.620  25.973  17.272 -0.4450 -0.1778 -0.0755
78426W        W21417  14.584  30.848  22.388  0.0919  0.0246  0.1557
78427W        W21418  19.202  19.845  12.969  0.0121  0.0958 -0.3490
78428W        W21419   1.434  22.614   8.292  0.0379 -0.0303 -0.0986
78429W        W21420  23.866  25.486  27.604  0.1081 -0.0135 -0.0625
78430W        W21421  30.626  25.856  22.338 -0.0691 -0.1662  0.0717
78431W        W21422  24.005  22.879  28.284  0.1213 -0.2106  0.1631
78432W        W21423  14.608  20.825  21.516 -0.2148 -0.0087 -0.0421
78433W        W21424   3.823  29.627  27.893 -0.0723  0.1631 -0.2761
78434W        W21425  20.669  20.260  25.933 -0.1240  0.0479  0.0664
78435W        W21426   1.720   5.453  17.623  0.0268  0.0534 -0.0028
78436W        W21427   7.748  24.002  27.149 -0.1422  0.0113 -0.0401
78437W        W21428  21.712  11.142   3.982  0.1514 -0.2245 -0.0976
78438W        W21429  21.861  13.895  27.125  0.2603  0.0423 -0.0221
78439W        W21430   4.040  26.490  20.831 -0.0555  0.0899 -0.1120
78440W        W21431  14.614  23.648   0.604 -0.0362  0.0012  0.0313
78441W        W21432  12.658  18.339  27.241 -0.0358 -0.1669  0.1172
78442W        W21433  24.579  28.638   3.948  0.1470 -0.4238 -0.0638
78443W        W21434   5.834  28.349   4.015  0.0912 -0.2496  0.0104
78444W        W21435  12.195   0.622  27.991 -0.0221 -0.0780 -0.0620
78445W        W21436  16.874  15.488  29.018  0.1159 -0.1542  0.1873
78446W        W21437  25.476  22.228  15.577  0.3319  0.2748  0.0194
78447W        W21438  11.489   2.300   8.721  0.1850 -0.0420 -0.2009
78448W        W21439  11.227  17.692  16.556  0.2491  0.0817  0.0321
78449W        W21440  19.299  34.315   0.911 -0.2628 -0.2074  0.0480
78450W        W21441  15.680  28.544  26.672  0.1677 -0.1691  0.0774
78451W        W21442  27.064   1.201  18.817  0.3586  0.0974  0.3066
78452W        W21443  14.488  20.568  20.685  0.2507 -0.1908 -0.0273
78453W        W21444   2.641  22.561  18.631  0.1561 -0.3547 -0.4118
78454W        W21445  20.191  19.921  17.042  0.1883  0.0244  0.1829
78455W        W21446  31.794  30.018  13.927 -0.0373  0.1917 -0.1062
78456W        W21447  22.419  29.275  22.517  0.1269  0.2641  0.4149
78457W        W21448  15.277  23.480   7.520 -0.1306  0.0265  0.0930
78458W        W21449  30.232   0.440  21.965  0.1006 -0.2511  0.1266
78459W        W21450  15.109  22.129   2.719  0.0984  0.0750  0.3233
78460W        W21451  19.412  24.925   4.095  0.2186 -0.2373  0.3721
78461W        W21452  30.483  10.719   3.301 -0.3177  0.2973 -0.3245
78462W        W21453  16.387  31.710  24.005  0.0316 -0.0539  0.0186
78463W        W21454  24.844  25.716   3.541  0.0485 -0.0219 -0.3062
78464W        W21455  22.123  17.235  28.187 -0.0827  0.0221  0.2525
78465W        W21456  12.505  20.329  23.633 -0.0168  0.1363 -0.2286
78466W        W21457  15.058  18.099   4.863  0.0412  0.1445 -0.2270
78467W        W21458  20.888  24.509  15.612 -0.0127  0.0838 -0.0783
78468W        W21459  16.918  22.873  16.132 -0.0216  0.0851  0.1283
78469W        W21460  11.965   1.998   0.224  0.0574 -0.1360  0.1504
78470W        W21461  18.121  31.264   8.035  0.1847  0.5275  0.0060
78471W        W21462  27.512  24.926  21.814 -0.0163  0.0819  0.2251
78472W        W21463  19.179  10.945  14.734 -0.1677  0.3057  0.1425
78473W        W21464   5.175  15.142  11.634  0.2260 -0.1174  0.0249
78474W        W21465  10.136  22.960  17.766 -0.0903 -0.0279 -0.2603
78475W        W21466  25.509   7.643  20.123 -0.3461  0.0903 -0.0138
78476W        W21467   6.010  24.439  15.922  0.1789  0.0851 -0.0540
78477W        W21468  29.763  21.559  24.651  0.2522  0.1050 -0.1423
78478W        W21469   6.661  19.252   0.675 -0.2457 -0.3436  0.2936
78479W        W21470  23.037  24.624   7.434  0.1627  0.0099 -0.1406
78480W        W21471  25.682  30.191  21.721  0.1807  0.1556 -0.0228
78481W        W21472  20.529  27.964   0.897 -0.0795 -0.2376  0.0583
78482W        W21473  18.003  12.864  26.958  0.0572 -0.3180  0.0343
78483W        W21474   9.908   6.283   1.169  0.0285 -0.0227 -0.1180
78484W        W21475  11.662  29.307  25.343 -0.1337  0.0214  0.2203
78485W        W21476  16.526  18.325   5.312 -0.1127 -0.1503 -0.1098
78486W        W21477  17.488  22.481  22.670  0.2316 -0.1219 -0.0324
78487W        W21478   5.058  17.122   0.822 -0.0991  0.0005  0.0973
78488W        W21479   8.215  30.907  20.303  0.0021  0.2052 -0.2006
78489W        W21480   4.671  20.071   4.103 -0.1729  0.0014 -0.0619
78490W        W21481  25.072  17.432   6.039  0.1314 -0.2985  0.3894
78491W        W21482  33.150  28.964   0.050  0.0359  0.2747 -0.1319
78492W        W21483  18.106  32.672  22.584 -0.2227  0.2261  0.3588
78493W        W21484  19.244  15.198   5.139 -0.1069 -0.2481 -0.1060
78494W        W21485  15.929  20.559  20.813  0.2457 -0.1060  0.1052
78495W        W21486  22.089  20.753  20.405  0.0392  0.2160  0.0783
78496W        W21487   4.094  22.316  28.104  0.2160  0.5574 -0.2554
78497W        W21488   9.028   2.692   2.491  0.1559  0.1860  0.0408
78498W        W21489   9.081  32.537  14.761 -0.3278 -0.2230 -0.3814
78499W        W21490  28.362  11.597   1.996  0.2023 -0.0625 -0.4149
78500W        W21491  11.565  15.328   9.522 -0.2345 -0.3585  0.2734
78501W        W21492  14.652  30.460   7.934  0.4238  0.3285  0.2004
78502W        W21493  27.432  16.537  25.689 -0.2784  0.2078  0.1442
78503W        W21494  30.007  13.161   3.431  0.0025 -0.1496  0.1408
78504W        W21495  10.864  24.065  17.215 -0.0297 -0.1312 -0.4116
78505W        W21496  13.929  22.489  23.684 -0.0143 -0.0437 -0.1285
78506W        W21497  14.685  16.833   7.173  0.3262  0.0838 -0.1309
78507W        W21498   9.275   4.808   6.515  0.1060 -0.1310  0.0804
78508W        W21499  34.392   3.669   6.110 -0.1341  0.1511  0.0607
78509W        W21500  24.977  10.474  17.549  0.0061 -0.0768 -0.1076
78510W        W21501   3.740  15.270  18.213  0.1218  0.1641  0.0947
78511W        W21502  14.563  12.814  20.297 -0.0735 -0.0205 -0.2249
78512W        W21503  15.240  25.126  25.923 -0.1938  0.0030  0.3156
78513W        W21504  15.253  18.672   7.731 -0.1512 -0.1460 -0.2296
78514W        W21505  14.715  22.274  22.093  0.2269 -0.0993  0.0655
78515W        W21506  23.160  22.838  25.048 -0.0748  0.2296  0.1382
78516W        W21507  17.074  22.822   7.988 -0.0573 -0.0462  0.3823
78517W        W21508  22.066  18.492  23.435 -0.2646 -0.0587  0.1366
78518W        W21509  13.692  27.606  18.946 -0.0898 -0.1290  0.0708
78519W        W21510  25.237  18.507   9.386 -0.1874  0.2026 -0.0599
78520W        W21511   7.997  33.797   1.638  0.3977 -0.1662  0.0555
78521W        W21512  23.596   8.268   6.411  0.0210  0.2057  0.2523
78522W        W21513  22.806  12.779   0.027 -0.1845  0.2156 -0.1610
78523W        W21514   2.721   3.635   8.969 -0.2953 -0.0645 -0.0295
78524W        W21515  21.146  23.477   3.939  0.1843  0.1797  0.2855
78525W        W21516   3.861  27.082   0.258 -0.0333  0.0603  0.1971
78526W        W21517  12.691  34.673   7.024 -0.1816  0.3633 -0.1152
78527W        W21518  14.204  11.873  20.776 -0.2217  0.4640  0.1972
78528W        W21519  15.253  32.213  23.660 -0.0200 -0.2086  0.1780
78529W        W21520  10.248  30.879  24.977  0.2205 -0.0488 -0.1299
78530W        W21521   0.950  10.333  26.216  0.0931  0.2614 -0.1643
78531W        W21522   7.004   4.270   0.152 -0.0396 -0.1339  0.2214
78532W        W21523  25.187  29.528  22.671 -0.0310  0.1010  0.1459
78533W        W21524  16.281  15.693   7.961  0.1130 -0.0781  0.1077
78534W        W21525   9.468  18.876  17.265  0.1258  0.0187 -0.0822
78535W        W21526  12.700   4.256  23.104  0.1137  0.2750 -0.1061
78536W        W21527  31.648  28.443  21.462  0.0818  0.0803 -0.1212
78537W        W21528   7.750   3.123   2.142  0.2245 -0.3306 -0.2076
78538W        W21529   8.677  21.280  18.606  0.0750 -0.1184  0.1136
78539W        W21530  18.700  34.547  19.167 -0.0452  0.0757 -0.0605
78540W        W21531   4.742  31.422  21.471 -0.0312 -0.1990 -0.0361
78541W        W21532  23.576   9.383  14.279 -0.0029  0.4435  0.3166
78542W        W21533  14.674  22.106   5.212  0.1490 -0.1730  0.4006
78543W        W21534  10.398  15.707  27.750 -0.3250 -0.2263 -0.0226
78544W        W21535  15.179  16.143   8.427  0.0894  0.1796  0.2825
78545W        W21536   4.812  32.973  22.480  0.1263  0.3464 -0.2264
78546W        W21537  25.775  18.753  22.533  0.2166  0.0720  0.2299
78547W        W21538  23.805  33.471   2.315 -0.1715  0.0511 -0.0113
78548W        W21539  15.143  29.043   8.627  0.1483  0.2298 -0.1140
78549W        W21540  13.027  11.866   5.573  0.1673  0.0871 -0.0092
78550W        W21541  20.661  29.277   6.588  0.2489 -0.2000  0.0744
78551W        W21542  31.829  27.186   5.119 -0.0609  0.0145  0.0098
78552W        W21543  24.489  26.029  19.614 -0.0068 -0.3453  0.0002
78553W        W21544  18.742  21.293   7.078  0.0960  0.0863 -0.2327
78554W        W21545  12.926  28.151   8.365  0.0364  0.0822  0.0817
78555W        W21546  21.988  25.756   7.346 -0.3721 -0.4624 -0.0080
78556W        W21547  12.167  16.105  16.750 -0.0536 -0.1374  0.0641
78557W        W21548  12.822  24.974  26.483 -0.2841 -0.5547  0.0576
78558W        W21549  29.040  26.326   0.717 -0.1753 -0.1209 -0.0017
78559W        W21550  22.185  24.851   6.463  0.0130  0.1882 -0.0343
78560W        W21551  11.313  22.377  27.933 -0.1183 -0.1814 -0.1105
78561W        W21552   8.609  31.758  20.933 -0.3330 -0.0784 -0.1861
78562W        W21553  13.724   4.427   1.231  0.0812  0.0357 -0.0523
78563W        W21554  20.958   7.058  25.740 -0.0338  0.2129 -0.0889
78564W        W21555  19.862  23.670  16.606 -0.1484 -0.0530  0.1109
78565W        W21556  11.551  12.495  29.107  0.1009  0.4309 -0.0310
78566W        W21557  30.250  30.479   3.568  0.0227 -0.2661  0.1808
78567W        W21558  18.469  21.856   9.206  0.2130 -0.1018  0.0030
78568W        W21559  34.725  20.836   0.552 -0.3690  0.0571 -0.0574
78569W        W21560  13.045  26.021  22.923  0.0282  0.0468 -0.3383
78570W        W21561  13.718  14.324  26.509 -0.0017 -0.1488  0.2368
78571W        W21562  14.470  25.586   6.621  0.4851 -0.0098 -0.1488
78572W        W21563  22.005  19.857  21.920  0.1126 -0.0842  0.3296
78573W        W21564  31.771  23.072  26.668 -0.0715 -0.1056 -0.2018
78574W        W21565  22.394  17.413  23.733 -0.1659  0.2705 -0.1958
78575W        W21566  13.789  32.600  14.165 -0.1692 -0.1749 -0.0078
78576W        W21567  22.771  30.505  14.189  0.1337 -0.2058 -0.1117
78577W        W21568  13.306  20.325  16.116 -0.3277  0.1504 -0.2423
78578W        W21569  31.723  25.265  16.031 -0.1094  0.1272  0.0801
78579W        W21570  19.110  21.846  15.249 -0.1088 -0.0703  0.0438
78580W        W21571  15.243  33.046   9.612 -0.0170  0.0825  0.0486
78581W        W21572  13.581  17.751  20.306  0.1772  0.1093  0.1165
78582W        W21573  22.458  22.698  23.795  0.0580 -0.2854  0.0173
78583W        W21574  23.673  32.327  13.201 -0.0713 -0.0784  0.1434
78584W        W21575  18.548  29.645   3.518  0.0156 -0.0759 -0.1651
78585W        W21576  15.339  34.712  15.243 -0.1321  0.2177  0.1240
78586W        W21577   2.307  25.747  18.811  0.0209 -0.1544 -0.0410
78587W        W21578   4.663  16.258  28.851  0.0280  0.1651 -0.0811
78588W        W21579  10.966  28.704  17.294  0.0056  0.0643 -0.3282
78589W        W21580  29.166   3.453  29.022 -0.0052  0.3108  0.1110
78590W        W21581   5.943  29.882  13.935 -0.4069  0.3002  0.1770
78591W        W21582  13.315  14.652  16.563  0.0836  0.1970  0.0517
78592W        W21583  16.793  30.176  17.624 -0.0135  0.5559  0.2609
78593W        W21584  12.621  16.937  26.149 -0.1394 -0.0756 -0.3881
78594W        W21585  23.399  31.234  28.882  0.2259 -0.2058  0.2435
78595W        W21586  15.134  26.662  19.001 -0.0842 -0.0665  0.0927
78596W        W21587   3.519  31.030  27.137  0.2096 -0.0937  0.0373
78597W        W21588   7.604  32.757  18.998 -0.2448 -0.0607  0.1803
78598W        W21589  11.319  30.696  29.207  0.1897 -0.5526 -0.1008
78599W        W21590  23.690  31.759  19.000 -0.0223 -0.1185  0.0450
78600W        W21591   7.515  31.911  21.416 -0.1040 -0.1523  0.2417
78601W        W21592  20.867  30.723  14.560 -0.0543  0.0204  0.1192
78602W        W21593  18.493  26.825  20.928 -0.1561 -0.0467 -0.1999
78603W        W21594  10.990  25.606  15.701 -0.0058 -0.3122  0.0200
78604W        W21595  18.470   3.586  14.288  0.0973 -0.1838 -0.1271
78605W        W21596  10.570  34.304  25.712  0.2858 -0.1302  0.0582
78606W        W21597  11.241  30.804  21.045 -0.0977  0.1664 -0.2894
78607W        W21598   5.189  33.411  24.222 -0.0931  0.0106  0.1953
78608W        W21599  31.190  29.479  18.404  0.0276  0.0107 -0.0680
78609W        W21600   3.701   0.117  14.669  0.1805 -0.0377  0.1647
78610W        W21601   1.237  33.784  19.459  0.0619 -0.1601  0.0944
78611W        W21602  31.201   6.347  22.666 -0.0857  0.0536 -0.0601
78612W        W21603  19.172   2.709   1.140  0.2931  0.3315  0.0187
78613W        W21604   0.905  21.445  17.911  0.0706  0.1007  0.1132
78614W        W21605   2.736  24.759  17.798 -0.0535 -0.0615  0.2962
78615W        W21606  34.098  13.810  26.044  0.1575  0.1174 -0.2108
78616W        W21607  28.105  12.884  18.832  0.2114 -0.3077 -0.1206
78617W        W21608  10.901  23.489  18.038  0.1790 -0.1336 -0.3390
78618W        W21609  10.879  29.469   0.539 -0.0989 -0.0792 -0.4260
78619W        W21610  15.585  19.682  12.775 -0.0075 -0.2684 -0.3971
78620W        W21611  21.404  31.741  26.009  0.0763  0.3715  0.4116
78621W        W21612  12.811   3.729  16.516 -0.0150 -0.2198 -0.1926
78622W        W21613  20.241  31.080  25.258  0.1943  0.0887 -0.4627
78623W        W21614  30.007  30.587  25.547  0.1207 -0.0536 -0.2264
78624W        W21615  31.278  28.026  24.695  0.0870 -0.1584  0.2667
78625W        W21616   3.860  21.845  19.640  0.1684 -0.0793 -0.2661
78626W        W21617  10.580  15.289  15.373 -0.2708 -0.1965 -0.0126
78627W        W21618  31.440   2.050  22.778  0.2621  0.0725 -0.2128
78628W        W21619  15.518  33.307  19.560 -0.1146 -0.2068 -0.1230
78629W        W21620  26.611  25.448  26.579 -0.2917  0.0388  0.1647
78630W        W21621  25.941  27.668  17.542  0.2613 -0.1119 -0.1122
78631W        W21622   7.260  24.920  16.375  0.2318  0.2086  0.0125
78632W        W21623  18.458  24.042  16.522  0.0049 -0.0658  0.2139
78633W        W21624  32.776  17.352  23.848 -0.6836  0.2449 -0.0335
78634W        W21625   8.240  30.772  22.485 -0.1563 -0.2380  0.0466
78635W        W21626  13.555  30.388  17.498 -0.0103  0.2273 -0.0472
78636W        W21627   6.478  21.036  18.527 -0.0965  0.1214 -0.1920
78637W        W21628   1.358  21.084  24.029 -0.1172  0.1095 -0.1617
78638W        W21629  19.869  32.508  15.912 -0.3116 -0.1123  0.4143
78639W        W21630  19.646  10.200  14.901 -0.0278 -0.1669 -0.0870
78640W        W21631   9.015  13.578   1.352 -0.0033 -0.1775  0.0116
78641W        W21632   6.299  22.523  25.676  0.0334 -0.1030  0.0996
78642W        W21633  30.699  30.739  21.330 -0.5291  0.2209  0.0648
78643W        W21634  20.093  22.965  24.539  0.2776  0.0924 -0.0258
78644W        W21635  15.987  30.685  23.257  0.3614 -0.2964 -0.1766
78645W        W21636  23.106  19.239  18.380 -0.0625 -0.0406  0.0519
78646W        W21637  23.038  20.404  15.401 -0.0490 -0.0088 -0.1000
78647W        W21638   2.738  24.630  15.307  0.2218  0.1011 -0.3113
78648W        W21639  18.831   9.645  18.353 -0.1062  0.1053  0.1973
78649W        W21640  11.150  33.818  22.988 -0.0750  0.0003  0.1389
78650W        W21641  21.709  24.600  20.419  0.2385 -0.1932  0.0976
78651W        W21642  23.856  31.865  20.927 -0.3646  0.2285 -0.1026
78652W        W21643  16.742  34.503  22.930  0.0107  0.1268  0.0340
78653W        W21644  14.667  21.872  20.190  0.1995 -0.0671 -0.1799
78654W        W21645  25.914   0.840  16.213 -0.1798  0.0348 -0.3825
78655W        W21646  15.393  26.902  26.990  0.0442  0.3855  0.0566
78656W        W21647  16.236  26.674  22.354 -0.2220  0.1723 -0.0919
78657W        W21648  26.886  21.711  14.691 -0.1247  0.0409  0.0430
78658W        W21649   6.720  15.149  19.249  0.1221  0.1026 -0.2398
78659W        W21650  19.503  30.799  13.349 -0.1092 -0.1328 -0.1559
78660W        W21651   6.819  26.305  19.311  0.2691  0.0798 -0.0901
78661W        W21652  26.062  31.791  24.815  0.2512  0.0271 -0.2429
78662W        W21653  22.554  16.803  23.261 -0.3132 -0.1937  0.0885
78663W        W21654  24.425  21.191  13.576  0.0278  0.1790 -0.1616
78664W        W21655  25.264  30.548  17.487  0.0873 -0.0827 -0.3015
78665W        W21656  15.272   2.601  20.470 -0.2149  0.1390  0.1483
78666W        W21657  31.193   2.837  19.625 -0.2465  0.1439 -0.0154
78667W        W21658  34.449  26.595  27.499  0.1475  0.0447 -0.2420
78668W        W21659  14.314  24.476  19.675  0.2055 -0.1864  0.2504
78669W        W21660  12.874  24.286  13.868  0.1262 -0.2509 -0.0833
78670W        W21661   9.779  32.183  24.365 -0.0803  0.1674  0.3126
78671W        W21662   8.298   4.979  21.094  0.1517  0.2252 -0.1010
78672W        W21663   6.665  31.889  20.812 -0.0614  0.0424 -0.2971
78673W        W21664  17.803  32.103  14.915 -0.1269  0.0043  0.2052
78674W        W21665  28.148  32.546  16.526 -0.1260  0.3073 -0.2643
78675W        W21666  16.841  16.587   0.294 -0.1676  0.0594  0.0375
78676W        W21667  31.435  23.705  17.397  0.0348 -0.1470  0.2473
78677W        W21668  26.526  25.261  19.887  0.2517 -0.3164  0.2193
78678W        W21669  20.057   6.499  20.166  0.0500 -0.4960  0.3189
78679W        W21670   8.479  20.063  16.445 -0.2228 -0.1940  0.0433
78680W        W21671   7.019  28.496  16.769  0.0165 -0.0776 -0.0017
78681W        W21672  31.416  28.621   4.640 -0.0382  0.1213 -0.1154
78682W        W21673  34.505  19.011  19.754 -0.0202 -0.0569 -0.1477
78683W        W21674  18.167  10.365   8.070 -0.0502  0.1632  0.1861
78684W        W21675   0.076  29.012  23.025  0.0929 -0.0741 -0.1794
78685W        W21676  19.910  34.028  24.282  0.0498 -0.3751  0.0358
78686W        W21677  16.639   1.772   1.385  0.1839  0.1273 -0.1962
78687W        W21678  18.028  28.675  23.759 -0.0169  0.2901 -0.0235
78688W        W21679  24.351   8.778  16.191  0.0107  0.0730  0.0432
78689W        W21680  32.267  22.555  17.650 -0.0459 -0.1444  0.0323
78690W        W21681  21.225  27.539  15.736 -0.2790  0.1062 -0.1096
78691W        W21682  14.096   8.327  17.891  0.0927  0.1383 -0.1338
78692W        W21683  22.223   0.583  14.606 -0.2912 -0.2310  0.0632
78693W        W21684  15.131  11.887   1.869 -0.1632 -0.2571  0.0500
78694W        W21685  16.037  26.064  21.046 -0.2779 -0.0676  0.1894
78695W        W21686  26.890   0.295  13.150  0.2516 -0.2641 -0.0356
78696W        W21687   9.370   0.965  17.458  0.3146  0.2703 -0.0361
78697W        W21688  24.410  24.118  20.588  0.0098 -0.0925  0.0304
78698W        W21689   2.981  27.647  18.068 -0.1425 -0.0151  0.3265
78699W        W21690   5.858  21.732  19.453 -0.3042 -0.0684  0.0503
78700W        W21691  12.569  17.080  23.228  0.1819  0.2187  0.4707
78701W        W21692  16.249  30.816  17.740  0.1854  0.0817  0.0535
78702W        W21693  17.401  28.114  18.845  0.0877 -0.1561  0.2640
78703W        W21694  24.400  32.340  18.618 -0.0083  0.1855  0.1108
78704W        W21695  11.432  30.684  16.623  0.0437 -0.3099  0.1824
78705W        W21696  12.048  32.212  20.489 -0.1397 -0.1044  0.0234
78706W        W21697   9.534  23.985   9.387 -0.0689 -0.0966 -0.0523
78707W        W21698   8.591  22.651  22.609 -0.1820  0.0395  0.1143
78708W        W21699  15.675   0.456  20.558  0.2166 -0.2798  0.2381
78709W        W21700  12.443  17.620  23.952  0.0052 -0.3199 -0.1638
78710W        W21701  31.741  26.517  16.630 -0.1699 -0.0706  0.2140
78711W        W21702  17.710   4.277   0.864  0.1159  0.0511  0.1104
78712W        W21703  11.952  34.426  16.211 -0.1280 -0.0090 -0.3068
78713W        W21704  15.449  27.890   0.334  0.0691 -0.0740 -0.3244
78714W        W21705  14.262  25.902  24.449  0.0972  0.0365 -0.2096
78715W        W21706   2.558  26.173  17.420 -0.0861  0.1608 -0.2206
78716W        W21707  17.372  23.734  19.800  0.4545  0.2491 -0.0065
78717W        W21708  15.095  23.405  17.199 -0.4940 -0.2217 -0.0314
78718W        W21709  12.864   6.297  25.761  0.1529  0.1045  0.2432
78719W        W21710  24.127   7.209  22.663  0.0492 -0.0273  0.4709
78720W        W21711  17.858  23.381  19.492 -0.1716  0.2106 -0.0960
78721W        W21712  10.362  15.355  26.861 -0.2594  0.2221  0.2181
78722W        W21713  29.038  31.877  25.273 -0.0585  0.0107  0.2044
78723W        W21714  16.481  27.501  19.753  0.3376 -0.0904 -0.0706
78724W        W21715   5.357  22.845  14.733 -0.0160 -0.0866  0.1799
78725W        W21716   1.170  31.976   7.008  0.2690  0.0713 -0.2329
78726W        W21717  26.450  26.966  26.077 -0.0536  0.3450 -0.0912
78727W        W21718  33.177  32.502  22.340  0.2165 -0.0510 -0.0860
78728W        W21719  11.482  21.670  19.127  0.2172 -0.1450  0.0963
78729W        W21720   9.280  31.043   1.680  0.1486 -0.0907  0.2626
78730W        W21721   8.070  28.534  21.266 -0.1079 -0.3053  0.0230
78731W        W21722  14.200  13.696   0.795 -0.1675  0.3133 -0.0404
78732W        W21723   5.545   5.520  19.136  0.2204 -0.3864 -0.1220
78733W        W21724  24.595  11.178  21.330  0.1306  0.1791 -0.0008
78734W        W21725  20.536  14.946  13.309 -0.1303 -0.0551  0.0234
78735W        W21726  29.042  26.376   3.605 -0.0829 -0.1496  0.2644
78736W        W21727  16.895  23.824  26.031  0.2377  0.2150  0.4821
78737W        W21728  28.446  24.676  24.790 -0.0565 -0.0776  0.1190
78738W        W21729  23.300   3.656  22.413  0.2485  0.0965  0.3010
78739W        W21730  10.808  20.104  29.232  0.0301 -0.0166  0.0675
78740W        W21731  10.879  25.047  25.115  0.1245 -0.1376 -0.2503
78741W        W21732  12.624  25.233   7.778 -0.3375  0.0086 -0.2197
78742W        W21733   3.207  27.999  19.527 -0.2693  0.4929  0.1593
78743W        W21734  15.987  10.100  19.688 -0.0987  0.2573  0.2288
78744W        W21735  13.220  32.035  15.290 -0.0365 -0.0764  0.1198
78745W        W21736  26.722  33.380  19.529  0.1895 -0.2925 -0.1382
78746W        W21737  25.395   8.549  16.194  0.1410 -0.0385  0.0666
78747W        W21738  18.167   1.419  22.617  0.1839  0.2304  0.0384
78748W        W21739  15.869  29.841  16.009  0.3138  0.1964  0.3583
78749W        W21740  12.534  32.196  18.489 -0.0156  0.2907  0.1160
78750W        W21741  15.584   1.815  18.782 -0.2655 -0.0708  0.0024
78751W        W21742  12.430  13.293  18.995 -0.2411  0.2537  0.3983
78752W        W21743  30.436   1.693  20.489 -0.1019 -0.0695 -0.2733
78753W        W21744  18.118  26.840  17.587 -0.3643  0.5714 -0.1375
78754W        W21745   8.964  28.858  15.231 -0.1053 -0.1607  0.2191
78755W        W21746  20.796  31.194  15.775 -0.5540  0.2767  0.3304
78756W        W21747   3.707  19.693  20.926 -0.2870 -0.1605 -0.0812
78757W        W21748  10.234   3.617   1.975  0.0694  0.0199  0.0545
78758W        W21749   2.798  20.735  17.908  0.2126  0.2562 -0.3290
78759W        W21750  23.296  29.959  25.318  0.0486 -0.1327 -0.1751
78760W        W21751  21.711  19.424  20.484  0.0261  0.1161  0.0800
78761W        W21752  20.158  19.829  21.273 -0.3098 -0.0510 -0.1055
78762W        W21753  29.616   6.433  14.314  0.2409 -0.1463  0.1727
78763W        W21754  32.949   0.514   3.482  0.1419  0.0411  0.1571
78764W        W21755  20.838   8.205  18.186  0.3600 -0.1887  0.0454
78765W        W21756  22.067  28.665  16.537 -0.3473 -0.1864  0.2341
78766W        W21757   3.541  27.213  25.299  0.1753  0.2177 -0.0899
78767W        W21758   4.048  28.548  17.018 -0.3587 -0.0179 -0.0271
78768W        W21759  13.935  19.582   3.894 -0.1036  0.0391  0.0776
78769W        W21760  18.250  23.306  25.118  0.1786  0.0914  0.1704
78770W        W21761  11.629  24.533  15.374  0.0395  0.1593  0.4444
78771W        W21762  14.693  18.996  16.032  0.0925  0.2200 -0.0356
78772W        W21763  18.911   2.480  14.644  0.0176  0.3026 -0.0595
78773W        W21764  14.272   0.390  27.619 -0.0968 -0.1376 -0.3025
78774W        W21765  20.503  22.826  20.724 -0.3427  0.0119  0.2156
78775W        W21766  16.592  34.497  15.992  0.0660 -0.2590  0.1436
78776W        W21767  21.588  31.000  24.113  0.0440 -0.1935  0.1744
78777W        W21768  20.473  23.004  15.834 -0.1692  0.0759 -0.0085
78778W        W21769  16.493  19.552  19.247 -0.0043  0.1990 -0.0213
78779W        W21770  22.210   2.471  20.779  0.0917  0.0625  0.2330
78780W        W21771  18.668  28.234  28.633  0.1904 -0.0792 -0.1726
78781W        W21772  23.191  22.641  20.102  0.0214  0.3108 -0.1466
78782W        W21773  20.170  22.969  12.502  0.2452 -0.2329 -0.1133
78783W        W21774  29.790  30.833  25.159 -0.1806  0.2069  0.2435
78784W        W21775  30.111  31.561   0.120 -0.3073  0.0188  0.0969
78785W        W21776  26.728  23.113   0.087 -0.3102 -0.2181 -0.1391
78786W        W21777  12.923   3.954  22.784  0.0817 -0.1067  0.1960
78787W        W21778  24.829  13.371  28.465  0.1799 -0.0169 -0.2341
78788W        W21779  25.021  11.921  25.963  0.1554 -0.1711  0.2329
78789W        W21780  27.369  20.330  18.393 -0.2798 -0.1298 -0.2563
78790W        W21781  21.067  33.592  21.822 -0.2894 -0.0133 -0.2224
78791W        W21782   3.949  33.179  17.059  0.0166 -0.0387 -0.3492
78792W        W21783  28.042  24.565  23.760 -0.0035  0.2712 -0.1047
78793W        W21784  13.790  19.687  13.548  0.2909  0.0742 -0.0008
78794W        W21785  25.133  29.290  14.498 -0.2905  0.1043  0.0160
78795W        W21786  31.721  18.035  22.618  0.1122 -0.2299  0.1271
78796W        W21787  13.337  21.842  24.201  0.1587 -0.1751  0.1984
78797W        W21788  14.707   0.623  18.030 -0.2290 -0.1199  0.2650
78798W        W21789   6.834  27.515  25.842  0.2335  0.0442 -0.3590
78799W        W21790   2.325  10.094  23.252  0.0486 -0.0398  0.2110
78800W        W21791  28.452  32.172   1.829 -0.2237  0.1051  0.0880
78801W        W21792  16.682   8.768  24.642  0.0936 -0.4444  0.0174
78802W        W21793   7.493  30.434  18.035  0.0992  0.2038 -0.0958
78803W        W21794   1.788  24.738   1.591 -0.0962  0.0035  0.0224
78804W        W21795   6.314  28.846  17.320  0.0625  0.0481  0.0538
78805W        W21796  15.009  29.297  16.856 -0.1810 -0.2037 -0.0724
78806W        W21797  24.846  17.694   2.003 -0.1612  0.0208  0.0174
78807W        W21798   8.263  10.088   3.753 -0.1763 -0.2373 -0.0329
78808W        W21799  27.534  34.236  13.737 -0.2016  0.0700 -0.1308
78809W        W21800  22.702  30.819  19.414 -0.0590 -0.2333 -0.4910
78810W        W21801   5.905  30.879  25.288  0.1640  0.0757 -0.1542
78811W        W21802  17.893  21.679  24.229  0.3189 -0.1520 -0.1357
78812W        W21803  34.756  29.056  26.551  0.3515  0.1335 -0.1004
78813W        W21804  23.154   2.251  15.781 -0.0413 -0.0210  0.2190
78814W        W21805  11.220  33.318  27.752 -0.0920  0.2311  0.0010
78815W        W21806  29.998  33.918  18.912  0.0931 -0.1144 -0.5450
78816W        W21807  17.933  33.437  15.180  0.2145 -0.1749 -0.2103
78817W        W21808  29.844  33.215  13.458  0.1643  0.1198  0.1452
78818W        W21809   4.757  17.599  16.335 -0.1066 -0.1302  0.1683
78819W        W21810   0.554  30.430  15.259 -0.0684  0.1962  0.0452
78820W        W21811   7.648  33.095  17.906 -0.0123 -0.0620  0.0167
78821W        W21812  14.521   2.341  23.660  0.1282 -0.1263  0.0437
78822W        W21813  23.081  33.902  16.648 -0.1738  0.2234 -0.1732
78823W        W21814  18.582  29.686  14.980  0.2025  0.0848 -0.1290
78824W        W21815   6.486  23.377  15.011 -0.0367  0.2188 -0.1367
78825W        W21816  29.588  15.528   6.066 -0.1699  0.0451  0.1046
78826W        W21817  11.977  27.038  20.617  0.2387  0.1608  0.2835
78827W        W21818  12.302  26.524  19.563 -0.0384 -0.1938  0.2839
78828W        W21819  13.544  27.739  23.140 -0.1609  0.1020  0.0347
78829W        W21820   6.013  19.669   6.466 -0.1009  0.0135  0.1427
78830W        W21821   6.597  25.060  23.149  0.0524 -0.0398 -0.0979
78831W        W21822  26.380  17.387  15.266 -0.1743  0.0308  0.1593
78832W        W21823  14.456   5.388  20.216  0.2329 -0.0841 -0.0478
78833W        W21824  13.532   6.469  15.684  0.0265 -0.1923 -0.2265
78834W        W21825  15.576   2.260  22.342 -0.3490  0.2312 -0.2137
78835W        W21826  18.431   3.722  19.321 -0.1666 -0.2624 -0.0425
78836W        W21827  13.935  31.866  14.646  0.0793  0.1560  0.2633
78837W        W21828  12.720  29.260  25.940 -0.2922  0.0890 -0.0655
78838W        W21829  26.357  27.053  25.426  0.4379 -0.0848 -0.1573
78839W        W21830   2.390  23.126  22.240 -0.1784  0.0286 -0.1423
78840W        W21831   0.228  18.591  27.082 -0.1603  0.2258 -0.2187
78841W        W21832  28.946  26.350  12.951 -0.1800 -0.0260  0.1314
78842W        W21833  10.612  19.357  14.671 -0.3819 -0.3345 -0.0962
78843W        W21834  24.679   0.500  18.327 -0.1601 -0.1917 -0.0083
78844W        W21835  16.285  33.658  21.272 -0.1143 -0.1122 -0.0489
78845W        W21836  29.332  26.766   1.852 -0.0752 -0.1331 -0.0352
78846W        W21837   0.825  22.644  23.941  0.0748  0.2228 -0.3045
78847W        W21838  19.205   5.210   3.682 -0.1305  0.0682  0.1995
78848W        W21839  22.981  23.760   1.690  0.2801 -0.1351  0.2299
78849W        W21840  10.192  23.451  28.787 -0.0524  0.4118  0.0958
78850W        W21841  20.720  25.449  15.348 -0.0856 -0.2567  0.2945
78851W        W21842  16.379   1.014  16.596 -0.2957  0.1011 -0.0604
78852W        W21843  22.546  34.167  20.807  0.4225 -0.0243 -0.0887
78853W        W21844  19.600   6.631   6.018 -0.0958 -0.2055 -0.0630
78854W        W21845  22.727   0.802  14.957  0.0052 -0.1900 -0.0756
78855W        W21846  18.711   5.591  24.861  0.2120  0.0588  0.0700
78856W        W21847   8.850   6.363  14.920 -0.2437  0.2085 -0.0874
78857W        W21848  33.285  26.074  17.365 -0.1741  0.1117 -0.1367
78858W        W21849  12.308  20.150  22.884 -0.1820 -0.0336  0.2021
78859W        W21850  17.628  26.406  27.462 -0.0116  0.0378  0.1822
78860W        W21851  15.415  28.240  23.598  0.0142 -0.0786 -0.2044
78861W        W21852  12.934  27.813  17.013 -0.4264  0.0751  0.0803
78862W        W21853  22.966  16.041  13.519 -0.2147 -0.1000  0.2343
78863W        W21854  15.253   3.152  16.062 -0.2321  0.0067 -0.2008
78864W        W21855  14.567  24.272  23.469  0.0812 -0.1096 -0.1615
78865W        W21856   8.556  30.733  26.809  0.0534  0.0199 -0.2745
78866W        W21857  22.657   3.929  14.260 -0.0198 -0.2349 -0.1654
78867W        W21858  11.769  16.633  26.909  0.2756 -0.0006  0.0489
78868W        W21859  15.051  23.351  18.417 -0.0057  0.0181  0.2504
78869W        W21860  16.925  30.407   6.540  0.2251  0.0461  0.0334
78870W        W21861  31.386  21.143  15.522 -0.3247 -0.2949 -0.3725
78871W        W21862   9.424  10.279  16.722  0.2999 -0.1333 -0.4624
78872W        W21863  25.629  31.808  25.683 -0.2897  0.0440 -0.0089
78873W        W21864  20.918  25.823  16.106  0.0781  0.1308 -0.0127
78874W        W21865  20.289  17.753  16.845  0.2645  0.2333  0.0626
78875W        W21866  11.659  22.863   2.609  0.0407 -0.0199 -0.0358
78876W        W21867  33.781  28.053  21.158  0.1228  0.0640  0.0793
78877W        W21868  12.147  19.362  17.455  0.4210 -0.0769 -0.1149
78878W        W21869   7.158  19.815  22.833 -0.0142 -0.1850  0.0317
78879W        W21870  10.321  19.017  24.448 -0.2116 -0.1126  0.0220
78880W        W21871  15.819  20.296  23.594  0.0110  0.1819  0.2355
78881W        W21872  17.512   3.330  21.681 -0.4029 -0.1399 -0.1505
78882W        W21873   8.212  31.006  17.924  0.0949  0.0797  0.1808
78883W        W21874  15.384  26.112  14.551  0.0143  0.1802 -0.0011
78884W        W21875  16.208  17.131  14.243 -0.0882 -0.1686 -0.0977
78885W        W21876   9.352   0.458  23.017 -0.2129  0.2149  0.1366
78886W        W21877  29.528  33.787   5.470  0.1629 -0.2300  0.0253
78887W        W21878   3.771  22.694  25.273 -0.0529 -0.1679  0.1988
78888W        W21879   7.649  27.494  21.558 -0.1598  0.0190 -0.3047
78889W        W21880  16.110  31.682   9.299  0.0904  0.0365  0.1335
78890W        W21881  24.763   2.783  19.320 -0.3011  0.0389  0.5618
78891W        W21882  13.678  29.449  20.418  0.1337  0.2310 -0.0425
78892W        W21883  18.663  30.854  22.172  0.0358 -0.1543  0.0928
78893W        W21884  21.130   2.805   0.477  0.0192 -0.1889 -0.1559
78894W        W21885  28.116  34.314  20.474 -0.4483  0.1758  0.0739
78895W        W21886  17.135   0.495  14.782 -0.1867  0.1578 -0.3705
78896W        W21887  15.165   6.391  14.867 -0.3315 -0.1267 -0.0863
78897W        W21888  17.153  20.692  24.887  0.1578 -0.0981  0.1488
78898W        W21889  25.635   1.901  13.064 -0.0182 -0.1625  0.0518
78899W        W21890   8.136  26.910  19.234  0.0824 -0.0213  0.0300
78900W        W21891  29.294  10.311   2.368  0.2264 -0.1060 -0.0445
78901W        W21892  11.341  33.226  19.985 -0.3136  0.2171 -0.2351
78902W        W21893  29.206  17.416  25.192 -0.1082  0.2854 -0.0521
78903W        W21894  32.863   8.210  15.153 -0.0765 -0.1802  0.0195
78904W        W21895  28.183  30.492   4.441  0.0309  0.2089 -0.0477
78905W        W21896   0.183  33.763  20.518 -0.1825 -0.3114  0.2226
78906W        W21897  23.693  19.434  17.736  0.0307 -0.0499  0.3212
78907W        W21898  11.262  22.943  18.849 -0.3800 -0.1892 -0.2071
78908W        W21899   4.008  20.764  16.978 -0.1754  0.0078  0.0123
78909W        W21900  19.712  29.269  15.572 -0.1960 -0.0647 -0.0367
78910W        W21901  34.225  32.002  24.472 -0.0985 -0.0316 -0.1468
78911W        W21902  19.591  27.359  25.248  0.2286  0.0130  0.0994
78912W        W21903  21.212  12.913   1.377  0.4724 -0.3987  0.0082
78913W        W21904   6.196  11.370  17.789  0.1456  0.0526 -0.1156
78914W        W21905   6.175  15.301  22.118 -0.2545  0.0323 -0.0800
78915W        W21906  19.573   1.524  19.253  0.3666  0.1874 -0.0663
78916W        W21907  20.221   2.615  17.212  0.1549 -0.2281  0.2217
78917W        W21908  15.513  24.693  18.160  0.0173 -0.1147 -0.2065
78918W        W21909  14.522  33.426  20.027  0.0974  0.0332 -0.1579
78919W        W21910  11.658  14.216  19.407 -0.1569 -0.0249 -0.0830
78920W        W21911   4.307   0.162  17.993 -0.1687 -0.0324  0.0410
78921W        W21912  16.989  12.076  19.002  0.3010 -0.0120  0.0352
78922W        W21913  15.831  32.914   3.771 -0.1689 -0.2534 -0.1150
78923W        W21914  24.472  28.483  24.720  0.3248 -0.0402  0.0609
78924W        W21915  11.583  18.328  18.621 -0.2371  0.1586  0.1537
78925W        W21916  13.272   0.659  26.187  0.0080  0.2701  0.1044
78926W        W21917  23.792   0.865  18.998 -0.0637  0.1818 -0.0628
78927W        W21918  24.552  24.259  18.374  0.0929 -0.2817  0.5722
78928W        W21919   4.884   5.765  16.931 -0.1259 -0.0369  0.1965
78929W        W21920  11.303  26.457  26.002  0.0450  0.1374 -0.1484
78930W        W21921  31.230   1.829  18.299 -0.0800  0.0545 -0.0391
78931W        W21922   9.939  28.604  27.765  0.0452  0.3516  0.0246
78932W        W21923  33.047  33.896  18.186  0.0279  0.0975 -0.0205
78933W        W21924  26.928  27.737  25.065  0.0349 -0.1763  0.3740
78934W        W21925  25.776  28.711  23.593  0.0613  0.1821  0.2329
78935W        W21926  27.378  27.988  19.556  0.2658  0.2716  0.0881
78936W        W21927  11.046  13.919  24.218  0.0997 -0.2529  0.2797
78937W        W21928   5.705   7.009  23.217 -0.2663  0.0166 -0.0046
78938W        W21929  29.891  25.634  21.769 -0.0082  0.2101 -0.1199
78939W        W21930  12.204  28.607  16.171 -0.0795  0.0862 -0.2675
78940W        W21931  22.955  24.527  15.254 -0.1348  0.0424  0.3167
78941W        W21932  13.045  31.562  25.623  0.0843 -0.0655 -0.1304
78942W        W21933  16.402  31.739  21.351  0.0119 -0.2478 -0.2900
78943W        W21934  15.099   3.473  21.737 -0.3273 -0.1336  0.0574
78944W        W21935  13.808  30.156  20.742  0.0529 -0.0401 -0.2126
78945W        W21936   7.803  29.393  19.307 -0.0008 -0.2170  0.1108
78946W        W21937  20.518  24.503  22.844  0.3410  0.0211 -0.1317
78947W        W21938  32.725  11.670  19.304 -0.1106  0.2328 -0.2360
78948W        W21939   9.668   0.825  24.284 -0.1820 -0.0753 -0.2389
78949W        W21940  29.177  30.908  23.951  0.0088 -0.0159  0.1494
78950W        W21941  18.931  12.926  28.379 -0.4348 -0.0716  0.4988
78951W        W21942   4.063   3.597  16.481 -0.1389 -0.1288 -0.1581
78952W        W21943  13.023   2.812  17.475  0.0197  0.5045  0.2571
78953W        W21944  30.172  31.940  14.748 -0.1644  0.2573 -0.4616
78954W        W21945   9.798  25.577  16.322  0.2531 -0.0649  0.3902
78955W        W21946   8.708  27.673  17.066  0.3749  0.2971 -0.1344
78956W        W21947  14.802   4.311   5.716  0.0442 -0.4708 -0.1543
78957W        W21948  10.243  25.431  16.127 -0.1411 -0.2229  0.0024
78958W        W21949  14.835  27.298  23.434  0.0749 -0.1339 -0.1508
78959W        W21950  28.300  21.539  19.858  0.2685 -0.1086  0.5896
78960W        W21951  24.525  24.903  16.588 -0.2957 -0.4517 -0.2048
78961W        W21952  22.755  31.690  22.744 -0.0884 -0.0417  0.0322
78962W        W21953  19.248  32.330  21.596  0.0977 -0.0360  0.1884
78963W        W21954  29.522  32.368  17.144 -0.1465 -0.1416  0.2136
78964W        W21955  17.586  28.355  13.789  0.1168  0.1782  0.2096
78965W        W21956   1.664  34.514  27.343 -0.0357  0.3679  0.0911
78966W        W21957  22.324  14.973  16.015  0.1734 -0.1548 -0.0618
78967W        W21958  33.655  29.768  22.408 -0.2864 -0.2351 -0.0301
78968W        W21959  16.026   5.646  27.549 -0.1097  0.0977  0.1452
78969W        W21960  13.744  25.578  20.483 -0.0971  0.1348  0.1407
78970W        W21961  10.001  23.958  16.376 -0.0438 -0.1021  0.0471
78971W        W21962  16.638  13.331  16.746  0.0502  0.0665 -0.2680
78972W        W21963  34.218  29.650  25.249 -0.1865  0.0636 -0.0964
78973W        W21964   8.246   3.834  25.805 -0.1711 -0.2254  0.0860
78974W        W21965  33.068  30.491  13.865 -0.0677  0.2532 -0.0227
78975W        W21966  17.110  21.113  18.215  0.1720  0.1641 -0.1188
78976W        W21967  12.603  12.695  19.172  0.2983  0.2174 -0.1293
78977W        W21968  12.044  18.133  13.932  0.0905  0.1266 -0.1798
78978W        W21969   7.317   1.532  17.576  0.5130 -0.0397 -0.1022
78979W        W21970  21.057  10.929  19.134  0.1283 -0.1195  0.1461
78980W        W21971  19.464  22.284  17.663 -0.1433 -0.0494  0.1666
78981W        W21972   3.441  27.636  17.665 -0.0082  0.0680  0.0318
78982W        W21973  28.207  27.680  18.339  0.1185  0.0110  0.0303
78983W        W21974  33.172  22.846  17.359  0.0570 -0.2011  0.1515
78984W        W21975  16.894  20.268  26.133 -0.0509 -0.2089  0.2426
78985W        W21976  10.364   7.437  17.473 -0.0993 -0.1491  0.2505
78986W        W21977  14.860  33.597  20.790  0.0285  0.2520  0.0520
78987W        W21978   1.443  30.402  26.208  0.2378  0.0805  0.4856
78988W        W21979  14.047  24.423  17.307 -0.0725 -0.1184 -0.2114
78989W        W21980  16.854  31.858   2.037  0.1758 -0.0951  0.2350
78990W        W21981  11.848   4.100  21.121  0.2098 -0.1940 -0.0882
78991W        W21982  25.910  10.251  21.231  0.1899 -0.0320  0.2160
78992W        W21983  30.813  28.745  27.487 -0.3265 -0.1175  0.0105
78993W        W21984  27.189  30.207  16.946 -0.0496 -0.2435 -0.0394
78994W        W21985  14.062  28.471  25.025 -0.1792  0.0497  0.0823
78995W        W21986  23.490  23.556  27.157  0.2719 -0.0649  0.1342
78996W        W21987  12.712  26.016  16.122  0.1871  0.0780  0.3767
78997W        W21988   2.906  32.875  28.152  0.0421 -0.2625 -0.0763
78998W        W21989  16.111  29.679  14.430 -0.1218  0.2812  0.1573
78999W        W21990  16.928   7.732  17.299  0.1412  0.0204 -0.0406
79000W        W21991  26.002   9.800  13.176  0.2055 -0.0291 -0.2094
79001W        W21992  26.664   0.194   0.069 -0.1651 -0.1407  0.3205
79002W        W21993  14.236  33.678  23.204 -0.0885 -0.2908 -0.0973
79003W        W21994  20.224   7.597  25.712  0.1823  0.2437 -0.1044
79004W        W21995   5.768   6.643  10.574  0.2199  0.0655  0.0118
79005W        W21996   4.941  32.333  20.855 -0.0797 -0.0630 -0.1332
79006W        W21997   0.467  31.553  29.226 -0.1018  0.1107  0.0242
79007W        W21998  22.097   4.809  24.842  0.4816 -0.0108  0.0643
79008W        W21999  24.264  11.220  27.653 -0.1089 -0.1813  0.1431
79009W        W22000  19.820  20.771  18.969  0.0666  0.6295  0.0149
79010W        W22001  16.701  33.275  20.026 -0.0607  0.1865  0.0027
79011W        W22002  12.527  29.588  21.128 -0.0380 -0.0266 -0.1161
79012W        W22003  28.624  33.388  27.053 -0.1669 -0.2094  0.1238
79013W        W22004  14.450  18.043  14.961 -0.0258  0.2180 -0.1180
79014W        W22005  34.622  28.216   4.258  0.0998  0.0538  0.1971
79015W        W22006  22.423  28.449  13.007  0.0297  0.0167  0.2750
79016W        W22007   2.032  28.248  15.099 -0.1093  0.1461 -0.2306
79017W        W22008  26.678  21.489   1.660  0.0083 -0.0169 -0.2688
79018W        W22009  20.655  29.716  26.876  0.2101 -0.3127  0.3804
79019W        W22010   8.126  29.261  23.899 -0.0492 -0.0230 -0.3230
79020W        W22011   1.808  27.107  23.521 -0.0815  0.0514 -0.3640
79021W        W22012  22.672  23.839  23.282 -0.0882 -0.3842  0.0872
79022W        W22013  23.104   8.281  20.443 -0.0574  0.3251  0.1346
79023W        W22014   3.765  33.911   4.291  0.1036 -0.1982  0.1557
79024W        W22015   8.325   4.060  23.475  0.0839  0.1081 -0.1750
79025W        W22016  23.035  27.934  24.771 -0.0121  0.2904 -0.4403
79026W        W22017  31.859  31.834  14.903 -0.1705 -0.0612 -0.2591
79027W        W22018  14.108  31.732  18.643  0.0730  0.1078 -0.4093
79028W        W22019  24.315  12.188  21.872 -0.2542 -0.2411 -0.2977
79029W        W22020  11.462  10.024  16.629  0.0666 -0.2553  0.0505
79030W        W22021  13.092   6.181  17.511  0.2793 -0.0183 -0.2471
79031W        W22022   4.549  33.118  17.357 -0.1985 -0.2307  0.0882
79032W        W22023  19.809   0.408  19.409  0.2260  0.1439 -0.0781
79033W        W22024  33.601  11.682  28.191 -0.1406 -0.0869 -0.0935
79034W        W22025  26.526  23.038  21.170 -0.0014 -0.1476 -0.3689
79035W        W22026  25.775  26.258  25.975  0.0964  0.0482  0.1193
79036W        W22027  24.041  26.925   6.827 -0.1364  0.0969  0.0443
79037W        W22028   6.886   2.918   2.177  0.0753 -0.1820 -0.1175
79038W        W22029   6.974  22.432  15.973 -0.1486 -0.1528  0.0135
79039W        W22030  25.554  19.359  23.516  0.3630  0.0517  0.2450
79040W        W22031  24.702   2.856  16.508  0.0264  0.0617 -0.1291
79041W        W22032  14.375  18.414   0.610 -0.3699 -0.0725  0.0886
79042W        W22033  18.843   3.021  28.170  0.1534 -0.1237 -0.3700
79043W        W22034   1.180  11.885  22.501 -0.0431  0.0536 -0.0656
79044W        W22035  21.191  17.197  15.612  0.1979 -0.1545  0.1386
79045W        W22036  12.463  34.589  20.162 -0.1680  0.3333 -0.0135
79046W        W22037  24.331  16.365  19.144 -0.1784 -0.0019  0.1804
79047W        W22038  33.518  30.696  14.878  0.0803  0.0025 -0.0546
79048W        W22039   1.519   9.515  10.480  0.2110  0.2993 -0.1853
79049W        W22040  21.895  16.486  15.333  0.2145  0.0527 -0.3038
79050W        W22041  22.168   4.257   4.449  0.2847  0.0088  0.0354
79051W        W22042  11.114  17.331  15.032  0.1287 -0.1057 -0.1822
79052W        W22043  12.275  29.655  23.082  0.4401  0.0425 -0.1630
79053W        W22044  28.231   7.299  18.944 -0.3488  0.2592  0.0112
79054W        W22045  18.848   0.147  24.182 -0.1727 -0.1975  0.0406
79055W        W22046  26.192  12.307  17.822 -0.1525  0.0802  0.0725
79056W        W22047  20.670  18.917  28.554 -0.2686 -0.0146  0.4681
79057W        W22048  29.975  20.060  23.082  0.1469 -0.1536 -0.2351
79058W        W22049  16.500  23.796   3.458  0.0199  0.1897  0.2312
79059W        W22050  23.546  25.646   9.288 -0.2710 -0.0632 -0.0476
79060W        W22051   9.604  27.337   8.745 -0.0085  0.2328  0.3305
79061W        W22052  19.981  34.207  25.167 -0.0050  0.0310  0.1799
79062W        W22053   6.382  30.705  23.508  0.1610  0.0130  0.4441
79063W        W22054  18.481   8.962  28.964  0.1363  0.2588 -0.2398
79064W        W22055  19.778   5.519  25.995  0.2240 -0.1608  0.0301
79065W        W22056  14.498   5.352  16.191  0.1837 -0.0601 -0.3480
79066W        W22057  30.887  32.106  15.131  0.2094 -0.1655  0.0021
79067W        W22058  24.990  17.112   0.187  0.0436  0.0768 -0.0844
79068W        W22059  15.638  32.475  28.764  0.4040 -0.1113 -0.0730
79069W        W22060  16.938  24.863  14.083 -0.0828 -0.0442  0.0007
79070W        W22061  12.018   1.335  27.995 -0.2082  0.1339  0.1124
79071W        W22062  20.038  31.883  23.842 -0.0214  0.2004  0.0452
79072W        W22063  33.929  24.021  15.143  0.2871  0.2195 -0.0814
79073W        W22064  17.322   1.684  17.783  0.2596 -0.3394  0.1340
79074W        W22065  14.569   2.023   3.028  0.3211 -0.0221 -0.2181
79075W        W22066   1.184  27.425  25.901 -0.1086  0.2077 -0.0327
79076W        W22067  16.033  17.023  15.390 -0.2129 -0.1139 -0.0664
79077W        W22068  10.468  20.308  14.623 -0.0542 -0.2238  0.2493
79078W        W22069  15.830  23.761  13.711  0.0309 -0.3736  0.1279
79079W        W22070  30.755  27.623  20.004 -0.0711  0.0776 -0.0774
79080W        W22071   0.434  31.411  21.538 -0.0172  0.2360  0.0760
79081W        W22072  13.309  17.668  16.606  0.0763 -0.1080 -0.4503
79082W        W22073   0.710  31.800  18.168  0.1454  0.2209 -0.1298
79083W        W22074  34.641  24.324  26.405  0.2110 -0.0697 -0.1890
79084W        W22075   0.845  29.754  27.502  0.2008 -0.0854 -0.1760
79085W        W22076  22.274   1.345  15.587  0.1333 -0.2453 -0.0439
79086W        W22077  30.630  23.113  16.594  0.1414 -0.2580  0.2103
79087W        W22078  30.596   3.136   2.295 -0.0289  0.0236  0.0300
79088W        W22079  22.432  17.831   9.235  0.3226  0.0329  0.0537
79089W        W22080   8.936  28.942  21.147 -0.1408  0.1981  0.0958
79090W        W22081  32.050  15.351   0.841 -0.1389 -0.0793 -0.0358
79091W        W22082  11.743  19.114   2.074 -0.0004  0.1031  0.1526
79092W        W22083  22.067  23.619   1.057 -0.2060 -0.1487  0.2054
79093W        W22084  10.723   6.884  18.353 -0.1564 -0.1638  0.1060
79094W        W22085  30.636   5.442   2.591  0.2579 -0.0743  0.0572
79095W        W22086   5.575  32.222  18.085 -0.1096  0.2693  0.0857
79096W        W22087  10.347  28.502  17.194 -0.1356  0.3747  0.1034
79097W        W22088  31.167  23.319  14.548 -0.2131  0.2548  0.1309
79098W        W22089   4.159  20.521  15.645 -0.1030  0.0845 -0.1100
79099W        W22090   7.720   7.468  22.367  0.0125 -0.2233  0.1665
79100W        W22091  15.488   2.598   5.521 -0.1412 -0.1416  0.0068
79101W        W22092  23.824  33.087  26.369  0.1826 -0.1005  0.0398
79102W        W22093  19.249  24.713  20.221 -0.3136 -0.2087 -0.1096
79103W        W22094  12.842   1.914  19.973  0.2400 -0.2721  0.1617
79104W        W22095  17.232   9.019  22.887  0.4132  0.0942  0.2156
79105W        W22096  24.147  20.571   3.902  0.0610 -0.0409 -0.3282
79106W        W22097  11.193  14.604  23.552  0.1930  0.1260  0.1599
79107W        W22098   9.987  34.552  20.444  0.1245 -0.2357 -0.1298
79108W        W22099  31.488   9.383  28.957 -0.1523 -0.1294 -0.0896
79109W        W22100  22.433  33.094   0.108 -0.0840 -0.0173 -0.0568
79110W        W22101   2.743  15.726  17.529 -0.1267 -0.1289  0.1142
79111W        W22102  16.267  33.844  20.218 -0.0154  0.1597 -0.1990
79112W        W22103  24.381  31.186  21.170  0.2407 -0.1535  0.1784
79113W        W22104  23.629  20.538  27.505  0.2062 -0.0079  0.1079
79114W        W22105  28.706   7.562  19.732 -0.1277 -0.3263 -0.1205
79115W        W22106  26.241   1.472  23.615  0.1229 -0.0690  0.2765
79116W        W22107  34.529  26.517  29.235  0.1397  0.4341  0.0435
79117W        W22108  21.377  26.414  27.310  0.0940  0.0028  0.3719
79118W        W22109  10.820  15.082  19.639 -0.3063  0.1206 -0.2150
79119W        W22110  19.995  30.210   5.720 -0.1603  0.0354 -0.2304
79120W        W22111  19.035   1.270  18.407  0.4357  0.4501 -0.0687
79121W        W22112  11.833  28.110  18.686 -0.0995  0.1885  0.3392
79122W        W22113  27.395  16.796   1.007  0.2490  0.0617  0.0862
79123W        W22114  14.268  23.521  27.870  0.1952 -0.1870 -0.2986
79124W        W22115  20.099  31.170  28.574 -0.0657 -0.0597  0.1322
79125W        W22116  18.228   1.249  19.189 -0.1620 -0.2425 -0.0806
79126W        W22117  27.490  11.857  17.946  0.2322 -0.4198  0.0604
79127W        W22118  11.490  32.075   1.801  0.0006 -0.0695 -0.0944
79128W        W22119   1.279  34.193  22.188 -0.1628  0.2049  0.0133
79129W        W22120  15.583   8.805  20.423  0.1681 -0.3629 -0.0031
79130W        W22121  20.548  26.894  24.517 -0.3331 -0.3759 -0.1864
79131W        W22122  17.407  24.722  15.056  0.0732 -0.0962 -0.0588
79132W        W22123  29.805  27.166  19.251  0.1605 -0.3411 -0.1220
79133W        W22124  23.977   9.494   5.279  0.0624 -0.2225 -0.1749
79134W        W22125  18.119  32.923   1.288  0.3016  0.0211 -0.0092
79135W        W22126   2.467   4.157  19.798  0.1593 -0.1445 -0.0433
79136W        W22127   7.987  33.513   7.836  0.1827  0.1512 -0.1582
79137W        W22128   8.098  22.334  16.258 -0.2838 -0.0114  0.1080
79138W        W22129  18.485  12.405  21.685 -0.0398 -0.1558  0.1065
79139W        W22130  14.871   0.294  27.431  0.0765 -0.1459 -0.0712
79140W        W22131  17.618  16.136  26.889  0.2176  0.2433  0.1795
79141W        W22132  21.559  26.202  27.882  0.3634 -0.2946  0.0043
79142W        W22133  22.808  31.772  13.673 -0.2684 -0.0179  0.0298
79143W        W22134  11.149   9.744  20.741  0.1197  0.1929 -0.0203
79144W        W22135  13.092   7.156  15.716 -0.0608  0.4485 -0.2689
79145W        W22136  17.738  25.199  17.558 -0.1011 -0.0530  0.0514
79146W        W22137  29.208  19.065  10.202 -0.3682 -0.0053  0.1431
79147W        W22138  25.006   8.716  15.459  0.0428  0.1303 -0.0730
79148W        W22139  25.590   8.275  15.867 -0.0332  0.2623 -0.1545
79149W        W22140  28.310  31.924  13.642  0.0609  0.1170  0.3086
79150W        W22141  24.233  27.284  19.243 -0.0234  0.2099 -0.3375
79151W        W22142   5.212  26.001  27.012 -0.0366  0.3645 -0.1190
79152W        W22143  13.868  11.188  18.988  0.2940  0.1663 -0.1912
79153W        W22144  22.808  13.369  13.059  0.0685 -0.2311 -0.1747
79154W        W22145  16.750  10.974   0.994  0.2555 -0.0954 -0.1513
79155W        W22146   8.147  23.265  25.326 -0.3141  0.2429 -0.0062
79156W        W22147  20.671   8.689  21.620 -0.1626 -0.1650 -0.0263
79157W        W22148   0.442  26.821  19.337 -0.1188 -0.3227  0.0340
79158W        W22149  16.461  27.270   2.593 -0.2014 -0.0420 -0.0759
79159W        W22150   4.391  15.176  23.599 -0.0524 -0.3150  0.1246
79160W        W22151  12.690  20.779  15.943 -0.0870  0.1970  0.0780
79161W        W22152  31.126   6.740  25.622 -0.4318  0.2216 -0.1905
79162W        W22153  27.099  12.635  21.557 -0.0930  0.0698 -0.3361
79163W        W22154  29.037  14.202  17.656 -0.1530  0.1474  0.0151
79164W        W22155   9.537  32.381  23.918 -0.3034 -0.1383 -0.0749
79165W        W22156   3.879  25.789  23.742 -0.0838  0.0065 -0.0990
79166W        W22157   7.429  32.081   0.593 -0.0142  0.2079 -0.1797
79167W        W22158  25.921   4.925   7.975  0.4743 -0.0318 -0.1508
79168W        W22159  26.005  32.197  22.429  0.2835 -0.1373 -0.2726
79169W        W22160  16.452   4.349  17.899  0.2379 -0.0558 -0.0178
79170W        W22161  13.679  27.498  17.473 -0.2803  0.3120 -0.2296
79171W        W22162  18.005   8.851  19.437 -0.0649  0.0557  0.0971
79172W        W22163  12.168   4.368  24.117 -0.3228 -0.0919 -0.4713
79173W        W22164   2.786   0.009  14.775  0.0699 -0.2660  0.0096
79174W        W22165   0.069   0.056   9.033  0.1379 -0.1006 -0.0796
79175W        W22166  22.855  26.945  18.905  0.1915 -0.3892 -0.2420
79176W        W22167  25.503  34.205   1.601  0.1966 -0.0304  0.1016
79177W        W22168   8.021  24.632  20.439  0.2235 -0.0023 -0.2447
79178W        W22169  17.073  20.916  15.227  0.3714 -0.1623  0.3590
79179W        W22170  24.995  21.734   0.869  0.0299 -0.0569 -0.2325
79180W        W22171  26.904  21.466  17.634 -0.1159  0.0458  0.2203
79181W        W22172  10.951  18.958   0.937 -0.0114  0.1024  0.1823
79182W        W22173  17.504  30.370  18.887 -0.2235  0.0612 -0.0598
79183W        W22174  29.013  25.093  16.449 -0.0522 -0.0203  0.3147
79184W        W22175   3.866  19.954  28.155  0.3603 -0.0605 -0.1633
79185W        W22176  26.599  10.947   3.785  0.1964  0.2440  0.0471
79186W        W22177  10.017  28.678  16.237  0.0182 -0.2154  0.2847
79187W        W22178  28.651   5.762  28.039  0.4712 -0.1227  0.1194
79188W        W22179  31.523  29.370  16.426 -0.3748 -0.1126 -0.0519
79189W        W22180   9.982  33.730   0.514  0.0006  0.2552 -0.2670
79190W        W22181  29.357  24.925  22.189  0.0970 -0.3028 -0.0859
79191W        W22182  25.649  18.038  15.928 -0.0652 -0.1410  0.0912
79192W        W22183  11.321  26.868  18.251 -0.0062  0.3321  0.3305
79193W        W22184   7.302   7.972  21.130  0.0666 -0.2993  0.2428
79194W        W22185   8.377   3.545  21.454  0.1846 -0.0173  0.0829
79195W        W22186   3.789  20.734  24.519  0.0447 -0.6158 -0.0884
79196W        W22187   7.524  23.888  15.375 -0.0409  0.0446  0.0513
79197W        W22188  13.522  11.090  18.474 -0.1601 -0.0603 -0.2298
79198W        W22189   2.105  23.220  22.701 -0.1499 -0.0989 -0.1880
79199W        W22190  15.394  19.010   3.733 -0.3709  0.3130 -0.0770
79200W        W22191  15.454  32.655  18.990  0.0445 -0.0899  0.1061
79201W        W22192   9.783  31.429  19.456  0.0526 -0.0843  0.1693
79202W        W22193   6.557   1.603  22.166  0.2640  0.1592  0.1145
79203W        W22194  21.123   5.140  25.644  0.0073  0.3146  0.0224
79204W        W22195   2.507  29.445  29.090  0.2327  0.3141  0.2063
79205W        W22196  12.049  15.651  17.761 -0.0297 -0.0404  0.0587
79206W        W22197   4.581  22.972   4.494 -0.0697  0.0927 -0.0503
79207W        W22198  25.949  23.959  14.129  0.2026 -0.1526 -0.1478
79208W        W22199  14.894  23.967  29.031 -0.1457  0.0400  0.0813
79209W        W22200  14.002   5.307  23.221 -0.1079 -0.0672  0.1092
79210W        W22201  17.223  28.184   1.649  0.3968 -0.2119  0.0393
79211W        W22202  17.494  13.238  16.589  0.0687 -0.1345  0.2978
79212W        W22203  12.342  28.095  21.442 -0.0484 -0.1070  0.0196
79213W        W22204   4.457   5.521  22.147  0.1601 -0.4013  0.0066
79214W        W22205  28.721  17.303  17.363  0.0357 -0.1497 -0.2075
79215W        W22206  16.818   4.066  14.980  0.2441 -0.0772  0.2693
79216W        W22207  27.244  30.093  22.447  0.0963  0.0231 -0.1299
79217W        W22208  10.288  27.406  27.132 -0.3025  0.1521  0.1600
79218W        W22209  34.496  28.501  16.310  0.0881 -0.1557 -0.2667
79219W        W22210  33.899  25.790  19.576  0.0915  0.2247 -0.2050
79220W        W22211  13.086  30.788  14.608  0.3279 -0.2456 -0.2269
79221W        W22212   3.026  21.911  24.746  0.1775 -0.0776 -0.0921
79222W        W22213  16.882  19.709  24.287  0.1497 -0.1793  0.0229
79223W        W22214   9.392  29.949   3.688  0.0494 -0.0683  0.1441
79224W        W22215  26.851   7.375  28.658  0.0355 -0.1071  0.1084
79225W        W22216  20.395  10.299  24.142  0.1742 -0.0351 -0.2329
79226W        W22217  11.503   3.823  15.997  0.0645  0.0232  0.0248
79227W        W22218   0.326  20.965   5.999  0.1252  0.2279  0.2440
79228W        W22219   9.466  22.305  21.230 -0.2755  0.0459 -0.0109
79229W        W22220  31.980   2.334   1.434 -0.2280 -0.0238  0.1430
79230W        W22221  15.555  26.784  21.363 -0.2704 -0.2285 -0.1436
79231W        W22222  11.191  27.467   0.717  0.2687  0.2804 -0.0519
79232W        W22223  18.538   3.022  16.595 -0.1363 -0.1528 -0.0723
79233W        W22224  30.357  26.667  26.006  0.4153  0.1287 -0.2051
79234W        W22225  21.157  26.132  17.375 -0.1742 -0.1362  0.1396
79235W        W22226   7.040   4.537  24.719 -0.2018 -0.4628 -0.0730
79236W        W22227  23.298  27.562  20.959 -0.1999 -0.2263  0.1811
79237W        W22228  16.578  16.901  23.600 -0.2135  0.0255 -0.0569
79238W        W22229  30.385  23.693  28.851  0.0546  0.0871 -0.1739
79239W        W22230  25.102  21.304  25.532  0.2180 -0.1356  0.3401
79240W        W22231   6.346  22.375  18.277 -0.0127  0.0015 -0.0381
79241W        W22232   5.256   5.855  19.973  0.2190 -0.1644 -0.0762
79242W        W22233  14.981  20.445  14.408  0.2202  0.2075 -0.3029
79243W        W22234  16.722  28.794  18.977 -0.0532 -0.0655 -0.3301
79244W        W22235  17.302  23.073  24.973 -0.4505 -0.0047 -0.0708
79245W        W22236  24.362   1.734   3.288 -0.0246  0.1008 -0.0657
79246W        W22237  21.702  23.359   8.132 -0.2358  0.1048  0.1041
79247W        W22238  15.609  24.374   1.783  0.1353  0.2997  0.2565
79248W        W22239  12.448   9.950  23.190  0.3034  0.0185 -0.1724
79249W        W22240  25.465  18.499  15.218  0.0685  0.1153  0.0509
79250W        W22241   0.641  26.460  27.625 -0.3058 -0.1776 -0.0908
79251W        W22242  33.008  21.088  20.617  0.0245 -0.0720  0.1695
79252W        W22243   7.721  21.910   6.840  0.0157 -0.0594  0.0246
79253W        W22244  22.484  26.206  21.847 -0.0294  0.0107  0.1859
79254W        W22245   6.897  29.296  24.899  0.0428  0.3292 -0.4645
79255W        W22246  10.220  15.510  15.719 -0.1394  0.1987 -0.2647
79256W        W22247  34.340   0.202  19.222  0.1517 -0.4559 -0.1150
79257W        W22248  15.254  26.526  14.838  0.0186  0.0269 -0.1849
79258W        W22249   8.764  21.856  17.816 -0.4012  0.0463 -0.1632
79259W        W22250  29.457  19.866  25.576 -0.0155 -0.2620 -0.1265
79260W        W22251   4.718  30.431  15.331 -0.3326 -0.2201 -0.0265
79261W        W22252  14.097  17.463   0.012  0.0737  0.0303  0.4132
79262W        W22253   0.272  30.009  16.312 -0.0795 -0.2421 -0.2747
79263W        W22254   2.122   1.789   9.707  0.4508 -0.0035  0.1299
79264W        W22255  31.893  25.753  17.418 -0.2009  0.1537  0.3070
79265W        W22256  18.749  28.936  24.484 -0.1098  0.2186 -0.2248
79266W        W22257  21.835  23.780  14.116 -0.0885 -0.0320 -0.0410
79267W        W22258  12.463  23.279  23.801 -0.1790  0.1205 -0.3200
79268W        W22259  14.209  29.664  20.406  0.0498  0.2232  0.1165
79269W        W22260   1.339   1.097   1.154 -0.0730  0.2049 -0.0891
79270W        W22261  12.001  20.290  19.908 -0.3379  0.0524  0.3059
79271W        W22262  27.069  19.445  26.896 -0.0580  0.3083  0.1485
79272W        W22263  23.733  15.424  28.247 -0.0401 -0.2546 -0.0393
79273W        W22264  24.936  20.878  16.492  0.1924 -0.3084  0.1004
79274W        W22265  16.258   1.170  18.749 -0.2417 -0.0106  0.0120
79275W        W22266  22.089  30.108  27.849 -0.0080 -0.1826  0.0741
79276W        W22267  14.233  26.336  25.769 -0.3122 -0.0949  0.1012
79277W        W22268  30.927  11.173   0.072 -0.3616 -0.0530  0.0517
79278W        W22269   9.585  24.939  17.417  0.0274  0.2377  0.1830
79279W        W22270  16.477  28.701  27.894  0.0325 -0.1155  0.0429
79280W        W22271   2.502  18.973  18.372 -0.1969 -0.0693 -0.0642
79281W        W22272  14.987  31.671  19.286 -0.1604 -0.0455  0.0119
79282W        W22273  32.667  31.039  24.296  0.0056 -0.0906  0.0600
79283W        W22274   5.535  31.057  18.236  0.2652 -0.0482 -0.0714
79284W        W22275  20.392  26.973  23.951  0.0345 -0.1319 -0.1593
79285W        W22276   7.956  23.999  24.588 -0.0213  0.1762 -0.3696
79286W        W22277  12.215  32.270  15.203 -0.1190  0.2623  0.0476
79287W        W22278   7.784  31.146  14.836 -0.1213  0.1013  0.0648
79288W        W22279  32.215  30.178  14.259 -0.1856 -0.1203 -0.1476
79289W        W22280  34.016   7.444  25.924  0.0126 -0.2586 -0.0459
79290W        W22281  12.918  32.041  27.981  0.2040  0.0288 -0.0291
79291W        W22282   3.367   2.931   6.323  0.3148 -0.0354 -0.0626
79292W        W22283  13.861  20.067  15.925 -0.0256  0.1984 -0.1629
79293W        W22284   6.657  19.794  22.801 -0.0193  0.0683 -0.3571
79294W        W22285  25.158  32.016  15.619  0.0297 -0.3785 -0.0917
79295W        W22286  24.578  12.429  17.556  0.0344 -0.0747 -0.0651
79296W        W22287  24.590  15.200  18.097 -0.0223 -0.0707 -0.0330
79297W        W22288  20.965   8.707  14.952  0.2317 -0.1510 -0.0100
79298W        W22289  34.615  25.542  25.054  0.1561  0.0019  0.0284
79299W        W22290   2.309  32.663  22.569  0.2134  0.2240  0.2831
79300W        W22291  17.407  22.423  14.888  0.2520 -0.1963 -0.2063
79301W        W22292  18.196  30.318  24.569  0.0533  0.1451  0.0315
79302W        W22293  15.187  30.413  20.931  0.1110  0.0858  0.0745
79303W        W22294   4.112  31.401  25.262  0.0426 -0.1650  0.0921
79304W        W22295  13.857  32.091   1.247 -0.0915  0.1783 -0.0638
79305W        W22296  23.979  14.687   7.701  0.1160 -0.2004  0.0624
79306W        W22297  18.408  19.258   1.802  0.0905  0.0948 -0.0779
79307W        W22298   9.567   9.017   1.418  0.1281 -0.0994 -0.0086
79308W        W22299  34.492   3.594  27.587  0.0137 -0.1818  0.1225
79309W        W22300  10.964   2.146   8.121  0.0267 -0.3955  0.1007
79310W        W22301  18.454   3.884   4.019 -0.1323 -0.0986  0.0817
79311W        W22302  17.645  25.986   0.068  0.1996 -0.1991  0.0206
79312W        W22303  23.742  22.546  15.284 -0.2017 -0.1441  0.0658
79313W        W22304  32.712  33.249  17.582 -0.3395  0.3473 -0.0156
79314W        W22305  14.000  19.423  13.900  0.4610 -0.0620  0.1385
79315W        W22306  15.188  27.853  27.557 -0.0998  0.2096 -0.0306
79316W        W22307  10.425   1.082  20.690 -0.1318  0.3563  0.3794
79317W        W22308   5.757  30.628  20.744 -0.1142  0.1408  0.1006
79318W        W22309  25.802  12.674  15.956  0.1963 -0.0291  0.1884
79319W        W22310  21.209  21.909  26.333  0.1934 -0.0548 -0.1327
79320W        W22311  19.082  26.058  19.635  0.1740 -0.0641  0.3397
79321W        W22312   2.815   2.352  22.975  0.1474 -0.1658 -0.0923
79322W        W22313  14.740  12.412  18.339  0.2552  0.0949 -0.2320
79323W        W22314  21.422  23.807  24.567 -0.0253 -0.1023  0.1917
79324W        W22315   6.103  20.065  19.468  0.0942  0.0396  0.1788
79325W        W22316  21.956  25.457   7.730  0.1471 -0.4413 -0.1063
79326W        W22317  19.886   2.936  28.228  0.2214  0.0986 -0.3242
79327W        W22318  19.742  22.642  22.729  0.0346 -0.1168 -0.3198
79328W        W22319  11.143   1.152  17.004 -0.1791 -0.1607 -0.0806
79329W        W22320  30.005  30.091  25.343 -0.0226 -0.0771 -0.0721
79330W        W22321  13.112   5.140  15.606  0.0171 -0.1522  0.0899
79331W        W22322  19.456  20.924  16.256 -0.0865 -0.1342  0.3072
79332W        W22323  10.133  20.609  18.256  0.2190 -0.0244 -0.0533
79333W        W22324  16.683  11.574  20.986 -0.4415 -0.2665  0.0643
79334W        W22325   8.690  30.705  14.916  0.0386  0.2066  0.4814
79335W        W22326   8.810   3.029  16.289 -0.0726 -0.0429 -0.0169
79336W        W22327   7.143   1.932  26.179 -0.3272 -0.4836  0.2558
79337W        W22328  25.865  15.857  26.377  0.3002 -0.1123 -0.1098
79338W        W22329  33.646  29.190  17.412  0.0149 -0.3148  0.0634
79339W        W22330   4.515  28.989  18.978 -0.0936 -0.0968  0.0070
79340W        W22331   1.118  26.144  22.192  0.0022  0.1905  0.1616
79341W        W22332  18.637  31.486  17.330 -0.1678  0.0207 -0.0685
79342W        W22333   9.293   9.711  24.970 -0.2206 -0.0417  0.1101
79343W        W22334  23.744  30.188  20.130  0.0034 -0.0339  0.0484
79344W        W22335  19.674  28.405  20.154  0.2609 -0.0040  0.3463
79345W        W22336  19.844  18.958  12.413 -0.1371  0.0093  0.2458
79346W        W22337  22.023  29.711  22.536  0.0075 -0.1560  0.1477
79347W        W22338  26.441  27.229  16.728  0.0115  0.0250  0.2518
79348W        W22339  32.567  33.817  19.358  0.1365 -0.0716 -0.3198
79349W        W22340  14.356  24.038  14.727  0.1876  0.1880  0.1146
79350W        W22341  23.906  34.380   2.746 -0.3265  0.1761 -0.1679
79351W        W22342   2.468   8.058  17.390 -0.0800  0.0540  0.1632
79352W        W22343  15.305   6.936  16.521 -0.1077  0.3676  0.0202
79353W        W22344  25.036  24.523  25.060  0.1262 -0.4111 -0.0102
79354W        W22345  20.642  33.882  22.629  0.0029  0.1738  0.0237
79355W        W22346  12.123  20.778  18.226  0.2376  0.0225 -0.0213
79356W        W22347  21.475  24.148  13.548 -0.0687  0.0836  0.2416
79357W        W22348   6.711  29.692  14.950 -0.0883 -0.2684  0.0174
79358W        W22349  11.139  12.713  20.937 -0.0769 -0.2500  0.0299
79359W        W22350  27.147  24.407   2.629  0.0730 -0.0990 -0.0472
79360W        W22351  12.328  24.630   3.754  0.2027  0.1180  0.0877
79361W        W22352  12.172  12.688   1.678  0.0946  0.1994  0.2582
79362W        W22353  19.487  16.256  12.439  0.2140 -0.1590 -0.1655
79363W        W22354  25.926  19.492  20.674  0.0930  0.1075 -0.2873
79364W        W22355  18.332  33.337   1.189 -0.0862 -0.0623 -0.0515
79365W        W22356  10.185  10.565  16.556  0.2841  0.1922  0.1760
79366W        W22357   8.744  28.379  22.615  0.0694 -0.2521 -0.1495
79367W        W22358  20.640  27.632  20.927 -0.1133 -0.1127  0.5005
79368W        W22359  23.899  27.099  18.739 -0.0698 -0.0880  0.0655
79369W        W22360  14.611  25.936  21.543 -0.5021 -0.2800 -0.2499
79370W        W22361   2.130  30.167  14.196 -0.0078  0.1047  0.0947
79371W        W22362  13.380   1.762  26.491  0.5812  0.0440  0.3161
79372W        W22363  11.938   1.340  18.583  0.0211  0.1504 -0.3875
79373W        W22364  23.564  10.725  14.778  0.0541  0.1245 -0.1422
79374W        W22365  16.613  10.893  16.752 -0.3699  0.0654 -0.1267
79375W        W22366  33.949  29.478  16.999  0.2879 -0.0428 -0.1668
79376W        W22367  12.096  22.951  27.605  0.0469  0.2843 -0.0079
79377W        W22368  13.230  19.535  13.621 -0.0555  0.0391  0.0377
79378W        W22369  20.652  12.699  21.882 -0.1127 -0.2315  0.1336
79379W        W22370  13.160   4.425  19.124  0.0922 -0.1718 -0.2080
79380W        W22371   1.837  29.942  27.193 -0.0953 -0.1197  0.0915
79381W        W22372   8.201  31.352   7.173  0.0274 -0.0209 -0.0343
79382W        W22373  29.014  17.734  10.290 -0.0818 -0.1173  0.3715
79383W        W22374  14.133  15.068   6.772 -0.0390  0.0451  0.0125
79384W        W22375   8.662  25.470  28.902 -0.1832 -0.2013 -0.2161
79385W        W22376   3.894  30.040  15.244 -0.1870  0.0617  0.2605
79386W        W22377   9.252  18.726  23.210  0.2775 -0.0585  0.1652
79387W        W22378   8.840  15.579  19.686 -0.1630  0.2247  0.0605
79388W        W22379   4.613  29.619   0.937  0.0458 -0.0297 -0.1081
79389W        W22380  19.215  27.278  27.615 -0.0366 -0.0914  0.0264
79390W        W22381   5.289   1.263  20.553 -0.3363  0.1373  0.1450
79391W        W22382  11.494  31.020  20.143  0.1599  0.0049 -0.1379
79392W        W22383  16.375  31.177  13.972  0.1069  0.2183 -0.0375
79393W        W22384  11.661  24.516  16.615  0.0489 -0.2846  0.1149
79394W        W22385   4.908  11.868  27.442  0.0210  0.4063  0.2536
79395W        W22386  12.657  33.930  26.059 -0.0826  0.2449  0.0476
79396W        W22387   9.907  25.149  24.623  0.3011 -0.2055  0.0170
79397W        W22388  32.824  31.092  26.958 -0.0797 -0.1537 -0.1721
79398W        W22389  21.881  29.756  25.637  0.0970  0.1312  0.2023
79399W        W22390  27.393   6.377  19.799 -0.0027 -0.1143  0.0433
79400W        W22391  27.691   9.815  19.313  0.1741 -0.0547  0.0351
79401W        W22392  23.615  29.871  14.748 -0.0398  0.0789 -0.0057
79402W        W22393  20.916  23.257  22.645 -0.0480  0.0185 -0.1517
79403W        W22394   3.760   8.714  16.767  0.0165 -0.0576  0.1650
79404W        W22395  23.394  25.243   3.325 -0.0272  0.0401 -0.0475
79405W        W22396  11.257  19.488  14.046 -0.0714  0.1920  0.0519
79406W        W22397   4.948   4.409  16.253 -0.1229  0.0988 -0.0704
79407W        W22398   8.365  24.383  19.292  0.2784  0.1407  0.5316
79408W        W22399  13.698   0.409   5.161 -0.0595 -0.2338  0.2883
79409W        W22400  32.218  23.141   1.896  0.0317  0.4764  0.3421
79410W        W22401  30.605  14.416  24.567 -0.0784  0.0841  0.1142
79411W        W22402  23.807   8.460  15.238 -0.1135 -0.0311 -0.0396
79412W        W22403   4.453  11.726  27.663  0.1455  0.1991 -0.1024
79413W        W22404  33.077  30.438   2.747  0.0155 -0.4808  0.0399
79414W        W22405  30.404  21.959  26.765 -0.2730 -0.1756  0.1731
79415W        W22406  31.674  10.928  21.747  0.1564 -0.1441 -0.3027
79416W        W22407  23.751  32.020   5.357  0.1826  0.1396  0.1065
79417W        W22408  15.318   6.875  27.729 -0.3502  0.0254  0.0905
79418W        W22409  23.369  33.449   0.532 -0.3233  0.1448  0.0662
79419W        W22410   5.472   7.100   2.733 -0.1035 -0.3788 -0.2572
79420W        W22411  20.663  33.795   5.273 -0.0841  0.0994 -0.2367
79421W        W22412   9.820  30.085  25.002  0.1566  0.0843 -0.0272
79422W        W22413  14.697  15.021  15.242  0.0540  0.4736  0.1056
79423W        W22414  24.164  33.373  21.614 -0.1160 -0.1970  0.2115
79424W        W22415   9.136   1.042  18.530  0.3767  0.2947  0.2040
79425W        W22416   4.081   1.325  15.624  0.0992  0.0649  0.1165
79426W        W22417  23.501   2.173  23.324 -0.1053  0.1365  0.1148
79427W        W22418  24.654  32.808  28.395 -0.2724 -0.3154  0.1621
79428W        W22419  18.831  25.779  20.844 -0.6478  0.0133 -0.0148
79429W        W22420   7.617  20.936  15.175  0.0497  0.0367 -0.1183
79430W        W22421  28.816  25.546  16.262  0.1536  0.2798 -0.3745
79431W        W22422   5.187  34.791  16.509 -0.2002  0.1980 -0.0502
79432W        W22423  14.067  21.447  22.065  0.1086  0.0055 -0.0468
79433W        W22424  12.731  33.230  16.848  0.2087  0.1381 -0.2029
79434W        W22425  15.568   1.257  25.838  0.2236 -0.0059 -0.0086
79435W        W22426  14.270  22.703  22.909 -0.1485  0.0998  0.0148
79436W        W22427  14.160  25.148   5.165 -0.1047 -0.2742  0.1359
79437W        W22428   9.968   2.328   7.583 -0.0896 -0.0913 -0.0643
79438W        W22429  14.583  17.047  25.904 -0.0941 -0.0005 -0.2570
79439W        W22430  24.092  29.646  20.165  0.2402  0.3398  0.2395
79440W        W22431  12.986  34.550  15.275  0.3829 -0.2079  0.0244
79441W        W22432   7.795   7.917  18.310  0.0882  0.0274 -0.1051
79442W        W22433   0.551   5.029   7.815 -0.0846 -0.2410  0.3816
79443W        W22434  34.784  22.976  16.107  0.0671  0.0689 -0.0438
79444W        W22435   4.549  34.154  23.218  0.2223 -0.2233  0.1464
79445W        W22436  28.259   3.388  28.357  0.1098  0.1303  0.2462
79446W        W22437  27.732  22.999   3.549  0.2579 -0.0201 -0.3869
79447W        W22438  12.644  16.924  27.722  0.0003 -0.1616 -0.1083
79448W        W22439  30.633  33.603  12.657 -0.0639  0.2080 -0.1725
79449W        W22440  13.149  15.641  14.192  0.4958  0.0835  0.0177
79450W        W22441  24.863  29.166  22.473 -0.0445 -0.1050 -0.1036
79451W        W22442  17.763  32.314  14.393 -0.0784 -0.0580 -0.0333
79452W        W22443  12.217   3.105  28.663 -0.1938  0.2392  0.1461
79453W        W22444  11.990  28.501  26.584 -0.2522  0.0056 -0.2612
79454W        W22445  28.047  24.112  16.253  0.1086 -0.1269  0.1090
79455W        W22446  25.854  32.857  24.588  0.0754  0.0720 -0.1931
79456W        W22447   6.142  27.481  13.878  0.1010  0.2804  0.1341
79457W        W22448  13.633  28.308  16.768 -0.2155 -0.3368 -0.0424
79458W        W22449  27.274  33.436  15.020  0.1320 -0.0540 -0.1089
79459W        W22450  11.191  26.968  28.540 -0.2286  0.1966  0.1191
79460W        W22451  32.378  28.255   4.274  0.0810  0.0156 -0.2830
79461W        W22452  23.424  16.281   1.055 -0.1123 -0.2047  0.1155
79462W        W22453  17.700   0.864  20.664 -0.1595  0.1199 -0.1051
79463W        W22454  18.804  12.589  17.618  0.0863 -0.0897 -0.2781
79464W        W22455  24.988  21.530  15.295  0.1819  0.2915 -0.1141
79465W        W22456   5.559  27.746  27.266  0.0063  0.1456 -0.2872
79466W        W22457  31.485   5.247  18.446  0.3755  0.0813  0.1097
79467W        W22458  11.635  34.035   4.612  0.0606 -0.0614  0.1314
79468W        W22459  22.971  27.900   1.559 -0.1964  0.1029 -0.2930
79469W        W22460   1.679  21.383  14.887 -0.0927  0.0309 -0.0675
79470W        W22461  22.817  23.413  19.682 -0.2550  0.2179 -0.0120
79471W        W22462  23.813   9.268  20.860 -0.1388  0.1290  0.0335
79472W        W22463  23.400  23.941  17.368  0.0630 -0.1528 -0.3336
79473W        W22464  24.846   0.283  24.234  0.2562 -0.0576  0.2857
79474W        W22465  11.610   7.763  21.518  0.2867  0.0966 -0.1944
79475W        W22466  13.171  19.464   3.675  0.4016  0.0449 -0.0846
79476W        W22467  33.293  22.236  27.261 -0.0654 -0.2967 -0.3375
79477W        W22468  23.894  27.459  23.800  0.0289 -0.3081  0.1256
79478W        W22469  28.019  26.725  18.655 -0.2948  0.4630  0.0465
79479W        W22470  18.952   3.429  15.404 -0.1290  0.1673 -0.1797
79480W        W22471   9.405   0.169   5.181  0.0529 -0.0507 -0.1093
79481W        W22472   5.278  27.693  25.923 -0.1881  0.0137  0.0756
79482W        W22473  14.443   6.257   6.192  0.0300 -0.1067 -0.2874
79483W        W22474   4.062  13.389  21.643 -0.0190  0.1258 -0.2889
79484W        W22475   0.236   5.089  21.394  0.1179  0.1058 -0.1420
79485W        W22476  25.975   2.391  28.100 -0.1483 -0.0502 -0.1164
79486W        W22477  30.540  28.995  14.414  0.1474  0.0657  0.2617
79487W        W22478  10.577  27.800   7.155  0.2730  0.0264 -0.0901
79488W        W22479  12.263  32.246   0.308 -0.0970 -0.0440  0.1342
79489W        W22480  13.021  15.220  23.209  0.0686  0.0053 -0.0106
79490W        W22481  18.672  34.148  23.600  0.2667  0.0477  0.1807
79491W        W22482   5.110  30.157  17.405 -0.1994  0.0889  0.0801
79492W        W22483  20.457  12.246  19.769  0.2060  0.3041 -0.1426
79493W        W22484  22.215   1.749  16.791 -0.1365 -0.0979 -0.2341
79494W        W22485   7.385  31.158  18.657 -0.2322 -0.4398  0.0138
79495W        W22486  30.928  32.967  17.724  0.0932 -0.1619  0.1681
79496W        W22487  19.397  33.874   9.592  0.1222  0.0238 -0.1656
79497W        W22488  12.677   7.350  26.969 -0.2892 -0.0070 -0.1389
79498W        W22489  23.402   1.979  13.370 -0.0389  0.1757  0.1605
79499W        W22490   1.961  24.793  18.133 -0.0581  0.0324 -0.1531
79500W        W22491   3.187  27.258  17.355 -0.1499 -0.2157  0.1395
79501W        W22492  11.982  29.031   4.630 -0.2036  0.3600  0.0005
79502W        W22493   5.801   4.063  16.587  0.1042  0.1195 -0.3181
79503W        W22494  13.094  12.624  14.971 -0.0996 -0.0344  0.1508
79504W        W22495  32.611   0.405  23.971  0.3107  0.0667 -0.3077
79505W        W22496   6.048   0.971  15.990 -0.0544 -0.0429 -0.0115
79506W        W22497  15.809  27.838   5.436 -0.2292 -0.0472  0.0918
79507W        W22498  14.838  28.758  18.200  0.0675  0.1158 -0.0197
79508W        W22499  21.837  26.311  23.884 -0.2026  0.1238 -0.0023
79509W        W22500  24.961  32.963   7.840 -0.0151  0.2492 -0.4420
79510W        W22501  18.777  27.728  18.918  0.0032 -0.0216 -0.2078
79511W        W22502  21.864   0.731  18.102  0.0704 -0.0371 -0.1533
79512W        W22503   6.682  24.709   4.002  0.2188 -0.1118 -0.1371
79513W        W22504  23.697   7.815   4.207  0.0806  0.0092 -0.0024
79514W        W22505  17.762  12.808  19.464 -0.2770 -0.0965 -0.0758
79515W        W22506  34.282  13.657  26.494  0.2169  0.0266  0.0489
79516W        W22507  19.946  26.343   2.031  0.1462  0.5515  0.0421
79517W        W22508  14.529  22.257  24.823  0.3737 -0.2689  0.1696
79518W        W22509  12.967  17.712  20.415  0.0848  0.1085 -0.1638
79519W        W22510  32.771  23.079  18.238 -0.1017  0.0338  0.1912
79520W        W22511  23.115  10.175  16.507  0.0047 -0.3095  0.0489
79521W        W22512  10.271  18.043  14.387 -0.0292 -0.2957  0.3122
79522W        W22513  27.706  30.383  13.943 -0.0630 -0.1513  0.1660
79523W        W22514  30.586  28.835  19.424 -0.1324  0.1461  0.0508
79524W        W22515   7.689  17.677  28.439  0.1588 -0.4073 -0.2344
79525W        W22516  26.403   4.047  22.582 -0.1303 -0.0560  0.4431
79526W        W22517  19.288  12.530  28.469  0.0049  0.0422 -0.0520
79527W        W22518   4.735  16.754   8.787  0.1266 -0.0276 -0.3960
79528W        W22519  32.715  30.548  21.996 -0.1224 -0.2434 -0.2143
79529W        W22520  12.733  24.964   9.609  0.0858  0.0219  0.2686
79530W        W22521  28.415  34.723  21.726  0.0965  0.4233  0.1524
79531W        W22522  25.084  21.279   4.191 -0.2310 -0.2332 -0.0065
79532W        W22523   9.030  12.831  16.488  0.1973 -0.0892 -0.1605
79533W        W22524  14.348   3.763   0.280  0.1814 -0.0683  0.2427
79534W        W22525  27.346  24.979   8.630  0.2973 -0.2160 -0.1703
79535W        W22526  16.172  26.206  22.641 -0.1067 -0.0655  0.1361
79536W        W22527  31.536  29.475  24.036  0.0752  0.1526  0.1196
79537W        W22528  15.534  21.800  20.134  0.1887  0.1149  0.0506
79538W        W22529  22.404  32.710  13.968  0.0920  0.1283 -0.0356
79539W        W22530  27.433  34.210  21.162  0.0060 -0.2978  0.1128
79540W        W22531  34.406  17.327  20.169 -0.0745 -0.0917 -0.2025
79541W        W22532  32.840  20.064  21.190 -0.0902  0.1171 -0.2053
79542W        W22533  30.450  31.567  14.489 -0.1253  0.0338 -0.0801
79543W        W22534   5.151  25.860  14.408 -0.2667  0.1293  0.3418
79544W        W22535  26.134   2.695  21.246 -0.1272 -0.0115  0.0276
79545W        W22536  18.441  34.462  17.552  0.4422 -0.4507 -0.0295
79546W        W22537  13.260  20.130  22.715 -0.2654  0.2223 -0.0101
79547W        W22538  27.807  29.446  27.110  0.1747  0.1856  0.0151
79548W        W22539   2.007   5.089  23.683 -0.1327 -0.1238  0.3130
79549W        W22540  33.103  30.100   2.320  0.1075 -0.1228 -0.1246
79550W        W22541   4.231  18.395  21.880  0.3538  0.0352 -0.0082
79551W        W22542  27.001  13.196  16.377  0.1948 -0.3824 -0.0394
79552W        W22543   6.343  30.920  24.865  0.4297 -0.0471 -0.2692
79553W        W22544   7.828  20.994  15.622 -0.0039 -0.0629  0.0012
79554W        W22545  28.366  24.816  19.956  0.0136 -0.1133 -0.2746
79555W        W22546  27.138  18.899  14.014 -0.1115  0.3533 -0.0842
79556W        W22547  10.403  30.742  23.360 -0.1520  0.2049  0.0713
79557W        W22548  17.594  34.694  18.266 -0.0449 -0.0026 -0.5726
79558W        W22549  29.393  25.491  16.365 -0.0270  0.2085  0.0247
79559W        W22550  32.432  25.352   1.688  0.2429 -0.0654  0.2794
79560W        W22551  28.046  26.207  22.421  0.1549 -0.1243 -0.1896
79561W        W22552  28.598  31.034  14.308  0.0483 -0.0945 -0.1550
79562W        W22553  13.064  11.768  26.160 -0.2348  0.0081 -0.2278
79563W        W22554   7.980  30.156   7.927  0.0697  0.0100 -0.2172
79564W        W22555  22.874  18.915  27.785  0.1543 -0.1218 -0.2597
79565W        W22556  27.920   6.275   9.581 -0.0085 -0.1677  0.0685
79566W        W22557  12.095  31.164   7.335  0.1536  0.3212  0.0407
79567W        W22558  26.875  28.779   4.840 -0.0022  0.1848  0.2509
79568W        W22559  29.165  19.269  20.255 -0.0886 -0.0136  0.1375
79569W        W22560  22.317  30.596  13.774  0.0288 -0.3993  0.0870
79570W        W22561  26.224  12.355  19.721  0.0815 -0.3176 -0.1198
79571W        W22562  22.853  32.977  23.827 -0.1437  0.2488 -0.1630
79572W        W22563  25.143   7.505  25.938 -0.1287  0.5259 -0.0567
79573W        W22564  12.206  34.046   8.885 -0.2200  0.1378 -0.0464
79574W        W22565  16.922   3.473   1.752  0.2356  0.0236 -0.1581
79575W        W22566  20.583   5.773   3.002 -0.1664 -0.2310  0.0536
79576W        W22567  19.043  32.165  17.512 -0.2068 -0.2784  0.0017
79577W        W22568  24.649  12.321  14.087 -0.1358 -0.1465 -0.2261
79578W        W22569  14.443  10.145  16.844 -0.1265 -0.3088 -0.1783
79579W        W22570  13.470   3.225   7.688 -0.0797  0.1122  0.1307
79580W        W22571   9.493  29.630  18.518  0.0117 -0.2522 -0.1398
79581W        W22572  19.358  20.808  14.030  0.0121  0.0255  0.1014
79582W        W22573  22.153  29.269  20.114 -0.0490  0.1055 -0.0480
79583W        W22574  23.632  26.826  17.224  0.0832  0.2604 -0.1432
79584W        W22575   9.424  12.712  29.022  0.0265 -0.0401 -0.3005
79585W        W22576   0.054  25.181  16.920 -0.2519 -0.1718 -0.0816
79586W        W22577  17.641  14.731  22.888 -0.0231 -0.0728 -0.0277
79587W        W22578  13.850  19.718  28.994 -0.0312  0.1522 -0.3612
79588W        W22579  23.295  17.226  13.759 -0.1839  0.2565 -0.1338
79589W        W22580  28.028  32.336  20.527  0.3294 -0.1736  0.2172
79590W        W22581   6.777  27.944  15.521  0.0025  0.0812  0.0231
79591W        W22582   5.012  18.133  19.108  0.1599  0.0199 -0.2586
79592W        W22583  12.828  29.383  23.998  0.0655 -0.5276 -0.1669
79593W        W22584  11.581  27.735   7.855 -0.1549 -0.1774 -0.0180
79594W        W22585  17.808  25.236  19.627  0.0790  0.1934  0.3809
79595W        W22586  10.453  24.366  23.298  0.1941 -0.1619  0.0851
79596W        W22587   1.185  28.267  22.820  0.1658  0.1381  0.0471
79597W        W22588  26.216  28.833  28.582 -0.0173  0.2690 -0.0487
79598W        W22589  20.486  27.674  16.389 -0.0997 -0.1989 -0.2143
79599W        W22590  17.972  32.413  17.649 -0.0653  0.0193 -0.0552
79600W        W22591  19.490  14.805   3.248 -0.0385 -0.0347 -0.1795
79601W        W22592  15.245  28.829  25.464  0.2184 -0.0743 -0.0844
79602W        W22593  15.911  22.632  26.938 -0.0310 -0.1752 -0.0436
79603W        W22594  16.232  21.657  21.708 -0.1060  0.0953  0.1283
79604W        W22595  29.271  24.183   5.214  0.1926  0.0476 -0.2681
79605W        W22596   7.013   1.694   5.000  0.0488 -0.2344  0.0116
79606W        W22597  12.600  22.946  27.282 -0.3281 -0.4580  0.1230
79607W        W22598   2.495  22.877   5.867 -0.1851  0.1141  0.1767
79608W        W22599  15.298  15.240   6.156  0.0780 -0.2029  0.0218
79609W        W22600   0.861  29.777  22.733 -0.2395  0.0911  0.1669
79610W        W22601  30.805  27.274  14.111  0.1929 -0.1180 -0.0649
79611W        W22602  13.593  12.331  17.987 -0.1426 -0.1587 -0.0037
79612W        W22603  29.030  28.704  23.751 -0.2033  0.1368 -0.0037
79613W        W22604  21.926  17.108  15.577 -0.1881  0.3448 -0.0042
79614W        W22605   5.798  17.355  28.415  0.2926 -0.1849  0.0584
79615W        W22606  28.415  14.649  29.155  0.1651 -0.0167 -0.0521
79616W        W22607  19.598  32.098  21.244 -0.1289  0.2211  0.0171
79617W        W22608   3.808   2.479  28.945 -0.1336 -0.2077  0.0915
79618W        W22609   1.784  20.874   4.956  0.0306  0.0539 -0.0104
79619W        W22610  17.299  11.770  27.395 -0.0385 -0.4753 -0.1769
79620W        W22611  11.167   0.302  27.820  0.0173  0.0183 -0.1703
79621W        W22612  21.008  22.122  16.450 -0.3528  0.0682  0.1414
79622W        W22613  16.200  30.553  18.160  0.0245  0.2170  0.0468
79623W        W22614  32.643  24.793  23.505  0.1240 -0.0902  0.1248
79624W        W22615  21.859  30.357  24.589 -0.1071  0.0477  0.3848
79625W        W22616  18.350  26.051  21.575 -0.0394  0.0314  0.1842
79626W        W22617  13.122   4.981   0.116 -0.2836 -0.3750  0.0802
79627W        W22618  11.870  19.386   9.658  0.1754  0.1289 -0.0701
79628W        W22619  20.885  34.643   8.421  0.2479  0.3051 -0.2427
79629W        W22620  16.698  19.855  22.943  0.2344  0.2109  0.2729
79630W        W22621   2.494  24.366  28.689  0.0336 -0.0603  0.0145
79631W        W22622  18.053  29.564  19.665 -0.0500  0.2401 -0.0122
79632W        W22623  27.784  19.986  19.088  0.2085 -0.1426  0.1948
79633W        W22624  12.552  24.164  28.925  0.2181  0.3260 -0.1031
79634W        W22625  27.730  34.387   5.669 -0.1858 -0.1873  0.0083
79635W        W22626  31.565  33.217  28.255 -0.0963  0.1024  0.2306
79636W        W22627   2.848  29.922   2.941 -0.3081 -0.1560  0.3697
79637W        W22628  22.514   0.301  27.244  0.1645 -0.0318  0.3013
79638W        W22629  27.847  31.833  17.177 -0.1817  0.1035  0.0387
79639W        W22630  25.558   0.023  28.123 -0.4532 -0.0020  0.0351
79640W        W22631   5.540  32.729  19.902  0.1463  0.0010  0.3181
79641W        W22632  30.088  15.770   0.906 -0.0800 -0.0146 -0.1310
79642W        W22633  17.325   3.708   3.802 -0.0779 -0.1539  0.1682
79643W        W22634   3.073   2.051  28.321 -0.0117 -0.3728  0.3736
79644W        W22635   8.845   9.613  23.464 -0.0641  0.3181 -0.2344
79645W        W22636  18.834   0.517   0.128  0.2432 -0.0739  0.3357
79646W        W22637  17.789  19.587   2.415 -0.0603 -0.2721  0.1875
79647W        W22638  19.032  27.576  23.065  0.2771 -0.3200 -0.1156
79648W        W22639  23.014  28.315   3.323 -0.1365  0.1012  0.0528
79649W        W22640  14.840   4.414  26.178  0.0376 -0.2461 -0.2101
79650W        W22641  18.774  34.095  26.794  0.0880  0.1370 -0.1415
79651W        W22642  22.284   5.312   3.234  0.2563 -0.0346 -0.5080
79652W        W22643  25.811  29.034  15.146  0.2677 -0.0537 -0.1752
79653W        W22644  18.753   9.160  14.814  0.2695 -0.5195  0.0427
79654W        W22645  18.946  27.586  17.401 -0.2962  0.0766  0.1612
79655W        W22646  30.815  28.354  24.344  0.1047 -0.1416  0.1316
79656W        W22647  29.947  25.358   2.181  0.2077  0.0279  0.2541
79657W        W22648   3.013  19.332  25.877  0.1347  0.1238 -0.0052
79658W        W22649  31.228   9.051   0.737 -0.2659 -0.0334  0.0438
79659W        W22650   8.105   6.073  23.474  0.1358 -0.1423  0.0678
79660W        W22651  21.114  29.239  28.257  0.4075  0.2214  0.1679
79661W        W22652   5.149  15.314  28.931  0.0800  0.1127  0.1076
79662W        W22653  17.450  21.473  12.522 -0.0036  0.0671 -0.1203
79663W        W22654   3.504  24.363   3.599  0.1533 -0.0103  0.4291
79664W        W22655  21.995  11.748  14.455  0.0411 -0.1167  0.0353
79665W        W22656   9.974   1.369  19.337  0.1308  0.2716 -0.0675
79666W        W22657  22.324   1.422  18.782  0.2046 -0.2692 -0.0460
79667W        W22658  20.003  23.784   0.932  0.0935  0.0200 -0.0161
79668W        W22659  16.767  11.953  13.319  0.0730 -0.1797 -0.0723
79669W        W22660  13.799  27.267  21.385  0.1888 -0.1892 -0.0675
79670W        W22661  23.871  18.824  24.709 -0.1076  0.3007  0.0505
79671W        W22662  21.933   3.190   4.118  0.0141 -0.3512 -0.1135
79672W        W22663   8.066  34.134  21.366 -0.4529  0.1264  0.1411
79673W        W22664  21.092  33.614  25.919 -0.0818  0.5856  0.0382
79674W        W22665  15.016  31.773   2.124  0.3264  0.3208 -0.0276
79675W        W22666  23.231  11.818  17.260  0.0719 -0.1367  0.1752
79676W        W22667  28.008  28.756   6.396  0.1824  0.1307  0.1254
79677W        W22668  14.069  20.848  16.496  0.1045 -0.3179 -0.2005
79678W        W22669   7.838  21.868  24.745  0.1228  0.0920  0.1465
79679W        W22670  20.760  22.956  18.977 -0.3085 -0.0551 -0.2158
79680W        W22671   8.672  18.831  23.137 -0.1352 -0.2084 -0.0134
79681W        W22672  29.559  29.020  25.584 -0.1117  0.1546  0.2714
79682W        W22673  34.358  11.651  24.835  0.1492  0.0204 -0.3012
79683W        W22674   5.126  30.114   8.755 -0.0192  0.1107 -0.1344
79684W        W22675  17.809  25.193  23.685 -0.3066 -0.2362 -0.0921
79685W        W22676   2.102   7.003  26.396  0.0865  0.1935  0.1113
79686W        W22677  24.225  20.643  25.297 -0.1642 -0.1307  0.1820
79687W        W22678  14.802  24.950   3.979 -0.0452 -0.1767 -0.3507
79688W        W22679  25.010  31.172   4.556  0.0366  0.0506  0.3682
79689W        W22680  25.913  12.196   7.542 -0.0927 -0.0290 -0.1317
79690W        W22681  13.014  27.002  28.010 -0.3219  0.0429 -0.0503
79691W        W22682  27.595  31.605  24.984  0.1103  0.2716  0.2915
79692W        W22683  12.638  13.357  18.582 -0.1946  0.1998 -0.0519
79693W        W22684  11.066   1.093  10.312 -0.3988  0.2308 -0.0314
79694W        W22685   5.781  29.621  18.858  0.1183 -0.1537  0.1712
79695W        W22686  20.532  23.558  19.627 -0.2211  0.0484 -0.3574
79696W        W22687  19.016  33.590  14.401  0.0061  0.3186  0.2537
79697W        W22688  17.362   3.588  17.152 -0.4130  0.0225 -0.4900
79698W        W22689  32.284  22.746  15.618  0.1643 -0.0808  0.3368
79699W        W22690  16.335  24.028  15.461 -0.2695  0.3295 -0.4801
79700W        W22691  30.369  28.603  23.706 -0.0606 -0.0646 -0.0428
79701W        W22692   4.409  33.689  20.805  0.0264 -0.1623 -0.1613
79702W        W22693   8.406  29.510  15.593  0.1795  0.0602 -0.0055
79703W        W22694  28.712   8.772  21.163  0.1280  0.0968  0.1859
79704W        W22695  13.999  25.689  14.719 -0.2481  0.0010  0.0848
79705W        W22696  12.109  22.984  16.921  0.1551 -0.0153 -0.0805
79706W        W22697  34.406   7.180  17.091  0.0103  0.2320 -0.0459
79707W        W22698  19.881  17.039  28.984  0.1871 -0.1936 -0.2828
79708W        W22699   7.616   3.286   5.204 -0.0887  0.0189 -0.1394
79709W        W22700  12.665   6.778  17.049 -0.0838 -0.0167  0.0111
79710W        W22701   5.403  17.810  23.737  0.0120 -0.2643 -0.1434
79711W        W22702  24.136  34.630  27.633 -0.1291 -0.2834  0.1047
79712W        W22703  10.784  14.270   5.887  0.1395  0.0264  0.0254
79713W        W22704  30.173  29.156   0.634 -0.0339 -0.1511 -0.0287
79714W        W22705  22.337  11.791   0.083  0.2466 -0.2428 -0.2590
79715W        W22706  16.623  21.660   1.361 -0.2887  0.0423  0.3417
79716W        W22707  14.953  27.898  20.464 -0.1149  0.4113  0.1677
79717W        W22708   5.747  16.382   0.631 -0.0873  0.1406 -0.0808
79718W        W22709  10.779  25.116  19.321 -0.0332  0.2666  0.1373
79719W        W22710   8.085  24.927  19.340 -0.0195 -0.4192 -0.0717
79720W        W22711  16.118  22.332   6.295 -0.0301  0.0340 -0.0424
79721W        W22712  30.661  13.523  16.244  0.2695 -0.1046  0.0925
79722W        W22713  21.840  24.033   1.223 -0.1671  0.1172 -0.2082
79723W        W22714  18.506  26.284   7.178  0.0234  0.1896 -0.0175
79724W        W22715   6.194  20.196  18.056  0.0369 -0.0322 -0.1021
79725W        W22716  19.244  30.938   2.229  0.0237  0.2293  0.2215
79726W        W22717  23.283  32.195  23.568 -0.0067  0.4434  0.1537
79727W        W22718   1.226  20.157  28.967 -0.0822  0.1163 -0.1286
79728W        W22719   9.902  28.640  26.270 -0.3072 -0.1911  0.2092
79729W        W22720  26.992  33.808  27.882 -0.0556  0.2359 -0.0450
79730W        W22721  11.688  20.758   7.255 -0.1525  0.0242 -0.2857
79731W        W22722  12.398  28.350  26.230  0.1514  0.2546 -0.1123
79732W        W22723   0.499  21.544   3.412  0.1181  0.1372 -0.2576
79733W        W22724  22.604  24.026  17.511  0.1253  0.0620 -0.0461
79734W        W22725  24.130   1.619   1.342  0.3859 -0.4244  0.2516
79735W        W22726   7.155  30.081  16.156  0.1921 -0.2649  0.3633
79736W        W22727  16.439  26.172  18.067  0.0750 -0.1880  0.3181
79737W        W22728  17.622  26.982  23.377  0.4492 -0.0147 -0.1067
79738W        W22729  19.689  23.407  24.145  0.2764 -0.0407  0.1318
79739W        W22730  28.507   5.352  25.585 -0.0050 -0.5188 -0.0745
79740W        W22731  13.221  24.660  25.614 -0.0378 -0.0103 -0.1283
79741W        W22732  17.883  33.260  23.229  0.1532  0.1125  0.1484
79742W        W22733  21.034  23.744  15.113 -0.1123  0.1999  0.1817
79743W        W22734  22.910  13.384  16.264  0.0767  0.1766  0.0121
79744W        W22735  12.819  22.336  13.202 -0.1666 -0.0410  0.0345
79745W        W22736  18.511  27.361  26.656  0.0813 -0.3453 -0.1750
79746W        W22737  11.903  29.456  28.481  0.0148 -0.0094 -0.2146
79747W        W22738  13.079  11.608  17.973 -0.2572  0.0156  0.1473
79748W        W22739  16.133   9.358  29.054  0.0909  0.0740  0.1950
79749W        W22740  15.913  11.013  28.435 -0.2074 -0.0153  0.0673
79750W        W22741   7.563   1.203  17.983 -0.1090 -0.1216 -0.0356
79751W        W22742   4.617  22.981  20.078 -0.0213 -0.1970 -0.3669
79752W        W22743  11.271  29.837  16.337  0.1236  0.0014 -0.0936
79753W        W22744  27.282  34.268  17.965 -0.2175  0.3343  0.0502
79754W        W22745  27.038  22.142  15.088  0.1803 -0.4017 -0.1111
79755W        W22746  14.750   5.437  23.219 -0.1029 -0.0277  0.0814
79756W        W22747  26.477  34.596   1.734  0.4942  0.2904  0.4073
79757W        W22748   2.872  14.892  26.926  0.1604 -0.1704  0.0410
79758W        W22749   8.639  30.041  18.592  0.4815  0.1186  0.1144
79759W        W22750  27.668  24.902  12.787 -0.0930  0.1922 -0.4508
79760W        W22751  28.365  22.013  21.706  0.2046 -0.1112  0.0692
79761W        W22752  14.685  18.358  27.887 -0.1947  0.3492 -0.1065
79762W        W22753  11.201  34.295  24.980 -0.1051 -0.0471 -0.1389
79763W        W22754   9.608  23.588  23.411  0.0287 -0.1479  0.1228
79764W        W22755  26.716  29.055   1.125  0.0177  0.0016  0.3023
79765W        W22756  28.120  29.294  21.558  0.0682  0.0729  0.2315
79766W        W22757  33.183   4.825  19.032 -0.3945 -0.0542  0.3757
79767W        W22758   7.812  28.816  18.935 -0.2946  0.1769  0.2876
79768W        W22759  31.186  32.731  22.522  0.2164  0.1746  0.0909
79769W        W22760  13.106  17.515   0.306  0.2635 -0.0918 -0.4202
79770W        W22761  11.089  19.806  16.139 -0.0751  0.2580  0.1879
79771W        W22762  22.341  16.090  21.408  0.0381  0.1301 -0.0663
79772W        W22763  13.435  22.375  27.615 -0.1073 -0.2052 -0.0343
79773W        W22764  25.765  32.855  18.730  0.0111  0.2507 -0.1316
79774W        W22765  11.588  14.635  21.104 -0.2882  0.0682  0.0389
79775W        W22766  27.156   8.440   0.214  0.4033  0.1455  0.1097
79776W        W22767  17.984   5.005  17.104  0.0731  0.1574 -0.2530
79777W        W22768  25.617  28.258  23.784  0.1498 -0.0153 -0.1350
79778W        W22769  29.189  29.749   4.897  0.0534  0.0724 -0.0111
79779W        W22770  10.129   7.895  24.359 -0.1392  0.1081  0.1627
79780W        W22771   4.904   0.436  10.317  0.2449  0.1384  0.1186
79781W        W22772  26.457  23.698   8.377  0.0161 -0.2788 -0.1858
79782W        W22773   9.088  22.071   3.513  0.3399 -0.0152  0.0943
79783W        W22774   3.387  26.072  27.596 -0.2857  0.0977  0.0153
79784W        W22775  12.347  11.669  23.436 -0.2723  0.0906  0.0307
79785W        W22776  34.216  21.844  19.742 -0.0720 -0.4119 -0.2255
79786W        W22777  22.129  24.589  27.484  0.1470 -0.0172 -0.1596
79787W        W22778  19.289  10.424   1.105 -0.0475  0.1117 -0.2908
79788W        W22779   8.308  19.852  15.937 -0.1094 -0.0728  0.0781
79789W        W22780  18.822   7.389  22.047  0.1388  0.3845  0.0954
79790W        W22781  24.154  30.725  17.832  0.0537  0.3007  0.0655
79791W        W22782  17.110   0.886  22.836  0.0590 -0.2550 -0.1216
79792W        W22783  15.940   1.829   3.541 -0.2308 -0.1559  0.1353
79793W        W22784  27.204  34.291  22.810 -0.1490  0.1019  0.1243
79794W        W22785   7.820  19.595   2.766 -0.2609 -0.0003  0.3111
79795W        W22786   4.854  26.672   2.760 -0.0251  0.0960 -0.0635
79796W        W22787  22.126  27.509   2.107  0.0870 -0.3243 -0.7412
79797W        W22788  31.232  30.877  27.401 -0.0297 -0.1548 -0.0546
79798W        W22789  16.128  17.915  27.007 -0.4252  0.0851  0.2515
79799W        W22790  11.719  23.611  17.442 -0.0813 -0.0987 -0.0656
79800W        W22791  28.202  30.321  27.024 -0.1420 -0.0848 -0.0170
79801W        W22792   9.023  33.669  21.183  0.5709  0.4259 -0.3375
79802W        W22793  10.646  24.889  16.914  0.1774 -0.1520 -0.1542
79803W        W22794  26.201  19.408  15.098  0.2660 -0.1177 -0.0177
79804W        W22795  20.405   2.254  28.625 -0.1948  0.3913 -0.3326
79805W        W22796  23.255  18.192   4.368  0.3393  0.1072 -0.0336
79806W        W22797  30.796  32.412   3.199  0.1756  0.0554 -0.1142
79807W        W22798   0.088  24.901   2.588  0.1067  0.1030 -0.1585
79808W        W22799   3.036  29.492  18.206  0.5031 -0.0602  0.0348
79809W        W22800  21.069  19.261  21.874 -0.0140  0.1526 -0.3855
79810W        W22801  30.781  29.973  27.815  0.0947  0.1272  0.3147
79811W        W22802  24.309  30.637  26.378 -0.3694 -0.1289  0.1294
79812W        W22803   3.593  32.810   6.184 -0.0015  0.1282  0.0352
79813W        W22804  18.280  22.572   1.768  0.2284  0.3155 -0.2758
79814W        W22805  14.352  28.298  22.161 -0.1019  0.1970  0.2286
79815W        W22806   3.990  33.854   1.624 -0.0434 -0.0701 -0.0132
79816W        W22807  26.998  17.641  19.685 -0.0956  0.0943 -0.0601
79817W        W22808  26.853  30.831   7.489  0.0519  0.0375  0.3456
79818W        W22809   1.574  10.924   2.762 -0.2119 -0.2608  0.1795
79819W        W22810  19.945  11.958  25.222  0.0003 -0.1211  0.0114
79820W        W22811   6.471  20.647  26.629 -0.2437 -0.0636 -0.0121
79821W        W22812   1.509   2.513   5.663  0.0538 -0.1977  0.0917
79822W        W22813  21.455  29.900  25.809 -0.2144 -0.1229  0.1389
79823W        W22814  11.000  32.028  28.698  0.2925 -0.2697 -0.3563
79824W        W22815   5.485  24.110  27.154 -0.1943 -0.0740  0.2471
79825W        W22816  17.407  29.855   7.025  0.1164  0.0049 -0.1621
79826W        W22817  29.805  17.166  20.464 -0.1270  0.4728 -0.1594
79827W        W22818   6.440  12.864  15.541  0.0509  0.1780 -0.1145
79828W        W22819  22.088  33.271  25.918  0.0910  0.2763  0.2890
79829W        W22820  20.490  24.234  22.151 -0.1861 -0.1380 -0.3597
79830W        W22821   8.303  19.010  22.832 -0.0466  0.0460 -0.0992
79831W        W22822  10.317   5.682  23.159  0.1228 -0.0463 -0.1534
79832W        W22823  10.840  31.804  16.710  0.1726  0.0062 -0.3742
79833W        W22824  33.336  31.974  28.801  0.2256 -0.1508  0.2634
79834W        W22825  12.846  19.947   4.846 -0.0665 -0.2601 -0.0009
79835W        W22826  19.625  33.456  27.419 -0.0327  0.0891 -0.0915
79836W        W22827  25.248  30.761  29.117  0.0536 -0.0826 -0.2503
79837W        W22828   2.239   9.266  26.756  0.0602  0.1107  0.1228
79838W        W22829   3.062  24.002  24.963  0.4161  0.2470  0.2345
79839W        W22830  26.851  23.656  22.046 -0.2442 -0.0843 -0.1063
79840W        W22831  21.128  21.044   0.914 -0.3063 -0.1368  0.0487
79841W        W22832  14.449  20.298   5.697  0.0724 -0.0920  0.1232
79842W        W22833  19.129  29.459   6.180  0.1106 -0.0579  0.1949
79843W        W22834  11.631   4.852   5.022  0.3174  0.4584  0.0837
79844W        W22835  20.916  33.332  22.621  0.0896 -0.2671  0.1118
79845W        W22836  21.623  23.441  24.790  0.3880  0.2534  0.2274
79846W        W22837  16.128  24.578  25.386 -0.0826  0.2294  0.0432
79847W        W22838  17.164  26.708  25.839 -0.0773 -0.1002  0.2039
79848W        W22839   5.545  12.422  20.820  0.0964 -0.0254 -0.1707
79849W        W22840  13.596  21.536  28.551 -0.0247 -0.0917  0.1375
79850W        W22841  30.195   2.149  25.216  0.1483 -0.0592  0.1705
79851W        W22842  23.834  27.805  17.005 -0.0793 -0.1497 -0.1213
79852W        W22843   6.400  30.033  25.731  0.1482  0.0859 -0.0362
79853W        W22844   3.912  27.526  15.788  0.1850 -0.2479 -0.1581
79854W        W22845  18.429   1.435   3.025  0.1171 -0.0737  0.2081
79855W        W22846  16.719   1.671   2.260 -0.0114  0.0991  0.1095
79856W        W22847  29.704  31.469  29.045 -0.1436 -0.0453 -0.0812
79857W        W22848  11.864  30.593  26.676 -0.1234 -0.1494 -0.2234
79858W        W22849   2.742  26.200   7.363 -0.3625 -0.2085 -0.0492
79859W        W22850  22.233  31.709  14.771  0.1731  0.2057 -0.3535
79860W        W22851   9.823   1.223  17.480  0.0632  0.4392  0.2614
79861W        W22852  18.029  19.992  14.715  0.1917 -0.0794 -0.2375
79862W        W22853   2.647   9.323   8.718  0.2948  0.0271 -0.3938
79863W        W22854  15.873   2.540   1.270 -0.0592 -0.3629  0.1933
79864W        W22855  18.202  26.812  14.159  0.1704  0.0384 -0.1391
79865W        W22856  10.870  29.210  18.944  0.2584  0.0065 -0.0143
79866W        W22857  26.663  22.102  19.898 -0.0553 -0.0365 -0.3504
79867W        W22858  16.435  10.650   3.027  0.2682 -0.0038 -0.1319
79868W        W22859   4.481   0.980  21.265 -0.1733 -0.2132  0.4392
79869W        W22860  20.968   1.937  14.097 -0.1649  0.1794  0.0363
79870W        W22861  11.859   0.716  20.065  0.0952 -0.0830 -0.1233
79871W        W22862  16.992  32.228   3.937  0.0985  0.1872 -0.1842
79872W        W22863  26.264  29.588  22.103  0.1608 -0.1100 -0.3771
79873W        W22864  20.533   5.372  26.364  0.2706 -0.2288  0.1463
79874W        W22865  12.563  21.041  28.558  0.3640  0.0687 -0.0520
79875W        W22866   9.706  31.814   9.873  0.2525 -0.3209  0.0066
79876W        W22867   7.576  23.958   4.851 -0.2948  0.1552 -0.0216
79877W        W22868  32.341  32.582  27.016 -0.1113 -0.0126  0.2579
79878W        W22869  22.263  26.796   2.742 -0.3879 -0.1609 -0.2516
79879W        W22870  25.210  24.745   6.921 -0.0080  0.2246  0.0025
79880W        W22871  10.770  21.078  27.376  0.3218  0.2370  0.2354
79881W        W22872  27.644  16.748   2.387 -0.3597  0.0993  0.1112
79882W        W22873  17.270  24.672  25.010 -0.3207  0.2876 -0.2210
79883W        W22874  21.530  34.319   5.155 -0.0693 -0.3237 -0.1329
79884W        W22875  21.635  10.164  13.977 -0.3679  0.0563  0.3721
79885W        W22876  14.466  31.917   5.414  0.0391  0.3731  0.0343
79886W        W22877  19.144  25.743   4.436  0.0682 -0.0804  0.2302
79887W        W22878  25.831  14.671  27.760 -0.3690 -0.1356  0.1362
79888W        W22879  16.747  16.740  24.903 -0.0622 -0.2331 -0.2725
79889W        W22880   3.965  22.492   8.025  0.1501  0.1660  0.2786
79890W        W22881   5.734  11.257   2.393 -0.3620  0.1047 -0.1004
79891W        W22882  11.378  26.887  15.281 -0.0069  0.3738  0.2868
79892W        W22883  28.895  30.844   6.941 -0.0627 -0.1398 -0.0006
79893W        W22884  13.472   5.701  20.084 -0.0001  0.3204  0.0928
79894W        W22885  15.337  17.365  13.361  0.0865 -0.0546 -0.2186
79895W        W22886   0.180  28.890  28.451  0.0282 -0.1413  0.0844
79896W        W22887  19.867  20.406  28.024  0.0682 -0.2207  0.4272
79897W        W22888   6.773   2.118   1.741  0.0809 -0.0628 -0.2754
79898W        W22889   3.912  29.140   0.229  0.5165  0.1316 -0.1761
79899W        W22890   0.504  33.139   8.976  0.1484  0.1654  0.2339
79900W        W22891   9.738  15.464  24.575 -0.1832  0.1108  0.0923
79901W        W22892  16.607  30.422   0.008  0.0078 -0.1103  0.1602
79902W        W22893  17.778  31.991  19.525 -0.0864 -0.1630  0.1140
79903W        W22894  31.974  31.259   0.410 -0.2401 -0.1113  0.0031
79904W        W22895  12.481  28.162  15.642  0.1225 -0.0909  0.1692
79905W        W22896  34.544  17.364  23.700  0.0385  0.2041 -0.2000
79906W        W22897  10.635  20.112  21.806 -0.3243  0.1862  0.2638
79907W        W22898  18.523  30.362  17.734  0.0341  0.0271  0.0382
79908W        W22899  24.967  11.800   3.732  0.2861  0.0350 -0.2967
79909W        W22900  11.348  26.835   9.515 -0.0312 -0.0969 -0.3779
79910W        W22901  23.930  30.022   2.590  0.2976 -0.2426 -0.0940
79911W        W22902  31.335  12.629   2.523 -0.1996 -0.2437 -0.3416
79912W        W22903   9.905   5.283  19.338 -0.0200  0.0784  0.1684
79913W        W22904  14.139  31.760   5.045  0.1611 -0.1300  0.0352
79914W        W22905  25.593  14.245   6.921  0.0396 -0.4250  0.0083
79915W        W22906   6.053  20.977  25.441  0.1055  0.0517  0.0275
79916W        W22907  21.638  26.183  25.357 -0.0702 -0.2500 -0.0292
79917W        W22908  19.205  16.520   0.931 -0.2125  0.3566  0.3769
79918W        W22909  27.141  33.365   1.400 -0.0174  0.2874  0.2010
79919W        W22910  16.343  28.021  28.511 -0.2472  0.0035 -0.0187
79920W        W22911  32.832  14.250   4.584  0.0256  0.0536  0.3745
79921W        W22912  25.178  15.021   0.390  0.0942 -0.0246 -0.0905
79922W        W22913  15.731  32.439  16.861  0.3125  0.1294  0.2133
79923W        W22914  18.616  29.051  26.866  0.4217 -0.0193 -0.1499
79924W        W22915  28.753   2.112  18.176  0.0972 -0.0134  0.2270
79925W        W22916  33.073  34.356   3.424 -0.1095 -0.0836 -0.2215
79926W        W22917  14.246  34.658  23.900 -0.0323  0.0927 -0.0105
79927W        W22918  30.239  21.375   1.711  0.2058  0.0040 -0.1921
79928W        W22919  13.294  32.307  10.077  0.3987 -0.0100  0.1996
79929W        W22920  28.771  24.311   4.877  0.1795  0.1513  0.0848
79930W        W22921  14.913  13.223  22.011  0.0183  0.0069 -0.0707
79931W        W22922  23.779  31.709  27.252 -0.0421 -0.1137  0.1082
79932W        W22923  13.499  25.205  28.327  0.0736 -0.0798  0.3389
79933W        W22924   4.139  30.853   4.727  0.0195 -0.0633  0.4075
79934W        W22925  10.891   7.961  22.073  0.1592 -0.1187  0.1387
79935W        W22926  25.418   0.555  23.802  0.3463 -0.0240  0.1710
79936W        W22927  27.815  14.690  15.279 -0.0702  0.0381 -0.3089
79937W        W22928  17.579   3.378  17.618 -0.0144  0.0611  0.0799
79938W        W22929  22.987  20.632   2.936 -0.0147  0.1572 -0.1373
79939W        W22930  34.708  34.069  20.176 -0.2810  0.2217  0.1409
79940W        W22931  10.871  26.719  26.091 -0.1268 -0.0161 -0.0433
79941W        W22932  15.595  27.402   7.484 -0.3099  0.0199 -0.0610
79942W        W22933  17.701  28.880  13.462  0.1208 -0.0871 -0.3250
79943W        W22934   0.295  19.903  18.466 -0.0404 -0.3461 -0.0446
79944W        W22935  25.794   3.240  19.478  0.2507  0.0772 -0.2240
79945W        W22936  16.958   4.793  18.238 -0.2657 -0.1168 -0.0962
79946W        W22937  16.537   5.096  26.066  0.1781  0.1125  0.1266
79947W        W22938  29.816   5.060  17.300 -0.0687  0.0231 -0.2941
79948W        W22939  22.561  18.426  24.894  0.3590  0.1737 -0.0557
79949W        W22940  15.457   4.117  26.805  0.3727 -0.2404  0.1047
79950W        W22941   4.551  24.779   9.598 -0.0798 -0.1681  0.2220
79951W        W22942  22.311  25.473  25.340  0.0898 -0.2354  0.1237
79952W        W22943  16.059  23.624  24.323  0.2540 -0.1323 -0.0099
79953W        W22944   0.226  27.987  14.584  0.2916 -0.1115  0.3662
79954W        W22945  26.292  19.064  14.707  0.1101 -0.1891  0.0095
79955W        W22946   9.251  20.886  26.768  0.1342  0.0057 -0.0226
79956W        W22947  12.447  23.996   7.756  0.1766  0.1935  0.3195
79957W        W22948  26.579  24.760  17.125  0.2259 -0.1500 -0.0256
79958W        W22949  25.748  28.479   2.799 -0.0397 -0.1769  0.2212
79959W        W22950  22.104  26.413   2.422  0.0162 -0.2355 -0.2455
79960W        W22951  20.567  23.313   0.707  0.2074 -0.0301 -0.0625
79961W        W22952  12.100   9.545  18.070  0.2936 -0.1254 -0.3366
79962W        W22953   7.368   9.505   1.585  0.0717 -0.0169 -0.0041
79963W        W22954  17.507   0.430  15.260 -0.3251 -0.0078 -0.1065
79964W        W22955  18.059  32.058   8.883 -0.1540 -0.1321  0.0247
79965W        W22956  16.924  11.277   6.461 -0.1969  0.0802  0.2664
79966W        W22957   3.026   1.815  27.281 -0.1964  0.0395 -0.0229
79967W        W22958   3.662   5.687  28.576 -0.0777 -0.1639 -0.0472
79968W        W22959  11.710  24.215  27.352 -0.1633 -0.0238 -0.1377
79969W        W22960  23.826  24.651  28.552  0.1989  0.3456  0.0020
79970W        W22961  18.787  23.927   2.831 -0.2998 -0.1556  0.0075
79971W        W22962  33.826  32.740  23.946 -0.1180  0.1101 -0.1335
79972W        W22963  13.568  29.391   2.763  0.0732  0.1816  0.1177
79973W        W22964  12.047   7.371   2.393  0.2056 -0.1552 -0.2506
79974W        W22965  24.257  26.400  21.041  0.2810 -0.1027 -0.0921
79975W        W22966   5.919  24.551   0.376 -0.1540  0.1311 -0.1777
79976W        W22967  18.913  24.112  13.812 -0.1986  0.1943 -0.0983
79977W        W22968  12.790  25.529  20.165  0.0246  0.4482 -0.3050
79978W        W22969   9.941  14.956  21.263  0.1785  0.1619  0.1321
79979W        W22970  29.281  20.178  27.044 -0.2217 -0.0955  0.1443
79980W        W22971  19.433  31.913   8.376  0.0558  0.0171  0.2016
79981W        W22972  27.189  21.433  25.816 -0.0693 -0.0099  0.5818
79982W        W22973  33.003  33.239  14.481  0.0036 -0.1511 -0.0532
79983W        W22974  10.050   4.901  26.964 -0.2718 -0.0208  0.0776
79984W        W22975  11.936  24.381   3.544  0.1630 -0.4376 -0.0823
79985W        W22976  13.963  12.960  24.351 -0.0473  0.2136 -0.0274
79986W        W22977  32.637  18.306  19.275 -0.1400 -0.2876 -0.1493
79987W        W22978   8.322   5.071   1.277 -0.1579  0.0122  0.0008
79988W        W22979  13.077  34.208   9.395 -0.0440 -0.0226 -0.0115
79989W        W22980  16.524  20.157  24.447  0.1595  0.2435 -0.1165
79990W        W22981  24.057  21.127   3.942 -0.1425  0.0462 -0.0680
79991W        W22982  12.619  23.954   0.640  0.1564 -0.1776  0.1356
79992W        W22983  25.133  13.999  16.489 -0.2860 -0.1340 -0.0344
79993W        W22984  20.187   7.107  22.709  0.0268  0.0405  0.0191
79994W        W22985  11.548  27.914  14.728  0.1996  0.2560  0.0744
79995W        W22986  16.714  32.874   3.996 -0.0083  0.1218  0.0083
79996W        W22987   5.295  33.286   6.021 -0.3617 -0.1052  0.1035
79997W        W22988   7.288   9.167  26.768 -0.3049  0.2616 -0.1377
79998W        W22989  16.391   1.267  28.409 -0.2289  0.0689 -0.2062
79999W        W22990   7.514   4.420  29.198 -0.0390 -0.1412  0.1960
80000W        W22991  20.052  25.887   3.940  0.3199  0.3799  0.3012
80001W        W22992  14.796   0.407   2.679 -0.1785 -0.0628 -0.0921
80002W        W22993  10.208  16.612   8.571  0.0201  0.2986 -0.0535
80003W        W22994  22.871   8.519   2.648  0.1169  0.0843  0.0193
80004W        W22995   7.511  19.792   4.219  0.1233  0.0259 -0.2562
80005W        W22996  21.925  32.288   8.534  0.1859  0.0191  0.2607
80006W        W22997  20.856  32.879  26.225  0.0183 -0.1583  0.0411
80007W        W22998  27.046  18.827   6.293 -0.1102  0.1886 -0.2131
80008W        W22999  23.942  32.737  14.761  0.3168  0.0608  0.2575
80009W        W23000  33.011  16.233  22.642 -0.0035  0.0675 -0.2265
80010W        W23001  11.380  33.228  20.952  0.1330  0.4189 -0.2964
80011W        W23002   7.081  28.740  20.810 -0.0436 -0.1449  0.0728
80012W        W23003  32.526  26.711  26.090  0.2153  0.2473  0.3600
80013W        W23004   4.411   9.574  11.328  0.3494  0.0649 -0.1288
80014W        W23005  20.277  17.550   9.001 -0.0847  0.0168 -0.2203
80015W        W23006  22.583  23.570  20.059  0.1327  0.0075  0.2058
80016W        W23007   6.238  34.375   0.154 -0.1447 -0.0010 -0.2232
80017W        W23008   4.031  34.682  25.987 -0.1570  0.2091  0.0440
80018W        W23009  24.742  18.256   1.301  0.0403 -0.0987 -0.1175
80019W        W23010   2.391  11.051  26.432  0.1320 -0.2686  0.1576
80020W        W23011   6.897   6.148   0.143 -0.2977 -0.2052  0.2764
80021W        W23012  14.222  15.286  25.522 -0.0963 -0.0017  0.1501
80022W        W23013  19.782  16.879   3.728 -0.1126 -0.1849  0.1357
80023W        W23014  17.056  27.163  22.050 -0.0939 -0.0101 -0.0229
80024W        W23015   5.370  21.587  19.524 -0.0178 -0.1388 -0.3547
80025W        W23016  28.595  33.552   5.744 -0.0763 -0.0845  0.0721
80026W        W23017  25.927  33.177   0.961  0.2157 -0.1513 -0.1466
80027W        W23018  13.216   0.149  29.123 -0.2679  0.1642  0.1844
80028W        W23019  26.849  24.110  18.022  0.2494 -0.2332 -0.3640
80029W        W23020  24.851   0.206  19.505 -0.1025 -0.1635 -0.1839
80030W        W23021   6.702   2.758  28.319  0.2873  0.0274 -0.2677
80031W        W23022  10.487  34.392   5.663 -0.4728  0.1602 -0.2294
80032W        W23023  26.653  32.614  15.393 -0.1828  0.1427 -0.0574
80033W        W23024  13.494  29.577  28.834  0.1479 -0.0512  0.1215
80034W        W23025  19.043  17.033  12.922 -0.2152  0.0536 -0.3012
80035W        W23026  18.240   7.927  28.707 -0.1159  0.3034  0.2916
80036W        W23027  11.931  14.350  20.272  0.0608  0.2311  0.1286
80037W        W23028  16.636  23.643   7.658  0.1838 -0.1872  0.1007
80038W        W23029  28.824  21.485  19.873  0.0199  0.0902 -0.3733
80039W        W23030  21.668  31.727   1.199  0.1338  0.1751  0.1455
80040W        W23031  20.495   9.702   8.974 -0.1786 -0.0167  0.3778
80041W        W23032  32.718  29.817  22.697  0.0065 -0.2424  0.0177
80042W        W23033  27.344  21.607  21.900  0.1592 -0.0381 -0.0146
80043W        W23034  25.693  23.859  27.407 -0.0347  0.0992 -0.0402
80044W        W23035  20.127   3.569  19.578  0.0525 -0.1271  0.0805
80045W        W23036  10.416  30.159  25.478  0.0850  0.1442 -0.1967
80046W        W23037   0.406  25.289   6.278 -0.2808 -0.0088  0.2827
80047W        W23038   5.997  20.497  24.065 -0.1003  0.1972  0.1215
80048W        W23039  12.998  32.066  24.451 -0.0450 -0.3281 -0.2113
80049W        W23040  21.715   9.953   4.431  0.2592  0.3354 -0.1086
80050W        W23041  10.804   7.737   4.629 -0.4115  0.1109  0.2165
80051W        W23042  13.244  29.979  17.170 -0.0239  0.2113 -0.2577
80052W        W23043  15.563   3.238   3.370 -0.1823 -0.0852  0.0842
80053W        W23044   4.997  33.657  21.767  0.0262 -0.0167 -0.1332
80054W        W23045  33.749  34.363   3.108  0.1539 -0.1736 -0.0548
80055W        W23046  23.293  27.694   0.325  0.1840 -0.1030  0.0088
80056W        W23047  15.579  18.047  26.988 -0.0766 -0.2139  0.1487
80057W        W23048  33.563  19.869  26.614 -0.1396 -0.0576  0.0418
80058W        W23049  25.540  24.014   5.251 -0.2317 -0.0356 -0.0350
80059W        W23050   7.347  19.577  25.592 -0.2417 -0.2465 -0.0896
80060W        W23051  16.352  15.734   0.968  0.0095 -0.1752 -0.2471
80061W        W23052   7.593  17.131  19.557 -0.1648  0.2445 -0.3471
80062W        W23053  34.415   0.945  22.751  0.3289 -0.0150 -0.1532
80063W        W23054   2.420  20.864  14.766  0.2370 -0.0109  0.0919
80064W        W23055   0.672  33.801  28.829  0.0633  0.1132 -0.1081
80065W        W23056  22.865  21.451   6.298  0.0329 -0.4501 -0.3270
80066W        W23057  12.370  33.583  25.775 -0.0774 -0.2036 -0.1336
80067W        W23058   0.527  21.363   9.173  0.1125  0.0314 -0.0599
80068W        W23059  18.492  23.123  14.797 -0.0906 -0.1697  0.2195
80069W        W23060  11.297  32.917  21.332  0.1528  0.0335  0.0690
80070W        W23061  33.392  30.349  19.713 -0.1004  0.0801 -0.2449
80071W        W23062   8.791  26.097  24.115  0.0462 -0.1146  0.0849
80072W        W23063  12.617  22.693  23.111 -0.3273  0.3773 -0.1578
80073W        W23064   5.485   1.071   8.982 -0.1896 -0.1938  0.2558
80074W        W23065  26.772  27.697  19.744 -0.2586 -0.0202  0.2615
80075W        W23066  19.058  15.249  21.197  0.1080 -0.5146  0.1738
80076W        W23067  20.056  30.263   7.068 -0.0530  0.0297  0.1266
80077W        W23068  23.029  21.151   2.784 -0.0783 -0.0839  0.1114
80078W        W23069  17.661  32.050   7.686 -0.2131  0.0728 -0.2326
80079W        W23070  14.740  11.683  15.563 -0.0860 -0.0684 -0.2020
80080W        W23071  33.520  19.656   1.328 -0.0929 -0.3110 -0.1499
80081W        W23072  27.627  29.091   4.329 -0.1141 -0.2029 -0.2639
80082W        W23073  26.819  14.924  25.130  0.0407  0.0417  0.2351
80083W        W23074  13.978   1.070  10.818  0.2815  0.0814 -0.0683
80084W        W23075  19.489  21.255  25.929  0.0042  0.2516  0.2240
80085W        W23076   0.657  15.538  27.684 -0.2765 -0.1291 -0.0944
80086W        W23077  22.127  12.023   4.181  0.3349 -0.0500 -0.0948
80087W        W23078  22.288  17.696  14.132 -0.0783 -0.2950  0.0186
80088W        W23079  34.743  31.139  26.148  0.4652 -0.3011 -0.1853
80089W        W23080  28.247  25.791  19.150 -0.2246 -0.2672  0.2787
80090W        W23081  32.078  28.271  13.475  0.1298 -0.1892 -0.2315
80091W        W23082  12.394   2.323  22.152 -0.0841  0.3325 -0.1993
80092W        W23083  19.046  20.476  28.997 -0.0214  0.2043  0.2800
80093W        W23084  27.947  27.899  15.517 -0.3859 -0.0956  0.0298
80094W        W23085   0.886  19.147  21.235  0.1729 -0.1441  0.0085
80095W        W23086  24.707  31.011  21.521  0.0507  0.0100  0.0371
80096W        W23087   7.968  28.960   3.685  0.1011 -0.0803 -0.1399
80097W        W23088  10.418  22.882  23.718  0.1818  0.1552  0.0347
80098W        W23089  22.916  30.227  24.931  0.0397 -0.1710  0.0128
80099W        W23090  17.436  33.830   1.712  0.2064 -0.1463  0.0055
80100W        W23091  27.812  31.084   4.633  0.1599  0.4173 -0.2651
80101W        W23092  32.115  24.221  20.767 -0.0947  0.2332  0.1088
80102W        W23093   9.871  23.644  14.349 -0.0188 -0.3164 -0.2549
80103W        W23094  14.776  15.431   5.344 -0.0507  0.0925  0.0796
80104W        W23095  23.534  12.409   6.901  0.2002  0.0802  0.1926
80105W        W23096   2.322  17.620   1.766  0.0449 -0.3642 -0.0220
80106W        W23097  12.290  23.313   4.680 -0.0512 -0.1924 -0.0427
80107W        W23098  10.380  22.843  24.864  0.0112  0.0405  0.0936
80108W        W23099  34.175  28.041  19.077  0.0025  0.1882 -0.0073
80109W        W23100  11.949   6.375  24.008 -0.1519  0.1100 -0.1045
80110W        W23101   6.286   2.087  26.357  0.0343  0.2128  0.2793
80111W        W23102  23.595  13.865  21.706 -0.0556  0.0628 -0.1013
80112W        W23103  34.039  19.566   0.642 -0.1542  0.0177  0.1331
80113W        W23104  26.933  24.661   0.272 -0.1040  0.1607 -0.0210
80114W        W23105   3.174  18.758  27.885  0.0485  0.3901  0.0036
80115W        W23106  30.753  25.252  17.535 -0.0152 -0.3568 -0.1348
80116W        W23107   1.528  26.930   0.257 -0.0966  0.1415  0.0912
80117W        W23108   7.932  18.796  28.130 -0.1779 -0.0077 -0.1245
80118W        W23109  14.418  20.042  23.831 -0.0067  0.1919  0.1009
80119W        W23110  17.210  24.188  24.126  0.1186  0.4656  0.3263
80120W        W23111  10.481  12.152   7.754 -0.2884  0.1453 -0.0498
80121W        W23112   6.582  27.356  18.401  0.3402  0.0543 -0.0687
80122W        W23113   2.081   7.639  28.103 -0.0356  0.3388  0.1493
80123W        W23114   7.346  22.536   7.543  0.0294  0.2322 -0.1293
80124W        W23115  17.107  17.290  20.279 -0.3081  0.0232 -0.1584
80125W        W23116  23.286  18.011  23.664  0.0858  0.0566  0.0011
80126W        W23117  20.068   3.874  28.447  0.1200  0.2630 -0.0416
80127W        W23118  14.570  32.354   3.366  0.2159  0.0469 -0.0639
80128W        W23119  20.592  18.816  25.146  0.4106 -0.1867 -0.0288
80129W        W23120  23.517  27.388  20.127 -0.1220  0.2707  0.0916
80130W        W23121  23.677   2.309  14.572  0.2752 -0.1944 -0.1258
80131W        W23122  16.189   6.029  20.168 -0.4949 -0.2851  0.1302
80132W        W23123  27.488   6.617   8.297  0.0043 -0.0752  0.1006
80133W        W23124  30.572   4.407  15.684 -0.0175 -0.0043 -0.0643
80134W        W23125   5.487  12.541  10.963 -0.1974  0.4928  0.1417
80135W        W23126   4.262  12.019   3.710 -0.0023 -0.3047 -0.0630
80136W        W23127  21.402  25.450  26.795  0.0847  0.2609  0.0896
80137W        W23128  26.151  22.932  27.542  0.2205 -0.2108  0.0133
80138W        W23129  23.713   3.288   3.541 -0.0467 -0.1679 -0.0510
80139W        W23130  11.142  34.629  10.309 -0.3747 -0.1701 -0.3102
80140W        W23131   3.980  24.405  25.838  0.2600 -0.2935  0.0670
80141W        W23132  15.698  14.437   8.527  0.1472 -0.1115  0.0879
80142W        W23133  12.801   5.378   0.164 -0.2817 -0.0044 -0.0159
80143W        W23134   5.443  20.898  25.249  0.1789 -0.0328  0.1798
80144W        W23135   2.782  11.437   8.313  0.1517  0.2866 -0.1235
80145W        W23136  30.702  26.409  25.622 -0.0723  0.1831 -0.2241
80146W        W23137  12.078  34.660   7.112  0.4022 -0.0287  0.2525
80147W        W23138  30.280  28.781   6.457  0.0984 -0.0681 -0.2574
80148W        W23139  25.506   7.687  18.446  0.2780  0.0154 -0.1799
80149W        W23140  10.561  18.947   8.753  0.0821 -0.0577  0.0044
80150W        W23141   3.020  24.174   4.432  0.0861 -0.0894  0.0926
80151W        W23142  14.510  32.071  15.463 -0.1703  0.0157 -0.1781
80152W        W23143  22.072  31.408  28.396  0.2027  0.3183 -0.0461
80153W        W23144  25.071  28.955  28.307 -0.3252 -0.0178  0.0889
80154W        W23145  18.397   6.153   0.695 -0.0701  0.1556 -0.1872
80155W        W23146   5.148  33.817  24.941 -0.0519  0.0739  0.2847
80156W        W23147  22.611   9.726  27.213 -0.5818 -0.0160  0.2393
80157W        W23148   4.197  28.375  20.522  0.1113 -0.0044 -0.0218
80158W        W23149  17.002  30.241   2.937  0.0703  0.1663 -0.1572
80159W        W23150  31.147  33.060   0.994  0.2228  0.5042 -0.1868
80160W        W23151  22.295  25.833   9.316 -0.1250  0.1337 -0.0992
80161W        W23152  11.949  30.075  21.514  0.2077 -0.3417 -0.0871
80162W        W23153  14.763  26.945  24.884 -0.0183 -0.2922 -0.1252
80163W        W23154   7.364  12.964   5.252  0.0228 -0.1514 -0.2177
80164W        W23155   9.496  10.799   0.778 -0.4710 -0.1903 -0.1031
80165W        W23156  11.308  15.264  26.441 -0.1645  0.0568  0.2918
80166W        W23157  27.611  30.037  23.361 -0.3602 -0.1093 -0.1460
80167W        W23158  13.423  22.484  23.514 -0.1845 -0.2674 -0.0597
80168W        W23159   6.552  27.558  27.494 -0.0670  0.1816  0.1927
80169W        W23160  21.515  21.191  15.522 -0.3035  0.0649  0.1652
80170W        W23161  14.284  28.043   8.668  0.0332 -0.3595  0.3286
80171W        W23162  22.584  24.838   8.554 -0.2730 -0.0090 -0.3202
80172W        W23163   2.969  29.313   0.082  0.0741  0.2175  0.0613
80173W        W23164  14.745  29.613  21.273  0.1141  0.3816  0.2425
80174W        W23165  13.360  15.115  28.860  0.1120 -0.2590  0.0624
80175W        W23166  19.119  31.028   2.743  0.0984 -0.1351  0.2310
80176W        W23167  18.514  27.633  16.991  0.2213  0.3096  0.1078
80177W        W23168   4.186   2.390  22.182  0.1215  0.1172 -0.1114
80178W        W23169   2.639  34.180   8.364  0.0116 -0.2231  0.0196
80179W        W23170  16.372  23.481  26.120 -0.1035 -0.1598 -0.0559
80180W        W23171  33.618  18.046  19.865 -0.0953 -0.1510  0.2983
80181W        W23172   1.355   0.322   1.894 -0.1578 -0.3469  0.0020
80182W        W23173  29.449  19.149   7.762 -0.0792 -0.0329  0.1271
80183W        W23174  15.533  32.919  24.417  0.0931 -0.1150  0.0552
80184W        W23175  22.994   0.690   1.297 -0.3455  0.1346  0.0790
80185W        W23176  12.313  25.035  21.944 -0.1441 -0.0827 -0.0887
80186W        W23177  26.659  23.938  14.724  0.0622 -0.2383  0.1090
80187W        W23178  29.290  19.348  26.038 -0.0108  0.2234 -0.1799
80188W        W23179   5.712  29.314   3.067  0.0421 -0.0169 -0.1659
80189W        W23180  32.399  19.963   4.881 -0.3342 -0.1261  0.0045
80190W        W23181   3.290  24.975   0.945  0.1917 -0.1000  0.1092
80191W        W23182   0.044  25.145  25.296 -0.1384  0.1647  0.0398
80192W        W23183  12.055   3.531  19.145  0.1512  0.1396 -0.0827
80193W        W23184  24.726  32.163   8.181 -0.1016 -0.0917  0.0779
80194W        W23185  13.602  26.538   1.485 -0.1141 -0.1749  0.4524
80195W        W23186   9.784  16.175  18.320  0.0634  0.1337  0.1999
80196W        W23187  17.574  30.964   0.633 -0.1297 -0.1020  0.1015
80197W        W23188   7.138  21.161   1.546 -0.1582  0.1082 -0.1839
80198W        W23189  31.705   5.116   1.786 -0.0478  0.0295 -0.0734
80199W        W23190  11.725  32.115   1.242  0.0937 -0.0979 -0.1443
80200W        W23191  18.203  22.329  28.408  0.1815  0.0348 -0.1139
80201W        W23192  22.470   4.233  20.929  0.2557 -0.0388  0.2566
80202W        W23193  33.911  21.047   9.632 -0.0891 -0.0786 -0.0156
80203W        W23194  33.484  27.651   3.375 -0.0338  0.1152  0.1778
80204W        W23195  16.962   5.908  25.524  0.2326  0.0252  0.2593
80205W        W23196   1.823  30.362  15.670  0.0012 -0.0470 -0.2461
80206W        W23197  25.065   3.916  25.493  0.2207 -0.2046  0.2344
80207W        W23198   3.531  18.817  11.020  0.0864 -0.0864  0.0819
80208W        W23199   5.687  16.051  25.168  0.0767 -0.2438 -0.1831
80209W        W23200   9.482   3.129  25.932  0.0937 -0.0110 -0.0908
80210W        W23201  16.585  13.955  19.314 -0.2485 -0.3897 -0.2169
80211W        W23202  21.573   7.391  29.181 -0.2073  0.1478  0.1608
80212W        W23203   7.081  19.910   3.618 -0.1564  0.0565 -0.3280
80213W        W23204  17.523  23.540   7.491 -0.2898  0.3860 -0.1232
80214W        W23205  19.547  20.629   7.064 -0.0868  0.2417 -0.3035
80215W        W23206  24.060  14.014  28.431 -0.0793 -0.2052 -0.1999
80216W        W23207  17.038   5.378  18.916 -0.1019 -0.0469  0.1260
80217W        W23208  14.552  32.337  16.626 -0.1802  0.0873  0.1049
80218W        W23209  30.643  22.520  20.814 -0.1174 -0.3742  0.3261
80219W        W23210  28.642  12.275   0.555  0.2326  0.2141  0.3310
80220W        W23211  16.975  30.723  15.670 -0.3663 -0.0876 -0.0781
80221W        W23212  16.907  30.242  20.577  0.1750  0.3430  0.0744
80222W        W23213  33.062  23.924   4.842 -0.1059  0.0294  0.1954
80223W        W23214  12.559  33.378   1.610 -0.0390 -0.0973  0.2538
80224W        W23215  32.852   9.592   6.688 -0.0209 -0.2981 -0.0176
80225W        W23216  13.791  29.989   0.083 -0.2009 -0.0032 -0.0839
80226W        W23217  10.160  20.458   8.009 -0.2117  0.1264  0.0509
80227W        W23218  18.477  16.326  24.722 -0.1292  0.0980 -0.0693
80228W        W23219  19.159  24.883  23.360  0.4243 -0.0260  0.0161
80229W        W23220   7.688  22.928  28.287 -0.2145  0.1893 -0.0572
80230W        W23221  20.644  22.880  17.681 -0.0050 -0.0420  0.0905
80231W        W23222  19.238  20.259  18.455 -0.1092 -0.2281  0.0010
80232W        W23223   3.067  13.431   8.495 -0.2886 -0.1736 -0.0188
80233W        W23224  17.118  20.988  19.624 -0.1637 -0.1881 -0.0066
80234W        W23225  17.948  29.474  15.943 -0.1048  0.0730 -0.0837
80235W        W23226  28.727  20.629  20.425 -0.1274 -0.1282  0.2208
80236W        W23227  14.127  30.353  28.306  0.0119  0.0983 -0.1089
80237W        W23228   8.615   4.370  21.073  0.2751 -0.1889  0.0379
80238W        W23229  13.461  22.865  20.125 -0.2587  0.1193  0.2171
80239W        W23230  15.597   1.116  26.861 -0.2443 -0.2318 -0.0790
80240W        W23231   0.085  30.189   1.671  0.0518 -0.1622  0.0860
80241W        W23232  19.777  31.605   8.561  0.2283  0.1161 -0.0892
80242W        W23233   8.795  32.900  20.374  0.2308 -0.1735  0.1274
80243W        W23234  13.143  32.127  16.740  0.2155  0.1707 -0.5188
80244W        W23235  21.748  33.771  26.983  0.2492  0.1074 -0.2233
80245W        W23236  19.560  34.258  20.149  0.1170  0.2162  0.0780
80246W        W23237  13.451  26.111  19.081 -0.4385  0.1096 -0.1212
80247W        W23238  22.144  11.012  16.642 -0.1774  0.0827 -0.0493
80248W        W23239  32.654  24.272  26.625 -0.1833  0.0160  0.2246
80249W        W23240  19.782   6.949  13.929 -0.2957  0.4684  0.2632
80250W        W23241  12.821  30.111  17.894  0.3258 -0.2544  0.1141
80251W        W23242  14.084  31.264  23.994  0.0071  0.0362 -0.2365
80252W        W23243   9.500  25.731  25.377 -0.6103  0.1861  0.0456
80253W        W23244  10.374   3.290  27.873 -0.0947 -0.2668  0.2475
80254W        W23245  17.775   3.628  16.859  0.3271 -0.3518 -0.2209
80255W        W23246  21.324  32.278  19.029 -0.0915 -0.1969  0.0674
80256W        W23247  23.046  33.589  14.152 -0.2685 -0.0052 -0.0875
80257W        W23248   5.779  27.177  19.919  0.0103  0.2862  0.1916
80258W        W23249  33.896  22.915  22.474  0.1540 -0.3781  0.1110
80259W        W23250  19.601  27.127  18.877  0.0283 -0.1906 -0.2208
80260W        W23251  20.560  18.277  13.984 -0.2218 -0.0281 -0.2455
80261W        W23252   1.335  16.004  22.549 -0.0407 -0.0264 -0.0775
80262W        W23253  16.191  25.389  20.388 -0.1164 -0.1018  0.1171
80263W        W23254  13.741   3.849  17.339 -0.0117 -0.1142 -0.0656
80264W        W23255  19.273  32.918  16.079  0.2747 -0.1990 -0.2307
80265W        W23256  32.322  29.637  26.872  0.2628  0.0583  0.3241
80266W        W23257  24.140   1.971  26.288  0.3158  0.0106  0.1295
80267W        W23258  12.915  20.324  20.212 -0.3686 -0.1390 -0.2591
80268W        W23259  19.236  31.147  16.387  0.0511 -0.0419 -0.0500
80269W        W23260  19.188  33.324  19.636 -0.2866  0.0042 -0.3321
80270W        W23261  12.173  29.435  25.304  0.1894  0.1514 -0.0425
80271W        W23262  11.411  22.677  16.938  0.1985  0.1218  0.0879
80272W        W23263  11.110  24.145  19.993 -0.1082 -0.0213  0.0223
80273W        W23264  14.764  33.048  27.754  0.2043  0.0831  0.2650
80274W        W23265   6.782  29.152  22.114  0.0783  0.1870 -0.0572
80275W        W23266  29.517  26.127  20.951  0.0257 -0.3126 -0.1577
80276W        W23267  26.634  25.672  16.619 -0.1524 -0.0723 -0.1141
80277W        W23268  27.130  18.640  15.992 -0.2456 -0.0712  0.3625
80278W        W23269  27.741  25.146  25.638 -0.0018 -0.1792  0.1112
80279W        W23270  31.205   0.539  21.534  0.0323 -0.1271 -0.4455
80280W        W23271   4.938  31.983  25.616  0.0943 -0.0665  0.1272
80281W        W23272  18.165  28.895  13.286  0.1898  0.1496  0.2460
80282W        W23273  14.249   3.664  17.582  0.2739 -0.0272 -0.0681
80283W        W23274   6.383   0.676  11.126  0.0496 -0.0007  0.1706
80284W        W23275  18.581  26.903  15.951  0.1450 -0.0407 -0.2005
80285W        W23276  30.668   7.779  18.012  0.1259  0.2661  0.0951
80286W        W23277   6.586   3.293  17.898 -0.5357  0.1075  0.4260
80287W        W23278   1.334   7.059  23.413  0.0349 -0.0977 -0.1033
80288W        W23279   4.789  25.079  20.182  0.0776 -0.1111  0.0171
80289W        W23280  17.125  10.517  15.688 -0.0301  0.0877  0.0476
80290W        W23281   4.286  10.698  22.526  0.0797  0.3335  0.0516
80291W        W23282   4.119  27.785  24.756 -0.1535 -0.2238  0.1318
80292W        W23283  11.900  34.637  19.008 -0.2503 -0.2341 -0.2129
80293W        W23284  13.203  26.141  15.809 -0.1440 -0.0309  0.1322
80294W        W23285   4.674  12.343  25.448  0.1617  0.1776  0.0035
80295W        W23286   0.572  25.318  26.089 -0.0722  0.0144  0.1103
80296W        W23287  14.573  33.610  14.825 -0.0532 -0.2179 -0.2829
80297W        W23288  16.273  33.716  19.386  0.0787 -0.2535  0.2259
80298W        W23289   2.473  25.658  25.066  0.4089  0.2195  0.0826
80299W        W23290  13.701  16.576  16.347  0.2034  0.1039 -0.0300
80300W        W23291  20.845  20.388  14.010 -0.1035  0.2524  0.1345
80301W        W23292   3.301  28.370  23.347  0.0026 -0.0528 -0.0288
80302W        W23293  34.313  29.813  23.228 -0.1176  0.2329 -0.1018
80303W        W23294  10.718  33.597  18.994  0.1918 -0.2414  0.0256
80304W        W23295  32.243  33.395  23.820  0.3277 -0.0648 -0.3181
80305W        W23296   9.061   0.203  21.057 -0.1246  0.0609 -0.3300
80306W        W23297  17.112  26.731   0.576 -0.0142  0.2167  0.0660
80307W        W23298  25.024   3.544   0.353  0.3106  0.2238  0.0255
80308W        W23299  21.980  28.476  14.475 -0.1118 -0.2449 -0.1082
80309W        W23300  29.553  30.677  19.695 -0.0002  0.3009 -0.0150
80310W        W23301   2.387  26.666  17.852 -0.1867  0.1409  0.2283
80311W        W23302  17.773   2.817  16.517  0.1378 -0.0763  0.1671
80312W        W23303   8.907  17.310  19.402  0.1008  0.0684 -0.1055
80313W        W23304  31.332  29.665  23.614 -0.0699  0.0488  0.0621
80314W        W23305  23.594  32.402  13.684 -0.0551 -0.3241  0.1755
80315W        W23306  18.109  19.029  14.724 -0.1501 -0.0509  0.3966
80316W        W23307  20.087  34.202  19.309 -0.0635  0.2541  0.1645
80317W        W23308  19.878  34.083  21.011  0.0549 -0.2785 -0.1112
80318W        W23309  12.881  25.263  21.128  0.1335 -0.3790 -0.2097
80319W        W23310   9.651   1.563  19.682 -0.0588 -0.0559  0.3893
80320W        W23311  34.152  29.153  17.611  0.3454  0.4398  0.0113
80321W        W23312  29.082   5.964   0.108  0.0815  0.0065  0.2690
80322W        W23313   4.943  28.382  14.696 -0.2270  0.2694  0.0051
80323W        W23314  30.655  26.714  19.363  0.0745 -0.0787 -0.1592
80324W        W23315  28.640   6.992  18.090 -0.2681  0.2016 -0.1300
80325W        W23316  21.836  27.341  21.021 -0.0677  0.2749  0.0694
80326W        W23317  15.651  33.570  18.103  0.1544  0.0254  0.2574
80327W        W23318  22.997  28.348  16.554  0.0219  0.1259 -0.0007
80328W        W23319  20.829  31.258  17.572 -0.1130  0.1155  0.1859
80329W        W23320   3.004   5.640  10.337  0.1877 -0.0622 -0.3404
80330W        W23321   6.647   5.825  24.375 -0.1725 -0.0140  0.0210
80331W        W23322  15.040  33.642  14.639  0.0304  0.0589  0.3234
80332W        W23323  12.845   6.708  24.534  0.0754  0.1043  0.0011
80333W        W23324  26.426  30.647  25.496 -0.1733  0.0052  0.1394
80334W        W23325  12.173  11.915  18.067 -0.0201 -0.1779  0.0571
80335W        W23326  17.863  21.441  21.954  0.0970 -0.0646  0.1321
80336W        W23327  12.120  19.303  24.340  0.2495  0.3047 -0.0680
80337W        W23328   4.237  32.764  23.247  0.1009 -0.1778  0.0066
80338W        W23329  10.871  29.466  19.527 -0.0079  0.0834 -0.1166
80339W        W23330  34.295  28.338  26.585 -0.0644  0.0188  0.4063
80340W        W23331  15.117  28.496  21.870 -0.0701 -0.2178 -0.0374
80341W        W23332  13.615  33.592  23.996  0.0579  0.1951  0.0261
80342W        W23333   8.732   2.932  23.588 -0.0815 -0.0082  0.0249
80343W        W23334  13.439   6.520  22.760 -0.1028  0.0124  0.0655
80344W        W23335  19.685  34.784  19.204  0.1864  0.2247  0.0076
80345W        W23336  29.515   7.850  19.357  0.3598 -0.2678  0.4492
80346W        W23337  15.589  28.662  18.833  0.5932 -0.1628 -0.1046
80347W        W23338  24.596   9.534  17.518  0.2609 -0.0762  0.0807
80348W        W23339   2.635   1.520  22.831  0.0609  0.0789 -0.2046
80349W        W23340   1.821  24.456  26.959 -0.1843 -0.0541 -0.2772
80350W        W23341  34.481  20.788   2.141 -0.0896 -0.0692 -0.1070
80351W        W23342  14.092  29.226  15.371 -0.1092  0.0855  0.2167
80352W        W23343  19.616  20.154  20.461  0.2804 -0.2026 -0.1007
80353W        W23344  23.138   3.530  15.875 -0.0841  0.0661  0.0938
80354W        W23345  33.317   0.954  27.859 -0.2158 -0.2126 -0.0865
80355W        W23346   1.834  27.543  18.202  0.0742 -0.2604  0.0348
80356W        W23347   0.558  29.384  14.147  0.2714  0.1694  0.0232
80357W        W23348  15.273  34.141   4.160  0.2263  0.0240  0.0484
80358W        W23349  30.292  11.195  18.131  0.2145  0.2583 -0.2705
80359W        W23350  12.267   0.287   6.975  0.1047 -0.3166 -0.1903
80360W        W23351   7.522  30.692  17.149  0.2867  0.0244  0.0891
80361W        W23352  24.462  16.191   8.969 -0.5166 -0.0618  0.4624
80362W        W23353  12.228  30.468  18.989 -0.4165 -0.0699  0.1708
80363W        W23354  12.304  30.594   8.937 -0.2688  0.2039  0.0924
80364W        W23355  13.029  25.485  22.325 -0.0166 -0.1079 -0.1550
80365W        W23356  28.120  30.541  25.839 -0.0351 -0.1556  0.3442
80366W        W23357  13.417  21.339  15.860 -0.2290 -0.0131 -0.2821
80367W        W23358  17.187  11.619  14.165  0.1397 -0.0701 -0.0240
80368W        W23359  29.141  30.322  13.538  0.1908 -0.0085  0.0255
80369W        W23360  23.583  26.026  18.054 -0.2059  0.2283 -0.0385
80370W        W23361  18.677   4.368  22.478 -0.2491  0.4718 -0.0828
80371W        W23362  14.690  17.638  14.578 -0.0080 -0.1966 -0.0096
80372W        W23363  24.122   4.372  19.224 -0.3978  0.2648  0.0213
80373W        W23364  23.266  17.399  17.091 -0.0085 -0.0023  0.0432
80374W        W23365  27.979  18.287   3.771  0.2826  0.0343  0.1250
80375W        W23366  31.978  27.464  16.142  0.2878 -0.0170  0.0890
80376W        W23367   9.135  18.957  24.046 -0.0592  0.3710 -0.1251
80377W        W23368  33.002  15.224  18.300 -0.0224 -0.2881 -0.0452
80378W        W23369  22.574  11.423  19.093  0.3430 -0.3527  0.1374
80379W        W23370   8.404  34.002  21.788  0.1412  0.3510 -0.2240
80380W        W23371  29.752  15.777  21.205 -0.0278 -0.0887 -0.0986
80381W        W23372  11.487  32.189  23.265 -0.0300  0.0060 -0.0413
80382W        W23373  14.017  34.358  15.150  0.0203  0.5101 -0.3130
80383W        W23374  25.007  26.132   3.340 -0.1110 -0.0622 -0.1177
80384W        W23375  23.430  20.074  22.049 -0.1300  0.0979  0.1131
80385W        W23376  16.940   0.144  17.870  0.1360 -0.2321  0.2988
80386W        W23377  25.884  24.305  25.070  0.0751  0.3614  0.0673
80387W        W23378  11.718  28.431   1.822  0.0257  0.0177 -0.1366
80388W        W23379  17.569  32.224  25.120  0.2307  0.0698  0.1386
80389W        W23380   8.355  14.650   7.253 -0.0347 -0.2127  0.0902
80390W        W23381  27.882  22.829  21.118  0.0785 -0.2527  0.0963
80391W        W23382  18.219  34.524  16.360 -0.0001  0.0664 -0.1588
80392W        W23383   3.615  25.687  14.550  0.4109  0.1969  0.0694
80393W        W23384  23.085   7.027   2.677 -0.0144 -0.0223 -0.0056
80394W        W23385  24.475  19.534  23.628 -0.3977  0.0603  0.1357
80395W        W23386  10.775  19.587  14.161 -0.1090 -0.0816  0.3240
80396W        W23387  27.495  21.539  19.522 -0.3357  0.0114  0.1961
80397W        W23388  27.761   3.404  15.180  0.0294 -0.3001 -0.2527
80398W        W23389  10.503   0.798  22.321 -0.2063 -0.2636 -0.0552
80399W        W23390  29.726   2.189  19.291 -0.0282 -0.3450  0.0754
80400W        W23391  31.217  27.406  23.844 -0.0425 -0.0396 -0.1138
80401W        W23392  24.972  13.885  19.181 -0.1048  0.0146  0.2932
80402W        W23393  10.117  26.032  17.999 -0.2960 -0.3128 -0.0999
80403W        W23394   6.099  29.060  14.444  0.2443  0.3259  0.1633
80404W        W23395  16.825   0.699  16.661  0.0678  0.3838  0.2453
80405W        W23396  25.598   4.834   1.222 -0.1339 -0.0226 -0.2001
80406W        W23397   2.108  29.894  21.050 -0.0830 -0.2766  0.1465
80407W        W23398  23.949  32.670  13.439  0.0199 -0.0835  0.3322
80408W        W23399  15.055  32.782  23.530 -0.2279 -0.1500 -0.1131
80409W        W23400   3.974  33.709  19.629  0.1871  0.2207 -0.0372
80410W        W23401  16.693  29.659  26.205 -0.1157 -0.1165  0.2401
80411W        W23402  31.309  11.096  17.005  0.0266 -0.1013 -0.0880
80412W        W23403  27.966   1.311  14.316  0.0301  0.3489  0.0732
80413W        W23404  23.003  18.865   2.854 -0.0990 -0.1261 -0.0006
80414W        W23405   1.549  27.959   8.762  0.1758  0.2496 -0.0120
80415W        W23406  24.627   6.065  27.023  0.0141 -0.1875  0.0486
80416W        W23407   1.828   5.505  19.028  0.0776  0.1029 -0.0742
80417W        W23408   9.501  11.329  22.505 -0.3126 -0.0694 -0.0759
80418W        W23409  28.458  26.249  16.761  0.1507  0.3125 -0.0444
80419W        W23410  28.669  25.567  18.415  0.2950 -0.4493 -0.2279
80420W        W23411  22.529  29.396  18.907 -0.1902  0.1968 -0.1084
80421W        W23412  18.257  32.376  16.910 -0.2239 -0.1029  0.1878
80422W        W23413  16.946  23.054  20.413 -0.0197 -0.1925 -0.3204
80423W        W23414  12.686  26.534  14.716  0.1520 -0.1149 -0.2011
80424W        W23415  33.960  32.496  20.867 -0.0829 -0.0902 -0.1606
80425W        W23416  12.629  26.054  23.205  0.0291  0.0302  0.0503
80426W        W23417  23.567   0.396  28.252 -0.0106  0.3723 -0.1377
80427W        W23418  16.092  30.817  15.277  0.0194  0.0283  0.0431
80428W        W23419   4.409  30.435  19.894  0.0533  0.0384 -0.0473
80429W        W23420  25.486   0.059  14.236  0.0519  0.0282  0.0453
80430W        W23421  11.272  10.108  14.946 -0.0087  0.0022 -0.0133
80431W        W23422  17.792   4.618  17.840 -0.2110  0.0901 -0.3259
80432W        W23423   2.838  30.629  19.499  0.1344 -0.0801  0.1571
80433W        W23424  18.900  29.995  16.584  0.1603 -0.0012  0.2768
80434W        W23425  32.185  27.524  16.650 -0.1093  0.0367  0.1949
80435W        W23426  16.041  12.235  15.134 -0.0960  0.2638  0.1093
80436W        W23427   4.190  29.023   9.056 -0.0211  0.2427  0.4209
80437W        W23428  16.401  29.456  21.665 -0.0645  0.0264  0.0544
80438W        W23429  19.380  29.850  14.791  0.0538 -0.0947  0.1924
80439W        W23430  31.121  26.855  13.909 -0.2526  0.3012  0.2840
80440W        W23431  19.745   6.986  18.438 -0.2162 -0.0301  0.2710
80441W        W23432  31.294  28.990  17.636 -0.0332 -0.0022  0.1482
80442W        W23433   4.830  31.726  15.924  0.1732  0.1005  0.1261
80443W        W23434  25.988  34.340   5.001  0.3093 -0.2073 -0.0062
80444W        W23435  11.426  30.955  13.955  0.1766 -0.3409  0.3374
80445W        W23436  19.041  28.761  23.467 -0.0389 -0.0089  0.1573
80446W        W23437   7.722  32.222  25.931  0.1568  0.3046  0.1327
80447W        W23438  29.534   7.578  24.515  0.0276  0.0955 -0.0945
80448W        W23439  31.352   9.024  15.723 -0.1903 -0.1145  0.2026
80449W        W23440  11.362  34.386  18.899  0.1834 -0.1129 -0.0494
80450W        W23441  14.763   2.223   7.099  0.0079  0.0088 -0.0263
80451W        W23442  25.667  25.201  24.825  0.1170  0.2013  0.4309
80452W        W23443  10.526  27.410  14.274 -0.1341 -0.0346 -0.3493
80453W        W23444  16.303  28.242  17.558 -0.0696 -0.0198 -0.1367
80454W        W23445  15.657  34.262   1.843  0.3851  0.1300  0.0921
80455W        W23446  16.996  25.377  13.894 -0.0414  0.0226  0.1109
80456W        W23447  28.217  29.124  17.219  0.1795  0.4291  0.0858
80457W        W23448  22.708  25.533  19.042  0.2004 -0.1337  0.0692
80458W        W23449  14.495  27.842  26.554 -0.0264  0.2272 -0.0448
80459W        W23450   6.168  29.887  16.209 -0.0758  0.0207  0.1636
80460W        W23451   6.121  29.695  19.653 -0.0041 -0.2431  0.0697
80461W        W23452  23.547  28.367  18.683  0.0714 -0.0024 -0.1385
80462W        W23453  25.950  24.206  21.168  0.0726  0.1061 -0.0889
80463W        W23454  12.914  29.795   9.189 -0.0879  0.0027  0.0766
80464W        W23455  18.461  29.312  14.698 -0.0818  0.2076 -0.2093
80465W        W23456  24.539  33.050  21.523  0.1710 -0.0863  0.2435
80466W        W23457  22.325  23.580  21.974 -0.0697 -0.1511 -0.2968
80467W        W23458  18.540  12.120  18.007 -0.1263  0.2732 -0.0516
80468W        W23459  18.400  26.420  20.114 -0.2571 -0.0330 -0.0985
80469W        W23460   5.709  25.645   5.861 -0.0516  0.1062  0.1849
80470W        W23461  23.474  23.436  14.319 -0.0215 -0.1044  0.3029
80471W        W23462  26.829  34.460  20.441  0.0060  0.0961 -0.2510
80472W        W23463  12.520  29.059  21.160 -0.1482  0.0905 -0.3261
80473W        W23464  13.845  22.549  17.275  0.2934 -0.3415 -0.1469
80474W        W23465  22.236  30.452  16.329  0.1042  0.0936 -0.2389
80475W        W23466  28.605   0.556  13.345 -0.2399 -0.0252 -0.1973
80476W        W23467   8.801   4.898  27.450  0.4541  0.2628  0.2620
80477W        W23468  17.773  28.742  28.797  0.0643 -0.2008 -0.2488
80478W        W23469  14.991  17.106  23.248  0.0997 -0.0061  0.4381
80479W        W23470   4.817  29.267  22.816  0.2081  0.0230 -0.1182
80480W        W23471  23.048  25.147  25.253 -0.1100 -0.0093 -0.0157
80481W        W23472  20.238  29.757  14.035  0.4726  0.2565 -0.2528
80482W        W23473  24.087  11.681  21.005 -0.0042  0.3260 -0.3074
80483W        W23474  23.789  34.185  19.237  0.1134 -0.1517 -0.1650
80484W        W23475  16.102  34.034   4.580 -0.2176 -0.0214  0.2415
80485W        W23476  18.046  30.099  19.289 -0.1773 -0.2145 -0.3294
80486W        W23477   2.590   3.826  18.305 -0.2108 -0.0762 -0.1244
80487W        W23478  34.322  27.382  19.780  0.0170 -0.2826 -0.0092
80488W        W23479  33.077   4.055  18.366  0.0690 -0.0179  0.1191
80489W        W23480  26.538  27.163  28.486  0.0884 -0.0793  0.0065
80490W        W23481  10.459  16.791  15.024 -0.0767  0.0673  0.0461
80491W        W23482  24.643   5.830  20.896 -0.2846  0.0898 -0.0443
80492W        W23483  13.434  27.642  14.212  0.1495  0.2733  0.1829
80493W        W23484  26.620  18.277  26.990  0.0281  0.2114 -0.3128
80494W        W23485  19.706   8.432   0.683 -0.1476  0.0181 -0.0494
80495W        W23486  23.144   2.616  13.057  0.1677  0.1473  0.1995
80496W        W23487  10.929  34.637  19.810 -0.0153 -0.0467 -0.2685
80497W        W23488  14.088   2.752  28.794  0.1386  0.4365 -0.4388
80498W        W23489   3.379   2.830  16.469 -0.1968  0.0741  0.1663
80499W        W23490  16.985  23.115  15.625  0.0931  0.0500  0.0695
80500W        W23491  15.449   9.460  23.957  0.1194 -0.1630  0.0196
80501W        W23492   5.996  27.523  19.589  0.0284 -0.3218  0.3263
80502W        W23493  24.307  19.687  16.121  0.0378  0.0260  0.2106
80503W        W23494  17.295   3.787  16.621 -0.1453 -0.1402 -0.0916
80504W        W23495  19.647  31.865  16.369  0.0428  0.0060 -0.0825
80505W        W23496  14.894  20.250  21.973  0.3834  0.2821  0.4097
80506W        W23497  14.970   0.741  27.248 -0.3337  0.1151  0.2530
80507W        W23498  27.352   1.017  14.655  0.1385  0.3402  0.1574
80508W        W23499  12.227  13.426  17.653  0.0662 -0.1660 -0.1287
80509W        W23500  18.155  33.660   1.651 -0.0534 -0.0541  0.2319
80510W        W23501  19.694  25.607  14.736  0.0666  0.2043 -0.1517
80511W        W23502  30.167  31.200  17.703 -0.3572  0.3839 -0.1793
80512W        W23503  31.483   5.755  16.465 -0.0361  0.2035  0.3345
80513W        W23504  31.555  29.370  27.110 -0.0546 -0.0647 -0.2589
80514W        W23505  25.030   5.428  25.747  0.0333  0.0212  0.2385
80515W        W23506  12.844  19.268   0.485  0.2585  0.0032 -0.2628
80516W        W23507   2.480   0.599  17.620  0.2129 -0.0492 -0.2178
80517W        W23508   5.676   9.334  17.040  0.3725  0.0010 -0.0748
80518W        W23509   8.694  34.558  22.771 -0.0304  0.0235 -0.0061
80519W        W23510  21.394  27.280  20.317 -0.0950  0.1774 -0.3037
80520W        W23511  28.494  30.090  25.354  0.2790  0.0691 -0.0031
80521W        W23512  28.956   6.461  16.733 -0.1174 -0.5260 -0.1406
80522W        W23513   1.370  34.492  14.633 -0.3260 -0.2682 -0.0935
80523W        W23514  29.430  30.953  21.063 -0.0604  0.0731 -0.1184
80524W        W23515  31.948  20.153  15.585  0.0082  0.1016 -0.0344
80525W        W23516  21.744  10.502  23.706 -0.1185  0.0908  0.1537
80526W        W23517  16.345  30.851  26.902  0.0650 -0.1881  0.1696
80527W        W23518  14.154   7.364  16.152  0.4937  0.2205 -0.1990
80528W        W23519  13.039  21.080  21.056 -0.3641 -0.1172 -0.2121
80529W        W23520  17.690  27.988  17.487  0.0679  0.0379  0.1798
80530W        W23521  12.454  32.887  25.214  0.1018  0.0802  0.3472
80531W        W23522  12.578  21.922  26.695 -0.1366  0.2799  0.0440
80532W        W23523  18.082  27.600  21.009 -0.2101  0.0419  0.0552
80533W        W23524  21.591  16.904  13.773 -0.0863  0.0504 -0.0544
80534W        W23525  15.454  23.452  22.631  0.1300 -0.5041 -0.2796
80535W        W23526  24.375  10.099  14.028 -0.1223  0.2696 -0.1523
80536W        W23527  29.911  11.142   0.491 -0.3938 -0.2647 -0.1358
80537W        W23528  12.643  27.292  15.863 -0.0502 -0.0559  0.0299
80538W        W23529  28.956  26.267  25.859  0.1046  0.0122  0.0229
80539W        W23530  31.683   1.111  13.499  0.1982 -0.1811  0.1419
80540W        W23531  20.341  10.762  18.264  0.0490  0.0226 -0.2131
80541W        W23532   1.970   4.733  20.876  0.0940  0.1911  0.1175
80542W        W23533  12.484   3.590  25.438 -0.0593  0.0446  0.1334
80543W        W23534  17.872  31.781   1.868  0.0929  0.2119 -0.0715
80544W        W23535   3.395  19.528  20.333 -0.2772  0.4254 -0.0491
80545W        W23536  34.390  17.047  20.611  0.3232 -0.1495 -0.0566
80546W        W23537   0.067  24.513   8.881 -0.2138  0.0559 -0.0056
80547W        W23538   8.278  15.403  18.245  0.1871 -0.2966 -0.1373
80548W        W23539  29.028  17.640  19.545 -0.1085  0.1079 -0.0604
80549W        W23540   7.169  20.458  18.334 -0.0331  0.4141 -0.0566
80550W        W23541  31.814   7.873  25.967 -0.0872  0.0364  0.0744
80551W        W23542  23.925   4.647  18.699 -0.2941 -0.1168  0.0350
80552W        W23543  19.644   4.562  21.220  0.1339 -0.0908  0.5032
80553W        W23544  21.271   2.008  19.806  0.0952  0.1190 -0.2662
80554W        W23545  11.974  24.757  20.936 -0.1926  0.2199 -0.2072
80555W        W23546  12.444  31.839  17.115  0.1065 -0.1063 -0.1946
80556W        W23547  27.443   1.864  17.946  0.3599  0.3918  0.0621
80557W        W23548  21.221   2.008  14.681 -0.1206  0.1029 -0.1037
80558W        W23549  30.839  23.673  24.347 -0.4817  0.2227  0.1266
80559W        W23550   9.813   9.206  22.652  0.3786 -0.1374 -0.1109
80560W        W23551  24.611  34.601  15.239 -0.2603 -0.1824  0.2914
80561W        W23552  16.105   3.022   1.025  0.2352 -0.1072 -0.2009
80562W        W23553  13.117  15.279   4.923 -0.0865 -0.2587 -0.2207
80563W        W23554  29.679  11.978  19.878  0.0108 -0.0852  0.2081
80564W        W23555  14.801  11.135  22.169 -0.2348 -0.0501  0.0296
80565W        W23556   1.566  24.311  17.283  0.0801  0.0718  0.1381
80566W        W23557  20.682   1.645  28.167  0.2811 -0.2980  0.1028
80567W        W23558  18.818  20.485  12.828  0.1637  0.1367 -0.0228
80568W        W23559  10.382  18.382  14.866 -0.1557 -0.2816  0.3287
80569W        W23560  18.207   5.922   4.958 -0.0759  0.1642  0.1066
80570W        W23561  33.867   2.444   1.109  0.2404 -0.0428  0.2014
80571W        W23562  12.076  27.512  18.189 -0.2228 -0.3627 -0.3642
80572W        W23563  23.762  30.230  25.737 -0.0813 -0.1742 -0.0428
80573W        W23564  16.678   3.316  17.924  0.1780  0.0244 -0.1490
80574W        W23565  22.696  24.671  26.544 -0.3273  0.1940  0.0314
80575W        W23566   6.720  28.069  21.040 -0.2038 -0.3108  0.2039
80576W        W23567  12.317  16.997  18.787  0.2383 -0.2526 -0.2631
80577W        W23568  27.624  31.324  14.091 -0.1618  0.0673 -0.0956
80578W        W23569  24.433  28.716  20.241  0.2073 -0.0867 -0.1789
80579W        W23570  28.608   1.175  17.445  0.1087 -0.4432  0.4368
80580W        W23571  20.575  33.734  15.800  0.0574  0.0297 -0.3665
80581W        W23572  18.864   6.004  21.700 -0.0057  0.0859  0.3019
80582W        W23573  20.963   2.778  14.406 -0.2108 -0.1601 -0.1467
80583W        W23574  14.744  30.636  16.848 -0.1317  0.0535  0.2860
80584W        W23575  20.029  30.032  15.052 -0.1666  0.0405 -0.2814
80585W        W23576  33.130  26.116  26.314  0.2479 -0.0617  0.5090
80586W        W23577  28.104  16.883  23.992 -0.0571  0.0098 -0.0966
80587W        W23578  16.662   6.529  28.514 -0.1316  0.1929 -0.1627
80588W        W23579  11.614   7.552  23.412 -0.3178 -0.2646 -0.2060
80589W        W23580  18.529  27.528  17.965 -0.0683 -0.0930  0.0857
80590W        W23581   6.661   9.866   2.846 -0.3227  0.2228 -0.0114
80591W        W23582  19.277  25.885  14.465  0.2885  0.1862  0.2126
80592W        W23583  25.135   1.180  19.778  0.0487 -0.1870  0.2389
80593W        W23584   5.783   6.617  14.808  0.1621 -0.1388 -0.1881
80594W        W23585  15.846   7.706  28.628  0.1151  0.0038  0.0633
80595W        W23586  18.068  28.066  13.882  0.2891 -0.0164  0.3034
80596W        W23587  12.291  24.157  22.315  0.0267  0.0517 -0.0263
80597W        W23588  15.039   1.244  22.947  0.0967  0.1221  0.0287
80598W        W23589  25.274  11.056   0.042 -0.0515 -0.0001  0.0547
80599W        W23590  29.618  28.317  22.480 -0.1550 -0.1781 -0.0167
80600W        W23591   8.993  31.304   2.113  0.0933 -0.0694  0.0534
80601W        W23592   1.925  27.595  20.111  0.2022 -0.1467  0.0816
80602W        W23593  23.400  26.509  26.266  0.0763  0.0914  0.0668
80603W        W23594  20.046  33.218  27.669 -0.0570 -0.0904 -0.1078
80604W        W23595   6.278  20.692  15.782 -0.0622 -0.3740 -0.2295
80605W        W23596   2.664  22.924  20.548 -0.0272  0.0784 -0.2505
80606W        W23597   9.662  33.915  18.769 -0.1275 -0.0301 -0.0525
80607W        W23598  10.081   2.816  18.345 -0.3212 -0.0053 -0.2192
80608W        W23599   2.870  24.974  16.130 -0.2079  0.1243  0.1796
80609W        W23600  13.084   0.116  25.356 -0.1504 -0.0687  0.0834
80610W        W23601  11.013   2.927  18.425 -0.0114  0.2063 -0.0740
80611W        W23602   9.866   9.936  25.446 -0.3687  0.1437  0.0665
80612W        W23603  19.088   5.965  14.276  0.1156  0.1074 -0.0524
80613W        W23604  26.823  31.405  14.223 -0.0764  0.0019  0.0224
80614W        W23605  20.335  25.270  17.215 -0.0197  0.2940 -0.1383
80615W        W23606  20.419  22.502  21.149  0.1741 -0.0595 -0.1382
80616W        W23607  31.480  25.991  17.565  0.0906 -0.3943 -0.0333
80617W        W23608  24.874   1.027  13.033 -0.0123 -0.2780 -0.2767
80618W        W23609   8.078  34.039  22.277 -0.0274  0.1431  0.1304
80619W        W23610  32.094   9.091  24.707  0.0829  0.0946 -0.0105
80620W        W23611  14.651  28.986  15.016 -0.0718 -0.0314  0.1096
80621W        W23612  23.493   8.264  23.813 -0.3824  0.1063  0.0935
80622W        W23613   4.957  20.286  17.354 -0.3079  0.1900 -0.0594
80623W        W23614  18.705   8.546  19.721 -0.1674  0.0523 -0.2215
80624W        W23615  21.006  33.115  28.333  0.1582  0.0974  0.0581
80625W        W23616  15.494  16.412  13.456 -0.1748  0.2052  0.3363
80626W        W23617  18.791   6.897  27.670 -0.1889  0.0595  0.2620
80627W        W23618  12.372  31.744  15.321 -0.0798 -0.4554  0.1882
80628W        W23619  30.925  23.938  23.562 -0.0592 -0.0812 -0.0752
80629W        W23620  21.471   0.138  20.340 -0.0041 -0.0236 -0.4533
80630W        W23621  30.408  20.072  20.475 -0.0598  0.1120 -0.0071
80631W        W23622  26.064  28.752  24.084 -0.0685 -0.0922  0.0381
80632W        W23623  24.996  24.651  16.658  0.1019  0.0355  0.0280
80633W        W23624  15.461  26.643  23.876  0.0228 -0.0706  0.1453
80634W        W23625  21.509   1.423  21.561 -0.0727 -0.1267  0.1080
80635W        W23626  23.289  30.816  19.562  0.1585 -0.3695  0.0523
80636W        W23627  32.899   0.078  16.701 -0.3891  0.0676  0.2101
80637W        W23628  19.395  28.045  22.462  0.1793 -0.1086  0.0308
80638W        W23629  11.749   1.329   1.319 -0.2474  0.1504 -0.0588
80639W        W23630  23.118  24.537  18.937 -0.3170  0.0059 -0.0979
80640W        W23631  17.786  30.919  20.426 -0.0217  0.1571 -0.3296
80641W        W23632  17.840   8.323   1.877 -0.0259  0.2434  0.1386
80642W        W23633  16.271  26.386  27.593  0.1682  0.0265  0.1915
80643W        W23634  24.807   3.206  13.101 -0.0005 -0.3936  0.2722
80644W        W23635  15.483  30.096   0.762 -0.0858 -0.2649 -0.0423
80645W        W23636  20.844   6.568  19.770  0.2260  0.3407  0.0308
80646W        W23637  15.011   9.795  19.074 -0.0956  0.1473 -0.0981
80647W        W23638  15.662  33.642   3.760  0.1264 -0.0536 -0.0673
80648W        W23639   6.881  28.777  17.134 -0.2966 -0.0665 -0.3019
80649W        W23640   1.633  14.946  19.081 -0.1030  0.1198 -0.0201
80650W        W23641   0.010  30.845   0.559 -0.0425 -0.0687 -0.1840
80651W        W23642  33.373  20.927  26.828 -0.2565 -0.3502 -0.0677
80652W        W23643  12.719  20.892   4.553  0.0083  0.0758 -0.0753
80653W        W23644   9.851   0.251   8.050 -0.1963  0.1834 -0.0909
80654W        W23645   4.391   7.679  17.297  0.1671  0.0508  0.0545
80655W        W23646  16.142   4.184  19.976 -0.1302  0.3455  0.0410
80656W        W23647  20.777  30.367  21.248  0.3071  0.0801 -0.2531
80657W        W23648  18.162  30.141   6.688  0.0252  0.1998 -0.2155
80658W        W23649   7.967  24.366  20.896  0.0449 -0.0121 -0.2342
80659W        W23650  27.982   0.251  15.082  0.0183 -0.2386 -0.3928
80660W        W23651  13.203   3.704  21.936 -0.2734  0.1207  0.2174
80661W        W23652  14.163  26.321  15.511 -0.1148 -0.1026 -0.2750
80662W        W23653   6.664  33.411  22.932  0.3361 -0.1650 -0.3649
80663W        W23654  15.996  13.601  24.611  0.1901 -0.0182 -0.3286
80664W        W23655  20.491  29.157   0.160 -0.0035  0.1244 -0.0474
80665W        W23656  18.639   2.002  16.743 -0.0170 -0.1630  0.1427
80666W        W23657  22.104  21.341  15.777 -0.0929  0.0572  0.2037
80667W        W23658  13.774   6.086  22.274 -0.0451  0.0162  0.1148
80668W        W23659  15.550  21.906  14.203  0.2116 -0.4254 -0.2388
80669W        W23660  18.911   8.697  21.857 -0.1870 -0.0925  0.0685
80670W        W23661  30.757   1.682  21.473  0.3470  0.4261  0.0492
80671W        W23662  18.558  33.992   8.124  0.0028  0.1438  0.3571
80672W        W23663   6.468   2.097  17.587 -0.1368  0.0155  0.0336
80673W        W23664   8.096  24.717  15.203  0.0316  0.1649  0.1251
80674W        W23665  11.064  29.613  19.088  0.0786  0.0540  0.5913
80675W        W23666  23.351  33.687  19.033  0.2374  0.2763 -0.2109
80676W        W23667  29.602  29.623  14.637  0.0279  0.1611  0.0323
80677W        W23668  29.074  13.210  18.421  0.0600  0.1476 -0.1222
80678W        W23669  28.164  17.193  27.135 -0.3096  0.1411 -0.2729
80679W        W23670  22.179  27.733   5.987  0.0660  0.3362  0.0324
80680W        W23671  34.726  28.300  17.767  0.1271 -0.1878  0.1099
80681W        W23672  18.041   4.881  15.454 -0.0783  0.0352  0.2363
80682W        W23673   9.271   0.366  23.878 -0.1389  0.0284  0.3888
80683W        W23674  22.486  32.399  22.473 -0.1130  0.1077 -0.1354
80684W        W23675  16.349  31.760  25.257 -0.1944  0.0594  0.0113
80685W        W23676  17.725   1.026   3.332 -0.4022 -0.0522 -0.0208
80686W        W23677  15.013   0.604  16.722 -0.0372  0.2041 -0.1299
80687W        W23678   5.682  21.415  22.052  0.1320  0.0725 -0.0211
80688W        W23679  15.980  21.493  19.371 -0.2856  0.0904  0.0456
80689W        W23680  32.632   1.199  21.559  0.2388  0.3552 -0.0963
80690W        W23681   3.071  28.168  18.244 -0.0095 -0.5173  0.0898
80691W        W23682  24.887   0.897  19.248 -0.1777  0.1207  0.2260
80692W        W23683  17.840  27.552  19.839 -0.0594 -0.3322  0.2339
80693W        W23684   4.431   1.757  18.579  0.2462  0.2251 -0.2931
80694W        W23685   9.345   0.266   8.079 -0.4284 -0.0692 -0.3854
80695W        W23686  28.312  31.828  27.901 -0.1785  0.0798 -0.0954
80696W        W23687  16.671  30.898  21.150 -0.0291  0.0510  0.1217
80697W        W23688  29.806  27.905  15.485  0.2673  0.1599  0.0144
80698W        W23689  17.737  26.430   1.220 -0.1025  0.0959  0.0678
80699W        W23690   5.383  31.498   2.130  0.4033 -0.1843 -0.0906
80700W        W23691  12.565  33.991  21.686 -0.3526  0.2477  0.0096
80701W        W23692  14.092  33.729   6.624 -0.3743 -0.1828  0.3584
80702W        W23693  21.642  34.508  19.827 -0.2104  0.0559  0.2220
80703W        W23694   9.328  32.090  23.594 -0.3458 -0.2523  0.0744
80704W        W23695  30.031  18.256   6.718  0.0399  0.0306  0.2032
80705W        W23696  19.150   7.359  14.567  0.1888  0.2375 -0.0901
80706W        W23697   3.283  22.036  27.550  0.0164 -0.1322 -0.0061
80707W        W23698   4.979  22.371  14.996 -0.1021  0.0775 -0.1342
80708W        W23699  16.119  34.421  14.933 -0.1498 -0.0203 -0.0063
80709W        W23700  18.480   7.692  17.422 -0.0431 -0.0430  0.0863
80710W        W23701  15.821  28.365  19.198 -0.1071  0.0756  0.2947
80711W        W23702  17.131  29.811  25.045  0.2223 -0.0962 -0.2383
80712W        W23703  13.575   0.321  28.775  0.0989  0.0568  0.0832
80713W        W23704   8.305  12.431  16.642 -0.0687  0.0872 -0.1265
80714W        W23705  26.839  18.509  10.493 -0.1677 -0.0081  0.1267
80715W        W23706  25.187  13.881  27.199 -0.0235 -0.1531  0.1106
80716W        W23707  20.338   3.883  22.787 -0.0477  0.0569 -0.2004
80717W        W23708  16.616  28.246  28.074  0.1769  0.1647 -0.2828
80718W        W23709  23.969   1.923  27.317  0.0285  0.2023  0.3017
80719W        W23710  18.552  22.358  22.851  0.0655 -0.1127 -0.0251
80720W        W23711  21.396   2.129  24.726 -0.1108 -0.1254  0.0934
80721W        W23712  15.182  26.094   2.533  0.0329  0.1860 -0.0248
80722W        W23713  14.883  21.862  19.683 -0.1228 -0.1368  0.0783
80723W        W23714  14.320  27.826  25.238  0.1062 -0.0708 -0.1383
80724W        W23715  21.559  16.676  20.838 -0.0843 -0.2591 -0.2051
80725W        W23716   4.619   2.189  16.885 -0.1913  0.2724  0.1645
80726W        W23717  16.307  31.731  15.023 -0.0310  0.1778 -0.0280
80727W        W23718  19.348  29.897  13.866 -0.1269  0.0326  0.1758
80728W        W23719   6.810  21.822   5.502 -0.1454 -0.0742  0.0613
80729W        W23720  18.781  29.689   1.618  0.1446 -0.2068 -0.1657
80730W        W23721  15.410  31.096  14.239  0.1143  0.1596  0.1100
80731W        W23722  24.991  16.229  22.602  0.1630 -0.2431  0.1792
80732W        W23723  14.170   2.316  20.473 -0.1061  0.0245 -0.2363
80733W        W23724  17.330   5.474  26.134 -0.0307  0.4923 -0.0723
80734W        W23725  17.283  29.503   0.070 -0.0951  0.0031 -0.1959
80735W        W23726   8.536  23.584   7.077 -0.0423 -0.1201  0.0858
80736W        W23727  17.541   3.597  15.778 -0.0439 -0.1468 -0.1501
80737W        W23728  20.773   2.019  21.463 -0.1112  0.0397 -0.0593
80738W        W23729   7.709  29.088  21.995 -0.0934 -0.0027  0.2828
80739W        W23730  19.682  13.871  16.319 -0.0354 -0.0096  0.0707
80740W        W23731   8.325  26.681  26.708  0.2855 -0.1765  0.1051
80741W        W23732   0.116  31.542  15.990 -0.0502  0.1275  0.1651
80742W        W23733  18.514   3.164  27.210  0.0817  0.1256 -0.0200
80743W        W23734  25.237  21.778  13.064 -0.0365 -0.1997  0.0230
80744W        W23735  33.242  31.535  26.943 -0.1378  0.0701  0.0502
80745W        W23736  31.795   4.111  20.562  0.1336 -0.2204 -0.1516
80746W        W23737   7.778   3.445  15.048 -0.2135 -0.0338  0.0086
80747W        W23738  13.315  27.450  21.262 -0.3804 -0.0168  0.2602
80748W        W23739   7.066  30.498  27.873 -0.1563  0.2004 -0.3364
80749W        W23740  27.332  20.708  24.256  0.2873 -0.1399  0.3421
80750W        W23741   1.174  30.381  23.932 -0.2090  0.0720 -0.0960
80751W        W23742  18.283   0.781  20.050  0.0089 -0.0914  0.2410
80752W        W23743  13.418  26.779  17.526  0.0277  0.1883 -0.1533
80753W        W23744  25.556  29.745  17.885 -0.3178 -0.1047 -0.3300
80754W        W23745  16.858   8.240  17.958  0.0602  0.4196  0.1047
80755W        W23746  14.905  31.443  23.380 -0.0859 -0.0697 -0.1846
80756W        W23747  18.734  34.477   7.763 -0.1132  0.0243 -0.0256
80757W        W23748  16.382  20.329  14.399 -0.1678  0.2039  0.4108
80758W        W23749   9.668  25.238  17.024  0.0087 -0.1071  0.1164
80759W        W23750  16.237  15.469  23.601  0.0143  0.3430 -0.1649
80760W        W23751   3.136  28.027  20.858  0.2515 -0.0503  0.1516
80761W        W23752   7.781  24.442  22.561  0.2009 -0.0624  0.0577
80762W        W23753  10.821  27.455  14.676  0.0037  0.0695  0.0991
80763W        W23754  33.754   9.688  27.264  0.7289 -0.0564 -0.1157
80764W        W23755  22.224   6.140   7.791 -0.2100 -0.3648  0.1483
80765W        W23756  13.037  23.132  18.341  0.1505 -0.1011 -0.0892
80766W        W23757  25.610   1.660  25.760 -0.0758  0.0961  0.0832
80767W        W23758  15.273  16.582  15.465 -0.0117  0.2600  0.2608
80768W        W23759  11.312   0.171  19.489  0.0362 -0.4884 -0.3083
80769W        W23760  27.645  30.958  20.008 -0.0971 -0.2501 -0.2506
80770W        W23761  25.262   1.112  21.958 -0.4186  0.0210 -0.2202
80771W        W23762  24.250   8.652  23.738  0.2172 -0.0882  0.1703
80772W        W23763  27.295  28.345  15.191  0.1614 -0.2076  0.1140
80773W        W23764   3.815  24.679  28.104 -0.0253  0.0208  0.2553
80774W        W23765  30.045  26.432  14.229 -0.2821 -0.2825 -0.1335
80775W        W23766  16.300  29.561  22.691  0.3597 -0.1219  0.0356
80776W        W23767  25.191  28.180  20.588  0.2332 -0.0254 -0.0813
80777W        W23768   0.963  32.577  25.128 -0.1938  0.3551 -0.0419
80778W        W23769   4.521   6.794  16.031 -0.2924 -0.0610  0.4722
80779W        W23770  14.933  32.595  17.070  0.4516 -0.2222  0.1230
80780W        W23771   4.379  10.742  23.727  0.2923 -0.0574 -0.0380
80781W        W23772  22.894  28.616  19.083 -0.3910  0.0435 -0.0538
80782W        W23773  11.851  23.716  22.301 -0.0232 -0.1538  0.0986
80783W        W23774  10.826  24.545  27.016  0.0428 -0.3061 -0.3626
80784W        W23775  14.926  11.601  27.915  0.0141  0.3771 -0.1891
80785W        W23776  16.167   6.562  27.713 -0.2581 -0.0353  0.0679
80786W        W23777  24.586  33.360  28.856 -0.0679 -0.0261  0.0933
80787W        W23778   6.850  33.170  19.196  0.3515  0.0110  0.0414
80788W        W23779  11.905  21.032  24.557  0.1491 -0.0386  0.1501
80789W        W23780  24.061   2.100  16.074 -0.1870  0.0881 -0.0010
80790W        W23781  20.448   9.752  25.415 -0.1411 -0.1616  0.2023
80791W        W23782   3.108  27.464  14.427  0.0654  0.1601 -0.1034
80792W        W23783  15.619  27.744  16.229 -0.0937  0.1028  0.0625
80793W        W23784  16.267  32.881  20.015 -0.1633  0.1928  0.1170
80794W        W23785  32.456   9.448  22.034 -0.0921  0.2666  0.2627
80795W        W23786   8.251  25.171  27.767  0.4264  0.0465  0.0370
80796W        W23787  29.981  29.602  13.621 -0.3743 -0.2556 -0.1124
80797W        W23788  11.084  30.277  16.507 -0.1377 -0.3235 -0.3039
80798W        W23789  32.554   1.898  13.529  0.2625  0.1090  0.1113
80799W        W23790  20.779  28.887   2.936 -0.1414 -0.0080 -0.0233
80800W        W23791  12.209   3.359  16.693  0.0010 -0.0264  0.0091
80801W        W23792  31.022  26.180  20.982 -0.0469  0.3141  0.1080
80802W        W23793  18.975   5.655  16.092 -0.0582 -0.1909  0.3432
80803W        W23794  13.483   5.338  14.859 -0.1661 -0.1817  0.0515
80804W        W23795  19.464  21.330  21.977 -0.0642  0.0129  0.1330
80805W        W23796  14.726  33.654   1.744  0.4320 -0.0191 -0.0251
80806W        W23797  10.194  32.654  17.796  0.1208  0.0555 -0.0179
80807W        W23798   9.813  23.601   9.071 -0.0080 -0.4014 -0.1520
80808W        W23799  23.947  32.250  24.376 -0.2912 -0.2554 -0.2711
80809W        W23800  16.594  32.318  14.340 -0.0654 -0.1665 -0.0575
80810W        W23801  24.354  15.950  20.925 -0.1944  0.1546 -0.0972
80811W        W23802  32.547  28.865  25.276  0.2203 -0.0001  0.0293
80812W        W23803  22.869  25.455  26.062  0.1595  0.0277  0.3543
80813W        W23804  26.136  25.713   1.328 -0.0325  0.1260  0.3123
80814W        W23805  25.766  27.832  13.364 -0.0073 -0.2573  0.2428
80815W        W23806  31.845   4.976  15.739  0.0674 -0.3081  0.3436
80816W        W23807  21.542  29.148  27.589 -0.0681 -0.0153  0.0781
80817W        W23808  10.807  24.986  23.827  0.0779  0.1414  0.0344
80818W        W23809  30.249   6.062  27.371 -0.3893 -0.0458  0.0405
80819W        W23810  13.296  22.286   0.627 -0.0008 -0.0707  0.4317
80820W        W23811  22.134  28.424  24.494  0.1263 -0.1190 -0.0829
80821W        W23812  31.486  33.296  13.722  0.1355  0.0447 -0.2951
80822W        W23813   6.903  32.285  19.076 -0.0152 -0.2231  0.1547
80823W        W23814   0.600  23.141   0.917  0.0303  0.0293 -0.0966
80824W        W23815  19.445  10.294  23.262  0.0643 -0.4548 -0.2092
80825W        W23816   8.902   0.968  17.717  0.0425  0.0346 -0.1334
80826W        W23817  15.636  25.073  16.537 -0.1843 -0.0198 -0.2764
80827W        W23818  12.177   7.301  18.796  0.2669  0.1599  0.0149
80828W        W23819  21.237  12.325  20.341 -0.2111  0.0555  0.1379
80829W        W23820  25.831  13.550  28.500  0.1301  0.3022  0.0728
80830W        W23821   5.570  26.351  22.924 -0.0938  0.1487 -0.1778
80831W        W23822  22.146   8.051   7.701 -0.0329 -0.0911  0.2405
80832W        W23823   8.052  31.809  19.833  0.1309  0.3615  0.1570
80833W        W23824  13.668  23.831  26.672  0.2091 -0.3360  0.1924
80834W        W23825  33.507   3.193  21.170  0.1350 -0.0812  0.4211
80835W        W23826  12.470  31.539  20.902 -0.2503  0.3748 -0.3837
80836W        W23827   1.913  28.254  26.171 -0.0310  0.0942 -0.1881
80837W        W23828  12.034  31.805  23.893  0.1978 -0.4129  0.1467
80838W        W23829   0.548  19.565  22.984  0.0092  0.3920  0.2360
80839W        W23830  25.467  33.474  21.926  0.1509 -0.4752 -0.2691
80840W        W23831  27.484   3.735  14.872  0.1062 -0.0776 -0.0107
80841W        W23832   9.556  32.610  15.947 -0.1315  0.0961  0.0906
80842W        W23833  29.541   3.253   5.876  0.2317  0.0022  0.4614
80843W        W23834  16.947   3.646   0.133  0.0541  0.2715 -0.0240
80844W        W23835   8.441  25.322  17.798  0.0458  0.1070  0.1950
80845W        W23836  15.173  21.781  17.235  0.1804 -0.4153  0.0912
80846W        W23837  24.849  21.291  21.227 -0.0552  0.2943  0.0382
80847W        W23838  30.963  16.781  22.617  0.1822 -0.0078  0.3584
80848W        W23839  21.668  27.154  19.877 -0.0363  0.1076  0.0954
80849W        W23840  27.552   2.595   7.785  0.1785  0.1121 -0.2272
80850W        W23841  20.378  31.252  27.251  0.1864  0.4428  0.1575
80851W        W23842  22.703  22.682  15.255  0.2917 -0.3629  0.2158
80852W        W23843  15.619  30.259  22.421 -0.4363 -0.3118 -0.1392
80853W        W23844  17.249   9.883  15.270 -0.3220  0.1011 -0.1420
80854W        W23845  17.925  33.174   5.518  0.0989  0.2098  0.0038
80855W        W23846  21.597   3.926  17.888 -0.0333 -0.3497  0.1927
80856W        W23847  18.348   4.933  20.429  0.3755 -0.1765 -0.0054
80857W        W23848  12.724  32.870  20.465 -0.3730  0.0749  0.2003
80858W        W23849  14.106  29.165  14.807  0.0815 -0.1681  0.0017
80859W        W23850  20.940  23.895  12.728 -0.2721 -0.2791 -0.2882
80860W        W23851   6.596   5.794  23.799  0.1134  0.1091 -0.0624
80861W        W23852  26.035   6.672  16.941  0.2715  0.1891  0.1620
80862W        W23853   6.466  29.891  20.462 -0.0890 -0.1194  0.1502
80863W        W23854  19.390  31.345  20.962 -0.1221  0.0834 -0.0356
80864W        W23855   9.066  29.618  23.307  0.1212  0.1057 -0.0858
80865W        W23856  23.641   1.565  25.766 -0.0252 -0.0170  0.0778
80866W        W23857  19.550  25.908  26.324  0.2720  0.1157 -0.3717
80867W        W23858  26.675  21.958  19.387 -0.1624  0.0047  0.2651
80868W        W23859  13.977  30.368   2.207 -0.0547  0.0016 -0.1431
80869W        W23860  22.313  22.221  20.682 -0.0715 -0.1639 -0.1237
80870W        W23861  16.659  32.524  23.413  0.1717  0.0635  0.0529
80871W        W23862  20.720  26.717  21.378  0.3163 -0.2302 -0.1442
80872W        W23863   1.388  34.101  19.945  0.2969  0.0639 -0.0286
80873W        W23864  31.743   7.623  17.795 -0.0524 -0.3086  0.2897
80874W        W23865  16.368  18.628  14.397 -0.2043  0.0246  0.0627
80875W        W23866  16.635  20.717   1.957  0.1116  0.2587 -0.1389
80876W        W23867  16.499  11.227  14.940  0.0983 -0.2925  0.0761
80877W        W23868  26.026  19.866  14.959  0.3826 -0.0210  0.1461
80878W        W23869  16.948   0.633  16.130 -0.1490 -0.0258 -0.0628
80879W        W23870  21.971  27.650  22.502  0.0037  0.2623  0.1489
80880W        W23871  22.466  24.515  25.482  0.1363 -0.0868  0.2228
80881W        W23872  28.357  31.394  19.496  0.1672  0.1067 -0.1051
80882W        W23873   5.433  12.214  23.870  0.0655 -0.0797  0.1374
80883W        W23874   4.912  26.561  26.536 -0.3281 -0.0155  0.1021
80884W        W23875  12.210   6.890   6.487 -0.0864  0.0562 -0.2632
80885W        W23876  12.915  19.835  19.904  0.0797  0.0810 -0.0550
80886W        W23877  22.652  28.720  16.355 -0.2306 -0.1244  0.0017
80887W        W23878  27.124   4.034  23.819 -0.1677  0.2272  0.0052
80888W        W23879  16.426  25.861  14.584  0.0937  0.2244  0.0660
80889W        W23880  25.517  30.913  17.229 -0.0414 -0.1426  0.1353
80890W        W23881   2.628  12.387  15.707  0.2183 -0.1866 -0.0276
80891W        W23882  20.210  16.255  16.912 -0.3852 -0.1053  0.0602
80892W        W23883  22.831  33.086  18.506 -0.0295 -0.0624  0.0355
80893W        W23884  14.231  26.106  16.802 -0.2228 -0.1354 -0.0158
80894W        W23885   6.970   0.593  18.449 -0.3352 -0.2560  0.0044
80895W        W23886  22.372  18.130  15.942 -0.1494  0.0143 -0.1601
80896W        W23887   4.987   7.935  21.711 -0.1669 -0.1257  0.0181
80897W        W23888  24.462  22.864  24.885  0.2331 -0.3023 -0.1850
80898W        W23889  22.854  16.756  27.918 -0.1250 -0.4542  0.0189
80899W        W23890  10.103  31.373  19.867  0.2267  0.1551  0.2480
80900W        W23891  26.882  24.591  23.517 -0.1939 -0.1500  0.0516
80901W        W23892  17.222   5.041   1.395 -0.2073  0.0225 -0.0439
80902W        W23893  22.048  32.352  12.748  0.0294 -0.2638  0.1292
80903W        W23894   2.833  33.141  21.528  0.0155  0.2475  0.0633
80904W        W23895  25.254  32.247   5.474  0.0676  0.0533 -0.1197
80905W        W23896  30.955   2.818  24.617 -0.0129  0.0606 -0.0194
80906W        W23897  27.280   0.394  21.248  0.2982 -0.2113 -0.0647
80907W        W23898  11.137   2.676  16.776  0.1171  0.1295 -0.1552
80908W        W23899  30.879   0.731  21.200  0.0815 -0.0772  0.0484
80909W        W23900  22.006  11.065  21.839 -0.0743  0.2207 -0.3305
80910W        W23901   5.228  29.967  27.973 -0.0442 -0.1698 -0.2068
80911W        W23902  23.290  32.000  16.069 -0.0564 -0.3832 -0.1166
80912W        W23903  23.956  11.303  20.510  0.2291  0.3992  0.0026
80913W        W23904   5.186  33.305  16.602  0.0702  0.1590  0.0239
80914W        W23905  33.074  25.714  22.288 -0.0226  0.0167  0.0600
80915W        W23906  22.626  26.920  16.845  0.0604 -0.0874 -0.0652
80916W        W23907  20.527  11.036  26.807 -0.2014 -0.3046  0.1432
80917W        W23908  25.757   5.333   3.643  0.2401  0.0015  0.2528
80918W        W23909  19.709  22.822  25.996 -0.0309 -0.0988 -0.0733
80919W        W23910  15.840   7.528  19.754  0.2183 -0.2460 -0.0009
80920W        W23911  17.448  21.682  21.078 -0.1283 -0.3560  0.0406
80921W        W23912  10.969  31.937  21.784 -0.0443  0.1408 -0.1959
80922W        W23913  12.858   1.334  17.682  0.0552 -0.0053  0.0688
80923W        W23914  14.233   4.577  16.850  0.3062  0.3252 -0.1295
80924W        W23915  30.494  31.799   1.605 -0.1147 -0.1208 -0.0307
80925W        W23916  11.226  28.183   8.424  0.2305 -0.0676  0.3657
80926W        W23917  22.569  21.881  17.867 -0.3083  0.0799 -0.0671
80927W        W23918  30.297  21.119  16.873 -0.0335 -0.0557  0.0461
80928W        W23919  20.018  33.985  28.425  0.0549  0.1739 -0.0285
80929W        W23920   8.459  25.719  14.377  0.0240 -0.1521  0.0027
80930W        W23921  18.962  27.010  23.203 -0.0029  0.1390 -0.4846
80931W        W23922  21.602   0.427  14.915 -0.0999  0.0058  0.0328
80932W        W23923   3.255   1.743   9.849 -0.1982 -0.0581  0.1928
80933W        W23924  19.328  25.081   9.345  0.1152  0.1593 -0.1031
80934W        W23925   9.602   0.680  22.651 -0.0472  0.1166  0.3305
80935W        W23926  18.703  24.188   7.942  0.2096  0.1056 -0.0163
80936W        W23927  26.548   8.490   3.107 -0.2315  0.1039  0.0855
80937W        W23928   4.381  13.808  21.600  0.0065 -0.0270 -0.0183
80938W        W23929  19.505   6.033  17.053 -0.2014  0.1532 -0.1055
80939W        W23930  15.760  30.752  17.932  0.1078  0.3121  0.0711
80940W        W23931  20.710  30.179  19.616 -0.2107  0.3728  0.0518
80941W        W23932  14.367   1.284  16.090  0.1686  0.3046  0.2096
80942W        W23933  11.285  12.015  25.175  0.0911  0.1464  0.2692
80943W        W23934   5.417  26.453  15.554  0.1660  0.1108  0.1946
80944W        W23935  15.143  27.497  14.686 -0.0855 -0.0738  0.1140
80945W        W23936  13.170  27.702  23.968 -0.2106 -0.3281 -0.2512
80946W        W23937  20.043  25.974  18.601  0.1618  0.1550  0.3706
80947W        W23938  25.289  29.228  18.560  0.0878 -0.1016 -0.3192
80948W        W23939  24.759  31.784  15.683  0.3315 -0.1538 -0.3822
80949W        W23940  13.359  30.217  27.793 -0.4079  0.1217  0.1180
80950W        W23941  20.650  22.635  26.046  0.1367  0.2755 -0.1717
80951W        W23942  22.259   2.372  15.811  0.1391 -0.1587 -0.1927
80952W        W23943   7.818  30.567  17.644  0.1054 -0.2283 -0.1090
80953W        W23944  13.918   2.682  19.242  0.0331 -0.2275 -0.2738
80954W        W23945  11.383   2.390  20.866  0.0165 -0.2260 -0.0747
80955W        W23946  14.341   0.583  15.082  0.1358 -0.2534  0.0507
80956W        W23947  15.449  31.668  14.688 -0.2005  0.0476  0.2154
80957W        W23948  12.340  18.018  20.164 -0.0281  0.2466  0.1793
80958W        W23949  10.758  20.627  16.606 -0.2725 -0.1923  0.2838
80959W        W23950  14.625  30.737  14.664  0.0368 -0.0411  0.1307
80960W        W23951   9.322  32.798  20.400 -0.0972 -0.1021  0.3423
80961W        W23952  15.741   9.663  16.366 -0.0653 -0.1034  0.3597
80962W        W23953  19.123  27.710  16.936  0.1218 -0.1096  0.0145
80963W        W23954   3.652  29.248   4.727  0.2115  0.0258 -0.1110
80964W        W23955  14.074  14.567  13.636  0.1149  0.0757 -0.0437
80965W        W23956  21.429  20.618  14.025  0.0793  0.0834 -0.0666
80966W        W23957  24.489  31.297  28.847  0.2784  0.1628  0.0718
80967W        W23958  15.929  33.684  16.001 -0.3638  0.0041  0.0427
80968W        W23959  27.881   1.003  25.639 -0.3062  0.0715  0.2034
80969W        W23960  15.441   1.170  26.304  0.0302 -0.0561 -0.1899
80970W        W23961  28.420   5.508  16.653 -0.3787 -0.2978 -0.2091
80971W        W23962   3.408  33.082  14.051 -0.1415 -0.4601  0.1588
80972W        W23963  27.932  24.918  24.705 -0.0114 -0.0198 -0.2434
80973W        W23964  16.366   3.329  21.727 -0.5264 -0.0940 -0.0295
80974W        W23965  16.660   8.970  24.199 -0.1043 -0.0164 -0.1164
80975W        W23966  12.146  11.469  16.459  0.3137 -0.0307 -0.0819
80976W        W23967  22.134  29.994   1.773  0.0120  0.1979 -0.1608
80977W        W23968  13.284  30.690  10.054 -0.2652 -0.2142  0.1509
80978W        W23969  25.508  18.343   3.117  0.0359 -0.2053 -0.2622
80979W        W23970   3.302  33.749  18.731  0.1860  0.0428 -0.0896
80980W        W23971  21.088  27.390  23.578 -0.0112 -0.2405  0.0117
80981W        W23972  14.380  14.371  14.289  0.2970  0.0194 -0.0101
80982W        W23973   0.747  23.504  14.508 -0.0462 -0.2030  0.2482
80983W        W23974  14.266  13.315   3.659 -0.0918  0.1146 -0.1880
80984W        W23975  18.979  21.584  14.003  0.1000 -0.2168  0.0804
80985W        W23976  10.420   6.486  14.811 -0.1565 -0.1891  0.1401
80986W        W23977   3.050  20.803  21.181  0.0775  0.0192 -0.2224
80987W        W23978  16.332   6.082  14.796  0.1272 -0.0611  0.1491
80988W        W23979  10.384  21.887  26.220  0.1017 -0.1590  0.1703
80989W        W23980  14.079  25.350  25.846 -0.1141 -0.1572 -0.1654
80990W        W23981  18.662  32.796  17.150 -0.1578  0.1056 -0.1498
80991W        W23982  17.651  29.334  23.990  0.0561  0.1047 -0.3297
80992W        W23983  18.932  22.602  20.994 -0.1108 -0.1758 -0.1692
80993W        W23984  20.227  34.466  21.337 -0.0422 -0.3577 -0.1269
80994W        W23985   4.711  32.672  17.364 -0.2016 -0.4918  0.0816
80995W        W23986  30.438  34.579   8.615  0.0578  0.0199  0.1850
80996W        W23987  30.725  11.664  20.687 -0.3035  0.5737 -0.0577
80997W        W23988   4.617   3.783  21.606  0.1458  0.1378  0.1910
80998W        W23989   9.809   2.622  25.921 -0.2666  0.3145  0.0880
80999W        W23990  22.389   7.320  18.625 -0.1296  0.0375 -0.1426
81000W        W23991  22.603   0.498   0.421 -0.2139 -0.0085 -0.2192
81001W        W23992  23.487  30.381  16.651 -0.0304  0.2931  0.2560
81002W        W23993  28.054   4.592  14.458  0.1347  0.2772 -0.1326
81003W        W23994  10.223   1.089  20.220 -0.0924  0.1055 -0.0172
81004W        W23995  15.575   4.999  22.629  0.1578  0.1135 -0.0896
81005W        W23996  19.711  32.253  20.655  0.0574 -0.1859 -0.0446
81006W        W23997  16.395  24.483  20.430 -0.2745 -0.0335 -0.0222
81007W        W23998  13.884  30.824  14.280 -0.1513  0.1495  0.2896
81008W        W23999  28.201   5.900  17.381  0.0482 -0.1379  0.0042
81009W        W24000  18.243   6.680   1.390  0.0141 -0.2201  0.0470
81010W        W24001  19.352  30.058  23.591  0.0115  0.2191 -0.1692
81011W        W24002  10.952  25.018  14.877  0.1280 -0.0102 -0.0491
81012W        W24003  27.227  22.666  15.892  0.2879  0.0543  0.1997
81013W        W24004  27.758  15.297  23.729  0.1585  0.1099  0.4565
81014W        W24005  32.206   0.350  25.001  0.0506 -0.0973 -0.1429
81015W        W24006  13.802  32.311  26.012 -0.0990  0.2246 -0.0752
81016W        W24007  24.402   8.725   1.011 -0.0458  0.2771  0.1737
81017W        W24008   1.819  29.951   5.654  0.0271  0.0067 -0.3271
81018W        W24009  34.665  22.805  21.931 -0.0030 -0.0216 -0.0565
81019W        W24010  26.115   0.860  27.691 -0.0397 -0.1023 -0.0481
81020W        W24011  22.264  12.066  26.379  0.1675 -0.1809 -0.0519
81021W        W24012  14.336   7.687   0.844 -0.1526  0.0083  0.0615
81022W        W24013  32.330  22.729   1.009  0.0734  0.1122 -0.0632
81023W        W24014  25.545  22.511  17.309  0.4430  0.0646 -0.1534
81024W        W24015  14.991  23.209  15.384  0.2298 -0.1408  0.0554
81025W        W24016  26.313   0.930   5.093 -0.1190  0.1606  0.1448
81026W        W24017  18.554   4.485   7.866  0.1379  0.1496 -0.2322
81027W        W24018  16.848   1.112  17.949 -0.0827  0.2768 -0.0774
81028W        W24019  23.900   4.203  13.280  0.3882 -0.1012  0.1813
81029W        W24020  18.159  27.425  22.476 -0.0886  0.1877 -0.0696
81030W        W24021  16.708  28.960  18.046 -0.4988 -0.0899 -0.1774
81031W        W24022  21.066  32.643  23.219 -0.1290  0.1567 -0.3337
81032W        W24023  15.174  24.891  15.630 -0.0445 -0.1169 -0.0882
81033W        W24024  22.352  30.251  21.310 -0.0817 -0.1000  0.0808
81034W        W24025   0.657  24.899  17.428 -0.5030  0.0062  0.0455
81035W        W24026   7.352  34.355  16.119  0.0513  0.0483  0.0223
81036W        W24027  25.786   1.398   0.763  0.0612 -0.0758 -0.2683
81037W        W24028   2.457   4.347  24.947 -0.1103  0.1739  0.0778
81038W        W24029  14.832  34.583  15.554  0.1541  0.3096  0.1210
81039W        W24030  11.496  21.936  16.881 -0.0135  0.0682 -0.0667
81040W        W24031  19.602   6.238   7.017  0.1507 -0.0265  0.1007
81041W        W24032  28.257   3.065  28.736  0.4137 -0.0878 -0.1947
81042W        W24033  27.407   7.367  28.576 -0.2376 -0.3034 -0.3135
81043W        W24034   4.206  33.541  25.801  0.1632 -0.0518  0.0270
81044W        W24035  25.548  32.196   2.511  0.2190  0.1437 -0.1434
81045W        W24036  12.783   6.634  27.012  0.1299 -0.0137  0.0749
81046W        W24037   3.796  28.072  27.888 -0.0137 -0.2468 -0.1935
81047W        W24038  34.184  28.459   8.884 -0.0013  0.2377 -0.1869
81048W        W24039  27.389   4.526   0.024  0.2270  0.1739  0.1946
81049W        W24040  24.952  23.721  17.659  0.5064  0.0573 -0.0211
81050W        W24041  14.020   1.085  26.204 -0.0542 -0.0091  0.2413
81051W        W24042  12.432   1.706  26.396  0.0176  0.4021 -0.0670
81052W        W24043  34.128  32.936   1.409  0.0601 -0.0741  0.1208
81053W        W24044  17.827   1.697  13.913  0.1601  0.3859 -0.1462
81054W        W24045  10.795  21.868  27.079 -0.1649 -0.0460 -0.2003
81055W        W24046  16.046  28.364  25.239  0.2269 -0.0938  0.1047
81056W        W24047  27.444   1.481   9.224 -0.1157 -0.3638  0.1133
81057W        W24048  21.204   1.099  28.895  0.2249  0.1860  0.2142
81058W        W24049  18.293  10.458  25.428 -0.1301  0.0235 -0.0646
81059W        W24050   2.971  28.358  24.632  0.0069 -0.2154 -0.2926
81060W        W24051  22.633  26.676  25.532  0.1013 -0.1999 -0.1559
81061W        W24052  30.065  34.710  15.052  0.2150  0.2906  0.1267
81062W        W24053  19.196   5.974  13.446 -0.2709 -0.0851 -0.2036
81063W        W24054  30.762  23.560  18.381  0.2124  0.1406 -0.1802
81064W        W24055   6.625  31.626  27.409 -0.0851  0.1517 -0.2088
81065W        W24056  23.144  28.610  18.023 -0.0526 -0.2841 -0.1805
81066W        W24057   6.064   7.613   4.523  0.0350 -0.1447  0.1662
81067W        W24058  23.964   3.342   1.423  0.0847  0.0618 -0.2181
81068W        W24059  11.374   6.121  25.006 -0.0819 -0.1858  0.1935
81069W        W24060  33.673   5.648  18.541  0.2271  0.1218 -0.0610
81070W        W24061  14.482  31.846  28.764 -0.0657 -0.1390 -0.0874
81071W        W24062  24.684   2.711  23.929  0.2569  0.0112 -0.1944
81072W        W24063  19.886  20.943  25.047 -0.0048  0.0865 -0.3045
81073W        W24064  21.615  23.687  19.546  0.3307  0.0077  0.0752
81074W        W24065  20.149   4.297  14.076 -0.3768 -0.3079  0.2099
81075W        W24066  20.091  25.459  19.109  0.2966  0.0338 -0.5623
81076W        W24067  16.979  32.851  25.112  0.0143  0.2304 -0.0224
81077W        W24068  29.656   1.059  19.884  0.1651  0.2386  0.2031
81078W        W24069  16.012   8.130  16.006 -0.5169 -0.1122 -0.1184
81079W        W24070   7.438   3.021   2.891 -0.3833  0.1923  0.1908
81080W        W24071  33.223  32.421  15.891  0.0909  0.0993  0.1365
81081W        W24072  23.665  24.486  28.135  0.2440 -0.0853 -0.3753
81082W        W24073  11.925   2.175  26.629  0.2534 -0.2138  0.1747
81083W        W24074  13.595  29.560  25.113 -0.0547  0.0221 -0.0312
81084W        W24075  19.553  28.824   6.768  0.0620 -0.2718 -0.0382
81085W        W24076  18.625  26.707  27.944  0.4308  0.1211 -0.0214
81086W        W24077  23.773   6.513  25.763  0.0958 -0.6008 -0.0015
81087W        W24078  25.320   4.044  22.217 -0.0479  0.2371 -0.5394
81088W        W24079   1.619   3.044  27.998  0.2740  0.0467  0.0499
81089W        W24080   8.128  29.318  17.508 -0.0741 -0.1326  0.1075
81090W        W24081   2.321  31.041  13.706 -0.0355  0.4247 -0.1881
81091W        W24082   7.323   2.293  17.428  0.1543 -0.1933 -0.2699
81092W        W24083  15.118  27.551  18.672  0.2000 -0.1908  0.2571
81093W        W24084  27.737   3.474  18.174  0.0234 -0.0331  0.0778
81094W        W24085  12.631  20.573  21.691 -0.0780  0.1088  0.1076
81095W        W24086  21.467  26.320  21.588  0.2107 -0.2398  0.4406
81096W        W24087   6.174   4.193   0.947  0.1851  0.2469 -0.0510
81097W        W24088  17.543  12.607  24.716  0.0439 -0.0867 -0.0512
81098W        W24089  15.577   5.511   1.990  0.0168 -0.0427  0.3230
81099W        W24090   4.260  29.944  24.498 -0.0655 -0.0290  0.6296
81100W        W24091  17.008  22.886   1.399  0.1269 -0.1710  0.1161
81101W        W24092   9.008  26.737  26.032 -0.1061 -0.0567  0.1930
81102W        W24093  11.567   7.812  20.717  0.1078  0.2443  0.0886
81103W        W24094   8.790  20.307  25.607 -0.1389 -0.2392  0.3126
81104W        W24095  19.660  12.408  26.491 -0.1345 -0.0525  0.0063
81105W        W24096  29.167   3.252  14.348  0.1435 -0.2132 -0.0384
81106W        W24097  20.484  25.436  13.717 -0.0039 -0.0983  0.0319
81107W        W24098  13.228   5.902  25.781  0.0590 -0.0942 -0.2179
81108W        W24099   7.985   3.358  22.749 -0.0030  0.2105  0.0077
81109W        W24100  30.933  15.233  24.890  0.1661 -0.1017 -0.2180
81110W        W24101  10.702  32.279  18.624  0.1137  0.2957 -0.0259
81111W        W24102  26.293  29.396  18.146  0.1197  0.1797  0.1621
81112W        W24103  23.785  23.879  27.965 -0.2477  0.2185 -0.1325
81113W        W24104  21.121  29.654  23.020 -0.3109  0.0790  0.2272
81114W        W24105  33.045  19.650  27.473 -0.0879 -0.0719  0.0336
81115W        W24106  16.609   1.630  17.152  0.0767 -0.1338 -0.3447
81116W        W24107  11.317  22.840  28.647 -0.3067  0.1334 -0.3193
81117W        W24108  28.954   2.844  17.441  0.2575 -0.0257  0.2108
81118W        W24109  29.804  15.888  24.456  0.0774 -0.1370  0.0830
81119W        W24110  11.277  24.623  17.642  0.1792 -0.0770  0.0120
81120W        W24111  18.478  10.200  15.747 -0.1128 -0.0271 -0.4540
81121W        W24112   5.866  24.537   2.692  0.0553 -0.0162  0.0184
81122W        W24113  18.431  20.373  24.603  0.4586  0.1656  0.4038
81123W        W24114  31.334   5.353   0.204 -0.1285  0.2698  0.1826
81124W        W24115  16.707  25.767  22.662 -0.1230 -0.2207 -0.1650
81125W        W24116  15.463   0.871  28.110  0.1509  0.0446  0.1455
81126W        W24117  17.988   3.050  24.470  0.3070 -0.0152  0.0586
81127W        W24118  14.488  30.517  23.794  0.0232  0.1749  0.1465
81128W        W24119  12.824  32.584  26.882  0.0377 -0.1615 -0.2906
81129W        W24120  31.637  32.883   2.200 -0.0234 -0.0439  0.1219
81130W        W24121  21.037   4.290  16.597  0.1715  0.1483 -0.0132
81131W        W24122  27.420   3.684  13.968 -0.2802  0.1635  0.0404
81132W        W24123  23.238   9.331  28.124  0.4678  0.0246  0.1398
81133W        W24124   2.931  12.581  17.448 -0.1029  0.0843  0.0412
81134W        W24125   8.313  32.877  17.494 -0.1107 -0.1594 -0.0380
81135W        W24126  14.946  12.617  24.816 -0.2543  0.2374  0.1494
81136W        W24127   6.439   3.074  23.566 -0.3092 -0.0724  0.4396
81137W        W24128  19.954  32.670   6.012  0.1357  0.0983 -0.1740
81138W        W24129   1.298  27.027   8.302 -0.0510  0.0051 -0.1009
81139W        W24130  20.210  34.750  26.456 -0.2153 -0.2701  0.0097
81140W        W24131  12.943  30.478  29.123  0.2167 -0.0320  0.1659
81141W        W24132  18.922  16.292  15.957  0.1676  0.2231 -0.0455
81142W        W24133  13.685  26.617  25.777 -0.0112  0.0644  0.1341
81143W        W24134   3.014   1.352   9.681 -0.3742 -0.1775  0.0252
81144W        W24135  30.639   5.957   0.281  0.2438 -0.2997  0.0113
81145W        W24136  31.767  33.261  23.097  0.0552 -0.0682 -0.3442
81146W        W24137  17.516  20.609   8.790  0.1630  0.0132  0.1909
81147W        W24138  29.948   6.378  22.389  0.0850 -0.1826 -0.1143
81148W        W24139  19.355  18.002  27.897 -0.2256  0.1275  0.0055
81149W        W24140  16.629  25.879  18.430 -0.1240  0.1680 -0.0857
81150W        W24141  20.033  19.731  23.723  0.3226  0.3614 -0.0072
81151W        W24142  20.748  13.824   4.773  0.1452  0.3919 -0.0332
81152W        W24143  13.861   2.609  20.218  0.0374 -0.0611  0.2113
81153W        W24144  32.303  19.877  25.521 -0.0462  0.1076 -0.1312
81154W        W24145  28.502  28.975  14.152  0.0339  0.0480 -0.0722
81155W        W24146  25.597   3.840  19.283  0.1211  0.1371 -0.4169
81156W        W24147  13.748  28.250  21.582 -0.3688 -0.0192 -0.1212
81157W        W24148  30.942  25.631  15.770 -0.3132  0.2136  0.0688
81158W        W24149  16.985  33.699   1.589  0.3942  0.1349 -0.0760
81159W        W24150  21.420  31.148   0.840  0.0904 -0.0762 -0.1260
81160W        W24151  28.495   3.801   8.573 -0.0426  0.0242  0.2050
81161W        W24152   1.656  32.543   0.053 -0.0913  0.4507 -0.0655
81162W        W24153   3.472   7.746  20.391  0.1988  0.0472 -0.1105
81163W        W24154   8.311  32.221  18.401  0.0483 -0.1510 -0.0639
81164W        W24155  14.400  30.694  21.358  0.0119 -0.0194 -0.0410
81165W        W24156  10.284  13.433   4.091  0.0921  0.1333  0.1512
81166W        W24157  12.892  28.211  26.507  0.0633  0.2057  0.1200
81167W        W24158   9.434  13.037  14.770 -0.0665  0.1160  0.0574
81168W        W24159   9.894  32.148   9.568  0.0384 -0.1485 -0.1479
81169W        W24160  21.599   7.338  25.277 -0.0698 -0.1526  0.0035
81170W        W24161  26.989  29.902  15.462 -0.0783 -0.3470  0.1045
81171W        W24162   9.760  17.211  16.285 -0.2561  0.1300 -0.1420
81172W        W24163  20.251  33.562   2.863  0.1102  0.1161  0.0053
81173W        W24164  22.161  28.672  16.050 -0.0485  0.1875  0.2043
81174W        W24165   4.650  12.961   4.895 -0.2264  0.3382 -0.2206
81175W        W24166   9.262  11.855  19.751  0.0766  0.0201 -0.1506
81176W        W24167  11.075  32.459  18.957  0.1275  0.1847  0.3352
81177W        W24168  18.563  16.094  15.560 -0.2329 -0.0073  0.2659
81178W        W24169   2.647  24.156  16.879 -0.1221 -0.0092 -0.0177
81179W        W24170   4.496   5.467   0.550 -0.1817  0.1171  0.3411
81180W        W24171  25.476  32.740  17.739  0.4069 -0.3116  0.0941
81181W        W24172   2.005  34.589   6.857  0.0834 -0.3009  0.1945
81182W        W24173  15.934  26.282   9.293 -0.0277  0.3072 -0.1251
81183W        W24174  31.001   2.191   1.078 -0.0695  0.0796 -0.1105
81184W        W24175   5.160  20.179   7.481 -0.1661  0.1723 -0.2514
81185W        W24176  21.977  29.670  19.023  0.0489  0.0182 -0.0039
81186W        W24177   1.005   2.115  29.089 -0.1968 -0.2569 -0.1418
81187W        W24178   5.815   5.898   3.345 -0.2251  0.2045 -0.0166
81188W        W24179  11.678   2.023  20.532 -0.3220  0.0806 -0.0129
81189W        W24180  26.084  24.299  20.692  0.0323 -0.0798 -0.1138
81190W        W24181  18.282   6.557   3.801 -0.1903 -0.3301  0.0609
81191W        W24182  32.066  23.834   3.977  0.4468  0.3223 -0.1022
81192W        W24183  23.415  33.544  20.514  0.1509  0.1514  0.1830
81193W        W24184  11.321  18.643  16.818 -0.0119  0.0731  0.1469
81194W        W24185   1.271  24.979  18.438  0.1471  0.2166  0.0064
81195W        W24186   0.988  17.827   8.563  0.0026  0.0997 -0.3904
81196W        W24187  24.982  27.652  24.790  0.1424  0.1872 -0.0182
81197W        W24188  15.656   4.785  17.295 -0.1856 -0.3596 -0.0379
81198W        W24189  30.060  23.298   0.744  0.1304 -0.0971  0.0879
81199W        W24190  25.160  29.655  15.808  0.1319 -0.2535 -0.6695
81200W        W24191   3.835   7.787  27.146  0.2407  0.3903 -0.1920
81201W        W24192   9.365  14.848  20.756 -0.3586  0.0142  0.0349
81202W        W24193  10.149   6.679  25.286 -0.1267 -0.4066  0.3553
81203W        W24194  14.596  11.302  25.383  0.4172  0.2645 -0.1942
81204W        W24195   1.807  34.238  17.602 -0.0355  0.1681  0.4589
81205W        W24196  33.867   5.191  19.821  0.2251 -0.2550  0.3565
81206W        W24197  30.820  34.533  16.667  0.0409 -0.2270 -0.1201
81207W        W24198  17.401   3.497  28.344 -0.1793  0.0604  0.3890
81208W        W24199  23.091  27.441  20.517 -0.0626  0.0855  0.0969
81209W        W24200  18.079  25.035  16.455  0.0420  0.0864  0.0749
81210W        W24201  14.756  33.601  19.131 -0.1371 -0.3809 -0.0138
81211W        W24202   8.138  32.988   7.956 -0.0368  0.0688  0.3038
81212W        W24203  26.176   0.340   9.424 -0.1420 -0.0296 -0.2182
81213W        W24204  18.968   5.555   3.348 -0.2321  0.0509  0.0532
81214W        W24205   5.400  23.407  28.606 -0.0538  0.0042 -0.3567
81215W        W24206   1.564   8.951  22.177 -0.1189  0.0014  0.1849
81216W        W24207  16.737   1.450  15.057 -0.1293 -0.3086  0.1861
81217W        W24208  17.231  19.599   8.145 -0.1055 -0.0089  0.1826
81218W        W24209  29.564   6.663   6.391 -0.0656 -0.0938 -0.0042
81219W        W24210  33.911  30.587  23.901 -0.0375  0.0512 -0.0174
81220W        W24211   9.086  32.439  21.844 -0.4267  0.1344 -0.1065
81221W        W24212  27.928  25.940  20.598 -0.4866 -0.1500  0.2097
81222W        W24213  13.119   0.858  25.078 -0.0408  0.4128 -0.0512
81223W        W24214  25.652  24.305   2.627 -0.1074  0.0951  0.1209
81224W        W24215   1.207   4.234  15.318  0.0694  0.0376  0.1028
81225W        W24216   1.313  32.278  24.193 -0.0188  0.1176 -0.1020
81226W        W24217  15.403   1.619  24.140 -0.0477 -0.1216 -0.0057
81227W        W24218  16.837   5.408   5.321 -0.1124 -0.4281 -0.1544
81228W        W24219  22.551  31.419  27.986  0.0388 -0.0827 -0.2076
81229W        W24220  28.055  15.632   2.295  0.3037 -0.1671 -0.0889
81230W        W24221  21.538   3.962   0.932 -0.2383  0.0695  0.0075
81231W        W24222  20.634  31.615   6.638  0.3480 -0.1403 -0.1002
81232W        W24223  25.162  27.230   8.825 -0.0748  0.1620 -0.0640
81233W        W24224  20.529  23.760   0.885  0.2317 -0.0014 -0.0942
81234W        W24225   2.923   3.431  20.985 -0.0222 -0.2775 -0.0521
81235W        W24226  23.107  25.147   6.572  0.1507  0.0821 -0.0713
81236W        W24227   3.989  29.683  20.340  0.1870 -0.1773  0.1502
81237W        W24228  30.622   4.036  18.439  0.0856 -0.0093 -0.0701
81238W        W24229  22.704   8.360  18.631 -0.1485 -0.1298  0.1522
81239W        W24230  10.925   2.791  15.465 -0.0253 -0.2484 -0.0895
81240W        W24231  16.726  30.038  27.989  0.0435 -0.0050  0.0833
81241W        W24232  30.767  33.088   7.496  0.1386 -0.0388  0.0091
81242W        W24233  13.772  29.578  18.938  0.2156  0.0040  0.0409
81243W        W24234  27.833   7.363   8.749  0.1441 -0.2672 -0.1998
81244W        W24235  12.342   1.093  27.740 -0.1538 -0.1796 -0.0604
81245W        W24236   9.361  26.014  24.863 -0.0119  0.0716  0.0529
81246W        W24237  18.075   0.291  27.599  0.1088 -0.1691 -0.0789
81247W        W24238  31.929  25.204   4.322 -0.0249  0.1065  0.1355
81248W        W24239  26.804  23.420  25.919 -0.0014 -0.0319  0.0723
81249W        W24240  23.648   1.586  15.210 -0.0458  0.0422  0.1793
81250W        W24241  14.567  11.523  24.433 -0.1784  0.0945  0.2769
81251W        W24242  16.571  14.888  15.176  0.0565 -0.0837 -0.2262
81252W        W24243   9.656   2.985  15.758  0.0706  0.0031  0.1943
81253W        W24244   7.799  20.564   2.987 -0.0372 -0.0151 -0.2962
81254W        W24245  11.061   5.329  16.036 -0.1828 -0.3599 -0.4219
81255W        W24246   3.867  14.722   6.769 -0.2282  0.0345 -0.1578
81256W        W24247  19.243   3.949   6.095 -0.0339 -0.0211 -0.2912
81257W        W24248  19.197  34.614  19.322  0.1564 -0.0710 -0.3336
81258W        W24249   7.749  33.539   1.976  0.2543 -0.3407  0.2588
81259W        W24250  17.115  34.792  22.702  0.0103  0.2455  0.0620
81260W        W24251   2.288  33.458  24.639  0.2947 -0.2676 -0.0229
81261W        W24252  18.036   6.019  25.326 -0.0557 -0.0889 -0.3279
81262W        W24253  18.598   0.393  16.848  0.0575  0.4043  0.1037
81263W        W24254  13.132  13.057   5.372 -0.0812 -0.3973  0.0174
81264W        W24255  29.852  33.673  17.775 -0.0905  0.1102 -0.0266
81265W        W24256  11.113  31.205   1.095 -0.1507 -0.1128 -0.5649
81266W        W24257  23.215   3.364  18.087  0.0063 -0.3810 -0.0145
81267W        W24258  17.188  31.033  22.742 -0.0472  0.4063 -0.1071
81268W        W24259  25.812  31.288   1.565 -0.0114 -0.3781 -0.2708
81269W        W24260  19.749  20.605  23.469 -0.0859  0.1973 -0.0947
81270W        W24261  15.361  12.015   2.787  0.2939 -0.0766  0.1090
81271W        W24262  11.669  18.549  27.691  0.0284  0.0923 -0.0264
81272W        W24263  21.826  29.807  15.911  0.1963  0.1994  0.0558
81273W        W24264  27.589   0.515  28.327  0.0634 -0.0213 -0.0039
81274W        W24265   9.504  14.691  21.555 -0.2105  0.0600 -0.2549
81275W        W24266   7.767  15.569   2.349  0.0984  0.0724  0.0819
81276W        W24267  26.914  26.402   2.182  0.4697 -0.2601  0.2627
81277W        W24268  19.257   9.426  17.120 -0.0590  0.1271 -0.1256
81278W        W24269  11.022  30.766   6.833 -0.0549  0.0910 -0.0064
81279W        W24270  11.786  24.760  25.879 -0.0454  0.1803 -0.0248
81280W        W24271  19.549  14.891  14.980 -0.1388  0.2187  0.0303
81281W        W24272  20.668  15.401  15.490  0.0609 -0.0415  0.0247
81282W        W24273  13.890   2.723  22.968 -0.1179  0.0536 -0.2139
81283W        W24274  10.215  15.317  27.425 -0.1625 -0.1539  0.0118
81284W        W24275   8.372  14.371  21.751 -0.1722 -0.0683  0.0439
81285W        W24276  19.268  29.995  28.569 -0.3332  0.0411  0.1273
81286W        W24277  30.227   0.788  15.889  0.0997 -0.1685 -0.2255
81287W        W24278   0.077   1.777  24.885 -0.1716 -0.0241 -0.4258
81288W        W24279  16.683  30.980   9.649  0.1550 -0.2573  0.1459
81289W        W24280   5.721   3.888  15.885  0.0186  0.0369 -0.3433
81290W        W24281  15.399  16.235  22.921 -0.0672  0.4184  0.1655
81291W        W24282  24.006  31.508  20.143  0.0152  0.2762 -0.0202
81292W        W24283  23.112  29.697  23.994  0.0275 -0.2398 -0.0135
81293W        W24284  23.506   0.529  19.287  0.0224 -0.2597 -0.0060
81294W        W24285   4.115  10.008  27.123  0.0033  0.1311 -0.0259
81295W        W24286  32.685  31.203  19.584 -0.1866  0.0697 -0.3070
81296W        W24287  24.654  28.917   3.486  0.0712  0.1136 -0.0770
81297W        W24288  18.945   0.583  14.345 -0.0502 -0.1133 -0.0583
81298W        W24289  32.183  25.178  15.247 -0.3931 -0.1732 -0.1986
81299W        W24290  24.727  28.271  17.164  0.1615  0.0136  0.0323
81300W        W24291  33.513   2.158  24.643  0.3774  0.1145 -0.0466
81301W        W24292  16.873  14.552  27.640  0.1084 -0.2751  0.1781
81302W        W24293  25.868   6.311   8.582  0.1523  0.2055  0.1659
81303W        W24294   9.980  22.528  15.154 -0.2332  0.1622  0.1926
81304W        W24295   6.425  28.009  23.625 -0.0310 -0.0040  0.0399
81305W        W24296  16.778  29.326  17.715  0.2712 -0.2258 -0.4262
81306W        W24297   9.882  27.193  15.368 -0.5248 -0.1187  0.1103
81307W        W24298   7.047  15.650  21.385  0.2932 -0.2697 -0.1489
81308W        W24299   1.210   8.333  26.772 -0.1398  0.1530  0.1644
81309W        W24300  20.217  29.340  22.757 -0.1394 -0.3889  0.1588
81310W        W24301  32.767  29.010  17.555  0.2711  0.0969 -0.1193
81311W        W24302  25.191   3.217  21.221  0.1532  0.1544 -0.2010
81312W        W24303   3.945   1.785  16.451  0.2931  0.3961 -0.0592
81313W        W24304   8.550  28.363  15.435  0.1942  0.1594 -0.0036
81314W        W24305  23.001  33.758  24.232  0.2272 -0.2368  0.0909
81315W        W24306  17.846  25.277  21.139 -0.1784  0.0034 -0.0904
81316W        W24307  10.693   6.030  24.677  0.2670 -0.1443 -0.1056
81317W        W24308  26.475  30.215  18.239 -0.0449 -0.1387  0.0281
81318W        W24309   9.982  30.172  19.338  0.2626 -0.0402  0.0236
81319W        W24310  24.429  11.960  24.167  0.1047 -0.0245  0.0481
81320W        W24311  28.887  14.066  22.262  0.2018 -0.0557  0.0428
81321W        W24312  26.516  20.100  18.269  0.1452  0.0128 -0.0531
81322W        W24313  17.810  27.451  28.771 -0.1364  0.3137  0.1270
81323W        W24314  12.166  12.786  16.999  0.0761  0.1043  0.0310
81324W        W24315   1.712   8.310  20.417 -0.1012 -0.1530  0.0230
81325W        W24316   2.665  32.588  15.765 -0.0041  0.0700 -0.0148
81326W        W24317  29.593  20.674  24.034 -0.0358  0.2763 -0.1408
81327W        W24318  30.099  24.245  13.564  0.0267  0.1889 -0.0358
81328W        W24319  21.847  16.066  24.361 -0.1530 -0.2030 -0.0481
81329W        W24320  11.800  32.913  21.147 -0.1143 -0.0065  0.1714
81330W        W24321  34.087  12.948  26.051 -0.1454 -0.0009  0.0531
81331W        W24322  17.798  19.608  24.102  0.0091 -0.1378 -0.0848
81332W        W24323   9.453   5.094  28.207 -0.0762 -0.0605  0.0491
81333W        W24324  14.808  27.938   6.342 -0.1922  0.0612  0.1165
81334W        W24325   5.876  28.417  28.892 -0.2090  0.1148  0.2401
81335W        W24326  33.380   3.683  25.568 -0.1429  0.3218 -0.3796
81336W        W24327  13.553   1.389  22.180  0.3140  0.1422 -0.3266
81337W        W24328  33.555  22.139  21.535  0.1367 -0.1287 -0.0058
81338W        W24329  27.063  20.725  22.671 -0.0423 -0.0570  0.1065
81339W        W24330   9.859  10.603  21.421  0.0336 -0.0104  0.4361
81340W        W24331  10.191  11.799  18.298 -0.0032  0.0852 -0.1957
81341W        W24332   1.553   6.220  22.182  0.0219 -0.0962 -0.0150
81342W        W24333  10.390   1.550  17.584  0.3304 -0.1697 -0.0086
81343W        W24334   6.185  34.478  22.301  0.1426  0.0217  0.1636
81344W        W24335  22.181   9.464  26.278  0.1846 -0.0375 -0.1459
81345W        W24336   9.682   7.020  28.763  0.1418  0.1444  0.0341
81346W        W24337  10.012  24.774  22.039  0.1435  0.1185  0.1557
81347W        W24338   9.076  34.402  16.781  0.1404  0.0954  0.1695
81348W        W24339  28.354   2.898  25.759 -0.2939  0.2271  0.1636
81349W        W24340   6.027  19.966  15.988 -0.3301 -0.2551  0.1731
81350W        W24341  12.076  19.799  18.592  0.0889  0.2635  0.1584
81351W        W24342  14.785  25.869   4.018 -0.2160 -0.3094  0.1874
81352W        W24343  18.795   5.121  27.385  0.0150  0.0490 -0.1407
81353W        W24344  21.661  29.366   0.113  0.0182  0.0219  0.0456
81354W        W24345  32.815   7.734   8.872  0.1656  0.1705  0.0090
81355W        W24346   8.722  28.791  17.135 -0.0684  0.1087  0.1580
81356W        W24347  12.978   9.193  26.492  0.0009 -0.2916 -0.2671
81357W        W24348  13.456  33.857  19.955  0.3337  0.3627  0.1888
81358W        W24349  23.132  29.251  28.305  0.1140 -0.2979  0.2237
81359W        W24350  24.096  29.741  25.172  0.2301  0.0011 -0.1418
81360W        W24351  16.427  17.854   7.771 -0.0131  0.1540  0.0220
81361W        W24352  22.682   2.139  15.742 -0.3668 -0.0054 -0.0410
81362W        W24353  12.844  11.153  23.786  0.1880  0.1087  0.1276
81363W        W24354  15.617  29.881   7.862  0.0573  0.0285  0.1364
81364W        W24355  18.696  33.850   5.380  0.2300 -0.6103 -0.0744
81365W        W24356  14.472  12.557  19.147  0.0196  0.0957 -0.0373
81366W        W24357  13.572   4.982  17.353  0.1664 -0.0888  0.0713
81367W        W24358  28.181  30.369  20.052 -0.2563  0.0232  0.2102
81368W        W24359   3.084  11.809   5.951  0.0149  0.0264  0.1327
81369W        W24360  18.295   6.241  27.967 -0.0119 -0.3643 -0.1743
81370W        W24361   6.785  15.170  16.937 -0.0112 -0.3832  0.2798
81371W        W24362  22.041  28.085  22.130  0.0724  0.2721 -0.5827
81372W        W24363  20.576   5.472  22.672  0.0283  0.0168  0.3524
81373W        W24364  13.834   9.014  21.183  0.3238 -0.1128 -0.2879
81374W        W24365   9.423  19.450  21.145  0.1060 -0.0276 -0.3907
81375W        W24366  13.745  30.667   0.263 -0.3342 -0.0042 -0.0173
81376W        W24367   8.823  32.779  22.079 -0.0190 -0.3170  0.2573
81377W        W24368  15.424   8.703  26.775  0.0343  0.3833  0.1960
81378W        W24369  15.574   2.605  14.686  0.1742  0.0036 -0.2242
81379W        W24370  25.991  17.835   0.916 -0.1269 -0.0992  0.2303
81380W        W24371  19.033  10.478  25.855  0.0431  0.3998  0.0597
81381W        W24372  24.251  25.976   0.886  0.2396 -0.1001 -0.2265
81382W        W24373  18.303  14.768  15.373  0.0838 -0.2102  0.1594
81383W        W24374   2.129  28.014  17.998 -0.2848  0.0209  0.4505
81384W        W24375   3.702  30.720  28.693  0.2571  0.0303  0.0395
81385W        W24376  22.918  23.580   0.479  0.1420  0.0543  0.0434
81386W        W24377  19.480   3.898   2.960  0.3552 -0.2992  0.1522
81387W        W24378  16.377  33.399  10.532  0.0187  0.1036  0.1484
81388W        W24379  20.492  27.747  27.036 -0.0315 -0.0932  0.0753
81389W        W24380   8.028   5.367  21.784 -0.0359 -0.2378 -0.3576
81390W        W24381  19.846   6.057   1.177  0.3833  0.2578 -0.0248
81391W        W24382   1.743   7.978  20.839  0.2036  0.0682  0.0533
81392W        W24383  24.214  22.696  27.146 -0.4173  0.1764  0.3309
81393W        W24384  32.251  23.038   1.392 -0.2760 -0.2164  0.2645
81394W        W24385  17.087  34.381  24.476  0.0721  0.0633 -0.1492
81395W        W24386  11.711  32.910  20.148 -0.0685  0.0370 -0.1060
81396W        W24387  33.535  33.760  20.943 -0.2263 -0.0181 -0.1261
81397W        W24388  27.509  30.678  18.419  0.2527  0.2579  0.1550
81398W        W24389  20.517  21.015   3.471  0.0812 -0.0320  0.0223
81399W        W24390  16.724  31.912  14.032  0.0154 -0.4043  0.2340
81400W        W24391  24.171   3.365  17.454  0.3845 -0.2397 -0.0142
81401W        W24392  33.047   3.476  20.171 -0.1898  0.2936  0.2096
81402W        W24393  27.885  34.628  24.869 -0.3541  0.4234  0.0947
81403W        W24394   5.813  25.105   7.950  0.0048 -0.0740 -0.2171
81404W        W24395  25.177  32.216  27.814 -0.0350 -0.1050 -0.0880
81405W        W24396  28.778  29.738  24.227 -0.1156 -0.0217  0.0032
81406W        W24397  28.164  19.931  16.808 -0.1614  0.2207  0.0419
81407W        W24398  25.177  14.164  25.504 -0.0692  0.0166 -0.2027
81408W        W24399  25.086  34.523  24.053  0.0356 -0.2856  0.1847
81409W        W24400  14.351  20.986  13.416  0.1802  0.1760  0.5032
81410W        W24401  28.899  32.191  23.748 -0.1930  0.1903 -0.1759
81411W        W24402  33.755  20.221  18.704  0.1292 -0.1306  0.1040
81412W        W24403  18.896  23.382   6.810 -0.2026 -0.1798  0.1518
81413W        W24404  33.884   8.722  25.335 -0.0568 -0.0888 -0.0934
81414W        W24405  13.809  14.156  28.541 -0.2251  0.2571  0.2307
81415W        W24406  11.191   8.739   6.230 -0.0270  0.2332 -0.0260
81416W        W24407  13.860   8.768  20.677  0.0692 -0.1358 -0.0061
81417W        W24408   6.354  12.527  15.159 -0.4627  0.0116  0.2252
81418W        W24409  14.779   4.387  17.737 -0.1778 -0.1935  0.1012
81419W        W24410  16.194   5.128  19.022  0.0097  0.3096  0.1425
81420W        W24411   7.597   3.348  14.544  0.1642 -0.0633  0.0381
81421W        W24412  18.032   2.576  24.274  0.0448  0.0173  0.1637
81422W        W24413  17.905   8.574  15.766  0.0252  0.0386 -0.0012
81423W        W24414  18.408  23.562  19.724  0.0180 -0.0776  0.0035
81424W        W24415  16.241  25.283  26.425  0.0400  0.0997 -0.0880
81425W        W24416   8.333  24.118  28.521 -0.0491 -0.0816  0.1961
81426W        W24417  20.718   9.295  25.183 -0.0434 -0.0020 -0.1765
81427W        W24418   7.073   3.883  19.834 -0.3870 -0.1054  0.0784
81428W        W24419  17.023   2.734   3.062  0.2222  0.1186 -0.1571
81429W        W24420   7.539  19.880  21.516  0.0982 -0.3926 -0.6190
81430W        W24421  31.286   5.798   6.478  0.0493  0.1985  0.2448
81431W        W24422  17.511  34.158  22.503  0.0672 -0.0060  0.0387
81432W        W24423   3.510  31.588  17.902 -0.1176  0.0051 -0.0080
81433W        W24424  23.382   1.073  19.026  0.2681 -0.2209 -0.1682
81434W        W24425  28.352  26.587   3.787 -0.0821 -0.1055 -0.1817
81435W        W24426  12.809   0.950  15.064 -0.0448 -0.2146  0.2847
81436W        W24427  17.133  29.664  13.525 -0.0888 -0.1365  0.1717
81437W        W24428   8.780   3.768  15.614  0.2387 -0.0370  0.7019
81438W        W24429   8.295   0.406  25.959 -0.0935  0.0125 -0.0535
81439W        W24430  15.604  13.498  19.048  0.2102 -0.3751 -0.0795
81440W        W24431  26.459  32.164   4.652 -0.1812  0.3372 -0.1632
81441W        W24432  22.495  31.382  24.977 -0.0286 -0.1498  0.3492
81442W        W24433  29.583  23.134   0.668 -0.5786  0.1158  0.1201
81443W        W24434  15.832   7.430  27.433 -0.0393  0.0626 -0.3071
81444W        W24435  17.320  25.576  29.245  0.1613 -0.1883 -0.2537
81445W        W24436  17.179  32.779  23.403 -0.3719 -0.1872  0.0136
81446W        W24437  12.212  24.722  25.275 -0.0793  0.0604  0.0316
81447W        W24438  14.046  33.687   7.516  0.2777  0.2545 -0.1088
81448W        W24439  31.614  14.840   1.572 -0.0732 -0.3037 -0.0960
81449W        W24440  21.116  12.071  18.722  0.0769  0.1045 -0.4940
81450W        W24441  11.492   2.652  17.284 -0.0235  0.0610  0.2687
81451W        W24442   8.566   9.568  19.979 -0.1375 -0.0063 -0.0022
81452W        W24443  10.687   1.427   0.602  0.3916 -0.2244  0.1142
81453W        W24444  14.527  34.798   2.618  0.0366  0.0225  0.2621
81454W        W24445  14.261  28.682   9.218  0.3719 -0.0997 -0.1954
81455W        W24446  11.261  26.049  29.071  0.0611  0.0232  0.0220
81456W        W24447   9.834  18.304  14.126 -0.1378  0.2640 -0.2128
81457W        W24448   5.901  16.022   1.244  0.1715  0.1399  0.2539
81458W        W24449  10.930  32.254  28.158 -0.4162  0.1958 -0.2815
81459W        W24450  26.638  14.243  28.960  0.0275  0.0903  0.0134
81460W        W24451  19.105  11.393   1.260 -0.4421 -0.1299  0.0503
81461W        W24452  14.467   9.431  15.691 -0.1360  0.3525 -0.0449
81462W        W24453  17.019  32.623   2.795 -0.1418 -0.2583  0.0990
81463W        W24454   8.930   0.531   7.108  0.1434 -0.1876  0.1890
81464W        W24455   8.874  18.353  20.443 -0.0389  0.2025 -0.1813
81465W        W24456   4.663  23.291  21.719 -0.1750  0.1050  0.0230
81466W        W24457  15.115  22.414  18.065  0.0730  0.1041 -0.0757
81467W        W24458  16.748  19.774   7.409 -0.2268  0.2953 -0.0825
81468W        W24459  22.379  25.718  20.666 -0.0049 -0.1728 -0.0964
81469W        W24460  11.663  21.247  17.275 -0.0190 -0.0046 -0.0371
81470W        W24461  16.468  22.765   0.534 -0.0414 -0.1052 -0.1240
81471W        W24462  15.145   2.968  24.524 -0.3879  0.1397 -0.2640
81472W        W24463  19.623  28.851   2.096  0.3157  0.2335 -0.2352
81473W        W24464  19.138  19.960  28.918 -0.1105 -0.1571  0.0507
81474W        W24465  28.361   4.838  19.032  0.1843  0.2881  0.0081
81475W        W24466  10.884  26.858   6.707 -0.0134 -0.1650 -0.3161
81476W        W24467   7.711  11.394   1.646 -0.0018 -0.4727 -0.0080
81477W        W24468  19.843  33.759   4.809 -0.0757  0.1223 -0.0506
81478W        W24469  27.970  21.537  17.743 -0.0770 -0.3066 -0.1424
81479W        W24470  19.756   9.381   0.611 -0.2092 -0.4677 -0.1134
81480W        W24471  31.048  21.069   6.349 -0.2205  0.0998  0.6155
81481W        W24472   9.861   7.889   6.249  0.0151  0.2426 -0.0898
81482W        W24473  21.728  31.950  18.281  0.1210  0.0895 -0.2370
81483W        W24474  24.143  13.231  22.935 -0.2722  0.0569 -0.2771
81484W        W24475   0.084  21.594   2.433 -0.0555  0.0636  0.0219
81485W        W24476  33.816  33.142  26.330  0.0716  0.3456 -0.0897
81486W        W24477  19.461  33.766  22.807  0.0980  0.4785 -0.0599
81487W        W24478  13.019  21.598  26.716  0.1897  0.0060 -0.0819
81488W        W24479   5.912   1.757  20.673  0.3114  0.0670 -0.3897
81489W        W24480  25.763  23.443  14.785 -0.0433  0.0385  0.0382
81490W        W24481  33.418   7.426  29.245 -0.0208  0.0162 -0.1396
81491W        W24482  12.770  24.383   3.643 -0.1585  0.0804 -0.0888
81492W        W24483  24.749  27.236  24.425  0.3123 -0.1521  0.2335
81493W        W24484  12.004  32.445   6.869  0.3669 -0.0916  0.0606
81494W        W24485  27.080   0.571   2.644  0.0848 -0.2109 -0.0446
81495W        W24486  15.362  25.197  14.452 -0.1901 -0.0198  0.0093
81496W        W24487  12.461   3.866   2.355 -0.1226 -0.2660 -0.0351
81497W        W24488  26.094  23.576  27.665  0.0986 -0.0105  0.0610
81498W        W24489  25.095  12.510  24.225  0.1610  0.3127 -0.1434
81499W        W24490  27.603  27.959  28.361 -0.0704 -0.2189 -0.2053
81500W        W24491  12.793  19.195   1.323  0.0079 -0.0084  0.0307
81501W        W24492   6.896  24.140  28.915 -0.2653 -0.2717 -0.1086
81502W        W24493  19.517   1.470   4.702 -0.0592  0.1157  0.0161
81503W        W24494  31.108  13.876  29.200 -0.2259  0.1448  0.0074
81504W        W24495  10.776   4.446   0.622  0.1938 -0.0071  0.1469
81505W        W24496  24.085  20.454  22.070 -0.1706 -0.1137 -0.0597
81506W        W24497   6.121  24.406  18.685  0.1513  0.1236  0.1452
81507W        W24498  23.117   1.446   5.661 -0.1976 -0.3111  0.2879
81508W        W24499  10.984  29.878   8.757 -0.1078 -0.0212 -0.1256
81509W        W24500  22.941   7.146  19.861  0.0640  0.1111 -0.0162
81510W        W24501   1.207   7.200   2.944  0.2386  0.0234  0.0123
81511W        W24502   8.371  25.801  17.571 -0.0131 -0.2542 -0.2679
81512W        W24503  22.717   5.830  25.809  0.2338  0.1223  0.2706
81513W        W24504  17.213   1.554   1.219  0.1404 -0.0472 -0.0572
81514W        W24505   3.973   9.131  17.624 -0.3481  0.2803 -0.1940
81515W        W24506   0.864   5.225  29.080  0.0625  0.0569 -0.2193
81516W        W24507  23.202   7.245  25.823  0.0294  0.1780  0.1798
81517W        W24508  11.142   1.884  22.998  0.0212 -0.0955 -0.2139
81518W        W24509  21.171   3.737   2.925  0.2495 -0.1025  0.0582
81519W        W24510  14.876  17.494   5.082  0.1687  0.1031 -0.0106
81520W        W24511  32.117  10.176   3.492 -0.2167 -0.1714  0.0438
81521W        W24512  22.702   4.436   8.977 -0.1864  0.2842 -0.3940
81522W        W24513  27.703   7.173  21.352 -0.0373 -0.2658  0.3769
81523W        W24514  26.175  10.044  24.931 -0.3062 -0.0250  0.1872
81524W        W24515  28.120   0.824  20.472 -0.1378  0.0998 -0.1580
81525W        W24516  34.409  11.514  27.447  0.1770 -0.1187  0.2766
81526W        W24517  25.297  14.731   6.117 -0.0314  0.0438  0.0469
81527W        W24518  11.843   4.974  27.492  0.0414 -0.1402 -0.1762
81528W        W24519  33.467  20.725  23.155 -0.2620 -0.0687 -0.0028
81529W        W24520  18.271  23.688  21.885 -0.1305  0.0726  0.0917
81530W        W24521  14.607  32.766  19.738 -0.3319 -0.0699 -0.1948
81531W        W24522  27.140  22.986  28.059 -0.0910 -0.0681  0.2080
81532W        W24523  17.914  29.915   5.190  0.3614  0.1810 -0.0961
81533W        W24524   8.369  23.756  18.130 -0.1357 -0.2334  0.0813
81534W        W24525  14.684  33.797   4.767 -0.0482  0.0325 -0.1056
81535W        W24526   8.792   6.090  14.445 -0.4753  0.0207 -0.0520
81536W        W24527  18.711  33.927   7.021 -0.0300  0.1193 -0.2691
81537W        W24528  19.940  21.001  27.345  0.4099  0.2362 -0.0206
81538W        W24529  25.764  12.356   3.866 -0.2239 -0.0083 -0.3201
81539W        W24530  21.861  30.300   7.209 -0.3056 -0.3370  0.3254
81540W        W24531  16.131  32.580  28.095  0.0529  0.1529  0.0588
81541W        W24532  25.736   2.908  19.098 -0.0550 -0.2251 -0.2843
81542W        W24533   2.270  27.728  23.426 -0.5430  0.0028 -0.0740
81543W        W24534  16.936  33.203   4.237 -0.3918  0.2153  0.0275
81544W        W24535   7.582  33.908  24.129 -0.0772  0.2864 -0.0770
81545W        W24536  21.468  34.493  26.619 -0.0124  0.0150  0.3778
81546W        W24537  18.261  14.589  25.666  0.0778  0.0122 -0.0607
81547W        W24538  13.651   5.752  26.064  0.3122 -0.0448 -0.2375
81548W        W24539  11.017  25.744  27.747 -0.0299 -0.3002 -0.1789
81549W        W24540   3.685  13.017   4.535  0.0600 -0.2950 -0.0342
81550W        W24541  18.450   3.403   3.860  0.0336 -0.0585  0.1923
81551W        W24542   6.451  24.545  27.927  0.1868  0.0961  0.3998
81552W        W24543   7.491  23.899   2.212 -0.0286  0.2701 -0.0620
81553W        W24544  12.109  22.725   0.471  0.0777  0.0537 -0.0920
81554W        W24545  11.298  33.483  17.559 -0.1509  0.2749  0.2500
81555W        W24546  31.560  18.527  18.951  0.1300 -0.2630  0.0046
81556W        W24547   0.176  33.815   8.880  0.3024  0.1137 -0.0564
81557W        W24548  25.119  34.052   2.250  0.3267 -0.0181  0.0903
81558W        W24549   7.575  13.971   0.744  0.1468 -0.0540 -0.2449
81559W        W24550  12.245   5.486  20.636 -0.0122 -0.1739  0.0503
81560W        W24551  26.123  31.605   8.554  0.1051  0.1513 -0.1287
81561W        W24552   4.225  22.612   9.459  0.1374  0.0031 -0.0241
81562W        W24553  19.344  33.846   4.995 -0.2987 -0.5288 -0.2883
81563W        W24554  28.898  28.211   1.276  0.0423 -0.0989  0.0384
81564W        W24555  25.120  30.305  27.533 -0.0317  0.0643  0.0159
81565W        W24556  19.742  27.862  26.268  0.1629  0.3840  0.1604
81566W        W24557   3.784   0.798  20.587 -0.3365  0.0953  0.0228
81567W        W24558  10.384  10.113   0.294 -0.0337 -0.1644  0.1796
81568W        W24559  17.962  22.085  26.194 -0.0028 -0.0239 -0.0014
81569W        W24560  31.687  30.386   6.339  0.1111 -0.0997  0.1183
81570W        W24561   3.401   5.793  29.043 -0.2498 -0.0603 -0.1084
81571W        W24562  24.485  25.984   8.982 -0.1091 -0.0075  0.0837
81572W        W24563  19.263  32.197  24.301  0.2192  0.3987 -0.3778
81573W        W24564  12.345   8.359  22.838 -0.0649  0.1073  0.0304
81574W        W24565   9.067  18.332  22.827  0.1793  0.0109 -0.0913
81575W        W24566   0.539  24.184  28.037 -0.1928  0.3929  0.1552
81576W        W24567  30.232  21.392  20.897 -0.0933  0.1105  0.0723
81577W        W24568  19.419   1.168  15.859 -0.1509 -0.1909  0.0293
81578W        W24569  24.049  34.521  22.441  0.1172  0.0704 -0.0485
81579W        W24570  24.903  33.714  18.933 -0.2687 -0.1094 -0.0221
81580W        W24571  21.516   9.742   8.399 -0.0205 -0.0554  0.3848
81581W        W24572   5.706  28.454   2.445  0.1742 -0.3601  0.0282
81582W        W24573  17.302  32.521  22.251  0.0680 -0.1179 -0.0603
81583W        W24574  22.736  14.858   0.022 -0.3051 -0.0174 -0.3211
81584W        W24575  22.726  27.898  29.250  0.0192 -0.2518 -0.2654
81585W        W24576  17.676  29.333   9.619 -0.0164 -0.2743 -0.0775
81586W        W24577  12.960  33.782  10.684  0.1657 -0.1068 -0.0065
81587W        W24578  17.620   8.593   3.751  0.0738  0.3515 -0.3182
81588W        W24579   3.441   2.549  27.653 -0.0948  0.0376  0.1680
81589W        W24580  18.516  11.287   8.595  0.2885  0.1370 -0.3195
81590W        W24581  19.110  23.228   3.443 -0.1865 -0.0337 -0.0134
81591W        W24582  19.657  22.833   4.809  0.1731  0.1125 -0.3123
81592W        W24583   3.228   4.721  20.126 -0.1010 -0.0554  0.1115
81593W        W24584  16.228  15.287   8.311  0.3979 -0.1226 -0.3240
81594W        W24585  33.937   3.582   0.030 -0.0684  0.0437 -0.1514
81595W        W24586   4.052   1.600   6.238 -0.1894  0.1509  0.1540
81596W        W24587  19.216  26.494   3.511 -0.1817  0.2084  0.0721
81597W        W24588  15.505  22.892   4.813  0.3686 -0.0639 -0.2310
81598W        W24589   2.180  24.545  29.095  0.1610  0.3616 -0.1921
81599W        W24590  17.224   2.582   2.036  0.0728  0.0671 -0.1385
81600W        W24591   8.577   0.233   3.294  0.0997 -0.0514 -0.0811
81601W        W24592  15.211  30.360  26.259 -0.1490  0.3872 -0.2256
81602W        W24593   7.763   4.812  28.350 -0.0360 -0.0862  0.0387
81603W        W24594   1.273  27.026  28.207 -0.2093 -0.1455  0.2535
81604W        W24595   1.035   4.554   5.415  0.1266 -0.1020  0.0011
81605W        W24596   1.141  18.690  23.415  0.5212 -0.0702  0.0245
81606W        W24597  21.969  25.642   5.365  0.1666 -0.0322  0.2459
81607W        W24598  19.054  21.876  23.432 -0.0102  0.0214 -0.0462
81608W        W24599  11.903  33.951   5.078  0.0853 -0.0466 -0.0237
81609W        W24600  12.943  18.866   6.440  0.2294  0.1504 -0.0311
81610W        W24601  21.399  12.379  21.855 -0.3734  0.0785  0.0871
81611W        W24602  21.983  32.537  16.252 -0.2794 -0.3561 -0.1291
81612W        W24603  19.266   3.113  16.572 -0.3813  0.2413 -0.0247
81613W        W24604  17.758  34.507  27.257  0.2088 -0.2239 -0.0634
81614W        W24605   9.388  33.110  20.895  0.2018  0.0975 -0.1580
81615W        W24606  14.620   1.359   7.863  0.1139 -0.0303  0.1998
81616W        W24607  25.918  29.072   5.699  0.1824  0.3902 -0.0468
81617W        W24608   7.518  27.775  28.943 -0.1118 -0.0599 -0.1043
81618W        W24609  26.219  26.346   9.525  0.0771  0.0921 -0.0320
81619W        W24610   3.937  23.492  16.682 -0.1076  0.2135 -0.1127
81620W        W24611  34.370   7.778  16.116  0.2749 -0.0370  0.0677
81621W        W24612  10.879  17.979   7.590  0.0617  0.2416  0.0653
81622W        W24613  17.428  28.854  26.221 -0.1266  0.0345  0.1526
81623W        W24614  17.066   7.076  27.965 -0.2456 -0.0320 -0.5176
81624W        W24615  33.607   5.266   0.686  0.1472  0.1528 -0.1809
81625W        W24616   3.408  24.188   1.373  0.0929 -0.2916 -0.0442
81626W        W24617  26.030  27.556   4.646  0.1118  0.3465 -0.2040
81627W        W24618  16.253  13.601  17.032  0.0531 -0.0725  0.4114
81628W        W24619   3.883   1.075  24.067  0.3541  0.1525 -0.0267
81629W        W24620  22.982  27.961  23.503 -0.0209  0.1768  0.0507
81630W        W24621   7.526   6.603   3.500 -0.1820 -0.0975  0.1363
81631W        W24622   2.392  17.456   0.297  0.0882 -0.0672  0.3396
81632W        W24623  18.666   4.368   2.681  0.2857 -0.0323 -0.0207
81633W        W24624   6.639  32.474  22.889 -0.2131  0.3530  0.2662
81634W        W24625  10.877  22.517  16.137  0.1067  0.0649 -0.0197
81635W        W24626  13.636  25.996  28.497 -0.0468  0.0333  0.3017
81636W        W24627   7.310  14.005   1.165 -0.3424  0.0584  0.0037
81637W        W24628  18.077  21.913  17.748 -0.0842  0.0422  0.0994
81638W        W24629  25.903  15.286   5.740 -0.0808 -0.0190  0.0152
81639W        W24630  13.258   2.581  27.616 -0.0525 -0.2772  0.2255
81640W        W24631  17.172   1.718  10.672 -0.1410 -0.0577  0.2770
81641W        W24632  30.890  28.515  22.564 -0.2061  0.0888 -0.3426
81642W        W24633   9.946  19.078  15.628 -0.1475  0.3462 -0.1942
81643W        W24634  30.022  29.540  17.206 -0.2921 -0.3535 -0.2035
81644W        W24635  11.503  27.896  22.736  0.1308  0.1050 -0.2559
81645W        W24636  11.503   4.194   2.053 -0.4448  0.0044 -0.0002
81646W        W24637  17.705   1.947   4.294 -0.0192 -0.1335 -0.1063
81647W        W24638  16.144  15.415  26.048 -0.0874  0.0421 -0.2494
81648W        W24639  26.385  32.550   6.028 -0.1268 -0.0875  0.1164
81649W        W24640  19.165  15.571  24.325 -0.2090 -0.0273 -0.0891
81650W        W24641  18.794  18.990   7.346  0.0992  0.0398  0.1984
81651W        W24642  12.578   6.149   9.337 -0.1833 -0.0392  0.1807
81652W        W24643   3.342   1.423  27.067  0.1284 -0.3382 -0.0400
81653W        W24644  32.505  30.943  22.574  0.1233 -0.0276 -0.0102
81654W        W24645   1.932  26.024   8.038 -0.1894 -0.1919  0.1213
81655W        W24646  24.139  30.287  19.750 -0.0873  0.0352 -0.1141
81656W        W24647  18.752  32.316  19.309 -0.1582 -0.2526  0.1201
81657W        W24648   3.117  23.603   0.674  0.1609  0.2189 -0.1444
81658W        W24649  24.084  32.363  13.867 -0.0128 -0.1259 -0.1180
81659W        W24650   0.983  17.757   7.602  0.2675 -0.2729  0.0861
81660W        W24651  15.269  15.581  14.025  0.1163 -0.0190 -0.0201
81661W        W24652  30.136  19.720  26.628  0.0093  0.0555  0.1142
81662W        W24653   3.710  28.130  16.838  0.0462  0.2396  0.0410
81663W        W24654   0.477  22.395  14.863  0.4407  0.1756  0.1963
81664W        W24655  15.735  34.727  14.332  0.1080 -0.2629  0.4217
81665W        W24656  21.867  27.005   5.746 -0.0879 -0.2057 -0.3462
81666W        W24657   2.833  31.280  17.174 -0.1831  0.1713  0.1290
81667W        W24658  17.316   0.726  25.785  0.0482  0.1341 -0.0801
81668W        W24659  17.732  31.546   0.944 -0.0723 -0.1095 -0.3226
81669W        W24660   2.355  21.859   0.771  0.3635  0.1362  0.1950
81670W        W24661   8.850  11.296   0.374  0.1155 -0.1461  0.2130
81671W        W24662  13.019  21.848   0.813  0.2863 -0.2479 -0.2881
81672W        W24663  11.567  25.674  28.959 -0.0311  0.0052 -0.1201
81673W        W24664   7.211   6.607   4.285 -0.1719  0.0351 -0.0160
81674W        W24665   7.180   0.433  16.214 -0.1731  0.2083 -0.1792
81675W        W24666  18.738  34.586  26.557 -0.0493 -0.3609 -0.0824
81676W        W24667   9.112  19.715   1.884 -0.0106 -0.0289 -0.1332
81677W        W24668  33.661  32.493  21.298  0.2302  0.0011  0.1231
81678W        W24669  31.484  31.420   5.544  0.2149 -0.0636 -0.1611
81679W        W24670  20.805  17.424   3.609 -0.2740 -0.0551  0.0603
81680W        W24671   8.763  23.359   5.062  0.1512 -0.0657  0.0649
81681W        W24672   7.675  25.412  27.295 -0.0782 -0.0818 -0.0571
81682W        W24673  31.021  26.746  12.933 -0.2628  0.0237  0.1590
81683W        W24674  12.411   0.867   3.909 -0.0142 -0.3811 -0.1385
81684W        W24675  24.380  23.719  20.961 -0.0695  0.0141  0.1419
81685W        W24676  24.525   6.014  14.426  0.3148 -0.0941 -0.0934
81686W        W24677   9.273   1.349  25.529  0.1237  0.1076 -0.0113
81687W        W24678  33.258  25.175  17.211 -0.1171  0.2103 -0.2245
81688W        W24679  19.423  28.388   1.983  0.0307 -0.2898 -0.2723
81689W        W24680  19.257  28.420  22.110  0.1327  0.1941 -0.1022
81690W        W24681  11.761   3.269  26.574  0.2998  0.2487  0.3424
81691W        W24682  24.583  22.246   7.448  0.1179  0.1099 -0.0483
81692W        W24683   3.389   7.012  23.912  0.1413 -0.0929 -0.0048
81693W        W24684  18.553  29.627  23.977 -0.3218  0.2079 -0.2059
81694W        W24685  19.647   6.566   2.078 -0.2686  0.3528 -0.0683
81695W        W24686   4.737   7.574   3.199  0.1282 -0.2516 -0.0838
81696W        W24687  24.622  30.622  18.785 -0.0676 -0.1439  0.0889
81697W        W24688   3.295  32.860   7.627  0.0335  0.0004  0.1447
81698W        W24689   1.719   0.447  28.712 -0.0954 -0.1635  0.0286
81699W        W24690  21.035   2.282  18.147  0.1358 -0.0774  0.0862
81700W        W24691   6.811   0.746   4.021 -0.2439  0.2254  0.0724
81701W        W24692  16.918  14.930   6.522  0.3534 -0.1118  0.1608
81702W        W24693  22.619  26.512   0.411  0.0412 -0.0797 -0.1793
81703W        W24694  32.019   5.751  26.306 -0.2576 -0.1021 -0.3568
81704W        W24695  20.287  25.818   3.478  0.2120  0.0060  0.2706
81705W        W24696  29.582   2.463   9.368 -0.1517 -0.2072 -0.2817
81706W        W24697  17.548  27.013  24.322 -0.0793 -0.0929  0.0339
81707W        W24698  15.572  31.171   8.828 -0.1904 -0.3318  0.0819
81708W        W24699   8.939   6.870   9.623  0.2167  0.3094 -0.0245
81709W        W24700  33.397  26.956  19.765  0.6205 -0.0525  0.1621
81710W        W24701  33.772  18.143   4.870  0.4507  0.0798  0.2826
81711W        W24702  22.122  22.840  21.070 -0.0707 -0.1045 -0.3537
81712W        W24703  33.546   9.198  23.716 -0.0604 -0.1200  0.0625
81713W        W24704  29.572  31.393   4.781  0.0712 -0.1160 -0.1376
81714W        W24705   0.389  30.961  16.666 -0.0426 -0.2411  0.1390
81715W        W24706  13.820  19.555  27.541  0.1418  0.1675  0.2251
81716W        W24707  17.798  30.516  26.349 -0.0032 -0.0061  0.1636
81717W        W24708  11.079   4.367   7.765 -0.2256  0.1888  0.0981
81718W        W24709   2.539   8.230  28.053  0.1017 -0.2001 -0.0406
81719W        W24710  19.681  14.990  18.922  0.1486  0.1959  0.0080
81720W        W24711   4.617  31.509   4.688  0.2536  0.1353  0.0889
81721W        W24712  27.399   0.589  20.473  0.1603 -0.1769 -0.0498
81722W        W24713  13.681  33.419  20.292  0.4704  0.0301  0.3006
81723W        W24714   3.883  10.646  11.528  0.0609 -0.0884  0.2077
81724W        W24715  29.548  33.067   1.160 -0.0079  0.1390  0.1235
81725W        W24716  22.487  32.154   0.361  0.2834  0.1720  0.0585
81726W        W24717  24.837  20.242  14.658 -0.1048  0.0591  0.0943
81727W        W24718  26.493   7.679  20.746  0.0442 -0.1130 -0.0631
81728W        W24719  18.039  28.084   3.792  0.2060 -0.0917  0.1566
81729W        W24720   3.516  29.902  15.956  0.1109  0.0271  0.2753
81730W        W24721   7.665  22.595  20.801  0.1202  0.0266 -0.0538
81731W        W24722   1.211   2.422   3.575 -0.0424  0.0756 -0.3031
81732W        W24723  19.745  19.496  25.468  0.0674  0.2810 -0.0957
81733W        W24724   6.630  27.877   3.476  0.3356  0.0403 -0.2149
81734W        W24725  18.192  23.291   5.919  0.1223  0.3099  0.0764
81735W        W24726   1.339   0.098  27.016 -0.1280 -0.1726  0.0771
81736W        W24727  11.865  17.706  17.698  0.0679  0.1456  0.0587
81737W        W24728  13.652  22.283   3.670 -0.1953 -0.3188 -0.2515
81738W        W24729  19.849  22.348  26.266 -0.1146 -0.1598 -0.2897
81739W        W24730  24.010  13.973   5.055  0.1247  0.0516  0.1979
81740W        W24731   7.244  16.698  15.733  0.1382 -0.6224  0.0386
81741W        W24732  24.969   0.140  26.903  0.1072 -0.0012 -0.2488
81742W        W24733  22.486  29.397  23.659 -0.1626  0.2333  0.0054
81743W        W24734  17.723  27.594   3.478 -0.1199 -0.1169  0.0896
81744W        W24735  17.988   8.027   6.577 -0.3309 -0.4411 -0.0941
81745W        W24736  19.289  26.763  23.546 -0.3585 -0.0277 -0.0355
81746W        W24737  26.651  17.116   6.315  0.0373  0.2755 -0.3893
81747W        W24738   0.126  25.438   2.776  0.0685 -0.1325  0.2125
81748W        W24739  11.546  11.730   7.318  0.1768  0.0085  0.1075
81749W        W24740   8.829  20.757  26.463 -0.1630  0.2036 -0.0669
81750W        W24741  17.356  30.438  16.846 -0.3007  0.0251 -0.0662
81751W        W24742  14.425  24.095   4.339 -0.1532 -0.0191 -0.1273
81752W        W24743  10.559  32.310  28.570 -0.2049  0.2980 -0.3887
81753W        W24744  19.823   9.081  22.940  0.1940 -0.0192  0.3703
81754W        W24745  15.370   4.435  27.585  0.0620 -0.3423  0.0911
81755W        W24746  19.900  33.699   3.385  0.1908 -0.0929 -0.3865
81756W        W24747  11.854  19.533  22.147  0.4660 -0.4689 -0.0843
81757W        W24748  21.786  34.086  26.498  0.2840  0.0679  0.2450
81758W        W24749  16.591  29.436   9.246 -0.0402  0.2322 -0.2199
81759W        W24750  15.338  32.126  22.839 -0.2570 -0.3073  0.3480
81760W        W24751  10.797  20.252   2.264 -0.1270  0.0728  0.1113
81761W        W24752  18.262  33.532  23.962  0.1771  0.1587  0.3239
81762W        W24753  28.365   5.009  23.443  0.0515 -0.0305  0.2069
81763W        W24754  30.745  22.889   2.487 -0.1577  0.0783  0.1061
81764W        W24755   0.150  18.682  29.091  0.2324 -0.0359  0.4153
81765W        W24756   3.683   2.341  17.123  0.1274  0.1326 -0.0807
81766W        W24757  11.904  29.295   7.136 -0.2533 -0.0246  0.1150
81767W        W24758  18.272  24.614  20.660 -0.0544 -0.0464 -0.1785
81768W        W24759  27.774  34.077  28.517  0.3753 -0.0019 -0.0907
81769W        W24760  29.595  18.354   1.554 -0.0641  0.1862 -0.0095
81770W        W24761  15.415  10.787   0.359 -0.0662  0.2363  0.2377
81771W        W24762   5.435  24.976  24.214  0.2203 -0.1126  0.0080
81772W        W24763  31.838   2.646  24.544  0.1014 -0.2039 -0.0833
81773W        W24764  19.490  25.683  22.544 -0.1531  0.2949 -0.2547
81774W        W24765  18.290  27.572   5.227 -0.1542 -0.2016  0.0597
81775W        W24766  15.503  21.697  23.915  0.0826 -0.1253 -0.0052
81776W        W24767  11.829  29.214  24.883 -0.1221 -0.2118 -0.3391
81777W        W24768   7.752  15.574  22.765  0.1505  0.0191 -0.1026
81778W        W24769  23.357  26.589  18.323  0.2470 -0.1256  0.0643
81779W        W24770  22.004   8.262  22.865 -0.0619 -0.1208 -0.1058
81780W        W24771  33.392  31.259   1.645 -0.2405  0.2579  0.1417
81781W        W24772  16.601  26.842  13.807  0.1573 -0.0587 -0.2365
81782W        W24773  34.123  25.671  25.107  0.0403  0.1812 -0.1361
81783W        W24774  23.502  34.640   0.568  0.0520  0.1449 -0.0301
81784W        W24775  26.301  11.965   2.811 -0.0532 -0.1320 -0.0225
81785W        W24776  20.595  29.552   7.113 -0.3195  0.1599  0.1453
81786W        W24777  31.922  33.285  15.159 -0.0461  0.2943 -0.2527
81787W        W24778   6.542   1.653  17.142  0.0409 -0.0312 -0.4611
81788W        W24779   9.754  30.807  29.145 -0.3017  0.1435 -0.0100
81789W        W24780  15.824   5.264  24.781  0.2027 -0.0367 -0.2373
81790W        W24781   5.838   4.911   3.773 -0.1315 -0.0460  0.2506
81791W        W24782   8.159  26.511   9.204 -0.1136 -0.3185  0.0230
81792W        W24783  10.179  26.399  27.696  0.4643  0.2325  0.1476
81793W        W24784  18.041  34.455  20.567 -0.1887 -0.0950  0.1316
81794W        W24785   2.563  26.959  24.446 -0.3258  0.2412 -0.1979
81795W        W24786   9.609  28.229  20.925 -0.5010 -0.2402  0.0594
81796W        W24787  31.991  33.699  21.348  0.1201  0.0539 -0.1076
81797W        W24788  23.851   3.598  17.138  0.2501 -0.1262 -0.1047
81798W        W24789  24.388  21.472   5.045  0.1194 -0.1345 -0.3709
81799W        W24790  15.217   6.176  19.055  0.0996  0.2387 -0.0468
81800W        W24791  12.493  24.808  18.413 -0.3257 -0.0912 -0.1874
81801W        W24792   0.968  34.056   3.908 -0.0600  0.3123 -0.0536
81802W        W24793  19.036   6.650  27.322 -0.2097 -0.0021 -0.2244
81803W        W24794  18.621  11.929   6.239 -0.3250  0.1205  0.0560
81804W        W24795  17.639  31.246  21.833  0.0712 -0.1413  0.1149
81805W        W24796  15.455   7.232  26.273 -0.1948  0.2280 -0.1288
81806W        W24797  13.105  24.299  19.126  0.1807  0.0399  0.0384
81807W        W24798  27.788  16.634   4.579 -0.3053  0.1096  0.0674
81808W        W24799  19.428  25.853   1.604 -0.1658 -0.2013 -0.0117
81809W        W24800  18.645  32.654   8.659  0.1476 -0.2328 -0.2440
81810W        W24801  34.493   0.809   0.910 -0.3561  0.0940  0.0019
81811W        W24802  26.856  25.918  22.037  0.3173  0.0385 -0.2840
81812W        W24803  13.905  33.815  26.081 -0.0062  0.3226  0.0195
81813W        W24804   0.913  25.352  27.404  0.1774  0.0371  0.2306
81814W        W24805  18.373  25.820  27.276  0.1949 -0.0171  0.1662
81815W        W24806   5.744  29.511  25.381  0.1889 -0.2839 -0.1534
81816W        W24807  23.488  21.872  26.619  0.1662 -0.1875  0.1891
81817W        W24808  28.316   4.794   9.286 -0.3041  0.0540  0.2073
81818W        W24809   7.776  33.890  20.624  0.0752 -0.2459 -0.3613
81819W        W24810   4.489  28.962  22.194 -0.2547  0.0420 -0.0119
81820W        W24811  13.881  31.004   6.824 -0.0496  0.1891 -0.0827
81821W        W24812  26.135  26.670   0.023  0.2705  0.6066 -0.1839
81822W        W24813  25.119   0.303  20.927 -0.1221 -0.0379  0.0238
81823W        W24814  15.537  20.854  28.720 -0.0679 -0.1923  0.1211
81824W        W24815  14.402  31.268  27.290  0.3580 -0.0801  0.0734
81825W        W24816   3.550  30.555   4.301 -0.3319 -0.2526 -0.0517
81826W        W24817  16.205  31.710  24.733 -0.1291  0.4155 -0.1528
81827W        W24818  26.077  34.597  16.797 -0.0190 -0.1361  0.3093
81828W        W24819  18.807  10.848  28.374  0.3201 -0.0398 -0.0432
81829W        W24820  33.544  31.861  23.631  0.4781  0.1214  0.0672
81830W        W24821  23.355   3.939   4.755  0.2599 -0.5262  0.2769
81831W        W24822  26.473  34.792   8.599  0.0247  0.3989 -0.0965
81832W        W24823  16.538  26.532  28.602  0.1925  0.0308 -0.1242
81833W        W24824   3.486   1.155  24.895  0.1144 -0.0952  0.0660
81834W        W24825   7.354  25.364   3.438  0.1264 -0.1156  0.0157
81835W        W24826  21.429   0.028  26.996  0.0696  0.2207  0.1251
81836W        W24827  23.300   0.070   3.308 -0.0704  0.2101 -0.0269
81837W        W24828  15.849  28.063  26.860  0.6479 -0.1962  0.0819
81838W        W24829  14.434  30.872   0.746 -0.2418 -0.1308  0.0131
81839W        W24830  28.389  28.760  28.136  0.0689  0.0737 -0.2358
81840W        W24831  25.650  29.341  16.710  0.0818  0.3113  0.3795
81841W        W24832   2.226  26.533  24.186 -0.1906 -0.1196  0.3596
81842W        W24833  16.555  31.069   4.393  0.1063 -0.1241 -0.1977
81843W        W24834  13.540  17.126  15.091  0.1189 -0.1833 -0.0137
81844W        W24835  31.386  14.514   8.102 -0.0735 -0.1228 -0.0231
81845W        W24836  21.326   8.697  27.578 -0.1425  0.0553  0.2219
81846W        W24837  16.348  32.231  25.384 -0.0294  0.2372  0.1788
81847W        W24838  19.439   5.307   1.798 -0.0271 -0.0347 -0.1130
81848W        W24839  26.830  16.899   5.381  0.1150 -0.0358  0.1998
81849W        W24840  15.722   0.458   1.180 -0.1579  0.0676 -0.2036
81850W        W24841   9.276   9.244  22.851 -0.1060  0.4143 -0.1974
81851W        W24842  12.741  30.139   7.205 -0.1468 -0.0560  0.2323
81852W        W24843  26.473   0.821  29.090 -0.0691 -0.0379 -0.1422
81853W        W24844   2.195  32.914  15.333  0.2811 -0.2072 -0.3376
81854W        W24845  10.242   8.829   2.192 -0.2187  0.0741  0.0660
81855W        W24846   6.966  19.810  23.283 -0.1284 -0.0789  0.0670
81856W        W24847  28.242  22.518  21.934  0.1391 -0.0705  0.1560
81857W        W24848  20.388  22.674  25.265 -0.2622 -0.0791 -0.0712
81858W        W24849  21.672  22.587   3.699 -0.0522  0.0990  0.1458
81859W        W24850   1.255  23.902  22.744  0.1979  0.0912  0.1249
81860W        W24851  13.572   2.009  26.082 -0.1081 -0.4100 -0.2122
81861W        W24852   8.777  17.239  27.198 -0.0380 -0.0372  0.1772
81862W        W24853  11.826  16.997  27.312 -0.2419 -0.0641  0.0566
81863W        W24854   9.286  11.285   4.694 -0.0772 -0.1110  0.0480
81864W        W24855  18.559  32.925   2.584  0.1968  0.0055 -0.2519
81865W        W24856  33.213  28.874  24.191 -0.1884 -0.1239 -0.0111
81866W        W24857  20.613   9.147  14.944  0.2448 -0.1088 -0.1575
81867W        W24858   3.984  20.124   5.551 -0.2383 -0.0156 -0.1930
81868W        W24859  17.868  22.355   0.455  0.1107 -0.0378  0.0733
81869W        W24860  10.537  34.019   7.361 -0.1432  0.0236  0.0190
81870W        W24861  31.079   6.504  28.061 -0.5057 -0.0452 -0.2301
81871W        W24862  25.963   1.834   5.992 -0.0932 -0.0073  0.0560
81872W        W24863   8.844  28.119  25.428  0.2782  0.2382 -0.0490
81873W        W24864   1.281   0.753   5.767 -0.0802 -0.1771 -0.2789
81874W        W24865  18.576  32.344   9.606  0.2788 -0.1978  0.1356
81875W        W24866  22.874  21.683  24.762  0.0454 -0.3492 -0.0456
81876W        W24867  17.170  29.522   2.173 -0.0274  0.0639  0.0433
81877W        W24868  20.632  22.708  22.439  0.0540  0.0485  0.1871
81878W        W24869   8.045  32.185  23.770 -0.1614 -0.2826  0.3101
81879W        W24870  20.111  15.690  27.817 -0.0265 -0.0795  0.3703
81880W        W24871   3.392  22.726  15.956  0.1275  0.2022 -0.1274
81881W        W24872  26.102   2.961   3.414  0.0583  0.1272 -0.2336
81882W        W24873  17.597  25.713  23.291  0.0851 -0.1042  0.0284
81883W        W24874   8.978  29.665   5.132  0.1146 -0.0711  0.1620
81884W        W24875  29.252  19.270   0.479  0.1552 -0.0569 -0.0525
81885W        W24876   0.496  29.293  28.498  0.1608  0.1563  0.2477
81886W        W24877  23.064  32.631   6.825 -0.0408 -0.0615 -0.1913
81887W        W24878   5.495  22.361  13.930 -0.0918  0.1392  0.0608
81888W        W24879  28.030  32.685   6.638  0.1475 -0.3758  0.1352
81889W        W24880  14.022   3.744  11.035  0.0206  0.0273 -0.0147
81890W        W24881  25.817   0.482  23.145 -0.2063  0.0749  0.2980
81891W        W24882   7.786  27.361   3.815  0.0401 -0.0694  0.1125
81892W        W24883  30.116  14.000  24.591 -0.0155  0.3474  0.1694
81893W        W24884  11.109  17.904   7.127 -0.1236  0.3975 -0.3197
81894W        W24885   8.842  23.230  24.379 -0.1465  0.3261  0.0484
81895W        W24886  21.143  32.007   4.997 -0.2810  0.0323 -0.2757
81896W        W24887  20.446  19.676  26.528 -0.0803  0.1018 -0.2565
81897W        W24888  11.530   2.528  22.328 -0.0668 -0.0720  0.2628
81898W        W24889   1.002  24.333   2.752  0.0461 -0.0506 -0.0343
81899W        W24890  21.244  17.288   1.517  0.1522  0.0482 -0.2593
81900W        W24891   8.005  31.738  28.142 -0.1006 -0.0056 -0.1130
81901W        W24892   8.375  33.009  16.582  0.1653  0.1244 -0.1019
81902W        W24893  22.722   4.393  22.366 -0.0146  0.2405 -0.0291
81903W        W24894  23.218  26.960  21.705  0.0350  0.1611 -0.0791
81904W        W24895  22.332  17.062   0.740 -0.0806  0.0955 -0.0730
81905W        W24896  17.555   4.499   3.560 -0.1688 -0.0840 -0.0980
81906W        W24897  10.153  15.675  16.927 -0.1976  0.2608 -0.1503
81907W        W24898  34.307  22.787  25.305 -0.1810  0.0883 -0.2503
81908W        W24899  31.250   1.500   0.303  0.1426 -0.0745 -0.0268
81909W        W24900  11.959  20.021  12.818 -0.2048  0.0282 -0.1645
81910W        W24901   2.635  32.881  23.505  0.2119 -0.0265  0.5695
81911W        W24902   8.579  30.369  22.676  0.0308 -0.0534  0.2527
81912W        W24903  13.072  32.432  27.541  0.3324 -0.0489  0.2214
81913W        W24904   4.823   0.833  15.334  0.0199  0.0261  0.0531
81914W        W24905   4.140   0.001  15.542  0.0630  0.0742  0.2980
81915W        W24906  15.747  25.958  16.485 -0.0651  0.0110 -0.1039
81916W        W24907  27.864  31.182  18.182 -0.0989  0.1643 -0.2758
81917W        W24908   5.370   1.639  18.352  0.1218  0.1617  0.0141
81918W        W24909  20.443  16.966  15.279 -0.4076 -0.0834  0.0568
81919W        W24910   0.764  12.805  23.080  0.0849 -0.1810 -0.2459
81920W        W24911   7.416  10.810   0.455  0.0197 -0.0744 -0.3718
81921W        W24912  11.422   6.409  24.300  0.2315 -0.2401  0.4149
81922W        W24913  14.677  29.649  23.178 -0.0241  0.1960 -0.0431
81923W        W24914  26.201  25.560  14.684  0.3235 -0.0113  0.1861
81924W        W24915   4.818   2.673  21.119  0.3241  0.0843 -0.0172
81925W        W24916   7.112   8.431  28.142 -0.1497 -0.0748  0.1883
81926W        W24917  20.075  26.367  14.302  0.1618  0.0470 -0.1234
81927W        W24918  22.204  24.455  19.433 -0.3368 -0.0863  0.2279
81928W        W24919  10.046   1.947  14.916  0.3469 -0.0900  0.2866
81929W        W24920  20.103  29.873  18.896 -0.0953  0.1343  0.0689
81930W        W24921   7.965  15.983  18.706 -0.0673 -0.3342  0.2509
81931W        W24922  16.327   1.324  19.734  0.0737 -0.1508  0.0242
81932W        W24923  16.189   1.084  16.118  0.0588  0.2897  0.2354
81933W        W24924  34.331   9.046  19.818 -0.1660 -0.0988  0.0117
81934W        W24925   7.890  27.049  17.242  0.0337 -0.0861 -0.2782
81935W        W24926  32.884   7.555   1.206 -0.1012  0.0259  0.0524
81936W        W24927  23.165  27.312  19.193 -0.0611  0.3502  0.1915
81937W        W24928   3.595  30.363  18.826  0.4879 -0.3167 -0.0071
81938W        W24929  10.337  19.374  16.553  0.0173 -0.1085  0.0868
81939W        W24930  21.472   6.870  20.973 -0.3786 -0.5185 -0.1594
81940W        W24931  10.828  33.569  17.969 -0.0418 -0.1525 -0.1237
81941W        W24932  20.382  24.847  19.351  0.2811  0.2230 -0.2599
81942W        W24933  28.504  30.125  16.234  0.1659 -0.1362 -0.1179
81943W        W24934  25.414  15.932  17.862  0.1434  0.3112 -0.1245
81944W        W24935  22.853   9.362  20.433 -0.1810 -0.1864  0.1892
81945W        W24936   3.711  32.270  22.888  0.2432  0.0426 -0.2482
81946W        W24937  11.554  26.881  20.419 -0.3627 -0.1083 -0.0226
81947W        W24938  23.940  14.898  16.830 -0.1667  0.1025  0.2390
81948W        W24939   5.102  14.995  16.671 -0.2865 -0.1022 -0.0582
81949W        W24940  12.390  25.218  14.554 -0.0340  0.1765  0.0292
81950W        W24941   6.490  19.267  16.938  0.1901  0.3159 -0.0831
81951W        W24942  33.107   6.682  18.880  0.0326  0.1716 -0.3988
81952W        W24943  18.900  20.321  14.623  0.2139  0.3786 -0.0505
81953W        W24944  32.399  12.541  17.699  0.0089  0.2046  0.1587
81954W        W24945  25.975   1.067  17.199 -0.1633 -0.0232  0.0345
81955W        W24946   7.243  25.499  20.301 -0.2225 -0.1141  0.3951
81956W        W24947  14.128   5.010  20.110 -0.3125 -0.1382 -0.1135
81957W        W24948  30.584  27.593  15.366 -0.0377  0.1239 -0.3084
81958W        W24949   0.383  23.626  18.583  0.1822  0.0881  0.1726
81959W        W24950  28.081  22.352  25.027  0.2481  0.0315 -0.1663
81960W        W24951  25.369  19.523  18.621 -0.2598  0.1014 -0.0144
81961W        W24952  28.236  31.456  17.332  0.4063 -0.2896  0.2322
81962W        W24953  15.316  10.028   1.300  0.0688 -0.0183 -0.0337
81963W        W24954  12.101  25.384  13.621 -0.1068 -0.0352 -0.1313
81964W        W24955  23.790  12.129  15.757  0.2462  0.1653 -0.2136
81965W        W24956  11.701  28.493  16.916 -0.1503  0.5213 -0.1302
81966W        W24957  17.495   0.724  18.825 -0.2605 -0.1389  0.1256
81967W        W24958  19.539   2.401  19.917  0.0271  0.1645 -0.1067
81968W        W24959  14.591   1.210  24.165 -0.1547  0.2855 -0.0085
81969W        W24960  25.616  33.916  14.406  0.1720 -0.0067  0.2636
81970W        W24961  21.078   4.290  25.605 -0.0402  0.2343 -0.2070
81971W        W24962  10.807  23.462   4.250  0.0519  0.1337  0.0364
81972W        W24963  12.812  11.695  22.247  0.3219 -0.1154  0.4458
81973W        W24964  12.087  33.446  18.896  0.0580  0.1187  0.0465
81974W        W24965  18.812   5.822  15.571  0.0940  0.1914 -0.0564
81975W        W24966  13.325  28.017  18.790  0.1931 -0.2006  0.0609
81976W        W24967  19.682  31.170  25.240 -0.2808  0.0092  0.0261
81977W        W24968  26.792   2.266  25.269 -0.1892  0.0151 -0.1868
81978W        W24969  24.457   2.727  14.302 -0.0196  0.0938 -0.4174
81979W        W24970  23.364  27.767  19.331 -0.0928  0.2189 -0.1588
81980W        W24971  29.408  13.425  25.075 -0.0765  0.2247 -0.1284
81981W        W24972  21.826  22.832  13.151 -0.0214  0.0355 -0.1872
81982W        W24973  26.168  34.120  28.364  0.1679 -0.1961 -0.2787
81983W        W24974  18.646  19.461   6.589  0.0020  0.1934 -0.3906
81984W        W24975  25.691  13.252  17.741  0.0099 -0.4009  0.0534
81985W        W24976  32.048  25.552  21.020  0.0204 -0.2042 -0.0405
81986W        W24977   7.442  34.445   0.246 -0.0213  0.1955  0.0309
81987W        W24978  13.212  26.100  22.291  0.3189  0.1276  0.0328
81988W        W24979  21.511   1.725  15.565 -0.1053  0.3877 -0.0604
81989W        W24980  23.571  24.100  23.992 -0.3287  0.2826  0.0065
81990W        W24981   5.579  28.478   6.000 -0.0861 -0.1349 -0.1612
81991W        W24982   3.773  24.815   2.942 -0.4870  0.0676 -0.2421
81992W        W24983  27.935   2.799  21.197 -0.2041 -0.0564 -0.0820
81993W        W24984  12.678  27.064   0.109  0.0844 -0.4964 -0.1076
81994W        W24985  18.289  34.102  28.429 -0.1760  0.2388 -0.3525
81995W        W24986   7.676   5.296  23.826 -0.1094 -0.2774  0.2285
81996W        W24987  17.445   2.347  15.093 -0.0764  0.1851 -0.3956
81997W        W24988  10.397  15.972  20.960  0.2707  0.2390 -0.0716
81998W        W24989  32.452   3.099  28.847  0.1904 -0.1155 -0.0781
81999W        W24990  22.073   3.680   4.259 -0.2511  0.0388  0.0883
82000W        W24991  12.199  30.697   2.092 -0.3926  0.1244 -0.3142
82001W        W24992  26.747  21.564  18.776 -0.3080 -0.1643 -0.0436
82002W        W24993  25.501   1.009  14.191  0.4537  0.1597  0.2791
82003W        W24994  13.557  12.150   5.881  0.4374  0.0568 -0.0334
82004W        W24995  10.314  30.505  19.522  0.0230  0.3275  0.1285
82005W        W24996  26.650  25.377  16.066 -0.1482  0.0568 -0.2625
82006W        W24997  29.196  28.412  26.323 -0.4540 -0.1799 -0.2354
82007W        W24998  24.727  27.731  22.810  0.0265 -0.2067 -0.2647
82008W        W24999  21.875  24.658  26.671 -0.0949  0.4040  0.0048
82009W        W25000   1.717   6.938  18.994  0.0346 -0.1148 -0.2383
82010W        W25001  21.145   3.292  19.550 -0.1880  0.1368  0.2938
82011W        W25002  28.686   0.568  22.766 -0.0952  0.1020 -0.1956
82012W        W25003  16.980  32.113  16.954  0.2154  0.1779  0.1135
82013W        W25004  22.513   3.751  22.767  0.0574  0.2241 -0.3689
82014W        W25005  22.596  11.104  16.937  0.0928 -0.0613 -0.1827
82015W        W25006  22.306  22.126  13.410  0.0217 -0.2729 -0.0891
82016W        W25007  14.939   9.777  15.123 -0.0756 -0.2236 -0.2474
82017W        W25008   1.721  31.672   0.479 -0.2027  0.1112  0.1669
82018W        W25009  29.207   5.828  20.351 -0.2670  0.1355  0.0280
82019W        W25010   9.776   3.046  19.352  0.0703 -0.3150 -0.0912
82020W        W25011  21.962  20.135  27.001 -0.0729 -0.0404 -0.2368
82021W        W25012   4.249   5.040  15.696  0.0387  0.3916 -0.0385
82022W        W25013  12.919  32.120  14.732 -0.1666 -0.4408  0.0966
82023W        W25014   6.413   0.454  18.353 -0.0305  0.0818 -0.0852
82024W        W25015  19.751  34.688  26.782  0.2535  0.3447  0.2208
82025W        W25016   9.775   9.036  26.540 -0.0813 -0.1092 -0.1517
82026W        W25017  32.310  28.996  21.208 -0.0062 -0.0936  0.1779
82027W        W25018  11.146  30.977  15.010  0.1545 -0.2533 -0.0433
82028W        W25019  21.324  28.615  22.198  0.2663 -0.0221  0.1090
82029W        W25020  13.244   4.158   6.633  0.1471  0.0753  0.0963
82030W        W25021   2.417   1.982  26.606  0.0321 -0.5853 -0.0687
82031W        W25022  15.603   4.877  23.926  0.0309 -0.1452 -0.1112
82032W        W25023  14.084   9.421  25.776  0.2712 -0.0495 -0.0652
82033W        W25024  14.463  28.169  19.825 -0.2035  0.0188 -0.3197
82034W        W25025  11.261   1.041  23.039  0.3237 -0.1310 -0.1469
82035W        W25026  11.308  18.313  25.925  0.0675  0.2097 -0.0308
82036W        W25027  16.558  26.204   3.432 -0.2434  0.0099 -0.2191
82037W        W25028   0.055  32.311   8.849 -0.2314  0.0698  0.0739
82038W        W25029  23.954   0.924  21.746 -0.0745  0.0779  0.1516
82039W        W25030  19.285   6.598  28.232 -0.1478 -0.2530  0.1173
82040W        W25031  24.818  26.889   0.241 -0.0531 -0.0938 -0.0012
82041W        W25032   4.997  33.863  17.545 -0.0457 -0.4549 -0.0214
82042W        W25033  11.309   2.288  16.473  0.0991 -0.2369 -0.0363
82043W        W25034  15.046  16.166  12.214  0.0390 -0.0978  0.0427
82044W        W25035  20.226  31.217  20.328 -0.4142  0.1128  0.1214
82045W        W25036   4.318   1.498  18.127  0.1034  0.0458  0.1479
82046W        W25037  33.293  29.704  16.785 -0.2913 -0.0398  0.0894
82047W        W25038   2.710  18.945  17.168 -0.4532 -0.2227  0.2213
82048W        W25039  12.556  22.387   0.836 -0.2717 -0.1627 -0.0838
82049W        W25040  17.192  24.595  27.709  0.0515 -0.1812  0.0344
82050W        W25041  22.470  11.521  14.643 -0.1505  0.1290 -0.1208
82051W        W25042  14.360  28.552  20.783  0.2990  0.0624  0.3553
82052W        W25043   8.207   2.948  20.742 -0.3595  0.2860 -0.1601
82053W        W25044  11.272  11.590  17.647  0.2634 -0.0403 -0.1645
82054W        W25045   4.843  33.454  24.632 -0.0439  0.0936 -0.1361
82055W        W25046  14.748  29.677  14.493  0.0701  0.1640 -0.0947
82056W        W25047   6.108  18.316  23.416  0.0295 -0.3402  0.2043
82057W        W25048  22.495  25.102   2.840  0.2938  0.0042 -0.1799
82058W        W25049  27.199  29.704  17.043 -0.0165  0.0288 -0.3981
82059W        W25050  28.959  26.890  15.310 -0.1782  0.6020 -0.0260
82060W        W25051  26.314  28.974  13.292  0.1006 -0.0858  0.0030
82061W        W25052  33.185  31.795  23.991  0.1674  0.2424 -0.2803
82062W        W25053   8.237  31.749  23.823  0.1734  0.1579 -0.3416
82063W        W25054  13.641   5.493   1.329 -0.3642 -0.0387  0.1463
82064W        W25055  23.270  14.334  13.788  0.0806 -0.0868 -0.1260
82065W        W25056  15.344  23.240   2.792 -0.1212 -0.3063  0.0972
82066W        W25057  32.071   5.131  19.424 -0.1984 -0.1631 -0.1895
82067W        W25058   6.620  12.014  27.576  0.0058  0.0810  0.2372
82068W        W25059  20.117  21.562   5.050 -0.2958 -0.0023  0.0316
82069W        W25060   8.132  18.391  28.803 -0.0095 -0.1714 -0.0542
82070W        W25061   9.745  31.509  21.175  0.0790 -0.1422 -0.0708
82071W        W25062  29.526  14.111   1.155  0.6620  0.5039 -0.2343
82072W        W25063  14.302  30.484  15.818  0.1795 -0.0304 -0.2278
82073W        W25064  12.014  10.909  24.590  0.2922  0.0605 -0.2442
82074W        W25065  30.007  26.153  13.367  0.0173 -0.2964 -0.1778
82075W        W25066   7.623  23.536  24.647 -0.0071 -0.2159 -0.2814
82076W        W25067  23.100  12.646  17.945  0.2990 -0.2440 -0.0861
82077W        W25068  10.827  18.127  20.906  0.4078 -0.1160 -0.3251
82078W        W25069   7.620   9.130  20.828 -0.3309 -0.5139  0.4969
82079W        W25070  20.003  16.599  15.650 -0.0768  0.0667 -0.0466
82080W        W25071  26.358   3.767  16.388  0.0139  0.0999 -0.0582
82081W        W25072  28.647  33.962  17.841 -0.0440  0.1941  0.0743
82082W        W25073  10.148  10.594  20.956 -0.2015  0.2231 -0.0313
82083W        W25074  19.182   2.561  21.256 -0.0532  0.0040  0.0333
82084W        W25075  33.824  15.787  19.654  0.1195  0.2260 -0.3811
82085W        W25076  13.504  31.310   1.684 -0.0379 -0.0135  0.1747
82086W        W25077   4.158  30.231  20.274 -0.0114  0.2501 -0.0153
82087W        W25078   5.928  24.367  26.140  0.0513 -0.0526  0.1559
82088W        W25079   0.455  23.543  16.785  0.2203  0.0414 -0.0058
82089W        W25080  12.322  24.074  15.881 -0.0255 -0.4376 -0.0163
82090W        W25081  27.674   2.065  25.177  0.1633 -0.1177 -0.3417
82091W        W25082  16.647  29.115  16.792 -0.2457  0.1928  0.1167
82092W        W25083   5.009  33.777   3.346 -0.1204 -0.2725 -0.0133
82093W        W25084  17.323   6.169  25.835 -0.1117 -0.2004 -0.0665
82094W        W25085  10.029  25.190  22.818  0.0895  0.0237  0.1073
82095W        W25086   7.694   9.254  18.982  0.0098  0.2835  0.2541
82096W        W25087  19.072   1.734  22.512 -0.2665  0.2426  0.0423
82097W        W25088  19.642   4.282   1.078  0.1514  0.0897 -0.2242
82098W        W25089  17.532  25.884  20.330  0.1150  0.1031  0.0381
82099W        W25090   3.039   2.841  27.424  0.1576 -0.3698  0.1470
82100W        W25091  23.454  27.584  14.310 -0.3257 -0.2987  0.2586
82101W        W25092  32.080   3.175  16.551  0.1574 -0.1200 -0.3109
82102W        W25093  17.348   0.026  28.652 -0.1417  0.1268 -0.1368
82103W        W25094  18.165  27.119  21.215  0.2721 -0.0347 -0.0573
82104W        W25095   6.432  11.010   0.329 -0.2844 -0.1412 -0.0927
82105W        W25096  19.942   1.711   4.059  0.2076  0.0813 -0.0151
82106W        W25097  30.401  33.077   0.940  0.0497 -0.2175 -0.3892
82107W        W25098  11.777  31.973  21.308 -0.0554  0.0804  0.0297
82108W        W25099  25.018  20.978   4.712 -0.2033 -0.1718  0.1066
82109W        W25100  12.617  10.939  16.389  0.0546  0.3363 -0.1332
82110W        W25101  10.770   8.150  26.845  0.4658  0.1910 -0.0486
82111W        W25102   9.330  32.110  17.116 -0.0839  0.0074 -0.3136
82112W        W25103  20.474   4.086  24.101 -0.1389 -0.0059 -0.0026
82113W        W25104   9.239  27.869  19.770  0.0056 -0.0948 -0.1601
82114W        W25105  28.476   0.005  15.423  0.0925 -0.0838 -0.0984
82115W        W25106  10.983  12.144  23.893 -0.0486 -0.2267 -0.1032
82116W        W25107   6.310  32.140   1.969  0.1016 -0.1440 -0.0141
82117W        W25108  15.974  31.944  15.349 -0.5063  0.2632  0.2466
82118W        W25109  25.572   5.876  23.777 -0.0891  0.1598  0.1198
82119W        W25110   4.169  32.774  14.577  0.0281  0.0750  0.0350
82120W        W25111  17.612  27.716  27.457  0.4723 -0.2316 -0.0912
82121W        W25112  15.377   8.949  17.364  0.2618 -0.2766  0.1631
82122W        W25113  22.452   6.716  23.645  0.1697  0.1767 -0.2550
82123W        W25114  26.768   0.818  24.838 -0.3398  0.1352  0.0303
82124W        W25115  14.147   1.770  15.816  0.2943  0.1596 -0.0748
82125W        W25116  15.116  17.776  14.866  0.2792  0.1186  0.1303
82126W        W25117   7.793   0.354   8.563  0.0636  0.3716  0.1299
82127W        W25118  24.487   5.085  13.386  0.0562  0.0200 -0.1272
82128W        W25119  17.181   1.821  21.741 -0.1222 -0.0486 -0.0798
82129W        W25120  24.069   4.457  22.341 -0.0667  0.0124  0.1624
82130W        W25121  13.475   6.683  25.296  0.3323  0.1353 -0.0875
82131W        W25122  23.265  31.814  13.789  0.1017  0.3888  0.2751
82132W        W25123  14.428  27.321   2.594 -0.1176  0.1899 -0.0096
82133W        W25124  18.078  27.672  14.202 -0.0161 -0.0159 -0.0481
82134W        W25125   9.303   9.930  21.091  0.2523  0.0778  0.1078
82135W        W25126  28.308  31.568   5.338 -0.1229 -0.0645 -0.0268
82136W        W25127  22.781  28.155  27.858  0.4297  0.2017  0.0205
82137W        W25128   7.546  26.309  18.766 -0.2129  0.1294 -0.1769
82138W        W25129  19.558   5.359  23.282 -0.0374 -0.1874  0.0680
82139W        W25130  16.616   5.572  24.292 -0.2992  0.1348  0.0995
82140W        W25131  12.399   2.479  19.290  0.1667  0.0605  0.2298
82141W        W25132  18.532   6.894  23.864  0.1133  0.1789  0.4771
82142W        W25133  14.936   2.607  28.491  0.1023  0.1159  0.0874
82143W        W25134  13.829  31.378  14.287 -0.1514  0.1406 -0.0935
82144W        W25135  26.398   1.276   3.079  0.0544  0.1430  0.0856
82145W        W25136   1.354   4.323  23.728  0.1798  0.2201 -0.2364
82146W        W25137  18.220  20.715  26.682  0.1568  0.1659  0.0227
82147W        W25138  10.816  30.924   0.781 -0.2313 -0.1398  0.0638
82148W        W25139  29.974   0.487  18.532  0.0128  0.3853 -0.0693
82149W        W25140  29.803   7.434  15.081 -0.0290 -0.0163  0.0198
82150W        W25141  25.070  32.127  15.101 -0.2981 -0.4011 -0.0779
82151W        W25142   4.142   5.069  17.084  0.0989 -0.4645 -0.0061
82152W        W25143  15.950   9.509  17.768 -0.1553  0.3511 -0.2131
82153W        W25144   7.928   0.436  17.968  0.0289  0.1874  0.1287
82154W        W25145  14.521  29.048  16.676  0.2546 -0.0076 -0.0866
82155W        W25146   9.043   4.798  18.396 -0.0563 -0.0420  0.1347
82156W        W25147  21.272   3.451  25.541 -0.2126  0.1509  0.0043
82157W        W25148   1.622  11.993   0.354 -0.0439 -0.1043 -0.0281
82158W        W25149  10.601  33.516   4.960 -0.3509  0.0466 -0.0370
82159W        W25150   8.604  34.464  21.069  0.1442 -0.1016 -0.3598
82160W        W25151  15.659  29.658  15.525  0.1136  0.0316 -0.1267
82161W        W25152  12.733  22.733  22.173 -0.0251  0.1381  0.0756
82162W        W25153  22.752  32.061  15.898  0.1421  0.0377 -0.2810
82163W        W25154   6.291   0.849  19.421 -0.1511 -0.0598 -0.2291
82164W        W25155  21.660  30.597  15.797  0.1656 -0.4033  0.0058
82165W        W25156  22.703  33.095  20.028 -0.0098 -0.1214  0.0306
82166W        W25157  12.246  29.495  19.883  0.0044 -0.0891  0.3329
82167W        W25158  34.140  13.167  26.561 -0.2407 -0.3584  0.1676
82168W        W25159  31.214   5.376  20.575 -0.0541  0.2061 -0.0170
82169W        W25160  12.737  32.659  22.740 -0.0576 -0.3415 -0.1066
82170W        W25161   9.895  33.527  18.522 -0.0729 -0.4015 -0.3704
82171W        W25162  15.804  32.026  20.503  0.0606  0.3930 -0.0106
82172W        W25163  14.801   5.213  18.415  0.2040  0.0591 -0.1821
82173W        W25164  24.749   6.884  13.935 -0.1562  0.2908 -0.4248
82174W        W25165  18.935   8.477  21.436 -0.2450  0.1535 -0.0966
82175W        W25166  18.313  13.967  27.405 -0.1798 -0.0260 -0.0805
82176W        W25167  27.380  30.273  15.753  0.0324 -0.2100 -0.0498
82177W        W25168  29.927  14.621   6.200  0.0288  0.2303 -0.4563
82178W        W25169  17.883  27.925  28.485  0.0684 -0.2301  0.1913
82179W        W25170  17.462   1.163  23.019 -0.3230  0.4275  0.1288
82180W        W25171  25.662   5.163  24.747  0.0727 -0.0720  0.2672
82181W        W25172  10.798  31.468  20.488  0.0120 -0.4059  0.0159
82182W        W25173  34.486   8.251  16.009 -0.0473 -0.0712  0.1158
82183W        W25174  14.054  32.203  14.223 -0.0364 -0.0232 -0.0584
82184W        W25175  31.514  20.713  14.984  0.3764  0.3410 -0.2137
82185W        W25176  25.340   5.664  13.892  0.2622 -0.0688 -0.1996
82186W        W25177  29.085  26.380   8.042  0.3919  0.0895  0.4199
82187W        W25178   6.504   5.454   4.302  0.0837  0.1003  0.2461
82188W        W25179   4.323  11.261  21.959 -0.0821 -0.1114  0.0001
82189W        W25180  11.626  31.376  16.176  0.0784  0.1699  0.0217
82190W        W25181  21.923   4.016  17.191 -0.2074 -0.1690 -0.4077
82191W        W25182   8.681   2.829   9.573  0.0020 -0.0244 -0.0587
82192W        W25183   6.215  28.022  13.937  0.0325  0.1531  0.0903
82193W        W25184  18.507  15.101  22.283 -0.1434  0.3538 -0.3122
82194W        W25185  18.422   5.365  17.250  0.3146  0.1531 -0.0955
82195W        W25186   7.630   5.394  23.340  0.4429  0.2361  0.1755
82196W        W25187  21.063  27.613  16.243  0.2306 -0.3716  0.3959
82197W        W25188  12.365  27.640  21.244  0.0118  0.0370 -0.0157
82198W        W25189  33.228   5.818  21.134  0.3826 -0.0795  0.1199
82199W        W25190  14.274  34.400  20.143 -0.0224 -0.1475 -0.1614
82200W        W25191  25.987  34.083  14.723 -0.0484 -0.1172 -0.0177
82201W        W25192  18.176   1.454   2.061 -0.2332 -0.1672 -0.0838
82202W        W25193  29.471  23.936  17.872 -0.1465 -0.0263 -0.1359
82203W        W25194  15.181  34.288  17.069 -0.0922  0.0058 -0.2954
82204W        W25195   6.970  29.899  20.351 -0.0769  0.4509 -0.1786
82205W        W25196  13.714  17.403  16.508 -0.2177  0.0688  0.3040
82206W        W25197  18.922  29.389  25.561 -0.1524  0.3358 -0.0516
82207W        W25198  13.989   6.994  18.954  0.0241  0.0640  0.0584
82208W        W25199  14.017   5.178   1.282  0.2493  0.1779  0.3258
82209W        W25200  21.693  21.659  25.096  0.1125  0.1626  0.0736
82210W        W25201  25.170   6.474  23.435  0.2757 -0.4715  0.0850
82211W        W25202  27.017  33.662  13.887  0.2207  0.2248  0.1283
82212W        W25203  27.780  33.570  21.779  0.1695  0.0509 -0.4330
82213W        W25204  15.487  21.930  23.402 -0.1426  0.1071 -0.0310
82214W        W25205  11.416  22.232   9.453  0.0009 -0.1353  0.0167
82215W        W25206   7.344   1.144  19.107 -0.0883 -0.2831  0.1585
82216W        W25207  14.833  29.015  22.543 -0.3024  0.4200  0.0316
82217W        W25208  10.697  34.176  18.646  0.0964 -0.0061 -0.1044
82218W        W25209   7.078  29.105  18.786 -0.0552  0.3224 -0.1002
82219W        W25210  17.886   5.568  14.259 -0.0110 -0.0706 -0.1957
82220W        W25211  14.386   9.279  14.728 -0.1134  0.3054  0.1205
82221W        W25212  13.509   4.267  22.518 -0.2480  0.1570  0.0826
82222W        W25213  21.402   2.502  21.370  0.2472  0.2145  0.1031
82223W        W25214   1.215   5.273  28.690 -0.0025 -0.1221 -0.0367
82224W        W25215  16.242   8.272  23.834  0.4449 -0.1483 -0.0016
82225W        W25216  15.432  31.947  18.401  0.0893 -0.6455  0.2538
82226W        W25217  16.814   4.406  28.510  0.1671  0.1094 -0.5028
82227W        W25218  15.062  23.364  23.735  0.2980 -0.1566 -0.0861
82228W        W25219  20.429  31.749  16.431  0.2571 -0.2608 -0.2427
82229W        W25220  10.839  15.043  18.919 -0.2322  0.1816 -0.0667
82230W        W25221  31.020  12.181  22.905  0.0331  0.0230  0.0823
82231W        W25222   4.667  34.434  25.403 -0.2964  0.1042 -0.1028
82232W        W25223  27.718  25.222   2.789  0.1839 -0.1613 -0.1999
82233W        W25224  12.321  12.614  20.222  0.1130  0.0178  0.0822
82234W        W25225  22.107   9.136  27.818  0.3055  0.2403 -0.1730
82235W        W25226  16.673  26.604  16.765  0.1387  0.1555  0.3932
82236W        W25227  28.069   4.498   2.588 -0.0291 -0.0532  0.2320
82237W        W25228  11.195  15.503  18.102 -0.2411 -0.1144 -0.1312
82238W        W25229  14.435   2.258  15.847 -0.0891 -0.0847 -0.2988
82239W        W25230  22.828  21.606   2.784 -0.2546  0.0861  0.0989
82240W        W25231  15.282  17.938  15.771  0.0600  0.1157 -0.1779
82241W        W25232  31.656   6.473  20.592  0.1016 -0.2279  0.1600
82242W        W25233  12.371  32.439  27.303  0.0543 -0.0790  0.1299
82243W        W25234  18.755   8.133  20.950  0.1293 -0.2932 -0.2668
82244W        W25235  10.705   7.209  28.933 -0.0550  0.2252 -0.0973
82245W        W25236  14.615   4.331  23.214 -0.0080  0.1721 -0.0486
82246W        W25237   3.543   5.187  18.580 -0.2433 -0.1138 -0.0551
82247W        W25238  34.023  31.010  15.740 -0.0081 -0.0858 -0.1390
82248W        W25239   8.025   7.347  15.054  0.1365  0.0224  0.3071
82249W        W25240  12.835   1.890  16.021  0.0075 -0.1570 -0.0771
82250W        W25241  27.974  34.764   5.173 -0.0765 -0.2580 -0.0521
82251W        W25242   5.414  31.293  24.946 -0.0142  0.0923  0.0934
82252W        W25243  19.485  32.237  25.977 -0.0161  0.2867  0.1165
82253W        W25244  12.716  34.778   1.828 -0.2306  0.2332 -0.0051
82254W        W25245   6.985  17.972  18.653 -0.0604  0.1947 -0.2176
82255W        W25246  20.730  33.893  18.460  0.2569  0.1147 -0.1327
82256W        W25247  26.980  10.618  17.030  0.0494 -0.1818 -0.2065
82257W        W25248  18.849   7.796  16.956 -0.2191  0.0647 -0.0788
82258W        W25249  14.979  31.465  16.175 -0.1870  0.2786  0.0308
82259W        W25250   0.656  33.268  14.879 -0.1075 -0.0165  0.0021
82260W        W25251   6.527   7.936   2.222 -0.0770 -0.4053  0.1261
82261W        W25252  21.790  32.201   1.277 -0.2907  0.1176  0.2112
82262W        W25253   6.188   8.217  18.280 -0.0447 -0.2133 -0.0708
82263W        W25254   3.861  28.401  21.848  0.0715 -0.1086 -0.1069
82264W        W25255   6.863  31.099  19.321 -0.1243 -0.3445  0.1665
82265W        W25256  22.629   4.510  14.640 -0.1632 -0.1883 -0.1934
82266W        W25257  12.503   3.401   9.493 -0.1134  0.3001  0.0410
82267W        W25258  20.406   0.325  28.127  0.0925  0.0450  0.0878
82268W        W25259  10.668  22.051   8.350  0.0722  0.0418  0.3947
82269W        W25260  25.307  21.232  15.585 -0.0567 -0.0238  0.0901
82270W        W25261   5.812  25.485  16.507  0.0368  0.0290 -0.2315
82271W        W25262  12.054   8.598  20.769  0.1129  0.0890  0.0782
82272W        W25263  18.675   1.067  27.270 -0.1538  0.2126 -0.1758
82273W        W25264  13.802  16.966  26.453 -0.0305  0.1407 -0.0508
82274W        W25265  17.008  15.468  23.295  0.1779 -0.0870 -0.1898
82275W        W25266   9.856  29.150  17.124 -0.0888 -0.1878  0.2859
82276W        W25267  18.752  33.702  19.756  0.0420 -0.0528  0.1769
82277W        W25268  26.035  30.144  17.932 -0.2980  0.3798 -0.2447
82278W        W25269  29.043   2.465  17.827 -0.0091  0.0346 -0.1709
82279W        W25270  16.331  23.106  18.225  0.2835  0.1837  0.1455
82280W        W25271  32.502   4.555  21.639 -0.1941  0.0232 -0.0080
82281W        W25272   4.058   2.824   1.510 -0.0892 -0.1912  0.2145
82282W        W25273  15.002   9.575  16.511  0.5184  0.2319  0.3068
82283W        W25274  33.672  16.182  24.106  0.0187  0.3527  0.2176
82284W        W25275  10.458   2.457  21.753 -0.0557 -0.0944  0.0768
82285W        W25276  10.905   8.460  20.722  0.3673  0.2007 -0.0658
82286W        W25277  20.908  30.528  16.153  0.3381 -0.0732  0.1745
82287W        W25278  14.181  33.903  22.335  0.0657 -0.0939 -0.1621
82288W        W25279   7.215  30.147  26.824  0.2950  0.4308  0.0725
82289W        W25280   1.823  27.055  18.950  0.0107  0.1802 -0.0018
82290W        W25281  31.926   2.512  17.259 -0.0645  0.2550  0.0100
82291W        W25282  28.643  30.571  12.791 -0.2162  0.2978  0.0707
82292W        W25283  13.655   2.314  26.461  0.1471 -0.0800 -0.0813
82293W        W25284  25.387   3.932  19.759 -0.2707  0.1742  0.2254
82294W        W25285  22.821   4.369  14.060  0.1658 -0.1831  0.2599
82295W        W25286  13.880  11.988  15.311  0.1749  0.1190  0.1552
82296W        W25287  13.045  22.679  20.519  0.0208 -0.0743 -0.0042
82297W        W25288   8.043   6.314  15.343  0.2186 -0.1678  0.2189
82298W        W25289  26.276  16.913  20.750 -0.0037 -0.8058 -0.1978
82299W        W25290  21.746  15.395  25.542 -0.2442 -0.0474  0.0375
82300W        W25291  12.031  17.258  17.442  0.0666  0.2756 -0.2564
82301W        W25292  22.326  27.815  14.153 -0.1164  0.1024  0.2412
82302W        W25293  24.013  34.794  24.602 -0.0177  0.0802  0.0537
82303W        W25294  11.335   6.072  22.291  0.2546  0.1341  0.0120
82304W        W25295  20.095   2.578  25.923 -0.1000 -0.1007  0.4557
82305W        W25296  16.905  23.592  26.641  0.1252 -0.2957  0.1415
82306W        W25297  20.894  14.232   4.577 -0.0488 -0.0908  0.0644
82307W        W25298   9.532   5.737   9.477  0.1322 -0.1406  0.1687
82308W        W25299  28.006   6.256  19.013  0.4427  0.3270 -0.1905
82309W        W25300  14.796  34.220  24.406  0.1236 -0.3489 -0.0113
82310W        W25301  23.081   7.644  26.968  0.2492  0.0605  0.1266
82311W        W25302  21.592  25.497  13.779  0.2554  0.0549  0.1595
82312W        W25303   4.392   3.089  24.865 -0.0731  0.0099  0.1301
82313W        W25304  11.226   2.322  20.412 -0.0691 -0.0318 -0.2070
82314W        W25305  32.750  10.632  17.575 -0.1858  0.3730  0.1745
82315W        W25306  21.055  31.638  19.285 -0.1093  0.1043 -0.2421
82316W        W25307  14.006   3.163   0.304  0.1943  0.1371 -0.1714
82317W        W25308   3.171   5.424  22.471  0.2028  0.3617 -0.1806
82318W        W25309  13.216   4.017  20.725 -0.1117 -0.0805 -0.1626
82319W        W25310  25.118  34.034  20.868  0.0727 -0.3726  0.1772
82320W        W25311  11.961  13.966  15.593 -0.1213  0.1009 -0.1327
82321W        W25312  32.109   0.920  20.031 -0.4179 -0.2439  0.0690
82322W        W25313  29.481   1.336  15.207  0.2008  0.2193 -0.1827
82323W        W25314  24.231  11.921  19.343  0.0160 -0.1831  0.0820
82324W        W25315   8.925  25.610  19.554 -0.1688 -0.0469 -0.0001
82325W        W25316  17.883   7.290  14.112  0.2018  0.1155  0.0316
82326W        W25317  25.869  32.442  17.869 -0.0396  0.4643 -0.2991
82327W        W25318  26.926  27.623  26.060  0.1327  0.0937  0.1430
82328W        W25319  18.990   4.700  25.194 -0.1152  0.0103 -0.4195
82329W        W25320  19.754  21.092  23.192  0.0985 -0.2714 -0.0064
82330W        W25321  11.748  29.333  19.998 -0.2676  0.2183 -0.1096
82331W        W25322  23.681  24.457  22.302  0.1198  0.0613  0.0575
82332W        W25323   3.988  10.953  22.252 -0.1906  0.1704  0.2350
82333W        W25324  21.825  21.010  21.162  0.0952  0.0182  0.0525
82334W        W25325  22.612  26.830  23.874  0.1175 -0.3681 -0.0242
82335W        W25326  19.941   2.514  16.243 -0.1995  0.0896  0.3090
82336W        W25327  27.948   1.401  25.978  0.2742  0.0289  0.2339
82337W        W25328   7.613  28.230  25.026 -0.0897  0.2316 -0.0424
82338W        W25329  32.891  16.988  17.272 -0.0677 -0.0593 -0.1040
82339W        W25330  12.190  34.607  23.292  0.3523 -0.1022  0.0450
82340W        W25331  23.856  29.393  19.761 -0.1609  0.0993 -0.0705
82341W        W25332  18.130  21.940  16.163  0.2027  0.0931  0.2686
82342W        W25333  16.416   5.802  26.210  0.0501  0.0337  0.0074
82343W        W25334   5.836  30.732  19.625 -0.1848 -0.2435 -0.1607
82344W        W25335  17.394  32.766  28.776  0.1330 -0.2917 -0.0120
82345W        W25336  22.963  18.572  19.264  0.2364  0.2270  0.0109
82346W        W25337  27.260   2.038   6.517 -0.0591  0.2351 -0.2714
82347W        W25338  26.682   3.470   5.513  0.0525  0.1545 -0.0450
82348W        W25339  21.519  30.264  16.718 -0.0852 -0.3325  0.0141
82349W        W25340   4.959  13.987  25.284 -0.2752 -0.1500 -0.2285
82350W        W25341  21.142  13.035  14.211  0.0192  0.1396 -0.0446
82351W        W25342  13.733  29.899  17.618  0.0067  0.0096  0.3652
82352W        W25343   6.339  28.574  14.766  0.1368 -0.1971 -0.4703
82353W        W25344  17.955  27.246   7.113 -0.0818  0.4290  0.3727
82354W        W25345  10.682  31.654  24.177 -0.3221 -0.0205  0.1648
82355W        W25346   4.566  19.972  28.897 -0.1075  0.1335  0.2737
82356W        W25347  18.189  32.100  14.616  0.0883 -0.4445  0.1156
82357W        W25348   3.926  18.371   9.199  0.4998  0.0489  0.3686
82358W        W25349  23.569   3.448  14.101  0.2644 -0.0121 -0.0748
82359W        W25350  21.109  10.141  17.512 -0.3700 -0.0006 -0.0044
82360W        W25351  15.239   1.261  17.207  0.0959 -0.2142  0.3001
82361W        W25352  19.552   7.224  22.696  0.1001  0.0697 -0.0557
82362W        W25353  27.355   2.407  18.358  0.1595  0.0419  0.2865
82363W        W25354  18.931   8.518  14.931  0.0846 -0.0736  0.3422
82364W        W25355   0.386  33.284   2.603 -0.0240 -0.1909  0.1102
82365W        W25356  12.771   7.386  25.231 -0.0097 -0.0044  0.1008
82366W        W25357   6.153  26.877   0.774  0.3039  0.2422  0.0693
82367W        W25358  22.625  24.223  14.104 -0.0991 -0.1948 -0.3267
82368W        W25359  21.614  15.445  20.164 -0.0900 -0.3121 -0.2230
82369W        W25360  12.048   9.364  10.987 -0.2681 -0.3065  0.1677
82370W        W25361  23.141   2.622   0.781  0.2080  0.0908  0.2834
82371W        W25362  12.817  25.950  17.075  0.0965  0.0102 -0.0586
82372W        W25363   2.130   3.368  22.662 -0.0498 -0.0792  0.0976
82373W        W25364  22.066  13.873  25.169 -0.1900  0.2971  0.2265
82374W        W25365  20.463   3.888  14.464  0.1096  0.2824 -0.2198
82375W        W25366  14.937   6.845   5.010  0.0123 -0.1568  0.1094
82376W        W25367  25.996   6.623  17.841  0.1203 -0.1207 -0.1439
82377W        W25368  26.444  33.622  23.820 -0.1000  0.2100 -0.1699
82378W        W25369  15.572  28.203   4.548 -0.2259 -0.0168 -0.3574
82379W        W25370  21.863   7.304  22.078  0.0868  0.1358  0.1867
82380W        W25371  24.875  26.016   0.521  0.2878 -0.1239 -0.2327
82381W        W25372   9.753  10.870  18.531  0.0143 -0.3194  0.2481
82382W        W25373  24.632  23.645  20.510  0.1228  0.0838 -0.1551
82383W        W25374  11.510   0.456   4.139  0.2871 -0.0265  0.1410
82384W        W25375  13.166  31.787  23.035  0.2019  0.2770 -0.0117
82385W        W25376  18.092   5.300  19.764  0.4008 -0.0202 -0.2307
82386W        W25377  19.545   4.935   5.805  0.0348 -0.1667  0.3927
82387W        W25378   5.929   7.825  18.281 -0.0104 -0.0938 -0.2503
82388W        W25379   8.887  32.558  19.568 -0.0561  0.1376  0.1994
82389W        W25380  18.297   8.658  23.953 -0.2420  0.0849  0.0775
82390W        W25381  10.904  16.793  26.977  0.0810  0.1249 -0.2563
82391W        W25382  34.648   7.814   3.985  0.0665 -0.0038  0.1714
82392W        W25383   5.117  30.668  15.212 -0.1091 -0.3460 -0.1942
82393W        W25384  28.767  32.453  24.178 -0.0560  0.2526 -0.2717
82394W        W25385   1.430  13.906  20.924  0.1820 -0.1027  0.1908
82395W        W25386  27.334   9.998  17.808  0.0258 -0.0880  0.0370
82396W        W25387  22.695  33.608   3.251  0.1477  0.1946 -0.1201
82397W        W25388  13.523  27.085   4.285 -0.1014  0.0415 -0.2480
82398W        W25389  24.933   4.889  25.759 -0.1282  0.0265  0.2074
82399W        W25390  32.000   1.542  14.717  0.3308 -0.2219 -0.1015
82400W        W25391  30.020  16.717  16.049 -0.0545 -0.1280 -0.2118
82401W        W25392  11.899  18.790   6.265  0.2039  0.3236 -0.0638
82402W        W25393   2.148  28.443  22.677 -0.1021  0.0236  0.0616
82403W        W25394  25.204   1.586  16.968 -0.0867 -0.2739  0.4309
82404W        W25395  13.911  29.671  20.795 -0.1894 -0.0903 -0.0992
82405W        W25396  31.908  20.667  14.666  0.0778  0.0606 -0.0653
82406W        W25397  18.460  34.057  16.389  0.0411  0.1705 -0.1025
82407W        W25398  31.592   2.393   3.700 -0.0469 -0.0533  0.0603
82408W        W25399  16.409   9.531   8.273 -0.2960  0.1108  0.1004
82409W        W25400  21.814  29.475  15.023 -0.1051  0.1051 -0.0013
82410W        W25401  30.642  10.030  16.084 -0.0188  0.2209  0.2008
82411W        W25402   9.049   2.334  15.179  0.0091 -0.0603 -0.0645
82412W        W25403  26.215  28.310   1.187 -0.3852 -0.2900 -0.0310
82413W        W25404  12.656   2.886  18.853 -0.1524  0.2080  0.1543
82414W        W25405   5.631  15.467   2.454  0.1923 -0.3108  0.4218
82415W        W25406  14.181  13.600  27.629  0.0741  0.0190 -0.1232
82416W        W25407   2.895  27.673  15.367 -0.0414  0.1149 -0.1091
82417W        W25408  10.747  33.518   0.100 -0.1434  0.5840  0.0774
82418W        W25409  10.304  31.147  10.010  0.0087 -0.4001  0.1710
82419W        W25410  24.885   4.234  18.855  0.1377  0.1852 -0.1159
82420W        W25411   0.666   3.454   1.117  0.0621 -0.1262  0.1639
82421W        W25412  26.668  24.077  15.655 -0.2288  0.0547 -0.1416
82422W        W25413  12.126  20.410  17.414  0.0804 -0.2566  0.3878
82423W        W25414  15.250  23.123  19.917  0.1467  0.0549 -0.0748
82424W        W25415  18.441   2.931  24.370 -0.1048  0.2884 -0.3650
82425W        W25416  15.943  33.056   2.415  0.2214 -0.1897 -0.2976
82426W        W25417  23.811  33.274  16.983  0.0325 -0.0245  0.1828
82427W        W25418  21.466  30.388  14.813 -0.1729 -0.2777  0.0571
82428W        W25419  24.593   1.252   8.068 -0.0877  0.0564  0.0198
82429W        W25420  32.481  25.515   7.166 -0.1057 -0.1242  0.3129
82430W        W25421   6.331  33.811  26.885 -0.3687 -0.1468 -0.0473
82431W        W25422  24.827   4.597  26.811  0.1649  0.1913 -0.2963
82432W        W25423  23.170  26.325   8.952 -0.1753 -0.0496  0.0981
82433W        W25424  10.068   0.747  17.362 -0.1369  0.0058 -0.0528
82434W        W25425  33.302   3.063   1.602 -0.0410  0.3483 -0.1400
82435W        W25426  29.374   8.876  19.517 -0.0293 -0.2120  0.0050
82436W        W25427  18.122  26.580  26.261 -0.0230  0.2770  0.1014
82437W        W25428  10.390   1.260  14.457  0.2932 -0.1642  0.0663
82438W        W25429  10.012  17.157   2.315 -0.0343  0.0763 -0.2136
82439W        W25430  18.516  31.801   2.944  0.0353  0.0736  0.2410
82440W        W25431  17.383  23.424  27.914  0.2608 -0.0473  0.1623
82441W        W25432   0.331  29.563  28.895  0.0334  0.3754  0.2240
82442W        W25433  17.588  29.926  15.246  0.0161 -0.0147  0.1854
82443W        W25434  16.402   0.421  14.558 -0.0273  0.0077 -0.1158
82444W        W25435   5.331   7.569  23.306  0.0037 -0.0680  0.2874
82445W        W25436  12.950  19.185  13.221 -0.0135 -0.0453 -0.0681
82446W        W25437  21.955   3.038  19.638 -0.0921  0.3332  0.2013
82447W        W25438  26.656   1.388   6.483  0.2341  0.0628 -0.0274
82448W        W25439  18.349   2.949  17.024  0.0165 -0.0344  0.0058
82449W        W25440  16.700  29.720  22.403 -0.0309 -0.2635  0.1442
82450W        W25441  24.771  15.269  22.583 -0.1451 -0.1636 -0.2206
82451W        W25442  16.736  34.424  24.041  0.1426  0.0252 -0.1903
82452W        W25443  22.007  32.662  27.084 -0.0730  0.2174 -0.0338
82453W        W25444  13.254  32.183  20.718 -0.1784  0.1388  0.1220
82454W        W25445  23.461  31.576   7.796  0.1453  0.1572  0.2423
82455W        W25446  18.459   7.433   4.856  0.2366  0.2508 -0.1588
82456W        W25447  24.445  24.037  21.397  0.1789 -0.3845  0.0746
82457W        W25448   5.153   5.087  28.214 -0.0135 -0.2015 -0.1465
82458W        W25449   1.572  24.260  18.667 -0.2227 -0.0908  0.4169
82459W        W25450   9.592   2.925  15.077 -0.2810  0.1667 -0.2748
82460W        W25451   2.966  33.138  28.875 -0.0826 -0.3141 -0.0871
82461W        W25452  30.636   7.527  19.531 -0.2253 -0.0097 -0.2985
82462W        W25453  16.046   1.987  21.114 -0.1092 -0.3747  0.0343
82463W        W25454  25.538  19.377  24.586  0.1750 -0.0957 -0.2195
82464W        W25455  27.900   2.463   0.258  0.2144  0.0796 -0.2416
82465W        W25456  11.618  24.572  18.979  0.2126 -0.0279 -0.0683
82466W        W25457  24.355  13.963  26.481  0.1284  0.3627 -0.0906
82467W        W25458  16.454  34.586  20.405 -0.1074 -0.0034  0.2158
82468W        W25459  18.584  11.472   2.002 -0.0134 -0.1165 -0.3360
82469W        W25460  14.751   1.072  18.748  0.1663 -0.0690  0.1180
82470W        W25461  14.107  28.759  25.949  0.0333 -0.0228  0.0058
82471W        W25462  22.883  32.953  20.433 -0.1331  0.2076 -0.3235
82472W        W25463  20.651  33.426  22.132 -0.2520  0.1332  0.2838
82473W        W25464   3.176   0.597   0.712  0.0008 -0.0644 -0.2890
82474W        W25465  19.733  31.297   1.588 -0.1271  0.0248  0.4753
82475W        W25466  20.524  33.779  15.315 -0.1550 -0.1638  0.2089
82476W        W25467  21.415   5.510   0.464 -0.2516  0.1430 -0.0841
82477W        W25468  16.938   7.518   6.370  0.1648 -0.0691 -0.0069
82478W        W25469  20.493  30.254  26.773 -0.0896  0.1319 -0.3482
82479W        W25470  10.376  23.200   3.970  0.0266 -0.0286  0.0606
82480W        W25471  15.987  16.366   6.352 -0.4577  0.0468 -0.1054
82481W        W25472   8.282  28.241  16.332 -0.0009  0.3050 -0.2002
82482W        W25473  26.215   4.602  14.118 -0.1924 -0.1043  0.0229
82483W        W25474  23.185   2.758  17.240  0.1120  0.0475  0.2877
82484W        W25475   0.509   6.576  17.995 -0.0835  0.3650 -0.1701
82485W        W25476  12.927   4.970  20.675 -0.0102  0.0432 -0.1249
82486W        W25477  28.178  34.101  27.489 -0.1020 -0.0121  0.0007
82487W        W25478  17.254  21.495   6.558 -0.2675  0.4131  0.2836
82488W        W25479  15.856  23.913   2.768  0.0080 -0.0071 -0.1475
82489W        W25480   8.629   7.643   8.740  0.1730  0.0753 -0.1070
82490W        W25481   0.812   7.654  29.133  0.2096  0.0234 -0.2661
82491W        W25482  19.909  34.563  21.767  0.0613  0.2650  0.0958
82492W        W25483  13.499   7.292  16.962 -0.0541 -0.1168  0.4473
82493W        W25484  32.735  21.633   2.243  0.0098  0.1146  0.1252
82494W        W25485  30.111  11.307  26.965 -0.0039 -0.1552  0.1989
82495W        W25486  18.143  23.941   1.700 -0.0653  0.1426  0.1534
82496W        W25487  15.575  25.771  21.034  0.2825  0.1823 -0.2476
82497W        W25488  25.327   4.441   6.615 -0.2283 -0.1076  0.0089
82498W        W25489  13.517  23.353  10.017  0.0480  0.1023  0.0063
82499W        W25490  20.268  29.882  24.035  0.1815  0.2188 -0.0059
82500W        W25491  22.783  22.139  13.175  0.3057 -0.0973  0.2044
82501W        W25492  12.773  14.407   1.225 -0.2138  0.0952 -0.1763
82502W        W25493  19.864  34.124   2.276 -0.0744 -0.0001  0.0763
82503W        W25494  22.994  32.034   0.343  0.0284  0.0418  0.2219
82504W        W25495  29.355   5.772  13.732  0.1959 -0.1835 -0.0337
82505W        W25496  28.344   3.108   2.181  0.1528  0.2109 -0.1518
82506W        W25497   7.587   1.785  19.465  0.0864 -0.0786  0.0045
82507W        W25498  27.934  31.163  23.471 -0.2316 -0.0517 -0.0633
82508W        W25499  29.341  33.842  17.053 -0.0538 -0.1652  0.0531
82509W        W25500   8.003  19.412  17.518  0.0992 -0.3741 -0.2262
82510W        W25501  24.180   1.350  18.301 -0.2330 -0.0204 -0.1100
82511W        W25502  24.218   4.630  29.162  0.0479  0.0461  0.0445
82512W        W25503  19.666   7.374  14.312  0.5391 -0.0725  0.0644
82513W        W25504  17.671  22.873  18.700 -0.3153 -0.2798  0.0912
82514W        W25505  30.998  27.852  18.545 -0.2103  0.2493  0.4146
82515W        W25506  26.835  12.278  10.157  0.1184 -0.0922 -0.1550
82516W        W25507  28.472  12.006  14.730  0.0706 -0.0458 -0.0599
82517W        W25508   8.551   0.190  21.118  0.1368  0.3963  0.1067
82518W        W25509   8.980   7.525  21.615 -0.0184  0.0010  0.0564
82519W        W25510  22.288   0.243   3.512 -0.1166 -0.3028  0.0784
82520W        W25511  12.553   2.069  16.421 -0.4588  0.2262  0.0952
82521W        W25512  23.587   0.985  15.279  0.2091 -0.1626  0.5480
82522W        W25513   5.266   4.286   4.967  0.0669 -0.2404  0.0437
82523W        W25514   3.101   1.229   5.770  0.3174  0.0279 -0.1835
82524W        W25515   3.301  14.038  17.021  0.0507  0.0755 -0.0531
82525W        W25516  25.146  32.181  22.102 -0.2350 -0.1049 -0.0031
82526W        W25517   7.077   8.752   0.712  0.0870  0.1054  0.2595
82527W        W25518  33.833  26.107   6.587  0.3258  0.0332  0.0178
82528W        W25519  25.041  32.191   6.393  0.2508  0.3461 -0.0433
82529W        W25520  10.080  22.405  19.578  0.4462 -0.3715  0.3432
82530W        W25521   8.499  20.796  17.077 -0.3760  0.2623 -0.2409
82531W        W25522  10.868  34.716  15.214  0.1606  0.1940  0.0346
82532W        W25523  25.903  33.373   1.574 -0.1286  0.2252 -0.0979
82533W        W25524  19.874  34.774  13.699  0.1908 -0.0177 -0.1657
82534W        W25525  12.892   6.300  20.662 -0.2165  0.2060  0.0242
82535W        W25526   4.213   0.757  23.262 -0.0348  0.2019 -0.1963
82536W        W25527  33.269  27.264  16.538  0.2103 -0.4677  0.0436
82537W        W25528  12.453   2.805  19.787 -0.1772 -0.0778  0.1354
82538W        W25529  13.811  30.050  20.266  0.0959  0.2576 -0.0580
82539W        W25530   4.542  22.544  14.759 -0.0383 -0.3143  0.0379
82540W        W25531  15.575  27.519   3.853  0.0060 -0.0768  0.1364
82541W        W25532  22.624  11.328  26.341 -0.1683 -0.1796 -0.1492
82542W        W25533  30.639  29.523  14.532 -0.2762 -0.1590 -0.2393
82543W        W25534   2.251   8.290  22.441 -0.1138  0.1118 -0.0678
82544W        W25535  20.562   6.927  27.229 -0.1065  0.1351 -0.1723
82545W        W25536  33.413  23.175  17.120  0.1436 -0.0192  0.0380
82546W        W25537  24.448   4.020  22.868  0.0635 -0.1390 -0.2431
82547W        W25538  16.371  31.413  20.846  0.0999  0.0022  0.1078
82548W        W25539   0.865  16.385   4.451 -0.2343  0.1320  0.1021
82549W        W25540  22.571  32.000  14.517 -0.0795  0.0323 -0.4037
82550W        W25541  22.409  27.625  13.681 -0.0901 -0.0944 -0.2063
82551W        W25542  27.484   8.550  15.046 -0.0813 -0.2749 -0.2139
82552W        W25543  29.729   4.336  18.497 -0.1180 -0.0453 -0.1247
82553W        W25544  19.508  10.610  20.173  0.0931  0.0931  0.0721
82554W        W25545  20.431  33.360  13.868 -0.3514  0.0572 -0.0986
82555W        W25546  23.721   1.051  25.532  0.1550 -0.1916  0.0771
82556W        W25547  22.520  27.470  20.567  0.1877  0.1242 -0.0304
82557W        W25548  18.363  32.905   2.142  0.0168 -0.2952  0.2644
82558W        W25549  29.100  23.859  25.650 -0.2993  0.1041  0.2774
82559W        W25550  21.245   2.528   0.837 -0.4931  0.0993 -0.2433
82560W        W25551  20.849  31.135   5.698 -0.0835 -0.1803  0.0668
82561W        W25552  10.738  23.687  15.529  0.0146  0.0903  0.0732
82562W        W25553  17.838  31.785  24.196  0.5867  0.0979  0.1877
82563W        W25554  12.607  30.401  27.276  0.1662 -0.2405 -0.1017
82564W        W25555  22.785  21.262  21.509 -0.1090 -0.0072  0.2923
82565W        W25556   7.642  25.054   1.373  0.3131  0.0953 -0.4193
82566W        W25557   7.478   0.553  25.925  0.2595  0.1387 -0.1995
82567W        W25558  18.995  27.201  15.750  0.0631 -0.0232  0.2434
82568W        W25559  26.790   5.988  14.677 -0.3873 -0.0154 -0.2719
82569W        W25560  14.742  26.328   0.373  0.1313  0.1120 -0.1735
82570W        W25561  16.276   3.180  23.813  0.1635 -0.1285  0.0075
82571W        W25562  21.793  27.744  28.978  0.3129  0.3114 -0.0942
82572W        W25563  14.752  12.163  26.533  0.1293  0.1046  0.1644
82573W        W25564  29.889  19.398   8.101 -0.2167 -0.1570 -0.2122
82574W        W25565  28.892  13.252   1.516  0.0224 -0.1417  0.2426
82575W        W25566  16.031  20.697  21.305  0.2359 -0.2460  0.1944
82576W        W25567   7.715  34.074   2.645  0.0611  0.0388  0.0477
82577W        W25568  13.545   8.899  24.590  0.0277  0.0556  0.0864
82578W        W25569  17.427  24.760  23.224  0.0819 -0.0060 -0.2251
82579W        W25570  22.865  10.575  14.037  0.1874 -0.0896 -0.0634
82580W        W25571  21.244  24.459  21.677  0.0357  0.0100 -0.0574
82581W        W25572  14.724  33.085  22.082  0.1837  0.1243 -0.2544
82582W        W25573  19.147  30.776  26.510  0.0703  0.0227 -0.1463
82583W        W25574  23.249   5.007  28.489  0.2557  0.1740 -0.1289
82584W        W25575  24.049   9.325  14.074  0.3639  0.3668 -0.1131
82585W        W25576  23.551   9.744   7.067  0.5040 -0.0748 -0.0407
82586W        W25577  15.841   5.529   3.914 -0.2435  0.0219  0.1623
82587W        W25578  34.561   0.318  24.927 -0.4105  0.2464  0.2455
82588W        W25579  25.547   1.810  24.186 -0.0928 -0.0969 -0.3395
82589W        W25580  20.810  13.435  27.159  0.4026 -0.0783 -0.0088
82590W        W25581  23.503  27.740  20.496 -0.0723 -0.1207 -0.1306
82591W        W25582  14.628  29.984   5.724  0.3053 -0.0323 -0.1590
82592W        W25583   4.184  30.614  25.885  0.2822  0.1689  0.4420
82593W        W25584  31.898   8.348  21.825  0.1203  0.0366 -0.0706
82594W        W25585   9.793   3.469  14.889 -0.0231 -0.3287  0.1979
82595W        W25586  25.945   7.028  20.767 -0.0781 -0.0604  0.2496
82596W        W25587   2.658  25.825   4.508  0.0197 -0.2856 -0.0511
82597W        W25588  15.077  29.671   3.707 -0.0423 -0.2120  0.2141
82598W        W25589   3.300  24.922  19.569  0.1102  0.1399 -0.3219
82599W        W25590  13.351   1.178   5.456 -0.0311 -0.0415 -0.0247
82600W        W25591  13.642  20.557  21.631  0.1443  0.0916  0.1689
82601W        W25592  34.600  31.674  23.532 -0.2100  0.0681  0.0280
82602W        W25593  25.721  31.252  13.405 -0.0089 -0.1081 -0.0694
82603W        W25594  18.126   0.286   3.853 -0.2048  0.3518  0.0058
82604W        W25595  24.801  29.180  17.727 -0.1764  0.1602  0.0280
82605W        W25596  22.745  31.989   1.327 -0.1438  0.1070 -0.3230
82606W        W25597   2.674  32.397  17.718 -0.2018  0.1853  0.0474
82607W        W25598   3.552  21.660  28.457  0.1326 -0.1809  0.0782
82608W        W25599  27.267  12.720   6.301  0.0242 -0.0000 -0.2387
82609W        W25600   8.164  13.413   6.134 -0.3095  0.2170 -0.3989
82610W        W25601  27.860  32.932   5.609  0.1364 -0.3325 -0.5159
82611W        W25602   3.893  16.206  23.950 -0.1462  0.0574  0.0143
82612W        W25603  11.633  16.028  27.142 -0.1721  0.1134 -0.1361
82613W        W25604  31.689   0.407  14.608 -0.3469  0.2119  0.2496
82614W        W25605  10.992   7.205  23.962 -0.2785  0.2229 -0.1441
82615W        W25606  20.305  16.452   0.219 -0.0644 -0.2403  0.0255
82616W        W25607   7.186   2.126  20.216 -0.1881  0.3397  0.0650
82617W        W25608  16.395  29.425   4.671 -0.0942 -0.2580 -0.2498
82618W        W25609   7.703  23.812  28.329  0.4250 -0.1446 -0.1272
82619W        W25610  18.336  27.635   2.778  0.1939 -0.3309 -0.0936
82620W        W25611  16.756  29.748   4.497  0.0173  0.0665  0.0727
82621W        W25612   2.001  19.143  23.532 -0.0179 -0.1521  0.0644
82622W        W25613  17.793  28.452  24.183 -0.3043 -0.4073 -0.0109
82623W        W25614  15.799   5.950   3.009 -0.3310 -0.0847  0.4123
82624W        W25615  21.405   7.123  15.152 -0.1708  0.0585  0.0051
82625W        W25616  25.157  28.107  21.977 -0.2245 -0.0398  0.0674
82626W        W25617  13.191  28.878   6.430  0.0669  0.0704 -0.0340
82627W        W25618  14.361   7.359  27.574  0.1865  0.0837 -0.0985
82628W        W25619   8.989  27.605  26.191  0.1836 -0.3114 -0.1711
82629W        W25620  20.161  22.350  13.721  0.0153 -0.1533  0.0315
82630W        W25621  20.192   7.037  25.618 -0.2374 -0.2026  0.1045
82631W        W25622   8.768  30.602   2.786 -0.0101 -0.2270  0.0986
82632W        W25623   9.398   3.719  15.060 -0.0537  0.0358  0.0342
82633W        W25624  22.933  29.842   8.070 -0.0425 -0.0304 -0.0617
82634W        W25625   5.916  27.716  15.975 -0.3545 -0.2573 -0.1293
82635W        W25626  24.051  11.933  24.945  0.2143  0.0630 -0.0085
82636W        W25627   4.729  12.378  20.315  0.2734  0.0980  0.0728
82637W        W25628  23.570   1.252   5.522  0.2533 -0.0917  0.0970
82638W        W25629  19.191  29.524   0.550 -0.1793  0.0122  0.0220
82639W        W25630  11.976  22.356  19.746 -0.0444 -0.1041  0.0992
82640W        W25631  12.512   1.038  25.899 -0.0202  0.0672  0.1823
82641W        W25632  28.023   7.741  13.692  0.1819 -0.0691 -0.0784
82642W        W25633  27.211  23.663  24.733 -0.3344  0.1305  0.2029
82643W        W25634  14.912  23.779   6.867  0.1047 -0.2907 -0.0082
82644W        W25635  11.133  33.406   9.381 -0.0207 -0.4249  0.2635
82645W        W25636  19.487  14.283  18.022  0.1021 -0.0437 -0.0255
82646W        W25637  12.773  29.274   4.808 -0.1373  0.0486  0.0345
82647W        W25638  22.017  29.058   5.881  0.0324  0.0736 -0.1920
82648W        W25639   9.971  33.505  24.350 -0.0223  0.1308  0.3652
82649W        W25640  16.656  21.594  19.338  0.2329 -0.0167 -0.0756
82650W        W25641   2.996  26.787  19.487 -0.3495 -0.4671  0.0875
82651W        W25642  32.309   2.881  17.816 -0.0938 -0.0234 -0.1265
82652W        W25643   7.794   7.569  23.690 -0.0909  0.3337 -0.1325
82653W        W25644  17.028  28.510  27.307  0.2096  0.2539  0.1329
82654W        W25645  10.580  32.235  15.789 -0.0218 -0.0342 -0.1148
82655W        W25646  20.437  22.250  20.664 -0.3920  0.0460  0.2408
82656W        W25647  12.350  20.763   8.955 -0.0568 -0.0058 -0.1121
82657W        W25648  17.752  13.326   1.407 -0.1269  0.2533 -0.1075
82658W        W25649   8.574  15.567  23.032  0.3236 -0.0264  0.1449
82659W        W25650  11.995   5.460   1.750 -0.3359  0.0662  0.1145
82660W        W25651   5.584  33.426  21.466  0.0753 -0.1996 -0.1079
82661W        W25652  13.461  12.545  20.687 -0.3449  0.0362 -0.1965
82662W        W25653  10.067  10.908  20.600 -0.0508 -0.0153 -0.2530
82663W        W25654  13.576   1.659   9.348 -0.0135 -0.0979  0.2721
82664W        W25655   9.145  29.469   8.797  0.3528 -0.2472  0.3484
82665W        W25656  16.560  12.844   9.328  0.2755  0.2547 -0.1047
82666W        W25657  23.845  14.658  25.894 -0.1413 -0.2350  0.0608
82667W        W25658  23.120  21.059  24.447  0.0228 -0.1504  0.0291
82668W        W25659  32.118  22.535  20.398  0.3156  0.2044  0.2163
82669W        W25660  27.659  26.602  19.003 -0.3025 -0.1266 -0.0509
82670W        W25661  26.023   3.090  19.966 -0.1272  0.1884  0.0238
82671W        W25662   9.989  25.868  27.693 -0.2565  0.0828  0.0505
82672W        W25663   1.083  12.427   4.835 -0.0679 -0.2530 -0.2781
82673W        W25664  30.126  23.361  24.631  0.1948 -0.0858 -0.2444
82674W        W25665  22.928  23.956   8.278 -0.0442 -0.0960 -0.0079
82675W        W25666   2.558  33.869  22.189  0.1819 -0.2925 -0.1843
82676W        W25667   4.788  12.431  19.839 -0.1463 -0.1392 -0.0413
82677W        W25668  16.709   5.184   9.998  0.1809  0.1611 -0.0593
82678W        W25669  22.421   3.071  20.145 -0.0879 -0.0092  0.1672
82679W        W25670   9.897  30.947  21.354 -0.2917 -0.0989  0.1766
82680W        W25671  24.349  32.245   3.507 -0.1306  0.0435  0.1054
82681W        W25672  19.880  29.131   3.153 -0.1247 -0.1045 -0.2376
82682W        W25673  20.410   0.875   2.249 -0.3363 -0.2028  0.2501
82683W        W25674  21.979   1.694   2.515  0.4058  0.0243  0.1851
82684W        W25675  19.889  33.408  18.059  0.1814  0.1515  0.1751
82685W        W25676  14.510  28.219  23.377  0.0842  0.2666 -0.2110
82686W        W25677   4.114   2.194  18.290  0.1636 -0.0554 -0.2739
82687W        W25678   5.225  31.299  26.293 -0.1198 -0.0548  0.2249
82688W        W25679  23.433  29.930  23.761 -0.2690 -0.1288  0.0629
82689W        W25680  19.871   9.667  25.509 -0.1316 -0.1607  0.2388
82690W        W25681  14.530  20.622  25.045  0.1071  0.1163  0.2445
82691W        W25682  22.320  24.873   6.983  0.0155 -0.1900 -0.2100
82692W        W25683  16.400  34.660  28.597 -0.0182 -0.4076 -0.0460
82693W        W25684  27.978  22.551  14.591  0.0822  0.0463 -0.1462
82694W        W25685  12.432  32.793  16.551 -0.1368  0.1074  0.1149
82695W        W25686  15.128  31.351  15.109  0.4264 -0.0426  0.1662
82696W        W25687   9.987  28.511   2.933 -0.1976  0.2058 -0.0707
82697W        W25688  18.894   5.626   1.711 -0.1366 -0.3335  0.2410
82698W        W25689  13.715  23.255  20.542  0.0555  0.1063  0.1111
82699W        W25690  33.842  32.903   8.914 -0.3863  0.2899  0.3388
82700W        W25691   2.086  29.535  26.209 -0.1544  0.3185  0.1371
82701W        W25692  23.378   2.791  18.153 -0.0850 -0.1020 -0.0277
82702W        W25693   7.329   3.881  15.647  0.1364 -0.1153  0.3569
82703W        W25694   5.072  31.926  18.316  0.0133  0.2237  0.0293
82704W        W25695  15.618   9.561   7.313  0.1301  0.3021  0.0388
82705W        W25696  23.367   5.453  27.395  0.1293 -0.2173  0.0075
82706W        W25697  20.976   4.807  15.688  0.5253 -0.0747  0.1595
82707W        W25698  23.687  30.161  18.742  0.1338  0.3047 -0.0286
82708W        W25699  30.665  28.698   8.404  0.1005  0.0512 -0.0382
82709W        W25700  24.184  32.157  17.231  0.2252  0.0776 -0.2723
82710W        W25701  20.800   1.882   7.753 -0.0702  0.2055 -0.0693
82711W        W25702  31.975  12.170  15.767 -0.0295  0.0585  0.0228
82712W        W25703   5.442  24.601   6.687  0.2359  0.0331  0.3950
82713W        W25704   3.683  20.033  25.729 -0.1992 -0.0374  0.1734
82714W        W25705  24.564  29.082  22.870 -0.0774  0.0512  0.0648
82715W        W25706   6.268  14.471  16.313 -0.1194 -0.0247 -0.1609
82716W        W25707  19.481  27.881   1.943  0.0893  0.2241  0.1351
82717W        W25708   8.329   0.431   1.509  0.2221 -0.0749 -0.0025
82718W        W25709  12.021  32.295   0.771  0.0412  0.4120 -0.4280
82719W        W25710  22.698  12.373  24.835  0.1893 -0.1645 -0.0457
82720W        W25711   1.783  11.016  18.161  0.0615  0.0217 -0.3182
82721W        W25712  19.708   0.831  14.910  0.0167  0.2171  0.1441
82722W        W25713   2.581  21.158  24.247  0.2463 -0.0063  0.7351
82723W        W25714   2.068  23.432  18.911  0.1349 -0.1479 -0.0119
82724W        W25715   4.647  25.550  22.170  0.2169  0.1173  0.1772
82725W        W25716  19.155  33.105   1.633  0.0760 -0.1590  0.0804
82726W        W25717  21.440  16.840  24.501 -0.0837  0.0534 -0.0122
82727W        W25718  26.457   1.098   8.452 -0.0826  0.1451 -0.0559
82728W        W25719  11.432  29.757  26.831  0.1041  0.2409  0.1181
82729W        W25720  10.584  33.385   6.389  0.0443  0.4772 -0.1047
82730W        W25721  10.753   1.493  20.740 -0.2720 -0.1237  0.2084
82731W        W25722  11.625  31.204  17.010 -0.1180  0.1375  0.1682
82732W        W25723  10.098   8.937  19.813 -0.1518 -0.0445 -0.1611
82733W        W25724   7.368   7.593  28.086 -0.2817 -0.1126 -0.2511
82734W        W25725   6.218  27.480  17.209 -0.2811 -0.2753  0.0153
82735W        W25726   6.679   2.498  17.468 -0.1183  0.0731  0.1064
82736W        W25727  11.291   6.744  24.967 -0.2392  0.3890 -0.0672
82737W        W25728  16.228   6.279   0.046 -0.1569  0.1862  0.1472
82738W        W25729  19.124   6.006  26.547  0.2246  0.0215  0.0428
82739W        W25730  30.767  31.649  25.426  0.1431  0.0205  0.0391
82740W        W25731  13.463   0.560   4.410 -0.1891 -0.1516  0.0833
82741W        W25732   8.456  22.882  20.342  0.1024  0.2817 -0.0317
82742W        W25733  17.758  14.220  16.966  0.2006 -0.1192 -0.0025
82743W        W25734  20.050  24.773  15.419  0.2521 -0.1142  0.0156
82744W        W25735   6.823  17.237  19.745 -0.3491  0.1229  0.2061
82745W        W25736  22.689  33.273  25.901  0.2517 -0.1397  0.0019
82746W        W25737  23.088   3.442  13.786  0.0175 -0.0006 -0.0981
82747W        W25738  33.650   6.365  17.878  0.0094  0.0671 -0.0026
82748W        W25739  21.908  14.041  20.627  0.0011  0.0207  0.0531
82749W        W25740  33.519  32.369   7.457 -0.0390  0.2349  0.2480
82750W        W25741  14.141  33.394   0.298 -0.1839  0.1135  0.1290
82751W        W25742  22.587  15.109  17.662 -0.0281 -0.5741  0.2570
82752W        W25743   5.128  27.923  26.992 -0.1741  0.4043  0.0220
82753W        W25744  22.772  25.441  16.849  0.3639 -0.1945 -0.0507
82754W        W25745  11.123   9.493  29.163 -0.0519 -0.1158  0.2854
82755W        W25746  10.886   8.961  25.029 -0.0509 -0.0297  0.3774
82756W        W25747   9.373  17.870  23.625  0.0099 -0.5165  0.1304
82757W        W25748  17.124  24.962  17.627  0.0850 -0.2697 -0.4234
82758W        W25749  25.312   1.561   1.615 -0.2462 -0.4248  0.0664
82759W        W25750  27.970   1.352  29.219  0.0439 -0.0419 -0.1240
82760W        W25751  19.930   7.023  15.727  0.0164 -0.0105  0.1168
82761W        W25752  14.487  32.538   2.374 -0.2302  0.2468 -0.1468
82762W        W25753   6.137  11.583   0.985 -0.2712  0.1720  0.2089
82763W        W25754  32.121  18.540   0.337  0.2711 -0.0958  0.0174
82764W        W25755  23.234  32.414  16.849 -0.1271  0.2135 -0.0314
82765W        W25756  15.092  11.490   3.552  0.6278 -0.2985  0.2299
82766W        W25757  15.047  34.397  20.164  0.0325 -0.2165 -0.1669
82767W        W25758  23.870   7.044  25.075  0.1458 -0.2570  0.2642
82768W        W25759  17.982  22.930   1.565 -0.0257  0.0338  0.1864
82769W        W25760   2.054   4.079  22.633  0.0224 -0.3783  0.2264
82770W        W25761   2.126  29.914  19.351 -0.0522  0.2007 -0.2564
82771W        W25762  18.597  31.294   0.011 -0.2793  0.0094  0.2136
82772W        W25763  30.510   6.293  28.983  0.2049  0.2627 -0.0271
82773W        W25764  19.385  33.939   7.520 -0.1503 -0.1148  0.3119
82774W        W25765   3.751  11.528   0.327 -0.1122  0.0065 -0.0830
82775W        W25766  13.516  20.294  13.708 -0.1927 -0.0940 -0.0432
82776W        W25767  10.651  22.662  24.233 -0.1228 -0.2910 -0.0735
82777W        W25768   9.529  33.103  18.474  0.3930  0.2280  0.1658
82778W        W25769   3.572  14.027  16.188 -0.0788 -0.1816 -0.4339
82779W        W25770   3.970  17.061  18.517  0.0078 -0.0192 -0.1357
82780W        W25771   0.452  26.855  25.040  0.0889  0.0352  0.0272
82781W        W25772  28.740   7.242  24.167  0.1819 -0.2602  0.1573
82782W        W25773  23.076  22.249   8.700  0.0658 -0.5959  0.1514
82783W        W25774  26.595  27.661   0.892  0.0740 -0.0516 -0.2687
82784W        W25775  18.135  24.798  26.631 -0.0256  0.0687 -0.4402
82785W        W25776  13.670  30.768   3.090  0.0675  0.5314  0.3699
82786W        W25777   2.266  34.324  20.106  0.1913 -0.0976 -0.2205
82787W        W25778  15.155  29.873  24.947 -0.0731  0.0533  0.1090
82788W        W25779  19.296  32.113   1.645  0.0051  0.2036  0.1507
82789W        W25780   8.011   0.903  28.854 -0.3299 -0.1949 -0.3781
82790W        W25781  32.677  29.120   0.871  0.1992  0.2534 -0.1941
82791W        W25782  20.808  25.086  14.980  0.0824 -0.0873 -0.1558
82792W        W25783  31.191  26.672   7.302 -0.2457  0.2210 -0.2553
82793W        W25784  22.522   1.718  27.595  0.1533  0.0857  0.0244
82794W        W25785  16.272  25.315   1.734 -0.1037  0.0579 -0.0544
82795W        W25786   6.201  31.878   8.455 -0.0906 -0.1247  0.1196
82796W        W25787   3.418  11.210   7.361  0.3298  0.0576  0.0951
82797W        W25788   5.032   2.672   3.355 -0.1912 -0.4125 -0.1349
82798W        W25789  27.027   3.498   5.936 -0.0125 -0.2553 -0.0064
82799W        W25790  11.836  28.560  20.266  0.1328  0.0312 -0.1822
82800W        W25791  11.883   8.535   0.013  0.1864 -0.1752 -0.1490
82801W        W25792  16.429  20.329  19.877  0.0452  0.0920  0.3527
82802W        W25793  21.256  32.883   8.111  0.3507  0.1875  0.1469
82803W        W25794  33.468  30.444  24.456  0.0524  0.3832  0.0358
82804W        W25795   1.846  19.634   0.579 -0.1894 -0.0601  0.3622
82805W        W25796  16.183   7.430  22.584 -0.2428 -0.1514  0.2719
82806W        W25797  15.877  33.476  26.795  0.2967 -0.0295 -0.1377
82807W        W25798  21.531  28.064   0.444  0.1308  0.1067  0.0912
82808W        W25799   0.687   4.832  24.326 -0.0831 -0.1967 -0.3324
82809W        W25800  27.500  22.734  24.428  0.0798  0.0738 -0.1671
82810W        W25801  26.434  30.309  19.668 -0.2542  0.0293 -0.0531
82811W        W25802  25.453   6.921  23.280  0.1229  0.1665  0.1051
82812W        W25803  26.451  32.185   1.645  0.0875  0.3911 -0.0567
82813W        W25804  25.032  11.498  19.982  0.0975 -0.0292  0.0433
82814W        W25805  18.910  26.233  13.556  0.0520 -0.1055 -0.1726
82815W        W25806  22.154  30.507  15.438 -0.2080  0.0503  0.1361
82816W        W25807  29.424   7.023  22.833  0.1019  0.2236 -0.0442
82817W        W25808   4.682   0.550  19.504  0.2425 -0.0810 -0.0370
82818W        W25809   5.317  14.646  23.222  0.0629 -0.1748  0.1179
82819W        W25810  16.939  13.385  18.434 -0.2298 -0.2314  0.3260
82820W        W25811  25.972  33.731  15.177  0.0616 -0.1216  0.0762
82821W        W25812  28.790  11.878  17.139  0.3171 -0.0833  0.2514
82822W        W25813   5.745  31.698  24.178 -0.1796 -0.2152 -0.0713
82823W        W25814  23.773  10.719  26.805 -0.0963  0.0379 -0.4052
82824W        W25815   1.031  28.966  18.591  0.0315  0.0790 -0.1496
82825W        W25816   7.177  29.826  24.357 -0.3005 -0.0327 -0.2087
82826W        W25817  13.518  10.273  15.619  0.1438  0.2886  0.1420
82827W        W25818  34.069  31.637  16.620 -0.4300  0.1456 -0.0952
82828W        W25819  23.506   7.411  16.062  0.2321  0.0655 -0.1131
82829W        W25820  21.112  28.600  13.666  0.1580  0.1168 -0.0531
82830W        W25821   7.506  27.191  22.819 -0.2772 -0.0800  0.4726
82831W        W25822  10.892  33.993   0.111 -0.1422 -0.1023 -0.1232
82832W        W25823  25.009   0.808  20.662  0.1764  0.0073 -0.0931
82833W        W25824  16.094  18.109  12.937  0.1075  0.1667  0.0732
82834W        W25825   6.693  27.092  27.164  0.2427  0.3085  0.3654
82835W        W25826  10.943   6.645  21.660 -0.1034  0.3440 -0.2750
82836W        W25827  29.458   4.353  21.350 -0.1359 -0.1056 -0.1970
82837W        W25828   6.512  10.494  19.681  0.4501 -0.1899  0.1597
82838W        W25829  17.428  11.835  29.187  0.4062 -0.5272  0.0827
82839W        W25830  31.624   4.753  20.100 -0.1034  0.2552  0.3059
82840W        W25831  17.683  11.499  26.905  0.0106  0.1998  0.2477
82841W        W25832  31.177  19.158  20.598  0.2604 -0.1654 -0.0279
82842W        W25833  23.688   5.366   0.465 -0.2518 -0.2376  0.1525
82843W        W25834  23.413  31.560  24.106  0.1417 -0.3005 -0.0195
82844W        W25835  13.346   0.900  23.890  0.2913  0.0220 -0.0544
82845W        W25836  18.852   2.886  19.884  0.0780 -0.0476 -0.1257
82846W        W25837  20.977  30.456  14.990  0.1972  0.1992  0.1877
82847W        W25838  12.063   2.788  27.864 -0.0433 -0.3047  0.0453
82848W        W25839  34.130   3.498  17.687  0.1783  0.4421 -0.0414
82849W        W25840  20.887  10.598  16.705  0.0019  0.2408  0.3848
82850W        W25841   4.352   9.172   7.692  0.0557 -0.2224 -0.1624
82851W        W25842  17.354   2.705  22.354 -0.0199  0.1729  0.1635
82852W        W25843  19.446   1.526  19.747 -0.2122 -0.1506 -0.1036
82853W        W25844  12.597  14.059  16.850 -0.0394 -0.0786  0.1520
82854W        W25845  18.793  12.582  22.085  0.1301 -0.1102 -0.1092
82855W        W25846  12.892  16.588  18.358 -0.2184 -0.0003  0.3556
82856W        W25847  12.077  11.448   6.652  0.0377  0.1112 -0.3252
82857W        W25848  16.345   5.959  17.557 -0.1595  0.1793 -0.2405
82858W        W25849  22.753  32.737  13.637 -0.3440 -0.1833  0.0400
82859W        W25850   0.261   7.568  27.855  0.0006 -0.0721 -0.1480
82860W        W25851   6.727   6.100  17.124  0.0585 -0.2897  0.0220
82861W        W25852  17.610  24.482  15.667  0.2235  0.1411 -0.0551
82862W        W25853  16.383  23.320  28.711  0.0402 -0.3635 -0.0281
82863W        W25854  23.673  13.385  18.846  0.1467 -0.1114  0.0945
82864W        W25855  24.291   9.752  19.057  0.1569 -0.2084 -0.0375
82865W        W25856  18.394  14.311  23.097 -0.0963  0.2128 -0.2335
82866W        W25857  25.539  12.378  25.136 -0.1658  0.1558  0.0990
82867W        W25858   1.481   5.444  22.107  0.2415  0.3575 -0.1607
82868W        W25859  22.021  13.353  14.182  0.1348  0.0806  0.1089
82869W        W25860  13.452  31.732  16.858  0.0865 -0.2333 -0.0052
82870W        W25861  28.639   3.639  16.051  0.0147  0.0565 -0.1360
82871W        W25862  21.958  26.258  21.788  0.0856 -0.3516  0.1818
82872W        W25863   3.374  29.359  15.254 -0.0068 -0.0601 -0.0740
82873W        W25864  19.897   0.525  20.551  0.0178 -0.0678  0.1274
82874W        W25865   0.988  10.330  22.803  0.0361 -0.1752 -0.2387
82875W        W25866  29.686   1.547   1.132 -0.0385 -0.2830  0.0112
82876W        W25867  11.435  31.993  16.280 -0.0993 -0.0259 -0.1345
82877W        W25868  19.062  11.578  20.657 -0.0216  0.0529  0.0754
82878W        W25869   2.668   9.824  22.907 -0.1477 -0.0512  0.3378
82879W        W25870  19.546  13.410  14.565  0.2864 -0.1060 -0.1405
82880W        W25871  23.679  20.942  16.538 -0.0376 -0.0165 -0.1185
82881W        W25872   9.698  24.833  19.611  0.0220 -0.2736  0.0545
82882W        W25873  16.386  11.612  23.924 -0.1418  0.0894 -0.3464
82883W        W25874  27.204  26.901  16.291  0.0297  0.1524  0.0306
82884W        W25875  20.721  12.203  16.612 -0.0754  0.0584  0.0987
82885W        W25876   0.356   9.946  20.018  0.2283  0.1890 -0.1809
82886W        W25877  21.719   6.255  19.063  0.3296 -0.0540  0.0619
82887W        W25878  23.920  34.796  24.039  0.6284 -0.2725 -0.2134
82888W        W25879  11.044  31.295  23.039  0.5403 -0.0111  0.1063
82889W        W25880  18.752  23.980  18.196  0.3081 -0.0187  0.1681
82890W        W25881   7.074  26.986  25.268  0.2204 -0.1437 -0.0599
82891W        W25882  32.359  31.447  12.993 -0.0155 -0.1489  0.0740
82892W        W25883   8.555   0.245  19.192 -0.3524  0.0121 -0.1285
82893W        W25884  14.269  23.389   5.398 -0.0781  0.1059  0.0931
82894W        W25885  23.424  25.049  23.871  0.0430 -0.0861 -0.2426
82895W        W25886  24.558  28.623  23.101  0.0637 -0.1265 -0.1207
82896W        W25887  31.027  28.088  28.536  0.2198 -0.0509 -0.0926
82897W        W25888  17.521   2.349  16.519  0.0075 -0.0964  0.1571
82898W        W25889  25.681  13.696  16.043 -0.3191  0.1201  0.2273
82899W        W25890  31.393  32.006  15.039  0.1944  0.0945 -0.1739
82900W        W25891  31.186  21.138  17.734  0.3871  0.0872 -0.0823
82901W        W25892  18.265  34.060  15.878 -0.2905  0.1722 -0.2289
82902W        W25893  17.179  28.206  19.478  0.1631 -0.2182  0.0160
82903W        W25894  22.596   0.318  16.843 -0.0955  0.2657  0.0694
82904W        W25895  14.306  11.580  18.964 -0.1459  0.1666  0.0201
82905W        W25896  17.980   0.119  14.441  0.0372 -0.5079  0.4303
82906W        W25897  31.077  23.684  20.086 -0.0694  0.0198  0.0640
82907W        W25898  23.133  31.117  17.608 -0.2002  0.2104  0.3440
82908W        W25899  19.210   6.949  24.678  0.1189  0.2111 -0.1241
82909W        W25900   7.762  19.096  18.802  0.2459  0.0532 -0.0265
82910W        W25901   7.003   4.905  20.454 -0.1978  0.1435  0.3547
82911W        W25902  18.374  11.555  18.869  0.1453  0.2059 -0.0340
82912W        W25903   5.249  28.365  27.269 -0.1286 -0.1756 -0.3183
82913W        W25904  21.735  22.786  13.774  0.1342 -0.0843  0.1625
82914W        W25905  28.797   1.657  22.632 -0.0868 -0.2584  0.2019
82915W        W25906  10.747   3.048  17.855  0.0863 -0.0690  0.1381
82916W        W25907  25.981  24.605   3.912 -0.0460 -0.1486  0.0598
82917W        W25908   7.149  31.566   0.784  0.0232  0.1358  0.2779
82918W        W25909   2.224  10.610  25.742 -0.1622 -0.0361  0.2809
82919W        W25910  24.423  12.017  18.040  0.0548  0.1435 -0.2144
82920W        W25911  14.990   9.324  18.841 -0.0744 -0.0460 -0.0993
82921W        W25912   4.888  32.123  15.571  0.1662 -0.0611 -0.0839
82922W        W25913  19.789  10.419  24.550  0.2165 -0.1440  0.0912
82923W        W25914  21.216   2.560  22.233 -0.1377  0.0964 -0.0933
82924W        W25915  17.278  29.115  14.988  0.0616 -0.0939  0.3196
82925W        W25916  11.927  32.057  19.263 -0.0362  0.2931 -0.2478
82926W        W25917  18.763   0.359  18.245  0.0663 -0.1356 -0.4481
82927W        W25918  22.698  26.734  19.899 -0.2126 -0.0029 -0.0499
82928W        W25919  23.723  13.078  20.641  0.2482  0.1086 -0.1362
82929W        W25920  17.330  33.955  19.969  0.0705  0.0488 -0.0211
82930W        W25921   4.817  32.779  20.438  0.2304 -0.1170  0.0364
82931W        W25922  29.209  18.818  20.724 -0.2779  0.2149  0.3168
82932W        W25923  10.957  32.196  16.368 -0.1563 -0.2221 -0.4877
82933W        W25924  23.682   8.869  15.532 -0.0530  0.1576  0.0394
82934W        W25925  24.387   3.264   2.928 -0.6783  0.5639  0.1923
82935W        W25926  30.424  30.825  27.888  0.1608 -0.1503 -0.3096
82936W        W25927  12.121   2.449  22.648  0.2817  0.1025  0.0838
82937W        W25928  32.995  28.247  20.064 -0.1041 -0.0192  0.3120
82938W        W25929  19.473  33.685  15.933 -0.0133 -0.1976 -0.2223
82939W        W25930   7.646   2.555  26.547 -0.1661 -0.0159 -0.0103
82940W        W25931   6.783   8.645  18.871 -0.3483  0.3006 -0.3892
82941W        W25932  19.085  25.591  19.900  0.0487 -0.4311 -0.0812
82942W        W25933  28.486  28.905  21.507 -0.2311 -0.1775  0.0580
82943W        W25934  23.936   2.431  17.706 -0.2596 -0.1831  0.3760
82944W        W25935  16.775   4.403   0.771 -0.1417 -0.1831 -0.1072
82945W        W25936  17.537  26.470  16.669 -0.2929  0.0629 -0.0033
82946W        W25937  11.565  27.646  18.966  0.2050 -0.0124 -0.0067
82947W        W25938  19.863   5.985  21.302 -0.1669  0.1445 -0.1800
82948W        W25939  30.018  29.228  23.353  0.2563  0.1747 -0.1993
82949W        W25940  28.712  31.975  19.957  0.1707 -0.0024 -0.2646
82950W        W25941  19.735   1.920  19.526  0.0282 -0.2651 -0.0802
82951W        W25942  21.949  21.819  19.318  0.1263 -0.1572 -0.1204
82952W        W25943  24.857  13.728  17.683  0.4180 -0.1651  0.0572
82953W        W25944  10.509  22.336  13.957  0.0546  0.2099 -0.1233
82954W        W25945  26.093  26.811  18.816 -0.2513  0.4081 -0.0679
82955W        W25946  13.571  25.142  15.988 -0.0055 -0.1325  0.2911
82956W        W25947  26.378  30.447  23.469 -0.2298 -0.0171 -0.0075
82957W        W25948  22.610   3.036  28.035  0.0502 -0.3533  0.1278
82958W        W25949  16.806   9.694  14.038 -0.0342  0.1138  0.2006
82959W        W25950  23.726   6.737   5.956 -0.3789  0.3087 -0.1490
82960W        W25951  17.416   1.182  18.040 -0.2444  0.2741 -0.0690
82961W        W25952  25.948  31.449  15.173  0.0366  0.1856  0.3889
82962W        W25953  25.698   1.768   4.572 -0.0069 -0.0933 -0.0806
82963W        W25954  25.164  34.190  12.508  0.0166 -0.1884  0.3515
82964W        W25955  17.880  30.356  22.199 -0.1326  0.0105  0.0349
82965W        W25956  25.381  23.113  17.341  0.2144  0.1405 -0.2591
82966W        W25957  19.062   4.851  16.502 -0.0583 -0.0901 -0.3603
82967W        W25958  29.671  20.737  21.156  0.2656 -0.0550  0.0049
82968W        W25959  24.971  32.497  26.055 -0.0009  0.0732 -0.2627
82969W        W25960  25.481  14.602  15.180  0.0000 -0.0300 -0.0354
82970W        W25961  22.541   3.254   5.580  0.4719 -0.6374 -0.1107
82971W        W25962  34.482  22.995  16.645  0.3598 -0.1344  0.0619
82972W        W25963  16.136   3.321  18.092 -0.2644  0.2377  0.0542
82973W        W25964  20.436  19.739  19.656 -0.0634 -0.2714 -0.1784
82974W        W25965  21.034   9.936   1.631  0.0616  0.0076 -0.4023
82975W        W25966   6.116   4.148  17.661 -0.0419 -0.2126 -0.0270
82976W        W25967   1.161  27.794  16.546 -0.1500 -0.3647  0.2063
82977W        W25968  29.340   9.710  19.291 -0.1122 -0.0350  0.0941
82978W        W25969   3.086   6.459  20.216 -0.0519 -0.3554  0.0669
82979W        W25970  21.048   8.895  25.957 -0.3569 -0.1751 -0.2360
82980W        W25971  25.979  33.525  24.219 -0.2155 -0.2310 -0.1465
82981W        W25972  27.352  31.737  21.898 -0.2869  0.2696  0.2275
82982W        W25973  22.837  30.881   6.270 -0.0428  0.0180  0.4162
82983W        W25974   7.384   1.583  28.359 -0.0618 -0.0111  0.5026
82984W        W25975  25.527  31.621  17.995  0.1857  0.0679  0.1570
82985W        W25976  14.691   9.467  20.878 -0.0596 -0.0498  0.2039
82986W        W25977  33.102  14.433  19.845  0.0898  0.2650  0.1111
82987W        W25978  22.405  10.226  17.652 -0.1958  0.0678 -0.3097
82988W        W25979  28.871  34.645  18.577  0.1522 -0.1466 -0.1888
82989W        W25980   1.574  27.657  19.224 -0.2973 -0.2174  0.1021
82990W        W25981  31.845  17.064  28.227  0.2483  0.2359 -0.2327
82991W        W25982  18.034  33.774   2.650  0.3189  0.0638 -0.1568
82992W        W25983   5.754   5.197   1.296 -0.0557  0.3273 -0.3314
82993W        W25984   9.883   4.190  19.761  0.0332  0.0460  0.1998
82994W        W25985   7.547   0.751  28.638  0.0522 -0.1253  0.2177
82995W        W25986  29.577   1.993  20.930  0.0115 -0.2204 -0.1208
82996W        W25987   0.249  19.632  26.285 -0.2752  0.0388  0.2638
82997W        W25988  30.980  33.650  22.684 -0.3531  0.1731  0.2074
82998W        W25989  31.102   3.762  20.135  0.2780 -0.1128 -0.0393
82999W        W25990  10.211  25.329  20.151 -0.1893  0.0177  0.1466
83000W        W25991  13.216   4.952  23.676  0.2861  0.1319  0.0571
83001W        W25992  27.185  23.748   7.702  0.1122 -0.0608 -0.3386
83002W        W25993  34.135  32.567  23.282  0.1326 -0.0560  0.3481
83003W        W25994  18.618  33.305  19.359 -0.0308  0.0181  0.2132
83004W        W25995  28.583  29.297  14.542  0.0282  0.1465  0.0042
83005W        W25996  11.937  27.920  19.142 -0.1010 -0.1995  0.2347
83006W        W25997  30.325  29.799  20.487 -0.0423  0.1434  0.1933
83007W        W25998  31.960  15.617  22.443 -0.3237 -0.1474 -0.1119
83008W        W25999  16.073   1.507  18.032 -0.3984 -0.1693  0.1376
83009W        W26000  25.438  32.210  16.054  0.2805 -0.2046 -0.0570
83010W        W26001  14.655   6.464  15.040  0.0651 -0.1517  0.0580
83011W        W26002  10.848  31.340  22.561 -0.0438  0.1008 -0.0513
83012W        W26003  17.233   2.918  23.621  0.0582  0.0242  0.0446
83013W        W26004   0.325   7.186  29.011  0.3720  0.0906 -0.2688
83014W        W26005  20.687  25.434  14.291 -0.0131  0.0752 -0.1060
83015W        W26006  33.175  31.833  14.189  0.0704 -0.0385  0.1299
83016W        W26007  13.094  13.289  20.229  0.4476  0.2471  0.1371
83017W        W26008  24.179  33.150  16.678 -0.1003 -0.3180 -0.0333
83018W        W26009  28.678  34.487  14.942 -0.0989  0.0475  0.0073
83019W        W26010  22.349  10.511  20.350  0.3355 -0.1117 -0.1380
83020W        W26011   1.012  29.486  18.061 -0.4149 -0.2525  0.1462
83021W        W26012  15.165   5.813  27.540  0.2192  0.1511  0.1875
83022W        W26013  20.540   1.264  21.651  0.0284 -0.0164 -0.1823
83023W        W26014  18.085  24.809  13.456  0.0244  0.2127  0.2597
83024W        W26015  34.635  12.855  22.840 -0.0472 -0.1383  0.1697
83025W        W26016  14.977  33.799  14.121 -0.1701  0.1371 -0.3770
83026W        W26017   5.269  30.054  19.535  0.2052 -0.0584  0.1231
83027W        W26018  31.190  23.333   2.729  0.2489  0.0413  0.4204
83028W        W26019  21.821   5.982  25.663 -0.0664  0.0721 -0.3101
83029W        W26020  26.509   1.137  20.046  0.1907  0.0289 -0.0146
83030W        W26021  18.375  24.017  17.044  0.0486 -0.1664  0.2221
83031W        W26022  13.726   1.526  26.127  0.2900  0.0376 -0.0516
83032W        W26023  22.691  21.466  14.546 -0.1102 -0.0595 -0.1547
83033W        W26024   7.130   6.570  18.232 -0.1767  0.1007  0.1336
83034W        W26025  30.760  27.950  24.774 -0.1411  0.1094  0.2747
83035W        W26026  17.091   5.784  29.222  0.1989 -0.0872 -0.0569
83036W        W26027   6.760   7.673  20.450  0.1866 -0.0939 -0.0611
83037W        W26028  13.086  33.865  14.801 -0.2712  0.1374  0.4338
83038W        W26029  33.066  18.610   0.348 -0.2431  0.0325  0.0232
83039W        W26030  29.102  26.878  22.033  0.1069 -0.0450 -0.0367
83040W        W26031  14.263   9.633  27.345 -0.0450 -0.0949 -0.0175
83041W        W26032   4.034  15.734   4.679 -0.1333  0.1401  0.1042
83042W        W26033  24.572  11.731  20.094 -0.1188 -0.0432 -0.2933
83043W        W26034  20.622  14.648  21.699 -0.0721 -0.1427 -0.2233
83044W        W26035  20.393  13.020  15.315  0.0516  0.0873  0.1524
83045W        W26036  18.656  17.066  24.181 -0.2836 -0.2505 -0.3529
83046W        W26037  21.932   9.941  19.632 -0.1502  0.3101 -0.0478
83047W        W26038  16.038   4.129  18.080  0.1854 -0.0927 -0.1528
83048W        W26039  26.111   3.440  14.579  0.0590  0.0834 -0.0200
83049W        W26040  24.208  24.167  18.768 -0.0648 -0.1818 -0.2166
83050W        W26041  33.515  23.586  16.363  0.2269  0.1707 -0.1299
83051W        W26042  13.060  25.334  28.527  0.0034  0.1413  0.1673
83052W        W26043  17.769  32.772  15.714 -0.1233 -0.1089 -0.4691
83053W        W26044  24.616   1.721  19.099 -0.0525  0.2044 -0.0165
83054W        W26045  16.523   5.625   2.340 -0.0770  0.0321  0.0664
83055W        W26046  10.967  29.294  14.371 -0.0982 -0.0558 -0.1472
83056W        W26047  24.063  27.582  23.317  0.3650 -0.1424  0.2651
83057W        W26048  33.176  10.543  20.065 -0.1855 -0.2374  0.2215
83058W        W26049  31.185  20.852  23.219  0.0359  0.1909 -0.2930
83059W        W26050  17.258  10.483  16.657 -0.2182 -0.2107  0.3684
83060W        W26051  25.036   3.120  23.230  0.0294 -0.1523  0.0417
83061W        W26052   0.769  20.257  15.466  0.0262  0.0647 -0.5375
83062W        W26053  20.470   6.268  26.807 -0.2693 -0.0278 -0.0114
83063W        W26054  20.182   7.483   1.583  0.1548  0.0144  0.0586
83064W        W26055  19.438   5.278   4.475 -0.2319 -0.0168  0.2333
83065W        W26056  11.779  20.498  16.971 -0.2447  0.1427 -0.2404
83066W        W26057  28.618   1.103   1.011 -0.0091  0.1886  0.0314
83067W        W26058   8.850  33.647  18.259  0.1992  0.0401 -0.1833
83068W        W26059  20.041   6.956  19.000 -0.0434  0.0659  0.4269
83069W        W26060  26.030  17.197  21.616 -0.0734  0.1623  0.2234
83070W        W26061   9.295  27.050  22.767  0.0606 -0.1297  0.1729
83071W        W26062  13.659  25.886  18.715  0.0674  0.0474  0.0774
83072W        W26063  28.845  14.792  18.596 -0.4914  0.3427  0.0428
83073W        W26064  33.113  13.076  15.634 -0.1373  0.1183  0.0655
83074W        W26065   5.797  29.997  14.768 -0.2425 -0.1536  0.0374
83075W        W26066  10.843  28.993  26.166  0.0729 -0.5505 -0.1474
83076W        W26067  12.637  29.176  22.092  0.1399  0.4270  0.0076
83077W        W26068  32.306  31.208  21.620 -0.2399  0.0949 -0.0967
83078W        W26069  19.092  22.370   1.648 -0.1917  0.1693 -0.0577
83079W        W26070  32.046   6.353   2.584 -0.2448 -0.0289 -0.0278
83080W        W26071   8.393  25.363  15.707  0.0577  0.2801 -0.0793
83081W        W26072  23.057  10.506  17.623 -0.2748  0.1032 -0.0643
83082W        W26073  21.128  14.485  16.165 -0.1567 -0.0522 -0.0146
83083W        W26074  30.997  11.649   3.282  0.2004  0.1071  0.2458
83084W        W26075  20.593  19.434  27.940  0.2262 -0.2864  0.3164
83085W        W26076  17.290  16.531  14.812  0.1340  0.0559  0.0866
83086W        W26077  27.167  14.426  23.148  0.0943  0.0902 -0.0513
83087W        W26078  27.024  21.817  15.954 -0.0994 -0.0498  0.1979
83088W        W26079  23.634   5.515  23.482  0.1820 -0.1777 -0.0806
83089W        W26080  19.818   0.725  23.441  0.4370 -0.1036 -0.1623
83090W        W26081  21.623   2.316  17.007 -0.0067 -0.1735  0.1311
83091W        W26082  18.785  12.882  26.488 -0.0263  0.2677  0.2258
83092W        W26083  28.689  13.932  24.272  0.0893 -0.3688 -0.3369
83093W        W26084  21.050  29.834  19.561  0.2234 -0.0964 -0.4103
83094W        W26085  15.903   3.948  15.104 -0.2461 -0.0274 -0.1437
83095W        W26086  18.730  29.533  18.404 -0.4681 -0.2188 -0.2201
83096W        W26087  21.156   9.147  22.153  0.1843 -0.0875  0.1338
83097W        W26088  27.706   8.135  19.430 -0.1971 -0.2651  0.1140
83098W        W26089  32.874  33.333  25.765 -0.0249 -0.1166 -0.1181
83099W        W26090  29.741  34.027  23.153 -0.3693 -0.0648 -0.0861
83100W        W26091  25.117   4.552  22.517 -0.0322  0.0658 -0.1748
83101W        W26092  24.314  18.933  27.737 -0.2864 -0.2459  0.0564
83102W        W26093   9.537   4.144  20.120  0.0042 -0.2495 -0.5263
83103W        W26094  25.059  33.227  22.758  0.0170  0.2409 -0.1262
83104W        W26095  17.289  30.381  17.427 -0.0896  0.0008  0.0397
83105W        W26096  24.468   0.725  27.268  0.1553 -0.0742 -0.0983
83106W        W26097  34.266   7.421   9.752  0.3330  0.2317  0.1585
83107W        W26098  27.990  25.228  22.564  0.0161  0.1043  0.1647
83108W        W26099   9.687  34.231   7.772  0.1115  0.2804  0.1138
83109W        W26100  25.395   1.224   3.961  0.1452 -0.1237  0.0908
83110W        W26101  27.573   4.066  24.305 -0.1425  0.0514  0.0470
83111W        W26102  17.800  27.702  23.833  0.0098  0.2571  0.1066
83112W        W26103   6.685   2.859  18.088  0.0769  0.1811  0.0325
83113W        W26104  19.069  15.999  12.642 -0.1509 -0.2648  0.2178
83114W        W26105  28.303  25.881  14.852  0.0470 -0.1971 -0.1182
83115W        W26106   0.690  26.266  25.137  0.1328  0.2142 -0.0502
83116W        W26107   5.254   0.931  18.179 -0.0655  0.0040  0.1866
83117W        W26108   4.960  33.601  19.619  0.1511  0.1088 -0.0363
83118W        W26109  28.322  27.772  14.457 -0.1795  0.0087 -0.1945
83119W        W26110  20.129   9.506  17.509  0.4361 -0.1427 -0.0401
83120W        W26111  10.699   5.475   0.249 -0.0961  0.1532  0.1591
83121W        W26112  28.350  32.560   3.071 -0.3045  0.3489  0.4442
83122W        W26113  21.758  29.160  24.505  0.2700  0.0239 -0.3826
83123W        W26114  26.153  22.582  27.168 -0.0853 -0.0420 -0.2524
83124W        W26115  31.756  12.226  17.877 -0.1958 -0.4207 -0.2834
83125W        W26116  26.328   3.212  15.681  0.0445 -0.1446  0.0034
83126W        W26117  25.900   5.992  27.214 -0.0167 -0.1891  0.5361
83127W        W26118   5.826   6.573  23.507  0.0350 -0.0680 -0.0790
83128W        W26119  34.315  32.481  26.155  0.2420 -0.1915 -0.0583
83129W        W26120  33.343  13.996  23.319  0.0185 -0.0407 -0.0896
83130W        W26121  33.449  13.473  22.475 -0.1039 -0.2048 -0.0429
83131W        W26122  32.892  18.450  21.707  0.1718 -0.0667 -0.1205
83132W        W26123  23.619  12.403  17.960  0.0477 -0.2296 -0.0835
83133W        W26124  26.897   1.227  26.050 -0.1474  0.0833 -0.1016
83134W        W26125  11.188   4.483  26.113  0.0150 -0.3798 -0.0362
83135W        W26126  11.876  23.567  14.991  0.1478  0.1638  0.1861
83136W        W26127  23.837  27.119  19.821  0.0114 -0.2612 -0.2334
83137W        W26128  24.829   7.235  24.588  0.1125  0.0633  0.3461
83138W        W26129  30.268   1.309  15.799 -0.1515  0.0335  0.0381
83139W        W26130   8.335   3.029  19.856 -0.2185  0.1737  0.0923
83140W        W26131  15.868  18.847  23.834 -0.3799  0.0270  0.3897
83141W        W26132  17.484   1.532  22.022  0.3916 -0.1754  0.0409
83142W        W26133   5.264   7.551  24.322  0.0200  0.1697 -0.1153
83143W        W26134  29.247  32.050  24.151  0.0519  0.1100  0.0108
83144W        W26135  27.163  34.617  25.576  0.1106  0.3238 -0.3731
83145W        W26136  21.079   6.227  24.565  0.2849 -0.0954 -0.2261
83146W        W26137  22.552  22.184  18.727  0.1169 -0.2982  0.1326
83147W        W26138   2.043   9.176   4.038  0.0879  0.0171 -0.2958
83148W        W26139  30.563   4.206  24.485 -0.2161 -0.2120  0.4531
83149W        W26140  15.669  31.373  17.894  0.1759 -0.2204 -0.1893
83150W        W26141   4.826  33.787  23.020 -0.2104 -0.0965  0.3054
83151W        W26142  28.085  34.188  12.841 -0.0980  0.0235 -0.0060
83152W        W26143   3.885  13.524  28.353  0.1708  0.2206 -0.0596
83153W        W26144  22.764  30.229  21.070  0.0124 -0.0351 -0.1606
83154W        W26145  16.940   9.700  19.707  0.0936  0.1807 -0.0870
83155W        W26146  26.144  17.395  22.194  0.1700 -0.0510  0.0098
83156W        W26147  12.009  25.566  14.619 -0.0550  0.0034  0.0354
83157W        W26148  26.206  30.571  17.942 -0.3105  0.0168 -0.3240
83158W        W26149  32.023  27.446  25.463 -0.1904  0.2534 -0.1639
83159W        W26150  10.956  10.601  19.274  0.0971 -0.1744  0.4179
83160W        W26151  15.396  32.112   0.383  0.0171  0.0132  0.1851
83161W        W26152  12.226  24.435  15.511  0.0480  0.1415 -0.1159
83162W        W26153  23.404   5.112   1.974 -0.0235 -0.0141 -0.2028
83163W        W26154  22.222  29.981  17.062 -0.1392 -0.0190  0.1370
83164W        W26155  23.935  29.315  28.513  0.2756  0.1076  0.1356
83165W        W26156   4.078  13.904   0.586 -0.2433  0.2280  0.1603
83166W        W26157  16.571  15.165  14.223 -0.1964 -0.0189 -0.4029
83167W        W26158  31.759   5.976  16.044  0.1623  0.0286 -0.3744
83168W        W26159   1.849   1.287  23.992  0.1840 -0.0073  0.3005
83169W        W26160  18.880  26.178  21.549  0.0132  0.1507  0.0025
83170W        W26161  31.373  20.203  14.014 -0.1093 -0.1970  0.1040
83171W        W26162  32.272   3.845  13.927  0.0185  0.0671 -0.3731
83172W        W26163   5.555  26.097  28.624 -0.0672  0.0121 -0.2609
83173W        W26164  19.175  34.166  24.232  0.2066  0.1787  0.0184
83174W        W26165  29.532  25.095  20.077  0.0767 -0.0620 -0.0458
83175W        W26166  20.079   0.312  19.004  0.2027  0.2534  0.0187
83176W        W26167  18.439   6.228  17.687 -0.0956 -0.2125  0.0041
83177W        W26168  10.127  16.187   2.258  0.2562  0.0283  0.2896
83178W        W26169  32.451  15.041  19.881 -0.0655  0.1509 -0.0349
83179W        W26170  16.594  11.422  19.485  0.0199  0.0169  0.0223
83180W        W26171  25.519  18.006  21.439 -0.0092  0.1673  0.3874
83181W        W26172  27.725  30.111  22.786  0.0991 -0.2639  0.1520
83182W        W26173  21.231  25.818  25.225 -0.0648 -0.1074 -0.4865
83183W        W26174   2.040  31.695  17.385  0.1241 -0.1263  0.1976
83184W        W26175  20.255  29.376   2.164 -0.3394 -0.0587  0.2572
83185W        W26176  22.215   9.096   0.535 -0.0869 -0.2161 -0.2721
83186W        W26177   7.495   1.599  15.773  0.0006 -0.0171 -0.2994
83187W        W26178  26.103  22.043  24.705 -0.1093  0.0341 -0.0650
83188W        W26179  21.784  11.933   1.907 -0.0678  0.3664  0.1595
83189W        W26180  17.755  11.235  16.077 -0.0386 -0.0900 -0.0306
83190W        W26181  27.316  21.884  15.549  0.2608  0.5212 -0.2907
83191W        W26182  24.175   6.097  14.112 -0.0632 -0.0679 -0.0615
83192W        W26183  22.356  30.129  24.948  0.2337  0.1155  0.1115
83193W        W26184  26.790   4.081  14.221  0.1374 -0.0525  0.0712
83194W        W26185  20.807  34.229   1.999 -0.0117 -0.1858 -0.2621
83195W        W26186  32.647  32.384  21.733 -0.0452  0.1215 -0.4313
83196W        W26187  22.417  33.986  16.652  0.1700  0.3600 -0.1411
83197W        W26188   1.956  14.036  20.493  0.0006 -0.0341  0.1143
83198W        W26189  31.229  15.795  24.342 -0.0947  0.1133 -0.1889
83199W        W26190  12.868  30.766  19.784 -0.0485  0.1306 -0.2122
83200W        W26191  30.550  29.365  15.891  0.0712  0.1089 -0.1420
83201W        W26192  15.343  29.210  23.605 -0.0339  0.2427 -0.0176
83202W        W26193  21.410  22.948  18.394  0.0698 -0.0467  0.1527
83203W        W26194  24.716  10.195  24.483 -0.0677  0.2019  0.3670
83204W        W26195  25.554  17.425  23.694  0.0315  0.0420  0.2406
83205W        W26196  28.836  33.656  13.885  0.0034  0.0814 -0.0218
83206W        W26197  19.363   5.573   4.891  0.1178  0.2640  0.1408
83207W        W26198  32.478  31.114  21.034  0.1960 -0.0771  0.0636
83208W        W26199  29.993  34.134  20.674 -0.2692 -0.2922  0.1506
83209W        W26200  30.396   9.828   3.207 -0.2813  0.1770  0.3334
83210W        W26201  16.217  12.329  26.679  0.0200  0.0023 -0.0195
83211W        W26202  26.777   4.732  13.807 -0.1705  0.0045 -0.2678
83212W        W26203  13.454   4.566  18.667 -0.3640  0.1132  0.0457
83213W        W26204   9.858  31.967  21.237 -0.1993 -0.0410 -0.0165
83214W        W26205  11.381  27.870  26.767  0.0306  0.0892  0.0343
83215W        W26206   0.932  33.864  17.710 -0.2154  0.1188  0.1269
83216W        W26207  26.280  14.408  26.231 -0.1791  0.0475 -0.0950
83217W        W26208   6.989   9.711  23.079 -0.3620  0.2130 -0.1932
83218W        W26209  24.759  32.268  15.511  0.0658  0.2288  0.0118
83219W        W26210  23.053   9.239  16.524  0.2663  0.0236  0.0347
83220W        W26211  22.059  31.206  20.270 -0.0700  0.0447 -0.1823
83221W        W26212  22.571  29.159  24.178 -0.4521  0.0830  0.0503
83222W        W26213  11.337   3.760  27.138  0.1045 -0.2004 -0.1102
83223W        W26214  26.326  16.658  16.864 -0.0883  0.1205 -0.1481
83224W        W26215  23.511  29.192   1.392  0.1733 -0.2181 -0.0006
83225W        W26216  28.218  29.800   5.113 -0.5235  0.3769 -0.0875
83226W        W26217  24.525  34.665  19.324 -0.2716 -0.4263  0.0013
83227W        W26218  27.768  22.199  16.383 -0.0472 -0.1119 -0.1922
83228W        W26219  25.170  30.568  25.377 -0.0515  0.1201  0.0720
83229W        W26220  12.289   1.532  23.044 -0.0287  0.1508  0.0503
83230W        W26221  30.720  15.337  14.867  0.0399  0.2261  0.0964
83231W        W26222  13.691   0.856  19.041  0.1150 -0.0363 -0.0956
83232W        W26223  18.739  22.918  21.801 -0.0900  0.1283  0.2302
83233W        W26224  20.920  34.502  17.324 -0.1377  0.1294 -0.0067
83234W        W26225  10.006  29.895  19.800 -0.1626  0.1136  0.0865
83235W        W26226  32.260  11.201  23.913 -0.4014 -0.0978 -0.0009
83236W        W26227  19.682  16.054  14.605  0.0611 -0.0159 -0.2663
83237W        W26228  27.040  32.684  21.458  0.0681 -0.1140  0.0878
83238W        W26229  25.402   7.813  22.408 -0.1890  0.1108 -0.1555
83239W        W26230   0.847   5.701  19.742 -0.1355  0.2840  0.2057
83240W        W26231   8.466   1.771  25.589  0.2362 -0.0378 -0.0393
83241W        W26232  14.884  23.889  14.692 -0.0630 -0.0167 -0.0469
83242W        W26233  21.227   7.544  14.408  0.6362 -0.0802  0.1655
83243W        W26234   4.959  11.459  23.769 -0.2327  0.1837 -0.0136
83244W        W26235  24.097   5.628  14.381  0.0046  0.1094  0.4292
83245W        W26236   7.454  11.088  16.133 -0.1950 -0.1450  0.2271
83246W        W26237  20.128   5.658  20.537  0.0846 -0.1574 -0.2091
83247W        W26238   7.405  27.467  22.412  0.0873 -0.0382 -0.2311
83248W        W26239  26.605   4.233  25.609  0.0511  0.0941  0.0720
83249W        W26240   6.902   2.890  27.030 -0.1404  0.0084  0.2103
83250W        W26241  10.319   4.554  20.501 -0.1637 -0.6780 -0.0479
83251W        W26242  25.222  31.025  14.100 -0.1327  0.0659  0.1140
83252W        W26243   7.514  29.816  28.822 -0.3044 -0.0788 -0.3212
83253W        W26244  29.269  19.763  23.708 -0.1608  0.2914  0.1553
83254W        W26245  33.836  32.712   9.800  0.3091  0.4263  0.1350
83255W        W26246   1.845  15.860  18.520 -0.2544 -0.2758 -0.1224
83256W        W26247   3.526  23.237  23.095  0.0028  0.2027 -0.4033
83257W        W26248   4.870  16.072  25.892 -0.0139 -0.1645  0.2023
83258W        W26249  26.938   7.527  20.890 -0.1137  0.1812 -0.3678
83259W        W26250  22.667   5.206  25.755 -0.0960  0.1208 -0.2811
83260W        W26251   4.410  30.545  20.628 -0.0244  0.1143  0.3929
83261W        W26252  28.801  31.613  26.998 -0.2787 -0.0637  0.0201
83262W        W26253  14.525  22.970  25.236  0.0811 -0.3876 -0.1448
83263W        W26254  34.710   7.154   4.104 -0.1892 -0.2814 -0.1910
83264W        W26255  19.656  14.443  24.797  0.4128  0.0906  0.1447
83265W        W26256  30.230   4.343  20.345  0.1455 -0.1170 -0.0500
83266W        W26257   4.930  24.094  21.196 -0.0716 -0.0304  0.1886
83267W        W26258  21.759  25.678  27.626  0.3158 -0.0590 -0.3226
83268W        W26259  26.208  30.432  21.684 -0.2041  0.1943  0.2268
83269W        W26260  26.386   5.611  14.712 -0.0520  0.1265  0.1384
83270W        W26261  30.835  30.336  16.195 -0.0325 -0.1920 -0.1508
83271W        W26262  31.978  20.131  26.963 -0.2078  0.0652  0.0184
83272W        W26263  19.344  30.058  25.495 -0.0899 -0.1135  0.2525
83273W        W26264  17.155   8.006  20.344  0.1834 -0.0598  0.1138
83274W        W26265  21.874  10.121  17.494  0.1583  0.2130 -0.0501
83275W        W26266   9.663  30.454  16.046 -0.1100 -0.0023  0.2193
83276W        W26267   7.812   3.657  26.070 -0.1898  0.2741  0.1439
83277W        W26268  16.367   3.340  16.118 -0.3487 -0.0753 -0.0730
83278W        W26269  21.685   2.728  18.147 -0.3255 -0.1526 -0.0989
83279W        W26270  15.390   8.131  25.538 -0.3714 -0.1926  0.0755
83280W        W26271  21.854   0.615  21.731 -0.2475  0.0325 -0.0135
83281W        W26272  10.530   0.364  18.481 -0.0482  0.0604  0.1009
83282W        W26273  26.476  11.480   0.052  0.0601 -0.0463 -0.0745
83283W        W26274  11.570   5.401  19.312 -0.0783 -0.0338 -0.1212
83284W        W26275  19.966   7.066  20.881  0.2515  0.1451  0.3720
83285W        W26276  12.606  33.378  16.387 -0.2129  0.0345 -0.0402
83286W        W26277  20.508  31.500  14.992 -0.0126 -0.3508  0.0164
83287W        W26278  18.590   8.953  17.763 -0.0322 -0.2368  0.2725
83288W        W26279  16.187  21.454   2.322  0.3891 -0.0545 -0.3038
83289W        W26280  27.965  12.944  21.557  0.0560 -0.2267 -0.2082
83290W        W26281  33.970  28.453  16.347 -0.1167  0.2308 -0.0386
83291W        W26282  15.519  11.803   3.282 -0.2961  0.1782  0.0121
83292W        W26283  26.777   9.093  15.501 -0.0636 -0.2265  0.2248
83293W        W26284  13.581   7.781   2.812  0.1508  0.0737 -0.0426
83294W        W26285   5.378   0.861  21.614  0.1575  0.0415  0.3243
83295W        W26286  22.296  31.005  14.630 -0.0607  0.0881 -0.2311
83296W        W26287  30.797   6.402  13.556  0.2118 -0.2455 -0.1176
83297W        W26288  17.807  31.625  17.552 -0.1346 -0.0306  0.0592
83298W        W26289  14.027  29.493  17.774 -0.2632  0.0850 -0.1631
83299W        W26290   8.507   4.937   2.294  0.2322 -0.3937 -0.2698
83300W        W26291  17.447   4.621  25.636  0.1625 -0.1084  0.1601
83301W        W26292  21.398  31.406   6.219 -0.0691  0.0203  0.0986
83302W        W26293  15.796  30.145  25.642  0.1361 -0.0044 -0.0106
83303W        W26294  18.775  23.993  21.853  0.0284  0.2634  0.1276
83304W        W26295  14.199   5.678  21.535 -0.1592 -0.1976 -0.1767
83305W        W26296  27.275   0.497  27.434 -0.0243 -0.1829  0.1400
83306W        W26297  25.518  31.236  15.011  0.3271 -0.0995  0.1128
83307W        W26298  34.425  13.748  17.513 -0.1883 -0.1321  0.0233
83308W        W26299  33.641  30.212  25.093 -0.0392  0.2396 -0.1382
83309W        W26300  33.053  15.674  20.587  0.1432 -0.3401  0.1666
83310W        W26301  19.759   0.670  26.600  0.1580 -0.3468  0.3287
83311W        W26302  23.565   7.385  22.652  0.0859  0.1034  0.0048
83312W        W26303  15.065  29.661  23.486  0.0735 -0.1220  0.1963
83313W        W26304  20.098  15.682  24.790  0.3095  0.0976 -0.1059
83314W        W26305  12.838   2.066  19.048 -0.1533 -0.1920 -0.1621
83315W        W26306  22.373  24.972  13.347  0.2281 -0.0039 -0.0292
83316W        W26307  33.264  28.878  24.684 -0.1934 -0.1527  0.1354
83317W        W26308   9.332  32.165  21.439 -0.0025  0.0072  0.0399
83318W        W26309   2.317  25.159  16.178 -0.1330 -0.1492 -0.0512
83319W        W26310   3.252  31.662  27.945  0.1129  0.1140  0.2112
83320W        W26311  26.391  21.231  21.195 -0.1891  0.1285  0.1016
83321W        W26312   2.823  10.567   0.862  0.4642  0.1190 -0.0590
83322W        W26313   6.440   2.573   4.776 -0.1412 -0.0660  0.3213
83323W        W26314  21.200  25.940   2.203 -0.1104 -0.2132  0.0648
83324W        W26315  13.024   8.613  17.273 -0.1473  0.1468  0.0071
83325W        W26316   0.071   9.120  16.627  0.0850 -0.0510  0.0809
83326W        W26317  17.149  33.779  21.464 -0.1097  0.0546 -0.0592
83327W        W26318  13.039   0.401  20.249  0.0846 -0.0285  0.1882
83328W        W26319  28.859   1.215   3.707 -0.0898 -0.1149 -0.1023
83329W        W26320  14.942  11.386  18.423 -0.0324  0.1466  0.1277
83330W        W26321  20.858   4.965  21.107  0.1157  0.1440 -0.1523
83331W        W26322  10.409  34.340  22.567 -0.0761 -0.1627 -0.1989
83332W        W26323  31.681   2.449  22.407 -0.0879  0.0630  0.0178
83333W        W26324   0.091   2.198  25.864 -0.0585 -0.1583 -0.3209
83334W        W26325  24.667  33.644  15.803 -0.1421 -0.2656 -0.0843
83335W        W26326   8.307   0.217  20.546 -0.1028  0.0366 -0.0700
83336W        W26327  30.581   0.627  13.498  0.0585  0.3047  0.1095
83337W        W26328  19.420   6.928  18.062 -0.2705 -0.1106 -0.1330
83338W        W26329  16.734  25.991  19.850 -0.0881 -0.0104 -0.0866
83339W        W26330  21.598  21.365  14.741  0.0136 -0.2740 -0.1636
83340W        W26331   6.980  11.735  17.179  0.0200 -0.1281 -0.0997
83341W        W26332  18.544   3.829   6.115 -0.1404  0.0440  0.0205
83342W        W26333  25.708  23.073  28.342 -0.3242 -0.1267  0.0222
83343W        W26334  29.154  28.817  26.027  0.4228 -0.0735  0.2209
83344W        W26335  12.591   8.363  23.268  0.0155  0.3134  0.2461
83345W        W26336  30.472   7.385   6.236  0.4144 -0.3448  0.2315
83346W        W26337  13.928   8.004  25.030  0.0490  0.0189  0.0947
83347W        W26338  16.119  13.826   4.787  0.1977  0.2838 -0.0176
83348W        W26339  14.687   4.470  19.937  0.2466  0.1473 -0.2821
83349W        W26340  25.994   8.665  17.469  0.1769 -0.0571 -0.0724
83350W        W26341   8.750  34.367  19.313  0.1892  0.3191  0.0344
83351W        W26342  23.182  23.000  21.549 -0.0447  0.1438 -0.4839
83352W        W26343  12.885  20.513  16.841  0.2865  0.0378 -0.0466
83353W        W26344  23.482  24.101  12.942 -0.0274  0.0558  0.5769
83354W        W26345  25.901  11.864  18.053  0.1102 -0.0135 -0.1342
83355W        W26346  25.639   4.272  13.629  0.0128  0.4069  0.0146
83356W        W26347  21.297  31.967  16.446  0.3322 -0.3522 -0.0191
83357W        W26348   8.929  27.839   5.351  0.0473 -0.1146  0.5505
83358W        W26349  17.746   5.017   3.731  0.1005  0.2542 -0.1086
83359W        W26350  23.032  31.442  15.055 -0.1256 -0.2417 -0.1042
83360W        W26351  23.808   1.448  16.652 -0.1560 -0.0509 -0.4959
83361W        W26352  21.900   0.376  23.250  0.2987  0.2089  0.3602
83362W        W26353   6.213  11.241  15.680 -0.2293  0.0279  0.0797
83363W        W26354  25.717   8.234  26.374  0.0706 -0.1947 -0.1871
83364W        W26355  16.088   2.765  21.692  0.1488 -0.0742 -0.1968
83365W        W26356  14.855   2.252  17.796  0.2470  0.2406  0.2053
83366W        W26357   0.291  28.581   2.226 -0.2228  0.0474 -0.1545
83367W        W26358  27.631  12.884   4.464 -0.3198  0.0164  0.3437
83368W        W26359   5.620  13.907  21.088 -0.2284 -0.1671  0.2202
83369W        W26360  27.428   3.079  18.193 -0.0405 -0.1999  0.2074
83370W        W26361  15.350   9.279   0.640  0.1120  0.1342  0.0528
83371W        W26362  30.101  32.231  24.698  0.0929 -0.1562 -0.2711
83372W        W26363  17.421  10.643  25.171 -0.4921 -0.0376  0.1316
83373W        W26364  26.938   2.553  18.514 -0.0782 -0.3271  0.1692
83374W        W26365  14.176  19.178  25.968  0.1241 -0.0184 -0.1758
83375W        W26366  18.583   9.402  29.161  0.0053  0.1452 -0.0030
83376W        W26367  25.727   9.755  14.643  0.1449  0.1086 -0.3088
83377W        W26368  14.298   2.283  19.266  0.1608 -0.1883  0.3319
83378W        W26369   5.404   0.770  22.545  0.1709 -0.0249 -0.1350
83379W        W26370   7.990  10.879  22.495 -0.1929 -0.3544  0.0931
83380W        W26371  18.183  13.702  23.966 -0.2167  0.1014  0.0516
83381W        W26372  25.767   4.656  24.635  0.4227 -0.2161  0.0364
83382W        W26373  30.001  26.856  25.012 -0.1405  0.0708  0.0461
83383W        W26374   8.860  29.629  27.787 -0.0420  0.2896  0.3362
83384W        W26375  14.024  14.418  15.525 -0.0419  0.0526  0.0467
83385W        W26376  34.005  24.109  15.976 -0.0558  0.0799  0.1206
83386W        W26377  23.707   5.269  25.063  0.1616  0.0920  0.1036
83387W        W26378  16.846  26.521   4.338  0.0662 -0.1719  0.1139
83388W        W26379  29.235  29.055  12.355  0.4050 -0.2936 -0.0385
83389W        W26380  18.611   0.688  28.976  0.2200 -0.3803 -0.2758
83390W        W26381  14.119  29.279   8.535 -0.1372 -0.1188 -0.0947
83391W        W26382  16.298  21.554  13.878  0.3567 -0.3015  0.1828
83392W        W26383  27.808   4.211   7.595  0.0201  0.4644 -0.2215
83393W        W26384  17.206   4.002   2.337 -0.2151  0.2976  0.0160
83394W        W26385   3.649  33.652  14.587 -0.0445 -0.1749  0.3712
83395W        W26386  13.755   4.827  20.519 -0.0727  0.0412 -0.1309
83396W        W26387  31.363  20.235  15.422  0.0481  0.0133  0.0018
83397W        W26388  30.496  29.956  13.888  0.0421 -0.0827 -0.3821
83398W        W26389  18.004  18.441  26.090  0.0429 -0.2217 -0.1684
83399W        W26390  32.150   8.258  25.084  0.0728  0.0029 -0.1602
83400W        W26391  30.685   3.899  27.705 -0.1269 -0.2310  0.0230
83401W        W26392  32.285   7.086  27.521 -0.1186 -0.1908  0.0659
83402W        W26393  17.979   5.815  18.582 -0.0301 -0.1639 -0.5038
83403W        W26394  17.971  30.983  24.833  0.0688  0.2624  0.2725
83404W        W26395  18.029  19.530  22.922 -0.3213  0.0396  0.2951
83405W        W26396  25.437   9.691   7.257  0.1005 -0.0433 -0.0825
83406W        W26397  10.604   7.453  28.130  0.0253  0.0381 -0.0494
83407W        W26398  17.305   6.334  27.908  0.1073  0.0714  0.2786
83408W        W26399  23.401   2.396  16.264  0.0586  0.2582  0.0059
83409W        W26400  19.959  17.002  12.809  0.0627  0.1079  0.0646
83410W        W26401  32.045  28.975  16.699  0.4604 -0.2240  0.2272
83411W        W26402  11.343   9.757   2.999  0.0504 -0.2082 -0.0493
83412W        W26403  19.358   1.964  25.951 -0.0743  0.1909 -0.0542
83413W        W26404  30.638  30.381   4.274  0.1788 -0.1650  0.1333
83414W        W26405  26.173   1.837  18.013  0.0060  0.0475  0.1856
83415W        W26406  15.739  26.916  15.107 -0.0781  0.1905 -0.1109
83416W        W26407  30.432  31.318  24.674  0.0531  0.0565 -0.0829
83417W        W26408   6.342   2.630  20.552 -0.1918 -0.3890 -0.1508
83418W        W26409  15.873  27.832  14.360  0.1223 -0.0719 -0.3002
83419W        W26410  34.367  17.194  17.805  0.1546  0.0939 -0.1371
83420W        W26411  25.130  15.798  19.111 -0.1429 -0.2144  0.1873
83421W        W26412  31.943  19.797  19.353 -0.1461  0.3028 -0.2784
83422W        W26413   3.696  10.778  15.775 -0.2478 -0.3903 -0.0592
83423W        W26414  33.922   1.320   3.409 -0.1271  0.0510 -0.0040
83424W        W26415   6.626  29.275  14.683 -0.2283  0.0235 -0.0657
83425W        W26416  19.119   2.452  22.962  0.0430 -0.1385 -0.2235
83426W        W26417  22.827  25.006  13.628  0.4894 -0.0492  0.3836
83427W        W26418  20.446  24.115  25.852 -0.1783  0.1723  0.2257
83428W        W26419  34.564   9.730  21.494 -0.0534 -0.2594 -0.0187
83429W        W26420   3.990  32.619  16.305 -0.0749  0.0548 -0.1130
83430W        W26421  25.433  16.130  15.379  0.3171  0.2713 -0.1423
83431W        W26422  11.122  30.847  22.858  0.1714 -0.1070  0.4493
83432W        W26423  28.743   8.941   8.754  0.2348 -0.0364  0.2427
83433W        W26424  21.099  27.185  19.722 -0.1815  0.0531  0.0678
83434W        W26425  13.899   0.973  14.508 -0.0578  0.2183 -0.0045
83435W        W26426   1.580   0.684  26.400 -0.0164 -0.0995  0.0017
83436W        W26427  16.189  32.256  14.643  0.3461 -0.0541  0.1543
83437W        W26428  33.999  21.733   6.720 -0.2121 -0.0143 -0.2012
83438W        W26429  29.725  34.216  21.896 -0.2287 -0.0346  0.0859
83439W        W26430  14.098  31.338   0.895 -0.0768  0.0143  0.2051
83440W        W26431  29.310   7.721  17.369  0.0255 -0.0506 -0.1495
83441W        W26432  22.051   8.662  24.141  0.2164 -0.1578  0.3467
83442W        W26433   1.779  23.923  20.123  0.1838  0.0491  0.2391
83443W        W26434  27.151  30.858   0.041 -0.0575 -0.1392  0.2109
83444W        W26435  10.602   2.066  22.228 -0.0582  0.1757  0.3728
83445W        W26436  34.602  29.170  26.011  0.0123 -0.2570 -0.0265
83446W        W26437  20.738   4.382  13.746  0.0110  0.0382  0.0098
83447W        W26438  17.522   3.779  20.926 -0.2119  0.0467 -0.1834
83448W        W26439  31.790  31.309  26.701  0.1478  0.2055  0.4096
83449W        W26440  25.489  34.503  25.779  0.0137  0.1934 -0.0044
83450W        W26441  12.236  31.227   2.935  0.2585  0.0729 -0.2514
83451W        W26442  25.565  16.886   4.652 -0.1712 -0.1048  0.1821
83452W        W26443  18.604   5.302   2.868 -0.1000 -0.0967 -0.0335
83453W        W26444  25.942  13.097  14.475  0.2801 -0.1337 -0.0142
83454W        W26445  25.128   8.536  14.122  0.0677  0.2906  0.0367
83455W        W26446   8.144  30.325  14.191  0.0512 -0.0418  0.0148
83456W        W26447  17.556  33.636  21.153  0.6761 -0.0252  0.2471
83457W        W26448   8.224  26.696  20.910  0.0021  0.0631 -0.0240
83458W        W26449  26.740   2.358  19.945 -0.3639 -0.0381 -0.2574
83459W        W26450  25.404  30.835   3.199 -0.2109 -0.1064 -0.0479
83460W        W26451  15.729  32.915  28.934 -0.1506 -0.1166 -0.0597
83461W        W26452   2.577   3.955  14.316  0.1136  0.0522  0.3287
83462W        W26453   9.202   7.737   4.761  0.1230  0.2046 -0.2136
83463W        W26454  24.701  23.573  14.642 -0.0346 -0.0316 -0.3383
83464W        W26455  33.357  29.629  19.056 -0.1549  0.0151  0.0990
83465W        W26456  12.019   5.505  16.241  0.2153 -0.0925 -0.2014
83466W        W26457  28.639   1.235  18.554  0.3943  0.2185 -0.1863
83467W        W26458  22.620  33.480  19.720  0.2344 -0.0347  0.0577
83468W        W26459  22.024   2.806   1.697 -0.0925  0.0506 -0.0931
83469W        W26460  27.883   5.911  26.361  0.0218 -0.0244  0.3351
83470W        W26461  21.097   0.393  20.676  0.2852  0.0743 -0.0302
83471W        W26462  23.250   8.398  21.775 -0.1169  0.0973 -0.3622
83472W        W26463  22.288   1.717  18.380  0.1728  0.0826 -0.1305
83473W        W26464  23.414   0.180  20.839 -0.2674  0.3288 -0.0621
83474W        W26465  34.426  31.501  17.255  0.0344 -0.0058  0.0690
83475W        W26466   3.194  16.756  28.859  0.0412 -0.0573 -0.0264
83476W        W26467  17.008  10.162  19.500  0.2421  0.2494 -0.1472
83477W        W26468  31.794   7.184  10.407 -0.2442  0.0230 -0.0813
83478W        W26469   3.369  23.032  25.083 -0.3509 -0.2952 -0.0912
83479W        W26470  22.809  29.012  12.252  0.0585  0.0198  0.2527
83480W        W26471  15.173   9.686  22.624 -0.1637 -0.0948  0.0728
83481W        W26472  22.829   8.874  20.570 -0.0837 -0.0629  0.0593
83482W        W26473  25.760  33.788   8.875 -0.2971  0.3226  0.1454
83483W        W26474   9.382   7.141  29.142 -0.3553 -0.0107 -0.0605
83484W        W26475  31.050   0.493   5.009  0.0279 -0.0504 -0.2167
83485W        W26476  19.259  20.698  13.470 -0.0406  0.2662 -0.0771
83486W        W26477  32.641  10.360  19.401 -0.0816 -0.3793  0.0898
83487W        W26478  24.796  34.400  27.292  0.0360 -0.2386  0.1103
83488W        W26479  19.367  10.559  25.378 -0.1528  0.2826  0.1052
83489W        W26480  15.836  15.612   1.127  0.0521  0.3975 -0.0746
83490W        W26481  25.860  12.466  21.900 -0.0930  0.2984 -0.1036
83491W        W26482   0.717  31.093  29.220  0.0818  0.0452 -0.1225
83492W        W26483  29.158  29.793  24.736  0.1762  0.1913  0.1863
83493W        W26484  20.721   7.190  18.523  0.1707 -0.0034  0.2736
83494W        W26485  13.365  24.493  13.893 -0.1753  0.0672 -0.1291
83495W        W26486   7.993   8.346  17.565 -0.0039  0.3029  0.0275
83496W        W26487   4.285  29.637   4.380  0.0646  0.1760 -0.3050
83497W        W26488  27.786   4.388  22.204  0.0278  0.0911  0.3186
83498W        W26489   9.480   2.900  22.478 -0.0717  0.2898  0.0041
83499W        W26490   5.078   0.373  24.952 -0.2960  0.2257 -0.3232
83500W        W26491  29.752  28.954   4.149  0.0554 -0.1250  0.2196
83501W        W26492   1.091   2.927   3.356 -0.1840  0.2041  0.0280
83502W        W26493  21.687  20.294  16.291 -0.1267  0.0845 -0.0258
83503W        W26494  32.071  15.026  27.332 -0.2394  0.1584 -0.0143
83504W        W26495  14.161  28.942  27.940  0.2833 -0.1454 -0.2689
83505W        W26496  17.191   0.225   2.816  0.1919  0.0635 -0.2870
83506W        W26497  20.915   6.562  17.915 -0.0016  0.2368  0.0224
83507W        W26498  26.776  27.169   2.795  0.1390  0.1818  0.4334
83508W        W26499   1.946  33.863   3.426  0.3580  0.1403 -0.1450
83509W        W26500   0.090   1.803  17.868  0.0186 -0.0467 -0.0046
83510W        W26501  17.506   5.441   0.837  0.0578 -0.0593  0.0844
83511W        W26502  18.797  34.552  25.599 -0.2663  0.0324  0.2428
83512W        W26503  27.189   0.705  18.722  0.1246  0.4263 -0.2506
83513W        W26504   8.757  27.944  16.653  0.1368  0.0128 -0.0176
83514W        W26505  14.677  33.722  17.711 -0.1868 -0.1088  0.2551
83515W        W26506  18.837   7.326  16.678  0.2113 -0.3510 -0.0960
83516W        W26507   9.224  29.208  15.000  0.2983 -0.2961 -0.2048
83517W        W26508  20.764   9.911  18.371 -0.0368  0.2077  0.0594
83518W        W26509  28.278  24.482  21.051  0.0287  0.2604 -0.1888
83519W        W26510  11.881  18.793  21.401  0.3483 -0.0377 -0.0710
83520W        W26511  26.956   7.947  16.574  0.2313 -0.3499 -0.1528
83521W        W26512   9.715   4.427  16.998 -0.2244  0.1437 -0.1837
83522W        W26513  28.509   7.703  14.876  0.3026  0.1795 -0.0794
83523W        W26514   3.848  32.086  21.170 -0.3101  0.0298 -0.3022
83524W        W26515  16.559  31.883  16.764 -0.1475 -0.0606  0.2043
83525W        W26516  18.116  31.190  21.983 -0.2550 -0.3155 -0.0811
83526W        W26517   1.635   5.498   7.630  0.2111  0.3557  0.1098
83527W        W26518  21.560  24.299  14.008  0.1804  0.0928  0.2277
83528W        W26519  23.365   1.750  12.923  0.2407 -0.0736 -0.2797
83529W        W26520  16.404   1.938  20.274  0.0429 -0.2836 -0.0124
83530W        W26521  31.247  24.358  16.533 -0.1227 -0.3887  0.1793
83531W        W26522  29.547   4.226  15.594 -0.2134  0.0831 -0.0671
83532W        W26523  33.823  25.699  16.549 -0.0318 -0.2640  0.1619
83533W        W26524  26.812  27.665  16.391 -0.1141 -0.1300 -0.1187
83534W        W26525  29.750  27.376  20.868 -0.2591  0.0227 -0.3805
83535W        W26526  34.490  30.532  14.959  0.2739 -0.1395 -0.1521
83536W        W26527  29.089  29.327   0.365  0.2147  0.2092  0.2044
83537W        W26528  17.167   1.915  16.405 -0.1683 -0.0902 -0.0409
83538W        W26529  23.065   3.294  23.243  0.2788  0.2821  0.0224
83539W        W26530   8.937   4.445   2.871 -0.1916 -0.3652 -0.1217
83540W        W26531   5.253   2.881  16.344 -0.0163 -0.3722  0.0208
83541W        W26532  27.690   8.116  26.249  0.3737 -0.2406 -0.0964
83542W        W26533  22.272   8.257   3.716  0.2539  0.1772 -0.0791
83543W        W26534  20.925   7.417  16.939 -0.1239 -0.1872  0.0896
83544W        W26535  25.357  15.787  25.438 -0.3666 -0.0430 -0.0250
83545W        W26536  24.674   2.266   2.286 -0.1925 -0.3708  0.2477
83546W        W26537  25.870  11.083  20.223 -0.0868  0.0496 -0.0404
83547W        W26538  10.714   6.121  15.897  0.0913 -0.1310  0.0256
83548W        W26539  16.745  10.333   1.295 -0.1275 -0.2069  0.0482
83549W        W26540  15.124  13.093  21.066  0.1017  0.1437  0.0945
83550W        W26541  16.881   7.977   8.766 -0.4217  0.0617  0.0874
83551W        W26542  12.385  21.554  27.996  0.0578 -0.2926 -0.1474
83552W        W26543  25.962   5.944  14.453 -0.2015 -0.2390  0.0959
83553W        W26544  15.005   5.603  26.531  0.3509 -0.1280  0.0686
83554W        W26545  32.422  29.599   1.107 -0.0580 -0.1901  0.1184
83555W        W26546   7.986   3.127  22.199  0.3056  0.0789  0.0483
83556W        W26547  15.891  17.842  27.495  0.2279 -0.1975  0.0449
83557W        W26548  21.034  25.210  25.847 -0.0918 -0.3592  0.0702
83558W        W26549  13.943   5.709  25.604 -0.1039 -0.3282  0.2289
83559W        W26550  26.061   8.020  26.038  0.1554 -0.0941 -0.1274
83560W        W26551  31.803  28.394   3.062  0.1516  0.2330  0.2271
83561W        W26552  21.730   8.931   2.646 -0.2630 -0.0182  0.0670
83562W        W26553   2.375  18.203  26.594  0.0400 -0.0228 -0.1713
83563W        W26554  14.671  34.640   5.571  0.1813  0.3314 -0.0818
83564W        W26555  30.796   5.606  17.828 -0.1172 -0.0852 -0.1072
83565W        W26556  16.952   4.778  21.237  0.2897 -0.0002 -0.2458
83566W        W26557  21.725   3.563  28.424 -0.2273 -0.0350  0.1739
83567W        W26558   7.045  10.835  24.293 -0.2090  0.4093  0.0218
83568W        W26559  15.201   8.834  19.515  0.2972 -0.1509 -0.1043
83569W        W26560  23.744  26.874  19.152 -0.2961 -0.0359 -0.2464
83570W        W26561  24.115  15.349  27.068  0.0114 -0.0018 -0.0209
83571W        W26562  12.326  12.549  25.974  0.0528  0.0095 -0.1108
83572W        W26563  22.770  32.193  27.586  0.3102 -0.3340 -0.1865
83573W        W26564  18.590   9.062  23.109 -0.2400  0.1139  0.1618
83574W        W26565  18.904  22.203  26.499 -0.2583  0.0384 -0.0261
83575W        W26566  14.215   8.845  27.471 -0.0588  0.0143 -0.1533
83576W        W26567  20.978  29.051  23.423 -0.0856  0.0049 -0.0725
83577W        W26568   0.786  24.381  23.411  0.0533 -0.2211  0.0658
83578W        W26569  24.977   5.161  21.237 -0.0314  0.0813  0.2162
83579W        W26570  22.363   7.433  16.800  0.0502  0.1657  0.2218
83580W        W26571  24.854  21.066  18.774 -0.1109  0.0499  0.1995
83581W        W26572  17.909  11.683  21.698  0.0322  0.3083  0.3505
83582W        W26573  27.788  29.713  27.557  0.0007  0.1074 -0.0825
83583W        W26574  23.321  10.375  18.511 -0.0876 -0.0209  0.4708
83584W        W26575  15.447  10.667  15.485  0.5126  0.0924 -0.1297
83585W        W26576  20.171   1.532  25.063  0.4714  0.1830  0.3113
83586W        W26577   1.593   5.151  16.717 -0.0837  0.0898  0.0021
83587W        W26578   6.664  18.970  21.157  0.2494  0.0036  0.1058
83588W        W26579  16.909  34.696   1.818  0.2108  0.1643  0.1112
83589W        W26580  11.696  30.112  23.260  0.0628 -0.2710  0.2587
83590W        W26581  13.783  34.098  25.731  0.2192 -0.0122  0.1641
83591W        W26582  18.781  10.302  17.163  0.2204 -0.0182 -0.3172
83592W        W26583  16.275  25.521  22.502 -0.0191  0.0218 -0.1577
83593W        W26584  12.673   0.108  19.357  0.0660  0.1893  0.0382
83594W        W26585  25.056  23.229  21.298  0.0804  0.0622  0.2194
83595W        W26586  26.258  12.836  29.015  0.0366  0.0787  0.1388
83596W        W26587  26.217  22.472   4.954  0.2712  0.1536 -0.1171
83597W        W26588  14.325  12.141  18.410  0.2787 -0.0672  0.0284
83598W        W26589  23.232  21.186  21.179 -0.0083  0.0392 -0.1807
83599W        W26590  33.775  27.059  24.682 -0.0686 -0.0230 -0.1514
83600W        W26591  23.454  33.781  22.988  0.0307 -0.3948  0.1780
83601W        W26592  24.058   5.464   5.226 -0.2302  0.1175  0.3138
83602W        W26593  26.596   0.728   2.393  0.0198 -0.2398 -0.0076
83603W        W26594  16.480   2.118  15.353 -0.2250 -0.3084  0.1318
83604W        W26595  19.725   2.035   1.974  0.1857  0.1144 -0.1893
83605W        W26596  26.886   5.388  20.759  0.1207  0.1487 -0.0692
83606W        W26597  14.743   1.043   4.400 -0.2468  0.1308  0.0559
83607W        W26598   9.860   2.803  26.485 -0.2196 -0.2955  0.0384
83608W        W26599  24.311  32.409  17.795  0.3004  0.1919 -0.0342
83609W        W26600  14.913  29.592  25.822  0.2495 -0.4099  0.0487
83610W        W26601  27.059   8.526  24.453  0.0494 -0.1001  0.2715
83611W        W26602  23.330  28.170  14.968  0.2056  0.2099 -0.2950
83612W        W26603  12.054  13.236  22.006 -0.1301  0.3658 -0.1962
83613W        W26604  28.334   6.741   0.150  0.0598  0.0792  0.0130
83614W        W26605  28.465   1.751  18.402  0.1357  0.1368 -0.0259
83615W        W26606  33.941   9.851   1.973  0.1515  0.0993  0.2012
83616W        W26607  25.714   1.341   5.841 -0.1226 -0.3010 -0.2323
83617W        W26608  15.752   6.439   0.827 -0.2160 -0.3558  0.0693
83618W        W26609  21.040   7.897  14.026  0.1924 -0.1594 -0.1035
83619W        W26610  28.743   8.348   2.704 -0.3605 -0.4109 -0.2041
83620W        W26611  15.079  30.165  19.966 -0.0273 -0.0142  0.0392
83621W        W26612  31.829   2.186   9.380 -0.4984  0.1086 -0.0120
83622W        W26613  16.253  31.171  19.828  0.2241  0.0586  0.0529
83623W        W26614  15.968   9.868   7.378 -0.2055  0.1762 -0.2622
83624W        W26615   5.790  27.730  27.758  0.0042  0.0902  0.1387
83625W        W26616  21.105   1.416  15.253 -0.0282 -0.0172  0.1117
83626W        W26617  15.886   5.788  22.325 -0.0354 -0.0415 -0.1174
83627W        W26618  25.259  28.665  17.692  0.2482  0.0031  0.2188
83628W        W26619  12.827   3.072  28.807  0.2352  0.0807  0.1915
83629W        W26620  12.971  10.965  15.346 -0.0744  0.3817  0.1609
83630W        W26621  32.607  33.097   2.352  0.1458  0.2318 -0.1421
83631W        W26622  29.106   4.444  15.602  0.0940  0.3157 -0.1051
83632W        W26623  17.804   8.779  14.022 -0.1966 -0.0790  0.1374
83633W        W26624  14.307  22.430  23.424 -0.0194  0.1817  0.0728
83634W        W26625  29.853  31.876  25.031 -0.1323 -0.2598  0.0840
83635W        W26626   2.598  26.560   0.279  0.0220 -0.0041 -0.1528
83636W        W26627  11.766   3.657  24.128 -0.2232 -0.0282  0.0242
83637W        W26628  23.807   9.773  20.666  0.0493  0.2571 -0.0504
83638W        W26629  29.143  29.324  15.441  0.3018 -0.2821 -0.1093
83639W        W26630   7.615   0.084  20.533 -0.2519 -0.1799  0.0751
83640W        W26631  23.877   1.471   6.853  0.1674 -0.0493 -0.0939
83641W        W26632  24.332  16.686   0.396 -0.0008 -0.0166 -0.3309
83642W        W26633  16.374   7.472  25.432  0.0915 -0.0103 -0.0152
83643W        W26634   0.308  32.227   2.019 -0.1701  0.0348 -0.3658
83644W        W26635   7.004   1.171  21.347 -0.0565 -0.4941 -0.1271
83645W        W26636  30.808   6.802  14.305 -0.1758 -0.1630  0.0261
83646W        W26637  25.345  21.470  16.082 -0.1529 -0.0304  0.2268
83647W        W26638   9.102  31.514   0.443  0.1086  0.4646  0.4067
83648W        W26639   5.793   7.128  27.707 -0.0577  0.2985  0.5117
83649W        W26640   8.436   0.783  27.469 -0.0882 -0.1089 -0.5863
83650W        W26641  19.447   3.175   8.746 -0.0111  0.1375 -0.0512
83651W        W26642  20.813  32.015  17.174  0.0476 -0.0925 -0.0773
83652W        W26643  20.043  13.757  17.018 -0.1042 -0.1190  0.0284
83653W        W26644  14.763  13.716  13.721 -0.0321 -0.0703 -0.1944
83654W        W26645  19.325  10.324  29.193  0.2203  0.0517  0.2009
83655W        W26646  26.274   5.465  24.860  0.2322 -0.2762  0.1487
83656W        W26647  21.533  32.551  17.053 -0.1921 -0.0340 -0.1320
83657W        W26648  26.555   1.925   9.475 -0.2114 -0.1350 -0.1775
83658W        W26649  20.836  10.462   3.468  0.4381  0.1424  0.0024
83659W        W26650   8.568   1.555  18.521  0.2934 -0.0545 -0.2818
83660W        W26651  25.078  31.099  17.413 -0.0807 -0.2775 -0.0278
83661W        W26652  17.580  32.647  24.861 -0.2968 -0.0912 -0.1202
83662W        W26653  12.226  18.386  21.275  0.1819  0.0898 -0.0628
83663W        W26654  20.327  23.046   5.788  0.0242 -0.2953 -0.1802
83664W        W26655  26.498   1.313   0.294  0.2380  0.1293 -0.2535
83665W        W26656  19.195  28.322  26.549  0.0751  0.1627 -0.0079
83666W        W26657  15.839   5.658  19.698 -0.1698 -0.0730  0.0156
83667W        W26658  30.348   7.491   7.016 -0.2238  0.3363 -0.2930
83668W        W26659  19.955  30.994  27.055 -0.1596 -0.3291 -0.0674
83669W        W26660   2.127  19.372  21.659 -0.2052 -0.1179 -0.2144
83670W        W26661  28.664   6.166  19.281  0.2433 -0.3519  0.0435
83671W        W26662  13.538  17.555   0.805  0.0010  0.1443  0.0251
83672W        W26663   1.893  32.765  17.772 -0.1676 -0.0142 -0.1208
83673W        W26664  14.614   3.088  20.038 -0.0161 -0.2408  0.2288
83674W        W26665  20.889   2.480  22.579 -0.1387 -0.0768 -0.4188
83675W        W26666  19.403   4.565  20.398 -0.0249 -0.0135  0.1294
83676W        W26667  12.402   9.109  18.838 -0.0479 -0.0859 -0.3253
83677W        W26668  15.288  31.234  20.089 -0.1228 -0.3623  0.3107
83678W        W26669   7.480  30.103  16.651  0.1063  0.0504  0.3177
83679W        W26670  26.974   6.462   8.588  0.1454  0.0286  0.0624
83680W        W26671  12.961  34.505  29.153  0.2531 -0.1250 -0.1353
83681W        W26672  19.783   2.056  18.535  0.2183  0.1348  0.0006
83682W        W26673  15.082   0.343  21.327 -0.0267  0.1937  0.1740
83683W        W26674  16.179  27.162  15.184 -0.1612 -0.1537 -0.5274
83684W        W26675  23.834  20.843  15.705  0.0896  0.0634 -0.1552
83685W        W26676  13.249  31.093   3.266 -0.0142  0.0813  0.3095
83686W        W26677  26.210  31.209   3.291 -0.0305 -0.3827  0.0142
83687W        W26678  21.272  30.255  22.839  0.1448  0.0646 -0.1729
83688W        W26679   1.714   6.703   0.144 -0.2644 -0.0542  0.1529
83689W        W26680   7.180  31.061   0.528 -0.0962  0.4458 -0.0702
83690W        W26681  23.844   0.594  26.070 -0.1961  0.2561  0.0374
83691W        W26682  20.321  33.619  27.964  0.0490 -0.1516 -0.3073
83692W        W26683  27.927  32.313  18.718 -0.2878 -0.0111 -0.0862
83693W        W26684  14.470  13.693  19.856 -0.1645 -0.0803  0.1444
83694W        W26685  17.603  31.944   5.384 -0.0740  0.5110  0.1000
83695W        W26686  11.525   2.368  17.702 -0.2999  0.2412  0.0048
83696W        W26687  32.754   4.605  13.939 -0.0878  0.1631 -0.1500
83697W        W26688  14.290   3.551   2.321  0.1283  0.1451  0.0000
83698W        W26689  13.944  29.761   4.998  0.1380  0.2836 -0.1263
83699W        W26690  21.899  25.624  28.608  0.3616 -0.2199  0.0433
83700W        W26691  11.960   4.688  22.833  0.1269  0.0333 -0.2147
83701W        W26692  16.094  14.114  27.341  0.2932 -0.5111  0.0624
83702W        W26693  23.730  17.312   0.044  0.4298  0.1500 -0.1604
83703W        W26694   4.079  14.830   2.709 -0.1660  0.1702 -0.2366
83704W        W26695  20.966   3.582  27.343  0.3242  0.1477 -0.1677
83705W        W26696  20.806  30.782  27.950  0.5119 -0.0691  0.4635
83706W        W26697  27.117  30.700  20.935  0.1523  0.0871 -0.1013
83707W        W26698  23.064  22.556  12.802 -0.1930  0.3455  0.0684
83708W        W26699  32.303   6.116  14.285 -0.2095  0.0971 -0.1348
83709W        W26700  33.133  30.959  15.283  0.2281  0.1119 -0.1092
83710W        W26701  22.579   2.514  24.197  0.0080  0.2066 -0.2960
83711W        W26702   8.972  25.485  16.398 -0.0167 -0.1656  0.5102
83712W        W26703  17.282   0.973   3.816  0.2301  0.3584  0.2476
83713W        W26704  29.262  27.498   3.441 -0.2825 -0.1292  0.0719
83714W        W26705  23.443  30.717   0.435 -0.1589  0.1308  0.0660
83715W        W26706  19.510   0.426  27.611  0.1309  0.1656  0.0163
83716W        W26707  26.922   4.674  28.001  0.1735 -0.0876 -0.1458
83717W        W26708  20.749   0.900  16.775 -0.0100 -0.0809 -0.2062
83718W        W26709  14.741   3.844  27.810  0.1823 -0.3869 -0.2437
83719W        W26710   2.042   8.282  24.187  0.2641 -0.0562  0.1893
83720W        W26711  14.593   0.552   6.318 -0.2556  0.1694 -0.0342
83721W        W26712   7.517   7.224  16.734  0.0959 -0.2588  0.0907
83722W        W26713  23.021   1.770  15.565  0.0283 -0.1994 -0.1566
83723W        W26714  22.942  15.008  14.449  0.0344 -0.3938  0.1956
83724W        W26715  30.645  23.815   2.128 -0.2350 -0.0847 -0.2458
83725W        W26716  24.119  32.529  27.040 -0.2741 -0.0074  0.0755
83726W        W26717  33.925  17.280  20.040 -0.0455  0.1694  0.2274
83727W        W26718  22.011  32.764   8.290  0.2890  0.1857  0.0140
83728W        W26719  26.397  31.638   0.838  0.3547 -0.0718  0.2435
83729W        W26720  15.059  10.045  16.650  0.1804  0.2185  0.1724
83730W        W26721  11.782  34.578  20.821 -0.2681 -0.2666  0.2802
83731W        W26722  15.016  26.366  23.517  0.1887  0.2586  0.0323
83732W        W26723   8.678   7.196   2.542  0.1258  0.0204 -0.0785
83733W        W26724  14.087  28.189  29.010  0.6172  0.0933  0.0841
83734W        W26725  34.201   0.077  16.138  0.1621 -0.0487 -0.1654
83735W        W26726  12.469  22.214  21.802  0.4345  0.2603 -0.3592
83736W        W26727   0.695  16.471   8.273  0.0882 -0.1041 -0.4507
83737W        W26728   1.559   6.113  21.600 -0.0199 -0.0298  0.4489
83738W        W26729  25.890  23.650  28.282  0.1573  0.0602  0.1960
83739W        W26730  26.274   1.300  26.956  0.2038  0.0097 -0.0286
83740W        W26731  25.589   8.302  16.699  0.0289 -0.1986  0.2435
83741W        W26732  20.828  11.277   0.380 -0.0622 -0.3572 -0.2644
83742W        W26733  23.610  17.176  23.598  0.1038 -0.2403  0.1932
83743W        W26734  19.385   5.973   4.354 -0.1172  0.1110 -0.0249
83744W        W26735  12.788  31.287  22.620  0.0750 -0.1540 -0.0080
83745W        W26736   8.545   2.516  22.148  0.2893  0.2805 -0.2023
83746W        W26737  22.169  33.101  23.171  0.0405 -0.2955  0.0862
83747W        W26738  21.788  14.862   7.370 -0.0107  0.3008 -0.1091
83748W        W26739  23.709   0.951  26.457 -0.3461  0.2824  0.1684
83749W        W26740  14.419  32.775  18.713  0.2147 -0.0405 -0.3704
83750W        W26741  25.229   1.307   6.398  0.2109 -0.3254  0.1287
83751W        W26742  20.443  28.307  26.934  0.0967 -0.3884 -0.3577
83752W        W26743  26.778   8.071  17.044 -0.0360 -0.0243  0.0898
83753W        W26744  26.713   8.649   1.702 -0.3000  0.0503  0.0895
83754W        W26745  20.571  27.286  18.738  0.2009 -0.1872 -0.0073
83755W        W26746   9.322  14.865  28.738 -0.1569  0.1256 -0.4071
83756W        W26747  20.524   0.925   2.753 -0.0347  0.0102  0.2488
83757W        W26748  21.315  27.268  19.163  0.0676  0.0368 -0.0149
83758W        W26749  32.418  21.194   6.223 -0.1673 -0.2038 -0.0977
83759W        W26750  18.799   3.992  25.643 -0.0073 -0.1593 -0.2700
83760W        W26751   9.497   6.505  22.314 -0.0341 -0.0424  0.0928
83761W        W26752  19.391  33.895   2.599 -0.1116  0.0793  0.2488
83762W        W26753  28.377   8.351  22.755  0.0360 -0.1234  0.1159
83763W        W26754  16.393  11.458  16.699  0.0633  0.2014 -0.1871
83764W        W26755  22.463  19.839  28.567 -0.2385 -0.0534 -0.1283
83765W        W26756  16.370   5.365   9.153  0.2478 -0.1257 -0.2262
83766W        W26757  26.999  23.146   2.798 -0.1388 -0.0191 -0.1792
83767W        W26758  25.348  32.519  18.342 -0.1230  0.0002 -0.1523
83768W        W26759  18.193  33.685   0.567  0.1036  0.0329  0.0236
83769W        W26760  11.300  19.689   0.664  0.1050 -0.1690 -0.1434
83770W        W26761  26.098  10.548  17.144  0.1925  0.2344 -0.2717
83771W        W26762  25.590   2.425  24.630 -0.2823 -0.2380  0.0131
83772W        W26763  13.439   9.278  19.824  0.1628 -0.0467 -0.2314
83773W        W26764  25.510  27.717  14.733  0.3104 -0.4388  0.1722
83774W        W26765  28.795   9.865  19.407  0.0388 -0.0155 -0.1532
83775W        W26766  16.245  33.535  15.194  0.2193 -0.0897 -0.2280
83776W        W26767  28.536  31.884  14.613  0.1598  0.1270 -0.2438
83777W        W26768  30.476   6.366  23.846 -0.0696  0.0461  0.3133
83778W        W26769  15.694  28.541  23.859 -0.0717  0.1695  0.3582
83779W        W26770  21.037  17.986  14.792  0.0558  0.0768  0.0123
83780W        W26771  25.090   1.637  19.282  0.1468  0.2316  0.0252
83781W        W26772  23.118  13.624  22.899 -0.0114 -0.3680 -0.2237
83782W        W26773   8.344  18.069   5.283 -0.2202 -0.2421 -0.1475
83783W        W26774  21.016   5.461   3.187  0.1641  0.1421  0.0420
83784W        W26775  22.797   2.817   6.730 -0.0268 -0.3894  0.2554
83785W        W26776  26.270  29.595   1.096  0.1776 -0.0051 -0.2209
83786W        W26777  25.373   0.150  27.120  0.1819  0.0414 -0.0880
83787W        W26778  16.095   1.867   7.030  0.1270 -0.1992 -0.2402
83788W        W26779   1.310   2.019   2.226  0.0159  0.1187  0.0519
83789W        W26780  32.531   7.254  14.720 -0.2932  0.1713  0.0022
83790W        W26781  21.616  26.861  28.588 -0.0670 -0.3403  0.0479
83791W        W26782  17.407  33.235  21.408 -0.0325 -0.0548 -0.3137
83792W        W26783  26.695   0.709  14.789 -0.1987 -0.0342  0.1089
83793W        W26784  24.288  14.991  26.711  0.1826  0.2196  0.1209
83794W        W26785  20.045  12.722  14.466 -0.0275 -0.0146 -0.2013
83795W        W26786  30.473  13.699  27.532  0.2787 -0.1178 -0.0191
83796W        W26787  19.380   4.131   9.882 -0.2499  0.0886  0.4251
83797W        W26788  17.821  23.569  27.072 -0.0070  0.2082 -0.1611
83798W        W26789  32.988   4.809  19.969 -0.1829 -0.0992  0.3003
83799W        W26790  15.977   8.296  27.230  0.1077  0.3205  0.0945
83800W        W26791  24.278   7.486   4.270 -0.2209  0.0051  0.2772
83801W        W26792  28.166  26.612  14.119  0.1049  0.4159  0.0356
83802W        W26793  21.856   4.868  19.378 -0.0177 -0.1349 -0.1040
83803W        W26794  23.372   8.267   3.817 -0.3054 -0.0007  0.0446
83804W        W26795  12.135  25.810   4.241 -0.2109  0.3516  0.3097
83805W        W26796  17.361  12.168  14.054 -0.2571  0.0618  0.0861
83806W        W26797  24.331  30.665  15.675 -0.1785 -0.1713 -0.0799
83807W        W26798  15.963  13.233  22.805 -0.1593  0.0526 -0.0991
83808W        W26799  20.129  31.720  15.585  0.3740 -0.0497  0.1090
83809W        W26800  27.977  16.187   6.962  0.2619  0.0171  0.2742
83810W        W26801  23.374  10.466   3.500 -0.2246  0.2955  0.1659
83811W        W26802  16.727  27.399  17.926 -0.0766  0.0322  0.0991
83812W        W26803  19.826   5.215  20.408  0.1675  0.2263  0.3119
83813W        W26804  34.216  30.528   8.442 -0.0657 -0.0645  0.1367
83814W        W26805  28.702   4.754   7.013  0.0390 -0.0132 -0.0158
83815W        W26806  26.185   3.248   5.870 -0.2567 -0.0363 -0.0138
83816W        W26807  21.556  24.803  21.797 -0.2690 -0.0518  0.0707
83817W        W26808  13.272   2.118  25.220 -0.0840  0.0154 -0.0656
83818W        W26809   6.799  25.231  18.471  0.1370  0.1732 -0.0780
83819W        W26810  23.838  22.669   0.275  0.3257 -0.0835 -0.3658
83820W        W26811   9.744   9.091  21.600  0.1873 -0.0562  0.1801
83821W        W26812  25.974   2.088   4.227  0.1281  0.0281 -0.2954
83822W        W26813  26.176   6.573  13.844  0.1748  0.1563 -0.0565
83823W        W26814  19.957  11.502  19.180 -0.0927 -0.3551  0.2186
83824W        W26815  22.275   0.136  17.634  0.1597 -0.0730  0.1054
83825W        W26816  18.970  31.629  20.934  0.1826 -0.0883  0.2722
83826W        W26817   3.632  29.220  16.709 -0.0013  0.0334 -0.0835
83827W        W26818   2.193  28.306  24.134  0.0959  0.3712 -0.2969
83828W        W26819  27.856  33.575  18.370 -0.2338  0.0906  0.0075
83829W        W26820  28.029  16.174  22.249  0.2632  0.4214 -0.1537
83830W        W26821  12.042  17.090   8.381 -0.2403  0.2212 -0.0907
83831W        W26822  22.124  29.810   5.429 -0.2581 -0.0100 -0.2155
83832W        W26823   6.444   9.497  17.366  0.1683 -0.0276  0.2050
83833W        W26824  21.249  14.156  20.476 -0.0282 -0.0044 -0.3259
83834W        W26825  26.390  11.393  21.583 -0.1329  0.1659 -0.3535
83835W        W26826  25.045  19.821  19.619  0.1373  0.1008 -0.3554
83836W        W26827  31.253  17.875  22.850 -0.1848  0.0808 -0.1349
83837W        W26828  16.767   5.485   0.292  0.1097 -0.0152 -0.1487
83838W        W26829  24.623   2.573  18.834 -0.1856  0.1012 -0.1471
83839W        W26830  21.724  16.421  28.394 -0.0355 -0.3026  0.1302
83840W        W26831  17.692  14.876   2.736 -0.1554  0.2369 -0.0364
83841W        W26832  31.280   4.993  25.864  0.0116 -0.2674 -0.0064
83842W        W26833  11.182   8.764  27.947  0.0180  0.3926 -0.1332
83843W        W26834  17.323  12.076  20.425 -0.0079  0.3002  0.2164
83844W        W26835  22.521   3.177   7.237  0.1302  0.0634  0.2124
83845W        W26836  21.516  23.674  16.744 -0.1152 -0.0927  0.0380
83846W        W26837  25.776   9.978  27.759  0.0720  0.5467  0.0923
83847W        W26838  31.952   4.040  15.877  0.4886  0.2381 -0.0423
83848W        W26839   0.087   2.534   1.652  0.1149  0.1152  0.0586
83849W        W26840   5.393  33.598  28.070  0.2792 -0.2198  0.0608
83850W        W26841  17.866  33.859  27.875 -0.2995 -0.0824 -0.3320
83851W        W26842  22.468  27.672   4.754 -0.0806 -0.1378  0.0969
83852W        W26843  19.100  27.158  28.099 -0.0492  0.2018 -0.0552
83853W        W26844  20.480  22.471   2.402  0.1620 -0.2356 -0.1056
83854W        W26845  13.030   0.240   2.259 -0.3711 -0.2163  0.1667
83855W        W26846  11.654   3.835  20.677 -0.1249  0.3020 -0.0528
83856W        W26847  23.574  15.491  20.507 -0.4699  0.1228  0.1100
83857W        W26848  31.344   3.156  20.722 -0.2553 -0.1202  0.3410
83858W        W26849  19.538  24.636  20.635  0.2390  0.2713  0.3637
83859W        W26850  32.351  14.756  15.619  0.1134 -0.0303 -0.0546
83860W        W26851  15.539  30.458  21.957 -0.0771 -0.5250  0.0128
83861W        W26852  21.693   9.326  19.185  0.0020 -0.0375 -0.0155
83862W        W26853  24.328  33.957  20.798  0.1557 -0.1517  0.3233
83863W        W26854  10.848  27.926  26.327  0.1151  0.0629 -0.3491
83864W        W26855  24.922   7.097  20.265  0.1192  0.1577 -0.3241
83865W        W26856  20.093   8.170  28.030 -0.0187 -0.1842 -0.5619
83866W        W26857  15.450  15.611  22.467  0.0401 -0.1254 -0.0136
83867W        W26858  30.638   3.625  15.960 -0.0117 -0.1593  0.1810
83868W        W26859  10.938  32.980  21.815 -0.0840 -0.0888  0.1071
83869W        W26860  15.603  15.562  13.135  0.0844 -0.0214  0.0043
83870W        W26861   3.719  11.910  17.522 -0.2096  0.3007  0.0956
83871W        W26862  29.423   1.456   2.879 -0.2060  0.1367 -0.0175
83872W        W26863  22.184   2.004  21.003 -0.0347 -0.0767 -0.1963
83873W        W26864  23.231   3.804  24.730  0.1937  0.0399  0.2141
83874W        W26865   0.012  12.711   7.602  0.1792  0.1380  0.2034
83875W        W26866  14.066  14.049   3.806 -0.0907 -0.1398 -0.1617
83876W        W26867   6.771  17.619  16.028 -0.0406  0.1376 -0.0640
83877W        W26868   6.438  19.011  19.193  0.0972  0.0634  0.1767
83878W        W26869  27.866  29.658  16.552  0.0130 -0.0059 -0.0671
83879W        W26870  30.445  23.530  13.950  0.0906 -0.0566 -0.0687
83880W        W26871  11.202   1.438  20.961 -0.1902  0.0247  0.0004
83881W        W26872  21.997   9.786   3.513 -0.1741 -0.0725  0.0039
83882W        W26873  18.650  16.853  13.296  0.0214  0.0940 -0.0309
83883W        W26874  26.973  22.674  20.347 -0.1086 -0.0760  0.2091
83884W        W26875  13.492  21.777   6.005 -0.0962  0.0399  0.2446
83885W        W26876   6.499   3.424   1.265 -0.1903 -0.1636 -0.1469
83886W        W26877  24.761  24.064   5.882  0.0671  0.0887 -0.1470
83887W        W26878  23.992   3.061   3.977  0.1455 -0.0923 -0.2582
83888W        W26879  15.381   2.929  27.226  0.1705 -0.3623  0.1123
83889W        W26880  14.930  33.058  21.454  0.2589 -0.0985  0.1982
83890W        W26881  17.221   3.786   8.121  0.3282  0.2907 -0.3599
83891W        W26882   7.346  24.687  21.595 -0.2691  0.0265  0.1132
83892W        W26883  29.165  32.388   1.111 -0.2267  0.1875  0.4562
83893W        W26884  18.233  28.935  22.724  0.1180  0.0446 -0.0613
83894W        W26885   4.487  18.589   4.389 -0.1217  0.2297  0.2207
83895W        W26886  11.130   5.514  15.498  0.3655  0.0743 -0.1765
83896W        W26887   3.941  20.144  18.499 -0.0937  0.1743 -0.1434
83897W        W26888  21.887   2.774  28.694  0.0965  0.1433 -0.1457
83898W        W26889  23.717  27.440  25.566 -0.1554 -0.2577 -0.0838
83899W        W26890  16.327   5.414  26.636  0.2409 -0.1287  0.2114
83900W        W26891  31.258  15.589   4.229 -0.0394 -0.0264  0.0698
83901W        W26892  31.531   2.720  23.331 -0.1349  0.0350  0.4118
83902W        W26893  32.573  30.097  24.706  0.1197 -0.2138  0.3604
83903W        W26894  16.777   4.329  16.484  0.0582  0.0279  0.0599
83904W        W26895  30.925  22.786  14.433 -0.1488  0.2866 -0.0300
83905W        W26896  14.481   5.599   2.941 -0.0391  0.2630 -0.1467
83906W        W26897  28.451  14.097  24.719 -0.0387 -0.0186  0.1911
83907W        W26898  27.344  18.809  17.128 -0.0069 -0.1009 -0.4611
83908W        W26899  12.326  31.352  14.255 -0.0434  0.1307 -0.0128
83909W        W26900  27.922   7.577  16.229 -0.3050 -0.1125 -0.0331
83910W        W26901   3.273  33.473  20.213 -0.3872  0.2755 -0.1998
83911W        W26902   3.754  14.072  28.860 -0.0119 -0.2839  0.2520
83912W        W26903   7.295  29.035  16.208 -0.0161 -0.3335  0.3016
83913W        W26904  18.131  29.193  23.762 -0.2467 -0.1892  0.1520
83914W        W26905  30.083   8.530   1.831  0.2329  0.1088  0.0491
83915W        W26906  22.026   1.585  24.241 -0.0200  0.1715 -0.0402
83916W        W26907   9.610  31.488  26.022 -0.1228  0.0845  0.0787
83917W        W26908  33.527   2.360  21.089  0.0570 -0.2327  0.1199
83918W        W26909  16.743  10.995  10.499 -0.2332  0.0474 -0.0273
83919W        W26910  17.613  27.608   4.576  0.1432 -0.0967 -0.2965
83920W        W26911  21.375  12.039  15.317  0.0883  0.2656  0.2387
83921W        W26912  29.571  34.555   0.200 -0.0497  0.2758  0.0790
83922W        W26913  13.339  21.215  15.094 -0.0044  0.0805  0.1261
83923W        W26914  32.062  29.532  20.077  0.1463  0.3107 -0.1618
83924W        W26915  28.412   1.297  13.306  0.1154 -0.1580 -0.3566
83925W        W26916   2.034   3.957  19.618 -0.0139 -0.4304  0.0120
83926W        W26917  21.649   9.368  21.514 -0.1250  0.1660  0.1280
83927W        W26918  27.545  27.996   1.596 -0.1548  0.0207  0.0315
83928W        W26919  20.993   9.132  17.944  0.1649  0.2324  0.2517
83929W        W26920  22.197   2.747   0.353 -0.0581 -0.2638 -0.2671
83930W        W26921  19.735   8.297   1.951  0.0974 -0.1467 -0.0540
83931W        W26922  18.751  29.754   2.681 -0.2527  0.0463  0.2057
83932W        W26923  17.411  10.386  27.436 -0.1758  0.1201  0.1568
83933W        W26924  25.279  27.109  16.001  0.3616  0.0185 -0.1830
83934W        W26925  10.713   8.191  17.646 -0.0735 -0.0098 -0.3686
83935W        W26926  10.087   1.488   2.177  0.1670 -0.1475  0.0630
83936W        W26927  23.372  25.466  28.490 -0.0286  0.1478  0.2782
83937W        W26928  19.366  33.340  18.325  0.2431 -0.1572 -0.0604
83938W        W26929  16.281   3.680  15.341 -0.0330 -0.2581  0.1769
83939W        W26930  23.092  12.111  21.678 -0.2497  0.3119  0.2725
83940W        W26931   7.961   4.452  15.401  0.0174 -0.1000 -0.1006
83941W        W26932   2.112  11.994   4.342  0.1400  0.0625 -0.0675
83942W        W26933  24.264   5.679   1.473  0.2697  0.0354  0.1784
83943W        W26934  11.930   0.722  15.288 -0.2358 -0.1220 -0.0467
83944W        W26935  18.321  18.295   1.906 -0.0394 -0.0816  0.3447
83945W        W26936  22.176   0.800   1.379 -0.0473 -0.2052  0.1565
83946W        W26937  10.034  30.224  27.877  0.0153  0.1027  0.1674
83947W        W26938   4.056   2.016   4.136 -0.2680 -0.1740  0.0120
83948W        W26939  15.593  12.060  20.245  0.2221 -0.0538  0.1729
83949W        W26940  26.893  30.395  12.805 -0.2540  0.1061 -0.1193
83950W        W26941  16.780   5.664  18.614 -0.0207 -0.2057  0.2785
83951W        W26942  32.768  11.276   2.002  0.2234 -0.0372 -0.3930
83952W        W26943  25.353  24.680  19.514  0.0068  0.3057  0.3493
83953W        W26944  20.865  34.085  17.999  0.0698 -0.4698 -0.1419
83954W        W26945  23.559   2.024  20.116 -0.5433 -0.4184 -0.1298
83955W        W26946  30.538  30.811   1.787  0.1559 -0.1836 -0.0221
83956W        W26947   9.207  25.643   6.923 -0.0316  0.0354 -0.2535
83957W        W26948  22.109   7.465   8.399  0.2805 -0.1179 -0.1836
83958W        W26949  29.878  30.551  22.333  0.2392 -0.2503  0.2103
83959W        W26950   3.189  30.193  23.501  0.1408  0.2162  0.0186
83960W        W26951  21.026   2.387   5.401  0.1932 -0.0474 -0.2872
83961W        W26952  23.848  16.718  23.661 -0.2873  0.0010 -0.3220
83962W        W26953  24.032  30.091   8.924  0.0050  0.1781 -0.0822
83963W        W26954  29.003   2.917  28.813  0.4587 -0.0385 -0.0942
83964W        W26955   8.445  21.776   4.176  0.0064  0.1596 -0.0564
83965W        W26956  17.919  13.104   2.437  0.1352  0.0626  0.1622
83966W        W26957  23.903  33.268  23.474  0.2064  0.0616  0.0421
83967W        W26958  28.724   4.645   3.280 -0.3183  0.1693  0.1084
83968W        W26959  29.076   5.103  15.834  0.1313  0.1456  0.0155
83969W        W26960  17.899  34.431  22.256  0.0625  0.0916  0.0301
83970W        W26961  27.103  17.035  17.458  0.1518 -0.2301 -0.0765
83971W        W26962  17.647   3.304  21.017 -0.1489  0.3711  0.0390
83972W        W26963  29.787  34.767   0.650  0.1999 -0.1725 -0.0534
83973W        W26964  33.396  10.748   0.514  0.1276  0.2054  0.1984
83974W        W26965  20.047   5.008   4.508  0.3178 -0.1224 -0.0057
83975W        W26966  11.912  23.146  23.642  0.0691  0.2707 -0.1079
83976W        W26967  23.290   5.248   6.965 -0.0440  0.0857 -0.2078
83977W        W26968  14.265   4.158  15.924  0.1159 -0.0215 -0.3187
83978W        W26969  28.841  27.581   3.104 -0.1077 -0.0639  0.0428
83979W        W26970  14.914   8.236   1.787 -0.3708  0.1652  0.0182
83980W        W26971  14.297   1.112  17.262 -0.0752  0.1095 -0.0581
83981W        W26972  11.621  30.461  20.287 -0.2185 -0.2386  0.1899
83982W        W26973  31.682  19.051  25.744 -0.1597  0.3021 -0.5061
83983W        W26974   5.850  34.658   4.833  0.0589  0.0306  0.1052
83984W        W26975  33.275  32.325  16.714 -0.1100 -0.0275 -0.0015
83985W        W26976  17.317  11.686  19.330  0.2409 -0.0746  0.2762
83986W        W26977  22.001  32.033  24.719 -0.0347  0.0634  0.1299
83987W        W26978  13.580   4.102  24.908  0.1928  0.1109  0.1536
83988W        W26979  23.766   3.633  21.099 -0.1680 -0.2882 -0.0373
83989W        W26980  14.910  31.975  22.699 -0.2490  0.4306 -0.1569
83990W        W26981  26.285  18.806  27.000  0.0623 -0.0415 -0.1574
83991W        W26982  16.518   4.193   3.110 -0.0052  0.2152 -0.3935
83992W        W26983  24.247   1.550  14.920 -0.0983 -0.0190  0.0301
83993W        W26984  24.199  31.275  28.353 -0.0142 -0.2890  0.1799
83994W        W26985  10.294   1.045  19.139  0.1269  0.0578  0.0300
83995W        W26986   1.299  27.658  17.455  0.1684  0.2422 -0.0533
83996W        W26987  24.327  30.295  25.906  0.2029 -0.0088  0.0528
83997W        W26988  10.829   6.372  23.013  0.2203  0.2682  0.1236
83998W        W26989  14.967  10.423   1.534 -0.0426  0.0484  0.2270
83999W        W26990  18.807   9.333  19.827  0.5306 -0.3516  0.0453
84000W        W26991  22.335  20.957  22.815 -0.2935 -0.0219  0.2196
84001W        W26992  27.054   4.353  20.994 -0.2622  0.1481 -0.1983
84002W        W26993   1.022  21.288   4.783 -0.0441 -0.0001  0.1128
84003W        W26994  28.570  24.491  27.510 -0.1039  0.1057 -0.1138
84004W        W26995   4.623  29.297  13.777 -0.3910 -0.1250 -0.0419
84005W        W26996  23.543   9.271  16.499 -0.2892  0.0328 -0.0743
84006W        W26997  18.284  13.249  15.949 -0.3052  0.1206  0.2196
84007W        W26998  11.262   5.395  22.642 -0.0158  0.0344  0.0067
84008W        W26999  17.030  29.144   9.312  0.0865 -0.0003  0.0704
84009W        W27000  18.246  33.274  26.861  0.1212  0.1637  0.2256
84010W        W27001  14.358   1.688  21.257 -0.1536  0.2309  0.0757
84011W        W27002  22.716  24.422  17.769  0.0121  0.0667  0.1888
84012W        W27003   1.212  25.472  17.956  0.2925  0.3609  0.2837
84013W        W27004   7.876  30.601  19.582  0.1561 -0.3846 -0.1595
84014W        W27005  19.633  16.928   3.257  0.0573  0.1963  0.0262
84015W        W27006  11.087  31.052  27.212 -0.1182 -0.2305  0.1829
84016W        W27007  12.948   8.792   6.610  0.3714  0.1678  0.2052
84017W        W27008  29.749  28.956   3.322  0.2971 -0.2979  0.1392
84018W        W27009  31.965   3.514  22.316  0.5037  0.2591  0.0508
84019W        W27010  22.916   9.977   1.188  0.1171  0.1341  0.0195
84020W        W27011  16.854  21.803   8.193  0.0450 -0.2057  0.0658
84021W        W27012  22.999  15.951  24.192  0.1529 -0.3345  0.1679
84022W        W27013   5.561   2.229   4.638 -0.1656 -0.1920 -0.0772
84023W        W27014  23.732   0.293   3.484 -0.1688 -0.0902  0.2665
84024W        W27015  17.433  27.624  18.668 -0.2101 -0.1547  0.0742
84025W        W27016  19.532  16.513   5.742  0.1339 -0.1875 -0.4730
84026W        W27017   9.932   2.603  14.873  0.1051  0.1396 -0.1754
84027W        W27018  12.339  14.316   6.634 -0.0490  0.2386 -0.1507
84028W        W27019  26.863  16.542   3.152  0.2948  0.4435 -0.1371
84029W        W27020  16.048  25.324  23.132  0.0237 -0.0967  0.0252
84030W        W27021  21.593  24.523   1.364 -0.0783  0.0054  0.0289
84031W        W27022  16.333   5.505  22.456 -0.2896  0.0957  0.3400
84032W        W27023  12.600  10.806  25.907  0.0909  0.0745  0.1502
84033W        W27024  15.784  25.602   3.870  0.3431 -0.0893  0.0105
84034W        W27025  24.508  32.957  20.384 -0.2169 -0.2692  0.0017
84035W        W27026   8.806   4.907   1.910 -0.0378  0.1044  0.0049
84036W        W27027  30.015  18.471  16.400 -0.1397 -0.0933  0.1855
84037W        W27028  14.366  30.960   4.435  0.0620  0.0802  0.0533
84038W        W27029   7.370   5.499   4.870 -0.1494  0.1870  0.0896
84039W        W27030  22.732   1.699  24.771  0.0074 -0.1969  0.1277
84040W        W27031  19.222  20.680   4.461  0.1618  0.2643 -0.0336
84041W        W27032  26.355   2.371   4.099  0.1337  0.0748  0.0435
84042W        W27033  26.764  11.721   2.147 -0.0945 -0.2563 -0.0324
84043W        W27034  16.271   7.603   3.190 -0.0166 -0.0116  0.0723
84044W        W27035  24.331   0.775   1.849 -0.0362  0.0167 -0.0635
84045W        W27036  26.734   6.584  20.526  0.0754 -0.0338  0.0688
84046W        W27037  22.574   8.669   6.423 -0.2142  0.2348 -0.0523
84047W        W27038   9.473   1.676   4.671 -0.2143  0.1325 -0.3149
84048W        W27039  30.453  28.572  15.448  0.0118 -0.0507  0.0229
84049W        W27040   9.408  24.846   3.010  0.2947  0.2697  0.3990
84050W        W27041  17.566   7.487  22.617  0.0919 -0.0414  0.4290
84051W        W27042  31.211  28.743  13.893  0.0661  0.0882 -0.3417
84052W        W27043  25.718   2.396  13.157 -0.0577  0.0161 -0.1354
84053W        W27044  21.598  18.277  25.164  0.0468  0.1764 -0.1004
84054W        W27045  28.585   3.082  16.226  0.3749 -0.0964 -0.1418
84055W        W27046  16.916   8.029  25.044  0.1922 -0.2339 -0.3162
84056W        W27047  21.508   0.157  25.911  0.0836 -0.0155 -0.3519
84057W        W27048  22.765   6.692   8.798  0.0339  0.2282 -0.1291
84058W        W27049  11.393   7.579   4.864 -0.0134 -0.0344  0.1076
84059W        W27050  16.184  12.840  17.462 -0.4314  0.2213  0.0151
84060W        W27051  12.986   3.469  24.788 -0.2562 -0.0580  0.1342
84061W        W27052  22.170  29.964   6.806  0.0563 -0.1563  0.1943
84062W        W27053  28.905  15.920   6.555 -0.1238  0.1285 -0.1646
84063W        W27054  30.923  28.700   0.575 -0.0160  0.1410  0.0852
84064W        W27055  34.607  28.033  15.004  0.0649  0.0389  0.2005
84065W        W27056  25.845   0.721   1.675 -0.0550  0.2192  0.0094
84066W        W27057  12.108   1.290   3.610  0.3082  0.0361 -0.0746
84067W        W27058  22.838  20.632  26.798 -0.0138 -0.1714 -0.0876
84068W        W27059   7.359  23.385   2.156 -0.0737 -0.0183 -0.1912
84069W        W27060  17.491   0.027  22.325 -0.2568 -0.0412  0.2309
84070W        W27061  10.386  15.984  15.567  0.1127 -0.0172  0.1648
84071W        W27062  31.160  29.224  12.197  0.3465  0.1623  0.0305
84072W        W27063  14.730  24.094  18.625 -0.0839 -0.2947 -0.0022
84073W        W27064  27.145   5.955  19.975 -0.0208 -0.1694 -0.0371
84074W        W27065  28.174  31.528   3.129 -0.0976 -0.0358 -0.0544
84075W        W27066  22.465  23.391  23.292  0.2483  0.0134  0.0002
84076W        W27067  17.813  10.512  14.075 -0.0023 -0.1157  0.0226
84077W        W27068  22.935  11.677  18.861 -0.2693  0.1542 -0.3952
84078W        W27069   6.494  30.452   4.357  0.1373 -0.0774 -0.1810
84079W        W27070  27.096   1.200  19.356 -0.2744 -0.2021 -0.1253
84080W        W27071  24.583  32.479  22.552  0.0336 -0.3394  0.3373
84081W        W27072   6.814   8.903  16.236 -0.0721 -0.0379  0.2808
84082W        W27073   8.943  30.368  26.569  0.2649  0.0126 -0.1069
84083W        W27074  13.295  18.839  28.684 -0.3834 -0.2098 -0.1300
84084W        W27075  31.341  12.382   1.044  0.2223  0.0764 -0.1263
84085W        W27076  13.329  28.819   0.429  0.1474 -0.0120 -0.3168
84086W        W27077  25.739   6.069   0.728 -0.1646  0.2178 -0.1256
84087W        W27078   2.555   8.102  19.912 -0.2596 -0.1690 -0.3872
84088W        W27079  15.417   2.060  25.540  0.0978  0.0249  0.0962
84089W        W27080  14.887  15.836  27.741 -0.2625 -0.0822  0.2782
84090W        W27081   2.295  25.143   6.133 -0.1196  0.0209 -0.2159
84091W        W27082  17.265  18.638  14.441  0.1970 -0.0911  0.3900
84092W        W27083  19.037   7.168   0.834 -0.0199  0.0009 -0.0832
84093W        W27084  25.612   7.662  25.345 -0.2283 -0.1529  0.3108
84094W        W27085  22.334   9.439  20.528 -0.1402 -0.0782 -0.0410
84095W        W27086  12.838  14.183  26.732 -0.0302  0.1757 -0.0823
84096W        W27087  23.049  12.966  19.192 -0.0946  0.4014 -0.0265
84097W        W27088  23.375   0.824  25.891 -0.1517  0.2195 -0.1583
84098W        W27089  30.167   4.765  17.050  0.2394  0.0078  0.4079
84099W        W27090   2.998  28.573  17.294  0.0733  0.0054  0.1651
84100W        W27091  24.688  13.466  19.113  0.0090  0.0382 -0.1375
84101W        W27092   5.949  12.061  19.179  0.1676  0.1091 -0.1586
84102W        W27093  22.495   4.594   3.269 -0.2897  0.1876 -0.2508
84103W        W27094  20.731   6.225  18.902 -0.0238 -0.0203 -0.0617
84104W        W27095  28.677  32.254  26.229  0.2104 -0.0738 -0.2426
84105W        W27096  17.331  31.881   3.919 -0.0470 -0.1657 -0.3206
84106W        W27097  22.186   1.924   3.842  0.2367 -0.0737 -0.0781
84107W        W27098   9.465   1.567  28.732 -0.2712 -0.2666  0.0491
84108W        W27099   5.029  22.241   1.172  0.0320  0.1329 -0.0039
84109W        W27100   2.064  11.033  29.075 -0.2207 -0.3563 -0.1326
84110W        W27101  25.935  18.341  19.027  0.2891  0.2460 -0.1530
84111W        W27102  32.205   4.032   5.734  0.0554  0.0337 -0.2966
84112W        W27103   7.919   9.855  28.982 -0.0911 -0.0374 -0.0001
84113W        W27104  17.601   1.898  10.056 -0.0918  0.2859  0.0122
84114W        W27105  28.787  16.795  21.404  0.0169  0.4848 -0.1447
84115W        W27106  31.638  29.473  21.637  0.0719  0.0044  0.4764
84116W        W27107  14.333  25.601  25.413  0.0603 -0.1185 -0.3505
84117W        W27108  16.371  20.590   4.348  0.1104  0.0900  0.1823
84118W        W27109  26.086   7.111  19.739 -0.0158  0.2075 -0.1031
84119W        W27110  21.242   4.126   4.135 -0.2798 -0.4988  0.0961
84120W        W27111  11.306  33.782   1.184  0.1265  0.0453 -0.0347
84121W        W27112  10.740  31.310  28.271 -0.0188 -0.0909 -0.0506
84122W        W27113  26.381   3.223   9.014  0.1842 -0.1818  0.3910
84123W        W27114  18.462  34.500  23.240  0.0577 -0.2490 -0.0527
84124W        W27115  10.820   6.043  18.796  0.0855  0.2115 -0.1346
84125W        W27116  23.302  22.526  15.965  0.1015 -0.1099  0.0084
84126W        W27117  20.178  32.969   5.158 -0.0182 -0.2039 -0.0160
84127W        W27118  24.042  29.807  14.411  0.1752 -0.4058  0.0827
84128W        W27119  25.610   3.617   8.956 -0.0995 -0.1816 -0.1500
84129W        W27120  15.982  14.854  13.887  0.1518 -0.1772  0.0081
84130W        W27121  19.601  30.772  15.140  0.1436  0.0385  0.1236
84131W        W27122   7.406  27.938  15.210  0.0938 -0.0580 -0.0536
84132W        W27123  22.566   0.683  25.018  0.0651 -0.2007 -0.2378
84133W        W27124  27.904   6.378  27.297 -0.2382  0.2111  0.2145
84134W        W27125  25.282  33.911  21.677 -0.2700  0.0159 -0.0297
84135W        W27126   9.054  27.297   6.681  0.0767 -0.1367 -0.1637
84136W        W27127  24.038  12.765  28.379  0.0521 -0.0693 -0.3067
84137W        W27128  17.027  19.774  23.655  0.0045 -0.1520 -0.1603
84138W        W27129  15.699  32.374  21.448  0.2102  0.3546 -0.1881
84139W        W27130  20.538  20.962   6.893 -0.1043 -0.0017 -0.3273
84140W        W27131  14.990  11.084  19.809  0.0753 -0.0134 -0.1817
84141W        W27132  18.319  25.643  21.141  0.3450  0.2642 -0.3115
84142W        W27133   8.340   2.054   2.919  0.1025 -0.2991  0.2108
84143W        W27134  19.734   3.926   7.305 -0.0311  0.1096  0.0259
84144W        W27135  19.951   9.750   8.085  0.0018 -0.0346 -0.2054
84145W        W27136  25.255  12.510   0.174  0.1831 -0.1369 -0.0440
84146W        W27137  18.839   5.576   7.196 -0.2589 -0.0575  0.0818
84147W        W27138  20.909   8.285  21.201 -0.4543 -0.1319 -0.0588
84148W        W27139  27.333  31.149   2.949 -0.1808 -0.5125  0.1614
84149W        W27140   0.047  16.501   4.639  0.0889 -0.0003  0.0327
84150W        W27141  23.442   1.677  19.741 -0.2115 -0.2584  0.0087
84151W        W27142  29.849  30.147  25.793 -0.1839 -0.0376  0.0335
84152W        W27143  15.886  32.508  21.967  0.0788 -0.0550  0.0688
84153W        W27144  32.907   0.605   8.050 -0.1292  0.1780 -0.1408
84154W        W27145  24.498  22.895   1.146  0.0206 -0.0100  0.0666
84155W        W27146  30.929  31.577   2.802  0.0897  0.0700 -0.0623
84156W        W27147   3.941  23.044  27.158 -0.3153 -0.0308  0.1612
84157W        W27148  16.075  16.071   0.743 -0.0973 -0.2144 -0.3545
84158W        W27149   5.186  17.693  16.139 -0.0588  0.1772 -0.2175
84159W        W27150  26.105  11.419  17.913 -0.2711  0.0402 -0.1140
84160W        W27151   9.879  16.978  29.006  0.0146  0.1809 -0.2694
84161W        W27152  25.030  27.618  17.304  0.0202 -0.0646 -0.1630
84162W        W27153  23.840  34.789   3.117  0.1131  0.0398  0.0619
84163W        W27154   8.754  11.830  22.097  0.0788  0.0480  0.0031
84164W        W27155   2.565  18.967   3.335  0.3225 -0.1468 -0.1812
84165W        W27156  16.640  15.068  24.463  0.0760 -0.1333 -0.2419
84166W        W27157   5.161   0.048  27.883  0.3167 -0.1367 -0.3197
84167W        W27158  17.975  13.577  22.029  0.0016  0.1956 -0.0607
84168W        W27159  34.332   0.742   5.968  0.2716  0.0855  0.0058
84169W        W27160  27.556  32.477  24.617  0.1268 -0.0155 -0.1153
84170W        W27161  20.470  31.341   0.491  0.1657  0.1056  0.0352
84171W        W27162  15.770  21.086  21.057  0.0473 -0.3095  0.1767
84172W        W27163   2.125  23.933  16.815 -0.1440 -0.0979  0.0363
84173W        W27164   5.130  30.931  16.998  0.3807 -0.1204  0.1840
84174W        W27165  14.125  20.493  20.012  0.1184 -0.0066  0.0197
84175W        W27166  21.347   6.097  21.751  0.1727 -0.0974 -0.0574
84176W        W27167  13.481  33.950   0.918 -0.0704 -0.0897 -0.2771
84177W        W27168  25.919  21.515   1.961  0.0857  0.2662  0.2115
84178W        W27169  16.618  24.658   3.022  0.0634  0.1184  0.1094
84179W        W27170  21.124  33.970  24.293 -0.1103  0.2505  0.4477
84180W        W27171   0.170   3.698  17.250  0.1503 -0.0009  0.2834
84181W        W27172  22.275   8.300  18.327  0.0632 -0.3710  0.1708
84182W        W27173  14.293   7.312  21.518 -0.0755  0.1808 -0.1814
84183W        W27174  24.834   7.004   1.705 -0.3338 -0.1437 -0.2163
84184W        W27175  21.367  21.258   0.078 -0.0700 -0.1553 -0.0194
84185W        W27176   1.694   8.171   6.865  0.3880 -0.2394  0.0848
84186W        W27177   9.963  29.157   6.432 -0.0457 -0.0994  0.3471
84187W        W27178   8.010   0.629   3.499 -0.1312  0.1862 -0.1857
84188W        W27179  31.505  12.894   8.353  0.3845  0.0945  0.0825
84189W        W27180   7.410   2.024   9.717 -0.0336  0.2057 -0.3490
84190W        W27181  28.206   6.437   0.560 -0.3519 -0.2019  0.0769
84191W        W27182   6.084   9.074  28.929 -0.1050 -0.0463  0.1102
84192W        W27183  16.783   7.930   0.476 -0.0806  0.0818  0.0181
84193W        W27184  28.437   1.614   3.089  0.2993 -0.2272  0.1338
84194W        W27185   9.630   1.696  14.809 -0.2627 -0.2559  0.2012
84195W        W27186  25.095  22.193   2.137  0.1139  0.0597 -0.3574
84196W        W27187   2.594   3.110  24.269 -0.3011 -0.1539 -0.3341
84197W        W27188   9.448  25.092  18.333 -0.0518  0.2827 -0.0561
84198W        W27189  23.404  24.242  21.004  0.2587 -0.0366  0.0027
84199W        W27190  18.312  15.771  28.212  0.1520  0.1307 -0.0982
84200W        W27191  16.327  31.385  19.270  0.2248  0.1617 -0.2154
84201W        W27192  21.548   3.666   4.239  0.1281 -0.2801  0.3085
84202W        W27193   1.508  31.389  25.650 -0.1021  0.0683 -0.0994
84203W        W27194  14.535   1.345  23.672  0.0100 -0.1582 -0.1488
84204W        W27195  16.093  33.408   0.582  0.0544  0.0765 -0.4742
84205W        W27196   6.944  10.118  10.911 -0.0450  0.0681 -0.2871
84206W        W27197  12.256  12.416   1.266 -0.3426 -0.2038  0.1298
84207W        W27198   4.956   8.217  10.381 -0.1444  0.0750  0.0245
84208W        W27199  32.133  11.520   5.851 -0.1646  0.2293 -0.3674
84209W        W27200  14.938  11.628  24.045 -0.2306  0.1852  0.0441
84210W        W27201  17.263  15.977   8.102  0.0545  0.4473 -0.0525
84211W        W27202  13.988  32.809   2.344 -0.0620  0.0262 -0.0938
84212W        W27203  17.269  16.310   1.511  0.1661 -0.0821  0.0525
84213W        W27204  24.527  33.208   8.254  0.1579  0.0090 -0.1051
84214W        W27205   6.333  30.934   2.469 -0.1505  0.0810 -0.2994
84215W        W27206  16.002  30.511  20.434  0.0390  0.1932 -0.0506
84216W        W27207  13.095  13.246   5.805  0.0417 -0.1161 -0.2254
84217W        W27208  17.650   4.208   4.706  0.0869  0.3316  0.2901
84218W        W27209  21.704   5.978   5.556 -0.2275 -0.2076  0.3159
84219W        W27210  25.367  29.252   4.684  0.3092  0.3434 -0.2784
84220W        W27211  33.930   7.228  27.571 -0.0718 -0.0208  0.1931
84221W        W27212  16.238   5.358   7.749  0.0392  0.1705  0.1801
84222W        W27213  18.419  34.456   8.309  0.1114 -0.0200  0.1402
84223W        W27214  20.745  34.644  24.154  0.0688  0.0810  0.0899
84224W        W27215  33.996  33.228  29.171  0.3682  0.0601 -0.0298
84225W        W27216  19.139  27.299   3.028 -0.1374 -0.0460  0.2119
84226W        W27217  18.833  18.086   3.291 -0.1184 -0.1987 -0.2911
84227W        W27218  22.111  29.697  23.850  0.0355  0.3414  0.1656
84228W        W27219  11.741  29.972  27.722 -0.0445 -0.1110 -0.1891
84229W        W27220  24.689   9.359  15.225 -0.1358  0.0831 -0.0493
84230W        W27221  31.087   5.009  20.928  0.0070  0.0486  0.2414
84231W        W27222  13.084   4.322  17.510  0.0461  0.1518 -0.1002
84232W        W27223  25.932   3.009  26.155  0.0389  0.0929 -0.2325
84233W        W27224  29.655   0.855  23.872 -0.1024  0.2583 -0.1122
84234W        W27225  26.300   7.256  15.730 -0.1000 -0.0138  0.0079
84235W        W27226  27.166  29.593   7.539  0.0966  0.1041 -0.3379
84236W        W27227   4.243   7.569  15.489  0.1764 -0.3605  0.0661
84237W        W27228   6.501  31.104  14.849  0.1530 -0.2328  0.0298
84238W        W27229  18.455   2.071   4.676  0.0377  0.1083 -0.2230
84239W        W27230   0.876   3.374   6.167  0.2588 -0.2122  0.1824
84240W        W27231  23.153   4.072  15.462  0.0605 -0.1533 -0.1103
84241W        W27232  11.625  30.193  17.101  0.2323 -0.0803 -0.0756
84242W        W27233  28.486  31.099  13.113 -0.2033 -0.0289 -0.1986
84243W        W27234   2.707   1.919  23.172 -0.0480  0.2514  0.2385
84244W        W27235   0.468  20.994  23.547 -0.0049  0.0739  0.1051
84245W        W27236  14.872  34.682  24.965  0.1821 -0.0769 -0.0210
84246W        W27237  27.099  24.754  15.815 -0.0033  0.2236 -0.2551
84247W        W27238   8.838  24.134  20.472 -0.0179 -0.1225 -0.1358
84248W        W27239  26.908  29.468  28.279 -0.1642  0.4610 -0.2475
84249W        W27240  13.890   2.300  29.238  0.4062 -0.0005 -0.1260
84250W        W27241  20.449  13.999  26.354  0.0729 -0.0718  0.2515
84251W        W27242  31.082  12.312  25.031  0.1333  0.0974  0.0344
84252W        W27243   0.305   5.030   3.895  0.1342 -0.2138 -0.0823
84253W        W27244  27.156  32.735  13.507 -0.1347 -0.1035  0.1963
84254W        W27245   8.859  27.540  19.665  0.2724 -0.0690 -0.1085
84255W        W27246  21.400   5.358   1.377  0.0738 -0.0410  0.0889
84256W        W27247  13.597  29.970   2.062 -0.1503  0.2220 -0.4382
84257W        W27248  21.399  26.583   2.341 -0.1100 -0.1114  0.2002
84258W        W27249  18.408  25.304  19.606  0.0479  0.0792 -0.1846
84259W        W27250   6.494  33.335  26.672  0.0353 -0.1334 -0.0102
84260W        W27251  22.148  33.863   7.709 -0.1675 -0.1250 -0.0930
84261W        W27252  16.994   0.251   7.361  0.1658 -0.3533 -0.0629
84262W        W27253  13.018  11.272  27.215  0.0842 -0.0148 -0.0034
84263W        W27254   9.733  25.550  20.227  0.1635 -0.0750 -0.0352
84264W        W27255  22.988  32.060   3.224 -0.1322  0.0684  0.3152
84265W        W27256  25.671  31.919  20.751  0.2539  0.0365 -0.1101
84266W        W27257  25.214  34.470  27.088 -0.0656  0.2860  0.2857
84267W        W27258  13.517  30.001  16.317 -0.0409  0.1191 -0.0553
84268W        W27259  29.079   7.938  24.392 -0.1175 -0.2227  0.3542
84269W        W27260  33.010  29.222  23.375 -0.1497  0.0886 -0.2892
84270W        W27261  21.683   0.638   7.110 -0.2754 -0.2262  0.0101
84271W        W27262  28.042  26.544  28.840  0.1184 -0.5091 -0.0548
84272W        W27263  16.331  10.389   0.454  0.2866 -0.0406 -0.0664
84273W        W27264  17.007  18.237   0.554  0.0071 -0.0252 -0.2440
84274W        W27265  22.043   1.711  22.849 -0.1345  0.1912  0.0546
84275W        W27266  31.516  11.305   1.080  0.2744  0.0555 -0.1351
84276W        W27267  22.194  12.442  23.026 -0.2470  0.0761  0.0090
84277W        W27268   3.835   9.359   3.261 -0.0242  0.1373 -0.0489
84278W        W27269  20.262  26.486  18.401 -0.0687 -0.5466  0.1134
84279W        W27270  22.322  22.732  18.702  0.1675 -0.0872  0.0027
84280W        W27271  20.001   0.619  18.503 -0.0157  0.0844  0.1650
84281W        W27272  12.724  33.762   6.688  0.2042 -0.3642  0.3483
84282W        W27273  29.237  30.813  28.455 -0.2447 -0.0521 -0.1291
84283W        W27274  17.743  29.342  14.132  0.2853 -0.2607 -0.0157
84284W        W27275   4.087  28.115  17.946  0.2135  0.1944  0.0928
84285W        W27276  21.197   1.167   0.595 -0.2555  0.2099 -0.1373
84286W        W27277  23.315   6.703  13.830  0.2927 -0.0170  0.0496
84287W        W27278  12.150   0.575  17.606 -0.0569 -0.0010  0.1990
84288W        W27279  12.305   5.111  17.751  0.0880  0.0068 -0.0850
84289W        W27280  28.257  25.341   1.782 -0.1085  0.5316 -0.3544
84290W        W27281  24.798  14.161   2.516 -0.3527  0.0218  0.1477
84291W        W27282  29.816  29.575   5.464  0.0152  0.0971  0.2030
84292W        W27283  29.944   3.793   6.348  0.1456  0.0619  0.1970
84293W        W27284  20.398   2.712  26.768  0.2711  0.2460  0.0761
84294W        W27285  15.925  11.384  18.661  0.1565 -0.0103  0.1059
84295W        W27286  29.971   9.312  16.431  0.0383 -0.0908  0.1027
84296W        W27287  25.810  11.734  26.207 -0.1266  0.0485  0.0820
84297W        W27288  25.713   0.974  23.052 -0.2188 -0.2515 -0.1113
84298W        W27289  23.506  31.443   2.203  0.1992  0.0346  0.0704
84299W        W27290  18.325  24.293   1.290  0.0777  0.1431 -0.0244
84300W        W27291  31.201  21.732  14.377 -0.3218 -0.1512  0.1182
84301W        W27292  19.111  28.717   2.725 -0.1422 -0.2500 -0.1227
84302W        W27293  23.273   9.305   0.721  0.0390  0.1395 -0.0866
84303W        W27294  25.182  26.560  18.725 -0.3448  0.4273 -0.1746
84304W        W27295  18.514  16.885  24.713 -0.0483 -0.2502 -0.3458
84305W        W27296  32.831  26.933   5.580  0.2499  0.2071 -0.1612
84306W        W27297  19.281   4.156  18.846  0.0844  0.3688 -0.1103
84307W        W27298  23.164   2.131  14.348  0.1701  0.3389 -0.1484
84308W        W27299  17.012  22.936  26.511 -0.1065  0.1104  0.2387
84309W        W27300  12.164  34.528  17.070  0.2174 -0.1279  0.0054
84310W        W27301   3.946  11.789  27.420  0.0623  0.2251 -0.1436
84311W        W27302  19.060  18.190  15.192  0.0951  0.0144 -0.0664
84312W        W27303  28.826  16.949   2.202 -0.1270 -0.1075 -0.1713
84313W        W27304  27.640  14.068  18.307  0.1362  0.1822 -0.1229
84314W        W27305  23.007   9.325  25.845  0.1283 -0.0034  0.1326
84315W        W27306   6.510  30.680  13.640  0.4447 -0.1516  0.0095
84316W        W27307  31.778  34.242  27.818  0.3140 -0.1053 -0.1147
84317W        W27308   0.492  27.965  28.307  0.1338  0.0530 -0.0603
84318W        W27309   2.477  24.418  14.623  0.1161 -0.2436 -0.4792
84319W        W27310  28.554   7.112  16.354  0.3523  0.0382 -0.0008
84320W        W27311   9.382  25.807   3.353  0.1370  0.3396 -0.2122
84321W        W27312  24.309  25.618   2.195  0.1403 -0.3088  0.1610
84322W        W27313  30.396  11.941  20.980  0.3311  0.2470 -0.3334
84323W        W27314  21.041  28.753  23.858 -0.1449  0.1420  0.0129
84324W        W27315  23.757   5.001   4.547  0.2450 -0.0347  0.0516
84325W        W27316  20.223   6.125   1.653  0.3848  0.3203  0.0898
84326W        W27317  17.839   3.071   7.755  0.0167  0.0683  0.0540
84327W        W27318  27.334   2.337   4.300 -0.1168 -0.2628 -0.0143
84328W        W27319  22.806   3.491   1.418 -0.0857 -0.1175  0.0105
84329W        W27320  25.748   4.373  15.950 -0.0643 -0.1832  0.1716
84330W        W27321  28.565   1.904   4.083 -0.1120 -0.1509  0.2009
84331W        W27322  24.825  29.525   2.159  0.0583  0.0124  0.1079
84332W        W27323  12.382   8.189  25.017 -0.3352 -0.4222  0.0933
84333W        W27324  15.802  30.723  25.678  0.0748 -0.1386  0.2722
84334W        W27325  23.546  17.274  24.258 -0.1605 -0.0101 -0.1791
84335W        W27326   2.094  33.213  27.074 -0.2559  0.1276 -0.1350
84336W        W27327   5.015   9.713  18.202 -0.0453 -0.0525 -0.3131
84337W        W27328  17.772   7.416   9.403  0.0572  0.1911 -0.0905
84338W        W27329  14.248  34.644   3.477 -0.2619  0.1330 -0.1454
84339W        W27330  23.511  13.129   2.620  0.0334 -0.1742 -0.0310
84340W        W27331  27.315  34.649  29.028  0.0292  0.1877 -0.0482
84341W        W27332  32.767   4.988  27.243 -0.1608  0.0828 -0.1983
84342W        W27333   2.952  29.885  25.246 -0.0577  0.1337  0.0764
84343W        W27334  11.286  32.888  19.083 -0.4660 -0.1138 -0.0415
84344W        W27335  23.633   2.306   7.572 -0.1183 -0.3085 -0.2291
84345W        W27336  18.048   2.911  19.688  0.0669 -0.3616 -0.3018
84346W        W27337  16.176   9.114   1.824  0.3692  0.0894  0.3730
84347W        W27338  15.414  31.253   3.360  0.1009  0.0292  0.0100
84348W        W27339  22.542   2.997  24.494  0.2970  0.0951 -0.3863
84349W        W27340  21.456  21.035  13.162 -0.2099 -0.4486 -0.1064
84350W        W27341   8.979   7.870   9.126  0.2210  0.3964 -0.0155
84351W        W27342  17.747  32.297   0.022 -0.2301  0.0091 -0.0482
84352W        W27343  24.818   1.531   5.531  0.2463 -0.1267 -0.0170
84353W        W27344  17.336  26.271   1.737  0.0519  0.2293 -0.3160
84354W        W27345   1.898  30.048  26.026  0.0900 -0.0417  0.4310
84355W        W27346  28.390   2.527  23.648  0.0237 -0.1766  0.0791
84356W        W27347  11.923  13.558  27.741  0.0503  0.1012  0.0163
84357W        W27348  23.836  27.007  24.376 -0.1037 -0.1493  0.1017
84358W        W27349   4.450  28.572   7.710 -0.2939 -0.1675  0.0872
84359W        W27350  24.155   8.096   0.447 -0.0288 -0.0927 -0.1554
84360W        W27351  21.811  15.938   0.119  0.1081  0.1709 -0.0587
84361W        W27352  17.513  10.003   4.817 -0.0201  0.1616 -0.1354
84362W        W27353  29.061  27.266  14.334 -0.0449 -0.1032  0.1800
84363W        W27354  30.333   5.156  20.829  0.0899  0.0583 -0.0835
84364W        W27355  19.352   2.429  15.685  0.0669 -0.2674 -0.2564
84365W        W27356  13.206   5.057  25.914  0.1485 -0.2090 -0.3315
84366W        W27357  10.300  25.525  22.501  0.0106 -0.1193 -0.0883
84367W        W27358  24.958  25.411  21.010  0.2459  0.2360 -0.1286
84368W        W27359  29.517  11.177  21.760  0.2440  0.2648  0.0380
84369W        W27360  14.426   1.024  10.251  0.2556 -0.3063  0.0240
84370W        W27361   3.173   7.660  23.781  0.0795  0.2052  0.0545
84371W        W27362  18.590   5.624  16.409  0.0998  0.3521 -0.0309
84372W        W27363  14.453  15.602  13.747 -0.0343  0.1490  0.3915
84373W        W27364  28.678  26.476  24.463  0.0683 -0.0032 -0.1055
84374W        W27365   4.755   0.102  17.293  0.0652 -0.2821 -0.0460
84375W        W27366  13.319  17.922  29.047 -0.0824  0.2643  0.0196
84376W        W27367  19.401   5.399  18.491 -0.0060 -0.1033  0.0608
84377W        W27368  11.230  32.545  19.481  0.2004 -0.1056 -0.0600
84378W        W27369   0.435  25.400   4.927 -0.0462  0.2787 -0.0910
84379W        W27370  19.533   9.910  23.749  0.0447 -0.1369  0.0732
84380W        W27371  26.959   6.165  29.078 -0.1651  0.2532  0.1932
84381W        W27372  13.358  28.292  26.479 -0.4333 -0.1462  0.1341
84382W        W27373  15.950   5.482   1.002 -0.0041 -0.0887 -0.0024
84383W        W27374  34.183  32.031  20.826  0.2811  0.0890  0.4103
84384W        W27375   3.031   2.174   9.957 -0.1894  0.0155 -0.0283
84385W        W27376  12.944   6.232  23.615  0.1382 -0.3536  0.0446
84386W        W27377  13.866  28.345   5.054  0.1648  0.1273 -0.1298
84387W        W27378  20.100   6.448   1.293  0.0816  0.0362 -0.0474
84388W        W27379  20.437   3.079   7.348 -0.2860 -0.0379 -0.1342
84389W        W27380  32.272  31.774  15.215 -0.0475 -0.0045  0.0135
84390W        W27381  31.447  31.578  16.579 -0.1376 -0.3160 -0.4861
84391W        W27382  14.984  12.072   0.725  0.2070 -0.1961  0.0889
84392W        W27383  19.996   3.501  25.243 -0.1120 -0.0134 -0.1310
84393W        W27384  33.527  26.734   0.398  0.3558  0.0810  0.0221
84394W        W27385  16.633   8.535  18.345 -0.0938 -0.3458 -0.0833
84395W        W27386  10.559  26.738  14.695 -0.1363  0.3579  0.0510
84396W        W27387  11.549  16.793  19.862  0.0107  0.2788  0.1054
84397W        W27388  21.721  11.288   5.595  0.2115  0.1816  0.4470
84398W        W27389  12.294   2.298   0.732 -0.1535 -0.0146 -0.0960
84399W        W27390  12.089   2.014  24.328  0.4440  0.1622 -0.1082
84400W        W27391   5.501  17.535  25.975  0.3097 -0.1478  0.1431
84401W        W27392  15.111   6.551  28.763 -0.3941  0.2794  0.0261
84402W        W27393  18.111  15.016  23.769  0.1461  0.0220 -0.0279
84403W        W27394  27.281   7.434  21.533 -0.2588  0.3086 -0.3469
84404W        W27395  18.951  23.449  27.951  0.0212 -0.3417 -0.0731
84405W        W27396  29.268  25.546   7.769 -0.2248 -0.3358 -0.0186
84406W        W27397  24.488   4.599  25.893  0.4624 -0.1516  0.0565
84407W        W27398   0.981  26.282  26.163 -0.0692 -0.2152  0.2581
84408W        W27399  22.754  25.805  27.680 -0.0695  0.0309 -0.2337
84409W        W27400  33.549  30.888  18.443  0.0305 -0.0293 -0.0578
84410W        W27401  26.459   5.697   1.868 -0.0679 -0.0734  0.0747
84411W        W27402  18.765  30.379  19.813 -0.1218 -0.4715 -0.2049
84412W        W27403  22.246  19.000  16.768 -0.2107 -0.3431 -0.0318
84413W        W27404  27.561   5.433  19.417  0.1680 -0.2069 -0.0715
84414W        W27405  15.480  11.160  26.522 -0.0754 -0.3052  0.2434
84415W        W27406  26.077   0.082   6.223 -0.0044 -0.0275 -0.0658
84416W        W27407  17.466   0.952  23.596 -0.0239 -0.1515  0.4773
84417W        W27408   1.807   8.531  28.649  0.5161 -0.1859 -0.2284
84418W        W27409   3.424   9.438   9.262  0.1663  0.0719  0.0874
84419W        W27410  20.391   6.835   0.814  0.0609 -0.1797  0.0352
84420W        W27411  22.523  18.380   4.217 -0.1496  0.1240  0.2645
84421W        W27412  21.926  19.605   7.116  0.1807 -0.2138  0.4046
84422W        W27413  29.180  31.439  26.240 -0.0606  0.3064  0.0016
84423W        W27414  32.345   3.783   6.533 -0.3588  0.0295 -0.2235
84424W        W27415  29.308  11.701  20.629  0.1662  0.0227 -0.0634
84425W        W27416  17.897  10.585  28.986 -0.1680  0.0954 -0.1860
84426W        W27417  31.222  11.124  19.277 -0.0508 -0.0196 -0.1454
84427W        W27418  11.253   0.601   5.026  0.0098 -0.4157 -0.1252
84428W        W27419   5.364  28.752  22.166 -0.0374  0.2215 -0.3478
84429W        W27420  18.916  27.652  14.145 -0.0620 -0.1968 -0.2707
84430W        W27421   8.934  24.692   7.976 -0.2002  0.0378 -0.2184
84431W        W27422  32.393   3.024  28.328 -0.0598 -0.1573 -0.0908
84432W        W27423  32.670  20.534   3.240  0.0769 -0.0422 -0.0148
84433W        W27424  33.650  27.284   5.088  0.4529 -0.1273  0.1781
84434W        W27425  28.255  26.520  17.594  0.2802  0.1056  0.1443
84435W        W27426  20.703  34.693  16.336  0.2587  0.1485  0.0011
84436W        W27427  27.822  17.713   2.624 -0.1781  0.2706 -0.1027
84437W        W27428  20.452   2.670  14.336 -0.0561 -0.0190  0.2634
84438W        W27429  19.902   7.467  27.261 -0.0988 -0.1639  0.0496
84439W        W27430  34.529   5.071  27.550 -0.1497 -0.0990 -0.1112
84440W        W27431   3.678  27.744  27.394  0.1700 -0.0580 -0.2365
84441W        W27432  33.474  31.115   5.545  0.0742  0.2800 -0.0158
84442W        W27433  12.434  11.267   1.827  0.0570  0.2205 -0.2135
84443W        W27434  12.412   6.211  15.157  0.3167 -0.2645  0.2210
84444W        W27435  15.264   3.788  11.439  0.1564 -0.1646 -0.1933
84445W        W27436   9.788  33.506   1.926  0.1227 -0.0877 -0.1835
84446W        W27437  15.633   9.435  28.040  0.0720 -0.0956 -0.2429
84447W        W27438  11.572  12.174  24.098 -0.1843 -0.1528  0.0930
84448W        W27439  26.662  18.365   7.839 -0.0834  0.2425  0.1311
84449W        W27440  26.831  28.326   4.692  0.1749  0.1443  0.0200
84450W        W27441  27.884  29.584  23.629 -0.0090 -0.1736 -0.0302
84451W        W27442  25.716  23.587  17.999 -0.2654 -0.0606  0.1707
84452W        W27443  29.760  10.427   5.392  0.1839 -0.2719  0.0072
84453W        W27444  22.154   3.239   0.137  0.0916 -0.0318  0.0282
84454W        W27445  23.401  12.678   2.872 -0.0447 -0.1632  0.0215
84455W        W27446  32.461  14.048   3.676 -0.4030  0.1917  0.0789
84456W        W27447  10.699  32.262  23.388 -0.1995 -0.0589  0.1507
84457W        W27448  14.833  20.123  24.560  0.0206 -0.0176 -0.2436
84458W        W27449   3.472   5.588   3.003 -0.1019 -0.0761  0.5198
84459W        W27450   9.983  10.549  27.793 -0.0248  0.1643 -0.2710
84460W        W27451  11.672  24.698   6.200 -0.0645 -0.1446  0.1197
84461W        W27452  22.762  23.646  17.238  0.1391 -0.3922  0.1999
84462W        W27453  21.692  28.151  25.027 -0.2387 -0.1000  0.0480
84463W        W27454   4.421   0.707   3.901 -0.2312 -0.0226 -0.1363
84464W        W27455  16.944  27.223   2.587  0.2631 -0.1480 -0.1967
84465W        W27456  21.920  27.876   9.125  0.1092  0.3478 -0.2176
84466W        W27457  22.595  17.218   1.641 -0.0670  0.1769 -0.0315
84467W        W27458  13.862  33.009  15.458  0.4087  0.1253  0.0445
84468W        W27459  27.396  27.413  20.947  0.3150  0.4450  0.1066
84469W        W27460  26.524   9.920   3.446  0.4129  0.2055  0.3461
84470W        W27461  10.888   7.218  10.528  0.2384  0.0017 -0.1827
84471W        W27462   6.322  14.968  27.965 -0.2792  0.1615  0.0582
84472W        W27463  23.687   9.479  20.304  0.1525 -0.2455 -0.2290
84473W        W27464  18.961  12.098   8.421 -0.1809  0.0524 -0.2231
84474W        W27465  19.440  32.981   4.638 -0.0712  0.2312 -0.0378
84475W        W27466  24.011   3.115   4.545  0.0563 -0.2361  0.1672
84476W        W27467  22.074  22.823   1.069 -0.3187 -0.0187 -0.2552
84477W        W27468  26.976   4.557  18.549  0.1546 -0.2152  0.2091
84478W        W27469  23.274  13.072   1.663 -0.1694  0.2500 -0.0060
84479W        W27470  28.806  16.906  20.220 -0.1737 -0.1467 -0.2758
84480W        W27471  32.821  14.825  16.551  0.1055 -0.2875  0.1402
84481W        W27472  19.500  32.210  24.723 -0.1871 -0.0793  0.0110
84482W        W27473   0.579  17.987  23.326  0.3535  0.1851  0.0951
84483W        W27474  27.069   3.822   3.430  0.0039  0.1308 -0.0023
84484W        W27475  19.737   8.684  23.457 -0.2687  0.1320 -0.1167
84485W        W27476  16.496  21.237  16.976  0.1582 -0.1694  0.0123
84486W        W27477  16.484   7.819  25.866  0.1070  0.1872  0.1268
84487W        W27478  19.597   4.899  18.198  0.0250  0.2267 -0.0222
84488W        W27479  13.546   5.730  25.204  0.2796  0.0180 -0.0637
84489W        W27480   2.960  12.034  23.005 -0.0375  0.0596  0.1105
84490W        W27481   2.916   5.139  28.723 -0.0770  0.0564 -0.1149
84491W        W27482  31.091  26.350   3.764  0.2182 -0.0377  0.0893
84492W        W27483   6.741  12.233   6.922 -0.1714  0.0826 -0.0995
84493W        W27484  23.409   9.447  25.075  0.1158  0.1308 -0.2055
84494W        W27485  11.617   6.733  23.976 -0.1268  0.0653 -0.2141
84495W        W27486  12.036   0.786  16.845  0.0858 -0.0167  0.0686
84496W        W27487   1.931  31.750  22.214  0.0965 -0.1531 -0.0028
84497W        W27488  30.007  11.788  18.189 -0.0255  0.1005  0.3900
84498W        W27489   4.326   9.582  21.663 -0.0076  0.1397  0.0029
84499W        W27490  26.997  25.942  18.508  0.2033  0.0692  0.1015
84500W        W27491  18.917  33.804  18.578 -0.1022 -0.2302  0.1276
84501W        W27492  23.119   4.669  22.324 -0.3680 -0.1019  0.1796
84502W        W27493  26.205  25.756   7.932  0.2974  0.4144  0.0530
84503W        W27494  26.237  12.015  27.264 -0.2023 -0.1469 -0.1001
84504W        W27495  24.849  12.624  27.933  0.1714 -0.2042 -0.0538
84505W        W27496  28.929  15.155  16.310  0.0351  0.0348 -0.0374
84506W        W27497   3.055  21.617  23.197  0.0377 -0.0939 -0.0507
84507W        W27498  20.832  27.602  18.972 -0.2396  0.0611  0.0688
84508W        W27499  15.085  16.058   1.126 -0.1466  0.1350  0.0440
84509W        W27500  26.475   5.222  17.760 -0.1339  0.1374  0.2256
84510W        W27501  18.436  30.418  19.266  0.0481 -0.0355 -0.1056
84511W        W27502  18.386   4.745  26.701 -0.0057  0.1418  0.0326
84512W        W27503  25.067   7.290  21.563  0.0806  0.1586 -0.0930
84513W        W27504   3.934  14.627  27.652 -0.0307  0.0963 -0.4158
84514W        W27505  23.453  17.791  21.962 -0.1490 -0.4650  0.1423
84515W        W27506  33.008  18.787  17.129  0.1923  0.0457  0.1066
84516W        W27507  15.716   4.820  19.727  0.0074  0.2026 -0.1301
84517W        W27508  15.346   1.207  15.877  0.0983  0.2347 -0.0352
84518W        W27509  17.674  30.480   0.868  0.0594  0.0270  0.3449
84519W        W27510  21.550  16.210  21.153 -0.0045 -0.0337 -0.0411
84520W        W27511  30.569  30.144   2.775 -0.0743 -0.2555 -0.2965
84521W        W27512   2.612  12.448  22.979  0.2077 -0.0132 -0.2717
84522W        W27513   5.384  14.739   8.487  0.1177 -0.2004  0.3233
84523W        W27514  29.963  10.932  17.108 -0.2489  0.1118 -0.1777
84524W        W27515  17.374  12.380  17.877  0.0338  0.2600  0.1166
84525W        W27516  29.418  32.519  14.122  0.2010 -0.1506  0.0767
84526W        W27517  20.934   7.543  24.122  0.0807 -0.0041  0.0646
84527W        W27518  32.498   3.712  13.467 -0.1991  0.0831 -0.0621
84528W        W27519  13.874   6.697  15.407 -0.2168 -0.0467 -0.0615
84529W        W27520   9.802   4.511  24.141 -0.1594  0.0322  0.1050
84530W        W27521  24.805  32.240  18.279 -0.0683  0.3945 -0.3028
84531W        W27522  17.991  20.646  24.128 -0.0686 -0.0970  0.1113
84532W        W27523  27.444   9.719  22.167  0.3200  0.1550  0.1269
84533W        W27524  24.679  24.409  28.445  0.0754  0.2393 -0.0776
84534W        W27525  12.516  20.744  17.046 -0.0483 -0.1597  0.1888
84535W        W27526  13.054  32.923  28.641  0.2447 -0.0980  0.1868
84536W        W27527  24.183   9.342  17.892  0.1601 -0.0726  0.1482
84537W        W27528   0.553  16.759  20.292 -0.0486  0.4094  0.3913
84538W        W27529  13.272  30.721  15.068  0.0317 -0.2495 -0.3802
84539W        W27530  24.964   6.997  16.954  0.2066  0.1192  0.2287
84540W        W27531  26.507  24.455   5.518 -0.0004 -0.0634 -0.0213
84541W        W27532  28.717   3.520   4.873 -0.3519 -0.1024 -0.2320
84542W        W27533  19.615  32.048   2.396  0.0573 -0.1293 -0.0847
84543W        W27534   2.690   8.956  19.019  0.0713  0.3786 -0.0167
84544W        W27535   1.007  33.631  20.950 -0.0407 -0.0525 -0.2093
84545W        W27536  26.422  29.435  13.575  0.0697 -0.1171 -0.0237
84546W        W27537  10.468  31.724  28.424  0.2660 -0.2632  0.1425
84547W        W27538  17.113  31.316  15.815 -0.2642  0.0908  0.2339
84548W        W27539  23.653  29.828  16.862 -0.2607 -0.2215  0.0019
84549W        W27540  28.904   9.293  28.724 -0.0424 -0.0272 -0.1586
84550W        W27541  16.716  30.724  17.512 -0.2665  0.0137 -0.0929
84551W        W27542  22.214  16.979   9.803  0.0834 -0.0657  0.3735
84552W        W27543   9.662  29.515  27.340  0.1074 -0.1492  0.2634
84553W        W27544  22.823   9.034  16.960 -0.6283  0.1390 -0.0246
84554W        W27545  20.628  33.596  23.552 -0.3592  0.0157 -0.0710
84555W        W27546  24.293  16.477  23.484  0.3926  0.2748 -0.0567
84556W        W27547  22.733   9.105  27.903  0.1326 -0.0286  0.0629
84557W        W27548  29.543  13.073  26.527 -0.0439 -0.0743 -0.0284
84558W        W27549  15.617   7.846   0.640  0.0418 -0.0167  0.0616
84559W        W27550  33.436   9.275  20.569 -0.0327  0.0091  0.2245
84560W        W27551  16.694   8.109  22.462  0.0516 -0.0317 -0.2418
84561W        W27552  30.239  15.308  16.894 -0.3298  0.0548  0.0389
84562W        W27553   9.204  33.652  29.203 -0.3372 -0.2410 -0.0973
84563W        W27554   9.368  31.248   5.729  0.3497  0.3656  0.1565
84564W        W27555  13.186  33.853  17.498 -0.0742  0.0845 -0.0234
84565W        W27556  19.072  33.442  20.086 -0.0103 -0.2705 -0.3400
84566W        W27557  31.633  17.275  20.062  0.1018  0.1119  0.2050
84567W        W27558  21.930   1.764  21.965 -0.0734  0.0331  0.2263
84568W        W27559  24.553  25.199  22.764  0.0676  0.1289 -0.0827
84569W        W27560  21.096  28.614  26.268  0.1008  0.2672  0.1730
84570W        W27561  25.775  16.766  22.848 -0.3734  0.0458  0.1339
84571W        W27562  23.427   6.128  19.108  0.1267 -0.2492 -0.1471
84572W        W27563  17.073  22.626  18.320 -0.0302  0.2437  0.0543
84573W        W27564  15.590   9.404  15.833 -0.1358  0.0965  0.2754
84574W        W27565   9.121  24.699  16.777 -0.1341  0.0833  0.2416
84575W        W27566  20.571  33.577  16.835 -0.1902 -0.1524  0.0582
84576W        W27567  17.544  19.577  22.301  0.0100 -0.2838 -0.0308
84577W        W27568  21.429  33.129  15.882  0.1057  0.1896 -0.1846
84578W        W27569   9.277  11.798  16.828 -0.0336 -0.1398  0.0707
84579W        W27570   8.353  31.487  23.381  0.0992 -0.0663 -0.0267
84580W        W27571  23.216  13.259   0.242  0.0177  0.2543  0.0561
84581W        W27572  13.230  22.645  18.434  0.2959  0.0082  0.1949
84582W        W27573  21.182  11.017  26.018  0.1237  0.0838 -0.2936
84583W        W27574  20.110   4.124  19.492  0.0358  0.1659  0.1293
84584W        W27575  11.712  26.580  18.098  0.0064  0.3935 -0.0550
84585W        W27576   7.160   0.014  20.862 -0.4051 -0.0218 -0.2223
84586W        W27577   9.192  18.103   0.805  0.0231  0.2166  0.1618
84587W        W27578  25.864  28.368  15.577 -0.2179 -0.0260 -0.1872
84588W        W27579  17.201   1.484  22.683 -0.0083 -0.3071  0.0875
84589W        W27580  23.767  11.764  18.711  0.2871 -0.2861  0.2738
84590W        W27581   1.754  16.466  20.230  0.1705 -0.2641 -0.1672
84591W        W27582  11.202  31.080  17.139 -0.0248  0.4374 -0.0960
84592W        W27583   8.308   4.720  23.363  0.0583  0.1068  0.0390
84593W        W27584  16.149   9.958   4.499 -0.0548  0.0027 -0.2060
84594W        W27585  16.993  24.531  17.899 -0.2373 -0.1673  0.0567
84595W        W27586   6.399   9.798  27.997 -0.0548 -0.1144  0.0716
84596W        W27587  31.240  20.208  16.164  0.0246  0.1340  0.2261
84597W        W27588  21.918   8.413  14.971  0.0431  0.0019  0.3024
84598W        W27589  25.657  16.679   5.791 -0.1251  0.1089 -0.0988
84599W        W27590  30.652   1.241  18.889  0.1840  0.1015 -0.3554
84600W        W27591  26.107   2.194   6.601 -0.2190 -0.1563 -0.1907
84601W        W27592  34.427   7.905  23.249 -0.1364  0.0398 -0.0038
84602W        W27593   0.489   5.076  14.201  0.0871 -0.1460  0.0062
84603W        W27594  22.840   1.417  20.177 -0.4253  0.0162  0.1283
84604W        W27595  14.777   7.350  17.155 -0.2349  0.0156 -0.3445
84605W        W27596  26.264   5.207  15.039  0.0307  0.3730 -0.4094
84606W        W27597  30.852  16.953  18.832 -0.0405  0.1106  0.0614
84607W        W27598   1.599  26.318   0.978  0.1057  0.2154 -0.0556
84608W        W27599  26.625  32.974  13.425 -0.2829  0.1366 -0.0312
84609W        W27600  28.506  33.255  25.352  0.2955  0.1131  0.0933
84610W        W27601  20.225  28.837   1.009  0.0734  0.2000 -0.1305
84611W        W27602  17.333  11.559  16.894 -0.1240 -0.1480 -0.2061
84612W        W27603  19.170  17.415  15.708  0.0094 -0.1863 -0.2210
84613W        W27604  21.344   7.547  14.920 -0.0627  0.1357 -0.0146
84614W        W27605  23.730   0.452  24.198  0.3419 -0.2259 -0.3980
84615W        W27606  23.745   1.392  13.949  0.2099  0.2554  0.3121
84616W        W27607  26.788  10.202  14.902 -0.2792  0.2629 -0.3070
84617W        W27608  16.463  22.954  15.618 -0.2033 -0.2225  0.3301
84618W        W27609  18.021   5.449  23.166 -0.1750  0.2414  0.0644
84619W        W27610  23.467   0.187  13.134  0.0579  0.3715  0.1121
84620W        W27611   3.527  29.359  14.492 -0.1946  0.2981 -0.1812
84621W        W27612  13.018  12.344  19.044 -0.1228 -0.0527 -0.0304
84622W        W27613  31.751  20.664  15.486 -0.0312 -0.0742 -0.0017
84623W        W27614  33.034   0.728  22.219  0.0185  0.2016  0.1722
84624W        W27615  18.076   6.331   5.961  0.0663 -0.2022  0.0130
84625W        W27616  22.100   9.514  18.818  0.0103 -0.0025  0.2708
84626W        W27617  17.710  30.539  23.533  0.0990  0.0505  0.1598
84627W        W27618  11.099   8.178  21.686 -0.0207  0.0598  0.3894
84628W        W27619  18.815  18.185  15.850  0.2593  0.3844  0.2160
84629W        W27620  28.414  13.606  15.385 -0.1107  0.1801  0.0539
84630W        W27621  26.351  10.820  16.085 -0.1098  0.5437  0.1768
84631W        W27622  16.232  33.885  16.804 -0.1221  0.2035 -0.2264
84632W        W27623  31.848   2.887  17.599  0.1030 -0.0574 -0.0340
84633W        W27624  15.980  24.288  19.016  0.1511 -0.1914  0.0366
84634W        W27625  16.773  18.166  28.361  0.1685 -0.0750  0.1283
84635W        W27626  26.164   1.302  23.019  0.1340 -0.0861 -0.0617
84636W        W27627  32.631   4.861  20.434 -0.1192  0.0992  0.0082
84637W        W27628  24.279   4.476  17.394  0.1567  0.0982  0.0047
84638W        W27629  15.498   6.967  19.263 -0.0227 -0.1044  0.1737
84639W        W27630  11.717  15.271  19.300  0.1629 -0.1000 -0.1083
84640W        W27631  22.800  31.214  15.525 -0.0469 -0.0183  0.1492
84641W        W27632  21.497   2.850  23.801  0.0030 -0.2155 -0.1003
84642W        W27633  28.645  13.023  20.940 -0.3709 -0.0830  0.1723
84643W        W27634  12.937   1.619  22.578  0.1434  0.2972  0.0072
84644W        W27635  30.739  10.899  15.735 -0.0065 -0.1749 -0.2626
84645W        W27636  21.082   6.635  18.665  0.4313 -0.1567  0.0937
84646W        W27637   4.473   1.863  16.377 -0.1202 -0.0016 -0.3787
84647W        W27638  22.813   4.551  28.405  0.0384  0.3989  0.2755
84648W        W27639  20.553  30.374  14.232  0.0204  0.1370  0.1956
84649W        W27640  10.363   5.488  22.691 -0.1788  0.0966  0.0711
84650W        W27641  24.557   1.312  15.368 -0.3391 -0.0432 -0.0782
84651W        W27642   9.373   3.595  18.206 -0.3532  0.1919 -0.0253
84652W        W27643  19.123  27.324  26.646 -0.4769  0.3387 -0.2658
84653W        W27644  22.780   0.936  13.575 -0.1338 -0.0124 -0.2868
84654W        W27645   0.632   7.544  16.150 -0.0701  0.1775  0.0340
84655W        W27646  19.374   7.199  13.676  0.0738 -0.3402  0.1261
84656W        W27647  28.683  20.350  26.278 -0.0470  0.1121  0.1902
84657W        W27648  21.015  32.114   0.522  0.1788  0.1261  0.0692
84658W        W27649   9.598  34.513  27.618  0.1941  0.1422 -0.3116
84659W        W27650  26.186  13.198   7.500  0.1467  0.1715  0.0346
84660W        W27651  11.099  25.091  13.778 -0.0010 -0.1920 -0.3026
84661W        W27652  18.273   6.655  19.006 -0.0362  0.0729  0.0691
84662W        W27653  11.245  14.293  16.491 -0.0719 -0.2480 -0.0289
84663W        W27654  21.145  29.937  14.042 -0.2000  0.0499  0.1261
84664W        W27655  28.950  14.574  17.987  0.0153  0.0446 -0.0655
84665W        W27656   1.385  13.413  17.550  0.4240 -0.3520 -0.1514
84666W        W27657  16.214   0.099  19.086  0.0789 -0.1454 -0.2106
84667W        W27658   3.055   4.387  15.866  0.1839  0.1614 -0.0905
84668W        W27659  13.794  27.440   0.461 -0.1862 -0.0357  0.1584
84669W        W27660  17.394   0.022  26.284  0.0088 -0.1979  0.1027
84670W        W27661  24.171   9.615  22.568 -0.1522 -0.0685 -0.1087
84671W        W27662  12.229  10.144  16.836 -0.0165  0.0004  0.0423
84672W        W27663  27.528  27.942  13.830  0.1408  0.1143  0.2733
84673W        W27664  33.935  20.746  15.479  0.0590 -0.2152 -0.0233
84674W        W27665  25.694  25.095  24.362  0.0531  0.0614 -0.0618
84675W        W27666  20.540   8.934  18.445 -0.0707  0.1965  0.0497
84676W        W27667  29.804  27.810  21.072 -0.0343 -0.1499 -0.0599
84677W        W27668  29.539  28.645  21.007 -0.0434 -0.0879  0.1078
84678W        W27669  21.729   1.943  26.150  0.0314 -0.0913 -0.0532
84679W        W27670  30.367   3.460  22.728  0.2153 -0.1635  0.2082
84680W        W27671  22.842   4.839  20.776 -0.0183  0.0962 -0.2682
84681W        W27672  31.116  14.890  21.448 -0.0547 -0.2524  0.0668
84682W        W27673  14.529   7.338  23.233 -0.3130  0.1883 -0.0203
84683W        W27674  20.955   0.609  13.641  0.0389  0.1111 -0.5006
84684W        W27675   6.770  13.863  22.112 -0.1028  0.1248 -0.3376
84685W        W27676  18.340  29.364  27.193  0.0837 -0.2110  0.2367
84686W        W27677  31.560  25.981  16.570  0.2587 -0.0739  0.0725
84687W        W27678  13.317  26.477  21.749  0.0414 -0.0158 -0.1496
84688W        W27679  22.116  11.460  17.068 -0.1781  0.0059  0.0010
84689W        W27680  20.891   7.794  20.444 -0.0334 -0.4075  0.2937
84690W        W27681  31.531  20.423  19.400 -0.2349  0.1037  0.3680
84691W        W27682  16.487   0.688  27.093 -0.0511  0.1735 -0.2352
84692W        W27683  18.426   1.391  24.880  0.1666 -0.3451  0.2226
84693W        W27684  28.532  19.732  20.571  0.1549 -0.1709  0.1117
84694W        W27685  29.419   1.935  19.580 -0.2755 -0.0547 -0.0995
84695W        W27686  33.148  25.782  21.203 -0.2957 -0.0758 -0.0244
84696W        W27687  31.272  34.546  26.059 -0.1889 -0.0611 -0.0030
84697W        W27688  19.992   0.158  21.454 -0.0424 -0.0864  0.1970
84698W        W27689   6.646   9.246  24.476  0.0492  0.2361  0.0165
84699W        W27690  18.319   9.974  14.687 -0.1715  0.1191  0.1685
84700W        W27691   6.286  34.404  17.481 -0.0764 -0.0541 -0.0707
84701W        W27692  28.278  17.499  22.000 -0.0011  0.1567 -0.0698
84702W        W27693  11.676  15.709  19.052 -0.0481 -0.2675 -0.0959
84703W        W27694  15.694   7.202  17.866 -0.0032 -0.0058 -0.3226
84704W        W27695  18.506  11.206  17.076 -0.1288  0.0324  0.0768
84705W        W27696  10.364  31.610  14.628  0.2922  0.1924  0.1047
84706W        W27697  10.649  16.585  21.813  0.0488 -0.2479  0.2319
84707W        W27698  33.863  32.138   2.717 -0.1544  0.0637 -0.1103
84708W        W27699  20.255   1.811  16.712  0.2561  0.2391 -0.0414
84709W        W27700  27.135   4.967  16.629  0.5930  0.1631 -0.3435
84710W        W27701  32.091   6.752  20.850  0.3091  0.1012  0.0193
84711W        W27702  25.504  10.797   8.001 -0.2199  0.0143 -0.0173
84712W        W27703  27.025  29.234  14.134 -0.0798  0.0552 -0.1633
84713W        W27704   7.840  17.806  19.027  0.1317  0.1843  0.0872
84714W        W27705  26.610   9.468  27.423 -0.1302 -0.0623  0.0180
84715W        W27706  21.734   1.161  16.358  0.2495  0.1004  0.0207
84716W        W27707  33.526  20.396   0.943  0.0821 -0.1288 -0.1308
84717W        W27708  26.752  14.272   2.452  0.1610 -0.1356  0.2810
84718W        W27709  27.291  13.438  20.215  0.4021  0.1473  0.0256
84719W        W27710  21.838  17.328  18.962 -0.2818  0.1770  0.2608
84720W        W27711   4.496   2.621  19.045  0.3478  0.1284  0.3699
84721W        W27712  26.086   9.620  20.577 -0.1897 -0.2571  0.3631
84722W        W27713  19.781  24.552  15.052  0.2024  0.5158  0.2511
84723W        W27714  19.252  29.938  17.588 -0.0568  0.1722  0.0850
84724W        W27715  18.552  11.518  15.191  0.1435  0.0375 -0.0231
84725W        W27716   3.476  19.394  15.296 -0.0671  0.1758  0.1813
84726W        W27717   2.309   3.921  16.640  0.1634  0.2067  0.1453
84727W        W27718   1.533  29.356   6.337 -0.0086 -0.0566  0.0075
84728W        W27719  11.082  34.034  21.281 -0.0857  0.0680  0.3598
84729W        W27720  27.812  12.623  24.891 -0.0452 -0.1987 -0.2046
84730W        W27721  23.183   1.082  17.468  0.0440  0.0929  0.0833
84731W        W27722  23.723  13.113   0.102 -0.0784 -0.3355 -0.1089
84732W        W27723  18.010  27.918  28.954 -0.1415 -0.0624  0.0342
84733W        W27724   9.127   6.631  19.129 -0.1519 -0.0014  0.0291
84734W        W27725  10.595  16.885  17.389  0.0087  0.0307  0.1814
84735W        W27726  22.058  13.343  19.869 -0.1143  0.1405  0.4200
84736W        W27727  30.410  13.687  23.140 -0.0598 -0.0601 -0.5803
84737W        W27728  20.577  10.324  20.591  0.0132  0.0732 -0.1125
84738W        W27729  26.710   4.377   1.366  0.1774 -0.2467  0.2873
84739W        W27730   7.478   6.699  16.886 -0.1308 -0.1613 -0.0156
84740W        W27731   9.601  12.327  10.115 -0.3979 -0.3346  0.0563
84741W        W27732  20.043   4.410  15.437 -0.3156  0.0451  0.3140
84742W        W27733  11.588   1.445  21.290  0.0615 -0.0667  0.3306
84743W        W27734   3.712   0.176  23.289 -0.3451 -0.2094  0.0593
84744W        W27735  16.384  30.429  24.258 -0.2552 -0.0053 -0.0401
84745W        W27736  31.482  16.880  25.169  0.0669  0.0170  0.0145
84746W        W27737  30.160  19.327  20.208 -0.0346 -0.2667 -0.0715
84747W        W27738  26.506   6.098  22.474 -0.0542  0.0268  0.1329
84748W        W27739  16.614  33.842   3.908  0.2048  0.1220  0.2049
84749W        W27740  25.698  15.873  15.698  0.0489  0.3249 -0.0548
84750W        W27741  10.987  21.792  18.398  0.2671 -0.1763  0.0852
84751W        W27742  22.301  17.750  16.331  0.1173  0.0004  0.1254
84752W        W27743  18.341  11.103   1.109 -0.1073  0.0832 -0.1256
84753W        W27744   0.904  30.546  23.439 -0.1450  0.2590 -0.2109
84754W        W27745  11.242  10.229  20.131 -0.1123 -0.2881  0.1796
84755W        W27746  26.302   7.912  26.450 -0.0887  0.1233  0.0536
84756W        W27747  21.412  25.801  23.436 -0.2500  0.1871  0.1229
84757W        W27748  29.674  24.055  18.775  0.1723 -0.1596  0.2573
84758W        W27749  29.112   7.358  24.649 -0.0229 -0.0941  0.1486
84759W        W27750  27.205   3.769  19.000 -0.1573 -0.5401  0.2129
84760W        W27751  32.078  32.862  17.162 -0.0302  0.1813  0.1148
84761W        W27752  23.184   7.510  15.274  0.2696  0.1606 -0.3059
84762W        W27753  20.400  17.407  14.020 -0.1285  0.1994 -0.3434
84763W        W27754  26.224   9.894  21.202  0.0708 -0.1962 -0.0955
84764W        W27755  14.140   5.051  21.986 -0.0973 -0.1824  0.1388
84765W        W27756  11.105  32.534  23.208 -0.1057  0.1439  0.0403
84766W        W27757  23.364   4.767  17.320 -0.0980  0.1906  0.1870
84767W        W27758  21.647   3.204  21.896 -0.1546 -0.2917  0.0948
84768W        W27759  23.362   7.036  25.253 -0.3371 -0.1777  0.3310
84769W        W27760  30.707  31.130  15.376  0.2859 -0.0146 -0.1956
84770W        W27761  16.382  16.524  14.698 -0.0753 -0.0082 -0.2563
84771W        W27762  10.130  21.484  26.431  0.1287  0.6525 -0.0681
84772W        W27763  19.099   3.129  18.513 -0.1623 -0.2299 -0.2395
84773W        W27764  21.639  12.720  20.352  0.2171  0.3627 -0.0147
84774W        W27765  18.591  29.859  13.939  0.2794  0.1434  0.1219
84775W        W27766  15.243  17.480  12.487  0.2587  0.1798 -0.2837
84776W        W27767  32.505  34.251   1.021 -0.5036  0.0573  0.0337
84777W        W27768  22.604   2.408  17.971  0.1319  0.0415  0.0107
84778W        W27769  11.666   2.546  16.824 -0.2743 -0.0021 -0.0081
84779W        W27770  12.981  27.666  15.157  0.1379  0.0299 -0.5716
84780W        W27771  14.086   5.680  19.465  0.1704  0.0942 -0.3391
84781W        W27772   7.078  18.243  28.382 -0.0118  0.1203 -0.1321
84782W        W27773   3.530   4.747  22.371 -0.3415  0.0953 -0.1772
84783W        W27774  22.359  18.667  16.126 -0.2767 -0.1041 -0.1092
84784W        W27775  27.240   6.070  21.963 -0.1231 -0.0894  0.2078
84785W        W27776  25.445   0.176  17.867  0.3214 -0.3631 -0.1505
84786W        W27777  31.416  28.450  17.602  0.0514  0.1224  0.0774
84787W        W27778  14.925  11.886  21.454 -0.2435 -0.4227 -0.3829
84788W        W27779  16.398  13.111  17.127  0.1521 -0.0362  0.2274
84789W        W27780  25.859   1.677  22.308  0.0550  0.0297 -0.0722
84790W        W27781   1.236  31.054  15.313  0.0859  0.1327 -0.1497
84791W        W27782   0.988   4.760  17.996  0.1615 -0.0627 -0.2645
84792W        W27783  21.645   6.738  14.958 -0.2083 -0.0748  0.1372
84793W        W27784   0.853   7.213  14.985 -0.1696  0.1092  0.0205
84794W        W27785  16.405  30.195  21.444 -0.0067 -0.1185  0.1047
84795W        W27786   6.601  14.891  22.976 -0.3009  0.1983 -0.0916
84796W        W27787  27.444   0.371  19.651  0.0093  0.0881  0.1671
84797W        W27788  30.767  20.244   5.966 -0.1528  0.1023  0.1345
84798W        W27789  32.834  31.307  18.872  0.1836 -0.2591  0.0585
84799W        W27790  22.439  14.331  18.849 -0.4036  0.1616 -0.1951
84800W        W27791  25.049  19.996  22.087  0.2552 -0.1035  0.0494
84801W        W27792  13.789   4.899  17.843  0.1343 -0.1976  0.2164
84802W        W27793  22.256   3.351  13.196 -0.0024  0.0338 -0.0792
84803W        W27794  24.561   4.272  12.907  0.1190 -0.0288 -0.3234
84804W        W27795  30.935  33.282  15.416  0.0685 -0.2092  0.2361
84805W        W27796  16.910  19.574   2.245 -0.0483 -0.2047 -0.3457
84806W        W27797  20.334  14.210  19.373  0.1038 -0.3502  0.0622
84807W        W27798  21.025   5.232  17.107  0.0205 -0.1392 -0.0900
84808W        W27799  25.439   5.506  17.396 -0.1380  0.1502 -0.1222
84809W        W27800  31.427  33.364  15.268  0.0939 -0.0426 -0.0262
84810W        W27801  15.196  11.276  15.664  0.1176  0.1242 -0.2876
84811W        W27802  31.593   2.678  14.160  0.1177 -0.2056 -0.3625
84812W        W27803  23.492  21.419  18.228  0.1598 -0.1632  0.3266
84813W        W27804  19.795   2.292  15.204  0.1416 -0.1643  0.0833
84814W        W27805  17.083  33.462  15.606  0.2736  0.0718  0.0002
84815W        W27806  33.630  10.839  25.865  0.0853  0.0191 -0.0143
84816W        W27807  17.525   8.944  18.397  0.0385 -0.1753  0.2979
84817W        W27808  23.359   4.901  20.442  0.1579  0.2562  0.0630
84818W        W27809   7.711  15.828   0.879 -0.0694 -0.0945  0.0421
84819W        W27810   0.740  10.922  18.715 -0.1537  0.0103  0.1810
84820W        W27811  17.458   6.125  19.213  0.1134 -0.1242 -0.0734
84821W        W27812  27.061   5.344  22.156  0.0411 -0.1052  0.0909
84822W        W27813  18.342   0.015   1.392 -0.0862 -0.0921 -0.0551
84823W        W27814  24.970  10.051  20.182  0.0862  0.0269  0.3325
84824W        W27815  24.523   7.374  13.741  0.0954 -0.3895  0.0849
84825W        W27816  25.962   6.688   8.209 -0.1263  0.0325  0.2538
84826W        W27817   8.084   1.148  15.516  0.3504 -0.2145  0.2912
84827W        W27818  11.657  15.360  17.665 -0.2712 -0.0892 -0.1111
84828W        W27819  21.494   9.079  26.164 -0.1568  0.1517 -0.0298
84829W        W27820  21.946  31.014  14.116  0.0833  0.0029 -0.0732
84830W        W27821  12.217  10.409  19.756 -0.0530  0.1484  0.1351
84831W        W27822  16.279  15.448  15.739  0.2917  0.1754 -0.0359
84832W        W27823   2.600   9.914  25.521 -0.0591 -0.1067  0.2714
84833W        W27824  23.806  15.761  14.121  0.0691  0.1590  0.0367
84834W        W27825  22.283   1.218  19.605 -0.1228  0.0553  0.0250
84835W        W27826  17.556  25.733  15.015  0.3851 -0.0560 -0.3211
84836W        W27827   0.588   9.035  24.635 -0.3318 -0.0552 -0.1143
84837W        W27828  18.849   1.863  14.000  0.0642  0.0762 -0.0257
84838W        W27829  30.737   9.198  28.701 -0.1318  0.0999  0.0859
84839W        W27830   8.641   9.419  23.018  0.0636  0.1569 -0.0040
84840W        W27831  29.985  10.170  21.203  0.3038 -0.2971  0.2500
84841W        W27832  14.717   2.968  18.595  0.6969  0.3181 -0.0485
84842W        W27833  24.500  16.636   5.524 -0.0968  0.1075  0.1500
84843W        W27834  29.716  25.055  27.521  0.3787  0.2439 -0.0259
84844W        W27835  16.533  27.190  14.822  0.0531  0.0064 -0.1896
84845W        W27836  18.464  31.345   1.504 -0.3749 -0.0667  0.1734
84846W        W27837  24.634   6.311  19.263 -0.1993  0.1581  0.2072
84847W        W27838  20.827  31.498  24.298  0.0576 -0.1659 -0.1510
84848W        W27839  30.306   0.060  17.851 -0.0644  0.2671 -0.0979
84849W        W27840  12.259  14.122   2.753 -0.0506  0.0757  0.1388
84850W        W27841  19.469  31.388  15.460 -0.1508  0.1816 -0.2469
84851W        W27842  29.379  22.015  15.567 -0.1402 -0.0329  0.0712
84852W        W27843  25.690  10.397  20.785 -0.0907 -0.0477  0.1717
84853W        W27844   1.149  12.962   4.721  0.2415  0.1635 -0.0347
84854W        W27845  27.904  30.262  19.393  0.3456 -0.0499 -0.0739
84855W        W27846   0.183  10.606  17.625 -0.0925  0.0085  0.2345
84856W        W27847  17.089  34.172  20.386  0.2582 -0.1509 -0.0941
84857W        W27848  32.067   2.595  13.360 -0.2589 -0.2668 -0.2547
84858W        W27849  18.120   3.963  25.709 -0.1715  0.1742  0.0943
84859W        W27850   7.098  26.581  23.558  0.0157  0.2339  0.1087
84860W        W27851  20.557   3.541  23.850 -0.0795 -0.2469  0.3110
84861W        W27852  17.468   8.015  25.056 -0.1500  0.0154 -0.0382
84862W        W27853  25.113   1.874  16.554 -0.0724  0.4363  0.0476
84863W        W27854  28.684   9.375  26.994  0.1577 -0.1568 -0.1617
84864W        W27855  15.605   4.186  22.137 -0.1189 -0.1902 -0.0203
84865W        W27856  21.663   6.053  20.776 -0.1747 -0.3140 -0.0195
84866W        W27857  24.378   8.212  20.288  0.0230 -0.0863 -0.3913
84867W        W27858  21.501  23.393  14.209  0.0393 -0.2041  0.0974
84868W        W27859  21.851   0.719  17.537 -0.2787 -0.1386  0.0962
84869W        W27860  33.624  18.963  19.519  0.0163  0.1604  0.0607
84870W        W27861  24.026   4.182  14.600  0.0878 -0.0190 -0.1239
84871W        W27862  27.940  20.124  14.870  0.2551 -0.2232  0.0267
84872W        W27863  21.181   8.587   2.235 -0.1256  0.0137  0.0214
84873W        W27864  14.104  29.693  22.425 -0.1607  0.0266 -0.3092
84874W        W27865  12.625  28.767  23.369 -0.1240  0.3736  0.1889
84875W        W27866  16.556   6.306  25.388 -0.1642 -0.1759  0.1575
84876W        W27867  28.547  26.307  17.273  0.0489 -0.1618 -0.1899
84877W        W27868  18.704  10.512  20.055  0.0950  0.2168  0.0685
84878W        W27869  31.169  14.447   9.529  0.2473  0.0837  0.3099
84879W        W27870  21.965  11.741   1.381  0.2555 -0.0109  0.2464
84880W        W27871  16.854  32.210  24.312  0.0517 -0.0070 -0.0981
84881W        W27872  30.788  15.444  23.503 -0.0335 -0.2426  0.2475
84882W        W27873  30.896  33.251  20.140 -0.1044 -0.1489  0.2075
84883W        W27874  16.250   2.106  16.388  0.1994  0.1317 -0.1233
84884W        W27875  12.137   4.484  16.127 -0.1576  0.0061  0.1022
84885W        W27876   6.774   7.110  26.720  0.2089  0.1279  0.1401
84886W        W27877  33.711  30.319  26.044 -0.2127 -0.0540 -0.0807
84887W        W27878  28.491  15.667  18.594 -0.1702  0.0397 -0.1370
84888W        W27879  15.462  13.880  21.455  0.0762 -0.0252  0.0557
84889W        W27880  21.123  12.491  13.293  0.1513  0.1992 -0.1131
84890W        W27881  22.859  11.665  16.292 -0.1710  0.0140  0.0912
84891W        W27882  29.523  32.856  28.284  0.1432 -0.2793  0.0203
84892W        W27883   8.128  13.629  18.377 -0.0240  0.0688  0.1398
84893W        W27884  12.951   4.692  27.984 -0.0936 -0.3270 -0.0651
84894W        W27885  31.080   4.921   0.805 -0.0817 -0.0308 -0.0804
84895W        W27886  21.360   3.946   6.538  0.1569 -0.0592 -0.2571
84896W        W27887  28.951   0.413  23.684  0.1296 -0.3800  0.0829
84897W        W27888  31.654  13.492  25.816 -0.3626  0.1722 -0.1220
84898W        W27889  15.324   4.516   7.884 -0.0323 -0.0055  0.1148
84899W        W27890   8.259  15.914  22.842  0.0749  0.2232  0.1450
84900W        W27891  15.456   5.671   4.797  0.3152 -0.1266 -0.0332
84901W        W27892  11.556  29.330  16.431 -0.0481  0.0449 -0.0847
84902W        W27893  22.389  30.899   5.641  0.0962 -0.0742 -0.1970
84903W        W27894  29.045   1.466  23.070 -0.4384  0.1566 -0.0397
84904W        W27895  24.898  26.405   6.819 -0.1474 -0.0392  0.1717
84905W        W27896  20.704   6.447  23.446 -0.2153  0.0808  0.1166
84906W        W27897  26.605   0.425   0.506  0.0679 -0.0965  0.0910
84907W        W27898  18.388  31.549  28.837  0.1237 -0.1112 -0.1611
84908W        W27899  16.975   1.472  22.138 -0.3034  0.0496 -0.2541
84909W        W27900  29.690   6.322  19.727  0.0623 -0.3778 -0.0534
84910W        W27901  13.164  10.383  17.495 -0.1721 -0.3806 -0.0336
84911W        W27902  14.247  30.431   0.914 -0.0608  0.1018  0.1247
84912W        W27903  29.126  30.738  13.711  0.0726 -0.2231 -0.1153
84913W        W27904  33.794  12.304  16.856  0.1184  0.0391 -0.1465
84914W        W27905  21.633  24.835  25.370  0.2249  0.0452  0.4692
84915W        W27906  16.673   0.218  27.163  0.0116 -0.3840 -0.1114
84916W        W27907  11.146  34.016  25.729  0.0558 -0.0892  0.1397
84917W        W27908  27.273  10.491  14.977  0.0357 -0.0065 -0.1729
84918W        W27909  23.277  13.844  17.534 -0.0908 -0.0731  0.1169
84919W        W27910  32.144  18.838   2.314 -0.2370 -0.1400 -0.2017
84920W        W27911   6.521   3.956  19.942 -0.1248  0.0411  0.1757
84921W        W27912  11.071   8.343  16.304 -0.1891  0.0282 -0.1432
84922W        W27913  17.098   8.171   6.924 -0.1457 -0.2008  0.4355
84923W        W27914   8.846  31.898   0.661  0.1326 -0.0417 -0.0674
84924W        W27915  19.184  34.020   1.345  0.1038 -0.1766  0.1230
84925W        W27916  25.909  16.452  16.437 -0.3061  0.0716  0.1433
84926W        W27917  28.602   1.688  19.036  0.0828  0.0530  0.2239
84927W        W27918  18.935  33.473  25.592  0.0642 -0.0959 -0.2221
84928W        W27919  18.389   8.410  14.920 -0.1031 -0.0697  0.1435
84929W        W27920   3.689  10.335   6.933 -0.0195  0.1371  0.0450
84930W        W27921  33.747   0.648  27.749  0.1987 -0.2157  0.1850
84931W        W27922  31.970  11.177  17.685 -0.1372 -0.0628 -0.0258
84932W        W27923  23.045  12.025  20.110  0.0750  0.2483  0.0295
84933W        W27924  20.201  13.989  23.231  0.0685  0.2762 -0.0359
84934W        W27925  21.282   9.252   7.077  0.2376 -0.0578 -0.2346
84935W        W27926  18.023  29.354   4.717 -0.1626 -0.2648  0.1143
84936W        W27927  22.064  23.955  16.464  0.0329 -0.2629  0.1830
84937W        W27928  29.845  15.624  19.271 -0.1554 -0.0229 -0.1475
84938W        W27929  20.489   9.039  19.935 -0.1831  0.0283  0.0537
84939W        W27930  24.175  34.087  14.015  0.0154 -0.1197  0.0039
84940W        W27931  22.456   0.294   7.755  0.0113 -0.1756  0.2170
84941W        W27932  26.747  14.080  17.224  0.1185 -0.0181  0.0891
84942W        W27933  23.152   2.966  21.364  0.2116 -0.0190  0.1979
84943W        W27934  20.625  23.465  21.285  0.2443 -0.1140  0.0780
84944W        W27935   8.408   5.975  19.536  0.1204  0.1065  0.0596
84945W        W27936  18.603  34.587  20.860  0.1863 -0.1084 -0.1264
84946W        W27937  31.562  32.533  20.859 -0.0091 -0.1739  0.2408
84947W        W27938  21.067  10.503  27.927 -0.1432 -0.1713  0.0075
84948W        W27939  23.729   6.156   0.626 -0.0166  0.2575  0.0880
84949W        W27940  23.835   4.086  18.937 -0.1867  0.0634 -0.1016
84950W        W27941  11.675   9.041  18.668  0.1487 -0.0990  0.1591
84951W        W27942  17.599  16.271  14.297 -0.1966  0.0874 -0.2131
84952W        W27943  11.310   6.799  21.341 -0.1187  0.1788 -0.2671
84953W        W27944   3.773   1.319  16.877  0.2238  0.1573 -0.1145
84954W        W27945  28.000  32.422  21.713  0.0046  0.4525 -0.2980
84955W        W27946  24.061   9.074  23.476 -0.5007  0.0120 -0.0277
84956W        W27947  27.765  26.471   2.476 -0.1649 -0.2828  0.0892
84957W        W27948  10.548   5.732   1.703  0.1557 -0.2960  0.1015
84958W        W27949  15.479  31.291  16.213  0.2293  0.0587  0.0042
84959W        W27950  15.823  32.182  24.533  0.1630 -0.0598 -0.4061
84960W        W27951  19.173   8.085  16.202  0.1540  0.1302  0.2158
84961W        W27952  21.244  12.615  23.631 -0.2130 -0.0618  0.3317
84962W        W27953  34.668   4.490   6.506 -0.2080  0.1216  0.3406
84963W        W27954  25.774  13.086   2.084  0.1252  0.0519  0.1342
84964W        W27955  12.515   8.305  15.669  0.0488  0.2566  0.3410
84965W        W27956  19.056  12.110  25.398 -0.0044 -0.0541  0.2293
84966W        W27957   1.555   4.162  16.219  0.1725  0.1144  0.2253
84967W        W27958  27.939  26.160  15.203 -0.2661 -0.0365  0.2806
84968W        W27959  34.623  30.525   1.392 -0.1040  0.2194  0.1130
84969W        W27960  18.020  30.842   0.797 -0.0469  0.0156 -0.0056
84970W        W27961  17.685  30.983   3.926 -0.2265  0.1312 -0.2573
84971W        W27962  16.484   0.777  18.424 -0.0577  0.1980  0.0872
84972W        W27963  11.219  29.662  27.715 -0.3374  0.0137  0.0362
84973W        W27964  18.176  33.832  20.661 -0.1132 -0.1341 -0.1743
84974W        W27965   6.091  33.444  23.856 -0.0607 -0.3106 -0.3885
84975W        W27966  21.154  32.107  26.281 -0.3811  0.0960  0.2039
84976W        W27967  17.604   5.688  14.850 -0.0295  0.2394  0.0725
84977W        W27968  18.771   7.452  28.043 -0.0104  0.0765 -0.1818
84978W        W27969  11.700  23.801  18.824 -0.0174 -0.0987  0.1208
84979W        W27970  22.780  31.385  18.652  0.1409 -0.2960  0.4177
84980W        W27971   5.906  10.252  15.121 -0.0848 -0.2593 -0.0345
84981W        W27972  32.069   4.860  20.229 -0.2380  0.1493 -0.0349
84982W        W27973  25.289   4.886   2.791 -0.2252  0.0546  0.1726
84983W        W27974  11.307   7.653  23.852  0.0702 -0.1095 -0.1116
84984W        W27975  29.779   8.107  13.519  0.3451  0.0659 -0.1114
84985W        W27976  15.061   5.507  15.106 -0.0641  0.0903 -0.1946
84986W        W27977  19.490   7.956   3.437  0.3306  0.0030  0.1479
84987W        W27978  29.901   6.792  14.217  0.5954  0.0447 -0.0942
84988W        W27979  14.819  20.384  13.923 -0.3361  0.1645  0.3550
84989W        W27980  11.440   2.815   0.447 -0.0447  0.0376 -0.2233
84990W        W27981  19.156   0.112  16.316  0.0510 -0.1032  0.0388
84991W        W27982  24.134  30.812  14.863 -0.0796  0.0183  0.1943
84992W        W27983  11.972  18.180  15.535  0.0617 -0.0836 -0.0907
84993W        W27984  12.548  15.207   2.371 -0.0768  0.1181  0.3767
84994W        W27985  10.714   3.271   2.001  0.2279 -0.2240  0.2479
84995W        W27986  16.885  23.244  14.545 -0.3969 -0.2218 -0.4131
84996W        W27987  15.804   5.717  16.804 -0.2847  0.0932  0.0857
84997W        W27988  18.649   4.916   0.102  0.3292  0.0821  0.0842
84998W        W27989  21.807   8.244  22.378  0.3288  0.0400 -0.1057
84999W        W27990  31.079  32.576  25.335  0.0805 -0.0218  0.1902
85000W        W27991   4.769   0.704  28.339 -0.2762 -0.0385  0.1070
85001W        W27992  20.866  17.798  16.702 -0.1521  0.1172 -0.2631
85002W        W27993  29.641  32.345  13.675  0.0549  0.0324  0.0116
85003W        W27994  11.947   6.274  16.436 -0.1376 -0.0926 -0.1796
85004W        W27995  25.619  33.599  25.310  0.0650 -0.1373 -0.0133
85005W        W27996   0.900  16.958  24.773 -0.0325 -0.1065 -0.1183
85006W        W27997  29.940   1.668  23.845 -0.0292  0.1989  0.3489
85007W        W27998  33.782   9.406  24.615 -0.0179  0.1928  0.0157
85008W        W27999  13.205   1.273  24.513 -0.0217  0.2390  0.2545
85009W        W28000  31.450   6.093  20.070  0.1079  0.1489  0.1853
85010W        W28001  31.254  34.482  28.658  0.0552 -0.0282 -0.1262
85011W        W28002  21.096  14.113  16.500 -0.1152 -0.0835  0.1448
85012W        W28003  19.745   6.687  25.984  0.0239 -0.0931 -0.0301
85013W        W28004  15.779  32.454  26.594 -0.0126 -0.2356  0.0324
85014W        W28005  15.746  32.449  23.709  0.2376  0.2999  0.2416
85015W        W28006  19.269  34.344  16.496 -0.0805  0.0147 -0.3842
85016W        W28007  18.361  23.535  13.395  0.3161 -0.0921  0.0656
85017W        W28008  11.826  24.508  19.454 -0.1613  0.3515  0.0245
85018W        W28009  29.694   3.445  28.419  0.1216  0.2037  0.1265
85019W        W28010  16.077   2.850  18.727 -0.0601 -0.1883  0.2399
85020W        W28011  24.124   5.300  12.984  0.0358 -0.2343  0.1789
85021W        W28012   2.517   1.632  25.807  0.1089 -0.2693 -0.0921
85022W        W28013  23.268  31.570  20.577  0.1474 -0.0723 -0.1235
85023W        W28014  13.835   1.729  22.470  0.0017 -0.1013  0.0869
85024W        W28015  13.308  18.227  14.824  0.1066  0.3619 -0.1173
85025W        W28016  29.413   2.851  23.721 -0.0834 -0.3919 -0.2651
85026W        W28017  24.432   0.008  15.705  0.0309  0.0348  0.0256
85027W        W28018  19.151   6.506  14.251 -0.2405  0.1640 -0.2478
85028W        W28019   7.214  18.398  15.512 -0.1758 -0.3553  0.1852
85029W        W28020  15.129  15.679   0.831  0.0009 -0.1021 -0.1384
85030W        W28021  14.924   9.892  21.434 -0.0316  0.0338  0.1738
85031W        W28022  27.280   0.570  14.474  0.3354 -0.0460 -0.0464
85032W        W28023  21.583   7.282  19.063 -0.0715 -0.1021  0.2059
85033W        W28024   0.430   3.929  19.457 -0.0392  0.0089 -0.2342
85034W        W28025  19.460  10.163  27.519 -0.1502 -0.2297 -0.0841
85035W        W28026   4.949  10.632   0.156  0.1432 -0.1882  0.0146
85036W        W28027  20.589  25.911  15.112  0.0051 -0.0533 -0.2039
85037W        W28028  28.758  33.078  13.648  0.2861  0.4487 -0.3114
85038W        W28029  23.442  12.653  21.035  0.2715  0.0933 -0.0265
85039W        W28030   7.180  19.840  16.619  0.1836  0.0757  0.0318
85040W        W28031   1.740   9.324  19.609  0.1425 -0.1502  0.2567
85041W        W28032  18.048  29.087  20.862  0.3195  0.0941 -0.2979
85042W        W28033  16.586   8.890  19.696 -0.1375  0.3342  0.1147
85043W        W28034  30.148   2.282  17.230 -0.0236  0.2966 -0.0609
85044W        W28035  25.870  11.148  21.781  0.1438 -0.1106 -0.2746
85045W        W28036  18.508  13.055   7.947 -0.4273  0.3013 -0.4080
85046W        W28037  13.918  10.969   9.608 -0.2729 -0.1978  0.3765
85047W        W28038  14.517   4.233  20.992  0.1237 -0.2189  0.1130
85048W        W28039   5.063   5.091  27.276  0.0132 -0.1655 -0.0660
85049W        W28040  17.356   8.424  23.831  0.2534  0.0001  0.0718
85050W        W28041   6.590  33.226   2.807  0.0132 -0.0627 -0.0770
85051W        W28042  15.479  33.460  16.271  0.0527  0.0957  0.0268
85052W        W28043  18.308   2.729  17.523  0.1032  0.1934 -0.2471
85053W        W28044  26.904  28.179  16.448  0.0528  0.0045  0.0362
85054W        W28045  18.498  13.766   6.963  0.1137  0.0188 -0.1218
85055W        W28046  28.948   2.268   3.852 -0.2108 -0.2967 -0.0041
85056W        W28047   6.755  31.354  21.846 -0.0668  0.0071 -0.2802
85057W        W28048  21.863  27.361  22.933  0.1783 -0.1080 -0.3379
85058W        W28049  21.008  15.065  16.621  0.0992 -0.1488  0.2799
85059W        W28050   1.069   4.672   9.333 -0.1117  0.3415  0.1160
85060W        W28051  23.890   6.310  15.770 -0.1463 -0.2591  0.1139
85061W        W28052  19.283   9.825  24.261 -0.0735 -0.0442  0.0827
85062W        W28053  15.116  11.923  16.873 -0.3678  0.1653 -0.0883
85063W        W28054  22.845   5.504   0.751  0.0100 -0.2376  0.2328
85064W        W28055  28.744  24.366  29.030  0.1081  0.2957  0.0226
85065W        W28056  14.337  11.318   8.872 -0.4295  0.1636 -0.1178
85066W        W28057  28.269   2.835  16.558  0.0907  0.0129  0.0021
85067W        W28058  22.414  31.927  25.530  0.2716  0.4841  0.1116
85068W        W28059   2.793  10.071  26.718  0.1538  0.4374 -0.4103
85069W        W28060  21.489  22.308  26.403  0.1261 -0.3239 -0.2185
85070W        W28061  12.230  25.814  15.917 -0.1058 -0.0458 -0.1499
85071W        W28062  31.094  26.905   0.853  0.0960 -0.1551 -0.1244
85072W        W28063  17.864   2.640  14.855 -0.1185 -0.2190  0.1460
85073W        W28064  26.307  11.033  17.577 -0.1316 -0.1039  0.1383
85074W        W28065  11.197  29.906  18.400  0.0782 -0.1793 -0.0966
85075W        W28066  32.820  31.377  16.598 -0.0040  0.0039  0.2295
85076W        W28067  25.371  11.265  20.311 -0.1501 -0.2518 -0.0120
85077W        W28068  18.457   1.640   0.732  0.1893  0.1760 -0.2293
85078W        W28069  11.327   0.658   1.242 -0.3160  0.2856  0.0863
85079W        W28070  14.302  30.297  15.137  0.1616 -0.1983 -0.1550
85080W        W28071  16.703  10.422  20.328 -0.1282 -0.0877 -0.4645
85081W        W28072  16.483   6.705   3.259  0.1080 -0.0736  0.0986
85082W        W28073  25.528   7.805  25.898 -0.0617  0.2109  0.0095
85083W        W28074  29.362  31.983   2.204  0.3850  0.0997  0.0373
85084W        W28075  18.892  25.444   4.820  0.1379  0.0626 -0.0440
85085W        W28076  18.329   5.230  15.121  0.2919  0.2864 -0.0326
85086W        W28077  30.348   1.943   2.893  0.0368 -0.2723  0.0627
85087W        W28078  14.852   5.848  15.435 -0.3147 -0.0801 -0.1665
85088W        W28079  20.789  17.111  28.505 -0.2007 -0.0199 -0.0086
85089W        W28080  29.545  30.408  28.769  0.0199  0.0582  0.2912
85090W        W28081  34.752  26.561  21.521  0.2355  0.1651 -0.0202
85091W        W28082  18.962  28.456  18.983  0.3147 -0.1271  0.2213
85092W        W28083  20.823   1.781  27.142 -0.0747  0.1846  0.1431
85093W        W28084  17.909  27.371  16.181  0.1092 -0.0962  0.0205
85094W        W28085   4.145  30.874  17.620 -0.2843 -0.1524  0.0252
85095W        W28086  24.025  14.741   4.521  0.0770 -0.1142  0.1215
85096W        W28087  15.829   4.945  14.939 -0.0601 -0.1957 -0.0950
85097W        W28088  31.369  20.843  28.826 -0.1818  0.1414  0.1773
85098W        W28089  24.415   1.499   6.071  0.4592  0.2204  0.1179
85099W        W28090   4.708  16.316  22.863 -0.0320 -0.0200 -0.0971
85100W        W28091  22.353  13.291  20.520 -0.3409 -0.0234  0.3002
85101W        W28092   4.149   2.610  20.955  0.1709  0.0474  0.3290
85102W        W28093  22.139  20.270  27.676 -0.0700  0.2259  0.0838
85103W        W28094  26.842  19.024  27.031 -0.1344 -0.0101 -0.0576
85104W        W28095  25.955  14.025  26.522  0.0356 -0.0172  0.2145
85105W        W28096  20.017  29.567  14.439 -0.0483  0.1101  0.2791
85106W        W28097  22.013   5.699  20.682 -0.0831  0.0334  0.0457
85107W        W28098  15.787  34.585  19.111 -0.0594 -0.0104 -0.0523
85108W        W28099  25.632   2.040   3.738 -0.0607  0.1452  0.2185
85109W        W28100  24.940  16.600   7.257 -0.0825  0.2912  0.0452
85110W        W28101  21.736   4.263  20.076  0.1881  0.2538 -0.3624
85111W        W28102   0.223  17.419  28.245 -0.2567 -0.1607 -0.0480
85112W        W28103  25.168   8.665  14.911  0.0172 -0.1952 -0.2221
85113W        W28104  14.936   1.649  21.128 -0.2379 -0.0826 -0.2422
85114W        W28105  25.017   1.967  28.966 -0.2202 -0.1759  0.0109
85115W        W28106   2.734  16.760  26.488  0.2930  0.2735  0.0517
85116W        W28107  18.506   6.622  15.047  0.0103  0.0322 -0.2620
85117W        W28108  27.530   9.664  15.147 -0.0367 -0.3230  0.1484
85118W        W28109   8.198   4.026  18.744 -0.1152  0.1121  0.3569
85119W        W28110  23.125  11.639  19.867  0.2562  0.3761  0.1360
85120W        W28111  12.250   1.487  20.283  0.1876  0.0793 -0.0854
85121W        W28112  21.510   4.273  13.869 -0.2883 -0.0580 -0.3457
85122W        W28113  26.845   1.767  13.646  0.2205  0.2213  0.1845
85123W        W28114  22.634  12.600  19.421 -0.1403 -0.0234  0.2667
85124W        W28115  20.249   3.253  19.201  0.2218  0.2578 -0.2526
85125W        W28116  14.460  31.174  14.337 -0.1350 -0.0674 -0.2803
85126W        W28117  16.358   1.597  15.317 -0.0204  0.1091  0.3567
85127W        W28118  21.673  31.774   7.301  0.0424 -0.1686  0.4119
85128W        W28119  33.086  26.145   1.585 -0.1471 -0.0800  0.1306
85129W        W28120  22.591  23.120  19.083 -0.0435 -0.0804  0.1302
85130W        W28121   7.574  17.159   5.101 -0.1220  0.1448  0.0022
85131W        W28122  10.693   2.599  23.564 -0.3941 -0.2209 -0.2343
85132W        W28123  24.737   9.282  21.924 -0.3239  0.3882  0.1186
85133W        W28124   1.801  18.918  15.813  0.0430 -0.2452  0.3621
85134W        W28125  21.834  11.337  19.805  0.1534  0.2452  0.1201
85135W        W28126  29.531  13.697  25.903 -0.1237 -0.1815 -0.0757
85136W        W28127  20.251  27.343  17.296  0.0662 -0.2171 -0.3736
85137W        W28128  20.721   4.986  21.760  0.2351  0.5500  0.0453
85138W        W28129  10.098  21.651  29.018  0.3223  0.1511 -0.0308
85139W        W28130  22.120  34.578   1.899 -0.2067 -0.1467  0.2447
85140W        W28131  19.563   5.806  14.938  0.3849  0.4066  0.0510
85141W        W28132  18.855   8.269  24.600  0.1080  0.0172 -0.0293
85142W        W28133  22.378  33.237  28.400  0.2409  0.3778  0.3209
85143W        W28134  14.716  32.564  15.278 -0.2964  0.0001  0.0814
85144W        W28135  16.210   5.794  24.139 -0.2134 -0.3770  0.0396
85145W        W28136  29.621  17.650  23.371  0.1018  0.2136  0.2094
85146W        W28137  20.852   4.151  20.021  0.3819  0.1608 -0.2245
85147W        W28138  24.607   2.408   6.309  0.0423 -0.2431 -0.0111
85148W        W28139  14.415  28.312  25.309 -0.1977  0.0566  0.2284
85149W        W28140  19.561   7.150  21.639 -0.2517 -0.1520  0.2804
85150W        W28141  14.528  10.237  23.874 -0.0659  0.1759  0.1545
85151W        W28142  23.426  15.756  16.280  0.0702 -0.1068  0.1759
85152W        W28143  12.143  31.313  22.554  0.1147 -0.1247 -0.2464
85153W        W28144   6.228  25.027   5.150 -0.1667  0.1642  0.1056
85154W        W28145  18.379  33.547  25.348  0.3979  0.0272 -0.2113
85155W        W28146  25.442   6.240   3.692 -0.1612  0.0751 -0.4402
85156W        W28147  23.607  12.043  14.980  0.2174 -0.3571  0.0747
85157W        W28148  24.705  32.695  22.035 -0.0459 -0.1423 -0.2793
85158W        W28149  29.841   9.040  28.618 -0.0201  0.1701 -0.0724
85159W        W28150  19.718   6.558  17.173 -0.2397 -0.1042 -0.1863
85160W        W28151  28.004   7.008  15.534  0.2168  0.2871  0.0452
85161W        W28152  21.114   4.353  23.633  0.0422  0.2744 -0.2527
85162W        W28153  21.689  18.229  16.652  0.1465 -0.2390 -0.0573
85163W        W28154  11.499   9.450  22.257  0.1080  0.0529  0.0183
85164W        W28155  10.828   3.293  15.371 -0.2322  0.5444  0.0939
85165W        W28156   6.326  12.223   0.614 -0.1937  0.0097 -0.2580
85166W        W28157  24.444  29.611  22.861  0.1377 -0.2164 -0.0756
85167W        W28158  20.118   3.491  22.553  0.0334 -0.2130 -0.1441
85168W        W28159  34.235  10.175   5.453 -0.0845 -0.1440  0.2279
85169W        W28160  18.337  25.196  20.769  0.2630 -0.1406 -0.0284
85170W        W28161  25.400   3.420  25.801 -0.0564  0.0673 -0.3195
85171W        W28162  17.400   9.605  23.006  0.0723  0.0975 -0.0397
85172W        W28163  27.758   7.026  14.215 -0.2293  0.1316 -0.0661
85173W        W28164  30.561  33.196  17.318 -0.0574  0.1945  0.0576
85174W        W28165  22.982   3.607  16.330 -0.2776  0.1036 -0.0180
85175W        W28166  23.864  33.793  25.480  0.1532 -0.0212  0.2024
85176W        W28167  20.915  21.639  17.249  0.0055  0.2925 -0.1951
85177W        W28168  17.993  33.431   3.294  0.3135 -0.3468  0.0212
85178W        W28169  17.821   4.046  28.799  0.0304  0.0994 -0.1038
85179W        W28170  21.579   7.685  17.384  0.2869  0.0343 -0.1450
85180W        W28171  29.026  12.813   1.127  0.0780  0.1985 -0.1025
85181W        W28172  17.877  33.241  15.913  0.1935 -0.0622 -0.0799
85182W        W28173  32.594  11.603  16.018  0.0255  0.3520 -0.1222
85183W        W28174   6.197   7.473  15.026 -0.0089  0.0097 -0.1547
85184W        W28175  11.179  15.698  21.113  0.0357 -0.2143  0.2222
85185W        W28176  28.936  30.355  17.081  0.2043 -0.0879 -0.0251
85186W        W28177  14.769  10.404  20.519  0.1890  0.2661 -0.4311
85187W        W28178  27.639  11.801   8.953  0.1464  0.0677 -0.3776
85188W        W28179  21.514  23.254   8.551 -0.3207 -0.2432  0.0646
85189W        W28180  24.018  17.426  14.816 -0.2578  0.3463  0.0283
85190W        W28181  25.181   0.900   4.624 -0.3866  0.0763  0.0367
85191W        W28182  20.378  11.957  28.515 -0.0349 -0.5524 -0.2099
85192W        W28183   0.323   0.270  22.787 -0.0147 -0.4822  0.2224
85193W        W28184   7.872   9.908  22.405  0.1266  0.2137 -0.1689
85194W        W28185  26.135   1.960  14.869 -0.0091  0.1913  0.0226
85195W        W28186   9.105  33.487   1.083 -0.1207 -0.1062 -0.0587
85196W        W28187  31.170  10.483  28.844 -0.0533  0.2393  0.0187
85197W        W28188  31.157  20.177  16.775 -0.1619 -0.0105 -0.0082
85198W        W28189   7.329  22.189  19.354  0.1100 -0.0026 -0.0697
85199W        W28190  17.329   3.506  18.497  0.0795  0.1530  0.3622
85200W        W28191  22.296   5.183  21.470 -0.1020 -0.2179  0.0551
85201W        W28192   6.184  16.096  25.938 -0.0491 -0.0012  0.1601
85202W        W28193  19.710   4.844  14.783 -0.0342  0.4356 -0.3152
85203W        W28194  19.143  12.371  14.698  0.0269  0.1872  0.1292
85204W        W28195  22.089  26.672  22.132 -0.0432 -0.1521  0.0180
85205W        W28196   8.904  24.132  16.960  0.0012 -0.1705 -0.1580
85206W        W28197  13.113  28.329  28.708  0.1079  0.1083  0.0104
85207W        W28198   4.324  30.823  14.318 -0.1122 -0.2090 -0.0239
85208W        W28199  18.707   4.873  23.436  0.0522 -0.3115  0.0058
85209W        W28200  19.999   2.684  20.475  0.1746  0.0455 -0.0701
85210W        W28201  30.259  10.538   5.396 -0.1049 -0.0011  0.0865
85211W        W28202   7.960  25.192  23.854  0.0176 -0.1549 -0.3122
85212W        W28203  21.200   0.696  15.764  0.3765  0.0607 -0.3924
85213W        W28204  21.481   5.077  23.169 -0.0698  0.0686  0.1903
85214W        W28205  31.241  33.567  26.179  0.0138  0.0641  0.0544
85215W        W28206  19.413   4.117  25.812 -0.0254  0.1638 -0.3220
85216W        W28207  14.807   7.618   4.699  0.1293  0.0732  0.0997
85217W        W28208   5.678  12.304   5.120  0.0018 -0.0713 -0.1083
85218W        W28209   4.241   1.213  19.798  0.0044  0.2312 -0.0611
85219W        W28210  17.010   5.884   6.673  0.0350  0.2889 -0.0173
85220W        W28211  22.923   3.590  14.585  0.0547  0.0676 -0.2432
85221W        W28212  15.061  10.920  26.803 -0.0216 -0.2419 -0.0451
85222W        W28213  29.180   5.617  14.347 -0.1737 -0.0043  0.0367
85223W        W28214  27.983  16.834  19.676 -0.0661 -0.3575 -0.0380
85224W        W28215   9.540   7.332  27.007 -0.2753 -0.0316 -0.1175
85225W        W28216   5.376  34.658  25.979 -0.0903  0.0303 -0.2081
85226W        W28217  22.394   1.701  15.918 -0.0994  0.0439  0.1514
85227W        W28218  17.106   0.370  13.971 -0.0745 -0.3304 -0.5669
85228W        W28219  22.758  14.897  22.558  0.3418  0.0011 -0.0924
85229W        W28220  18.332  19.363  27.559  0.3074  0.2996 -0.1072
85230W        W28221  20.848   1.930  27.831  0.0485 -0.0701 -0.1173
85231W        W28222   6.628  30.759  15.274  0.3676 -0.0175 -0.2046
85232W        W28223  27.008  32.357  18.340 -0.0148  0.1696 -0.3274
85233W        W28224  26.906   6.424  18.023 -0.1490 -0.2518 -0.1347
85234W        W28225   7.508   8.246  16.737  0.1505  0.3080 -0.1153
85235W        W28226  23.153   0.081   9.262 -0.0323 -0.1881  0.1683
85236W        W28227  11.779   3.133  21.287  0.0126  0.0163 -0.0780
85237W        W28228  18.070   8.154  16.588  0.1630  0.2159  0.0857
85238W        W28229  24.299  33.362   3.712  0.1125 -0.0490  0.0719
85239W        W28230  27.311  17.037  20.392  0.0247  0.0409  0.0131
85240W        W28231  19.544   7.752  23.879  0.1025  0.1438 -0.4046
85241W        W28232   7.492  33.729  21.041 -0.0939  0.0042  0.0873
85242W        W28233  27.899   0.792  15.483  0.0846 -0.0020 -0.2667
85243W        W28234  20.420  31.790  24.436  0.2455 -0.4450  0.0052
85244W        W28235  25.079  13.555  19.530  0.0890  0.1314 -0.0208
85245W        W28236  18.032  12.111   3.338  0.3239  0.3533 -0.0980
85246W        W28237  19.693  28.532  25.794  0.0536  0.0076 -0.1166
85247W        W28238  19.226  19.234  13.673  0.1536 -0.0644 -0.1350
85248W        W28239  15.591  26.730  27.431  0.1200 -0.0452 -0.1722
85249W        W28240  34.697   7.431   8.277 -0.1828  0.0612  0.2752
85250W        W28241  33.731   2.680  19.912 -0.0974  0.3045  0.0260
85251W        W28242  21.265  27.879  14.679  0.2558  0.2497 -0.1989
85252W        W28243  20.527   8.174  27.853 -0.4140 -0.2386  0.1045
85253W        W28244  10.349   4.339  19.934  0.1741  0.0040 -0.1127
85254W        W28245  20.130   4.211  21.480 -0.0531  0.1035 -0.2731
85255W        W28246   7.552  12.956  16.597 -0.2998  0.0085 -0.2586
85256W        W28247  14.577  11.597  20.271 -0.1001  0.0432  0.2861
85257W        W28248  22.521  33.062  25.427  0.0147  0.1476 -0.3082
85258W        W28249   5.894  27.782   6.409  0.0010  0.2844  0.2989
85259W        W28250  17.731  23.328  25.797  0.2009 -0.0759 -0.0222
85260W        W28251  11.275  11.806   0.879 -0.0946  0.2827  0.0420
85261W        W28252  16.873   9.184  13.891  0.0871 -0.2309  0.0128
85262W        W28253  26.904  14.581  25.488 -0.3181  0.0481  0.0182
85263W        W28254  28.287  33.956   4.875  0.0524  0.1631  0.1507
85264W        W28255   7.926  34.445  17.490 -0.3259  0.2246 -0.4850
85265W        W28256  27.189  29.806  15.909  0.1099 -0.0213  0.4015
85266W        W28257  29.784   1.481  14.772 -0.1561 -0.1575  0.1593
85267W        W28258  27.227   3.335  15.944 -0.0363 -0.0500 -0.1808
85268W        W28259   8.231   9.176   8.429  0.0392 -0.0797  0.0300
85269W        W28260  32.893   1.575  22.301 -0.3236  0.0761  0.0646
85270W        W28261   4.297  29.975  21.571 -0.0252 -0.0324 -0.1578
85271W        W28262  27.150  11.384  20.345 -0.3168  0.0252 -0.1578
85272W        W28263  18.721  32.054  20.770 -0.0258  0.1297  0.1558
85273W        W28264  26.071  32.608  21.728  0.1741 -0.1202 -0.2136
85274W        W28265  28.762   2.623  14.733 -0.2678  0.0564  0.1367
85275W        W28266  13.079  10.227  24.640 -0.2563 -0.2524 -0.0091
85276W        W28267  12.113   2.247  23.352 -0.2751  0.1768  0.0239
85277W        W28268  32.905  14.264   1.588 -0.1791 -0.0547 -0.5045
85278W        W28269  26.993  12.440  27.077 -0.0609 -0.0079 -0.1733
85279W        W28270  16.976  14.528  26.212 -0.3468 -0.2328  0.1296
85280W        W28271  31.673   9.309  20.871  0.0980 -0.3119 -0.0493
85281W        W28272  31.151   2.062  24.148  0.2484 -0.0789  0.0927
85282W        W28273  19.091  18.665  29.051  0.0194 -0.1168 -0.2109
85283W        W28274  20.946  31.678  23.068  0.4556 -0.1207 -0.0745
85284W        W28275  14.358  34.146  24.007 -0.2874  0.0679 -0.2704
85285W        W28276  16.378  29.387  14.154 -0.1758 -0.2031 -0.1882
85286W        W28277   0.056   4.976  24.116  0.3967  0.2350  0.3858
85287W        W28278  10.562  34.621  20.313  0.1713 -0.0512  0.2649
85288W        W28279  24.328  20.852  15.386 -0.0547 -0.1481  0.1482
85289W        W28280  26.951  16.564   0.013 -0.2450  0.1363  0.0000
85290W        W28281  25.242  14.611  26.484  0.3115 -0.0316 -0.2230
85291W        W28282   6.660  25.799   5.916 -0.2391  0.1458 -0.1207
85292W        W28283  31.302  11.239  18.735  0.2837  0.1763 -0.0365
85293W        W28284  23.954   1.947  20.411 -0.1167  0.3940  0.1301
85294W        W28285  15.974   0.566  18.380 -0.0200  0.1433  0.1030
85295W        W28286  32.939  26.257  21.817  0.1210  0.0832  0.2149
85296W        W28287  27.049  26.820  26.939 -0.3013  0.5653 -0.2857
85297W        W28288  24.795  11.929   0.586  0.3374  0.2822 -0.1842
85298W        W28289  22.837   0.762  24.198  0.2004 -0.1605 -0.0569
85299W        W28290   0.980   8.752   8.105  0.3220  0.1643 -0.3699
85300W        W28291  25.686   4.934  29.145  0.2730  0.0420  0.2276
85301W        W28292  21.565  30.476  12.475 -0.0594 -0.1290  0.0015
85302W        W28293  27.411   4.736   3.310  0.3360  0.0087  0.4578
85303W        W28294  30.891  21.706  19.036 -0.1318 -0.1371  0.1226
85304W        W28295  30.372   4.648   7.995  0.0716 -0.0863 -0.3744
85305W        W28296   3.433   9.086  16.680  0.0244 -0.0779 -0.2173
85306W        W28297  29.031   9.620  18.345  0.2556  0.0739 -0.2120
85307W        W28298  16.722  33.935  19.416 -0.1457 -0.2622 -0.0952
85308W        W28299  14.820  28.305  26.518 -0.3073  0.0329  0.1488
85309W        W28300  16.480  15.320   3.338  0.1374 -0.0746 -0.1101
85310W        W28301  27.874   0.955  22.484 -0.0156 -0.0811  0.3304
85311W        W28302  17.789  33.799   1.327 -0.2389 -0.3736 -0.0845
85312W        W28303  21.472  22.475  20.192 -0.0303 -0.2606  0.2165
85313W        W28304  19.516  13.126  12.741 -0.0521  0.0342 -0.1294
85314W        W28305   5.706  13.663  18.411 -0.0600  0.2721  0.0894
85315W        W28306  28.384   6.672  25.233 -0.0754  0.1721  0.0064
85316W        W28307  23.335  17.510  27.559  0.0196  0.1336  0.1135
85317W        W28308  14.902   6.159  29.107 -0.2904 -0.1199 -0.2243
85318W        W28309   9.148   1.997  22.913  0.2805 -0.0621 -0.0959
85319W        W28310  23.851  21.840  25.667  0.0052  0.1567  0.3169
85320W        W28311  16.388  16.358  27.098  0.1440  0.1360  0.2841
85321W        W28312  21.949   3.255   2.575 -0.1169  0.0743 -0.0241
85322W        W28313  12.378   1.708  24.007 -0.2547 -0.3798  0.1389
85323W        W28314  15.603   0.977   7.033 -0.0587 -0.0372 -0.0616
85324W        W28315  25.422   8.837   6.312  0.2176 -0.0243 -0.2783
85325W        W28316  27.444   6.937   6.604 -0.0672 -0.0161 -0.0149
85326W        W28317  17.990  21.343  21.467 -0.1195  0.0630  0.1872
85327W        W28318  16.487   2.073  27.938  0.2259 -0.1005  0.2159
85328W        W28319  19.533   7.059  12.920  0.0432 -0.2553 -0.0345
85329W        W28320  28.549  25.156  24.906  0.1604  0.1747  0.4162
85330W        W28321  28.589  30.202  16.744 -0.1553  0.2523 -0.0915
85331W        W28322  20.634  19.802  17.199  0.1255 -0.0500  0.2032
85332W        W28323  20.543  24.811  20.921 -0.1085  0.1263 -0.1438
85333W        W28324   0.558   7.480  26.096  0.0966 -0.2184 -0.0186
85334W        W28325  26.408   1.643  25.318  0.0492  0.1565 -0.0811
85335W        W28326  29.463   2.455   2.926  0.0463 -0.0646 -0.0150
85336W        W28327   0.931   4.170  27.614 -0.1325 -0.0449 -0.3532
85337W        W28328  26.542   4.819  28.774  0.2751  0.3361 -0.2031
85338W        W28329  22.862   6.511  13.693  0.0132 -0.3197 -0.0680
85339W        W28330   1.827  10.093  17.970  0.1000 -0.1036  0.0852
85340W        W28331  25.062  30.902  28.683  0.1298 -0.1285 -0.2246
85341W        W28332  12.290  32.714  20.748 -0.1273  0.1695  0.1563
85342W        W28333  20.760   0.750  20.581  0.0490 -0.0032  0.2862
85343W        W28334  34.041  29.518   0.312 -0.1582  0.0428  0.1746
85344W        W28335  19.252   4.346   3.470  0.3064 -0.1302  0.0342
85345W        W28336  27.458   4.287  28.836 -0.0094  0.2030 -0.0757
85346W        W28337   5.804  15.129  28.813  0.2814 -0.4217 -0.0483
85347W        W28338   9.063  11.795   1.781 -0.0475 -0.1158 -0.1952
85348W        W28339  10.239  33.798   6.301 -0.2202  0.0370  0.3786
85349W        W28340  22.271  14.150  25.557  0.0679  0.1801  0.0306
85350W        W28341   8.879   7.071   5.157  0.1606 -0.1528  0.0171
85351W        W28342   1.513  28.271  26.543 -0.0927  0.0122 -0.1976
85352W        W28343  22.399   1.596   1.313  0.0637  0.0342  0.1769
85353W        W28344  21.951   4.873   3.189 -0.1461 -0.0386  0.1405
85354W        W28345  26.945  11.149  28.473 -0.1786 -0.0648 -0.1805
85355W        W28346   9.485   8.551   8.348 -0.1340  0.1556 -0.1086
85356W        W28347  29.850   6.742   2.797 -0.0188 -0.2419 -0.0171
85357W        W28348  18.083  14.474  22.763 -0.3182  0.2366  0.3030
85358W        W28349  24.366  17.488   3.699  0.0541  0.2905  0.0565
85359W        W28350  31.771  30.623  17.742  0.1435 -0.0567  0.1144
85360W        W28351  15.001   5.180  28.605 -0.1259 -0.3380 -0.0200
85361W        W28352  30.257  28.786  18.950  0.0148 -0.3019 -0.1158
85362W        W28353  18.225   9.388  17.014 -0.1360  0.0277 -0.2518
85363W        W28354  22.444  24.134  13.598 -0.0053 -0.1827  0.5275
85364W        W28355   3.865   0.179   0.100  0.2224 -0.3535  0.0582
85365W        W28356  19.484  22.634  20.097  0.5106 -0.1288 -0.1193
85366W        W28357   9.176  14.624  17.575 -0.3745  0.1431 -0.0239
85367W        W28358  21.058  22.103  21.206 -0.3349 -0.3521 -0.0693
85368W        W28359   7.824  15.207  25.072 -0.0573 -0.2064 -0.1093
85369W        W28360  34.064  25.224  17.719  0.1002  0.1615  0.0291
85370W        W28361   0.580   3.868   6.944 -0.3377  0.1074 -0.3751
85371W        W28362  15.012   2.660  16.230 -0.0266  0.1521  0.2329
85372W        W28363  13.714  10.644  29.024  0.1374 -0.2483 -0.2005
85373W        W28364   2.178  28.230  15.630 -0.3271 -0.1688  0.1143
85374W        W28365   7.360  13.916  17.208  0.2372 -0.0549  0.1878
85375W        W28366  16.878   0.006   6.930  0.0436 -0.1157 -0.1033
85376W        W28367  22.618  18.356  15.026  0.5304 -0.2825 -0.2592
85377W        W28368  14.546   2.835   2.189 -0.0302  0.0441  0.0764
85378W        W28369  22.893   7.953   2.955  0.1160  0.2848 -0.3532
85379W        W28370  20.023   9.888  17.091  0.0829  0.1331  0.1185
85380W        W28371  24.242  19.898  24.097 -0.2709  0.3456  0.1257
85381W        W28372  26.406  16.760   2.899  0.0224  0.1936  0.0419
85382W        W28373  27.139  17.190   7.067  0.2857  0.1070 -0.0138
85383W        W28374   3.365  20.264  19.182  0.1534 -0.1585  0.0042
85384W        W28375  26.636  28.930  27.041 -0.3596  0.0757  0.1685
85385W        W28376  24.914   2.414  16.512 -0.3231  0.1873  0.0117
85386W        W28377  24.758  11.951  17.408 -0.1288 -0.0552 -0.0471
85387W        W28378  20.549  14.105  21.735  0.0858 -0.1246  0.2420
85388W        W28379  18.799  14.614   8.962  0.0821 -0.4295  0.0820
85389W        W28380  30.595  27.491   2.178 -0.3888 -0.0270  0.2389
85390W        W28381  18.542   5.786   6.680 -0.2477 -0.0571 -0.1952
85391W        W28382  31.413   0.822  23.802  0.2419 -0.1223  0.0949
85392W        W28383  14.268  16.949  27.168 -0.2573  0.3515  0.3565
85393W        W28384   2.863  10.923  19.592 -0.0350 -0.1079  0.0684
85394W        W28385  30.818  16.488  22.063 -0.5273 -0.0233 -0.3502
85395W        W28386  31.649  10.815   6.248 -0.1861 -0.2129 -0.1969
85396W        W28387  32.114  16.008  24.726 -0.1654 -0.2686  0.0464
85397W        W28388  14.015  34.094   5.778  0.0881 -0.0030  0.1630
85398W        W28389  26.062  14.090  27.305 -0.0644 -0.1337 -0.4803
85399W        W28390  24.920  34.433  15.854  0.1261  0.2715 -0.0035
85400W        W28391  16.663   8.608   8.425 -0.1999  0.0462  0.1559
85401W        W28392  23.814  27.880  16.225 -0.0245  0.2996 -0.0054
85402W        W28393  21.416   3.878  28.659 -0.3178 -0.0466 -0.0240
85403W        W28394  27.827  27.610  20.852  0.3585 -0.1246 -0.0230
85404W        W28395  13.901  18.439   8.746  0.0667 -0.2187  0.0248
85405W        W28396  30.776   9.499  15.828 -0.3738  0.2808  0.0101
85406W        W28397  20.063   9.055  27.531 -0.0732  0.2013  0.2083
85407W        W28398  30.875  10.931  17.884  0.0871 -0.0418 -0.0941
85408W        W28399  20.240  12.403  22.278  0.1431 -0.1910  0.1564
85409W        W28400  11.895   3.326  27.887 -0.0024 -0.0707 -0.0939
85410W        W28401   7.966   6.488   3.695  0.2456 -0.1714 -0.0668
85411W        W28402   5.918  31.527  25.821  0.0302 -0.0045 -0.2190
85412W        W28403  28.306  29.625  23.957 -0.1973  0.2376  0.4305
85413W        W28404  10.511  25.224   9.736  0.1858 -0.3246  0.0509
85414W        W28405  24.686   1.116   0.712 -0.0896  0.1869  0.0441
85415W        W28406  14.020  14.749   1.806  0.1269  0.4659 -0.0777
85416W        W28407  23.808  19.258  19.530 -0.0867 -0.0986  0.3146
85417W        W28408  23.857  33.306  24.251  0.1862  0.1021 -0.1702
85418W        W28409  25.347  13.724   0.781  0.2244  0.0305  0.0863
85419W        W28410   1.201  10.048  26.571 -0.0086 -0.3242 -0.0717
85420W        W28411  16.534   9.996  19.417  0.0193 -0.3881 -0.2670
85421W        W28412  14.981  14.434  25.738 -0.3461  0.0382 -0.1738
85422W        W28413   2.501  26.351  18.257  0.0072 -0.1842 -0.1062
85423W        W28414  19.269  33.616   0.041 -0.0994 -0.1400  0.0383
85424W        W28415  19.711   6.447  22.478 -0.0315 -0.1063  0.1317
85425W        W28416  23.758   9.759  24.182  0.0508 -0.4539  0.0716
85426W        W28417   0.719   0.481  22.573  0.0272  0.0356  0.1813
85427W        W28418   0.700  30.035  26.618  0.0637 -0.0716 -0.0297
85428W        W28419  15.132  19.724  14.492 -0.0811 -0.3016  0.1325
85429W        W28420  26.316   7.596  28.793  0.2463 -0.2415  0.0599
85430W        W28421   0.369   3.246  17.933  0.1451  0.0080 -0.0863
85431W        W28422  17.487   0.985  16.790 -0.0102  0.0748 -0.1968
85432W        W28423  14.233   2.100  15.065 -0.3610  0.1237 -0.2469
85433W        W28424  25.200  13.543  27.684 -0.2268 -0.1013  0.0156
85434W        W28425  16.326   8.300   0.364  0.0312  0.0656  0.0179
85435W        W28426  28.826   1.305  14.764  0.0582  0.2390  0.1139
85436W        W28427   3.650  31.068  17.864  0.0895  0.1846 -0.0599
85437W        W28428  25.647  17.281   3.977  0.4306  0.2715 -0.1980
85438W        W28429   9.951   7.183   5.815 -0.1382 -0.0980  0.1493
85439W        W28430   8.805   2.827  18.089 -0.2414  0.0604 -0.1387
85440W        W28431  13.201  14.687  15.666 -0.2285 -0.3274  0.3072
85441W        W28432   2.748  17.146   8.065  0.1790 -0.1698 -0.2537
85442W        W28433  26.884  11.203  15.344 -0.1070  0.2255  0.0092
85443W        W28434   9.095  34.358  19.871  0.1119  0.0929 -0.2433
85444W        W28435  27.887   0.756  27.828 -0.2433  0.1371  0.0556
85445W        W28436   4.405  26.428  16.843  0.0373 -0.0635  0.0063
85446W        W28437  16.672  26.465   1.030 -0.1485 -0.2232  0.0556
85447W        W28438  20.199  22.229  25.481  0.4092  0.2057 -0.1577
85448W        W28439  26.053   4.472  16.449  0.4015  0.1854 -0.0587
85449W        W28440  31.684  28.610  23.045 -0.0739  0.1901 -0.0580
85450W        W28441  23.429   1.747  15.882  0.3313  0.2120 -0.0860
85451W        W28442  14.914  21.114  17.814 -0.3585 -0.1556  0.5080
85452W        W28443  10.909  24.159  22.205 -0.0174 -0.0617 -0.3984
85453W        W28444  22.147  32.555   1.538 -0.0021 -0.0183 -0.2638
85454W        W28445  18.396   3.848  25.291 -0.1023 -0.1182 -0.0107
85455W        W28446  30.153   3.012  24.344  0.0400  0.0717  0.2401
85456W        W28447   8.820   6.866   7.525  0.0906 -0.2020 -0.0876
85457W        W28448  16.601  27.579  15.209  0.1164  0.1542  0.0397
85458W        W28449  30.369   2.260  19.841  0.3726  0.2356  0.2716
85459W        W28450  21.638   2.313  18.419 -0.0022 -0.0344 -0.1605
85460W        W28451  17.655   4.232  17.529 -0.2161 -0.4790  0.0425
85461W        W28452   2.613  34.645  18.177  0.3202 -0.0249 -0.0612
85462W        W28453  29.036  18.482   1.300 -0.0284  0.1411 -0.0571
85463W        W28454   6.588  14.919   0.027  0.1026  0.2755 -0.0093
85464W        W28455  10.370  12.715   6.928  0.1136  0.4062 -0.2848
85465W        W28456  21.591  10.418   4.396  0.3904  0.1988  0.2176
85466W        W28457  27.176   2.707  19.654  0.0539 -0.3039 -0.1549
85467W        W28458  21.398  11.177  20.037 -0.0838 -0.2382  0.1747
85468W        W28459  30.759  11.332  23.272  0.1214  0.2271  0.0359
85469W        W28460  20.840  34.740   4.654 -0.3933 -0.1408 -0.1685
85470W        W28461  32.933   9.746  16.154  0.1048 -0.1380 -0.1631
85471W        W28462   0.064   1.078  28.328 -0.0790  0.0837 -0.0932
85472W        W28463  26.067  30.801   5.477  0.0168 -0.2201 -0.0087
85473W        W28464  25.902   0.973  28.165  0.1269  0.1962 -0.2945
85474W        W28465  28.930  12.656  18.563 -0.1915 -0.1026  0.0076
85475W        W28466  23.501   3.059   4.511  0.3204  0.0675 -0.2728
85476W        W28467  21.155   1.288   6.855  0.1977  0.4844  0.3643
85477W        W28468  24.766  19.161  25.730 -0.0181 -0.0044 -0.3672
85478W        W28469  27.114  12.606  23.123  0.0283 -0.0284 -0.0835
85479W        W28470  21.763   4.044  14.483 -0.3599 -0.1424  0.1925
85480W        W28471  23.533  12.230   5.472  0.2023 -0.2447 -0.2374
85481W        W28472  15.924  10.553  25.800 -0.2185  0.0908 -0.0315
85482W        W28473  18.007   7.917  17.296  0.2096 -0.0230 -0.1914
85483W        W28474   6.726  32.988   3.272 -0.0591  0.5034 -0.0348
85484W        W28475  33.254   0.637  20.886 -0.0136 -0.0515 -0.0677
85485W        W28476  14.106  28.390   4.629  0.0367 -0.1459 -0.1731
85486W        W28477  19.434  29.929  21.802  0.3327  0.0541  0.3787
85487W        W28478  22.567  10.416  15.240 -0.0998  0.1313  0.0300
85488W        W28479  24.210  26.900  25.836  0.1590 -0.1828 -0.1324
85489W        W28480  26.895   7.136  13.768 -0.0624  0.1801  0.2071
85490W        W28481  24.484  19.383  28.013  0.0843 -0.0383  0.1620
85491W        W28482  26.335  31.471   5.345 -0.0910 -0.1135  0.1629
85492W        W28483  30.463  22.693  27.120 -0.0282 -0.0606 -0.2700
85493W        W28484  26.315  31.235  28.472 -0.0398 -0.1527 -0.1142
85494W        W28485  23.119   6.809  15.229 -0.0614 -0.0095 -0.0069
85495W        W28486   2.874  27.033   7.972 -0.0073 -0.0223  0.2087
85496W        W28487  14.350  29.997  14.247 -0.0802  0.3650 -0.1784
85497W        W28488  20.575  13.768  17.963  0.1659  0.0833 -0.1558
85498W        W28489  24.988   1.292  26.642 -0.0583 -0.0653 -0.0075
85499W        W28490  29.312  30.240  26.952  0.3001 -0.0448  0.3167
85500W        W28491  12.443  32.945  19.269 -0.2779 -0.0310 -0.1252
85501W        W28492  18.294   9.560   8.595  0.1360 -0.1000  0.1326
85502W        W28493  23.307   7.183  17.618 -0.1972 -0.1124 -0.2235
85503W        W28494  20.367  31.209  13.370  0.0706  0.1619 -0.1210
85504W        W28495  29.175   6.076   5.510 -0.0855  0.1389  0.1785
85505W        W28496  23.280  14.500   2.673  0.1926  0.1005  0.0579
85506W        W28497  25.573  17.720  26.928 -0.0200  0.3690 -0.2674
85507W        W28498  22.216  31.599   0.410  0.0811 -0.3358  0.4488
85508W        W28499  18.403   0.937  15.569 -0.1059  0.2936 -0.0565
85509W        W28500   7.165  17.146  29.222  0.2172 -0.1007  0.0677
85510W        W28501  24.859  17.125  19.824 -0.0950  0.2683 -0.0876
85511W        W28502  20.118   8.666   3.646  0.3911  0.1978  0.0515
85512W        W28503  16.046  33.013   1.290  0.0766 -0.0626  0.3379
85513W        W28504  17.646  22.613  14.379 -0.0874 -0.1816 -0.0013
85514W        W28505  34.458   5.319  24.416 -0.1754 -0.1328  0.2483
85515W        W28506  30.570   4.375   9.031  0.0502 -0.0075 -0.0643
85516W        W28507   2.015  31.188  25.258 -0.4741  0.1241  0.2512
85517W        W28508  27.349   2.602   7.226  0.0911  0.0765  0.0648
85518W        W28509   8.577  27.364  16.702  0.1755 -0.2418 -0.0831
85519W        W28510  13.612  19.642   2.935 -0.5354  0.0628 -0.0009
85520W        W28511  26.152   4.229  27.582  0.2132 -0.3006 -0.2930
85521W        W28512   6.695   5.431  18.886  0.0615  0.2302  0.2230
85522W        W28513  17.143   4.475   1.362 -0.0552 -0.0202  0.1207
85523W        W28514  26.266  31.994  28.510 -0.2049 -0.1466  0.0819
85524W        W28515   3.863  32.405  25.821 -0.0143  0.2461  0.1564
85525W        W28516  20.017  10.096  18.842  0.0780 -0.0090 -0.2657
85526W        W28517   2.872  31.880   8.460  0.1957  0.0762 -0.1698
85527W        W28518   6.218  29.493  27.074  0.1938 -0.2724 -0.0094
85528W        W28519  26.717  21.098  17.940  0.2557  0.1242  0.1768
85529W        W28520   7.019  12.819  17.627  0.2223  0.0049  0.1748
85530W        W28521   4.364   0.880  28.180 -0.0084  0.3941 -0.3062
85531W        W28522  12.063  11.102  17.194  0.1146  0.1913 -0.2545
85532W        W28523  12.635  32.106  20.046  0.1218  0.0706 -0.1596
85533W        W28524  26.242  31.534  17.286 -0.0383 -0.1060  0.1288
85534W        W28525  24.294  10.937  16.898  0.3087  0.0891  0.1150
85535W        W28526  23.296  25.446   8.718 -0.1468 -0.1175  0.2058
85536W        W28527  28.927  12.425   6.801 -0.0562 -0.0005  0.0312
85537W        W28528  12.320  15.113  17.113  0.0773 -0.2888  0.1202
85538W        W28529  18.263  13.220   0.741 -0.2303 -0.2830  0.3156
85539W        W28530  29.497  19.401  24.740  0.2021 -0.0025  0.0081
85540W        W28531  28.264  15.290  28.752  0.3089  0.0307 -0.1157
85541W        W28532  28.714   1.477  20.011  0.1475  0.0937  0.2426
85542W        W28533  12.423  12.534  23.925  0.0966  0.3437  0.2379
85543W        W28534  14.823   1.684   2.722  0.0937 -0.1471  0.0157
85544W        W28535  21.469  18.695  16.694 -0.2140 -0.0921 -0.2061
85545W        W28536  24.673   0.934   4.757  0.1588 -0.0606 -0.0618
85546W        W28537  18.387  30.361  20.908  0.0907  0.0745  0.3868
85547W        W28538  22.471   0.101  28.766 -0.2494 -0.2889  0.0671
85548W        W28539  22.029   0.520   0.699  0.1945  0.0457 -0.0347
85549W        W28540  19.647  27.653  20.694  0.2425 -0.1759  0.3705
85550W        W28541  15.335   9.768  20.031  0.2243 -0.0847  0.0623
85551W        W28542  21.173  13.533  13.950 -0.0970 -0.2529  0.1395
85552W        W28543  16.995   7.990  18.860  0.2294 -0.2792  0.2438
85553W        W28544  23.560  30.211   0.927 -0.0398  0.3227 -0.2199
85554W        W28545   9.444   1.956   3.398 -0.0350 -0.2695  0.0701
85555W        W28546  21.749  32.970  22.094 -0.2446 -0.0705  0.1799
85556W        W28547  29.849  33.975  14.924  0.0112 -0.0203 -0.0289
85557W        W28548  18.009  13.840   3.086  0.0069 -0.0912 -0.1435
85558W        W28549   7.389  17.043  18.703 -0.0150  0.2829  0.1081
85559W        W28550  28.060  34.354  21.811  0.3553 -0.1297  0.0432
85560W        W28551  34.642   7.120  15.808  0.3762 -0.3630  0.1702
85561W        W28552   0.857   9.325  20.524 -0.0525 -0.0446 -0.2378
85562W        W28553  25.668  34.278  15.251 -0.1369  0.3224 -0.3302
85563W        W28554  27.895  13.654  16.146 -0.2112 -0.0219  0.1882
85564W        W28555  28.309  11.442  15.459  0.1205  0.1487  0.0810
85565W        W28556  22.157  32.345   7.074 -0.0204  0.5124  0.2906
85566W        W28557  22.751  29.623  26.102  0.1240  0.1714 -0.0262
85567W        W28558  18.208  12.323  25.330  0.1359 -0.1440  0.2132
85568W        W28559  33.606  34.200  29.011  0.4893  0.1499 -0.3136
85569W        W28560  23.316   8.210  22.856  0.2288  0.0867  0.1273
85570W        W28561  21.174  34.447  24.316 -0.1112  0.1571  0.0384
85571W        W28562  20.472  19.911  16.632  0.0452 -0.0034 -0.0728
85572W        W28563  25.178  21.952   0.032 -0.0606 -0.1828  0.0789
85573W        W28564  33.355   1.348   3.906 -0.3294 -0.2041  0.0360
85574W        W28565   4.196  33.575  18.997  0.3221  0.2497  0.0356
85575W        W28566  32.561  17.439  27.780 -0.0379  0.1693 -0.1636
85576W        W28567  22.967  18.805  16.107 -0.3662 -0.0823  0.0221
85577W        W28568  21.752   9.191  24.956  0.0781  0.0217  0.0458
85578W        W28569   5.043   3.471   5.328  0.2952  0.0963 -0.3548
85579W        W28570  26.607  32.265  22.898 -0.2486 -0.0369 -0.1145
85580W        W28571  21.526   5.537  15.890 -0.0042  0.0488 -0.0772
85581W        W28572  26.259  33.657  22.322 -0.0694 -0.1725 -0.2045
85582W        W28573  16.733  34.099   8.565  0.2953 -0.0574  0.1101
85583W        W28574  15.406  33.211   4.039  0.4002  0.2655  0.1930
85584W        W28575  24.288  21.587  25.409 -0.1015 -0.2029 -0.0093
85585W        W28576  16.118  32.102   1.103 -0.3083 -0.1243  0.1345
85586W        W28577  34.546   8.840  24.762  0.0992 -0.0046  0.1747
85587W        W28578   7.386  12.203  10.106 -0.1903 -0.2739  0.1626
85588W        W28579  15.285  24.013  22.531  0.1320  0.1501  0.0736
85589W        W28580  23.158   5.678   1.297 -0.2752 -0.1601 -0.0237
85590W        W28581  31.858   8.712  26.560 -0.0682 -0.1259  0.1960
85591W        W28582   0.495  20.569  25.714  0.2334  0.0744  0.1326
85592W        W28583  23.100  28.979  25.910 -0.0563  0.0834  0.0522
85593W        W28584  25.314   6.469  20.849  0.1162  0.1894 -0.1963
85594W        W28585  20.839  32.328  15.594  0.0791  0.1686 -0.1165
85595W        W28586  26.895  22.677  28.977 -0.4710 -0.2043 -0.0508
85596W        W28587  32.712   5.122  22.808 -0.4634  0.1323 -0.0814
85597W        W28588  33.107  13.018  28.967 -0.0119 -0.0012  0.0403
85598W        W28589   3.293   7.430   1.004 -0.1363 -0.0237  0.1810
85599W        W28590  21.851  25.526  18.875  0.0067 -0.0444  0.1523
85600W        W28591  14.433  14.901  23.517  0.0041  0.0399 -0.0846
85601W        W28592  17.647  11.841  15.496  0.1970  0.2853 -0.0206
85602W        W28593  17.183   5.556   3.144 -0.0989 -0.1383 -0.1609
85603W        W28594  22.304   9.910  24.748  0.3220  0.0756  0.0792
85604W        W28595  30.824  30.623  17.500 -0.1067 -0.1404 -0.1391
85605W        W28596  29.164   7.273  26.720  0.0130  0.0738  0.1520
85606W        W28597  18.966  33.829   2.214  0.1505  0.1390  0.2095
85607W        W28598  27.073   1.936  20.793 -0.2326 -0.0478  0.0684
85608W        W28599  17.037   8.187  26.997  0.1936 -0.0486 -0.1383
85609W        W28600  25.469   1.621   1.105  0.2079 -0.3148 -0.0754
85610W        W28601  17.166  27.616   9.276  0.4626 -0.0106  0.3400
85611W        W28602  28.850  12.241  16.448 -0.0867  0.0747  0.1947
85612W        W28603  13.952   2.781  21.206  0.0486  0.0732  0.0568
85613W        W28604  19.779  11.039  20.313 -0.0709  0.2443 -0.1411
85614W        W28605  25.298   4.644  27.503  0.1320  0.0462  0.3123
85615W        W28606  25.168  28.120  23.527  0.3971  0.0864 -0.0737
85616W        W28607  15.875  14.810  24.644 -0.1253 -0.1541  0.1147
85617W        W28608  19.466  11.333   9.293  0.1513 -0.0173  0.0955
85618W        W28609  32.943  18.620   7.043 -0.0847 -0.0700 -0.1648
85619W        W28610  16.796   6.698  27.161  0.1232 -0.2653  0.2930
85620W        W28611  23.554  34.159  20.450 -0.2193  0.0133 -0.1091
85621W        W28612  11.527   1.520   0.846 -0.0996 -0.1501 -0.2138
85622W        W28613  22.038  12.817  22.154 -0.0324 -0.0920 -0.2634
85623W        W28614  20.468   7.665  17.764  0.0745  0.0712  0.1363
85624W        W28615  23.428   6.964  19.829  0.3830  0.2461 -0.3652
85625W        W28616  18.603   3.754  16.070 -0.1048  0.0476  0.0764
85626W        W28617  24.390  22.334  14.081  0.1203 -0.4053  0.1262
85627W        W28618   5.838   2.252   3.601 -0.3832  0.0283 -0.1928
85628W        W28619  23.621   0.013   0.108 -0.4110  0.0110  0.2251
85629W        W28620  16.648   8.960  18.030  0.1303 -0.3115 -0.0320
85630W        W28621  27.945  10.812  24.808 -0.0275 -0.0862 -0.2264
85631W        W28622  34.435   4.299  17.626 -0.1960 -0.0237  0.3488
85632W        W28623  22.813  16.676  14.910  0.0702 -0.0725 -0.0482
85633W        W28624  15.908   8.247  17.860 -0.0738  0.0437  0.2601
85634W        W28625  22.471  26.383  20.394  0.2784  0.0074 -0.0612
85635W        W28626  18.961  29.434  28.000 -0.0756  0.2131  0.0426
85636W        W28627  17.767   2.353  10.243 -0.0543 -0.2040  0.0232
85637W        W28628  19.329  14.901  21.549  0.1827  0.0817  0.2416
85638W        W28629  14.960   6.087  22.722 -0.0125  0.0753 -0.1468
85639W        W28630  23.285  25.000  28.074 -0.3045 -0.2034 -0.0221
85640W        W28631  18.327  26.600  19.437  0.3720  0.1610  0.1459
85641W        W28632  25.431   2.614   0.817 -0.3706 -0.1164 -0.3704
85642W        W28633   5.314  20.685  19.601  0.0645 -0.0002  0.1339
85643W        W28634  16.644   2.279   5.317  0.1947 -0.0981 -0.3348
85644W        W28635  17.599  19.213   5.709  0.0363  0.1133  0.0777
85645W        W28636  15.100  30.040   3.403  0.2720  0.2112 -0.1230
85646W        W28637   8.875   8.477  26.096  0.3070  0.0287  0.0124
85647W        W28638  11.063  31.906  18.954  0.0652 -0.0085 -0.0301
85648W        W28639  11.100  29.446  27.216  0.0273  0.1867 -0.4402
85649W        W28640  10.498  33.012  17.489 -0.1465 -0.0252  0.4017
85650W        W28641  30.856   2.251  14.209  0.2642  0.0877  0.1050
85651W        W28642  19.374  32.935  15.299 -0.0132  0.0614 -0.3578
85652W        W28643  31.059   7.792   5.052  0.0635  0.2085 -0.2542
85653W        W28644  31.350  33.084  26.966  0.0176  0.1801 -0.4230
85654W        W28645  26.653  16.506  14.261 -0.0581 -0.0470 -0.1012
85655W        W28646  25.881   6.520  25.971 -0.2052 -0.0757 -0.0016
85656W        W28647  19.775  30.627  24.582 -0.1833 -0.0731  0.0924
85657W        W28648  27.281   1.774  26.688  0.0589  0.1469  0.1865
85658W        W28649   9.762  27.858  19.825 -0.1260  0.0029 -0.0917
85659W        W28650  17.889  32.295  20.396  0.1732 -0.1797 -0.0387
85660W        W28651  21.121  34.335   9.331  0.1509  0.1299 -0.2178
85661W        W28652  12.840  33.229  18.109  0.0542 -0.4160  0.0106
85662W        W28653  19.208  29.763  26.762  0.1265 -0.2244 -0.0660
85663W        W28654  20.624   4.516  21.025  0.2724 -0.0266 -0.2276
85664W        W28655  15.953   9.432  24.578  0.2154 -0.0647 -0.1700
85665W        W28656  16.886  10.220  23.305 -0.2010  0.1476  0.3121
85666W        W28657  27.657   1.742  16.843  0.0671  0.0968  0.2649
85667W        W28658  31.158   4.267  21.730 -0.0904 -0.0096  0.2647
85668W        W28659  25.842  34.469  18.692 -0.2383 -0.0926  0.2284
85669W        W28660  23.802   0.853  16.621  0.3475  0.2952 -0.0875
85670W        W28661  29.513  33.968  18.841 -0.0624 -0.1217  0.0843
85671W        W28662  29.702  14.256  24.423 -0.0273 -0.0032 -0.0541
85672W        W28663  14.626   9.236  16.593 -0.2251  0.0166 -0.0335
85673W        W28664  31.997  21.213  25.433  0.0937 -0.2226  0.1588
85674W        W28665  12.587   1.571  15.264  0.0581  0.0120 -0.0094
85675W        W28666  22.825  18.700   6.723  0.0452 -0.5425  0.1572
85676W        W28667  21.912  11.328   3.201  0.5116  0.0493  0.0651
85677W        W28668  10.595   6.335  18.447  0.3024 -0.2838  0.0881
85678W        W28669  14.672  10.827  15.075 -0.2247  0.4217  0.0410
85679W        W28670  20.970  11.197  21.132 -0.1772  0.2514  0.0362
85680W        W28671  12.182   7.868  10.609 -0.0589 -0.3589 -0.0034
85681W        W28672  16.032   6.526  27.120 -0.0306 -0.2192 -0.1602
85682W        W28673   7.772  28.756  25.033 -0.0089 -0.1041 -0.1150
85683W        W28674  13.248  31.072  22.359  0.0336  0.0780  0.0277
85684W        W28675  33.687  26.226   7.138  0.0614 -0.1978  0.1089
85685W        W28676  18.484   5.461   5.412 -0.2370 -0.2080 -0.1519
85686W        W28677  16.857   9.849  15.016 -0.0543  0.0195 -0.2567
85687W        W28678   4.570  28.261   6.215 -0.0942  0.0902  0.2047
85688W        W28679  13.805  11.229  17.671  0.2527 -0.1311 -0.1366
85689W        W28680  11.191   4.150  22.815 -0.3352  0.0858  0.2512
85690W        W28681   7.189  16.853  19.603 -0.1522  0.1394  0.2076
85691W        W28682  20.172   6.104  13.396  0.0082 -0.0259 -0.1279
85692W        W28683  30.314  17.692  25.145  0.2188  0.0836  0.4478
85693W        W28684  20.308   2.987  26.203  0.3624  0.0577 -0.1187
85694W        W28685  15.898  27.494  21.989 -0.1118 -0.0598  0.1102
85695W        W28686  10.008   3.494  23.233  0.3002 -0.2124 -0.0616
85696W        W28687  10.537   0.618  19.489  0.1285  0.0256 -0.0161
85697W        W28688   5.448  14.437   1.624 -0.0602  0.0041 -0.0224
85698W        W28689  22.987  27.381   4.520  0.2981  0.0125 -0.0813
85699W        W28690  12.876   0.170   9.040  0.0528  0.5025 -0.2675
85700W        W28691  15.298  28.067   5.245  0.0528  0.0176 -0.0587
85701W        W28692   9.223  21.968  25.163 -0.0286  0.0520  0.0743
85702W        W28693  12.994  11.356  22.603  0.3105 -0.4323 -0.1566
85703W        W28694   5.286   0.229   1.026  0.0044  0.0217 -0.1394
85704W        W28695   6.511   7.527  27.156 -0.3954 -0.0168 -0.0558
85705W        W28696   4.768  17.816  23.186  0.1475 -0.1026  0.0034
85706W        W28697  26.341  29.749  14.038 -0.1829  0.2339  0.1712
85707W        W28698  16.537   7.402  20.539  0.0462  0.0166  0.0026
85708W        W28699   4.754  30.380   0.680  0.1927  0.2181  0.2699
85709W        W28700  27.013  17.765   1.966  0.0480 -0.0849  0.0868
85710W        W28701  18.316  29.359  21.268 -0.0803 -0.0904 -0.0814
85711W        W28702  31.653  16.336   3.950 -0.1546  0.3117  0.0218
85712W        W28703   8.866   6.017   9.939  0.0632  0.0916 -0.2623
85713W        W28704  20.759  27.382  17.132  0.1204 -0.1018  0.0565
85714W        W28705  15.794  12.956  28.743 -0.1522 -0.1640 -0.3710
85715W        W28706  20.066  17.783  27.575  0.0515 -0.1977  0.0464
85716W        W28707  22.858  14.308  17.216 -0.2493  0.1146 -0.1695
85717W        W28708  28.849   1.934  21.690  0.3175 -0.0323  0.1023
85718W        W28709  15.994  19.000  27.832 -0.4818 -0.0718 -0.0796
85719W        W28710   3.746   4.658  28.938 -0.1669 -0.0731 -0.3205
85720W        W28711  19.511  25.854   3.109 -0.0400  0.1295 -0.1288
85721W        W28712  19.672   3.513   4.745 -0.0161 -0.0645  0.1811
85722W        W28713   9.749  34.398  28.116  0.1719 -0.3425 -0.3489
85723W        W28714  21.948   9.677   2.003  0.1511  0.0091  0.0545
85724W        W28715  10.277   0.998  23.771  0.2088  0.2002 -0.0030
85725W        W28716  22.285  24.384   3.035 -0.0215  0.0612  0.0566
85726W        W28717  19.313  34.367  17.948 -0.1000  0.0582  0.1965
85727W        W28718  31.573   4.712  24.459  0.2045  0.0262  0.2598
85728W        W28719  28.053  33.748   3.627  0.0044 -0.1276  0.1450
85729W        W28720  13.533   9.406  17.884 -0.0682  0.1992 -0.2054
85730W        W28721  12.244   8.754  11.136  0.1528  0.2106 -0.1365
85731W        W28722  15.348  12.602  24.246  0.1115 -0.0167  0.0418
85732W        W28723  23.916   7.531  24.886  0.2678  0.1454 -0.1361
85733W        W28724  14.498   3.710  11.080  0.2454 -0.0988  0.1484
85734W        W28725  29.097   5.976  25.845  0.1034 -0.0622  0.1109
85735W        W28726  20.618   4.065  17.358  0.1045  0.2967  0.1199
85736W        W28727  32.575   7.680  15.881 -0.3965  0.2638 -0.2399
85737W        W28728  34.724   7.023   5.160 -0.0058 -0.0554  0.3817
85738W        W28729  30.423   2.497  21.689 -0.1009  0.1069 -0.0220
85739W        W28730  10.299   2.169  15.940 -0.2645  0.1270  0.5091
85740W        W28731  26.180   3.409  28.612  0.1597 -0.0009 -0.0411
85741W        W28732  18.178  22.512   3.440 -0.1589 -0.0216 -0.2109
85742W        W28733  23.771  23.725   4.261  0.0730  0.1720 -0.0255
85743W        W28734  28.356  31.465  23.782  0.0412  0.4223  0.0405
85744W        W28735  22.545  22.787  26.275  0.1966 -0.0730  0.0680
85745W        W28736   7.103  13.034  20.585  0.1120  0.0676 -0.0098
85746W        W28737  31.394  29.064   1.717  0.1011 -0.1545  0.3822
85747W        W28738  25.830  32.327  16.879  0.1129  0.0201 -0.0403
85748W        W28739   7.253  12.289   0.448 -0.5470  0.1076  0.0376
85749W        W28740  14.571  10.841   5.085 -0.5052 -0.0279  0.1390
85750W        W28741   0.160  19.374   9.166  0.2067 -0.0655 -0.4720
85751W        W28742  21.803   0.901  25.198 -0.4143 -0.3232  0.1639
85752W        W28743  21.341  30.040   2.897  0.0398  0.1785  0.1442
85753W        W28744  14.638  30.133   3.816 -0.1164  0.1725  0.2914
85754W        W28745  27.237  23.996  18.324  0.0826  0.0860  0.0599
85755W        W28746  28.167   6.899   4.127  0.0107  0.2213  0.0878
85756W        W28747   0.663  10.884   6.565 -0.0982 -0.1245  0.1254
85757W        W28748   4.589   8.201  27.186  0.1064 -0.2051 -0.0084
85758W        W28749  10.582   8.682   3.644 -0.1177  0.2068 -0.3951
85759W        W28750  18.589   0.236   1.742 -0.4414 -0.0938  0.0634
85760W        W28751  19.549  25.297  26.928 -0.0808 -0.1015  0.0044
85761W        W28752  18.929   2.726   2.992 -0.0025 -0.3644 -0.1283
85762W        W28753  33.279  21.232   5.687 -0.1590 -0.0147 -0.4447
85763W        W28754   1.377  19.452   1.673  0.1956 -0.0914 -0.0950
85764W        W28755  28.755  20.794  21.760 -0.1878  0.1672  0.3027
85765W        W28756  31.737  31.748   6.080  0.1052  0.1888 -0.0744
85766W        W28757   4.583  33.848   5.827  0.0181 -0.1468  0.0125
85767W        W28758  20.305  12.211   2.106  0.2911 -0.1724 -0.0512
85768W        W28759  12.500   7.762  25.071 -0.4904 -0.6081 -0.0005
85769W        W28760   9.023  12.350   7.380  0.0900  0.0436 -0.0933
85770W        W28761  17.679  28.410  22.330  0.2140  0.3032 -0.1350
85771W        W28762  22.255  19.316  20.738 -0.1370 -0.4656 -0.3657
85772W        W28763  31.034  27.771  24.190 -0.1228 -0.0078 -0.2135
85773W        W28764  32.599  26.849   1.845 -0.0711 -0.0356 -0.1506
85774W        W28765  20.872   3.036  25.930  0.2127  0.1315  0.4090
85775W        W28766  30.589   8.063  14.489 -0.2064  0.0308  0.0172
85776W        W28767  20.731  27.305   8.528  0.0666  0.2387 -0.2590
85777W        W28768  14.271   5.775  28.365 -0.1176  0.1972  0.1830
85778W        W28769   1.656  25.014   6.819 -0.0029  0.1061  0.0146
85779W        W28770  26.078   2.970   9.339  0.1124 -0.2269 -0.0751
85780W        W28771  27.818   1.584  19.254  0.0018 -0.1128  0.1809
85781W        W28772  33.724   9.351  18.828  0.0079 -0.0064  0.1656
85782W        W28773  26.024  19.594  28.522 -0.2287  0.0975 -0.0889
85783W        W28774   9.773   9.664  24.900  0.2188 -0.3877  0.3027
85784W        W28775  19.996   7.668   0.693 -0.2066 -0.0997 -0.2396
85785W        W28776  29.694   9.245  24.813  0.1612 -0.2648 -0.1330
85786W        W28777  15.203   3.428   0.749  0.2930 -0.0967 -0.2373
85787W        W28778  27.935  17.968   6.391  0.1220  0.2963 -0.1011
85788W        W28779  23.980   8.507  17.893 -0.2041  0.1078  0.1612
85789W        W28780   3.008  31.214  23.160 -0.2053  0.1945  0.1502
85790W        W28781  26.439  17.001  15.830  0.0858 -0.1362 -0.1362
85791W        W28782  19.855   5.545   4.577  0.1292 -0.2329 -0.0171
85792W        W28783  19.490  33.684  25.942  0.0970  0.0017 -0.0378
85793W        W28784  31.589  29.378  28.154  0.0551 -0.1309 -0.4895
85794W        W28785  21.272  21.433   1.783 -0.5414  0.0904 -0.3070
85795W        W28786  19.028   6.225   0.749  0.2636  0.0567 -0.2348
85796W        W28787  31.724   9.813  29.032  0.1911  0.2095 -0.1025
85797W        W28788  17.824   2.491   9.338  0.1453 -0.1952 -0.1450
85798W        W28789  26.466  10.695   7.976  0.2297  0.2637 -0.1808
85799W        W28790  17.241  33.641  23.586  0.0067  0.0819  0.1739
85800W        W28791  26.932   7.884  28.795 -0.1747  0.0239 -0.2969
85801W        W28792  34.345   2.898  21.200  0.1966 -0.0840 -0.0566
85802W        W28793  26.160  30.506  20.069  0.1677 -0.1959  0.2026
85803W        W28794  16.501  28.121  24.373 -0.0505 -0.4100 -0.4729
85804W        W28795  11.390   0.111  17.481 -0.0663  0.0742  0.2604
85805W        W28796  24.639  30.599  15.273  0.2394 -0.2549 -0.3924
85806W        W28797  22.921  15.209  19.284  0.0482 -0.1151  0.3549
85807W        W28798  21.252   4.872   3.382 -0.3030 -0.1323 -0.2279
85808W        W28799  18.398   3.872  15.628 -0.1416  0.0610 -0.0495
85809W        W28800  15.262   8.283  21.307 -0.1510 -0.0125 -0.3022
85810W        W28801  28.652   7.152  24.779 -0.1251  0.2927 -0.0948
85811W        W28802  24.734   8.309  24.204 -0.0736 -0.1087 -0.3494
85812W        W28803  14.940  16.286   3.141 -0.3651 -0.2161  0.0502
85813W        W28804  28.226   3.748   5.157 -0.1188  0.1969  0.1462
85814W        W28805  11.881  19.860  15.384  0.2423  0.0656 -0.2539
85815W        W28806  26.816   1.538  15.272 -0.2197  0.1388 -0.1094
85816W        W28807  17.556  12.991  14.218 -0.0735 -0.0637 -0.2719
85817W        W28808  27.830  12.141   3.841 -0.2843  0.1436  0.0330
85818W        W28809  26.388   5.162   8.913 -0.1392 -0.1038  0.2503
85819W        W28810  28.700   2.999   2.590 -0.2629  0.0648  0.1503
85820W        W28811  21.761  19.953  20.183  0.1171 -0.0020 -0.0871
85821W        W28812  18.093  30.149  17.992  0.0467  0.2157 -0.1479
85822W        W28813  13.451  13.568   4.706  0.3076  0.0072 -0.1457
85823W        W28814  12.268  31.270  27.993  0.1198 -0.0482 -0.0822
85824W        W28815  13.802   9.750  17.254 -0.0181  0.0551 -0.1221
85825W        W28816  19.339  30.727   3.381 -0.1745  0.2433 -0.0530
85826W        W28817  16.967  12.001  25.617  0.1145 -0.1156 -0.1396
85827W        W28818  17.498   0.984   7.516  0.3482  0.0446  0.0735
85828W        W28819  22.855   5.565  22.906  0.0623  0.2108 -0.0736
85829W        W28820  22.701   6.945  26.036 -0.0175 -0.0772 -0.2528
85830W        W28821  22.223  30.688  18.742 -0.0860 -0.0111  0.1805
85831W        W28822  17.058   7.740   9.165  0.0658 -0.0529  0.1481
85832W        W28823   8.890   6.495  24.616 -0.0222  0.0199  0.1634
85833W        W28824  16.259  33.154   4.519  0.2050 -0.2659  0.2167
85834W        W28825   8.937  22.945  22.879  0.2413  0.3836  0.0637
85835W        W28826   0.060   1.972  21.891  0.2652  0.1586  0.0582
85836W        W28827  28.992   4.995   9.245 -0.5195  0.1562 -0.0472
85837W        W28828  31.742  31.929   3.508 -0.0868 -0.3863  0.0185
85838W        W28829  15.880   0.933   8.626 -0.0682 -0.0511 -0.3324
85839W        W28830  21.143  16.879   1.234 -0.1914  0.0031 -0.3761
85840W        W28831   1.244   7.683  22.095 -0.1804 -0.0787  0.0425
85841W        W28832  33.488  14.868  28.078  0.4341 -0.0401  0.1061
85842W        W28833  13.679  17.261  28.188  0.2603  0.0469  0.2663
85843W        W28834  34.395  31.556  25.965 -0.3286  0.1163  0.1326
85844W        W28835  14.862   7.265  16.665  0.1118  0.1001 -0.1733
85845W        W28836  26.620  25.057   0.448 -0.0793  0.0233 -0.0389
85846W        W28837  20.502   3.008   3.880  0.3781 -0.0415  0.1705
85847W        W28838  25.056  29.256  24.262 -0.1195 -0.1389 -0.3694
85848W        W28839  16.185  10.121  20.143 -0.2503 -0.0394 -0.0573
85849W        W28840  22.972  31.532   7.601 -0.4153  0.1195 -0.1903
85850W        W28841  19.639   0.355   3.865 -0.3733  0.2117  0.0601
85851W        W28842  19.737  21.974   1.097  0.0152  0.0994  0.0097
85852W        W28843   2.798  10.089   5.278 -0.3194  0.1025 -0.1682
85853W        W28844  31.272  25.536  17.473 -0.0268  0.0101  0.1581
85854W        W28845  26.790  10.900   2.499  0.3797 -0.1986  0.0891
85855W        W28846  13.050  23.284  18.817 -0.1463  0.0463 -0.3489
85856W        W28847  13.697   7.244  23.677 -0.2072 -0.0073 -0.0611
85857W        W28848  27.595  13.386   8.263 -0.3833  0.0886  0.0870
85858W        W28849   1.247  19.749  16.689  0.2551 -0.2022 -0.1349
85859W        W28850  28.470   8.360  14.297  0.2771  0.1073 -0.3029
85860W        W28851  12.328  25.641   9.012  0.0211  0.1016  0.1470
85861W        W28852  33.177  30.459   0.200 -0.1337  0.2671 -0.0459
85862W        W28853  24.251   0.021   4.717  0.0972  0.4041  0.2714
85863W        W28854  12.493  12.556  20.850  0.1744 -0.0986  0.1991
85864W        W28855  19.273  11.817   5.298 -0.0126  0.2973 -0.0524
85865W        W28856  13.902   1.666   5.272 -0.2054  0.2546 -0.1035
85866W        W28857  17.201   8.373   4.625  0.0264  0.0675 -0.3285
85867W        W28858   8.870  26.187   0.758 -0.0153  0.2898 -0.0096
85868W        W28859  21.479  32.166   6.736 -0.1759 -0.0607 -0.0002
85869W        W28860  15.895   7.837   4.003 -0.1174  0.2184 -0.0239
85870W        W28861  27.896   8.918  18.977 -0.1800  0.3152 -0.1799
85871W        W28862  11.452  31.734  14.946  0.0942 -0.1473  0.3147
85872W        W28863  22.376   1.949  22.017 -0.0766  0.1102 -0.2148
85873W        W28864  14.594   9.915  23.443 -0.1674  0.2119  0.2856
85874W        W28865  17.707  31.109   1.162  0.0301  0.0366 -0.0029
85875W        W28866  23.502   7.352   5.435 -0.1217 -0.0738 -0.2619
85876W        W28867   2.917  17.240   7.495 -0.4046  0.0143 -0.2654
85877W        W28868  29.194  33.396   5.857 -0.2861 -0.1066  0.0795
85878W        W28869  15.441  16.352   0.376 -0.0937  0.1387  0.1526
85879W        W28870  33.795  15.721  21.828  0.0974 -0.0219  0.0544
85880W        W28871  33.407   4.846   2.689 -0.0286 -0.1203  0.1041
85881W        W28872  15.163  20.717   7.323 -0.0131 -0.1087  0.0048
85882W        W28873   0.172   8.512   6.192  0.0012  0.1429 -0.1937
85883W        W28874  21.289  26.274  22.540 -0.0816 -0.2519  0.1092
85884W        W28875  27.482  10.953   0.067  0.2710  0.1594  0.0211
85885W        W28876  24.135  19.737  27.836 -0.0334  0.2348 -0.0244
85886W        W28877  16.204   1.856  26.584 -0.5004 -0.2249  0.0676
85887W        W28878  27.176  11.291  15.702  0.0865  0.2055  0.0825
85888W        W28879  18.387  34.553  28.144 -0.0155  0.0402  0.0955
85889W        W28880   5.609   8.917   6.190 -0.1674  0.2245 -0.0987
85890W        W28881  21.266   9.963  14.981  0.0490 -0.0170 -0.0821
85891W        W28882   1.270   5.436   8.869  0.1443 -0.0919 -0.0376
85892W        W28883  30.019  24.308   3.479 -0.2690  0.0062  0.3874
85893W        W28884  26.929  22.945  27.620  0.1025  0.0869  0.0661
85894W        W28885  24.824   5.398  18.231 -0.1402  0.1770  0.2345
85895W        W28886  21.803  19.277  13.660 -0.0895 -0.0709 -0.3231
85896W        W28887  10.257  25.181   1.103 -0.4151  0.0482  0.1015
85897W        W28888  22.110   7.255  26.932  0.0104  0.1073 -0.1152
85898W        W28889  17.339  21.736   0.566 -0.0478  0.3623  0.1953
85899W        W28890  20.547   5.655   0.038 -0.0971  0.0891  0.0278
85900W        W28891   9.362   5.361  21.726  0.2861  0.0797  0.1787
85901W        W28892  12.316  32.142  22.093  0.2033  0.1280 -0.1174
85902W        W28893   7.971   7.867  24.535 -0.3002  0.1231  0.1141
85903W        W28894  11.434  28.758   0.463 -0.0313 -0.0650  0.0205
85904W        W28895  12.068  17.522  18.729  0.0311 -0.2398 -0.1234
85905W        W28896  32.416  22.990  16.611  0.2539  0.1218 -0.1995
85906W        W28897  31.610   6.724  19.398 -0.0633  0.0347 -0.2609
85907W        W28898  12.033  25.841  28.718 -0.1812 -0.1546 -0.0467
85908W        W28899  13.358   6.517  18.287  0.0268 -0.0691 -0.1413
85909W        W28900  22.108  17.261   3.167  0.0608 -0.0039  0.1052
85910W        W28901  22.617  19.238   2.624  0.0711 -0.1746 -0.0961
85911W        W28902  13.932  10.179  24.081 -0.0209 -0.0160  0.1172
85912W        W28903  26.106  30.381  15.925  0.3422  0.1417  0.0141
85913W        W28904  24.774   3.244  23.647  0.0683  0.1216 -0.3195
85914W        W28905  19.000   2.163  10.141  0.1630 -0.1415 -0.1454
85915W        W28906  25.755  10.491   5.971  0.2588 -0.0124  0.0366
85916W        W28907  17.322  29.723  23.833 -0.0008  0.1665 -0.0473
85917W        W28908  30.492   3.442   7.297 -0.0814  0.1102  0.2879
85918W        W28909  25.958   4.867   8.958  0.0803 -0.1473  0.2443
85919W        W28910  30.084   8.698  18.038  0.1419 -0.2938  0.0328
85920W        W28911  30.111   3.853   4.598 -0.0607 -0.3409 -0.1565
85921W        W28912   4.148  25.725  22.024  0.2630  0.1368 -0.0554
85922W        W28913  18.067  23.192   8.781 -0.0435 -0.1543  0.2023
85923W        W28914  24.195  10.164   2.532  0.1072  0.0330  0.4048
85924W        W28915  24.420  19.449  18.917  0.1036 -0.1482  0.1453
85925W        W28916   2.076  13.103   9.804  0.1345 -0.2403 -0.3066
85926W        W28917  18.200  12.503   5.980  0.0641  0.0095  0.1401
85927W        W28918  24.412  29.104   7.040  0.0309  0.0149  0.0008
85928W        W28919  23.322   7.018   7.512  0.0580 -0.0207 -0.2298
85929W        W28920   5.437   6.820   8.306 -0.4184  0.4292  0.2267
85930W        W28921  20.842   3.360   5.215 -0.1957  0.2639  0.2874
85931W        W28922  28.865  15.986  10.064 -0.1001  0.1729 -0.0606
85932W        W28923  27.127   8.450   4.149  0.1074 -0.1363 -0.0341
85933W        W28924  27.121   8.431  21.124  0.1157  0.0782 -0.0942
85934W        W28925   9.695  29.914  29.069 -0.1730  0.0929 -0.2901
85935W        W28926  21.579  28.139  22.241 -0.2420 -0.1662  0.0077
85936W        W28927  15.418  13.109  28.357  0.1760  0.4449 -0.2714
85937W        W28928  14.939   2.172   8.500  0.0734 -0.1585 -0.0812
85938W        W28929  23.313   1.745  27.078  0.0969  0.2286  0.5148
85939W        W28930   7.490   5.245   1.962  0.0203 -0.2631 -0.5574
85940W        W28931  12.227  13.875   4.503  0.1408  0.1559 -0.3116
85941W        W28932  29.280   9.435  26.380  0.2222  0.2123 -0.0229
85942W        W28933  26.377  13.681  28.533  0.0474  0.2327  0.1134
85943W        W28934  33.816  21.454   4.721 -0.0678 -0.0419 -0.0475
85944W        W28935   2.811   3.013  23.804  0.2071 -0.2425  0.1146
85945W        W28936  27.474  30.936   4.326  0.3933 -0.0924  0.4299
85946W        W28937   1.894   7.016   5.827 -0.0317 -0.1130 -0.1617
85947W        W28938  19.509   0.915  16.904 -0.0937 -0.0499  0.0759
85948W        W28939  28.819  28.259   6.065 -0.1316 -0.0262 -0.0078
85949W        W28940  14.383   4.878   6.262 -0.0400 -0.0704  0.2293
85950W        W28941  12.209   5.073  22.813 -0.0604 -0.0334  0.0336
85951W        W28942  16.375   2.552   8.790 -0.2678  0.4299 -0.0248
85952W        W28943  21.754  13.454   7.422  0.3292 -0.0237 -0.0646
85953W        W28944  26.782  10.019   2.035 -0.1969 -0.0571  0.0018
85954W        W28945  26.129  19.591  24.425  0.2208  0.1341 -0.0202
85955W        W28946  22.063   5.228  25.158  0.0134 -0.1204  0.0574
85956W        W28947   7.051   5.551   6.195 -0.0474 -0.0139  0.0743
85957W        W28948   5.415   9.567  26.159  0.0607  0.2947  0.3333
85958W        W28949  13.633  11.634  25.401 -0.1028 -0.0412  0.0936
85959W        W28950  17.887   2.500  17.774  0.1376  0.1523  0.0355
85960W        W28951  20.009  26.418  26.924 -0.1729  0.0486 -0.2133
85961W        W28952  20.364   0.406  20.660  0.2505 -0.1822  0.0460
85962W        W28953  30.300  12.437   3.502 -0.3339 -0.0392  0.2225
85963W        W28954  29.443  11.144   0.605  0.2152  0.2243 -0.0298
85964W        W28955  19.715  33.128   6.002 -0.2092 -0.1235 -0.0032
85965W        W28956  12.601  19.543   7.446 -0.1281 -0.2127  0.0216
85966W        W28957  21.802  24.876  23.834 -0.0861 -0.1300  0.0974
85967W        W28958   5.434  27.761   8.129  0.0389 -0.0396  0.1697
85968W        W28959  17.058  26.297  17.098  0.1123  0.0351  0.3378
85969W        W28960  25.852  12.124  13.609  0.0971  0.4685  0.0684
85970W        W28961  11.124  11.340   1.101  0.0065  0.0698  0.1480
85971W        W28962  32.961   7.504   7.448 -0.2121  0.3276 -0.1171
85972W        W28963   2.322  20.434   7.425 -0.0240 -0.0149 -0.0600
85973W        W28964   1.542  30.335  21.603 -0.0454  0.0601  0.0465
85974W        W28965  22.232   6.363  13.683  0.1927 -0.2967  0.2212
85975W        W28966  21.687  14.693  18.535  0.1493  0.2818 -0.2157
85976W        W28967  20.346   6.748  25.179  0.0795  0.0638  0.0272
85977W        W28968  24.515   0.040  27.124  0.1321  0.2132 -0.0695
85978W        W28969  20.938  32.121  13.526 -0.4223  0.2772 -0.1119
85979W        W28970  22.985  25.767   5.692 -0.2340 -0.1560 -0.0283
85980W        W28971  31.843  18.265  19.915 -0.0492  0.2439 -0.4530
85981W        W28972  15.354  31.698   7.664  0.2838 -0.3159  0.1838
85982W        W28973  10.872  34.147  15.082  0.0434 -0.0418 -0.0640
85983W        W28974  26.343  30.610   3.265 -0.0609 -0.1483 -0.1144
85984W        W28975   8.276  30.430   0.628  0.1641  0.2904 -0.3854
85985W        W28976   9.361  14.293   7.321  0.1662 -0.0734 -0.3289
85986W        W28977  27.983   2.487   2.697 -0.3272  0.0795  0.0876
85987W        W28978  34.157   7.507  23.894 -0.3343 -0.1814 -0.3755
85988W        W28979   0.641   3.015  24.957 -0.1698  0.0203  0.0829
85989W        W28980  22.729   8.198  28.968 -0.0647 -0.1148  0.4192
85990W        W28981  18.826  25.329  14.629  0.1840 -0.0914 -0.3305
85991W        W28982  18.657  12.582  21.204 -0.1492  0.3598 -0.1872
85992W        W28983  15.927  22.002   6.618  0.3550 -0.1982 -0.2706
85993W        W28984  15.493   6.816   1.883 -0.0094  0.1676 -0.5296
85994W        W28985  23.254  14.774   9.889 -0.1913 -0.0389 -0.1027
85995W        W28986   6.423  13.142  23.687 -0.2560  0.0904 -0.1725
85996W        W28987  12.062  19.007  27.393 -0.1635  0.0930 -0.1313
85997W        W28988  25.805   9.198  28.012 -0.0962 -0.0045 -0.0333
85998W        W28989  32.341   8.405  10.041  0.2092  0.1254  0.1159
85999W        W28990  29.103  24.234  19.528  0.0180  0.1563  0.1024
86000W        W28991  33.587  13.683  25.816 -0.1914 -0.1715 -0.0077
86001W        W28992  23.900  10.977   9.121  0.0397 -0.3360 -0.1608
86002W        W28993  15.210  20.145   8.559 -0.0505  0.0083  0.1802
86003W        W28994  30.173   2.770  20.680 -0.0893  0.2397 -0.2503
86004W        W28995  30.505  34.739   5.797 -0.3955  0.0835  0.1483
86005W        W28996  30.707  13.013  25.862 -0.0714 -0.0552  0.3967
86006W        W28997  13.638   2.828  20.724  0.0140 -0.2996  0.2603
86007W        W28998  17.036  29.606   5.674 -0.1644  0.2499 -0.1682
86008W        W28999  13.074   0.364  24.894 -0.3835 -0.3310  0.0178
86009W        W29000   9.347  33.501   5.440  0.1283 -0.1300  0.0243
86010W        W29001  19.716  23.862  24.237 -0.1231  0.0815  0.1207
86011W        W29002  13.081   8.805  24.296  0.3208 -0.1984  0.0693
86012W        W29003  34.153  11.265  24.525  0.0897 -0.1525 -0.0450
86013W        W29004  15.530  10.570  18.314 -0.0194  0.0058 -0.0213
86014W        W29005  24.214   1.479   0.627  0.0624  0.2783 -0.2351
86015W        W29006   2.897   6.355  17.254 -0.0113  0.0556  0.5580
86016W        W29007  14.712  24.117  10.096 -0.0491  0.1487 -0.2713
86017W        W29008  15.412  26.467  22.897 -0.0542 -0.2132  0.1208
86018W        W29009  13.389  25.236   0.763 -0.2233  0.2578  0.0484
86019W        W29010  10.459  33.280  16.987  0.1708  0.0774  0.1905
86020W        W29011   0.979   4.855  17.417 -0.3550  0.2224  0.0296
86021W        W29012  27.242  25.142  28.892  0.1161 -0.3015 -0.0154
86022W        W29013  10.246  32.627  19.977  0.0540  0.4138 -0.0186
86023W        W29014  24.685  20.761   8.460 -0.1824 -0.0008  0.0568
86024W        W29015   3.127  16.984   9.715  0.2962 -0.0914 -0.1177
86025W        W29016   5.606  29.117  23.388 -0.0615  0.1734 -0.0294
86026W        W29017   7.342  26.774  18.561 -0.0969  0.1391  0.3018
86027W        W29018  30.483  27.758  24.181  0.2974  0.1749 -0.0383
86028W        W29019  25.003   6.684  17.868 -0.0560  0.0585 -0.1878
86029W        W29020   2.165  11.472  26.281 -0.0467 -0.2255 -0.2368
86030W        W29021  10.797  14.750  23.233 -0.0966 -0.0437 -0.0039
86031W        W29022  16.362  18.119  28.077 -0.1745  0.1485 -0.1887
86032W        W29023  22.004  26.941   6.689  0.0247 -0.0269  0.0428
86033W        W29024  18.766   7.779  28.469 -0.0634  0.2347  0.0486
86034W        W29025  18.021   4.216   7.962 -0.1242  0.1267 -0.1926
86035W        W29026  18.553  22.695  17.152 -0.1665  0.0997 -0.0962
86036W        W29027   0.127   7.959  23.376  0.0682 -0.0570 -0.0130
86037W        W29028  21.222  10.833  20.942 -0.0215  0.1773  0.4232
86038W        W29029  13.807   8.925  24.975 -0.2245  0.2370 -0.3563
86039W        W29030  31.327  21.649  28.516 -0.1524  0.0851 -0.0755
86040W        W29031  10.428  11.823   3.117 -0.2121 -0.1800 -0.0096
86041W        W29032  16.036   2.846   3.379 -0.2216  0.1826  0.2841
86042W        W29033  23.303   4.401   4.362  0.0479  0.0736 -0.0744
86043W        W29034  22.938  34.011  20.414 -0.0960 -0.0869 -0.0757
86044W        W29035  32.376  29.704   3.520 -0.0104  0.0229  0.1372
86045W        W29036  30.574  28.259   0.544 -0.0470  0.1051  0.0511
86046W        W29037  27.153  12.511  18.430 -0.0260  0.1797  0.2494
86047W        W29038   9.137   4.804   7.838 -0.0633 -0.2289  0.0099
86048W        W29039   4.681  16.043   0.088 -0.0262 -0.0041 -0.1134
86049W        W29040  25.317  21.071   7.025 -0.0394 -0.1297  0.0934
86050W        W29041  31.232  16.941  19.165 -0.2080 -0.2132  0.0105
86051W        W29042  24.347  10.387   9.854 -0.0167  0.0356  0.0311
86052W        W29043   5.321  12.866  16.005  0.1140 -0.3366 -0.0791
86053W        W29044   9.260  27.978  15.516 -0.1749 -0.2093  0.0669
86054W        W29045  25.757   9.389  26.586  0.1276 -0.3520 -0.0855
86055W        W29046  13.253  22.345  20.763  0.1820 -0.1543 -0.1806
86056W        W29047   7.972   1.927  15.867  0.1489 -0.0988 -0.0306
86057W        W29048  20.672  13.358  15.608 -0.0192  0.0169 -0.2444
86058W        W29049  22.734   0.163  14.449  0.2452  0.0133 -0.0326
86059W        W29050  14.488   3.002   0.377  0.0485  0.1458 -0.3627
86060W        W29051  34.558  10.605  18.010 -0.2524 -0.1313 -0.4765
86061W        W29052  13.870   7.685   6.938 -0.3482 -0.1726 -0.3113
86062W        W29053  11.175   6.454  10.867 -0.3938  0.1532 -0.4630
86063W        W29054   1.729  30.121   4.480  0.1821  0.0351  0.4334
86064W        W29055  34.340  33.105  22.910 -0.0345 -0.2379  0.0744
86065W        W29056  15.369   1.307   4.638  0.0921 -0.1950  0.1352
86066W        W29057  10.406  34.490  23.999  0.2902 -0.0143  0.2908
86067W        W29058  29.277  13.454  19.319 -0.0047  0.0267 -0.4078
86068W        W29059  16.157  27.371   8.988  0.1115 -0.0017 -0.0584
86069W        W29060  15.560   4.164   1.737  0.0134 -0.0359 -0.0914
86070W        W29061   6.272   7.684  24.896 -0.0633 -0.2256 -0.1442
86071W        W29062  15.768  30.433   4.553 -0.2186 -0.0542 -0.0062
86072W        W29063  18.276   9.921   6.343  0.2975  0.2437  0.1094
86073W        W29064  23.418  15.509   7.900 -0.0209  0.0301 -0.0771
86074W        W29065  33.586  33.137  28.293  0.0065  0.4480  0.0411
86075W        W29066  27.502  21.788  25.009  0.2138  0.2183 -0.1026
86076W        W29067  14.154  28.908  10.397 -0.1440  0.3550 -0.3591
86077W        W29068  19.372   4.135  18.352 -0.1129 -0.1168  0.2234
86078W        W29069  10.259   6.292  24.441  0.0904  0.0849 -0.1331
86079W        W29070  23.922  19.030  13.676  0.0877 -0.1039  0.1881
86080W        W29071  31.057   3.913  18.647 -0.2593  0.2524 -0.1557
86081W        W29072  11.500  33.228   6.752 -0.3309  0.1732  0.1110
86082W        W29073   0.728   0.473  27.450 -0.3516 -0.1572 -0.0356
86083W        W29074  19.752  12.421  22.115 -0.1696  0.0788  0.2909
86084W        W29075  31.348   1.374  22.726  0.0313  0.1875  0.3201
86085W        W29076  21.519  24.447   4.983  0.2320 -0.1701  0.1213
86086W        W29077  31.787   1.840  16.600 -0.0186  0.0545  0.0534
86087W        W29078   6.948   7.700   8.640 -0.3734 -0.2662  0.0626
86088W        W29079   2.025  25.213   4.720 -0.2706 -0.2312 -0.2670
86089W        W29080   3.120  15.483  17.187 -0.0578 -0.0667  0.1931
86090W        W29081  27.548  31.966   7.436  0.2782  0.2123  0.2601
86091W        W29082  11.666  10.187  26.458  0.1999 -0.1676 -0.3526
86092W        W29083  16.741   9.779   7.955  0.1967  0.0643  0.0546
86093W        W29084  28.617  12.803  28.114 -0.1140 -0.0152 -0.1856
86094W        W29085  16.678   9.696   9.642  0.1264 -0.0104  0.1793
86095W        W29086   0.562   1.825   9.271 -0.0942 -0.0710 -0.0002
86096W        W29087  15.288   6.855   0.828 -0.0409 -0.3149  0.1439
86097W        W29088  28.037   1.902   3.866  0.0059 -0.1819 -0.1196
86098W        W29089  33.698  14.962  18.121  0.0736 -0.1281 -0.0018
86099W        W29090  11.704   7.960   9.654  0.1240 -0.0822  0.1359
86100W        W29091  16.442   2.545   1.007 -0.1034  0.0599 -0.0271
86101W        W29092  32.112   1.356  23.144 -0.0611 -0.2228  0.2392
86102W        W29093  22.895   7.584   3.346 -0.3101 -0.3588  0.1776
86103W        W29094  16.041   1.652  25.100  0.0739 -0.0988  0.1828
86104W        W29095  15.849  25.018   2.616 -0.1617  0.1237 -0.0233
86105W        W29096  21.392   8.132   0.111  0.0699 -0.1022 -0.2032
86106W        W29097   3.949   7.959   8.483  0.1298 -0.1856 -0.0189
86107W        W29098   9.764  12.774  28.300 -0.1103 -0.1756 -0.2221
86108W        W29099  28.507  28.446   1.055  0.0455  0.0223 -0.1208
86109W        W29100  10.248   5.588  27.845 -0.1122  0.0056  0.1770
86110W        W29101  18.179  15.987   5.329  0.0600 -0.0810  0.1891
86111W        W29102  14.426   5.582   5.523  0.2161 -0.1903 -0.0192
86112W        W29103  18.062  25.575  20.406  0.1342 -0.3287  0.0823
86113W        W29104   2.123   7.228  24.437 -0.0736  0.0352 -0.2476
86114W        W29105  10.531   4.959   9.074 -0.1811 -0.1683 -0.2946
86115W        W29106  20.195   1.639  27.237  0.0692 -0.5114 -0.1324
86116W        W29107  22.055  16.096  19.544  0.0153  0.0940 -0.0034
86117W        W29108   9.390   3.582  26.353  0.0115 -0.0685 -0.0605
86118W        W29109  14.415  14.805  18.464 -0.0314  0.0222 -0.1916
86119W        W29110  22.410   5.547   9.824  0.2705 -0.2241 -0.1188
86120W        W29111  20.025  33.816  29.011 -0.4531  0.6130 -0.1454
86121W        W29112   7.375   9.483   9.034 -0.1128  0.2078 -0.0851
86122W        W29113  29.502   1.098  16.297 -0.0349 -0.3140  0.2558
86123W        W29114  18.446   7.911  21.451 -0.0182 -0.0534  0.0198
86124W        W29115  27.981   9.586  29.202  0.2818 -0.0241 -0.0959
86125W        W29116  18.123  30.241   3.770  0.3014  0.0427  0.0362
86126W        W29117   5.820   5.817  19.950  0.2346 -0.2079 -0.0900
86127W        W29118  19.525   7.161   4.489  0.0371 -0.2011  0.0964
86128W        W29119  31.385   9.136  22.147 -0.2198 -0.0499  0.0864
86129W        W29120   6.718   4.629  25.174 -0.3049 -0.1866  0.0991
86130W        W29121  26.062   1.589   2.952 -0.0178 -0.1766  0.2620
86131W        W29122  25.988   7.125   6.442 -0.0343  0.8067  0.1414
86132W        W29123  21.942  29.609   1.560 -0.2220 -0.2219  0.1167
86133W        W29124   2.131   8.669  24.915 -0.1645 -0.1104 -0.1559
86134W        W29125  18.811   9.701   1.058  0.1461  0.0998 -0.4884
86135W        W29126   9.857   2.876  14.412  0.0028 -0.0735  0.3862
86136W        W29127  28.943  34.279  23.691  0.1600  0.0197 -0.2605
86137W        W29128  28.429  12.225   6.641 -0.1460 -0.1924 -0.1897
86138W        W29129   7.392  34.299  24.604 -0.0411  0.1630 -0.1841
86139W        W29130   6.950   8.725   7.547  0.0959 -0.4991  0.2355
86140W        W29131  33.655  32.749   9.344  0.0726  0.0281  0.1414
86141W        W29132   7.265   1.505  24.990  0.1000 -0.0907 -0.1663
86142W        W29133  27.111  21.992   5.086 -0.2719  0.2733 -0.0232
86143W        W29134  22.193   6.775  27.608  0.0325 -0.0788  0.0914
86144W        W29135  24.431  12.845   9.011 -0.0721  0.1533  0.1607
86145W        W29136  30.107  31.146  14.485 -0.2454  0.3153 -0.0180
86146W        W29137  19.961  11.678  16.890 -0.3114  0.1030  0.0502
86147W        W29138  23.185   5.373  20.556 -0.1129 -0.3825 -0.0039
86148W        W29139  20.738  11.251  14.478 -0.0382 -0.1583  0.1559
86149W        W29140  24.002   6.653  19.347  0.2748 -0.0769 -0.1893
86150W        W29141  19.506   1.820  15.457 -0.0732  0.2358  0.1287
86151W        W29142   4.580   5.312  19.193 -0.0688 -0.2363 -0.1512
86152W        W29143  25.899  14.958  28.464 -0.0994  0.4650 -0.2124
86153W        W29144  29.090  28.059  27.717 -0.1903  0.2282 -0.0258
86154W        W29145  14.864  11.159  14.655 -0.1627 -0.1383  0.0312
86155W        W29146  15.829  21.066  15.882 -0.3577 -0.1415 -0.1449
86156W        W29147  27.033  16.908  15.600 -0.3466 -0.0613  0.1152
86157W        W29148  10.367  11.352  20.344 -0.0929  0.2524 -0.1739
86158W        W29149  13.234   2.792  15.628  0.2553 -0.0947 -0.1553
86159W        W29150  24.404   4.028  23.644  0.0300  0.0517  0.0499
86160W        W29151  21.650  20.202  17.913 -0.0720  0.2343 -0.2123
86161W        W29152  23.892  10.237  27.400  0.1637  0.0237  0.1767
86162W        W29153  22.061  26.009  20.419 -0.2508  0.3272 -0.1577
86163W        W29154  30.030  18.379  19.122 -0.1071 -0.1118  0.1615
86164W        W29155  19.453   3.672  16.723 -0.2855  0.0511  0.2168
86165W        W29156  15.563   2.740  19.883 -0.2190 -0.0900  0.2378
86166W        W29157  14.752  26.615  25.353 -0.2853  0.1492 -0.2982
86167W        W29158  18.287  28.171   7.777 -0.2454  0.3657 -0.1897
86168W        W29159   8.160   7.172  16.821 -0.1332  0.0556 -0.4308
86169W        W29160  10.196  15.282   7.495  0.2729 -0.0809 -0.1087
86170W        W29161  33.781   5.339  17.632  0.0459 -0.0586  0.0484
86171W        W29162  23.663   6.718  20.164 -0.3199 -0.3003  0.2560
86172W        W29163  14.838  12.126  14.747 -0.0797 -0.0570  0.1205
86173W        W29164  24.905  19.336  13.227 -0.1141 -0.3420  0.0804
86174W        W29165  26.425   1.069   7.088  0.0423  0.1595 -0.0102
86175W        W29166  19.457  16.430  28.298 -0.1037 -0.1331  0.1365
86176W        W29167  13.746  32.010  23.472 -0.0056  0.5772  0.0147
86177W        W29168  15.179   4.436  22.165 -0.1351  0.4034 -0.0003
86178W        W29169  24.591  10.442  22.898 -0.0460  0.1290  0.1585
86179W        W29170  21.591   4.889  17.586  0.2076  0.0384  0.4367
86180W        W29171   5.633   5.328  26.531  0.0345  0.0944  0.3424
86181W        W29172  29.950  17.568  20.761 -0.2345  0.1888  0.2084
86182W        W29173  15.841   9.649  21.561  0.0428 -0.1296 -0.0251
86183W        W29174  19.618  34.635  16.351  0.0957 -0.1578 -0.0610
86184W        W29175  30.860  29.721  13.503 -0.0140 -0.3067  0.1024
86185W        W29176  17.934  13.804  14.033  0.0294  0.0436  0.2871
86186W        W29177  23.892  16.649  13.785  0.2054 -0.1660 -0.2073
86187W        W29178  19.498   1.206  24.321 -0.0817 -0.1975  0.1962
86188W        W29179   9.246   8.447  17.739 -0.3709  0.2473 -0.1378
86189W        W29180   3.578   9.102  28.252 -0.0072  0.1814 -0.1995
86190W        W29181   9.819  34.753  21.988 -0.2598  0.0900  0.2361
86191W        W29182  15.116   9.381  19.876 -0.0435  0.1441 -0.2671
86192W        W29183  23.837  33.740  17.963  0.2477  0.2873  0.1909
86193W        W29184  24.603   7.685  23.317 -0.0635 -0.2173 -0.1422
86194W        W29185  26.133   5.229   0.231  0.0641  0.0771  0.0275
86195W        W29186  18.724   7.217  14.292  0.0310 -0.2909 -0.1594
86196W        W29187  27.552   2.825  22.955 -0.2672 -0.1584  0.4219
86197W        W29188  18.621   4.319  28.578  0.2743  0.0703  0.1973
86198W        W29189   1.985  25.728   7.124  0.1543 -0.0524 -0.3602
86199W        W29190   9.244  21.505  24.221  0.1434  0.0277 -0.2835
86200W        W29191   0.154   2.360  16.966 -0.0804 -0.1019  0.1607
86201W        W29192  34.286   8.215  28.816  0.1800  0.0939 -0.0708
86202W        W29193  19.888  10.309  22.313 -0.0364  0.0066  0.4877
86203W        W29194  17.430  29.039  24.302  0.1238  0.0581 -0.0897
86204W        W29195  24.877   8.675  16.227  0.2536 -0.1157  0.0529
86205W        W29196  13.787  34.578  19.768  0.2626 -0.0597  0.0253
86206W        W29197  11.524  13.961  17.406 -0.0377  0.1758 -0.1994
86207W        W29198  33.166   3.234  27.319 -0.1489 -0.1133  0.2317
86208W        W29199  17.123   9.593  27.654 -0.0660 -0.2849 -0.0193
86209W        W29200   3.877   1.097   2.370  0.2551  0.0575  0.0290
86210W        W29201  24.111  10.959  23.941 -0.0788 -0.1267 -0.0197
86211W        W29202  32.763  32.980  20.259  0.0315 -0.0527 -0.0170
86212W        W29203   7.215  13.997  16.722  0.1393 -0.1628 -0.1802
86213W        W29204  20.484   6.045  24.377 -0.0151  0.1628  0.0930
86214W        W29205  14.624  16.501   5.827 -0.2808 -0.2341 -0.1275
86215W        W29206  33.711  12.785  18.959 -0.2263 -0.0296 -0.0835
86216W        W29207  30.397   6.479  20.164 -0.5178 -0.2147 -0.0639
86217W        W29208  28.229  30.722  15.339  0.1584  0.1017 -0.0482
86218W        W29209  22.388  13.685  13.097  0.0877 -0.2093 -0.1458
86219W        W29210  29.811  20.839  25.251 -0.1299 -0.2901 -0.2718
86220W        W29211   2.708  19.524  22.192 -0.0854 -0.5316  0.0255
86221W        W29212  29.833  20.451  19.665  0.1553 -0.1837  0.1399
86222W        W29213  24.190   7.468  16.600  0.0038 -0.3171 -0.1118
86223W        W29214  18.210   9.575  24.924  0.0942 -0.0634  0.2071
86224W        W29215  20.981  22.247  23.710  0.1954  0.0271  0.1008
86225W        W29216   7.742   8.470  22.262  0.0068 -0.0577 -0.0584
86226W        W29217  34.127   5.808  18.879 -0.1493  0.1834 -0.0612
86227W        W29218  24.474   6.872  15.703  0.0473 -0.1102 -0.0282
86228W        W29219  26.082  11.795  17.553 -0.0258  0.0338  0.0098
86229W        W29220  21.968   2.589  24.006  0.1141  0.0116  0.1188
86230W        W29221  14.846   5.824  19.092  0.1007 -0.3519 -0.0092
86231W        W29222  27.200  34.007  16.135 -0.1866 -0.1063  0.3099
86232W        W29223  31.273  27.576  18.857  0.2363  0.2470 -0.3086
86233W        W29224   9.887  11.447  21.039  0.0826 -0.0120  0.2872
86234W        W29225  28.231  10.951  14.572  0.0795  0.0204 -0.1990
86235W        W29226  19.069  13.304  18.783  0.0517  0.2631  0.0271
86236W        W29227  29.106  18.060  15.339  0.2317 -0.0825  0.1107
86237W        W29228  11.339   6.914  26.781  0.1105  0.1859  0.3397
86238W        W29229  14.325   1.042   6.832 -0.1896 -0.1378  0.0493
86239W        W29230  25.615  11.958  15.259  0.0312 -0.2375 -0.0900
86240W        W29231  24.944   7.411  29.181  0.0526 -0.0222 -0.0941
86241W        W29232  21.258   2.008  21.375 -0.2217 -0.0766 -0.2401
86242W        W29233  29.713  19.627  23.047 -0.2456 -0.0159  0.0580
86243W        W29234   3.984   9.875  28.420  0.0517 -0.0236 -0.1916
86244W        W29235  14.890  26.516  18.569 -0.0094 -0.1842  0.0869
86245W        W29236   7.387  33.521  17.251  0.5174 -0.0417 -0.3538
86246W        W29237  21.973  14.220  24.790  0.3841 -0.1243  0.3239
86247W        W29238  22.914   9.216  20.916 -0.0572 -0.0374 -0.0122
86248W        W29239  17.050  12.891  21.625 -0.1667 -0.0866 -0.1652
86249W        W29240  19.290  23.926  15.244  0.0455  0.2320 -0.1428
86250W        W29241   7.918  13.844  27.536  0.2725  0.0762  0.0275
86251W        W29242  12.828  16.105  20.573  0.1952 -0.1311  0.0659
86252W        W29243   8.549  22.486  17.827  0.0675  0.0277 -0.1213
86253W        W29244  31.869  13.040  22.846  0.1544  0.1094 -0.0222
86254W        W29245   7.181   2.616  19.946 -0.0518 -0.1220 -0.2653
86255W        W29246  28.128  26.559  16.135  0.1466 -0.0384 -0.1601
86256W        W29247  17.483  28.007  21.375 -0.1327 -0.1767  0.2423
86257W        W29248  12.481  12.909  16.263  0.2965 -0.4112  0.0944
86258W        W29249  33.258   5.215  23.634  0.2209 -0.0254  0.0312
86259W        W29250  26.618  12.277  22.904 -0.0361  0.0593  0.1389
86260W        W29251  33.207  32.020  24.510  0.0745  0.0245  0.2982
86261W        W29252  22.469   7.937  16.857  0.0768  0.1596 -0.2849
86262W        W29253  23.334  12.313  23.481  0.0136  0.1150  0.2391
86263W        W29254  12.692   2.084   0.431  0.0784 -0.0382  0.1603
86264W        W29255  17.829  10.540  14.725  0.0337  0.1555  0.2198
86265W        W29256  25.737  30.539  15.586  0.0507 -0.1508 -0.2686
86266W        W29257  26.992   9.141  27.699  0.1628  0.3376  0.0420
86267W        W29258  23.094  10.549  27.756  0.0782 -0.1321  0.1472
86268W        W29259   1.746  15.107  20.726  0.0044 -0.0393  0.1713
86269W        W29260  23.418  20.793  17.441  0.3033  0.3011 -0.0665
86270W        W29261  19.311   0.662  21.670 -0.1033 -0.0192  0.0478
86271W        W29262  14.419   0.436  21.912 -0.1954  0.1016 -0.0514
86272W        W29263  26.173   9.054  23.253 -0.2665  0.1348  0.1263
86273W        W29264   6.111   1.701  17.899 -0.1127  0.1479 -0.1268
86274W        W29265  22.420   4.047  24.876 -0.1540 -0.1297 -0.1818
86275W        W29266  16.923  30.351  15.966 -0.1274  0.1839  0.1200
86276W        W29267  11.756  24.979  15.089  0.1609 -0.2184  0.0471
86277W        W29268  32.394   3.144  14.791  0.1027  0.0189  0.0925
86278W        W29269  28.824  12.681  20.448  0.1719 -0.1023 -0.2332
86279W        W29270  33.034  27.973  21.973 -0.2272  0.2641  0.2418
86280W        W29271   1.578  10.039  18.426 -0.0133 -0.0376  0.0192
86281W        W29272  30.273  22.860  19.424 -0.2831 -0.3667 -0.3362
86282W        W29273  12.907  12.960  18.861 -0.1944  0.2646 -0.3931
86283W        W29274  20.151  11.229  14.507 -0.2526 -0.0438 -0.2576
86284W        W29275  24.177  20.667  20.224 -0.1043  0.1549 -0.0619
86285W        W29276  21.843  34.576  22.992  0.2440  0.1493 -0.3129
86286W        W29277  20.557  14.413  13.146 -0.0453 -0.0899  0.4275
86287W        W29278  18.695   4.206  19.520  0.3054  0.1524 -0.1920
86288W        W29279  26.707  34.459  19.575  0.3758  0.0243  0.1754
86289W        W29280  33.197  13.533  18.166 -0.0323 -0.3482  0.0067
86290W        W29281  34.536   1.044  18.838 -0.1183  0.1341 -0.3466
86291W        W29282  24.191   2.494  15.177 -0.0389 -0.1957 -0.1097
86292W        W29283   0.710   1.738  20.837 -0.0285 -0.1020  0.2644
86293W        W29284  17.104   1.347  24.371 -0.1243 -0.0102  0.0853
86294W        W29285   9.361  14.895  27.716  0.0516  0.0760 -0.1285
86295W        W29286  10.553  13.092  18.562 -0.1594  0.0415 -0.0685
86296W        W29287  30.177  27.806  17.634  0.0913 -0.0706 -0.0538
86297W        W29288  31.736  27.630  23.289 -0.1358 -0.2751 -0.3156
86298W        W29289  22.039  15.489  16.870  0.0771  0.1113 -0.0714
86299W        W29290  24.929   2.116  13.796 -0.0939 -0.3291 -0.0710
86300W        W29291  31.231  17.157  21.462 -0.0747  0.2208  0.0567
86301W        W29292  10.066  10.704  19.824  0.1482 -0.0205  0.0758
86302W        W29293  22.516   6.580  16.219 -0.0613  0.1956 -0.0974
86303W        W29294  24.516  22.746  27.889 -0.1343 -0.0378 -0.0807
86304W        W29295  28.536  15.234  23.298 -0.1334  0.0153  0.0245
86305W        W29296   2.488   5.559  27.185  0.1263 -0.1801 -0.0124
86306W        W29297  18.150  28.682  25.512  0.2472 -0.0666  0.0962
86307W        W29298  32.438   9.622  27.799  0.0857 -0.4288 -0.3876
86308W        W29299  29.234  25.128  13.253  0.1255 -0.0247 -0.1384
86309W        W29300  10.670  19.926  19.069  0.0216 -0.2436  0.2746
86310W        W29301   4.087  33.488  28.615  0.1962  0.2334  0.0339
86311W        W29302   6.131   8.510  17.308 -0.2642  0.1219  0.0635
86312W        W29303  26.079  10.706  13.360 -0.2852  0.1785 -0.2016
86313W        W29304  16.781  13.770  16.006  0.0012  0.0265  0.0180
86314W        W29305   1.408  17.151  28.677  0.3495 -0.1621 -0.1045
86315W        W29306  19.098  26.288  19.219 -0.4355 -0.2154 -0.0948
86316W        W29307   6.987   8.215  25.330 -0.0262 -0.1228  0.4143
86317W        W29308  13.334  25.011  21.064 -0.0694  0.2374  0.0357
86318W        W29309  17.480  27.136  14.641 -0.0631  0.3171 -0.1081
86319W        W29310  14.538   2.100  25.508 -0.0464  0.1049 -0.1785
86320W        W29311  12.782   5.923  15.306 -0.1376 -0.1768  0.0772
86321W        W29312  18.142  31.580  26.898 -0.4282 -0.4086 -0.2267
86322W        W29313  20.355  28.707  29.225  0.0622  0.0410  0.0862
86323W        W29314  26.530   9.546  14.138  0.0164  0.0637  0.0453
86324W        W29315  29.388   5.455  23.378 -0.1024  0.3862  0.0094
86325W        W29316  25.720  23.602  15.393  0.1039  0.0008 -0.0336
86326W        W29317  21.090   6.964  20.045  0.0531 -0.2158  0.1314
86327W        W29318  26.301  34.053  19.773 -0.2749  0.2966 -0.0155
86328W        W29319  32.653   3.877   0.223 -0.3898 -0.0420  0.0949
86329W        W29320   5.455  19.991  16.183  0.1299  0.0379 -0.1935
86330W        W29321  24.550  13.681  22.161 -0.1956 -0.0650 -0.1117
86331W        W29322  17.174  33.047  24.650 -0.0406  0.0587  0.1157
86332W        W29323  30.923   9.644  14.450 -0.1429  0.2431 -0.1392
86333W        W29324  24.589  11.306  19.738  0.2114 -0.1878  0.1387
86334W        W29325   2.386   3.509  18.062  0.0362 -0.0367  0.0389
86335W        W29326  16.668   1.020  21.361 -0.4622  0.4037 -0.0160
86336W        W29327  11.575   8.444  23.357 -0.0883  0.2398  0.0090
86337W        W29328  10.315  16.224   4.838  0.1252  0.1879  0.3266
86338W        W29329  12.523   9.998  19.911 -0.0741  0.1519 -0.2809
86339W        W29330  18.825  28.340  15.657 -0.1280  0.2543  0.1547
86340W        W29331  19.148  13.682  27.804  0.0206 -0.1056  0.2173
86341W        W29332   6.370  24.758  16.443 -0.2448  0.2723 -0.1960
86342W        W29333  25.825   3.748  24.467 -0.1062  0.2079  0.0975
86343W        W29334  27.819  22.680  18.679 -0.1110  0.1006  0.3185
86344W        W29335  23.383  11.494  18.885  0.3076  0.1702 -0.0124
86345W        W29336  19.214  27.829   8.168  0.0001  0.1127 -0.2650
86346W        W29337   7.699   8.010  21.483  0.1013  0.2879 -0.1714
86347W        W29338  13.095   7.649  16.658  0.0399  0.2312  0.0739
86348W        W29339  31.804   1.219  17.860  0.1423 -0.0604  0.0398
86349W        W29340  33.167   0.068  23.573 -0.2275  0.1825 -0.1741
86350W        W29341  14.247  13.079  23.525  0.1022  0.2524 -0.0232
86351W        W29342  19.213  33.351  27.133 -0.2300  0.0131  0.0330
86352W        W29343  27.008   5.442  19.820 -0.1229  0.0238 -0.1121
86353W        W29344  15.162  12.968  14.561  0.1134  0.1106 -0.1020
86354W        W29345  19.233   8.810  18.921 -0.3124  0.2709 -0.0110
86355W        W29346  27.555  12.176  25.583  0.0356  0.1071 -0.1161
86356W        W29347  31.879  19.461  22.179  0.0543  0.2075 -0.0601
86357W        W29348  17.041  21.093  22.414 -0.0786 -0.0575  0.2906
86358W        W29349   7.843  21.594  20.298  0.0632  0.1260 -0.0454
86359W        W29350  22.661  17.863  13.768  0.3677  0.0912 -0.1710
86360W        W29351  21.565   4.072  16.843  0.2994  0.2746  0.3267
86361W        W29352  14.570   5.317  26.441  0.2598 -0.0941 -0.1593
86362W        W29353  27.868   5.720  16.675 -0.0110 -0.3409 -0.1940
86363W        W29354  12.168   6.021  21.599 -0.2699 -0.0335 -0.1408
86364W        W29355   7.684  29.181  13.952 -0.0072  0.4088 -0.1268
86365W        W29356  14.225   0.203  22.378  0.0772  0.1924 -0.0854
86366W        W29357   0.579  20.153  23.005 -0.0982 -0.0915 -0.2873
86367W        W29358  22.087  16.117  23.732 -0.3916 -0.0375  0.1675
86368W        W29359  10.922   9.368  26.219 -0.2574 -0.1984 -0.0828
86369W        W29360  25.694  16.536   6.559 -0.0301  0.0735  0.0933
86370W        W29361  22.624   6.100  13.480  0.3243  0.0452  0.3328
86371W        W29362  14.872  14.638  23.096 -0.0129 -0.0084  0.0690
86372W        W29363  29.651   1.775   2.451 -0.1355 -0.0607 -0.0908
86373W        W29364   0.751   8.115  18.669  0.0900  0.0914 -0.1956
86374W        W29365  22.398   3.419  15.436 -0.2369 -0.3049  0.4254
86375W        W29366  21.485  27.363  16.128  0.0737  0.0130 -0.3839
86376W        W29367  17.897  11.000  15.686 -0.2788 -0.1610  0.0203
86377W        W29368  18.307  30.425  15.487 -0.0238 -0.0496  0.0686
86378W        W29369  20.028   9.049  25.056  0.0661 -0.3558 -0.3767
86379W        W29370  20.196   3.487  16.372 -0.0463 -0.1789  0.1802
86380W        W29371  18.541  10.187  15.112 -0.0685 -0.1071  0.0357
86381W        W29372  31.315   6.488  19.725  0.0816  0.0112 -0.0953
86382W        W29373  24.812  20.949  15.555  0.1809 -0.2192 -0.4885
86383W        W29374  18.235  10.929  26.403 -0.0845  0.1016 -0.0235
86384W        W29375   5.096  12.215  15.706  0.1797 -0.0641  0.2536
86385W        W29376  19.203  16.769  14.567 -0.1418  0.2638  0.0408
86386W        W29377  24.127  18.786  16.704  0.0190  0.1120  0.2233
86387W        W29378  29.466  12.427  16.156 -0.2014 -0.1942  0.1298
86388W        W29379   9.168  15.977   4.482 -0.0709  0.2168  0.2682
86389W        W29380  30.029  30.404   1.194 -0.1162 -0.1572  0.1109
86390W        W29381  22.036  12.460  14.813 -0.1348  0.0420  0.1415
86391W        W29382  34.346  22.601  13.814 -0.1201  0.2367  0.0693
86392W        W29383  24.938  19.877   5.836 -0.1978  0.0829  0.1158
86393W        W29384  12.168  14.247  18.799 -0.0113  0.0438 -0.0368
86394W        W29385  13.782   9.930  24.548 -0.2836  0.1990 -0.0971
86395W        W29386  23.151  15.837  25.676 -0.1755 -0.2349 -0.2268
86396W        W29387  16.769  12.377   0.784 -0.1022  0.3952  0.1794
86397W        W29388  29.832   5.914  20.999 -0.0340  0.3474 -0.1347
86398W        W29389   6.097   6.564  15.404 -0.0831 -0.0896  0.0639
86399W        W29390  16.014  12.715  16.383 -0.0383 -0.1484 -0.0825
86400W        W29391  20.926  34.547   0.253  0.1175  0.3894 -0.1185
86401W        W29392  14.757  15.548  15.157 -0.0106 -0.1513  0.2891
86402W        W29393  26.848   7.871  18.756 -0.0272  0.0229 -0.2663
86403W        W29394  20.898   4.115   8.395 -0.4181 -0.0585 -0.0058
86404W        W29395  18.268  13.291  12.523  0.1210  0.0311  0.1141
86405W        W29396   4.216  22.580  18.029 -0.2472 -0.3505 -0.2351
86406W        W29397  29.631   7.271  27.707 -0.3475  0.1622  0.2875
86407W        W29398  20.392  13.171  19.097 -0.3282 -0.0100  0.0117
86408W        W29399  27.282  21.271  24.205 -0.1187 -0.3535 -0.2269
86409W        W29400  33.187  17.908  22.496  0.2136  0.1730 -0.3703
86410W        W29401  27.329  17.573  26.784  0.0818  0.3877  0.0783
86411W        W29402  12.009  25.681  16.721 -0.2699  0.0824  0.0587
86412W        W29403  28.072   8.601   6.826  0.0805 -0.0261 -0.4121
86413W        W29404  21.409  10.277  15.456  0.1189  0.0678  0.0006
86414W        W29405  19.275  13.314  19.562  0.0863  0.1258 -0.2472
86415W        W29406  27.873   5.077  16.765 -0.2293  0.2753  0.1431
86416W        W29407  20.999   6.220  16.403  0.2000 -0.2876 -0.3050
86417W        W29408  19.551   8.432  28.601  0.2388  0.0638  0.1773
86418W        W29409  27.411  21.722  22.977 -0.2872  0.0215 -0.3559
86419W        W29410  26.775  18.402  17.501 -0.0102  0.1767 -0.0556
86420W        W29411  13.061  22.655  16.664  0.3175 -0.3565 -0.2376
86421W        W29412  21.552  15.712  18.811 -0.0554  0.0125 -0.0038
86422W        W29413  14.842  26.073  14.041  0.2730 -0.2154  0.2393
86423W        W29414  20.355   9.610   4.585 -0.1863 -0.2710 -0.0919
86424W        W29415   4.761   0.911   7.930  0.1020 -0.0911  0.2369
86425W        W29416  21.787  32.433  13.295  0.0985 -0.0787 -0.1527
86426W        W29417  14.515  30.324  18.782 -0.0960 -0.2375 -0.2371
86427W        W29418  23.728   8.979  18.928 -0.1040  0.2729 -0.0854
86428W        W29419  15.159  18.843  16.102 -0.4218  0.2402 -0.0660
86429W        W29420   5.953  11.158  25.146 -0.2382  0.0656 -0.1304
86430W        W29421  19.001   9.074  28.179 -0.3645  0.0933 -0.0588
86431W        W29422  17.565  34.580  17.316 -0.0932 -0.0743  0.2172
86432W        W29423  11.655   8.435  19.484 -0.1766  0.2732  0.0461
86433W        W29424  24.819   6.220   4.918 -0.4643  0.0025  0.0032
86434W        W29425  19.502   3.823  13.283 -0.0507 -0.1645  0.2568
86435W        W29426  23.625  12.723  15.165 -0.4318 -0.3602 -0.2450
86436W        W29427  25.831  16.607  25.940 -0.0393  0.2664  0.1173
86437W        W29428  22.580   5.970  19.330  0.0145  0.2030 -0.3367
86438W        W29429   6.157  10.550  19.093 -0.2112 -0.0128  0.2277
86439W        W29430  10.590  17.259  20.331 -0.0902 -0.1093 -0.1171
86440W        W29431   1.913   5.175  24.215  0.0246 -0.0256 -0.2025
86441W        W29432  11.833  11.583  18.352 -0.3518 -0.3829  0.2321
86442W        W29433   5.776   9.071  20.962  0.3906  0.1522 -0.4490
86443W        W29434  23.729   5.191  21.187  0.2788 -0.1177  0.0292
86444W        W29435  18.898   0.085  19.654 -0.0342 -0.1262  0.0630
86445W        W29436  16.181  14.365  26.764 -0.1507  0.2154  0.0067
86446W        W29437  26.900  27.022  19.200  0.2326 -0.4581 -0.2530
86447W        W29438   6.872   7.978  16.810  0.2924  0.3726  0.2855
86448W        W29439  31.901   5.260  18.061 -0.1871 -0.0247 -0.0117
86449W        W29440   8.679   6.945  21.823  0.0351 -0.1347  0.3343
86450W        W29441   7.422  34.017  16.610  0.0904  0.1472  0.0878
86451W        W29442  23.467   2.017  25.977 -0.1996  0.1161 -0.1866
86452W        W29443   6.155  10.635  28.769 -0.0057 -0.0790  0.0196
86453W        W29444  31.181  16.069  17.928 -0.2799  0.5688 -0.0369
86454W        W29445  15.966  13.993  19.965  0.0304  0.1802 -0.1653
86455W        W29446  30.775  13.721  15.517  0.0266 -0.3508 -0.0823
86456W        W29447  21.713  14.296  14.673  0.2626  0.0235 -0.1516
86457W        W29448  17.800  14.416  27.632  0.0484 -0.0829 -0.3509
86458W        W29449  24.458  31.932   6.902  0.2459  0.0505 -0.1295
86459W        W29450   9.326  25.811  17.727 -0.1573 -0.1406  0.1497
86460W        W29451   1.340  17.309  20.295  0.0144  0.2230  0.1079
86461W        W29452  27.407  11.339  21.722 -0.0164  0.4015 -0.3455
86462W        W29453  28.187  33.291  24.484  0.3515  0.1227 -0.2075
86463W        W29454  26.450  30.636  16.825 -0.1551 -0.1430  0.0590
86464W        W29455  19.954  22.498  14.302 -0.1319  0.2092 -0.1308
86465W        W29456  28.941  27.707  16.811 -0.0667  0.2631 -0.4647
86466W        W29457   2.390  20.630  26.050  0.2039 -0.0403  0.1224
86467W        W29458  26.477  25.832  20.678 -0.1127 -0.2537  0.1008
86468W        W29459   1.657  19.692  16.939 -0.4896 -0.2138 -0.0586
86469W        W29460  27.341  26.598  25.062 -0.3260  0.5290  0.0183
86470W        W29461   1.227  12.044  21.828 -0.3019 -0.2440 -0.0798
86471W        W29462  28.852  15.053  18.170  0.0471 -0.3471 -0.3218
86472W        W29463  22.160  22.456  16.161 -0.0760  0.1567  0.1987
86473W        W29464  10.137   1.543  25.219 -0.2180 -0.3652 -0.2486
86474W        W29465  27.922   7.665   0.287 -0.2187  0.0429 -0.1119
86475W        W29466  34.214   4.592  23.197  0.2636 -0.2333  0.0803
86476W        W29467  15.011   8.772  22.340 -0.0469 -0.4106 -0.2257
86477W        W29468  27.163  21.281  14.348  0.1364  0.1048  0.5806
86478W        W29469  20.037  29.676  28.839  0.0837 -0.2357 -0.1907
86479W        W29470  15.094  17.648  16.244 -0.0335 -0.1564  0.2338
86480W        W29471  25.111   8.412  19.107  0.0488  0.1634  0.0030
86481W        W29472  23.969   5.257  14.069 -0.4362  0.1194  0.0254
86482W        W29473  12.940   8.365  25.992 -0.2991  0.2087  0.0212
86483W        W29474  14.426   6.568   0.818  0.2395 -0.0074 -0.1956
86484W        W29475   8.442   6.122  20.311 -0.2285  0.3453  0.0405
86485W        W29476  12.390  34.137  22.722 -0.1563 -0.1897  0.0491
86486W        W29477  31.735  30.083  27.706  0.0627 -0.2220  0.3056
86487W        W29478  11.471   6.516  20.859 -0.0535  0.0042  0.1648
86488W        W29479  31.034  14.452  21.573 -0.2259  0.3158 -0.2279
86489W        W29480  18.480   5.821  25.272 -0.1192  0.1684 -0.3127
86490W        W29481   9.681   0.109  23.953  0.1007  0.0939  0.0663
86491W        W29482  31.156  34.746  24.312  0.1171 -0.0809  0.2278
86492W        W29483  27.925   3.594  14.640 -0.0346  0.0061  0.0275
86493W        W29484  14.724  23.412   3.429  0.1119 -0.2837 -0.0971
86494W        W29485   1.653  32.122  16.378 -0.4403 -0.0319 -0.2193
86495W        W29486  19.939   1.066  15.928 -0.1410  0.2096 -0.2684
86496W        W29487  27.411  24.868   0.154 -0.1965  0.4025  0.3920
86497W        W29488  26.452  14.270  14.690  0.1688 -0.0047 -0.1073
86498W        W29489  23.208   6.331  21.718  0.1140  0.0371  0.0582
86499W        W29490  11.068   6.286   2.374 -0.1316 -0.0016 -0.0396
86500W        W29491   9.211  13.022  24.594  0.2470 -0.1005  0.2258
86501W        W29492   0.248  17.490  16.467  0.2785  0.0819  0.0266
86502W        W29493  16.359  11.242  14.158  0.1343 -0.0148  0.0825
86503W        W29494  34.652   8.735  18.372  0.0617 -0.0697  0.1360
86504W        W29495  21.056   7.927  16.145  0.0894 -0.1613 -0.2423
86505W        W29496   2.827   6.130  28.961  0.1422  0.1475  0.3392
86506W        W29497   8.447  31.453  27.323  0.0039  0.1639 -0.0387
86507W        W29498  25.551  19.756  14.450 -0.1881  0.2003  0.4380
86508W        W29499  11.662  27.920  24.294  0.0712  0.1241  0.2706
86509W        W29500  17.744   9.201  16.962  0.0864 -0.4443  0.0904
86510W        W29501  22.094  15.305  15.231  0.3293  0.1601  0.3084
86511W        W29502  24.778  18.186  23.195 -0.1927 -0.0522 -0.0790
86512W        W29503   2.258   8.114  20.777  0.0523 -0.0846  0.0789
86513W        W29504  14.878   2.074   6.183  0.0857  0.0828  0.2514
86514W        W29505  12.787  12.034  15.798 -0.1466 -0.2382  0.1808
86515W        W29506  24.707  12.570  23.052  0.2811  0.0779  0.1959
86516W        W29507  14.284  34.321  18.839  0.3937 -0.2832 -0.1789
86517W        W29508  16.725  28.409  21.644 -0.0159 -0.1050  0.0446
86518W        W29509  34.784  14.675  20.137  0.0470  0.2120  0.0462
86519W        W29510  32.447   7.004  19.979  0.0727 -0.1936  0.0385
86520W        W29511  30.225   2.534  21.229  0.2679 -0.0156  0.3542
86521W        W29512  23.732  18.700  14.161 -0.2455 -0.1974  0.0958
86522W        W29513  18.086  11.215  18.488  0.1670 -0.0514 -0.1984
86523W        W29514  21.594   3.062  20.477  0.2439 -0.1749  0.0468
86524W        W29515  18.024  16.687  15.047 -0.1087 -0.2369  0.1403
86525W        W29516  31.605  12.464  27.405 -0.1204 -0.2944  0.1727
86526W        W29517  20.142  28.873  24.822 -0.0565 -0.0099 -0.0372
86527W        W29518  28.040   5.897  21.623 -0.0234 -0.0704 -0.0530
86528W        W29519  17.789  24.208  16.155 -0.0776 -0.2642 -0.2146
86529W        W29520  20.827  28.691  21.335  0.0397 -0.0066  0.1527
86530W        W29521   4.918   5.459  15.216  0.1549  0.0229 -0.1424
86531W        W29522   7.197  33.755   7.471 -0.2021  0.2268  0.1297
86532W        W29523  13.686  31.088  15.147 -0.5479  0.0804  0.3053
86533W        W29524  23.406  19.070  21.011 -0.1822 -0.2021  0.1979
86534W        W29525  17.422  34.642  25.753 -0.1865  0.1539  0.1513
86535W        W29526  31.159  16.581  20.495 -0.0068  0.1414  0.1368
86536W        W29527  17.917   3.589   4.028 -0.0300  0.2169 -0.0158
86537W        W29528  25.925  19.247  17.291 -0.0616  0.1151  0.1208
86538W        W29529  22.972   8.049  28.013 -0.0422  0.2920 -0.1465
86539W        W29530  22.608  11.020  18.758 -0.0822  0.0008  0.0300
86540W        W29531  23.636  19.137  23.161  0.1131  0.0084  0.0138
86541W        W29532  19.972  25.363  13.361  0.2517 -0.0984  0.0782
86542W        W29533  30.749   4.557  15.285 -0.1107  0.3026  0.1563
86543W        W29534  27.290  21.885  24.558 -0.1015 -0.0814 -0.0638
86544W        W29535  21.559  19.667  14.866  0.2610  0.4631  0.1450
86545W        W29536   7.789  26.834  28.520 -0.1800  0.1195 -0.0149
86546W        W29537  23.378  27.083  15.275 -0.1961 -0.1297 -0.0938
86547W        W29538  33.639  30.119  27.312  0.0260 -0.1490  0.1307
86548W        W29539   9.710  31.886   7.450 -0.5515  0.1298 -0.3516
86549W        W29540  18.261   7.533  14.354  0.1418 -0.1805 -0.2567
86550W        W29541  11.655  18.481  21.044 -0.1037  0.1850  0.0145
86551W        W29542  30.155  16.956  18.132  0.2689  0.1614 -0.3935
86552W        W29543  19.303  28.139  17.012 -0.1305 -0.1146  0.3395
86553W        W29544  17.327   2.897  16.257 -0.0510 -0.3256  0.0615
86554W        W29545  30.595  16.632  17.827 -0.1649  0.2189 -0.0919
86555W        W29546  19.720   1.712  17.882  0.0173 -0.0910  0.0969
86556W        W29547  12.449  13.536  22.078  0.2338 -0.1688  0.3094
86557W        W29548   7.028   1.285  15.544  0.1097 -0.3317 -0.0630
86558W        W29549  13.350   3.591  25.117  0.0397 -0.0192  0.0308
86559W        W29550   1.541   8.339  25.385 -0.0459 -0.0707 -0.2500
86560W        W29551  25.226  14.952  19.988 -0.0377 -0.0059  0.1097
86561W        W29552  32.351  24.327  17.793  0.3065  0.2881  0.0240
86562W        W29553  33.328  10.051  16.427  0.0240  0.1298 -0.0175
86563W        W29554  28.264  20.541  23.121 -0.0938  0.0028 -0.1290
86564W        W29555  20.765  13.362  14.147  0.0030 -0.1950  0.0133
86565W        W29556  25.820   1.628  17.057 -0.2694 -0.0600  0.4006
86566W        W29557  25.607   2.825  26.539  0.1186 -0.3371  0.0153
86567W        W29558  17.577   5.338  24.492  0.1727 -0.1421  0.0672
86568W        W29559  24.451  14.020  20.414  0.1558  0.1991  0.1863
86569W        W29560  27.817   8.626  21.558 -0.0037 -0.2126 -0.2182
86570W        W29561  34.213  26.008  15.201 -0.0334  0.0641  0.1844
86571W        W29562  27.039  16.814  24.543 -0.0393 -0.2886 -0.1301
86572W        W29563  13.575   6.565  20.382  0.0481  0.1619  0.1002
86573W        W29564   8.328  18.419  16.058 -0.2333  0.0810  0.1983
86574W        W29565  33.747  33.733  26.014  0.0474 -0.0154  0.0040
86575W        W29566  11.301   1.671   1.316  0.0357 -0.0278  0.1469
86576W        W29567  26.036   7.975  17.053 -0.2529 -0.4660  0.0458
86577W        W29568  11.039  11.607  17.203  0.0781 -0.1592 -0.1309
86578W        W29569  28.563  17.594  15.415  0.0262 -0.0918  0.0330
86579W        W29570  22.121  17.638   4.146  0.0792  0.2000 -0.0864
86580W        W29571  19.675  30.577  20.164 -0.1661  0.1812  0.1568
86581W        W29572  22.320  14.017  15.210  0.0821  0.0637 -0.0478
86582W        W29573  19.748  12.059  21.711  0.1158  0.1076 -0.1848
86583W        W29574  21.908  20.646  17.414  0.4161 -0.0834  0.0629
86584W        W29575  28.877   6.634  14.918  0.0399 -0.0041  0.2952
86585W        W29576  15.240   4.087  19.139  0.3834 -0.2014 -0.2939
86586W        W29577  23.181  16.636  20.965  0.3510 -0.3004  0.0988
86587W        W29578   5.607  13.870   0.403  0.0249  0.2754 -0.0779
86588W        W29579  11.776  23.343   9.471  0.0726  0.1260 -0.2628
86589W        W29580  22.999   5.441  14.928  0.0373 -0.0490 -0.0184
86590W        W29581  28.697  12.873  22.801  0.0567 -0.1354  0.1096
86591W        W29582  20.529  17.663  25.089  0.0626  0.0833  0.0546
86592W        W29583  16.599   2.198  26.063  0.1313  0.0348  0.0158
86593W        W29584  34.444   8.972   2.309  0.0435  0.2833 -0.2076
86594W        W29585  19.428   8.780  24.929  0.1079 -0.2148  0.3242
86595W        W29586  18.507  33.374  20.965  0.1727  0.1750 -0.2772
86596W        W29587   4.609  30.368  24.172  0.1302 -0.0038  0.1152
86597W        W29588   6.491   0.560  18.812 -0.0055 -0.0040  0.2522
86598W        W29589   4.280  28.132  27.709  0.2696  0.0107 -0.0958
86599W        W29590  24.319  14.451  14.038 -0.2615  0.1520 -0.0664
86600W        W29591   9.588   5.306  16.124  0.1073  0.1718 -0.0709
86601W        W29592  20.268  11.220  29.042 -0.2383  0.1325  0.1138
86602W        W29593  29.899  31.072  25.762  0.2383  0.0125  0.2425
86603W        W29594  34.437   9.635  10.935  0.1317  0.0674  0.3117
86604W        W29595  20.161  10.664  25.015 -0.0120  0.0175 -0.0317
86605W        W29596  26.912  14.185  25.737 -0.0097  0.0994 -0.1227
86606W        W29597   2.338   2.127   3.177  0.1133 -0.0564  0.0294
86607W        W29598   1.236   1.602  17.262 -0.0299 -0.1231  0.1449
86608W        W29599  32.504  18.466  22.129 -0.1542  0.1196  0.0655
86609W        W29600  24.755   2.291  14.287 -0.1329  0.0109  0.0073
86610W        W29601  26.260   9.100  25.386  0.0735 -0.1315 -0.0651
86611W        W29602   9.897  19.232  24.150 -0.1066 -0.1125  0.0266
86612W        W29603  18.100   6.058  21.405  0.1158 -0.3928 -0.0435
86613W        W29604  11.240   2.517  23.563  0.2484  0.3078  0.0614
86614W        W29605  27.578  10.701  25.976  0.0919 -0.1396 -0.1683
86615W        W29606   4.112  10.417  17.873 -0.1387 -0.1149  0.0577
86616W        W29607  27.987   5.507  19.633 -0.2304  0.3879 -0.3628
86617W        W29608  31.312   0.526  17.867 -0.3221  0.2379 -0.2035
86618W        W29609  20.354   5.932  22.848  0.2002  0.2521  0.0247
86619W        W29610  31.397  29.480  22.523  0.2518 -0.1253  0.0572
86620W        W29611  26.139  22.571  22.156 -0.2876  0.1190  0.0383
86621W        W29612  23.080  26.144  14.605  0.1716  0.0210  0.2191
86622W        W29613   6.643   5.495   0.643  0.1812 -0.2311 -0.1868
86623W        W29614  10.528   9.090   9.659 -0.0273 -0.1104  0.2009
86624W        W29615  30.215  13.414   1.795 -0.1595  0.1940 -0.1811
86625W        W29616  32.328  15.642  16.888  0.0557  0.0273 -0.2044
86626W        W29617  18.579   2.539  20.633 -0.0351  0.0301  0.1037
86627W        W29618  10.461   9.540  26.025  0.2011  0.1537  0.0218
86628W        W29619  20.834  25.124  23.991 -0.0977  0.0272 -0.0411
86629W        W29620  16.159   7.732  20.480 -0.2965  0.0566 -0.2176
86630W        W29621  11.939  12.900  19.834 -0.3913 -0.0143 -0.0625
86631W        W29622  26.035  31.687  22.635  0.3590  0.2015 -0.1898
86632W        W29623  27.533  24.715  17.258  0.1736 -0.0999 -0.2101
86633W        W29624  32.704  17.838  17.453  0.1286 -0.2323 -0.1698
86634W        W29625   7.227  28.269  21.073 -0.0686 -0.0171  0.2167
86635W        W29626  33.588   8.382  23.848 -0.0346  0.2954 -0.1066
86636W        W29627  22.276   8.937  16.930  0.1988 -0.2205 -0.1146
86637W        W29628  23.850  27.939  26.459 -0.1563  0.1342  0.2797
86638W        W29629  29.745   8.763  29.071 -0.3863  0.1664  0.0872
86639W        W29630  26.570  13.851  14.321  0.0405 -0.1888  0.3145
86640W        W29631  22.138  33.601  16.423 -0.0827 -0.3079 -0.0620
86641W        W29632  17.317  10.520  21.024  0.0454 -0.0708  0.0584
86642W        W29633  16.614  34.395  24.575 -0.0533 -0.0216 -0.1923
86643W        W29634  28.965   7.188  14.225 -0.1852  0.2750 -0.4443
86644W        W29635   9.848  23.097  28.033  0.1002 -0.1386 -0.1457
86645W        W29636  29.224  20.868  21.423  0.1081  0.3033 -0.0330
86646W        W29637   9.886   8.125  27.439  0.4057 -0.2115  0.2148
86647W        W29638  21.236  11.437  23.366  0.2570 -0.0204 -0.0199
86648W        W29639  21.276   4.929  21.436  0.0299 -0.0989 -0.2212
86649W        W29640  30.449  30.614  20.548  0.0502  0.1001  0.2130
86650W        W29641  17.295  33.369  20.869  0.1208  0.0272 -0.0477
86651W        W29642  15.792   4.465  17.675  0.1902  0.0264 -0.1446
86652W        W29643  23.870  16.038  14.567 -0.0298  0.2550  0.1669
86653W        W29644  24.419  18.378  18.991  0.0127 -0.0252  0.2233
86654W        W29645  26.857  12.486   1.067 -0.2194 -0.1024  0.0050
86655W        W29646   0.019  23.671   0.852  0.3749 -0.0809  0.1353
86656W        W29647  23.340   3.956  18.968  0.1328  0.3707  0.1294
86657W        W29648  28.943  20.051  20.431  0.0399  0.3913  0.1469
86658W        W29649  21.608  31.261   1.624  0.0867  0.1276  0.3897
86659W        W29650  21.588  21.188  19.676  0.0724  0.0826  0.1044
86660W        W29651   9.707   3.432   2.168  0.0141  0.0005  0.1585
86661W        W29652   0.554  22.480   0.151  0.0466  0.0969 -0.1954
86662W        W29653  30.344  25.701   8.061 -0.0145 -0.1267  0.1962
86663W        W29654  14.267  10.867  27.640  0.0745  0.0348 -0.0671
86664W        W29655  23.842  29.598  22.648  0.1493 -0.0812 -0.0833
86665W        W29656  21.955   8.536  20.725 -0.1012 -0.1403  0.2095
86666W        W29657  16.155  13.198  20.648  0.1206 -0.1149  0.2641
86667W        W29658  18.023  10.028  16.593 -0.1352 -0.0284  0.2397
86668W        W29659  17.186   9.716  17.435  0.0198  0.1401 -0.0331
86669W        W29660  24.995  22.859  15.172  0.1224  0.2613  0.0053
86670W        W29661  28.239   1.273  28.741  0.2253 -0.0415  0.1042
86671W        W29662   9.571   1.857  24.566 -0.2053 -0.2051 -0.4074
86672W        W29663  15.584  30.086  18.473 -0.0738 -0.0094 -0.1107
86673W        W29664  14.228  11.144  20.654  0.1642 -0.2046 -0.1049
86674W        W29665  21.161   8.250  19.612  0.1345  0.0300  0.2231
86675W        W29666  19.379   7.076  17.286 -0.0464 -0.0130 -0.1072
86676W        W29667  17.895  14.766  24.239  0.0108  0.1073 -0.3999
86677W        W29668  29.812  18.106   3.115  0.4905 -0.1816 -0.1575
86678W        W29669  19.912  17.242  15.858  0.2120 -0.1481  0.1278
86679W        W29670  20.519  14.153   3.008  0.1463  0.0263 -0.1384
86680W        W29671  16.768  10.921  26.432 -0.4520 -0.1244  0.2132
86681W        W29672  11.886   7.901  16.072  0.1522 -0.2551 -0.0632
86682W        W29673   9.397  12.959  17.776 -0.3063 -0.0400 -0.0390
86683W        W29674  21.867  22.884  28.548  0.0971  0.1462  0.0617
86684W        W29675  18.216  23.723  24.183  0.3237  0.0556  0.1717
86685W        W29676  21.756  13.171  22.462 -0.0856  0.0187 -0.2675
86686W        W29677  18.831  20.020  27.159 -0.1101  0.0150  0.0312
86687W        W29678  22.039  14.767  13.606 -0.4004  0.0499 -0.2337
86688W        W29679  15.346   9.742  15.442  0.1980 -0.1260 -0.1831
86689W        W29680  11.728  16.944   7.269  0.3900  0.3896 -0.1633
86690W        W29681  12.142   3.731  22.639 -0.0713  0.1798 -0.3281
86691W        W29682   6.318  13.573  21.240  0.4751  0.0377 -0.3072
86692W        W29683  15.916  30.779  26.453 -0.0959  0.2555 -0.0899
86693W        W29684  24.761  26.591   5.677  0.0406 -0.2063  0.0810
86694W        W29685  21.547   1.744  24.361 -0.1482  0.0403 -0.1393
86695W        W29686  22.604  18.345  19.811 -0.1031  0.0089 -0.0956
86696W        W29687   1.968  30.362  20.745 -0.0307  0.0161  0.3708
86697W        W29688  13.078  28.410  27.597  0.0852  0.1014  0.0754
86698W        W29689  19.141  29.179  16.410  0.0245  0.1448  0.3466
86699W        W29690   6.649  27.219  17.143 -0.2608  0.0649 -0.0753
86700W        W29691  18.923   7.514  19.167  0.0325  0.2308 -0.1013
86701W        W29692  25.008  13.481  22.127 -0.0853  0.0995 -0.1556
86702W        W29693  20.777  11.746  14.708  0.0710  0.0921  0.0539
86703W        W29694  12.011  21.705  18.980  0.0233  0.0069 -0.3589
86704W        W29695  24.775  27.164  29.126 -0.1845  0.2470 -0.1514
86705W        W29696  14.550  13.281  17.651 -0.0779 -0.0234 -0.3880
86706W        W29697  19.823   4.259  20.316  0.0828 -0.1079 -0.2744
86707W        W29698  32.795  12.018  22.011  0.1085  0.5051 -0.0797
86708W        W29699  12.203  16.567  29.087 -0.0116 -0.3131  0.0805
86709W        W29700  28.225  30.544  23.040  0.0372  0.0662  0.1350
86710W        W29701  18.708  26.044   4.167 -0.1598 -0.3171  0.1146
86711W        W29702  27.447  32.384  24.075 -0.1453 -0.2463  0.0796
86712W        W29703  14.346  27.848  21.273 -0.2222 -0.1125 -0.0187
86713W        W29704  20.207  10.731  24.458 -0.2468 -0.3755  0.0011
86714W        W29705  25.493  12.031  13.941 -0.1351  0.1566  0.1096
86715W        W29706  30.323  10.144  24.818  0.0712  0.3417  0.2501
86716W        W29707  17.963  27.464  28.298 -0.0734  0.1228 -0.1718
86717W        W29708  20.763  21.220  16.102 -0.2670 -0.2876 -0.1392
86718W        W29709  21.572  17.786  18.514  0.1682 -0.0557 -0.2982
86719W        W29710  29.555  30.282   6.253  0.0833 -0.0077  0.1182
86720W        W29711  23.245  32.873   0.478 -0.1181 -0.1759 -0.2307
86721W        W29712  15.558   8.800  18.517 -0.1216  0.0667  0.2220
86722W        W29713  21.533  14.487  22.670  0.0756 -0.2181  0.0260
86723W        W29714   0.202  21.563  21.913  0.1064  0.3130  0.1285
86724W        W29715  23.940   2.352  13.793  0.0401  0.0485 -0.0508
86725W        W29716  22.420   7.165  20.343 -0.1119  0.0555  0.0113
86726W        W29717   5.474  33.659  14.133 -0.1471  0.4691  0.2727
86727W        W29718   1.698  27.292  24.658  0.0248 -0.3120 -0.2719
86728W        W29719  18.138  10.270  20.863 -0.1076  0.0155 -0.0579
86729W        W29720  22.659  28.203  25.672 -0.0988 -0.2473  0.0787
86730W        W29721  17.463  24.958  24.554 -0.0393  0.1833 -0.2149
86731W        W29722   3.244  27.620  19.985 -0.2555 -0.2102 -0.0085
86732W        W29723   0.632  18.412  18.923  0.0476 -0.2819 -0.2944
86733W        W29724  12.069  20.214  26.447 -0.3087  0.0049  0.1299
86734W        W29725  29.582  15.223  17.864 -0.0837 -0.1879  0.0313
86735W        W29726  27.192  27.905  21.953 -0.0831 -0.1262  0.4322
86736W        W29727  12.778  16.814  16.294 -0.1035 -0.0225 -0.4597
86737W        W29728  15.126  10.347  21.423 -0.1476  0.2425 -0.0032
86738W        W29729  16.068   8.988  20.559  0.0758 -0.0904  0.0320
86739W        W29730   5.815  25.156  14.778  0.2086  0.0385 -0.0571
86740W        W29731  11.000  16.424  20.054 -0.1203  0.0464  0.4079
86741W        W29732  28.196  15.174  18.014  0.0312 -0.2160  0.0286
86742W        W29733  16.656  12.650  20.101  0.3084 -0.1838 -0.0336
86743W        W29734  24.813   9.939  13.687  0.2042 -0.1505  0.1218
86744W        W29735  13.252  30.830   9.562  0.0075 -0.2000  0.0224
86745W        W29736  16.695   7.496  26.585  0.2161 -0.1985  0.1116
86746W        W29737   4.164  33.872   3.544  0.1017  0.1147  0.1433
86747W        W29738  30.628   9.148   0.795  0.1758 -0.1144  0.0352
86748W        W29739  27.065  28.752  13.370 -0.4270 -0.3167  0.1951
86749W        W29740  33.562  10.982  22.952  0.2094  0.0105  0.0558
86750W        W29741  18.139  13.437  26.138  0.2348  0.1982  0.2463
86751W        W29742  28.818   8.365  15.515 -0.0921  0.0140 -0.1424
86752W        W29743  16.788  29.872  14.722 -0.2772 -0.2360  0.4117
86753W        W29744  17.022  13.794  23.459  0.0109 -0.2843  0.1754
86754W        W29745   1.742  24.941  14.542  0.1436  0.1017  0.0134
86755W        W29746  14.070  10.015  26.526  0.2701 -0.0821 -0.2168
86756W        W29747  15.144  34.412  22.801 -0.2095 -0.0169 -0.0159
86757W        W29748  26.250  31.940  24.349  0.0197  0.2625 -0.2256
86758W        W29749  17.678   1.064  21.227 -0.0910  0.1262 -0.2731
86759W        W29750  15.534  12.561  15.318  0.0614 -0.1193 -0.1249
86760W        W29751   9.169  11.347  17.073  0.2240  0.0675  0.4038
86761W        W29752  34.547  14.750  25.421  0.5422 -0.2030  0.3808
86762W        W29753  16.442  15.715  28.349  0.2202 -0.0445  0.1014
86763W        W29754   1.650  13.360  22.512  0.0789  0.0475  0.0733
86764W        W29755   8.773  19.989   7.350 -0.1048 -0.2954 -0.2854
86765W        W29756  12.978   3.226  17.225 -0.0920  0.0322 -0.1765
86766W        W29757  21.827  14.608  15.242 -0.4563 -0.3280  0.1267
86767W        W29758  34.602  10.446  19.718 -0.1853  0.3404 -0.1138
86768W        W29759  24.246  24.263  13.331 -0.0408 -0.1299  0.2682
86769W        W29760  16.525   8.255  24.649 -0.0650 -0.2433  0.1445
86770W        W29761  32.593  20.727  24.340 -0.3263  0.0054  0.2412
86771W        W29762  20.955  32.821  15.113 -0.2563 -0.0196 -0.2886
86772W        W29763  12.651  25.570  15.969 -0.1997 -0.0954  0.1243
86773W        W29764   9.837   4.899   1.175  0.1598  0.0192  0.0169
86774W        W29765  17.293   3.888  14.278  0.3018  0.1863 -0.0840
86775W        W29766  20.739  15.570  13.736 -0.1613  0.1701  0.2439
86776W        W29767   8.638  10.663  15.747 -0.0276  0.0461 -0.1560
86777W        W29768  25.392  10.373  16.216 -0.2398 -0.0470  0.2110
86778W        W29769  24.054   6.262  19.679 -0.0207 -0.1928  0.2851
86779W        W29770  18.908   0.656  24.277 -0.0573  0.2853 -0.1746
86780W        W29771  15.365  13.524  17.609 -0.2724 -0.3271  0.0346
86781W        W29772   9.371   5.658  26.112 -0.1694 -0.0553 -0.1100
86782W        W29773   1.155  11.265   2.759  0.1664 -0.0509  0.1014
86783W        W29774  24.229   0.684  24.377 -0.0451  0.1613 -0.2240
86784W        W29775  10.748  23.587  14.644 -0.1087 -0.0880  0.2940
86785W        W29776  12.123   1.642  22.382 -0.0573  0.0091  0.1977
86786W        W29777   9.352  21.826   9.744 -0.1196  0.1072 -0.0463
86787W        W29778  13.416  12.846   6.687 -0.1593  0.3655 -0.2171
86788W        W29779  20.302  21.215  28.628 -0.0845  0.1187 -0.0978
86789W        W29780  33.629  33.200  20.577 -0.2730 -0.0904  0.0913
86790W        W29781  25.030   0.412  21.405  0.1340 -0.3324 -0.0717
86791W        W29782  13.331  28.960  18.449 -0.3055 -0.0181 -0.0115
86792W        W29783  25.842   8.821  14.132  0.2347  0.1301  0.2170
86793W        W29784   6.968   1.633  21.628 -0.1620 -0.0292 -0.2616
86794W        W29785  32.472   7.982   2.067  0.1458 -0.2520 -0.2455
86795W        W29786  11.549  14.958  22.823 -0.1890  0.2124  0.2588
86796W        W29787   2.102  16.206  23.381 -0.1100 -0.0296  0.3171
86797W        W29788  25.276   1.156  23.472 -0.2277 -0.0305  0.2151
86798W        W29789  11.077   4.481   0.216  0.3345  0.0640 -0.1763
86799W        W29790  10.723  32.494  22.407 -0.0695  0.1613  0.3942
86800W        W29791  11.526  20.887  17.879 -0.0228  0.1371 -0.0717
86801W        W29792  17.137   8.674  17.212  0.1473  0.0690  0.1559
86802W        W29793  14.387  12.444  17.938  0.3613  0.1251 -0.0916
86803W        W29794   3.254  15.913  17.480 -0.0620 -0.1312 -0.0717
86804W        W29795  14.786  21.317   0.817  0.0727  0.2176  0.0484
86805W        W29796   2.380  33.340   8.143 -0.1104 -0.1825  0.1616
86806W        W29797  22.693   8.290  16.433  0.0010  0.1465 -0.3060
86807W        W29798  10.682  21.351  24.852  0.0076 -0.0319 -0.0652
86808W        W29799  11.060  34.437  16.493  0.1566  0.0258 -0.4843
86809W        W29800  11.718  13.810  18.914  0.0647 -0.2976 -0.0011
86810W        W29801  28.427   7.521  13.811 -0.3374 -0.0108 -0.1510
86811W        W29802  22.614   3.382  23.081  0.1184  0.1318  0.0979
86812W        W29803  14.050  34.043  19.640  0.3133 -0.2408  0.0852
86813W        W29804  20.614  30.463  20.649  0.2987  0.0397  0.3200
86814W        W29805  21.286  10.522  19.448 -0.0336 -0.0199  0.2512
86815W        W29806  13.333   6.870  29.055 -0.1395 -0.3108  0.1445
86816W        W29807  12.883  19.504  15.283 -0.3277 -0.0151 -0.0456
86817W        W29808  14.064  13.420  14.361 -0.0162 -0.0012 -0.3120
86818W        W29809  21.212   2.685  18.908  0.1940  0.1135  0.0241
86819W        W29810  23.105  29.887  21.272 -0.0338 -0.2003 -0.0789
86820W        W29811   6.456  28.180  20.639 -0.1306 -0.0472  0.1252
86821W        W29812  10.911  32.564  16.784  0.1019 -0.3916 -0.0078
86822W        W29813  24.916  15.097   6.682  0.0399 -0.0045 -0.3140
86823W        W29814  34.796  25.821   1.822 -0.0447  0.0143  0.0846
86824W        W29815  31.138  17.726  21.414 -0.3196  0.2851 -0.2022
86825W        W29816  23.404  20.344  14.585 -0.1896 -0.1493  0.1597
86826W        W29817  29.898   7.078  23.225  0.1391 -0.1419 -0.1196
86827W        W29818  16.688  10.830  15.820  0.0129  0.4391  0.2708
86828W        W29819  13.687   5.921   2.574  0.0680 -0.2509  0.0774
86829W        W29820   8.153  10.171  19.451 -0.2200  0.1596 -0.1627
86830W        W29821  27.264  28.749  22.596  0.0699  0.2075 -0.0259
86831W        W29822  15.359  21.600  15.206  0.0204  0.1694 -0.0806
86832W        W29823  22.465  32.101  19.614 -0.2392  0.0586  0.0314
86833W        W29824  14.633  16.297   0.491  0.2484  0.0884  0.1172
86834W        W29825  22.783  34.651  24.708  0.1439  0.0201  0.1788
86835W        W29826  33.208  28.351  16.249 -0.0869 -0.1110  0.1829
86836W        W29827  31.954  20.656  16.251 -0.0402 -0.0888 -0.1101
86837W        W29828  27.554  14.005   1.765  0.0445  0.0306  0.2054
86838W        W29829  23.043  24.314  26.212 -0.2998 -0.1653  0.1153
86839W        W29830  24.416   6.560  19.688 -0.5129  0.0602  0.1341
86840W        W29831  19.902   5.942  17.297 -0.1081  0.0396 -0.0086
86841W        W29832  23.324  22.929  23.416  0.0510 -0.0367 -0.1501
86842W        W29833  18.677  12.364  26.271 -0.0921  0.0216  0.1254
86843W        W29834  18.234  17.194  13.472  0.0584  0.0061  0.1379
86844W        W29835   0.300   0.368  17.091  0.1678  0.3476  0.2022
86845W        W29836  21.588  16.986  13.208 -0.2178 -0.1184  0.1310
86846W        W29837  21.562  26.351  14.683 -0.2489  0.0928 -0.2721
86847W        W29838  11.405   9.050  28.568 -0.4305  0.1252 -0.2266
86848W        W29839  24.765  28.805  26.528 -0.1209 -0.2149 -0.0188
86849W        W29840   7.293   4.092  28.882  0.5179 -0.0816 -0.1446
86850W        W29841  32.847   2.442   1.117  0.2248  0.1299 -0.0253
86851W        W29842  21.628  18.361  15.383  0.2550  0.2093 -0.2105
86852W        W29843  25.802   6.952  14.434  0.0172 -0.0219 -0.1260
86853W        W29844   8.656  13.112  19.895  0.1288  0.0547 -0.0538
86854W        W29845  13.350  14.025  13.844  0.4416  0.3067  0.0075
86855W        W29846  13.600  18.753  18.718  0.0172  0.0542 -0.0759
86856W        W29847  30.356  29.109  27.467  0.2119  0.0845  0.0075
86857W        W29848  27.150   8.338  16.376 -0.0461  0.0470  0.0496
86858W        W29849  18.743  20.541  15.499 -0.0616 -0.0374 -0.0987
86859W        W29850  18.878  10.943  20.834  0.1213  0.2603 -0.0940
86860W        W29851  12.906   8.962  20.919 -0.0404  0.1367 -0.0019
86861W        W29852  11.673   6.829  17.156 -0.0576  0.0356  0.0742
86862W        W29853  14.284  30.214  25.094 -0.2039  0.3842  0.4071
86863W        W29854  15.661   6.258  26.718 -0.1738  0.1367 -0.0805
86864W        W29855  26.621  30.710  14.192 -0.0641  0.0749 -0.1225
86865W        W29856  32.908   6.213  19.738 -0.3330 -0.4059 -0.5514
86866W        W29857  23.870   9.849  18.675 -0.3632  0.0369  0.0718
86867W        W29858  29.541  17.806  26.279 -0.1970  0.1266 -0.1500
86868W        W29859  16.399   2.989  19.514 -0.0666 -0.0366  0.0464
86869W        W29860  26.177  14.974  20.406  0.1429  0.1885 -0.3549
86870W        W29861  27.744  18.235  19.712 -0.0532 -0.1890 -0.1075
86871W        W29862  22.158  14.870   1.773  0.2728 -0.0084  0.0895
86872W        W29863  11.005   6.819  19.361 -0.1109 -0.2810 -0.3718
86873W        W29864  23.014  29.366  18.053  0.2175 -0.1739  0.1830
86874W        W29865  11.853  13.656  14.842  0.0055  0.1172  0.1356
86875W        W29866  26.079  13.848  21.144  0.0874 -0.0756  0.1488
86876W        W29867  17.667   0.838  18.358  0.0637  0.3299  0.1297
86877W        W29868  34.313  20.055  21.429  0.3171  0.1758  0.1135
86878W        W29869  12.678  11.448  16.499 -0.0218  0.0657 -0.3132
86879W        W29870  23.781   7.357  23.413 -0.0740 -0.1971 -0.0481
86880W        W29871  11.306   0.172  27.257 -0.0148 -0.2256  0.0895
86881W        W29872  23.135   5.761  15.621  0.0831  0.0607 -0.0831
86882W        W29873  25.882  13.909  23.398  0.0332 -0.1636 -0.0294
86883W        W29874  31.374  17.848  18.793  0.1846  0.0460 -0.1759
86884W        W29875  19.665  11.224  16.606  0.2884  0.1126  0.1706
86885W        W29876  13.148   9.072  17.922 -0.1087 -0.3043 -0.1854
86886W        W29877  19.156  11.651  17.457 -0.3172  0.1510 -0.0672
86887W        W29878  31.920  14.305  14.873 -0.0666  0.2033  0.0644
86888W        W29879  24.416  31.778  22.411  0.1521  0.0191  0.1510
86889W        W29880  11.164   3.213  19.683 -0.1005 -0.1896  0.0615
86890W        W29881  33.868  13.631  22.084  0.1104  0.3793 -0.0894
86891W        W29882  11.754  28.446  19.151 -0.0527 -0.2211 -0.0346
86892W        W29883  20.132  32.101  19.566  0.1433 -0.5373 -0.0317
86893W        W29884  10.403  29.287   6.645 -0.1723  0.1805 -0.1433
86894W        W29885  20.715  13.633  23.363  0.1236 -0.1784 -0.0333
86895W        W29886  28.468   3.535  14.438  0.0737  0.1241  0.2332
86896W        W29887  29.123   9.020  14.383 -0.1213  0.0905 -0.1769
86897W        W29888  22.433   1.471   5.539 -0.0632  0.0213 -0.0919
86898W        W29889  19.317  11.121  26.603 -0.1102  0.0862 -0.0851
86899W        W29890  13.756   5.646  22.563  0.1817 -0.0861  0.0280
86900W        W29891  27.122   0.688  13.311 -0.0318  0.0627 -0.1044
86901W        W29892  21.379  10.601  18.927  0.1281  0.0989 -0.2745
86902W        W29893  13.588  10.745  15.949  0.2051  0.0204 -0.2439
86903W        W29894  21.083   9.159  21.619  0.0158  0.0026 -0.0108
86904W        W29895  29.011  17.424  27.073 -0.1966  0.1756  0.1700
86905W        W29896  18.331  12.239  19.037  0.0771  0.2100  0.1348
86906W        W29897   7.516  10.556  20.481 -0.5270  0.2379 -0.0550
86907W        W29898  23.750  27.827  14.623 -0.3050 -0.3442 -0.0615
86908W        W29899  19.523  33.809   0.848 -0.0835 -0.2520 -0.3749
86909W        W29900  30.540   9.300   1.695  0.2226  0.0020  0.1336
86910W        W29901  26.630  12.038  24.390 -0.0027 -0.0390 -0.0600
86911W        W29902  27.492   4.607  23.104 -0.4071 -0.0811  0.0517
86912W        W29903  18.535  10.365   6.389  0.0697  0.1280  0.0104
86913W        W29904  21.876   0.696  20.702 -0.3408  0.1603  0.1220
86914W        W29905  19.213   3.393  19.183  0.1089 -0.3777 -0.1922
86915W        W29906  26.781   3.500   9.007  0.2697  0.0987 -0.1711
86916W        W29907  16.991   8.483   6.543 -0.0795 -0.0261 -0.1574
86917W        W29908  27.720   3.357  15.751 -0.0812 -0.2845 -0.0878
86918W        W29909   8.012  18.771  21.854  0.0778 -0.1143 -0.1280
86919W        W29910  18.206   0.628  14.668 -0.0543 -0.1193  0.3147
86920W        W29911   4.880   8.930  20.096  0.1315  0.0608 -0.0139
86921W        W29912  18.018  33.150   5.059 -0.2186  0.0212 -0.1118
86922W        W29913  31.782   5.973  21.017  0.1521  0.0199 -0.1345
86923W        W29914  12.840   8.975  15.098 -0.0950 -0.4299 -0.1597
86924W        W29915  29.504  13.583  15.270 -0.0584 -0.1665 -0.3066
86925W        W29916  14.052  31.850   7.423 -0.1987 -0.2621 -0.0691
86926W        W29917  18.870   5.271  17.485  0.1849 -0.0797  0.0534
86927W        W29918  28.385  31.356  25.646 -0.0018  0.1517 -0.0683
86928W        W29919  15.737  32.767  15.404  0.2485 -0.0819  0.4024
86929W        W29920   0.872  19.358  22.676 -0.1440 -0.1770 -0.5288
86930W        W29921   0.190   9.986  25.372  0.0608  0.0254 -0.2092
86931W        W29922   0.017  11.757  25.071 -0.2482 -0.3417  0.2720
86932W        W29923  23.024  16.534  21.418  0.2770 -0.1407 -0.1507
86933W        W29924  17.081  33.092  17.267  0.2269  0.0824 -0.0354
86934W        W29925  17.368  12.544  15.899  0.1459 -0.4065 -0.3364
86935W        W29926  18.521  27.606  16.093  0.3373 -0.1140 -0.1093
86936W        W29927  30.745  13.708   0.250  0.2264 -0.2736 -0.0802
86937W        W29928  24.221   2.872  17.007 -0.1105 -0.2441 -0.0539
86938W        W29929  24.900  21.383  15.758 -0.0231 -0.1098 -0.1157
86939W        W29930  32.564   5.076  19.774 -0.1299 -0.0286  0.3894
86940W        W29931  31.548  34.566  21.861 -0.1862 -0.0987  0.0260
86941W        W29932  23.602   7.213  18.507 -0.1214 -0.0468  0.0121
86942W        W29933   5.026   7.505  21.433 -0.1036 -0.1809  0.0132
86943W        W29934  30.605  22.077  19.330 -0.0468 -0.0577 -0.3697
86944W        W29935  28.844  10.428   5.309  0.1906 -0.0163 -0.2500
86945W        W29936  28.591  30.411  25.738 -0.0646  0.2713 -0.1287
86946W        W29937   4.010   2.354  25.034 -0.3444  0.0867 -0.1620
86947W        W29938  25.128  20.977  15.973  0.1769  0.2535  0.0896
86948W        W29939  20.682  24.910  28.475  0.3445 -0.1535  0.0180
86949W        W29940  13.198   4.681  22.304  0.0487 -0.2412 -0.2630
86950W        W29941  10.453  30.071   4.647  0.0588 -0.0582  0.1176
86951W        W29942  24.961   2.115  20.148 -0.0097 -0.0961  0.0754
86952W        W29943  26.041  13.897  14.210 -0.2379  0.1679  0.0507
86953W        W29944  31.452  17.383  17.117 -0.2196  0.1128 -0.1781
86954W        W29945  33.256   7.662  18.046  0.1500 -0.0757 -0.4477
86955W        W29946   6.327  15.623  22.906  0.0421  0.2290 -0.3486
86956W        W29947  10.701   8.275  23.006  0.0303 -0.0467 -0.1720
86957W        W29948  17.492  15.295  15.182  0.1823  0.0324  0.1190
86958W        W29949   8.078  24.209   5.919 -0.4546  0.3886 -0.0311
86959W        W29950   2.476  18.942  21.428 -0.3051 -0.2263  0.2627
86960W        W29951   3.237  29.954  27.194 -0.1435  0.2263  0.2854
86961W        W29952  22.793  21.922  20.775  0.1601  0.1416 -0.0727
86962W        W29953  15.174   9.053  18.254 -0.0851  0.0924 -0.0228
86963W        W29954  22.431  33.035   9.649 -0.1102 -0.1580 -0.0608
86964W        W29955  30.603  24.654  14.682 -0.2366  0.0842 -0.0793
86965W        W29956  20.246  13.326   5.312  0.2002  0.3169 -0.1726
86966W        W29957  24.425   0.707  14.149 -0.5742  0.0062  0.1261
86967W        W29958  34.787  12.404   5.604 -0.0458  0.2673  0.0733
86968W        W29959  33.329  15.265  27.846 -0.0560  0.1830  0.1885
86969W        W29960   7.208  11.020   0.825 -0.0822  0.1111  0.1662
86970W        W29961  15.381  18.817   3.126 -0.3610 -0.0010 -0.3330
86971W        W29962  23.543  32.082   2.080  0.0510  0.2681  0.0655
86972W        W29963  29.708   1.861  25.325 -0.0692  0.0089 -0.0880
86973W        W29964  21.553  11.399  21.659  0.2128  0.1634 -0.2926
86974W        W29965  14.658   1.473  27.127 -0.2139 -0.0478  0.1488
86975W        W29966  13.933   7.903   6.231  0.1000  0.0694  0.1441
86976W        W29967  20.575   1.914  26.381 -0.0189  0.0315 -0.0765
86977W        W29968  25.119   3.644   0.813 -0.1151 -0.0064 -0.0196
86978W        W29969  11.099  18.100  22.335 -0.3199 -0.0002 -0.2082
86979W        W29970  13.377  24.398  26.122  0.1762 -0.3580  0.2016
86980W        W29971  19.977  13.680   1.425 -0.0150  0.1319  0.1252
86981W        W29972  20.603  23.007   8.417 -0.0325 -0.1326  0.0014
86982W        W29973  22.534   5.535  22.125  0.0220 -0.2794  0.0676
86983W        W29974  17.933  28.976   0.445  0.2394  0.1220 -0.1686
86984W        W29975  17.906  10.489  19.566  0.1533  0.0356  0.0831
86985W        W29976   6.764   5.965   3.444  0.1443 -0.0057 -0.1923
86986W        W29977  29.307   5.530  23.826 -0.2635 -0.1177  0.1693
86987W        W29978   4.694   9.422  24.036  0.0770 -0.0220 -0.2095
86988W        W29979  32.246  13.259  16.128 -0.1352  0.4864 -0.0442
86989W        W29980  22.902  24.486  14.608  0.0192 -0.1196  0.0167
86990W        W29981  29.831   3.661  13.918  0.3627 -0.3334  0.1563
86991W        W29982   2.881  11.330  16.578  0.0873  0.1128  0.2003
86992W        W29983  24.257   7.925   7.523  0.1773  0.4116 -0.0020
86993W        W29984  21.452  10.007  15.832 -0.0257  0.1772  0.0993
86994W        W29985  26.963   9.798  22.422 -0.1214 -0.0918  0.1637
86995W        W29986  24.771  13.636  16.748  0.3827  0.1758 -0.0640
86996W        W29987  17.590   6.519  24.175 -0.2406 -0.2507  0.0114
86997W        W29988  18.023   1.233  20.446 -0.1200 -0.2071 -0.1344
86998W        W29989  19.217  17.519   4.069  0.2116 -0.0615  0.1562
86999W        W29990  26.635   2.416  17.358  0.0185 -0.4006  0.1018
87000W        W29991  10.214  17.457  28.172  0.0646 -0.0121  0.3726
87001W        W29992  30.975  31.013  27.876 -0.4641 -0.2639  0.0886
87002W        W29993  17.622  13.904  13.254  0.0694 -0.1943  0.0127
87003W        W29994  21.182  16.696  14.801  0.0110  0.0888 -0.1209
87004W        W29995  28.614  17.112  16.161 -0.1496  0.1105 -0.0076
87005W        W29996  14.401  10.925   0.746 -0.3423  0.3277 -0.3950
87006W        W29997  10.223   7.959  23.421 -0.4431 -0.2763 -0.0740
87007W        W29998   5.612  23.619   2.049 -0.2037  0.0631  0.3544
87008W        W29999  15.118   4.855  21.253  0.4057 -0.0980 -0.0182
87009W        W30000  32.072   9.939  26.195 -0.0730 -0.1071 -0.1495
87010W        W30001  16.045   5.231  15.321 -0.0632 -0.0013 -0.0905
87011W        W30002   9.476   5.788  25.241  0.1532 -0.0017 -0.0624
87012W        W30003  20.288   6.117  21.061 -0.0041 -0.1234 -0.1118
87013W        W30004  29.534  29.349  25.194  0.0551 -0.0364 -0.0151
87014W        W30005   5.061   6.263   2.951  0.1786  0.1763 -0.2741
87015W        W30006   9.202  24.074  17.478 -0.2771 -0.1868  0.1022
87016W        W30007  19.270  16.081   8.226 -0.2928  0.0371  0.2559
87017W        W30008  13.285   4.368  23.847  0.2073  0.1257  0.1748
87018W        W30009  23.622  10.807  18.496  0.0407  0.1466  0.1162
87019W        W30010  29.985   2.537  24.453 -0.1869 -0.1943 -0.3046
87020W        W30011  21.180  17.655   2.186 -0.1325 -0.1583 -0.0329
87021W        W30012  20.829  27.845  23.677 -0.0731  0.1524 -0.0261
87022W        W30013  25.971   5.025   6.129  0.2584 -0.0659 -0.2175
87023W        W30014  22.878  30.280   4.557  0.1805 -0.0396  0.2976
87024W        W30015  28.818   3.863  26.979 -0.0930  0.0518  0.2655
87025W        W30016  27.147   8.405  17.271 -0.0455 -0.1438 -0.0580
87026W        W30017  29.966  17.981  24.725  0.0780  0.0636  0.0840
87027W        W30018  11.775  28.911   9.036 -0.1246 -0.1166  0.0654
87028W        W30019   3.267  12.792  17.894 -0.0069 -0.1744  0.3152
87029W        W30020  12.852   5.790  22.407 -0.0372  0.1079  0.2295
87030W        W30021   9.092  22.983  24.909 -0.0811 -0.1457  0.0393
87031W        W30022  16.128  14.390  14.179  0.1906  0.3310 -0.3246
87032W        W30023  14.270  18.983   1.290 -0.0376  0.0554 -0.3519
87033W        W30024  22.363   0.848  25.736 -0.0864 -0.0059 -0.1538
87034W        W30025  19.139   1.036  17.348  0.0811  0.2894 -0.0395
87035W        W30026  29.794  16.214  20.974  0.0709 -0.0017 -0.2542
87036W        W30027  28.583  22.862  28.172 -0.2392  0.2007 -0.2514
87037W        W30028  15.762  33.373  24.356  0.2417  0.0346 -0.0014
87038W        W30029  24.781  32.677   0.593  0.1147 -0.1216  0.2017
87039W        W30030  21.821  13.097  22.965 -0.4019 -0.2025 -0.1285
87040W        W30031  34.168  11.273   1.707 -0.1187  0.0906  0.2580
87041W        W30032  11.378  27.914  16.854 -0.1470  0.0703  0.2214
87042W        W30033  21.513  33.948  25.632  0.0251 -0.0418 -0.2952
87043W        W30034  22.390  22.217  21.650  0.0056 -0.0017 -0.0691
87044W        W30035  18.729  33.862   3.306 -0.1205  0.3322  0.0753
87045W        W30036  15.273   2.869  15.631 -0.1539  0.1821  0.2331
87046W        W30037  11.993   4.482   9.786 -0.2603 -0.2603 -0.2013
87047W        W30038  15.847  25.650   5.729  0.1370  0.2110  0.3426
87048W        W30039  29.953  24.250  23.654  0.2808  0.0807  0.0168
87049W        W30040   8.108  20.414  14.866  0.2539  0.1714  0.2855
87050W        W30041  16.179  29.920  21.750 -0.0854 -0.0240  0.0320
87051W        W30042  16.514   6.849  20.481  0.1536 -0.1448  0.1206
87052W        W30043  10.418  34.496  20.779  0.1994 -0.0258 -0.0589
87053W        W30044  27.649   0.506  14.812  0.1953 -0.4921  0.3071
87054W        W30045  27.984  16.641  24.423  0.1401 -0.0105  0.0361
87055W        W30046  24.198   7.870  25.757 -0.1606  0.1794  0.0304
87056W        W30047   0.362  33.281  25.975 -0.3370  0.5511  0.0599
87057W        W30048  14.269   9.916  21.141 -0.1728  0.1523  0.1330
87058W        W30049  27.351  10.276   3.282 -0.3479 -0.1979  0.1097
87059W        W30050  13.705  29.509  24.291  0.0432 -0.1852  0.0687
87060W        W30051  16.398  34.259  27.418  0.0998 -0.0941 -0.0886
87061W        W30052   9.125   3.760   7.116 -0.1121  0.0967  0.0372
87062W        W30053   9.458  32.573  21.096 -0.0988 -0.3331  0.1648
87063W        W30054   9.368  17.959  26.305  0.1112 -0.1653  0.2392
87064W        W30055  23.908  18.847   6.252  0.1372 -0.1810  0.3291
87065W        W30056  15.895  12.598  18.399 -0.0324  0.0665 -0.0205
87066W        W30057   3.479  26.815  27.367  0.0323 -0.1144  0.0698
87067W        W30058  24.188   1.131  19.808  0.1992 -0.2505  0.0716
87068W        W30059   5.589   0.715  18.540 -0.2261 -0.0247  0.0520
87069W        W30060   4.199   8.886   0.670  0.0578  0.2644  0.2736
87070W        W30061  14.734  15.075   8.066 -0.2844 -0.0124  0.0083
87071W        W30062  10.107   6.162  20.225  0.1975  0.0951 -0.0566
87072W        W30063  31.467  10.599   6.677 -0.2394 -0.1442 -0.0918
87073W        W30064  22.538   7.811  24.629  0.3334  0.3231  0.1643
87074W        W30065  31.081  27.161  24.270  0.2589 -0.1406  0.0047
87075W        W30066  17.528  32.112  15.344 -0.2522  0.1964  0.1411
87076W        W30067  20.391   6.296  17.068  0.1337  0.0452 -0.1115
87077W        W30068  33.731   9.433  20.922 -0.1090  0.0279 -0.0959
87078W        W30069  25.223   8.708  21.708 -0.0344  0.2413 -0.0300
87079W        W30070  30.129  25.705  16.720  0.0576 -0.1710 -0.1277
87080W        W30071  32.165  32.311  25.099  0.3471  0.2305 -0.1843
87081W        W30072  24.827   6.739  23.187  0.0514  0.1370 -0.2277
87082W        W30073  34.461   8.372   3.167  0.2021 -0.0928 -0.0679
87083W        W30074  13.179   2.995   2.569  0.1081  0.0643  0.3181
87084W        W30075  17.162  31.430  28.331 -0.2439 -0.1369 -0.3896
87085W        W30076  21.152  34.187  22.466  0.1437  0.2369 -0.3082
87086W        W30077  10.761  34.097  22.773  0.0796  0.0254  0.2327
87087W        W30078   8.781  23.598  16.228  0.0714  0.3271 -0.1231
87088W        W30079  11.117  32.839   4.248 -0.2927 -0.2143  0.1912
87089W        W30080  20.445   2.936  17.635  0.0045  0.1784  0.1819
87090W        W30081  13.292   7.046   9.342 -0.0780  0.4385  0.0902
87091W        W30082   0.706   9.625  18.111  0.0271 -0.1067 -0.1918
87092W        W30083  22.259  30.494   6.942  0.0855 -0.0891 -0.0522
87093W        W30084  22.997  29.637  18.657 -0.2406 -0.3391 -0.0823
87094W        W30085  16.812   3.822  16.403  0.0302 -0.2476 -0.0611
87095W        W30086  24.135  10.015  22.258  0.3511  0.1817  0.1204
87096W        W30087  34.044  16.242  22.592  0.1555  0.2667 -0.1431
87097W        W30088  18.370   9.548  28.750  0.3614 -0.0469 -0.2512
87098W        W30089  15.794  11.759  16.881 -0.5187  0.0753  0.1374
87099W        W30090  31.017   6.341   1.116 -0.1802  0.1866  0.2063
87100W        W30091  19.332   8.176  17.540  0.1928  0.0101 -0.1509
87101W        W30092  30.632   3.961  25.031 -0.1396 -0.0665  0.1187
87102W        W30093  32.227  33.505   5.257 -0.3776  0.0878  0.0999
87103W        W30094  15.142  32.693  21.714 -0.0277  0.3009  0.0136
87104W        W30095  16.416  31.676  23.095 -0.0582 -0.0619  0.2638
87105W        W30096  17.432  17.852  27.719 -0.1116  0.2097  0.0703
87106W        W30097   7.907  24.753  17.392  0.2520  0.1049 -0.2313
87107W        W30098  28.379  32.001  14.171 -0.1191  0.2989  0.4831
87108W        W30099  23.529   2.899  14.420 -0.1755 -0.2476 -0.2064
87109W        W30100  26.044  20.665  20.854  0.2612  0.0162  0.0649
87110W        W30101  14.150   3.491  20.484  0.3763 -0.2863 -0.0959
87111W        W30102  20.840  16.373  22.484  0.0369 -0.0991  0.1012
87112W        W30103  19.381  30.117  16.163  0.0241  0.1545  0.1338
87113W        W30104  13.938  11.853   0.362  0.2829 -0.0048 -0.0121
87114W        W30105  20.781   3.484   0.469  0.0328 -0.1501  0.0047
87115W        W30106  22.371  16.303  26.905 -0.1157  0.3275 -0.4172
87116W        W30107  12.108  26.116  18.328  0.3058 -0.0089  0.0421
87117W        W30108  14.766   1.333  17.393  0.2036 -0.0632 -0.2212
87118W        W30109   3.094  19.581  26.735 -0.0093  0.0050  0.5069
87119W        W30110  32.176  30.085   3.789 -0.0003 -0.1022  0.0037
87120W        W30111   6.388   6.495   7.253 -0.1818 -0.1447 -0.1069
87121W        W30112  21.729  26.753  18.151 -0.6074  0.1583 -0.2227
87122W        W30113  15.827  25.699   7.414 -0.1859  0.3379 -0.0319
87123W        W30114  22.962  19.449  19.180 -0.1780  0.0870  0.1556
87124W        W30115  23.460  33.185   1.831  0.0638  0.0963 -0.1825
87125W        W30116  21.037   8.649  15.442  0.7821  0.0043  0.1683
87126W        W30117  29.120  15.284  19.178 -0.3643  0.0298 -0.0123
87127W        W30118  15.957  30.319  27.921 -0.0024  0.2121  0.1280
87128W        W30119  20.782  10.054  28.082 -0.1352  0.0463  0.1453
87129W        W30120  10.505  29.578   4.457  0.1910 -0.0021 -0.1632
87130W        W30121  29.523  26.099   0.542  0.0242 -0.3557 -0.4115
87131W        W30122  28.947   5.433   0.143 -0.0135  0.1050 -0.2865
87132W        W30123  25.560  20.375  24.232  0.0981 -0.3243 -0.0536
87133W        W30124  12.181   8.455  20.250 -0.1498  0.0765  0.3148
87134W        W30125  15.644   5.642  20.867 -0.1642 -0.2189  0.1936
87135W        W30126  19.107  11.294   7.470 -0.0880  0.1792  0.0387
87136W        W30127  14.276  23.013  16.344 -0.1195  0.0014  0.4384
87137W        W30128   8.585  30.155  26.867 -0.0529 -0.4268 -0.2590
87138W        W30129  16.476   9.899  15.399  0.0767 -0.3118  0.0698
87139W        W30130  20.652   2.740  14.793 -0.0444  0.2652 -0.2888
87140W        W30131  16.151  12.420  28.043  0.2337  0.0187 -0.0779
87141W        W30132  24.900  14.006  22.879  0.1475  0.2393 -0.0604
87142W        W30133   6.654  15.597  18.912 -0.0624  0.3059 -0.0665
87143W        W30134  11.897  21.384  16.657  0.1540 -0.3004  0.1223
87144W        W30135  32.850   2.880   5.279  0.1130 -0.1801  0.1279
87145W        W30136  21.158  18.005  28.611 -0.0849 -0.1833 -0.0880
87146W        W30137  33.078  19.518  23.461 -0.2496 -0.0256 -0.2444
87147W        W30138  20.025  14.121  18.808  0.1799  0.1997  0.3222
87148W        W30139   9.624  32.845  23.658  0.4588 -0.3589 -0.1941
87149W        W30140  28.736   0.490  16.510  0.0573 -0.0427  0.0656
87150W        W30141  24.281   7.736   2.144  0.0028 -0.4556 -0.2168
87151W        W30142  24.192  31.813  24.320 -0.0913  0.0082  0.0829
87152W        W30143  10.395  14.319  25.831  0.1105  0.4646 -0.0951
87153W        W30144  22.617  27.602   7.769 -0.1088  0.0458 -0.0073
87154W        W30145  10.933  25.806  16.799 -0.0211 -0.1270  0.2919
87155W        W30146  22.964  12.923  21.969  0.1290 -0.1664 -0.1832
87156W        W30147  32.771  14.997  24.788 -0.1167  0.1909 -0.0513
87157W        W30148  28.194  12.601   4.778  0.1876  0.3474 -0.0635
87158W        W30149  27.788  30.708   2.158 -0.0386  0.1376 -0.0380
87159W        W30150  24.872   2.387   3.740  0.0498 -0.0033  0.3636
87160W        W30151  19.068  21.343  21.241 -0.1907 -0.2442  0.1942
87161W        W30152  22.841   7.917  28.536 -0.1238 -0.1333 -0.0862
87162W        W30153  27.610   4.611   2.219 -0.2021  0.0230 -0.1237
87163W        W30154   6.748   6.515  26.881  0.4195 -0.3378 -0.1896
87164W        W30155  27.628  25.791   0.846  0.1878  0.3674 -0.0514
87165W        W30156  16.418  25.075   0.186  0.1532 -0.1899 -0.1518
87166W        W30157  17.351  27.616   8.601  0.1210  0.2309 -0.2295
87167W        W30158  14.315   3.124   8.150 -0.2441 -0.1163 -0.2250
87168W        W30159   8.967   8.637   8.429  0.2487 -0.2820 -0.1265
87169W        W30160  23.925   7.002  21.322  0.0959 -0.0504 -0.1335
87170W        W30161  24.651   9.309   3.115  0.0364  0.1966 -0.0316
87171W        W30162  22.915   4.921  15.523 -0.1905  0.3129 -0.2005
87172W        W30163  14.685  13.227  18.674  0.2036 -0.0085 -0.0777
87173W        W30164  27.837   0.191  15.621 -0.4054 -0.1466 -0.1247
87174W        W30165  32.001   6.974  19.765 -0.2066  0.2355  0.0994
87175W        W30166  26.675  11.671  16.328  0.0213 -0.3466 -0.1592
87176W        W30167  18.482   4.193   4.395 -0.0830  0.2494 -0.2561
87177W        W30168  27.499  17.731  17.202 -0.2094 -0.1592  0.0415
87178W        W30169  21.456  29.523   1.614  0.1523 -0.0532  0.0209
87179W        W30170  21.404  11.267  25.646 -0.2558 -0.2633 -0.3214
87180W        W30171   9.238   2.926  18.904  0.1513 -0.1553 -0.2109
87181W        W30172   6.563  17.858   1.472  0.0217  0.0838 -0.3682
87182W        W30173  14.960  14.650  23.591  0.0764  0.1539 -0.0718
87183W        W30174   4.328   4.731   5.230 -0.1945  0.3574  0.2486
87184W        W30175  18.294  33.984  23.853  0.0182  0.1244 -0.1291
87185W        W30176  28.593   0.951   1.724  0.0064  0.0522 -0.1971
87186W        W30177  25.432   5.557  22.131  0.0652  0.1231 -0.0488
87187W        W30178  31.476   6.999  18.391  0.5899 -0.0238  0.2794
87188W        W30179  19.701  19.209  15.326  0.1408  0.1589 -0.2983
87189W        W30180   9.919  15.475  29.088 -0.0030 -0.2176  0.1065
87190W        W30181  15.911   7.900   3.082  0.2565  0.1472  0.3408
87191W        W30182  18.539  14.348  14.940 -0.0841 -0.0576 -0.1720
87192W        W30183  22.388   1.397  24.516 -0.1235 -0.1227  0.2254
87193W        W30184  17.368  29.386  22.563  0.3073  0.4294 -0.0648
87194W        W30185  17.770   4.203  21.110  0.2629  0.0315 -0.0167
87195W        W30186  22.665   8.632   5.455 -0.1988 -0.1132  0.1659
87196W        W30187   9.025  10.249  15.272 -0.1274 -0.1321  0.1303
87197W        W30188   1.310   7.286  10.624 -0.0088 -0.0312  0.2746
87198W        W30189  19.304   3.709  26.854  0.1225  0.1452  0.2110
87199W        W30190  31.547   6.566  22.218  0.1892  0.3015 -0.0074
87200W        W30191  19.653  21.540  13.019  0.0894 -0.3081 -0.0014
87201W        W30192  26.171  31.190  23.182  0.2720 -0.0479  0.1008
87202W        W30193  12.020  32.806  17.399  0.3756 -0.1045 -0.0829
87203W        W30194  21.093  13.175  26.437  0.3420 -0.1332 -0.0060
87204W        W30195  16.655  31.163  14.427 -0.1812 -0.1522 -0.1138
87205W        W30196  27.254  11.621  18.936 -0.2214 -0.1991  0.2044
87206W        W30197  23.842  12.521  23.593 -0.2874  0.3360 -0.0795
87207W        W30198  20.521  27.502  19.838 -0.1548  0.0827  0.1185
87208W        W30199  29.690  32.627  20.673 -0.1408 -0.2689 -0.1627
87209W        W30200  11.693   1.594   9.390  0.4634 -0.0956 -0.1751
87210W        W30201  14.785   5.558   9.505 -0.0080 -0.0865 -0.1548
87211W        W30202  20.013  11.094  24.135  0.2748 -0.1282  0.2624
87212W        W30203   7.538  27.229  25.174 -0.1127 -0.0346  0.1216
87213W        W30204  25.804  15.358  18.855 -0.2202  0.3520  0.2478
87214W        W30205   8.268  31.456  25.104 -0.0464 -0.0891  0.1595
87215W        W30206  26.180   5.384  28.645 -0.0385  0.0994  0.1076
87216W        W30207   0.441   8.792  10.017 -0.1792 -0.4008  0.1614
87217W        W30208  32.718  34.480  25.399  0.2244 -0.2535  0.1362
87218W        W30209   9.691   4.415  22.301 -0.0745 -0.0578  0.1597
87219W        W30210  23.651   8.433  20.976 -0.0951 -0.2140 -0.0085
87220W        W30211  23.587   5.400   3.265  0.0542  0.0176 -0.1111
87221W        W30212  15.254  13.808  15.404  0.1305  0.1282  0.3571
87222W        W30213  21.014   0.044  18.316  0.1134  0.1399  0.4193
87223W        W30214   6.865   5.784  15.920  0.0544  0.0615 -0.3502
87224W        W30215  11.857  17.463  15.565 -0.1001 -0.0103  0.1749
87225W        W30216  17.467  14.127   0.160  0.2752  0.1757 -0.0274
87226W        W30217   2.375   5.814   3.121  0.1708 -0.1824 -0.1660
87227W        W30218  26.648  28.951  19.044 -0.3458 -0.1496  0.0861
87228W        W30219  22.357  17.281  19.907  0.0051  0.0042  0.0345
87229W        W30220   7.561  20.857  16.039 -0.2440  0.3311 -0.1802
87230W        W30221  14.596  30.928  24.524 -0.4050 -0.5960  0.0574
87231W        W30222  29.530   5.065  25.641  0.1030  0.2460 -0.0401
87232W        W30223  18.923  12.061  19.821 -0.0104 -0.0821  0.1725
87233W        W30224  21.455  22.439  24.387  0.1526 -0.0401  0.0464
87234W        W30225  21.537   9.205   5.902  0.1615 -0.2730 -0.4326
87235W        W30226  12.575   4.419   8.345 -0.3050  0.0257  0.0008
87236W        W30227  19.654  28.190  23.438  0.0105 -0.0405 -0.2632
87237W        W30228  28.052   4.398  21.584 -0.3065  0.1377 -0.0621
87238W        W30229  27.411  32.634   6.503 -0.0284 -0.0402 -0.3368
87239W        W30230   2.575   1.611   1.612 -0.1640  0.2307  0.1013
87240W        W30231  18.159   6.451  20.044  0.4800  0.2540  0.2110
87241W        W30232  17.015  12.335  29.118 -0.0867 -0.0034 -0.1618
87242W        W30233  12.468   9.928  29.152  0.0618 -0.2875  0.0438
87243W        W30234  22.270  15.925  23.218  0.0128  0.1653  0.2276
87244W        W30235  20.875  13.391  18.253  0.0395  0.1642  0.0488
87245W        W30236  28.064  32.777   3.379  0.0643 -0.1020  0.1091
87246W        W30237   1.103   9.062  28.243  0.0783  0.1240  0.1806
87247W        W30238  16.729   5.489  21.163 -0.4471 -0.2179  0.0875
87248W        W30239  28.001  15.024   6.707 -0.1111 -0.1959 -0.1152
87249W        W30240  18.878   6.948   6.290  0.0408  0.0673 -0.0210
87250W        W30241  32.111  12.590   2.901  0.0025  0.0657 -0.1825
87251W        W30242  21.461   8.542   1.010  0.1809  0.0253  0.1015
87252W        W30243  27.727  10.045  28.145 -0.0844 -0.2522  0.2837
87253W        W30244   7.052  17.065  19.066  0.0136 -0.0567  0.0019
87254W        W30245  10.750  10.026  24.145  0.0473  0.2995 -0.3328
87255W        W30246  29.253   0.913  16.745  0.0051  0.0763  0.2207
87256W        W30247   7.485   8.114  23.072  0.0602 -0.3078  0.0211
87257W        W30248  20.696  12.609   8.850 -0.1781  0.0563 -0.1508
87258W        W30249  27.418   3.466  25.496 -0.3580 -0.1643  0.0381
87259W        W30250   3.850  16.236  17.121  0.2939  0.2776 -0.0604
87260W        W30251  19.583   3.012  17.034  0.1488 -0.2277 -0.1539
87261W        W30252  25.697  15.836  23.499 -0.1386  0.1414  0.0639
87262W        W30253  21.645  14.646  24.006  0.0654 -0.1552  0.2199
87263W        W30254  19.775   8.737   5.010 -0.1577  0.0587  0.0118
87264W        W30255  18.308   1.332   7.489  0.2569  0.1212  0.0263
87265W        W30256  20.027  32.647   2.285  0.1786 -0.3670 -0.0865
87266W        W30257  22.338  34.327  17.092 -0.0270  0.0756 -0.3583
87267W        W30258  25.695  18.091  27.328  0.2176 -0.2034  0.0773
87268W        W30259  21.292  12.447   3.746 -0.2078  0.3018  0.1466
87269W        W30260  15.072  10.252  14.792 -0.1576  0.0027  0.1270
87270W        W30261  21.949   9.122  10.139 -0.0671 -0.0430  0.1403
87271W        W30262  11.882  16.296  18.930 -0.0426 -0.0236  0.0483
87272W        W30263  23.775  30.843  16.813  0.1836  0.3742 -0.4096
87273W        W30264  29.726  33.866  25.120  0.1906  0.3588  0.0273
87274W        W30265  23.741   9.290  22.356 -0.1663 -0.0103  0.1286
87275W        W30266  13.537  10.240   5.152  0.0234  0.0840  0.1371
87276W        W30267  19.699   0.184  26.376 -0.3320 -0.1705  0.0755
87277W        W30268  16.644  10.398   3.588  0.0228  0.4187  0.1425
87278W        W30269  33.258  11.906   4.251  0.0261  0.0401 -0.0244
87279W        W30270  21.579  12.552  26.743 -0.2284 -0.1597 -0.1778
87280W        W30271  27.458  22.258  14.043  0.0756 -0.1809 -0.0663
87281W        W30272  13.993  10.827  28.614 -0.0556  0.1478  0.0111
87282W        W30273  14.383   6.223  26.964 -0.1077 -0.1914 -0.0614
87283W        W30274  31.251  31.369  17.836  0.0280  0.2902 -0.2171
87284W        W30275  24.507   0.833   1.199  0.3118 -0.0200  0.2188
87285W        W30276  30.274  27.075  18.493  0.2054 -0.1526 -0.2032
87286W        W30277  12.215  31.985  27.248 -0.2575  0.1359  0.5088
87287W        W30278  25.589   7.103  20.182  0.0465  0.0905 -0.0087
87288W        W30279  24.642  27.145  14.716  0.0599 -0.1075  0.1831
87289W        W30280  31.364  27.347  29.034 -0.4767  0.2953  0.1070
87290W        W30281  32.263  22.505  29.223  0.3095  0.1219  0.0051
87291W        W30282  22.931  24.365  16.459 -0.1143  0.1407 -0.0542
87292W        W30283  27.767  29.306  23.252 -0.2568  0.2508 -0.1931
87293W        W30284  18.690  32.024  16.030  0.0378  0.0251 -0.0422
87294W        W30285  28.300   2.259   5.671 -0.0051 -0.3503  0.1587
87295W        W30286  12.424  33.568  25.233  0.0099 -0.3259  0.0491
87296W        W30287   6.793  18.341  20.410  0.2043  0.0295  0.0651
87297W        W30288  30.865  11.771  24.975  0.0959 -0.1209 -0.0022
87298W        W30289  21.451  18.847  18.392  0.1211  0.0455  0.0248
87299W        W30290  16.316   9.883  14.826  0.1172  0.0881  0.0883
87300W        W30291  14.413   9.675   3.382 -0.1414  0.1145 -0.2128
87301W        W30292  13.875   0.317  22.864 -0.0784  0.2168  0.1497
87302W        W30293  18.816  17.412  13.323 -0.0361 -0.0183 -0.0176
87303W        W30294  27.756   5.457  13.622 -0.0061  0.0128 -0.2031
87304W        W30295  31.113   6.955  28.290  0.2475 -0.0629 -0.2737
87305W        W30296  16.910  15.838   6.786  0.1465  0.1106  0.0786
87306W        W30297   1.330  11.734  26.301 -0.4746  0.0027 -0.0821
87307W        W30298  27.543   5.289  14.915  0.2342  0.3888  0.1501
87308W        W30299  23.854  10.949  28.102  0.3474  0.2164 -0.3929
87309W        W30300  14.861  28.326  20.686  0.0441 -0.1989 -0.3487
87310W        W30301  23.231  11.494  17.782 -0.1740  0.0087 -0.0873
87311W        W30302  15.525  27.034   0.269  0.0648  0.0444 -0.1759
87312W        W30303  19.458  15.160  12.414  0.1867  0.2528  0.1658
87313W        W30304  21.883  13.093  17.825  0.0228  0.1213  0.1304
87314W        W30305  15.574  11.355  19.430  0.0171  0.1059 -0.3672
87315W        W30306  32.181  16.144  15.381  0.1182  0.0487  0.1049
87316W        W30307  30.124  27.126  21.979  0.0128  0.0539  0.1481
87317W        W30308  31.849   4.218  17.709  0.1458 -0.2089  0.0110
87318W        W30309  17.042  18.481  24.845  0.0313  0.0410  0.0648
87319W        W30310  33.395   0.950  25.279  0.3840  0.3193 -0.1027
87320W        W30311  13.821  15.665  25.905 -0.0233 -0.2990  0.1724
87321W        W30312  20.086  24.544  17.212 -0.1017  0.1045 -0.0754
87322W        W30313  27.583  34.094  26.800  0.1323  0.0122  0.0100
87323W        W30314  10.880   7.461   9.020  0.1666  0.0832  0.1360
87324W        W30315  17.952  19.849  13.185  0.0994 -0.0214 -0.1073
87325W        W30316  12.929   8.090  18.798 -0.0812  0.1449 -0.1791
87326W        W30317  24.431  11.568  28.529  0.0206 -0.1677  0.0915
87327W        W30318  20.284   8.908  21.315 -0.0744  0.1603 -0.1119
87328W        W30319   6.255  32.587  16.936  0.3654  0.2802 -0.0156
87329W        W30320  34.735  13.281  22.431  0.2369 -0.1742  0.1827
87330W        W30321  21.281   7.479  10.000 -0.0417 -0.0035 -0.0878
87331W        W30322   5.031  11.539  21.306  0.2194 -0.2200  0.1699
87332W        W30323  19.563  29.191  26.181 -0.1294  0.0157 -0.1925
87333W        W30324  16.776  11.304  22.681 -0.1529  0.1300 -0.3042
87334W        W30325  12.555  17.135  14.741  0.0500  0.1457  0.0695
87335W        W30326  18.364  12.758  23.448 -0.0319 -0.2230  0.1864
87336W        W30327  31.007   3.305  28.482  0.1279  0.2720  0.3983
87337W        W30328  29.639  18.699  14.310 -0.3545  0.3584 -0.0038
87338W        W30329  18.658   7.499  15.723 -0.0449 -0.0293 -0.0140
87339W        W30330   0.818   7.057   4.971 -0.1024 -0.1387 -0.2418
87340W        W30331  24.447   5.969  28.418 -0.0105  0.0973  0.2265
87341W        W30332  26.132  26.595  15.465 -0.0661  0.1016 -0.2307
87342W        W30333  26.879  28.685   6.429  0.2845 -0.1200  0.0668
87343W        W30334  12.157   5.034  20.926 -0.2695 -0.1184 -0.1080
87344W        W30335  17.797   1.643  26.702 -0.2908 -0.0525  0.1638
87345W        W30336  25.914  25.318   3.241  0.0861  0.0203 -0.1894
87346W        W30337   3.024  16.024   4.080 -0.2529  0.1452  0.1408
87347W        W30338  19.742   2.709  17.357 -0.0048  0.1501  0.2360
87348W        W30339  33.463  15.559  20.926 -0.0591 -0.1310  0.0456
87349W        W30340  30.927   4.447  27.728  0.0580 -0.0908  0.0646
87350W        W30341  14.116  12.583  28.163  0.0609  0.1610  0.0891
87351W        W30342  16.597  30.012   4.122  0.2744  0.1758  0.1568
87352W        W30343  28.596  22.027   2.981 -0.0840  0.2961 -0.0600
87353W        W30344  32.258  13.745  11.653 -0.1008  0.0252  0.2867
87354W        W30345   3.913  29.791  19.002  0.2773 -0.2218 -0.0078
87355W        W30346  10.957  32.155   2.820  0.3035 -0.0680  0.2469
87356W        W30347  22.537   2.036   4.853 -0.1988  0.0014  0.1552
87357W        W30348  16.469   8.134   5.658  0.0753  0.1281 -0.1593
87358W        W30349  10.853   2.401  23.067 -0.0446 -0.4959 -0.1028
87359W        W30350  16.998   3.113   3.411 -0.1432 -0.1425  0.2522
87360W        W30351   6.546  31.831  15.873 -0.0906 -0.0789  0.1982
87361W        W30352  33.109  28.492   4.024  0.0485  0.3795 -0.2284
87362W        W30353  13.906  13.962   8.800  0.0363  0.0557  0.0217
87363W        W30354  18.937   3.206  22.095  0.1675  0.0578 -0.1766
87364W        W30355   4.980   1.818   9.348  0.0023 -0.3044  0.0485
87365W        W30356  34.562   3.616   4.648 -0.1815  0.0044 -0.2026
87366W        W30357  15.010  14.167   5.797  0.4006 -0.2354 -0.3463
87367W        W30358  19.439  32.157  16.748 -0.1816 -0.1568  0.0631
87368W        W30359  20.412  24.141  17.510  0.0756 -0.2681 -0.0346
87369W        W30360  19.412   5.983  10.346  0.1131  0.0081 -0.0071
87370W        W30361   1.904   1.817  25.810 -0.3084 -0.2306 -0.3907
87371W        W30362   9.449  23.914  25.658 -0.0186 -0.1027 -0.1662
87372W        W30363   7.375  10.083   9.040  0.0322 -0.2722  0.0603
87373W        W30364  22.455  15.018   4.446  0.2572 -0.1076  0.3699
87374W        W30365  28.085   3.747   3.107  0.3409 -0.0766  0.1731
87375W        W30366  19.888  23.429  21.803  0.1616 -0.1929  0.2134
87376W        W30367   9.942  34.217   5.584 -0.1660  0.3606  0.1662
87377W        W30368  29.401  13.026   3.578 -0.3652  0.2687  0.1001
87378W        W30369  11.626   9.171   1.236  0.0321  0.0260 -0.0076
87379W        W30370   4.080  16.641   7.560  0.0162  0.1029  0.1921
87380W        W30371  34.244  17.530  16.911 -0.0196  0.1643  0.0430
87381W        W30372   7.759  24.230  20.347  0.0363  0.2062  0.0400
87382W        W30373  29.182  19.021   6.742 -0.1773 -0.0954 -0.1553
87383W        W30374  34.013  21.069  15.055 -0.3361 -0.1016  0.0024
87384W        W30375  12.183   4.788   3.796  0.1389  0.3058  0.0118
87385W        W30376   5.953  10.103  20.652 -0.0336 -0.1102  0.1768
87386W        W30377  15.785   4.690   9.533  0.0210 -0.1869  0.0754
87387W        W30378  11.845  12.101   2.385  0.0631  0.1836  0.4454
87388W        W30379  17.933  33.351  27.926  0.1808 -0.1092  0.0461
87389W        W30380  24.536   8.296   7.668 -0.0840  0.0793  0.1679
87390W        W30381   3.223  26.181   8.193  0.0751  0.1798 -0.1193
87391W        W30382   7.314   3.796  25.980  0.0605  0.1601  0.0503
87392W        W30383   1.593  14.625  16.846  0.0576  0.0886  0.2325
87393W        W30384  30.517   7.701  23.568  0.2740  0.2715  0.1320
87394W        W30385  12.387  24.629  21.349 -0.2042 -0.0106  0.2878
87395W        W30386  20.719   1.466  17.816  0.1197 -0.0153 -0.0665
87396W        W30387  20.490   2.272   7.716  0.2162  0.0295 -0.0383
87397W        W30388  23.143   9.989  24.196 -0.1491  0.1865  0.0606
87398W        W30389   8.623   6.879  10.457 -0.1238  0.0927 -0.0293
87399W        W30390  12.218  27.074   7.408  0.3721  0.0644  0.0620
87400W        W30391  16.251  19.504  23.071 -0.2236 -0.1075  0.0376
87401W        W30392   6.362  11.574   8.493 -0.1647  0.0377  0.1370
87402W        W30393  21.460  33.892  22.192  0.0617 -0.0308 -0.2320
87403W        W30394  16.499  19.240   4.149 -0.1857  0.0998 -0.0317
87404W        W30395  25.592  14.830  24.661  0.3879  0.0351 -0.0332
87405W        W30396  18.671  10.785  21.634  0.1173 -0.0895  0.1072
87406W        W30397  22.466  20.555   4.410  0.3962 -0.0595 -0.1938
87407W        W30398  21.410   7.100   3.785  0.1045  0.3510  0.0818
87408W        W30399   9.214   7.020  27.278  0.1033  0.1267 -0.0057
87409W        W30400  12.945  12.889  19.840  0.1728  0.2013 -0.2086
87410W        W30401  24.020   5.405   4.677  0.0920  0.1069 -0.1069
87411W        W30402   8.702  15.454   2.617  0.1229 -0.0521  0.2346
87412W        W30403   3.667  11.053  23.254 -0.1168 -0.0048  0.1472
87413W        W30404  13.225  29.447  24.422 -0.0988  0.1844  0.1438
87414W        W30405  22.814  34.731  13.330  0.0208  0.3626  0.2733
87415W        W30406  19.669  31.102  28.236  0.3109 -0.0829  0.1104
87416W        W30407  13.740  34.286  23.165  0.0977 -0.0577  0.1703
87417W        W30408  30.022  14.636  28.644 -0.1251 -0.2692 -0.1840
87418W        W30409  24.145  15.847   7.392 -0.1053 -0.0970  0.3551
87419W        W30410  18.979  34.257  23.191 -0.1541 -0.2481  0.2035
87420W        W30411  11.268   6.317   8.648 -0.2098  0.4484  0.0282
87421W        W30412   7.540  13.533  26.369 -0.1605  0.0469 -0.2041
87422W        W30413  23.283  11.409   2.852  0.0461 -0.2886 -0.0868
87423W        W30414  31.496  22.462   2.716  0.0678 -0.1099  0.0744
87424W        W30415  11.156  15.691  21.638 -0.0008 -0.0500  0.1414
87425W        W30416  19.156   6.444  16.274  0.1798  0.1419  0.1320
87426W        W30417  28.593  16.932   8.583  0.1301  0.0470  0.1101
87427W        W30418  16.728  10.609   6.653  0.2170 -0.1426 -0.1551
87428W        W30419  16.409  10.409  19.651 -0.1169  0.0558  0.0450
87429W        W30420  15.218   4.394  19.813  0.1101 -0.2571 -0.1247
87430W        W30421  26.171   5.689  26.458 -0.0352  0.0427 -0.3452
87431W        W30422  17.258   3.551   2.096  0.1376  0.0818  0.3163
87432W        W30423  16.908  13.904  13.034  0.3797 -0.0923  0.0010
87433W        W30424  14.745   3.743   5.377  0.2271 -0.1207  0.1051
87434W        W30425  28.065  12.381  22.875 -0.1773 -0.1788 -0.1221
87435W        W30426  20.391  10.250   2.169 -0.1806  0.1723  0.1087
87436W        W30427  17.172  20.776  27.836  0.1400 -0.1203  0.0265
87437W        W30428  25.639   5.151  22.480  0.4218 -0.2404  0.1886
87438W        W30429  18.330  31.228  25.029  0.3434 -0.3145 -0.1024
87439W        W30430  16.141  18.566   7.127 -0.1349 -0.0256  0.0359
87440W        W30431  14.360  10.121   7.593 -0.0033  0.4620 -0.1039
87441W        W30432  18.524   2.829  16.047 -0.2308  0.0420  0.0247
87442W        W30433   7.594   4.355  26.938 -0.0723  0.0031 -0.0807
87443W        W30434  20.212   2.293  16.689  0.1146  0.1466 -0.3702
87444W        W30435  14.824  28.668  15.345  0.0137 -0.0503 -0.2210
87445W        W30436  10.427  11.890  20.331 -0.2818 -0.0906 -0.0021
87446W        W30437   6.442   1.121   0.554 -0.1239  0.0586 -0.2081
87447W        W30438   0.593  31.616  23.696  0.0340 -0.1076  0.0574
87448W        W30439  28.994  11.060   9.699  0.2419  0.5803 -0.2384
87449W        W30440  23.193  25.729  21.859  0.0451 -0.1576  0.1579
87450W        W30441  23.320  33.626  20.966 -0.0766  0.0057 -0.0312
87451W        W30442  22.429   2.431  23.330 -0.4740  0.0105 -0.1339
87452W        W30443  24.939  26.166   5.493  0.1091 -0.0869 -0.0738
87453W        W30444  13.419   7.444   4.060 -0.0797 -0.0098 -0.0873
87454W        W30445  29.110   7.271   2.073  0.2575 -0.0725  0.2306
87455W        W30446  23.351  14.316  13.157  0.1328 -0.0466 -0.2442
87456W        W30447  20.714   5.946   5.683 -0.0279 -0.2003 -0.0010
87457W        W30448  18.538  20.938  19.287  0.1259 -0.2675 -0.1212
87458W        W30449  27.170  16.404   7.843 -0.0644 -0.1162  0.0739
87459W        W30450  27.024  29.020  28.119  0.0791 -0.3211 -0.0676
87460W        W30451  12.370   7.423  22.403 -0.2461 -0.0340 -0.1185
87461W        W30452  16.016  11.446  24.533  0.2608 -0.3463 -0.0734
87462W        W30453  23.431  13.238  23.476  0.0196 -0.0440 -0.1405
87463W        W30454  27.807  33.141  22.476  0.0437  0.2441 -0.0224
87464W        W30455  10.341  17.958  10.071  0.2800 -0.1181  0.1214
87465W        W30456  14.271   7.550  22.780 -0.0153  0.3287  0.2034
87466W        W30457  13.593   0.812  24.879  0.0643 -0.0831  0.1372
87467W        W30458  14.852  18.304  28.390 -0.0640  0.0591 -0.4260
87468W        W30459  23.358  27.691   4.743 -0.1401  0.1854 -0.4401
87469W        W30460  24.657   3.086  17.176 -0.0666 -0.1897  0.0814
87470W        W30461  28.068  17.764   7.289 -0.1816 -0.3590 -0.0130
87471W        W30462   9.707   5.483   7.109  0.4265 -0.1900  0.1114
87472W        W30463  10.670  33.393  22.107  0.2132 -0.0260  0.1281
87473W        W30464  25.729  30.563   0.379  0.0550  0.1862 -0.0697
87474W        W30465  23.604  16.027  15.023 -0.1230 -0.1570 -0.0465
87475W        W30466  28.011   9.887  21.061 -0.1050  0.3341  0.2989
87476W        W30467  12.816   6.137   5.898 -0.1371  0.2958 -0.3118
87477W        W30468  20.902  10.637   0.569  0.0897 -0.4245  0.3154
87478W        W30469  23.541  15.550   7.403  0.2161 -0.1325 -0.1613
87479W        W30470  25.149   7.148   2.449  0.0639  0.0110  0.2505
87480W        W30471   3.677  18.065  28.657  0.2326  0.1697 -0.0524
87481W        W30472  21.120   2.151  17.014 -0.4396 -0.2043 -0.1701
87482W        W30473  18.636  26.773   7.475  0.1367 -0.2984 -0.2345
87483W        W30474  34.211   6.240  24.201  0.1757 -0.1117  0.3582
87484W        W30475  18.216  33.161   1.727  0.2095  0.1769 -0.0611
87485W        W30476  27.799  12.704   3.125  0.0551  0.3966  0.2564
87486W        W30477  10.373  11.898  18.982  0.0214 -0.2687  0.4071
87487W        W30478  24.288  17.485  27.241 -0.3233  0.0806  0.3002
87488W        W30479  18.997   3.901   0.525 -0.2112 -0.0483 -0.0583
87489W        W30480  22.422   5.433   8.752  0.0262 -0.0579 -0.4157
87490W        W30481  22.977   5.699   3.083  0.1369  0.0294  0.0796
87491W        W30482  23.450  19.068  22.647 -0.2025  0.0052 -0.0578
87492W        W30483  14.167  29.785  15.333 -0.3273  0.5181 -0.2062
87493W        W30484   5.297  33.775  16.461 -0.5614  0.0742  0.0705
87494W        W30485  28.398  13.009   5.187 -0.3566  0.2222 -0.1006
87495W        W30486  22.389   7.314   0.664  0.0255  0.1371  0.0695
87496W        W30487  19.717   8.074  27.662  0.0564  0.1389 -0.0146
87497W        W30488   6.705  11.917  20.222 -0.0269 -0.0300  0.3753
87498W        W30489  25.785   9.957   9.201 -0.1117  0.3344  0.1153
87499W        W30490  22.000  16.549   9.221 -0.4868  0.1306  0.0834
87500W        W30491  14.909   8.861  19.867 -0.1630  0.1747  0.0458
87501W        W30492  24.937  13.144  24.209 -0.2979  0.0066 -0.5891
87502W        W30493  29.146   4.012   8.868 -0.1503 -0.1545 -0.2032
87503W        W30494  15.354  18.542   4.061  0.0805  0.0875 -0.0388
87504W        W30495   8.058  12.703  16.265 -0.0886  0.1281 -0.1190
87505W        W30496  11.893  13.836   1.792  0.4458  0.1836 -0.0938
87506W        W30497  16.235  12.504   2.574  0.2194 -0.2654  0.0630
87507W        W30498  19.180   4.337   0.895  0.0727 -0.0959 -0.0616
87508W        W30499  28.200  18.142   9.117 -0.2183 -0.0951  0.1136
87509W        W30500   9.968   8.202   5.845  0.2927 -0.3246  0.2979
87510W        W30501  33.423  11.651   8.921 -0.0328  0.0968 -0.0492
87511W        W30502   3.030  24.914  13.962 -0.3150  0.2974 -0.0182
87512W        W30503  24.524   9.752  21.391 -0.0200 -0.2730  0.2010
87513W        W30504   6.115  28.402   5.268  0.0812 -0.0932  0.1249
87514W        W30505  23.745   6.305  24.036 -0.0666 -0.2029  0.0411
87515W        W30506  31.841   9.826  25.810 -0.1869  0.3000 -0.0348
87516W        W30507  18.043  15.316   7.737 -0.0549 -0.0351  0.0276
87517W        W30508  24.638   5.586   7.709 -0.0870 -0.1317  0.1523
87518W        W30509  26.727   0.242   1.004 -0.1339 -0.0221  0.1388
87519W        W30510  22.195  25.101   8.938  0.2171 -0.1498 -0.0800
87520W        W30511   5.981   0.006   9.015  0.3338  0.1167 -0.3153
87521W        W30512  21.515  15.274   9.726  0.0932  0.2429 -0.4736
87522W        W30513  31.084  11.917  20.449 -0.0714  0.0986 -0.0235
87523W        W30514  34.263   6.329   4.204  0.0071 -0.0749  0.2501
87524W        W30515  25.271  25.815  16.944  0.1880  0.0880 -0.0192
87525W        W30516  20.579  13.277  12.876 -0.0781  0.0866  0.2542
87526W        W30517  22.582  21.147  13.540  0.0987  0.2316  0.0483
87527W        W30518  25.439   9.452  24.631  0.1520  0.0600 -0.0175
87528W        W30519  23.521   9.920  10.464 -0.3870  0.4605  0.1725
87529W        W30520  19.074   3.990   3.212  0.0156  0.0842  0.2031
87530W        W30521  15.669   6.218  25.472 -0.3144  0.0642 -0.0335
87531W        W30522  21.724  13.076  28.225  0.4088 -0.0188 -0.1137
87532W        W30523  34.088   7.969   1.598  0.1635  0.2605  0.1697
87533W        W30524  22.395   1.962  28.902  0.0831 -0.5159 -0.0969
87534W        W30525  30.986   7.624  22.372 -0.0769 -0.3360 -0.2091
87535W        W30526   4.330  16.769   3.793  0.0482  0.1894  0.0614
87536W        W30527  21.170   6.770  24.774  0.2778  0.0196  0.2496
87537W        W30528  31.898  17.266  16.914  0.2520 -0.2848  0.1147
87538W        W30529  19.669  12.393   7.016  0.2098  0.1663  0.0409
87539W        W30530   8.786   5.201   0.902  0.1392 -0.0407 -0.1808
87540W        W30531  14.454  22.333  15.741 -0.1345  0.1950 -0.2566
87541W        W30532  12.218  27.733  21.829  0.1227 -0.0945  0.0653
87542W        W30533  21.582  17.068   1.925  0.4187  0.0755  0.0543
87543W        W30534  14.620   3.454  23.013 -0.3036 -0.0276  0.0833
87544W        W30535  17.575  23.497   2.265 -0.0476 -0.0433 -0.2164
87545W        W30536  21.056   8.248  20.240  0.2715  0.2580  0.1440
87546W        W30537   2.418  28.673  21.724 -0.0926  0.0218  0.0673
87547W        W30538  32.299  10.751   0.031  0.2191  0.0041 -0.0274
87548W        W30539  15.675  21.049  14.156 -0.0010  0.2566  0.1604
87549W        W30540  16.319   4.535  28.662 -0.1944  0.0034 -0.0644
87550W        W30541  16.736   3.345  19.780  0.0205 -0.4486  0.1412
87551W        W30542  25.499  24.907   3.948  0.0280  0.4602  0.3736
87552W        W30543  20.916  30.838  20.481 -0.2038 -0.2123 -0.2993
87553W        W30544  11.787   2.663  25.985 -0.0001  0.1480  0.0844
87554W        W30545  17.482  22.376   3.244  0.1296  0.2651  0.1942
87555W        W30546  30.919  10.282  28.032 -0.1892  0.1251  0.2655
87556W        W30547  15.202   8.890   5.276 -0.1802 -0.0188 -0.1172
87557W        W30548  15.110  10.371   7.399  0.1863 -0.3193 -0.2390
87558W        W30549   8.624  14.454  15.267  0.1189  0.0440  0.4103
87559W        W30550  14.413  12.666   4.618 -0.3633  0.0872  0.1414
87560W        W30551  20.503  24.245  13.981  0.1902  0.0687 -0.0800
87561W        W30552  28.130   0.282   1.845  0.5146 -0.2282  0.3327
87562W        W30553  14.507   6.214  22.909 -0.4154 -0.1796  0.0753
87563W        W30554  33.295  27.565   4.899 -0.0336  0.2732  0.1054
87564W        W30555  28.070   3.612  20.293  0.3064 -0.0499 -0.0246
87565W        W30556  23.733  26.000   2.484  0.3286 -0.0242 -0.1211
87566W        W30557   6.849  15.468   6.210 -0.0775  0.2986 -0.1787
87567W        W30558  24.205  25.248  28.566 -0.0784 -0.1064 -0.1206
87568W        W30559  15.833   9.528  25.186 -0.1349  0.0906 -0.0872
87569W        W30560  20.225  19.775   1.460  0.2554 -0.0767 -0.1915
87570W        W30561   9.037  15.870   2.740 -0.2071  0.3410  0.1659
87571W        W30562  25.606  22.515  28.052  0.0375  0.1496  0.1604
87572W        W30563  10.919  10.404   4.770 -0.2541 -0.0232  0.1136
87573W        W30564  14.207  21.823   1.596 -0.1350  0.0310  0.1481
87574W        W30565  25.956  20.043  23.885  0.1025 -0.1045  0.1824
87575W        W30566  18.096  13.069  21.432 -0.3349 -0.2033  0.3736
87576W        W30567  19.627  24.622   5.183 -0.1242 -0.1052  0.0227
87577W        W30568  15.577  30.725   8.652 -0.0564 -0.2463 -0.1022
87578W        W30569  15.961  33.133  10.138 -0.2270  0.0013 -0.3552
87579W        W30570  17.907  10.191   3.586 -0.0161 -0.0925  0.5687
87580W        W30571  31.672  12.978  28.793 -0.1534 -0.2663 -0.0835
87581W        W30572  17.116  16.027   7.586  0.0751  0.3208  0.1068
87582W        W30573  26.799  33.206  27.837 -0.1338  0.1850  0.0532
87583W        W30574  23.793  34.592   8.312 -0.1382  0.2979  0.0765
87584W        W30575  23.425  34.039   1.452 -0.1563  0.0566  0.1112
87585W        W30576  25.496   0.884   9.042 -0.0916 -0.2597  0.2306
87586W        W30577  13.874  12.540   2.156 -0.0625 -0.3196 -0.1034
87587W        W30578  18.277  16.741  25.223 -0.0344  0.2139  0.1912
87588W        W30579   6.324  23.225   2.471  0.2353  0.3627 -0.3114
87589W        W30580  25.968  16.337   5.658  0.0043 -0.1638 -0.1563
87590W        W30581  21.382   6.035  24.238 -0.1324  0.1876 -0.3487
87591W        W30582  31.236   0.929  27.550  0.0766  0.1157  0.1299
87592W        W30583  22.910  10.683   3.673 -0.0807  0.2771 -0.0184
87593W        W30584   2.244   7.311  19.699  0.0487  0.0691  0.1954
87594W        W30585  15.247   6.489   6.001 -0.2168 -0.0539  0.0915
87595W        W30586  17.061   0.234   5.277  0.0627  0.0037  0.0783
87596W        W30587  25.526   8.869   6.839  0.5187 -0.1311 -0.0481
87597W        W30588  10.636  15.134  22.587  0.0947  0.0166  0.2182
87598W        W30589   2.348  22.869  24.457 -0.0527 -0.1190  0.0006
87599W        W30590  10.127  22.139  20.086  0.0777 -0.0166 -0.4160
87600W        W30591  24.651  31.729  22.865  0.1903  0.0518 -0.0597
87601W        W30592  23.132  20.087   6.507  0.1469 -0.0493  0.0442
87602W        W30593  24.134  33.732   5.981 -0.3137  0.1641  0.1451
87603W        W30594  15.343  27.139   6.323  0.1069  0.0089  0.3201
87604W        W30595  23.032  28.807   5.550  0.2059  0.2101  0.0279
87605W        W30596  31.350   8.714   1.466  0.0961 -0.0451  0.3061
87606W        W30597  16.486  22.483  22.643 -0.1917  0.3640  0.1533
87607W        W30598  10.191  16.256   1.660 -0.2304  0.4104 -0.0860
87608W        W30599  24.251  11.570  25.999 -0.0906  0.2924  0.0418
87609W        W30600   9.325  32.807   4.265 -0.2567  0.0445  0.2164
87610W        W30601  19.270   5.523  28.634  0.0800 -0.0308 -0.1773
87611W        W30602  17.069  32.348  25.118 -0.5157 -0.1012 -0.1277
87612W        W30603  28.338  24.887   8.632  0.0537 -0.0905 -0.2185
87613W        W30604   8.743   4.534  22.990 -0.1560  0.4907 -0.2047
87614W        W30605  15.678  16.382  15.829  0.1746 -0.0943 -0.0253
87615W        W30606   1.532   7.301   9.214  0.2613 -0.1224 -0.3458
87616W        W30607   1.277  10.103  25.375 -0.1936  0.1462 -0.2625
87617W        W30608  13.449   6.726  26.921 -0.0671  0.0178  0.1227
87618W        W30609  32.979   5.991  25.955  0.0768  0.0987  0.2647
87619W        W30610  12.448   0.699  19.232 -0.2139  0.0496 -0.0039
87620W        W30611  23.153  17.555  19.289  0.2316  0.1860  0.1328
87621W        W30612  29.024   0.655  15.793 -0.1630  0.0782  0.1370
87622W        W30613  18.142   4.384  24.467  0.1354  0.0093 -0.1547
87623W        W30614  17.209  10.969  17.799  0.2586  0.1093  0.1082
87624W        W30615  33.772  20.254  22.414 -0.1992 -0.0045  0.0748
87625W        W30616  18.986   9.610   0.103  0.1167 -0.2141 -0.0091
87626W        W30617  17.478   8.385  27.303  0.6249  0.1415  0.2081
87627W        W30618  13.794   8.039  10.464 -0.2151 -0.1672 -0.1172
87628W        W30619   8.663  33.482   1.258 -0.1681 -0.2470 -0.2043
87629W        W30620  19.628  21.057  19.971 -0.3287 -0.3325  0.3015
87630W        W30621  22.171   6.567   2.497 -0.1090  0.0205 -0.2818
87631W        W30622  16.751   8.140  28.789  0.1723 -0.0490  0.2360
87632W        W30623  11.661  33.705  20.403  0.4713  0.1613  0.3577
87633W        W30624  17.672   9.639   8.667  0.0871 -0.0773 -0.0581
87634W        W30625  13.201  31.228  14.444  0.1674  0.0888  0.0048
87635W        W30626  16.894   8.048  15.479  0.0444  0.0532  0.0104
87636W        W30627  14.601  22.649  27.202 -0.2869 -0.1574 -0.0703
87637W        W30628  16.567   2.641  15.380  0.1882  0.2686 -0.3027
87638W        W30629  32.774   0.471  18.971 -0.2040 -0.2197  0.1136
87639W        W30630   0.174  32.932   0.882  0.0175 -0.1192  0.3615
87640W        W30631  17.812  13.537  19.998 -0.1846 -0.0451 -0.0112
87641W        W30632  18.052   4.320  26.062 -0.0971 -0.2221  0.1510
87642W        W30633  30.984   5.591  16.485  0.2512  0.4133  0.5609
87643W        W30634  26.852  21.021   9.278 -0.0077 -0.1469 -0.0373
87644W        W30635  31.678   2.361  29.133  0.1940 -0.0355 -0.0004
87645W        W30636  14.264  28.356   8.286  0.0133  0.0435  0.1463
87646W        W30637   0.418  10.356  22.664 -0.0655 -0.0945 -0.0211
87647W        W30638  17.510  14.129  19.349 -0.0037  0.0693  0.3886
87648W        W30639  32.712  13.893  11.417 -0.3706  0.1711 -0.4818
87649W        W30640  16.282  15.492   5.043 -0.1851  0.0051 -0.1921
87650W        W30641  29.529  27.245  12.679 -0.2701  0.1891 -0.1936
87651W        W30642  13.218   5.089   9.170  0.1909  0.1955 -0.2147
87652W        W30643   7.005   8.064   2.580  0.1270  0.0951  0.1190
87653W        W30644  31.120  16.192   3.011  0.1479 -0.3670  0.1163
87654W        W30645  28.032  17.198  25.642 -0.1435 -0.0500  0.4438
87655W        W30646  26.242  10.553  17.662 -0.0874  0.2862 -0.0944
87656W        W30647  16.226   3.722   8.341  0.2268  0.0765 -0.0019
87657W        W30648   9.465   8.921  20.456 -0.1241  0.0026  0.0660
87658W        W30649   7.452  12.692  19.194  0.0067  0.1945  0.1287
87659W        W30650  13.234  31.521   5.891 -0.1308 -0.0257  0.0564
87660W        W30651   4.178  12.798  17.841  0.0271 -0.1460 -0.1533
87661W        W30652   6.307  12.502   1.350  0.0877  0.1028 -0.3190
87662W        W30653  17.350  14.444  17.196 -0.2387 -0.0559 -0.1846
87663W        W30654   4.491  10.493  29.160  0.0555 -0.0154  0.0651
87664W        W30655  23.682   1.502   2.217 -0.1412  0.1424 -0.0191
87665W        W30656  15.412   2.686   2.158  0.0622  0.1441  0.1904
87666W        W30657  25.236  17.007  22.009 -0.0142 -0.1927 -0.2211
87667W        W30658  22.608  17.143  25.035 -0.2440 -0.4386 -0.0402
87668W        W30659  17.563  33.560  17.165  0.2030  0.2690 -0.0292
87669W        W30660  34.421  23.216   7.394 -0.1059 -0.3474 -0.2312
87670W        W30661  28.011   3.447   9.256  0.3921  0.3276  0.1500
87671W        W30662  24.726  31.922  17.209 -0.1180 -0.0675  0.0310
87672W        W30663  25.613   8.370  17.213 -0.2584 -0.1566 -0.0455
87673W        W30664   5.780  33.460   6.695  0.0213  0.2592 -0.1956
87674W        W30665   8.200  31.060  25.872  0.2548  0.1340  0.1353
87675W        W30666  24.154  13.552  17.987  0.1751  0.1441  0.0824
87676W        W30667  32.641   5.017  24.298 -0.2393 -0.2532  0.4331
87677W        W30668  22.908   6.653  22.826  0.1461  0.0196  0.2812
87678W        W30669  18.638  21.892  13.902  0.0224 -0.2761  0.1602
87679W        W30670  19.642  21.337  27.617 -0.0424 -0.0574  0.1215
87680W        W30671   7.609  13.461  17.945  0.1095 -0.0891 -0.0748
87681W        W30672  26.647  21.083   0.594  0.1423 -0.0519 -0.1271
87682W        W30673   6.392   5.146  27.762  0.2822  0.1468  0.1835
87683W        W30674  24.584   0.222   3.816  0.1668 -0.2248  0.0708
87684W        W30675  15.148  14.307  20.297  0.0515  0.2531 -0.0517
87685W        W30676  32.790   5.016  29.221 -0.3750 -0.0907 -0.2901
87686W        W30677  22.832  16.687  23.883 -0.2006 -0.0557 -0.0993
87687W        W30678  12.631  32.556  10.203  0.1566 -0.0594  0.1434
87688W        W30679   9.441   9.868  20.523 -0.3600  0.1760  0.0328
87689W        W30680  19.443  30.934  29.063 -0.0906  0.0938 -0.1235
87690W        W30681  30.913  17.730   4.113 -0.1319 -0.0093 -0.1228
87691W        W30682  10.093  12.206  27.035  0.1575 -0.0544 -0.0020
87692W        W30683  28.441  18.076  17.552 -0.0319  0.2718  0.1960
87693W        W30684  23.758  20.546   8.350 -0.5006  0.0989 -0.1827
87694W        W30685  21.231  18.953  13.909 -0.1175 -0.1617 -0.0172
87695W        W30686   1.195  34.029   8.765  0.2478  0.0180 -0.1330
87696W        W30687  15.112  29.816  26.990  0.2555  0.1619  0.0186
87697W        W30688  22.273  27.376  28.076  0.2840  0.1938 -0.1601
87698W        W30689  14.804  15.588   1.163  0.0074  0.2631  0.0822
87699W        W30690  29.122  24.539  22.478 -0.1541  0.2821 -0.0160
87700W        W30691  20.317   8.007  19.855  0.0036  0.0061  0.0518
87701W        W30692  29.349   8.175  26.172 -0.2709  0.0943  0.1825
87702W        W30693   1.698  12.054   3.091  0.0029  0.1870 -0.0407
87703W        W30694  29.909  34.576   4.154 -0.1166 -0.0035  0.1164
87704W        W30695   4.084   4.495   0.611  0.1109  0.3175 -0.1848
87705W        W30696  14.377   5.945  18.973 -0.0840 -0.4244 -0.1058
87706W        W30697  17.497  13.749   3.060  0.0970  0.2834 -0.2424
87707W        W30698  22.660   7.169   7.044  0.2210 -0.2055  0.1630
87708W        W30699  13.284   3.248  24.444 -0.0921  0.0569 -0.1385
87709W        W30700  16.572  32.348  28.437 -0.0216  0.1222 -0.0956
87710W        W30701   5.006   1.069  10.673  0.1788 -0.0797 -0.0703
87711W        W30702  33.380  19.482  25.176 -0.1425  0.0606 -0.0104
87712W        W30703  20.817  10.155  26.514 -0.2987 -0.3203 -0.0780
87713W        W30704  19.178  20.216   3.677 -0.3010  0.3326  0.0207
87714W        W30705  12.462  16.949   5.609  0.0769  0.1520  0.0785
87715W        W30706   4.259  11.195  17.160 -0.1022  0.1438  0.0156
87716W        W30707  25.525  28.950   6.786  0.2104 -0.1788  0.0209
87717W        W30708  27.968  24.416  28.305  0.2085  0.1019  0.3364
87718W        W30709  20.474   9.384   5.888 -0.0021 -0.1748 -0.0482
87719W        W30710  27.125   1.164   4.906  0.1002 -0.3145  0.1628
87720W        W30711  19.060   2.194   2.884 -0.0411 -0.1253 -0.2643
87721W        W30712  19.111  12.978  24.953 -0.0173 -0.0593 -0.0104
87722W        W30713  19.388  19.491  25.843 -0.0385 -0.0207  0.4842
87723W        W30714  29.619   0.318   1.639 -0.0830 -0.0833 -0.1449
87724W        W30715  30.417   3.295  25.473 -0.0771 -0.1295 -0.0568
87725W        W30716  21.739  33.643  28.739 -0.3643 -0.0716 -0.0499
87726W        W30717  32.297   5.609  15.340 -0.0164  0.0939 -0.5360
87727W        W30718  12.522   7.694  20.457 -0.2070 -0.1338 -0.0545
87728W        W30719  32.703  21.746  23.634 -0.1307  0.2022  0.2026
87729W        W30720  31.536  22.582  24.956  0.1432  0.4133 -0.1919
87730W        W30721  30.636   2.726   6.224 -0.2169  0.0878 -0.1167
87731W        W30722  16.138  22.721  17.131  0.0499  0.0902 -0.1053
87732W        W30723  18.320  16.740  23.948  0.0314 -0.3160  0.0928
87733W        W30724  22.494   7.515   4.352 -0.0462 -0.2144 -0.2398
87734W        W30725  18.703  17.856  29.078 -0.0244 -0.0569  0.1466
87735W        W30726  27.342  12.063  18.450  0.1101 -0.1774  0.0746
87736W        W30727   6.680   7.204  20.115 -0.0604  0.0872  0.0723
87737W        W30728  32.562   8.351   6.123  0.0372  0.3081 -0.1110
87738W        W30729  20.399  22.855  13.828 -0.3909  0.1233  0.1855
87739W        W30730   7.013  19.794   4.408 -0.0194  0.0815 -0.0489
87740W        W30731  18.728   1.149   7.159  0.0114 -0.1441  0.1199
87741W        W30732  16.266   3.209  21.125 -0.2272  0.0746 -0.1405
87742W        W30733  16.321   2.323   0.076  0.0636 -0.0551  0.3211
87743W        W30734  11.149  15.654   6.940 -0.0956  0.2289  0.0635
87744W        W30735  27.945  10.081   1.131 -0.3620  0.1646  0.4973
87745W        W30736  13.385  24.185   4.121  0.1453 -0.3886 -0.4213
87746W        W30737  30.953  29.181  28.859 -0.0369 -0.2684  0.2116
87747W        W30738  19.191  27.277   2.519 -0.1139  0.1397  0.2716
87748W        W30739  20.539   4.151   7.518 -0.1662  0.0651 -0.2619
87749W        W30740  13.721   6.716   9.389 -0.0754  0.1642  0.2034
87750W        W30741  32.637  16.909  17.860 -0.1292  0.1812 -0.0593
87751W        W30742  22.597   5.937  17.703 -0.2244 -0.0479 -0.2439
87752W        W30743  25.225  32.323   2.909  0.1293  0.2714  0.0860
87753W        W30744  12.020   0.858  11.089  0.1886 -0.0147 -0.3038
87754W        W30745  19.991   3.776  19.131  0.0338 -0.4203 -0.2367
87755W        W30746   2.987   9.760   0.283  0.1447  0.2175 -0.1384
87756W        W30747   2.362   4.934  20.070  0.1524  0.0872  0.0427
87757W        W30748  19.428   8.321  24.681  0.0717  0.0513  0.2674
87758W        W30749  12.176  11.740  29.212 -0.0330 -0.1510  0.2958
87759W        W30750   9.984   5.132   0.766 -0.1605 -0.0003 -0.0396
87760W        W30751  19.545  18.918   5.955  0.1398 -0.0338  0.2174
87761W        W30752  16.086  28.128  26.297 -0.3396  0.3547 -0.2680
87762W        W30753   8.560  20.643   2.447  0.2221  0.3774 -0.0440
87763W        W30754  20.662   9.579   1.465  0.2403  0.0225 -0.1276
87764W        W30755  23.621  13.482   0.510 -0.1016 -0.0002 -0.1721
87765W        W30756  19.972  27.448  28.436 -0.0370  0.1188  0.2188
87766W        W30757  23.549   9.831   2.569  0.0150 -0.0135  0.6626
87767W        W30758  27.182   3.174   3.946  0.1078 -0.0274  0.1154
87768W        W30759  13.755  17.682  22.513 -0.3622  0.0175 -0.4042
87769W        W30760  21.726  26.508   4.642 -0.2772  0.2055  0.2096
87770W        W30761  25.774  13.894   1.467  0.2337  0.1182 -0.0512
87771W        W30762  11.756  10.388  18.173 -0.1740  0.0597 -0.6548
87772W        W30763   0.663  23.440   7.198  0.1645 -0.2405 -0.1636
87773W        W30764  25.458   5.253   6.110 -0.0660  0.0521 -0.1910
87774W        W30765  30.066   5.976   2.665  0.3022  0.0199 -0.3364
87775W        W30766  12.107  32.548  25.431 -0.1953  0.1033 -0.2484
87776W        W30767   2.327  28.358   7.647  0.0920 -0.0795 -0.3625
87777W        W30768  12.760   7.429  27.456  0.0385 -0.0768  0.1168
87778W        W30769  22.254   5.771  26.493  0.2911  0.1647  0.0911
87779W        W30770  13.614   8.943   2.612 -0.0055 -0.0698 -0.0417
87780W        W30771  20.029   5.259   0.172  0.0245  0.1982  0.2326
87781W        W30772  14.742  18.636  12.548 -0.1968 -0.3206  0.1476
87782W        W30773  24.855  30.940  24.106 -0.1520  0.0261 -0.1451
87783W        W30774   1.981  31.429   4.098 -0.1005  0.2280 -0.1750
87784W        W30775  22.524  26.944  28.550 -0.0740  0.0378  0.1792
87785W        W30776  18.031  12.155  17.979 -0.0180 -0.1287  0.0779
87786W        W30777  25.375  10.458   8.859  0.1250  0.1020  0.0929
87787W        W30778  13.829   0.743   9.617  0.1801  0.1467  0.1810
87788W        W30779  14.423  13.809  25.701  0.2730  0.0077  0.0393
87789W        W30780  17.302   8.541  22.871 -0.1489 -0.4262  0.1269
87790W        W30781   2.486   8.490   2.527  0.1679  0.0521  0.0499
87791W        W30782  19.692  28.445   2.360  0.1296  0.1227 -0.1939
87792W        W30783  11.194  33.522   3.005  0.0491 -0.0768  0.0450
87793W        W30784  31.134  20.365  23.121 -0.0761 -0.0199 -0.1601
87794W        W30785   6.895  20.565   1.158 -0.1693  0.0665  0.0252
87795W        W30786  29.396  26.451  26.859  0.3673 -0.0391 -0.2637
87796W        W30787  27.739   8.337   2.944 -0.0545 -0.0981 -0.0165
87797W        W30788  14.624  12.298  22.861  0.1342 -0.1989 -0.0089
87798W        W30789  19.979   5.862  16.256  0.0059 -0.1676 -0.0065
87799W        W30790  26.720   1.960   8.066 -0.2301  0.1394  0.1195
87800W        W30791  11.175  17.835  25.687  0.0881 -0.0433 -0.0896
87801W        W30792  29.107  11.522   3.334  0.1529  0.2152  0.2133
87802W        W30793  15.426  21.786   2.466 -0.0986  0.0360  0.0130
87803W        W30794   2.589   8.018  28.819  0.0800  0.0523  0.1100
87804W        W30795  24.000  17.255  28.234 -0.4271  0.2847  0.1110
87805W        W30796   5.622   4.299   8.747 -0.1714  0.0667  0.3168
87806W        W30797  22.220   4.624   1.867  0.0968  0.0539  0.0561
87807W        W30798  16.284  12.571  27.256 -0.2204  0.1086  0.2643
87808W        W30799  21.587   8.753  25.160 -0.1452  0.3134 -0.0299
87809W        W30800   9.656   1.981   8.816  0.3892  0.2387 -0.1008
87810W        W30801   6.161   3.802   8.583  0.0622 -0.0147  0.1865
87811W        W30802  23.322  13.431  16.597  0.3949 -0.0596  0.4150
87812W        W30803  25.396  32.352  28.665 -0.0610 -0.2070  0.0255
87813W        W30804   1.368   7.301  22.867 -0.1670  0.3633  0.1323
87814W        W30805  19.940   9.571  14.937  0.1433  0.1706 -0.0167
87815W        W30806  26.778  20.665  19.967  0.0838  0.1204  0.1482
87816W        W30807  33.721   6.579  19.266 -0.0310 -0.0681  0.1457
87817W        W30808  24.743  16.223  17.271 -0.2722 -0.1257 -0.0438
87818W        W30809  27.802  20.350  21.802  0.2235 -0.2044 -0.2337
87819W        W30810  26.961  24.001  19.214 -0.0219  0.0642 -0.5227
87820W        W30811  23.674  17.660  22.919  0.1565 -0.0774 -0.2240
87821W        W30812  25.623  26.407  22.381  0.3767 -0.2031  0.0805
87822W        W30813   8.844  15.836  15.095 -0.1654 -0.0658  0.0643
87823W        W30814  19.313  27.813  23.559  0.0079  0.1272 -0.1402
87824W        W30815  22.050  26.803  15.281 -0.1869  0.0665 -0.2732
87825W        W30816  18.982  12.841  23.541 -0.1964  0.2426  0.1439
87826W        W30817   5.499  17.361  16.485  0.0675 -0.1402 -0.1596
87827W        W30818  12.337  13.264  17.173 -0.0757  0.0239  0.2314
87828W        W30819  16.816   5.489  15.733 -0.1138 -0.1592  0.1389
87829W        W30820  13.964   2.276  28.769  0.0198  0.2620  0.0678
87830W        W30821  17.955   7.267  16.655 -0.3423  0.1247 -0.0488
87831W        W30822   9.452  12.513  18.089 -0.0199  0.2347  0.0737
87832W        W30823  24.175  25.267  23.076 -0.0684 -0.0021 -0.0960
87833W        W30824  26.402   8.522  18.981 -0.0224  0.0554  0.1040
87834W        W30825  28.494   3.138  24.504  0.1720  0.0022  0.1939
87835W        W30826  15.011  32.328  17.553  0.0723 -0.1653  0.1744
87836W        W30827  23.159  16.688  18.759  0.1013  0.0836  0.0001
87837W        W30828  19.473   7.361  15.724  0.0279  0.2450  0.2993
87838W        W30829  21.840  11.770  27.902 -0.0353 -0.0062  0.2754
87839W        W30830  26.421  21.395  16.022  0.3649  0.1698 -0.2170
87840W        W30831  28.343  18.374  17.926  0.1583 -0.1424 -0.1334
87841W        W30832  18.332  28.676  25.973  0.3092  0.1136 -0.0407
87842W        W30833  23.167  30.850  19.078  0.2193 -0.0723 -0.0129
87843W        W30834  20.952  23.840  20.087  0.0143  0.3145 -0.2045
87844W        W30835   2.833  21.909  20.856 -0.1302  0.3724 -0.3866
87845W        W30836   7.928  19.936  20.014  0.0831  0.2469  0.0333
87846W        W30837  28.085  33.005  22.014  0.0928  0.1903  0.0357
87847W        W30838  30.636   7.588  15.585 -0.0178 -0.3206  0.1705
87848W        W30839  13.051  20.021  12.744 -0.0890  0.0373 -0.2404
87849W        W30840  21.786  32.739  18.097  0.3689  0.3865 -0.0840
87850W        W30841  10.487  34.311  27.617 -0.1336  0.1636 -0.2636
87851W        W30842  18.233  19.552  23.371  0.0573  0.1961 -0.0173
87852W        W30843  25.875  18.932  18.866  0.1363 -0.0163  0.0040
87853W        W30844  24.781  14.515  25.548  0.0918  0.2980  0.1376
87854W        W30845  25.100  31.897  20.056 -0.0139  0.1272 -0.3444
87855W        W30846   1.321  13.472  24.094  0.0673  0.0619  0.1292
87856W        W30847  24.616  18.668  12.993 -0.0190  0.1652 -0.1116
87857W        W30848  31.678  10.673  18.593 -0.1411  0.0664  0.3926
87858W        W30849  19.652  24.865  21.260 -0.1220  0.1057  0.4628
87859W        W30850   8.035  11.504  20.888  0.2724 -0.0828 -0.1635
87860W        W30851  25.301  30.088  14.765  0.2288  0.0122  0.2183
87861W        W30852  23.039   2.837  27.832  0.1970 -0.0186 -0.3758
87862W        W30853  14.379  16.252   2.277 -0.1638 -0.1712 -0.1309
87863W        W30854  18.219   9.147  14.993  0.1070 -0.1268  0.3886
87864W        W30855  10.628  10.908  15.848 -0.4144  0.1214 -0.0628
87865W        W30856  26.411  33.425  20.695  0.1079  0.2992 -0.2849
87866W        W30857   5.532  25.998   4.255 -0.4137  0.1054  0.0454
87867W        W30858  22.361  10.098  15.577  0.1499 -0.1985 -0.3133
87868W        W30859  12.670  19.762  24.891  0.0300 -0.0995 -0.0394
87869W        W30860  12.607  13.577  16.015 -0.1144  0.1438 -0.1905
87870W        W30861  30.039  17.761  15.201 -0.0631  0.0637 -0.3054
87871W        W30862  23.950  21.028   5.046 -0.2436 -0.0173 -0.1856
87872W        W30863  28.429  15.915   1.328  0.1900 -0.0287  0.1497
87873W        W30864  16.382  14.968  27.351  0.0553  0.1416 -0.0133
87874W        W30865  27.309  14.391  19.067 -0.0345 -0.0378 -0.3717
87875W        W30866  19.364   5.158  22.349 -0.0261 -0.1863 -0.1552
87876W        W30867  24.602  20.965  25.951 -0.3776  0.2057 -0.0135
87877W        W30868  31.793   0.409  18.765 -0.1763 -0.0850 -0.1724
87878W        W30869  16.043   8.388  16.848 -0.0828 -0.1317 -0.0726
87879W        W30870  19.643   8.493  15.760  0.0403  0.0028 -0.1693
87880W        W30871  13.071  23.538  14.465  0.0219 -0.4277 -0.0962
87881W        W30872  22.902  16.743  16.419 -0.3218 -0.1832 -0.4539
87882W        W30873  23.926   7.195  17.425 -0.2438  0.0829  0.0099
87883W        W30874   6.019  32.637  25.915  0.3047 -0.0506 -0.1658
87884W        W30875  13.458  14.243   0.228  0.1024 -0.0499 -0.0219
87885W        W30876  23.531  17.036  20.689  0.1563  0.0236  0.2715
87886W        W30877  12.713   7.895  22.745  0.1500  0.2332 -0.2285
87887W        W30878  21.395  12.384  26.297  0.3244  0.0477  0.0449
87888W        W30879  31.321  23.843  22.432  0.1789  0.0279 -0.0316
87889W        W30880  18.417  13.881  26.829  0.2137  0.0729  0.2137
87890W        W30881  16.571  23.845  12.888  0.0483 -0.0629 -0.0943
87891W        W30882  29.647  20.782  16.877 -0.2186 -0.3499  0.4097
87892W        W30883  16.560  13.090   2.428 -0.1734 -0.0722 -0.2400
87893W        W30884  13.209   8.175  16.368 -0.0001  0.1506  0.0241
87894W        W30885  14.516  18.630   6.565 -0.1711 -0.0102 -0.1127
87895W        W30886  32.036  10.048  16.322 -0.0964 -0.2398 -0.1062
87896W        W30887  15.719  12.358  15.714  0.2225 -0.1219 -0.1163
87897W        W30888  19.102  11.314  18.434  0.3553  0.1302 -0.0232
87898W        W30889  18.886   3.036  16.934 -0.1216  0.0757 -0.0917
87899W        W30890   7.745  33.941   0.881 -0.0214  0.0180 -0.2655
87900W        W30891   9.329  10.731  27.055 -0.0338 -0.0190 -0.1382
87901W        W30892  14.271  10.915  19.278  0.1991  0.0004  0.0559
87902W        W30893   1.055  22.379  21.830 -0.1123 -0.3025  0.0986
87903W        W30894  22.597  17.204   2.920  0.1399 -0.0596  0.1867
87904W        W30895  13.252  18.356  12.823 -0.0571 -0.0099  0.0317
87905W        W30896  20.836   1.598   0.740  0.0264  0.0031 -0.3123
87906W        W30897  18.406   7.483  21.784 -0.1728 -0.0403  0.0726
87907W        W30898  25.567  19.346  24.072  0.0501 -0.0682  0.0402
87908W        W30899  21.664  12.932  14.000 -0.1577  0.0059 -0.1022
87909W        W30900  13.478   0.344  28.280 -0.2008 -0.2129  0.0720
87910W        W30901   8.123  13.899  16.593 -0.1642  0.1015 -0.0136
87911W        W30902  16.114  23.805  18.888  0.1703 -0.1391 -0.2445
87912W        W30903  21.914  10.609  18.998  0.0916 -0.2374  0.0106
87913W        W30904  21.371  14.465  26.498 -0.0695  0.0462 -0.1992
87914W        W30905  17.671  22.677  17.505 -0.4812 -0.1373 -0.2739
87915W        W30906  13.116  18.133  25.522 -0.1105 -0.0648  0.0105
87916W        W30907   9.456  18.434  28.362 -0.2541 -0.0448  0.2192
87917W        W30908  20.141  11.870  18.643  0.2838 -0.0718  0.1749
87918W        W30909  18.699  11.371  13.261 -0.1510 -0.2324  0.3228
87919W        W30910  29.763  15.098  16.937 -0.0560 -0.0113 -0.1025
87920W        W30911  17.296  12.066  14.608 -0.1145  0.1327 -0.1717
87921W        W30912  25.224  22.685  14.788 -0.0317 -0.1504 -0.2287
87922W        W30913  11.497  22.526  28.967 -0.2571 -0.2640 -0.3067
87923W        W30914  29.232  26.074  15.785 -0.1640 -0.3087  0.0696
87924W        W30915   8.412  13.395  15.555 -0.0561 -0.2551 -0.0862
87925W        W30916  20.536  25.107  16.575  0.1777  0.3682  0.1285
87926W        W30917  17.464  22.570  19.010  0.2317 -0.1547  0.0884
87927W        W30918  19.423  11.501  20.273  0.1111  0.0171  0.1786
87928W        W30919  17.339   2.321  24.790  0.0235  0.4535 -0.3603
87929W        W30920  15.801  30.487  19.020  0.0822  0.0230  0.1897
87930W        W30921  20.177  26.665  13.195 -0.3304  0.0978 -0.1576
87931W        W30922  24.227  20.032  22.451  0.0894  0.2069 -0.0685
87932W        W30923  30.907  27.453  24.639  0.2956  0.1385 -0.2327
87933W        W30924  13.018  11.674   0.448  0.0951 -0.1827  0.2823
87934W        W30925   4.022  23.999  17.346  0.0556  0.0656 -0.3294
87935W        W30926  31.398  14.070  18.126 -0.2827  0.3601  0.1582
87936W        W30927  20.193  27.285  14.901 -0.2405 -0.0108 -0.0996
87937W        W30928  14.419   2.833  19.215 -0.2135 -0.0543  0.1093
87938W        W30929  24.850   7.408  15.665 -0.2923  0.0835 -0.2251
87939W        W30930  20.175  20.809  14.692  0.0885 -0.0866 -0.1236
87940W        W30931  25.305   2.735   0.217 -0.3134 -0.0314 -0.0826
87941W        W30932  27.862  34.171   0.763 -0.0466 -0.0338  0.1024
87942W        W30933  19.158  23.555  16.899 -0.0209  0.1998  0.0377
87943W        W30934  20.049  13.827   0.997 -0.0992 -0.0711 -0.0602
87944W        W30935  26.438  19.243  16.169 -0.0068  0.1514  0.1015
87945W        W30936  18.696  13.407  27.655 -0.0106  0.2140  0.3590
87946W        W30937  18.960  21.331  17.578  0.4106  0.1949  0.2284
87947W        W30938  25.519  12.232  22.655  0.1678  0.0791  0.0659
87948W        W30939  19.191  16.528  25.508 -0.3886 -0.2367  0.0348
87949W        W30940   0.206  31.492  20.996  0.0231  0.1395  0.1429
87950W        W30941  22.062   0.026  15.530  0.0062 -0.0556  0.1866
87951W        W30942  20.286   9.710  29.024 -0.2606 -0.0289  0.2146
87952W        W30943  27.808  10.326  19.419 -0.0342 -0.1666  0.3171
87953W        W30944  27.208  11.731  24.165  0.0864 -0.3022  0.0931
87954W        W30945   9.381  19.449  17.971  0.0569  0.1427  0.0123
87955W        W30946  23.105  21.187  18.079 -0.4078  0.1234 -0.1908
87956W        W30947  21.187  16.168   2.985  0.1788  0.3151  0.0236
87957W        W30948  16.005   3.709  20.961 -0.1309 -0.2846 -0.3568
87958W        W30949  32.152  18.937  21.370 -0.0390  0.0848 -0.1164
87959W        W30950  27.752  22.943  21.616 -0.1502 -0.0528 -0.1291
87960W        W30951  29.152  22.092  16.018  0.1808  0.2268  0.0257
87961W        W30952  33.687  11.612  22.477  0.0636 -0.2682  0.1100
87962W        W30953   5.192   0.187  23.351 -0.1356 -0.0447 -0.2418
87963W        W30954  20.147  24.638   1.852 -0.0602 -0.0606 -0.1643
87964W        W30955  13.154   3.014  19.023  0.1720  0.0211 -0.2981
87965W        W30956  15.736  25.116  15.573  0.0324  0.2752  0.1182
87966W        W30957  33.276  18.800  26.707  0.0964 -0.3566  0.2717
87967W        W30958   4.093  22.630  17.280  0.1984  0.2146  0.0557
87968W        W30959  31.061   0.855  19.693 -0.3204 -0.1282  0.0414
87969W        W30960  27.879  23.274  22.508 -0.2871 -0.1792  0.0235
87970W        W30961   0.383  16.725  22.249  0.1088 -0.2455  0.1798
87971W        W30962   3.854  19.337  26.926  0.4608  0.1051  0.0395
87972W        W30963  26.931  20.670  27.840 -0.0417 -0.1436 -0.3442
87973W        W30964  18.732  33.365  24.047  0.0076  0.1302 -0.0524
87974W        W30965   6.348   5.656  15.767 -0.1773 -0.0673  0.0693
87975W        W30966  12.048  21.484  17.717  0.0263 -0.2902  0.0526
87976W        W30967  32.280  28.261  14.952 -0.0046 -0.1908  0.0625
87977W        W30968  14.212   8.147  23.805  0.3145 -0.2080 -0.0876
87978W        W30969  28.933   3.336  19.706  0.0206 -0.2070  0.0143
87979W        W30970  23.681   6.191  23.026 -0.1860 -0.1874 -0.1688
87980W        W30971   9.907  17.738  18.008 -0.2886 -0.2324  0.0639
87981W        W30972  11.702   5.807  21.443  0.1332  0.1589 -0.1879
87982W        W30973  21.851  21.439  21.486  0.1414 -0.0207  0.1283
87983W        W30974  23.103  17.999   3.237  0.2754 -0.0333  0.0958
87984W        W30975  22.643  21.716   1.324  0.5558  0.3370  0.0903
87985W        W30976  18.281  18.637  15.145  0.1872 -0.2556 -0.0933
87986W        W30977  27.122  33.754  23.606 -0.0478  0.0619  0.0911
87987W        W30978   3.699  29.546   0.492 -0.0595 -0.0552 -0.0356
87988W        W30979  16.058   5.983  28.418  0.0391 -0.2668 -0.0172
87989W        W30980  19.364  11.675  27.132  0.0086 -0.2729 -0.0704
87990W        W30981   1.319  19.337  27.856  0.5831  0.0780 -0.1170
87991W        W30982  18.531  10.117  16.597 -0.3941  0.1529 -0.2652
87992W        W30983   2.802  26.833  26.356  0.0948  0.2574 -0.3415
87993W        W30984  11.144   5.354  14.467 -0.0673 -0.2037  0.1462
87994W        W30985  14.525   8.525  25.576  0.0327 -0.0253 -0.2717
87995W        W30986  24.151  19.035  15.776 -0.0472 -0.1081 -0.0566
87996W        W30987  17.226   4.711  15.041  0.1011  0.1480 -0.2273
87997W        W30988  14.045  16.952  15.014  0.1021  0.1770 -0.0185
87998W        W30989  19.743  14.615  14.165 -0.0939  0.1211  0.2793
87999W        W30990  27.164  21.210  18.998  0.4063  0.1053  0.1325
88000W        W30991  19.823  26.549  16.906 -0.0819 -0.0909 -0.1585
88001W        W30992  30.482  29.792  22.188  0.0116  0.0756  0.1347
88002W        W30993  26.443  25.072  25.245 -0.0725 -0.1566 -0.3270
88003W        W30994  22.727  11.775   1.299 -0.0442  0.0538  0.0796
88004W        W30995  23.034   6.358   8.455 -0.3848 -0.0413 -0.0719
88005W        W30996  16.322  24.223  19.559 -0.0671  0.0106  0.0828
88006W        W30997  25.682  10.902  19.770  0.0884 -0.0497  0.0511
88007W        W30998   0.732  13.475  15.522  0.0905 -0.1334  0.3334
88008W        W30999   5.811  14.849   2.298  0.1398 -0.0714  0.0495
88009W        W31000  11.271  17.902  13.219 -0.0455 -0.0504 -0.0442
88010W        W31001  19.775   8.879  16.019  0.1467 -0.0788 -0.0380
88011W        W31002  26.586   7.397  22.826  0.3626 -0.1387  0.1382
88012W        W31003  17.102   0.082   3.751  0.0353 -0.0875 -0.0688
88013W        W31004  28.860  15.581  21.751 -0.0063 -0.0824  0.1668
88014W        W31005  13.879   9.145  22.251  0.0615  0.0836 -0.0456
88015W        W31006  22.810  13.774  17.300  0.0348 -0.3133  0.1363
88016W        W31007  24.644  15.497  19.266 -0.3474 -0.2423  0.2748
88017W        W31008  24.035  18.223  21.215 -0.0089  0.0062 -0.1512
88018W        W31009  24.468  19.252  20.362  0.0851 -0.0604 -0.1695
88019W        W31010   2.259  27.981  19.901 -0.2066 -0.2036 -0.4298
88020W        W31011  27.672   5.134  21.054  0.0264 -0.1997  0.0955
88021W        W31012   6.817  13.592  24.128 -0.0544 -0.0195  0.0772
88022W        W31013  27.332  15.489  19.564 -0.1758  0.0238  0.0947
88023W        W31014  14.259  23.605  23.963 -0.2913  0.1616  0.1039
88024W        W31015  25.547  32.919   4.039  0.0102  0.0739 -0.0906
88025W        W31016  12.965   7.742  20.201 -0.2371  0.1980 -0.0411
88026W        W31017  26.629   8.243  21.364 -0.0141  0.0306  0.0930
88027W        W31018  29.248  18.582  18.271  0.0645 -0.1330  0.1677
88028W        W31019  21.243  20.774  22.232 -0.1971  0.0721  0.0629
88029W        W31020   2.871   4.043  24.664  0.1224 -0.2610 -0.0206
88030W        W31021  24.320   6.693   7.419  0.0921 -0.3033  0.1685
88031W        W31022   8.175  11.254  28.155  0.1642  0.0642 -0.4226
88032W        W31023  21.194  12.052  21.182 -0.1097 -0.0654  0.3000
88033W        W31024  12.340  28.652  28.221 -0.2672  0.0084  0.0343
88034W        W31025  24.718  34.294  25.566 -0.2118 -0.0507  0.0311
88035W        W31026  15.622  12.866  22.352  0.2676 -0.0603  0.1041
88036W        W31027  25.979   0.297  26.508 -0.3269 -0.0636  0.1984
88037W        W31028  18.301  11.132  15.954  0.2279  0.0697 -0.2034
88038W        W31029  29.389  27.981  25.494 -0.0626  0.1530  0.0176
88039W        W31030  27.372  24.031  13.090 -0.1057 -0.2352  0.4736
88040W        W31031  27.537  15.613  24.151 -0.0749 -0.3156  0.2071
88041W        W31032   2.727  26.532  16.507 -0.0045 -0.1482  0.0078
88042W        W31033   3.176   5.660  16.021  0.0704 -0.1824 -0.4570
88043W        W31034  11.878   8.964  17.486 -0.1549 -0.1251 -0.2445
88044W        W31035   1.518  22.496  21.621  0.1442  0.1715  0.2956
88045W        W31036  32.645  25.337  28.607  0.1933  0.3024 -0.1840
88046W        W31037  21.227  21.625  14.976  0.1784 -0.2858 -0.4295
88047W        W31038  16.569  10.191  28.365  0.0675 -0.1428  0.1870
88048W        W31039  11.302  19.156  16.763 -0.0426  0.1761 -0.1917
88049W        W31040  19.345  16.419  15.774 -0.2050 -0.2945  0.0841
88050W        W31041  25.897  14.992  15.868 -0.0019 -0.1071  0.2058
88051W        W31042  33.825  32.859  26.812  0.1310 -0.1818  0.0952
88052W        W31043  22.650  13.718  20.252 -0.1699 -0.0310 -0.0514
88053W        W31044  20.611  17.677  14.692 -0.2307 -0.1355 -0.2056
88054W        W31045  30.310  13.257  27.971 -0.2913  0.0349 -0.1865
88055W        W31046   7.906  11.661   6.658  0.0870 -0.2913  0.2993
88056W        W31047  29.430  16.853  17.893 -0.0954  0.0396  0.0366
88057W        W31048  15.182  16.061  18.019  0.1215 -0.0840  0.1072
88058W        W31049   9.509   9.129  16.070 -0.0013 -0.0305  0.0188
88059W        W31050  14.373  33.177  15.857  0.0803  0.3382  0.0922
88060W        W31051  29.008   8.406  16.431  0.1584 -0.3461 -0.0085
88061W        W31052  15.836  12.802  20.620  0.1571  0.1360 -0.1440
88062W        W31053  10.774  31.256  14.845 -0.2713 -0.0305  0.0648
88063W        W31054  30.200  19.017  15.455  0.1436  0.1918 -0.0179
88064W        W31055  24.616  18.388  20.030  0.0518  0.0978 -0.0722
88065W        W31056  34.460  17.935  22.312  0.3052  0.2041 -0.0044
88066W        W31057  26.806  30.102  17.231  0.0030 -0.0862  0.0949
88067W        W31058  13.998  34.296  17.381  0.2098  0.3443  0.0754
88068W        W31059  18.356  16.475  13.187  0.0018  0.3355  0.1131
88069W        W31060  16.923   9.098  19.112  0.1486  0.0055 -0.0127
88070W        W31061  28.513  15.994  20.419  0.0823 -0.0398  0.0322
88071W        W31062  17.550   9.868  22.591  0.1825 -0.1172 -0.0489
88072W        W31063  23.768  13.015  13.198  0.0021 -0.0198  0.2131
88073W        W31064  25.335  20.589  26.934 -0.0412  0.1226  0.0034
88074W        W31065  26.623  10.945  16.854  0.1716  0.1433  0.1324
88075W        W31066  10.759  22.268  26.566 -0.1492  0.0532 -0.4267
88076W        W31067  24.665  12.896  22.083  0.0789 -0.2276  0.1554
88077W        W31068  19.480  20.386  18.974  0.1207 -0.1406  0.1493
88078W        W31069  13.174   6.255  15.368  0.1682 -0.1389 -0.0296
88079W        W31070   8.736  15.221  18.571  0.1475 -0.0886 -0.0898
88080W        W31071  23.116  24.943  15.828 -0.0776 -0.0278  0.1906
88081W        W31072  18.046  11.087  22.352 -0.0608  0.0602 -0.0551
88082W        W31073  18.172  19.901  14.214  0.2569  0.1245  0.4593
88083W        W31074  24.165  24.076  14.038  0.0371  0.0437  0.3547
88084W        W31075  29.132  24.202  28.632  0.0441  0.2190  0.0423
88085W        W31076  16.625   1.927  14.884  0.0366  0.3742  0.2941
88086W        W31077  12.762  16.429  26.280 -0.0099 -0.0757 -0.3813
88087W        W31078  18.243   7.359   0.100 -0.0433 -0.1863  0.4358
88088W        W31079  19.145  13.998   2.930  0.2638  0.5751  0.0544
88089W        W31080   3.154  16.502  19.059  0.2117 -0.0977 -0.4297
88090W        W31081  24.737   4.237  20.256  0.0148 -0.2726  0.1077
88091W        W31082   5.343  17.390  21.166  0.2780 -0.0626 -0.1009
88092W        W31083  30.865   8.649  19.585  0.2727 -0.1859 -0.1674
88093W        W31084   9.489  32.835   8.698  0.1428 -0.0943  0.1063
88094W        W31085  28.897  12.785  15.192 -0.2377  0.1250  0.0642
88095W        W31086  23.372  22.108  16.206 -0.0059  0.1204 -0.0366
88096W        W31087  19.713  15.065  16.589  0.2290 -0.2215  0.1337
88097W        W31088  12.339  20.542  14.792  0.0326 -0.0741  0.2118
88098W        W31089  24.902   8.460  26.045  0.1766 -0.2419  0.0928
88099W        W31090  18.528  22.740  13.421 -0.0399  0.1189  0.1465
88100W        W31091  11.612  10.390  24.307  0.0711  0.0593 -0.0254
88101W        W31092  30.640  24.593  21.920  0.4292  0.2961  0.2451
88102W        W31093  14.484  17.027  14.571 -0.0222 -0.3265  0.0972
88103W        W31094  16.655  24.994   8.106 -0.2528 -0.0756  0.0714
88104W        W31095  20.231  27.933  19.632  0.1341 -0.1219  0.1698
88105W        W31096  31.127  19.125  28.818  0.0913  0.3430  0.0636
88106W        W31097   0.192   0.121  29.079  0.3224  0.1137 -0.0206
88107W        W31098  10.672  30.262  23.437  0.1735  0.0916 -0.1258
88108W        W31099  20.460  23.057  13.279  0.0442  0.0446  0.0120
88109W        W31100  12.378  13.841   0.339  0.1389 -0.2786  0.0949
88110W        W31101   9.175  20.337  16.677 -0.0457  0.4132 -0.1706
88111W        W31102   4.867  30.034  23.873 -0.2631  0.1242 -0.2567
88112W        W31103  24.841  20.783  14.597  0.0007 -0.0781  0.3182
88113W        W31104  12.862  25.255  18.980  0.0487  0.0330 -0.0975
88114W        W31105  24.917   4.224  19.778  0.0563 -0.2749  0.3306
88115W        W31106  15.348   9.949  18.790  0.1811 -0.0036 -0.3278
88116W        W31107  10.430  17.796  24.412 -0.2719  0.1373  0.0497
88117W        W31108  22.739  21.190   5.876 -0.0045  0.3198 -0.2011
88118W        W31109  11.148  26.135  18.270  0.2635  0.0248 -0.0231
88119W        W31110  26.438   8.210  13.961  0.1039  0.0991  0.0381
88120W        W31111  28.521   4.363  20.263  0.0748 -0.0918 -0.1581
88121W        W31112  27.778  34.629  20.276  0.2969 -0.2539  0.0340
88122W        W31113  10.849  11.670  21.012  0.0711  0.1171 -0.0219
88123W        W31114  19.125  26.318   2.967  0.4986 -0.0069 -0.2200
88124W        W31115   6.930   5.045  18.730 -0.2663 -0.1120  0.0422
88125W        W31116  30.332  20.474  17.939  0.0533  0.1447 -0.0534
88126W        W31117   8.211   6.018  17.694 -0.1749 -0.0156  0.1596
88127W        W31118  33.425  20.043  21.907 -0.0756 -0.0554  0.1636
88128W        W31119  13.908  32.016  22.978  0.0770 -0.2853  0.2665
88129W        W31120   8.538  15.746  17.063  0.2780 -0.3665  0.1826
88130W        W31121   6.886  18.810  22.056  0.0562  0.1282  0.0078
88131W        W31122  21.020   8.575  23.536  0.2171 -0.0246  0.1491
88132W        W31123  31.954  18.218  18.122  0.0719  0.1878  0.0858
88133W        W31124  20.861   4.147  19.235  0.1648 -0.1507  0.0562
88134W        W31125   9.943  30.430  16.960 -0.2614  0.0790  0.1489
88135W        W31126   1.079   1.628  15.046 -0.0097 -0.0655 -0.2029
88136W        W31127  20.011  16.027  13.404 -0.1928  0.1685 -0.0190
88137W        W31128  18.426   5.963  18.995  0.1239  0.3148 -0.0341
88138W        W31129  17.373  21.491  25.614 -0.2178 -0.1464  0.1227
88139W        W31130  22.925   6.543  14.186 -0.2294  0.2338 -0.4538
88140W        W31131  19.835  16.483  22.837 -0.2926  0.1237 -0.0001
88141W        W31132  21.947  22.659  14.275 -0.4409 -0.0286 -0.4419
88142W        W31133  16.858   6.988  26.520  0.1967  0.1023  0.0712
88143W        W31134   9.448  18.001  19.716 -0.1507  0.0124 -0.2487
88144W        W31135  21.582  19.290  16.237 -0.3247 -0.1078 -0.0663
88145W        W31136  11.475  31.778   2.279  0.0501 -0.2595  0.0235
88146W        W31137  14.911   6.239  21.803  0.1361 -0.3086 -0.0520
88147W        W31138  12.896  15.538  20.595  0.1113 -0.1682 -0.0394
88148W        W31139  33.215   7.582  17.527  0.3855 -0.2429  0.1471
88149W        W31140  10.903   5.250  28.327 -0.4200  0.1040 -0.2730
88150W        W31141   7.179   6.622   2.526 -0.1429  0.3298 -0.1881
88151W        W31142  15.360  13.413  18.650  0.1072 -0.2442  0.3767
88152W        W31143   9.313  27.191  28.916  0.1227 -0.3647 -0.1848
88153W        W31144  17.389  20.534  15.313 -0.0772 -0.0008  0.0703
88154W        W31145  17.705   3.256  19.819 -0.1167 -0.1249  0.0404
88155W        W31146   3.833  15.171  15.920  0.3586 -0.0897  0.2375
88156W        W31147  15.672  25.969  16.972  0.1362 -0.3782 -0.1805
88157W        W31148  25.375   8.558   0.019  0.1532  0.1342  0.1931
88158W        W31149  24.580  30.099  17.410  0.0171  0.0363  0.2507
88159W        W31150  17.369   2.741   1.222  0.0799 -0.0754 -0.0768
88160W        W31151  22.894  10.282  22.287 -0.0796 -0.1569  0.0629
88161W        W31152  21.660  15.326  19.596  0.0676  0.0445  0.0914
88162W        W31153  28.353  33.294  18.537 -0.1789  0.2540 -0.1551
88163W        W31154  10.135  16.575  18.853 -0.0701 -0.1453 -0.3611
88164W        W31155   3.413   7.864  19.387 -0.0935  0.2218  0.1746
88165W        W31156  23.723  26.165  23.357  0.1989  0.1238 -0.4172
88166W        W31157  14.346  20.382  18.393 -0.2017 -0.2919  0.2556
88167W        W31158  33.147  22.136  15.385 -0.1099 -0.0996  0.0863
88168W        W31159   7.794  33.612  22.301  0.1603 -0.0276  0.0778
88169W        W31160  25.121  19.125   0.936  0.1601 -0.1786  0.2426
88170W        W31161  23.752   4.829  20.822  0.0307  0.0592 -0.1768
88171W        W31162  11.133  14.790  16.360  0.2757 -0.1637  0.2477
88172W        W31163   3.842  14.042  17.651  0.0569 -0.3375 -0.2952
88173W        W31164  14.641   8.381  18.020 -0.1951 -0.0453  0.0731
88174W        W31165   8.144  20.872  20.666  0.0566  0.1271 -0.4316
88175W        W31166   7.043   3.838  25.027  0.1934 -0.0777 -0.1309
88176W        W31167   4.828   9.829  22.274  0.0355 -0.1602  0.0358
88177W        W31168  26.136  11.897  14.994 -0.1812 -0.0442 -0.1585
88178W        W31169  34.213  20.734  20.832  0.0021  0.1533 -0.4762
88179W        W31170  21.999   8.496   0.589  0.2694  0.0739  0.0044
88180W        W31171   7.977  25.972  21.537  0.2367 -0.1258 -0.1030
88181W        W31172  27.937   6.687   1.424 -0.3087  0.0233 -0.1439
88182W        W31173  22.556  29.734   0.199  0.0359  0.1160 -0.0426
88183W        W31174   9.622  34.265  24.872 -0.2841  0.1145  0.2509
88184W        W31175  22.193   6.866  16.793  0.3274  0.1794 -0.0930
88185W        W31176   1.195  16.862  24.048  0.0647 -0.3194  0.1112
88186W        W31177  17.686  13.972  25.366  0.4957  0.0696  0.1878
88187W        W31178  13.882  33.955   5.207 -0.1865  0.2948  0.0908
88188W        W31179   9.958  13.156  19.652 -0.3057 -0.0754 -0.0561
88189W        W31180  20.740  15.194  15.014 -0.0746 -0.0781  0.0350
88190W        W31181  21.459  25.199  24.021 -0.1956  0.2405 -0.0009
88191W        W31182   7.489  14.954  26.990 -0.2330 -0.0104  0.4399
88192W        W31183  13.410   1.986  22.415 -0.0981  0.0176 -0.0446
88193W        W31184  29.229  20.918  22.880  0.0911  0.0167 -0.0259
88194W        W31185  15.556   6.012   3.916  0.0052  0.3298 -0.0263
88195W        W31186  26.060  18.402  18.180  0.0236 -0.2016  0.1757
88196W        W31187  20.632  21.396  22.814 -0.0309  0.0763  0.2548
88197W        W31188  23.434   7.805  14.910 -0.1180  0.0778  0.0738
88198W        W31189   2.435  21.090  26.163 -0.1272  0.0653  0.2503
88199W        W31190   0.490  16.784  21.065  0.0123 -0.2232 -0.1659
88200W        W31191   2.153   6.754   4.840 -0.2214  0.1737 -0.1955
88201W        W31192  30.005  28.321  15.861 -0.0883 -0.1394 -0.1771
88202W        W31193  13.980  11.924  16.667 -0.2784 -0.1238  0.0652
88203W        W31194  21.782   5.149  13.987  0.0480  0.1581  0.1926
88204W        W31195  17.044   6.511  17.453  0.1082  0.2099  0.1821
88205W        W31196  24.218  29.976  19.110 -0.3596 -0.2805 -0.1639
88206W        W31197  24.338  28.321  15.530  0.0646  0.1158  0.2049
88207W        W31198  24.620  17.723  18.337  0.0823  0.3222  0.1705
88208W        W31199   7.762  22.100   4.100 -0.2058  0.0846  0.2596
88209W        W31200  19.242  13.256  13.693  0.0682  0.2626  0.0798
88210W        W31201   0.266  13.447  23.337 -0.0053 -0.1213 -0.0256
88211W        W31202  10.341  33.856  29.160  0.1361  0.3554 -0.0313
88212W        W31203   0.139   0.294   4.686  0.3287 -0.0794 -0.1089
88213W        W31204   9.479  22.286   7.193 -0.2628  0.1864 -0.2370
88214W        W31205  25.498  19.214  19.005  0.2228  0.3184 -0.1651
88215W        W31206  20.508  11.737  19.060  0.2284  0.1452 -0.1034
88216W        W31207  19.886   6.314  14.820  0.1744 -0.0689  0.0052
88217W        W31208   2.026  26.847   7.633  0.1770  0.1876 -0.0227
88218W        W31209  30.103   6.445   6.162 -0.0445  0.1129 -0.2157
88219W        W31210  20.749  32.588   6.435  0.0177  0.0848 -0.0147
88220W        W31211  19.923  15.213  15.000 -0.1980 -0.3714 -0.1295
88221W        W31212  13.977   5.967  25.023  0.1619 -0.2719 -0.2609
88222W        W31213   0.545   8.132  25.895 -0.0456  0.5093  0.0123
88223W        W31214   8.273  20.106  19.701 -0.0777 -0.0818 -0.0147
88224W        W31215  13.099  21.338   7.793 -0.0016 -0.1457 -0.3253
88225W        W31216  15.639   7.644   3.443 -0.0565 -0.1578 -0.1798
88226W        W31217  20.109   1.265  19.134  0.1844 -0.1652  0.0719
88227W        W31218  12.833   4.748  16.742  0.0872 -0.1364  0.0095
88228W        W31219  31.244  29.249  16.792  0.2503  0.1778 -0.0259
88229W        W31220  16.491  10.479  15.519  0.1403  0.0108  0.0881
88230W        W31221   9.071  15.924  24.763  0.1873 -0.1812  0.0700
88231W        W31222  12.300   4.434  26.886 -0.0594  0.1288 -0.2011
88232W        W31223  23.661   9.822  22.348  0.1244  0.0927 -0.2073
88233W        W31224  20.637   3.047  16.152  0.2820 -0.2156  0.1389
88234W        W31225  20.925   9.214  28.704  0.0362 -0.0586 -0.1145
88235W        W31226   3.465  21.481  19.540 -0.0428 -0.2863  0.0200
88236W        W31227  28.097  28.294  20.060  0.2568 -0.1204  0.2340
88237W        W31228   0.337  13.856  16.010 -0.2448 -0.1258  0.0090
88238W        W31229  30.392  12.626  14.435  0.0629  0.1020 -0.0168
88239W        W31230  33.725  15.762   0.121 -0.1223 -0.2695  0.5118
88240W        W31231   1.561  10.390   9.426  0.0135 -0.0574 -0.1127
88241W        W31232  23.056  23.332  14.604 -0.2851  0.1876 -0.4188
88242W        W31233  19.163  34.091   3.106  0.1379 -0.1307  0.2967
88243W        W31234  18.249  13.265  23.071  0.1769  0.1458  0.2843
88244W        W31235  21.291   9.903   5.225  0.1115  0.0382  0.2468
88245W        W31236  22.081  16.074  16.420  0.3375  0.2261  0.2469
88246W        W31237  26.446  21.304  22.200  0.2140 -0.2342 -0.1028
88247W        W31238   5.904  34.547  27.428 -0.1615 -0.1035 -0.0133
88248W        W31239  16.465   0.122   3.963  0.0928  0.0571 -0.1527
88249W        W31240  10.803  12.391  21.655  0.2253  0.1859  0.3833
88250W        W31241  17.537   7.567  16.522 -0.2744 -0.0047  0.2086
88251W        W31242  24.267  21.865  22.851 -0.1920 -0.0304 -0.2302
88252W        W31243  21.605  10.817  26.105 -0.0367 -0.1985 -0.1507
88253W        W31244  17.660  33.281  22.773 -0.2487 -0.0154 -0.1324
88254W        W31245  24.335  22.234   0.452 -0.0476 -0.3333 -0.3786
88255W        W31246  14.741   4.038   2.502  0.1024 -0.1620 -0.1539
88256W        W31247  11.664   2.347   6.011 -0.0202 -0.1941  0.1876
88257W        W31248   6.597   2.853  21.315 -0.1196 -0.4094  0.1225
88258W        W31249  15.160  21.958  17.702 -0.1986 -0.0880  0.1090
88259W        W31250  24.882  12.699  15.032 -0.1051  0.1807 -0.1536
88260W        W31251  25.385  26.204  23.734  0.0146 -0.1119  0.0644
88261W        W31252   8.617  10.109  19.774 -0.0423  0.1569 -0.3453
88262W        W31253  27.513  23.594  20.027  0.0378 -0.0165 -0.1177
88263W        W31254  11.930  15.152  14.297  0.0064  0.2207  0.0773
88264W        W31255  20.736  11.414  29.152 -0.3569  0.3762  0.0198
88265W        W31256  26.290  13.307  18.165  0.0708 -0.0380 -0.2468
88266W        W31257   9.759  15.068  17.066  0.1959 -0.2073 -0.5473
88267W        W31258  10.782  34.171   4.383 -0.2661  0.3382 -0.1594
88268W        W31259  24.139  13.606  15.654 -0.2290  0.0873  0.1355
88269W        W31260  29.669  11.200   8.346  0.1554 -0.2367  0.0871
88270W        W31261  31.544  11.815  14.858  0.1558  0.0543 -0.1213
88271W        W31262  26.388  32.687   2.984 -0.0358 -0.0776 -0.1829
88272W        W31263   4.064  15.728  17.333 -0.3004  0.0141 -0.0176
88273W        W31264  12.041  16.564  15.903  0.1612 -0.1532  0.1071
88274W        W31265   3.529   6.510   4.942  0.0176 -0.0343 -0.0447
88275W        W31266  24.634  33.196  16.058 -0.1360  0.2109 -0.2061
88276W        W31267  19.456  32.697  24.746  0.1936  0.4313  0.0970
88277W        W31268   1.255  23.043  17.391 -0.0746  0.1939 -0.2018
88278W        W31269  33.053   0.903  15.799 -0.0896  0.0677 -0.3455
88279W        W31270  28.626   9.366  22.962 -0.2358  0.1801  0.1352
88280W        W31271   5.199  15.837  19.665  0.1296 -0.1891 -0.1228
88281W        W31272  29.940  23.483  22.291  0.0641 -0.0672  0.1038
88282W        W31273  23.441  20.097  13.382  0.0930  0.2913  0.0390
88283W        W31274   2.890  15.059  15.885  0.1969  0.0635 -0.1054
88284W        W31275  16.634  13.291  20.446  0.0911 -0.3101  0.1551
88285W        W31276  21.169  17.635  27.856 -0.0589  0.2498 -0.0685
88286W        W31277  31.734  29.014  24.867 -0.0731 -0.1054 -0.1830
88287W        W31278   3.839  10.639  22.724 -0.0857  0.2353 -0.1035
88288W        W31279  24.613  14.166  16.863  0.0388  0.2592 -0.1019
88289W        W31280  13.821  11.648  29.140  0.2299 -0.2141 -0.0828
88290W        W31281   4.664   4.795   7.755  0.1888  0.0274 -0.1547
88291W        W31282  19.379  33.512  17.343 -0.2979 -0.0546  0.0009
88292W        W31283   4.529  15.544  15.592  0.0780  0.0562 -0.1686
88293W        W31284  34.660  10.131  24.468 -0.0728  0.0702 -0.0699
88294W        W31285  19.614   0.844  17.911 -0.0388 -0.1213  0.2105
88295W        W31286  28.609  28.957  26.079 -0.0404  0.1290 -0.0148
88296W        W31287  25.152  19.832   2.757 -0.2424 -0.2905  0.0273
88297W        W31288  15.319  23.113  14.107  0.1434  0.0681 -0.0750
88298W        W31289  14.567  12.677  15.452 -0.2724 -0.0623 -0.2841
88299W        W31290  32.061  18.253  11.092  0.4348  0.1852 -0.1130
88300W        W31291   8.366  30.498  23.593  0.3165  0.1750 -0.1474
88301W        W31292  30.052  20.666  25.715 -0.2597  0.1174  0.1872
88302W        W31293   0.986  20.298  27.063  0.0067  0.2963 -0.1028
88303W        W31294  24.413  32.821  13.419  0.1360  0.0825 -0.1670
88304W        W31295  10.252  20.648  20.923  0.0047  0.2257  0.2773
88305W        W31296  11.269  10.841  18.870 -0.1651 -0.0801 -0.1924
88306W        W31297  30.288   2.736  20.103 -0.1128 -0.0024 -0.3020
88307W        W31298   7.678  13.658  18.682 -0.0581  0.0054 -0.0229
88308W        W31299  27.426  11.685  15.763  0.2891 -0.0439 -0.1808
88309W        W31300  20.454  14.345  15.371 -0.1482 -0.0639 -0.0696
88310W        W31301  12.751  23.216  20.013 -0.0047 -0.0281  0.0212
88311W        W31302  26.469  15.174  21.116 -0.4755 -0.1850  0.0897
88312W        W31303   3.789  10.220  19.109  0.1817  0.2478 -0.0048
88313W        W31304  20.679   9.383  18.823 -0.0363 -0.0269 -0.0196
88314W        W31305  13.074   3.681  28.656  0.0469  0.4130 -0.1815
88315W        W31306  20.644  23.064  14.666  0.2571  0.0253  0.2046
88316W        W31307  33.095  25.802  21.714  0.0261 -0.2609 -0.1105
88317W        W31308  23.260  22.980  14.323 -0.3102 -0.0936 -0.0909
88318W        W31309  20.145  14.718  24.533  0.1791 -0.1522 -0.0587
88319W        W31310  29.745  20.843  29.062 -0.0602 -0.1432 -0.2677
88320W        W31311   2.168   2.698  26.255  0.1084  0.2591  0.0493
88321W        W31312   5.157  26.987  15.907 -0.0622 -0.0850  0.0541
88322W        W31313  29.478   0.349  18.847  0.1231 -0.0810 -0.1018
88323W        W31314  30.083  26.374  27.075  0.0538  0.1734 -0.1334
88324W        W31315   6.908  26.231  16.728 -0.3331 -0.3659 -0.3051
88325W        W31316  30.258   0.948  17.596 -0.1575  0.1628  0.2101
88326W        W31317  15.304  11.466   8.506  0.2490 -0.0466 -0.2003
88327W        W31318  31.133  31.002  21.150  0.0019 -0.0254  0.0428
88328W        W31319   9.408  18.984  16.213  0.3854 -0.1003 -0.1068
88329W        W31320   4.653  16.629  21.346 -0.1792 -0.1122 -0.0120
88330W        W31321   9.229  18.400  20.002  0.1275 -0.2001 -0.0601
88331W        W31322  28.005  12.380  27.382  0.4484  0.0019 -0.3485
88332W        W31323  24.270  20.555   8.173  0.0094 -0.0571 -0.2549
88333W        W31324  17.009   7.025  17.131 -0.1533 -0.3909  0.0657
88334W        W31325  22.852  10.236  26.279 -0.1839  0.0008  0.0472
88335W        W31326  29.027   8.667  13.786  0.1953  0.0561 -0.1123
88336W        W31327  22.234  21.722  16.294  0.0693 -0.2292 -0.4204
88337W        W31328  21.416  32.398  22.952  0.0327  0.1883  0.3578
88338W        W31329  33.369   6.155   3.377  0.6371 -0.1258 -0.1792
88339W        W31330   3.347  22.426  14.977  0.1547  0.2250  0.0386
88340W        W31331  30.480   2.802  15.919 -0.1791  0.1884  0.3982
88341W        W31332  32.039   9.335  16.291  0.3229  0.3582 -0.2623
88342W        W31333  32.881   5.870  20.672 -0.0779 -0.2814  0.3626
88343W        W31334  32.916   2.597   1.584 -0.0610 -0.3017 -0.0990
88344W        W31335  32.328  16.397   0.148  0.2426  0.0733 -0.1996
88345W        W31336  15.386  11.746  26.498  0.2321  0.0585 -0.0434
88346W        W31337  28.835  17.948  16.166  0.0384  0.0022 -0.0587
88347W        W31338  21.289  21.537  19.575  0.3318 -0.4410 -0.0360
88348W        W31339  15.720  14.467  14.587 -0.0050 -0.3006  0.0172
88349W        W31340  21.820  30.709  14.499 -0.0282 -0.2455 -0.1556
88350W        W31341  12.828  21.448  13.194  0.1239 -0.0059 -0.2640
88351W        W31342  33.407  24.000  16.689  0.2427 -0.0253 -0.2638
88352W        W31343  24.451  18.008  20.342 -0.1790  0.0526 -0.0752
88353W        W31344  22.596  31.725   1.885 -0.1849 -0.1453  0.3053
88354W        W31345  27.067  26.874  20.017  0.2116 -0.1113  0.4165
88355W        W31346  30.733  15.976   6.684 -0.3348 -0.0133  0.1598
88356W        W31347  24.239  10.410  19.546 -0.1561 -0.2511  0.1652
88357W        W31348  19.956  13.767  28.498  0.2104  0.0094 -0.0754
88358W        W31349  20.226  10.218  25.263 -0.2260 -0.2314 -0.1441
88359W        W31350  11.814   9.021  23.068  0.1620  0.1886 -0.2740
88360W        W31351  27.643   6.823   0.308  0.2688 -0.2327  0.0589
88361W        W31352  15.611  25.168  15.014  0.2708  0.3368  0.0585
88362W        W31353  23.815   5.772  12.657  0.1709  0.1923  0.0630
88363W        W31354   1.985   9.368  29.018  0.1406 -0.0505 -0.1585
88364W        W31355  13.762  18.848   1.392  0.2155 -0.1656 -0.2556
88365W        W31356  31.721  23.780  25.597  0.1163  0.0086 -0.1492
88366W        W31357   7.963  11.573  11.167  0.3868  0.0021 -0.1225
88367W        W31358  13.372   4.546  20.728 -0.0406 -0.2206 -0.2559
88368W        W31359  12.149  29.423  23.644 -0.1756  0.2580  0.2221
88369W        W31360  18.115  10.894   8.624  0.0151  0.0277  0.2691
88370W        W31361  17.317  15.696  12.801  0.1427 -0.1237 -0.4219
88371W        W31362  21.801  12.722  16.422  0.1116 -0.0179 -0.3434
88372W        W31363  17.294  24.358   4.749 -0.0445 -0.1820 -0.0367
88373W        W31364  16.557   8.702  21.343  0.2195 -0.0030 -0.0580
88374W        W31365  27.223   5.664  17.291 -0.2142  0.0725  0.1791
88375W        W31366   6.890  10.628  20.666  0.2075 -0.0839 -0.0871
88376W        W31367  19.474  12.821  15.570  0.0691 -0.0707  0.1807
88377W        W31368  24.395   3.450  12.967  0.0695  0.3036 -0.2361
88378W        W31369  21.581  23.267  18.810 -0.0667 -0.0380  0.1802
88379W        W31370  25.972  13.769  19.377 -0.2205  0.1156 -0.0615
88380W        W31371  26.557  16.415  20.230  0.0219 -0.0911  0.2403
88381W        W31372  24.709  11.630  26.223 -0.0522  0.4149  0.2048
88382W        W31373  27.230  30.463   1.239 -0.2506 -0.1188  0.0855
88383W        W31374  21.516  10.163  17.842  0.3186 -0.1076 -0.1619
88384W        W31375  18.629  14.779  16.347  0.1456  0.4102  0.0777
88385W        W31376  34.029   0.025  23.520  0.1113 -0.0943  0.0200
88386W        W31377  18.309  11.392  14.595 -0.1625 -0.0423  0.0081
88387W        W31378  20.056  34.126  15.282  0.1890  0.1136 -0.3946
88388W        W31379  17.235  24.980  13.616 -0.0490 -0.0458 -0.4448
88389W        W31380  33.137   8.296  15.969 -0.0261  0.0308 -0.1636
88390W        W31381  32.874  34.775   0.847  0.1850  0.2168 -0.1292
88391W        W31382  13.818  15.237  22.167  0.1464  0.1379 -0.0727
88392W        W31383  31.100  25.963  25.841  0.0944 -0.2302  0.3115
88393W        W31384  34.494   6.855  22.270 -0.0877  0.1190  0.1635
88394W        W31385   4.468   7.870  16.789 -0.1502 -0.1831 -0.2612
88395W        W31386  17.131   1.766  27.694 -0.0400 -0.0963 -0.0884
88396W        W31387  27.288   6.301  25.656  0.0729  0.0824  0.0814
88397W        W31388  29.171  19.987  26.245 -0.1134 -0.2129  0.1228
88398W        W31389  26.210   4.271  23.718 -0.2497 -0.1394 -0.1208
88399W        W31390   2.457  10.781  22.555  0.1641 -0.0006  0.2175
88400W        W31391  25.683  14.349  18.783  0.2593 -0.3583  0.0994
88401W        W31392  32.848   7.455  15.496  0.0217  0.1760  0.1905
88402W        W31393  26.183  29.683  15.826 -0.0163  0.2464 -0.2506
88403W        W31394   1.721  19.193   8.096 -0.2045 -0.2497 -0.0225
88404W        W31395  23.386  24.785  25.409 -0.2116 -0.1340  0.0769
88405W        W31396   4.469  10.355  20.324 -0.1629 -0.2291 -0.0396
88406W        W31397  18.921  11.190  24.698 -0.0718  0.4104 -0.1467
88407W        W31398  22.786  15.650  23.232 -0.1230  0.1633  0.1175
88408W        W31399  25.503  30.549  18.583  0.0965  0.0281 -0.1800
88409W        W31400  15.329   6.205  19.931 -0.4237  0.3124  0.2211
88410W        W31401   2.217  31.307  16.477  0.1310 -0.1989 -0.0202
88411W        W31402  21.870  10.380  24.218  0.1198  0.0502  0.0455
88412W        W31403  11.994   0.771  21.664 -0.3401  0.0029  0.0155
88413W        W31404  12.778  22.530  18.673 -0.2854  0.0998 -0.0646
88414W        W31405  32.739  22.008  28.573  0.1495  0.0614  0.1242
88415W        W31406   8.769  34.754  19.618 -0.4431 -0.1313  0.1330
88416W        W31407  12.282  34.295  15.843  0.1057 -0.1318  0.1262
88417W        W31408  31.099  15.581  16.789 -0.1451  0.1488  0.0263
88418W        W31409  14.922   6.083  24.961 -0.4323 -0.1481 -0.3642
88419W        W31410  15.891  10.968  18.196  0.1094 -0.1678 -0.1040
88420W        W31411  29.109  22.217  20.851  0.1140 -0.2055 -0.1359
88421W        W31412  29.471   5.751  22.055  0.0905  0.0334  0.0444
88422W        W31413  29.004  29.630   4.400  0.2435 -0.1492 -0.2094
88423W        W31414  22.334  33.728  21.633  0.1958  0.1123  0.1597
88424W        W31415  18.469  26.692   8.434  0.1936  0.0794 -0.0620
88425W        W31416  23.337   1.467  20.192 -0.2590  0.1067 -0.4575
88426W        W31417  26.621   8.370  18.054 -0.2112  0.1787 -0.3214
88427W        W31418  14.223  28.491  16.770 -0.3100 -0.1940 -0.3230
88428W        W31419   8.451  25.401  20.812  0.2797 -0.1452  0.2517
88429W        W31420  30.725  23.731   5.055  0.0663  0.0706 -0.4312
88430W        W31421   6.187   6.234  25.154 -0.2556  0.2156 -0.1593
88431W        W31422  19.446  30.677  22.225  0.1536  0.2086 -0.3684
88432W        W31423  14.616   9.946  22.903 -0.2154  0.3218  0.0373
88433W        W31424  18.446   2.717   3.317  0.2174 -0.1722  0.0134
88434W        W31425   8.532   8.859  26.241  0.0559 -0.1019 -0.0489
88435W        W31426  30.103   8.701   5.754 -0.2029  0.2182  0.0819
88436W        W31427  29.889  20.112  15.159 -0.3565 -0.1842 -0.0180
88437W        W31428  20.896  13.248  24.049 -0.0709 -0.0346  0.2833
88438W        W31429  19.722  31.543  23.551 -0.0550 -0.2856  0.1166
88439W        W31430  29.986  33.897   6.998 -0.1411 -0.4043 -0.2097
88440W        W31431   8.989  17.521  23.525 -0.1007 -0.1275 -0.1996
88441W        W31432  24.743  31.075  16.189  0.1257  0.2592  0.1071
88442W        W31433  23.285   9.619  28.945 -0.1662 -0.1078 -0.1472
88443W        W31434   7.597  11.599  25.208  0.1987  0.0595  0.0724
88444W        W31435  26.620   4.162  24.624  0.2425 -0.3972 -0.0551
88445W        W31436  14.481   9.332   2.461 -0.1701  0.4307  0.0886
88446W        W31437  28.882  22.259   0.466  0.0255  0.5002  0.1898
88447W        W31438  17.819   4.091  24.849 -0.1174  0.0329 -0.3671
88448W        W31439  31.032  14.338  19.735  0.0540  0.0176  0.0191
88449W        W31440  19.460   3.028  19.010 -0.0947  0.1261 -0.0027
88450W        W31441  18.783   5.746  14.537  0.0385 -0.0094  0.0088
88451W        W31442  21.387  10.973  17.404 -0.0277  0.3651 -0.2998
88452W        W31443  13.965  17.341   2.595 -0.0195  0.2790 -0.2899
88453W        W31444   8.864  20.936  24.926  0.1841  0.0340 -0.2439
88454W        W31445  25.142  14.961  14.937 -0.1765  0.0566 -0.3447
88455W        W31446  12.609  22.215  15.716 -0.1489 -0.0589 -0.0057
88456W        W31447  17.252   1.012  22.383 -0.0520  0.0542  0.1057
88457W        W31448   2.915   4.245  28.487 -0.1646  0.1037  0.2125
88458W        W31449  33.647  33.306  18.862  0.3431  0.2431  0.0672
88459W        W31450  26.385  23.165  15.859  0.0203  0.0447  0.1394
88460W        W31451  14.681  27.760  15.771  0.2968 -0.0405 -0.0131
88461W        W31452  14.196  14.322  25.066  0.2557  0.1427 -0.1190
88462W        W31453   4.797  26.541  21.274 -0.3464  0.0633  0.0226
88463W        W31454  25.705  16.833  21.019  0.1834 -0.0224  0.1861
88464W        W31455  31.126  14.013  21.826 -0.1207  0.1444 -0.0577
88465W        W31456  15.357   6.558  15.635  0.1717  0.1449  0.5455
88466W        W31457  18.740   4.827  18.756  0.2685 -0.3292  0.0022
88467W        W31458  30.148  22.768  20.809  0.0413 -0.2837  0.1084
88468W        W31459  22.573  17.743  25.657  0.2333  0.1039  0.0091
88469W        W31460  21.644  10.392  23.223 -0.2120  0.0855  0.1392
88470W        W31461   5.558   5.772  22.477 -0.1449 -0.1504 -0.2026
88471W        W31462  30.383   0.768  15.062 -0.0084 -0.0167  0.2233
88472W        W31463  32.066   5.853  20.207 -0.1480  0.5029  0.2621
88473W        W31464   3.554  10.010  20.337  0.2643  0.0061 -0.1031
88474W        W31465  10.591   7.743   2.309  0.4845  0.1176 -0.1671
88475W        W31466  12.600  11.114   6.009 -0.1192 -0.3221  0.1025
88476W        W31467  21.267   2.731   1.411  0.2228  0.1047  0.3449
88477W        W31468  15.459  31.874  23.295  0.0841  0.0782  0.1497
88478W        W31469  18.000  29.940  16.132 -0.2338  0.2080 -0.2021
88479W        W31470  19.997  15.620  23.336  0.1094  0.0640  0.0719
88480W        W31471  24.894   3.109  15.930 -0.1211  0.0021 -0.0315
88481W        W31472  19.639  25.741  18.735 -0.1037 -0.1319 -0.4217
88482W        W31473  15.530  14.651  15.019 -0.1790 -0.0467  0.0120
88483W        W31474  18.988  31.462  19.291  0.0409  0.1022  0.1037
88484W        W31475  28.091  12.983  25.215 -0.1691 -0.0059  0.1427
88485W        W31476  14.000  12.591  17.668  0.0172  0.2737 -0.2031
88486W        W31477  11.805   4.519  19.087 -0.3128  0.2412 -0.0102
88487W        W31478  23.662  19.360  17.001  0.3241 -0.1873  0.0601
88488W        W31479  19.870  22.886  19.759 -0.1824 -0.0667  0.0121
88489W        W31480  30.754  16.746  16.273 -0.3981 -0.0236 -0.6325
88490W        W31481  23.774  14.780  21.432  0.0224  0.0797  0.2050
88491W        W31482  18.617  21.956  13.356  0.2078  0.0085 -0.0893
88492W        W31483   8.585  26.521   2.380  0.2086 -0.0802 -0.0692
88493W        W31484   4.628   9.429  18.390  0.0644 -0.2099  0.2620
88494W        W31485  25.198  14.237  23.299 -0.1437  0.3041  0.3939
88495W        W31486  12.200  17.887  25.328 -0.0373 -0.1755  0.1457
88496W        W31487  21.965  10.153   2.255  0.1573  0.0349 -0.2804
88497W        W31488  28.567  24.299  16.111 -0.0789 -0.0998  0.0388
88498W        W31489  24.884  33.001  21.116 -0.0004  0.1855  0.1851
88499W        W31490  31.813  22.215  16.821 -0.0067 -0.0462 -0.3750
88500W        W31491  26.878  18.515  20.946 -0.0408 -0.2765 -0.0072
88501W        W31492   2.684  23.034  23.749  0.1536 -0.1253  0.1773
88502W        W31493  28.474  12.613  17.113  0.1982  0.0403 -0.3312
88503W        W31494  28.068   9.570  24.169  0.1128 -0.0477 -0.0228
88504W        W31495  20.553   0.710   1.777  0.2186 -0.1123  0.0620
88505W        W31496  25.492  24.646  15.529  0.0524 -0.1017 -0.1561
88506W        W31497  24.865   9.819  21.819 -0.2999 -0.0068 -0.0317
88507W        W31498  17.963   4.580  27.055  0.1828  0.3962 -0.2080
88508W        W31499  25.266  26.597  16.684  0.0878 -0.0378  0.0858
88509W        W31500  26.495  24.607  19.000  0.3634  0.4236  0.0618
88510W        W31501  19.270  27.601  26.153 -0.1995  0.0437  0.1510
88511W        W31502  24.769  13.347  16.326  0.2720 -0.1311  0.0163
88512W        W31503  30.406  33.227  20.537  0.1437 -0.2660  0.1570
88513W        W31504  30.800   3.844  23.008 -0.2812 -0.0741 -0.1005
88514W        W31505  34.651  11.033  15.208 -0.0089 -0.4601  0.0315
88515W        W31506  24.560  17.932  16.275  0.3495  0.0372 -0.1244
88516W        W31507  21.946  23.634  16.913  0.0370 -0.2362 -0.1700
88517W        W31508  26.144  14.981  19.834  0.1428 -0.0916 -0.1367
88518W        W31509  32.715  17.788  19.023 -0.0216  0.0800 -0.0277
88519W        W31510  34.283  29.094  13.264 -0.1705  0.0618 -0.4478
88520W        W31511   8.115   6.164  24.488  0.2619 -0.1895  0.3795
88521W        W31512  12.581   1.356  14.745 -0.0433 -0.1425  0.2079
88522W        W31513  22.583  17.473  14.864  0.1778 -0.0582 -0.2804
88523W        W31514  15.242  33.300  23.595  0.1111 -0.2273  0.2560
88524W        W31515  31.947  19.212  19.353 -0.3183 -0.1951  0.0814
88525W        W31516  29.839  13.673  22.220 -0.1012  0.2999 -0.0914
88526W        W31517  12.327  19.784  23.521 -0.5979  0.1036 -0.2212
88527W        W31518  17.632  21.702  16.435  0.0765 -0.2728  0.0604
88528W        W31519  28.180  16.777  26.799 -0.0703  0.0375 -0.0441
88529W        W31520  16.988  26.406  14.600 -0.2968  0.1277 -0.0637
88530W        W31521  14.879  15.892  13.736  0.2040  0.1051 -0.1637
88531W        W31522  24.176  33.233   6.339  0.0928  0.0335 -0.3118
88532W        W31523  29.357  19.226  18.012  0.3820  0.1923  0.0002
88533W        W31524  11.007  10.204  22.472 -0.0159 -0.2563  0.0081
88534W        W31525  25.689  32.741   4.460  0.0698  0.0940 -0.0545
88535W        W31526  12.616   3.112  25.075  0.0518 -0.1967 -0.1286
88536W        W31527  21.413  30.177   9.081 -0.0272  0.0081 -0.0314
88537W        W31528  26.241  10.126  13.999 -0.4016 -0.0078 -0.2331
88538W        W31529  22.916  18.656  13.180  0.3803  0.1327  0.1797
88539W        W31530  25.349   9.415  27.898  0.2868  0.0922 -0.2747
88540W        W31531  22.280  11.019  19.264 -0.1227 -0.1019  0.2126
88541W        W31532   7.419   8.381  20.685  0.1064  0.0832 -0.1031
88542W        W31533   9.743  19.456  17.621 -0.1481 -0.0940  0.0622
88543W        W31534  30.104  33.099   6.778 -0.2256 -0.0556  0.2475
88544W        W31535  10.671   2.513   1.582 -0.1512  0.0421 -0.2277
88545W        W31536  25.460  19.674  22.003 -0.0838 -0.1306  0.0529
88546W        W31537  22.694  21.720  12.863 -0.0923 -0.1559  0.0421
88547W        W31538   4.680   9.340  20.463 -0.1022 -0.0858 -0.1386
88548W        W31539   3.378   3.637  21.123  0.0328 -0.0171 -0.0766
88549W        W31540  31.860  13.336   1.957 -0.0330 -0.1588  0.3186
88550W        W31541  14.155  13.216  20.057  0.0580 -0.0267  0.1380
88551W        W31542  21.939  32.777  16.733  0.0031  0.0380 -0.1007
88552W        W31543  26.732  20.177  26.673  0.2356 -0.1300 -0.1315
88553W        W31544  14.510  11.826  15.035  0.3841  0.0088 -0.0440
88554W        W31545  20.160  12.355  18.791 -0.2109 -0.0711 -0.2229
88555W        W31546  14.930  33.900  21.895 -0.3850  0.1587 -0.2195
88556W        W31547  25.436   7.289  16.675  0.1896  0.1735 -0.0327
88557W        W31548  17.280  11.220  14.612 -0.1592  0.0985 -0.2721
88558W        W31549  11.271  25.377  20.104  0.0956 -0.4921  0.1776
88559W        W31550  27.126  12.581   0.077 -0.1273 -0.0767 -0.1056
88560W        W31551  16.234  19.509  26.463 -0.2097  0.2019 -0.2763
88561W        W31552   4.122  10.663  24.183 -0.1623  0.1714  0.0392
88562W        W31553  21.219   0.145   0.007  0.1169 -0.1165 -0.1404
88563W        W31554  14.617  18.761   2.543 -0.0161  0.0173  0.0568
88564W        W31555  21.056   3.264  14.464 -0.1079  0.1768  0.0293
88565W        W31556  32.556  26.779  20.090 -0.0820  0.0987  0.0201
88566W        W31557  18.003   7.062  18.710 -0.0783  0.0662 -0.2321
88567W        W31558  10.397   0.493   0.418  0.2577  0.1766  0.1009
88568W        W31559   2.616  14.859   2.209 -0.0264  0.1478  0.3251
88569W        W31560  34.068  21.706  16.887 -0.0897 -0.1075 -0.4330
88570W        W31561  20.904  34.619  20.098 -0.1491 -0.0005  0.0036
88571W        W31562  27.280   8.137  29.024  0.0111 -0.1634 -0.0213
88572W        W31563  16.186   9.886  24.829 -0.2178 -0.4909  0.2162
88573W        W31564  18.475  21.327  14.580  0.1755 -0.0922 -0.1410
88574W        W31565  28.603  31.452  12.336  0.1759 -0.1153 -0.0042
88575W        W31566  10.153  33.197   1.706 -0.0739 -0.2637  0.0176
88576W        W31567  27.214  32.430  19.554  0.3249 -0.3096  0.0128
88577W        W31568  22.733  10.763  19.887 -0.0495  0.3160 -0.1513
88578W        W31569   6.844  15.564   2.340 -0.1083 -0.3431  0.1474
88579W        W31570  27.606  14.891  20.329  0.0929  0.2083 -0.0665
88580W        W31571   6.323   5.463  24.117  0.0150  0.1638  0.1372
88581W        W31572  23.588  12.564  19.279 -0.3462  0.0189 -0.0471
88582W        W31573  11.009  11.306  26.483  0.2676  0.0237 -0.1450
88583W        W31574   9.620  16.409  21.810  0.2963  0.1694 -0.0529
88584W        W31575  11.298  21.184  19.067  0.1375 -0.1792  0.0783
88585W        W31576  23.038  26.290  15.133  0.1646  0.1978 -0.0826
88586W        W31577  25.269  18.442  21.319  0.1811  0.2665  0.2004
88587W        W31578  11.176  32.623   2.754  0.1432  0.1573  0.1002
88588W        W31579  21.778  15.954   6.110 -0.1366  0.2582 -0.0945
88589W        W31580  31.742  22.960   2.153  0.0348 -0.2580  0.0638
88590W        W31581  29.224  30.687   2.806 -0.0260  0.0534 -0.0028
88591W        W31582  30.962  16.523  17.377 -0.1163  0.3653 -0.1170
88592W        W31583  12.404  33.438  15.977  0.3268 -0.0583 -0.2327
88593W        W31584   7.094  11.181  23.237 -0.3215 -0.0704 -0.1514
88594W        W31585  12.252  13.367  23.841 -0.1750  0.0364 -0.3888
88595W        W31586  12.531  10.329  20.770 -0.2220  0.3507  0.2274
88596W        W31587   8.721  13.454  27.485 -0.2438  0.0429  0.0260
88597W        W31588  21.190  14.160   6.972  0.0279 -0.2084  0.0496
88598W        W31589  28.843  16.618  19.272 -0.0215  0.1280 -0.3044
88599W        W31590   3.823  17.647  15.068 -0.4400 -0.2413 -0.2101
88600W        W31591   9.320   7.888  21.289  0.2833 -0.3966 -0.3313
88601W        W31592  32.952   8.587   2.712 -0.0863  0.0921  0.0040
88602W        W31593  15.286   8.779  20.827  0.2223 -0.2314  0.2718
88603W        W31594  26.283   7.407  23.994 -0.1015  0.0047  0.0203
88604W        W31595  27.969   5.518  20.801  0.0489 -0.0237 -0.1057
88605W        W31596  11.977  14.299  17.140 -0.0513 -0.5730  0.1786
88606W        W31597  14.853  18.163  24.785 -0.1784  0.0135  0.2802
88607W        W31598  25.186  11.328  15.664  0.0651 -0.0321 -0.1145
88608W        W31599  19.519  23.192  22.687 -0.3209  0.0571 -0.2698
88609W        W31600  11.061   6.852  17.174  0.0953  0.0905 -0.0477
88610W        W31601  26.121  23.587  26.133 -0.0310 -0.3572  0.0593
88611W        W31602  32.948  21.589  17.866  0.0663 -0.0826  0.1558
88612W        W31603  15.658   5.846  24.800  0.0209  0.1963 -0.0336
88613W        W31604  15.558  31.848  15.677  0.0646 -0.1256  0.3233
88614W        W31605  34.107  17.323   3.213  0.1724  0.1463  0.0915
88615W        W31606   2.303   7.906  23.640  0.1039 -0.3074  0.0012
88616W        W31607  21.727  11.112  25.211  0.1245 -0.0353  0.1193
88617W        W31608  20.558  14.205   7.259  0.3490  0.2053  0.0274
88618W        W31609  22.601   8.924  22.080 -0.0648 -0.1476  0.0729
88619W        W31610  20.997  14.173  12.922  0.2140 -0.3942  0.1662
88620W        W31611  22.259   6.206  15.322  0.1363 -0.0610  0.0798
88621W        W31612   5.563   1.357  26.233 -0.0807 -0.0064 -0.0258
88622W        W31613  21.416   1.689  21.094  0.1813  0.2866 -0.0393
88623W        W31614  14.862  21.880  26.961 -0.2419 -0.0823  0.1831
88624W        W31615  33.496  17.041  26.833  0.0273  0.0598  0.3942
88625W        W31616  30.223  15.974   3.321  0.2191  0.0678  0.1187
88626W        W31617  12.742  34.474  25.375  0.0704  0.1274  0.0299
88627W        W31618  29.899  13.038  18.143  0.5611  0.0473 -0.0026
88628W        W31619  22.656  25.081   2.385  0.1555  0.2455 -0.1119
88629W        W31620  25.363   5.412  25.059  0.3240  0.1429 -0.2398
88630W        W31621  13.571  17.517  29.068  0.1565  0.1981  0.0891
88631W        W31622  21.786   7.442   7.982  0.2671  0.0590  0.0896
88632W        W31623  21.640  27.438   1.707 -0.2620 -0.1528  0.1119
88633W        W31624  32.203   1.739  25.059 -0.0998  0.2430  0.1114
88634W        W31625   8.570  17.537   0.035  0.1198  0.2623  0.0291
88635W        W31626  24.435  10.972   8.082  0.1048 -0.1694 -0.1830
88636W        W31627   5.257  21.472  28.027 -0.0954  0.0855  0.2322
88637W        W31628  28.560  18.987  21.038  0.0262 -0.0609 -0.1161
88638W        W31629  23.066  19.255  25.282 -0.1496 -0.0838 -0.0193
88639W        W31630   4.214   9.034   8.998  0.2232  0.0511 -0.2552
88640W        W31631   8.399  10.880  23.809 -0.0418 -0.1200  0.1203
88641W        W31632  27.295   6.818   3.671 -0.2226  0.0332 -0.1090
88642W        W31633  23.981  18.124   5.506 -0.2501 -0.1075  0.3538
88643W        W31634  34.324  14.430  28.999 -0.2623  0.0250 -0.3698
88644W        W31635  24.716  21.931  16.736 -0.0518  0.0538 -0.0166
88645W        W31636  22.757  14.699  16.140 -0.1238 -0.1012 -0.2866
88646W        W31637  26.470  34.142  25.864  0.1290  0.2248  0.1444
88647W        W31638  28.913  24.589  15.860  0.0990  0.1116  0.1202
88648W        W31639  31.774  32.683  20.375  0.0116 -0.1964  0.0437
88649W        W31640  15.846   7.141  21.126  0.1492 -0.0645  0.0177
88650W        W31641  28.670   3.862   0.433 -0.1739 -0.0720  0.1722
88651W        W31642  25.571  32.841   6.654  0.2590  0.0168 -0.0006
88652W        W31643  29.576  12.699  18.598 -0.0196 -0.0322 -0.2290
88653W        W31644  21.430  29.758  21.428  0.1433  0.1324  0.0737
88654W        W31645  18.360  21.090   4.394 -0.0325 -0.2518  0.1098
88655W        W31646  11.156  21.877  21.748 -0.0012 -0.0283 -0.0177
88656W        W31647  19.645  11.198  17.641 -0.1403 -0.0373 -0.2820
88657W        W31648  23.719   3.639  18.766 -0.1968 -0.0716  0.2008
88658W        W31649  19.366   7.352  18.417 -0.3267 -0.3414  0.1504
88659W        W31650  20.219   1.122  24.164 -0.2436 -0.1405 -0.2561
88660W        W31651   5.519   2.842  18.736  0.2058 -0.0751  0.0136
88661W        W31652   3.039  11.943  23.514 -0.1822 -0.2355  0.0405
88662W        W31653  11.902   4.727  15.756 -0.2952  0.1918 -0.1818
88663W        W31654   7.557  14.205  27.525 -0.1683  0.1123 -0.1053
88664W        W31655  22.952  13.563  25.704 -0.1377 -0.0548 -0.2381
88665W        W31656  17.562   7.541   1.399  0.2130 -0.3627  0.1856
88666W        W31657  17.728   5.520  19.451  0.2083 -0.6021  0.1247
88667W        W31658   2.156  23.454  28.910 -0.0381 -0.0227 -0.0831
88668W        W31659   6.937  10.703   1.986  0.0079  0.0254  0.0556
88669W        W31660  17.567   2.737  19.661  0.2690  0.0409  0.3976
88670W        W31661  25.288  27.563  19.210  0.0013 -0.0303  0.1701
88671W        W31662  27.943  29.722  21.210  0.0531 -0.0297  0.1394
88672W        W31663  28.356  23.202   2.046  0.1455 -0.0776 -0.1970
88673W        W31664  25.365  30.472  19.551  0.1269  0.3966  0.0276
88674W        W31665   2.648  34.699   7.847 -0.0971 -0.2500  0.2415
88675W        W31666  29.369  21.037  26.271  0.0535  0.1846 -0.0817
88676W        W31667  21.711  19.900   5.096  0.1883  0.0305  0.2319
88677W        W31668  32.046  20.370   3.770  0.1915  0.2457 -0.0445
88678W        W31669   9.571  31.239  19.904 -0.0809  0.1030 -0.1280
88679W        W31670  24.205  11.915  14.099  0.0689 -0.0711 -0.1806
88680W        W31671  25.423   3.730  15.684  0.2940  0.0006 -0.2844
88681W        W31672  24.461  32.310  15.099 -0.2591  0.2396 -0.2908
88682W        W31673   9.097  15.275  16.015 -0.1481  0.0516 -0.2195
88683W        W31674  17.458  29.427   9.133  0.1613 -0.0345  0.0399
88684W        W31675  22.998  21.135  16.511 -0.2425  0.1478  0.1424
88685W        W31676  34.499  15.562   4.308 -0.2331  0.0580  0.1119
88686W        W31677   9.522   2.105   3.864 -0.2109 -0.4008 -0.0937
88687W        W31678  17.794   4.218  19.070 -0.0634  0.1844  0.7621
88688W        W31679   4.177  17.959  17.352 -0.0283 -0.2290  0.0067
88689W        W31680  22.607   1.990  16.405  0.3017  0.0273  0.2864
88690W        W31681  26.382  23.732   4.473  0.4078  0.0694 -0.1295
88691W        W31682   4.514   2.138  21.205  0.1703 -0.2027 -0.1808
88692W        W31683  11.071  11.958  21.295 -0.0355  0.1235  0.0094
88693W        W31684  26.176  19.726  18.976 -0.1480  0.0840  0.1704
88694W        W31685   6.082   5.183   4.526 -0.2438  0.0706  0.0920
88695W        W31686   4.943  17.580  28.906  0.2275 -0.0500 -0.4544
88696W        W31687  32.255  18.526  16.563 -0.1874  0.0296  0.0795
88697W        W31688  31.409  32.256   7.701  0.1556  0.1756  0.1002
88698W        W31689  17.889  31.391  25.138 -0.1664 -0.2072  0.1866
88699W        W31690   9.982  10.215  15.465 -0.1283 -0.2026 -0.0456
88700W        W31691  25.243  15.576  18.186  0.0661  0.1852  0.2562
88701W        W31692  13.407  15.649  22.496  0.5512 -0.0644 -0.0070
88702W        W31693   5.420   3.886  10.543  0.0862 -0.1152 -0.0791
88703W        W31694  16.087  33.281  14.820  0.0354 -0.1741  0.0109
88704W        W31695  25.851   2.071  18.985 -0.0739  0.0624  0.0829
88705W        W31696  24.032  13.857  20.699 -0.0488  0.2527 -0.3934
88706W        W31697  17.789  23.728  18.967 -0.0675  0.1663 -0.2369
88707W        W31698  19.724   8.784   1.794  0.2568  0.1271  0.0146
88708W        W31699  11.297  12.471  21.369 -0.0779 -0.0964 -0.2165
88709W        W31700  15.074   0.728  29.222 -0.3628 -0.0885 -0.2954
88710W        W31701  18.577  25.777  22.341 -0.0232  0.2562  0.2860
88711W        W31702  18.309  12.477  22.222  0.0934 -0.0698 -0.2064
88712W        W31703  27.947  27.791  23.341  0.2129 -0.1489 -0.2766
88713W        W31704  20.863  12.621  17.682 -0.1436 -0.0853  0.0561
88714W        W31705  19.221  12.424  23.325  0.0594 -0.0723  0.0320
88715W        W31706  22.708  13.682  15.436 -0.0934 -0.2193  0.1279
88716W        W31707   8.860  14.248  20.626  0.1367  0.0546 -0.0285
88717W        W31708  15.460   7.367  24.515  0.3959  0.0472 -0.0474
88718W        W31709  18.112   1.130   8.304 -0.0630 -0.0597 -0.0278
88719W        W31710  30.379  30.297   2.225 -0.1196  0.3969 -0.2238
88720W        W31711  22.496  13.227  17.415  0.0599  0.2816  0.1396
88721W        W31712  20.405  16.997  23.848 -0.1006  0.2348 -0.3132
88722W        W31713   6.021   1.880  16.222  0.1000  0.2574  0.1828
88723W        W31714  15.422   3.085   6.256  0.3443  0.0052 -0.1542
88724W        W31715  18.723   2.227   0.031 -0.4089 -0.0189 -0.0399
88725W        W31716  24.419  21.998  16.350 -0.0000 -0.3037 -0.3075
88726W        W31717  20.280  19.874  14.955 -0.0334  0.2188 -0.1488
88727W        W31718  25.549  21.338  14.091 -0.1272 -0.2834 -0.1158
88728W        W31719  20.606   6.830   2.210  0.0116 -0.0851  0.3105
88729W        W31720  11.456  23.293   5.017  0.1335 -0.1265 -0.0466
88730W        W31721  30.058   4.979  21.429 -0.2444  0.1647  0.0094
88731W        W31722   0.625   5.671  16.699  0.1267  0.0183 -0.0103
88732W        W31723   0.891   7.923  16.100 -0.2612 -0.2243  0.3786
88733W        W31724   4.374  19.783   5.145 -0.1526  0.2935  0.1502
88734W        W31725  27.766  13.379  24.158 -0.0562 -0.0757  0.2287
88735W        W31726  17.129   0.957  17.542  0.0823  0.4087 -0.0232
88736W        W31727  27.789   7.508  16.762 -0.0106 -0.1239  0.0194
88737W        W31728   8.873  19.072   4.676 -0.4035 -0.2705  0.0688
88738W        W31729  27.793   9.993  15.624  0.0484 -0.0616  0.0170
88739W        W31730  22.149  29.169   1.744  0.5353 -0.0217  0.0446
88740W        W31731  22.108   3.073  17.514 -0.0009  0.0407  0.0028
88741W        W31732  27.761  21.939  23.372 -0.0432  0.2205 -0.2124
88742W        W31733  25.535   4.939   4.695 -0.0086  0.1759 -0.1737
88743W        W31734  31.646  21.528  22.538 -0.0457 -0.3369  0.2283
88744W        W31735  13.088  10.720  25.263 -0.1385 -0.3815 -0.2393
88745W        W31736   9.435  11.814  17.375 -0.2570  0.1766 -0.0890
88746W        W31737  20.748   9.379  25.691 -0.2086 -0.1254  0.1924
88747W        W31738   3.654  20.591  17.308 -0.3987  0.0292 -0.1163
88748W        W31739  31.750  11.663  16.455  0.0563 -0.1842  0.0756
88749W        W31740  30.276  24.514  20.573 -0.0180  0.3346  0.0585
88750W        W31741  18.187  27.795  26.749 -0.0990  0.1272  0.1161
88751W        W31742  16.050  31.702   6.080 -0.0067 -0.3924  0.2743
88752W        W31743   2.555  25.820   6.473  0.0766 -0.3140 -0.0595
88753W        W31744  13.836  17.369  14.725 -0.1300  0.1616 -0.1172
88754W        W31745  26.668   9.489   9.316 -0.1766  0.2735  0.0848
88755W        W31746  21.397  26.769  22.431 -0.3186  0.0986  0.1289
88756W        W31747  22.400   2.263  23.769 -0.0995  0.1309  0.0797
88757W        W31748  29.550  19.973  17.370 -0.4052  0.0548  0.0864
88758W        W31749  15.858  13.425  13.254 -0.5605  0.1665 -0.1009
88759W        W31750   8.173  20.597   1.162 -0.1967 -0.2713  0.0261
88760W        W31751  14.336   6.669  26.644 -0.0913 -0.1905  0.1016
88761W        W31752  12.132  18.415   1.783 -0.0296  0.0960  0.1908
88762W        W31753  25.617  12.903   0.337 -0.3269  0.3867  0.0491
88763W        W31754   1.072  27.721  15.479  0.2299 -0.1106  0.2255
88764W        W31755  34.773  34.202  16.105  0.0535 -0.1485  0.2278
88765W        W31756  22.800  26.602  20.796  0.0874  0.0952  0.1941
88766W        W31757  19.433  19.706  12.542 -0.0355 -0.1063 -0.1513
88767W        W31758  12.222  13.148  25.386 -0.2282 -0.0990  0.0004
88768W        W31759  23.187  14.883  16.293  0.2999  0.1187  0.0805
88769W        W31760  24.462   5.872  22.986  0.0166 -0.0365  0.1660
88770W        W31761  16.856  19.644   0.517  0.0865  0.3508  0.0975
88771W        W31762   9.167   8.058  18.498  0.0443 -0.1099  0.1292
88772W        W31763  28.262   5.161  19.405 -0.0197  0.0910 -0.1756
88773W        W31764  22.221   2.966  26.897  0.1725  0.2703  0.4023
88774W        W31765  29.521  16.406  23.099 -0.2213  0.0131  0.0906
88775W        W31766  23.204  28.481  27.743 -0.1134 -0.0231  0.0724
88776W        W31767  27.176  20.687  22.188  0.2140 -0.0669 -0.1375
88777W        W31768  12.054  11.941  27.411 -0.1143 -0.1143 -0.1481
88778W        W31769  25.480  12.864  16.315 -0.2131  0.1702 -0.2189
88779W        W31770  16.460   9.213   6.008 -0.2461  0.1830  0.0550
88780W        W31771  21.065   5.022  20.653 -0.0503  0.5807 -0.1504
88781W        W31772  30.881  11.402  28.657 -0.1318 -0.0101 -0.0847
88782W        W31773  24.757   4.756  13.908  0.2298  0.0543 -0.3644
88783W        W31774  11.771   7.417   1.418 -0.1837  0.0334  0.2245
88784W        W31775  29.989  14.416  16.200  0.1972 -0.3664  0.1436
88785W        W31776  17.917  12.761  18.442 -0.0399  0.1659 -0.0691
88786W        W31777  27.863  18.473  10.417 -0.1096  0.0756 -0.1192
88787W        W31778   2.727  20.487  20.739 -0.1057 -0.1438  0.0846
88788W        W31779  18.240  22.317  16.403  0.1039  0.2662  0.2199
88789W        W31780  14.798   5.925   5.590 -0.0232 -0.1118 -0.1303
88790W        W31781  33.153  29.364  14.943  0.0046 -0.1972  0.0030
88791W        W31782  17.982  16.819  13.130  0.0866  0.0222 -0.1972
88792W        W31783  21.295  12.609  24.778  0.0025 -0.1274  0.0410
88793W        W31784  18.067   4.581  22.619 -0.1498 -0.1152 -0.0123
88794W        W31785  28.130   7.168   2.429  0.2969  0.0622 -0.6327
88795W        W31786  29.073  11.258   4.748  0.2546  0.1075 -0.2154
88796W        W31787  18.133  16.639  24.408 -0.2722  0.2063  0.1180
88797W        W31788   3.817  22.156  27.663 -0.1092  0.1022  0.2006
88798W        W31789   8.676   1.104  18.868 -0.1178 -0.1862 -0.0336
88799W        W31790  18.304  32.246  15.819 -0.2089 -0.3317  0.3028
88800W        W31791  12.964  14.827  18.652  0.1520 -0.0401 -0.0625
88801W        W31792  25.899   3.755   3.646  0.0599  0.1332 -0.2348
88802W        W31793  24.455   7.261   8.246 -0.0122  0.0108 -0.3900
88803W        W31794  17.743  28.773  25.880 -0.1981 -0.0019 -0.1337
88804W        W31795  12.398  22.709  22.667  0.0185  0.0007  0.2548
88805W        W31796  24.650  24.706  17.177  0.2959  0.0681 -0.1991
88806W        W31797  21.688  19.273  23.919 -0.0062  0.3348 -0.0864
88807W        W31798  27.335  21.498  14.746 -0.0937  0.0700  0.0280
88808W        W31799  21.984  22.810  25.859 -0.0798  0.0083  0.2553
88809W        W31800   1.884  10.308  27.847  0.0944  0.2137 -0.0772
88810W        W31801  31.928  13.916   5.564 -0.2849  0.0189  0.1294
88811W        W31802  21.828  33.691  21.174  0.1485 -0.1207 -0.0292
88812W        W31803  29.843  13.193  15.298 -0.1530 -0.2125  0.1782
88813W        W31804   2.498  13.228  29.030  0.1175  0.0793  0.0020
88814W        W31805  25.567   1.589   2.932 -0.0691 -0.0078  0.0285
88815W        W31806  26.330  23.583  14.986  0.0658  0.1879 -0.0723
88816W        W31807  32.538   7.899   4.872 -0.0689  0.1262 -0.0770
88817W        W31808  21.701  24.752  22.839 -0.1676  0.4298 -0.0139
88818W        W31809  28.252  10.498  15.352  0.0054  0.0449 -0.4136
88819W        W31810  11.005  34.388  20.301 -0.0196  0.0271 -0.4017
88820W        W31811  32.663  19.826  23.639 -0.0140  0.0187 -0.2763
88821W        W31812  34.203  34.203   1.343 -0.2638 -0.0731  0.1247
88822W        W31813   4.908  33.816  28.286  0.3462  0.1949 -0.0067
88823W        W31814   6.576   0.457  26.051 -0.2586  0.2410 -0.0530
88824W        W31815   7.473  28.974  22.679  0.0477  0.1979 -0.5387
88825W        W31816  23.050   2.648  14.337  0.1588 -0.1312  0.1200
88826W        W31817  29.639  23.439  29.038  0.3248 -0.1571 -0.1348
88827W        W31818  25.877  12.346  18.231 -0.3897  0.1529 -0.1175
88828W        W31819  21.330  15.075  13.131 -0.3638 -0.0878 -0.1086
88829W        W31820  21.935  23.508  19.182 -0.4022 -0.4193  0.0964
88830W        W31821  27.617  14.142  15.266  0.2978 -0.4351  0.1862
88831W        W31822  29.592  20.882  23.303 -0.4190 -0.2382  0.1781
88832W        W31823  24.226  17.332   4.680 -0.0805 -0.0503 -0.2850
88833W        W31824  21.079  14.997  16.083 -0.0643  0.1981  0.1855
88834W        W31825  24.184  19.762  28.341  0.0594  0.2428  0.0124
88835W        W31826  31.798  30.337  21.867  0.0063 -0.0557 -0.4212
88836W        W31827  12.274  25.985  22.842  0.0683 -0.2108 -0.1203
88837W        W31828   5.851  10.448   5.956 -0.1045  0.1834  0.1966
88838W        W31829  24.269  13.579  14.287 -0.1251 -0.2312 -0.0219
88839W        W31830  15.730  24.482  24.237 -0.3044  0.0962  0.0649
88840W        W31831  13.481   4.170  21.113 -0.1196 -0.2529  0.0076
88841W        W31832  25.234  24.678   0.728  0.0556 -0.0314 -0.0368
88842W        W31833  22.637  16.818  17.009  0.0134 -0.1645 -0.1985
88843W        W31834  22.959  23.017  15.731  0.1140  0.1434 -0.1133
88844W        W31835  14.061  14.747  14.082 -0.1519 -0.0795 -0.5051
88845W        W31836   8.007  18.575  17.211  0.1081  0.1720  0.0650
88846W        W31837  27.638   5.662  25.843  0.1216  0.1428 -0.1802
88847W        W31838  30.828  15.112  18.596  0.0821 -0.3809  0.5547
88848W        W31839   7.216  26.251  16.330  0.0581  0.0110  0.1069
88849W        W31840  33.840  23.564  18.514  0.0347  0.2525  0.0402
88850W        W31841  17.234  16.234  15.694 -0.0787 -0.2017 -0.4667
88851W        W31842  13.532  18.627   4.922  0.0489 -0.0241 -0.1838
88852W        W31843  13.897  18.125  15.867  0.0573  0.0411  0.0186
88853W        W31844   3.238  17.181  21.511 -0.1852  0.0669  0.3346
88854W        W31845  10.282  18.773  20.684 -0.0380  0.1562  0.0414
88855W        W31846  27.471  26.896  15.439 -0.0971  0.3067 -0.0260
88856W        W31847  26.411  13.101  19.191  0.2089  0.1580  0.0540
88857W        W31848  30.015  25.795   2.362  0.1195 -0.0121 -0.2659
88858W        W31849  16.352  21.736   2.699 -0.2062  0.2290 -0.0285
88859W        W31850  33.195  16.511   8.844 -0.0115 -0.0294  0.2481
88860W        W31851  22.187   2.523  14.847 -0.0885  0.0269  0.1523
88861W        W31852  29.254  10.612  15.743  0.0154  0.0920  0.1395
88862W        W31853  11.812   0.078  24.138 -0.3930  0.0086  0.0009
88863W        W31854  33.709  10.992   3.365  0.1106  0.0590  0.2619
88864W        W31855   4.503   9.743  27.103  0.0904  0.1348  0.0338
88865W        W31856  32.321  13.653  19.766  0.0305 -0.0142  0.0506
88866W        W31857  26.105   6.962  19.274  0.5303 -0.0617  0.1279
88867W        W31858  27.829  29.713   1.734 -0.2991  0.0823  0.1689
88868W        W31859  27.228  22.553  26.072  0.0091 -0.0690  0.0995
88869W        W31860  17.110   1.064  28.785  0.3361 -0.0340  0.0038
88870W        W31861  12.809  16.818  18.899  0.0466 -0.2303  0.0067
88871W        W31862  29.524   7.180  27.118 -0.0805  0.3859 -0.2356
88872W        W31863  24.955  14.453  16.605  0.1382  0.1267 -0.0680
88873W        W31864  25.244  27.822  13.550 -0.0529  0.1743 -0.0620
88874W        W31865   6.886  18.798  11.041 -0.0817  0.2568 -0.0443
88875W        W31866  22.192   6.440  23.274 -0.0871  0.2117 -0.2366
88876W        W31867  26.831  23.054  19.296 -0.1179 -0.0524  0.1604
88877W        W31868  12.931  17.259  16.175 -0.1765 -0.1724 -0.1659
88878W        W31869  17.697  15.191  23.533 -0.2051  0.1365 -0.2525
88879W        W31870  23.041  22.012  26.819  0.3487 -0.4388  0.1131
88880W        W31871   4.276  14.672  24.206 -0.0868  0.3322 -0.2633
88881W        W31872  28.897  12.780  29.112 -0.2878 -0.1872 -0.2231
88882W        W31873  22.230   4.248   5.363  0.4762 -0.1922  0.1982
88883W        W31874   7.078  15.798   5.815  0.2515  0.2191 -0.1976
88884W        W31875  29.940   6.749  13.636  0.4266  0.2363 -0.0292
88885W        W31876  22.258  10.042  18.719  0.1033 -0.0642  0.0157
88886W        W31877  27.360  10.240   2.259 -0.1975 -0.1218 -0.1284
88887W        W31878  27.932   4.022  13.355 -0.0596 -0.2473 -0.0602
88888W        W31879  22.200  26.851  16.045  0.3173 -0.1484  0.0137
88889W        W31880  16.883  31.248  27.501 -0.3671 -0.2991  0.1571
88890W        W31881  21.020   6.782  28.664  0.0690  0.1497  0.1115
88891W        W31882  14.658  33.530   4.027 -0.1290  0.0344  0.0404
88892W        W31883  14.708  12.230  19.576  0.0067 -0.0546 -0.0018
88893W        W31884  19.147  18.251  14.232  0.0613 -0.1774  0.0570
88894W        W31885  19.043   1.905   9.306 -0.3079  0.1492  0.0301
88895W        W31886  33.323  32.544   3.008  0.0518 -0.2201  0.1183
88896W        W31887  20.993   4.394  18.784  0.2445 -0.3113 -0.3990
88897W        W31888  25.634  21.074   2.727  0.0610  0.1579  0.0359
88898W        W31889  28.605   6.333  17.150  0.0400  0.3393 -0.0080
88899W        W31890  13.793  10.565  19.585 -0.0304 -0.1697  0.1331
88900W        W31891  31.883  16.674  16.481 -0.0192 -0.2632  0.0103
88901W        W31892  25.669  21.095  17.028  0.1321  0.0824 -0.0720
88902W        W31893  12.834   8.936   1.944  0.1619  0.0902  0.3532
88903W        W31894  17.101   6.448  22.443 -0.2257  0.0697  0.0440
88904W        W31895  26.210  23.329  20.889  0.1328 -0.1677 -0.2182
88905W        W31896  26.617  15.219   8.508 -0.1706  0.0157 -0.0840
88906W        W31897  20.426  11.336  24.009 -0.1275  0.2639  0.3857
88907W        W31898  16.011   6.887  19.111  0.1797 -0.1788 -0.1229
88908W        W31899   3.176  19.557   4.655 -0.0013  0.0269 -0.1533
88909W        W31900  11.759   1.988  10.461 -0.0715  0.1625 -0.3300
88910W        W31901  22.205  24.790   9.956  0.0890 -0.1107 -0.2138
88911W        W31902  10.105   5.267  28.797 -0.1303  0.0982  0.1091
88912W        W31903  26.178  18.578   5.237 -0.0718  0.1387 -0.0400
88913W        W31904  21.677   2.537   1.171  0.1212 -0.1419 -0.0225
88914W        W31905  23.462  33.307  13.161  0.1228 -0.1629  0.3696
88915W        W31906  15.727   7.049  15.328 -0.2084 -0.1103  0.2502
88916W        W31907  16.410   4.860  19.440  0.0766  0.2815 -0.0784
88917W        W31908  16.733   3.557  15.198 -0.1088  0.0923  0.0512
88918W        W31909   9.765  11.857   1.309  0.1286 -0.0992 -0.0319
88919W        W31910   3.948  13.227  22.895  0.1078 -0.1059 -0.2692
88920W        W31911  34.729  30.283  25.065 -0.0596  0.2403 -0.0051
88921W        W31912  29.277  17.721  15.735  0.1433  0.0199 -0.1475
88922W        W31913  23.801  17.411  19.558 -0.2181 -0.0444 -0.0323
88923W        W31914  32.718  18.630  23.467 -0.1137  0.4252 -0.1662
88924W        W31915   7.274   6.910   0.930  0.3258 -0.0359 -0.3880
88925W        W31916   7.220  11.705  18.908 -0.1146  0.0989 -0.0691
88926W        W31917   9.800  29.446  27.940 -0.2546 -0.1589  0.1811
88927W        W31918  29.393  21.155  19.773  0.3002 -0.1866 -0.2987
88928W        W31919  25.490  17.228  23.037  0.1580  0.2646  0.3319
88929W        W31920  22.787   5.038  26.444  0.0784  0.1511 -0.2118
88930W        W31921  21.606   0.637  28.359 -0.0935 -0.2935 -0.0064
88931W        W31922   3.068  11.057  18.524  0.0171  0.5693 -0.2025
88932W        W31923  22.199  19.925  19.800  0.2159  0.1202 -0.1585
88933W        W31924  23.358  31.637  14.280  0.3769  0.2092  0.1660
88934W        W31925  29.127  22.785  20.836  0.0478  0.1350  0.0379
88935W        W31926  18.808  15.641  22.093  0.0075  0.0299 -0.1594
88936W        W31927   4.438  10.651  18.981  0.3419 -0.2484  0.0910
88937W        W31928  21.944  18.669  16.370 -0.3944  0.2016  0.1695
88938W        W31929   3.063  11.582   0.755  0.0740 -0.1004  0.0331
88939W        W31930  18.485  22.025  23.275 -0.1408  0.2185  0.2515
88940W        W31931  26.954   4.410  17.988  0.0795 -0.0084 -0.1804
88941W        W31932  13.041  25.534  26.645  0.0783 -0.0334 -0.0114
88942W        W31933  31.999   5.396  21.239 -0.1403  0.3164  0.1080
88943W        W31934  14.261   9.904  29.134  0.1551 -0.5626  0.2243
88944W        W31935  10.263  23.732  20.632  0.0533 -0.3080  0.0107
88945W        W31936  20.052  10.321   1.632 -0.2079 -0.0064  0.1172
88946W        W31937  31.100  17.244  27.027  0.0198 -0.1150 -0.1032
88947W        W31938  17.761  22.899  19.263 -0.0472 -0.0390 -0.2207
88948W        W31939   8.126   3.862  24.326 -0.0577  0.0791  0.0279
88949W        W31940  15.251   7.848  22.226  0.0118  0.2315 -0.3258
88950W        W31941  23.560  24.357   2.169  0.1698 -0.1192 -0.2320
88951W        W31942   3.078  33.085   6.292  0.0806 -0.0981 -0.1515
88952W        W31943   8.704   0.907  26.531  0.1076 -0.2264 -0.3111
88953W        W31944  22.511  22.687  20.577  0.0293  0.0816 -0.0984
88954W        W31945  15.680  18.395  28.243 -0.1158 -0.2504 -0.0951
88955W        W31946  17.267  34.591   1.025  0.2011  0.2784 -0.0591
88956W        W31947  16.219  20.709   6.363  0.1984 -0.2486  0.0686
88957W        W31948   8.155   2.558  21.089 -0.0128 -0.1263 -0.2472
88958W        W31949  23.377   5.378   4.521 -0.0288  0.1747  0.1596
88959W        W31950   6.045  10.818  26.752 -0.1395  0.3071 -0.2052
88960W        W31951  27.319   8.666  21.562  0.0490  0.0830  0.0434
88961W        W31952  16.167  13.189  16.683  0.1392  0.4279 -0.0155
88962W        W31953  26.200  16.032  13.844 -0.1614  0.1193  0.1099
88963W        W31954   8.551   4.002  26.708  0.0567 -0.2940 -0.3164
88964W        W31955  28.593  21.324   9.292 -0.3321  0.1091 -0.2822
88965W        W31956  26.331  17.328  14.779  0.1060  0.2267 -0.2528
88966W        W31957   8.311  11.781  17.781  0.0516  0.1644 -0.1862
88967W        W31958  21.596  25.726  25.620 -0.1351  0.0691 -0.1731
88968W        W31959   4.802  12.376  20.901 -0.1762 -0.0733 -0.1086
88969W        W31960  18.381  14.269   2.336 -0.1017 -0.0428  0.1067
88970W        W31961  17.673   0.240   2.092  0.2488 -0.3465  0.0372
88971W        W31962  18.948  14.303  20.163  0.3996  0.2711  0.3393
88972W        W31963  22.672   6.794  28.863  0.4643  0.1315 -0.1993
88973W        W31964   2.941   5.673   1.162 -0.0765  0.0294 -0.3866
88974W        W31965  24.077   0.713  16.272 -0.1343 -0.3577 -0.1518
88975W        W31966  23.063  16.825  15.897 -0.0619  0.0917 -0.0167
88976W        W31967  34.207  17.030  16.954 -0.2166  0.2009  0.0782
88977W        W31968  20.847   7.910  15.631  0.2698 -0.1376 -0.2453
88978W        W31969   9.408  13.031  19.565  0.0577  0.1220 -0.0475
88979W        W31970  31.105  15.377  26.430  0.2346 -0.1655  0.0311
88980W        W31971  25.069   9.148  14.676 -0.0085  0.1614  0.0868
88981W        W31972   2.080   6.413   4.399  0.0214  0.4853  0.2002
88982W        W31973  32.268   9.601   0.669 -0.1199 -0.2476  0.3578
88983W        W31974  25.077  22.781  18.610 -0.0139  0.2048 -0.1156
88984W        W31975  26.493   2.946  13.554 -0.2206  0.3175  0.0582
88985W        W31976  25.643  33.942  13.922 -0.0088  0.0077  0.3467
88986W        W31977  33.493   8.676   6.092 -0.2444 -0.1154 -0.0276
88987W        W31978  19.487  18.220   2.739 -0.2252  0.0173 -0.2229
88988W        W31979  18.908  26.811  26.083 -0.3468 -0.2516  0.1098
88989W        W31980   9.277   4.840   9.708 -0.2739 -0.1439  0.0401
88990W        W31981  23.679   4.394   1.338 -0.2648  0.0595 -0.2969
88991W        W31982  34.406  34.484  28.386 -0.1411  0.0445 -0.0930
88992W        W31983  34.186  19.697   8.518  0.1199 -0.1135 -0.2427
88993W        W31984  34.663  15.436  17.875  0.1071 -0.0072 -0.3003
88994W        W31985   5.094  15.769   0.077 -0.2667 -0.2682  0.1397
88995W        W31986   3.215  34.490  26.135  0.0845 -0.1597  0.1302
88996W        W31987  34.780  28.794  12.497 -0.1931  0.1231 -0.0650
88997W        W31988  14.728   7.817  26.364 -0.1567  0.2225  0.2851
88998W        W31989   7.562  10.494  17.295 -0.2953  0.3081  0.0403
88999W        W31990  24.134   3.982   1.051 -0.0704  0.2657  0.1042
89000W        W31991  12.678   9.363   7.669 -0.4408  0.2955 -0.0312
89001W        W31992  15.163  26.751   5.051  0.0344 -0.0628  0.2434
89002W        W31993   6.739   4.175   2.276 -0.0444  0.1611  0.1656
89003W        W31994   3.767   3.278  25.460 -0.0719  0.0054  0.0235
89004W        W31995  21.545  17.556  22.355  0.1645  0.3587 -0.1477
89005W        W31996  27.552  11.454   5.464  0.2108 -0.1353 -0.0191
89006W        W31997   4.637   9.282  28.048 -0.2192  0.0991 -0.0366
89007W        W31998  24.546  15.235   1.206 -0.2110 -0.0080 -0.0074
89008W        W31999  19.610   8.525   2.383 -0.1369  0.0936 -0.1467
89009W        W32000  19.268  16.901   6.047 -0.1219  0.0062  0.0215
89010W        W32001  16.443  15.661   6.589 -0.3310  0.0366  0.1195
89011W        W32002  23.973   5.890  26.951  0.2435  0.0440 -0.2408
89012W        W32003  20.249  12.607   4.660 -0.1283 -0.0315  0.0192
89013W        W32004  23.002  21.123  20.221  0.0316 -0.4219 -0.0352
89014W        W32005  30.640   5.471  16.822 -0.3492  0.0804 -0.1091
89015W        W32006   1.067  13.083  23.962 -0.1932  0.3122 -0.1264
89016W        W32007   9.482  17.492  23.264  0.0155 -0.0417  0.0982
89017W        W32008  29.467  33.068   6.712  0.2840 -0.0228 -0.1134
89018W        W32009  10.557  25.954  28.004  0.0518 -0.2323 -0.0867
89019W        W32010  18.474   1.780  21.806  0.0425  0.1461 -0.0111
89020W        W32011  30.453  15.200  27.855 -0.1687  0.2353  0.1301
89021W        W32012  13.537  33.516   9.342  0.3451  0.1445  0.2341
89022W        W32013  14.343   8.171  21.094 -0.2811 -0.2952 -0.0979
89023W        W32014  13.323  26.028   7.399  0.3487 -0.3353 -0.0891
89024W        W32015  17.706  13.835   3.501  0.3850 -0.1439  0.0361
89025W        W32016  23.205  14.965  17.906 -0.1541 -0.3187  0.1734
89026W        W32017  30.640  11.312   0.740 -0.1565  0.1912  0.1182
89027W        W32018   8.807  16.333  25.594  0.1167  0.0994 -0.2085
89028W        W32019  30.001  28.254   3.536  0.2157  0.0667  0.0219
89029W        W32020  19.184  18.987  24.573  0.1241  0.1151 -0.0188
89030W        W32021  34.449  14.881  16.798  0.1258 -0.2296 -0.0224
89031W        W32022  32.616   5.733   3.126  0.0404 -0.1821 -0.1604
89032W        W32023   9.562  15.875  20.559  0.1005 -0.0542 -0.2375
89033W        W32024  11.606  10.269  17.524  0.1447  0.1839 -0.0454
89034W        W32025  19.284   9.143  26.497  0.2693  0.0593  0.0219
89035W        W32026  24.882  28.528   4.921 -0.4063 -0.3770 -0.0257
89036W        W32027  26.161  17.992   1.586 -0.3439 -0.0306 -0.1957
89037W        W32028  18.085   7.755   3.546 -0.1329  0.1765  0.0258
89038W        W32029  30.248  19.102  26.767 -0.0776  0.1555  0.2299
89039W        W32030   0.982  33.864  22.428  0.0720 -0.1436 -0.0179
89040W        W32031  31.778  18.258  24.772 -0.2778  0.0964 -0.0457
89041W        W32032  14.857  26.756  28.341 -0.0740 -0.1699  0.1670
89042W        W32033   4.181  22.125   8.569 -0.1575 -0.0383 -0.0890
89043W        W32034  27.107   9.953  23.116  0.3105  0.2561 -0.0340
89044W        W32035  12.630   1.574  21.745 -0.0995  0.0661 -0.0679
89045W        W32036   2.859  24.964  21.961 -0.0407  0.0854  0.0375
89046W        W32037  28.687  19.184   5.948  0.1279  0.0245 -0.0755
89047W        W32038  27.932   4.393  29.216 -0.2197 -0.3056  0.0229
89048W        W32039  18.577   7.288  17.857  0.0130  0.0720 -0.1776
89049W        W32040   5.847  23.308  14.829  0.1765  0.0224 -0.1567
89050W        W32041   2.732   7.164  26.429  0.0526  0.2256 -0.0593
89051W        W32042  23.586   9.525   0.257  0.2544  0.0586 -0.2353
89052W        W32043  18.976  33.192  21.490  0.1231  0.0186  0.0697
89053W        W32044  30.628   0.839   0.903  0.3513  0.1458  0.0299
89054W        W32045   6.052  27.356  14.456 -0.1092  0.3799 -0.1495
89055W        W32046  27.370   7.723   3.538  0.2069  0.2210 -0.2543
89056W        W32047   5.783  22.628   8.484  0.1679 -0.1752 -0.2615
89057W        W32048  15.471  21.697   1.601 -0.3087 -0.1166  0.0995
89058W        W32049  24.398  19.289  26.682 -0.0172  0.2536  0.4805
89059W        W32050  20.630  13.899   7.859  0.2048 -0.1715  0.0742
89060W        W32051  33.850  29.226  20.512  0.0333 -0.3058 -0.0785
89061W        W32052  20.455   8.626   0.977 -0.0602  0.1344  0.3487
89062W        W32053  18.478  12.468   0.215 -0.1611  0.3730 -0.0317
89063W        W32054  11.792   7.207  28.588 -0.1528  0.0587  0.1974
89064W        W32055   9.542  13.689   4.905  0.0561 -0.1062 -0.1052
89065W        W32056  20.450  15.741   5.540  0.1607 -0.1635  0.0792
89066W        W32057  17.603  19.622   7.803 -0.2268 -0.0545  0.0025
89067W        W32058   3.188   6.244   3.599 -0.0024 -0.0644 -0.2378
89068W        W32059   2.083  20.542   9.997 -0.2127 -0.0634 -0.1487
89069W        W32060  32.258   7.623  17.595 -0.3266 -0.3595 -0.1404
89070W        W32061  20.476   3.952  27.599  0.1133  0.0076 -0.0243
89071W        W32062  12.565   4.408  22.673 -0.0642  0.2850 -0.0778
89072W        W32063  13.859  22.884  14.461  0.2503 -0.1378  0.3187
89073W        W32064  18.256  29.712   4.381  0.1854 -0.0100 -0.0639
89074W        W32065  30.668  18.886  26.650  0.1779 -0.3400 -0.0187
89075W        W32066  20.586  24.531   7.862  0.2657 -0.0318 -0.1653
89076W        W32067  19.310  12.716  19.643 -0.1796  0.0156 -0.1676
89077W        W32068   3.025  16.458  27.899 -0.2948 -0.2378 -0.3741
89078W        W32069  20.771  20.844   5.407  0.2535 -0.2174 -0.1256
89079W        W32070  29.286  26.009  16.305 -0.1077 -0.2291  0.1192
89080W        W32071  29.147   8.604   2.177 -0.0643 -0.1272 -0.1677
89081W        W32072  17.368  10.066   8.036 -0.0467  0.2724 -0.1600
89082W        W32073  15.057  19.551   2.927 -0.0077  0.1392  0.1966
89083W        W32074  13.511  19.506  28.641 -0.0115 -0.3246  0.0722
89084W        W32075   2.674  20.255   9.694  0.0151  0.2819  0.1028
89085W        W32076  29.214  30.437   2.289 -0.0811 -0.0654 -0.2726
89086W        W32077  14.090  25.852  19.092  0.2856 -0.0557  0.0223
89087W        W32078   0.280  20.212   1.892 -0.0600  0.1050  0.0968
89088W        W32079  22.515  20.531   1.448  0.2074  0.0492 -0.1688
89089W        W32080  20.224   1.562   0.368  0.1020 -0.2982 -0.0579
89090W        W32081  14.204   3.258   5.461 -0.1850 -0.2223  0.0559
89091W        W32082  22.377  12.289  27.157 -0.1419 -0.1325  0.2020
89092W        W32083  30.877  21.929   3.912  0.1747  0.2931 -0.1855
89093W        W32084  30.711   7.753  28.395 -0.0056  0.0673 -0.0624
89094W        W32085  24.296  33.576   0.877  0.0248  0.0811  0.1060
89095W        W32086  16.739  19.736   8.915 -0.0329 -0.0421 -0.4075
89096W        W32087  15.923   8.347  10.740 -0.0602  0.0316 -0.3063
89097W        W32088   8.266   4.352   6.238  0.2150 -0.0603 -0.1156
89098W        W32089  23.826  16.876  16.613  0.2340  0.1160  0.0595
89099W        W32090  27.867  18.669  28.874 -0.5037  0.1036 -0.0797
89100W        W32091  17.211  13.646  25.159 -0.0409  0.0382  0.1712
89101W        W32092  15.095   6.326  17.168  0.1165  0.0711  0.0529
89102W        W32093  25.485  23.111  22.437 -0.1010  0.0397 -0.1014
89103W        W32094  25.696   1.067   4.932 -0.0524  0.2093 -0.0052
89104W        W32095  28.226   4.557  28.021 -0.3233 -0.1195  0.0367
89105W        W32096  32.877  24.283  25.581 -0.0173 -0.1364 -0.2237
89106W        W32097  10.056  18.264   4.818 -0.0381  0.1096  0.1863
89107W        W32098   3.621   6.182   1.258  0.0411 -0.0703  0.0626
89108W        W32099  19.452   3.435  21.766 -0.2562 -0.1080  0.2291
89109W        W32100  22.875   5.783   7.094  0.1051 -0.0093 -0.1365
89110W        W32101  29.177  19.390  25.500 -0.0948 -0.1249 -0.3002
89111W        W32102  20.368  13.966  25.811 -0.0245 -0.0140  0.3350
89112W        W32103  17.041  33.649   9.717 -0.1466 -0.1094  0.0467
89113W        W32104  17.659  13.091  22.223 -0.2136 -0.0524 -0.2754
89114W        W32105  33.867  17.494  23.480  0.0757  0.3276  0.1479
89115W        W32106  13.824   0.692  10.518  0.0889 -0.2957 -0.2933
89116W        W32107  32.604  12.536   0.480  0.3171 -0.0911  0.1147
89117W        W32108  30.542   8.355   1.946  0.1373  0.0331 -0.0009
89118W        W32109   1.352   2.117   5.975  0.2596  0.1638  0.0893
89119W        W32110  25.503  33.582  16.116 -0.2015 -0.1388  0.0302
89120W        W32111  10.506   2.459   8.356 -0.2144 -0.1439  0.0377
89121W        W32112  17.312  34.113   6.400  0.0662  0.3244  0.3213
89122W        W32113   7.809  20.998   4.748  0.1624  0.3671 -0.0087
89123W        W32114  18.941  14.794  20.376  0.2490  0.0600 -0.3603
89124W        W32115   7.979   8.952   8.985 -0.0923 -0.1380  0.0724
89125W        W32116  26.539  10.478  19.398 -0.0173  0.0504 -0.1233
89126W        W32117   9.450   5.333   9.728 -0.0224  0.2430  0.1625
89127W        W32118  13.346   2.916   1.510 -0.0987  0.0471 -0.3743
89128W        W32119  20.355  32.228  23.593  0.0348  0.2057  0.2528
89129W        W32120  25.447   1.147   7.579  0.0834 -0.2555  0.0837
89130W        W32121  22.237  32.206  24.220  0.1680 -0.1131  0.0453
89131W        W32122  21.400   5.335   5.022 -0.2078 -0.1298  0.0716
89132W        W32123  26.403  28.267  26.591 -0.5230  0.2175 -0.4300
89133W        W32124  28.072   6.739  28.650 -0.0930 -0.3047 -0.0042
89134W        W32125  30.444  14.508   6.181  0.0917 -0.2400  0.2207
89135W        W32126  13.895  19.139   5.190 -0.1524 -0.2618  0.1501
89136W        W32127   5.381  26.499  26.741 -0.2216 -0.0396  0.1922
89137W        W32128  18.863   5.552  28.950 -0.0658  0.3247  0.0839
89138W        W32129  23.506  33.342  13.963  0.0837 -0.1822  0.0796
89139W        W32130  19.174  19.177   7.634  0.0064  0.1906  0.0283
89140W        W32131  11.634  10.080  11.220  0.0119 -0.0272 -0.0103
89141W        W32132  14.275  17.941  23.283  0.2152  0.0091 -0.1494
89142W        W32133   5.757  12.993  22.163 -0.3106  0.1114 -0.1285
89143W        W32134  25.293   1.714   6.719 -0.1621 -0.1399  0.4064
89144W        W32135  16.241  25.598   5.295 -0.1610 -0.0970  0.1187
89145W        W32136   7.988  15.905  14.853 -0.3320 -0.0308 -0.0044
89146W        W32137  25.353  20.575   3.420  0.2668 -0.0355 -0.2101
89147W        W32138  25.505   9.301  17.691 -0.0477  0.1037  0.1386
89148W        W32139   0.335  13.364   9.224  0.1884 -0.1397  0.2321
89149W        W32140  21.272  20.224   5.165 -0.0009 -0.1772 -0.2908
89150W        W32141  24.075  11.527  24.639  0.0586  0.1359 -0.2480
89151W        W32142  22.649   5.261  14.448  0.1869 -0.2839 -0.3972
89152W        W32143  14.620   5.535  18.713  0.2120 -0.0904  0.0071
89153W        W32144   3.169   0.875   8.686 -0.1211  0.3285 -0.1988
89154W        W32145  22.701  16.178   7.741 -0.3943  0.1794 -0.1222
89155W        W32146   4.065  18.463   8.235  0.2251 -0.1085  0.0938
89156W        W32147  19.438  27.856   2.770  0.0232 -0.1632 -0.2824
89157W        W32148  16.591  23.129  16.781 -0.2770  0.3297 -0.0628
89158W        W32149  17.095  11.036   5.778  0.3906  0.1385  0.1902
89159W        W32150  30.879   0.979  20.306  0.0400 -0.0737 -0.0721
89160W        W32151  28.404  12.026  27.106 -0.0691 -0.2005 -0.0161
89161W        W32152  12.368  18.489   8.332 -0.0508  0.3311 -0.0794
89162W        W32153  29.027  25.499  15.391 -0.1473 -0.2709 -0.1360
89163W        W32154  25.088  15.918   0.862  0.2312 -0.3732 -0.0246
89164W        W32155  17.781   8.594  10.316  0.2433 -0.2350  0.1048
89165W        W32156   7.296  17.113   9.081  0.1440 -0.1874  0.2001
89166W        W32157   3.249  22.087   6.083  0.1045  0.1023 -0.0615
89167W        W32158  17.342  23.145  15.936 -0.1020 -0.1335  0.0021
89168W        W32159  25.088   4.513  25.464 -0.0513  0.1305  0.0671
89169W        W32160  23.629  10.796  28.604  0.0102  0.3556  0.1386
89170W        W32161   8.515  32.292  19.250 -0.1746  0.0831  0.1469
89171W        W32162  17.564  17.439  28.807  0.1288  0.1163 -0.1192
89172W        W32163  23.177  22.774   1.469  0.1533  0.2568 -0.2206
89173W        W32164  20.077   7.670   9.548 -0.0877 -0.0213  0.0201
89174W        W32165  22.075  17.770  17.202 -0.2047 -0.2459 -0.2491
89175W        W32166  21.504   9.412   5.234 -0.1207 -0.2297 -0.0209
89176W        W32167  19.346   1.511  22.042 -0.3796  0.1478 -0.1993
89177W        W32168  12.833  13.675  29.128 -0.0719  0.0985 -0.0134
89178W        W32169  21.321  24.220   1.995 -0.1092  0.1204 -0.0467
89179W        W32170  15.795  16.431   3.498 -0.1104  0.1172  0.1256
89180W        W32171  16.771  13.771  19.747 -0.1071  0.1842 -0.1132
89181W        W32172  15.344  12.678   3.609 -0.1362  0.0063 -0.2341
89182W        W32173  24.012  16.065  29.011  0.2835  0.0543 -0.0988
89183W        W32174  29.791   4.517  24.334 -0.0704  0.1905 -0.0463
89184W        W32175  30.827  12.014  27.177  0.1444 -0.3801  0.1617
89185W        W32176  13.252  29.849  28.377  0.1690 -0.2083  0.0609
89186W        W32177  16.895  21.994  21.975 -0.0581  0.1500 -0.1300
89187W        W32178  22.552  30.617  25.035  0.1412  0.0556 -0.0568
89188W        W32179  33.668  17.207   9.136 -0.1529 -0.3184 -0.0511
89189W        W32180  10.178  16.574  25.211 -0.0186 -0.1050  0.0360
89190W        W32181  26.172   7.469   3.188  0.1103  0.2172 -0.4483
89191W        W32182  16.645  10.880   5.820 -0.0723  0.1580 -0.0530
89192W        W32183  23.181  17.366  23.770 -0.1830 -0.0998  0.2240
89193W        W32184  11.660   0.767   9.456  0.3735  0.0166  0.0055
89194W        W32185  21.071  25.726  15.103  0.2157  0.2631 -0.0203
89195W        W32186  12.238  16.008   6.761  0.3133 -0.2988 -0.3381
89196W        W32187   3.373  17.531  15.305 -0.0115  0.0268 -0.0438
89197W        W32188  25.752  10.797   5.594 -0.2421  0.1000 -0.1793
89198W        W32189  12.156   5.161   9.144 -0.2541  0.0383 -0.2220
89199W        W32190  18.692  11.123  23.652 -0.1007  0.1229 -0.1075
89200W        W32191  15.455   8.024  19.090  0.1130 -0.1507  0.0034
89201W        W32192  26.444   9.532   5.200  0.1356 -0.3308  0.2463
89202W        W32193   9.677  29.603   0.189  0.3261 -0.1406  0.0576
89203W        W32194   8.363  11.017  18.292  0.3719  0.2406 -0.1381
89204W        W32195  24.604   6.584  24.536 -0.3040 -0.0485  0.1622
89205W        W32196   3.339  12.414  24.876 -0.0861  0.1579 -0.1527
89206W        W32197  21.999   1.418  29.214 -0.0660  0.3266  0.1061
89207W        W32198  20.973   4.599   1.241 -0.1461  0.0448 -0.1493
89208W        W32199  22.353   4.356  17.048 -0.0524  0.1990  0.1289
89209W        W32200  19.882  13.631   7.251 -0.1199 -0.2963  0.3739
89210W        W32201  29.622  19.392  25.246  0.2361  0.0831  0.0591
89211W        W32202  23.163  12.954  27.965 -0.0428  0.2748  0.1129
89212W        W32203  26.624   6.495   4.744  0.0541  0.0969 -0.1341
89213W        W32204  11.837   8.834  23.615  0.0932  0.2595 -0.1513
89214W        W32205  11.882  10.879   3.311 -0.0380 -0.1052 -0.0876
89215W        W32206   7.173  15.247  21.044 -0.2556  0.0103  0.1119
89216W        W32207  32.982  15.813  23.473 -0.1444 -0.1938  0.1092
89217W        W32208  18.295   1.810  14.109 -0.0857  0.0562  0.3423
89218W        W32209  25.670  26.823  21.531 -0.1153  0.0936 -0.3044
89219W        W32210  24.131  15.789   2.037  0.1011  0.2089 -0.0938
89220W        W32211  31.975   6.132   5.165  0.0257 -0.1623  0.0734
89221W        W32212  13.739  12.799  15.416  0.1611 -0.2766  0.0571
89222W        W32213  27.424  25.493   8.545  0.2156  0.3359  0.1290
89223W        W32214  20.503  11.581  17.777  0.1235 -0.2672 -0.0827
89224W        W32215  29.044  25.373   0.968  0.5050 -0.5304 -0.0707
89225W        W32216  27.425   9.660  29.258  0.0824  0.0470 -0.0888
89226W        W32217  10.788  15.700  19.625 -0.0303 -0.1927  0.1185
89227W        W32218  18.148  21.701   4.945  0.0522 -0.2581 -0.2129
89228W        W32219  25.804  19.489  25.366 -0.2464 -0.1199 -0.2069
89229W        W32220  21.931  11.567  25.165 -0.0760 -0.2629  0.0290
89230W        W32221  22.887  20.493   8.758  0.0881  0.0418  0.0451
89231W        W32222  14.103  32.287   8.175 -0.0134 -0.0236 -0.0320
89232W        W32223  26.923  20.396   5.044 -0.0215 -0.0169  0.2259
89233W        W32224   0.390  22.013  16.795 -0.0253  0.1928 -0.0078
89234W        W32225  21.518  29.475   1.116 -0.1197 -0.0637  0.3349
89235W        W32226  33.547  24.338  28.945  0.0782  0.1959  0.1449
89236W        W32227  22.662   5.376   2.882  0.2545  0.0843 -0.0676
89237W        W32228  20.513   7.724   5.138 -0.3288  0.2079 -0.1423
89238W        W32229  20.622   3.298  22.557 -0.4086  0.1089  0.2175
89239W        W32230  16.176  22.544  15.633  0.0139 -0.0870 -0.2561
89240W        W32231  16.347   1.577  21.277 -0.2410 -0.0247 -0.1285
89241W        W32232  16.285  13.522  21.100  0.2882 -0.0386 -0.1879
89242W        W32233  21.877  27.817   0.865 -0.1393  0.3645 -0.1106
89243W        W32234   3.869  31.008   5.166 -0.1085 -0.0260 -0.0529
89244W        W32235  20.442  12.581   0.863  0.1659  0.0479 -0.1310
89245W        W32236  20.116  20.419  15.898  0.1351  0.2449  0.1280
89246W        W32237   3.475  19.484  25.730  0.0294 -0.0742 -0.2400
89247W        W32238  12.412   2.215  19.910 -0.0372 -0.1230  0.2884
89248W        W32239  23.751  15.553  15.666  0.0586  0.0875  0.0313
89249W        W32240   9.745  32.105  22.782 -0.0745 -0.4613  0.2005
89250W        W32241  20.803  29.237   4.464 -0.0974 -0.0218 -0.3301
89251W        W32242  28.231   7.629   1.403 -0.0875 -0.0444 -0.1511
89252W        W32243  27.113   5.331  25.143 -0.2115  0.1520 -0.1804
89253W        W32244  30.411  31.536  20.457 -0.0390  0.2322  0.0525
89254W        W32245   4.196  12.620   1.064 -0.0907 -0.1258 -0.1983
89255W        W32246  10.689  21.077  28.810 -0.1572  0.0949 -0.0590
89256W        W32247  30.872  27.927   2.338  0.0980  0.2183 -0.1553
89257W        W32248  11.253   4.850  22.588 -0.2580  0.0106  0.1833
89258W        W32249  25.752   8.238   4.233 -0.3856  0.0446  0.2852
89259W        W32250  28.465  12.183  23.666 -0.0936  0.0094 -0.2975
89260W        W32251  21.809  14.294   0.390 -0.0532 -0.1409 -0.0230
89261W        W32252   0.778   1.934   2.456  0.1371  0.2970 -0.1446
89262W        W32253  22.792  16.547  22.691 -0.0072  0.1802 -0.1618
89263W        W32254   8.522   3.140   9.197  0.1916 -0.0355 -0.0945
89264W        W32255  15.302  12.494   2.078  0.0904  0.0770  0.3243
89265W        W32256  29.356  11.961  29.121 -0.0210 -0.0762  0.0206
89266W        W32257  25.333   1.085  25.292 -0.3865 -0.0321 -0.0142
89267W        W32258  13.934   9.470   3.124  0.4952  0.1045  0.0131
89268W        W32259  14.467  30.423   1.986  0.0850 -0.2427  0.1736
89269W        W32260  27.199  17.091  25.627 -0.1236  0.0519 -0.3513
89270W        W32261  23.423   7.438   2.710 -0.0824 -0.3334  0.2790
89271W        W32262   6.028  20.593  26.855 -0.0238  0.2584 -0.1705
89272W        W32263  15.061  21.580  15.632  0.1019 -0.1369 -0.0064
89273W        W32264  25.415   2.610   7.674  0.1250  0.1535 -0.0262
89274W        W32265   3.547  15.400  29.079  0.1186 -0.2807  0.0530
89275W        W32266  23.553  15.267  18.296 -0.1049  0.3169  0.1415
89276W        W32267   8.403   9.070  18.208 -0.0067 -0.0350  0.1013
89277W        W32268  29.881   9.287  23.783 -0.0735 -0.2298  0.2381
89278W        W32269   6.663   3.891  16.517  0.2035 -0.0431  0.3651
89279W        W32270  18.910  14.768   4.057  0.2697  0.3574  0.2223
89280W        W32271  23.475  12.830  26.928 -0.0229  0.0552  0.2175
89281W        W32272  25.806  17.358   6.425 -0.1366 -0.1312 -0.1799
89282W        W32273  19.314  30.707  17.998  0.0995 -0.0959  0.3655
89283W        W32274  31.603  24.425  26.732  0.3853  0.0555 -0.0652
89284W        W32275  11.043  13.308  22.467 -0.0345  0.1896 -0.0200
89285W        W32276   6.283  17.283  16.852 -0.2287  0.1287  0.1717
89286W        W32277  18.392  13.005   1.993  0.1462  0.1490  0.0699
89287W        W32278   6.443  18.870   8.345  0.1740  0.2553 -0.1319
89288W        W32279  12.522  10.887  28.256  0.1567  0.1369 -0.1828
89289W        W32280   1.240  13.787   9.758 -0.2344  0.0002  0.2487
89290W        W32281  21.800  12.506  25.007 -0.1370  0.1017 -0.0093
89291W        W32282   9.607   5.289   3.364 -0.1145  0.3935  0.2447
89292W        W32283  17.157  20.508   1.960 -0.0988 -0.3099 -0.1047
89293W        W32284  31.114  15.589  18.629 -0.2193 -0.0171  0.1443
89294W        W32285  26.682  15.530  23.584 -0.0158  0.2299 -0.1563
89295W        W32286  18.925  12.342   1.883  0.1241  0.0659 -0.1999
89296W        W32287   3.013  24.369  27.426  0.1609  0.2261  0.0058
89297W        W32288  13.770  14.480  16.363 -0.1426 -0.2791 -0.1013
89298W        W32289  19.897  15.248  25.612  0.0982  0.1474  0.1482
89299W        W32290  29.404  24.159   7.468  0.3125 -0.0673  0.0905
89300W        W32291  15.403   8.840   6.196  0.0279 -0.0206  0.1356
89301W        W32292   5.553   5.384   4.524 -0.0974 -0.2290 -0.0049
89302W        W32293  23.462   2.428   2.620 -0.3351  0.1726 -0.0626
89303W        W32294  17.515  22.922  12.498  0.0654  0.1215 -0.0951
89304W        W32295   9.902  29.260   3.784 -0.0514 -0.0233  0.2226
89305W        W32296  34.311   7.151  23.484 -0.2617 -0.1639  0.0328
89306W        W32297  25.670   5.699  24.776 -0.0038 -0.1515  0.1401
89307W        W32298   3.503  15.509   1.525 -0.1176 -0.0985  0.0180
89308W        W32299  26.649   0.739  18.881 -0.0306 -0.3745  0.1572
89309W        W32300  18.220  17.088   5.218  0.1655  0.0698 -0.4005
89310W        W32301  16.443  31.480   8.991 -0.0919  0.0178 -0.0438
89311W        W32302  29.728  27.970  18.196 -0.3045 -0.0229  0.0385
89312W        W32303  28.401  27.937   9.648  0.0570 -0.2135  0.1743
89313W        W32304  27.498  16.782   6.353 -0.1972 -0.0215 -0.1261
89314W        W32305   6.931  11.998  22.601  0.0267 -0.2447  0.2252
89315W        W32306  28.039  30.612  13.699  0.1077 -0.0554  0.4845
89316W        W32307   9.397   6.351   7.073  0.0975 -0.1490  0.1513
89317W        W32308  26.157  13.410   5.171  0.0990  0.0614  0.0710
89318W        W32309  19.055   2.377  26.376 -0.0998  0.1828 -0.0834
89319W        W32310  11.540  23.701   1.339 -0.3702  0.0664 -0.2261
89320W        W32311  32.598  22.635  23.907 -0.2355 -0.2005 -0.0553
89321W        W32312  11.149   9.351   2.572  0.1623  0.2035  0.0636
89322W        W32313  22.308   1.180   7.495  0.2363 -0.3854 -0.0046
89323W        W32314  16.344  14.467  25.910 -0.0787 -0.1227  0.0200
89324W        W32315  20.027  17.573   4.823  0.1824  0.0590 -0.1410
89325W        W32316  24.319  14.311   2.790  0.0537 -0.3203 -0.1657
89326W        W32317  16.779  12.745  22.642  0.0780  0.0836  0.0883
89327W        W32318  19.169  19.339  28.209 -0.2116  0.0431 -0.2478
89328W        W32319   4.345  31.267   8.551  0.1773  0.3795  0.0816
89329W        W32320  30.961   6.275  25.528 -0.1657  0.2292 -0.2647
89330W        W32321  22.936  31.611  27.711  0.1192 -0.0684  0.0057
89331W        W32322  33.306  10.460   2.697  0.0671 -0.2007  0.2576
89332W        W32323  20.351  12.718   2.882  0.1010 -0.1598 -0.1808
89333W        W32324  13.505   6.325  28.406 -0.1415  0.3172 -0.0983
89334W        W32325  22.578  13.466  28.884 -0.2201  0.2234  0.1822
89335W        W32326   5.000  19.384  22.337  0.2927 -0.1629  0.1182
89336W        W32327  16.425  24.684   5.027  0.0213  0.3562  0.2843
89337W        W32328  20.461  14.821  27.210 -0.1083 -0.0660 -0.2728
89338W        W32329  20.066   6.549  25.571  0.4400 -0.1390 -0.1851
89339W        W32330  14.852  25.413   0.125  0.2826  0.0173  0.0739
89340W        W32331  23.596  25.915   9.745  0.1425  0.0447  0.1747
89341W        W32332  28.846  23.059   6.955 -0.2249 -0.0588  0.1107
89342W        W32333   3.653  25.103  28.424  0.0813 -0.0773  0.2231
89343W        W32334  11.279  31.704   5.882  0.0039 -0.0603 -0.2048
89344W        W32335  14.181   1.832   5.924  0.1661  0.1426  0.0654
89345W        W32336  19.610   9.320  25.208 -0.0327 -0.0095 -0.0153
89346W        W32337   2.549  20.116  24.480  0.1445  0.1805 -0.1908
89347W        W32338   8.482  30.631  25.811  0.0931  0.0537 -0.0838
89348W        W32339  15.386  11.740  19.958 -0.0710 -0.0887  0.2462
89349W        W32340  22.028  12.543  21.198 -0.3742 -0.2731 -0.1628
89350W        W32341  22.892  16.382  24.482  0.1572  0.3781 -0.1894
89351W        W32342  25.703  18.276   2.353 -0.0282  0.2295 -0.1549
89352W        W32343  29.175  18.939  27.514 -0.3102 -0.1070  0.2696
89353W        W32344   1.367  34.083   4.277  0.0813  0.0229  0.1786
89354W        W32345   8.850   6.744  23.449  0.1860  0.0629 -0.0925
89355W        W32346  31.964  18.656  20.880  0.3224  0.3953  0.0849
89356W        W32347  29.688  11.117   1.160  0.2375  0.0323 -0.3622
89357W        W32348  32.282  16.130  25.356 -0.1262  0.0071 -0.2290
89358W        W32349  23.088  15.606   1.723 -0.1023  0.0133  0.1034
89359W        W32350   6.578  15.387   3.780 -0.2670 -0.1778  0.1772
89360W        W32351  13.992   3.996   0.609 -0.1813  0.2590  0.0503
89361W        W32352   8.578  26.228   4.316  0.1534  0.1089 -0.0838
89362W        W32353  23.409  23.070  24.689 -0.3547  0.0221  0.0510
89363W        W32354  21.514   7.296  20.690  0.0668 -0.0590 -0.0639
89364W        W32355  10.228   1.388   2.665  0.4430 -0.1073 -0.3422
89365W        W32356   8.493  17.959  14.874 -0.0929 -0.0019  0.1163
89366W        W32357  17.349  21.156  17.120 -0.1644  0.5069  0.1070
89367W        W32358  10.063  20.831  14.066  0.0443  0.1986  0.0031
89368W        W32359  14.063   9.002  28.026 -0.1285 -0.1248 -0.0203
89369W        W32360  20.897   5.295  16.334 -0.0975 -0.1112  0.0865
89370W        W32361  34.679   8.610   2.741 -0.0340  0.0564 -0.0495
89371W        W32362  24.067   7.064   0.124 -0.4536 -0.5066  0.0664
89372W        W32363  12.928   6.384   8.407 -0.0118 -0.2668 -0.0146
89373W        W32364  22.842  13.841   1.839 -0.1592 -0.0706 -0.0354
89374W        W32365   4.042  18.035  19.591  0.0715 -0.3875 -0.2886
89375W        W32366  32.922  23.975  19.194  0.1765 -0.1897 -0.1013
89376W        W32367  10.701   8.071  22.553 -0.0029  0.0505  0.0419
89377W        W32368  24.002  10.465   9.224  0.2252  0.1804  0.1416
89378W        W32369  16.525  11.685  23.418  0.0620  0.2422 -0.0236
89379W        W32370   3.444  26.927  27.846 -0.0897  0.1786 -0.0787
89380W        W32371  26.698   0.932   0.668  0.2795  0.0519  0.2452
89381W        W32372  34.225   6.689  17.205  0.0548 -0.2537  0.2316
89382W        W32373  25.317   4.527  26.889 -0.1238  0.0509 -0.1794
89383W        W32374  24.442  32.789  14.754  0.4698  0.0153  0.0707
89384W        W32375  30.686  22.498   0.501 -0.0967 -0.0964 -0.3579
89385W        W32376  30.462   8.572  23.733 -0.0366 -0.1850 -0.0804
89386W        W32377  28.652  21.115  26.848  0.0435 -0.2057 -0.3077
89387W        W32378   9.832   5.288   5.545 -0.2462 -0.2813  0.0011
89388W        W32379  18.341   0.109  24.390  0.0589  0.2189 -0.1649
89389W        W32380  31.224   8.268  24.903 -0.0852 -0.1518 -0.3454
89390W        W32381  13.959  22.145  28.065 -0.5886 -0.0985  0.1068
89391W        W32382   2.450   9.138  29.114 -0.2302  0.1804  0.1814
89392W        W32383  22.819  17.468  26.665  0.2286 -0.1325  0.0303
89393W        W32384   6.806  12.822  24.522 -0.0800  0.1055  0.1604
89394W        W32385  15.803   4.012  27.694 -0.2171 -0.2391  0.1652
89395W        W32386  33.648  16.984  17.878  0.0761 -0.0866 -0.0122
89396W        W32387  15.813   1.464  19.718  0.1027  0.1288  0.3167
89397W        W32388  16.382  12.180   0.483  0.1801 -0.0727 -0.1569
89398W        W32389  22.338   9.973   8.347 -0.1194  0.1476 -0.2769
89399W        W32390  21.663  23.965  17.186  0.1221  0.1250 -0.0127
89400W        W32391  16.413   6.308  24.840 -0.0461 -0.4167 -0.0502
89401W        W32392  19.245   9.013  23.773 -0.0496 -0.2178  0.1770
89402W        W32393  21.166  16.028   9.313  0.0377  0.1234 -0.3899
89403W        W32394  23.361  30.973   6.435 -0.1318 -0.4325  0.2780
89404W        W32395  15.653  20.599   6.984  0.2798 -0.0047 -0.0053
89405W        W32396  15.835  13.401   2.213  0.2275  0.2637  0.2908
89406W        W32397  28.880  17.292   8.326 -0.2336 -0.2411 -0.1256
89407W        W32398  33.312  29.385  22.252 -0.0260 -0.2914 -0.2721
89408W        W32399  27.564   4.390  20.137 -0.1156 -0.0963 -0.0133
89409W        W32400  26.499   3.439  27.367  0.2153 -0.1688  0.2424
89410W        W32401  28.666   2.847   5.379  0.3629 -0.0640 -0.1726
89411W        W32402  10.065  11.681   9.569  0.0980 -0.2622  0.0307
89412W        W32403   1.608  23.132  21.415 -0.0475  0.1950  0.2526
89413W        W32404  22.880  13.656  22.455  0.3860  0.0457  0.1746
89414W        W32405   9.900   1.387  28.966 -0.3060  0.3087  0.3123
89415W        W32406  23.575   5.023  26.027 -0.1977  0.0758  0.1593
89416W        W32407  20.884  19.301  15.432  0.0305 -0.2026  0.0105
89417W        W32408  19.996  18.110  15.307  0.0704 -0.2149 -0.0273
89418W        W32409  23.787  10.633   2.319 -0.1385 -0.1030  0.2308
89419W        W32410  32.791  10.525  15.225 -0.1271  0.2384 -0.0497
89420W        W32411  32.493  10.217   5.959 -0.0766 -0.0741 -0.2994
89421W        W32412  13.689   4.030  18.578 -0.1925 -0.1199  0.1424
89422W        W32413  18.542   3.932  29.148 -0.1363 -0.1366  0.0041
89423W        W32414  31.094  22.329  25.083 -0.0074 -0.0519  0.0524
89424W        W32415  26.484   9.970  26.323  0.1387 -0.0889  0.0905
89425W        W32416  16.635  16.081   8.788  0.2317 -0.3297 -0.3625
89426W        W32417  23.579  17.765  18.547 -0.0952 -0.1519  0.0233
89427W        W32418  12.207  21.828   9.111 -0.2814  0.1492  0.1744
89428W        W32419  15.278  13.128   7.979  0.1316  0.1816 -0.0924
89429W        W32420  27.765   0.889  25.169  0.1587 -0.1735 -0.1399
89430W        W32421  15.414  17.087  25.710  0.2326 -0.1084  0.0790
89431W        W32422  18.335  21.989  12.884  0.0555  0.0077  0.0728
89432W        W32423  19.437  12.265  27.404 -0.2156 -0.1406 -0.0144
89433W        W32424  24.204  10.678   5.963  0.3056 -0.1567  0.0925
89434W        W32425  15.748  27.673   9.157  0.2385  0.1517  0.0949
89435W        W32426  24.368   7.389   5.393 -0.0111 -0.3465 -0.0766
89436W        W32427  23.929  22.978   6.289  0.0649  0.0268  0.1072
89437W        W32428  12.310  11.895   8.834 -0.0600 -0.1691 -0.4103
89438W        W32429  29.626  20.644   0.796  0.2685 -0.1936  0.1615
89439W        W32430  32.825  19.178  20.753  0.1926 -0.0107 -0.2600
89440W        W32431  10.205   7.220  20.711 -0.0157  0.4221  0.0938
89441W        W32432  19.165  14.670  24.737  0.2140  0.0415 -0.3841
89442W        W32433  26.666   7.681   6.492  0.2320 -0.0322 -0.1325
89443W        W32434  12.882  26.480  26.760  0.1935 -0.2053 -0.0826
89444W        W32435  14.219  22.947  26.474 -0.1009  0.1081 -0.0190
89445W        W32436  13.100   5.112  28.837 -0.3652 -0.1910 -0.3191
89446W        W32437  20.713  33.814   7.867 -0.2310 -0.0151  0.0987
89447W        W32438  24.504  34.692  23.513 -0.0699 -0.1670 -0.0328
89448W        W32439  16.030   1.873   3.062 -0.1276 -0.2590  0.2133
89449W        W32440  33.301  23.288  28.716  0.2416 -0.0891  0.1796
89450W        W32441  33.722  24.602  22.067  0.3088  0.0394  0.2340
89451W        W32442   8.315  11.766  27.250  0.0788 -0.0624 -0.0416
89452W        W32443   7.848  25.331   9.796  0.0487 -0.1037  0.2789
89453W        W32444  32.052   6.469   7.923  0.1668 -0.1029 -0.2938
89454W        W32445  14.439   9.885   7.102 -0.3269 -0.2701  0.2104
89455W        W32446  20.716  13.582   3.311  0.3829  0.2281  0.1132
89456W        W32447   0.542  17.541  23.761  0.0851 -0.2961 -0.2181
89457W        W32448  30.617  15.018   1.237 -0.0549 -0.1907 -0.0558
89458W        W32449  28.057  26.979  28.500  0.4025 -0.0658 -0.1633
89459W        W32450  17.358  16.051  13.186  0.1940 -0.2640  0.1905
89460W        W32451  25.195  20.102  14.368  0.0708  0.2163 -0.1730
89461W        W32452  14.610  13.311   0.163 -0.1512 -0.0455  0.1051
89462W        W32453  34.700   6.339   5.711 -0.3647 -0.3068 -0.1424
89463W        W32454   7.526  14.514   0.224 -0.1456 -0.0942  0.4754
89464W        W32455   8.210   6.967  24.085 -0.2162 -0.1687  0.2823
89465W        W32456  29.054  30.418  19.577 -0.3397 -0.1090 -0.2021
89466W        W32457  27.865  26.024  26.502 -0.1131 -0.2446 -0.0631
89467W        W32458  19.924  29.457  26.318  0.0299 -0.1852  0.0821
89468W        W32459  15.195   6.269   3.512  0.2121 -0.1741  0.2054
89469W        W32460   7.041   9.424  14.995  0.3604  0.0470  0.1365
89470W        W32461  28.092  33.219  29.139 -0.3502 -0.0116 -0.1362
89471W        W32462  23.000  15.669  20.925 -0.2456  0.0164 -0.0047
89472W        W32463  30.812  15.950  18.938 -0.0974  0.1053 -0.2829
89473W        W32464  15.923   7.466  23.024 -0.2106  0.0825  0.2560
89474W        W32465  18.283  22.173  13.697 -0.0002  0.3348  0.1638
89475W        W32466  25.979  23.246  18.731  0.1256 -0.2689  0.0644
89476W        W32467  24.316  13.296  16.034 -0.0214 -0.0940 -0.0491
89477W        W32468  26.112   3.354  13.658  0.0648  0.1370 -0.0619
89478W        W32469  34.617  21.233  16.690 -0.1336 -0.0612  0.1206
89479W        W32470  26.942  20.918  15.314  0.1094  0.0232  0.0634
89480W        W32471  21.711  26.907  16.130  0.0218 -0.0165  0.3745
89481W        W32472   6.925  13.002  22.189 -0.3881 -0.2198 -0.1147
89482W        W32473  24.844   3.280  22.778 -0.2049 -0.1769  0.2226
89483W        W32474   0.529  25.486  21.373 -0.1539 -0.2300 -0.1769
89484W        W32475   6.644  16.070  25.499 -0.3142 -0.0472 -0.1373
89485W        W32476  28.393  25.525  23.949  0.0875  0.2266 -0.1423
89486W        W32477  18.425  10.578  18.502 -0.0610  0.0325  0.0048
89487W        W32478  19.934  13.730  14.240  0.3938 -0.0359 -0.1964
89488W        W32479  20.375  14.544  22.612 -0.0970  0.1032  0.1907
89489W        W32480  18.702  30.682   2.295 -0.1935  0.1020 -0.0994
89490W        W32481  17.319   9.149  17.845 -0.3335  0.0162  0.0847
89491W        W32482   4.875  20.486  22.688 -0.0859  0.1131 -0.0620
89492W        W32483  20.318  29.859  13.502  0.1679  0.3568 -0.0630
89493W        W32484  21.099  33.847   1.939  0.0209 -0.0305  0.1324
89494W        W32485  18.832   9.804  15.325 -0.1778 -0.0867 -0.1851
89495W        W32486  26.750   6.318  15.529 -0.0772 -0.1663  0.0053
89496W        W32487  30.704   7.216  27.473 -0.0471 -0.0723 -0.0890
89497W        W32488  19.141  23.350  13.068 -0.2740  0.2512 -0.0080
89498W        W32489  30.849   0.121  19.100  0.0527  0.2718 -0.3267
89499W        W32490  28.579   8.460  13.634  0.2492 -0.6004 -0.1930
89500W        W32491   9.739   3.582  11.361  0.1125 -0.0028  0.2163
89501W        W32492  17.772  33.816  15.866 -0.3910 -0.4540 -0.0947
89502W        W32493  18.226  11.376  23.640  0.3408 -0.1001  0.1033
89503W        W32494   1.420  15.918  17.233  0.0859 -0.2765  0.2925
89504W        W32495  12.304  15.709  15.390 -0.0340 -0.2253 -0.1266
89505W        W32496  12.138  12.957  17.965 -0.1867  0.2008 -0.0163
89506W        W32497  16.715  11.674  15.172 -0.1869 -0.1780 -0.1365
89507W        W32498   0.980  30.429   5.568 -0.3256  0.2287  0.2704
89508W        W32499  21.066  25.069  14.309 -0.0919  0.1049 -0.1293
89509W        W32500  31.440   2.335  23.786 -0.0435 -0.0444 -0.1746
89510W        W32501  22.392  20.063  20.293 -0.4153  0.1649  0.0507
89511W        W32502  17.596  31.916  18.666 -0.1099 -0.2907  0.2522
89512W        W32503  14.952  13.056  19.511 -0.1058  0.3134 -0.0791
89513W        W32504   6.666   3.290   0.358 -0.0727 -0.2706 -0.1758
89514W        W32505  21.423  23.699  15.453  0.0107 -0.2318  0.0379
89515W        W32506  17.304  33.004  17.799  0.1809  0.0237 -0.1279
89516W        W32507  21.746  17.514  15.816 -0.0025 -0.1910 -0.1217
89517W        W32508  18.113  30.819  24.424  0.1204 -0.0975 -0.2704
89518W        W32509  23.994  18.281  20.181 -0.3085 -0.1597 -0.1621
89519W        W32510  26.817  34.228  24.771 -0.3261 -0.1288 -0.3592
89520W        W32511   6.696  21.012  15.741  0.1225  0.3595  0.0479
89521W        W32512  15.324   5.259   4.606  0.4294 -0.4070 -0.0666
89522W        W32513  13.840  10.412  22.885 -0.0062 -0.4053  0.0036
89523W        W32514  28.252  21.490  13.590  0.0452  0.2252 -0.0540
89524W        W32515  13.205  11.499  18.464  0.0344  0.2623  0.1238
89525W        W32516  10.598  15.488  16.505  0.5455 -0.2205  0.0868
89526W        W32517  30.507  28.501  16.529 -0.1796 -0.1409  0.3948
89527W        W32518  30.566  22.243  15.610  0.2697 -0.2564  0.0930
89528W        W32519  11.598   4.493  16.128 -0.0569  0.1502  0.0002
89529W        W32520  11.687  23.858  16.568  0.2320 -0.0083  0.0893
89530W        W32521  22.061  30.937  17.062  0.3776  0.3148  0.1210
89531W        W32522  18.045   5.255  21.892 -0.1007 -0.3706  0.0086
89532W        W32523  19.171  25.033  13.505 -0.2361 -0.0829 -0.3820
89533W        W32524   4.451   7.835  25.094 -0.1593 -0.1150 -0.2345
89534W        W32525  26.097  30.046   0.895  0.2174 -0.1339 -0.0047
89535W        W32526  22.733  21.464  20.446 -0.0496  0.2089  0.1491
89536W        W32527  34.757  33.308  16.278 -0.0292  0.3076  0.0879
89537W        W32528  24.131  28.429  16.243  0.0310 -0.0281 -0.0605
89538W        W32529  20.277  13.609  20.156  0.1459 -0.0959 -0.4111
89539W        W32530  17.501  13.559  19.528  0.0321  0.1243  0.1736
89540W        W32531  13.227  16.080  18.969 -0.2673  0.0819 -0.2308
89541W        W32532  18.625   9.036  20.692 -0.0258 -0.0424 -0.0560
89542W        W32533  22.308  23.693  22.495 -0.2548 -0.0468  0.1940
89543W        W32534   9.675  10.708  20.930  0.1337  0.0744  0.1198
89544W        W32535   7.779  17.029   1.550 -0.1317  0.0070  0.0971
89545W        W32536  28.624  27.262  14.521 -0.0007 -0.0532  0.3412
89546W        W32537  34.462  14.113  28.620 -0.0479  0.3927  0.2277
89547W        W32538  15.383  11.274  17.200 -0.0035  0.1174  0.0979
89548W        W32539  27.768   1.125  20.104  0.0495  0.0211 -0.0503
89549W        W32540  10.485  31.225  24.558  0.0944  0.1694 -0.1700
89550W        W32541  23.825   7.980   3.729  0.0446 -0.2976  0.0217
89551W        W32542   9.227  10.686  21.185 -0.3429  0.1451 -0.0143
89552W        W32543   5.170   0.199  20.306 -0.0799 -0.0597  0.0352
89553W        W32544  26.928  12.924  28.981 -0.0265  0.0596 -0.2428
89554W        W32545  21.452   9.526  15.789 -0.0177 -0.0570 -0.0689
89555W        W32546  24.259  15.290  24.649  0.0052  0.0510  0.1350
89556W        W32547  21.498  20.257  16.929 -0.2038 -0.0437  0.1036
89557W        W32548   2.006  20.486  20.194 -0.0803 -0.2232 -0.0091
89558W        W32549  31.356  10.545  15.219 -0.1601 -0.1607 -0.2151
89559W        W32550  32.011   1.715  19.063  0.1486  0.2121 -0.1174
89560W        W32551   9.621  30.904  15.561 -0.0893  0.3289  0.0114
89561W        W32552  28.538  33.241  26.220  0.1093  0.0494  0.1000
89562W        W32553  30.385  12.639   9.520  0.1071 -0.2497 -0.3526
89563W        W32554  22.136   6.153  22.015 -0.2745 -0.1266 -0.1935
89564W        W32555   0.177   5.805  24.782 -0.0345  0.1614  0.3077
89565W        W32556  20.143  10.105  20.695 -0.0858 -0.2489 -0.1499
89566W        W32557  17.147   8.920  24.601 -0.1221 -0.0607  0.0662
89567W        W32558  24.419  20.027  23.629  0.0203  0.0400  0.1850
89568W        W32559  27.010   6.148  15.964  0.0170 -0.2332  0.2247
89569W        W32560  14.707  21.687  16.573 -0.0246 -0.0331 -0.1456
89570W        W32561  24.289  20.148  27.057  0.0471  0.2317 -0.4557
89571W        W32562   0.985  12.512  21.658 -0.0880  0.3082  0.0437
89572W        W32563  21.794  24.475  15.226 -0.2102  0.0793  0.1136
89573W        W32564  12.539  20.678  19.652 -0.4894  0.1278 -0.1676
89574W        W32565  20.528  27.041  17.831  0.0798 -0.1690 -0.2816
89575W        W32566   8.766  16.732  23.418 -0.0715 -0.0837 -0.0382
89576W        W32567  21.193   0.407  19.214 -0.1619 -0.3928  0.0798
89577W        W32568  31.166  12.957   0.872 -0.0075  0.0740  0.3682
89578W        W32569  15.917  29.452   8.673  0.3899 -0.1691 -0.4021
89579W        W32570  22.750   8.129  14.120 -0.2244  0.1570 -0.0974
89580W        W32571  29.623  26.388   3.548  0.0190 -0.1988 -0.0393
89581W        W32572  34.449   6.618  26.988  0.3826  0.0858  0.0301
89582W        W32573  34.383  12.188  15.906  0.1447 -0.0828  0.0400
89583W        W32574  31.108  22.408  23.311 -0.1114 -0.1396 -0.2008
89584W        W32575  18.350  19.780  15.775  0.2001 -0.0015 -0.0186
89585W        W32576   6.549   9.636  25.531  0.0047  0.1225  0.0799
89586W        W32577  17.334   9.015  21.052  0.0729  0.0063  0.0477
89587W        W32578  15.338  32.823  15.735 -0.3116  0.0172  0.2496
89588W        W32579  34.571  25.600  15.045 -0.0731 -0.3009  0.1481
89589W        W32580  22.859  23.938  17.905 -0.1908 -0.1377 -0.0572
89590W        W32581  22.156   7.574  23.390 -0.1038 -0.2438  0.0289
89591W        W32582  34.636  30.524   8.255  0.1748 -0.0177  0.0162
89592W        W32583   9.898  21.094  20.192 -0.1363  0.2918 -0.0860
89593W        W32584  13.285  11.288  17.570  0.2269  0.0976  0.1133
89594W        W32585   7.097   2.776  28.762  0.0865 -0.1816  0.2175
89595W        W32586  16.895  24.775  16.477 -0.1882 -0.0441  0.1517
89596W        W32587  15.486  24.741  15.183 -0.0010 -0.0737 -0.1230
89597W        W32588  10.958  10.903  20.513  0.3429 -0.1504 -0.1325
89598W        W32589   2.216  14.704  22.491  0.0208 -0.1446 -0.0787
89599W        W32590  24.731  28.744  21.311 -0.0582  0.2410 -0.1710
89600W        W32591   3.100  11.528   3.346  0.0423  0.0770 -0.0000
89601W        W32592  25.029  33.585  13.878  0.1245  0.3555  0.3557
89602W        W32593  11.936  31.871  21.800  0.0533 -0.0931 -0.1773
89603W        W32594   2.221  18.062  19.259  0.0226 -0.1153 -0.3431
89604W        W32595  30.860  26.294  19.643  0.0196 -0.0184  0.0497
89605W        W32596  29.422  21.690  14.805  0.1084  0.0880 -0.3794
89606W        W32597  11.917  31.984  18.349 -0.2132  0.0200  0.2500
89607W        W32598  25.921  33.634  18.967  0.0056 -0.2658 -0.2026
89608W        W32599  16.602  14.568  21.161  0.1650  0.2287 -0.1775
89609W        W32600  17.489  32.296  21.811 -0.3023  0.0175 -0.2571
89610W        W32601  26.076  32.337  15.521  0.1328  0.2227  0.0012
89611W        W32602  25.798  12.926  22.542 -0.0073 -0.2810 -0.1057
89612W        W32603  23.633   4.657  16.893  0.2194  0.1397  0.3216
89613W        W32604  23.898   5.789  17.993 -0.1471  0.0786  0.1129
89614W        W32605  27.837  20.893  13.114  0.2778 -0.2793 -0.1252
89615W        W32606   5.231  19.673  22.632 -0.0082  0.0854 -0.3474
89616W        W32607  16.867  26.397  15.089 -0.0581  0.3850  0.3895
89617W        W32608  27.188  21.494  28.883 -0.4257  0.0377 -0.0162
89618W        W32609  23.025  33.241   2.700  0.0460  0.2221  0.3141
89619W        W32610  15.631  16.016  12.854  0.1424  0.1073  0.3112
89620W        W32611  32.832   4.533  25.910 -0.1480 -0.2033 -0.0762
89621W        W32612   3.525   5.671  15.252 -0.1895  0.2808  0.0631
89622W        W32613  29.630  28.474   2.514  0.0358  0.2754 -0.4306
89623W        W32614  26.454  33.759  13.195 -0.0802 -0.0364 -0.0357
89624W        W32615   2.487   1.258  15.442  0.3724 -0.1016 -0.0681
89625W        W32616   5.938  15.659  19.210 -0.0718 -0.0206 -0.2018
89626W        W32617   2.015  15.282   2.997  0.0042 -0.0319  0.1238
89627W        W32618  24.565  22.116  18.477 -0.1795 -0.2481  0.1407
89628W        W32619  10.712  19.751   2.390  0.6595 -0.4080 -0.1896
89629W        W32620  26.768  25.310  22.094 -0.2044 -0.1011 -0.0942
89630W        W32621   2.511  29.523  18.425  0.1701  0.0871  0.0116
89631W        W32622  16.363   4.488  20.298 -0.0289  0.1579  0.3439
89632W        W32623  27.347  27.502  12.956  0.0677 -0.2540 -0.0793
89633W        W32624  16.501  28.012  25.301 -0.0048 -0.2417 -0.0018
89634W        W32625  21.359  15.255  20.551  0.0253 -0.0488 -0.1487
89635W        W32626  13.844  13.355  19.007 -0.0372  0.0710 -0.4341
89636W        W32627   4.496  22.440  21.411  0.0774  0.1476 -0.0951
89637W        W32628   2.905   5.033  24.167  0.1039  0.0717 -0.0906
89638W        W32629  18.767  12.624  23.167 -0.1197 -0.1085  0.1762
89639W        W32630  25.722  29.133  20.062 -0.0207  0.2236  0.0192
89640W        W32631  29.676  13.552  26.690 -0.0254 -0.0417  0.1626
89641W        W32632  31.422  17.026  23.558 -0.1888 -0.0186  0.0376
89642W        W32633  26.494  12.480  21.759  0.1920  0.3301 -0.1591
89643W        W32634  22.544   3.753  26.212  0.1874 -0.0975  0.1814
89644W        W32635  30.397  28.444  20.276 -0.1313 -0.1920  0.1145
89645W        W32636   7.779  18.403  21.582 -0.0205 -0.2893 -0.0470
89646W        W32637  27.422  15.675  17.744 -0.1519  0.3327  0.0802
89647W        W32638  17.163  24.733  15.556 -0.1102  0.0825 -0.0207
89648W        W32639  20.342   7.730  16.044 -0.0433 -0.3177  0.0508
89649W        W32640   8.273  23.500  19.414  0.0495 -0.0614  0.1491
89650W        W32641  16.178  22.470  13.467 -0.2657  0.1803  0.1204
89651W        W32642  20.299  34.644   5.462  0.2200 -0.1390 -0.0536
89652W        W32643  21.892  13.996  16.054  0.2494 -0.0332 -0.4943
89653W        W32644  10.702  12.293  15.745  0.0306  0.2614  0.1202
89654W        W32645  15.251  20.903  13.366 -0.1046  0.0134  0.1479
89655W        W32646  19.771  24.083  18.113 -0.2977  0.2074  0.2562
89656W        W32647   4.214  13.427  16.301 -0.1106 -0.0715  0.3255
89657W        W32648  22.975   4.927  17.037  0.0785  0.2808  0.0177
89658W        W32649  14.064  12.296  18.999 -0.1070 -0.0295  0.1388
89659W        W32650  10.500  20.981  13.948  0.1705  0.0655  0.0418
89660W        W32651  15.744  15.762  14.889 -0.1124  0.0454  0.0241
89661W        W32652  20.314  20.265  17.449 -0.4616  0.0260  0.1249
89662W        W32653   5.944  15.585  20.591 -0.1264 -0.1604 -0.4034
89663W        W32654  27.141  19.681  16.761 -0.0843 -0.3834 -0.0880
89664W        W32655  25.905  13.828  15.500 -0.1097 -0.4740 -0.3031
89665W        W32656  13.814  24.408  19.687  0.0722  0.0759 -0.1584
89666W        W32657   3.084   5.147   1.111  0.0568 -0.0140 -0.1028
89667W        W32658  25.013  34.236  21.326  0.1810 -0.2173 -0.1918
89668W        W32659  24.854  25.519  27.212 -0.0272 -0.0829  0.0209
89669W        W32660  19.154  22.226  19.267 -0.0931 -0.0774 -0.0998
89670W        W32661  14.425  13.056  16.120 -0.1744 -0.0775  0.1092
89671W        W32662  12.638  27.007  20.571  0.3077  0.1243  0.1714
89672W        W32663  23.483  29.967  22.681 -0.1123  0.3900  0.0880
89673W        W32664  16.482  23.550  25.313  0.0144 -0.4829  0.1828
89674W        W32665  11.654  15.777  18.050 -0.2447  0.0370  0.0962
89675W        W32666  19.762   3.326  19.256 -0.3722 -0.1926  0.2238
89676W        W32667   9.728   3.643  21.778  0.1919 -0.1011 -0.2021
89677W        W32668  31.052  21.103  23.815  0.2160  0.0938 -0.0753
89678W        W32669  17.863   5.616   1.124 -0.1542 -0.2784 -0.2632
89679W        W32670  20.265   7.398  13.578 -0.2463 -0.1369  0.2947
89680W        W32671  10.886  13.255  23.018  0.4344  0.0838 -0.2637
89681W        W32672  30.227  26.305   7.034  0.1290  0.1112  0.0906
89682W        W32673  21.738   2.990   0.264  0.2606 -0.2257  0.0549
89683W        W32674  18.236  31.647  19.312 -0.2281  0.1448 -0.0646
89684W        W32675  12.527   0.931  21.012  0.0506  0.1364  0.2493
89685W        W32676  19.742  18.346   3.304  0.3494  0.0837  0.1612
89686W        W32677  17.768   7.828  21.384  0.0623 -0.2938 -0.1038
89687W        W32678  20.671  17.287  29.103 -0.0829 -0.3755  0.1356
89688W        W32679  10.968   0.565  26.298 -0.1061 -0.0823 -0.4229
89689W        W32680  14.942  32.378  15.684  0.0608 -0.1192  0.3900
89690W        W32681   1.475  30.114   6.474 -0.1634 -0.3567  0.1070
89691W        W32682  22.746  21.862  15.484 -0.1162  0.2770 -0.3303
89692W        W32683  20.748   8.201  17.035 -0.5011  0.0168 -0.4688
89693W        W32684  21.064  28.287  19.738 -0.0807 -0.0856 -0.0103
89694W        W32685  16.393   6.720  20.954 -0.1531  0.0734 -0.1709
89695W        W32686  24.436  24.865  25.559 -0.0899  0.0489  0.0664
89696W        W32687  18.770  27.685  14.843  0.2264 -0.0826  0.1625
89697W        W32688  32.271   8.680  28.239 -0.1917  0.1598 -0.0723
89698W        W32689  13.982   8.498  27.878  0.5078  0.0508 -0.1153
89699W        W32690  20.641  19.933  28.839 -0.0077 -0.1343 -0.0358
89700W        W32691  24.483  29.774   0.113 -0.3606 -0.3109  0.1684
89701W        W32692  11.033  10.234   0.636 -0.0880 -0.3199 -0.3349
89702W        W32693   4.734  32.985  16.421  0.1042  0.0732  0.0252
89703W        W32694  22.346  12.893  26.723  0.0484  0.2107  0.0921
89704W        W32695  17.448  30.377  18.404  0.2104 -0.1671 -0.0825
89705W        W32696   5.936  21.199  23.145  0.4116 -0.1655  0.0115
89706W        W32697  11.969  18.023  16.819 -0.3502 -0.0283 -0.2239
89707W        W32698  18.649  26.188   1.657 -0.0179 -0.0625 -0.0514
89708W        W32699   9.824  25.931  17.598 -0.2854  0.3698  0.0151
89709W        W32700  14.935  22.408  15.599  0.0853  0.0821  0.0288
89710W        W32701  34.540  14.302  28.146 -0.0288 -0.1847 -0.1867
89711W        W32702  20.635  32.668  16.557  0.1203 -0.0954 -0.2576
89712W        W32703  16.018  27.777  18.801  0.0875 -0.1580  0.2403
89713W        W32704  14.382  31.985  22.911 -0.0107 -0.0626 -0.3168
89714W        W32705  21.620  12.265  21.367 -0.0864  0.2101 -0.0330
89715W        W32706  20.152  11.771  21.667  0.0572 -0.2116 -0.2229
89716W        W32707  19.261   9.703  23.259  0.0608 -0.0893  0.0408
89717W        W32708  19.758  31.744  16.961  0.1970  0.1343  0.0062
89718W        W32709  13.547  20.421  24.609 -0.1378 -0.0452 -0.1075
89719W        W32710  26.234  15.278  15.598 -0.0420  0.0438 -0.2503
89720W        W32711  23.850  13.198  25.416 -0.0998 -0.0141  0.0750
89721W        W32712  14.867  22.094  14.810  0.0712  0.1853 -0.0277
89722W        W32713  25.838   6.160  15.710 -0.0049  0.0633 -0.1688
89723W        W32714  15.253   1.060  24.925  0.3288 -0.3377  0.1731
89724W        W32715  31.937  24.957  27.992  0.1560  0.0941  0.5017
89725W        W32716  31.682   9.860  27.983 -0.0222 -0.2575 -0.1688
89726W        W32717  30.763   5.412  21.023  0.4555 -0.1989  0.0949
89727W        W32718  24.580  27.799  17.337  0.0518  0.1417  0.1333
89728W        W32719  25.261  25.693  15.623 -0.2491 -0.1849 -0.1758
89729W        W32720  21.286  22.435   9.352  0.1340  0.0271 -0.0603
89730W        W32721  16.377   8.591  17.782  0.0653 -0.0111 -0.0614
89731W        W32722  23.351   8.739  22.806 -0.2757 -0.2810  0.1718
89732W        W32723  15.964  14.545  27.131 -0.2278 -0.0459  0.1583
89733W        W32724   9.323  15.750  21.448  0.0031 -0.1677 -0.2554
89734W        W32725   9.736  32.679  18.425  0.2207  0.1793  0.2280
89735W        W32726  11.957  14.780  16.968  0.2751  0.0549 -0.2142
89736W        W32727  11.977  27.510  24.108  0.1203 -0.1409 -0.3757
89737W        W32728  26.833  18.669  17.974 -0.1462  0.0727  0.1509
89738W        W32729  19.224  28.346  21.613 -0.1680  0.1379 -0.0299
89739W        W32730  13.065  16.758   9.322 -0.2999 -0.1984 -0.2033
89740W        W32731   8.997  12.714  14.749  0.0322  0.2826 -0.1745
89741W        W32732  18.986   3.263  25.894 -0.1794 -0.0334  0.1753
89742W        W32733   9.196  17.866  22.569 -0.0237 -0.1213 -0.2779
89743W        W32734  17.571  30.135  27.593 -0.0753  0.0883  0.1858
89744W        W32735  12.259  20.651  24.037 -0.4418  0.0681  0.0888
89745W        W32736  21.458  32.006  14.960  0.2702  0.3249 -0.0763
89746W        W32737  30.765  20.600  25.771  0.0667 -0.1212  0.0152
89747W        W32738   8.501  18.122  28.040  0.1750 -0.0417 -0.1525
89748W        W32739   6.991  26.705  14.923  0.0315 -0.1132  0.1361
89749W        W32740  20.511  29.791  17.377 -0.0526  0.1496  0.1681
89750W        W32741  30.650   6.935  27.082 -0.0990 -0.0494  0.3374
89751W        W32742  22.411  23.703  23.691  0.3842 -0.1567  0.0833
89752W        W32743  33.785  11.094  15.408  0.0775  0.0508 -0.5152
89753W        W32744  33.788  19.847  20.025  0.0147  0.3312 -0.2678
89754W        W32745  18.175  12.526  20.315  0.0399 -0.1316  0.0499
89755W        W32746  17.760  21.696  15.359 -0.2458  0.0573 -0.2020
89756W        W32747  17.866  22.931  13.257  0.0676 -0.1357 -0.0401
89757W        W32748  15.101  21.079  28.466  0.0431 -0.3069  0.2198
89758W        W32749  11.262  11.873  20.474 -0.1519  0.3802 -0.1851
89759W        W32750  31.459  13.316  16.536  0.3922 -0.1220  0.1834
89760W        W32751  19.191  18.792  26.958  0.5256  0.0543  0.1448
89761W        W32752  27.002  30.846   2.807  0.0493 -0.1522 -0.1389
89762W        W32753  22.114  14.798  17.786 -0.0869  0.1718 -0.0386
89763W        W32754  19.199  18.870   3.371  0.0967 -0.4805 -0.1838
89764W        W32755  20.953  19.192  12.930  0.1129  0.1054  0.2012
89765W        W32756  23.080  14.444  20.822 -0.1877 -0.1328  0.0027
89766W        W32757   6.578  19.824  20.163  0.4409 -0.2817  0.3969
89767W        W32758  26.006  32.086  14.593 -0.4434  0.1076 -0.1120
89768W        W32759  32.841  14.051   7.924 -0.0243 -0.1003  0.4254
89769W        W32760  22.783  26.212  16.905 -0.1683  0.0183 -0.1560
89770W        W32761  21.447  27.972  19.583 -0.1214  0.0966  0.2539
89771W        W32762   9.961  20.602  13.408  0.0072 -0.2693 -0.0280
89772W        W32763  21.219   1.100  14.247  0.0655  0.2305  0.0642
89773W        W32764   2.357  29.726   0.187  0.1253 -0.4128 -0.1349
89774W        W32765   8.310  13.261  20.229 -0.1475 -0.4228  0.0348
89775W        W32766  24.604  28.124  26.913 -0.0742 -0.1168 -0.2968
89776W        W32767  11.830  25.870  24.875  0.0834 -0.0412  0.4468
89777W        W32768   9.159   4.808  17.718  0.2095 -0.5679 -0.1709
89778W        W32769  20.586  26.343  14.156  0.1249  0.0334 -0.0212
89779W        W32770   9.758  21.037  13.094  0.1039  0.0747  0.2517
89780W        W32771  30.692   4.888  26.940  0.0444  0.3693  0.0545
89781W        W32772  13.087   6.745  28.330 -0.0965 -0.1268  0.1015
89782W        W32773  25.010   9.018  25.891  0.0499 -0.1800 -0.0332
89783W        W32774  14.059   9.142  23.284  0.0748  0.1581 -0.0462
89784W        W32775  23.335  10.545  19.769  0.1508 -0.0070 -0.0388
89785W        W32776   4.585  32.501   1.996  0.0574 -0.1728  0.1415
89786W        W32777  12.708  17.490  13.680 -0.3737  0.0539  0.0626
89787W        W32778  32.376  19.084  18.313 -0.0715 -0.2387 -0.1118
89788W        W32779  20.287  26.698   6.750  0.2182  0.0867  0.0881
89789W        W32780  31.471   5.363   3.143  0.1005  0.0121  0.0337
89790W        W32781  15.106  32.583  19.912 -0.0412  0.1526 -0.1430
89791W        W32782  24.675  18.261  15.604  0.4420 -0.1816  0.1755
89792W        W32783  14.226   9.877   5.726 -0.1928 -0.1884 -0.0227
89793W        W32784  19.762   7.549   4.736 -0.2688 -0.2069 -0.2874
89794W        W32785  24.807  30.701  21.936  0.0161  0.1828 -0.2943
89795W        W32786  32.255  22.378  17.132 -0.0283 -0.0195  0.0429
89796W        W32787  23.870  22.080  15.381  0.2215  0.1663 -0.0355
89797W        W32788   9.281   7.542  14.700 -0.2859 -0.1804 -0.1150
89798W        W32789  31.868  23.439  17.508 -0.1197  0.0163 -0.0494
89799W        W32790  14.909  14.064  22.265  0.0421 -0.1710 -0.1168
89800W        W32791  19.140  19.311  23.566 -0.0792 -0.1699 -0.2004
89801W        W32792  16.427  10.082   9.913 -0.2606 -0.1447  0.0138
89802W        W32793  11.112  22.413   8.345  0.2907  0.2154 -0.1133
89803W        W32794   9.839  25.730  21.821  0.4380  0.0425  0.1069
89804W        W32795  29.613  13.816  17.031 -0.1134 -0.4722  0.0703
89805W        W32796  20.025   7.599  19.905 -0.0628  0.3116 -0.0884
89806W        W32797  30.033  26.236  17.685  0.3936  0.1058  0.1008
89807W        W32798   6.129  21.215  16.421 -0.0766  0.0799  0.2685
89808W        W32799  28.905  13.514  22.340 -0.0971  0.0271 -0.1152
89809W        W32800  12.846   9.150  25.505  0.0264 -0.0157 -0.0324
89810W        W32801  33.805  11.863  22.937 -0.0902  0.1966 -0.0776
89811W        W32802  12.063  15.025  22.843  0.2616 -0.2501  0.1866
89812W        W32803  31.091  21.020  24.949 -0.2251  0.0818 -0.2695
89813W        W32804   0.645   8.934  26.081 -0.0791  0.0230  0.0391
89814W        W32805   2.992  29.247  17.109 -0.5065 -0.1098  0.0286
89815W        W32806  17.883   2.248  28.001 -0.0006 -0.1251  0.2637
89816W        W32807  17.791  25.532  18.858  0.1307  0.2339  0.1697
89817W        W32808  23.930  22.120  16.271  0.0024 -0.1635  0.3290
89818W        W32809  22.730   8.701  21.036 -0.1699 -0.1356  0.0293
89819W        W32810  10.285  13.824  17.666 -0.1376  0.0932  0.0978
89820W        W32811  34.055  31.874  25.631 -0.1817 -0.1155 -0.2479
89821W        W32812  21.558  11.352  13.854 -0.1336  0.1399  0.0171
89822W        W32813  16.510  25.367  18.266  0.1009  0.3832 -0.0221
89823W        W32814  22.578  34.711  17.289  0.0536 -0.0468 -0.2645
89824W        W32815  24.261  21.908  22.352 -0.1681  0.1839  0.1789
89825W        W32816   1.258  31.722  19.986  0.1375 -0.0395 -0.0437
89826W        W32817   1.011  24.149  17.395  0.2576  0.1271 -0.3645
89827W        W32818  18.646  13.614  27.140  0.3078 -0.0456  0.0325
89828W        W32819  21.410  16.880  25.029 -0.1827  0.1075  0.1178
89829W        W32820  19.171  24.894  14.420  0.2947  0.1942  0.1693
89830W        W32821  26.867   4.674  27.457  0.1727  0.5305  0.0900
89831W        W32822  21.156  24.750  15.205  0.0388 -0.0074  0.0008
89832W        W32823   5.532   7.906  23.714  0.1252  0.3194  0.2187
89833W        W32824  27.230   8.275  18.629 -0.0942 -0.0100  0.1305
89834W        W32825  24.696  15.604  14.898  0.0418 -0.0006  0.0491
89835W        W32826  14.732  32.559  18.386  0.1717 -0.0573  0.0057
89836W        W32827  24.823  29.900  22.807  0.1742  0.1680  0.0037
89837W        W32828  22.369  18.784  14.935  0.0756  0.0388  0.1350
89838W        W32829  12.221   2.868  25.850 -0.2256  0.2165  0.1483
89839W        W32830  22.658   4.821  16.557 -0.0179 -0.1597  0.1601
89840W        W32831   4.992  23.599  14.720  0.2857 -0.2598 -0.1201
89841W        W32832  25.557  34.180  23.917 -0.2020  0.1589 -0.0985
89842W        W32833  26.854   9.491  23.518 -0.0175 -0.1033 -0.0292
89843W        W32834  27.810  20.685  19.907  0.2753  0.0519 -0.0814
89844W        W32835  28.313  21.419  15.935 -0.0983 -0.1779  0.1255
89845W        W32836  23.454  20.126  21.514  0.2592  0.1243  0.2099
89846W        W32837  19.524  23.704  29.124 -0.0546 -0.0577 -0.1291
89847W        W32838  34.318  21.159  16.135  0.0036  0.2387  0.0108
89848W        W32839  20.405  19.137  20.804  0.3171 -0.1639  0.3271
89849W        W32840  10.313  33.267  21.804 -0.3433  0.4523 -0.0460
89850W        W32841   9.663  14.784  22.411 -0.1463  0.2096 -0.0953
89851W        W32842  25.214   1.972  25.378 -0.0567  0.3019 -0.2059
89852W        W32843  17.848   9.819  15.579  0.2326  0.2848 -0.2174
89853W        W32844  24.805  22.003  18.866 -0.0290 -0.0202 -0.1849
89854W        W32845  19.962  12.398  21.352 -0.0025  0.0582  0.2915
89855W        W32846  20.771   9.937  14.753  0.1275  0.4741 -0.2518
89856W        W32847  29.254  28.928   3.090 -0.1403  0.1372 -0.0540
89857W        W32848  24.740  15.832  21.735  0.0386  0.1591 -0.1650
89858W        W32849   6.431   8.232   3.978  0.1559 -0.2085  0.1799
89859W        W32850  22.306  21.539  22.718 -0.0032  0.1122 -0.0993
89860W        W32851  19.704  17.130  12.315 -0.0416  0.2443 -0.4164
89861W        W32852   4.190   6.633  26.930  0.1646 -0.3922 -0.1027
89862W        W32853   4.079  23.758  21.230 -0.3379  0.1556 -0.1720
89863W        W32854  16.078  15.041  24.277  0.1291  0.0341 -0.0212
89864W        W32855  21.953  26.032  19.560  0.2320  0.1551 -0.1984
89865W        W32856  16.305  12.828  19.249  0.0755  0.2293  0.1171
89866W        W32857  33.074  16.176  17.756 -0.0430 -0.2655  0.1369
89867W        W32858   4.914   3.155  22.245 -0.1153 -0.1754  0.0407
89868W        W32859  18.747  20.245   1.164 -0.1834 -0.4460  0.0820
89869W        W32860  15.701  11.047  16.460  0.1424  0.1217 -0.0074
89870W        W32861  17.630  24.289  17.548 -0.1129  0.1460 -0.2502
89871W        W32862  18.751  25.519  15.183 -0.0102 -0.0744  0.2017
89872W        W32863  19.249   4.138  24.347  0.2821 -0.2864  0.0718
89873W        W32864   0.518  24.564  20.954  0.0518 -0.0547  0.0040
89874W        W32865   2.218  16.665  20.462  0.1474  0.0135 -0.0528
89875W        W32866  18.918  10.089  20.126 -0.0911  0.1561 -0.1222
89876W        W32867  25.273   0.372  24.654  0.0903  0.0198 -0.1851
89877W        W32868  14.260  20.355  16.418  0.0785 -0.2556  0.0272
89878W        W32869  15.703   1.885  17.220  0.2291  0.0168  0.1284
89879W        W32870  31.782   7.799  23.931  0.0272  0.1242 -0.2964
89880W        W32871  18.539  10.021  21.031 -0.4071 -0.1738 -0.1323
89881W        W32872  14.213   6.013   2.486 -0.0189 -0.2609  0.1050
89882W        W32873   8.562   8.371  20.598 -0.0794  0.1301  0.1665
89883W        W32874  26.569  21.835  15.738  0.1180 -0.0370 -0.1856
89884W        W32875  14.123  22.085  13.668  0.2106  0.1458  0.2184
89885W        W32876  13.851  25.918  18.250 -0.1892  0.2899 -0.0937
89886W        W32877  17.144   6.360  15.067 -0.1064 -0.0959 -0.1736
89887W        W32878  21.341  20.875  20.124 -0.0556 -0.3095 -0.0702
89888W        W32879   8.181  16.775  10.396 -0.1201  0.1758 -0.2166
89889W        W32880  19.435  23.629   8.991 -0.0198  0.2204 -0.2455
89890W        W32881   9.601  22.155  20.216  0.0942 -0.3245 -0.0445
89891W        W32882   0.902  16.932  23.220 -0.1592  0.2938  0.4536
89892W        W32883  27.713  13.769   0.157 -0.0991 -0.0302  0.4217
89893W        W32884   0.244  12.852  10.097 -0.1824  0.0714  0.1410
89894W        W32885  26.292   1.773  18.473 -0.2589 -0.1045  0.2632
89895W        W32886  25.325  29.037  14.964 -0.3795 -0.0806 -0.1196
89896W        W32887   5.751  13.575  24.785  0.0407  0.1411 -0.1657
89897W        W32888  19.638   8.477  18.887  0.0460  0.1472 -0.1212
89898W        W32889  30.086  10.360  28.476 -0.4087  0.2276 -0.0663
89899W        W32890  12.217  19.771  26.540  0.1564 -0.0476  0.2884
89900W        W32891  32.908  13.054  20.033  0.0006 -0.1248  0.1613
89901W        W32892  18.111  16.777  14.541 -0.0707 -0.3335 -0.4140
89902W        W32893  18.744   2.720  17.326 -0.2279  0.1257 -0.1596
89903W        W32894  23.224  30.396  21.234 -0.2542 -0.0724  0.2261
89904W        W32895  13.434  22.228  17.568  0.1971  0.0466  0.2011
89905W        W32896  21.172  10.441  14.142 -0.1852  0.0865  0.0173
89906W        W32897  21.759   7.744  19.681  0.0924  0.0969 -0.1172
89907W        W32898  11.667  24.134  17.473  0.3754  0.1980 -0.2704
89908W        W32899  27.269  26.526  22.162  0.1043  0.0027 -0.1595
89909W        W32900  13.141  26.206  14.919  0.0641 -0.1991  0.1296
89910W        W32901  23.099  27.974  26.280 -0.3208  0.0059  0.1144
89911W        W32902  12.804  15.417  14.520  0.2794 -0.1831  0.1650
89912W        W32903   4.642  24.408  17.995  0.0182  0.0185  0.1129
89913W        W32904  16.357   0.163  25.118  0.2793  0.4036 -0.1272
89914W        W32905  18.696  15.731  12.795 -0.0773  0.0604  0.1409
89915W        W32906  17.610  16.939   0.889 -0.1433 -0.3312 -0.3124
89916W        W32907   3.402   7.802  25.300  0.1439  0.2468 -0.1935
89917W        W32908  24.561  30.231  18.387 -0.0311  0.1661  0.2258
89918W        W32909  23.398  22.561  20.541  0.2734  0.0686 -0.1205
89919W        W32910  22.409  15.919  17.255  0.3135  0.3066 -0.1887
89920W        W32911  20.174  31.755  23.358 -0.0898 -0.0890  0.0229
89921W        W32912  22.084  13.485  16.204  0.0521 -0.0025  0.1722
89922W        W32913  12.840  33.178  19.076  0.0322  0.0137  0.3137
89923W        W32914  28.619   0.543  15.242 -0.1198 -0.0349 -0.1645
89924W        W32915   7.554   2.614   6.855  0.2102  0.1494 -0.1414
89925W        W32916  11.648  21.213  13.610 -0.0377 -0.1420 -0.1311
89926W        W32917  32.367  23.559  21.216  0.2017  0.3403 -0.2653
89927W        W32918  22.860   8.711  27.685 -0.0155 -0.0160  0.3327
89928W        W32919  14.906  13.281  13.464  0.0073 -0.1270  0.2955
89929W        W32920  28.664  29.886  18.235  0.3701 -0.0233  0.1974
89930W        W32921  16.278  14.266  22.150  0.1480 -0.3195  0.2818
89931W        W32922  26.431   8.383   1.170  0.1971  0.2253  0.2003
89932W        W32923   1.879  21.656  18.256  0.0606 -0.0722  0.2955
89933W        W32924  30.062  16.077   2.353 -0.1827 -0.3082  0.3735
89934W        W32925  32.522  26.383  25.552  0.0588  0.0073 -0.1909
89935W        W32926  12.024   9.568  25.667 -0.1989 -0.1316 -0.1995
89936W        W32927  14.692  31.548  29.146  0.0202 -0.1432 -0.0318
89937W        W32928  27.269  32.284  15.941 -0.0259 -0.4786  0.0163
89938W        W32929  12.035   2.607  15.720  0.0129  0.3818 -0.1281
89939W        W32930  20.323  17.855  14.244 -0.2229  0.1035  0.2372
89940W        W32931  24.418  26.295  16.060 -0.0810  0.0059 -0.1511
89941W        W32932  22.425   7.288  13.760  0.0968 -0.0434  0.1816
89942W        W32933  17.786   7.882  23.891 -0.1515  0.1787 -0.1129
89943W        W32934  33.231   8.563  18.922 -0.4720  0.1589  0.0868
89944W        W32935  30.261  31.975   0.412  0.2132  0.2329  0.2761
89945W        W32936  24.990  19.710  18.244 -0.3353  0.0752  0.2632
89946W        W32937   1.321  28.302  17.986 -0.2069  0.0783  0.0889
89947W        W32938  24.642  11.008  18.398 -0.4455 -0.3122 -0.1562
89948W        W32939   8.046   8.612  24.372  0.0241  0.1567 -0.2258
89949W        W32940  31.013  30.059  24.892 -0.1349  0.2339 -0.0384
89950W        W32941  18.682  33.797  20.769  0.0170  0.1682 -0.0246
89951W        W32942  23.285  34.121   2.069  0.1383 -0.2580 -0.1415
89952W        W32943  29.623  31.645   8.938  0.1378 -0.3951  0.0224
89953W        W32944   1.831   8.626   3.974 -0.0013 -0.2577 -0.0361
89954W        W32945   1.104   5.336  17.044 -0.0858 -0.0543 -0.1846
89955W        W32946  30.010   6.034  29.021 -0.2312 -0.0093 -0.1608
89956W        W32947  27.980  18.664  16.003  0.0801 -0.2810  0.3230
89957W        W32948  33.700   3.920  18.064 -0.1002  0.1088  0.3071
89958W        W32949  21.397  12.935   9.175  0.3627  0.0264  0.2566
89959W        W32950  15.235  19.479  13.070 -0.2582  0.0724  0.2526
89960W        W32951  24.306   8.162  18.116 -0.1812  0.2007  0.1308
89961W        W32952  21.051  26.640  19.975  0.0196  0.2986 -0.2524
89962W        W32953  20.511  10.114  18.819 -0.0457  0.0437 -0.1722
89963W        W32954  22.113  26.427  17.588  0.3809  0.2802  0.1885
89964W        W32955  23.942  23.059  20.366  0.1104  0.2119  0.0869
89965W        W32956   0.216  20.430  27.488  0.0558  0.1470 -0.0130
89966W        W32957  25.778  25.109  18.511  0.0011  0.2619  0.4191
89967W        W32958  19.855  31.891  22.873 -0.0504 -0.0117  0.0250
89968W        W32959   6.629  29.452  18.820 -0.5159 -0.2736 -0.1577
89969W        W32960  22.708   4.897  16.097  0.0002 -0.2255  0.2823
89970W        W32961   7.714  17.402  17.603  0.0659 -0.2814 -0.1089
89971W        W32962  26.835   3.510  15.083  0.0739 -0.0118  0.0635
89972W        W32963  24.322  13.689  19.329  0.0074 -0.0878  0.1322
89973W        W32964  24.689  29.161  17.180  0.0437 -0.0010  0.2462
89974W        W32965  19.950  24.716  19.477  0.0124 -0.0570 -0.0280
89975W        W32966  14.085  10.226  17.204 -0.1616  0.2347 -0.1152
89976W        W32967   2.234   9.410  18.028 -0.2595  0.0905 -0.0519
89977W        W32968  12.972  11.790  20.749  0.0573 -0.0110  0.0131
89978W        W32969   0.895  15.072  11.346  0.3807 -0.0995 -0.0981
89979W        W32970  13.953  21.215  14.957  0.0063 -0.3406  0.1152
89980W        W32971  27.942  18.173  15.864 -0.2470 -0.0498  0.1084
89981W        W32972  18.585  17.184  18.090  0.4435 -0.0258 -0.2843
89982W        W32973  23.119  10.565  21.856 -0.2468  0.1209 -0.2938
89983W        W32974  32.418  17.564  25.796 -0.3419 -0.0089  0.1004
89984W        W32975  19.660  17.088  19.111 -0.0734  0.3989 -0.1591
89985W        W32976  18.495   6.984  16.544 -0.0064 -0.0483 -0.0426
89986W        W32977   3.936  11.498   6.881  0.4611 -0.3234  0.0376
89987W        W32978   9.936   3.880  23.535  0.1299 -0.1840  0.1576
89988W        W32979  26.906  25.742  19.754  0.1386 -0.0660 -0.2017
89989W        W32980   6.249   4.880  23.466 -0.1069 -0.2969  0.2981
89990W        W32981  22.665  22.019  19.231 -0.1883 -0.2989 -0.0754
89991W        W32982  27.509  34.136  28.941 -0.2595 -0.1463  0.0239
89992W        W32983  23.756  26.000  27.689  0.0739  0.0408 -0.1451
89993W        W32984   0.865   6.934  25.260 -0.1562 -0.1820  0.1230
89994W        W32985   8.133  17.089  23.547 -0.2008 -0.0605  0.1029
89995W        W32986  29.013   5.355  15.384  0.1020 -0.1706 -0.0218
89996W        W32987  28.857  31.067  28.033 -0.1541  0.0088 -0.1279
89997W        W32988  30.984  30.710  20.743  0.0867 -0.1930 -0.1060
89998W        W32989  34.402   4.196  19.666 -0.0984 -0.0159 -0.1340
89999W        W32990  19.293  12.532  24.784 -0.5695 -0.0513  0.0149
90000W        W32991  31.345  11.551  16.148 -0.2787  0.0892  0.0104
90001W        W32992  23.414  16.889  18.414  0.1454 -0.0630  0.1493
90002W        W32993  11.254  10.350  16.259 -0.0637  0.1107 -0.2841
90003W        W32994  25.668  25.342  21.769  0.0535 -0.1939 -0.0552
90004W        W32995  11.434  32.133  19.309  0.0451 -0.2772 -0.2236
90005W        W32996   7.586  12.263  28.376 -0.0032  0.1507 -0.0126
90006W        W32997  10.664  24.190  21.755 -0.1652 -0.3331 -0.3605
90007W        W32998  27.269  14.360  17.240  0.1469  0.0491 -0.0593
90008W        W32999  26.501  10.080  15.359 -0.1181 -0.1506  0.0199
90009W        W33000  15.051  22.101  23.198  0.0476 -0.1798  0.2397
90010W        W33001  31.075  18.434  20.103 -0.3971  0.1038  0.0124
90011W        W33002  31.237  13.618  23.524  0.2695 -0.0840 -0.4056
90012W        W33003  25.274   8.069  25.112 -0.1419 -0.1494 -0.4250
90013W        W33004  15.852  10.492   0.120 -0.1823 -0.0287  0.1581
90014W        W33005  21.523  22.023  21.057  0.0270  0.0373 -0.0414
90015W        W33006   4.821  21.615  21.105 -0.1939  0.1359  0.2161
90016W        W33007   6.359  24.791  23.535  0.1758 -0.1575 -0.1391
90017W        W33008   5.098   6.267  17.053 -0.1146 -0.0506 -0.0621
90018W        W33009  28.997  18.282   1.770  0.2397 -0.2180  0.0210
90019W        W33010  22.046  26.965  17.718  0.1523 -0.1680 -0.0256
90020W        W33011  22.428   2.522  21.773  0.1379  0.0074 -0.3715
90021W        W33012  11.512  20.471  20.091 -0.0851  0.0081 -0.0890
90022W        W33013  17.236   8.244  19.625 -0.2356 -0.0284  0.0904
90023W        W33014  27.090  19.701  22.434  0.2753 -0.1959 -0.1189
90024W        W33015  23.857  22.824   3.049  0.1393  0.1388 -0.0721
90025W        W33016  16.059  33.044  23.698 -0.2788  0.0461 -0.0831
90026W        W33017  23.912   7.495  15.044  0.0678 -0.1297  0.0434
90027W        W33018  34.741  24.824  16.020  0.0684  0.1049 -0.1553
90028W        W33019  20.274  10.619  27.986  0.5464  0.1213  0.0129
90029W        W33020  31.853  10.641  21.037  0.2061  0.3742  0.1613
90030W        W33021  32.449   9.015  19.912  0.0583 -0.0332 -0.0908
90031W        W33022  31.165  12.917   9.136  0.4794  0.1492 -0.0973
90032W        W33023  26.190  29.766   3.825  0.0311 -0.0421  0.1953
90033W        W33024  30.120  28.627  16.203  0.1004 -0.2965  0.0898
90034W        W33025  21.059  10.856  14.863  0.1221 -0.1427  0.0893
90035W        W33026  10.234  22.547   6.843 -0.1270  0.1575 -0.0283
90036W        W33027   5.070  19.029   8.883  0.1410  0.1805 -0.1854
90037W        W33028  13.531  22.249  15.344 -0.2292 -0.0108 -0.1534
90038W        W33029  29.614  26.693  20.611 -0.1038 -0.0126  0.4189
90039W        W33030   5.307   7.960  26.156 -0.0550  0.0117  0.2209
90040W        W33031  18.540  17.470  13.800  0.0700 -0.3417 -0.0938
90041W        W33032  10.812  15.928  17.270  0.0190 -0.0512 -0.0800
90042W        W33033  16.712  32.150  22.415  0.2098 -0.1003  0.0237
90043W        W33034  15.928  28.158  23.556  0.2394 -0.1375  0.1380
90044W        W33035  10.829   8.790   2.708 -0.1976  0.1953  0.0649
90045W        W33036  23.945  28.645  13.721  0.0372  0.1069  0.0303
90046W        W33037  21.153  30.618  16.925 -0.1268  0.0823  0.0156
90047W        W33038  11.383  32.393  27.196 -0.2240 -0.1341 -0.0477
90048W        W33039  19.518  20.281  19.796  0.1599  0.1890  0.1639
90049W        W33040  26.160  30.314  13.105 -0.0617  0.2142  0.0544
90050W        W33041  11.412   5.096  16.809 -0.2069  0.0960  0.0606
90051W        W33042  22.525  11.011  23.575  0.2888 -0.1024 -0.3610
90052W        W33043  12.029  17.499   3.847  0.0215  0.0404  0.4193
90053W        W33044  14.065  25.987  20.265 -0.0033  0.3248  0.3846
90054W        W33045   9.781  29.972  17.031 -0.3012 -0.0650  0.1365
90055W        W33046  15.662   9.657  21.049 -0.1981  0.1143  0.0710
90056W        W33047  25.097  25.288  23.514  0.0922 -0.0254 -0.1503
90057W        W33048  20.319   0.966  17.278 -0.1652  0.0375 -0.1268
90058W        W33049  29.171  19.815  15.439  0.0827 -0.1884 -0.0953
90059W        W33050  14.722   7.810  15.357  0.0615 -0.2970 -0.2828
90060W        W33051  25.267  20.118  22.754 -0.3507 -0.0398  0.3083
90061W        W33052  28.930  34.285  28.034 -0.0547  0.2654 -0.1425
90062W        W33053  24.291  13.343  28.220  0.1827 -0.0809 -0.1533
90063W        W33054  27.939  24.401   0.492  0.2025 -0.0567  0.1469
90064W        W33055  20.418  14.956  15.865  0.0322  0.1299 -0.2253
90065W        W33056  26.178  11.177  15.605 -0.1555  0.2537 -0.1488
90066W        W33057  28.145   5.425  21.735  0.0967  0.2074 -0.0023
90067W        W33058  20.392  20.921  15.793  0.1667  0.0103  0.3122
90068W        W33059  20.937  28.723  13.210 -0.0016 -0.0468  0.1498
90069W        W33060  19.890   4.670  21.680  0.0679  0.2595 -0.2297
90070W        W33061  25.944  10.159  20.382  0.2350  0.0501 -0.1605
90071W        W33062  15.747  28.848  10.352  0.0928 -0.0965  0.0014
90072W        W33063  28.936  18.736  18.610 -0.0417  0.0990 -0.0599
90073W        W33064   9.178  12.567  26.319  0.0261  0.0882  0.0433
90074W        W33065   8.742  25.725   6.849  0.2492 -0.0049  0.0596
90075W        W33066  17.486  12.304  15.484  0.0634 -0.1063  0.0662
90076W        W33067   8.350  24.365  24.348  0.3630  0.1204  0.3555
90077W        W33068  23.954  28.299  25.498  0.1857  0.0674 -0.2278
90078W        W33069  30.057  25.391  28.650 -0.1438 -0.3350 -0.2942
90079W        W33070  12.328  30.616  18.343 -0.0901 -0.4164  0.0593
90080W        W33071  19.382  27.517  22.128  0.3017  0.0850 -0.2257
90081W        W33072  33.995   9.425   4.619 -0.1382  0.1327  0.1186
90082W        W33073  28.786  21.698   4.175 -0.1357  0.0577 -0.2628
90083W        W33074  21.791  18.621  19.402 -0.0802  0.0545 -0.0976
90084W        W33075  19.862  21.367  15.850 -0.0122 -0.0899  0.5928
90085W        W33076  28.808  26.963  22.484  0.0748  0.2230  0.3284
90086W        W33077  25.000   2.763  15.556 -0.0584  0.1426  0.0874
90087W        W33078  27.093   1.600  21.424 -0.0868  0.3786 -0.3173
90088W        W33079  19.737   3.527  20.793  0.1508 -0.0914 -0.1589
90089W        W33080  11.309  14.888  20.528  0.0310  0.0755  0.0466
90090W        W33081  16.610  10.346  17.833 -0.2459  0.0250  0.1032
90091W        W33082  18.758  29.929  17.977  0.1533  0.0663  0.1372
90092W        W33083   9.168  15.324  18.352 -0.0141 -0.1072  0.2441
90093W        W33084  10.096   7.215  18.733 -0.3349  0.2177 -0.1254
90094W        W33085  12.192  20.890  16.642 -0.0112  0.2370  0.1308
90095W        W33086  31.576  29.519  20.088  0.0437  0.0090  0.2933
90096W        W33087  32.527  29.782  20.211  0.2656  0.0205  0.1297
90097W        W33088  17.562  23.693  17.593 -0.2862  0.0258 -0.1018
90098W        W33089  26.883  26.411  27.254  0.5066 -0.1171 -0.0717
90099W        W33090  15.902  29.971  17.606 -0.2116  0.1886  0.2320
90100W        W33091  22.674   7.585  21.497  0.0855  0.2137 -0.2160
90101W        W33092  24.319  20.222  18.530 -0.1807  0.3159  0.0889
90102W        W33093  33.951  20.227  23.135 -0.1831  0.0364 -0.1413
90103W        W33094  25.849  14.301  15.403  0.0212 -0.1917 -0.2130
90104W        W33095  19.317  30.578  15.549  0.0302  0.2016  0.0757
90105W        W33096   5.801   6.257   1.732 -0.0643 -0.0862 -0.2667
90106W        W33097  25.091  19.719  24.828 -0.1137  0.1468 -0.0437
90107W        W33098   4.166   9.344  24.030 -0.1180  0.1678 -0.2426
90108W        W33099  23.059  26.798  21.200  0.3804 -0.0535 -0.2852
90109W        W33100   7.196   3.630  17.131  0.0360 -0.3194  0.3001
90110W        W33101  31.769  19.776  24.385  0.1116  0.3687  0.0140
90111W        W33102  13.147  31.239  26.449 -0.0215  0.4641 -0.1665
90112W        W33103  22.114  25.426  13.635 -0.0194 -0.0601 -0.0786
90113W        W33104   2.777  31.659  25.712  0.1410  0.0140  0.0467
90114W        W33105  21.498  10.756  13.938  0.0105  0.0433 -0.0511
90115W        W33106   9.858   9.869  21.511  0.0831  0.1453  0.1095
90116W        W33107  17.391  15.165   1.415 -0.2354  0.2115 -0.3945
90117W        W33108  34.609  21.658  17.014  0.0608  0.2639  0.0325
90118W        W33109  13.944  26.804  21.403  0.2497  0.3843  0.1271
90119W        W33110  20.358   3.210  23.001 -0.1639  0.1232  0.0633
90120W        W33111  31.889  14.139  15.598  0.0281  0.0271  0.0053
90121W        W33112  16.720  15.709  15.001 -0.1448  0.1512  0.1291
90122W        W33113   5.725  16.362  15.388  0.1965  0.1144  0.3308
90123W        W33114  33.762  12.582  27.992  0.3731 -0.1099 -0.1301
90124W        W33115  15.572   1.045  19.544  0.0495  0.2439 -0.1052
90125W        W33116  34.688  18.601  15.540 -0.1156  0.1076  0.1467
90126W        W33117   8.374  12.291  17.136  0.1112  0.1831  0.0306
90127W        W33118  19.507  11.625   4.125  0.0810  0.1885  0.1544
90128W        W33119  25.317   9.761  13.739  0.5702 -0.0475  0.3255
90129W        W33120  27.703  19.567   1.577  0.1221  0.1558  0.0556
90130W        W33121   4.924   2.980  19.364 -0.0996  0.0776 -0.0244
90131W        W33122  19.148   5.076  21.966  0.3028 -0.1060 -0.0730
90132W        W33123  17.492  30.257  14.319  0.0111  0.2069  0.0891
90133W        W33124  20.524   1.281  25.968  0.3895 -0.1333  0.2535
90134W        W33125   0.733   4.496  18.978  0.6659 -0.0264 -0.3144
90135W        W33126  28.961   0.901  27.528  0.0373  0.1370  0.1211
90136W        W33127  20.399  11.645   3.538  0.0413  0.1172 -0.3831
90137W        W33128  28.470   8.799   2.587  0.0427 -0.1365  0.0808
90138W        W33129   2.611  21.661   3.673  0.0147 -0.0852  0.1589
90139W        W33130  31.089  27.404   8.056 -0.0342  0.0863 -0.0341
90140W        W33131  20.107  20.802  23.045 -0.1960 -0.2106  0.0616
90141W        W33132  26.735  12.440   2.794  0.2778 -0.0061  0.4048
90142W        W33133  21.446   9.511   4.260  0.0295  0.3256  0.3039
90143W        W33134  17.612  24.595  19.290  0.3090  0.1799  0.1420
90144W        W33135   0.109  21.982  20.515  0.1002  0.2803 -0.0222
90145W        W33136  22.253  27.686  15.030  0.2732 -0.1093 -0.2308
90146W        W33137  15.459  30.056  21.604 -0.0260  0.0523 -0.2712
90147W        W33138  10.387  34.350  19.090  0.2558 -0.0756  0.2313
90148W        W33139  19.806  21.160  14.867 -0.2412  0.1370  0.2103
90149W        W33140  29.457  10.906  19.934 -0.1694  0.1964  0.2143
90150W        W33141  29.375   6.086  16.003  0.0818 -0.2095  0.2676
90151W        W33142   8.499  17.308  25.903 -0.2422  0.2460  0.2069
90152W        W33143  18.802  10.909  13.930 -0.3814  0.1067  0.2879
90153W        W33144  27.052  16.558  20.272  0.1624  0.2413  0.1000
90154W        W33145  30.548  19.710  17.004 -0.1272 -0.3114 -0.2082
90155W        W33146  21.744  11.185  17.984  0.0026  0.0400  0.1477
90156W        W33147   5.461   3.490  25.477  0.2277  0.0395 -0.0088
90157W        W33148  21.484  31.736  15.423  0.2732 -0.2597  0.0766
90158W        W33149  15.550  22.180  16.960  0.1929 -0.1313  0.0799
90159W        W33150  25.138  12.044  17.635 -0.0523  0.0072  0.0874
90160W        W33151  22.367  10.551  18.856  0.2873  0.3868  0.1844
90161W        W33152  15.771  23.153  22.419 -0.1432  0.3881  0.4024
90162W        W33153  17.522   1.215  15.806 -0.3077  0.0099 -0.4310
90163W        W33154   4.590  18.111  23.877 -0.0087 -0.3598  0.1133
90164W        W33155  22.163   2.522  24.463  0.1022  0.0334 -0.3356
90165W        W33156  25.477   6.301  17.759  0.1121  0.0697  0.0885
90166W        W33157  28.260  18.736  14.501  0.0425 -0.2657  0.0850
90167W        W33158  32.145  27.004  16.511 -0.2842  0.1626 -0.0332
90168W        W33159   9.167   7.924  17.973  0.1785 -0.0189  0.2962
90169W        W33160  32.601  12.156   6.671 -0.0127 -0.0941 -0.1145
90170W        W33161  23.708  29.759   0.154 -0.1350  0.2711 -0.3690
90171W        W33162  23.341  28.787  18.458  0.6169  0.1098 -0.0123
90172W        W33163   1.236   7.473  20.086  0.0554 -0.1279  0.1467
90173W        W33164  28.075  14.744  21.621 -0.1696 -0.1156 -0.1086
90174W        W33165  32.159  16.058  22.269  0.3932  0.2333 -0.0310
90175W        W33166  15.978  15.084   3.771  0.0878  0.1439  0.2573
90176W        W33167  29.916  21.511  28.365  0.2203  0.1587  0.0323
90177W        W33168  29.261  11.453  23.345 -0.1209  0.1449 -0.0651
90178W        W33169  13.853  11.675  15.695 -0.4298 -0.0205 -0.1283
90179W        W33170  23.437  20.512  18.483  0.0597  0.0612 -0.2599
90180W        W33171  21.310  18.405  13.220 -0.0642 -0.0384  0.0297
90181W        W33172  21.507  27.150  23.568 -0.1259 -0.6175  0.0013
90182W        W33173  33.813  27.735  21.550  0.3406  0.2093  0.1172
90183W        W33174  11.051   0.932  16.518 -0.1171  0.0678 -0.3501
90184W        W33175  11.079  30.968  14.447 -0.0916  0.0132  0.3573
90185W        W33176  16.569  20.468   3.257  0.1073 -0.1695  0.2288
90186W        W33177  13.696  22.523  18.755  0.0690 -0.2151 -0.1548
90187W        W33178  19.223  27.143  17.473  0.0365  0.0314  0.1257
90188W        W33179  31.390  23.099   1.223  0.0573  0.0912 -0.0505
90189W        W33180  34.192   2.739   4.285 -0.2393  0.0009 -0.0942
90190W        W33181  28.143   3.569   0.557  0.0118 -0.0378 -0.0855
90191W        W33182  21.394  13.126  24.825 -0.3428 -0.3693 -0.0583
90192W        W33183   6.935  23.801  21.405  0.3561  0.1283  0.4118
90193W        W33184  12.172  33.317  27.103 -0.2608  0.2924  0.2842
90194W        W33185  23.328   1.862  21.789 -0.1257 -0.0635  0.1402
90195W        W33186   8.368   0.406  24.368  0.2228 -0.0473  0.1758
90196W        W33187  25.553  28.871  22.606 -0.1656 -0.2018 -0.2020
90197W        W33188   0.848  25.587   7.348  0.1858  0.0771 -0.1028
90198W        W33189  16.531  28.618  24.112 -0.0303  0.3868 -0.0229
90199W        W33190  22.044  34.164  19.683 -0.3969  0.3190  0.0863
90200W        W33191  28.008  12.400  18.936  0.0179  0.1215  0.0485
90201W        W33192  26.598   7.581  13.899  0.0717 -0.2598  0.0503
90202W        W33193  25.745   4.734  23.171 -0.0745 -0.1136  0.0132
90203W        W33194  27.725  16.614  16.108  0.0433  0.0156 -0.2075
90204W        W33195  17.195  19.340  13.168  0.2212 -0.3128  0.1443
90205W        W33196   6.502  17.571  16.483  0.2342 -0.1592 -0.1417
90206W        W33197  31.068   9.635  15.056  0.1493 -0.0790 -0.0128
90207W        W33198  20.318   6.688  26.551  0.0657  0.0121  0.2812
90208W        W33199  25.836  16.243  25.118  0.2099 -0.0904  0.1482
90209W        W33200  19.611  22.288  25.827  0.1531 -0.0131 -0.1610
90210W        W33201  25.583  25.109   8.405  0.1258  0.4619 -0.2172
90211W        W33202  16.489  32.600  27.453 -0.0011 -0.1746 -0.1122
90212W        W33203   9.929  16.126  19.669 -0.2590 -0.0754 -0.1684
90213W        W33204  18.354  12.471  14.356  0.2630  0.1633 -0.0003
90214W        W33205  27.862  14.706  24.279 -0.1210  0.2456  0.0735
90215W        W33206  21.105  21.798  13.640  0.1822  0.2438 -0.2848
90216W        W33207  30.228  33.689  21.887  0.1728  0.1215  0.0529
90217W        W33208  15.572   3.155  29.036 -0.3153  0.0028  0.3160
90218W        W33209   7.041  21.631  22.058  0.0831  0.1903  0.2021
90219W        W33210  19.878   1.013  25.272 -0.1577 -0.1021  0.1236
90220W        W33211  21.973  34.114  16.394 -0.2776  0.2172 -0.0810
90221W        W33212  23.966  18.236  17.785 -0.2286 -0.2258  0.0215
90222W        W33213   7.817  12.066  18.843 -0.3449 -0.0369 -0.1797
90223W        W33214  25.385  16.255  27.396 -0.2205  0.0963  0.1636
90224W        W33215  25.382  22.175  14.084  0.0287  0.2119 -0.0044
90225W        W33216  24.283   8.645  18.420 -0.0625  0.1585 -0.1859
90226W        W33217  31.574  21.317  28.236 -0.0154  0.0454 -0.0806
90227W        W33218  27.560  17.592  22.625 -0.2315 -0.3928 -0.0913
90228W        W33219   6.392  28.206  28.244 -0.2083 -0.2831  0.0206
90229W        W33220  17.364   7.956  15.667  0.3945 -0.0042 -0.0195
90230W        W33221  26.263  30.368   0.431  0.0725  0.0125 -0.1765
90231W        W33222   7.876  13.223  23.758 -0.2178 -0.4032 -0.0484
90232W        W33223   6.889  13.254   0.290 -0.2059  0.0885 -0.0829
90233W        W33224   8.831  13.085  20.362 -0.0679  0.3018 -0.2108
90234W        W33225  17.452   1.977  21.316  0.0105  0.1045  0.1033
90235W        W33226  33.284  26.768  28.160  0.1228 -0.1719 -0.0636
90236W        W33227   0.987  16.039   5.667 -0.2939  0.0524  0.0518
90237W        W33228  27.743  19.726  18.222 -0.0614  0.0824  0.0292
90238W        W33229  10.719  19.608  29.105 -0.1804  0.0460  0.2870
90239W        W33230  30.294  21.122  24.344 -0.2485 -0.1159 -0.0705
90240W        W33231  31.026   9.701  21.751  0.1373  0.2799  0.1339
90241W        W33232  25.392  23.107   3.339  0.3748  0.1036 -0.0309
90242W        W33233  17.529  34.287  15.186 -0.1540  0.1760 -0.0248
90243W        W33234  21.073  17.107   0.075 -0.0517 -0.2297 -0.1002
90244W        W33235  16.730  32.324  15.776 -0.0793  0.2483  0.0004
90245W        W33236  25.656   0.676   5.461  0.0190  0.0524  0.1185
90246W        W33237  33.269  22.547  23.441  0.1338 -0.3040  0.0664
90247W        W33238  18.083  20.354  27.529  0.0874  0.1387 -0.0716
90248W        W33239  24.708  15.725  18.286  0.1618  0.0898  0.0231
90249W        W33240   3.839  27.569   4.501  0.1798  0.1181 -0.3518
90250W        W33241  20.109  12.748  17.114 -0.1444 -0.0067  0.0899
90251W        W33242  21.868  15.265  21.030  0.2335  0.1091 -0.1797
90252W        W33243  23.161  11.247  13.326  0.2118 -0.0570 -0.1239
90253W        W33244  15.375  23.169   2.149  0.3949  0.0283  0.1433
90254W        W33245  25.318  20.108  19.284  0.2412  0.0784 -0.0104
90255W        W33246  23.411  24.920  20.149  0.2799  0.3280  0.0550
90256W        W33247  15.908  16.808  20.506  0.3228  0.2368  0.3281
90257W        W33248  28.441  20.275   3.204 -0.4333 -0.2331  0.3534
90258W        W33249  14.911  11.202   5.592 -0.1401 -0.0254 -0.2039
90259W        W33250  27.874  18.988  14.678 -0.1446  0.1783  0.2661
90260W        W33251  18.849  16.532  18.725 -0.1668 -0.0561  0.0759
90261W        W33252  18.604  11.822  22.825  0.0801 -0.1588  0.1906
90262W        W33253  19.084  20.909  16.584  0.0225 -0.2140 -0.1205
90263W        W33254  34.341   6.980  28.726  0.3744  0.2280  0.1597
90264W        W33255  14.534  17.125  15.240 -0.0958 -0.0508  0.0284
90265W        W33256  31.103  27.618  16.237  0.1148 -0.1670  0.0582
90266W        W33257  18.372  18.004  20.021  0.2492 -0.0323  0.0401
90267W        W33258  25.771  34.555  25.306 -0.3974 -0.1700  0.0204
90268W        W33259  29.246  12.933  27.044 -0.0638 -0.1788 -0.2396
90269W        W33260  23.055  13.975  16.883 -0.2147 -0.4848  0.0071
90270W        W33261  22.756  29.802  15.088  0.1668 -0.0464 -0.0152
90271W        W33262   4.756  24.300  25.613 -0.0879  0.0670 -0.1418
90272W        W33263  26.563  13.212  15.453 -0.0146  0.2617 -0.0899
90273W        W33264  19.184  18.220  19.254  0.1223  0.0858  0.0782
90274W        W33265  30.689  27.704  17.503 -0.1517  0.0499 -0.2149
90275W        W33266  31.765  33.563  19.866 -0.1472  0.2360 -0.2263
90276W        W33267  25.129  11.032   6.920 -0.0299 -0.1149 -0.0585
90277W        W33268  28.766  25.280   2.939  0.2486  0.1420 -0.0214
90278W        W33269  31.476  16.327  16.523  0.1048 -0.2367  0.0861
90279W        W33270  18.988  16.289  28.413 -0.0135 -0.3064 -0.1548
90280W        W33271  27.063  14.805   7.876  0.3650  0.1580 -0.1137
90281W        W33272  24.597  23.665  18.506  0.1223 -0.0645 -0.1359
90282W        W33273  26.495  15.987  17.634 -0.1761  0.2809  0.0396
90283W        W33274  28.635  19.910  17.411  0.0940 -0.0448 -0.4416
90284W        W33275  23.432   3.492   0.150  0.1275 -0.2830 -0.1853
90285W        W33276  25.888  13.098  29.234 -0.0166 -0.2381 -0.0097
90286W        W33277   1.464   6.137  23.076  0.1186  0.4131  0.1777
90287W        W33278  28.100  11.227  20.510 -0.0748  0.0423  0.1888
90288W        W33279   2.653  22.590  19.841 -0.1489 -0.3437  0.2998
90289W        W33280  12.323  25.894  17.242  0.1500  0.0851 -0.1776
90290W        W33281  20.583  15.873  16.945 -0.3442 -0.0773 -0.1483
90291W        W33282  24.274   7.260  27.113 -0.1707 -0.2576  0.1279
90292W        W33283  16.585  17.067  25.267  0.1063  0.0352 -0.3422
90293W        W33284  28.665  24.941  16.151  0.0840 -0.1688 -0.0084
90294W        W33285  13.466  18.352  19.890  0.1667 -0.1376  0.0087
90295W        W33286  17.500  24.530  24.267 -0.3014  0.0857 -0.0142
90296W        W33287  16.238  14.230  23.496  0.0679 -0.0433  0.2833
90297W        W33288  12.848  24.596   4.591  0.0424 -0.0713 -0.0302
90298W        W33289  14.290   7.699   0.154  0.0004  0.0663 -0.0192
90299W        W33290  18.201  12.147  13.954  0.1279  0.0342 -0.0937
90300W        W33291  12.524  17.823   1.196  0.0878  0.0954 -0.1004
90301W        W33292  21.592  28.081   2.746  0.1424  0.0943  0.1110
90302W        W33293  14.775  23.395  19.815  0.0303  0.0970 -0.0752
90303W        W33294  32.921  11.526  17.585  0.0273  0.2664 -0.2481
90304W        W33295  13.230   7.963  28.547  0.0610  0.1605 -0.0755
90305W        W33296   6.367   8.504  21.658  0.1687 -0.0859 -0.3193
90306W        W33297  14.987  19.226   4.827 -0.1045 -0.1663 -0.3106
90307W        W33298  26.600  26.634  19.634 -0.1801 -0.0772 -0.1249
90308W        W33299  32.117  25.754  23.469 -0.0566  0.2672 -0.1153
90309W        W33300  19.196  17.123  19.279  0.0838 -0.0425 -0.0727
90310W        W33301  20.285  30.848  21.632 -0.0614 -0.3409  0.2986
90311W        W33302  14.221  20.705   5.261  0.0662 -0.0396  0.3055
90312W        W33303  15.985  27.553  26.999 -0.1614  0.3187 -0.1275
90313W        W33304  21.484   4.534  14.890  0.2174  0.0030 -0.0118
90314W        W33305  11.325  23.807  22.239  0.3425 -0.1249  0.1480
90315W        W33306  18.011  10.069  24.903  0.2718  0.1289  0.0923
90316W        W33307  14.827  11.689  14.470 -0.3142 -0.1610  0.0407
90317W        W33308  31.530  27.678   7.839  0.2376  0.0085  0.1596
90318W        W33309  31.498   0.911   6.627 -0.1489 -0.1098 -0.0187
90319W        W33310  20.250   1.451  23.135  0.0086  0.0550  0.2031
90320W        W33311  15.576  33.726   0.881 -0.0601  0.1589  0.0807
90321W        W33312  26.966  18.703  15.295  0.2016 -0.1696  0.1600
90322W        W33313  34.702  12.974  15.523 -0.3973 -0.2281  0.0588
90323W        W33314   3.853  26.687   7.923 -0.1144 -0.2721  0.0254
90324W        W33315  30.441  24.074  20.769 -0.2985  0.2612 -0.1471
90325W        W33316  29.923  18.379  22.128  0.0780  0.0675 -0.3119
90326W        W33317   5.545   2.771   6.413  0.0103  0.2207 -0.1556
90327W        W33318  25.889   8.794  15.129 -0.0133  0.0869  0.1785
90328W        W33319   5.663  14.912  21.127  0.0075  0.0340 -0.1637
90329W        W33320  22.953  27.944  22.636  0.0665 -0.1299 -0.0713
90330W        W33321  25.747   8.272  15.276 -0.0462  0.1309 -0.2415
90331W        W33322  31.777   7.378  20.450  0.4576  0.0010 -0.0908
90332W        W33323  25.605  20.555  22.792  0.1670 -0.0385  0.0644
90333W        W33324  15.090   5.050  22.809  0.1444 -0.1087  0.0702
90334W        W33325  28.801  32.236   4.419 -0.0453  0.5454  0.0798
90335W        W33326  17.428  23.735   2.721 -0.1000 -0.1883  0.3173
90336W        W33327  28.828  17.833   6.907  0.0016  0.0250 -0.0257
90337W        W33328  28.044  18.688  26.558 -0.0866 -0.0238 -0.2861
90338W        W33329  22.018  22.604  17.463  0.0682  0.0435  0.3238
90339W        W33330  20.678  17.901   8.840  0.2386 -0.1349 -0.2760
90340W        W33331  31.393  14.446   3.811  0.0115 -0.0630  0.0369
90341W        W33332   1.006  21.903  23.968 -0.1042 -0.1638  0.0616
90342W        W33333  17.200  18.567  20.016 -0.0092 -0.1961 -0.0663
90343W        W33334  27.498  27.911  16.307 -0.0379 -0.0077  0.0607
90344W        W33335   3.486  12.249  16.272 -0.3808  0.1201 -0.0489
90345W        W33336   4.939   6.141  27.487  0.0992  0.0561  0.0861
90346W        W33337  22.812  14.312  26.836 -0.1111  0.1491  0.1683
90347W        W33338  15.219  15.009  28.212 -0.2518 -0.2683 -0.0918
90348W        W33339  23.948  26.094  14.299  0.2148  0.0226  0.1442
90349W        W33340  12.574   4.264   1.334  0.2997 -0.1274 -0.1160
90350W        W33341  15.660   3.681  26.928  0.0794  0.2798 -0.0307
90351W        W33342  28.529  14.520  15.229 -0.2824 -0.1634 -0.0502
90352W        W33343  29.426  13.056  26.076 -0.2356  0.1191 -0.3944
90353W        W33344   0.617  17.178   0.770 -0.1332  0.2125  0.2913
90354W        W33345  11.322  12.291   5.759  0.0315  0.2603  0.0270
90355W        W33346  14.544  14.979  14.198 -0.2516 -0.2117  0.3224
90356W        W33347  13.479  20.269  14.242 -0.1002  0.2071  0.2057
90357W        W33348  17.956  17.099  18.045  0.1561 -0.0945  0.5795
90358W        W33349  27.415   4.052  21.757 -0.2495  0.0686 -0.2563
90359W        W33350  34.559   6.107  18.571 -0.2639 -0.3787  0.0246
90360W        W33351  20.386  20.895  13.057 -0.2262 -0.0293 -0.1988
90361W        W33352  22.344   2.920  21.026  0.1818 -0.2097 -0.2801
90362W        W33353  17.393  11.896  18.803 -0.1669  0.0901  0.0663
90363W        W33354   4.143  10.926  29.227 -0.0990 -0.0195 -0.1095
90364W        W33355  18.989  17.423  18.339  0.2449  0.2225  0.3184
90365W        W33356  20.335  21.953  18.393 -0.0191  0.1702 -0.3556
90366W        W33357   8.851  11.068  25.879  0.0634 -0.2085 -0.3144
90367W        W33358  11.405  10.717  17.992  0.1128  0.1471 -0.0670
90368W        W33359  17.319  19.469  25.655 -0.0319  0.3701 -0.1545
90369W        W33360  33.001   0.647  22.801  0.1602  0.2319 -0.1234
90370W        W33361  28.364   2.578  26.141 -0.2305  0.1367  0.0011
90371W        W33362  19.410  34.791  17.425 -0.1370 -0.4888 -0.1836
90372W        W33363   8.696  10.458  20.271 -0.0719  0.0628 -0.0005
90373W        W33364  28.158   4.823  24.597 -0.3001 -0.1988  0.3306
90374W        W33365   0.521   1.653  28.733  0.3099  0.0044 -0.0525
90375W        W33366  20.804  22.158  17.476  0.0601  0.4151  0.0711
90376W        W33367  19.199  15.108   0.694  0.0928 -0.0575 -0.3007
90377W        W33368   9.627  21.473   0.932 -0.1064 -0.0873 -0.0208
90378W        W33369  22.118  29.478  17.231  0.0540 -0.1353  0.4340
90379W        W33370  17.426  15.184  23.106 -0.2607 -0.0562  0.1246
90380W        W33371  18.823   4.987   7.834 -0.3278  0.1125 -0.1705
90381W        W33372  15.369  12.815   6.764 -0.0932 -0.1060  0.0257
90382W        W33373  17.060  22.098  27.018  0.0492 -0.0884 -0.0798
90383W        W33374  24.572  13.564  14.768  0.1385  0.1714  0.3286
90384W        W33375  20.119   1.013   3.352 -0.0703 -0.4242 -0.0163
90385W        W33376  27.940  15.125  14.039 -0.2098  0.0016  0.2058
90386W        W33377  31.464  26.043  26.704  0.1470 -0.2489  0.0563
90387W        W33378   6.775   4.151  20.693  0.0818  0.0952 -0.2907
90388W        W33379  15.146  30.164  18.110 -0.0021  0.0691  0.1246
90389W        W33380  23.977  15.274  21.645 -0.0922  0.1612  0.2846
90390W        W33381  11.501  31.861   8.658 -0.2215  0.0952 -0.1867
90391W        W33382   7.881  14.416  17.471  0.0185 -0.0736  0.0927
90392W        W33383  21.530  13.356  26.493  0.1151 -0.1795  0.1519
90393W        W33384  13.557   2.879  10.704  0.0384 -0.0523  0.0065
90394W        W33385  20.553  12.584  19.042 -0.1121  0.2238  0.1834
90395W        W33386  22.121  16.730  26.816  0.2170  0.2788 -0.3129
90396W        W33387   3.041  21.843  23.662  0.0623 -0.1771  0.0343
90397W        W33388  15.794  23.178  17.870  0.0432  0.0271 -0.4581
90398W        W33389  30.424  24.810   8.972 -0.3122 -0.0517 -0.1473
90399W        W33390  12.474  16.946  17.399 -0.3318 -0.1137 -0.0476
90400W        W33391   8.242   2.310  25.128  0.1546 -0.1938  0.0577
90401W        W33392  18.691  22.835  26.153  0.0722 -0.2801 -0.4004
90402W        W33393  18.991   6.462  18.333 -0.1544 -0.0780 -0.0191
90403W        W33394  15.788  22.098  19.041 -0.0383  0.1640  0.1797
90404W        W33395  26.096   6.742  16.087 -0.1169  0.0138 -0.1844
90405W        W33396  23.046  19.956  14.046 -0.2633 -0.1858 -0.0252
90406W        W33397  28.811  30.079  29.192  0.0777 -0.1134 -0.0234
90407W        W33398  18.620  22.456  18.067  0.2564 -0.2664 -0.0332
90408W        W33399  18.222  18.156  20.912  0.2910  0.0330  0.0102
90409W        W33400  31.570   1.076   1.169 -0.3335  0.6899 -0.0132
90410W        W33401   4.127  13.831  22.542  0.3470 -0.0688  0.2645
90411W        W33402  19.626  17.593  17.400 -0.2794 -0.1981  0.1188
90412W        W33403  26.205  15.801  15.865  0.1829 -0.3266 -0.1183
90413W        W33404  20.605  30.559  19.216 -0.2530  0.1584 -0.1425
90414W        W33405   6.818  23.778   9.405  0.5316  0.0383  0.0682
90415W        W33406   3.309  32.813   1.870  0.0790 -0.1252 -0.0944
90416W        W33407  17.470   8.196  21.214  0.0669 -0.2642 -0.1631
90417W        W33408  17.767  15.990  18.448 -0.4899  0.5718  0.0387
90418W        W33409  27.052  22.443  18.457 -0.0581  0.1405  0.0442
90419W        W33410  28.912  23.785  24.948 -0.0309  0.0595  0.0321
90420W        W33411  28.072  27.682   6.348  0.0125  0.0475  0.0430
90421W        W33412  27.769  17.977  28.240  0.1133 -0.0093 -0.0969
90422W        W33413  18.925   7.145   9.877  0.2049  0.1169 -0.2473
90423W        W33414  26.605  22.891  14.469 -0.0559 -0.0975 -0.0248
90424W        W33415  24.081   9.926  19.560  0.1036 -0.2116 -0.0768
90425W        W33416  21.356   6.513  18.163  0.1637  0.0127 -0.2210
90426W        W33417  26.241  14.174  17.191  0.0789  0.0996  0.2809
90427W        W33418   4.063  29.560  17.933 -0.3453 -0.1307  0.2397
90428W        W33419  17.798  22.628  16.860  0.0266  0.2736 -0.1708
90429W        W33420  29.079   0.300  16.121 -0.1827  0.2129  0.1342
90430W        W33421  32.977   2.166  24.898  0.1410  0.2292  0.3246
90431W        W33422   9.885   4.093  23.130  0.2155  0.3568 -0.0682
90432W        W33423  15.100   7.598  24.892 -0.0913  0.2978 -0.0684
90433W        W33424  31.131  12.489   4.735 -0.0312  0.1619  0.0565
90434W        W33425  13.476  25.762  22.682 -0.2589 -0.0629 -0.0066
90435W        W33426  11.017  17.025  26.068  0.0130 -0.0438  0.0271
90436W        W33427  17.997  13.132  28.699  0.0405  0.1625  0.2655
90437W        W33428   8.762   6.993   1.179  0.2242  0.1037 -0.4172
90438W        W33429   4.207  11.757  20.817  0.1992  0.1278 -0.1642
90439W        W33430   6.320  19.150  17.416 -0.0296  0.2585 -0.1608
90440W        W33431  14.873  22.286  14.311  0.1146 -0.0553  0.3502
90441W        W33432  23.744  34.677  13.435 -0.1364  0.0369 -0.1424
90442W        W33433   9.997   4.675  18.746  0.1691 -0.3318  0.1286
90443W        W33434  13.527  19.903  16.283  0.0180 -0.3855 -0.0752
90444W        W33435  16.087   7.633  18.674  0.0596  0.1086  0.2077
90445W        W33436  21.143  12.774  17.271 -0.0217  0.0604  0.2766
90446W        W33437  21.049  22.575   2.411 -0.0300 -0.1565 -0.1668
90447W        W33438  29.593  32.157  16.070  0.0465 -0.1447 -0.0608
90448W        W33439  30.450  13.902  28.311 -0.2861 -0.0060 -0.0591
90449W        W33440   0.237  14.912  26.492  0.1480 -0.0254  0.1137
90450W        W33441  21.625  27.162   3.342  0.0592  0.0030  0.1224
90451W        W33442  20.322   8.667  25.487 -0.0614 -0.0887  0.3271
90452W        W33443  28.598  21.675  22.504 -0.0564  0.0246 -0.3325
90453W        W33444  18.470  24.994  16.046  0.0648 -0.0020  0.2328
90454W        W33445  30.110  22.230  25.056  0.2398 -0.1014 -0.2702
90455W        W33446   9.227  25.766  19.187 -0.0473  0.0018  0.0831
90456W        W33447  18.326   6.450  29.190 -0.0601  0.1205 -0.0585
90457W        W33448   3.981  21.892  27.263 -0.0835  0.1637  0.1552
90458W        W33449  16.055  13.186  23.308  0.1172  0.2472 -0.1243
90459W        W33450  31.206   9.957  20.057  0.1003  0.1970  0.1790
90460W        W33451  18.395  10.827  17.570 -0.4367 -0.0840 -0.0403
90461W        W33452  12.881   8.523  27.394 -0.2165 -0.0741 -0.0851
90462W        W33453  22.552  16.235  15.517  0.4520 -0.1060 -0.1605
90463W        W33454  23.798  20.221  13.001 -0.1555 -0.0379  0.0303
90464W        W33455  23.797   3.008   9.147 -0.2438  0.0060 -0.0376
90465W        W33456  23.378  29.730  21.737 -0.0889  0.1495 -0.1000
90466W        W33457  20.764  13.314  28.654 -0.0609  0.0524 -0.1520
90467W        W33458  21.031  28.100  19.091 -0.1449  0.0326 -0.0384
90468W        W33459  34.575  15.879   0.659  0.1622 -0.1768  0.2966
90469W        W33460  31.177  24.788  16.721  0.0551 -0.1320 -0.2692
90470W        W33461  17.554  34.288  23.455 -0.2481 -0.4107 -0.1051
90471W        W33462  18.600   8.545  25.460  0.0049  0.0943 -0.1936
90472W        W33463  30.774  11.643  16.135  0.3026 -0.2122 -0.0665
90473W        W33464   2.723   7.311   2.713  0.2384  0.0234  0.0437
90474W        W33465  28.694  26.034  18.149  0.0846  0.2286  0.3783
90475W        W33466  18.571  14.868  24.593  0.0663 -0.3963 -0.3047
90476W        W33467  30.424  13.156  26.198 -0.1304 -0.2578 -0.1035
90477W        W33468  13.057  24.268  14.519 -0.2965 -0.2505 -0.0946
90478W        W33469  24.700   4.329  24.554  0.0681  0.1925 -0.3416
90479W        W33470  14.954  23.372  25.289  0.2447  0.1294 -0.0191
90480W        W33471  20.718  19.377  23.194 -0.1947 -0.0644 -0.3278
90481W        W33472  34.712  20.289  17.747 -0.0231 -0.4656  0.1926
90482W        W33473  27.077  33.432  22.417 -0.3810 -0.4238 -0.0979
90483W        W33474  21.855  17.181  14.990 -0.1260  0.0044 -0.3855
90484W        W33475  20.932  32.502   4.317  0.2957  0.0882  0.0740
90485W        W33476   1.832  19.907   7.002 -0.1026  0.2653  0.0482
90486W        W33477  16.523  18.791   7.498  0.2429 -0.1412  0.0278
90487W        W33478  26.767  14.531   3.852 -0.0628  0.3290 -0.1086
90488W        W33479  12.793  21.094  24.050  0.0171  0.1695  0.1170
90489W        W33480  14.028   3.822   4.528 -0.0854 -0.3744 -0.1150
90490W        W33481  28.899   2.674   1.268  0.0251  0.2257 -0.4591
90491W        W33482  31.462  22.982  16.421  0.3067  0.2566  0.3254
90492W        W33483  18.566  15.851   5.078  0.4793 -0.1677 -0.2180
90493W        W33484   0.120  14.909  28.730 -0.1465 -0.0845  0.3604
90494W        W33485  14.734  10.877   3.980  0.0770 -0.0678 -0.2295
90495W        W33486  19.111  19.150  16.384 -0.0923 -0.1743 -0.1695
90496W        W33487  28.861   1.324  20.517  0.2708 -0.2298 -0.1313
90497W        W33488  26.190  21.577  16.836  0.2605  0.3467 -0.0024
90498W        W33489  33.220  23.740  25.499  0.0314 -0.0559 -0.0482
90499W        W33490   1.929  15.599  26.005  0.1127 -0.2927 -0.0460
90500W        W33491  19.159  33.839  17.767 -0.0603  0.1698  0.1129
90501W        W33492  33.414  19.706  19.583 -0.1518  0.2025  0.1856
90502W        W33493  13.735  11.163   1.250 -0.1668  0.0100  0.0307
90503W        W33494  20.522  23.060   6.320 -0.0187  0.1808  0.0008
90504W        W33495  27.063  22.422  27.438 -0.0354 -0.4078  0.1183
90505W        W33496  24.003  33.790  18.978  0.0869 -0.0027 -0.2145
90506W        W33497  18.499  10.886   2.659  0.0082 -0.2298 -0.0113
90507W        W33498   9.106  19.831  22.672 -0.2765  0.0115  0.0303
90508W        W33499  12.556  24.983  23.793 -0.1003 -0.1149  0.2736
90509W        W33500  26.873  17.378  26.114 -0.0155  0.0149 -0.2100
90510W        W33501  31.472  33.788  13.933  0.1978  0.0323 -0.1474
90511W        W33502  19.027  15.608  26.594  0.1049 -0.0224  0.0063
90512W        W33503  12.063  17.060   6.508 -0.1037  0.2346 -0.4312
90513W        W33504  25.739  19.712  25.929 -0.0531 -0.1051  0.1552
90514W        W33505   6.766  23.973   5.118 -0.1750 -0.0889 -0.0347
90515W        W33506  15.410  22.476   5.127  0.2604  0.1591  0.1028
90516W        W33507   7.979  26.755  26.371  0.2721  0.0940 -0.0298
90517W        W33508  16.794  20.036   4.613  0.0891  0.2201  0.3708
90518W        W33509  19.014  26.749  26.667 -0.1322 -0.0042  0.1081
90519W        W33510  15.911  15.445   5.381  0.1635  0.0898  0.2463
90520W        W33511  11.902  10.724   0.244 -0.1236  0.0879  0.0990
90521W        W33512  20.988   1.516  29.097  0.3268 -0.0710 -0.0782
90522W        W33513   2.220   0.941  17.893 -0.1887  0.2964 -0.2373
90523W        W33514  27.391  32.859  28.427  0.2110 -0.0515 -0.0964
90524W        W33515  33.245   1.897   6.521  0.1437  0.1009  0.5429
90525W        W33516   3.965   7.463   2.109  0.3448 -0.0319  0.0570
90526W        W33517  17.461  20.049  28.702  0.1065 -0.2391  0.1618
90527W        W33518  14.943  13.445  14.557  0.2344 -0.0293  0.0178
90528W        W33519  30.751  22.511   8.542 -0.0448 -0.0460 -0.3585
90529W        W33520  16.313   7.702  17.252  0.0362 -0.2594 -0.0721
90530W        W33521   9.210   0.329  26.002 -0.1608  0.5007  0.2264
90531W        W33522  25.952   8.114   0.346 -0.3060 -0.1267  0.2117
90532W        W33523  30.427  33.702  19.351 -0.1713  0.2196  0.2745
90533W        W33524  12.732  31.376  17.270 -0.0849 -0.2967  0.0505
90534W        W33525  29.319  23.396   1.097  0.0626  0.0893  0.0289
90535W        W33526  21.180  28.311  24.915 -0.2659  0.0079 -0.1422
90536W        W33527  10.409   7.028  14.440 -0.2449 -0.5362  0.0665
90537W        W33528   7.097  29.633   9.930 -0.5357 -0.0191 -0.0036
90538W        W33529   8.514  11.940  21.643  0.0113  0.3346 -0.1500
90539W        W33530  27.113  19.734   4.210 -0.0659 -0.0504  0.1455
90540W        W33531  23.293   6.008  24.023  0.1149 -0.1521 -0.0155
90541W        W33532   5.413   4.789  23.235  0.0462 -0.1485 -0.1351
90542W        W33533  17.140   9.234  25.558 -0.0116  0.2214 -0.1310
90543W        W33534  18.731   8.063  29.019  0.1011  0.0354 -0.1034
90544W        W33535  21.231  27.600  21.135  0.0490  0.2016  0.2131
90545W        W33536  11.817  27.021  19.112 -0.2221 -0.1726 -0.1921
90546W        W33537  25.811  26.599   8.823  0.1152  0.0683  0.0354
90547W        W33538  19.668  23.235   3.517 -0.1408 -0.2254 -0.0768
90548W        W33539  20.872   6.788  23.839  0.1083 -0.2177 -0.0028
90549W        W33540  21.032  17.852  23.407  0.1297  0.1365 -0.2066
90550W        W33541  28.670  23.549  16.691  0.0728 -0.0271  0.1951
90551W        W33542   7.257  29.280   1.239  0.2145  0.0081  0.1311
90552W        W33543  19.106   9.614  26.072 -0.0497  0.0596 -0.1368
90553W        W33544   4.097   0.883   6.314  0.3739 -0.3404  0.1352
90554W        W33545  24.126  34.449  26.308 -0.0643  0.1939  0.1713
90555W        W33546  16.966  16.630   2.685  0.1801  0.0383 -0.4075
90556W        W33547  19.952  26.275  13.443  0.2094  0.1471 -0.0068
90557W        W33548  13.411  11.947  15.980 -0.0176  0.2769 -0.2100
90558W        W33549   9.887  12.947   2.742  0.0107  0.3319  0.3210
90559W        W33550  23.404  21.336   8.715 -0.0496 -0.4489  0.2596
90560W        W33551  30.508  25.256   2.934 -0.0276 -0.1075 -0.1208
90561W        W33552  25.823   2.110  25.986  0.0761  0.0851 -0.1051
90562W        W33553  15.767  20.708   6.082 -0.0642  0.0168  0.0319
90563W        W33554  29.004   9.400  19.495 -0.0438  0.0683 -0.3357
90564W        W33555  11.566  18.944  26.800 -0.6670  0.0874 -0.3077
90565W        W33556  31.486  27.984  26.140  0.0185 -0.0103 -0.0598
90566W        W33557  20.809  13.428   8.215  0.1006 -0.2056  0.2691
90567W        W33558  24.389   2.164  23.239 -0.1003  0.0832  0.0859
90568W        W33559  17.744  22.819   8.686  0.1209 -0.4204  0.1082
90569W        W33560  18.675  17.437  21.850  0.3148 -0.1676  0.0248
90570W        W33561   6.174  13.523  17.495  0.2255  0.0015 -0.2124
90571W        W33562  19.674  15.053   9.173  0.2101  0.4058  0.2952
90572W        W33563  34.724  10.711   4.198  0.3153 -0.1042  0.0310
90573W        W33564  15.534  10.301  27.380 -0.2330 -0.1151  0.1171
90574W        W33565  22.681  19.333  25.595 -0.1643  0.1583 -0.2337
90575W        W33566  25.286   5.092   2.246  0.1558  0.0703 -0.0533
90576W        W33567  19.250  27.567   4.386 -0.1384  0.0544  0.4067
90577W        W33568  33.072  27.352  21.453  0.1631 -0.2604  0.3073
90578W        W33569  25.784  33.359  28.183 -0.0592 -0.0578 -0.2343
90579W        W33570  20.033  18.215  23.471 -0.2551  0.0608 -0.0395
90580W        W33571  19.969   9.802  22.458  0.1138  0.1507  0.0189
90581W        W33572  17.418  28.277   4.422  0.0620 -0.1083 -0.1038
90582W        W33573   4.131   8.461   4.102  0.1848 -0.1967  0.0294
90583W        W33574   1.690  24.272  24.850  0.2015 -0.1029 -0.1442
90584W        W33575  22.246  12.966  14.759 -0.0065  0.0600  0.0913
90585W        W33576   2.983   9.284  16.614 -0.1711  0.3533  0.0450
90586W        W33577  27.580  15.766  27.131  0.0941 -0.0071 -0.1751
90587W        W33578  22.469  22.098   5.366  0.1368  0.3235  0.0090
90588W        W33579  24.696  22.080  15.907  0.1018 -0.0764 -0.0157
90589W        W33580  10.607  15.354   9.505  0.3477 -0.2640 -0.1296
90590W        W33581  29.119  28.824   0.565 -0.3597 -0.1553 -0.0545
90591W        W33582  30.104  14.862   1.255 -0.1518  0.2068  0.1548
90592W        W33583  16.569  21.946  22.559 -0.0156 -0.1403 -0.1202
90593W        W33584   4.959  10.002   2.393  0.2166  0.0968  0.0420
90594W        W33585  20.388  15.360   1.900  0.2789 -0.3899 -0.1485
90595W        W33586   9.412  12.614   6.359  0.1136 -0.3413  0.1655
90596W        W33587  21.103  21.226  25.688 -0.1796  0.2480  0.1409
90597W        W33588  15.300  28.476   4.053  0.2964  0.2174  0.1739
90598W        W33589  29.656   8.550   2.231  0.3665  0.1924 -0.0151
90599W        W33590  24.963  32.473   7.862  0.2707  0.0192  0.1263
90600W        W33591   5.114  16.269  18.351 -0.1632  0.0923  0.1217
90601W        W33592  25.558  21.792  23.503 -0.1668  0.0472  0.0838
90602W        W33593  21.712   8.678  26.139  0.1919 -0.0497  0.1750
90603W        W33594  14.495  22.609   1.267  0.0824  0.2698  0.0044
90604W        W33595   1.764  12.113  21.744 -0.1195  0.0778  0.0117
90605W        W33596  30.578  19.609  21.197 -0.1736 -0.4607  0.2563
90606W        W33597  21.947  21.962   3.100 -0.4593  0.0105  0.1780
90607W        W33598  23.098  32.184  22.568  0.4089 -0.2095  0.1607
90608W        W33599  18.842  26.345   9.224 -0.2381 -0.1931  0.0452
90609W        W33600  23.715  15.459   6.457  0.3682  0.0679 -0.0051
90610W        W33601  19.950  23.935  20.918 -0.0048 -0.2085  0.0049
90611W        W33602  20.879  23.239  26.689 -0.0535 -0.2505 -0.1862
90612W        W33603   9.727   8.953   7.976  0.0492  0.1772 -0.3348
90613W        W33604  29.481  12.462  27.092  0.2008 -0.0645  0.3431
90614W        W33605  29.276  21.227   4.801  0.1576 -0.0635 -0.1432
90615W        W33606  18.891   7.126  19.692  0.1310 -0.0957 -0.2739
90616W        W33607  20.522   6.256  19.998 -0.1083  0.0918 -0.0791
90617W        W33608  27.891  26.419   6.523  0.2161  0.0884 -0.1189
90618W        W33609  26.571   6.492   2.915  0.2448  0.1376 -0.3353
90619W        W33610  21.684  17.657   3.845  0.3657 -0.0907  0.2995
90620W        W33611   8.052  13.134  20.664  0.1318 -0.1962  0.2332
90621W        W33612  22.150  19.521  16.994  0.1662 -0.1297 -0.2343
90622W        W33613  22.684  28.360  22.694  0.1701 -0.0113 -0.0017
90623W        W33614  15.112  21.797  16.311 -0.0403  0.2166 -0.2599
90624W        W33615  30.310  19.783   7.629 -0.0016  0.0459 -0.0706
90625W        W33616  17.102   9.149   6.272  0.1144 -0.0738 -0.1691
90626W        W33617  27.581   0.657   0.637 -0.2468  0.0461 -0.1648
90627W        W33618  23.097   1.027   3.534 -0.0654 -0.0029 -0.3924
90628W        W33619  22.282  10.810  18.421  0.1868 -0.0657 -0.0711
90629W        W33620  27.636  17.503   9.175 -0.0444 -0.1502  0.4473
90630W        W33621  21.354   3.898   1.800 -0.1254  0.1231 -0.0285
90631W        W33622   6.075  11.558  28.879 -0.3741 -0.1123 -0.2521
90632W        W33623  30.614  33.342  28.466 -0.0147 -0.0374 -0.2701
90633W        W33624  26.592  25.601   7.673 -0.4521  0.0923  0.0138
90634W        W33625   6.823  10.280  22.860  0.0482  0.2935 -0.3961
90635W        W33626   7.854   9.733  10.692 -0.3998  0.1105 -0.0552
90636W        W33627  24.771  14.206  20.070  0.0778 -0.0385 -0.4263
90637W        W33628  32.167  15.833  29.073 -0.1045 -0.0180 -0.0820
90638W        W33629  20.903  26.812  19.466  0.0615  0.1419 -0.0448
90639W        W33630  32.164   1.115   9.114 -0.3929 -0.1534 -0.2938
90640W        W33631  21.070  12.531  19.023 -0.1005  0.0495  0.1575
90641W        W33632  14.037   7.065   7.114 -0.0758 -0.3947 -0.2178
90642W        W33633  19.877  29.193  24.575 -0.0770  0.0150  0.1472
90643W        W33634  34.120  14.408  16.114 -0.0006  0.1868  0.1110
90644W        W33635   9.415  16.218   8.857 -0.2200  0.2659  0.1576
90645W        W33636   5.683  28.952   6.136 -0.0266 -0.0642 -0.0691
90646W        W33637  10.527  13.543  22.769  0.0451  0.1115  0.1951
90647W        W33638  10.760  20.352   0.369 -0.2506  0.5029 -0.3047
90648W        W33639  12.171  19.434   3.645 -0.1442  0.0417  0.1170
90649W        W33640  22.830  10.904  28.458 -0.0981 -0.0759  0.3522
90650W        W33641  28.435  21.591   4.531  0.1945 -0.3219  0.1042
90651W        W33642  29.819  31.938  28.056  0.3173 -0.2117 -0.0504
90652W        W33643  17.064  12.799   4.908 -0.2703  0.1246 -0.0005
90653W        W33644  28.111  20.925  21.841  0.1241 -0.1005 -0.0290
90654W        W33645  29.106   5.148   1.866  0.0060 -0.0278  0.0014
90655W        W33646   4.888  23.000  15.723 -0.0712  0.0264  0.0116
90656W        W33647  17.274   4.788   4.821  0.0449  0.1188  0.3695
90657W        W33648   3.159  19.762   7.519 -0.3309  0.0134  0.1846
90658W        W33649  16.436  13.379  28.826 -0.0888 -0.2360  0.1291
90659W        W33650   6.944  11.485  22.801 -0.0683  0.0332 -0.1124
90660W        W33651  21.849  31.536  23.102  0.1123  0.1459 -0.0971
90661W        W33652  10.643  14.376  21.284  0.1010 -0.0691 -0.1337
90662W        W33653  27.741   2.830   9.651  0.1549 -0.1556 -0.0653
90663W        W33654  11.051  13.430  21.519  0.1488  0.2130  0.2649
90664W        W33655  22.700  24.320   5.173 -0.0906 -0.0324 -0.1056
90665W        W33656  24.799  21.302  22.378 -0.2165 -0.3027  0.2839
90666W        W33657  18.921  19.627  16.896  0.4222 -0.1844 -0.2342
90667W        W33658  20.491  20.350   4.563 -0.0326 -0.3938 -0.1013
90668W        W33659   3.359   5.431  24.541  0.1070  0.2124  0.3004
90669W        W33660   9.323  22.759   3.600  0.0801 -0.1769  0.0688
90670W        W33661  31.876  25.344  26.857  0.2418 -0.1335  0.1408
90671W        W33662   8.469  14.270   1.932  0.1374  0.0712  0.1138
90672W        W33663  23.716  13.278  15.365 -0.0489  0.2640  0.1070
90673W        W33664   9.700  18.034  28.252  0.4066  0.1287 -0.3125
90674W        W33665  15.302   4.341   8.574  0.1045  0.2111  0.1031
90675W        W33666  18.410  13.026  27.406  0.1168  0.2580  0.2611
90676W        W33667   9.172  23.208  20.219  0.1821  0.0442 -0.2753
90677W        W33668   8.587   5.766  16.723 -0.0329  0.1925  0.1540
90678W        W33669  28.197  23.883   3.429  0.0147 -0.2267 -0.1182
90679W        W33670  18.861   8.590   7.130  0.0003 -0.0011 -0.1001
90680W        W33671  34.341   2.895  25.628  0.6135 -0.2526 -0.2220
90681W        W33672  20.130   7.367   6.042 -0.0515  0.0175  0.4191
90682W        W33673  32.140  16.961   3.517 -0.0025  0.1563 -0.1518
90683W        W33674  29.116  13.625   0.962 -0.1283 -0.2105 -0.1449
90684W        W33675  31.519  24.752  20.838 -0.0200 -0.2852 -0.3622
90685W        W33676   2.306  19.867  19.378 -0.3275  0.0404 -0.8266
90686W        W33677   5.133   1.162   5.448  0.5331  0.1792  0.2910
90687W        W33678  12.972   9.578  27.590  0.0983  0.2005  0.0433
90688W        W33679  29.596  18.225  14.569  0.0521 -0.0407  0.3150
90689W        W33680  23.719  18.498   7.623 -0.1102 -0.3231  0.2550
90690W        W33681  14.443  13.461  25.088 -0.0055  0.1621 -0.2331
90691W        W33682  19.170  30.359   9.639 -0.0061  0.0481 -0.1294
90692W        W33683   9.976   7.155  16.573 -0.0487 -0.0992 -0.3471
90693W        W33684  24.513  22.591  18.683 -0.0423 -0.2899  0.4119
90694W        W33685  22.375  19.434   8.416 -0.0157  0.1787 -0.0752
90695W        W33686  32.575  31.433   2.137  0.0187 -0.1461 -0.1127
90696W        W33687  20.939  12.175   2.881  0.0345  0.0395 -0.1301
90697W        W33688  11.491  26.713  13.957  0.2483 -0.2893 -0.1343
90698W        W33689  20.739   2.524  25.057 -0.0392  0.0062  0.0752
90699W        W33690  25.422  12.267  22.151 -0.2115 -0.2284 -0.1259
90700W        W33691  24.850  13.332  26.387 -0.2334 -0.2589  0.0256
90701W        W33692  30.984  17.838  28.895 -0.2513 -0.0183 -0.3241
90702W        W33693  25.278  19.202  28.554  0.2880  0.1610  0.0093
90703W        W33694  16.297  18.031  25.811 -0.0002  0.0648  0.0996
90704W        W33695  10.587  34.336   1.581 -0.0101 -0.0776 -0.1961
90705W        W33696   9.612  27.053   6.700  0.0048 -0.1476  0.1087
90706W        W33697   3.359   1.250  15.248  0.0848  0.1252  0.0135
90707W        W33698  22.542  19.411   1.169 -0.3553 -0.2436  0.2075
90708W        W33699  16.941  25.430   1.825  0.0602  0.3469  0.4297
90709W        W33700  20.978  32.223   2.581  0.0957 -0.2768  0.1306
90710W        W33701  22.088   1.018   3.747 -0.0696 -0.4190 -0.0974
90711W        W33702  17.538  10.368   1.950 -0.1196 -0.1878  0.0469
90712W        W33703  21.367   5.246  23.641 -0.2656  0.0804  0.1526
90713W        W33704  14.837  17.152   7.561 -0.0066 -0.0420 -0.0781
90714W        W33705  15.036  11.798   9.860 -0.0405 -0.1333  0.1910
90715W        W33706  18.718  25.775  13.435  0.0083  0.2188  0.1271
90716W        W33707  21.871  24.183  27.746  0.0765 -0.1428 -0.0387
90717W        W33708  19.855  13.510  25.484  0.0188 -0.0953  0.1566
90718W        W33709  18.083  14.748  26.883 -0.3529 -0.3025  0.0866
90719W        W33710  18.425   9.548   3.874 -0.1379 -0.0268 -0.2461
90720W        W33711  16.042  30.212   8.105 -0.0820 -0.2076  0.0375
90721W        W33712   4.796  11.105  23.012  0.2289 -0.0551  0.1902
90722W        W33713  29.203  14.662  25.625 -0.1294 -0.3327  0.1551
90723W        W33714  11.138  26.411   5.024  0.1526  0.0666 -0.1016
90724W        W33715  15.351  12.022   1.063  0.0776  0.0253 -0.1694
90725W        W33716  21.717  23.572  23.567  0.0280 -0.1422 -0.0987
90726W        W33717  17.386   7.607  18.167 -0.2019  0.0590  0.0502
90727W        W33718  12.204  25.741   8.522  0.2767  0.3771  0.0506
90728W        W33719  27.687  22.110  25.295  0.0982  0.1024 -0.0496
90729W        W33720  16.717  13.148   3.360  0.0591  0.0839  0.0781
90730W        W33721  30.346  13.828  18.661 -0.0840 -0.3503 -0.1073
90731W        W33722  12.004  23.373  22.028 -0.0176  0.1286  0.1773
90732W        W33723  34.219  15.437   2.593 -0.2591 -0.2907 -0.0238
90733W        W33724  16.163  24.380  28.289  0.1403 -0.1527 -0.3106
90734W        W33725  15.299   8.659   1.837 -0.0931 -0.0828  0.0944
90735W        W33726  23.029  15.190  21.848  0.0081  0.1134  0.0954
90736W        W33727   0.242  21.341   3.911  0.0513 -0.0556  0.0739
90737W        W33728  25.485  15.120   8.426  0.0064 -0.2503 -0.2188
90738W        W33729  11.936  25.432   3.447 -0.2583  0.0874 -0.2820
90739W        W33730   8.978   4.536  28.764 -0.1302  0.2121 -0.4265
90740W        W33731   2.824  16.461  19.428  0.0206 -0.1254 -0.0179
90741W        W33732  16.163   4.352   0.141 -0.1832  0.1416 -0.0659
90742W        W33733  20.097  25.506   4.371 -0.0200 -0.0867  0.3672
90743W        W33734  34.219  17.639  18.675  0.0247  0.0885 -0.0531
90744W        W33735  27.891  20.555   3.796  0.0340  0.0912 -0.0173
90745W        W33736  29.625  15.807  22.947 -0.1075  0.4259  0.1517
90746W        W33737  14.004  10.458   3.428  0.0977 -0.1498 -0.1514
90747W        W33738  10.346   7.222   8.415 -0.3070 -0.1549  0.0299
90748W        W33739  21.527  21.639   7.500  0.0917 -0.1101  0.0207
90749W        W33740   0.139   3.881  28.849  0.0219 -0.1199  0.1643
90750W        W33741  16.974   8.479   8.770  0.0227 -0.1297 -0.0947
90751W        W33742  31.926  21.376  22.952  0.1769  0.1665 -0.2692
90752W        W33743  29.988  31.918  20.121 -0.1706 -0.0731  0.1126
90753W        W33744  32.094  12.368  22.042 -0.1011 -0.1059  0.3223
90754W        W33745  15.528  11.164   4.113  0.4265 -0.0544 -0.0760
90755W        W33746  10.020   0.862   3.434 -0.3143  0.1666  0.1218
90756W        W33747  32.439  25.594  15.162 -0.2190 -0.1300 -0.1561
90757W        W33748  21.420  29.022  24.922  0.2453  0.0687  0.1209
90758W        W33749   4.458  22.252   4.105  0.2716  0.0840  0.3923
90759W        W33750  20.297  16.595   4.449  0.4465  0.3858 -0.0964
90760W        W33751   2.067  25.548  15.500 -0.0307 -0.0433 -0.0328
90761W        W33752   9.464  17.671  24.580 -0.0674 -0.0716  0.0819
90762W        W33753  11.440  11.684   4.792 -0.2754 -0.3135  0.1715
90763W        W33754  26.023   3.889   8.229 -0.0210  0.0731  0.1483
90764W        W33755   7.429   8.888  27.852 -0.0139 -0.4125 -0.1508
90765W        W33756   8.313  10.423  17.728  0.1589  0.0784 -0.1889
90766W        W33757   6.432  25.361   0.573  0.0955  0.0134 -0.0636
90767W        W33758  23.639  17.508  21.554 -0.0113 -0.0771  0.1771
90768W        W33759   0.143  20.341  25.956 -0.5958 -0.0685 -0.1292
90769W        W33760   4.818  32.424   3.916  0.0741  0.4600  0.0402
90770W        W33761  26.335  15.248   5.433 -0.0244  0.2075  0.2478
90771W        W33762  23.370  14.815   3.147 -0.2564  0.1347  0.0955
90772W        W33763  24.925  10.505  18.041 -0.0677  0.0409 -0.0071
90773W        W33764   2.867  22.684  14.733 -0.0815 -0.0684  0.0216
90774W        W33765  12.126   7.149  20.684 -0.2141 -0.0521 -0.1724
90775W        W33766  27.310  31.775   5.075 -0.4653  0.4138  0.2017
90776W        W33767  26.539   4.688   5.574  0.1874 -0.0646 -0.0874
90777W        W33768  21.452   7.458   5.735  0.1206 -0.0965 -0.1038
90778W        W33769   5.440  16.533   7.201  0.1395 -0.0572 -0.3635
90779W        W33770  13.414   4.211  10.182 -0.2511  0.1879 -0.1086
90780W        W33771  24.796  26.951  27.921 -0.2521 -0.0075 -0.1514
90781W        W33772  19.957   6.694  19.551  0.2273  0.3016 -0.2210
90782W        W33773  23.360  16.158  25.172  0.1445  0.1896  0.2186
90783W        W33774  16.214  22.138  27.718 -0.1622  0.3319  0.1187
90784W        W33775   1.951  30.638  28.845  0.1228  0.0762  0.1846
90785W        W33776  33.244   6.904  26.956  0.2507 -0.1377  0.1224
90786W        W33777  10.998  20.949   9.686  0.0354  0.0820 -0.1484
90787W        W33778  22.985   7.087  18.444 -0.2542 -0.0245 -0.2246
90788W        W33779  11.849  13.432   2.960  0.1537 -0.0886  0.2471
90789W        W33780  13.298  24.630  27.170 -0.1783 -0.2784  0.0353
90790W        W33781  21.390  16.224   4.835  0.3794 -0.0988  0.0030
90791W        W33782  26.617  12.331  26.306 -0.0037  0.2949  0.3248
90792W        W33783  24.607  23.139   6.841 -0.0566  0.2328  0.2542
90793W        W33784  27.999  25.836  21.094 -0.0960 -0.0716  0.1058
90794W        W33785   3.371   4.878   1.971 -0.0213  0.2136  0.0798
90795W        W33786  14.418   9.738  18.531 -0.1641  0.1058  0.1140
90796W        W33787  11.765  23.866   8.511 -0.3139  0.0414 -0.0492
90797W        W33788  16.247  29.896  27.902  0.2069  0.0880 -0.0459
90798W        W33789  16.708  13.420   5.979  0.0705  0.0534 -0.0090
90799W        W33790  15.517  16.542  19.667  0.1247  0.0117 -0.0069
90800W        W33791  34.154  34.489   7.484 -0.3310 -0.0253 -0.1493
90801W        W33792  23.964  33.219   1.009  0.3292 -0.0678 -0.2605
90802W        W33793  20.338  22.062   5.215  0.0559  0.3608  0.3335
90803W        W33794  23.790  10.609  24.109 -0.2291  0.0542  0.0303
90804W        W33795   6.330  32.577   6.890  0.2746  0.0675  0.0443
90805W        W33796   0.897   1.969  19.018 -0.1449 -0.1899 -0.0365
90806W        W33797  25.982  23.161  17.788 -0.0989  0.4302  0.1887
90807W        W33798  30.502   6.781  29.028  0.2914  0.1076  0.1159
90808W        W33799  18.134   5.578  21.127  0.0525 -0.2066  0.0347
90809W        W33800  13.041  12.163   0.526  0.2190 -0.0018 -0.1315
90810W        W33801  16.184  14.220   3.623  0.3396  0.0580 -0.1665
90811W        W33802   4.570  11.470  18.614  0.1971  0.0730 -0.1866
90812W        W33803  21.637  11.310   6.133  0.2295  0.2175 -0.0315
90813W        W33804   1.491  21.611  26.175 -0.1376  0.0291 -0.2272
90814W        W33805  10.846  17.760   8.081 -0.2919  0.0548 -0.0139
90815W        W33806  21.803  18.439   7.853  0.1170  0.0148  0.0877
90816W        W33807  30.188  25.018   2.631  0.1193  0.2550  0.1343
90817W        W33808  15.540  30.115  25.198 -0.2828 -0.1228  0.1198
90818W        W33809  18.124   4.428   4.678 -0.1593 -0.0365 -0.0226
90819W        W33810   1.613  28.992  24.113 -0.0646  0.0917  0.1755
90820W        W33811  24.258  11.190  21.748  0.0546  0.2860  0.0268
90821W        W33812   4.408   2.272   1.128 -0.3474 -0.1621 -0.2068
90822W        W33813  19.217  20.390   3.074  0.2368 -0.0698 -0.2078
90823W        W33814  32.644  25.381   2.861 -0.2253 -0.1363 -0.0049
90824W        W33815  14.650  10.861   7.021 -0.0650 -0.2565  0.1134
90825W        W33816  23.172  18.438  24.972 -0.2163 -0.1184  0.0029
90826W        W33817  11.230  33.020   3.195 -0.0556  0.2813 -0.0458
90827W        W33818   7.608  21.413  22.652  0.0156 -0.3232 -0.1051
90828W        W33819  25.364  17.078   5.083  0.1132  0.1530 -0.1200
90829W        W33820  24.160  18.589   9.910 -0.0643  0.1191  0.0882
90830W        W33821  11.525   6.402  10.453 -0.3507  0.2051 -0.0752
90831W        W33822  14.198  24.527   4.610 -0.3808 -0.2758  0.0280
90832W        W33823  25.700  12.845  27.832 -0.0929  0.1522  0.1169
90833W        W33824  25.916  17.877   5.740 -0.0658  0.1610  0.1489
90834W        W33825  22.100  15.604  28.060  0.0658 -0.1484  0.0750
90835W        W33826  18.058  29.136  28.379  0.0517 -0.0104 -0.1557
90836W        W33827  26.843  30.516   7.811 -0.0967  0.1189 -0.3393
90837W        W33828  14.249  29.835   4.092 -0.0798 -0.2136 -0.0181
90838W        W33829  17.730  11.955   2.215 -0.1506 -0.1783  0.2641
90839W        W33830  25.299   1.655  17.907 -0.2682  0.2020 -0.2572
90840W        W33831   6.083  31.819   0.933 -0.0811  0.4143  0.1241
90841W        W33832   2.645  25.542  27.092  0.0485  0.1581 -0.1418
90842W        W33833  34.006  24.159  24.790  0.0755 -0.3587  0.2392
90843W        W33834  27.853   7.962   8.278 -0.1855  0.1230 -0.0347
90844W        W33835  18.673  23.064   9.460  0.4444 -0.0397  0.3616
90845W        W33836  21.141  16.033  17.037  0.0323  0.0232  0.0355
90846W        W33837   2.596  10.561   4.680 -0.0901  0.0627  0.1897
90847W        W33838  20.769   8.885  25.502 -0.4446  0.1353 -0.0281
90848W        W33839  21.728  31.165   1.185 -0.1331 -0.1807  0.0133
90849W        W33840  28.943   3.737   1.398 -0.1137  0.0236 -0.3575
90850W        W33841  15.417  24.940   4.687 -0.1505  0.2088  0.0533
90851W        W33842  23.579  10.867  25.200 -0.1769 -0.0464 -0.0907
90852W        W33843  18.000  13.815  17.132 -0.2046 -0.1035  0.0948
90853W        W33844  23.960   7.832   5.473 -0.3209  0.0682 -0.1011
90854W        W33845  24.887  30.019   1.358  0.1219 -0.0283 -0.0885
90855W        W33846  12.947  21.272  20.306 -0.1240  0.0182 -0.4728
90856W        W33847  28.672   5.489   3.247 -0.1881  0.0260 -0.0436
90857W        W33848   4.614   7.754   5.394  0.3030  0.1399  0.1733
90858W        W33849  18.396   9.224   7.422  0.0442  0.0936  0.2309
90859W        W33850   5.465  25.138  16.162  0.3605  0.1313 -0.3129
90860W        W33851  12.653  19.960  18.493 -0.1080  0.2222  0.2915
90861W        W33852  19.335  24.284  17.309 -0.0809 -0.0732  0.3896
90862W        W33853  19.926  20.800  28.583  0.0791 -0.3585  0.1060
90863W        W33854   1.525   9.563  20.760  0.0718 -0.1636  0.0599
90864W        W33855  11.323   9.539   6.762  0.4921 -0.2157  0.2080
90865W        W33856  14.046  18.962   1.801  0.0021  0.1621 -0.0790
90866W        W33857  20.945  21.489   8.220  0.1287 -0.1011 -0.0207
90867W        W33858  32.896  24.105  28.334  0.1605 -0.1799  0.0720
90868W        W33859  10.542   5.226  28.696  0.0987  0.3313 -0.1259
90869W        W33860  10.564  24.234   7.577 -0.1075  0.0383 -0.1301
90870W        W33861  33.900  12.406  26.080  0.0383  0.2024 -0.0170
90871W        W33862   3.023  20.767   3.588 -0.1122 -0.0924 -0.1182
90872W        W33863   5.006  15.266   1.112  0.1576  0.1623  0.1353
90873W        W33864  20.332   6.848  23.767  0.0131 -0.2857  0.0296
90874W        W33865  29.589  13.758   9.004  0.3826 -0.4512  0.0491
90875W        W33866  15.967   3.139   2.468  0.2401 -0.1274 -0.2607
90876W        W33867  15.577  26.782   5.842 -0.1666  0.2787  0.0429
90877W        W33868   1.306   3.857  10.535 -0.2078 -0.4051  0.0148
90878W        W33869  28.336  18.748   2.505  0.1188  0.1341  0.1054
90879W        W33870   4.668   0.363   8.028 -0.0774  0.3383 -0.0009
90880W        W33871  31.678  29.853  28.996 -0.0879  0.0404 -0.1967
90881W        W33872  16.109   5.990   6.642 -0.2917  0.2562 -0.0459
90882W        W33873  12.671  19.851  26.284  0.3705  0.1800  0.1147
90883W        W33874  33.357   9.673   4.767  0.5755 -0.1254  0.1019
90884W        W33875  32.018  26.817  23.365 -0.0291  0.4012  0.0829
90885W        W33876  10.533  22.872   6.527  0.0040 -0.2151  0.1055
90886W        W33877  25.291  31.052   7.220  0.1560  0.2331  0.0961
90887W        W33878  11.359  23.954   8.244  0.0234  0.0668  0.3556
90888W        W33879  17.551  18.681   5.534  0.0727  0.0169 -0.0272
90889W        W33880  25.272  20.892  27.797  0.1374 -0.0245 -0.1682
90890W        W33881  22.782   8.181   1.801 -0.4883  0.2661 -0.1341
90891W        W33882  11.682  28.124  26.455 -0.2228  0.1540  0.4595
90892W        W33883  15.861  20.474  14.818  0.0097  0.0897 -0.0137
90893W        W33884  32.238  21.486  22.542  0.0687  0.0959 -0.0729
90894W        W33885  14.297   0.154   1.636 -0.0008 -0.0625  0.3960
90895W        W33886  18.374   8.324   7.710 -0.3179  0.2332  0.1406
90896W        W33887  21.681  33.568   7.785  0.0530 -0.0407  0.1457
90897W        W33888  13.089  22.180  25.425  0.1464 -0.1954 -0.1374
90898W        W33889  31.368  30.198   9.464 -0.0664  0.1326  0.2309
90899W        W33890  17.184  16.582   5.342 -0.2943  0.0340 -0.4275
90900W        W33891   7.924  25.642  18.045  0.2278  0.0799 -0.0429
90901W        W33892  10.850   0.094   6.295  0.0844 -0.1322 -0.2040
90902W        W33893  13.885  30.836   7.383 -0.0412 -0.0384  0.2180
90903W        W33894  17.168   9.180  28.035 -0.0386  0.2598  0.0700
90904W        W33895   4.069  19.626   5.559  0.3201  0.1585  0.1376
90905W        W33896  26.478  21.746  23.212 -0.0007 -0.1143 -0.1731
90906W        W33897  21.238   5.043  27.292  0.3113 -0.1383  0.0625
90907W        W33898  23.778  31.562  21.921 -0.0039 -0.1445 -0.1912
90908W        W33899  31.854   6.562   6.389  0.2114 -0.0672  0.1097
90909W        W33900  32.313   9.784   4.476  0.3720  0.0408 -0.2309
90910W        W33901  22.088  12.718  24.211 -0.4135 -0.2627  0.1660
90911W        W33902  30.278  22.889  26.126  0.2556  0.2844  0.0237
90912W        W33903  30.116   8.299  26.684  0.1500 -0.1029  0.2981
90913W        W33904  30.647  21.564  23.166 -0.2459  0.0203  0.0307
90914W        W33905  19.988  15.756   9.422 -0.2164 -0.0979  0.0525
90915W        W33906  34.246  24.265   5.236  0.1842 -0.0764 -0.0652
90916W        W33907   5.308  15.080   9.174 -0.2458  0.0795  0.1698
90917W        W33908  32.232  12.551  24.276  0.2119 -0.0692  0.0625
90918W        W33909  27.326  23.939   8.641 -0.0002  0.1529  0.1421
90919W        W33910   7.452  13.787  27.804  0.2602  0.0041 -0.0824
90920W        W33911  33.232   7.679   1.597 -0.3157 -0.0616 -0.2759
90921W        W33912  29.630  18.855  18.456  0.1331  0.1080  0.0239
90922W        W33913  32.337   9.212   0.180  0.0234 -0.0940  0.3631
90923W        W33914  19.868  19.033  26.519  0.1689  0.3076 -0.2509
90924W        W33915  30.383  20.278  25.820 -0.0581 -0.0513  0.0824
90925W        W33916  16.352  33.776  28.142  0.1254  0.0300  0.2103
90926W        W33917  28.115  14.369  22.604 -0.2690 -0.1657  0.0514
90927W        W33918  32.254  33.476  20.956 -0.0494  0.0072  0.1085
90928W        W33919  16.332  34.003  23.403 -0.0061 -0.1253  0.0756
90929W        W33920  30.911  28.378  16.749 -0.3007  0.2619 -0.2759
90930W        W33921  10.926   8.085   2.084 -0.1776  0.4667  0.1770
90931W        W33922   2.856  24.114   0.641 -0.0519 -0.2995  0.3055
90932W        W33923  18.164  33.794  14.537 -0.0166  0.0748 -0.0404
90933W        W33924  30.607  14.105  18.331  0.4401 -0.0372 -0.0408
90934W        W33925  14.131  29.340  23.318 -0.0099  0.1721 -0.0807
90935W        W33926  22.536  33.584  12.838 -0.0246  0.1215 -0.2267
90936W        W33927  15.140  34.524  18.287 -0.1620 -0.0653 -0.0051
90937W        W33928  26.554   6.377  20.967 -0.0247 -0.0124 -0.0922
90938W        W33929  11.358  16.472  15.385  0.2333  0.4938 -0.1484
90939W        W33930  19.711  11.647  24.929 -0.1967 -0.2488 -0.1969
90940W        W33931  25.573  12.614  14.619 -0.0261  0.0780 -0.0492
90941W        W33932  15.427  25.112  22.095  0.2071 -0.1321  0.1958
90942W        W33933  24.963  33.365  19.766 -0.0241 -0.0940  0.0525
90943W        W33934  28.459   8.735  16.955 -0.2333  0.1637 -0.3029
90944W        W33935  14.316   3.688  19.443  0.1244  0.1968  0.0311
90945W        W33936  19.058  24.007  14.348 -0.1056  0.1567  0.0673
90946W        W33937   3.995  21.548  15.682 -0.0147  0.2756  0.0585
90947W        W33938   2.609  28.239  24.959  0.0797  0.3175 -0.1645
90948W        W33939  16.466  22.107   2.255 -0.1275 -0.2705  0.0634
90949W        W33940  29.961  13.218  17.720  0.1019  0.2038  0.3445
90950W        W33941  21.290  27.459  14.408  0.0140  0.1014  0.2032
90951W        W33942  32.975  24.820   1.852 -0.0994  0.2562  0.1189
90952W        W33943   7.157  29.801  15.193 -0.1782  0.0814  0.1127
90953W        W33944  18.320  15.512  29.179 -0.0192  0.1834  0.0221
90954W        W33945  25.246  16.729  22.884  0.0512 -0.0944 -0.0782
90955W        W33946  21.807  19.666  25.571  0.1080  0.0587 -0.2574
90956W        W33947  15.484   1.068  25.403  0.3004  0.1808 -0.2279
90957W        W33948  25.639  31.365  22.598  0.1435 -0.0358  0.1768
90958W        W33949  20.683   0.727  16.138 -0.1579  0.2295 -0.0291
90959W        W33950  16.078  12.532  14.373  0.2141  0.2929  0.1241
90960W        W33951   7.218  14.050  22.039 -0.0665  0.0819  0.2385
90961W        W33952   3.553  23.264  25.521  0.0107  0.1709 -0.1279
90962W        W33953  28.868   0.213  19.495  0.1074 -0.0682  0.3195
90963W        W33954  16.005  20.338  27.110 -0.0650  0.1837 -0.0729
90964W        W33955  17.054  27.481  16.767  0.0936  0.0343 -0.3181
90965W        W33956  34.539  19.965   5.679  0.1021  0.3379 -0.1677
90966W        W33957  34.483  24.058  19.132  0.1909 -0.0866  0.2197
90967W        W33958  11.727  17.518  27.508 -0.0527  0.1217  0.2885
90968W        W33959  16.029  33.009  24.705 -0.1724  0.0367  0.0758
90969W        W33960  20.744   4.104  18.339 -0.0524 -0.1209  0.1268
90970W        W33961   5.790  32.669  17.910 -0.2585  0.1454 -0.5718
90971W        W33962  10.252  27.489  17.738 -0.0914 -0.3394 -0.0473
90972W        W33963  22.886   2.323  16.684 -0.2221  0.1232  0.0949
90973W        W33964   8.520  14.661  16.150  0.0249 -0.0913  0.2017
90974W        W33965  10.014  18.456  14.602  0.2968  0.0632  0.1508
90975W        W33966  13.178  15.284  27.998 -0.0258  0.2324  0.1445
90976W        W33967  20.347  29.278  13.989 -0.1623 -0.1131  0.0089
90977W        W33968  33.318   8.777   6.598  0.0306 -0.3570  0.2282
90978W        W33969  19.677  32.547  13.272  0.0077 -0.3226 -0.2021
90979W        W33970  20.776   0.598  25.332  0.0185  0.0425 -0.0838
90980W        W33971  12.089  30.460  15.211  0.1112  0.2506  0.1249
90981W        W33972  23.476  11.714  14.561  0.0765  0.0364  0.2817
90982W        W33973  19.781  27.558  18.320 -0.0161  0.1026 -0.2613
90983W        W33974  34.235  18.644  22.468 -0.2433 -0.1135 -0.0269
90984W        W33975  13.797  31.783  28.846  0.0815  0.1156 -0.1376
90985W        W33976   8.976  15.376  22.652  0.1086 -0.0814  0.0131
90986W        W33977  18.492  22.238  15.894  0.0444 -0.1803 -0.2986
90987W        W33978  11.195  16.314  17.343 -0.1550  0.2136  0.1002
90988W        W33979  15.791  12.543  27.686  0.2692  0.2497 -0.1060
90989W        W33980   0.706  14.408  18.227 -0.2747  0.1294  0.0764
90990W        W33981  33.741  22.877  14.568  0.0141 -0.2587  0.0546
90991W        W33982   1.772  27.927   1.045  0.2559 -0.1469 -0.1756
90992W        W33983   6.371  31.570   1.247 -0.0114  0.0325 -0.1364
90993W        W33984  16.698  31.329  25.331 -0.1597  0.3591 -0.2066
90994W        W33985  25.326  22.325  18.687 -0.0589  0.1918 -0.0681
90995W        W33986  31.705   3.351  21.785  0.1035 -0.0997 -0.1903
90996W        W33987  33.973  16.044  19.114 -0.1625  0.1982  0.1218
90997W        W33988  12.952   9.528  22.528  0.0996  0.0280 -0.1293
90998W        W33989  32.058  20.860  17.155  0.0868 -0.1602  0.1049
90999W        W33990  25.849  13.410   1.676  0.1151  0.0693 -0.3894
91000W        W33991  10.539  21.084  17.355  0.0255  0.1064 -0.0345
91001W        W33992  11.705  29.566  28.036  0.2504 -0.0259  0.0236
91002W        W33993  22.133  23.872  17.344  0.2619 -0.2451 -0.1496
91003W        W33994  21.374  34.309  17.464 -0.1106 -0.1553 -0.3015
91004W        W33995  32.543  29.447  15.205 -0.0094 -0.0762 -0.2923
91005W        W33996  27.424  15.132  28.801  0.2525  0.2241  0.0219
91006W        W33997  23.447  24.486  18.422  0.1821 -0.2576 -0.0298
91007W        W33998  14.905  31.091  16.613 -0.5297 -0.0073 -0.1966
91008W        W33999  26.431  23.087  19.780  0.0583  0.0005 -0.0366
91009W        W34000  19.304   6.040  15.560 -0.0731 -0.1433  0.0840
91010W        W34001  16.448   4.675  20.772  0.1033  0.1591  0.1018
91011W        W34002  18.712  34.733  15.549 -0.0930  0.2243  0.2232
91012W        W34003  13.937  13.347  17.041  0.1772 -0.3368  0.0556
91013W        W34004   1.717  27.220  22.388  0.2785 -0.0514 -0.0429
91014W        W34005  19.201  25.261  14.077 -0.0462  0.0020  0.1996
91015W        W34006  21.239  24.662  19.242  0.3587  0.1750 -0.2218
91016W        W34007   9.103   8.530  18.650 -0.1533  0.3168  0.1168
91017W        W34008  23.688  20.335  26.221 -0.3344  0.2675 -0.0698
91018W        W34009  16.717  19.252  13.287  0.0431 -0.1790 -0.0218
91019W        W34010  23.284  18.380  15.923  0.1755  0.1037  0.3509
91020W        W34011  16.898  22.017   0.522 -0.1217 -0.1072 -0.1589
91021W        W34012  34.253   6.413  19.438  0.3382 -0.5040  0.0452
91022W        W34013  10.530  27.231  18.655 -0.1960  0.3993  0.2126
91023W        W34014   6.330  11.007   5.656 -0.0995 -0.0837  0.0377
91024W        W34015  18.925   8.217  22.100  0.1418 -0.1623  0.0390
91025W        W34016   3.927  29.920  23.278  0.0296 -0.0990  0.2714
91026W        W34017  21.478  34.500  26.091  0.3246 -0.1157 -0.4677
91027W        W34018  26.227  15.903   7.897 -0.3445  0.3585 -0.0315
91028W        W34019   3.116   3.308  24.060  0.1249  0.0590  0.1845
91029W        W34020  12.424  15.883  20.398  0.0046  0.1633  0.2766
91030W        W34021  14.077  18.340  13.384  0.0779  0.1048  0.5260
91031W        W34022  24.127  33.480  16.011 -0.2306 -0.0146  0.2084
91032W        W34023  13.407  33.193  24.927  0.2028 -0.0523  0.0930
91033W        W34024  14.885   6.509  20.862  0.0664  0.0146 -0.1765
91034W        W34025  28.166  22.478  13.545 -0.4235 -0.1300  0.2415
91035W        W34026  31.194  15.864   3.479 -0.2896  0.2769 -0.2019
91036W        W34027  31.388  19.344  28.458 -0.0305 -0.1138 -0.0949
91037W        W34028   5.663   8.176  17.899 -0.0309 -0.3882 -0.0290
91038W        W34029  11.071   1.113  24.042 -0.0334  0.0159  0.1234
91039W        W34030  21.531  29.480  16.626  0.3327  0.2859  0.1757
91040W        W34031  22.689  19.902  16.560 -0.0681 -0.1854  0.1269
91041W        W34032  18.855  27.222  20.694  0.1631  0.0583 -0.0473
91042W        W34033  29.127   8.465   0.974 -0.2830 -0.0710  0.0842
91043W        W34034  24.794  25.044  15.762  0.0340 -0.0228  0.1819
91044W        W34035  28.969  33.882  18.839 -0.1800  0.2974 -0.2050
91045W        W34036  22.270  11.875  12.826 -0.0224 -0.0431 -0.1375
91046W        W34037  21.257  12.821   1.874  0.2629 -0.1032 -0.2227
91047W        W34038  15.881   0.281  22.939  0.1315 -0.1307  0.1695
91048W        W34039   1.842   1.762  25.236 -0.0172  0.0323  0.2050
91049W        W34040   5.137   1.557  25.874 -0.0344  0.3291  0.2853
91050W        W34041  28.117   7.141  20.414 -0.2757  0.0710  0.1291
91051W        W34042   4.810  21.572  18.227  0.1261 -0.0593  0.1384
91052W        W34043  16.645  28.520  26.860 -0.0141 -0.0678 -0.3247
91053W        W34044  16.083  32.828  21.019  0.3723  0.1998  0.0645
91054W        W34045  19.384  27.026  15.969  0.1603  0.1303  0.1516
91055W        W34046  17.679  30.484   3.851  0.2781  0.3272  0.1825
91056W        W34047  22.020  17.623  26.194  0.2617 -0.1398 -0.1058
91057W        W34048   1.472  10.510  19.117  0.0307  0.0371  0.1763
91058W        W34049   0.129  33.340  17.338 -0.1403  0.4461 -0.0793
91059W        W34050  22.846  10.123  18.001  0.0986  0.2630  0.1040
91060W        W34051  13.189  24.146   0.500 -0.0691  0.0860 -0.0852
91061W        W34052  13.600  31.054  14.636  0.0585 -0.0292  0.0263
91062W        W34053  15.976  16.883  12.357 -0.0347  0.0572  0.3828
91063W        W34054  30.761  13.294  15.746  0.0415 -0.3947  0.0936
91064W        W34055  30.300  10.913  25.100  0.2049 -0.3427  0.0545
91065W        W34056  15.667  12.926  14.370 -0.1989  0.1630 -0.2610
91066W        W34057  15.541  18.297  13.055 -0.0023  0.1890  0.0646
91067W        W34058  27.920  29.105  13.781 -0.1369  0.1247  0.1042
91068W        W34059   2.875  10.637  17.479 -0.0984  0.0289  0.0994
91069W        W34060  28.837  29.189  24.086 -0.1702 -0.1949  0.1157
91070W        W34061  17.692  20.980  15.074  0.0185  0.0224  0.0264
91071W        W34062  12.139  32.602  18.436  0.0896  0.3631  0.2894
91072W        W34063  13.885  16.428  16.871  0.1094  0.0633 -0.0871
91073W        W34064  22.773  24.424  22.923 -0.0518 -0.0015  0.0883
91074W        W34065  13.123  25.498  14.116  0.3650  0.0324 -0.1685
91075W        W34066  32.565  10.502  18.640 -0.0631  0.1518 -0.3841
91076W        W34067  15.991  19.855  13.094  0.2204 -0.0291  0.0170
91077W        W34068  25.057  33.451   0.441  0.1299  0.2336  0.1462
91078W        W34069  33.491  14.950  17.128  0.1969 -0.1455  0.1095
91079W        W34070  26.387  20.648  18.357  0.2870 -0.1371 -0.0433
91080W        W34071  25.009  31.292  22.769  0.0826 -0.0626  0.3910
91081W        W34072  11.450   3.893   1.568 -0.2852 -0.2750 -0.0085
91082W        W34073  12.219  22.308  22.412  0.2868  0.2167 -0.2847
91083W        W34074   1.891  30.104  17.348 -0.0969  0.2327 -0.0714
91084W        W34075  32.693   2.703  26.082  0.0322  0.0033 -0.0804
91085W        W34076  20.022   8.551  25.026 -0.0502 -0.0124 -0.3019
91086W        W34077  30.069  16.909  17.058  0.1555  0.0993  0.1706
91087W        W34078  20.997  25.273  20.011  0.0725  0.5545  0.0909
91088W        W34079  16.366  16.877   1.434 -0.1578 -0.0378  0.1171
91089W        W34080  10.947  21.037  20.034 -0.2863  0.1123 -0.1359
91090W        W34081  11.193  11.737  27.786  0.2700 -0.0370 -0.0003
91091W        W34082  12.352  11.976  20.059 -0.1179  0.1333  0.0465
91092W        W34083  14.884  19.634  16.183  0.0968 -0.0747 -0.0801
91093W        W34084  29.920  27.647  19.303  0.1231 -0.0715  0.2140
91094W        W34085  33.039  12.529   3.361 -0.3457 -0.1121  0.0110
91095W        W34086  17.699  29.989  19.665  0.0838 -0.3164 -0.2678
91096W        W34087  15.777  29.436  20.189  0.0614 -0.1467  0.2912
91097W        W34088  30.932  22.001   2.858 -0.3208  0.0718  0.2422
91098W        W34089   3.736  23.810   1.594 -0.0320  0.3418 -0.0040
91099W        W34090  23.678  18.730  25.649 -0.2701 -0.0482  0.0184
91100W        W34091  13.503   2.419   4.759  0.0507  0.2155 -0.0632
91101W        W34092  11.329  23.714  19.433  0.3576 -0.1123  0.0009
91102W        W34093   9.053  16.433  24.403 -0.3556 -0.0229 -0.1819
91103W        W34094   3.142  17.416  22.069  0.0674 -0.2074  0.2820
91104W        W34095   4.747  25.244  17.833 -0.0602 -0.0928  0.3233
91105W        W34096  12.025  17.576  20.142 -0.1453 -0.0636 -0.0708
91106W        W34097  25.229  21.734  16.631 -0.0639  0.2984 -0.0021
91107W        W34098  16.222   5.107  28.783 -0.2930 -0.0896 -0.0077
91108W        W34099   8.893  29.441  15.504 -0.1848 -0.0541  0.3390
91109W        W34100  24.376  25.067  20.385  0.0588  0.3468  0.0997
91110W        W34101  14.109  11.613   1.550 -0.0137  0.0991 -0.0052
91111W        W34102   2.519  15.054  23.331  0.0393 -0.2254  0.0540
91112W        W34103  30.342  25.231  16.219  0.0069 -0.1953  0.3246
91113W        W34104   2.586  22.227  14.662  0.1831 -0.0982  0.1345
91114W        W34105  20.851  32.576  12.899  0.1333 -0.1113  0.2026
91115W        W34106   3.485  18.023  23.974  0.2868 -0.2969 -0.4186
91116W        W34107  27.334  30.503  21.342 -0.1918 -0.1792 -0.3372
91117W        W34108  18.211  11.664  19.746  0.0100 -0.3051 -0.2216
91118W        W34109  34.039  25.535  20.099 -0.0235 -0.2657  0.1003
91119W        W34110   8.744  20.761  17.985 -0.0475 -0.1045  0.0006
91120W        W34111  26.820  34.772  13.530  0.1339 -0.2429  0.3453
91121W        W34112  28.842   7.555  28.455 -0.3258  0.1345  0.0394
91122W        W34113  22.396  31.814  17.311 -0.1147  0.1267 -0.1991
91123W        W34114  31.113   6.266   7.689  0.1255 -0.1852 -0.0759
91124W        W34115  21.647  19.275  15.280  0.0068 -0.0413 -0.0664
91125W        W34116  16.769  11.601  21.927  0.3630  0.3505 -0.0631
91126W        W34117  12.831  24.342  19.566  0.1232  0.1023 -0.1602
91127W        W34118  21.985  28.182  14.069  0.0864 -0.2218  0.1059
91128W        W34119  15.962  18.830  14.186  0.2149 -0.1973 -0.2066
91129W        W34120   5.356  22.961  26.412 -0.3951 -0.2822  0.0460
91130W        W34121  13.185  20.022  13.547  0.1277 -0.1280  0.0403
91131W        W34122  18.833  33.049  16.769 -0.1912  0.0639  0.0458
91132W        W34123  28.929   5.716  25.408  0.4330  0.1419 -0.1452
91133W        W34124  22.562  16.195  20.315  0.0341 -0.1836  0.1214
91134W        W34125  12.423  15.336   1.912  0.1325  0.2675  0.0166
91135W        W34126  27.302  19.316  15.857 -0.1408 -0.1660 -0.0818
91136W        W34127   6.903  32.128  16.165 -0.2228 -0.0013  0.2433
91137W        W34128  17.044  28.788  16.809 -0.2043  0.3044  0.0548
91138W        W34129  10.279  20.528  15.897 -0.2947 -0.1254  0.0729
91139W        W34130  29.721  19.423  25.750 -0.1637 -0.0362  0.1520
91140W        W34131  21.467  16.993  18.535 -0.1763  0.1681 -0.1603
91141W        W34132  21.883  14.498  13.221  0.4154  0.0770  0.1534
91142W        W34133  24.377   1.486  20.947 -0.2310 -0.0967  0.1648
91143W        W34134   5.444  19.783  20.528  0.2442 -0.2386 -0.1106
91144W        W34135   2.615  21.431  17.625 -0.0340 -0.0446 -0.1282
91145W        W34136   2.326  17.739   1.261  0.1331 -0.0120 -0.0908
91146W        W34137  24.519  28.795   2.997  0.0824 -0.1722 -0.6126
91147W        W34138  16.192  29.413  16.311 -0.1435  0.1821 -0.1000
91148W        W34139  16.255  14.926  25.962  0.1087 -0.1156 -0.2342
91149W        W34140  22.399   1.546  16.417  0.0726 -0.3134  0.3255
91150W        W34141  25.683  25.720  17.699  0.0111  0.2615  0.0396
91151W        W34142  15.715  26.564  17.011  0.0282 -0.0053  0.1944
91152W        W34143   3.121  25.150  21.552 -0.2863 -0.1475  0.1214
91153W        W34144  17.733  22.283  15.325 -0.0384  0.2769  0.0085
91154W        W34145  17.438  20.394   2.790 -0.1473  0.1476  0.3011
91155W        W34146  26.785  29.497  21.906 -0.1776 -0.2407 -0.0822
91156W        W34147  33.799  29.377  13.921  0.1978  0.1538  0.0308
91157W        W34148  32.746  23.289  21.156  0.2024  0.3912 -0.0263
91158W        W34149  23.111  13.069  17.246 -0.1569 -0.2173  0.1262
91159W        W34150  25.779  30.273  19.751 -0.0548 -0.1545  0.2211
91160W        W34151  21.529  31.668  19.594 -0.0752  0.0446 -0.0385
91161W        W34152  22.883  32.541  14.213 -0.1292 -0.1139 -0.2131
91162W        W34153  33.267  21.815  26.449 -0.1748  0.2386  0.2914
91163W        W34154  15.378   8.604  28.399 -0.2947 -0.0542  0.2619
91164W        W34155   8.496   3.459  16.442  0.0311  0.0855 -0.2329
91165W        W34156  16.610  13.640  13.751 -0.2464 -0.1087 -0.3021
91166W        W34157  32.893  24.825  13.630  0.0075 -0.2601 -0.3589
91167W        W34158  29.619  15.245  15.595 -0.0704 -0.0386  0.0411
91168W        W34159  16.419  29.549  16.764  0.0084  0.1301 -0.1020
91169W        W34160  19.986  10.490  15.795  0.0304  0.1106  0.0230
91170W        W34161  27.981  20.711  17.245  0.0209  0.0155  0.1623
91171W        W34162   8.643   1.406  21.621  0.2200 -0.2855 -0.3560
91172W        W34163  30.073  16.863  18.665 -0.2026  0.0300 -0.0540
91173W        W34164  24.800  13.444  27.324 -0.1065 -0.0671 -0.1841
91174W        W34165  12.878  29.159   0.524 -0.0019 -0.0469 -0.3654
91175W        W34166  13.397   2.179  18.032  0.2782  0.1196  0.0753
91176W        W34167   8.993   3.785  22.382  0.4434 -0.1465  0.2135
91177W        W34168  30.226  27.325  15.651 -0.3455  0.0063 -0.2468
91178W        W34169  32.363  23.409  24.947  0.1503 -0.0703  0.3166
91179W        W34170  29.649  15.879  14.952 -0.0972 -0.3359 -0.0076
91180W        W34171  21.013   0.192  18.786 -0.3841  0.1417  0.0166
91181W        W34172  20.925   7.039  16.565  0.1644  0.0250  0.0235
91182W        W34173  22.030  16.785  20.421  0.1015  0.1792 -0.1885
91183W        W34174   2.601  26.712  16.052 -0.0763  0.0910 -0.2164
91184W        W34175  10.625  34.165  17.644 -0.0266 -0.0970 -0.3148
91185W        W34176  24.057  26.729  20.186  0.1054  0.3591 -0.2725
91186W        W34177   8.576  24.350  16.090  0.1694 -0.0576 -0.0441
91187W        W34178  27.393  17.967  17.609  0.0559 -0.1608 -0.1128
91188W        W34179   8.306  25.833  29.138  0.2215  0.1435  0.0476
91189W        W34180  20.828  29.063  13.835  0.1025 -0.0406  0.3180
91190W        W34181   2.242  27.760  28.245 -0.6116 -0.3973  0.0834
91191W        W34182  25.179  32.632  14.182 -0.0695 -0.2137  0.2906
91192W        W34183   7.337  19.433  20.684 -0.0202  0.0976  0.0264
91193W        W34184  28.175   3.188  24.960 -0.1790 -0.0618  0.1302
91194W        W34185   5.074  11.696  20.194  0.2589  0.0195  0.3538
91195W        W34186  16.031  24.789  18.859 -0.1039  0.0688 -0.2542
91196W        W34187   3.588   1.807  10.754  0.2625  0.0665  0.3548
91197W        W34188  24.622  16.663  15.194 -0.3575  0.0417 -0.4159
91198W        W34189  30.780  30.345  13.347  0.0113 -0.0334 -0.0787
91199W        W34190  16.684  21.610  16.649 -0.2191  0.2106 -0.1476
91200W        W34191   4.381  27.572  15.689  0.0321  0.1471  0.3536
91201W        W34192  11.972  27.711  22.774 -0.1855 -0.0367 -0.2590
91202W        W34193  26.542  17.438  19.885 -0.2338  0.2325 -0.0021
91203W        W34194  26.533   2.477  21.453  0.4656  0.1113  0.0258
91204W        W34195   2.911  13.010  26.026 -0.2367 -0.1803  0.1477
91205W        W34196   8.883  22.794  20.098 -0.2385 -0.1010  0.2673
91206W        W34197  23.532  25.911   1.934 -0.1350  0.1986 -0.0621
91207W        W34198  29.549  25.303  22.675 -0.2841 -0.1655  0.0180
91208W        W34199  26.013   6.096  17.931  0.1831  0.1905 -0.0859
91209W        W34200  24.082  29.937  22.919  0.2294  0.0938 -0.1531
91210W        W34201  33.866  22.171  16.224  0.1110 -0.0232 -0.2673
91211W        W34202  12.887  22.654  22.672  0.1048  0.0853  0.0506
91212W        W34203  19.324   2.708  14.902  0.0577  0.1547 -0.3108
91213W        W34204  29.966  13.741  29.206 -0.1493  0.1515 -0.1138
91214W        W34205  25.370  29.544  28.491 -0.2502  0.2391  0.0161
91215W        W34206  26.462  15.430  28.454 -0.4045  0.1225  0.1488
91216W        W34207   5.543  27.506  20.610  0.1509 -0.0963  0.5092
91217W        W34208  27.259  11.631  22.675  0.0696 -0.1376  0.1656
91218W        W34209  33.202   1.215  22.263  0.0134 -0.1537  0.1380
91219W        W34210  27.300  16.236  17.819  0.0351 -0.1267  0.0612
91220W        W34211   6.025  13.173  23.362 -0.0630 -0.2936  0.2191
91221W        W34212  22.641  29.350  15.384  0.2001  0.2544  0.0749
91222W        W34213   2.092  23.168  21.506 -0.0315  0.1395 -0.0128
91223W        W34214  27.041  22.136  14.423 -0.1271 -0.1642  0.0125
91224W        W34215  17.294   0.742  24.527  0.0847 -0.1617 -0.0104
91225W        W34216  24.475  18.778  23.958 -0.1209  0.0660 -0.0763
91226W        W34217  12.639   1.637  16.779  0.2021  0.0447  0.0472
91227W        W34218  29.143  22.053  18.223 -0.3919  0.1255 -0.0979
91228W        W34219   5.526   9.076  14.978 -0.1515  0.1465 -0.0562
91229W        W34220  20.279   9.039  17.844  0.3585  0.2945 -0.3333
91230W        W34221  30.279  28.460  21.140  0.1832 -0.2703  0.0822
91231W        W34222   1.901  15.944  17.366 -0.0113  0.1674  0.0301
91232W        W34223  24.083  12.846  16.001  0.0788  0.1153  0.0554
91233W        W34224  18.105   8.882  27.913  0.0204 -0.0681 -0.1282
91234W        W34225   1.495  19.728  19.497  0.0699  0.1170  0.0150
91235W        W34226  16.738  12.399  15.777 -0.0227 -0.0882  0.0669
91236W        W34227   2.747   7.883  16.362 -0.0727  0.2660 -0.2009
91237W        W34228  10.946  25.480  18.862 -0.0763  0.3137 -0.0955
91238W        W34229  18.326  27.777  25.099  0.0388 -0.1895 -0.1212
91239W        W34230  28.413  16.671  29.188  0.0311 -0.1672  0.1328
91240W        W34231  23.666  10.638  15.253  0.1455  0.2424  0.1547
91241W        W34232  15.644  25.968  22.831 -0.0512 -0.1692  0.0088
91242W        W34233  21.196  28.182  15.363 -0.0251 -0.0053 -0.1879
91243W        W34234  34.012  21.533  16.187 -0.2413 -0.0947  0.0599
91244W        W34235  26.963  24.250  18.750 -0.0852 -0.0869  0.0086
91245W        W34236   9.723  23.848  24.551 -0.0341 -0.3240 -0.0861
91246W        W34237   0.821  29.313  19.864 -0.0760 -0.2247 -0.0217
91247W        W34238   5.339  25.617  24.612 -0.0015  0.0410 -0.1386
91248W        W34239  16.095  22.978  13.622  0.1401 -0.0167  0.1733
91249W        W34240  29.712  29.231  18.973 -0.0180 -0.1028 -0.2220
91250W        W34241   3.976  32.371  14.305 -0.1069 -0.0497 -0.0857
91251W        W34242  18.957  15.412  15.637  0.3757  0.3624 -0.0052
91252W        W34243  10.728   7.576   5.142 -0.3819  0.1129 -0.1692
91253W        W34244  26.982   4.899  24.514 -0.2725 -0.1424 -0.0407
91254W        W34245  18.056  14.683  14.855 -0.1234 -0.0489  0.1779
91255W        W34246   6.851  26.835  24.091 -0.0899  0.2523  0.2368
91256W        W34247  30.264  27.427  12.994  0.0096  0.1761  0.0374
91257W        W34248   6.505  18.665  22.392  0.1461 -0.0178  0.0604
91258W        W34249   1.992  25.101  28.205  0.1481 -0.0249  0.1914
91259W        W34250  31.033   8.126  16.584  0.0934 -0.1315  0.0801
91260W        W34251  25.841  26.099  17.361 -0.3599 -0.0297 -0.0128
91261W        W34252  10.869  25.601  28.228  0.0204  0.0398 -0.1758
91262W        W34253  31.794  13.865   1.899 -0.0850 -0.1301 -0.2396
91263W        W34254  18.597  26.811  27.406  0.0321 -0.1941  0.1499
91264W        W34255  15.956  13.299  26.687  0.0971  0.4142 -0.0475
91265W        W34256  30.325  31.635  21.577 -0.2098 -0.2482 -0.1049
91266W        W34257  13.304  15.988  21.667  0.0247  0.0344 -0.2093
91267W        W34258   6.103  19.812  21.340 -0.2247 -0.1222  0.2118
91268W        W34259  10.295  24.828  20.305 -0.1920  0.0942  0.0846
91269W        W34260  21.688  21.070   5.186 -0.1190  0.1110  0.0348
91270W        W34261   9.502  13.296   2.745  0.1060  0.3925 -0.0665
91271W        W34262  22.366  28.539  14.853  0.0403  0.0146 -0.1699
91272W        W34263  12.923  20.855  15.284  0.1775  0.2432  0.1400
91273W        W34264  28.326  20.169  22.397 -0.1288 -0.2191 -0.1132
91274W        W34265  25.838  27.826   8.516  0.1424  0.2394  0.0651
91275W        W34266  13.708  33.692  27.773  0.0800 -0.0370 -0.0923
91276W        W34267   9.315  17.823  27.953 -0.1645 -0.0096 -0.0016
91277W        W34268  18.625  26.426  15.811 -0.0306 -0.0302 -0.5285
91278W        W34269   8.476  29.826  14.830 -0.0623  0.0414 -0.1329
91279W        W34270  27.961  16.453  16.478  0.1893 -0.2011 -0.0583
91280W        W34271  12.384   0.493  16.008 -0.4627  0.2558 -0.2088
91281W        W34272  24.549  27.355  18.228 -0.0654  0.0957 -0.2080
91282W        W34273  25.361  33.538  20.820  0.1698  0.1422  0.1843
91283W        W34274  24.728  10.599  22.366  0.1034 -0.5618 -0.1429
91284W        W34275  16.629  20.541  28.488 -0.3712 -0.0521  0.1593
91285W        W34276  10.355  29.145  17.306 -0.2509  0.1006 -0.0302
91286W        W34277  31.248   7.329   5.307  0.1504 -0.1094  0.0976
91287W        W34278  13.336  13.549  24.664  0.1682  0.0594 -0.0024
91288W        W34279  23.887  16.801  15.511 -0.1894  0.1669  0.1895
91289W        W34280   2.681  34.694  24.634  0.1595  0.1072 -0.3483
91290W        W34281   3.222  28.869  14.479  0.3263  0.0489  0.2027
91291W        W34282  25.931  11.126  16.130 -0.0085  0.3235  0.1758
91292W        W34283  20.655  29.073  23.784 -0.1489  0.0075  0.1750
91293W        W34284  20.965   9.131  15.245  0.0867 -0.0392 -0.1158
91294W        W34285  27.883  33.574  24.222  0.0831 -0.1197 -0.3404
91295W        W34286  15.075  28.237  16.694 -0.0925 -0.1370  0.3959
91296W        W34287  25.719  33.018  16.019 -0.1249  0.1127 -0.1847
91297W        W34288  22.076  10.925  23.862 -0.0724  0.2885 -0.3916
91298W        W34289  33.459  29.989  24.689  0.0874 -0.1173 -0.0978
91299W        W34290  20.115   8.562   3.168 -0.0481 -0.1209 -0.0740
91300W        W34291  26.720  23.542  19.193 -0.3267  0.1826  0.1792
91301W        W34292  13.807  26.630   4.645 -0.0408 -0.0540 -0.1504
91302W        W34293  26.003  29.131  23.710  0.0806 -0.4022 -0.2228
91303W        W34294  14.023  11.214  16.655 -0.2522 -0.0937  0.0216
91304W        W34295  30.746  21.416  24.134 -0.2325  0.0576  0.2414
91305W        W34296  19.077   9.692  16.033 -0.2571  0.0023 -0.0063
91306W        W34297   3.558  27.992  27.001 -0.2378  0.0969  0.0027
91307W        W34298  18.705  22.905  19.049  0.1147 -0.3363 -0.0152
91308W        W34299  19.782  31.868  18.834 -0.1016 -0.1612  0.0971
91309W        W34300  13.204  33.250  25.646  0.2037 -0.1373 -0.0016
91310W        W34301  15.994  27.153  14.712  0.0829  0.3912 -0.2224
91311W        W34302  30.377  26.335  14.661  0.1260 -0.1497  0.0701
91312W        W34303  22.631   6.054  13.976  0.2176 -0.2085  0.1630
91313W        W34304  27.700  18.085  18.082 -0.1807  0.0813  0.1833
91314W        W34305   2.200  31.493  27.428 -0.2452 -0.1243  0.1078
91315W        W34306   7.703  15.344  22.006  0.0102 -0.0707  0.2077
91316W        W34307   0.966  14.661  24.417  0.1207 -0.1049  0.1645
91317W        W34308  29.016  21.995  29.014  0.2030  0.0962  0.0295
91318W        W34309   9.982  20.467  20.266  0.0616 -0.0789  0.1501
91319W        W34310   5.165  25.925  16.612 -0.1560 -0.0019 -0.2092
91320W        W34311   7.504  26.352  20.977 -0.1531 -0.0597 -0.3081
91321W        W34312  22.672  28.182  18.274  0.3373  0.3544 -0.2118
91322W        W34313  33.509  23.521  21.806 -0.1809  0.2605 -0.0587
91323W        W34314  20.626  10.471  17.304  0.0295  0.1594 -0.0335
91324W        W34315  17.366  23.031  13.477  0.1571 -0.1013 -0.1486
91325W        W34316   1.913  12.701  18.950 -0.0456 -0.0528  0.3365
91326W        W34317  13.310  29.429  15.110 -0.3037 -0.1701  0.2930
91327W        W34318  33.848  19.858  25.789 -0.2609 -0.0343 -0.0962
91328W        W34319  21.851  20.440   8.958 -0.2586  0.1914 -0.0465
91329W        W34320  18.296   5.281  16.763  0.0761  0.0975 -0.2191
91330W        W34321  23.552  26.117  21.850 -0.3148  0.1261  0.0094
91331W        W34322   5.881  30.661  22.392 -0.0285 -0.1529  0.0981
91332W        W34323  21.523  22.141  24.884 -0.1286  0.0113 -0.2069
91333W        W34324  16.334  21.417  19.733 -0.1224 -0.0570  0.0772
91334W        W34325   5.402  22.315  21.428 -0.1849 -0.0054 -0.2427
91335W        W34326  25.045  13.930   0.319 -0.2131  0.0845 -0.0143
91336W        W34327  20.339   2.886  18.297 -0.1004 -0.2925  0.0559
91337W        W34328  25.029  15.160  15.818 -0.2466 -0.2838  0.0361
91338W        W34329  27.597  22.397   4.408 -0.2004  0.0103  0.2120
91339W        W34330  31.584  30.405  20.129  0.1783 -0.2270 -0.2529
91340W        W34331  19.917  32.996  16.999  0.2311  0.2165  0.1937
91341W        W34332  12.416  22.664  15.467 -0.0152 -0.0874  0.0003
91342W        W34333  29.567  27.706   8.985  0.0379  0.1108  0.2644
91343W        W34334  25.808  26.419  20.319  0.4940  0.3300  0.0766
91344W        W34335  29.153  13.045  20.501  0.1969 -0.0797  0.3189
91345W        W34336  19.100  20.238   2.419  0.0509 -0.0299  0.3018
91346W        W34337  30.476  21.391  25.726  0.0141 -0.3094 -0.1616
91347W        W34338  13.345   1.859  16.981  0.4883 -0.1293  0.1326
91348W        W34339  23.281   5.247   3.957  0.0996 -0.2712  0.0095
91349W        W34340  12.247  23.395  21.569 -0.1595  0.0871  0.0601
91350W        W34341  27.238  23.493  13.791 -0.1386  0.0947  0.1192
91351W        W34342   7.212  22.286  17.009 -0.4000 -0.2742  0.0161
91352W        W34343   7.924   7.228  21.421  0.1468 -0.1732  0.1407
91353W        W34344  17.645  16.440  24.670  0.0363  0.0216  0.0229
91354W        W34345  23.652  24.660  13.808 -0.3122  0.0244  0.3491
91355W        W34346  23.335  28.660  15.011 -0.1682 -0.0292  0.1565
91356W        W34347  13.300  26.012  14.221 -0.1595  0.0239  0.0247
91357W        W34348  10.612   0.951  21.162  0.0674  0.1115 -0.0423
91358W        W34349  19.227  11.286  14.135  0.0821  0.0114  0.1179
91359W        W34350  24.570  25.417  14.549  0.1519 -0.3094  0.2282
91360W        W34351  27.007  27.404   9.685  0.1770 -0.0933 -0.2542
91361W        W34352  23.503  28.776  18.943 -0.0769 -0.1095  0.0681
91362W        W34353  19.746   0.866  24.692  0.0368 -0.1072 -0.1514
91363W        W34354  20.227  30.740  14.039 -0.2824 -0.0974 -0.1545
91364W        W34355  22.137  29.796  19.704 -0.1294 -0.3359  0.2352
91365W        W34356  16.009   1.269  15.083 -0.1921  0.1923 -0.2612
91366W        W34357  22.769  10.830  22.414 -0.3754  0.0268 -0.1592
91367W        W34358  23.117  11.537  27.515  0.3780  0.1750  0.2252
91368W        W34359  13.559  21.620  21.672 -0.2162 -0.1911  0.1013
91369W        W34360   9.945  15.465  19.404  0.1016 -0.0272  0.1633
91370W        W34361  21.098  14.951  13.557 -0.2329 -0.0266  0.1742
91371W        W34362  18.271  28.943  19.426 -0.2252  0.1164  0.0045
91372W        W34363   5.074   7.546  22.074 -0.3840  0.0779  0.0106
91373W        W34364  17.671  32.967  21.050 -0.2248 -0.1155  0.0064
91374W        W34365  15.005  27.414  22.971  0.1504 -0.1145  0.4547
91375W        W34366  25.456   1.034  15.573 -0.1784 -0.3357 -0.1443
91376W        W34367  25.621  20.304   4.349 -0.1371 -0.0328  0.0606
91377W        W34368   9.310  27.885  26.489 -0.1559  0.3655  0.1524
91378W        W34369  22.977  24.888  20.375 -0.2798 -0.0316  0.1382
91379W        W34370  21.373  19.137  15.735  0.0177 -0.3372  0.1464
91380W        W34371  29.989  22.104  15.690  0.1620 -0.1252 -0.0783
91381W        W34372   1.092  21.120  17.461  0.1187  0.4050  0.1167
91382W        W34373  24.464  21.183  18.523  0.0409  0.1288 -0.1694
91383W        W34374  15.159  13.004  22.422 -0.2939  0.0411 -0.0939
91384W        W34375  22.891   9.011  28.422 -0.0050  0.4470 -0.1245
91385W        W34376   7.042  24.039  15.386 -0.0214 -0.2510  0.2235
91386W        W34377  25.921  32.323  25.346  0.3947  0.1050 -0.0613
91387W        W34378  26.720  30.515  20.075  0.1233 -0.5185 -0.3029
91388W        W34379  14.014  24.045  25.720 -0.5837  0.1192  0.3479
91389W        W34380  18.880  13.229  21.830  0.0582  0.0405 -0.1054
91390W        W34381  21.743  12.815  18.309 -0.0225  0.0685  0.0567
91391W        W34382  19.147  27.668  16.053  0.1465 -0.0626  0.0834
91392W        W34383  25.585  33.387  26.688 -0.1072 -0.2497  0.2132
91393W        W34384  20.920  15.849  20.946 -0.1820  0.0979 -0.1539
91394W        W34385  34.708   0.977  20.941  0.1136 -0.2083 -0.1165
91395W        W34386   9.443   1.656  19.258  0.1374 -0.2288  0.2065
91396W        W34387  10.061  26.949  24.007  0.1099 -0.3658  0.2499
91397W        W34388  10.731  21.176  17.887  0.0514  0.1207 -0.0365
91398W        W34389   8.086  22.552  26.286 -0.1304  0.1794  0.0302
91399W        W34390  17.886  21.327  17.113  0.5534 -0.0672 -0.1443
91400W        W34391  14.232   6.967  25.818  0.0690 -0.1886  0.1180
91401W        W34392  15.888  20.509   0.948  0.2440  0.1779 -0.3418
91402W        W34393  21.108  20.281  15.605 -0.2163  0.0139 -0.0755
91403W        W34394  19.989  30.615  26.146  0.1432 -0.0683 -0.1125
91404W        W34395  12.122  18.887   3.035  0.1969  0.0281  0.1294
91405W        W34396  22.190   0.561   3.895 -0.2974 -0.3163 -0.2277
91406W        W34397  15.125  16.582  12.556 -0.2545 -0.2080  0.4188
91407W        W34398  15.871  26.200   1.314 -0.0983 -0.0251 -0.0926
91408W        W34399  17.099  27.847  15.273  0.0633  0.3181  0.0368
91409W        W34400   9.842  30.563  20.954 -0.0511  0.0079  0.3282
91410W        W34401  25.323  19.375  19.811 -0.0015  0.0629 -0.0241
91411W        W34402  26.241  32.518  14.540 -0.1566 -0.2726  0.0969
91412W        W34403  15.360  27.282  23.306 -0.0492 -0.2490 -0.3934
91413W        W34404  22.674  20.756  21.757  0.0365 -0.1061 -0.2379
91414W        W34405  13.842  27.949   3.653  0.0070  0.1416 -0.2263
91415W        W34406  21.422  32.057  13.337 -0.0170 -0.5875  0.1767
91416W        W34407  18.023  16.827  21.603 -0.3908 -0.0664  0.0034
91417W        W34408   4.035  16.038  20.073 -0.1048 -0.0048  0.3413
91418W        W34409  21.312  27.037  15.760  0.2334 -0.2666 -0.1060
91419W        W34410  29.326  20.649  19.607 -0.3664  0.1874  0.0660
91420W        W34411  22.231  22.665  13.905 -0.2423 -0.0512 -0.2928
91421W        W34412   9.921  13.682  19.467 -0.0181 -0.0786  0.4115
91422W        W34413  25.366  15.095  14.503 -0.1674 -0.2594 -0.2380
91423W        W34414  16.498  34.113  17.917  0.2342 -0.1439 -0.1996
91424W        W34415  10.453  10.448  24.861 -0.0693  0.0153 -0.2254
91425W        W34416  19.706  32.893  14.184  0.5071 -0.0426 -0.0071
91426W        W34417  14.763  27.539  27.309  0.0966  0.4218 -0.0524
91427W        W34418  25.571  24.672  20.010  0.0265  0.0016 -0.2561
91428W        W34419  16.698  34.367  19.889  0.2374  0.0701  0.2086
91429W        W34420  26.223   2.124  20.982  0.2030 -0.3430 -0.0831
91430W        W34421  23.113  32.219   3.775  0.1649  0.1663 -0.2303
91431W        W34422  20.220  15.127  15.450 -0.1443 -0.0432 -0.0033
91432W        W34423  24.215  20.694  14.107  0.0112  0.0161  0.0275
91433W        W34424  24.675  25.782  18.311 -0.1183  0.4172  0.2366
91434W        W34425  10.866  20.070  14.964  0.4096 -0.0688  0.2338
91435W        W34426  28.102  11.506  28.009 -0.0701  0.3940 -0.0508
91436W        W34427  14.520  11.856   5.096 -0.0283  0.0603  0.0358
91437W        W34428  10.074  29.037  15.054  0.0788  0.0100  0.2071
91438W        W34429   8.935   0.250  18.145 -0.2106 -0.0299 -0.1070
91439W        W34430  23.956  19.125  19.080  0.1243  0.2820  0.1316
91440W        W34431   5.035   9.917   6.102  0.4259  0.0722  0.1210
91441W        W34432  23.654   7.159  13.762 -0.0640 -0.0307  0.0307
91442W        W34433  17.838  14.147  12.786 -0.1324 -0.0103  0.0263
91443W        W34434  25.459  16.781  26.301  0.0422 -0.0265 -0.1662
91444W        W34435  23.350  24.906  22.452 -0.1118 -0.2918 -0.0556
91445W        W34436  32.595  27.354  23.983  0.0264 -0.0506  0.0703
91446W        W34437  31.633  32.622  25.770 -0.0154 -0.2150 -0.0250
91447W        W34438   9.958   5.702  15.179 -0.0619  0.0395  0.5177
91448W        W34439  22.044  28.622  17.049  0.0279 -0.2679  0.0366
91449W        W34440  32.223   0.565   1.569 -0.3970 -0.1073  0.2066
91450W        W34441  34.027  20.198  21.958 -0.2107 -0.2189  0.0927
91451W        W34442  26.281  18.757  14.225 -0.0965  0.1371 -0.2179
91452W        W34443  14.680  11.804   1.965 -0.3458  0.3146 -0.1862
91453W        W34444   1.181  20.869   2.301 -0.1252 -0.1453  0.1646
91454W        W34445  18.653  30.048   5.223  0.4339  0.2207 -0.2192
91455W        W34446  16.834  31.433  14.020  0.0601 -0.0324 -0.1362
91456W        W34447   7.511  22.903  28.795 -0.1245  0.0044  0.0585
91457W        W34448  11.772  14.203  18.444  0.5762  0.1320  0.1318
91458W        W34449  20.281  17.624  12.155 -0.2790 -0.1770 -0.0302
91459W        W34450  23.408  20.637  27.991  0.0871  0.2314  0.1161
91460W        W34451   4.093  14.988  25.877 -0.3103  0.0998 -0.1092
91461W        W34452  17.824  21.975   1.220 -0.0163  0.0462  0.1769
91462W        W34453  24.120  26.088  24.388  0.0527  0.0950  0.2182
91463W        W34454   3.258  18.430   8.064 -0.1871 -0.0658  0.2164
91464W        W34455  23.569  17.654  14.934 -0.0746 -0.0709 -0.0111
91465W        W34456  21.421  32.990  24.123  0.4533  0.0406 -0.0373
91466W        W34457   6.271  29.104  23.530 -0.0107  0.2677 -0.1309
91467W        W34458   6.828  26.802   3.940 -0.0533 -0.1987 -0.0951
91468W        W34459   9.913  25.639  17.226 -0.1398  0.0605 -0.0995
91469W        W34460  30.909  18.792  16.731 -0.0128 -0.2285 -0.2840
91470W        W34461  33.980  20.151   1.883  0.3522  0.3367  0.1676
91471W        W34462  34.458   2.063  24.967  0.0085  0.2119 -0.0167
91472W        W34463  29.974  24.119  22.251 -0.1372  0.3282  0.0333
91473W        W34464   2.497  12.713  15.261 -0.0336  0.1485  0.1412
91474W        W34465  12.763  11.435  17.584 -0.0301  0.2731  0.0160
91475W        W34466  18.069  14.597  14.102  0.3875  0.3325  0.1657
91476W        W34467  34.701  10.920  17.089  0.0371  0.0848  0.1199
91477W        W34468   2.389  27.536  22.324  0.1756  0.3518 -0.2101
91478W        W34469  20.778   2.942  26.603 -0.2555  0.1713  0.1531
91479W        W34470   6.404  29.087  16.899 -0.0419 -0.1476 -0.1513
91480W        W34471  22.767  31.680  15.355  0.1009  0.0653  0.1860
91481W        W34472  23.803  21.881  23.046  0.2509 -0.0485 -0.2838
91482W        W34473  19.287  10.946  16.369 -0.4973 -0.3782 -0.1054
91483W        W34474   0.732  27.447  16.764 -0.2443 -0.0167 -0.1530
91484W        W34475  30.097  12.532  26.985 -0.1551  0.0095  0.0171
91485W        W34476  10.255  27.614  19.683  0.1629  0.2037  0.2518
91486W        W34477  16.895  27.746   0.152 -0.0502 -0.1282 -0.1815
91487W        W34478  30.753   2.550  28.966  0.1141  0.1582  0.2973
91488W        W34479  26.232  16.531  28.992  0.1627 -0.0669 -0.3186
91489W        W34480  16.262  33.488  19.864 -0.1642  0.0736  0.2884
91490W        W34481  20.374  16.784  28.289  0.3750  0.0826 -0.1375
91491W        W34482  13.110  26.714  14.833 -0.2020 -0.2652 -0.0984
91492W        W34483   9.667  11.293  17.515 -0.0371 -0.3166  0.0081
91493W        W34484  22.442  23.313  20.433  0.0542  0.4419  0.0000
91494W        W34485  10.864  32.819  15.685  0.0499  0.4620 -0.0667
91495W        W34486   8.037  14.403  24.468  0.1420  0.2670  0.0674
91496W        W34487  28.781  21.674  21.625  0.0886 -0.0150 -0.3576
91497W        W34488  21.008  18.214   1.999  0.3285 -0.2388 -0.0385
91498W        W34489  15.903  13.401  19.939  0.2633  0.1003  0.3096
91499W        W34490  25.195   4.847   7.649 -0.1408 -0.1187 -0.1722
91500W        W34491  29.486  15.978  22.151 -0.0031  0.0536  0.0782
91501W        W34492  10.174  14.334   7.599 -0.2535 -0.0746 -0.3404
91502W        W34493  23.476  30.395  27.077  0.2412 -0.0351 -0.4362
91503W        W34494  25.556  27.976  15.774 -0.1315 -0.3640 -0.2125
91504W        W34495  21.574   0.116   1.191  0.0846 -0.2848 -0.1210
91505W        W34496  16.813  14.253  16.248 -0.0486 -0.4104  0.1146
91506W        W34497  21.140  20.443  25.417  0.0110  0.0984 -0.2467
91507W        W34498   4.146  16.646  21.750  0.3675  0.2705 -0.0043
91508W        W34499  20.032   5.585   7.728  0.2110  0.2009 -0.1127
91509W        W34500  20.006  18.724  12.853  0.0549 -0.3245 -0.1614
91510W        W34501  15.629  20.334   8.149 -0.2330  0.0153 -0.0598
91511W        W34502  19.604  29.663  19.095  0.1187 -0.1158 -0.1513
91512W        W34503  30.384  11.839  17.377 -0.1834 -0.1068 -0.0325
91513W        W34504  10.459  18.048  16.235  0.3027 -0.0309 -0.0682
91514W        W34505  33.638  18.566  25.950 -0.0978  0.2012 -0.1003
91515W        W34506  22.263  28.628  14.047  0.1599  0.0814 -0.1288
91516W        W34507  19.967  31.651  18.437 -0.2163 -0.1174  0.0847
91517W        W34508   8.534   4.946  15.176 -0.2384 -0.1385 -0.1600
91518W        W34509   1.257   0.536  27.235 -0.1513  0.0184 -0.0346
91519W        W34510   4.045  17.038  23.784 -0.1384  0.1132  0.0381
91520W        W34511  21.993  30.360   0.847  0.0246  0.0921 -0.4041
91521W        W34512  11.245  15.597  19.325 -0.1144  0.0026 -0.0939
91522W        W34513  27.433  28.797  27.968  0.1413 -0.0822 -0.0776
91523W        W34514  27.965  24.307   3.239  0.1322  0.2779  0.0889
91524W        W34515  20.292  30.769  14.535  0.4005  0.2982  0.2722
91525W        W34516  20.922  26.690  22.206  0.1719  0.2598  0.1646
91526W        W34517  21.930  25.130  19.366 -0.2182 -0.3360  0.2298
91527W        W34518  10.628  31.037  18.827 -0.3252  0.3150  0.1110
91528W        W34519  28.185  29.414  16.279 -0.0221  0.2033  0.0190
91529W        W34520  13.004   2.368  16.154 -0.1433 -0.3549  0.0538
91530W        W34521   5.319  10.946  19.929  0.2440 -0.0381  0.1412
91531W        W34522  17.456   5.445  19.939  0.1100 -0.1674  0.1437
91532W        W34523  27.902  17.048  22.564  0.0446 -0.1520 -0.2234
91533W        W34524  31.744  14.461  22.527 -0.2971 -0.1077  0.2354
91534W        W34525   1.069  25.409  15.704 -0.1628  0.2350  0.3120
91535W        W34526  17.137  13.237  13.089  0.2822 -0.1384 -0.2267
91536W        W34527   2.531  32.888  13.965  0.3206 -0.2441  0.0653
91537W        W34528  14.729  23.394   4.485  0.3567 -0.1398  0.1406
91538W        W34529   4.389  24.899  15.702 -0.3880 -0.3654 -0.1123
91539W        W34530  26.646  25.585  28.283 -0.0006  0.1825 -0.3998
91540W        W34531  27.378   4.425  17.156 -0.1123 -0.1296 -0.0147
91541W        W34532  10.626  11.704  23.110 -0.0108  0.0360 -0.1205
91542W        W34533  12.644   8.995  15.524 -0.3129  0.0222  0.0124
91543W        W34534  10.507  26.340  22.096 -0.0838  0.0820 -0.2581
91544W        W34535  31.325  24.616  23.498  0.3207  0.1625 -0.1058
91545W        W34536   8.316  29.389  16.364  0.2532  0.2610 -0.3626
91546W        W34537  14.011   7.831  18.106 -0.3829  0.1377  0.1447
91547W        W34538  17.084  22.183  19.039 -0.1592 -0.1815 -0.0981
91548W        W34539  28.810  26.464   0.145 -0.1264  0.1484  0.1938
91549W        W34540  17.912  25.172  25.346 -0.1476  0.0173 -0.0286
91550W        W34541  21.288  32.980   2.835  0.0779  0.1936  0.3954
91551W        W34542  23.704   2.783   6.995 -0.4412 -0.3486  0.2258
91552W        W34543  26.410  11.244  19.835  0.1906  0.1386  0.1551
91553W        W34544   6.396  20.112  15.127  0.0631 -0.0365  0.0077
91554W        W34545  22.512  11.160  22.631 -0.3109 -0.1484 -0.3443
91555W        W34546   6.061  23.977  16.092  0.1005  0.3555 -0.0014
91556W        W34547   9.247  19.589  23.136 -0.2469 -0.0881 -0.0585
91557W        W34548   0.475  11.666  27.790  0.1245  0.1760  0.6209
91558W        W34549  20.367  31.312  15.504 -0.1194 -0.0530  0.0673
91559W        W34550  23.848   5.775  22.220  0.0969  0.1493  0.0226
91560W        W34551  25.567  30.834  19.775  0.1818  0.1642 -0.1946
91561W        W34552  17.164  33.792  18.230 -0.2130 -0.1108 -0.0983
91562W        W34553  30.614  22.441  25.247  0.1468 -0.3057 -0.1052
91563W        W34554  25.122   3.995  12.683 -0.1127 -0.0103 -0.1602
91564W        W34555  11.788  23.479  14.474  0.2636  0.0134  0.0514
91565W        W34556  12.705  30.939   2.151  0.3571 -0.1356 -0.2877
91566W        W34557   0.607  29.508   1.395 -0.0631  0.1873  0.0019
91567W        W34558  17.731  22.309  13.955  0.3582  0.0495 -0.1136
91568W        W34559  27.736  18.167  16.989  0.0953 -0.1486  0.1263
91569W        W34560  21.788   7.113  28.787  0.1730 -0.1279 -0.0841
91570W        W34561  26.951  13.190   2.146 -0.0035  0.0930 -0.0794
91571W        W34562  32.042  28.799  13.580  0.0511  0.0659  0.1978
91572W        W34563  28.437  13.671  25.880 -0.2163  0.1131 -0.1015
91573W        W34564  33.884   3.278  14.743  0.1007 -0.0982  0.0861
91574W        W34565  31.880  14.764  24.831  0.0317 -0.1732 -0.3248
91575W        W34566  33.110   6.918  24.131  0.1037 -0.2088 -0.2306
91576W        W34567  26.085  16.178  17.345  0.0054 -0.1829  0.0217
91577W        W34568  13.250  33.008  16.983 -0.0869 -0.0415  0.0813
91578W        W34569  25.947   5.904   5.691  0.0702 -0.2490  0.2868
91579W        W34570  22.043   9.849  27.092  0.2070 -0.2042 -0.0936
91580W        W34571  21.504  32.236   1.660  0.1842  0.1081  0.0228
91581W        W34572  24.136  23.522  22.268  0.1542  0.0145 -0.0996
91582W        W34573  20.178  23.391  23.220 -0.2293 -0.0728 -0.3492
91583W        W34574  13.372  20.077  21.410 -0.0582  0.0958  0.1085
91584W        W34575  27.269  31.997  13.502 -0.2448 -0.0175  0.2620
91585W        W34576  22.547  30.141  15.461  0.0049 -0.1224 -0.2348
91586W        W34577  14.303  34.361  22.363 -0.2793 -0.0494 -0.2399
91587W        W34578  20.237  28.093  16.615  0.1449 -0.0742 -0.1237
91588W        W34579  20.830   1.869   3.472 -0.2159 -0.0627  0.1510
91589W        W34580  22.187  25.659  19.244  0.4425  0.0133 -0.0601
91590W        W34581  22.456  21.531   7.616  0.1123 -0.1216 -0.1317
91591W        W34582  20.855  33.567  16.214  0.0311 -0.0094 -0.2983
91592W        W34583  22.735  27.125  21.381 -0.0447 -0.4013 -0.0516
91593W        W34584  31.647  25.287  19.394  0.0881  0.0201 -0.0210
91594W        W34585  17.141   2.347   0.982  0.0764  0.0365  0.0392
91595W        W34586  10.874  16.790  19.755  0.1541  0.4106 -0.1399
91596W        W34587  12.160  22.308  25.531  0.1857 -0.2784 -0.1388
91597W        W34588  17.377  14.298  12.872 -0.1124 -0.2237 -0.0690
91598W        W34589  17.696  19.615  16.233 -0.0131 -0.0997 -0.0614
91599W        W34590   8.834   3.477  20.152 -0.0134 -0.3340  0.2295
91600W        W34591  12.698  10.518  18.647 -0.2052  0.3955  0.4399
91601W        W34592   4.953   9.498  26.916 -0.1897 -0.0656 -0.2826
91602W        W34593  29.732  19.466  19.772  0.0794  0.2492 -0.1986
91603W        W34594  27.568  22.568  26.908  0.2421 -0.0219  0.2717
91604W        W34595  32.207   9.922  14.294  0.2010  0.1326  0.1604
91605W        W34596  15.233  28.077  17.255  0.0621  0.0983  0.1233
91606W        W34597   0.769   2.183  22.018  0.2866  0.1785 -0.0679
91607W        W34598  10.891  12.869   5.396  0.0402 -0.2632 -0.0987
91608W        W34599  34.706  31.104  14.497  0.0561  0.0359  0.0368
91609W        W34600   3.991  28.900  25.431 -0.1072  0.1864  0.0304
91610W        W34601   0.380  13.546  18.519  0.2554 -0.0386 -0.0718
91611W        W34602  15.261  30.985  18.058  0.2262  0.2488  0.0696
91612W        W34603  11.141  31.444  18.755  0.0662 -0.1278  0.3522
91613W        W34604  28.985  27.796  19.341 -0.0528  0.0777  0.2255
91614W        W34605   2.165  27.222  20.549 -0.2402  0.2111  0.0397
91615W        W34606  14.596   8.590   0.220 -0.2489 -0.0937  0.0704
91616W        W34607  21.530  29.002   7.227 -0.1635 -0.1207  0.1887
91617W        W34608  17.935  33.130  18.036 -0.1147 -0.0384  0.0823
91618W        W34609  30.846  18.759  26.160  0.0435  0.1681 -0.0476
91619W        W34610  17.138  16.013  16.139  0.0582  0.0465 -0.1957
91620W        W34611  13.416  14.902  19.424 -0.2258  0.0816 -0.1417
91621W        W34612  19.027   3.775  26.021 -0.0728 -0.0305  0.1038
91622W        W34613  22.222  15.816  24.153 -0.2478 -0.1502  0.1790
91623W        W34614  13.128  17.246  28.965  0.0541 -0.1221  0.1067
91624W        W34615  13.637  23.670  14.093 -0.2343 -0.1378 -0.1536
91625W        W34616  11.865  28.043  23.236  0.1775  0.1416 -0.2104
91626W        W34617  23.770  15.087  14.466  0.2675 -0.3810 -0.6319
91627W        W34618  12.796   6.874  29.030 -0.3734  0.2650  0.1815
91628W        W34619   4.719  16.550  18.479  0.0447 -0.4239 -0.2358
91629W        W34620  19.188   1.927  15.798  0.4171 -0.0862 -0.0887
91630W        W34621  29.286  22.980  18.463  0.2342 -0.2146 -0.1964
91631W        W34622  16.172  24.644  21.458 -0.2273 -0.0398 -0.2833
91632W        W34623  14.703  22.260  17.673 -0.2509 -0.1595 -0.1108
91633W        W34624  10.220  22.826  17.229 -0.0109  0.1080 -0.1125
91634W        W34625  28.181  34.077  18.387 -0.2894  0.0400 -0.2867
91635W        W34626  17.196   1.157  25.408 -0.0983  0.1899 -0.1137
91636W        W34627  34.053   1.029   2.485  0.0458 -0.0189  0.1255
91637W        W34628  26.107  26.876  20.673 -0.0673 -0.0701 -0.3216
91638W        W34629  18.140   6.327   3.149  0.0724  0.3506 -0.2960
91639W        W34630  28.911  30.654  14.240 -0.0302 -0.2436  0.4024
91640W        W34631  12.945  14.185   3.211 -0.1831 -0.0121  0.2978
91641W        W34632  26.657   8.692   4.187 -0.3700 -0.0468 -0.0114
91642W        W34633  11.011  31.755  20.108 -0.0888 -0.1012  0.3732
91643W        W34634  19.590  33.847  13.612  0.2939 -0.1138 -0.0365
91644W        W34635  24.533   2.412  18.356 -0.2950  0.1847  0.2146
91645W        W34636  19.591  20.371  15.446 -0.0695  0.1160 -0.0855
91646W        W34637  17.244  32.143  16.525 -0.0648  0.2144  0.2141
91647W        W34638  32.875  27.819  18.613 -0.0355  0.1818  0.1177
91648W        W34639  24.822  12.421  23.516 -0.2210 -0.1523  0.0603
91649W        W34640   3.945  21.707  24.760  0.1806  0.3602 -0.0443
91650W        W34641  20.577  31.532  26.035 -0.0382 -0.1373 -0.4934
91651W        W34642  20.125   0.162  18.158  0.0308 -0.0717  0.0694
91652W        W34643  21.718  23.903   2.024 -0.2895 -0.0748  0.2945
91653W        W34644   9.443  20.466  23.385 -0.2204 -0.0599  0.1019
91654W        W34645  27.849  17.948  14.136 -0.1667  0.0476 -0.1611
91655W        W34646  18.714   0.391  20.168  0.4561  0.0344  0.0980
91656W        W34647  16.992  32.236  20.200 -0.0354 -0.2654 -0.0065
91657W        W34648  24.114  21.172  16.622 -0.0110  0.1087  0.0592
91658W        W34649   5.083   9.208  18.435 -0.0973  0.1798 -0.0474
91659W        W34650   9.759  20.507  27.518  0.0358  0.1597 -0.1037
91660W        W34651   1.329  29.756  13.877  0.3082 -0.1981 -0.2614
91661W        W34652  21.916  23.381  17.343  0.2690  0.0825  0.2535
91662W        W34653  25.641   7.785  16.658  0.1538  0.1195 -0.1121
91663W        W34654  11.113  32.254  19.989  0.0863 -0.0778  0.0863
91664W        W34655  22.454  19.890  17.426 -0.1789 -0.0660  0.0796
91665W        W34656  18.277   4.411   3.005  0.2147  0.1867 -0.0215
91666W        W34657  31.625   0.302  21.757 -0.3479  0.2313 -0.0969
91667W        W34658  24.020  22.547  20.297  0.2251  0.3632 -0.2900
91668W        W34659  24.047  13.086  17.708  0.0385  0.0780  0.0689
91669W        W34660  26.254   9.814  20.136 -0.0530 -0.0598 -0.2160
91670W        W34661   9.998  20.884  19.688 -0.1712  0.3306 -0.1092
91671W        W34662  28.311  11.970  19.899 -0.2126  0.0938 -0.0865
91672W        W34663  13.362  23.997  16.865 -0.1043  0.1168 -0.0068
91673W        W34664  21.881  19.186  17.297 -0.0853 -0.1966  0.1181
91674W        W34665  17.119  29.427  24.261 -0.1086 -0.0610 -0.0589
91675W        W34666  28.983  34.602   4.373  0.3358 -0.1801  0.1289
91676W        W34667  28.562  34.547  25.902  0.2151  0.2445  0.0547
91677W        W34668  23.699  19.490  20.885 -0.1174  0.1008  0.0347
91678W        W34669  34.261  24.859  23.541 -0.1182  0.1641 -0.0326
91679W        W34670  14.242  12.053  20.306  0.0186 -0.1296 -0.1247
91680W        W34671  23.601  25.068  27.298 -0.2595  0.2083 -0.2472
91681W        W34672  23.500  31.653  12.970  0.0260  0.0893  0.1213
91682W        W34673  12.687  27.934  26.147  0.0255 -0.2663 -0.2971
91683W        W34674  10.204  17.285  20.722 -0.1910 -0.5111  0.1252
91684W        W34675  27.797  18.153  21.913  0.2718 -0.2877  0.3831
91685W        W34676  13.922  24.327  20.581  0.2911 -0.0206  0.2799
91686W        W34677  15.589  23.543  16.786  0.0264  0.2504 -0.2076
91687W        W34678  16.377  26.955  22.812  0.1337  0.3650  0.1601
91688W        W34679  19.047  17.523  17.408 -0.1696  0.0861  0.0441
91689W        W34680  29.451  32.788  19.830 -0.1977  0.2161 -0.2788
91690W        W34681  12.977   3.640  26.033  0.1036 -0.2327  0.0693
91691W        W34682  10.661  16.195  27.009 -0.0100  0.0100  0.3458
91692W        W34683  18.111  27.972  17.014 -0.0500  0.2587  0.0466
91693W        W34684  21.370   5.072  18.898  0.1384  0.1259  0.0710
91694W        W34685  14.869  15.481  16.142  0.0046 -0.1391  0.2713
91695W        W34686  30.240  26.277  24.326 -0.0748 -0.1545 -0.0701
91696W        W34687  22.658  12.379  13.929  0.0217  0.1407 -0.1090
91697W        W34688  17.907  22.820  23.269  0.2070 -0.3102 -0.1530
91698W        W34689  13.400  17.366  16.012  0.2696  0.1135 -0.1561
91699W        W34690   7.656  19.659  15.042 -0.1959  0.1331  0.0153
91700W        W34691  26.692  32.865  18.251  0.1260 -0.0250  0.0395
91701W        W34692  16.202  13.615  20.249 -0.1761 -0.0386  0.0151
91702W        W34693  20.802  23.846  28.807  0.2149  0.1417 -0.0358
91703W        W34694  19.030  21.922   0.557 -0.2199 -0.0412 -0.0285
91704W        W34695   4.602  24.597   2.853  0.0879 -0.0506 -0.0770
91705W        W34696  28.452  28.821  20.218  0.3431 -0.1316 -0.0432
91706W        W34697   4.611  20.333   6.717 -0.1560  0.1168 -0.4709
91707W        W34698  15.273  22.183  21.175  0.1970  0.0425 -0.3025
91708W        W34699  28.483  21.732   6.796  0.3628 -0.1476  0.3190
91709W        W34700  11.427   6.819   1.071 -0.0131  0.1240  0.0231
91710W        W34701   9.610  19.565  26.789  0.2310 -0.0265 -0.0070
91711W        W34702  28.661   8.232  24.034 -0.0394 -0.1582  0.1151
91712W        W34703  11.734   6.142  22.933 -0.1426 -0.2193  0.0252
91713W        W34704  11.096  31.782  25.729 -0.3322  0.3141 -0.0726
91714W        W34705  14.200   9.391  16.992  0.0882  0.3277  0.1114
91715W        W34706  29.268  20.813  16.433 -0.2092 -0.0967  0.2701
91716W        W34707  21.821  26.859  18.622  0.0933  0.0010  0.0549
91717W        W34708  20.149  30.538  19.881  0.2108 -0.3604  0.0883
91718W        W34709  13.048  31.372  15.884  0.0626  0.0352  0.2847
91719W        W34710  10.023  12.707  28.738  0.4012 -0.0535 -0.2048
91720W        W34711  11.304  16.269   9.222 -0.3070 -0.1711  0.2333
91721W        W34712  12.263   6.795  19.744 -0.1057 -0.3182 -0.1531
91722W        W34713  34.465  32.800  25.224 -0.1947  0.2773  0.1711
91723W        W34714  10.435  12.818  28.963  0.0373  0.1873  0.2700
91724W        W34715  21.415   1.625   5.417  0.1949  0.1805 -0.0235
91725W        W34716  16.960  16.761  20.996  0.1036 -0.1715  0.0116
91726W        W34717  19.527  12.047   0.610  0.0780 -0.2204 -0.2572
91727W        W34718  14.350   0.813   5.966  0.1641 -0.3484 -0.2182
91728W        W34719  10.204  12.761  25.375 -0.1615  0.4284 -0.2081
91729W        W34720  33.252   2.371  18.174 -0.0548  0.1721  0.0524
91730W        W34721  18.190  26.512  26.771 -0.2775 -0.1328  0.1843
91731W        W34722  16.629   8.786   7.564  0.0444  0.2974 -0.1837
91732W        W34723  15.000  29.938  16.592 -0.0470 -0.4598  0.0791
91733W        W34724   4.012  14.041  15.795 -0.1569  0.3016  0.2841
91734W        W34725  27.269  22.894  22.169 -0.2043 -0.1024  0.0414
91735W        W34726  14.365  23.152   3.252 -0.0787 -0.0472  0.0623
91736W        W34727  29.052  27.163  18.203  0.3252  0.0218  0.1859
91737W        W34728  32.776  20.920   0.132 -0.1137 -0.0210 -0.2166
91738W        W34729  23.328  23.879  28.537  0.1396 -0.0369 -0.2167
91739W        W34730  21.913  21.842  23.993 -0.0079  0.1987  0.0559
91740W        W34731  25.124  31.062  22.330  0.3035 -0.2159 -0.0433
91741W        W34732  31.097  24.078  18.667 -0.0983  0.2452  0.1968
91742W        W34733   7.082   9.825  24.324 -0.1605  0.2092 -0.0939
91743W        W34734  26.189  31.770  20.647 -0.3635 -0.1968  0.1165
91744W        W34735  15.327  32.455  29.213 -0.0939  0.2715  0.4514
91745W        W34736  20.663  15.505   0.373 -0.0199 -0.1584 -0.0695
91746W        W34737  19.371   5.468   8.380  0.0022 -0.1489  0.1076
91747W        W34738  16.584   4.088   9.141 -0.2005  0.1857 -0.1297
91748W        W34739  27.276  15.141  16.608 -0.1673 -0.1027 -0.2443
91749W        W34740  24.008  26.825   3.271 -0.0274  0.0250  0.0712
91750W        W34741  16.326  27.826  14.004 -0.0399 -0.3317 -0.0640
91751W        W34742  20.441  20.243  15.610  0.0887  0.3540  0.2262
91752W        W34743  20.769  33.361  18.636 -0.0758  0.0085 -0.0949
91753W        W34744  17.677   3.935   6.257  0.0665  0.0062  0.1476
91754W        W34745  16.316  24.740  23.136  0.3421  0.0144 -0.0775
91755W        W34746  15.380  30.332  22.899 -0.0546 -0.0245 -0.2412
91756W        W34747  28.592  22.195   0.881 -0.4709  0.2040 -0.0512
91757W        W34748  18.778  12.733  14.168  0.2263 -0.2267  0.0710
91758W        W34749  24.951  29.440   7.554 -0.1516  0.1781 -0.1638
91759W        W34750  14.493  22.116  28.061 -0.2964  0.0066  0.1431
91760W        W34751  23.920  31.477   0.273 -0.0945 -0.0060 -0.2881
91761W        W34752  30.976   5.787  20.077 -0.1691  0.1334  0.1512
91762W        W34753  16.044  34.333  17.974  0.1484 -0.2487  0.3872
91763W        W34754  32.081  16.419  22.580  0.2962 -0.2529  0.0242
91764W        W34755  17.726  20.713  27.516 -0.1337  0.3853 -0.0045
91765W        W34756   7.931  14.533  28.708  0.0569 -0.2265  0.0051
91766W        W34757  12.672  25.568  23.123 -0.2471 -0.1683  0.2941
91767W        W34758  12.179   5.202  20.164 -0.1384 -0.3081 -0.0244
91768W        W34759   7.772  30.734  21.575  0.0185  0.1330  0.0587
91769W        W34760  18.572  11.346  18.449 -0.1347  0.0896  0.1149
91770W        W34761  30.336  17.780  23.952  0.0578  0.2491  0.2831
91771W        W34762  15.383  27.082  15.490  0.0597 -0.1950  0.0242
91772W        W34763  20.613  29.011  22.809 -0.0111 -0.1899 -0.0428
91773W        W34764  16.545  22.115  21.590 -0.1942  0.3080 -0.0540
91774W        W34765  19.359   2.459  21.751 -0.0280  0.1019 -0.1866
91775W        W34766   8.676  28.563   4.428  0.1331 -0.0394  0.1370
91776W        W34767  21.864  19.833  13.913  0.0359 -0.2081  0.1645
91777W        W34768  23.916  32.474  21.836  0.0236  0.1715 -0.0640
91778W        W34769  16.052  17.646  14.148  0.1067  0.0875 -0.3920
91779W        W34770  14.027  30.341   1.734 -0.1416 -0.0428 -0.1160
91780W        W34771  24.265   0.691   8.393 -0.1095 -0.0827  0.0973
91781W        W34772  13.004  32.246  18.683 -0.0167  0.1672 -0.1401
91782W        W34773  11.881  14.224  28.856 -0.0422  0.2973  0.3275
91783W        W34774  29.124   3.911  27.357  0.2538  0.1703  0.0371
91784W        W34775   4.483  27.778   4.536 -0.0021 -0.2705  0.2407
91785W        W34776  13.896   1.325  15.825 -0.2397  0.3422  0.2021
91786W        W34777  15.910  28.571  26.182 -0.2693 -0.3276 -0.0191
91787W        W34778   1.414   0.425  19.001 -0.4163  0.3370  0.0889
91788W        W34779  22.804   1.877   5.662 -0.1677  0.1674  0.0973
91789W        W34780   6.948  10.323   4.040 -0.2167  0.2148  0.1973
91790W        W34781  18.786   8.032   9.743 -0.2993  0.1172 -0.1074
91791W        W34782   0.514  19.939   0.225  0.2735  0.1611  0.0824
91792W        W34783   9.636   4.596   5.785 -0.1142  0.0387 -0.0441
91793W        W34784  32.263  24.000  29.052 -0.0943  0.1235  0.0848
91794W        W34785  27.058  13.922  19.368  0.0228  0.1649  0.1331
91795W        W34786  33.778  24.513   3.804 -0.0411  0.1671 -0.2010
91796W        W34787  16.436  10.143  24.438  0.0781 -0.0697 -0.1120
91797W        W34788   8.704  20.365   6.812  0.0823  0.0069  0.0183
91798W        W34789  28.382  27.222  18.713 -0.0232  0.0558  0.3454
91799W        W34790  19.420  17.143  17.470 -0.0025  0.1742  0.2471
91800W        W34791  16.072   1.508  10.602 -0.2488 -0.1054  0.0302
91801W        W34792  33.247  26.015  22.689  0.0482  0.1914 -0.0899
91802W        W34793  20.632   9.461   7.509  0.0031  0.1163 -0.1090
91803W        W34794  29.192  32.582  24.928 -0.1419  0.1061 -0.0813
91804W        W34795  11.309  22.414  24.975  0.0367  0.3946 -0.1226
91805W        W34796  29.695  28.710  22.890  0.1297  0.2321  0.2150
91806W        W34797  17.372  17.212  22.015  0.0427  0.1594 -0.0938
91807W        W34798  18.559  18.343  18.561  0.1113  0.1504  0.4474
91808W        W34799  18.382  33.872  18.224 -0.2200 -0.0409  0.1144
91809W        W34800   1.445  23.593  24.508 -0.4237  0.2067  0.0933
91810W        W34801  19.099  20.223  15.710  0.1646 -0.1553  0.2821
91811W        W34802  25.706  26.057  19.878  0.2813  0.4155  0.1885
91812W        W34803   6.190  13.629   7.020  0.0587  0.0686 -0.1000
91813W        W34804  12.924  14.531   9.548 -0.1019 -0.0498  0.1511
91814W        W34805  15.731  29.105  22.223  0.0296  0.1592 -0.2224
91815W        W34806  18.214  17.542  18.289 -0.0290  0.1375  0.2264
91816W        W34807  28.317  20.084  22.910  0.0925  0.0747  0.5233
91817W        W34808  30.090  28.915  24.294  0.1184  0.1074  0.3195
91818W        W34809  16.792  28.147  24.849 -0.1363 -0.0727 -0.1672
91819W        W34810  19.721  12.155  18.499  0.1358  0.3234 -0.0744
91820W        W34811  22.799   4.396   0.299  0.0093  0.1213 -0.0974
91821W        W34812  29.816  15.738  28.150 -0.0863 -0.2541 -0.2653
91822W        W34813  15.825  19.350  13.058 -0.3746  0.2619 -0.2863
91823W        W34814  15.677  33.254  15.065 -0.0421  0.3645 -0.1326
91824W        W34815  31.696  26.750  27.918 -0.0964 -0.1262  0.3144
91825W        W34816   9.324  18.607  21.283 -0.1362 -0.0799 -0.0953
91826W        W34817  24.743   7.102  17.951  0.1498  0.1269 -0.0626
91827W        W34818   3.352  26.936   4.340 -0.0790 -0.1469 -0.1266
91828W        W34819  33.219  12.057  10.631  0.2128 -0.0026  0.3095
91829W        W34820  18.044  24.991   0.655  0.0410  0.1926  0.1756
91830W        W34821  31.457  30.597  19.316  0.0460  0.4552 -0.0843
91831W        W34822  17.745  32.478  18.713 -0.1007  0.0929 -0.1761
91832W        W34823  33.070  22.510  20.621  0.2833 -0.0197  0.0602
91833W        W34824  19.527  25.350  19.199 -0.0083  0.2984 -0.1791
91834W        W34825   6.813  31.434  25.268 -0.2212  0.1551  0.5687
91835W        W34826  32.314  24.887  15.641 -0.2267 -0.0019  0.0851
91836W        W34827  33.484  16.123   2.642 -0.4691 -0.2583  0.0366
91837W        W34828  17.382  34.368  20.927 -0.2265 -0.2325  0.3663
91838W        W34829  22.022  31.232  25.153 -0.1724 -0.0678  0.0610
91839W        W34830  24.747  27.832  16.767  0.0537  0.0434  0.1299
91840W        W34831  24.669  23.264  23.976  0.1001  0.1170 -0.0948
91841W        W34832  20.719  14.525   3.879  0.0242 -0.2160 -0.2999
91842W        W34833  32.762  25.119   6.954  0.0082  0.4599 -0.0974
91843W        W34834  14.379  12.303   6.441  0.0274 -0.0575  0.0467
91844W        W34835  25.523  26.532  17.423  0.2245 -0.1975 -0.1577
91845W        W34836  27.082  34.710  25.001  0.2059 -0.2086 -0.2377
91846W        W34837  23.578  34.178  18.749 -0.0342  0.2641  0.0982
91847W        W34838  24.706  21.962  14.146  0.2090 -0.1759 -0.1335
91848W        W34839   9.743   1.342  17.983 -0.1774  0.0133 -0.2774
91849W        W34840  21.518  21.143  18.036  0.2586 -0.3532  0.4981
91850W        W34841  22.745  24.660   3.125  0.2040  0.2269  0.0026
91851W        W34842  24.003  19.230  23.495 -0.1513  0.1714 -0.0261
91852W        W34843  29.109  27.503  29.193 -0.2346  0.0614  0.4106
91853W        W34844  22.461  24.292  28.536  0.3365  0.2003 -0.0834
91854W        W34845  13.464  29.433   2.100 -0.0589  0.1655 -0.1673
91855W        W34846  24.678  23.754  15.717 -0.0114  0.3291  0.2756
91856W        W34847  21.312  32.280  17.489 -0.1770  0.1388 -0.0461
91857W        W34848  26.375  18.651  17.214 -0.2297  0.0353  0.0252
91858W        W34849  34.337  22.450   6.148 -0.3872 -0.4922  0.1792
91859W        W34850  25.746  25.297   7.995 -0.1400 -0.1306 -0.3000
91860W        W34851  15.645  11.113  27.409 -0.1609 -0.1448  0.0510
91861W        W34852  22.568  17.706   1.448 -0.3662 -0.0194  0.2480
91862W        W34853  21.024  10.980  22.048  0.3459 -0.3277  0.0246
91863W        W34854  25.791  17.066  13.684 -0.0895 -0.2017  0.1764
91864W        W34855  19.733  26.746  14.418 -0.2292 -0.2466 -0.0418
91865W        W34856  27.316   3.550  17.574  0.1642 -0.1118 -0.2195
91866W        W34857  20.993  11.325  13.958 -0.1179  0.3851  0.0413
91867W        W34858  28.857  25.938  16.032  0.0377  0.2281  0.1525
91868W        W34859  30.218  34.589   0.467  0.2141 -0.0131 -0.1260
91869W        W34860   2.235  20.889  25.095 -0.1852  0.1125  0.0342
91870W        W34861  27.045  30.708  27.656 -0.0176 -0.3968 -0.2832
91871W        W34862  19.875  11.223   9.652  0.1909  0.1918  0.1650
91872W        W34863  32.042  30.909  24.823 -0.2857  0.1591 -0.0351
91873W        W34864  19.178  11.908  20.271  0.1898 -0.0033 -0.0628
91874W        W34865   3.491  23.098  24.163  0.3498  0.2102 -0.3183
91875W        W34866  18.317  24.897  24.242  0.0486 -0.2186 -0.1864
91876W        W34867  14.394  17.569  15.381  0.0115 -0.1297  0.2469
91877W        W34868  17.140  28.489  18.630 -0.1502 -0.0328  0.2677
91878W        W34869  22.151  25.144   2.479  0.0647 -0.2567  0.0898
91879W        W34870   6.065  10.970  21.796 -0.1120 -0.0807  0.0096
91880W        W34871  25.128  28.496  26.381  0.3219 -0.0093  0.1349
91881W        W34872   6.776  14.549   7.094 -0.0944  0.2553  0.0241
91882W        W34873  32.908  15.359  25.581 -0.2344  0.1803 -0.0076
91883W        W34874  22.085  22.732  19.781  0.1993  0.1032 -0.0536
91884W        W34875  12.735  23.714  28.890 -0.0489  0.1810 -0.0288
91885W        W34876  34.653  23.453   3.865  0.1093 -0.0843  0.0342
91886W        W34877  16.631  21.010  19.453  0.1647  0.1840 -0.1876
91887W        W34878  14.454  21.741  13.401  0.0408 -0.3403 -0.0337
91888W        W34879   8.656   6.126  21.336 -0.4640 -0.0980 -0.0632
91889W        W34880  28.434   7.722  18.623 -0.0133 -0.1514  0.0763
91890W        W34881  13.415  23.989  15.152 -0.2266 -0.0533  0.2169
91891W        W34882  11.884  24.240  23.183  0.0227 -0.1547 -0.0513
91892W        W34883   7.937  28.533   9.590 -0.0314  0.0177 -0.1992
91893W        W34884  23.663  12.217  14.229 -0.1578  0.0369  0.0650
91894W        W34885   4.397  30.177  17.081  0.0064  0.4568 -0.0035
91895W        W34886   4.644   4.490  20.456  0.1909 -0.2585  0.0706
91896W        W34887  17.910  16.186  17.450 -0.1404  0.1091  0.0496
91897W        W34888  20.249  26.750  14.104  0.0020 -0.0259  0.1176
91898W        W34889  28.891  34.429  21.548 -0.3425 -0.0429 -0.0844
91899W        W34890  30.439  24.071  23.388 -0.0590  0.1860 -0.0744
91900W        W34891  29.923  27.041  24.395 -0.0622  0.2710 -0.1726
91901W        W34892   3.201  10.663  27.330 -0.0328  0.4121  0.1336
91902W        W34893  14.789   3.495  19.714 -0.0088 -0.0867 -0.2198
91903W        W34894  28.499   2.385  25.677  0.0249  0.2823 -0.0651
91904W        W34895  15.637  33.235  24.808 -0.0858  0.0520  0.0300
91905W        W34896  13.917  14.836  24.025  0.1114 -0.3449  0.0679
91906W        W34897  15.977  19.803   1.793 -0.0770  0.0127 -0.1057
91907W        W34898   7.413  22.642   9.485 -0.0412  0.0298 -0.1242
91908W        W34899  26.438  24.180  25.046  0.2140 -0.0545  0.4776
91909W        W34900  21.127  28.272   6.034 -0.4022 -0.0713 -0.4072
91910W        W34901  14.282  16.973   2.132 -0.1131  0.0083 -0.3731
91911W        W34902  17.819  34.590   1.749  0.0695  0.2571 -0.2757
91912W        W34903  18.988   7.903  21.380 -0.0401 -0.2698 -0.1036
91913W        W34904   0.568  28.725  16.570  0.0678 -0.2306  0.1550
91914W        W34905  24.752  29.680  19.278 -0.1042  0.4009  0.2769
91915W        W34906  18.275  31.643  24.809  0.0393 -0.0196  0.0718
91916W        W34907   5.760  30.008  23.662 -0.0746 -0.1725  0.2098
91917W        W34908  17.846  24.974   1.296 -0.3469 -0.2509  0.3699
91918W        W34909  21.618  26.930  20.649 -0.1446 -0.0277 -0.1039
91919W        W34910  32.219   2.577   3.707  0.3997 -0.1357 -0.0358
91920W        W34911   9.814  14.703   2.592 -0.0224  0.1051  0.0011
91921W        W34912  26.575  27.077   3.757  0.1274 -0.0530  0.0531
91922W        W34913  29.222  25.340  27.730  0.1902  0.0374 -0.0305
91923W        W34914  21.397  25.827   3.116  0.0591  0.0667 -0.2105
91924W        W34915  20.824  34.606  25.888  0.0514 -0.2931 -0.3613
91925W        W34916  25.507  24.682   3.421  0.0782  0.3690  0.0186
91926W        W34917  32.220  19.580  18.971 -0.2784  0.3423  0.2439
91927W        W34918  29.713  33.059  16.168  0.0114  0.1328 -0.2424
91928W        W34919  18.988  27.724  17.879 -0.0900 -0.1103 -0.0452
91929W        W34920  18.800  18.475   1.581 -0.1965  0.0338  0.2502
91930W        W34921  21.269   7.237  16.176 -0.0455 -0.0819  0.0025
91931W        W34922  10.219   0.184  10.478 -0.1530 -0.1897 -0.3871
91932W        W34923  19.582  21.135   7.003  0.1993  0.3550  0.2028
91933W        W34924  21.132  22.991  17.151  0.0105 -0.0245  0.3898
91934W        W34925  29.374  25.364   2.172  0.0095 -0.1350 -0.2169
91935W        W34926  13.101   0.547  28.734 -0.1784 -0.1766  0.0418
91936W        W34927  17.186  25.640  16.440  0.1377 -0.2257  0.0112
91937W        W34928   0.671  26.271  17.254 -0.0700  0.2417 -0.0146
91938W        W34929  27.067  33.693  17.762  0.1264 -0.3014 -0.1121
91939W        W34930   8.798  31.452  17.382 -0.2769 -0.3099  0.0975
91940W        W34931  27.338  16.966  16.013  0.1299 -0.0406  0.0279
91941W        W34932  32.099  33.036   8.539 -0.0424  0.1484 -0.0809
91942W        W34933  11.582  19.152  18.584 -0.1749  0.0824 -0.0763
91943W        W34934  26.412  27.820  17.343  0.1313  0.2451 -0.1606
91944W        W34935  22.047  13.055  18.797  0.0269  0.1456  0.0168
91945W        W34936  10.986  25.013  26.849  0.1340  0.4976  0.0609
91946W        W34937  15.229  22.131  19.185 -0.0581 -0.2820 -0.1884
91947W        W34938  17.072   9.145  23.425 -0.2591 -0.0782  0.2127
91948W        W34939  25.470  13.046   9.642  0.1358 -0.0196 -0.1614
91949W        W34940  18.800  22.385  26.057 -0.2800  0.0436  0.1510
91950W        W34941  32.248  27.769  14.455 -0.0192 -0.0009 -0.1335
91951W        W34942  33.702  32.379  28.657  0.1188  0.0149  0.0220
91952W        W34943  17.942   2.097  18.241 -0.2067  0.0649  0.2263
91953W        W34944  25.483  27.182  16.713  0.1385  0.4788  0.1233
91954W        W34945  22.068  29.771  27.445 -0.0040  0.1265 -0.0470
91955W        W34946  32.139  20.793  25.689 -0.0376  0.3123  0.1034
91956W        W34947  17.036   9.680  16.184  0.0113  0.1835  0.0305
91957W        W34948  31.044  15.071   2.319  0.1382 -0.0582 -0.2981
91958W        W34949  12.155   8.224  10.232  0.0280  0.4326  0.3323
91959W        W34950  16.513  22.302  27.045 -0.1730 -0.0897 -0.0930
91960W        W34951  12.702  28.068   9.258 -0.0919  0.4737  0.1755
91961W        W34952  18.928  23.764  23.677  0.1886 -0.0810  0.1602
91962W        W34953  13.515  32.602  27.618  0.4887 -0.1170 -0.0052
91963W        W34954  16.253  11.166  29.108 -0.0060 -0.1630  0.0020
91964W        W34955  22.397  25.881  19.683 -0.1610 -0.1726 -0.0071
91965W        W34956  21.188  33.139  18.765  0.0256  0.1746  0.0783
91966W        W34957   1.548  31.653   1.566  0.2538 -0.2725 -0.0077
91967W        W34958  22.616   9.480   0.723  0.1272  0.1591 -0.5297
91968W        W34959  13.611  18.007  14.546  0.2229  0.1334 -0.0414
91969W        W34960   5.756  15.822   0.180  0.0957 -0.4817 -0.3707
91970W        W34961   8.978  27.361  27.991  0.0250 -0.0274  0.2492
91971W        W34962   9.640  23.847  26.134  0.2265  0.5597  0.0679
91972W        W34963  33.442  13.986  23.833  0.0150  0.5986 -0.1559
91973W        W34964  29.582   1.225  23.451  0.0102 -0.2766  0.1586
91974W        W34965  10.150  21.368  16.100  0.3679 -0.1275 -0.0337
91975W        W34966  20.327  13.349  26.880 -0.2841  0.0720 -0.0986
91976W        W34967  32.452   3.415  22.334  0.1610 -0.0784 -0.1940
91977W        W34968  23.325  11.119   1.906 -0.0013 -0.0063 -0.2141
91978W        W34969  24.433   9.179  28.540 -0.4613  0.0402 -0.0341
91979W        W34970  20.728  21.817   6.965  0.3101 -0.0744  0.0221
91980W        W34971  22.089  24.968  17.484  0.0994  0.0973  0.2701
91981W        W34972  22.977  30.014   0.896  0.0166  0.0165  0.2120
91982W        W34973  27.882  20.762  16.706 -0.3009  0.1231  0.3925
91983W        W34974   8.311  12.089   5.617 -0.1045  0.1982 -0.1690
91984W        W34975  17.423  18.594  17.917  0.0530  0.0616 -0.2644
91985W        W34976   9.749  24.198  23.095  0.0844  0.0280 -0.4290
91986W        W34977  11.406  14.174  23.410 -0.1154  0.1317  0.2426
91987W        W34978   0.158   5.032  15.234 -0.2248  0.0954  0.2100
91988W        W34979  19.532  22.611  21.563  0.0146  0.0522  0.2733
91989W        W34980  11.576  34.181  18.077  0.0457 -0.0157  0.2505
91990W        W34981   6.300  12.683   8.273 -0.2382  0.0434 -0.0975
91991W        W34982  16.085  24.295  14.426  0.1923 -0.1070  0.1642
91992W        W34983  22.833  20.610  17.158  0.2427  0.0940  0.0873
91993W        W34984  13.194  22.327  28.492 -0.1394 -0.0734 -0.4181
91994W        W34985  11.861  18.790  18.759 -0.2347 -0.0617  0.2481
91995W        W34986   2.857   9.500  26.630 -0.0552 -0.0266  0.3739
91996W        W34987  20.014   9.986   2.006 -0.0268  0.0838  0.0674
91997W        W34988  22.092  26.308  18.502 -0.0155  0.1454  0.2402
91998W        W34989  15.579  11.719  10.369 -0.0310  0.1237  0.0726
91999W        W34990  31.930  15.731  26.193  0.0435  0.2128 -0.0986
92000W        W34991  23.348  21.808  19.120 -0.0385  0.0126  0.1164
92001W        W34992  17.094   1.902  19.348 -0.3396  0.5183 -0.0411
92002W        W34993  21.736  31.951  25.141 -0.0426 -0.3039 -0.0561
92003W        W34994  20.711   0.971  23.058  0.0124  0.0186  0.1215
92004W        W34995  14.249  15.988  24.582  0.3706 -0.5989  0.3363
92005W        W34996  31.566   1.054  15.457  0.2225 -0.0540  0.0490
92006W        W34997  20.460  12.222   3.062 -0.0423 -0.0018  0.1346
92007W        W34998  34.502  33.674  20.428 -0.1997  0.0251 -0.0571
92008W        W34999  20.818  34.529   7.942 -0.2647  0.1256 -0.0652
92009W        W35000  20.735  28.768  18.538 -0.3623  0.2598  0.2734
92010W        W35001  19.610  24.058   1.983 -0.0523  0.0351 -0.0082
92011W        W35002   5.608  20.945  27.832  0.3784  0.1405 -0.2206
92012W        W35003  12.500  28.718  26.637  0.1760  0.0190  0.3479
92013W        W35004  12.232  13.168  27.525  0.3826 -0.2561 -0.0446
92014W        W35005  10.354  32.194  16.278 -0.1376  0.2286  0.0709
92015W        W35006  12.422  31.541  19.743  0.1139  0.2217  0.3274
92016W        W35007  32.446  19.580  26.251 -0.0288 -0.2692 -0.1101
92017W        W35008  22.228  18.075  20.116 -0.2330 -0.2901 -0.2134
92018W        W35009  11.003  31.739   1.862 -0.1944 -0.2380  0.1495
92019W        W35010  26.066   6.639  23.482 -0.0223 -0.1251 -0.0313
92020W        W35011  30.314  21.064  18.212  0.2496  0.0256  0.1502
92021W        W35012   0.866  21.085  14.501  0.2520  0.1370  0.1545
92022W        W35013  22.043  27.745   1.583  0.0444 -0.3342  0.2152
92023W        W35014  25.314  16.195  23.033 -0.1429 -0.2480  0.0907
92024W        W35015  27.114  19.762  14.350  0.0508  0.3893  0.0413
92025W        W35016   0.210   4.845  19.790 -0.3611  0.1476  0.0154
92026W        W35017  15.572  29.535  25.049 -0.2874 -0.1202  0.0548
92027W        W35018  22.129  12.505   0.760  0.0468 -0.0785 -0.0082
92028W        W35019   7.072  13.711   3.224 -0.3015 -0.1983 -0.0462
92029W        W35020  30.674  21.615  27.759 -0.3437 -0.0027 -0.0506
92030W        W35021  25.002   7.167   6.128 -0.3177 -0.3179  0.1729
92031W        W35022  23.382  22.221  15.430 -0.1928  0.0802  0.2405
92032W        W35023   0.577  22.397  24.338 -0.4141 -0.3159 -0.1061
92033W        W35024  18.313  16.826  18.310  0.1568 -0.1612 -0.0690
92034W        W35025  26.115  17.557  29.137  0.1293  0.0847 -0.0798
92035W        W35026  30.948  15.838   5.258 -0.0464  0.0527  0.0497
92036W        W35027  26.156  29.226  16.694 -0.0296  0.0478  0.0257
92037W        W35028  20.863  16.514  17.608 -0.0332  0.1580 -0.0959
92038W        W35029  28.919  30.371  18.082 -0.3060  0.2569  0.2376
92039W        W35030   8.845   5.819  22.830  0.1478 -0.0299 -0.0430
92040W        W35031   9.207  20.171   6.001 -0.1537 -0.0071  0.0545
92041W        W35032   3.982  14.473   4.663  0.2777  0.0958  0.2219
92042W        W35033  24.219  14.428   6.655 -0.0234 -0.3075 -0.4059
92043W        W35034   6.457  33.457  19.113 -0.1396 -0.0695  0.0696
92044W        W35035  22.731  20.656   3.959  0.0915  0.1061 -0.0406
92045W        W35036  30.018  17.397  19.472 -0.2993  0.0625 -0.2004
92046W        W35037  17.278  21.397  13.718 -0.2170  0.2286 -0.1807
92047W        W35038  23.051  16.626   0.236  0.0886 -0.2035 -0.2579
92048W        W35039  28.765  18.693  24.522 -0.0592  0.1420  0.1917
92049W        W35040  25.130  30.455   1.553  0.0263 -0.0359  0.1945
92050W        W35041  33.754  26.251  28.417 -0.0760 -0.3272 -0.2537
92051W        W35042  27.023  25.592   8.142  0.0144 -0.0845  0.0164
92052W        W35043   4.426  10.092  19.797 -0.1945  0.1350  0.0417
92053W        W35044  28.044  26.474  13.053 -0.0261 -0.1229 -0.0926
92054W        W35045  29.904  34.351  20.218  0.1049 -0.1012  0.1410
92055W        W35046  14.039   5.994   9.768  0.0229 -0.4897 -0.1366
92056W        W35047  15.650  20.616  15.479  0.3724  0.0929 -0.0863
92057W        W35048  21.543  17.523   6.005 -0.2321 -0.0069  0.1231
92058W        W35049  20.188  24.732   6.611  0.0680  0.0794  0.0962
92059W        W35050  21.986  27.203  25.353  0.0189  0.0742 -0.0534
92060W        W35051  28.803   8.964  15.765 -0.1852 -0.1425  0.2065
92061W        W35052  30.290  13.130   0.681 -0.0139 -0.1782  0.5362
92062W        W35053  24.363   7.040  24.399 -0.0893  0.0210 -0.0921
92063W        W35054  19.406  27.975  23.028  0.2057 -0.0214 -0.2080
92064W        W35055  19.653  13.421   9.211 -0.0467  0.0299 -0.0134
92065W        W35056   5.460  28.515   7.714 -0.1509 -0.1555 -0.0195
92066W        W35057  21.168  23.334  27.237 -0.1456  0.2128  0.2196
92067W        W35058  20.103  17.631  26.689 -0.1730 -0.0216  0.2907
92068W        W35059  26.599  12.939   7.842 -0.0414 -0.2949  0.0607
92069W        W35060   6.040  24.825   5.730  0.2633 -0.1866 -0.0039
92070W        W35061  23.681   7.066  21.806 -0.0379 -0.1209  0.1902
92071W        W35062  20.212  26.055  28.600  0.0351  0.1069 -0.3769
92072W        W35063  19.782  22.646  18.855  0.2680  0.1485  0.3006
92073W        W35064  24.436  11.287  23.063  0.0292  0.3287 -0.0329
92074W        W35065   8.505  25.343  16.335 -0.0547  0.2729  0.0899
92075W        W35066  11.144  17.094   4.962 -0.0361  0.3850 -0.5027
92076W        W35067  14.206  24.426   4.049  0.3330 -0.0722  0.1534
92077W        W35068  21.573  16.976  22.144 -0.0937  0.3364 -0.0426
92078W        W35069  19.584   3.198   9.215 -0.0234 -0.0724 -0.0533
92079W        W35070  11.543  22.099   5.653  0.1508  0.0332  0.0186
92080W        W35071  24.051  10.372  15.336  0.4058 -0.1269 -0.1511
92081W        W35072  23.963  15.616   5.654 -0.0265  0.2570 -0.1527
92082W        W35073  29.053  33.573  16.119 -0.0825 -0.1400 -0.3528
92083W        W35074   8.580  32.378  14.422  0.0201  0.4378 -0.0810
92084W        W35075  17.329  23.110  18.470 -0.0451 -0.1179 -0.2111
92085W        W35076   7.543   6.560  22.410 -0.1253  0.1878  0.0116
92086W        W35077  31.845  30.374  21.359  0.0870  0.1444  0.2837
92087W        W35078  25.003  16.333   5.820  0.2499 -0.1437  0.0696
92088W        W35079  26.054  32.669   0.933  0.1514  0.2160  0.0118
92089W        W35080   1.507  33.129  27.745  0.0576 -0.2822  0.0776
92090W        W35081  23.774  27.441  19.361  0.2347  0.0549 -0.0816
92091W        W35082  27.827   9.500  24.589 -0.0953 -0.0261 -0.1829
92092W        W35083  10.714  15.570   0.318  0.0204 -0.2265 -0.1269
92093W        W35084  26.785  32.887  29.082  0.0760  0.0654 -0.2656
92094W        W35085  15.619  15.957   7.285  0.4144 -0.0459  0.2556
92095W        W35086  13.623  15.158  23.752 -0.2443  0.0229 -0.2115
92096W        W35087   3.578   1.072  19.841 -0.1165 -0.2459  0.1867
92097W        W35088   1.563  34.187   6.829 -0.1574 -0.1494  0.0310
92098W        W35089  25.280   4.948  17.133  0.0102  0.0429  0.0914
92099W        W35090  22.557  20.334  19.752  0.1149  0.0191  0.2515
92100W        W35091  26.509  30.977  20.134  0.2010  0.0445  0.1120
92101W        W35092  24.507  26.518  24.969  0.0348 -0.0053  0.2238
92102W        W35093  21.215  20.706  25.806 -0.4386  0.0106 -0.0540
92103W        W35094   9.541  34.332  26.294  0.0034 -0.1382  0.0245
92104W        W35095  21.223  25.584   9.259 -0.0778 -0.0934 -0.2882
92105W        W35096  33.382  30.353  16.714 -0.1207 -0.1125  0.0078
92106W        W35097   3.940  28.385  25.714 -0.2289 -0.2667  0.1922
92107W        W35098  33.966  10.423  25.220 -0.1265 -0.1468 -0.4037
92108W        W35099   2.356  17.708  26.199  0.1058 -0.1899 -0.2400
92109W        W35100  21.618  17.946   1.181  0.2990 -0.1997  0.0157
92110W        W35101   9.266  27.067  25.798 -0.2228  0.0487 -0.0240
92111W        W35102  27.555  20.463  28.799  0.0930 -0.2229  0.0912
92112W        W35103  31.475  31.434  14.806 -0.0897  0.1379  0.0425
92113W        W35104  16.866  17.742   1.610  0.0768 -0.3041  0.2170
92114W        W35105   6.259  18.406   6.776  0.1346 -0.0081  0.1310
92115W        W35106  34.705   4.020   7.548 -0.0877 -0.2194  0.0060
92116W        W35107  24.097  22.474  13.625  0.0048 -0.0947  0.1280
92117W        W35108  28.316  18.941  17.931  0.0240  0.1474 -0.0627
92118W        W35109  22.465  15.316  26.527 -0.1835  0.1190  0.0312
92119W        W35110  12.755  17.539   9.326  0.2108  0.0704 -0.0001
92120W        W35111  13.487  14.360   5.001 -0.0427  0.0144  0.1403
92121W        W35112  26.028  21.961   8.294  0.0697 -0.3672 -0.3933
92122W        W35113  30.908  22.864   8.142  0.0606 -0.1740  0.0136
92123W        W35114  12.399  19.099  22.810  0.1046 -0.0222 -0.1954
92124W        W35115  18.920  20.685  25.732  0.0201 -0.0586 -0.0651
92125W        W35116  18.880  18.860  20.220  0.0374  0.3416 -0.3513
92126W        W35117  17.020  15.592  12.067 -0.2652  0.2688  0.1514
92127W        W35118  18.112   4.114   1.720  0.2703  0.0728  0.0049
92128W        W35119   8.592  19.739  21.243  0.0910  0.0886  0.0344
92129W        W35120   5.453   9.308   4.041  0.0475 -0.0172 -0.0159
92130W        W35121  24.680   7.953  22.389  0.0097  0.1429  0.0226
92131W        W35122  18.767   4.290  23.379 -0.0708 -0.0842  0.0802
92132W        W35123  20.559  29.728  15.384  0.0919 -0.2934  0.0380
92133W        W35124  15.051  12.789  27.169 -0.1593  0.2074 -0.3327
92134W        W35125   3.838  14.814   3.202 -0.1021 -0.0690  0.3191
92135W        W35126  21.860  19.991   8.812  0.1268 -0.3058  0.0085
92136W        W35127  31.672  31.482  15.241 -0.0448  0.1129  0.0306
92137W        W35128  23.100  20.437  27.617  0.0069 -0.1946  0.2344
92138W        W35129  21.949  34.557  13.735  0.4281  0.0665 -0.0048
92139W        W35130  24.468  18.708  22.087  0.3427  0.2582  0.0238
92140W        W35131  28.027  32.335  25.538 -0.0033 -0.2704  0.0468
92141W        W35132  25.166   3.044  16.360 -0.3502  0.0690  0.0065
92142W        W35133  30.632   7.233  14.463 -0.1499  0.0113 -0.1475
92143W        W35134   6.899  27.325  20.923 -0.0337 -0.1827  0.0801
92144W        W35135  15.642  26.262  10.034  0.0745 -0.0883 -0.2532
92145W        W35136  23.455  30.138  29.033 -0.0886  0.0710  0.2735
92146W        W35137  31.293  18.001  23.891 -0.0167  0.4723 -0.0211
92147W        W35138  19.270  11.562   0.784 -0.0965  0.2130 -0.1737
92148W        W35139  14.722  20.720  17.655  0.0650  0.3952 -0.0165
92149W        W35140  18.630   1.817  26.864 -0.1067  0.1264  0.1082
92150W        W35141   0.631  21.860   6.788  0.0529 -0.0650  0.3632
92151W        W35142  22.585  25.415  19.870 -0.3023  0.1329  0.1547
92152W        W35143   1.712   3.353  24.500 -0.1652  0.1076  0.0785
92153W        W35144   2.267  16.910   9.266 -0.2401  0.1056 -0.1213
92154W        W35145  24.268  20.087   3.831 -0.3306 -0.3104 -0.0617
92155W        W35146  15.264  17.113  28.840 -0.0253  0.0235 -0.1304
92156W        W35147  32.137  11.179   0.640  0.3212  0.1404  0.1942
92157W        W35148  24.213  22.379  22.974 -0.1382 -0.0943 -0.0343
92158W        W35149  17.515   3.602   3.114 -0.2973  0.1610 -0.1019
92159W        W35150  13.541  26.523   2.096  0.0906  0.0571  0.1339
92160W        W35151  18.520  31.903  29.183 -0.3104  0.0805  0.1129
92161W        W35152   4.041  18.618  28.271  0.0117  0.0957 -0.0205
92162W        W35153  32.135  24.432  25.316  0.0557  0.2302  0.0104
92163W        W35154  24.840  17.196   1.087 -0.3362 -0.1062  0.1123
92164W        W35155  22.166  18.218  16.552  0.0027 -0.1379  0.0816
92165W        W35156   4.896   6.564  24.901 -0.2762  0.2831  0.1548
92166W        W35157  28.751   5.947  22.261 -0.1246  0.1877 -0.0700
92167W        W35158  30.369  24.866  19.260 -0.3354 -0.0303  0.0757
92168W        W35159  23.911   8.494  13.464  0.3675 -0.5333  0.1413
92169W        W35160  12.506  25.360  17.449 -0.2730 -0.2568 -0.4675
92170W        W35161  10.958  25.579  19.365 -0.1763 -0.1269 -0.1385
92171W        W35162  30.422  23.759   7.742  0.0036  0.2274  0.2003
92172W        W35163  28.342   6.812   2.164  0.1365 -0.0622 -0.0658
92173W        W35164  28.321  34.213   3.468  0.3034 -0.0465  0.0540
92174W        W35165  31.002  33.007  28.396  0.3556  0.2661  0.0863
92175W        W35166   0.550  27.714  15.428 -0.1004 -0.1342 -0.1670
92176W        W35167   8.433  19.016   5.464 -0.2184 -0.1883  0.1276
92177W        W35168  16.310  16.916  20.977 -0.0054  0.1850  0.1112
92178W        W35169  11.003  23.223  18.449 -0.0389 -0.0055  0.3550
92179W        W35170  28.945   4.766  28.606  0.0277  0.3494 -0.1834
92180W        W35171   8.951  13.840  21.539  0.0589 -0.0495 -0.0560
92181W        W35172  25.927  13.604  16.969  0.2333  0.1092 -0.1350
92182W        W35173  25.389  21.808  27.966  0.0923  0.0025 -0.1141
92183W        W35174  14.064  22.749  20.595 -0.0802  0.3091  0.0084
92184W        W35175  24.840  16.805   5.847  0.1450 -0.2193  0.1412
92185W        W35176   8.807  14.323  21.566  0.2462 -0.0397 -0.2066
92186W        W35177  22.620  19.431  27.433  0.1928 -0.1019 -0.0672
92187W        W35178  16.810  25.972   9.016 -0.1077 -0.3426 -0.0297
92188W        W35179  25.667  21.596   2.599  0.3489 -0.2747 -0.1220
92189W        W35180  18.818  29.246   7.211 -0.0597 -0.0963  0.0634
92190W        W35181  21.174  24.679   6.495  0.1481  0.0734 -0.0131
92191W        W35182   8.613  34.142  26.641  0.1335  0.1951  0.1518
92192W        W35183  21.057  19.887  29.088 -0.1011 -0.0382 -0.1731
92193W        W35184   2.379  12.463   1.925  0.3003  0.3377  0.1039
92194W        W35185  33.984  11.780  11.132  0.3899  0.1044 -0.0132
92195W        W35186  26.106  13.666   7.262 -0.2994 -0.1282  0.2075
92196W        W35187  24.846  14.289  26.461  0.2899  0.0078 -0.4011
92197W        W35188  19.495  18.831   1.123  0.0912  0.2388 -0.1600
92198W        W35189  17.623  24.077  27.158 -0.0754 -0.2219  0.0323
92199W        W35190  17.535  11.943   3.125  0.5745  0.1186  0.3012
92200W        W35191  20.042  16.651   3.372 -0.1227 -0.0279  0.1553
92201W        W35192  26.889   8.603  22.907  0.0533  0.0179 -0.0494
92202W        W35193  14.946  33.389   4.429 -0.1207  0.1609 -0.2198
92203W        W35194  28.368   9.712   2.644  0.0035  0.2644  0.1391
92204W        W35195  23.517  25.721   3.484 -0.2140 -0.1045 -0.0360
92205W        W35196  17.769  20.046   3.078  0.0697  0.0538  0.3478
92206W        W35197  14.535  19.877   0.820  0.1153  0.1866 -0.1132
92207W        W35198  28.835  24.091  27.820  0.0835  0.0024  0.0289
92208W        W35199  26.067  23.926  19.515 -0.1502 -0.0743 -0.0398
92209W        W35200  21.001  10.190  19.806  0.3365  0.2578 -0.3362
92210W        W35201  25.191  18.425  27.405 -0.0896 -0.2709 -0.0013
92211W        W35202  10.166  21.016  26.595  0.0006 -0.1032 -0.1426
92212W        W35203   4.110   5.615  22.897  0.1328  0.1145 -0.1156
92213W        W35204   7.545  22.961   8.404  0.2375  0.0551 -0.0241
92214W        W35205  16.429  22.747  19.185 -0.3591 -0.2334 -0.1077
92215W        W35206   9.917  20.948  24.417 -0.1740 -0.1162 -0.0421
92216W        W35207  21.704  11.487  20.362 -0.0008  0.1907 -0.2816
92217W        W35208   9.354  24.812   0.591  0.0406  0.1317 -0.0079
92218W        W35209  11.810  21.628  15.395 -0.2545 -0.1959 -0.1273
92219W        W35210   9.195   4.694  27.925  0.1020  0.2448 -0.0410
92220W        W35211  19.042  16.658  27.972  0.1332  0.1294  0.0336
92221W        W35212  21.008  18.353   3.557  0.2466 -0.2375 -0.1381
92222W        W35213  26.435  28.277  22.664 -0.0541 -0.1337 -0.0991
92223W        W35214  25.488   6.139  22.989  0.0457  0.0231  0.1585
92224W        W35215  15.646  23.659  18.769  0.0608 -0.1036 -0.2612
92225W        W35216  22.988  13.658   7.483  0.1513 -0.0010  0.0824
92226W        W35217  12.217   0.500   1.345  0.1329  0.3147  0.0413
92227W        W35218  30.766  19.341   2.469  0.0493  0.1210 -0.0710
92228W        W35219  15.040  27.727   8.416 -0.0898 -0.0505 -0.3073
92229W        W35220  22.454  30.532  15.830  0.0956 -0.0816 -0.0646
92230W        W35221   0.179  23.119  28.094  0.0199  0.0333  0.1731
92231W        W35222  25.411  14.018  14.927 -0.0531 -0.3569 -0.0312
92232W        W35223  21.834  19.317   2.280 -0.3515 -0.0097 -0.0253
92233W        W35224  21.437   7.964   4.758 -0.0774 -0.1398 -0.1133
92234W        W35225  23.374   5.112  26.977 -0.2643 -0.0170 -0.0942
92235W        W35226  18.479  16.494   5.160 -0.1017 -0.2352  0.0417
92236W        W35227  14.856  21.808  27.887 -0.2430  0.0398  0.0375
92237W        W35228  20.760  15.538  22.939 -0.1345 -0.1113  0.0806
92238W        W35229  16.684   1.039  19.672  0.4373 -0.0697 -0.1681
92239W        W35230  21.376  28.957   7.680  0.3618  0.2924  0.1518
92240W        W35231  19.353  22.143   6.598 -0.1924  0.1278  0.1061
92241W        W35232   4.649  25.581   1.191  0.0103 -0.2796 -0.0652
92242W        W35233  22.420  13.532   1.726  0.1363  0.0375 -0.2081
92243W        W35234  10.043  16.182  24.427 -0.1210 -0.2928 -0.1280
92244W        W35235   0.271  24.276   5.580 -0.5731 -0.1314  0.1284
92245W        W35236  15.152  26.468  20.641  0.4707 -0.1967 -0.0898
92246W        W35237  15.505  23.031  19.430  0.0908  0.1265 -0.0685
92247W        W35238  29.951  15.465   9.231  0.4289 -0.1599  0.1707
92248W        W35239  24.825  25.926  13.560 -0.0454 -0.2356 -0.0427
92249W        W35240  17.704  12.886  29.160 -0.2825  0.0696 -0.1641
92250W        W35241  14.925  15.597  15.611 -0.1438 -0.4376  0.2739
92251W        W35242  31.815  17.251  29.104  0.2836  0.1446 -0.1126
92252W        W35243  25.957  16.358  14.188 -0.1170  0.2183 -0.1657
92253W        W35244   9.677  10.049  19.204  0.0464  0.2158  0.0315
92254W        W35245  29.912  14.448  15.687  0.0258  0.2880  0.0388
92255W        W35246  16.307  24.859  14.529  0.0047  0.0132  0.4034
92256W        W35247  18.836  14.322  16.094  0.1951  0.5274  0.0316
92257W        W35248  33.481  23.324  25.295  0.1149 -0.0882  0.1678
92258W        W35249  34.710  23.050  25.025  0.0787 -0.3035  0.0560
92259W        W35250   8.481   7.277   6.550  0.3273  0.0429  0.1496
92260W        W35251   2.837  33.917  21.773 -0.0107  0.5341 -0.0294
92261W        W35252  23.629  32.715  27.885  0.1077  0.0340 -0.3853
92262W        W35253  18.254  10.302  29.251 -0.3336  0.2456 -0.4236
92263W        W35254  30.178   3.101  14.457 -0.3166 -0.2838  0.0272
92264W        W35255  28.603  17.016   6.536 -0.0236 -0.1259  0.0588
92265W        W35256   9.720  21.297   1.445 -0.3402 -0.1719  0.1593
92266W        W35257   3.352  12.374   1.974  0.0156 -0.3437  0.1678
92267W        W35258  27.368  22.689  23.903  0.1810  0.1656 -0.0847
92268W        W35259  29.239  32.558   3.137  0.1180  0.1109 -0.0048
92269W        W35260  17.709   9.747  24.669 -0.1917  0.1921  0.0440
92270W        W35261  22.634  20.214   5.397 -0.0665  0.0726 -0.0658
92271W        W35262  16.348  27.533  21.789  0.1536 -0.2039 -0.2008
92272W        W35263   8.674  21.322   3.941 -0.2176  0.3373  0.0636
92273W        W35264  12.864   6.110  11.130 -0.0254  0.1801  0.0547
92274W        W35265   1.730  19.286  19.803  0.1948 -0.0459  0.0480
92275W        W35266   9.795  16.614  28.477 -0.0876  0.0194 -0.1428
92276W        W35267  31.765  14.675   7.607  0.2335 -0.1625 -0.1285
92277W        W35268  18.447   8.611   2.436 -0.1169  0.1471 -0.1324
92278W        W35269  19.404  24.244   2.470  0.1516 -0.2624  0.2647
92279W        W35270  24.741  27.795  23.343 -0.1978 -0.1294  0.0274
92280W        W35271  12.697   9.857  11.445 -0.1559 -0.1543  0.1839
92281W        W35272  34.299  23.764   2.046 -0.2123  0.2702  0.1523
92282W        W35273  18.840  28.502  19.504  0.4152 -0.1898  0.0627
92283W        W35274  20.894  17.784  28.245 -0.1320 -0.2782 -0.1466
92284W        W35275  32.606  13.205  10.156 -0.1124 -0.2212  0.0974
92285W        W35276  18.635  11.937  27.987 -0.2226 -0.1223 -0.2710
92286W        W35277  30.634  13.907   4.528 -0.1133  0.1828  0.0352
92287W        W35278  15.488  19.904  27.819 -0.0074  0.0542 -0.0954
92288W        W35279  24.505   4.181   6.452 -0.0765  0.1012 -0.0143
92289W        W35280  26.547  17.128   9.600  0.1048  0.2173  0.3292
92290W        W35281   7.982  28.454   0.786 -0.2082  0.2041  0.1237
92291W        W35282  29.750  14.464  27.474  0.4122 -0.1958 -0.0148
92292W        W35283  12.582  27.974  19.759  0.1583 -0.0425 -0.1666
92293W        W35284  17.362   0.453  28.847 -0.2710  0.1905 -0.2096
92294W        W35285   7.984  22.347  14.781 -0.1872 -0.1363 -0.0294
92295W        W35286  18.318  20.348   0.792  0.0313 -0.1827  0.1546
92296W        W35287  26.832  19.747  22.824  0.1560  0.0564 -0.3002
92297W        W35288   4.501  20.646  24.923 -0.2971 -0.0856  0.2129
92298W        W35289  20.933  25.131  19.221 -0.2220  0.0905  0.1460
92299W        W35290  24.562  10.113   5.042  0.0182  0.0620  0.3076
92300W        W35291  18.510  27.034  21.564 -0.0787 -0.0552 -0.0041
92301W        W35292  10.999  20.168  22.319 -0.0856  0.3753  0.1341
92302W        W35293  21.921  29.946  25.121  0.1123  0.0538  0.2900
92303W        W35294  15.830  27.452   5.704 -0.0633 -0.0114 -0.1979
92304W        W35295  32.932  23.630  27.890 -0.0241  0.4537  0.0046
92305W        W35296  13.871  13.641   8.370  0.0011  0.1647 -0.0474
92306W        W35297  15.813  25.724   4.451  0.2429 -0.0230  0.2126
92307W        W35298  10.573  25.383  26.840 -0.2801  0.1018  0.1491
92308W        W35299  16.782  25.115  26.493 -0.0768  0.1498 -0.0367
92309W        W35300  10.549  15.153   5.583 -0.0431  0.0126  0.0545
92310W        W35301   4.002   3.920  23.240  0.1553  0.5426  0.0643
92311W        W35302  22.580   9.756   7.642 -0.1559 -0.1862 -0.1047
92312W        W35303  15.354  10.635  23.517 -0.3796  0.0283 -0.2248
92313W        W35304  17.681  27.306   4.158  0.1484  0.0574 -0.0899
92314W        W35305  22.065   6.808  14.377  0.0419 -0.0217  0.0827
92315W        W35306   1.247  27.208   5.275  0.3438  0.0228  0.1717
92316W        W35307  17.653  19.037   2.504  0.3133  0.0306 -0.0024
92317W        W35308   4.828   3.333   9.325  0.2831  0.4965  0.1683
92318W        W35309   7.592  15.587  16.849  0.0030 -0.2765 -0.0171
92319W        W35310  21.537  27.620  24.464 -0.1671  0.1573  0.2297
92320W        W35311  19.581  12.785  26.201 -0.1563  0.2461 -0.1281
92321W        W35312  23.482  23.112   1.298 -0.2313 -0.1013  0.0317
92322W        W35313   6.396  22.821  16.300 -0.3170  0.2826  0.3238
92323W        W35314   5.537  31.251   1.518 -0.2235 -0.0305 -0.0439
92324W        W35315   8.157  12.269  23.641 -0.1057  0.2429  0.1156
92325W        W35316   9.323  17.642  28.480 -0.0220 -0.1352 -0.1846
92326W        W35317   3.677  25.173   7.352 -0.2910  0.0256  0.0021
92327W        W35318  14.112  10.661  21.932 -0.1654  0.0409 -0.2000
92328W        W35319  26.128  15.508   8.426  0.1719  0.5129  0.1258
92329W        W35320  28.758  19.218  18.598  0.2023  0.0720 -0.4268
92330W        W35321  22.591   2.207   7.620 -0.4134  0.2843  0.0710
92331W        W35322  20.696  18.002   3.408 -0.1424 -0.0691 -0.0053
92332W        W35323   2.917  24.637   0.385  0.0149  0.1246  0.0430
92333W        W35324  13.450  18.257  17.225 -0.1115 -0.1395 -0.2987
92334W        W35325  34.329  26.729  28.753  0.3381  0.0239  0.1669
92335W        W35326  20.856  23.668  22.269  0.1659  0.1802  0.1473
92336W        W35327  26.977  20.832   9.746 -0.1252  0.4001 -0.0685
92337W        W35328   2.118  12.422  22.757  0.1223 -0.0086 -0.0283
92338W        W35329  31.463  21.731  22.120  0.0987  0.2316  0.4121
92339W        W35330  23.734  29.050   6.312  0.3690  0.0503 -0.4396
92340W        W35331  30.277  21.139   4.593  0.2745 -0.1607  0.1861
92341W        W35332   7.430  24.238   1.642  0.5248 -0.2924 -0.2370
92342W        W35333   8.359  29.312   7.340  0.1285  0.1725  0.3443
92343W        W35334  13.258  20.510   4.893  0.1816 -0.0224  0.0159
92344W        W35335   3.956  22.336   2.592  0.2069  0.0794 -0.2020
92345W        W35336  23.174  14.235  21.951 -0.1004 -0.1720 -0.0048
92346W        W35337  24.168  17.291  25.855  0.0878 -0.2152 -0.3281
92347W        W35338  28.288  25.113   4.741  0.2077  0.2024 -0.1317
92348W        W35339  24.081  15.573   3.505  0.0378  0.1305  0.1644
92349W        W35340  15.015   8.266   5.051  0.0256  0.2013  0.0247
92350W        W35341  24.723  15.294  25.172 -0.0139 -0.2927  0.1407
92351W        W35342   7.765  12.647  19.648  0.0455  0.0119 -0.1203
92352W        W35343  19.005  25.151   4.323  0.1392  0.0396 -0.3424
92353W        W35344  11.559   3.700  27.761 -0.1155 -0.1702 -0.0736
92354W        W35345   6.311   9.504   4.096  0.1611  0.0867 -0.2918
92355W        W35346   9.217  30.744  10.015  0.2104  0.1800 -0.1424
92356W        W35347  18.996  22.509  18.429 -0.0587  0.1836  0.1645
92357W        W35348  15.369  17.515  21.004  0.1599 -0.2744 -0.1721
92358W        W35349  24.240  30.747   4.960 -0.0396 -0.1855  0.1454
92359W        W35350  23.501  18.991  25.088  0.2196  0.2864  0.1285
92360W        W35351  22.188  20.562   3.626 -0.1874 -0.0479  0.2364
92361W        W35352  24.014  33.818  24.397  0.0746 -0.0820  0.4080
92362W        W35353  15.481  30.780   3.051  0.2798 -0.0948  0.1215
92363W        W35354   2.084  32.231   2.135  0.0732 -0.0283 -0.1168
92364W        W35355  16.051  23.590  20.644  0.2899 -0.1270 -0.0683
92365W        W35356  21.750   7.068   8.709  0.0521  0.1836  0.2923
92366W        W35357  13.868  22.576  27.830  0.1449 -0.3366 -0.1195
92367W        W35358  28.899  30.788  27.507  0.4412  0.0922  0.2628
92368W        W35359   5.192  27.654  17.172 -0.2393 -0.1131 -0.0263
92369W        W35360  24.252  28.830  28.578 -0.2641  0.0590  0.2114
92370W        W35361  17.053   4.871   1.918 -0.0517  0.0949 -0.1657
92371W        W35362  12.758  21.095  28.077  0.0358 -0.2642  0.2822
92372W        W35363  12.005   2.437   8.541 -0.1903  0.5710  0.2803
92373W        W35364  14.241   9.329  10.604 -0.2740 -0.2939  0.2154
92374W        W35365  10.066  21.553   6.263  0.0406 -0.1278  0.1778
92375W        W35366  21.818   9.269  26.979 -0.2445  0.0086  0.0704
92376W        W35367   6.477  25.638  14.179  0.0846 -0.1084  0.0314
92377W        W35368  16.378  16.025   9.530  0.0510  0.0045  0.0287
92378W        W35369  15.301  23.077   7.100 -0.1105  0.3671  0.0019
92379W        W35370  14.763  16.822   6.202  0.1264  0.0601  0.2513
92380W        W35371   3.614  21.745   5.628  0.4690  0.1040  0.1539
92381W        W35372  21.549  22.095  29.029 -0.4047 -0.1336 -0.2656
92382W        W35373  19.361  25.579   5.011  0.0452  0.3261 -0.0040
92383W        W35374  22.945  14.159  19.363  0.1044 -0.2855 -0.0587
92384W        W35375  11.285  15.728  17.619  0.1174 -0.1092 -0.5060
92385W        W35376   3.965   3.320   3.689 -0.2032 -0.1915  0.3570
92386W        W35377  14.803  19.324   6.274  0.1423 -0.1616  0.0046
92387W        W35378  22.182   3.764   5.653 -0.0567  0.1243 -0.0333
92388W        W35379  18.022  15.169  27.061 -0.0197 -0.0678  0.3390
92389W        W35380  13.492  18.351  26.510 -0.3955 -0.1276  0.0685
92390W        W35381  18.584  29.437  17.305 -0.0921 -0.0830 -0.2891
92391W        W35382  14.772   6.804   4.146 -0.0332 -0.3558  0.1440
92392W        W35383  14.205   8.005  26.336  0.0284  0.0797 -0.1357
92393W        W35384   3.244  15.348  25.200  0.2282 -0.0175 -0.0943
92394W        W35385  25.938  28.102  26.184 -0.2024  0.1733 -0.3152
92395W        W35386  16.114  10.813   6.022 -0.0353 -0.0019 -0.1343
92396W        W35387  18.859  14.900   2.547  0.1902  0.6691  0.0118
92397W        W35388   7.525  32.254  19.199  0.2416  0.1397  0.0102
92398W        W35389  11.283  28.260  27.950 -0.3379  0.0776  0.0639
92399W        W35390   3.831  19.507  23.168  0.0798 -0.0737 -0.3282
92400W        W35391  24.449  14.798   6.470  0.0397  0.5536 -0.0996
92401W        W35392  15.105  18.368   6.116 -0.2092 -0.1310 -0.0761
92402W        W35393  30.475  16.874  22.343 -0.2632 -0.0788  0.0643
92403W        W35394  15.283  24.276  14.858 -0.3023 -0.0027 -0.0878
92404W        W35395  13.831  31.231  25.861  0.4947  0.1283  0.2140
92405W        W35396  24.238  18.352  29.050  0.1518  0.2034 -0.0210
92406W        W35397  16.677  19.906   6.504 -0.1914 -0.1330  0.2464
92407W        W35398  12.141   0.926  28.757 -0.0965  0.0567  0.1487
92408W        W35399  22.620  34.716  21.751 -0.1725 -0.3702  0.0903
92409W        W35400   7.068  22.101   2.887  0.2118 -0.3848 -0.0105
92410W        W35401  20.275  20.629  23.568 -0.1419  0.0381 -0.2283
92411W        W35402  26.345  24.677  29.228  0.1939 -0.2168  0.1633
92412W        W35403  19.931   0.661   4.513 -0.1665  0.0251  0.0388
92413W        W35404  19.463  22.563  20.984 -0.0912 -0.1997 -0.3134
92414W        W35405  22.789  18.347   3.782 -0.1378 -0.0311 -0.0315
92415W        W35406  29.709  24.819  25.823 -0.1179 -0.0687  0.1593
92416W        W35407  31.662  32.229  24.652 -0.0906  0.4207  0.1544
92417W        W35408  25.817  17.604  27.776  0.1343  0.0461 -0.1853
92418W        W35409  13.874  14.763   0.669 -0.0461 -0.1601 -0.1056
92419W        W35410  23.963  23.439  25.823 -0.0132 -0.1821  0.1656
92420W        W35411   0.996  30.197  27.859 -0.0389  0.1369 -0.3156
92421W        W35412  15.797  11.194  27.849 -0.1034  0.0506 -0.4626
92422W        W35413  30.498  30.373  27.554  0.0691  0.3861  0.0193
92423W        W35414  16.851  18.536  26.388 -0.0923  0.0862 -0.3671
92424W        W35415  13.523  10.352   3.416 -0.0046  0.3040  0.1004
92425W        W35416  30.680  15.368  16.636 -0.0095 -0.1359 -0.0470
92426W        W35417  17.500  14.004   1.997  0.1254 -0.1991 -0.1082
92427W        W35418  24.622   7.913   3.799 -0.0097 -0.0327 -0.1424
92428W        W35419  28.394  27.076   0.475 -0.1097 -0.0277 -0.1420
92429W        W35420   6.012  23.687  22.856 -0.2248 -0.1621 -0.2000
92430W        W35421  34.480  22.434  24.123 -0.2249 -0.0564 -0.0504
92431W        W35422  18.046  11.714   9.284 -0.2169 -0.2436 -0.0801
92432W        W35423  29.753  24.332  22.788  0.1899 -0.5095  0.1858
92433W        W35424  20.533  24.614  16.440 -0.1295  0.3708 -0.3130
92434W        W35425  11.216  13.210   7.835 -0.0995 -0.4422 -0.6157
92435W        W35426  32.565  20.828   6.944  0.0655  0.1880  0.2577
92436W        W35427  16.493  21.353  22.664 -0.2669 -0.0478 -0.2357
92437W        W35428  34.328  22.214  26.632 -0.0637 -0.1800 -0.1585
92438W        W35429  30.624  14.128   3.444  0.0184 -0.0097 -0.1595
92439W        W35430  15.416  21.445  20.970 -0.1267  0.1143 -0.0508
92440W        W35431  19.715  11.526  21.703 -0.3099 -0.3043  0.2145
92441W        W35432  32.757   7.634   0.682  0.0465  0.1247  0.2089
92442W        W35433  13.996  21.918  19.298 -0.0806  0.1018 -0.0512
92443W        W35434   0.650  20.047  20.275 -0.2494 -0.3391 -0.0038
92444W        W35435  17.300  33.977  25.277  0.2152 -0.0881  0.1055
92445W        W35436   4.319  12.536   9.727 -0.1139 -0.1514  0.2990
92446W        W35437  29.472  27.259   5.772 -0.0828 -0.1565 -0.3444
92447W        W35438  30.407  12.087  26.143  0.2482  0.2069 -0.0895
92448W        W35439  31.419  34.246   4.316 -0.0355  0.2759 -0.1642
92449W        W35440  14.384  16.873  12.355  0.1456 -0.1440 -0.0032
92450W        W35441   6.510  14.862   3.919  0.1052  0.4307  0.3013
92451W        W35442  16.001   3.756   3.039 -0.2553 -0.1014  0.3924
92452W        W35443  23.475  23.426  17.568  0.2244  0.1196 -0.0177
92453W        W35444   9.037  30.413   8.800  0.3725  0.0701 -0.1056
92454W        W35445  20.926  10.681   5.201  0.0055 -0.2399 -0.0672
92455W        W35446   8.871  17.912   2.076  0.0206  0.2128  0.1660
92456W        W35447   8.041  24.474   3.323 -0.1071 -0.1243 -0.3055
92457W        W35448  26.450  11.248  14.656  0.2008  0.2835 -0.1423
92458W        W35449  20.019  28.901   2.360 -0.1633  0.0959 -0.0067
92459W        W35450  32.860  15.183   1.174  0.0172 -0.3475 -0.1394
92460W        W35451  20.549   8.900   2.374 -0.0476 -0.0534 -0.0774
92461W        W35452   5.869  13.371   6.079 -0.1162 -0.2517 -0.2757
92462W        W35453  16.117  20.650   7.362  0.2393  0.1879  0.2958
92463W        W35454  17.575   6.742  23.632 -0.0206 -0.4716 -0.0509
92464W        W35455  23.308  29.714   5.208  0.2169 -0.0511 -0.0294
92465W        W35456   2.127  12.327  27.700 -0.0264 -0.1240 -0.2000
92466W        W35457  27.732  27.849   8.611 -0.1689 -0.1914  0.1417
92467W        W35458  16.306   1.775   1.771  0.0904 -0.0669  0.0422
92468W        W35459  19.241  17.063  27.773  0.0750  0.1420  0.1509
92469W        W35460  20.384  27.523   4.832 -0.4180 -0.0910  0.0472
92470W        W35461   7.607  16.855  27.910  0.0835 -0.0646 -0.1963
92471W        W35462  20.438  22.692  27.139  0.4354 -0.2431 -0.1073
92472W        W35463  31.311  22.893   8.912 -0.1417  0.2129  0.0775
92473W        W35464   8.442  17.245  26.803  0.0994  0.1011 -0.2325
92474W        W35465  25.361  12.437   1.699  0.0846 -0.4243  0.4108
92475W        W35466  21.149  23.707   2.054 -0.0323  0.0672  0.3969
92476W        W35467  12.982  22.840  23.505 -0.0199 -0.1525  0.3784
92477W        W35468  24.205  11.436  24.013 -0.0078  0.2281 -0.3057
92478W        W35469   6.174  29.674   8.523 -0.1946  0.1791 -0.0718
92479W        W35470  18.175  25.986   6.965 -0.2082  0.0736 -0.2693
92480W        W35471   9.905  14.514  26.265 -0.1914  0.3383 -0.2118
92481W        W35472  24.048  31.650   5.217 -0.0366  0.1592 -0.0090
92482W        W35473  25.084  20.111  23.406 -0.0499 -0.0296  0.0611
92483W        W35474  28.987  27.904   3.576 -0.1670  0.0448 -0.2113
92484W        W35475  30.631  15.429   6.087  0.0414  0.1062  0.2466
92485W        W35476  27.400  17.951   9.279 -0.0904 -0.2550 -0.1044
92486W        W35477  18.437  22.268  27.388  0.1694  0.0637  0.0390
92487W        W35478   4.126  19.160  10.813  0.1150  0.2382 -0.3587
92488W        W35479  18.981  10.049   1.846 -0.1301 -0.2672 -0.3131
92489W        W35480  24.431   9.979   3.878  0.0856 -0.0069 -0.2557
92490W        W35481   2.219  32.688   2.379 -0.2660 -0.1060 -0.0318
92491W        W35482  15.084  23.857   5.179  0.1817  0.1185  0.1324
92492W        W35483  22.933  33.404   0.268  0.3085  0.0587  0.1039
92493W        W35484  29.895  26.953  17.721  0.1376 -0.0083  0.2628
92494W        W35485   6.522  22.101  26.107  0.3238 -0.0932 -0.0286
92495W        W35486  26.946   4.662  25.221  0.1465 -0.2830  0.2158
92496W        W35487   5.262  10.248  28.595 -0.0110  0.4775 -0.0304
92497W        W35488  23.490  22.590  22.399  0.0708 -0.0989 -0.1585
92498W        W35489   1.032  23.721   3.281  0.5285  0.1165 -0.1025
92499W        W35490   3.507  20.907   9.685 -0.0408  0.1804 -0.4822
92500W        W35491   8.894  19.103  10.206  0.1283 -0.3015  0.0039
92501W        W35492  27.631   2.941   8.322  0.2338  0.3391 -0.1159
92502W        W35493  20.798  23.122  16.168 -0.1042 -0.1207 -0.3690
92503W        W35494   7.623  13.865  19.139 -0.1718 -0.1579  0.3314
92504W        W35495  29.477  29.885   6.803  0.0598  0.1645 -0.1045
92505W        W35496   6.935  30.950  18.862  0.1050 -0.1923 -0.1841
92506W        W35497  28.010  18.921  22.775 -0.0781  0.0398  0.0908
92507W        W35498  28.494  27.837  22.724 -0.2357  0.0193  0.0916
92508W        W35499  22.821   3.737   3.832  0.1284 -0.0999  0.0714
92509W        W35500  25.679  17.499  28.248  0.0715 -0.2276  0.0449
92510W        W35501   7.542  21.451   0.621 -0.2496 -0.0981 -0.2563
92511W        W35502  23.107  26.726  25.402 -0.1270 -0.0676  0.3563
92512W        W35503  32.553  33.168  13.483  0.1006  0.1164  0.0622
92513W        W35504   6.139  22.506  16.563  0.3454 -0.0387 -0.0882
92514W        W35505  11.366  21.400  15.018 -0.0068 -0.1723  0.1368
92515W        W35506  13.637  30.663  15.447 -0.1426  0.0175  0.2059
92516W        W35507  27.103   3.299  19.050  0.1987 -0.3565  0.2341
92517W        W35508  28.237  14.810  22.860  0.0147 -0.0915 -0.1192
92518W        W35509  17.281  14.464  19.840  0.0617  0.0637 -0.0055
92519W        W35510  24.076  17.544  13.382  0.0526  0.3228  0.1899
92520W        W35511  13.093  17.115  13.614 -0.0719  0.2235  0.0376
92521W        W35512  22.391  28.838  23.519  0.0203  0.2795 -0.3112
92522W        W35513   0.125   8.248   8.521 -0.1865  0.1584  0.2138
92523W        W35514  16.242  13.382  19.039  0.1461 -0.0901  0.0003
92524W        W35515  12.082  12.221  10.303 -0.3307 -0.4231  0.0864
92525W        W35516  28.230  12.629  24.563 -0.4783 -0.3227 -0.0185
92526W        W35517  23.113  17.527  14.823  0.0748  0.2004  0.2253
92527W        W35518  20.713  30.013   1.637  0.0085 -0.0632 -0.1115
92528W        W35519  28.367   6.990  17.661  0.3119 -0.2283  0.2478
92529W        W35520   9.706  32.162   1.299  0.1542  0.0431  0.1407
92530W        W35521   8.707  12.731  19.546  0.1877  0.0242  0.0830
92531W        W35522  24.423  33.363  25.599 -0.5033  0.0701 -0.0022
92532W        W35523  28.970  33.711   2.859  0.2843 -0.3165  0.0865
92533W        W35524  17.493  10.547  17.519  0.3136 -0.1919  0.0300
92534W        W35525  20.511  29.675   5.809  0.1610 -0.0436 -0.0819
92535W        W35526  26.284  28.707  25.467  0.1323  0.2408  0.0120
92536W        W35527  31.169  26.612  29.189  0.1282 -0.0254 -0.1288
92537W        W35528   3.964  29.218  21.102 -0.0722  0.2239  0.1888
92538W        W35529  17.100  26.216  14.154 -0.0406  0.4403 -0.0889
92539W        W35530  33.508  19.209  25.936  0.0456  0.0701  0.0961
92540W        W35531  24.801  21.138  12.268 -0.0947  0.0713  0.0069
92541W        W35532  17.807   3.274  17.166  0.1163 -0.1933 -0.2006
92542W        W35533  26.354  27.841  13.399  0.2801 -0.2642 -0.3584
92543W        W35534  27.367  21.277   2.928  0.0471 -0.1296 -0.3186
92544W        W35535  21.642  23.983  23.261  0.1470  0.2478 -0.2152
92545W        W35536   0.073  19.539  17.106 -0.1277  0.2102 -0.1643
92546W        W35537  17.053   1.761  16.887  0.1914  0.1078  0.3880
92547W        W35538  11.703  19.245  24.639 -0.0534  0.0045  0.1101
92548W        W35539  11.867  21.267  19.835  0.1360  0.1018  0.0003
92549W        W35540  20.665   2.587   7.251  0.2006  0.1293 -0.0604
92550W        W35541  27.787  17.420   2.198  0.1202  0.0133  0.2807
92551W        W35542  21.158  13.585  20.089 -0.1520  0.1066 -0.0270
92552W        W35543  14.495  19.915  13.883  0.1670 -0.2398  0.1288
92553W        W35544  24.247  23.190  26.228 -0.1930  0.1961 -0.4478
92554W        W35545  21.884  25.828  24.167  0.2541 -0.3389 -0.1196
92555W        W35546  12.248  10.361  22.684 -0.2681 -0.1389  0.2529
92556W        W35547  19.909  27.714  17.386  0.1296 -0.1903  0.1463
92557W        W35548  30.158  18.757   0.404  0.1061 -0.0510 -0.3266
92558W        W35549   9.052  19.504  19.859  0.1705  0.0425 -0.0803
92559W        W35550  14.148  26.735  18.014  0.1037 -0.0997 -0.1215
92560W        W35551  32.318  27.804  21.407  0.2540  0.0718  0.1091
92561W        W35552  20.108   2.534  17.734 -0.2915  0.0801  0.1657
92562W        W35553  25.120   3.636  17.731  0.2963 -0.2977  0.1324
92563W        W35554  13.409  33.396  16.282  0.1163  0.3421 -0.0227
92564W        W35555  24.285  30.663   1.162 -0.0273  0.1717 -0.3057
92565W        W35556  27.024  26.785  17.361  0.3945  0.2853 -0.0513
92566W        W35557  13.388  24.995  23.625 -0.1819  0.1605  0.1090
92567W        W35558  12.603  18.977   0.806 -0.0431 -0.0311 -0.0005
92568W        W35559  10.823  21.165  16.112  0.0481 -0.3042  0.0360
92569W        W35560  20.751   3.496  16.284 -0.0194 -0.0701 -0.1303
92570W        W35561  19.970  24.472  13.656  0.1257  0.0764 -0.0794
92571W        W35562   4.066  17.940  24.315  0.2162  0.3493 -0.0582
92572W        W35563  14.505  22.910  20.712  0.2068  0.0586 -0.4097
92573W        W35564  20.448  15.532  13.335  0.1390 -0.1672 -0.0606
92574W        W35565  30.623  26.343  22.200 -0.2793  0.0582  0.0368
92575W        W35566   9.639  33.296  19.530  0.0808  0.3975  0.0741
92576W        W35567   8.845  31.367  20.579  0.0906  0.5156 -0.2181
92577W        W35568  20.198  13.541  23.530 -0.2400 -0.3607  0.0207
92578W        W35569   7.384  32.182  18.340 -0.4264  0.1019  0.0823
92579W        W35570   6.961  28.165  18.288  0.0224  0.1485  0.0542
92580W        W35571  22.425  11.917  16.150  0.0605  0.0211 -0.1176
92581W        W35572  22.092  31.767  16.897  0.2451 -0.0986 -0.0191
92582W        W35573  23.460  25.356  19.746  0.0390  0.2999  0.2712
92583W        W35574  27.879  18.077  17.577 -0.1828  0.1491  0.1686
92584W        W35575  20.145  31.367  23.783 -0.0401  0.1988 -0.5013
92585W        W35576  16.925  23.834  14.426  0.2476 -0.0546 -0.3334
92586W        W35577  21.062  18.670  27.057  0.0078 -0.2367 -0.1026
92587W        W35578  15.581  34.192  20.636 -0.0552 -0.0439  0.0823
92588W        W35579   2.160  17.960  27.679  0.2906  0.0349 -0.0959
92589W        W35580  20.591  17.147  23.429  0.4097  0.1791  0.3595
92590W        W35581  31.406  28.117  22.911  0.2047 -0.0429  0.0880
92591W        W35582   7.268  24.794  19.151  0.0020 -0.1306 -0.0721
92592W        W35583  16.341   0.299  18.565 -0.2018  0.1929 -0.2797
92593W        W35584  25.866   4.454  14.792  0.0054  0.0234  0.4343
92594W        W35585  34.010  23.591  29.205 -0.1992  0.0833  0.2198
92595W        W35586  19.304  23.695  12.490 -0.3502 -0.0038 -0.0191
92596W        W35587   3.581  24.819  16.432 -0.0504  0.0112 -0.1673
92597W        W35588  23.300   3.743  28.643  0.0619  0.0687  0.0388
92598W        W35589  29.105   8.158   6.296 -0.1991 -0.0823  0.1969
92599W        W35590  31.875  28.503  14.694 -0.2030 -0.0724  0.2386
92600W        W35591  15.317  33.435  16.864 -0.1057 -0.0469 -0.2947
92601W        W35592  31.554  21.024  13.867 -0.2687 -0.1662  0.3164
92602W        W35593  22.641  24.461  18.747 -0.1919 -0.2466 -0.2276
92603W        W35594  11.169  33.535  21.314  0.1189 -0.1109  0.1524
92604W        W35595  15.448  23.882  26.479 -0.0592 -0.1179 -0.1637
92605W        W35596  20.769  31.329  21.178 -0.0053 -0.1832 -0.2070
92606W        W35597  19.091  27.507  18.621  0.0673 -0.1448 -0.0256
92607W        W35598  27.385   1.584  21.975  0.2165  0.0249  0.1484
92608W        W35599  29.152  29.677  23.845  0.2235 -0.3992 -0.2516
92609W        W35600  15.720  22.820  14.061 -0.1094  0.0004 -0.0530
92610W        W35601  18.646  21.555  22.287 -0.2992 -0.1193 -0.3054
92611W        W35602  23.038   2.178  13.827  0.5100  0.2800 -0.2316
92612W        W35603   7.599  22.031  17.240  0.3001  0.1959 -0.0247
92613W        W35604   8.886  19.711  14.234  0.2487  0.2570 -0.1365
92614W        W35605  27.217  29.499  13.676  0.1660  0.1567 -0.1331
92615W        W35606  30.471  23.427  18.773  0.0462  0.0614  0.0631
92616W        W35607  19.133  24.951   2.048 -0.3398  0.0996 -0.0270
92617W        W35608  13.311  21.825  16.833  0.2727  0.1333  0.0237
92618W        W35609  28.722  28.395  17.007  0.2974 -0.0013 -0.1050
92619W        W35610  30.010  30.759  26.825 -0.0253  0.0392  0.0573
92620W        W35611   7.294  21.854  21.656  0.1598  0.1094 -0.1374
92621W        W35612  22.285  21.259  17.631  0.2261 -0.0045 -0.0989
92622W        W35613   3.587   5.183  17.564  0.1592  0.0020 -0.0571
92623W        W35614   2.302  10.707   1.815 -0.0922 -0.1294  0.2900
92624W        W35615  30.714  21.732  17.985  0.2816  0.1252  0.1787
92625W        W35616  10.395  18.747  28.808 -0.3563  0.0320 -0.2082
92626W        W35617  32.183  24.395  23.346  0.0387 -0.0461 -0.1659
92627W        W35618  23.295  20.387  13.752  0.0161  0.4032 -0.3296
92628W        W35619  10.351  16.363   3.817  0.2297 -0.0992  0.0533
92629W        W35620  24.498   7.713  14.106 -0.1196 -0.0515  0.1316
92630W        W35621  13.328   4.165  27.367 -0.0526 -0.0971 -0.1580
92631W        W35622  23.551  28.584  29.072  0.2106  0.1510 -0.1423
92632W        W35623  18.815  32.238  20.235  0.1977 -0.0787 -0.2821
92633W        W35624  21.152  19.150  18.705 -0.1029  0.2793 -0.0048
92634W        W35625  30.309  17.177  20.306  0.0773 -0.0283 -0.0825
92635W        W35626  20.660  26.728   5.391  0.0557  0.0123 -0.1689
92636W        W35627  27.949  21.872  24.888  0.1639 -0.2174  0.1192
92637W        W35628  11.684  32.378  24.148  0.4127  0.1660  0.2546
92638W        W35629  21.280   9.045   5.508  0.2387  0.0544  0.0972
92639W        W35630  14.004  32.557  16.619  0.0148  0.1673 -0.1159
92640W        W35631  16.625  28.837  21.835 -0.1165  0.0697  0.1403
92641W        W35632   6.476  33.211  17.170 -0.3887  0.1868 -0.2709
92642W        W35633  26.137   4.147  24.282  0.0738  0.0368  0.0813
92643W        W35634  18.363  26.793  18.346 -0.0006 -0.1416 -0.1319
92644W        W35635  12.303  31.665  27.664  0.0199  0.1135  0.0460
92645W        W35636  32.331  30.575  17.183  0.0886  0.0886  0.1288
92646W        W35637  22.347   0.163  20.658 -0.1427 -0.0514 -0.1551
92647W        W35638  22.086  24.724  18.505  0.1066  0.0430  0.3447
92648W        W35639  11.492  26.368  20.437 -0.2805  0.1281  0.2009
92649W        W35640   5.598  27.729  26.315  0.0194 -0.2159  0.0915
92650W        W35641  33.805  25.082  19.989 -0.2331  0.1491 -0.2666
92651W        W35642  22.111  30.198  22.378 -0.0720  0.3673 -0.0454
92652W        W35643  18.428  28.743  18.873  0.0348  0.0743  0.1807
92653W        W35644  15.219  19.315  16.387  0.2159  0.1429  0.0496
92654W        W35645  30.327  25.821  13.149 -0.1970  0.0776  0.3218
92655W        W35646  33.406  23.320  18.840 -0.2238  0.4063  0.1048
92656W        W35647  22.546  25.575  28.094 -0.0510 -0.0631 -0.3944
92657W        W35648  21.625  29.296  13.693 -0.2631 -0.1440  0.2698
92658W        W35649  21.550  13.146  16.102 -0.2398  0.2101 -0.0168
92659W        W35650  23.303  21.732  25.729  0.0608  0.4910  0.0086
92660W        W35651   0.808  32.619  20.982 -0.0688 -0.1579  0.1508
92661W        W35652  19.396  34.177  25.991 -0.1140  0.0999  0.2372
92662W        W35653  12.946  32.837  14.214  0.3056 -0.3764  0.0291
92663W        W35654  21.198   8.988  22.875  0.0089  0.1761  0.0824
92664W        W35655  14.674   9.248  19.986  0.4234 -0.0560 -0.1057
92665W        W35656  23.781  29.923  16.247  0.2315 -0.0399 -0.2285
92666W        W35657  26.308  29.448  19.186 -0.0989 -0.0059  0.1642
92667W        W35658  25.410  30.375  16.541  0.0837 -0.0087 -0.3677
92668W        W35659  17.192  26.604  27.670 -0.0010  0.2641 -0.1680
92669W        W35660  18.728  15.224  16.058 -0.0613 -0.1903 -0.0187
92670W        W35661  23.266  22.906  17.141 -0.0864  0.5481  0.2172
92671W        W35662   4.184  27.955   1.242  0.1066  0.0189 -0.1077
92672W        W35663  26.210  26.719  14.245  0.1419  0.1751  0.1122
92673W        W35664   1.076   7.148  19.123  0.0370  0.2701  0.0450
92674W        W35665  25.199  34.057  22.571 -0.0081  0.0673  0.0223
92675W        W35666  12.574  25.484  26.665 -0.2044 -0.1744  0.0184
92676W        W35667  28.019  20.820  14.259 -0.1623  0.3958 -0.0712
92677W        W35668   4.028  27.132  16.186  0.0737 -0.2072  0.0648
92678W        W35669  23.146  25.242  22.011 -0.1210 -0.1845  0.2575
92679W        W35670  15.250  20.990  13.932 -0.1004 -0.1542 -0.0613
92680W        W35671  12.809  18.773  13.995  0.2099 -0.2737  0.0702
92681W        W35672   3.102  12.543  27.992 -0.3668  0.2638 -0.0386
92682W        W35673  24.919  12.249  17.965 -0.3464 -0.1576  0.1355
92683W        W35674   4.458  23.020  23.929  0.0019  0.1007  0.0465
92684W        W35675  33.134  13.906  25.694  0.1283  0.0718  0.3555
92685W        W35676  26.331  20.564  19.685 -0.2750  0.0413 -0.0671
92686W        W35677   8.021   4.290  16.807  0.3669  0.0813  0.0935
92687W        W35678  13.409   2.369  19.853 -0.0415 -0.0631  0.2176
92688W        W35679  11.733  28.968  16.759 -0.2057 -0.0195  0.0711
92689W        W35680  22.692  30.824  18.401  0.2494  0.4117 -0.1234
92690W        W35681  22.610  31.415  14.587  0.2686  0.5155 -0.3936
92691W        W35682  16.644  29.567  20.773 -0.1305  0.2023  0.2091
92692W        W35683  20.021  26.945  17.086 -0.1893 -0.3240 -0.0264
92693W        W35684   2.992  21.074  17.332 -0.0028 -0.1053 -0.0053
92694W        W35685   3.857  28.704  15.516  0.1539  0.0558  0.0992
92695W        W35686  31.152  24.501  14.478  0.1649  0.2762 -0.0521
92696W        W35687  25.877  33.002  15.562 -0.1022  0.1812 -0.0493
92697W        W35688  28.631  28.147  22.317  0.1726 -0.1206 -0.2784
92698W        W35689  24.185  16.864  27.366  0.0803  0.2186 -0.3267
92699W        W35690  14.979  30.320  19.494 -0.1106  0.1616 -0.0228
92700W        W35691  22.086   4.408  20.403 -0.0395 -0.1230  0.1584
92701W        W35692   2.994  33.812   1.812  0.2562  0.2770  0.2051
92702W        W35693  20.641   4.124   2.216  0.0760  0.1738  0.3465
92703W        W35694  24.691   0.047   5.567 -0.0769  0.1146  0.1118
92704W        W35695  10.521  25.249  14.643  0.1102 -0.0737  0.4316
92705W        W35696  22.069  19.565  16.491  0.0625  0.3772  0.2684
92706W        W35697   9.517  14.022  19.615 -0.3016  0.0107 -0.4443
92707W        W35698  14.466  30.012  17.965  0.1846 -0.1616  0.0751
92708W        W35699   7.573   0.605  27.018 -0.1279  0.4147  0.0607
92709W        W35700  21.913  22.321  13.682 -0.1594 -0.0572 -0.0022
92710W        W35701  20.844  25.103   1.391  0.2897 -0.1511 -0.0766
92711W        W35702   3.692   7.137  23.550 -0.0753  0.1215 -0.1001
92712W        W35703  14.299  21.599  20.927  0.2122 -0.0223  0.1294
92713W        W35704  13.858  17.597  15.868  0.2104  0.3445  0.0402
92714W        W35705  24.418  30.261  22.849 -0.0153 -0.1799 -0.2524
92715W        W35706  15.370  28.855  19.868  0.0157 -0.0518 -0.0143
92716W        W35707  23.676   2.714  20.827 -0.1266  0.2320  0.0434
92717W        W35708  14.361  22.410  25.594  0.0711 -0.2021 -0.0778
92718W        W35709  22.850  24.720  22.465  0.2325 -0.1650  0.2010
92719W        W35710  28.221  29.280  16.749  0.0377  0.2243 -0.2149
92720W        W35711  14.052  18.660  27.940 -0.3144  0.3812 -0.1074
92721W        W35712  19.681  12.789   2.406 -0.2988  0.5000  0.2781
92722W        W35713  31.786  29.013  15.666  0.1516 -0.3955  0.0872
92723W        W35714  17.929   8.574  16.264 -0.0908 -0.0841 -0.3089
92724W        W35715   8.192  20.404  20.854 -0.0119 -0.1647 -0.3329
92725W        W35716  22.127  12.638  15.652  0.1346 -0.4106  0.1881
92726W        W35717   1.479  13.436  27.440  0.1791  0.2758  0.0551
92727W        W35718  23.844  18.609  18.955  0.0062  0.3321 -0.3344
92728W        W35719  13.044  25.132  15.872  0.1073  0.1547 -0.1166
92729W        W35720  15.475  23.312  14.561 -0.1774 -0.1073  0.0531
92730W        W35721  29.012  18.804  17.185 -0.1327  0.2193 -0.2722
92731W        W35722  33.603  15.843  27.667  0.3198 -0.0312  0.4235
92732W        W35723  27.109   0.561  13.997 -0.1647 -0.1439  0.1062
92733W        W35724   9.569   2.648  19.126  0.3804 -0.1740  0.1704
92734W        W35725  18.227  24.871  22.520  0.0870 -0.2686 -0.0317
92735W        W35726  32.120   4.718  19.762 -0.0788  0.1437  0.3725
92736W        W35727  14.081  28.684  21.744 -0.0157 -0.0866  0.3375
92737W        W35728  12.640  34.320  23.183  0.0866 -0.0924 -0.2173
92738W        W35729  17.569  18.237   5.193  0.0243 -0.0584 -0.2230
92739W        W35730  10.231  25.304  23.319  0.2394 -0.1355  0.1509
92740W        W35731  26.876  18.794  17.100  0.0610  0.2554  0.0421
92741W        W35732  22.473  12.365  13.488 -0.0815  0.1529 -0.1255
92742W        W35733  29.376  21.620  15.950 -0.2418 -0.0523  0.1050
92743W        W35734   8.280  33.114  18.969 -0.2660 -0.2141  0.2978
92744W        W35735  24.875  21.874  25.799  0.2568 -0.1289 -0.2344
92745W        W35736   6.433  33.888  27.705 -0.3004 -0.7144  0.3475
92746W        W35737  28.009  33.918  26.620  0.0389 -0.1089 -0.0824
92747W        W35738  18.907  16.918  28.498  0.1122  0.0009  0.1229
92748W        W35739  27.020  22.898  27.005 -0.1362  0.0271  0.0489
92749W        W35740  31.948  12.084  26.489 -0.3096 -0.1415  0.1482
92750W        W35741  16.271  34.201  21.422  0.0270  0.1976 -0.0170
92751W        W35742  34.730  30.916  13.771 -0.4222 -0.1409 -0.0600
92752W        W35743  12.506  14.649  19.552 -0.0487 -0.0138  0.1403
92753W        W35744  15.280  29.704  24.377  0.3642  0.4128 -0.3656
92754W        W35745  29.793  11.116  22.177  0.0847 -0.0555  0.1003
92755W        W35746  28.072  30.975  21.895  0.0788  0.1440 -0.3145
92756W        W35747  26.575  29.452  12.807  0.0559 -0.2024 -0.0299
92757W        W35748  21.433  31.732  18.617  0.0602  0.4002 -0.0807
92758W        W35749  14.947  25.643  17.671 -0.0062  0.0383  0.0726
92759W        W35750  17.575   9.882  16.376  0.0841  0.1468 -0.0892
92760W        W35751   7.057  25.604  14.392 -0.1677 -0.1802 -0.1275
92761W        W35752  12.247  31.485  14.869 -0.0696 -0.2320 -0.2498
92762W        W35753   6.510  25.748  25.884 -0.1126  0.0044 -0.0343
92763W        W35754  17.073  25.982  20.880  0.3159  0.1229  0.1754
92764W        W35755  29.417  34.490  19.986 -0.2370 -0.2706  0.2616
92765W        W35756  28.568  23.762  24.090  0.0853 -0.0153 -0.0143
92766W        W35757  32.615  30.993  17.348 -0.2249  0.0028 -0.0612
92767W        W35758  27.735  29.612  16.074  0.2781  0.0731 -0.2353
92768W        W35759  26.686  23.536  14.022  0.3579  0.0840  0.0227
92769W        W35760   5.035   0.559  19.904  0.0870  0.0501 -0.3094
92770W        W35761  33.451  21.612  24.974  0.0846 -0.0270  0.3183
92771W        W35762   8.853  26.241  24.563  0.0917 -0.3290 -0.3339
92772W        W35763  10.172  26.408  16.713 -0.3435 -0.1255  0.1272
92773W        W35764  30.935  31.010  14.899  0.2957 -0.1920  0.0668
92774W        W35765  31.009  15.393  18.164 -0.0227  0.0953  0.1248
92775W        W35766  26.090  16.557  19.745 -0.0656 -0.3783 -0.1446
92776W        W35767  32.196  32.798   2.077  0.0034  0.0929 -0.2316
92777W        W35768  24.704  16.989  14.210 -0.0439 -0.1796  0.1142
92778W        W35769  16.777  25.041  20.610 -0.0062  0.0179 -0.0660
92779W        W35770   0.311  15.354  20.354  0.1271 -0.0338  0.0432
92780W        W35771  24.660   3.108  12.517  0.1385  0.2422 -0.0772
92781W        W35772   4.407  21.116  17.122 -0.5421 -0.2252  0.1155
92782W        W35773  17.503  17.326  14.731 -0.0415 -0.1987 -0.3631
92783W        W35774  11.547  27.859  20.762 -0.3477 -0.3047  0.3790
92784W        W35775   8.279  31.318  21.618  0.1475  0.1794 -0.1940
92785W        W35776  26.231  25.097  16.081 -0.0881  0.0343  0.1093
92786W        W35777  15.170   5.748  28.991  0.0637  0.0496  0.2615
92787W        W35778  26.288  25.394  21.743  0.1099 -0.2224 -0.0368
92788W        W35779  20.152  34.292   1.385  0.2797  0.2169  0.0823
92789W        W35780  30.108   2.795  22.308 -0.4249  0.0901 -0.1509
92790W        W35781  25.879   0.423  14.248 -0.0084 -0.1585  0.2947
92791W        W35782   9.263  16.799  21.705  0.0744  0.1343 -0.0336
92792W        W35783  32.841  26.220  23.771  0.1906 -0.3540  0.4255
92793W        W35784   6.634  29.879  18.436 -0.0409 -0.2326  0.0515
92794W        W35785  31.737   4.084  14.609 -0.2068 -0.1131  0.2680
92795W        W35786  27.264  19.064  20.110  0.1397 -0.1066 -0.0938
92796W        W35787  18.597  20.425  16.017  0.0999 -0.0575 -0.1565
92797W        W35788   0.340  26.480  19.703 -0.2153  0.1849 -0.1377
92798W        W35789  27.071  25.461  13.508 -0.1131 -0.0044  0.0076
92799W        W35790  18.355  17.776  15.266  0.0908 -0.0771  0.1846
92800W        W35791  25.915  26.582  16.592  0.2531 -0.2008  0.1056
92801W        W35792  20.588  25.574  24.101  0.0261 -0.0385 -0.2587
92802W        W35793  20.334   3.753  15.469 -0.0187  0.3174 -0.1548
92803W        W35794  15.585  30.288  14.442 -0.2419  0.0077 -0.0627
92804W        W35795  32.542   6.645  16.761  0.2746  0.2992 -0.0780
92805W        W35796  25.065  30.099  25.570  0.0357  0.0467  0.0350
92806W        W35797  33.177   7.145  16.812  0.0218 -0.2057  0.2903
92807W        W35798  20.874   6.576   3.566  0.0149 -0.0066 -0.0142
92808W        W35799  19.515  17.277  12.732  0.0753 -0.1643 -0.0210
92809W        W35800  26.651  16.084  21.498 -0.0932 -0.1428  0.0752
92810W        W35801  15.025   8.707  15.156 -0.1328 -0.1901  0.1737
92811W        W35802  26.864  19.480   9.413  0.1998 -0.2058 -0.0055
92812W        W35803  23.954  29.450  17.777 -0.2338  0.2516  0.1610
92813W        W35804  32.425  21.878   3.168  0.0461  0.2690 -0.1729
92814W        W35805  28.538  26.960  23.837  0.0464 -0.0327 -0.0507
92815W        W35806  28.482  25.624   4.679 -0.1877 -0.0434 -0.0470
92816W        W35807  33.380  33.631  24.315 -0.3702 -0.1968  0.0517
92817W        W35808  21.885  25.036  21.543 -0.1758 -0.2483  0.2312
92818W        W35809  21.489   2.021  23.939 -0.2888  0.0536  0.0735
92819W        W35810  29.020  27.174  17.692  0.1204 -0.0468 -0.0144
92820W        W35811  21.378  26.459  13.308  0.2601 -0.1613  0.0819
92821W        W35812  16.148  32.732  25.102  0.0333 -0.1614  0.0114
92822W        W35813  24.257  22.587  19.204  0.1691  0.0411 -0.3098
92823W        W35814  27.295  28.240  21.596 -0.1343  0.0743  0.2167
92824W        W35815  33.386   4.291  22.929  0.3168 -0.1672  0.0960
92825W        W35816  12.131  14.405  25.911  0.2863  0.2266 -0.0372
92826W        W35817  30.809   0.795   9.000 -0.3407 -0.3547 -0.1784
92827W        W35818  17.832  13.400  26.638  0.1109 -0.1133  0.0390
92828W        W35819  12.749  25.974  20.440 -0.2255 -0.1564  0.0502
92829W        W35820  25.335  26.270   3.766  0.1228  0.4048 -0.1883
92830W        W35821  14.037  10.813  18.580  0.1490 -0.1366  0.2244
92831W        W35822  10.235  33.564   2.133  0.0567 -0.0221  0.0402
92832W        W35823  23.974  33.139  17.472  0.1009  0.0516 -0.3631
92833W        W35824   3.926  14.095  21.441 -0.2479  0.1154 -0.3718
92834W        W35825  27.287  30.010  12.047 -0.1343 -0.1258 -0.0290
92835W        W35826  15.903  10.994  17.382 -0.0346 -0.1814 -0.2748
92836W        W35827  18.344   1.024  22.941 -0.2233  0.0704 -0.3875
92837W        W35828  11.681   5.274  24.553 -0.1522  0.0978  0.0690
92838W        W35829  24.840  23.415  23.449  0.0750  0.2365 -0.0486
92839W        W35830  29.364  23.905  21.440 -0.7643 -0.2195  0.2289
92840W        W35831  33.424  33.749  16.350  0.1641  0.0511  0.1217
92841W        W35832  28.346  30.342  15.728 -0.3331  0.0182  0.2821
92842W        W35833  34.178  29.328  24.876 -0.1001  0.2653  0.0509
92843W        W35834  18.048  24.227  14.653 -0.0739  0.0080 -0.1220
92844W        W35835   3.958   4.746  16.711 -0.1875  0.0984 -0.0366
92845W        W35836  15.359  20.201  19.867  0.2331 -0.1192 -0.3450
92846W        W35837  22.974  26.212   3.080 -0.0682  0.2922  0.0793
92847W        W35838  26.778  19.173  18.349 -0.2650 -0.1333 -0.1470
92848W        W35839  15.921  23.892  14.224 -0.1024  0.0379  0.0470
92849W        W35840   2.657  16.898  16.310  0.0397 -0.1611 -0.1239
92850W        W35841  25.573  20.050  16.103 -0.0889  0.2375  0.0650
92851W        W35842  32.234  26.312  25.995 -0.0484  0.1472  0.1952
92852W        W35843  26.924  33.181  25.208 -0.0415 -0.3563  0.0043
92853W        W35844  22.461  23.994  21.004  0.3391  0.0924  0.1242
92854W        W35845   3.436   0.677  17.781  0.0992 -0.0729 -0.0202
92855W        W35846  20.727  28.329  26.496  0.1056  0.0869  0.0637
92856W        W35847  13.339   3.225  21.705 -0.2101  0.0887 -0.2058
92857W        W35848  11.649  33.675  21.705  0.1780  0.2474 -0.1115
92858W        W35849  20.554   8.416  15.728  0.2713 -0.0049 -0.3661
92859W        W35850  16.885  19.556  14.647 -0.1794  0.2511 -0.1273
92860W        W35851   8.324  34.564  23.057  0.3468 -0.2903  0.1424
92861W        W35852  19.649  25.662  23.571  0.0800  0.3240  0.1295
92862W        W35853  23.511   8.420  28.221  0.0658 -0.2591 -0.0554
92863W        W35854  15.461  26.100  23.318 -0.2078  0.1542 -0.2290
92864W        W35855  27.591   9.906  20.625  0.2441 -0.0317  0.1501
92865W        W35856  18.717  34.480  21.333 -0.0981  0.3505  0.2370
92866W        W35857   3.526   7.255  17.581 -0.1129 -0.1674 -0.0363
92867W        W35858  10.733  33.866   2.998 -0.1094  0.0974 -0.1380
92868W        W35859  23.363  21.948  23.245 -0.0500 -0.0294  0.2573
92869W        W35860  14.168  27.223  20.027  0.3167 -0.0020 -0.2184
92870W        W35861  21.850  12.104  12.772  0.0965 -0.3275 -0.1803
92871W        W35862  18.126   5.881  14.892  0.2540 -0.0005 -0.3165
92872W        W35863  18.014  19.348  27.052  0.1708 -0.0315 -0.1631
92873W        W35864  31.075  18.657  20.561 -0.0840  0.0027  0.2714
92874W        W35865  30.769   2.033  18.028 -0.0857 -0.0280 -0.2142
92875W        W35866   5.042  31.851  26.610 -0.2536 -0.2095  0.0836
92876W        W35867  17.092  21.821  28.062  0.2372  0.0862  0.0339
92877W        W35868  22.349  21.072  24.673  0.2284  0.0291 -0.0620
92878W        W35869  17.793  27.162  23.900  0.0441  0.2054  0.0383
92879W        W35870  12.027  21.710  27.313 -0.2573 -0.1384 -0.3030
92880W        W35871  21.553   2.539   0.244 -0.0258  0.3984 -0.5151
92881W        W35872  22.014  22.050  23.319  0.1273  0.2633 -0.2921
92882W        W35873  28.601   5.866   8.914 -0.1045 -0.1834  0.0559
92883W        W35874   9.563  20.995  23.570  0.0527  0.1315  0.2372
92884W        W35875  12.225  17.581  13.587 -0.0798 -0.1225 -0.1312
92885W        W35876  16.862   0.623  25.913 -0.1391 -0.2280  0.0097
92886W        W35877  25.090  19.001  29.203 -0.1542 -0.0971 -0.2189
92887W        W35878  17.681  28.143  14.266 -0.0720  0.0299  0.3399
92888W        W35879  24.385  26.186  20.249  0.1144 -0.0806 -0.3486
92889W        W35880  24.383  26.426  19.312  0.2756  0.1971  0.0705
92890W        W35881  14.703   0.830  22.925  0.1095  0.0251 -0.0323
92891W        W35882  15.169  33.921  20.565 -0.2238  0.0177 -0.2674
92892W        W35883  13.400   1.259  15.556  0.2796  0.1304 -0.0082
92893W        W35884  22.114  14.203  14.384 -0.1362  0.6085 -0.0870
92894W        W35885  28.309  20.199  25.032 -0.0480 -0.2612 -0.0558
92895W        W35886  18.333   4.753   7.169  0.0368 -0.4602 -0.2623
92896W        W35887  23.923  34.128  16.979  0.2586  0.1342  0.0523
92897W        W35888  26.783  28.523  16.851 -0.0292 -0.2333  0.0108
92898W        W35889   8.016  29.255  20.943  0.2131 -0.2282 -0.0022
92899W        W35890  30.643   0.465  16.164 -0.1082 -0.0081 -0.0772
92900W        W35891   7.586  33.837  23.059  0.1273  0.0361  0.0340
92901W        W35892  14.017  26.176  14.594  0.2502 -0.0357 -0.1783
92902W        W35893  28.240   2.343  18.138  0.0316  0.0775  0.2457
92903W        W35894  31.357  15.244  20.132 -0.1769  0.1475 -0.1210
92904W        W35895   7.605  23.996  19.393  0.0386 -0.1176 -0.0004
92905W        W35896  17.672  29.035  16.402  0.1006 -0.1647  0.1424
92906W        W35897  22.402  30.446  14.655 -0.0062 -0.3375  0.0655
92907W        W35898  17.266   3.487  16.242 -0.4604 -0.1832  0.1397
92908W        W35899   1.438  17.998  21.930 -0.2612  0.0584 -0.1858
92909W        W35900  12.550  33.471  18.635  0.0837  0.1306 -0.3135
92910W        W35901  17.926   2.814  27.720 -0.1292 -0.1161  0.0434
92911W        W35902  26.749  15.912  24.379  0.2106  0.2038 -0.0836
92912W        W35903  16.443  30.615  23.407  0.0324 -0.0475  0.1979
92913W        W35904  18.890  27.609  16.499  0.0035  0.0112  0.2100
92914W        W35905  29.632   4.400  19.602  0.1260  0.1591 -0.0494
92915W        W35906  26.261  30.088  18.812  0.0285 -0.3916 -0.0322
92916W        W35907   5.062  24.238  19.647  0.0024 -0.2332 -0.0786
92917W        W35908   0.555  16.633  25.662  0.0012  0.1191 -0.2289
92918W        W35909   5.362   4.552  21.063  0.0393  0.1616  0.2245
92919W        W35910  27.177  12.542  19.284  0.1168  0.1756  0.1758
92920W        W35911  31.259  34.164  15.482  0.4492  0.1757  0.5111
92921W        W35912   3.890  21.397  26.468  0.2620 -0.3393 -0.0393
92922W        W35913   9.334  30.928  19.007  0.3524 -0.0829  0.3511
92923W        W35914   4.521  31.181  28.427  0.0662 -0.1761  0.2282
92924W        W35915  32.497  27.848  15.450 -0.1103 -0.2115 -0.1625
92925W        W35916   6.434   6.237   5.495  0.1030 -0.2067  0.0315
92926W        W35917  10.429   7.994   3.293 -0.0703  0.2181 -0.0078
92927W        W35918  13.522  28.485  15.776  0.0961 -0.1377 -0.0583
92928W        W35919  10.684   2.935  20.339 -0.3319 -0.0023 -0.0765
92929W        W35920  14.488  27.056  17.745 -0.1181 -0.0693 -0.1977
92930W        W35921  11.317  14.053   7.830 -0.0481  0.1086  0.2822
92931W        W35922   8.431  30.488   9.641  0.2035 -0.0934  0.3488
92932W        W35923  12.572  24.358  14.251  0.0157 -0.2386  0.1734
92933W        W35924  29.319  14.197  15.445  0.1108 -0.1966 -0.2382
92934W        W35925  23.737  16.267  23.267 -0.1564 -0.0834 -0.0301
92935W        W35926  21.777  23.062  12.732 -0.1035 -0.0026 -0.3498
92936W        W35927  10.175  26.692  15.527 -0.1643 -0.0673  0.0907
92937W        W35928   9.413  27.512   3.701 -0.1022 -0.2699 -0.0413
92938W        W35929  12.796  16.355  24.294  0.2599  0.0783  0.6262
92939W        W35930   1.264  34.758  25.984  0.0647 -0.0446  0.2082
92940W        W35931  11.431  24.157   3.276 -0.1106 -0.0175  0.1735
92941W        W35932   2.731  11.533  23.087  0.1338 -0.0584  0.1638
92942W        W35933   2.316  26.621  26.359 -0.1613  0.1059  0.0480
92943W        W35934  13.153  33.312  20.428  0.1087 -0.3900  0.2049
92944W        W35935  21.728  25.922  18.639  0.0079 -0.0098 -0.1812
92945W        W35936  20.829  27.987  17.300 -0.1795  0.0345  0.0278
92946W        W35937  24.288  26.309   9.265  0.2420 -0.1227  0.0631
92947W        W35938  29.875  28.631  25.625 -0.0133  0.1944 -0.3269
92948W        W35939  20.626  19.489  14.431 -0.0102  0.0973  0.1397
92949W        W35940  24.926   9.465   6.439  0.0652 -0.0489 -0.0706
92950W        W35941  17.853   9.452  22.629 -0.2192  0.2803  0.0810
92951W        W35942  31.790  29.560  13.689 -0.0368  0.2278 -0.1308
92952W        W35943  22.864   8.218  20.932  0.2286  0.0869 -0.3316
92953W        W35944  16.496  17.044  25.819  0.0075  0.0564 -0.0566
92954W        W35945  32.630  33.577  23.191 -0.0217 -0.0278  0.0195
92955W        W35946  25.599  34.136  25.429  0.0093 -0.1139  0.0073
92956W        W35947  20.794  26.762   0.720  0.1612 -0.1098 -0.0636
92957W        W35948  28.109   5.356  17.647  0.0449  0.1133  0.2558
92958W        W35949  33.718  12.053   8.566 -0.1594 -0.1649  0.1220
92959W        W35950  16.905  20.462  15.011  0.0449  0.4654  0.0267
92960W        W35951  20.624  16.929   7.706 -0.2893 -0.0274  0.0013
92961W        W35952  18.197  32.370  21.671 -0.2508 -0.1854  0.0297
92962W        W35953   5.654  19.660  18.783 -0.3604  0.1882 -0.0309
92963W        W35954  30.262   2.060  18.079  0.1797  0.2223  0.0197
92964W        W35955  13.651  33.050  20.636 -0.1494  0.0717 -0.0002
92965W        W35956  21.780  15.667   0.950 -0.3135 -0.0462  0.0239
92966W        W35957   0.199  19.221  19.009  0.3066 -0.0050 -0.0142
92967W        W35958  12.237  20.907  15.765 -0.0662 -0.2405 -0.0615
92968W        W35959  13.051   3.449  17.706  0.1148 -0.1447 -0.1168
92969W        W35960  23.421  18.873  21.446 -0.3794 -0.4917  0.4894
92970W        W35961  19.948  23.975  22.090  0.4480  0.1350  0.3134
92971W        W35962  18.112  18.582  28.889  0.0661  0.3977 -0.1102
92972W        W35963  28.415  21.200  19.445 -0.0196  0.1065  0.2793
92973W        W35964  16.070  32.094  16.992  0.0343 -0.2256 -0.0610
92974W        W35965  22.825  29.046  19.817 -0.2602  0.1669 -0.2628
92975W        W35966  25.269  28.415  27.514 -0.0683  0.1592  0.1165
92976W        W35967  21.050   2.614  23.199  0.3340 -0.0283  0.1443
92977W        W35968  24.260  26.025  13.922 -0.5117  0.0454 -0.2560
92978W        W35969  28.158   3.179  15.318 -0.1610 -0.4077 -0.0229
92979W        W35970  25.700  25.383  18.133  0.1358 -0.0626 -0.0730
92980W        W35971  22.867  28.553  17.582 -0.0837 -0.0255  0.0426
92981W        W35972  26.930   8.883  26.699  0.1752  0.1403  0.2196
92982W        W35973  23.493  22.416  27.718  0.0960 -0.0785  0.0913
92983W        W35974  19.750   1.179  20.080  0.2142 -0.4929  0.3007
92984W        W35975  23.026  31.022  13.409  0.2203 -0.1724  0.0161
92985W        W35976  32.082  29.305  18.855  0.3578  0.0743 -0.0788
92986W        W35977   0.556  28.122  16.069 -0.1754  0.0179  0.1295
92987W        W35978  28.079  20.862  24.784 -0.1815 -0.0805 -0.0685
92988W        W35979  25.615  11.511  19.993  0.1916 -0.3129 -0.4360
92989W        W35980  22.497  26.095  14.474 -0.0610  0.0552 -0.1969
92990W        W35981  11.866  21.568  20.187 -0.1013 -0.0241  0.1122
92991W        W35982  30.751  29.213  23.751  0.3060  0.3019 -0.0207
92992W        W35983  30.653  21.660  15.968  0.0530  0.0608  0.2149
92993W        W35984  11.011  22.314  16.587 -0.0444  0.2927 -0.5073
92994W        W35985  21.963  21.819   8.361  0.0971  0.1528  0.1353
92995W        W35986  23.123   9.693  17.866 -0.0864 -0.0104 -0.2468
92996W        W35987  16.732   4.202  21.065 -0.1353  0.1195 -0.0343
92997W        W35988  21.205   3.541  18.671 -0.0634 -0.0152  0.0428
92998W        W35989  25.740  23.620  13.831 -0.0544  0.3300  0.0718
92999W        W35990  16.154  34.082   1.904 -0.1301  0.0833 -0.1629
93000W        W35991  29.804  16.367  22.173 -0.0043  0.0430 -0.0734
93001W        W35992  17.789   4.085  16.551  0.2188  0.0285  0.1681
93002W        W35993  23.022  29.430  13.733  0.0231  0.1223  0.1664
93003W        W35994  17.890  30.891  16.178 -0.1613  0.2569 -0.2822
93004W        W35995   5.521  12.937   4.808 -0.0602  0.1461 -0.0208
93005W        W35996  27.454  28.487   0.921  0.1199 -0.2523 -0.0345
93006W        W35997  21.856  31.029  19.183 -0.5052 -0.1430 -0.0075
93007W        W35998  12.936  19.952  25.856 -0.3252 -0.2803 -0.1062
93008W        W35999   8.297  26.465   6.806 -0.1737  0.0571 -0.2009
93009W        W36000  22.268   9.510   3.801  0.1089  0.0225 -0.2554
93010W        W36001  16.144   0.243  27.791 -0.0253  0.0035  0.1199
93011W        W36002  28.719   2.996  20.581 -0.0175 -0.0458  0.1978
93012W        W36003  14.500   2.734  16.063  0.0506 -0.1590 -0.1104
93013W        W36004  25.700  26.775  17.045 -0.0600  0.2761 -0.0402
93014W        W36005  14.662  32.965   2.684  0.1069  0.1064  0.0783
93015W        W36006  28.582  34.367   3.869  0.4944  0.0482  0.2971
93016W        W36007  16.177  10.218  15.152 -0.0589 -0.2815  0.0408
93017W        W36008  10.323  20.645  17.012  0.0609 -0.1598 -0.0911
93018W        W36009  14.904  18.748  24.323  0.0784  0.2526  0.5427
93019W        W36010   8.677  34.302  21.510  0.0457  0.0867  0.0120
93020W        W36011  10.647   7.783  19.567 -0.1460  0.3508 -0.0565
93021W        W36012  10.878   0.690   2.234 -0.0114  0.2068  0.1482
93022W        W36013  20.471  14.958   7.569 -0.0161  0.1205 -0.0244
93023W        W36014  19.800  24.705  12.872  0.2134 -0.1341  0.3177
93024W        W36015  24.030   3.318  19.145 -0.0829  0.2566  0.1593
93025W        W36016  15.114  24.299  17.624 -0.1150 -0.0186 -0.1169
93026W        W36017  15.629  34.502  24.903  0.1262 -0.0556 -0.1112
93027W        W36018   2.381  21.320  15.750  0.2810 -0.0687 -0.2750
93028W        W36019  26.968  34.173   7.733 -0.1865 -0.1930  0.1091
93029W        W36020  16.629  32.979  15.127  0.0039 -0.1166  0.2192
93030W        W36021  27.623  28.524  14.569 -0.1492  0.3048  0.2480
93031W        W36022  20.436  25.163   2.727  0.1351  0.0617 -0.2470
93032W        W36023  11.817  22.954  18.902 -0.1061  0.2186 -0.1043
93033W        W36024  13.147  16.262  28.060 -0.1550 -0.1199  0.1945
93034W        W36025  19.816   4.423  14.433  0.0937  0.0985 -0.0003
93035W        W36026  11.030   0.685  22.210 -0.0120  0.0171  0.0086
93036W        W36027  22.972   7.882  16.280  0.3218 -0.0531 -0.1294
93037W        W36028  17.641   9.166  22.270  0.0864  0.1151 -0.2229
93038W        W36029  16.065  33.910   1.400 -0.0981  0.0140  0.0776
93039W        W36030  15.007  26.484  24.683 -0.0460  0.2948  0.1911
93040W        W36031  22.695  19.275  26.795  0.1513 -0.1156 -0.0838
93041W        W36032  23.779  15.915  17.026 -0.1761 -0.1429  0.0133
93042W        W36033  29.651  17.643  16.584  0.0157  0.0621 -0.1443
93043W        W36034  25.269  23.024  15.593  0.1272 -0.0682 -0.0263
93044W        W36035  18.773  14.343   5.271 -0.1218 -0.0860 -0.0967
93045W        W36036   6.658   7.300  28.127  0.1443  0.2334  0.0166
93046W        W36037  10.252  18.828  21.231 -0.2436  0.1198  0.1077
93047W        W36038  22.066  31.368   1.821  0.0940  0.0655  0.2917
93048W        W36039   7.716  23.526   9.009  0.1076 -0.2091 -0.0002
93049W        W36040  16.863   4.030   1.900 -0.4896  0.0139  0.1625
93050W        W36041   9.020  27.711  20.687  0.3277 -0.2462  0.2564
93051W        W36042  22.749  29.156  16.576  0.3559 -0.0348 -0.0012
93052W        W36043   4.390  13.517  23.077  0.0198 -0.1958  0.0685
93053W        W36044  19.332  33.849  19.921 -0.1054 -0.1754  0.4260
93054W        W36045  18.642  18.462  26.416  0.1099 -0.1548 -0.1831
93055W        W36046  19.213  10.117  25.531  0.2747 -0.1439 -0.1596
93056W        W36047  16.262  26.193  16.516  0.0575  0.0644 -0.1062
93057W        W36048  24.439  18.822  14.441 -0.4012  0.2589  0.3253
93058W        W36049  14.198  19.307   7.449 -0.1792  0.0349  0.0787
93059W        W36050   3.959  29.897  22.815 -0.1570 -0.1697 -0.0590
93060W        W36051   6.737  12.822  10.440 -0.0978 -0.0093  0.0817
93061W        W36052  32.533  32.197   8.233 -0.2474 -0.2244  0.0658
93062W        W36053  18.473   3.670   6.600 -0.1133  0.1512  0.0079
93063W        W36054  18.090  21.591  26.417 -0.0402  0.1710  0.1201
93064W        W36055  13.987  25.070  18.230  0.1038  0.1724  0.1541
93065W        W36056   0.227  31.878  21.369  0.0693 -0.4248  0.1062
93066W        W36057  30.054  23.057  29.027  0.1006  0.0199  0.0116
93067W        W36058   5.100   1.457  21.001 -0.1081 -0.0951 -0.1108
93068W        W36059  32.669  28.430  23.440  0.0825  0.0929 -0.1052
93069W        W36060  15.677  22.696  20.341  0.0175 -0.0008  0.2287
93070W        W36061  20.857  21.007   3.914  0.3026 -0.1985  0.0044
93071W        W36062  20.540  27.602  20.396 -0.0891 -0.0522  0.2349
93072W        W36063  30.313  26.613  22.674  0.0744  0.0348 -0.4003
93073W        W36064  17.424   5.688  18.771  0.0710 -0.1598 -0.1557
93074W        W36065  21.882  16.882  12.791 -0.0652 -0.0539  0.2737
93075W        W36066  30.948  19.308  26.938  0.4105  0.1428 -0.3308
93076W        W36067  20.922  11.789   7.458 -0.0024  0.0873  0.3671
93077W        W36068  12.511  29.860   6.206  0.2379 -0.0885 -0.2035
93078W        W36069  14.943  30.430   1.509 -0.2194  0.1438 -0.0600
93079W        W36070  20.121   6.537  20.776 -0.3444  0.1368 -0.0557
93080W        W36071  17.176  10.861  28.269 -0.3598 -0.2907  0.1539
93081W        W36072  18.173   4.350   1.222 -0.2140 -0.1883 -0.2301
93082W        W36073  28.791  32.346  25.251 -0.2746  0.1498  0.0785
93083W        W36074  12.246  31.683  22.224 -0.1744  0.0221 -0.2342
93084W        W36075  27.214  27.450  16.278  0.1234 -0.1033 -0.1048
93085W        W36076  15.087  27.120  17.714  0.0162  0.0710 -0.0111
93086W        W36077  17.599  24.220  13.747  0.2026 -0.1277 -0.2054
93087W        W36078  16.809   1.070  16.319 -0.0192  0.2356 -0.1850
93088W        W36079  30.171  13.710   4.487  0.1532  0.3850 -0.2542
93089W        W36080  15.251  17.846  13.876 -0.0114 -0.2802 -0.0445
93090W        W36081   0.214  32.206  24.869  0.0001  0.2160  0.1260
93091W        W36082  20.581  25.198  22.404 -0.0830  0.1467 -0.1938
93092W        W36083   0.636  34.033  16.919 -0.2714  0.1061 -0.1556
93093W        W36084   7.004  30.207  16.627  0.1054  0.1335  0.0022
93094W        W36085  30.902  28.890  22.152 -0.1213  0.1542  0.4100
93095W        W36086  12.728  24.848   2.961  0.0324  0.0257  0.0371
93096W        W36087  21.681  22.965  21.410  0.0523 -0.0959 -0.2301
93097W        W36088  31.784  33.242  17.399 -0.2327  0.0507 -0.0852
93098W        W36089  10.210  16.427  18.365 -0.1926 -0.3504 -0.2173
93099W        W36090  11.607   4.803  14.593  0.1422  0.1284  0.0108
93100W        W36091   5.655  20.513  16.230  0.1747 -0.0594  0.1730
93101W        W36092  21.759  32.397  15.185  0.2670 -0.0818 -0.0846
93102W        W36093  19.062  31.829  14.575 -0.0995 -0.0802 -0.0689
93103W        W36094  23.733   6.692  17.895 -0.1400  0.2778 -0.0823
93104W        W36095   3.939  26.415   1.786  0.0218 -0.3745 -0.0065
93105W        W36096  19.925  29.049   5.142  0.1472  0.0321  0.1315
93106W        W36097  10.460  26.261  16.164 -0.0514 -0.1596 -0.1191
93107W        W36098  27.788  18.783  23.224  0.1160  0.0312  0.0005
93108W        W36099   4.932  29.660   2.709  0.2316  0.1092 -0.0302
93109W        W36100  30.343  27.074  15.238  0.2733 -0.1141 -0.0318
93110W        W36101  23.733  27.736  18.491  0.1992 -0.2938 -0.0841
93111W        W36102  23.428   5.328  18.688  0.2271  0.0691  0.2358
93112W        W36103  11.134  21.047  14.052 -0.2731  0.0987  0.3101
93113W        W36104  10.297  34.464  10.381  0.2113 -0.0704 -0.1343
93114W        W36105  28.043   8.438  16.849  0.1262  0.1451  0.0692
93115W        W36106   9.702  15.679  19.728 -0.2386  0.0916 -0.3953
93116W        W36107  23.592  30.084   2.144 -0.1404 -0.1639  0.1291
93117W        W36108  14.520  29.048  24.206  0.1209 -0.0127 -0.1002
93118W        W36109   2.258  27.278  23.324  0.3280 -0.1766  0.0297
93119W        W36110  14.277  19.936  15.609  0.0527  0.0872  0.3379
93120W        W36111   4.180  28.205  22.179 -0.1533 -0.2732  0.0530
93121W        W36112  20.752   2.535  18.529 -0.1572 -0.2331 -0.0610
93122W        W36113  32.286   2.714  19.815  0.1102 -0.1841  0.0962
93123W        W36114  17.021  19.876  21.721  0.1310  0.1023 -0.1654
93124W        W36115  13.475  33.765  21.684 -0.0916 -0.1452  0.0114
93125W        W36116  18.692   9.523  20.756  0.0508  0.0875 -0.1751
93126W        W36117  17.989  22.061  24.461 -0.0970  0.1270 -0.0737
93127W        W36118  24.980  27.142  21.730 -0.1552 -0.0098  0.2805
93128W        W36119  27.252  10.576  26.326  0.1907  0.2647  0.0775
93129W        W36120  21.738   3.177  24.068 -0.1702  0.2132 -0.3014
93130W        W36121  17.892  31.488  16.201  0.0500  0.0639 -0.1451
93131W        W36122  31.245  13.830  19.935  0.1062 -0.0475 -0.0380
93132W        W36123   5.559  29.341  25.890 -0.1658  0.0877  0.4632
93133W        W36124   6.226   9.913  21.048 -0.0143  0.0221  0.4112
93134W        W36125  25.476  23.633   4.274 -0.0427  0.1582  0.0711
93135W        W36126  27.257  15.557  29.212 -0.2311  0.2268 -0.3479
93136W        W36127  11.231  32.141   8.930 -0.2075 -0.1417 -0.0006
93137W        W36128  24.566  13.016  14.895 -0.1800  0.1059  0.3001
93138W        W36129  28.945  12.079  25.512 -0.0591 -0.1625 -0.2482
93139W        W36130  15.653  12.892  25.549  0.1118 -0.0790 -0.3403
93140W        W36131   9.320   9.485   4.629 -0.0352 -0.4207 -0.0862
93141W        W36132  21.694  26.071   6.070 -0.0928  0.0043  0.5630
93142W        W36133  29.539  18.135  21.855  0.0284  0.0259 -0.1900
93143W        W36134  31.336  30.431  17.532 -0.2813 -0.1898  0.1542
93144W        W36135  21.162  29.921   1.698 -0.0820 -0.3112  0.1290
93145W        W36136  14.545  27.796  23.094 -0.0429  0.0898  0.0187
93146W        W36137  23.390  17.724   0.669  0.0895  0.0264 -0.0611
93147W        W36138  28.788  23.795  16.308  0.2750  0.2155 -0.0385
93148W        W36139  34.301  13.499  16.211 -0.1375  0.2519 -0.2941
93149W        W36140  17.202  22.393  21.084  0.1126  0.1415  0.2137
93150W        W36141  11.762  22.882  18.371  0.1503 -0.2729  0.0498
93151W        W36142  25.450  30.194  24.565 -0.1065  0.0505 -0.1670
93152W        W36143  13.278  10.118  15.212  0.1339 -0.2452  0.3513
93153W        W36144  29.237  29.568  15.904 -0.1722  0.1068 -0.0005
93154W        W36145   6.138  32.094  15.805 -0.2660  0.2792 -0.6043
93155W        W36146   9.122  15.155  16.723 -0.1858  0.1556  0.1054
93156W        W36147  19.048   5.240  24.960 -0.0653  0.3038  0.1138
93157W        W36148  10.171   3.773  18.839 -0.1345  0.0602  0.3028
93158W        W36149  27.056  18.961   9.376  0.0798  0.0092 -0.1968
93159W        W36150   7.891   3.144  17.051  0.0477 -0.1591  0.1401
93160W        W36151  13.781   7.494   1.499 -0.1534 -0.0079  0.1199
93161W        W36152  17.720  27.927  20.217  0.1469 -0.0296 -0.3463
93162W        W36153  23.182  16.705  28.516  0.1131 -0.0810  0.0602
93163W        W36154  19.444  22.853  17.689 -0.1823 -0.1558 -0.0551
93164W        W36155  10.051  22.629  28.267 -0.3788  0.1178  0.0232
93165W        W36156  25.502   5.485  24.217  0.0585  0.0813  0.1292
93166W        W36157   5.604   1.605  20.340 -0.0811 -0.1911  0.1197
93167W        W36158  14.368  32.439   5.218  0.2314 -0.2826 -0.4671
93168W        W36159  15.854  20.469  25.407  0.1159 -0.0284  0.3577
93169W        W36160  16.626  32.032  14.768  0.1697  0.0830 -0.0357
93170W        W36161  21.593  25.898  15.980 -0.0584  0.1632 -0.0142
93171W        W36162  15.477  34.748  19.557  0.2832 -0.2239  0.1592
93172W        W36163  24.100   8.896   5.401  0.2176 -0.3436  0.2968
93173W        W36164  15.252   3.785  18.191 -0.0149  0.2200  0.1647
93174W        W36165  18.728  21.533  18.175  0.1818  0.0398  0.3171
93175W        W36166  11.809  32.895   9.421 -0.1773 -0.2290 -0.2229
93176W        W36167  13.027   2.075  26.357  0.1150 -0.0731 -0.0228
93177W        W36168  21.630  20.602  13.340 -0.0643  0.0242  0.0123
93178W        W36169   0.062  15.355  17.295  0.2155 -0.1431  0.1295
93179W        W36170  13.377   7.508  18.110 -0.3065 -0.3450 -0.1302
93180W        W36171  30.505  26.687  17.714  0.1967 -0.1987  0.1271
93181W        W36172  17.766   9.280   5.791 -0.0468 -0.0549 -0.1819
93182W        W36173  25.944  31.310   3.731  0.1541  0.1656  0.0083
93183W        W36174  28.657  28.477  25.291  0.1507  0.2190  0.0189
93184W        W36175  24.713  28.628   2.523  0.0166  0.1464 -0.1986
93185W        W36176  19.330   4.743   0.473  0.0607  0.1020 -0.1786
93186W        W36177  31.183  25.768  23.348  0.0355 -0.0164 -0.1241
93187W        W36178  11.567  14.592  23.970 -0.4673  0.1092 -0.0322
93188W        W36179  14.068  32.485  20.295  0.2742  0.0423  0.0918
93189W        W36180  21.942  20.630  18.527  0.3103  0.1425 -0.2173
93190W        W36181  14.643  22.983  16.962 -0.0462 -0.2063  0.0681
93191W        W36182   9.849  31.429   1.936  0.0856 -0.1600 -0.0850
93192W        W36183  21.362  21.925  21.568  0.1073  0.0616  0.1076
93193W        W36184  24.871  16.397  13.456  0.4676 -0.2349 -0.0664
93194W        W36185   2.748  27.895  20.042 -0.0556  0.1892 -0.2310
93195W        W36186  32.940  21.627  27.395  0.0482 -0.3368  0.3686
93196W        W36187  24.155  29.404  14.134  0.1601 -0.0212  0.2059
93197W        W36188  17.757  24.651   3.620  0.0144  0.0225 -0.1549
93198W        W36189  20.463  26.694   4.903  0.0939 -0.1963 -0.1615
93199W        W36190  10.097  12.151  16.428 -0.0824 -0.0792  0.0512
93200W        W36191   4.086  26.368   2.401  0.1613 -0.0959 -0.0123
93201W        W36192  20.921  21.458   7.336 -0.3386 -0.2850  0.0185
93202W        W36193  32.143  24.373  21.544  0.1815  0.3423 -0.0009
93203W        W36194  21.534  18.208  14.807  0.0015 -0.0970  0.0558
93204W        W36195  23.157  19.319  16.759  0.2825 -0.3840  0.0952
93205W        W36196  27.690  31.461  16.009 -0.1339 -0.1365 -0.1405
93206W        W36197  21.495  21.623  22.796 -0.0784  0.0012 -0.2907
93207W        W36198  31.888   0.320  19.298 -0.0479  0.2640 -0.3379
93208W        W36199  21.291  23.814  28.702  0.1361  0.1059 -0.0020
93209W        W36200  20.881   3.708  14.702  0.0004 -0.5018 -0.0356
93210W        W36201  17.436  27.352  14.068 -0.1503 -0.1439 -0.2716
93211W        W36202  29.540  23.700  19.700  0.1852  0.0284  0.2293
93212W        W36203  11.009  18.813  20.218  0.1191  0.1281 -0.0028
93213W        W36204  28.717  12.814  17.543 -0.0942  0.0776 -0.0164
93214W        W36205  13.079   1.657  22.072 -0.3066 -0.1698  0.1282
93215W        W36206   2.289  32.417  20.626  0.2546 -0.0978  0.1228
93216W        W36207  19.215  26.412  18.733 -0.2271  0.0258  0.0406
93217W        W36208  18.095  16.624   0.783  0.0467 -0.3448 -0.1075
93218W        W36209  12.536  24.587  19.902 -0.0792 -0.0518 -0.1873
93219W        W36210  12.078  30.749  26.253  0.1430 -0.1672  0.0696
93220W        W36211  24.034   1.198  16.996  0.1923 -0.1692  0.1484
93221W        W36212  23.266  26.091  13.783  0.1229 -0.2528 -0.0185
93222W        W36213  21.269  28.148  20.306 -0.5608 -0.0823  0.0748
93223W        W36214  15.525  11.935  23.448 -0.3688  0.4080  0.3514
93224W        W36215  29.772  31.581  15.372 -0.1521  0.2308  0.0967
93225W        W36216  16.291  12.535  18.807  0.5804  0.1376 -0.0605
93226W        W36217  26.200  16.409  17.753  0.1324  0.0548 -0.0955
93227W        W36218  30.453  22.867   2.987  0.1403  0.3583  0.1919
93228W        W36219  21.110  27.228  15.345 -0.2425 -0.2150  0.0922
93229W        W36220  23.137  22.142  24.325 -0.0919 -0.1950  0.0193
93230W        W36221  17.375   3.867  17.538 -0.1213 -0.1220  0.0812
93231W        W36222  20.917  32.593  22.272  0.4126  0.4254  0.2032
93232W        W36223  29.827   0.073  12.625  0.0127  0.0358 -0.0463
93233W        W36224  32.986  27.749  24.882 -0.0059  0.0637 -0.0116
93234W        W36225  22.190  24.144  16.924  0.1930 -0.0644  0.0501
93235W        W36226   1.643  18.926  16.498  0.0424 -0.1520  0.1652
93236W        W36227  30.100  18.408  17.131  0.0467 -0.1607  0.1067
93237W        W36228  24.619  18.361   6.095 -0.0812  0.0668 -0.0596
93238W        W36229  16.972  24.068  26.518  0.3220  0.0758 -0.0796
93239W        W36230  29.213  11.532  21.599 -0.4694  0.2223 -0.1173
93240W        W36231  30.162   5.634  28.322 -0.2823 -0.1057  0.1941
93241W        W36232   7.765   4.767  23.283  0.0252 -0.1659  0.1820
93242W        W36233  26.500  25.705  24.370 -0.1420 -0.0865  0.0293
93243W        W36234  19.669  31.316   2.081 -0.0712 -0.2000 -0.0546
93244W        W36235  11.426  26.178  19.010  0.0390 -0.1111 -0.1179
93245W        W36236   8.882  12.384  17.374  0.2658 -0.0764  0.2214
93246W        W36237  17.461  33.324  19.521 -0.1290 -0.0104  0.3365
93247W        W36238  21.003  19.076  23.487 -0.0839  0.1760  0.1057
93248W        W36239   8.765  30.974  16.383  0.2441  0.0255  0.0257
93249W        W36240   4.924  15.351  17.897 -0.4521  0.1506  0.0235
93250W        W36241  26.150   2.977   6.742  0.2168  0.0060 -0.0265
93251W        W36242  21.024   2.949  16.911  0.0331  0.0116 -0.0297
93252W        W36243  19.559  26.949  23.073  0.0462  0.1710  0.2667
93253W        W36244   7.238   2.017  23.739 -0.0197 -0.1672 -0.2316
93254W        W36245  24.474  30.435  14.780  0.2192  0.0643  0.0854
93255W        W36246  24.540  24.019  14.784 -0.1107  0.0626  0.0557
93256W        W36247  27.903  27.031  19.012 -0.2732  0.3793  0.1577
93257W        W36248  34.512  28.876  17.097  0.3036 -0.1324 -0.4437
93258W        W36249  17.039  26.555  26.294  0.0657 -0.2801  0.3868
93259W        W36250  20.170  28.764  25.848 -0.0715 -0.2833 -0.0906
93260W        W36251  22.183   9.349  14.431 -0.1220 -0.2464  0.3146
93261W        W36252  13.153   0.085  22.884 -0.1532  0.0603  0.3593
93262W        W36253  22.665  30.952  13.905  0.3936 -0.4103  0.3033
93263W        W36254  30.308  34.275  21.976  0.2082  0.0527  0.1210
93264W        W36255  24.802  21.570  14.549  0.2244  0.1178 -0.3016
93265W        W36256  14.481  30.553  17.840  0.0137  0.0442  0.0798
93266W        W36257   2.480  22.714  19.226  0.3544 -0.0914 -0.0801
93267W        W36258  32.254  29.349  24.269  0.1724  0.0797  0.1206
93268W        W36259  33.135  30.412  25.313 -0.3875 -0.3069  0.0045
93269W        W36260  32.513  27.984  19.289 -0.2797 -0.2850  0.1366
93270W        W36261  30.478  24.535  20.003  0.1177  0.0409  0.1483
93271W        W36262   7.305  33.180   1.177 -0.2352  0.0104  0.0679
93272W        W36263  11.541  21.581  21.170 -0.0195  0.1318 -0.5615
93273W        W36264  28.290  25.363  25.511  0.1746  0.2927 -0.1359
93274W        W36265  27.901  30.229  28.450 -0.2337  0.2193  0.1797
93275W        W36266  19.677  22.893  20.597  0.1628  0.0071  0.0904
93276W        W36267  32.406  23.917  21.621  0.0193 -0.0177  0.4165
93277W        W36268  21.631  31.419  24.363  0.0377 -0.0980  0.3241
93278W        W36269  26.708  22.034  10.158  0.1956  0.0997 -0.1422
93279W        W36270  13.569  27.071   4.735 -0.0850  0.1515 -0.1716
93280W        W36271  19.122  25.106  14.998  0.0544 -0.1520 -0.0383
93281W        W36272  27.863  32.233  17.529 -0.1123 -0.1738 -0.3520
93282W        W36273  14.810  18.954  15.038  0.2366  0.1845  0.2932
93283W        W36274  25.282  20.409  13.966  0.1718 -0.0319  0.0483
93284W        W36275   9.692  20.373   2.016  0.1956 -0.1251 -0.1552
93285W        W36276  34.643  19.468  18.655  0.1970 -0.0852 -0.1208
93286W        W36277  12.710  19.859  14.330 -0.0718  0.1128  0.0927
93287W        W36278  23.310  23.783  15.659  0.0619  0.0091 -0.1563
93288W        W36279  28.763  29.733  28.791  0.4138  0.0930 -0.2844
93289W        W36280  31.898  11.947   1.529  0.1424  0.1578 -0.1445
93290W        W36281  19.645  12.944  14.768 -0.4580 -0.0738  0.3655
93291W        W36282  26.024  20.659   8.547 -0.0020 -0.0435 -0.0097
93292W        W36283   1.371  24.877   4.212 -0.1839 -0.2070 -0.1151
93293W        W36284  25.079  29.380  15.394  0.1276 -0.0158 -0.3547
93294W        W36285  17.044  28.827  21.223 -0.1912 -0.0956 -0.1734
93295W        W36286  13.787   2.489  27.892 -0.0529 -0.3226  0.1203
93296W        W36287  21.300  25.375  17.738 -0.1476 -0.1223  0.0047
93297W        W36288   9.351   9.786  24.466  0.0462 -0.2019 -0.2695
93298W        W36289  15.322  28.658   9.450  0.1836  0.0956 -0.1094
93299W        W36290  13.117  23.359  28.609 -0.1089 -0.0797 -0.0302
93300W        W36291  13.305  21.360  16.964 -0.2929  0.0510  0.2462
93301W        W36292  17.615  33.685   2.158 -0.2361 -0.0268  0.3372
93302W        W36293  30.823  31.711   8.449 -0.1168 -0.1248 -0.2609
93303W        W36294  19.164   4.616  22.577  0.2794 -0.0862 -0.0913
93304W        W36295  24.603   5.946  20.289  0.1573  0.0591 -0.1084
93305W        W36296  29.672  13.952   0.285 -0.0758 -0.1969 -0.2844
93306W        W36297  15.998  20.199  22.111  0.1503  0.0505  0.2031
93307W        W36298  25.300  24.551  22.782  0.2021 -0.0104  0.1329
93308W        W36299   6.478   8.760  26.688 -0.0500 -0.0571 -0.2240
93309W        W36300   8.698  34.363   0.167 -0.0392 -0.3709 -0.4452
93310W        W36301   0.327  27.183  27.003  0.2782  0.1472 -0.3791
93311W        W36302  27.067  19.053  21.796  0.2906 -0.0906 -0.3613
93312W        W36303   3.289  27.997   1.630  0.1580 -0.0733  0.1760
93313W        W36304  34.347  21.250   8.488  0.1317 -0.3633 -0.2046
93314W        W36305  18.242  13.416   8.271  0.0625 -0.0071 -0.1173
93315W        W36306  20.070   8.371  20.263 -0.2470  0.1544  0.1791
93316W        W36307  32.747  16.766  21.318 -0.1892 -0.0432  0.0323
93317W        W36308  20.886  20.987  20.782  0.0411  0.1499 -0.2818
93318W        W36309  31.552  27.153   0.429 -0.0628 -0.1219 -0.2088
93319W        W36310  12.940  26.745  16.676  0.0629 -0.2509  0.0891
93320W        W36311  12.710  24.037  26.855  0.0135 -0.0575 -0.0560
93321W        W36312   1.182  26.067  16.475 -0.1343 -0.2555  0.0338
93322W        W36313   8.917  11.928   2.703  0.3054 -0.0284 -0.0773
93323W        W36314   4.065  30.361  23.046  0.0889 -0.0262  0.1976
93324W        W36315  24.769  30.400  28.399  0.1012 -0.3973 -0.1387
93325W        W36316  18.491  31.829  14.185  0.0381  0.0069 -0.1200
93326W        W36317   8.982  34.351  24.182  0.2689 -0.2471  0.0259
93327W        W36318   7.625   8.866   6.296 -0.0615 -0.0759  0.0171
93328W        W36319  29.705  13.671  17.913  0.1740  0.0169  0.1704
93329W        W36320  29.430   3.569  24.663  0.3553 -0.0797 -0.1345
93330W        W36321  29.334  25.510  23.344  0.1493  0.0624 -0.2264
93331W        W36322  18.364   2.510  19.684  0.1733 -0.3710  0.0838
93332W        W36323  34.659  21.653  19.943  0.0392  0.1944 -0.0038
93333W        W36324  21.942  21.902  15.471  0.0403  0.1086 -0.1296
93334W        W36325   3.614  27.500  26.295 -0.0370 -0.2377  0.2823
93335W        W36326  20.452  22.177   6.652 -0.0483 -0.2630  0.2384
93336W        W36327  30.823  26.329  16.966  0.1343 -0.1382 -0.1224
93337W        W36328  14.054  25.242  28.985 -0.0079 -0.0509  0.0356
93338W        W36329  19.972  24.739  20.751  0.1324 -0.2834 -0.1607
93339W        W36330  12.139  14.904  19.073  0.1174  0.1158  0.0733
93340W        W36331   4.607   7.953   7.264  0.2683  0.3510  0.1395
93341W        W36332  22.421  32.448  14.669  0.0711 -0.1866  0.0013
93342W        W36333  26.938   0.292  19.038  0.3376 -0.0147  0.1438
93343W        W36334  30.067  16.897   2.887 -0.0192 -0.1919 -0.0406
93344W        W36335  15.973  23.362  19.119 -0.4131  0.1309 -0.1580
93345W        W36336  22.969  28.068   5.829  0.1300 -0.0121 -0.1082
93346W        W36337  14.208  18.580  22.663 -0.1563  0.2180 -0.0168
93347W        W36338  16.117   0.556  25.450 -0.0729 -0.2169 -0.1166
93348W        W36339  27.165  20.303  14.409 -0.0180  0.1363  0.1128
93349W        W36340   6.984  19.181   6.208 -0.0720 -0.1525  0.0833
93350W        W36341   3.887  15.401  20.031  0.2027 -0.1894  0.1479
93351W        W36342  15.865  23.417  26.203 -0.0770 -0.0070  0.0422
93352W        W36343  19.842  20.311  14.106  0.0031 -0.1062 -0.1522
93353W        W36344   7.743  30.616  28.353  0.6159  0.1345  0.1374
93354W        W36345  16.577  24.804  21.125 -0.0082 -0.2922  0.0906
93355W        W36346  19.862  23.719   1.702 -0.1959 -0.0853 -0.1773
93356W        W36347  13.277  21.329   4.608 -0.0573 -0.2091 -0.5317
93357W        W36348  20.994  24.898   4.104  0.1938  0.0738 -0.1251
93358W        W36349  25.789  17.368  22.573 -0.0025 -0.0781  0.1510
93359W        W36350  34.307   4.999   0.125  0.1735  0.1646 -0.0292
93360W        W36351  19.916  28.139   7.054  0.0074 -0.1733  0.0323
93361W        W36352  16.469  25.342  16.045 -0.2048 -0.1043 -0.0845
93362W        W36353  30.308   1.166   1.108  0.2736  0.1074 -0.1944
93363W        W36354  34.504   4.700  14.811  0.0752  0.0080 -0.2960
93364W        W36355  23.307  23.755  26.182  0.2495  0.1856  0.1246
93365W        W36356  18.722  25.284  16.438  0.0762 -0.1028 -0.1127
93366W        W36357  25.392  10.553  19.626  0.2995 -0.1749  0.0589
93367W        W36358  14.154   9.413  16.483  0.1954  0.0170  0.0759
93368W        W36359  14.512  15.523   8.210  0.0674  0.0345  0.0502
93369W        W36360  33.590  26.994   7.004  0.0807  0.2290 -0.0869
93370W        W36361  11.151   7.913  15.364 -0.1541 -0.0382  0.0905
93371W        W36362  13.201  20.057   8.291  0.2152  0.0215  0.2108
93372W        W36363  12.196  24.774  14.910  0.0373 -0.2744  0.0139
93373W        W36364   4.665  14.165  19.756  0.2191  0.2518  0.2029
93374W        W36365  10.802   4.913  27.537 -0.2620 -0.1289 -0.1066
93375W        W36366   5.292  32.940  17.099 -0.2470  0.0192  0.1600
93376W        W36367  26.210  29.413   4.584 -0.1060 -0.1772  0.0954
93377W        W36368  15.247  28.076  21.385  0.0273 -0.1662 -0.2587
93378W        W36369  26.130  14.245  21.816  0.1076 -0.2440 -0.4639
93379W        W36370  21.588  16.626  26.608 -0.0702  0.2851  0.1868
93380W        W36371  20.813  17.880  25.505  0.1111  0.0029 -0.1697
93381W        W36372  18.242  22.773   0.565  0.0741  0.2838  0.0574
93382W        W36373   5.061  24.443   2.152 -0.1726  0.0180 -0.1903
93383W        W36374   7.380  17.333   8.131  0.0765  0.0937 -0.1010
93384W        W36375  12.187  31.900  22.893 -0.2757 -0.0559  0.2371
93385W        W36376  28.402  17.004   5.554 -0.0176  0.3785 -0.1381
93386W        W36377  29.076  34.613  16.199  0.0479  0.3932  0.0545
93387W        W36378  19.043  13.116  16.261  0.1347  0.1551 -0.0310
93388W        W36379  18.107   5.385   3.157 -0.2882 -0.0852 -0.0259
93389W        W36380   8.335  30.971   9.647  0.0057  0.2054 -0.1497
93390W        W36381  28.166  15.722   7.228  0.0874 -0.2484  0.1636
93391W        W36382  14.147  14.776   4.239  0.1786  0.2188 -0.1452
93392W        W36383  20.979  33.402  13.823 -0.0931  0.0093  0.1125
93393W        W36384  17.145  13.608  15.696  0.0296  0.0159 -0.2923
93394W        W36385  12.354  26.711   5.970  0.1289 -0.0405 -0.0099
93395W        W36386   6.860  21.048  24.696 -0.0377  0.0925  0.0762
93396W        W36387   5.760  22.334   0.799  0.0137  0.1013 -0.1151
93397W        W36388  22.111  19.672   4.234 -0.1154  0.0515  0.4199
93398W        W36389   7.945   0.907  27.167 -0.0068  0.1996  0.2017
93399W        W36390  22.919  21.873  14.257  0.1644  0.0318 -0.0553
93400W        W36391  26.944   7.895  26.013 -0.1012 -0.0216 -0.0722
93401W        W36392  20.533  24.422   4.692  0.1360 -0.1257  0.0836
93402W        W36393  12.470  14.188  17.368 -0.1415 -0.0970  0.0394
93403W        W36394  16.155  23.762   0.105  0.0481 -0.3548 -0.1888
93404W        W36395   8.860  24.564  28.972  0.0580 -0.2124 -0.2076
93405W        W36396   8.521   8.307   8.023  0.1791 -0.1319  0.0936
93406W        W36397   8.607  11.980  19.382 -0.1791  0.2317  0.1858
93407W        W36398   8.701  17.646  14.487 -0.0264 -0.1705  0.1365
93408W        W36399  22.482  28.100  13.364 -0.3478  0.2248  0.0748
93409W        W36400  17.684   9.830   9.714  0.1676  0.2926  0.1481
93410W        W36401   2.927  20.049   3.738  0.1482  0.1163 -0.1243
93411W        W36402  21.118  25.628  15.711 -0.1395 -0.0719  0.2536
93412W        W36403   7.414   0.742  18.833  0.0280 -0.0834  0.1903
93413W        W36404   3.094   1.780   2.922  0.0640 -0.1949  0.0653
93414W        W36405  18.245  32.884  18.323  0.2876  0.0925  0.1215
93415W        W36406  26.250  11.154  24.945  0.0469  0.2935  0.2289
93416W        W36407  16.861  19.708  12.972  0.0329  0.2382  0.2419
93417W        W36408  24.531  21.626   1.226  0.0521  0.0024  0.0778
93418W        W36409  25.841   9.919  27.047  0.0293 -0.1316 -0.0419
93419W        W36410  10.929  30.592  15.275 -0.0922  0.3285 -0.1187
93420W        W36411  33.422  15.753   7.603 -0.2335 -0.3422 -0.2610
93421W        W36412  28.392   2.266  14.900  0.0235  0.1649 -0.0314
93422W        W36413   8.803  21.584  23.925 -0.2298  0.1435 -0.0006
93423W        W36414  14.013  28.072  17.717 -0.4495  0.1991 -0.0834
93424W        W36415  10.691  10.222  20.865 -0.0051 -0.0649 -0.4253
93425W        W36416  17.583  32.080  27.666  0.1624  0.0738  0.1250
93426W        W36417  27.761  29.598   4.205 -0.1537 -0.0290 -0.2187
93427W        W36418  18.025   4.198  18.671  0.0559  0.2890  0.0340
93428W        W36419  20.607  19.400  22.229 -0.1891 -0.0170 -0.1482
93429W        W36420   9.922  23.222  25.326  0.2074  0.1619  0.2183
93430W        W36421  30.447   0.826  19.088 -0.1663 -0.2892 -0.1175
93431W        W36422  20.270  10.492  19.766 -0.3699  0.1677  0.0520
93432W        W36423  18.648  22.122  23.928 -0.0283 -0.0556 -0.0808
93433W        W36424  30.752  31.994  14.163  0.0533 -0.0190 -0.1558
93434W        W36425  28.703  26.520  23.036 -0.0908  0.1406 -0.3909
93435W        W36426  21.606  28.541   0.752  0.4429  0.1977  0.3011
93436W        W36427  23.466  12.366  20.218 -0.0284  0.1339 -0.3169
93437W        W36428   4.345  19.767  23.860  0.0608  0.1145 -0.1683
93438W        W36429  25.131  15.254  13.574 -0.0707  0.0095  0.2030
93439W        W36430  23.664  13.522  22.100 -0.0925 -0.0426  0.2486
93440W        W36431  23.663  13.162  21.119  0.2515  0.0765 -0.1412
93441W        W36432  22.541   0.244   2.631  0.0437  0.0383 -0.1494
93442W        W36433  17.474  26.208  15.227 -0.2145  0.3934  0.2960
93443W        W36434   9.960  29.556  14.350  0.3690  0.2601 -0.4282
93444W        W36435  32.479   1.886  20.317  0.0137  0.2189 -0.0977
93445W        W36436  34.378  15.367  16.544 -0.1355  0.2123 -0.2803
93446W        W36437  29.263  29.320   2.548 -0.0371  0.2930 -0.1317
93447W        W36438  15.069  25.260  14.014 -0.2970 -0.1171 -0.6412
93448W        W36439  24.551  30.151   4.109 -0.1171  0.0062  0.0920
93449W        W36440  10.901  33.453  23.338 -0.0285  0.0340  0.0321
93450W        W36441  27.982  24.263   7.461  0.0679 -0.1679  0.3247
93451W        W36442  33.687   4.782  17.944 -0.0552  0.0483  0.0990
93452W        W36443  21.626   2.710   8.920 -0.3107  0.0835  0.0049
93453W        W36444  33.877  30.405   2.323  0.0372 -0.2955  0.1807
93454W        W36445  32.095   4.280   3.938  0.0451 -0.0319 -0.2858
93455W        W36446   7.987  17.879  28.020 -0.1541  0.1313 -0.1144
93456W        W36447  30.003   8.000  28.351  0.3235 -0.1550 -0.1310
93457W        W36448   8.274  22.065  26.116  0.2217  0.0757  0.1851
93458W        W36449  11.704  17.607   9.540  0.1340 -0.0882  0.3075
93459W        W36450  11.662  25.128  28.623  0.0801 -0.0308  0.1178
93460W        W36451  17.048   8.510   2.164  0.1112 -0.0985  0.2668
93461W        W36452  16.698  11.894  16.631  0.0873  0.2067 -0.1433
93462W        W36453  19.466   6.059  16.528 -0.1670  0.2542  0.1213
93463W        W36454   9.558  14.496   0.319  0.0044  0.1090  0.0394
93464W        W36455  23.744  34.595   4.969  0.2926 -0.1594 -0.1565
93465W        W36456  16.385   1.895  18.189 -0.1503 -0.1064  0.0556
93466W        W36457  29.808   0.706  27.017  0.0778  0.2678  0.1784
93467W        W36458  21.485  23.934  23.796 -0.1919 -0.2700  0.2004
93468W        W36459  30.737  26.220  13.778 -0.0227  0.3965  0.0492
93469W        W36460  11.971  28.539  21.231  0.2223  0.0169 -0.2036
93470W        W36461  21.086  26.397   2.006 -0.2085  0.0571 -0.0229
93471W        W36462  20.802  16.124  28.834 -0.2860  0.1207  0.0232
93472W        W36463  29.959  18.594  25.049  0.0279  0.3144 -0.2527
93473W        W36464   7.203  32.368   1.891  0.0950  0.1761  0.1171
93474W        W36465  19.753  29.720  25.853 -0.0329 -0.0745  0.0082
93475W        W36466  24.153  16.724  21.135  0.0293  0.0240 -0.0498
93476W        W36467  10.746  30.987  15.715  0.5355 -0.3418 -0.2302
93477W        W36468  22.695   8.779   7.543 -0.0885  0.2618  0.3059
93478W        W36469  24.941  18.799  13.413  0.0812 -0.0496 -0.1248
93479W        W36470  19.182  23.438   2.989 -0.2356  0.2779  0.0064
93480W        W36471  23.530  33.268  14.826  0.0226  0.1897  0.1067
93481W        W36472  26.478  23.999   5.361 -0.0987 -0.2328  0.2317
93482W        W36473   8.745   9.907  22.089  0.1096  0.4335 -0.2570
93483W        W36474   3.898  15.224   4.731 -0.0670 -0.1167  0.1002
93484W        W36475  11.941  25.510  14.079  0.1184 -0.2084  0.0876
93485W        W36476   0.171  30.449  27.288 -0.0791 -0.1400  0.0291
93486W        W36477  13.565  14.508  22.444  0.1836 -0.3234  0.2715
93487W        W36478  18.673  14.143  21.055  0.0009  0.2980 -0.0678
93488W        W36479   6.486   8.766   7.820 -0.3476 -0.1408 -0.0675
93489W        W36480   2.306  27.010  18.935  0.2904  0.0347  0.1880
93490W        W36481   0.713  30.774  16.987  0.2238  0.1107 -0.2112
93491W        W36482  22.166   1.372   6.992 -0.2711  0.1209 -0.0535
93492W        W36483  17.168  25.680   3.755 -0.0808 -0.2858 -0.2519
93493W        W36484  22.628  18.107   3.425  0.0760  0.0957  0.2303
93494W        W36485  32.463  32.300  17.974 -0.2266  0.1540  0.0614
93495W        W36486  28.807  11.760  16.568  0.0715 -0.1341 -0.3035
93496W        W36487   8.113  25.092   6.213 -0.3163 -0.1841 -0.0885
93497W        W36488  24.595  18.619  22.982 -0.2254  0.0278  0.0996
93498W        W36489  17.227  29.896  18.691 -0.1536  0.1533 -0.1702
93499W        W36490  17.767  32.643   0.482  0.0484  0.1730 -0.2135
93500W        W36491  22.399  27.076  14.877 -0.0115 -0.1319  0.1227
93501W        W36492  10.375   6.707  24.727  0.4202 -0.3900  0.0454
93502W        W36493  15.098  10.927   4.324  0.0374 -0.1395  0.3213
93503W        W36494  33.875  24.880  23.142  0.0409  0.2235 -0.1303
93504W        W36495  11.740  23.156  21.178  0.0633  0.2637 -0.3250
93505W        W36496  21.182   5.562   3.938  0.1653 -0.1660 -0.0179
93506W        W36497  20.968  32.105  22.613 -0.1257  0.2921 -0.0894
93507W        W36498  24.461  29.094  14.950 -0.1960 -0.0133  0.0747
93508W        W36499   3.541  19.388  25.028 -0.1104  0.2177  0.0332
93509W        W36500  10.641  22.336  22.436  0.2706 -0.2641 -0.3167
93510W        W36501  31.503  25.828  24.509 -0.0228  0.2166 -0.0469
93511W        W36502  30.209  12.454  23.428 -0.2285  0.3061  0.0582
93512W        W36503  16.919  31.251  17.479  0.1209 -0.2615  0.0333
93513W        W36504   0.831   2.472  14.855  0.2589  0.0568  0.0378
93514W        W36505   3.587  25.528  19.009 -0.3492  0.0922 -0.0701
93515W        W36506  17.162  13.032  17.207  0.0500  0.3622 -0.3000
93516W        W36507  32.586  21.868   0.562 -0.0844  0.1341  0.1278
93517W        W36508  33.613  31.308  26.640 -0.1951  0.1541  0.0937
93518W        W36509  15.229  33.158  22.308 -0.3316 -0.0072 -0.2037
93519W        W36510  17.498  25.475  26.855 -0.0808  0.2111 -0.1999
93520W        W36511  30.184  23.090  25.535 -0.1041  0.0896  0.0363
93521W        W36512  12.127  15.449  19.547  0.1468  0.3656 -0.1216
93522W        W36513  15.318  29.710   7.150  0.2667 -0.0182  0.0819
93523W        W36514  17.466  32.561   1.560 -0.1838  0.2319 -0.2911
93524W        W36515  24.224   7.860  16.990 -0.0187 -0.2681 -0.1615
93525W        W36516   6.414  30.554  26.454 -0.0719  0.3949  0.0718
93526W        W36517  13.787  17.469  13.121 -0.1857 -0.1474 -0.0883
93527W        W36518  26.175  19.522  14.573 -0.4708 -0.1388 -0.0134
93528W        W36519   8.274  13.131  18.416 -0.2504 -0.0123  0.0529
93529W        W36520   2.496  16.283   7.027 -0.1349  0.1601  0.2896
93530W        W36521  17.352  18.854  15.322  0.1457  0.2679 -0.1223
93531W        W36522  17.417  27.674   0.387 -0.2290 -0.1084 -0.2212
93532W        W36523  13.540  31.941  19.228 -0.2198  0.0174 -0.1863
93533W        W36524  24.923  28.118   6.596  0.0333  0.1761 -0.0881
93534W        W36525  26.805  23.423  28.825 -0.1475  0.3538  0.1572
93535W        W36526  22.893  33.800  15.148 -0.1953  0.1079  0.0460
93536W        W36527   1.141  16.364  20.968  0.2785  0.1556 -0.1348
93537W        W36528  16.243  22.499   4.295  0.1631  0.4513  0.0682
93538W        W36529  19.789  23.620  17.367 -0.2489 -0.0400  0.2489
93539W        W36530  11.952   3.427   6.914 -0.2910  0.0792 -0.1761
93540W        W36531  17.446  19.635  28.987 -0.1205  0.1563 -0.2805
93541W        W36532  21.293  31.525  18.015 -0.0964 -0.0170 -0.2178
93542W        W36533  25.418  18.063  22.497  0.0804  0.1317 -0.1598
93543W        W36534  30.515  20.017  18.697 -0.0254  0.0472 -0.1799
93544W        W36535  22.395  26.895  19.316 -0.2220 -0.3771  0.0307
93545W        W36536  26.055  28.447  21.096 -0.1034 -0.3164 -0.2253
93546W        W36537  25.931  27.024  22.000  0.0454  0.1173  0.2627
93547W        W36538  24.292  19.196   6.307 -0.2739  0.1285  0.2173
93548W        W36539   7.983  27.955  20.087 -0.0698 -0.2071  0.0878
93549W        W36540  29.763  30.045   5.257  0.3801 -0.0924 -0.2994
93550W        W36541  17.481   1.496  21.494 -0.0893 -0.0199 -0.0094
93551W        W36542   0.002  28.891  25.556  0.1207 -0.2093 -0.0395
93552W        W36543   0.150  27.756  16.308  0.1333  0.0089  0.0230
93553W        W36544  13.942  23.261  13.881  0.1227  0.0316  0.3712
93554W        W36545   8.072  21.212  16.022 -0.2744  0.4342 -0.1067
93555W        W36546  15.370  24.440  17.202 -0.2400  0.0989  0.0237
93556W        W36547  28.673  24.125  21.499 -0.0547 -0.1446  0.0853
93557W        W36548  12.064  27.331  19.706 -0.0727  0.0975 -0.0048
93558W        W36549  23.049  22.172  16.570 -0.0008 -0.3513 -0.3891
93559W        W36550  14.703  22.740  16.501 -0.3040  0.0277  0.1112
93560W        W36551  24.841  15.945   5.103  0.2354 -0.0263 -0.1895
93561W        W36552  31.963  34.793  26.916  0.2515  0.2606 -0.0142
93562W        W36553  15.190  31.392  27.603  0.0792 -0.2071 -0.0015
93563W        W36554  26.401  33.567   7.202 -0.2042 -0.1413 -0.2152
93564W        W36555  28.522  23.404  21.073 -0.0901 -0.5315  0.0231
93565W        W36556  33.375   5.342   6.213 -0.0089 -0.2640  0.1906
93566W        W36557  22.260  20.341   2.677  0.0392  0.2512 -0.0047
93567W        W36558  22.954  25.328  19.460 -0.2046  0.2319  0.0290
93568W        W36559   1.325  12.259  26.115  0.0722  0.2422 -0.1550
93569W        W36560  27.376   6.745  29.072 -0.0219  0.1321  0.0279
93570W        W36561  30.357  32.078   6.926 -0.0055  0.0474 -0.1469
93571W        W36562   5.342  29.256  15.130  0.0372  0.1731  0.2432
93572W        W36563   4.411  20.781  23.906 -0.3360  0.1716 -0.1585
93573W        W36564  16.789  14.018  25.137 -0.0681  0.0959  0.1551
93574W        W36565   6.746  29.469  16.849  0.0779  0.3634  0.2736
93575W        W36566  27.158  32.936  23.257  0.4725 -0.0947 -0.2041
93576W        W36567  15.355  28.217  28.693 -0.2210 -0.2029 -0.2220
93577W        W36568  31.125  27.124  22.809  0.0526 -0.0797  0.2293
93578W        W36569  26.888  22.693  24.000  0.0359  0.2015  0.0390
93579W        W36570  15.615  29.054  15.645  0.1465  0.0770 -0.0771
93580W        W36571  12.267  20.875   4.675 -0.3375 -0.0608  0.2831
93581W        W36572  29.158  26.023  17.921  0.1875 -0.3804 -0.3023
93582W        W36573  21.868  27.145  15.655  0.0770 -0.2981  0.0033
93583W        W36574  26.244  27.825  20.428  0.0059 -0.0951 -0.1066
93584W        W36575  11.783   0.508   1.104 -0.0438  0.3848 -0.1809
93585W        W36576  14.527  34.726  18.656  0.1035  0.2629  0.0363
93586W        W36577   0.381  13.562   1.871  0.2012  0.2032  0.0420
93587W        W36578   6.959  20.856   4.443 -0.1666  0.2677 -0.0003
93588W        W36579  24.378  31.645  25.096  0.3666  0.1060 -0.2466
93589W        W36580   8.753   1.143  18.193  0.1244 -0.2636 -0.1980
93590W        W36581  22.604   7.970  17.578  0.0675 -0.0305  0.1555
93591W        W36582  33.928  30.374   7.825  0.1069 -0.0749  0.0109
93592W        W36583  20.510   2.246  24.521  0.1186  0.3559 -0.0985
93593W        W36584  16.547  31.451   1.712  0.3515  0.0412  0.0580
93594W        W36585   7.148  29.391  22.637 -0.3179 -0.0747  0.0527
93595W        W36586  27.896  22.517  13.160  0.2310  0.0228  0.1140
93596W        W36587  20.208  26.874   3.962 -0.1897 -0.1841  0.1222
93597W        W36588  21.751  30.559  18.993 -0.2448  0.2079  0.0137
93598W        W36589   0.811  28.038  17.671  0.1968 -0.2778 -0.1993
93599W        W36590  28.950  14.997  24.234  0.1884  0.1649  0.1199
93600W        W36591  10.126  31.981  28.190  0.0080  0.2326  0.1092
93601W        W36592   6.772  27.300  28.409  0.0756  0.2532 -0.0293
93602W        W36593   6.917  16.812  16.189  0.0365  0.2029  0.2572
93603W        W36594  13.136  15.684   7.732  0.1227  0.0231 -0.1427
93604W        W36595  16.582   2.932  25.291 -0.1800  0.0938  0.3253
93605W        W36596  13.657  33.133  15.957 -0.0251  0.1763  0.2638
93606W        W36597  20.853  30.636   1.436 -0.0971 -0.0575 -0.2975
93607W        W36598  17.604  32.979  16.193 -0.3804 -0.2501  0.0333
93608W        W36599   7.092  25.149  22.353 -0.0233  0.1132  0.1685
93609W        W36600  27.221  25.988   1.083  0.0047  0.0240  0.2331
93610W        W36601  29.315  27.179   7.268  0.1060 -0.1454  0.0877
93611W        W36602  21.832  13.858  17.689 -0.0108 -0.3096  0.1507
93612W        W36603  27.664  26.296  21.064 -0.0098 -0.0335 -0.5389
93613W        W36604  27.712   0.152  27.920  0.1060  0.1015 -0.1764
93614W        W36605  22.763  17.298  28.958 -0.0297  0.0344 -0.1934
93615W        W36606  17.152  28.406  18.070 -0.0313 -0.0161 -0.1072
93616W        W36607  31.274  13.410  20.901 -0.2879 -0.2107  0.1769
93617W        W36608  19.575  20.494  15.911 -0.2063  0.0704  0.3030
93618W        W36609  14.334   5.141   2.796 -0.0277 -0.1833 -0.1773
93619W        W36610  22.506   7.021   0.248 -0.3080  0.0060  0.0376
93620W        W36611  23.124  18.055  17.860  0.5087 -0.0780  0.0529
93621W        W36612   9.635  13.321  26.376  0.0032 -0.0465 -0.0965
93622W        W36613  12.708  15.706  27.302 -0.2070  0.0970 -0.1400
93623W        W36614  30.118  17.173  15.840  0.0098  0.2545 -0.0922
93624W        W36615   4.354  20.261  19.190 -0.0792 -0.1472  0.3022
93625W        W36616  13.694   1.782  19.188 -0.1110  0.2100 -0.1600
93626W        W36617  18.528  15.734   5.595 -0.2445 -0.2230 -0.0736
93627W        W36618  15.788  26.400  15.147  0.0459 -0.0551  0.0607
93628W        W36619  16.805  32.776  18.571 -0.0190 -0.0516  0.3320
93629W        W36620  32.766  17.928  22.700  0.1462  0.0911  0.0053
93630W        W36621  11.103  19.491  15.245  0.2028  0.4827 -0.0913
93631W        W36622  19.483  26.099  13.653  0.1997 -0.2267 -0.0556
93632W        W36623  17.309  34.629   6.227 -0.0705  0.0461  0.0977
93633W        W36624  30.088  30.312  15.296  0.1755  0.3403  0.0230
93634W        W36625   9.378  32.537   1.083 -0.1751 -0.1120  0.3373
93635W        W36626  25.964   4.860  22.750  0.1305 -0.1402  0.0764
93636W        W36627  15.880  31.393  22.175 -0.1493 -0.0201 -0.1702
93637W        W36628   4.687  28.165   0.841 -0.1074 -0.2607  0.2370
93638W        W36629  10.939  10.180  23.040  0.2166 -0.0744 -0.4951
93639W        W36630  14.631  28.850   2.856 -0.0516 -0.0284 -0.3115
93640W        W36631  24.570  22.069  14.649 -0.0620  0.1094  0.2789
93641W        W36632  30.232  14.149   4.696  0.0611  0.2603  0.0831
93642W        W36633  28.371  25.405   5.091 -0.0123 -0.1734 -0.0827
93643W        W36634  33.646  30.238   6.574  0.1149  0.0192  0.1556
93644W        W36635   9.455  22.304  19.443 -0.1214 -0.1890 -0.0195
93645W        W36636  33.567  31.876  27.875 -0.2197  0.0135 -0.3235
93646W        W36637  17.116   1.305   4.296  0.0975 -0.1030 -0.0644
93647W        W36638   4.924   6.641  16.377 -0.2432 -0.1462 -0.0880
93648W        W36639  22.174  17.475  13.651 -0.2682  0.0942 -0.1117
93649W        W36640  20.189  29.029  14.456 -0.0317 -0.0359 -0.2339
93650W        W36641  21.312  19.304  18.187 -0.1444  0.0239  0.0732
93651W        W36642  28.847  15.074  26.892  0.2133  0.2477 -0.1086
93652W        W36643  21.002  29.857  24.514  0.1084 -0.2072 -0.1930
93653W        W36644   7.218  17.423  17.676  0.1162 -0.0632  0.2717
93654W        W36645  34.791   2.950  22.170 -0.1326  0.1673 -0.0876
93655W        W36646   9.718  32.472   0.546  0.2398  0.0303 -0.1535
93656W        W36647  11.439  24.959  18.603 -0.1213  0.2758 -0.1841
93657W        W36648  29.539  16.725  24.716  0.0821 -0.1604  0.0323
93658W        W36649   9.138  24.984  27.751 -0.0724 -0.0668  0.1358
93659W        W36650  13.750  26.863  20.891  0.1229 -0.2511  0.0173
93660W        W36651  12.504  10.692  21.100  0.2700 -0.0716 -0.1765
93661W        W36652  19.763  24.733  24.559 -0.1956  0.0018 -0.1160
93662W        W36653  23.931  29.111   6.758  0.0267  0.1511  0.3485
93663W        W36654   6.079  33.465  24.758 -0.0015  0.4181  0.0000
93664W        W36655  29.587  32.067  16.724 -0.1254 -0.3576 -0.2779
93665W        W36656  15.157  20.398  23.092  0.0087  0.0348 -0.0715
93666W        W36657  19.257  31.318   0.770  0.2079 -0.1604 -0.3556
93667W        W36658   8.480  16.977  19.493 -0.0112  0.0925 -0.3527
93668W        W36659  20.650  17.384  24.579  0.1083 -0.1214 -0.0033
93669W        W36660  30.814  19.611  18.612  0.1322 -0.0010 -0.1323
93670W        W36661  13.543  23.958  25.082  0.1577  0.0870  0.3409
93671W        W36662  11.667   2.433   3.426  0.3738  0.0860 -0.2579
93672W        W36663  29.805  17.722   2.733 -0.1749 -0.3993 -0.0252
93673W        W36664  27.952  30.928  14.306  0.1877 -0.0490  0.1676
93674W        W36665  12.966  12.411  15.467  0.0150 -0.1074 -0.0127
93675W        W36666  26.390  28.562   4.424 -0.1020  0.0218 -0.1243
93676W        W36667  28.243  29.221   0.346  0.2016  0.0399  0.4839
93677W        W36668  24.638   1.853   3.770  0.0418 -0.0764  0.0994
93678W        W36669   5.907  30.462  20.006 -0.0867  0.0131 -0.0941
93679W        W36670  29.372  16.718  24.201 -0.0877  0.0547  0.1275
93680W        W36671  32.734  33.970  22.887 -0.1225 -0.2976 -0.0130
93681W        W36672  29.304   3.728   7.229 -0.0542 -0.0878  0.1059
93682W        W36673  18.721  29.991  22.659  0.2587 -0.1361 -0.3141
93683W        W36674  29.009  18.551  24.969 -0.0287  0.0505  0.3519
93684W        W36675  19.313  16.279  14.347 -0.2605 -0.1868 -0.1783
93685W        W36676  18.093  18.879   4.610 -0.1262 -0.1961  0.2789
93686W        W36677  11.455  30.768  21.955 -0.1955 -0.0335  0.3187
93687W        W36678  18.705   6.575   9.642  0.0052  0.0252 -0.1911
93688W        W36679  18.657  28.706  21.557  0.1826  0.1219  0.3299
93689W        W36680  16.705   1.639  27.950  0.0175  0.1069 -0.2713
93690W        W36681  20.636  28.774  24.786 -0.3422 -0.0166 -0.0946
93691W        W36682   5.108  19.176   1.339  0.1114 -0.3996 -0.0425
93692W        W36683  17.123  22.795  29.142  0.2391 -0.2528  0.0711
93693W        W36684  27.278  15.728   5.766  0.1735  0.0481 -0.0782
93694W        W36685  20.801  25.671  20.245  0.3430  0.2239 -0.0841
93695W        W36686   7.295  13.148  15.868 -0.0595 -0.1154 -0.3315
93696W        W36687   6.779  14.478  27.082  0.1726 -0.0964 -0.1246
93697W        W36688  23.830  25.334   4.418 -0.0605  0.2775 -0.0506
93698W        W36689  17.775  20.760  17.156  0.1738 -0.1963 -0.2287
93699W        W36690  11.935  30.916   1.760 -0.1886 -0.0551 -0.0469
93700W        W36691   4.320  25.198  21.765  0.2708 -0.0352  0.0326
93701W        W36692  32.826  28.163   9.281 -0.2293 -0.0636  0.0941
93702W        W36693  28.524  28.164  15.500  0.0643  0.0031  0.2530
93703W        W36694  15.658  31.963   6.859  0.0736 -0.1442  0.2264
93704W        W36695  16.277   6.840  28.695 -0.2542  0.3377  0.0905
93705W        W36696  25.870  23.852  26.546 -0.0818  0.0306 -0.0377
93706W        W36697   0.552  31.894   4.781  0.0773 -0.0540 -0.1617
93707W        W36698  33.806  26.525  21.100 -0.2665  0.0742  0.0541
93708W        W36699  22.312  19.351   7.962  0.0095  0.3059 -0.0344
93709W        W36700  34.027  11.861  15.809 -0.2111  0.2300  0.1140
93710W        W36701  34.003  12.298  14.979  0.2944 -0.1953  0.2564
93711W        W36702  29.224  26.994  20.429 -0.0956 -0.2560 -0.2226
93712W        W36703  29.489  23.727  16.952  0.2101 -0.1147  0.0752
93713W        W36704  10.232  19.041   5.084  0.2734 -0.0181 -0.2030
93714W        W36705  24.594  19.493  23.147 -0.1876  0.2605 -0.1492
93715W        W36706  22.540  18.253  26.444 -0.0623  0.4481  0.0208
93716W        W36707  15.539  18.131  14.195  0.0553  0.1344  0.0975
93717W        W36708   2.452  20.629   4.348  0.0364  0.0621  0.2152
93718W        W36709  16.405  25.366  28.106 -0.0641  0.2791 -0.2958
93719W        W36710  10.531  16.557  26.548 -0.0187  0.0647  0.0917
93720W        W36711   2.072  17.895   0.254  0.0479  0.1837 -0.6332
93721W        W36712  22.445  10.419   3.973  0.0849 -0.0661 -0.0617
93722W        W36713  32.946  17.641  27.578 -0.2579  0.2275 -0.0060
93723W        W36714   3.036  15.128  20.660 -0.4452  0.1077  0.1770
93724W        W36715  18.490  25.726  20.508  0.1373  0.0505  0.0812
93725W        W36716  10.238  31.799   1.262 -0.1284  0.1928  0.2003
93726W        W36717  13.068  25.143   3.252 -0.0649 -0.2850  0.1552
93727W        W36718   1.819  23.644  19.302  0.0183  0.0988 -0.0424
93728W        W36719   4.666  34.619   5.146  0.1723  0.0137  0.0526
93729W        W36720  19.358  29.051  28.896  0.1968 -0.0586 -0.0197
93730W        W36721  28.215   0.881  28.208 -0.0461  0.2398  0.3231
93731W        W36722   4.837  17.261  25.652 -0.0789  0.1153 -0.0470
93732W        W36723  27.550  34.699  25.197 -0.0723 -0.2869 -0.1832
93733W        W36724   8.440  21.540   7.782 -0.1610  0.1892 -0.0454
93734W        W36725  24.117  24.749  23.245  0.0254 -0.2495 -0.1942
93735W        W36726  22.839  23.553  15.008  0.3974 -0.2320 -0.1345
93736W        W36727  28.874  18.519  19.103  0.3539 -0.0144 -0.2227
93737W        W36728   1.847  21.040  10.521 -0.0297  0.2601  0.1108
93738W        W36729  10.582  12.469  25.236  0.1369  0.0662  0.1388
93739W        W36730  20.738  13.481   0.912  0.3128 -0.0371  0.1427
93740W        W36731  31.858  33.030  13.903  0.1842  0.4513 -0.2726
93741W        W36732  20.773  31.316  28.067 -0.0728  0.5879  0.3985
93742W        W36733  30.863  24.483  18.943  0.0502 -0.1179 -0.1710
93743W        W36734   3.916  18.905   3.524 -0.1608 -0.0440 -0.3623
93744W        W36735  30.755  26.480   6.993 -0.0929 -0.0463  0.0421
93745W        W36736  28.762  28.640  19.837  0.0905 -0.1699 -0.1343
93746W        W36737  10.091   6.724  23.728 -0.2754 -0.1486  0.0175
93747W        W36738  23.726   5.758  19.887 -0.0861  0.2217 -0.2137
93748W        W36739  21.556  25.620   0.343  0.4277  0.0953 -0.1562
93749W        W36740  19.823  27.060  27.539 -0.0826 -0.3746 -0.6190
93750W        W36741  18.184  12.570  21.340  0.4079 -0.0835 -0.0073
93751W        W36742  19.944  10.528  21.146 -0.1583  0.0079 -0.0523
93752W        W36743  19.459   1.648   7.989  0.2093 -0.0972 -0.1052
93753W        W36744  14.889   1.119   0.722  0.3621  0.2655 -0.1847
93754W        W36745  29.415  24.493   3.605  0.0518 -0.1550  0.1233
93755W        W36746  23.529  20.917   2.880  0.2394 -0.1257 -0.3008
93756W        W36747  33.470  28.908  22.145  0.1301 -0.1082 -0.1454
93757W        W36748  24.704  20.743   2.227  0.0834  0.1957 -0.5315
93758W        W36749  26.145  32.642  13.539  0.0751 -0.1164 -0.0824
93759W        W36750  14.068  11.519   9.656 -0.1212  0.0203 -0.2556
93760W        W36751  24.121  22.656  18.302 -0.2443  0.1520  0.0304
93761W        W36752  11.370   1.342  19.419  0.0108 -0.0550 -0.2706
93762W        W36753  21.714  27.029   4.724 -0.3946  0.1036  0.2354
93763W        W36754  33.376  24.345   7.306 -0.0146  0.1981 -0.3296
93764W        W36755  24.962  26.107   1.826 -0.1224 -0.0849  0.1306
93765W        W36756  28.219  11.967   2.413 -0.0220  0.2600  0.2956
93766W        W36757  22.906  20.230   2.409 -0.3416  0.0657 -0.2153
93767W        W36758  28.253   4.322  16.548  0.2388  0.2330  0.2820
93768W        W36759   9.266  17.380  25.431  0.0491 -0.1449 -0.0469
93769W        W36760   8.743  16.588  22.942  0.1303 -0.0330 -0.2686
93770W        W36761   9.562  28.781   5.440  0.2041  0.0275  0.0728
93771W        W36762   4.086   1.414   9.162  0.3202  0.0734 -0.0485
93772W        W36763  20.738  32.602   3.048  0.0304 -0.0814 -0.3010
93773W        W36764  23.313  19.169   0.298 -0.0650 -0.0619  0.0754
93774W        W36765  26.907  27.572  24.131  0.1735  0.0542  0.0765
93775W        W36766   3.592  28.957  21.670 -0.1081 -0.3568  0.1080
93776W        W36767  20.542  27.020  19.792 -0.2386 -0.0482 -0.0426
93777W        W36768  24.236  13.774   9.565  0.1953 -0.0015  0.0762
93778W        W36769  23.048  21.334   9.133  0.3696 -0.2746 -0.0204
93779W        W36770  32.210  10.077  18.472 -0.2098 -0.1523  0.2030
93780W        W36771  22.387  18.028   1.785  0.2842  0.0930  0.3401
93781W        W36772  14.983   0.169  28.550 -0.0101 -0.0832 -0.2208
93782W        W36773   6.558  18.618  28.647 -0.1152 -0.0036 -0.2082
93783W        W36774  30.050  20.395   6.464  0.0377  0.0887  0.1368
93784W        W36775   7.640   0.683   0.380  0.2325  0.0402  0.0141
93785W        W36776   7.182  15.121   6.459 -0.0138 -0.0565 -0.0080
93786W        W36777  13.413  30.406   1.904 -0.1557 -0.1750 -0.1232
93787W        W36778  34.225   7.594   1.927 -0.2052  0.0389 -0.0100
93788W        W36779  18.947  33.061  22.383  0.1585 -0.1691 -0.3763
93789W        W36780   5.909  19.882  20.890  0.2061  0.1902 -0.0351
93790W        W36781  19.791  19.823   1.781 -0.3894  0.0833 -0.0811
93791W        W36782  24.966  34.470  13.726 -0.3153  0.1716 -0.1562
93792W        W36783   2.982  21.754  27.979  0.1183  0.0942 -0.2542
93793W        W36784  19.673   1.022   1.003 -0.1215  0.1371 -0.0669
93794W        W36785  20.642  25.384  15.914  0.1579  0.2947 -0.1441
93795W        W36786  26.829   1.455  16.140  0.0786  0.0050 -0.0365
93796W        W36787  12.238  14.269  19.788  0.0415 -0.1813  0.1441
93797W        W36788  10.038  17.951  22.481 -0.2351  0.2651 -0.2724
93798W        W36789  27.641   2.402  24.724  0.0816  0.1307 -0.2224
93799W        W36790  32.619  27.407   4.297 -0.0800 -0.0498 -0.0672
93800W        W36791  25.030  24.001   8.048 -0.1115  0.0250  0.0015
93801W        W36792  15.684  11.467  23.426  0.1571  0.0307 -0.5721
93802W        W36793  26.940  17.296  28.496  0.0177  0.4321 -0.0459
93803W        W36794   9.296  28.149  20.526  0.0054 -0.3005  0.2709
93804W        W36795   1.565  15.935  25.690  0.0843 -0.2149 -0.2432
93805W        W36796  18.087  23.891  26.241 -0.1727 -0.0585  0.0820
93806W        W36797  30.521  16.305  19.180 -0.0867  0.3571 -0.0625
93807W        W36798  27.038  31.231  21.039 -0.0864  0.1252 -0.0430
93808W        W36799  29.543  18.111   3.558  0.0388  0.5495 -0.1689
93809W        W36800  14.989  27.037  20.539 -0.1137  0.2848  0.2224
93810W        W36801   2.354  20.676   6.514 -0.1327 -0.1790 -0.2480
93811W        W36802  21.416  14.940  23.573  0.0197 -0.1555 -0.0335
93812W        W36803  27.732   5.921  26.824 -0.1235 -0.2228 -0.0837
93813W        W36804  18.269  28.689   8.044 -0.2261 -0.0329  0.2390
93814W        W36805  26.062   9.896  22.286  0.0970  0.0971  0.1155
93815W        W36806  11.540  18.221  19.067 -0.0706  0.1788  0.1756
93816W        W36807  12.680  33.234  25.505  0.3783  0.2345 -0.2554
93817W        W36808  20.731  26.118   3.550  0.1255 -0.0833  0.1932
93818W        W36809  28.902  31.176   1.899 -0.3533  0.1685  0.1731
93819W        W36810  22.034  19.961  25.128  0.1991  0.1097 -0.1082
93820W        W36811  12.516  20.156   7.852 -0.0459  0.3109  0.2878
93821W        W36812  17.415  26.951  13.665  0.0578  0.0096 -0.0026
93822W        W36813  25.150  34.164  25.634 -0.2634  0.1036  0.1874
93823W        W36814  12.777   0.020  20.484 -0.2160 -0.1030 -0.5279
93824W        W36815  31.330  26.922   2.685 -0.2980  0.2181 -0.0813
93825W        W36816  21.560  12.188  23.660  0.2933 -0.2080 -0.0084
93826W        W36817  10.616  20.798   5.924 -0.0587  0.0578  0.3819
93827W        W36818  20.504  29.465  20.384  0.2493 -0.0042 -0.0762
93828W        W36819   9.607  22.728  20.909 -0.4576 -0.3307 -0.2497
93829W        W36820  25.997  19.411   4.190  0.0983  0.0960 -0.1763
93830W        W36821  25.049  30.544  24.690  0.0196 -0.0564  0.0368
93831W        W36822  15.917  22.268   9.454  0.2216 -0.3315  0.0660
93832W        W36823  25.833  26.927   2.315  0.3324 -0.0796  0.2462
93833W        W36824  31.371  14.867  27.878 -0.0483 -0.0693 -0.2162
93834W        W36825   5.792   6.502  25.043  0.2217 -0.1074  0.0067
93835W        W36826  20.351  28.515   2.471 -0.0294  0.2973  0.1404
93836W        W36827  28.230   2.696  15.170  0.3807 -0.2091  0.1125
93837W        W36828  32.648   2.508   0.584 -0.0182 -0.1153  0.4208
93838W        W36829   9.721  22.453  19.892 -0.0869  0.1813  0.2651
93839W        W36830  23.733  27.179   5.465  0.0644  0.2921  0.1249
93840W        W36831  29.696   1.940   0.640  0.2457  0.0763 -0.0622
93841W        W36832  13.335  21.673  22.129 -0.3054 -0.0406 -0.0803
93842W        W36833   2.321  29.828  25.817  0.0722  0.1913  0.0118
93843W        W36834   2.184  29.159  26.670  0.0707  0.0327 -0.1384
93844W        W36835  24.763  20.700   9.024 -0.0775  0.0145 -0.0843
93845W        W36836  28.413  31.069   4.067  0.1734  0.0257  0.0344
93846W        W36837   7.482  19.617  28.630 -0.0292 -0.1224  0.0891
93847W        W36838  11.207   9.744   8.634 -0.4880 -0.0188  0.0593
93848W        W36839  18.176  22.887   3.104 -0.2236  0.0061 -0.1318
93849W        W36840  31.896  19.965  20.778 -0.1654 -0.1879 -0.1994
93850W        W36841  21.764  15.372   3.620  0.0657  0.0401  0.0636
93851W        W36842  22.102  11.423  27.004 -0.0693 -0.2028 -0.1774
93852W        W36843   0.293  14.032  19.386 -0.0271 -0.1405 -0.0074
93853W        W36844  28.208  28.524  21.115 -0.1287  0.2699  0.0649
93854W        W36845  31.297  24.508  17.418 -0.1706  0.0063  0.0263
93855W        W36846  25.284  24.120   4.292 -0.1067  0.1162 -0.2463
93856W        W36847  14.700  33.949  25.439 -0.2268 -0.0404 -0.1449
93857W        W36848  29.085   0.788  24.368  0.0706 -0.0217  0.2384
93858W        W36849  23.124  12.101  22.211 -0.1705  0.2343 -0.1591
93859W        W36850  29.010  22.525  28.050 -0.0606 -0.1366  0.0042
93860W        W36851  10.191  23.974  23.825  0.0535  0.0718 -0.0277
93861W        W36852  17.238  30.480   4.835  0.1786  0.0371  0.1445
93862W        W36853   3.263  24.126  21.705 -0.1022 -0.0880 -0.0346
93863W        W36854  24.082  13.437  20.454  0.1440 -0.0157 -0.1571
93864W        W36855  28.801  24.154  22.942  0.1055 -0.0503  0.2423
93865W        W36856   7.977  26.001   4.093 -0.0446  0.0895  0.1296
93866W        W36857   9.240  17.873   4.355 -0.1401  0.1400  0.0441
93867W        W36858  17.557  24.847  20.966 -0.1624  0.1077 -0.0507
93868W        W36859  26.063   4.972   5.553  0.0645  0.0981  0.1314
93869W        W36860  23.712  18.637   3.587 -0.0622 -0.0414 -0.2126
93870W        W36861  19.775  23.039   2.323  0.1142  0.4446 -0.2893
93871W        W36862   5.582   6.471  28.312  0.1727 -0.2159 -0.1641
93872W        W36863   9.487  29.606  10.326 -0.0099 -0.2088  0.2012
93873W        W36864  15.976  23.802   6.368 -0.0408 -0.2821  0.0839
93874W        W36865  19.314  31.600  16.654  0.0695  0.2014  0.1000
93875W        W36866  11.278  29.729  23.305 -0.1383  0.2793  0.0060
93876W        W36867  27.058  28.168  26.071  0.1706  0.2418  0.0641
93877W        W36868  24.397   5.932  27.867 -0.0361 -0.3458  0.1915
93878W        W36869  17.108  28.454   0.613  0.1173  0.2683 -0.3345
93879W        W36870  25.460  24.031   9.441  0.0337 -0.0137 -0.1970
93880W        W36871  18.890  13.975  28.284 -0.0766  0.0961  0.1649
93881W        W36872  20.500  27.377   7.349 -0.1374  0.0939 -0.3022
93882W        W36873   0.887   0.063   2.732  0.2901 -0.0854 -0.0263
93883W        W36874  30.006  21.911  13.883  0.1422  0.1389  0.2392
93884W        W36875   9.877  21.928   3.378  0.1474 -0.1930 -0.0294
93885W        W36876   8.176  27.110  21.243  0.1914  0.0334  0.2408
93886W        W36877   5.901  27.315   6.322 -0.0257  0.0134 -0.2048
93887W        W36878  24.639  18.644   2.091  0.2609 -0.6348  0.3282
93888W        W36879  33.609   9.416   0.206 -0.0336 -0.3981 -0.0315
93889W        W36880  26.404  18.519   4.776 -0.2412  0.0392 -0.0246
93890W        W36881   9.016  29.212  20.741  0.3112  0.1669  0.2180
93891W        W36882  18.466   8.084  23.245 -0.2963  0.0944  0.0048
93892W        W36883  25.181  31.960  25.386  0.0463 -0.0469  0.2838
93893W        W36884  26.840  33.901   0.249  0.0453  0.0797  0.0174
93894W        W36885   9.716  22.936  22.577  0.0435  0.2020  0.3266
93895W        W36886  27.917  21.076  28.664  0.0181 -0.3325 -0.0006
93896W        W36887  28.881   8.591  23.783  0.0108  0.0301  0.1162
93897W        W36888  19.720  29.795   5.620  0.0272 -0.1784 -0.1575
93898W        W36889  18.687  21.473   8.998 -0.1663 -0.0772  0.3598
93899W        W36890  27.150  32.127  23.038  0.1963  0.2481 -0.0247
93900W        W36891  12.161  20.098   8.271  0.0243  0.0614 -0.1509
93901W        W36892  21.752  26.216  20.855  0.3102  0.2040 -0.3743
93902W        W36893  32.113   8.365   7.795  0.0326  0.0121 -0.2793
93903W        W36894  25.784  27.478  21.755 -0.2858  0.1621  0.0245
93904W        W36895  21.690  25.298   5.533 -0.0475 -0.2265  0.0028
93905W        W36896   2.479  12.358  16.255 -0.2218  0.1185  0.0086
93906W        W36897  30.100   0.146  22.358  0.2140 -0.0865  0.2355
93907W        W36898  31.814  26.769  26.257  0.1760  0.0320  0.0024
93908W        W36899  20.278   0.231  23.634  0.0005 -0.4111  0.0897
93909W        W36900  20.993  27.622   0.978  0.1531 -0.3183 -0.1084
93910W        W36901   0.872  23.665  18.431 -0.2718 -0.1962  0.1938
93911W        W36902   0.859  12.715   3.959  0.0778  0.2126 -0.1088
93912W        W36903   7.085  22.920  19.616 -0.2258 -0.0273 -0.2679
93913W        W36904  20.641  30.305   0.151 -0.0112  0.0342 -0.1514
93914W        W36905  18.245  19.037   5.112 -0.0175 -0.2359  0.2442
93915W        W36906  18.232  16.890   2.950  0.2534 -0.0681  0.0473
93916W        W36907  14.750  16.060  14.819 -0.0620 -0.0498 -0.2383
93917W        W36908  21.453  28.351  28.116 -0.1672 -0.1091  0.0828
93918W        W36909  21.928  18.040  20.494 -0.0196 -0.1989 -0.2104
93919W        W36910  22.870  21.036   2.160  0.1444 -0.0565  0.3098
93920W        W36911  18.042  11.634  26.279 -0.0005 -0.2405  0.1620
93921W        W36912  12.116  33.188  23.653 -0.0488 -0.4533 -0.2476
93922W        W36913  12.951  28.938  27.618  0.1267 -0.1443 -0.0060
93923W        W36914  15.395  28.166  20.872 -0.1992  0.1685  0.1266
93924W        W36915  23.879  18.791  27.908 -0.4205 -0.1286 -0.1376
93925W        W36916  16.673  23.993   9.555 -0.0122  0.1938  0.0548
93926W        W36917  14.177  26.934   4.475  0.0265 -0.0611 -0.0345
93927W        W36918  22.828  12.251  14.399  0.0110  0.0032  0.1255
93928W        W36919   6.791  19.463   7.591 -0.2713  0.2380  0.2355
93929W        W36920  10.034  10.952  25.633  0.2919  0.1248  0.2159
93930W        W36921  27.459  24.152  27.104 -0.0725 -0.1191  0.1281
93931W        W36922  12.727  20.271  22.687  0.0405 -0.0891 -0.0277
93932W        W36923  14.859  16.317  22.617  0.1346 -0.0453 -0.0958
93933W        W36924  16.329  33.261  25.571 -0.2946 -0.1931 -0.2389
93934W        W36925  12.938  13.855  18.625  0.2134  0.1664 -0.1085
93935W        W36926  15.643  19.594   7.494 -0.1677  0.2234 -0.1613
93936W        W36927  21.461   6.049  16.021 -0.0333  0.0052  0.1384
93937W        W36928   0.971  31.359   8.589  0.0846 -0.1030  0.2755
93938W        W36929  32.911   6.890   2.388  0.0440 -0.0061  0.2678
93939W        W36930  23.086  17.444   3.291 -0.0806 -0.1459  0.1759
93940W        W36931   0.679   7.259  23.277  0.1590  0.0257 -0.0238
93941W        W36932  20.768   1.231  14.014 -0.0464 -0.0272  0.1497
93942W        W36933   8.468  27.406  28.871  0.1229  0.0167  0.1250
93943W        W36934  19.058  26.920  24.423  0.0734  0.1551 -0.0527
93944W        W36935  27.980  18.450   2.370 -0.1436  0.1447 -0.0239
93945W        W36936  18.585   4.979   3.983 -0.1314  0.1388  0.2520
93946W        W36937  17.558  27.801  20.793 -0.1399 -0.2353  0.0279
93947W        W36938  23.067  30.395   0.100  0.3181  0.1547  0.0877
93948W        W36939  10.210  28.151  23.470  0.0037  0.0924  0.2910
93949W        W36940  15.437  23.645  13.363 -0.0119  0.0372  0.2763
93950W        W36941   5.290   0.772  14.861 -0.3746 -0.0274 -0.4498
93951W        W36942   7.676  25.470  10.800  0.2696  0.0479  0.4599
93952W        W36943  17.533  27.249   8.332  0.0434  0.0503  0.2306
93953W        W36944  17.163  16.817  28.232 -0.0869  0.1682 -0.1359
93954W        W36945  21.245  25.449   1.575  0.0274  0.1226 -0.0631
93955W        W36946  32.888   5.551  27.175  0.3090 -0.3511 -0.1661
93956W        W36947  16.399  17.306   7.510  0.3352 -0.4298 -0.1733
93957W        W36948  31.218   5.156  19.004 -0.0277  0.3938 -0.2724
93958W        W36949  30.881  28.500   8.927 -0.4415 -0.3276  0.0184
93959W        W36950  20.932  24.229  27.759  0.1952 -0.3346  0.0380
93960W        W36951   4.369  22.529   8.351 -0.1059  0.2157  0.1471
93961W        W36952  12.460  27.996  27.301 -0.1078 -0.0015  0.1481
93962W        W36953  23.753  22.619  24.620 -0.1012  0.3931  0.2275
93963W        W36954   3.638   2.936  19.030  0.2222  0.2838 -0.3633
93964W        W36955   5.625  32.362  21.368 -0.2195  0.1321 -0.0464
93965W        W36956  10.857  26.102   3.677 -0.0131  0.0999  0.0215
93966W        W36957  14.759  21.073   6.141  0.0116  0.1346 -0.0609
93967W        W36958   5.597  16.673  26.139 -0.0695  0.0426  0.1101
93968W        W36959  32.162  22.232   2.311 -0.0832 -0.2155 -0.1282
93969W        W36960  31.466  23.552  22.863 -0.2294  0.1530  0.0984
93970W        W36961  21.423  10.205  28.893 -0.1885  0.1591  0.1330
93971W        W36962  34.214  19.729   0.146  0.0928  0.1931 -0.1254
93972W        W36963  14.080  32.456   6.538  0.4345 -0.1921 -0.1288
93973W        W36964  28.478  22.136  24.691 -0.2777 -0.0682 -0.3427
93974W        W36965  19.631  20.865   5.558 -0.0515  0.0675 -0.1663
93975W        W36966  10.046  26.577  22.130  0.1721 -0.0076 -0.0279
93976W        W36967  20.430   2.652  23.262 -0.1806 -0.1052 -0.5625
93977W        W36968  27.857  25.637  18.757 -0.1804  0.2142  0.0547
93978W        W36969  17.345  23.449  20.319  0.0542 -0.1315 -0.2978
93979W        W36970  10.952  32.635  28.457 -0.1022 -0.1499  0.0141
93980W        W36971  12.983  29.744   4.627 -0.0174 -0.1179  0.2253
93981W        W36972   5.865  22.451   6.419  0.0448 -0.2483  0.2071
93982W        W36973  11.899  22.922  13.587 -0.2124  0.0730 -0.3706
93983W        W36974  22.894   0.144  19.886 -0.2558 -0.1941  0.0575
93984W        W36975  11.226  31.399  14.660 -0.3217  0.1576 -0.0391
93985W        W36976  27.644   6.141   5.277 -0.3759  0.1693  0.0132
93986W        W36977  22.708  24.918  26.094 -0.2700 -0.2232  0.2876
93987W        W36978  30.794  13.895  28.790  0.1255  0.1487 -0.4764
93988W        W36979  29.007  20.305  29.157  0.1629  0.0775 -0.1422
93989W        W36980  28.632  31.201  27.363 -0.3327 -0.2565 -0.1791
93990W        W36981   0.340  11.866   7.593 -0.1934 -0.2145 -0.0737
93991W        W36982  20.177  28.552   1.968 -0.1120 -0.1012 -0.2729
93992W        W36983   7.388  26.788  24.298 -0.2153  0.2818 -0.2123
93993W        W36984  13.360  23.877   8.156  0.1675  0.1262  0.0440
93994W        W36985   8.306   3.858  15.933 -0.2595 -0.0587  0.3247
93995W        W36986  30.320  23.187   3.806  0.1585  0.0871  0.1958
93996W        W36987  22.039  31.882  28.718  0.1805 -0.0914 -0.1209
93997W        W36988  19.385  27.167   4.169 -0.0660  0.3447  0.2426
93998W        W36989  15.693  26.792   9.422 -0.1974 -0.3697 -0.0351
93999W        W36990  22.195  18.540   4.661  0.0250 -0.1096  0.1304
94000W        W36991   7.520  31.791  24.487  0.2101  0.2421  0.0532
94001W        W36992  10.224  21.329  19.527 -0.1031  0.1416  0.1376
94002W        W36993  17.216  14.437   5.518  0.3296 -0.0497  0.1695
94003W        W36994  16.084  19.989   2.410 -0.0270  0.1249 -0.0409
94004W        W36995  20.158  21.682  18.952 -0.0247 -0.0795  0.2509
94005W        W36996  22.811  22.529   1.613 -0.1151  0.0355 -0.2152
94006W        W36997  17.542  17.144  28.029  0.1061 -0.2511  0.0195
94007W        W36998  15.371  24.391  19.452  0.3443  0.0363 -0.0712
94008W        W36999   4.844  19.897  19.333  0.0273  0.0922 -0.0253
94009W        W37000   3.792   3.329  23.249 -0.3170  0.0079 -0.1331
94010W        W37001  15.826  32.362  25.282  0.1987  0.2720  0.0595
94011W        W37002  18.251  10.149  24.389  0.1073  0.0529  0.0027
94012W        W37003  18.159  13.242  25.693 -0.2379 -0.1146 -0.0535
94013W        W37004  23.242   0.106  22.440  0.1384  0.1307 -0.1661
94014W        W37005   5.778  11.668  28.543  0.0079  0.0184 -0.3135
94015W        W37006  23.447  25.372  27.766  0.3525  0.4581 -0.0420
94016W        W37007  27.209  25.517  21.017  0.1247 -0.0917  0.0022
94017W        W37008   9.771   7.802  10.574 -0.1868  0.0328 -0.0176
94018W        W37009  11.799  12.372  22.102  0.0217  0.0238  0.1298
94019W        W37010  12.381   0.464  18.517 -0.0203  0.0111 -0.0545
94020W        W37011  15.970  34.051   9.775 -0.1526 -0.0640  0.1429
94021W        W37012  19.589  31.396  22.863 -0.1048  0.2399 -0.1841
94022W        W37013  15.251  32.787   5.473 -0.5058  0.1810  0.1304
94023W        W37014  16.573  24.835  24.361  0.0860  0.4235 -0.0788
94024W        W37015  18.953  15.515   4.414  0.0317  0.2734 -0.0435
94025W        W37016  14.833  25.261   1.866 -0.3807  0.1670  0.2003
94026W        W37017   8.812   9.327  26.869 -0.1158 -0.0287 -0.2926
94027W        W37018  11.720  28.949  19.221 -0.0890 -0.1927 -0.1589
94028W        W37019  20.342   1.855   7.469 -0.0161  0.0735 -0.2121
94029W        W37020  17.027  10.526  17.654 -0.0278 -0.2289 -0.0042
94030W        W37021  32.132  19.886  22.326 -0.1526 -0.0679 -0.1529
94031W        W37022  10.841  23.257  14.213 -0.2566 -0.1409 -0.0547
94032W        W37023  23.937  24.748  25.554  0.2711 -0.2639  0.1270
94033W        W37024  20.441  25.892   2.606 -0.1184  0.0306  0.3508
94034W        W37025  19.588  14.538  25.679 -0.2426  0.0924  0.5298
94035W        W37026  13.108   2.888  20.945  0.2871  0.0691 -0.0013
94036W        W37027   7.180  22.364  25.294 -0.2099  0.0534  0.1307
94037W        W37028  25.488  13.862  24.899 -0.2353 -0.5351  0.0228
94038W        W37029   7.215  33.256  20.296  0.0543  0.0306 -0.0153
94039W        W37030  20.838  26.812   9.411  0.0881  0.0153  0.0305
94040W        W37031  14.012   8.866  16.195  0.0776 -0.0788 -0.0183
94041W        W37032  27.440  22.460   2.624  0.0325 -0.0220 -0.5221
94042W        W37033  22.234   7.779   1.097 -0.1416 -0.0764  0.0500
94043W        W37034  12.761   6.205   4.184 -0.1706  0.0668 -0.2415
94044W        W37035  21.874  17.713  29.181  0.2069 -0.1427  0.1267
94045W        W37036  33.549  18.404  23.167 -0.1429  0.0454  0.0684
94046W        W37037   7.908  10.967   5.816 -0.0572  0.1869  0.1104
94047W        W37038   5.405  12.437   0.295  0.1417  0.0447 -0.1443
94048W        W37039  26.442  12.287  18.918 -0.2295 -0.1538  0.4267
94049W        W37040  11.017  27.898  15.238 -0.1599  0.2574 -0.1812
94050W        W37041  22.016  22.949  29.033  0.1655 -0.1189  0.1141
94051W        W37042  34.452  12.883  22.368  0.0095  0.0307 -0.1422
94052W        W37043  22.132  27.192  23.772 -0.1150  0.2076 -0.0426
94053W        W37044  32.837   3.595  24.457  0.2106  0.1918 -0.0127
94054W        W37045  30.277  19.014   6.527  0.0793  0.2593  0.2316
94055W        W37046  19.295  15.389  28.510 -0.0816  0.0299  0.2899
94056W        W37047  30.983  21.925  23.351  0.1964  0.0990  0.3048
94057W        W37048  18.649  28.589  16.105 -0.0479 -0.3515  0.1703
94058W        W37049  21.313  28.092  20.837 -0.2205 -0.1737  0.4033
94059W        W37050  19.699  24.546  14.093  0.0193 -0.1709  0.0737
94060W        W37051  15.011  27.309  18.228 -0.3937  0.0506 -0.1645
94061W        W37052  20.325  34.097   2.498 -0.2325  0.1763  0.1113
94062W        W37053  16.412  20.703   0.971  0.0821  0.1155 -0.0332
94063W        W37054  18.038  13.762  27.822 -0.4495 -0.0201  0.1797
94064W        W37055   2.643   0.598  24.144  0.0017  0.1080 -0.1012
94065W        W37056  26.457   7.909  16.638 -0.1239  0.0508 -0.3056
94066W        W37057  25.298  33.275  21.296 -0.0455 -0.3410  0.0298
94067W        W37058  14.500  25.698  17.015  0.0003 -0.2069  0.0564
94068W        W37059   4.599  34.100   2.823 -0.0911  0.1053 -0.3272
94069W        W37060   2.071  27.176  13.842 -0.2045 -0.3385  0.0547
94070W        W37061   5.440  23.761   8.122  0.2742 -0.0978 -0.0745
94071W        W37062   5.307  19.622  25.986 -0.0793 -0.0594  0.0163
94072W        W37063  25.635  26.503  13.446 -0.0443 -0.0006  0.0918
94073W        W37064   1.463  32.878   6.938  0.2338  0.1815 -0.0933
94074W        W37065  12.710  19.378  23.832  0.0652  0.2436  0.1531
94075W        W37066  15.430  30.545  28.903 -0.4041  0.1130  0.2919
94076W        W37067  20.238  31.669   3.100 -0.2682 -0.0870 -0.1086
94077W        W37068  11.619  22.496  18.698 -0.1729 -0.0339 -0.2775
94078W        W37069  14.745  32.841   1.271 -0.1047 -0.1556  0.3443
94079W        W37070  18.946  10.686   8.106 -0.1065 -0.0746  0.1490
94080W        W37071  30.550   2.484  18.154 -0.0963 -0.0321  0.0225
94081W        W37072  15.428  31.019  22.183  0.1282  0.1400 -0.2023
94082W        W37073  13.195  30.908   5.638 -0.1162 -0.0439 -0.0944
94083W        W37074  26.237  28.376  25.941 -0.0723 -0.3060 -0.2770
94084W        W37075  14.394   0.850   1.533  0.0188  0.2484 -0.1680
94085W        W37076   3.210  28.015  24.403 -0.1717  0.1459  0.1503
94086W        W37077  14.515  21.570   0.139  0.2687  0.0178 -0.1836
94087W        W37078  13.846  29.049   8.169 -0.0074 -0.0096  0.0540
94088W        W37079  31.410  21.841   7.031  0.0647 -0.4512  0.1164
94089W        W37080  22.441  14.224  25.014 -0.1769 -0.2134 -0.0554
94090W        W37081   7.417  21.033  28.281  0.1625 -0.1626  0.0856
94091W        W37082   4.505   7.278  28.599  0.2093 -0.0069 -0.0151
94092W        W37083  24.354  23.627  14.110 -0.1721 -0.0272  0.1763
94093W        W37084  23.895  17.447  26.371  0.2052  0.2546  0.3575
94094W        W37085  28.440   4.347   1.170 -0.0844  0.0391 -0.1734
94095W        W37086  19.340  27.192   1.200 -0.3262  0.1213  0.0030
94096W        W37087  11.450  16.884  23.212  0.0445 -0.4467  0.0174
94097W        W37088  11.910  12.372  16.802  0.1828  0.2315 -0.0898
94098W        W37089  13.507  34.664  10.252 -0.1761  0.0700 -0.1229
94099W        W37090  13.455  22.987  28.386  0.3457  0.1671 -0.3301
94100W        W37091  18.051  31.769  27.447 -0.2200 -0.2357  0.1100
94101W        W37092  20.610  20.371   1.186 -0.0767  0.2483 -0.1182
94102W        W37093   7.309   6.803   0.305 -0.1358 -0.1078  0.2300
94103W        W37094   1.537   7.789  26.316 -0.0411 -0.4223  0.0387
94104W        W37095  16.875  20.347   1.097 -0.0051  0.2583  0.1815
94105W        W37096  13.236  22.552  16.143 -0.0438 -0.4185 -0.2594
94106W        W37097  18.648  15.477   8.428  0.2221 -0.0586 -0.0242
94107W        W37098  15.907  23.889  16.142  0.0433  0.3962  0.1590
94108W        W37099  17.104  28.450  20.828 -0.2030 -0.2109  0.0422
94109W        W37100  11.305  24.124   1.274  0.3087  0.3494 -0.0139
94110W        W37101  21.002  22.246  23.181  0.1153 -0.4545  0.0643
94111W        W37102  28.054   3.679   1.146 -0.0082 -0.0359 -0.1153
94112W        W37103  21.358  29.316  17.128 -0.4299 -0.0302  0.3317
94113W        W37104  11.865  14.226  24.650  0.0678  0.0020 -0.1304
94114W        W37105  26.109  27.348   6.887 -0.2208 -0.1084 -0.1027
94115W        W37106   4.561  21.225  18.010 -0.0101  0.1067  0.1728
94116W        W37107  12.617  17.371  25.882  0.0676 -0.2690  0.2909
94117W        W37108  23.282  34.500  26.044 -0.2764  0.0912  0.0192
94118W        W37109  16.972  26.314  27.281 -0.0892 -0.2349  0.0906
94119W        W37110  31.992  24.583  29.003 -0.0377 -0.1866 -0.0789
94120W        W37111  19.806  27.963   2.454  0.1760  0.2616 -0.3422
94121W        W37112  22.382  28.932   7.299 -0.1196  0.2368  0.2141
94122W        W37113   0.082  23.696   6.423  0.1777  0.1014  0.5092
94123W        W37114  12.084  32.178  27.944 -0.2665 -0.1389 -0.0392
94124W        W37115  25.680  16.305   0.301 -0.2599  0.3163  0.0094
94125W        W37116  17.351   3.336  14.283 -0.1185 -0.1398  0.0682
94126W        W37117   3.950   1.067   7.298 -0.0985 -0.0678 -0.0626
94127W        W37118  25.221   0.735  28.555 -0.1226  0.2207  0.1470
94128W        W37119  27.610  11.992  24.071 -0.0809  0.2836  0.2036
94129W        W37120  15.737  18.899  28.228 -0.2316  0.0704  0.2747
94130W        W37121   9.104  24.792   4.560  0.0903 -0.1278 -0.1722
94131W        W37122  14.564   1.980  11.392  0.1712 -0.1135 -0.0617
94132W        W37123   7.672  29.254   2.254  0.1750  0.1950  0.1675
94133W        W37124  25.416  24.223  21.005  0.0141 -0.0160  0.1732
94134W        W37125  14.180  27.776   5.135 -0.2328  0.2286 -0.1202
94135W        W37126   2.551  20.429  26.575  0.1861  0.0736 -0.0977
94136W        W37127   8.470  14.255   2.821 -0.4181 -0.2265  0.0353
94137W        W37128  28.543  11.359   0.896  0.4285  0.0703  0.1025
94138W        W37129   2.775  14.392   9.725 -0.2164 -0.0364 -0.3234
94139W        W37130  16.393   9.785  21.759  0.2549 -0.1318 -0.0313
94140W        W37131  24.610  11.625  25.709  0.1097  0.1827  0.1407
94141W        W37132  28.687  24.179  22.137  0.1713  0.2085  0.1951
94142W        W37133  21.189  33.582  19.219  0.0737 -0.0716  0.0497
94143W        W37134  28.828   5.313   8.139 -0.0391 -0.2329  0.0197
94144W        W37135  33.514  25.540   0.969  0.2201 -0.2194 -0.0143
94145W        W37136   6.917  22.996  28.342 -0.2059 -0.0154 -0.2795
94146W        W37137  24.132  15.206  25.155 -0.2795 -0.1493  0.0841
94147W        W37138  23.923  20.409  14.496 -0.0685  0.2310  0.2259
94148W        W37139   9.924  25.746   3.364  0.0734  0.0082  0.3177
94149W        W37140  29.056  25.423  18.722  0.1171 -0.0308  0.1181
94150W        W37141  15.872  20.008   2.940  0.2774 -0.1971 -0.0132
94151W        W37142  18.923   7.742  23.022 -0.2029  0.2187 -0.1719
94152W        W37143  18.703  27.553  23.996 -0.2131  0.1831 -0.0219
94153W        W37144  13.289  27.335   7.144  0.4561 -0.0102  0.0554
94154W        W37145   9.651  32.478   9.960 -0.1544  0.1747 -0.1036
94155W        W37146  19.811  30.344  16.310  0.1350  0.2140  0.3148
94156W        W37147  13.626  23.360   4.652  0.2844  0.1120  0.1899
94157W        W37148  34.184  14.464  23.674  0.0676 -0.2338  0.1994
94158W        W37149  23.567  16.423   3.707 -0.2749  0.3963 -0.0700
94159W        W37150  14.643  20.816  27.800 -0.1612  0.2568  0.0249
94160W        W37151   5.519  21.035  26.195  0.0569  0.1499 -0.2335
94161W        W37152  11.160  23.417   8.893  0.1767  0.0953 -0.1629
94162W        W37153  19.349  23.571   1.546  0.0728  0.0463  0.0280
94163W        W37154   5.086   8.843   8.288  0.1057  0.0317  0.0755
94164W        W37155  31.497  19.713   3.052  0.1071  0.2717  0.4085
94165W        W37156  34.696  26.114  23.364 -0.1571 -0.2985  0.1325
94166W        W37157  23.927  22.575  18.860  0.1876 -0.0207 -0.0315
94167W        W37158  17.767  12.262  20.602  0.1438  0.4418  0.1710
94168W        W37159  11.923  23.934   6.021 -0.0185 -0.2903  0.1065
94169W        W37160   9.673  16.935  17.658  0.0038 -0.1842  0.1220
94170W        W37161  21.589  12.772  25.720  0.0454  0.0053  0.0377
94171W        W37162  32.470  27.526   7.714  0.0063  0.0867 -0.1137
94172W        W37163  12.357  31.158   2.367  0.0466 -0.3047 -0.0038
94173W        W37164  21.019  20.965  19.254  0.1730 -0.2629  0.1819
94174W        W37165  29.916  20.856   1.610  0.2585  0.0725 -0.3148
94175W        W37166   0.231  31.992  26.872  0.0846 -0.1208  0.0678
94176W        W37167  29.700  28.863  14.404  0.1052  0.1758 -0.0882
94177W        W37168  11.665  28.746  23.709  0.3179  0.0308 -0.1700
94178W        W37169  20.156  21.739  23.532 -0.1143 -0.1595 -0.2751
94179W        W37170  18.633  19.474  12.198  0.1257  0.1327  0.2799
94180W        W37171  10.425  22.371  23.793  0.2102 -0.3181  0.0332
94181W        W37172  17.544  25.615  17.310  0.2303 -0.0585  0.0450
94182W        W37173  34.155   2.904  27.181 -0.0610  0.2278  0.0868
94183W        W37174   9.291  20.199  15.962 -0.3268  0.3395 -0.0269
94184W        W37175  33.464  20.905  20.889  0.0974  0.0157  0.2247
94185W        W37176  19.217  34.397  21.484  0.2745 -0.2566  0.2851
94186W        W37177  28.846  26.457  21.762  0.2966 -0.1990 -0.0906
94187W        W37178  27.620   7.136  16.437 -0.1915 -0.1203  0.3348
94188W        W37179  13.841   2.134  16.000 -0.1062  0.2063 -0.0487
94189W        W37180   7.101  20.256  14.303 -0.0081 -0.0985  0.1644
94190W        W37181  25.372  25.489  20.581  0.1224 -0.1261 -0.0512
94191W        W37182  13.379  23.434  17.265 -0.1937  0.5249 -0.0265
94192W        W37183  25.279  24.999  15.214  0.1862  0.2375  0.0474
94193W        W37184  12.672  20.355  20.617 -0.0221  0.1572  0.2083
94194W        W37185   0.493   4.194  22.221 -0.1084 -0.2240 -0.1730
94195W        W37186  25.287  16.643  15.253  0.1242 -0.1421 -0.1598
94196W        W37187  30.351  23.225  16.099  0.2662 -0.2005 -0.1275
94197W        W37188  12.628  34.258  15.491  0.2493  0.2299 -0.2079
94198W        W37189  17.939  23.464  16.412  0.3521 -0.2396 -0.1623
94199W        W37190   9.808  17.196  15.142  0.2283 -0.0925 -0.0098
94200W        W37191   7.668  26.170  21.933 -0.0014 -0.0294  0.1439
94201W        W37192  29.677  31.346  16.245  0.2485 -0.0736 -0.1776
94202W        W37193  30.303  12.435  15.463 -0.0389 -0.0572  0.0564
94203W        W37194  25.755  28.468  24.751  0.0580  0.1874  0.2350
94204W        W37195  14.089  16.694  15.908  0.0565  0.2874  0.2179
94205W        W37196   3.482  16.833  20.719 -0.2310 -0.4005  0.0407
94206W        W37197  33.670  23.566  18.007 -0.1195 -0.0187  0.2779
94207W        W37198  25.952  24.384  15.411 -0.2338  0.1383 -0.0271
94208W        W37199  28.541  13.237  28.337 -0.5137  0.0839 -0.2275
94209W        W37200   3.606  26.692  21.858  0.0873  0.1563 -0.0110
94210W        W37201  17.407  19.290  13.695  0.1413  0.0198 -0.0366
94211W        W37202  14.779   4.932  23.307 -0.0693 -0.1633  0.0781
94212W        W37203  30.529  24.862  25.773  0.1225 -0.1052 -0.2370
94213W        W37204  20.164  27.771  20.164  0.1742  0.2233  0.1857
94214W        W37205  25.345  17.972  14.979  0.1740 -0.0868 -0.2469
94215W        W37206  19.593  22.960  24.984 -0.0836  0.1336 -0.3353
94216W        W37207  22.517   1.035  21.241  0.2554  0.0741  0.0957
94217W        W37208  26.449  17.580  23.124  0.1820  0.0545 -0.0301
94218W        W37209  24.463   7.767  17.857  0.5844 -0.2324 -0.0763
94219W        W37210  17.382  34.630  20.435 -0.1043 -0.0843  0.1236
94220W        W37211  25.195  18.418  15.686  0.1251 -0.1662 -0.1430
94221W        W37212  17.355  26.363  21.018  0.2264 -0.3741  0.0096
94222W        W37213   9.891  25.305  19.752  0.2014  0.0279 -0.1035
94223W        W37214   8.751  30.886  22.582  0.3702 -0.1908 -0.0423
94224W        W37215  13.629  13.780  14.339  0.1688  0.1708  0.2046
94225W        W37216  30.294  32.090   2.256  0.3446 -0.0559 -0.2818
94226W        W37217  24.944  28.614   3.028 -0.1065  0.2609  0.2534
94227W        W37218  23.630  15.261  13.985 -0.1285 -0.0368  0.0397
94228W        W37219  16.756  33.581  14.287  0.2021  0.2038  0.0612
94229W        W37220   9.380   5.290  25.178  0.4020 -0.2722 -0.1776
94230W        W37221  20.616  31.367  17.012  0.1278  0.1977  0.1429
94231W        W37222  25.510  28.262  17.488  0.0411  0.0619  0.0440
94232W        W37223   1.371  25.659  17.449 -0.1838 -0.3981 -0.0500
94233W        W37224  31.938  22.391   0.927  0.3346  0.0179  0.1621
94234W        W37225  16.395  26.062  19.494 -0.1775 -0.0285  0.2626
94235W        W37226  18.061   1.128  21.786 -0.1892  0.2043 -0.0233
94236W        W37227  23.450  25.146  20.612  0.0329  0.3195 -0.0095
94237W        W37228  11.740  32.803  15.142  0.1195  0.0972 -0.2482
94238W        W37229  16.395  19.068  28.140 -0.2048  0.1049  0.0781
94239W        W37230  15.447  32.307  21.882  0.1310 -0.5038 -0.2271
94240W        W37231   8.645   0.693  15.202  0.1478 -0.1579  0.1666
94241W        W37232  16.977  29.012  22.142 -0.1060  0.0952  0.0733
94242W        W37233  21.119   0.561  28.588 -0.3993 -0.2461 -0.0469
94243W        W37234  25.823  34.264  23.512  0.0501  0.1742  0.1685
94244W        W37235  20.055  11.624  17.364 -0.0714 -0.6883 -0.1956
94245W        W37236  31.889  27.977  14.771  0.3495  0.1405 -0.2987
94246W        W37237  23.288  25.097   1.513  0.3603 -0.0008 -0.1569
94247W        W37238  12.519  33.374  22.108  0.1871 -0.2599 -0.2832
94248W        W37239  19.107  32.041  28.958 -0.2545  0.0049 -0.0198
94249W        W37240   1.236  15.376  23.809 -0.1259  0.1948  0.2264
94250W        W37241  23.523  19.470  23.678  0.1909  0.1727  0.0584
94251W        W37242  11.906  34.691  15.239  0.0479 -0.3718 -0.3679
94252W        W37243  18.382  22.911  22.363  0.0755 -0.0883  0.0373
94253W        W37244  30.675  22.269  20.087  0.4428 -0.2292  0.0741
94254W        W37245  31.801  30.585  19.672  0.2353 -0.4823 -0.0241
94255W        W37246  18.331  11.482  22.075  0.0137 -0.2987 -0.0202
94256W        W37247  29.701   8.096  20.540 -0.2610  0.1006 -0.1058
94257W        W37248   3.441   2.763  20.252 -0.2191  0.3354  0.3171
94258W        W37249  22.726  21.764  21.845  0.3666  0.0042 -0.0299
94259W        W37250  15.876  24.633  19.368  0.0591  0.4421 -0.0107
94260W        W37251  28.014  23.422  20.132  0.1335 -0.0714  0.1169
94261W        W37252   0.931  23.355  19.968  0.0181 -0.0427  0.2203
94262W        W37253  16.274  23.214  27.370  0.0003 -0.0549  0.0100
94263W        W37254  31.167  10.032  16.289  0.0402  0.0828  0.3246
94264W        W37255  16.183  22.680  22.308 -0.2303 -0.6806  0.2426
94265W        W37256  15.684  33.094  28.006 -0.3499  0.0629  0.0972
94266W        W37257  20.181  22.320  29.192  0.1678  0.0115 -0.0736
94267W        W37258   6.735  24.061  17.731 -0.0560  0.1759 -0.1848
94268W        W37259  29.107  23.871  20.023  0.0612  0.1761  0.0033
94269W        W37260  27.345  32.074   7.023 -0.2056 -0.1356  0.1059
94270W        W37261  23.168  28.825  28.571  0.0193 -0.0269  0.3173
94271W        W37262  11.850  21.963  17.929  0.1863  0.1639 -0.0897
94272W        W37263  14.227  24.725  19.226  0.1591 -0.1309 -0.2833
94273W        W37264  27.695   0.174  17.548  0.3121  0.0596 -0.1335
94274W        W37265  18.966   4.255  20.509 -0.0041  0.1894  0.0427
94275W        W37266  23.588  20.816  22.473  0.0846 -0.1184 -0.0138
94276W        W37267  16.438  33.360  26.154 -0.1923  0.0352 -0.1410
94277W        W37268  28.803  22.847   1.911 -0.0876  0.2228 -0.0193
94278W        W37269  12.910   8.692  19.570 -0.1307  0.0283 -0.1390
94279W        W37270  20.061  23.128  12.927 -0.2475  0.1286 -0.1425
94280W        W37271  26.547   0.469  27.811  0.0292  0.0760 -0.0315
94281W        W37272  25.833   6.911  13.919  0.0579  0.2711 -0.0909
94282W        W37273  25.968   8.820  18.324  0.3155  0.0839 -0.3390
94283W        W37274   2.686  11.477  24.388  0.0922  0.2777 -0.0058
94284W        W37275  20.705  28.257  25.049 -0.2624  0.1738 -0.0858
94285W        W37276  19.571  24.131  12.844  0.1078 -0.2265 -0.0023
94286W        W37277  31.020   0.654  22.031 -0.2725  0.0433 -0.1107
94287W        W37278  15.134  26.584  20.148  0.1907 -0.0788 -0.0486
94288W        W37279  33.818  33.502  16.198 -0.0169  0.0925 -0.1702
94289W        W37280  28.400  26.361  18.584  0.4251 -0.1741 -0.2031
94290W        W37281  14.882  33.840  15.793  0.1598  0.2166 -0.1555
94291W        W37282   6.799  21.954  16.107 -0.2740  0.3733  0.1529
94292W        W37283  32.984   5.257   5.245 -0.1226  0.0182 -0.3882
94293W        W37284   7.470  25.587  20.835 -0.3779  0.1375 -0.0886
94294W        W37285  26.403   8.028  18.947  0.1216  0.3890  0.0859
94295W        W37286  30.881  25.897   2.389 -0.3358 -0.2089 -0.1215
94296W        W37287  23.396  29.414  22.222  0.1099  0.0344 -0.2800
94297W        W37288  20.671   1.262   9.130  0.0682  0.0428  0.3779
94298W        W37289  34.505  24.962  23.152 -0.3282 -0.0952  0.0058
94299W        W37290  13.093  24.685  17.195  0.2677  0.0976 -0.0583
94300W        W37291   3.068  28.457  19.191  0.1431  0.0912  0.0446
94301W        W37292  25.965   2.690  16.995  0.2372  0.3122 -0.2254
94302W        W37293  19.380  29.387  13.626 -0.2260  0.0294 -0.0558
94303W        W37294  15.324  24.753  14.734 -0.0413  0.1379 -0.1053
94304W        W37295  27.558   4.838  22.216  0.2439 -0.0379  0.3749
94305W        W37296  19.988  28.355   6.352  0.3276  0.0061  0.0672
94306W        W37297  32.059   9.704  27.143 -0.0579  0.0474  0.0212
94307W        W37298  11.816  12.574  15.764 -0.3238 -0.2351  0.4927
94308W        W37299  15.826  33.356  25.740 -0.2676 -0.4544  0.2016
94309W        W37300   1.008  18.971  28.975 -0.1065  0.1763 -0.1277
94310W        W37301  27.225  25.313  15.132 -0.0446 -0.2338  0.1415
94311W        W37302   4.093  23.927  19.608  0.4532  0.0167  0.1534
94312W        W37303   7.700  17.548  15.510 -0.0399 -0.1489 -0.1080
94313W        W37304  26.386  29.144  14.017 -0.1287  0.0062  0.2693
94314W        W37305  25.081  20.804  25.753  0.2477  0.1005 -0.0626
94315W        W37306  17.890  12.547  14.064 -0.1373  0.0341  0.1970
94316W        W37307  33.167  31.591  20.139  0.0777 -0.1156  0.1105
94317W        W37308  20.687  32.404  15.152 -0.1355  0.0658  0.3145
94318W        W37309  24.231  22.839  17.436 -0.1215  0.1199  0.0968
94319W        W37310  14.775  34.156   4.211  0.2280 -0.1118 -0.1847
94320W        W37311  33.554  34.044   5.146 -0.1107  0.0284  0.0956
94321W        W37312  14.530   2.458  17.403  0.2178  0.2867 -0.3723
94322W        W37313  30.283  21.205  23.481 -0.0650  0.0026  0.1310
94323W        W37314   9.424  29.541  15.448  0.2963  0.2169 -0.1255
94324W        W37315  29.798   0.951  15.014 -0.1093  0.2298  0.1064
94325W        W37316  19.837  24.949  15.839 -0.1219 -0.2678 -0.2635
94326W        W37317  19.627  26.379   3.198  0.2149  0.4437 -0.2025
94327W        W37318  28.739  28.597  14.403  0.1437 -0.0918  0.3235
94328W        W37319  10.934  20.551  28.376 -0.1607  0.3131  0.1626
94329W        W37320  23.401   2.577  21.198  0.1779 -0.2212  0.1271
94330W        W37321  28.299  32.060  17.137  0.0901 -0.3701 -0.0250
94331W        W37322   3.564  22.212  16.291 -0.2447  0.2749 -0.0329
94332W        W37323  24.335  22.487  19.770  0.0124 -0.0534  0.0859
94333W        W37324  25.770  21.607  18.379 -0.1564  0.0072  0.1371
94334W        W37325  30.275   2.357   1.967  0.2200  0.0783  0.0625
94335W        W37326  10.282  31.696  26.786  0.2354 -0.3200 -0.1870
94336W        W37327  10.200  32.023   3.603 -0.0512 -0.0169  0.0798
94337W        W37328  15.643  28.835  14.723 -0.1190  0.1128 -0.0521
94338W        W37329  10.960   0.207  24.407 -0.2797  0.1938  0.1691
94339W        W37330   0.357  28.408  24.358 -0.1844 -0.0855  0.0645
94340W        W37331  15.801  24.271   0.396 -0.0570 -0.1362  0.0251
94341W        W37332  23.891   0.957  14.068 -0.0989  0.1169 -0.3124
94342W        W37333   2.780  24.562  29.105  0.1558  0.0691  0.1426
94343W        W37334  18.349   0.971  20.742  0.0203  0.0313  0.1344
94344W        W37335  10.446  34.258  16.232 -0.0213  0.4463  0.0306
94345W        W37336  18.985  23.178  28.734 -0.1585  0.0157 -0.1428
94346W        W37337  33.466  21.183  20.000  0.1043 -0.0753 -0.1604
94347W        W37338  21.008   5.604  26.493 -0.0194 -0.1855  0.1273
94348W        W37339  20.408  17.719  24.280 -0.1322 -0.0421  0.0244
94349W        W37340   6.024  26.766  18.127 -0.2428 -0.0325  0.1011
94350W        W37341  32.917  29.959  25.033 -0.2680  0.0584 -0.1198
94351W        W37342  28.423   6.300  16.570 -0.1206  0.1948 -0.3619
94352W        W37343  10.758   0.336  16.232 -0.1056 -0.0391 -0.0927
94353W        W37344  27.344  29.110  26.107  0.1500 -0.1184 -0.4069
94354W        W37345   2.958  23.952   1.087  0.0415  0.3971 -0.0044
94355W        W37346  14.490  29.588  23.674 -0.1914 -0.5357  0.0014
94356W        W37347   2.023  14.169   8.803  0.0578 -0.1927 -0.0399
94357W        W37348  26.233  14.616  21.194 -0.1506 -0.0417 -0.2445
94358W        W37349  14.039  32.800  15.913 -0.1126  0.0110  0.2341
94359W        W37350   2.042  25.849  15.882 -0.0884 -0.1916  0.0936
94360W        W37351  27.658  12.338  23.767 -0.0458 -0.1472 -0.1664
94361W        W37352  17.026  30.373  18.799  0.2047  0.1056 -0.0246
94362W        W37353  25.403  15.238  18.589 -0.0877 -0.2549  0.2954
94363W        W37354  24.126  33.336  12.696 -0.1953 -0.2564  0.2666
94364W        W37355  26.088  26.186  14.222  0.1023  0.0006  0.4828
94365W        W37356  19.400  28.964  27.363 -0.1044 -0.0768  0.1803
94366W        W37357  19.035  26.177  18.275  0.2228 -0.1564 -0.0258
94367W        W37358  27.553  13.890   7.016  0.0892 -0.0412  0.0695
94368W        W37359  34.158  15.179  19.739  0.5003 -0.3099 -0.2292
94369W        W37360  14.488  16.251  26.493  0.0307 -0.2142 -0.3225
94370W        W37361  16.736  27.252  24.354  0.2063  0.1537  0.3020
94371W        W37362  27.463  29.175   6.516 -0.1584  0.1436  0.1334
94372W        W37363  21.144  29.112  17.541 -0.3025  0.1441  0.2646
94373W        W37364  22.031  30.062  14.538 -0.4160  0.0767 -0.1119
94374W        W37365  25.376   0.235  16.640 -0.0216 -0.1214 -0.0944
94375W        W37366  27.515  34.456   6.900 -0.2872  0.2679  0.2782
94376W        W37367  31.279  27.843  26.604 -0.0042 -0.0854  0.2383
94377W        W37368  12.740  25.105  26.976 -0.0564  0.1348  0.0458
94378W        W37369  22.712  23.055  25.901  0.1530 -0.1611 -0.1435
94379W        W37370  16.920  21.417  13.363 -0.1910  0.2228  0.1460
94380W        W37371  14.704  32.314  13.728 -0.2355  0.0244  0.0195
94381W        W37372   8.785  11.491  16.785 -0.1357  0.0348 -0.1942
94382W        W37373   7.243  12.872  27.999  0.2009 -0.0177  0.2393
94383W        W37374  20.301  19.114  13.630  0.0026  0.0722 -0.1102
94384W        W37375   2.390   6.825  26.845  0.0014 -0.0176 -0.0116
94385W        W37376  22.171   4.061  25.336 -0.0551  0.2096  0.0469
94386W        W37377  34.210  24.373  17.642  0.0795  0.2282 -0.3561
94387W        W37378  15.282  21.861  14.584 -0.1993  0.0855 -0.0366
94388W        W37379   6.693  14.798  23.513  0.1803 -0.1801  0.0954
94389W        W37380  22.932  19.253  15.591 -0.0644  0.0255  0.0909
94390W        W37381  22.923  23.990  21.229 -0.1941 -0.0124  0.1673
94391W        W37382  32.172  27.982  26.858  0.0252  0.1725  0.1292
94392W        W37383   9.516  28.960  14.676  0.0462 -0.1821 -0.1322
94393W        W37384  11.665  31.188  22.271 -0.2132 -0.2548  0.1258
94394W        W37385  19.441   3.265  15.256 -0.2441 -0.0176 -0.0599
94395W        W37386  25.226  21.462  17.028 -0.1955  0.3054 -0.1131
94396W        W37387  25.132  27.698  27.851  0.0065 -0.2567 -0.0949
94397W        W37388  13.383  31.589  14.091  0.1621 -0.1588 -0.0211
94398W        W37389  24.286  21.713  18.697  0.0559 -0.0438 -0.0413
94399W        W37390   0.528  29.296  14.764 -0.5174 -0.2555 -0.1101
94400W        W37391  16.019   2.531  14.794 -0.1419 -0.1856 -0.3944
94401W        W37392  20.518  30.825  23.915  0.1222 -0.2254 -0.0453
94402W        W37393  24.212  20.400  24.270  0.3845  0.0773 -0.0611
94403W        W37394  18.758  19.623  23.412  0.2340 -0.0762 -0.0388
94404W        W37395  33.586  30.302  21.526  0.1218 -0.1080 -0.3471
94405W        W37396   6.652  32.940  17.932  0.2030 -0.0393 -0.0619
94406W        W37397  27.540  14.158  10.045 -0.1437 -0.1472 -0.0101
94407W        W37398   0.259   1.747   4.891 -0.0309  0.3107  0.0062
94408W        W37399  25.112  11.053   1.522  0.0942  0.0022 -0.2579
94409W        W37400   7.602   4.939  24.133 -0.2693 -0.1191 -0.3376
94410W        W37401  14.926  25.472  17.011  0.0792 -0.0683  0.0804
94411W        W37402  25.715  24.746  21.838 -0.3216  0.0471  0.1660
94412W        W37403  15.287  30.534  17.739 -0.2157  0.0863  0.0059
94413W        W37404  13.412  25.081  14.014  0.1331 -0.0034  0.0515
94414W        W37405  26.760  17.708   6.537 -0.3979  0.0975 -0.0329
94415W        W37406   2.651  27.928  23.079 -0.2648  0.2185 -0.0383
94416W        W37407  24.808  31.800  22.115 -0.0283  0.0166 -0.1499
94417W        W37408  11.387  26.531  20.897 -0.2294  0.0366  0.5211
94418W        W37409  31.499  18.393  20.613 -0.0847 -0.3798  0.3313
94419W        W37410  17.955   2.222  15.132 -0.0752  0.0304  0.1418
94420W        W37411   3.935  25.294  23.670  0.1401  0.0618 -0.0027
94421W        W37412  21.214   7.634  15.805  0.1550  0.0633 -0.0150
94422W        W37413  11.040  19.164  25.637  0.0636  0.3990 -0.3693
94423W        W37414  29.854  24.885  21.860  0.0500  0.5638 -0.1103
94424W        W37415   3.976  22.033  21.284 -0.3137  0.0744 -0.0412
94425W        W37416   6.449   0.843  15.383  0.2348 -0.2318 -0.1017
94426W        W37417   1.336  33.021  28.761  0.1170 -0.0766  0.2640
94427W        W37418  21.761  28.985  28.764 -0.1888  0.2294  0.3539
94428W        W37419  13.779   4.507  25.212  0.0498  0.0402 -0.0320
94429W        W37420  13.975  22.357  20.940 -0.1991 -0.2568 -0.0519
94430W        W37421  21.300  30.963  28.609  0.0633 -0.0772  0.2478
94431W        W37422  31.091  23.131  18.192  0.1247 -0.1217  0.0577
94432W        W37423   8.580  31.550   0.378  0.2729 -0.1527  0.0184
94433W        W37424  27.796  26.677  12.621 -0.0767  0.1030  0.2581
94434W        W37425  28.048  29.142   2.394  0.2968  0.0089  0.1310
94435W        W37426  22.344  33.172  18.341 -0.0234 -0.2190  0.0198
94436W        W37427  33.596  34.007  27.498  0.0631  0.3861 -0.1445
94437W        W37428  12.549  21.905  20.879  0.2647 -0.4680 -0.0244
94438W        W37429  22.039   1.320  22.147 -0.3780  0.1707  0.5812
94439W        W37430  15.813  33.699  14.916 -0.0841 -0.1215  0.0567
94440W        W37431  11.748  29.599  15.424 -0.2135  0.0218  0.0880
94441W        W37432  27.455  24.645   0.588 -0.2584 -0.1657  0.1917
94442W        W37433  20.447  26.246  23.409  0.0168 -0.1482 -0.2301
94443W        W37434  23.155  32.667  23.531  0.0932 -0.1405 -0.3283
94444W        W37435  13.232  18.491  15.212  0.0149 -0.0753 -0.0502
94445W        W37436  21.718   5.434  16.378 -0.0862 -0.0622 -0.1468
94446W        W37437  30.678  31.563  19.654  0.1567 -0.0819  0.2411
94447W        W37438  18.363   0.903  21.387 -0.2375  0.5264 -0.0469
94448W        W37439   2.159  14.164  22.447 -0.1735  0.2228  0.0771
94449W        W37440  31.356  25.826  21.076 -0.3249  0.1513 -0.0270
94450W        W37441  20.871   6.075  16.954  0.2740  0.2212 -0.0280
94451W        W37442  31.157   4.798   4.043 -0.2372  0.0332  0.0571
94452W        W37443   6.410  23.389  19.790  0.2355  0.0758 -0.1009
94453W        W37444  16.015  30.547  22.338 -0.1989  0.2643 -0.3152
94454W        W37445  25.905  32.421  23.728 -0.1839  0.0030 -0.2439
94455W        W37446  30.003  19.802  14.780  0.2907 -0.0744  0.1732
94456W        W37447   9.646   2.753  20.032 -0.5873  0.1790 -0.0938
94457W        W37448  17.618   8.926   5.382  0.3682 -0.2280 -0.3407
94458W        W37449  21.222   2.344  13.324  0.2171 -0.4067  0.1127
94459W        W37450  13.919  26.737  20.083  0.0914 -0.2443 -0.0907
94460W        W37451  21.898  15.003  25.778  0.3328  0.3303 -0.1563
94461W        W37452   7.960  31.541  27.513 -0.2085 -0.3837  0.1143
94462W        W37453  15.810  24.850  16.064 -0.0299 -0.2000 -0.0391
94463W        W37454   0.635   1.091   0.024  0.1962  0.1042 -0.1698
94464W        W37455  18.656   1.983  20.752  0.1414  0.1511 -0.0501
94465W        W37456  25.714  25.600  16.654 -0.1593 -0.2442 -0.0949
94466W        W37457  14.711  27.095   2.174  0.0375  0.0762  0.1576
94467W        W37458  17.689  30.200  14.832 -0.1235  0.3018 -0.0416
94468W        W37459  16.964   7.926  18.351  0.0444  0.0049 -0.3256
94469W        W37460  30.375  32.161  16.102 -0.0604 -0.1305  0.0241
94470W        W37461   7.228  30.892  23.637  0.1608  0.1378  0.1335
94471W        W37462  20.207  30.661  21.147  0.2228  0.0300  0.0868
94472W        W37463  28.157  29.226  15.766 -0.1760  0.1081 -0.1850
94473W        W37464  21.953  32.087  14.834  0.0920 -0.0137  0.0624
94474W        W37465  17.775  11.849  14.211 -0.2131 -0.0342  0.0204
94475W        W37466  10.567  19.490  18.213  0.0904 -0.1542  0.2583
94476W        W37467   3.904  32.273  26.387 -0.2523 -0.1378 -0.0850
94477W        W37468  14.795  22.450  16.119 -0.0199  0.4695 -0.0911
94478W        W37469  19.532  28.684  23.495  0.0714  0.1606  0.1009
94479W        W37470   2.933  10.014  19.091  0.0547  0.4873  0.1075
94480W        W37471  26.572  25.685  18.191 -0.0230 -0.0770  0.1238
94481W        W37472   9.139  24.933  19.534 -0.3325 -0.2693 -0.0579
94482W        W37473  14.097  24.035   3.696 -0.0802  0.1638  0.1067
94483W        W37474  15.094  20.857   0.577  0.1528  0.1376  0.0188
94484W        W37475  31.402  21.585  15.836 -0.1292 -0.1997  0.1566
94485W        W37476   1.939  28.571  24.512 -0.2452 -0.0262 -0.0567
94486W        W37477  19.213  24.926   3.435 -0.0509 -0.1227  0.0325
94487W        W37478  20.922  29.692  28.846 -0.0611 -0.0614  0.1433
94488W        W37479  23.969  13.606  18.468 -0.0872  0.2812  0.2202
94489W        W37480   5.277  17.192  23.363 -0.1581 -0.0221  0.0915
94490W        W37481  16.894  31.805  26.621 -0.0920  0.1361  0.3121
94491W        W37482   9.743  22.659   6.988 -0.1165 -0.4305 -0.1111
94492W        W37483  22.294   0.539  29.249  0.1166  0.1252 -0.0796
94493W        W37484  29.747  17.309  19.874  0.0414 -0.1231 -0.2006
94494W        W37485  12.412  15.388  15.758  0.1505  0.0935  0.0836
94495W        W37486  34.684  32.644  15.570  0.1916 -0.2599  0.0706
94496W        W37487  22.351  28.370   1.373 -0.0844  0.1357 -0.1299
94497W        W37488  20.257  31.997  15.154  0.2176  0.0476 -0.1693
94498W        W37489  20.109  12.974  24.164  0.1000  0.0544  0.3579
94499W        W37490  23.013  28.859  15.759 -0.1415  0.1730  0.1713
94500W        W37491  17.476  23.536  16.705  0.0772  0.2328  0.3786
94501W        W37492   4.193  26.779   4.017  0.1033  0.1264  0.0415
94502W        W37493  19.656  25.497  15.834  0.2565 -0.1273 -0.3080
94503W        W37494  27.142  30.098  16.472 -0.0778 -0.0707  0.1545
94504W        W37495   9.683  27.259  24.237 -0.0408  0.0913 -0.1145
94505W        W37496  29.060   5.492  17.191 -0.0401  0.0579 -0.5354
94506W        W37497  13.922  24.077  24.261  0.0631  0.2024  0.1503
94507W        W37498  33.137   5.569   0.574  0.1720  0.0122  0.1480
94508W        W37499  19.249  31.620  16.103  0.1572  0.1878 -0.0090
94509W        W37500  25.419  24.751  18.593  0.4483 -0.3658  0.0352
94510W        W37501  12.755  25.371  15.541 -0.2122  0.0049 -0.2163
94511W        W37502  29.194  32.813  21.168 -0.2756  0.1346  0.1856
94512W        W37503  16.246  15.738  15.271  0.0310 -0.1775 -0.1162
94513W        W37504  15.679   7.945   7.370  0.0833  0.3039 -0.2366
94514W        W37505  24.432  25.567  20.907 -0.1530  0.0332  0.1297
94515W        W37506  17.577  31.591  16.570  0.0673  0.2912 -0.2373
94516W        W37507  19.278  23.554  20.695  0.0206 -0.0388 -0.1901
94517W        W37508  31.519  29.570  24.580 -0.1564  0.0914 -0.1262
94518W        W37509  20.262   4.187  26.757 -0.1806 -0.0514 -0.2225
94519W        W37510  27.762  27.557   5.420  0.0301  0.1162 -0.3807
94520W        W37511   0.702  20.440   6.025 -0.0933 -0.1482  0.2854
94521W        W37512  14.277   6.432  18.743  0.0110  0.3092 -0.1507
94522W        W37513  23.348   4.176  16.984 -0.0229 -0.0320 -0.1073
94523W        W37514  17.095  27.323  15.138 -0.3032  0.0447 -0.1684
94524W        W37515  27.774  32.199  27.780 -0.2474  0.1813 -0.0318
94525W        W37516  24.901   3.271  19.387 -0.0222  0.2121  0.0958
94526W        W37517   3.643   2.858  26.386 -0.0909  0.1800 -0.0926
94527W        W37518  23.015   0.110  25.742  0.0587  0.2418  0.1889
94528W        W37519  21.482  25.323  17.322 -0.1593 -0.0969 -0.0490
94529W        W37520  13.627  18.633  13.395  0.0148 -0.5052 -0.0539
94530W        W37521  26.909  34.492  14.472  0.0111 -0.0326  0.0465
94531W        W37522  13.888  26.104   5.143  0.0927  0.2810  0.1773
94532W        W37523  14.404  31.700  28.262  0.0300  0.2183  0.2097
94533W        W37524  23.829  31.313  18.063  0.0044  0.1434 -0.0015
94534W        W37525  15.306  21.992  27.922  0.2889  0.2901  0.1504
94535W        W37526  23.181  22.836   2.649 -0.1071  0.2230  0.0746
94536W        W37527  30.962   7.680  25.969  0.0177 -0.0955 -0.2103
94537W        W37528  15.462   0.296  19.185  0.2163  0.1395 -0.2248
94538W        W37529  21.072  30.660  20.929  0.0024  0.4185 -0.0321
94539W        W37530  28.646   1.127  19.651 -0.0060 -0.1381  0.2605
94540W        W37531  25.059  23.240  20.773  0.0827  0.1526  0.2094
94541W        W37532  21.309  31.307  17.564  0.1396 -0.3448  0.1706
94542W        W37533  18.337  25.376  13.264 -0.0460  0.0430  0.2071
94543W        W37534  19.043   0.724  13.573  0.4207 -0.2167  0.2161
94544W        W37535  28.247  22.958  15.748 -0.0104  0.0419 -0.0551
94545W        W37536  21.619  26.076  12.957 -0.2588 -0.1236  0.1946
94546W        W37537  30.800  29.023  17.714  0.0144  0.0223  0.0939
94547W        W37538  21.469  30.696  18.306 -0.1647 -0.0260  0.0059
94548W        W37539   2.020  29.029  16.559 -0.3080 -0.1436 -0.1112
94549W        W37540  18.917  25.856  25.176 -0.2214 -0.2901  0.2768
94550W        W37541  22.705   1.035  17.383  0.4607 -0.0483 -0.2625
94551W        W37542  21.463   0.916  15.237 -0.0992 -0.0838 -0.2167
94552W        W37543  24.333   3.215  17.967  0.0067  0.3117  0.0559
94553W        W37544   8.375  13.546  23.548  0.0160 -0.2679 -0.1728
94554W        W37545  32.311  22.920  16.068  0.1824  0.0880  0.1678
94555W        W37546  17.075  22.538  14.115  0.2493 -0.0389 -0.0604
94556W        W37547  10.896  12.015  18.491 -0.2119  0.1135 -0.1801
94557W        W37548  13.925  26.610   0.564  0.3257 -0.1314  0.0876
94558W        W37549  20.362  16.535  14.128  0.0601  0.3299 -0.0114
94559W        W37550   1.472  21.151  19.657  0.1337  0.0901  0.2008
94560W        W37551  26.725  23.016  14.907  0.1962 -0.1342 -0.2599
94561W        W37552  28.997  28.565  20.910  0.1257 -0.2510 -0.2425
94562W        W37553  26.688  29.938  16.312  0.1597 -0.0443 -0.1416
94563W        W37554  32.392  23.747  22.563  0.1340  0.1204 -0.1521
94564W        W37555  16.739  21.828  13.703 -0.1141 -0.0974 -0.3871
94565W        W37556  31.606   3.850  20.103 -0.0355  0.1730 -0.0653
94566W        W37557   9.567   1.064  19.342  0.0395  0.0143 -0.2001
94567W        W37558  24.974   4.307  27.765 -0.1602 -0.0332  0.4197
94568W        W37559  16.185  34.300  22.240  0.1297  0.0469  0.0696
94569W        W37560   2.614  28.052  24.495  0.2489  0.2842 -0.2077
94570W        W37561  29.268  33.209  22.668 -0.1288  0.1323  0.0252
94571W        W37562  14.242  19.718  24.153  0.0542 -0.0567 -0.1409
94572W        W37563  26.035  27.277  18.612  0.4462  0.0118  0.0948
94573W        W37564   9.622  30.049  20.682  0.0179  0.2745 -0.0001
94574W        W37565  18.578  20.583  19.682  0.0111  0.1190 -0.1386
94575W        W37566  14.348   5.752  17.821  0.4214  0.1352 -0.0115
94576W        W37567  26.234   2.759  15.315 -0.1703  0.2739  0.2447
94577W        W37568   1.971  22.203  17.331 -0.1199  0.0042  0.1262
94578W        W37569  34.800  19.402   1.738 -0.2621 -0.2979  0.1747
94579W        W37570  10.243   3.422  17.852  0.2114 -0.2637 -0.0375
94580W        W37571  25.129  23.074  18.111 -0.2895 -0.2129  0.1503
94581W        W37572  24.190  32.039   1.006  0.0380  0.2096 -0.2102
94582W        W37573  25.203  20.713  18.658  0.1505  0.1614 -0.1709
94583W        W37574  26.861   6.068  23.562 -0.3333 -0.0171  0.1654
94584W        W37575  15.451   1.775  14.834 -0.1134 -0.1910  0.1080
94585W        W37576   0.543  34.204  28.605 -0.2613 -0.0565 -0.1127
94586W        W37577  10.630  12.445  18.376 -0.1780 -0.4251  0.0345
94587W        W37578  28.806   5.112  15.003 -0.1837 -0.0608  0.0267
94588W        W37579  24.890   3.659  26.577 -0.3827  0.0086  0.1069
94589W        W37580  17.607  22.929  14.811 -0.0804 -0.0030 -0.1309
94590W        W37581  21.799  21.580  20.531 -0.0237 -0.1234  0.0119
94591W        W37582  13.276  31.372  20.174  0.2593  0.0655  0.2586
94592W        W37583  20.361  23.462  26.691 -0.3250 -0.3185 -0.1670
94593W        W37584  13.272  34.096  25.405 -0.2922  0.1316 -0.0285
94594W        W37585  21.128  33.102  20.910 -0.1002  0.0247  0.1607
94595W        W37586  17.696  21.957  21.912 -0.1328  0.2816 -0.2616
94596W        W37587  20.128   5.882  15.260 -0.0358 -0.1552 -0.1216
94597W        W37588  13.226  34.331   4.774 -0.2802  0.1824  0.1217
94598W        W37589  10.521  33.408  16.423 -0.0493  0.2707 -0.1686
94599W        W37590   6.347  24.834  15.886  0.0898 -0.0668  0.1608
94600W        W37591  15.164  28.056  22.205 -0.0690 -0.0870 -0.0516
94601W        W37592  21.370  13.442  25.210  0.0103  0.5165  0.2029
94602W        W37593  30.213  29.466  26.166  0.3027  0.0377 -0.1760
94603W        W37594  18.814  13.727  20.182  0.1155  0.3121  0.1602
94604W        W37595  33.724  27.145  16.716 -0.1555  0.1239  0.0473
94605W        W37596  25.705  24.846  20.529 -0.0167 -0.0548 -0.1457
94606W        W37597   9.029  17.067  18.999  0.4529  0.1366  0.1310
94607W        W37598  17.492  32.132  14.085  0.0180  0.0056  0.0912
94608W        W37599  29.030  31.696  17.329 -0.0103  0.0177  0.0943
94609W        W37600  12.452  29.685  25.958  0.1931  0.1443 -0.1838
94610W        W37601  32.335  18.221   2.875 -0.0796 -0.0553 -0.2327
94611W        W37602  31.215  10.693   5.542  0.0880  0.0856  0.2209
94612W        W37603  23.390  33.263  18.614 -0.1312 -0.2065  0.3472
94613W        W37604   3.370  34.506  17.523 -0.1762 -0.0496  0.0524
94614W        W37605  17.960   6.904   3.867  0.3027  0.0313  0.2702
94615W        W37606  20.887  32.001  21.115  0.1257 -0.3200 -0.1949
94616W        W37607  20.282   1.219   0.723 -0.0770 -0.2420 -0.2514
94617W        W37608  33.036  29.222  20.534 -0.2662  0.1366  0.0880
94618W        W37609  24.801  21.999  25.072  0.2819 -0.1128 -0.0170
94619W        W37610  19.619  16.828  14.285 -0.0736 -0.0301  0.2343
94620W        W37611   9.426   1.177  24.645  0.1410  0.2112 -0.2710
94621W        W37612  13.089  30.237  14.809  0.1950  0.2473  0.2822
94622W        W37613  34.453  25.336  14.624 -0.2062 -0.0131  0.3911
94623W        W37614  28.856  12.000  21.431  0.1147 -0.1003  0.0265
94624W        W37615  34.127   0.435  18.371 -0.3576 -0.0657  0.1287
94625W        W37616  28.496  12.285  20.511  0.0183  0.1842 -0.4647
94626W        W37617  30.993  25.615  21.253  0.2628 -0.1407  0.0731
94627W        W37618  21.559  24.356  16.062  0.0212  0.0602 -0.0865
94628W        W37619  19.827  24.378  21.111 -0.0834  0.1356  0.1242
94629W        W37620   6.864   2.190  27.950 -0.3515  0.0596 -0.0427
94630W        W37621  21.195  28.367  14.721 -0.0804  0.2847  0.0484
94631W        W37622  12.145  11.941  17.048  0.0771 -0.2132  0.0325
94632W        W37623   4.766  33.340  14.034 -0.1077 -0.1498  0.1950
94633W        W37624  23.917   4.605  15.481 -0.1297 -0.0412 -0.1405
94634W        W37625  19.196  18.452  13.100  0.0337 -0.0765 -0.1139
94635W        W37626  13.602   9.708  20.861 -0.1235  0.0386 -0.1221
94636W        W37627  14.586   2.371  25.961 -0.2531 -0.1024  0.2049
94637W        W37628  29.140  24.650  23.032 -0.2595  0.2804  0.2234
94638W        W37629  10.896   3.196  25.920  0.0475  0.0372  0.1859
94639W        W37630  26.972  27.762  22.909 -0.1530 -0.2418  0.1781
94640W        W37631  17.977  19.589  26.066  0.0146 -0.3096  0.0245
94641W        W37632  29.074  29.800   5.955 -0.3009 -0.0064 -0.0546
94642W        W37633  23.901  30.405  22.949 -0.1141  0.1021  0.0886
94643W        W37634  28.213   3.617   3.617  0.0420  0.3872 -0.1685
94644W        W37635  12.453  31.211  27.521 -0.2141  0.0457 -0.0314
94645W        W37636  32.394  31.052  19.021  0.0498  0.0026 -0.0554
94646W        W37637  23.410   4.026  13.483  0.1130  0.0089  0.1336
94647W        W37638  26.553  29.407  27.988 -0.0017  0.0777  0.3039
94648W        W37639  32.361  19.189  20.314  0.1652  0.0432  0.1830
94649W        W37640   4.483   9.048  23.759 -0.1620  0.1046 -0.2987
94650W        W37641  15.432   0.334  26.254 -0.1009  0.0605  0.0137
94651W        W37642   7.526  30.855  24.504 -0.0521  0.0608  0.2397
94652W        W37643  24.483  19.040   5.568  0.0716 -0.0820  0.0532
94653W        W37644  31.034   1.459  13.815  0.1322  0.1414 -0.0324
94654W        W37645  25.688  24.859  13.093  0.1505  0.1270  0.1815
94655W        W37646  28.877  30.076   3.970 -0.3407 -0.0605  0.1581
94656W        W37647  32.196  28.523  18.396 -0.0730  0.0439 -0.2228
94657W        W37648  18.978   1.695  16.888 -0.0942  0.0902  0.0888
94658W        W37649  29.500   6.864  24.526 -0.2813  0.1298  0.0403
94659W        W37650   2.785  15.270  19.901 -0.0892 -0.0407  0.0816
94660W        W37651  11.460  19.847  28.573 -0.0842  0.1598  0.1859
94661W        W37652  15.685  31.680  17.516 -0.0772  0.0557 -0.4008
94662W        W37653  27.988  25.167  15.793 -0.2158 -0.0466  0.2696
94663W        W37654   1.283  15.096  21.754  0.0285  0.0211  0.0851
94664W        W37655  18.934  22.031  28.906 -0.0577  0.2342 -0.1176
94665W        W37656   5.255  26.172  18.596  0.1179 -0.1684  0.1860
94666W        W37657  18.561  24.813  19.891 -0.1448 -0.0998 -0.0423
94667W        W37658   6.533   9.844  18.126 -0.0636 -0.0804 -0.0153
94668W        W37659  17.465  13.441  15.244  0.1990 -0.1090 -0.2942
94669W        W37660  10.392   7.278  22.905 -0.4465  0.1759 -0.0666
94670W        W37661   6.243   9.531  24.558  0.0872  0.0288 -0.0357
94671W        W37662   8.385  24.932  23.732  0.0382 -0.1625  0.0073
94672W        W37663  24.391   5.135  15.103 -0.0164  0.4130  0.0051
94673W        W37664  19.261  27.962  20.903 -0.0705 -0.1896 -0.0083
94674W        W37665  25.149  29.105  17.359  0.0787 -0.0580 -0.0777
94675W        W37666  24.825  22.951  23.624  0.2854  0.0905  0.1166
94676W        W37667   4.517  15.080  17.014 -0.4024 -0.1745 -0.2665
94677W        W37668   8.858  27.663   9.155  0.1332  0.3811 -0.2949
94678W        W37669  11.330  15.884  17.097 -0.4022 -0.0273 -0.0428
94679W        W37670   0.194  23.604  23.262  0.1422  0.2583  0.2893
94680W        W37671  25.144   2.650  15.059 -0.0865 -0.0089 -0.1432
94681W        W37672  27.503  34.678  19.469 -0.0051  0.0485 -0.1691
94682W        W37673  18.339  20.351  14.777 -0.4626  0.1195 -0.1087
94683W        W37674  16.166  26.608  10.217  0.2427  0.1125 -0.1772
94684W        W37675  11.458  34.425  15.847 -0.0707  0.0073  0.1465
94685W        W37676  24.641   4.265  29.036 -0.1431 -0.1752  0.0106
94686W        W37677   2.292   3.630  10.140  0.0010  0.4288 -0.0791
94687W        W37678  25.163  20.494  15.627 -0.1757  0.2131 -0.1924
94688W        W37679   0.055  10.853  19.516 -0.0878 -0.1422 -0.0027
94689W        W37680  27.024  32.454  19.999  0.1949 -0.2741  0.1306
94690W        W37681  24.249  31.201  13.677 -0.0967  0.0999 -0.0582
94691W        W37682  20.156  10.839   7.148  0.0960 -0.0495 -0.1692
94692W        W37683  13.391  15.658  25.140 -0.0390  0.0408 -0.0751
94693W        W37684  24.041  20.945  19.187 -0.2182 -0.0258  0.2624
94694W        W37685  17.693  15.209  22.623  0.1548  0.3142  0.0028
94695W        W37686  10.589  27.092  17.352  0.3529  0.1651  0.3994
94696W        W37687   5.185   2.281  21.880  0.0980  0.0256  0.0754
94697W        W37688  16.168  14.920  14.320  0.0969  0.0246  0.0388
94698W        W37689  20.089  26.321  19.391 -0.0150  0.1396  0.0754
94699W        W37690  22.488   0.790   3.478 -0.0663 -0.1019 -0.2114
94700W        W37691  12.449  27.400  16.293  0.1055  0.1632  0.3170
94701W        W37692   7.175  23.709  24.820 -0.1232 -0.1253 -0.1773
94702W        W37693  11.310  30.571  18.364 -0.1866  0.1368 -0.0052
94703W        W37694  21.009  24.241   4.618 -0.1451 -0.1288 -0.2672
94704W        W37695   9.151  34.174  15.536  0.1739  0.0367 -0.1934
94705W        W37696  33.199  12.035   3.628 -0.1392  0.2035 -0.0621
94706W        W37697  14.320  12.208  17.460 -0.1525  0.1066 -0.0676
94707W        W37698   9.323  27.283  25.371  0.1406 -0.0251  0.0291
94708W        W37699   8.590  25.647  26.717  0.0563 -0.0021 -0.0032
94709W        W37700  16.856   1.582  18.987 -0.0948  0.1066  0.2220
94710W        W37701  20.654  28.613  16.173  0.4517 -0.0136 -0.0756
94711W        W37702  13.465  20.172  13.097 -0.1094 -0.0438  0.2396
94712W        W37703  24.118  33.308  23.020 -0.1035  0.0552 -0.0354
94713W        W37704  15.699  22.661  26.210 -0.0181 -0.0055  0.0886
94714W        W37705  28.398  28.791  27.651  0.0203  0.1351 -0.0376
94715W        W37706  17.247  12.061  18.338 -0.0168 -0.0675  0.2861
94716W        W37707  27.527   2.133  14.861  0.0028 -0.4369 -0.1301
94717W        W37708   7.731  28.407  27.413  0.1836  0.2533  0.0132
94718W        W37709  26.868  28.945  26.288  0.0750  0.1637  0.1154
94719W        W37710   6.633  34.306   5.947 -0.1935 -0.1701  0.1122
94720W        W37711  25.624   3.806  21.822  0.0457 -0.1686  0.0286
94721W        W37712  21.271  29.805  28.510  0.1161 -0.0940 -0.1154
94722W        W37713  20.521   8.140  20.279 -0.0747 -0.2705 -0.0623
94723W        W37714  28.793  33.990  16.452 -0.1452 -0.0888  0.1483
94724W        W37715  33.478   6.516   3.724 -0.0162 -0.0592  0.0338
94725W        W37716  32.478  32.679  21.147 -0.0090  0.2262 -0.0144
94726W        W37717  31.714  22.030  26.654  0.1244  0.4008 -0.3639
94727W        W37718  30.893  25.537  17.128 -0.2245 -0.0275 -0.1300
94728W        W37719  26.937   6.411  17.367  0.2816 -0.0757 -0.1658
94729W        W37720  10.120  25.966  22.172  0.3890 -0.2980  0.0351
94730W        W37721  19.043  18.673  16.330  0.1153 -0.2523 -0.0029
94731W        W37722   1.048  17.311  15.899  0.0078  0.1852 -0.3071
94732W        W37723  18.476  23.584  17.299 -0.0857 -0.0893  0.1509
94733W        W37724   3.652   3.122  17.612 -0.2797 -0.2174  0.2953
94734W        W37725  31.634  29.804   4.607 -0.0867 -0.1862 -0.3608
94735W        W37726  27.029  25.030  27.202  0.0916 -0.1181 -0.1459
94736W        W37727  11.119  26.973  23.957  0.1996 -0.1834  0.0700
94737W        W37728   7.902  24.538  11.017  0.1523  0.0834  0.1244
94738W        W37729   6.061  33.464  17.324  0.0644  0.0292  0.0721
94739W        W37730   8.777  21.354  17.659  0.0585  0.3823 -0.2024
94740W        W37731   0.754   3.573  19.336  0.1654 -0.1692  0.0007
94741W        W37732  33.421  18.015  16.220 -0.0061  0.1010  0.1042
94742W        W37733  30.053   0.939  14.592  0.2936 -0.0308 -0.1307
94743W        W37734   6.255  27.675  20.358 -0.1625  0.1431  0.0899
94744W        W37735  23.689  23.988  14.918  0.0411 -0.0785  0.2293
94745W        W37736   8.451  15.748  20.999 -0.1964 -0.1685  0.1146
94746W        W37737  29.744  30.349   5.641  0.1646  0.0200 -0.0136
94747W        W37738  12.260  33.465  17.087 -0.1077 -0.4490 -0.0451
94748W        W37739  21.146  33.957  22.977 -0.0164  0.1697  0.3553
94749W        W37740  32.038   3.842  26.400 -0.0214  0.0886  0.1479
94750W        W37741  22.648   4.315  13.577  0.2529  0.0042  0.0623
94751W        W37742  10.137  30.124  16.051  0.3111  0.0372 -0.0059
94752W        W37743  27.448   0.582  24.751 -0.1607  0.1453  0.1302
94753W        W37744  29.138  11.789  15.697 -0.2766 -0.1537 -0.0332
94754W        W37745  10.936  24.562  17.256 -0.2573 -0.2913  0.1213
94755W        W37746  18.945   8.688  14.035  0.1246 -0.0283  0.0190
94756W        W37747   6.132   3.073  21.374  0.0170  0.1179 -0.2311
94757W        W37748  14.020   2.212  23.138  0.1231 -0.0603  0.2762
94758W        W37749  24.013  26.514  25.072 -0.2835 -0.0571  0.0220
94759W        W37750  20.997   3.953  17.038 -0.0622 -0.1509 -0.2394
94760W        W37751   1.423   0.164   2.983 -0.0640 -0.1179  0.2354
94761W        W37752   7.277  25.086  18.740 -0.1965 -0.0892  0.0698
94762W        W37753  21.201  31.223  19.727 -0.1528 -0.0625 -0.3175
94763W        W37754   4.258  26.871  24.201  0.2931 -0.3478 -0.4093
94764W        W37755  31.546  23.515  16.534 -0.1429 -0.2377 -0.0308
94765W        W37756  27.739   9.246  22.838  0.2544  0.0509  0.2254
94766W        W37757  28.047  20.297  16.557  0.2646  0.0890 -0.1038
94767W        W37758   1.690  29.298   7.419 -0.2632  0.2180  0.2050
94768W        W37759  20.748  11.013  16.982 -0.1017  0.4104 -0.0096
94769W        W37760  28.294  18.911  19.819 -0.1229 -0.0363 -0.0469
94770W        W37761  20.085  27.313  23.042  0.0384  0.0192  0.0521
94771W        W37762  19.774  17.686  28.011  0.0311  0.4317 -0.0381
94772W        W37763  16.051  26.032   4.869  0.1019  0.0714  0.1302
94773W        W37764  15.341  29.988  25.937  0.1176 -0.1442 -0.0059
94774W        W37765  17.643  30.669  17.198 -0.1372 -0.0885 -0.3525
94775W        W37766  23.338  15.230   4.665 -0.2351 -0.1854 -0.0977
94776W        W37767   4.487  22.085  20.575  0.0061  0.0350  0.2845
94777W        W37768  13.380  28.699  23.103 -0.1924 -0.0330  0.0930
94778W        W37769   0.437  17.088  17.051 -0.0837 -0.0866 -0.1743
94779W        W37770   9.597  14.574  10.230  0.2565 -0.1389 -0.0302
94780W        W37771  20.865  24.561  14.835  0.0610 -0.1530  0.2204
94781W        W37772  29.087  20.492  19.164 -0.1887  0.0049 -0.0145
94782W        W37773   5.066  28.478  21.090 -0.1586 -0.0113  0.2447
94783W        W37774  23.723  29.124  18.598 -0.1681 -0.0992 -0.2124
94784W        W37775  18.259  34.182  26.440  0.0334  0.3234 -0.3976
94785W        W37776  13.073  13.800  16.033  0.1336  0.1590  0.1905
94786W        W37777  14.597   3.763  26.681  0.2168 -0.0809 -0.2435
94787W        W37778  13.958  20.122  21.380 -0.4937  0.0197  0.2191
94788W        W37779   9.012  29.649  18.566 -0.1566 -0.2391 -0.1097
94789W        W37780  20.805   3.350  25.501  0.1758 -0.0593  0.1818
94790W        W37781  28.124   6.741  18.854  0.0321 -0.1289 -0.2182
94791W        W37782  30.578  25.976   6.866  0.0344  0.4342 -0.0184
94792W        W37783  29.850   2.643  26.009 -0.3352 -0.1853  0.0008
94793W        W37784  26.783  28.338  14.112 -0.3419  0.1112  0.0070
94794W        W37785  12.319   1.306  25.385  0.0554 -0.0041 -0.1627
94795W        W37786  16.715  26.007  16.790  0.1597  0.1373  0.1379
94796W        W37787  15.967  21.754  13.117  0.3045 -0.1130  0.3114
94797W        W37788  20.349   9.298  14.390 -0.0491  0.2381  0.0599
94798W        W37789   9.480  25.072  23.102 -0.3191 -0.0112  0.1740
94799W        W37790  19.261  22.156  24.581 -0.0159 -0.0415 -0.1655
94800W        W37791   6.846  20.899   1.823 -0.0147  0.1196  0.0370
94801W        W37792   5.335  26.614  18.834 -0.0064 -0.2199  0.0960
94802W        W37793  28.379  29.754  16.632 -0.1519  0.1703  0.1074
94803W        W37794   0.144  12.278   3.172  0.2894  0.3942 -0.0009
94804W        W37795  34.340  27.302  22.189 -0.1803 -0.2659 -0.1238
94805W        W37796  11.801  25.553  23.837  0.0404 -0.0724  0.1408
94806W        W37797  15.084  22.282  16.505  0.0580  0.0739 -0.4290
94807W        W37798  11.943  20.088   6.088 -0.3879 -0.0378 -0.3199
94808W        W37799  29.381   0.936  17.236 -0.1270  0.2082 -0.0342
94809W        W37800  18.377  29.100  18.192  0.0845  0.4747  0.1888
94810W        W37801  21.291  17.879  19.575 -0.1166  0.0687  0.0312
94811W        W37802  16.736  21.887  18.206 -0.0601  0.0745 -0.0588
94812W        W37803  20.839   1.056  18.184  0.1802  0.0510 -0.0582
94813W        W37804  30.997  28.309  20.792  0.0383  0.0748 -0.0421
94814W        W37805   5.659   4.132  23.631 -0.2422 -0.3867  0.0138
94815W        W37806  21.539  20.899  14.481  0.0584 -0.0003 -0.0068
94816W        W37807  25.626  29.480  22.943  0.0989  0.0654 -0.3194
94817W        W37808  16.866  29.095  17.252 -0.1849 -0.5074 -0.1164
94818W        W37809   4.675  21.197  16.254  0.1181  0.2084  0.0654
94819W        W37810  28.230  16.119  17.838  0.2975 -0.3140 -0.1740
94820W        W37811  16.669  31.815  22.006  0.0411  0.1742  0.1032
94821W        W37812  23.325  33.494  24.485  0.1420 -0.0591  0.1623
94822W        W37813  12.040   4.304  16.600 -0.1556  0.2267 -0.2912
94823W        W37814  25.048   3.834   5.282  0.1913  0.3226 -0.2461
94824W        W37815  25.554  31.251  17.623 -0.1192  0.0803 -0.0779
94825W        W37816  30.092   1.963   8.809  0.2801 -0.0326 -0.1328
94826W        W37817  28.322  29.655  24.493  0.0318 -0.0720  0.0276
94827W        W37818  15.579  25.217   8.092 -0.2124 -0.2308  0.0082
94828W        W37819  28.679  22.579  20.545  0.0528 -0.1702  0.0960
94829W        W37820  17.416  10.771  14.893  0.0155  0.1884  0.2840
94830W        W37821  27.853   4.120  27.866  0.0050 -0.0563  0.0350
94831W        W37822  28.532  28.159  14.268 -0.0645  0.0068  0.0114
94832W        W37823  29.601  27.457  23.612  0.1003 -0.1973 -0.0737
94833W        W37824  12.921  34.723  25.802  0.1054  0.3196 -0.3382
94834W        W37825   6.524  16.452  20.088 -0.2074  0.0864  0.0522
94835W        W37826  29.184  31.401  24.987  0.5399  0.1539  0.3089
94836W        W37827   2.706  22.437  15.920 -0.0081 -0.0889 -0.2022
94837W        W37828  10.564   5.902   6.585 -0.1489  0.2361  0.1630
94838W        W37829  33.658  17.516  26.013  0.1248  0.1576  0.0813
94839W        W37830  29.840  21.742  23.101  0.3481  0.2015 -0.2598
94840W        W37831  31.970  27.247  17.423 -0.1146  0.1257 -0.0976
94841W        W37832  25.927  23.397  25.222  0.0241 -0.0190  0.3609
94842W        W37833   5.680  27.768  23.794  0.1811 -0.0978 -0.1094
94843W        W37834  27.550   9.408  16.515 -0.0641 -0.1244 -0.1059
94844W        W37835   7.934  27.941   6.347 -0.0107  0.1911 -0.0165
94845W        W37836  29.064  32.758  14.967  0.0958  0.0577  0.3154
94846W        W37837  31.450  27.821  23.643  0.0261  0.0204 -0.1473
94847W        W37838   3.381  16.236   3.717 -0.1299 -0.0954  0.1450
94848W        W37839  22.717   7.449   1.412 -0.1125  0.1790  0.0713
94849W        W37840  11.756  18.438  23.253  0.1246  0.1336  0.0940
94850W        W37841  23.040  22.916  19.204  0.0606 -0.2442  0.0085
94851W        W37842   1.138   8.670  27.116  0.0877 -0.1692 -0.0006
94852W        W37843  10.149  20.125  18.123  0.0169 -0.0672 -0.0813
94853W        W37844  21.852  20.242  12.775 -0.1249  0.2221  0.3423
94854W        W37845  22.013  27.215  28.488  0.0581  0.1895  0.0963
94855W        W37846  13.575  13.169  15.730 -0.4351 -0.0814  0.1412
94856W        W37847   1.441  25.176  23.182 -0.0500 -0.1683  0.2866
94857W        W37848  17.315  27.293  17.168  0.0245  0.0282 -0.2118
94858W        W37849  31.610  33.411  15.765  0.0461 -0.0322  0.3244
94859W        W37850  27.026  11.892  17.784 -0.1710 -0.1290 -0.0947
94860W        W37851  11.515  23.334  18.673 -0.3361 -0.1861  0.1167
94861W        W37852  28.989   0.075  15.261 -0.1158 -0.0940 -0.2822
94862W        W37853  15.729   0.362  13.839  0.0227  0.0895 -0.0468
94863W        W37854   4.652  14.909  23.898 -0.0822 -0.1623  0.2809
94864W        W37855  26.177   4.414  24.701 -0.1693  0.0493  0.1229
94865W        W37856   6.598  26.826  22.035  0.1950 -0.0921  0.2457
94866W        W37857  31.568  32.709  13.505  0.0250 -0.3020 -0.2656
94867W        W37858  10.109  21.550  24.855  0.1158 -0.3547 -0.0390
94868W        W37859  31.015  13.253  18.548 -0.2851 -0.1664  0.0453
94869W        W37860  26.779  18.102  27.531 -0.2067 -0.0791  0.0096
94870W        W37861  20.028  22.511  22.348 -0.1816 -0.0471 -0.4657
94871W        W37862   9.272  16.520  22.991  0.2792  0.1176  0.0260
94872W        W37863  33.205   5.085  24.570  0.2056  0.0353 -0.3838
94873W        W37864  23.858  31.716  19.467  0.2084  0.1618  0.0483
94874W        W37865  29.474  24.904  20.576  0.0179  0.2029  0.2067
94875W        W37866  23.339   0.305  21.347 -0.1691  0.0990  0.2090
94876W        W37867  21.603  34.756   5.014  0.2843  0.1421  0.2406
94877W        W37868  31.501  31.314  15.978 -0.0077 -0.4014  0.2860
94878W        W37869  13.904  30.824  13.776 -0.0839  0.1065 -0.0834
94879W        W37870  26.673  21.097  26.805  0.0463 -0.2980 -0.1694
94880W        W37871  23.064  22.163  20.102  0.2783 -0.2402  0.1864
94881W        W37872  11.170  24.116  17.615  0.2703 -0.1144 -0.1715
94882W        W37873  28.042  29.617  22.097 -0.1580  0.1419 -0.2063
94883W        W37874   6.431  19.931  18.459 -0.0946  0.0123  0.0675
94884W        W37875   4.658  19.852  24.328  0.1487  0.2555  0.2415
94885W        W37876  17.314   0.003  14.824 -0.0159  0.0502 -0.1004
94886W        W37877  25.520  27.401  13.447 -0.0344  0.0723 -0.0985
94887W        W37878  28.205  17.917  22.238  0.1292 -0.2986  0.0360
94888W        W37879  29.136   2.991   0.554 -0.1399  0.2395 -0.2289
94889W        W37880  33.106  32.235  19.838  0.0950  0.1505 -0.1324
94890W        W37881   4.992  24.046  16.998 -0.3249 -0.1540 -0.2236
94891W        W37882   8.791  32.767   4.770 -0.1702 -0.1763 -0.1387
94892W        W37883   8.689  14.610  17.419 -0.2773  0.0092 -0.1000
94893W        W37884  23.282  26.544   6.479  0.1350 -0.2313  0.2277
94894W        W37885  15.957   2.827  23.774  0.2440 -0.0505  0.0058
94895W        W37886  14.881  18.894  15.554  0.1537 -0.0368  0.1868
94896W        W37887  24.952  17.239  14.570  0.0266  0.1147  0.1491
94897W        W37888   5.020  25.058  16.378  0.0347  0.0699  0.1508
94898W        W37889  19.405   0.870   5.497  0.0635 -0.2987  0.4349
94899W        W37890  32.838  31.672  28.315  0.0463 -0.3698  0.2358
94900W        W37891   3.519   3.379  15.783  0.1634 -0.0483 -0.2513
94901W        W37892  11.358  26.536  27.629 -0.1750 -0.1631 -0.2753
94902W        W37893  12.455  18.855  17.698 -0.2809 -0.0465 -0.2186
94903W        W37894  25.595  28.319  26.517  0.4355 -0.3858  0.1909
94904W        W37895  27.800  19.779  19.681 -0.0480 -0.1993  0.1036
94905W        W37896  13.629  17.151  21.558 -0.2078 -0.1984 -0.0549
94906W        W37897  28.180   1.000  19.875  0.0266 -0.1704 -0.3602
94907W        W37898  16.068  12.466  26.199  0.0446 -0.0082 -0.4046
94908W        W37899  15.963  21.655  14.443 -0.0612 -0.3286  0.1612
94909W        W37900   4.254  33.490   5.868  0.0319  0.1960 -0.1415
94910W        W37901  19.976  30.480  15.376 -0.0343  0.0767 -0.0142
94911W        W37902  26.660  14.991   1.226  0.0105  0.0250  0.1276
94912W        W37903  25.549  27.346  18.603  0.1282  0.3439  0.0854
94913W        W37904   0.733   0.670  21.660  0.0490  0.1414  0.0080
94914W        W37905  27.444   2.746  13.849  0.2281 -0.0901  0.2035
94915W        W37906  25.868   9.748  19.924  0.1808  0.3215 -0.1049
94916W        W37907  25.759   4.384  20.486  0.0329  0.3361  0.0463
94917W        W37908   5.077  34.584  27.008 -0.0929 -0.0076 -0.2451
94918W        W37909  31.723  24.114  19.845 -0.2752  0.0827  0.0490
94919W        W37910  11.682   9.874  20.131  0.1377  0.2899  0.2071
94920W        W37911  18.738   5.506   0.173 -0.2288  0.2264 -0.2283
94921W        W37912  10.584   9.951  18.775 -0.2693 -0.0467  0.4158
94922W        W37913  10.354   9.348  20.071 -0.3303  0.0665  0.1521
94923W        W37914  32.335   5.852  18.857  0.1695 -0.4507 -0.0128
94924W        W37915  13.403  26.608  15.740 -0.0413  0.0002  0.0322
94925W        W37916   1.118   3.471   2.570 -0.4236 -0.2432 -0.0089
94926W        W37917   1.109  26.005   4.516  0.1600  0.0910  0.4490
94927W        W37918   6.863  13.018  26.911  0.1593 -0.1717 -0.1305
94928W        W37919  13.369  25.276  24.375  0.2314  0.0299 -0.2258
94929W        W37920  21.563  26.492   1.871 -0.1571  0.0713 -0.0387
94930W        W37921  17.929  25.203  15.096 -0.2659 -0.2288 -0.2701
94931W        W37922  11.839  33.447  21.229 -0.2035  0.0747  0.0731
94932W        W37923  10.078  25.367   0.677  0.1394  0.2140 -0.2718
94933W        W37924  23.017   0.083  17.564 -0.2115  0.0639  0.2673
94934W        W37925  27.641  29.190  16.423  0.1734  0.2506  0.1342
94935W        W37926  29.954  24.753  21.374 -0.0261  0.0428  0.0673
94936W        W37927  20.815  26.892  15.598 -0.2464  0.0292  0.0348
94937W        W37928  26.444  26.926  22.105  0.2364  0.0220  0.3601
94938W        W37929   6.487  23.089  25.641 -0.1539  0.3088  0.0434
94939W        W37930  12.852  13.896  22.242  0.0810  0.2021 -0.1451
94940W        W37931  17.542  25.350  25.764  0.0028 -0.1667 -0.3311
94941W        W37932   6.602  30.850  25.855 -0.1462 -0.0587 -0.3510
94942W        W37933  13.123  32.180  19.857  0.2361  0.2574  0.0075
94943W        W37934  22.092  13.554   8.868  0.1697  0.0775 -0.1137
94944W        W37935  27.263  29.572  25.658  0.2615  0.0587  0.1484
94945W        W37936  23.888  29.012   1.136  0.3974 -0.0592  0.1270
94946W        W37937  14.999  19.814  13.911  0.1135  0.0020 -0.0321
94947W        W37938  20.878  24.449  17.356 -0.0363  0.2761  0.1244
94948W        W37939  23.305  17.562  15.443  0.1750 -0.0083  0.2000
94949W        W37940  14.657  26.718  24.398  0.1251 -0.1843  0.2183
94950W        W37941  24.496  29.290  21.427  0.0470 -0.2259  0.1830
94951W        W37942   6.354  33.952  24.940  0.2338 -0.3748  0.2113
94952W        W37943   9.419  29.783  16.557  0.3098 -0.0960 -0.0501
94953W        W37944  12.747   0.164  15.713 -0.0310 -0.1388 -0.0219
94954W        W37945  13.706  27.630  25.809  0.1960  0.2064 -0.4339
94955W        W37946  29.225  17.088   0.337 -0.0056 -0.0789  0.0926
94956W        W37947  27.222  13.472  14.739  0.0121 -0.0605  0.0087
94957W        W37948   8.752  23.086  20.667 -0.1926 -0.2807  0.2805
94958W        W37949   7.782  28.817   6.679  0.1047 -0.1871  0.3461
94959W        W37950  15.730   0.086   1.533 -0.0091  0.4160 -0.0931
94960W        W37951  20.271  19.141  22.986  0.0866  0.0107 -0.2668
94961W        W37952  11.557  22.315  18.235 -0.0440 -0.3506  0.0924
94962W        W37953  20.120  23.864  15.801  0.0921  0.4848  0.0869
94963W        W37954  17.609  25.389  20.590  0.0974 -0.0346 -0.3370
94964W        W37955  11.390  30.403  25.840  0.2007 -0.1345 -0.0835
94965W        W37956   0.190  33.793  25.849 -0.5958  0.4319 -0.1312
94966W        W37957  19.971  24.242  20.538 -0.2029  0.2708  0.1378
94967W        W37958  18.660  25.122  14.210 -0.0806 -0.1460  0.1445
94968W        W37959   0.684  22.553  22.077  0.1721 -0.0476 -0.0250
94969W        W37960  17.900  14.819   7.746  0.2002 -0.1294 -0.0778
94970W        W37961  13.085  27.212  14.978  0.1866  0.1212 -0.4533
94971W        W37962   0.837  22.376  27.520  0.1329 -0.0552 -0.1999
94972W        W37963  20.440  30.164   1.101  0.0010 -0.0154 -0.1769
94973W        W37964  21.372  12.400  14.892 -0.1056 -0.1648  0.2001
94974W        W37965  10.036  23.736  17.651 -0.0270  0.2332 -0.0881
94975W        W37966  15.595   8.331  17.023  0.2135 -0.0418 -0.0478
94976W        W37967   8.908  18.712  16.369  0.0428 -0.2084 -0.1967
94977W        W37968  26.665  33.274  18.658 -0.1778  0.1543  0.2075
94978W        W37969  11.459  29.344  28.373  0.3403  0.1211  0.0927
94979W        W37970  31.401  16.561   0.291  0.2453  0.1505 -0.0888
94980W        W37971   3.757   4.260  24.850 -0.4691  0.2082  0.1387
94981W        W37972  18.077  21.469  23.803 -0.1255  0.1662 -0.2113
94982W        W37973  33.960  29.390  19.792  0.2261  0.3354  0.0136
94983W        W37974  13.119   0.791  20.771 -0.1358 -0.1116 -0.0481
94984W        W37975  18.938  22.209   4.439  0.0180 -0.2961 -0.1552
94985W        W37976  28.110  23.180   3.845  0.0428 -0.0563  0.0802
94986W        W37977   6.384  22.840   2.836  0.0497 -0.1490 -0.1074
94987W        W37978  15.308  32.433  18.519  0.4363  0.3308 -0.1109
94988W        W37979   7.117  13.065   3.225  0.2107 -0.0672  0.0746
94989W        W37980   9.496  34.329  24.228  0.2245  0.0082 -0.0087
94990W        W37981  29.476  26.152  13.566  0.1392  0.0077 -0.0607
94991W        W37982   1.258  15.670  22.916  0.2280  0.1164 -0.1433
94992W        W37983  31.591   3.256   8.533  0.0536 -0.0524 -0.1777
94993W        W37984  17.368  25.165  14.666 -0.1491  0.2728 -0.1664
94994W        W37985  16.618  32.514   9.482  0.1856 -0.0143  0.2593
94995W        W37986  31.487   4.387  15.857  0.2115  0.2295  0.1608
94996W        W37987  13.060  26.167   0.455  0.2151  0.4316  0.1717
94997W        W37988  24.172  16.346   3.701 -0.2221 -0.1364  0.2171
94998W        W37989   8.049  34.680   1.448  0.4408  0.0008  0.2489
94999W        W37990  25.867  14.084  28.293  0.1497 -0.3307 -0.0545
95000W        W37991  16.080  32.204  28.672  0.3756 -0.2636  0.0354
95001W        W37992  11.209  34.319  26.210  0.1198 -0.0008  0.0900
95002W        W37993  24.760  28.258   2.208  0.0790  0.2186  0.2287
95003W        W37994  33.014  27.971   5.091  0.3813  0.0437  0.0184
95004W        W37995  30.274  23.999  25.366  0.0972  0.3464 -0.4100
95005W        W37996  16.231  23.100  14.119 -0.1661  0.0638  0.2270
95006W        W37997   8.361   4.280  19.273 -0.0340  0.1929 -0.0168
95007W        W37998  12.695  26.448  26.255 -0.1853  0.0421  0.1919
95008W        W37999   6.377  32.028  26.504 -0.1469  0.1416  0.1285
95009W        W38000  32.867  26.229   0.706 -0.0553 -0.1371  0.0469
95010W        W38001  20.958  31.952   8.864 -0.2138  0.2207 -0.2215
95011W        W38002  21.955  21.512  12.445  0.0814  0.1242 -0.2355
95012W        W38003  11.130  28.612  22.729 -0.0075  0.1945  0.0968
95013W        W38004   2.306   3.005  28.718 -0.3182 -0.0556  0.0631
95014W        W38005  23.549  26.270  17.432 -0.0442  0.0901  0.1936
95015W        W38006  17.662  10.199  25.235 -0.2781 -0.1876 -0.0680
95016W        W38007   6.528  31.380  16.024 -0.2201 -0.3795 -0.0678
95017W        W38008  15.935  14.121  24.774  0.0582 -0.0309  0.4283
95018W        W38009  25.982  24.482   0.297 -0.0864 -0.1896  0.1397
95019W        W38010   5.057   6.654  24.418  0.0725 -0.1240  0.2480
95020W        W38011  26.574  33.442   8.795  0.0323  0.0304  0.0037
95021W        W38012   3.796  11.025  17.252  0.0615 -0.1756 -0.0678
95022W        W38013  28.683  18.001   9.975  0.0936 -0.1367 -0.3074
95023W        W38014  13.789  24.349  22.255 -0.2088 -0.0575 -0.1486
95024W        W38015  26.030  20.276  19.014 -0.2584  0.2414  0.1496
95025W        W38016  10.133  14.632   8.641  0.1074 -0.5098 -0.0370
95026W        W38017   9.999  17.608  24.119  0.3680 -0.0172  0.2760
95027W        W38018  21.994  10.626  14.812  0.0966  0.2000 -0.0403
95028W        W38019  27.635  13.872  23.701  0.1928 -0.1677 -0.1113
95029W        W38020  15.848  18.377  24.322 -0.5086  0.1958 -0.3966
95030W        W38021  19.893   4.893  14.202  0.1495 -0.2023  0.0126
95031W        W38022  19.795   9.934  29.130  0.4410 -0.0768 -0.0042
95032W        W38023  10.298  25.020   3.284  0.2757  0.1499  0.1065
95033W        W38024  26.995  30.779   1.633  0.4040  0.0551 -0.1188
95034W        W38025  25.188  21.425  23.968 -0.0774  0.1132  0.0258
95035W        W38026  34.692   3.233  19.481 -0.0273  0.2468 -0.1885
95036W        W38027  17.482   0.249  22.867 -0.3257  0.0677 -0.0451
95037W        W38028  14.544  13.719  14.356  0.0871 -0.4675 -0.1223
95038W        W38029  28.946  22.731  13.874 -0.0140 -0.0083  0.1545
95039W        W38030  28.287  33.238   2.514 -0.0676  0.0106 -0.1686
95040W        W38031  25.283   3.103  29.161 -0.0689 -0.2114 -0.0935
95041W        W38032  23.248   6.111  28.567 -0.3274  0.0651  0.0189
95042W        W38033   2.645   0.198  16.075 -0.0014 -0.4756  0.3760
95043W        W38034  28.259  31.696  18.121 -0.2593  0.1198  0.1050
95044W        W38035  16.833   3.952   3.767  0.0351 -0.1940  0.1947
95045W        W38036  29.342  22.083   0.253 -0.2055 -0.0187  0.2594
95046W        W38037  12.607  17.687  26.312 -0.0293 -0.2472 -0.0182
95047W        W38038   4.168  24.904  25.883 -0.0899  0.0971  0.1944
95048W        W38039  14.395  33.583  24.667  0.0637 -0.1254  0.0888
95049W        W38040  22.944  22.935  20.471  0.1800  0.1546 -0.0901
95050W        W38041  25.363  29.099  17.817 -0.0530 -0.1605 -0.0402
95051W        W38042  17.153   2.411   9.492  0.0471 -0.0730 -0.2804
95052W        W38043   5.248  25.154  26.461 -0.4165  0.2758 -0.2739
95053W        W38044  12.849  30.179  28.603  0.1995 -0.1016  0.3841
95054W        W38045  13.373   0.441   2.581 -0.0468  0.0888 -0.0562
95055W        W38046  28.019  30.152  16.609 -0.1531  0.0994  0.2813
95056W        W38047  18.139   5.672  26.251 -0.1779 -0.1374  0.1609
95057W        W38048  13.671  29.049  28.152  0.1900 -0.0903 -0.0602
95058W        W38049  24.551  30.677  28.001  0.0865 -0.2326  0.1272
95059W        W38050  19.152  24.993  18.461 -0.2555 -0.0367  0.2584
95060W        W38051  24.382  24.546  14.829  0.0881  0.1441 -0.2094
95061W        W38052  11.415  30.791   7.223 -0.0220 -0.1725 -0.0987
95062W        W38053  24.354  12.312  17.145  0.1967  0.0416  0.1307
95063W        W38054  24.736  30.701   5.148  0.1315  0.0039 -0.1749
95064W        W38055   3.809  24.337  26.423  0.1444 -0.0570  0.1815
95065W        W38056  19.435  28.899  18.661 -0.1798 -0.1353 -0.4109
95066W        W38057  15.560  19.222  23.951 -0.1053 -0.0122  0.0992
95067W        W38058   2.703   8.747   2.872 -0.1152  0.2697 -0.3571
95068W        W38059  24.998  27.164  16.470 -0.2726  0.2010 -0.1995
95069W        W38060   4.016   9.162  23.521 -0.0756 -0.0163  0.0488
95070W        W38061  17.272  27.304   0.687 -0.2277  0.1230  0.3069
95071W        W38062  17.077  17.123  15.586 -0.1551  0.1137 -0.0937
95072W        W38063  27.489  33.705  22.453 -0.0001  0.0863  0.2136
95073W        W38064  29.666  31.525  25.848  0.1595  0.1186  0.1859
95074W        W38065   4.739  31.585  28.200 -0.0574  0.4502 -0.1039
95075W        W38066  23.572   5.488  21.893  0.2127  0.1546  0.2217
95076W        W38067  19.815   7.138  28.627 -0.1362  0.0018  0.2232
95077W        W38068  27.450  15.188   8.398  0.0066  0.2577 -0.0257
95078W        W38069  24.321  29.123   2.147 -0.1722 -0.1936  0.1334
95079W        W38070   1.840  26.515   3.230  0.1194 -0.0224  0.3081
95080W        W38071  16.287  14.545  14.748  0.2377  0.2005 -0.0587
95081W        W38072  29.448  34.384   7.930 -0.0280  0.0214  0.0574
95082W        W38073   9.724   4.290   0.536 -0.1300 -0.1172  0.2780
95083W        W38074  11.553   0.228  28.289 -0.1448 -0.2575 -0.0037
95084W        W38075  21.322  30.481   5.048 -0.0231  0.0291  0.0072
95085W        W38076  16.711  24.364  15.421  0.0003  0.3122  0.0143
95086W        W38077  11.041  30.358  24.582 -0.2538  0.1031 -0.1811
95087W        W38078  24.620  34.714  14.557 -0.0499  0.2030 -0.4299
95088W        W38079   1.777  21.670  23.575  0.0376  0.2006 -0.0562
95089W        W38080  15.884  29.773  26.648  0.1877  0.0603 -0.3187
95090W        W38081  29.572  29.778  24.278 -0.0021  0.1842 -0.0137
95091W        W38082  27.820   8.202   3.503 -0.2252  0.0221 -0.0285
95092W        W38083  33.649   3.953  29.103  0.3524  0.4752 -0.2012
95093W        W38084  29.808  27.102  22.876 -0.0332 -0.1494 -0.0583
95094W        W38085   7.182  16.724  27.811  0.2207  0.1814 -0.6927
95095W        W38086  27.934   3.098   1.969 -0.0551  0.2320  0.2970
95096W        W38087  17.023  23.457  19.377 -0.1698 -0.0865 -0.1419
95097W        W38088  12.940   2.649   9.064  0.3414  0.0191  0.0928
95098W        W38089  26.551  25.156  27.055 -0.4108 -0.2465 -0.1081
95099W        W38090  16.366   1.767   9.635 -0.1544 -0.1757  0.2431
95100W        W38091  21.545  29.750   5.357 -0.2944 -0.1858 -0.0403
95101W        W38092  11.918  27.647  16.164  0.1176  0.0133  0.2088
95102W        W38093  25.306  14.163   1.811  0.0273 -0.2605 -0.2441
95103W        W38094  17.192  23.322  16.351 -0.0768  0.0755  0.0073
95104W        W38095  32.113  17.419  19.414 -0.0031 -0.1513 -0.0380
95105W        W38096  23.661  31.987   3.960  0.1642 -0.0246  0.2287
95106W        W38097  23.854   3.614  15.595  0.0585 -0.1313 -0.3961
95107W        W38098  22.774  31.868   7.220 -0.1015  0.0742 -0.0145
95108W        W38099  17.201  31.714  20.327  0.1396 -0.1685 -0.1619
95109W        W38100  21.053  17.468   5.958 -0.1701 -0.1110  0.2878
95110W        W38101  10.480   4.832  21.520 -0.1576 -0.4548 -0.2154
95111W        W38102  18.306   2.530  18.465  0.0898 -0.2670  0.1878
95112W        W38103  24.315  18.520  24.508 -0.0418 -0.1256  0.1951
95113W        W38104  23.259   9.354  16.973 -0.1870 -0.2472  0.0873
95114W        W38105  16.324  26.269   1.666 -0.2380 -0.0990 -0.1062
95115W        W38106  30.439  28.566  23.241  0.0497  0.0478  0.2358
95116W        W38107   1.176   7.853  27.775  0.0271 -0.1174  0.3397
95117W        W38108  12.040  22.285  13.743 -0.0813 -0.0819 -0.0696
95118W        W38109  12.391  25.783  24.482 -0.1862  0.0474 -0.0919
95119W        W38110  26.654   8.283  26.033 -0.0911 -0.1660 -0.2497
95120W        W38111  19.612   0.032   8.455  0.0611 -0.2496  0.2121
95121W        W38112  26.560  33.560  17.786 -0.1842 -0.0209  0.0032
95122W        W38113   7.862  27.488  19.687 -0.2385 -0.0153 -0.1831
95123W        W38114  25.226  29.528  17.604 -0.0405  0.1813 -0.0637
95124W        W38115  18.061  12.384   4.558 -0.1325 -0.1260 -0.0817
95125W        W38116   1.566  32.723  21.371 -0.0112 -0.0492  0.2238
95126W        W38117   6.168  11.586   3.371 -0.1079  0.0394  0.0013
95127W        W38118  22.117   2.953  23.079  0.1386 -0.2292  0.3229
95128W        W38119  14.000   7.962   1.291 -0.2316  0.1586  0.2855
95129W        W38120  21.829  23.746  28.207  0.1742 -0.0688 -0.0094
95130W        W38121  27.469  21.881  26.048 -0.3159  0.1589 -0.0242
95131W        W38122  27.855   0.000   6.903  0.0738  0.0066  0.0275
95132W        W38123  20.771   4.393  17.044 -0.0185  0.1417 -0.1034
95133W        W38124   2.316  22.079  22.448  0.0794 -0.1034  0.1526
95134W        W38125  13.868  25.850  17.003  0.2882 -0.1055  0.2113
95135W        W38126  17.896  25.607   4.665  0.0023  0.0421  0.1531
95136W        W38127   0.073  17.712  19.057 -0.0212  0.4490 -0.0040
95137W        W38128   3.824  14.541  25.440 -0.0008  0.0719  0.0448
95138W        W38129  20.765  28.355  24.566 -0.1762 -0.0612  0.2177
95139W        W38130   9.703  23.357  26.952  0.0858 -0.4109  0.2483
95140W        W38131  25.179   7.316   3.320  0.3143 -0.2247 -0.1028
95141W        W38132  32.084  26.066  21.752 -0.3101 -0.1109  0.4187
95142W        W38133  17.699  27.767   3.993 -0.1749 -0.1954  0.1110
95143W        W38134   3.539  24.849  23.095  0.1604 -0.0209 -0.0729
95144W        W38135  28.440  20.066  10.622 -0.0052  0.1902 -0.1355
95145W        W38136  17.270  28.713  16.372 -0.3248 -0.3431 -0.0486
95146W        W38137  26.135  16.090  22.455  0.0419 -0.2236 -0.1090
95147W        W38138  15.940  29.267  15.312  0.0351 -0.1381  0.1133
95148W        W38139  14.706  25.169   9.179 -0.0898 -0.0864  0.0598
95149W        W38140   0.190  26.769  20.583  0.4583 -0.0008  0.0769
95150W        W38141  10.317  32.089  19.922 -0.1311 -0.0844 -0.0115
95151W        W38142  22.732  23.816  28.830 -0.3679 -0.1457 -0.0330
95152W        W38143  20.761   3.439  15.343 -0.3688 -0.1360  0.2902
95153W        W38144  24.484   8.840  17.837 -0.3078 -0.0504 -0.3932
95154W        W38145   4.260  22.666  25.469 -0.0160 -0.1791 -0.0709
95155W        W38146  24.319   0.342  24.017  0.2766  0.0575  0.2061
95156W        W38147  16.906  29.539  16.941 -0.2482  0.0977 -0.0900
95157W        W38148  13.360  14.555  13.813  0.2892  0.0896 -0.1192
95158W        W38149  15.647   4.344  28.054 -0.2810 -0.1755 -0.0075
95159W        W38150  20.038  11.320  17.981  0.0090  0.2047 -0.0296
95160W        W38151  27.993  32.789  19.882  0.3731 -0.0913  0.0476
95161W        W38152  14.702  20.023  27.200  0.1552  0.1196 -0.2341
95162W        W38153  22.508   0.649  28.838  0.0504 -0.0535 -0.0023
95163W        W38154  14.464  26.817  14.597  0.1077  0.0418 -0.2828
95164W        W38155  15.229  33.487  22.681  0.1382  0.0312 -0.2072
95165W        W38156   7.446  18.718  22.103 -0.0698  0.1501  0.3263
95166W        W38157  17.875   3.293  26.997 -0.3979 -0.1170 -0.2150
95167W        W38158  13.962  26.829  17.586 -0.0350 -0.2380  0.0183
95168W        W38159  25.175  24.860  14.215  0.3440  0.1568  0.1023
95169W        W38160  21.816   9.458  19.734 -0.0802  0.0140  0.1562
95170W        W38161  34.142   6.831  16.588 -0.0125  0.0118 -0.1012
95171W        W38162  23.502  29.580   8.020  0.0951  0.0684  0.1373
95172W        W38163   7.910  19.315  22.695 -0.1967  0.0997 -0.0523
95173W        W38164  10.995  24.152  26.738 -0.2517  0.0452  0.0406
95174W        W38165  16.126  31.608  16.659 -0.0232 -0.0058 -0.0015
95175W        W38166  15.778  33.262  20.010 -0.2633 -0.0129  0.1791
95176W        W38167   4.551  33.061  17.817 -0.0309 -0.4011 -0.1879
95177W        W38168  27.164  23.906  21.322 -0.0550  0.3894 -0.0564
95178W        W38169   2.780   3.816   5.929 -0.3311  0.0675 -0.3331
95179W        W38170   2.611  33.301   1.857 -0.2864  0.1490 -0.0760
95180W        W38171  24.274  10.547  14.378 -0.4066  0.3989  0.1383
95181W        W38172  25.919   5.262  20.832 -0.1794  0.1249 -0.1373
95182W        W38173  16.192  20.327  13.307  0.1803  0.1918  0.3743
95183W        W38174  19.240  17.971   2.195 -0.2079 -0.1854  0.1325
95184W        W38175  16.347   3.312   2.903 -0.2687  0.4349 -0.0339
95185W        W38176   6.287  18.289  28.861  0.0515 -0.0060 -0.0793
95186W        W38177  16.613  29.383   5.146 -0.0282  0.0454 -0.2641
95187W        W38178  26.690   2.603  22.358 -0.0078  0.0105  0.0805
95188W        W38179  26.787  33.242  14.161 -0.2907 -0.0779  0.2738
95189W        W38180   7.418   9.405   0.433 -0.1322 -0.2095 -0.2094
95190W        W38181  30.410  25.392  17.928  0.0148  0.1775  0.0024
95191W        W38182   8.277  34.775   0.038 -0.1470  0.1281 -0.0853
95192W        W38183   7.449  28.047   3.542 -0.0969 -0.5861 -0.0725
95193W        W38184  22.019  17.182   1.581 -0.0683  0.0984 -0.2170
95194W        W38185  17.491  32.615  15.158 -0.3439  0.1448 -0.2202
95195W        W38186  17.247  33.907  13.619  0.0999 -0.5815  0.4024
95196W        W38187  19.518  13.721  16.877 -0.1318  0.0429 -0.2312
95197W        W38188  30.105   8.823  26.347  0.1260  0.0988 -0.3261
95198W        W38189  31.416   1.819  13.258  0.2171  0.1098  0.2481
95199W        W38190   9.213  22.812  15.091  0.2433  0.0757 -0.2122
95200W        W38191  16.675  17.087   2.855  0.1626 -0.0173  0.2085
95201W        W38192  26.300  14.826  18.810  0.1105 -0.0887 -0.2734
95202W        W38193  17.573  21.782   6.968 -0.1096 -0.1861 -0.1022
95203W        W38194  33.206  18.568  16.633 -0.0561  0.0372 -0.0493
95204W        W38195  15.192  29.287   0.813 -0.1023 -0.0862  0.2400
95205W        W38196  15.803  15.899  27.388  0.2656  0.2507  0.0876
95206W        W38197  34.150   7.404  18.667  0.0275  0.1244  0.0191
95207W        W38198  13.011  32.015  22.609 -0.1238  0.0172 -0.0291
95208W        W38199  22.453  21.151  23.846 -0.1407 -0.2450 -0.0797
95209W        W38200   3.833  32.433  17.649  0.3056 -0.2117 -0.1143
95210W        W38201  10.025  21.790  25.506 -0.1411 -0.1010  0.1055
95211W        W38202  15.628  17.786  13.075  0.1245 -0.1402  0.0895
95212W        W38203  27.339  22.617  18.818 -0.0652 -0.1455  0.1938
95213W        W38204  20.283  23.709   5.044 -0.0483  0.0721  0.0237
95214W        W38205  17.997  16.372   0.107  0.2098 -0.1331  0.3310
95215W        W38206  12.238   5.872  27.367 -0.2764  0.1569 -0.1254
95216W        W38207  29.608  22.775   5.330 -0.0969  0.1845 -0.0627
95217W        W38208   3.950   2.446  17.920 -0.1990  0.1797 -0.2363
95218W        W38209  25.475   5.737  15.770 -0.1536  0.0792  0.1360
95219W        W38210  13.650  15.270  17.193  0.0126 -0.1037  0.0944
95220W        W38211  23.784  23.025   7.297 -0.1479  0.1655 -0.0738
95221W        W38212   7.047   5.740   9.126  0.0238 -0.0633 -0.0673
95222W        W38213  34.765  25.848  14.013  0.1180 -0.0679 -0.0730
95223W        W38214  28.335  29.895  25.825 -0.3397 -0.0973  0.1348
95224W        W38215   1.712  28.396  15.606  0.0466  0.1839 -0.2407
95225W        W38216  33.303  17.446  26.443 -0.0727 -0.1857  0.1450
95226W        W38217  32.404   4.428  26.620  0.2657 -0.0563  0.2481
95227W        W38218  27.601  29.952   3.396 -0.1986  0.0158  0.0977
95228W        W38219  13.372   6.110  17.920 -0.1497  0.1962 -0.3583
95229W        W38220  24.176  16.611   8.467  0.2427  0.1530  0.1754
95230W        W38221   1.544   8.284  27.714  0.4761 -0.1976 -0.0272
95231W        W38222  16.675  12.124  18.170 -0.0264  0.2125 -0.1056
95232W        W38223  33.463   5.725  26.542  0.0265 -0.0781 -0.0463
95233W        W38224  14.243  14.903  22.186  0.0467 -0.0473 -0.1549
95234W        W38225  32.269  30.061   6.522  0.3603  0.2276  0.1894
95235W        W38226  18.381  34.112  15.266 -0.0669  0.0353 -0.0095
95236W        W38227  28.583  30.181  27.661  0.0557 -0.3854  0.0880
95237W        W38228  19.611  23.669  16.058 -0.1244 -0.3053 -0.3375
95238W        W38229  23.993  34.014  13.451  0.1090 -0.2447  0.2773
95239W        W38230  11.554  13.145   9.128 -0.0761 -0.1314  0.0831
95240W        W38231  29.418   4.620   4.403  0.0043  0.0723 -0.2600
95241W        W38232  20.677  24.673   8.345 -0.2009  0.1567 -0.0581
95242W        W38233  33.333  34.679  17.422 -0.1486 -0.0803  0.0430
95243W        W38234  32.132   0.662  22.822  0.3133  0.1386 -0.1135
95244W        W38235  28.363  29.122   5.987  0.1412 -0.1665  0.0450
95245W        W38236  14.048  20.077  17.298 -0.4118 -0.0284 -0.1276
95246W        W38237  12.358   3.821  16.782 -0.0745 -0.2064  0.0348
95247W        W38238  15.356   9.236   4.342 -0.1465 -0.1167  0.2504
95248W        W38239  22.929   7.312   4.489  0.0689 -0.3550  0.1092
95249W        W38240   2.337   4.492  20.264 -0.0391 -0.0900  0.1496
95250W        W38241  32.161  23.089  23.078 -0.1404 -0.2939 -0.1490
95251W        W38242  17.214  31.047   7.030  0.0849  0.2670  0.0575
95252W        W38243  11.393  14.747  17.738 -0.0147  0.1861  0.0600
95253W        W38244  29.769  34.507  19.597 -0.1595  0.1601  0.0702
95254W        W38245   9.878  31.343  15.749 -0.1199  0.0684  0.1422
95255W        W38246   8.061  21.173  26.443 -0.3066 -0.1725  0.0075
95256W        W38247  18.158   2.415   1.214 -0.1341  0.1527 -0.0930
95257W        W38248   7.803  12.317  17.109  0.1896 -0.1215  0.0522
95258W        W38249  31.377  29.676   8.153  0.3184 -0.1278 -0.1677
95259W        W38250  20.038  12.844  29.023 -0.1695 -0.0966 -0.0194
95260W        W38251  17.864  21.280   0.764  0.3246  0.2041 -0.1405
95261W        W38252  27.693  32.158  16.631  0.2893 -0.0443 -0.0540
95262W        W38253  20.828  28.164   8.254  0.0843 -0.2573 -0.2744
95263W        W38254  10.431  30.576   7.133 -0.1478 -0.0476  0.0338
95264W        W38255   0.596  29.847   6.724 -0.0732 -0.0958 -0.0538
95265W        W38256  13.654   3.179  27.093 -0.1655  0.0818  0.1467
95266W        W38257  25.102  12.924  28.471  0.0797 -0.1355 -0.3829
95267W        W38258  16.547   8.782   6.787  0.0968 -0.0486  0.1189
95268W        W38259  18.533   2.398   2.901  0.0504  0.0336 -0.1002
95269W        W38260   8.736  30.207  26.074 -0.0332 -0.0671  0.0270
95270W        W38261  29.180  26.744  17.919 -0.1667  0.0279  0.0504
95271W        W38262   9.575  24.386  19.368 -0.0096 -0.2414 -0.0239
95272W        W38263  19.894  25.599  22.306  0.1587  0.0060  0.1154
95273W        W38264  26.808  26.572   0.351 -0.3670 -0.1748 -0.4992
95274W        W38265   8.868  17.363   3.102  0.2533 -0.3023 -0.1374
95275W        W38266  11.343  30.966  10.516  0.0788 -0.0595  0.0931
95276W        W38267  15.505  24.524  15.697  0.1656  0.0990 -0.1042
95277W        W38268  18.608   0.779  13.325  0.2314  0.2749 -0.2667
95278W        W38269   2.201  22.587  15.851  0.1151  0.0279 -0.1705
95279W        W38270  30.770  22.587  28.059  0.0886 -0.2138  0.0697
95280W        W38271  16.938  17.235  25.696  0.2124 -0.0440 -0.2109
95281W        W38272   7.498  32.769  15.790  0.1566 -0.0092 -0.2420
95282W        W38273  32.844  20.693  15.024  0.3371  0.0967 -0.3049
95283W        W38274  15.945  26.929  16.152  0.0753 -0.2088 -0.0116
95284W        W38275  17.508  28.227   0.790  0.3738  0.1770 -0.0553
95285W        W38276   8.216  34.622  25.701 -0.3144 -0.0091 -0.0196
95286W        W38277  20.397  16.396  17.814 -0.1996 -0.0501 -0.2182
95287W        W38278  22.354  28.404  22.329  0.0658  0.2667  0.0668
95288W        W38279  28.004  26.796  24.395  0.0442  0.0516  0.0227
95289W        W38280  20.710  22.357  22.755 -0.2286  0.0876 -0.3928
95290W        W38281  14.910  19.343   6.847 -0.1582  0.2081 -0.0619
95291W        W38282   9.178  19.977  21.191 -0.1899  0.1827  0.3465
95292W        W38283  20.549   0.730  18.450 -0.1379  0.0688 -0.2443
95293W        W38284  26.858  31.608   2.258 -0.0233  0.0730  0.1904
95294W        W38285   7.051  28.052   2.765 -0.1389 -0.2101 -0.1849
95295W        W38286  27.884  29.793  18.291  0.2327 -0.3358 -0.1347
95296W        W38287  18.383  12.515  26.631  0.2221  0.2036  0.1844
95297W        W38288   8.191   0.219   2.540  0.2313 -0.1221 -0.4652
95298W        W38289  34.241  26.864   3.165 -0.1548 -0.1044  0.0130
95299W        W38290  17.858  21.499  27.636  0.0318 -0.2683 -0.0400
95300W        W38291  19.309   3.102  18.020  0.0642 -0.1269  0.0303
95301W        W38292  27.703  34.091  20.192  0.2204  0.1866  0.2961
95302W        W38293   2.052  18.905  18.897  0.1973 -0.0640  0.0196
95303W        W38294  25.194  21.519  20.485  0.0303 -0.1784 -0.3486
95304W        W38295  13.310  17.613  28.202 -0.0470 -0.1458 -0.0420
95305W        W38296  22.238  33.131  16.347  0.1376  0.1715  0.2448
95306W        W38297   5.324   5.802   6.445  0.1637 -0.1228 -0.0890
95307W        W38298   1.790  10.911  21.349 -0.1161 -0.1113  0.1165
95308W        W38299  20.594   4.882  26.341  0.1201  0.0685  0.3665
95309W        W38300  14.979  32.374  24.812  0.1559  0.5527 -0.1008
95310W        W38301  22.255  20.829  19.890  0.2089 -0.0022  0.1243
95311W        W38302  16.233   2.470   6.283  0.3132 -0.2979 -0.1893
95312W        W38303  26.038   8.575  18.700 -0.0760  0.2544  0.5550
95313W        W38304  23.214   0.192  16.981  0.1423  0.2523  0.0951
95314W        W38305   5.282  11.565  19.691  0.1116 -0.0602 -0.0692
95315W        W38306  28.201  34.627  16.391 -0.0581  0.1142 -0.0199
95316W        W38307  25.210  27.094   9.886  0.0337  0.1044 -0.1473
95317W        W38308   8.245  17.078  21.653  0.0156  0.4612  0.3952
95318W        W38309  22.763  22.114   4.471  0.2657  0.0127  0.0482
95319W        W38310  18.918  31.310  25.282 -0.0762  0.1684 -0.0980
95320W        W38311   9.057  25.886  15.225  0.3757  0.1064  0.2502
95321W        W38312  19.871  24.070  22.638 -0.0583 -0.0416  0.2937
95322W        W38313  30.875   3.512  23.407  0.0996  0.1567  0.3154
95323W        W38314  31.418  27.235   4.056  0.0347 -0.1748  0.0420
95324W        W38315  32.339   8.189  28.636  0.4016  0.1795  0.1708
95325W        W38316  24.420  26.875  15.050  0.1962 -0.1460 -0.2185
95326W        W38317  25.037  21.214  26.071 -0.1571 -0.2665 -0.2462
95327W        W38318   5.559  33.418  16.896  0.1953 -0.0607 -0.3904
95328W        W38319  30.070  10.864  27.796 -0.2855 -0.4205  0.1780
95329W        W38320  12.386  31.374  18.700 -0.0325 -0.1261 -0.0610
95330W        W38321  26.405  21.593   0.684  0.0940  0.3711  0.0123
95331W        W38322  25.356  25.450  19.252  0.0848 -0.3193 -0.1836
95332W        W38323  24.022  31.210  22.155 -0.1056  0.1651 -0.0780
95333W        W38324  24.450  33.774  14.808 -0.2124 -0.2120 -0.2641
95334W        W38325  13.616   5.724  19.627 -0.3907 -0.1310 -0.0155
95335W        W38326   8.017   0.247  28.871  0.0289 -0.2311  0.1854
95336W        W38327  24.594  34.134  26.010 -0.1582  0.0297  0.2447
95337W        W38328   9.334   0.449  27.788 -0.3725  0.0881 -0.2296
95338W        W38329  19.515   2.622  16.464 -0.0066  0.0454 -0.3405
95339W        W38330  27.936  32.496   2.108  0.0807  0.0416 -0.0391
95340W        W38331  15.835   3.474  27.409  0.0115  0.0643  0.1084
95341W        W38332  13.391  30.768  20.697  0.1762  0.3280 -0.0247
95342W        W38333  21.114  21.966   1.564 -0.0104  0.0937 -0.0536
95343W        W38334  31.527   5.916   2.444 -0.2541 -0.0752  0.5119
95344W        W38335  25.793  29.977  16.797 -0.1073 -0.1240  0.0839
95345W        W38336  21.909  21.763  14.476 -0.0650  0.2328 -0.1602
95346W        W38337  23.912  30.561  18.324 -0.0174 -0.0452 -0.0945
95347W        W38338  10.024  12.307  18.962  0.2007  0.0300  0.1881
95348W        W38339  24.583  23.037  27.422 -0.4043  0.0389 -0.1407
95349W        W38340  27.067  11.782   2.515  0.0728  0.1701  0.4971
95350W        W38341   1.116  21.868  18.614  0.0611  0.1084 -0.0352
95351W        W38342  18.381   0.191  23.906 -0.1554 -0.1760  0.0127
95352W        W38343  13.143  32.117  21.789 -0.0107  0.0189 -0.2023
95353W        W38344  34.143  32.458  27.576 -0.1912  0.1447 -0.3070
95354W        W38345  24.544  21.996   3.939 -0.2612 -0.2575 -0.2395
95355W        W38346  25.147  26.710   2.505 -0.1566  0.1992  0.2935
95356W        W38347   7.450  33.113  21.725  0.1253  0.1803  0.1505
95357W        W38348  27.018  32.694   5.897 -0.1787 -0.2125  0.0010
95358W        W38349  30.488  25.388  19.947 -0.2577 -0.1185  0.0238
95359W        W38350  15.611  33.045  23.957  0.3810 -0.1158  0.1836
95360W        W38351  32.539   1.190  26.414  0.0925 -0.0965  0.0726
95361W        W38352   2.110   4.979   2.551 -0.0033 -0.2918 -0.2959
95362W        W38353  11.185  26.404  15.376 -0.0463  0.0500 -0.1775
95363W        W38354   6.363  15.208  22.556  0.1970  0.0242 -0.1108
95364W        W38355  25.450   6.066  28.468 -0.0370 -0.0749 -0.0025
95365W        W38356  15.840  21.441   3.272 -0.1282 -0.0367 -0.0295
95366W        W38357  19.964  30.363   0.887 -0.0096 -0.1509  0.0254
95367W        W38358  10.519  27.165  10.213 -0.4705  0.0077  0.0262
95368W        W38359  34.346   1.132  16.938  0.1411  0.1699  0.2347
95369W        W38360  17.361  27.288  23.115 -0.1372  0.0009  0.2218
95370W        W38361  21.984  11.677   2.839 -0.0422  0.1097  0.0056
95371W        W38362  12.173  32.269  24.141 -0.0151 -0.0242 -0.1503
95372W        W38363   4.492  23.264   5.991  0.2058 -0.1649 -0.1864
95373W        W38364  33.597   0.204  28.590 -0.0403  0.0519  0.1364
95374W        W38365  30.884  17.066  25.797 -0.0078 -0.2214  0.2617
95375W        W38366  31.174  25.046  17.243 -0.2561 -0.0238 -0.2917
95376W        W38367  11.830   7.235  26.760  0.1847 -0.1928  0.1526
95377W        W38368  10.672  32.695   0.544  0.1343 -0.2621  0.0264
95378W        W38369  25.572  27.684   3.213 -0.0129  0.1258 -0.1042
95379W        W38370  34.375  16.471  27.776  0.2460 -0.0145 -0.0788
95380W        W38371   5.893  28.580  15.003  0.2536 -0.1227 -0.1162
95381W        W38372  26.826  26.492  23.757 -0.1416 -0.1437  0.0056
95382W        W38373  17.832   3.497   9.178  0.1191  0.0131  0.2711
95383W        W38374  29.936  33.346  23.233 -0.2415 -0.0068  0.0809
95384W        W38375  29.922  22.848   6.948  0.2057 -0.1781 -0.0393
95385W        W38376  15.940  30.081  20.738  0.3443 -0.0942 -0.0372
95386W        W38377   3.225   3.857   9.806 -0.3144  0.0163  0.0290
95387W        W38378  21.789  25.744   8.162 -0.1608 -0.3345  0.0034
95388W        W38379  14.864  32.606   5.143 -0.4479  0.1234  0.0519
95389W        W38380  25.411  28.166   3.734 -0.2158  0.2048  0.2032
95390W        W38381   1.231  30.732  17.106 -0.1825 -0.3534 -0.3045
95391W        W38382  10.697  24.078  27.263 -0.0486  0.0144  0.1210
95392W        W38383  26.121  33.299   0.016  0.0885 -0.2620 -0.0106
95393W        W38384  15.165  26.462  25.662 -0.3549  0.2515  0.1883
95394W        W38385   7.607   1.166  29.019 -0.1392  0.0556 -0.0750
95395W        W38386  29.566  29.783   6.318 -0.0441 -0.0566  0.0115
95396W        W38387  19.457  28.436   7.726  0.2947 -0.0684 -0.0722
95397W        W38388  24.600  22.739  22.815 -0.0218 -0.0719  0.2140
95398W        W38389   5.149  14.007   1.707 -0.0480  0.3161  0.2274
95399W        W38390  16.878  15.435   5.378 -0.0099  0.3075  0.0391
95400W        W38391  18.488  29.351   1.432  0.1034  0.3559  0.2559
95401W        W38392   5.769  21.089  28.810 -0.0678 -0.0699 -0.0375
95402W        W38393  25.516   6.770  22.210 -0.2550 -0.2121 -0.1923
95403W        W38394  19.770  33.257  24.828  0.0635 -0.1056  0.1290
95404W        W38395  15.169   0.760  27.692  0.1635  0.0001 -0.3652
95405W        W38396   7.755   6.709   4.392 -0.2514  0.1329  0.1272
95406W        W38397  22.410  30.371  24.534 -0.2973  0.2597 -0.3453
95407W        W38398  14.148  32.109  26.359  0.2468  0.1055  0.0132
95408W        W38399  12.665  31.518   9.433 -0.3025 -0.1504  0.1584
95409W        W38400  24.419  32.213  27.598 -0.0173 -0.0359 -0.2099
95410W        W38401   6.446  23.887  24.772 -0.2735  0.1106  0.1359
95411W        W38402   7.884  22.395  10.473  0.3577  0.0545 -0.0191
95412W        W38403  27.060  33.249  13.449  0.3420  0.0253  0.1803
95413W        W38404  33.035  15.863  10.028 -0.0952  0.3103 -0.1326
95414W        W38405  19.780  22.441  19.679 -0.2008 -0.0580 -0.2261
95415W        W38406  18.420   7.976   4.668  0.2595 -0.0143  0.0718
95416W        W38407   3.611  22.345  23.106  0.4052 -0.2834  0.0980
95417W        W38408  24.458  33.480  27.656  0.1576 -0.2593 -0.0774
95418W        W38409   0.040  15.930  16.117  0.0699  0.0128  0.0526
95419W        W38410  22.404  19.803  27.702  0.0932 -0.1343  0.1597
95420W        W38411  19.005  33.799  23.887 -0.2192 -0.0395  0.0806
95421W        W38412   5.831  19.995  27.273  0.0774  0.0299  0.1604
95422W        W38413  24.635  10.626   1.701  0.1368  0.0778  0.2511
95423W        W38414  27.470  34.463   6.110 -0.3272 -0.1873  0.3250
95424W        W38415  23.457  11.509  18.400  0.0290  0.0420  0.1432
95425W        W38416  17.102  15.896  13.630 -0.0387 -0.1423  0.1504
95426W        W38417  16.415   6.202  21.195 -0.0269 -0.0409 -0.3079
95427W        W38418  22.640  32.849  14.581  0.2158  0.4608  0.0327
95428W        W38419  18.132  25.056  25.777 -0.0011 -0.2516  0.2613
95429W        W38420  14.107  32.450   3.015  0.0559  0.3245  0.0713
95430W        W38421  16.756  20.052  22.496  0.0768  0.1944 -0.0455
95431W        W38422  30.724   4.553  14.335  0.0472  0.2692  0.1624
95432W        W38423  33.188   7.024  22.737 -0.1346 -0.1715  0.1544
95433W        W38424   6.175  17.955  16.683  0.0751  0.4288 -0.0435
95434W        W38425  16.882  13.752   9.311 -0.0709 -0.2958 -0.0429
95435W        W38426  21.812  24.311   6.092 -0.1489  0.1031 -0.2023
95436W        W38427  21.453  21.464   8.133 -0.2439 -0.0828  0.3327
95437W        W38428  24.779  18.168  24.435  0.0913 -0.1220  0.3507
95438W        W38429  19.570  18.239   6.961 -0.0896 -0.0552  0.1422
95439W        W38430  28.115  11.106  27.783 -0.0987 -0.1165  0.2803
95440W        W38431  24.785  31.049  17.003  0.1611 -0.1401 -0.3589
95441W        W38432  23.225  17.729  24.222  0.0124  0.0075  0.0205
95442W        W38433  24.520  32.297  23.830 -0.0505  0.0938 -0.2178
95443W        W38434  11.184  29.954  25.866 -0.0452 -0.2396 -0.0180
95444W        W38435  22.505  11.696   4.407 -0.3102 -0.0684 -0.1985
95445W        W38436   8.075  27.521  25.857  0.2518 -0.0694 -0.2477
95446W        W38437  29.247  11.237   1.982 -0.1123 -0.2434 -0.2668
95447W        W38438   2.584  27.709  14.992  0.0284 -0.1345 -0.0234
95448W        W38439  14.171  27.161  14.404 -0.2200 -0.0401  0.0207
95449W        W38440   8.327   6.216  14.411  0.0544  0.0374  0.1507
95450W        W38441  23.383  23.879  19.225  0.1139  0.1792  0.0256
95451W        W38442  26.225  19.169  19.163 -0.1058  0.0239 -0.3291
95452W        W38443  29.185  23.647   6.277  0.1127 -0.1003 -0.0193
95453W        W38444  32.352   3.606  28.411  0.1401 -0.0079  0.1627
95454W        W38445  10.761  23.837   0.421 -0.0046 -0.0945  0.2150
95455W        W38446  20.990  30.515  17.449 -0.2558 -0.0646  0.0082
95456W        W38447  12.687  30.166  24.169 -0.3848 -0.0302 -0.2015
95457W        W38448   0.131   2.815   4.166  0.0140 -0.0430  0.2726
95458W        W38449  25.559  28.827  27.509  0.1840 -0.1823 -0.1242
95459W        W38450  29.736   5.455  16.425  0.1494 -0.0588  0.6013
95460W        W38451  16.845   1.172   6.029 -0.2063 -0.1540  0.0496
95461W        W38452  13.642  30.987  28.446 -0.0385  0.0284 -0.2821
95462W        W38453   2.677  31.663  17.860  0.1370  0.2191 -0.2135
95463W        W38454  23.110  33.025  27.056 -0.2201  0.1632 -0.1424
95464W        W38455  11.852  33.510   7.381  0.1734 -0.1465  0.0399
95465W        W38456  29.406  25.239  19.578 -0.1473 -0.2090 -0.0145
95466W        W38457  27.550  25.050  20.974  0.1146  0.1174 -0.1539
95467W        W38458  26.348   2.016   0.883 -0.2134 -0.1520  0.1914
95468W        W38459  19.097  18.968   4.178  0.1710 -0.4702 -0.1921
95469W        W38460  17.110  33.287   6.368 -0.0432 -0.0728  0.2334
95470W        W38461   6.568  13.957  29.131  0.1962 -0.0519 -0.1028
95471W        W38462  16.781  26.325  17.641  0.1296  0.0067 -0.2185
95472W        W38463  10.903  13.523  20.971  0.0511 -0.0730  0.0345
95473W        W38464  22.209  33.585  13.858 -0.3157  0.1185 -0.1987
95474W        W38465  21.046   4.407   4.603  0.1468 -0.3079  0.0220
95475W        W38466  23.261  26.520  23.004  0.0839  0.2158 -0.0778
95476W        W38467  11.291  23.184  24.354  0.2569 -0.0337  0.1195
95477W        W38468  23.262   0.089   5.162  0.3280  0.0980 -0.0735
95478W        W38469  14.758  31.536  20.813 -0.3008 -0.1189 -0.0535
95479W        W38470  25.099  24.435   0.352 -0.0260 -0.3900 -0.4609
95480W        W38471  25.246   2.813   5.576  0.0929 -0.4213 -0.1444
95481W        W38472  14.953  10.475   8.897  0.3169 -0.0452 -0.4055
95482W        W38473  13.445  27.299   0.122  0.0636  0.1562 -0.1385
95483W        W38474  10.099  18.558  13.743  0.3971 -0.0733 -0.0444
95484W        W38475  27.184  34.753   0.253 -0.1252  0.2657 -0.1173
95485W        W38476  27.772  33.977  18.747  0.0461  0.1352  0.0923
95486W        W38477  26.464  25.566  27.841  0.1090 -0.2756  0.2216
95487W        W38478  32.401   4.631  25.611 -0.3379  0.3767 -0.2582
95488W        W38479  24.109  23.557   7.374  0.0386  0.0342  0.0767
95489W        W38480  19.597  26.755   9.527  0.1361  0.1883  0.5032
95490W        W38481  29.542  29.633   0.644  0.0902 -0.0381  0.2276
95491W        W38482  27.228   2.072  18.961  0.1832  0.3119  0.0620
95492W        W38483  16.732  26.841  16.225  0.4197 -0.4478 -0.1256
95493W        W38484  17.852  32.982  26.641 -0.1254 -0.2545 -0.0599
95494W        W38485   0.383   0.453  24.383  0.1454  0.0162  0.1117
95495W        W38486  23.893   2.738  18.922 -0.2243  0.0983 -0.5426
95496W        W38487  20.755  26.038  26.984  0.2441  0.1824  0.2053
95497W        W38488  28.437  34.366  26.669 -0.0285  0.3284  0.0134
95498W        W38489  21.466  25.315   7.613 -0.0839  0.2227 -0.0725
95499W        W38490  12.858  28.484   8.739  0.0106 -0.2723 -0.4015
95500W        W38491  31.017  17.428  21.861 -0.2617 -0.0332 -0.2471
95501W        W38492  18.447  21.446  29.112 -0.1473 -0.0236 -0.0131
95502W        W38493  24.049  32.727   5.033 -0.1802  0.2367 -0.0258
95503W        W38494  18.862  31.786  23.068  0.0780 -0.3184  0.1153
95504W        W38495  23.796  28.943  14.826 -0.0252  0.0903  0.3705
95505W        W38496  23.644  30.757  28.704  0.0290 -0.0063 -0.0279
95506W        W38497  24.991  32.296   4.925  0.1741 -0.3828  0.2864
95507W        W38498   4.794   5.202  25.556 -0.1583 -0.0104  0.0859
95508W        W38499   3.901   6.817  25.477  0.1475  0.0686  0.0141
95509W        W38500  32.007   2.623  20.843 -0.3494 -0.2047 -0.1584
95510W        W38501  23.116  31.677  17.637 -0.2774 -0.1348  0.1360
95511W        W38502  29.973  31.298  18.204  0.2291  0.4422  0.3431
95512W        W38503  12.720   9.272   4.168 -0.3521  0.2062 -0.1474
95513W        W38504  21.454  22.718  24.849 -0.3820  0.3152  0.0450
95514W        W38505  15.535  13.538  14.830 -0.1746  0.4584 -0.2146
95515W        W38506  27.359  29.616  14.121  0.0853 -0.1565 -0.1632
95516W        W38507  21.454  14.323   7.351  0.0618  0.0253  0.0487
95517W        W38508   5.954   2.337  23.348 -0.0008  0.0725  0.0410
95518W        W38509  28.384  29.062   1.174 -0.0553 -0.0630 -0.3875
95519W        W38510  16.060  33.213  15.585  0.1181  0.0241 -0.1879
95520W        W38511  12.851  28.721  22.346 -0.0767 -0.1145  0.2386
95521W        W38512  11.714   3.509  26.124  0.0546 -0.1436  0.0759
95522W        W38513   9.639  17.886  22.809 -0.2154 -0.1742 -0.0944
95523W        W38514   8.278  24.444  17.528 -0.1487  0.0788 -0.0973
95524W        W38515  18.929  25.271  18.120  0.0737 -0.1486  0.1103
95525W        W38516  19.832  33.031  16.469  0.0900  0.1472 -0.1271
95526W        W38517  16.014   0.736   9.901  0.0261 -0.0628  0.2832
95527W        W38518  27.052  33.073   6.661 -0.0010  0.0811 -0.1901
95528W        W38519  22.864  14.797   2.901 -0.2483  0.1534  0.4218
95529W        W38520  16.424   2.017  27.106 -0.1257  0.2357  0.1652
95530W        W38521  24.155  18.600  20.902  0.2594 -0.1362  0.0274
95531W        W38522  24.397  34.405   3.788 -0.1010 -0.0718  0.2822
95532W        W38523  15.863  32.420   9.811  0.2692  0.0228 -0.2075
95533W        W38524  25.296  28.112   7.118  0.0441 -0.5432 -0.0009
95534W        W38525  24.129  23.354  16.259 -0.1046  0.3626 -0.3998
95535W        W38526   4.827  32.414  29.141 -0.2085 -0.1687 -0.1365
95536W        W38527  14.580  14.702  25.009 -0.1349 -0.2259  0.0546
95537W        W38528  25.177  22.959   1.549  0.0934 -0.3125  0.2222
95538W        W38529  16.830  10.496  27.450  0.4475  0.1919  0.1028
95539W        W38530  31.154   9.478   4.058 -0.3182 -0.0542 -0.0652
95540W        W38531   1.523   6.295   6.919 -0.1389 -0.0106  0.0820
95541W        W38532  20.415  29.509  25.916 -0.3853 -0.2977 -0.2904
95542W        W38533  21.666  17.412  21.861  0.4640 -0.0057 -0.1464
95543W        W38534  19.987  28.854  15.944  0.0441  0.2918  0.3004
95544W        W38535  20.996  30.812  15.434 -0.1774  0.3111  0.0951
95545W        W38536  12.216  34.470   3.980  0.0702  0.1551 -0.1905
95546W        W38537   9.224   1.422  10.014  0.0398  0.2656  0.2635
95547W        W38538  20.016   4.397  25.646  0.1025 -0.2263 -0.0767
95548W        W38539  11.809  24.257  18.561  0.1731  0.0661 -0.2726
95549W        W38540  17.586   6.663  19.276 -0.0953  0.2302 -0.3005
95550W        W38541  19.489  32.358  27.334  0.0184  0.0321 -0.0355
95551W        W38542  20.549  23.725   3.440  0.1201 -0.1541 -0.0997
95552W        W38543  32.873  23.969  24.382  0.0754  0.1110  0.0411
95553W        W38544  17.322  28.897  25.332 -0.0032 -0.1619  0.1176
95554W        W38545  22.001  21.477  16.647 -0.0073  0.0686 -0.1820
95555W        W38546  18.366  23.428  27.818 -0.1572 -0.0529  0.0797
95556W        W38547  18.602  11.729  14.701  0.2461 -0.1575 -0.2404
95557W        W38548  30.254   9.093   7.339  0.0417  0.1119 -0.2757
95558W        W38549  18.115  26.961  25.557  0.0789 -0.2420 -0.2936
95559W        W38550  14.269   2.451   2.984  0.2575 -0.0193 -0.1976
95560W        W38551  12.737  30.068  17.265 -0.0540  0.0197  0.0919
95561W        W38552  28.858   0.715   7.357 -0.1050 -0.0722 -0.0088
95562W        W38553  27.118  19.096   6.832  0.1415 -0.2326 -0.1097
95563W        W38554  21.929  28.776   5.225 -0.5002  0.3333 -0.4103
95564W        W38555  16.676  21.654  24.913  0.2573 -0.2256 -0.3397
95565W        W38556  13.668  24.737  18.022  0.0229  0.0506 -0.2159
95566W        W38557  26.363  27.941   6.012  0.0720 -0.0715 -0.1642
95567W        W38558  20.910   3.839   7.278 -0.1351  0.0226  0.2150
95568W        W38559   6.452  27.428   8.263 -0.0461  0.2766  0.1593
95569W        W38560   9.364  34.070   4.362  0.0419  0.1009  0.2390
95570W        W38561   8.500  18.741  27.315  0.3314 -0.2944 -0.0407
95571W        W38562   3.578   7.884   7.600 -0.1258  0.2571 -0.0593
95572W        W38563  17.980   6.307   0.367 -0.0583  0.0474 -0.0896
95573W        W38564  24.256   1.667  17.885 -0.0991 -0.0405  0.0780
95574W        W38565  29.298  34.009  25.917 -0.1547 -0.1787 -0.2092
95575W        W38566  17.793  22.092   5.756  0.1528 -0.0948  0.0334
95576W        W38567  29.457  23.719  20.967 -0.1201  0.0410 -0.1292
95577W        W38568  20.709  11.331  20.640 -0.2156  0.2803 -0.1650
95578W        W38569  18.053  18.545  26.915 -0.0705 -0.0028 -0.2424
95579W        W38570  24.360   0.114  26.618 -0.5583 -0.1793 -0.1542
95580W        W38571   5.256   1.897  22.331 -0.1279  0.1222 -0.1665
95581W        W38572  20.293  24.761   7.586 -0.0266  0.1084  0.0441
95582W        W38573  10.332  20.061   2.557 -0.0082  0.3342  0.4443
95583W        W38574   4.262  29.481  27.686 -0.1647  0.0784 -0.0133
95584W        W38575  18.827  27.163   7.676 -0.0077 -0.1230  0.0345
95585W        W38576  11.910  17.105  14.074  0.3092 -0.2056 -0.3259
95586W        W38577  20.480  22.844  27.823 -0.1333 -0.0610 -0.1809
95587W        W38578  34.651  18.114  21.240 -0.5602  0.0345 -0.1488
95588W        W38579  31.571  19.220   2.816  0.0654 -0.0286  0.4297
95589W        W38580  14.041  30.645  17.329 -0.3095  0.1053 -0.0964
95590W        W38581  29.348  22.186   2.410  0.0982 -0.2356  0.2236
95591W        W38582  19.189  13.836  29.103  0.1149  0.0507  0.1844
95592W        W38583  21.147  26.402  24.327 -0.5578 -0.1150 -0.3914
95593W        W38584   3.249  28.590   4.050  0.1140 -0.1137  0.0201
95594W        W38585  10.892  25.999   4.624 -0.0946  0.3376  0.4191
95595W        W38586  25.785  30.222   7.351 -0.0756 -0.0267  0.0848
95596W        W38587  16.865  27.139   9.644 -0.1564 -0.2698  0.2160
95597W        W38588  15.060  22.397  27.334 -0.0218  0.0803 -0.0603
95598W        W38589  16.770  14.548   4.533  0.1809 -0.1250 -0.0227
95599W        W38590   5.907   1.733  18.417 -0.1746  0.3206 -0.1219
95600W        W38591  25.724  19.594  27.046  0.3157 -0.1932  0.1253
95601W        W38592   7.860  19.577   5.021 -0.0726  0.3210  0.0737
95602W        W38593  13.028  10.683  22.088  0.0304 -0.4862  0.0554
95603W        W38594  10.389  17.467  21.362 -0.0161  0.2553  0.2887
95604W        W38595  12.382  31.961  26.397 -0.0360 -0.1397 -0.0713
95605W        W38596  30.326  31.184   2.063  0.2380 -0.1189  0.0340
95606W        W38597  16.820  28.085  27.137  0.0901 -0.3480 -0.0999
95607W        W38598   1.637  26.293  22.840 -0.0806 -0.1917 -0.0273
95608W        W38599  19.190  27.000   7.237  0.1469  0.2152  0.1403
95609W        W38600  11.956  31.776  16.204  0.1870 -0.0318  0.0115
95610W        W38601   8.079  25.546  16.667  0.2643  0.1743  0.0662
95611W        W38602  29.611  28.837  23.778  0.1622 -0.0525  0.2947
95612W        W38603  31.986  30.140  28.167  0.1704 -0.3159  0.0718
95613W        W38604  15.480  22.182  26.396 -0.2005 -0.3017 -0.0843
95614W        W38605  26.437  12.234   9.801  0.1313 -0.0780  0.1882
95615W        W38606  10.065  34.086  17.793 -0.2496 -0.2057 -0.2367
95616W        W38607   3.380  32.400   0.661 -0.2972  0.0770 -0.0594
95617W        W38608  21.077  17.033  16.969  0.0551  0.0801 -0.1758
95618W        W38609   8.744   0.437  26.689 -0.2788 -0.0207  0.2678
95619W        W38610  20.451  31.964  22.702  0.0043 -0.0644 -0.0400
95620W        W38611   4.274  31.365  25.723  0.0829 -0.1207 -0.2523
95621W        W38612  30.622  29.802  28.664  0.1063  0.4197 -0.2440
95622W        W38613   8.387  14.639   3.131 -0.1062  0.0443  0.3531
95623W        W38614  23.957  12.682   2.019 -0.1701  0.2586  0.0545
95624W        W38615  24.495   5.820   2.424 -0.1717  0.3523 -0.0104
95625W        W38616   9.345  27.534  21.896  0.4082 -0.0166  0.0097
95626W        W38617  20.144  29.684  24.918  0.0920 -0.1206  0.0359
95627W        W38618  13.479  29.243  18.805  0.0079 -0.0426 -0.0976
95628W        W38619  17.147  24.268   7.190  0.1796  0.1072 -0.5597
95629W        W38620  15.644  29.610  18.648  0.2168 -0.0216  0.0081
95630W        W38621  12.528   4.359   9.846  0.2112  0.1163 -0.0001
95631W        W38622  28.189  24.291  21.508 -0.1835 -0.0610  0.0641
95632W        W38623  19.018  28.206   0.536 -0.0879  0.3822 -0.0411
95633W        W38624  32.918   0.219  22.163 -0.3270 -0.1103  0.2002
95634W        W38625  31.829   9.889   4.784  0.2297  0.2888  0.3517
95635W        W38626  27.684  10.403   8.775  0.1605 -0.0423 -0.2949
95636W        W38627  18.642  17.562   1.426 -0.1706  0.2483 -0.1399
95637W        W38628   8.309   5.021  21.958  0.0249  0.2298 -0.0538
95638W        W38629  20.653  21.390  24.254  0.0638  0.0447 -0.0114
95639W        W38630  23.189  26.650  14.539  0.1620 -0.1320  0.0280
95640W        W38631   8.325  23.318  20.976 -0.0638  0.1351 -0.1903
95641W        W38632  17.467  29.090  21.910  0.0887  0.1044 -0.0728
95642W        W38633  16.279  18.803   3.921 -0.0920  0.1643  0.1724
95643W        W38634   6.176  24.479   8.418  0.5036 -0.0970 -0.0732
95644W        W38635  24.447  21.100  18.037  0.0540 -0.0171  0.1891
95645W        W38636  16.654  32.052   7.716 -0.0006  0.0070 -0.0817
95646W        W38637  11.836   0.132   8.996 -0.0837  0.0772  0.0073
95647W        W38638  31.373  28.574  16.709  0.1786 -0.1548 -0.0889
95648W        W38639  15.233  18.702   2.235  0.1295 -0.0271 -0.1420
95649W        W38640   4.935  11.078  11.038 -0.1245 -0.1655 -0.0840
95650W        W38641  21.352   1.369   8.036 -0.2858 -0.0317  0.0993
95651W        W38642  14.087  24.425  26.592  0.5138  0.4711  0.0856
95652W        W38643  20.036  21.153  13.241 -0.4225 -0.0032 -0.0404
95653W        W38644  14.665   3.380   2.060 -0.2128  0.0415 -0.0092
95654W        W38645   2.955  32.092   9.524  0.2401 -0.3298 -0.0899
95655W        W38646  25.656   8.901  19.002  0.0246 -0.1507 -0.1695
95656W        W38647  17.815   9.839  17.986  0.5184  0.3141  0.3015
95657W        W38648  21.217  27.538   6.753 -0.0339  0.1342  0.2091
95658W        W38649  19.008  31.489  24.362 -0.6404 -0.1948  0.1211
95659W        W38650  18.990  14.499   6.070 -0.0785  0.1636  0.0990
95660W        W38651  21.904   5.018  26.878  0.0756 -0.2314 -0.3619
95661W        W38652   6.639  17.316   1.461 -0.1185  0.1381  0.0054
95662W        W38653  16.708  21.784   3.376 -0.0073 -0.2495 -0.3078
95663W        W38654  24.084   0.582  26.516 -0.2252 -0.2147  0.1011
95664W        W38655  19.157  31.474   6.558  0.0446 -0.0198 -0.0733
95665W        W38656  12.987  33.632  20.906  0.1038  0.1737 -0.1483
95666W        W38657  16.611  14.864  23.971 -0.0195 -0.3121 -0.0292
95667W        W38658  28.410  31.060  19.893  0.1112 -0.3493  0.0601
95668W        W38659  14.292   2.438   7.320  0.4075  0.2882 -0.1872
95669W        W38660  20.243  22.581  15.175 -0.3957 -0.1496  0.2913
95670W        W38661  30.615  31.079  27.485  0.2013  0.2868  0.1569
95671W        W38662  24.094  28.745   1.586 -0.2650  0.0984  0.0320
95672W        W38663  22.503  19.993  12.050 -0.1069  0.0064  0.3621
95673W        W38664  10.895  14.228  22.419 -0.0219  0.0485 -0.2754
95674W        W38665  24.893  23.257  22.594  0.1055  0.1113 -0.1055
95675W        W38666  23.429  22.695  21.146  0.1967  0.1746 -0.1223
95676W        W38667   4.560  25.057   7.833  0.0812 -0.1624 -0.0649
95677W        W38668  12.119  21.761  26.343 -0.1813 -0.2450 -0.1133
95678W        W38669  19.601  26.656  18.705 -0.5225 -0.2335 -0.0455
95679W        W38670  21.371  24.940  27.317 -0.1922  0.0449  0.2113
95680W        W38671   6.232  16.163  28.520  0.1065  0.1840  0.1549
95681W        W38672  24.628   0.001  29.139 -0.0410  0.0875  0.0629
95682W        W38673   3.441  23.081   2.903 -0.3781  0.1037  0.0139
95683W        W38674  20.511  21.363   5.360 -0.0812  0.0355  0.0164
95684W        W38675  33.945  16.210  28.650  0.1119 -0.0903 -0.2240
95685W        W38676   7.624   4.805   2.803  0.0722  0.2354  0.1154
95686W        W38677   1.493  27.656   0.326  0.1041 -0.0607 -0.2336
95687W        W38678  26.367  19.855  27.142  0.1288 -0.0412 -0.0904
95688W        W38679  27.864  10.217  15.170 -0.2144 -0.0050  0.0190
95689W        W38680   1.639  20.869  20.131  0.1484  0.0133  0.1938
95690W        W38681  18.052  30.815   3.645 -0.1057 -0.1091 -0.0835
95691W        W38682  14.347  17.263   7.773 -0.1561 -0.2786 -0.1969
95692W        W38683  24.879  24.945  23.704  0.1790 -0.0056  0.0258
95693W        W38684   4.679  30.199  20.254  0.1069  0.0361 -0.4427
95694W        W38685  12.250  29.970  15.324 -0.0096  0.2317  0.0046
95695W        W38686   0.011   2.277  20.181  0.0593  0.2307 -0.0076
95696W        W38687   0.843  28.523  24.409 -0.0842 -0.2706 -0.1657
95697W        W38688  30.351  10.144   7.900  0.0626  0.0058 -0.0469
95698W        W38689  22.816  27.203  17.685  0.4259  0.4066  0.0669
95699W        W38690  17.295  26.198   4.610 -0.0121  0.1697  0.1215
95700W        W38691  20.568  22.522   5.088  0.0286 -0.2057  0.0023
95701W        W38692  22.536  21.961  27.983  0.0259  0.1027 -0.1918
95702W        W38693  14.752  26.989   7.520 -0.1606  0.0063  0.3618
95703W        W38694  25.030  23.976  27.233  0.2638  0.1486  0.0169
95704W        W38695  10.797  29.137   1.094  0.1808 -0.0002  0.3168
95705W        W38696  12.477   9.324   8.148 -0.2451  0.0105 -0.2086
95706W        W38697  33.498  27.815  15.331  0.0221 -0.1190 -0.0030
95707W        W38698  15.524   9.296  10.399  0.0814 -0.0647  0.0920
95708W        W38699   8.121  26.669  10.062  0.0124  0.2212  0.0152
95709W        W38700  20.606  31.231   4.974 -0.2197  0.0806 -0.0002
95710W        W38701  20.929  22.126  21.687 -0.1318 -0.0417 -0.0280
95711W        W38702  17.368  29.065  17.081  0.2053  0.3842  0.2196
95712W        W38703  19.111  31.979   2.504  0.1341 -0.2187 -0.2030
95713W        W38704  31.141  19.919   9.553 -0.0168  0.1716 -0.0767
95714W        W38705  14.390  17.942  24.776  0.2293 -0.2817 -0.3045
95715W        W38706   3.479  25.620  18.445 -0.3112 -0.0601  0.0081
95716W        W38707  24.342  17.358  14.486  0.2011  0.1582  0.0208
95717W        W38708   0.668  21.606   0.666 -0.2697  0.0798  0.3386
95718W        W38709  12.208  29.276  26.177 -0.0730  0.0578  0.4090
95719W        W38710  10.545  18.756   2.213 -0.0975 -0.0156 -0.1034
95720W        W38711  15.422  28.479  25.757 -0.1724  0.1458  0.5121
95721W        W38712   4.811  28.737   6.414 -0.0329  0.2735  0.0695
95722W        W38713  21.308  24.763   3.389 -0.0847  0.2541  0.2324
95723W        W38714  20.048   9.450   0.162  0.0744 -0.1024 -0.2252
95724W        W38715   2.804  27.649  28.948 -0.2873  0.0108 -0.0530
95725W        W38716  34.379  31.374   1.700  0.0069  0.1069  0.2399
95726W        W38717  18.487  14.596  27.677  0.0580  0.0830  0.0421
95727W        W38718   7.647  10.513   1.979  0.0837  0.3964 -0.0603
95728W        W38719  11.400   6.490   5.363 -0.3240 -0.2372  0.3419
95729W        W38720   4.624  22.564  24.186  0.2390  0.1827 -0.0911
95730W        W38721  31.940  31.782  18.581  0.1144  0.0912 -0.3513
95731W        W38722  18.407   9.422  10.065  0.0874  0.1207  0.2785
95732W        W38723  18.932  13.338  20.468 -0.0030 -0.0079 -0.0868
95733W        W38724  18.656   8.998   4.803  0.1875  0.1450 -0.1525
95734W        W38725  28.649  27.833   5.332  0.0115  0.2387  0.3008
95735W        W38726   7.666  13.654  16.552 -0.1281  0.1080  0.1050
95736W        W38727   1.248  33.533   0.196  0.3245 -0.1824 -0.2714
95737W        W38728  19.849  26.084  25.112 -0.0371 -0.2495  0.3086
95738W        W38729  31.206  16.355  29.129 -0.2270  0.2796  0.1234
95739W        W38730   6.548  22.331  16.945 -0.0899  0.0095  0.2282
95740W        W38731  27.614   1.152  13.136  0.0364  0.0285  0.0638
95741W        W38732  24.369  22.874   5.766 -0.2193  0.2650  0.1448
95742W        W38733  14.358  16.209   4.079  0.0689 -0.2608 -0.0769
95743W        W38734  32.144  20.154  16.059 -0.0978 -0.1620  0.1270
95744W        W38735  26.171  31.732   1.711  0.2818  0.1136 -0.1482
95745W        W38736  18.961  17.954  12.191  0.0196  0.2310  0.0705
95746W        W38737   1.428  24.574   7.661 -0.1567  0.0855  0.1381
95747W        W38738   2.251  21.659  11.127 -0.2362 -0.2778 -0.2905
95748W        W38739   2.106  16.701  25.434  0.4792 -0.1125  0.2100
95749W        W38740  21.319  30.591  26.470  0.2185 -0.1672 -0.1234
95750W        W38741  26.297  12.131  24.795 -0.0507 -0.1576  0.0474
95751W        W38742   6.832  29.736  22.929  0.1057 -0.1759  0.1835
95752W        W38743  13.326  30.187  20.932 -0.2169 -0.1754 -0.0603
95753W        W38744  19.079  26.847   6.717  0.0604  0.0314 -0.0927
95754W        W38745  30.480  14.630  27.693 -0.1558 -0.2307 -0.0509
95755W        W38746  21.158  17.206  24.283 -0.0890  0.4481 -0.0042
95756W        W38747  15.063  33.322  26.506  0.4166 -0.1662  0.1790
95757W        W38748   3.948   2.534  24.552 -0.0030 -0.2759 -0.0820
95758W        W38749   8.634  28.865   4.021 -0.2787  0.0563  0.4192
95759W        W38750  21.434   8.276   5.643  0.0135 -0.1559 -0.0885
95760W        W38751   7.307  10.937  10.518 -0.0747 -0.0548 -0.0953
95761W        W38752  28.777  28.892  24.928 -0.1246  0.0879 -0.2738
95762W        W38753  14.918  34.360  10.020 -0.0030  0.1598 -0.1851
95763W        W38754   9.729   1.523  18.446 -0.5071  0.0121  0.2329
95764W        W38755  30.927  28.656  17.369 -0.0229 -0.1009  0.0641
95765W        W38756   7.226  30.005  23.932  0.1773  0.1849  0.1415
95766W        W38757  22.889  25.492   2.709 -0.1144 -0.0998 -0.3146
95767W        W38758  17.863  32.136   2.815 -0.2057 -0.1434  0.2078
95768W        W38759  17.978  32.887  14.246 -0.1242  0.0689  0.1780
95769W        W38760  21.239  29.862  16.824 -0.0497 -0.0296  0.3091
95770W        W38761  21.339  30.693  26.017 -0.0497 -0.2750 -0.1427
95771W        W38762   9.758   2.173  23.261 -0.0517  0.1995 -0.1862
95772W        W38763  22.086   9.861   6.108 -0.0445  0.0694  0.0384
95773W        W38764  25.067  21.636  21.761 -0.0200 -0.0336 -0.0216
95774W        W38765  11.801  29.809  16.245  0.2833  0.0347  0.0217
95775W        W38766   2.244   1.140  23.532 -0.0807  0.2080 -0.1282
95776W        W38767  16.691   6.500  10.260  0.0441 -0.1102 -0.3036
95777W        W38768  10.640  22.557  27.626 -0.4531  0.2250  0.1224
95778W        W38769   1.130  27.727  18.870  0.2504  0.1891 -0.0866
95779W        W38770  18.446  17.209  14.443  0.1434  0.1253  0.0878
95780W        W38771  14.476  21.758   1.181  0.0909  0.0298 -0.1589
95781W        W38772  17.574  22.442  21.789  0.0263 -0.3176  0.2119
95782W        W38773  25.231  26.638  22.661  0.1871 -0.2956  0.2493
95783W        W38774  24.464  23.531  22.625  0.1582  0.1589  0.0236
95784W        W38775  12.613  23.672  19.691 -0.2079 -0.0101  0.0066
95785W        W38776  24.970  31.961   6.851  0.1620  0.0176 -0.1333
95786W        W38777  29.808  33.678   3.784 -0.0124  0.0994  0.1413
95787W        W38778   0.323  31.027  21.214  0.0677  0.0136 -0.3061
95788W        W38779  23.341  30.460  25.018 -0.1079  0.0301 -0.1735
95789W        W38780  34.104  29.979  17.189  0.1933 -0.3047  0.2169
95790W        W38781  18.617  21.647  23.711 -0.1134 -0.1625  0.2394
95791W        W38782  26.276  20.654   5.791 -0.1398 -0.0009  0.0908
95792W        W38783  23.763  31.450  13.869 -0.0524 -0.2245 -0.0423
95793W        W38784  26.743  22.218  18.937  0.6787  0.0582 -0.1535
95794W        W38785  10.008  33.609   2.810  0.2469  0.0478  0.1161
95795W        W38786  24.915  18.821   5.201 -0.3530  0.0883 -0.0190
95796W        W38787  15.710  20.889  24.595 -0.0047  0.3286  0.1403
95797W        W38788  27.081  32.119  24.368 -0.1463  0.1331  0.1239
95798W        W38789  11.005  12.296  25.480 -0.1408 -0.3438 -0.1379
95799W        W38790  13.364  22.411  24.002 -0.2653 -0.0798 -0.0537
95800W        W38791  24.702  30.745  20.902  0.2412  0.1947  0.1002
95801W        W38792  16.567  30.886  24.159 -0.0071 -0.1230 -0.0594
95802W        W38793  17.025  27.520  19.801  0.0723 -0.0427 -0.0297
95803W        W38794  12.902   9.312  22.080 -0.3429 -0.2984 -0.0118
95804W        W38795  26.556  20.323   3.676  0.0027 -0.2082 -0.0896
95805W        W38796  28.451  20.595  22.620 -0.0581  0.2016 -0.0201
95806W        W38797  31.275  16.121   9.010  0.1350  0.0177  0.1180
95807W        W38798   7.657   1.819   5.918  0.0161 -0.1236 -0.1305
95808W        W38799  22.018  21.955  28.680  0.3703  0.0376 -0.1409
95809W        W38800  21.135  29.354  25.099  0.1398  0.0102  0.0681
95810W        W38801   8.620  17.910   5.784  0.0327 -0.3039  0.0684
95811W        W38802  23.157  33.540   7.090  0.1579  0.0553 -0.2269
95812W        W38803  13.739   4.899  10.118 -0.1299  0.0727  0.1720
95813W        W38804  29.059   1.835   1.303  0.0396 -0.1003  0.2491
95814W        W38805  15.067  21.494   7.825 -0.3604  0.2632 -0.3140
95815W        W38806  17.967  33.892   7.437 -0.0568 -0.1515 -0.1948
95816W        W38807   4.518  22.278  25.696 -0.1037  0.2284 -0.1089
95817W        W38808  16.607  16.287  28.272 -0.2122  0.0337 -0.3867
95818W        W38809   1.392  23.709   8.785  0.1446  0.0002  0.1962
95819W        W38810  17.448  28.396  25.436  0.2256  0.2241  0.1453
95820W        W38811  29.389  21.670  13.851 -0.1135  0.1062  0.0500
95821W        W38812  27.238  16.746  10.683  0.0237 -0.2229  0.2460
95822W        W38813  16.685   4.322  28.955 -0.0083  0.1130  0.1404
95823W        W38814  24.530  23.640   6.869  0.0381  0.3421 -0.1309
95824W        W38815   9.184  20.243   1.903 -0.0953  0.1309 -0.0089
95825W        W38816  12.036  25.179  25.848  0.2713 -0.1798  0.0466
95826W        W38817  22.067  23.582   5.311  0.0302 -0.0175 -0.0907
95827W        W38818  27.150  11.760   8.280 -0.0728  0.5225  0.2352
95828W        W38819  20.192   7.203   1.113  0.0270  0.0029 -0.0618
95829W        W38820   7.153  14.964   4.583  0.0979 -0.0162  0.1529
95830W        W38821   2.511   7.967   1.697  0.0503 -0.3820 -0.1019
95831W        W38822  14.295  21.555   7.268  0.1242  0.1118  0.2667
95832W        W38823   1.220  28.597  24.152 -0.0287  0.2163  0.1283
95833W        W38824  31.384  29.796   7.085  0.1903  0.2321 -0.1333
95834W        W38825  29.725  14.033   3.491 -0.2285 -0.2569  0.1326
95835W        W38826  25.314  32.867  16.692 -0.3170  0.1094  0.2138
95836W        W38827  26.859   1.298  25.103 -0.1625  0.1692  0.2383
95837W        W38828  22.728  21.807  22.584  0.0993  0.0585  0.1067
95838W        W38829  10.244  27.238  19.209 -0.4802 -0.0819  0.1254
95839W        W38830  29.076  24.928  21.779 -0.0713  0.1593 -0.3652
95840W        W38831  19.964  23.992  19.101  0.0451  0.0547 -0.4211
95841W        W38832   6.589  32.289  28.895 -0.0251  0.1219  0.1548
95842W        W38833  21.645  15.777   8.076 -0.0356  0.2546  0.1149
95843W        W38834  10.022  16.990  28.073 -0.0584 -0.1177 -0.0324
95844W        W38835  11.705  30.615  18.684 -0.3415  0.2166 -0.2491
95845W        W38836  10.939   7.952  20.850  0.0087  0.3646 -0.0031
95846W        W38837  16.919  30.217  16.673 -0.1343  0.4170  0.0153
95847W        W38838  11.269  33.863  17.171 -0.2995  0.0219 -0.0477
95848W        W38839  18.412  26.662  24.639  0.0162 -0.5473  0.0601
95849W        W38840  23.928  22.423  14.826  0.1158  0.2683  0.0548
95850W        W38841  24.507   0.567  16.017  0.2713 -0.0485  0.1391
95851W        W38842  33.881  26.890  14.683 -0.5787 -0.0612 -0.0665
95852W        W38843   2.278  33.538  18.195 -0.1477  0.0483  0.0327
95853W        W38844   0.616  33.795  15.743 -0.0700  0.0196  0.1233
95854W        W38845  18.846  24.865  13.835  0.4309  0.3771  0.0802
95855W        W38846  34.431   8.571  26.040  0.3669 -0.0659  0.2026
95856W        W38847  14.820   2.284  19.415 -0.0491  0.1904 -0.1098
95857W        W38848  25.660  28.258  19.601  0.1365  0.0589  0.1538
95858W        W38849  33.358   5.462  27.487  0.0643  0.0022  0.2928
95859W        W38850  20.244   2.585   5.526  0.4811  0.0044  0.1784
95860W        W38851   4.532  33.900  26.652 -0.1836  0.2118 -0.2236
95861W        W38852  24.517  11.577  14.405  0.0385 -0.1573 -0.0274
95862W        W38853   5.765   0.624  24.472 -0.2032  0.2559 -0.2198
95863W        W38854  22.685   2.523  13.966  0.0855 -0.3333  0.0106
95864W        W38855   6.502   0.018  28.236  0.0297  0.1132 -0.2413
95865W        W38856  23.429  15.133  17.178 -0.0959  0.0344 -0.2682
95866W        W38857  30.504  34.022  15.056 -0.1892  0.0974 -0.1588
95867W        W38858  16.379  34.016   9.394 -0.0494 -0.1322 -0.0250
95868W        W38859  25.372   9.072  24.262 -0.0837 -0.2464 -0.2297
95869W        W38860  10.635  31.256  23.389 -0.3550  0.4754  0.3661
95870W        W38861  21.552   8.565  22.784  0.2331  0.1143  0.1933
95871W        W38862  21.613  31.389  20.014  0.3639 -0.5252 -0.2916
95872W        W38863  26.543   0.667  20.025 -0.0281  0.0054  0.0922
95873W        W38864  21.838  30.733  16.567 -0.0451 -0.0993 -0.0239
95874W        W38865   4.993  18.466  28.115 -0.1512 -0.1007 -0.2308
95875W        W38866  14.724  28.727  13.689  0.0186 -0.2490 -0.3509
95876W        W38867  24.113  33.479  28.712  0.0974  0.1944 -0.2879
95877W        W38868  24.049   5.017  18.326 -0.0170 -0.4421  0.1166
95878W        W38869  25.224   6.866  27.808  0.1664 -0.1493 -0.1981
95879W        W38870  24.421  21.250  13.059  0.0670  0.1589  0.1085
95880W        W38871  32.029  34.318  26.994 -0.0333 -0.3334  0.1927
95881W        W38872  18.325   8.210   3.041 -0.0565  0.1701 -0.2800
95882W        W38873  23.745   0.346  15.332  0.0262 -0.1638 -0.0288
95883W        W38874  24.059  31.713  16.828  0.2375  0.2266 -0.1358
95884W        W38875   1.454  10.972  23.423 -0.1104 -0.1782  0.1619
95885W        W38876   9.291  10.865  16.617  0.3700  0.2618 -0.0464
95886W        W38877  26.935  33.733  13.265  0.2945  0.0831 -0.1710
95887W        W38878  14.816  13.719  24.855 -0.0749  0.0203  0.2293
95888W        W38879  13.257  28.014  15.424 -0.0013  0.0928  0.1772
95889W        W38880  16.494  29.474  23.260 -0.2355  0.1489 -0.0747
95890W        W38881  14.838  21.357  19.609 -0.1012  0.2247  0.2267
95891W        W38882  22.839  29.663  16.543 -0.3264 -0.1630 -0.0960
95892W        W38883  14.375  34.182  17.695 -0.0307 -0.3439  0.0825
95893W        W38884  32.111   4.242  25.970 -0.0464  0.0229 -0.3192
95894W        W38885   7.847  23.102  16.730  0.2657  0.5579 -0.3665
95895W        W38886   0.925   1.568   0.569  0.2962 -0.0123  0.0040
95896W        W38887  16.647  23.197  15.047 -0.0656  0.4142 -0.1035
95897W        W38888  17.095   2.646  15.317  0.2243 -0.1670 -0.0776
95898W        W38889  25.744   7.392  13.254 -0.0734 -0.0256  0.1075
95899W        W38890  27.370  32.935  16.017 -0.1298  0.1127 -0.0311
95900W        W38891  11.034   1.651  26.741 -0.1249  0.0348  0.1641
95901W        W38892  24.799  26.979  18.767  0.2562 -0.1035  0.1725
95902W        W38893  17.593   0.406  24.958  0.0423 -0.1198  0.0134
95903W        W38894  28.569  27.591  13.534  0.1207  0.1564 -0.0635
95904W        W38895  27.810  32.652  18.337 -0.0849  0.2035 -0.0631
95905W        W38896  12.406  27.916  18.739 -0.2623  0.0596 -0.2300
95906W        W38897  17.883  25.535  24.140 -0.0299  0.1732  0.2343
95907W        W38898  26.043   5.129  18.870  0.1851 -0.3339  0.1863
95908W        W38899   9.186  26.073  22.094  0.3460  0.0209  0.2676
95909W        W38900  28.728  29.587  26.988 -0.0685 -0.0205  0.1466
95910W        W38901   3.259  31.052  17.443 -0.1988  0.2868  0.1649
95911W        W38902   5.428  24.480  21.890  0.1772 -0.0329  0.1219
95912W        W38903  22.808  24.535  20.766 -0.2413 -0.1076 -0.0411
95913W        W38904  25.728  16.950  14.155  0.0720  0.0374  0.2176
95914W        W38905  19.623  10.767   9.980  0.2220  0.0061  0.0270
95915W        W38906  21.720  32.955  26.240  0.0010 -0.1406  0.0130
95916W        W38907  22.752  20.433  12.825  0.1069  0.0388 -0.2019
95917W        W38908  18.545   2.767  14.217 -0.0347  0.1890  0.0671
95918W        W38909  16.099   0.403  22.473 -0.0290  0.0254 -0.1211
95919W        W38910  12.675  15.060   8.243 -0.0340 -0.2705  0.0081
95920W        W38911  25.110   7.818  26.947  0.1707 -0.1430  0.1449
95921W        W38912  17.533   9.249  19.804  0.1065 -0.1268  0.2330
95922W        W38913  22.129  29.487  13.607  0.1678  0.1935 -0.2463
95923W        W38914   2.380  15.335  28.451  0.0528  0.0853  0.0149
95924W        W38915  24.659  26.396  13.728 -0.1630 -0.1416 -0.1235
95925W        W38916  24.359  27.402  13.293  0.1119  0.2080 -0.0141
95926W        W38917  23.803   0.707  15.683  0.1673  0.0370  0.1725
95927W        W38918  16.451  27.260  18.945 -0.1653 -0.0705 -0.2389
95928W        W38919  11.059  31.980  15.910 -0.3236 -0.1602 -0.0113
95929W        W38920   1.668  34.051  16.617 -0.0132  0.0682 -0.0264
95930W        W38921  29.249   2.274  13.418 -0.1570 -0.2105  0.0623
95931W        W38922  27.179  30.948   9.024  0.0589  0.0091 -0.2530
95932W        W38923  21.084  27.717  20.433  0.1064  0.4714 -0.2784
95933W        W38924  17.359   9.201  17.302  0.0202  0.0989  0.4731
95934W        W38925  17.165   6.560  28.689  0.0208  0.0610 -0.0442
95935W        W38926  22.014  27.247  15.120  0.1137 -0.0646 -0.1091
95936W        W38927  33.136  31.509  23.126 -0.1182 -0.0615  0.0622
95937W        W38928   1.327  33.315  19.036 -0.2027 -0.0094 -0.1757
95938W        W38929  21.314   0.828  14.685 -0.1238 -0.0303  0.2382
95939W        W38930  23.739  31.926  20.349  0.1241  0.1397 -0.1315
95940W        W38931   8.781  25.012  26.686 -0.0382  0.0066  0.0844
95941W        W38932   7.705  34.782  18.758  0.1388  0.0591  0.3207
95942W        W38933  23.525  28.587  19.591 -0.2067  0.0473  0.0662
95943W        W38934  23.664  21.250  20.952  0.1325 -0.0053  0.1387
95944W        W38935  29.550  17.130   1.427  0.2071 -0.2464  0.5476
95945W        W38936  15.134   0.836  22.651 -0.0931 -0.0555 -0.2472
95946W        W38937  25.857  18.412  14.277  0.1094 -0.2344 -0.0337
95947W        W38938  22.791  28.385  23.530 -0.1479  0.3040 -0.0748
95948W        W38939  26.473   5.615  13.719 -0.1375  0.0822  0.2721
95949W        W38940  33.328  19.946   0.915 -0.0284 -0.2902  0.1104
95950W        W38941  24.367  14.277  20.850  0.3470 -0.1516  0.0378
95951W        W38942  22.848  30.421  24.306  0.0312 -0.0715 -0.2822
95952W        W38943  10.279   3.824  21.724 -0.0723 -0.2496 -0.2305
95953W        W38944   4.007   5.513  15.091  0.1982  0.2011 -0.5348
95954W        W38945  33.180   1.974  22.053 -0.2183 -0.1638  0.1021
95955W        W38946  24.766   2.996  29.009 -0.0625  0.0104  0.1160
95956W        W38947  13.496  12.840  24.211  0.0679  0.0938  0.2483
95957W        W38948  10.351   5.583  29.084 -0.1221 -0.1040 -0.0230
95958W        W38949  29.072   2.147  14.874 -0.0108 -0.1955  0.1543
95959W        W38950  23.549  21.739  15.499  0.0946  0.0072  0.1424
95960W        W38951  15.837  33.429  17.066  0.1302 -0.0614  0.1029
95961W        W38952  30.000  29.164   5.006  0.1653  0.2496 -0.0082
95962W        W38953  13.832   9.215  17.473 -0.0642  0.1477  0.3941
95963W        W38954  13.916   0.698  15.951  0.1392 -0.2616 -0.2103
95964W        W38955  21.537  23.243  17.900  0.1340  0.0905 -0.0771
95965W        W38956  32.404  28.736  18.866 -0.0381  0.0460  0.4055
95966W        W38957  17.076  22.967  14.960 -0.0538  0.0382 -0.2271
95967W        W38958  33.969   5.461   2.899  0.1965  0.0696 -0.0633
95968W        W38959   2.062  25.926  16.675 -0.0071  0.1145 -0.0263
95969W        W38960  27.023   0.573  21.898  0.3164 -0.4696  0.4433
95970W        W38961  21.150  29.387  21.158  0.0945 -0.1490  0.2276
95971W        W38962  19.206  28.124  14.121 -0.0990  0.0010 -0.0760
95972W        W38963   8.153  21.740  27.857  0.0245  0.0096 -0.1631
95973W        W38964  33.200  18.840  19.735  0.2036  0.1286 -0.2678
95974W        W38965   9.728   2.551  15.383  0.2804  0.2002  0.1358
95975W        W38966  27.412  11.347  14.202 -0.1525 -0.1168  0.2756
95976W        W38967   4.989  33.553   0.419  0.1485 -0.1803 -0.0475
95977W        W38968   6.607  33.125  21.511  0.2949  0.0713 -0.2136
95978W        W38969  19.262   9.680  21.609 -0.0202  0.4059  0.1166
95979W        W38970  17.541  28.661  18.790 -0.1055 -0.0744  0.0739
95980W        W38971  18.772  10.380  16.209 -0.0746  0.1908  0.1677
95981W        W38972  30.002  31.391   7.609 -0.1384 -0.2338 -0.1047
95982W        W38973   0.378   0.639  27.091  0.1637 -0.1242 -0.0606
95983W        W38974  24.804   8.182  17.674  0.1411 -0.2014 -0.0404
95984W        W38975  11.415   0.046  16.132 -0.0759 -0.2238 -0.1041
95985W        W38976  26.105  17.142  17.240 -0.0579  0.1219  0.3838
95986W        W38977  13.239   4.023   2.881  0.2956 -0.2942  0.0387
95987W        W38978  29.276  16.557   0.139 -0.0366 -0.0099 -0.4121
95988W        W38979  20.088  18.406  15.763  0.0186  0.3620 -0.1189
95989W        W38980   4.497  20.721  22.906 -0.2187 -0.1310  0.2567
95990W        W38981  22.843   8.927  18.484 -0.2633  0.1665 -0.2901
95991W        W38982  27.129  29.482  17.999 -0.0003  0.0810  0.0889
95992W        W38983  17.832  25.029  24.184 -0.2244  0.3884 -0.4204
95993W        W38984  31.505   4.875   3.300  0.1109  0.4614  0.0195
95994W        W38985   9.428   4.858  18.732 -0.0778 -0.2825  0.0983
95995W        W38986  17.010  23.336  19.928  0.3423 -0.0976 -0.2232
95996W        W38987   8.531   8.525  26.626  0.1327 -0.2416 -0.1710
95997W        W38988  17.739  25.923  13.736 -0.1588 -0.1591 -0.1876
95998W        W38989   8.184   1.687  16.308  0.1380 -0.1066  0.3586
95999W        W38990   8.288  34.716  17.134 -0.1220  0.1179  0.0824
96000W        W38991  17.568  26.416  19.714  0.1768  0.4225  0.1484
96001W        W38992  21.138  12.098  23.444  0.1978 -0.0982 -0.1532
96002W        W38993  12.097   1.049  17.381  0.2616  0.2414  0.0224
96003W        W38994   9.004   1.803  26.667  0.2567  0.0361 -0.1225
96004W        W38995  33.908  19.800   3.476  0.2907 -0.1288  0.1745
96005W        W38996  34.651   4.778  19.400  0.2337 -0.3499  0.0273
96006W        W38997  22.227   1.011  17.399  0.0633  0.0171 -0.1192
96007W        W38998  25.542  23.014   6.845  0.0659 -0.1640 -0.0905
96008W        W38999  33.901  29.293  22.311 -0.3169 -0.2413  0.0312
96009W        W39000  28.153  21.851  18.882 -0.0783 -0.3840 -0.3531
96010W        W39001  22.797  29.980  13.352  0.1538  0.0214 -0.1135
96011W        W39002  20.027  22.777  15.764 -0.1901  0.0147  0.1651
96012W        W39003  33.152  21.431   2.381 -0.0727 -0.1163  0.1087
96013W        W39004  27.185  23.075  14.570 -0.0932 -0.3943 -0.1299
96014W        W39005  12.827  30.039   1.746 -0.0732  0.0783  0.0793
96015W        W39006   7.989  25.666  23.773  0.0713  0.1246  0.0456
96016W        W39007  14.470   1.731  24.391 -0.0429 -0.0425 -0.0519
96017W        W39008  16.015  21.361  13.417 -0.0292  0.1860  0.2161
96018W        W39009  21.590  25.471  14.828  0.1218 -0.0406 -0.2120
96019W        W39010  30.156   4.603  23.377  0.1230 -0.1528  0.0497
96020W        W39011  32.067  29.246  26.428 -0.1305  0.0622 -0.0558
96021W        W39012  23.400  27.535   7.485 -0.0373  0.0538 -0.3347
96022W        W39013  18.338  20.328  18.573  0.1790  0.0233 -0.1413
96023W        W39014  34.707  31.038  22.568 -0.1350  0.1729 -0.0731
96024W        W39015  18.256  11.516  21.129 -0.1123 -0.2088  0.0279
96025W        W39016   9.613   2.470  28.746  0.1028  0.0928 -0.1155
96026W        W39017  29.954  32.941  18.423 -0.1636  0.0389  0.1252
96027W        W39018  14.969   2.204  17.142  0.1168  0.0123  0.0984
96028W        W39019  22.717  29.922  18.886 -0.0024  0.0664  0.1610
96029W        W39020  20.885  31.627  13.272  0.0679  0.0207 -0.0306
96030W        W39021  25.934  33.610  20.521 -0.0629  0.0900  0.0488
96031W        W39022  23.198  26.606  17.014  0.1814 -0.0643 -0.3373
96032W        W39023   5.647  23.235  21.883  0.0215 -0.0514  0.1243
96033W        W39024  18.577  20.549  13.744  0.1120 -0.2080 -0.1178
96034W        W39025  29.288  23.137   2.050  0.0876 -0.2119  0.0211
96035W        W39026  29.313  25.219   0.630  0.1346 -0.1188 -0.1527
96036W        W39027  10.848  31.862  24.622 -0.0885 -0.1975 -0.5559
96037W        W39028  22.297  24.819  23.588 -0.2555  0.0633 -0.0685
96038W        W39029  22.056  13.492  20.850 -0.0319  0.2991  0.0690
96039W        W39030  21.265  23.053  13.678  0.3158  0.0524  0.1309
96040W        W39031   9.733  33.179  26.866 -0.2922  0.1102  0.1415
96041W        W39032  19.645  20.925  16.809 -0.0721 -0.1035 -0.0052
96042W        W39033   0.005   0.707  28.724  0.2965 -0.1960 -0.2606
96043W        W39034  30.862  30.590  27.269 -0.4615 -0.0623 -0.0491
96044W        W39035  29.257  26.196  27.326  0.0928 -0.1977  0.1247
96045W        W39036  17.140  30.683  20.645  0.0370  0.7018 -0.3667
96046W        W39037  16.340  24.084  18.355  0.0191  0.0410  0.0738
96047W        W39038   9.212  29.720  18.114 -0.1335 -0.0595  0.0160
96048W        W39039  12.525  20.923  14.448  0.0782 -0.0223  0.1811
96049W        W39040  23.761  28.145  19.545  0.0102 -0.2655 -0.1981
96050W        W39041  24.062   2.446  16.840  0.0084 -0.1107 -0.2536
96051W        W39042  27.057   2.713  24.145  0.1388  0.0232  0.0904
96052W        W39043  34.578   4.423  18.128  0.2016 -0.0020  0.0910
96053W        W39044  13.543  28.319  22.850 -0.1692 -0.0370  0.0404
96054W        W39045  27.613  32.992  24.257 -0.1779  0.1014  0.2006
96055W        W39046  33.611   3.310  24.190  0.0008  0.0615 -0.1137
96056W        W39047  29.157  31.310   6.954  0.2022 -0.2705 -0.2065
96057W        W39048  13.023  28.606  15.028  0.2533 -0.1082  0.0548
96058W        W39049  18.055   1.333  27.570 -0.1467  0.0564 -0.0015
96059W        W39050  22.358  28.020  19.524 -0.1285 -0.2049 -0.3962
96060W        W39051  14.836  22.175  22.762  0.0105 -0.1969  0.1976
96061W        W39052  16.081  13.855  14.137 -0.0143  0.1866  0.0399
96062W        W39053  12.876  11.450  11.257 -0.2672  0.1351 -0.0946
96063W        W39054  13.818  31.003  19.528  0.0613  0.1108 -0.0296
96064W        W39055  25.890   5.292  16.524  0.2401 -0.0719 -0.2403
96065W        W39056  24.140  26.540  24.609 -0.0917  0.1942 -0.0050
96066W        W39057  22.524   4.365   3.869  0.2791 -0.0287  0.2066
96067W        W39058  29.786   1.987  16.798  0.0250  0.0470  0.2269
96068W        W39059  15.367   6.507  28.026 -0.0524  0.2790  0.0614
96069W        W39060   3.380  24.957  22.625 -0.3681  0.4123 -0.0957
96070W        W39061  12.720  29.362  25.000 -0.2073  0.0394 -0.0512
96071W        W39062  24.474  32.745  15.890  0.0490 -0.0041 -0.0227
96072W        W39063  19.138  21.719  22.161  0.0694 -0.0020 -0.0389
96073W        W39064   4.228  33.860  15.197 -0.3305  0.1207  0.0034
96074W        W39065  28.592  15.684  23.666 -0.2086 -0.1860 -0.2247
96075W        W39066   7.798  18.493  26.915 -0.0693 -0.1934 -0.1003
96076W        W39067  19.198  24.087  29.165  0.2430 -0.0211  0.0126
96077W        W39068   9.326  26.480  24.695  0.4540  0.3315 -0.0982
96078W        W39069  19.655  21.866  17.863 -0.2013  0.3658 -0.2510
96079W        W39070  16.589  26.748  24.619  0.5713 -0.0638 -0.1406
96080W        W39071   8.869  25.279  15.909  0.1928 -0.0211 -0.1836
96081W        W39072  19.855  26.708  18.132  0.2910 -0.1187 -0.0524
96082W        W39073  13.621  21.261  22.974  0.0811  0.2528  0.1101
96083W        W39074  32.434   6.721  22.188 -0.2334 -0.0364 -0.3107
96084W        W39075  30.046   0.386  19.018 -0.2873 -0.0906  0.2464
96085W        W39076   8.665  33.781  22.148 -0.0128 -0.0789 -0.3117
96086W        W39077  12.112  27.557  18.796  0.0054  0.2179 -0.1277
96087W        W39078  13.090  28.495   4.704  0.2344  0.0185  0.2749
96088W        W39079  19.232  30.859   1.080  0.1592  0.1020  0.0740
96089W        W39080  21.057  24.185  19.259 -0.1491 -0.0086 -0.1098
96090W        W39081  23.648   4.831  25.290  0.1259  0.0204  0.1383
96091W        W39082  19.348   3.432  23.112 -0.1987 -0.1252 -0.0575
96092W        W39083   5.392  34.751   1.825  0.2254  0.2848 -0.2570
96093W        W39084  25.558   2.043  14.687 -0.1325  0.0058  0.3415
96094W        W39085   0.107  27.167  28.179 -0.0258  0.0806  0.0955
96095W        W39086  14.067  32.565  21.765 -0.1099  0.3581  0.2665
96096W        W39087   7.359  22.426  22.453  0.0470  0.1016 -0.0317
96097W        W39088  33.341  34.612  28.178  0.0140  0.0682  0.2319
96098W        W39089  18.868  31.451  21.395  0.0622  0.0651  0.0089
96099W        W39090  13.316  22.789  23.067 -0.0816 -0.0192  0.2170
96100W        W39091  21.981  24.134  15.885 -0.2061  0.0560  0.0117
96101W        W39092  14.632   6.131  15.844  0.2413  0.1075  0.1131
96102W        W39093  20.231  10.776  15.487  0.0437 -0.0833 -0.1852
96103W        W39094  23.530  22.961  13.370 -0.0860  0.3249 -0.1511
96104W        W39095  28.355  23.309  13.967 -0.1246 -0.1363  0.4558
96105W        W39096  21.947   2.666  27.243 -0.0866 -0.2075  0.0680
96106W        W39097  17.297  29.398  17.859  0.1014  0.3007 -0.0842
96107W        W39098  24.284  30.915  21.740 -0.0413  0.0979 -0.1832
96108W        W39099  25.065  28.427  16.023 -0.0120  0.2374  0.1017
96109W        W39100  11.315  32.451  16.056 -0.1244  0.0767  0.4144
96110W        W39101  31.274  27.694  19.953  0.1599  0.0703 -0.0124
96111W        W39102   0.079  34.386   0.127 -0.0800  0.1855 -0.0396
96112W        W39103  29.590  33.657  18.196 -0.2168  0.1277  0.3268
96113W        W39104  31.016  34.396  24.872 -0.3252 -0.0062  0.0144
96114W        W39105  32.752  21.558  20.669 -0.1999  0.1810 -0.1286
96115W        W39106  16.236  32.403   1.534  0.0190 -0.2788  0.0230
96116W        W39107   2.555   6.394  16.014 -0.0100 -0.1857 -0.1004
96117W        W39108  28.129  13.908  27.974 -0.0446 -0.0231  0.1822
96118W        W39109  19.457  25.157  19.778 -0.0345  0.1743 -0.0269
96119W        W39110   1.583  16.440  18.571 -0.0492 -0.0509  0.0736
96120W        W39111  11.654  34.387  23.146 -0.1270 -0.1391  0.0452
96121W        W39112  29.723   9.786  17.725  0.0635 -0.1998  0.0937
96122W        W39113  13.437  31.452  25.230  0.3725 -0.1376  0.0707
96123W        W39114  31.259  33.023  27.928 -0.0272 -0.1983 -0.1713
96124W        W39115   9.936  26.145  16.134 -0.4305 -0.1550 -0.0266
96125W        W39116  26.713  26.580  26.015  0.1830 -0.0257  0.1337
96126W        W39117   7.947  17.667  16.064 -0.3354 -0.1650 -0.2703
96127W        W39118  27.738   2.415  15.284  0.1701 -0.2246 -0.0272
96128W        W39119  22.107  29.423  15.915 -0.2270 -0.1201 -0.1663
96129W        W39120  30.679  31.150  17.663  0.2456 -0.1672  0.2952
96130W        W39121  31.098  23.241  16.536  0.2131  0.0935  0.0610
96131W        W39122  18.542  32.619  15.629 -0.0510 -0.0140  0.0163
96132W        W39123  29.617  26.335  14.071 -0.0056 -0.0318  0.1530
96133W        W39124  31.837   0.850  21.646  0.0816  0.1646 -0.1104
96134W        W39125  27.329  31.347  22.246 -0.1241  0.1237 -0.3660
96135W        W39126  21.059   0.527  23.147 -0.1432  0.1751 -0.2899
96136W        W39127  13.041  30.116  27.076 -0.1590  0.2072  0.0086
96137W        W39128  26.780  29.597  13.962 -0.1449 -0.3528  0.0658
96138W        W39129  29.049  32.984  17.937  0.1462  0.3681 -0.2808
96139W        W39130  14.186  33.448  14.105 -0.0763  0.1971  0.1300
96140W        W39131  31.598  22.021  25.656  0.1591  0.0514  0.2439
96141W        W39132  28.053   8.580  26.497 -0.0554  0.2451 -0.0060
96142W        W39133   8.768   7.160  20.967  0.1808 -0.0212 -0.0735
96143W        W39134   2.232  32.290  25.674 -0.1458 -0.0113 -0.1691
96144W        W39135  24.908  31.392  21.162  0.3252  0.0253 -0.0710
96145W        W39136  28.816  30.641  19.168 -0.5719 -0.0043 -0.1503
96146W        W39137  12.498  16.563  16.670 -0.0283 -0.0289 -0.0695
96147W        W39138   5.017  34.654   2.187  0.1821 -0.1502 -0.2241
96148W        W39139  33.104  20.055  18.874 -0.3672  0.1111  0.0527
96149W        W39140   0.983   1.849  26.894 -0.4223 -0.1051 -0.1687
96150W        W39141  32.929  14.818  21.079  0.1780 -0.1445 -0.0352
96151W        W39142   9.701  31.456  27.508 -0.0734  0.3060 -0.0087
96152W        W39143  17.382  29.825   5.317  0.0620  0.2278  0.3563
96153W        W39144   6.254  29.516  23.907  0.1557  0.3430  0.0662
96154W        W39145  27.474  20.157  23.264 -0.4514 -0.0209  0.2487
96155W        W39146  29.203  11.131  15.704  0.1277 -0.1868  0.1346
96156W        W39147  19.027   3.047  20.345 -0.1489  0.0028  0.1703
96157W        W39148  12.977  32.700  18.414  0.2803  0.1809 -0.1218
96158W        W39149  20.950  31.623  22.506  0.1788 -0.0847  0.4239
96159W        W39150  20.417  29.052  19.855  0.0128 -0.0774 -0.4190
96160W        W39151  18.648  22.179  12.465 -0.2441 -0.0726 -0.0669
96161W        W39152  17.175  27.784  23.242 -0.0212  0.0051  0.2353
96162W        W39153  21.581  33.842  24.066  0.0671  0.1490 -0.2231
96163W        W39154  27.014   1.338  22.383 -0.2901 -0.2299  0.3304
96164W        W39155  23.648   1.105  23.074 -0.0961  0.0657 -0.1856
96165W        W39156  20.338  13.472  22.096 -0.0918  0.0014 -0.1719
96166W        W39157  17.179   6.112  16.401  0.2647 -0.3509  0.5221
96167W        W39158  16.662   1.523  27.323 -0.5203 -0.0533 -0.0189
96168W        W39159   4.195   6.238   2.241  0.4412  0.1694 -0.0623
96169W        W39160  12.482  27.805  19.248 -0.0983  0.0893  0.2449
96170W        W39161  33.748   2.558  27.123  0.0049  0.0789 -0.1025
96171W        W39162  18.190  28.132   4.890  0.0404 -0.0712 -0.1651
96172W        W39163  23.333  27.821  23.862 -0.1325  0.0811  0.2797
96173W        W39164  11.971  32.570  15.593  0.0191  0.2669  0.1485
96174W        W39165  33.902  31.641  15.796  0.0625  0.1164 -0.1972
96175W        W39166   9.319  32.472  22.709 -0.2462  0.1596 -0.1280
96176W        W39167  13.233   5.321  20.332  0.0161 -0.2414  0.2994
96177W        W39168  17.879  32.763  20.546  0.1992 -0.0890 -0.2134
96178W        W39169  15.690  34.737   3.378  0.0397  0.0955  0.3790
96179W        W39170  15.637  33.061  20.893 -0.1311  0.0115  0.0428
96180W        W39171   0.841  28.303  17.273 -0.3264 -0.0926 -0.1271
96181W        W39172  14.384   3.300  17.005  0.4185  0.0046  0.0517
96182W        W39173  16.628  18.889  15.889 -0.1339  0.0474 -0.1388
96183W        W39174  30.509   8.120  16.185 -0.0969  0.2479 -0.1398
96184W        W39175  11.895  13.146  14.758 -0.1164  0.1120  0.2789
96185W        W39176  21.034  25.314  22.560 -0.1658 -0.0475  0.3505
96186W        W39177  24.069  25.532  14.852  0.1996  0.1615 -0.0316
96187W        W39178  11.181   0.400  15.270 -0.0818  0.1318  0.0098
96188W        W39179  29.331  21.123  28.150 -0.0058  0.2581 -0.2473
96189W        W39180   6.824   3.862  18.329 -0.1736  0.0666  0.0693
96190W        W39181   1.860  20.450   3.890  0.0557 -0.1150 -0.0291
96191W        W39182   8.809  19.536  17.164 -0.0626 -0.1174  0.4078
96192W        W39183  26.600  33.363  16.966  0.0965 -0.2971  0.0134
96193W        W39184  26.442  34.000  29.181 -0.3571  0.2357  0.3047
96194W        W39185  13.549  32.314   0.510  0.0565 -0.1471  0.1289
96195W        W39186  23.747  24.689  17.991  0.0608 -0.0502  0.4452
96196W        W39187  15.171  27.218  19.074 -0.1873 -0.0012 -0.1644
96197W        W39188  11.836   1.968  15.110  0.1747  0.1480 -0.1271
96198W        W39189   7.072   5.387  16.098 -0.1052 -0.0160 -0.0444
96199W        W39190  13.032  23.134  22.148  0.2007  0.0079 -0.2687
96200W        W39191  16.073   4.352   1.574 -0.2713  0.2864 -0.1061
96201W        W39192  29.189  27.376  16.503  0.0116  0.1280  0.1565
96202W        W39193  18.363  19.903  28.259  0.1659  0.1020 -0.0634
96203W        W39194  19.923   2.526  14.373  0.1358  0.0209  0.0548
96204W        W39195  14.085   3.122  26.832  0.1125 -0.2504 -0.1038
96205W        W39196  16.304  10.676  17.585 -0.0475 -0.1168 -0.1344
96206W        W39197  26.040   1.774  13.948  0.3843 -0.2020  0.0866
96207W        W39198  17.188  33.854  20.801  0.0534  0.0537  0.0820
96208W        W39199   4.622  21.409  17.507 -0.2333 -0.1641 -0.0996
96209W        W39200  15.849  26.101  17.728 -0.2447  0.0212 -0.1351
96210W        W39201  28.989  11.237  20.081  0.1840  0.0468 -0.0241
96211W        W39202  19.148   2.538  19.624  0.0451  0.0396 -0.0959
96212W        W39203  13.534  30.512  23.730 -0.0208  0.3646 -0.0038
96213W        W39204  17.344  32.353  23.858  0.0357 -0.0841 -0.0888
96214W        W39205  16.752   5.315  19.499  0.1589  0.0133  0.0542
96215W        W39206   7.714  14.733  20.394  0.0863  0.0674  0.0044
96216W        W39207  11.867  22.108  25.926  0.0353 -0.0274 -0.0068
96217W        W39208  22.397  31.701  22.338  0.0684  0.0872 -0.2755
96218W        W39209  25.547  31.263   1.159 -0.1846  0.0016 -0.0416
96219W        W39210  16.760  30.420  17.127  0.0223 -0.0186  0.0683
96220W        W39211   8.082  29.170  15.460 -0.0788  0.2775  0.1046
96221W        W39212  25.194   6.149  13.847 -0.4801  0.0489  0.3243
96222W        W39213   4.060  13.628  21.159  0.1005  0.0690  0.0432
96223W        W39214   7.162  30.964  28.859 -0.2403 -0.0416 -0.2637
96224W        W39215  21.802   3.320   1.628  0.1926 -0.1951 -0.1443
96225W        W39216  21.140   2.985  14.908  0.2112 -0.0197  0.3846
96226W        W39217   0.140  17.086  18.035  0.2596 -0.1329 -0.3304
96227W        W39218  25.201  30.396  20.014  0.0974  0.2810 -0.2873
96228W        W39219   3.731  26.862  19.482  0.2684  0.0354 -0.4817
96229W        W39220  21.502  24.428  22.491  0.0362  0.0924  0.0691
96230W        W39221  25.556  21.269  15.030 -0.2753 -0.0303  0.1519
96231W        W39222   0.312  31.765  17.848  0.1349 -0.1287  0.0743
96232W        W39223  25.160  33.933  15.926 -0.1509  0.1911  0.1939
96233W        W39224   4.672  33.764   2.383 -0.0107  0.0010 -0.3303
96234W        W39225  15.974  24.880  20.234  0.1525  0.3100 -0.0560
96235W        W39226  18.232  13.414   0.318 -0.0109 -0.3073  0.0249
96236W        W39227  33.992  19.868  18.199 -0.1571 -0.1118  0.0759
96237W        W39228   0.905  15.828  16.499  0.0891  0.0253  0.0834
96238W        W39229  22.539  31.237  22.411 -0.1368  0.1968  0.1991
96239W        W39230  16.506   4.358  16.920  0.1916 -0.2621  0.2721
96240W        W39231   7.695   5.780  19.458  0.1269  0.2757  0.1319
96241W        W39232   3.532   5.812  20.174  0.0091  0.5247  0.0476
96242W        W39233   9.779   4.493  22.885 -0.2736  0.3800 -0.1109
96243W        W39234   1.114  12.955  21.967  0.2887  0.3419  0.0257
96244W        W39235  13.458  31.184  18.562  0.0283  0.1956 -0.0211
96245W        W39236  10.934   0.267  23.026  0.1504 -0.1407 -0.0646
96246W        W39237   9.195  28.938  19.969 -0.0944 -0.3078  0.0737
96247W        W39238  27.988   3.245  16.584 -0.0346  0.1278 -0.3121
96248W        W39239  19.854  34.252  14.542 -0.0363  0.0355 -0.1399
96249W        W39240  30.251  32.867  17.098  0.1163  0.0207 -0.2796
96250W        W39241  13.346   1.790  14.741  0.0567  0.0914 -0.3422
96251W        W39242  19.351  22.910   1.305 -0.2388  0.1544 -0.3773
96252W        W39243  21.224  32.609   0.513 -0.2043  0.0119 -0.1871
96253W        W39244   9.971  21.631   7.971 -0.1872 -0.0091  0.2142
96254W        W39245  23.861  34.333  24.704  0.0630  0.0433 -0.0429
96255W        W39246  30.133  28.593  26.053  0.1185  0.0330 -0.0605
96256W        W39247   2.799  32.738   1.648 -0.0345 -0.1585  0.2202
96257W        W39248   7.706  33.495  19.512  0.0217 -0.2292  0.0821
96258W        W39249  18.867   0.388  20.755  0.0719 -0.1188 -0.2859
96259W        W39250  22.296   6.190  25.709 -0.0029 -0.1111  0.0710
96260W        W39251  32.691  11.238  23.585 -0.0482 -0.0369 -0.1113
96261W        W39252   4.476  29.596   6.439 -0.3709 -0.1148 -0.0267
96262W        W39253   6.371  25.466  20.862 -0.1497  0.1665  0.1265
96263W        W39254  24.808   6.143  24.772 -0.0283  0.1115  0.0944
96264W        W39255  31.365  11.821  26.298  0.0869 -0.2588  0.1597
96265W        W39256   5.666   1.475  15.252  0.1042  0.2562  0.1762
96266W        W39257  32.174  21.653  20.912 -0.1330 -0.1780 -0.1662
96267W        W39258  20.928   4.630   2.486  0.0431  0.2683 -0.0495
96268W        W39259  23.888   3.272  21.877 -0.0608  0.0322 -0.0346
96269W        W39260  22.017  26.477  23.127 -0.1405  0.0881  0.1810
96270W        W39261   5.648  21.042  21.216 -0.2822 -0.0559  0.0478
96271W        W39262  15.113   0.517  19.558 -0.0855 -0.0278 -0.0412
96272W        W39263  16.020  17.823  13.347 -0.0344  0.0103 -0.2248
96273W        W39264  14.555  24.642  26.588  0.4165 -0.0659 -0.1068
96274W        W39265   4.651   2.199  24.638  0.1639 -0.0061 -0.1193
96275W        W39266  20.811  26.067  19.064  0.0045 -0.1468  0.3353
96276W        W39267   7.206  15.905  27.519 -0.1512 -0.0802  0.2458
96277W        W39268  21.466  34.755  17.643  0.3544 -0.2636 -0.1729
96278W        W39269  18.732  13.437  16.494  0.3596  0.0155  0.1833
96279W        W39270  15.806   4.952   6.682  0.3197 -0.0809  0.0330
96280W        W39271  20.128   9.908  13.591 -0.0483 -0.1376  0.1122
96281W        W39272  31.450   3.709  27.764  0.0228 -0.1384  0.1101
96282W        W39273  19.268   0.131  14.393 -0.0155 -0.0643  0.1495
96283W        W39274  34.210  31.759  23.209  0.0424 -0.1477  0.0406
96284W        W39275  23.783  23.912  22.260 -0.0087 -0.1226  0.0839
96285W        W39276  28.679  24.613  26.638  0.0383 -0.0213  0.1249
96286W        W39277  25.861  31.354  19.841  0.3170  0.1529 -0.2718
96287W        W39278  30.934   0.591  26.972 -0.2893 -0.2797  0.2377
96288W        W39279  11.582  19.118  15.953 -0.4977  0.0664  0.3038
96289W        W39280  22.921   1.735  17.326  0.0459  0.0447  0.0204
96290W        W39281  18.587  11.312   4.609 -0.1609 -0.1695 -0.2568
96291W        W39282  22.043   3.561  20.536 -0.1718  0.1543 -0.1196
96292W        W39283  22.761   2.072  21.691  0.1275 -0.1538  0.3344
96293W        W39284  31.830  29.424  15.992 -0.2138 -0.1364  0.1184
96294W        W39285  12.273   4.633  27.426 -0.2858 -0.0798 -0.0660
96295W        W39286   6.736   4.138  22.069 -0.0959 -0.2108 -0.1182
96296W        W39287  10.287  25.171  15.686 -0.0739  0.1773 -0.1514
96297W        W39288  17.464  24.643  13.952  0.0850  0.1964  0.1366
96298W        W39289  11.867  23.775  23.443 -0.4786 -0.0632 -0.1783
96299W        W39290  17.297  33.767  24.091  0.1778  0.1817 -0.1065
96300W        W39291  22.504  32.474  24.635 -0.1192 -0.2102 -0.0501
96301W        W39292  24.202  29.665   2.834 -0.1851 -0.2846  0.0824
96302W        W39293  13.720  12.935  17.987  0.0533 -0.0324 -0.0659
96303W        W39294  25.523   8.803   3.138 -0.3114 -0.2825 -0.1623
96304W        W39295  32.499  29.485  26.141 -0.2069  0.1808  0.0281
96305W        W39296  19.252   8.935  14.961  0.0162  0.2111 -0.0572
96306W        W39297   6.928  24.476  19.876 -0.0432  0.2671  0.4349
96307W        W39298  17.226  30.369  17.954 -0.3121  0.3364 -0.1610
96308W        W39299  24.479  32.767  18.843  0.4194 -0.2691  0.2481
96309W        W39300  21.515  34.137  16.681  0.0275 -0.2541  0.0151
96310W        W39301  24.714  34.173  22.695 -0.3124 -0.2730 -0.0089
96311W        W39302  27.996   1.669  14.754 -0.3931 -0.1639 -0.0131
96312W        W39303  12.770   6.431  21.168  0.1139 -0.1085 -0.3158
96313W        W39304  31.799   1.038  24.004  0.1997  0.0612 -0.0215
96314W        W39305  27.462  23.240  16.164  0.0523 -0.0272 -0.2009
96315W        W39306  21.459  22.370  15.381 -0.1450 -0.3359  0.0228
96316W        W39307  12.792  12.937  15.276  0.2001 -0.1075 -0.0670
96317W        W39308  18.979  23.965  17.765  0.1298 -0.2941  0.3218
96318W        W39309  22.407   3.045  16.367  0.0104  0.1420  0.1464
96319W        W39310  32.635   5.549  14.938  0.5011  0.0080 -0.1278
96320W        W39311  19.193  34.142  18.958 -0.2004 -0.2440 -0.1864
96321W        W39312  28.023   6.729   2.644 -0.1866  0.1600 -0.3517
96322W        W39313  20.595   9.314  17.460 -0.0969 -0.1537  0.0593
96323W        W39314  25.156  27.550  16.235  0.0707  0.2653 -0.0051
96324W        W39315  19.283  27.922   6.268  0.2454  0.1131 -0.0073
96325W        W39316   9.224  13.377  25.358 -0.1306  0.0075 -0.2114
96326W        W39317  28.038  34.380  26.911  0.2298  0.1131 -0.0461
96327W        W39318  25.695   9.219  22.909 -0.2249 -0.1554 -0.0872
96328W        W39319  11.908   1.142  16.461  0.2379  0.1295  0.1426
96329W        W39320  17.935  32.382  13.917  0.1898  0.1141 -0.1037
96330W        W39321  27.168  24.842  18.082 -0.0757  0.2151  0.2667
96331W        W39322   9.612  24.455  17.661 -0.2009  0.1210  0.0126
96332W        W39323  30.005  21.635  18.894 -0.0286  0.2042 -0.0427
96333W        W39324   8.849  22.736  21.514  0.0183  0.3995  0.0484
96334W        W39325  12.537  31.648   2.637 -0.2595 -0.2744  0.2806
96335W        W39326  21.232   1.066  24.344  0.0368 -0.1437 -0.3248
96336W        W39327  12.106  25.504  21.849  0.0427 -0.0455  0.1481
96337W        W39328  14.581  26.509   3.099  0.0588 -0.0621  0.2380
96338W        W39329  21.767   2.393   7.976 -0.2519  0.1641  0.0340
96339W        W39330  21.778   1.249  18.188 -0.2700  0.3171  0.1378
96340W        W39331  13.746  27.725  23.613 -0.1650  0.1434  0.0341
96341W        W39332   0.029  30.401  18.029  0.0400 -0.0812 -0.0902
96342W        W39333  23.697  19.514   1.861 -0.0509 -0.0176 -0.1316
96343W        W39334  23.342  30.722  13.186  0.0617  0.0249 -0.0044
96344W        W39335  23.860   1.295  19.344 -0.3873  0.1704  0.2635
96345W        W39336  20.539   9.666  24.922  0.0308 -0.3091 -0.1398
96346W        W39337  15.100  29.182  14.674  0.5254 -0.0773  0.0879
96347W        W39338  20.653  19.203  24.248 -0.1887  0.0861 -0.0763
96348W        W39339  25.789  33.155  17.334 -0.0385 -0.3510  0.2765
96349W        W39340  20.648   7.378  26.882 -0.0096  0.0926  0.5313
96350W        W39341  21.539  28.304  13.886 -0.1564 -0.2585  0.2102
96351W        W39342  23.496   1.738  14.376  0.1225  0.2686 -0.0427
96352W        W39343  25.643  28.505  22.221 -0.0398  0.0582  0.1004
96353W        W39344  15.975   9.635  26.319  0.1668  0.0723 -0.0263
96354W        W39345   9.764  21.371  19.731 -0.0432  0.1572 -0.1022
96355W        W39346  32.950  22.641  15.164  0.1098  0.0889 -0.0665
96356W        W39347  24.269  28.095  16.985  0.2485  0.2582 -0.1244
96357W        W39348  17.634  33.754  16.706  0.2836 -0.1973  0.2946
96358W        W39349  11.580  32.433  20.261 -0.1892  0.1149 -0.3481
96359W        W39350  22.171  31.982  21.739 -0.0666  0.2823 -0.0699
96360W        W39351  34.794  22.572  21.401 -0.0998  0.0547  0.0739
96361W        W39352  25.496   1.495  23.799 -0.2369  0.0834  0.4419
96362W        W39353   4.347   6.831  20.920  0.1499  0.0423 -0.1438
96363W        W39354  26.031  23.849  22.181 -0.0065 -0.1609 -0.2256
96364W        W39355  19.723  29.889  17.834  0.0676  0.2940  0.0131
96365W        W39356  18.832  22.039  24.804  0.2308 -0.1129 -0.1559
96366W        W39357  20.828  19.911  26.235  0.1114  0.1600  0.1866
96367W        W39358  24.869  28.881  15.168 -0.0670  0.0543  0.2480
96368W        W39359  20.532  28.394  17.018  0.2375  0.0346  0.0002
96369W        W39360  23.896   1.734  15.639  0.0332  0.1715 -0.0409
96370W        W39361  19.050  30.500   2.691 -0.1499 -0.1789  0.0143
96371W        W39362  20.007   0.569  25.030 -0.3017  0.1012 -0.3049
96372W        W39363  18.067   4.015  16.122  0.0582 -0.0682  0.1723
96373W        W39364  24.651   2.911  27.803  0.1182 -0.1808 -0.2556
96374W        W39365  12.495  20.149  13.952 -0.3140 -0.2503 -0.0995
96375W        W39366   7.417   1.687  22.501 -0.0974  0.1722  0.1502
96376W        W39367   9.817  16.410  15.966 -0.1163 -0.0837 -0.2431
96377W        W39368  21.208   0.693  16.352  0.1833 -0.0938 -0.1213
96378W        W39369   4.153  26.252  15.695 -0.0779 -0.0180 -0.4227
96379W        W39370   3.673  17.733  23.383  0.0972  0.1461  0.2434
96380W        W39371  22.623  11.618  17.098 -0.1616  0.1008  0.2571
96381W        W39372  34.509   2.894  24.707  0.0078 -0.1284  0.0480
96382W        W39373  27.386  28.781  21.578  0.2065  0.0687  0.1531
96383W        W39374  25.471   7.795  13.596 -0.1442 -0.0787 -0.2916
96384W        W39375  10.893   6.343  26.887 -0.1926 -0.0939  0.0739
96385W        W39376  31.306  14.981  16.018  0.1682 -0.6415  0.2250
96386W        W39377  10.343  27.845  21.695 -0.0902  0.1996 -0.1407
96387W        W39378  30.327  33.486  13.367  0.2413  0.3123 -0.0539
96388W        W39379  26.091  10.732  21.028  0.5156 -0.0398 -0.2150
96389W        W39380   4.350   1.504   1.838  0.0596  0.0216 -0.0896
96390W        W39381  20.800  32.386  23.636  0.0339 -0.1130  0.1999
96391W        W39382  22.523  22.875   5.252  0.0631  0.0682  0.0642
96392W        W39383  24.227   0.963  15.799 -0.1200 -0.0743  0.2076
96393W        W39384   5.372  21.949  16.915  0.1117  0.1299 -0.0963
96394W        W39385  27.147   7.543  13.636 -0.3410  0.2235  0.3453
96395W        W39386  21.910  26.855  21.067 -0.1852  0.0230 -0.0588
96396W        W39387  14.547  33.821  15.364 -0.0574  0.1074  0.1279
96397W        W39388  25.703   2.879  23.524 -0.3231 -0.0872 -0.2595
96398W        W39389   9.960  18.938  20.298  0.0136 -0.1628  0.0793
96399W        W39390  26.990  32.908  27.001  0.0543 -0.0262  0.0210
96400W        W39391  25.328  23.357  17.767 -0.5194 -0.0254  0.2319
96401W        W39392  12.718  30.206  18.812 -0.1353 -0.2532 -0.0782
96402W        W39393   8.529  18.888  19.386  0.3622 -0.2689  0.3186
96403W        W39394  13.645  21.655  23.299 -0.0549 -0.1607 -0.2605
96404W        W39395  19.215   3.464  20.626 -0.0556  0.1974  0.0167
96405W        W39396  20.033   1.759   2.229 -0.0148  0.1836  0.3530
96406W        W39397  21.850   3.373  15.447  0.3683 -0.0572  0.0003
96407W        W39398  22.088   3.715  16.268  0.0932 -0.1442  0.1941
96408W        W39399  13.453  28.280   0.412  0.0281  0.3071 -0.2426
96409W        W39400  24.981   9.800  27.958  0.0314  0.0809 -0.1794
96410W        W39401  29.324   3.879   3.487  0.1650 -0.1076  0.2016
96411W        W39402  18.533   4.075  16.814  0.0480 -0.1843  0.4552
96412W        W39403   0.295  33.757  29.209  0.2460 -0.0073  0.0409
96413W        W39404  11.730   4.884   9.427  0.0479  0.1387  0.1193
96414W        W39405  26.807   6.941  14.186  0.1814 -0.0571 -0.0521
96415W        W39406  22.799  33.680  27.499  0.0685 -0.1053 -0.2533
96416W        W39407  34.729  26.547  15.943  0.3433  0.0742 -0.3136
96417W        W39408   3.890  31.917  17.832 -0.0297 -0.1988  0.2612
96418W        W39409  16.408  14.703  13.246  0.1128 -0.0842 -0.2463
96419W        W39410  25.533  28.355  16.088 -0.1530 -0.2608  0.0905
96420W        W39411  22.767  30.081   8.558  0.1480 -0.0183  0.0371
96421W        W39412  12.798  32.594  21.499  0.0121 -0.1772  0.0751
96422W        W39413  30.088  30.066  22.428  0.0032  0.2057 -0.0238
96423W        W39414  14.388  20.179  24.309  0.1252 -0.0200 -0.0244
96424W        W39415  26.531  28.062  19.307  0.2132 -0.0463 -0.1944
96425W        W39416  20.751  25.270  24.533 -0.1052  0.0456  0.1032
96426W        W39417  19.423  31.394  17.125  0.0358  0.3545  0.0740
96427W        W39418  15.068  32.674  22.207  0.0607 -0.1728  0.2466
96428W        W39419  24.270  30.618  16.958  0.0759  0.1250 -0.1765
96429W        W39420  21.851   1.777  13.296  0.0996  0.1236  0.2428
96430W        W39421  29.377   5.869  28.941 -0.1617  0.3736  0.2791
96431W        W39422  33.053   2.289   6.155  0.0373  0.0290 -0.2959
96432W        W39423  13.380  26.905   8.420 -0.0295 -0.1301  0.1150
96433W        W39424  15.977  31.457  27.229 -0.2336  0.0180 -0.0693
96434W        W39425  22.260  33.856  19.301  0.0040  0.0486 -0.1203
96435W        W39426  16.969  34.451  17.157 -0.2635 -0.0429  0.0638
96436W        W39427  28.481   4.834  19.843 -0.0653 -0.3623  0.1072
96437W        W39428  25.372  27.559  23.464  0.1481  0.1398  0.1350
96438W        W39429   5.757   0.070   0.877 -0.0273 -0.2255 -0.1111
96439W        W39430   6.035  24.463  17.293  0.1465 -0.2275 -0.3951
96440W        W39431  11.451   2.625  24.037  0.1556  0.1050  0.2218
96441W        W39432  19.756  34.351  13.935  0.0634  0.0779  0.1236
96442W        W39433   9.671  20.271  24.410  0.1100  0.1279 -0.1010
96443W        W39434   0.682  18.387  24.608  0.0520  0.0826 -0.0477
96444W        W39435  27.880   1.512  19.766  0.0075  0.1608 -0.1341
96445W        W39436  21.012  24.657  24.266 -0.0417  0.0202 -0.1713
96446W        W39437  19.346  11.010  18.126  0.4271  0.5103 -0.1637
96447W        W39438   6.388  30.509  14.956  0.1512  0.1390 -0.3353
96448W        W39439  23.460  34.015  13.481  0.3999 -0.1081 -0.2390
96449W        W39440  11.445  21.045  15.431 -0.3869 -0.1070 -0.1858
96450W        W39441  18.883   5.868  13.863  0.6129  0.1857 -0.0230
96451W        W39442  19.377  24.639  12.667  0.3804  0.2025  0.3837
96452W        W39443   0.532  31.060  28.303  0.0964  0.0390  0.0580
96453W        W39444  20.666  30.451  22.163 -0.1809 -0.0910  0.0124
96454W        W39445  29.914   5.846   6.515 -0.0146 -0.0806 -0.2126
96455W        W39446   7.969   1.656  15.451 -0.1052 -0.4407 -0.2250
96456W        W39447  30.949  27.349  14.597 -0.0695 -0.1054  0.3559
96457W        W39448  14.253   0.349  15.569  0.0753 -0.0367 -0.1897
96458W        W39449  20.055  20.987  16.370 -0.0657  0.1048  0.0371
96459W        W39450   5.200   0.117  19.238  0.0947 -0.0088 -0.0618
96460W        W39451   8.042   0.769  10.078 -0.3249 -0.1179  0.1786
96461W        W39452  16.718  16.943  16.018  0.3097 -0.1419 -0.3788
96462W        W39453  15.713  25.010  18.524 -0.2431  0.3393  0.2554
96463W        W39454  14.365  25.186  16.506  0.0763 -0.1319 -0.2012
96464W        W39455  19.167  31.538  23.636  0.1789  0.1418 -0.0388
96465W        W39456  14.386   1.396  28.732 -0.1605  0.2018 -0.0116
96466W        W39457   6.270  25.485  21.412  0.1172 -0.2734 -0.1856
96467W        W39458  14.823  17.859  15.346  0.2570 -0.1267 -0.2616
96468W        W39459  13.752  32.424  28.020 -0.0839 -0.1998 -0.0422
96469W        W39460   9.246  27.953  14.938  0.0818  0.0837 -0.0819
96470W        W39461  27.944  18.849  24.743  0.4220 -0.0304 -0.0879
96471W        W39462  16.940  23.409   0.935  0.1178 -0.0334  0.4486
96472W        W39463  20.936  31.378   6.171  0.1692  0.2321  0.0633
96473W        W39464   8.426   7.721  15.151 -0.2895 -0.1438  0.2394
96474W        W39465  31.587   9.134  14.359  0.0841 -0.0418  0.1373
96475W        W39466   7.405   9.199  22.946  0.2128  0.0520 -0.0801
96476W        W39467   0.357  33.377  25.436 -0.1063  0.0571 -0.0329
96477W        W39468  17.297   2.220  15.638  0.0811  0.0729 -0.0096
96478W        W39469  20.131  29.616   3.088  0.2320  0.1391  0.3558
96479W        W39470   7.053   5.826   5.792 -0.3162  0.1096  0.2478
96480W        W39471  28.999  21.075  14.121 -0.0941  0.0309 -0.2234
96481W        W39472  14.227  33.647   1.399 -0.1729 -0.1252 -0.4732
96482W        W39473  20.262  17.497  15.024  0.2033 -0.1972 -0.0206
96483W        W39474   8.675  31.826   6.700  0.0533  0.1111 -0.0432
96484W        W39475  24.777   3.245  17.716 -0.2579  0.1135  0.0870
96485W        W39476  26.282  32.843  19.076  0.2176  0.2481 -0.0973
96486W        W39477  11.800  20.137  22.476 -0.1163  0.0101  0.2266
96487W        W39478  29.002   2.166  20.768 -0.0669 -0.0685 -0.3010
96488W        W39479   9.459  21.839  16.616  0.1472  0.0173 -0.1687
96489W        W39480  26.885  31.455  23.887  0.3005 -0.0977 -0.0920
96490W        W39481   3.412  26.617  22.698  0.0975  0.1404  0.0756
96491W        W39482  12.274  30.009   3.640 -0.0060 -0.0309 -0.0072
96492W        W39483  24.723  29.385   8.077  0.2764 -0.0849  0.4273
96493W        W39484  11.978  33.787  20.834 -0.1652  0.1133  0.1077
96494W        W39485  21.819   0.863  22.901 -0.2514 -0.1973  0.0625
96495W        W39486  23.622  18.461  17.244  0.0107 -0.3226  0.1380
96496W        W39487  17.038   9.889  22.778 -0.2052  0.0222 -0.0871
96497W        W39488  23.131  19.517  14.219  0.1501  0.0669 -0.2529
96498W        W39489  27.762  25.793  18.307  0.2232  0.1625  0.1594
96499W        W39490  27.723  15.363  17.254  0.1564 -0.1716  0.0964
96500W        W39491  25.219  11.717  16.082  0.1042 -0.0228  0.2417
96501W        W39492  13.439   8.549   8.421 -0.0344 -0.1805  0.3156
96502W        W39493  28.295  34.463  23.877 -0.3688 -0.3519  0.1290
96503W        W39494  17.657  20.288  25.513 -0.3199  0.1457 -0.0375
96504W        W39495  30.603   2.018  14.977 -0.0905  0.1004  0.2363
96505W        W39496   7.473  14.291  24.349  0.0067  0.0152 -0.1164
96506W        W39497  20.748  21.119  13.326 -0.0760  0.1236  0.2281
96507W        W39498  31.296  23.431  19.140  0.0284  0.0881  0.1436
96508W        W39499  12.763  26.510  28.837  0.2479  0.1314  0.0161
96509W        W39500   7.509  25.494  28.286  0.2457  0.1230 -0.0787
96510W        W39501  15.023  27.715   0.637 -0.0697 -0.1376 -0.0967
96511W        W39502  22.783   3.975  20.258 -0.3984  0.0174 -0.1149
96512W        W39503  21.621  24.686  28.684 -0.0531 -0.1125  0.0964
96513W        W39504   4.830  20.183  21.724 -0.0747 -0.1718  0.3877
96514W        W39505  23.504   0.446   4.233 -0.1299  0.2543 -0.3171
96515W        W39506  11.902  21.759  18.454  0.0515 -0.0352 -0.0572
96516W        W39507  21.011   8.413  15.877  0.1048  0.3172 -0.0545
96517W        W39508   1.008  15.467   4.541 -0.0690 -0.3373  0.1125
96518W        W39509  23.425  16.085  27.322  0.1165  0.1084  0.4017
96519W        W39510  34.039   0.274  17.184  0.2898 -0.1664  0.3661
96520W        W39511  31.121  20.740  15.263  0.0830  0.1290 -0.1156
96521W        W39512  18.772  13.534  14.601  0.1334  0.2821  0.0293
96522W        W39513  23.494  22.829  14.884 -0.0112 -0.4376 -0.0583
96523W        W39514  24.537  18.793  28.998 -0.1225  0.3044  0.1584
96524W        W39515  15.617   3.600  14.960  0.0263 -0.3288  0.1912
96525W        W39516   9.054  25.441  14.959  0.5464  0.1611  0.1799
96526W        W39517  18.874  32.554   0.915  0.1164  0.1349 -0.2082
96527W        W39518  11.028  28.298  17.800  0.1466 -0.0594  0.3692
96528W        W39519  16.535  26.828  18.143 -0.0346  0.2197  0.3046
96529W        W39520  32.020   1.223  25.153 -0.1953  0.2032  0.2751
96530W        W39521  10.083   4.152  22.067 -0.1169  0.1850 -0.1293
96531W        W39522  14.461   5.065  18.880 -0.3077 -0.0043  0.0172
96532W        W39523  16.852   7.786   5.917  0.1958 -0.1415 -0.0238
96533W        W39524  15.266  27.704   7.971 -0.0478  0.0965  0.0024
96534W        W39525   7.360  28.311  19.718  0.2694  0.0179 -0.0685
96535W        W39526  10.163   1.541  16.701 -0.0734  0.2515 -0.2902
96536W        W39527  13.958  31.890  19.561 -0.1203 -0.1769 -0.0614
96537W        W39528  19.045  30.479  15.959  0.0165  0.0378  0.1556
96538W        W39529  15.213   7.914   4.760  0.1680 -0.0581  0.0233
96539W        W39530  25.839   3.633  17.371  0.2808  0.2854 -0.1121
96540W        W39531  12.045  26.790  22.465 -0.1536  0.3956 -0.2152
96541W        W39532   3.447  17.869  25.182 -0.0467 -0.0885 -0.0569
96542W        W39533  24.579   8.819   2.299 -0.0268  0.2833 -0.1511
96543W        W39534   2.526  19.621  22.785  0.2282 -0.1896  0.1801
96544W        W39535  19.999   5.723  25.102  0.3138  0.0522 -0.1474
96545W        W39536  27.757   2.182  13.358 -0.3100  0.0660 -0.0869
96546W        W39537  19.731  34.242  27.679  0.1244  0.0344  0.0281
96547W        W39538  16.380  14.328  24.980  0.1992 -0.1566 -0.1860
96548W        W39539  33.261   9.226  22.834 -0.3513  0.1631 -0.0666
96549W        W39540  30.527   1.565  28.325  0.0158 -0.0105 -0.1827
96550W        W39541  11.292  14.783  18.885  0.1469 -0.0148  0.2056
96551W        W39542  29.210   3.353  25.835  0.0539  0.1994 -0.0192
96552W        W39543  27.935  29.228  20.084  0.3309 -0.0356 -0.0672
96553W        W39544  16.300  18.887   6.619 -0.2653 -0.2783 -0.2045
96554W        W39545  20.713   5.260  18.075 -0.1582  0.3143  0.1298
96555W        W39546  12.873   1.172  15.496 -0.2471  0.0039 -0.1831
96556W        W39547   9.379   2.011  16.011  0.1207  0.2835  0.1002
96557W        W39548  22.452  26.299  18.897  0.0394 -0.0520  0.0499
96558W        W39549  30.145  33.499  16.559  0.0844 -0.1006 -0.1960
96559W        W39550  18.372  24.565   7.925  0.0168  0.0216 -0.0515
96560W        W39551  16.345   0.229  23.443 -0.0136  0.2942  0.1370
96561W        W39552  18.032   2.059  26.484 -0.3044 -0.1467  0.0423
96562W        W39553  14.037  29.900  21.624  0.0830  0.0495 -0.0340
96563W        W39554  16.977   5.822  26.003 -0.3191  0.0700 -0.1621
96564W        W39555  10.625  32.937  22.208 -0.1075 -0.0077 -0.0835
96565W        W39556  21.512  27.310  14.887 -0.1081  0.2198  0.1824
96566W        W39557  14.855  20.847  13.631  0.1369  0.4104 -0.0721
96567W        W39558  22.217   7.449   0.205  0.1129 -0.0223  0.1011
96568W        W39559  11.978  29.998  14.859  0.1806 -0.0809  0.0064
96569W        W39560   2.287  34.344   4.565 -0.1224  0.3669  0.0172
96570W        W39561  27.839  10.957   7.010 -0.1244  0.0348 -0.0968
96571W        W39562  16.970  29.386  27.582 -0.1569  0.1243 -0.0695
96572W        W39563  15.969  27.769  27.443  0.3282  0.1137  0.0030
96573W        W39564  21.465  26.541   5.104 -0.0513  0.1445  0.0639
96574W        W39565  20.780   0.645  18.874 -0.0187  0.1861  0.1327
96575W        W39566  11.930  33.720  23.840 -0.0830 -0.3066  0.1073
96576W        W39567  30.547  17.192  17.747 -0.3365 -0.1366  0.0294
96577W        W39568  19.022  18.550  12.082  0.0769  0.1921 -0.3412
96578W        W39569  15.663   1.591  26.260  0.1009 -0.1250  0.1714
96579W        W39570  23.622  28.439  24.571  0.0123  0.1157 -0.2068
96580W        W39571  24.616   1.032  18.476  0.1165 -0.3812  0.0771
96581W        W39572  21.105  15.722  16.650  0.1085 -0.1278 -0.2416
96582W        W39573  24.105   2.852  16.506  0.0294 -0.2342 -0.0283
96583W        W39574  29.123  34.323  27.273 -0.0859  0.0574 -0.5225
96584W        W39575  26.520  24.694  14.646 -0.2750 -0.0393  0.1554
96585W        W39576   4.460  24.456  16.522  0.0313 -0.1061 -0.0181
96586W        W39577  10.287   6.119  25.836  0.0865  0.1182  0.1759
96587W        W39578  20.938  32.881   1.153  0.0200 -0.2168  0.1501
96588W        W39579  29.752  32.784  27.246 -0.2089  0.1649  0.0832
96589W        W39580   5.180  32.479  17.660  0.0551 -0.0102  0.1640
96590W        W39581  23.659   0.478  22.531 -0.2111 -0.0294  0.1047
96591W        W39582  14.810   7.788  28.319 -0.2221  0.0975  0.3756
96592W        W39583  22.976  29.572  27.619  0.0668  0.2810  0.0938
96593W        W39584  12.309  21.933  19.780  0.1256 -0.2721  0.0583
96594W        W39585  25.117  33.405  15.637  0.3757 -0.0048 -0.3929
96595W        W39586  11.820   2.463  15.100 -0.1810 -0.0763  0.0254
96596W        W39587  22.100  22.244  14.575  0.1105 -0.1850 -0.4125
96597W        W39588  23.993  32.385  16.146  0.4181 -0.0345 -0.1502
96598W        W39589  10.214   9.143  25.736 -0.3461 -0.1458  0.1055
96599W        W39590  29.052  26.724  19.729  0.0049 -0.0447  0.0966
96600W        W39591   0.961  29.185  23.396 -0.1061  0.1099  0.3841
96601W        W39592   3.505  33.678   0.625 -0.1594 -0.0324  0.1755
96602W        W39593  17.499   5.778  13.931  0.3236 -0.0433  0.0065
96603W        W39594  23.243  27.173  16.267  0.2308 -0.0356  0.3037
96604W        W39595  24.742   4.727  17.036  0.2858 -0.1308  0.0330
96605W        W39596  26.485  32.941  14.945  0.1715 -0.2624  0.1586
96606W        W39597  29.881   2.753  25.537 -0.1667 -0.5981 -0.0752
96607W        W39598  22.619  31.993  15.010  0.2020  0.1150 -0.0184
96608W        W39599  21.837  27.429  17.794  0.0882  0.3555 -0.1164
96609W        W39600  26.888  26.507  19.259  0.2120 -0.2600 -0.0843
96610W        W39601  22.312  15.417  17.315  0.0479  0.1064  0.1346
96611W        W39602  22.889   1.357  16.364  0.0045 -0.0185  0.2726
96612W        W39603  19.491   0.847  18.399 -0.1495  0.2710 -0.0217
96613W        W39604   7.180   1.836   2.948  0.0680  0.1164  0.3085
96614W        W39605  34.111  31.109  16.315 -0.0560  0.4414  0.0363
96615W        W39606  28.698   2.936  14.313 -0.2610  0.0430  0.0157
96616W        W39607   8.725  33.284  23.364  0.3006 -0.2979  0.3790
96617W        W39608   0.657  24.627  18.899 -0.3026  0.0304 -0.0017
96618W        W39609   3.094   1.103  21.468 -0.2178 -0.2232  0.0427
96619W        W39610  18.100  23.005  25.527 -0.1287  0.0821 -0.4653
96620W        W39611  20.517  32.911  19.559  0.2184 -0.3912  0.0658
96621W        W39612  18.683  23.578  14.592 -0.6135 -0.0285 -0.0125
96622W        W39613  34.677  33.877   1.414  0.0515 -0.2058 -0.1686
96623W        W39614  26.413   3.791  13.840 -0.1773 -0.0084 -0.1876
96624W        W39615  30.729   5.843  17.160  0.5339  0.0869 -0.1726
96625W        W39616   6.251  17.086   1.627 -0.0363 -0.0963  0.0766
96626W        W39617  22.366  34.152   1.352 -0.1212 -0.1343  0.0629
96627W        W39618  25.122  34.700  24.534  0.0310  0.1417  0.1974
96628W        W39619  10.475  31.457  17.531  0.0007  0.0241  0.0926
96629W        W39620  25.820  31.529   8.059 -0.1254 -0.0649  0.1328
96630W        W39621  23.343  20.836  14.417 -0.4671 -0.1972 -0.2716
96631W        W39622  15.903  34.135  26.112  0.0745 -0.0324 -0.1049
96632W        W39623  22.675   0.736  12.961 -0.2570  0.4257 -0.0694
96633W        W39624  21.135   7.153  28.977  0.0208 -0.0225 -0.2770
96634W        W39625   9.965  34.552  25.045 -0.0422  0.0795  0.0850
96635W        W39626  17.971   0.756  22.104 -0.0607  0.2459 -0.0618
96636W        W39627   7.906  14.401  16.801  0.1898  0.1607 -0.1366
96637W        W39628  29.879  22.651  22.518 -0.0309  0.3326 -0.4994
96638W        W39629  13.725  26.644  26.307 -0.2763 -0.0863 -0.0562
96639W        W39630   5.923   3.326  27.841  0.0321 -0.1731  0.2868
96640W        W39631  14.721  20.949  13.047 -0.0642 -0.3358  0.1865
96641W        W39632  26.292  18.922  15.238 -0.2360 -0.0990  0.1797
96642W        W39633  27.889  29.685  19.276 -0.0897 -0.1775 -0.0031
96643W        W39634  25.166   8.074  25.592  0.1099  0.0133  0.1969
96644W        W39635  19.142  27.742  25.360 -0.0486  0.1195  0.0699
96645W        W39636   8.561   2.713   7.205 -0.1647  0.0838  0.1593
96646W        W39637   3.765  25.662  16.364 -0.0748 -0.0379  0.2285
96647W        W39638  22.885  33.822   6.703  0.0309  0.2256 -0.5142
96648W        W39639  15.162  23.815  23.490  0.1054 -0.1541  0.2963
96649W        W39640  17.918  26.127  21.911  0.2085 -0.1581 -0.0436
96650W        W39641  17.974  29.380   6.202  0.4283  0.0964 -0.3255
96651W        W39642   7.945  30.234   2.516 -0.1876 -0.0831 -0.0281
96652W        W39643   1.146  23.611   7.033  0.2408 -0.1635  0.1121
96653W        W39644   2.182  29.195  22.695  0.4779  0.2160  0.0563
96654W        W39645   5.593  28.084   0.385  0.1142  0.1133 -0.3465
96655W        W39646  14.057  27.854   9.754 -0.1285 -0.0789  0.0791
96656W        W39647  28.038  11.405  23.568  0.0056  0.0080  0.2482
96657W        W39648  12.457  32.824  25.742  0.3196  0.2596  0.0902
96658W        W39649  30.234  25.090  27.650  0.0437 -0.2250  0.0844
96659W        W39650   4.096   1.579   3.831  0.1158  0.1484 -0.3146
96660W        W39651   6.816  23.913  20.482 -0.5371  0.1422  0.3036
96661W        W39652   6.484  10.581   6.980  0.3131 -0.3153 -0.0186
96662W        W39653  25.685   2.075  17.232 -0.1637  0.2013  0.1009
96663W        W39654  26.641  33.322   4.289  0.1771 -0.1964  0.0056
96664W        W39655  14.268  27.139   8.354 -0.0419 -0.1519  0.0423
96665W        W39656   0.350  26.082  16.656  0.1349  0.0124  0.1201
96666W        W39657  12.503   8.703  22.445  0.2004  0.1227 -0.5443
96667W        W39658  27.790  33.076  19.327  0.0118  0.1546  0.0122
96668W        W39659  23.229   1.799  23.462 -0.3048 -0.3217  0.0626
96669W        W39660  19.060  23.177   7.302  0.0442 -0.0334  0.3357
96670W        W39661  19.300   1.005   8.942 -0.1776  0.0541  0.2282
96671W        W39662  21.703   7.047  26.110  0.1142  0.1247  0.3343
96672W        W39663  10.403  34.520   2.623  0.3000 -0.1437 -0.3236
96673W        W39664  22.483   5.924  28.179 -0.1407  0.0820 -0.2408
96674W        W39665  27.109  30.155  27.378 -0.3604 -0.4867 -0.0468
96675W        W39666  18.613   2.809  18.859  0.0085  0.0140 -0.4344
96676W        W39667  15.786  26.583   6.277 -0.0677 -0.3985 -0.1971
96677W        W39668  21.716   3.804  23.431 -0.1777 -0.0906 -0.0368
96678W        W39669  32.555   0.380  23.330 -0.0841 -0.2585  0.1842
96679W        W39670  15.645  25.540  21.894 -0.1187 -0.0809 -0.1314
96680W        W39671  24.803   5.832  18.533 -0.0241 -0.1947 -0.1132
96681W        W39672  12.811  14.826   7.100  0.0557 -0.2204  0.0130
96682W        W39673  28.426  16.038  26.194 -0.0411 -0.1678 -0.2748
96683W        W39674  19.041  24.722  17.151 -0.2269 -0.4331  0.0676
96684W        W39675  11.301   6.581  17.514  0.4175 -0.1317 -0.1520
96685W        W39676  21.792   7.910  28.910  0.0499 -0.0405  0.1709
96686W        W39677  24.059  17.969  17.382  0.0184 -0.2384 -0.0920
96687W        W39678   0.299   4.280  29.166 -0.1369 -0.0402  0.0651
96688W        W39679  14.532   2.702  29.072  0.0525  0.2653  0.0003
96689W        W39680  28.317  21.474   0.970 -0.0953  0.3416 -0.1408
96690W        W39681   9.620   2.825  18.434 -0.1264  0.1192 -0.1271
96691W        W39682   3.999  16.229   2.450 -0.0194 -0.3830  0.0099
96692W        W39683  27.192   5.540  20.254  0.0479  0.1304  0.2134
96693W        W39684  16.547  27.970  19.996 -0.3590  0.1447 -0.0468
96694W        W39685  15.174   6.979   3.803 -0.1458  0.5340  0.0841
96695W        W39686   4.039  25.254   5.947 -0.0966 -0.1619  0.0235
96696W        W39687  17.821   1.547  14.431  0.2524 -0.4201  0.0418
96697W        W39688  24.122  21.861   4.735 -0.2945  0.2075 -0.0594
96698W        W39689  32.274  28.256  24.051  0.0444  0.0480 -0.1425
96699W        W39690  29.606  27.001  28.838  0.1832  0.1719 -0.2527
96700W        W39691  18.636  34.338  17.056  0.0426 -0.0305  0.1914
96701W        W39692   6.282  15.231  15.654 -0.1323 -0.0674  0.2626
96702W        W39693  18.837  30.025  19.450  0.1998 -0.4631  0.2549
96703W        W39694  18.399   0.960  18.748  0.2140 -0.1065 -0.0771
96704W        W39695  19.925   5.411  14.032 -0.1069 -0.3542  0.1544
96705W        W39696   9.071   3.118   8.010 -0.0815  0.3368 -0.0818
96706W        W39697  32.077   2.516  21.326 -0.2324 -0.1154  0.0611
96707W        W39698   9.651  25.048   2.196 -0.0680 -0.2270  0.1908
96708W        W39699  11.928  29.891   2.676  0.1210  0.2809 -0.1934
96709W        W39700  27.451  25.753  17.887  0.1615 -0.1222  0.0152
96710W        W39701   6.643  17.308   7.743 -0.0607  0.2595 -0.0563
96711W        W39702  27.848   5.136   7.099 -0.0904  0.2674 -0.1014
96712W        W39703  13.116  31.681  16.292 -0.1268 -0.1901  0.1377
96713W        W39704  25.273   5.955   4.100  0.0553  0.2642 -0.1902
96714W        W39705   6.661  23.313  26.784  0.2134  0.5514  0.0508
96715W        W39706  21.770  33.615   4.746 -0.1035 -0.1457  0.2702
96716W        W39707  18.330  31.932   6.365  0.0602 -0.0318 -0.3412
96717W        W39708  15.913  13.029  21.442 -0.1848 -0.3594  0.2073
96718W        W39709  26.263  32.192  17.983 -0.0715  0.3161 -0.0744
96719W        W39710  27.263  23.737  26.874  0.4168  0.1896  0.1790
96720W        W39711  29.633   5.498  20.820  0.2046 -0.1339 -0.3211
96721W        W39712  19.768   8.561  17.369  0.1486 -0.0706  0.1801
96722W        W39713  26.882  33.984  18.110 -0.1421 -0.2816  0.0288
96723W        W39714   8.943   7.424  19.827 -0.1953 -0.0937 -0.1297
96724W        W39715   4.287  34.108  17.332  0.0644 -0.3346 -0.5420
96725W        W39716  21.394   0.420  21.614 -0.5987 -0.3105 -0.1216
96726W        W39717  22.973  19.048   2.297 -0.2357 -0.3071 -0.1461
96727W        W39718  10.527  33.766  23.718  0.1015 -0.3408 -0.0545
96728W        W39719  17.365  15.765   0.594 -0.1037 -0.5406 -0.0613
96729W        W39720  17.755  15.487  13.980  0.0161 -0.1740  0.0480
96730W        W39721  24.635  24.299  16.913 -0.2523  0.0897  0.0943
96731W        W39722  15.250  28.653   8.931 -0.0754  0.0428  0.2109
96732W        W39723  21.321   6.774  19.397  0.0576 -0.0379 -0.2107
96733W        W39724  22.802  26.358   4.706  0.0951 -0.0537  0.2048
96734W        W39725  22.042   6.951  24.665 -0.2605  0.3287 -0.0132
96735W        W39726  24.046  30.782  28.242 -0.1191 -0.2773 -0.2482
96736W        W39727   8.294   7.404  18.368  0.1433  0.0719  0.0859
96737W        W39728  26.071   4.339  19.384  0.3180 -0.4531 -0.0585
96738W        W39729  15.785   7.201   2.531 -0.1393  0.3981 -0.2842
96739W        W39730  17.676  33.238   9.209 -0.0993 -0.2187 -0.2742
96740W        W39731  21.528  25.403   6.667  0.1791  0.2034 -0.2201
96741W        W39732  14.689   9.587  24.943  0.1575  0.1589 -0.0893
96742W        W39733  16.946   6.173  25.135  0.0624 -0.0665  0.1162
96743W        W39734  20.545  32.893  28.665 -0.0001  0.1900  0.1168
96744W        W39735  10.796   0.022  23.958  0.0601  0.1277  0.0163
96745W        W39736  25.073   6.070   6.270 -0.1518  0.2696  0.1736
96746W        W39737  24.749  18.054   5.701 -0.1311 -0.1567 -0.0298
96747W        W39738  22.565  16.345  14.372  0.4749 -0.1504  0.1179
96748W        W39739  19.588  30.040  28.907  0.0598  0.4378 -0.0843
96749W        W39740  18.474  22.980  12.469  0.0042  0.0418  0.1034
96750W        W39741  18.115  34.253   1.328 -0.3309 -0.1915  0.4286
96751W        W39742  10.418   1.072  24.692  0.2806 -0.0462 -0.3677
96752W        W39743  30.142  24.484  16.719  0.0740  0.1769  0.4009
96753W        W39744  28.738   7.529   1.592 -0.2003 -0.1218  0.1912
96754W        W39745   0.917  19.172   7.958  0.1698  0.1129  0.2137
96755W        W39746  21.205  33.636  15.288 -0.3435  0.3271 -0.2141
96756W        W39747  31.834  20.741  18.539 -0.0827 -0.2235  0.2335
96757W        W39748  17.046   1.887   0.766 -0.1202  0.1839 -0.0694
96758W        W39749   7.712   4.177  25.921 -0.0071 -0.0131 -0.0311
96759W        W39750  25.976   3.238  23.681 -0.2740 -0.3979  0.3727
96760W        W39751  28.045  30.314  16.090 -0.1496 -0.1748  0.3302
96761W        W39752  26.127   5.535  14.292 -0.0277 -0.0055 -0.3612
96762W        W39753  18.798   0.487  21.681 -0.0654 -0.0671 -0.3207
96763W        W39754   6.967  13.165  20.108  0.3492  0.1696 -0.0387
96764W        W39755  23.949   0.458  25.342 -0.1216 -0.0170 -0.2951
96765W        W39756  20.721   1.066  25.070 -0.3384  0.1154  0.0640
96766W        W39757  20.037  21.176  24.120  0.0411 -0.0924 -0.0984
96767W        W39758  23.913  28.025  23.628 -0.2194 -0.1818  0.1146
96768W        W39759  18.129   2.770  21.098  0.1065 -0.0571  0.2748
96769W        W39760  18.386   4.127  24.809 -0.0260 -0.0572 -0.2094
96770W        W39761  13.626   1.579  16.688  0.1244 -0.2200  0.0882
96771W        W39762  27.388  10.955  21.465  0.1935 -0.2613  0.0417
96772W        W39763  26.913  24.783  18.757  0.2454 -0.2373 -0.3646
96773W        W39764  23.536   0.564  27.158  0.1000 -0.1511  0.0690
96774W        W39765  28.491  33.248  28.613  0.1293  0.2066  0.0057
96775W        W39766  24.474  11.460  15.715  0.4843  0.0540  0.0591
96776W        W39767  32.656  28.411  17.642  0.2437  0.1287 -0.0155
96777W        W39768  11.486  23.766  17.015  0.1157 -0.0284  0.0112
96778W        W39769  27.720  26.235  21.968  0.2698 -0.4437 -0.0223
96779W        W39770  23.773  27.626  26.894  0.3912 -0.0035  0.0381
96780W        W39771  22.439   5.229  20.585  0.1337 -0.4723 -0.1016
96781W        W39772   0.084  25.560  14.472  0.0809 -0.0723 -0.2161
96782W        W39773  17.675  29.508   4.272 -0.0094 -0.0151 -0.2677
96783W        W39774  33.762   1.764   4.292 -0.1486 -0.0290  0.0602
96784W        W39775   6.658  14.667   2.801  0.0541 -0.1293  0.2335
96785W        W39776  19.617   1.423  14.190  0.0629  0.1407  0.0851
96786W        W39777  10.019  18.610  24.339  0.1407 -0.0359 -0.2211
96787W        W39778  32.738  29.268  13.497  0.1411  0.1792  0.0196
96788W        W39779  14.921  23.217   2.397 -0.3525  0.1979  0.1477
96789W        W39780  10.791  27.748   8.486  0.0807 -0.0043  0.0929
96790W        W39781   7.069   2.663  18.831  0.4121 -0.1228  0.1637
96791W        W39782  23.403  26.336   8.119 -0.3090 -0.2204  0.1165
96792W        W39783  22.576  21.719   2.307  0.1274  0.0161  0.0388
96793W        W39784  24.836   8.735  25.560 -0.3586 -0.0304 -0.0335
96794W        W39785  15.591  29.051  21.222  0.0148 -0.4061 -0.1680
96795W        W39786   1.744   0.726   9.920  0.2395 -0.2687  0.0415
96796W        W39787  25.630   6.673  24.970  0.0108 -0.1384 -0.0506
96797W        W39788   7.105  22.608  20.631  0.2395 -0.1450 -0.2331
96798W        W39789  34.312  13.960  16.905 -0.1758 -0.3711  0.0031
96799W        W39790  29.696  33.612  16.701  0.1611  0.0519 -0.3491
96800W        W39791  19.240   7.525  26.321 -0.0877 -0.0943  0.0220
96801W        W39792  16.231  29.902  16.361  0.0354  0.0816 -0.0247
96802W        W39793  15.173  34.230  15.553  0.2391 -0.0695 -0.0025
96803W        W39794  34.119  30.133  24.098 -0.1698 -0.1870 -0.1586
96804W        W39795  15.261  32.437  26.611 -0.1614  0.0739  0.2045
96805W        W39796  15.696   2.056   1.185 -0.0189  0.2710 -0.1003
96806W        W39797  28.695   2.628  18.124 -0.0197 -0.2202  0.0542
96807W        W39798  13.983  31.536   1.612  0.0654  0.1597 -0.1798
96808W        W39799  10.042   2.343  26.854 -0.0473  0.2839 -0.0141
96809W        W39800  26.034  14.640  23.661  0.2331 -0.0376  0.0633
96810W        W39801  16.977   3.180  18.339 -0.0001  0.0549 -0.1216
96811W        W39802  23.007  14.449  14.316  0.0644 -0.0933  0.0903
96812W        W39803   1.241  20.436   2.749 -0.3427 -0.1310  0.2826
96813W        W39804  10.554   0.618  17.655 -0.1590 -0.2621  0.2606
96814W        W39805   2.223  10.411  18.267 -0.0050 -0.0324  0.2956
96815W        W39806  23.627  31.882  13.412 -0.1763 -0.0380  0.0741
96816W        W39807  22.805  29.712   6.080  0.2948 -0.1191 -0.0553
96817W        W39808  22.034   8.945  25.424  0.0420  0.1946 -0.3809
96818W        W39809  18.129  10.215  28.151  0.1201  0.0821 -0.2323
96819W        W39810  21.421   8.188  23.766 -0.1579  0.0084  0.0331
96820W        W39811  10.748  28.902   2.413 -0.0838  0.2696 -0.2050
96821W        W39812  17.214   5.707  20.865  0.0869 -0.1917 -0.0076
96822W        W39813  27.141  26.841   6.139 -0.1814  0.2011  0.4163
96823W        W39814  32.700  12.507  16.817 -0.0808 -0.0281  0.1178
96824W        W39815   8.208   1.886  26.541  0.1082  0.2046  0.0268
96825W        W39816   1.297  34.278   5.184 -0.1625 -0.0193 -0.3139
96826W        W39817   1.867  10.199   0.328 -0.3104 -0.0056 -0.0943
96827W        W39818  18.983   2.104   7.227  0.1041  0.1682  0.4953
96828W        W39819  22.042   1.232   1.274 -0.1306 -0.0188 -0.0240
96829W        W39820  24.934  13.944   1.610  0.0461  0.0581  0.1108
96830W        W39821  22.904  23.373   1.058 -0.2430  0.0635  0.0152
96831W        W39822   9.764  28.650  19.465 -0.0861 -0.0849  0.2626
96832W        W39823  21.551  23.175  21.905  0.1416 -0.0412 -0.0751
96833W        W39824  29.490  23.255  28.244  0.0768 -0.2605 -0.3853
96834W        W39825  30.200   8.094  23.943  0.0464 -0.0617  0.5363
96835W        W39826  25.666  25.111  19.476  0.0358 -0.1818 -0.2923
96836W        W39827   6.418  29.191  24.618 -0.0538 -0.0214  0.0969
96837W        W39828  16.520  31.001   8.401 -0.2178  0.0045 -0.3539
96838W        W39829  20.856  19.870  14.193 -0.0183  0.2268 -0.0588
96839W        W39830  11.823  11.678  15.505  0.1886 -0.0072  0.0945
96840W        W39831  24.667   2.424  14.827  0.1112  0.0449  0.0243
96841W        W39832  15.063   9.819  23.141 -0.1239 -0.1727  0.3537
96842W        W39833  14.113  21.898  20.153 -0.4621 -0.2490  0.2150
96843W        W39834  23.004   0.858  24.906 -0.0834  0.3059  0.2024
96844W        W39835  15.942  27.081  18.207 -0.2587 -0.0426  0.0502
96845W        W39836  20.301   1.666  26.746 -0.0019 -0.0119  0.1314
96846W        W39837  12.875  12.250  17.211  0.1721  0.0254 -0.2111
96847W        W39838  23.548   9.796   0.627  0.0671  0.2189  0.0052
96848W        W39839  19.199  32.842  23.846 -0.1819 -0.0015  0.1645
96849W        W39840  25.604  17.928   5.172  0.0174  0.0198 -0.0714
96850W        W39841  14.572  34.590   3.917  0.0392  0.0723 -0.1436
96851W        W39842  33.004   5.038  19.497 -0.0222 -0.0536 -0.3548
96852W        W39843  18.416  22.726  25.773 -0.2289  0.0764  0.1244
96853W        W39844  21.247  31.346  15.668 -0.0091 -0.0839 -0.1683
96854W        W39845   8.164  30.473  20.069  0.0248  0.1398  0.1158
96855W        W39846  10.990   0.139  20.279  0.0392  0.0746 -0.0291
96856W        W39847  22.483  26.720   5.803 -0.2281  0.2240  0.1777
96857W        W39848  13.841  14.632  26.129 -0.0119  0.1721  0.4251
96858W        W39849  22.366   7.017   2.803  0.1208  0.0552 -0.1185
96859W        W39850  15.436   4.670   2.395  0.0083  0.2756 -0.3913
96860W        W39851   1.231   4.803  14.041  0.1723  0.0435  0.0452
96861W        W39852   2.992   2.123   5.275  0.0849  0.2662  0.1085
96862W        W39853  25.511  27.744  24.685  0.0548 -0.1159 -0.1145
96863W        W39854  23.511  29.965  24.755 -0.0004 -0.2082 -0.3389
96864W        W39855  16.918  20.997   8.154  0.0439 -0.1443 -0.0349
96865W        W39856  32.297   7.937  17.965  0.2746 -0.1849 -0.1211
96866W        W39857   6.202  34.217  15.128  0.2108 -0.1495 -0.0568
96867W        W39858   1.160  29.434  22.471 -0.0315 -0.0438 -0.0994
96868W        W39859  28.507  26.048  24.827 -0.2236  0.0393  0.0170
96869W        W39860  11.824   0.554  24.776 -0.0645 -0.1399  0.2738
96870W        W39861  14.957  30.144   9.250 -0.0600  0.5333 -0.1664
96871W        W39862  16.194  23.220  21.002 -0.2264 -0.0694 -0.0427
96872W        W39863  19.372  27.035  24.048  0.2241 -0.0246 -0.4634
96873W        W39864  10.183  13.555   9.473 -0.2681 -0.2251  0.2421
96874W        W39865  11.464   5.112  14.159 -0.0908 -0.1526  0.0112
96875W        W39866  24.567   3.191  28.599 -0.0862 -0.2053 -0.1096
96876W        W39867  24.525  31.966  27.099  0.0185 -0.0544  0.0592
96877W        W39868   8.997   2.392   5.354 -0.0862  0.2840  0.0266
96878W        W39869  24.959   9.537  27.321  0.1939 -0.0118 -0.0557
96879W        W39870  12.759  10.252  15.190 -0.1061 -0.0417 -0.0138
96880W        W39871  18.020  32.828   7.681  0.1558  0.1107  0.0390
96881W        W39872  26.201  33.807  28.759  0.2179  0.1555  0.0510
96882W        W39873  12.869  31.654  15.366  0.0311 -0.4017 -0.2131
96883W        W39874  21.137  18.603   2.245  0.0231  0.2037  0.0704
96884W        W39875  16.854  11.215  14.284  0.1775  0.2903  0.2998
96885W        W39876  29.857  16.060  23.977  0.0769  0.0627  0.3639
96886W        W39877  14.164   1.941  19.979 -0.0329 -0.3744  0.0224
96887W        W39878  29.141  33.369  13.533 -0.2475  0.1497  0.1658
96888W        W39879  14.435  10.930   4.564 -0.0392 -0.3001 -0.4222
96889W        W39880  19.566  23.944  15.669  0.0818 -0.3588  0.4863
96890W        W39881  25.279  30.143  21.949  0.3601 -0.2041 -0.0408
96891W        W39882  14.841  19.934   7.506 -0.0703  0.1637 -0.1737
96892W        W39883   3.465  33.999  14.274  0.1140 -0.0493 -0.0571
96893W        W39884   0.487  28.924  18.715 -0.0393 -0.2657  0.1170
96894W        W39885   4.554  19.897  26.539  0.0864 -0.1622 -0.3613
96895W        W39886  11.291   2.076   1.655  0.1894  0.2146  0.0205
96896W        W39887  19.920   2.411  19.591 -0.1320  0.0909  0.0632
96897W        W39888  31.766  29.063  17.304 -0.1942 -0.2777 -0.1640
96898W        W39889  32.891  11.696   3.442  0.2764 -0.2086  0.0336
96899W        W39890  30.689  11.168  27.343 -0.3830  0.1745  0.3333
96900W        W39891  21.229   6.422  20.760  0.1124  0.3636 -0.1625
96901W        W39892  23.171  20.078   1.537 -0.3829  0.0450 -0.0454
96902W        W39893  11.157  15.822  22.168 -0.3597 -0.0327  0.0608
96903W        W39894  26.733  10.827   8.516  0.3255 -0.2275  0.4893
96904W        W39895  25.696  34.786   7.072 -0.1334  0.2403 -0.5911
96905W        W39896  24.686   7.543  20.148  0.1609  0.0548  0.4048
96906W        W39897   4.770  26.856  22.942  0.0615 -0.1332 -0.0675
96907W        W39898  21.699  18.337  22.630 -0.0435 -0.0091  0.0086
96908W        W39899  16.009  16.369   2.110  0.0128 -0.0264 -0.0114
96909W        W39900  21.497   9.807   0.391 -0.1061  0.3979 -0.1191
96910W        W39901  15.372   3.636  19.981 -0.2903 -0.0102  0.0192
96911W        W39902  10.983   4.599  14.204 -0.0029 -0.2530  0.1322
96912W        W39903  32.900  28.714  18.569  0.1301  0.1038  0.0357
96913W        W39904  32.260   3.810   0.830 -0.2389 -0.2161  0.0620
96914W        W39905  27.890  27.063  28.071 -0.1763  0.2566  0.0324
96915W        W39906  21.495  27.118   0.327 -0.1539 -0.1015  0.2117
96916W        W39907  26.359  28.590  23.674  0.1198 -0.2654  0.3995
96917W        W39908  24.432  18.785   5.106 -0.1875  0.0956 -0.2701
96918W        W39909  26.055  29.647   5.551 -0.2385 -0.2024  0.0605
96919W        W39910  27.983   3.051  19.786  0.0317  0.3459 -0.1237
96920W        W39911  16.997   9.983  15.757  0.0002  0.0632  0.3593
96921W        W39912   6.854  27.820  15.010 -0.0564 -0.3153 -0.5026
96922W        W39913   8.014  10.520  25.898 -0.0081 -0.2191  0.1029
96923W        W39914  29.754  32.082  20.543  0.0041  0.0042 -0.1883
96924W        W39915  18.121  32.688   5.376 -0.2260 -0.1998 -0.2478
96925W        W39916  22.667  30.053  28.687 -0.1492 -0.0016  0.0579
96926W        W39917  19.449  26.322  28.844 -0.0198 -0.2026 -0.2006
96927W        W39918  20.418  26.053   6.379  0.0889  0.1929  0.0698
96928W        W39919  14.179  12.108  15.838 -0.1343  0.0894 -0.1564
96929W        W39920   0.825  28.328   8.389 -0.1164  0.1065  0.0062
96930W        W39921  22.535   9.486  21.138  0.2069  0.0882  0.1515
96931W        W39922   4.935  21.915   3.517 -0.0838  0.0625  0.2057
96932W        W39923  19.919  11.830  14.245  0.2903 -0.1500  0.4063
96933W        W39924  28.848  17.876   3.948  0.2656  0.0341  0.2083
96934W        W39925  21.345   2.631   6.289  0.1951  0.0230 -0.1635
96935W        W39926  11.288  32.274  18.535 -0.1824  0.3459 -0.0712
96936W        W39927  12.416   1.194  19.428  0.1772 -0.0019  0.0506
96937W        W39928   6.237  33.521  21.446 -0.2890  0.1995  0.1199
96938W        W39929  20.019  21.567  18.484 -0.0575  0.1182 -0.2679
96939W        W39930  14.553  30.074   6.731 -0.2965 -0.3980  0.0125
96940W        W39931  24.783  28.686  17.860 -0.0519  0.0743 -0.0585
96941W        W39932  26.602  30.950  27.728 -0.1141  0.1314  0.1913
96942W        W39933  14.197  28.565  23.444 -0.0213  0.1708 -0.0815
96943W        W39934  12.695  10.100  26.863  0.1374 -0.0569  0.0955
96944W        W39935  13.080  20.656  20.772 -0.1890 -0.0783 -0.5194
96945W        W39936  29.039  32.952  19.014  0.0621  0.0225  0.1504
96946W        W39937  13.906   6.810  20.729 -0.1928  0.2861 -0.0552
96947W        W39938   7.588  13.004   6.983  0.1811 -0.1146 -0.1579
96948W        W39939   4.197   0.908   0.582 -0.0297 -0.0436  0.2859
96949W        W39940  18.672   1.214  23.676 -0.0602 -0.0494 -0.0728
96950W        W39941  21.251  12.472   3.200  0.0832  0.1030 -0.2627
96951W        W39942  14.000   6.347  21.000 -0.0089 -0.0655  0.1226
96952W        W39943  17.501   1.325  20.642 -0.0547 -0.0650 -0.0225
96953W        W39944  23.436   0.591   6.957  0.1071 -0.2257 -0.2822
96954W        W39945  16.611  27.370  13.971 -0.0681  0.0292 -0.3025
96955W        W39946  18.604  32.544  16.099 -0.0014  0.0535 -0.0941
96956W        W39947  23.348  30.744  17.108  0.2352  0.3299  0.0450
96957W        W39948  28.572  33.220  14.090  0.0946 -0.2068 -0.2099
96958W        W39949  20.423  33.117  21.687  0.0783 -0.4476 -0.0907
96959W        W39950  18.100  26.148   1.951  0.0284 -0.0016 -0.0781
96960W        W39951   9.425   5.036  17.323 -0.1186 -0.3065  0.0935
96961W        W39952  19.732  27.958  13.767 -0.1007  0.0443 -0.0876
96962W        W39953  31.992  34.073  23.250 -0.0064 -0.0631  0.4498
96963W        W39954  26.683  25.866   3.411  0.1236  0.0064 -0.0433
96964W        W39955  29.258   6.252  18.478 -0.2993 -0.2584 -0.2114
96965W        W39956  22.035  34.559  28.765  0.1384  0.2192  0.0237
96966W        W39957  12.522  30.527  20.169  0.0668  0.0488  0.0828
96967W        W39958  25.284   2.186  23.262  0.2163 -0.3831 -0.3077
96968W        W39959  33.967   3.881   9.370 -0.3502  0.2125 -0.0163
96969W        W39960   4.238  30.624   8.708 -0.1371  0.0755 -0.2708
96970W        W39961  26.541  19.681  21.127 -0.2772 -0.1861  0.1272
96971W        W39962  28.080  23.783   7.681  0.2389  0.3922  0.1389
96972W        W39963  14.716  29.512  27.188  0.0481  0.3570  0.0694
96973W        W39964  21.831  30.256  13.466  0.4001  0.1777 -0.3760
96974W        W39965  23.560  25.247  15.733  0.1661 -0.1124  0.0607
96975W        W39966  25.169   7.262  27.476 -0.0119 -0.0002  0.0270
96976W        W39967  17.809   0.483   7.637  0.0755  0.1167  0.0287
96977W        W39968  15.923   9.106  10.000 -0.1428  0.0348  0.3848
96978W        W39969  14.032   1.728   2.069  0.2479  0.1182  0.1236
96979W        W39970  31.547  28.947   8.623  0.1071 -0.2390 -0.1351
96980W        W39971  22.167   9.764  14.094 -0.0576 -0.0897 -0.1923
96981W        W39972  14.824  33.897  16.757 -0.1012  0.1502 -0.0732
96982W        W39973  16.481   1.159  24.110  0.0355 -0.0121 -0.2341
96983W        W39974  32.294  34.606   8.108  0.2529  0.0150  0.2497
96984W        W39975  21.362   3.822   3.728 -0.1091 -0.1059 -0.1014
96985W        W39976  11.895  33.754   9.235 -0.2291 -0.0515 -0.5271
96986W        W39977  14.769  34.542  16.360  0.1459 -0.0421  0.0230
96987W        W39978   4.956  22.642  22.097  0.0399 -0.0152  0.2878
96988W        W39979  17.440  33.023   8.650 -0.1526 -0.0047 -0.4150
96989W        W39980  19.723   5.960  15.780 -0.2189  0.0112  0.1902
96990W        W39981  20.591  11.426  16.184  0.1885 -0.2886  0.1217
96991W        W39982  18.778  31.470   2.035  0.0246 -0.0771  0.0910
96992W        W39983  30.400  13.051   4.939  0.2397  0.0389  0.2674
96993W        W39984  22.589   1.380   6.725  0.1523 -0.1899  0.3120
96994W        W39985   3.157   3.318  27.883 -0.0848  0.2099 -0.0362
96995W        W39986  21.391  16.620   3.408 -0.1228  0.0658 -0.0788
96996W        W39987  20.441  26.202  13.329 -0.4058 -0.1378  0.0240
96997W        W39988  19.022  31.905  16.975 -0.2915 -0.0377  0.1153
96998W        W39989  28.278   2.841  25.271  0.0176  0.3047 -0.0704
96999W        W39990  20.072  23.696  20.436  0.1037  0.0958 -0.0889
97000W        W39991  26.658  20.860  26.290  0.0652  0.1287  0.3330
97001W        W39992   0.975  28.975  21.290  0.1491  0.5132  0.0947
97002W        W39993  21.708   4.440  28.260  0.1593 -0.0409 -0.1706
97003W        W39994  22.234  16.145  22.725  0.1905  0.0324 -0.1170
97004W        W39995  32.367  33.210  25.303 -0.2250  0.3002  0.2784
97005W        W39996   2.405  28.715   5.545 -0.1956 -0.2370  0.0570
97006W        W39997  20.408   6.679  23.136  0.0549  0.1989 -0.0235
97007W        W39998  12.656  27.770  20.288 -0.2659  0.0630 -0.1055
97008W        W39999  10.593  26.665  15.255  0.1347  0.0371 -0.0538
97009W        W40000  29.357  16.075   3.805  0.1481  0.2289  0.2023
97010W        W40001   9.507   2.884   0.397  0.0746 -0.2807 -0.2136
97011W        W40002   6.415  29.083  19.241 -0.2531 -0.0836 -0.0959
97012W        W40003  10.261  31.268   7.067 -0.3135  0.1401 -0.1158
97013W        W40004   7.017   1.313  24.555 -0.1056 -0.0746  0.1990
97014W        W40005  22.219   8.439  25.463  0.2552 -0.0334 -0.2601
97015W        W40006  19.625  32.979  28.334 -0.0246 -0.0528 -0.3015
97016W        W40007  21.034  34.750   0.667 -0.5084  0.1941  0.1470
97017W        W40008  15.093  20.438  13.493  0.0227  0.0191  0.1718
97018W        W40009  16.399  33.506  18.561 -0.0617 -0.2121 -0.1111
97019W        W40010  30.798   1.306  28.666  0.3370  0.1843  0.0442
97020W        W40011  17.090  32.307   0.717  0.0358  0.1228 -0.1545
97021W        W40012  27.085  12.445   1.528  0.0316 -0.2509  0.1568
97022W        W40013  13.054  32.377   6.636  0.1370  0.1070  0.0685
97023W        W40014  31.132  24.648  24.660  0.0988 -0.0687 -0.2465
97024W        W40015  19.241   1.210  28.393  0.0758  0.1062 -0.0754
97025W        W40016   6.656  22.719  15.338  0.0576  0.2208 -0.4035
97026W        W40017  25.035   3.376  14.295 -0.0822  0.0456  0.0778
97027W        W40018  11.262   4.035  19.150 -0.0353 -0.1273 -0.0018
97028W        W40019  23.444  27.268   4.478  0.0218  0.1557  0.2549
97029W        W40020  23.760  15.835   3.126  0.2998  0.1462  0.0806
97030W        W40021  31.737  32.349  15.069  0.3397  0.1592  0.3047
97031W        W40022   1.301   6.509  19.855  0.2815  0.0681  0.2543
97032W        W40023  12.153   4.942  21.585  0.0208 -0.0501 -0.3136
97033W        W40024  27.761  14.758  22.704 -0.0574  0.1807 -0.4035
97034W        W40025   5.881   1.134  24.851 -0.1813  0.0537  0.2403
97035W        W40026   2.147  29.322  17.687  0.2516  0.0246  0.0428
97036W        W40027  27.594  33.756   2.535  0.0585  0.0366 -0.0517
97037W        W40028  33.807   6.535  21.778  0.4655 -0.4254 -0.1273
97038W        W40029   4.925  29.349  24.595  0.0534 -0.0905 -0.0985
97039W        W40030  29.653  28.908  28.369  0.2339  0.1307  0.0843
97040W        W40031  14.687  24.653   0.709 -0.0818  0.2625  0.3193
97041W        W40032   7.695  17.995   1.969  0.0038 -0.2018 -0.0774
97042W        W40033  18.592  32.005  24.853 -0.0185  0.1401  0.0264
97043W        W40034  33.921  31.121  21.232  0.0915  0.1184  0.2937
97044W        W40035  13.037  18.784  21.806 -0.1357  0.2003  0.0449
97045W        W40036  33.867  20.492   8.086  0.2298  0.1936 -0.2955
97046W        W40037  24.780   1.063  21.129 -0.1526  0.1609 -0.4027
97047W        W40038   0.656   8.802  27.428 -0.0829  0.1585  0.0514
97048W        W40039  30.379  25.427  17.141 -0.1191  0.0270  0.3649
97049W        W40040  12.809  29.467  21.523 -0.0938  0.0181 -0.1531
97050W        W40041  10.224  17.329  23.678  0.1089  0.2205 -0.0861
97051W        W40042  25.392   2.925  22.209  0.1324  0.0700  0.1469
97052W        W40043  17.708  29.574  22.879  0.2868  0.2090  0.1344
97053W        W40044  24.604  33.154   0.528 -0.0935 -0.2331 -0.1987
97054W        W40045  11.585  19.964   5.218 -0.0300 -0.0560  0.0416
97055W        W40046  27.254   0.886  20.875  0.2038  0.0341  0.0426
97056W        W40047  32.987  22.320   1.103  0.0235  0.0109 -0.3549
97057W        W40048   7.648  27.812  19.378 -0.2096 -0.1226  0.1035
97058W        W40049  18.022  10.378   4.173 -0.3893  0.1645 -0.0968
97059W        W40050  29.701  26.482  22.669 -0.0582  0.0916  0.2682
97060W        W40051  32.769  30.665  25.580  0.1151 -0.1163 -0.2858
97061W        W40052  24.773   6.347   6.551 -0.2832  0.0648  0.2640
97062W        W40053  16.734  30.840   3.586  0.1477 -0.3068  0.2901
97063W        W40054  20.833  28.731   8.278 -0.1034  0.2622  0.3568
97064W        W40055  17.904  16.091   4.373  0.1802  0.2127  0.0716
97065W        W40056  21.821   3.730  20.139  0.0467 -0.5598  0.0396
97066W        W40057  20.818  29.302   5.265  0.0957  0.2433  0.0552
97067W        W40058  23.531   4.300  14.763  0.2750 -0.0495 -0.4001
97068W        W40059   8.767  18.857  16.800 -0.2007  0.0197 -0.1317
97069W        W40060   1.584  13.884  24.925 -0.0556 -0.1106  0.1582
97070W        W40061  26.153   1.616   0.543 -0.2039  0.0820  0.1568
97071W        W40062  18.813  31.052   1.651  0.0990  0.1222  0.0714
97072W        W40063  14.673  31.414   2.220  0.1361 -0.1514 -0.0435
97073W        W40064  17.950  22.260  27.497 -0.1887 -0.0150  0.1810
97074W        W40065  21.479   0.120  23.000 -0.1541 -0.2553  0.0725
97075W        W40066  32.939  27.021  28.381  0.2752 -0.0303  0.1373
97076W        W40067  22.872   7.079  28.486 -0.0867 -0.0777 -0.0716
97077W        W40068  14.905  30.862  14.304 -0.1799 -0.4527  0.2364
97078W        W40069  16.527  10.935   3.603 -0.0136  0.0891  0.1625
97079W        W40070   9.759   6.366  21.921  0.2842 -0.3039 -0.1853
97080W        W40071  11.064  28.293  23.850  0.0730 -0.0916 -0.0920
97081W        W40072  10.539   3.865  25.208 -0.2851 -0.2011 -0.1453
97082W        W40073  26.502  26.420   3.880 -0.0896 -0.0826  0.2817
97083W        W40074  34.681  16.376  23.887  0.2234  0.1488 -0.3040
97084W        W40075  19.025  25.976   1.956  0.0807  0.1090 -0.1557
97085W        W40076  27.494   4.053   4.298 -0.2180 -0.1499  0.2916
97086W        W40077  21.957  10.849   8.598  0.1268 -0.0901 -0.1056
97087W        W40078  17.838  17.872   2.332 -0.2797  0.0662  0.0436
97088W        W40079  24.244  29.342  21.876 -0.2174 -0.4700 -0.2344
97089W        W40080  25.564  17.232   2.220 -0.3169  0.2677  0.1149
97090W        W40081   5.877  31.221  23.932 -0.1821 -0.0241 -0.1500
97091W        W40082  20.814   1.574  25.172 -0.0194 -0.0343 -0.0259
97092W        W40083  18.107   0.652   9.170  0.1180 -0.0403  0.0668
97093W        W40084   3.669  31.292  24.381 -0.1912 -0.1333  0.1645
97094W        W40085  29.530   9.659  28.168 -0.0397  0.2173 -0.3808
97095W        W40086  34.498   7.360  18.287  0.3836 -0.3871  0.0686
97096W        W40087  27.161  20.751  16.762 -0.1997 -0.2042  0.1400
97097W        W40088  22.379  17.980  28.073 -0.0709 -0.2413  0.1180
97098W        W40089  16.669  21.964  28.336  0.0543  0.0323 -0.1462
97099W        W40090   9.846  25.777  22.583  0.1472  0.3610  0.1995
97100W        W40091  26.700  13.562   1.928  0.5133 -0.0464 -0.0162
97101W        W40092   5.220  34.225   7.876  0.1553 -0.0223 -0.2228
97102W        W40093   7.589  10.763  26.874 -0.3461  0.0977 -0.1529
97103W        W40094  27.730   8.912  27.672 -0.4576 -0.3181 -0.0382
97104W        W40095  31.307  32.516   8.097 -0.0751 -0.0180 -0.1501
97105W        W40096  26.816  25.523  21.421 -0.2459 -0.2730 -0.4288
97106W        W40097  18.621  21.918  20.167 -0.1573 -0.0886 -0.0309
97107W        W40098  23.530  19.076   6.521  0.3761  0.0382  0.0162
97108W        W40099  26.806  16.731   9.884  0.2209 -0.0919 -0.0239
97109W        W40100  20.307  16.217   5.567 -0.2991 -0.0437  0.1745
97110W        W40101  19.568  12.790  25.155 -0.3183  0.1121  0.2827
97111W        W40102  12.519   2.710   9.354 -0.4490 -0.1748  0.1444
97112W        W40103  19.419  29.912   3.502  0.3325  0.0065 -0.1789
97113W        W40104   4.524  29.958   8.676  0.0695 -0.2762 -0.2059
97114W        W40105  23.875  24.057  19.970 -0.0621 -0.1483  0.0022
97115W        W40106  20.155  25.188   7.917 -0.0888  0.1680  0.0224
97116W        W40107   7.738   1.032   3.601 -0.0425  0.3187 -0.2025
97117W        W40108  10.028  21.045  23.915 -0.2273  0.2069  0.0033
97118W        W40109  19.992  31.663   1.189 -0.1797  0.0357 -0.0726
97119W        W40110  19.148  31.533   8.017 -0.0605 -0.2187  0.0820
97120W        W40111  32.174  28.808  20.287 -0.3062  0.3717 -0.1994
97121W        W40112  12.256  11.165  20.682 -0.2854  0.4073 -0.3198
97122W        W40113  20.699  26.127   1.612 -0.1089  0.0503  0.1900
97123W        W40114  26.857  29.323  18.830  0.1855 -0.1372 -0.0013
97124W        W40115  19.138  18.529   5.749 -0.2378 -0.1352 -0.1096
97125W        W40116  33.156  28.301  24.892  0.1227  0.0104 -0.1120
97126W        W40117  25.460   1.868  20.057  0.3350  0.4844 -0.2560
97127W        W40118  16.305  23.271   1.127  0.1593  0.0530  0.1650
97128W        W40119  15.937  22.129  28.134  0.2830 -0.0723  0.0434
97129W        W40120   1.596  30.545  28.515 -0.3867  0.0515  0.3618
97130W        W40121  24.489  20.448   6.225  0.2617 -0.0455 -0.1059
97131W        W40122  31.627  26.055   5.460 -0.2438  0.2962 -0.1630
97132W        W40123  27.015   9.133  10.264 -0.1341  0.0196  0.1241
97133W        W40124  20.435  20.363  14.994  0.0321  0.0468  0.1457
97134W        W40125  13.543  21.464   7.853  0.0204 -0.2126  0.1995
97135W        W40126  29.377   4.166   3.067  0.0946 -0.0830  0.0571
97136W        W40127   9.513  24.696  20.587  0.0264  0.1492 -0.1528
97137W        W40128   1.696  18.103  19.076 -0.1859 -0.0543 -0.3251
97138W        W40129  24.541  22.889  20.013  0.1734 -0.0227  0.1183
97139W        W40130   4.266  16.430   7.158 -0.0936  0.0244 -0.1721
97140W        W40131  23.204  22.434  23.358 -0.1067  0.0475 -0.1279
97141W        W40132   6.705  27.282   0.780 -0.4029 -0.1391  0.2051
97142W        W40133  19.069  18.536   2.948  0.0219  0.0001  0.0129
97143W        W40134  29.321  22.588   1.493 -0.2016  0.0650 -0.2250
97144W        W40135  14.415  22.824  19.391 -0.2979 -0.2206 -0.0079
97145W        W40136   6.449  27.021   3.569  0.0197 -0.1578  0.1895
97146W        W40137  32.072  27.198   2.520  0.2367  0.0293  0.0205
97147W        W40138  32.959  25.617   6.058  0.0489 -0.1605  0.0334
97148W        W40139  12.336  13.931   1.498 -0.4122 -0.1111 -0.2141
97149W        W40140  15.337  28.351  15.318 -0.1479 -0.0185  0.1290
97150W        W40141   8.424  23.322   8.134  0.1204  0.1038  0.1815
97151W        W40142  23.544   1.066   7.880  0.3063 -0.1397 -0.0104
97152W        W40143  13.083   0.276   2.977 -0.1339  0.0114  0.0164
97153W        W40144  11.941  33.701  25.492 -0.2406 -0.1400 -0.3042
97154W        W40145  20.304  28.286  22.546  0.0048  0.0738  0.0122
97155W        W40146   9.574  23.772   7.614  0.1531  0.1790  0.4262
97156W        W40147   8.125  18.388   7.921  0.2033  0.1889  0.1688
97157W        W40148  27.789  17.999   8.895 -0.4020  0.0885  0.1921
97158W        W40149  18.566  23.205  22.995  0.1725  0.2549  0.2053
97159W        W40150  22.511  34.107   4.419  0.2282  0.0325 -0.1006
97160W        W40151  32.920  28.083   3.820 -0.1001 -0.0257  0.0584
97161W        W40152  20.765  10.087   2.432 -0.0893 -0.0033  0.0571
97162W        W40153  23.396  25.801   6.086 -0.2120  0.0608 -0.2023
97163W        W40154  27.002  22.545   8.396  0.0589  0.0745  0.0457
97164W        W40155  33.448  19.854  26.129 -0.0213 -0.0040 -0.0103
97165W        W40156  24.194  33.638  15.547  0.1782  0.1889 -0.0476
97166W        W40157  18.181   5.361   1.455  0.0611 -0.0978  0.3815
97167W        W40158  29.521  27.181   3.064  0.0484  0.0560  0.0235
97168W        W40159  24.495  27.659  29.075 -0.2709 -0.0628 -0.1063
97169W        W40160  23.026   6.907   9.655 -0.0471 -0.1876  0.0241
97170W        W40161  32.768   7.473   6.901  0.3815 -0.0390  0.1789
97171W        W40162  15.550   2.454   8.690 -0.1357  0.0430  0.2203
97172W        W40163  22.363  27.951   8.268  0.4012  0.1866  0.3790
97173W        W40164  33.295  27.694   8.014  0.1427 -0.2625  0.1504
97174W        W40165  21.096  26.323  25.146  0.1651 -0.1684  0.2834
97175W        W40166  26.172  15.545  19.080 -0.2773 -0.1279 -0.3957
97176W        W40167  13.705  11.865  26.920  0.3377  0.2643 -0.1684
97177W        W40168  25.030   5.864  14.206  0.3266 -0.0572  0.0625
97178W        W40169  25.233  27.565  26.703  0.0689 -0.3989  0.3164
97179W        W40170  21.637  34.723  17.064  0.1366  0.1462  0.1649
97180W        W40171  29.101  17.852   2.285 -0.1335 -0.0767 -0.0929
97181W        W40172  22.615   5.196  18.035 -0.1251  0.1486 -0.2013
97182W        W40173  24.603  33.024  19.927  0.2857  0.1658  0.0305
97183W        W40174  25.111   8.280   6.393 -0.1275  0.1032 -0.2629
97184W        W40175  21.901  16.521  24.567  0.1241  0.3230 -0.2079
97185W        W40176  21.808  31.511   3.672  0.2332  0.0469 -0.0133
97186W        W40177   6.476  31.259  23.058 -0.1048  0.4165  0.0554
97187W        W40178   9.341   6.694  24.907  0.0260  0.1102  0.1690
97188W        W40179  10.003  30.317   0.788  0.4727 -0.4865 -0.1453
97189W        W40180  14.666   2.721  24.137  0.0943  0.0262  0.1637
97190W        W40181  25.649  28.125  18.893  0.0524 -0.1558  0.1533
97191W        W40182  26.511  11.037  20.312 -0.2561  0.0814  0.3324
97192W        W40183  34.415  24.394   2.379  0.2900  0.2060 -0.2218
97193W        W40184  13.936  15.975  14.988  0.3098  0.0759 -0.0074
97194W        W40185  19.123  14.590   5.548  0.0119  0.1393  0.0004
97195W        W40186  25.075   1.448  27.899 -0.0699 -0.1234  0.0166
97196W        W40187  23.574   9.143  19.503  0.2026 -0.0950  0.1434
97197W        W40188   1.597  33.017  23.334 -0.1858  0.1166  0.0568
97198W        W40189  24.027   6.916  22.121 -0.0734 -0.2253 -0.1761
97199W        W40190  30.222  32.410  28.865 -0.0327 -0.0977 -0.2102
97200W        W40191   4.315  12.258  28.737  0.3379 -0.2819  0.0620
97201W        W40192  12.847  21.000   8.521  0.0978 -0.0765 -0.1429
97202W        W40193  23.137   5.406  17.293 -0.1564  0.1201 -0.3132
97203W        W40194  15.469  12.018  29.018 -0.1746 -0.2130 -0.1594
97204W        W40195  20.170  25.461  22.768 -0.2329 -0.4051 -0.2361
97205W        W40196  19.957   8.600  28.840 -0.1642 -0.0573 -0.3908
97206W        W40197  23.382  30.928  24.841  0.0508 -0.3515  0.0025
97207W        W40198  17.367  23.660   0.074 -0.0497 -0.4281  0.0123
97208W        W40199  13.401  34.154   3.379  0.1257  0.2188  0.1477
97209W        W40200  16.083  26.376  17.399 -0.0795  0.3346 -0.2703
97210W        W40201  20.934  34.407  26.321 -0.2658 -0.0547 -0.0222
97211W        W40202  28.970   0.050  26.977  0.0912 -0.0094 -0.0534
97212W        W40203  14.797   4.800  15.589  0.0078  0.0476 -0.2463
97213W        W40204  18.544  28.347   8.496  0.0494  0.2206  0.1041
97214W        W40205  31.946  23.147  16.424 -0.2052 -0.0402 -0.0078
97215W        W40206  24.258  14.749   4.988  0.1491  0.0432  0.3595
97216W        W40207  10.565   9.834   0.697 -0.0515 -0.2553  0.2148
97217W        W40208  34.113   4.112   4.495 -0.0246  0.3620 -0.0332
97218W        W40209  26.918   8.325  25.099 -0.1064 -0.2197  0.1510
97219W        W40210  19.289   1.637  16.242 -0.1491  0.3600 -0.2598
97220W        W40211  25.298  26.419  19.713 -0.1231  0.0269 -0.0626
97221W        W40212   2.806  22.423  22.432 -0.0420  0.2369  0.3126
97222W        W40213  20.777  25.312   9.220  0.1149 -0.0668  0.1646
97223W        W40214  31.626  28.177  14.324 -0.0862  0.2808  0.0360
97224W        W40215   9.008   8.525  26.940 -0.1826  0.3202  0.1761
97225W        W40216  21.625  30.725  27.588  0.2588  0.1849  0.0685
97226W        W40217  30.287   5.992   6.160 -0.1291 -0.2379  0.0347
97227W        W40218  27.772   7.085  24.210  0.0523  0.1002 -0.0189
97228W        W40219  11.547  21.013  24.962  0.0891 -0.0574 -0.0545
97229W        W40220   4.446  18.121  24.509  0.0959  0.1614 -0.2326
97230W        W40221  20.979  32.612  24.158  0.0457  0.0398 -0.0905
97231W        W40222  20.281  23.055  14.971  0.4154 -0.4815  0.0124
97232W        W40223  19.130  17.536  27.699  0.0230 -0.2985  0.0778
97233W        W40224  21.865  13.981  15.028  0.0105 -0.0525 -0.1081
97234W        W40225   9.645  31.790   4.484 -0.3297  0.0519  0.1723
97235W        W40226  12.174  31.861  20.152 -0.4090  0.0249 -0.2371
97236W        W40227  21.137   0.016   2.300  0.1762 -0.1965 -0.2231
97237W        W40228  13.430  19.418  17.058 -0.0102  0.3013 -0.0088
97238W        W40229  32.129   4.120  24.300  0.0589 -0.1294 -0.4047
97239W        W40230   8.817  17.999   3.545  0.0950 -0.1295  0.0479
97240W        W40231  20.595   7.163   2.986  0.0278 -0.1668 -0.1189
97241W        W40232  12.083  12.172  24.288  0.2198 -0.0751  0.0412
97242W        W40233  29.013   0.760   5.732 -0.1972 -0.0710 -0.0985
97243W        W40234  25.576  14.752  27.048  0.3102 -0.0068  0.2761
97244W        W40235  30.026  22.336   4.233 -0.2328 -0.2648 -0.0321
97245W        W40236  25.695  24.901   4.825  0.2586  0.0639 -0.0481
97246W        W40237  17.938  10.514   4.663 -0.5186  0.0966 -0.3728
97247W        W40238   0.930  28.490   7.078  0.0831 -0.0729 -0.0028
97248W        W40239   9.016  26.781  29.133 -0.2876  0.2078  0.0721
97249W        W40240   9.775  24.310  18.484  0.0861  0.1379 -0.1162
97250W        W40241  18.925  25.636   2.444 -0.0270 -0.1225  0.0010
97251W        W40242  18.505  22.800  25.267 -0.2369  0.0105 -0.0632
97252W        W40243  25.573  30.336  22.347  0.2676 -0.1786 -0.2663
97253W        W40244  26.516   4.411  21.819  0.0572  0.0690  0.1398
97254W        W40245  23.822  31.217  24.856 -0.1954 -0.3085 -0.0281
97255W        W40246  27.730   3.565  24.228 -0.0804 -0.2048 -0.1931
97256W        W40247  16.639   3.076   7.147  0.1085  0.0136 -0.0778
97257W        W40248  16.241  26.781  26.684  0.2570  0.2647  0.0557
97258W        W40249  32.884   9.083   6.506  0.1456 -0.5368 -0.0091
97259W        W40250   9.658  24.267  13.960  0.0638 -0.0214  0.1912
97260W        W40251  19.990  30.371   6.191  0.1002  0.2841 -0.1282
97261W        W40252  21.312  21.094   6.332  0.4780  0.1243 -0.0254
97262W        W40253  16.010   3.437   4.408  0.1060  0.1490  0.1708
97263W        W40254  17.673  11.360  17.680 -0.0950  0.1039  0.0368
97264W        W40255  16.391  25.352   1.224 -0.1327  0.0808  0.0817
97265W        W40256  22.111  22.508  26.286 -0.0924 -0.3262 -0.0322
97266W        W40257   0.583   4.959   3.440  0.0465  0.2129 -0.0502
97267W        W40258  11.157  17.561   7.511  0.3181 -0.3237  0.1846
97268W        W40259  27.543  17.839  29.131 -0.1069 -0.1512  0.1796
97269W        W40260  27.649  24.273  14.791  0.3505  0.0492  0.0499
97270W        W40261  24.263  21.072   2.277 -0.3594  0.0884  0.0311
97271W        W40262   7.736   2.835   6.113 -0.2061 -0.0941 -0.1356
97272W        W40263  21.862  26.177   1.378 -0.3244 -0.0314 -0.1782
97273W        W40264  22.995   1.810   4.705  0.0547  0.1717 -0.0380
97274W        W40265  27.635  10.706   3.192 -0.0055 -0.2407 -0.1841
97275W        W40266  22.030  32.238   2.821 -0.4632 -0.3401 -0.0661
97276W        W40267  22.530   7.797   7.553 -0.1223  0.0673 -0.0728
97277W        W40268  15.696  23.143   7.556 -0.0625 -0.4142 -0.0503
97278W        W40269  30.721  24.216   7.753 -0.3094  0.2044  0.2711
97279W        W40270  24.269  27.252  24.252  0.0327 -0.0524  0.1499
97280W        W40271   2.705  12.705  29.159  0.0464  0.0272  0.1659
97281W        W40272  20.252   6.331   5.121 -0.3265  0.0049  0.0932
97282W        W40273   5.545  32.744  23.050 -0.1548  0.1466  0.4691
97283W        W40274  17.220  18.905  12.890  0.2945  0.0339  0.0606
97284W        W40275  25.522  21.294  23.589 -0.0141 -0.5148 -0.3432
97285W        W40276  19.425  11.531   8.710 -0.3698 -0.1585  0.1384
97286W        W40277  20.132  34.733   2.222  0.0276 -0.0954  0.2202
97287W        W40278  26.225   6.448  15.508  0.1390  0.3168  0.1628
97288W        W40279  13.280  10.165  23.002  0.2283  0.1246 -0.1634
97289W        W40280  10.802   3.161  15.862  0.2535 -0.1761  0.1044
97290W        W40281  31.387  32.712  28.352 -0.0300 -0.1128  0.2315
97291W        W40282   9.653  27.418  22.316  0.0130 -0.3784  0.0409
97292W        W40283  23.793  28.764  17.079  0.0178  0.1360  0.0326
97293W        W40284   2.851   7.161  22.210  0.1786 -0.0114  0.2148
97294W        W40285  26.216  24.310  14.775  0.2753  0.0772 -0.3255
97295W        W40286   4.150  30.281   6.215 -0.0404 -0.2518  0.0472
97296W        W40287  13.477  22.642  21.644 -0.0747  0.2801 -0.0405
97297W        W40288   9.329  26.332   5.521 -0.3502  0.0892  0.1558
97298W        W40289   7.061   0.989   7.242 -0.3771  0.2506 -0.2592
97299W        W40290  18.326   1.441   5.465  0.0363  0.1557 -0.0656
97300W        W40291   4.207   2.001   7.226 -0.0504 -0.0597 -0.1168
97301W        W40292  23.006   9.786   3.557  0.1118  0.1842 -0.2056
97302W        W40293  22.698   0.869   4.712 -0.0923  0.0001 -0.1170
97303W        W40294  20.873  22.770  13.410 -0.1313 -0.0296  0.3068
97304W        W40295  31.625  22.157   4.470 -0.2418 -0.1692  0.1355
97305W        W40296  14.430  19.770  17.344 -0.0298  0.1185  0.0871
97306W        W40297  18.105   6.478   0.959  0.4575 -0.0745 -0.2796
97307W        W40298  20.133  17.673  15.497 -0.4940 -0.0799 -0.1011
97308W        W40299  28.589  10.980  20.824  0.0227  0.1177  0.2020
97309W        W40300  15.539  14.365  26.429 -0.1169  0.2664  0.0989
97310W        W40301  21.580  11.084   2.266 -0.0233  0.2231 -0.4838
97311W        W40302  20.056  30.897  29.021  0.3069  0.1586 -0.1480
97312W        W40303  20.592  21.583   2.376  0.1510  0.1196 -0.1347
97313W        W40304  24.397  25.332  26.474 -0.2207 -0.0036 -0.1341
97314W        W40305   6.739  20.523  16.634 -0.2103 -0.0308 -0.1128
97315W        W40306  16.221  28.905   2.918 -0.1095  0.1307 -0.1326
97316W        W40307  33.665  20.539  17.570  0.1084 -0.2203 -0.2199
97317W        W40308  18.556  18.787  27.894  0.2109  0.2774  0.2898
97318W        W40309  17.257  28.838   3.634  0.0368  0.3093  0.1550
97319W        W40310  30.408  34.790  16.960  0.2409 -0.0919 -0.0600
97320W        W40311  30.438   6.207  26.539 -0.0045  0.1008 -0.1841
97321W        W40312   8.737   9.760  10.820 -0.1253 -0.2513 -0.1901
97322W        W40313  24.570  10.681  21.728  0.0417 -0.0906 -0.0561
97323W        W40314  26.353   3.124  26.961  0.0446 -0.0684 -0.0078
97324W        W40315  21.426  22.366  20.686  0.0846 -0.3540  0.0307
97325W        W40316   5.146   7.616   2.703  0.3289 -0.2778  0.3506
97326W        W40317  12.721  20.017  22.153 -0.0468  0.0284  0.0645
97327W        W40318  15.704  26.892   0.734  0.1410 -0.0777 -0.1586
97328W        W40319  10.140  24.669   1.006 -0.0021  0.1661  0.2997
97329W        W40320   2.607  33.275  24.148 -0.0840 -0.0375 -0.2946
97330W        W40321  18.484  34.073  25.335 -0.1111 -0.3592 -0.0688
97331W        W40322  16.939  15.001  13.886  0.1047  0.3009 -0.1471
97332W        W40323  19.070  24.496  26.161  0.2022  0.2261  0.0794
97333W        W40324  25.495  30.355  22.870  0.1222  0.0580  0.1333
97334W        W40325  29.255  27.533   6.741  0.0478 -0.3683  0.0081
97335W        W40326  19.549   1.284   3.839  0.0548 -0.4330  0.0091
97336W        W40327  22.001  24.309  25.254 -0.0161 -0.0943 -0.3813
97337W        W40328  25.852   5.120  25.878  0.1698  0.2301  0.0687
97338W        W40329  26.923  31.080   4.672  0.0837 -0.0051 -0.5589
97339W        W40330  13.528  29.219   7.734 -0.2331  0.0600 -0.0752
97340W        W40331  24.640  30.242  26.767  0.1803  0.2269  0.3658
97341W        W40332  25.384  17.129  25.373 -0.2966  0.1507 -0.0126
97342W        W40333  29.102  33.227   4.196  0.1293 -0.2538 -0.2311
97343W        W40334  22.145  19.255  25.582 -0.0308  0.0845  0.1850
97344W        W40335  33.581   3.301  10.529  0.1244  0.2286 -0.0891
97345W        W40336  13.001   8.100   5.884  0.0133 -0.3513  0.2145
97346W        W40337   8.651  27.138   3.999  0.0606 -0.2402  0.0209
97347W        W40338  24.136  17.886  23.851  0.5923 -0.3558  0.0473
97348W        W40339  21.336  24.094   2.519 -0.1037 -0.1492 -0.0935
97349W        W40340  28.987   9.516   6.772  0.1264  0.4264  0.0476
97350W        W40341  22.371   2.031  24.479 -0.0178  0.1342 -0.2121
97351W        W40342  27.937  24.990  26.703 -0.1678 -0.0879  0.2363
97352W        W40343  12.424  28.692  22.005 -0.0731  0.1422 -0.3924
97353W        W40344  23.511  17.443  28.352 -0.3985 -0.1676 -0.0139
97354W        W40345  20.150  25.834  24.231  0.1911 -0.1328  0.2186
97355W        W40346   7.112   3.215   9.315 -0.0768  0.0270 -0.1264
97356W        W40347   3.178   4.632  25.664  0.1144  0.0483  0.5000
97357W        W40348  30.140   0.380   3.152 -0.0825  0.2958  0.1512
97358W        W40349  17.404  26.559  24.926 -0.0664  0.1309  0.1605
97359W        W40350   9.684  33.624  25.526 -0.0331  0.1745  0.0278
97360W        W40351  12.899  25.330  25.348  0.0642 -0.0942  0.2313
97361W        W40352   4.199  24.311   4.392 -0.1052  0.4161  0.1546
97362W        W40353  30.328  29.061   8.054 -0.1321  0.0595 -0.0382
97363W        W40354  24.916  20.212  27.857 -0.0461 -0.0421  0.4660
97364W        W40355  14.823  34.170  17.433  0.4179 -0.2936  0.2615
97365W        W40356   9.269  20.859  28.209  0.0748 -0.1655  0.4042
97366W        W40357  30.935   4.685  25.704  0.1821 -0.1699  0.0343
97367W        W40358   5.561  16.993  25.078  0.0411 -0.1290 -0.1488
97368W        W40359  18.674   8.089  20.434  0.1740 -0.1476 -0.4224
97369W        W40360  17.657  27.667   0.858 -0.1872 -0.4081 -0.1725
97370W        W40361  30.793  31.985  26.156  0.3405  0.2537 -0.1239
97371W        W40362   7.258   3.213   4.842 -0.1834  0.0388  0.0796
97372W        W40363  11.460  23.404   2.689 -0.1049 -0.2631  0.1553
97373W        W40364  21.600  30.684  21.116  0.0249  0.2357  0.3562
97374W        W40365  20.132   3.744   5.438 -0.0712 -0.3152  0.1228
97375W        W40366   4.097  26.259   1.316  0.1946  0.0661 -0.0233
97376W        W40367   2.988  27.707  25.725 -0.0049 -0.0408 -0.0644
97377W        W40368   1.954  22.266  20.212  0.2691  0.1978 -0.0638
97378W        W40369  17.558  10.698  15.872 -0.7568  0.1469  0.1580
97379W        W40370  14.985  10.562  28.022 -0.1779 -0.2859 -0.0130
97380W        W40371  10.776  24.598  28.433  0.0749 -0.0555 -0.2100
97381W        W40372   4.942   2.395  28.225 -0.2748  0.0057  0.2450
97382W        W40373   7.384  31.245  19.173  0.0952  0.2260 -0.1242
97383W        W40374  11.204  22.403   0.790 -0.1663 -0.0654 -0.1322
97384W        W40375  31.333  23.450   2.199 -0.2822 -0.4457  0.2354
97385W        W40376   0.218   7.009  22.222 -0.0162 -0.0734  0.1150
97386W        W40377  19.749  33.968   0.434 -0.1454 -0.1967 -0.1046
97387W        W40378  27.114  21.620  21.334 -0.2504 -0.0076  0.0233
97388W        W40379   5.847   3.070   4.230 -0.0258 -0.4010  0.3987
97389W        W40380  18.963  11.018   2.862  0.0409  0.0425 -0.1301
97390W        W40381  11.625   2.247  26.206  0.0420 -0.1441 -0.1489
97391W        W40382  19.968  33.768  25.546 -0.0260  0.1707 -0.2746
97392W        W40383  15.221  19.360   3.361  0.0955 -0.2405  0.1897
97393W        W40384  17.394  28.715   6.259 -0.0448 -0.1261  0.3075
97394W        W40385   8.179  29.711  28.221  0.1325  0.2017 -0.2121
97395W        W40386  20.852   8.144   0.929 -0.0099  0.2723  0.1962
97396W        W40387  12.015   7.987   6.027 -0.2125 -0.1149  0.0846
97397W        W40388  22.194  18.473   3.789 -0.2710 -0.0558  0.2150
97398W        W40389  28.283  33.386  21.728  0.4314  0.0622 -0.0790
97399W        W40390  10.991  29.373   6.205  0.0565  0.0126 -0.2842
97400W        W40391  20.512   2.351   9.985  0.2113 -0.3062 -0.3404
97401W        W40392  14.891   6.138  16.729 -0.1608  0.0222 -0.0368
97402W        W40393  30.993   9.445  22.205 -0.0906  0.1405 -0.1502
97403W        W40394  12.822  25.088  14.236  0.0748  0.0389  0.2745
97404W        W40395  27.385  27.572  26.340 -0.0390  0.0271 -0.0995
97405W        W40396  12.300   3.644   3.828  0.2146 -0.2532 -0.1968
97406W        W40397  26.755  29.602  28.831  0.2301 -0.1063  0.2060
97407W        W40398  21.043  11.659   3.712  0.1339  0.1543 -0.3153
97408W        W40399  28.965  18.367   0.209  0.0929  0.0709 -0.2597
97409W        W40400  16.135   7.013  17.571  0.0383  0.2435  0.0314
97410W        W40401  27.642   1.940  20.983 -0.0427  0.2618 -0.1331
97411W        W40402   2.315  30.191   4.312 -0.1130  0.2463 -0.1927
97412W        W40403  31.520   5.466  27.011 -0.0341 -0.0394 -0.0586
97413W        W40404  20.542  25.133  20.168  0.1651 -0.2889  0.2965
97414W        W40405  31.617   2.378  15.429 -0.0552 -0.2874  0.0948
97415W        W40406  14.670  31.065   7.478  0.0012  0.2411  0.2177
97416W        W40407  15.061  26.975  16.398 -0.0789 -0.1067 -0.1967
97417W        W40408  14.030  18.214  14.589  0.0340 -0.0913  0.2405
97418W        W40409  10.519  25.569  15.416  0.4453 -0.3622  0.1121
97419W        W40410  34.247  17.156  19.197 -0.1221 -0.1740  0.0273
97420W        W40411  25.385  31.920  28.193  0.2613  0.1642 -0.1577
97421W        W40412   6.754  30.345  18.517  0.1795 -0.2240 -0.1575
97422W        W40413  11.016   5.349   9.757  0.0351  0.1239 -0.1649
97423W        W40414  32.883  33.506  28.137 -0.1609  0.1376 -0.0725
97424W        W40415  14.349  34.150   3.791  0.2210 -0.0308  0.2920
97425W        W40416  12.247   1.226   2.602 -0.0462  0.0582  0.0983
97426W        W40417  23.008  26.439  20.291  0.1338  0.3200 -0.0964
97427W        W40418  22.042  34.179   0.919  0.0836 -0.1827 -0.2567
97428W        W40419  30.220  13.702  19.661  0.2258 -0.1442 -0.2594
97429W        W40420  24.537  15.132  17.542  0.0662 -0.1038 -0.0019
97430W        W40421  27.270  27.807   8.298 -0.1191  0.2926  0.0321
97431W        W40422  18.166  21.984   6.679  0.1144 -0.2469  0.1868
97432W        W40423  16.911  30.397   0.418 -0.1551 -0.1369 -0.0772
97433W        W40424  14.507  30.698  25.950  0.4075  0.0062  0.3265
97434W        W40425  30.946  13.505  25.129  0.1324 -0.0764 -0.3955
97435W        W40426  28.907  26.289  13.485 -0.0076  0.1036 -0.1745
97436W        W40427  22.533  30.831   1.562  0.0168 -0.2205 -0.3045
97437W        W40428  16.651  27.968   7.987 -0.1391  0.4226  0.0689
97438W        W40429  17.666  25.810   7.166  0.0197  0.0209  0.1375
97439W        W40430  28.997  32.437  19.041 -0.0220  0.1036 -0.1860
97440W        W40431  27.505  28.604  27.475  0.0338  0.1244 -0.1679
97441W        W40432  23.502   1.661   8.465 -0.0856  0.0670 -0.2766
97442W        W40433  28.351  15.392   3.374  0.0468 -0.1544  0.0037
97443W        W40434  13.243  28.697  24.711 -0.0347 -0.3640  0.1252
97444W        W40435  23.664  23.712  25.466  0.0718 -0.0734 -0.0982
97445W        W40436  14.835   8.763   2.097  0.1177 -0.2225 -0.1489
97446W        W40437  30.921  11.572  15.393 -0.1842 -0.0894  0.0673
97447W        W40438  23.150  20.275  26.551  0.2341  0.0035  0.1607
97448W        W40439  21.800  13.987   6.116 -0.3827 -0.2827 -0.2695
97449W        W40440   5.629  18.767  22.669 -0.4798 -0.2587 -0.0123
97450W        W40441  16.512  20.837  20.026  0.0293  0.1393 -0.3699
97451W        W40442  26.603  23.235   9.374  0.4147  0.0465  0.0886
97452W        W40443  11.062  26.790  27.348  0.1985  0.0347  0.2365
97453W        W40444  13.835  15.052  14.598 -0.0972 -0.3464 -0.1057
97454W        W40445  20.682   1.198  21.108  0.1514 -0.2650 -0.1114
97455W        W40446  16.414  12.818   7.156 -0.1097  0.2273  0.1625
97456W        W40447   3.067   0.634   7.467 -0.0739  0.0896 -0.0531
97457W        W40448   8.964  12.516  20.386  0.1065 -0.3018 -0.2396
97458W        W40449  13.469  18.851  21.548  0.0304  0.2051  0.0799
97459W        W40450  12.274  21.689  18.079  0.0417 -0.1521  0.0405
97460W        W40451  23.838  14.954  22.477  0.0126  0.0226  0.4752
97461W        W40452  17.949  33.670  28.367  0.1846  0.2089 -0.0362
97462W        W40453  12.716  20.380  16.215 -0.0092  0.0843 -0.2075
97463W        W40454   5.810  34.347  19.962  0.2321  0.1663 -0.1012
97464W        W40455  24.124  26.328   6.125  0.1649  0.1534  0.1862
97465W        W40456  21.350  24.963  28.928  0.1141  0.1037 -0.1199
97466W        W40457  22.626  32.490   6.549  0.0005  0.1804  0.3183
97467W        W40458  14.808  16.493   8.477  0.0592 -0.1058  0.0682
97468W        W40459  32.023  15.300  21.564  0.0606  0.0845  0.1059
97469W        W40460  15.411  30.525  18.260  0.0646  0.1673 -0.0082
97470W        W40461  26.024  33.173  15.107  0.1622 -0.1632 -0.0116
97471W        W40462  21.039  32.035   1.772 -0.2980  0.0314  0.1341
97472W        W40463  15.232  16.087  27.442  0.1185 -0.1331 -0.0998
97473W        W40464  20.624  26.272  26.150  0.0018 -0.0788 -0.0554
97474W        W40465  11.329   4.026   4.901  0.2982 -0.2600  0.1778
97475W        W40466  13.426   0.500  22.647  0.3283  0.1885 -0.1612
97476W        W40467  24.821  14.090  16.068  0.0398  0.0875  0.1886
97477W        W40468  34.473  16.104   4.657  0.0041  0.2477 -0.3331
97478W        W40469   4.085  25.271   0.512  0.0362 -0.0774  0.1719
97479W        W40470  21.131   4.271   2.216  0.1463 -0.1635 -0.4030
97480W        W40471  27.624  20.409   4.234 -0.1210 -0.0367  0.0199
97481W        W40472  17.997  11.981  20.950  0.0030  0.0188  0.0133
97482W        W40473   1.778  13.765   9.542  0.0786 -0.2598 -0.1941
97483W        W40474  24.372  13.605   6.600 -0.0939 -0.2707  0.1457
97484W        W40475  28.294  26.806  13.336  0.0055 -0.1982 -0.0543
97485W        W40476  19.976  29.898   4.805  0.0275  0.0131 -0.1810
97486W        W40477  11.762  27.230   6.617  0.0692  0.2278  0.1585
97487W        W40478  28.546   7.287   8.315  0.2527 -0.0598 -0.0070
97488W        W40479  24.952  26.255   8.754 -0.1997 -0.5156 -0.0013
97489W        W40480  17.404  33.800  26.220 -0.1139  0.2544  0.1716
97490W        W40481  19.952  12.845   7.558  0.2214 -0.1386 -0.0945
97491W        W40482  18.446   1.570   4.497  0.0091  0.5162 -0.0498
97492W        W40483  18.889  24.276  18.765 -0.1174 -0.1631 -0.2990
97493W        W40484  12.344  27.345   3.362 -0.1060  0.2303  0.5690
97494W        W40485  30.647  29.763  26.337 -0.0372  0.2152 -0.0351
97495W        W40486  26.934   4.923   9.547  0.0907 -0.1721  0.1024
97496W        W40487  30.411  30.255   6.353  0.0369 -0.1293 -0.2192
97497W        W40488   9.331  28.232  24.524  0.3213  0.0583  0.2827
97498W        W40489  19.380  22.833  23.094 -0.0398  0.2584  0.3751
97499W        W40490  23.189  20.546  28.931  0.2192  0.0821 -0.3868
97500W        W40491  23.715  31.849   1.162  0.5036  0.0241 -0.1858
97501W        W40492   7.437  28.994  27.921  0.1228  0.1894 -0.3127
97502W        W40493  22.207  34.262  24.096 -0.1316 -0.1149  0.1037
97503W        W40494   8.742  33.523   5.693 -0.2228 -0.1750 -0.0387
97504W        W40495   9.546  15.778  28.993 -0.1311  0.0980  0.0468
97505W        W40496  11.629  18.216  17.569  0.0947  0.3712  0.0660
97506W        W40497  11.606  32.929   8.073 -0.3656  0.3358 -0.0089
97507W        W40498  12.397  12.802  14.997  0.1363 -0.0599 -0.1295
97508W        W40499  24.512  32.873   5.538  0.0105 -0.0623  0.1545
97509W        W40500  19.394  32.336   9.426 -0.0551  0.3018  0.1711
97510W        W40501  26.222  32.562   7.828  0.0930  0.1263 -0.0616
97511W        W40502  31.813  19.090  14.822 -0.2732  0.2159 -0.1814
97512W        W40503   1.354   9.256  15.838 -0.1445  0.1726  0.0302
97513W        W40504  14.340   1.933  16.407  0.1807 -0.1451 -0.1220
97514W        W40505  26.632  20.991  24.192  0.3098 -0.0143 -0.1906
97515W        W40506   6.545  26.502   8.368 -0.3056  0.1370 -0.0337
97516W        W40507  20.540  19.438  16.333 -0.3087  0.0428  0.2292
97517W        W40508  14.403   5.098  25.090  0.1433  0.0221  0.1501
97518W        W40509  22.756  30.235  14.908 -0.2235 -0.1958  0.2397
97519W        W40510  17.510  24.388  17.018 -0.2156 -0.1638  0.3214
97520W        W40511  23.872  30.160  22.463  0.0165 -0.0641 -0.0477
97521W        W40512  24.227   2.233  23.822  0.1421 -0.0580  0.0318
97522W        W40513   7.021  34.101  26.888 -0.0489 -0.1323 -0.2155
97523W        W40514  20.133  33.620   5.551  0.0801  0.1429 -0.4840
97524W        W40515  19.693   3.056  24.231  0.1436  0.0214 -0.1607
97525W        W40516  29.667  14.385  28.364 -0.0304  0.1416 -0.0619
97526W        W40517  26.807   6.084   8.276 -0.3012 -0.1456  0.0160
97527W        W40518  21.772  30.336  22.849  0.0024  0.1352  0.0592
97528W        W40519  28.312  31.074  16.591 -0.0553 -0.0545  0.0809
97529W        W40520  14.520  34.145  21.831  0.0211  0.0754  0.0138
97530W        W40521  18.472   1.578  16.913 -0.1573  0.1899  0.0909
97531W        W40522  26.630  19.638  26.743 -0.2211  0.1174 -0.1185
97532W        W40523   9.527  24.908  14.737 -0.2692 -0.1185  0.2690
97533W        W40524  28.472   3.745  18.488  0.0261 -0.0389 -0.2762
97534W        W40525  26.462   1.547  21.641  0.1591 -0.2641 -0.2339
97535W        W40526  17.145  22.236  15.424 -0.0291  0.3416 -0.0177
97536W        W40527  24.173  32.037  28.188 -0.0518  0.2085 -0.0682
97537W        W40528  25.685  14.523  18.273  0.1740  0.1538  0.0598
97538W        W40529  24.538   3.239  20.694 -0.2750  0.3168 -0.0454
97539W        W40530  17.120  28.889  18.338  0.0689 -0.2630 -0.1793
97540W        W40531  15.276  28.600  26.302 -0.0272  0.0203 -0.2735
97541W        W40532  30.667   3.542  13.614 -0.1866  0.2138  0.1439
97542W        W40533  19.535  26.774  25.048  0.0491  0.0839  0.1234
97543W        W40534  25.767   0.037  21.453 -0.0445 -0.3659  0.0810
97544W        W40535  19.864   4.878  22.998 -0.1510 -0.1518  0.0444
97545W        W40536  29.038  33.052  22.213  0.1428  0.2750 -0.0706
97546W        W40537  11.168  20.142  25.763  0.1571  0.1464  0.0539
97547W        W40538  15.086  31.084  19.067  0.2653 -0.0197 -0.2075
97548W        W40539  28.166   0.499  13.510  0.3541  0.2261  0.0185
97549W        W40540  34.444  30.059   5.879 -0.0194  0.0405 -0.3806
97550W        W40541  21.135  33.926  13.846  0.0355  0.0262  0.1048
97551W        W40542  23.681  27.667  17.459 -0.2632 -0.2066 -0.0001
97552W        W40543  10.353   9.688  24.265  0.0630 -0.1493 -0.0601
97553W        W40544  15.784  26.619  14.676 -0.2253 -0.1448 -0.1589
97554W        W40545  20.714  10.098  25.138  0.1994 -0.1294  0.0819
97555W        W40546  31.701  29.934  20.392 -0.1335  0.0721 -0.2180
97556W        W40547  13.516  23.112  14.160 -0.0664 -0.0894  0.0734
97557W        W40548  12.206  32.931  27.396  0.0418  0.0045  0.1882
97558W        W40549  33.820  14.778  19.944 -0.2045  0.0428  0.1869
97559W        W40550  19.817  33.242  17.470  0.0176  0.2164  0.3366
97560W        W40551  19.366  18.761  22.983  0.2042 -0.1893 -0.0197
97561W        W40552   9.770  24.875  20.140 -0.0012  0.0093 -0.1452
97562W        W40553  16.391  32.954  21.805  0.0827  0.1444 -0.2471
97563W        W40554  27.711  34.352  23.075 -0.4185 -0.0055  0.0394
97564W        W40555  14.090   6.557  26.188  0.2725  0.2556  0.1086
97565W        W40556  19.106   1.412  14.053 -0.1939  0.1793  0.2906
97566W        W40557  14.851   7.011  15.840 -0.0556  0.0123  0.1252
97567W        W40558  29.392  28.260  18.987  0.0551  0.4175  0.0332
97568W        W40559  10.494   4.611  23.853 -0.1727  0.1715  0.0907
97569W        W40560  18.194  12.947   0.154  0.4471  0.1781 -0.0740
97570W        W40561  10.402   6.501  23.995 -0.1914  0.1616  0.1331
97571W        W40562   1.843  10.548  15.294  0.1465 -0.3431 -0.3586
97572W        W40563  16.307  29.527  26.513 -0.1728  0.2166 -0.0606
97573W        W40564  10.601  27.771  14.978  0.0027  0.0782 -0.0805
97574W        W40565  25.861  11.955  27.646 -0.1598 -0.0798 -0.0732
97575W        W40566  34.772  11.806  27.858 -0.0822  0.2904 -0.0298
97576W        W40567  15.753   5.720  20.218  0.0409  0.0421  0.0247
97577W        W40568  15.664  28.775  21.832  0.0034 -0.1165  0.2483
97578W        W40569  24.188  19.930  15.319 -0.1631  0.0617  0.0494
97579W        W40570   8.090   6.625  14.522  0.0840  0.4252  0.0077
97580W        W40571   4.428  32.093   1.682 -0.1022  0.2038  0.1469
97581W        W40572  14.306  32.349  17.178 -0.0937 -0.2256 -0.2811
97582W        W40573  20.551   7.079  22.181  0.0648  0.0453 -0.1847
97583W        W40574  26.748  33.527  23.252 -0.0125 -0.0558 -0.3843
97584W        W40575  19.932   7.187  15.127 -0.1898 -0.1004  0.0520
97585W        W40576  14.987   7.629  19.673  0.1823  0.2741  0.0808
97586W        W40577  23.371   6.757  16.784 -0.2120  0.0724  0.0652
97587W        W40578  21.181  31.954  25.180  0.0982  0.4076 -0.2195
97588W        W40579  21.980  30.144   5.873  0.4696 -0.0600  0.1334
97589W        W40580  16.398  22.851  14.692 -0.0311 -0.2128 -0.0205
97590W        W40581  33.719  27.856  20.113  0.0127 -0.1488 -0.0753
97591W        W40582   5.300   6.166  22.281 -0.0677  0.1690 -0.2242
97592W        W40583  13.375  24.065  18.603 -0.1074 -0.1990 -0.3732
97593W        W40584   6.700   3.688  16.967 -0.3366 -0.1480 -0.2923
97594W        W40585  21.582  34.223  22.648 -0.2468 -0.0335 -0.0036
97595W        W40586   9.797  24.182  22.065 -0.0589 -0.0541  0.1070
97596W        W40587   4.781  28.980  20.172 -0.1146 -0.1550 -0.0585
97597W        W40588  20.675  18.865  23.169  0.0296  0.2384 -0.2980
97598W        W40589   9.930  32.223  20.182  0.2115  0.1826 -0.3137
97599W        W40590  33.294  12.138  24.633 -0.1239  0.0146  0.0074
97600W        W40591  13.088  30.909   5.124 -0.3289  0.3886 -0.1165
97601W        W40592  10.903  18.646  23.251  0.0174 -0.0320 -0.1914
97602W        W40593  31.519   6.137  18.853  0.0181  0.1096 -0.0674
97603W        W40594  24.134   6.405  23.748 -0.1026 -0.0436 -0.1638
97604W        W40595  22.873  13.628  14.539  0.2033 -0.0229 -0.1204
97605W        W40596   8.037  30.209  14.697 -0.1113  0.0571 -0.0476
97606W        W40597  30.319  34.397  19.855  0.0575  0.0991  0.1145
97607W        W40598   5.653   5.973  21.223 -0.0962  0.4904 -0.0028
97608W        W40599  15.102   1.965  23.672  0.0719  0.3440  0.3944
97609W        W40600  22.706   2.991  14.134  0.0920  0.2503  0.1379
97610W        W40601  18.453  27.120   3.478  0.0918  0.1947 -0.0301
97611W        W40602  21.636   2.385   1.686 -0.0631 -0.0388 -0.0335
97612W        W40603  27.684   5.856  18.359  0.2938  0.2263  0.3747
97613W        W40604  13.903  28.911  18.718  0.3171 -0.0463 -0.3541
97614W        W40605  33.567  29.543  21.549 -0.0335 -0.0028 -0.2608
97615W        W40606   8.517   4.580  14.561 -0.6282  0.1726 -0.0448
97616W        W40607  29.304  30.472  14.629 -0.1490  0.0879 -0.2895
97617W        W40608  28.288  32.620  26.184  0.0886 -0.0557  0.0747
97618W        W40609  25.697  18.755  21.457  0.1091 -0.4252  0.2268
97619W        W40610  15.214  33.829  17.215 -0.0130  0.0762 -0.2317
97620W        W40611   3.548  29.262  17.920  0.1239 -0.2723  0.1511
97621W        W40612  34.166   4.582  15.255 -0.2644  0.1995 -0.0943
97622W        W40613  27.693  23.331  16.621 -0.0075  0.1766  0.1531
97623W        W40614  24.214   2.090  19.158 -0.1788  0.0954  0.2487
97624W        W40615  29.455  25.570  27.322  0.0329 -0.5241  0.0857
97625W        W40616  16.159  29.559  18.557  0.0121  0.1371  0.0690
97626W        W40617  19.664   9.514   8.912  0.0981 -0.2256  0.4446
97627W        W40618  21.536  13.375  14.267  0.0652  0.0528 -0.0437
97628W        W40619   9.712   2.545  20.698 -0.1295  0.2497  0.0647
97629W        W40620  17.391  17.093  14.039  0.3398  0.3212  0.0377
97630W        W40621  31.634  24.578  14.286  0.0072  0.1231  0.0838
97631W        W40622  32.716  18.868  24.013 -0.0080  0.0066 -0.0261
97632W        W40623   7.713  27.761  24.004  0.0936 -0.0365 -0.0847
97633W        W40624  21.906  34.615  20.426  0.1539  0.0998  0.2211
97634W        W40625  17.947  25.428  14.647  0.4091 -0.1267 -0.1251
97635W        W40626  26.323   7.528  16.921  0.1821 -0.3005  0.2030
97636W        W40627   7.814   0.744  21.419 -0.2468 -0.2662  0.1393
97637W        W40628   5.203  25.496  17.382 -0.1074  0.1405 -0.0816
97638W        W40629  23.248  33.112  23.349  0.0374 -0.1902  0.0091
97639W        W40630  24.978  29.696  18.797  0.4258  0.0619  0.0718
97640W        W40631  10.447   3.948  16.129 -0.1553  0.0597  0.1407
97641W        W40632   5.234   0.368  24.455  0.3609 -0.0159 -0.1234
97642W        W40633  27.720  29.413  15.504  0.2387 -0.0410  0.2129
97643W        W40634   8.162   1.173  23.058 -0.0973  0.0612 -0.2632
97644W        W40635  25.216   9.602  20.185 -0.1049  0.1751  0.1028
97645W        W40636  10.993  17.387  14.507 -0.0069 -0.1618  0.0433
97646W        W40637  26.868   2.890  23.333  0.1656  0.1118  0.0024
97647W        W40638  22.834  24.632  17.004 -0.0829 -0.0631  0.0922
97648W        W40639  18.697  18.356  25.926 -0.1767  0.3500  0.0164
97649W        W40640  19.541  28.865  20.075  0.2864 -0.0845  0.2456
97650W        W40641  28.202   0.841   0.840 -0.2136  0.0291  0.2517
97651W        W40642   9.454  33.556  14.327  0.1616  0.0238 -0.0151
97652W        W40643  16.494  27.518  13.070  0.0150 -0.2450  0.1457
97653W        W40644  20.011   6.402  15.759 -0.0029 -0.2211 -0.0643
97654W        W40645   0.921  23.791  14.875 -0.1234  0.1231 -0.0010
97655W        W40646   8.224   7.111  21.883  0.0385 -0.1306  0.0784
97656W        W40647  18.716  27.326  15.268 -0.1006 -0.0584  0.1770
97657W        W40648  20.365   9.429  23.200 -0.0544 -0.1181  0.3641
97658W        W40649  28.465  31.331  17.837 -0.2849  0.1100 -0.0645
97659W        W40650  11.791  11.748  23.038 -0.4040  0.0356 -0.0410
97660W        W40651  24.536   2.878  15.699  0.0553 -0.0527  0.2059
97661W        W40652  12.659  18.605  15.109  0.0470  0.0635 -0.1276
97662W        W40653  18.496  26.718  23.653  0.1002  0.2641  0.1399
97663W        W40654  30.682  34.743  18.125  0.2783 -0.0879 -0.0610
97664W        W40655  24.013   5.195  16.949 -0.0024  0.4022 -0.0347
97665W        W40656  22.113  24.148  14.990 -0.1250  0.1834 -0.1231
97666W        W40657   3.978   2.411  18.838  0.0574 -0.0449 -0.2318
97667W        W40658  12.290  16.830  27.370 -0.0891 -0.1866 -0.0612
97668W        W40659  17.182  26.763  18.786  0.0557 -0.1545  0.1928
97669W        W40660  28.590  29.483  15.022 -0.2243 -0.1635  0.1419
97670W        W40661  18.956   8.970  19.428  0.1518 -0.1440 -0.2431
97671W        W40662  17.862   0.039  16.411  0.0649  0.0700 -0.2403
97672W        W40663  29.133  31.960  16.962 -0.1184 -0.3016 -0.0240
97673W        W40664  12.233  30.570  17.101  0.2753  0.1482  0.0848
97674W        W40665  12.844  23.162  23.074 -0.0419  0.1337 -0.3001
97675W        W40666  28.718  32.424  18.639 -0.0722  0.0145 -0.0796
97676W        W40667  16.310  30.575  14.850 -0.0247 -0.1668  0.1660
97677W        W40668  19.626  24.367  13.263  0.0056 -0.0385 -0.1709
97678W        W40669  29.229   2.234  22.491  0.1006 -0.1920 -0.1216
97679W        W40670  12.902   0.120  19.823  0.1935 -0.1382  0.1215
97680W        W40671  31.411  32.126  19.699  0.5102  0.1323  0.0931
97681W        W40672  17.280  31.713  16.145 -0.2490 -0.0512 -0.0261
97682W        W40673  26.184   5.427  16.132 -0.0776 -0.0023 -0.1507
97683W        W40674  10.876  14.607  17.586  0.5859 -0.0420  0.0963
97684W        W40675   9.692  23.251  18.465  0.0651  0.0892  0.0850
97685W        W40676  30.260   4.348  17.398  0.3476  0.0442 -0.0979
97686W        W40677  31.203  25.444  25.570 -0.0179  0.1444 -0.3957
97687W        W40678  30.409  30.688  16.465  0.1006  0.2273  0.0365
97688W        W40679  32.745   2.167  13.901  0.1333 -0.0236  0.0487
97689W        W40680  27.353   2.582  23.353  0.3544 -0.2449 -0.1906
97690W        W40681  30.606  32.037  25.689 -0.1484  0.2456  0.1841
97691W        W40682  24.995  24.163  15.550 -0.4102  0.0710 -0.1417
97692W        W40683  19.009  23.070  17.663 -0.0912 -0.0438  0.2704
97693W        W40684  25.729  30.556  18.131  0.2332 -0.4864 -0.1167
97694W        W40685  14.543   1.763  20.786  0.3110 -0.0895 -0.0784
97695W        W40686   7.971  32.495  25.149  0.2330  0.4327 -0.4229
97696W        W40687   9.639   0.360  16.948  0.1464 -0.0976 -0.1551
97697W        W40688  22.569  12.007  22.309 -0.2213  0.1300  0.0053
97698W        W40689   1.910   7.205  18.422 -0.0389 -0.0944  0.1751
97699W        W40690   9.287  26.177  15.593  0.1058  0.2962  0.3018
97700W        W40691  10.374  32.347   1.120  0.1946  0.0970 -0.3867
97701W        W40692  21.672   6.126   0.402  0.0388  0.0544 -0.2320
97702W        W40693  30.634   5.734   5.964 -0.0740  0.0385 -0.1146
97703W        W40694  25.125   9.561  14.990  0.1028  0.3048  0.2279
97704W        W40695  20.508  32.745  24.370  0.0755 -0.2750  0.1418
97705W        W40696   9.298  34.047  20.844  0.2765 -0.1607  0.1528
97706W        W40697   0.184   4.420  17.080 -0.1160 -0.2260 -0.2267
97707W        W40698  34.414   0.615  23.235  0.2422 -0.0212  0.0052
97708W        W40699  25.274   5.068  28.398  0.2124  0.2692 -0.1650
97709W        W40700  30.244  13.345  22.260  0.1517 -0.0533 -0.0881
97710W        W40701  21.453  22.841  14.178  0.1265  0.1116  0.1141
97711W        W40702  20.452   0.294  21.546  0.1295 -0.0099 -0.1758
97712W        W40703  13.190  17.464  15.307  0.0922 -0.2457  0.0045
97713W        W40704  15.361  31.059  26.173  0.1884 -0.0881  0.0743
97714W        W40705  25.513  33.578  17.574 -0.1444  0.2496  0.0366
97715W        W40706  30.417  14.825  15.920 -0.0916 -0.1564 -0.2764
97716W        W40707  22.166   9.424  24.743 -0.0481  0.1048 -0.0413
97717W        W40708  17.824  10.681  21.592  0.3757  0.1284  0.0701
97718W        W40709  23.064  22.154  14.657  0.1745  0.0061 -0.2525
97719W        W40710  11.696  29.772  16.754 -0.1121 -0.1105 -0.0762
97720W        W40711  10.535   2.095   8.970 -0.1398  0.4962  0.2328
97721W        W40712  10.563  14.987  13.944  0.3012  0.0126 -0.0420
97722W        W40713  11.521  28.194  15.470  0.0606 -0.0089  0.2467
97723W        W40714  24.028  23.228  28.613  0.1316  0.0351  0.2833
97724W        W40715  14.939  31.143  17.167  0.0036  0.0229  0.1164
97725W        W40716  22.783  19.623  13.739  0.0182  0.2770  0.1185
97726W        W40717  30.940   0.015  14.778  0.0432 -0.2468 -0.1675
97727W        W40718  26.635   3.573  16.773  0.1108 -0.0495 -0.0351
97728W        W40719  11.367   4.489  19.316  0.1440 -0.0351  0.2961
97729W        W40720  27.816  17.350  14.942 -0.0981  0.1536  0.0896
97730W        W40721  11.204  18.393  17.326 -0.1290 -0.0059  0.0873
97731W        W40722  18.606  16.724  12.835 -0.0371  0.1260 -0.2201
97732W        W40723  19.868   2.716   5.833 -0.0699  0.1525 -0.4484
97733W        W40724  11.105   1.114  18.513  0.3575 -0.1414 -0.0982
97734W        W40725  17.917   7.881   4.430  0.0140  0.0395  0.0085
97735W        W40726  34.217  33.614   0.104  0.2757 -0.0764 -0.0111
97736W        W40727  16.659  13.517  23.271 -0.0391 -0.0608 -0.5673
97737W        W40728  27.469  25.565  16.643 -0.2131  0.3424  0.0714
97738W        W40729   2.960   7.864  27.581 -0.0584 -0.0105  0.1236
97739W        W40730  20.814   2.789  27.123  0.1223  0.0657 -0.0188
97740W        W40731  23.624  28.593  16.218 -0.2343  0.0078 -0.0674
97741W        W40732   4.040  32.839  19.995 -0.4864 -0.1231  0.2850
97742W        W40733  29.797   2.514  18.560  0.1899  0.2649  0.1124
97743W        W40734  26.188  33.562  12.307  0.0331  0.0451 -0.0913
97744W        W40735  20.496   9.960  19.804 -0.0102 -0.2293  0.0122
97745W        W40736  18.768  29.654  20.533  0.0611  0.1812  0.1963
97746W        W40737  12.662  14.151  16.066 -0.0773 -0.1582 -0.2069
97747W        W40738  23.862   9.782  25.087 -0.0056 -0.0242  0.1108
97748W        W40739  18.746  22.400  13.920  0.2603 -0.3232 -0.4479
97749W        W40740  30.947  16.914   4.325  0.1952  0.0842 -0.0404
97750W        W40741   7.328  15.336  14.776 -0.3494 -0.0645  0.1776
97751W        W40742  27.056  28.361  14.542 -0.0154 -0.0139  0.0238
97752W        W40743  20.036   5.673  26.432 -0.2583 -0.1547 -0.0659
97753W        W40744  15.646  16.197  14.502 -0.2400 -0.0241 -0.3131
97754W        W40745   9.778   1.300  27.472  0.2194  0.2514 -0.0396
97755W        W40746  29.218  29.117  29.193 -0.1211  0.1866 -0.1289
97756W        W40747  28.926   7.770  19.216 -0.0503  0.2517 -0.0037
97757W        W40748   2.547   5.909  16.006  0.1999 -0.1956 -0.1636
97758W        W40749  21.942  28.756  17.719  0.1295  0.0077 -0.3049
97759W        W40750  26.586   8.541  22.060 -0.3060  0.1487 -0.2298
97760W        W40751  24.835   3.862  13.640  0.0857 -0.1489 -0.4392
97761W        W40752  17.823   1.766  20.531 -0.1908  0.1122  0.0395
97762W        W40753  28.362  32.604  23.989  0.0503  0.3579  0.0538
97763W        W40754  19.241  26.562  17.071  0.2096  0.1628 -0.3165
97764W        W40755  33.267  13.816  27.305 -0.4026  0.2959 -0.0828
97765W        W40756  15.696  27.316  19.111 -0.0655 -0.0632 -0.1665
97766W        W40757  25.353  28.702  14.380  0.0188 -0.2323 -0.0450
97767W        W40758  16.391   1.737   3.759 -0.0337 -0.3417  0.0771
97768W        W40759  27.641   1.005  21.204 -0.3914 -0.0766  0.1482
97769W        W40760  27.434  22.327  26.448  0.0448 -0.2517 -0.1792
97770W        W40761  24.100  26.633   4.537 -0.1745 -0.0182  0.1404
97771W        W40762  14.739  20.839  22.536 -0.2629  0.0204  0.0897
97772W        W40763  15.875  30.276  16.380  0.1028 -0.0784  0.0986
97773W        W40764  26.977   8.860   0.399  0.2553 -0.2007 -0.2934
97774W        W40765  16.015  34.753  19.500 -0.2272 -0.0067 -0.0163
97775W        W40766   9.393  29.477  26.789 -0.0517 -0.3616 -0.2527
97776W        W40767   3.089  10.420   1.308 -0.3474  0.0289 -0.1514
97777W        W40768  23.989   1.229  17.850 -0.0200  0.1543  0.0060
97778W        W40769  19.594  15.061  16.116 -0.0092 -0.2863 -0.1199
97779W        W40770  16.747  25.808  17.272  0.0098  0.3443 -0.0496
97780W        W40771  22.827  31.691  16.322 -0.0989 -0.0541  0.0588
97781W        W40772   5.122  25.528  15.783  0.1103 -0.0849  0.4831
97782W        W40773  17.591  28.481  18.240  0.2199 -0.2213 -0.2107
97783W        W40774  19.116  32.880  23.373 -0.0143  0.0729  0.4599
97784W        W40775  24.651  11.158  14.586 -0.0749  0.2471 -0.0401
97785W        W40776  13.892  27.331  23.938  0.3146  0.2627  0.0807
97786W        W40777  23.766  28.286  17.151 -0.1080  0.3411 -0.0682
97787W        W40778  22.874  27.968   2.045  0.0735 -0.2996 -0.0086
97788W        W40779  15.559   1.597  18.229  0.3115  0.2050  0.0834
97789W        W40780  22.989  10.640  16.626 -0.4199  0.0277 -0.0821
97790W        W40781  28.718  33.354   1.098  0.0978 -0.0861  0.1495
97791W        W40782  25.455  29.031  19.008  0.1418  0.2670 -0.3782
97792W        W40783  14.650  12.249  20.621  0.0624  0.3064  0.1141
97793W        W40784  31.428   8.650  15.097  0.1663 -0.1251  0.0187
97794W        W40785  12.870  10.085  15.945  0.2705 -0.0230  0.0128
97795W        W40786  14.980  13.745  17.115  0.0321  0.1847 -0.1617
97796W        W40787   9.382  30.243  14.780  0.2493 -0.2024  0.0137
97797W        W40788  16.593  29.898  17.062 -0.2501 -0.2046  0.2376
97798W        W40789  14.692  24.047   0.261 -0.0508  0.2628  0.0231
97799W        W40790  30.121  18.877   4.132 -0.2296 -0.0826  0.3882
97800W        W40791   8.020  24.267  22.144 -0.0999  0.0193 -0.0817
97801W        W40792  13.963  23.933  17.861 -0.3425 -0.1676 -0.0735
97802W        W40793  30.521   5.140  23.260 -0.1266  0.1526 -0.2351
97803W        W40794  30.476  26.662  15.630  0.0304  0.1496  0.2135
97804W        W40795  28.634   3.386  17.735  0.1271 -0.0249 -0.1885
97805W        W40796  20.254   0.878  20.785 -0.4020  0.1278  0.1652
97806W        W40797   4.442  25.464  20.563  0.0784 -0.1352 -0.1187
97807W        W40798  20.070  22.047  23.925 -0.0790 -0.5308 -0.0429
97808W        W40799  18.804  32.747  26.803  0.2433  0.3364  0.1980
97809W        W40800  27.040  27.504   3.102 -0.0225  0.3049  0.0178
97810W        W40801  30.146  28.686   5.938 -0.2687  0.1296 -0.0546
97811W        W40802  20.997  33.082  13.068  0.1139 -0.1835  0.0424
97812W        W40803  17.676   4.549  17.001  0.3098  0.2076 -0.1840
97813W        W40804  25.575  27.198  27.360 -0.2817 -0.1811  0.1332
97814W        W40805  31.957  32.520  13.717  0.1038  0.2718 -0.0753
97815W        W40806   8.470  14.486  25.261 -0.0386 -0.0023  0.1783
97816W        W40807  30.763  18.090  27.533  0.0593  0.0683  0.0205
97817W        W40808  10.778   1.348  17.281 -0.2199  0.3789 -0.2618
97818W        W40809  20.604  27.314  14.163  0.2389 -0.2483 -0.1136
97819W        W40810  14.429  30.746   5.500 -0.1155 -0.1041  0.0639
97820W        W40811  24.431   3.747  17.780 -0.0713  0.3607  0.0044
97821W        W40812  26.029  12.530  18.654 -0.1819 -0.0129  0.1053
97822W        W40813  29.579  20.058  15.613  0.0201  0.0320 -0.2747
97823W        W40814  18.086  26.303  27.303  0.0986  0.0425  0.0993
97824W        W40815  31.345  33.300  23.441  0.0266 -0.1223  0.0432
97825W        W40816  16.022  24.254  24.544  0.0012 -0.0466  0.6112
97826W        W40817  30.344  33.759  20.645  0.1344  0.0138  0.2754
97827W        W40818  14.630   8.110  19.829 -0.0129  0.2767  0.0450
97828W        W40819  28.229  23.518  27.508 -0.2257  0.1205 -0.0799
97829W        W40820  22.159  34.434  15.937 -0.3736 -0.2238  0.3601
97830W        W40821  11.708   4.629  21.694  0.0215 -0.1154  0.1636
97831W        W40822  26.035  22.028  18.244  0.0454  0.1112 -0.1152
97832W        W40823  13.702   7.795  22.846  0.0421 -0.1741  0.1181
97833W        W40824  33.727   0.660  18.555  0.1982  0.0154 -0.0184
97834W        W40825  10.894   7.330  27.571  0.0115  0.0565  0.0130
97835W        W40826   2.558  14.761  26.016  0.2413 -0.1694 -0.2477
97836W        W40827  14.371  30.377  27.826 -0.2811 -0.0607 -0.0920
97837W        W40828  27.839  27.907  19.665 -0.0621 -0.0277  0.0517
97838W        W40829  26.924  12.880   4.569 -0.2217 -0.3612  0.1565
97839W        W40830  22.848  20.519  18.775 -0.1509  0.0047 -0.1575
97840W        W40831  17.202  28.445   7.326  0.2004  0.2952  0.2476
97841W        W40832  18.367  25.551  14.845  0.0885  0.0002 -0.2717
97842W        W40833  25.282  34.146  19.615  0.4659  0.1851  0.0821
97843W        W40834  24.898  26.917  13.710  0.0216  0.1948  0.2241
97844W        W40835  26.541  27.405  22.725  0.0321 -0.3857  0.0320
97845W        W40836  24.002  10.505  14.865  0.0754 -0.2620 -0.0247
97846W        W40837  34.391   8.082  24.027  0.2271 -0.4566  0.1488
97847W        W40838   3.040  20.880   1.527 -0.0114 -0.2286 -0.3277
97848W        W40839  22.742   2.763  26.161  0.1210 -0.0768  0.0712
97849W        W40840   6.008  32.044  17.756 -0.0695  0.1653  0.1566
97850W        W40841   9.405  20.889  20.704 -0.2155  0.1264 -0.1006
97851W        W40842  27.635  30.391  15.281  0.3321 -0.0832  0.1580
97852W        W40843  26.259  34.621  21.936 -0.3194  0.1403  0.1170
97853W        W40844   9.278   1.760  16.502 -0.0478 -0.3102 -0.1099
97854W        W40845  24.387   4.526  18.341 -0.0399 -0.0932  0.0169
97855W        W40846  27.669  10.183  16.078 -0.1918  0.0806  0.2321
97856W        W40847   7.193  34.389  22.302  0.0311  0.3013  0.3231
97857W        W40848  18.640   5.089  20.001  0.1205 -0.0106  0.2759
97858W        W40849  10.669  24.335  17.600  0.5316 -0.1698 -0.0568
97859W        W40850  21.562  15.914  15.750  0.2587 -0.0786  0.2154
97860W        W40851  12.684   2.543  17.182  0.0175 -0.1468  0.0397
97861W        W40852  15.908  28.720  15.165 -0.2064 -0.3217  0.0884
97862W        W40853   6.637  16.592  16.617  0.2437 -0.2569  0.0462
97863W        W40854  20.221   5.983  21.635 -0.0682  0.1389  0.0554
97864W        W40855  22.503  28.498  21.856  0.3342  0.0234  0.0999
97865W        W40856  15.136   4.318  14.683 -0.0838 -0.1421 -0.1989
97866W        W40857  23.760  25.178  13.865  0.2251  0.0898  0.3356
97867W        W40858  22.878  28.172  26.805 -0.2904 -0.0281 -0.1740
97868W        W40859   0.494   2.331  14.414  0.1233  0.3381 -0.0848
97869W        W40860  31.044   4.061  15.785 -0.0373 -0.2167  0.0288
97870W        W40861   3.771   3.555  21.452  0.2375 -0.2100 -0.3611
97871W        W40862  30.446   6.627  20.794  0.0572  0.0116  0.2194
97872W        W40863  27.453  11.096  19.282  0.1331  0.1470 -0.3356
97873W        W40864   0.950  22.969  28.676  0.1913 -0.1851  0.0839
97874W        W40865  22.744  25.308  14.059  0.0130 -0.3051 -0.0006
97875W        W40866  28.251  12.513  17.582 -0.0604 -0.1539  0.5290
97876W        W40867  20.821  29.098  15.256  0.2088 -0.2989 -0.2264
97877W        W40868  31.335  14.531  18.034  0.0689  0.1585 -0.2146
97878W        W40869   2.704  29.610  17.758  0.1263  0.1546 -0.2506
97879W        W40870  22.177  25.922  13.532  0.3238 -0.1618  0.1814
97880W        W40871  34.455   4.688  22.543  0.2084 -0.2625 -0.0435
97881W        W40872   3.858  18.783  18.024 -0.1916 -0.0842  0.3909
97882W        W40873   8.121  32.211  22.787  0.0307 -0.0706 -0.0677
97883W        W40874  21.730  27.284  18.783  0.0539 -0.1475  0.1471
97884W        W40875   7.131  13.545  18.867 -0.1238 -0.1017 -0.1961
97885W        W40876  29.534   3.136   4.865 -0.1007 -0.2343  0.1845
97886W        W40877  32.760  14.234  16.298 -0.1161  0.1950  0.1530
97887W        W40878  17.091  24.539  25.552  0.1372  0.1212  0.1281
97888W        W40879   7.925   0.581  16.652  0.1683  0.1761 -0.0106
97889W        W40880   0.800  30.986  25.829 -0.1938  0.3704  0.1218
97890W        W40881  18.141  32.492   0.818 -0.0066  0.2780 -0.1637
97891W        W40882   3.736   0.851  16.159  0.1346  0.2175  0.1961
97892W        W40883  12.302  26.120   1.553 -0.0500 -0.1744  0.0934
97893W        W40884  11.548   8.621  15.553 -0.1516  0.2476  0.0081
97894W        W40885   2.718   6.057  19.015  0.2098 -0.1868 -0.0400
97895W        W40886  15.745  30.000  22.015  0.0119 -0.2263  0.0019
97896W        W40887  32.331  23.280  21.596  0.1945  0.1452 -0.0037
97897W        W40888   7.492  17.097  15.432 -0.0077  0.2459  0.1716
97898W        W40889   8.349  30.713  27.620  0.0645  0.1010  0.1159
97899W        W40890  26.360  31.200  14.233 -0.0666  0.9506  0.3010
97900W        W40891  15.037  33.537   7.765  0.4086  0.0237  0.3930
97901W        W40892   0.845   1.267  28.669 -0.0758 -0.1244 -0.0403
97902W        W40893  26.362  23.711  27.991  0.0168  0.1146 -0.0655
97903W        W40894  34.599   2.721  26.041  0.2100  0.0547  0.1922
97904W        W40895  27.532  25.666  13.229 -0.0646  0.0661 -0.0164
97905W        W40896  21.529  28.223   3.331  0.0556  0.0264 -0.1104
97906W        W40897   5.271  34.752  17.626 -0.2221 -0.1769 -0.3236
97907W        W40898  20.627   0.199  22.144 -0.1941  0.1806 -0.3949
97908W        W40899  33.527   7.476  25.558 -0.0504  0.1211 -0.2545
97909W        W40900   0.795  17.344   1.253  0.1711 -0.0576  0.0985
97910W        W40901  16.356  28.904  15.072 -0.0091 -0.2584 -0.1222
97911W        W40902  19.837  24.406  15.639  0.1181 -0.1847 -0.5819
97912W        W40903  29.298  26.326  14.939  0.0305  0.0044  0.2538
97913W        W40904  26.000  30.485   2.621 -0.0436  0.1228 -0.3367
97914W        W40905   8.400  33.515  15.663 -0.0468  0.0294  0.0407
97915W        W40906  22.476  17.624  24.295 -0.0974  0.0389  0.2539
97916W        W40907  24.091  30.437  15.209  0.2694 -0.2194  0.2167
97917W        W40908   9.990   0.809  22.422  0.0237 -0.0616 -0.0780
97918W        W40909  30.746  32.487  15.517 -0.0062 -0.0167  0.0098
97919W        W40910  23.551   9.907  16.827 -0.3146  0.1811 -0.2726
97920W        W40911  20.528  25.210  17.874  0.3113  0.0310  0.3411
97921W        W40912  29.434  21.280  13.424  0.1267 -0.1306  0.2091
97922W        W40913  14.537   1.480  18.488  0.0705 -0.0138 -0.1932
97923W        W40914  18.774  14.189  22.141 -0.4254 -0.0626 -0.0219
97924W        W40915  31.984  26.211  15.361 -0.1218  0.0643 -0.0746
97925W        W40916  30.416  19.635   5.394  0.2803 -0.1414  0.0971
97926W        W40917  17.361   2.442  20.022 -0.0252  0.0460 -0.2804
97927W        W40918  15.886  28.168   0.376  0.0282 -0.6790 -0.1072
97928W        W40919   3.129  30.297  28.281 -0.2734 -0.1975  0.1553
97929W        W40920  28.367  20.244  13.954  0.0712 -0.2352 -0.3323
97930W        W40921  10.826  19.164   0.120 -0.2900  0.0740  0.0897
97931W        W40922  28.995  26.842  23.307 -0.1874 -0.0685 -0.1505
97932W        W40923  23.583  13.856  18.880 -0.1016  0.0464  0.1171
97933W        W40924  14.191   2.985  19.688  0.0189 -0.5952  0.0094
97934W        W40925  18.996   8.155  13.947  0.0095 -0.0638  0.0780
97935W        W40926   9.409   8.056  23.021  0.1185  0.2318  0.0245
97936W        W40927   3.945  33.065  19.010 -0.1371 -0.1960 -0.1061
97937W        W40928  23.891  27.348  12.810  0.1064 -0.0490  0.0810
97938W        W40929  34.632  26.746  27.943 -0.0943 -0.2709 -0.0090
97939W        W40930   4.918  17.701  23.786 -0.1545 -0.2486  0.0463
97940W        W40931  20.981  23.585   2.525 -0.1597 -0.0573 -0.1180
97941W        W40932  14.686  28.304  24.282  0.0602 -0.1493 -0.1740
97942W        W40933   7.907   1.448  15.966  0.1427  0.1564  0.1734
97943W        W40934  20.075  33.576  15.135  0.0306 -0.0230  0.0960
97944W        W40935   2.112  23.193  17.977 -0.1295 -0.1485 -0.3029
97945W        W40936  23.070   7.854   0.188 -0.1954 -0.2215  0.1087
97946W        W40937  22.601  30.329  16.809 -0.0260 -0.0084 -0.1585
97947W        W40938   9.129   0.504  16.047 -0.0166 -0.1920  0.1849
97948W        W40939  24.830   8.041  16.393  0.1672  0.1171 -0.2561
97949W        W40940  31.713  29.057  26.700 -0.2156  0.0626  0.0078
97950W        W40941  17.894  34.673  15.478  0.2245  0.0764 -0.0353
97951W        W40942  15.097   7.500  28.081 -0.1719  0.4155  0.1731
97952W        W40943  12.315  16.218   7.262 -0.1533  0.1550 -0.2083
97953W        W40944   8.632  22.526  27.517 -0.2350 -0.2053  0.3488
97954W        W40945   1.039   0.831  20.340  0.0634 -0.0974  0.0655
97955W        W40946  10.741  11.393  17.675  0.3809  0.0653  0.0813
97956W        W40947  20.712  17.186  13.421 -0.0616  0.2469  0.2450
97957W        W40948  17.759   3.850  17.835  0.3317 -0.0879  0.0206
97958W        W40949  19.655  32.906  18.422 -0.0935 -0.1543  0.0258
97959W        W40950  30.391   5.439   1.795 -0.2070 -0.0134  0.1773
97960W        W40951  23.329  32.921  15.664 -0.2346  0.1381 -0.1429
97961W        W40952  23.670  27.893  21.527 -0.2075 -0.0702  0.3457
97962W        W40953  25.955   5.622   0.522  0.1062  0.0768 -0.0907
97963W        W40954   0.397  23.444  24.924 -0.0662  0.4482  0.1537
97964W        W40955  27.343   0.543  12.881  0.1649 -0.1545  0.0624
97965W        W40956  23.926  27.346   0.068 -0.1654  0.0723 -0.2023
97966W        W40957  25.056   7.777   0.293  0.0674  0.1101 -0.1354
97967W        W40958  26.394  28.462  29.184  0.0347 -0.2927 -0.1591
97968W        W40959  10.021   6.858  17.221  0.0925  0.0690  0.0140
97969W        W40960  12.631   7.582  18.475  0.1570  0.0314  0.0502
97970W        W40961  24.534  13.978  14.473  0.0299  0.1869  0.2692
97971W        W40962   7.072  18.957  21.610  0.1701 -0.0171 -0.4042
97972W        W40963  29.169  22.293  24.265 -0.2525  0.0669  0.2746
97973W        W40964  19.119  15.597   0.631 -0.0279 -0.1027  0.0513
97974W        W40965  22.905   0.585  18.417 -0.3176  0.2465 -0.0966
97975W        W40966   1.540  24.892  24.994  0.2579 -0.3088  0.1535
97976W        W40967  26.568   3.264  16.435  0.1474  0.0367  0.1206
97977W        W40968  23.629  24.088  22.695  0.0182 -0.1183 -0.1764
97978W        W40969   7.139  27.793   0.044 -0.1569  0.1981 -0.0168
97979W        W40970  32.901  30.359  17.989  0.1261 -0.0910 -0.5246
97980W        W40971  27.506  26.171  15.586  0.1333  0.1544 -0.3024
97981W        W40972  20.382  33.124  14.296 -0.0237 -0.1340  0.3019
97982W        W40973  18.502   8.474  20.711 -0.0367 -0.4949  0.1829
97983W        W40974  15.134  24.659  13.441 -0.0330 -0.2199  0.1402
97984W        W40975   8.745  21.371  23.456  0.0167 -0.2036  0.4133
97985W        W40976   3.120  27.241  27.135  0.0977 -0.0668 -0.0040
97986W        W40977  15.472  29.831   6.092  0.1954  0.0805  0.3504
97987W        W40978  22.104  12.846  25.750 -0.0381  0.1720  0.1070
97988W        W40979  26.041   6.855  20.139 -0.3022 -0.0777 -0.0333
97989W        W40980  22.899   9.321  21.961 -0.1683 -0.0356 -0.0044
97990W        W40981  27.417   7.245  19.629 -0.0767 -0.0558  0.0910
97991W        W40982   6.153  19.222  16.049 -0.0212  0.2397 -0.3296
97992W        W40983  27.492   3.361  29.141 -0.1334 -0.1060 -0.0682
97993W        W40984  13.272  34.087   8.441 -0.4711  0.1283  0.0826
97994W        W40985   0.983  22.347  20.029  0.0773  0.1732  0.0952
97995W        W40986   9.459  14.350  21.164  0.1665 -0.2441  0.1425
97996W        W40987   7.010  30.051  19.510 -0.1545  0.0284  0.0389
97997W        W40988  21.392  30.280  13.753 -0.1337 -0.3734  0.0073
97998W        W40989  22.919  19.379  19.723 -0.0539  0.1650  0.1765
97999W        W40990  26.439  22.794  23.732  0.0063 -0.2540  0.0351
98000W        W40991   2.752   3.168   5.756 -0.2884  0.2128  0.2815
98001W        W40992  25.819   0.308  15.076  0.4854 -0.1510  0.0568
98002W        W40993   5.957  29.720   3.880  0.1897  0.0315 -0.1400
98003W        W40994  23.739   0.679   2.634  0.0668 -0.0092 -0.2396
98004W        W40995  19.225   1.715  20.709 -0.0515 -0.1390  0.0360
98005W        W40996  26.757  20.221   2.198  0.0554  0.0122 -0.1460
98006W        W40997  22.645  22.405  13.652  0.1915 -0.0728 -0.0552
98007W        W40998  21.582  17.070   6.583  0.4660 -0.3063 -0.1643
98008W        W40999  16.626  25.196  26.962 -0.3554  0.0888 -0.1914
98009W        W41000  22.906   3.947   1.630  0.3389 -0.3292 -0.1301
98010W        W41001  21.773   5.012  14.972  0.1637 -0.2000  0.0152
98011W        W41002  21.608  30.314  27.836  0.0892  0.6362 -0.0147
98012W        W41003  25.908  26.275  18.473 -0.0905  0.0967 -0.3202
98013W        W41004  25.460   3.112  19.859  0.1887 -0.2598 -0.1052
98014W        W41005  19.708  29.584  20.350  0.2545  0.0229  0.0109
98015W        W41006  18.146   6.608  15.457  0.1563 -0.1725  0.0061
98016W        W41007  25.472  11.429  17.163 -0.0723 -0.2664 -0.2003
98017W        W41008  13.820  30.643  14.888  0.3684 -0.3248 -0.0611
98018W        W41009  25.128   3.435  23.961  0.1162  0.1203  0.1090
98019W        W41010  22.932  31.261  19.711 -0.2921 -0.0810  0.0149
98020W        W41011   1.143  29.162  20.625  0.1195 -0.0656  0.0775
98021W        W41012  30.509  11.756   2.919  0.1696  0.0548  0.0631
98022W        W41013  20.478   9.832  21.563 -0.0624 -0.0088 -0.1535
98023W        W41014  24.179  28.765  22.840 -0.2712  0.3411 -0.0280
98024W        W41015  31.457  33.981  16.292  0.0048  0.2470 -0.0366
98025W        W41016  12.938  17.392  23.012  0.4273  0.3715 -0.1610
98026W        W41017  10.531   9.994  24.669  0.2335  0.2131 -0.1038
98027W        W41018  19.102   2.835   6.490 -0.1707 -0.2417 -0.1275
98028W        W41019  33.078   1.356   1.057 -0.0287 -0.0557 -0.0914
98029W        W41020  15.182   4.470   5.279  0.2254  0.3023 -0.0650
98030W        W41021  23.126   7.181  15.695 -0.4167 -0.2661 -0.1913
98031W        W41022  20.325  32.346  20.524 -0.2458 -0.0095 -0.0946
98032W        W41023  19.767   2.365  25.200  0.1051  0.3036 -0.1982
98033W        W41024  21.055  28.831  19.702 -0.3897 -0.0519  0.0022
98034W        W41025  28.997   4.902  20.668  0.2364  0.0395 -0.0948
98035W        W41026  17.768  33.532  16.289 -0.0683  0.0996 -0.0999
98036W        W41027  20.471   3.908  19.774  0.1182 -0.0409  0.5453
98037W        W41028  12.838   3.423  15.297  0.1069 -0.1510  0.1933
98038W        W41029   7.337   4.441   6.716 -0.0829 -0.3668  0.1242
98039W        W41030  21.855  16.469  12.517 -0.3346 -0.1064 -0.1509
98040W        W41031   5.117   3.137   7.348 -0.0701  0.2387  0.0895
98041W        W41032  21.528  33.889  15.007 -0.3894 -0.0341  0.1529
98042W        W41033  23.408  28.678   5.296  0.1237  0.1017  0.2504
98043W        W41034  23.815   6.281  18.141  0.0841  0.0293  0.1779
98044W        W41035  23.557  31.394   1.338 -0.1556 -0.1104  0.3799
98045W        W41036  21.520   2.092  20.374 -0.0893 -0.2695  0.3521
98046W        W41037  31.774  26.841  21.091 -0.1820 -0.2790 -0.0557
98047W        W41038  21.673  34.624   1.606 -0.0311  0.2960  0.1088
98048W        W41039   5.428  18.997  21.807  0.2349 -0.0992  0.3073
98049W        W41040   5.289   7.617  18.165 -0.1577  0.0151  0.1023
98050W        W41041   6.245   5.545   9.340 -0.0068  0.5566 -0.1658
98051W        W41042  22.514   3.966   4.195  0.6200  0.0650 -0.0372
98052W        W41043   0.696   5.117  23.579  0.0184 -0.0843  0.1494
98053W        W41044  24.578   4.471   0.253  0.2228  0.0200  0.0861
98054W        W41045  26.379  22.197  16.220  0.2759  0.0807 -0.1747
98055W        W41046  22.583  12.560   5.864 -0.2110  0.1263 -0.2707
98056W        W41047  22.713  27.274  14.468  0.1899 -0.3277 -0.0497
98057W        W41048  20.802   0.128  19.668  0.4663  0.0685  0.0761
98058W        W41049  14.342   7.692  15.829 -0.1603  0.0826 -0.1040
98059W        W41050  18.684   8.617  17.415  0.0580  0.3464 -0.1394
98060W        W41051  12.318  22.744  20.463 -0.4850  0.2663  0.1708
98061W        W41052  20.132  21.775  15.075 -0.0897  0.0374 -0.0970
98062W        W41053  28.510  31.402  28.769 -0.3630 -0.1041  0.0373
98063W        W41054  17.278   3.737   9.982  0.1143 -0.0689 -0.1122
98064W        W41055  24.929  33.255  28.388  0.1296  0.0551  0.0323
98065W        W41056  23.059  25.255  24.169 -0.0518  0.1108 -0.1669
98066W        W41057  18.904   3.303  16.288 -0.0081 -0.1717  0.1335
98067W        W41058  23.359  11.296  12.846 -0.3194  0.3170  0.0553
98068W        W41059  16.248   6.535  25.834 -0.0701 -0.2411  0.2466
98069W        W41060  17.461  29.486  17.391  0.2100 -0.1340  0.3229
98070W        W41061  33.252   2.680  23.001  0.3156 -0.1869  0.2042
98071W        W41062  26.502   7.774  25.786 -0.2632 -0.0348  0.0749
98072W        W41063  28.700  34.595   1.290  0.0071  0.0943 -0.0064
98073W        W41064  20.192  34.050  13.668 -0.1050  0.2959 -0.0263
98074W        W41065  22.070  16.423   4.057  0.1295  0.0045  0.1054
98075W        W41066   9.103  25.205  17.610 -0.1391  0.0668 -0.0524
98076W        W41067  21.487   1.526  29.222 -0.3306 -0.2919  0.0018
98077W        W41068  14.873  11.451  27.356 -0.1081  0.1253  0.1196
98078W        W41069  16.312   0.336   3.404  0.0003 -0.0109  0.1634
98079W        W41070  30.540   3.044  22.411  0.2163 -0.1501 -0.2020
98080W        W41071  13.241  30.437  18.059 -0.2088  0.0016 -0.0422
98081W        W41072   9.763  32.663   5.639  0.5977 -0.3148 -0.0170
98082W        W41073   5.208   3.067   0.993  0.0516 -0.1273 -0.0362
98083W        W41074  22.561   7.123  16.463  0.0820 -0.3071 -0.3771
98084W        W41075   0.659   5.743  10.180  0.2362 -0.1012  0.0765
98085W        W41076  19.798   3.263  19.823  0.0377 -0.0063 -0.0828
98086W        W41077  27.071  13.336  19.768 -0.0572 -0.3227 -0.0409
98087W        W41078   9.789  29.527  25.801 -0.2768 -0.0259 -0.0021
98088W        W41079  24.224  30.402   0.705  0.0324  0.3390 -0.0875
98089W        W41080  18.367  21.767  21.119  0.1905  0.3329 -0.0864
98090W        W41081  11.199  32.146   3.654 -0.0661 -0.0035 -0.3757
98091W        W41082  24.286  30.712  20.580 -0.2267 -0.0001 -0.1976
98092W        W41083  32.327  26.907  21.259  0.0037  0.0740 -0.4114
98093W        W41084  16.362   1.321  23.245  0.3531  0.0076  0.0525
98094W        W41085  29.723  29.037  28.974 -0.0489 -0.1026 -0.2373
98095W        W41086  31.552  28.090  16.740 -0.5002  0.0404  0.1429
98096W        W41087  34.397   5.636   2.940 -0.3601 -0.3530  0.4353
98097W        W41088  31.312  27.214   5.015 -0.0076 -0.3612 -0.0419
98098W        W41089  23.179  23.028  16.241 -0.4600  0.3380  0.0282
98099W        W41090  33.695  32.449  18.535  0.1407 -0.0870  0.0670
98100W        W41091  10.201   0.786   0.795  0.2094  0.1492  0.4197
98101W        W41092  16.041  27.887  13.334 -0.0764  0.1201  0.1123
98102W        W41093  20.675   4.553  15.396  0.2742  0.0357  0.0652
98103W        W41094  25.961   7.580   1.021 -0.1422 -0.0400  0.2397
98104W        W41095  26.721  34.207  19.129 -0.1739 -0.0444 -0.2113
98105W        W41096  26.002  32.379   1.352  0.1260  0.1294  0.1399
98106W        W41097  24.657  29.680  17.844 -0.2363 -0.1075 -0.0839
98107W        W41098  21.402  22.948  27.599  0.1410 -0.3125  0.1325
98108W        W41099  33.982   4.249   5.446  0.0769 -0.2706 -0.1345
98109W        W41100  16.254  29.037  24.623 -0.1126 -0.1282 -0.1304
98110W        W41101  30.906  23.427   3.212  0.0675 -0.3076 -0.0261
98111W        W41102  14.035   7.839  18.720 -0.0240  0.0374 -0.0692
98112W        W41103  26.549  24.641  28.731  0.1048 -0.2253  0.0045
98113W        W41104  11.858  29.915  17.871 -0.0124 -0.1372  0.1955
98114W        W41105  10.283  20.864  19.275 -0.0234  0.0050  0.1745
98115W        W41106  27.390   5.773   7.726 -0.2177  0.0614 -0.3222
98116W        W41107  21.012   1.620  19.425 -0.2343 -0.4754 -0.0374
98117W        W41108  21.106   3.475  22.380 -0.0764 -0.1060 -0.1101
98118W        W41109  18.745   0.067   5.127  0.3415  0.1670  0.1084
98119W        W41110  19.335   6.193  27.457 -0.2483  0.0525  0.0136
98120W        W41111  26.876   5.349   9.873 -0.0821 -0.0936 -0.1199
98121W        W41112  22.264  28.686  25.709  0.0456 -0.1940  0.2878
98122W        W41113   4.543  26.804  20.876 -0.0414 -0.0500  0.2061
98123W        W41114  26.826  29.251   5.043 -0.1939  0.3082  0.3956
98124W        W41115  22.577  31.184  16.007 -0.3751 -0.1299  0.1146
98125W        W41116  20.951  10.018   0.610  0.1248 -0.2898 -0.2050
98126W        W41117   1.581  22.197  25.903 -0.4264  0.1281 -0.1490
98127W        W41118  20.496   0.980   7.750  0.2909  0.0017  0.0200
98128W        W41119  16.007  31.029  20.286  0.1148 -0.5761  0.2331
98129W        W41120   8.985   3.281  23.249  0.0783 -0.1047 -0.0551
98130W        W41121  26.675   1.171   2.604 -0.1104 -0.0796 -0.1063
98131W        W41122  12.052   6.702  24.389 -0.1239 -0.0286  0.3361
98132W        W41123  27.140   0.353   8.397  0.1615 -0.0402 -0.1282
98133W        W41124  30.401  12.661  14.960  0.1309  0.3398  0.2653
98134W        W41125  22.144   3.932  22.976 -0.2910 -0.0144 -0.0639
98135W        W41126  17.674   3.238  13.886  0.2108  0.0630  0.1015
98136W        W41127  19.052  32.964   3.086 -0.1186 -0.0314 -0.0850
98137W        W41128  19.304   0.707  28.003  0.1001 -0.3640 -0.0124
98138W        W41129  33.808   4.251   9.720  0.2660  0.0520  0.0406
98139W        W41130   6.607   3.243  28.185 -0.2144 -0.0529 -0.0326
98140W        W41131  12.989  10.165   5.085 -0.0473  0.1230  0.0010
98141W        W41132  34.513   3.595   5.195  0.0862 -0.1556 -0.0764
98142W        W41133   9.509  22.952   4.052  0.1341  0.1283  0.0506
98143W        W41134   2.285   1.551  19.609 -0.0246  0.3171  0.3866
98144W        W41135   0.544   0.102   2.196 -0.2092 -0.1765  0.1378
98145W        W41136   0.962  34.135  17.278 -0.1331 -0.0190 -0.1275
98146W        W41137   6.455   4.738  27.485 -0.2426  0.4226  0.0804
98147W        W41138  16.755  26.325  21.817 -0.0578  0.2760 -0.0823
98148W        W41139  18.858  24.160  25.800  0.2424 -0.4370  0.0032
98149W        W41140  17.578  13.123  19.802 -0.4354 -0.0564  0.0671
98150W        W41141  34.328  27.304  14.598  0.0833  0.0707  0.0791
98151W        W41142  27.464  18.536  10.003 -0.1385 -0.0339  0.1401
98152W        W41143   0.627  20.051  27.382  0.2966 -0.1704  0.1080
98153W        W41144  16.121  26.648  24.918  0.0514 -0.1925  0.1447
98154W        W41145  16.796   3.634  18.281  0.0336  0.0387  0.0291
98155W        W41146  34.744   6.558  14.861  0.3935 -0.0855 -0.0002
98156W        W41147  19.848   2.965  26.771 -0.0307 -0.0005 -0.0771
98157W        W41148  29.867  26.438   0.295 -0.1511 -0.0448  0.0713
98158W        W41149  27.181   0.896  18.213  0.4114 -0.2049 -0.0975
98159W        W41150  12.954  23.297   3.018 -0.1974 -0.0219 -0.2769
98160W        W41151  16.676  31.799  18.609 -0.0321 -0.0944 -0.2478
98161W        W41152  31.625  23.320  25.796  0.0224 -0.1598 -0.0031
98162W        W41153  26.826  15.484  20.391  0.1437  0.3784 -0.2930
98163W        W41154   0.195  25.534  15.389 -0.0589 -0.1066  0.2364
98164W        W41155  19.625   8.364  14.331 -0.0610  0.1209  0.3235
98165W        W41156  12.676  27.593   5.519 -0.1425 -0.0001 -0.0719
98166W        W41157  21.352  23.560  14.701  0.0322 -0.1299  0.2702
98167W        W41158  18.058   4.803   2.198 -0.1331  0.1798 -0.0725
98168W        W41159  22.796  28.789  22.319 -0.1074 -0.0704  0.1717
98169W        W41160  20.030  32.161  21.462  0.1244  0.0672  0.3032
98170W        W41161   9.644  23.408   1.035 -0.2205  0.2985 -0.2941
98171W        W41162  28.544  13.837   9.061 -0.0992  0.1660 -0.3391
98172W        W41163  19.647  15.344  26.147 -0.1092  0.0488  0.4558
98173W        W41164  24.080  11.185  20.983  0.1476 -0.1050 -0.0458
98174W        W41165  19.167  27.509   7.441 -0.2309  0.2078 -0.1383
98175W        W41166  30.587   9.712   5.081 -0.3364 -0.2269  0.0327
98176W        W41167   2.012  31.663  15.967  0.1057 -0.0711  0.0332
98177W        W41168  11.271  32.156  26.079  0.1543  0.0724 -0.0049
98178W        W41169  10.671  21.101  22.203 -0.0019  0.0433  0.1406
98179W        W41170  16.457  26.342   4.682  0.0753 -0.2827 -0.2440
98180W        W41171  33.198  30.947  24.443  0.0272 -0.0007  0.0170
98181W        W41172  14.729   8.598  28.951  0.3377  0.0421 -0.3014
98182W        W41173  14.654  22.032   0.005 -0.1035  0.0692  0.0356
98183W        W41174  17.180  29.853  14.379 -0.1026  0.3230  0.0939
98184W        W41175  24.580  30.762  23.582  0.0754 -0.1923  0.3205
98185W        W41176   6.055  28.361  17.375 -0.0417  0.1097 -0.3331
98186W        W41177  22.255  14.414  27.464  0.1129 -0.1948 -0.2874
98187W        W41178  30.454   1.237  14.847 -0.1491  0.2494 -0.1523
98188W        W41179  17.770  28.579  23.267 -0.1270 -0.0477  0.0054
98189W        W41180  28.510  17.540  19.045 -0.0574 -0.0291  0.1004
98190W        W41181  26.988  27.034  28.238 -0.0887 -0.1207 -0.1678
98191W        W41182  10.155  24.166  20.813  0.3121 -0.1318 -0.1946
98192W        W41183  21.036   9.074   2.252 -0.0127 -0.3145  0.0281
98193W        W41184  16.766   3.987   8.081  0.1587  0.0254  0.0534
98194W        W41185  15.391  10.952   5.528  0.0307  0.0160  0.0494
98195W        W41186  23.079  29.465  19.857 -0.3687 -0.2284  0.1928
98196W        W41187  20.805   9.962  22.973  0.0229 -0.1991  0.1633
98197W        W41188  22.244  30.470  17.145 -0.4167 -0.0375 -0.1909
98198W        W41189  27.293  12.092   0.093  0.1139  0.3964  0.3460
98199W        W41190   6.920  28.309   8.842 -0.1761  0.1158  0.2232
98200W        W41191  15.844  21.177   5.586  0.5313 -0.0687 -0.1558
98201W        W41192  13.553  12.164   3.635 -0.0626  0.0691 -0.1424
98202W        W41193  31.705  28.733   6.040 -0.1446  0.3497  0.1323
98203W        W41194  29.330  19.880   5.676  0.0215  0.1923  0.0637
98204W        W41195  13.477  30.087   4.134  0.1631  0.1209 -0.1228
98205W        W41196  26.206   1.624  22.634  0.0560 -0.0294  0.0549
98206W        W41197  13.144  33.526   4.524 -0.2604 -0.0169  0.1014
98207W        W41198  32.560  32.461  25.538 -0.1785 -0.1303 -0.4851
98208W        W41199  26.973   3.411   0.082 -0.5299 -0.1229 -0.2716
98209W        W41200  19.037   1.842   6.215 -0.1539 -0.2573 -0.3611
98210W        W41201  22.197  28.255   5.310 -0.0857 -0.0838 -0.0735
98211W        W41202  26.825  33.079  16.237  0.3108 -0.1542  0.0168
98212W        W41203   7.279  24.091  26.875 -0.1290 -0.3877 -0.0203
98213W        W41204  21.474   8.217  16.080 -0.1148  0.2128 -0.2411
98214W        W41205   7.860  13.689   1.053 -0.0070 -0.1440 -0.0746
98215W        W41206  26.869  28.211   8.524 -0.3870 -0.2321  0.4992
98216W        W41207  26.930   2.545   4.629  0.1280  0.3969  0.2068
98217W        W41208  28.718  27.403  19.130 -0.3518 -0.1052  0.3058
98218W        W41209  21.959  34.103   1.640 -0.0756 -0.1102  0.0624
98219W        W41210  29.674  24.762  29.076 -0.0762 -0.1971  0.2295
98220W        W41211   4.216   6.403   7.908 -0.0779  0.2127 -0.0156
98221W        W41212   6.551   6.374  24.805 -0.0444  0.0946  0.4344
98222W        W41213   8.869  19.526   9.865 -0.2586 -0.2084 -0.1041
98223W        W41214  20.541  12.884  14.244  0.2113  0.3397  0.1716
98224W        W41215  17.886  31.064  28.046  0.3196  0.3618  0.1171
98225W        W41216  10.031  29.731  28.448  0.1717  0.2269 -0.2598
98226W        W41217  15.093   8.191   7.445  0.2552  0.0394 -0.0321
98227W        W41218  10.150  24.204  15.146 -0.0383  0.1932  0.0860
98228W        W41219  26.141  26.548  18.020 -0.1239 -0.1628  0.0249
98229W        W41220  28.596   0.539  20.364  0.2050  0.1939 -0.0250
98230W        W41221  32.149   2.121   6.118 -0.0993 -0.1143 -0.0815
98231W        W41222  27.324   4.571  20.535 -0.0380 -0.3429  0.1726
98232W        W41223  19.411  28.451   5.439 -0.1203 -0.1272  0.1456
98233W        W41224  16.039   6.304  20.822 -0.0509  0.2273  0.2242
98234W        W41225  16.250  12.945   2.871  0.3417  0.1518  0.0360
98235W        W41226  20.697  29.818  18.642  0.0897 -0.0574 -0.0169
98236W        W41227  13.829  29.702   3.141 -0.0221 -0.1435 -0.0190
98237W        W41228  32.777   0.251  27.537  0.0724  0.0189  0.2114
98238W        W41229  15.371  34.070   9.833  0.3409  0.2085 -0.0496
98239W        W41230  34.082  26.166  22.102 -0.3813 -0.1310  0.2294
98240W        W41231  15.687   5.537   0.476  0.0446 -0.1869 -0.2843
98241W        W41232  33.645  25.239   4.949 -0.2869 -0.0195  0.1923
98242W        W41233  18.509  25.298  22.103  0.1749  0.3780 -0.0319
98243W        W41234  10.600  18.359   4.059  0.0810  0.0200 -0.1684
98244W        W41235  26.461   8.061   8.420 -0.2276 -0.0026 -0.1627
98245W        W41236   0.745  10.118   0.750  0.2767  0.1500 -0.0337
98246W        W41237  20.922  12.217  13.675 -0.0651 -0.2782  0.1458
98247W        W41238  15.012  34.027  18.378  0.1004  0.0398  0.0101
98248W        W41239  27.614  13.657   5.388  0.2036  0.0149  0.0409
98249W        W41240  27.595  15.023  20.939 -0.2028  0.1913  0.3563
98250W        W41241  15.817   3.566  23.569 -0.2366 -0.3828 -0.1735
98251W        W41242   1.558   6.268  19.341 -0.2173  0.0365  0.2887
98252W        W41243   8.933  34.142   4.834 -0.0792  0.1438 -0.1163
98253W        W41244  19.928  20.342  24.349 -0.3806  0.0416 -0.2042
98254W        W41245  19.347   6.337  23.820  0.2035  0.1174  0.0986
98255W        W41246   7.225  30.987  20.609 -0.2615 -0.2141 -0.3776
98256W        W41247  12.260  29.117   3.841 -0.0991 -0.2226  0.3708
98257W        W41248  14.171   9.179   7.770  0.3014  0.0209 -0.0315
98258W        W41249  27.193   1.966  28.517  0.3174 -0.3697  0.0277
98259W        W41250   0.614   8.368   3.495  0.0104  0.0525 -0.1447
98260W        W41251  24.312  18.665   0.238  0.0134  0.2290 -0.0893
98261W        W41252  19.207  29.741   1.315 -0.1285  0.1335  0.1593
98262W        W41253  18.033  34.303  17.309  0.0818 -0.1114 -0.2475
98263W        W41254  28.033   8.076  18.462 -0.0201  0.0608  0.0686
98264W        W41255  28.741  33.168  19.415  0.1223 -0.0060 -0.3193
98265W        W41256  30.124  19.091  19.652 -0.0596  0.1649  0.0262
98266W        W41257  27.262  14.410  26.477 -0.1147 -0.0915 -0.0483
98267W        W41258  23.733   2.147  29.252  0.2158  0.0092  0.0468
98268W        W41259   5.581  14.163   0.775  0.2466  0.1146  0.1618
98269W        W41260   3.801  30.796   7.035  0.3029 -0.1313  0.2279
98270W        W41261  20.872   3.330  28.900 -0.6859  0.0098 -0.0644
98271W        W41262  17.104  26.023   5.029  0.0550 -0.1277  0.1060
98272W        W41263  21.278   0.536  27.893 -0.0667  0.0181 -0.1402
98273W        W41264   8.194   1.441   7.668 -0.0947  0.2675  0.2110
98274W        W41265  20.135  16.995  14.225  0.0779  0.1462  0.0447
98275W        W41266  20.973  24.064   0.178 -0.2057 -0.0054 -0.1866
98276W        W41267  21.384  18.875   0.208 -0.0921 -0.4476  0.4751
98277W        W41268  13.666  28.984  15.127 -0.2156 -0.1481 -0.0438
98278W        W41269  28.492  16.904   5.085  0.1809 -0.1027  0.0716
98279W        W41270  18.290  25.101  23.050 -0.1547  0.0344 -0.3926
98280W        W41271  27.684  32.705  16.716  0.0306 -0.0384  0.4245
98281W        W41272  31.356  32.212  27.082 -0.3375 -0.0674 -0.0876
98282W        W41273  24.602   4.375   7.818 -0.2762 -0.1074  0.0512
98283W        W41274  16.619   6.555  16.449 -0.0510 -0.0371  0.1218
98284W        W41275   0.272   4.919   1.651 -0.3916 -0.1078 -0.0564
98285W        W41276  21.181  14.813  18.452 -0.0382 -0.0756 -0.1783
98286W        W41277  11.752  10.553  16.148  0.1841  0.2641  0.0452
98287W        W41278  19.434   1.710  28.117  0.0129 -0.0121  0.0806
98288W        W41279  29.074  17.571  24.246  0.1332  0.5193 -0.1647
98289W        W41280  24.367  23.889  19.167  0.1102 -0.1925 -0.0430
98290W        W41281  25.157  27.716   6.866 -0.2031  0.0321 -0.2472
98291W        W41282  16.229  23.479   8.451 -0.0988 -0.2428 -0.1606
98292W        W41283  32.706   6.636   9.566  0.0643  0.2808  0.1273
98293W        W41284  23.748  27.418  26.443 -0.1300 -0.2959 -0.0636
98294W        W41285  17.505   9.000  21.517 -0.1473  0.1368 -0.0280
98295W        W41286  16.349  26.608  17.733 -0.1572 -0.0098  0.0147
98296W        W41287  12.454  30.860  21.729 -0.1448  0.0924  0.0187
98297W        W41288  32.323   4.072  19.281  0.1075 -0.2808  0.0558
98298W        W41289  31.088  30.814  17.839  0.0783 -0.1698  0.0252
98299W        W41290  23.031   8.226  17.674  0.4723 -0.1383 -0.1344
98300W        W41291  33.189   6.728   6.819 -0.0640 -0.1340  0.0251
98301W        W41292  23.187  33.148   5.189  0.2934  0.0166 -0.0303
98302W        W41293  34.050  13.019  15.752 -0.1064 -0.2354 -0.1240
98303W        W41294  28.120  24.176   8.065  0.0992 -0.0431 -0.1406
98304W        W41295  24.837  21.113  27.975  0.0377 -0.2176  0.3299
98305W        W41296  21.508  17.217  29.048  0.1942 -0.0589 -0.1818
98306W        W41297   2.303  32.229  28.134 -0.0786  0.1673 -0.0232
98307W        W41298  11.647  34.660  18.280 -0.2335 -0.4810  0.0423
98308W        W41299   0.268  28.543   9.036  0.1508 -0.1217  0.3813
98309W        W41300  32.395   1.196   4.762  0.4545  0.1543  0.1002
98310W        W41301  18.957   3.474  14.377  0.0307 -0.0017 -0.2039
98311W        W41302  18.117  29.852   0.211  0.0800 -0.0900 -0.1252
98312W        W41303  26.160  24.882   0.541 -0.1997 -0.2971 -0.1214
98313W        W41304   8.768  15.084  21.254  0.0120  0.0289 -0.1771
98314W        W41305  25.752   2.732   5.385 -0.1068 -0.1530  0.0146
98315W        W41306  18.395  28.539  29.062  0.0255  0.1532 -0.0762
98316W        W41307   8.227   1.969  14.821  0.3356  0.0042  0.0811
98317W        W41308  12.786  27.779   9.685 -0.3129 -0.0998  0.1327
98318W        W41309  28.046  30.742   3.712  0.0073  0.0654 -0.2080
98319W        W41310  27.881  20.739   5.157 -0.1012 -0.1402 -0.1176
98320W        W41311  10.730   6.499  24.441 -0.1571  0.0512 -0.2334
98321W        W41312   3.350  24.013   0.444  0.0756 -0.3400  0.1668
98322W        W41313  29.587  33.034  19.024 -0.0901 -0.1662 -0.2134
98323W        W41314  13.307  18.180   2.072  0.1818 -0.1209 -0.1138
98324W        W41315  22.571   5.116  19.527  0.1126 -0.3076  0.2119
98325W        W41316   3.419  16.901  26.144  0.2435 -0.5162  0.1307
98326W        W41317  14.801  26.419  23.080 -0.0928 -0.3844  0.0606
98327W        W41318  34.763   0.870  23.524 -0.4095 -0.0653 -0.1308
98328W        W41319  19.189  16.076  13.640 -0.3132 -0.1651  0.0379
98329W        W41320  13.108  16.786   4.508 -0.1511 -0.2159 -0.0231
98330W        W41321  10.938   9.366  27.799 -0.1459 -0.0673 -0.2529
98331W        W41322  18.465  28.645  19.798  0.1461  0.3124 -0.1572
98332W        W41323  31.037  26.576  28.693  0.0932  0.0387 -0.1709
98333W        W41324  13.511  32.514   9.490 -0.0089  0.1406  0.0773
98334W        W41325  15.027  14.752  21.565 -0.2415 -0.0291 -0.0192
98335W        W41326  13.886  21.562   6.942  0.1895 -0.0360  0.2585
98336W        W41327  32.791   6.416  26.204 -0.0582  0.1861 -0.1116
98337W        W41328  10.772  27.262  19.111  0.2399 -0.2440 -0.0599
98338W        W41329  33.585  14.692   0.983 -0.0473 -0.0892  0.2418
98339W        W41330  26.448  13.270  29.200  0.2154  0.1164 -0.0967
98340W        W41331  31.417  33.624   7.378  0.1395 -0.2881  0.0353
98341W        W41332  10.773  12.387  21.154  0.0407  0.0009  0.0264
98342W        W41333   8.328  12.853  24.872  0.2807 -0.0023  0.6444
98343W        W41334  17.265   5.217  20.960 -0.3652 -0.1799  0.0326
98344W        W41335   6.185   5.906  16.664  0.0025 -0.0699  0.0684
98345W        W41336  24.114  28.391  24.414 -0.1397 -0.2532  0.0247
98346W        W41337   8.967   5.346   7.882 -0.3811 -0.0515  0.4502
98347W        W41338  23.488   1.262  24.451  0.0681  0.0209 -0.1850
98348W        W41339  22.469   8.803  18.154 -0.1059 -0.0135  0.0645
98349W        W41340  20.258  23.195  27.396  0.1274 -0.2197  0.1642
98350W        W41341  28.557   5.356  26.824  0.0998 -0.0478  0.4334
98351W        W41342  34.777  24.383  27.534 -0.1566 -0.2817 -0.2890
98352W        W41343  22.523  26.125  17.346  0.0299  0.0955 -0.0200
98353W        W41344  26.693  31.552  20.860  0.2082  0.2054  0.1216
98354W        W41345   9.801  32.312  17.806  0.2560  0.0726 -0.2019
98355W        W41346  28.650  17.973  21.105 -0.2090  0.2174 -0.1632
98356W        W41347  16.896   5.741   7.153  0.0652  0.1677 -0.0733
98357W        W41348  30.180  20.970  26.511  0.0497  0.4215 -0.0559
98358W        W41349  15.350  28.557  13.946  0.1136 -0.0745  0.0572
98359W        W41350  22.039  31.254   4.370  0.0318  0.0203  0.0922
98360W        W41351   0.153   1.045   7.620  0.3102 -0.1472  0.1220
98361W        W41352  21.060  25.592  17.327 -0.1038 -0.2216 -0.1736
98362W        W41353   2.047   3.654   2.521 -0.2049 -0.1876  0.1268
98363W        W41354  21.451   1.257  22.490  0.2050  0.0311  0.1839
98364W        W41355  12.547  30.662   9.331 -0.0319  0.0544 -0.0763
98365W        W41356  22.505   3.107   8.139 -0.3982 -0.1006  0.1830
98366W        W41357  32.752   3.702   4.625  0.0022  0.2974 -0.4617
98367W        W41358   3.949  31.771   1.317 -0.1129  0.2028  0.1566
98368W        W41359  15.346  27.548  26.238 -0.2897 -0.0219 -0.2361
98369W        W41360  20.706  21.515  28.521 -0.1373 -0.0670 -0.2073
98370W        W41361  26.133  34.543   6.754  0.1349  0.1306  0.1034
98371W        W41362  10.691  27.347   5.784 -0.2624  0.2470  0.4017
98372W        W41363  14.882   6.729  17.405 -0.0368 -0.2295  0.0565
98373W        W41364  11.649   2.872  26.978  0.0013 -0.1626  0.2233
98374W        W41365   8.834   1.796  21.377  0.2266 -0.0343 -0.2072
98375W        W41366  18.198   0.721  28.664  0.0277  0.1313  0.4724
98376W        W41367   8.461   2.335  28.964 -0.0302  0.0710  0.0038
98377W        W41368   6.489  27.667   4.000 -0.1009  0.1136 -0.3219
98378W        W41369  31.233   7.835   9.485  0.0687 -0.5392 -0.3165
98379W        W41370  11.476  14.805   5.415 -0.0621 -0.0321  0.0878
98380W        W41371  18.997   6.363  20.829 -0.0485 -0.3375  0.2090
98381W        W41372  25.505  14.185   0.513 -0.0710 -0.3063 -0.0031
98382W        W41373  34.283  23.901  17.428  0.0718  0.1621 -0.1015
98383W        W41374  27.343   3.461  28.613  0.1247 -0.0129 -0.1442
98384W        W41375  30.101  33.134  14.353 -0.3784 -0.0488 -0.0099
98385W        W41376  19.076  28.861  21.825  0.0018  0.0301 -0.0964
98386W        W41377  17.609  33.079  23.606 -0.0738  0.3391 -0.0891
98387W        W41378   5.890  30.405   7.527 -0.1414  0.1139  0.1544
98388W        W41379  24.780   0.455  24.960 -0.1008 -0.1850 -0.0614
98389W        W41380  23.367  29.710   0.635 -0.2986 -0.3559 -0.1302
98390W        W41381  30.426  33.448   7.628 -0.1360  0.0562  0.1436
98391W        W41382  28.863  31.055  24.841  0.1817 -0.1035 -0.2664
98392W        W41383  30.650  15.394  26.233  0.1710 -0.0110  0.0411
98393W        W41384  24.854  27.602   2.470 -0.0421  0.2363 -0.1466
98394W        W41385  15.101  22.231   3.233  0.0221  0.1214  0.0953
98395W        W41386  33.347  27.592  27.504 -0.0185 -0.0744  0.0144
98396W        W41387  26.269  22.229  20.160 -0.1256 -0.0759 -0.0192
98397W        W41388  19.536  32.203   0.489 -0.0824 -0.0284 -0.3737
98398W        W41389  18.235  17.204   4.136 -0.0070  0.2989 -0.2123
98399W        W41390  10.092  20.580   4.750 -0.1274  0.2247 -0.1517
98400W        W41391   0.495   1.798  25.908  0.1638 -0.1081 -0.3080
98401W        W41392  31.504   4.347  28.923 -0.0205  0.1394  0.2225
98402W        W41393  31.966   5.556  20.635 -0.1085  0.2737 -0.2078
98403W        W41394  33.260  15.202   7.013 -0.2494  0.1814 -0.0962
98404W        W41395  27.205  24.457   8.830  0.0111  0.2844  0.2045
98405W        W41396  24.294  18.132   0.822 -0.0279 -0.2346 -0.2244
98406W        W41397  22.345  29.614   1.994 -0.2783 -0.0933 -0.1030
98407W        W41398  25.050  30.665   3.463 -0.2641 -0.2286 -0.1515
98408W        W41399  18.439   0.178   9.173  0.2330  0.4606  0.1363
98409W        W41400   4.453   0.350  27.493 -0.1944  0.2387 -0.2231
98410W        W41401  22.352  18.384  22.298 -0.0762 -0.0012 -0.2425
98411W        W41402  16.318  25.257  18.745  0.1192  0.0457 -0.1114
98412W        W41403  21.507  14.889  25.530  0.1143 -0.0350  0.2417
98413W        W41404  25.992  22.408  25.033 -0.0273 -0.0876  0.0147
98414W        W41405   2.280   0.737  27.958  0.2313  0.0556  0.1077
98415W        W41406  16.320  24.371  16.049  0.1827 -0.0880  0.0550
98416W        W41407  15.948   1.162  24.243  0.0624  0.1345 -0.0863
98417W        W41408  24.118   7.860  19.082 -0.0288 -0.0442 -0.1612
98418W        W41409  23.557  15.411   3.205  0.0681 -0.1014  0.3102
98419W        W41410  28.093  33.827  17.637 -0.3031 -0.2160 -0.0935
98420W        W41411  29.038   3.002  17.981 -0.1432 -0.0224  0.1246
98421W        W41412  24.124   0.974  20.325 -0.1341 -0.1570 -0.4577
98422W        W41413  28.385   1.347  23.922  0.0801 -0.3774 -0.2495
98423W        W41414  30.043  13.376  23.083 -0.2121 -0.0721 -0.0422
98424W        W41415  20.417  32.498   5.150  0.0878 -0.1549 -0.2677
98425W        W41416  31.693  18.198  23.593  0.0247  0.1802  0.0038
98426W        W41417  21.112  30.111  15.306 -0.1273  0.1423 -0.1387
98427W        W41418  34.517   2.788  19.293 -0.1834 -0.2101  0.1710
98428W        W41419  34.691  23.803  18.746 -0.3216  0.1966  0.0086
98429W        W41420  26.497   1.408  24.780 -0.1694 -0.0314  0.2124
98430W        W41421  10.600   1.276  18.609  0.2829 -0.1226 -0.1638
98431W        W41422  18.966   4.613   1.671  0.0105  0.0233 -0.0382
98432W        W41423  15.464  28.458  16.946 -0.0468 -0.1747 -0.0815
98433W        W41424  25.086  33.224  17.087  0.0451 -0.0986 -0.0356
98434W        W41425  20.445  29.136  20.752 -0.1290  0.1339 -0.2130
98435W        W41426  13.860   3.117  22.627 -0.3443 -0.2692 -0.2137
98436W        W41427   8.184  31.592  24.322 -0.0854  0.0428 -0.0325
98437W        W41428  33.570   4.850  17.472 -0.2124 -0.0971 -0.0881
98438W        W41429   9.235  34.517  18.051 -0.3343  0.0022  0.2687
98439W        W41430  25.972  30.739  24.905  0.1885 -0.2309 -0.1280
98440W        W41431  17.244   6.701  15.438 -0.0711  0.0653  0.0874
98441W        W41432  21.071   8.860  16.090  0.0562  0.2370 -0.0161
98442W        W41433  24.576   9.991  16.748  0.0165 -0.3527  0.1559
98443W        W41434  27.117  31.904  20.996  0.2998  0.2476 -0.1038
98444W        W41435  28.375   7.403  22.219  0.0351  0.2400 -0.1261
98445W        W41436  13.900  24.282  25.221 -0.1399  0.2729 -0.0541
98446W        W41437  10.742   5.708  28.129 -0.0275 -0.0585 -0.1389
98447W        W41438  18.066  25.369  13.702  0.0579 -0.2539 -0.0237
98448W        W41439  28.599  32.709  19.348  0.0431 -0.1078 -0.0034
98449W        W41440   5.565  13.038   5.864 -0.0177  0.1330  0.1427
98450W        W41441  29.228  30.086  26.380 -0.0779  0.1377 -0.1843
98451W        W41442  15.579   5.601  27.277  0.1385 -0.1685  0.3271
98452W        W41443  26.395   3.434  17.346  0.0623 -0.0741 -0.1997
98453W        W41444  28.513   0.248  14.308 -0.0649  0.1591 -0.0212
98454W        W41445   9.640  28.918  25.639 -0.0737 -0.0306 -0.2275
98455W        W41446  23.116  32.445  16.363  0.1983  0.0857  0.2404
98456W        W41447  15.125  18.710  23.754 -0.1443 -0.2349 -0.1123
98457W        W41448  18.219  34.264   0.829 -0.2313 -0.2221  0.3554
98458W        W41449  11.186  32.611  27.949 -0.1017  0.1053  0.0416
98459W        W41450  17.968  31.551  18.636  0.2614  0.2605  0.3222
98460W        W41451  32.675   5.976  22.845 -0.2053 -0.0441  0.2138
98461W        W41452  25.708  14.189  19.242  0.3145 -0.3230  0.1085
98462W        W41453  25.811  11.396  16.533  0.2767 -0.0287 -0.0716
98463W        W41454  25.532  31.903  22.188 -0.0791 -0.3403  0.2390
98464W        W41455  34.600  15.543  23.649  0.0419  0.1023  0.3358
98465W        W41456  25.063  19.584  15.986  0.2754  0.0818 -0.1229
98466W        W41457  24.034  12.011  21.466  0.0899 -0.0716 -0.0563
98467W        W41458  28.639  15.767   0.873 -0.3074 -0.0555 -0.3153
98468W        W41459  22.364   1.777   1.862 -0.0013 -0.1895 -0.1385
98469W        W41460  24.460   5.033  21.300  0.0572  0.1773  0.2450
98470W        W41461  15.744   5.900   7.080  0.0423 -0.3093  0.0392
98471W        W41462  24.708  25.653  23.733 -0.4992  0.2145 -0.0176
98472W        W41463  32.562   5.115  19.227  0.2539  0.1222 -0.0236
98473W        W41464  12.953   8.793  26.900  0.2132 -0.2841 -0.2093
98474W        W41465  22.586   1.041  19.955 -0.4845 -0.3164 -0.0483
98475W        W41466  12.045   9.749  20.425  0.2779 -0.0587 -0.2518
98476W        W41467   8.605   0.529  19.608 -0.2512 -0.1411  0.1078
98477W        W41468  32.660  15.298  16.725 -0.2127  0.0484  0.1514
98478W        W41469  30.986  31.897  19.453  0.3282 -0.0185  0.0998
98479W        W41470  28.591  22.041  20.700 -0.0182 -0.0849  0.1511
98480W        W41471  19.712   2.572  18.756 -0.2945  0.1336  0.0261
98481W        W41472  16.976   2.808  15.870  0.1035  0.0981 -0.1168
98482W        W41473  25.848   4.606  26.863 -0.1725 -0.1092  0.1722
98483W        W41474   7.298   7.676  23.677  0.2226 -0.0268  0.0460
98484W        W41475  28.985   7.901  24.905  0.2885 -0.0533 -0.3504
98485W        W41476  25.489  14.440  16.698 -0.2218 -0.1169  0.1410
98486W        W41477  20.892  26.953  18.976 -0.2690 -0.1010  0.1062
98487W        W41478  26.122  34.422  24.008  0.0580 -0.1159  0.0876
98488W        W41479   3.961   0.756   8.603  0.0809 -0.2408 -0.3105
98489W        W41480  12.517   9.351  23.921 -0.3096  0.2977  0.2305
98490W        W41481  22.146   0.134  14.548 -0.0335  0.2067  0.3111
98491W        W41482  19.355  28.960  13.857 -0.1165 -0.2750  0.0613
98492W        W41483  19.564   6.177  14.347 -0.0064  0.1774  0.1206
98493W        W41484  28.222   6.720  16.292 -0.1042  0.0518  0.3540
98494W        W41485  12.784  28.599  22.929  0.2448  0.0894 -0.0012
98495W        W41486  30.062  25.787  15.674 -0.0793 -0.3591  0.1415
98496W        W41487  24.146  18.515  25.920  0.0971 -0.0181 -0.0511
98497W        W41488   5.839   5.936  18.317 -0.3285  0.0109  0.0186
98498W        W41489  32.188  12.003   1.117 -0.3578 -0.1465  0.0219
98499W        W41490  18.676  30.571  14.748  0.1377 -0.1171  0.2388
98500W        W41491   1.556   2.249  18.312 -0.0504  0.2348 -0.0277
98501W        W41492  10.788  32.273  29.082 -0.1036 -0.1849 -0.2328
98502W        W41493  23.935   8.168  23.546  0.1169  0.0070  0.4006
98503W        W41494  25.784  30.031  28.009 -0.0571 -0.3572  0.4955
98504W        W41495  18.545  13.022  14.539  0.1280 -0.0017  0.0823
98505W        W41496  12.290   2.390   2.372  0.0461 -0.0080  0.2185
98506W        W41497  13.868   3.528  18.757 -0.1654  0.1616 -0.0786
98507W        W41498  19.621  32.421  14.065  0.0625  0.0189 -0.0039
98508W        W41499  23.658  28.134  13.797 -0.1348 -0.0476  0.0299
98509W        W41500  30.496  24.204   1.815 -0.2690  0.1434  0.0306
98510W        W41501  24.764   4.226  14.105 -0.2951  0.2109  0.1028
98511W        W41502  18.296   3.485  23.466  0.0651 -0.1102  0.3203
98512W        W41503   7.405  33.368  14.706  0.3492 -0.1826 -0.0599
98513W        W41504  29.482   7.823  25.390  0.0449 -0.0483 -0.0526
98514W        W41505  20.938  13.739  15.850  0.1889  0.3995  0.2281
98515W        W41506   7.862  34.631  22.937  0.0012  0.2433  0.0097
98516W        W41507  20.066   9.562  25.069 -0.2005 -0.2684  0.1093
98517W        W41508  16.651  15.395  15.331  0.2366 -0.0700  0.0638
98518W        W41509  22.709  22.585  21.842  0.2204 -0.1869 -0.0739
98519W        W41510  12.801  28.161  16.038 -0.2403  0.1992 -0.1496
98520W        W41511   1.330   7.255  18.703  0.1557  0.0828 -0.0757
98521W        W41512  23.538  19.168  14.161 -0.1362 -0.1672 -0.1022
98522W        W41513  17.685   7.613  15.899 -0.0095 -0.1479  0.1913
98523W        W41514  15.152  29.932  25.457  0.1793 -0.2532 -0.3455
98524W        W41515  25.421  26.386  21.531 -0.1380 -0.0015 -0.1016
98525W        W41516  21.518  11.420  27.827  0.1386  0.2053  0.1528
98526W        W41517  28.010   1.845  18.235 -0.1261  0.0454  0.0462
98527W        W41518  31.692  21.741  23.373 -0.1668  0.5863  0.2828
98528W        W41519  22.848   6.538  15.580 -0.0968 -0.0264  0.1432
98529W        W41520  23.860  34.225  21.419  0.2051 -0.3289 -0.0860
98530W        W41521   1.267  19.117  16.750 -0.0520  0.3538  0.3312
98531W        W41522  18.443  30.899  20.303 -0.4005  0.0852 -0.0029
98532W        W41523  14.747   3.676  17.110  0.1589  0.1899  0.2636
98533W        W41524  18.985   0.818  25.115  0.0821  0.1069 -0.3141
98534W        W41525  19.558   1.052  21.952  0.0793 -0.1092 -0.4099
98535W        W41526  28.644   4.551  24.233  0.2281  0.0936 -0.2555
98536W        W41527  26.031  30.864   1.650  0.1508 -0.1487  0.0134
98537W        W41528  11.770  34.451  28.867 -0.1201  0.4032  0.1608
98538W        W41529  10.979   4.156  24.998 -0.2668 -0.1658 -0.0411
98539W        W41530  11.158  32.975  25.397 -0.2191  0.2185  0.0648
98540W        W41531  25.596  14.997  22.168  0.0384  0.1579  0.0180
98541W        W41532  31.796  15.081  26.901 -0.1141  0.1840 -0.3348
98542W        W41533  30.353  30.746  14.033  0.1307  0.4309 -0.0379
98543W        W41534  26.448  34.737  15.371  0.0973 -0.0093 -0.2256
98544W        W41535  18.003  22.493  15.923 -0.1956  0.2892 -0.0184
98545W        W41536  24.889   3.284  15.132  0.3188  0.1070  0.0465
98546W        W41537  31.381  16.232  22.033  0.0169 -0.0095  0.0259
98547W        W41538  21.838  33.514   3.373 -0.0178  0.1067  0.0642
98548W        W41539  24.220  14.840  17.323  0.2749  0.3175  0.2999
98549W        W41540  27.310  32.930  20.594  0.0817 -0.2017 -0.1967
98550W        W41541  16.705  34.093  22.340  0.1917 -0.1065  0.1352
98551W        W41542  25.149  22.758  26.851 -0.0118 -0.1197 -0.1171
98552W        W41543  26.851  27.602  15.090 -0.1261  0.1515  0.0962
98553W        W41544  15.539  20.050   0.101 -0.2282 -0.1891  0.1941
98554W        W41545  21.285   5.790  27.313 -0.0714 -0.1372  0.1486
98555W        W41546  25.831  30.420  21.299 -0.0860 -0.0878 -0.1015
98556W        W41547  12.034  30.919  24.457  0.1487 -0.0211  0.0800
98557W        W41548  25.046  29.246  25.868 -0.2658  0.0250  0.0887
98558W        W41549  20.438   1.849  13.620 -0.5381  0.0775  0.0084
98559W        W41550  19.769  27.043  25.974 -0.0823 -0.1891 -0.0287
98560W        W41551  31.066  24.440  22.299 -0.1897  0.2413 -0.0406
98561W        W41552  15.876   4.702  24.686 -0.2879  0.2274  0.0478
98562W        W41553  24.353   1.769  25.536 -0.2595  0.1553 -0.0857
98563W        W41554  13.644   1.931  20.942  0.1977  0.1857  0.2189
98564W        W41555  22.381  31.781  13.920  0.0505  0.0157  0.0212
98565W        W41556   0.100   4.890  27.887 -0.0916  0.0831 -0.3010
98566W        W41557  24.296   5.791  18.553 -0.0303  0.2373 -0.1030
98567W        W41558  14.406   5.697  15.703  0.0585  0.1414 -0.0490
98568W        W41559  11.405   5.963  21.040 -0.2812 -0.2193 -0.5287
98569W        W41560   8.371  23.465  16.533 -0.1196  0.0901  0.0214
98570W        W41561  23.223   8.933  14.065  0.0238  0.0797  0.0844
98571W        W41562  26.660  12.257  22.369  0.4155  0.1577  0.0644
98572W        W41563  24.576  29.179  23.988  0.0873  0.0754 -0.0238
98573W        W41564  18.036  33.232  20.829 -0.0196 -0.2117 -0.1084
98574W        W41565   2.230  33.196  18.888 -0.1913 -0.1081 -0.1673
98575W        W41566  26.299  30.448  29.132  0.0041  0.1916  0.0604
98576W        W41567  24.718  10.065   1.898 -0.3341 -0.2012  0.1583
98577W        W41568   9.298  11.127  28.320  0.0828 -0.1120  0.3304
98578W        W41569   4.561  26.969   0.651 -0.0368  0.1232 -0.2303
98579W        W41570   0.185   4.094   1.832 -0.1645 -0.1388 -0.2634
98580W        W41571  28.646   8.303  17.277  0.3185 -0.1428  0.0795
98581W        W41572  10.662  24.629  19.351 -0.3110 -0.1370  0.1449
98582W        W41573  23.020  33.050  17.599  0.0715 -0.0661 -0.0917
98583W        W41574  17.672   6.996  19.628  0.3026 -0.1703  0.5444
98584W        W41575  20.618  34.473  16.784  0.0678  0.1386  0.1668
98585W        W41576  12.511  33.602  22.562  0.2837  0.3971 -0.0678
98586W        W41577  32.476   6.417  27.629 -0.2456  0.0771  0.1152
98587W        W41578  26.030  33.325  25.446  0.2192  0.0714  0.1986
98588W        W41579   1.498  27.021  14.956 -0.0582 -0.1501  0.3576
98589W        W41580  10.711   2.846   3.063 -0.3294 -0.0322  0.3902
98590W        W41581   7.267  17.531  23.251  0.2658  0.1144  0.0603
98591W        W41582  26.564   0.603  14.059  0.0178 -0.0432  0.1452
98592W        W41583  28.453   4.520   2.898 -0.2782 -0.1093  0.0484
98593W        W41584  21.099   5.210  28.557 -0.1727  0.1134 -0.0867
98594W        W41585  26.467   3.162  17.887 -0.0146 -0.1068  0.2474
98595W        W41586  25.236   8.188  18.613  0.0796 -0.0407  0.1274
98596W        W41587  23.921  28.821  21.990 -0.2078 -0.3171  0.1285
98597W        W41588  20.561   5.561  26.819  0.0357  0.2095 -0.3798
98598W        W41589   8.517  10.363  24.019  0.0654  0.1234 -0.3131
98599W        W41590  34.475   1.145  17.382 -0.2323  0.0236 -0.0395
98600W        W41591  31.609   4.038  26.127  0.1500  0.2572 -0.0265
98601W        W41592  24.136   5.916  15.406 -0.0188 -0.1165  0.0270
98602W        W41593  17.700  27.607  15.239 -0.1823 -0.1413  0.2531
98603W        W41594  14.750  34.255  19.848 -0.0996 -0.0852 -0.1640
98604W        W41595  31.142   9.375  21.374  0.0658 -0.2591  0.0997
98605W        W41596  14.262   3.716  28.393  0.2501  0.0009  0.0468
98606W        W41597  24.356   3.899  15.648  0.1178  0.0963  0.0509
98607W        W41598  12.317   4.008  21.699  0.3156 -0.0856  0.2858
98608W        W41599  17.310  31.133  20.388 -0.0654  0.2724  0.1381
98609W        W41600  11.717   3.928  19.395  0.0362 -0.1072 -0.2057
98610W        W41601  14.219  30.306  27.327  0.0245 -0.3267 -0.1215
98611W        W41602  25.590  20.571  21.415 -0.1556 -0.0066 -0.2228
98612W        W41603  17.108  32.608  27.170  0.0988  0.1679 -0.1728
98613W        W41604  30.745  30.347  16.717  0.1202 -0.0053  0.1081
98614W        W41605  33.384  12.405  15.636 -0.1625 -0.1419  0.1507
98615W        W41606  30.324  27.320  17.568 -0.0463 -0.0630 -0.1237
98616W        W41607  27.560  13.619  17.459 -0.0329 -0.1896 -0.0611
98617W        W41608  21.473   2.935  16.264 -0.3532  0.1701  0.0235
98618W        W41609  26.789   5.341  24.711 -0.2393 -0.2529 -0.3146
98619W        W41610  13.780  30.600  24.616 -0.0889 -0.2320  0.1565
98620W        W41611  21.924  24.170  19.697 -0.0846  0.3131 -0.0135
98621W        W41612  27.116  25.605  27.326  0.1642  0.1449  0.0564
98622W        W41613  32.598  14.048  23.973  0.1191  0.2335  0.1168
98623W        W41614   7.671  33.041  16.969  0.1572 -0.0783 -0.2358
98624W        W41615  19.735   2.664   3.297  0.2126  0.1283 -0.1976
98625W        W41616  27.231  16.302  21.654 -0.1964  0.1884 -0.1039
98626W        W41617  11.452   5.167  17.864  0.0507 -0.1881  0.3466
98627W        W41618  13.998   0.368  23.379  0.2156 -0.0124 -0.0926
98628W        W41619  22.468   6.837  26.954 -0.2444  0.1455  0.2524
98629W        W41620  25.893   5.758  22.920  0.0812 -0.3987  0.1040
98630W        W41621  26.107   3.829  22.198 -0.1183 -0.0311  0.0149
98631W        W41622  27.058  12.044  21.430 -0.1610  0.3332  0.2957
98632W        W41623  29.733  18.096  17.265  0.4357 -0.0188  0.2547
98633W        W41624  33.158   1.113  17.831  0.4231  0.0108  0.2998
98634W        W41625  19.477   7.846  18.022  0.0545  0.2668 -0.1496
98635W        W41626  19.179   5.549  24.570  0.1805 -0.0632 -0.3221
98636W        W41627   9.800   0.669  25.320  0.1886 -0.2032 -0.0601
98637W        W41628  29.413  17.628  19.831 -0.2323  0.2674 -0.3445
98638W        W41629  32.802   8.779  15.166 -0.1197 -0.0477 -0.0065
98639W        W41630  23.998   7.125  14.579 -0.1166  0.0592  0.1283
98640W        W41631  19.479  27.850  15.016 -0.0783 -0.2673  0.0489
98641W        W41632  24.441   8.470  21.067 -0.2925  0.0210 -0.0644
98642W        W41633  22.010  34.634  26.119  0.1122  0.0279  0.0465
98643W        W41634  32.720  28.865  21.521  0.0013  0.2425  0.2597
98644W        W41635   0.966  27.308  22.204  0.0218  0.1244 -0.0607
98645W        W41636   7.814  32.757  15.439 -0.3034 -0.3397  0.1092
98646W        W41637  18.198   1.662  18.318 -0.1043 -0.0952  0.3756
98647W        W41638  16.745  32.148  17.798 -0.3723 -0.1766  0.0996
98648W        W41639  18.932   8.569  20.524 -0.3855 -0.0634  0.0459
98649W        W41640  18.702  31.892  13.409  0.0050  0.1328  0.0728
98650W        W41641  18.481  11.423   3.688  0.0168 -0.5957  0.1177
98651W        W41642  28.249  24.409  14.734 -0.0233  0.1306 -0.2824
98652W        W41643  28.330   3.795   4.671 -0.1260 -0.0751  0.2366
98653W        W41644   3.924  19.926  17.140 -0.0618  0.0449 -0.2039
98654W        W41645  17.486   4.377   7.432  0.0248 -0.0078  0.2672
98655W        W41646  22.572  32.656  24.142  0.1393  0.1086  0.0414
98656W        W41647  24.464  33.652  22.043  0.0171 -0.1022 -0.0834
98657W        W41648   7.727  33.481  27.514 -0.0020  0.0370 -0.1796
98658W        W41649  19.647  14.604  16.368  0.1454 -0.2510 -0.2270
98659W        W41650  21.231   9.688  21.502  0.1740  0.2350 -0.0237
98660W        W41651   7.650   0.557  15.195  0.2217 -0.0155 -0.0284
98661W        W41652  32.671  18.741  18.962  0.0739 -0.0037 -0.1081
98662W        W41653  32.663  34.300  15.557 -0.0005  0.3036 -0.1848
98663W        W41654  27.575  22.296  24.842  0.2684 -0.2769  0.0841
98664W        W41655  20.595  34.742  18.084  0.0257 -0.3387 -0.0004
98665W        W41656  30.531  18.543  18.029  0.1662  0.3731  0.2797
98666W        W41657   1.994  20.676  15.560  0.4243  0.0764 -0.0173
98667W        W41658  22.381   4.937  20.132  0.0430  0.1281 -0.1648
98668W        W41659  20.220   2.493  18.665  0.0936  0.2007 -0.0120
98669W        W41660  32.176  25.632  17.849  0.3356  0.1077  0.1343
98670W        W41661  16.462   9.351  26.324  0.4236  0.0446 -0.1373
98671W        W41662   1.457   0.221  20.908  0.2118  0.0221  0.3255
98672W        W41663  21.343   4.917  20.238  0.0293 -0.0392 -0.1143
98673W        W41664  18.526  11.946  22.389  0.0297  0.0147  0.0229
98674W        W41665  31.032  34.011  13.714 -0.1916 -0.0136  0.1154
98675W        W41666  23.036  28.235  23.073  0.0541 -0.1419  0.1304
98676W        W41667   4.976   7.599  19.852 -0.2214 -0.1746 -0.2226
98677W        W41668  25.401   1.725  13.457  0.4249  0.2222 -0.2012
98678W        W41669   2.144  33.938  20.401  0.3738  0.1052 -0.1886
98679W        W41670  22.423   4.382  21.440  0.1859  0.1581 -0.0652
98680W        W41671  30.065   2.785  16.319  0.2599 -0.3663  0.1197
98681W        W41672  28.491  27.016  24.967  0.2486  0.2195  0.0428
98682W        W41673   8.075   5.514  17.143  0.2185 -0.1501  0.0455
98683W        W41674  17.787  27.934  25.383  0.0270 -0.0754 -0.0792
98684W        W41675  25.840  10.022  16.484 -0.4307 -0.2249 -0.0289
98685W        W41676  22.162  26.865  27.836 -0.0615 -0.3184 -0.0661
98686W        W41677  33.013  12.296  15.268 -0.0057 -0.1524 -0.0223
98687W        W41678  20.306  28.156  14.517 -0.0793 -0.0343  0.0245
98688W        W41679  15.026  22.689  26.889  0.0519  0.0536  0.2456
98689W        W41680  20.441  21.338  22.318  0.2248 -0.1435  0.2660
98690W        W41681  18.308  25.719  14.399  0.0511 -0.2149 -0.2334
98691W        W41682   8.899  20.913  17.449  0.0190  0.2034  0.1540
98692W        W41683  14.303   8.803  25.190  0.0712  0.0067  0.0167
98693W        W41684  26.255  10.671  20.047  0.0707  0.1230  0.3840
98694W        W41685  28.737   2.858  16.915  0.0057  0.0074 -0.0503
98695W        W41686  30.201  19.888  22.621 -0.3963  0.1777  0.2041
98696W        W41687  33.674  23.329  20.022  0.0577  0.1509 -0.0767
98697W        W41688   9.403   5.680  27.480  0.1171  0.1007  0.0148
98698W        W41689  30.442  18.273  22.358  0.0431 -0.0147  0.2916
98699W        W41690  32.408  10.128   2.604  0.2201 -0.0122 -0.2873
98700W        W41691  19.566  10.654  27.953  0.2606  0.0874 -0.0164
98701W        W41692  15.260  34.592  25.883 -0.3477  0.4186 -0.2974
98702W        W41693  31.097  33.057  26.273  0.3680  0.2906  0.3391
98703W        W41694  23.407   6.721  21.362 -0.1647  0.4062  0.1084
98704W        W41695  27.555  29.173  17.888  0.0235 -0.0712 -0.2334
98705W        W41696  24.385  29.377  17.488  0.1389 -0.2150  0.2295
98706W        W41697  25.709  20.371  14.286 -0.1045  0.1195 -0.0945
98707W        W41698  22.065  14.802  24.276 -0.1812  0.3222 -0.0015
98708W        W41699  22.644   3.518  13.992 -0.3238  0.1914 -0.1164
98709W        W41700  26.611  12.883  20.436  0.1179  0.1118  0.2216
98710W        W41701   0.710   0.446  20.336  0.2473  0.5331 -0.5588
98711W        W41702  20.188  14.655  20.474  0.2945 -0.4218  0.0193
98712W        W41703  11.784  31.080  16.527  0.2471  0.1174 -0.1287
98713W        W41704  22.601   5.346   1.958 -0.1124 -0.0101  0.0262
98714W        W41705  17.776   9.389  26.443  0.2929 -0.0162 -0.2712
98715W        W41706  20.174  25.259   3.552  0.2495 -0.0836  0.1236
98716W        W41707  30.115  26.201  18.932  0.0138  0.2458 -0.3148
98717W        W41708  17.508  29.258  20.967  0.0992 -0.0019 -0.0998
98718W        W41709  18.007   5.485  20.622  0.0972 -0.2636  0.2141
98719W        W41710  22.827  34.471  20.058  0.0893 -0.1461  0.2993
98720W        W41711  10.492   5.075  29.178  0.0346  0.0042 -0.2517
98721W        W41712  21.996  23.231  25.616 -0.1443 -0.0125 -0.1538
98722W        W41713   2.422   9.336  24.902 -0.0594 -0.2370  0.0783
98723W        W41714  26.220   5.432  22.626 -0.2927  0.2355 -0.0823
98724W        W41715  23.489   6.676  15.562 -0.2139 -0.0360 -0.3500
98725W        W41716  17.760  33.832   3.639 -0.1314  0.1659 -0.0693
98726W        W41717  11.132  33.849  27.002  0.0112 -0.0884  0.3906
98727W        W41718  34.777   2.303  25.344  0.2199 -0.0076 -0.3188
98728W        W41719  28.796  10.894   0.266 -0.2422 -0.2075  0.0602
98729W        W41720  20.614   4.391  19.562  0.2483  0.1208 -0.1728
98730W        W41721  19.936   7.363  25.328 -0.2301  0.2576  0.0252
98731W        W41722  16.432  34.730  17.834 -0.2107 -0.2732 -0.2097
98732W        W41723  30.546  21.980  25.026 -0.2357  0.3012 -0.0794
98733W        W41724  26.661   3.785  24.333  0.1815  0.2442 -0.1607
98734W        W41725  18.094  29.716  23.164  0.0353 -0.1812 -0.3868
98735W        W41726  26.262   0.507  24.121  0.0434  0.0513 -0.1262
98736W        W41727  25.436  31.485  19.400  0.1458 -0.2547  0.0180
98737W        W41728  18.813   4.865  22.313  0.4061 -0.0575  0.0339
98738W        W41729  29.656   2.238  23.047  0.0475  0.0796  0.2753
98739W        W41730  24.101  11.113  19.378  0.2794  0.1023  0.1053
98740W        W41731  27.914  33.179  14.888  0.0349  0.2214 -0.2336
98741W        W41732  19.841   3.625  20.327  0.1376 -0.1010 -0.2237
98742W        W41733  19.548   3.283  29.182 -0.0420 -0.1616  0.4734
98743W        W41734  14.169  13.579  17.541 -0.2834 -0.0344 -0.2032
98744W        W41735  16.133  29.222  23.088 -0.3116 -0.3221  0.3880
98745W        W41736  29.212   6.947  24.932  0.3192  0.1683 -0.3345
98746W        W41737  25.365  17.862  16.805  0.0644  0.0891 -0.0943
98747W        W41738  10.639  25.432  16.951  0.0953  0.0075 -0.3974
98748W        W41739  33.309   2.420   3.830  0.1181 -0.1306 -0.4441
98749W        W41740  13.725   3.320  20.673 -0.2329 -0.2808  0.1296
98750W        W41741  22.499   8.852  23.976 -0.0572 -0.0339  0.0003
98751W        W41742  16.463  18.162  14.231 -0.2686  0.0436 -0.3034
98752W        W41743   3.285  23.234  18.419  0.0925 -0.2676  0.0736
98753W        W41744  17.753  21.924   2.660  0.1894 -0.1782 -0.1060
98754W        W41745  25.104   5.657  24.633  0.0404  0.0072 -0.1907
98755W        W41746  19.543  16.040  16.368  0.0509  0.0461  0.2110
98756W        W41747  18.817   4.124  19.967 -0.1131 -0.0795 -0.0188
98757W        W41748  16.792   6.507  24.434  0.0452 -0.1468 -0.0978
98758W        W41749  11.083  31.503  27.433 -0.2319 -0.0989  0.2281
98759W        W41750  18.772   3.428  19.338 -0.0202  0.3427 -0.0732
98760W        W41751  34.578   1.238   6.074 -0.0025  0.0551  0.3456
98761W        W41752  22.235   3.794  20.944  0.1044  0.0535  0.1726
98762W        W41753  16.586  30.981   1.487  0.1770  0.0558 -0.2336
98763W        W41754  20.687  10.637  25.125  0.1576  0.2468 -0.0262
98764W        W41755  29.939   8.653  21.960  0.1297 -0.3085  0.0172
98765W        W41756  29.205   8.368  25.281  0.3091 -0.0245  0.4493
98766W        W41757  24.592   2.516  16.962 -0.0502 -0.0250 -0.0806
98767W        W41758  25.990   0.410  15.963 -0.3395  0.2113 -0.3010
98768W        W41759  28.451  25.822  13.498  0.3668 -0.0105 -0.2439
98769W        W41760  22.733  31.962   3.649  0.2713  0.1543 -0.0117
98770W        W41761  13.902  21.158  19.962 -0.0320  0.0977 -0.0561
98771W        W41762  27.174  17.685  16.300 -0.0845 -0.0633 -0.0102
98772W        W41763  33.189  15.358  19.484 -0.1651  0.2575 -0.0604
98773W        W41764  21.495  32.523  22.351  0.2612 -0.3296  0.0730
98774W        W41765   7.186   7.692   0.199 -0.1964  0.1757 -0.2264
98775W        W41766   0.973  10.792   1.730 -0.0278  0.2707  0.0769
98776W        W41767  27.331  26.052  23.216  0.0306  0.0072 -0.1355
98777W        W41768  10.804  12.051  17.080  0.2620  0.0237  0.2289
98778W        W41769  27.270  31.716  15.956  0.2862  0.0360  0.1638
98779W        W41770  32.063   5.056  20.787 -0.0150  0.0768 -0.1925
98780W        W41771  19.604  26.801  17.491 -0.1261  0.1792 -0.0812
98781W        W41772   1.285  27.188  19.173 -0.1060  0.2238 -0.1294
98782W        W41773  34.429   8.086   5.278 -0.1778 -0.1869  0.3308
98783W        W41774  24.608  17.122  20.265 -0.1481 -0.1895 -0.2249
98784W        W41775   9.778  33.777  27.418  0.1625  0.1036 -0.0464
98785W        W41776   1.920   5.427  17.089  0.1641  0.0301  0.0944
98786W        W41777  25.520   2.423  18.280  0.2003  0.3349  0.2800
98787W        W41778  30.105   0.093  17.355 -0.0075 -0.2295 -0.3460
98788W        W41779  27.451   8.692  18.979  0.0890  0.2457  0.5150
98789W        W41780  29.533   4.619  22.720 -0.2954 -0.0760  0.3241
98790W        W41781  24.654  24.567  17.682 -0.0240 -0.0667 -0.4669
98791W        W41782  24.613   6.088  17.530 -0.2039  0.0352  0.1382
98792W        W41783   0.106  31.945  20.319  0.2720  0.2442 -0.0629
98793W        W41784   7.023  16.952  26.504  0.1067 -0.2066  0.1485
98794W        W41785  20.900   7.622   2.497  0.2335  0.2267  0.1871
98795W        W41786  10.097   0.305  17.714  0.1766 -0.0535  0.1691
98796W        W41787  19.616  27.161  20.885  0.1144  0.1547 -0.2153
98797W        W41788  21.583   8.209  19.354  0.0465 -0.2617 -0.1409
98798W        W41789   4.182   2.042  14.973 -0.0780  0.2316 -0.1520
98799W        W41790  15.664   7.522  14.807  0.1474  0.2875  0.4527
98800W        W41791  25.184  23.769  14.539  0.0815  0.0003 -0.0057
98801W        W41792  33.927   3.554  18.818 -0.1363 -0.0829 -0.0074
98802W        W41793  12.655  28.794  26.105 -0.0631 -0.2832 -0.0587
98803W        W41794  27.965  10.519  26.851 -0.2819  0.1350  0.2152
98804W        W41795  17.050  22.595  25.105  0.0226  0.0439 -0.0843
98805W        W41796  29.266   5.295  26.881  0.5950  0.1013 -0.0086
98806W        W41797  23.832  12.813  17.348  0.0975 -0.0068 -0.0051
98807W        W41798  18.452   0.372  22.371  0.3239  0.1937 -0.0471
98808W        W41799  21.463  13.211  23.807  0.1166 -0.1471  0.0591
98809W        W41800   7.965  19.938  17.258  0.1151 -0.0669 -0.2089
98810W        W41801  16.345   0.309  17.261 -0.2877  0.0773  0.1487
98811W        W41802  17.665  31.037  19.428  0.2834 -0.1984 -0.0109
98812W        W41803  14.764  21.751   7.432 -0.0887 -0.0030  0.1317
98813W        W41804  27.111   0.696  23.894  0.0250 -0.0132  0.2050
98814W        W41805   9.780   4.042  17.349  0.0936  0.0183  0.3958
98815W        W41806  15.741  13.366  22.382 -0.0010  0.0965  0.2284
98816W        W41807  34.630   2.152  13.993  0.1308  0.0457 -0.0692
98817W        W41808   4.256   7.228   7.932  0.3222  0.2659  0.3353
98818W        W41809   8.378   2.313  22.609  0.1468  0.2328  0.0349
98819W        W41810  25.729  32.500  14.385  0.0764 -0.2420  0.1855
98820W        W41811  19.613  25.367  21.284  0.2130  0.0028 -0.0576
98821W        W41812   4.063   9.958  19.416 -0.1484  0.4250 -0.1796
98822W        W41813  26.721  10.413  14.060  0.2574 -0.0788  0.0026
98823W        W41814  19.628   0.283  25.247  0.2491 -0.1483  0.3443
98824W        W41815  23.056  34.570  21.000  0.1745  0.0733  0.4165
98825W        W41816  15.318  28.720  23.415 -0.5466  0.0141 -0.2190
98826W        W41817  32.690  17.112  20.204 -0.1319  0.1619 -0.0028
98827W        W41818  25.152  29.545  19.654  0.0581  0.1902  0.2718
98828W        W41819  26.891   4.749  23.103 -0.1149  0.2274 -0.1009
98829W        W41820  28.600  23.982  15.711 -0.0944 -0.0567 -0.0177
98830W        W41821  30.242  12.259  18.166 -0.0724 -0.2824  0.0047
98831W        W41822   2.554   7.864  24.781  0.0102  0.3808  0.1095
98832W        W41823  31.102  10.366   2.273  0.2865 -0.0655  0.0398
98833W        W41824  33.706  12.006  24.879  0.1685 -0.1761  0.0837
98834W        W41825  23.579  28.175  17.600  0.2181  0.1435 -0.2398
98835W        W41826  30.442  18.181   1.805 -0.1105 -0.1825  0.3900
98836W        W41827  32.266  16.515  19.860 -0.2058 -0.1890  0.4080
98837W        W41828  28.524  33.532   5.216  0.0520  0.0440 -0.0018
98838W        W41829  21.568   8.267  16.625 -0.0709 -0.0343 -0.1500
98839W        W41830   9.978  33.418  14.987 -0.2626 -0.0506 -0.2127
98840W        W41831   5.326  32.451  23.774  0.0044 -0.2296 -0.0262
98841W        W41832  33.880   1.823  17.999 -0.0939 -0.1837  0.1908
98842W        W41833   9.044   6.974  19.821  0.2453  0.0498  0.0940
98843W        W41834  29.171   2.242  27.690 -0.0860  0.2461 -0.2262
98844W        W41835  15.920   3.635  26.521  0.1278  0.0612 -0.1421
98845W        W41836  11.916  26.393  19.225 -0.0242 -0.1026 -0.2665
98846W        W41837  24.819  28.446  15.572  0.0303  0.4165  0.2671
98847W        W41838  20.848   3.381  21.930 -0.0031 -0.0010  0.3066
98848W        W41839   0.151   0.525  21.848  0.4572 -0.2739  0.3327
98849W        W41840   7.970   0.626  26.731  0.2784  0.1801 -0.0736
98850W        W41841  27.447   6.859  25.235  0.1570  0.2175 -0.1476
98851W        W41842  13.090  30.772   1.830 -0.2796 -0.0629 -0.3632
98852W        W41843  27.415   4.218  14.958  0.1035  0.0159 -0.0572
98853W        W41844  27.543  23.014  19.055 -0.1442 -0.0883 -0.2561
98854W        W41845  13.051   1.291  15.934  0.0246  0.0806 -0.2176
98855W        W41846  18.647  25.528  23.579 -0.0174  0.0308 -0.2513
98856W        W41847  16.036  30.254  19.796 -0.3372 -0.2491  0.0381
98857W        W41848  15.229  14.874  14.751 -0.0169  0.3724 -0.1115
98858W        W41849  31.215  34.571  18.834  0.0440 -0.0386  0.0146
98859W        W41850   1.118  24.526   8.181 -0.1115  0.0289  0.0962
98860W        W41851  20.926   5.179  27.686  0.1891  0.3577  0.1386
98861W        W41852  15.040  23.866  17.826  0.1603 -0.2412  0.1277
98862W        W41853  26.316   8.478  24.233 -0.0828 -0.1656  0.2112
98863W        W41854  19.333  23.972  16.407 -0.0332 -0.0656  0.2026
98864W        W41855   0.250   1.552   2.029 -0.1845  0.0128 -0.1299
98865W        W41856  28.446   1.803  13.864 -0.1538 -0.2708 -0.0431
98866W        W41857  21.029  13.066  16.275  0.1305 -0.2955  0.0185
98867W        W41858  29.473   5.309   3.667  0.1752  0.2084  0.0822
98868W        W41859  29.275   6.334  29.142 -0.2293  0.0691  0.1557
98869W        W41860  13.603   3.542  17.724  0.0461  0.2162 -0.0447
98870W        W41861  17.740  14.190  23.031 -0.3275 -0.0918  0.0394
98871W        W41862  17.869  21.327  19.316 -0.0717  0.0948 -0.0620
98872W        W41863  23.751   5.642  22.902 -0.2738 -0.4885 -0.0391
98873W        W41864   4.300   8.289  18.926 -0.3165  0.1252 -0.2261
98874W        W41865  29.448  24.429  13.791  0.1225  0.3330  0.0206
98875W        W41866  19.443  23.401  25.355  0.0874 -0.1668 -0.3040
98876W        W41867  21.056  19.783  27.288 -0.2806  0.0955  0.0224
98877W        W41868  31.391   0.569   3.930 -0.1024  0.0692 -0.2057
98878W        W41869  27.292   1.110   5.868 -0.2598 -0.0084  0.2967
98879W        W41870  18.594  34.070  18.956 -0.3436 -0.3054 -0.2764
98880W        W41871  27.730  19.815  21.177  0.3969  0.0223 -0.0126
98881W        W41872  21.744  18.072  19.400  0.2528 -0.2069  0.0467
98882W        W41873   1.638  33.361  27.257  0.0560 -0.0907  0.0603
98883W        W41874  13.379  34.692  17.840  0.0618 -0.1807  0.1356
98884W        W41875  19.683  34.133   3.201  0.0526 -0.3343 -0.0282
98885W        W41876  30.211  16.504  16.499 -0.4433  0.0653  0.2515
98886W        W41877  15.369  12.686  19.629 -0.1450 -0.0100  0.3200
98887W        W41878   3.395   8.598  20.155 -0.2632  0.0384  0.1930
98888W        W41879  30.850   5.394  17.293 -0.3533  0.2011 -0.0020
98889W        W41880   8.477  29.454  20.171 -0.0414 -0.2413 -0.4116
98890W        W41881  26.349  34.621  26.181 -0.1593 -0.0450 -0.2875
98891W        W41882  28.250  33.076  19.542  0.1648  0.2302  0.2138
98892W        W41883  12.986  25.339  18.244  0.0615  0.2866  0.1176
98893W        W41884  20.568   2.937  21.772  0.1819  0.1512  0.1344
98894W        W41885  27.116  14.738  14.592  0.3788 -0.2209 -0.3634
98895W        W41886  10.817  26.666  24.556 -0.0769  0.3135 -0.0615
98896W        W41887  18.497  31.358  20.112 -0.1726  0.0274 -0.0272
98897W        W41888  26.715   6.663  28.144 -0.2601  0.0592 -0.0892
98898W        W41889  17.936  16.633  14.132 -0.0092  0.1425  0.3038
98899W        W41890  20.178  32.822  15.688  0.0108  0.0024 -0.0834
98900W        W41891  25.468   9.463  19.787 -0.2886  0.2030 -0.1752
98901W        W41892  12.454   6.549  24.765  0.1379  0.0741 -0.0342
98902W        W41893   5.578   1.938  19.910 -0.1868 -0.1907 -0.2106
98903W        W41894  14.125   1.862  16.842  0.0885 -0.0593  0.2566
98904W        W41895  25.423  31.507  26.627  0.0924 -0.0137  0.0167
98905W        W41896  34.335  27.115   7.145 -0.0987 -0.0274  0.0506
98906W        W41897   6.990   6.771  20.314 -0.0615  0.0138  0.1498
98907W        W41898  20.439   4.981  19.321 -0.0960  0.0749 -0.0749
98908W        W41899  28.570   4.771  17.657 -0.0891 -0.0532  0.1319
98909W        W41900   4.189  13.472  26.369 -0.0578 -0.1063 -0.0129
98910W        W41901   4.130  11.929  19.788 -0.1713 -0.3255  0.1461
98911W        W41902  26.917  30.682   0.946 -0.2759  0.0806 -0.1863
98912W        W41903  20.638  23.357  18.541  0.1700 -0.0624  0.4723
98913W        W41904  26.574   7.063  19.901  0.1040  0.0409 -0.0954
98914W        W41905  11.162  29.974   9.720  0.0007 -0.2507  0.2879
98915W        W41906  29.514  29.533  13.461 -0.0403  0.3993  0.1534
98916W        W41907  30.058  13.223  27.564 -0.1870 -0.0073  0.3112
98917W        W41908   9.161  18.991  18.743 -0.3821 -0.2468  0.0972
98918W        W41909  10.575  29.832  15.907 -0.2149  0.1803 -0.1202
98919W        W41910  18.288  10.648  28.461  0.2599  0.0479 -0.0638
98920W        W41911  13.854  21.261  16.649  0.3126 -0.1444 -0.1433
98921W        W41912  13.356  11.295   1.601 -0.1990 -0.0738  0.2896
98922W        W41913  30.079  30.423  26.487  0.2570 -0.1304 -0.0737
98923W        W41914  33.347  30.189  20.225  0.3087  0.0223  0.0698
98924W        W41915  18.222  22.365  17.569  0.0078 -0.1663 -0.0310
98925W        W41916  31.780   8.639   0.137  0.3948 -0.2743  0.3661
98926W        W41917  31.605   4.450  18.112  0.0519 -0.3247  0.1828
98927W        W41918  32.377  34.576  21.399  0.4039 -0.2301  0.0994
98928W        W41919   0.398  30.617  14.642 -0.0437  0.1850  0.2088
98929W        W41920  26.386   0.229  14.961  0.2882 -0.1438 -0.3654
98930W        W41921  23.865  10.051  25.523  0.1853 -0.1450 -0.0809
98931W        W41922   9.022  32.126  22.381  0.3942 -0.1265 -0.1216
98932W        W41923  20.795   4.019  15.439 -0.0548 -0.0876  0.2203
98933W        W41924   2.249   5.150  22.540  0.0844  0.0744 -0.1014
98934W        W41925  27.175  23.237  29.224 -0.0966  0.0505  0.0201
98935W        W41926  13.339   3.708  20.283  0.2818 -0.1483  0.0513
98936W        W41927  28.485  30.715   2.659  0.0856 -0.0119  0.0790
98937W        W41928   9.786  28.240  15.826 -0.2414 -0.1541  0.1305
98938W        W41929  14.510  33.532  21.948  0.0129  0.0941 -0.2406
98939W        W41930  23.906   3.244  16.284  0.1178 -0.1335  0.0108
98940W        W41931  25.010  17.604  19.615  0.0667 -0.1266  0.3848
98941W        W41932  32.206   0.097  28.747 -0.4030 -0.0846 -0.1391
98942W        W41933  17.844  31.946  21.553 -0.0766 -0.0161 -0.4353
98943W        W41934   5.258   4.442  21.760 -0.0384 -0.2283  0.0460
98944W        W41935  21.807  30.298  27.383 -0.0725  0.2083 -0.5106
98945W        W41936  21.887  30.184  23.487 -0.1790  0.2726 -0.0625
98946W        W41937  28.596  33.269  21.327  0.1106 -0.3118 -0.1912
98947W        W41938   5.717   3.829   0.041  0.1228 -0.2474 -0.0762
98948W        W41939  10.744  27.558  23.301 -0.1629 -0.1771  0.2077
98949W        W41940  27.782   9.282  23.399  0.1234 -0.3965  0.0066
98950W        W41941  24.657   7.010  25.979 -0.0999 -0.2950  0.0042
98951W        W41942  26.406  22.472  16.692  0.0350  0.0999  0.0823
98952W        W41943  30.371   7.146  20.720 -0.1392 -0.1013  0.0071
98953W        W41944   2.254  10.907  23.541 -0.1124  0.2263 -0.1131
98954W        W41945  28.000   4.401  19.861  0.0933  0.3427 -0.4373
98955W        W41946  19.361  32.244  14.522  0.0972 -0.0553  0.3431
98956W        W41947   8.101   5.740  28.456  0.2221  0.2796 -0.0108
98957W        W41948  28.121  26.595  19.197 -0.0623  0.0289 -0.1726
98958W        W41949  19.750   6.142  15.278  0.0701  0.0655 -0.2858
98959W        W41950   8.597   0.229  18.561  0.1537 -0.0089  0.1896
98960W        W41951  24.340  23.794  20.094  0.0176  0.2229  0.0389
98961W        W41952  29.956   4.684  17.606 -0.0778  0.1654 -0.0553
98962W        W41953  27.568  32.570  17.856  0.2337 -0.2840 -0.4457
98963W        W41954  28.676  31.431  26.540  0.1066 -0.1234  0.3200
98964W        W41955  12.052   0.448  25.261 -0.0593 -0.5417  0.0448
98965W        W41956  15.622   7.820  15.262  0.1915 -0.1080  0.3124
98966W        W41957  25.237  28.061  17.136  0.2740  0.1117  0.0110
98967W        W41958  28.179  31.382  16.119  0.2437 -0.3354  0.0047
98968W        W41959   4.642   3.119  17.186 -0.4976  0.2924 -0.3904
98969W        W41960  15.121  10.774  14.483  0.3145 -0.1490  0.3693
98970W        W41961  21.415   5.270  26.491 -0.0478  0.2127  0.0944
98971W        W41962  13.920  15.835  15.950  0.1247  0.0877 -0.0315
98972W        W41963  27.682   9.858  24.926  0.0947  0.0170  0.0781
98973W        W41964  33.366  11.383  15.235  0.3548  0.0257  0.1685
98974W        W41965  25.725   2.047   1.415 -0.1510 -0.1287  0.1922
98975W        W41966  27.961  12.334  14.804 -0.1672 -0.3670  0.0123
98976W        W41967  11.074  30.243  21.457 -0.0405 -0.1433 -0.2530
98977W        W41968  26.078  27.444  19.471 -0.0667  0.3758  0.4655
98978W        W41969   0.955   2.353  14.247  0.2499 -0.2026 -0.0677
98979W        W41970  19.487  11.231   3.724  0.0699 -0.2862 -0.1628
98980W        W41971  25.351   8.832  19.980  0.2184 -0.1297 -0.2972
98981W        W41972  23.866  31.200  25.597  0.1871  0.1151  0.0064
98982W        W41973  19.036   3.841  19.615  0.0209  0.1896 -0.2009
98983W        W41974  16.597  29.827  14.242 -0.3405  0.1757  0.2724
98984W        W41975  32.348  21.855  17.254 -0.1750 -0.0078  0.0945
98985W        W41976  33.533  30.213   2.653  0.4224  0.1011  0.0458
98986W        W41977  23.911   4.840  22.104  0.2157  0.1358 -0.1594
98987W        W41978  16.063   1.199  19.249 -0.2366  0.0890  0.1735
98988W        W41979  22.843   2.586  25.728  0.0381 -0.2935 -0.0736
98989W        W41980   8.598   6.961  28.439  0.2514  0.1221  0.0205
98990W        W41981  19.608   0.251  18.408  0.3679  0.3406  0.0325
98991W        W41982  23.207  26.110  18.437 -0.2271 -0.0963  0.2447
98992W        W41983  31.373  30.611  23.371  0.0111 -0.0928  0.0258
98993W        W41984  25.876  34.229  18.234  0.0715  0.1988 -0.0430
98994W        W41985  16.958   8.108   9.954 -0.0428  0.0169 -0.0407
98995W        W41986  12.572  18.530   0.565  0.2063 -0.0306  0.2184
98996W        W41987  26.092   8.472  15.639  0.0080 -0.1755 -0.2532
98997W        W41988  25.041  30.587  23.725 -0.1336  0.0235  0.2258
98998W        W41989  15.746  30.232  26.386  0.1067 -0.1373  0.0459
98999W        W41990  29.989   7.260  18.588 -0.2743 -0.1871 -0.4857
99000W        W41991  21.469   7.354  22.730 -0.1741  0.0333 -0.1019
99001W        W41992   3.243   5.894  18.883 -0.0932  0.0245 -0.4168
99002W        W41993   9.219   8.398  19.160  0.1027 -0.0004  0.0860
99003W        W41994  19.726   3.380   3.067  0.1806  0.0287  0.0439
99004W        W41995  15.076  24.280  23.568 -0.3742 -0.0064 -0.0519
99005W        W41996  14.478  31.765  25.917  0.1133  0.0642  0.1307
99006W        W41997  25.691  24.469  14.895 -0.1432  0.0837  0.2206
99007W        W41998  31.576   3.233   2.338  0.0864  0.2593  0.3274
99008W        W41999  34.267   7.504  20.481 -0.0130 -0.2717 -0.0956
99009W        W42000  20.247  33.035   8.356  0.3086 -0.0026 -0.1031
99010W        W42001   7.483  25.855  22.616 -0.0558 -0.1001  0.0662
99011W        W42002  20.717  25.433  28.377 -0.2653 -0.1278  0.0755
99012W        W42003   1.856  23.901   2.432 -0.1453 -0.2655  0.1896
99013W        W42004  18.271  22.676   7.745  0.1648  0.2241  0.1369
99014W        W42005  23.706  34.286  13.846  0.1796 -0.1031 -0.0660
99015W        W42006  30.234   8.840  21.519  0.0147  0.2385 -0.0757
99016W        W42007  17.669   2.344   1.442  0.0887  0.3641  0.1147
99017W        W42008   1.628   1.234   0.275 -0.0635 -0.2112 -0.3170
99018W        W42009  17.518   1.516  19.528 -0.0562 -0.1858  0.0101
99019W        W42010  29.246  34.493  24.087 -0.1968  0.0118 -0.0506
99020W        W42011  34.460   4.087   4.803 -0.1061  0.1232  0.0589
99021W        W42012  18.487  30.378  21.962 -0.1191 -0.2475  0.1375
99022W        W42013  26.642  12.109  15.899 -0.0677  0.0056  0.1467
99023W        W42014  17.179  33.210  22.581  0.0221 -0.0153  0.1410
99024W        W42015  33.220  10.150   3.163 -0.0019  0.0568 -0.0870
99025W        W42016  23.142  34.713   1.989 -0.0368  0.0119  0.0217
99026W        W42017   6.698  13.503  29.025 -0.1597 -0.1513 -0.0157
99027W        W42018  14.895   4.148  21.350 -0.3947 -0.1743 -0.0078
99028W        W42019  21.102   3.237  20.573 -0.2981 -0.0702 -0.0622
99029W        W42020  11.717  28.500  19.720  0.1001 -0.2036  0.2760
99030W        W42021  28.993  17.472  18.661 -0.1068 -0.2092  0.4034
99031W        W42022  28.777  32.088  13.308  0.0515 -0.3698  0.1032
99032W        W42023  16.510   9.500  25.006 -0.3144  0.0018  0.4055
99033W        W42024  16.302  34.078  15.987 -0.2154  0.4400 -0.0581
99034W        W42025  33.011   5.764  19.398  0.1870  0.0811 -0.0465
99035W        W42026  20.396  26.324  15.580 -0.0788  0.4476  0.1316
99036W        W42027  22.721  10.842   3.168  0.0513 -0.0233  0.0539
99037W        W42028   1.989   9.687  21.716  0.0771  0.1508 -0.1146
99038W        W42029  34.731   8.504  14.429  0.2733 -0.1143 -0.3305
99039W        W42030   9.610  10.275  22.571  0.1597  0.0798 -0.1377
99040W        W42031  10.677   5.562  15.778 -0.0978 -0.1147 -0.0026
99041W        W42032  12.446   5.798  22.130 -0.1092 -0.2734  0.0018
99042W        W42033  29.246  28.368   4.756  0.2495  0.3764  0.0084
99043W        W42034  22.076  32.848   2.777  0.0958  0.1954 -0.2366
99044W        W42035  17.306  34.244  27.095  0.1013  0.3478  0.1262
99045W        W42036   2.439  26.159   1.743  0.2512  0.2032 -0.1691
99046W        W42037  13.080  22.716  21.107 -0.1465  0.1600 -0.2117
99047W        W42038   5.487   6.458  24.668 -0.1367 -0.0839 -0.2191
99048W        W42039  20.694   5.244  18.893 -0.0025 -0.1714  0.0762
99049W        W42040  25.219   6.615  19.177  0.1854 -0.0587  0.1555
99050W        W42041  32.740  24.814  18.565 -0.2281 -0.1487 -0.0151
99051W        W42042   9.310   0.211  21.518 -0.0842  0.1409  0.1696
99052W        W42043  31.019   4.226  14.073 -0.2180 -0.0427  0.0726
99053W        W42044  29.693   8.492  26.410 -0.3376  0.1944 -0.1542
99054W        W42045  22.659   6.397  24.041 -0.0750 -0.0773 -0.1474
99055W        W42046   5.875   9.049  23.505  0.0667 -0.2826  0.0465
99056W        W42047  13.276  27.408  22.039 -0.0421 -0.0637 -0.0832
99057W        W42048  27.646  26.634  24.061 -0.1919 -0.2246  0.2768
99058W        W42049   7.810  32.320  29.216  0.0524 -0.2195  0.0993
99059W        W42050  19.062  24.731  25.732 -0.1774  0.2448 -0.1325
99060W        W42051  22.575  14.157  14.383 -0.1546 -0.1229  0.0800
99061W        W42052   7.762  30.292  21.808  0.0537  0.0419 -0.0032
99062W        W42053  17.960   4.566   7.579 -0.4245 -0.0604 -0.0388
99063W        W42054   4.261  25.870  26.102  0.1416  0.1723 -0.1095
99064W        W42055  17.097  10.357  15.180  0.5007 -0.0660  0.0712
99065W        W42056  33.680  30.626  17.466  0.0478 -0.2782  0.2339
99066W        W42057   8.791  34.007  20.878 -0.2503 -0.1638  0.0952
99067W        W42058  30.263  28.252  13.723  0.2034  0.2260  0.0622
99068W        W42059  23.067  19.209  13.806  0.1131 -0.0555 -0.1426
99069W        W42060   1.508   1.268  21.456  0.1014 -0.0024  0.0488
99070W        W42061  14.484  30.127  21.500 -0.1530 -0.2293 -0.0499
99071W        W42062  29.274  14.778   9.332 -0.0432  0.1772 -0.0237
99072W        W42063  19.600  33.641  26.871  0.0463  0.1187  0.1298
99073W        W42064  32.263  28.033  23.458 -0.0328  0.0105  0.1578
99074W        W42065  13.167  34.664  15.717  0.0065 -0.2487 -0.0558
99075W        W42066  24.448  20.434  14.499 -0.1570 -0.1371  0.3275
99076W        W42067  26.007  12.771  25.604  0.0095  0.1305  0.0450
99077W        W42068  33.129  28.276   2.874 -0.1142 -0.0663  0.0143
99078W        W42069  27.139  33.769  19.301 -0.2383 -0.1589 -0.2253
99079W        W42070  12.402   0.938  29.227 -0.0022 -0.0007 -0.0125
99080W        W42071  27.290   8.053  24.271 -0.2823  0.0630 -0.1701
99081W        W42072  18.312  23.777   9.447  0.2508  0.7247  0.2678
99082W        W42073  25.241  29.588   8.897 -0.3164  0.0778  0.2125
99083W        W42074  28.312   5.433  16.152 -0.0976 -0.0292 -0.0705
99084W        W42075  29.097  28.589  27.746  0.3253 -0.0765 -0.0225
99085W        W42076   9.565  28.581   0.228  0.2857  0.0784  0.1756
99086W        W42077  27.655  33.852  15.902  0.1240  0.5086  0.0017
99087W        W42078  34.732  11.922  16.085  0.1455 -0.2054  0.5599
99088W        W42079  28.893  26.697  27.096  0.1368  0.1434  0.0812
99089W        W42080  23.563  30.689  14.784  0.1767  0.1752 -0.2261
99090W        W42081  22.340  33.733  21.130 -0.1195 -0.1364 -0.1407
99091W        W42082  21.839  16.754  17.473 -0.0379  0.0572  0.0832
99092W        W42083   6.653  25.758  14.806  0.1770  0.0959  0.0866
99093W        W42084  13.553   4.971   1.228  0.1370  0.0208  0.4105
99094W        W42085  26.752   5.326  14.261 -0.0242  0.1820  0.0036
99095W        W42086   1.537  30.623  13.612 -0.0393 -0.2454 -0.0820
99096W        W42087  29.647  32.582  15.792  0.1154 -0.0150  0.2708
99097W        W42088  26.651   5.282  15.945 -0.1394 -0.3862 -0.5086
99098W        W42089   9.670  19.110  14.555 -0.0636  0.2749  0.2816
99099W        W42090  25.815   5.994  27.748 -0.2620  0.0611 -0.2532
99100W        W42091  30.988  13.765  18.101  0.0094  0.0427  0.0268
99101W        W42092  21.196   0.054  26.325 -0.0890  0.0995  0.1058
99102W        W42093  24.622  11.773  15.342  0.1666 -0.0836  0.2848
99103W        W42094  30.572   5.900  18.734  0.0019 -0.2267 -0.1678
99104W        W42095  34.349  24.255  24.303  0.2221  0.0003  0.0157
99105W        W42096  23.423  27.913  26.733  0.0192 -0.2073 -0.1753
99106W        W42097  24.691   6.316   8.344  0.2779  0.3531  0.0267
99107W        W42098   5.451  29.113  25.420 -0.1338 -0.2047 -0.1150
99108W        W42099  31.957  11.671  26.180  0.0960 -0.0854  0.0518
99109W        W42100  27.167  30.076  23.140  0.5036  0.1940  0.2329
99110W        W42101   3.638  28.168   3.410  0.2366  0.0126 -0.2141
99111W        W42102  26.546  32.149  26.322 -0.1875 -0.1797 -0.0704
99112W        W42103  28.862   2.852  26.162  0.0977 -0.0070 -0.1024
99113W        W42104  17.908  30.079  15.619  0.0570 -0.0678  0.2523
99114W        W42105  32.201   6.398  15.931 -0.0229 -0.0142 -0.1240
99115W        W42106  20.145   5.659  27.637  0.2189  0.1081 -0.0245
99116W        W42107  26.362  30.568  15.542  0.2259 -0.0470  0.0436
99117W        W42108  18.111  27.218  20.129  0.1921 -0.2278 -0.0551
99118W        W42109  25.421  17.690  24.157  0.1257 -0.0786  0.0321
99119W        W42110   4.648  32.719  14.604  0.3911 -0.0827  0.0362
99120W        W42111  15.671  28.155  24.843  0.0246 -0.0103  0.0610
99121W        W42112  26.232  24.888   1.055  0.0663 -0.0559  0.3458
99122W        W42113   1.649   4.150  21.942 -0.0576  0.1875  0.2446
99123W        W42114   3.853  23.565  24.054  0.0219 -0.2603  0.2691
99124W        W42115   9.691   4.701  17.823 -0.0613 -0.2294 -0.0525
99125W        W42116  32.912  34.331  19.947 -0.2673 -0.1273 -0.0900
99126W        W42117  32.292  12.320   3.349  0.4692 -0.2049  0.1556
99127W        W42118  23.645  31.901  19.905 -0.0933 -0.0246 -0.1356
99128W        W42119   8.608   3.957  23.857  0.1398  0.0566  0.1873
99129W        W42120  32.505  33.201  28.310 -0.3349  0.0383  0.2830
99130W        W42121  17.170  24.213  18.622 -0.3254  0.0323  0.0975
99131W        W42122  29.486  28.759  20.500  0.0529 -0.0498 -0.0726
99132W        W42123   7.348  29.693   0.842 -0.1637  0.2342 -0.1400
99133W        W42124   4.233   8.536   0.356 -0.0777  0.1793 -0.0131
99134W        W42125  23.047   3.919  28.200  0.0741  0.1545  0.0272
99135W        W42126  29.250  19.243  18.553 -0.0033 -0.0392  0.0237
99136W        W42127  25.942  15.208   0.605 -0.1258  0.2308 -0.0860
99137W        W42128  22.638  21.613  15.869  0.0841  0.0395  0.0640
99138W        W42129  11.001  20.082  15.436 -0.1109  0.2161  0.0777
99139W        W42130  20.615  28.450  13.613 -0.0664 -0.2568  0.0613
99140W        W42131  21.450  34.620  21.673 -0.2556  0.2844 -0.0421
99141W        W42132   6.199   0.071  16.185  0.1907 -0.1361 -0.0550
99142W        W42133   1.726  12.310  19.290 -0.5485  0.4301  0.3341
99143W        W42134  12.099  34.400  21.638  0.0530  0.2984 -0.2482
99144W        W42135   6.272  17.094  21.563  0.0133  0.0725  0.2087
99145W        W42136  21.927  24.740  12.923 -0.0974 -0.2721  0.2106
99146W        W42137  13.327   5.878  24.738  0.0368  0.1580 -0.2719
99147W        W42138  20.378  26.345   1.124 -0.0187 -0.1213  0.1127
99148W        W42139  33.615  13.181  26.736 -0.2187  0.0389  0.0102
99149W        W42140  19.506   3.212  17.557 -0.0747 -0.1510  0.2733
99150W        W42141  32.109  25.107  22.447  0.2526 -0.1107 -0.2381
99151W        W42142  25.874   2.062  13.543  0.0881  0.0609  0.2750
99152W        W42143  13.595  14.817  13.500 -0.4184  0.2409 -0.3659
99153W        W42144  16.687  29.069  20.985  0.3402  0.1606 -0.0279
99154W        W42145  23.071  31.102  22.416 -0.0561  0.5722 -0.2870
99155W        W42146  26.473   9.110   2.975  0.0833 -0.1074  0.0711
99156W        W42147  26.847  13.865  22.475 -0.0718 -0.1981 -0.2097
99157W        W42148  13.031  19.868  20.423 -0.2831  0.0620  0.2064
99158W        W42149  12.290   7.232  14.963 -0.1071  0.1077 -0.0237
99159W        W42150  23.480  27.562  16.482  0.2806  0.0776 -0.0704
99160W        W42151  22.150  15.927  20.434  0.0754  0.2246  0.0692
99161W        W42152  19.932   1.978  26.945 -0.0241  0.1496 -0.2510
99162W        W42153  21.933  33.126  14.732  0.1468  0.1465 -0.1525
99163W        W42154  22.769   1.764  16.837 -0.1242 -0.1114 -0.0881
99164W        W42155  23.037   4.954  18.164 -0.0638  0.1409  0.0671
99165W        W42156   1.941  23.072  15.257  0.2541  0.1136 -0.0920
99166W        W42157  26.075  31.080  25.430  0.1207 -0.0521  0.0514
99167W        W42158  33.821  29.581  18.793 -0.0701 -0.1987 -0.2461
99168W        W42159  29.602  11.137  27.777  0.1788  0.0251  0.0578
99169W        W42160  11.694  10.066  16.064 -0.0331 -0.1751 -0.0909
99170W        W42161  17.190   5.519  17.495  0.2263  0.2112 -0.0930
99171W        W42162  25.548  19.205  21.185 -0.2599 -0.2109  0.0138
99172W        W42163   6.309  33.473   3.778  0.1620  0.1698 -0.1490
99173W        W42164   1.019   9.866  16.574  0.1933  0.1505  0.0405
99174W        W42165  28.735   2.098  16.383 -0.3812 -0.2242 -0.0790
99175W        W42166  26.059   4.180  13.896  0.1861  0.2812 -0.0849
99176W        W42167  16.323  31.994  18.119  0.3269 -0.3595 -0.4176
99177W        W42168  18.671  30.503  25.723 -0.0995 -0.0507  0.1055
99178W        W42169  26.881   9.854  17.566  0.0708 -0.3724  0.1708
99179W        W42170  31.406   3.540  18.238 -0.0399  0.0859 -0.0033
99180W        W42171  24.493  20.925  22.037 -0.0790 -0.1056 -0.1500
99181W        W42172  19.233  13.771  18.701 -0.1700  0.0029  0.3613
99182W        W42173  17.961   3.257  26.038  0.2066 -0.0189 -0.0021
99183W        W42174  17.678   2.432  25.618  0.2121  0.0642 -0.3343
99184W        W42175  21.679  28.263  23.259 -0.4213  0.1719  0.2113
99185W        W42176  24.409   5.582  14.832  0.2431  0.3264  0.0640
99186W        W42177  30.334  26.347  19.426  0.1196  0.0896  0.0624
99187W        W42178  16.968   2.958  18.786  0.0032  0.1900  0.0458
99188W        W42179  17.980  31.955  14.163 -0.2596 -0.4241 -0.2586
99189W        W42180  28.535  31.163  16.991 -0.1948 -0.0980 -0.0222
99190W        W42181  23.610   3.617  18.231  0.1131 -0.0845  0.1284
99191W        W42182  12.295  22.499   1.451  0.2529 -0.0819  0.0376
99192W        W42183  22.904  10.349  21.363 -0.3516 -0.1447 -0.0105
99193W        W42184  23.005  14.798  13.957 -0.0505 -0.2727  0.0668
99194W        W42185  20.994  28.540  28.038 -0.0326  0.0781 -0.1948
99195W        W42186   2.335   2.032  20.234 -0.2236 -0.1190  0.1137
99196W        W42187   3.045  30.943  20.682  0.3263  0.0368 -0.0463
99197W        W42188  25.476  34.319  16.059 -0.0198 -0.0688 -0.1869
99198W        W42189  24.716  25.178  28.530  0.0301  0.0875  0.0252
99199W        W42190  25.677  10.055  19.066  0.2304  0.2863  0.1803
99200W        W42191  28.992  25.613  12.849  0.2842  0.4255  0.0419
99201W        W42192  23.295  10.177  17.843  0.2049 -0.1107  0.1915
99202W        W42193  31.839  26.581  13.347 -0.2175 -0.1809  0.4012
99203W        W42194  13.761   4.526  29.098  0.3845 -0.1236 -0.2831
99204W        W42195  30.962  29.102  24.280 -0.1052 -0.2349 -0.3586
99205W        W42196  25.049   6.230  18.034 -0.2888 -0.1643 -0.2040
99206W        W42197  19.516   9.347  13.830  0.1292  0.2376 -0.0034
99207W        W42198  15.782  31.589  20.777  0.0455 -0.0149  0.2125
99208W        W42199   3.385  31.889  25.542 -0.1224  0.2467  0.2116
99209W        W42200  23.546   7.550   1.777  0.2260 -0.1960 -0.0462
99210W        W42201  21.340  33.358  13.407  0.1167 -0.0400 -0.1135
99211W        W42202  25.507  17.783  19.631  0.4046 -0.0955  0.0488
99212W        W42203  20.280  25.678  15.501  0.2042  0.0458  0.2996
99213W        W42204  24.050   9.430  18.815  0.0579  0.2684 -0.3548
99214W        W42205  28.056  28.816   5.759 -0.2591 -0.1783 -0.1742
99215W        W42206  17.124   1.332  15.341 -0.1031 -0.3111  0.1108
99216W        W42207  27.113  31.307   5.945 -0.0337 -0.1797 -0.0027
99217W        W42208  17.768   4.652  21.458 -0.0774  0.2030 -0.0708
99218W        W42209  25.027  10.758  25.140  0.0081 -0.0163 -0.0719
99219W        W42210  26.480  23.072  26.850 -0.0252  0.1641  0.0769
99220W        W42211  20.178  16.019  14.403 -0.1959  0.1452 -0.0874
99221W        W42212  26.723   1.694   3.758 -0.1530  0.0440 -0.2765
99222W        W42213  10.285   1.737  19.485  0.1390  0.3937 -0.2660
99223W        W42214  14.141  23.952  23.531  0.1583  0.1209 -0.2421
99224W        W42215  22.975   4.177   3.958 -0.3281 -0.2497 -0.1136
99225W        W42216   0.228  26.506  23.108 -0.1729 -0.0542  0.0544
99226W        W42217  29.566  31.954  13.964 -0.5321 -0.2770  0.1163
99227W        W42218  26.131  27.406   8.226 -0.0112 -0.1936  0.1649
99228W        W42219  23.968   4.582  14.953  0.5077  0.1582 -0.1540
99229W        W42220  14.603  25.348   6.019  0.1158  0.1039  0.1869
99230W        W42221  20.933  18.467  24.703  0.2780 -0.3377 -0.2568
99231W        W42222  32.715  34.603  28.755  0.0672 -0.1329 -0.0520
99232W        W42223  31.905  22.432  15.752 -0.0145 -0.0811 -0.0963
99233W        W42224  32.667   3.073   2.934  0.2743 -0.4736 -0.0744
99234W        W42225  26.841  10.278  18.538  0.2379  0.0281  0.1898
99235W        W42226  22.842  14.650  24.837  0.3170 -0.0669 -0.0762
99236W        W42227  27.170   9.057  21.053 -0.0733 -0.0392 -0.0693
99237W        W42228  24.694  13.063  22.878 -0.1332 -0.1460  0.0838
99238W        W42229  26.752   0.258   4.766 -0.1338 -0.0048 -0.1568
99239W        W42230  15.839  23.508  15.475 -0.1611  0.0369  0.0152
99240W        W42231  14.168  26.954  26.476 -0.1912 -0.0417 -0.0560
99241W        W42232  33.309  33.325   0.279  0.2537  0.0342  0.0230
99242W        W42233  34.329  18.438   3.704  0.0822  0.0899 -0.1358
99243W        W42234  16.214  13.091  20.153 -0.3949  0.0492 -0.3371
99244W        W42235  32.992  12.077  21.549 -0.1742 -0.1216 -0.2101
99245W        W42236  26.877   2.345  19.195 -0.1352  0.0490 -0.1135
99246W        W42237  24.804  22.201  22.164  0.0554 -0.2860  0.1720
99247W        W42238  10.339  28.174   3.052  0.1087 -0.1722  0.0734
99248W        W42239  12.045   1.147  18.077 -0.1971  0.1122  0.1883
99249W        W42240  30.374  21.404  29.078 -0.1073  0.1343 -0.1889
99250W        W42241   5.992  13.070   7.041 -0.3727 -0.2529  0.1112
99251W        W42242  31.238   7.941  20.418 -0.3323  0.2162  0.1700
99252W        W42243   0.783   8.940  25.215  0.1136  0.1321  0.4464
99253W        W42244  21.413  16.137   1.708  0.2460  0.0354  0.1738
99254W        W42245   1.160   5.288  21.742 -0.0893  0.0134 -0.1890
99255W        W42246  30.569  26.454  18.204  0.0828 -0.0610  0.0368
99256W        W42247  25.178  19.735  22.463 -0.1902  0.2744  0.0137
99257W        W42248  27.448   0.207  15.236  0.1488  0.1053 -0.1903
99258W        W42249  13.254   8.966  22.005  0.2203 -0.2873 -0.1897
99259W        W42250  29.843  30.952  23.541  0.0231  0.4702 -0.1096
99260W        W42251   3.732  30.482   4.786 -0.0533 -0.2950  0.3288
99261W        W42252  20.052   7.495  20.628  0.1736 -0.1785 -0.0114
99262W        W42253  21.715   1.432  26.295  0.1222 -0.0042 -0.1331
99263W        W42254  22.873  33.365  15.498  0.0397 -0.1988  0.0494
99264W        W42255  22.486  15.313  14.099 -0.1881  0.0049 -0.1572
99265W        W42256  25.121  24.126  24.173  0.0986  0.1086  0.1177
99266W        W42257  32.605   1.348  23.040  0.1728  0.0600 -0.1415
99267W        W42258  21.393   9.694  26.322  0.1793 -0.1585  0.0391
99268W        W42259   9.744   1.024  16.264 -0.1093 -0.1121  0.0859
99269W        W42260   5.109  27.453  27.268 -0.2347  0.0964  0.2029
99270W        W42261  22.262  10.975  17.850  0.1306  0.5436  0.1822
99271W        W42262  34.045   5.144  27.600  0.0401  0.0184 -0.1434
99272W        W42263  23.920  29.669  21.535  0.1226  0.2332  0.1030
99273W        W42264  30.594  20.301  15.436 -0.0884 -0.2998 -0.2787
99274W        W42265  24.104  15.961  23.368 -0.1353 -0.1578  0.1827
99275W        W42266  30.956   8.452   3.779 -0.2379  0.5104 -0.1665
99276W        W42267   4.356  25.502  16.473 -0.1768 -0.0833 -0.2115
99277W        W42268  21.888   4.838   7.317  0.0409  0.0662  0.1644
99278W        W42269  30.717   4.594  23.356  0.0467  0.0620  0.1377
99279W        W42270  24.233   0.573  25.753  0.0052 -0.0845  0.0809
99280W        W42271  24.374  26.698  27.804  0.1576  0.0929 -0.3434
99281W        W42272  16.522   3.487  19.298  0.2858  0.1370  0.1018
99282W        W42273  11.353   8.929   0.784  0.0225 -0.1324  0.0680
99283W        W42274   0.503  28.556  23.459  0.0470  0.3530  0.1050
99284W        W42275  31.832  27.104  14.374 -0.0837 -0.1547 -0.1268
99285W        W42276  10.762   6.889   0.324  0.0671  0.1871  0.1491
99286W        W42277   2.326   7.660  20.092  0.3039 -0.0693 -0.1804
99287W        W42278  14.760   4.692  14.726 -0.1311 -0.1047  0.2173
99288W        W42279  19.582   6.932   7.948  0.2135  0.0846 -0.1303
99289W        W42280   1.169   4.884  19.797  0.1046  0.1124  0.4187
99290W        W42281  27.400  31.100  15.983  0.0320  0.2490  0.2107
99291W        W42282  18.809  10.491  21.290 -0.0895  0.3521  0.0940
99292W        W42283   6.863   4.332   1.142  0.2052  0.1986  0.2041
99293W        W42284   9.556   8.941   5.895 -0.1446  0.0625 -0.1221
99294W        W42285  34.690  31.971   6.269 -0.0448 -0.2202 -0.2652
99295W        W42286  28.557  14.945  26.275  0.0579  0.0511  0.1657
99296W        W42287  21.760   1.623   4.484  0.0973 -0.1132  0.2295
99297W        W42288  21.169   8.534   4.166  0.1057  0.1045 -0.3410
99298W        W42289  27.252  33.130   7.571 -0.1938  0.0461  0.1666
99299W        W42290  30.546   9.028  15.827 -0.1478 -0.1603 -0.0170
99300W        W42291  25.739  20.891  26.599  0.1698 -0.1497  0.0778
99301W        W42292  10.568   6.740   5.113 -0.0502  0.2028 -0.0455
99302W        W42293  25.849  24.801  15.230 -0.0237  0.0863  0.1148
99303W        W42294  19.394  34.515   0.419 -0.0399 -0.0989 -0.2482
99304W        W42295  22.625  14.188   4.306  0.0486 -0.3061  0.0244
99305W        W42296  14.071  34.595   6.683  0.0796  0.1796  0.0424
99306W        W42297  25.125  29.601  12.956 -0.1594 -0.2295  0.1090
99307W        W42298  23.459  23.738  19.746 -0.1698 -0.0233 -0.1247
99308W        W42299  18.471  21.679  12.506  0.0532  0.0900 -0.0999
99309W        W42300  33.101  33.284   8.415 -0.2538 -0.0278  0.0471
99310W        W42301  31.788   1.470  24.208  0.3613  0.3207  0.1101
99311W        W42302  31.548   2.667   1.454  0.3007  0.0480 -0.1365
99312W        W42303  18.170  22.322  22.565  0.2922  0.2130 -0.2846
99313W        W42304  15.722   7.621  19.226 -0.1674 -0.0077 -0.2131
99314W        W42305  29.788  16.788  16.536  0.1680  0.1286 -0.0446
99315W        W42306  27.852  14.794  19.153  0.0063 -0.3199 -0.3412
99316W        W42307  23.276  10.178  22.576  0.0477  0.1973  0.0391
99317W        W42308  15.610  32.468  25.777  0.3141  0.1601  0.0385
99318W        W42309  12.896  10.419  27.554  0.1804 -0.1535 -0.2172
99319W        W42310  18.713   9.507  24.991 -0.2013 -0.3318  0.0431
99320W        W42311  28.362   6.681   7.148  0.2505 -0.0639 -0.1178
99321W        W42312   3.824  29.369  14.991  0.2809  0.0073 -0.2832
99322W        W42313  26.632  20.468   9.786 -0.1792 -0.2621  0.0511
99323W        W42314  27.987   8.173  14.189 -0.0260  0.0850 -0.0357
99324W        W42315   7.667   3.417  23.510 -0.0701 -0.1036  0.0307
99325W        W42316  15.709  18.743   7.990 -0.0504 -0.0118 -0.0535
99326W        W42317  28.472   6.045  28.430  0.1599  0.0773 -0.2520
99327W        W42318  29.018  24.812  14.617  0.3628 -0.1946  0.3016
99328W        W42319  24.819   9.663   1.590 -0.0395  0.0827  0.1459
99329W        W42320  12.493  31.630  25.485 -0.1179  0.1829 -0.2138
99330W        W42321  24.306  26.630  17.973  0.3681  0.0294 -0.1749
99331W        W42322  20.096  19.258  27.886  0.0417  0.0665  0.2700
99332W        W42323  20.813   0.010  15.345  0.0121 -0.0050  0.0813
99333W        W42324   6.834  18.076  18.189  0.0486 -0.0196 -0.1881
99334W        W42325  31.567   3.342  20.223 -0.0410 -0.0421  0.2165
99335W        W42326  23.961  28.467   7.512  0.4779  0.2138 -0.2014
99336W        W42327  27.567  29.883  22.043  0.0787 -0.1012  0.3704
99337W        W42328  20.291   9.711  18.590 -0.1281 -0.0483  0.0725
99338W        W42329  17.552   9.761   2.594  0.3843  0.0870  0.2416
99339W        W42330  16.457  21.829  24.042  0.2928  0.1134  0.1365
99340W        W42331  23.156  13.443  13.445  0.1356 -0.1857  0.1353
99341W        W42332  17.247   2.442  22.812 -0.3802 -0.0661 -0.1818
99342W        W42333  32.881  24.809  14.893  0.1272 -0.1923  0.2173
99343W        W42334  19.189   1.319  23.596 -0.2566  0.0370 -0.4001
99344W        W42335  23.552  23.060  22.465  0.0074 -0.0435 -0.0367
99345W        W42336  16.725   0.826   6.367  0.1193 -0.2467  0.1150
99346W        W42337  20.769  33.061  14.660 -0.2342 -0.0664  0.3032
99347W        W42338  32.317  30.051  14.755  0.2897  0.2301 -0.0794
99348W        W42339  23.509   9.878   1.222 -0.0395  0.0930  0.3179
99349W        W42340  20.836   5.718  18.982  0.2285 -0.3792 -0.0280
99350W        W42341  22.819  28.168  19.323  0.0865  0.0359  0.0965
99351W        W42342  22.196   2.598  14.079  0.1588  0.2328  0.0815
99352W        W42343  24.097   5.629   3.815  0.0159 -0.0504  0.2654
99353W        W42344  26.145   2.778  29.247  0.2135  0.0356 -0.2967
99354W        W42345  27.813  13.603  14.871  0.1277  0.2052  0.0051
99355W        W42346  18.183  31.407  17.798 -0.0219 -0.1394  0.1775
99356W        W42347  10.199  13.306  19.251 -0.0709 -0.0315  0.1711
99357W        W42348   8.284  23.296  29.172 -0.0154  0.0939  0.0504
99358W        W42349  31.077   6.267   2.600 -0.1290 -0.3155  0.1451
99359W        W42350  17.305   8.455  15.671  0.1217 -0.0637  0.3468
99360W        W42351  22.415   6.181   2.361 -0.1700  0.0821 -0.1160
99361W        W42352  30.076  23.204  20.996  0.0983  0.1651 -0.1509
99362W        W42353   3.429   9.815  22.592 -0.2625  0.1847  0.1614
99363W        W42354  21.443  21.933   3.682  0.0629  0.0069 -0.2050
99364W        W42355  24.840  19.691   3.145 -0.0042 -0.1590  0.0028
99365W        W42356  21.267  15.262  14.741  0.0333 -0.0887 -0.0845
99366W        W42357  21.599  23.502  21.514  0.1119 -0.2536 -0.1565
99367W        W42358   0.190   2.166   6.263 -0.0399 -0.1885 -0.0288
99368W        W42359  34.279  30.117   8.139 -0.2303 -0.0279  0.1912
99369W        W42360  23.303  18.832   7.863 -0.0863  0.4461 -0.0757
99370W        W42361   2.013   2.548  10.713  0.1976  0.1258 -0.3222
99371W        W42362  20.919  12.837  24.521 -0.1427  0.0471 -0.0277
99372W        W42363  16.998   1.348  19.419 -0.1580  0.1906  0.0326
99373W        W42364  22.120   3.646   3.298  0.0409  0.0944 -0.1366
99374W        W42365  25.255  32.997  23.176 -0.0486 -0.2595 -0.0138
99375W        W42366  32.310  22.038  21.971 -0.1075  0.0568  0.0444
99376W        W42367  29.294  18.797  19.056  0.3312 -0.0692  0.2001
99377W        W42368  27.520  26.786  20.982  0.1407 -0.2679 -0.0855
99378W        W42369  32.778  16.173   0.019  0.0892 -0.2698 -0.2142
99379W        W42370   6.690  34.581  20.977 -0.2095  0.0563 -0.0049
99380W        W42371  11.698   2.076  15.589  0.0650  0.4696 -0.0456
99381W        W42372  33.593  14.174   9.797 -0.0375 -0.0397 -0.0039
99382W        W42373  29.419  30.100  23.177  0.0985  0.0622  0.1795
99383W        W42374  22.690   1.486   6.057  0.4777 -0.3623 -0.1434
99384W        W42375  30.658   3.780   5.262  0.0187  0.0766  0.3085
99385W        W42376  28.278  10.950  29.261  0.0059  0.3625 -0.3348
99386W        W42377  14.356   1.174  21.305 -0.2906 -0.0457 -0.2381
99387W        W42378   1.831  33.293  19.179  0.2086  0.2184 -0.2555
99388W        W42379  20.029  22.616  19.323  0.2160  0.1153 -0.2064
99389W        W42380  31.363  30.211   8.224  0.1765  0.1555  0.1254
99390W        W42381  20.014   1.425  28.236 -0.1721  0.0105  0.0184
99391W        W42382   5.463  25.451  22.523  0.2652  0.1629  0.0204
99392W        W42383  24.160  26.162  21.810 -0.0476 -0.0577  0.2811
99393W        W42384  29.422  28.973  19.282  0.2057  0.1123 -0.0005
99394W        W42385   3.057  10.229   8.784 -0.1963  0.1779 -0.2038
99395W        W42386  23.694  28.901  23.927 -0.2491 -0.4068  0.0353
99396W        W42387  29.198   6.481  20.370  0.0646 -0.1011 -0.0522
99397W        W42388  30.698  16.230   5.049 -0.2763  0.1784  0.0261
99398W        W42389  21.563  33.162  21.207  0.2200  0.1523  0.2415
99399W        W42390   0.517   5.848  27.463  0.5174 -0.1170 -0.0720
99400W        W42391  15.251  33.658  15.578 -0.2344  0.1895 -0.1925
99401W        W42392  18.020   4.626  27.922 -0.0060  0.3199 -0.3327
99402W        W42393  22.598  30.026   2.936  0.2678  0.1182 -0.2188
99403W        W42394  21.571   8.992  22.435 -0.1296  0.1269 -0.1163
99404W        W42395  29.218  34.722   1.325  0.1865 -0.6151 -0.0238
99405W        W42396  27.163  29.954  23.607 -0.1015  0.0353 -0.0454
99406W        W42397  20.195  30.763  13.536  0.1294  0.0247  0.0359
99407W        W42398  23.188  18.273  24.156  0.1603  0.2526 -0.3230
99408W        W42399   6.537  29.520   5.867 -0.0328 -0.0780 -0.0619
99409W        W42400   2.401  32.090  27.660 -0.0589 -0.1250 -0.2478
99410W        W42401  14.604  31.756   4.315  0.1528  0.2532  0.0839
99411W        W42402  25.160  30.635   5.366 -0.0674 -0.1357  0.2254
99412W        W42403  16.706  27.674   6.401 -0.1592 -0.1604  0.0272
99413W        W42404   0.018  21.818  15.987 -0.2485 -0.4495  0.2071
99414W        W42405  18.442  33.334  17.925  0.2746  0.0694  0.0703
99415W        W42406  18.544  33.251  24.892  0.1411 -0.1374  0.2003
99416W        W42407   8.658  27.973   2.828  0.1151  0.0192  0.1405
99417W        W42408  23.184  31.307   4.797  0.3689 -0.0757  0.0451
99418W        W42409  29.825  23.378  13.339 -0.0575 -0.1963 -0.1168
99419W        W42410  17.404  18.106   6.213 -0.3640  0.1673 -0.0440
99420W        W42411   8.019  32.642  20.365 -0.1095  0.3365 -0.0172
99421W        W42412   2.248  29.650  16.024  0.2349 -0.0024  0.0877
99422W        W42413   1.663  24.240  23.616  0.0388 -0.2140 -0.2679
99423W        W42414  19.529   3.038  26.359 -0.0779  0.3278 -0.1601
99424W        W42415  26.936  22.568  23.025 -0.3794  0.1930  0.0730
99425W        W42416  23.441  21.828  24.073 -0.1213  0.2007  0.2521
99426W        W42417  18.511  28.314  13.721 -0.2518  0.1312  0.4142
99427W        W42418  26.856  33.568  26.990  0.0991  0.1833  0.1880
99428W        W42419  15.848  32.518  15.822 -0.0595 -0.2680  0.0549
99429W        W42420  13.628   7.580  10.561 -0.1619 -0.1102 -0.0717
99430W        W42421   9.034  28.888  16.658 -0.1281  0.2145  0.2126
99431W        W42422  21.537  33.942  16.231  0.1055  0.2006  0.0459
99432W        W42423  14.855  10.502  22.702  0.0324 -0.3611 -0.0694
99433W        W42424  20.539  33.981   1.522 -0.0868  0.0703 -0.1560
99434W        W42425  31.455   8.274  22.233 -0.1917 -0.0327 -0.0198
99435W        W42426  26.184  25.128  15.447  0.1799 -0.1192  0.2141
99436W        W42427  13.813   8.002  15.572 -0.3181 -0.0618  0.2222
99437W        W42428  20.329  31.478  22.858  0.1270 -0.0349 -0.1985
99438W        W42429   2.384  27.741  15.464 -0.0778 -0.3846  0.0316
99439W        W42430  32.772  16.919  18.927 -0.4673  0.2535  0.0229
99440W        W42431  21.458   6.241  19.481  0.0122  0.2289 -0.0305
99441W        W42432  16.562   4.109  25.964  0.0189  0.1608 -0.3089
99442W        W42433  19.365  32.375  18.229  0.1879 -0.2093  0.0319
99443W        W42434  21.009  18.626   7.902 -0.1197  0.5975 -0.0502
99444W        W42435  29.920  10.891  18.425 -0.0566  0.2856  0.2375
99445W        W42436  12.523   4.607  16.387 -0.1509 -0.1905  0.4230
99446W        W42437   2.453  21.052  22.345  0.0141  0.1498  0.0121
99447W        W42438  28.280  19.400  18.571 -0.2514  0.2166 -0.2472
99448W        W42439  20.699   2.233  25.486 -0.2411 -0.0358 -0.1541
99449W        W42440   3.857  23.163   6.530 -0.0847 -0.2560  0.0639
99450W        W42441  14.765  24.926  28.854 -0.0160 -0.0237  0.1475
99451W        W42442  29.750  16.378   3.832  0.2372 -0.1525 -0.2529
99452W        W42443  30.566  26.195   7.369 -0.0811  0.0255 -0.0176
99453W        W42444  18.594  32.111  17.720  0.2098  0.2022 -0.3002
99454W        W42445  20.523   0.782  14.719  0.0405  0.0289  0.0594
99455W        W42446  26.036  28.112  16.646 -0.2283  0.0329  0.1299
99456W        W42447  18.512  13.182  18.974  0.3619 -0.4732  0.1887
99457W        W42448  16.924  21.572  20.930 -0.0693 -0.1208  0.0635
99458W        W42449  25.051   1.334   1.124  0.1415  0.3606  0.0836
99459W        W42450  23.048  11.005  22.860  0.3282  0.0942  0.0307
99460W        W42451  17.160  29.793  27.877  0.2086 -0.0194  0.0318
99461W        W42452  15.996  15.323  12.351  0.1944  0.0667 -0.2293
99462W        W42453  29.123   1.448  13.102  0.2339 -0.0566  0.1124
99463W        W42454  22.748   0.954  18.837 -0.0483  0.1365  0.3903
99464W        W42455  34.691  12.404   1.436 -0.1089 -0.2810 -0.0057
99465W        W42456  16.405  31.911  26.814  0.4110 -0.2122 -0.0957
99466W        W42457  17.447  26.701   7.763 -0.1650 -0.1718  0.0524
99467W        W42458   1.807  33.745   9.885 -0.1214 -0.0352 -0.0176
99468W        W42459  21.011  28.237  28.465 -0.3168  0.4593  0.3100
99469W        W42460  10.659   2.549  18.073  0.0007 -0.1833  0.1155
99470W        W42461  16.580   7.268  16.008 -0.1610  0.1097 -0.1681
99471W        W42462  26.075   0.294   1.227  0.2058 -0.0094  0.1139
99472W        W42463   9.124   2.610   7.852  0.0291  0.1865 -0.1316
99473W        W42464  25.010  33.302  21.785  0.3568 -0.0150 -0.0088
99474W        W42465  32.241  21.984   7.880 -0.0497 -0.0456  0.2648
99475W        W42466  28.509  13.070  29.242  0.2482  0.0759 -0.2966
99476W        W42467  26.117  22.295   2.841 -0.0041 -0.1686 -0.1057
99477W        W42468   4.312   4.452   1.976  0.0075 -0.2130  0.2883
99478W        W42469  11.873   9.203  28.608  0.1581  0.0612 -0.0575
99479W        W42470  30.176  10.530  20.255  0.0207  0.3705  0.1443
99480W        W42471  22.468   1.049  29.184  0.2627 -0.2309 -0.0482
99481W        W42472  20.402   9.633  22.006  0.0201  0.0541  0.1442
99482W        W42473  18.546  14.791  26.019 -0.2121 -0.0849 -0.3843
99483W        W42474  13.706   9.124  16.462 -0.1996 -0.3700 -0.3579
99484W        W42475  23.431  30.535  22.685 -0.2584 -0.0627 -0.0113
99485W        W42476   9.117  16.627  21.070  0.1147 -0.1780 -0.1577
99486W        W42477  31.300   4.870  15.886  0.0939 -0.2546  0.0384
99487W        W42478  17.975  26.040   0.476 -0.1359 -0.1269 -0.1193
99488W        W42479  24.364  11.109  25.639  0.1893 -0.0842  0.0990
99489W        W42480   5.901  27.464   3.088 -0.0821 -0.0784 -0.1828
99490W        W42481  14.314  33.811  25.113  0.4075  0.1402 -0.0680
99491W        W42482  22.021   2.855  25.348 -0.2019 -0.0273  0.1768
99492W        W42483  27.332  31.851  22.417  0.0160 -0.0108 -0.0670
99493W        W42484  17.945   7.089  15.988 -0.1942  0.4323 -0.0242
99494W        W42485   5.227   1.557   0.323  0.2449 -0.0942  0.1905
99495W        W42486  29.981   7.586  27.029 -0.1514  0.0664  0.0591
99496W        W42487  30.666  15.963   8.214  0.3037 -0.2579  0.2082
99497W        W42488   4.800   0.725  16.582  0.2460 -0.3996  0.1187
99498W        W42489   8.387   2.769   0.328  0.0021  0.2072 -0.0361
99499W        W42490  19.736  13.495  18.830 -0.0479  0.2251 -0.1599
99500W        W42491  14.070  22.267   4.043 -0.1314  0.1706  0.0026
99501W        W42492  17.164  27.737  22.686 -0.3007 -0.1810 -0.1173
99502W        W42493  10.330  24.058  25.637 -0.2306  0.1633  0.0547
99503W        W42494  17.568   8.020   6.933  0.0696  0.1362  0.1453
99504W        W42495  32.493  28.808   3.367  0.1019 -0.3020  0.2572
99505W        W42496   3.576  24.635  15.641 -0.0094  0.0556  0.0366
99506W        W42497  25.206  32.245  14.427  0.1013 -0.0469  0.2667
99507W        W42498  34.092  27.169  15.908 -0.1821 -0.4008  0.0721
99508W        W42499  31.623  33.785   4.079  0.1677 -0.1442  0.0732
99509W        W42500   2.061  12.780  24.226 -0.1166 -0.1239  0.3355
99510W        W42501  31.188  32.097   8.391 -0.0841 -0.1260 -0.2396
99511W        W42502  25.840  22.700   7.118  0.0321 -0.5251  0.0756
99512W        W42503  10.582  10.667   6.560  0.0557  0.3262  0.0161
99513W        W42504   2.454   1.890  17.885 -0.0998 -0.0386 -0.3111
99514W        W42505  12.938  33.922  21.998  0.0173  0.1567 -0.2961
99515W        W42506  19.711  23.199  19.367  0.3602 -0.1964  0.0935
99516W        W42507  27.355  27.388   0.309  0.1572  0.1641  0.0834
99517W        W42508   8.838  32.436   0.252  0.0869 -0.0562 -0.2513
99518W        W42509  31.248   3.226  18.760 -0.3816  0.1273 -0.1471
99519W        W42510  30.704  13.589  17.734 -0.2417 -0.2548  0.0394
99520W        W42511  30.576   7.919   6.408  0.3293 -0.0730 -0.1017
99521W        W42512  20.896  17.722  16.143 -0.1819 -0.0136  0.0488
99522W        W42513  18.925   3.081   3.315  0.2435  0.0157 -0.0098
99523W        W42514  23.101  34.132  22.174 -0.1249 -0.0517 -0.2023
99524W        W42515  11.502   0.947  17.299  0.0957 -0.3579  0.0925
99525W        W42516  14.526  25.142  15.179  0.3479 -0.2367 -0.0499
99526W        W42517  34.427  34.542  25.519 -0.0918  0.1857 -0.1990
99527W        W42518  28.036  20.950  10.213 -0.0780  0.0128  0.3222
99528W        W42519  23.835   6.950  18.843  0.0294 -0.0964  0.0875
99529W        W42520  27.200  30.349  28.040  0.1315 -0.2125 -0.0257
99530W        W42521  10.925   3.130   0.239 -0.0178 -0.0058 -0.1902
99531W        W42522  28.787  34.131  13.947 -0.0979 -0.2054 -0.0568
99532W        W42523  26.013  13.097  17.262  0.0457  0.2076  0.1293
99533W        W42524   1.877  24.734   4.455  0.1860 -0.0203 -0.0369
99534W        W42525   6.406  31.485   5.587 -0.1753  0.2864  0.2060
99535W        W42526  14.931  20.629  19.060 -0.0314  0.1575 -0.0654
99536W        W42527  23.718  34.694   1.846  0.1114 -0.0395  0.0200
99537W        W42528  27.573  31.005  23.978 -0.0571  0.0532  0.0407
99538W        W42529   4.169  30.142  23.933  0.1674 -0.2864 -0.0893
99539W        W42530  29.130  32.504  26.073 -0.0428 -0.0786  0.2426
99540W        W42531  24.561  34.602  24.709  0.1065 -0.0499  0.1466
99541W        W42532  28.004   0.985   1.259  0.0931 -0.1116 -0.1755
99542W        W42533  22.296  27.585  25.213 -0.0666 -0.0606  0.2413
99543W        W42534  20.998   1.768  16.770  0.1256 -0.5457 -0.1039
99544W        W42535  26.392   6.347  15.961  0.1939  0.1223  0.2430
99545W        W42536   1.595   5.369  26.768  0.0251 -0.0585 -0.1563
99546W        W42537  19.301  14.719  28.704 -0.1289  0.3389  0.1760
99547W        W42538  31.921  12.043  24.477  0.1134  0.0245  0.3191
99548W        W42539  13.586  29.363  21.927 -0.0130 -0.2728 -0.1418
99549W        W42540  31.636  27.668   5.017 -0.2055 -0.1434 -0.1872
99550W        W42541  34.142   5.112  13.946  0.0696 -0.1648  0.0255
99551W        W42542  26.940  33.659  24.536 -0.0899  0.1555  0.1858
99552W        W42543  33.064  10.691  26.701  0.2901 -0.2472 -0.0914
99553W        W42544  15.257   5.321  10.753  0.1788  0.0561  0.0153
99554W        W42545  22.441  17.533  18.361  0.1164  0.1085  0.2325
99555W        W42546  32.067   3.207  18.231 -0.0133  0.2458  0.4208
99556W        W42547  25.047  17.292  16.299  0.1290 -0.1943 -0.1019
99557W        W42548  30.942  20.141  25.589 -0.3411  0.1052 -0.1726
99558W        W42549  29.023  27.618  13.296  0.1255  0.0879 -0.0770
99559W        W42550  23.206  32.486  23.990  0.2221 -0.1224 -0.1493
99560W        W42551  16.376   1.183  24.997 -0.0408  0.2478 -0.2073
99561W        W42552  20.063   8.963   7.675 -0.0113 -0.1148 -0.3282
99562W        W42553   4.225   4.121  26.311 -0.1214  0.0704 -0.0638
99563W        W42554   5.729  34.275  22.493  0.1375  0.2127  0.3884
99564W        W42555  13.751   4.051  17.808  0.3858  0.0881 -0.1108
99565W        W42556  33.831  25.104   8.065 -0.0479 -0.0623  0.0221
99566W        W42557   1.132   4.911  21.409 -0.2314  0.2329  0.1568
99567W        W42558  23.373   6.045  19.604  0.1196 -0.1801  0.0078
99568W        W42559  25.258   5.467  23.262 -0.1698 -0.1919 -0.0515
99569W        W42560  19.639  26.918  15.525  0.3204  0.0625  0.0970
99570W        W42561   2.533  31.276  15.202  0.3109  0.1478  0.0067
99571W        W42562   9.800  27.928  21.839 -0.0341  0.2281  0.0768
99572W        W42563   7.568  34.510   9.093  0.1383 -0.3411 -0.0542
99573W        W42564  21.246  30.732   2.230  0.1513  0.0055  0.1377
99574W        W42565  17.299  28.173  16.042  0.0830 -0.0037  0.0803
99575W        W42566  22.993  30.635  16.727  0.1460 -0.2552  0.1920
99576W        W42567  24.846  32.185  24.658  0.0660 -0.0653  0.0780
99577W        W42568   1.224   2.604   7.975  0.1856 -0.1110 -0.1663
99578W        W42569   8.156  13.732  19.465 -0.0587 -0.3967 -0.1456
99579W        W42570  16.635  33.414   6.377 -0.0919  0.0991 -0.0417
99580W        W42571  23.140  21.406   1.810  0.0771  0.0227 -0.3720
99581W        W42572  24.660  22.851  26.929 -0.2285 -0.1334  0.0267
99582W        W42573  20.246  27.454  19.418  0.0483  0.0021 -0.2295
99583W        W42574  23.333   6.896  16.060 -0.2336  0.2403  0.1588
99584W        W42575  14.309  12.088  16.326  0.0513  0.1423  0.1994
99585W        W42576  29.047   7.220  15.603  0.1030 -0.0698 -0.1726
99586W        W42577  25.381  34.785  13.734 -0.2484  0.0369 -0.0851
99587W        W42578  16.267   0.075  16.239  0.0001  0.0045 -0.0039
99588W        W42579  24.837  22.922  14.511  0.0507  0.1517 -0.0521
99589W        W42580  28.356  12.185  21.412 -0.0990 -0.1199 -0.1083
99590W        W42581  20.919   4.083  21.033  0.2060  0.0785 -0.0037
99591W        W42582  19.547   4.316  16.025 -0.1275 -0.3271 -0.0402
99592W        W42583  16.370  24.594  14.977 -0.0496 -0.2365 -0.1118
99593W        W42584   2.007  25.779  15.022 -0.0292 -0.4231 -0.1408
99594W        W42585  12.516  34.154  19.033  0.2725 -0.1895 -0.1830
99595W        W42586  15.844  12.538   6.034 -0.2259 -0.1553  0.0886
99596W        W42587  27.329  10.684  20.036 -0.0364 -0.0616 -0.0362
99597W        W42588  15.353   5.332  20.314  0.1977 -0.1981  0.0451
99598W        W42589  29.088  16.504  17.838 -0.1442  0.0147 -0.0061
99599W        W42590  24.198  34.400  23.875  0.0005 -0.0521 -0.2612
99600W        W42591  20.777   0.953  29.252  0.1991  0.0698 -0.1913
99601W        W42592  27.121   3.583   7.725 -0.1821  0.6767 -0.1034
99602W        W42593   3.113  32.356  15.901  0.0142 -0.4405  0.1400
99603W        W42594  25.669   2.529  22.449  0.2000 -0.3121  0.0517
99604W        W42595  27.997  26.058   8.651 -0.1104 -0.5866 -0.0992
99605W        W42596   2.547  30.640  24.541  0.1350  0.1669 -0.1671
99606W        W42597  18.288  27.873  28.171 -0.1917  0.0080 -0.3416
99607W        W42598   9.392  30.996  23.752  0.1903  0.1564 -0.2289
99608W        W42599  28.240  27.776  17.523  0.0143 -0.1514 -0.0762
99609W        W42600  13.343  12.495  21.778  0.1296 -0.0702 -0.4314
99610W        W42601  18.824  33.013  16.224 -0.1519  0.0160 -0.1140
99611W        W42602  17.777   6.785  20.847  0.4534  0.0257  0.3051
99612W        W42603  23.977   0.696   3.198  0.1165  0.0228 -0.0031
99613W        W42604  30.708  24.333  27.511 -0.3119  0.1337 -0.2312
99614W        W42605  26.576  29.605  19.647 -0.0585  0.2228 -0.3559
99615W        W42606  25.275   4.540  16.024  0.1623 -0.0511  0.1896
99616W        W42607  32.207   9.195  19.454  0.0679  0.0235 -0.0943
99617W        W42608  19.694  22.434  23.744  0.1845  0.3016 -0.4150
99618W        W42609  34.783  13.007   8.947 -0.1950 -0.0451  0.2577
99619W        W42610   0.676   0.529   1.944  0.1002 -0.2897 -0.0259
99620W        W42611  16.250   0.708   6.406 -0.0782  0.0827 -0.3522
99621W        W42612  27.298   3.822  28.992 -0.1659 -0.1250  0.1314
99622W        W42613  14.605  33.538  10.705  0.3760 -0.0910  0.1258
99623W        W42614  16.469   8.343  10.352  0.5130 -0.2932  0.0807
99624W        W42615  31.270   5.777  23.229  0.1183  0.2059 -0.3046
99625W        W42616   5.309   2.045   0.297 -0.0739 -0.0594  0.1136
99626W        W42617  16.841  34.510  27.287  0.0433 -0.3852 -0.1441
99627W        W42618  19.305  25.494   2.014 -0.2127 -0.1311  0.1029
99628W        W42619  28.410   3.601   6.014  0.1217 -0.1651  0.3409
99629W        W42620   0.195   5.795  18.513 -0.0468 -0.1093 -0.2016
99630W        W42621  25.191  10.054   0.147 -0.1682  0.0042  0.0203
99631W        W42622  10.956  31.849   7.428  0.1787 -0.1683  0.0994
99632W        W42623  22.016   6.726  22.134 -0.0636  0.1951 -0.3074
99633W        W42624  14.882  30.805   9.957 -0.2549  0.3590  0.1634
99634W        W42625  13.566  21.875  15.766 -0.1649 -0.1141  0.0499
99635W        W42626  22.643   9.925  15.106  0.0865 -0.1226 -0.3057
99636W        W42627   0.371  19.653  25.411 -0.0755  0.1139 -0.0438
99637W        W42628   3.649  19.815  22.308  0.2196  0.0836 -0.2035
99638W        W42629  32.906   1.510  18.011  0.4600 -0.0644 -0.0063
99639W        W42630  31.847  12.900   7.537  0.2467  0.2328  0.0673
99640W        W42631  15.665  25.113   7.267 -0.1053 -0.1136 -0.0956
99641W        W42632  26.146   0.976  23.532 -0.1956 -0.0319  0.0586
99642W        W42633  28.134  29.252   2.868  0.3166 -0.3802 -0.0182
99643W        W42634  12.639   3.164   3.241 -0.0867  0.1589  0.0948
99644W        W42635  11.184   0.866  20.280 -0.1437  0.0830  0.2972
99645W        W42636  34.375  30.176  14.213 -0.1686  0.0152  0.0048
99646W        W42637   8.427  34.712  23.607 -0.2146  0.0536 -0.0272
99647W        W42638  14.173  34.245  21.061  0.2734  0.1163 -0.1107
99648W        W42639   1.254   7.897   4.354 -0.5329 -0.0495 -0.0019
99649W        W42640  23.398   6.827  12.946  0.0652 -0.3949  0.4283
99650W        W42641  29.483  21.431   8.226 -0.0451 -0.0004 -0.0574
99651W        W42642  11.154  29.862   3.997  0.2115  0.1989  0.0003
99652W        W42643  21.700  19.283  27.967 -0.1003  0.3735 -0.2641
99653W        W42644   4.951  25.967  15.001  0.0594  0.1098 -0.0427
99654W        W42645  24.013  27.061   1.866  0.0096 -0.0594 -0.2153
99655W        W42646  17.882  10.515   5.559  0.1648 -0.0625 -0.0933
99656W        W42647   4.136   4.720  21.746  0.2691 -0.3083  0.0724
99657W        W42648  20.629  11.862  20.237 -0.3112  0.1994  0.2229
99658W        W42649  25.309   6.336   0.638  0.0907  0.1387 -0.0797
99659W        W42650  28.807  10.396   1.133 -0.0029 -0.0748 -0.0181
99660W        W42651  20.753  11.726   6.201  0.1214 -0.0506 -0.0896
99661W        W42652  22.217  23.679  18.327  0.0623  0.0999  0.1022
99662W        W42653  24.071   0.699  14.512 -0.0978  0.0133 -0.0686
99663W        W42654  23.591   7.660  18.343  0.2119  0.1783  0.0799
99664W        W42655  17.995   5.641  25.567  0.2316 -0.0467 -0.1042
99665W        W42656  27.529   0.094  12.590 -0.0037 -0.2873 -0.4063
99666W        W42657  21.824  28.567   8.078 -0.1143  0.2886 -0.3400
99667W        W42658  29.237   4.767  26.059 -0.2125 -0.0996 -0.1380
99668W        W42659   6.248  29.580  25.303  0.1102  0.0469 -0.4019
99669W        W42660  16.089  23.789  23.684  0.0615  0.1148  0.1256
99670W        W42661   1.828  11.086  15.419 -0.0204 -0.4216 -0.2118
99671W        W42662  22.683  16.507   4.991  0.0526  0.0584 -0.0606
99672W        W42663  21.823  27.679  24.926 -0.0061 -0.0983  0.0421
99673W        W42664  32.959   6.383  25.573  0.1289  0.0641  0.4936
99674W        W42665  24.411   0.559  14.861  0.2412 -0.1102  0.1667
99675W        W42666  19.234  26.067  24.623 -0.1819 -0.1349 -0.1051
99676W        W42667  18.237   4.271   6.940 -0.2133  0.2289  0.0298
99677W        W42668  33.877   2.732  20.727 -0.1625 -0.0854  0.2357
99678W        W42669   3.913   9.007   7.732 -0.2379 -0.1630 -0.0234
99679W        W42670   4.309  27.998  27.216  0.0114 -0.1859 -0.2623
99680W        W42671  20.982  20.030   0.942  0.0557  0.0478  0.2920
99681W        W42672  22.472   0.892  26.199  0.0326 -0.0685 -0.3389
99682W        W42673  13.650   1.354  28.739 -0.1603  0.1696 -0.1394
99683W        W42674  16.331  28.572   7.335  0.1661 -0.2283 -0.1724
99684W        W42675  21.609  34.318  14.079 -0.1770  0.2979  0.0790
99685W        W42676  33.916  10.229  27.892 -0.1506 -0.2318  0.0082
99686W        W42677   7.676  10.662   8.398 -0.2603  0.2010 -0.2510
99687W        W42678  21.956  29.130  22.469  0.1673  0.2010 -0.2365
99688W        W42679  25.360   7.397   1.637 -0.0061  0.0279 -0.2511
99689W        W42680  31.136  21.354  26.977  0.1988  0.2136  0.2942
99690W        W42681  19.730  11.067   0.018  0.0147 -0.2701 -0.0879
99691W        W42682  21.405  12.234  18.287 -0.0571  0.2891 -0.2083
99692W        W42683  15.134  13.823   0.743  0.3863  0.1198 -0.2061
99693W        W42684  28.307   8.121  27.164 -0.0790  0.0345 -0.0658
99694W        W42685  26.320  19.265  14.111  0.2235  0.3252 -0.4074
99695W        W42686   7.060   9.259  27.792 -0.1319 -0.2473 -0.1745
99696W        W42687  22.433  26.924  29.104  0.4161  0.1481  0.2562
99697W        W42688  20.507   6.361  26.199  0.1420 -0.2975  0.0363
99698W        W42689   6.388  31.828  29.088 -0.2621 -0.0450 -0.0861
99699W        W42690   7.291  13.009   0.070 -0.2425  0.0795 -0.3952
99700W        W42691  34.514   3.747  20.326  0.0472 -0.2384 -0.1889
99701W        W42692  25.919  29.697  28.332  0.1065 -0.2223 -0.0061
99702W        W42693  21.620  15.809  12.756  0.0062 -0.0851 -0.0593
99703W        W42694  28.556  26.646  27.573  0.0755 -0.2246 -0.2332
99704W        W42695  21.662  15.596  21.462  0.2573 -0.1206  0.1917
99705W        W42696  24.104  20.090   6.819 -0.2858 -0.1436  0.0633
99706W        W42697  27.155  32.762   1.839 -0.0075 -0.0541 -0.2738
99707W        W42698  18.150  26.739   3.572  0.4355  0.0875 -0.2852
99708W        W42699  13.373   0.414  18.567 -0.1741 -0.2374 -0.1755
99709W        W42700   2.298   4.195  23.020 -0.0139 -0.1169  0.1667
99710W        W42701  27.615  29.186  21.338  0.2651  0.0308 -0.2478
99711W        W42702  28.021  15.890   8.858  0.2258 -0.0701  0.0165
99712W        W42703   1.329  27.140  21.884 -0.1680 -0.3777 -0.2789
99713W        W42704  32.549  31.541   3.394  0.0955  0.2929  0.0135
99714W        W42705  28.991  29.103   6.678 -0.0432 -0.0265  0.0848
99715W        W42706  17.027   9.152  26.962 -0.1511 -0.0230 -0.2027
99716W        W42707  18.833  27.493  21.905  0.1236 -0.0110 -0.0024
99717W        W42708  20.371  13.565   8.070  0.1055 -0.2626  0.1779
99718W        W42709   2.495   9.765  15.334 -0.0547 -0.2206 -0.2512
99719W        W42710  30.885  29.880  16.664  0.1201 -0.0154 -0.0182
99720W        W42711   5.954   8.065  21.471  0.2292 -0.2095  0.2475
99721W        W42712  20.291  16.053   4.401  0.3836 -0.0095  0.2022
99722W        W42713  24.793   7.260  19.264 -0.0208  0.2085  0.0496
99723W        W42714  25.606   9.691   6.218 -0.2162  0.1158  0.3198
99724W        W42715  19.377  34.722  20.317 -0.0346 -0.0570 -0.0170
99725W        W42716  21.490  27.909   5.905  0.0693  0.0927  0.3313
99726W        W42717  20.465  14.024  29.139 -0.3279 -0.1776  0.1127
99727W        W42718   0.086  16.898   8.762 -0.2357 -0.3918 -0.2110
99728W        W42719   0.387  14.856  19.494  0.1435 -0.1849  0.0592
99729W        W42720   3.079  30.792   7.336  0.0830 -0.0269  0.1674
99730W        W42721   0.182  29.173  17.892 -0.0449 -0.0547  0.1504
99731W        W42722  10.894   2.724  27.279 -0.2278  0.0253  0.4066
99732W        W42723  23.590   2.372   1.551  0.0578 -0.1648 -0.1663
99733W        W42724  10.686  10.918  21.982 -0.1677 -0.2411 -0.0502
99734W        W42725  21.483  21.987  20.171  0.0639 -0.1306 -0.2536
99735W        W42726   1.988  31.452  24.047 -0.2752  0.0733  0.3422
99736W        W42727  15.875   1.530   1.667  0.0405 -0.2019  0.0803
99737W        W42728  29.507  33.324   7.202  0.0815 -0.2047 -0.0185
99738W        W42729  21.446   5.610  25.701 -0.0248 -0.6583  0.1966
99739W        W42730  20.682  25.693   6.175  0.0159 -0.1319  0.3618
99740W        W42731  34.291  33.401   0.588 -0.2154  0.1978  0.0461
99741W        W42732   2.733   8.915  26.094 -0.2769  0.2651  0.0752
99742W        W42733  22.352  25.782  16.926 -0.2040 -0.0808  0.2506
99743W        W42734  16.501  27.552  28.261  0.0188 -0.1599  0.1983
99744W        W42735  19.950   1.396  24.549  0.0930  0.1223 -0.0389
99745W        W42736   1.510   8.512  17.466 -0.1598  0.4104 -0.2509
99746W        W42737  20.881  17.071  14.798 -0.0567  0.1646 -0.0841
99747W        W42738  29.235  25.763   0.774  0.1411 -0.0751  0.1632
99748W        W42739  34.215  27.071   5.139 -0.1057  0.0496 -0.1970
99749W        W42740  21.612  28.962   0.475 -0.0388  0.2513 -0.2513
99750W        W42741   5.458  16.221   1.611 -0.1198  0.4073 -0.1557
99751W        W42742  25.247   0.310  15.076 -0.0344  0.2293 -0.3825
99752W        W42743  22.975   4.801  27.059 -0.0440  0.0176  0.1635
99753W        W42744  14.928  12.987  28.476  0.3024  0.0347 -0.0615
99754W        W42745  11.664  20.556  20.585 -0.0156 -0.2953 -0.2077
99755W        W42746   0.323  29.326  19.739 -0.0476  0.2608  0.1950
99756W        W42747  10.397   8.436  25.193  0.2852 -0.1541  0.2862
99757W        W42748  11.799  11.085   0.561  0.2534 -0.1116 -0.0913
99758W        W42749   0.060  32.360   7.867  0.2335  0.2843  0.2679
99759W        W42750  24.212   3.050  19.934  0.3464  0.0934 -0.0715
99760W        W42751  25.410  11.787   4.084 -0.3816  0.0009  0.1118
99761W        W42752  25.587  29.704   3.178  0.2650  0.1969 -0.0019
99762W        W42753  30.131   4.084  24.271 -0.0525  0.0637 -0.0721
99763W        W42754  24.130  27.606  18.883  0.2317 -0.0889 -0.0339
99764W        W42755  24.502  26.945   0.812  0.0652  0.1969 -0.0873
99765W        W42756  25.036  16.204  28.459  0.0504 -0.1174  0.4455
99766W        W42757   8.679   8.240  18.602  0.0229 -0.0992 -0.1236
99767W        W42758  19.181  23.073  26.800 -0.0842 -0.1210 -0.7592
99768W        W42759  32.184   8.623  16.755 -0.0117  0.1515 -0.1288
99769W        W42760   6.981  31.497  26.192 -0.4428 -0.1740  0.0366
99770W        W42761  27.729  26.803   2.006  0.3214 -0.0039 -0.4314
99771W        W42762  33.046  33.273   8.885  0.1562 -0.0309  0.2142
99772W        W42763  31.930  10.668   3.524  0.0928 -0.0820 -0.1042
99773W        W42764  13.970   1.291   0.477 -0.0899 -0.2005 -0.2546
99774W        W42765  23.072  13.893  28.309  0.0455 -0.0002  0.4569
99775W        W42766  23.256  15.763  26.929 -0.1336  0.0059  0.0485
99776W        W42767  27.331  11.378  14.692  0.0742 -0.2213  0.0643
99777W        W42768  19.156  31.521  13.795  0.2347  0.0510 -0.0564
99778W        W42769   5.960  18.110  27.432  0.1650 -0.2066  0.0321
99779W        W42770  27.934  27.376  18.546  0.0169 -0.1594 -0.3482
99780W        W42771  16.610   5.789  19.404  0.1565 -0.3188 -0.3620
99781W        W42772  23.834  20.521  19.405  0.0181  0.0056  0.1374
99782W        W42773  18.082   8.405   8.947  0.2725  0.0502 -0.2068
99783W        W42774  31.581   0.150   7.729 -0.0693  0.1667 -0.2823
99784W        W42775  17.376  28.681  19.624  0.2926 -0.1639  0.0501
99785W        W42776  34.575   0.117  17.780  0.0265  0.3570 -0.6281
99786W        W42777  19.990   9.456   5.337  0.2167 -0.0940 -0.0354
99787W        W42778   2.501  17.076  24.643  0.1516 -0.0409  0.1185
99788W        W42779  31.648  11.432  19.207 -0.1160  0.1417 -0.4408
99789W        W42780  12.085  12.479  18.171 -0.2287 -0.1530 -0.0952
99790W        W42781  19.783  34.008  21.512 -0.5172 -0.0903  0.4641
99791W        W42782  27.834  16.973  21.244 -0.0124 -0.0716  0.0276
99792W        W42783  18.186  34.039   5.164  0.0899  0.3331 -0.1057
99793W        W42784  26.149   5.056  29.008 -0.1516  0.2297 -0.1769
99794W        W42785  19.935   9.906  27.403 -0.0742 -0.0452  0.3811
99795W        W42786  31.551   3.590  16.306  0.1888 -0.0473 -0.0681
99796W        W42787  21.365  26.642   0.657  0.1213 -0.3623 -0.1887
99797W        W42788  12.309   3.650   1.945  0.1513 -0.0628 -0.0490
99798W        W42789  27.612   3.904  18.600 -0.3013  0.0870 -0.0328
99799W        W42790  17.513  18.348  24.927  0.1112 -0.1478 -0.1130
99800W        W42791  32.560   0.138  19.379  0.2929 -0.0506 -0.0190
99801W        W42792   6.208  33.307  27.583  0.0633  0.1924 -0.1795
99802W        W42793   3.788  33.800   0.272 -0.2771  0.1473  0.1805
99803W        W42794  25.094  22.683  21.912 -0.1767 -0.2281 -0.3689
99804W        W42795  25.933  30.496   4.248  0.0756  0.0385  0.2872
99805W        W42796  19.855   9.976  23.278  0.1915 -0.1652  0.1199
99806W        W42797  25.380   0.669   7.567  0.3092  0.1637  0.1461
99807W        W42798  32.394  10.418  16.187  0.2077  0.1199  0.0291
99808W        W42799  29.064   1.811  22.234 -0.3087 -0.1801  0.0973
99809W        W42800  30.645   7.836  21.800 -0.0671  0.0696 -0.1179
99810W        W42801  26.881  11.535  27.137 -0.2782 -0.3842  0.0842
99811W        W42802  30.195   1.174  18.109 -0.0518  0.2459  0.7102
99812W        W42803  20.871  10.790  14.394  0.0804  0.2005  0.1566
99813W        W42804  32.271  29.630  21.006 -0.0320 -0.1507 -0.1695
99814W        W42805  28.333  24.058  27.623  0.0132  0.2161 -0.1646
99815W        W42806  30.318  14.923  20.898 -0.1386  0.0198 -0.2379
99816W        W42807  21.665  12.660  23.888 -0.0371 -0.0513  0.1878
99817W        W42808  21.365  21.428  23.296  0.1272 -0.1107  0.0556
99818W        W42809  22.217   0.958   5.613  0.1119 -0.1155 -0.1704
99819W        W42810   3.435   2.529  25.549 -0.2363  0.0779  0.0425
99820W        W42811  16.272  19.258   7.014 -0.2030  0.1762 -0.0505
99821W        W42812  11.146  31.275   6.237  0.1526  0.0570 -0.1601
99822W        W42813   0.750   0.491   2.416  0.2599  0.0802 -0.0428
99823W        W42814  30.678   6.308  28.411 -0.1743 -0.0069 -0.0208
99824W        W42815  27.218  31.651  27.577  0.1257  0.2831 -0.2080
99825W        W42816  25.311  10.161   9.320  0.3170  0.3833  0.0922
99826W        W42817  16.210  27.502   1.257  0.2263 -0.0831 -0.1761
99827W        W42818   0.130   4.196   5.706 -0.0144  0.3075 -0.1541
99828W        W42819  16.995   0.781  27.988 -0.2201  0.1414 -0.1137
99829W        W42820  14.386   4.344  25.918  0.0074  0.0478 -0.1294
99830W        W42821  17.974  30.692  13.868 -0.0679 -0.1673 -0.2182
99831W        W42822  10.795   9.469   4.268  0.1219  0.0323  0.1840
99832W        W42823  24.521  15.500   2.475 -0.1132  0.1094 -0.0514
99833W        W42824  18.387  31.513  18.811 -0.1100  0.3445  0.0057
99834W        W42825  23.165  24.783  26.163 -0.1822  0.1932  0.1518
99835W        W42826  22.145   9.879  22.388 -0.1196 -0.0078 -0.3244
99836W        W42827  28.533  31.308  14.845  0.0824  0.1466  0.0088
99837W        W42828   5.157   2.049  26.689 -0.1178  0.1171 -0.0697
99838W        W42829  30.859  34.080  23.779  0.3898 -0.0853  0.1703
99839W        W42830  29.374   1.694  18.035 -0.1178 -0.1504 -0.2710
99840W        W42831  10.601  34.785   9.600  0.0585  0.0018  0.2240
99841W        W42832  23.135   2.147  20.894  0.1706  0.2154  0.2234
99842W        W42833  29.646  32.662  29.179  0.1129  0.2109  0.3192
99843W        W42834  19.925  14.751  20.884 -0.3084  0.2854 -0.0692
99844W        W42835  28.340  34.513   6.427 -0.1336  0.1277 -0.2546
99845W        W42836  22.293   7.962   0.407  0.1088 -0.5052  0.1891
99846W        W42837  16.763  28.151  18.703 -0.1551 -0.0654 -0.2559
99847W        W42838  19.082  32.880   5.101 -0.0919  0.1862  0.1130
99848W        W42839  31.129  22.364  27.784 -0.0396 -0.3578 -0.0362
99849W        W42840  30.454  26.245   3.069  0.1471 -0.1739 -0.4404
99850W        W42841  25.151  23.687  26.856  0.0672  0.0345 -0.0069
99851W        W42842  12.133   5.563   6.684  0.0135  0.0838  0.0950
99852W        W42843  19.371  32.616  15.687 -0.0416 -0.0642 -0.0579
99853W        W42844  25.119  25.712  22.852 -0.1435  0.3421  0.2828
99854W        W42845  19.783  34.209  16.715 -0.2558  0.3937  0.0043
99855W        W42846  20.558  15.388   6.578 -0.1555  0.3579  0.2699
99856W        W42847  17.255   7.849   2.896 -0.0228  0.1054 -0.0894
99857W        W42848  19.099   4.686   5.290  0.0540  0.0458 -0.1559
99858W        W42849  20.332  20.685  25.271  0.0880  0.1726 -0.1497
99859W        W42850  21.960  13.271   0.205 -0.0935 -0.0323 -0.1089
99860W        W42851  24.521   3.380   1.603 -0.1064 -0.0076  0.1729
99861W        W42852  26.577  17.433   1.750 -0.3096  0.3013  0.1407
99862W        W42853   0.328  32.489  18.794  0.1699  0.0809 -0.1956
99863W        W42854  20.583  20.973  23.709 -0.0561  0.1504  0.0577
99864W        W42855   6.305   2.959   4.122 -0.0376 -0.2346  0.0765
99865W        W42856  25.041  19.338  28.081  0.0791  0.0026  0.3268
99866W        W42857  17.597  19.962  14.485  0.0201  0.1271 -0.1927
99867W        W42858  12.796  19.891   4.264  0.1191  0.0469 -0.0748
99868W        W42859  20.010   5.560  28.619  0.4193 -0.0151  0.1710
99869W        W42860  22.561   3.100  19.218 -0.6319  0.2660  0.1052
99870W        W42861  18.334   8.991  14.532  0.5386  0.0792 -0.1061
99871W        W42862  18.250  16.839  22.962 -0.1150 -0.1027  0.3331
99872W        W42863  10.885   9.638  24.532  0.0352 -0.2287  0.0222
99873W        W42864   0.008   0.195   8.485 -0.2333 -0.2586  0.3188
99874W        W42865  30.259  32.933  24.309 -0.2981  0.1133  0.2442
99875W        W42866   3.521  26.940   6.899  0.3995  0.3698  0.0678
99876W        W42867   5.362  26.928  15.403  0.0533  0.2344  0.1091
99877W        W42868  23.575   0.621  25.072  0.2689  0.2879  0.2333
99878W        W42869  25.347  14.151   3.944 -0.0459 -0.1446  0.0341
99879W        W42870  18.836  30.559   0.343  0.0857 -0.2373 -0.1393
99880W        W42871  17.235   9.011  16.877  0.1107 -0.3524 -0.1130
99881W        W42872  15.187  33.673   1.431 -0.0335 -0.0294  0.1928
99882W        W42873   1.082   1.886  24.867  0.2769 -0.2951 -0.2353
99883W        W42874  22.138   7.332   8.892 -0.0052  0.0758 -0.1886
99884W        W42875  21.403  19.398  19.392 -0.0254  0.2407  0.2533
99885W        W42876  13.514  33.233  17.564 -0.1702 -0.2692 -0.2419
99886W        W42877  16.761  23.077  28.891  0.3591 -0.1466 -0.0114
99887W        W42878  31.365   1.000  22.312 -0.0109  0.2818  0.0390
99888W        W42879  30.839  28.679  20.374 -0.3115  0.1981  0.0983
99889W        W42880  30.622  24.190  24.051  0.0940 -0.0669 -0.2799
99890W        W42881  29.179  34.424  12.359  0.0986  0.1586 -0.1593
99891W        W42882   1.745  31.488  26.706  0.0478  0.3647 -0.3707
99892W        W42883  33.421  30.056   9.762  0.0627 -0.0873 -0.0478
99893W        W42884  23.752   3.985   1.644  0.0310 -0.1196 -0.1724
99894W        W42885  25.900   1.249   3.679  0.1096 -0.1633 -0.0011
99895W        W42886   4.939  27.808  19.314 -0.0266  0.2287  0.0516
99896W        W42887  17.827  21.435   8.336 -0.0472  0.1344 -0.1770
99897W        W42888  16.517  33.444  17.639 -0.3290  0.0405 -0.1139
99898W        W42889  22.839  34.766   9.751 -0.0958 -0.1912 -0.3060
99899W        W42890  30.991  31.234   9.262  0.0722  0.1896  0.0673
99900W        W42891  30.970  24.521  25.708 -0.3196 -0.0671 -0.1652
99901W        W42892  19.036   6.983  25.518  0.3272 -0.2261 -0.0193
99902W        W42893  33.076  26.135   6.087 -0.0218  0.0334  0.1484
99903W        W42894  12.486  33.109  27.775  0.2619  0.2683 -0.0559
99904W        W42895   0.178   3.737  18.234  0.4501  0.1077 -0.1184
99905W        W42896  30.131   1.113  26.931 -0.0247  0.0081  0.0265
99906W        W42897  13.636  12.222  25.457 -0.1399  0.1680 -0.1338
99907W        W42898   2.999  15.314  21.430 -0.1514  0.1249 -0.1777
99908W        W42899  11.898   4.645   2.102  0.1867  0.1852  0.3251
99909W        W42900  23.079  33.944  13.797 -0.1269 -0.1024  0.1320
99910W        W42901  19.189  20.781  28.320  0.2699  0.0757 -0.0708
99911W        W42902   9.051  13.030  28.634 -0.1620 -0.1114  0.2447
99912W        W42903  13.443  18.171   8.924 -0.0599  0.1666  0.3463
99913W        W42904  33.141  25.227  22.080 -0.2579 -0.0786  0.4437
99914W        W42905   7.435  22.451  19.744  0.0961  0.1126 -0.1149
99915W        W42906  12.408  34.348   2.201  0.1542 -0.0430 -0.0502
99916W        W42907  26.815  27.056   4.577 -0.0112 -0.3205  0.2695
99917W        W42908  29.386   4.723  21.908 -0.1208 -0.2861 -0.1993
99918W        W42909  20.546  33.101   7.234  0.5280  0.1278  0.0349
99919W        W42910  11.324  26.233  14.823 -0.2238 -0.0164 -0.2031
99920W        W42911  13.252  25.210   8.207  0.2642 -0.1698 -0.0543
99921W        W42912  21.795   8.973   7.938 -0.0207  0.1233 -0.1659
99922W        W42913  20.173   9.235   4.901  0.1086  0.1186  0.2750
99923W        W42914  32.318  33.741   0.876  0.0702  0.1596 -0.0264
99924W        W42915   7.563  19.663   8.812  0.0473  0.2626 -0.0507
99925W        W42916   1.311   8.275  20.743  0.0966  0.0744  0.4192
99926W        W42917  27.837  12.705  20.392 -0.1945  0.2704 -0.0409
99927W        W42918  12.028  21.969  28.865  0.0329 -0.1051 -0.1512
99928W        W42919  12.836  10.426  28.091  0.1346  0.0973  0.2254
99929W        W42920  18.388   4.623  22.073  0.1870  0.0250  0.0935
99930W        W42921  33.283  16.522  16.118 -0.2701  0.2469 -0.0416
99931W        W42922  15.136   9.648  28.934 -0.4106  0.0322 -0.1918
99932W        W42923  28.451  10.726   5.429  0.1088  0.1246 -0.0588
99933W        W42924  18.303   1.600  26.551 -0.0299  0.0151  0.0001
99934W        W42925  29.328   9.933   4.549 -0.0004  0.1731 -0.1352
99935W        W42926  25.367  10.752  22.457 -0.2100 -0.0210  0.0540
99936W        W42927  24.975   4.688   1.550  0.1470 -0.2911  0.1493
99937W        W42928   3.536  30.519   8.083 -0.2551  0.0778  0.1785
99938W        W42929   7.074   5.598  25.453  0.0233  0.0669  0.0346
99939W        W42930   1.054   8.816  24.817 -0.2240  0.2027  0.0335
99940W        W42931  23.425  21.534  17.244 -0.1395 -0.1523  0.0462
99941W        W42932  29.929  25.798   3.405  0.1226 -0.2877 -0.2121
99942W        W42933   0.580   8.950  16.870 -0.0333 -0.2190 -0.0529
99943W        W42934  25.167   0.014   5.741  0.0539 -0.1985 -0.1940
99944W        W42935   5.650   0.145  24.263  0.0732  0.0600 -0.1322
99945W        W42936  16.279  31.659   9.771  0.0841 -0.0004 -0.1724
99946W        W42937  29.452  12.130  24.605 -0.0783  0.0219 -0.1408
99947W        W42938  12.320  30.486  24.275 -0.2273 -0.2849  0.0347
99948W        W42939  27.235  12.783  17.733  0.1825  0.2939  0.2293
99949W        W42940  17.292  20.201  18.368 -0.1579  0.3782 -0.0450
99950W        W42941  21.431  15.988  28.925  0.0319 -0.1636 -0.0494
99951W        W42942   6.666   5.829   6.445 -0.1835  0.0911 -0.0006
99952W        W42943   3.199  14.437  18.308 -0.0855  0.0250 -0.1569
99953W        W42944  33.830  27.568   2.915  0.1133 -0.0649 -0.0397
99954W        W42945   0.721   7.706  23.952  0.0385  0.1456  0.0611
99955W        W42946  29.677  33.434  23.816 -0.2132 -0.0684 -0.3308
99956W        W42947  22.973  30.837  12.853  0.4247 -0.0296  0.1963
99957W        W42948  18.991   6.332   8.683 -0.1866 -0.0045 -0.2002
99958W        W42949   5.953   4.648  29.010 -0.0211 -0.0289  0.0682
99959W        W42950  30.380  21.759   6.310 -0.0568 -0.5443 -0.1479
99960W        W42951  18.255   6.873  20.773 -0.0098  0.0018 -0.0891
99961W        W42952  16.735  30.336  21.077 -0.0321 -0.1389  0.0832
99962W        W42953  11.454  30.098  14.750  0.4020 -0.3096 -0.0733
99963W        W42954  25.568   2.044  15.770 -0.0992  0.0904 -0.0308
99964W        W42955  17.769  31.162  13.809 -0.0109 -0.1088  0.1435
99965W        W42956  32.609  13.712   4.636 -0.0296  0.0537  0.1686
99966W        W42957  29.883  32.956   5.830 -0.0926 -0.1093  0.2129
99967W        W42958  20.342   8.197  17.992 -0.5224  0.2689  0.1805
99968W        W42959  12.235  26.741   6.927  0.0755  0.2818 -0.0098
99969W        W42960   2.595  15.935  17.982  0.2095  0.1483  0.1222
99970W        W42961  26.004   7.479  19.473  0.1223 -0.1449  0.0724
99971W        W42962  20.990  33.277   5.012  0.0976 -0.0367  0.3565
99972W        W42963  14.387  30.637   7.531  0.0680 -0.1180 -0.3893
99973W        W42964  27.130   3.355  23.388  0.1223 -0.0709 -0.1406
99974W        W42965  30.146  28.409  12.754  0.0842  0.1378  0.2377
99975W        W42966  30.245  28.040   4.919  0.0727 -0.0702  0.2128
99976W        W42967  34.069  12.122  25.718  0.2468  0.2141 -0.1114
99977W        W42968  22.405  11.663   5.502 -0.2392 -0.1461  0.1310
99978W        W42969  30.067  33.551  12.497  0.2477  0.0622 -0.0650
99979W        W42970  29.640  10.306  20.253  0.4560  0.0239 -0.0381
99980W        W42971  22.078   2.458   7.562  0.1285 -0.1538  0.0544
99981W        W42972   7.536  28.703   3.445  0.0675 -0.1457  0.3284
99982W        W42973  27.437  28.695  29.056  0.0319 -0.2171  0.1109
99983W        W42974  25.492  18.093   9.269 -0.0059 -0.1052  0.2663
99984W        W42975  33.983  22.230   5.885 -0.3258 -0.2086  0.2259
99985W        W42976  26.642   5.736   1.165 -0.0570 -0.2114 -0.0279
99986W        W42977  18.332  27.640   1.490 -0.2031 -0.1678 -0.0183
99987W        W42978  24.099  26.645   7.897 -0.3607 -0.2778  0.3016
99988W        W42979  16.488   7.882  19.126  0.3428  0.0292  0.2362
99989W        W42980  22.710  32.463  23.699 -0.2609 -0.0040  0.0360
99990W        W42981  27.210   5.546  22.793  0.2649 -0.2854 -0.0106
99991W        W42982  19.924   2.449  22.540 -0.0049  0.0773 -0.0522
99992W        W42983   0.861  33.430   7.011 -0.2148  0.2595  0.0712
99993W        W42984  28.448  21.044  15.578 -0.2370  0.1996 -0.0876
99994W        W42985  10.369   7.834   1.855 -0.0329 -0.3736 -0.2820
99995W        W42986  21.240   4.236   2.670 -0.3052 -0.0870  0.0755
99996W        W42987  26.927   8.707   6.286  0.0059 -0.0609 -0.5957
99997W        W42988  25.630  26.241   2.688 -0.0010 -0.1189  0.1361
99998W        W42989  29.319   1.555   7.807  0.1470  0.1498  0.0338
99999W        W42990  12.079  30.390  27.066 -0.1638  0.0339  0.2569
    0W        W42991  28.274  11.197  19.234 -0.1361 -0.1614  0.1964
    1W        W42992  23.060  20.195   5.008  0.2575  0.2326  0.1757
    2W        W42993   5.758   1.601   4.260  0.2242 -0.3745  0.0234
    3W        W42994  17.110  26.684  21.983 -0.2422  0.0610 -0.1420
    4W        W42995  18.286  13.503  27.437  0.1553  0.1165 -0.0624
    5W        W42996  20.363   4.769  13.904  0.1451  0.2398 -0.2251
    6W        W42997  24.990   5.250  22.584  0.1199 -0.0659  0.1302
    7W        W42998  28.171  20.643  14.969 -0.0976  0.2413  0.3494
    8W        W42999  27.505   6.487   5.765  0.0214  0.1134 -0.0510
    9W        W43000   6.476   0.811  25.071  0.2374  0.0488 -0.2478
   10W        W43001  31.001  25.641   9.045  0.0232 -0.0105 -0.0557
   11W        W43002  30.235  22.380   0.280 -0.1473  0.0283  0.1610
   12W        W43003  13.216  16.733  17.472 -0.2507  0.4001  0.1335
   13W        W43004   9.487  29.801  24.570  0.1904  0.1874 -0.0055
   14W        W43005  25.051  11.348  24.945  0.0614 -0.1455 -0.3666
   15W        W43006  27.275   1.892   2.865 -0.1885  0.0773 -0.2252
   16W        W43007  24.221   4.557  20.204 -0.2478 -0.3236 -0.0622
   17W        W43008   5.089   6.452   2.057  0.1561  0.0108 -0.2261
   18W        W43009  29.744  20.517  27.713 -0.1409 -0.0864 -0.2619
   19W        W43010  33.234  13.067   3.434  0.0274  0.0354 -0.0028
   20W        W43011  23.444  29.237   8.711  0.1815 -0.0757 -0.0823
   21W        W43012  32.468  15.014  24.384 -0.0465  0.0368  0.2123
   22W        W43013  23.684  12.380  28.206 -0.4232  0.0610  0.2567
   23W        W43014  31.010   9.179  20.387 -0.5490 -0.2079  0.1058
   24W        W43015  21.431   4.147  16.135  0.1481  0.1749  0.1763
   25W        W43016   1.291  16.450   8.133 -0.0024  0.0516 -0.2746
   26W        W43017  19.582   0.412  15.178 -0.1551 -0.0630  0.0467
   27W        W43018   8.859  30.714  15.879 -0.3498 -0.1010  0.2733
   28W        W43019  11.026  32.450   3.217 -0.1223  0.0079  0.3016
   29W        W43020  14.840  22.051   6.533 -0.0040  0.0728 -0.1535
   30W        W43021  22.602  33.321  22.705 -0.2656  0.1198 -0.1138
   31W        W43022  21.591   7.820  25.401 -0.0849  0.1710  0.3632
   32W        W43023  33.798   1.551  15.452  0.1904  0.0389  0.0431
   33W        W43024  33.974  15.061   0.671  0.1345 -0.1657  0.1069
   34W        W43025  30.499  25.337  27.152 -0.2020 -0.1917  0.1724
   35W        W43026  19.073  15.903   1.073 -0.1690 -0.1661  0.0791
   36W        W43027  16.960   1.911  28.787 -0.0697 -0.2169  0.0119
   37W        W43028  33.696   0.950  26.955  0.0751  0.2826  0.3794
   38W        W43029  23.069  12.358  27.575  0.0089  0.4010 -0.3895
   39W        W43030  24.155  21.246  21.685  0.2203  0.0151 -0.2537
   40W        W43031  13.640   4.308   0.728 -0.0474 -0.1191  0.2618
   41W        W43032  22.505   2.154   0.460 -0.0803 -0.0421 -0.0048
   42W        W43033  24.920  21.837  24.071  0.0806 -0.1902 -0.3018
   43W        W43034  33.435   9.560  24.955 -0.1962 -0.1644 -0.2302
   44W        W43035  24.775   3.224   3.437 -0.3314  0.0017 -0.2900
   45W        W43036  18.922   0.923  13.983 -0.1265  0.0506 -0.2143
   46W        W43037  32.595  18.508  21.286  0.1838 -0.3143 -0.1694
   47W        W43038  11.324   6.411  22.770 -0.2853 -0.1668  0.3479
   48W        W43039  11.582  24.237  26.898  0.0911 -0.4147  0.4402
   49W        W43040  27.432  32.399   2.068  0.0582  0.1083  0.0443
   50W        W43041  16.475  28.529  24.926  0.0455 -0.3018  0.0011
   51W        W43042  18.228   4.135  27.041  0.2248  0.0528 -0.1010
   52W        W43043  29.775  12.425   7.304  0.0738 -0.1113 -0.0832
   53W        W43044  14.706   5.084  20.604 -0.1789  0.4760 -0.2150
   54W        W43045  27.778  34.069   7.208  0.0490  0.1533 -0.2587
   55W        W43046  22.269   1.601  20.787 -0.0987 -0.1464  0.0159
   56W        W43047   0.902  20.958   4.176  0.2098 -0.1112  0.1063
   57W        W43048  30.816  27.218   4.856 -0.2213 -0.0868 -0.0510
   58W        W43049   1.842   1.195  28.701 -0.0332  0.2288 -0.1816
   59W        W43050  27.693   1.311  23.873  0.0980  0.0745 -0.0352
   60W        W43051  24.910  13.610   2.882 -0.0025 -0.0822  0.0508
   61W        W43052  28.963   1.267   0.156 -0.3159 -0.1060  0.7230
   62W        W43053  19.743  23.629   5.370 -0.1336  0.1374 -0.0306
   63W        W43054  34.667  29.699   6.119  0.2709 -0.0930  0.1709
   64W        W43055  21.976  25.904   3.902  0.4037  0.1612 -0.0406
   65W        W43056   9.702  12.293   1.997  0.2244  0.1653  0.0196
   66W        W43057  18.493  19.254   7.961  0.1366  0.0788  0.2116
   67W        W43058  25.701  24.776  22.548 -0.2224 -0.0883 -0.1616
   68W        W43059  24.497   5.097  23.466  0.1271 -0.2122  0.1238
   69W        W43060  27.593  28.109   4.630  0.2838  0.0468  0.2396
   70W        W43061  27.096  28.905   1.540 -0.3129  0.5538  0.1857
   71W        W43062  33.593   1.090  14.922 -0.0268  0.3362  0.0993
   72W        W43063   7.122  10.287  18.851 -0.2074  0.0201 -0.0312
   73W        W43064  22.847   7.688   4.851 -0.1371  0.0218 -0.2148
   74W        W43065  13.333  14.912  27.529  0.0856  0.0970  0.1215
   75W        W43066  28.788  27.797  15.801 -0.1518  0.3618  0.2094
   76W        W43067  19.592  12.108  16.114  0.1598  0.0354  0.1840
   77W        W43068  14.875  14.488   3.885  0.1396  0.0783  0.0383
   78W        W43069  16.730   0.554  19.784  0.1238  0.1671  0.0363
   79W        W43070  25.970  16.441   1.196  0.2890 -0.0710 -0.0868
   80W        W43071   5.599  31.279  17.715  0.0617 -0.0129  0.1924
   81W        W43072  15.955  33.950  26.572 -0.0356  0.0637 -0.1853
   82W        W43073  26.072  28.311  14.578  0.0844  0.1594 -0.2185
   83W        W43074  28.131  16.148  24.448 -0.0455 -0.2749 -0.4753
   84W        W43075  14.345   4.064  27.561  0.3115 -0.0136 -0.1430
   85W        W43076  14.887  12.804  27.646  0.0280  0.0963 -0.0665
   86W        W43077  27.072  14.182  21.307  0.0278 -0.0269 -0.0168
   87W        W43078   2.307  15.662  25.264  0.1496 -0.0690  0.0263
   88W        W43079   1.798  14.344  19.168  0.0307 -0.0705 -0.0735
   89W        W43080  17.571  13.775  16.631  0.0557 -0.2868  0.1525
   90W        W43081  31.569   9.522  21.705  0.3023 -0.3784  0.0495
   91W        W43082  32.053  10.651  21.486  0.0732  0.3161 -0.1892
   92W        W43083   1.038  32.611  26.971 -0.0012  0.3561  0.0569
   93W        W43084  19.567   5.081  20.979 -0.4048  0.0523  0.0525
   94W        W43085   3.396   4.843  15.756  0.2492  0.0320  0.2917
   95W        W43086  22.727  10.774  27.986  0.1807  0.2305  0.1220
   96W        W43087   8.272  16.735  23.176  0.0179 -0.2121  0.1167
   97W        W43088  10.029   5.223  19.841 -0.1294  0.0977  0.0815
   98W        W43089  28.694  28.501  17.852 -0.2352  0.2567  0.2206
   99W        W43090  25.058  19.282  22.198 -0.3191  0.0962  0.0242
  100W        W43091  15.956  11.668  20.018  0.2712  0.3329  0.1218
  101W        W43092  10.319  13.435  28.167 -0.0197 -0.1413  0.0698
  102W        W43093  28.738  27.374  24.310  0.3031  0.0889  0.0818
  103W        W43094   9.665   6.315  18.346  0.1607 -0.0373  0.1309
  104W        W43095  15.623  18.050  13.545  0.1839  0.0195 -0.0723
  105W        W43096  32.667   2.780  29.207 -0.1166  0.0416 -0.1877
  106W        W43097  26.576   5.804  14.254  0.2176  0.2794  0.1685
  107W        W43098  26.842  22.070  20.921 -0.2159 -0.0815  0.1896
  108W        W43099  33.511   1.700  24.253 -0.0987 -0.0073  0.0003
  109W        W43100  27.355   1.840  17.207  0.1500  0.2990 -0.2524
  110W        W43101  31.343   1.680  21.332  0.2681  0.0220 -0.1888
  111W        W43102  25.475   0.619  20.721  0.3003 -0.2405 -0.1345
  112W        W43103  16.752   0.201  21.647  0.1041  0.2022  0.1238
  113W        W43104  29.847   0.117  18.189  0.2015  0.3287  0.1183
  114W        W43105  24.672   7.545  21.497  0.0296  0.3690  0.1166
  115W        W43106  20.836  23.802  16.137 -0.0580 -0.2571 -0.1375
  116W        W43107   3.900   1.717  15.284 -0.0959 -0.1135 -0.1208
  117W        W43108  26.972  12.924  15.395 -0.0112  0.0740  0.2170
  118W        W43109  24.651  21.469   3.970 -0.1335 -0.0753  0.0272
  119W        W43110  20.365  11.101  20.951  0.0160 -0.3096 -0.2629
  120W        W43111  18.546  28.725  15.506  0.0439  0.2198 -0.2823
  121W        W43112  16.384   2.659  21.165 -0.3309  0.0437 -0.2560
  122W        W43113  23.429   7.276   2.173 -0.1413  0.0215 -0.1895
  123W        W43114  28.015   5.110   1.135 -0.1374  0.4539  0.2021
  124W        W43115  23.387  28.571  15.497 -0.0281 -0.0733 -0.0587
  125W        W43116   0.965  26.511  23.673  0.0864  0.0744 -0.1384
  126W        W43117  16.304  33.037  16.880 -0.0905 -0.3037 -0.1644
  127W        W43118  12.449   9.470  15.473 -0.0611  0.4008  0.2816
  128W        W43119  32.533   6.136   6.927  0.0117  0.2574  0.1674
  129W        W43120  26.276   2.884  25.767 -0.3179 -0.0999 -0.2321
  130W        W43121   8.657   5.814  25.619 -0.1527  0.0912  0.1992
  131W        W43122  28.454  31.301  20.319  0.2896 -0.3764 -0.2596
  132W        W43123  27.480  15.441  21.742 -0.2223  0.0144 -0.1875
  133W        W43124  30.294   2.027  26.122 -0.0395 -0.1490  0.1330
  134W        W43125  18.349  13.507  14.294 -0.4239 -0.0819 -0.0252
  135W        W43126  20.731   6.629  14.037 -0.0494 -0.1386  0.0332
  136W        W43127  29.800  34.069  15.752  0.0459  0.2890 -0.1370
  137W        W43128   9.548  23.909  18.717 -0.3272 -0.0422  0.0284
  138W        W43129  20.019  32.700  18.662 -0.2385 -0.0133 -0.0419
  139W        W43130  23.243   8.793  19.810  0.1735  0.2411  0.2385
  140W        W43131   8.640  14.102   9.944  0.2112 -0.1624 -0.2765
  141W        W43132  18.511   1.264  18.297  0.0906 -0.1313 -0.0623
  142W        W43133  23.913   8.803  25.360  0.2910 -0.0161  0.0109
  143W        W43134  14.074   9.077   5.984 -0.4949  0.3742  0.1056
  144W        W43135  26.963  31.203  15.804  0.0315  0.2396  0.2015
  145W        W43136  26.814  25.084  23.370  0.0198  0.4423  0.1259
  146W        W43137  17.963   2.713  18.179 -0.1619 -0.2498 -0.2089
  147W        W43138  34.034   3.082  15.257  0.0455 -0.1640 -0.0730
  148W        W43139  13.418   2.548  19.371  0.4132 -0.0230 -0.1401
  149W        W43140  23.018  13.205  23.744 -0.0831  0.3870 -0.3283
  150W        W43141  24.359   8.696  20.447  0.0937  0.3049  0.0671
  151W        W43142  20.819   1.212  17.395  0.0725 -0.1057 -0.1801
  152W        W43143   1.456  17.774  24.847  0.1503 -0.0854  0.2357
  153W        W43144  23.431  23.778  16.293 -0.0790 -0.1868  0.1896
  154W        W43145  12.146   7.582  23.314  0.0455 -0.1248  0.0061
  155W        W43146  31.192  30.333  14.336  0.2896  0.3732  0.1568
  156W        W43147  16.924   8.087   5.477  0.1304 -0.0293 -0.0677
  157W        W43148  18.348   2.630  14.688  0.3562 -0.2082 -0.0073
  158W        W43149   8.064   6.942  15.376 -0.4045  0.0884  0.1691
  159W        W43150  26.539  26.371  22.482 -0.3326 -0.3328 -0.1158
  160W        W43151  19.837   2.256  19.175 -0.2387 -0.2727  0.2521
  161W        W43152  30.498  30.656  15.996 -0.0192 -0.2986  0.1588
  162W        W43153  29.561  17.930  21.328  0.1104  0.1249  0.2474
  163W        W43154  24.543   0.206  18.769 -0.2014 -0.0169 -0.0521
  164W        W43155  24.963   6.053  26.199  0.2165 -0.1070  0.1548
  165W        W43156  24.148   7.356  21.758 -0.1786 -0.4987  0.1135
  166W        W43157  22.768   3.567  18.403 -0.3258 -0.2466 -0.0705
  167W        W43158   2.125   1.309  23.055 -0.0065  0.0853 -0.0201
  168W        W43159   0.306   8.304  17.587  0.0228 -0.0327  0.0475
  169W        W43160  19.311  14.909  14.563  0.0353  0.2171  0.2018
  170W        W43161  12.250  34.543  19.338 -0.0345  0.2001  0.0086
  171W        W43162  28.598   0.201   1.672  0.0653  0.0730 -0.1792
  172W        W43163  18.705  30.763  15.686  0.3706 -0.0194  0.0551
  173W        W43164  28.907   1.828  14.145  0.4283 -0.1924 -0.2211
  174W        W43165  11.719   9.533  21.439  0.2891 -0.0773 -0.2512
  175W        W43166  26.899   1.625   0.058 -0.3197  0.0219 -0.0836
  176W        W43167  21.603   8.800  17.559  0.1766  0.2139  0.1392
  177W        W43168  18.772  20.435  16.490 -0.0270 -0.0715  0.0733
  178W        W43169  23.155  12.096  21.080  0.1323  0.0396  0.3188
  179W        W43170  23.944  11.982  16.203  0.1902 -0.0096  0.3007
  180W        W43171  25.036  17.056  17.112 -0.0667 -0.2222 -0.2082
  181W        W43172   6.088  10.979  24.122 -0.2374  0.0066  0.2494
  182W        W43173  29.729  12.487  18.177 -0.1186 -0.2525  0.0082
  183W        W43174   8.414  19.941  23.310 -0.1163 -0.1829  0.0555
  184W        W43175  25.000   3.622  27.297 -0.1967 -0.0025  0.0611
  185W        W43176  34.734   6.584  18.696 -0.0451  0.3462 -0.2391
  186W        W43177  19.437   0.697   1.941  0.0373 -0.0205 -0.1963
  187W        W43178  28.005  19.249  25.942  0.1739 -0.0113 -0.0566
  188W        W43179  27.331  22.799   0.623 -0.1587 -0.0258  0.5143
  189W        W43180  14.119   7.936  27.183  0.2499  0.2585 -0.0593
  190W        W43181  11.930  29.282  19.545 -0.1223 -0.0719 -0.0887
  191W        W43182  30.225   1.428   0.281 -0.1993 -0.0549 -0.1426
  192W        W43183  15.250  12.856   1.031  0.1924 -0.0669  0.0275
  193W        W43184  14.532  29.123  21.104 -0.0985  0.4015 -0.2828
  194W        W43185  14.365  17.196  13.972 -0.0439 -0.2067  0.0300
  195W        W43186  32.347   2.175  17.437  0.0929  0.0848  0.5618
  196W        W43187  25.378  11.144  22.123  0.0448 -0.0258 -0.1366
  197W        W43188  14.122   1.668   0.195  0.0237  0.2628  0.3849
  198W        W43189  28.600   2.668  22.507  0.1055  0.2247 -0.1246
  199W        W43190  19.466   1.934  18.995  0.1074  0.3371  0.1925
  200W        W43191   1.244  30.501  25.242  0.0620 -0.0664 -0.1048
  201W        W43192  22.070  27.347   0.626 -0.2359 -0.0060  0.2565
  202W        W43193  31.487   1.727  22.384  0.2641 -0.0828  0.3918
  203W        W43194  19.946   1.451  15.106 -0.5009 -0.0724 -0.0985
  204W        W43195  25.329  13.252  20.749  0.3930 -0.0808  0.1802
  205W        W43196  18.641   6.618  28.191  0.0738 -0.1345  0.3881
  206W        W43197  18.744  20.666  28.638  0.2587 -0.3624 -0.2327
  207W        W43198   0.332  20.085  16.365  0.0271  0.1888  0.1707
  208W        W43199  18.450  27.508  23.157  0.0876  0.0237  0.1166
  209W        W43200  24.088   8.511  22.178 -0.3037  0.0178  0.1131
  210W        W43201  32.117   4.953  24.359  0.1630 -0.0823  0.1159
  211W        W43202  34.636  23.886  19.784 -0.1065 -0.1113 -0.0982
  212W        W43203  14.702  14.255   8.794  0.1690  0.0708  0.1083
  213W        W43204   4.439  14.047  22.898 -0.3238 -0.1822  0.1069
  214W        W43205   4.443   9.151  27.078  0.0109 -0.0096  0.2099
  215W        W43206  19.813   3.145  17.968 -0.2203  0.0189  0.1162
  216W        W43207  30.241   2.217  20.362 -0.2678  0.0176  0.2564
  217W        W43208  24.125  34.446  21.020  0.0990 -0.0169  0.2089
  218W        W43209   6.632   4.565   3.192 -0.4185 -0.1216 -0.1669
  219W        W43210  12.206  14.533  22.294  0.2062  0.2852  0.0371
  220W        W43211   4.194  13.824  17.410 -0.5198  0.2767 -0.2049
  221W        W43212   4.126   4.555  15.769 -0.1307 -0.1296 -0.2390
  222W        W43213  30.297   1.943  21.807 -0.0853 -0.0644  0.0038
  223W        W43214  26.779  20.157  27.569  0.0585  0.0333  0.1481
  224W        W43215  15.430   3.066  26.676  0.0491 -0.1497 -0.0282
  225W        W43216  28.103   7.726  27.474 -0.3438  0.1773  0.0497
  226W        W43217  29.359  33.044  23.639  0.2621 -0.1504 -0.0229
  227W        W43218  26.904  33.132  12.217  0.0235 -0.0447 -0.2339
  228W        W43219  27.409  32.402  12.497 -0.1047  0.2927 -0.1913
  229W        W43220  27.211  10.118  16.310  0.4103  0.2737 -0.1814
  230W        W43221   1.593  17.356  25.733  0.0108 -0.1193 -0.2682
  231W        W43222  33.425  10.872  19.729 -0.4826 -0.0498 -0.0537
  232W        W43223  30.502   6.258  15.888  0.1519 -0.0515  0.2983
  233W        W43224  30.865  30.014  24.367 -0.3056  0.1226  0.0041
  234W        W43225   4.865  28.224   5.100 -0.1113  0.1346 -0.1743
  235W        W43226   8.398  13.876  18.917  0.3514 -0.0443 -0.1689
  236W        W43227   2.838   3.517  24.362 -0.1684 -0.0804 -0.1321
  237W        W43228  26.207  14.154  19.070 -0.0616  0.0648  0.3223
  238W        W43229  10.131   0.403  21.066  0.0513 -0.0468  0.1375
  239W        W43230  27.697  10.046  17.280  0.0870 -0.0979 -0.3900
  240W        W43231  18.421   2.301  15.680 -0.0029  0.0457  0.0664
  241W        W43232  16.453  34.796  19.942 -0.3455  0.0547 -0.1285
  242W        W43233  34.800   3.153  18.988  0.1579  0.0069 -0.0707
  243W        W43234   2.834  15.243  18.590 -0.1728  0.0434  0.2385
  244W        W43235   6.328  17.531  17.940 -0.4809  0.3907  0.0869
  245W        W43236  27.719  15.997  17.946 -0.1543  0.3234  0.2339
  246W        W43237  34.045  30.363  21.246 -0.1911 -0.1940  0.2145
  247W        W43238   4.903   8.608  27.376  0.1434 -0.3439 -0.3127
  248W        W43239  21.364  24.846  15.681 -0.1661 -0.0327 -0.1117
  249W        W43240  29.040  27.766  23.156  0.0142  0.0944 -0.1120
  250W        W43241  27.862  12.699  19.847 -0.1893  0.0810  0.3254
  251W        W43242  13.893   2.925  22.099  0.1994  0.0866 -0.0728
  252W        W43243  34.051  31.766  17.945  0.1582  0.1245 -0.0009
  253W        W43244  11.685   8.868  19.697  0.0623  0.0332 -0.0910
  254W        W43245  26.703  12.786  17.943 -0.0700 -0.0684 -0.0564
  255W        W43246  14.297   2.447  21.369 -0.1268  0.0634 -0.1383
  256W        W43247  17.287  24.448  29.080 -0.0884  0.2118 -0.0897
  257W        W43248  25.554  24.743  16.788 -0.2125  0.0891 -0.0815
  258W        W43249  19.617   5.361  19.839  0.0948  0.2765 -0.2454
  259W        W43250  28.179  22.391  20.856 -0.3969 -0.2520 -0.0964
  260W        W43251  28.233  33.761  14.587  0.4142  0.3132  0.0135
  261W        W43252  33.093  18.332  14.205  0.2265 -0.1597 -0.0536
  262W        W43253  25.145  10.818  17.196  0.0718  0.0888  0.6253
  263W        W43254  27.982  23.245  15.304  0.1052  0.1511 -0.1840
  264W        W43255  30.929   8.520  23.370 -0.2005  0.0720  0.1512
  265W        W43256  25.894  13.746  15.019 -0.1634 -0.3312 -0.1566
  266W        W43257  22.683  15.722  21.337 -0.4499 -0.2453  0.0748
  267W        W43258  11.307   5.928  22.809  0.0309 -0.1853 -0.0521
  268W        W43259  24.878  10.430  17.009  0.1843  0.3726 -0.0943
  269W        W43260  20.558  31.919  19.177 -0.0682 -0.2884 -0.0808
  270W        W43261   0.480  30.947  24.319 -0.1613 -0.1180 -0.0471
  271W        W43262   0.699  15.948   0.152  0.1818  0.1162 -0.2321
  272W        W43263  20.374   8.662  14.809  0.1111  0.0270  0.1450
  273W        W43264  22.110   8.723  17.382 -0.1438 -0.2116 -0.0451
  274W        W43265  22.949   6.132  22.858 -0.2958  0.0173  0.1578
  275W        W43266  21.683  16.956  16.727 -0.1276  0.0659 -0.0339
  276W        W43267  18.333   8.545  22.847  0.2658  0.0573  0.1989
  277W        W43268   8.220   5.671  20.322 -0.4567 -0.0442 -0.1034
  278W        W43269  22.442   3.732   7.501 -0.0836 -0.1222  0.3057
  279W        W43270  31.932  14.317  21.213 -0.0930  0.0121  0.0755
  280W        W43271  19.557  19.658  14.621 -0.2391 -0.1147  0.1206
  281W        W43272  28.723  16.685  21.967 -0.1786 -0.0479  0.3315
  282W        W43273  19.853   6.619  15.260  0.1358 -0.0049  0.1204
  283W        W43274  34.449  19.872  18.377 -0.2749  0.4154 -0.0355
  284W        W43275  28.505  19.654  14.176  0.0518  0.0175  0.0572
  285W        W43276   2.073  31.451  22.643 -0.1120  0.0216  0.1627
  286W        W43277  12.499   1.935  22.781 -0.0168 -0.0504  0.2609
  287W        W43278  21.235  30.984  25.092 -0.0193  0.1787  0.0377
  288W        W43279   4.355  20.816  16.060 -0.0087 -0.1075 -0.1908
  289W        W43280  10.278   1.060  17.678 -0.2403  0.0468  0.0189
  290W        W43281   7.838  20.944  17.750 -0.3746 -0.3356 -0.1524
  291W        W43282  20.499   7.083  17.777 -0.0140  0.0358 -0.1297
  292W        W43283  21.810   6.995  19.932  0.0258  0.2355 -0.0118
  293W        W43284  26.870  31.617  22.406  0.0895  0.0066  0.0865
  294W        W43285  31.099  18.751  18.870 -0.1602 -0.0666 -0.0932
  295W        W43286  28.337  28.185  19.034  0.0737 -0.0123 -0.2062
  296W        W43287  24.635  10.428   7.959  0.0435 -0.2664  0.2581
  297W        W43288  27.596   2.635  19.908  0.0049 -0.2076 -0.1910
  298W        W43289  28.017  12.502  26.371  0.1075 -0.0063  0.2060
  299W        W43290  25.047  12.626  17.649 -0.1031 -0.2563 -0.2154
  300W        W43291   8.337  29.972   6.599  0.1314 -0.0163  0.1285
  301W        W43292   4.823   6.207   5.471 -0.0645 -0.1749 -0.1346
  302W        W43293  25.909  34.638  22.517 -0.2563  0.2309 -0.0451
  303W        W43294  12.593   5.288  25.330  0.5678 -0.1416  0.0412
  304W        W43295  21.902   0.951  15.488 -0.1480  0.0683 -0.1011
  305W        W43296  29.551  26.296   6.093  0.2340 -0.2033 -0.2835
  306W        W43297  29.221  27.786  14.193 -0.0528 -0.0405 -0.0841
  307W        W43298  13.456  14.819  16.108 -0.0151  0.1590 -0.0834
  308W        W43299  14.023  12.316  22.526  0.2221 -0.0757  0.0484
  309W        W43300  21.932  10.582  20.129  0.1645  0.2417 -0.0027
  310W        W43301  34.515  31.659  16.793  0.1001  0.1630  0.1012
  311W        W43302  24.596  14.499  15.728 -0.1989  0.1344  0.3182
  312W        W43303  29.820  24.264   8.256  0.0482 -0.1566  0.0769
  313W        W43304   1.508  31.040  16.680  0.1024 -0.0415 -0.1951
  314W        W43305   7.669  25.350  18.976  0.3812  0.1594  0.1757
  315W        W43306   3.642  30.769  22.575 -0.4255  0.2983  0.2225
  316W        W43307   1.067  14.798  18.086 -0.0562 -0.1395  0.2232
  317W        W43308  23.574  26.830   2.035  0.3175  0.3270  0.2545
  318W        W43309  24.020  26.423  20.581 -0.2619 -0.1091 -0.0170
  319W        W43310  17.599  27.802  13.912  0.0638 -0.1896  0.0099
  320W        W43311  23.050  16.225  28.080 -0.0143 -0.0521  0.1852
  321W        W43312  22.042   3.889  24.022  0.2387 -0.0394 -0.2591
  322W        W43313  29.025   9.177  18.074 -0.0451 -0.1429 -0.1550
  323W        W43314   5.213  23.475   1.753  0.3114 -0.3073  0.0690
  324W        W43315   2.306   3.653  19.233 -0.1091  0.0413  0.0053
  325W        W43316  26.176  32.486  24.250  0.0928 -0.2505  0.0777
  326W        W43317  31.576   5.545  18.907 -0.2360  0.1848 -0.0769
  327W        W43318  23.346  31.647  28.551 -0.0386 -0.2091 -0.2170
  328W        W43319  31.749   5.073  18.854  0.0163  0.3761  0.2622
  329W        W43320  20.101  20.767  14.053  0.3196 -0.0903 -0.0867
  330W        W43321  16.646   8.589  15.587 -0.0556  0.1277 -0.0464
  331W        W43322  18.542   4.310  17.213  0.1730 -0.1749  0.2018
  332W        W43323  13.593   9.773   4.808 -0.4218 -0.0219  0.0979
  333W        W43324  23.860   2.716  27.841 -0.3585  0.2345 -0.1228
  334W        W43325  11.021  11.555   5.055 -0.1489 -0.0879 -0.2527
  335W        W43326  21.094  12.245  16.204  0.1687 -0.0014 -0.0322
  336W        W43327  20.860   2.627  16.540  0.2490  0.3590  0.0075
  337W        W43328  21.608   3.873   5.140  0.1634 -0.0656 -0.2275
  338W        W43329  15.925   2.042  18.258  0.2824 -0.2573  0.0893
  339W        W43330  19.342  21.974  22.496  0.0502  0.2744 -0.1274
  340W        W43331  15.319  13.572  20.964 -0.1464  0.0690  0.2744
  341W        W43332  22.432   4.547  27.036  0.3727  0.0191 -0.3566
  342W        W43333  28.793  26.033  22.167  0.2562 -0.1358  0.0299
  343W        W43334  20.152  11.586  15.375  0.0622 -0.2671 -0.1785
  344W        W43335  32.050   4.535  16.022  0.1874 -0.0762 -0.2731
  345W        W43336  21.430   2.719  16.754  0.3331  0.5694 -0.1333
  346W        W43337  17.212   6.185  20.169 -0.4324  0.0177  0.2996
  347W        W43338  27.562  13.952  21.311  0.0374 -0.0968  0.1239
  348W        W43339  24.981   6.176  16.055 -0.1145  0.1280  0.0224
  349W        W43340   8.027  28.801  22.850 -0.0950  0.3158 -0.2218
  350W        W43341  31.394  32.934  15.515  0.1626  0.0737  0.0168
  351W        W43342  16.633   6.152  18.037  0.0457  0.1693 -0.0593
  352W        W43343  25.580  21.857  24.508  0.4137 -0.0073  0.0027
  353W        W43344  32.606  24.008  23.993 -0.1657 -0.1896 -0.2146
  354W        W43345  13.275  19.838  14.426  0.2399 -0.0245  0.1007
  355W        W43346  30.809   5.434  18.897 -0.1745 -0.1003  0.2396
  356W        W43347   5.499   7.125  22.270 -0.0879 -0.0952 -0.0467
  357W        W43348  23.239   3.659  18.578 -0.2514 -0.0511  0.2559
  358W        W43349  31.193  33.282  27.467 -0.0624  0.1143 -0.2579
  359W        W43350  32.768  18.297  18.709  0.3284 -0.1293 -0.1237
  360W        W43351  10.583  16.259  20.551  0.1316 -0.3809 -0.0879
  361W        W43352  20.934   7.968  25.148  0.0981  0.4403  0.2101
  362W        W43353  17.628  28.986  15.282  0.0705 -0.1600 -0.2539
  363W        W43354  22.966  14.700  15.252  0.0807 -0.1028 -0.0490
  364W        W43355  24.497  34.263  22.155  0.0005  0.1636 -0.0368
  365W        W43356  11.376  12.951  22.775  0.3475 -0.1324  0.0603
  366W        W43357  26.374  32.292  28.970 -0.2842 -0.2138 -0.3899
  367W        W43358  22.900   5.344  15.858 -0.3451 -0.1687  0.3028
  368W        W43359  18.736  31.394  19.678 -0.3999 -0.1086  0.0888
  369W        W43360  17.833   3.677  21.928  0.0852 -0.4480 -0.0910
  370W        W43361  23.081  17.363   4.639 -0.0044 -0.1723  0.1228
  371W        W43362  33.929  11.629  16.284  0.0486  0.0726 -0.2053
  372W        W43363   5.151  14.266  24.677 -0.1540 -0.1359 -0.0391
  373W        W43364  11.170  14.907  24.349  0.1079  0.2394 -0.2432
  374W        W43365  26.192  31.771  21.557  0.0908  0.0894 -0.3936
  375W        W43366  26.321  13.662  25.103  0.2622 -0.0672 -0.0439
  376W        W43367  24.233   6.463   8.596  0.0790 -0.1010 -0.0178
  377W        W43368   4.925  13.932  18.551 -0.1222  0.0154 -0.1275
  378W        W43369  27.285   9.992  18.304 -0.0910  0.0831 -0.0074
  379W        W43370  24.891   3.143  22.143  0.2080 -0.1250  0.0598
  380W        W43371  23.222   6.547  25.573 -0.1605  0.1617 -0.0819
  381W        W43372  19.004   6.689   2.661 -0.0807 -0.1829 -0.0662
  382W        W43373  24.252  17.557  17.166  0.0448  0.3708 -0.0938
  383W        W43374   9.604   7.397  18.746 -0.0452 -0.1387  0.0396
  384W        W43375  25.197  34.249  17.024 -0.2685 -0.2543 -0.2157
  385W        W43376  23.357  30.528   2.439 -0.2322  0.1416  0.2111
  386W        W43377  30.951   6.965  27.841  0.0480 -0.1703  0.0319
  387W        W43378  18.268   7.873  18.704  0.0133 -0.1108 -0.0788
  388W        W43379  25.515  20.406  15.125  0.2525 -0.0059 -0.0586
  389W        W43380  27.503  33.805  25.662 -0.0013 -0.0269  0.1652
  390W        W43381  29.758  26.565  13.544  0.0021 -0.0410 -0.1600
  391W        W43382  23.316  27.718  15.364  0.0387 -0.0457  0.0526
  392W        W43383  19.513   5.791  18.773  0.0953  0.2974  0.3240
  393W        W43384   1.132  15.292  19.988 -0.0682  0.2042 -0.1176
  394W        W43385  24.562  33.550  14.047 -0.2518 -0.0196 -0.3995
  395W        W43386  22.736   0.540  13.893 -0.1114  0.0760  0.1787
  396W        W43387   9.719   4.702  21.036 -0.1792  0.2508 -0.3794
  397W        W43388  18.802   5.272  18.314 -0.1618 -0.0123  0.1898
  398W        W43389  18.103  19.184  12.637 -0.1590  0.1509  0.0506
  399W        W43390  18.512   5.254   4.361  0.2679  0.0861 -0.1218
  400W        W43391  23.990  16.430  27.193 -0.2992  0.5076  0.0762
  401W        W43392  22.865  16.414  19.467 -0.1134 -0.1605  0.2587
  402W        W43393  31.282   0.244  28.635 -0.1660  0.1491  0.0025
  403W        W43394  23.175  19.750  24.886  0.0309  0.0038  0.2682
  404W        W43395  27.848  16.516   0.672  0.1256  0.1941  0.1285
  405W        W43396  15.872  24.005  15.649 -0.1269  0.3494 -0.0091
  406W        W43397  20.705   9.974  15.248  0.2358  0.1741 -0.0168
  407W        W43398  24.975  13.254  18.211  0.2536 -0.1128  0.4440
  408W        W43399  17.046  13.285  23.572 -0.0111  0.1648 -0.0857
  409W        W43400  19.684  22.709  28.151  0.2698 -0.1610 -0.1732
  410W        W43401  16.726   0.665  18.833  0.0854  0.0370 -0.2891
  411W        W43402  23.937   5.616  15.116 -0.2731 -0.1037 -0.1360
  412W        W43403  29.995  17.750  22.598  0.0421 -0.3153 -0.2154
  413W        W43404   9.573  10.592  17.934 -0.1064  0.3089 -0.0369
  414W        W43405  11.753  32.546  19.125  0.1028 -0.0938  0.0871
  415W        W43406   3.731  30.653  15.414  0.1986 -0.1330  0.2211
  416W        W43407  12.114   9.684  16.584 -0.3009  0.2542  0.1590
  417W        W43408  25.237   1.331  22.970  0.1006 -0.1240  0.0799
  418W        W43409  11.647   2.518  21.325 -0.3920 -0.0464  0.0692
  419W        W43410  30.560   4.360  14.786  0.1832  0.0784 -0.0052
  420W        W43411  15.032   5.208  17.908  0.1020 -0.1056 -0.1863
  421W        W43412  28.510  10.696  25.118 -0.3267 -0.3266  0.0300
  422W        W43413  21.504  31.795  17.514 -0.0416 -0.1404 -0.2476
  423W        W43414  28.340  11.807  15.843  0.0490  0.1155 -0.1243
  424W        W43415  19.040   1.108  24.551  0.0873  0.1048 -0.1428
  425W        W43416  18.841  25.744  24.738  0.1053 -0.0482  0.1297
  426W        W43417  23.890  10.295  16.674 -0.1028 -0.0803  0.1865
  427W        W43418  19.079  33.507  15.538 -0.0095  0.2169 -0.1179
  428W        W43419  17.428   7.359  18.652 -0.2351  0.0111 -0.0272
  429W        W43420  16.259   9.910  18.589 -0.0578  0.2747  0.1719
  430W        W43421  14.556  29.407  20.176 -0.0296 -0.1732 -0.3375
  431W        W43422  22.614  13.928  23.173 -0.0980 -0.2906 -0.3205
  432W        W43423  13.899   2.318  18.865 -0.1617 -0.2950 -0.1033
  433W        W43424  23.669  26.178  27.195 -0.0231 -0.0373 -0.2239
  434W        W43425  24.329  27.044  19.878  0.2070 -0.0307  0.2815
  435W        W43426   5.345  31.615  18.767 -0.2098  0.1538 -0.0551
  436W        W43427  31.919  13.935  22.766 -0.0574  0.1284 -0.2045
  437W        W43428   7.161   5.669  17.976 -0.0940 -0.0781  0.0481
  438W        W43429   9.236   3.865   1.404 -0.0278  0.0762  0.0475
  439W        W43430   0.778   7.825  14.725  0.0127  0.0403  0.1520
  440W        W43431  29.503   2.710  19.576 -0.2159 -0.3561 -0.1790
  441W        W43432  31.148  17.096   0.270  0.1705  0.2508  0.4011
  442W        W43433  30.553  10.746  15.261 -0.0297 -0.1679 -0.2773
  443W        W43434  22.202  33.370  15.122 -0.2129  0.2614 -0.2425
  444W        W43435  19.725  27.984  13.250  0.0530  0.0782 -0.2907
  445W        W43436  20.141   9.474  19.987  0.0353  0.1368  0.1371
  446W        W43437  33.699   4.061  22.538  0.1872 -0.2720 -0.1832
  447W        W43438  30.224  12.647   0.515 -0.1098 -0.1389 -0.0183
  448W        W43439  31.236  30.046  20.124 -0.5160  0.0502 -0.2645
  449W        W43440  14.718  30.766  19.517  0.2492  0.0621  0.0982
  450W        W43441  21.285   0.682  25.238 -0.0423  0.0309 -0.2015
  451W        W43442  19.281  19.402  13.114  0.2808  0.0028  0.3576
  452W        W43443  29.613   7.700  24.059  0.0229 -0.0900 -0.0582
  453W        W43444  29.963  32.743  15.285 -0.2682  0.3457 -0.1631
  454W        W43445  22.143  11.541  17.785  0.1283 -0.3901 -0.0542
  455W        W43446  29.014   2.253  12.959 -0.2576  0.3369 -0.3588
  456W        W43447  23.070   4.194  24.317 -0.0786 -0.2245 -0.0853
  457W        W43448   2.659  27.097  17.035 -0.0513 -0.1932  0.0006
  458W        W43449   0.034  18.172  19.838  0.1953  0.2361  0.0015
  459W        W43450  20.298  13.708  13.918 -0.1492  0.3483 -0.0929
  460W        W43451  29.137   3.507  26.821 -0.0349  0.1566 -0.2167
  461W        W43452  28.130   5.763  25.839  0.0395 -0.0042  0.2069
  462W        W43453   6.632   5.620  22.403  0.0893 -0.1016 -0.0427
  463W        W43454  16.642  33.412  28.314 -0.0636  0.0237 -0.1286
  464W        W43455  13.493  26.456  14.316  0.2328  0.2822 -0.1372
  465W        W43456   5.088   0.026  15.981  0.0579 -0.1926 -0.0728
  466W        W43457  25.212  15.297  22.306 -0.1158  0.2396  0.1215
  467W        W43458  15.322  32.901  20.542 -0.0310  0.2463 -0.0335
  468W        W43459  29.356  33.806   0.754 -0.0504 -0.3269 -0.1703
  469W        W43460  33.090  17.848   1.744 -0.1463  0.1243  0.2478
  470W        W43461  18.623   9.331  15.268  0.0577 -0.0628  0.4141
  471W        W43462  10.264  17.275  21.824 -0.0602  0.0048  0.1351
  472W        W43463  27.263  31.811  18.168  0.1054  0.1332  0.3451
  473W        W43464  26.903  34.659  15.672  0.2497 -0.0014  0.2104
  474W        W43465  26.364  13.287  18.681  0.0609 -0.0370  0.0452
  475W        W43466   1.325  28.707  14.132  0.2235  0.1284 -0.3510
  476W        W43467  28.217  16.992  27.654  0.2445 -0.0305  0.0083
  477W        W43468   0.079   9.450  27.848 -0.2500  0.1186 -0.0272
  478W        W43469  22.133  26.994  16.923  0.1220  0.2853  0.1152
  479W        W43470   8.542   0.191   7.342  0.1252  0.1204 -0.4503
  480W        W43471  25.331  25.750   3.478  0.0110 -0.0225 -0.0117
  481W        W43472  15.596  10.848  16.969 -0.0288 -0.0725  0.4090
  482W        W43473  30.950  16.697   0.552  0.1536  0.0619 -0.1288
  483W        W43474  25.095   2.667  13.700  0.0741  0.2971 -0.0166
  484W        W43475  27.390  33.414  19.502 -0.0851  0.0641  0.4650
  485W        W43476  31.085  17.906   3.115 -0.1930  0.1726  0.2627
  486W        W43477  28.081   4.157  17.045 -0.0777  0.2919 -0.1729
  487W        W43478  31.700  14.404  17.053  0.1383 -0.2207 -0.0634
  488W        W43479  26.590   0.968  28.595  0.1736  0.1807 -0.2863
  489W        W43480  16.589   5.055  27.914  0.1121 -0.1279 -0.2483
  490W        W43481  11.685  24.645  14.290  0.0141 -0.1475  0.3706
  491W        W43482  15.221   2.283  16.455  0.0904 -0.2890  0.4229
  492W        W43483   0.807  17.775  18.184  0.0479 -0.0951 -0.0803
  493W        W43484  23.753   1.336  22.024  0.1719 -0.1248 -0.0540
  494W        W43485  27.455  21.061  16.507 -0.1593 -0.1251  0.0503
  495W        W43486  12.519  13.854  17.922 -0.1297  0.0469  0.2244
  496W        W43487  16.910   3.561  16.837 -0.2511 -0.2872 -0.1122
  497W        W43488  20.301   8.014  19.295 -0.3171 -0.2455 -0.2619
  498W        W43489  18.603  10.178  18.227 -0.1821  0.1539 -0.1355
  499W        W43490  11.447  12.492  22.932 -0.0029  0.0235 -0.0500
  500W        W43491  11.174  30.013  24.974  0.2246 -0.1036  0.1256
  501W        W43492  23.878  22.365  13.211 -0.0434 -0.1745 -0.0969
  502W        W43493  14.966   6.822  18.418 -0.5020 -0.3106  0.1356
  503W        W43494  20.511   3.021  16.671  0.0186  0.1099  0.1746
  504W        W43495  16.838  33.512  23.803  0.0325 -0.2319 -0.2042
  505W        W43496  30.592   1.810  25.230 -0.0354 -0.1904 -0.1581
  506W        W43497  30.745   8.343  14.843  0.3113  0.1378  0.0296
  507W        W43498  17.100  11.220  27.507 -0.1617  0.1132  0.3910
  508W        W43499  29.437  16.998  27.128 -0.2378  0.0656  0.0836
  509W        W43500  33.582   5.761  17.520  0.0913  0.1104 -0.0891
  510W        W43501  22.950  28.288  20.384  0.0669 -0.0703 -0.0001
  511W        W43502   7.522   5.434  26.600  0.1382 -0.0082 -0.0585
  512W        W43503  21.665   9.519  28.534  0.2808 -0.0143 -0.2979
  513W        W43504  22.973   1.285  19.189 -0.0062 -0.1182 -0.1545
  514W        W43505  19.392  26.746   8.680  0.2068  0.0289 -0.1436
  515W        W43506  17.265   0.546  16.980 -0.0567 -0.0259 -0.0744
  516W        W43507   8.617   7.911  22.320 -0.3391  0.0700  0.1686
  517W        W43508  26.187   4.500  17.524  0.0520 -0.1351 -0.2070
  518W        W43509  30.127  27.558  15.198 -0.0202 -0.2113  0.0196
  519W        W43510   9.025  31.556  18.467 -0.1269  0.2105  0.0700
  520W        W43511  22.663   1.460  14.835  0.0989 -0.0164  0.2243
  521W        W43512  23.677  33.813  24.907  0.2505 -0.1452  0.0790
  522W        W43513   1.482   7.621  18.330  0.1543 -0.1834  0.0194
  523W        W43514  13.028  11.386  26.532 -0.3019 -0.3482 -0.0261
  524W        W43515  23.933  30.157   5.054 -0.2403  0.1846  0.2790
  525W        W43516  32.651   0.742  14.949  0.2069  0.1870 -0.1711
  526W        W43517   8.414  22.127  27.064 -0.0800 -0.0883  0.0694
  527W        W43518  28.900  28.801  26.435  0.0158 -0.1979 -0.0177
  528W        W43519  20.716  10.243  23.627  0.2413 -0.1140 -0.2635
  529W        W43520  15.813  12.495   7.442  0.0324 -0.0121 -0.1748
  530W        W43521  31.968   6.312  24.050  0.0203 -0.1073  0.0410
  531W        W43522  11.381   8.363  25.382  0.1201 -0.1901 -0.1658
  532W        W43523  11.744  12.145  18.277 -0.2777 -0.1455  0.2559
  533W        W43524  21.494   0.218  18.849  0.3281  0.0497 -0.0379
  534W        W43525  29.687  29.183  15.846 -0.0102  0.1057 -0.0458
  535W        W43526  15.869  32.432  18.012  0.0084  0.4279 -0.1092
  536W        W43527  22.913   2.606  15.072 -0.1345 -0.0651  0.0380
  537W        W43528  30.986   1.164  22.979 -0.1758 -0.0303  0.0422
  538W        W43529  29.599  12.988  25.411 -0.3436  0.0063  0.0202
  539W        W43530  26.028  31.870   6.390  0.0641  0.0193 -0.0558
  540W        W43531  29.082   3.155  25.343 -0.0614  0.2959  0.1989
  541W        W43532  24.907  18.320  26.581  0.1781  0.0877 -0.0552
  542W        W43533  25.212  14.489   3.007 -0.0828  0.3737  0.3866
  543W        W43534   7.664  10.888  22.110  0.0156 -0.0211  0.0992
  544W        W43535   9.460   3.680  17.072  0.0191 -0.2312  0.2414
  545W        W43536   1.104   4.219  22.758  0.2070  0.0152  0.0819
  546W        W43537  19.345   2.926  19.974 -0.1970  0.1779 -0.1424
  547W        W43538  23.278   3.154  15.477  0.1297 -0.2686  0.0562
  548W        W43539  32.136  23.600  22.060 -0.1385 -0.2593  0.1313
  549W        W43540  19.206   2.586  18.274 -0.0813  0.0599 -0.0806
  550W        W43541  23.505   4.976  28.023  0.2499 -0.0984  0.1142
  551W        W43542   6.122   0.055  15.666 -0.2397  0.2572 -0.3514
  552W        W43543  29.114   7.105  18.057 -0.0104 -0.0114 -0.1331
  553W        W43544  17.335  15.133   4.102  0.1797  0.0718  0.1929
  554W        W43545  22.231  14.948  20.758 -0.0999 -0.5357  0.2477
  555W        W43546  19.580  11.962  14.899  0.1849 -0.1282  0.2835
  556W        W43547  26.607   9.902   6.334 -0.1019  0.2532  0.4270
  557W        W43548  19.927  34.698  25.478 -0.2491  0.1881  0.0325
  558W        W43549  20.678   2.040  15.527 -0.0969 -0.0013 -0.1664
  559W        W43550  22.317  34.361   3.268 -0.2480  0.0772  0.1741
  560W        W43551  20.251   9.788  16.195 -0.3540 -0.2180 -0.1666
  561W        W43552   9.578  19.894  25.245 -0.1621 -0.1707 -0.1311
  562W        W43553  19.465  33.463  25.398  0.4023  0.4445  0.2661
  563W        W43554  25.397  31.624   2.603  0.1816  0.3036  0.0025
  564W        W43555  12.559  10.599  16.816 -0.0981  0.1148 -0.2668
  565W        W43556  13.986   6.868  23.478 -0.3030  0.2080  0.0464
  566W        W43557   3.290  25.459   7.544 -0.0847 -0.0213 -0.2968
  567W        W43558  25.941  21.776  19.409 -0.1903  0.4535  0.0708
  568W        W43559  21.510   4.978  15.623  0.1246 -0.2044  0.0246
  569W        W43560  22.911  18.601  12.714 -0.0608 -0.1581 -0.1479
  570W        W43561  30.702  31.573  17.931  0.0465 -0.0592 -0.0174
  571W        W43562  23.259   4.914  19.961 -0.2197 -0.1527  0.2689
  572W        W43563  22.210  21.079  12.299  0.0186  0.1619  0.2742
  573W        W43564  14.902  12.634  19.879 -0.3258 -0.0693  0.0195
  574W        W43565  25.086  33.565  15.099  0.3937 -0.0892  0.1741
  575W        W43566  10.933  32.771  18.530  0.0386  0.0494 -0.1628
  576W        W43567   0.113  14.039  24.449  0.2581  0.0884 -0.0149
  577W        W43568  25.139   0.754   1.690 -0.1064 -0.0918 -0.0050
  578W        W43569   9.403   0.337  20.118 -0.0912 -0.0833 -0.0523
  579W        W43570  24.173   4.119  20.509 -0.1971 -0.0158 -0.0341
  580W        W43571  20.651   5.690  15.589  0.1056  0.0343 -0.2088
  581W        W43572   8.775   2.854  23.009 -0.1954 -0.1025  0.0450
  582W        W43573  18.462  10.875  22.700  0.0299  0.1573  0.0928
  583W        W43574   6.512  33.701  20.931 -0.0429  0.0536 -0.0127
  584W        W43575  27.813  21.734  15.704 -0.0135  0.0506 -0.3785
  585W        W43576  31.411   8.301  28.142 -0.1886  0.0314  0.0575
  586W        W43577  15.499   0.548  18.759  0.0656  0.1777 -0.1824
  587W        W43578  23.593  27.707  29.158  0.2068  0.0572 -0.0733
  588W        W43579  29.022  33.479  27.392  0.2517 -0.2905  0.1941
  589W        W43580  23.709  29.356  14.505 -0.1294 -0.0015 -0.1649
  590W        W43581  27.286  20.374   0.826  0.0462  0.2105 -0.2442
  591W        W43582  28.512   8.597  20.716  0.1021 -0.0853  0.2387
  592W        W43583  21.260  33.576  28.570 -0.0196 -0.0276 -0.1752
  593W        W43584  13.935  22.527  20.094  0.0110  0.0181 -0.3743
  594W        W43585  18.230   2.082   2.389  0.1328  0.2239  0.0412
  595W        W43586  24.096  25.975  22.721 -0.2683  0.0223  0.0382
  596W        W43587  30.471  30.188  18.241  0.1492 -0.1174  0.1475
  597W        W43588   0.321   7.714  28.828 -0.0242 -0.2594  0.1957
  598W        W43589  34.731   1.748  14.216  0.1062 -0.2539 -0.0868
  599W        W43590  23.158   4.732   6.775 -0.1053  0.0580 -0.1078
  600W        W43591  32.756  17.828   1.374  0.2287 -0.2200 -0.1076
  601W        W43592  32.427   9.049  16.621 -0.3092 -0.1184  0.1691
  602W        W43593   0.931   6.593   1.508  0.1263  0.0666  0.2603
  603W        W43594  12.787   0.553  29.221  0.0457 -0.0664  0.0305
  604W        W43595  13.295  34.331  19.811 -0.2247  0.0866 -0.4719
  605W        W43596   1.935  29.931  16.873  0.4598 -0.0040 -0.0029
  606W        W43597  25.959  10.692  21.947  0.0241  0.5254 -0.0216
  607W        W43598  10.579   6.183  17.181 -0.1625 -0.5061  0.0414
  608W        W43599  11.579   1.513  18.101  0.0481  0.0222 -0.1559
  609W        W43600  24.788  10.457  19.154 -0.2420 -0.1313  0.0082
  610W        W43601  20.238  16.751  16.898  0.1709  0.2211 -0.4140
  611W        W43602  25.502   3.587  27.784  0.2210  0.2787 -0.4091
  612W        W43603  23.959  14.129  26.233 -0.1005  0.0448 -0.2725
  613W        W43604   0.939   0.733  19.820 -0.0607 -0.4306 -0.0058
  614W        W43605  17.666   2.922  25.486  0.3266  0.0787  0.1390
  615W        W43606  30.225  17.517  18.625 -0.0601 -0.0546  0.1937
  616W        W43607  32.965  21.101  17.579  0.1860  0.1746  0.1401
  617W        W43608  25.574  34.492  19.441 -0.1539  0.1368  0.1029
  618W        W43609  24.765  21.144   5.173  0.2548 -0.4183  0.2391
  619W        W43610  27.628  25.445  21.900  0.1608  0.1831 -0.2436
  620W        W43611  15.716  27.863   1.389 -0.0970  0.0895  0.1076
  621W        W43612  28.713  18.124  25.935  0.0029  0.0706  0.0182
  622W        W43613  18.565   0.659  23.897 -0.3443  0.3108 -0.0537
  623W        W43614  17.777   1.983   0.273 -0.2427  0.0534  0.1078
  624W        W43615  16.128  23.337  12.317 -0.2515 -0.0405 -0.2796
  625W        W43616  32.410   4.661  24.113  0.3365  0.0002  0.0078
  626W        W43617  23.505  10.607  17.393 -0.1355 -0.0161 -0.1725
  627W        W43618  32.027  16.887  15.909 -0.0015 -0.1854  0.1096
  628W        W43619   8.807   4.427  21.882 -0.1564 -0.1790 -0.1420
  629W        W43620  18.169  29.390  18.552 -0.2671  0.0312 -0.1675
  630W        W43621  18.970  24.325  15.093 -0.0333 -0.2162  0.2649
  631W        W43622  14.585  21.074  12.366 -0.3091  0.0233  0.1677
  632W        W43623  25.178  13.377  18.896 -0.0919 -0.2431 -0.0685
  633W        W43624  26.281  12.029  22.614  0.1074  0.0788  0.0125
  634W        W43625  31.441  32.647  18.316 -0.0058  0.1453  0.2523
  635W        W43626  12.422   6.930  21.237  0.1600  0.2272  0.0686
  636W        W43627   1.078  27.591   3.820 -0.0960  0.1936 -0.1125
  637W        W43628  25.213   3.956  29.179  0.0629 -0.1262 -0.2474
  638W        W43629  11.261   7.281  17.162  0.0118 -0.2404 -0.0282
  639W        W43630  29.692  29.218  14.028 -0.2299 -0.0300 -0.0760
  640W        W43631   6.714  32.771  25.383  0.0413 -0.1408  0.1761
  641W        W43632  21.377   7.259  22.201  0.2898  0.2168 -0.0116
  642W        W43633  31.763  14.179   1.343 -0.0139 -0.1142 -0.0902
  643W        W43634   3.412  33.192  22.916 -0.2841  0.1046  0.0560
  644W        W43635  21.881  30.146  23.983 -0.3325 -0.0116  0.1892
  645W        W43636  24.351  30.475  19.213 -0.1959  0.2768 -0.0412
  646W        W43637  29.258   4.907  15.365  0.0202  0.0508  0.3416
  647W        W43638  28.466   0.846  13.715 -0.1542  0.5316 -0.4194
  648W        W43639  10.158   7.828  21.506  0.2872 -0.1292 -0.1113
  649W        W43640  10.551  16.226  24.275  0.0131  0.0294 -0.0866
  650W        W43641  26.198  10.095  19.733 -0.1297 -0.3142  0.1276
  651W        W43642  13.696   7.721  26.901 -0.0089 -0.3830 -0.0013
  652W        W43643  14.572  33.205  21.073  0.3231 -0.0127  0.0989
  653W        W43644  30.313  22.393  26.489  0.2508 -0.0531 -0.0311
  654W        W43645  32.923  21.169  25.207  0.1285  0.2011 -0.2480
  655W        W43646   9.671  12.476  24.542  0.0862  0.2456  0.0106
  656W        W43647  24.432  12.081  20.940 -0.2685  0.4411 -0.1236
  657W        W43648  14.319   3.935  22.999 -0.0144  0.1986  0.0124
  658W        W43649  28.175  30.124  13.619 -0.1400  0.0344 -0.0405
  659W        W43650  15.225  33.805  19.101 -0.2577 -0.1970 -0.4687
  660W        W43651  16.323   2.919  26.930 -0.3633 -0.2812 -0.0208
  661W        W43652  28.228  24.303  14.238 -0.2355 -0.0014 -0.0801
  662W        W43653   2.663  23.933  15.868 -0.3685 -0.2220 -0.0952
  663W        W43654  14.858  18.641   0.033 -0.0137  0.1322  0.2317
  664W        W43655   2.053  34.263  26.063  0.0619 -0.0202 -0.1040
  665W        W43656  32.873  33.006  19.185  0.2150  0.1978 -0.0752
  666W        W43657   6.677  21.891  15.081  0.0297 -0.2081  0.2519
  667W        W43658  30.885   0.938  14.866  0.0380  0.1260 -0.2412
  668W        W43659  33.744  28.501  14.104 -0.4402 -0.0612  0.0126
  669W        W43660   1.749   8.675  23.970 -0.2102 -0.0070  0.1921
  670W        W43661  31.104  19.395   3.303  0.1518  0.0236 -0.0037
  671W        W43662  27.243   8.052  21.872 -0.2912 -0.1347  0.3643
  672W        W43663  23.981  15.154  25.622 -0.1164  0.2266  0.0407
  673W        W43664  22.941  34.544  28.120  0.0728  0.1742 -0.0309
  674W        W43665  29.110  10.409  13.694  0.2727  0.2524 -0.0952
  675W        W43666  20.284   0.988  22.684  0.1039  0.1430 -0.0379
  676W        W43667  31.039  20.831  17.294 -0.2829  0.2269 -0.0131
  677W        W43668  14.271  15.713  26.215  0.1541  0.2360  0.1167
  678W        W43669  30.423  13.100  28.588  0.2065  0.1835  0.0999
  679W        W43670   4.164   4.935  15.215  0.0060 -0.0851 -0.0115
  680W        W43671  30.798  22.020  16.962 -0.0148 -0.4535 -0.0840
  681W        W43672  21.000  11.407  17.008 -0.2332 -0.1583  0.2228
  682W        W43673  12.971  17.322  22.542 -0.3402 -0.3555 -0.0413
  683W        W43674  26.410   1.179  14.860  0.0651 -0.0009  0.3578
  684W        W43675  28.550  12.607  16.231  0.0866 -0.1306 -0.0413
  685W        W43676  15.410   7.237  25.730 -0.0235 -0.0878  0.2204
  686W        W43677  22.183  21.450   2.087 -0.1323 -0.0525 -0.0325
  687W        W43678  28.506  25.546  19.506  0.1053 -0.3567 -0.1398
  688W        W43679  25.644  13.467  25.879  0.1563  0.0427  0.0394
  689W        W43680  19.614  21.800  15.618  0.2854  0.1108  0.1805
  690W        W43681  28.818   6.319  14.511 -0.0834  0.0063  0.0428
  691W        W43682  33.801  31.254  17.999  0.0066 -0.1730 -0.0202
  692W        W43683   4.672  16.834   0.651 -0.6923 -0.0502 -0.1599
  693W        W43684  20.989   1.064  22.500 -0.1234 -0.2045 -0.3672
  694W        W43685   1.210   6.116  15.017 -0.1239  0.2318 -0.0836
  695W        W43686  26.728  26.727  16.574  0.1070  0.1488  0.0777
  696W        W43687  10.890  14.230   3.952 -0.3361 -0.1459  0.0090
  697W        W43688  26.762  15.476  24.659  0.0044 -0.2429 -0.0169
  698W        W43689   8.070  11.044  16.581  0.2272 -0.5069  0.0771
  699W        W43690  21.609  27.900   1.970  0.0472  0.1484 -0.1882
  700W        W43691  21.797  16.386  17.781  0.2094 -0.1167  0.0768
  701W        W43692  28.404   8.508   1.691  0.1607 -0.1579  0.3485
  702W        W43693  22.890  20.075  17.307  0.0233 -0.1899 -0.1569
  703W        W43694  32.999   4.090  23.277  0.1116  0.3002 -0.1489
  704W        W43695  13.472   1.549  16.124  0.0692  0.1004  0.6150
  705W        W43696  19.117   9.444  15.045  0.0373  0.0442  0.1074
  706W        W43697  31.989  33.798  22.389  0.0194  0.3272  0.0302
  707W        W43698  28.361  10.926  16.399  0.1458 -0.0663 -0.2221
  708W        W43699  22.031  21.936  28.187  0.0313  0.0856  0.2252
  709W        W43700  17.961  34.615  28.464 -0.0681 -0.4865  0.0291
  710W        W43701  21.600   4.751  13.701 -0.3054 -0.0231 -0.0359
  711W        W43702  27.427   2.652  14.821  0.2728  0.0433  0.0305
  712W        W43703  26.743   4.023  20.848  0.0356  0.2207 -0.1157
  713W        W43704  22.661  13.936  26.116  0.0326 -0.2769  0.0332
  714W        W43705   8.033   7.909  23.146 -0.2222 -0.0245  0.1045
  715W        W43706  18.586  22.442  19.450 -0.0700 -0.2072 -0.0247
  716W        W43707  32.799  11.739  24.597  0.1414 -0.1611 -0.0076
  717W        W43708  24.073  13.158  17.018  0.0852  0.2014 -0.0174
  718W        W43709  25.313  16.601  18.353 -0.0176 -0.0863 -0.1035
  719W        W43710  21.952  33.810  15.388 -0.0071 -0.0195 -0.0050
  720W        W43711  16.899   8.664  20.871  0.0085  0.2237 -0.0690
  721W        W43712  17.954  28.054  21.120 -0.0644 -0.2601  0.0928
  722W        W43713  10.262  23.551  13.970  0.2015 -0.2630 -0.2225
  723W        W43714  19.534   4.230  14.133 -0.4353  0.1390 -0.2844
  724W        W43715  24.294   5.877  19.462  0.0187  0.0442  0.1325
  725W        W43716  31.380  14.447  18.941 -0.0211  0.1915 -0.2119
  726W        W43717   2.561   5.398   0.395  0.3483  0.3407  0.3516
  727W        W43718  25.702  16.810  21.890  0.0755 -0.1889 -0.0501
  728W        W43719  25.847  10.400  25.281 -0.0651  0.0650  0.1512
  729W        W43720  20.135  22.759  26.298  0.0827  0.2525  0.2960
  730W        W43721  19.004  32.431  23.175 -0.0598 -0.3521 -0.1245
  731W        W43722   7.194   3.895  16.648 -0.3743  0.0472  0.1351
  732W        W43723   1.108  19.507  17.730  0.1746  0.2253 -0.1213
  733W        W43724  34.636  12.436   2.696 -0.0794 -0.4300 -0.0417
  734W        W43725  11.659  17.624  16.719 -0.0264 -0.0706 -0.3104
  735W        W43726  11.383  28.611  27.465  0.1267 -0.2469  0.2471
  736W        W43727  15.678  30.972  19.210 -0.1235 -0.1436 -0.0609
  737W        W43728  32.052  14.543  15.907 -0.1322 -0.4590  0.0806
  738W        W43729  19.012   8.795  22.326  0.1367 -0.1464 -0.0891
  739W        W43730   6.319  21.812  20.512 -0.1010  0.0630 -0.6444
  740W        W43731  24.516   1.875   1.745  0.0987 -0.0306  0.0619
  741W        W43732  30.058  33.353  18.120  0.1027 -0.3336 -0.1818
  742W        W43733   5.895   0.521  16.168  0.1529  0.0947 -0.2304
  743W        W43734  13.927   7.650   0.485  0.2091  0.2365  0.0643
  744W        W43735  24.845  14.992  23.401 -0.0538 -0.3563  0.0610
  745W        W43736  27.710  34.347  13.239  0.3575 -0.0969  0.0089
  746W        W43737  19.236  22.702  15.274 -0.4023 -0.0499 -0.3691
  747W        W43738  33.663   1.931  27.931  0.0114 -0.1470 -0.0694
  748W        W43739   4.918   0.440  15.651  0.2680  0.0931  0.1848
  749W        W43740  20.178  34.137  21.847  0.2494  0.1047  0.0511
  750W        W43741  18.758  32.179   1.872 -0.0413 -0.1263  0.3233
  751W        W43742  34.026   8.269  23.556  0.1347  0.2639 -0.0186
  752W        W43743   2.563   7.883  27.287  0.3066  0.1015  0.3437
  753W        W43744  11.346  33.110   6.299 -0.1679  0.0419  0.0609
  754W        W43745  29.194   8.693  15.023 -0.0962  0.2871 -0.0874
  755W        W43746  30.049  10.371   6.124  0.0132  0.0923  0.0809
  756W        W43747  32.526  11.010  23.175 -0.0068 -0.0144  0.0380
  757W        W43748  14.696   6.484  21.382  0.1373  0.1066 -0.1394
  758W        W43749  15.310  24.324  26.338  0.1230 -0.3620  0.2381
  759W        W43750  13.874   6.618   3.408 -0.1028  0.1743 -0.2604
  760W        W43751   0.131   7.989  17.153  0.1075  0.3037 -0.0811
  761W        W43752  24.736   8.845  15.051 -0.0454 -0.1093  0.0039
  762W        W43753  28.098  33.349   1.181 -0.4838  0.0277  0.0181
  763W        W43754  15.938   5.200  21.791 -0.3156 -0.0706 -0.2751
  764W        W43755  31.961   3.179  27.164  0.2585  0.3380 -0.1956
  765W        W43756  19.399   6.774  27.770 -0.2201  0.1769  0.1304
  766W        W43757  17.611  32.590  26.884  0.4184  0.0509  0.0497
  767W        W43758  22.962  11.296  15.960 -0.0563  0.0622  0.2352
  768W        W43759  17.002   2.513  23.447  0.0482  0.1299 -0.1651
  769W        W43760  14.516  31.244  16.300  0.1685 -0.2050 -0.0882
  770W        W43761  27.490  16.807  22.727 -0.3198  0.2677 -0.1000
  771W        W43762  32.898   7.964  22.832 -0.1550 -0.1769 -0.0418
  772W        W43763  24.218  30.218   7.969  0.0804  0.0912  0.0067
  773W        W43764  31.504  31.704  15.662 -0.1065 -0.1205 -0.0945
  774W        W43765  10.489  26.453  18.024 -0.1190 -0.1265 -0.2461
  775W        W43766  28.133  11.602  26.975 -0.3157  0.0846 -0.1048
  776W        W43767  27.866   9.670   5.353 -0.1947 -0.2306 -0.1700
  777W        W43768  20.383  14.659  18.018  0.1792  0.1173  0.3001
  778W        W43769  27.230  29.215   7.894  0.1131 -0.0828 -0.1479
  779W        W43770   9.489  11.616  15.825  0.0958 -0.1940  0.2531
  780W        W43771  22.827  11.110  16.451  0.1625 -0.2573  0.0726
  781W        W43772  22.302   3.973  20.479  0.1590  0.0242 -0.1572
  782W        W43773  25.158   0.240  14.589  0.0254  0.0754  0.1655
  783W        W43774  28.381  27.718  25.425  0.1863 -0.1324  0.0868
  784W        W43775  34.631  12.411  20.938 -0.1650  0.3869  0.0095
  785W        W43776  25.051  18.433   3.307  0.0003 -0.0680  0.0088
  786W        W43777  30.337  31.087   3.397  0.1009  0.0690 -0.2185
  787W        W43778  29.503   3.325  24.200 -0.1295  0.3294 -0.2567
  788W        W43779  22.445   4.394   1.194  0.1797 -0.0144  0.0797
  789W        W43780  25.700   0.117  23.472 -0.2947  0.2959  0.0604
  790W        W43781   7.178  14.166  21.549  0.1812  0.2468 -0.1028
  791W        W43782  13.724  31.030  21.926  0.1501 -0.1474 -0.0367
  792W        W43783   7.755   0.197  22.345 -0.1501 -0.3307 -0.0929
  793W        W43784  23.155  11.187  19.800 -0.0288  0.0531 -0.1109
  794W        W43785  28.550   3.581   2.392 -0.3463 -0.3613 -0.2708
  795W        W43786   4.283   2.870  17.637  0.1517  0.1412 -0.2960
  796W        W43787  27.458   3.452  21.956  0.0596 -0.2504 -0.1300
  797W        W43788  28.287  24.758  26.994  0.0685  0.4032  0.1751
  798W        W43789  30.018   3.324  20.756  0.1501 -0.2367  0.1903
  799W        W43790  20.241  34.028   4.513  0.1241 -0.1331 -0.1803
  800W        W43791  13.503   1.326  21.714 -0.1105  0.2755 -0.0522
  801W        W43792  20.752   8.974  27.822 -0.0694 -0.2679  0.0670
  802W        W43793  25.049  31.509  15.177  0.1283 -0.1268  0.0542
  803W        W43794  10.016  31.691  22.858  0.0847  0.2060 -0.0648
  804W        W43795  28.198   0.309  27.701 -0.1279 -0.0602 -0.1226
  805W        W43796   0.084   4.088  25.576  0.0342  0.0491  0.1000
  806W        W43797  16.811  33.343  21.659 -0.2989  0.0431 -0.1463
  807W        W43798   6.595   6.648  15.992 -0.0949  0.0912 -0.0210
  808W        W43799  13.496  11.902  18.371 -0.0383  0.2479 -0.0010
  809W        W43800  23.424  10.262  26.991 -0.5242  0.1154  0.2268
  810W        W43801  16.765  33.238   1.765  0.2155 -0.0373  0.4300
  811W        W43802  16.286  12.628  20.525  0.1921  0.1296  0.3527
  812W        W43803  24.362   4.219  16.963  0.0040 -0.1750  0.3039
  813W        W43804   4.885  11.328  18.204  0.0429  0.1671 -0.2233
  814W        W43805   0.881  23.349  25.071 -0.3355 -0.1616  0.1090
  815W        W43806  10.484   5.934  20.854 -0.1555 -0.1555  0.0561
  816W        W43807   0.066   0.628  15.113  0.2270  0.1321  0.2744
  817W        W43808  24.595   0.517  20.568  0.0459 -0.0054  0.2650
  818W        W43809  26.604  12.932  27.744  0.0185  0.0748 -0.1702
  819W        W43810  29.504  34.562   2.833  0.1049 -0.0875  0.1082
  820W        W43811  23.851  33.485  27.269 -0.3158 -0.0286  0.1110
  821W        W43812  31.353   5.606  19.750  0.2288 -0.0573  0.1265
  822W        W43813  21.563   1.873  22.900  0.0742  0.2030  0.4644
  823W        W43814  21.772  11.574   9.250  0.1928 -0.1194 -0.1365
  824W        W43815  31.691  32.217   2.372 -0.2300 -0.1337  0.2102
  825W        W43816  20.281   4.806  15.643  0.1073  0.0657  0.2218
  826W        W43817  21.531   0.952  17.221 -0.6096 -0.0606  0.1226
  827W        W43818  15.824   3.310  25.151  0.0091  0.1914 -0.0470
  828W        W43819  13.731  13.811  18.040  0.0886 -0.2304  0.0055
  829W        W43820  26.154   8.255  18.353 -0.0498 -0.2270 -0.2559
  830W        W43821  18.784  28.295  29.258  0.0718  0.2690 -0.0764
  831W        W43822   8.552  32.488  22.929 -0.1399 -0.0293 -0.1072
  832W        W43823  21.197   5.763  19.359 -0.1415 -0.1829 -0.1205
  833W        W43824  24.808   4.696  18.566 -0.2082 -0.5045  0.1590
  834W        W43825  30.848  10.256  17.453 -0.1241 -0.0712 -0.2426
  835W        W43826  19.746   9.757  16.258 -0.1659 -0.2355  0.0421
  836W        W43827  34.768   0.737  17.055 -0.0536 -0.0223  0.2799
  837W        W43828  14.800   3.114   0.033 -0.3608 -0.0325 -0.0124
  838W        W43829  19.315   1.033  18.785 -0.2873 -0.0807 -0.1098
  839W        W43830  27.949  10.132  20.279 -0.0400 -0.1318  0.1492
  840W        W43831   6.709   8.016  16.169 -0.1217 -0.1947 -0.1214
  841W        W43832  24.403  21.295  23.473  0.1751 -0.2336  0.0997
  842W        W43833  21.960  28.833  15.627 -0.0314 -0.3008 -0.0430
  843W        W43834  19.519  10.546  17.978 -0.0658 -0.3934 -0.2222
  844W        W43835  31.342  33.865  18.200 -0.1921 -0.0799  0.1561
  845W        W43836   3.834   8.729  21.011 -0.2513 -0.2351  0.1249
  846W        W43837  34.673  31.846  25.481  0.1936 -0.2807 -0.1115
  847W        W43838   6.913   4.825  16.077  0.4882 -0.0772 -0.0621
  848W        W43839  19.688  12.979  17.949 -0.0247  0.0672  0.2425
  849W        W43840  28.141  31.543  23.262  0.0384 -0.0372  0.0301
  850W        W43841   9.592  14.522  24.235 -0.2262  0.0607  0.0416
  851W        W43842   0.780  34.671  14.687  0.0280  0.2721 -0.0282
  852W        W43843  19.187  34.014  15.601 -0.0584  0.5646  0.3549
  853W        W43844  16.507  23.604  19.737  0.2381 -0.1863 -0.0122
  854W        W43845  23.460  21.351  14.290 -0.1278 -0.5532  0.0306
  855W        W43846  12.091   6.019   8.963  0.0091  0.2110 -0.0701
  856W        W43847  24.295  12.364  28.594  0.1361  0.3597 -0.4588
  857W        W43848  19.005   1.622   1.680 -0.0126  0.1136  0.1740
  858W        W43849   4.253  31.572   3.642  0.2799 -0.0533  0.2346
  859W        W43850  16.747  26.447  25.940  0.1372  0.0741 -0.1787
  860W        W43851  14.428  22.104  14.432 -0.0800 -0.2602  0.1367
  861W        W43852  34.739  10.951   2.698 -0.4080  0.2041 -0.1245
  862W        W43853   7.158   6.701  19.444  0.0073  0.1470 -0.1365
  863W        W43854   2.315  23.709  19.207 -0.1404 -0.2126  0.2660
  864W        W43855  32.284  12.833  28.714 -0.3636 -0.4737  0.1473
  865W        W43856  30.181  10.795  21.908  0.1446  0.0346 -0.2021
  866W        W43857  27.324   5.175  21.529  0.2039 -0.2528  0.0490
  867W        W43858  20.502   8.118  24.488 -0.1963 -0.0881 -0.0888
  868W        W43859  28.569  21.236  24.894 -0.0184  0.1865  0.0139
  869W        W43860  16.506   1.201  10.638  0.0194 -0.0815 -0.2463
  870W        W43861  24.970  27.343  28.186 -0.0421 -0.0817 -0.2048
  871W        W43862  13.198  13.809  26.832 -0.2747 -0.1007 -0.0148
  872W        W43863  20.789  31.358  20.554 -0.0888  0.0458  0.0906
  873W        W43864   9.039  15.489  17.827  0.2065 -0.3457  0.2786
  874W        W43865  31.900  29.366   6.145  0.0809  0.0947 -0.2050
  875W        W43866  18.708   9.366  15.765  0.2692 -0.1124 -0.0595
  876W        W43867  14.302   2.393  22.153  0.1268  0.0078  0.1113
  877W        W43868   5.025  11.263   2.235  0.3932  0.2427  0.1108
  878W        W43869  20.199  30.181  23.350 -0.0300  0.0826 -0.0940
  879W        W43870  17.281  12.423  18.737 -0.1531  0.0051 -0.0865
  880W        W43871  21.552   8.130  23.126 -0.2718  0.2784  0.0191
  881W        W43872  19.454   7.054  27.393  0.0094 -0.2085 -0.1837
  882W        W43873  30.014  11.729  27.225 -0.3806 -0.1390 -0.1597
  883W        W43874   0.781  12.109   5.136  0.2241 -0.0420  0.0679
  884W        W43875  32.519   8.616  16.392  0.2935  0.0148 -0.1517
  885W        W43876  20.690  18.887  13.932 -0.1076  0.1589 -0.0492
  886W        W43877  26.929  14.409   6.691  0.2262 -0.2847 -0.0178
  887W        W43878  25.520  13.664  22.147 -0.0766  0.1367  0.4038
  888W        W43879  22.609  12.670  28.799  0.1107  0.0389 -0.1253
  889W        W43880  14.837  13.293  17.199  0.2086  0.1250  0.1597
  890W        W43881   5.111   9.854  19.268  0.0139  0.1769 -0.2162
  891W        W43882  18.199  21.749  21.681  0.1016 -0.2324 -0.2819
  892W        W43883  24.543  34.010  24.674  0.1827  0.0873 -0.2633
  893W        W43884  20.251   0.897  16.731  0.4264  0.1007  0.0658
  894W        W43885  21.215   5.766  16.407  0.0836  0.1008 -0.1448
  895W        W43886  28.815  13.895  18.912  0.1241  0.2329 -0.1126
  896W        W43887  29.749   0.869   7.673 -0.1102  0.2618  0.2978
  897W        W43888  25.606   9.834  21.464 -0.1340  0.0724  0.2721
  898W        W43889  25.099  13.163  17.725 -0.0915 -0.1727  0.0060
  899W        W43890  31.843   0.321   4.896  0.2336  0.0985 -0.1221
  900W        W43891  29.103  14.248  18.336 -0.3115 -0.1553 -0.3444
  901W        W43892   1.433  11.381  21.170  0.0407 -0.3195 -0.2722
  902W        W43893  25.447  15.117  16.058  0.0428  0.1263  0.0483
  903W        W43894  12.860   3.939  10.117 -0.1009  0.0781 -0.4557
  904W        W43895  34.065  31.622  22.077  0.1073  0.2378  0.1025
  905W        W43896  10.050  18.269  18.037  0.1818  0.0010 -0.2650
  906W        W43897  18.056  27.443  25.635  0.1277  0.1616 -0.0261
  907W        W43898  15.711   7.123   5.512  0.0665  0.1066  0.2425
  908W        W43899  24.217   2.992   1.711  0.0528 -0.2032 -0.0725
  909W        W43900   0.584  11.503  26.665 -0.0482 -0.3371 -0.0284
  910W        W43901   0.522   3.102  19.039  0.3093  0.2602 -0.0033
  911W        W43902  20.035  30.471   8.060  0.0692 -0.2170 -0.2722
  912W        W43903  10.215   0.330  15.522  0.2118 -0.3866  0.3757
  913W        W43904   1.078  28.749  18.149 -0.0853 -0.2453  0.0186
  914W        W43905  17.619  30.041  16.635 -0.0813  0.1277 -0.0522
  915W        W43906  25.774  18.980  24.879  0.2816 -0.0348 -0.3667
  916W        W43907  25.216  23.574  18.239  0.0344 -0.1723  0.1074
  917W        W43908  11.346   2.919  23.187 -0.0643 -0.3275  0.0036
  918W        W43909  13.845  28.113  25.235  0.0265 -0.1015 -0.1950
  919W        W43910  25.740  10.987   3.382  0.0701  0.2927  0.0364
  920W        W43911  15.668  23.397   8.465  0.1929 -0.0707 -0.2386
  921W        W43912  30.222  15.242   6.598 -0.1313 -0.1767  0.2014
  922W        W43913  14.486  27.686   5.951 -0.3318  0.0920  0.1084
  923W        W43914  34.110  32.373  24.809 -0.1805  0.0466 -0.3182
  924W        W43915  13.455  22.742   2.873  0.2192  0.1459  0.1027
  925W        W43916  10.866   0.939   6.243  0.0930 -0.1226 -0.1254
  926W        W43917  15.994  31.973  18.484  0.2390  0.2473  0.2364
  927W        W43918  22.524  33.932  16.124  0.0964  0.0380 -0.0524
  928W        W43919  23.888  21.771  27.426 -0.1045  0.0227  0.0929
  929W        W43920  13.347  19.020  22.415 -0.0399  0.0514  0.0766
  930W        W43921  13.574  20.196  14.950 -0.0942 -0.1573  0.1447
  931W        W43922  17.659   0.369  19.185  0.2405  0.2789 -0.1553
  932W        W43923  26.695  16.130  27.207 -0.2369  0.1879 -0.1862
  933W        W43924   1.882  17.074  11.222  0.0273  0.1081  0.3079
  934W        W43925  26.692   2.675   1.547 -0.0781 -0.3444  0.3503
  935W        W43926  12.389   9.766  17.092  0.0197  0.0376  0.3112
  936W        W43927  17.691   2.441   2.452 -0.1698  0.1322  0.1757
  937W        W43928  27.880  26.275  14.722  0.0249  0.1747  0.3791
  938W        W43929   9.873   2.022  18.596 -0.1389  0.3360  0.0050
  939W        W43930  17.823  17.701   7.270  0.1396  0.4475 -0.0743
  940W        W43931  23.785   9.133  21.347  0.1377  0.0627  0.2003
  941W        W43932  30.140   4.197  16.150 -0.1377  0.0439 -0.1574
  942W        W43933  21.024  30.403  23.451 -0.1341 -0.0254 -0.1304
  943W        W43934  22.040  12.229   6.589  0.0428  0.1557  0.1784
  944W        W43935  27.701  19.275  22.807 -0.0039  0.0492  0.1784
  945W        W43936  19.557  30.815  14.579 -0.0837 -0.1801 -0.1716
  946W        W43937  25.542   9.324   7.677  0.2076 -0.1837  0.0298
  947W        W43938  22.825  22.840  27.891 -0.2449 -0.1713 -0.2249
  948W        W43939  10.301  28.415  25.874  0.0042  0.1862 -0.1184
  949W        W43940  17.817   0.983  17.846 -0.0609  0.0638 -0.1719
  950W        W43941  19.672  33.657  24.530 -0.0654 -0.0755 -0.0263
  951W        W43942  20.032   2.889  16.819  0.2912 -0.1444 -0.2688
  952W        W43943  19.767  23.836  13.496 -0.2685  0.0053 -0.1113
  953W        W43944  26.523   6.394  16.992 -0.5212  0.0199 -0.2051
  954W        W43945  22.099   5.738  28.475  0.1238  0.0346 -0.1734
  955W        W43946  15.662  28.051  23.985 -0.2218 -0.0027 -0.0069
  956W        W43947  10.069   4.143  25.909  0.2104 -0.2391  0.0714
  957W        W43948  29.399  34.538  18.780  0.2121 -0.2685  0.0289
  958W        W43949  12.925  34.772   6.376 -0.1334 -0.0388 -0.4996
  959W        W43950  23.214  16.761   2.668 -0.2622 -0.3017  0.2060
  960W        W43951  34.032  34.731   8.841  0.0259 -0.1633 -0.0955
  961W        W43952  20.293   6.028   5.973  0.1178 -0.0391 -0.1526
  962W        W43953   1.024  29.520   6.938  0.4083 -0.1588  0.1413
  963W        W43954  26.214   7.543  19.023 -0.2346 -0.0006  0.1272
  964W        W43955  12.134  19.850  20.896 -0.3680 -0.0195 -0.1643
  965W        W43956   6.631   4.837   6.585 -0.0350 -0.2478  0.4500
  966W        W43957  17.131  30.128  26.906 -0.0963  0.0023 -0.0082
  967W        W43958  16.922  27.605  18.381 -0.0667  0.0780 -0.0053
  968W        W43959   2.276   8.463  15.766  0.0154  0.1603 -0.0872
  969W        W43960  25.777   7.934  19.363  0.1507  0.0531  0.2899
  970W        W43961  20.540   7.588   1.988  0.1017 -0.2487 -0.0778
  971W        W43962  25.436   1.065  26.865 -0.4870 -0.1850  0.0967
  972W        W43963  26.329  17.942  24.943  0.1661 -0.1226 -0.1504
  973W        W43964  21.535  31.565  16.084 -0.0172  0.1742  0.0407
  974W        W43965  17.073   0.419  20.910 -0.2122 -0.0512 -0.2573
  975W        W43966  27.937   5.756   9.498  0.0723 -0.0679 -0.1353
  976W        W43967  33.466   8.188   8.348  0.1675  0.1129  0.1892
  977W        W43968  25.722  22.530  16.847  0.1238  0.0951  0.4061
  978W        W43969  27.906  19.058  18.627 -0.0178  0.3586  0.4695
  979W        W43970  30.007   4.317   0.791  0.0379  0.0962 -0.0004
  980W        W43971   9.489  11.024  20.150 -0.1764 -0.0286 -0.0986
  981W        W43972   3.792  32.027  17.300  0.2862 -0.2669 -0.0828
  982W        W43973  11.304  11.007  19.762 -0.2217  0.3637  0.0488
  983W        W43974   0.669   6.850   3.319  0.0455  0.1920  0.1432
  984W        W43975  25.250  32.889   8.682 -0.2451 -0.1491 -0.1481
  985W        W43976  18.414  24.852  18.765  0.0128 -0.1288  0.0404
  986W        W43977  18.486   7.634   3.932 -0.2966  0.0836 -0.2914
  987W        W43978  17.879  11.167   1.354 -0.1278 -0.2260  0.2898
  988W        W43979  31.980  10.975  22.529 -0.2351 -0.0163  0.0205
  989W        W43980  29.367   9.826  16.502  0.1591  0.0520 -0.0533
  990W        W43981   9.819   3.156  21.402  0.0809 -0.2584  0.1075
  991W        W43982  25.365   7.765   0.687 -0.2910  0.1153  0.0605
  992W        W43983  29.091  21.524   8.904 -0.3022 -0.0094  0.2944
  993W        W43984  33.426   3.571  14.750  0.1122 -0.0700  0.0272
  994W        W43985  28.218   9.180  21.364  0.0970  0.1533  0.0099
  995W        W43986  22.874   7.426  27.372  0.0384 -0.0843 -0.1760
  996W        W43987  17.420  24.761  28.642  0.1106  0.3775 -0.1356
  997W        W43988  26.585  15.312  29.096 -0.1926  0.0086  0.0164
  998W        W43989   9.190  21.613   1.232  0.2362  0.0855 -0.4500
  999W        W43990  23.613  26.800  14.813  0.2717 -0.2439 -0.1432
 1000W        W43991  23.797   5.559   5.824  0.3165 -0.2408 -0.0421
 1001W        W43992  26.696   7.545  24.235 -0.3207 -0.0478  0.1708
 1002W        W43993   5.835  27.106  27.901  0.2314 -0.0654  0.4100
 1003W        W43994  22.978  26.884  22.200  0.0465 -0.1948 -0.1708
 1004W        W43995   0.112  15.793  17.129  0.2545  0.1592 -0.0402
 1005W        W43996  24.548   5.912   1.946  0.1991  0.2405  0.1021
 1006W        W43997  31.739   9.205  17.730 -0.0881  0.3759  0.0584
 1007W        W43998   5.540   4.571   9.223 -0.1902  0.0422  0.0493
 1008W        W43999  26.468  29.776  25.504 -0.0391 -0.0143  0.0084
 1009W        W44000  32.200  11.487  24.364  0.2498 -0.1847 -0.0766
 1010W        W44001  17.729   6.385  24.637  0.4760 -0.0031  0.0395
 1011W        W44002   9.529   1.362  18.841  0.0619  0.1239 -0.2284
 1012W        W44003   0.610  17.714   0.892  0.0995  0.3470  0.1089
 1013W        W44004   1.659  10.493  15.764  0.2515 -0.0733  0.2404
 1014W        W44005  20.705  14.422  14.999  0.0504  0.1454 -0.0083
 1015W        W44006  17.612  33.610  22.299  0.3267 -0.0849 -0.2705
 1016W        W44007   3.740  15.086   1.344 -0.1362  0.2825  0.0210
 1017W        W44008  16.890   2.628  17.119 -0.3342  0.4516  0.0424
 1018W        W44009  21.802  31.510  17.849 -0.0559 -0.0792 -0.3065
 1019W        W44010  16.113  12.712   1.165 -0.0945 -0.0195  0.1970
 1020W        W44011  27.119   3.570  26.325 -0.0797  0.1700 -0.1584
 1021W        W44012   5.576  24.035  25.989 -0.1558  0.0601  0.0172
 1022W        W44013   8.898  29.342   6.907 -0.2484 -0.1155 -0.1265
 1023W        W44014   6.461  14.337  19.476  0.1995 -0.3211  0.2476
 1024W        W44015   6.081  22.662  24.833 -0.4202 -0.0658 -0.1081
 1025W        W44016   3.707   7.344  25.393 -0.1106 -0.0355  0.4994
 1026W        W44017  27.714  33.596   1.422 -0.4540  0.0859  0.1186
 1027W        W44018  17.487  22.438   8.334  0.0702  0.2755 -0.1703
 1028W        W44019   4.849  28.179  21.462  0.2318 -0.4754 -0.1565
 1029W        W44020  23.483  20.946  23.121  0.3248 -0.1265  0.0495
 1030W        W44021  23.602  34.478  20.861 -0.1380  0.1657  0.4068
 1031W        W44022  24.555  33.929  17.648 -0.0732  0.1839 -0.0157
 1032W        W44023  34.793   6.796  17.166  0.0178  0.2310  0.0918
 1033W        W44024  28.035   3.270  29.184  0.2441  0.0816  0.1057
 1034W        W44025   0.184  10.270  20.518 -0.2130  0.2633 -0.1574
 1035W        W44026  25.229   2.431   4.554  0.0287 -0.0933  0.4015
 1036W        W44027  18.450   7.690   3.185 -0.1155  0.1954  0.1178
 1037W        W44028  20.021   0.953  22.257 -0.0791 -0.0300 -0.1474
 1038W        W44029  17.020  32.266  17.386  0.2118 -0.3646  0.0333
 1039W        W44030  25.259  19.186   4.613 -0.0413 -0.1374  0.2121
 1040W        W44031  29.600   1.954  23.589  0.3465 -0.0694 -0.0541
 1041W        W44032  19.779  24.774  26.827  0.0001  0.0692  0.0322
 1042W        W44033  25.689   3.563  15.114 -0.0785 -0.0538  0.0702
 1043W        W44034  19.354  10.876  24.371  0.3118 -0.0632  0.1100
 1044W        W44035  21.769  32.496   7.944 -0.0211  0.4890 -0.1990
 1045W        W44036  24.826  33.814  13.089 -0.0292  0.5244  0.0164
 1046W        W44037  32.067  16.755  27.782  0.4055 -0.1244  0.0800
 1047W        W44038  27.387  14.920   9.449  0.0201  0.0285 -0.1899
 1048W        W44039   7.819  18.348  17.795  0.0959  0.1917 -0.2002
 1049W        W44040  14.520   9.726  16.586  0.1768  0.0011  0.3704
 1050W        W44041   0.602  14.027  20.126  0.4174  0.3799 -0.3684
 1051W        W44042  17.840  21.660  14.427  0.1220 -0.0074 -0.1111
 1052W        W44043   3.097   4.883  21.640  0.0537 -0.1257  0.1594
 1053W        W44044  29.456   3.552  15.996 -0.2441  0.3257  0.0277
 1054W        W44045  30.053  14.147  19.022  0.2864 -0.0337  0.0046
 1055W        W44046  31.762   5.096   6.203  0.0125  0.0720 -0.5627
 1056W        W44047  19.926   2.515   2.219  0.0465  0.0557 -0.1063
 1057W        W44048  23.890  15.446  20.034 -0.3584  0.2168 -0.1489
 1058W        W44049  19.962  34.347  22.912 -0.1729 -0.1107  0.0092
 1059W        W44050  31.208  20.309  26.358 -0.1087 -0.2839 -0.0214
 1060W        W44051  24.817  19.429  16.374 -0.1032  0.1750  0.1093
 1061W        W44052  26.679   8.744  20.240  0.0140 -0.2174  0.0392
 1062W        W44053  28.770  10.015  22.588 -0.4445  0.0728 -0.2193
 1063W        W44054  12.377   3.531  17.219 -0.0300 -0.0306  0.6154
 1064W        W44055  25.933  10.151  22.699 -0.2433  0.0157  0.0793
 1065W        W44056  16.745  19.303  26.829  0.2016 -0.1330 -0.3887
 1066W        W44057   5.751   3.961  27.842  0.1074  0.1266 -0.0718
 1067W        W44058   1.270  32.840   2.757  0.0230 -0.0774  0.0734
 1068W        W44059   7.132  10.810  27.557  0.1733 -0.0811 -0.2573
 1069W        W44060  23.876  33.535   3.822  0.1103 -0.2486  0.2187
 1070W        W44061  28.045   1.775  25.120  0.2136  0.0349  0.1676
 1071W        W44062  29.622  29.504   2.219  0.0277  0.3608  0.2582
 1072W        W44063  25.517  25.908   9.181  0.0287  0.2908  0.2221
 1073W        W44064  23.200  13.739   0.401 -0.3076  0.0045 -0.0118
 1074W        W44065  29.505  11.090  25.217  0.1007  0.0022  0.2635
 1075W        W44066  20.478   4.128  28.716  0.0374  0.1225  0.1837
 1076W        W44067  14.437  29.298  22.278 -0.0303 -0.3650 -0.1625
 1077W        W44068  32.719  32.000   0.439 -0.0848  0.1777  0.0412
 1078W        W44069  22.933   7.099   0.560  0.0896 -0.0786 -0.2910
 1079W        W44070  23.357  34.093  26.400 -0.0790  0.1347 -0.1242
 1080W        W44071  10.153  28.890  28.717 -0.3840  0.1962 -0.0229
 1081W        W44072   9.997   6.499   9.536 -0.4116  0.2370 -0.0052
 1082W        W44073  11.620   3.359  25.358 -0.0015  0.0150  0.1042
 1083W        W44074  21.148  29.105  26.380  0.0296 -0.1652  0.0674
 1084W        W44075  25.101  11.795  24.113  0.1481  0.1162 -0.0148
 1085W        W44076  32.537  20.805   4.076 -0.0478  0.1640 -0.0870
 1086W        W44077  19.703   6.554   5.073 -0.0957  0.2345  0.3796
 1087W        W44078  27.913   5.322  23.627 -0.0577 -0.1015 -0.1751
 1088W        W44079  19.410  32.139   7.250  0.3395  0.0048  0.0631
 1089W        W44080  31.151  29.530  19.742 -0.1076 -0.1725 -0.1452
 1090W        W44081   6.462   5.439   3.110  0.1301  0.1750 -0.0401
 1091W        W44082   0.453   5.928  15.284 -0.0090 -0.1625  0.2651
 1092W        W44083  27.002  28.832   3.726 -0.1483 -0.0084  0.1649
 1093W        W44084   5.899  16.869  28.552  0.1316 -0.0954 -0.3258
 1094W        W44085   9.716  21.434  22.079 -0.0252 -0.0126 -0.1363
 1095W        W44086  16.710  12.422  13.108  0.1944 -0.0562 -0.1355
 1096W        W44087  17.867   9.078   3.183  0.2851  0.2812 -0.0742
 1097W        W44088   3.924  30.976   5.635  0.0053 -0.0210  0.0940
 1098W        W44089   6.795   1.097  22.412 -0.0979  0.5196  0.0319
 1099W        W44090   2.770  33.112   7.761 -0.0671  0.1779 -0.2171
 1100W        W44091  19.761  32.823  21.959  0.0105 -0.0910 -0.0595
 1101W        W44092  17.648  27.888  19.188  0.0558 -0.1639  0.1938
 1102W        W44093  25.743  29.761  24.291  0.1254 -0.0806  0.1030
 1103W        W44094  27.000  10.008  14.506 -0.1738  0.1052  0.2033
 1104W        W44095  18.144  33.441  22.489 -0.1944 -0.1218  0.2669
 1105W        W44096  33.806  31.140  28.898 -0.0694  0.1595  0.4250
 1106W        W44097  26.901  22.020  23.211 -0.1697 -0.3037  0.2603
 1107W        W44098  26.724  19.525  27.320  0.0220  0.0651  0.3001
 1108W        W44099  15.694   2.697  16.619 -0.0995  0.2508  0.0153
 1109W        W44100  15.713  10.515  24.224  0.1295 -0.0962 -0.1514
 1110W        W44101  27.588  12.822  25.343 -0.3065  0.0179  0.0518
 1111W        W44102  17.917  28.331  25.790 -0.4154 -0.3267 -0.1138
 1112W        W44103  31.026   6.304  14.479  0.2290  0.0335  0.0632
 1113W        W44104  23.244   7.357   0.883 -0.0230 -0.0774  0.2748
 1114W        W44105   4.557  34.350   2.344 -0.2142  0.0560 -0.1424
 1115W        W44106  18.814  14.115  15.339  0.0413 -0.0282 -0.0278
 1116W        W44107  17.351   5.352  28.472 -0.0563 -0.1251 -0.3454
 1117W        W44108  14.045   7.550  26.551 -0.0481  0.1082 -0.0089
 1118W        W44109  23.623  32.452  22.232 -0.3236 -0.1669 -0.0455
 1119W        W44110  17.847  34.595  22.732  0.0994 -0.1324  0.2438
 1120W        W44111   7.648  28.072   2.570  0.2770  0.3407  0.0884
 1121W        W44112  23.163   3.540  17.307  0.0228  0.0046 -0.2441
 1122W        W44113  10.674   7.526  19.988  0.3980 -0.0100  0.1971
 1123W        W44114  25.103   4.007   7.718  0.0266  0.0441 -0.1236
 1124W        W44115  21.557  33.259  29.114 -0.0850  0.3794  0.1538
 1125W        W44116  24.849   4.877  22.843  0.1209  0.0723 -0.0343
 1126W        W44117  15.980  15.593  12.828  0.1286 -0.1609  0.3665
 1127W        W44118  24.385  11.447   4.861 -0.0810  0.0332 -0.0455
 1128W        W44119   0.659  33.033  24.311 -0.2257  0.2045  0.0773
 1129W        W44120  24.981  27.522   1.568 -0.0268  0.0026  0.0216
 1130W        W44121  32.688   3.388  19.437  0.1781 -0.2625 -0.2632
 1131W        W44122  17.765  11.432  19.427 -0.1902  0.3969 -0.2472
 1132W        W44123  22.397   3.157   1.687 -0.0961  0.0716 -0.1383
 1133W        W44124  14.946   6.107   8.304  0.0432 -0.1435 -0.0318
 1134W        W44125  17.354  14.401  21.354  0.0806  0.1662 -0.0038
 1135W        W44126  28.358  33.466  23.964  0.1394 -0.2281  0.0098
 1136W        W44127  27.367  32.390  22.549 -0.1414  0.0863 -0.0386
 1137W        W44128  31.759  14.908  20.461  0.3016  0.4314 -0.1543
 1138W        W44129  32.308  29.851  19.704 -0.2251 -0.1190  0.0053
 1139W        W44130  22.841  10.201   7.243  0.2715  0.1369  0.2065
 1140W        W44131  34.160   0.282  23.905  0.1651 -0.0524  0.1872
 1141W        W44132  27.651  16.104   7.871  0.0316  0.0452  0.0589
 1142W        W44133  22.476   0.570  19.954 -0.0845  0.1120 -0.1101
 1143W        W44134  27.939  13.059  22.013 -0.1575 -0.0170 -0.1774
 1144W        W44135  23.287  10.961  28.206  0.1979  0.0635  0.0593
 1145W        W44136  26.170  12.672  14.583  0.1167 -0.1067  0.1360
 1146W        W44137  28.281   1.663  20.946  0.0400 -0.0259  0.0817
 1147W        W44138  25.371   1.168  28.789 -0.0110  0.0367 -0.0839
 1148W        W44139  10.640  11.287   1.182  0.0528 -0.0399  0.1564
 1149W        W44140   6.387  34.420  15.551 -0.3005 -0.2369 -0.2633
 1150W        W44141  24.263  14.991   8.062  0.2161  0.2049 -0.1553
 1151W        W44142  21.606  24.709  27.721 -0.1925 -0.0271 -0.1342
 1152W        W44143  16.053  22.778  27.534  0.0870 -0.0647  0.0527
 1153W        W44144  13.067  34.004   3.051  0.0988 -0.3140 -0.0804
 1154W        W44145  28.964  12.762   1.616  0.3136 -0.0545  0.1208
 1155W        W44146  21.783  23.813  18.234 -0.0119 -0.0645 -0.0373
 1156W        W44147  32.105  18.553  21.848  0.0038  0.3342  0.2013
 1157W        W44148  18.890  27.395  13.657 -0.1346 -0.0074 -0.2487
 1158W        W44149  27.994  26.260  18.330 -0.0344  0.1754 -0.1544
 1159W        W44150  13.338   0.337  15.659 -0.0782 -0.2065  0.1878
 1160W        W44151  19.952   9.611  13.988  0.1632 -0.1096  0.4238
 1161W        W44152  25.922   6.653  28.570  0.2115  0.0409 -0.2917
 1162W        W44153  28.967  16.587  13.900  0.0313 -0.0166 -0.1816
 1163W        W44154  26.150   5.974  24.625  0.0006 -0.3212  0.1694
 1164W        W44155  26.520  12.060  13.817  0.2237 -0.2076 -0.0670
 1165W        W44156  21.325   7.906  20.015 -0.3296  0.2896 -0.0023
 1166W        W44157   4.218  31.797  17.498 -0.1412  0.0517 -0.2240
 1167W        W44158  10.525   5.950  17.631 -0.2405  0.1211 -0.3014
 1168W        W44159  16.808  29.829  27.087  0.0858 -0.0851 -0.1653
 1169W        W44160  24.307  33.765  25.921  0.1165 -0.0302 -0.1046
 1170W        W44161  29.928  32.968  25.617 -0.2003 -0.2249 -0.0537
 1171W        W44162  22.621  28.676  26.785 -0.5851  0.0540 -0.0837
 1172W        W44163  20.824   5.141  20.218 -0.0861 -0.0420 -0.2530
 1173W        W44164  24.562   0.849  24.071 -0.2455  0.0780 -0.0801
 1174W        W44165   4.176   0.265   2.647 -0.0670  0.0718  0.0718
 1175W        W44166  23.562   2.314  13.031  0.2137  0.3458  0.2040
 1176W        W44167  20.363   8.320  14.308 -0.2059 -0.0179  0.3461
 1177W        W44168  24.017  34.277  23.394  0.0742  0.0249  0.2697
 1178W        W44169  12.191  28.905  22.513 -0.3011 -0.1766  0.0710
 1179W        W44170  14.873   2.781   5.357 -0.1373  0.2098  0.0264
 1180W        W44171   3.977  28.414  14.847 -0.2727 -0.2528  0.1034
 1181W        W44172  32.479  31.411   9.164 -0.3627  0.1366 -0.1723
 1182W        W44173  29.085  25.959   3.409 -0.0116  0.4629  0.2934
 1183W        W44174  17.296  33.173  13.673  0.0818 -0.0643  0.1265
 1184W        W44175   0.512   6.946   6.210 -0.2062  0.2154 -0.1097
 1185W        W44176  22.148  14.733   5.383 -0.1203  0.0612 -0.1014
 1186W        W44177  32.602   9.412  19.720  0.0085  0.3191 -0.3610
 1187W        W44178  23.825  29.065  20.704 -0.2119  0.0557 -0.1929
 1188W        W44179  23.507   3.375  21.497  0.3184 -0.3274 -0.2312
 1189W        W44180  29.932   3.065  20.362  0.0142 -0.6260 -0.0080
 1190W        W44181  21.592   9.755  17.450  0.2104  0.2816  0.3269
 1191W        W44182  28.725  21.611   8.026 -0.1045  0.0517 -0.1274
 1192W        W44183  23.398   4.885  22.656 -0.0526 -0.0390  0.0800
 1193W        W44184  34.793   3.400  19.996  0.0371 -0.1891 -0.1606
 1194W        W44185  18.619  24.312  24.883  0.0470  0.0849  0.2498
 1195W        W44186  30.078   5.497   2.149 -0.1912 -0.1492 -0.0486
 1196W        W44187  24.415   1.978  18.692  0.1439  0.0050 -0.1541
 1197W        W44188  19.448  12.281  21.195 -0.0512 -0.3432  0.0969
 1198W        W44189  31.089   7.599   0.496 -0.2267  0.0324 -0.1618
 1199W        W44190  27.425  13.528  19.478 -0.0786  0.1846 -0.0601
 1200W        W44191  17.665  31.261   7.279  0.1354  0.2869  0.2034
 1201W        W44192   9.334   8.026  23.538 -0.2212 -0.2036  0.1998
 1202W        W44193  13.633  25.697  23.598 -0.0481 -0.3528  0.2193
 1203W        W44194  28.510   7.899  24.947 -0.2106  0.0807  0.0701
 1204W        W44195  17.568  34.254  28.854  0.0217 -0.1498 -0.1062
 1205W        W44196  15.450  29.527  17.391 -0.1166  0.1485  0.0454
 1206W        W44197  16.285  34.742  14.620 -0.0165 -0.2219 -0.2935
 1207W        W44198  19.413   6.676  13.753 -0.1657  0.0595 -0.3260
 1208W        W44199  34.632  10.113  16.514  0.1452  0.1189  0.0483
 1209W        W44200  12.145   3.386   3.299  0.0565 -0.0601 -0.0618
 1210W        W44201  33.457  14.215  21.465 -0.0517  0.0687  0.0818
 1211W        W44202  14.734   3.362   5.706  0.0158  0.0466  0.0929
 1212W        W44203  29.772   6.841  26.646  0.3267 -0.0279 -0.2936
 1213W        W44204  25.707   5.213  28.093  0.2793 -0.0413 -0.0559
 1214W        W44205   0.888  14.702  18.587  0.2062 -0.2497  0.5298
 1215W        W44206   1.829   5.904  28.937  0.0063 -0.0062 -0.1599
 1216W        W44207  18.237  20.497  16.482 -0.2313  0.2075  0.0350
 1217W        W44208  15.587  34.638  23.191 -0.0905  0.0420 -0.0742
 1218W        W44209   3.319   7.761  27.972 -0.1551  0.0396 -0.0738
 1219W        W44210  29.268   1.946  24.064  0.0982  0.0492  0.0060
 1220W        W44211  31.059   8.027  17.087 -0.0427 -0.0099  0.0286
 1221W        W44212  18.562  19.704   5.727 -0.4684  0.3075 -0.1099
 1222W        W44213  24.364  22.239  15.106  0.1747 -0.2137  0.2289
 1223W        W44214  29.582  29.010  21.473  0.1287 -0.1344  0.1774
 1224W        W44215  33.812   2.696  15.569 -0.3001 -0.3343 -0.3712
 1225W        W44216  34.546  12.714  29.217 -0.3571  0.3027 -0.0679
 1226W        W44217  14.013   6.298   9.327 -0.1471 -0.2436 -0.0503
 1227W        W44218  11.494   5.990  25.481  0.3194 -0.0017 -0.1752
 1228W        W44219  25.120  17.612  14.216  0.0482  0.0215  0.1334
 1229W        W44220  19.749   9.593  17.926  0.0082  0.1391  0.1281
 1230W        W44221  16.788  13.135   7.045  0.0028  0.2161  0.2519
 1231W        W44222  15.708  33.989  28.513 -0.3632  0.2211 -0.2521
 1232W        W44223  17.047  14.678  16.389 -0.4036  0.0119 -0.1339
 1233W        W44224  22.435  32.919  26.149  0.1067  0.6733 -0.0778
 1234W        W44225  20.906   7.804   1.307 -0.2220  0.3190 -0.0177
 1235W        W44226  18.388  28.536  23.114  0.0063 -0.0178 -0.1923
 1236W        W44227  26.332  34.162  22.264  0.4156  0.1001  0.0883
 1237W        W44228   0.494   8.884   6.437 -0.2045  0.2867  0.1925
 1238W        W44229  11.103  21.013  19.504  0.2009  0.0142  0.1404
 1239W        W44230  12.293  32.530   5.551 -0.0609  0.1356 -0.0895
 1240W        W44231  16.767   7.460  21.029  0.0361  0.0294 -0.3312
 1241W        W44232  27.575  20.797  21.946  0.0110 -0.1429  0.2754
 1242W        W44233  21.804   5.305  21.614  0.2888  0.1544 -0.1615
 1243W        W44234  10.436  18.696  24.878  0.0756  0.0937 -0.1255
 1244W        W44235  29.504   0.614  13.610  0.2389  0.2348 -0.2754
 1245W        W44236  24.704   0.601  21.057  0.1282 -0.1465 -0.1292
 1246W        W44237  31.964   9.055   3.713 -0.1317  0.0406  0.2585
 1247W        W44238  10.731  19.129   9.267 -0.1998 -0.3107 -0.0953
 1248W        W44239  31.517  18.997  23.073 -0.0027 -0.1019 -0.0230
 1249W        W44240  16.016   8.089  21.243 -0.1881 -0.0716 -0.0364
 1250W        W44241  34.556   4.831  17.709 -0.1667 -0.0319 -0.0746
 1251W        W44242  29.711  16.672   1.268  0.2440 -0.1130  0.1311
 1252W        W44243   5.328  21.778  15.925  0.3666 -0.0356 -0.3660
 1253W        W44244  10.537  11.262  21.298  0.3304  0.2479 -0.2614
 1254W        W44245  31.612   3.611  28.820 -0.1249 -0.1563 -0.3736
 1255W        W44246  18.103  27.114  27.515 -0.1246 -0.0437  0.1104
 1256W        W44247  31.955  31.770  17.495  0.1201 -0.0494 -0.0426
 1257W        W44248  12.713   0.957  27.393 -0.4200 -0.0684 -0.0450
 1258W        W44249  27.274   4.905  25.487  0.1810 -0.3139 -0.2311
 1259W        W44250  17.396  29.630  19.582  0.1455  0.1997  0.0154
 1260W        W44251  15.254   5.010  19.294 -0.0333 -0.0370 -0.1603
 1261W        W44252  31.671   5.385  24.861  0.5448 -0.2518 -0.1003
 1262W        W44253  13.482  12.324  17.435 -0.1855 -0.0185 -0.2685
 1263W        W44254  10.974  33.364   9.960 -0.0181  0.0909  0.2186
 1264W        W44255   1.463   8.503   3.467  0.0942 -0.1595 -0.3246
 1265W        W44256   4.228  32.868  15.557  0.2159  0.1741 -0.2723
 1266W        W44257  11.879   6.378  25.728  0.0645  0.1634 -0.1203
 1267W        W44258   8.587  34.737  20.123  0.1196 -0.0185  0.2891
 1268W        W44259  18.398  21.855  17.105 -0.0347  0.2650 -0.0801
 1269W        W44260  21.509  21.124  27.608 -0.0913  0.2552  0.3233
 1270W        W44261  23.175  19.037  19.445 -0.0287 -0.0982 -0.1277
 1271W        W44262  21.425   0.712   9.721  0.0407  0.2179  0.1625
 1272W        W44263  32.492   8.060  16.392  0.2115  0.1339 -0.0896
 1273W        W44264  34.137  14.481  18.698  0.2134  0.0817 -0.0827
 1274W        W44265  15.929  13.570  24.050 -0.1010  0.3181 -0.3579
 1275W        W44266  20.983   6.233   9.317 -0.0418 -0.1788 -0.0049
 1276W        W44267  22.822  24.046  14.827 -0.0680 -0.0384  0.1812
 1277W        W44268  11.994   2.278   3.730  0.0540  0.2069  0.0776
 1278W        W44269  18.672  19.305  15.796 -0.1858  0.0058 -0.0281
 1279W        W44270  27.420   7.085  13.679  0.1515  0.3144 -0.0939
 1280W        W44271  14.141  33.326  10.025  0.2516 -0.6261 -0.0037
 1281W        W44272  19.438   3.939   7.747  0.0871  0.0292  0.0968
 1282W        W44273  26.757   0.542   3.012 -0.0921 -0.1881  0.1669
 1283W        W44274  23.584  31.476  17.678  0.2438  0.1911 -0.1076
 1284W        W44275  22.253   3.253   7.728 -0.3276  0.0711 -0.0630
 1285W        W44276  23.989  12.387   2.440 -0.3054  0.0435  0.1941
 1286W        W44277  31.995  32.329   9.035 -0.0166  0.2572 -0.4917
 1287W        W44278  28.218   9.760  28.760  0.0386  0.1720 -0.2144
 1288W        W44279   0.731   3.776  23.271 -0.0679 -0.4846 -0.2312
 1289W        W44280  20.678   4.062  24.621 -0.0940 -0.1054  0.0582
 1290W        W44281   1.674   5.649  21.038  0.0257 -0.3931 -0.4769
 1291W        W44282  27.186   7.960   1.648  0.2994 -0.1527  0.0760
 1292W        W44283   6.917   9.288  21.826 -0.2029 -0.3053 -0.0528
 1293W        W44284  11.422   7.327   5.723 -0.1446 -0.2376 -0.3669
 1294W        W44285   0.201  32.554  20.820  0.2358 -0.0230  0.1008
 1295W        W44286  25.498  31.125   2.519  0.2233  0.2281 -0.5017
 1296W        W44287  23.102  16.100  20.718  0.0388 -0.0466  0.2833
 1297W        W44288  23.055  12.229   4.677  0.0643 -0.1565  0.0561
 1298W        W44289  20.044   1.482   3.488 -0.1671  0.1880 -0.0883
 1299W        W44290  23.387   3.807  22.980 -0.3945  0.2064  0.3226
 1300W        W44291  26.316   6.618   4.369  0.0497  0.0936 -0.1662
 1301W        W44292  16.739   4.233  10.013  0.3558  0.1365 -0.3127
 1302W        W44293  20.678   7.445   3.422 -0.1729 -0.0178 -0.0544
 1303W        W44294   2.081  29.445  13.260  0.0167  0.1132  0.0652
 1304W        W44295  17.095   2.083   5.711 -0.2552 -0.1569  0.2290
 1305W        W44296  28.749  18.310   6.600 -0.0615 -0.0455 -0.3227
 1306W        W44297  21.046   8.197  26.722 -0.2548  0.1744 -0.2554
 1307W        W44298   5.015  33.869   6.198 -0.2737  0.1797  0.0848
 1308W        W44299  22.747   1.411   7.294  0.0476 -0.2167  0.0381
 1309W        W44300  16.206   2.798  23.342  0.1408 -0.2911 -0.0203
 1310W        W44301  27.330   5.673   5.272  0.2446 -0.1155 -0.1336
 1311W        W44302  20.992  16.531   0.823  0.2246  0.2985 -0.2108
 1312W        W44303  21.403  29.462  14.137 -0.2519  0.1842 -0.0076
 1313W        W44304  33.431  32.237  26.252  0.1849  0.1491  0.0643
 1314W        W44305  28.035  14.948  26.693  0.1749 -0.1673  0.0351
 1315W        W44306  29.023  20.276   5.747  0.0598 -0.1833 -0.1355
 1316W        W44307  27.271  32.493   8.250 -0.1653 -0.2289 -0.2368
 1317W        W44308  30.910   2.052  21.159  0.1040 -0.2304 -0.0087
 1318W        W44309  21.861  13.503   9.385 -0.1913 -0.1309  0.3577
 1319W        W44310  23.561  30.731  28.147  0.1444 -0.3649  0.1772
 1320W        W44311  12.059  28.974  26.781 -0.0917 -0.0892 -0.0612
 1321W        W44312  21.816  34.742   4.545  0.0302  0.0514 -0.0766
 1322W        W44313  15.439  10.220   5.181 -0.2653 -0.1600  0.0910
 1323W        W44314  19.162   5.880   7.414 -0.0835 -0.0431 -0.0069
 1324W        W44315  22.417  33.139  13.510 -0.0430  0.0942 -0.1106
 1325W        W44316  20.579  28.385   3.020 -0.1923  0.1131 -0.1224
 1326W        W44317  20.401  27.272  28.371 -0.1507 -0.1770  0.1283
 1327W        W44318   2.156  26.368   0.451 -0.1201 -0.0108 -0.0989
 1328W        W44319  27.610  18.325  22.886  0.1879 -0.0675  0.0149
 1329W        W44320  32.880   8.906  21.466 -0.0775  0.0974 -0.1194
 1330W        W44321  33.696   7.896  21.235  0.0808 -0.4124  0.0884
 1331W        W44322  26.521   2.643  14.060  0.1224 -0.0828  0.1250
 1332W        W44323  32.327  20.759   9.344  0.0630  0.1652  0.1214
 1333W        W44324  34.666  15.629   2.508  0.0339  0.1321 -0.1316
 1334W        W44325   1.130   9.780  23.009 -0.1783 -0.3214 -0.2695
 1335W        W44326  18.346   7.557  23.089  0.0087 -0.2726 -0.2454
 1336W        W44327  29.643   0.442  22.522  0.0213  0.0521  0.0276
 1337W        W44328  14.348  12.812  23.931 -0.0936  0.2573 -0.0194
 1338W        W44329   5.625   5.230   6.749  0.2206 -0.1151 -0.4919
 1339W        W44330  17.016   5.000  26.267  0.2450 -0.3508  0.1172
 1340W        W44331  22.620  10.437  28.422  0.0242  0.2416 -0.0399
 1341W        W44332  29.902  10.892  25.456 -0.5085 -0.2452 -0.1004
 1342W        W44333  29.463  34.145  16.197 -0.0315 -0.3903 -0.1342
 1343W        W44334   5.476  33.388  27.202 -0.1541 -0.1742  0.6460
 1344W        W44335  17.893  25.952  15.363  0.0173  0.1225 -0.2715
 1345W        W44336   2.855  24.902   5.269  0.1858 -0.0051 -0.0312
 1346W        W44337   0.321   2.982  21.782  0.2844 -0.1416  0.0889
 1347W        W44338   6.560   6.464  25.456 -0.2055 -0.2711  0.0010
 1348W        W44339  32.614  10.825  26.826  0.0609  0.0354  0.0540
 1349W        W44340  20.931   5.013   2.890 -0.3182 -0.1093  0.2917
 1350W        W44341  22.038   7.720   2.722  0.2994 -0.0617 -0.4172
 1351W        W44342  31.421   5.470   6.128  0.0075  0.0742  0.0974
 1352W        W44343  21.654   1.080  29.002  0.2426  0.2265  0.0566
 1353W        W44344  12.339  12.020   3.111  0.1047  0.2527  0.0087
 1354W        W44345  17.319  24.739  18.315  0.1057 -0.0427 -0.1493
 1355W        W44346  20.629  33.702   1.071  0.3041 -0.0802  0.0707
 1356W        W44347  33.512   9.873   5.428  0.0752  0.2403  0.0006
 1357W        W44348  29.189   8.105  20.948 -0.2140 -0.0494  0.2606
 1358W        W44349  25.628  32.034  25.089 -0.1961 -0.0932  0.1194
 1359W        W44350   3.747  32.732  28.577 -0.2424  0.0610  0.1804
 1360W        W44351  14.828  12.581  23.994 -0.1774  0.1603  0.0174
 1361W        W44352  26.630  14.760   3.413 -0.0768 -0.0387 -0.0253
 1362W        W44353  17.095   3.982  28.466 -0.1800  0.0101 -0.2635
 1363W        W44354  19.183  32.058   0.150  0.0413 -0.2059  0.1411
 1364W        W44355  28.089  31.437  27.387  0.0012 -0.0564 -0.2139
 1365W        W44356   1.120   4.050  24.096 -0.1183 -0.1170 -0.0471
 1366W        W44357  14.368  25.229  17.012  0.1045 -0.0439  0.1964
 1367W        W44358   4.026  14.290  17.223 -0.0230 -0.0148  0.1903
 1368W        W44359  24.203   4.045   6.005 -0.0227 -0.0621 -0.1569
 1369W        W44360  28.697  15.058  17.155 -0.1345  0.1905  0.2248
 1370W        W44361  18.701  10.072  25.787 -0.5655  0.0099  0.0314
 1371W        W44362  27.476   7.606  21.034 -0.1606  0.2161 -0.0616
 1372W        W44363  21.325  23.305   3.120 -0.0157  0.0909 -0.1278
 1373W        W44364  18.842  28.026  28.221  0.0314  0.1735 -0.0559
 1374W        W44365  17.164  27.339   3.918  0.1036  0.0453 -0.1716
 1375W        W44366  10.452  33.837  27.611 -0.1543 -0.2019  0.2007
 1376W        W44367  22.322  25.748  27.321 -0.0197 -0.2874  0.2213
 1377W        W44368  30.752  13.449  10.372  0.4760 -0.0859 -0.0471
 1378W        W44369  27.960   2.958  20.717 -0.0182 -0.0926  0.0419
 1379W        W44370  27.456  16.218  26.945  0.3665 -0.2096  0.0791
 1380W        W44371  29.058  10.032  18.004  0.1558  0.2524  0.0533
 1381W        W44372  32.809   5.140  28.139  0.2666 -0.1377 -0.0055
 1382W        W44373  28.105  32.091   4.009 -0.1445 -0.2270  0.3067
 1383W        W44374  21.451   1.266  27.551  0.1065 -0.1484 -0.0178
 1384W        W44375  11.171   5.177   4.704  0.0471 -0.2201  0.0918
 1385W        W44376  10.966   2.787  19.039  0.0075  0.0476  0.0184
 1386W        W44377  26.249  27.325  22.300  0.0850  0.0223 -0.2681
 1387W        W44378  25.242   9.655  18.084 -0.0233 -0.0040  0.0218
 1388W        W44379  33.692  23.776  20.706  0.3789 -0.0820 -0.1061
 1389W        W44380  30.283  31.719  27.724  0.1169  0.0644  0.2533
 1390W        W44381  20.662  32.450   7.611 -0.0763 -0.2910  0.2463
 1391W        W44382   2.832  16.397   0.059  0.0814 -0.2263  0.1100
 1392W        W44383   5.241  30.750  26.050  0.0778 -0.0315 -0.2066
 1393W        W44384  26.910   5.331   8.722  0.4948  0.0671 -0.2022
 1394W        W44385  10.403  15.291  25.930  0.0952  0.0285 -0.0579
 1395W        W44386  25.991  32.404   6.293 -0.0344 -0.0615  0.0687
 1396W        W44387  13.476   4.651  15.409  0.1111 -0.1350 -0.3529
 1397W        W44388   7.659  34.733  21.097 -0.2197 -0.2581  0.2257
 1398W        W44389  26.946  10.474  19.018 -0.1233  0.2435 -0.0253
 1399W        W44390  17.737   6.844  10.426  0.3334 -0.0863 -0.0352
 1400W        W44391   4.335   2.712  29.005  0.1040 -0.2816 -0.2667
 1401W        W44392  27.829  32.650  22.606  0.0641 -0.2205  0.0885
 1402W        W44393   4.592  17.665   2.441  0.1110 -0.0422  0.0001
 1403W        W44394  12.099  13.532   6.887 -0.0977  0.3163  0.2016
 1404W        W44395  27.728   4.387   8.019 -0.1231 -0.2952 -0.0864
 1405W        W44396  31.335   9.310   7.802  0.2268  0.1073 -0.0336
 1406W        W44397  19.932   5.894  13.816  0.2788  0.1436  0.0063
 1407W        W44398  16.102   8.318  26.335  0.0740  0.1666  0.1752
 1408W        W44399   6.073   1.884  24.725 -0.2611 -0.1235  0.4449
 1409W        W44400  22.610   8.169  27.668  0.1839 -0.2895  0.0871
 1410W        W44401  24.742  15.311   1.992  0.3991  0.0544  0.2928
 1411W        W44402  18.629  27.112  24.294 -0.0210 -0.1912 -0.1702
 1412W        W44403  28.884   5.650   8.527 -0.1628 -0.2214  0.2916
 1413W        W44404  11.380   6.791   5.867 -0.0827  0.1778  0.1719
 1414W        W44405  21.895  25.534  21.750 -0.2005 -0.2935 -0.3622
 1415W        W44406   4.835  13.977  28.746 -0.2313  0.1464  0.0043
 1416W        W44407  14.849   3.882  19.250 -0.0216 -0.0244 -0.1984
 1417W        W44408  10.942  30.200   7.428  0.0648 -0.1911 -0.1026
 1418W        W44409  33.855   0.098   2.450 -0.0276 -0.1709 -0.1393
 1419W        W44410  24.561   1.440  19.924  0.1877  0.0366 -0.2666
 1420W        W44411  28.664   1.272   9.633  0.0856 -0.1885  0.0182
 1421W        W44412  13.411   8.244  11.156  0.3411  0.0402  0.2811
 1422W        W44413  24.212  19.879  17.787  0.2731 -0.0997 -0.4158
 1423W        W44414  16.432   6.908  17.202 -0.1626  0.1825 -0.1765
 1424W        W44415  14.842   7.122  27.813  0.2473  0.0617 -0.1245
 1425W        W44416  29.577  25.424  21.376 -0.0673  0.0883  0.0078
 1426W        W44417  31.869   5.440  17.572  0.3320 -0.0097 -0.0019
 1427W        W44418  29.714  29.313  21.094  0.0604 -0.2208 -0.1479
 1428W        W44419   6.404  12.582  21.361  0.0871 -0.1117  0.1080
 1429W        W44420  26.954  14.103  16.280  0.0982 -0.1065 -0.1762
 1430W        W44421  24.661  22.480   2.000  0.0199  0.1118 -0.2644
 1431W        W44422  21.368  12.324  17.684 -0.0124  0.0995  0.0654
 1432W        W44423  23.706   2.977  27.488 -0.0505  0.2872 -0.0535
 1433W        W44424   0.532   4.096  24.119  0.1660  0.0045  0.0200
 1434W        W44425   6.017   4.586   9.201 -0.1225 -0.2089 -0.3665
 1435W        W44426  26.933   4.848   2.037 -0.1697  0.0298 -0.0079
 1436W        W44427  27.974  12.425  25.405 -0.4552  0.0176  0.0065
 1437W        W44428  14.157  34.111   0.578 -0.0628  0.2342  0.0906
 1438W        W44429  18.544   6.741  17.707  0.2147 -0.1641 -0.1331
 1439W        W44430  20.020   8.622   8.376 -0.0213  0.0684 -0.0070
 1440W        W44431  24.557   1.446  27.973  0.3658 -0.1664  0.0556
 1441W        W44432  11.657   8.419   7.978 -0.2493  0.5586  0.3390
 1442W        W44433  15.173   0.016  14.403  0.1346  0.0998 -0.2702
 1443W        W44434  16.173   7.746  17.754  0.2946  0.0442  0.0679
 1444W        W44435  33.175   9.856  14.793  0.2169  0.1139 -0.1370
 1445W        W44436  24.266  12.234  20.416  0.3405  0.0155 -0.1761
 1446W        W44437  19.681  16.008  23.003  0.1513 -0.0067  0.2387
 1447W        W44438  11.121   3.690  20.078  0.2341  0.0201 -0.2990
 1448W        W44439  27.685  28.349   3.906  0.2565 -0.0567 -0.0505
 1449W        W44440  15.182  21.152  21.342  0.1581  0.2417  0.1678
 1450W        W44441   3.900   7.467   8.439 -0.0473  0.0000 -0.1789
 1451W        W44442   6.169   4.155  11.190 -0.0002 -0.0446  0.0638
 1452W        W44443  19.314  29.027  17.756  0.0018 -0.1003 -0.0461
 1453W        W44444   8.668  19.476   0.435 -0.0773  0.1153  0.1335
 1454W        W44445  31.400   5.847   0.127 -0.0726 -0.0055  0.0675
 1455W        W44446  16.402  31.131   7.932  0.0945 -0.3774  0.4026
 1456W        W44447  26.227  34.019   6.869 -0.5025 -0.1446  0.1301
 1457W        W44448  34.298  31.595   6.867  0.4935 -0.0610  0.0190
 1458W        W44449   9.410   5.066  20.451 -0.1381 -0.0628  0.2273
 1459W        W44450  15.914  20.980   8.676  0.1321  0.1264  0.0003
 1460W        W44451   5.996  31.446  21.394  0.1375 -0.3265  0.2890
 1461W        W44452  25.586  30.245  17.732 -0.0971  0.0321  0.0466
 1462W        W44453  24.920   4.181  15.891  0.3522  0.0390 -0.1056
 1463W        W44454  18.231   6.333  18.630  0.0294 -0.1593  0.3459
 1464W        W44455  19.152  30.138   6.725  0.0244 -0.0920  0.0784
 1465W        W44456   9.566   2.775   4.283  0.2719  0.0988 -0.1796
 1466W        W44457  33.838  30.436   0.212 -0.1847 -0.1204 -0.1655
 1467W        W44458  28.997  26.003  15.296  0.0565 -0.1181 -0.1295
 1468W        W44459  33.578   7.284  18.779  0.0887 -0.0431  0.0952
 1469W        W44460  24.172  14.802  18.780 -0.1074 -0.0770 -0.4136
 1470W        W44461  29.108  28.173   6.849  0.0456 -0.2606 -0.4299
 1471W        W44462  19.075   2.315  17.282 -0.0984  0.1447  0.0378
 1472W        W44463  28.679  32.100  27.690 -0.0662 -0.0094 -0.2293
 1473W        W44464   8.272  33.230   6.385  0.0423 -0.1753  0.5403
 1474W        W44465  29.632  20.579  15.257  0.0314  0.0683  0.0339
 1475W        W44466  29.665   0.504  19.317 -0.0129 -0.1812  0.3751
 1476W        W44467  11.695  33.616  28.867  0.0135 -0.0768  0.0102
 1477W        W44468  15.229  26.015   8.426  0.1577 -0.0396 -0.1884
 1478W        W44469  31.161   2.774   1.085  0.2407 -0.2366 -0.0544
 1479W        W44470  19.274  28.227   1.501 -0.3337 -0.2725 -0.1246
 1480W        W44471  14.011  33.322   3.683 -0.0389  0.2323  0.1284
 1481W        W44472   2.763   7.564  19.486 -0.0038  0.0002  0.1529
 1482W        W44473   9.733  34.663  17.814 -0.2561 -0.1129 -0.1021
 1483W        W44474  29.451  25.457   6.461 -0.0238 -0.0483  0.2701
 1484W        W44475   6.399   1.529   0.317 -0.1834  0.0441 -0.1189
 1485W        W44476  26.330  15.213   8.948 -0.2238  0.0277  0.1924
 1486W        W44477  26.280  31.323  16.107  0.2571 -0.4095  0.0163
 1487W        W44478   2.748  28.649  18.100 -0.0484  0.1215 -0.0113
 1488W        W44479  21.293  11.650  26.964  0.2791  0.2821 -0.2478
 1489W        W44480  17.080  27.616  21.640  0.1938  0.0887  0.3035
 1490W        W44481  21.263  18.419   1.107 -0.1559  0.0587  0.2535
 1491W        W44482  10.358  13.440   7.011 -0.0906 -0.0238  0.2334
 1492W        W44483  31.345  21.961  17.242  0.0790 -0.0397  0.3264
 1493W        W44484  10.456  34.801  27.588 -0.1404 -0.1268 -0.1882
 1494W        W44485  11.528  14.087  16.899  0.0571 -0.0074  0.0060
 1495W        W44486  32.040   5.255  14.838 -0.2634  0.0672  0.0108
 1496W        W44487  10.060  18.977   7.771 -0.3472  0.0342 -0.0383
 1497W        W44488  26.628   3.547   2.616  0.0852  0.2085 -0.1845
 1498W        W44489  27.003   9.799  20.384  0.0381  0.0620 -0.1465
 1499W        W44490  24.277   1.155  23.146  0.1453 -0.0051  0.1474
 1500W        W44491  26.266   7.521  21.768 -0.0130  0.0354  0.1566
 1501W        W44492  20.813   9.732   4.869  0.0995  0.2251 -0.3036
 1502W        W44493  21.083   0.843  13.185  0.1570 -0.1514 -0.1381
 1503W        W44494  22.973  21.513  16.905  0.0414 -0.0720  0.0930
 1504W        W44495  26.643   3.097   5.853  0.0314  0.4046 -0.0821
 1505W        W44496  18.435  34.715  14.194  0.0321 -0.0216 -0.2284
 1506W        W44497  17.428   4.911  24.176 -0.3952  0.4191 -0.0362
 1507W        W44498  16.421  10.418  10.473  0.0100  0.1132 -0.0457
 1508W        W44499  22.216   7.012  22.649  0.3149  0.3611 -0.0466
 1509W        W44500  10.547   6.048  22.231  0.0015 -0.1788  0.2214
 1510W        W44501  15.782  34.134  28.041  0.4082  0.0158 -0.2823
 1511W        W44502  19.618  28.025  18.500 -0.1483  0.1095 -0.0865
 1512W        W44503  18.970  29.558  14.683  0.0234  0.4256  0.1280
 1513W        W44504  29.793   2.061  13.520 -0.2356  0.1264 -0.3236
 1514W        W44505   3.881   3.050  22.730  0.1615  0.0463 -0.1880
 1515W        W44506  15.067  34.108  26.611 -0.1305 -0.0155  0.3451
 1516W        W44507  19.485  33.221   8.830 -0.1841  0.0590  0.0580
 1517W        W44508  17.907   2.176  17.345 -0.1142 -0.3361 -0.2428
 1518W        W44509  34.122  10.022  26.790 -0.1197 -0.3021 -0.1962
 1519W        W44510  18.302   0.172   5.944  0.0905  0.1811 -0.3631
 1520W        W44511  12.972  12.852  10.123  0.2201  0.1161  0.1541
 1521W        W44512   2.325  22.389  25.138  0.0771  0.1314 -0.0842
 1522W        W44513  29.772  23.493  28.563  0.3443 -0.1287  0.0249
 1523W        W44514   2.271   6.538  28.244 -0.0189 -0.2265 -0.0433
 1524W        W44515  15.104   0.454   9.757 -0.0247 -0.0398 -0.0177
 1525W        W44516  19.111  11.724  21.142  0.0586  0.2919  0.0648
 1526W        W44517  26.190  15.623  22.733  0.1233 -0.0949 -0.1428
 1527W        W44518   2.981   3.470   8.506  0.1573  0.0449 -0.0611
 1528W        W44519   0.567  10.165  25.757  0.1881  0.1186  0.0423
 1529W        W44520  21.460  32.128  24.734  0.0175  0.0079 -0.2545
 1530W        W44521  28.668   1.624   1.095  0.0876  0.0389  0.0995
 1531W        W44522  14.142  17.722   4.173  0.1114  0.0295  0.1491
 1532W        W44523  25.943   3.851  27.295  0.4801 -0.0710  0.3091
 1533W        W44524  23.437  31.505  15.794 -0.0845  0.1199  0.1697
 1534W        W44525  18.666   5.180   5.945 -0.0760  0.1431 -0.0902
 1535W        W44526  30.931   9.728   2.895 -0.0442  0.0772  0.4548
 1536W        W44527   9.079   1.121  20.862 -0.0351  0.5627  0.0439
 1537W        W44528  29.984  13.072  23.744  0.1124 -0.6035 -0.0047
 1538W        W44529  24.756  20.038  16.844 -0.0320  0.1492 -0.0362
 1539W        W44530  28.828   8.078  22.447 -0.1396 -0.0590  0.1071
 1540W        W44531  24.949   8.729   6.320 -0.2149 -0.0644  0.0203
 1541W        W44532  29.642   3.984   9.243  0.0450  0.2092 -0.0475
 1542W        W44533  18.213  11.705   4.831  0.1459  0.0840  0.0459
 1543W        W44534  32.238  30.909   4.965 -0.3036 -0.2526 -0.1193
 1544W        W44535  25.204  23.233  23.088  0.3047 -0.0112  0.4368
 1545W        W44536  25.174   8.701  22.497  0.2698  0.0863  0.1039
 1546W        W44537   7.098  27.714   1.816 -0.1586 -0.1282 -0.4740
 1547W        W44538  23.560   6.088  23.525  0.0707  0.0070 -0.3118
 1548W        W44539  13.841   5.215  19.612 -0.3096  0.2250  0.0394
 1549W        W44540  20.154  32.580   1.295  0.0952  0.0909  0.1030
 1550W        W44541  24.010  11.977  22.701  0.1078  0.0479  0.0901
 1551W        W44542  26.765   9.809   1.314 -0.0419  0.1154  0.0847
 1552W        W44543   7.219  10.331  24.126 -0.2252 -0.0129 -0.1289
 1553W        W44544  31.924   3.457  28.364 -0.0793  0.1093 -0.3881
 1554W        W44545  20.505  20.387  12.917  0.1307  0.3620  0.1800
 1555W        W44546  24.136  28.329  26.772  0.3147 -0.0991  0.1620
 1556W        W44547  28.756  26.736   0.506 -0.3000 -0.0474 -0.6869
 1557W        W44548  22.259   8.914   1.417 -0.1979  0.2088  0.0483
 1558W        W44549   8.348  15.356   7.969  0.0251  0.0283 -0.0793
 1559W        W44550  11.689  24.499  24.045 -0.0538  0.2594 -0.1048
 1560W        W44551  16.259   8.244   8.315 -0.1243  0.2550  0.2728
 1561W        W44552  18.334  17.349   2.991  0.0865  0.1062  0.2743
 1562W        W44553  28.168  27.866  21.708 -0.1105  0.3154 -0.2207
 1563W        W44554  21.336   3.975  19.974 -0.0309 -0.2374 -0.1456
 1564W        W44555  15.673  34.399  26.681 -0.2438  0.1972  0.2044
 1565W        W44556  25.982   5.983  19.620 -0.1954 -0.0700  0.0432
 1566W        W44557  26.061  16.613   9.208 -0.0204  0.1039 -0.2995
 1567W        W44558  25.714  34.767  16.353 -0.0877  0.2342 -0.5575
 1568W        W44559  24.864  28.376  21.564  0.1209 -0.4024  0.0645
 1569W        W44560  28.542  20.080   2.399 -0.0935  0.2943  0.2543
 1570W        W44561   1.426  28.025  27.077  0.1924 -0.1820 -0.1606
 1571W        W44562  12.070  30.905  25.493  0.0188 -0.1102 -0.1840
 1572W        W44563   1.990   4.175  21.624 -0.1103  0.2012  0.1798
 1573W        W44564  16.550   0.660   4.640  0.2559  0.2066  0.0321
 1574W        W44565   6.267  32.754   5.052 -0.0591  0.1195 -0.0953
 1575W        W44566  27.436   8.338  15.492 -0.0633 -0.1129 -0.5340
 1576W        W44567  13.244  28.915   1.907 -0.0722 -0.2001 -0.2709
 1577W        W44568   8.681   7.110  18.338 -0.0044 -0.2317 -0.2691
 1578W        W44569  24.808  22.256   5.699  0.0354 -0.1454  0.1687
 1579W        W44570  31.767   0.745  17.848 -0.0137  0.0693  0.2214
 1580W        W44571  24.486   3.317   0.178 -0.0307 -0.0730  0.0485
 1581W        W44572  28.741   2.029  28.355 -0.0650  0.0662 -0.0236
 1582W        W44573  26.124  14.512   9.511 -0.3350 -0.1311 -0.1678
 1583W        W44574   1.690   5.547  18.131  0.0289 -0.0139  0.3194
 1584W        W44575  33.483   7.124  15.464 -0.0668  0.3188  0.0290
 1585W        W44576  16.142  32.456   3.140  0.3279 -0.0084  0.0730
 1586W        W44577  22.805   9.570  21.517 -0.0490 -0.3214  0.1610
 1587W        W44578  27.513  34.466   0.538 -0.0914 -0.2162  0.0200
 1588W        W44579  15.892   0.724  26.430  0.1123  0.1499  0.0174
 1589W        W44580   4.954   6.239  26.931 -0.1189 -0.1237 -0.0628
 1590W        W44581  26.788  15.029  27.988  0.2607 -0.3506 -0.3863
 1591W        W44582   1.055  16.050  24.515  0.1301  0.0345 -0.4770
 1592W        W44583  18.476  10.515  14.742  0.2182  0.0123 -0.0523
 1593W        W44584  18.710  33.548   8.337  0.0420 -0.2727 -0.1850
 1594W        W44585  19.161   9.515   6.492 -0.0037 -0.0556 -0.2297
 1595W        W44586  19.302   8.682   4.242 -0.0901 -0.1401  0.0888
 1596W        W44587  24.427  13.313   2.670  0.1978  0.0422 -0.0400
 1597W        W44588  13.694  16.718  24.113  0.0876  0.0111 -0.3504
 1598W        W44589   0.169  20.662   2.037  0.1193 -0.1838  0.1122
 1599W        W44590  24.797  28.743  13.076 -0.0056 -0.2673 -0.1520
 1600W        W44591  21.467  21.487  12.695  0.2320  0.0698 -0.1838
 1601W        W44592  26.682   3.313   7.521 -0.0233  0.5124  0.1230
 1602W        W44593  22.366  30.331  13.307 -0.0448 -0.0536  0.0925
 1603W        W44594  20.162   7.112   1.954 -0.0355 -0.3176  0.3019
 1604W        W44595   9.683  33.154   2.832  0.1052 -0.0297  0.0882
 1605W        W44596  26.300  31.982   1.215  0.2854  0.0554  0.4848
 1606W        W44597  20.739  28.799   1.059  0.0043  0.3472 -0.3715
 1607W        W44598  15.301  31.927   6.572  0.2970  0.0947 -0.0276
 1608W        W44599  32.591  11.912  16.473  0.1583  0.0352 -0.2367
 1609W        W44600  28.726  28.215  26.474 -0.1542 -0.2946  0.1422
 1610W        W44601  23.712  11.761  13.956  0.2829 -0.3175  0.1967
 1611W        W44602  25.725   0.666   4.390  0.0033  0.3053  0.2011
 1612W        W44603  34.583  30.638  22.260 -0.1415  0.0672  0.2541
 1613W        W44604  14.645   5.826   6.667  0.0275  0.3759 -0.2078
 1614W        W44605  12.053   1.058  10.661  0.0118  0.0004 -0.2344
 1615W        W44606   4.874  10.917   1.309 -0.0538  0.0820 -0.1297
 1616W        W44607  32.946  15.725  29.052  0.0088 -0.1900 -0.3019
 1617W        W44608  26.350   8.935  19.716  0.1007 -0.2897  0.0401
 1618W        W44609  10.439   3.010  27.287 -0.1961 -0.0236 -0.0664
 1619W        W44610  25.333  24.050  26.449 -0.2254  0.1715  0.0369
 1620W        W44611  10.693   4.432  21.323  0.0916  0.2355 -0.1548
 1621W        W44612  19.946   6.283  23.013 -0.1820 -0.0121 -0.1393
 1622W        W44613  17.625  10.546   7.292 -0.0232 -0.0636  0.0757
 1623W        W44614  28.436   8.706  29.076 -0.2513 -0.5237 -0.1659
 1624W        W44615  26.987   7.853   6.936  0.1183  0.2179 -0.2714
 1625W        W44616   8.733   7.513   3.347 -0.3413 -0.0993  0.1445
 1626W        W44617  15.104  31.080  22.643 -0.2018  0.0004  0.2100
 1627W        W44618  28.656   6.680   4.111  0.1169  0.2421  0.0053
 1628W        W44619  24.947   5.244  16.482  0.1948  0.0643  0.1577
 1629W        W44620  10.604   9.262   6.458 -0.0395  0.3996  0.1717
 1630W        W44621  22.098   6.911  29.157  0.0895  0.0243 -0.2096
 1631W        W44622  11.735  14.051   7.595 -0.0932  0.1765 -0.1491
 1632W        W44623   6.472   7.831  15.208  0.0481 -0.1743  0.1740
 1633W        W44624  18.664  19.992  12.936  0.1378  0.0473  0.0996
 1634W        W44625  23.022  29.442   1.303 -0.0852 -0.0374 -0.1179
 1635W        W44626  17.206  31.047   3.635 -0.4828  0.1516  0.0662
 1636W        W44627   8.974  15.221  19.334 -0.0038  0.0101  0.2894
 1637W        W44628  21.839  17.813  13.866 -0.0879  0.0693 -0.0398
 1638W        W44629  24.755   7.359  25.085 -0.0568 -0.0873 -0.3631
 1639W        W44630  28.514  22.289  28.202  0.1707 -0.0921 -0.1830
 1640W        W44631  18.925   2.941   7.870 -0.2430 -0.2859 -0.0864
 1641W        W44632   2.307  12.036  16.831 -0.1249  0.1756  0.1405
 1642W        W44633   1.130  17.958  22.311  0.1700 -0.1110 -0.0372
 1643W        W44634  24.906   3.061   0.270  0.1781 -0.3625 -0.0243
 1644W        W44635  30.179  26.730  18.152  0.1839 -0.1637 -0.2287
 1645W        W44636   8.973  11.657  17.982  0.0115 -0.1683  0.0551
 1646W        W44637   2.268  13.009  19.625  0.1832  0.5763  0.0130
 1647W        W44638   9.831  16.325   1.292 -0.1722 -0.4398  0.0957
 1648W        W44639  30.528  17.378   5.177 -0.5258  0.2139  0.1133
 1649W        W44640  26.974   6.882   1.714  0.0928  0.0119 -0.0818
 1650W        W44641  19.842   4.870  22.130 -0.0939  0.1045 -0.3414
 1651W        W44642  27.773   3.198   8.807 -0.3699 -0.1044 -0.0099
 1652W        W44643  15.313   4.637   1.904  0.1893  0.2345  0.0269
 1653W        W44644  33.791   1.155   2.042 -0.2100 -0.0729 -0.1743
 1654W        W44645  17.933  30.491  23.971  0.0842  0.0032  0.1225
 1655W        W44646  26.805   3.397   4.181 -0.0567  0.0779 -0.2344
 1656W        W44647  11.021   4.034   0.447  0.0849 -0.0619 -0.4618
 1657W        W44648  28.020   5.335  24.276  0.0509 -0.1896  0.0826
 1658W        W44649   1.122   7.733  25.550  0.2493  0.1656  0.0333
 1659W        W44650  15.418  11.698  18.566  0.0750  0.0380  0.3238
 1660W        W44651  32.710  16.037   1.481 -0.1258  0.2907 -0.1729
 1661W        W44652  19.809   9.216  26.724 -0.1590 -0.0031  0.0715
 1662W        W44653  23.368   4.120  23.837 -0.1078 -0.2066  0.1023
 1663W        W44654  19.882   2.862  22.801  0.0551 -0.1710  0.1353
 1664W        W44655  12.223  23.642   3.803 -0.0219 -0.0199 -0.0815
 1665W        W44656  25.793  15.478   1.105 -0.2881  0.0217 -0.0173
 1666W        W44657  29.676   9.952   2.014 -0.3318  0.0764 -0.0880
 1667W        W44658  27.216  17.363   7.529  0.3131 -0.1156 -0.2400
 1668W        W44659  22.391  15.594  18.189  0.0390  0.0918  0.0154
 1669W        W44660  18.244   7.799  19.640  0.0281  0.1723 -0.0826
 1670W        W44661  29.255   3.697  19.779  0.0639 -0.1592 -0.1899
 1671W        W44662  14.663  15.214  20.420 -0.0268 -0.3719  0.1244
 1672W        W44663  28.121  22.604   6.339  0.0296 -0.3194 -0.1774
 1673W        W44664   0.021  23.809  18.153  0.0964  0.3179 -0.1370
 1674W        W44665  29.102  34.513   7.323  0.0371  0.5905 -0.0596
 1675W        W44666  24.910   8.157  27.761  0.3111  0.1586 -0.1653
 1676W        W44667  31.226  33.187   7.372 -0.1123  0.1112  0.1510
 1677W        W44668  27.988  18.968  27.563  0.1459 -0.0906 -0.1177
 1678W        W44669   8.000  14.444   5.726 -0.0728 -0.4219 -0.0650
 1679W        W44670  22.551  15.251  21.582  0.1475  0.1080 -0.0390
 1680W        W44671  11.018  34.564   3.714  0.0432 -0.2546 -0.2643
 1681W        W44672  20.073  13.103   6.251  0.0694 -0.1505  0.0598
 1682W        W44673   1.589   6.803   9.454 -0.3165  0.0506 -0.3201
 1683W        W44674  13.215   7.761   4.566  0.2249 -0.2414  0.3414
 1684W        W44675   5.725  26.412  25.088 -0.1887  0.1013 -0.3229
 1685W        W44676  11.602   6.645  26.442  0.1827  0.0748 -0.1515
 1686W        W44677   6.585  14.159  24.837 -0.0153  0.0915  0.2256
 1687W        W44678   3.182  12.048  26.859  0.2053 -0.0712 -0.3186
 1688W        W44679   9.949   4.306   2.414  0.0643  0.0908  0.2156
 1689W        W44680  25.051  11.414   9.827  0.0522  0.1430  0.1247
 1690W        W44681  18.641  16.892   5.448  0.0286 -0.0910  0.0568
 1691W        W44682  12.869  34.663   9.501  0.2956 -0.0185 -0.2840
 1692W        W44683   5.310   3.665  19.620 -0.0607 -0.2367 -0.1089
 1693W        W44684  27.265  30.088  25.903  0.1487  0.0826  0.4080
 1694W        W44685   7.539   6.374   5.216  0.2331 -0.1163 -0.3963
 1695W        W44686  24.873  12.654   7.819  0.0768  0.0388  0.3176
 1696W        W44687  21.698   6.114   7.906  0.0981 -0.1880 -0.0636
 1697W        W44688  26.788  10.405   2.345 -0.1981 -0.0839  0.0225
 1698W        W44689   9.300  11.006   4.245  0.0101  0.2612  0.0366
 1699W        W44690  20.016  33.101   2.674  0.1278  0.0325 -0.1565
 1700W        W44691  25.717  30.603   2.227 -0.0744  0.2976  0.2101
 1701W        W44692  29.434  17.765  29.008  0.0212 -0.1225  0.0410
 1702W        W44693  21.458   1.563  14.478 -0.0581  0.2019  0.0654
 1703W        W44694  28.744  14.418  24.260 -0.0430 -0.2195 -0.0124
 1704W        W44695  12.730  19.370  21.206 -0.2290 -0.1408 -0.2848
 1705W        W44696  29.984  24.779   7.686 -0.0726  0.1916  0.1545
 1706W        W44697  17.283  11.310   7.004 -0.1045  0.4817 -0.0515
 1707W        W44698  22.858  15.680  13.911 -0.0618 -0.1818 -0.1121
 1708W        W44699   3.828   0.352  17.853  0.0375  0.1446 -0.1824
 1709W        W44700   1.277  33.255   7.918 -0.1114  0.0281  0.2425
 1710W        W44701  14.857  24.504   8.443 -0.0639 -0.1094  0.1735
 1711W        W44702  29.355   5.505  28.565  0.3653 -0.0498 -0.1512
 1712W        W44703  10.096  26.962   8.118  0.1308  0.0486  0.2073
 1713W        W44704  34.103  23.840   9.063  0.4747 -0.0696 -0.1780
 1714W        W44705  33.177   9.444   9.694 -0.0593  0.0910  0.3052
 1715W        W44706   8.390  34.231  27.706 -0.0781 -0.0732 -0.0428
 1716W        W44707  11.489  25.899   1.466  0.1095  0.1576 -0.0074
 1717W        W44708  23.079  14.901  24.035 -0.0294 -0.0629 -0.0522
 1718W        W44709  26.874   8.338  19.063  0.1143 -0.1554 -0.4433
 1719W        W44710  28.913   9.851   9.287  0.1054  0.0151 -0.2616
 1720W        W44711  32.161  27.544  23.573 -0.1109  0.2943 -0.0696
 1721W        W44712  17.364  15.046   5.231 -0.2644  0.1932  0.1835
 1722W        W44713  20.764  22.827  22.902  0.0686 -0.4167  0.2115
 1723W        W44714  13.169  18.147   5.203 -0.0865  0.1473  0.3029
 1724W        W44715  17.103  21.018   6.733  0.0549  0.2636 -0.1487
 1725W        W44716  31.440  33.882   2.544  0.0140  0.0924  0.2351
 1726W        W44717  26.337  32.295  15.065  0.1296 -0.0210  0.2163
 1727W        W44718  13.000   7.607   1.053  0.1132 -0.2179 -0.2941
 1728W        W44719  30.876  21.724  27.284  0.3349 -0.1652 -0.0260
 1729W        W44720  31.014   6.011   2.001 -0.1521  0.0834 -0.2473
 1730W        W44721  34.719   1.263  26.448  0.2352 -0.0669 -0.2892
 1731W        W44722  21.013   8.061   5.313  0.0283  0.1629 -0.0805
 1732W        W44723  20.680  16.811  22.583 -0.0295 -0.0160  0.3302
 1733W        W44724  10.756   9.247  18.526  0.1391 -0.0566  0.3089
 1734W        W44725  21.244   2.255   7.948  0.0791  0.0630 -0.2856
 1735W        W44726  33.705  11.022  21.834 -0.0766  0.1722  0.2767
 1736W        W44727  26.381  11.474  24.200  0.0596  0.0691  0.0578
 1737W        W44728  26.627   6.510   6.890  0.1881  0.2451  0.0088
 1738W        W44729  25.304  14.342  24.572 -0.0853 -0.1082 -0.1475
 1739W        W44730  28.435  13.478  25.403 -0.0623 -0.0353 -0.0260
 1740W        W44731  28.755  18.329   6.115 -0.1602 -0.1186  0.1004
 1741W        W44732  22.226   3.589   1.821 -0.1908  0.0362 -0.1575
 1742W        W44733  23.263  33.945   8.776 -0.2213 -0.0387 -0.1870
 1743W        W44734  20.555  34.600  28.001 -0.0089  0.0013 -0.0744
 1744W        W44735  11.450  16.584   4.681  0.1427 -0.1251 -0.1004
 1745W        W44736  25.482   2.077  13.878  0.3902 -0.4138  0.2119
 1746W        W44737  24.993  16.835   4.031  0.0274 -0.2714  0.3158
 1747W        W44738  21.745   6.220  18.189 -0.2945  0.2681  0.0519
 1748W        W44739  15.306  23.617  15.416 -0.1190 -0.0648 -0.2088
 1749W        W44740   1.882   3.898  26.133  0.1529  0.0497 -0.2133
 1750W        W44741  10.555   1.480  27.189 -0.1263 -0.0169  0.0072
 1751W        W44742  27.215   7.089  23.787 -0.1046  0.0973 -0.1561
 1752W        W44743  14.359  17.935  13.943 -0.1050 -0.0409 -0.1472
 1753W        W44744  10.714  23.309   1.187  0.0822 -0.0522  0.5484
 1754W        W44745  19.336  31.412  22.402  0.2857 -0.2077  0.1595
 1755W        W44746   0.219  28.478  22.901  0.1106 -0.2194 -0.0969
 1756W        W44747  30.288  15.607  23.591  0.3263  0.2986  0.5232
 1757W        W44748  19.878   7.310  23.135  0.0310  0.1627 -0.1606
 1758W        W44749  23.646  10.656  24.590 -0.0035 -0.2848 -0.1453
 1759W        W44750  26.183   9.546  13.764 -0.4201  0.0125 -0.2134
 1760W        W44751  15.755  21.606  13.874 -0.2648  0.3103  0.0245
 1761W        W44752   4.345  15.297  24.198 -0.0616 -0.0254  0.2886
 1762W        W44753  23.164  32.059  20.735  0.2063  0.0529 -0.2035
 1763W        W44754  17.288  23.854  16.384  0.1640  0.1434  0.4362
 1764W        W44755  15.293   0.200  23.314  0.2707  0.3503  0.1203
 1765W        W44756  33.044  34.476  24.486 -0.0966 -0.3095 -0.0649
 1766W        W44757   3.370  20.024  16.336 -0.1112  0.1829  0.0830
 1767W        W44758  13.968  10.172  19.813 -0.0016  0.1320  0.2090
 1768W        W44759   0.082   6.221  19.364 -0.0089  0.0008 -0.0818
 1769W        W44760  12.658   8.441  23.780 -0.0493 -0.1063 -0.0753
 1770W        W44761  13.908   1.287  19.057 -0.1505  0.0948 -0.0933
 1771W        W44762  14.990   4.252  24.551  0.2416  0.1297 -0.0173
 1772W        W44763  27.525   3.182  26.426 -0.0427  0.0085 -0.0671
 1773W        W44764  29.369  21.901  17.843  0.0567 -0.2156  0.1130
 1774W        W44765  26.008   3.615  20.622  0.1053 -0.1020 -0.0336
 1775W        W44766  21.844  11.039  25.720 -0.2878  0.1685 -0.2644
 1776W        W44767  31.340  14.812  16.487 -0.0334  0.1608  0.1165
 1777W        W44768  18.818   9.239   3.434  0.0346 -0.2216  0.2629
 1778W        W44769  20.650  10.666   2.512 -0.2877  0.0566  0.1098
 1779W        W44770  21.325   9.530  14.620  0.0011 -0.2394 -0.0896
 1780W        W44771  14.918   8.252  22.389  0.1985  0.0781 -0.2190
 1781W        W44772  26.302   2.793  12.601 -0.0897 -0.0011 -0.2246
 1782W        W44773  26.713  17.766  16.126  0.2551 -0.1455 -0.2220
 1783W        W44774  31.953  11.468   1.890  0.1946 -0.0206 -0.1066
 1784W        W44775  11.947  19.798  16.479  0.2494  0.2980 -0.0195
 1785W        W44776  14.459   9.590   7.512 -0.0114  0.1604 -0.0110
 1786W        W44777   2.675  29.821  15.849 -0.0124 -0.2312 -0.1678
 1787W        W44778  29.152   0.216  28.954  0.1421 -0.3531 -0.0665
 1788W        W44779  28.421   8.806  24.641 -0.3729  0.2684 -0.0859
 1789W        W44780  12.281   9.401  21.419  0.2641  0.0599  0.0496
 1790W        W44781  16.765  30.000  21.739  0.0301  0.0059 -0.2765
 1791W        W44782  30.335  29.293  20.649 -0.2240 -0.2157 -0.2526
 1792W        W44783  31.798  32.719  23.010 -0.0459 -0.1951  0.0626
 1793W        W44784  18.598  30.787  25.309 -0.0293  0.1668  0.1270
 1794W        W44785  33.124  19.874  18.258  0.3470 -0.0123 -0.2698
 1795W        W44786   3.383  11.510  17.226 -0.1342 -0.2007 -0.0388
 1796W        W44787  21.455  13.275  18.685 -0.0616  0.2489 -0.0619
 1797W        W44788  27.822  17.595  26.924 -0.2011  0.0881  0.4727
 1798W        W44789  12.008  18.329  15.051 -0.0506  0.1436  0.0967
 1799W        W44790  23.693  32.677  23.517  0.2334  0.4257  0.0565
 1800W        W44791  14.092  15.095   4.661  0.1616  0.3176  0.3653
 1801W        W44792  30.680   5.358  23.738  0.2424  0.3423  0.2873
 1802W        W44793  21.675  16.740   3.953 -0.0968  0.0412  0.1296
 1803W        W44794  25.221  10.675  14.054 -0.0438  0.1322 -0.0994
 1804W        W44795  22.629  12.817  15.701  0.1260  0.2068  0.2547
 1805W        W44796  23.285  30.029   1.761  0.3072 -0.0456  0.0494
 1806W        W44797  19.330   1.955   4.925  0.2747  0.1228 -0.0908
 1807W        W44798  13.646  19.498  16.592 -0.1977  0.0910  0.3048
 1808W        W44799   7.749  11.284  21.678  0.0620  0.2272  0.0903
 1809W        W44800  25.326  30.880  20.666 -0.1224  0.0416  0.0030
 1810W        W44801   6.894  14.601  22.655  0.3302  0.2084 -0.2432
 1811W        W44802  20.185   9.189  18.626  0.0704  0.0093  0.0138
 1812W        W44803  22.213   5.434  17.163  0.0445 -0.0732 -0.2053
 1813W        W44804  26.692  18.322  20.436  0.0841 -0.2349 -0.1510
 1814W        W44805  17.267   5.271   2.463 -0.2341  0.2303 -0.0950
 1815W        W44806  24.294  15.986  18.713 -0.0546 -0.0188  0.0801
 1816W        W44807  20.691   2.257  20.032 -0.2026 -0.2350 -0.1252
 1817W        W44808   3.193  27.936  14.625  0.0196  0.0454 -0.0622
 1818W        W44809  30.431  33.813  16.168 -0.0548  0.0268  0.0049
 1819W        W44810  10.324  20.335  19.123 -0.0729 -0.4188  0.1059
 1820W        W44811  21.235  18.712  23.767 -0.3837 -0.1092 -0.0465
 1821W        W44812  22.671  10.074  29.129 -0.0039  0.0720 -0.1170
 1822W        W44813  26.976   7.703  15.483  0.0694 -0.0163 -0.1779
 1823W        W44814  10.898   6.909  24.694 -0.1405 -0.0879 -0.1132
 1824W        W44815  26.060  13.362  15.592  0.1632  0.2410  0.0293
 1825W        W44816  25.405  33.787  26.470 -0.1330  0.1017 -0.0547
 1826W        W44817  14.034  24.894  14.211 -0.1225 -0.2922  0.1770
 1827W        W44818  10.747  12.459  16.756  0.0008 -0.0068  0.0911
 1828W        W44819  16.790  10.028  17.538  0.1569  0.1474 -0.2343
 1829W        W44820   4.974  30.930  28.534 -0.0474  0.1361  0.1692
 1830W        W44821   4.960   4.457  24.211  0.0969 -0.3899 -0.0561
 1831W        W44822   3.089  10.920  21.916  0.0044 -0.0729 -0.3761
 1832W        W44823   8.825  19.826  16.118  0.3136 -0.1307 -0.0637
 1833W        W44824  30.500  34.642  14.846  0.2289 -0.2532  0.0322
 1834W        W44825  21.420   6.684  25.911 -0.0305 -0.0547  0.2091
 1835W        W44826  23.565   9.631  24.621  0.0374 -0.0138 -0.1559
 1836W        W44827  30.816   0.441  15.063 -0.3481 -0.1511  0.0395
 1837W        W44828  16.511   1.300  20.238  0.1799 -0.0195 -0.0898
 1838W        W44829  19.989  13.962  22.647 -0.1222  0.1760  0.0849
 1839W        W44830  17.158   8.279  22.498 -0.1094 -0.1525  0.2988
 1840W        W44831  21.623  25.237  25.880 -0.0006 -0.0242 -0.3401
 1841W        W44832  19.773   6.041  18.277  0.4237  0.1288 -0.0183
 1842W        W44833  19.193  20.687  15.425  0.0218 -0.0615 -0.4608
 1843W        W44834  17.894  13.910  12.370  0.2282  0.2802  0.3698
 1844W        W44835  21.909  14.450   9.493  0.0057  0.3176  0.0519
 1845W        W44836  22.039  28.954  14.554 -0.0148  0.3418  0.3171
 1846W        W44837  28.488   0.826  27.819 -0.2768  0.3517  0.0052
 1847W        W44838   9.558  11.028  26.661  0.1558  0.0524 -0.3544
 1848W        W44839  16.964  33.370  15.114 -0.0367 -0.2322 -0.0954
 1849W        W44840   1.080  20.294  20.137 -0.0297 -0.2951 -0.1797
 1850W        W44841   1.216  14.664  22.087  0.1563  0.0797  0.1090
 1851W        W44842  31.632  15.019   6.814  0.0580  0.0036  0.0513
 1852W        W44843  31.316  18.372  22.858  0.1404 -0.1500 -0.1737
 1853W        W44844  18.025  20.394  14.345  0.3226  0.1361 -0.1351
 1854W        W44845  27.520  31.554  20.790  0.1691 -0.0688  0.1497
 1855W        W44846  24.068  32.062  13.478  0.1691 -0.2073  0.1324
 1856W        W44847  27.159   3.162  21.637  0.0678  0.0687 -0.0795
 1857W        W44848  22.076   6.743  13.353  0.0722 -0.0283  0.0918
 1858W        W44849  19.183  29.274  23.243  0.0673 -0.0594 -0.0639
 1859W        W44850   6.197   9.563  17.854 -0.0905  0.1164  0.1228
 1860W        W44851  13.142   8.472  28.788 -0.1540 -0.2670  0.4360
 1861W        W44852  30.836   7.434  21.268  0.0913 -0.3046 -0.2756
 1862W        W44853   1.028  18.905   0.524 -0.3242 -0.1432  0.1720
 1863W        W44854   3.564  11.861  21.142 -0.1048  0.1309 -0.1316
 1864W        W44855  27.485  25.564  15.472  0.0432 -0.1298  0.0421
 1865W        W44856  28.698  32.232  15.775  0.0807 -0.1878 -0.0645
 1866W        W44857   8.601  19.783  27.474  0.0759 -0.1529 -0.4296
 1867W        W44858  27.221   2.511  15.739  0.1932  0.0509 -0.2392
 1868W        W44859  30.144  19.438  25.388 -0.0002  0.0725 -0.0039
 1869W        W44860  30.284   5.589  23.304 -0.0319 -0.2084  0.2526
 1870W        W44861  27.713   6.649  15.902 -0.2741  0.3123 -0.4016
 1871W        W44862  14.956  25.805  14.724  0.0579  0.1887  0.3129
 1872W        W44863  22.636   5.722   2.305 -0.1503 -0.1299 -0.1506
 1873W        W44864  16.282   1.133  20.985  0.4039 -0.0418  0.2237
 1874W        W44865  25.074  12.435  28.940 -0.0078  0.0707  0.0872
 1875W        W44866  20.332   0.996  27.496  0.0917  0.2292 -0.0197
 1876W        W44867   2.859   6.271  22.750  0.1165 -0.3889  0.1709
 1877W        W44868  19.416  16.702  29.260 -0.0981 -0.1169 -0.2542
 1878W        W44869  15.684   8.852  21.746 -0.0369 -0.1057 -0.3000
 1879W        W44870  24.898   7.045  20.766 -0.3372 -0.2132  0.0342
 1880W        W44871  21.387  11.445  16.691  0.2112 -0.0799  0.1832
 1881W        W44872  14.330  15.524  23.058  0.0564 -0.0484 -0.0254
 1882W        W44873  22.668  11.043  13.351  0.0572 -0.0263  0.0287
 1883W        W44874  20.456   8.923  16.954 -0.0839 -0.1215 -0.2082
 1884W        W44875  29.671  31.309  17.790  0.3701  0.0285 -0.1382
 1885W        W44876   9.735  23.520  20.846  0.1156 -0.1029 -0.0672
 1886W        W44877  33.915   8.696  20.117 -0.0089  0.0362  0.0819
 1887W        W44878   0.085   5.205  17.803  0.0205 -0.0158  0.0819
 1888W        W44879  21.736  27.664  16.408  0.2514 -0.1266 -0.1337
 1889W        W44880  15.131  11.162  15.131 -0.0280  0.1384  0.3083
 1890W        W44881  16.130   8.573  21.082 -0.1682 -0.2469  0.2011
 1891W        W44882  33.572  15.507  17.642 -0.0351  0.0094 -0.0240
 1892W        W44883  31.861   8.686  20.577  0.1138 -0.1409 -0.0445
 1893W        W44884  28.345  20.189  15.695 -0.1495 -0.1281 -0.1173
 1894W        W44885  30.825  15.728  16.010 -0.0393  0.4277 -0.1010
 1895W        W44886  13.180   8.206  19.338  0.3025  0.1763 -0.2816
 1896W        W44887  16.593  20.400  15.962  0.0141  0.1236  0.1761
 1897W        W44888  10.547  16.829   2.866 -0.1650 -0.3188  0.0325
 1898W        W44889  17.160   0.440  19.298 -0.0858  0.1801 -0.1227
 1899W        W44890  28.768  29.596  22.092 -0.1207  0.0392 -0.3818
 1900W        W44891  21.676  13.443  24.589 -0.1519  0.2177 -0.3707
 1901W        W44892  14.421   4.664  23.540 -0.0813 -0.1283 -0.2907
 1902W        W44893  27.660   3.816  15.827 -0.0002 -0.3244 -0.0485
 1903W        W44894  16.762  12.803  26.274 -0.1644 -0.0228  0.3041
 1904W        W44895  21.399   7.808  20.503 -0.1882  0.2569 -0.1980
 1905W        W44896  28.775  17.949  15.674  0.4260  0.0585 -0.3021
 1906W        W44897  23.383  10.577  21.159  0.0126  0.1082 -0.1961
 1907W        W44898  11.906   3.088  23.267  0.1345  0.1219 -0.0485
 1908W        W44899  19.888   8.263  18.299 -0.3780 -0.0622  0.5042
 1909W        W44900  19.753  30.893  21.918 -0.1657  0.0070  0.2175
 1910W        W44901   1.044   2.387  20.927 -0.1333  0.3761 -0.1094
 1911W        W44902  26.164  12.315  15.763  0.1843  0.0696  0.1103
 1912W        W44903   6.191   6.596   3.711 -0.3993 -0.0603  0.1247
 1913W        W44904  23.022  18.160  14.714 -0.2022  0.2245 -0.1664
 1914W        W44905   8.507   2.090  28.343  0.0259  0.2584  0.0286
 1915W        W44906  30.750   5.613  22.331  0.0733 -0.1347 -0.0973
 1916W        W44907  20.406  27.823  17.497  0.1518 -0.0360  0.1114
 1917W        W44908  23.189  20.171  24.628 -0.0409  0.1526  0.0922
 1918W        W44909  12.765   6.823  19.651  0.2302 -0.0687 -0.3368
 1919W        W44910  15.874  28.850  24.280  0.1229  0.2364 -0.1823
 1920W        W44911   9.334  32.569  26.699  0.2049 -0.0194  0.2646
 1921W        W44912  32.886  14.312  23.224  0.0211 -0.1407  0.1435
 1922W        W44913  20.316  11.827  26.241  0.1269  0.1540 -0.0206
 1923W        W44914  27.042   2.840   3.595 -0.2379 -0.0600  0.1875
 1924W        W44915  19.600   8.608  20.357 -0.1459 -0.1980  0.1107
 1925W        W44916  25.895   2.461  20.744  0.0509  0.1643  0.2860
 1926W        W44917  15.740  14.260  23.552  0.0821 -0.0914  0.2970
 1927W        W44918  12.571   8.515  21.558 -0.0213 -0.1929  0.3556
 1928W        W44919  24.985   8.338  19.656  0.0573  0.2629  0.5530
 1929W        W44920  15.803   4.223  25.315  0.0252 -0.2063  0.0579
 1930W        W44921  21.653  12.271  16.625  0.2143  0.2197  0.0174
 1931W        W44922  28.195  10.914  18.713  0.0696  0.1167  0.0742
 1932W        W44923  17.255   6.439  29.215 -0.1149 -0.0873 -0.2958
 1933W        W44924  12.411  27.237  22.436  0.2343  0.0684 -0.2210
 1934W        W44925  25.137  13.456  15.569  0.0431  0.0194 -0.0224
 1935W        W44926  22.124  29.694  28.529 -0.2311  0.1499 -0.2402
 1936W        W44927   4.378   5.044  16.182  0.2032 -0.1148  0.2426
 1937W        W44928  30.461   1.989  24.714  0.0926 -0.1158  0.0294
 1938W        W44929  10.568  12.329  24.783  0.1012 -0.1613  0.0605
 1939W        W44930   8.130   7.325  24.680 -0.4747 -0.0243 -0.0257
 1940W        W44931   0.943   0.921  27.031 -0.0740 -0.2513  0.3327
 1941W        W44932  34.193  29.236  18.576 -0.1350 -0.1961  0.1005
 1942W        W44933  20.774  26.410  15.850 -0.1220  0.2091 -0.3050
 1943W        W44934  14.650  15.160  15.796  0.1300 -0.0658 -0.1465
 1944W        W44935  21.260   4.010  24.755  0.0949 -0.0355  0.2542
 1945W        W44936  26.587  14.777  16.478 -0.0470  0.0328  0.0974
 1946W        W44937   5.927   6.154  15.669  0.2333  0.1645  0.0807
 1947W        W44938  29.407  16.088  20.046  0.1864 -0.1559 -0.2876
 1948W        W44939  26.897  20.504  24.381 -0.0001 -0.1698 -0.5268
 1949W        W44940  19.681  12.419  14.646 -0.0835  0.2251 -0.0229
 1950W        W44941  27.552  19.939  26.440 -0.2714 -0.1696  0.1675
 1951W        W44942  22.262  15.352  13.592 -0.2130  0.1823  0.0880
 1952W        W44943  23.776  21.685  22.488  0.1473 -0.1940 -0.3664
 1953W        W44944  33.899  28.312  18.373 -0.1385 -0.0512  0.1064
 1954W        W44945  24.773  31.793  27.780 -0.0164  0.2188 -0.1898
 1955W        W44946  30.923   1.768  28.501 -0.0347 -0.2831 -0.1067
 1956W        W44947   1.303  11.204  26.464 -0.0025 -0.1583 -0.2163
 1957W        W44948   0.607   6.118  15.739 -0.1583 -0.0253  0.0654
 1958W        W44949  22.296  26.146  22.810 -0.2835 -0.2609 -0.0875
 1959W        W44950   8.822   9.147  22.656  0.0271  0.1605 -0.0335
 1960W        W44951  26.898  33.999  27.288  0.0196  0.1614  0.0979
 1961W        W44952  30.645   8.382  15.347  0.3736 -0.2324  0.0609
 1962W        W44953  27.834   0.267  24.509 -0.2457 -0.0931 -0.0395
 1963W        W44954  22.150   9.848  15.130  0.0703  0.0796  0.1697
 1964W        W44955  24.446  11.247   0.552 -0.1794 -0.0516 -0.0219
 1965W        W44956  29.140   7.222  21.366  0.1474  0.0084 -0.0679
 1966W        W44957   8.825  27.627  19.186 -0.0065  0.1318 -0.1764
 1967W        W44958   2.298  32.040  17.723  0.2215  0.1300 -0.1013
 1968W        W44959  21.563   7.979  25.955 -0.2747  0.0182 -0.1058
 1969W        W44960  23.907  15.202  19.145 -0.3604  0.0499 -0.1524
 1970W        W44961  23.952  25.989  23.906 -0.0367 -0.0245 -0.0850
 1971W        W44962  33.977  20.452  19.993  0.0834 -0.1619  0.0213
 1972W        W44963  22.393  25.144  14.909 -0.0200 -0.3735 -0.0062
 1973W        W44964  32.608   2.148  23.780  0.0193 -0.1087  0.0715
 1974W        W44965   1.004  32.938  21.458  0.0723  0.3806 -0.0206
 1975W        W44966  25.066   2.430  18.498  0.2781  0.1241 -0.1869
 1976W        W44967  26.848  15.209  14.656 -0.2126  0.0794  0.3035
 1977W        W44968   0.951  11.627  16.874  0.0099  0.0909 -0.2449
 1978W        W44969   8.203  14.224  10.314 -0.0554 -0.1641  0.1392
 1979W        W44970  27.565   9.457  21.760 -0.0548  0.0003 -0.1766
 1980W        W44971  34.247  20.787  16.988 -0.0507 -0.1427  0.0868
 1981W        W44972  31.940  11.738  18.808 -0.0769 -0.0329 -0.2739
 1982W        W44973   4.992  26.328   0.118 -0.1525 -0.2876  0.1481
 1983W        W44974  23.708  13.031  19.155 -0.1523 -0.1317 -0.5405
 1984W        W44975   3.584  19.528  19.176  0.0212 -0.1104  0.0252
 1985W        W44976  21.876  12.776   0.230  0.1268 -0.1887 -0.2793
 1986W        W44977  10.714  11.710  26.473 -0.0785  0.0226 -0.0309
 1987W        W44978  21.409  24.308  24.233  0.0006  0.0189 -0.0292
 1988W        W44979  25.415  20.896  25.331 -0.1520  0.2811  0.0956
 1989W        W44980  31.098   6.630  24.422  0.0654 -0.3798  0.4325
 1990W        W44981  23.027  11.980  23.700  0.2095 -0.1890 -0.4367
 1991W        W44982  29.221  11.459  28.993  0.2570  0.3059 -0.0183
 1992W        W44983  24.530  29.787  14.215 -0.0006 -0.1547  0.0488
 1993W        W44984  18.010   7.709  16.846 -0.1464  0.0952 -0.1720
 1994W        W44985  17.578  12.675  23.585  0.0360 -0.0502  0.0364
 1995W        W44986  22.360  20.761  16.048 -0.3953 -0.0598  0.1222
 1996W        W44987  13.047   2.805  23.257  0.0399 -0.2597 -0.1898
 1997W        W44988  34.371  32.418   7.996 -0.2268 -0.0715 -0.1427
 1998W        W44989  20.178  29.341  23.407 -0.1617 -0.1319  0.3076
 1999W        W44990  31.742   9.502   4.463  0.2304 -0.3228  0.2760
 2000W        W44991  32.711  31.912  28.810 -0.0748 -0.0335  0.0807
 2001W        W44992  27.557   6.906  18.007 -0.2076  0.0246 -0.1470
 2002W        W44993  26.449  22.351  25.300 -0.1678 -0.0803  0.1083
 2003W        W44994  27.302   4.015  14.496 -0.2645  0.1223  0.4136
 2004W        W44995  16.015  31.269  26.392  0.0880 -0.1332 -0.3355
 2005W        W44996  23.810  33.159  14.333 -0.2464  0.4876  0.2598
 2006W        W44997  16.674   4.150  15.956  0.2938  0.3704  0.1134
 2007W        W44998   9.144  10.082  16.037 -0.1031 -0.2039 -0.2365
 2008W        W44999  22.257  18.096  13.536  0.1536 -0.1623 -0.1693
 2009W        W45000  30.423  32.790  25.739 -0.1837  0.3786  0.1224
 2010W        W45001   1.665   4.284   2.877 -0.3448  0.0444  0.1839
 2011W        W45002  24.845  20.863  17.771 -0.1347  0.1153  0.3633
 2012W        W45003  22.317  14.551  12.922  0.2399 -0.3218  0.2000
 2013W        W45004  21.075  19.562  15.048 -0.0009  0.2404  0.2656
 2014W        W45005   1.312  18.477  22.522  0.3849 -0.0233 -0.0882
 2015W        W45006  22.046  10.129  23.470 -0.0295 -0.1414  0.0431
 2016W        W45007  16.570   0.357  25.588 -0.2186 -0.2634  0.3122
 2017W        W45008  27.523  16.717  20.010 -0.2342  0.1799 -0.0828
 2018W        W45009  14.057  14.160  17.753  0.0714  0.0614  0.1095
 2019W        W45010  21.963  19.803  20.793 -0.0002 -0.2821 -0.1339
 2020W        W45011  19.808   1.944  22.453 -0.1877 -0.2460 -0.0950
 2021W        W45012  32.165  12.095  17.532  0.1704 -0.3854 -0.4841
 2022W        W45013  14.850   5.756   1.026 -0.0733  0.0167 -0.0103
 2023W        W45014  26.389  13.203  23.211  0.0762 -0.0583 -0.1344
 2024W        W45015  20.420   9.313  16.544 -0.0079 -0.0848 -0.1224
 2025W        W45016  18.989  15.337  23.011  0.1168 -0.0399  0.1621
 2026W        W45017  10.052   7.012  26.057 -0.1376 -0.1140 -0.0913
 2027W        W45018  13.049   5.069   1.038 -0.1152 -0.0658 -0.2093
 2028W        W45019  22.213  12.259  18.607 -0.0703  0.1678 -0.0630
 2029W        W45020  34.715   0.878   3.423  0.0340 -0.1071 -0.1907
 2030W        W45021  17.325  24.713  14.465 -0.0840  0.1426 -0.0989
 2031W        W45022  26.712  26.866  13.281  0.0598  0.3070 -0.5699
 2032W        W45023  17.351   6.937  27.377 -0.1651  0.2726 -0.0028
 2033W        W45024  20.897  11.323   4.869 -0.0953 -0.4171 -0.0451
 2034W        W45025   2.152  11.626  15.839  0.1472  0.0818 -0.1143
 2035W        W45026  25.834   0.248  24.632  0.2892  0.4848 -0.1877
 2036W        W45027  20.453  25.322  26.787 -0.2544  0.0281 -0.1733
 2037W        W45028  31.694  11.512  23.486  0.0671  0.2319 -0.4127
 2038W        W45029  24.537  25.603  18.770 -0.3118  0.1874  0.1265
 2039W        W45030   0.333  14.091  26.866  0.1804 -0.5597  0.0401
 2040W        W45031  27.709  10.097  24.320  0.3599 -0.0343  0.1264
 2041W        W45032  23.426   2.429  13.571 -0.1078 -0.3797 -0.0983
 2042W        W45033   9.127   7.292   2.261  0.1221  0.0198  0.2449
 2043W        W45034  28.866   1.559  15.270 -0.1948 -0.1705 -0.1291
 2044W        W45035  27.859   9.342   0.876 -0.0888  0.1120 -0.0830
 2045W        W45036  24.592   9.368   7.312  0.2731  0.0514 -0.0620
 2046W        W45037  21.411  27.240  24.174 -0.1286  0.0883 -0.0876
 2047W        W45038  17.253  22.428  17.749 -0.0304 -0.0419 -0.1927
 2048W        W45039  20.350  16.046  17.443 -0.0344 -0.1251 -0.1691
 2049W        W45040  33.831  12.066  22.424  0.1843  0.0122 -0.0865
 2050W        W45041   8.129  10.512  21.226  0.4515  0.1486 -0.2252
 2051W        W45042  28.338  22.339  15.553 -0.0658  0.1113 -0.0761
 2052W        W45043  18.837  27.752  20.861 -0.0702 -0.0598 -0.2081
 2053W        W45044   2.950   6.182  15.811  0.1521  0.3764 -0.0554
 2054W        W45045  31.558   9.964  17.868  0.0873  0.2936 -0.3019
 2055W        W45046  24.040  16.477  18.053 -0.2608 -0.0844 -0.1313
 2056W        W45047   1.910  21.185  24.765 -0.2214 -0.3222  0.0123
 2057W        W45048  24.303  27.907  16.463 -0.1028  0.0846 -0.4971
 2058W        W45049  18.271  19.018  26.748  0.3253 -0.1835 -0.1690
 2059W        W45050  28.365   5.368   1.475  0.0472 -0.4223  0.0894
 2060W        W45051  16.378  12.249  22.853 -0.3213  0.0659 -0.3953
 2061W        W45052  10.407  27.277  16.402 -0.0178  0.1950 -0.1148
 2062W        W45053  17.343   1.633  20.228  0.2274  0.1783 -0.1460
 2063W        W45054  23.193  26.133  27.491  0.2210 -0.2058 -0.3563
 2064W        W45055  31.257  17.342  18.770 -0.1414 -0.0872 -0.0897
 2065W        W45056  18.365  22.476  27.875 -0.0853 -0.0053  0.2115
 2066W        W45057  24.173  32.328  14.639  0.0485 -0.0007  0.0513
 2067W        W45058  24.551  27.841  22.308 -0.1073  0.2769  0.1562
 2068W        W45059  23.234  21.887  15.813  0.1655  0.0288 -0.3481
 2069W        W45060  21.616  22.046  14.913  0.0906  0.1903 -0.1808
 2070W        W45061  19.212   0.017  23.811 -0.1561  0.0164  0.1736
 2071W        W45062   4.011  22.192  26.582  0.2571 -0.0995  0.1345
 2072W        W45063   6.792  22.998  24.236 -0.0483 -0.1761  0.3049
 2073W        W45064  16.136  13.186  23.814  0.0998  0.1133  0.2544
 2074W        W45065  15.046  11.004  16.792  0.0154 -0.0490  0.2345
 2075W        W45066  14.375   2.756  16.989  0.0334  0.0384  0.2216
 2076W        W45067  28.327  11.901  18.693 -0.2844 -0.3035 -0.1530
 2077W        W45068  19.181   8.569  17.321 -0.0074 -0.0730 -0.0195
 2078W        W45069  28.196  20.674  21.378  0.1870  0.0809 -0.0438
 2079W        W45070  25.746  14.138  16.940  0.0779  0.2096  0.0223
 2080W        W45071  32.967   9.999   1.596 -0.1685 -0.1380 -0.2864
 2081W        W45072  16.909   5.743  21.781  0.0948  0.5344  0.1460
 2082W        W45073   1.716   1.536  17.180  0.1084  0.1234  0.2937
 2083W        W45074  34.609   9.627  18.004  0.1783  0.0208 -0.3648
 2084W        W45075  22.326  12.000  14.736  0.1058 -0.1623 -0.3078
 2085W        W45076  31.963  15.428  21.025 -0.2564  0.1259 -0.0522
 2086W        W45077   4.397  10.727  27.532  0.0539  0.1563  0.2168
 2087W        W45078  13.134  14.388  16.113  0.0336  0.0027 -0.2642
 2088W        W45079   6.219  14.334  21.880 -0.1422  0.1452  0.0374
 2089W        W45080  17.560  12.093  16.079  0.2511  0.0207 -0.3491
 2090W        W45081  21.765  12.789  19.765  0.1422  0.1022 -0.0380
 2091W        W45082  24.462   0.996  13.713  0.0810 -0.2684 -0.0354
 2092W        W45083  30.536  31.175  17.204 -0.0047 -0.1859  0.1135
 2093W        W45084  22.006  20.920  14.679  0.0542  0.1636  0.0740
 2094W        W45085  24.237  10.273  18.954 -0.0001 -0.1432 -0.0892
 2095W        W45086  23.807   4.367  21.821 -0.0795  0.0122 -0.0406
 2096W        W45087  27.788   2.713   3.090  0.0972 -0.1425  0.0519
 2097W        W45088  22.673   1.977  14.203 -0.0339  0.1959  0.0422
 2098W        W45089  34.622  10.554  18.591  0.0766 -0.5043 -0.1239
 2099W        W45090  13.035   1.257  23.630 -0.2701  0.1024 -0.0559
 2100W        W45091   4.138  29.893  16.329  0.0565 -0.0915  0.0286
 2101W        W45092  19.228  15.004  19.171 -0.2188  0.1152 -0.0044
 2102W        W45093  32.768   4.546  27.521 -0.2143  0.1683  0.0403
 2103W        W45094  31.065  16.831  21.778 -0.3117 -0.2569 -0.0073
 2104W        W45095  16.862   7.139   1.578 -0.1478 -0.0056 -0.1101
 2105W        W45096  24.466   7.769  15.867  0.1666 -0.2256  0.3369
 2106W        W45097  23.016   9.166  17.491 -0.2561 -0.1330  0.2614
 2107W        W45098  33.817   7.434  19.265 -0.1814  0.2287  0.2188
 2108W        W45099  15.690   8.331  23.971  0.1099 -0.1437  0.1413
 2109W        W45100  30.562  18.276  17.078  0.1297  0.0166  0.0477
 2110W        W45101  17.946   9.215  15.508 -0.0332 -0.1380  0.0778
 2111W        W45102  12.005  12.949  18.415 -0.1988 -0.0755  0.1017
 2112W        W45103  17.789   9.733  21.470 -0.0596 -0.4496  0.0729
 2113W        W45104   9.868  23.425  18.043 -0.1214  0.1068  0.0728
 2114W        W45105  24.838  23.200  27.774  0.0980 -0.1033  0.1077
 2115W        W45106  32.780  16.948   8.058  0.2109  0.1479  0.1912
 2116W        W45107  15.885   0.884  21.192 -0.1615 -0.1457  0.0690
 2117W        W45108  30.169  29.751  15.986  0.2584  0.2113 -0.0114
 2118W        W45109   0.054   9.416  17.625 -0.1277  0.1499 -0.1990
 2119W        W45110   4.226   5.829  17.516  0.0296 -0.1268  0.2125
 2120W        W45111  29.170   6.193  19.945  0.1630 -0.1082 -0.1968
 2121W        W45112  11.333   1.794  15.029 -0.1767  0.1214  0.0667
 2122W        W45113   9.231   1.399  24.099  0.3607  0.0544  0.2649
 2123W        W45114  26.769   5.278  18.199  0.1580 -0.0797  0.2738
 2124W        W45115  18.718   6.439  25.745 -0.3715 -0.2312 -0.0075
 2125W        W45116  23.533  28.244  14.337 -0.1859 -0.1055  0.0796
 2126W        W45117   9.005  11.583   4.286 -0.0046  0.0963 -0.4015
 2127W        W45118  24.948  16.640  20.107 -0.0467 -0.0454  0.0404
 2128W        W45119  21.770  10.068  27.547 -0.2027  0.0535 -0.0292
 2129W        W45120  17.361  12.585  13.853 -0.0624 -0.1379 -0.1994
 2130W        W45121   5.062  10.692  17.648 -0.2058 -0.0601 -0.3135
 2131W        W45122  34.079  19.125  22.484  0.3270  0.1047  0.3887
 2132W        W45123  25.822  27.181  28.612 -0.1057  0.1812 -0.2472
 2133W        W45124  28.537  33.548  25.843 -0.3497 -0.1222  0.0522
 2134W        W45125  33.589   1.280  16.265 -0.1434  0.2175  0.0265
 2135W        W45126  27.976  10.008  14.588 -0.2711  0.0271  0.1489
 2136W        W45127  29.154  10.782  19.553  0.0150  0.0809  0.2156
 2137W        W45128  13.527  32.258  25.174 -0.0833 -0.0437 -0.0599
 2138W        W45129  20.235  31.826   4.129  0.1243  0.2606  0.0315
 2139W        W45130  19.846  34.068  23.763  0.0968  0.0471 -0.0323
 2140W        W45131  34.014  15.808  23.912  0.3428 -0.1796 -0.1357
 2141W        W45132  32.274   5.903  23.902  0.2050  0.0048 -0.0313
 2142W        W45133  16.999  13.805  14.657 -0.1189  0.0640  0.1042
 2143W        W45134   9.458  17.573  15.198 -0.2248 -0.3367 -0.1194
 2144W        W45135  34.010  20.326  17.183  0.1729  0.0072  0.1778
 2145W        W45136  15.014   5.784  21.668 -0.2734  0.2429 -0.2925
 2146W        W45137   2.066  18.730  16.165 -0.1276 -0.1931 -0.0248
 2147W        W45138  28.407   7.834  21.274 -0.2359 -0.2941  0.1593
 2148W        W45139  29.027   6.147  15.527 -0.0427 -0.2113  0.2276
 2149W        W45140  12.576   4.200  29.239 -0.0088  0.1348 -0.1196
 2150W        W45141   3.811  14.982  17.797  0.1131  0.1554 -0.3312
 2151W        W45142  10.911  10.199   1.124  0.0758 -0.1384 -0.2273
 2152W        W45143  22.440  17.763  16.843  0.0979  0.1584 -0.2865
 2153W        W45144  18.186   6.488  14.462  0.0603  0.0182  0.3260
 2154W        W45145  21.864   9.951  20.622  0.1392  0.1739 -0.1054
 2155W        W45146  18.138  20.073  12.255 -0.1515 -0.0483  0.2798
 2156W        W45147   9.753   6.117  24.965  0.0361 -0.0796 -0.1285
 2157W        W45148  17.270  26.603  17.498  0.1043 -0.1033 -0.0095
 2158W        W45149  12.677  13.190  16.754 -0.4899  0.2125  0.1804
 2159W        W45150  21.886  31.684  22.116 -0.1260  0.0583  0.0930
 2160W        W45151  16.400  11.036  17.230  0.0337 -0.1189 -0.0956
 2161W        W45152  25.716  16.898  19.799  0.0262  0.1138 -0.0224
 2162W        W45153  27.947  26.208  19.437 -0.3036 -0.3449 -0.1030
 2163W        W45154   1.293  10.905  21.033  0.1237  0.0719 -0.0684
 2164W        W45155  13.815   1.846  14.919 -0.0898 -0.1541  0.2206
 2165W        W45156   8.499   5.213  21.492  0.0012 -0.2246 -0.1345
 2166W        W45157  31.254   3.283  14.879  0.1068 -0.2184  0.0844
 2167W        W45158  23.884  17.295  23.164 -0.1570 -0.1344  0.2505
 2168W        W45159  17.544   8.440   2.269  0.2479 -0.2654 -0.0659
 2169W        W45160  24.920  20.956  13.432 -0.0666 -0.1289 -0.0562
 2170W        W45161  18.309  33.517  19.894  0.0255  0.0905  0.0925
 2171W        W45162  19.023  34.158  27.194 -0.0352  0.2514 -0.2347
 2172W        W45163  28.808   6.081  18.564 -0.0960 -0.2535  0.0371
 2173W        W45164   1.584  21.915  23.044  0.3649  0.3780 -0.0323
 2174W        W45165  26.949   3.574  14.627 -0.0514 -0.1825  0.0827
 2175W        W45166  18.347   9.608  24.372  0.1357  0.0422 -0.2009
 2176W        W45167  27.851  12.488  24.243  0.0209 -0.1618  0.1499
 2177W        W45168  18.311  31.643  18.258 -0.3057  0.0835  0.1134
 2178W        W45169  16.339  17.430  13.407  0.2335  0.0792  0.0362
 2179W        W45170  29.998  19.445  22.408  0.0009  0.1595  0.1149
 2180W        W45171   5.029  15.430   2.802  0.3468 -0.0985  0.1334
 2181W        W45172  31.774   3.312  17.824  0.2073 -0.1533  0.1584
 2182W        W45173   9.656   1.448  24.307  0.0304  0.1305  0.1559
 2183W        W45174  13.063  24.680  14.874 -0.2192 -0.1861 -0.2149
 2184W        W45175   0.778  21.144   0.792  0.0066 -0.2363 -0.2270
 2185W        W45176  21.577  18.081  15.797 -0.1812  0.1120 -0.0781
 2186W        W45177  24.921   5.524  26.954  0.2828 -0.3985 -0.0372
 2187W        W45178  34.474  22.053   3.748  0.0132  0.1379 -0.2005
 2188W        W45179   6.282   0.156  29.238 -0.0009  0.0509  0.1045
 2189W        W45180   6.965   8.156  19.044 -0.0496 -0.0308 -0.4053
 2190W        W45181  17.083   6.000   9.973  0.0631 -0.0565  0.0991
 2191W        W45182   2.721  27.979  27.322 -0.0957 -0.2277 -0.0318
 2192W        W45183  29.624  19.414   5.895  0.3115  0.0757  0.0599
 2193W        W45184  28.782  14.992  15.175  0.0374 -0.0498  0.0194
 2194W        W45185   1.674  32.940  17.041  0.0232 -0.3674  0.2132
 2195W        W45186   1.937  27.728  22.401  0.3145  0.2308 -0.0837
 2196W        W45187  23.272   1.863  16.987 -0.0260 -0.1324  0.1524
 2197W        W45188  22.036  16.786  16.323  0.2697 -0.1769 -0.0415
 2198W        W45189  34.708   4.112  16.068 -0.0188  0.1286 -0.0386
 2199W        W45190  26.795  16.951  27.593  0.0352  0.2585  0.0934
 2200W        W45191  25.031   3.434  18.665  0.2262  0.5230 -0.1718
 2201W        W45192  29.822  28.371  13.960  0.1502  0.2777 -0.4141
 2202W        W45193  28.351  22.537  17.697 -0.0782  0.0935 -0.3586
 2203W        W45194  15.348   7.465  17.167  0.0571 -0.0348  0.0477
 2204W        W45195   5.319   9.270  24.342  0.1223 -0.0628  0.1428
 2205W        W45196  18.278   4.542  14.372  0.0491  0.2237 -0.1603
 2206W        W45197  33.655   1.530  27.002  0.0969 -0.0804  0.3010
 2207W        W45198  23.202  27.058   7.599  0.0502  0.0421 -0.2558
 2208W        W45199   6.864   3.232  15.002 -0.0435  0.1323  0.1324
 2209W        W45200  24.983  24.622  15.672  0.1337 -0.0520  0.0109
 2210W        W45201  24.059  10.644  17.423 -0.2430 -0.0342  0.0005
 2211W        W45202  32.207   9.818  25.321  0.0663 -0.3608 -0.3736
 2212W        W45203  30.662  16.433  23.981 -0.0088 -0.3403  0.0464
 2213W        W45204  23.468  27.285  18.365 -0.3681 -0.1439 -0.0635
 2214W        W45205  25.067   8.355  16.681  0.0706  0.0800  0.3682
 2215W        W45206  11.869   7.565  21.940 -0.1257 -0.1624  0.0467
 2216W        W45207  23.104  26.698   6.075 -0.3235  0.0664  0.1794
 2217W        W45208  31.478  16.504  19.269 -0.1981 -0.0628 -0.0648
 2218W        W45209  27.874  13.175  16.545 -0.0527  0.2891 -0.2697
 2219W        W45210  27.638  32.667  19.612  0.0306 -0.0672 -0.0364
 2220W        W45211  25.965  31.454  25.849  0.2191 -0.0650  0.0139
 2221W        W45212   9.518   3.999  22.175 -0.2697 -0.0218  0.2215
 2222W        W45213  10.287   3.786  18.181  0.1528  0.1118 -0.1523
 2223W        W45214  30.377  12.132  22.277 -0.1276  0.1749 -0.1883
 2224W        W45215  11.093  10.644  22.609 -0.0117 -0.1160 -0.3025
 2225W        W45216  12.841   6.128   7.307  0.1188  0.0356 -0.2153
 2226W        W45217  19.508   4.395  15.043 -0.0700 -0.1568 -0.2105
 2227W        W45218  20.574  24.777  15.293 -0.1802 -0.1104  0.0225
 2228W        W45219  19.641  29.432  14.764  0.1388  0.2395  0.3199
 2229W        W45220  28.474  24.704  24.105  0.1599  0.0351 -0.0373
 2230W        W45221  22.553  12.144  20.708 -0.4065 -0.0549 -0.2364
 2231W        W45222  30.523   6.904  23.874  0.2199  0.3008 -0.2077
 2232W        W45223  13.529  12.016  28.905  0.0256 -0.0001  0.0523
 2233W        W45224   4.566  13.580  27.084  0.3966  0.0801  0.1007
 2234W        W45225  28.803  32.073  12.800 -0.2496 -0.1842  0.0041
 2235W        W45226  19.932   2.465  26.978 -0.2746  0.0699  0.2178
 2236W        W45227  14.074   5.625  16.969  0.0390  0.1848  0.0041
 2237W        W45228  33.207   7.666  18.634  0.1462 -0.1247  0.1931
 2238W        W45229  24.056  18.187  25.512  0.0218 -0.1068  0.0712
 2239W        W45230  23.155  24.995  15.304 -0.0061  0.1202 -0.3946
 2240W        W45231  18.251   1.978   2.940 -0.0071 -0.0836 -0.1100
 2241W        W45232  22.550  33.551  23.628 -0.0318 -0.2204 -0.0068
 2242W        W45233  20.370   6.151  25.810  0.0120 -0.0612 -0.0329
 2243W        W45234  14.799   2.496  18.887 -0.1046 -0.1419  0.1414
 2244W        W45235   2.605  28.852  17.011  0.2628 -0.1144 -0.2444
 2245W        W45236  25.205  10.629  28.453 -0.0939 -0.0594  0.2377
 2246W        W45237   6.708  13.483  21.859  0.0414  0.0209 -0.0968
 2247W        W45238  25.268  20.806  15.278  0.0939 -0.4130 -0.0439
 2248W        W45239  22.141  34.020  22.908 -0.0449 -0.1460  0.0396
 2249W        W45240  21.262  28.715  20.173  0.2035 -0.2543  0.0821
 2250W        W45241  19.395  29.751  24.265 -0.0557 -0.1174  0.0615
 2251W        W45242  24.704   0.005   6.746 -0.0164 -0.1732  0.0711
 2252W        W45243  23.363  29.359  27.378  0.1314 -0.1258  0.0412
 2253W        W45244  17.765   2.483  16.953 -0.0592  0.3559 -0.1429
 2254W        W45245  32.840   9.659   1.154  0.0190  0.2608 -0.0339
 2255W        W45246  22.732   3.063  25.762 -0.0738  0.0300  0.1913
 2256W        W45247  13.079   4.181  25.845  0.3465 -0.0570 -0.0741
 2257W        W45248  26.127  18.275  22.549  0.1906  0.1474 -0.2835
 2258W        W45249  26.049   6.720   0.232  0.0178  0.2356 -0.2261
 2259W        W45250   0.440   0.121   9.524  0.0470  0.0599 -0.0263
 2260W        W45251  31.774   2.254   0.601 -0.2652  0.2753  0.1453
 2261W        W45252  18.420   3.881  19.820 -0.1842 -0.1224  0.1824
 2262W        W45253  29.221   5.194  19.448 -0.2409  0.0733  0.1365
 2263W        W45254  31.903  24.869  22.036  0.4073 -0.3256  0.2328
 2264W        W45255  25.921  22.041  20.976  0.1564  0.0648  0.1446
 2265W        W45256  30.276  17.279  24.258  0.1430  0.0861 -0.1753
 2266W        W45257  30.829  18.062  24.735  0.1153 -0.3701 -0.0517
 2267W        W45258   3.526  11.933  27.736 -0.1913  0.0153  0.1621
 2268W        W45259  17.094  29.999  17.081  0.0616 -0.0480  0.1339
 2269W        W45260  23.506  23.292  27.649 -0.2010  0.1365 -0.0784
 2270W        W45261  25.691  27.362  14.441  0.3714  0.0859 -0.0352
 2271W        W45262  23.329  21.967  21.837 -0.1064  0.2060  0.0106
 2272W        W45263  26.005  14.598  20.719 -0.1387 -0.0782 -0.0047
 2273W        W45264  23.568   7.533  28.910  0.0909 -0.0860 -0.1928
 2274W        W45265   7.714   8.666  16.732  0.1498  0.2245 -0.0833
 2275W        W45266  28.805  13.763  25.428 -0.0954  0.2883  0.4384
 2276W        W45267  20.927   9.571  15.772 -0.0572  0.0278 -0.2990
 2277W        W45268  25.039   5.109  24.786  0.1274 -0.0359 -0.0854
 2278W        W45269  24.599  19.930  14.366 -0.0220  0.1607 -0.0879
 2279W        W45270  25.454  29.682  17.133 -0.0502 -0.0840 -0.0873
 2280W        W45271   9.127  16.790  15.831 -0.2127 -0.1591  0.0340
 2281W        W45272  15.898   1.215  22.385  0.0201  0.0480 -0.1473
 2282W        W45273   6.924  10.329  15.571  0.0080  0.1146  0.1053
 2283W        W45274  17.334  23.775  15.523  0.0253 -0.2524 -0.1995
 2284W        W45275   2.040  23.421  22.177 -0.0435 -0.2449  0.2205
 2285W        W45276  26.044   1.344  27.824 -0.2966 -0.0232  0.1748
 2286W        W45277  14.749  10.794  18.589  0.3645 -0.1395 -0.2148
 2287W        W45278  17.362   7.599  21.324  0.2474 -0.0976 -0.2214
 2288W        W45279   5.650  11.047  19.525 -0.2431 -0.0968 -0.4068
 2289W        W45280  10.424  12.001  21.030  0.0041 -0.1866  0.1014
 2290W        W45281   7.918  17.733   0.685 -0.0014  0.0659 -0.0109
 2291W        W45282   4.026   5.446  16.758 -0.0718  0.0296  0.0122
 2292W        W45283   1.332   2.623   1.987  0.0174  0.0151 -0.1607
 2293W        W45284  32.743  17.947  20.312 -0.0055 -0.3796 -0.1346
 2294W        W45285   1.175  22.474  18.633 -0.2736 -0.2302 -0.1506
 2295W        W45286  30.957   6.648  24.993  0.0441 -0.1117  0.0787
 2296W        W45287  21.056  27.074  14.198  0.1395 -0.2699  0.1686
 2297W        W45288  11.112   5.314  19.524  0.1023 -0.4521  0.1196
 2298W        W45289  18.630  32.815  19.399 -0.0086 -0.1431  0.1984
 2299W        W45290   2.658  11.824  16.509  0.0576  0.0316  0.1973
 2300W        W45291  15.161   1.739   4.221  0.0315  0.0296  0.2409
 2301W        W45292  11.626  22.664   8.088 -0.2135  0.0659 -0.1868
 2302W        W45293  31.277  15.816  21.766 -0.2090  0.2303  0.0047
 2303W        W45294  33.548  12.683  18.451 -0.1645 -0.2569  0.2176
 2304W        W45295   9.574  10.848   3.409 -0.2996  0.2535 -0.0920
 2305W        W45296  11.687  13.258   4.936 -0.0076 -0.3866  0.2775
 2306W        W45297  20.603  10.417  21.619  0.0094  0.1188  0.1075
 2307W        W45298  28.260  33.825   1.163  0.0461 -0.1265 -0.2302
 2308W        W45299   2.310  15.937  19.160 -0.0639 -0.1013  0.0914
 2309W        W45300  32.275  12.324  28.699 -0.0549 -0.0584  0.0959
 2310W        W45301  32.629  21.798  15.423 -0.0965  0.1204  0.3444
 2311W        W45302  26.543  14.254   8.600 -0.1448  0.2594  0.1299
 2312W        W45303  33.372   9.642  23.123 -0.0708  0.0474  0.1619
 2313W        W45304  23.739  14.603   6.823  0.0777  0.0228  0.0220
 2314W        W45305  25.326  13.267  19.820  0.1808  0.0949  0.1483
 2315W        W45306  27.326  10.455  15.908  0.1679  0.0389 -0.0316
 2316W        W45307  28.342  18.451  24.449 -0.3355 -0.1043 -0.1344
 2317W        W45308  32.626   1.236  15.888  0.1672  0.0270 -0.1568
 2318W        W45309  29.378   9.732  27.406 -0.1489 -0.0953 -0.3804
 2319W        W45310  24.992   4.029  14.868 -0.3398 -0.0069  0.1881
 2320W        W45311  34.550   8.544  24.231  0.1577  0.0914  0.0012
 2321W        W45312  19.721  20.192  22.484 -0.0142  0.2394  0.0377
 2322W        W45313  24.028  10.697  21.941 -0.1135 -0.0753  0.0901
 2323W        W45314  18.819  34.418  15.067 -0.0291  0.3104 -0.1153
 2324W        W45315  21.487   0.170   0.666 -0.0433 -0.1022  0.0213
 2325W        W45316  27.298   9.983  13.594 -0.1113  0.0021  0.0036
 2326W        W45317  25.267  14.396  19.069 -0.0028 -0.3168  0.2817
 2327W        W45318  16.161  12.894  22.398  0.2626  0.3320 -0.0772
 2328W        W45319  32.540   4.368  23.310 -0.1258  0.1456 -0.0803
 2329W        W45320  25.105  20.983  16.939  0.0970 -0.0449  0.1679
 2330W        W45321  19.984   8.019  23.069 -0.2564  0.1011 -0.2056
 2331W        W45322  27.671   7.743   2.031  0.0459 -0.0004  0.1478
 2332W        W45323  31.710   6.004  20.530 -0.2516  0.1451 -0.1801
 2333W        W45324  19.376  12.169  17.656  0.3569 -0.1805 -0.1842
 2334W        W45325  11.802  17.767  15.174 -0.3756  0.0557 -0.0322
 2335W        W45326  25.850  25.104  16.557  0.2053  0.0018  0.1979
 2336W        W45327  14.911   4.280  22.741  0.0449  0.3148  0.1294
 2337W        W45328  23.270  33.962  16.184 -0.0963  0.1263 -0.0995
 2338W        W45329  24.243  30.407  20.928 -0.0282  0.1235 -0.1758
 2339W        W45330  31.169  21.675  15.133 -0.0161 -0.3137 -0.1803
 2340W        W45331  17.853  32.965  16.613 -0.1166  0.2252 -0.0435
 2341W        W45332  29.245   2.522  23.240 -0.1419  0.0020 -0.4408
 2342W        W45333  19.738  31.068  24.140  0.1236  0.1002 -0.0525
 2343W        W45334  25.513  21.059  18.858  0.1409  0.0385 -0.1760
 2344W        W45335  20.281   9.313  25.486  0.1787  0.0586 -0.0303
 2345W        W45336  16.819   5.923  22.415  0.3033 -0.1955 -0.0374
 2346W        W45337  17.047   8.684  27.804  0.2683  0.3862 -0.1431
 2347W        W45338  26.897  28.473  19.010  0.1822 -0.4163 -0.1834
 2348W        W45339  28.659  31.049   0.981 -0.1144  0.1032 -0.2641
 2349W        W45340   3.036  24.102  17.185  0.0578  0.1584  0.0925
 2350W        W45341  20.244   5.508  16.546  0.0594 -0.1748  0.2276
 2351W        W45342  21.982  11.186  22.321  0.1091  0.0156  0.1046
 2352W        W45343   1.631  25.514  26.213 -0.2798 -0.1603 -0.0722
 2353W        W45344  26.445   2.275  18.195  0.2196 -0.2048 -0.0296
 2354W        W45345  13.826  24.276  16.019 -0.1951  0.0575  0.1201
 2355W        W45346  31.995   5.338  14.347  0.2305 -0.0508 -0.2790
 2356W        W45347  15.614  31.982   7.377 -0.0302 -0.2938  0.0935
 2357W        W45348  28.558   3.777  27.430  0.1466  0.4119  0.2094
 2358W        W45349  20.333  10.364  26.106  0.0112 -0.3807  0.4103
 2359W        W45350  27.020  33.147  25.876  0.0242 -0.1107 -0.0962
 2360W        W45351  16.336  32.149   0.250 -0.1606  0.2395 -0.0371
 2361W        W45352   8.384  29.472  27.641 -0.0296 -0.0850 -0.1441
 2362W        W45353  26.502  15.589  14.779  0.0670  0.2007 -0.0275
 2363W        W45354  32.053  33.858  29.060  0.1077 -0.1210 -0.1136
 2364W        W45355  30.710  11.062  28.260  0.0934  0.0602  0.2205
 2365W        W45356  24.556   9.856  15.239  0.0219  0.1206 -0.1214
 2366W        W45357  19.021  10.908  25.625  0.1554  0.0317 -0.3455
 2367W        W45358  12.328   6.931  21.769  0.3124 -0.0588 -0.3158
 2368W        W45359  25.641  14.222  29.257  0.1043 -0.0121 -0.3646
 2369W        W45360   1.432  30.344  18.819  0.4379  0.2768  0.2063
 2370W        W45361  31.150  13.620  15.813 -0.1851 -0.0496  0.2112
 2371W        W45362  22.844   9.699   8.089  0.3429  0.2453 -0.1852
 2372W        W45363  24.599  12.510  26.428 -0.5342 -0.3778  0.2603
 2373W        W45364  18.910  33.042  14.552  0.1436 -0.2194 -0.2793
 2374W        W45365   2.554  15.518  22.970  0.2951  0.1526 -0.0399
 2375W        W45366  15.477  27.965  19.285  0.0415  0.1421 -0.1439
 2376W        W45367   1.882   0.313  17.064 -0.4596 -0.1414  0.0125
 2377W        W45368  32.716  22.537  23.354 -0.2513 -0.1012  0.0638
 2378W        W45369  23.421   3.316  22.796  0.2017 -0.1654 -0.1918
 2379W        W45370  22.173   3.495  19.490 -0.2483 -0.2559 -0.0508
 2380W        W45371   5.726   7.979  23.270  0.0254  0.1585  0.0481
 2381W        W45372  25.653  22.545  14.498  0.0293  0.3218  0.1169
 2382W        W45373  28.527  20.239  18.427 -0.0133 -0.0748  0.0760
 2383W        W45374   0.128  20.244  23.194  0.0994  0.2024  0.4132
 2384W        W45375  22.925   3.920  13.722 -0.1496  0.1960  0.0518
 2385W        W45376  33.391  26.067  22.102 -0.2354 -0.0425  0.0403
 2386W        W45377  22.272   3.542  28.626 -0.0249 -0.0263  0.0788
 2387W        W45378  30.863  19.693  13.804  0.2210 -0.0985  0.1932
 2388W        W45379  17.293  13.726  21.002  0.3553 -0.0574 -0.3310
 2389W        W45380  26.637  14.523  15.209  0.1133 -0.0897  0.0893
 2390W        W45381  23.587  16.670  15.894 -0.0901 -0.2811 -0.2322
 2391W        W45382  26.682  32.906   7.602  0.0232  0.0646 -0.2589
 2392W        W45383   9.270  21.293  25.088 -0.0833 -0.3173 -0.2245
 2393W        W45384   0.653  12.795  21.288  0.2587  0.1534 -0.0507
 2394W        W45385  22.755   3.818  18.886  0.2928 -0.3220  0.0634
 2395W        W45386   2.393  14.332  16.120 -0.0276  0.3384 -0.1119
 2396W        W45387  29.494  24.946  21.433  0.1336 -0.0890 -0.1171
 2397W        W45388  32.547  13.202  17.133 -0.0992 -0.2033  0.0088
 2398W        W45389  19.108  10.631  26.822  0.2291  0.0143 -0.1448
 2399W        W45390   9.023   1.150  23.152 -0.1405  0.1360 -0.0495
 2400W        W45391   2.040   6.181   3.172  0.0661 -0.0118  0.0997
 2401W        W45392  29.039   0.032  19.073 -0.0895  0.1696  0.0356
 2402W        W45393   6.362   9.746  23.996  0.1403  0.0865  0.1322
 2403W        W45394  18.486   3.043  20.513 -0.1419  0.0694  0.1808
 2404W        W45395  15.528   9.166  19.703 -0.1438  0.0390  0.1831
 2405W        W45396  19.473  24.838  22.916  0.0576 -0.1124 -0.1333
 2406W        W45397  23.618  13.044   6.697  0.1723  0.1207  0.1578
 2407W        W45398  13.799  20.633  26.506  0.1162 -0.0801 -0.2033
 2408W        W45399   8.366  15.733  15.237  0.1823 -0.2194  0.0723
 2409W        W45400  21.689   9.771  21.144  0.0724 -0.0767  0.1672
 2410W        W45401  23.515   6.203   2.431 -0.2741  0.0503  0.2927
 2411W        W45402   1.822   6.098  15.513  0.1397 -0.0745  0.0457
 2412W        W45403  27.579   5.469  16.996 -0.0945 -0.1508  0.0772
 2413W        W45404  24.338  17.447  22.081 -0.3363  0.0392  0.1018
 2414W        W45405  15.783  22.736  14.958 -0.5500 -0.0286 -0.3039
 2415W        W45406   2.570   5.782  24.845 -0.2473  0.1115  0.1286
 2416W        W45407  24.864   4.793  24.335 -0.0848 -0.2043 -0.0253
 2417W        W45408  18.975  10.857  29.188  0.1443 -0.1317 -0.0660
 2418W        W45409  21.301   9.764  19.191 -0.0110 -0.1891  0.0235
 2419W        W45410  27.684  22.426  15.048 -0.1611  0.1342 -0.0324
 2420W        W45411  22.056  34.277   5.033 -0.0491  0.0179 -0.0873
 2421W        W45412  30.372  10.398   1.620 -0.0497 -0.1676 -0.2947
 2422W        W45413  20.694  14.747  17.604  0.1145 -0.0541 -0.0739
 2423W        W45414   4.499   3.340  11.196  0.0912 -0.1045  0.0026
 2424W        W45415   4.838  10.685   9.185 -0.2249  0.0770 -0.1490
 2425W        W45416  29.096   6.754  27.612  0.2158 -0.3089 -0.0199
 2426W        W45417  16.979  16.667  12.527  0.0575 -0.1602  0.0123
 2427W        W45418  13.934   0.451  23.910 -0.0328  0.0877  0.0846
 2428W        W45419  24.783  25.867  27.964 -0.1194  0.2102 -0.1313
 2429W        W45420  31.496  17.040  22.523 -0.1718  0.0354  0.0214
 2430W        W45421  28.921  18.214  17.743  0.1386 -0.0174 -0.1302
 2431W        W45422  16.267  11.449  26.763  0.1174 -0.0805  0.3570
 2432W        W45423  17.688  15.011  12.380  0.0625  0.1388 -0.0918
 2433W        W45424  26.953   6.405  15.000  0.0179 -0.1749 -0.2762
 2434W        W45425  29.629   4.483  13.557  0.1168  0.2079 -0.3659
 2435W        W45426   0.845   5.547   7.402 -0.5620  0.1467 -0.0101
 2436W        W45427  23.677  28.307  28.038  0.0151  0.1286 -0.3725
 2437W        W45428  22.059   6.475   2.054  0.1899 -0.1708  0.1336
 2438W        W45429  26.479  12.632  19.321 -0.2134  0.0359 -0.0944
 2439W        W45430  17.061   6.937  22.506 -0.2096  0.0882  0.2838
 2440W        W45431  21.813   3.650  16.837 -0.1874 -0.0906 -0.0338
 2441W        W45432  15.882   6.613  22.896 -0.0829  0.0618  0.0668
 2442W        W45433  19.227  19.119  15.610 -0.0413  0.1034  0.2858
 2443W        W45434  22.196  16.602   5.737 -0.0344 -0.2820 -0.1828
 2444W        W45435  20.706  16.482  23.901  0.1214  0.1625 -0.1512
 2445W        W45436  10.693   3.650   8.255  0.1657 -0.1788 -0.2127
 2446W        W45437  32.258   7.054  21.268 -0.0503  0.0043  0.0172
 2447W        W45438  25.582  12.837  21.659  0.1075 -0.0790 -0.1370
 2448W        W45439  21.707  10.966  19.386  0.2377 -0.0818  0.1852
 2449W        W45440  30.602  11.396  17.684 -0.4319 -0.2664  0.1526
 2450W        W45441  17.873   6.989  15.452  0.0735 -0.0178  0.0477
 2451W        W45442  22.011  33.772  23.907  0.2862 -0.1779  0.2414
 2452W        W45443  27.748  20.754  14.738 -0.2555 -0.0972 -0.3829
 2453W        W45444  23.220  24.423  22.667  0.2784  0.0419 -0.1061
 2454W        W45445  27.007  29.003  23.005  0.1881  0.0906  0.5135
 2455W        W45446  19.988   9.972  26.174  0.0371 -0.0912  0.1409
 2456W        W45447  28.915  15.167  19.652 -0.0218  0.0386 -0.2126
 2457W        W45448  19.110   0.431  18.600 -0.2083  0.0696  0.2352
 2458W        W45449   1.544   6.651  16.986 -0.2529 -0.2888 -0.0206
 2459W        W45450  20.121  12.692   7.080  0.0995  0.1019 -0.1734
 2460W        W45451  15.158  11.969  22.587 -0.2692  0.0432 -0.0731
 2461W        W45452   9.450   7.478  26.511  0.0783  0.2285 -0.1410
 2462W        W45453  14.311   6.640   2.605  0.0740  0.1515 -0.2298
 2463W        W45454  23.740  31.161  14.808 -0.1149  0.1102  0.0396
 2464W        W45455  12.154  29.377   4.990  0.3696 -0.1258 -0.0941
 2465W        W45456  26.218  20.190  21.104  0.1980  0.0420  0.2022
 2466W        W45457  33.603  11.293   7.088  0.0551 -0.2050 -0.2995
 2467W        W45458   8.963   3.519  15.069  0.1870 -0.3057 -0.1549
 2468W        W45459  25.417  18.656  16.096 -0.0220 -0.0094  0.2109
 2469W        W45460  20.789   0.629  17.192  0.0486  0.1554 -0.1308
 2470W        W45461  28.281  30.245  28.100 -0.2452  0.2972 -0.1435
 2471W        W45462   7.732  12.919  23.303  0.2841  0.0058  0.0775
 2472W        W45463  18.455   9.235  19.389  0.5689  0.1657 -0.0700
 2473W        W45464   8.746  28.575  23.556  0.1878  0.0615 -0.0345
 2474W        W45465  12.895   7.787  28.177 -0.1360 -0.1567 -0.1533
 2475W        W45466  34.614  33.400  22.531 -0.3740 -0.0050 -0.0667
 2476W        W45467  24.420  17.728  17.732 -0.1383  0.1779  0.0777
 2477W        W45468  22.705  14.728  19.131  0.0493  0.1903 -0.0560
 2478W        W45469  34.118  23.310  18.172 -0.0782  0.1875 -0.0348
 2479W        W45470  19.918  18.753  13.362  0.1913 -0.1910 -0.2136
 2480W        W45471  23.845   1.619  21.065 -0.2417 -0.0968  0.0494
 2481W        W45472  20.616   6.376  20.733  0.0408  0.2196 -0.0534
 2482W        W45473   8.144  33.004   6.859 -0.0888 -0.0881  0.0444
 2483W        W45474   5.824   9.518  23.684  0.0087 -0.0518 -0.1549
 2484W        W45475  26.212   3.550   1.478 -0.0165  0.0735 -0.2218
 2485W        W45476  12.701  18.709  23.001  0.0237  0.0614  0.3864
 2486W        W45477   7.695  24.744  15.534 -0.1682 -0.2347  0.1740
 2487W        W45478  16.896   8.186  22.936  0.1136  0.2871 -0.0956
 2488W        W45479   2.994  17.565  15.618  0.4030 -0.1612 -0.0126
 2489W        W45480  20.370  33.814  19.291  0.2415  0.3689  0.3073
 2490W        W45481  16.067   4.075   3.632  0.1611  0.0173 -0.3264
 2491W        W45482   1.448  28.235  19.261  0.0096 -0.0133 -0.3217
 2492W        W45483  22.675  28.508  15.894 -0.3272  0.1458  0.1091
 2493W        W45484  30.075  20.331  24.075 -0.0729 -0.3567 -0.1411
 2494W        W45485  11.419  12.568   4.460 -0.1057  0.2345  0.0658
 2495W        W45486   6.908  27.600  18.051 -0.3909 -0.0708  0.0763
 2496W        W45487  10.431   7.037  25.750 -0.1277  0.0319 -0.2900
 2497W        W45488  17.611  16.043  12.649 -0.1059  0.5070  0.3730
 2498W        W45489  21.508  31.281  14.159 -0.0035 -0.1185  0.1827
 2499W        W45490  30.944  27.669  22.115 -0.2349 -0.1367  0.1644
 2500W        W45491  31.225   9.140  24.273  0.1281  0.1882 -0.2047
 2501W        W45492  17.598   6.659  17.908  0.1399  0.2700  0.1123
 2502W        W45493  23.075  31.849   4.116 -0.0636  0.0046  0.1872
 2503W        W45494  10.749  17.445  24.370  0.2080  0.1014 -0.1585
 2504W        W45495  27.491  14.136  24.857  0.0659 -0.1994  0.0446
 2505W        W45496   0.307   0.067  18.285 -0.0973  0.0653  0.3318
 2506W        W45497  17.869  11.865  25.303 -0.0807 -0.1368  0.3834
 2507W        W45498  21.290  25.205  25.466 -0.1111 -0.1719 -0.4443
 2508W        W45499  26.796   6.073  13.890  0.1671  0.2227  0.1628
 2509W        W45500  33.564  15.454  22.192 -0.0474 -0.1917 -0.1455
 2510W        W45501   2.820  12.098   0.978  0.0792  0.1236  0.0691
 2511W        W45502   8.597   8.315  21.182  0.0884 -0.3651 -0.1390
 2512W        W45503  17.789  33.890   6.518  0.1574 -0.1398  0.1564
 2513W        W45504  14.013  25.310  15.103  0.0771 -0.0930 -0.0361
 2514W        W45505  17.313   1.328  17.159  0.2433 -0.1255  0.1366
 2515W        W45506  27.843  10.249  22.420  0.0403 -0.0225 -0.1534
 2516W        W45507  18.062   7.682  13.705 -0.0928 -0.1888  0.0476
 2517W        W45508  20.381  34.685  15.438 -0.1062 -0.3250 -0.2637
 2518W        W45509   6.007  31.151  20.909 -0.0840 -0.1355 -0.1875
 2519W        W45510  26.908  17.583  25.609  0.5063  0.1252 -0.2875
 2520W        W45511  33.459  17.586  16.455 -0.2838  0.2237 -0.1771
 2521W        W45512  29.567  17.160  17.546 -0.3357  0.1520  0.0228
 2522W        W45513  24.996   8.193   0.605  0.2116  0.3080 -0.0263
 2523W        W45514  20.119  16.695  28.730  0.0521 -0.1804 -0.3190
 2524W        W45515  32.227  20.141  19.788  0.2143  0.1031  0.2112
 2525W        W45516   6.426   8.595  24.294  0.1362  0.1504 -0.2598
 2526W        W45517  23.509  10.872  20.059  0.2646 -0.1676 -0.1621
 2527W        W45518  29.714  29.679  15.677 -0.1921 -0.0051 -0.3511
 2528W        W45519  16.387  12.141  21.773  0.0261 -0.1071  0.0391
 2529W        W45520   5.760  19.654  17.469  0.0587  0.0410 -0.0052
 2530W        W45521  11.913   5.993  15.228 -0.0325 -0.0914 -0.0962
 2531W        W45522  12.706   4.770   1.311 -0.0442  0.0506  0.2735
 2532W        W45523  29.390  12.780   8.066  0.0112 -0.0636 -0.1835
 2533W        W45524  10.856   4.222  25.779 -0.1463 -0.2698 -0.0920
 2534W        W45525  12.549  11.488   0.205 -0.1906  0.0243  0.2433
 2535W        W45526  25.090  21.851  18.420  0.0227 -0.1432 -0.1290
 2536W        W45527  26.280   8.007  17.872 -0.0138  0.2957 -0.1065
 2537W        W45528  17.822   8.245  16.996 -0.2200  0.2237  0.0955
 2538W        W45529  32.566   7.845   5.798  0.0451 -0.0600  0.0039
 2539W        W45530  20.300   9.853   5.515  0.2731  0.1949  0.2824
 2540W        W45531  24.072  18.037  24.684  0.1225 -0.0140 -0.2116
 2541W        W45532  15.748   5.674  25.450 -0.2936  0.1723  0.2174
 2542W        W45533  16.406   4.164  18.608 -0.2420  0.1514  0.2077
 2543W        W45534  17.979   5.826  16.726  0.3655 -0.1841  0.0921
 2544W        W45535  29.538   3.244  21.042 -0.0972 -0.1633 -0.1131
 2545W        W45536  33.192  14.353  17.036 -0.0498 -0.0851  0.2204
 2546W        W45537  22.066  17.224  13.251 -0.2062 -0.1158  0.2878
 2547W        W45538   9.321   4.711   1.890  0.2090  0.0351  0.0761
 2548W        W45539  33.607   2.435  19.465 -0.2504  0.1796 -0.1358
 2549W        W45540  12.593   0.207  25.493 -0.1657  0.0511  0.2916
 2550W        W45541  22.060   3.278  22.191  0.1611 -0.0791  0.1354
 2551W        W45542  27.905   8.650   6.307  0.0326  0.0577  0.0211
 2552W        W45543  14.423  20.427  14.404 -0.2886  0.0544  0.2417
 2553W        W45544  10.215   8.035  16.183  0.0474 -0.2275 -0.0870
 2554W        W45545  22.810  27.984  27.380  0.0025 -0.0038 -0.1573
 2555W        W45546  11.648   7.262   4.227  0.0461 -0.0369  0.0878
 2556W        W45547  27.199  31.864   3.239 -0.1042  0.1023  0.0755
 2557W        W45548  33.073   4.672  23.720 -0.1913 -0.5519 -0.4463
 2558W        W45549  25.265   6.943  21.166  0.0528 -0.1734  0.0441
 2559W        W45550   8.402  18.656  20.363  0.1561  0.2937  0.1802
 2560W        W45551  33.756   9.863  19.669  0.1039  0.0066  0.1962
 2561W        W45552   4.280  14.122  21.046 -0.1103 -0.1811  0.2831
 2562W        W45553  22.607  10.636  25.065 -0.1916  0.5595  0.0824
 2563W        W45554  20.164  13.765   5.038 -0.1439 -0.1722  0.0394
 2564W        W45555  34.182  15.222  19.260 -0.3504 -0.1328 -0.0111
 2565W        W45556  20.750   5.711  14.704 -0.1580 -0.1050  0.1773
 2566W        W45557  12.890   7.592  21.159 -0.2070  0.1263  0.1847
 2567W        W45558  20.457  31.349  25.589 -0.3778  0.3015 -0.1179
 2568W        W45559   3.869  16.090  16.095  0.2015  0.2113 -0.0539
 2569W        W45560  29.468   3.394   3.172  0.2513  0.2548  0.2681
 2570W        W45561  17.492  15.836   8.910  0.2890  0.2544 -0.0144
 2571W        W45562  11.756  25.257  16.039 -0.3277 -0.0238 -0.1106
 2572W        W45563  31.071   0.267  18.655  0.0776  0.1106 -0.1108
 2573W        W45564  30.211  15.163  28.364 -0.1549  0.0174 -0.2478
 2574W        W45565  34.018  28.080  14.064  0.1075  0.1173  0.0695
 2575W        W45566  23.594  12.453   0.698 -0.0139 -0.2728  0.1243
 2576W        W45567   4.112  19.092  26.541  0.0626 -0.1718  0.0667
 2577W        W45568  23.771   6.911  27.575  0.0594 -0.1022  0.1449
 2578W        W45569  11.655   2.693  21.838 -0.0546  0.2422  0.0054
 2579W        W45570  17.978  34.242  18.272  0.0125  0.2579  0.0511
 2580W        W45571  23.139  29.033   0.501 -0.2110  0.0712  0.0943
 2581W        W45572  30.164  16.233  26.273 -0.0626  0.0960  0.0302
 2582W        W45573  34.013  13.250  17.983  0.3410  0.1111 -0.1065
 2583W        W45574   6.560   5.765  21.013  0.3604  0.2218 -0.0165
 2584W        W45575  23.522  31.252   3.233 -0.1887  0.3176  0.0731
 2585W        W45576  30.530  20.211  22.121  0.1772  0.0217 -0.1045
 2586W        W45577  34.552  10.769  21.499  0.0770 -0.2932 -0.1469
 2587W        W45578  15.436   7.320  19.619 -0.0247 -0.0308  0.0307
 2588W        W45579  19.890  31.483  20.612  0.1214  0.1732 -0.1386
 2589W        W45580  17.102   0.890   2.488 -0.0054  0.2505  0.0742
 2590W        W45581  14.169  15.021  28.695  0.3643  0.2142  0.0781
 2591W        W45582  29.677  10.290   0.080  0.3833 -0.0686 -0.3701
 2592W        W45583  23.148  29.499  25.807  0.0024  0.4205  0.1012
 2593W        W45584  24.561  30.909  28.531  0.2358  0.0380 -0.1107
 2594W        W45585  17.589  18.785  28.123 -0.1689  0.1570 -0.2318
 2595W        W45586  29.992   0.828  28.418  0.0059  0.1019 -0.0939
 2596W        W45587  27.703  32.005  15.994  0.1233 -0.1267  0.1966
 2597W        W45588  28.701  22.322  19.848  0.0989 -0.1077  0.3021
 2598W        W45589   4.938   2.976  21.772 -0.3400 -0.2117  0.0887
 2599W        W45590   4.175   2.068  21.814  0.1444  0.2120  0.0505
 2600W        W45591  13.321   9.251  18.451 -0.1733 -0.1002  0.5130
 2601W        W45592  17.352  11.913  26.831 -0.2142  0.1796 -0.0182
 2602W        W45593  21.340  19.084   2.381  0.0188 -0.2447 -0.0989
 2603W        W45594   4.876   2.223  20.669 -0.1650  0.1506 -0.4100
 2604W        W45595  22.185  14.841  23.249  0.0971 -0.0133  0.0595
 2605W        W45596  17.542  13.446  13.764  0.1647  0.2961 -0.0512
 2606W        W45597   0.398  22.897  25.014  0.1849 -0.1678 -0.2118
 2607W        W45598  16.950  17.833  13.002  0.0219 -0.1434 -0.0373
 2608W        W45599   7.904  17.123   4.371  0.1945 -0.0924  0.1522
 2609W        W45600  22.880  22.007   6.425  0.2551 -0.2020  0.0476
 2610W        W45601  22.507  13.543  24.457  0.1559  0.1567  0.1800
 2611W        W45602  25.347  26.907  25.651 -0.0291  0.0220  0.2234
 2612W        W45603  19.986  31.656  27.422 -0.0115 -0.2574  0.0447
 2613W        W45604  22.905  11.824  17.644  0.0626  0.2418 -0.0415
 2614W        W45605  21.076  21.388  15.764 -0.0401 -0.1996 -0.1037
 2615W        W45606  19.006   0.618  17.663 -0.1181  0.0431  0.0595
 2616W        W45607  22.292  17.063   5.691  0.0707 -0.2562  0.1836
 2617W        W45608  18.243  14.257  12.483  0.1541 -0.2704 -0.0080
 2618W        W45609  30.057  26.396  20.562  0.3011  0.4194 -0.2068
 2619W        W45610  28.791  29.359  23.563 -0.0640  0.0654 -0.2325
 2620W        W45611  31.277   9.601   8.210 -0.1656 -0.1431  0.0932
 2621W        W45612  30.473   5.181   2.216  0.1286  0.0303 -0.1832
 2622W        W45613  29.503   6.306  25.410  0.1175 -0.0919 -0.0654
 2623W        W45614  29.987  32.773  13.036  0.2775  0.4115 -0.0362
 2624W        W45615  29.228  23.327  20.620 -0.0367  0.1755 -0.2041
 2625W        W45616  33.707   1.401  22.519  0.1068 -0.3655  0.1992
 2626W        W45617  21.874  23.715  22.714 -0.3150 -0.2892  0.0780
 2627W        W45618  23.561  30.954  23.108 -0.3132  0.0474 -0.1896
 2628W        W45619  32.013   3.454  23.814  0.3160  0.5781 -0.0722
 2629W        W45620  28.058  19.473   2.959  0.0275  0.1154  0.3220
 2630W        W45621  31.548  21.789  29.183 -0.1464  0.1612 -0.2519
 2631W        W45622  18.615   4.629   9.371 -0.0042  0.0770 -0.2069
 2632W        W45623   8.566   9.140  23.522  0.0174 -0.1541 -0.1532
 2633W        W45624  27.251  10.291  14.125 -0.3636 -0.1384  0.2826
 2634W        W45625  28.345   2.080   3.399  0.1406 -0.4272 -0.1079
 2635W        W45626  29.954  16.788  15.534  0.0805  0.3099 -0.2729
 2636W        W45627  33.625  17.794  22.246  0.3453 -0.1485  0.0332
 2637W        W45628  22.120   3.426  24.285  0.1586 -0.2259 -0.1507
 2638W        W45629   0.109   9.618  10.027  0.2253  0.1075 -0.0894
 2639W        W45630   6.200  17.559  15.653  0.4155 -0.0599  0.1420
 2640W        W45631  17.828   5.803  19.083 -0.2737 -0.2891  0.0643
 2641W        W45632  15.051  12.009   3.188 -0.4461 -0.3852  0.4002
 2642W        W45633  29.816   3.274   8.707 -0.0138 -0.2704 -0.0115
 2643W        W45634  20.428  12.921  14.766  0.1060  0.5680 -0.0428
 2644W        W45635  21.388   9.067  15.535 -0.0663 -0.1803 -0.0780
 2645W        W45636  24.289   6.219  17.100 -0.1229  0.1915 -0.1087
 2646W        W45637  26.999   0.000  16.656 -0.1056  0.0656  0.1014
 2647W        W45638  24.311  13.004  27.858  0.0015  0.0208  0.1860
 2648W        W45639  22.622   1.475  18.123  0.1455 -0.0703  0.0737
 2649W        W45640  10.552  34.293  15.441 -0.1190 -0.1344  0.1452
 2650W        W45641  17.860   9.039  16.466 -0.1522 -0.1925  0.2497
 2651W        W45642  33.011  34.258  21.717  0.1342  0.0837 -0.3608
 2652W        W45643  28.902  34.252   2.271 -0.0175 -0.0744  0.2093
 2653W        W45644  27.076   4.545  20.059 -0.2140  0.1110  0.2408
 2654W        W45645  24.033  21.387  20.666 -0.1994  0.0903  0.1081
 2655W        W45646  27.120   7.639  24.493 -0.0679  0.0062 -0.1164
 2656W        W45647  17.600  16.259   7.880 -0.0203 -0.1209 -0.0668
 2657W        W45648  29.138  14.661   6.844 -0.3208  0.1499  0.1043
 2658W        W45649   5.698   3.947  25.504 -0.2221 -0.1744 -0.0290
 2659W        W45650  23.021   2.773  22.008 -0.0744  0.0488 -0.1172
 2660W        W45651   7.389   7.248  16.203 -0.0373  0.0629  0.1955
 2661W        W45652  28.737  10.098  15.890 -0.1177  0.2043  0.0985
 2662W        W45653  18.637   5.782  21.213  0.1601  0.4162  0.0290
 2663W        W45654   6.121   0.427  25.875  0.0175  0.0365  0.3819
 2664W        W45655  28.671  21.507  24.396 -0.0306 -0.0847 -0.1217
 2665W        W45656  22.491   9.881  25.232 -0.2936 -0.2738 -0.1163
 2666W        W45657  27.986  14.771   9.462 -0.0302 -0.2005 -0.0830
 2667W        W45658   2.152  29.419  20.395  0.4551  0.1379  0.2482
 2668W        W45659   2.995   5.209  26.982  0.3320  0.2080 -0.1605
 2669W        W45660   1.079  18.817  25.390  0.0633  0.0340  0.0834
 2670W        W45661  15.403  11.334   9.119 -0.0699 -0.2660  0.0262
 2671W        W45662  20.921   1.723   4.339  0.0784  0.1303 -0.1870
 2672W        W45663   1.016  20.637  28.921 -0.0526  0.0704  0.0312
 2673W        W45664  28.937   5.721  24.676  0.2672  0.1784 -0.0337
 2674W        W45665  26.566  12.636  19.897  0.0503  0.2908  0.2512
 2675W        W45666  25.229  16.030  17.372 -0.3260  0.1160 -0.1009
 2676W        W45667  19.400  12.461  13.516  0.1863  0.1878  0.0400
 2677W        W45668  29.731  14.132   9.410 -0.0490 -0.2039  0.0430
 2678W        W45669  16.984   9.553  25.157  0.0658 -0.1704  0.2556
 2679W        W45670  29.330  27.628  21.049 -0.1446 -0.1019  0.2409
 2680W        W45671  19.366   0.864   2.387 -0.0544 -0.1132  0.0123
 2681W        W45672   7.031   9.692   0.178  0.0475  0.2918 -0.2784
 2682W        W45673  20.899  12.743  26.309 -0.1949 -0.2822 -0.1673
 2683W        W45674  22.413   3.421  21.786 -0.0006 -0.2603  0.0966
 2684W        W45675  17.154   5.954  22.819 -0.3316  0.0053 -0.1566
 2685W        W45676   4.812   3.399   7.683  0.0314 -0.1460  0.0597
 2686W        W45677  18.630  33.116  25.365  0.2239  0.1113  0.0249
 2687W        W45678  21.942   5.345  25.647 -0.4239 -0.1306  0.0721
 2688W        W45679  27.177  30.864   8.450 -0.1631 -0.1727  0.0631
 2689W        W45680  20.679  16.144  26.012  0.1515 -0.2388 -0.1619
 2690W        W45681  29.615   5.863  19.991  0.0906 -0.0235 -0.0068
 2691W        W45682  29.430   8.903  13.930 -0.1494  0.0653  0.1992
 2692W        W45683  25.756  11.701   9.578  0.1012  0.0248 -0.0348
 2693W        W45684  27.117   8.849  24.081  0.0755  0.2728 -0.0694
 2694W        W45685  21.693  32.256  24.305  0.1676  0.1213 -0.0742
 2695W        W45686  23.303  11.630  25.010  0.2525 -0.1302  0.0768
 2696W        W45687  10.135  33.413   6.607  0.0815  0.2607  0.0542
 2697W        W45688  12.867   1.408  24.081  0.4860 -0.0811 -0.1675
 2698W        W45689  27.046  33.101   3.931  0.0955 -0.2419 -0.1477
 2699W        W45690  20.147   4.346   1.262  0.0759 -0.1748 -0.1154
 2700W        W45691   3.614  13.191  19.019  0.1629 -0.0651  0.1826
 2701W        W45692  28.565  27.342  18.150  0.2744 -0.0328  0.4753
 2702W        W45693  23.095  28.442  25.874  0.2254  0.0584 -0.3176
 2703W        W45694  15.622  26.450  17.983  0.2316  0.3178 -0.0610
 2704W        W45695  28.989  10.471  17.074  0.0667 -0.0718  0.0158
 2705W        W45696  13.957  21.600  28.090 -0.0687 -0.0152  0.2785
 2706W        W45697  22.834   5.998  18.879  0.0868  0.0770 -0.1323
 2707W        W45698  18.960  11.403   9.444  0.2142  0.3766 -0.2744
 2708W        W45699   3.026   8.254   6.771 -0.0039  0.1738 -0.2652
 2709W        W45700  27.036  15.368  16.158  0.2388  0.1316 -0.3515
 2710W        W45701  13.903  19.881  12.453  0.2030 -0.2060  0.1221
 2711W        W45702  28.018  11.794   5.975  0.0002  0.0359 -0.1520
 2712W        W45703   3.615   0.830  10.748 -0.1034 -0.2929  0.0888
 2713W        W45704  18.960  11.447  17.057 -0.1690 -0.1393  0.0895
 2714W        W45705  17.327  32.519   0.225 -0.0694 -0.0451  0.4114
 2715W        W45706  24.966  17.981  16.559 -0.2888 -0.1329  0.2626
 2716W        W45707  21.450   9.466  22.405 -0.0540 -0.0745 -0.2650
 2717W        W45708  23.585  14.064  15.111 -0.0113 -0.0237 -0.3523
 2718W        W45709  23.207  29.115  23.111 -0.3086 -0.1215  0.1642
 2719W        W45710  13.414  33.572  22.687  0.1389  0.0486 -0.1450
 2720W        W45711  22.750   8.180  19.935 -0.1661  0.2123  0.0284
 2721W        W45712  14.087  32.080   1.734 -0.1086  0.1864  0.0744
 2722W        W45713  15.356   4.334   4.163  0.0835  0.2433 -0.1830
 2723W        W45714  27.117  11.730   1.278  0.2294  0.1085 -0.0236
 2724W        W45715  15.112   4.017  16.003  0.1532 -0.2063 -0.0421
 2725W        W45716  27.473  12.302  16.440 -0.2399  0.1919  0.1177
 2726W        W45717  21.319  17.129  19.849 -0.1572 -0.3661  0.0289
 2727W        W45718  16.247  34.029  17.370 -0.3162 -0.1649 -0.1142
 2728W        W45719  12.789  20.104  25.296  0.0438  0.1117 -0.0683
 2729W        W45720   2.457   1.790  15.368 -0.3408  0.3572 -0.0995
 2730W        W45721   8.164  16.228  15.198  0.1876 -0.0501 -0.0217
 2731W        W45722  18.985   8.911   9.289  0.1233 -0.2277  0.2491
 2732W        W45723  13.408  34.361  23.571  0.1449 -0.1299 -0.1296
 2733W        W45724  26.558  11.310  18.936  0.2632  0.0087 -0.0237
 2734W        W45725   9.566  19.699   4.648 -0.2448  0.1571  0.3560
 2735W        W45726  22.400   2.245  28.408 -0.0211  0.0354 -0.0934
 2736W        W45727  30.080   3.321   1.502  0.1040  0.0085 -0.2828
 2737W        W45728  15.535  11.554   1.133  0.3855  0.0671 -0.1147
 2738W        W45729  24.147  34.589   5.326  0.0577  0.1897  0.0405
 2739W        W45730  25.481  10.757  10.525  0.1492  0.3652  0.0488
 2740W        W45731  28.513  16.025   2.577  0.2810  0.2641  0.1327
 2741W        W45732  28.847   3.823  28.243  0.1741 -0.2072 -0.2479
 2742W        W45733  12.668   3.796  19.645  0.1931  0.0221  0.1589
 2743W        W45734   1.053  31.179   2.730 -0.0442  0.1787 -0.0481
 2744W        W45735   4.283   5.991   7.612 -0.1191 -0.2286  0.1374
 2745W        W45736  24.498   3.359  18.596  0.0347 -0.2718  0.5468
 2746W        W45737  20.865  10.494   2.954  0.0981  0.0552 -0.1941
 2747W        W45738   4.391  17.859  15.417 -0.0646 -0.4433  0.0613
 2748W        W45739  31.833  31.988  15.386  0.0865 -0.0853 -0.1691
 2749W        W45740  23.380   5.831  18.193  0.0116 -0.0245  0.1493
 2750W        W45741  28.058  19.745   1.194 -0.1066 -0.1786 -0.2110
 2751W        W45742  16.815  11.571  25.720  0.1890 -0.1203  0.0533
 2752W        W45743   6.237   4.523   2.242  0.1522  0.0550 -0.3683
 2753W        W45744  17.794  26.024  22.407 -0.1740 -0.1212  0.0760
 2754W        W45745  28.660  29.138  17.374 -0.0332  0.2312  0.2859
 2755W        W45746   6.098   5.368  26.270  0.0027  0.1105 -0.0456
 2756W        W45747  24.117   7.811   8.435  0.1066 -0.1996  0.4164
 2757W        W45748   9.388  11.894  18.842  0.1168 -0.3631  0.1901
 2758W        W45749  31.120  22.011   1.950  0.2077  0.1299  0.0715
 2759W        W45750   0.102  12.884  22.064 -0.2288 -0.0932 -0.0273
 2760W        W45751  26.686  13.450  27.560  0.3209  0.1424 -0.3413
 2761W        W45752  18.652  33.645  17.604 -0.4923  0.1573  0.1174
 2762W        W45753   1.042  12.413   7.273  0.3200  0.0583 -0.1302
 2763W        W45754  22.512  31.157  21.621  0.0464 -0.1863  0.0374
 2764W        W45755  28.719   8.165  16.780  0.2028  0.4316  0.1335
 2765W        W45756  32.409  23.899  26.905 -0.1842 -0.1454 -0.4453
 2766W        W45757  16.840   9.951  23.741  0.1492 -0.0130  0.5568
 2767W        W45758  20.596   6.742  16.817  0.0981  0.1412 -0.4815
 2768W        W45759  34.383  10.180  27.981 -0.0395  0.2600 -0.0811
 2769W        W45760  23.436  31.722   0.205 -0.0567 -0.1301 -0.3003
 2770W        W45761   1.812   9.448  16.076  0.0587  0.1738 -0.0206
 2771W        W45762  27.077  32.855   7.182 -0.0630 -0.2452  0.0661
 2772W        W45763  21.710  24.702   6.425  0.1909  0.2232  0.1331
 2773W        W45764  32.856  11.402  25.545 -0.0438 -0.3289  0.0895
 2774W        W45765  25.742   3.637  22.864 -0.1239  0.2267 -0.0221
 2775W        W45766  21.228   6.517   2.719  0.0536 -0.2564  0.0907
 2776W        W45767  16.626  31.221  25.854 -0.2195  0.1657  0.0933
 2777W        W45768  20.752  30.355  15.513  0.0149  0.1160 -0.0392
 2778W        W45769  23.835  15.101  21.012  0.1179  0.0081  0.0245
 2779W        W45770  25.618   8.691  21.994  0.1638  0.1354 -0.0598
 2780W        W45771   7.916  14.894  17.107  0.2343 -0.2547 -0.4815
 2781W        W45772   0.129  31.955  14.064  0.0212  0.1732  0.0624
 2782W        W45773  33.906   4.467  24.250 -0.3003 -0.2900 -0.2411
 2783W        W45774   2.580  26.336   2.233 -0.2631 -0.0874 -0.1532
 2784W        W45775  13.111  10.215  23.935  0.0027  0.0660 -0.2650
 2785W        W45776   0.654  14.508  21.577  0.0418 -0.1559 -0.0337
 2786W        W45777  21.603   7.613  13.482  0.3016  0.1959  0.3140
 2787W        W45778  28.151  12.098  24.997  0.1176 -0.0016 -0.1658
 2788W        W45779   2.544  10.562  23.135 -0.2557  0.0888 -0.1346
 2789W        W45780  29.878  25.996  14.345  0.0352 -0.0405 -0.0414
 2790W        W45781  28.057   6.237   6.804  0.2853  0.2280  0.1835
 2791W        W45782  25.676   0.218  17.410 -0.2728  0.2015  0.2794
 2792W        W45783  13.252  16.846   8.193  0.2455 -0.1161  0.2907
 2793W        W45784  26.591  31.806  12.610 -0.1323 -0.2239  0.1776
 2794W        W45785  21.613  23.972  25.560  0.1220 -0.3141 -0.0994
 2795W        W45786  16.315   8.348  22.117  0.1513 -0.0854 -0.1617
 2796W        W45787  15.040   1.049  19.414 -0.0724  0.0804  0.1042
 2797W        W45788  20.296  21.280  13.928 -0.0051  0.2270  0.0345
 2798W        W45789  26.961  32.419   4.739 -0.1207 -0.0392  0.1566
 2799W        W45790  14.341  12.855  24.699  0.2754  0.0577 -0.0163
 2800W        W45791  12.725  23.566  14.941 -0.3915  0.1916  0.1042
 2801W        W45792  20.256  33.464   6.488 -0.0090  0.3516 -0.1230
 2802W        W45793  24.730  12.430   7.387 -0.1656 -0.2724 -0.2966
 2803W        W45794   2.419   6.729  25.994 -0.2567  0.0477  0.0752
 2804W        W45795  18.568  23.287  15.582 -0.2164 -0.0714 -0.2063
 2805W        W45796  22.450   4.247  18.987 -0.2165 -0.1174  0.2570
 2806W        W45797  33.824  17.232  28.216  0.1303  0.3949 -0.1043
 2807W        W45798  24.020   6.047  28.976  0.2210  0.1520  0.2429
 2808W        W45799  21.149  12.587   6.079  0.0951 -0.0137 -0.0158
 2809W        W45800  13.321  24.396  22.636 -0.0638  0.2003 -0.1767
 2810W        W45801   6.188  13.610   2.545  0.1001  0.1422 -0.2520
 2811W        W45802  15.822   4.524  26.676 -0.0094  0.4439  0.0510
 2812W        W45803  11.925  22.618   4.007  0.2408  0.1911  0.1022
 2813W        W45804   7.951   5.494  16.384 -0.1114 -0.2214 -0.0993
 2814W        W45805  24.512  10.977  13.686 -0.0681 -0.0595 -0.3563
 2815W        W45806  34.401   4.273  20.221 -0.1129 -0.0895  0.1291
 2816W        W45807  17.847   8.279  14.922 -0.0313  0.0362 -0.4522
 2817W        W45808  25.553  23.661  19.367  0.1934 -0.0732  0.1307
 2818W        W45809  26.516  17.813  20.270  0.4567 -0.3749 -0.3035
 2819W        W45810  20.299   5.515  23.541  0.0701  0.1466  0.0260
 2820W        W45811  27.329  17.978  23.352 -0.0179 -0.0757 -0.2743
 2821W        W45812  30.845   4.970   8.712  0.2449 -0.0787  0.4398
 2822W        W45813  21.532  31.009  23.360  0.0150  0.0243 -0.1091
 2823W        W45814  23.009  11.214  27.903 -0.1838  0.2635  0.1480
 2824W        W45815  33.469  11.447  16.163 -0.0713 -0.0944  0.1444
 2825W        W45816  21.273  18.744  20.497 -0.2068 -0.1778 -0.4342
 2826W        W45817  30.575   8.713  17.998  0.2343 -0.0295  0.0813
 2827W        W45818   9.315  11.007  23.755  0.1156 -0.1652 -0.4156
 2828W        W45819  29.928   2.520  14.941 -0.0987  0.0853 -0.1058
 2829W        W45820  19.675  16.350  25.477  0.0732 -0.1395  0.0471
 2830W        W45821  24.915  28.092  28.850 -0.2734  0.1040 -0.2067
 2831W        W45822  21.378  19.440  12.753 -0.1877 -0.2315  0.4022
 2832W        W45823  14.012   1.620  23.464  0.1383 -0.0711 -0.3279
 2833W        W45824  26.039  32.044  27.450  0.1705 -0.4657  0.0092
 2834W        W45825  22.596  30.594  23.068 -0.3992 -0.0024 -0.0204
 2835W        W45826   9.336  27.446  14.847  0.0072 -0.2660  0.1444
 2836W        W45827  23.913   8.427   6.867  0.0331 -0.2500  0.1243
 2837W        W45828  20.798  17.724  29.079 -0.0041  0.5950 -0.0819
 2838W        W45829   0.415  10.366  21.246 -0.1297  0.0306  0.2534
 2839W        W45830  26.759  28.202  21.603  0.0190  0.0723  0.0750
 2840W        W45831  19.151   5.473  27.645 -0.1836 -0.4265  0.2673
 2841W        W45832  23.463  14.959  16.684  0.0530 -0.0574 -0.0706
 2842W        W45833   5.683  29.824  26.272  0.2948 -0.0857 -0.2574
 2843W        W45834  28.070   4.063  22.577  0.0321  0.2188  0.0282
 2844W        W45835  15.900   1.319   3.365  0.4089  0.0036  0.2322
 2845W        W45836  17.386  15.507   5.494 -0.0968 -0.3034  0.0995
 2846W        W45837   3.139  26.900  16.941 -0.2234  0.4987 -0.0918
 2847W        W45838   7.450   4.528  19.213  0.0884  0.3119  0.3452
 2848W        W45839  10.139   8.170   4.291  0.0108  0.1803  0.1281
 2849W        W45840  27.642  14.582  26.764 -0.1266 -0.0913 -0.1684
 2850W        W45841  17.507  18.511  13.028  0.0021 -0.2433 -0.1340
 2851W        W45842   0.117   4.107  22.553 -0.0154  0.0003  0.1967
 2852W        W45843  29.619   8.360  16.237  0.1786 -0.1564 -0.1449
 2853W        W45844  32.477  10.384  17.177 -0.1778  0.0596  0.0350
 2854W        W45845  15.676  11.010   5.925  0.2092  0.1422 -0.1561
 2855W        W45846  17.861   9.772  19.025  0.0130 -0.0753 -0.3223
 2856W        W45847  16.403  22.785  23.867 -0.0219  0.0645  0.1806
 2857W        W45848  14.889  21.524  17.588 -0.1248  0.0991  0.0057
 2858W        W45849  14.420   2.666   6.399  0.0683  0.0827  0.0702
 2859W        W45850  28.803  24.468   1.150 -0.1047  0.2692  0.2100
 2860W        W45851   6.281   0.451  17.885  0.0524 -0.0068 -0.1355
 2861W        W45852  24.408   2.443  16.466 -0.0285 -0.0116 -0.1411
 2862W        W45853  34.482   8.486   8.403  0.0307 -0.0718  0.0259
 2863W        W45854  26.131   0.589  28.601 -0.0793  0.4522  0.0556
 2864W        W45855  24.123  33.690  16.734  0.0885  0.2336 -0.1742
 2865W        W45856  31.998  14.976  19.427 -0.4322 -0.0154  0.1258
 2866W        W45857  30.644  12.082   9.693  0.0241  0.0863 -0.0462
 2867W        W45858   7.789  16.160  16.073 -0.0888 -0.1151  0.3066
 2868W        W45859  25.432  10.732  18.753  0.0962 -0.0332  0.0863
 2869W        W45860  16.747  13.267  15.821  0.0710 -0.1700  0.1220
 2870W        W45861  21.721   0.191  26.486  0.1744 -0.1087  0.0352
 2871W        W45862  22.627   2.246  25.988 -0.1398 -0.0380  0.3755
 2872W        W45863  21.375   9.616  21.972  0.1508 -0.1329  0.3124
 2873W        W45864  19.354  24.046  18.987  0.1475 -0.1127 -0.0063
 2874W        W45865  21.283  33.016   2.273 -0.2073  0.0518  0.0480
 2875W        W45866  27.135   3.838   1.734  0.1178  0.1556 -0.5235
 2876W        W45867  22.555   2.896  14.818  0.0119 -0.2269  0.0271
 2877W        W45868  19.528  14.662  20.564 -0.0143  0.1682  0.0960
 2878W        W45869  31.555  19.342  25.183  0.1319  0.2441  0.1195
 2879W        W45870  18.840  10.786  17.179 -0.2077  0.0270  0.0083
 2880W        W45871   7.872  29.575  20.074  0.3079 -0.5833  0.1314
 2881W        W45872  28.496  18.905  17.255  0.0788  0.1114  0.0834
 2882W        W45873  29.259  33.958  18.435  0.1887  0.3278 -0.1181
 2883W        W45874  18.416  33.664   0.069  0.0748 -0.1099  0.1570
 2884W        W45875  21.657  12.769   1.628  0.5814  0.0559 -0.0486
 2885W        W45876  19.462   9.987  22.378  0.0100 -0.0607  0.1257
 2886W        W45877  21.549  10.860  23.446 -0.1776 -0.3041 -0.0081
 2887W        W45878  26.213  33.387  23.256 -0.2583  0.2708  0.0964
 2888W        W45879  20.799   3.386  26.908  0.1647 -0.1584  0.0582
 2889W        W45880  20.326  22.955  18.587 -0.3658  0.1453  0.1076
 2890W        W45881   5.298   0.477  16.714  0.3091  0.2638 -0.2074
 2891W        W45882  33.040  10.299  15.653 -0.2410  0.1046 -0.1667
 2892W        W45883  32.285  10.664  11.123  0.0089  0.0132 -0.1025
 2893W        W45884  31.005  34.259  18.360  0.0445  0.0105 -0.1997
 2894W        W45885  31.351   9.252  18.515 -0.2448  0.1050  0.1439
 2895W        W45886  13.839  29.858   7.285 -0.0898 -0.0372 -0.0403
 2896W        W45887  13.772  25.310  19.678  0.0317 -0.0726 -0.0944
 2897W        W45888  18.000  13.530  13.490  0.1072  0.0380  0.3452
 2898W        W45889  13.167  12.574   2.074 -0.3915 -0.1145  0.2147
 2899W        W45890  27.303  23.278  26.073 -0.2043  0.2494  0.1285
 2900W        W45891   2.219  12.071  23.624 -0.0165 -0.0274 -0.1033
 2901W        W45892  26.953  28.331   0.703  0.0593 -0.4138 -0.2516
 2902W        W45893  19.836  34.178   0.886  0.0121  0.0262  0.3028
 2903W        W45894  33.145  32.029  22.470 -0.1119  0.1865  0.0746
 2904W        W45895   0.441  11.317  17.809 -0.2662 -0.0371 -0.1416
 2905W        W45896  13.170  33.886  16.076  0.2438  0.2143  0.0905
 2906W        W45897  25.702   3.306  15.649 -0.1110  0.2780  0.0797
 2907W        W45898  16.307   4.697  28.171 -0.0385  0.4544 -0.0779
 2908W        W45899  20.032  18.640  15.267  0.2593  0.2107  0.1295
 2909W        W45900  21.514  12.872  18.935 -0.0348 -0.2822  0.3241
 2910W        W45901  21.245  13.869   4.920 -0.1034 -0.0312 -0.1092
 2911W        W45902  26.092  32.102   7.717  0.0673  0.1892  0.1721
 2912W        W45903  11.287   5.203  22.206 -0.0193  0.2100 -0.0829
 2913W        W45904  10.795  17.097   8.677  0.2748  0.2590 -0.2128
 2914W        W45905  13.091   8.828  25.838 -0.1362  0.0501 -0.0480
 2915W        W45906  28.438  21.997  15.182 -0.0977 -0.1122 -0.2273
 2916W        W45907  14.986   7.385  28.634  0.0504 -0.2748 -0.0838
 2917W        W45908  20.968  30.180  13.549  0.0959 -0.0519  0.1888
 2918W        W45909  30.857  30.509  24.528 -0.2081 -0.1030  0.0972
 2919W        W45910  30.973  31.689  15.376  0.1026  0.0500 -0.0425
 2920W        W45911  24.435   0.694  19.062  0.2348 -0.1027 -0.1188
 2921W        W45912  26.986  29.022  17.659  0.0204 -0.0595  0.4179
 2922W        W45913  22.400   9.979  26.482 -0.0314  0.0298  0.0345
 2923W        W45914   5.991  13.343  22.466 -0.2371  0.3000  0.2284
 2924W        W45915  27.374  17.908  21.141  0.1085 -0.2830  0.1872
 2925W        W45916  20.474  34.387  20.358  0.3780 -0.2590  0.1226
 2926W        W45917   7.714   2.134  26.905 -0.0004  0.1129 -0.0251
 2927W        W45918  15.636  31.170  20.541  0.4254  0.3143  0.0994
 2928W        W45919  25.886   1.892   2.534  0.2686 -0.1305  0.2885
 2929W        W45920  21.252   1.741   7.713  0.0756 -0.0449 -0.2245
 2930W        W45921  16.081   3.720  18.948  0.0254 -0.1135 -0.2297
 2931W        W45922  13.698  11.162  17.183  0.1856 -0.1706  0.4059
 2932W        W45923   3.336   9.339   3.431 -0.0750 -0.0707  0.4432
 2933W        W45924  23.504  11.606  22.079  0.1685  0.1704 -0.2410
 2934W        W45925  18.164   4.281  19.699 -0.1689 -0.0320  0.0054
 2935W        W45926   3.222   5.390  20.047  0.0947 -0.0132 -0.0360
 2936W        W45927  26.048  19.719  26.692  0.5748  0.2196  0.2529
 2937W        W45928  21.546  29.059  17.826  0.2602 -0.1131 -0.3439
 2938W        W45929  29.252  23.933   2.220 -0.0983 -0.1731 -0.4428
 2939W        W45930  28.489   9.389  23.521  0.1304  0.2353 -0.0178
 2940W        W45931  10.070  29.377  27.554  0.0832 -0.0318 -0.0678
 2941W        W45932  25.267  11.569  16.541  0.0158 -0.2872  0.0195
 2942W        W45933  29.628   5.248   5.243  0.1477  0.3939  0.4746
 2943W        W45934  27.146  17.798  15.775 -0.0607 -0.1167  0.0896
 2944W        W45935  32.094   4.669  16.489 -0.2079  0.1764  0.1590
 2945W        W45936  11.576  33.216  26.350 -0.1841  0.2125  0.2177
 2946W        W45937  23.009   6.298  22.398  0.0538 -0.0144 -0.0631
 2947W        W45938  22.972  27.480  27.458 -0.1246  0.2008  0.0255
 2948W        W45939  14.454  34.606   6.324 -0.1794 -0.0122 -0.0739
 2949W        W45940  15.880  31.648  26.775  0.1416  0.2728  0.1250
 2950W        W45941  22.996  14.533  27.410 -0.1605 -0.1949  0.1027
 2951W        W45942  16.880   6.001  21.159 -0.2019 -0.1706 -0.4705
 2952W        W45943   0.564  24.783   3.361  0.0071  0.2013  0.2381
 2953W        W45944  31.114   6.937   6.164 -0.5527  0.0549 -0.0156
 2954W        W45945  14.158   3.251  21.412 -0.0876 -0.2475  0.0071
 2955W        W45946  32.655  32.579  14.163 -0.1998  0.2914 -0.1397
 2956W        W45947  34.131  19.402  18.412 -0.1617 -0.1620 -0.0616
 2957W        W45948   7.535  11.503   0.786 -0.0118 -0.0703 -0.2755
 2958W        W45949  20.580  28.677   6.978 -0.2499  0.1813 -0.1952
 2959W        W45950  28.269  19.148  19.381  0.4701  0.1178 -0.0464
 2960W        W45951  27.719  15.135  16.805 -0.0371 -0.1486 -0.0191
 2961W        W45952  28.484   0.373  28.203 -0.1469  0.0098 -0.2044
 2962W        W45953  26.910  29.887  20.512  0.0825 -0.1741  0.1117
 2963W        W45954  16.830  23.522   8.657  0.2356  0.1131 -0.3621
 2964W        W45955  30.645   2.942  16.439 -0.4918  0.1231 -0.0901
 2965W        W45956  12.424  22.239  29.149  0.3015  0.0458  0.0474
 2966W        W45957  20.460  18.605  13.584 -0.0115 -0.2915  0.1274
 2967W        W45958  22.078  20.850   1.331 -0.2072  0.0657  0.1012
 2968W        W45959  31.466  31.334  27.784 -0.3276  0.0940  0.1743
 2969W        W45960  20.165  15.373  28.731 -0.3487  0.2916  0.1889
 2970W        W45961  27.362  13.180   7.031  0.3098 -0.0046 -0.3070
 2971W        W45962  14.529  18.723   8.185 -0.0056 -0.0997 -0.1475
 2972W        W45963  30.469  31.176  23.556 -0.2305 -0.0797  0.3728
 2973W        W45964  22.209  33.738  14.793 -0.0124 -0.2634 -0.3815
 2974W        W45965  18.510  13.846  27.891  0.3283  0.2578 -0.0859
 2975W        W45966  14.660  19.726   9.062  0.1919  0.0702  0.3224
 2976W        W45967  21.688   6.978   5.058  0.3023  0.0731  0.0919
 2977W        W45968   6.207  10.684  28.244  0.0125 -0.1360  0.1701
 2978W        W45969   7.038   5.030   2.177 -0.2812  0.2950 -0.1306
 2979W        W45970  20.420  11.575  14.270 -0.1523  0.1521  0.0285
 2980W        W45971  32.050  34.224   6.226 -0.2975 -0.1659 -0.0058
 2981W        W45972  10.154   5.830  24.209  0.0348  0.2903 -0.2616
 2982W        W45973  26.053   3.468  21.728 -0.1397  0.0469  0.3974
 2983W        W45974   9.083   3.183   4.801 -0.0965 -0.1023  0.0995
 2984W        W45975  31.355   8.084   7.926 -0.0736  0.2163  0.0087
 2985W        W45976  21.248  10.405   8.933  0.1159 -0.4670 -0.1410
 2986W        W45977  22.862  11.572  23.432 -0.2545 -0.1785  0.1160
 2987W        W45978  23.307   2.213  26.506  0.1406 -0.1471 -0.0114
 2988W        W45979  27.442  14.441   7.806 -0.2576  0.1162 -0.1134
 2989W        W45980  27.630   7.079   1.136 -0.1091 -0.0430  0.0232
 2990W        W45981  22.670  15.007   3.963  0.0989 -0.2365 -0.2619
 2991W        W45982   0.161  22.680  19.652  0.0107 -0.4827  0.2413
 2992W        W45983  32.647   3.958  23.583 -0.1787  0.2659 -0.1342
 2993W        W45984  19.857   5.741  14.494 -0.3578  0.2078 -0.2248
 2994W        W45985  18.314  22.125  22.038 -0.2662 -0.1945 -0.2526
 2995W        W45986   3.853  31.974  14.661 -0.2181  0.3263 -0.0514
 2996W        W45987  25.754  20.279  19.522 -0.0036  0.0812  0.3584
 2997W        W45988   5.974   7.203   0.543  0.0827 -0.2278 -0.2929
 2998W        W45989  27.402  13.788  28.924 -0.2171  0.1112 -0.0300
 2999W        W45990  23.731  10.360  18.781  0.0279 -0.3762  0.2069
 3000W        W45991  17.028  24.173  21.991  0.0821 -0.2173 -0.0937
 3001W        W45992  25.390   3.149  15.086  0.1643  0.2619 -0.0851
 3002W        W45993  24.393  33.985  23.540 -0.2641 -0.0096 -0.3011
 3003W        W45994  31.585   0.631   5.312 -0.0355  0.4238 -0.2439
 3004W        W45995  24.642  15.402  26.789  0.0675 -0.3483 -0.2803
 3005W        W45996  23.488  12.448  27.251  0.0342  0.1749  0.1747
 3006W        W45997  27.873  25.918   3.892  0.1790 -0.4051 -0.1934
 3007W        W45998  31.702  16.916  25.738 -0.0188  0.2257  0.3546
 3008W        W45999  28.967  15.462  23.373 -0.1655 -0.0389  0.0635
 3009W        W46000  22.385  16.478  13.506  0.1461  0.3625 -0.0706
 3010W        W46001  14.695  28.134   0.859  0.0888  0.0389 -0.0300
 3011W        W46002  12.911  11.109  23.078  0.1166 -0.2579  0.0218
 3012W        W46003  18.807   5.469  21.960 -0.1822  0.0484 -0.0642
 3013W        W46004   4.111   7.101  16.835 -0.0528  0.1347  0.5483
 3014W        W46005   0.729   7.939   3.167  0.2963 -0.3083  0.3129
 3015W        W46006  24.550   0.016  18.310  0.0302  0.0219 -0.1352
 3016W        W46007  29.351   7.317  15.185  0.1416 -0.0347  0.2771
 3017W        W46008  14.321  14.058   0.420 -0.1356 -0.2601 -0.2396
 3018W        W46009  29.398  12.923   8.688 -0.0300 -0.2463  0.0052
 3019W        W46010  31.781   5.106  29.015 -0.0490  0.0556 -0.2727
 3020W        W46011  21.836   8.232   7.301 -0.0647  0.3127  0.3652
 3021W        W46012  15.751   4.254  15.560  0.0532 -0.0364  0.0600
 3022W        W46013  13.967  24.417   6.670 -0.2235  0.2519  0.1025
 3023W        W46014  33.932  21.645  10.238 -0.1473  0.0596 -0.0795
 3024W        W46015  33.051  22.725   1.828 -0.1629  0.1591  0.0556
 3025W        W46016  28.234  11.702   7.005 -0.1511 -0.0022 -0.1854
 3026W        W46017  20.169   8.618  18.187  0.2970  0.3560 -0.0236
 3027W        W46018  22.335  10.333  19.877  0.2756  0.0777 -0.0282
 3028W        W46019  28.934  22.309   5.769  0.2029 -0.2869  0.2440
 3029W        W46020  21.919   0.041   0.835  0.0044 -0.1537 -0.2264
 3030W        W46021  26.681  18.895  22.535 -0.0799 -0.4071 -0.0391
 3031W        W46022  11.467  14.086   0.200 -0.0002 -0.2731 -0.0356
 3032W        W46023  25.187   0.665  24.205 -0.3310 -0.0429 -0.2672
 3033W        W46024  14.865   8.223   1.255 -0.1228 -0.1375  0.0896
 3034W        W46025  20.295   6.013  28.753 -0.5669 -0.1750  0.1378
 3035W        W46026  18.514  17.866   1.027  0.1782 -0.0270  0.1393
 3036W        W46027   0.319   5.836   4.051  0.0549  0.1557 -0.1717
 3037W        W46028  23.183  15.069   4.122 -0.3234  0.1144  0.3705
 3038W        W46029  31.195   5.578  26.705  0.2120 -0.1701 -0.0495
 3039W        W46030  17.437   6.427  25.007  0.0343  0.0841  0.2031
 3040W        W46031  13.465   4.276  16.077  0.2550 -0.0854 -0.1697
 3041W        W46032  26.970  15.606   3.734 -0.1611 -0.1195 -0.0920
 3042W        W46033  19.705  31.039  22.437  0.0062  0.0349 -0.1915
 3043W        W46034  29.329  14.160  16.746 -0.2974  0.0127 -0.3042
 3044W        W46035  24.678   7.504  26.160  0.2827  0.2031 -0.2042
 3045W        W46036   0.543  18.277  19.910  0.3533 -0.2461  0.0530
 3046W        W46037  21.539  15.090  21.396 -0.0899  0.1621 -0.1325
 3047W        W46038  28.869  12.941  18.063  0.1672 -0.0161 -0.1142
 3048W        W46039  14.911  13.940  25.574  0.1389 -0.1341  0.1957
 3049W        W46040  29.391  34.801  22.836 -0.2548  0.1898 -0.0198
 3050W        W46041  23.098   1.011  27.715  0.1097 -0.0636 -0.3482
 3051W        W46042  25.063   4.691   8.667  0.1571 -0.1368 -0.2714
 3052W        W46043  21.108   7.955  15.078  0.1767  0.1572 -0.0031
 3053W        W46044  33.595   5.563   7.634  0.0055  0.1492 -0.1275
 3054W        W46045  20.433   1.591  19.569 -0.1719  0.0702 -0.1815
 3055W        W46046  28.235   2.344  29.159  0.1055  0.1051  0.0285
 3056W        W46047  28.557   7.873   3.896 -0.0343 -0.2182  0.1142
 3057W        W46048  31.782  26.809  20.608  0.1013 -0.1168  0.0968
 3058W        W46049  23.793  31.756  17.279 -0.2890 -0.5127  0.1285
 3059W        W46050  13.977  10.370  21.292  0.0604 -0.1050 -0.1797
 3060W        W46051  20.559   4.856  20.671 -0.0980 -0.2409  0.0427
 3061W        W46052  25.987  21.394   2.958  0.1718 -0.2477  0.0581
 3062W        W46053  18.059  11.191   4.080 -0.1816 -0.2109 -0.0640
 3063W        W46054  21.784  13.770  19.795  0.0193 -0.1333 -0.0186
 3064W        W46055  28.494   7.938  22.023  0.2570 -0.1649 -0.0355
 3065W        W46056  17.348  26.613   3.098  0.1973 -0.2663 -0.0306
 3066W        W46057  19.941  16.843   7.168 -0.0849 -0.2668 -0.1104
 3067W        W46058   3.987  30.930  21.688 -0.5394  0.1545 -0.1458
 3068W        W46059  22.944  24.858   2.718 -0.1956 -0.1826 -0.0620
 3069W        W46060  12.379  14.146  25.537  0.1354 -0.1535 -0.0769
 3070W        W46061  34.170  16.555   5.456  0.0361 -0.1445 -0.3466
 3071W        W46062  27.120   8.774   7.306 -0.0601  0.2119  0.0947
 3072W        W46063   1.239   3.319  27.255 -0.3137 -0.0038 -0.0083
 3073W        W46064  22.493   5.676   1.079  0.0011 -0.0459  0.3407
 3074W        W46065  29.825   9.139  27.090 -0.1674 -0.2877 -0.0098
 3075W        W46066  25.458  19.341  16.952 -0.1308 -0.0868  0.0281
 3076W        W46067  20.418  26.816   0.344 -0.1278 -0.4142  0.2580
 3077W        W46068   1.681   6.331  23.983  0.0680 -0.1436 -0.0420
 3078W        W46069  10.758   3.424   0.636  0.2113  0.0010 -0.0435
 3079W        W46070  17.758  17.929   4.811  0.1011 -0.0127 -0.0412
 3080W        W46071   7.158  23.480  28.105  0.1823  0.4209  0.0556
 3081W        W46072  21.501   2.180  15.383 -0.5001 -0.4875 -0.0704
 3082W        W46073  15.608  34.583  18.032  0.2327 -0.1388  0.0336
 3083W        W46074  19.773   0.579  28.052  0.0140 -0.0384 -0.2926
 3084W        W46075   9.451  31.548  20.291  0.1167  0.3170 -0.0079
 3085W        W46076  21.388  29.834  16.233 -0.2666 -0.0268  0.1121
 3086W        W46077  30.126   9.331  16.973 -0.2161  0.0028  0.0484
 3087W        W46078  19.157  28.409  27.987  0.1449  0.1898 -0.0898
 3088W        W46079  17.803  29.215  28.891 -0.1530 -0.1424 -0.1947
 3089W        W46080  18.681  33.037   8.268  0.0432 -0.0121 -0.0772
 3090W        W46081  21.541  17.738  23.542 -0.1613 -0.0562 -0.1759
 3091W        W46082  23.043  31.064  14.156 -0.1587 -0.0081  0.1229
 3092W        W46083  11.077  24.120   0.786  0.2043 -0.1784  0.0265
 3093W        W46084  21.675  14.233  28.322  0.1444 -0.0442  0.2914
 3094W        W46085  28.463  21.554  29.251 -0.2125 -0.0854  0.4020
 3095W        W46086  28.113  29.238  27.705 -0.3708  0.0735 -0.1820
 3096W        W46087  10.950  26.385  26.437  0.1554  0.2575 -0.0414
 3097W        W46088   9.623  15.319   8.314 -0.1205 -0.0056  0.1422
 3098W        W46089  30.737  23.198  19.355 -0.0756  0.5405  0.0593
 3099W        W46090  18.767  10.448  28.608  0.0377 -0.0591 -0.0871
 3100W        W46091  24.194   9.674   1.181  0.1010 -0.3782  0.0218
 3101W        W46092  33.276  20.862   2.166  0.4007  0.2585 -0.1638
 3102W        W46093  14.649  14.104  20.942  0.2535  0.0537 -0.2302
 3103W        W46094  17.399  10.615  19.573 -0.0806  0.0420 -0.0407
 3104W        W46095  32.743  12.771   7.780  0.0174  0.3595 -0.1878
 3105W        W46096  23.550  17.123   1.006  0.2733  0.2343 -0.2473
 3106W        W46097  24.751   8.839   2.727  0.1566 -0.5668  0.1854
 3107W        W46098  32.979   2.227   4.164 -0.1090 -0.0368  0.0827
 3108W        W46099  19.285  11.444  21.997  0.1971 -0.1922 -0.1018
 3109W        W46100  15.927   3.366  20.546  0.1673  0.2599  0.3370
 3110W        W46101  20.754   9.717   2.830 -0.0100  0.1172 -0.1627
 3111W        W46102  23.128  21.593  20.845  0.0206 -0.2736 -0.0613
 3112W        W46103  14.753   5.056  27.805 -0.0838 -0.1161  0.0271
 3113W        W46104  25.505  28.439   1.777  0.0762  0.0823  0.1679
 3114W        W46105  18.570   9.575   6.594  0.0853  0.1289 -0.0420
 3115W        W46106  21.283   2.544  17.270  0.2266 -0.0562  0.2968
 3116W        W46107  27.735   8.673  19.387 -0.0628  0.0319  0.0474
 3117W        W46108  12.830  10.155   9.239 -0.4102 -0.1353 -0.1058
 3118W        W46109  28.896   0.135   3.482  0.0330 -0.0118  0.1023
 3119W        W46110   8.967   0.133   9.685  0.2199  0.1841  0.0179
 3120W        W46111  21.712   6.354  27.256  0.0502  0.1014  0.4562
 3121W        W46112  33.673  34.092  26.341  0.2471 -0.2798  0.0459
 3122W        W46113  28.310   8.238  25.281 -0.2771  0.1314  0.0346
 3123W        W46114  25.313  34.559   6.240 -0.1711  0.0285 -0.0859
 3124W        W46115  29.731  22.390   9.783  0.0411 -0.3718  0.2597
 3125W        W46116  29.370  34.067   8.307  0.1483 -0.1129  0.1487
 3126W        W46117  27.907   6.791  21.622  0.3377  0.0624 -0.4581
 3127W        W46118  21.278  25.818   0.785  0.1875 -0.1576 -0.0978
 3128W        W46119  20.024  33.657   9.191  0.3291  0.0685  0.2512
 3129W        W46120  26.653  18.199  26.490  0.1499  0.0868 -0.0174
 3130W        W46121  16.717  23.019   8.773 -0.0935 -0.1947  0.1112
 3131W        W46122   9.162  33.090  26.922 -0.1943 -0.0746  0.0330
 3132W        W46123  20.850   1.721   6.772 -0.1332 -0.1916  0.1044
 3133W        W46124  17.734  23.366  21.046  0.0306 -0.1266  0.0881
 3134W        W46125  26.067  32.102  16.553  0.1453 -0.3553 -0.0079
 3135W        W46126  18.906  27.238  28.643 -0.1035 -0.1510  0.1754
 3136W        W46127  19.277  22.251  15.042 -0.1122 -0.0026  0.0534
 3137W        W46128  28.216  24.395   5.880 -0.0968  0.3148  0.0339
 3138W        W46129  25.467  21.870   6.955  0.0083 -0.2014 -0.2006
 3139W        W46130  25.010  13.757   1.131  0.1719  0.0084  0.2442
 3140W        W46131  24.548  17.341  18.769 -0.2237  0.1088 -0.1324
 3141W        W46132  14.116   8.071   2.226  0.1988  0.0251  0.1636
 3142W        W46133  22.146  10.368  28.400 -0.0208 -0.1069  0.1166
 3143W        W46134  23.731   2.525   3.235  0.0206 -0.1489  0.5255
 3144W        W46135   3.547   4.884  11.208 -0.1791  0.0527 -0.1672
 3145W        W46136   4.098   7.289  19.918 -0.0230 -0.1145  0.0160
 3146W        W46137   0.360  12.924   6.274  0.0747  0.1369 -0.2375
 3147W        W46138  17.217  26.812  17.023  0.1815 -0.1369  0.0160
 3148W        W46139  24.809  33.931   6.557 -0.2495 -0.3370  0.1340
 3149W        W46140   8.046   7.530   8.907 -0.0284  0.1249 -0.1988
 3150W        W46141  31.531   2.391  18.533 -0.1339 -0.2881  0.0578
 3151W        W46142  22.561  34.443  13.633  0.1008 -0.2479 -0.0458
 3152W        W46143  25.217  22.295  28.188 -0.1370  0.0466  0.4488
 3153W        W46144  23.828   3.332   2.883  0.0341  0.0855  0.2634
 3154W        W46145  24.632  18.031  23.943  0.0050 -0.1465 -0.1826
 3155W        W46146  25.601   7.070  19.199 -0.1420 -0.1717  0.0840
 3156W        W46147  26.539  26.475  28.989 -0.2253  0.2862 -0.2761
 3157W        W46148  17.899   6.756  20.402  0.1568 -0.1005  0.2345
 3158W        W46149  26.631  10.583  22.878 -0.1208  0.2623 -0.1471
 3159W        W46150  12.217  17.496   1.409  0.3694 -0.1905 -0.1072
 3160W        W46151   6.430   6.201  15.678  0.3983  0.1189 -0.1182
 3161W        W46152  21.214   2.992  25.553 -0.0015  0.2376  0.0251
 3162W        W46153  26.690   2.888   8.394 -0.3425  0.3171  0.0209
 3163W        W46154  17.500  23.168   0.099  0.0581 -0.0249  0.0036
 3164W        W46155  28.991  12.131  14.816 -0.2542  0.0069  0.1576
 3165W        W46156  22.445  27.209  15.344  0.0911 -0.4163 -0.0155
 3166W        W46157   0.022   9.302  26.465  0.1779 -0.0751  0.0436
 3167W        W46158  19.006   5.015  27.884  0.1659 -0.3618  0.1777
 3168W        W46159  26.163   7.211  18.285 -0.1621 -0.0007 -0.1865
 3169W        W46160  18.036  30.657   4.240 -0.1212  0.2164 -0.0276
 3170W        W46161  33.778  30.980  23.100 -0.1035 -0.1724  0.2085
 3171W        W46162  22.376   9.540  25.812  0.0379 -0.0889 -0.0349
 3172W        W46163  13.592  25.252  26.686 -0.0215 -0.0782  0.0071
 3173W        W46164  19.280   5.806  21.544 -0.1286  0.0651 -0.0404
 3174W        W46165  15.608   7.620   2.037 -0.2966  0.1079  0.0336
 3175W        W46166  30.206  21.916  18.133  0.1219  0.0090 -0.0901
 3176W        W46167  29.533  26.102  22.380  0.1100 -0.0912 -0.1032
 3177W        W46168  18.855   7.376   3.752 -0.0037 -0.0936  0.1387
 3178W        W46169  30.775   3.106  28.048 -0.1621  0.0382  0.0058
 3179W        W46170  26.846  12.965  19.409  0.1714  0.2461  0.1049
 3180W        W46171  30.354  34.337   4.082 -0.1323  0.1439 -0.0001
 3181W        W46172  22.782  11.964   0.278 -0.1569  0.3859 -0.2408
 3182W        W46173  13.887  10.615   1.051 -0.0454  0.1922  0.0218
 3183W        W46174  14.348  11.288  15.665  0.3422  0.3670 -0.0789
 3184W        W46175  24.350  21.645   9.457  0.0215 -0.4253  0.0699
 3185W        W46176  26.459   2.078  13.482  0.0058  0.0176 -0.0910
 3186W        W46177  26.812  17.439  23.406  0.1384 -0.1296  0.0793
 3187W        W46178  28.055  26.916   2.364  0.2446 -0.2693  0.0327
 3188W        W46179  13.020  30.578  25.486  0.1489 -0.0313  0.2935
 3189W        W46180  12.859  32.057   4.206 -0.0021 -0.0054 -0.1447
 3190W        W46181  15.242  29.315  28.622 -0.3894 -0.2232  0.1118
 3191W        W46182  22.925  10.037  18.551  0.0833 -0.3729 -0.1685
 3192W        W46183  17.963  26.762  10.065 -0.0741 -0.0280 -0.2383
 3193W        W46184  14.541   9.763  23.952  0.1976  0.3346 -0.1323
 3194W        W46185  13.543  26.750  27.860  0.3323  0.0210  0.0235
 3195W        W46186   1.247  14.296   9.473  0.0652  0.3365 -0.2426
 3196W        W46187  25.958  15.902  14.329  0.0346 -0.3167 -0.0503
 3197W        W46188  22.598   6.501  25.338 -0.0344 -0.2505  0.1381
 3198W        W46189  24.703  24.694   1.516 -0.0836  0.0535 -0.0880
 3199W        W46190   9.817  25.037  25.984  0.3116  0.1597 -0.2444
 3200W        W46191   7.193   9.323  24.491  0.0146  0.0651 -0.1864
 3201W        W46192  18.659   7.216  23.148 -0.1102  0.1063  0.0747
 3202W        W46193  28.048  32.164  28.185 -0.4440  0.0309  0.0887
 3203W        W46194  25.058  18.802   1.313 -0.0915 -0.0442 -0.3345
 3204W        W46195  26.359  26.672   3.031  0.0227 -0.1624  0.0175
 3205W        W46196  24.756  13.333   0.973  0.0658 -0.1087 -0.0653
 3206W        W46197  33.911  12.414   3.414  0.0255 -0.0854 -0.3206
 3207W        W46198  34.269  15.569   0.315 -0.0430 -0.0025 -0.0831
 3208W        W46199  34.113   6.904  25.919  0.1185  0.0573 -0.0997
 3209W        W46200  19.224  27.533  24.314 -0.0765 -0.0154  0.1468
 3210W        W46201  25.858  26.180  23.543  0.0097  0.0801  0.2042
 3211W        W46202  15.921   9.905  20.740  0.1366 -0.1609  0.0976
 3212W        W46203  19.421  33.401  26.381  0.2050  0.0970  0.0659
 3213W        W46204  24.528   1.067   5.724  0.0288  0.0777 -0.1630
 3214W        W46205  11.493   3.544  19.018 -0.1077  0.2148 -0.4387
 3215W        W46206  15.075  16.091  12.724 -0.0700 -0.0264 -0.1268
 3216W        W46207   0.845  18.338  26.609  0.1530 -0.1575  0.3904
 3217W        W46208   7.984   2.026  29.003  0.2538  0.0956  0.0235
 3218W        W46209  12.580   9.196  27.727 -0.1747 -0.0813  0.2664
 3219W        W46210  15.194  15.649  24.021  0.3111 -0.3168 -0.1147
 3220W        W46211  25.521  18.728  13.377  0.1023 -0.2570 -0.1330
 3221W        W46212  21.166   7.494  28.280 -0.1851  0.0195 -0.1458
 3222W        W46213  15.749  19.389  25.749  0.1533  0.2078  0.3518
 3223W        W46214   2.387   4.876  19.248 -0.4241  0.0769 -0.3409
 3224W        W46215  12.758   5.267  17.889  0.1996 -0.0624 -0.0179
 3225W        W46216  28.664   8.264  24.549  0.0170  0.0708  0.0437
 3226W        W46217  28.738  15.981  22.592 -0.2206 -0.3218  0.0076
 3227W        W46218  27.159  18.819  14.814  0.0260 -0.1941  0.0569
 3228W        W46219  10.368  29.368  26.041  0.0596  0.2476 -0.5032
 3229W        W46220  16.695  24.850  15.598  0.0349 -0.0529  0.0229
 3230W        W46221   2.138  32.935  23.866 -0.2817 -0.0094  0.2042
 3231W        W46222  23.020   5.148  23.982 -0.1519  0.0285  0.2173
 3232W        W46223   3.286  20.444   3.955  0.3667  0.0745  0.0275
 3233W        W46224   7.975  10.875  18.716 -0.1884 -0.0901  0.3252
 3234W        W46225   9.067   3.653   0.910  0.2207 -0.0070  0.1772
 3235W        W46226  17.191  11.106  15.804  0.2518 -0.3218 -0.2490
 3236W        W46227  26.775  21.952  25.392  0.1729  0.2671  0.2240
 3237W        W46228  18.672  16.427  13.580  0.1828  0.1928  0.1032
 3238W        W46229  30.105  10.340   7.303  0.0300 -0.1264 -0.5035
 3239W        W46230   7.148  19.403  23.464  0.3377 -0.0082 -0.3295
 3240W        W46231  26.962  24.016  27.233  0.2775  0.1254  0.0579
 3241W        W46232  17.360  31.555   1.236 -0.0867  0.1558 -0.0454
 3242W        W46233  18.951  14.857   7.985  0.2012 -0.1038  0.3677
 3243W        W46234  28.550   3.077  28.114  0.0503  0.0346  0.1464
 3244W        W46235  12.451   4.392   4.587  0.1589 -0.2507 -0.1480
 3245W        W46236  10.223  32.194   1.581 -0.1399 -0.1050  0.1276
 3246W        W46237  19.972  12.134  28.907  0.2352 -0.1853 -0.1051
 3247W        W46238   1.364   4.672  20.976  0.1357 -0.1434 -0.2076
 3248W        W46239  24.908   9.750   2.642 -0.0757 -0.2495  0.0079
 3249W        W46240  26.663  15.856  22.472  0.1875 -0.0117  0.0794
 3250W        W46241  33.713  29.467  25.977 -0.0552 -0.0014  0.2880
 3251W        W46242  26.780  11.806  23.958 -0.3226  0.0439  0.0148
 3252W        W46243   6.172   4.701  28.536  0.1213  0.0749 -0.2225
 3253W        W46244  14.453  13.825  14.846  0.1093 -0.2731 -0.0723
 3254W        W46245   2.506  29.186  14.455  0.2651  0.2453 -0.1002
 3255W        W46246  20.728  26.002   8.752 -0.1696  0.2864  0.0619
 3256W        W46247  15.380  34.006  23.082  0.1050 -0.1873 -0.2186
 3257W        W46248  25.512   6.757  18.109 -0.4499 -0.3013 -0.2637
 3258W        W46249   0.082   5.125  10.292  0.3525  0.1286  0.1255
 3259W        W46250  28.695  14.889  24.637 -0.1484  0.0737  0.0901
 3260W        W46251   0.130   2.403  28.892  0.3026  0.2622  0.0054
 3261W        W46252  25.884  26.995  26.822  0.1541 -0.0181 -0.2854
 3262W        W46253  29.014  28.593   6.408  0.4697  0.0627 -0.1200
 3263W        W46254  19.347  15.977   4.635 -0.1261  0.0881  0.1150
 3264W        W46255  15.877  32.545  27.467  0.1662  0.2378 -0.1493
 3265W        W46256   2.849   3.319   5.180  0.0837 -0.2458 -0.0438
 3266W        W46257  31.751   4.936  23.575 -0.0673 -0.1445  0.1880
 3267W        W46258   9.449   8.907  11.216 -0.0655 -0.1144  0.1973
 3268W        W46259  31.784  24.838  26.978  0.1837  0.0140  0.0846
 3269W        W46260  24.449  10.022  13.373 -0.1816 -0.0107 -0.1056
 3270W        W46261  18.177  10.934  21.803  0.0137  0.0597 -0.2729
 3271W        W46262  24.685   5.827  21.625  0.1789 -0.2303  0.0957
 3272W        W46263  25.125   4.657  16.508  0.0756  0.3918 -0.2828
 3273W        W46264  17.208  19.105  24.862 -0.4045  0.0255 -0.0822
 3274W        W46265  17.369   0.607  14.374 -0.0686 -0.0379 -0.1196
 3275W        W46266  21.583   9.056  18.789 -0.0095 -0.2766 -0.2935
 3276W        W46267  31.125  11.630   1.184 -0.1049  0.6893  0.0499
 3277W        W46268   1.193  11.882   8.316  0.1261  0.5511 -0.0424
 3278W        W46269  14.861  25.824  16.129 -0.2353 -0.0221 -0.0763
 3279W        W46270  34.258  34.250   1.960 -0.1892 -0.0086 -0.1256
 3280W        W46271   9.299   8.093   6.765  0.0813  0.2268  0.1142
 3281W        W46272  27.398   5.547  24.782  0.2236  0.1953 -0.3117
 3282W        W46273  14.075   7.204   3.931 -0.0538  0.0733 -0.0671
 3283W        W46274  21.241  33.692   3.533 -0.0237  0.0035 -0.1427
 3284W        W46275   6.731  12.494  26.183  0.3026  0.1325 -0.1587
 3285W        W46276  27.167  13.391  28.756  0.1960 -0.0938 -0.1820
 3286W        W46277   8.787   7.995  23.255  0.2739  0.0906 -0.2616
 3287W        W46278  19.599  33.862  26.432 -0.0703  0.1424  0.0972
 3288W        W46279   2.026   8.575  22.800  0.1019  0.1279  0.1859
 3289W        W46280  10.059  12.853   5.281  0.2042  0.1009 -0.1807
 3290W        W46281  26.039  27.651  14.682  0.2008  0.1066  0.0226
 3291W        W46282  20.594   9.712  26.717  0.1375  0.1277 -0.1495
 3292W        W46283  18.344   7.562  28.314  0.0722 -0.0927  0.2978
 3293W        W46284  22.426   1.343  22.893  0.0876  0.2717  0.5212
 3294W        W46285   9.121  32.414  26.230  0.4614 -0.2175 -0.1677
 3295W        W46286  32.148  23.611   2.254  0.1596 -0.0963  0.3183
 3296W        W46287   7.046  30.102   7.575  0.2771  0.2660  0.0096
 3297W        W46288  22.239  10.208   3.394 -0.1252 -0.3494 -0.2208
 3298W        W46289  34.786   5.725  29.114 -0.1159 -0.1541 -0.2293
 3299W        W46290  30.633   4.233  17.973  0.1734 -0.1803  0.1850
 3300W        W46291  27.214  31.539  13.959  0.2354 -0.1511  0.0791
 3301W        W46292  27.174  22.094   1.935 -0.1354 -0.2509 -0.1831
 3302W        W46293  20.436  22.240  25.045  0.0600 -0.1391  0.0395
 3303W        W46294  28.539  25.835  28.662  0.2147 -0.2291  0.2230
 3304W        W46295  25.365  12.291   4.152 -0.1662  0.1017  0.0084
 3305W        W46296  32.335   5.147   7.959 -0.1855  0.1986  0.3233
 3306W        W46297  15.410   2.766  20.938 -0.0173 -0.1646  0.2485
 3307W        W46298  25.152  11.768  19.097 -0.1576 -0.1973  0.1558
 3308W        W46299  29.698  18.481  24.026  0.3485 -0.1297  0.0412
 3309W        W46300   6.823  26.768   7.286 -0.0688  0.2190  0.0842
 3310W        W46301  23.719  27.897  20.944  0.5738  0.0988 -0.0974
 3311W        W46302  23.795  32.075   8.723 -0.1720  0.1529  0.0783
 3312W        W46303  22.642   5.449  17.475 -0.0171 -0.1604  0.0004
 3313W        W46304  31.048   6.949   8.382  0.2388 -0.0803 -0.0898
 3314W        W46305  26.235  12.014  26.290 -0.2357 -0.2981 -0.1529
 3315W        W46306  30.541  10.824   6.649 -0.2649 -0.2564 -0.0004
 3316W        W46307   6.198  31.665  19.549 -0.0350  0.1371  0.0792
 3317W        W46308  25.232   4.914  18.315 -0.1284 -0.0632  0.2618
 3318W        W46309  33.600  16.192   6.677 -0.0198  0.3919  0.0243
 3319W        W46310   2.418  18.425  21.427  0.2808 -0.0600  0.1869
 3320W        W46311  22.008   0.634  19.843  0.1605 -0.0459 -0.3243
 3321W        W46312  20.335  10.276  19.258  0.0672 -0.2719  0.0646
 3322W        W46313  26.480  19.929  28.983  0.1822  0.1533  0.0520
 3323W        W46314  22.995  16.640   9.934  0.1114  0.0285 -0.3024
 3324W        W46315  20.957  11.182  16.547  0.2062 -0.0254  0.2242
 3325W        W46316  26.288  13.484   2.763  0.1288  0.1229 -0.1118
 3326W        W46317  20.986   3.641  18.228 -0.1668 -0.2372 -0.1151
 3327W        W46318  20.799  34.162   8.744  0.0305  0.2216  0.0208
 3328W        W46319  20.782  32.367  25.922 -0.0511 -0.0877 -0.0143
 3329W        W46320  34.664   7.726  18.606 -0.0625  0.1097  0.0758
 3330W        W46321  26.870  17.536   8.196  0.3709  0.2395  0.1319
 3331W        W46322  25.326   7.353  26.973  0.2067 -0.1445 -0.1787
 3332W        W46323  24.827  11.229  25.935  0.1130 -0.3015  0.1909
 3333W        W46324  32.260  17.270  21.513 -0.0703  0.0026  0.1550
 3334W        W46325  14.070  11.199  22.431 -0.0931  0.2707  0.1211
 3335W        W46326  28.323  14.044   3.118 -0.1534 -0.2257 -0.4174
 3336W        W46327  19.155  18.113  26.105 -0.1950  0.0425  0.2510
 3337W        W46328  32.369  14.857  26.111 -0.3193  0.0942 -0.2619
 3338W        W46329  27.083   8.095  15.233  0.2255  0.2709 -0.2718
 3339W        W46330  23.505   2.652  21.751 -0.1041 -0.0536  0.3138
 3340W        W46331  13.556   5.681  20.582 -0.1933  0.1260 -0.3946
 3341W        W46332  18.260  15.745   0.417 -0.4128 -0.0054  0.1318
 3342W        W46333  10.107  25.063  10.021 -0.0320 -0.0964  0.1258
 3343W        W46334   5.051  24.064  27.551  0.1264  0.2032 -0.0374
 3344W        W46335   3.647   1.995  15.646 -0.3203 -0.1051  0.0576
 3345W        W46336  26.985  14.609  24.177  0.0444  0.3839 -0.0518
 3346W        W46337  33.626   3.718  16.649 -0.0209 -0.0534 -0.1674
 3347W        W46338  27.234  18.542   7.843  0.1304 -0.0068  0.0046
 3348W        W46339  14.002   1.947  24.269  0.1708 -0.1428 -0.0843
 3349W        W46340  11.068   6.233  16.271 -0.2980 -0.1335  0.2668
 3350W        W46341  32.360  14.650  24.780 -0.0769 -0.1234 -0.0711
 3351W        W46342  10.400  14.479   5.684 -0.2459 -0.1280 -0.0095
 3352W        W46343   2.316   4.801   5.111 -0.2363 -0.0374  0.0797
 3353W        W46344  33.777  11.250   2.018 -0.0893  0.1150  0.1810
 3354W        W46345  24.211   1.469  25.981  0.0830  0.0545 -0.1527
 3355W        W46346  32.822  11.725  10.697 -0.3507 -0.0442  0.0707
 3356W        W46347  25.710   5.623  28.535 -0.2213 -0.0668 -0.2315
 3357W        W46348  31.024  14.822   7.389  0.0518  0.1006 -0.1760
 3358W        W46349  31.102  16.165  19.261  0.0413  0.2641  0.2177
 3359W        W46350  21.856   5.095   5.855  0.0382 -0.3498 -0.2666
 3360W        W46351  25.688  10.629  15.405  0.0755  0.3394 -0.3235
 3361W        W46352  25.207   2.256   7.419 -0.3101 -0.0912  0.0284
 3362W        W46353  12.475  23.440   9.856  0.0849  0.3004 -0.0285
 3363W        W46354  26.925  16.787  21.656 -0.2097  0.4506 -0.0823
 3364W        W46355  20.389   2.443  27.205  0.1613  0.1824  0.0176
 3365W        W46356  16.235  28.717   5.338  0.1488  0.0479 -0.0439
 3366W        W46357  23.230  20.923  18.750  0.1971 -0.3778 -0.1436
 3367W        W46358  27.509  18.506   6.997  0.0465 -0.3281 -0.1004
 3368W        W46359  18.114   5.096   4.596 -0.0503  0.0555 -0.0116
 3369W        W46360  32.868   6.751  28.796  0.0571  0.0488 -0.2545
 3370W        W46361  24.542  15.505  29.159 -0.1868  0.3636 -0.0731
 3371W        W46362  31.791  24.735   2.129 -0.0877  0.3386  0.0329
 3372W        W46363  20.692   0.252   5.658  0.0864 -0.0716  0.1386
 3373W        W46364  14.768  13.698  17.606  0.0114 -0.1191  0.0438
 3374W        W46365   1.870  22.093  21.326 -0.0652 -0.1737  0.0939
 3375W        W46366  29.910  10.091  18.280 -0.2511  0.0393 -0.2566
 3376W        W46367  24.871  12.573   5.857 -0.3521 -0.2694  0.1042
 3377W        W46368  11.469   5.504  24.045 -0.0701 -0.1311  0.2567
 3378W        W46369  18.855  14.387   2.795 -0.1371  0.1060 -0.2481
 3379W        W46370  29.087   8.316  27.759 -0.2931 -0.0471  0.0333
 3380W        W46371  29.806  25.277   5.020  0.0739 -0.1059  0.0672
 3381W        W46372  24.134  11.943  26.841 -0.1427  0.0878 -0.2645
 3382W        W46373  23.183  34.249   7.949  0.1183 -0.3334  0.0716
 3383W        W46374  26.841   0.697  17.531 -0.1501  0.3711 -0.0010
 3384W        W46375  14.641   3.275   4.196  0.0725  0.0447 -0.1274
 3385W        W46376  25.497  16.144  21.769 -0.0442 -0.1059  0.3128
 3386W        W46377  27.153  31.154  26.412 -0.2433  0.0399  0.1774
 3387W        W46378  10.198  17.642   1.818 -0.1720  0.0521  0.1529
 3388W        W46379  11.399  29.203   2.249 -0.2581 -0.2000 -0.0822
 3389W        W46380  21.533  31.937  29.021  0.2604  0.2826 -0.3061
 3390W        W46381   9.863   9.838   5.808 -0.1684  0.0507  0.3594
 3391W        W46382  18.096  29.586   1.178  0.0185  0.0831  0.1811
 3392W        W46383  17.841  12.118  18.821 -0.1163  0.1706 -0.0588
 3393W        W46384  14.212  18.124   1.077 -0.0781 -0.2429  0.0877
 3394W        W46385  19.850  10.069   6.096  0.2906  0.0525  0.0478
 3395W        W46386  33.073  30.805  27.363  0.0228  0.2456 -0.1029
 3396W        W46387  20.885  10.755  18.118 -0.0367  0.0514 -0.0157
 3397W        W46388  13.661  14.054   2.101  0.1488 -0.2323  0.1400
 3398W        W46389  13.270   8.098  20.412 -0.0776 -0.0368 -0.1692
 3399W        W46390   7.151   6.119   7.923 -0.1165 -0.0794  0.2641
 3400W        W46391  21.218  14.524  19.171 -0.2406  0.2092 -0.1441
 3401W        W46392   8.403   2.974  24.388 -0.0615  0.0061  0.1316
 3402W        W46393  31.626  12.791  15.492  0.3134 -0.1090  0.2033
 3403W        W46394  12.721  26.938   9.530 -0.1285 -0.0920 -0.2636
 3404W        W46395  21.816  29.159  28.224  0.2351 -0.0740  0.1575
 3405W        W46396  17.372  19.926  25.245 -0.0603  0.1201 -0.1231
 3406W        W46397  24.945  31.341   2.542 -0.0486  0.0869 -0.1025
 3407W        W46398  21.462  25.081   0.147 -0.0232  0.2212  0.0575
 3408W        W46399   0.472  14.086  21.334 -0.2765  0.0607  0.0631
 3409W        W46400   9.437  10.633   2.250 -0.0422 -0.1190 -0.0035
 3410W        W46401  21.841  25.433  25.278 -0.0442 -0.2209 -0.0353
 3411W        W46402  27.331   8.906  15.453  0.0887 -0.0893 -0.0423
 3412W        W46403   3.986  15.972  18.888  0.0695 -0.0883  0.5535
 3413W        W46404  25.982  33.956   0.129  0.0020  0.0499 -0.1694
 3414W        W46405   0.536  11.483  18.316  0.0842  0.2808 -0.2903
 3415W        W46406  25.442  17.514  15.157  0.0037 -0.2080 -0.1486
 3416W        W46407  23.774   8.399  19.092 -0.1268 -0.0994  0.2219
 3417W        W46408  26.732  32.490  26.001  0.1684 -0.1867 -0.1672
 3418W        W46409  17.078   7.109  15.129  0.0410  0.2773 -0.3156
 3419W        W46410  26.707   4.509  16.621  0.2597  0.0992 -0.0394
 3420W        W46411  19.018  16.278  12.195 -0.0497 -0.0121 -0.0582
 3421W        W46412  22.498   5.656  15.812  0.0972  0.2631  0.3418
 3422W        W46413   3.483  16.932  16.661  0.1108 -0.0630 -0.4207
 3423W        W46414  15.042  12.943  21.648 -0.0593  0.3164 -0.1659
 3424W        W46415  29.536  14.851   0.428  0.1695  0.2454 -0.1416
 3425W        W46416  26.105  21.920  22.922  0.0257  0.3248  0.1837
 3426W        W46417  28.605   6.096  25.114  0.2855 -0.1669 -0.1318
 3427W        W46418  17.075  24.398  24.630  0.0236  0.2780 -0.0327
 3428W        W46419  25.630  24.622  24.780 -0.0978 -0.0135 -0.1318
 3429W        W46420   5.674   5.744  17.638 -0.1350 -0.0163 -0.0205
 3430W        W46421  23.595  20.698  13.467 -0.0432 -0.0375  0.2179
 3431W        W46422  22.194  24.110  20.627 -0.3149  0.3636 -0.1768
 3432W        W46423  13.102  24.004  22.899  0.0697  0.3337 -0.1412
 3433W        W46424  20.076   6.178  14.359  0.1603 -0.2063 -0.1518
 3434W        W46425   6.919   5.520  28.444  0.1826 -0.0055  0.1973
 3435W        W46426  28.275  17.202  19.518  0.2793  0.1838  0.1227
 3436W        W46427  15.974  22.748  18.202  0.0130 -0.0001  0.0471
 3437W        W46428  26.586   3.076  15.090 -0.0872  0.2587  0.0713
 3438W        W46429  10.005   8.495  15.497  0.3057 -0.0718 -0.0317
 3439W        W46430  34.166  11.540  26.430 -0.1053  0.0676  0.1412
 3440W        W46431  11.115  18.672  15.075  0.3082 -0.0170 -0.0595
 3441W        W46432  29.231  19.734  20.217  0.2811  0.0195 -0.1957
 3442W        W46433  28.658  23.044   3.089 -0.2948  0.0174  0.0959
 3443W        W46434  32.345  10.558  21.056  0.1549  0.1765 -0.1033
 3444W        W46435  34.244  31.140  22.538 -0.0295 -0.2116 -0.0269
 3445W        W46436  20.625   8.700  19.530 -0.0317 -0.0568  0.2577
 3446W        W46437  17.410   8.348  17.950 -0.0318 -0.0890 -0.0818
 3447W        W46438  28.987  17.979  29.195 -0.0392 -0.4644 -0.2720
 3448W        W46439  12.848  28.405  10.769  0.1002 -0.3355  0.0374
 3449W        W46440  34.650  16.145  17.799  0.1396  0.2993 -0.0672
 3450W        W46441  32.118  17.189  25.783 -0.0337  0.2222 -0.1032
 3451W        W46442  12.175   0.320  23.856 -0.1066  0.0248  0.0729
 3452W        W46443  33.198  17.525  24.311  0.0584  0.0856 -0.1179
 3453W        W46444  20.198   8.519  13.082  0.1576 -0.3107 -0.1058
 3454W        W46445  27.740  26.599  15.060 -0.1165  0.3480  0.5290
 3455W        W46446  21.052  21.453  20.906 -0.2573 -0.2333  0.0377
 3456W        W46447  25.556   1.351  13.820  0.2591 -0.1771 -0.0510
 3457W        W46448  19.914  23.040  15.398  0.0541  0.0905  0.0211
 3458W        W46449   1.155  14.422  21.695  0.0971 -0.0907 -0.0532
 3459W        W46450  21.748  12.510  15.297 -0.0106 -0.1098  0.1190
 3460W        W46451  20.317  20.775  16.747  0.2494 -0.1088 -0.3325
 3461W        W46452  19.969  12.081  15.184 -0.0918  0.1542 -0.0595
 3462W        W46453  33.081  19.586  24.523 -0.0514  0.0438  0.0974
 3463W        W46454  19.560  15.220  13.271 -0.3444  0.1519 -0.2962
 3464W        W46455   3.762  13.348  22.153  0.3051  0.1088  0.0637
 3465W        W46456  24.729   9.049   1.130  0.0505  0.2243  0.0022
 3466W        W46457  25.929  21.742   9.512  0.2824 -0.2313  0.3424
 3467W        W46458  27.149  16.719   8.493 -0.0751 -0.2003 -0.0083
 3468W        W46459  11.630  19.388  19.055  0.1851 -0.1158  0.4081
 3469W        W46460  25.257   2.388  21.554 -0.2678 -0.1995 -0.0176
 3470W        W46461  20.865  11.073  17.423  0.2353 -0.0110  0.3433
 3471W        W46462  27.284   8.457   2.370 -0.0872  0.0451  0.0511
 3472W        W46463  28.154  14.205  18.491 -0.3100  0.0802  0.4435
 3473W        W46464  22.569  28.176  13.845 -0.2404 -0.0853 -0.0764
 3474W        W46465  33.548   8.494  15.198 -0.3450 -0.1234 -0.1117
 3475W        W46466   8.420  13.087  17.858 -0.2192  0.0246  0.2869
 3476W        W46467  15.708  24.798  19.824 -0.0084  0.3298 -0.1081
 3477W        W46468  24.974  12.656   1.419  0.3993  0.0344 -0.3202
 3478W        W46469  33.336  23.660  21.368 -0.1695 -0.1885  0.2813
 3479W        W46470  21.681  29.477  28.549 -0.0622  0.0927  0.0108
 3480W        W46471  27.834  32.696   0.667 -0.0435 -0.1551  0.1233
 3481W        W46472  23.479  33.318   4.860  0.1311  0.0850 -0.1616
 3482W        W46473  32.639  33.888  16.249 -0.0299 -0.2789  0.1198
 3483W        W46474  26.577   4.607  23.725 -0.0100  0.4666 -0.2669
 3484W        W46475  18.710  23.607  20.549  0.0245 -0.0953 -0.4602
 3485W        W46476  33.804  13.797  19.687  0.1326 -0.1389 -0.1999
 3486W        W46477  10.631  18.633  19.121  0.2912 -0.2015  0.3144
 3487W        W46478   9.625  18.132  22.168  0.1162  0.1603  0.0468
 3488W        W46479  30.896  13.804  18.596  0.2887  0.0709  0.1161
 3489W        W46480  18.283  13.395  14.841  0.1349  0.1760 -0.0806
 3490W        W46481   1.709  10.695  17.273  0.0860 -0.0245  0.0523
 3491W        W46482  22.238   6.364  20.460 -0.2599 -0.1476 -0.0894
 3492W        W46483   4.826  20.674  25.494  0.5736 -0.5210  0.3924
 3493W        W46484  24.936  30.019  20.314 -0.0133  0.0474 -0.1071
 3494W        W46485   5.139  13.897  19.897  0.0179 -0.0005 -0.4264
 3495W        W46486   6.044  30.850  14.919  0.4364  0.2362  0.2413
 3496W        W46487  32.533  21.862   1.430 -0.1543 -0.3455 -0.2750
 3497W        W46488  22.628  30.859  21.999 -0.1738 -0.2538  0.2493
 3498W        W46489   7.270   4.081  24.687 -0.0237  0.1125  0.0312
 3499W        W46490  32.787   5.475  21.134  0.0187 -0.1102  0.0810
 3500W        W46491  24.168  23.586  14.763  0.0616  0.3513 -0.0770
 3501W        W46492  21.894  29.607  24.778 -0.2248 -0.0388 -0.1025
 3502W        W46493  27.546  27.618   0.729 -0.0344  0.2647 -0.3946
 3503W        W46494  30.094  19.469  18.998 -0.0483 -0.2022 -0.0805
 3504W        W46495  25.098  21.927  24.583  0.1173 -0.1404 -0.0607
 3505W        W46496  30.017  21.018  15.789  0.3991  0.0996  0.0585
 3506W        W46497  29.993  12.030  20.640 -0.1532  0.0769  0.0568
 3507W        W46498  16.320  10.532  16.843  0.0909 -0.1795 -0.1771
 3508W        W46499  28.906  13.630  15.045  0.0726  0.2054 -0.2808
 3509W        W46500  28.719  17.066  14.712 -0.0696  0.0455  0.0437
 3510W        W46501  27.449  26.272  16.669  0.1121  0.0669  0.1712
 3511W        W46502  13.432   4.788  14.926  0.2480  0.1502  0.2908
 3512W        W46503  31.088  30.436  22.924 -0.0358  0.1383  0.0187
 3513W        W46504  20.328   2.764  24.841  0.1087 -0.3932  0.1833
 3514W        W46505  31.721  14.102  19.108 -0.1857 -0.2126 -0.1623
 3515W        W46506  21.832   0.290  17.355  0.1681  0.1199  0.1476
 3516W        W46507   2.963  32.141  17.476 -0.0353 -0.0777  0.3107
 3517W        W46508   2.122  15.990  21.947  0.0565  0.1116 -0.0074
 3518W        W46509   7.053  15.807  22.193 -0.0049 -0.0086  0.2111
 3519W        W46510  22.089  21.130  13.748 -0.0561  0.2060 -0.0579
 3520W        W46511  17.221   5.336  21.838  0.0452 -0.3969 -0.1135
 3521W        W46512  12.890   3.712  27.132 -0.0206 -0.1718  0.2172
 3522W        W46513  11.398   8.658  18.858  0.3308  0.3626  0.2032
 3523W        W46514  27.062  25.707  14.851  0.0446  0.1548  0.0662
 3524W        W46515  24.067  12.287  13.281 -0.2714 -0.2373  0.2208
 3525W        W46516  19.617  22.436  13.485  0.0528 -0.4432  0.0850
 3526W        W46517  10.129  23.148   2.648  0.0304  0.0866  0.1094
 3527W        W46518   1.770  23.867  18.356 -0.1466  0.2931  0.2939
 3528W        W46519   9.222  13.763  17.417 -0.3571  0.1113  0.2584
 3529W        W46520  13.384   8.308  24.357  0.0578 -0.0502 -0.2048
 3530W        W46521  18.649  23.393  17.798 -0.1260 -0.0045  0.0312
 3531W        W46522  17.155  10.215  20.197  0.2617  0.0241 -0.0651
 3532W        W46523  10.580  19.117  21.599 -0.1427 -0.3614  0.2220
 3533W        W46524  20.719  27.327  19.362  0.1036  0.1825  0.1449
 3534W        W46525  34.685  20.196  25.416  0.0398  0.0107 -0.4013
 3535W        W46526   1.904  11.407  21.333  0.2240 -0.3615 -0.0176
 3536W        W46527  29.898  22.844  20.406  0.0838 -0.0726  0.0844
 3537W        W46528  10.670  20.291  26.498  0.0044  0.1991 -0.0645
 3538W        W46529   7.078   7.445  16.531  0.0968  0.2127  0.3929
 3539W        W46530  29.497  13.318  17.454 -0.0906  0.0976  0.0054
 3540W        W46531   4.010  29.900  22.036 -0.0651 -0.1751  0.1186
 3541W        W46532  12.147  28.104  14.629  0.0856 -0.0882 -0.2319
 3542W        W46533  17.716   6.220  20.156 -0.0590  0.3083 -0.1067
 3543W        W46534  18.184  12.297  18.474  0.3967  0.2479  0.1601
 3544W        W46535  26.611  19.165  23.085  0.4190 -0.2903 -0.3919
 3545W        W46536  31.724  23.770  27.374  0.3557 -0.1884 -0.1601
 3546W        W46537  31.192  23.684  21.636  0.5075 -0.0599  0.2117
 3547W        W46538  20.512  30.762  19.665 -0.0133 -0.1703  0.0577
 3548W        W46539  32.422  24.827  22.196 -0.5831  0.0311  0.1949
 3549W        W46540  13.439   3.624   0.907  0.0149 -0.0251 -0.2045
 3550W        W46541   8.284   9.073  15.313 -0.0756 -0.1119 -0.0307
 3551W        W46542  24.653  24.011  25.621  0.1552  0.1660  0.2595
 3552W        W46543  27.724  29.721  22.522  0.3920 -0.1198 -0.2070
 3553W        W46544  25.652   6.304   2.746 -0.4388  0.3854  0.2237
 3554W        W46545  23.660  24.548  27.275  0.3651 -0.5593  0.0648
 3555W        W46546  28.248   0.608  19.531  0.0182  0.3161 -0.3445
 3556W        W46547  23.149   6.433  15.949  0.1645  0.0858  0.0063
 3557W        W46548  32.686   7.732  20.568 -0.0867 -0.1278  0.1121
 3558W        W46549  26.635  14.217  22.141  0.0094  0.0436 -0.2625
 3559W        W46550  14.877  23.689  21.724  0.0997 -0.2876  0.0687
 3560W        W46551  23.322  13.424  14.583  0.0575 -0.3046 -0.1295
 3561W        W46552   1.425   9.993   0.585 -0.0430 -0.2460  0.0942
 3562W        W46553   6.486   4.714  26.175 -0.2559 -0.1064  0.1932
 3563W        W46554  18.157   6.201  16.253 -0.2044 -0.1520  0.0139
 3564W        W46555  15.133   0.700   3.002  0.3152  0.0113 -0.0568
 3565W        W46556  30.488  31.622  17.445 -0.0317  0.0889 -0.1719
 3566W        W46557  14.831  28.636  22.912 -0.0990  0.1342 -0.2107
 3567W        W46558  19.422   9.902  17.117 -0.0897 -0.1249  0.1150
 3568W        W46559  19.975   8.348  14.758  0.2128 -0.0843  0.0044
 3569W        W46560  22.503  17.272  26.273 -0.0412 -0.0978 -0.1363
 3570W        W46561  28.391  30.974  23.559  0.1374 -0.1936  0.0823
 3571W        W46562  26.998  17.624   1.424  0.1167  0.0994  0.0690
 3572W        W46563  34.546  23.497  16.865  0.1888  0.1529  0.1759
 3573W        W46564  13.133  19.030  25.292 -0.0624  0.0895  0.1578
 3574W        W46565  34.418  20.851  24.037  0.1439  0.0832  0.0709
 3575W        W46566   2.591   1.353  17.734  0.3922  0.5315  0.1229
 3576W        W46567  27.506   2.690  26.018 -0.0110 -0.1052  0.0479
 3577W        W46568  32.117  13.457  17.425  0.1311  0.2014  0.1955
 3578W        W46569  15.205  23.960  23.995 -0.1739 -0.1700  0.0666
 3579W        W46570  23.699   5.690  14.679  0.1351  0.2336  0.3945
 3580W        W46571  14.129   1.011  19.473 -0.1858  0.0168  0.2338
 3581W        W46572  30.313  11.455  21.269  0.1007  0.0267  0.1672
 3582W        W46573   8.348   6.906   7.807  0.2806  0.2953 -0.1512
 3583W        W46574  18.478  15.993  14.118  0.0883 -0.0183 -0.3479
 3584W        W46575  15.595  18.202  26.521 -0.3897  0.1374 -0.2391
 3585W        W46576  24.044  13.674  18.958  0.3539 -0.1487  0.1171
 3586W        W46577  23.655  18.546  21.166  0.3205 -0.1607 -0.0212
 3587W        W46578  18.062  25.318  17.917  0.0082  0.1688 -0.0610
 3588W        W46579  26.332   8.150  15.961 -0.2004 -0.0197  0.2188
 3589W        W46580  12.456   6.549  25.617  0.0183  0.3329  0.0828
 3590W        W46581  17.844  23.415  13.338 -0.1065  0.2936  0.2631
 3591W        W46582   8.463   7.944  21.797 -0.2156  0.2459 -0.2357
 3592W        W46583  24.380  23.157  19.348 -0.2398  0.1129  0.4268
 3593W        W46584  19.581   9.148  14.546 -0.1949  0.0769  0.2651
 3594W        W46585  20.453  20.757  17.218  0.2453 -0.2821  0.0442
 3595W        W46586  17.307  32.412  13.105  0.5242 -0.1981  0.4019
 3596W        W46587  20.442  13.818   6.000  0.0477  0.0481  0.0929
 3597W        W46588  22.077  31.836  14.288 -0.2258  0.0457 -0.3170
 3598W        W46589  18.316  21.822  14.681  0.0306 -0.2465  0.1307
 3599W        W46590  30.092  12.665   5.865  0.0118 -0.0305 -0.0287
 3600W        W46591  30.653  15.436  18.927 -0.0025  0.3171 -0.0075
 3601W        W46592  14.661  19.152  13.961  0.2051  0.1279  0.2028
 3602W        W46593  28.682  14.511  26.961 -0.4360 -0.1872 -0.0272
 3603W        W46594  18.512   9.062  22.610  0.0585  0.2462  0.1462
 3604W        W46595  30.893  13.369  16.635  0.2412  0.4976  0.1372
 3605W        W46596  24.646  17.187  19.335 -0.0520  0.2056  0.0313
 3606W        W46597  20.580  21.507  19.863 -0.2595 -0.1623 -0.1164
 3607W        W46598  25.229  18.540  24.475  0.0455 -0.0465  0.0992
 3608W        W46599  15.624   7.436  15.608  0.0881  0.0485  0.1102
 3609W        W46600  19.473   9.789  28.053  0.1026  0.4497  0.0804
 3610W        W46601  17.944  14.219  13.734  0.1169 -0.2129  0.1075
 3611W        W46602   5.250  24.979  14.733 -0.2653 -0.1944  0.0705
 3612W        W46603  14.871  33.524  28.542 -0.1756 -0.0519 -0.0604
 3613W        W46604  21.728   2.790  28.093 -0.1091  0.0004 -0.1528
 3614W        W46605  31.485   0.780  28.055 -0.1155 -0.3594  0.0484
 3615W        W46606   8.923  23.987  20.957 -0.3235 -0.1871 -0.0302
 3616W        W46607  12.442  14.306  20.398 -0.2405  0.0537  0.2241
 3617W        W46608  34.203   6.221  20.192  0.0562 -0.0686  0.0389
 3618W        W46609  21.279  25.703  27.788 -0.1208  0.2188 -0.2915
 3619W        W46610  30.955  16.322  16.041 -0.1347 -0.0461  0.2577
 3620W        W46611  14.574  11.185  18.977  0.2188 -0.1106  0.1692
 3621W        W46612  28.713  10.792  27.888  0.3717  0.1283  0.0410
 3622W        W46613  34.499  12.710  24.143 -0.0525  0.1810 -0.1034
 3623W        W46614   1.130  17.758  15.410 -0.0243  0.0544 -0.0653
 3624W        W46615  27.147  20.487   4.562  0.1353 -0.0935  0.1213
 3625W        W46616  22.200   7.523  19.497  0.1565  0.1225  0.1027
 3626W        W46617  27.377  22.517  15.423 -0.2751 -0.2517 -0.0804
 3627W        W46618  19.172  11.495  24.965 -0.0788 -0.0975 -0.1308
 3628W        W46619  30.088  11.553  16.971 -0.0045 -0.1795 -0.0234
 3629W        W46620  10.320  17.547  28.651 -0.4779  0.1295 -0.1763
 3630W        W46621  34.106   5.951  18.351 -0.0875 -0.2438 -0.1318
 3631W        W46622  16.990  31.120  23.255  0.3761 -0.0672  0.0405
 3632W        W46623  26.178  23.804  14.523 -0.1429 -0.0897  0.1970
 3633W        W46624   4.517  23.975  19.877 -0.5124  0.1162 -0.1099
 3634W        W46625  12.351  33.177  18.258 -0.0852  0.1023  0.1424
 3635W        W46626   6.390  11.885   2.344  0.3083 -0.0090 -0.2161
 3636W        W46627  18.721  12.363  15.695 -0.0362  0.0392 -0.2210
 3637W        W46628  16.320   7.107  26.648 -0.2159  0.0509  0.1883
 3638W        W46629  19.192   9.552  15.570  0.2551  0.0640 -0.1568
 3639W        W46630  26.213   6.093  13.674  0.2700  0.0910 -0.1778
 3640W        W46631  24.607  13.023   1.457 -0.0191  0.0077 -0.1135
 3641W        W46632  26.520  16.584  15.501  0.3221  0.0119  0.2483
 3642W        W46633  25.350   6.666  15.294  0.1911 -0.0726 -0.1713
 3643W        W46634  25.943  27.477  19.991  0.2789 -0.2638  0.2578
 3644W        W46635  23.878   9.933  20.064 -0.1294  0.1121 -0.1685
 3645W        W46636  22.782  17.098  21.277  0.1643 -0.2630  0.2111
 3646W        W46637  27.217  17.730  28.000  0.1214 -0.1503  0.3150
 3647W        W46638  15.454  20.115  14.187  0.1826  0.1515  0.1462
 3648W        W46639  29.220  15.231  21.702  0.0040 -0.0097 -0.1115
 3649W        W46640  21.918   6.649   9.750  0.1924 -0.3760  0.0830
 3650W        W46641  25.246  18.957  14.264 -0.1545  0.0967 -0.0897
 3651W        W46642   0.769  32.261  14.558  0.3215  0.1777  0.0872
 3652W        W46643  17.807  32.712  20.009 -0.2237  0.2041 -0.1296
 3653W        W46644  23.730  11.940  29.189 -0.2903  0.1933 -0.2687
 3654W        W46645  31.324  17.565  27.475  0.1795  0.0292 -0.1664
 3655W        W46646  12.912  13.410  22.035  0.1979  0.0771  0.0021
 3656W        W46647   1.396  25.015  14.153  0.0325  0.2434 -0.0596
 3657W        W46648  15.710   6.693  20.935  0.3528  0.3187  0.5210
 3658W        W46649  25.947  10.757  14.098  0.0501  0.1258  0.3357
 3659W        W46650   0.416   8.107  22.051 -0.0109  0.0954 -0.0817
 3660W        W46651  29.272   7.339  16.517 -0.0618  0.2097  0.0759
 3661W        W46652  27.580  14.646  21.891  0.0538 -0.1322  0.2889
 3662W        W46653  26.989   9.091  22.774  0.1144 -0.3011 -0.0385
 3663W        W46654  30.307   2.336  15.580  0.1364 -0.3498 -0.1292
 3664W        W46655  11.392  12.844  15.572  0.0891  0.1222 -0.3611
 3665W        W46656  24.715  10.582  21.019  0.0423 -0.4366  0.0248
 3666W        W46657  27.675   2.301  29.106 -0.0257 -0.1714 -0.0030
 3667W        W46658  13.901   8.578  15.290 -0.0727 -0.2479 -0.1097
 3668W        W46659   5.502   9.363  21.302  0.0243 -0.0628 -0.0888
 3669W        W46660  16.908   7.447  14.591 -0.0374 -0.0868 -0.1135
 3670W        W46661  25.400   1.059  17.950  0.0568 -0.0051 -0.0635
 3671W        W46662  22.696  27.650  15.545  0.2764  0.3999  0.0308
 3672W        W46663  12.910  20.855  13.599  0.0681 -0.1775 -0.1103
 3673W        W46664  17.066  15.820  25.764 -0.1236 -0.0432  0.1153
 3674W        W46665  16.477  25.119  23.476 -0.2478  0.0433  0.3235
 3675W        W46666   2.788   2.369  28.803  0.0434  0.0344 -0.1502
 3676W        W46667  32.206   7.854  21.807 -0.1234 -0.1134 -0.1810
 3677W        W46668  12.753  23.475  18.102  0.0089 -0.0188 -0.1815
 3678W        W46669   9.477  11.672  25.223 -0.0186 -0.1430  0.1902
 3679W        W46670  22.966   6.013  18.382 -0.0236  0.1178 -0.1773
 3680W        W46671  34.611  22.803  28.364  0.3667  0.1413  0.1546
 3681W        W46672  25.984  10.860  28.672  0.0892  0.3235 -0.1401
 3682W        W46673   5.787  30.173   3.490  0.2092 -0.0119 -0.1848
 3683W        W46674  26.950  19.671  15.815  0.2138 -0.0937  0.0318
 3684W        W46675   2.733   1.962   7.965  0.0729  0.1195  0.1272
 3685W        W46676  28.685  12.176  25.015 -0.3967  0.2160 -0.0486
 3686W        W46677  31.641  31.275  13.550  0.0686 -0.0451  0.1373
 3687W        W46678  13.739   6.935   3.722 -0.3039  0.2562  0.1120
 3688W        W46679  28.627  14.785  22.477  0.0838  0.3959  0.0281
 3689W        W46680  17.030  25.176  18.467 -0.1056  0.1608  0.1689
 3690W        W46681   0.346  28.449  22.317  0.1045 -0.0296  0.0348
 3691W        W46682  27.016   6.979  21.586 -0.1520  0.1067 -0.1272
 3692W        W46683  23.325  13.842  19.281  0.2850  0.1860  0.0112
 3693W        W46684  20.007   0.298  26.795 -0.3537 -0.1359  0.2590
 3694W        W46685  20.645  33.934  21.901  0.1271 -0.0467  0.1470
 3695W        W46686   5.850  26.896  10.746 -0.0384  0.0044  0.2016
 3696W        W46687  25.831  17.506  16.556  0.0484 -0.1776  0.0208
 3697W        W46688  19.848  21.154   4.421  0.1944 -0.2177  0.1152
 3698W        W46689   1.635   9.196  20.388  0.0096  0.2870  0.0282
 3699W        W46690   9.601  16.079   3.381 -0.1281 -0.1465  0.2361
 3700W        W46691  13.703  16.855  17.299 -0.1988  0.1237  0.0757
 3701W        W46692  31.604   6.497  14.809  0.1323  0.1349  0.3447
 3702W        W46693   2.166  15.320  26.363 -0.1859  0.0087  0.1540
 3703W        W46694  33.858  17.273  16.527  0.3599  0.3368 -0.0145
 3704W        W46695  29.556  19.777  21.654 -0.0049 -0.2114  0.1170
 3705W        W46696  18.835   6.252  18.833  0.3784  0.1905  0.1779
 3706W        W46697  24.038  23.920  17.648 -0.0884  0.3311  0.0141
 3707W        W46698  32.956   3.927  20.424  0.2211 -0.0070  0.2121
 3708W        W46699  24.148  23.686  18.617 -0.2877 -0.0359  0.1698
 3709W        W46700  23.426  24.094  27.064  0.4207  0.1589 -0.2340
 3710W        W46701  32.109  17.685  16.561  0.4592 -0.0759 -0.1906
 3711W        W46702  20.853  28.189  17.922 -0.0507 -0.1784  0.0063
 3712W        W46703   3.240  21.419  19.001  0.1905  0.0468 -0.0183
 3713W        W46704  34.027  17.758  20.199 -0.0496  0.0601 -0.0652
 3714W        W46705  32.308  22.064  15.820  0.1604  0.2189  0.2183
 3715W        W46706  25.926  11.121   1.780 -0.2135  0.2008  0.0119
 3716W        W46707  24.141   7.122   6.118 -0.1636 -0.1552  0.2058
 3717W        W46708  27.209  32.285  17.903  0.1393  0.0091  0.1111
 3718W        W46709  23.010  17.085  14.584  0.1371 -0.2808  0.1990
 3719W        W46710  24.162  20.427  18.955 -0.1223 -0.1746  0.0749
 3720W        W46711  21.791  18.199  17.187 -0.1579  0.1335  0.0359
 3721W        W46712  21.557  31.920  20.626  0.1455 -0.3271  0.2539
 3722W        W46713  19.885   2.519  18.285 -0.0780 -0.0461  0.2359
 3723W        W46714  19.101  14.481  25.803  0.0818 -0.2352  0.1762
 3724W        W46715  30.101  22.171  20.093 -0.0276  0.2434  0.1403
 3725W        W46716  19.843  21.541  14.010  0.2211  0.1110  0.0667
 3726W        W46717  27.651  26.658  14.039 -0.2434  0.0350  0.2974
 3727W        W46718  18.480  22.797  16.116  0.1922 -0.0475 -0.1147
 3728W        W46719  27.412   2.420  16.176 -0.0801 -0.0843 -0.0407
 3729W        W46720  33.401  14.103  16.519  0.1487  0.2393 -0.1140
 3730W        W46721  28.306  19.200  23.467  0.2611 -0.0579 -0.2408
 3731W        W46722  22.064  15.055  12.622 -0.0689  0.0168  0.2925
 3732W        W46723  20.214  12.147  22.806 -0.0326 -0.1033  0.1344
 3733W        W46724  24.982  32.686  27.979 -0.0197 -0.0107  0.2581
 3734W        W46725  25.761   6.648  25.467  0.0574  0.0128  0.2253
 3735W        W46726  29.365  33.171  19.517 -0.1128 -0.0456 -0.3110
 3736W        W46727  18.298   0.191  21.955 -0.0902  0.2124 -0.2705
 3737W        W46728  24.930  19.455  14.182  0.3131 -0.1737 -0.1205
 3738W        W46729  28.409  12.277  16.720 -0.0808  0.1560 -0.3413
 3739W        W46730  26.896  25.053  13.242 -0.0203  0.0381 -0.1646
 3740W        W46731  23.849   1.903  13.554  0.0837  0.1020 -0.3076
 3741W        W46732  18.539  30.795   1.266  0.0497 -0.1447 -0.1440
 3742W        W46733  29.366  12.507  27.960  0.1373 -0.3477 -0.1223
 3743W        W46734  31.950   7.199  18.484 -0.0244  0.1080  0.3501
 3744W        W46735  19.528  21.881  17.366  0.4098 -0.0551 -0.2708
 3745W        W46736  27.489   2.399  12.951 -0.0953  0.0553  0.0526
 3746W        W46737  25.094   5.461  19.343  0.0627  0.0097 -0.1688
 3747W        W46738   2.944  13.724  22.003  0.1570 -0.1223  0.2878
 3748W        W46739  34.468  18.685  18.288  0.0590 -0.2230 -0.1039
 3749W        W46740  15.357   6.354  16.486  0.0711 -0.0920  0.1802
 3750W        W46741  13.500  32.963  28.899  0.1340 -0.0064 -0.0166
 3751W        W46742  21.221  32.385  15.219 -0.0456 -0.0183 -0.0046
 3752W        W46743  20.363  33.282  16.189  0.0898 -0.0411  0.1221
 3753W        W46744  26.719  10.323  23.294  0.3710  0.0303  0.1387
 3754W        W46745  26.013  17.818  15.138  0.2693  0.0104 -0.1311
 3755W        W46746  32.858   3.832  16.468  0.1964  0.3218  0.0479
 3756W        W46747  10.327   7.233  17.014  0.0709 -0.1709  0.1600
 3757W        W46748  23.261   0.029  19.299 -0.0774 -0.2575 -0.0947
 3758W        W46749  27.510   8.071  14.273 -0.2312 -0.2779 -0.1673
 3759W        W46750  20.467  14.171  17.670  0.1863 -0.2485 -0.0129
 3760W        W46751  17.930   3.276  22.944  0.2816  0.0544 -0.2172
 3761W        W46752  16.090   1.857  21.594 -0.1154 -0.1000 -0.2309
 3762W        W46753  13.165   6.891  20.065 -0.2367 -0.1179 -0.0121
 3763W        W46754  14.866   8.430  20.147 -0.1704 -0.1910 -0.0136
 3764W        W46755   2.659  21.559  28.347  0.0092  0.1202 -0.2196
 3765W        W46756  25.263   2.462  25.089 -0.2081  0.0482 -0.0859
 3766W        W46757  23.111  13.853  19.751 -0.1339 -0.0883  0.1701
 3767W        W46758  11.053  15.260  20.861  0.0484 -0.1355  0.0056
 3768W        W46759  19.814   3.939  18.606  0.3118  0.2033  0.0662
 3769W        W46760  16.794  28.958  20.155 -0.1096  0.0374 -0.1122
 3770W        W46761   8.445  30.572  19.026  0.4474  0.1151  0.1813
 3771W        W46762   1.337  18.648  18.253 -0.1667 -0.1810 -0.3636
 3772W        W46763  33.738  15.813  22.736 -0.1726  0.2694  0.0469
 3773W        W46764  25.394  25.983  19.312 -0.0595  0.3238 -0.0687
 3774W        W46765  28.811  17.913  17.257 -0.1015  0.0655 -0.2696
 3775W        W46766   5.362  18.679  17.928 -0.3302 -0.0899  0.0579
 3776W        W46767   9.039  12.430  26.815  0.0542  0.0465 -0.2046
 3777W        W46768  33.911  18.816  26.766  0.0984 -0.0524  0.0401
 3778W        W46769  27.492  27.111  15.943  0.0832  0.1751 -0.0310
 3779W        W46770  10.884  24.087  18.575  0.0121  0.0544  0.4122
 3780W        W46771   8.932  21.645  21.252 -0.1073  0.2135  0.1065
 3781W        W46772  27.398  14.533  21.109  0.2809 -0.4779 -0.1585
 3782W        W46773  30.231   8.279  24.682 -0.2221 -0.0254 -0.2543
 3783W        W46774  25.458   4.518  16.959  0.1525 -0.1159  0.2033
 3784W        W46775  14.111  15.862   2.213 -0.0181 -0.0420  0.0049
 3785W        W46776  20.698  13.511  22.420 -0.0735  0.1126 -0.0384
 3786W        W46777   8.884   4.823  15.585 -0.1577  0.3470  0.0064
 3787W        W46778  34.338  26.272   3.653 -0.0235  0.1456  0.0266
 3788W        W46779  14.362  20.713  16.840  0.4297 -0.1525  0.0952
 3789W        W46780  19.555  31.618  19.216  0.0625 -0.1240  0.0198
 3790W        W46781   6.553  19.118   3.256 -0.1219 -0.0261  0.3959
 3791W        W46782  17.266  12.554  14.352 -0.0791 -0.3582  0.0211
 3792W        W46783  22.413  29.331  29.120 -0.0591 -0.4254  0.3341
 3793W        W46784  32.843  29.981   7.775  0.0633  0.0217 -0.1762
 3794W        W46785  28.511  29.052  18.222  0.0944  0.0522  0.1677
 3795W        W46786  27.371  24.999   4.396 -0.1867 -0.1224  0.0154
 3796W        W46787  13.859   3.599  21.159  0.3279  0.4315  0.0292
 3797W        W46788  29.843   1.552  16.513 -0.2479  0.0666  0.1225
 3798W        W46789  26.063  18.966  16.355  0.4171  0.1470  0.0936
 3799W        W46790  17.463   1.047   2.883 -0.0279  0.1424  0.1279
 3800W        W46791   4.067  11.759  24.992 -0.3218 -0.2487  0.0117
 3801W        W46792  26.832   6.087   1.993 -0.1838  0.0304 -0.1896
 3802W        W46793  27.471  34.165  17.185 -0.1382 -0.0400  0.1110
 3803W        W46794   2.490   1.733   3.625 -0.1366 -0.2880  0.0994
 3804W        W46795  13.234  14.155  17.940  0.0916  0.2501  0.0372
 3805W        W46796  27.159  10.732  27.658 -0.3211 -0.3103 -0.1441
 3806W        W46797  30.341  31.028  25.035  0.0183 -0.0693 -0.2651
 3807W        W46798   8.994  15.766  27.170  0.1140 -0.0642  0.1828
 3808W        W46799  15.463  33.701  18.635  0.0361 -0.2872 -0.1363
 3809W        W46800  25.519  21.186  25.956  0.1746 -0.2278 -0.1266
 3810W        W46801  24.015   1.682  22.701  0.1377 -0.2751 -0.0984
 3811W        W46802   3.726  26.778  14.214  0.0940  0.0917  0.0321
 3812W        W46803  28.899   8.268   5.546 -0.0370 -0.3080  0.3434
 3813W        W46804  31.379  18.212   0.963 -0.0465  0.2128  0.2436
 3814W        W46805  21.611  13.225  20.075  0.1860  0.1381  0.2308
 3815W        W46806   9.612   7.822  18.164 -0.0794 -0.0170 -0.2449
 3816W        W46807  27.318  19.093  27.222 -0.1450  0.2090  0.0492
 3817W        W46808  25.808  18.196  17.719  0.1437 -0.1889 -0.0281
 3818W        W46809  20.384  22.054   1.790 -0.3596 -0.1225 -0.0332
 3819W        W46810  23.780  21.023  12.055 -0.1369 -0.2239 -0.0281
 3820W        W46811  15.597  33.508   3.272  0.0128  0.1139 -0.2184
 3821W        W46812  32.118   7.445  20.106 -0.0268  0.0606  0.0519
 3822W        W46813  23.755   6.637   7.336  0.0132 -0.3374 -0.2413
 3823W        W46814  20.206  25.058  16.200  0.1967 -0.0225  0.0325
 3824W        W46815  31.791  13.774   6.925 -0.0641  0.0837  0.1393
 3825W        W46816  28.541  15.504  27.864 -0.2168  0.1817  0.3738
 3826W        W46817  14.356  11.256   1.910 -0.0918 -0.1085 -0.1723
 3827W        W46818  29.670  16.678  20.800 -0.0685 -0.1798  0.0413
 3828W        W46819  31.513  14.615   1.068  0.4891  0.1056 -0.0995
 3829W        W46820  32.448  11.548   7.150 -0.0906 -0.0634 -0.0933
 3830W        W46821  21.900   8.729  20.243  0.0499 -0.2776  0.3159
 3831W        W46822  23.428  19.213  19.914  0.1972 -0.1207 -0.1194
 3832W        W46823   9.401   2.204  15.552  0.0751 -0.0028  0.1270
 3833W        W46824  30.302   5.068   3.748 -0.0937 -0.2388 -0.0393
 3834W        W46825  23.524  15.452  16.791 -0.3466  0.0786 -0.1501
 3835W        W46826  25.065   8.255  14.652 -0.3749 -0.0081 -0.0304
 3836W        W46827  26.823   9.221  14.973  0.0074  0.0279  0.4830
 3837W        W46828  20.671  19.377  20.444  0.3051 -0.1673 -0.3242
 3838W        W46829  12.069  11.325   3.434  0.1813 -0.4690 -0.1164
 3839W        W46830   0.035  19.860  25.803 -0.1263 -0.0996  0.3654
 3840W        W46831  10.601  22.992  20.110 -0.2273 -0.0742  0.0251
 3841W        W46832  22.975   6.801  23.487  0.0523 -0.1342  0.3403
 3842W        W46833  33.417   7.849  24.810 -0.1585 -0.1430 -0.2652
 3843W        W46834  31.643  16.438  25.312  0.2024  0.5332  0.1722
 3844W        W46835  13.061   9.401  25.083  0.0555 -0.0311  0.0968
 3845W        W46836  19.873  17.493  13.035 -0.0266 -0.0305  0.3933
 3846W        W46837  24.285   8.731  14.734 -0.0230  0.0821  0.1890
 3847W        W46838  20.302  13.319  19.622 -0.0369 -0.1438  0.0271
 3848W        W46839  15.189  25.083  22.970  0.0170 -0.0827  0.1250
 3849W        W46840   5.935  15.605  15.680 -0.0041  0.0572  0.4270
 3850W        W46841  31.441  22.010  22.630  0.2893 -0.0842 -0.2584
 3851W        W46842  30.568  34.263  16.998 -0.1822  0.0301  0.2428
 3852W        W46843  23.445   6.580  20.687 -0.0602 -0.2775  0.0322
 3853W        W46844  28.621  21.164  25.742  0.0340  0.3360  0.0834
 3854W        W46845   5.825  34.020  17.869  0.1115  0.0105 -0.2497
 3855W        W46846  26.317  10.481  16.675 -0.0522 -0.0881 -0.2999
 3856W        W46847  23.681  17.365   8.171 -0.0051 -0.1340 -0.1434
 3857W        W46848  18.394  18.972   7.019  0.0378 -0.1935  0.1444
 3858W        W46849  15.728   8.366   1.745  0.1557 -0.0865  0.0995
 3859W        W46850  12.947   4.708  16.093  0.1993 -0.3334 -0.1058
 3860W        W46851  27.950  28.158  17.374 -0.1015 -0.0135 -0.3235
 3861W        W46852  22.349   8.402  17.830  0.2531  0.4063 -0.0178
 3862W        W46853  32.314  28.177  27.822  0.2142  0.0795 -0.0373
 3863W        W46854  17.364  33.646   6.632 -0.0514  0.0595  0.2041
 3864W        W46855  33.776   9.211  20.165 -0.2540 -0.1491 -0.0939
 3865W        W46856  20.280  12.725  16.074 -0.1030  0.0420  0.0659
 3866W        W46857  19.897   7.349  24.383  0.0770  0.0568  0.1356
 3867W        W46858  27.575  32.805  14.691 -0.1172 -0.0144  0.1073
 3868W        W46859  14.563   7.913  18.827  0.1876  0.0950 -0.0388
 3869W        W46860  16.297  18.572  12.778 -0.1244  0.4735  0.3038
 3870W        W46861  23.341   9.793  18.342  0.2813 -0.3887 -0.2453
 3871W        W46862  11.767  30.156  28.192 -0.0466 -0.3223 -0.1104
 3872W        W46863  24.224  18.430  27.906 -0.0134 -0.1234 -0.2663
 3873W        W46864  23.307  17.155  19.549 -0.2107  0.2321  0.4120
 3874W        W46865  21.078  14.658  25.205 -0.1357 -0.2511  0.1702
 3875W        W46866  12.490   3.523  24.172 -0.1482 -0.1292  0.2976
 3876W        W46867  13.088  12.130   2.668 -0.2165 -0.1911  0.0493
 3877W        W46868  17.140  25.204   7.919  0.0792  0.0525 -0.1754
 3878W        W46869  24.583  13.773   0.817 -0.1588 -0.2220 -0.0278
 3879W        W46870  22.485  27.486  21.620  0.4049 -0.0721  0.2150
 3880W        W46871   2.215   8.741   2.923 -0.1308 -0.1771 -0.0692
 3881W        W46872  22.062   4.363  13.633  0.0655  0.1823 -0.0736
 3882W        W46873   3.897  23.024   0.025 -0.4229 -0.0225 -0.0202
 3883W        W46874   6.099   7.976  19.383 -0.0798  0.0747 -0.5745
 3884W        W46875  26.646  34.213  20.825 -0.1281  0.1339  0.2835
 3885W        W46876  29.417  30.241  16.538 -0.0293 -0.1050 -0.0596
 3886W        W46877  22.154   6.994   2.203 -0.0117  0.0382  0.0069
 3887W        W46878  28.365  10.934  26.521  0.2152  0.1964 -0.0199
 3888W        W46879  32.358  34.439  28.486  0.0641 -0.1334  0.2684
 3889W        W46880  30.056   3.590  20.264 -0.1610  0.0256 -0.1778
 3890W        W46881  33.080  23.679  20.119  0.0113 -0.3967  0.2439
 3891W        W46882  21.972  33.464  14.303 -0.0111  0.2391 -0.0145
 3892W        W46883   3.644  15.302  20.609 -0.3201  0.0879  0.5338
 3893W        W46884  25.482  17.467  27.350 -0.1030  0.0844 -0.2831
 3894W        W46885  17.151  23.372  22.887 -0.2901 -0.1209 -0.1159
 3895W        W46886  22.548  14.837  13.731  0.1038  0.1011 -0.1204
 3896W        W46887  22.053  10.068  13.693  0.1645 -0.0387 -0.0343
 3897W        W46888  12.928  27.806  14.580  0.1305  0.1997 -0.0002
 3898W        W46889  32.351  31.611  16.836  0.0185  0.2306 -0.1909
 3899W        W46890  11.654  20.394  25.640 -0.1320  0.3203 -0.0803
 3900W        W46891  27.162  16.213   9.622 -0.1113  0.1245 -0.1436
 3901W        W46892  22.346  15.218  25.733  0.0314  0.3147 -0.1177
 3902W        W46893  26.158  26.652  19.409 -0.0502 -0.3213 -0.0737
 3903W        W46894   1.591  14.203  20.028 -0.1731 -0.0213 -0.1150
 3904W        W46895  25.128   6.739  21.903 -0.1291 -0.0888 -0.0536
 3905W        W46896  27.152  23.514  20.379  0.3855 -0.5175  0.3257
 3906W        W46897  21.159  11.090  20.505  0.0222 -0.2547 -0.1753
 3907W        W46898  30.105  20.895  20.022 -0.3461 -0.4865 -0.0632
 3908W        W46899  19.723  18.405  13.129  0.1646  0.1971  0.0057
 3909W        W46900  20.476  13.992   8.958  0.0561  0.1513  0.2064
 3910W        W46901   6.191  22.642  21.220 -0.1232  0.2365  0.0359
 3911W        W46902  12.473  15.788  14.496 -0.2399  0.1853 -0.1037
 3912W        W46903  20.813  20.056  16.261  0.1459  0.0925 -0.2220
 3913W        W46904  29.090  15.417  17.788 -0.2675  0.0709  0.0382
 3914W        W46905  25.833  18.379  17.251  0.1207 -0.1070  0.2105
 3915W        W46906  21.867  17.972  15.113 -0.3519  0.0283  0.2596
 3916W        W46907  22.323  15.287  22.491  0.0203 -0.0213 -0.0000
 3917W        W46908  26.344   7.019  13.908  0.0286  0.0598  0.0590
 3918W        W46909  22.686  12.317  14.878  0.0177  0.3018 -0.3406
 3919W        W46910   1.902   4.675  21.960  0.0579  0.0872  0.0518
 3920W        W46911  10.779  27.871  20.744 -0.1929 -0.0922 -0.0341
 3921W        W46912  22.522  15.101   8.191  0.2269 -0.2368 -0.2074
 3922W        W46913  25.742   3.976  14.609 -0.1607  0.1819  0.1877
 3923W        W46914  29.692   8.142  15.009 -0.0487 -0.0417  0.1960
 3924W        W46915  21.679  14.077  14.117  0.3191  0.2745 -0.4440
 3925W        W46916   5.540   1.881  23.056 -0.0465 -0.0909 -0.0101
 3926W        W46917  19.198  12.249  18.558 -0.2917 -0.1114 -0.2566
 3927W        W46918  21.814  14.759  28.276 -0.1668  0.1093  0.0453
 3928W        W46919  33.578   2.997  22.755 -0.1993 -0.1235  0.2531
 3929W        W46920  30.499   5.199   6.317 -0.0859 -0.2234  0.1219
 3930W        W46921  26.277  19.555  25.303  0.2916  0.0247 -0.0340
 3931W        W46922  18.756   9.191   0.836 -0.0863  0.1637 -0.0731
 3932W        W46923  19.176  21.762  26.317  0.1089 -0.2445 -0.0679
 3933W        W46924  29.613  14.537   4.810 -0.0071 -0.5669  0.2392
 3934W        W46925  24.592  20.637  20.660  0.1863 -0.2645  0.1795
 3935W        W46926  22.125   7.182  18.260  0.0013  0.1171 -0.3654
 3936W        W46927  27.591  32.227  12.887 -0.2022  0.0110  0.1457
 3937W        W46928  17.773  14.841  15.833  0.2370 -0.4729  0.0476
 3938W        W46929  25.004  11.029  20.139  0.0413 -0.1777 -0.2571
 3939W        W46930  33.196  23.369  22.557  0.1772  0.0438 -0.4537
 3940W        W46931  16.458   4.656  18.317 -0.0296  0.1765  0.2410
 3941W        W46932  32.895  19.414  19.045 -0.0754 -0.4265  0.0153
 3942W        W46933  28.723  16.587  26.904 -0.1372  0.0179  0.0752
 3943W        W46934  29.744  19.469  18.475 -0.1286  0.2114 -0.0273
 3944W        W46935  29.170   7.561  25.724  0.0966  0.3034 -0.0260
 3945W        W46936  26.866  12.130   5.859  0.0820 -0.2228 -0.3123
 3946W        W46937  26.754  21.461  19.237  0.0033 -0.1089  0.2018
 3947W        W46938  15.647   8.002  24.326  0.1019  0.2263  0.3125
 3948W        W46939  21.423   8.665  14.278  0.1568 -0.1031  0.1487
 3949W        W46940   7.882  19.775  21.877 -0.1111  0.0566  0.1736
 3950W        W46941   1.368  30.094  19.535 -0.2471  0.0315 -0.3680
 3951W        W46942  19.451  21.179   2.950  0.2013  0.0207  0.2332
 3952W        W46943  32.978   9.321  10.160  0.2989  0.1747 -0.0515
 3953W        W46944  16.791   0.430  17.079 -0.1003  0.0038  0.0844
 3954W        W46945  21.214  22.831  17.981 -0.0860 -0.1340 -0.3924
 3955W        W46946  23.575  25.318  25.546  0.0326  0.1549  0.3017
 3956W        W46947  17.492  10.460  24.204 -0.1731 -0.2280  0.1220
 3957W        W46948   8.368  25.151  16.843  0.0949 -0.2247 -0.0330
 3958W        W46949  34.113  12.411   5.540 -0.1455  0.0362 -0.2539
 3959W        W46950  29.282  16.789  19.290  0.3063  0.1697 -0.0086
 3960W        W46951  27.511  18.781  22.806 -0.0182 -0.1652 -0.1080
 3961W        W46952  23.473  30.953  26.736  0.0441 -0.0628  0.0956
 3962W        W46953  34.394   3.232  14.926 -0.0181  0.0152  0.2240
 3963W        W46954   2.388  28.465  16.152 -0.3640  0.0608 -0.0646
 3964W        W46955  31.146  30.416  14.858  0.1032  0.0833  0.2250
 3965W        W46956  19.365   6.218  18.597  0.2113 -0.2603  0.0950
 3966W        W46957  14.769   3.354   1.008 -0.0667 -0.0809 -0.4262
 3967W        W46958  14.331  10.426   2.264 -0.3751  0.2130 -0.2332
 3968W        W46959  19.939  13.388   0.686 -0.0790  0.0593  0.1380
 3969W        W46960  11.535  18.555  19.458  0.0283  0.1060 -0.1430
 3970W        W46961  25.895   1.706   7.250 -0.0624 -0.0933  0.2412
 3971W        W46962  19.709  20.645   4.434  0.0099  0.2228  0.1491
 3972W        W46963  18.956  30.844   3.682 -0.1321 -0.0778  0.0759
 3973W        W46964  34.158  14.161  17.926 -0.2893  0.1968  0.0197
 3974W        W46965  25.718   8.878  15.832 -0.0234  0.2387 -0.1516
 3975W        W46966  15.817  13.484  21.722 -0.0745  0.1390  0.4144
 3976W        W46967  28.378  20.947  16.672 -0.2218  0.0626  0.1822
 3977W        W46968   0.907  18.302  27.270 -0.2479 -0.2101  0.1184
 3978W        W46969  13.306  25.921  18.152  0.2731 -0.1571  0.0642
 3979W        W46970  31.908  28.694  21.083  0.2365  0.1169  0.2333
 3980W        W46971  19.829  13.702  26.167 -0.2009  0.0497 -0.0228
 3981W        W46972  12.392  22.243  14.114  0.2285 -0.1686 -0.0882
 3982W        W46973  20.924  11.731  14.261 -0.0125  0.0480 -0.1212
 3983W        W46974  28.891   5.866  18.103 -0.1380 -0.2450 -0.3473
 3984W        W46975   7.150  24.747  22.987  0.0988 -0.0887 -0.0163
 3985W        W46976  15.143  34.250  16.488  0.0312  0.1303  0.0454
 3986W        W46977  21.191   1.275  20.366 -0.0564  0.1178  0.0582
 3987W        W46978  19.950   7.155  23.870  0.3578  0.0955 -0.0921
 3988W        W46979   9.727   7.182  18.143  0.1164  0.2075 -0.2720
 3989W        W46980  23.564  13.888  19.857 -0.0880 -0.0242  0.0019
 3990W        W46981  24.044  14.750  19.344 -0.0827 -0.0044  0.1145
 3991W        W46982  32.683  34.529  28.110  0.1857 -0.2251  0.1707
 3992W        W46983   1.797  13.792  24.453 -0.0570 -0.1321 -0.0211
 3993W        W46984  20.023   9.310  16.219 -0.1367 -0.1069  0.3064
 3994W        W46985  32.742   9.871  23.805 -0.0102  0.1938 -0.2568
 3995W        W46986  14.370  15.272  15.436  0.0281  0.1556 -0.0776
 3996W        W46987  27.570   5.226  21.932  0.3823 -0.1127  0.1699
 3997W        W46988  17.837  19.053  12.185 -0.0044  0.0840  0.1073
 3998W        W46989  23.711  16.964  21.815  0.1240 -0.1086  0.0739
 3999W        W46990  30.981  15.000  23.169  0.2170  0.1697 -0.2406
 4000W        W46991  21.250  13.977  24.516  0.0067 -0.1078  0.2011
 4001W        W46992   8.685   7.000  24.000 -0.1478  0.1698  0.0350
 4002W        W46993  19.336  13.316  16.653 -0.2009 -0.1089 -0.1556
 4003W        W46994  12.014   5.749  18.268 -0.4463  0.2612  0.1204
 4004W        W46995  25.192  21.684  14.150 -0.0480  0.0415  0.0364
 4005W        W46996  31.068  30.282  19.156  0.4185  0.1438  0.4099
 4006W        W46997  22.713   4.344   5.214 -0.0822 -0.1534 -0.0699
 4007W        W46998  25.089   4.137  19.280  0.0293 -0.0684  0.1533
 4008W        W46999  30.229   9.043  13.618 -0.0633 -0.0413  0.1329
 4009W        W47000  21.868  15.034  16.331  0.1998 -0.1161 -0.0029
 4010W        W47001  24.609  16.214   2.938 -0.0958 -0.1572  0.3719
 4011W        W47002  26.169  13.639  23.143 -0.3702 -0.2292  0.0966
 4012W        W47003  23.275  14.086  22.913 -0.2476  0.2088  0.0731
 4013W        W47004  29.188  18.635  17.776 -0.0368  0.0160 -0.1124
 4014W        W47005  29.698   6.279  17.517 -0.2675 -0.1259  0.2184
 4015W        W47006   3.147  12.469  26.094 -0.0155  0.0257  0.1777
 4016W        W47007  20.718   6.998   6.536  0.2066 -0.0957  0.3169
 4017W        W47008  15.952  23.185  18.539  0.3032 -0.2598  0.0159
 4018W        W47009  19.689  10.201  26.497  0.0797 -0.0609  0.2437
 4019W        W47010  29.755  25.364  14.012  0.0719 -0.3153 -0.0739
 4020W        W47011   2.681  11.708  24.853 -0.1198 -0.2060 -0.4519
 4021W        W47012  28.152  32.456  14.078  0.2814 -0.1390  0.0190
 4022W        W47013  22.470  19.116  27.927 -0.1828 -0.0188  0.2842
 4023W        W47014  25.739   6.236  23.521  0.2024 -0.0431  0.3210
 4024W        W47015  19.745  12.392  19.240  0.3066 -0.1151  0.1939
 4025W        W47016  17.989  14.339   5.111 -0.1502 -0.2115 -0.1226
 4026W        W47017  29.098  24.970  14.155 -0.0946  0.0665  0.0756
 4027W        W47018  21.063   6.630  28.133 -0.3365 -0.0813  0.2438
 4028W        W47019  22.870  20.164  14.998  0.0486 -0.1949 -0.1587
 4029W        W47020  11.321   0.900  24.515 -0.3153  0.1659  0.1625
 4030W        W47021  22.584   3.081  29.156 -0.1848  0.2585 -0.2175
 4031W        W47022  19.108  23.460  18.034 -0.2112  0.0125 -0.0035
 4032W        W47023  13.265  15.162  17.492  0.2764  0.1624 -0.1184
 4033W        W47024  14.621  26.247  22.646 -0.1642  0.1249 -0.1732
 4034W        W47025  31.623  27.819  20.394  0.1913 -0.1382  0.3524
 4035W        W47026  21.820  14.439  13.889 -0.0483 -0.0599  0.3059
 4036W        W47027  15.639  21.045  15.186  0.1585 -0.4754  0.0356
 4037W        W47028  10.376  27.694  23.723 -0.2451 -0.0322 -0.3031
 4038W        W47029  18.033   2.756  20.358 -0.1422 -0.2495 -0.1510
 4039W        W47030  23.175  26.783  25.895 -0.1673  0.0829  0.1264
 4040W        W47031  11.417   2.296   3.968  0.3227  0.3248  0.0170
 4041W        W47032  28.143   8.459  19.029  0.1112 -0.1597 -0.0772
 4042W        W47033  20.496  18.592  12.151 -0.0122  0.0862 -0.0921
 4043W        W47034  21.373  23.507   0.126 -0.2061  0.0186 -0.2588
 4044W        W47035  22.369  24.967   1.300 -0.0086  0.1319  0.0449
 4045W        W47036   0.284  28.277  25.362 -0.0103  0.3620 -0.3989
 4046W        W47037  27.285  26.678  26.476  0.3254 -0.1611 -0.2670
 4047W        W47038  33.782  15.619  24.983 -0.0445 -0.1713 -0.0765
 4048W        W47039  29.594   9.364  10.210  0.0059  0.3204  0.1548
 4049W        W47040  29.700  23.759  21.732  0.3760  0.1278 -0.1234
 4050W        W47041  16.789  18.636  14.141 -0.0912  0.2307  0.1016
 4051W        W47042  20.962   2.258   6.880 -0.1569 -0.0945  0.1632
 4052W        W47043   7.447  15.614  19.642  0.1366  0.2496  0.2774
 4053W        W47044   7.870  15.950  16.995 -0.1922  0.2533  0.4931
 4054W        W47045  27.417  20.220  17.642 -0.1588  0.0008  0.0338
 4055W        W47046   2.289  20.041  16.303 -0.0701  0.0246 -0.2294
 4056W        W47047  25.283  21.472  24.448 -0.0174 -0.0490  0.1573
 4057W        W47048  27.358  25.519  19.103 -0.2311  0.0260 -0.1344
 4058W        W47049   0.323  25.021  19.633 -0.2332 -0.0549 -0.1643
 4059W        W47050   3.866  33.171  21.497  0.2628  0.0884 -0.2576
 4060W        W47051  30.484  16.278  16.151 -0.1278 -0.3380  0.2245
 4061W        W47052  31.551  13.347  27.915  0.1018 -0.2068 -0.1802
 4062W        W47053  24.162   1.671  14.057 -0.0564  0.3923  0.1424
 4063W        W47054  11.733   8.208  17.426 -0.1066  0.1808  0.1039
 4064W        W47055  23.209  16.576  21.956 -0.1244  0.0569  0.2634
 4065W        W47056  19.203  30.310  20.927  0.1636  0.2802  0.1420
 4066W        W47057  27.909   6.562  22.533  0.0316 -0.1819 -0.4037
 4067W        W47058   4.216   5.256  17.552 -0.2024  0.0263 -0.0573
 4068W        W47059  23.071  26.171  12.992 -0.2431  0.1969 -0.0483
 4069W        W47060  19.731  14.094  23.146  0.0518 -0.2084  0.0280
 4070W        W47061  12.140   5.070  28.745 -0.1093 -0.0826  0.2081
 4071W        W47062  33.738  34.253  21.391 -0.1386 -0.1448 -0.0406
 4072W        W47063  16.688  10.532  21.107 -0.0203 -0.0636 -0.1336
 4073W        W47064   8.909  12.430  27.271 -0.0919  0.2475 -0.0530
 4074W        W47065  34.048  10.360  27.145 -0.1262  0.0525 -0.1321
 4075W        W47066  14.976  13.235  14.999 -0.0258 -0.0990  0.0538
 4076W        W47067  15.823   2.524  29.066  0.0720  0.1578 -0.2253
 4077W        W47068   3.180  10.101  19.840  0.0371  0.1553  0.2639
 4078W        W47069   4.154  17.725  22.651 -0.2748  0.0523 -0.1510
 4079W        W47070  27.568  13.615  15.320  0.1813 -0.1016  0.1466
 4080W        W47071  28.180   1.893  22.064  0.2186 -0.0709 -0.3365
 4081W        W47072  26.497  17.850  27.180 -0.0609  0.1450 -0.3337
 4082W        W47073   3.863  27.943  26.443 -0.1907  0.2302  0.0210
 4083W        W47074  28.611  10.171   8.379 -0.1162  0.0087  0.0062
 4084W        W47075  10.352  17.783   8.110  0.1366  0.1476  0.1584
 4085W        W47076   1.316   0.813  14.691  0.0338 -0.2048  0.1160
 4086W        W47077  13.164   8.928  15.501  0.2727  0.3676 -0.0942
 4087W        W47078  31.608  12.694  17.921 -0.0056  0.3548 -0.0295
 4088W        W47079  21.407  24.651  20.803 -0.3287  0.1893 -0.2035
 4089W        W47080  23.501  21.359  19.928 -0.0192  0.3561 -0.2778
 4090W        W47081  33.900  30.502  19.853 -0.0883  0.1106 -0.4143
 4091W        W47082  33.813  18.874   5.531  0.0869  0.1860 -0.1174
 4092W        W47083  20.103  20.607  15.339 -0.4365  0.2144  0.1597
 4093W        W47084  15.593  33.341  15.710 -0.1351 -0.1551  0.3771
 4094W        W47085   0.630  25.283  28.498 -0.4130  0.0761  0.3544
 4095W        W47086  22.965  33.074  14.081  0.3977  0.4307  0.0120
 4096W        W47087  20.066   8.882  19.552 -0.0075 -0.0147  0.0316
 4097W        W47088   1.372  12.892  27.876  0.1062 -0.2786 -0.0645
 4098W        W47089  21.664   9.878  15.358 -0.2070 -0.2035  0.0907
 4099W        W47090  18.705  22.646  15.654  0.1439  0.2856 -0.2335
 4100W        W47091  32.142   2.507   9.037  0.0372 -0.1591  0.0335
 4101W        W47092  25.550   2.822   2.481  0.0638 -0.1994 -0.0843
 4102W        W47093  29.960   9.321  26.642  0.4227  0.0617 -0.1352
 4103W        W47094  32.271   7.929  19.479  0.1236 -0.0160 -0.0842
 4104W        W47095  24.343  19.224  16.331 -0.0443  0.1878 -0.0191
 4105W        W47096  25.001  23.271  18.631  0.2069 -0.2048 -0.1207
 4106W        W47097  22.655  26.434   2.572  0.1190 -0.4357  0.3969
 4107W        W47098  31.038  10.940  16.636 -0.0389  0.1002  0.2916
 4108W        W47099  22.055   6.106  29.097  0.1823  0.2127  0.0402
 4109W        W47100   2.723  12.703  18.887 -0.1026 -0.2011 -0.0989
 4110W        W47101  32.027  20.297  21.148  0.1770 -0.1042 -0.0792
 4111W        W47102  20.770   4.388   7.935  0.0063  0.0064 -0.1798
 4112W        W47103   6.710  33.722  29.190  0.5215 -0.0337 -0.3830
 4113W        W47104  19.117  11.609  23.056 -0.1211 -0.0491 -0.0285
 4114W        W47105  22.866  20.133  20.448 -0.0745  0.0107 -0.5472
 4115W        W47106  19.824  13.241  25.965  0.3040 -0.2335  0.0909
 4116W        W47107  25.330   2.064  19.152  0.2389 -0.1916  0.1361
 4117W        W47108  22.942  16.038  17.242 -0.1715  0.1055 -0.0768
 4118W        W47109  25.351  12.276  20.105  0.4090  0.0852  0.0491
 4119W        W47110   0.784  23.321   0.487  0.0801  0.0091 -0.0594
 4120W        W47111  34.457   7.829  20.123  0.0266 -0.1034 -0.1635
 4121W        W47112  27.370  26.098  25.201  0.0719 -0.0821  0.0062
 4122W        W47113  10.310   3.905  26.238 -0.2731 -0.1319  0.0767
 4123W        W47114  14.640   4.830  26.440 -0.1333  0.1794 -0.0964
 4124W        W47115  29.784  15.363  21.562 -0.2729 -0.2874  0.0268
 4125W        W47116  20.785  15.456  21.722 -0.2732  0.3557  0.2786
 4126W        W47117  28.041   0.371   0.746 -0.0561  0.0509 -0.0628
 4127W        W47118  29.633  10.434  19.695  0.1843  0.0072  0.0838
 4128W        W47119  23.052   8.592  16.920  0.0820  0.1101 -0.0421
 4129W        W47120  33.763  14.527  19.071 -0.0752 -0.0086  0.0448
 4130W        W47121  26.450  19.482  17.700 -0.0903 -0.1395  0.1330
 4131W        W47122  16.299   4.919  15.108  0.2340 -0.0421 -0.1369
 4132W        W47123  11.651   7.719  15.654 -0.1825  0.0388 -0.0636
 4133W        W47124  29.479  10.404  15.271 -0.0672 -0.1032 -0.1624
 4134W        W47125  12.577  15.548  29.110  0.0035 -0.1875  0.3423
 4135W        W47126  27.429   9.019  27.305 -0.2121 -0.2925 -0.1872
 4136W        W47127  29.897  11.429  28.455  0.2557  0.2080 -0.2681
 4137W        W47128  26.581  18.623  14.997  0.0775  0.2086 -0.0483
 4138W        W47129  27.185   2.589  21.444 -0.0672  0.0473 -0.0042
 4139W        W47130  17.647  33.745  21.639  0.1031  0.2840 -0.3105
 4140W        W47131   9.765  17.763  16.691 -0.0155  0.0536 -0.0755
 4141W        W47132  17.673   6.538  15.253  0.0831 -0.0743  0.1504
 4142W        W47133  21.557  25.479   1.029 -0.1369 -0.0088 -0.0991
 4143W        W47134  21.644   7.282  21.180 -0.1059 -0.0757 -0.3056
 4144W        W47135  25.705  15.287  16.466  0.3948 -0.0271  0.0092
 4145W        W47136  12.349  14.062  15.267 -0.1947 -0.3275  0.2818
 4146W        W47137  26.587  18.103  25.698  0.2698  0.0325 -0.2966
 4147W        W47138  14.788  25.964  18.628  0.1490  0.1258 -0.1818
 4148W        W47139  20.685   7.916  27.445 -0.1315 -0.0448  0.0022
 4149W        W47140  15.876   2.574   0.280  0.0964  0.2896  0.1740
 4150W        W47141  25.729   5.957  19.200 -0.0974  0.0818  0.0119
 4151W        W47142   8.897  15.646  21.226  0.2970  0.0104  0.0981
 4152W        W47143  23.841  18.987  20.648 -0.2550  0.2137  0.1323
 4153W        W47144  22.036   6.095  26.159  0.1781 -0.0330  0.0573
 4154W        W47145  34.381  33.254  18.855 -0.0455 -0.1405  0.4334
 4155W        W47146  13.517   6.591   4.047  0.0492  0.0080  0.0281
 4156W        W47147  19.555  14.237  27.825  0.1877  0.2791 -0.0955
 4157W        W47148  31.600   4.943  14.275  0.1779 -0.0446  0.2128
 4158W        W47149  27.891  11.846   1.960  0.1060 -0.1448 -0.1722
 4159W        W47150  23.188  30.855  15.218  0.0212  0.1200 -0.0734
 4160W        W47151   0.468  27.051  20.218 -0.0906  0.3213 -0.0189
 4161W        W47152  14.549  21.930  20.697  0.0450 -0.0703  0.0177
 4162W        W47153  22.681  15.113  24.272  0.1018  0.2998 -0.0756
 4163W        W47154  14.730  15.176   1.984 -0.1732 -0.1563 -0.1070
 4164W        W47155  17.747   7.749  18.726  0.0088 -0.1046  0.3216
 4165W        W47156  32.218  17.742  20.812  0.1048 -0.1203  0.1753
 4166W        W47157  16.364   9.922  14.019 -0.1457  0.0207 -0.2760
 4167W        W47158   1.859   2.185  20.159  0.0498 -0.0142  0.0245
 4168W        W47159  11.510  32.563  28.351  0.1197 -0.1362  0.4532
 4169W        W47160  19.618  15.986  13.863 -0.1980 -0.0808 -0.1049
 4170W        W47161  13.887  34.507  16.852 -0.0154  0.0073  0.0196
 4171W        W47162  27.651   5.630  18.929 -0.0869 -0.3282  0.3461
 4172W        W47163  12.286  21.368  24.664 -0.3306 -0.1961  0.1454
 4173W        W47164  13.223   9.362  20.370  0.0571  0.3154 -0.2614
 4174W        W47165  17.762  23.845  14.092  0.1626 -0.5829 -0.0354
 4175W        W47166  32.138  16.134  28.529 -0.1784 -0.0178 -0.2251
 4176W        W47167   1.816  30.729   4.787 -0.0239 -0.1433  0.0902
 4177W        W47168  21.747  26.279  25.871 -0.0778  0.3229  0.2066
 4178W        W47169  29.356   4.922  27.235  0.0805  0.2797 -0.0147
 4179W        W47170   8.154   7.384  17.500  0.1862  0.1582  0.2810
 4180W        W47171  26.236  10.411  14.405  0.0448  0.0659  0.1940
 4181W        W47172   0.338  19.745  18.963  0.3893 -0.2925  0.1110
 4182W        W47173  22.401   8.745  24.541  0.1273 -0.2743  0.1049
 4183W        W47174  19.354  29.894  19.505  0.1155 -0.2417  0.0651
 4184W        W47175  21.849  27.734   3.582 -0.0947 -0.0448  0.3928
 4185W        W47176  16.765  18.803   5.524 -0.1710  0.3689  0.2166
 4186W        W47177  24.327   6.761  23.164  0.0105  0.2670 -0.2589
 4187W        W47178   6.192  18.412  21.609  0.3507  0.1328 -0.1993
 4188W        W47179   0.123   2.016  24.390 -0.1838  0.1779 -0.2105
 4189W        W47180  10.638  22.855  16.395 -0.0889 -0.1523  0.0664
 4190W        W47181  16.032  17.684   8.577 -0.0794 -0.0846  0.0120
 4191W        W47182  20.996   6.790  13.273 -0.2725 -0.1492  0.1997
 4192W        W47183  17.823   0.223  20.751  0.0727 -0.0473  0.1992
 4193W        W47184   1.108  33.659  21.933  0.1559  0.0846 -0.0946
 4194W        W47185  22.625   7.481  18.273  0.1696 -0.1940  0.0858
 4195W        W47186  24.067  21.943  21.448 -0.0039  0.0590 -0.0054
 4196W        W47187  20.246  24.737  25.652  0.0067  0.4145 -0.1463
 4197W        W47188  20.225   3.372   0.176 -0.1260  0.3673 -0.1118
 4198W        W47189  14.506  13.171  15.290 -0.1176  0.3652  0.0904
 4199W        W47190   5.855  34.223  15.472 -0.0122 -0.1419 -0.0958
 4200W        W47191   3.064  18.241  16.511  0.0148  0.0155 -0.3733
 4201W        W47192  23.961   7.702  17.938 -0.0980  0.0337 -0.2388
 4202W        W47193  16.697  12.452  21.463  0.1725  0.1363  0.3050
 4203W        W47194  30.750  14.345  16.429  0.2356 -0.3346 -0.1329
 4204W        W47195  14.740  29.741   9.571  0.0810  0.1116  0.1899
 4205W        W47196  23.127  12.424  19.424  0.0993 -0.0199  0.4833
 4206W        W47197  34.125  32.380  18.822 -0.3484 -0.2873  0.1547
 4207W        W47198  26.729   5.039  27.126  0.1115  0.2299 -0.0305
 4208W        W47199  31.909   9.449   6.801 -0.1700 -0.0036 -0.1524
 4209W        W47200  13.873  11.956  27.781 -0.2979  0.2274  0.2751
 4210W        W47201  22.831  12.641  22.474  0.2894 -0.1959 -0.1173
 4211W        W47202  13.325  10.488  23.346 -0.0877  0.3132 -0.2920
 4212W        W47203  22.915   1.745  19.446  0.0852 -0.0115  0.3015
 4213W        W47204  11.544  13.575  16.990  0.1027 -0.1733  0.0533
 4214W        W47205  34.503  28.478  25.548 -0.1568  0.1790 -0.2475
 4215W        W47206  19.994  34.717  20.524 -0.0411 -0.1512  0.1339
 4216W        W47207  27.189  18.329  15.543  0.2270 -0.2483 -0.0551
 4217W        W47208  18.806  17.546  14.559  0.0928  0.0084 -0.0421
 4218W        W47209  18.471   5.105  17.827  0.0210 -0.1834 -0.0585
 4219W        W47210  32.191   6.067  25.335  0.1216 -0.6362  0.0545
 4220W        W47211  15.219   0.748  10.126 -0.0732  0.1428 -0.0573
 4221W        W47212   4.889  20.117  26.304 -0.1066 -0.0472  0.1652
 4222W        W47213  16.103   5.367  23.942 -0.2045  0.0025  0.2317
 4223W        W47214  14.145  24.206   6.070 -0.2008 -0.1344  0.0732
 4224W        W47215  33.022  23.630   4.018  0.1272 -0.1791 -0.0951
 4225W        W47216  28.631  19.590  27.449 -0.1308  0.0557  0.2224
 4226W        W47217  29.562  12.496  25.124  0.0139 -0.3476 -0.0855
 4227W        W47218  22.022   1.121  13.676  0.0026 -0.0739 -0.1725
 4228W        W47219  28.349  21.482  27.104 -0.0284  0.0440 -0.1601
 4229W        W47220  19.251   2.407   4.121  0.1105  0.1619  0.1247
 4230W        W47221   3.516  10.583  19.339  0.0113 -0.2456 -0.0183
 4231W        W47222  30.170  23.792  18.746 -0.1530  0.3143  0.2375
 4232W        W47223  15.157  31.193  20.696  0.0014 -0.3025  0.0395
 4233W        W47224  17.332  11.650  17.475 -0.0823  0.1284 -0.3205
 4234W        W47225  15.492  16.270   2.185  0.2707  0.1984  0.0032
 4235W        W47226  13.473  11.524  16.203  0.3335  0.2945 -0.1131
 4236W        W47227  31.613  28.700  20.113 -0.0488  0.2145  0.3606
 4237W        W47228   6.589   6.948   3.688 -0.0211 -0.3606 -0.0633
 4238W        W47229  25.399  31.551  25.139 -0.2058  0.1646  0.3779
 4239W        W47230  24.213  14.870  16.340 -0.0250  0.1375  0.0734
 4240W        W47231  24.520  12.953   7.644  0.0035  0.1124  0.7132
 4241W        W47232  15.937   7.154  28.549 -0.1413 -0.2879  0.0484
 4242W        W47233   2.009  15.399   2.107 -0.1139  0.1130  0.1132
 4243W        W47234  34.514  24.702   4.416  0.2076 -0.0241 -0.5262
 4244W        W47235  31.822  14.861  26.459  0.0757 -0.0359  0.1007
 4245W        W47236  14.891   6.706  20.176 -0.0552 -0.3857 -0.0671
 4246W        W47237  16.640   6.803  23.967 -0.0770  0.0916 -0.0287
 4247W        W47238  24.467   6.995  18.947 -0.1091 -0.0948 -0.0929
 4248W        W47239   0.886  19.446   9.306 -0.0505 -0.0507  0.2401
 4249W        W47240   5.274  11.339  24.714  0.0548  0.2725 -0.2259
 4250W        W47241  25.662   8.320  18.392  0.0953 -0.3022  0.1354
 4251W        W47242  29.943  18.103  25.283  0.1361 -0.5575 -0.0011
 4252W        W47243  12.114   8.315   4.788  0.1374  0.1726  0.0011
 4253W        W47244   5.150   1.929   8.332 -0.0618  0.1592 -0.0281
 4254W        W47245  31.387  23.819  25.202 -0.1841  0.0391 -0.2411
 4255W        W47246  18.653   7.922  27.013  0.0618 -0.4014  0.0193
 4256W        W47247  30.684  20.664  27.449  0.1180 -0.0023 -0.0188
 4257W        W47248  26.900  25.086   2.189  0.0694  0.1169 -0.2910
 4258W        W47249  21.961  18.044  17.612  0.4513  0.3353 -0.1478
 4259W        W47250   9.438  11.751   4.642  0.1398 -0.0983  0.2074
 4260W        W47251  21.173   9.319  25.386  0.0901 -0.0979 -0.1989
 4261W        W47252  30.786  21.720  22.731  0.0253  0.1046 -0.0466
 4262W        W47253  10.815  22.911   1.488 -0.1320  0.0487  0.0520
 4263W        W47254   2.933   0.219   0.531 -0.0929 -0.2095 -0.3616
 4264W        W47255  23.401  16.188  13.731 -0.1232  0.1163 -0.2047
 4265W        W47256  24.483  25.432   4.173  0.0554 -0.0114  0.0540
 4266W        W47257   6.703   1.190  15.105  0.2887  0.2005  0.0158
 4267W        W47258  17.795  14.021  28.938 -0.0503 -0.2173  0.1718
 4268W        W47259  21.462  17.819  13.130 -0.2103 -0.0117 -0.1428
 4269W        W47260  21.961  25.241   0.230 -0.3085  0.0007 -0.1710
 4270W        W47261  16.617  24.426  21.626 -0.1161 -0.2128 -0.0560
 4271W        W47262  32.467  14.138  19.518 -0.2284 -0.0772  0.0207
 4272W        W47263  11.169  26.219   7.602 -0.2313  0.0286  0.4181
 4273W        W47264  28.274  23.846  19.337 -0.1591  0.0044 -0.2085
 4274W        W47265   7.165  16.076  20.612  0.1692  0.1292  0.1152
 4275W        W47266  21.733  17.060  17.879 -0.2737 -0.1459  0.0369
 4276W        W47267  19.832  14.664  21.908  0.2431  0.4653 -0.0887
 4277W        W47268  21.018  17.725  24.861 -0.1247  0.2813  0.1027
 4278W        W47269  22.135   8.117  26.006 -0.2175  0.0618  0.0232
 4279W        W47270   4.041  14.684  26.561 -0.3489 -0.0782  0.2308
 4280W        W47271   3.042   9.670  27.105  0.0729 -0.2194  0.0061
 4281W        W47272  34.040  14.129  20.643  0.0295  0.4092  0.3233
 4282W        W47273  18.671  31.887   4.039 -0.0142 -0.3219  0.1518
 4283W        W47274  33.086  10.070  19.945  0.2184  0.3012  0.3565
 4284W        W47275  10.170  28.897   9.472 -0.1285  0.1499  0.5340
 4285W        W47276  17.670  29.750  29.158 -0.0635 -0.0316 -0.1420
 4286W        W47277  29.446  11.224  13.976  0.3114 -0.3725 -0.1451
 4287W        W47278  17.762  25.593   0.737  0.0440 -0.0678  0.0946
 4288W        W47279  20.764  11.955  16.072 -0.0716 -0.0308  0.3165
 4289W        W47280   5.735   8.375  18.779  0.3842 -0.0718  0.2028
 4290W        W47281  18.808   6.153   2.534 -0.3973  0.1722  0.1946
 4291W        W47282  26.845  12.932  17.466 -0.0644 -0.1245 -0.3726
 4292W        W47283  22.936   4.291   1.224  0.0336 -0.3631  0.0476
 4293W        W47284  26.050  20.277  15.210  0.1860  0.0518 -0.1856
 4294W        W47285  24.856   4.545  26.305 -0.0456  0.2246  0.0922
 4295W        W47286  25.952  11.609  18.515  0.2517 -0.0947 -0.1798
 4296W        W47287   9.012   3.336  15.568 -0.3465  0.0015  0.2113
 4297W        W47288  25.962  10.428   0.713  0.2987 -0.0017  0.4524
 4298W        W47289  29.745   9.819  17.166 -0.0413  0.0038  0.2195
 4299W        W47290  31.301   8.005   0.305 -0.0082 -0.1470  0.1516
 4300W        W47291  23.599  16.619   2.415  0.2809  0.1130 -0.3649
 4301W        W47292  23.842   9.538  18.297  0.3575  0.1906 -0.1232
 4302W        W47293  31.721   6.084   6.499 -0.2603  0.2622 -0.0647
 4303W        W47294  28.822  16.134   2.169  0.0964 -0.2176 -0.0663
 4304W        W47295   9.367  16.263   7.723  0.0645  0.2153 -0.1400
 4305W        W47296   0.063   6.861  23.154 -0.0082 -0.2284 -0.2800
 4306W        W47297  17.573  16.531  28.135  0.2439  0.1267  0.5178
 4307W        W47298  26.125  14.455  16.561  0.0292 -0.0113  0.1237
 4308W        W47299  27.269   5.986  20.477 -0.1212 -0.0280  0.0075
 4309W        W47300   0.677  16.163  20.240 -0.0255  0.1596 -0.2001
 4310W        W47301  27.903   4.479  19.074  0.2342  0.2312  0.1418
 4311W        W47302  29.958  12.623  16.879  0.1891  0.1386 -0.6702
 4312W        W47303  33.940  21.894   5.376 -0.1101  0.1314 -0.0601
 4313W        W47304  14.266  32.306  22.596 -0.1479 -0.2815  0.2616
 4314W        W47305  29.455  30.745  22.600  0.0942  0.1525 -0.2018
 4315W        W47306   3.432  23.816  16.265 -0.0235  0.0078  0.0993
 4316W        W47307  29.825  17.061   5.445 -0.0159 -0.0636  0.0663
 4317W        W47308  30.229   9.653  18.762 -0.0170 -0.2289 -0.0048
 4318W        W47309  32.105  14.602  20.739  0.0096  0.2644 -0.1488
 4319W        W47310   6.661  16.596  19.104  0.0851  0.3401 -0.1492
 4320W        W47311  31.541  12.378  22.316  0.1756  0.0283 -0.4195
 4321W        W47312  28.138  13.463   9.919 -0.1356 -0.0020 -0.1103
 4322W        W47313  27.084   3.449  28.128 -0.3429 -0.2107 -0.0947
 4323W        W47314   9.200  11.365  15.458  0.1257  0.4120  0.1735
 4324W        W47315   0.538  23.908   3.533  0.0466  0.0849  0.1555
 4325W        W47316  21.669  14.830   7.867  0.0900  0.1554 -0.0729
 4326W        W47317  30.788  29.343  21.896  0.0890  0.1600  0.1270
 4327W        W47318   6.885  28.090  19.678 -0.0542 -0.2041  0.3399
 4328W        W47319  13.509  26.377  18.343 -0.0515 -0.1042  0.2985
 4329W        W47320  23.614  30.636  18.800 -0.0193 -0.3499  0.0817
 4330W        W47321  11.664   5.038  16.160  0.1729  0.2949 -0.0939
 4331W        W47322  29.279  16.289  19.273  0.2067 -0.0176  0.2465
 4332W        W47323  15.772  22.093   8.782 -0.0323 -0.1503  0.0494
 4333W        W47324  34.316  21.770   3.259  0.1030 -0.2351  0.1274
 4334W        W47325  20.805   5.526  14.238  0.0841 -0.2344  0.1002
 4335W        W47326  33.363  11.646  24.793  0.0798  0.0341  0.1156
 4336W        W47327  22.287   0.167  19.708  0.3647 -0.4387 -0.0265
 4337W        W47328  10.551  16.233  23.743 -0.0260 -0.1291 -0.0130
 4338W        W47329  25.847   7.139  15.943  0.2869 -0.2645  0.1033
 4339W        W47330  27.697  19.386  27.324 -0.1551  0.1106  0.1854
 4340W        W47331  23.552  31.270   8.699 -0.0847 -0.0137  0.2319
 4341W        W47332  33.000  26.991  16.841 -0.0848 -0.0791 -0.1220
 4342W        W47333  23.863   0.937   6.842 -0.1402  0.1673  0.1775
 4343W        W47334  30.971  18.116  16.042 -0.0182 -0.1453  0.0005
 4344W        W47335  31.114   4.313  18.332 -0.1645 -0.1927 -0.1006
 4345W        W47336  19.077   3.360  17.678  0.0307  0.2201 -0.6009
 4346W        W47337  12.036  11.551   4.309  0.1203 -0.0894 -0.2876
 4347W        W47338  20.557  11.820  23.107 -0.0401 -0.0609  0.0947
 4348W        W47339  28.374  26.861  20.276 -0.0867 -0.0430 -0.1059
 4349W        W47340  26.786  11.364   9.454  0.2919 -0.1815 -0.1424
 4350W        W47341  21.255   6.291   8.631  0.0300 -0.1203 -0.0747
 4351W        W47342  27.337   8.017  23.602  0.1348  0.1866  0.0418
 4352W        W47343  30.642   0.476   7.851  0.1434 -0.0081 -0.0519
 4353W        W47344  21.588  12.154  24.513 -0.0216  0.0561 -0.0205
 4354W        W47345  34.724  15.012  20.906 -0.0350 -0.1612 -0.4580
 4355W        W47346  26.988  12.858  20.003 -0.1328 -0.1367  0.0353
 4356W        W47347  13.728  28.029  16.035  0.0133  0.0673  0.1085
 4357W        W47348  26.716   0.042  22.629  0.1820 -0.1206 -0.1333
 4358W        W47349  14.971   8.248   8.417 -0.3014 -0.3872 -0.1419
 4359W        W47350  33.434  12.693  25.375  0.0411  0.0266  0.0329
 4360W        W47351  18.803   5.836  23.553  0.3390 -0.1562  0.2199
 4361W        W47352  27.944  26.881  24.979 -0.3076  0.2361  0.0948
 4362W        W47353  28.958  15.567  25.537 -0.0229 -0.1794 -0.2257
 4363W        W47354  24.657  25.889  24.260  0.4427  0.0629  0.0956
 4364W        W47355  13.807   9.395   4.535  0.1783 -0.0538 -0.1425
 4365W        W47356  11.470   4.337  24.998 -0.2194 -0.1520 -0.1267
 4366W        W47357  21.999   9.052   8.454  0.2765 -0.1761 -0.0394
 4367W        W47358   8.051   8.337   2.283  0.3583  0.0140 -0.2506
 4368W        W47359  23.707  11.397  21.266  0.0547  0.0656  0.2055
 4369W        W47360  28.094   9.716  26.539  0.3275 -0.1520  0.0388
 4370W        W47361  23.956  32.737  26.027  0.1201  0.0722 -0.0925
 4371W        W47362  19.230  14.844  23.853  0.0096  0.2013  0.2386
 4372W        W47363   0.729  26.610  23.009  0.0122  0.0810  0.0272
 4373W        W47364   5.925  32.727  20.587 -0.3249  0.1293  0.1962
 4374W        W47365  21.581   1.730  19.462 -0.3594  0.0888  0.2666
 4375W        W47366  19.463   2.069  17.006 -0.3196 -0.1210  0.0496
 4376W        W47367   6.937  27.196  23.642 -0.0021  0.2758 -0.0902
 4377W        W47368  27.539  12.220  15.062 -0.1970  0.0162  0.2729
 4378W        W47369  25.512  20.474  20.511  0.1154 -0.5640  0.0823
 4379W        W47370   5.402  15.108  26.644 -0.1635 -0.1601  0.3725
 4380W        W47371  17.988  21.982  27.944 -0.2562  0.1014 -0.1417
 4381W        W47372  27.453  19.427  28.293 -0.0438  0.1448 -0.1499
 4382W        W47373  30.979  19.792  17.176 -0.4395 -0.0158  0.2038
 4383W        W47374  21.015   6.510  20.227  0.0579 -0.3274 -0.0923
 4384W        W47375  28.337  19.260  13.921  0.1937  0.0609 -0.1192
 4385W        W47376  17.695  17.182  13.400 -0.0978  0.0823 -0.0492
 4386W        W47377   4.797  17.698  27.254 -0.1057 -0.1324 -0.0970
 4387W        W47378  26.221  18.851   4.392 -0.1760 -0.3020  0.2201
 4388W        W47379  25.259  19.915  16.958  0.3480 -0.0224 -0.0765
 4389W        W47380  33.306  13.100  16.973 -0.0615  0.5631 -0.0217
 4390W        W47381  20.392  26.922  28.004 -0.0657 -0.0846  0.4052
 4391W        W47382  18.389  13.286  29.104  0.0428  0.2100  0.2010
 4392W        W47383  13.454  10.256   9.902  0.1380  0.0845 -0.0370
 4393W        W47384  24.105  22.748   1.644 -0.1712  0.0089  0.0652
 4394W        W47385  23.225  11.091  18.160  0.1341 -0.0896  0.2000
 4395W        W47386  31.849  27.423  28.664 -0.0959  0.0987 -0.1325
 4396W        W47387  14.442  11.687  15.998 -0.2086  0.2536  0.0621
 4397W        W47388  28.278   5.911  15.054  0.1956  0.1264 -0.0172
 4398W        W47389   1.448  21.067  26.828 -0.1229  0.1115  0.1379
 4399W        W47390  33.763  13.635   0.815 -0.1201  0.3137 -0.1347
 4400W        W47391  33.049  34.183  27.327 -0.1085  0.2299 -0.2523
 4401W        W47392  16.336   0.388  18.058 -0.1451 -0.3242 -0.0482
 4402W        W47393   4.421  11.534   3.556  0.0484  0.2544 -0.0829
 4403W        W47394  28.034  33.509  20.850 -0.0255 -0.1216 -0.0655
 4404W        W47395   6.267  15.519   9.897  0.3071 -0.2186 -0.0072
 4405W        W47396  24.456   7.463   7.374  0.0239  0.0315 -0.2522
 4406W        W47397  14.712  32.416  22.406  0.2234 -0.1112  0.0719
 4407W        W47398  16.059   2.337  21.466 -0.2260 -0.1025  0.1098
 4408W        W47399   6.452  18.475  22.841  0.0177 -0.2571  0.1090
 4409W        W47400  21.447   6.449  26.867  0.1275  0.2814  0.1452
 4410W        W47401   4.588  11.847  23.403 -0.5299 -0.0480  0.1158
 4411W        W47402  34.398  29.461  14.911  0.0311  0.2827  0.0022
 4412W        W47403  23.969  30.518  21.589 -0.1879 -0.5738  0.0372
 4413W        W47404   8.816  29.737  22.473 -0.1584 -0.2245  0.1447
 4414W        W47405  21.565  24.954  16.104 -0.1101 -0.1606 -0.2214
 4415W        W47406  21.771  22.591   0.051 -0.2087 -0.2735  0.0837
 4416W        W47407  14.444  22.587   9.205  0.1912 -0.0526  0.0238
 4417W        W47408  16.344  17.189  27.954  0.0510  0.0460 -0.0527
 4418W        W47409  24.478  23.599  23.712  0.1335 -0.1256 -0.0202
 4419W        W47410  17.901   8.245  28.941  0.0709  0.0195  0.3373
 4420W        W47411   5.992  13.245  28.296  0.1595 -0.2600  0.4749
 4421W        W47412  34.499  25.878  17.314 -0.0085  0.2066  0.0004
 4422W        W47413  17.097  10.118  18.106 -0.0556  0.0543 -0.1425
 4423W        W47414  30.628  10.497   0.906  0.1710 -0.1079 -0.2317
 4424W        W47415   4.713  10.224  25.088  0.0942 -0.1643 -0.1099
 4425W        W47416   1.736  10.305  29.059 -0.1043  0.1983 -0.3755
 4426W        W47417  24.386   0.216   8.760  0.0365 -0.0062 -0.1763
 4427W        W47418  22.792   9.458   1.999  0.4707 -0.3618 -0.0671
 4428W        W47419  16.509  33.608  25.278 -0.4794  0.0923 -0.1225
 4429W        W47420  28.745  24.422   3.116  0.5335 -0.3357  0.1468
 4430W        W47421  16.374  19.539   2.354 -0.0209 -0.3510 -0.1366
 4431W        W47422  24.501  14.930   8.620 -0.0328 -0.0320  0.1268
 4432W        W47423  22.939   5.238   4.317 -0.0103  0.0041 -0.1644
 4433W        W47424  30.598   9.171   5.128 -0.0520 -0.1995  0.1615
 4434W        W47425  11.690   7.490   3.258 -0.0367 -0.1300  0.1213
 4435W        W47426  10.429   6.145  27.037  0.0899 -0.2072  0.2734
 4436W        W47427  14.206  20.524  15.814  0.0954 -0.0370 -0.0776
 4437W        W47428  24.231   9.827  24.019  0.0930 -0.2482  0.0411
 4438W        W47429  26.850   9.033  19.842 -0.1351  0.0276 -0.2666
 4439W        W47430  27.036  18.317   1.906  0.0819 -0.1467 -0.2233
 4440W        W47431  18.031   5.512  24.535  0.3313  0.2163 -0.1886
 4441W        W47432  15.743  22.967  19.866  0.0626 -0.0776  0.0729
 4442W        W47433   0.848   8.484   4.367 -0.0200  0.3021  0.0896
 4443W        W47434   4.825  31.902  16.972 -0.1540 -0.1216 -0.1240
 4444W        W47435  26.783  14.108  24.987  0.3409  0.0305 -0.2499
 4445W        W47436  34.368   6.250   7.452 -0.0175  0.0924  0.2907
 4446W        W47437  11.766  30.396   8.672 -0.3348  0.1301  0.0231
 4447W        W47438  22.311   1.856  17.916  0.1690 -0.1481 -0.0804
 4448W        W47439  18.220  20.244  15.553  0.0337 -0.3243  0.0477
 4449W        W47440  20.191  27.707  15.958 -0.0112 -0.0293  0.1246
 4450W        W47441   7.204   0.864  29.057 -0.2388  0.1020 -0.2010
 4451W        W47442  17.422  13.238   2.771 -0.2028  0.1812  0.1847
 4452W        W47443  14.834   1.232   6.747  0.0672  0.0182  0.1215
 4453W        W47444  15.601   4.612  25.589  0.4297 -0.0133  0.1605
 4454W        W47445  28.442   6.233  15.385 -0.0484 -0.0932  0.1150
 4455W        W47446  29.697  19.854  26.254 -0.2109  0.2243 -0.1294
 4456W        W47447  24.519  10.594   5.623  0.2540 -0.2221  0.1701
 4457W        W47448  29.383  34.281  26.478 -0.1458 -0.0349  0.3628
 4458W        W47449  29.354  26.983  14.015 -0.0311  0.0463 -0.2665
 4459W        W47450  23.195   6.442  23.221  0.1645  0.0365  0.1644
 4460W        W47451  34.246  10.392  18.890  0.0369  0.1659  0.1136
 4461W        W47452  26.141  28.341   6.826 -0.0991 -0.1667 -0.0383
 4462W        W47453  31.201  33.583   1.635  0.3778  0.0283  0.1285
 4463W        W47454  15.477  13.152  18.028  0.2108 -0.1622  0.1945
 4464W        W47455  30.075  25.126   3.237 -0.1954  0.1068  0.1781
 4465W        W47456   1.740   9.295  26.798  0.4004  0.2661  0.2268
 4466W        W47457  19.601  10.084  14.355 -0.1468 -0.2541  0.2074
 4467W        W47458  26.267  19.609  22.177 -0.0673 -0.0645 -0.0656
 4468W        W47459   4.358  27.271  19.924 -0.2504 -0.0864  0.1317
 4469W        W47460  17.606   2.363   6.535 -0.1865  0.0754 -0.2306
 4470W        W47461  28.068  10.063  26.971 -0.2065  0.3854  0.5842
 4471W        W47462  28.565   3.556  21.505  0.1391  0.3206 -0.1840
 4472W        W47463  25.932  18.260   0.641  0.0607  0.0298  0.2060
 4473W        W47464  19.552   9.952   7.803  0.0895  0.1387  0.1363
 4474W        W47465  13.275   6.896  24.307  0.0171  0.0237  0.2103
 4475W        W47466  30.257   7.446  28.296 -0.2020  0.2755 -0.1073
 4476W        W47467  16.697   6.413   0.289 -0.3622 -0.3526  0.1010
 4477W        W47468  11.229  18.054  14.561  0.0490  0.0351  0.3200
 4478W        W47469  28.647  25.680  14.585  0.1803  0.0054  0.0895
 4479W        W47470  21.678  11.754  13.483 -0.0546 -0.1763  0.1538
 4480W        W47471  12.133  15.695  14.936  0.2920 -0.2162 -0.1218
 4481W        W47472   8.573   9.250  25.547  0.0667 -0.1296  0.0280
 4482W        W47473  19.879  31.987  13.927  0.0444 -0.0897  0.0097
 4483W        W47474  17.809  31.183  22.797 -0.1201  0.1616 -0.0976
 4484W        W47475  12.010  12.718  16.373 -0.0291 -0.0170 -0.2158
 4485W        W47476  32.401  13.006   8.123  0.0714 -0.0218 -0.1154
 4486W        W47477  19.827  10.480   8.555 -0.3906 -0.1427 -0.4367
 4487W        W47478  15.411   3.269  18.963 -0.4530 -0.1736 -0.0578
 4488W        W47479  14.177  26.745  22.965  0.2542 -0.2062  0.0285
 4489W        W47480  28.195   0.486   4.099 -0.1454  0.0174  0.1816
 4490W        W47481  30.290  28.203  27.959  0.0597  0.2109 -0.0780
 4491W        W47482   8.862  28.662  21.791  0.1899 -0.0927  0.2314
 4492W        W47483  23.231  11.081  28.723  0.1756  0.0901  0.0321
 4493W        W47484  25.985  33.046  14.243  0.3789 -0.0332 -0.0620
 4494W        W47485  26.742  20.932   5.864 -0.0379  0.0218 -0.2968
 4495W        W47486  12.944  26.847  15.695  0.1320 -0.0838  0.2060
 4496W        W47487   3.996   9.340   0.792  0.0169  0.1386 -0.1289
 4497W        W47488  32.546  19.584  24.613 -0.1967 -0.0450 -0.3447
 4498W        W47489  21.265   0.871  20.632 -0.0953 -0.1596  0.1339
 4499W        W47490  20.662  16.312  17.150 -0.1404  0.2536 -0.1749
 4500W        W47491   1.038  27.815  17.048 -0.3262  0.0736  0.2539
 4501W        W47492  18.217   4.064  22.025 -0.0791  0.1763  0.2385
 4502W        W47493  19.722   6.530  18.727  0.3160  0.3918  0.0840
 4503W        W47494  23.501   4.063   7.319 -0.1679  0.0664 -0.2216
 4504W        W47495   6.535  34.259   5.448 -0.4150  0.0408 -0.0614
 4505W        W47496   3.245  20.769  28.905 -0.0127  0.0653  0.4463
 4506W        W47497   4.764   6.190  25.751  0.2166 -0.2882 -0.0078
 4507W        W47498  23.411  29.489  19.534 -0.3780  0.0058  0.3452
 4508W        W47499  24.777  14.989  27.322  0.0656 -0.0742 -0.1233
 4509W        W47500  30.467   8.124  20.968 -0.0394 -0.2237 -0.1081
 4510W        W47501  24.669  10.115  27.088 -0.1530 -0.1358  0.0809
 4511W        W47502  30.834  24.644   7.484  0.0054  0.1549 -0.1566
 4512W        W47503  11.551  22.435  26.370 -0.0086  0.0707 -0.0965
 4513W        W47504  32.003   7.850  14.537 -0.1865 -0.6938 -0.0418
 4514W        W47505  14.389   3.235   9.808 -0.0119 -0.2045 -0.0884
 4515W        W47506  31.089  13.894   1.590 -0.4525  0.0432  0.0552
 4516W        W47507  23.151  14.441  15.685  0.0688  0.1365  0.1487
 4517W        W47508  21.219  20.415  19.955  0.2287 -0.0562  0.0606
 4518W        W47509  22.624   8.179   4.760  0.1115  0.0476 -0.0347
 4519W        W47510  32.237  30.272  16.242 -0.1533  0.0812 -0.2509
 4520W        W47511  20.540  25.681  18.685  0.0918 -0.2861 -0.1762
 4521W        W47512  14.873   7.040   9.422 -0.2401 -0.3307  0.0489
 4522W        W47513  12.519   3.783  19.112  0.2472  0.2277 -0.2879
 4523W        W47514  24.444   1.169  29.055  0.2920  0.0549 -0.1325
 4524W        W47515  26.876  20.948  23.490 -0.3127 -0.0295 -0.1069
 4525W        W47516  31.429  27.079  21.743 -0.0599  0.1634 -0.1414
 4526W        W47517  19.461   3.386  14.725 -0.1438  0.1834  0.0398
 4527W        W47518  25.469  18.003  21.943 -0.1380  0.2518 -0.3176
 4528W        W47519  24.735  14.802  18.745  0.2474  0.0839  0.2726
 4529W        W47520  27.910  10.639  21.899  0.2273  0.1512  0.1255
 4530W        W47521  25.591  26.698  23.670 -0.3998 -0.0750  0.4009
 4531W        W47522  28.259   2.046  25.950 -0.1496 -0.4251  0.0088
 4532W        W47523  12.188  12.111  19.590 -0.2180 -0.3348 -0.1492
 4533W        W47524  22.176  14.481   1.391 -0.2049  0.2755  0.0767
 4534W        W47525  15.170  14.795  15.292 -0.0709 -0.4246 -0.0717
 4535W        W47526  20.220  15.868  26.174  0.2533 -0.2287  0.0515
 4536W        W47527  21.402  24.048   1.514  0.0383 -0.0819  0.1714
 4537W        W47528  20.500  20.436  24.530 -0.1890 -0.2349 -0.0206
 4538W        W47529  21.752   5.102  27.384 -0.1901 -0.1125 -0.0597
 4539W        W47530  33.243  17.065  24.858  0.0908 -0.1696 -0.0027
 4540W        W47531   3.725  16.365  19.744 -0.2437  0.1687 -0.1052
 4541W        W47532  26.608   5.249   7.410 -0.1285 -0.0634 -0.0859
 4542W        W47533  27.754  28.308  18.234  0.1380 -0.0120  0.0867
 4543W        W47534  13.395  15.802  22.991  0.0887  0.1073  0.1193
 4544W        W47535  11.304  23.501  25.407 -0.0023  0.1380 -0.1723
 4545W        W47536  19.634  23.073  18.067  0.2281 -0.0032  0.1804
 4546W        W47537  14.920   6.030  23.820  0.0677 -0.0592  0.2449
 4547W        W47538  24.807  17.951  19.886 -0.1707  0.1887 -0.0354
 4548W        W47539   3.407  19.742  27.973 -0.0670 -0.4217 -0.1622
 4549W        W47540   9.208  14.447  16.147 -0.1482 -0.0010  0.1110
 4550W        W47541   1.094   0.803  15.647  0.1292  0.0034 -0.0017
 4551W        W47542  10.866  30.966  18.369 -0.0424  0.2142  0.1753
 4552W        W47543  31.647  33.641  26.471 -0.3141  0.1874  0.1246
 4553W        W47544  30.609  17.690   8.206 -0.2847  0.3755 -0.1682
 4554W        W47545  21.830   9.796  17.872  0.2124 -0.0221 -0.1095
 4555W        W47546  21.545   2.101  25.740  0.2367 -0.2145  0.2553
 4556W        W47547  12.389  16.008  18.985 -0.0857  0.0769 -0.1008
 4557W        W47548  15.923  31.006   3.408  0.1145  0.2050 -0.0344
 4558W        W47549   0.512  19.885  21.290 -0.2239  0.0606  0.0828
 4559W        W47550  21.332  11.865  21.652  0.0135  0.0222 -0.2774
 4560W        W47551   9.268  11.960  26.219 -0.0114 -0.0534 -0.0485
 4561W        W47552  12.268  24.677  22.374 -0.4468 -0.5375 -0.2151
 4562W        W47553  29.819   2.486  20.330 -0.2678  0.1654  0.1166
 4563W        W47554   0.691  12.112  16.576 -0.1689 -0.2797  0.0398
 4564W        W47555  18.106   8.434  21.930  0.1652  0.3349  0.0029
 4565W        W47556  20.521  13.397  15.006 -0.2221  0.0766  0.0688
 4566W        W47557  22.308   4.429  15.004  0.1254 -0.2235 -0.0867
 4567W        W47558  20.454  19.658  24.489 -0.0359 -0.2316  0.0204
 4568W        W47559   1.910   2.028  22.071 -0.2090 -0.3330 -0.3486
 4569W        W47560  19.414   6.933  15.463 -0.4095 -0.1183 -0.1356
 4570W        W47561   2.067  15.262  16.064 -0.0268 -0.1296 -0.2038
 4571W        W47562  23.219   8.299   0.519 -0.2667  0.2279 -0.0521
 4572W        W47563  28.805   3.572   5.747 -0.3678  0.4138 -0.3505
 4573W        W47564  29.973  22.670  27.288 -0.2970  0.1928 -0.0850
 4574W        W47565  31.755   9.320  27.124 -0.0067 -0.1676  0.0823
 4575W        W47566  21.999  16.418  21.179  0.2150 -0.0826 -0.0262
 4576W        W47567  23.748   1.122  23.996  0.1414 -0.0516  0.1540
 4577W        W47568  12.076   1.591  15.422  0.0706 -0.5125 -0.0837
 4578W        W47569  22.773  12.415  21.905 -0.2334 -0.2673  0.0743
 4579W        W47570  22.369  11.879  27.883 -0.3936 -0.2853 -0.1083
 4580W        W47571  28.599  20.759  18.021  0.3213 -0.0794  0.1217
 4581W        W47572  28.176  14.318   2.286 -0.3248 -0.2540  0.0890
 4582W        W47573  27.440  30.723   7.652  0.0068 -0.0724 -0.0463
 4583W        W47574  33.978  14.693  28.613  0.0682 -0.0620  0.0795
 4584W        W47575  27.126  12.844  13.942 -0.0233 -0.0452  0.0343
 4585W        W47576  18.654  10.916  14.436 -0.0977 -0.2539 -0.2215
 4586W        W47577  23.937  11.023  15.059  0.2946  0.0426 -0.0669
 4587W        W47578  29.936  13.480   7.524  0.0680 -0.1711 -0.1342
 4588W        W47579  24.196   5.795  13.076  0.1478 -0.1122  0.3168
 4589W        W47580  24.639   1.762   2.854  0.2077  0.0434 -0.0428
 4590W        W47581  30.991   3.292  16.385 -0.1976  0.0848 -0.0007
 4591W        W47582  28.750  32.104  19.459 -0.0141  0.2326 -0.4515
 4592W        W47583  14.069  31.911  27.874 -0.0566 -0.2830  0.0370
 4593W        W47584  21.144   1.061  13.714 -0.0665  0.1997  0.0814
 4594W        W47585  20.809  15.064  24.999  0.2020 -0.0208  0.0421
 4595W        W47586  23.779  19.239   8.221  0.0234  0.1819 -0.0163
 4596W        W47587  26.163  25.130   0.129  0.1408 -0.6006 -0.1985
 4597W        W47588  22.842  22.416  28.191  0.0597 -0.1732 -0.2433
 4598W        W47589   8.389  15.273  24.030  0.0391  0.0863 -0.1294
 4599W        W47590  15.811  12.524  24.166  0.2396  0.0411  0.1488
 4600W        W47591  26.490  17.173   2.640 -0.1442  0.0800 -0.1031
 4601W        W47592  22.608   5.627  24.622  0.0227 -0.3968 -0.1775
 4602W        W47593   5.839  17.479  23.394 -0.0923 -0.0851  0.0152
 4603W        W47594  23.757  11.309  16.856  0.4428 -0.1566  0.2514
 4604W        W47595  13.751  21.861  21.108  0.0734 -0.1334 -0.1447
 4605W        W47596  34.079  10.946  17.524 -0.2477 -0.0108  0.0161
 4606W        W47597  28.362  19.437  28.607 -0.0466  0.0920  0.1118
 4607W        W47598  24.101  12.424  14.382 -0.0375  0.3011  0.4102
 4608W        W47599  17.482  10.617  20.081 -0.1059 -0.0541  0.0156
 4609W        W47600  14.467  33.283  20.568  0.1127 -0.0398  0.0583
 4610W        W47601  32.135  32.045  22.508  0.0616  0.2576 -0.0427
 4611W        W47602  30.381  25.998  28.940 -0.2705  0.0868  0.3670
 4612W        W47603  12.537  27.339  18.949 -0.2372 -0.2549 -0.1228
 4613W        W47604   4.782  31.338  20.012 -0.1000 -0.1217  0.2717
 4614W        W47605   1.886  30.548   0.183 -0.1918 -0.0187 -0.0913
 4615W        W47606  21.628  33.336  20.262  0.2238  0.0138 -0.4988
 4616W        W47607   1.647   5.215  22.636 -0.1862 -0.0707 -0.4400
 4617W        W47608  31.132  12.120   5.682 -0.4347  0.0015 -0.5093
 4618W        W47609  20.453   5.475  15.080  0.0111 -0.2269 -0.1246
 4619W        W47610  17.890  21.127   1.266 -0.2179  0.0845  0.0897
 4620W        W47611   3.267   8.671   2.878 -0.2525 -0.0189  0.0198
 4621W        W47612  33.083  15.589  19.020 -0.0051 -0.0457  0.3083
 4622W        W47613   7.662  23.581  25.160 -0.0082  0.2217  0.0698
 4623W        W47614  15.984  18.036   1.862 -0.0076 -0.1095  0.1745
 4624W        W47615  29.293  14.193   8.217  0.2710  0.1685  0.0121
 4625W        W47616  19.257  18.362  16.031 -0.0569 -0.0740  0.2179
 4626W        W47617  11.737  26.106  26.830 -0.0343 -0.1436 -0.2108
 4627W        W47618  29.018  17.802  28.071 -0.1767  0.1588 -0.2280
 4628W        W47619   8.145  30.805   8.091 -0.1168 -0.1190 -0.1313
 4629W        W47620  27.432   5.779  16.255 -0.1200 -0.3585 -0.0978
 4630W        W47621  17.995  13.907  21.613  0.0221 -0.0893  0.1510
 4631W        W47622  24.616  21.846  28.892  0.0322 -0.0369 -0.2425
 4632W        W47623  20.093   3.817  21.165  0.0797 -0.1488  0.3451
 4633W        W47624  20.812  16.127   5.824  0.0249  0.2137 -0.1696
 4634W        W47625  11.074  11.207  19.159 -0.1358  0.0886  0.0300
 4635W        W47626  28.981  24.245  23.412  0.1460 -0.0205  0.0123
 4636W        W47627  12.656  18.144  25.408 -0.1142  0.1022  0.2927
 4637W        W47628   5.236   8.177   2.115  0.0208  0.2713 -0.0491
 4638W        W47629   6.018  10.417   4.540 -0.1186 -0.3096 -0.2412
 4639W        W47630  14.573  16.035  14.368  0.2971 -0.0335  0.0294
 4640W        W47631  13.494  15.260   4.046 -0.2729 -0.0508  0.1012
 4641W        W47632  24.667  20.769  24.175  0.0354  0.0236  0.2467
 4642W        W47633  18.002   1.361   1.588 -0.2753  0.0196 -0.1969
 4643W        W47634   4.479  15.178   1.129  0.1159  0.0114  0.1106
 4644W        W47635  22.990  10.088  14.740  0.0119  0.2290 -0.1472
 4645W        W47636  28.114  27.152  22.306  0.1028 -0.0930 -0.0150
 4646W        W47637  33.044  11.480  23.875 -0.2357  0.0350  0.0415
 4647W        W47638  33.374   8.608   4.836  0.3226  0.1641  0.0979
 4648W        W47639  11.132  19.684  19.080  0.1176 -0.2944 -0.2435
 4649W        W47640   6.754  13.729  10.032  0.3985  0.1905 -0.1496
 4650W        W47641   9.364   8.685   5.270  0.0758  0.2503 -0.0769
 4651W        W47642  34.096  13.640   7.285 -0.0100  0.1999 -0.2672
 4652W        W47643  14.856  14.935  25.893 -0.2777  0.0708  0.3048
 4653W        W47644  33.000  12.643   8.923 -0.1627 -0.3678  0.0288
 4654W        W47645  20.182  12.968   5.030  0.0537  0.0484  0.0574
 4655W        W47646  27.974  34.111   5.982 -0.1121  0.1045 -0.2348
 4656W        W47647  13.834  21.719  24.331 -0.3062  0.0920  0.0199
 4657W        W47648  22.826  16.143  21.663  0.1555  0.3085  0.0802
 4658W        W47649  32.725  20.029   0.450  0.2417 -0.4199  0.0048
 4659W        W47650  26.375   9.149  26.714  0.3264 -0.0458  0.1282
 4660W        W47651  28.461  16.990  10.973  0.2313 -0.1064 -0.2573
 4661W        W47652  25.130   9.418  14.116  0.3350  0.1309 -0.1972
 4662W        W47653  16.372   9.172   0.999  0.1227 -0.3612 -0.1426
 4663W        W47654   9.040  21.123  22.545 -0.3302  0.0108  0.0588
 4664W        W47655  33.900   6.084   7.433  0.2544 -0.0401 -0.1068
 4665W        W47656  32.126  17.027   2.710 -0.3028  0.0287  0.1715
 4666W        W47657  28.459   7.160   9.505 -0.0785 -0.2374 -0.1508
 4667W        W47658  32.264   9.728   8.404  0.1338  0.0403 -0.3276
 4668W        W47659  11.743  13.182  18.000  0.0989 -0.0607 -0.0082
 4669W        W47660  30.725  23.287   0.035 -0.2820  0.4398 -0.0917
 4670W        W47661   0.525  13.637   6.758  0.2762  0.2571  0.0357
 4671W        W47662  21.524  17.887  27.156  0.3991 -0.0516  0.2745
 4672W        W47663  25.792  33.509  19.995 -0.2332 -0.2102 -0.1477
 4673W        W47664  11.864  33.639  18.477  0.2350  0.2474  0.1090
 4674W        W47665  25.375  19.076  26.482  0.0084  0.0764  0.0579
 4675W        W47666  16.237   8.548   4.351  0.1754 -0.0830 -0.0399
 4676W        W47667  22.663  19.670   8.740  0.1232  0.0129  0.1765
 4677W        W47668  26.930  31.112   0.568  0.1669 -0.2217 -0.2763
 4678W        W47669  31.730  12.706  19.657  0.1130  0.2605  0.2563
 4679W        W47670  23.451  21.696   6.699 -0.1242 -0.1007 -0.0593
 4680W        W47671   1.914  13.144  19.218 -0.0891  0.0856  0.0664
 4681W        W47672  22.178  18.776   7.142 -0.0113  0.1168  0.0475
 4682W        W47673  27.787  22.209  22.968 -0.0628 -0.0610  0.0043
 4683W        W47674  22.878  10.254   2.863  0.0259 -0.0722 -0.0754
 4684W        W47675  25.183  17.242   9.396 -0.0501  0.1096  0.0574
 4685W        W47676  19.077  17.289   6.846  0.1803 -0.1521 -0.1384
 4686W        W47677  19.813  33.462  23.052  0.1573 -0.3260 -0.2777
 4687W        W47678  20.453   1.700  21.130 -0.0265  0.0091  0.3573
 4688W        W47679  10.531  30.626  23.838  0.3867 -0.5686  0.0516
 4689W        W47680  10.541  24.193   7.003  0.1460  0.1407  0.2200
 4690W        W47681   2.113  16.197  20.427 -0.2503  0.2071 -0.2560
 4691W        W47682  22.453  14.490  24.564 -0.1806  0.1930 -0.0479
 4692W        W47683  21.761   4.800  29.253 -0.2889  0.0427  0.0243
 4693W        W47684  33.281   7.631   6.588 -0.0181 -0.2404 -0.0183
 4694W        W47685  17.317  15.016   6.224  0.3885 -0.1214 -0.0326
 4695W        W47686  31.254   6.580  20.193 -0.1299  0.0907 -0.3979
 4696W        W47687  25.543   9.362  16.088  0.0396  0.0314  0.0423
 4697W        W47688  17.739  17.489  27.710  0.4313 -0.2289  0.1973
 4698W        W47689  19.683  24.441  19.152  0.0502 -0.0679  0.2399
 4699W        W47690   9.929  26.483  23.966  0.0113  0.1617  0.1973
 4700W        W47691  21.927  24.630  13.732  0.1849 -0.2277  0.1944
 4701W        W47692  14.977  23.081  19.496 -0.0237 -0.0328 -0.1759
 4702W        W47693  16.057   8.914  18.511  0.1782 -0.0792  0.1475
 4703W        W47694  16.349  12.606  16.019  0.1288 -0.2179 -0.3347
 4704W        W47695  15.130  33.388  28.009 -0.0262  0.3141 -0.0514
 4705W        W47696  28.345  17.074  28.418  0.0636 -0.3998 -0.2559
 4706W        W47697  25.309  15.511  26.168  0.1622  0.0408  0.4276
 4707W        W47698   9.554   5.078  27.746 -0.1514  0.2292 -0.0776
 4708W        W47699  24.669  10.041  18.826  0.3281 -0.1555  0.0137
 4709W        W47700  10.616   2.286   4.503 -0.0313  0.5225  0.2039
 4710W        W47701   0.635  13.271   2.208  0.2288  0.1164  0.0401
 4711W        W47702  20.804  15.789   9.046  0.0136 -0.2416 -0.2562
 4712W        W47703  32.879  13.994  10.533 -0.2029  0.1409  0.2093
 4713W        W47704  27.769  12.303  28.754  0.0867 -0.0770  0.1133
 4714W        W47705  17.546  28.153  28.820 -0.1371  0.0932  0.4146
 4715W        W47706  20.202  11.423  20.428  0.3961  0.3002  0.2238
 4716W        W47707  16.939  31.032  28.418 -0.3853  0.5776  0.1754
 4717W        W47708  33.142   9.267  18.339  0.0110 -0.0191  0.0439
 4718W        W47709   9.532  19.766  24.442 -0.1756 -0.2673 -0.0650
 4719W        W47710  24.405  25.458  27.552  0.1898  0.3104 -0.1917
 4720W        W47711  13.693  23.102  15.575 -0.1116 -0.1988 -0.0699
 4721W        W47712  34.025  16.973   0.031  0.1371 -0.0187  0.3945
 4722W        W47713  26.512  13.719   4.467  0.2676 -0.0151  0.0782
 4723W        W47714  28.638  10.037   1.855  0.1943  0.0478 -0.0678
 4724W        W47715  30.238   7.575   5.386  0.0795  0.1518  0.0387
 4725W        W47716  27.945  16.771   4.025 -0.2251  0.0560 -0.0401
 4726W        W47717  31.542   8.545  15.550 -0.0876  0.0627 -0.2261
 4727W        W47718  23.953   2.735   1.256  0.1731  0.4009 -0.1209
 4728W        W47719  22.653  23.729   2.130  0.4556  0.0291 -0.1111
 4729W        W47720  14.006   1.834  20.587 -0.1595 -0.1759 -0.1345
 4730W        W47721  21.024   1.471   1.695  0.0935  0.0423 -0.0181
 4731W        W47722   1.540  34.019   9.127  0.1624 -0.2971 -0.0430
 4732W        W47723   1.399   3.726   8.267  0.0443  0.1478  0.0140
 4733W        W47724  22.509  25.735  25.717 -0.0288 -0.0127 -0.2787
 4734W        W47725  16.085  14.432  16.249  0.1660 -0.0870 -0.0789
 4735W        W47726  31.609  18.078  18.420 -0.2027  0.0357 -0.0291
 4736W        W47727  17.343  22.072   7.415 -0.0300  0.0372  0.2587
 4737W        W47728  30.022  16.778  28.365 -0.0874 -0.0780 -0.0886
 4738W        W47729  16.009  18.318  14.301 -0.1372 -0.0875  0.1231
 4739W        W47730  28.768  17.583   1.025 -0.0209  0.1734  0.1483
 4740W        W47731  24.868   8.220  28.573 -0.2539 -0.0159  0.1820
 4741W        W47732   1.468   5.600  27.279  0.1634 -0.0168  0.0868
 4742W        W47733  20.298  17.758   8.148  0.0272  0.2032 -0.1648
 4743W        W47734   8.921  17.991  19.719 -0.1910  0.4451 -0.2082
 4744W        W47735  17.957  13.324  20.529 -0.0246  0.1058 -0.2442
 4745W        W47736  24.315  18.556  18.038 -0.0283 -0.0851  0.1656
 4746W        W47737   7.809  17.167  20.022  0.2372 -0.1651  0.2079
 4747W        W47738   8.997  12.877   6.777 -0.2414  0.1316 -0.2338
 4748W        W47739  22.978   3.122   6.387  0.1404 -0.2153 -0.0458
 4749W        W47740  19.586  11.769  19.888  0.1759 -0.1627 -0.2622
 4750W        W47741  11.746  29.811  25.401 -0.3008 -0.2521 -0.1712
 4751W        W47742  26.991   4.104  28.105  0.2338  0.2354 -0.2923
 4752W        W47743  16.622   9.263  22.023 -0.2334  0.2358  0.2540
 4753W        W47744  20.202  12.048  25.760 -0.0005 -0.2476  0.2132
 4754W        W47745  27.073   4.426   6.405  0.2369 -0.2267  0.0774
 4755W        W47746  18.777  19.904   8.483 -0.2065  0.1336  0.2728
 4756W        W47747  26.935   5.555  14.895  0.0360 -0.2840  0.1366
 4757W        W47748   8.576   4.337  22.313  0.0787  0.0018 -0.0521
 4758W        W47749  15.498   2.622  16.061  0.1129  0.0332 -0.0601
 4759W        W47750  32.369  23.975   0.934 -0.0332  0.0019 -0.3225
 4760W        W47751  20.577   1.458   3.658  0.1081  0.0617  0.1819
 4761W        W47752  24.095  22.829  26.679 -0.3728  0.1204 -0.1652
 4762W        W47753  27.815  10.883   6.447 -0.3412 -0.2374 -0.1516
 4763W        W47754  26.996  17.806   9.954  0.2814  0.3546  0.1496
 4764W        W47755   3.529  26.418   6.600  0.1272  0.0672  0.3882
 4765W        W47756  24.127   9.708   7.524  0.1756  0.1080 -0.2744
 4766W        W47757  21.013   6.895  18.241 -0.0884  0.3808  0.0279
 4767W        W47758  15.253  19.638  23.905  0.2882  0.1149  0.1734
 4768W        W47759  10.041  15.996  29.023  0.4341  0.2451  0.0163
 4769W        W47760  29.683  19.734  22.144  0.2691  0.0290 -0.3378
 4770W        W47761   2.571  12.898  20.468  0.0350  0.0756  0.1024
 4771W        W47762   0.404  22.171   5.882 -0.6481  0.0147 -0.0190
 4772W        W47763  23.801  16.209   0.751 -0.4100 -0.0833  0.1107
 4773W        W47764  11.364  31.988  24.841 -0.0718 -0.0625 -0.1703
 4774W        W47765   9.942   4.610  15.492  0.0254  0.2615 -0.2562
 4775W        W47766  23.429  18.795  19.086  0.2920 -0.1090  0.1479
 4776W        W47767  30.951  18.892  19.296 -0.1792  0.0939 -0.3305
 4777W        W47768  18.551   9.399   2.660  0.1865 -0.1404  0.6614
 4778W        W47769  22.654   5.227   7.449 -0.1103 -0.1097  0.2046
 4779W        W47770  20.529  19.953  25.551 -0.4203  0.0576  0.2654
 4780W        W47771  23.438  11.963   7.253  0.3489 -0.0175  0.1099
 4781W        W47772  13.836   9.118  27.188  0.3942 -0.4531 -0.1678
 4782W        W47773  14.281  21.072   3.971  0.2279 -0.0471  0.1236
 4783W        W47774  24.440  13.654  22.828 -0.1129 -0.3006 -0.2048
 4784W        W47775  12.847  21.939  13.991 -0.2638 -0.1418  0.3662
 4785W        W47776  31.142  11.048  22.004 -0.1008  0.0017 -0.0935
 4786W        W47777  20.333  11.496   0.273  0.0801  0.1959  0.0291
 4787W        W47778   1.552   8.200  24.065  0.1581 -0.1739  0.2826
 4788W        W47779  29.996  15.592   5.511 -0.0031 -0.0919 -0.4192
 4789W        W47780  19.759   4.067  23.634  0.4797 -0.4901 -0.0397
 4790W        W47781  21.052   2.629  29.239  0.0475 -0.2499  0.0154
 4791W        W47782  26.224  14.129  28.646  0.0779 -0.0524  0.0209
 4792W        W47783  19.295  22.083   1.015  0.0920 -0.1592 -0.0625
 4793W        W47784  11.743  11.650  10.348 -0.0042  0.3590  0.0611
 4794W        W47785  32.794   1.573  20.483  0.1367  0.0328  0.1123
 4795W        W47786   2.431  28.749  27.521 -0.1300  0.2288 -0.1730
 4796W        W47787  31.752   6.947  14.566  0.1968 -0.2238 -0.0888
 4797W        W47788  16.893  18.330  21.236  0.1394 -0.3999  0.2152
 4798W        W47789  18.789  16.107   3.492  0.0234 -0.1601 -0.1791
 4799W        W47790   1.635  19.956  10.539  0.2683 -0.1123  0.0604
 4800W        W47791   5.619  16.256  10.765  0.2215  0.0583  0.1425
 4801W        W47792   9.269  11.315   0.754  0.2792 -0.2322 -0.2701
 4802W        W47793  30.095  10.351  25.682  0.0523 -0.4430  0.0952
 4803W        W47794  28.973   3.786  24.575 -0.0104 -0.3076 -0.0226
 4804W        W47795  14.255  12.251   0.556 -0.0156 -0.1018 -0.0876
 4805W        W47796  26.353  16.567   8.539 -0.0194  0.1780  0.3441
 4806W        W47797  28.794  12.706  24.661 -0.1901  0.1284  0.1848
 4807W        W47798  22.206   0.961  26.640  0.4979 -0.2069  0.3288
 4808W        W47799  19.693  32.569   0.122  0.2473 -0.1605  0.2005
 4809W        W47800  26.795  13.933   0.426 -0.0398 -0.0968 -0.0666
 4810W        W47801  13.033  24.733   9.206 -0.4075 -0.3097 -0.2974
 4811W        W47802   2.199  15.050   3.876 -0.0784 -0.2405  0.0592
 4812W        W47803  33.080  15.442   5.183 -0.0636  0.3274  0.0935
 4813W        W47804   8.178  13.682   4.080  0.0848 -0.2372 -0.1511
 4814W        W47805  25.919  15.504   9.865  0.4263  0.1787  0.0456
 4815W        W47806  17.967  13.871   5.232  0.0623  0.0931 -0.1536
 4816W        W47807   5.237  13.624   4.684  0.1074  0.3023 -0.2971
 4817W        W47808  18.566  13.846   3.799 -0.1694 -0.2833 -0.1066
 4818W        W47809   9.281  11.241  24.714 -0.3943 -0.0772  0.0406
 4819W        W47810   6.200   9.696  16.900 -0.1415 -0.3057 -0.0926
 4820W        W47811  15.983  14.638  25.160  0.0897  0.0356 -0.3544
 4821W        W47812  32.404  17.199  19.126  0.1242  0.0047 -0.2452
 4822W        W47813  30.635  10.089  20.816  0.1016 -0.4723 -0.3274
 4823W        W47814   0.711  20.581   8.482  0.0464  0.2232  0.0993
 4824W        W47815  22.539  10.250   5.785 -0.4915  0.0775  0.1241
 4825W        W47816  15.430  18.064  27.441 -0.4591 -0.0450 -0.1724
 4826W        W47817  19.492  12.183  25.239  0.0840 -0.0209 -0.2328
 4827W        W47818  30.403   3.211   8.472 -0.1487 -0.2106  0.1726
 4828W        W47819   4.045   5.265  20.542 -0.1706 -0.0192 -0.2059
 4829W        W47820   2.890  10.862   5.775 -0.4059 -0.0653 -0.0233
 4830W        W47821  21.644  19.368  29.033  0.3166 -0.1554  0.0932
 4831W        W47822  30.079  12.256  21.875 -0.1207 -0.1748 -0.0127
 4832W        W47823  29.810  19.544  28.359  0.0154  0.0926 -0.1778
 4833W        W47824   0.037  17.020  28.574 -0.0261 -0.0081 -0.0201
 4834W        W47825  19.491  22.485   0.837 -0.0758  0.1384 -0.1798
 4835W        W47826  24.660  23.135  23.101  0.2347  0.1854 -0.0631
 4836W        W47827  20.226  22.736   0.213  0.1342  0.1869  0.0519
 4837W        W47828  34.712  12.593   4.693  0.0966  0.1591 -0.1348
 4838W        W47829  24.926  10.005   9.632  0.3739 -0.0889 -0.2988
 4839W        W47830  24.364  25.296  25.230 -0.0844  0.4852 -0.1746
 4840W        W47831  14.156  16.048   3.138  0.0301  0.0803  0.0333
 4841W        W47832   8.744  21.683   5.468 -0.1426  0.0719 -0.1601
 4842W        W47833   0.860  31.264  13.884 -0.0152  0.0119  0.1500
 4843W        W47834  31.938  25.588   2.608 -0.0159 -0.3620  0.0742
 4844W        W47835  10.367   9.524   8.388  0.2794 -0.2224  0.3577
 4845W        W47836  30.117   6.144  19.969 -0.1903  0.1381 -0.1486
 4846W        W47837   4.902  16.856  19.185 -0.1035  0.0442  0.0457
 4847W        W47838  23.831  12.495  20.530 -0.0906 -0.3128 -0.1313
 4848W        W47839   4.034  29.513  21.624 -0.1104  0.0287  0.0452
 4849W        W47840  27.509  11.520   9.433 -0.0399  0.0423 -0.0658
 4850W        W47841   1.764  18.671  28.393  0.2790  0.0321 -0.1409
 4851W        W47842  13.522  18.640   3.470  0.3855 -0.1676  0.0992
 4852W        W47843  32.925   3.310   0.770  0.0011 -0.1020 -0.0334
 4853W        W47844  20.904  29.980   0.448  0.2758 -0.2500 -0.0312
 4854W        W47845  12.451  25.125  19.758 -0.0708  0.0485  0.0148
 4855W        W47846  13.851  15.106  16.293 -0.1140 -0.1961  0.0676
 4856W        W47847  14.553  11.339  16.914 -0.0136 -0.1160 -0.0710
 4857W        W47848  23.307  10.631  23.900 -0.1597 -0.0524  0.1751
 4858W        W47849   6.673  20.593   5.378 -0.2668 -0.1943 -0.0576
 4859W        W47850  21.693  16.590   7.417  0.1415  0.0435 -0.1460
 4860W        W47851  23.320  28.914  22.244  0.2490  0.0847  0.0881
 4861W        W47852  16.976   4.512  23.021 -0.0522  0.1529  0.1390
 4862W        W47853  17.730  10.403  20.477 -0.0518  0.2182  0.2660
 4863W        W47854  15.936  14.513   5.899  0.0147  0.1167  0.2000
 4864W        W47855  23.214  13.023   2.194  0.0722  0.2817 -0.2235
 4865W        W47856  26.197  25.354  28.308  0.0326 -0.1243  0.0810
 4866W        W47857  27.429   8.619  22.723  0.0572 -0.2881 -0.3722
 4867W        W47858  18.204  21.522  25.162  0.0038  0.0761 -0.0695
 4868W        W47859  14.791  10.544  26.559  0.1689 -0.2174 -0.1102
 4869W        W47860  12.363  30.506  22.554  0.1569  0.3111  0.2110
 4870W        W47861  32.438  23.155   6.964 -0.1296 -0.0792  0.1841
 4871W        W47862  18.681  17.074  25.834 -0.0796 -0.1786 -0.0865
 4872W        W47863  27.822  34.720   1.654 -0.2270 -0.0335 -0.0669
 4873W        W47864  29.941   8.507   3.722 -0.2307 -0.0867  0.0018
 4874W        W47865  27.048   6.611  16.910  0.0346 -0.0329  0.2453
 4875W        W47866  24.705  10.542  28.548  0.2257 -0.0289 -0.3932
 4876W        W47867  20.663   8.618  16.147  0.0216  0.0810 -0.1113
 4877W        W47868  19.848   5.344   2.857 -0.0494  0.0643 -0.1127
 4878W        W47869  20.695   5.591   6.717  0.3228  0.2487  0.2946
 4879W        W47870  19.969  25.517  26.783 -0.3444 -0.1378  0.6676
 4880W        W47871   9.471  31.124   7.537  0.0088 -0.0896 -0.1133
 4881W        W47872  26.656  14.460   5.762  0.1863  0.0745 -0.1745
 4882W        W47873  17.387   6.917  25.851 -0.0721  0.1328 -0.1505
 4883W        W47874   2.935  13.305  27.722 -0.0178 -0.1621  0.0868
 4884W        W47875  30.454  30.764   2.988  0.0035  0.0624  0.0528
 4885W        W47876  32.022  15.934   6.766 -0.2557 -0.1152  0.0957
 4886W        W47877  24.844  16.557  28.715  0.0214  0.1655 -0.0217
 4887W        W47878  31.206  25.895   6.042 -0.2378  0.2387 -0.0608
 4888W        W47879   0.678  20.862   2.066 -0.1632 -0.3204  0.0284
 4889W        W47880  23.580  20.472   7.168  0.4101  0.0088 -0.0032
 4890W        W47881  31.590   1.994   8.469 -0.0507  0.2026  0.1276
 4891W        W47882  18.987  17.276   0.374 -0.4242  0.4425 -0.3294
 4892W        W47883  21.933  22.370   6.090 -0.1496 -0.1523  0.1093
 4893W        W47884  19.546  28.719  21.796  0.0834 -0.0092  0.0009
 4894W        W47885  32.344  11.613   5.346 -0.0727 -0.0166  0.0172
 4895W        W47886  23.507  13.337  26.258  0.0673 -0.0134 -0.0016
 4896W        W47887  34.092  15.886   0.883 -0.2803  0.0314  0.4100
 4897W        W47888  23.299  25.076   2.321 -0.0415  0.1916  0.0616
 4898W        W47889  21.930   3.262  14.519 -0.0790  0.0402 -0.3705
 4899W        W47890  14.445  16.667  25.508 -0.0336 -0.4382 -0.1600
 4900W        W47891   2.580   9.316  15.617  0.0994 -0.1249  0.2372
 4901W        W47892   6.449  27.245  21.093  0.0340 -0.2207 -0.0226
 4902W        W47893  21.450   6.435   4.314 -0.2333  0.2649  0.3836
 4903W        W47894  32.205  22.805   5.741 -0.0721 -0.2818  0.1453
 4904W        W47895   4.741  12.290  10.101  0.0209  0.2676  0.4116
 4905W        W47896  28.512  15.776   4.663 -0.2380  0.0424  0.2634
 4906W        W47897  24.232   2.110   3.669  0.1153  0.2128 -0.3701
 4907W        W47898  10.450   5.561  21.238 -0.0706 -0.1301 -0.1582
 4908W        W47899  11.009  19.790   3.025 -0.1605 -0.1296 -0.2227
 4909W        W47900   7.062   9.659  25.741  0.0829 -0.1277 -0.0776
 4910W        W47901  22.298  31.771   2.950 -0.3126  0.2733  0.0641
 4911W        W47902  29.227  10.862   3.534  0.0802 -0.0590 -0.2145
 4912W        W47903  27.362  23.121   3.936 -0.0848 -0.0461 -0.1527
 4913W        W47904   7.010  17.796  24.965  0.2004  0.0516 -0.1008
 4914W        W47905  33.656  19.908   0.492 -0.3790  0.2799 -0.1380
 4915W        W47906  18.918   9.654   9.158 -0.0971  0.1378  0.0372
 4916W        W47907  26.368  21.347  27.335  0.0035 -0.0378 -0.1610
 4917W        W47908  22.124  17.454  22.799  0.0193 -0.0638 -0.2054
 4918W        W47909  31.380   8.185   2.860  0.2137 -0.4240 -0.1978
 4919W        W47910  33.814  11.255   9.725 -0.2916 -0.1643 -0.1136
 4920W        W47911  31.901  32.294   1.828  0.0984 -0.2596  0.0975
 4921W        W47912   6.821   2.236   2.954 -0.2503 -0.2288  0.1368
 4922W        W47913  25.170   3.314  15.566  0.4326  0.1056  0.1189
 4923W        W47914  20.631  19.975  23.243 -0.0310  0.1034  0.2399
 4924W        W47915  23.097  32.809   7.722  0.2570 -0.0319 -0.1785
 4925W        W47916  22.815   6.430  25.818  0.3465  0.0653  0.0937
 4926W        W47917  22.318  16.408  25.226 -0.2980 -0.0939  0.0068
 4927W        W47918  29.661   8.477  20.236 -0.0740  0.2934 -0.1600
 4928W        W47919  29.624  11.507   4.179  0.0162 -0.0068 -0.0907
 4929W        W47920   7.567  10.742   1.098 -0.0279  0.0754  0.0976
 4930W        W47921  33.014  26.673  20.381  0.0035  0.0609  0.1027
 4931W        W47922  20.117  15.190   6.286  0.2323 -0.2466  0.2072
 4932W        W47923  32.917   9.691  27.811  0.0506  0.2315  0.1619
 4933W        W47924  30.222  25.775  14.662 -0.3697  0.3342  0.1431
 4934W        W47925  28.139  10.200  29.066  0.1177 -0.2993  0.4290
 4935W        W47926  28.357  22.852  20.937  0.3830  0.2026  0.2202
 4936W        W47927   1.398   8.469   1.448  0.0425 -0.2328  0.1817
 4937W        W47928  18.062   7.843   2.859 -0.0074 -0.1701  0.0448
 4938W        W47929  10.432   2.321   1.216  0.0789 -0.2954 -0.1142
 4939W        W47930  25.509   0.457  21.226  0.1060  0.4002  0.1081
 4940W        W47931  28.469  12.019   3.702 -0.1571 -0.1967 -0.1011
 4941W        W47932  27.836  17.444  25.115 -0.0982 -0.2415  0.2441
 4942W        W47933   1.331  16.842   3.915  0.1043  0.2315  0.0777
 4943W        W47934  33.941   3.639  19.593 -0.1474  0.0727 -0.0302
 4944W        W47935  22.491  16.767  16.063 -0.1694 -0.0604  0.4707
 4945W        W47936  34.516  24.476  23.421 -0.1142 -0.2319  0.1807
 4946W        W47937   1.825  23.587   5.145  0.1063 -0.1852 -0.2385
 4947W        W47938  24.830   4.554  14.672  0.5530  0.0710 -0.0720
 4948W        W47939  24.995  28.031   3.213  0.1323 -0.0465 -0.1515
 4949W        W47940  25.009  11.568   3.304 -0.1441  0.1846  0.1461
 4950W        W47941  27.029  28.785   7.753 -0.0723  0.4249 -0.1035
 4951W        W47942  27.214  15.382   5.392  0.0755 -0.3247 -0.3907
 4952W        W47943  20.219  22.927   1.085  0.0747 -0.0883  0.0227
 4953W        W47944  25.310   6.538  28.150  0.0847  0.2439  0.1188
 4954W        W47945  18.894  29.207   8.691  0.0075  0.0691  0.0886
 4955W        W47946  20.809  30.007  19.129 -0.0699  0.2379  0.0480
 4956W        W47947  27.910   7.215  28.400 -0.1875 -0.0650  0.0278
 4957W        W47948  28.635  29.580   3.358 -0.1566 -0.2719  0.0049
 4958W        W47949  34.170  18.071   2.797 -0.3280  0.1108  0.0487
 4959W        W47950  27.733  24.583   5.812 -0.2515  0.2775  0.2810
 4960W        W47951  21.687  13.033  25.267  0.0327  0.2836 -0.1315
 4961W        W47952  20.334  16.184  28.625  0.2735 -0.0920 -0.0387
 4962W        W47953   1.915  14.613  28.292  0.3286 -0.0660  0.0466
 4963W        W47954  31.881  19.589  15.735  0.1910  0.1922 -0.0027
 4964W        W47955  18.759  14.133  27.544 -0.2060  0.1848  0.3853
 4965W        W47956  23.346  10.829   4.071  0.0615  0.0095 -0.4866
 4966W        W47957   9.722  33.500   5.858 -0.1067 -0.2434 -0.1714
 4967W        W47958  29.418  19.924  20.672  0.1494 -0.0587  0.1923
 4968W        W47959  13.495  22.332  21.291 -0.1458  0.0569 -0.0390
 4969W        W47960   1.138  19.059  21.697 -0.3798 -0.1232 -0.1488
 4970W        W47961  25.803  11.381   2.251 -0.1380 -0.2753 -0.3374
 4971W        W47962  17.016  32.075   3.469 -0.0703  0.1343 -0.1304
 4972W        W47963  17.457  11.567  18.300 -0.1334 -0.2569  0.0376
 4973W        W47964  32.726   4.708  16.515 -0.0834  0.1908  0.0579
 4974W        W47965   3.867  11.358   9.014  0.2826 -0.1678  0.1304
 4975W        W47966  24.053  29.044  18.941 -0.2671  0.2605 -0.0900
 4976W        W47967  22.914   7.650  19.790  0.0433  0.0219  0.0238
 4977W        W47968  33.176  28.219  14.654 -0.3139  0.2618  0.2076
 4978W        W47969   6.476  14.723  16.812  0.1735  0.0429 -0.6526
 4979W        W47970  17.972  13.082  20.934 -0.0424  0.3941  0.3192
 4980W        W47971  26.622  11.592   7.874  0.2742  0.1295  0.0570
 4981W        W47972  29.080   8.001  28.177 -0.1867  0.2627  0.2222
 4982W        W47973   2.437  31.967   2.280  0.1152  0.2485  0.2175
 4983W        W47974  12.181  28.479  25.252  0.1640  0.2964 -0.0229
 4984W        W47975   8.491   2.636  16.426 -0.1816 -0.2044 -0.1493
 4985W        W47976  17.076  10.816   8.616 -0.0047  0.0667 -0.0962
 4986W        W47977  28.588  19.508   3.720 -0.0606 -0.0024 -0.0313
 4987W        W47978  23.005   8.362   8.164 -0.2255 -0.2099  0.3075
 4988W        W47979  20.887  22.653  22.016 -0.0579 -0.0825  0.0677
 4989W        W47980  30.444  31.255  25.499  0.0378 -0.2624 -0.0084
 4990W        W47981  23.356  26.031   4.784 -0.1000  0.2507  0.0281
 4991W        W47982   7.752  16.929  18.086 -0.1052 -0.0399 -0.0871
 4992W        W47983  31.183  10.943  16.151  0.1358 -0.1836 -0.0764
 4993W        W47984   4.140  19.708  28.827  0.0157 -0.0630 -0.1590
 4994W        W47985   7.401  28.833  21.534  0.2024  0.0309  0.1535
 4995W        W47986   0.921  11.331  15.338  0.0689 -0.1907  0.2407
 4996W        W47987  26.836  10.076   0.818  0.0993 -0.0995 -0.0852
 4997W        W47988  23.480   3.204  18.483  0.0687  0.1869  0.2206
 4998W        W47989  14.140   7.953  20.026 -0.3025 -0.0487  0.1521
 4999W        W47990  27.894  14.893   1.209  0.0739 -0.0924  0.1287
 5000W        W47991  28.070  34.526   7.262  0.1409 -0.1046 -0.0640
 5001W        W47992  26.792  22.040  27.717  0.0267 -0.0186  0.2658
 5002W        W47993  30.797   1.076   6.253  0.0987 -0.2451  0.0807
 5003W        W47994  26.769  31.765   0.514  0.0891  0.2221  0.0869
 5004W        W47995   9.142   2.389   4.024 -0.3037  0.0647 -0.1575
 5005W        W47996  19.599   8.436   1.486  0.2286 -0.1707  0.1402
 5006W        W47997  22.255  13.989  22.860 -0.1091  0.2886  0.0996
 5007W        W47998  14.137  16.001  29.245  0.1880 -0.1742  0.0386
 5008W        W47999  17.610   0.647  19.697 -0.0778 -0.2149 -0.0395
 5009W        W48000   0.755  17.467  17.363  0.3591 -0.2090  0.1947
 5010W        W48001   1.942   7.739   5.045  0.0491  0.0635 -0.2772
 5011W        W48002  20.535  13.106   2.053 -0.1275  0.2020 -0.0194
 5012W        W48003   4.103   9.717   4.130 -0.0410  0.0962 -0.3640
 5013W        W48004  26.545  32.274  14.243  0.0939  0.0077  0.0732
 5014W        W48005   1.018   7.219  26.411  0.1460  0.0775  0.0838
 5015W        W48006  24.132   4.875   1.268  0.0889 -0.1095 -0.0297
 5016W        W48007  21.465  22.090  15.808 -0.0262  0.2307 -0.0213
 5017W        W48008  23.096  33.704   1.785  0.0581 -0.1847  0.2714
 5018W        W48009  15.391  18.687  28.524 -0.2363 -0.0328 -0.3393
 5019W        W48010  20.438  18.368  15.446  0.1147 -0.2126 -0.0899
 5020W        W48011  32.872  22.331  27.612  0.0049  0.5360  0.0201
 5021W        W48012  20.722  17.545  17.140 -0.1089 -0.1605  0.1430
 5022W        W48013  22.038   7.643  15.609  0.4844  0.2625  0.1362
 5023W        W48014  29.295  16.499   9.374 -0.1092  0.1392 -0.1766
 5024W        W48015  18.603  13.211   7.456 -0.0288 -0.1458 -0.0589
 5025W        W48016  29.440  17.176  15.256 -0.2652 -0.0227 -0.4145
 5026W        W48017  34.313  15.418   0.797 -0.1864  0.0434 -0.1316
 5027W        W48018  23.442   4.989  23.681 -0.1008 -0.2020  0.1105
 5028W        W48019  20.746   9.938   3.771  0.1412  0.1550  0.0001
 5029W        W48020  30.306  20.074  29.227 -0.0481 -0.0930 -0.2090
 5030W        W48021  33.705  34.198   8.851 -0.1394  0.1483 -0.2004
 5031W        W48022  17.005  19.497   8.546 -0.2066 -0.0077 -0.0792
 5032W        W48023  32.906   5.746   6.822  0.1005 -0.0332 -0.0924
 5033W        W48024  23.397   9.021   6.969 -0.2444  0.0961 -0.2153
 5034W        W48025  20.745  14.800  24.128  0.0596 -0.0781 -0.0323
 5035W        W48026  20.797  15.928   2.396 -0.4585  0.0666 -0.1574
 5036W        W48027  12.137  25.207  17.805  0.1044 -0.0879  0.2788
 5037W        W48028  24.651   5.886  25.636 -0.2867 -0.0994 -0.0118
 5038W        W48029  19.593   7.023  16.729  0.0320  0.1118 -0.0979
 5039W        W48030  15.656  33.719  27.405 -0.0704 -0.1370  0.2849
 5040W        W48031  23.881  24.613   3.056  0.3712  0.2530 -0.4455
 5041W        W48032  25.848   5.162   0.768 -0.1634 -0.0618  0.3617
 5042W        W48033  10.876  15.375   4.567  0.0183  0.0617  0.1303
 5043W        W48034  28.438  24.034  16.544 -0.0463 -0.0444  0.0924
 5044W        W48035  24.195   2.322   6.623 -0.1662 -0.0009  0.1988
 5045W        W48036  32.029  12.317  29.104  0.0148  0.3308 -0.2237
 5046W        W48037  21.622  27.267   4.285 -0.1403 -0.1126  0.3742
 5047W        W48038  28.227   2.665  24.148  0.3442  0.1629 -0.1224
 5048W        W48039  23.087  20.675  23.263 -0.0963  0.1214  0.2648
 5049W        W48040  18.800  18.322  23.801  0.2811  0.0684  0.1095
 5050W        W48041  29.935  17.274  28.024 -0.0931  0.1082  0.2213
 5051W        W48042  27.217   8.469  26.543 -0.2035  0.0085 -0.1036
 5052W        W48043   7.017  10.582  26.401  0.0526 -0.2096  0.0264
 5053W        W48044   1.216  21.035   1.032  0.2056  0.0769 -0.0725
 5054W        W48045  28.371  34.295   8.167 -0.2083 -0.0094 -0.1377
 5055W        W48046   9.578  11.031  27.938  0.2290 -0.2125  0.2033
 5056W        W48047  29.887  17.959  23.761 -0.0250 -0.1741 -0.1875
 5057W        W48048  11.863   3.865  10.283 -0.2806 -0.0352 -0.3712
 5058W        W48049  15.817  33.596  16.582  0.0691  0.1355  0.3372
 5059W        W48050  19.869  16.217   3.581  0.1265 -0.1761 -0.1242
 5060W        W48051   2.843   6.767   8.971  0.4225 -0.0362  0.0575
 5061W        W48052  29.188  30.679  20.033  0.2506 -0.2207  0.0943
 5062W        W48053   4.018   4.834  28.504 -0.0289 -0.1300 -0.0266
 5063W        W48054  24.371  22.816   6.271 -0.1828  0.0613 -0.0093
 5064W        W48055  24.197  18.672  17.530 -0.1577 -0.0602  0.3495
 5065W        W48056   7.799  16.839   0.649 -0.1112  0.5343  0.2280
 5066W        W48057  16.885  11.972   2.305 -0.1237 -0.3601 -0.3126
 5067W        W48058  30.026  30.730   8.803 -0.1374 -0.3516  0.2825
 5068W        W48059  13.229  28.110  14.337  0.2180  0.2135  0.1708
 5069W        W48060  28.348  26.062   4.127  0.1765 -0.0159  0.0627
 5070W        W48061  15.488   9.395  24.460 -0.0792  0.2706 -0.0034
 5071W        W48062  24.532   3.507  19.145  0.3763 -0.3132  0.0200
 5072W        W48063  17.022  21.414   7.819  0.0726 -0.3192 -0.1708
 5073W        W48064  28.492  10.071   7.911 -0.0715  0.0230 -0.1615
 5074W        W48065  25.883  23.514   7.898  0.2394 -0.0821  0.1135
 5075W        W48066  30.322  16.401  22.152  0.2065  0.0280 -0.1496
 5076W        W48067  20.677  13.592  19.903 -0.2493 -0.4240 -0.2334
 5077W        W48068  19.614  19.369  21.952 -0.0317 -0.1574 -0.0400
 5078W        W48069  24.209   9.522   9.392 -0.0878  0.0352  0.4628
 5079W        W48070  27.500  19.945  28.647 -0.1620  0.0125 -0.0267
 5080W        W48071  15.033  34.660  17.802  0.2858  0.1947  0.1585
 5081W        W48072  16.311  23.956  20.892  0.0749 -0.1686 -0.1985
 5082W        W48073  33.444   7.751  24.319 -0.4940 -0.0807  0.5484
 5083W        W48074   9.589  21.601  23.852 -0.2496  0.1657 -0.3021
 5084W        W48075  15.507  29.093  17.655 -0.0946  0.0612 -0.2220
 5085W        W48076  14.412  17.029  24.689  0.0200 -0.2379 -0.1935
 5086W        W48077  32.920  27.004  23.583  0.3713  0.2609  0.3421
 5087W        W48078   2.522  19.456  25.018 -0.1140  0.2780  0.1152
 5088W        W48079  27.132  25.951  23.737  0.0010  0.2629  0.1487
 5089W        W48080   9.846  11.995  24.208 -0.0358  0.0347 -0.2464
 5090W        W48081  21.321  29.004  13.961 -0.1312 -0.0200  0.0937
 5091W        W48082  14.792  17.611  28.361  0.0889 -0.3081 -0.0473
 5092W        W48083   5.281  11.430  17.341  0.2113  0.2842  0.4590
 5093W        W48084   7.707  17.999  27.123 -0.1535 -0.0214 -0.1318
 5094W        W48085  10.677   5.455  20.668  0.0949 -0.1321  0.0856
 5095W        W48086  32.509   6.877  19.495  0.1911 -0.2793  0.1385
 5096W        W48087  26.697  12.715   2.289  0.1586 -0.1097  0.1086
 5097W        W48088  17.852  13.802  19.310  0.0621  0.1632  0.0506
 5098W        W48089  15.336   7.200  22.435 -0.1106 -0.3035 -0.0173
 5099W        W48090  10.212  21.871  16.184 -0.2646 -0.1294  0.0881
 5100W        W48091  31.843  29.583  16.902  0.2600  0.2654  0.2062
 5101W        W48092   4.561  32.297  23.557 -0.3667  0.0745 -0.2779
 5102W        W48093  27.865   2.486  22.110  0.0371  0.0356 -0.4139
 5103W        W48094  27.701  33.685  23.431  0.1261 -0.0885  0.0731
 5104W        W48095  27.977  28.473  18.680 -0.1791  0.1247 -0.0246
 5105W        W48096  14.607  11.274  23.925 -0.0930  0.1549  0.0813
 5106W        W48097  27.811  20.106  23.827  0.0545 -0.4098 -0.1470
 5107W        W48098  17.165  22.585  15.752  0.1276 -0.1217  0.1737
 5108W        W48099  29.681  14.906  20.030 -0.0713  0.2540  0.1382
 5109W        W48100  25.486  19.566  19.363  0.0653 -0.1977 -0.0924
 5110W        W48101   1.152   4.269  24.964  0.2870 -0.2681 -0.2115
 5111W        W48102  12.792   7.835  25.527 -0.3530 -0.1393 -0.2172
 5112W        W48103  24.457   0.739  15.348  0.0897 -0.3812 -0.1279
 5113W        W48104  14.715  18.503  16.005 -0.1963  0.2444 -0.1787
 5114W        W48105  26.448   8.508  15.201  0.3854  0.0028  0.0670
 5115W        W48106  28.354  32.844  21.532 -0.2403  0.5150 -0.0334
 5116W        W48107  34.075  31.454  18.389 -0.0128  0.0009 -0.3038
 5117W        W48108  33.423  13.695  22.900 -0.2435 -0.0496 -0.0443
 5118W        W48109  25.528  20.801  15.693 -0.1961 -0.0406 -0.0355
 5119W        W48110  24.776  22.431  26.645 -0.0832  0.3290  0.1423
 5120W        W48111   9.956  29.945  18.483 -0.0161 -0.0046  0.1044
 5121W        W48112  22.948   9.174  23.672 -0.0262 -0.0187  0.0405
 5122W        W48113   1.270  16.684  21.692 -0.1879 -0.0720 -0.1046
 5123W        W48114  28.178  16.566  23.380  0.1623 -0.0262 -0.0446
 5124W        W48115  14.328  21.271   1.598  0.3008 -0.0940  0.0623
 5125W        W48116  11.770   1.012  17.695  0.0197 -0.1567  0.1093
 5126W        W48117  15.243  22.450  21.851  0.1657 -0.4182  0.1870
 5127W        W48118  13.373  30.101  15.782 -0.0750  0.0182 -0.1942
 5128W        W48119  31.579   5.641  17.151 -0.1738 -0.1023 -0.2866
 5129W        W48120  11.030  21.425  16.480  0.2854  0.2534 -0.0673
 5130W        W48121  25.013  30.078  19.266 -0.1907 -0.0854  0.2275
 5131W        W48122  15.833  25.501  16.359 -0.1582  0.0162 -0.4246
 5132W        W48123  13.120  21.432  28.724  0.0751  0.3020  0.2256
 5133W        W48124  25.981   6.326  23.934  0.3955 -0.3015  0.0952
 5134W        W48125  15.113  24.365  14.396 -0.0747  0.1236  0.0354
 5135W        W48126   5.331  25.734  19.125  0.0579  0.1550 -0.1788
 5136W        W48127  28.103  14.781  22.287 -0.1003  0.3111  0.1565
 5137W        W48128  11.718  23.580  24.348  0.1378 -0.1706  0.3013
 5138W        W48129  23.167  12.913  15.295 -0.0625  0.0098 -0.1793
 5139W        W48130  20.307  27.588  14.445 -0.1032 -0.0501  0.0797
 5140W        W48131  15.118  17.763  14.356  0.0256  0.0705  0.1648
 5141W        W48132  18.909  34.065  19.380 -0.1565 -0.1083 -0.2084
 5142W        W48133  19.449  30.109  16.694 -0.2586  0.1095  0.1498
 5143W        W48134  23.205  10.589  24.921  0.1934 -0.2223  0.0586
 5144W        W48135  20.405  13.512  22.995 -0.1798  0.1733 -0.2461
 5145W        W48136  16.199   3.437  19.651 -0.1384  0.0124 -0.0182
 5146W        W48137  20.947   3.820  28.925 -0.1248 -0.2621 -0.2893
 5147W        W48138  30.514  20.904   7.768 -0.1200  0.2719  0.1233
 5148W        W48139  26.384  28.490   6.403 -0.0414 -0.0701 -0.1400
 5149W        W48140  11.558   2.248  29.194  0.0023 -0.0750  0.0424
 5150W        W48141  26.068  11.498  27.405 -0.1099 -0.0838 -0.0545
 5151W        W48142  20.151  23.543  19.279 -0.1178  0.0678 -0.0900
 5152W        W48143   7.121  10.628  23.287 -0.2293  0.1951 -0.0780
 5153W        W48144  31.927   5.813  14.211 -0.1375  0.1217 -0.0497
 5154W        W48145  21.102  16.859  16.285 -0.0193  0.0002  0.2006
 5155W        W48146  20.804   9.178  14.118  0.0025  0.3068  0.0067
 5156W        W48147  15.605  24.453  18.649  0.2296  0.1379  0.0649
 5157W        W48148  32.198  15.708  23.806  0.0619 -0.1141  0.2320
 5158W        W48149  26.542   0.201  21.706  0.0081 -0.3118 -0.1858
 5159W        W48150  25.065  29.295  13.655 -0.1157 -0.0982  0.0038
 5160W        W48151  18.323  22.807  22.848 -0.2052  0.0931  0.0311
 5161W        W48152  22.629  15.483  19.611 -0.1424 -0.2959  0.1456
 5162W        W48153   7.804  17.125  23.917 -0.1158 -0.0514  0.0477
 5163W        W48154  28.934  18.988  15.941 -0.2236  0.1813  0.0367
 5164W        W48155  34.522   6.242  14.578 -0.1281  0.1334 -0.0525
 5165W        W48156  17.916  25.326  17.099 -0.2166  0.3016 -0.3164
 5166W        W48157  28.588  24.635  19.573 -0.1388 -0.2847 -0.0532
 5167W        W48158  30.253  18.588  26.810 -0.0971 -0.0236  0.1365
 5168W        W48159  29.092   4.003  17.844 -0.2974 -0.1764  0.1499
 5169W        W48160  25.330   6.330  15.698  0.1719 -0.3077 -0.0011
 5170W        W48161   8.603  24.512  24.937  0.1124  0.2754 -0.4114
 5171W        W48162  26.788   2.830  17.043 -0.2178 -0.0847 -0.1292
 5172W        W48163  30.100  13.209  26.660  0.2699 -0.2633  0.0309
 5173W        W48164   9.360  16.948  24.331 -0.3932 -0.1393  0.0814
 5174W        W48165  28.625  15.433  16.037 -0.0801 -0.0913 -0.3012
 5175W        W48166  19.463  18.821  16.076 -0.2029 -0.0546 -0.0637
 5176W        W48167  24.256  11.210  18.066  0.0358 -0.2111  0.0676
 5177W        W48168   1.497  27.373   1.195  0.3223 -0.0544  0.3404
 5178W        W48169  25.075  28.013  15.767 -0.1049  0.4322  0.0066
 5179W        W48170   7.253  24.934  27.753  0.1288  0.0814  0.3340
 5180W        W48171  22.146  21.143  12.790 -0.3623  0.0511 -0.4401
 5181W        W48172  32.332   2.430  14.635  0.0596  0.0916  0.2069
 5182W        W48173  15.370  23.763   5.753  0.1777 -0.0695 -0.0827
 5183W        W48174   0.713  11.352   2.445 -0.0641 -0.0810 -0.0988
 5184W        W48175   0.398  24.545  25.465  0.0875 -0.2564  0.1334
 5185W        W48176  19.459  22.288  14.417  0.2770  0.1864  0.1114
 5186W        W48177  31.473  27.797  18.373  0.0259  0.0261 -0.1206
 5187W        W48178  30.601   8.900  20.105  0.0428 -0.1384  0.0773
 5188W        W48179   5.564  22.569  18.997  0.0275 -0.2434 -0.1690
 5189W        W48180   2.796  10.838  23.873 -0.1144 -0.2967  0.4287
 5190W        W48181  27.174   0.582  14.972  0.2676 -0.0244  0.0948
 5191W        W48182  28.509   6.919  20.659  0.1862 -0.3828  0.0587
 5192W        W48183  19.509  23.387  28.763  0.1855 -0.0628  0.0433
 5193W        W48184  26.467  20.516  15.457  0.0740  0.1504 -0.1203
 5194W        W48185  12.861  30.603  24.388  0.1930  0.0262  0.0985
 5195W        W48186  26.051  23.780  16.600 -0.1896 -0.2816  0.2356
 5196W        W48187  20.061  28.904  17.822 -0.3656 -0.0641 -0.0476
 5197W        W48188  16.789  30.264  19.736  0.1791 -0.1061 -0.0657
 5198W        W48189  18.317  19.060  15.553 -0.0398  0.0746  0.0845
 5199W        W48190   8.810  17.206  15.970 -0.0385  0.1625  0.0379
 5200W        W48191  10.713  10.492   2.057 -0.2185 -0.0041  0.1715
 5201W        W48192  16.107  30.198  13.687 -0.1704 -0.1282  0.0635
 5202W        W48193  32.096  32.905  28.188 -0.0470 -0.1126 -0.0113
 5203W        W48194  15.904  12.591  29.082 -0.0112 -0.0357  0.0778
 5204W        W48195  26.706  23.516  20.984  0.0567  0.1275  0.2677
 5205W        W48196  28.556   9.971  24.339 -0.2632 -0.2074  0.0791
 5206W        W48197  25.086  20.379  13.212 -0.1256  0.1947  0.1979
 5207W        W48198  12.200  13.021  25.922  0.2534 -0.1975 -0.2711
 5208W        W48199  14.433   9.988   9.985  0.1728  0.2076 -0.2459
 5209W        W48200  23.404   5.714  13.573  0.4042 -0.1453  0.1009
 5210W        W48201  26.906  27.458  21.120 -0.0018 -0.1619  0.3975
 5211W        W48202  23.972  24.899  19.363  0.0019  0.4287 -0.2239
 5212W        W48203  21.359  30.021  17.875  0.0305  0.2635  0.1561
 5213W        W48204  28.500   4.145  24.525 -0.1327 -0.2167  0.2504
 5214W        W48205  20.879   8.164  26.246 -0.2110  0.0944  0.3014
 5215W        W48206  25.813  26.167  17.888 -0.0197  0.1154  0.1031
 5216W        W48207  29.883  19.820  24.040 -0.0666  0.4416  0.1217
 5217W        W48208  21.517   6.920  18.514 -0.2689 -0.0540 -0.1916
 5218W        W48209  27.290  33.468  23.249  0.0284  0.0657 -0.2453
 5219W        W48210  19.488  15.972  15.904 -0.0602  0.2720  0.1071
 5220W        W48211  29.695   8.244  14.484  0.0116  0.0503  0.0597
 5221W        W48212  28.144  29.924  20.362 -0.0880 -0.1005 -0.1154
 5222W        W48213  29.842  25.170  18.761  0.0766  0.1466 -0.0501
 5223W        W48214  19.804  12.608  27.330 -0.2538  0.1306  0.0909
 5224W        W48215  27.679  14.969  21.426  0.1244  0.1605  0.1628
 5225W        W48216  17.173  20.889  16.208 -0.3001  0.3510 -0.0759
 5226W        W48217  32.070  30.749  16.291 -0.2538 -0.0844 -0.3369
 5227W        W48218  30.057  21.451   0.343  0.0564  0.0247 -0.0029
 5228W        W48219  25.185  19.641  24.353  0.2920  0.1009 -0.0729
 5229W        W48220  27.266  26.914   4.851 -0.2687 -0.0740  0.0357
 5230W        W48221  16.321   0.382   0.142  0.1637 -0.0723 -0.0478
 5231W        W48222  20.147  11.853  20.037  0.0206  0.1237 -0.0460
 5232W        W48223  28.638  29.509  16.197  0.1418 -0.2783  0.1251
 5233W        W48224  21.206  13.686  16.880 -0.1868  0.0587  0.2090
 5234W        W48225  10.490   0.731  16.398 -0.0116 -0.1888 -0.0109
 5235W        W48226  26.432  22.243   8.469 -0.0081 -0.0909  0.1556
 5236W        W48227  15.456  13.703  18.273 -0.2158  0.0474  0.0771
 5237W        W48228  20.211  16.563  13.354 -0.0841  0.1749  0.1429
 5238W        W48229  30.506  11.022   1.178  0.2993  0.0730  0.1491
 5239W        W48230  16.861  34.277  19.021  0.0176 -0.3872  0.0698
 5240W        W48231  26.295  30.346  16.389  0.1119  0.0296 -0.2273
 5241W        W48232  25.900   7.714  15.042 -0.0185  0.1122 -0.0141
 5242W        W48233  22.595  13.915  29.134 -0.1422  0.0586  0.1411
 5243W        W48234   0.605  30.138  26.051  0.3065  0.1886 -0.1758
 5244W        W48235  30.414  30.957  18.630  0.4520 -0.0350 -0.0723
 5245W        W48236  10.624  15.533   3.678  0.0908 -0.1221 -0.2491
 5246W        W48237   7.853   9.168  20.237  0.0429 -0.1045 -0.0769
 5247W        W48238  17.508   6.223  14.803  0.2836 -0.1344 -0.1067
 5248W        W48239  12.821  22.538  18.072 -0.1636 -0.1148 -0.0054
 5249W        W48240  15.175  25.396  21.787 -0.1491 -0.1639 -0.0047
 5250W        W48241   5.850   6.054  20.399 -0.1455 -0.1888  0.4569
 5251W        W48242  21.505  17.691  14.916 -0.0278  0.0546  0.1347
 5252W        W48243  29.128  31.084  19.167  0.0714  0.1794 -0.1736
 5253W        W48244   7.336  15.423  27.828 -0.2848  0.0171  0.0324
 5254W        W48245  13.345   9.815  24.837 -0.0278 -0.1150 -0.0772
 5255W        W48246  28.517  29.263  27.924  0.0430 -0.2495  0.0546
 5256W        W48247  25.515  19.952  13.995 -0.0916 -0.1784  0.0121
 5257W        W48248  31.635  16.946   2.627 -0.1726 -0.2411 -0.2275
 5258W        W48249  24.999  11.164  13.628 -0.2903 -0.2702  0.2171
 5259W        W48250   4.675   0.983  22.417  0.2126  0.4143 -0.3956
 5260W        W48251  16.035  14.548  16.872  0.2014  0.2477 -0.1294
 5261W        W48252  24.796  29.385  25.101 -0.1842  0.0541  0.2158
 5262W        W48253  21.008   6.102  19.855 -0.0414  0.1430  0.0136
 5263W        W48254  26.499  20.035  28.501  0.0727 -0.1952  0.1154
 5264W        W48255  28.693  24.238  24.864 -0.1828  0.1009 -0.0154
 5265W        W48256  25.835   7.873  15.567  0.0275 -0.0625  0.1117
 5266W        W48257  17.350  17.829  14.789  0.1631 -0.1084 -0.0858
 5267W        W48258  26.843  17.065  19.709  0.2713 -0.2174  0.1924
 5268W        W48259  18.129   3.369  26.575 -0.1769  0.1188 -0.2899
 5269W        W48260   2.147  20.943  18.931  0.0661  0.1281  0.1703
 5270W        W48261  31.324  26.954  20.386  0.0603  0.0418 -0.0540
 5271W        W48262   7.552  26.646  16.234 -0.0262  0.0284 -0.0889
 5272W        W48263  33.791  14.040   4.048 -0.1727  0.1084  0.0219
 5273W        W48264  28.518  17.008  19.063  0.1313  0.2817  0.0876
 5274W        W48265   5.082  16.813   0.371 -0.0191 -0.3302  0.0420
 5275W        W48266  21.944  20.159  12.288 -0.0933 -0.0004  0.2709
 5276W        W48267  23.615  14.229  20.803 -0.0240  0.1245 -0.0002
 5277W        W48268   5.717  16.512  18.764  0.0992 -0.2925 -0.1421
 5278W        W48269  25.009   1.120  16.944 -0.0054 -0.0310  0.2293
 5279W        W48270  19.471  23.917  17.640 -0.0769  0.2191  0.0161
 5280W        W48271   2.474   6.977  21.870 -0.1857  0.0523 -0.2846
 5281W        W48272  30.989   6.661  21.823 -0.0169 -0.1204 -0.0291
 5282W        W48273  24.340  24.989  17.426 -0.1479 -0.3145  0.0448
 5283W        W48274  18.743  11.893  15.943 -0.2187 -0.0689  0.2785
 5284W        W48275   2.972  12.215  28.339 -0.3647 -0.1125 -0.1144
 5285W        W48276  19.146   3.769  14.865 -0.0016 -0.0847  0.0992
 5286W        W48277  21.102  23.744  19.637  0.1386 -0.0502  0.1926
 5287W        W48278  13.426  13.374  21.970 -0.0848  0.3180 -0.4612
 5288W        W48279  20.744  24.725  21.917  0.2605 -0.0540 -0.0522
 5289W        W48280   1.255  14.625  18.926  0.0187 -0.1917 -0.1578
 5290W        W48281  28.296  19.216  14.433  0.1032 -0.2230 -0.1863
 5291W        W48282  32.808  17.717   6.281  0.0877  0.2333 -0.0941
 5292W        W48283  31.276  19.416  27.865  0.2218  0.1658  0.1053
 5293W        W48284  23.937  24.295  23.088  0.0771 -0.1490  0.2930
 5294W        W48285  10.005  28.003   4.957  0.1086  0.0350  0.2342
 5295W        W48286  28.794  31.130  22.768 -0.2416 -0.0871  0.2785
 5296W        W48287  34.658  14.215   2.950 -0.1308  0.0290 -0.0459
 5297W        W48288  24.788  13.331  25.693 -0.2540 -0.0793  0.1726
 5298W        W48289  32.979  24.763   2.337 -0.0267 -0.0288  0.1165
 5299W        W48290  12.379   9.774  22.702 -0.0183 -0.0522  0.2111
 5300W        W48291  27.633  30.479  17.073 -0.0634  0.0977  0.2234
 5301W        W48292   5.037  14.620  23.752  0.1650  0.2091  0.2038
 5302W        W48293   5.195  17.461   5.545  0.1728  0.0239 -0.0612
 5303W        W48294  27.607  32.365  26.837 -0.0205  0.0497  0.1744
 5304W        W48295  28.824  27.832  25.127 -0.2392 -0.0082 -0.0454
 5305W        W48296  11.299  24.296  17.050 -0.3826  0.0796 -0.0166
 5306W        W48297  31.143  16.691   2.535  0.0969  0.1833 -0.2058
 5307W        W48298  32.284  33.028  15.430  0.4820 -0.0493 -0.1187
 5308W        W48299  26.474  11.956  21.549 -0.1214 -0.3714  0.2450
 5309W        W48300   4.195  34.581   2.584  0.3468  0.0571  0.0217
 5310W        W48301   7.174  20.482  18.832 -0.2524  0.4055  0.2622
 5311W        W48302  21.569  18.814  13.573 -0.1339 -0.1418  0.1820
 5312W        W48303  22.960  14.604   0.977  0.0536  0.3728  0.0187
 5313W        W48304  22.169  26.744   4.858 -0.0967  0.1345 -0.1368
 5314W        W48305  19.591   3.714  19.716 -0.4027 -0.2499  0.2193
 5315W        W48306  18.936   9.301  23.461 -0.0985 -0.1365 -0.1010
 5316W        W48307   9.897  29.240  17.641  0.4422 -0.1188  0.1413
 5317W        W48308  26.009  13.413  20.062  0.2272  0.2668  0.0411
 5318W        W48309  22.125  29.506   0.181  0.0599 -0.0254  0.0542
 5319W        W48310   8.084  30.718  14.849 -0.3524  0.1969 -0.0003
 5320W        W48311  15.297  22.824  13.730 -0.0718 -0.0416 -0.0958
 5321W        W48312  19.476  14.326  21.720 -0.1176 -0.2259 -0.0081
 5322W        W48313  20.889   9.685  21.909  0.2230  0.0534  0.0496
 5323W        W48314  20.707  14.428  28.524  0.1357  0.2878  0.0367
 5324W        W48315  24.126   6.993  14.055  0.0123  0.1594 -0.3487
 5325W        W48316  11.813   8.149  22.946  0.2264  0.1842  0.2077
 5326W        W48317  21.319  12.006  19.573  0.0222 -0.4178  0.1462
 5327W        W48318  17.796  21.381  13.458 -0.1933 -0.0291 -0.0719
 5328W        W48319   2.760  21.192  19.195 -0.1357 -0.0460  0.1138
 5329W        W48320  30.174  18.029  15.761  0.0196 -0.2818  0.0843
 5330W        W48321  23.712  19.063  17.417  0.0894  0.1042  0.0331
 5331W        W48322   2.755   8.316   0.233 -0.2529  0.1429  0.1863
 5332W        W48323  17.304   5.516  23.663  0.0595  0.2533 -0.0343
 5333W        W48324  18.152  29.451  10.224  0.1334  0.2726  0.0491
 5334W        W48325  32.926  23.779  23.210  0.2949  0.0868 -0.3023
 5335W        W48326  29.995   7.195  21.466 -0.1879  0.0549 -0.0487
 5336W        W48327  23.272  11.936  24.295  0.0798 -0.1251 -0.1241
 5337W        W48328  21.826  17.171  27.799  0.0631  0.0538  0.0309
 5338W        W48329   4.023  14.280  18.023 -0.1106  0.0597  0.1814
 5339W        W48330  17.369  12.853  18.248  0.0312  0.1198  0.1495
 5340W        W48331  34.197   9.542  17.351 -0.2887  0.2191  0.2055
 5341W        W48332  30.239  20.742  27.900 -0.0103 -0.0464  0.0381
 5342W        W48333  17.948   1.036  16.058  0.1531 -0.0314 -0.1289
 5343W        W48334   6.409   4.811  21.196 -0.0986 -0.2045 -0.2580
 5344W        W48335  25.068  22.614  26.309  0.2163  0.0857  0.3327
 5345W        W48336  20.293  24.091  13.498 -0.0307 -0.0550  0.3994
 5346W        W48337  23.861  16.572  24.115  0.3806 -0.0141  0.0086
 5347W        W48338  27.026   7.402  23.113 -0.1412  0.2540 -0.3289
 5348W        W48339  20.358  15.013  14.772  0.0480 -0.1182  0.0236
 5349W        W48340  33.009  17.638   4.394 -0.0901  0.1892  0.1111
 5350W        W48341  22.681   4.532  25.546  0.3011 -0.0797 -0.1842
 5351W        W48342  33.729   9.162   5.962 -0.0479  0.0719  0.0587
 5352W        W48343   4.729   6.309  22.920  0.1074  0.1491 -0.0145
 5353W        W48344  14.879  27.080  24.056  0.3055 -0.2720  0.0212
 5354W        W48345  11.302  24.892  23.052  0.1772  0.1583 -0.0141
 5355W        W48346   3.310  26.935  21.244 -0.1043  0.1247 -0.3272
 5356W        W48347  25.116  22.648  17.887 -0.0648  0.0274  0.0898
 5357W        W48348  12.507  16.493  18.726 -0.0499 -0.0070  0.1750
 5358W        W48349  18.442  14.988  13.117  0.1351 -0.1940 -0.0369
 5359W        W48350  16.533   3.911  17.279  0.1316  0.1490  0.2865
 5360W        W48351   7.520  27.550  20.784  0.2197  0.1905 -0.2222
 5361W        W48352  14.252   4.881  20.634 -0.0070  0.3248  0.1173
 5362W        W48353  25.676  20.741  14.766 -0.0105  0.0192  0.0330
 5363W        W48354  27.911  17.266  20.379  0.0654  0.0095 -0.2931
 5364W        W48355  28.226  18.652  22.359  0.4653  0.0493  0.1631
 5365W        W48356  22.322  22.292  22.109 -0.0410 -0.2406 -0.1576
 5366W        W48357  20.485  17.479  26.994 -0.1412 -0.2237  0.1122
 5367W        W48358  15.656  21.132  26.129  0.0938 -0.0092  0.0169
 5368W        W48359  23.893  19.534  15.463 -0.0902 -0.0324  0.1766
 5369W        W48360  31.961  14.556  26.045  0.1496  0.0329  0.2734
 5370W        W48361  27.231  20.291  17.159  0.1142  0.1154 -0.0517
 5371W        W48362  19.043  28.057  17.376 -0.1661 -0.0696  0.3469
 5372W        W48363  23.762  14.848   1.907 -0.1232 -0.3694  0.3186
 5373W        W48364  23.120  10.824  18.602  0.0296 -0.3110 -0.2794
 5374W        W48365  26.411   7.555   7.664 -0.1992 -0.1614  0.0328
 5375W        W48366  20.661  24.023  19.694  0.0702  0.1890 -0.0960
 5376W        W48367   0.235  19.197  26.656  0.1380 -0.0783  0.1412
 5377W        W48368  30.118  18.298  19.599 -0.0455 -0.1862  0.0116
 5378W        W48369  14.104  15.342  15.909  0.1490  0.1925 -0.0876
 5379W        W48370  22.173   5.710  24.837 -0.0820 -0.2248  0.2575
 5380W        W48371  13.574   9.448  21.322  0.0558 -0.0364  0.0730
 5381W        W48372  16.967  12.136  28.646  0.1495  0.1273  0.0150
 5382W        W48373  25.779  12.527   8.390  0.3007  0.1551 -0.3076
 5383W        W48374  11.585  25.322  22.201  0.0149 -0.4780  0.2515
 5384W        W48375  17.692  21.327  14.076  0.1648 -0.2001  0.1372
 5385W        W48376  22.321   9.616  24.203 -0.0850 -0.0781  0.1922
 5386W        W48377  17.608  12.320   0.515  0.5078 -0.0290 -0.0271
 5387W        W48378  32.251  34.278   2.367 -0.0602  0.1222 -0.1015
 5388W        W48379   2.906  19.161  17.612 -0.1517 -0.0399  0.3233
 5389W        W48380  30.532  14.934  24.710 -0.0625  0.0077  0.0090
 5390W        W48381  27.778  16.449  26.591  0.1101  0.1339  0.0916
 5391W        W48382  21.738   9.292  17.241  0.0311 -0.3097 -0.0089
 5392W        W48383  11.177  12.090  14.993 -0.0126 -0.0124 -0.1020
 5393W        W48384  21.905  17.809  13.332  0.2921 -0.0645 -0.0936
 5394W        W48385  23.070  22.593  13.584 -0.2521  0.1703  0.4784
 5395W        W48386  17.320  26.454  18.423 -0.1797  0.0023  0.0126
 5396W        W48387  18.828  21.646  20.913 -0.0231 -0.2484 -0.1331
 5397W        W48388  21.475  24.295   0.278  0.0680 -0.0022  0.0862
 5398W        W48389  22.343  13.793  19.807  0.0582 -0.1034 -0.0030
 5399W        W48390   1.056  16.383  26.770 -0.1080 -0.0852  0.3045
 5400W        W48391  26.384  15.481  17.629  0.4076  0.1409  0.2344
 5401W        W48392  27.351  14.022  20.220 -0.1347 -0.1465 -0.0748
 5402W        W48393  17.038  27.958  27.685  0.1940  0.4352  0.0326
 5403W        W48394  15.490  27.077  18.044 -0.0571  0.0371 -0.3361
 5404W        W48395   8.584  19.020  16.227  0.2403 -0.0456  0.0981
 5405W        W48396  26.969  15.307  19.861  0.0633  0.0965 -0.0124
 5406W        W48397  25.250  16.085   3.568 -0.0668  0.0994 -0.0561
 5407W        W48398  22.799  30.501  21.583 -0.1360  0.1133  0.0364
 5408W        W48399  16.049   7.780  29.124  0.0655  0.0896  0.0057
 5409W        W48400  16.016   8.851  22.094 -0.1579 -0.0278  0.0190
 5410W        W48401  29.473  17.604  21.743 -0.1768  0.2418 -0.2828
 5411W        W48402  28.723  31.991  12.335  0.0298 -0.1783 -0.3423
 5412W        W48403   8.428  23.746  20.710  0.5003  0.1022  0.0841
 5413W        W48404  31.271  12.832  27.214  0.1981 -0.0186 -0.0419
 5414W        W48405  31.961  27.337  14.858  0.2353 -0.1304 -0.2655
 5415W        W48406  33.567  14.122   0.724  0.0916  0.1379 -0.0911
 5416W        W48407  17.297  32.504  15.585 -0.1006 -0.3391 -0.1254
 5417W        W48408  22.337   1.535  21.757 -0.0474  0.2273 -0.3154
 5418W        W48409  21.203   8.582  17.820  0.2756  0.1909 -0.1521
 5419W        W48410  28.564  26.778  26.651  0.0937  0.3659 -0.1801
 5420W        W48411  29.856  17.714  18.909 -0.4953 -0.0578 -0.2467
 5421W        W48412  25.151   3.153  27.542  0.0929  0.0432 -0.0972
 5422W        W48413  31.909   9.917   4.208  0.0507  0.0517  0.0678
 5423W        W48414  27.591  26.254  18.030 -0.1301 -0.1736  0.0484
 5424W        W48415  25.785  22.956  20.477  0.0054  0.3884  0.2054
 5425W        W48416  12.703  10.572  15.933  0.0783 -0.1046  0.0308
 5426W        W48417  23.517  33.831  14.029  0.0400 -0.2450  0.1845
 5427W        W48418  10.542  27.049  24.545 -0.0569  0.0580  0.0292
 5428W        W48419  15.793  27.436  13.516  0.2394  0.2829  0.0060
 5429W        W48420  30.704  32.517  14.573  0.3846  0.1951  0.0634
 5430W        W48421  15.754  12.735  23.686 -0.0541 -0.0122 -0.0671
 5431W        W48422  31.451  10.925  20.982  0.0677 -0.4147  0.0846
 5432W        W48423  12.582  16.522  14.122  0.1573 -0.1281  0.4919
 5433W        W48424   7.104   6.427  23.283 -0.0264  0.0637 -0.0755
 5434W        W48425  25.663  18.766  14.518 -0.1121 -0.3649  0.1461
 5435W        W48426  17.480  25.615  14.510  0.1327  0.0441 -0.1959
 5436W        W48427   5.365  11.491   6.288  0.3577  0.3717 -0.0470
 5437W        W48428  32.991  23.501  18.435 -0.0866 -0.1997  0.0740
 5438W        W48429   2.505  34.628  18.803  0.1619 -0.0247  0.1282
 5439W        W48430  31.441  30.314  13.718  0.0663  0.0056 -0.2534
 5440W        W48431  30.707  12.190  16.087 -0.1271 -0.4154 -0.1053
 5441W        W48432  30.125  32.456  23.407  0.1105 -0.1752 -0.2530
 5442W        W48433   3.317   8.705  17.009  0.0134  0.0919  0.0079
 5443W        W48434  29.523  13.806  15.790 -0.3610 -0.1188  0.1040
 5444W        W48435  16.260  12.191  15.647  0.0211  0.0827 -0.0718
 5445W        W48436  30.118  24.177  15.953 -0.1747 -0.1376 -0.0609
 5446W        W48437   5.812  20.421  21.928 -0.1165 -0.1012  0.2736
 5447W        W48438  27.913  22.224   2.758 -0.0089 -0.0943 -0.3639
 5448W        W48439  27.755  13.145  16.070 -0.1992 -0.1353 -0.0339
 5449W        W48440  31.233   8.837  14.712 -0.4465 -0.1301 -0.0596
 5450W        W48441  10.529  18.774   6.914  0.1835 -0.2627 -0.1497
 5451W        W48442  12.364   1.676  19.824 -0.2751 -0.2534  0.1251
 5452W        W48443   7.496  19.117  15.203 -0.0939  0.0558  0.0700
 5453W        W48444  24.314  14.319  17.376 -0.1036  0.0960  0.0101
 5454W        W48445  25.644  20.977  16.181  0.0078  0.1761 -0.0129
 5455W        W48446  26.126  13.857  16.568  0.0411 -0.1555  0.0664
 5456W        W48447  28.852   9.733  24.825 -0.3194  0.1591  0.2542
 5457W        W48448   9.652  34.217  27.205  0.0820  0.0918  0.2272
 5458W        W48449   9.459  29.954  27.551 -0.2380 -0.0893  0.0611
 5459W        W48450   9.985   9.859  23.954 -0.4400 -0.0387 -0.0156
 5460W        W48451  20.163  24.136  21.401 -0.0632 -0.0844 -0.2363
 5461W        W48452  25.215  11.860  22.384  0.0875  0.3615 -0.3666
 5462W        W48453  25.708  11.094  24.903 -0.1122 -0.0631  0.1381
 5463W        W48454  21.546  29.740  19.721  0.0052 -0.2550 -0.5029
 5464W        W48455  28.286  24.717  25.758  0.0503  0.1948 -0.0162
 5465W        W48456  29.029   4.200  24.141 -0.0676  0.2292 -0.2377
 5466W        W48457  24.448  12.972  24.786 -0.2328  0.1601 -0.1444
 5467W        W48458  21.826  34.193  25.932  0.2818 -0.0477 -0.2595
 5468W        W48459  21.774   5.955  16.412  0.3872 -0.0114  0.0169
 5469W        W48460  18.412  20.722   8.444  0.1645  0.0815 -0.2441
 5470W        W48461  26.312  17.819  14.676  0.1463  0.2381  0.0641
 5471W        W48462  31.639  24.904  17.942  0.1528  0.1466  0.0590
 5472W        W48463  27.083  12.428  15.002 -0.2136  0.1131  0.1519
 5473W        W48464  16.133   5.334   5.894  0.0024 -0.1714  0.0705
 5474W        W48465  31.349  19.054  14.505  0.1265 -0.0531 -0.0475
 5475W        W48466  23.804   3.961  24.603 -0.0721 -0.0661 -0.2576
 5476W        W48467  30.420  22.789  21.245  0.1363 -0.0182 -0.3627
 5477W        W48468  25.655   2.691  19.711  0.1675  0.0411 -0.0069
 5478W        W48469   1.706  29.729  19.602 -0.1120 -0.1403  0.0247
 5479W        W48470  25.897  18.140  14.728  0.2406  0.1850 -0.0356
 5480W        W48471  28.779  16.636  18.721  0.0082  0.1601 -0.1033
 5481W        W48472  25.457  28.103  26.063  0.1552  0.2792  0.1114
 5482W        W48473  14.993  10.972  22.965  0.1934 -0.0653  0.1777
 5483W        W48474  29.616  25.092  23.622  0.3412 -0.1966 -0.0247
 5484W        W48475  28.124  15.385  20.901 -0.1811 -0.1888 -0.2269
 5485W        W48476  11.811  15.861  16.925 -0.3064 -0.3138 -0.2143
 5486W        W48477  13.691  30.610  21.092 -0.6235  0.2459  0.1647
 5487W        W48478  16.429   9.058   4.039 -0.3085 -0.0457 -0.3571
 5488W        W48479  31.631  17.812  15.588  0.0087  0.0439 -0.2496
 5489W        W48480  29.588   6.944  16.461  0.3797 -0.1131  0.1303
 5490W        W48481  12.792   6.057   3.250 -0.1086 -0.3479  0.0065
 5491W        W48482  30.135  12.829  25.219 -0.0648 -0.2006 -0.1301
 5492W        W48483  27.094  25.954  24.466 -0.0915 -0.0208  0.1142
 5493W        W48484   7.007   7.327  26.339  0.1587  0.0921 -0.1000
 5494W        W48485  23.326   9.840  19.405 -0.0569 -0.0767  0.1454
 5495W        W48486   4.509  22.959   0.743  0.0442 -0.1446  0.1324
 5496W        W48487  33.062  21.368  17.157  0.0080  0.3913 -0.1205
 5497W        W48488  17.003  12.366  19.440 -0.0480  0.3098 -0.2903
 5498W        W48489  17.411  23.224  21.611 -0.0149  0.3345  0.1486
 5499W        W48490   5.733  14.167  21.564  0.0335 -0.1037  0.0323
 5500W        W48491  27.562   9.710   4.851 -0.1046  0.3059  0.2709
 5501W        W48492  21.578  14.302  20.885  0.0036  0.1894  0.0492
 5502W        W48493  10.284  21.824  13.802 -0.0903 -0.1249 -0.1094
 5503W        W48494  13.759  19.394  16.118 -0.2286  0.1064 -0.2604
 5504W        W48495  32.506   8.749  17.688  0.0419  0.1127  0.0512
 5505W        W48496   3.500  34.260  16.951  0.0645  0.1628  0.2340
 5506W        W48497  29.547  16.059  18.932  0.1402  0.2002  0.2209
 5507W        W48498  16.977  24.880  20.170 -0.2738  0.1925  0.0589
 5508W        W48499  26.005  21.469  14.203 -0.2401 -0.0359 -0.0107
 5509W        W48500   2.884  29.409  20.648  0.0449  0.1173  0.2642
 5510W        W48501   5.562  14.513  15.710 -0.1477 -0.3006 -0.2193
 5511W        W48502   4.440  21.009  25.222  0.0451  0.1362 -0.0579
 5512W        W48503   5.313  25.074  21.769 -0.3908 -0.2709 -0.3904
 5513W        W48504  25.052  16.626  14.322 -0.0756 -0.0674  0.0131
 5514W        W48505  22.129  19.205   7.491 -0.2216  0.1402  0.3009
 5515W        W48506  30.945   8.803  15.649  0.1965 -0.1771 -0.1016
 5516W        W48507  19.397   9.031  15.718 -0.1543  0.0549  0.1926
 5517W        W48508  27.355  19.752  16.161 -0.1335 -0.1606  0.1649
 5518W        W48509  31.842  12.600  16.461 -0.2480  0.3021 -0.2142
 5519W        W48510   5.787   8.770  22.616  0.0072  0.1305 -0.0538
 5520W        W48511  21.647  25.347  26.359 -0.0095  0.0421 -0.0446
 5521W        W48512  15.767  26.098  26.890  0.2110 -0.3021  0.1185
 5522W        W48513  34.442   6.669  23.400  0.2562 -0.3253  0.2970
 5523W        W48514   1.804  26.292  21.894 -0.0701 -0.1067  0.0892
 5524W        W48515   8.427  16.050   2.158  0.0912  0.0334  0.0991
 5525W        W48516  23.581  23.320  21.626  0.3415 -0.0212 -0.2107
 5526W        W48517  23.860  11.803  17.330  0.0069  0.0779  0.2514
 5527W        W48518  14.983  13.585  22.348 -0.1268 -0.0231  0.0631
 5528W        W48519  19.967  13.285  14.956  0.1514 -0.1315 -0.1300
 5529W        W48520  23.948  13.326  27.730 -0.1023  0.3389  0.2923
 5530W        W48521  27.500  19.353  14.616  0.0337 -0.0609  0.1980
 5531W        W48522  28.514  11.192  16.827 -0.0178  0.1279 -0.2208
 5532W        W48523  16.613  12.979   3.827 -0.0795  0.1408 -0.1391
 5533W        W48524  16.406  28.420  23.496 -0.1837 -0.1106 -0.0642
 5534W        W48525   1.061   0.149  25.163  0.0578  0.0604 -0.2095
 5535W        W48526   9.358  13.739  18.497 -0.1683 -0.2656  0.0745
 5536W        W48527  30.718  15.164  26.683 -0.0567 -0.0831  0.2822
 5537W        W48528  32.114  17.410  19.949 -0.4370 -0.0645  0.2014
 5538W        W48529  18.926  21.162  14.804  0.0355  0.2946 -0.0129
 5539W        W48530  32.450  14.229  14.868 -0.4159  0.3989  0.0989
 5540W        W48531  21.950  25.903  22.510 -0.0206 -0.2285  0.1760
 5541W        W48532   7.368  26.265  19.635  0.0997  0.0484  0.3123
 5542W        W48533  28.450  12.304  15.807  0.1770 -0.1130  0.0350
 5543W        W48534   4.961  25.001   7.173  0.1721 -0.2529  0.1444
 5544W        W48535  17.162  29.763   0.561  0.0730  0.1309 -0.0786
 5545W        W48536  23.223  16.408  16.191  0.1319  0.2885  0.1402
 5546W        W48537  18.931  27.088  21.206  0.1300 -0.2015 -0.2362
 5547W        W48538   8.470   3.994  21.639 -0.0868 -0.1460  0.1007
 5548W        W48539  18.766  20.806  24.690 -0.0497  0.0970  0.0273
 5549W        W48540  28.044   6.348   5.157 -0.0812 -0.1996 -0.0499
 5550W        W48541  29.422  22.909  27.883  0.0236  0.0403 -0.1661
 5551W        W48542   8.116  25.731  20.999  0.4851  0.1009 -0.3489
 5552W        W48543  21.989   4.241  23.542 -0.0944 -0.0647  0.4499
 5553W        W48544  17.719  14.569  26.629  0.1131  0.3716 -0.1727
 5554W        W48545  31.302  28.731  21.263  0.1467  0.0597 -0.1008
 5555W        W48546   6.441  10.496  15.492  0.2610 -0.0300  0.1637
 5556W        W48547   4.323   6.724   3.016  0.0709 -0.0396 -0.1555
 5557W        W48548  33.947  30.509   4.342  0.1943 -0.0701  0.1707
 5558W        W48549  21.806   5.223  14.510  0.1034 -0.2170 -0.1342
 5559W        W48550  29.610   9.234  17.733  0.1918  0.0347 -0.0586
 5560W        W48551  24.577  21.918   3.158  0.0316  0.1263  0.1396
 5561W        W48552  27.028  25.913  15.961 -0.1709 -0.2165 -0.1811
 5562W        W48553   8.647   8.432   3.155  0.5091  0.1394 -0.2380
 5563W        W48554   0.430  13.214  17.508 -0.0278 -0.1244  0.3878
 5564W        W48555  31.391  11.385  16.589 -0.1079 -0.1276  0.3614
 5565W        W48556  17.877  28.248   3.356 -0.2431 -0.0554 -0.0356
 5566W        W48557  23.528  17.481  20.467 -0.1948 -0.3458  0.1105
 5567W        W48558  18.525  10.280  23.547  0.3339  0.1139 -0.1906
 5568W        W48559  34.398  15.456  17.022  0.2998 -0.1887  0.0660
 5569W        W48560  25.110  26.074  15.960 -0.1616 -0.0760  0.0476
 5570W        W48561  24.245  27.952  22.987  0.1109 -0.0439  0.0733
 5571W        W48562   1.056  19.446  26.059 -0.1831 -0.1222  0.1639
 5572W        W48563  28.731  31.540  25.122 -0.2363 -0.0111  0.3055
 5573W        W48564  21.290   6.030  20.306  0.3373 -0.1679 -0.1748
 5574W        W48565  29.599  19.710  14.470 -0.0593  0.0615 -0.0572
 5575W        W48566  22.669  15.660   3.037 -0.1099 -0.3871  0.2962
 5576W        W48567  23.333  34.287  20.035  0.0237  0.0533 -0.2287
 5577W        W48568  23.698   5.271  20.585  0.2653 -0.0166  0.0273
 5578W        W48569  24.902  13.102  28.959  0.1955 -0.1769 -0.3190
 5579W        W48570  25.990  20.584  20.165 -0.0336 -0.2963 -0.3151
 5580W        W48571  27.587  15.992  23.186  0.0867  0.1705  0.0373
 5581W        W48572  11.548  15.940   1.115  0.1337  0.2513 -0.0718
 5582W        W48573  26.913  28.103  15.000  0.0260 -0.0712  0.3905
 5583W        W48574  11.940  20.291   5.248 -0.2286  0.1920 -0.0751
 5584W        W48575  34.253  27.035  22.730  0.0881  0.0474 -0.1926
 5585W        W48576   9.781  25.762  15.281 -0.2909  0.1186  0.1713
 5586W        W48577   4.596   5.688  16.170 -0.3822  0.5717  0.1289
 5587W        W48578  28.448  25.967  24.318 -0.0132 -0.3269  0.0846
 5588W        W48579  22.560  24.990  17.734 -0.1206 -0.3044  0.1413
 5589W        W48580  23.350   2.587  19.296  0.0726  0.2648  0.1815
 5590W        W48581   3.781  21.231  19.121  0.1297  0.2872 -0.4389
 5591W        W48582  24.770  21.530  24.701  0.0757  0.4309 -0.1300
 5592W        W48583  21.280   7.587  24.993  0.3083  0.0177 -0.1526
 5593W        W48584  14.270  20.994  20.232 -0.1762 -0.0070 -0.1695
 5594W        W48585   3.042   6.834   0.618  0.0442  0.1814  0.0358
 5595W        W48586   4.417  11.568   4.523 -0.3544 -0.2714 -0.0331
 5596W        W48587  24.075  20.828  17.125 -0.3789 -0.2605 -0.1087
 5597W        W48588  30.657  24.183  16.354  0.3540  0.0651  0.0310
 5598W        W48589  10.631   5.301  23.084  0.0268 -0.1335  0.1241
 5599W        W48590   8.909  17.494  13.878  0.2386  0.0323  0.1588
 5600W        W48591   2.941  18.584  15.774  0.1906  0.0801 -0.0113
 5601W        W48592  33.503  32.763  24.370 -0.4912  0.2183 -0.0709
 5602W        W48593   0.121  23.007  17.981 -0.0700 -0.2288  0.1373
 5603W        W48594  34.712   2.788  16.071 -0.5632 -0.1892 -0.0003
 5604W        W48595  13.538  12.479  19.056  0.2999 -0.1884 -0.1773
 5605W        W48596  22.400  10.821  22.120  0.1376  0.1863 -0.0034
 5606W        W48597  14.930  10.446  23.230 -0.1997  0.0571  0.0658
 5607W        W48598  22.772   8.878  22.535 -0.0885  0.0691  0.1361
 5608W        W48599  24.928   3.581  24.391 -0.0953 -0.1016  0.1934
 5609W        W48600   3.327  24.516   2.992 -0.0936  0.0379  0.1716
 5610W        W48601   6.440  32.317  14.371 -0.0085  0.2649 -0.1504
 5611W        W48602  26.054  29.785   8.291 -0.0586 -0.0415  0.1992
 5612W        W48603  31.026   0.536  14.580 -0.1517  0.2410 -0.0121
 5613W        W48604  27.047  32.298  25.568 -0.3084 -0.0944  0.0291
 5614W        W48605  11.271  10.234  26.783  0.2909  0.0854  0.0164
 5615W        W48606  34.008  19.774  20.459  0.0562  0.2882  0.2153
 5616W        W48607  25.332  15.485  29.104  0.2374 -0.1314  0.0004
 5617W        W48608  23.257  14.013  14.694 -0.0446 -0.0231 -0.3739
 5618W        W48609  20.396   7.459  27.445 -0.0990 -0.0991 -0.0248
 5619W        W48610  11.240  15.814  27.739  0.1197 -0.0158  0.2200
 5620W        W48611  22.637   8.024  20.419 -0.0718  0.0547  0.3739
 5621W        W48612   7.114  19.657  28.051  0.0247 -0.0506  0.0046
 5622W        W48613  12.402  29.821  23.871 -0.6501 -0.0632  0.2595
 5623W        W48614  27.258   1.047  20.291  0.0232  0.0251  0.0565
 5624W        W48615  15.469  13.567  15.828 -0.0313 -0.0154 -0.0710
 5625W        W48616  19.193  26.807  28.538 -0.0834 -0.0145  0.0615
 5626W        W48617  19.990   8.464  13.926  0.2278 -0.1717 -0.0492
 5627W        W48618  28.302   1.054   6.011  0.0015 -0.0997 -0.2266
 5628W        W48619   2.529   5.549   1.902  0.0846 -0.2412 -0.0943
 5629W        W48620   0.963   4.402  19.904 -0.0352 -0.2550 -0.0007
 5630W        W48621   9.394  17.190  15.908 -0.1270 -0.0005 -0.1602
 5631W        W48622  16.123  34.199  20.571  0.3054 -0.0079  0.0195
 5632W        W48623  27.808   9.095   0.145  0.0106 -0.3252  0.1191
 5633W        W48624  20.888  31.750  16.733 -0.0427  0.1130  0.1917
 5634W        W48625  19.989   6.181   2.160 -0.0456 -0.3234 -0.2625
 5635W        W48626  21.351   9.663  27.663 -0.1110  0.1533 -0.2730
 5636W        W48627  31.842  17.078  18.713  0.1294 -0.1284 -0.0591
 5637W        W48628   9.178   6.019  25.765 -0.0912  0.1257 -0.3497
 5638W        W48629  26.512  34.721   4.388  0.2225 -0.1485 -0.1669
 5639W        W48630  21.296   1.832  18.302 -0.0122  0.2299 -0.3071
 5640W        W48631  21.123  17.418  22.640 -0.1190 -0.2307  0.1085
 5641W        W48632  22.130  29.787  26.114 -0.1529 -0.1923 -0.0232
 5642W        W48633  22.462  24.071  20.146 -0.1031 -0.3898  0.0711
 5643W        W48634  18.198  12.215  16.711 -0.1338 -0.0024 -0.1535
 5644W        W48635   4.396  17.048  20.393  0.1419  0.1405 -0.2226
 5645W        W48636  19.669  18.503  14.002 -0.0105 -0.3761  0.1450
 5646W        W48637  25.037  11.401  23.803 -0.1933 -0.0805  0.3285
 5647W        W48638  22.488  15.310   0.046  0.1300 -0.2802 -0.1739
 5648W        W48639  19.815  14.747  13.163  0.0582 -0.0318  0.1276
 5649W        W48640  25.097  22.519  15.843  0.0146  0.2578 -0.1276
 5650W        W48641  24.934  16.671  15.739 -0.0845 -0.0215  0.0155
 5651W        W48642  26.512   9.572   2.132  0.2521 -0.0734 -0.0029
 5652W        W48643  33.902   4.568  17.158 -0.0914  0.2084 -0.0685
 5653W        W48644  31.930  20.577  16.739 -0.2484  0.3446  0.0220
 5654W        W48645  16.483  26.329  18.597  0.1530 -0.3707  0.3653
 5655W        W48646  23.418   7.713  16.583  0.2325  0.1462  0.0621
 5656W        W48647  27.414  26.187  24.115 -0.2652  0.3441 -0.0422
 5657W        W48648  15.246  23.834  18.377  0.2858 -0.2269  0.1126
 5658W        W48649   4.117  20.810  17.483  0.0941  0.0979 -0.1505
 5659W        W48650   5.858   4.640  21.058 -0.0514  0.3394  0.0249
 5660W        W48651   7.548   4.688  18.204 -0.3206  0.1284 -0.3013
 5661W        W48652  23.363  29.949  25.833 -0.1558 -0.1238 -0.2303
 5662W        W48653  26.301  19.485   0.216  0.0249 -0.0932  0.0434
 5663W        W48654  27.025  14.883   1.705  0.1670  0.1127  0.0750
 5664W        W48655  11.997  18.619  19.204  0.0130  0.3371  0.4081
 5665W        W48656   6.534  20.562  21.218 -0.3511 -0.4096  0.2078
 5666W        W48657   7.391   2.268  21.560  0.2836 -0.1584 -0.0377
 5667W        W48658  20.323  24.359  20.944 -0.0035  0.5367 -0.0066
 5668W        W48659   1.277  16.172  20.373 -0.0001  0.3097 -0.1680
 5669W        W48660   6.626  22.380  16.394 -0.0788 -0.3010 -0.1694
 5670W        W48661  17.375  18.483  13.570 -0.0760 -0.0987  0.1465
 5671W        W48662  11.181   9.279   1.430  0.0334  0.0345 -0.1330
 5672W        W48663  21.278   6.602  24.290 -0.3387 -0.2381 -0.1795
 5673W        W48664  27.551  10.091   3.846  0.2776  0.0536  0.0527
 5674W        W48665   9.692  13.118  29.203 -0.1256  0.2956  0.0603
 5675W        W48666   5.197  17.537  19.861 -0.0946 -0.2240  0.2346
 5676W        W48667  24.899   8.489   0.984  0.0583 -0.2314  0.0306
 5677W        W48668  18.986  17.217  26.211 -0.1258  0.0452 -0.0418
 5678W        W48669  21.680  25.721  20.704  0.0991  0.1548 -0.1535
 5679W        W48670  27.479  34.696  26.630  0.0461  0.3436  0.1837
 5680W        W48671  17.056   3.900  19.772 -0.3839  0.3297  0.4454
 5681W        W48672   4.105  12.110   9.305  0.2549 -0.0640 -0.0960
 5682W        W48673  23.556  26.701  16.561  0.0064  0.3002 -0.2536
 5683W        W48674  23.498  29.394  13.587  0.0363  0.1357 -0.0732
 5684W        W48675  15.842  33.411  21.380 -0.0102  0.0173 -0.0637
 5685W        W48676  31.631   5.688  21.469 -0.0829  0.0043 -0.0386
 5686W        W48677  11.242  12.837   0.056 -0.0184 -0.1234 -0.0988
 5687W        W48678  34.142  25.413   2.198 -0.2783  0.2460 -0.3018
 5688W        W48679   0.896  19.315  14.983  0.2884 -0.3277  0.2281
 5689W        W48680  32.039  15.647   6.353  0.0738  0.4284 -0.0486
 5690W        W48681  23.646   8.186  20.514  0.4236  0.0835  0.1268
 5691W        W48682  30.296  22.824  17.234 -0.2710  0.1745  0.1969
 5692W        W48683  26.689  15.446  25.115  0.2467  0.2846  0.0420
 5693W        W48684  31.029   8.670  20.322  0.1656  0.1553 -0.1263
 5694W        W48685  16.106  10.222  28.655  0.0850  0.1799 -0.1019
 5695W        W48686  24.609  15.764  17.417  0.1329  0.0810  0.0187
 5696W        W48687  23.555   2.978  23.159  0.0361 -0.1385  0.1079
 5697W        W48688  18.415  28.607  20.685  0.0631  0.0088 -0.0347
 5698W        W48689  29.621  31.114  27.115 -0.0183 -0.0089  0.0108
 5699W        W48690   9.835  22.579  22.040  0.0618  0.0268 -0.0857
 5700W        W48691  11.758  12.152  17.778  0.1298  0.1263 -0.0187
 5701W        W48692  29.663   9.519  21.874  0.2632  0.1154  0.0589
 5702W        W48693  17.990   6.300  23.879  0.0080 -0.0778 -0.2501
 5703W        W48694  24.077   7.057   4.400 -0.0834  0.2949 -0.0863
 5704W        W48695  24.997  27.252  18.059  0.1269 -0.0223  0.2373
 5705W        W48696  26.398   7.612  14.753 -0.0114 -0.2879  0.1286
 5706W        W48697  26.005  30.122  14.365 -0.0070 -0.0901 -0.1515
 5707W        W48698  12.857  17.322  14.393  0.1175 -0.0759 -0.0476
 5708W        W48699  15.150   6.821  25.479  0.0184 -0.0893 -0.0863
 5709W        W48700   3.768  24.434   6.098 -0.0471  0.2451  0.0564
 5710W        W48701  16.551   6.453  17.446 -0.3123  0.2010 -0.1429
 5711W        W48702  30.546   8.564  16.808  0.2490  0.0176  0.0353
 5712W        W48703   2.990   8.775   4.825  0.1678 -0.1993  0.2903
 5713W        W48704  26.818  20.970  18.517  0.1829 -0.2136 -0.2573
 5714W        W48705  21.053  14.005  20.910 -0.1566  0.1861 -0.0190
 5715W        W48706  25.704   0.720  24.677 -0.1149 -0.0722 -0.2561
 5716W        W48707  11.871  15.803  20.671 -0.4663 -0.0859 -0.2752
 5717W        W48708  28.557  33.360   1.981 -0.1113 -0.2439  0.1349
 5718W        W48709  29.264   6.845  20.848  0.0765 -0.3233  0.1720
 5719W        W48710  25.211   4.412  24.677 -0.1533 -0.1490  0.0879
 5720W        W48711   4.879  25.024  15.163 -0.1764 -0.0520 -0.2538
 5721W        W48712  12.413  20.568  17.820  0.3762 -0.0002  0.2430
 5722W        W48713   4.877  22.042  15.709  0.1105 -0.0912  0.2124
 5723W        W48714  22.078   6.580  18.551  0.3539 -0.2039  0.1606
 5724W        W48715  18.756  23.687  23.205 -0.1322  0.1578  0.1316
 5725W        W48716  11.785   3.501  23.061  0.0536 -0.1951  0.0142
 5726W        W48717  19.726  11.165  14.117 -0.0128 -0.0270  0.0374
 5727W        W48718  23.956  10.808  20.309 -0.1902  0.2090 -0.1436
 5728W        W48719  19.612  22.543  18.094  0.0780 -0.0190 -0.0281
 5729W        W48720  19.161   7.321  26.765  0.3294  0.0378  0.0627
 5730W        W48721  19.793  10.606  21.821  0.1983 -0.2037  0.1670
 5731W        W48722  23.573  26.958  14.336  0.2794 -0.2583 -0.3695
 5732W        W48723   6.880  23.542  16.785  0.0101  0.2092 -0.1548
 5733W        W48724  22.455  13.449  19.050  0.1942 -0.0463 -0.2276
 5734W        W48725  16.128   0.107  25.652 -0.0775  0.1721 -0.0524
 5735W        W48726  18.967  23.111  18.673 -0.1177  0.4001  0.0328
 5736W        W48727   1.272  13.679  24.554  0.0478 -0.0079  0.0743
 5737W        W48728  10.311  10.705  21.573  0.0694 -0.4074 -0.1257
 5738W        W48729  25.030  23.211  19.305  0.2524 -0.1314  0.1780
 5739W        W48730  10.233   4.749  28.715 -0.0383 -0.0391 -0.1589
 5740W        W48731  26.461  16.190  10.061 -0.1449 -0.2612 -0.0246
 5741W        W48732  30.041  14.278  14.770  0.1486 -0.1628  0.0292
 5742W        W48733  24.684  28.672  19.730 -0.1193 -0.0786 -0.2791
 5743W        W48734  23.544  26.283  21.049 -0.1235  0.0825  0.2254
 5744W        W48735  18.649  21.842  19.187 -0.2001  0.1519  0.0896
 5745W        W48736  13.461  14.782  14.569  0.1667 -0.0394 -0.1168
 5746W        W48737  28.106  23.718  15.673  0.3004 -0.1750  0.1111
 5747W        W48738  17.397  25.099  19.920 -0.2726  0.0501 -0.2655
 5748W        W48739  17.344  24.448   8.158 -0.1309 -0.0547 -0.0010
 5749W        W48740  15.910  12.500  13.431  0.2303 -0.0987 -0.1737
 5750W        W48741   8.294  29.625   3.811 -0.1159 -0.0334 -0.2698
 5751W        W48742  26.355  14.947  24.401 -0.0107  0.1391 -0.0552
 5752W        W48743  17.218  11.445  17.906  0.2883 -0.0661  0.1801
 5753W        W48744  32.130   2.799  14.402  0.1601 -0.0196 -0.0868
 5754W        W48745  33.973  16.759  20.636 -0.1224  0.0859 -0.0091
 5755W        W48746   6.791  13.760   0.295 -0.0584  0.1107 -0.5071
 5756W        W48747   6.762   8.557  27.122 -0.1983  0.1695 -0.0255
 5757W        W48748  18.190  11.953   1.094 -0.1219  0.0424 -0.0348
 5758W        W48749  29.770  24.589  24.485 -0.1278  0.0866  0.2659
 5759W        W48750   2.791  26.388  17.805  0.0665  0.0612 -0.0545
 5760W        W48751  16.094   2.913  16.787  0.1253 -0.0576  0.0084
 5761W        W48752  20.629  24.682  18.569  0.5274 -0.0319  0.0911
 5762W        W48753  19.981  24.270   2.287 -0.1128 -0.5534 -0.1204
 5763W        W48754  21.783  10.854  23.047 -0.0972 -0.2348  0.4185
 5764W        W48755  26.065  14.499  15.946  0.1187  0.2521 -0.4303
 5765W        W48756  18.061   3.177  18.262  0.0102 -0.0013 -0.1313
 5766W        W48757  15.011  34.716  19.711  0.2311  0.0068  0.2646
 5767W        W48758  23.806  24.047  28.436  0.1687 -0.1950  0.2027
 5768W        W48759   4.598  15.978  22.132 -0.1294  0.1215 -0.1387
 5769W        W48760  29.181  11.209  22.909 -0.1726  0.1355 -0.3137
 5770W        W48761  12.264  15.712  17.017  0.2096 -0.0830  0.0660
 5771W        W48762  17.208   4.162  26.790  0.1889 -0.2876  0.0185
 5772W        W48763   6.454  21.391  24.691  0.2099 -0.0340  0.2813
 5773W        W48764  21.917   3.369  23.335  0.0784 -0.0176  0.3589
 5774W        W48765  29.708  30.031  17.551 -0.1761 -0.0253 -0.1755
 5775W        W48766  16.487  30.784  28.373  0.1467 -0.1097  0.4461
 5776W        W48767   8.756   7.932  28.178 -0.1639 -0.0944 -0.3379
 5777W        W48768  22.964  20.630  14.085 -0.1060 -0.1460  0.1459
 5778W        W48769   5.539  21.693  22.610  0.1297 -0.1985  0.1317
 5779W        W48770  24.553  19.778  26.797 -0.2414  0.2582  0.3389
 5780W        W48771  16.756  28.260  22.984 -0.1703  0.0792 -0.1430
 5781W        W48772   1.787  24.134  22.714 -0.1034 -0.1000  0.1014
 5782W        W48773  20.208  24.816  23.545 -0.0070  0.0381 -0.1759
 5783W        W48774  20.391  10.500  14.244  0.2753  0.1669  0.0643
 5784W        W48775  10.264  30.255  21.826 -0.0922  0.2331  0.1732
 5785W        W48776  22.613  20.320  14.000 -0.0192  0.1119 -0.0877
 5786W        W48777   8.347   5.441  15.001  0.2760 -0.1378  0.0190
 5787W        W48778  21.032  27.666  26.977  0.1420 -0.1369 -0.2637
 5788W        W48779  14.827  24.551  14.814 -0.1842  0.1186  0.2066
 5789W        W48780  12.210  27.715  20.065 -0.0679 -0.2607 -0.0407
 5790W        W48781  13.749  34.117  21.401 -0.0467  0.3241 -0.2277
 5791W        W48782  25.171  33.510  16.661  0.0751 -0.0744 -0.1597
 5792W        W48783   2.944  11.049  25.701 -0.0567 -0.1628  0.0810
 5793W        W48784  27.790  10.476  19.914 -0.0524 -0.1376 -0.0409
 5794W        W48785  19.020  22.954  28.029  0.0203 -0.4778 -0.1012
 5795W        W48786  13.698  33.816  18.232  0.1042  0.1670  0.2468
 5796W        W48787  22.821  11.448  29.220 -0.0191 -0.0971 -0.2881
 5797W        W48788  34.493  25.643  24.221 -0.2682 -0.0923  0.2481
 5798W        W48789  27.660  12.203   3.288  0.0522  0.2075  0.1006
 5799W        W48790   7.200   8.164  17.608 -0.5168 -0.4211  0.0079
 5800W        W48791  33.436  28.067  19.811  0.0914  0.2537  0.0044
 5801W        W48792  33.673  32.724  14.182  0.2372  0.1833 -0.2862
 5802W        W48793   9.602  28.226  19.042 -0.0873  0.0387 -0.0913
 5803W        W48794  13.287  31.234  17.177 -0.0378  0.2516  0.1728
 5804W        W48795   1.128   4.082  23.352  0.0374  0.0220 -0.1935
 5805W        W48796  12.407  14.317  15.672 -0.2985  0.0361 -0.0488
 5806W        W48797   0.683  23.681  28.308  0.0846 -0.3094  0.3071
 5807W        W48798   4.836   1.453   7.235  0.0279 -0.0391 -0.1891
 5808W        W48799  20.661   5.808  20.727 -0.0623 -0.0865  0.6567
 5809W        W48800  10.046  32.407   2.825 -0.2826 -0.2550  0.0277
 5810W        W48801   2.575  11.040  20.000  0.1329  0.0701  0.3493
 5811W        W48802  16.896  23.797  16.662  0.0545 -0.4172  0.0650
 5812W        W48803  20.073  12.521  24.382 -0.0128  0.1810 -0.1085
 5813W        W48804  27.434  19.807  15.620 -0.1875 -0.1016  0.1211
 5814W        W48805  26.428  12.740  22.725 -0.1127  0.0948  0.2041
 5815W        W48806  14.882  15.886  22.826  0.2203 -0.0349 -0.1001
 5816W        W48807  11.825  14.804  17.958 -0.1527  0.2083  0.1403
 5817W        W48808  24.319   3.466  25.598 -0.3008  0.1505  0.0874
 5818W        W48809  26.051  25.660  20.904  0.0535 -0.3531 -0.0798
 5819W        W48810  26.138  19.150  23.345  0.2355  0.2840  0.1195
 5820W        W48811   0.335   5.017  14.702  0.0529 -0.1699 -0.0267
 5821W        W48812  24.440   9.981   0.829  0.1468  0.2206  0.2333
 5822W        W48813  25.447  15.252  24.227  0.3348  0.4541 -0.1387
 5823W        W48814  17.753  29.168  17.585  0.2729  0.5214  0.0050
 5824W        W48815  15.761  10.543  19.285  0.0779  0.0619 -0.0790
 5825W        W48816  15.378  10.719  25.820 -0.1807 -0.2671 -0.1604
 5826W        W48817  25.019  31.996   7.729  0.2180 -0.4813  0.0881
 5827W        W48818  20.892  25.864  17.774 -0.0745 -0.1045  0.2919
 5828W        W48819  12.600   7.779  16.859 -0.2328  0.1204  0.0027
 5829W        W48820  17.650  20.420  15.847  0.2087 -0.0945 -0.0052
 5830W        W48821  14.702   9.709  16.081  0.0172  0.1396  0.1035
 5831W        W48822  23.770  14.082  14.595 -0.0370  0.1272  0.2297
 5832W        W48823  26.291  19.662   8.544  0.1429  0.2184 -0.1918
 5833W        W48824  13.119   4.029   0.656  0.0749  0.3546  0.1731
 5834W        W48825  15.837  23.798  15.109  0.2699 -0.1805  0.0868
 5835W        W48826  28.989  22.126  18.718 -0.3197  0.1330  0.1251
 5836W        W48827  25.047  22.950  19.853  0.1082 -0.1770 -0.0548
 5837W        W48828   9.928  31.012  24.622 -0.1991  0.3046  0.1197
 5838W        W48829   6.576  21.784  22.707  0.2058  0.1665 -0.3127
 5839W        W48830  20.242   6.748   8.981  0.1963 -0.1119  0.1190
 5840W        W48831  30.766  19.754  25.269 -0.0609  0.0171  0.0060
 5841W        W48832  13.457  16.035  16.060  0.0373 -0.3387 -0.0579
 5842W        W48833  15.395  33.409  20.571 -0.2024 -0.0044  0.0457
 5843W        W48834  31.007  25.037  25.765  0.0793 -0.0856 -0.0282
 5844W        W48835  21.154   7.060  21.723  0.0307 -0.0571 -0.0411
 5845W        W48836  29.168  33.515  13.057 -0.0959  0.1791  0.0678
 5846W        W48837  33.188  18.638  19.097  0.2207  0.0520  0.2252
 5847W        W48838  32.933  17.623  16.211  0.0558  0.0110 -0.0972
 5848W        W48839  28.055  31.055  14.875 -0.0194 -0.0151  0.1598
 5849W        W48840  25.264  16.625  25.622 -0.0188 -0.0678  0.0112
 5850W        W48841  22.148   8.733   0.184 -0.3927 -0.0339 -0.0505
 5851W        W48842  24.401  19.544  15.644 -0.1466 -0.1593 -0.0935
 5852W        W48843   9.044  19.305  18.288  0.0151 -0.2429 -0.0638
 5853W        W48844  34.602  24.873  17.383  0.3021  0.0788  0.0904
 5854W        W48845  11.314  21.953  15.270 -0.2019  0.1746  0.0785
 5855W        W48846  22.991  11.722  18.237 -0.0295 -0.3560  0.0738
 5856W        W48847  26.357  25.663  14.168 -0.0402  0.0161  0.0416
 5857W        W48848   0.243  23.066   5.236 -0.2042 -0.1378 -0.1933
 5858W        W48849  22.128  34.356  23.289  0.1177  0.4050 -0.1221
 5859W        W48850  33.307  20.888  14.640 -0.0635 -0.1062 -0.1283
 5860W        W48851   7.655  28.276  24.530  0.1659 -0.1577 -0.0680
 5861W        W48852   7.594  22.683  14.805  0.2609  0.0167 -0.0266
 5862W        W48853  20.936  25.084  15.579  0.5060 -0.1877  0.2409
 5863W        W48854  33.769  27.490  16.297  0.1399 -0.1665  0.1940
 5864W        W48855  33.934  23.503  19.042  0.2050 -0.0066 -0.0229
 5865W        W48856  15.737  29.891  24.151 -0.0551 -0.0417 -0.0294
 5866W        W48857  17.696  19.007  14.390  0.1201 -0.0536  0.1066
 5867W        W48858  30.616   1.907  14.491  0.1622  0.1443  0.0470
 5868W        W48859  31.445   4.596  17.501  0.0903  0.4406  0.2867
 5869W        W48860   5.373  12.416  24.832 -0.1383 -0.2600  0.0416
 5870W        W48861  23.708  26.944  16.073 -0.0724 -0.3689  0.2442
 5871W        W48862  34.275  30.496  17.304 -0.0774 -0.0242  0.0142
 5872W        W48863  11.859  17.337   0.584 -0.0424  0.0460  0.1760
 5873W        W48864   1.410  22.594  28.216  0.0297 -0.2576  0.2176
 5874W        W48865   5.891  28.354  16.308 -0.1442 -0.0530  0.0282
 5875W        W48866  20.805  17.299  12.882  0.2117  0.3812 -0.0524
 5876W        W48867   1.043   8.762   3.505 -0.0205 -0.1100 -0.0951
 5877W        W48868  24.276  33.513  17.797  0.0746 -0.3406  0.0827
 5878W        W48869  28.752  21.698  26.000 -0.2074 -0.1987  0.0543
 5879W        W48870  10.868  28.708  16.378  0.0421 -0.2355  0.0630
 5880W        W48871  28.634  16.543  28.220  0.1310  0.3304 -0.2969
 5881W        W48872   1.935  17.731  26.865 -0.1443 -0.2575  0.0784
 5882W        W48873  15.308  26.083  17.756 -0.3926  0.2578  0.0970
 5883W        W48874  24.433  19.170  22.325  0.2600  0.1267  0.1460
 5884W        W48875  27.677   9.487  14.682 -0.2121  0.1564 -0.0592
 5885W        W48876  26.002  20.505  29.262  0.0326 -0.0785  0.1144
 5886W        W48877  17.499  30.776  14.956  0.0300  0.0014  0.3777
 5887W        W48878  31.449  32.759  27.576 -0.3172  0.1824  0.3843
 5888W        W48879  22.269  32.382  15.161 -0.2004  0.1462 -0.3736
 5889W        W48880   7.111  17.277  10.223  0.0328  0.1255 -0.1355
 5890W        W48881  18.562  14.485  20.461 -0.0475 -0.1718  0.2706
 5891W        W48882  21.335   6.487   0.206  0.0527 -0.0230 -0.0481
 5892W        W48883  27.323  17.036  14.213 -0.0207  0.2147 -0.0022
 5893W        W48884  12.513  10.265   6.119  0.0367  0.1873  0.2114
 5894W        W48885  24.095   8.897  24.441 -0.2379 -0.3383  0.0478
 5895W        W48886  10.682   6.457   8.872  0.0650  0.0192 -0.1663
 5896W        W48887  34.637  17.257  15.261 -0.2819 -0.0020 -0.1839
 5897W        W48888  17.506  12.743  22.598  0.1939 -0.4670 -0.0544
 5898W        W48889  21.118   6.654   6.664  0.3816  0.1493 -0.0031
 5899W        W48890   8.081  18.253  28.303 -0.0661 -0.3222  0.0844
 5900W        W48891  21.311  16.620  16.743  0.0468 -0.1776 -0.0224
 5901W        W48892  26.018  29.083  20.941  0.1701 -0.1841 -0.0011
 5902W        W48893  32.336   9.717  16.031  0.1216  0.0067 -0.1372
 5903W        W48894  33.191  23.466  15.065 -0.0166  0.0242  0.0152
 5904W        W48895   9.041   8.381   2.846  0.0920  0.0508 -0.0511
 5905W        W48896  30.537  25.110  22.718 -0.1869 -0.1437  0.1329
 5906W        W48897  21.440  24.704  13.464  0.2735 -0.0790 -0.1127
 5907W        W48898  26.362  17.677  20.770 -0.0066  0.0624  0.0981
 5908W        W48899   3.154   5.927  26.988 -0.2894 -0.1277  0.0358
 5909W        W48900  32.038  33.373  28.281 -0.0635  0.0354  0.0402
 5910W        W48901  20.502  23.762  13.869 -0.0957 -0.0708 -0.2062
 5911W        W48902  20.375   8.245   6.408  0.1899  0.5326 -0.1659
 5912W        W48903  14.457   6.749  19.836  0.0866  0.1206  0.1927
 5913W        W48904  11.225   4.886  16.320 -0.0488  0.0776  0.3713
 5914W        W48905  19.429  13.569  25.800  0.1269  0.1956  0.1065
 5915W        W48906   1.424  25.004  21.756  0.0999  0.3552 -0.1459
 5916W        W48907  20.464  16.253   7.243 -0.3496  0.1002  0.0030
 5917W        W48908   0.181  15.091  18.484  0.0059 -0.1918  0.1596
 5918W        W48909  31.867  11.381  15.576 -0.0403  0.1456 -0.0976
 5919W        W48910  26.236  23.398  16.307  0.0545  0.0490  0.0071
 5920W        W48911   0.714  17.467  15.051  0.1156  0.0169 -0.1665
 5921W        W48912  27.738  17.098  17.770 -0.2096  0.0777 -0.1866
 5922W        W48913  16.697   3.045   2.636  0.1564 -0.2326  0.1611
 5923W        W48914   6.097   8.757  23.795  0.2490  0.0110 -0.4683
 5924W        W48915  25.818  15.155  20.150  0.1958  0.0295  0.2460
 5925W        W48916  19.742   8.503  16.378  0.0116 -0.2645  0.2647
 5926W        W48917  26.539  33.915  24.247  0.2328  0.1380 -0.0084
 5927W        W48918  14.332  22.362  19.500  0.1600 -0.0229 -0.1025
 5928W        W48919  18.890   3.350  18.137  0.1978 -0.1073 -0.0689
 5929W        W48920  30.576  27.664  26.086 -0.0932 -0.1856  0.3206
 5930W        W48921  30.675  26.500   1.507  0.1466  0.0095  0.3312
 5931W        W48922  23.053  16.803  25.710 -0.1317 -0.0974  0.1526
 5932W        W48923  28.289   2.087  28.038 -0.3175  0.1420  0.0439
 5933W        W48924  29.135  22.374  26.748 -0.2108  0.0587  0.2001
 5934W        W48925  25.472   3.023   7.395 -0.2477 -0.0912  0.0797
 5935W        W48926   8.502  15.198  22.446 -0.2054 -0.3330  0.1720
 5936W        W48927  28.595   0.075   0.432  0.0374 -0.2508 -0.1022
 5937W        W48928  22.483  14.954  15.060  0.0922  0.0939 -0.1019
 5938W        W48929  30.289  10.676  23.595  0.0515 -0.0816  0.1088
 5939W        W48930  15.781  29.261  22.768  0.2040  0.1273  0.1112
 5940W        W48931  15.567  25.276  17.984  0.1034  0.1355 -0.0413
 5941W        W48932  23.837  15.884  26.898  0.1878 -0.0785 -0.3233
 5942W        W48933  23.332   3.583  20.278 -0.2389 -0.0282  0.2947
 5943W        W48934  31.390  14.396   7.623 -0.0759 -0.0812 -0.1114
 5944W        W48935  26.041   9.680   8.788  0.0359  0.3497 -0.1287
 5945W        W48936  17.251  26.291   0.252 -0.2012 -0.1253  0.0342
 5946W        W48937  15.381  20.201   2.444  0.0125  0.0492  0.1573
 5947W        W48938   1.579  24.696   8.277 -0.4060 -0.1858 -0.0627
 5948W        W48939  28.930  29.368  18.431  0.0736  0.0406 -0.1930
 5949W        W48940  31.059  11.065  24.419  0.2121 -0.1557 -0.0277
 5950W        W48941  16.348  31.812  16.264 -0.1147 -0.0095  0.1419
 5951W        W48942  23.442  27.526  17.029  0.2357 -0.1449  0.1906
 5952W        W48943  22.501   8.079  22.112  0.0191 -0.0286 -0.1159
 5953W        W48944  13.438  25.059  14.980 -0.4344  0.4099 -0.5056
 5954W        W48945  19.260  25.642  17.768  0.1121  0.1045  0.0057
 5955W        W48946  19.391  18.659  14.361  0.0607 -0.0513  0.3316
 5956W        W48947  17.678  20.396  28.970 -0.1273  0.2147  0.1983
 5957W        W48948  25.629   5.936  16.626 -0.3307 -0.0862  0.5143
 5958W        W48949  31.153  16.486  25.167 -0.1209  0.1201  0.0254
 5959W        W48950  27.118  25.650  29.057  0.2439  0.4265  0.0093
 5960W        W48951  30.211  25.930   4.945 -0.2486  0.0600  0.3990
 5961W        W48952  24.502  12.013   7.166 -0.0092  0.0214  0.2012
 5962W        W48953  19.067  11.907   1.133  0.2359 -0.2871  0.0904
 5963W        W48954  13.166  26.049  18.634  0.0246  0.0757 -0.4779
 5964W        W48955  15.702  28.603  28.600  0.2834  0.0360  0.1441
 5965W        W48956  24.795   3.495  18.170  0.1853  0.1184  0.1777
 5966W        W48957  25.491  20.938  22.507  0.1987 -0.0488 -0.1960
 5967W        W48958  13.549   5.373   4.569  0.0156  0.0377 -0.2534
 5968W        W48959  18.983  23.215   0.464  0.0742 -0.0627 -0.0519
 5969W        W48960  25.375  14.237  27.943  0.0204  0.0820 -0.0046
 5970W        W48961  32.375  23.289  22.656 -0.2230 -0.1374  0.0897
 5971W        W48962  28.205  16.916  18.265 -0.0826 -0.0675 -0.0380
 5972W        W48963  30.990  20.243   6.396  0.1978  0.0641  0.0379
 5973W        W48964  11.340   6.694   2.350 -0.4254 -0.1618  0.0097
 5974W        W48965  19.588  10.707  22.271 -0.0052  0.2654 -0.2943
 5975W        W48966  28.284   5.305   4.788  0.0519 -0.1180 -0.2339
 5976W        W48967  22.756   9.787   3.023  0.2400 -0.2578 -0.0392
 5977W        W48968  31.386  22.904  21.572 -0.2133  0.0227 -0.1396
 5978W        W48969  12.276  16.737   2.070 -0.0529 -0.2126  0.2493
 5979W        W48970  23.267  22.157  26.236 -0.0229 -0.0054  0.0822
 5980W        W48971  30.022   8.989  17.599  0.0593  0.1592  0.0318
 5981W        W48972  22.438  12.560  20.982 -0.1451 -0.2203  0.1234
 5982W        W48973  13.131  14.167  28.235 -0.0677  0.0956 -0.2090
 5983W        W48974   2.009  28.331   3.000  0.1698  0.1815  0.3061
 5984W        W48975  26.523  29.859  20.898 -0.1201  0.2470  0.3797
 5985W        W48976  11.696  20.882  25.562 -0.1763 -0.2565  0.1473
 5986W        W48977  28.774  14.898  19.163  0.1112  0.2852 -0.1315
 5987W        W48978   7.827   6.423  17.748 -0.0381 -0.0442 -0.0529
 5988W        W48979  19.724  27.343  20.110 -0.1431 -0.0006  0.1243
 5989W        W48980  31.164   4.697   1.258  0.0210 -0.0942 -0.3078
 5990W        W48981   9.320   5.773  29.226 -0.2299 -0.1509  0.0634
 5991W        W48982  13.707   8.386  15.990  0.0327  0.1318  0.0393
 5992W        W48983  26.001  32.683  19.482 -0.1487 -0.1838  0.0540
 5993W        W48984  29.011  10.935  25.101  0.2750 -0.3095 -0.1864
 5994W        W48985  20.786  14.354  20.318  0.0191  0.2074  0.0151
 5995W        W48986   2.690  28.899  10.221 -0.1380 -0.0936  0.4174
 5996W        W48987  26.764   7.741   1.974 -0.3456  0.1446  0.4735
 5997W        W48988   0.938  14.007  25.572  0.0268 -0.1470  0.1018
 5998W        W48989  25.763  18.359  22.215 -0.0426  0.0128  0.2644
 5999W        W48990  14.414  29.011  23.091  0.1340 -0.0935  0.1535
 6000W        W48991  31.660  19.111  13.950 -0.0807  0.1532 -0.3435
 6001W        W48992  20.801   6.905  26.787  0.0159 -0.3428  0.5230
 6002W        W48993  28.921   7.848  28.876  0.0086  0.2353  0.1101
 6003W        W48994  31.777   8.491  24.746 -0.0692 -0.0915  0.1879
 6004W        W48995   8.663  15.735  27.956 -0.0422  0.0874 -0.0748
 6005W        W48996  33.423  33.262   8.009  0.1138 -0.1670 -0.2980
 6006W        W48997  21.270  23.300  20.214  0.1536 -0.3067 -0.0536
 6007W        W48998  27.096  26.036  13.758 -0.0853 -0.2805  0.1476
 6008W        W48999   4.525  21.377  23.454 -0.0332  0.0545 -0.0016
 6009W        W49000  11.491   1.877  17.704 -0.0982  0.3189  0.0283
 6010W        W49001  31.270  19.691  24.497  0.0048 -0.0498  0.0691
 6011W        W49002  27.127   9.383   0.396  0.0039  0.1423 -0.1225
 6012W        W49003   0.577   4.210  23.573 -0.2614  0.0799 -0.1123
 6013W        W49004  22.957  15.171   5.905 -0.3798 -0.0152 -0.1129
 6014W        W49005  25.760  14.747   8.122 -0.1464 -0.0891  0.3958
 6015W        W49006  20.276  26.513  17.875  0.0476 -0.0182 -0.2945
 6016W        W49007  17.880  22.459  14.886  0.1914  0.0459  0.1087
 6017W        W49008   0.455  19.200  16.170  0.0827  0.1651  0.0569
 6018W        W49009   9.999  22.034  14.784 -0.0645 -0.1283 -0.0204
 6019W        W49010  20.297  23.303  16.898 -0.2916  0.1199  0.0587
 6020W        W49011   0.315  22.756   8.528 -0.2410 -0.0370 -0.0990
 6021W        W49012  19.756  19.026   1.531 -0.1428  0.0650 -0.0023
 6022W        W49013  31.246  11.759  28.525 -0.2413  0.0030  0.0907
 6023W        W49014  16.594  10.137  22.145  0.2440 -0.1568 -0.0601
 6024W        W49015  18.910   3.354   0.625  0.0009  0.3621  0.1929
 6025W        W49016  34.715  16.908  26.288  0.0895  0.1758 -0.1676
 6026W        W49017  27.828  19.260  23.283 -0.0496  0.1515  0.0600
 6027W        W49018  14.475  27.314  21.694  0.0094 -0.2215  0.0834
 6028W        W49019  14.809  19.906  25.611  0.2260  0.1831 -0.0064
 6029W        W49020   6.559  17.178  16.203  0.2058 -0.0501 -0.2307
 6030W        W49021  28.150  21.921   0.828 -0.0334  0.2544 -0.0201
 6031W        W49022  32.410  23.253  25.730  0.0404 -0.0465 -0.0052
 6032W        W49023  27.575  10.415  17.737 -0.1905  0.0530  0.2841
 6033W        W49024  34.227  23.892   1.045  0.2078 -0.0673  0.2470
 6034W        W49025   0.639  20.241  24.876  0.0244 -0.0332 -0.1627
 6035W        W49026  26.842  23.035  17.464 -0.0536  0.1292  0.1187
 6036W        W49027  24.846  12.229   5.095 -0.0706  0.2992 -0.0020
 6037W        W49028  22.448   7.706   9.014  0.1401  0.0152  0.1978
 6038W        W49029  25.465  11.725  15.633 -0.0987  0.2165 -0.2451
 6039W        W49030  11.915  13.010   2.076 -0.0308 -0.0687  0.2285
 6040W        W49031  12.619  26.289   5.843 -0.2284 -0.2028  0.0296
 6041W        W49032  17.884   6.040  14.514 -0.2103 -0.1298  0.0498
 6042W        W49033  23.662  12.573  16.068 -0.1200  0.1126  0.1852
 6043W        W49034  23.691   7.084  19.323  0.0696 -0.0407 -0.3188
 6044W        W49035   0.378  18.494  23.982  0.1205  0.0616 -0.0832
 6045W        W49036   6.449   5.215   5.765 -0.1167  0.2783  0.1792
 6046W        W49037  27.859   5.706   7.957 -0.3086 -0.0835 -0.1185
 6047W        W49038  23.817  17.449  22.074 -0.2002  0.1918 -0.0741
 6048W        W49039  25.672  22.266  23.279 -0.1998  0.0341 -0.1657
 6049W        W49040   4.565  27.890  18.338 -0.1487 -0.0780 -0.1376
 6050W        W49041  26.731  17.337   0.674 -0.2364  0.1923  0.1154
 6051W        W49042  13.300  13.201   1.502  0.0137 -0.0257 -0.1438
 6052W        W49043  23.095  34.402   7.402 -0.0633 -0.0575 -0.2078
 6053W        W49044   8.291   4.864   0.343 -0.1707 -0.2719  0.3375
 6054W        W49045   0.218   2.753  17.690 -0.2827 -0.1087  0.0752
 6055W        W49046  24.709   8.529  18.175  0.0783 -0.0371  0.1423
 6056W        W49047  29.242  22.005  23.788 -0.0219 -0.1232  0.4369
 6057W        W49048  15.159   7.669  21.209 -0.1124 -0.2750  0.2839
 6058W        W49049  24.320  15.836  25.019 -0.2083 -0.0806  0.2719
 6059W        W49050  24.142  13.823  21.216 -0.2501  0.1030  0.1911
 6060W        W49051   3.473   1.113  27.871  0.0027 -0.2336  0.0206
 6061W        W49052   7.088  32.742  19.255 -0.1639  0.2032  0.0541
 6062W        W49053   6.091  22.050  25.866  0.1047 -0.0267 -0.0926
 6063W        W49054  22.870  33.583  25.252 -0.2299 -0.2952  0.3931
 6064W        W49055  32.966  23.352  25.682 -0.2896  0.1212 -0.0665
 6065W        W49056  28.788  14.341   2.137 -0.2792  0.0487  0.0180
 6066W        W49057  15.517  22.500   0.788  0.0811 -0.1292  0.2012
 6067W        W49058  25.206  16.341  14.829 -0.2153  0.0573  0.0383
 6068W        W49059   3.983  16.686   1.398  0.2907 -0.0998 -0.2281
 6069W        W49060  26.037  12.285  22.944  0.0053 -0.0693 -0.0435
 6070W        W49061  32.124  29.925  15.908  0.1533 -0.0850 -0.1018
 6071W        W49062  18.022  12.251  21.717  0.3013 -0.2293 -0.3334
 6072W        W49063  24.547   9.159   4.802 -0.2167 -0.3045 -0.0073
 6073W        W49064  16.763  21.677  27.758 -0.1831  0.0523  0.3333
 6074W        W49065  31.279  28.573  19.083 -0.0991 -0.3873 -0.1825
 6075W        W49066  28.836  21.216  25.332 -0.1264 -0.0442 -0.4668
 6076W        W49067   5.370  23.985  20.934  0.3543  0.0624 -0.2816
 6077W        W49068  24.961  11.061  22.423  0.0832  0.0059 -0.1610
 6078W        W49069   5.238  19.597  19.049  0.0111 -0.0038  0.0247
 6079W        W49070  17.751  26.559  17.369  0.0451  0.0926 -0.1675
 6080W        W49071  25.100  26.320   2.788 -0.1752 -0.1902  0.2539
 6081W        W49072   3.896   8.519  18.080  0.1963 -0.3185  0.0008
 6082W        W49073  29.709  13.346  16.719  0.3348  0.0192  0.0924
 6083W        W49074  29.756  15.357  20.331  0.0409  0.2772 -0.0323
 6084W        W49075  29.869   1.116   0.336 -0.0089  0.1971 -0.1749
 6085W        W49076  32.676   6.889  15.253  0.1416  0.2013 -0.1323
 6086W        W49077  18.718  11.937  26.568 -0.0723  0.1152  0.0555
 6087W        W49078   3.896  22.311  22.379 -0.1692  0.2717 -0.1274
 6088W        W49079  34.494  18.927  15.058 -0.1128 -0.4990  0.0114
 6089W        W49080  14.108  15.963  14.326 -0.1143  0.0660 -0.4458
 6090W        W49081   2.529   7.042   6.940 -0.2329  0.0815  0.1005
 6091W        W49082  28.347  27.828  26.829  0.1726 -0.2162  0.0472
 6092W        W49083  16.753  23.390  22.450  0.0200 -0.0682 -0.0468
 6093W        W49084  16.447   9.296   0.368  0.2257  0.1604 -0.0703
 6094W        W49085   0.918  22.476  28.484 -0.0919 -0.0905 -0.0676
 6095W        W49086  15.937   2.770  27.200 -0.0125 -0.0735 -0.2337
 6096W        W49087  16.148  16.646  14.038 -0.1356  0.2843  0.1815
 6097W        W49088  28.150  17.380  18.089  0.0295 -0.4675 -0.2651
 6098W        W49089   4.419  28.026  15.770  0.2760 -0.0907  0.0261
 6099W        W49090   2.494  31.643  21.113 -0.1675 -0.0918  0.1156
 6100W        W49091   3.773  32.152  16.267 -0.0337 -0.2915 -0.0254
 6101W        W49092  26.294  26.959  18.339 -0.2845  0.0510 -0.0192
 6102W        W49093  23.478  32.145  16.523  0.1909  0.3667  0.1258
 6103W        W49094  16.744  16.507  13.005 -0.0070 -0.0977 -0.2219
 6104W        W49095  18.785   9.607  19.439  0.0299  0.2203  0.0616
 6105W        W49096  27.323  25.968  21.229 -0.0947 -0.2377 -0.4115
 6106W        W49097  29.110  19.427   7.055  0.1745 -0.0219 -0.4869
 6107W        W49098  22.135  21.849   1.406 -0.0811  0.3777 -0.2024
 6108W        W49099  27.837  18.275  18.695  0.1117 -0.0863 -0.2828
 6109W        W49100  29.806  21.947  22.021  0.4198  0.0508  0.0033
 6110W        W49101   1.239  11.863  20.013  0.0241  0.1306 -0.2747
 6111W        W49102  14.940  15.437  22.189  0.0181 -0.0115 -0.1073
 6112W        W49103  19.258  23.978   5.050 -0.0772  0.2291 -0.2949
 6113W        W49104  23.465  19.461  25.165  0.0618  0.0270 -0.0686
 6114W        W49105  28.468  16.348  24.855  0.3903 -0.2481 -0.0698
 6115W        W49106  22.879  32.498   0.428 -0.0545 -0.1591 -0.0718
 6116W        W49107  23.688  25.955  18.563  0.0792  0.0545  0.1065
 6117W        W49108  10.963  20.631   5.516 -0.0527 -0.0717  0.3722
 6118W        W49109  17.272   8.820  25.324 -0.2190  0.1750  0.1282
 6119W        W49110   6.647  22.315  22.874  0.0406  0.1122 -0.0005
 6120W        W49111  25.726   7.524   6.071 -0.2042  0.3024 -0.1375
 6121W        W49112  29.676   5.460   6.103  0.0105 -0.0852 -0.1190
 6122W        W49113  16.372   6.636  23.144  0.0692  0.1602 -0.0803
 6123W        W49114  19.208  27.693  20.005 -0.4269  0.1266 -0.3212
 6124W        W49115  25.810  31.396   6.656 -0.1265 -0.0953  0.0053
 6125W        W49116   5.044  25.491  20.900 -0.1051  0.0089  0.1556
 6126W        W49117  25.100  12.185   4.568 -0.2121  0.0486 -0.1360
 6127W        W49118  11.648  27.749   2.037 -0.0717  0.4147 -0.1135
 6128W        W49119  13.942  33.487  15.647 -0.1472  0.0836  0.0253
 6129W        W49120  23.978  20.297  23.867  0.0638  0.0692  0.0190
 6130W        W49121  31.379  10.688  17.231  0.0210  0.1221 -0.1162
 6131W        W49122  14.100  10.032  28.334 -0.0366  0.0522  0.0619
 6132W        W49123  21.967   5.102   0.500  0.2019  0.1475  0.0920
 6133W        W49124  16.841  10.350  22.740 -0.4338  0.2576 -0.0741
 6134W        W49125  25.642   3.478   0.569  0.0701  0.0906  0.1300
 6135W        W49126  18.482  25.473  13.929  0.3452 -0.1612 -0.0973
 6136W        W49127  28.376   7.049  18.553 -0.1959 -0.0696 -0.1623
 6137W        W49128  15.439  14.259  22.321 -0.1865  0.1578  0.1378
 6138W        W49129  31.677  26.830  18.916 -0.0568 -0.2012  0.3278
 6139W        W49130   9.861  10.576   1.996 -0.3450 -0.0299  0.1580
 6140W        W49131  24.367   5.277  18.603 -0.2125 -0.0055  0.0501
 6141W        W49132  26.120  15.876  24.171  0.0787  0.2146  0.0449
 6142W        W49133  29.032  20.149  19.936  0.1369  0.0337  0.1870
 6143W        W49134  17.678   8.133  22.106  0.1752 -0.0232 -0.2351
 6144W        W49135  23.259  18.620  22.265  0.2183  0.0962 -0.0495
 6145W        W49136  33.045  31.375  21.077 -0.0433  0.6976  0.0496
 6146W        W49137  26.016  10.791  24.590 -0.1387  0.1747 -0.1479
 6147W        W49138  22.835  20.626  13.616  0.0092 -0.1243  0.1268
 6148W        W49139  18.622  11.502  24.875 -0.1528  0.0430 -0.2521
 6149W        W49140  32.881  31.380  17.623 -0.2435 -0.2472  0.2985
 6150W        W49141  18.818  28.461  14.536 -0.1447 -0.2806  0.4056
 6151W        W49142  32.816  19.249   3.836  0.1902 -0.0596 -0.3366
 6152W        W49143  14.679  12.905  14.839  0.1441 -0.0486 -0.1164
 6153W        W49144  22.772  27.770  14.044  0.1921  0.1083 -0.0094
 6154W        W49145  12.357   5.418  16.606  0.1961 -0.0313  0.1936
 6155W        W49146  17.986  29.125  25.639  0.1994  0.3213 -0.3126
 6156W        W49147   0.787  21.008   6.244  0.1637  0.0349 -0.0995
 6157W        W49148   4.971  26.770   9.342  0.0770 -0.4702  0.1050
 6158W        W49149  28.667   2.044   0.750  0.1324 -0.2748  0.0402
 6159W        W49150  23.130  16.376   9.553 -0.4004 -0.2478  0.1709
 6160W        W49151   4.907  31.847  20.907 -0.1062  0.0882  0.1903
 6161W        W49152  27.135   5.039  22.758  0.0150  0.1638 -0.1457
 6162W        W49153  13.656  20.993  18.280 -0.2247  0.0095  0.1880
 6163W        W49154  25.750  10.898   3.881  0.1262 -0.0655 -0.0920
 6164W        W49155   6.022   8.352  20.305 -0.1519 -0.1832 -0.4082
 6165W        W49156  21.232  10.726   1.931 -0.2049 -0.2898  0.0513
 6166W        W49157  33.611  15.563  25.512 -0.0047  0.3204 -0.3958
 6167W        W49158  15.962  16.716  26.600  0.3734  0.0061  0.0056
 6168W        W49159  12.530  26.477  15.559 -0.0298 -0.3950 -0.1565
 6169W        W49160   2.352  19.299  26.292 -0.0832  0.4888 -0.2296
 6170W        W49161  27.246   1.824  22.370 -0.1894  0.2969 -0.0170
 6171W        W49162   2.863  24.576   7.712  0.0472 -0.0638 -0.1093
 6172W        W49163   6.629  18.149  10.619 -0.1075  0.0168  0.1280
 6173W        W49164  22.548  16.579  21.278  0.1029 -0.2531  0.1793
 6174W        W49165  12.937  10.588  16.366 -0.3480 -0.0460  0.1561
 6175W        W49166  18.090  20.049  13.637 -0.3723  0.0330 -0.0060
 6176W        W49167   5.421   1.962   9.374  0.3534  0.0357 -0.3521
 6177W        W49168  28.522  17.131  15.273 -0.3233  0.1499  0.5074
 6178W        W49169  11.031  33.211  22.445  0.0569 -0.0977 -0.0358
 6179W        W49170  16.914  23.682  28.938  0.0477 -0.0094  0.1618
 6180W        W49171  16.777  31.829  15.879  0.0254 -0.0557 -0.2140
 6181W        W49172  22.216  11.860  24.002 -0.2768  0.0064  0.1180
 6182W        W49173  27.706  31.762  19.876  0.1176 -0.0007  0.2424
 6183W        W49174  16.499  22.759   1.483  0.0526 -0.3298  0.0997
 6184W        W49175  11.407   1.675  21.721  0.2187  0.0391 -0.2279
 6185W        W49176  17.725   9.100   0.256  0.1150  0.1414  0.4293
 6186W        W49177  32.784   9.570  17.289 -0.0793  0.3265  0.1357
 6187W        W49178  31.290  14.285  21.187  0.1237  0.1116  0.3045
 6188W        W49179   0.836  27.423   1.637  0.0131 -0.1925  0.1648
 6189W        W49180   0.212  14.428  17.127  0.0963  0.1948  0.2307
 6190W        W49181  23.109  16.317  14.710 -0.2331 -0.3254  0.1625
 6191W        W49182  17.143  15.568   7.802 -0.3104 -0.0246 -0.0129
 6192W        W49183   9.191   3.022   5.288  0.0151 -0.2946 -0.6696
 6193W        W49184  13.311   5.350   0.714  0.1244  0.2720  0.2488
 6194W        W49185  16.848   9.564  16.653  0.1663  0.0135 -0.1645
 6195W        W49186  27.652  30.325  19.772 -0.1683 -0.0335  0.0062
 6196W        W49187  30.228  14.131  28.767  0.0046 -0.1497 -0.1967
 6197W        W49188  17.723  25.813  25.744  0.0262 -0.0718  0.1395
 6198W        W49189  24.665  20.979  14.043  0.3268 -0.0002 -0.2288
 6199W        W49190  18.010  27.263  13.211  0.0667 -0.0868  0.0003
 6200W        W49191  20.536  10.577  26.587 -0.2526  0.0187  0.1253
 6201W        W49192   4.999  24.489  15.822  0.1744  0.0537 -0.1474
 6202W        W49193  29.606  33.753   2.533 -0.2836 -0.3821  0.0115
 6203W        W49194  28.617  15.842  19.958  0.0713 -0.1992  0.0792
 6204W        W49195  29.313  13.292  24.342 -0.2408  0.2164 -0.0686
 6205W        W49196  25.738  11.355   0.796 -0.1917 -0.1783 -0.2935
 6206W        W49197   5.665  28.896  26.134  0.1528  0.4113  0.1704
 6207W        W49198  20.454  17.825  27.957 -0.1466 -0.4443 -0.1787
 6208W        W49199   6.136   9.202  14.977  0.3000  0.1091  0.1648
 6209W        W49200   0.347   0.844  22.762 -0.0221 -0.3598 -0.1593
 6210W        W49201  28.562   3.484  20.346 -0.0552  0.1496 -0.0468
 6211W        W49202  26.867  22.369   6.058 -0.0824  0.4522 -0.1816
 6212W        W49203  24.810  27.987  25.448  0.3223  0.0864 -0.3305
 6213W        W49204  34.421  10.046  25.914  0.2906  0.0078 -0.3579
 6214W        W49205  27.543  21.384  28.528 -0.0988 -0.2980  0.1482
 6215W        W49206  30.994  20.028  21.889  0.0836 -0.4055  0.2364
 6216W        W49207  31.167  21.031  22.309  0.0727  0.2380 -0.2003
 6217W        W49208  15.166  20.547  15.299 -0.0709  0.0032 -0.5258
 6218W        W49209  20.715  11.084  28.311 -0.2628 -0.4011  0.0464
 6219W        W49210  27.532  18.071  20.702  0.2142 -0.2390  0.2195
 6220W        W49211  25.692  21.682  16.954 -0.0608  0.1517 -0.1468
 6221W        W49212  24.422  25.953  17.369 -0.2477 -0.1859 -0.1257
 6222W        W49213   4.032  24.549   2.178  0.0823 -0.1588  0.1030
 6223W        W49214  23.710  17.881  26.583 -0.0213  0.2625  0.1307
 6224W        W49215  31.172  18.376   8.098 -0.2476 -0.1311  0.1809
 6225W        W49216  26.479   8.292   9.892 -0.0733  0.2045  0.1489
 6226W        W49217  22.490  28.554  28.119 -0.4204 -0.0192 -0.3102
 6227W        W49218  23.886   3.959  17.918  0.1352  0.0460  0.4810
 6228W        W49219  19.027   7.212  15.635  0.1978 -0.0248 -0.2933
 6229W        W49220  30.120   8.856  28.216  0.0810  0.0566  0.1678
 6230W        W49221  22.216  26.430   5.456  0.2525 -0.0528 -0.0818
 6231W        W49222  17.421   5.748  16.707  0.1873  0.0228 -0.0853
 6232W        W49223  23.700  24.959  18.396  0.0718  0.0619  0.2183
 6233W        W49224  16.473  27.543  29.087  0.0375  0.2806 -0.1900
 6234W        W49225  34.160   2.069  28.340  0.2789  0.2634 -0.2404
 6235W        W49226  27.007   4.866  22.291  0.0364  0.0465 -0.0598
 6236W        W49227  30.293  25.315  24.293  0.0801 -0.1104 -0.0931
 6237W        W49228  15.541  27.133  27.769  0.0848 -0.0630  0.2286
 6238W        W49229  22.403  10.000   2.588  0.1443  0.1183 -0.1945
 6239W        W49230   8.782   7.242  23.538  0.2187  0.5384 -0.1685
 6240W        W49231  29.804  24.397  25.612 -0.3355  0.2356  0.1263
 6241W        W49232  32.780  29.887  23.624 -0.4010  0.0255  0.2105
 6242W        W49233  10.994  19.680   9.867 -0.2507  0.1892 -0.0404
 6243W        W49234  20.107  19.454  22.058  0.3493  0.2539  0.0209
 6244W        W49235  24.055   9.401  13.382  0.2411  0.0120  0.0014
 6245W        W49236   5.339  28.131  17.308  0.1192  0.1136  0.0893
 6246W        W49237  16.699  28.706  20.657  0.2114 -0.0965  0.3216
 6247W        W49238  33.681  23.381  16.770 -0.0162  0.0959 -0.3997
 6248W        W49239  28.569  30.039  20.572 -0.2905  0.2483  0.0663
 6249W        W49240  32.861  23.292  14.290  0.0274 -0.1892 -0.5692
 6250W        W49241  21.799  20.518  23.962 -0.0630  0.0670  0.1941
 6251W        W49242  22.025   7.786  14.388 -0.0322  0.0875  0.0866
 6252W        W49243  20.368  24.791  18.060  0.2621  0.1299 -0.2175
 6253W        W49244  25.150  19.053  16.672 -0.3210 -0.0917  0.1785
 6254W        W49245  24.699  23.190   5.963  0.1853 -0.3609 -0.0327
 6255W        W49246  14.180   6.344  15.751 -0.0603 -0.1479  0.0130
 6256W        W49247  34.476  32.143   3.410 -0.0291 -0.0120 -0.3302
 6257W        W49248  27.246  19.887  25.072 -0.3157  0.1475 -0.0527
 6258W        W49249  20.874  15.205  23.313 -0.0290 -0.1479 -0.0333
 6259W        W49250   8.287  22.461  26.710  0.3244  0.0772 -0.2694
 6260W        W49251   6.222  14.248  14.700  0.0184 -0.0796  0.2599
 6261W        W49252  20.391  17.943   4.786 -0.1278 -0.1682  0.2003
 6262W        W49253  15.278   7.132  20.148 -0.3097 -0.3980  0.3207
 6263W        W49254  32.181  15.783   0.636  0.0196  0.3166  0.1223
 6264W        W49255  23.686  30.467   2.839  0.0410  0.0280 -0.0431
 6265W        W49256   4.580  17.146  19.493 -0.1777  0.2089 -0.1416
 6266W        W49257  33.890  13.041  18.459 -0.1452  0.1853 -0.2396
 6267W        W49258  19.139  19.883  14.814 -0.0720 -0.0085 -0.1599
 6268W        W49259  25.166   0.298  18.645 -0.1894  0.0228  0.0926
 6269W        W49260  19.609  27.502  23.884 -0.1423 -0.2408 -0.0549
 6270W        W49261  33.751   8.778  17.047  0.1058  0.1490  0.0186
 6271W        W49262  26.720  25.321  17.875 -0.0120 -0.0357 -0.0080
 6272W        W49263   0.199  16.980  27.930  0.2085 -0.1694  0.1801
 6273W        W49264  27.135  18.266   0.673 -0.0150 -0.0277 -0.0363
 6274W        W49265  11.471   4.191   2.897  0.0846 -0.0783 -0.1855
 6275W        W49266   1.995   2.913  27.669  0.3291 -0.3195  0.1341
 6276W        W49267   7.684  21.158  19.836 -0.1469  0.0386 -0.1036
 6277W        W49268  23.483  24.959   4.199 -0.0910  0.0456  0.0159
 6278W        W49269  23.459  11.888  19.169 -0.0994  0.0970  0.2005
 6279W        W49270  17.983  24.069  27.975  0.2139 -0.2177 -0.0972
 6280W        W49271  33.228  32.227  14.459  0.1285 -0.0809 -0.2891
 6281W        W49272  31.034  21.211  16.039 -0.1231  0.0085 -0.0567
 6282W        W49273  17.603  16.856  24.423  0.0034 -0.1435  0.2277
 6283W        W49274  22.993  10.534   6.097  0.0699 -0.1152  0.1835
 6284W        W49275  30.671  11.773   0.451 -0.0860  0.0828 -0.2704
 6285W        W49276  17.677  20.826   2.842  0.1473 -0.1073  0.1034
 6286W        W49277  23.371  16.690  27.997  0.1657  0.0301  0.2072
 6287W        W49278   0.880  20.453   8.941  0.2078 -0.1184  0.0345
 6288W        W49279  20.164   6.778   4.917  0.2151 -0.1819 -0.1545
 6289W        W49280  27.008  20.801  28.633 -0.0296 -0.2393 -0.0365
 6290W        W49281   3.347  28.063  24.903 -0.0048  0.0779  0.1465
 6291W        W49282  20.826  10.735   8.796 -0.2235  0.0850 -0.1250
 6292W        W49283  25.377  21.460  19.231  0.0435  0.0197 -0.2678
 6293W        W49284  32.685  20.168  25.446 -0.0006 -0.0281 -0.0054
 6294W        W49285  21.545  15.676  16.860  0.2271 -0.2947 -0.3260
 6295W        W49286   1.962  20.845   8.404  0.1998  0.0602  0.1005
 6296W        W49287  14.558  15.798   1.984 -0.0322  0.4358 -0.1806
 6297W        W49288   7.184  34.750   2.350  0.0907  0.1663  0.1294
 6298W        W49289  20.960  11.611  19.076 -0.0156  0.2285  0.1362
 6299W        W49290  18.554  20.581   3.212 -0.3460  0.0705 -0.0301
 6300W        W49291  17.988  26.606  16.172 -0.1600  0.3062  0.2030
 6301W        W49292  18.755  27.808   0.737 -0.0521  0.1538 -0.1534
 6302W        W49293  31.373  15.405   9.785  0.0890 -0.1711 -0.2403
 6303W        W49294   4.281  33.907   1.210 -0.1652  0.0252 -0.3694
 6304W        W49295  30.586  20.220   3.837 -0.0824  0.1484 -0.0969
 6305W        W49296  20.746  21.280   1.097  0.1198  0.0862 -0.1724
 6306W        W49297  30.148   6.435  16.647  0.1301  0.0653  0.1504
 6307W        W49298  17.576  13.603   0.246  0.0883  0.1025  0.3458
 6308W        W49299  21.103  10.886   3.113  0.0050 -0.1161 -0.2936
 6309W        W49300   9.773  20.177  25.656 -0.0074 -0.0052 -0.1172
 6310W        W49301  27.652  11.270  25.018  0.1675 -0.2971  0.1393
 6311W        W49302  14.921  17.859  25.878  0.1299  0.0486  0.2210
 6312W        W49303  24.470  21.176   1.514  0.0069  0.0686  0.0047
 6313W        W49304  25.130  13.481   0.054 -0.0412 -0.0083  0.1953
 6314W        W49305  29.176  16.403  16.018 -0.1554  0.1185 -0.0485
 6315W        W49306  14.821   5.893  23.180 -0.0332  0.0559 -0.0080
 6316W        W49307  32.002  13.669   3.704  0.2541  0.1742  0.0340
 6317W        W49308  28.849   9.806   4.675 -0.2617 -0.0373 -0.1281
 6318W        W49309  18.918  24.479   3.433  0.2607  0.2148 -0.2948
 6319W        W49310  19.018  30.647   6.477 -0.0196  0.5573  0.0780
 6320W        W49311  17.906  29.581  20.925  0.2647 -0.0536 -0.0956
 6321W        W49312   0.172  14.092  22.095 -0.0365 -0.4076 -0.0173
 6322W        W49313  27.613  13.340  23.556 -0.4532  0.1032 -0.2751
 6323W        W49314  27.596  19.571   3.032  0.0808 -0.0959  0.1882
 6324W        W49315  18.594  30.892  22.682 -0.0888 -0.0647  0.0076
 6325W        W49316  17.547  22.729   7.757 -0.2031 -0.0759 -0.1381
 6326W        W49317  20.861  20.683  24.012 -0.0130  0.0844  0.2480
 6327W        W49318  33.103  27.516  26.985  0.0760  0.0599 -0.1547
 6328W        W49319  34.497  13.175  16.612 -0.2059 -0.0049  0.1026
 6329W        W49320   0.484  22.068   2.604  0.0312 -0.1718 -0.0279
 6330W        W49321  26.441  14.410  17.626  0.0310 -0.1130  0.2137
 6331W        W49322   1.387   3.315  23.841  0.2268 -0.0197  0.0760
 6332W        W49323   2.181  10.974  10.038 -0.0677  0.1235 -0.2074
 6333W        W49324  29.406  21.683  25.034  0.0154 -0.2730  0.0624
 6334W        W49325  25.375   3.891   0.388  0.0008  0.1503  0.0037
 6335W        W49326  18.344  14.647  24.107 -0.4483  0.1397 -0.0597
 6336W        W49327  21.737  28.758  21.442 -0.0835 -0.1607  0.1174
 6337W        W49328  13.429  20.700  15.104  0.4374  0.1748 -0.0965
 6338W        W49329  17.398   7.205   9.673  0.2540  0.1349 -0.2179
 6339W        W49330  34.109  19.744  23.293 -0.1418  0.0961 -0.0660
 6340W        W49331  23.781   7.863  26.274 -0.0058  0.0021  0.0576
 6341W        W49332   6.673  19.654   2.833 -0.2157 -0.0804 -0.1142
 6342W        W49333  17.807  23.764   8.535 -0.2732  0.3842 -0.2154
 6343W        W49334  11.091  15.201   8.173  0.0355 -0.1170  0.0226
 6344W        W49335   2.784  12.890   7.568 -0.0586  0.0041 -0.0451
 6345W        W49336  18.272  23.826  25.113 -0.2399 -0.0810 -0.0932
 6346W        W49337   2.617   1.454  23.386 -0.1324 -0.1237 -0.1951
 6347W        W49338  11.631  22.496   6.784  0.0320 -0.2555 -0.1688
 6348W        W49339  33.526  20.779  15.119 -0.0209  0.0453 -0.2218
 6349W        W49340  20.112   7.911   8.046  0.2119 -0.3271 -0.0365
 6350W        W49341  20.490  17.471   2.953  0.0622 -0.0839 -0.1512
 6351W        W49342  26.804  27.239  14.247 -0.1118 -0.3784  0.3647
 6352W        W49343  19.914  31.237   8.898 -0.0762  0.2753 -0.0403
 6353W        W49344  15.696   0.363  17.892 -0.1232  0.0775  0.0746
 6354W        W49345  31.376  12.013  20.037 -0.2194 -0.2480 -0.0854
 6355W        W49346  15.755   7.733   7.949 -0.0301 -0.2314  0.1675
 6356W        W49347   9.042  14.416  28.544  0.2163  0.1492 -0.1311
 6357W        W49348   4.542  18.095  29.003 -0.0871  0.3593 -0.1525
 6358W        W49349   6.599  19.362   2.468 -0.0935  0.1429 -0.0091
 6359W        W49350  23.796  34.745  25.039  0.1550 -0.4839 -0.0225
 6360W        W49351  24.928  17.106  28.850 -0.0103 -0.2761 -0.0597
 6361W        W49352   4.838  10.034  26.844 -0.0732  0.2198  0.0768
 6362W        W49353  17.991  30.435   7.238 -0.0074 -0.0617  0.1012
 6363W        W49354  28.340  19.573  28.134  0.2244  0.0943  0.1993
 6364W        W49355   2.870   7.576   9.623 -0.3048  0.1870 -0.0318
 6365W        W49356  20.832   0.388  27.805  0.1012  0.2933  0.1534
 6366W        W49357  14.146  24.606  21.415  0.0870 -0.0149  0.1012
 6367W        W49358  21.246  11.658   0.830 -0.2369  0.0024 -0.1037
 6368W        W49359  27.284   3.060  17.670 -0.0601 -0.2993 -0.0921
 6369W        W49360  23.741  27.076   7.708 -0.0723 -0.0577 -0.0196
 6370W        W49361  13.302  22.193  14.131 -0.0277  0.0224 -0.5354
 6371W        W49362   3.484  18.440  17.177  0.0777  0.1082 -0.0371
 6372W        W49363  33.685  12.484   5.258 -0.0784  0.1525 -0.3040
 6373W        W49364  15.380  22.137   1.144  0.0963 -0.0004 -0.4746
 6374W        W49365  12.167  16.601  21.402 -0.0451 -0.1573  0.1328
 6375W        W49366  13.479  16.459   4.668  0.0340 -0.3558 -0.2000
 6376W        W49367  16.133  17.845   2.299  0.1364  0.1328 -0.0925
 6377W        W49368  25.901  13.300  19.083  0.1299  0.2522  0.0015
 6378W        W49369  15.805   4.551  11.245 -0.3232 -0.0214  0.0468
 6379W        W49370  26.200  20.579  13.145  0.0474 -0.3048 -0.1501
 6380W        W49371  28.140  24.874   6.781 -0.0211  0.1508  0.3025
 6381W        W49372  17.784  23.157   9.223  0.4342 -0.1389 -0.3841
 6382W        W49373  26.985  18.331  25.405  0.2434  0.0605 -0.0760
 6383W        W49374  27.282  23.317  27.196  0.1633  0.0170 -0.0442
 6384W        W49375  33.034  30.918  16.921  0.2729  0.3765  0.1257
 6385W        W49376  26.269  22.198  18.670 -0.2102 -0.0986 -0.2708
 6386W        W49377  34.010  19.580  17.218  0.0104  0.0114  0.1252
 6387W        W49378  12.200   0.260  17.013 -0.1897 -0.3598  0.2218
 6388W        W49379  29.185  28.653   5.530 -0.0159  0.0182  0.0076
 6389W        W49380  19.512   6.068   2.160  0.0407  0.0708 -0.0284
 6390W        W49381  16.318  33.853  22.076 -0.0645  0.2323 -0.0768
 6391W        W49382  22.802   6.943  15.980  0.3595  0.2039  0.2580
 6392W        W49383  29.342  27.168  19.444 -0.1356 -0.3625  0.1205
 6393W        W49384  12.713   9.315  20.464 -0.1270  0.2216  0.2076
 6394W        W49385  10.150   8.851  25.307 -0.1280 -0.1670 -0.0818
 6395W        W49386  19.019  21.126   0.139 -0.0225 -0.2076  0.0875
 6396W        W49387   1.568   0.769  25.603 -0.1484  0.2695  0.2218
 6397W        W49388   9.293  18.039  16.245 -0.4700  0.1913 -0.1043
 6398W        W49389  13.503  19.718   6.991 -0.0658  0.2693  0.0094
 6399W        W49390  21.355  25.784  18.071  0.0177 -0.1049  0.1003
 6400W        W49391  32.033  19.929  21.500 -0.2624 -0.0161 -0.1630
 6401W        W49392  23.576  16.586   8.601  0.0839  0.1331  0.0072
 6402W        W49393   3.206  14.080  16.487 -0.0464 -0.0222  0.0596
 6403W        W49394   7.070   6.434   8.653  0.6081  0.1037 -0.0163
 6404W        W49395  23.070  28.648   9.576 -0.1292  0.1041  0.1826
 6405W        W49396  34.699  34.548   5.578  0.2093  0.1879 -0.0569
 6406W        W49397  26.304  21.705  19.818  0.2122  0.0027  0.1654
 6407W        W49398  17.494  32.970  14.571  0.0070 -0.1243  0.0659
 6408W        W49399  27.223  14.128  18.037  0.1007  0.2075  0.2256
 6409W        W49400  32.640  28.131   7.040  0.0359 -0.3390 -0.0514
 6410W        W49401  28.356  12.803   7.193 -0.1336 -0.1940  0.0682
 6411W        W49402  22.582  15.681  24.490 -0.1581  0.2227  0.0570
 6412W        W49403  17.088  31.455  22.054 -0.2460 -0.1286 -0.0709
 6413W        W49404  24.536  18.059  26.251  0.0725 -0.0578  0.0204
 6414W        W49405  15.607   8.370   0.614 -0.0127  0.4265  0.0726
 6415W        W49406  22.968  15.299  21.240  0.3241 -0.1058  0.1437
 6416W        W49407  26.171   8.248   6.495 -0.0176 -0.0294 -0.0888
 6417W        W49408  25.434  16.222  16.433 -0.0392 -0.0686 -0.1144
 6418W        W49409  17.683  19.083   5.214  0.2605  0.0544 -0.1505
 6419W        W49410  26.503  29.804  24.937 -0.1424 -0.1648  0.0476
 6420W        W49411  17.380  18.999  12.099 -0.0584  0.2167 -0.0078
 6421W        W49412  21.070  10.329  20.444 -0.1726 -0.1408  0.3303
 6422W        W49413  17.890   7.947   8.718  0.1768  0.2784 -0.0726
 6423W        W49414  34.412  20.004   6.546 -0.2574  0.1011  0.0983
 6424W        W49415  13.244  17.185  16.603 -0.2182  0.0976 -0.0061
 6425W        W49416  17.516  19.485  25.128 -0.0115  0.0598 -0.1855
 6426W        W49417  19.456   5.106   1.325  0.2466  0.0889 -0.2655
 6427W        W49418  18.623   1.062  24.202  0.0475  0.2091 -0.2400
 6428W        W49419  23.648  15.816  23.571  0.1792 -0.1754  0.2439
 6429W        W49420  10.249  21.081  15.057 -0.1379  0.2777  0.1422
 6430W        W49421  33.789  33.000  14.621 -0.1392  0.0502 -0.1558
 6431W        W49422  16.032  19.636   3.269 -0.0626 -0.2029 -0.1783
 6432W        W49423  28.162  10.779  20.242  0.2244 -0.2544 -0.2178
 6433W        W49424  12.157  24.457  27.600 -0.2102  0.0302 -0.0492
 6434W        W49425  29.020  20.829  26.494  0.3943  0.2501  0.1325
 6435W        W49426  13.120   2.356   1.939 -0.0325  0.0201 -0.0674
 6436W        W49427  21.965  12.657  14.296 -0.1427  0.0665 -0.2301
 6437W        W49428   5.090  22.801   0.419 -0.1949  0.2174  0.0556
 6438W        W49429  27.068  18.897   1.296  0.0054 -0.0163 -0.2872
 6439W        W49430   0.649  14.036   6.344  0.0731  0.0002 -0.0270
 6440W        W49431  19.115  34.605   3.155  0.2018  0.0639  0.0666
 6441W        W49432  14.604  31.338  28.628 -0.3645 -0.0030 -0.1506
 6442W        W49433  29.722  19.589  23.617  0.2311  0.2016 -0.2531
 6443W        W49434   8.934  33.703   3.308 -0.3234  0.0764  0.0436
 6444W        W49435  27.610  17.425  21.255 -0.1231 -0.1106  0.0521
 6445W        W49436   3.265  34.197   4.168 -0.0835 -0.2820  0.2932
 6446W        W49437  17.846   7.816   0.418 -0.2264 -0.2203  0.0388
 6447W        W49438  15.955  33.544   7.015 -0.0320  0.0197 -0.0512
 6448W        W49439  29.363  10.746   9.227  0.1804 -0.2928 -0.0177
 6449W        W49440   4.396   9.601  25.841  0.2772 -0.1208  0.0365
 6450W        W49441  18.592  13.005   8.503 -0.3352  0.1681  0.2507
 6451W        W49442  20.460  21.995  15.475  0.0646  0.0798  0.0387
 6452W        W49443  23.456  16.981  22.275  0.0053 -0.2004 -0.1032
 6453W        W49444  23.653   6.292   4.112  0.0432  0.2452  0.4010
 6454W        W49445  18.251  21.472  28.557  0.1462 -0.1871  0.3169
 6455W        W49446   9.910   3.135  24.097  0.0468 -0.1413 -0.0220
 6456W        W49447  29.912  13.353  19.885  0.1702 -0.0966 -0.3116
 6457W        W49448  24.127  13.861  24.314 -0.0829 -0.1912 -0.3581
 6458W        W49449  29.764  17.226   4.538 -0.2101 -0.1272  0.2526
 6459W        W49450  20.252  27.554  21.826 -0.0957 -0.1048 -0.1022
 6460W        W49451   4.447  11.476   3.005 -0.1560 -0.3453  0.1572
 6461W        W49452  25.680  18.637   9.691 -0.3358 -0.0917 -0.0240
 6462W        W49453  22.893  11.724   6.363  0.1652 -0.0235  0.1434
 6463W        W49454  23.041  12.695  26.814 -0.0144 -0.2856 -0.2322
 6464W        W49455  24.239  15.431  15.764  0.3083  0.0574  0.0361
 6465W        W49456  30.401   1.715   1.035  0.1492  0.1244  0.3615
 6466W        W49457  27.275  31.872  25.287 -0.1960  0.0624 -0.2935
 6467W        W49458  22.386   0.674  27.959  0.0094 -0.2797  0.0634
 6468W        W49459  14.377  18.703  16.287  0.0221  0.2631 -0.1599
 6469W        W49460  23.086  10.947  14.751 -0.1439 -0.1381  0.4317
 6470W        W49461   6.480   6.262  18.951 -0.1791 -0.0797 -0.1925
 6471W        W49462  21.080   9.951  29.232 -0.0481 -0.1430  0.3236
 6472W        W49463  26.516   9.742   7.460 -0.1332 -0.3981  0.0156
 6473W        W49464  29.173  20.079  21.817 -0.1666 -0.1137  0.0686
 6474W        W49465  12.582   0.436  26.528  0.0658  0.2737  0.1522
 6475W        W49466  34.232  21.392   9.263 -0.0169  0.1952  0.2361
 6476W        W49467  15.540  20.926   8.324 -0.0479 -0.3760  0.0472
 6477W        W49468  29.074  34.432  25.800  0.1592  0.1136 -0.2439
 6478W        W49469  28.705  32.736  21.197 -0.0236 -0.0060 -0.1659
 6479W        W49470   9.936  24.581   9.945  0.2176  0.0428  0.0574
 6480W        W49471  25.804  29.108  28.754 -0.0243  0.2958  0.3399
 6481W        W49472   6.128  23.193   7.144 -0.0631  0.0011  0.0984
 6482W        W49473  12.318  18.975   8.369 -0.0495 -0.3255  0.4275
 6483W        W49474  11.324  20.345   2.975  0.2960  0.2534 -0.0728
 6484W        W49475  20.353   9.293  26.938 -0.4170 -0.0273 -0.1492
 6485W        W49476   4.814   7.635   8.872  0.3618  0.4001 -0.1350
 6486W        W49477  15.473  20.486  27.255 -0.1597  0.0821  0.4440
 6487W        W49478  14.120  11.644  23.919 -0.3519  0.0365 -0.1233
 6488W        W49479   4.448  12.180  26.672  0.1251 -0.1082  0.1019
 6489W        W49480  28.910   2.420  25.941 -0.1227 -0.2398 -0.0325
 6490W        W49481  33.174  17.298  15.887 -0.4030 -0.0058 -0.0125
 6491W        W49482  17.139  20.953  13.258  0.0779  0.0048  0.1400
 6492W        W49483  25.714   9.500  18.982 -0.1654  0.1242  0.0376
 6493W        W49484   5.846  21.714  14.900  0.0352 -0.0726 -0.2468
 6494W        W49485  29.467  15.364  23.170 -0.2921 -0.0198 -0.0436
 6495W        W49486   4.893  13.860  23.751 -0.0661  0.1976  0.0553
 6496W        W49487   7.617  17.424  24.366 -0.0078 -0.0103  0.1092
 6497W        W49488  21.828  12.111   2.376 -0.3292 -0.1628  0.2195
 6498W        W49489  26.697  26.698   4.264 -0.1757 -0.2333  0.2179
 6499W        W49490  25.725  11.539  23.361 -0.0893 -0.3591  0.0824
 6500W        W49491  24.147  11.774   3.838  0.2523  0.1538 -0.0109
 6501W        W49492  18.205  28.133  22.697 -0.2420 -0.0475  0.1752
 6502W        W49493   9.283  17.298   3.460 -0.0407 -0.3232 -0.0947
 6503W        W49494  12.147  23.767  16.725 -0.0690 -0.3071 -0.1307
 6504W        W49495  21.541  25.960   5.159 -0.3707  0.3594  0.0881
 6505W        W49496  19.950  13.710  26.690 -0.4219  0.0223  0.0873
 6506W        W49497  34.253  24.519  25.164 -0.2725 -0.0754 -0.2217
 6507W        W49498  25.275  29.213  23.737  0.2854 -0.1784 -0.0159
 6508W        W49499  27.301  14.406   1.801 -0.0873 -0.3014 -0.0762
 6509W        W49500   0.976  20.761  14.083 -0.3150 -0.0149  0.0855
 6510W        W49501  30.943  27.084   5.430 -0.0866 -0.1977  0.0175
 6511W        W49502  12.031  28.593   0.571 -0.0508 -0.0602  0.0188
 6512W        W49503  21.935  17.765   3.047  0.2705  0.2120  0.0695
 6513W        W49504  24.444  17.688   0.563 -0.0033  0.0096 -0.0690
 6514W        W49505  33.378   6.805   3.084 -0.0544  0.0294 -0.1458
 6515W        W49506  24.058  13.627   7.756  0.2763  0.1183 -0.1582
 6516W        W49507  20.141   5.104  20.830  0.2165  0.1512  0.1964
 6517W        W49508  16.887  13.481  24.823  0.3338  0.0429  0.1952
 6518W        W49509  14.877   9.187   9.848 -0.1973  0.2010  0.1121
 6519W        W49510  22.748   4.116  25.275 -0.0179  0.0478  0.2837
 6520W        W49511  17.637  14.920   4.412 -0.0869  0.3421 -0.1760
 6521W        W49512  30.450  34.480   5.364 -0.0803 -0.2217  0.1060
 6522W        W49513  30.438   9.205   8.427 -0.1982 -0.1127 -0.1281
 6523W        W49514  13.743  17.474   8.793 -0.0196 -0.0445  0.0841
 6524W        W49515  26.816   7.708   2.536 -0.1324  0.1976 -0.0826
 6525W        W49516  27.118  21.573   1.918 -0.1558 -0.2191  0.0070
 6526W        W49517  28.851  31.231  25.508  0.2821 -0.4979 -0.2199
 6527W        W49518   0.702  20.038  19.281  0.4589 -0.2309 -0.1726
 6528W        W49519  29.367  15.467  14.849 -0.1921  0.2108 -0.2134
 6529W        W49520  20.189  11.280   7.413  0.0303 -0.0654 -0.0842
 6530W        W49521  24.452  14.411  18.585  0.4573  0.2567  0.0462
 6531W        W49522  11.861  17.772   1.220  0.0014  0.0141 -0.0927
 6532W        W49523  29.987  16.226  19.960 -0.3192  0.1286  0.2092
 6533W        W49524   0.055   9.275  27.373 -0.2149  0.0548 -0.2520
 6534W        W49525  16.447  20.822  15.683  0.0270 -0.3479 -0.0766
 6535W        W49526  25.814  22.891   9.553 -0.2401  0.1240  0.0545
 6536W        W49527  22.702  16.537   4.495  0.2008  0.2329 -0.1928
 6537W        W49528  25.505  15.477   7.629 -0.0632 -0.0917 -0.0715
 6538W        W49529  25.762  16.439  20.738  0.5112 -0.1001 -0.1211
 6539W        W49530  14.955   6.611  16.696 -0.3012  0.1202  0.0986
 6540W        W49531  34.460  10.886  10.996  0.0231  0.0123  0.0718
 6541W        W49532  15.697  17.875   3.836  0.2453 -0.1246  0.1205
 6542W        W49533  26.759  18.005  10.389 -0.1135  0.0564  0.0726
 6543W        W49534  13.818  10.121  25.593  0.2977 -0.0054 -0.3093
 6544W        W49535  28.802  34.741   2.991  0.2070 -0.1879  0.1431
 6545W        W49536  22.264  10.659  15.734 -0.2113  0.0319  0.0280
 6546W        W49537  33.238   9.453   5.305 -0.0517 -0.2869  0.1501
 6547W        W49538  22.118  20.184  25.800  0.1001  0.0665  0.0060
 6548W        W49539  32.726  26.155  28.650  0.2576  0.1324 -0.0883
 6549W        W49540  26.033  17.994   7.324  0.0560  0.0473  0.1116
 6550W        W49541  26.086  11.420   4.325 -0.0259  0.1599  0.0121
 6551W        W49542  27.537  22.935  25.834  0.1834 -0.0970 -0.0864
 6552W        W49543  23.370  13.342   4.531 -0.0842 -0.0076  0.1889
 6553W        W49544   2.389  15.868   7.278  0.0085 -0.1967  0.3158
 6554W        W49545  25.563  22.283   8.322  0.1781  0.2071 -0.1189
 6555W        W49546  14.220   0.904  26.655  0.3412 -0.2317  0.2243
 6556W        W49547  17.260  25.663  22.297  0.1328  0.1281 -0.2002
 6557W        W49548   9.694  21.829   1.286  0.0843  0.1178  0.2711
 6558W        W49549  23.009  12.321  13.607  0.0176 -0.0100 -0.2893
 6559W        W49550   8.426  30.991  24.899 -0.0002 -0.0534  0.0697
 6560W        W49551  19.503  17.507   2.045 -0.2928  0.0691 -0.2603
 6561W        W49552  19.114  24.064   1.870 -0.1360  0.0771 -0.1283
 6562W        W49553  23.105   8.473   2.073  0.1148 -0.0767 -0.1088
 6563W        W49554  14.635   4.293   6.752  0.0031  0.0730  0.1075
 6564W        W49555   0.860  12.784   5.119  0.1402 -0.0515 -0.1532
 6565W        W49556  28.716  19.600  19.451 -0.1781  0.0386  0.1701
 6566W        W49557  26.431  16.774   6.623 -0.1540  0.1406  0.2612
 6567W        W49558   3.916  34.471   5.244  0.3842 -0.0528  0.0696
 6568W        W49559   8.421   3.966   0.002 -0.1697 -0.2469 -0.2799
 6569W        W49560  24.921   4.110  17.862 -0.0888  0.0757 -0.1453
 6570W        W49561  30.556  14.252   6.915  0.1097  0.0734  0.1391
 6571W        W49562  17.469  21.558  21.633 -0.1892  0.0350  0.0097
 6572W        W49563  19.664  17.023  25.376  0.0839  0.1618  0.3511
 6573W        W49564  20.370   3.365  26.530 -0.2264  0.2681  0.1643
 6574W        W49565  19.462   7.304   8.298  0.0251 -0.1230 -0.1397
 6575W        W49566   5.772  10.253  26.112  0.1225 -0.1786  0.0620
 6576W        W49567  27.689  33.816   5.055  0.1813 -0.0667  0.1186
 6577W        W49568  10.100  12.948   0.795  0.0468 -0.1441 -0.4230
 6578W        W49569   8.251  11.094   0.371  0.0517  0.2057 -0.2707
 6579W        W49570  16.391  19.684  22.497  0.2026  0.2994  0.2252
 6580W        W49571  15.778   6.357   6.820  0.3836 -0.1807  0.3183
 6581W        W49572  22.571  28.593   4.981  0.1581 -0.3104  0.2173
 6582W        W49573  33.354  19.119  17.209 -0.0624 -0.0514  0.3164
 6583W        W49574  20.776  10.176   8.937 -0.0125  0.0387  0.3551
 6584W        W49575  29.973  34.220   5.376  0.2726  0.2626  0.3052
 6585W        W49576  13.132   6.410   1.044  0.1995  0.2929  0.1156
 6586W        W49577  10.475  18.257   5.018 -0.2989 -0.0468 -0.2243
 6587W        W49578   1.135  31.974   9.964 -0.0721  0.0188 -0.3201
 6588W        W49579  17.312  12.170  27.781  0.0273 -0.0761  0.3698
 6589W        W49580   3.659   9.510   0.403 -0.0676 -0.0560 -0.1825
 6590W        W49581  18.827   8.703  20.996 -0.1814  0.0256  0.0591
 6591W        W49582  19.662   6.551   0.185  0.0120  0.1865 -0.2286
 6592W        W49583  22.113  22.824   2.389  0.4621 -0.1566  0.3278
 6593W        W49584  13.812   8.454  18.300  0.0156  0.0148  0.0155
 6594W        W49585  27.718  16.452  22.989 -0.1354 -0.0727  0.1257
 6595W        W49586  28.101  17.553  14.111 -0.1493  0.0713 -0.2732
 6596W        W49587  24.385  30.075   9.730 -0.0966 -0.2060 -0.0297
 6597W        W49588  33.420  13.538   3.482  0.1705 -0.0124  0.0478
 6598W        W49589  19.271   7.059   5.955 -0.1964 -0.0165  0.4681
 6599W        W49590  25.271  13.309  21.553  0.1206  0.2621  0.0709
 6600W        W49591  32.908  10.451   6.064  0.2555 -0.3192  0.2564
 6601W        W49592  19.313  21.389  23.289 -0.0372  0.0925  0.4038
 6602W        W49593   4.793   0.114  28.254 -0.1757  0.2563 -0.2792
 6603W        W49594  14.539  16.524   7.782 -0.1332 -0.0428  0.3358
 6604W        W49595  25.872  10.928   7.368 -0.0542 -0.2501  0.1701
 6605W        W49596   5.827  11.272  16.044 -0.1827 -0.1829 -0.1077
 6606W        W49597  23.991  18.967   9.248 -0.3716 -0.1595  0.0794
 6607W        W49598   0.284  14.044  18.857 -0.0220  0.0939 -0.2069
 6608W        W49599  12.311  15.579   8.408 -0.0671  0.0016 -0.3337
 6609W        W49600  22.580  18.497  18.901  0.2400 -0.1008 -0.1862
 6610W        W49601  14.706  24.488  21.109 -0.1152 -0.2797  0.0724
 6611W        W49602  25.529  29.502   5.668  0.2254  0.0294 -0.0159
 6612W        W49603  23.792   9.204  15.006 -0.2889 -0.0071 -0.2630
 6613W        W49604  17.137  12.421   3.663  0.1558 -0.0605 -0.2494
 6614W        W49605  20.775  31.903   1.339  0.0973  0.0156 -0.0688
 6615W        W49606   7.430   7.865  18.750 -0.1256  0.0373 -0.1015
 6616W        W49607   5.886   7.034   5.067  0.2824  0.2884  0.4165
 6617W        W49608   4.385  16.368   6.707 -0.1265  0.1307  0.3724
 6618W        W49609  24.259  34.697   8.396 -0.4256  0.2613 -0.4041
 6619W        W49610  14.764  30.590   2.360 -0.3735  0.1300 -0.0748
 6620W        W49611   1.887  29.927   8.038  0.0319 -0.1788 -0.1281
 6621W        W49612  26.854   3.205   5.082 -0.2174 -0.2085  0.2410
 6622W        W49613  32.899  26.200  22.361  0.1500  0.3256 -0.2690
 6623W        W49614  30.009  23.201   9.555 -0.1200  0.0675 -0.3241
 6624W        W49615  28.444   9.292  24.009  0.1383  0.1007  0.3605
 6625W        W49616   2.257  23.358   6.294 -0.1793  0.1070 -0.5166
 6626W        W49617  21.689  26.423  17.167  0.0697  0.0617  0.0273
 6627W        W49618  29.494  16.558  19.742  0.2662  0.2043  0.0578
 6628W        W49619  18.856   8.123   4.913  0.2216 -0.0954  0.0781
 6629W        W49620  16.137  20.548  23.178  0.0531  0.1390 -0.2141
 6630W        W49621  16.480  18.640   3.104 -0.2618 -0.2138  0.1410
 6631W        W49622   4.806  15.732  28.306 -0.1934 -0.1840  0.2555
 6632W        W49623   1.951   6.503  22.382 -0.0427  0.0314 -0.2189
 6633W        W49624  20.304  34.242   8.571  0.0884  0.2989  0.0284
 6634W        W49625  27.616   9.083  21.420 -0.0813 -0.0598 -0.4851
 6635W        W49626  15.976  13.482  15.757 -0.1958 -0.2593  0.1132
 6636W        W49627  23.448  23.287  13.877  0.2494 -0.1935 -0.1328
 6637W        W49628  18.257   7.879   1.970  0.2377 -0.1140 -0.1967
 6638W        W49629  24.400  32.483  20.408  0.0013  0.2857 -0.1060
 6639W        W49630  24.227  10.388   3.590 -0.2595 -0.2628  0.0622
 6640W        W49631  19.208   8.157   8.437 -0.2549 -0.4811 -0.2237
 6641W        W49632   3.363  26.645  28.241  0.1092 -0.0144  0.0295
 6642W        W49633  20.332  14.151   3.909 -0.2066  0.5241  0.3349
 6643W        W49634   0.430  16.013   3.072 -0.0952 -0.2313 -0.3395
 6644W        W49635  17.264   3.871  29.007 -0.0464  0.3315  0.1747
 6645W        W49636  27.440  11.340   0.455  0.0263 -0.1625 -0.0525
 6646W        W49637  27.632  22.409   6.382 -0.0741  0.0827  0.3282
 6647W        W49638  20.150  13.962  23.901  0.0969  0.1359 -0.1224
 6648W        W49639  23.572   2.485  22.425 -0.2552 -0.0566  0.0181
 6649W        W49640  18.134   9.193   6.157  0.1310 -0.1047  0.0371
 6650W        W49641  24.780  13.829  27.715 -0.2205  0.2832  0.4848
 6651W        W49642  16.957  10.824  25.356  0.0384  0.0627  0.3401
 6652W        W49643  22.292   9.894   4.285  0.5951  0.1253  0.2217
 6653W        W49644   1.787   1.719  22.905 -0.0179 -0.0423  0.0467
 6654W        W49645  25.886   8.249   5.525  0.2480  0.0271  0.1876
 6655W        W49646  22.801  14.438  20.345  0.2287  0.0189 -0.2344
 6656W        W49647  24.701   5.995  16.813  0.1258  0.0709 -0.4528
 6657W        W49648  27.848   4.934   0.270 -0.0695 -0.4030 -0.0743
 6658W        W49649  34.017   8.295   8.610  0.1660  0.3577  0.0064
 6659W        W49650  16.579  13.366  19.956 -0.1576  0.1024  0.1215
 6660W        W49651  14.229  17.029  28.138  0.4550 -0.1518 -0.2362
 6661W        W49652  16.172  21.392   0.962  0.1042  0.0206  0.0957
 6662W        W49653   5.598  14.118  24.465 -0.0785  0.2218 -0.0079
 6663W        W49654  23.493  10.634  16.475  0.0292 -0.0902  0.1036
 6664W        W49655  26.779  18.189  14.677  0.0537 -0.1017  0.0677
 6665W        W49656  14.762  32.107   5.011  0.3236  0.1396  0.0134
 6666W        W49657  20.616   5.625  23.176 -0.1296  0.2509  0.2706
 6667W        W49658  25.873  30.064  26.143  0.2798  0.0648 -0.2782
 6668W        W49659  10.886  21.784  15.527  0.0291 -0.0402 -0.2150
 6669W        W49660  33.696  24.132   6.641 -0.0376  0.2904 -0.1166
 6670W        W49661   5.100   8.650   7.856 -0.1219  0.1314 -0.0305
 6671W        W49662   5.338  11.099  10.641  0.2834  0.5557 -0.4182
 6672W        W49663  28.846  11.383  20.937 -0.1931 -0.0918  0.0923
 6673W        W49664   7.113  18.207  20.024  0.3182 -0.0713 -0.0318
 6674W        W49665   6.700  23.391  24.701 -0.2228 -0.0737 -0.0285
 6675W        W49666  18.514  19.452  24.788 -0.0159  0.1305  0.0803
 6676W        W49667  20.890  33.044   6.770  0.0154  0.0601  0.1095
 6677W        W49668  12.339   1.644   4.451  0.0551  0.1151 -0.4006
 6678W        W49669  23.401   6.589   3.354  0.0868 -0.0936 -0.3620
 6679W        W49670  33.078   5.445   1.471  0.0532  0.1503 -0.3086
 6680W        W49671  16.124  15.909   7.425  0.0427  0.1190  0.2568
 6681W        W49672  15.340  26.350  27.128  0.0181 -0.0694 -0.0679
 6682W        W49673  31.395  26.482  19.602  0.0400  0.1241 -0.0759
 6683W        W49674  23.349  24.547  23.736 -0.2046 -0.3207 -0.1132
 6684W        W49675   3.035   7.008   7.427  0.2362  0.1307  0.5636
 6685W        W49676  23.969  13.155   8.030 -0.0069  0.0945  0.2685
 6686W        W49677  11.350  22.864  27.045  0.0521 -0.2982 -0.3878
 6687W        W49678  31.852  13.974   4.061 -0.4388 -0.2149  0.0353
 6688W        W49679  26.936  12.075  26.754  0.2542  0.1273  0.1309
 6689W        W49680   6.197   5.108  28.197  0.2691 -0.0339 -0.2306
 6690W        W49681  11.591   6.739  15.696  0.0178  0.1945  0.0349
 6691W        W49682  22.325  14.742  22.318 -0.0950 -0.2061 -0.0827
 6692W        W49683  17.490  10.933  21.234 -0.0910 -0.3178 -0.0818
 6693W        W49684  18.626   1.445   5.075  0.0567 -0.1797 -0.1959
 6694W        W49685  27.326  26.323   7.243 -0.1236 -0.2900 -0.0531
 6695W        W49686   4.007  14.856   7.760  0.3434  0.0015 -0.2575
 6696W        W49687  28.906  12.708  14.719 -0.0709 -0.2030  0.1887
 6697W        W49688  20.106  27.018   7.162  0.2437  0.1683  0.2754
 6698W        W49689  25.855   1.157  27.306 -0.3359 -0.2627  0.0720
 6699W        W49690  26.339  32.581   3.668  0.2050 -0.0454 -0.0359
 6700W        W49691  24.890  31.240  24.517  0.3366 -0.1697  0.1795
 6701W        W49692  23.198   9.116  15.649 -0.2047  0.0782 -0.2689
 6702W        W49693  17.518  16.676   0.145 -0.0479 -0.1754 -0.1641
 6703W        W49694  22.684   5.209   3.905 -0.2835 -0.0819 -0.2249
 6704W        W49695  12.164  26.677  28.164 -0.0621  0.1090 -0.2968
 6705W        W49696  26.056  10.227   2.842  0.0040 -0.1863 -0.2220
 6706W        W49697  32.667  18.094  14.248  0.3384  0.2335 -0.0408
 6707W        W49698  29.940  13.298   4.354 -0.0324  0.0038 -0.0681
 6708W        W49699  20.209   9.033   9.516  0.1122  0.0449 -0.0909
 6709W        W49700  24.787  22.312  24.133 -0.0548  0.2177 -0.1387
 6710W        W49701  31.969  21.934  21.387 -0.3038 -0.1864  0.1692
 6711W        W49702  24.251  28.895   5.384  0.2315 -0.0886  0.1485
 6712W        W49703  34.655  15.549  25.348  0.0499 -0.0804  0.0542
 6713W        W49704  15.226   5.637   5.793 -0.1828 -0.1438 -0.1477
 6714W        W49705   5.567  15.224   3.028  0.0271 -0.0717  0.0519
 6715W        W49706  31.881  25.459   8.013  0.1076 -0.3590 -0.1794
 6716W        W49707   5.811  23.159  19.151 -0.0007 -0.0985  0.2177
 6717W        W49708  28.210  31.564   4.013 -0.0167  0.1706 -0.0799
 6718W        W49709  20.711  20.186  20.830 -0.0104 -0.2703 -0.4154
 6719W        W49710  18.724  16.663  25.525  0.0703 -0.2039  0.0279
 6720W        W49711  17.948  17.629  23.555 -0.3223  0.1361  0.2045
 6721W        W49712  21.665  15.478  27.722 -0.0043  0.1408  0.2918
 6722W        W49713  29.815  16.516  28.768 -0.0608 -0.0918  0.0734
 6723W        W49714  24.021  24.313   8.132  0.1803  0.2968 -0.1389
 6724W        W49715  24.867  18.686  21.046  0.1717  0.0618 -0.0079
 6725W        W49716  32.333  27.093  28.649 -0.3690  0.0974  0.0304
 6726W        W49717  14.549   9.525   8.900  0.0195 -0.0692  0.1681
 6727W        W49718   7.020  10.654  29.158 -0.1337  0.1684 -0.1982
 6728W        W49719  29.448  26.183  18.287 -0.2120 -0.0893 -0.2657
 6729W        W49720  23.183   9.054  28.817 -0.1455  0.0059 -0.2871
 6730W        W49721   0.488  14.879  18.120 -0.1794  0.0939 -0.1521
 6731W        W49722  20.951  32.119  19.358 -0.2688  0.0418 -0.0666
 6732W        W49723  17.463  21.051  28.200  0.3857 -0.0395  0.1696
 6733W        W49724  14.438  21.250   8.770 -0.2638  0.0780 -0.1597
 6734W        W49725  13.712  16.008   6.124 -0.2721 -0.0467  0.2072
 6735W        W49726  27.428  16.923   4.783  0.0304 -0.1114  0.1287
 6736W        W49727  18.451  26.196   8.826  0.1186 -0.2312  0.0964
 6737W        W49728  28.467  24.393  22.590  0.2094  0.0186 -0.0762
 6738W        W49729  16.398  13.194  26.249  0.1659 -0.0109  0.0198
 6739W        W49730  31.997  26.482  17.382  0.0270 -0.2118  0.0884
 6740W        W49731  14.653  23.033  22.450  0.1439 -0.0329 -0.0369
 6741W        W49732  12.070   7.755   9.165 -0.0254  0.1671  0.0014
 6742W        W49733  27.698  18.200  28.737  0.3463  0.0993  0.0501
 6743W        W49734  30.893  13.421  23.947  0.1897  0.1624  0.1929
 6744W        W49735  30.160  26.415   5.313 -0.1755  0.2039 -0.1671
 6745W        W49736  20.152   0.789  15.209 -0.1280  0.1088  0.1449
 6746W        W49737  13.307  20.769  28.034  0.0030  0.2329  0.0989
 6747W        W49738  16.779   9.145   9.821 -0.4599  0.0303 -0.4076
 6748W        W49739   5.860  15.292  18.232 -0.0308 -0.1049 -0.3298
 6749W        W49740  33.361  34.288  19.638  0.4650 -0.1686  0.1985
 6750W        W49741  22.808  34.079   0.188 -0.1212  0.2042  0.1293
 6751W        W49742  21.400   4.564  16.922  0.0548  0.1755  0.1208
 6752W        W49743  33.305  23.317  24.135 -0.2361 -0.0890  0.0998
 6753W        W49744  24.036  27.340  20.292 -0.1182 -0.0079  0.0905
 6754W        W49745  28.696  18.655  17.691  0.0376 -0.1640  0.0091
 6755W        W49746  22.588  15.588  19.097 -0.1676  0.2582  0.0507
 6756W        W49747  23.227  18.975  12.890  0.4226 -0.1367 -0.0717
 6757W        W49748  27.469  29.830  17.934  0.4497  0.0772 -0.0954
 6758W        W49749  33.537  32.554  28.121  0.1357 -0.3437  0.2177
 6759W        W49750  21.069  33.301  21.404  0.0055 -0.0456  0.4014
 6760W        W49751   3.183   5.951  22.368  0.1004  0.1041 -0.1017
 6761W        W49752  21.787  19.049  12.746 -0.4055  0.1512  0.0574
 6762W        W49753  31.746  29.120  24.411  0.3346  0.2352 -0.0516
 6763W        W49754  21.150  29.926  14.841 -0.0935  0.4247  0.0127
 6764W        W49755  10.245  17.917  16.663  0.2779 -0.0919 -0.1834
 6765W        W49756  29.426  18.746  16.798  0.1954 -0.0630  0.0066
 6766W        W49757  17.916  27.973  24.252  0.0579 -0.0976  0.1078
 6767W        W49758  21.016  24.249   0.636  0.0837 -0.0700  0.2811
 6768W        W49759  14.240  29.459  19.088  0.0512 -0.1279 -0.0633
 6769W        W49760  15.880  22.028  13.569 -0.0503  0.2758  0.1446
 6770W        W49761  33.000  14.828  17.197  0.3765  0.1083  0.0557
 6771W        W49762  11.639  11.764  20.211 -0.2485 -0.1313  0.2781
 6772W        W49763  25.353   9.220  28.366 -0.4255  0.1505  0.0867
 6773W        W49764   4.521  22.405  20.060  0.0578  0.1395  0.1464
 6774W        W49765  15.727   5.149  25.461 -0.1130  0.0611 -0.1702
 6775W        W49766  19.925  25.155  18.105 -0.2183 -0.1597  0.1125
 6776W        W49767  28.358   7.631  16.540  0.2918  0.1888  0.1144
 6777W        W49768  26.680   1.358  24.277 -0.0468  0.1781 -0.3735
 6778W        W49769  18.810  22.022  18.348 -0.2595  0.2707  0.0956
 6779W        W49770  20.974  29.552  17.691  0.0463 -0.1947  0.0601
 6780W        W49771   9.297  18.748  27.630 -0.3171  0.0683 -0.0098
 6781W        W49772  20.841  28.048  14.894 -0.1337 -0.1921 -0.2747
 6782W        W49773  30.073  25.900  20.767 -0.2513  0.0419  0.0837
 6783W        W49774   9.347  11.791  24.023 -0.1576  0.1014  0.0635
 6784W        W49775  23.973   9.283  28.604 -0.1277  0.2335  0.0077
 6785W        W49776   6.738   5.144  22.153 -0.1030 -0.0824 -0.0850
 6786W        W49777   0.134  10.604  24.212  0.0692  0.3454  0.1420
 6787W        W49778  27.224  13.627  22.216 -0.0927 -0.2343  0.4686
 6788W        W49779  24.795  32.739  20.728  0.1392 -0.1396  0.4573
 6789W        W49780  19.396  30.618  19.042  0.0064 -0.1988 -0.1420
 6790W        W49781   6.234  19.654  17.366  0.0163 -0.0941  0.2972
 6791W        W49782  18.350  20.535  12.983  0.1985  0.0820 -0.1625
 6792W        W49783  27.575  30.585  16.134 -0.0422 -0.0920 -0.0545
 6793W        W49784  21.550  11.643  18.006  0.1760  0.0049  0.2440
 6794W        W49785  15.696  30.746  23.661  0.2191 -0.4186 -0.2024
 6795W        W49786  24.825  20.575  25.246  0.2493  0.1087 -0.2405
 6796W        W49787   7.414  14.487  26.173 -0.0827 -0.0697  0.2334
 6797W        W49788   2.308  29.666  23.375  0.2565  0.2559 -0.1836
 6798W        W49789   3.455  31.442   4.040 -0.2912 -0.0927 -0.1780
 6799W        W49790  10.859  25.262  25.624 -0.1187  0.0326  0.0904
 6800W        W49791  19.311  18.254  28.305  0.1452  0.0172  0.2902
 6801W        W49792  29.435  21.671  29.126 -0.0272  0.0181 -0.1065
 6802W        W49793  34.339  24.616  27.786 -0.1274 -0.5117 -0.1273
 6803W        W49794  26.206  20.765  28.031 -0.1840  0.1521 -0.0153
 6804W        W49795  23.168   7.160  16.450  0.1461  0.1570 -0.1799
 6805W        W49796  29.075  19.709  16.681  0.2095  0.5565  0.1105
 6806W        W49797  27.467  27.937  20.044  0.1907  0.1859  0.1599
 6807W        W49798   1.147  30.210  21.872  0.1507 -0.4938  0.0312
 6808W        W49799  22.780   8.483  21.657  0.0633 -0.0038  0.1174
 6809W        W49800  24.521  18.154  25.710 -0.2999  0.0166 -0.0139
 6810W        W49801  26.111  22.238  14.640 -0.2316 -0.0053  0.2968
 6811W        W49802   3.571  25.370   0.594  0.1516 -0.3061 -0.2538
 6812W        W49803  20.655   7.405  14.437  0.1771  0.0789 -0.3663
 6813W        W49804  22.663  32.734  19.557 -0.1199  0.1568  0.2698
 6814W        W49805   6.307  33.035  16.731 -0.0364 -0.1101 -0.2092
 6815W        W49806  16.914  18.998  15.433 -0.0245  0.2763 -0.0330
 6816W        W49807   7.290   0.889  15.310 -0.0010 -0.0621 -0.0210
 6817W        W49808  29.241  29.743  18.790  0.3445 -0.0089  0.1073
 6818W        W49809  15.264  15.137  12.920  0.0447 -0.0387 -0.2454
 6819W        W49810  19.576   9.762  19.666 -0.0328  0.0276  0.0999
 6820W        W49811  23.188  24.739  27.096 -0.0093  0.0602 -0.2900
 6821W        W49812  27.545  26.583  13.201 -0.0305  0.2333 -0.0559
 6822W        W49813   4.066   9.992  17.376  0.0457  0.1222  0.0754
 6823W        W49814  32.213  25.822  19.583 -0.2979 -0.1082 -0.0532
 6824W        W49815  33.335  14.583  17.563 -0.1169  0.0748  0.0319
 6825W        W49816  10.899  29.244   7.244 -0.1267  0.2493  0.1050
 6826W        W49817  33.346  24.688  19.296 -0.1050 -0.1144  0.2503
 6827W        W49818  24.129  16.514  18.694 -0.0491 -0.3957  0.1327
 6828W        W49819  23.716   0.420  23.686  0.0906  0.1887  0.1618
 6829W        W49820  14.719  22.781  18.405 -0.0512  0.0719  0.3521
 6830W        W49821  11.050  23.081  16.224  0.1658 -0.1777 -0.1033
 6831W        W49822  22.682  29.689  17.099  0.0757 -0.0523  0.0667
 6832W        W49823  17.253  29.793  23.148 -0.2110  0.2010 -0.1856
 6833W        W49824  26.179  25.842  27.464 -0.0353  0.0257 -0.1273
 6834W        W49825   6.634  30.214  28.234  0.0675  0.0586  0.2016
 6835W        W49826  22.988  13.996  18.326 -0.2660  0.1329 -0.1425
 6836W        W49827  13.077  23.898  15.900 -0.2243  0.1177 -0.0751
 6837W        W49828   9.219  21.038  17.740 -0.2004  0.1009  0.0401
 6838W        W49829  15.777  31.451  15.430  0.0899 -0.2582  0.0499
 6839W        W49830  34.795  32.994  25.715 -0.1634  0.1407 -0.1085
 6840W        W49831   8.922  21.255  18.105  0.1708 -0.0679  0.1484
 6841W        W49832  30.186  12.503  18.938 -0.2313  0.3287 -0.1745
 6842W        W49833   3.324  23.184  22.125  0.0810 -0.1257  0.2489
 6843W        W49834  20.608   4.393  23.647 -0.0230  0.0005  0.0458
 6844W        W49835  26.001   8.560  24.860  0.1953 -0.0328 -0.0094
 6845W        W49836  19.448  18.918  13.150  0.1965  0.0332  0.2270
 6846W        W49837  27.468  13.358  21.879 -0.0438  0.2470 -0.2303
 6847W        W49838  26.375  28.375   8.319 -0.0640  0.0942 -0.1106
 6848W        W49839   1.031  19.684   1.991  0.0617  0.3862  0.1040
 6849W        W49840  31.146   8.053   3.303 -0.0384  0.1940 -0.3718
 6850W        W49841  30.771  27.819  19.547  0.1824  0.0331  0.1448
 6851W        W49842  31.136  29.365  27.904 -0.1315  0.0477 -0.0986
 6852W        W49843  12.094  23.399  15.832 -0.1847 -0.0754  0.0150
 6853W        W49844  13.723  12.746  22.597 -0.3137 -0.1761 -0.1918
 6854W        W49845  15.155  16.895  12.917  0.0704 -0.1994 -0.0665
 6855W        W49846   3.605  28.142  21.159  0.0386  0.0382 -0.0321
 6856W        W49847  20.981  12.150  15.105  0.1666 -0.2414  0.2424
 6857W        W49848   1.860  17.536  16.540  0.0909 -0.3206  0.1890
 6858W        W49849  34.680  19.592   5.278  0.1339 -0.1688  0.1116
 6859W        W49850   5.656   0.096  20.599 -0.3458 -0.0250 -0.0917
 6860W        W49851  20.772  24.702  23.660 -0.0818  0.1306  0.1746
 6861W        W49852  23.156  23.169   4.415 -0.2915 -0.0838 -0.1137
 6862W        W49853  34.489  32.144  22.420  0.0496 -0.1368  0.0495
 6863W        W49854  18.620  34.390  16.100 -0.3076  0.0984  0.3115
 6864W        W49855  34.499  21.264  15.156 -0.1190  0.2626  0.3530
 6865W        W49856  16.623  25.653  22.153  0.1424 -0.1271 -0.1247
 6866W        W49857  28.857  29.129  20.111 -0.0405 -0.0313 -0.1935
 6867W        W49858  15.305   3.892  27.800 -0.0450  0.0290 -0.1245
 6868W        W49859   7.473  33.318  18.367 -0.0856  0.2442 -0.2704
 6869W        W49860  19.773  19.729  17.185 -0.3833 -0.1236 -0.1505
 6870W        W49861   9.975  27.293  16.817  0.4443 -0.0635 -0.1466
 6871W        W49862  32.126  13.031  15.235  0.0042  0.0384 -0.1832
 6872W        W49863   8.458  19.907   9.004 -0.1458  0.1083 -0.0551
 6873W        W49864  22.507  16.847  14.454 -0.2050  0.1031 -0.1733
 6874W        W49865  23.495  28.558  13.959  0.0306 -0.1974  0.3175
 6875W        W49866  20.396  13.287  18.137 -0.0223  0.0657 -0.0578
 6876W        W49867  17.107   6.526  15.933 -0.3122 -0.1508  0.1440
 6877W        W49868  16.641  26.962  28.327 -0.2731  0.0427  0.1266
 6878W        W49869  29.166  19.969  16.165  0.2889 -0.3961  0.3282
 6879W        W49870   8.720  24.638  18.175  0.3692 -0.3556 -0.0570
 6880W        W49871  26.050  25.592  18.610  0.0199  0.0204  0.1024
 6881W        W49872   0.022  16.266  16.971  0.3804  0.1158  0.2070
 6882W        W49873  32.014  16.954  25.295  0.4696 -0.1649  0.0433
 6883W        W49874  27.369  29.584   4.512 -0.0502  0.4632 -0.2567
 6884W        W49875  29.846  15.465  15.160 -0.3433  0.1088  0.1656
 6885W        W49876  16.320  17.336  15.070 -0.0938  0.0632  0.0701
 6886W        W49877  20.388  16.957  15.786 -0.0531 -0.2011  0.2313
 6887W        W49878  17.788  17.291  12.501  0.0306  0.0897  0.0734
 6888W        W49879  28.938  14.738  23.833  0.1721  0.2362  0.2127
 6889W        W49880  15.621   0.500  27.013  0.0789  0.1441 -0.1505
 6890W        W49881   4.548  22.242  21.931  0.3497 -0.1095 -0.0218
 6891W        W49882  19.281  18.270  13.646  0.2383  0.1815  0.0261
 6892W        W49883  18.705  24.308  14.246  0.1450  0.0599 -0.2722
 6893W        W49884  29.338  11.819  24.185  0.0079  0.2276  0.0409
 6894W        W49885  23.400  28.848  14.494  0.0394  0.1867 -0.1012
 6895W        W49886  31.369  10.423  20.056  0.2704  0.0888  0.3650
 6896W        W49887  10.040  29.269   0.051  0.3402 -0.1498  0.2446
 6897W        W49888  10.775  33.508  26.382 -0.2551 -0.1453  0.2503
 6898W        W49889  30.441  10.825  17.186 -0.2068 -0.0065  0.0528
 6899W        W49890  28.134  21.792  23.113 -0.1969 -0.1084 -0.0360
 6900W        W49891  23.298  10.400  16.027 -0.0991  0.2103 -0.0529
 6901W        W49892  20.145  12.159  23.430  0.3925 -0.2673  0.1079
 6902W        W49893  29.299  33.499  18.726  0.0388 -0.1172 -0.1831
 6903W        W49894  32.752  29.712   5.733  0.2516  0.1562  0.0084
 6904W        W49895  13.145  15.190  15.817 -0.3136 -0.0464  0.2467
 6905W        W49896  10.600  18.448  14.409 -0.0452  0.0971  0.1288
 6906W        W49897  19.623  17.845   0.800 -0.2135  0.1157 -0.0910
 6907W        W49898  20.418  21.318  21.804  0.1138  0.0251 -0.0736
 6908W        W49899  18.986  23.048  23.361 -0.5005  0.0074 -0.0120
 6909W        W49900  29.842  27.157   0.477  0.0975  0.3529 -0.1689
 6910W        W49901  25.898  10.918  25.372 -0.1035 -0.2849 -0.0569
 6911W        W49902   0.998  24.283  20.159  0.2058 -0.0396  0.1205
 6912W        W49903  22.598   9.597  14.241  0.0421  0.1715 -0.0230
 6913W        W49904  31.790   4.636  20.597 -0.0103  0.1022  0.1570
 6914W        W49905   2.377  19.183  27.626  0.1017  0.0670  0.1790
 6915W        W49906  29.134  14.037  17.155 -0.0042  0.1256  0.0521
 6916W        W49907  24.746  14.869  20.176 -0.1386 -0.1378  0.1825
 6917W        W49908  31.798  15.389  17.153  0.1004 -0.2599  0.1221
 6918W        W49909  17.801  12.934  26.379  0.0040  0.5265  0.0181
 6919W        W49910   6.377  29.934  21.959 -0.2420  0.0823  0.2337
 6920W        W49911   4.085  10.703  28.264 -0.0547  0.1374 -0.1371
 6921W        W49912  16.938   1.388   3.834  0.0137 -0.2757 -0.0460
 6922W        W49913  30.845  22.085  13.739 -0.3088  0.1494  0.2153
 6923W        W49914  18.158  27.340  16.981  0.4772  0.2768 -0.0063
 6924W        W49915  20.047  32.949  13.871  0.3270  0.1849 -0.3253
 6925W        W49916  17.190  20.599   5.393 -0.0277  0.1691 -0.1873
 6926W        W49917  30.133  25.126  26.902 -0.0731  0.0004  0.1117
 6927W        W49918   9.483  15.348  20.453  0.0382 -0.1278 -0.4210
 6928W        W49919  18.053  30.568  29.056 -0.0102 -0.1148  0.0599
 6929W        W49920  23.780   3.652  26.917  0.1552 -0.3048 -0.1641
 6930W        W49921  22.398  12.690  21.757  0.1120 -0.1836 -0.1761
 6931W        W49922   2.179  17.366  21.811 -0.2859  0.1935  0.3599
 6932W        W49923  30.699  24.312  25.338 -0.1160  0.0726 -0.2698
 6933W        W49924  25.033  21.985  17.107 -0.0613 -0.1921  0.1376
 6934W        W49925   7.606  32.337  14.102 -0.0251 -0.2080 -0.0922
 6935W        W49926  13.028  25.930  19.462  0.1603 -0.0121 -0.0026
 6936W        W49927  18.388  28.438  19.299 -0.0783  0.3094  0.6298
 6937W        W49928  15.678   3.005   1.351  0.1819 -0.0843  0.3313
 6938W        W49929  28.483  14.459  25.121 -0.1401 -0.1250  0.1122
 6939W        W49930  20.120  31.781   0.752  0.1510 -0.0118 -0.1707
 6940W        W49931  23.307  26.019   0.082 -0.0142 -0.1207  0.2720
 6941W        W49932  13.448  25.861  25.071 -0.2076 -0.2389  0.1515
 6942W        W49933  28.904  20.286  17.987  0.1972  0.0033  0.1789
 6943W        W49934  27.736  30.196  20.313 -0.0293  0.2507 -0.3282
 6944W        W49935  22.629  22.617  13.073 -0.1869  0.0560 -0.1999
 6945W        W49936  18.676  18.566  27.393 -0.0558  0.1410  0.0212
 6946W        W49937  27.522  17.043  22.194  0.0584  0.1837  0.0997
 6947W        W49938  27.603  14.213  22.688 -0.1567 -0.0393  0.2804
 6948W        W49939   9.928  22.062  28.222 -0.0784  0.2076  0.0059
 6949W        W49940  16.455   4.945  17.268 -0.1751 -0.0352  0.0179
 6950W        W49941  20.777  22.293  14.577  0.1581 -0.3605 -0.1382
 6951W        W49942  25.235   0.237  17.148  0.1584  0.0521  0.1614
 6952W        W49943  22.207  13.030  15.297  0.3807 -0.1141  0.0295
 6953W        W49944  20.875   8.002  22.209 -0.2182  0.2001 -0.1814
 6954W        W49945  20.501  20.754  14.338  0.0042 -0.1699  0.1565
 6955W        W49946  23.326  15.013  22.612  0.0194  0.0941 -0.1401
 6956W        W49947  24.287  29.545   0.939  0.0078  0.0293 -0.1146
 6957W        W49948  21.956  25.655  26.917 -0.1469  0.2402 -0.2564
 6958W        W49949  22.740  15.211  13.574  0.2178  0.0550 -0.0336
 6959W        W49950  31.565  30.239  16.843 -0.0445  0.0100  0.0360
 6960W        W49951   2.292  20.055  25.873 -0.0952  0.0737  0.0159
 6961W        W49952  23.721  32.084  28.737  0.3926  0.1217  0.0412
 6962W        W49953  33.996  16.268  21.745 -0.0925  0.1444  0.3275
 6963W        W49954  19.590  13.373  16.156  0.3084 -0.0470 -0.3004
 6964W        W49955  13.414  31.141   7.427  0.0461 -0.0002  0.0107
 6965W        W49956  27.999  21.601  17.244  0.0769 -0.0279  0.1332
 6966W        W49957  21.005   2.070  25.084  0.2109  0.3949  0.2327
 6967W        W49958   9.789   0.263  20.445 -0.1035  0.0730 -0.0905
 6968W        W49959  32.772  23.154  19.352 -0.1065 -0.2752 -0.1156
 6969W        W49960   1.878  23.501  26.614 -0.2936  0.2535  0.0700
 6970W        W49961   2.629  18.786  16.703  0.1134  0.0019 -0.1588
 6971W        W49962  29.181  34.754  23.555 -0.3888  0.1454  0.0866
 6972W        W49963  31.473  30.886  17.411 -0.3020 -0.0851 -0.1809
 6973W        W49964   8.073   6.793  21.036 -0.0148  0.0854 -0.1081
 6974W        W49965  32.005  11.192  25.456  0.0142 -0.1000 -0.2103
 6975W        W49966  16.472  14.859   4.244  0.2872 -0.1243 -0.2088
 6976W        W49967  11.357  18.767  20.639 -0.1118 -0.1580  0.0349
 6977W        W49968  22.874  14.163  24.719 -0.1083  0.1608  0.0432
 6978W        W49969  28.271  30.827   2.202 -0.3058  0.1497 -0.0647
 6979W        W49970  25.391  31.209  21.486 -0.2587 -0.0015 -0.1697
 6980W        W49971   7.955  21.781   8.552  0.0147 -0.1002  0.0216
 6981W        W49972  27.214  19.564  20.959 -0.2375 -0.0128 -0.0695
 6982W        W49973   2.883   5.128  21.240 -0.2203  0.3566  0.1090
 6983W        W49974  18.026  23.813  17.499 -0.3106  0.4013 -0.1893
 6984W        W49975  10.118   5.077  10.633  0.0594 -0.2185 -0.2917
 6985W        W49976  29.062  24.717  28.533 -0.1844  0.1791 -0.1039
 6986W        W49977  18.094  11.124  19.174  0.1820 -0.3376 -0.0211
 6987W        W49978  31.379  29.846  14.272  0.0634 -0.0209  0.0848
 6988W        W49979   9.899  17.473  19.340  0.0395 -0.0016  0.0143
 6989W        W49980   4.502  10.787   0.351  0.0568  0.2292  0.0706
 6990W        W49981  20.369  33.866   3.396  0.0630 -0.2322 -0.2198
 6991W        W49982  18.955  29.441  15.950  0.1196  0.0819  0.0104
 6992W        W49983  19.163  27.973  18.270 -0.2388  0.2144 -0.1039
 6993W        W49984  26.133  34.461  19.484  0.0926  0.0819  0.1077
 6994W        W49985  18.865  23.238  16.616 -0.0191 -0.3098 -0.0137
 6995W        W49986  23.470   8.391  28.751  0.0939  0.1243 -0.1213
 6996W        W49987   2.696  13.098  24.288  0.1311 -0.0851 -0.0377
 6997W        W49988  23.446  18.126  15.050 -0.0547  0.1816 -0.1531
 6998W        W49989  32.250  19.736  15.310 -0.0916  0.3039 -0.0574
 6999W        W49990  23.814  16.557  19.344 -0.1025 -0.1339 -0.0616
 7000W        W49991  28.115  11.031   0.837  0.0332 -0.3230 -0.1370
 7001W        W49992   0.562   9.225   2.425 -0.0350 -0.2814 -0.2978
 7002W        W49993   5.301  22.789  26.923  0.2772 -0.0469  0.0625
 7003W        W49994  29.555  19.121  14.973  0.1428 -0.1892 -0.0805
 7004W        W49995  15.644  25.503  23.957 -0.1493 -0.0203 -0.3145
 7005W        W49996  15.060  19.545  12.182 -0.0185  0.0050  0.1918
 7006W        W49997  15.049  24.731  23.695 -0.1633  0.1499  0.0319
 7007W        W49998  33.087   6.335  22.294  0.1725 -0.0749 -0.1615
 7008W        W49999  29.122  17.015  18.796 -0.0375  0.1609  0.2104
 7009W        W50000  20.004  17.887  15.923 -0.2986 -0.0894 -0.2188
 7010W        W50001  10.196   3.947   1.575  0.3188 -0.2027 -0.0695
 7011W        W50002  19.840  14.676  17.927  0.3444  0.2117  0.5058
 7012W        W50003  18.362  19.604  13.492  0.0836  0.1188  0.1173
 7013W        W50004  29.133  33.000  13.250  0.3986  0.0549  0.1698
 7014W        W50005  31.243  21.699  25.611  0.0901 -0.1930  0.4015
 7015W        W50006  11.614  26.736  16.213  0.1699 -0.3593  0.1820
 7016W        W50007  28.988   9.666  15.588  0.1834 -0.0678  0.3590
 7017W        W50008  29.517  24.802  26.340 -0.3466 -0.1139 -0.4551
 7018W        W50009  10.802  16.436  17.018  0.2908 -0.0720  0.0687
 7019W        W50010  28.546  30.036  15.371 -0.0573 -0.1108 -0.0026
 7020W        W50011  25.688  12.620  22.946  0.0996  0.0887  0.1449
 7021W        W50012   2.491  11.659  17.169  0.1161  0.1684 -0.0538
 7022W        W50013  25.012  13.732  23.280  0.0867 -0.0337  0.0595
 7023W        W50014  32.935  34.234  26.280 -0.4756  0.0029  0.1661
 7024W        W50015   1.806  16.374  19.685  0.1562 -0.1034 -0.0754
 7025W        W50016  29.644  17.352  29.148  0.0295  0.0182 -0.2569
 7026W        W50017  23.478  18.112  22.566 -0.0730  0.0157  0.2638
 7027W        W50018  21.105  15.043  17.582 -0.4434 -0.1914 -0.1922
 7028W        W50019  16.376  10.308  22.999  0.0563  0.0350 -0.2135
 7029W        W50020   7.731  32.230  15.791  0.1776 -0.0253  0.2419
 7030W        W50021  30.701  16.276  19.668  0.2167  0.0071  0.0619
 7031W        W50022   6.711  22.777  29.243  0.1172  0.0876  0.0807
 7032W        W50023  22.581  30.370  12.808  0.2511  0.3752  0.0294
 7033W        W50024  12.857   6.153  15.788  0.0149  0.0813  0.0518
 7034W        W50025  16.623  26.907  15.233 -0.2305 -0.2435  0.2778
 7035W        W50026  17.348  23.788  26.867  0.1294 -0.2995 -0.4426
 7036W        W50027  29.281  16.718  21.555 -0.3755 -0.1137 -0.1700
 7037W        W50028  32.279  24.430  15.632  0.0949  0.2027 -0.1497
 7038W        W50029  25.150  10.853  24.605  0.3175  0.0487 -0.3707
 7039W        W50030  23.460  32.471  24.416 -0.0160 -0.0964  0.1816
 7040W        W50031   5.775   7.751  17.767  0.0887 -0.4002 -0.1001
 7041W        W50032  14.199  24.954  17.800  0.2248 -0.0923 -0.1625
 7042W        W50033  14.926  33.605  23.231  0.0063  0.0420 -0.1860
 7043W        W50034   0.914  25.926  18.552 -0.3834 -0.0073 -0.0509
 7044W        W50035  22.811  28.263  22.172 -0.2274  0.0373  0.0934
 7045W        W50036  24.769   2.690  28.454 -0.2395 -0.0001 -0.0771
 7046W        W50037  17.193  10.576  23.052 -0.1253  0.1238  0.0214
 7047W        W50038  22.816  29.226  27.947  0.4214 -0.1075  0.2916
 7048W        W50039  26.681   1.238  21.323  0.1068  0.0788  0.4907
 7049W        W50040   3.280  16.672  23.629  0.0565  0.2166  0.0269
 7050W        W50041  20.556  21.485  20.851  0.1641  0.0893 -0.0158
 7051W        W50042  32.305  15.849   9.365  0.1970 -0.0501 -0.1284
 7052W        W50043   9.667  18.771  24.075 -0.1756  0.3131 -0.1349
 7053W        W50044  19.788  13.707  15.201 -0.2411 -0.3238 -0.1174
 7054W        W50045  33.851  12.951  25.235  0.0393 -0.0548 -0.1212
 7055W        W50046   3.039  21.716  18.599 -0.1165 -0.0406  0.1999
 7056W        W50047   3.061  34.459  20.924  0.1661 -0.1754 -0.0334
 7057W        W50048  26.918  26.399  24.215 -0.0807  0.0265 -0.1209
 7058W        W50049  17.920  20.664  12.743 -0.0105  0.0761  0.1732
 7059W        W50050  31.984  27.252  22.063 -0.1576 -0.1550 -0.0448
 7060W        W50051  14.917  13.137  16.311 -0.0587 -0.0946 -0.0924
 7061W        W50052  25.699  11.590  21.528  0.0335  0.0033  0.0014
 7062W        W50053  18.701  23.693  15.252 -0.3193 -0.1185 -0.1707
 7063W        W50054  13.524  16.346  15.227 -0.0817  0.1799 -0.1257
 7064W        W50055  22.722  22.104  17.448 -0.0729 -0.1635 -0.1981
 7065W        W50056  22.209  17.402  28.872 -0.0185 -0.1131 -0.0782
 7066W        W50057   5.680  23.815  24.122 -0.0012 -0.0131 -0.1467
 7067W        W50058   0.260  22.703   4.244  0.0029 -0.1991  0.1153
 7068W        W50059  27.671  34.372  19.089 -0.0484  0.0720 -0.4322
 7069W        W50060  11.783  13.350  27.294 -0.0286 -0.4580  0.0965
 7070W        W50061   4.539  27.672  25.326  0.0617 -0.1590 -0.0298
 7071W        W50062  26.257   2.002  21.579  0.1116 -0.1159 -0.0031
 7072W        W50063  16.852   8.296  17.382 -0.0637 -0.0692  0.0158
 7073W        W50064   3.451   1.391  16.123 -0.0146 -0.0943  0.1254
 7074W        W50065  16.432  22.478  17.451 -0.0356  0.0751  0.1993
 7075W        W50066  13.025  24.934  20.697 -0.1718 -0.3186  0.1291
 7076W        W50067  24.067  20.558  16.623  0.1577 -0.0670  0.5378
 7077W        W50068  18.246  27.745  15.678 -0.0286 -0.1933  0.1891
 7078W        W50069  15.314  28.880  23.962  0.0497  0.2967 -0.3377
 7079W        W50070  22.349  27.951  12.923  0.0177  0.0614  0.0171
 7080W        W50071  17.262   8.763  22.397 -0.1322 -0.2967  0.0290
 7081W        W50072  24.320   4.594   3.279  0.1523 -0.0735 -0.3058
 7082W        W50073  25.195  27.381  14.489 -0.0042  0.1616  0.2553
 7083W        W50074  26.297  26.379  20.415 -0.1107  0.2180 -0.0825
 7084W        W50075  12.337  14.760   8.017  0.4115  0.0067 -0.1731
 7085W        W50076  29.262   7.983  21.457 -0.5554 -0.1356 -0.1752
 7086W        W50077   6.329  29.367   4.189  0.0490 -0.3530 -0.0456
 7087W        W50078  23.724   9.825  17.383 -0.2589  0.0907  0.2854
 7088W        W50079  20.974  21.682  17.733  0.0940  0.0076  0.2947
 7089W        W50080  30.256  30.485  18.743  0.1000 -0.3906 -0.0184
 7090W        W50081  30.741  24.634  26.216 -0.2602 -0.1590  0.3971
 7091W        W50082  25.711   8.694  28.926  0.1455 -0.1162 -0.0055
 7092W        W50083  28.542  10.541  18.687 -0.0234 -0.0451 -0.2577
 7093W        W50084  32.610   8.865  24.892 -0.0065 -0.1602 -0.0702
 7094W        W50085  15.250  25.669  15.732  0.4000 -0.0908 -0.0819
 7095W        W50086  27.682  27.517  24.883  0.0287 -0.0097 -0.1718
 7096W        W50087  16.919  25.781  14.417 -0.0437 -0.0210 -0.1090
 7097W        W50088  20.785  18.996  13.444 -0.0356 -0.0712  0.1090
 7098W        W50089  33.081  13.399  21.121  0.2230  0.1871  0.2389
 7099W        W50090  32.582  14.339  18.547  0.4617 -0.0848  0.0975
 7100W        W50091  25.203  13.896  15.945  0.1417 -0.1802  0.1499
 7101W        W50092  34.502  26.709  26.585 -0.1079  0.2112  0.0633
 7102W        W50093  26.425  29.771  17.279 -0.1658  0.2824 -0.1551
 7103W        W50094  17.029  30.741  24.971  0.0907  0.2825  0.2407
 7104W        W50095   2.225  25.195  20.282 -0.2219  0.1769  0.0467
 7105W        W50096  25.313  30.198  23.549 -0.3510 -0.1064  0.0775
 7106W        W50097  20.713  30.930   4.292  0.0895  0.1971 -0.3155
 7107W        W50098  19.777  30.813  17.875 -0.1898 -0.3559  0.1272
 7108W        W50099  16.835  27.553  21.204  0.0179  0.0955  0.1785
 7109W        W50100   9.192  30.907  14.143  0.2384  0.0032 -0.0941
 7110W        W50101  20.539   9.194  20.413 -0.0220 -0.0033 -0.3233
 7111W        W50102  16.524  28.086  23.872 -0.0235 -0.2634 -0.2667
 7112W        W50103  28.356  15.379  14.840 -0.0990  0.0886 -0.1541
 7113W        W50104  10.188  27.461  23.285  0.1518  0.2160 -0.1229
 7114W        W50105  21.219  32.500  14.251  0.1795  0.1809 -0.2623
 7115W        W50106  15.483  29.663  28.234 -0.2141  0.3151  0.3864
 7116W        W50107   0.156   6.741  23.917 -0.0674 -0.0972  0.1768
 7117W        W50108  12.760   8.696  21.981  0.1927 -0.1804 -0.0012
 7118W        W50109  25.465  17.857  17.919  0.0123 -0.1565  0.0870
 7119W        W50110  20.233  33.693  24.446 -0.0738  0.0601  0.0622
 7120W        W50111  12.746  19.290  13.732 -0.2551  0.2145 -0.0545
 7121W        W50112  18.917   2.851  17.804  0.0173  0.3705  0.0814
 7122W        W50113  22.511  15.324  15.553  0.1387  0.1027  0.1152
 7123W        W50114  27.300  24.497  25.326 -0.1150 -0.1748  0.0877
 7124W        W50115   1.024  11.205   2.010 -0.3224 -0.1853  0.0829
 7125W        W50116  14.507  20.971  26.581  0.1517 -0.0067  0.1770
 7126W        W50117   7.906  27.832  17.955 -0.1962 -0.2252 -0.0314
 7127W        W50118  29.802  23.006  22.950  0.3180  0.2086 -0.2893
 7128W        W50119  17.173  23.029  12.820 -0.0421  0.1151 -0.1322
 7129W        W50120  31.904  19.845  14.846  0.2199 -0.3989 -0.0845
 7130W        W50121  18.739   1.228   2.010 -0.1649 -0.1891  0.0381
 7131W        W50122  25.402  11.831  21.181  0.0154  0.2042  0.1044
 7132W        W50123  19.843  28.614  18.593  0.0924 -0.2370 -0.1198
 7133W        W50124  33.947  17.616  16.179 -0.1151  0.1265 -0.3392
 7134W        W50125  11.214  28.326  26.471  0.3716  0.3467  0.1234
 7135W        W50126  21.478  29.019  22.515  0.2244  0.0698  0.3328
 7136W        W50127  26.447  22.599   0.039 -0.0898  0.1071 -0.0023
 7137W        W50128  21.590   2.897  19.175  0.0174  0.2281 -0.0520
 7138W        W50129  28.292  22.983  14.795  0.2963  0.0674 -0.1506
 7139W        W50130   4.975  26.477  21.719  0.1299 -0.2312  0.0684
 7140W        W50131  13.171  18.984  13.718 -0.1307  0.1434  0.2578
 7141W        W50132  17.883  31.804  20.234 -0.1668  0.1715  0.1074
 7142W        W50133  18.421  16.391  14.787 -0.1072 -0.1822  0.1144
 7143W        W50134  24.589  22.855  26.401 -0.0979  0.0904  0.0619
 7144W        W50135   4.868  21.383  20.502  0.0255 -0.1342 -0.3037
 7145W        W50136  32.749  19.630  23.109  0.1957  0.0652 -0.0872
 7146W        W50137  31.348  23.511  26.760 -0.3379  0.2506 -0.0970
 7147W        W50138  25.260  26.896  24.402 -0.0789 -0.0683  0.2539
 7148W        W50139  23.551  21.303  16.282 -0.0859 -0.0027  0.1303
 7149W        W50140  33.089  28.742   7.511  0.2371  0.0488  0.4029
 7150W        W50141  21.179  13.780  13.460  0.0207 -0.0918 -0.1833
 7151W        W50142  27.483  22.885  13.995 -0.0171  0.0474  0.2561
 7152W        W50143  15.551  20.169  15.243  0.1240 -0.0219  0.0532
 7153W        W50144  21.229  22.572  13.756 -0.1232  0.0676 -0.2627
 7154W        W50145  21.307  11.428  25.202  0.0800 -0.0013  0.0122
 7155W        W50146  29.735  20.858  14.832 -0.1454  0.1196 -0.0749
 7156W        W50147  20.596  21.487  26.807 -0.1040 -0.5904 -0.1882
 7157W        W50148  33.626  25.030  18.120 -0.1223 -0.1268  0.3679
 7158W        W50149   6.109   8.724  17.991 -0.1688 -0.2780  0.2073
 7159W        W50150  27.813  22.790   2.473  0.0273  0.1990 -0.1309
 7160W        W50151   9.968  18.122  15.721 -0.0166 -0.0715 -0.0974
 7161W        W50152  22.019  20.767   7.547 -0.0933 -0.1487 -0.2004
 7162W        W50153  18.125  24.244   6.177 -0.0998  0.2969 -0.0624
 7163W        W50154   7.247   6.796  26.613  0.0455 -0.3522  0.0594
 7164W        W50155  24.011  28.105  18.599 -0.1971  0.0150 -0.1281
 7165W        W50156  20.184  21.907  27.881 -0.0766 -0.0293  0.1540
 7166W        W50157  25.836  14.323  14.849  0.1270  0.1364  0.3697
 7167W        W50158  28.204   8.566  13.913  0.0249 -0.0801  0.0125
 7168W        W50159  22.195   9.351  19.344  0.0489  0.1441  0.1035
 7169W        W50160  31.681   7.824  21.897 -0.0552 -0.1491  0.2422
 7170W        W50161  33.347  21.712   3.304 -0.0903 -0.2138 -0.0313
 7171W        W50162  20.498  21.165  19.363  0.6244 -0.0728  0.1496
 7172W        W50163  17.953  24.653  15.352 -0.2036  0.2088 -0.1488
 7173W        W50164   5.043  19.651   1.377 -0.1323  0.0511 -0.1871
 7174W        W50165  28.358  12.579  25.126  0.0076  0.3268 -0.2030
 7175W        W50166   0.645  17.080  28.128 -0.2794  0.0516  0.1581
 7176W        W50167  23.328  13.387  19.205  0.1570  0.1320 -0.3037
 7177W        W50168   7.315  20.885  20.650  0.1780  0.1483 -0.1174
 7178W        W50169   1.977  17.933  21.920 -0.3414  0.2228  0.0314
 7179W        W50170  25.855  22.909   3.386  0.1298  0.0039  0.0941
 7180W        W50171  26.044  20.235  24.316 -0.1630  0.0108 -0.1854
 7181W        W50172  14.873  34.171   0.407  0.1026  0.2104  0.5051
 7182W        W50173  14.599  18.456  27.107  0.0834  0.1976  0.2605
 7183W        W50174  25.555  30.777  25.723 -0.2664  0.2386  0.2388
 7184W        W50175  14.845   3.100  22.055 -0.2735  0.3297 -0.1095
 7185W        W50176  21.335  10.481   3.281 -0.0794  0.1682 -0.0354
 7186W        W50177  18.370  18.621  14.656  0.1274 -0.3036  0.0263
 7187W        W50178  30.267  18.879  21.751  0.3146  0.0218  0.2420
 7188W        W50179   0.511  15.939  10.707  0.0456 -0.0129 -0.4232
 7189W        W50180  26.906   2.962  15.873 -0.0364 -0.1905 -0.0366
 7190W        W50181  28.566  31.769  17.509  0.0998  0.0767  0.0228
 7191W        W50182  22.346  23.424  17.136  0.0002 -0.1495  0.3387
 7192W        W50183  11.454  29.686  20.794 -0.2469  0.1517 -0.0143
 7193W        W50184  23.188  14.684  18.977  0.0918  0.1959  0.0529
 7194W        W50185  29.332  16.783  22.766  0.1981  0.0820  0.0054
 7195W        W50186   4.605   4.166  23.207  0.2455 -0.1917 -0.0964
 7196W        W50187  12.969  19.941  16.196 -0.1451  0.3825 -0.0039
 7197W        W50188  31.633   4.251  22.011  0.1737 -0.0420  0.1766
 7198W        W50189  20.212  31.642  19.837 -0.1684 -0.1045 -0.1086
 7199W        W50190   4.329  25.987  16.103  0.0695 -0.0260 -0.0883
 7200W        W50191  11.388  24.281  14.365  0.1601  0.1126 -0.1030
 7201W        W50192  29.597  31.662  21.062 -0.2273  0.1777  0.0366
 7202W        W50193  22.868  18.587  16.952 -0.2096  0.1924 -0.1752
 7203W        W50194  16.337  21.122  25.337  0.1616 -0.0027 -0.0389
 7204W        W50195  17.612  22.245  24.657  0.0839  0.0883  0.4534
 7205W        W50196  16.352   9.137  17.537  0.3090 -0.0541 -0.0839
 7206W        W50197  29.390  25.049  17.269 -0.0861 -0.0840  0.1663
 7207W        W50198  33.052  11.904  27.984 -0.1771  0.1007 -0.2359
 7208W        W50199  30.789  27.284  23.388 -0.1203 -0.0839 -0.1956
 7209W        W50200  18.459  32.499  24.969 -0.5637  0.0893 -0.0949
 7210W        W50201  32.841  13.614   0.534  0.3000  0.1098 -0.2980
 7211W        W50202  31.786  16.499   6.035  0.2239  0.0915  0.1828
 7212W        W50203  33.192  28.991  17.195  0.0312 -0.4950 -0.1426
 7213W        W50204  19.809  21.395   3.210 -0.0670  0.1115 -0.0995
 7214W        W50205   0.518  26.615  16.461  0.0997  0.2802  0.0087
 7215W        W50206  19.558   1.395  21.580  0.0888 -0.0753 -0.0236
 7216W        W50207  12.361  12.021  27.017  0.1352 -0.0282  0.2721
 7217W        W50208  18.850  13.430  15.962 -0.1247 -0.0267  0.1675
 7218W        W50209  23.904  29.725   8.497 -0.2914  0.2109 -0.1553
 7219W        W50210  33.428  23.898  14.846 -0.0748  0.0194 -0.2270
 7220W        W50211  31.849  26.754  27.239  0.0337  0.0913  0.1360
 7221W        W50212  22.845  33.312  14.535 -0.1347 -0.1202  0.0062
 7222W        W50213  19.547  32.303   8.588 -0.1522 -0.1050 -0.3725
 7223W        W50214  16.828  20.291  28.944  0.1977  0.0681 -0.4528
 7224W        W50215   6.478  10.238  20.635 -0.0848 -0.0020  0.1348
 7225W        W50216   3.050  24.149  16.259 -0.0533  0.0366  0.3161
 7226W        W50217  21.133  16.591  17.201 -0.1510  0.1377  0.0440
 7227W        W50218   4.892  17.780   4.099 -0.1047  0.1584 -0.0687
 7228W        W50219   4.285  23.672  16.172 -0.0488  0.1733 -0.1433
 7229W        W50220  30.371  16.528  20.045  0.1089 -0.0243 -0.0614
 7230W        W50221   9.526  16.867  18.162  0.2996 -0.2172  0.5716
 7231W        W50222  24.978  10.582  15.917 -0.1026 -0.0212 -0.4851
 7232W        W50223  23.755   3.196  18.050 -0.0399  0.1035  0.1541
 7233W        W50224  22.494  21.403  13.987 -0.3122 -0.0420  0.1428
 7234W        W50225  23.137   5.361   8.712 -0.2574 -0.0260 -0.1793
 7235W        W50226  34.363  28.830  24.813  0.1517 -0.0116 -0.0102
 7236W        W50227  22.841  19.454  21.909 -0.0436 -0.0240 -0.3447
 7237W        W50228  30.836   0.705  23.143  0.0429 -0.0193 -0.2259
 7238W        W50229  15.608   6.610  18.990 -0.1472 -0.1795 -0.2195
 7239W        W50230   3.859  33.161  22.182 -0.4820  0.2367  0.0638
 7240W        W50231  15.503  21.466  20.456 -0.0540 -0.0686  0.2655
 7241W        W50232  29.439  26.714  15.940  0.1433 -0.1689 -0.1314
 7242W        W50233  23.353  23.304  19.390 -0.1036 -0.3025  0.0579
 7243W        W50234   7.453  32.535  16.887 -0.1576 -0.1857 -0.0390
 7244W        W50235  27.125  24.988  13.690 -0.0739  0.4551 -0.1986
 7245W        W50236   5.303  15.805  27.206  0.1927 -0.3627 -0.3132
 7246W        W50237   5.219  32.975  16.095  0.0242  0.0584  0.2924
 7247W        W50238  28.684  14.108  15.566  0.1053  0.1686 -0.0904
 7248W        W50239  21.281  24.549  14.369  0.1199  0.2119 -0.1109
 7249W        W50240  24.238  17.446  15.274  0.4641  0.0382  0.1412
 7250W        W50241  22.217  33.245  20.021 -0.1461 -0.1205  0.1313
 7251W        W50242   9.435  17.297  19.108  0.0161  0.0309  0.0655
 7252W        W50243  13.299  21.149  25.346 -0.0454 -0.1291 -0.0250
 7253W        W50244   6.691  23.622  15.393  0.4075 -0.0188 -0.1425
 7254W        W50245  30.466  20.274  27.149 -0.1899 -0.4407 -0.0349
 7255W        W50246  29.684  29.211   0.330 -0.0711 -0.2268  0.1603
 7256W        W50247  16.453  19.753  26.927  0.2851 -0.0653  0.0712
 7257W        W50248   9.735  23.448  22.597  0.2633  0.0139  0.1499
 7258W        W50249  22.538  19.811  15.121  0.0782  0.2116  0.0668
 7259W        W50250  25.936   6.615  18.932  0.2728 -0.2716 -0.2454
 7260W        W50251  30.197   7.840  26.498  0.0775  0.1835 -0.0826
 7261W        W50252  31.807  15.873  16.261 -0.0069  0.0625  0.0059
 7262W        W50253  27.904  19.487  21.919 -0.0938  0.1654 -0.2276
 7263W        W50254  17.121  12.288   3.191  0.0629  0.2644  0.1746
 7264W        W50255   3.782  21.990  13.784 -0.2314 -0.1026 -0.3159
 7265W        W50256   6.167   2.157  20.542  0.1606 -0.0428 -0.3197
 7266W        W50257  32.122  25.363  18.588  0.0727  0.0960 -0.0059
 7267W        W50258  33.262  16.975  28.279 -0.2993 -0.1490 -0.1280
 7268W        W50259   1.042  21.301  25.892  0.0038  0.2831 -0.1213
 7269W        W50260  23.961  12.339  15.118  0.1317 -0.1693  0.4041
 7270W        W50261  11.709  33.089   5.935  0.1314  0.1613 -0.1488
 7271W        W50262   1.946  26.414  14.407 -0.3760  0.0048  0.0905
 7272W        W50263   4.392  27.028   6.488 -0.4053 -0.0375 -0.2484
 7273W        W50264  22.810   1.007  28.146 -0.2401  0.2702 -0.1237
 7274W        W50265   3.992  28.990  17.679 -0.0283  0.0357 -0.0670
 7275W        W50266  29.967  31.939  12.334 -0.2420 -0.0121  0.3464
 7276W        W50267  30.534  28.393   5.117  0.0956 -0.2832  0.1084
 7277W        W50268  26.853  18.116  19.998  0.1318  0.2684 -0.2611
 7278W        W50269  23.979  18.291  14.284 -0.1865  0.0562  0.1795
 7279W        W50270  26.118   7.084  17.490 -0.1286  0.1000 -0.2429
 7280W        W50271  29.830  28.128  19.119 -0.1149 -0.1430  0.1562
 7281W        W50272  33.553  19.799   6.648  0.0913 -0.0247 -0.0810
 7282W        W50273  19.958   3.483  28.996  0.4039 -0.1054  0.3959
 7283W        W50274   2.259  17.203  25.544 -0.0472 -0.0373  0.2739
 7284W        W50275  32.150  31.201   7.202  0.0561  0.5455  0.2632
 7285W        W50276  14.387  29.552  15.705  0.0478  0.0813 -0.0381
 7286W        W50277  34.325  17.900  15.887 -0.2126 -0.1261  0.2185
 7287W        W50278  33.669  20.179  15.183 -0.0052 -0.4087 -0.0862
 7288W        W50279  31.583  14.595  25.193  0.0522  0.2964  0.2086
 7289W        W50280  22.750  19.803  13.236  0.1376 -0.2753  0.0391
 7290W        W50281  29.905  25.301  25.256 -0.2825 -0.0259 -0.1215
 7291W        W50282  26.053  15.900  14.828  0.0234  0.1070 -0.0340
 7292W        W50283  23.983   6.581  20.642  0.0845  0.0870 -0.0906
 7293W        W50284  11.905  20.282  13.291 -0.0340 -0.1809 -0.5903
 7294W        W50285  32.227  31.799  24.950 -0.2817  0.3634  0.4013
 7295W        W50286  24.243   8.690  22.822  0.0146 -0.1043 -0.2648
 7296W        W50287  16.829  21.099   0.573  0.0606  0.3696  0.0476
 7297W        W50288   0.904   9.153  15.824 -0.3146  0.1871 -0.0404
 7298W        W50289  14.764  14.224  16.782  0.2697 -0.0561  0.2539
 7299W        W50290  27.157   2.677  14.224 -0.1091  0.0127  0.4504
 7300W        W50291  25.981  19.928   0.095 -0.1004 -0.0872 -0.4570
 7301W        W50292  19.606  34.377  13.450 -0.0415  0.1385 -0.1676
 7302W        W50293  18.410   1.971  28.122 -0.1010  0.1609 -0.2339
 7303W        W50294  18.346   0.358  21.484 -0.0487  0.0479  0.0395
 7304W        W50295  25.184   6.887  23.745 -0.2502 -0.1568  0.1627
 7305W        W50296  19.067  24.193  19.965  0.0198  0.0436  0.1294
 7306W        W50297  20.548  25.346  23.660 -0.2299 -0.1168 -0.0159
 7307W        W50298  29.040  33.036  28.558  0.1043  0.0023  0.1685
 7308W        W50299  26.601  11.408  17.741 -0.1458  0.1496  0.0285
 7309W        W50300  32.293   5.871  21.196  0.2755  0.0326 -0.0461
 7310W        W50301  16.007  25.088  19.495  0.0148  0.0103  0.2291
 7311W        W50302  33.049  29.041  21.259 -0.1238  0.2064  0.0753
 7312W        W50303  26.565  16.889  17.709  0.0091  0.0982  0.2240
 7313W        W50304  28.559  30.680  16.951 -0.0396 -0.0427  0.2813
 7314W        W50305   3.317  34.727   7.103  0.0232 -0.0269 -0.0106
 7315W        W50306   3.473  19.933  20.123  0.1700 -0.2504 -0.1680
 7316W        W50307  14.914  14.095  23.001 -0.0282 -0.0271 -0.0240
 7317W        W50308   3.247  33.066  20.605  0.2183 -0.1388 -0.1144
 7318W        W50309  30.117  24.047  25.897 -0.1448  0.0104 -0.0006
 7319W        W50310  32.627  22.593  16.811  0.1756  0.0930 -0.1293
 7320W        W50311  20.156  28.906   0.384  0.3964 -0.0633 -0.0650
 7321W        W50312  27.445  30.413  22.126  0.3489 -0.0780 -0.6034
 7322W        W50313  12.212  32.324   3.408 -0.0116  0.0286 -0.0841
 7323W        W50314  26.268  32.922  12.991  0.0051  0.0546 -0.0878
 7324W        W50315   2.065  11.248  16.189  0.0384 -0.2236  0.0601
 7325W        W50316  24.569  11.621  27.615 -0.0487  0.0700  0.1105
 7326W        W50317  27.411   4.288  17.642  0.2281 -0.0896 -0.1546
 7327W        W50318  29.619  19.122  27.983 -0.1663  0.1123 -0.0964
 7328W        W50319  27.192   0.950  26.895  0.1501 -0.1034 -0.2456
 7329W        W50320   8.470  24.214   3.001 -0.0439 -0.1736  0.0343
 7330W        W50321  30.047   2.745   1.670 -0.4327 -0.0876  0.0669
 7331W        W50322  24.020  28.881  18.029  0.2250 -0.0797  0.0409
 7332W        W50323  32.453  11.547  27.096  0.1650 -0.0903  0.0118
 7333W        W50324   7.560  28.377  28.721 -0.1706  0.3980 -0.3718
 7334W        W50325  32.747  22.912  26.342 -0.0034 -0.0830 -0.0910
 7335W        W50326  19.232  28.814  21.342 -0.1407  0.0515  0.0751
 7336W        W50327  15.555  12.179  27.539  0.2996 -0.3533 -0.4046
 7337W        W50328  21.376  17.055  21.599  0.0266 -0.0312 -0.1216
 7338W        W50329   1.560  16.388  17.304 -0.3434 -0.0573 -0.2114
 7339W        W50330   0.698  15.083  17.372 -0.5479  0.0965 -0.2378
 7340W        W50331  32.815  18.626  14.491 -0.0718 -0.2473 -0.0573
 7341W        W50332  17.675  12.167  14.946  0.3078  0.2286  0.0799
 7342W        W50333  22.206  17.538  15.397  0.1743 -0.0300  0.2034
 7343W        W50334  24.544  19.557   4.125 -0.1027  0.2007 -0.1784
 7344W        W50335  27.459  13.207   0.997 -0.0427  0.1587 -0.3070
 7345W        W50336  12.711  20.039  23.270 -0.0667  0.0573 -0.4870
 7346W        W50337  28.665  21.556  20.702 -0.0345  0.0708  0.0361
 7347W        W50338  19.522  21.091  28.562  0.4652 -0.1703  0.0636
 7348W        W50339  13.114  23.627  17.664  0.2078  0.1928  0.1252
 7349W        W50340  14.412  28.917  19.984  0.0449  0.1296 -0.1963
 7350W        W50341  18.526  13.434  24.290  0.3690 -0.1137 -0.0888
 7351W        W50342   2.440  18.763   5.245 -0.0899  0.2096 -0.4170
 7352W        W50343  21.524  20.702   3.644  0.0739 -0.1266 -0.1267
 7353W        W50344  31.777  27.891   4.460  0.0928 -0.0122  0.0182
 7354W        W50345   0.469  29.635  21.668  0.0711  0.3335  0.2798
 7355W        W50346  29.093  22.390  22.461  0.0495 -0.0195  0.3069
 7356W        W50347  33.489  30.651   5.119  0.0597 -0.1980  0.2038
 7357W        W50348  18.235   8.807  18.614  0.1738 -0.1839 -0.0003
 7358W        W50349  26.400  18.240  20.996 -0.1460  0.2288 -0.1666
 7359W        W50350   5.154  26.829  24.274  0.1844 -0.1964 -0.0068
 7360W        W50351  30.628  33.319  14.618  0.3645  0.2629  0.3611
 7361W        W50352  20.131  33.629  26.070  0.0007  0.0649  0.1668
 7362W        W50353  19.920  28.965  20.974 -0.3861 -0.0551  0.1008
 7363W        W50354   3.492  28.548  25.390 -0.0374 -0.0199 -0.1467
 7364W        W50355  22.642  26.323  15.526  0.0603  0.1536  0.1228
 7365W        W50356  25.652  21.043  21.624 -0.0027  0.2366  0.3236
 7366W        W50357  32.720  27.915  27.661 -0.2288  0.0349  0.0751
 7367W        W50358   8.224  18.456  15.428  0.0822 -0.1038 -0.5666
 7368W        W50359  30.277  19.482  27.614  0.1105 -0.0906  0.0905
 7369W        W50360  20.342  18.467  23.035 -0.0328  0.2274  0.1077
 7370W        W50361  27.646  17.821  14.929 -0.1135  0.0946 -0.2959
 7371W        W50362   3.324  26.458  24.864 -0.0210 -0.0618  0.0799
 7372W        W50363  19.022   9.009  15.434 -0.1868  0.0781 -0.3648
 7373W        W50364  26.489  30.740   4.198 -0.3320  0.0126  0.0989
 7374W        W50365  33.705  21.325  22.390 -0.0121 -0.1243  0.2258
 7375W        W50366  30.687  19.504  27.912  0.0032  0.3366 -0.0400
 7376W        W50367  12.597   0.290  22.112 -0.1108 -0.1766 -0.0518
 7377W        W50368  20.864  21.676  20.408 -0.1724 -0.0418  0.1561
 7378W        W50369  11.030  11.140  17.361  0.1662  0.1803 -0.2503
 7379W        W50370  22.266   1.786   0.067 -0.1864  0.2774  0.1611
 7380W        W50371  10.690  24.372  20.275 -0.2652 -0.1667  0.1869
 7381W        W50372  20.045  31.174   5.693  0.1210 -0.4480  0.0248
 7382W        W50373  24.516  15.623  22.905 -0.0248 -0.2674 -0.1058
 7383W        W50374  17.803  14.982  19.482 -0.0548  0.3170  0.1522
 7384W        W50375  34.716  15.608  10.876  0.1700  0.1708 -0.0157
 7385W        W50376  24.136  28.464  28.205  0.3434  0.2924 -0.0173
 7386W        W50377  13.406  23.960  14.625  0.0629 -0.1475  0.0963
 7387W        W50378  29.970  16.651  25.959 -0.1896  0.0179  0.0717
 7388W        W50379  15.371  18.345   5.170  0.1728 -0.0833 -0.3758
 7389W        W50380  32.441  17.760  16.011 -0.3345  0.1901  0.1333
 7390W        W50381  16.885   2.379  19.939 -0.1677  0.0620  0.1173
 7391W        W50382  26.178  27.339  14.319 -0.0422  0.1458 -0.0165
 7392W        W50383  16.229  16.936  13.358  0.0408  0.2920 -0.1456
 7393W        W50384  32.666  21.876  19.126  0.0222  0.0947 -0.2849
 7394W        W50385  15.017  18.527  13.156  0.1158 -0.3149 -0.1288
 7395W        W50386   8.577  19.292  14.116  0.1505  0.1408  0.3047
 7396W        W50387   1.487  12.958  27.227 -0.0468 -0.1615 -0.3032
 7397W        W50388   8.614  19.229  19.843 -0.1109 -0.0747  0.3208
 7398W        W50389   1.098  28.500  26.389  0.4038 -0.0523  0.1436
 7399W        W50390  16.625  22.582  15.850 -0.0463 -0.0914  0.0215
 7400W        W50391  26.268   6.256  25.514 -0.0479 -0.0219 -0.2854
 7401W        W50392  18.174   5.996  24.806  0.3346  0.2954 -0.0571
 7402W        W50393  27.308  31.131  20.571 -0.3767 -0.0466  0.1914
 7403W        W50394  34.197   6.407  26.086 -0.0399 -0.4112 -0.0181
 7404W        W50395   7.504  24.616  20.621  0.0197  0.2226  0.0303
 7405W        W50396   4.762  21.380  27.941  0.1205  0.0259 -0.2443
 7406W        W50397  12.014   2.869  20.011 -0.0001  0.1628 -0.1166
 7407W        W50398  32.292   9.896  22.341 -0.1293  0.1931 -0.0423
 7408W        W50399   6.313  23.171  21.186  0.0929 -0.1588  0.0612
 7409W        W50400  26.759  25.203   4.220  0.0436  0.2532 -0.2163
 7410W        W50401   7.908  19.046   2.882 -0.0774  0.2639 -0.0562
 7411W        W50402  10.832  18.973  27.886  0.3751  0.4300  0.2789
 7412W        W50403  27.991  24.782  15.045  0.2242  0.1100  0.1125
 7413W        W50404  20.496  21.957  13.075 -0.2830 -0.2446  0.3324
 7414W        W50405  15.260  22.344   4.137  0.1383 -0.2909 -0.1169
 7415W        W50406  20.800  12.551  18.552  0.2617  0.2516 -0.3142
 7416W        W50407  17.401  34.544  23.007 -0.1686  0.3142 -0.2281
 7417W        W50408  25.418   1.873  15.284  0.0734  0.2214  0.1368
 7418W        W50409  24.421  16.975  16.529 -0.3679 -0.1494  0.0518
 7419W        W50410  16.152  19.114   3.254 -0.1905 -0.1184  0.0227
 7420W        W50411  20.502  31.735  23.978  0.2258 -0.3828 -0.1090
 7421W        W50412  25.559  13.289  24.692 -0.1283 -0.0207 -0.0440
 7422W        W50413  12.985  27.723  28.204 -0.1782  0.0788  0.3330
 7423W        W50414   0.739   8.500   0.676  0.1347 -0.2234 -0.1755
 7424W        W50415   5.743  11.280  15.433  0.1088 -0.1616 -0.1550
 7425W        W50416  23.836  21.117  20.195 -0.0578 -0.0009  0.0515
 7426W        W50417  25.677  20.013   0.850 -0.2841 -0.1152  0.1776
 7427W        W50418  15.383  26.428  21.084  0.0121 -0.2021 -0.3116
 7428W        W50419  29.330  29.091  17.931 -0.2575 -0.0258 -0.0865
 7429W        W50420  31.164  10.494  16.417 -0.2323  0.2442 -0.0861
 7430W        W50421  11.682   8.699  17.023 -0.2159 -0.0019  0.2959
 7431W        W50422  22.331  20.816  20.812 -0.1231 -0.1174  0.1830
 7432W        W50423  34.357  26.296  26.919  0.1202  0.0839  0.1010
 7433W        W50424  34.179  12.931  19.000  0.0606  0.2073  0.1446
 7434W        W50425  33.554  18.456  26.936  0.0530  0.0005  0.1583
 7435W        W50426  17.762  14.114  24.500  0.1011  0.2597  0.0793
 7436W        W50427  11.461  33.857   2.396  0.0134  0.0312  0.1055
 7437W        W50428  25.036  31.729  24.386  0.0256 -0.0969  0.1271
 7438W        W50429  22.299   9.148   9.411  0.0860  0.1638 -0.1199
 7439W        W50430  29.489  23.035  18.929  0.0283 -0.2202 -0.2301
 7440W        W50431   5.762   0.076  15.242  0.0152 -0.3776  0.2404
 7441W        W50432  12.012  14.566  21.282  0.1781 -0.1382 -0.3971
 7442W        W50433  18.924   9.148  17.446  0.0045  0.1153  0.0619
 7443W        W50434  24.289  20.555   1.425  0.0461 -0.0699 -0.0611
 7444W        W50435  14.717  20.929  15.203 -0.1952  0.0090  0.1810
 7445W        W50436  30.849  28.364  18.870 -0.2036  0.2225  0.0534
 7446W        W50437  20.016  24.279  14.656  0.2192 -0.0875 -0.0035
 7447W        W50438   2.745  31.367  20.681 -0.1514 -0.0212  0.2415
 7448W        W50439  26.782  11.170  17.239 -0.0092  0.0727  0.0157
 7449W        W50440   0.072  26.161  18.659  0.0080  0.1911 -0.0865
 7450W        W50441  23.384  22.439   5.098  0.2518  0.0637 -0.1244
 7451W        W50442  30.849  26.385   0.165 -0.0869  0.2574 -0.0656
 7452W        W50443  29.586   0.091  16.172  0.0135  0.0695 -0.1590
 7453W        W50444  15.663  19.552  22.293 -0.0194  0.1339  0.2619
 7454W        W50445  22.467  26.027  15.947 -0.0630  0.4156 -0.1979
 7455W        W50446  14.174  13.519  15.196  0.0313 -0.2485 -0.0283
 7456W        W50447   8.888  11.738  15.357  0.0411 -0.0035 -0.0529
 7457W        W50448  23.685  28.793  27.934 -0.0437 -0.2756  0.2876
 7458W        W50449  10.333  23.458  16.451  0.3240 -0.0733 -0.1186
 7459W        W50450  29.178   6.013  19.518  0.1307  0.0372  0.0821
 7460W        W50451  21.187  24.865  19.773 -0.1478 -0.0872 -0.2489
 7461W        W50452  25.845  26.300  12.973  0.1347  0.3631  0.1586
 7462W        W50453  30.077   7.168  25.700  0.0093  0.1530  0.0430
 7463W        W50454   2.603   1.031  14.928  0.0853  0.4151 -0.2696
 7464W        W50455  16.334  12.433  22.348 -0.0842 -0.0765  0.0019
 7465W        W50456  11.776  14.049  16.195 -0.1709  0.1044 -0.1600
 7466W        W50457   2.339  22.075  15.992  0.1596  0.3197 -0.1509
 7467W        W50458  27.234  24.542  16.219 -0.2531  0.0517 -0.0663
 7468W        W50459   0.190  26.166  26.081  0.3827  0.0111  0.1033
 7469W        W50460  17.280  14.728  23.284 -0.1063  0.0473  0.0626
 7470W        W50461  19.502  26.425  17.874 -0.1080  0.5246 -0.0133
 7471W        W50462  12.143  13.537  18.709 -0.0924 -0.1509  0.0002
 7472W        W50463  19.774  29.781  15.694 -0.0644  0.2188 -0.0782
 7473W        W50464  26.222  21.941  14.214 -0.2487 -0.0030  0.0220
 7474W        W50465   5.893  20.640  20.301  0.1200 -0.3757  0.3925
 7475W        W50466  26.959  29.027  24.385 -0.0506 -0.0137 -0.0636
 7476W        W50467  18.406  31.974  17.258 -0.0382  0.2901 -0.0393
 7477W        W50468  30.886   3.796   0.064 -0.0026 -0.1947 -0.1114
 7478W        W50469  18.182  20.199  17.983  0.0956  0.1035 -0.2081
 7479W        W50470  25.785  29.353  18.135  0.0256 -0.2874 -0.2615
 7480W        W50471  31.667  28.798  28.250 -0.3006  0.3321 -0.0982
 7481W        W50472  23.150  33.388  22.869 -0.1179  0.0575  0.3060
 7482W        W50473   0.270  13.669  28.326 -0.1680 -0.1211 -0.0575
 7483W        W50474  22.300  14.473   7.438  0.3383 -0.0753  0.0229
 7484W        W50475  30.726   4.403   2.102 -0.1262  0.0815  0.5427
 7485W        W50476  20.837   5.638  17.845  0.5216 -0.1690 -0.2350
 7486W        W50477  31.824  20.189  14.411 -0.1238 -0.1862 -0.1839
 7487W        W50478  19.214  15.093  23.418  0.0104 -0.0580  0.1660
 7488W        W50479  10.718   7.420  25.455 -0.4867 -0.3021  0.0154
 7489W        W50480  14.760  18.493   2.023 -0.1340 -0.1644 -0.0996
 7490W        W50481   4.353  28.844  15.454  0.1304  0.0627  0.3358
 7491W        W50482  27.168  21.342   6.062 -0.0964  0.1186  0.0349
 7492W        W50483   0.474  22.972   3.438  0.0366 -0.0461  0.1312
 7493W        W50484  33.822  15.907  20.876  0.3058 -0.1147 -0.1052
 7494W        W50485  31.376  20.912  18.713  0.1490  0.0385  0.3284
 7495W        W50486  18.468  25.024  27.861  0.0195  0.2462 -0.0375
 7496W        W50487  28.258  16.496  26.354 -0.0500 -0.2853  0.0850
 7497W        W50488  24.689  17.727  14.419 -0.3199 -0.1492 -0.0430
 7498W        W50489  27.264  28.798   2.822  0.2044 -0.0625 -0.3326
 7499W        W50490  21.219  10.383  26.004  0.1645  0.4181 -0.2272
 7500W        W50491  21.535  28.273  15.759 -0.1819  0.3751  0.0998
 7501W        W50492  23.219  34.221  22.733  0.1140 -0.0141 -0.0665
 7502W        W50493  28.001  11.601  18.167  0.2231 -0.2515 -0.0555
 7503W        W50494  11.403  24.310  23.455 -0.0307 -0.1001  0.1638
 7504W        W50495  25.190  27.512   4.411 -0.1677 -0.2598  0.2342
 7505W        W50496  16.962  32.391  21.157  0.3220 -0.0242  0.0498
 7506W        W50497   1.975   1.761   2.069  0.0529 -0.0736 -0.0527
 7507W        W50498   4.723  17.920   6.374  0.0087 -0.0068  0.1921
 7508W        W50499  23.901  19.536   4.918 -0.0775 -0.3117 -0.2026
 7509W        W50500  13.606  15.932  26.262  0.2491 -0.0362  0.0725
 7510W        W50501  28.287  20.316  18.033  0.0139 -0.1843 -0.1083
 7511W        W50502  11.607  19.763  20.345  0.3188  0.1621  0.1745
 7512W        W50503  27.740   9.716  13.560  0.0458 -0.0241 -0.1026
 7513W        W50504  22.479  31.103  20.586  0.1349 -0.1163  0.0003
 7514W        W50505  14.684  27.266  15.109 -0.1892 -0.0782 -0.2319
 7515W        W50506  28.476  17.552  17.724 -0.0267 -0.1518  0.1619
 7516W        W50507  34.089  23.329  17.026 -0.3776 -0.2752  0.0727
 7517W        W50508  14.301  21.816   2.174 -0.1076  0.0589  0.2415
 7518W        W50509  18.203  23.352  15.206 -0.4096 -0.0034  0.0857
 7519W        W50510  16.187  24.097  16.924 -0.1097 -0.1094 -0.0782
 7520W        W50511  11.949  25.008  17.348  0.1351 -0.2376  0.1196
 7521W        W50512  24.805  14.073  18.405  0.0177  0.0963 -0.2659
 7522W        W50513  13.602  25.143  21.701  0.1923  0.4959  0.3268
 7523W        W50514  19.475  17.233   0.071  0.0874  0.2954 -0.0544
 7524W        W50515  31.156  20.285  19.724 -0.3116 -0.3394  0.0026
 7525W        W50516  27.252  14.803  19.785  0.4142 -0.2049 -0.0880
 7526W        W50517  13.438  31.348  24.095 -0.2691 -0.0886  0.1754
 7527W        W50518  25.908  12.412  22.456 -0.2076  0.3114  0.2221
 7528W        W50519  30.508  25.744  15.460 -0.3141  0.0474 -0.0653
 7529W        W50520  19.880  14.872  26.221  0.1604  0.5588 -0.2312
 7530W        W50521  23.692  10.663  19.356  0.1825  0.0263  0.3000
 7531W        W50522  33.949  11.825  17.294 -0.3880 -0.3537  0.0156
 7532W        W50523  24.099  26.398  27.296 -0.0424  0.0905  0.2159
 7533W        W50524  12.773  19.186  27.908 -0.3058 -0.0524  0.0693
 7534W        W50525   8.317  26.886  16.761 -0.1039  0.1422 -0.1138
 7535W        W50526   1.762  34.342  15.592 -0.4649 -0.0385  0.2024
 7536W        W50527  14.565   5.999   2.005 -0.1701 -0.2128  0.1157
 7537W        W50528  26.677  24.700   5.909 -0.1616 -0.3473 -0.1411
 7538W        W50529  25.542   1.355   8.060 -0.0929 -0.1080  0.0203
 7539W        W50530  17.986  24.367  25.652 -0.2489  0.0285  0.1215
 7540W        W50531  19.375  30.862   1.650  0.0232  0.2441  0.2758
 7541W        W50532  25.349  29.626  19.138  0.0228  0.1498 -0.2978
 7542W        W50533  15.904   3.682  20.071  0.1326  0.1469  0.1175
 7543W        W50534  33.466  20.204  25.701  0.0437 -0.3169 -0.0031
 7544W        W50535  17.727  10.408  15.422  0.3012  0.4363 -0.1774
 7545W        W50536  32.727  24.646   3.788 -0.0615 -0.0852  0.1711
 7546W        W50537   9.324   9.338  20.222 -0.2285 -0.2472  0.0592
 7547W        W50538  15.959  28.666  23.212  0.1559  0.0008  0.0416
 7548W        W50539  11.504  15.884  20.266  0.1669 -0.1178  0.0824
 7549W        W50540  15.570  15.051  16.678 -0.1260 -0.3254  0.1072
 7550W        W50541   5.102  20.708   7.393 -0.0302 -0.0154 -0.1883
 7551W        W50542   0.327  20.540  22.834  0.1193  0.1194  0.2401
 7552W        W50543  14.807   4.305  25.015  0.3046  0.0862 -0.0624
 7553W        W50544  26.856  33.328   0.458 -0.0583 -0.0486  0.0543
 7554W        W50545  31.669  20.587  29.186  0.2291 -0.3480  0.1923
 7555W        W50546  25.937  25.075   4.309 -0.2294  0.1599  0.0502
 7556W        W50547  23.100  14.834  23.393  0.1681  0.0604  0.0077
 7557W        W50548  16.333  30.888  22.276 -0.1284  0.0725  0.0918
 7558W        W50549   8.700  20.190  20.906  0.4087 -0.1173 -0.0190
 7559W        W50550   8.674  24.905  28.651 -0.1662 -0.2338  0.1226
 7560W        W50551  34.585  29.325  24.563 -0.0053 -0.2246 -0.1608
 7561W        W50552  21.298  16.038  24.381  0.1534  0.2650 -0.0381
 7562W        W50553   9.627  21.122  25.698 -0.0623 -0.0129 -0.0659
 7563W        W50554   8.324  17.854  19.954 -0.1102  0.2707  0.2392
 7564W        W50555  25.641  13.537  16.498  0.0231 -0.1906 -0.5012
 7565W        W50556  17.540  27.087  18.957  0.3675 -0.0260  0.0744
 7566W        W50557  16.118  25.431   3.060 -0.0920 -0.3579 -0.1419
 7567W        W50558  24.645   8.274   6.558 -0.1333  0.0735 -0.3485
 7568W        W50559  32.598  17.550   4.073 -0.1269  0.0043  0.2189
 7569W        W50560  28.118   5.471  13.962 -0.0811  0.0313 -0.2966
 7570W        W50561   0.536   1.226  19.142 -0.0766 -0.0837  0.4198
 7571W        W50562   6.076  28.262  21.467  0.2905  0.2003 -0.2517
 7572W        W50563   7.678  14.214  18.710 -0.0485 -0.2002  0.1299
 7573W        W50564  28.968  19.259  27.856  0.0662 -0.1078 -0.1397
 7574W        W50565  33.272  24.781  18.522  0.3656 -0.0162  0.0971
 7575W        W50566  32.207  22.252   6.499 -0.1273 -0.0689 -0.2170
 7576W        W50567  20.526  22.036  19.686 -0.3993  0.4398  0.0139
 7577W        W50568  20.490  16.274   1.429  0.2602 -0.2297 -0.1446
 7578W        W50569  27.990   8.017  20.443  0.1950  0.0187  0.1925
 7579W        W50570  19.499  11.943  17.190  0.0780  0.0989  0.2787
 7580W        W50571  33.083   9.963   2.149 -0.0435  0.3050 -0.0756
 7581W        W50572  12.737  21.967  21.403  0.1576  0.1585 -0.1313
 7582W        W50573  32.865  12.290  23.522  0.1701  0.0225 -0.0377
 7583W        W50574  17.311  21.571  20.616  0.2534  0.1630  0.0462
 7584W        W50575  24.536   7.578  18.286 -0.0919  0.0238 -0.1999
 7585W        W50576  26.077  30.565  26.291  0.0033  0.4869 -0.0029
 7586W        W50577   4.622  31.753  23.555  0.2549  0.1869 -0.0386
 7587W        W50578  13.201  27.201  26.493  0.3603 -0.1873 -0.0279
 7588W        W50579  13.022  22.115  18.385  0.2878 -0.1547 -0.1253
 7589W        W50580  23.474  16.843   3.442  0.2486 -0.1706  0.1741
 7590W        W50581   7.090  13.309   7.010 -0.1715 -0.0720  0.1863
 7591W        W50582  30.848  33.547  13.601 -0.0647 -0.0318  0.1762
 7592W        W50583  30.736  26.565  23.701  0.2908 -0.0061 -0.1364
 7593W        W50584  26.360  34.308  24.610 -0.1221  0.2742 -0.0667
 7594W        W50585  30.353  23.289  14.814  0.1541  0.0389 -0.1736
 7595W        W50586  22.063  29.730  15.378  0.1190 -0.0117 -0.3010
 7596W        W50587  25.235  28.018  16.279  0.2177  0.1540 -0.0087
 7597W        W50588  33.208  14.682  24.847 -0.0614  0.2181  0.2951
 7598W        W50589  20.870  25.280   8.322  0.0656  0.4557  0.0470
 7599W        W50590  21.785  11.819  21.296  0.0416  0.0494 -0.0865
 7600W        W50591  34.107  14.464   4.188 -0.0920 -0.0840  0.0762
 7601W        W50592  10.702  22.110  18.943  0.0861 -0.0519 -0.3141
 7602W        W50593  22.190  28.463   0.099 -0.1374  0.0404  0.0018
 7603W        W50594  24.618  22.250  17.091 -0.0190  0.1833 -0.0267
 7604W        W50595  19.229  34.479  15.415 -0.0530 -0.0284 -0.0067
 7605W        W50596   7.136   6.441  28.487  0.1598  0.0462  0.1406
 7606W        W50597  22.363  11.715  15.668 -0.5076  0.1900  0.3535
 7607W        W50598  16.889  33.956  24.206 -0.0112  0.2119 -0.3623
 7608W        W50599  13.615   8.855   3.097  0.0319  0.0208 -0.2559
 7609W        W50600  30.415  21.368   8.010 -0.1241 -0.1842 -0.1542
 7610W        W50601  14.272  13.827   2.807  0.0702 -0.1880  0.0739
 7611W        W50602  27.967  27.103  20.951  0.6425 -0.1182 -0.2563
 7612W        W50603  12.164  31.000   1.351  0.0704 -0.2869 -0.0879
 7613W        W50604  13.530  24.883   3.038  0.1904 -0.3130 -0.0476
 7614W        W50605  29.094  30.850  12.739  0.0064 -0.0959 -0.0797
 7615W        W50606  30.412  29.325   0.231 -0.1317 -0.0038  0.1797
 7616W        W50607  34.363  19.201  26.100 -0.2695  0.0236  0.2956
 7617W        W50608  26.900  21.141  22.441 -0.2871 -0.1240 -0.1696
 7618W        W50609  15.783  20.431  12.970 -0.0330  0.0542  0.0051
 7619W        W50610  26.457  17.887  22.358  0.0139  0.3229  0.0148
 7620W        W50611  20.165   4.678  21.038 -0.2045  0.1120  0.2195
 7621W        W50612  29.067  25.336  21.518 -0.0390  0.2193 -0.0943
 7622W        W50613  19.926  16.026   1.482  0.3278  0.1379  0.0421
 7623W        W50614  10.026  21.461  16.540 -0.1526 -0.4325  0.4502
 7624W        W50615  26.990  18.934  19.688  0.1367 -0.2540  0.0691
 7625W        W50616  21.863  25.821  24.967  0.0505 -0.1982  0.0820
 7626W        W50617  28.153  16.168  17.359 -0.1286  0.3670  0.0627
 7627W        W50618  16.490  20.364  23.574  0.2337 -0.1365  0.0296
 7628W        W50619  25.091  22.751  23.954 -0.0819  0.1003 -0.3092
 7629W        W50620  18.678  24.166  23.959 -0.3168  0.1307 -0.3146
 7630W        W50621   1.314  20.720  17.714 -0.1277 -0.0384 -0.2233
 7631W        W50622  32.196   8.613  22.476  0.1386 -0.0821  0.1504
 7632W        W50623  19.117   8.240   0.027  0.0197 -0.0312 -0.0634
 7633W        W50624  20.312  15.259  23.069  0.0120  0.0437  0.0113
 7634W        W50625   0.546  29.347   4.740  0.1621  0.2829  0.2054
 7635W        W50626  25.745  10.600  26.330  0.1472 -0.2140  0.4080
 7636W        W50627  26.393  12.186  28.540 -0.1208  0.0414 -0.2241
 7637W        W50628  24.440  10.054   4.379  0.0807 -0.2322 -0.3959
 7638W        W50629  33.507  13.238  29.170  0.1983 -0.1991  0.1290
 7639W        W50630  25.122   1.551   2.795 -0.2422 -0.1972 -0.2552
 7640W        W50631  15.090  29.126  24.331 -0.3363  0.3167  0.4503
 7641W        W50632  19.379  14.054  28.311  0.0395  0.1534 -0.3167
 7642W        W50633  19.326  30.096  15.644  0.2044  0.0189  0.1215
 7643W        W50634  33.795  26.358  13.967  0.2391 -0.1632 -0.0265
 7644W        W50635  31.043  11.274  27.717  0.3491  0.0719  0.0017
 7645W        W50636  25.122   8.301   9.500  0.0020  0.0103 -0.0982
 7646W        W50637  25.399  27.153  20.843  0.2554  0.2419 -0.1232
 7647W        W50638  27.126  21.795  19.161 -0.0271  0.0240  0.6373
 7648W        W50639  12.344  21.168  17.996 -0.1296 -0.0888 -0.3892
 7649W        W50640  26.554   8.073  27.395 -0.0389 -0.0621  0.2939
 7650W        W50641  24.633  34.681  19.841 -0.0916  0.0884  0.0077
 7651W        W50642  28.986  27.887  20.232  0.0925  0.1952  0.1806
 7652W        W50643  19.683   5.563  20.816  0.2094  0.5944  0.1054
 7653W        W50644  22.751  20.658  23.625 -0.1205  0.1125 -0.0672
 7654W        W50645   3.161  12.577  19.983  0.0559  0.3449 -0.4717
 7655W        W50646  10.317  16.998   7.421 -0.1100  0.1609 -0.1553
 7656W        W50647  26.587  10.782  15.670 -0.0358 -0.2174  0.0715
 7657W        W50648  11.869  22.108  15.166 -0.2557  0.0292  0.2214
 7658W        W50649  21.757  25.932  13.850  0.0190  0.2961  0.1606
 7659W        W50650  26.694   0.919  19.572 -0.0423  0.0666 -0.0640
 7660W        W50651  20.093  25.245  16.725 -0.1809  0.1543 -0.0300
 7661W        W50652  14.684  34.575  14.587  0.0463 -0.2121 -0.3719
 7662W        W50653  23.336  29.366  18.434  0.1146 -0.1805  0.0286
 7663W        W50654  10.638  30.283   6.128  0.2827  0.3546 -0.2157
 7664W        W50655  21.798  30.433  21.505 -0.0688 -0.0186 -0.0093
 7665W        W50656  19.686   8.959  26.193  0.2204 -0.0485 -0.1687
 7666W        W50657   7.349   7.753   1.765 -0.1568 -0.0347  0.0191
 7667W        W50658  31.461  20.140   5.463  0.2735 -0.1503  0.3064
 7668W        W50659  14.721  10.258   2.730  0.1133 -0.2123 -0.0441
 7669W        W50660  31.970  20.275  29.050  0.1525 -0.0447  0.1009
 7670W        W50661   0.713  34.116  22.875 -0.0835  0.1553 -0.0307
 7671W        W50662  13.185  31.472  21.892 -0.1928  0.4098 -0.0768
 7672W        W50663  14.456  19.529  14.210  0.2672  0.2910  0.2097
 7673W        W50664  28.127  14.030   4.685  0.3382 -0.2180  0.2277
 7674W        W50665  21.955   5.505  14.914 -0.1242  0.2649 -0.2153
 7675W        W50666  17.729  30.795  21.876  0.0655  0.2481 -0.2885
 7676W        W50667   9.248  23.313  22.601  0.3197  0.0644 -0.0039
 7677W        W50668  23.303  14.693  25.375  0.1171 -0.4207 -0.0786
 7678W        W50669  21.237   8.672  18.697  0.1478 -0.0883  0.0383
 7679W        W50670  33.808  25.164  19.480  0.0388  0.1313 -0.0063
 7680W        W50671  21.728  20.854   1.659 -0.0424  0.0619 -0.2859
 7681W        W50672  10.577  20.666  20.172  0.2136  0.1520 -0.1910
 7682W        W50673  14.068  13.616   3.259  0.0070  0.0510  0.2335
 7683W        W50674  12.855   9.228  16.504  0.0156 -0.0366  0.0462
 7684W        W50675  23.033  34.684  24.177 -0.3979  0.4974  0.0027
 7685W        W50676  20.181  25.217  21.025 -0.0777 -0.2238 -0.0729
 7686W        W50677  15.348  30.655   0.721  0.0432  0.5465  0.0944
 7687W        W50678   8.702  11.019  10.861  0.1156 -0.0647 -0.0976
 7688W        W50679  29.759  16.219   7.067 -0.1740 -0.0455 -0.0524
 7689W        W50680   1.665   8.398  19.583  0.4008  0.1121  0.0727
 7690W        W50681  28.090  22.663  23.063  0.2782 -0.0134  0.0394
 7691W        W50682  27.052  20.050  14.844  0.2927 -0.0650 -0.1985
 7692W        W50683  24.822  23.165  13.729  0.2545  0.0120 -0.1076
 7693W        W50684  26.897  14.602  18.737  0.4483 -0.1942 -0.0183
 7694W        W50685  19.549  31.800  14.819  0.1748  0.3396 -0.3902
 7695W        W50686  25.359   7.129  28.991  0.0337  0.2449  0.0463
 7696W        W50687  34.403  21.284  23.095 -0.1484  0.0558 -0.0445
 7697W        W50688  26.754  22.747  22.071 -0.3793  0.0052 -0.2381
 7698W        W50689   8.790  23.303  29.063  0.0319  0.1622  0.0205
 7699W        W50690  29.112  17.813  20.258  0.1188 -0.0381  0.3324
 7700W        W50691  21.668  19.814  15.431  0.2870  0.1131  0.5097
 7701W        W50692  33.115   1.336   0.478  0.2988  0.2864  0.0698
 7702W        W50693  30.144  14.419  25.405  0.3002  0.0768  0.1449
 7703W        W50694  32.084  26.391  24.682 -0.0497 -0.1939  0.0855
 7704W        W50695  27.678  18.420   1.424 -0.2271 -0.1059  0.2748
 7705W        W50696  16.473   2.329  21.817  0.1081  0.1494  0.4522
 7706W        W50697  29.442  28.856  21.924 -0.2193  0.2885  0.0481
 7707W        W50698  19.228  20.101  25.051  0.0795 -0.2272 -0.0448
 7708W        W50699  14.420  14.342  15.784 -0.0993 -0.1928  0.2519
 7709W        W50700  13.836  11.083  19.723 -0.2510  0.2633  0.1533
 7710W        W50701   8.323  23.905   4.480  0.2191  0.2401  0.0176
 7711W        W50702  29.265   3.901  26.152 -0.0692 -0.2757  0.1196
 7712W        W50703  30.567   5.023  17.046 -0.3086  0.1704 -0.1690
 7713W        W50704  31.744  14.334  24.182  0.1548 -0.0629 -0.0472
 7714W        W50705  22.695  28.984  28.889 -0.3186  0.0223 -0.1180
 7715W        W50706  12.977  22.210  15.173 -0.1166 -0.1919 -0.0111
 7716W        W50707  20.409  11.544  25.754  0.0181 -0.0744 -0.1443
 7717W        W50708  18.190  30.736  20.696  0.0755 -0.3259  0.0328
 7718W        W50709  20.304  20.388  26.913 -0.1520  0.0886 -0.0543
 7719W        W50710  10.124  27.773   2.030 -0.1636  0.1276  0.1611
 7720W        W50711  25.989  13.738  26.936 -0.1649  0.3942 -0.2990
 7721W        W50712  23.061  26.870   4.703 -0.0857  0.0431  0.1264
 7722W        W50713  33.734   2.382  23.680  0.0902  0.1071  0.3539
 7723W        W50714  25.871   3.315   6.230  0.1150  0.1978  0.5809
 7724W        W50715  22.585   9.225  18.951 -0.0349  0.0881  0.0293
 7725W        W50716  23.326  12.961  21.438  0.2279  0.1045 -0.1778
 7726W        W50717  30.625  14.360   4.932  0.2838  0.0938  0.1589
 7727W        W50718  19.922  19.871  14.377  0.3897  0.2288 -0.3353
 7728W        W50719  17.945  33.520  26.549  0.2008 -0.1181 -0.1515
 7729W        W50720   9.756  30.445  27.470 -0.3087  0.1131  0.0840
 7730W        W50721  10.357   8.911  21.624  0.2795 -0.2818  0.0411
 7731W        W50722  15.145  14.090  28.622 -0.2645 -0.1830 -0.1284
 7732W        W50723   8.473  15.512  14.374  0.0715 -0.1764 -0.0527
 7733W        W50724   7.045   5.557   0.326 -0.1462 -0.1074 -0.0735
 7734W        W50725  24.783  17.032  24.086 -0.1679 -0.3559  0.1250
 7735W        W50726  29.192  11.974   3.065 -0.0930 -0.4007 -0.1472
 7736W        W50727   1.731  21.413  14.400 -0.1377 -0.0354 -0.2316
 7737W        W50728  19.394   7.394  29.141 -0.1791 -0.1780 -0.0428
 7738W        W50729  25.099  23.462  15.903  0.0692 -0.3188  0.0726
 7739W        W50730  10.214  10.125  11.170  0.0160  0.1380 -0.0787
 7740W        W50731  31.605   0.014  22.312  0.1462  0.0120 -0.0774
 7741W        W50732  22.990  21.207  16.025  0.0771 -0.0055 -0.0155
 7742W        W50733  26.654  30.882  22.602  0.0412 -0.0855 -0.0437
 7743W        W50734   1.993  16.072   0.261 -0.2261 -0.1021  0.2014
 7744W        W50735   1.831  33.530  23.211 -0.0759  0.1574  0.0346
 7745W        W50736   6.097  27.259  25.714 -0.0091 -0.1687 -0.1620
 7746W        W50737  27.302  21.819  20.466  0.2218  0.2047  0.1451
 7747W        W50738  27.642   7.297  15.689  0.2851  0.0924  0.0280
 7748W        W50739   2.890  30.861  14.543 -0.1314 -0.1273 -0.1880
 7749W        W50740  25.026  24.160  25.347 -0.0378  0.1676  0.1206
 7750W        W50741  23.163  25.373  20.188 -0.2071  0.1424  0.1537
 7751W        W50742  24.188  18.337  23.123 -0.2857  0.1979 -0.0093
 7752W        W50743   7.946  27.080  27.907 -0.1988 -0.3397 -0.1197
 7753W        W50744  27.884  22.502  16.872  0.1150  0.3581  0.3005
 7754W        W50745  29.872  21.391  24.152  0.2378  0.1321  0.0967
 7755W        W50746  28.217   4.133   0.290  0.1391  0.1589  0.0205
 7756W        W50747  20.787  15.678   0.875  0.2295 -0.2420  0.0331
 7757W        W50748  30.672   6.715  21.406 -0.0436  0.0945 -0.1107
 7758W        W50749  28.129   2.975   2.795  0.1669 -0.0132 -0.0427
 7759W        W50750  29.278  31.114  23.292 -0.1183 -0.2745 -0.1817
 7760W        W50751  20.149   9.611   0.742  0.0779  0.0811  0.0287
 7761W        W50752  10.639  33.163  19.242 -0.0412 -0.0058 -0.1766
 7762W        W50753   0.538  18.445   7.216 -0.0588 -0.0810  0.0201
 7763W        W50754  25.016  30.785  23.237  0.0638 -0.1214 -0.1531
 7764W        W50755  25.049  20.877  22.199 -0.1956 -0.0575  0.2304
 7765W        W50756   6.821  16.858  27.384  0.3376 -0.1442 -0.0206
 7766W        W50757  21.022  23.205   6.137  0.1571 -0.0050  0.2036
 7767W        W50758  26.784  11.969  24.930 -0.0596 -0.1243 -0.3780
 7768W        W50759  30.767   3.613  19.645  0.1994 -0.1669 -0.1359
 7769W        W50760   2.686  31.494  23.330 -0.0896  0.1625  0.0293
 7770W        W50761  30.999  32.853   6.513 -0.1270  0.1798 -0.0275
 7771W        W50762  11.672  34.580  21.948  0.0219  0.2833 -0.0472
 7772W        W50763  14.112   0.147   7.172 -0.2181 -0.0147 -0.1162
 7773W        W50764  10.429   1.275   1.644 -0.0736 -0.2080 -0.2177
 7774W        W50765  27.964  25.735  24.190  0.1194 -0.0024  0.0573
 7775W        W50766  16.204  18.713  16.116 -0.1248  0.1106  0.2625
 7776W        W50767  28.186  27.436  23.107  0.0342  0.4226 -0.1594
 7777W        W50768  18.546  24.812  16.505 -0.0809 -0.1119 -0.1281
 7778W        W50769  15.981  17.417   3.839 -0.0343 -0.4012 -0.0130
 7779W        W50770  25.304  15.218  20.445 -0.1473  0.1118 -0.1366
 7780W        W50771  29.688  31.827  19.698  0.0638  0.1727 -0.1646
 7781W        W50772  19.733   5.646  16.725 -0.1609 -0.1548 -0.0012
 7782W        W50773  25.762  27.951  14.349 -0.3070 -0.1991 -0.1968
 7783W        W50774  22.944  17.930  15.091  0.0444  0.0801 -0.1914
 7784W        W50775   2.534  25.907  15.512 -0.1252 -0.3451 -0.0379
 7785W        W50776  24.764  22.658   5.381  0.1276  0.2226 -0.2313
 7786W        W50777  19.908  23.319  28.279  0.0264  0.0580 -0.1600
 7787W        W50778  29.633  17.173  21.900  0.2062  0.2616  0.1641
 7788W        W50779  31.435   8.618   0.941 -0.0196  0.0225 -0.0970
 7789W        W50780  25.184   8.012   2.661  0.2568  0.0416  0.0227
 7790W        W50781  13.347  33.885  28.573 -0.0605  0.0808 -0.3835
 7791W        W50782  16.160  14.334   5.121  0.0802 -0.3164 -0.0297
 7792W        W50783  13.823  17.797  17.178 -0.0152 -0.0342 -0.1672
 7793W        W50784  23.292   4.517  18.266 -0.1831  0.1051  0.1425
 7794W        W50785  22.412   1.724  23.812 -0.1677 -0.1148  0.0174
 7795W        W50786  20.027  18.184  26.559 -0.1623 -0.0595  0.1233
 7796W        W50787  30.336   5.388  21.358 -0.1742  0.1159 -0.1568
 7797W        W50788  27.121  27.199  26.633 -0.0402  0.1114  0.2079
 7798W        W50789  25.602  20.703   2.377  0.1391  0.1408 -0.1637
 7799W        W50790  26.855  31.290  20.453  0.0800 -0.1710  0.0013
 7800W        W50791  22.966  31.860  23.202  0.0276 -0.1620 -0.2941
 7801W        W50792  23.915  29.596  17.199  0.1322  0.0649  0.0632
 7802W        W50793  27.501  22.984  15.391  0.0352  0.2062  0.2500
 7803W        W50794  18.116   6.147   3.677  0.0207  0.2551  0.3197
 7804W        W50795  28.294  28.738  17.662 -0.0300 -0.0875 -0.0763
 7805W        W50796  33.126  20.987  18.566  0.1121 -0.1242  0.0143
 7806W        W50797  30.391  26.404   0.964 -0.1565 -0.2091  0.3974
 7807W        W50798  28.313  32.526  17.443 -0.0605 -0.2355 -0.3017
 7808W        W50799  17.711  20.798  13.267  0.1958 -0.0360 -0.0678
 7809W        W50800  34.015  28.084  21.836 -0.0150 -0.0120 -0.0698
 7810W        W50801  19.687  15.876  15.121  0.1239  0.1405  0.1026
 7811W        W50802  29.985   1.003  16.350  0.0153 -0.2459 -0.0511
 7812W        W50803  27.713  16.346  24.713 -0.0692  0.0417 -0.0002
 7813W        W50804  21.060  25.092  18.306 -0.0337 -0.2812  0.1689
 7814W        W50805  22.423  20.800  19.458  0.0276  0.2810 -0.0842
 7815W        W50806  29.077  27.342  15.594  0.0073  0.3009  0.1061
 7816W        W50807  31.909   7.823  17.297 -0.1443 -0.0119  0.0645
 7817W        W50808  21.012  26.980  23.809  0.0838 -0.0759  0.1321
 7818W        W50809  24.310  29.928  22.483 -0.0691  0.0818 -0.0628
 7819W        W50810  18.987  15.860   2.033  0.1164 -0.0309  0.2242
 7820W        W50811   7.230   7.286  19.428 -0.4129 -0.1607 -0.2499
 7821W        W50812  18.817  14.963  14.368 -0.0641 -0.3501  0.3445
 7822W        W50813  33.823  18.663  16.622 -0.0788  0.0033 -0.0872
 7823W        W50814   2.675  25.110  15.416  0.0187  0.1954 -0.2525
 7824W        W50815  25.826   7.892  13.227  0.0683  0.0782 -0.0296
 7825W        W50816  27.102  23.526  25.563 -0.2144  0.2310 -0.1841
 7826W        W50817  22.002  16.019  16.962  0.0609 -0.1371 -0.0685
 7827W        W50818  26.865  17.829  18.679 -0.3636  0.1446  0.0365
 7828W        W50819  23.857  30.498   2.381  0.1292 -0.2085  0.1765
 7829W        W50820  29.180  28.459  25.603 -0.1451  0.1039  0.1688
 7830W        W50821  28.376  10.607  27.160  0.1492  0.1746  0.1122
 7831W        W50822  33.680   8.268  14.380 -0.1597  0.0564 -0.4939
 7832W        W50823  11.467  33.095  19.540 -0.0559  0.0184  0.0373
 7833W        W50824   4.983  24.638  19.350  0.2754 -0.3485 -0.1312
 7834W        W50825  31.793  20.554  17.912  0.2932  0.2212 -0.2758
 7835W        W50826  15.044  26.884  23.144  0.3337  0.2487  0.0440
 7836W        W50827  12.687   6.618  16.106 -0.0447 -0.1539 -0.0091
 7837W        W50828  12.718   7.675   0.644  0.0218 -0.0793  0.1966
 7838W        W50829  19.544  20.831   8.234 -0.0871 -0.0846 -0.2772
 7839W        W50830  13.635  34.280   0.589 -0.0485 -0.0556  0.1577
 7840W        W50831  17.396   7.974  21.689 -0.2518 -0.2127 -0.4697
 7841W        W50832  19.875  13.895  13.736  0.2255 -0.0360  0.1530
 7842W        W50833  11.265  20.136  12.843 -0.1923  0.0964 -0.0400
 7843W        W50834  27.094   0.364   6.642  0.0211  0.0796  0.1946
 7844W        W50835  33.677   8.663   3.814  0.1500 -0.1312  0.0444
 7845W        W50836  26.063  18.733  19.289  0.0591  0.2498  0.1414
 7846W        W50837  28.698  19.944   5.548  0.1182  0.1204 -0.0666
 7847W        W50838  27.915  13.694  10.841 -0.0736  0.3395 -0.0600
 7848W        W50839  29.732   7.625  18.344 -0.1967  0.0129  0.1314
 7849W        W50840   0.072  31.208  28.519 -0.1562 -0.1991 -0.2435
 7850W        W50841  30.068  31.446   1.209 -0.0352  0.0363 -0.2988
 7851W        W50842   5.985   0.908  28.454  0.1829  0.0472  0.4380
 7852W        W50843  24.151  24.245  15.860  0.1691  0.4792  0.1734
 7853W        W50844  25.974  13.601  24.540 -0.1315  0.1726 -0.0360
 7854W        W50845   5.054  12.257   5.745 -0.1615 -0.1161 -0.2564
 7855W        W50846  24.962  11.613  26.765  0.0880 -0.0448  0.2847
 7856W        W50847  22.361  30.969  27.712 -0.0354  0.1736  0.2266
 7857W        W50848  26.428  26.275  27.691 -0.2982  0.0717  0.4650
 7858W        W50849  22.029   2.292  21.933 -0.0685 -0.0876  0.0214
 7859W        W50850  16.038  24.305  16.455 -0.0063  0.3479 -0.5714
 7860W        W50851  23.279  25.534  16.975  0.1806 -0.1586 -0.2419
 7861W        W50852  23.354   5.684   8.248  0.1040  0.0276  0.0585
 7862W        W50853  26.568   1.517   0.826  0.2524 -0.0965  0.2794
 7863W        W50854  26.005   0.376   3.720  0.1770  0.3995  0.3146
 7864W        W50855   6.196  25.136   6.720  0.1031  0.0273 -0.0136
 7865W        W50856  27.410   5.061   3.756  0.2773  0.0256  0.1036
 7866W        W50857  30.040  22.604   5.662  0.3100  0.0285 -0.1686
 7867W        W50858  32.287  21.031  14.589  0.1290 -0.0553 -0.1573
 7868W        W50859  14.202  32.178   3.817 -0.2584 -0.0597  0.1945
 7869W        W50860  10.644  28.913  16.865  0.3079 -0.0334  0.5025
 7870W        W50861  27.567  13.361  21.073 -0.1041  0.0153  0.1304
 7871W        W50862  15.667  29.202  24.630 -0.1138  0.0116  0.2657
 7872W        W50863  32.794  22.233  17.064 -0.0341  0.0330  0.2407
 7873W        W50864  33.470   3.967  15.790 -0.1210 -0.2107 -0.0159
 7874W        W50865  34.557  32.802  19.915  0.4655 -0.0641 -0.1916
 7875W        W50866  27.301  27.060  13.910 -0.1836 -0.0154 -0.2217
 7876W        W50867  10.553  22.748  19.613  0.1241 -0.1162 -0.2234
 7877W        W50868  33.585  23.161  21.363  0.0731 -0.1513  0.1080
 7878W        W50869   6.168  16.652   1.074  0.0656 -0.1719  0.1457
 7879W        W50870  28.510  23.571   5.588 -0.1583  0.0754  0.0581
 7880W        W50871  20.806  22.717  23.788  0.0393 -0.3787  0.1409
 7881W        W50872  30.871   0.184   0.247 -0.3114  0.1092  0.2357
 7882W        W50873  16.117   7.267  17.017 -0.0254  0.3491  0.2494
 7883W        W50874  29.646   0.318  25.682  0.2894 -0.2191  0.1128
 7884W        W50875  22.906   6.014   0.847 -0.0177 -0.0397  0.0117
 7885W        W50876  30.853  24.919  18.736 -0.0385  0.0007 -0.1015
 7886W        W50877  28.629  26.389  20.034  0.0567 -0.1981 -0.3653
 7887W        W50878  12.593  26.862  23.513  0.0830  0.1024  0.0331
 7888W        W50879  26.809  27.464   4.977  0.1783 -0.2025  0.0470
 7889W        W50880  14.863  23.284   0.446  0.2243 -0.3400  0.1075
 7890W        W50881  34.221  19.253  24.057 -0.2015 -0.0509  0.1372
 7891W        W50882  30.535   7.944  19.281 -0.0042  0.0080  0.0155
 7892W        W50883  16.381  11.516  15.682  0.3789 -0.1721  0.0271
 7893W        W50884  26.058  26.624  23.417  0.3613  0.3221  0.4010
 7894W        W50885  18.716  30.907  16.885 -0.2358 -0.2418  0.0972
 7895W        W50886  18.869  27.343  26.195  0.5099  0.2282 -0.2373
 7896W        W50887   1.047  17.852  25.199  0.1582  0.0827 -0.1213
 7897W        W50888  31.130  14.839  10.484 -0.2211  0.3772  0.1656
 7898W        W50889  30.434  23.486  27.684  0.1896  0.2766  0.0974
 7899W        W50890  23.861  11.215   0.223 -0.1506 -0.0243 -0.1766
 7900W        W50891   6.482  33.521   6.894 -0.2660  0.1267 -0.1217
 7901W        W50892  14.951  31.285  23.880 -0.2894 -0.0072 -0.3360
 7902W        W50893  34.694  26.968  22.276 -0.1862 -0.1331  0.4620
 7903W        W50894  19.973  16.958   4.582  0.1118  0.0952 -0.1590
 7904W        W50895  15.614  21.854  17.337  0.0754  0.0709  0.0390
 7905W        W50896  13.543  32.655  28.481 -0.1235 -0.1607 -0.2415
 7906W        W50897   2.490  21.771   7.885 -0.1141 -0.0191  0.2498
 7907W        W50898  22.804  17.723  23.880  0.4433  0.0146  0.1111
 7908W        W50899  24.140  29.539  20.714 -0.5202  0.0421  0.0958
 7909W        W50900  29.239  17.093  14.851  0.0612  0.0621  0.4967
 7910W        W50901  17.155  14.961  25.339  0.0162 -0.0588  0.2842
 7911W        W50902  28.970  24.549   9.286 -0.2778 -0.2463  0.1951
 7912W        W50903  31.675  19.158   1.068  0.0154  0.0509 -0.2308
 7913W        W50904  22.588  13.415  14.901  0.1259 -0.0147  0.1233
 7914W        W50905  24.177  21.056  23.946 -0.1645 -0.1268 -0.0112
 7915W        W50906  13.169  14.517  15.037  0.0609  0.0418 -0.0052
 7916W        W50907  25.496  24.947  18.093 -0.0701  0.1031 -0.1822
 7917W        W50908  10.097  30.463   7.495  0.0235  0.3824  0.1946
 7918W        W50909   4.069  20.867   5.011 -0.1775 -0.2231 -0.1911
 7919W        W50910  12.775  16.675  19.485 -0.3683  0.3097 -0.1281
 7920W        W50911  16.931  18.362  18.861 -0.2128  0.3064 -0.0083
 7921W        W50912  18.033  16.943   1.266 -0.0082  0.2565 -0.1546
 7922W        W50913   0.992  14.465   5.008 -0.2352 -0.0865 -0.0882
 7923W        W50914  30.255   7.941  17.223 -0.2425 -0.3343 -0.0205
 7924W        W50915  32.153  19.620   0.949 -0.1747 -0.0519  0.1579
 7925W        W50916  30.965  26.334   5.993 -0.0351  0.1527 -0.1555
 7926W        W50917   2.341  10.057   3.565 -0.1502 -0.1597 -0.3465
 7927W        W50918  21.391  14.046  15.997  0.4523  0.3014  0.0395
 7928W        W50919  28.927  26.024  18.671 -0.1844 -0.0450 -0.2727
 7929W        W50920  12.038  28.910  19.899 -0.1653 -0.0582 -0.0651
 7930W        W50921   8.178  28.812  20.253 -0.4374  0.2058  0.1301
 7931W        W50922  18.494  12.518  27.603 -0.0767 -0.0151  0.1496
 7932W        W50923  22.779  25.830  14.133 -0.2023 -0.3187  0.1357
 7933W        W50924  12.111  13.783  28.139  0.0411 -0.1410  0.1063
 7934W        W50925  34.282  15.178   1.349  0.1647  0.1000 -0.2682
 7935W        W50926  28.547  23.331  19.870 -0.0258 -0.0046 -0.1338
 7936W        W50927  12.695  25.988  15.629  0.3587 -0.1807  0.0868
 7937W        W50928   8.807  20.231  15.781  0.0046 -0.4272 -0.1159
 7938W        W50929  27.391   0.238  19.071  0.5381 -0.1562 -0.1768
 7939W        W50930  32.980  29.496  26.272  0.1067 -0.2371  0.2234
 7940W        W50931  12.470  23.456   0.442 -0.1243  0.1832  0.1095
 7941W        W50932  17.919  22.838  15.181  0.2441 -0.2127 -0.2647
 7942W        W50933  26.159  12.927  20.163 -0.0326  0.2263  0.3611
 7943W        W50934  17.540  12.806  14.727  0.1279 -0.0760  0.0083
 7944W        W50935  25.139  12.751  18.143  0.3971  0.3874  0.1223
 7945W        W50936   5.094  28.838  15.851  0.1273 -0.2046 -0.1714
 7946W        W50937  23.593  21.246  28.913 -0.0085  0.2740  0.0058
 7947W        W50938  15.149  23.630  22.193  0.0886 -0.1233  0.0313
 7948W        W50939   3.119  20.171  25.424 -0.1892  0.0938 -0.1639
 7949W        W50940  26.837  28.876   9.560  0.0759 -0.0353 -0.0864
 7950W        W50941  29.370  21.225  22.080  0.1937 -0.1592  0.1977
 7951W        W50942   2.471  33.788   5.675  0.2732 -0.2256  0.1273
 7952W        W50943  33.331  29.642  27.161 -0.0387  0.4031  0.1451
 7953W        W50944  14.302  24.008  20.490  0.1038  0.2364 -0.1663
 7954W        W50945  16.476  17.384   6.864  0.0346  0.1512 -0.1872
 7955W        W50946  31.244  33.888   0.564 -0.5677  0.2422  0.1101
 7956W        W50947   3.455  29.208  23.004  0.3268 -0.3112  0.2585
 7957W        W50948  30.181  22.709  25.208 -0.0755  0.1130 -0.1370
 7958W        W50949  18.056  18.221  20.384  0.1259 -0.1038  0.0341
 7959W        W50950  11.183   3.584   1.932 -0.0663  0.0059  0.0681
 7960W        W50951  25.941  21.055   8.776 -0.1412 -0.1788  0.2352
 7961W        W50952  22.306  21.315  26.475 -0.5933 -0.1128 -0.0090
 7962W        W50953  16.203   8.381  21.575 -0.0361 -0.2456  0.0499
 7963W        W50954  30.503   9.340  16.241  0.4060  0.1749 -0.1216
 7964W        W50955  34.267  16.028   4.154 -0.0129  0.0670  0.1656
 7965W        W50956  17.367  15.955  28.766 -0.1741  0.0788 -0.0449
 7966W        W50957  19.782  31.469  20.088 -0.0356  0.1236  0.1996
 7967W        W50958  19.074   1.352   0.113 -0.2427  0.1227 -0.1384
 7968W        W50959  15.895  16.374  23.207  0.1461  0.1121  0.0973
 7969W        W50960  10.655  10.540  16.257 -0.1230  0.0027  0.0121
 7970W        W50961  23.559  26.259   0.479 -0.0875 -0.2985  0.3948
 7971W        W50962  27.160   5.954  15.069  0.1284 -0.0322 -0.1182
 7972W        W50963  29.748  11.111  21.309 -0.0190 -0.0441 -0.0184
 7973W        W50964  33.581  17.695  20.971 -0.2325 -0.0204 -0.0031
 7974W        W50965  30.506  20.297  16.095  0.0243  0.2064  0.1006
 7975W        W50966  27.972  10.498  21.214 -0.1438 -0.1217 -0.1333
 7976W        W50967   1.702  20.579  21.126  0.0067  0.3542 -0.0231
 7977W        W50968  31.973   8.001  22.292 -0.0214  0.2397 -0.0607
 7978W        W50969   7.043  14.095   0.585  0.2527  0.2194 -0.3877
 7979W        W50970   8.601  24.125  26.354  0.3104  0.1193  0.2187
 7980W        W50971  20.250   4.871  24.656 -0.0372 -0.0436 -0.1771
 7981W        W50972  15.682  31.612  27.568  0.1576  0.1964 -0.0263
 7982W        W50973  26.695  12.985  24.758  0.1400  0.4243  0.0098
 7983W        W50974  31.019  24.611  28.562  0.1488  0.0393 -0.0672
 7984W        W50975  32.918  16.669  25.016 -0.0765 -0.0490  0.0708
 7985W        W50976  17.496  20.251  23.565  0.0481 -0.0012 -0.2305
 7986W        W50977   5.678  28.966  20.749  0.2299  0.0021  0.2524
 7987W        W50978  12.445   9.660  18.885 -0.0844  0.2043  0.0998
 7988W        W50979  26.717  19.549  17.114  0.1954 -0.1446  0.2657
 7989W        W50980  18.626  14.990  23.899 -0.0078 -0.0577  0.1454
 7990W        W50981  15.127  21.277   2.233 -0.2792 -0.0998  0.2951
 7991W        W50982  18.181  34.497   5.791 -0.0616  0.2004  0.3949
 7992W        W50983  31.604  30.721  28.845  0.2473  0.1069 -0.1785
 7993W        W50984  33.211  10.385   8.580  0.0114 -0.0615 -0.1956
 7994W        W50985  22.414  24.340  24.431 -0.0932 -0.3782  0.5322
 7995W        W50986  31.037  33.187  21.291 -0.2313  0.0657  0.0378
 7996W        W50987  30.594   0.951   7.684  0.2082  0.1182 -0.1755
 7997W        W50988  24.912  29.503  27.655  0.0236 -0.3267  0.0173
 7998W        W50989  13.636  17.710  27.272 -0.3170 -0.4865 -0.2276
 7999W        W50990  27.461  32.672   2.579  0.1513  0.0268 -0.3216
 8000W        W50991   2.725  23.279   5.042  0.0665  0.3175  0.1329
 8001W        W50992  21.561  31.077  26.272 -0.0701  0.0159 -0.0169
 8002W        W50993  24.576  31.578  16.074  0.2307 -0.3362  0.1267
 8003W        W50994  16.772  27.466   8.186 -0.1629  0.0900 -0.1571
 8004W        W50995  19.404  20.210  29.262  0.1107 -0.0647 -0.1565
 8005W        W50996  24.726  21.455   0.507 -0.3276  0.1615 -0.3329
 8006W        W50997  24.917  22.646   4.088 -0.1524 -0.0093 -0.1981
 8007W        W50998  22.292  33.453   3.512 -0.3481 -0.1488 -0.2979
 8008W        W50999  16.969  20.815  27.014  0.1922 -0.2089  0.1275
 8009W        W51000  19.135  21.252  20.098  0.1587  0.1815 -0.0360
 8010W        W51001  23.949  33.426  25.878 -0.1377 -0.0526 -0.1145
 8011W        W51002  25.777  32.901  22.087 -0.1433 -0.3146  0.0721
 8012W        W51003  32.841  15.121  14.971  0.2270 -0.1026 -0.2346
 8013W        W51004  27.267   1.519  20.542  0.1367 -0.1340  0.1594
 8014W        W51005  24.272  18.046   5.873 -0.1207  0.1510  0.1538
 8015W        W51006  34.602   6.855  26.118 -0.3154  0.2095 -0.1785
 8016W        W51007   0.181  10.995  18.064 -0.1751  0.3738  0.3630
 8017W        W51008  21.716  13.155   2.537  0.3333 -0.2075  0.2153
 8018W        W51009  32.239  33.349   3.433  0.1351  0.0380  0.0878
 8019W        W51010  28.511  19.959  19.690 -0.1518  0.0162 -0.1219
 8020W        W51011   3.269   9.528   1.324  0.1796 -0.0877  0.1248
 8021W        W51012   3.698  19.365  10.035  0.0327 -0.1362  0.0956
 8022W        W51013  11.841  21.506  28.147  0.2574  0.0678  0.2457
 8023W        W51014  31.709  19.505   0.669  0.1189 -0.0898 -0.1350
 8024W        W51015  18.985  23.886  14.847  0.1022 -0.1114  0.2843
 8025W        W51016  12.093  19.452   4.638  0.1842  0.0359  0.1261
 8026W        W51017  24.815  26.597   7.846  0.0315  0.0979 -0.1640
 8027W        W51018  25.713  25.814  15.885  0.0344  0.1093 -0.1592
 8028W        W51019   1.806  19.019  24.800  0.0745  0.0249  0.3928
 8029W        W51020  18.884  32.026  26.729  0.2813 -0.1808 -0.3660
 8030W        W51021  24.690  30.547  16.130 -0.4188  0.2109 -0.4773
 8031W        W51022  28.715   2.122  19.372 -0.2367 -0.1530 -0.1274
 8032W        W51023  20.056  29.713  19.552  0.5739 -0.2375 -0.1958
 8033W        W51024  25.327  28.568  27.052  0.0011  0.1390 -0.1543
 8034W        W51025  15.217   1.184   2.132 -0.0248  0.0628  0.2132
 8035W        W51026  22.282   6.436   4.658  0.0235  0.2273  0.0856
 8036W        W51027   6.070  20.724  24.499 -0.0681 -0.1842  0.4073
 8037W        W51028  29.883  18.558  29.146  0.0168 -0.0080  0.1046
 8038W        W51029  16.514  24.053   7.908  0.0848  0.0935 -0.0644
 8039W        W51030  26.021   8.520  23.297  0.2073 -0.0722  0.1092
 8040W        W51031  21.398  19.507   0.991  0.4066 -0.5752 -0.0559
 8041W        W51032  31.450  26.397  22.254  0.0407 -0.1644 -0.5120
 8042W        W51033  17.522  31.922   8.222 -0.0278  0.1340 -0.0027
 8043W        W51034   0.382  10.282  26.243 -0.2215 -0.3641  0.0945
 8044W        W51035   5.259  28.474  24.427  0.0452  0.1635  0.0127
 8045W        W51036  28.061  18.535  18.323 -0.1259 -0.0099 -0.1806
 8046W        W51037   4.133   0.578   2.120  0.0326 -0.0347  0.1520
 8047W        W51038  24.497  17.627  26.011 -0.1417  0.0460  0.1303
 8048W        W51039  32.674  18.074  19.816  0.0570 -0.1150 -0.0160
 8049W        W51040  26.438  28.927  12.697 -0.2801 -0.1197 -0.0536
 8050W        W51041  29.265  22.840  28.384 -0.1958  0.4538  0.2611
 8051W        W51042  13.320  19.496  27.327 -0.1314 -0.1134  0.0798
 8052W        W51043  24.454  22.889  28.688  0.1890 -0.0144 -0.0910
 8053W        W51044  15.301  17.433   6.703 -0.1285 -0.0785 -0.1760
 8054W        W51045  18.767  34.162   9.218  0.0772  0.0284 -0.1588
 8055W        W51046  11.098  21.793  17.351  0.2930 -0.0365 -0.1524
 8056W        W51047   5.099  13.548   4.221  0.2118  0.0673  0.1210
 8057W        W51048  31.540  14.825   0.179 -0.1715  0.0470  0.0200
 8058W        W51049  34.454  27.923   7.386 -0.1628  0.0019 -0.3243
 8059W        W51050  20.138  17.191  25.559  0.0338 -0.1959  0.1460
 8060W        W51051  20.518  34.171  26.101 -0.1435 -0.0366 -0.1123
 8061W        W51052  23.950  15.983  26.314  0.0641 -0.0009  0.2753
 8062W        W51053  21.240  16.930  28.623 -0.0096 -0.2467 -0.0774
 8063W        W51054  27.451  33.013  18.908 -0.0199  0.0075 -0.1473
 8064W        W51055  17.261  24.138   6.381 -0.1956  0.0560  0.1491
 8065W        W51056  21.555  28.952  16.640  0.4195  0.0643  0.0394
 8066W        W51057   3.503  26.909  18.125  0.2374 -0.0999 -0.1466
 8067W        W51058  33.198  29.463  19.662 -0.2944  0.0614 -0.0896
 8068W        W51059  21.611  21.193  25.682  0.1270  0.0473 -0.0019
 8069W        W51060   8.797  17.985  22.282  0.1235  0.1357 -0.4934
 8070W        W51061  19.309  11.057  20.020 -0.0738 -0.1275  0.2564
 8071W        W51062  26.882   9.190  26.195  0.0993 -0.1861  0.1772
 8072W        W51063  32.694  16.431  18.046 -0.3083 -0.4317 -0.0761
 8073W        W51064   7.193  28.145  19.251  0.1789  0.1847  0.1742
 8074W        W51065  16.409  19.563  13.053  0.1554  0.1152  0.3131
 8075W        W51066  14.315  29.235   7.798 -0.2146  0.2537  0.0428
 8076W        W51067  32.384  17.920  28.348 -0.0177 -0.3250 -0.0807
 8077W        W51068  30.916  15.729  17.363 -0.0788  0.1566  0.2737
 8078W        W51069  19.261   9.416   2.010 -0.0123  0.2097  0.0959
 8079W        W51070   5.331  20.240   2.076 -0.0149 -0.0526  0.0453
 8080W        W51071  30.847  20.473  21.848  0.1777 -0.0922 -0.0563
 8081W        W51072  16.468  22.640  26.597  0.0525  0.4230 -0.1580
 8082W        W51073  22.002  16.524  14.544 -0.3226  0.0332  0.2215
 8083W        W51074  24.073   8.384  27.069 -0.1183 -0.2230  0.1292
 8084W        W51075  16.550  28.027   5.955  0.0381 -0.0114  0.0919
 8085W        W51076  11.228  20.550   6.401  0.1529  0.2159 -0.0621
 8086W        W51077  29.210  30.510   6.559  0.0696 -0.1927  0.2999
 8087W        W51078  30.557  29.015  13.922  0.1851 -0.0981 -0.0980
 8088W        W51079  25.475  26.671  21.119 -0.2727  0.2428  0.0483
 8089W        W51080  26.062  22.686  21.255  0.1445 -0.1350  0.1756
 8090W        W51081  14.239  19.889  28.746  0.0351  0.0415 -0.1893
 8091W        W51082  16.055  32.633  23.346 -0.5301  0.1002 -0.0675
 8092W        W51083  33.988  23.745  28.435  0.1044 -0.0815  0.0082
 8093W        W51084  13.084  16.518   3.050  0.1664 -0.2525  0.2109
 8094W        W51085  33.019  13.863  28.027  0.0509  0.3209 -0.1041
 8095W        W51086  24.910   4.808   3.502 -0.0269  0.0899  0.0499
 8096W        W51087  10.914  28.956   8.912 -0.1381 -0.1257  0.0080
 8097W        W51088   5.858   3.274   6.613 -0.1281 -0.2405 -0.0208
 8098W        W51089   8.297   7.832   8.163 -0.0790  0.0060 -0.0575
 8099W        W51090  29.120  26.511   2.333  0.1566 -0.0714 -0.0979
 8100W        W51091  22.848  16.112  21.150  0.2719 -0.0147  0.2404
 8101W        W51092  21.550  19.775  27.324  0.0700  0.2603 -0.2414
 8102W        W51093  26.173   5.949   1.026  0.3048  0.0647 -0.1719
 8103W        W51094  14.568  16.197  24.095  0.1905  0.0821  0.0420
 8104W        W51095  17.826  19.741  12.550  0.1678 -0.1313  0.1774
 8105W        W51096  27.879  17.176   2.621 -0.0376  0.1380 -0.0886
 8106W        W51097  10.121  31.810  15.181  0.0480  0.0052  0.1492
 8107W        W51098  13.170  33.699  18.261 -0.1656  0.0873  0.0467
 8108W        W51099  30.789  24.020   9.281  0.1298  0.1825  0.2030
 8109W        W51100  21.374  12.133   6.219 -0.1589 -0.1501 -0.0101
 8110W        W51101   8.902  13.102  15.515 -0.2182  0.0585 -0.2887
 8111W        W51102  31.364  23.278  24.631 -0.0160 -0.3931  0.4369
 8112W        W51103   2.784   4.663  20.209 -0.5383  0.2730 -0.2183
 8113W        W51104  20.326  30.616   5.835 -0.1043 -0.3240  0.1111
 8114W        W51105  18.538  16.785  15.084 -0.0850 -0.2122 -0.1643
 8115W        W51106  22.446  19.425  24.420  0.2438 -0.2066  0.0412
 8116W        W51107  10.429  27.940  17.031 -0.1593  0.2538 -0.0522
 8117W        W51108  26.659  33.467   5.148  0.2413 -0.2712  0.0711
 8118W        W51109  21.838  11.296  21.223  0.0425  0.1277  0.0903
 8119W        W51110  10.723  16.248   1.529  0.2642 -0.3379  0.0411
 8120W        W51111   8.696  20.227  28.741  0.0128  0.0826  0.1513
 8121W        W51112  12.127  17.531   9.867  0.1046  0.1273 -0.1620
 8122W        W51113  20.852  11.720  16.532 -0.0342 -0.1943  0.0867
 8123W        W51114  24.905  19.808  21.632  0.1630 -0.1880 -0.1345
 8124W        W51115  28.801  20.152  15.364  0.2816  0.2089  0.0479
 8125W        W51116  29.003  25.367  26.214 -0.0674  0.3864  0.0925
 8126W        W51117  31.128  13.944  20.871 -0.0520 -0.2110  0.2216
 8127W        W51118  24.479  12.116   6.244 -0.1114  0.0663 -0.0091
 8128W        W51119  12.579  23.138  15.699  0.0563  0.0656  0.2565
 8129W        W51120  23.826  19.054   3.324  0.0580 -0.1050 -0.1347
 8130W        W51121   4.177  10.835  24.795  0.2053 -0.1207  0.1726
 8131W        W51122  15.991  17.779  24.346 -0.0929 -0.1127  0.0602
 8132W        W51123  30.745  23.248  19.954 -0.1423 -0.1622  0.0448
 8133W        W51124   4.147  17.228   3.129  0.0944  0.0167  0.0166
 8134W        W51125  23.902  25.329  20.737 -0.0477  0.0942 -0.1714
 8135W        W51126  11.105  27.146   2.652  0.0650  0.0088 -0.0045
 8136W        W51127  17.866  32.631  23.745  0.3012  0.3015  0.2239
 8137W        W51128   0.989   1.639  25.625 -0.1637 -0.0829 -0.2524
 8138W        W51129  22.622  26.191   1.714  0.2342  0.0303 -0.1651
 8139W        W51130  16.538   2.147   8.510 -0.3354 -0.0139 -0.0237
 8140W        W51131  20.244  19.203  25.268  0.0238  0.2700 -0.0482
 8141W        W51132  33.419  24.796  24.539 -0.0194  0.0719  0.2857
 8142W        W51133  22.546  16.716  24.311  0.1457  0.1927  0.2177
 8143W        W51134  23.425  11.044  21.065 -0.1015  0.2518 -0.1119
 8144W        W51135  19.514  15.394  23.663  0.1832 -0.1789 -0.2642
 8145W        W51136   6.764  21.717   4.196  0.0148  0.1424 -0.3798
 8146W        W51137  30.854   1.258   5.530 -0.2527  0.0303  0.0457
 8147W        W51138   8.754   5.442   2.968 -0.0167 -0.0275  0.0705
 8148W        W51139  25.091  19.353  27.415 -0.0691 -0.1892  0.0350
 8149W        W51140  27.383  31.368   4.651 -0.3385  0.2222 -0.0572
 8150W        W51141  29.271  17.635   6.705 -0.1318 -0.1760  0.0009
 8151W        W51142  13.539  18.741  25.267  0.0406 -0.0298 -0.0270
 8152W        W51143  27.812  15.401   4.126  0.0869  0.3984 -0.1310
 8153W        W51144  12.430  20.603   7.719 -0.2131  0.0143 -0.1534
 8154W        W51145  14.947  24.172  28.559  0.0502 -0.0022  0.1828
 8155W        W51146  12.892  14.417  23.920  0.5212 -0.0241 -0.0437
 8156W        W51147  34.339  16.185   9.726  0.1601 -0.3368  0.1447
 8157W        W51148  24.242  32.018  21.729 -0.1436  0.2702  0.0220
 8158W        W51149  32.135  25.217  17.489  0.1692  0.0455  0.1911
 8159W        W51150  12.252  10.518   9.149 -0.1575  0.3580 -0.0591
 8160W        W51151  29.303  24.385  20.083 -0.1645  0.1704 -0.2761
 8161W        W51152  13.990  14.965  21.670 -0.0479  0.2193  0.1076
 8162W        W51153  27.693  10.947   2.297  0.0072 -0.0354  0.0318
 8163W        W51154  13.338   8.227   8.759  0.1894 -0.1427  0.1808
 8164W        W51155  19.463  19.063   4.468  0.0226  0.0073 -0.0281
 8165W        W51156  14.469  19.818  26.755  0.1349 -0.2046  0.2391
 8166W        W51157  23.081  15.354  20.478 -0.0593 -0.1561 -0.2082
 8167W        W51158  32.177  16.380   9.154  0.1018 -0.1101 -0.0853
 8168W        W51159  13.968  23.595  23.037 -0.0181  0.2984 -0.0259
 8169W        W51160  18.923  24.119  22.810 -0.3187 -0.0695 -0.0537
 8170W        W51161  22.588  26.190   4.279 -0.2070  0.0496 -0.0101
 8171W        W51162  13.085  21.811  15.845 -0.0815  0.0139  0.0499
 8172W        W51163  24.385  22.444   8.935  0.5177  0.1362  0.1004
 8173W        W51164   3.937  34.745  18.251 -0.2655 -0.0306  0.0227
 8174W        W51165   8.029   9.265  19.807  0.4283 -0.1533  0.0622
 8175W        W51166  33.130   8.270  23.321 -0.0884  0.1696 -0.1226
 8176W        W51167  34.226  24.164  28.563 -0.0339  0.2943  0.0519
 8177W        W51168  14.546   4.037  17.420  0.3024 -0.1450  0.2734
 8178W        W51169  12.514   7.232   7.706 -0.1429  0.3059 -0.0889
 8179W        W51170  27.827  23.159  24.454 -0.1216  0.3624  0.3639
 8180W        W51171  25.620  18.097   4.548  0.0466 -0.1088 -0.0066
 8181W        W51172  17.900  23.214  29.066 -0.2458 -0.1364 -0.1434
 8182W        W51173  21.663  11.653  19.470  0.1262  0.3581 -0.0211
 8183W        W51174  22.864  26.044  22.081  0.1007  0.1251  0.0020
 8184W        W51175  23.873  21.669  24.716 -0.1150 -0.2439  0.0348
 8185W        W51176  21.655  10.824  16.012 -0.2255 -0.1438  0.1260
 8186W        W51177  26.178  19.786  18.449 -0.2585 -0.2184  0.0039
 8187W        W51178  25.080   6.954   2.882  0.3011 -0.1962  0.0052
 8188W        W51179  30.359   2.460  16.545  0.0054 -0.3918 -0.0119
 8189W        W51180  25.068  21.111  24.709 -0.1589 -0.2723  0.2548
 8190W        W51181  30.805  24.144   6.451 -0.1577  0.1566 -0.2079
 8191W        W51182   6.513   5.588  22.905  0.0734 -0.1268 -0.0739
 8192W        W51183  24.587   8.429  28.131 -0.1480  0.1745 -0.2005
 8193W        W51184  25.478   5.615  27.660  0.0290 -0.1221 -0.2884
 8194W        W51185   3.496  20.557  26.290  0.0526  0.1088  0.2860
 8195W        W51186  32.513  25.929   3.524 -0.1990 -0.0091  0.2293
 8196W        W51187  16.847  13.318   0.331 -0.0190 -0.1557  0.3024
 8197W        W51188  32.938  31.576   8.998  0.0252  0.1065 -0.3393
 8198W        W51189  12.498  20.292  26.142  0.2348  0.1067  0.1880
 8199W        W51190   4.666  10.377  22.563 -0.0231 -0.1750 -0.3904
 8200W        W51191  24.280  13.486  25.584 -0.0343  0.1970  0.0864
 8201W        W51192   0.134  23.479   0.250  0.1348 -0.1464  0.0471
 8202W        W51193  23.325  31.396  18.371  0.2481  0.0004  0.0207
 8203W        W51194  31.812  21.577   3.855 -0.1698 -0.0583  0.0659
 8204W        W51195  10.906  15.343   7.259 -0.2037  0.1344  0.1903
 8205W        W51196   8.580   8.753  27.965 -0.3417 -0.4626  0.0715
 8206W        W51197  17.930  24.713  23.356 -0.0191 -0.0835 -0.0478
 8207W        W51198  28.442   6.479  26.192  0.1043 -0.0785 -0.1704
 8208W        W51199   4.976   5.489   5.672  0.1849 -0.1735 -0.3794
 8209W        W51200  26.685  31.961  25.587 -0.0217  0.1307  0.0604
 8210W        W51201  32.213   4.293   8.408  0.1235 -0.1767 -0.0945
 8211W        W51202  23.506  12.861  18.293  0.1387  0.0191 -0.0332
 8212W        W51203  18.176  30.319   9.565 -0.1702  0.0846  0.1945
 8213W        W51204   5.463  11.164   2.801  0.2318  0.2133  0.0191
 8214W        W51205   6.228  17.238  28.755 -0.1597 -0.0521 -0.1409
 8215W        W51206  24.954  25.313   1.455  0.1482  0.0256  0.0499
 8216W        W51207  27.564  17.668   6.688  0.1704 -0.0036  0.2305
 8217W        W51208  22.651  30.674  20.789  0.0495  0.0249 -0.0532
 8218W        W51209  21.786   3.608   4.739  0.0225 -0.0704 -0.1223
 8219W        W51210  23.238   9.620  14.813 -0.2553 -0.1447  0.1791
 8220W        W51211  23.247  18.902  24.619  0.0460 -0.0858  0.1961
 8221W        W51212  26.536   9.475  28.936 -0.0122 -0.1098  0.1168
 8222W        W51213  32.906  28.625   5.827  0.2103 -0.1340  0.0813
 8223W        W51214  28.792  16.978   4.067  0.2082  0.0534  0.3533
 8224W        W51215  10.750   6.798  22.508 -0.4262 -0.0150  0.1088
 8225W        W51216  23.550  18.923  14.582  0.0916 -0.2893  0.2385
 8226W        W51217  30.112   0.767   4.277 -0.2612  0.0319 -0.0762
 8227W        W51218   4.714  26.255   8.290  0.1694 -0.1164  0.1757
 8228W        W51219  21.114   9.286  26.468 -0.2787 -0.1426 -0.1477
 8229W        W51220  34.502   6.100   3.309  0.3033 -0.4065  0.2600
 8230W        W51221  30.992  19.921  21.270  0.1810 -0.0960 -0.0979
 8231W        W51222   2.363  34.399  24.455  0.1124  0.1898 -0.1205
 8232W        W51223  31.183  15.973  26.886 -0.0789  0.0964  0.1747
 8233W        W51224   4.039   8.855  24.059  0.1950 -0.2182 -0.0726
 8234W        W51225  23.240  15.125  28.099 -0.0972  0.5691 -0.1748
 8235W        W51226   2.963  24.594   3.342  0.0545  0.2404 -0.0400
 8236W        W51227  28.040  29.529  20.713  0.1654  0.2376  0.0487
 8237W        W51228  24.038  23.393  17.531  0.2111 -0.0853  0.0938
 8238W        W51229  28.561  34.118  18.743 -0.2048 -0.0068  0.0574
 8239W        W51230  30.455  21.240  15.387  0.0942  0.2101 -0.0074
 8240W        W51231  22.616  10.040  23.905 -0.0109  0.3546  0.0092
 8241W        W51232   8.008  24.688  27.965  0.1232 -0.0486  0.0034
 8242W        W51233  24.448  13.576   7.077 -0.1490 -0.1018  0.1676
 8243W        W51234  18.995  32.694  25.478 -0.1321  0.0453 -0.4668
 8244W        W51235  33.603  18.551  21.963 -0.1937 -0.0522 -0.2550
 8245W        W51236  31.206  18.594   8.618 -0.2840 -0.1600  0.2017
 8246W        W51237  32.664  19.566   0.243  0.0701 -0.0479 -0.0120
 8247W        W51238  25.828  24.280  17.848 -0.1684  0.0054  0.0822
 8248W        W51239  14.302  24.271   1.635  0.1018 -0.1378  0.0629
 8249W        W51240  32.550  19.738  22.539 -0.0386 -0.0663 -0.1696
 8250W        W51241   9.758  16.448   8.504  0.4210  0.3535 -0.0690
 8251W        W51242  16.161  11.884  26.282  0.1120 -0.1267  0.1930
 8252W        W51243  12.423   8.757  27.424  0.1119 -0.1202  0.0182
 8253W        W51244  19.660  24.987   8.844  0.0117 -0.2892  0.3681
 8254W        W51245  10.446  32.173   3.135 -0.0267 -0.0317 -0.2726
 8255W        W51246  29.961  10.804  19.928  0.1385  0.0242 -0.2294
 8256W        W51247  23.750  28.247   8.133  0.1097 -0.0505  0.1380
 8257W        W51248  22.501  14.932   5.022 -0.1813  0.2729  0.2638
 8258W        W51249   4.750  15.138   5.271  0.2690  0.0405 -0.1800
 8259W        W51250  34.334   7.604  22.762 -0.1852  0.4003  0.1468
 8260W        W51251  16.583  22.784   5.646 -0.3377 -0.0829  0.2640
 8261W        W51252  28.215  18.615   9.294  0.0260  0.0539 -0.2341
 8262W        W51253  14.606   8.322  27.134 -0.2840 -0.3542 -0.1690
 8263W        W51254  34.790  15.858   1.765 -0.1886 -0.0172  0.3746
 8264W        W51255  30.458  16.477   2.453 -0.0304  0.0536  0.2797
 8265W        W51256  29.203  24.060   3.620 -0.0789 -0.3242 -0.2634
 8266W        W51257  24.053  23.220  17.095 -0.0456  0.1231  0.1336
 8267W        W51258  29.409  12.653   7.048  0.1223  0.0217  0.1246
 8268W        W51259  10.736  18.384   2.475 -0.2896 -0.0257 -0.2493
 8269W        W51260  22.772  14.443   7.240 -0.0054 -0.3567  0.1357
 8270W        W51261  12.687  33.648  17.210 -0.1906 -0.0696  0.0129
 8271W        W51262  25.424  20.150   3.062 -0.0644 -0.0885  0.1054
 8272W        W51263  22.040  30.871  20.702 -0.3602  0.4498 -0.2854
 8273W        W51264  33.630  29.572   9.426 -0.2404 -0.0433 -0.2420
 8274W        W51265  33.476  25.644   8.868  0.1567  0.2396 -0.1541
 8275W        W51266  10.677  18.525   0.079  0.1580 -0.1378 -0.1162
 8276W        W51267  26.738  26.371  22.952  0.0378  0.2484  0.1797
 8277W        W51268  15.197  13.009   5.420  0.2726  0.0388 -0.1023
 8278W        W51269   4.951  24.262   5.410 -0.0879 -0.1859  0.1388
 8279W        W51270  33.567   8.581  20.663 -0.0744  0.2836 -0.0645
 8280W        W51271  25.294  30.283   0.477 -0.2345  0.4182  0.2375
 8281W        W51272  21.769  31.725  21.055 -0.2359  0.1425  0.0539
 8282W        W51273  31.802  11.578  10.290  0.4086  0.0683  0.0945
 8283W        W51274  26.930  29.324  16.134 -0.1871  0.1017  0.2659
 8284W        W51275   0.416  32.028  28.944 -0.2328  0.0576 -0.1220
 8285W        W51276  30.088   2.021  26.676  0.0941  0.3622 -0.1552
 8286W        W51277  29.411  12.331  15.636 -0.0788  0.2524 -0.0508
 8287W        W51278  28.741  28.515  22.601 -0.1073  0.1647  0.3380
 8288W        W51279  23.738  24.087  25.033 -0.0044 -0.2059  0.1242
 8289W        W51280  17.550   6.395  16.161 -0.0601  0.0430  0.1489
 8290W        W51281  23.044  24.131   2.075 -0.2198  0.0532  0.1134
 8291W        W51282   3.903  24.778   7.133 -0.1026  0.4653  0.0274
 8292W        W51283  34.130   5.519  21.731  0.1364 -0.2514 -0.1499
 8293W        W51284  12.715  24.965  22.255  0.4436 -0.0101  0.1686
 8294W        W51285  27.614   3.192  25.895  0.1421  0.0638 -0.0073
 8295W        W51286  30.356  24.701  17.139  0.0724 -0.2273  0.0333
 8296W        W51287  27.729  25.781  25.159 -0.2032 -0.3135  0.0468
 8297W        W51288  18.115  14.559   0.948  0.0162  0.2692  0.1301
 8298W        W51289   7.233  24.027  28.136 -0.3876  0.4524 -0.1723
 8299W        W51290  33.136  30.296  27.178 -0.2753 -0.1231  0.0886
 8300W        W51291  16.678   3.293   9.231 -0.0239 -0.0336 -0.0143
 8301W        W51292  20.133  18.814  24.808  0.0117  0.1351 -0.1164
 8302W        W51293  33.076  11.492  18.603  0.2148 -0.5205 -0.1847
 8303W        W51294  22.977  19.043  14.328  0.0788  0.4453  0.2012
 8304W        W51295  24.899  16.901  23.199 -0.0398  0.0170 -0.1055
 8305W        W51296  32.483  26.586  23.512 -0.1806  0.3891  0.1662
 8306W        W51297  31.974   5.843  18.074 -0.0884 -0.0878  0.0664
 8307W        W51298  14.830   9.993  15.691  0.0274  0.1553  0.0545
 8308W        W51299  29.334  10.696  20.430 -0.0670 -0.3808 -0.3235
 8309W        W51300  29.830  28.582  26.518  0.0350  0.2285  0.0342
 8310W        W51301  24.783  14.376   9.958  0.0944 -0.2890  0.0928
 8311W        W51302  20.579  16.039  15.216 -0.3251  0.2670  0.2825
 8312W        W51303  11.635  33.909  26.780  0.1969 -0.0050  0.4245
 8313W        W51304  11.743  20.177   7.449  0.0095 -0.2377 -0.1996
 8314W        W51305  33.486  25.723  17.697 -0.1285  0.2376  0.2203
 8315W        W51306  15.039  30.291  20.472  0.7651  0.1416 -0.0523
 8316W        W51307   0.424   6.720  15.705  0.3491 -0.3261 -0.0833
 8317W        W51308  15.539  16.465   6.523 -0.0682 -0.2862  0.1737
 8318W        W51309   2.338  25.691  14.177  0.1017 -0.1545  0.1391
 8319W        W51310  16.614  22.709   3.551 -0.0576  0.1721 -0.2024
 8320W        W51311   7.169   6.018   3.139 -0.0112 -0.0221  0.1418
 8321W        W51312  26.695  23.636   7.486  0.3001  0.0297 -0.0680
 8322W        W51313  28.671   6.265  26.650 -0.1047 -0.0105  0.1428
 8323W        W51314  21.984  11.992   8.030 -0.0211 -0.0309 -0.0782
 8324W        W51315  19.772  21.517   1.364 -0.3301 -0.0512  0.3180
 8325W        W51316   0.241  34.064  20.941 -0.1111 -0.3977  0.0782
 8326W        W51317   1.177  33.165   5.189 -0.0340 -0.2565 -0.1312
 8327W        W51318  33.763  26.862  25.708 -0.1137  0.0133 -0.0830
 8328W        W51319   5.291   0.425  18.039 -0.0169 -0.0832  0.2439
 8329W        W51320  34.580  11.931  18.118  0.3541 -0.0488  0.2690
 8330W        W51321  30.741   1.888  23.336 -0.0076  0.4456 -0.2550
 8331W        W51322  25.356  31.205   8.098  0.1901  0.3305 -0.0572
 8332W        W51323  24.262  14.419  24.431  0.1533 -0.0418  0.0755
 8333W        W51324  32.103   7.524  16.900  0.0394 -0.1885 -0.2200
 8334W        W51325  17.915  32.305   5.115 -0.3012 -0.1246 -0.1000
 8335W        W51326   2.496   6.944  17.850 -0.1775  0.1905 -0.2321
 8336W        W51327  12.049   4.711  25.029  0.2980 -0.0281 -0.1018
 8337W        W51328  12.864  18.445  28.612  0.1561 -0.0137  0.1596
 8338W        W51329   7.165  20.327  16.834 -0.0109 -0.2017  0.1175
 8339W        W51330  20.962  25.361   5.417 -0.4316 -0.1829  0.2356
 8340W        W51331  22.016   3.080   4.592 -0.0768 -0.4856  0.0788
 8341W        W51332  11.522   5.829  15.601 -0.5016 -0.2253  0.2418
 8342W        W51333  22.041  13.283   8.131  0.1520 -0.0194 -0.0745
 8343W        W51334  21.304  28.595  23.353  0.3856  0.0144  0.0286
 8344W        W51335  22.139  25.265  28.424  0.0473  0.1596  0.3381
 8345W        W51336  34.427  16.849  25.879  0.4640  0.0924  0.3921
 8346W        W51337  22.744  26.519  26.052 -0.3848  0.0974 -0.1278
 8347W        W51338   1.109  13.297   5.993 -0.2308 -0.1049  0.0065
 8348W        W51339  23.731   6.088  28.463 -0.4651  0.2353  0.1594
 8349W        W51340   4.560  12.298   0.498  0.1198 -0.0205 -0.1012
 8350W        W51341  11.315  16.451  27.089  0.2040  0.3020  0.0587
 8351W        W51342  33.860  13.549   4.699 -0.2848  0.1612  0.1106
 8352W        W51343   7.936  15.648   1.328  0.1910  0.2388  0.0361
 8353W        W51344  15.820  32.166  22.747  0.0512  0.0680  0.1694
 8354W        W51345  15.641  13.998   2.515 -0.1233 -0.0371  0.0909
 8355W        W51346  25.795   9.837  23.421  0.0430 -0.0415 -0.5548
 8356W        W51347  28.749  29.541  19.541  0.2917 -0.0587 -0.1705
 8357W        W51348  32.307  24.889   4.987 -0.0470 -0.1471  0.0764
 8358W        W51349  20.566   9.751   8.478 -0.0847 -0.1093 -0.0901
 8359W        W51350  29.113  23.757   4.770 -0.3210 -0.5042  0.0448
 8360W        W51351  28.701   1.601   8.854  0.1153 -0.1330  0.0476
 8361W        W51352  18.581  12.470  28.091 -0.3690  0.2178 -0.0712
 8362W        W51353   6.113  23.960   7.865 -0.0639 -0.2978 -0.0690
 8363W        W51354   2.320  18.436  28.487 -0.3500  0.1802  0.0479
 8364W        W51355  33.481  26.380   4.071 -0.3088  0.2562 -0.2872
 8365W        W51356  13.309  19.398  20.206 -0.3246  0.0805 -0.1168
 8366W        W51357  29.176  27.394  19.039  0.1297  0.0637 -0.0208
 8367W        W51358  28.435   6.601   4.993  0.1558 -0.2457  0.0208
 8368W        W51359  21.396  12.988   0.288  0.2157  0.0616  0.0006
 8369W        W51360  10.307  25.366  22.023 -0.0515 -0.1153 -0.0351
 8370W        W51361  28.067   4.782   8.246 -0.4966  0.0424  0.0867
 8371W        W51362  27.453  21.510   7.525 -0.1926 -0.0392  0.1858
 8372W        W51363  22.833   2.453  22.992 -0.1714  0.1692  0.3563
 8373W        W51364   5.775  16.036  18.937  0.3456  0.1594 -0.0991
 8374W        W51365   9.234  24.121  19.124 -0.2749 -0.1104  0.0838
 8375W        W51366   9.923  13.669  18.941  0.3384 -0.1041 -0.0438
 8376W        W51367   4.927  11.805   7.201  0.1067  0.1631  0.1350
 8377W        W51368  28.020  24.096  17.927 -0.3067  0.1810 -0.2130
 8378W        W51369  33.430  22.869  15.703  0.5652 -0.1075  0.0343
 8379W        W51370  19.182  30.696   4.739 -0.1746 -0.0534  0.1143
 8380W        W51371  23.124  22.030  27.447 -0.1992  0.1791 -0.0153
 8381W        W51372  20.074  22.236  17.997  0.0509  0.0528 -0.1588
 8382W        W51373   2.737  12.801  21.562 -0.0361 -0.4110 -0.0765
 8383W        W51374  17.679  18.698   3.766  0.1329  0.0183 -0.5221
 8384W        W51375  20.272  11.747  19.574  0.1495 -0.3291  0.0710
 8385W        W51376  27.184  19.256   4.035 -0.1483  0.2028  0.0791
 8386W        W51377  13.764  25.107   2.655 -0.0168  0.1552  0.1001
 8387W        W51378  23.809  14.737  27.540  0.0351 -0.0679  0.1311
 8388W        W51379  21.890  18.691  29.193 -0.2608  0.2072 -0.3139
 8389W        W51380  26.033  31.082  22.084  0.2255  0.6332 -0.0956
 8390W        W51381  18.845  10.978  27.943  0.0210 -0.0341  0.4136
 8391W        W51382  32.943   0.587  27.805  0.1461  0.0130 -0.2740
 8392W        W51383  13.112  19.755  21.901 -0.1621  0.1826 -0.1345
 8393W        W51384  20.696  17.385  24.010  0.0455  0.2220  0.2383
 8394W        W51385  20.074  30.866   2.608  0.0608 -0.4361 -0.0403
 8395W        W51386  14.545  18.498   4.445  0.1172 -0.0876  0.1653
 8396W        W51387  13.826  14.024  20.741 -0.1455 -0.1447  0.1840
 8397W        W51388  31.993  11.841   3.585 -0.2066  0.0743  0.0719
 8398W        W51389  22.882  29.153  20.679  0.0548  0.2064  0.0376
 8399W        W51390  22.955  14.918  20.367 -0.0562 -0.1312 -0.5570
 8400W        W51391  17.746  17.925  29.167  0.0936  0.0388  0.4752
 8401W        W51392  25.063  27.665  25.706  0.0527 -0.1161 -0.0272
 8402W        W51393   6.236   9.287   5.110  0.3682 -0.3877 -0.1025
 8403W        W51394  33.886  12.562  25.582 -0.2143  0.1949 -0.2113
 8404W        W51395  12.334  10.868  27.807 -0.1460  0.1678  0.2808
 8405W        W51396  17.191  12.491  22.929  0.0394  0.2245  0.1230
 8406W        W51397  33.933  24.943  27.569 -0.1917  0.1040  0.1640
 8407W        W51398   7.249  18.279  14.984  0.0998 -0.2292 -0.3785
 8408W        W51399  29.504  22.210   5.091 -0.1580  0.0791  0.2314
 8409W        W51400  16.496  10.927   8.142  0.3425 -0.4308  0.0924
 8410W        W51401  16.648   6.694  15.192  0.0338  0.1231 -0.2360
 8411W        W51402  29.263  19.455   2.957 -0.0312 -0.0561 -0.1614
 8412W        W51403  17.187  31.083  25.385  0.0551 -0.2594 -0.0050
 8413W        W51404  34.702   0.485  27.130 -0.0479  0.1255 -0.1252
 8414W        W51405  22.645  20.202  23.934 -0.2012  0.2966 -0.2377
 8415W        W51406  11.912  18.190  19.448 -0.3546 -0.1742 -0.0055
 8416W        W51407  27.097  29.131  21.271 -0.0258  0.3469  0.2167
 8417W        W51408  18.686  24.965  21.690  0.1447 -0.0077  0.1038
 8418W        W51409  21.488  14.404  27.835 -0.3398  0.5416 -0.0654
 8419W        W51410  20.456  13.887  17.267 -0.0233 -0.0359  0.2994
 8420W        W51411  19.766  32.535  14.589 -0.1597 -0.2493 -0.2694
 8421W        W51412  11.826   1.749   5.206  0.0080 -0.2083 -0.1473
 8422W        W51413  26.350  19.380  18.217 -0.0788 -0.0170 -0.0198
 8423W        W51414  24.040  22.448  21.618  0.1951 -0.0434  0.3323
 8424W        W51415  30.417  25.348  20.488  0.1226 -0.0947 -0.0492
 8425W        W51416  32.245  28.251  14.408 -0.0930  0.1768 -0.0941
 8426W        W51417  27.249  23.420   3.216  0.0317 -0.0903 -0.2476
 8427W        W51418  21.121  10.390  14.668  0.2031 -0.3114  0.1309
 8428W        W51419  32.763  18.854  15.360 -0.2282 -0.1330  0.2724
 8429W        W51420  21.504  32.267  21.530  0.1908  0.0178  0.0739
 8430W        W51421  21.112  33.514  24.677  0.0247 -0.1536  0.2289
 8431W        W51422  26.357  11.376  25.389 -0.3070  0.0830  0.2353
 8432W        W51423  24.751  16.635  23.672 -0.1643 -0.1975 -0.1335
 8433W        W51424  24.948  23.921  15.117  0.0266 -0.0936  0.0127
 8434W        W51425  21.304  21.773  20.609 -0.0606  0.1683  0.0550
 8435W        W51426  15.392   4.269  16.890 -0.0849 -0.3314 -0.1345
 8436W        W51427  21.104  22.749  22.468  0.3238 -0.1516 -0.1040
 8437W        W51428  28.287  22.838   2.813 -0.1948  0.0653  0.1476
 8438W        W51429  16.961  10.375  14.606  0.0355 -0.0163 -0.1279
 8439W        W51430  26.011  20.432  16.194  0.0765 -0.1152  0.2727
 8440W        W51431  29.201  23.109  14.029  0.0329 -0.1005 -0.2418
 8441W        W51432  28.292  25.421  13.774 -0.0281  0.0163  0.2824
 8442W        W51433  12.061   1.547  19.218  0.3648 -0.0931  0.2614
 8443W        W51434  32.176  25.496  14.742  0.0050 -0.0981  0.2972
 8444W        W51435   5.742  19.563   2.858 -0.0800  0.0523 -0.2476
 8445W        W51436  29.234  12.500  18.977 -0.3703  0.0237  0.2657
 8446W        W51437  12.831  14.558  17.460  0.1849 -0.2156 -0.0774
 8447W        W51438  24.504  21.705  21.647 -0.0339 -0.0608  0.0866
 8448W        W51439  26.751  30.302   1.240 -0.1919 -0.0620  0.1933
 8449W        W51440   3.522   1.689   6.579  0.3273  0.0961 -0.1513
 8450W        W51441  13.078  14.180  25.723 -0.0666  0.0294 -0.0652
 8451W        W51442  30.146  18.588  23.636 -0.2621 -0.1669  0.4643
 8452W        W51443  23.481   1.126  24.951  0.1185 -0.3091 -0.0315
 8453W        W51444  21.634  20.153  21.144 -0.0952  0.0641  0.0289
 8454W        W51445  15.688   3.513  27.907 -0.1825  0.1604  0.0820
 8455W        W51446  21.845   7.727  23.078 -0.2712  0.2143  0.2678
 8456W        W51447  21.581  25.159  24.959  0.0654 -0.0883 -0.3425
 8457W        W51448  17.903  23.762  23.798  0.0010 -0.1814  0.0298
 8458W        W51449  17.729  21.159  12.797 -0.1358  0.2602 -0.2383
 8459W        W51450  28.941  33.022  26.797  0.0612  0.1808 -0.0109
 8460W        W51451  28.801   0.061  22.680  0.2852 -0.0314 -0.1470
 8461W        W51452  23.199  26.121  19.188  0.2865  0.0511  0.2071
 8462W        W51453  22.722  30.652  23.867  0.0908  0.6969 -0.2175
 8463W        W51454  30.213  20.251  14.843  0.0859 -0.1200 -0.4336
 8464W        W51455  21.765  20.868  16.972 -0.0771 -0.0008 -0.2602
 8465W        W51456  33.576  16.580  18.798 -0.1365 -0.0342  0.1181
 8466W        W51457  33.569  29.637  17.260  0.1346 -0.2052 -0.0087
 8467W        W51458  16.634  18.873  27.051  0.2433  0.0382  0.1130
 8468W        W51459   4.342  12.320  19.940  0.0896  0.2158  0.2360
 8469W        W51460  21.162  20.803  13.540 -0.3215  0.0610 -0.0367
 8470W        W51461  30.015  33.356  12.918  0.0389 -0.2458 -0.0559
 8471W        W51462  20.623  12.079  18.714  0.1342  0.3414 -0.0554
 8472W        W51463  31.691  31.790  27.335 -0.2265 -0.0774  0.1871
 8473W        W51464  28.238  29.708   0.350 -0.1233  0.0507 -0.0563
 8474W        W51465  30.289  14.148  15.416 -0.0514  0.1702  0.0471
 8475W        W51466  31.954  34.789  15.265 -0.6248 -0.0364  0.1231
 8476W        W51467  30.773  25.780  18.315  0.0152  0.3273  0.1421
 8477W        W51468  18.412  28.708  28.589  0.0224 -0.1071 -0.0781
 8478W        W51469  19.498  12.276  23.705  0.1597  0.1484 -0.1422
 8479W        W51470  17.827  28.928  22.297  0.0244 -0.2406  0.1034
 8480W        W51471   3.771   6.991  19.047 -0.0039  0.0833 -0.3461
 8481W        W51472  34.359  30.140  26.039  0.2715 -0.0383  0.1102
 8482W        W51473  14.941  30.570  23.212 -0.0392 -0.0976 -0.0400
 8483W        W51474   2.108  13.574  23.058  0.1565 -0.0362  0.3160
 8484W        W51475  20.640  27.460  15.057 -0.0966  0.1969  0.0750
 8485W        W51476  32.364  18.916  15.781 -0.0443  0.1009 -0.0477
 8486W        W51477  30.537  27.745  27.780 -0.0674  0.1765 -0.3662
 8487W        W51478  21.716   7.867  24.496 -0.2904  0.2269 -0.2359
 8488W        W51479  24.716   0.496   1.598  0.0319 -0.3790 -0.2791
 8489W        W51480  26.271  21.345  19.314  0.1301  0.2655 -0.2395
 8490W        W51481  31.918  18.828  19.703  0.2165  0.1389 -0.0513
 8491W        W51482  22.091  27.275  13.646  0.0657 -0.5016 -0.0119
 8492W        W51483  10.413   3.948  16.640 -0.2371 -0.1270  0.2289
 8493W        W51484  20.535  29.726  27.782 -0.0644  0.2845 -0.2561
 8494W        W51485  19.014  19.556  15.533 -0.0766  0.0449 -0.2145
 8495W        W51486  22.920   6.191  16.436  0.0721 -0.2172 -0.0581
 8496W        W51487  31.130  13.994  17.628  0.4387 -0.2113 -0.0277
 8497W        W51488   0.172  24.213  16.900 -0.0106 -0.0664 -0.0918
 8498W        W51489  34.675  24.479  18.107 -0.0573  0.2143 -0.2710
 8499W        W51490  29.506  30.625  24.240  0.2646 -0.2637 -0.0688
 8500W        W51491   1.689  21.147  22.741 -0.0946  0.0455 -0.2106
 8501W        W51492  16.480  24.857  22.578  0.3842  0.2335 -0.2379
 8502W        W51493  29.867  31.309  22.561  0.2797  0.3295  0.1150
 8503W        W51494  21.777  31.160  15.765 -0.1477 -0.0609  0.0823
 8504W        W51495  20.015  31.573  16.224 -0.1011 -0.0129  0.0830
 8505W        W51496  25.059   3.330  13.788 -0.0068 -0.0916  0.0229
 8506W        W51497  21.378  34.534  18.908  0.2781 -0.1928 -0.0329
 8507W        W51498  32.708  14.005  20.087 -0.1846  0.1044 -0.1023
 8508W        W51499   1.527  34.515  15.067 -0.2150  0.3715 -0.2111
 8509W        W51500  23.300  21.261  15.153  0.1213 -0.1847  0.0336
 8510W        W51501  25.653  32.291  21.954  0.0364  0.1384  0.1249
 8511W        W51502  14.954  25.416  26.223 -0.3607 -0.2579 -0.2032
 8512W        W51503  20.164  12.941  17.568 -0.0672 -0.1842  0.2776
 8513W        W51504   4.715  32.733  26.286 -0.1844 -0.1821 -0.0276
 8514W        W51505  26.521  19.245  19.776  0.2813 -0.2170  0.0793
 8515W        W51506   2.199  20.228  14.424 -0.0395 -0.3019  0.1411
 8516W        W51507  14.127  11.159  21.465  0.1640 -0.1199 -0.2917
 8517W        W51508  31.323   2.806  26.653 -0.0286 -0.1415  0.1865
 8518W        W51509   6.682  31.109  22.570 -0.0427  0.1083 -0.1732
 8519W        W51510  14.682  20.914   2.621  0.0133 -0.4290 -0.3421
 8520W        W51511  15.986  22.329  18.483 -0.1318  0.0221 -0.0622
 8521W        W51512  19.102  22.010  13.705 -0.1346 -0.0454 -0.0765
 8522W        W51513   7.279  24.762  24.742 -0.2500  0.3635  0.0532
 8523W        W51514   0.565  24.243  19.432  0.0971  0.1000 -0.1161
 8524W        W51515   7.008   8.878   2.854  0.0498  0.0679  0.0473
 8525W        W51516  19.236  20.725  19.949  0.1677 -0.0739  0.1586
 8526W        W51517  14.046  17.584  13.894  0.0816  0.1289 -0.0782
 8527W        W51518  14.529  24.758  17.222  0.0401 -0.0651  0.1306
 8528W        W51519  31.142  25.146  21.586 -0.1318 -0.0978 -0.0111
 8529W        W51520  19.604  30.591  26.417  0.4369  0.4195 -0.0327
 8530W        W51521  27.955   5.285  15.719 -0.4254 -0.1988 -0.0810
 8531W        W51522  30.640  23.764   1.487 -0.1406  0.1578 -0.0895
 8532W        W51523  17.881  11.576  18.796  0.1889 -0.1576 -0.2107
 8533W        W51524   4.392  19.900  18.435  0.2886  0.0397 -0.1851
 8534W        W51525  20.398  27.457  25.083  0.1617 -0.0296  0.4193
 8535W        W51526  30.520  23.805   8.264 -0.0046 -0.0590  0.1145
 8536W        W51527  22.911  31.566  24.096  0.1427  0.2163 -0.2247
 8537W        W51528  21.756  21.137  21.918  0.0328  0.0317  0.1651
 8538W        W51529  30.941  19.567  16.673  0.0259  0.0322  0.1292
 8539W        W51530  34.323  17.129  19.711 -0.2532  0.0116  0.1174
 8540W        W51531  27.265   0.028  14.687  0.2148  0.4674  0.0746
 8541W        W51532  15.697  21.202  16.658  0.3559  0.0350  0.0728
 8542W        W51533  23.761  30.159  25.192  0.0834  0.2090 -0.0312
 8543W        W51534  23.873  12.429  24.101 -0.1237 -0.1265  0.0163
 8544W        W51535   0.048  19.518  16.225 -0.0497 -0.2965  0.3209
 8545W        W51536  30.965  30.112  19.622 -0.1929  0.0109 -0.3190
 8546W        W51537  23.379  32.801  20.332 -0.0612  0.1264 -0.0436
 8547W        W51538  19.411  31.007  20.056 -0.0065  0.4186  0.1633
 8548W        W51539  14.422  21.860  17.493  0.1822  0.1769 -0.0062
 8549W        W51540  24.992   6.394  22.341 -0.1996  0.3477 -0.6890
 8550W        W51541  26.475  32.906  17.009 -0.2283 -0.1736  0.1492
 8551W        W51542  12.807  23.778   1.117  0.0532 -0.1129  0.0332
 8552W        W51543   7.326  26.571  14.152  0.2977 -0.2164 -0.4921
 8553W        W51544  26.147  15.046  14.099  0.2377  0.1451  0.0157
 8554W        W51545  22.439  30.936   8.351  0.1102 -0.1621  0.0520
 8555W        W51546  23.793  27.688  13.583 -0.1045  0.0381  0.1467
 8556W        W51547  30.984  32.848  15.268 -0.3390  0.0867  0.1092
 8557W        W51548  28.597  26.900  25.493  0.1842  0.1257  0.3261
 8558W        W51549  29.307  34.188  25.457  0.0657  0.0339  0.2939
 8559W        W51550  29.370  23.063  16.447  0.2147 -0.0397  0.2126
 8560W        W51551  14.523  33.020  25.323  0.0405 -0.0959 -0.0715
 8561W        W51552  15.540   8.623  25.531 -0.2362 -0.1610  0.1155
 8562W        W51553  24.880  11.689  15.725 -0.2168 -0.1375 -0.1512
 8563W        W51554  32.736  20.886  19.494  0.0025 -0.1426 -0.1908
 8564W        W51555  27.376  32.401  13.821  0.0539 -0.0294 -0.2845
 8565W        W51556  21.197  31.653  14.252 -0.1536 -0.2532  0.0296
 8566W        W51557  19.985  18.916  16.075  0.3810  0.0734  0.1718
 8567W        W51558   7.331  10.906  17.436  0.0825  0.1075 -0.1213
 8568W        W51559  13.502   7.811  27.403  0.1238  0.2069 -0.0349
 8569W        W51560  33.837   5.375  18.889 -0.2358 -0.3105 -0.2543
 8570W        W51561   0.188  20.752  21.493 -0.0586  0.1534 -0.0001
 8571W        W51562  20.553  28.806  17.487  0.2006  0.0164  0.0792
 8572W        W51563  28.068  22.134  28.388 -0.0482  0.0268  0.5506
 8573W        W51564  16.033  17.502  12.901  0.1717  0.0088  0.0982
 8574W        W51565  32.888  21.504  27.955 -0.1637  0.1408  0.2136
 8575W        W51566   2.300  20.803  24.527 -0.1603 -0.0980  0.3180
 8576W        W51567  23.915  24.038  16.398  0.2363 -0.3641  0.0221
 8577W        W51568  22.196  23.672  16.070  0.1074  0.1308  0.2567
 8578W        W51569  31.221   0.003  14.299  0.0655 -0.0885  0.1811
 8579W        W51570   2.636  18.226  22.938 -0.1852 -0.2331  0.0562
 8580W        W51571  31.703  28.485  13.808  0.2007 -0.2684 -0.4198
 8581W        W51572  16.562  25.605  14.171 -0.3069 -0.0536  0.1758
 8582W        W51573   5.198  31.134  15.342 -0.2928 -0.2302 -0.1516
 8583W        W51574  20.274  11.300  23.049 -0.2488 -0.1226  0.0675
 8584W        W51575  10.253   1.631  15.284  0.1851 -0.1479 -0.1314
 8585W        W51576  17.392  34.055   2.404  0.0196 -0.2551  0.3269
 8586W        W51577  33.487  22.439  19.930 -0.0527  0.2760  0.0408
 8587W        W51578  11.490  31.686  25.335  0.4972 -0.0231  0.1543
 8588W        W51579  26.371  18.909  20.193 -0.1678  0.2077  0.2259
 8589W        W51580  16.229  28.500  24.507 -0.0005  0.2365 -0.0183
 8590W        W51581  20.236   0.265  16.831  0.1260 -0.2260  0.1309
 8591W        W51582  27.766  28.465  16.507  0.0817 -0.2995  0.1755
 8592W        W51583  11.353  22.354  20.450  0.1501  0.0948  0.2281
 8593W        W51584   1.967  18.863  27.477 -0.1243 -0.3644  0.0988
 8594W        W51585  18.259  31.743  13.297 -0.0115 -0.3220 -0.0158
 8595W        W51586  23.103  15.784  16.839 -0.0442 -0.0004 -0.3077
 8596W        W51587  19.668  25.583  28.207  0.0850 -0.2370 -0.2016
 8597W        W51588  18.450  33.279  28.809  0.0866  0.2234 -0.0029
 8598W        W51589  21.756  11.187  16.930  0.1453 -0.0419 -0.1508
 8599W        W51590  18.452  27.717  26.176 -0.0661  0.2262 -0.2856
 8600W        W51591  14.563  17.616  17.372 -0.0814  0.1163  0.0503
 8601W        W51592  29.068  25.650  16.718  0.0236  0.2854  0.1928
 8602W        W51593  24.380  18.534  27.387  0.0907  0.0492  0.2501
 8603W        W51594   4.107  31.151  18.108 -0.3836 -0.0918  0.1663
 8604W        W51595  14.951  17.248  17.386  0.0453 -0.0886 -0.0648
 8605W        W51596  19.203  14.681  14.073  0.3333 -0.0892 -0.1285
 8606W        W51597  25.774  25.214  22.313 -0.0981 -0.1759  0.3825
 8607W        W51598  17.450  21.795  13.969  0.2413 -0.1101  0.0293
 8608W        W51599  33.151  19.267  21.528  0.3369 -0.3800 -0.2982
 8609W        W51600  30.124  14.693  16.933  0.1101  0.0134  0.1647
 8610W        W51601  26.715  18.030  16.556 -0.0622 -0.1382 -0.1397
 8611W        W51602  23.463  31.550  14.771  0.0628 -0.1226 -0.2709
 8612W        W51603  17.692  25.526  15.484 -0.0416  0.3108  0.1842
 8613W        W51604  32.545  31.573  27.027 -0.0208  0.0053  0.1018
 8614W        W51605  27.066  19.587  25.984 -0.3398  0.0273  0.1293
 8615W        W51606  19.948   0.878  14.356 -0.1684 -0.1090  0.2256
 8616W        W51607  24.831  23.734  26.467  0.0007 -0.3683  0.0761
 8617W        W51608  32.794  19.141  25.286  0.1413  0.1926  0.0240
 8618W        W51609   5.507  30.871  24.031 -0.0118 -0.1506 -0.0666
 8619W        W51610  14.614  32.018  14.116  0.4450  0.1698  0.0197
 8620W        W51611   1.088   3.176  15.349  0.0846  0.0908  0.2908
 8621W        W51612  20.664  16.528  15.065  0.0157 -0.0014  0.0651
 8622W        W51613  32.307  28.422  13.924  0.1034  0.1156 -0.0065
 8623W        W51614  20.395  17.490  15.910  0.1852 -0.0312  0.1363
 8624W        W51615  29.602  20.280  24.366  0.1652 -0.0087  0.4689
 8625W        W51616  27.026   9.731   6.654 -0.0175  0.1739  0.3915
 8626W        W51617  22.653  20.857  16.765 -0.3218  0.2258  0.1285
 8627W        W51618   1.353   6.453  23.510  0.0799 -0.1816  0.0104
 8628W        W51619  12.573  25.776  25.479  0.0164  0.1194  0.0803
 8629W        W51620   6.730   6.959  19.654  0.0406 -0.0856  0.0102
 8630W        W51621  33.752  21.589  20.436  0.2475  0.0727 -0.2004
 8631W        W51622   0.202  12.967   2.350 -0.2175  0.0277 -0.1171
 8632W        W51623  30.482  27.023  16.607  0.0879  0.0796  0.2393
 8633W        W51624  11.790  19.569  13.972 -0.1795  0.2952  0.0765
 8634W        W51625  25.931  18.404  15.207  0.0442 -0.1797  0.2586
 8635W        W51626  18.942  33.192  17.806 -0.1864  0.1690  0.0482
 8636W        W51627  23.976  16.263  21.172  0.0476 -0.1629 -0.1771
 8637W        W51628  30.045  28.141  26.372  0.0782 -0.1442  0.0257
 8638W        W51629  32.284   1.640  13.174 -0.0713 -0.0395 -0.2570
 8639W        W51630   6.563  12.652  24.964 -0.4534  0.0843  0.3314
 8640W        W51631  27.986  24.672  24.280  0.0476 -0.1006  0.1342
 8641W        W51632  14.297  25.519  17.523 -0.0666 -0.2411  0.0819
 8642W        W51633  28.320  33.823  13.125  0.0103 -0.3103  0.2410
 8643W        W51634  27.847  11.642  20.247 -0.0422 -0.0247  0.2962
 8644W        W51635   9.872  31.246  27.987 -0.2765 -0.2459 -0.0872
 8645W        W51636  20.106  24.912  18.526  0.1736 -0.1465  0.1726
 8646W        W51637  19.288  24.655  14.914  0.2127  0.0813  0.0588
 8647W        W51638  26.940  30.287  16.061 -0.0168  0.0863  0.0062
 8648W        W51639  25.450  10.306   0.933  0.2480 -0.1354 -0.0760
 8649W        W51640   0.476   1.724  17.604  0.0081  0.2593 -0.0423
 8650W        W51641  21.870   8.662  16.462 -0.1484  0.2213  0.2365
 8651W        W51642  19.425  27.203   4.693  0.2654  0.2035  0.1016
 8652W        W51643   2.801  18.811  24.704  0.2327 -0.1667 -0.1861
 8653W        W51644  15.036  23.055  14.525 -0.1045 -0.0134 -0.0140
 8654W        W51645   7.160  14.650  20.330  0.1645  0.2225  0.0624
 8655W        W51646  19.863  23.042  18.499 -0.2487  0.2452  0.2890
 8656W        W51647  26.332  29.775  14.574 -0.0337  0.0756 -0.0186
 8657W        W51648  23.010   7.500  28.259  0.2345 -0.0131  0.0816
 8658W        W51649  13.280  13.581  15.635 -0.2363  0.1372 -0.0699
 8659W        W51650   9.722   4.906  20.056 -0.3493 -0.1051  0.0856
 8660W        W51651  22.047  32.480   3.875 -0.1136 -0.0412  0.2604
 8661W        W51652  18.122  32.633  19.391 -0.0962 -0.0777 -0.1600
 8662W        W51653  23.600   4.933  13.987 -0.1079 -0.0214 -0.0680
 8663W        W51654  33.961  31.116  28.299  0.2973 -0.0547  0.0492
 8664W        W51655  34.194   3.855  21.194 -0.1436 -0.0030 -0.0369
 8665W        W51656   1.036  34.301  23.769  0.0042  0.0165 -0.1068
 8666W        W51657  15.380  29.566  21.246  0.0534  0.2726 -0.1434
 8667W        W51658  10.814  25.340  21.855  0.1903  0.0411 -0.3389
 8668W        W51659  19.651  32.300  22.554 -0.3097  0.2887  0.4394
 8669W        W51660  24.989  33.091  14.729 -0.0636 -0.0513 -0.3909
 8670W        W51661  26.562  27.409  14.654  0.1275 -0.3072  0.2121
 8671W        W51662   3.275  22.513  22.738  0.3733  0.2160  0.0773
 8672W        W51663   7.860  25.522  21.409  0.1140 -0.0669  0.1756
 8673W        W51664  29.436   0.876  22.471 -0.0356 -0.2048 -0.0853
 8674W        W51665   3.009  22.862  22.355 -0.1390  0.3322 -0.0521
 8675W        W51666  23.335  23.743  20.929  0.5085 -0.2286 -0.3023
 8676W        W51667   2.339  27.500   0.563  0.0392 -0.0913 -0.0707
 8677W        W51668  11.637  25.512   9.088  0.0424  0.1635 -0.3530
 8678W        W51669  34.284  14.724  24.743  0.0287  0.1035 -0.1075
 8679W        W51670  21.342  25.588  18.492  0.0824 -0.1714  0.1560
 8680W        W51671   9.106   5.673  18.983 -0.0588  0.0005 -0.1534
 8681W        W51672  27.768  12.363  18.015 -0.1010 -0.0440  0.1884
 8682W        W51673  16.018  27.875   3.695 -0.4197  0.0967  0.1731
 8683W        W51674   2.798  27.319  14.826  0.0998 -0.0495 -0.0740
 8684W        W51675   0.231  32.010  22.369 -0.3197 -0.3754  0.0702
 8685W        W51676  26.767  21.031  16.054 -0.2703  0.2427  0.0256
 8686W        W51677  26.700  26.491  17.035  0.0084  0.3489  0.3033
 8687W        W51678   8.638  31.911  17.271 -0.1718  0.1356  0.0974
 8688W        W51679  20.242  27.036  23.439  0.0683 -0.1191  0.0167
 8689W        W51680  12.559  15.077  16.296  0.0462 -0.1546 -0.0899
 8690W        W51681  12.127   0.277  15.519 -0.1332 -0.3369  0.1737
 8691W        W51682  12.554  20.062  15.730  0.3599 -0.4881  0.0910
 8692W        W51683  24.452  23.494  28.696 -0.0360  0.0798 -0.2557
 8693W        W51684   2.434  23.200  25.540 -0.1912 -0.1428 -0.0207
 8694W        W51685  32.403  31.345  17.793  0.2129  0.0415 -0.0153
 8695W        W51686  31.070  23.710  15.758  0.1900  0.1705  0.0253
 8696W        W51687  28.456   0.116   6.122 -0.0595 -0.0904  0.1608
 8697W        W51688  15.853   2.453  24.114 -0.3886  0.2265  0.1508
 8698W        W51689  22.714  23.099  22.833  0.2834  0.0458 -0.0198
 8699W        W51690  29.532   4.178  24.012  0.1747  0.3225 -0.2043
 8700W        W51691  33.465  24.927  22.319 -0.1884 -0.0059  0.3152
 8701W        W51692  21.566  21.780  18.879  0.1907 -0.2036  0.2307
 8702W        W51693  29.456   0.738  27.882 -0.4184  0.0280 -0.0799
 8703W        W51694   3.190  19.332   2.522  0.0502  0.2304 -0.0320
 8704W        W51695  25.174  29.483  18.103 -0.2822 -0.1381 -0.1103
 8705W        W51696  12.445   0.864  17.986  0.0179 -0.2148  0.0522
 8706W        W51697  12.758  20.698  13.145 -0.0419  0.0583  0.2554
 8707W        W51698  30.711  25.903  14.441 -0.0397  0.0610  0.0306
 8708W        W51699   6.674  33.821  18.341  0.0556 -0.2112 -0.0069
 8709W        W51700  25.715  25.703  14.914  0.0355  0.0648  0.0264
 8710W        W51701   5.153  29.601  17.319  0.2635 -0.1029 -0.3110
 8711W        W51702  25.105  18.408   6.152  0.1104 -0.1609 -0.0502
 8712W        W51703  16.907   9.665  22.384 -0.0811 -0.5502 -0.2463
 8713W        W51704   9.406  16.692   0.128 -0.2380 -0.1148 -0.0774
 8714W        W51705   3.001  29.740  17.365  0.1066 -0.1312 -0.1108
 8715W        W51706  31.884  31.758  24.557 -0.2061  0.0456 -0.0933
 8716W        W51707  31.056  21.602  16.658  0.0188  0.1459 -0.2231
 8717W        W51708   8.738  22.212  25.325  0.0482  0.1698  0.0282
 8718W        W51709  21.835  17.037  24.744  0.3767  0.1507  0.1638
 8719W        W51710  19.062   7.898  20.077  0.1862 -0.2404 -0.1310
 8720W        W51711  25.234   5.395  21.652 -0.1519 -0.0858 -0.2466
 8721W        W51712  23.867  31.133  28.933  0.0048  0.2978 -0.1355
 8722W        W51713   0.351  26.008  19.841  0.0725  0.3083  0.1543
 8723W        W51714  22.416  31.873  24.558  0.2176 -0.0382 -0.2846
 8724W        W51715  34.734  27.365   8.644 -0.0254  0.2702 -0.0887
 8725W        W51716  16.338  20.573  18.420  0.2874 -0.2616  0.3002
 8726W        W51717  21.303  26.392  20.637 -0.2913 -0.2525 -0.0749
 8727W        W51718  28.758  29.053   4.689  0.2436  0.0092 -0.3409
 8728W        W51719  25.759  16.677  15.434 -0.1481  0.0701  0.3678
 8729W        W51720  21.891   1.869  15.087  0.0633 -0.0336 -0.0250
 8730W        W51721  28.938   0.008  14.249 -0.2024 -0.2931  0.1160
 8731W        W51722  34.601  15.855  16.698  0.1535 -0.0492  0.0609
 8732W        W51723  16.553   1.884  25.046  0.1607  0.0704 -0.0996
 8733W        W51724  23.748  31.910  27.703  0.1961  0.1339 -0.0106
 8734W        W51725   0.506  18.197   1.754  0.1129  0.0091 -0.1335
 8735W        W51726  16.746  34.662   1.113  0.4334 -0.1411 -0.0498
 8736W        W51727  30.680  32.094  13.121  0.0177  0.3294  0.0537
 8737W        W51728  22.673   4.971  15.008  0.4214  0.0001 -0.1391
 8738W        W51729  23.242  17.809  16.702  0.2960  0.0206 -0.2651
 8739W        W51730  15.631  28.816   7.999  0.1223 -0.1337 -0.1758
 8740W        W51731  31.306  16.752  24.682  0.5189  0.0824 -0.0556
 8741W        W51732   8.843   0.579  25.151  0.0775  0.0967  0.1723
 8742W        W51733  20.899  13.937  21.413 -0.0544 -0.0621 -0.0571
 8743W        W51734  14.294  23.458  23.479  0.2146  0.0977 -0.2310
 8744W        W51735  32.442  10.158  27.287  0.0787  0.2888  0.0046
 8745W        W51736  34.524  27.929  18.034 -0.1675  0.0544  0.2370
 8746W        W51737  22.363   0.953  15.224 -0.0125  0.4223  0.1682
 8747W        W51738  20.027  18.132  28.000  0.0851 -0.1937 -0.2143
 8748W        W51739   5.941  28.031   2.638 -0.1152  0.3204  0.3026
 8749W        W51740  28.177   0.807  13.010 -0.2457  0.3898  0.0474
 8750W        W51741  28.091  30.457  20.593 -0.0179  0.1050 -0.0680
 8751W        W51742  26.373  19.731  28.131  0.0315 -0.1001  0.0069
 8752W        W51743   1.493   1.050  15.345  0.5085  0.0006 -0.0566
 8753W        W51744  22.442  30.893  24.550  0.0149 -0.2542 -0.0377
 8754W        W51745  31.634  23.673  20.097 -0.3195 -0.1549  0.1119
 8755W        W51746  23.602   1.850  22.220 -0.1918 -0.0995  0.2934
 8756W        W51747  32.253  34.574  14.843 -0.1199 -0.1565 -0.2578
 8757W        W51748  23.605  21.735  17.825 -0.2965  0.0041  0.0980
 8758W        W51749  19.966   2.111  17.972  0.1235 -0.1443 -0.4232
 8759W        W51750  11.371  21.654   0.170 -0.0225 -0.0047 -0.2883
 8760W        W51751  13.290  16.211  17.503 -0.0384 -0.1698  0.3175
 8761W        W51752  25.812   8.769  19.599 -0.3440  0.0849 -0.0571
 8762W        W51753  28.436  16.578  16.656  0.5183 -0.1076 -0.1072
 8763W        W51754  10.782   0.352  23.494 -0.1627 -0.1804  0.2010
 8764W        W51755  24.351  16.162  16.182  0.2240  0.2218 -0.1860
 8765W        W51756  22.371  10.613  14.446 -0.1393 -0.1325 -0.2186
 8766W        W51757  24.443  22.997  16.738 -0.1708  0.0240 -0.1071
 8767W        W51758   2.822   6.063   2.529  0.0723  0.1511  0.2463
 8768W        W51759  19.604  33.740  16.424 -0.0608  0.2569  0.1410
 8769W        W51760  26.137  34.354  27.080  0.2954 -0.1077 -0.0416
 8770W        W51761   9.219  16.977   0.686 -0.2812  0.3206 -0.1084
 8771W        W51762  26.222  31.539  26.655 -0.2369  0.0830  0.1398
 8772W        W51763   1.818  23.465   0.102 -0.2347  0.0568 -0.0647
 8773W        W51764   2.076   5.214   0.161  0.1721 -0.1897 -0.2206
 8774W        W51765  22.911  25.358  18.065 -0.0626  0.2561 -0.0564
 8775W        W51766  25.786   2.304   2.308  0.0879 -0.2726  0.0039
 8776W        W51767  22.005  20.982  13.286  0.3366  0.1328  0.2110
 8777W        W51768  33.399  18.998  22.147  0.1190 -0.0011 -0.1265
 8778W        W51769  15.308  32.555  24.031  0.1769  0.3532 -0.3408
 8779W        W51770  19.766  22.381  21.914 -0.1544  0.1781  0.0067
 8780W        W51771  23.390  26.972  18.748  0.0668 -0.0907 -0.1247
 8781W        W51772  24.639  17.839  24.757  0.3019  0.0106  0.2673
 8782W        W51773   9.995  18.368  16.651  0.1919  0.0194 -0.0373
 8783W        W51774   8.873  19.248  23.011 -0.1055 -0.1965 -0.0060
 8784W        W51775  24.434  22.621  14.723  0.2549  0.0855  0.0522
 8785W        W51776  27.792  25.212  16.748  0.0984  0.0709 -0.2346
 8786W        W51777  24.238  27.632  14.597 -0.1317  0.0511  0.0654
 8787W        W51778  20.575  30.612  18.727 -0.0750  0.2841 -0.0383
 8788W        W51779  15.309  27.257  16.688 -0.2406 -0.1027  0.1226
 8789W        W51780   8.704  26.744  19.166  0.0369 -0.1713  0.0222
 8790W        W51781  14.972  34.158   5.042  0.1340 -0.4192 -0.0785
 8791W        W51782  11.085  16.955   0.287 -0.0934 -0.3459  0.0016
 8792W        W51783  25.464  17.861   3.247  0.3217  0.1353  0.1115
 8793W        W51784  23.792  25.694  15.568  0.0112 -0.2107  0.3190
 8794W        W51785  25.858  22.536  18.082 -0.2383  0.2268 -0.1404
 8795W        W51786  19.068   8.791  27.189  0.2393 -0.0793 -0.2574
 8796W        W51787  22.386  20.939  14.959  0.0960  0.0511 -0.1743
 8797W        W51788  21.433   3.879  19.457  0.0233  0.0743 -0.0657
 8798W        W51789  29.907  17.887  19.885 -0.4874  0.1694  0.0948
 8799W        W51790  21.071  34.756   5.248 -0.1365 -0.1584  0.2568
 8800W        W51791  23.660  20.134  16.003 -0.0638 -0.1061 -0.3838
 8801W        W51792  23.375  18.121  26.301 -0.0999 -0.1731 -0.0101
 8802W        W51793  19.265  25.451   4.063 -0.0908  0.1250  0.0789
 8803W        W51794  24.846  20.451  14.222  0.3115  0.0352  0.0403
 8804W        W51795  22.045   8.491  19.305 -0.0508 -0.0389  0.0513
 8805W        W51796   1.272  24.063  15.237  0.0576  0.1997  0.0239
 8806W        W51797  23.577  30.375  22.020 -0.0539  0.2867  0.0963
 8807W        W51798  13.971  21.917   0.259 -0.1350 -0.0055  0.1308
 8808W        W51799  14.480  31.553   7.652  0.0499  0.0469  0.2495
 8809W        W51800  22.064  32.906  19.173  0.0401  0.4622 -0.3536
 8810W        W51801  32.466  27.307  13.551  0.1499  0.0689  0.1083
 8811W        W51802  21.611  20.086  13.202 -0.3169 -0.1532  0.0260
 8812W        W51803  15.134   2.749   2.683  0.0815  0.2208  0.0202
 8813W        W51804  18.588  18.728   2.010  0.2315  0.0898 -0.2545
 8814W        W51805  21.141  25.597  23.793 -0.3123 -0.0570 -0.1429
 8815W        W51806  21.867  33.792   1.233  0.0592 -0.0235  0.1718
 8816W        W51807  21.280  11.920  14.695 -0.0607 -0.1662 -0.0807
 8817W        W51808  20.003  12.870   0.735  0.3408 -0.0777  0.2500
 8818W        W51809  20.400  27.250  16.840 -0.3186 -0.2646 -0.0469
 8819W        W51810  27.274  11.068  24.154 -0.1014 -0.0460  0.2125
 8820W        W51811  20.467  17.543  16.401  0.1491 -0.1135 -0.4202
 8821W        W51812  13.284  29.838  20.152 -0.1342  0.2205  0.0145
 8822W        W51813  16.223  25.778  15.605 -0.0424  0.2332 -0.0429
 8823W        W51814  15.484  34.756  17.553 -0.0157  0.0849 -0.2621
 8824W        W51815   7.089  31.369  27.029  0.2018  0.0492  0.2181
 8825W        W51816  24.569  25.941  21.747  0.0445 -0.0078  0.0261
 8826W        W51817  14.255  34.591  21.598  0.1648 -0.3522 -0.2214
 8827W        W51818  16.740  24.275  17.564  0.1396 -0.2351  0.1634
 8828W        W51819   4.595  28.046  25.080  0.1166  0.1467  0.1037
 8829W        W51820  28.579  33.487   3.457  0.0973 -0.0466  0.2498
 8830W        W51821  20.301  33.668  19.870 -0.0127 -0.1380 -0.0829
 8831W        W51822  26.197  30.191  28.234  0.3390  0.0680  0.0952
 8832W        W51823  24.727  19.899  17.717  0.0151 -0.0178  0.1469
 8833W        W51824  29.922   5.255  20.485  0.0317  0.1781 -0.0566
 8834W        W51825  33.078  12.258  27.079 -0.2198  0.0112  0.0219
 8835W        W51826   6.674   0.865  24.249  0.0757 -0.0884  0.1558
 8836W        W51827  22.223   8.661  27.910 -0.0808 -0.2356 -0.1011
 8837W        W51828   9.002  13.593   2.724  0.2944  0.0815  0.1168
 8838W        W51829  26.804  20.627  26.827  0.2855  0.0299 -0.0007
 8839W        W51830  21.196  16.509   7.058  0.0837 -0.1981  0.1907
 8840W        W51831  26.881   5.124  15.483 -0.2570  0.1556 -0.1611
 8841W        W51832  24.345  24.175   2.061 -0.3202  0.2546  0.0556
 8842W        W51833   2.702  21.311  21.981 -0.3090 -0.1813  0.0806
 8843W        W51834  22.694  17.196  25.657  0.0862 -0.0127  0.0356
 8844W        W51835  16.843  27.322  19.290 -0.1208 -0.3274  0.1042
 8845W        W51836   3.209  33.578   3.759 -0.2028  0.5765 -0.1310
 8846W        W51837  14.788  28.692  21.504  0.0658  0.1552 -0.1964
 8847W        W51838  33.972  28.140  16.732  0.1426 -0.1769  0.0964
 8848W        W51839  30.108  21.510  16.710 -0.1155 -0.3823 -0.2419
 8849W        W51840  16.362  17.946  15.588 -0.0751 -0.1338  0.0550
 8850W        W51841  26.631   3.407  19.308  0.0520  0.0298  0.1777
 8851W        W51842  20.208  24.194  16.680 -0.1954 -0.2304  0.1223
 8852W        W51843  20.077  31.766  19.229 -0.2459 -0.0999 -0.1673
 8853W        W51844  25.571   0.510  14.672  0.1425  0.0851 -0.2377
 8854W        W51845  33.977  24.519   0.485 -0.2271 -0.1544 -0.2713
 8855W        W51846  25.548   2.209  16.343  0.1745  0.1653 -0.0941
 8856W        W51847  30.875  12.049   1.260 -0.1168  0.1995 -0.1103
 8857W        W51848   1.671  31.391  20.832  0.2058  0.1003  0.0522
 8858W        W51849  34.605  31.456  18.381 -0.0614 -0.2420  0.3371
 8859W        W51850  18.696  33.291  15.852  0.0463  0.0358 -0.0587
 8860W        W51851  33.403  22.658   7.091  0.1817 -0.1294  0.2169
 8861W        W51852  12.261  16.506  17.212  0.1084  0.1649  0.2264
 8862W        W51853  20.786  33.212  26.700  0.2989  0.1647 -0.2908
 8863W        W51854   0.418  24.538  15.247  0.1285  0.0744  0.1794
 8864W        W51855  29.316  26.305  21.949  0.0465 -0.0975  0.2497
 8865W        W51856  27.986  18.683   5.482 -0.1677 -0.0738 -0.2258
 8866W        W51857  12.162  34.039  25.986  0.1165 -0.4110  0.0743
 8867W        W51858  10.754   8.539  17.319  0.2982  0.2788  0.3132
 8868W        W51859  17.866  30.594  14.604 -0.1255  0.0635  0.3820
 8869W        W51860  23.486   8.535  15.845 -0.0160  0.4024 -0.1570
 8870W        W51861  22.716  20.546  25.482  0.0881 -0.0148  0.4350
 8871W        W51862  20.301  25.353  25.775 -0.2510 -0.0973 -0.0631
 8872W        W51863  29.425  26.918  18.468 -0.0173 -0.0050  0.2599
 8873W        W51864   3.628  31.818  28.340 -0.2610  0.1395 -0.0066
 8874W        W51865   0.040   9.040  26.912  0.0919 -0.1811  0.1153
 8875W        W51866  28.932  29.279  13.140  0.1648  0.0098 -0.0708
 8876W        W51867  19.355  32.745   1.917 -0.2005 -0.0209  0.2197
 8877W        W51868  27.657  25.691  23.332  0.2399  0.1442  0.1239
 8878W        W51869  12.812  17.773  28.110  0.0299  0.0764 -0.1289
 8879W        W51870   7.023  25.632  22.520 -0.0964 -0.1775 -0.3599
 8880W        W51871  22.146  19.658  27.302  0.1888  0.0308 -0.0757
 8881W        W51872  15.740   9.817   1.632  0.1490 -0.0059  0.2871
 8882W        W51873  28.226  25.575  28.267 -0.2166  0.1515 -0.1897
 8883W        W51874  12.063  27.903  16.838 -0.2141 -0.0437  0.0801
 8884W        W51875  33.046  20.969  14.186 -0.0390  0.2099 -0.1509
 8885W        W51876  22.897  20.161  23.463 -0.0272 -0.0564 -0.3118
 8886W        W51877   8.608  21.315  17.222  0.3710  0.2831  0.1990
 8887W        W51878  18.073  30.825  18.604 -0.0095  0.1870 -0.0738
 8888W        W51879  24.719  28.255  19.493 -0.0165 -0.2747  0.1050
 8889W        W51880  15.311  13.455  19.446  0.4083 -0.1217 -0.1985
 8890W        W51881  21.825  25.368  21.144 -0.0167  0.0142  0.1100
 8891W        W51882  21.683  20.489  25.676 -0.1999 -0.0881 -0.0831
 8892W        W51883   7.968  32.649  26.033  0.2408 -0.0121 -0.1650
 8893W        W51884   4.787  23.361  22.567 -0.0542  0.0754  0.2188
 8894W        W51885  13.887  31.634  21.274  0.0544  0.2337 -0.2593
 8895W        W51886  19.673  31.203  16.727  0.2588  0.1854  0.2388
 8896W        W51887  18.465  30.225   2.683 -0.1541 -0.0467 -0.1408
 8897W        W51888  22.009  21.477  17.991 -0.0091 -0.1042 -0.2032
 8898W        W51889  28.358  29.227  24.234  0.1214 -0.0413  0.0850
 8899W        W51890  27.879  21.947  21.240  0.0248 -0.0628  0.1190
 8900W        W51891  26.951  23.147  14.122  0.1032  0.1696 -0.1006
 8901W        W51892   3.869  28.133  17.307  0.3087 -0.1875 -0.2198
 8902W        W51893  14.257  21.455  24.098 -0.3430  0.0947 -0.0898
 8903W        W51894  18.073  16.161   6.802 -0.1211  0.3237 -0.1634
 8904W        W51895  15.455  32.290  24.981  0.3327  0.0531  0.3707
 8905W        W51896  32.753  20.677  22.823 -0.1917  0.1206  0.0848
 8906W        W51897  25.733  14.855  23.278  0.0336 -0.2095  0.0577
 8907W        W51898   0.698  11.830  17.726 -0.1273  0.1014  0.2737
 8908W        W51899  26.835   1.286  23.775 -0.1208 -0.1725  0.0746
 8909W        W51900   8.661  29.404  15.993  0.1305 -0.0147 -0.2926
 8910W        W51901  24.227   2.250  21.645  0.1494  0.1805 -0.3517
 8911W        W51902  28.009  20.688  17.874  0.1013  0.0595  0.0589
 8912W        W51903  18.274  23.783  14.921  0.0351  0.0882  0.1694
 8913W        W51904   4.079  28.941  19.867  0.0829  0.2712  0.2071
 8914W        W51905   3.270  33.760   7.294  0.1133  0.0472 -0.1916
 8915W        W51906   3.840  32.826  25.429 -0.1285 -0.3557  0.1134
 8916W        W51907   3.199  32.741  14.371 -0.0140 -0.0603 -0.2785
 8917W        W51908  22.637  19.702  22.635 -0.0884  0.1793  0.0223
 8918W        W51909  31.990  28.625  15.205 -0.2451  0.0169  0.0635
 8919W        W51910  27.525  18.448  17.364 -0.0227  0.1531 -0.2227
 8920W        W51911  16.454  21.903  20.821  0.2176  0.3050  0.2550
 8921W        W51912  20.517  14.051  18.429 -0.1892  0.1204 -0.4665
 8922W        W51913  25.546  30.880  13.708 -0.1409 -0.2034  0.0823
 8923W        W51914   9.063  17.721  17.913  0.1752 -0.1750  0.0584
 8924W        W51915  23.369   0.607  17.462  0.0352 -0.3802  0.1385
 8925W        W51916  14.001  32.631   4.865  0.0574 -0.1661 -0.1431
 8926W        W51917  18.389  14.917  26.473 -0.0775  0.0987 -0.1469
 8927W        W51918  28.680  30.681  23.199  0.1247 -0.2771 -0.0152
 8928W        W51919  24.676  18.928   1.034  0.1223  0.0437 -0.0662
 8929W        W51920  20.818  20.655  21.874  0.0770 -0.1101 -0.1859
 8930W        W51921  22.063  26.592  18.959  0.2714 -0.1158  0.0756
 8931W        W51922   9.713  26.503  25.766 -0.0751 -0.1577 -0.3893
 8932W        W51923  22.433   1.463  17.589 -0.2559  0.2769  0.0365
 8933W        W51924  25.007  21.832  13.718  0.3618  0.2472 -0.2539
 8934W        W51925  33.622  22.648  18.120 -0.1345 -0.0720  0.0292
 8935W        W51926  30.030  20.965   0.245  0.1359  0.2585  0.0375
 8936W        W51927  34.161  32.544  20.224  0.0960  0.2603  0.0445
 8937W        W51928   8.716  28.090   1.134  0.2672 -0.2177 -0.3051
 8938W        W51929  27.718  16.182  22.605 -0.0351 -0.2641 -0.0905
 8939W        W51930  24.825   5.743  16.367 -0.0267 -0.0732 -0.0781
 8940W        W51931  15.434   7.767  27.618  0.0803  0.2354 -0.0882
 8941W        W51932   4.395  23.966  27.527  0.1665 -0.0619 -0.2498
 8942W        W51933  31.227  27.639  27.094 -0.0374  0.0119 -0.4522
 8943W        W51934  23.812  21.651  14.020  0.0988  0.1573 -0.0275
 8944W        W51935  31.663  24.006  22.799  0.2898  0.0763  0.0153
 8945W        W51936  25.246   2.184   1.439  0.1116  0.1072 -0.0681
 8946W        W51937  20.759  19.589   4.649 -0.1149 -0.0829  0.1568
 8947W        W51938   3.885  10.878   1.304  0.0093 -0.1138 -0.2928
 8948W        W51939  14.670  22.019  19.249 -0.0527  0.1615 -0.1466
 8949W        W51940  26.464  13.740  16.937 -0.2636  0.0111  0.2117
 8950W        W51941   0.462  33.347  20.402  0.0049  0.0537  0.2543
 8951W        W51942  30.083  20.822  23.997 -0.1910  0.1109 -0.2306
 8952W        W51943  29.039  19.951  14.626 -0.3553 -0.1187  0.2107
 8953W        W51944  21.888  26.291  13.290  0.1405 -0.3967 -0.3067
 8954W        W51945  22.437  21.809  18.360  0.0980  0.2865  0.0422
 8955W        W51946  14.399  24.728  18.243 -0.0908  0.0736 -0.1437
 8956W        W51947   2.254  18.738  20.543  0.0107 -0.0609 -0.3538
 8957W        W51948  24.418  16.679  24.465  0.1512 -0.0089  0.1057
 8958W        W51949  15.414  32.603  19.512 -0.2574  0.3241 -0.0743
 8959W        W51950   0.630  31.891  16.864  0.3618  0.1041  0.2852
 8960W        W51951  23.815  34.233  26.767 -0.2187 -0.0857 -0.1048
 8961W        W51952  19.806  26.839  19.236 -0.1287 -0.0381 -0.2425
 8962W        W51953  16.630  26.832   0.335 -0.1901  0.0490  0.3098
 8963W        W51954  11.990  29.173  22.877 -0.0669  0.1204 -0.0951
 8964W        W51955   8.759  27.813  28.228 -0.0507  0.2727  0.1105
 8965W        W51956  16.670  29.065  24.360 -0.3291 -0.1970  0.1821
 8966W        W51957  21.255   0.691   4.002 -0.0418 -0.3353 -0.0030
 8967W        W51958  15.705  13.142  20.292 -0.0454  0.0038 -0.0690
 8968W        W51959  12.900  24.401   0.872  0.1160  0.3188 -0.1628
 8969W        W51960  22.314  13.458  22.306  0.0723 -0.3046 -0.1964
 8970W        W51961   0.375   6.232  26.509  0.0096 -0.2376  0.0123
 8971W        W51962  26.908  25.093  20.149  0.0654  0.1351  0.1768
 8972W        W51963  23.828  21.190   3.295 -0.3678 -0.1306 -0.0893
 8973W        W51964   5.474  20.498  26.912  0.1580  0.2290 -0.0128
 8974W        W51965  20.079   8.764  24.529 -0.1149  0.1519 -0.1279
 8975W        W51966  25.578  12.647  18.454  0.2775  0.2429  0.0719
 8976W        W51967   2.250  11.643  27.296 -0.1308  0.1521 -0.2328
 8977W        W51968  23.262  34.408  14.136 -0.0832  0.1887  0.3132
 8978W        W51969   6.579  27.278  20.523 -0.2876 -0.1406 -0.2718
 8979W        W51970   5.278   4.282  26.547  0.2228  0.2807  0.0306
 8980W        W51971  13.310  15.755  19.877  0.1943 -0.3052  0.0171
 8981W        W51972   1.653  22.936  13.680  0.0363  0.1551  0.5131
 8982W        W51973  24.349  24.354  25.812  0.3366 -0.0572  0.0193
 8983W        W51974  27.718  32.827   0.036  0.2547 -0.1636  0.1342
 8984W        W51975  27.652  10.347  25.093 -0.1451 -0.1242  0.0430
 8985W        W51976  26.296  30.634  26.939 -0.1074 -0.1357 -0.3314
 8986W        W51977   2.626  25.166   7.067  0.0010 -0.1447 -0.3531
 8987W        W51978  16.956  23.790  27.182  0.2621  0.0099  0.3549
 8988W        W51979  34.674  28.991  19.896  0.4129 -0.4688  0.1624
 8989W        W51980  15.461   5.941   2.597  0.1511  0.0473 -0.1551
 8990W        W51981  28.619  25.380  21.417  0.0562  0.1898 -0.1446
 8991W        W51982  34.097  32.370  19.753 -0.1268  0.2490 -0.0690
 8992W        W51983  28.275  34.135  14.195  0.1623 -0.0456  0.2215
 8993W        W51984  24.150  31.587  23.838 -0.1745 -0.2415 -0.0686
 8994W        W51985  24.338  27.844   0.784  0.0717  0.2465  0.3913
 8995W        W51986   4.432  28.238  14.802  0.1139 -0.1953 -0.1653
 8996W        W51987  24.958   0.250  26.419 -0.1905 -0.1244  0.1211
 8997W        W51988  23.321  16.747  14.971  0.1760  0.0019 -0.0917
 8998W        W51989   1.630  13.858  29.259 -0.2394  0.2235 -0.3535
 8999W        W51990  21.402  33.690   0.016 -0.0784 -0.0293  0.1883
 9000W        W51991  22.028  24.509  14.685  0.0177  0.2551  0.1232
 9001W        W51992  24.206  22.375   8.405 -0.1327  0.4713 -0.0270
 9002W        W51993  11.000   9.219  26.697  0.1007  0.1483 -0.0042
 9003W        W51994  11.400  33.393  27.156  0.1165 -0.0761  0.4136
 9004W        W51995  29.316  19.064  15.426 -0.1219  0.2390  0.0229
 9005W        W51996  28.273  29.423  26.838 -0.1318 -0.0528 -0.0372
 9006W        W51997   9.992  26.761  25.432 -0.0189 -0.2598 -0.1296
 9007W        W51998  10.784  28.445  24.367  0.2299 -0.0680 -0.1746
 9008W        W51999  24.201  27.615   3.451  0.0957  0.1222  0.1899
 9009W        W52000  17.602  22.045  19.121  0.0628 -0.1512 -0.2021
 9010W        W52001  14.364  20.858   3.106  0.2299 -0.3329 -0.0188
 9011W        W52002  17.288  25.973  26.849 -0.4626  0.0463  0.3108
 9012W        W52003  10.027  19.246  25.774 -0.3050  0.3302 -0.2278
 9013W        W52004  32.128   8.298  27.902  0.0880  0.1947  0.3310
 9014W        W52005  14.993  25.278  22.321 -0.0137 -0.3704  0.1172
 9015W        W52006  28.811  28.885  18.584 -0.1870  0.3479  0.1046
 9016W        W52007  30.418   0.985  22.789  0.2996  0.0831 -0.1393
 9017W        W52008  13.307  21.088   8.233 -0.0095 -0.0792  0.2410
 9018W        W52009  26.117  28.076  28.293  0.1964  0.2786 -0.0365
 9019W        W52010  18.809   8.671  23.844  0.2924 -0.1381  0.1810
 9020W        W52011  29.586  29.577  15.148  0.0699 -0.1795 -0.0051
 9021W        W52012  26.370  28.757  20.830  0.2559 -0.3274  0.0417
 9022W        W52013  24.447  33.642  16.409  0.2190 -0.0954 -0.0343
 9023W        W52014  27.563  10.445  21.533 -0.2253  0.1201 -0.1907
 9024W        W52015  10.318  33.327  22.632  0.1761 -0.0804 -0.0375
 9025W        W52016   2.346  30.403  28.594  0.1467 -0.2176 -0.0926
 9026W        W52017  13.554  21.339   2.595 -0.0781 -0.0492  0.0248
 9027W        W52018  19.561  30.862  18.458  0.0629 -0.1672 -0.1430
 9028W        W52019   7.604  22.294  23.796 -0.0594  0.0054 -0.0157
 9029W        W52020  24.845  31.088   3.197 -0.2009 -0.2707  0.0587
 9030W        W52021   0.299  26.411  15.131  0.1622 -0.2277 -0.0883
 9031W        W52022  24.960  26.334  27.392  0.0846 -0.0562  0.0993
 9032W        W52023  31.400  32.517  20.144 -0.1102  0.0520 -0.0024
 9033W        W52024  30.628   0.460   3.599  0.1029 -0.1943 -0.1608
 9034W        W52025   9.768  18.297  21.719 -0.1482 -0.1235  0.1268
 9035W        W52026   8.428  19.470  16.252  0.0785  0.1945  0.1008
 9036W        W52027  20.805   5.185  23.360 -0.3815  0.0025 -0.2169
 9037W        W52028  24.701  12.593  18.841  0.0202  0.2343  0.1426
 9038W        W52029  12.689  12.031  27.815 -0.4121  0.1040 -0.2523
 9039W        W52030  20.541   3.714  29.158 -0.0110  0.0693  0.0409
 9040W        W52031  24.168  17.549  21.610  0.1348  0.1531  0.2141
 9041W        W52032  18.515   7.853  18.133  0.0553 -0.1517  0.1788
 9042W        W52033  30.132   3.150  27.464 -0.1323  0.1224  0.1373
 9043W        W52034  30.161  17.203  29.214 -0.1761  0.1892  0.1253
 9044W        W52035  23.877  11.569  19.175  0.1364 -0.1506  0.1137
 9045W        W52036  17.390  32.417  14.705 -0.1976  0.0445 -0.2013
 9046W        W52037  24.709  19.689   2.466  0.2357  0.1409 -0.0174
 9047W        W52038  23.089  30.780  25.325 -0.2113  0.2110  0.2009
 9048W        W52039  15.817   8.409  21.944  0.2266 -0.0426  0.3643
 9049W        W52040  30.205  20.591  15.219 -0.0918 -0.1234 -0.2256
 9050W        W52041  28.693   4.503  15.205  0.2819  0.1174  0.0747
 9051W        W52042  31.416  21.414  16.327  0.2077  0.5012 -0.2163
 9052W        W52043  27.787   6.343  21.286 -0.0140 -0.0035 -0.2397
 9053W        W52044   4.550  26.194  19.026 -0.0167 -0.0949  0.3882
 9054W        W52045  19.740  21.949   2.252  0.2916  0.0800 -0.3368
 9055W        W52046  20.800  12.651  20.911 -0.2831 -0.4199 -0.1987
 9056W        W52047  16.208  34.364  24.175  0.2176  0.0632  0.1596
 9057W        W52048  20.117  19.841  26.993  0.4089  0.1971  0.1294
 9058W        W52049  16.278  25.935   9.064  0.2265  0.0524 -0.1338
 9059W        W52050   1.854  21.686  16.289  0.3029  0.2287  0.1410
 9060W        W52051   5.812  20.233  21.356 -0.1698 -0.1733 -0.1441
 9061W        W52052  19.814   0.571  16.622  0.1886 -0.1867  0.3413
 9062W        W52053  26.759  23.753  25.099  0.1735 -0.0561  0.2483
 9063W        W52054   9.319  16.062  18.843  0.1818 -0.0098  0.1236
 9064W        W52055  13.815  17.911  12.920 -0.1859  0.3074  0.1444
 9065W        W52056   5.373  17.764  21.542  0.3212 -0.0941 -0.0532
 9066W        W52057  21.058  16.336  18.073  0.2484 -0.2969 -0.0180
 9067W        W52058  27.959  28.021  21.231 -0.0828 -0.0089 -0.0671
 9068W        W52059  28.853  15.378   3.325  0.1635 -0.0404 -0.1947
 9069W        W52060  17.624  17.081  12.927 -0.3800  0.0604 -0.0935
 9070W        W52061  18.588  33.487  18.872 -0.2932 -0.0989 -0.0270
 9071W        W52062  23.404  24.809  14.779 -0.0335 -0.2207  0.0620
 9072W        W52063  21.877  30.912   2.925 -0.1914 -0.0123 -0.2071
 9073W        W52064  30.383  13.295  17.470  0.2298 -0.0930 -0.2596
 9074W        W52065  24.246   3.760  19.472  0.1872  0.1553 -0.0813
 9075W        W52066  18.013   3.777  18.408  0.1404  0.0301 -0.0487
 9076W        W52067  21.028  17.233   7.947 -0.4340  0.3113 -0.1457
 9077W        W52068  11.948  30.317  19.923  0.2018  0.0545  0.1416
 9078W        W52069  32.947  21.814  17.356  0.1978  0.0555  0.1051
 9079W        W52070  14.249  33.393  17.096  0.0916 -0.2964  0.1833
 9080W        W52071  10.029   6.719  16.289 -0.2651  0.4603 -0.0675
 9081W        W52072  31.420  26.706   1.773 -0.0517 -0.0298  0.1777
 9082W        W52073  26.356  21.856  19.023 -0.0450 -0.2176 -0.0544
 9083W        W52074   6.437  13.594  16.311  0.0512 -0.0227 -0.2719
 9084W        W52075  29.165  16.715  23.723 -0.1088 -0.0998 -0.0978
 9085W        W52076  15.655  28.387  24.414 -0.0580  0.2832 -0.2095
 9086W        W52077  31.776  19.475  21.682 -0.3976 -0.1149 -0.1167
 9087W        W52078   9.672  19.604  14.849 -0.2261 -0.2009  0.1290
 9088W        W52079  29.109  18.543  25.662  0.0179 -0.1629 -0.0383
 9089W        W52080  23.037  30.344  22.919 -0.0537  0.1098  0.1498
 9090W        W52081   3.887  27.500  18.535  0.2536 -0.2038 -0.2000
 9091W        W52082  16.485  30.948  18.372  0.4866 -0.0684  0.1008
 9092W        W52083  20.569  30.995   1.662  0.2310 -0.0933  0.1589
 9093W        W52084   5.684  24.613  24.722 -0.0510 -0.0288  0.0429
 9094W        W52085  18.441  26.217  16.855  0.0221 -0.1678 -0.0306
 9095W        W52086  11.813  32.559   4.456  0.3785  0.0443 -0.3469
 9096W        W52087  20.647  33.067  22.965  0.1556 -0.1008  0.2559
 9097W        W52088  14.254  24.678  26.193  0.0915  0.0844  0.1420
 9098W        W52089  16.026   2.412  22.495 -0.0153 -0.0606  0.4396
 9099W        W52090   1.973  17.767  19.822  0.0392 -0.0861  0.2273
 9100W        W52091  29.081  29.824   0.765 -0.0653 -0.3219  0.1106
 9101W        W52092   6.533  26.059  27.576 -0.0938 -0.0351  0.0930
 9102W        W52093  21.268  22.741  18.811 -0.2669 -0.0408 -0.0285
 9103W        W52094  20.419   2.562  16.307 -0.3224 -0.1494  0.0260
 9104W        W52095   1.339  19.667   0.736 -0.2731  0.0158 -0.4644
 9105W        W52096  17.525  23.864  22.908 -0.2938 -0.1203  0.1502
 9106W        W52097  21.519  10.419  18.355  0.0745  0.2527 -0.1046
 9107W        W52098  18.905  31.980  13.928  0.0446 -0.2786  0.1882
 9108W        W52099  26.945  29.701  17.538  0.0927 -0.4099  0.1481
 9109W        W52100  20.279  17.956   5.758  0.0516  0.2329 -0.1559
 9110W        W52101  22.528  24.646  20.252 -0.1448  0.2626  0.1268
 9111W        W52102  20.663  15.756  12.988  0.1225 -0.1734 -0.0540
 9112W        W52103  30.794  25.482  24.114  0.4287 -0.0888  0.0692
 9113W        W52104  13.002  33.715  28.244  0.1931 -0.2219 -0.1192
 9114W        W52105  19.587  29.948  20.737  0.1488  0.0695 -0.1015
 9115W        W52106  29.715   6.338  18.926  0.0531  0.0437 -0.0480
 9116W        W52107  11.860  18.151  20.000  0.2310  0.2594 -0.2496
 9117W        W52108  11.757  14.879  20.366  0.0367 -0.1939 -0.0051
 9118W        W52109  22.939  17.046  26.177 -0.0566  0.1129  0.1911
 9119W        W52110  27.804  32.545   1.361 -0.1313  0.0283 -0.1004
 9120W        W52111   2.176  28.992  20.000  0.3593 -0.0603  0.1118
 9121W        W52112  34.061  14.181  10.032  0.1714  0.1582  0.0997
 9122W        W52113  15.470  25.006  20.758  0.4285  0.2328 -0.3101
 9123W        W52114  33.734  24.367  16.447  0.0324  0.3226 -0.0981
 9124W        W52115  28.982  21.117  14.777  0.1656 -0.0402 -0.0320
 9125W        W52116  23.405  22.228  19.590  0.3183 -0.0147 -0.3677
 9126W        W52117  17.349  22.498   6.631 -0.1237 -0.1132  0.2611
 9127W        W52118  20.799  23.763  13.440 -0.0917  0.1018  0.0480
 9128W        W52119  32.644   7.561  24.034 -0.2434 -0.0127  0.1399
 9129W        W52120  13.811  33.807  27.302  0.0305  0.0650 -0.3031
 9130W        W52121  11.221  29.058  21.301 -0.0218 -0.1022 -0.0349
 9131W        W52122  17.132  26.962  28.440 -0.0273  0.2207  0.0907
 9132W        W52123  11.266   8.797  16.112  0.4638  0.3086 -0.2534
 9133W        W52124   5.741  28.646  14.533 -0.0076 -0.1986 -0.1873
 9134W        W52125  10.741  16.032  25.915  0.1695 -0.1233  0.3502
 9135W        W52126  20.671  21.311  14.285 -0.1794  0.1308 -0.0130
 9136W        W52127  29.034  17.620  24.726 -0.0074  0.2223 -0.1876
 9137W        W52128  34.381  21.897  23.927  0.1211  0.3047 -0.0008
 9138W        W52129  15.090  24.920   3.578  0.0419  0.1039 -0.6298
 9139W        W52130  31.976   2.417  23.471 -0.2357  0.0694  0.0929
 9140W        W52131  24.243  25.785  14.489 -0.0187 -0.2189  0.1454
 9141W        W52132  10.055  18.778  17.646 -0.3186 -0.1225 -0.1046
 9142W        W52133  32.392   9.643  18.711 -0.0031 -0.0970 -0.0205
 9143W        W52134  25.900  31.999  15.176 -0.1917  0.1292  0.1545
 9144W        W52135  18.686  33.691  23.521  0.1532  0.1956 -0.0860
 9145W        W52136  23.692  14.346  26.728  0.0558  0.1765 -0.0776
 9146W        W52137   4.424  24.642  18.437  0.2176  0.0966 -0.1538
 9147W        W52138  20.122  20.600  18.201 -0.0440  0.0828 -0.2346
 9148W        W52139   0.512  11.548  19.317  0.1895 -0.0917 -0.0265
 9149W        W52140  20.015  24.981  17.526 -0.1558  0.0422 -0.1723
 9150W        W52141  16.826   3.284  24.407  0.1161 -0.0585 -0.0396
 9151W        W52142  23.333  23.441  15.154 -0.0926  0.0369  0.0523
 9152W        W52143  22.929  22.579  23.996  0.1842 -0.2822 -0.1843
 9153W        W52144  16.034  19.343  13.565  0.1978 -0.1133 -0.0813
 9154W        W52145  27.658  22.614   8.558 -0.3130 -0.0633 -0.1638
 9155W        W52146   0.330  27.059  14.061  0.0542 -0.2542  0.1215
 9156W        W52147  18.503  24.447  20.240 -0.0557  0.0745 -0.0140
 9157W        W52148   4.279  30.350   4.804  0.2593  0.1373  0.0745
 9158W        W52149  14.641  25.832  22.908 -0.2111  0.1170  0.1019
 9159W        W52150  28.493  27.402   8.390 -0.0697  0.0558  0.1543
 9160W        W52151  20.031   9.251  22.432 -0.2987  0.0750  0.1488
 9161W        W52152  12.280  24.943  15.397 -0.0097  0.2243 -0.2418
 9162W        W52153  20.903  23.824  18.292 -0.2700 -0.0525 -0.1000
 9163W        W52154  16.816  28.233  16.430 -0.2618 -0.1070  0.2698
 9164W        W52155  18.007  15.910  14.739 -0.0356  0.1822 -0.2746
 9165W        W52156  18.737  26.241  22.030  0.0287 -0.2396  0.1719
 9166W        W52157  14.004  27.823   6.845  0.4129 -0.0304  0.3974
 9167W        W52158   0.430  21.220   2.488 -0.0365  0.1364 -0.2045
 9168W        W52159  34.668  14.789  17.212  0.0251  0.0627 -0.3945
 9169W        W52160  22.235   0.865   0.330 -0.4756 -0.1780 -0.1730
 9170W        W52161  23.802   3.876  28.820  0.0570 -0.2159 -0.0983
 9171W        W52162  28.141  13.539   7.825 -0.2518 -0.0697  0.1275
 9172W        W52163  24.660   2.309  15.321 -0.0350  0.2358  0.0256
 9173W        W52164  29.940  30.554  18.232  0.2652  0.1722  0.2433
 9174W        W52165   3.959  17.821  16.892 -0.3358 -0.2383 -0.1660
 9175W        W52166  26.939  14.678  28.851  0.0414 -0.3850  0.1168
 9176W        W52167  30.342  19.547   9.618 -0.0303 -0.0641  0.1457
 9177W        W52168  20.055   5.406  17.372 -0.0339  0.0748  0.2950
 9178W        W52169  21.251  26.026   7.110  0.1399  0.0917  0.4878
 9179W        W52170  17.012  17.118  12.753 -0.0201  0.2269  0.0753
 9180W        W52171  20.941  26.000  29.204 -0.0568  0.0989 -0.0791
 9181W        W52172   0.822  26.220  15.248  0.1215 -0.2191  0.1852
 9182W        W52173  18.770  14.933   3.433 -0.2257 -0.3125  0.0748
 9183W        W52174  33.116  21.252   1.870  0.2448  0.1975  0.1471
 9184W        W52175  18.576  30.025  24.354 -0.0933  0.0080 -0.0710
 9185W        W52176  27.024  16.237   2.743  0.2976 -0.0401 -0.2240
 9186W        W52177  18.547  25.952   1.162 -0.0475 -0.0322 -0.2345
 9187W        W52178  22.339   0.636  19.489  0.1784  0.0523 -0.0015
 9188W        W52179  13.107  28.389  19.159  0.2995  0.2465  0.1694
 9189W        W52180  24.088  23.453  21.716 -0.2068 -0.4757 -0.1718
 9190W        W52181  17.903  16.413   3.028 -0.0712 -0.0041 -0.4632
 9191W        W52182   2.871   2.067  17.996 -0.0428 -0.1831  0.2959
 9192W        W52183  20.632  34.222  24.976  0.0555  0.2981  0.0935
 9193W        W52184   3.641  21.664  18.155  0.0870  0.0979  0.2958
 9194W        W52185  33.008  17.765   0.459 -0.0912 -0.0932  0.2537
 9195W        W52186  30.456  12.754  22.955 -0.3027  0.0485  0.2627
 9196W        W52187  30.220  24.365   0.575  0.1694  0.1246 -0.0282
 9197W        W52188  24.311  22.004  25.721 -0.2479 -0.2890  0.1461
 9198W        W52189   5.944  32.368   2.400  0.0466  0.0495 -0.1275
 9199W        W52190  29.615  30.986  20.162 -0.0114  0.0537  0.2622
 9200W        W52191  16.392  31.569   1.220 -0.0349 -0.2070  0.1022
 9201W        W52192  16.619  21.415  27.248  0.0493  0.2367 -0.2500
 9202W        W52193  22.219  11.188   5.796  0.1257  0.1317  0.1083
 9203W        W52194  11.765  19.482   6.620 -0.0195  0.0425 -0.0840
 9204W        W52195  16.484  11.075  21.052  0.5011 -0.1118  0.3207
 9205W        W52196  23.125   0.479  21.772  0.1095  0.0255 -0.0692
 9206W        W52197  23.362   8.932  17.148 -0.3970  0.1115  0.3924
 9207W        W52198  32.932  14.826   7.196 -0.0292  0.1737 -0.0107
 9208W        W52199   6.595  18.825   1.416  0.0899  0.0574  0.0964
 9209W        W52200  15.250  27.922   2.340  0.0186 -0.0758  0.0279
 9210W        W52201  26.364  32.501  12.694  0.1722  0.0463 -0.0397
 9211W        W52202  18.042  17.829  12.706  0.1693  0.0037 -0.1469
 9212W        W52203  32.003  27.533  18.377  0.1383 -0.1615 -0.2527
 9213W        W52204   0.338  17.215  26.168  0.3265  0.1259  0.1483
 9214W        W52205  32.965   7.975  18.962 -0.1189 -0.1981  0.0237
 9215W        W52206  28.446   0.269  19.061  0.1214 -0.0950  0.0624
 9216W        W52207  11.717  31.232  26.289  0.0958 -0.0902  0.4692
 9217W        W52208  17.130  17.037  14.710 -0.2438  0.0877  0.2061
 9218W        W52209  20.179  26.138  16.755  0.1759  0.0734  0.0251
 9219W        W52210   6.993  23.284  25.714 -0.1499  0.2819  0.2963
 9220W        W52211  28.472  29.964  18.737  0.0983 -0.1448  0.0478
 9221W        W52212  16.062  14.888  16.494 -0.0810 -0.0684 -0.0908
 9222W        W52213  31.059  26.309  15.089 -0.4668 -0.5273 -0.2102
 9223W        W52214  25.287  27.882   1.329 -0.0163  0.0634  0.0151
 9224W        W52215  22.460  22.398  23.309 -0.1003  0.0798 -0.0133
 9225W        W52216  32.005  23.416   4.803 -0.0506 -0.2049  0.2969
 9226W        W52217  18.298   5.518  14.534 -0.0178  0.0641 -0.5852
 9227W        W52218  31.275  24.327  22.730 -0.0424  0.2544 -0.1510
 9228W        W52219  16.620   5.243  16.945  0.0277 -0.0112  0.2807
 9229W        W52220   3.962  14.622   9.244 -0.0858 -0.1723  0.0944
 9230W        W52221  33.660  19.495  28.648  0.2394 -0.3792  0.0120
 9231W        W52222   9.707  23.891   2.677 -0.2128  0.2564 -0.3527
 9232W        W52223  16.703  27.759  22.988 -0.1245  0.1560 -0.1913
 9233W        W52224  32.048   6.407  18.120 -0.1690 -0.1818 -0.0724
 9234W        W52225  30.683  28.126  13.978  0.0203 -0.0616 -0.1677
 9235W        W52226  31.874   0.018   5.344 -0.1065  0.1174  0.0146
 9236W        W52227  26.761  31.857  27.877  0.1118 -0.0526  0.0494
 9237W        W52228   9.974  16.262  15.474 -0.2174  0.0420 -0.0352
 9238W        W52229  25.288  12.922  15.282 -0.0691 -0.4061  0.1166
 9239W        W52230  23.458  17.127  17.488 -0.0870  0.0458  0.2605
 9240W        W52231  20.417  14.499  23.773 -0.0059  0.0367  0.3138
 9241W        W52232  15.768  19.883  23.916 -0.0088 -0.0153  0.0973
 9242W        W52233   7.909  27.417  19.190 -0.1013 -0.0632 -0.0882
 9243W        W52234  25.617  15.199  22.877  0.0793  0.2110 -0.1709
 9244W        W52235  12.590  25.615  21.179  0.3418  0.6737  0.0685
 9245W        W52236  16.212  27.745  26.614  0.2202 -0.1898  0.1109
 9246W        W52237  30.702  20.262   2.508 -0.1143 -0.2647 -0.1202
 9247W        W52238  17.637  21.493  27.186 -0.2461  0.0907 -0.0014
 9248W        W52239  29.027  23.237  14.511  0.0696  0.2184  0.0226
 9249W        W52240  27.932  11.468   2.330  0.1002  0.0066  0.0108
 9250W        W52241  24.275  30.589   5.452  0.0030 -0.1228  0.2720
 9251W        W52242  19.952  26.428   3.914 -0.1657 -0.0372 -0.0042
 9252W        W52243  30.900  23.575  27.610 -0.2503 -0.2878 -0.0238
 9253W        W52244  28.484  29.380  29.247 -0.1100  0.1648  0.0791
 9254W        W52245  22.610  30.612   7.331 -0.1246 -0.0092  0.0607
 9255W        W52246   2.416  15.499  20.919  0.0481  0.2630 -0.0859
 9256W        W52247  33.376  29.874  28.468 -0.2102 -0.5095  0.1743
 9257W        W52248  26.662  19.418  14.476  0.2823  0.2153  0.0785
 9258W        W52249  30.173   2.973  26.983  0.0291 -0.2306  0.0215
 9259W        W52250  15.595  21.454  18.138  0.1094 -0.3278  0.1062
 9260W        W52251   0.886  26.952  16.625  0.0974  0.1397  0.1531
 9261W        W52252  29.327  17.870  17.416 -0.3794 -0.2137  0.1774
 9262W        W52253  27.599  23.802  14.358  0.1856 -0.0204 -0.1583
 9263W        W52254   4.182  11.332  18.832  0.0271  0.1535  0.0672
 9264W        W52255  20.548  14.569   3.405  0.3697 -0.1388  0.0440
 9265W        W52256  27.213  14.317  27.620 -0.1111 -0.0646  0.0267
 9266W        W52257  27.251  24.016  27.744 -0.1528 -0.1955 -0.1009
 9267W        W52258  29.926  30.693   6.205 -0.1503 -0.0624 -0.2536
 9268W        W52259  22.115  29.858   2.757 -0.1623  0.0507 -0.5016
 9269W        W52260  33.327  25.635  26.927 -0.0007  0.0411  0.1634
 9270W        W52261  11.970  32.709   1.937 -0.1411  0.2456 -0.2312
 9271W        W52262  34.153  14.886  16.329  0.3804 -0.2536 -0.0531
 9272W        W52263  25.904  25.325  14.357  0.0556  0.2314 -0.3632
 9273W        W52264  17.987  24.582  13.884 -0.1102  0.2079  0.3669
 9274W        W52265  24.540  18.137   0.217 -0.2210 -0.1483  0.2350
 9275W        W52266  30.594   4.484   3.822  0.2297  0.1106  0.2507
 9276W        W52267  17.218  30.090  24.120  0.1197  0.0102 -0.3330
 9277W        W52268  27.496  33.310  29.057 -0.0294 -0.0799  0.2025
 9278W        W52269  33.670   7.501  21.535 -0.1961  0.0901 -0.0601
 9279W        W52270  25.651  16.328  17.483  0.1679  0.1101  0.1933
 9280W        W52271   3.005  34.698  16.763  0.1037  0.0369 -0.1817
 9281W        W52272  31.124  31.488   6.743 -0.1158 -0.0538 -0.2718
 9282W        W52273  14.687  21.627   5.208 -0.3906  0.2504 -0.3307
 9283W        W52274  15.853  17.076   5.273  0.2537  0.0889  0.3494
 9284W        W52275   1.360   4.563  25.356 -0.1987 -0.0327  0.0956
 9285W        W52276  21.708  19.850  28.292 -0.1284 -0.0602  0.0163
 9286W        W52277  13.092  10.446  16.861 -0.3891 -0.2267  0.3005
 9287W        W52278  27.826  32.237  13.744  0.0889  0.1849  0.0424
 9288W        W52279   8.081   0.301  16.224  0.0099 -0.0854  0.0944
 9289W        W52280  21.367  11.337  19.255  0.1787  0.0752 -0.1657
 9290W        W52281  18.689  14.530  14.013  0.0353  0.1719 -0.1100
 9291W        W52282   4.936  25.471  19.835 -0.3089  0.1357  0.0065
 9292W        W52283   6.179  20.092  25.136 -0.0277  0.2257  0.0352
 9293W        W52284  26.483  19.779  24.011 -0.0063 -0.0947  0.2090
 9294W        W52285  18.316  21.506  22.773 -0.0540  0.0082  0.0576
 9295W        W52286  16.767  15.920   1.367 -0.3271  0.1799  0.1609
 9296W        W52287  24.519  28.213  18.551 -0.0714  0.1247  0.1260
 9297W        W52288  25.582  24.321  20.533  0.0313  0.1641  0.0829
 9298W        W52289  13.865  20.517   6.966  0.0618  0.1151 -0.0348
 9299W        W52290  18.829  19.574  25.309  0.1645 -0.1004 -0.1321
 9300W        W52291  12.178  18.262  23.082 -0.0848 -0.0341 -0.1138
 9301W        W52292  22.173  16.301  15.988  0.0152  0.2199 -0.1987
 9302W        W52293  25.580  19.042   0.866 -0.0937 -0.0805 -0.0640
 9303W        W52294  22.876   8.315   0.180 -0.0547 -0.2555  0.0372
 9304W        W52295   2.402   2.871  10.806  0.2187  0.0312 -0.3637
 9305W        W52296  29.018  33.027  16.967 -0.0552 -0.0680  0.0638
 9306W        W52297   8.582  23.513   0.937  0.0904  0.0443  0.0744
 9307W        W52298  27.688  23.786  13.532  0.1683 -0.3668 -0.0851
 9308W        W52299  11.728  27.340  27.619 -0.0115 -0.1531 -0.4735
 9309W        W52300  14.890  18.465   0.529 -0.0689 -0.0724 -0.0541
 9310W        W52301   0.921  14.262   2.129 -0.2026 -0.1490 -0.3004
 9311W        W52302  30.057   3.112  21.874 -0.2280 -0.0048 -0.1835
 9312W        W52303  24.491  29.757  27.873  0.1226 -0.2854 -0.1280
 9313W        W52304  11.984  17.563  27.965  0.1239  0.0237 -0.1324
 9314W        W52305   0.716  26.872  15.581  0.0352 -0.1526 -0.2241
 9315W        W52306  12.086  21.447  20.633 -0.0671 -0.0487 -0.0637
 9316W        W52307  32.298  34.277  16.055  0.4032  0.2872  0.1420
 9317W        W52308  11.577  14.157  17.976  0.1508  0.1786 -0.0734
 9318W        W52309  16.687  10.084  19.960 -0.3681 -0.3296 -0.0506
 9319W        W52310  27.936  27.055   5.493  0.2638 -0.0948  0.3111
 9320W        W52311  31.790   4.343  15.037 -0.2065  0.1362  0.1435
 9321W        W52312  33.773  16.834  16.848 -0.1152 -0.1355 -0.1962
 9322W        W52313  33.161  22.046  24.983  0.2858 -0.0384  0.3284
 9323W        W52314  19.758   3.257  16.517  0.1093  0.0646 -0.2073
 9324W        W52315   3.273  20.746  17.017 -0.3261  0.1473  0.0207
 9325W        W52316  22.954   1.488   0.101  0.1626 -0.1447  0.5110
 9326W        W52317  23.275  30.213  14.671 -0.0213  0.3331  0.0857
 9327W        W52318  15.970  21.338  24.543  0.2538  0.0292 -0.1625
 9328W        W52319  24.962  20.362  17.821  0.1200  0.2552  0.1905
 9329W        W52320  18.858  34.395  14.161 -0.0360 -0.2009  0.1662
 9330W        W52321  24.748   1.677  24.257 -0.0728 -0.0603  0.4347
 9331W        W52322  21.973  17.761  18.936  0.1256 -0.1509 -0.3964
 9332W        W52323  31.636   0.944   7.094 -0.0683  0.0090  0.4412
 9333W        W52324  16.820  31.119  20.673 -0.0708 -0.0585 -0.1048
 9334W        W52325  13.551  17.428  19.413  0.0245  0.1532  0.1198
 9335W        W52326  31.785  34.186  22.628  0.2798 -0.1350 -0.0065
 9336W        W52327  26.570   5.104  21.115 -0.2640 -0.1151  0.2057
 9337W        W52328  11.067  25.499  24.952 -0.3468  0.0736 -0.3757
 9338W        W52329  25.405  27.910  21.573 -0.0435  0.0849 -0.0395
 9339W        W52330  26.334  32.752  27.723  0.0839  0.0288  0.2936
 9340W        W52331   3.737   6.214  17.881 -0.1393 -0.0659  0.2842
 9341W        W52332  27.987  22.807  25.965 -0.1135  0.0100 -0.0563
 9342W        W52333  12.887  12.812   3.675  0.3630 -0.1793 -0.2285
 9343W        W52334  22.784   7.961   1.102 -0.1100  0.1723 -0.0041
 9344W        W52335  29.002   3.092   5.745 -0.1012  0.1469  0.0682
 9345W        W52336   1.895  23.463   9.553 -0.0002 -0.0757 -0.2321
 9346W        W52337  15.544   4.822  14.175 -0.3461  0.2152  0.0536
 9347W        W52338  20.463  10.594  27.143  0.0833  0.1757  0.0609
 9348W        W52339  20.662  14.166  13.830 -0.0915  0.3205 -0.1324
 9349W        W52340  33.338   0.420  22.474 -0.3363 -0.1933  0.0717
 9350W        W52341  25.207  17.529  21.780 -0.0384 -0.0485  0.1338
 9351W        W52342   9.550  23.209   3.421 -0.2372  0.1617  0.1303
 9352W        W52343  30.411  27.925  13.104  0.0222  0.1028 -0.1537
 9353W        W52344  26.119  26.668  27.794 -0.3936 -0.0287  0.0365
 9354W        W52345  26.358   7.259  25.722  0.0853 -0.1940  0.0452
 9355W        W52346  27.357  13.845  16.139  0.0485 -0.1276 -0.2891
 9356W        W52347   9.667   0.099  16.392 -0.0288  0.0253  0.0874
 9357W        W52348  27.768  14.444   2.576 -0.0352  0.0268 -0.2016
 9358W        W52349  23.893  29.080  15.671  0.1623  0.2185 -0.2269
 9359W        W52350  20.508  12.142   0.577 -0.1349  0.3537 -0.1041
 9360W        W52351  16.131  11.500   2.639  0.2700 -0.1003 -0.4973
 9361W        W52352   8.024  22.928  22.981 -0.3970 -0.3794 -0.0635
 9362W        W52353  22.355  25.990  13.982 -0.0372  0.0738  0.0566
 9363W        W52354   5.861   3.941  21.494 -0.1483 -0.0453 -0.2784
 9364W        W52355  11.948  27.600  24.617 -0.2948  0.0965 -0.1491
 9365W        W52356  21.710  32.103  16.737  0.2596 -0.2606  0.2764
 9366W        W52357  29.022  10.713  22.547  0.1522  0.2086  0.2701
 9367W        W52358  13.215   4.630  21.157 -0.1602  0.0163  0.0284
 9368W        W52359   2.231  28.708  18.968 -0.2784 -0.1327 -0.3033
 9369W        W52360  25.726  27.596  19.003  0.0303 -0.0114 -0.1593
 9370W        W52361  22.980  23.671  25.392 -0.0840 -0.0321  0.1066
 9371W        W52362  31.131  10.296   9.721  0.0500 -0.1082 -0.3170
 9372W        W52363   5.728  24.588   1.638  0.1685 -0.1259 -0.0725
 9373W        W52364  10.196  30.418  22.620  0.0647  0.1813 -0.1574
 9374W        W52365  20.342  20.923  22.638  0.2709 -0.0623 -0.0515
 9375W        W52366  27.085  22.416  24.624  0.0143  0.0180  0.0787
 9376W        W52367   6.470   1.839  20.921  0.0990  0.1896 -0.2458
 9377W        W52368  30.513  31.958  20.244 -0.0627  0.0904 -0.1515
 9378W        W52369  34.465  26.922  15.682 -0.1165  0.1459 -0.0871
 9379W        W52370  30.306  30.237  14.854  0.1653  0.0317 -0.2766
 9380W        W52371  25.295  28.107   0.365  0.1624 -0.3658  0.0805
 9381W        W52372  10.355   3.231   6.662  0.1701 -0.1404  0.1365
 9382W        W52373   0.480  32.305  23.180  0.2817 -0.2660  0.0994
 9383W        W52374  22.272  29.767  18.678 -0.1215 -0.2540  0.1963
 9384W        W52375  15.749   3.679  18.193  0.1957 -0.2118 -0.0845
 9385W        W52376  26.409  25.276   2.279  0.0320 -0.0750  0.0513
 9386W        W52377  15.880  19.798   0.413 -0.2022 -0.2175 -0.1604
 9387W        W52378  23.591  33.676   1.707 -0.2937 -0.1897  0.0199
 9388W        W52379  29.195  32.528  17.940  0.7012 -0.2460  0.2503
 9389W        W52380  28.629  26.828  18.413 -0.1087  0.1619 -0.1920
 9390W        W52381  20.075  28.190  21.660 -0.1150  0.0381 -0.0126
 9391W        W52382  32.062  11.807  23.327 -0.0630 -0.1583 -0.1171
 9392W        W52383  21.301  31.692  20.259  0.0590 -0.0755 -0.1846
 9393W        W52384  15.011  29.868  17.418  0.0503 -0.1273  0.0140
 9394W        W52385  16.522  16.458  28.781 -0.1015  0.2048  0.0845
 9395W        W52386  16.064  22.891   7.682  0.1010  0.1377 -0.1635
 9396W        W52387  18.825  26.315  17.234  0.1019  0.3077 -0.1985
 9397W        W52388  29.121  21.643  28.553  0.4822 -0.2202 -0.0429
 9398W        W52389  14.919  21.608  29.180  0.2175 -0.2982 -0.0555
 9399W        W52390   9.389  24.242  16.700 -0.0078  0.0805  0.0854
 9400W        W52391  16.523   1.594  22.341  0.1132 -0.0182  0.3121
 9401W        W52392  29.928   7.142  16.031 -0.0251  0.0153  0.0375
 9402W        W52393  24.119   7.514   0.510 -0.0337 -0.3399  0.0169
 9403W        W52394  28.210   5.847   2.357 -0.0373 -0.0844 -0.0046
 9404W        W52395  32.785  22.590  14.579  0.2614 -0.0924  0.0341
 9405W        W52396  19.725   7.136   2.879 -0.0782  0.2143 -0.2335
 9406W        W52397  12.100  25.659  25.818 -0.0019 -0.1206 -0.3947
 9407W        W52398  21.449  18.051  18.145 -0.1014 -0.2020  0.0068
 9408W        W52399   8.509  11.945  16.834 -0.1122  0.0756  0.2420
 9409W        W52400  30.351  28.915  13.301  0.3306  0.0048 -0.0752
 9410W        W52401   7.546  28.948  17.922  0.1088  0.1196 -0.1795
 9411W        W52402  22.165  12.369   0.255 -0.1490  0.0845  0.5323
 9412W        W52403  24.008  14.292  20.495  0.1746 -0.4135  0.0844
 9413W        W52404  32.393   6.100  24.898 -0.2942  0.1595  0.0363
 9414W        W52405   1.810  19.704   4.201 -0.0372 -0.1164 -0.1455
 9415W        W52406  12.675  19.222  17.425  0.1433  0.3041 -0.1994
 9416W        W52407  21.063  28.742   0.711  0.1941 -0.6001  0.0542
 9417W        W52408  24.530  31.064   4.170 -0.0707  0.4268 -0.1995
 9418W        W52409  29.367   2.530  24.700 -0.0677 -0.0379  0.3783
 9419W        W52410  30.332  27.552  22.246  0.0287 -0.2310  0.2391
 9420W        W52411  21.116  22.914  25.644  0.1014  0.1637 -0.0943
 9421W        W52412  12.306  14.707  24.908  0.2409  0.1926 -0.0693
 9422W        W52413  24.155   3.974  26.754 -0.0434  0.3561  0.3326
 9423W        W52414  26.262  24.891  24.368  0.1052 -0.1216  0.2009
 9424W        W52415  31.003  22.513   2.110 -0.2361  0.0674  0.1290
 9425W        W52416  15.599  28.807  20.313 -0.0355  0.1972  0.2673
 9426W        W52417  21.015  26.520  14.092 -0.0413  0.0951 -0.1136
 9427W        W52418  19.707  18.846   2.130 -0.0432 -0.1474 -0.1335
 9428W        W52419  32.738  27.055   1.051 -0.1231  0.3769  0.2108
 9429W        W52420  24.706  24.665  20.210  0.1816  0.2297 -0.1187
 9430W        W52421  29.454  23.351  13.671 -0.0375  0.1188  0.1135
 9431W        W52422  17.958   7.943  22.464 -0.3251  0.3428  0.0707
 9432W        W52423  13.605  22.482  14.437  0.2129 -0.0519  0.3321
 9433W        W52424  25.060  19.871  20.832  0.1694  0.0338  0.2278
 9434W        W52425  15.465   0.603  20.114  0.0024 -0.4399 -0.1759
 9435W        W52426  11.373  17.620  15.346  0.2436 -0.2799 -0.0745
 9436W        W52427  12.492   9.571  22.277  0.0085  0.1840  0.2554
 9437W        W52428  34.359   2.232   8.818 -0.0394 -0.1921 -0.2192
 9438W        W52429  25.276  26.444  25.766 -0.0511 -0.2452 -0.2290
 9439W        W52430  21.837  33.518   9.097  0.0186  0.3860 -0.3575
 9440W        W52431  14.172  19.499  27.872  0.1569  0.0452 -0.3244
 9441W        W52432  22.963  18.666  29.188  0.2365 -0.0736  0.0169
 9442W        W52433  24.474  19.615  16.715 -0.1824 -0.1937 -0.1161
 9443W        W52434  16.931   7.629  24.175  0.1760 -0.2013  0.0856
 9444W        W52435  12.195  24.942  22.943  0.1296 -0.1868  0.2645
 9445W        W52436   1.148   5.944  20.091  0.1121 -0.2898  0.0924
 9446W        W52437  10.374  31.556  28.889 -0.3348  0.0865 -0.1380
 9447W        W52438  10.000  17.042  18.026  0.1208 -0.0617 -0.2122
 9448W        W52439   8.953   2.538  14.399  0.1763 -0.0810 -0.2976
 9449W        W52440  22.381  11.720  16.645  0.0259 -0.0426 -0.1838
 9450W        W52441  28.596   5.673  17.109  0.2132  0.0138  0.1571
 9451W        W52442   2.804  18.676  23.790 -0.2264  0.1856 -0.2678
 9452W        W52443  17.333  25.068   6.630 -0.2265 -0.0274 -0.1329
 9453W        W52444  30.527  27.374  14.860 -0.1993  0.2254  0.0872
 9454W        W52445  23.038  23.389  20.679 -0.3977  0.0887  0.2264
 9455W        W52446   1.072  29.152  14.164 -0.0776 -0.2264  0.3238
 9456W        W52447  23.885  25.978  20.845 -0.0516 -0.0937 -0.2121
 9457W        W52448   0.873  30.100   3.878  0.0464 -0.1089  0.3481
 9458W        W52449   0.377  33.213   0.395 -0.1091 -0.1815 -0.3973
 9459W        W52450  13.152   1.363  27.522 -0.0983 -0.1272  0.1024
 9460W        W52451  28.188  18.729   1.396 -0.0175 -0.1831  0.2011
 9461W        W52452  21.936   2.057   7.120  0.1388 -0.0869 -0.1378
 9462W        W52453  16.833  21.874  13.156  0.1831  0.0250  0.0328
 9463W        W52454   6.889  20.725  22.613 -0.1186  0.3660  0.0076
 9464W        W52455  25.968  24.741  15.839  0.0750  0.2082 -0.2938
 9465W        W52456  24.152  15.425   6.111  0.2218  0.1226 -0.3930
 9466W        W52457   9.173  16.192  27.103  0.1856 -0.1022 -0.1753
 9467W        W52458  29.149   5.804  15.198  0.0947 -0.0316  0.0294
 9468W        W52459  22.479  30.072  16.061 -0.0596 -0.1358  0.0626
 9469W        W52460  22.461  33.969  25.049  0.0499  0.0960  0.0908
 9470W        W52461   9.084  25.909   8.962 -0.0881  0.1345 -0.0912
 9471W        W52462   0.987  28.537  17.700  0.2308 -0.3091 -0.1337
 9472W        W52463  33.470  21.712  18.710 -0.1788  0.2796 -0.0898
 9473W        W52464   3.732  19.056  25.887 -0.4538 -0.0407  0.0933
 9474W        W52465  31.004  30.131  27.059 -0.3169 -0.1713 -0.0800
 9475W        W52466  24.336  26.100   8.422  0.0331  0.0540  0.1355
 9476W        W52467  18.452  33.866  22.521 -0.1457 -0.0100  0.0406
 9477W        W52468  27.046  21.264  17.181  0.1396 -0.0811  0.2135
 9478W        W52469  32.277   4.517   2.244  0.0233 -0.0960 -0.1345
 9479W        W52470   3.603   0.788   6.298  0.0200 -0.0581  0.0228
 9480W        W52471  18.080  11.906  22.305 -0.1989 -0.0340 -0.0308
 9481W        W52472  26.038   1.678   3.455 -0.0249 -0.3280 -0.1733
 9482W        W52473  23.151  23.791  16.908  0.1773 -0.0023 -0.1374
 9483W        W52474   2.550  33.312  22.583  0.3918 -0.0338  0.1715
 9484W        W52475   6.357  27.546  17.970  0.1215 -0.1264  0.2495
 9485W        W52476  18.459  26.409  25.322 -0.3970 -0.2152  0.2557
 9486W        W52477   8.050  13.329  23.233  0.1397  0.1845 -0.1458
 9487W        W52478  31.183  29.193  26.872 -0.1742  0.1424 -0.2620
 9488W        W52479  24.899  30.696   4.308 -0.0969  0.1355 -0.0380
 9489W        W52480  22.530  31.141  24.017  0.1852  0.0885  0.1389
 9490W        W52481   8.755  25.972   6.193 -0.1178 -0.0573 -0.5751
 9491W        W52482  29.909  19.297   0.822  0.0204  0.2918 -0.0984
 9492W        W52483  19.355  28.401  27.236 -0.0356 -0.2358  0.1462
 9493W        W52484   9.951  25.922  28.900 -0.1237 -0.1672 -0.1528
 9494W        W52485  24.895  16.843  18.532  0.0737 -0.1885 -0.1315
 9495W        W52486  15.375  21.959  18.700 -0.3946  0.2089 -0.0994
 9496W        W52487  21.406  18.148   0.687 -0.2187 -0.2269  0.2683
 9497W        W52488   0.585  26.747   1.007 -0.0178 -0.0656 -0.4256
 9498W        W52489  20.524   1.590   1.659 -0.2086  0.3576 -0.1327
 9499W        W52490  27.592  19.387  18.722 -0.1366 -0.1373 -0.0621
 9500W        W52491  19.060  27.661  27.897 -0.1894 -0.1502  0.0951
 9501W        W52492  22.634  18.042  21.582  0.0144 -0.3692  0.0782
 9502W        W52493  25.218  19.806  17.793 -0.0489  0.2292  0.2653
 9503W        W52494  25.633  17.521   6.002 -0.0296  0.1489 -0.0258
 9504W        W52495  21.218  12.078   2.414  0.1648  0.0655 -0.1135
 9505W        W52496  11.264   5.162  27.449 -0.0632 -0.1596  0.1682
 9506W        W52497   1.242   2.987  20.025 -0.2874  0.2152 -0.1378
 9507W        W52498  22.918  30.287   7.699 -0.0243 -0.2748 -0.0935
 9508W        W52499  25.267  19.957  14.828 -0.0718 -0.2685 -0.1591
 9509W        W52500  32.803  28.239  26.389  0.0225 -0.2033  0.0058
 9510W        W52501  32.131  24.854  17.792 -0.0422  0.2542 -0.2767
 9511W        W52502  30.860   6.040  14.870 -0.1580 -0.0093 -0.0189
 9512W        W52503  20.298  33.075   0.622 -0.1570 -0.2193 -0.1344
 9513W        W52504  32.024  18.619  20.370 -0.3918  0.3842  0.4465
 9514W        W52505  11.787  15.876   1.546  0.2702 -0.3511  0.1321
 9515W        W52506  24.275  19.026  21.782  0.2175 -0.1033  0.2040
 9516W        W52507  13.897  23.539  17.020 -0.2034  0.0404  0.4021
 9517W        W52508  33.374  14.995  23.974  0.5394  0.0480  0.0789
 9518W        W52509  19.423  29.928  22.721  0.0396  0.1017  0.0820
 9519W        W52510  14.085  21.292  24.645  0.2843  0.0065  0.1369
 9520W        W52511  15.546   1.795  20.091  0.0589  0.1827  0.2623
 9521W        W52512  33.286  26.315  18.411 -0.0019 -0.0985 -0.1966
 9522W        W52513  23.278  26.587  27.714 -0.1662 -0.1632  0.2354
 9523W        W52514  12.621  18.328  22.703 -0.1753  0.0823 -0.4222
 9524W        W52515   7.825  29.676  22.847 -0.1600 -0.0321  0.1199
 9525W        W52516  14.649  21.038  23.861  0.0098  0.2080 -0.0694
 9526W        W52517  27.741  17.445   4.038  0.6525 -0.0949 -0.1085
 9527W        W52518  31.262  25.941  14.879 -0.1899 -0.0339  0.1177
 9528W        W52519  17.971   1.735  26.153 -0.1200 -0.2664 -0.0287
 9529W        W52520  32.190  24.050   6.918  0.0944 -0.0099 -0.0312
 9530W        W52521  19.677  25.236   7.148  0.2513 -0.0040 -0.0240
 9531W        W52522  25.554  21.938  28.824  0.0217 -0.1524 -0.1513
 9532W        W52523  15.635  22.621  25.403  0.0485  0.4755  0.1615
 9533W        W52524  24.718   1.773  20.422  0.2406  0.4597  0.2264
 9534W        W52525  15.944  25.479   0.188 -0.1485 -0.3622  0.0758
 9535W        W52526   5.592  27.077  24.362  0.1100 -0.1167  0.1587
 9536W        W52527  25.785   1.739  18.644  0.1311 -0.2658 -0.0187
 9537W        W52528  20.268  24.830  19.892 -0.2283 -0.1612 -0.2105
 9538W        W52529  24.232  20.481  15.793 -0.0997  0.2333  0.2471
 9539W        W52530  20.041  23.053  19.071 -0.1515  0.1990 -0.0176
 9540W        W52531  11.381  21.737  16.426 -0.3677  0.0556  0.3354
 9541W        W52532  24.573  15.113  22.981  0.1114 -0.2248  0.1009
 9542W        W52533  33.524  24.856  20.308  0.0202  0.0879 -0.1223
 9543W        W52534  21.378  25.964  16.489  0.0553  0.2120 -0.2596
 9544W        W52535  15.975  22.221  26.284 -0.1189 -0.0419 -0.0241
 9545W        W52536  20.036  19.709  13.939 -0.0387  0.1375 -0.1316
 9546W        W52537  34.222   2.409  18.499 -0.0140 -0.0175 -0.5051
 9547W        W52538  20.023  18.438   2.292 -0.1026 -0.1553  0.0232
 9548W        W52539  28.605  19.379  29.242 -0.3977  0.0388 -0.1647
 9549W        W52540  21.621  21.713  28.434 -0.1801  0.1562 -0.0963
 9550W        W52541   7.226  21.499   4.250  0.0234  0.0418  0.1860
 9551W        W52542   6.917  18.070  26.503  0.0947  0.3594 -0.1410
 9552W        W52543  31.948  23.470  15.533 -0.0897  0.1943 -0.0532
 9553W        W52544  28.861  17.345  20.435 -0.2273 -0.0008  0.1595
 9554W        W52545  15.609  14.072  14.982 -0.0535 -0.0781 -0.0259
 9555W        W52546  33.787  17.790   5.679  0.0787 -0.3817  0.1933
 9556W        W52547  22.933  31.037  17.039  0.0179 -0.1966 -0.0880
 9557W        W52548  30.219  31.181  28.865  0.1355  0.1644 -0.0316
 9558W        W52549  30.872  27.162  15.107 -0.1718  0.1839  0.2853
 9559W        W52550  31.996  26.303  23.516  0.1588 -0.0625  0.1093
 9560W        W52551  11.780  20.036  14.488 -0.0314  0.1735  0.2719
 9561W        W52552  25.312  19.990  21.270  0.1105  0.0604 -0.1074
 9562W        W52553  18.579   1.210  20.272 -0.1939 -0.0247  0.1614
 9563W        W52554  16.799  17.337   7.790 -0.1273 -0.0244 -0.0699
 9564W        W52555  28.850  26.049  21.014  0.1730  0.1573  0.0187
 9565W        W52556   1.620  22.687   4.745 -0.3027  0.3249  0.0021
 9566W        W52557   9.734  19.021  23.638 -0.1371 -0.0413 -0.1045
 9567W        W52558  16.155  24.237  23.435  0.1484 -0.0036  0.2059
 9568W        W52559  21.097  19.430  28.201 -0.3038 -0.1380  0.2203
 9569W        W52560  25.203  25.887   5.877  0.0668 -0.1508 -0.2043
 9570W        W52561  23.093   0.024  26.400  0.1146 -0.3170 -0.3108
 9571W        W52562  31.295   2.305  16.052  0.2263 -0.4274  0.1565
 9572W        W52563  30.565  25.856   1.013  0.3152 -0.2136  0.0286
 9573W        W52564  25.756  22.367   0.959  0.1540 -0.1692  0.1365
 9574W        W52565  10.110  25.820  19.943 -0.1133 -0.2279 -0.2833
 9575W        W52566  30.579  30.228  26.790  0.1556 -0.0583  0.0036
 9576W        W52567  30.936  20.277  20.451  0.1747 -0.1611  0.0533
 9577W        W52568  11.667  20.772  26.994  0.0433  0.1966  0.0337
 9578W        W52569  19.305   5.436  18.008  0.2146 -0.4455  0.0069
 9579W        W52570  24.570  18.626   8.459 -0.0474  0.0738  0.3518
 9580W        W52571  16.178   0.464   7.431 -0.0249 -0.0993 -0.2040
 9581W        W52572   2.909  23.919  22.624 -0.1112  0.1615  0.0519
 9582W        W52573  24.155  28.706  23.424  0.0002  0.0920 -0.1215
 9583W        W52574  19.780  29.490  22.999  0.0447  0.0433 -0.0625
 9584W        W52575  32.960  26.221  20.706  0.0586 -0.0752 -0.3753
 9585W        W52576  31.544  21.129   8.318 -0.3112  0.2244  0.2245
 9586W        W52577   3.339  28.624  20.327 -0.2458  0.0804 -0.0677
 9587W        W52578  21.372   0.086  21.176  0.1493 -0.1009 -0.1366
 9588W        W52579  28.450  17.578  25.580  0.3048  0.0181 -0.4515
 9589W        W52580   8.114  10.398  27.577 -0.0205  0.0919 -0.0821
 9590W        W52581  15.703  21.615  28.228 -0.1037 -0.2795 -0.2810
 9591W        W52582  31.039  24.472  14.975  0.2115 -0.1974 -0.1823
 9592W        W52583  19.123  32.611  25.985  0.0280  0.1843  0.1537
 9593W        W52584   5.018  32.849   1.263  0.2045  0.0407 -0.1351
 9594W        W52585   6.787  31.729  22.892 -0.0270 -0.0909  0.2674
 9595W        W52586   0.383   1.321  20.635 -0.1542 -0.0595 -0.0275
 9596W        W52587  25.735  28.699   9.105 -0.0393  0.0522  0.2929
 9597W        W52588  33.152  25.889  10.815 -0.0592  0.1888  0.1048
 9598W        W52589  12.622  20.568   3.588 -0.0288 -0.0692 -0.0335
 9599W        W52590  17.666  29.957   3.755  0.0616 -0.2230  0.0561
 9600W        W52591  24.970  18.341  14.998  0.0526  0.2167  0.0447
 9601W        W52592  10.404   1.858   2.495  0.4069 -0.0048 -0.0575
 9602W        W52593  18.976  29.622   3.709  0.1613 -0.1442  0.0184
 9603W        W52594  29.722  30.191   7.224  0.2588 -0.0294  0.3026
 9604W        W52595   5.702  31.895   3.575  0.0487 -0.1109 -0.3232
 9605W        W52596  14.979   8.183  17.615  0.1677 -0.2572  0.0397
 9606W        W52597  26.660  21.823  15.171  0.4624 -0.3029 -0.0394
 9607W        W52598  32.109  26.670  28.693 -0.0988 -0.1011  0.1659
 9608W        W52599   9.966  25.234  21.635  0.0159  0.0292 -0.2855
 9609W        W52600   7.573  24.015  22.320  0.0735 -0.2833 -0.1979
 9610W        W52601  19.607  13.951  24.019  0.1863 -0.3935  0.2951
 9611W        W52602  27.649  28.382  19.759  0.0101  0.2344  0.1702
 9612W        W52603  29.588   8.237   1.050 -0.3155 -0.1262 -0.1466
 9613W        W52604   9.628  27.397  18.528  0.0774 -0.0978 -0.2625
 9614W        W52605  28.184  21.883  23.584 -0.1492  0.2534 -0.0283
 9615W        W52606  13.998  11.457  25.712 -0.0153 -0.0297  0.0814
 9616W        W52607  12.046  10.105  27.529 -0.2272  0.1871  0.0751
 9617W        W52608  20.599  17.928  15.168 -0.1181 -0.1860  0.1776
 9618W        W52609  25.849  11.259  24.073 -0.1137  0.0488 -0.4517
 9619W        W52610  31.175   1.097  17.855  0.2120  0.0475 -0.1208
 9620W        W52611  34.513  32.073   2.400 -0.1848  0.1022  0.0627
 9621W        W52612   3.397  31.000   3.838 -0.4715 -0.0937  0.0566
 9622W        W52613  34.304  24.054  25.473  0.0060 -0.0851  0.0947
 9623W        W52614   1.215  18.259  24.891  0.1269 -0.0577  0.2629
 9624W        W52615  23.320   4.407  27.194 -0.0022 -0.0703 -0.1575
 9625W        W52616  10.916  26.136   2.753  0.1389  0.2471  0.1246
 9626W        W52617  20.301  18.642  16.314 -0.1294 -0.1982  0.0839
 9627W        W52618  30.403  16.119   0.399  0.1203 -0.1908  0.0848
 9628W        W52619  31.365  17.377   0.577  0.1876 -0.1185  0.1686
 9629W        W52620  28.628  20.449  19.807 -0.0020 -0.1029  0.0867
 9630W        W52621  22.135  30.445  23.132  0.0911 -0.3081  0.5354
 9631W        W52622   3.549   4.926   1.225 -0.1212 -0.0169 -0.1800
 9632W        W52623   0.868  24.375   9.453  0.1005  0.1619 -0.0143
 9633W        W52624  29.590  25.081  27.072  0.0305 -0.3105 -0.1931
 9634W        W52625  26.543   8.025   7.810  0.3057 -0.0476  0.0410
 9635W        W52626  30.471   3.147   3.946 -0.1937  0.1682 -0.3607
 9636W        W52627   1.906  27.067   0.980  0.0467 -0.1140  0.0098
 9637W        W52628  15.756  28.222  17.381 -0.0561  0.2620  0.1411
 9638W        W52629   2.559  22.147  17.042  0.1122  0.0665 -0.0587
 9639W        W52630  11.862  18.196   7.830  0.3018  0.0334  0.0348
 9640W        W52631  32.715  24.059  22.848 -0.2430  0.1046  0.1712
 9641W        W52632  14.355   3.582  11.565 -0.4596  0.3675 -0.0157
 9642W        W52633  14.564  21.064  15.668 -0.1643  0.3326 -0.1778
 9643W        W52634  12.834  23.691  23.938  0.0444  0.2541  0.2986
 9644W        W52635   9.314  15.109  22.986  0.2860 -0.0684  0.0642
 9645W        W52636  11.376  22.707   0.158  0.1912 -0.0344  0.2632
 9646W        W52637   2.502  31.201  27.782 -0.0299 -0.0409 -0.1230
 9647W        W52638   0.316  29.058  27.006  0.1095 -0.1705  0.2100
 9648W        W52639  34.475  21.125  25.780  0.3884 -0.3256 -0.2673
 9649W        W52640  30.582  29.321   2.673  0.0614 -0.0440 -0.2596
 9650W        W52641  27.473  24.965  15.495 -0.0705 -0.0991  0.4393
 9651W        W52642  13.478  33.550  26.209  0.1971  0.0207  0.2795
 9652W        W52643  29.951  31.443  15.822 -0.1941  0.0910  0.0804
 9653W        W52644  24.002  19.351  22.037  0.0934 -0.1509 -0.1419
 9654W        W52645  11.063  10.182  17.492  0.2597 -0.0894  0.0823
 9655W        W52646  26.381  24.199   8.333  0.0328 -0.0977 -0.0585
 9656W        W52647  26.311   1.990   2.185 -0.0296  0.0640 -0.3342
 9657W        W52648   3.406  13.425   1.690  0.0184 -0.0930  0.1305
 9658W        W52649  26.681  20.540  16.802  0.0678 -0.1135 -0.5473
 9659W        W52650  24.148  23.774  19.615 -0.1176  0.2064  0.0625
 9660W        W52651  21.005  24.869   9.045  0.1912 -0.0663  0.1850
 9661W        W52652  17.296   0.601   8.445  0.4318 -0.0234 -0.0073
 9662W        W52653  24.780   2.648  17.410  0.2715  0.0073  0.0334
 9663W        W52654  20.154  22.780  18.022 -0.0953  0.1178 -0.1418
 9664W        W52655  31.366  27.966  22.311 -0.2620 -0.0273 -0.2315
 9665W        W52656  12.784   1.006   5.203 -0.2616  0.1585  0.1062
 9666W        W52657  23.269   4.580  24.016  0.0465 -0.0564  0.0083
 9667W        W52658  23.621  22.364  24.203 -0.0869  0.1982  0.2285
 9668W        W52659   1.947   7.834  26.622 -0.2693  0.1149 -0.3183
 9669W        W52660  28.536   2.902  19.045 -0.4130  0.1731  0.0529
 9670W        W52661  11.915  25.382  24.447  0.0062 -0.2598 -0.1070
 9671W        W52662  15.218  17.858   3.496 -0.2495  0.0191 -0.3144
 9672W        W52663  18.651  15.757   6.935 -0.1062  0.0908 -0.0268
 9673W        W52664  12.895   1.042  29.241  0.0838 -0.2900  0.0436
 9674W        W52665  14.368  23.079  24.754  0.2544 -0.1081 -0.2304
 9675W        W52666  25.914  26.401  21.446  0.1047  0.0594 -0.3885
 9676W        W52667  19.984   5.832  28.109 -0.1113  0.1297 -0.0121
 9677W        W52668  31.168  27.950  21.651  0.1810  0.2115 -0.1259
 9678W        W52669  17.081  28.029  29.049  0.2553  0.1356  0.0779
 9679W        W52670  17.604  21.535  18.937  0.0221  0.1400  0.0768
 9680W        W52671  21.840  22.359  27.365  0.2119 -0.2912 -0.0796
 9681W        W52672  16.557  15.407  23.109  0.1214  0.2000  0.1713
 9682W        W52673  10.167   9.896  17.758 -0.1469  0.1826 -0.0481
 9683W        W52674  33.323   5.912  27.314 -0.0748  0.1546  0.2994
 9684W        W52675  24.811  21.545  18.664 -0.1845 -0.1351  0.0274
 9685W        W52676   9.063  11.751  23.045  0.0186 -0.1785 -0.3005
 9686W        W52677  16.991  23.138  17.450  0.2111 -0.1436  0.1417
 9687W        W52678  34.507  27.414   7.674 -0.0391  0.1969  0.5225
 9688W        W52679  24.267  15.804  13.962 -0.1229  0.0224  0.1430
 9689W        W52680  27.604   3.665  16.493 -0.1272  0.0260 -0.2510
 9690W        W52681   4.564  17.145  25.245  0.3394 -0.1546 -0.0444
 9691W        W52682  34.698  25.045  27.624 -0.1435  0.3969 -0.0206
 9692W        W52683  12.576  33.719   0.544  0.0543 -0.0528  0.3438
 9693W        W52684  27.773  19.083   7.120  0.2924 -0.4221  0.1702
 9694W        W52685  33.594  23.824  25.176  0.0689  0.2457 -0.2441
 9695W        W52686  30.161  31.024  23.981 -0.0726 -0.0495  0.0068
 9696W        W52687  14.918  24.418  17.022 -0.0215 -0.0570  0.0066
 9697W        W52688   7.560   3.285  25.460  0.2341 -0.0632  0.1967
 9698W        W52689  24.192  21.096   0.591  0.2257 -0.3617  0.1668
 9699W        W52690  29.036   0.691   3.414 -0.0483 -0.3260  0.1822
 9700W        W52691  24.979  22.388  20.582  0.1543  0.3531  0.0170
 9701W        W52692  26.987  27.959   5.926  0.0197  0.1123  0.1046
 9702W        W52693   9.337   0.872   2.138 -0.2088 -0.2062  0.1055
 9703W        W52694  19.430  21.748  27.400  0.2464 -0.1882  0.0276
 9704W        W52695  24.121  16.242  22.396 -0.0013 -0.1737  0.0956
 9705W        W52696  24.529  24.511  24.784  0.0651  0.1289 -0.0489
 9706W        W52697  19.216  20.234   0.926 -0.0727  0.2306 -0.3228
 9707W        W52698  27.291  16.413   4.734 -0.1134  0.1365 -0.0311
 9708W        W52699  12.624  10.973  17.212 -0.2661 -0.0711 -0.1535
 9709W        W52700  12.240  34.668  27.278  0.0046 -0.2375 -0.2837
 9710W        W52701  33.112  25.126   8.486  0.0890 -0.2036 -0.2077
 9711W        W52702  31.079  21.874  24.172  0.0571 -0.3637  0.2447
 9712W        W52703  21.563   3.080  28.425  0.1186  0.4019 -0.1284
 9713W        W52704  21.890  20.855  25.414 -0.0662  0.1128 -0.2031
 9714W        W52705  30.167  30.386   5.220 -0.3059  0.1600  0.2295
 9715W        W52706  11.832   1.903  18.662 -0.1626  0.3312  0.3188
 9716W        W52707  26.692  21.545  27.697  0.0284  0.2946  0.2435
 9717W        W52708   7.616  32.454   4.923 -0.1138  0.0358 -0.1704
 9718W        W52709  22.278  30.192  20.136 -0.3287  0.2379 -0.1315
 9719W        W52710  34.571   1.147   9.086  0.2307  0.3315 -0.1828
 9720W        W52711   5.247   8.134  28.148 -0.2018 -0.1916  0.0394
 9721W        W52712   2.792  15.569  22.429 -0.3955 -0.0342  0.0009
 9722W        W52713  31.805  29.387   3.006  0.0046  0.1457  0.1082
 9723W        W52714  21.903  20.015  22.899 -0.0536 -0.0987  0.4450
 9724W        W52715   3.706  16.205   8.445  0.1763 -0.0418 -0.2462
 9725W        W52716   1.234  21.617  29.020 -0.1362  0.2238  0.1019
 9726W        W52717  15.226  27.848  19.744 -0.1372  0.1639 -0.4953
 9727W        W52718   1.759  21.331  27.653 -0.2477 -0.0723 -0.2488
 9728W        W52719  28.451  24.057   1.031  0.2038 -0.0898  0.0854
 9729W        W52720  33.781  25.154  26.710  0.1197 -0.0922  0.5162
 9730W        W52721  30.245  23.293  25.093  0.1809  0.0543 -0.0012
 9731W        W52722  17.138  32.157   6.610 -0.2903  0.0181  0.0183
 9732W        W52723  24.759  28.227  23.781 -0.1053  0.0764 -0.0704
 9733W        W52724   3.941  21.629  21.600  0.0587  0.0393  0.3119
 9734W        W52725  29.297  12.430  22.119 -0.0151 -0.0252  0.1884
 9735W        W52726  27.716  24.643   5.273 -0.1481 -0.3958  0.0380
 9736W        W52727  13.363  22.897  14.664  0.0989 -0.2721 -0.2618
 9737W        W52728  27.427   2.477  19.288  0.3474  0.2293  0.1224
 9738W        W52729  20.751  20.314  14.545  0.2334  0.2318  0.1117
 9739W        W52730  20.250  14.070  13.485  0.1577  0.3315  0.0471
 9740W        W52731  17.416   2.742  15.652  0.3737 -0.1034 -0.1662
 9741W        W52732  22.868  22.069  16.092  0.1894 -0.2889 -0.2823
 9742W        W52733   5.035   6.325  17.606 -0.0321  0.0655  0.1136
 9743W        W52734   7.817  28.066   5.624  0.0209  0.3745 -0.1529
 9744W        W52735  28.002  15.494  23.062  0.0402  0.0965  0.0191
 9745W        W52736  30.432  24.831   7.900 -0.0701  0.0304 -0.0963
 9746W        W52737  10.959  15.720  14.991 -0.1164 -0.1477 -0.3233
 9747W        W52738  26.233  32.843  16.464 -0.0241  0.1111 -0.1506
 9748W        W52739  23.074   4.144  28.640 -0.3307  0.1432  0.0358
 9749W        W52740  22.352  17.554   0.623 -0.0735 -0.3578  0.1504
 9750W        W52741  20.900  26.461   7.118  0.0674  0.3230  0.2387
 9751W        W52742  30.532  34.224  27.124  0.2368  0.0439 -0.0488
 9752W        W52743  27.438  24.209  25.682 -0.0788  0.0311 -0.1002
 9753W        W52744  22.313  18.596  23.990  0.1357 -0.2007  0.3715
 9754W        W52745  23.161  29.466   8.399 -0.2777 -0.0214 -0.2329
 9755W        W52746   5.688  34.262   6.008  0.1225  0.0190 -0.0361
 9756W        W52747   0.421   4.811   7.331  0.0304  0.0430 -0.1292
 9757W        W52748   4.414  21.512   0.853  0.0634  0.1325  0.0885
 9758W        W52749  15.645  18.264  29.220  0.1220 -0.1604 -0.0134
 9759W        W52750  31.461  23.866  18.977 -0.2912 -0.1694  0.0103
 9760W        W52751  20.484  13.044   8.907  0.0389 -0.0170  0.2345
 9761W        W52752   8.585  23.316   9.012  0.0675 -0.1830 -0.0753
 9762W        W52753  22.897  33.879  23.748 -0.2363 -0.1977  0.1007
 9763W        W52754   7.967  14.511  10.636  0.2946 -0.1490  0.1776
 9764W        W52755   0.475  23.903   6.955  0.2918  0.4048 -0.1318
 9765W        W52756  19.992  19.716  24.606  0.3069 -0.0140  0.1739
 9766W        W52757  27.626  24.672  28.049 -0.0023 -0.0201 -0.1172
 9767W        W52758   3.849  24.285  17.683 -0.2404 -0.1956 -0.1859
 9768W        W52759  30.289   2.219  14.620 -0.1472  0.0331 -0.0907
 9769W        W52760  16.981  27.297   0.295 -0.2261 -0.1769  0.0073
 9770W        W52761  15.064   3.965  17.747 -0.0298  0.1043 -0.0433
 9771W        W52762  19.766  17.583  15.145 -0.1851  0.2476  0.0545
 9772W        W52763  26.880   2.173  22.144 -0.1806 -0.2518 -0.1028
 9773W        W52764  11.985  24.680  13.866 -0.1173  0.0554 -0.0107
 9774W        W52765   1.979  31.417  21.266  0.0533 -0.1154  0.0327
 9775W        W52766  14.228   2.684  23.882 -0.1103  0.0477 -0.1158
 9776W        W52767   5.592   8.741  15.989 -0.2722 -0.0442  0.0699
 9777W        W52768  28.949  32.638  29.056 -0.0960 -0.0138  0.0536
 9778W        W52769   2.692  14.697   5.925  0.2602 -0.0765 -0.1047
 9779W        W52770  28.203   3.111   5.188  0.0339  0.0104  0.1512
 9780W        W52771  28.613  32.453  13.991  0.1151 -0.0313 -0.0613
 9781W        W52772   6.526  16.466  18.664  0.0678  0.3266 -0.1809
 9782W        W52773   1.482   4.593  16.549 -0.2247 -0.4563  0.1426
 9783W        W52774  28.970  17.330  22.246  0.1011  0.0233  0.1508
 9784W        W52775  29.967  34.069   0.081  0.1343  0.2847  0.0608
 9785W        W52776   5.842  26.282  24.514 -0.0471  0.0320 -0.0857
 9786W        W52777  31.803  14.132   9.962  0.2498  0.0648 -0.0122
 9787W        W52778   2.589  29.172   3.977 -0.4177  0.1690  0.2673
 9788W        W52779  21.618  30.641   1.140  0.1470 -0.0521  0.1805
 9789W        W52780  19.775  19.903  25.085 -0.0105  0.0584 -0.1771
 9790W        W52781  23.954  17.248  27.653 -0.0144  0.3997 -0.1842
 9791W        W52782  23.781  18.980  18.586 -0.0920 -0.2025 -0.5007
 9792W        W52783  13.563   9.768   3.211  0.2615 -0.0242  0.3185
 9793W        W52784  20.892  22.451  19.756  0.0703 -0.1546 -0.2727
 9794W        W52785  27.079  20.621  24.827 -0.1853  0.3719 -0.1000
 9795W        W52786  15.652  17.583   4.251 -0.1608  0.0584  0.0473
 9796W        W52787  24.460  17.144   5.513  0.0187 -0.0432  0.2373
 9797W        W52788  28.648  30.441   3.067  0.0238  0.1734  0.3625
 9798W        W52789  24.526  17.636   8.245  0.0419 -0.0092 -0.4407
 9799W        W52790   7.992  19.550  23.201 -0.0141  0.0559  0.2767
 9800W        W52791   5.257  16.016  24.203 -0.2157  0.2588  0.0404
 9801W        W52792  10.757  22.918  23.279 -0.0595  0.0518  0.1510
 9802W        W52793  21.961  18.378  25.603  0.0508  0.0110  0.2025
 9803W        W52794  20.122  29.857   1.519 -0.1161 -0.1506  0.3772
 9804W        W52795  15.999  29.256  16.798 -0.1604 -0.1465  0.3267
 9805W        W52796  22.666  19.486   4.220 -0.4983 -0.2346  0.2304
 9806W        W52797  22.075   7.607  23.888  0.2294  0.0491  0.0966
 9807W        W52798  27.285   8.172   0.809 -0.0946 -0.0513  0.0206
 9808W        W52799  23.966   1.335  29.228  0.1302  0.1400  0.0609
 9809W        W52800   0.275  27.490   1.786  0.1600 -0.2170 -0.1441
 9810W        W52801  17.080  23.453  13.627  0.2816 -0.3004 -0.3128
 9811W        W52802  16.017  20.449   5.219  0.0109  0.0846 -0.3236
 9812W        W52803  19.597  30.145   4.147 -0.4942  0.3341  0.3440
 9813W        W52804  18.514  33.684  28.307 -0.0337 -0.2229 -0.1661
 9814W        W52805  25.260  13.588  21.145  0.1980 -0.0243 -0.0594
 9815W        W52806  12.825  31.197  23.174  0.1466  0.3005  0.1181
 9816W        W52807  10.758  20.582  13.801  0.2274 -0.1438 -0.0946
 9817W        W52808  21.728  11.959  25.661 -0.0397 -0.1653  0.0954
 9818W        W52809  28.412  27.135  27.705  0.3476 -0.1436  0.1034
 9819W        W52810   2.433   9.525   1.298  0.0043  0.1816 -0.4193
 9820W        W52811  23.883  33.600  22.713  0.0765 -0.0363 -0.0911
 9821W        W52812  25.443  12.185   5.098  0.0871 -0.0613 -0.2416
 9822W        W52813  26.029  27.020  19.752  0.2551 -0.0654  0.2117
 9823W        W52814  27.326  18.248   4.433  0.0412  0.2981 -0.1393
 9824W        W52815  12.872  18.412   4.317  0.1814  0.2001  0.2980
 9825W        W52816  34.409  28.588  28.098 -0.2685  0.0723 -0.1565
 9826W        W52817  21.508  16.946  23.719  0.2278 -0.1862  0.0140
 9827W        W52818  12.857  17.267   1.995  0.0738  0.3999  0.2055
 9828W        W52819   4.771   4.286  10.671 -0.2428  0.2867  0.2750
 9829W        W52820  30.783  28.604  21.223  0.2623  0.2478 -0.0719
 9830W        W52821  14.999   5.451  22.104 -0.1722 -0.0063 -0.0806
 9831W        W52822  14.226  17.116   7.277  0.0197 -0.1457 -0.0104
 9832W        W52823  20.985   9.330  20.789 -0.2973 -0.0804  0.1534
 9833W        W52824   8.049  21.071  24.430  0.0772 -0.0159 -0.2772
 9834W        W52825  18.651   0.728   0.520 -0.0568 -0.1968  0.3826
 9835W        W52826  28.620  32.770  21.992  0.0509 -0.3815 -0.0710
 9836W        W52827  17.100  18.592  23.506 -0.1659  0.0045 -0.0020
 9837W        W52828   4.833   2.905  18.127  0.0859 -0.2737  0.0864
 9838W        W52829  11.614  10.277  27.884 -0.2033 -0.0060 -0.1883
 9839W        W52830  29.383   2.420  20.972  0.2449 -0.1997 -0.2534
 9840W        W52831   3.735  20.685  15.526  0.0473  0.1020 -0.2752
 9841W        W52832  30.851  33.853   1.087 -0.0527 -0.0655  0.2271
 9842W        W52833   8.053  18.125   5.719  0.3749  0.1517 -0.2326
 9843W        W52834  26.060  17.537   3.901  0.1020  0.0068 -0.2318
 9844W        W52835  22.867  27.451  22.347  0.1023 -0.0350 -0.3722
 9845W        W52836  24.850  30.255  15.543  0.1191  0.0764 -0.1171
 9846W        W52837  23.042  14.949   8.106  0.0580  0.2292  0.0032
 9847W        W52838  25.780   4.082  23.104  0.1567  0.0438 -0.1957
 9848W        W52839  21.025   5.424  28.130  0.1082 -0.0361  0.1127
 9849W        W52840   2.675  25.745  19.188 -0.0031  0.0492 -0.2387
 9850W        W52841   2.109  25.455  23.122  0.0143 -0.2236 -0.0790
 9851W        W52842  24.186  26.277  23.171  0.0055  0.3321  0.2283
 9852W        W52843  18.803  34.322  22.309  0.0866  0.2953  0.0123
 9853W        W52844  16.506  19.413  25.107 -0.1811  0.1156  0.0787
 9854W        W52845  19.134  20.338  26.072  0.0511  0.1365 -0.0370
 9855W        W52846  17.450  12.172  19.200  0.3007 -0.3614 -0.0609
 9856W        W52847  10.692  12.453  23.549  0.0916  0.2894 -0.0464
 9857W        W52848  33.702  12.247   6.800  0.2540  0.0357 -0.1424
 9858W        W52849  28.413  17.014  17.071  0.0627  0.2641 -0.0662
 9859W        W52850  22.859  11.716  27.946  0.1387 -0.0080  0.2163
 9860W        W52851  11.118  28.848   4.757 -0.0623  0.0606 -0.1807
 9861W        W52852  31.858  26.686   1.228  0.0193  0.0877  0.1655
 9862W        W52853  23.579  26.045   3.092  0.1410  0.1613  0.2493
 9863W        W52854  23.071  17.005   3.065 -0.1921 -0.0727 -0.2410
 9864W        W52855  24.065   0.799   5.809 -0.1428  0.2207 -0.0247
 9865W        W52856  24.923   2.240  26.711  0.0261 -0.2819  0.2795
 9866W        W52857  12.951  15.036  29.153 -0.0693  0.1003 -0.1340
 9867W        W52858  26.080  15.508  26.723  0.2540 -0.0174  0.2492
 9868W        W52859  22.217  27.327  16.448 -0.0613 -0.0109  0.1924
 9869W        W52860  34.456  31.116   7.758 -0.2335  0.0766 -0.4571
 9870W        W52861  14.267  30.931   1.220 -0.1880 -0.0627  0.0972
 9871W        W52862  31.301  12.964   6.644  0.0602 -0.2060  0.2161
 9872W        W52863  32.395  12.871   3.276  0.1931  0.2998  0.2982
 9873W        W52864   2.698  30.248  21.234  0.2660  0.0835  0.1209
 9874W        W52865  11.580  30.513  27.831 -0.1334 -0.1386 -0.2412
 9875W        W52866  26.056  21.289   7.456  0.1042 -0.0521 -0.0860
 9876W        W52867  29.987  27.187   5.773  0.1155 -0.1233 -0.1155
 9877W        W52868  30.110   7.195  22.020  0.0793 -0.0085 -0.2687
 9878W        W52869  27.781  31.941  20.321 -0.2514 -0.2236  0.2418
 9879W        W52870  19.362  29.581   4.048 -0.0462  0.0190  0.0712
 9880W        W52871  16.546  32.398   0.598 -0.2262 -0.0516 -0.1460
 9881W        W52872  23.765  23.590  17.893  0.1195 -0.4127 -0.0040
 9882W        W52873  19.455  25.091  16.272 -0.0760 -0.1875  0.0661
 9883W        W52874   7.940  23.043  27.238  0.1600 -0.0143  0.1170
 9884W        W52875  33.862   2.421   8.758 -0.0448 -0.2077  0.2086
 9885W        W52876  11.299  29.178  19.242  0.2018  0.2038 -0.0561
 9886W        W52877  15.801  32.808  28.419  0.0177  0.0671 -0.2896
 9887W        W52878  18.407  18.753   7.572 -0.1228 -0.0837  0.0731
 9888W        W52879   8.251   9.701  23.062  0.0792 -0.0665  0.0302
 9889W        W52880   8.767  14.446  27.072 -0.0989  0.1216  0.3629
 9890W        W52881  26.415  29.000   4.888 -0.1129 -0.1351 -0.0133
 9891W        W52882  32.759   9.963   3.932 -0.0080 -0.0168 -0.1201
 9892W        W52883  30.934   2.532  19.251 -0.0624  0.0208  0.0193
 9893W        W52884   3.809  19.628  18.600  0.1998 -0.2086  0.0070
 9894W        W52885  15.595  28.350  29.121 -0.0836  0.1383 -0.0184
 9895W        W52886  28.963  32.837  19.713 -0.2928 -0.2130  0.0478
 9896W        W52887  28.362  21.384  26.179 -0.0451  0.0202  0.0166
 9897W        W52888   0.649  15.544  17.383 -0.1672  0.1682 -0.2197
 9898W        W52889  30.749   1.603  16.617  0.2630 -0.1034 -0.1071
 9899W        W52890  29.685  16.945   9.386  0.1962 -0.0170  0.0497
 9900W        W52891  23.252  28.632  20.033 -0.1165 -0.0033  0.0419
 9901W        W52892   3.926  23.846  15.861  0.0880 -0.2795 -0.0568
 9902W        W52893  22.285  16.458  20.668  0.1507  0.0869 -0.1554
 9903W        W52894  30.042   3.563  26.644 -0.1352  0.2675 -0.1481
 9904W        W52895  30.341   8.884  28.664 -0.2259 -0.0362 -0.0419
 9905W        W52896  13.326   3.144  20.413 -0.0889  0.2762  0.0733
 9906W        W52897  12.023  23.734   4.790  0.0321 -0.0455  0.0501
 9907W        W52898  25.346  24.772  16.035 -0.0251  0.0637  0.1045
 9908W        W52899  21.771  25.488   3.062  0.0794 -0.1818  0.0240
 9909W        W52900   2.042  29.369   7.007  0.0654  0.0922  0.2153
 9910W        W52901  28.603  25.674   3.423  0.1976 -0.1287 -0.1333
 9911W        W52902   9.468  23.405   4.266 -0.0389 -0.1388  0.0832
 9912W        W52903  13.024   8.455   2.248 -0.2897 -0.0249  0.4060
 9913W        W52904  23.020   7.396  22.362  0.1741 -0.3946  0.0325
 9914W        W52905  21.457  20.315   4.696 -0.2850  0.0893 -0.0341
 9915W        W52906  11.181  26.414   2.416 -0.0498 -0.2682 -0.2441
 9916W        W52907  15.531   6.579  19.663  0.1568 -0.1178 -0.0638
 9917W        W52908  34.235  25.735   8.248 -0.1099  0.2449  0.0130
 9918W        W52909   1.313  19.864  26.241  0.0282 -0.1475  0.0634
 9919W        W52910   3.461  20.700  10.134 -0.1377 -0.1549  0.3694
 9920W        W52911  11.869  24.521   9.318 -0.0685 -0.0241 -0.0635
 9921W        W52912  23.645  10.940   4.991 -0.2519  0.0211 -0.0537
 9922W        W52913  27.584  19.554   3.883 -0.0948  0.0606 -0.1255
 9923W        W52914   0.897  30.820  14.724 -0.0490  0.1971 -0.1741
 9924W        W52915   8.021   1.070  17.635 -0.1769  0.1739 -0.1115
 9925W        W52916  12.933  16.579  20.413  0.0132  0.0364 -0.2009
 9926W        W52917  30.590  18.424  17.522  0.5894  0.1402 -0.1438
 9927W        W52918  12.442  26.355   7.097  0.1212  0.0216 -0.1980
 9928W        W52919  19.741  31.672  26.497 -0.1062 -0.0506 -0.0841
 9929W        W52920  23.303  30.618   4.375  0.0170 -0.1715 -0.0022
 9930W        W52921  19.410  22.779   5.369  0.3524 -0.1133  0.1517
 9931W        W52922  20.062  25.209  25.341  0.1735  0.0278  0.1285
 9932W        W52923  31.884   6.831  24.812 -0.0076  0.1309 -0.2102
 9933W        W52924  30.631  25.668   4.768 -0.0973 -0.0728 -0.1465
 9934W        W52925  33.368  16.519  19.669  0.3563  0.1528  0.0115
 9935W        W52926  14.130  21.098  23.763 -0.0358 -0.0753  0.2055
 9936W        W52927  27.270  33.465  21.023 -0.1105 -0.0281  0.1186
 9937W        W52928  33.228  33.737   4.859 -0.1854 -0.0868 -0.0387
 9938W        W52929  16.818  28.260   6.494 -0.0736  0.0437  0.1781
 9939W        W52930  31.086  22.338   3.852  0.1225  0.0045  0.1741
 9940W        W52931   0.640  19.194  27.004 -0.2624 -0.0287 -0.1434
 9941W        W52932  28.800   4.218   1.497 -0.0496 -0.0712  0.0672
 9942W        W52933  32.625  25.123   8.950 -0.0697 -0.0037 -0.2668
 9943W        W52934  18.070  26.976  19.193 -0.3487  0.2236 -0.4373
 9944W        W52935   0.089  14.006  11.571 -0.2237  0.0014  0.5771
 9945W        W52936   1.286   0.235   5.576  0.3250 -0.2783  0.0260
 9946W        W52937  17.569  27.703  26.949  0.0145  0.1883  0.1497
 9947W        W52938  30.545  19.360  15.409  0.0123 -0.0848  0.3608
 9948W        W52939  32.655  22.559  21.853  0.1848 -0.3672  0.0187
 9949W        W52940  33.849  15.489  26.876  0.2586 -0.0704 -0.1873
 9950W        W52941  26.746  24.470   3.371 -0.0681 -0.0838  0.1464
 9951W        W52942  29.024  23.415  18.466  0.0336  0.2579  0.0629
 9952W        W52943  16.015  23.850   4.672  0.1343 -0.1355 -0.4421
 9953W        W52944   7.240  24.507  18.750  0.1810 -0.0723  0.0728
 9954W        W52945  22.117  32.278  25.568  0.1451  0.0941  0.0570
 9955W        W52946  29.673  27.868  22.778 -0.0933 -0.0980  0.0499
 9956W        W52947   6.236   7.300  23.558  0.2878  0.3619 -0.1230
 9957W        W52948  32.834  13.924   4.159 -0.0456 -0.1180  0.1607
 9958W        W52949  22.467  24.734  12.869 -0.0011 -0.2021 -0.4643
 9959W        W52950  30.443  18.592  16.726  0.1242  0.1739 -0.0693
 9960W        W52951  14.101  32.795  19.738  0.0741  0.1555  0.1617
 9961W        W52952  34.095  20.410   6.443 -0.1754 -0.1373  0.3294
 9962W        W52953  10.381  27.196  23.649  0.1303  0.1035  0.0932
 9963W        W52954   4.387  22.468   7.588  0.0554 -0.0410 -0.3235
 9964W        W52955  25.449  30.507   6.581 -0.2857 -0.2410 -0.1293
 9965W        W52956  30.481  29.224   6.204  0.2539 -0.0227 -0.2210
 9966W        W52957   1.987  13.319  22.080 -0.2680 -0.0993  0.2811
 9967W        W52958  17.798   8.169   3.625 -0.2063  0.0495  0.0649
 9968W        W52959  19.410  18.339  22.065 -0.3334 -0.0986 -0.0076
 9969W        W52960  17.363  14.208  12.386 -0.2659  0.0163  0.3383
 9970W        W52961  15.703  22.338  14.495  0.0624  0.1487 -0.2268
 9971W        W52962  15.059  22.832  15.816 -0.2764  0.2436 -0.3313
 9972W        W52963   7.439  30.547   9.519  0.0128  0.1459 -0.2509
 9973W        W52964  20.506  26.602   2.044  0.1561 -0.2977 -0.0520
 9974W        W52965  21.312  24.174  18.288 -0.0715 -0.2102 -0.0415
 9975W        W52966  23.504  33.259  21.233  0.2478  0.3517 -0.3141
 9976W        W52967  24.937  20.174  25.416  0.0199  0.2020  0.2920
 9977W        W52968   5.629  21.215   2.500 -0.0284 -0.3328  0.1075
 9978W        W52969  23.623  22.804   2.233 -0.0162 -0.1322  0.1152
 9979W        W52970  32.822  24.502  19.194  0.1947 -0.0354 -0.3185
 9980W        W52971  24.648  19.720  29.209 -0.1680  0.1665  0.2195
 9981W        W52972   4.983  30.643  17.368 -0.1454  0.2552 -0.0311
 9982W        W52973  29.578  22.111   1.518  0.0304  0.0148 -0.4156
 9983W        W52974  29.675   6.368  28.859 -0.4989  0.1731 -0.2558
 9984W        W52975   8.667  26.567  20.672 -0.1212 -0.1086  0.2549
 9985W        W52976  11.763  24.500   7.595 -0.1388  0.2349  0.1391
 9986W        W52977  16.573  24.032   4.984 -0.0977 -0.4833  0.0136
 9987W        W52978  21.230  27.084  16.993 -0.1389  0.2384  0.0708
 9988W        W52979  23.440  20.800  15.271  0.0612  0.2663  0.3608
 9989W        W52980  29.561  22.817   8.569 -0.2164  0.1630 -0.1265
 9990W        W52981   1.811  13.468  25.709  0.5024  0.3922  0.0715
 9991W        W52982   4.519  29.058   3.510 -0.0788 -0.0167  0.0794
 9992W        W52983  22.695  24.171   1.701 -0.2017  0.1753 -0.2625
 9993W        W52984  32.205  16.576   1.095  0.0239 -0.0803  0.0841
 9994W        W52985  34.528  21.626  18.601 -0.3799 -0.0636 -0.3633
 9995W        W52986  21.817  28.029  21.615  0.2015  0.2116 -0.1574
 9996W        W52987  18.965   9.588   4.265  0.0567  0.0149 -0.1164
 9997W        W52988  18.215  32.060  24.471  0.1395  0.2554  0.1249
 9998W        W52989  21.395  17.281  14.029  0.0265 -0.1691 -0.0386
 9999W        W52990   3.500   4.107   4.248  0.0379  0.1059 -0.1309
10000W        W52991  12.873  24.389  23.096 -0.0252 -0.1797 -0.4878
10001W        W52992  12.951  28.435  15.593 -0.1161  0.1595  0.5133
10002W        W52993   0.709   5.224  28.613 -0.1068 -0.0422 -0.1018
10003W        W52994   5.786  23.104   0.112  0.2396  0.1280 -0.0153
10004W        W52995  32.553  17.388  28.428  0.1268 -0.2439  0.0104
10005W        W52996  21.507   8.656   7.628  0.0029 -0.2851 -0.0334
10006W        W52997  28.304  19.993   4.082  0.2355 -0.1572  0.1750
10007W        W52998  14.510  13.244  25.949  0.0361 -0.2289 -0.0192
10008W        W52999  14.349  22.094  21.214 -0.0078 -0.2577  0.0851
10009W        W53000  21.289  29.734  21.969 -0.0639  0.2065 -0.0016
10010W        W53001  34.550  21.592  21.397  0.1124 -0.1445 -0.0009
10011W        W53002  15.329  28.623  17.993  0.1513 -0.1366  0.0037
10012W        W53003  16.644  22.830  14.259  0.2190 -0.2336 -0.1893
10013W        W53004  31.575  10.310  10.551 -0.1450  0.1033  0.1797
10014W        W53005  20.861  32.029   7.587 -0.1946 -0.0422 -0.2051
10015W        W53006  19.553  12.471  15.227 -0.0510  0.1212 -0.1172
10016W        W53007  21.662  25.007  15.280 -0.0151  0.2422 -0.0551
10017W        W53008  20.102  10.512   6.210  0.3748 -0.2499  0.0930
10018W        W53009  21.549  17.497  22.905  0.1806  0.0781  0.0293
10019W        W53010  24.527  25.134   1.244 -0.1405 -0.0941  0.4755
10020W        W53011  29.749  16.676  20.134  0.0289  0.0007 -0.0185
10021W        W53012  20.053  32.573   6.766  0.0862  0.4829 -0.1546
10022W        W53013  24.227   8.525  23.298  0.0274 -0.0149  0.0285
10023W        W53014  21.494  33.062   3.462 -0.0331 -0.1617 -0.0221
10024W        W53015  21.863  30.328   4.733  0.1342  0.0726 -0.0541
10025W        W53016  28.578  20.639  29.090 -0.2368 -0.4922  0.1370
10026W        W53017   3.006  30.664  27.905 -0.0973  0.2174  0.2920
10027W        W53018  14.045  10.859   9.110 -0.1360 -0.2495 -0.1757
10028W        W53019  18.074  20.585   1.614  0.0627  0.0895  0.0680
10029W        W53020   6.758   8.058  17.978 -0.2471 -0.4708 -0.1058
10030W        W53021  31.860  14.753   5.140 -0.1958 -0.0768  0.1282
10031W        W53022   1.239   1.970   3.844  0.0373 -0.0384  0.0391
10032W        W53023  10.747  32.641  20.037  0.1759 -0.1929  0.1598
10033W        W53024  24.457  18.098   4.456 -0.3106  0.1919 -0.1956
10034W        W53025  25.022  16.783  19.248  0.0913  0.0257  0.0420
10035W        W53026  22.217  32.776  28.610  0.2053  0.4291 -0.1690
10036W        W53027  22.462  25.241   8.288  0.0001 -0.0052 -0.0778
10037W        W53028   4.037  27.417   1.993 -0.0469  0.0351 -0.0593
10038W        W53029  18.226   1.398  16.468  0.0699 -0.0759  0.1811
10039W        W53030  24.733  20.959   0.704 -0.4299 -0.2066 -0.0325
10040W        W53031  33.188  19.343   4.917  0.0687 -0.3675 -0.2402
10041W        W53032  11.404  14.389   0.611 -0.0236  0.0817 -0.1181
10042W        W53033  26.861  24.312  27.637 -0.2162 -0.1570  0.0697
10043W        W53034  18.937  17.530   5.980 -0.0281 -0.1332  0.0766
10044W        W53035  29.056  20.041  28.570 -0.1349 -0.0769  0.2128
10045W        W53036   8.426   5.228   9.766  0.0606 -0.5635 -0.0286
10046W        W53037  16.237  23.069   8.743 -0.0404  0.1222 -0.0225
10047W        W53038  27.487  23.687  27.437 -0.0792  0.1281 -0.5396
10048W        W53039  29.488  22.223  15.042 -0.0157 -0.2202 -0.0503
10049W        W53040  26.969  31.881  14.404 -0.2166  0.0010  0.0722
10050W        W53041  28.010  30.221   3.416  0.4064 -0.1118  0.3290
10051W        W53042   2.096   8.830   5.174 -0.0830 -0.0075 -0.1631
10052W        W53043  26.191  14.414   5.504 -0.1462  0.0391  0.1196
10053W        W53044   0.257  19.136   2.752 -0.0242 -0.1714  0.0950
10054W        W53045  22.764  20.216  24.394  0.4606  0.1526  0.1575
10055W        W53046  20.107  22.343  27.138  0.1953  0.0582  0.1408
10056W        W53047   7.076  28.909   6.007 -0.3961 -0.3477 -0.1646
10057W        W53048  10.012  21.603  28.418 -0.0497  0.0981 -0.0559
10058W        W53049  27.620  14.832   6.964  0.0346 -0.1201 -0.0720
10059W        W53050  21.728  18.484   3.934  0.1484  0.4360  0.0075
10060W        W53051  11.251  26.946  10.080 -0.5514 -0.1157 -0.0695
10061W        W53052  21.594  31.811  23.967 -0.1476 -0.0667  0.0177
10062W        W53053  28.303  19.192  20.295 -0.2291 -0.3153  0.2200
10063W        W53054  21.329  33.499  16.165  0.1219  0.5171  0.1867
10064W        W53055  27.909  18.753   3.567  0.3040  0.2405 -0.1808
10065W        W53056  22.308  14.637  16.394 -0.1634  0.0554  0.1428
10066W        W53057  24.896  30.870  18.338  0.2262  0.2121 -0.0407
10067W        W53058   0.406  33.568  16.371 -0.1081  0.0907  0.1381
10068W        W53059   0.789  17.635   4.258 -0.0109  0.0517  0.0449
10069W        W53060  25.823  19.226  26.715  0.1211  0.0151  0.1060
10070W        W53061  30.986   3.576   4.425  0.2527 -0.3183 -0.1364
10071W        W53062  31.558  23.407  28.799 -0.0188 -0.2197  0.3102
10072W        W53063  14.442  23.605   3.020 -0.0852  0.1763 -0.2365
10073W        W53064  16.811  31.639  14.561 -0.0807  0.2206  0.0373
10074W        W53065  30.698  17.146   1.427 -0.0866 -0.3892  0.1975
10075W        W53066  32.943  20.876  21.041 -0.0966 -0.1457 -0.2352
10076W        W53067  32.163  31.387  22.647 -0.0957  0.3999 -0.0530
10077W        W53068   4.837  30.169  21.449  0.1517 -0.0095  0.1171
10078W        W53069  31.513  29.970  17.354  0.0161 -0.3791  0.2318
10079W        W53070  31.683  20.587   8.240 -0.2202  0.1952  0.2050
10080W        W53071  22.930   7.879   8.821 -0.0075 -0.0797  0.3016
10081W        W53072   2.120  25.072   2.203  0.3584 -0.0385  0.2545
10082W        W53073  18.603   1.658  15.038  0.0419 -0.0676  0.0369
10083W        W53074  27.931  23.827  17.484  0.2167 -0.4041  0.0202
10084W        W53075  17.551  20.967  13.690 -0.1095  0.1466  0.0321
10085W        W53076  15.726  27.809  28.686 -0.0934 -0.1271 -0.0964
10086W        W53077  27.603  27.520  27.391  0.0713 -0.1676  0.0894
10087W        W53078  23.382   6.494  22.720  0.3968  0.0940 -0.1503
10088W        W53079   8.230  21.877  23.041  0.1884  0.1837  0.5220
10089W        W53080  23.485  22.764  19.472  0.0115 -0.1620 -0.2021
10090W        W53081  20.370  31.680  28.383  0.0901  0.0139  0.0006
10091W        W53082   1.302  23.604  16.473  0.0457  0.0126 -0.2462
10092W        W53083   4.372  23.092  28.210  0.1246  0.2027 -0.1872
10093W        W53084   4.863  34.344  24.970  0.0581  0.2768  0.2283
10094W        W53085  29.355  26.092  19.796 -0.3362 -0.4220  0.0071
10095W        W53086  15.405  30.373  17.269 -0.2162  0.1894  0.1640
10096W        W53087  17.845  29.763  18.290  0.0335  0.1893  0.1463
10097W        W53088  21.918  20.178  18.836 -0.0515 -0.2956  0.2586
10098W        W53089  14.250  24.736  16.794 -0.0505  0.0377 -0.2665
10099W        W53090  31.737  19.178  21.253  0.1583  0.0527 -0.2216
10100W        W53091  20.780  22.508  17.946 -0.0158  0.0455 -0.0877
10101W        W53092  12.495  18.204  28.178 -0.0068  0.0177 -0.0083
10102W        W53093   0.154   4.613  22.609 -0.2121  0.2132 -0.0126
10103W        W53094  28.753  10.253  26.865 -0.1338 -0.1162 -0.2906
10104W        W53095  16.308  18.420  13.825 -0.1086 -0.1334  0.0274
10105W        W53096  13.640  26.825  22.978  0.0995  0.1457  0.1775
10106W        W53097  28.445  27.485  17.149  0.0902 -0.1199 -0.0767
10107W        W53098  31.503  20.898  14.491  0.0238 -0.6024  0.0690
10108W        W53099  18.422   0.411  18.646  0.2260 -0.2432 -0.2264
10109W        W53100  18.793   1.294  14.667 -0.2775  0.0169  0.0135
10110W        W53101  26.086   1.320  19.040  0.0396  0.1128 -0.0374
10111W        W53102  20.741  26.432  23.032 -0.1692 -0.1177  0.1175
10112W        W53103  21.989  24.687  16.764 -0.2034  0.1138 -0.0191
10113W        W53104  27.737  34.655  17.123  0.0413 -0.1293  0.1000
10114W        W53105  23.670  29.454  23.734  0.0022  0.1774  0.1496
10115W        W53106  15.096   0.416  25.765  0.0590  0.2429  0.0052
10116W        W53107  16.159  28.857   0.249 -0.0604  0.2256  0.1919
10117W        W53108  29.664   1.743   5.114  0.2846  0.1166  0.0929
10118W        W53109  14.423  22.247  19.981  0.1178  0.0959 -0.0870
10119W        W53110  15.427  30.892  21.650  0.1082  0.0311  0.1220
10120W        W53111   9.312   4.584  22.709  0.0026 -0.0712  0.0814
10121W        W53112  23.076  19.418  20.692  0.2374 -0.0366  0.0781
10122W        W53113  21.157  28.477  14.165  0.0312  0.1013 -0.1170
10123W        W53114  21.901  23.937  15.409  0.0728 -0.2199 -0.0679
10124W        W53115  29.636   7.637  21.323  0.0529  0.0558  0.2015
10125W        W53116  11.067  15.246  16.676 -0.0228  0.2124 -0.2345
10126W        W53117  33.335   9.403  27.934  0.2613  0.1084 -0.0175
10127W        W53118  30.212  16.239  29.117  0.1058  0.1306 -0.1011
10128W        W53119   9.182  33.220  16.166 -0.1679  0.0344 -0.0564
10129W        W53120  17.602  29.693  13.323 -0.4260 -0.1173  0.3566
10130W        W53121  30.802  28.221  19.941  0.0235  0.1234 -0.2740
10131W        W53122  28.660  25.239  14.286  0.2113  0.0064  0.5237
10132W        W53123  13.175  14.648  17.813  0.2108 -0.0698  0.1963
10133W        W53124  34.711   7.116  16.625 -0.0688  0.1529  0.3025
10134W        W53125  18.367  10.672  17.031  0.0595  0.0140 -0.0588
10135W        W53126  18.377  24.301  18.457 -0.1146  0.1041 -0.1196
10136W        W53127  28.528  34.570  18.931  0.0819  0.3389 -0.1713
10137W        W53128   7.445  28.694  19.962  0.1017 -0.1808 -0.3324
10138W        W53129  31.045   5.729  24.402  0.0917  0.3473  0.1015
10139W        W53130  21.380  30.810  21.669 -0.0753  0.5253 -0.0389
10140W        W53131  14.213  31.319  15.196  0.1216 -0.1091  0.0485
10141W        W53132  17.082  27.447  24.069 -0.0704 -0.0389 -0.1892
10142W        W53133  26.037   2.737  18.318  0.1243 -0.2913  0.2039
10143W        W53134  10.627  18.534  25.277  0.1280  0.0592  0.0912
10144W        W53135   7.765  31.462  15.277  0.0538 -0.3427  0.0316
10145W        W53136  16.345  30.240  28.296  0.1277  0.1338  0.1670
10146W        W53137  25.472  20.984  24.379  0.0886 -0.1965 -0.2480
10147W        W53138   8.206  17.135   5.353 -0.0893  0.0049  0.0610
10148W        W53139  22.689  33.756  22.915  0.0749  0.0857  0.0776
10149W        W53140  25.589   9.834  15.071 -0.2200 -0.1183 -0.2830
10150W        W53141  14.746  22.465  23.274  0.0425  0.0043  0.1336
10151W        W53142  20.720  29.463  14.882 -0.1069  0.1479 -0.0634
10152W        W53143   0.946  30.366  18.706 -0.0478  0.1650 -0.1645
10153W        W53144  18.442   5.050  19.084 -0.1347  0.3720 -0.0779
10154W        W53145  14.310  26.942   5.448  0.3192 -0.1498 -0.0615
10155W        W53146  18.462  32.022  18.894 -0.5353 -0.0254  0.1822
10156W        W53147  32.402  27.703  18.824  0.1144 -0.1518  0.3373
10157W        W53148  20.264  29.428  21.781 -0.1750  0.2197 -0.1175
10158W        W53149  23.839  29.225  26.492 -0.0517 -0.1788  0.0451
10159W        W53150  32.982  27.147  20.524  0.4055 -0.0868 -0.0319
10160W        W53151   3.317  30.897  14.328 -0.0599  0.2672 -0.1424
10161W        W53152   7.400  29.891  20.129  0.1205  0.2729  0.0181
10162W        W53153  27.191   0.114  18.587  0.1425 -0.0257 -0.0557
10163W        W53154  11.249  23.801  15.680  0.2691 -0.0341  0.1947
10164W        W53155  26.738  29.034  13.091 -0.0240 -0.0512 -0.2171
10165W        W53156  34.054   3.984   3.941  0.0205  0.3381 -0.0558
10166W        W53157   2.809  28.072   4.899  0.2527  0.0246 -0.0345
10167W        W53158  33.215  26.719  23.968  0.0067 -0.2916 -0.0584
10168W        W53159  26.889   0.048  22.076  0.2372 -0.0868  0.2709
10169W        W53160   0.880  16.194  19.432  0.0200  0.1630 -0.1134
10170W        W53161  15.446  34.658  20.032  0.4888  0.3755 -0.1217
10171W        W53162  28.221  30.932  20.726 -0.2840  0.0994  0.0300
10172W        W53163  18.908   4.612  26.575  0.2140  0.0685  0.2922
10173W        W53164  19.130   1.192  21.702 -0.2549  0.1004 -0.0334
10174W        W53165  11.045   5.537  19.964  0.2795 -0.1132  0.2474
10175W        W53166  28.392  32.320  21.369  0.1558 -0.0495 -0.1082
10176W        W53167  11.844  23.429  16.991 -0.2663  0.0822  0.2619
10177W        W53168   3.366   3.271  26.653 -0.1972  0.2785 -0.0685
10178W        W53169  24.213  16.332  14.765  0.1254 -0.0115 -0.0810
10179W        W53170  32.494  26.576  17.844 -0.0067 -0.0692 -0.1540
10180W        W53171   3.706  27.517   2.912 -0.1525  0.0826  0.1451
10181W        W53172  29.908   3.213  25.117 -0.0560  0.0278  0.1161
10182W        W53173   1.028   6.334  23.062  0.0657 -0.1686  0.1447
10183W        W53174   3.475  28.469  17.135 -0.0925  0.0725 -0.3529
10184W        W53175  31.163  19.496  16.204 -0.1544  0.3773 -0.1087
10185W        W53176  24.982  34.391  24.896 -0.0862 -0.3357 -0.3459
10186W        W53177  20.778  28.518  19.360  0.1651 -0.0946  0.1787
10187W        W53178  12.293   0.867  26.712  0.5893 -0.0293 -0.1437
10188W        W53179  34.660  30.813  27.141 -0.1127  0.2232 -0.1029
10189W        W53180   1.767  30.814  14.538  0.4357  0.1781 -0.0790
10190W        W53181  17.391  25.190  14.114  0.2110 -0.0350  0.0361
10191W        W53182  31.098  18.371  28.222 -0.0003 -0.1756  0.1886
10192W        W53183   3.637  28.157  14.385 -0.1473 -0.0623 -0.0557
10193W        W53184  21.832  12.307  22.241  0.0497 -0.2517  0.4779
10194W        W53185  25.095  33.748  21.278  0.4621 -0.0659 -0.0352
10195W        W53186  25.408  24.203  24.969 -0.1184  0.3493  0.0403
10196W        W53187   6.485  34.251  17.002  0.0584 -0.0265 -0.0404
10197W        W53188  30.006  32.680  21.829  0.0358 -0.2130  0.1354
10198W        W53189  26.105  14.263  22.477  0.1701  0.2131  0.1261
10199W        W53190  31.339  11.908  27.262 -0.0051  0.2393 -0.0505
10200W        W53191  26.419  21.204  16.467 -0.2094  0.0249 -0.1108
10201W        W53192  13.998  31.201  18.455  0.1942  0.2225 -0.2355
10202W        W53193  31.214   6.528  15.498 -0.3655  0.3926  0.2952
10203W        W53194   6.234  24.536  16.848 -0.2271  0.3483 -0.0935
10204W        W53195  19.723  25.654  24.080  0.3033 -0.2916  0.3079
10205W        W53196   0.088   3.811   7.105  0.1627  0.0088  0.2185
10206W        W53197  22.680   9.464  19.399 -0.1956 -0.3347 -0.2604
10207W        W53198  18.488  32.932  22.359 -0.0076 -0.1960  0.0319
10208W        W53199  18.545  33.275   0.406 -0.1844  0.0883 -0.2395
10209W        W53200  25.622   2.013   7.541 -0.1007 -0.0581 -0.3222
10210W        W53201  16.872  26.436  19.625 -0.0709  0.0564 -0.2783
10211W        W53202  22.438  34.549  23.768 -0.1632  0.1508  0.1704
10212W        W53203  25.362  28.025  12.741  0.0396 -0.0016  0.1690
10213W        W53204  26.337  22.925  28.053 -0.5205  0.3466  0.0800
10214W        W53205  15.989  32.739  19.475 -0.0020 -0.1824 -0.1636
10215W        W53206  34.423  27.033  18.865 -0.2157  0.2220  0.1424
10216W        W53207  11.606  19.247   0.061 -0.1257 -0.1110  0.1092
10217W        W53208   4.958   0.613   0.669 -0.0572  0.0378  0.2825
10218W        W53209  23.118  16.875  26.624  0.0545  0.0212 -0.1982
10219W        W53210  25.006  32.325  16.520  0.0088  0.0152 -0.1065
10220W        W53211  21.472  13.429   5.928 -0.1601  0.0372  0.0565
10221W        W53212  28.380  30.288  17.880 -0.0176  0.1376  0.0036
10222W        W53213   6.885  32.363  21.909 -0.1234 -0.2616  0.3633
10223W        W53214  18.319   1.567  14.584  0.1730  0.0024 -0.2768
10224W        W53215  22.124  28.182  25.993 -0.1259  0.3447 -0.4064
10225W        W53216   1.328  16.657  23.141  0.0201 -0.0329  0.1343
10226W        W53217  34.743  31.126   5.010  0.2318 -0.1040 -0.0921
10227W        W53218  33.540  28.075  14.260 -0.2039 -0.2127 -0.3303
10228W        W53219  32.348  16.336   1.525  0.1992  0.4348 -0.0331
10229W        W53220   0.099  24.268  24.353 -0.1732  0.0295 -0.5762
10230W        W53221  25.724  25.054  27.476 -0.1911 -0.2953 -0.3577
10231W        W53222  22.556   2.891  21.543  0.1214 -0.0574 -0.0524
10232W        W53223  31.357  23.740  20.511  0.1961 -0.1496  0.0913
10233W        W53224  21.473  23.983  22.758  0.2406  0.1129 -0.1484
10234W        W53225  25.893  32.645  17.325  0.1706 -0.0984 -0.1999
10235W        W53226  24.187   0.342  23.562  0.0427 -0.1189  0.1326
10236W        W53227  26.643   6.172  20.148  0.1427 -0.0258  0.0710
10237W        W53228  31.344  32.307  28.011 -0.0110  0.0803  0.4561
10238W        W53229  24.129  24.356  28.210  0.1875 -0.2355 -0.0656
10239W        W53230  30.133  22.658  23.000  0.1202  0.3949 -0.0359
10240W        W53231   0.458  28.917  24.645 -0.0329 -0.1615  0.1213
10241W        W53232  21.540   2.961  21.407  0.0695  0.3180 -0.0669
10242W        W53233  16.969  20.638  18.343  0.2823 -0.1583  0.0350
10243W        W53234  24.741  17.517  17.237 -0.3246  0.2922  0.2932
10244W        W53235  21.925  32.596  14.788  0.0467 -0.0868  0.0166
10245W        W53236  23.289  26.485  16.122  0.0768  0.0181 -0.0531
10246W        W53237  29.062   0.239  21.861  0.4077 -0.0482 -0.0622
10247W        W53238  29.660  23.970  20.132  0.1664  0.1936  0.2367
10248W        W53239  16.468  25.296  24.638 -0.0469  0.1392  0.0636
10249W        W53240  24.625  25.141   2.944  0.3509  0.0724 -0.1243
10250W        W53241  20.974  29.804  27.225  0.2837 -0.0962  0.0291
10251W        W53242  16.489  25.577   2.615 -0.2702 -0.1606  0.1294
10252W        W53243  23.634   5.180  19.734  0.0156  0.1629  0.1827
10253W        W53244  12.738  31.023  19.355  0.2078 -0.1303 -0.0930
10254W        W53245  19.379  24.255  24.567  0.1205 -0.3160 -0.0205
10255W        W53246  19.711   2.269  14.708  0.3284  0.2699  0.0673
10256W        W53247  13.397  14.303  14.302 -0.2046  0.1562  0.1676
10257W        W53248  21.141  29.006  26.895 -0.0958 -0.0028  0.0318
10258W        W53249  19.941  34.231  17.229 -0.3928 -0.1937 -0.0434
10259W        W53250  27.457  18.359  26.115  0.2111  0.1785 -0.2562
10260W        W53251  23.676  24.297  14.158 -0.1509  0.0016 -0.1747
10261W        W53252   3.533  22.190  19.834  0.0661  0.0627 -0.0004
10262W        W53253  28.710  20.845   9.365  0.0106  0.0322 -0.4071
10263W        W53254  23.882   0.274  27.561 -0.0277  0.1321 -0.0407
10264W        W53255  27.157  17.227  19.324 -0.1950 -0.0646  0.0131
10265W        W53256  10.566  16.503   2.017  0.1004 -0.0390 -0.1014
10266W        W53257  20.628  34.333  13.879  0.2358  0.2423 -0.1344
10267W        W53258   3.156  26.248  26.299  0.2158  0.2115 -0.0908
10268W        W53259  31.349  14.129  16.047 -0.0618 -0.2229  0.0939
10269W        W53260  18.360  30.820  21.725 -0.1336  0.3122  0.0277
10270W        W53261  23.941  21.625  18.320 -0.0252 -0.0018  0.3117
10271W        W53262  23.316  22.332  13.196 -0.2355  0.3698  0.0482
10272W        W53263  30.058  15.113  24.506 -0.0726 -0.0657 -0.0232
10273W        W53264  19.182   9.270  22.370  0.0580 -0.0687 -0.0573
10274W        W53265  26.654  30.628  21.262 -0.0862  0.0216 -0.1876
10275W        W53266  25.687  24.214  19.398 -0.0900 -0.0470  0.1912
10276W        W53267  12.205  33.895  10.731 -0.1695  0.0472  0.0823
10277W        W53268  13.364  32.048  24.109  0.0754  0.0505  0.2065
10278W        W53269  25.236  34.334  20.396 -0.0124  0.0184  0.0114
10279W        W53270   7.315   4.626  17.662  0.0676 -0.2392 -0.0718
10280W        W53271  11.940  22.712  24.454 -0.2522 -0.0481  0.0002
10281W        W53272  23.534  13.530  24.018 -0.0379  0.1296 -0.0681
10282W        W53273   6.882  33.897  27.325  0.2032 -0.0696 -0.1438
10283W        W53274  30.052  28.257  16.747 -0.1951 -0.0226 -0.0111
10284W        W53275  10.557   4.614  14.629 -0.1294 -0.2107  0.3657
10285W        W53276   1.004  18.318  16.100  0.0987 -0.3704 -0.0029
10286W        W53277  17.182  29.544  15.247 -0.3745  0.2325  0.0847
10287W        W53278  22.320  30.989  15.612  0.0910 -0.0942  0.1802
10288W        W53279  13.711  21.749  24.886 -0.1681 -0.0638  0.0856
10289W        W53280   1.520  15.562  19.812  0.3230 -0.2073 -0.0345
10290W        W53281  28.331   0.839   8.541 -0.3019  0.1727  0.0739
10291W        W53282  30.325  20.094  21.112 -0.0666 -0.3377  0.1186
10292W        W53283  34.047  26.020  18.984 -0.0901  0.3199  0.2800
10293W        W53284  17.535   2.127  26.844  0.0297 -0.1600 -0.1711
10294W        W53285  17.837   8.747  20.013 -0.0132 -0.1391  0.1417
10295W        W53286  20.350  22.054  16.255 -0.1887 -0.1600  0.2530
10296W        W53287   9.252  31.038  15.915 -0.1766 -0.2857 -0.4682
10297W        W53288  32.366  14.146  21.403 -0.0038 -0.3618 -0.0502
10298W        W53289  33.569   5.171  27.885 -0.1623 -0.2382 -0.1005
10299W        W53290  24.155  25.728  16.914 -0.2952 -0.0284  0.2106
10300W        W53291  18.129  29.776  14.138 -0.2411  0.1801  0.4958
10301W        W53292   2.665  23.334  16.256  0.1568  0.2977  0.0219
10302W        W53293  30.441   0.441  17.598  0.0386 -0.0230 -0.1098
10303W        W53294  26.942  11.265  18.607 -0.2988 -0.1387  0.0593
10304W        W53295  13.944   2.347  19.797  0.0077  0.1666  0.3182
10305W        W53296   7.576  30.290  26.476 -0.2537 -0.4310 -0.1920
10306W        W53297   6.211  19.443  25.377  0.0123  0.1601  0.0038
10307W        W53298  32.811  20.822  23.909 -0.3773 -0.1705 -0.0706
10308W        W53299  20.745  33.336  15.327  0.0021  0.0753  0.0254
10309W        W53300  33.027  17.197  22.053  0.1528  0.1372 -0.3935
10310W        W53301  21.807  31.794   2.892  0.0539 -0.2351  0.0227
10311W        W53302  12.092  31.029  16.864 -0.2464 -0.0170 -0.1466
10312W        W53303  15.002  31.563  18.764  0.0128  0.0698  0.0023
10313W        W53304  19.129  22.557   3.618 -0.0198 -0.0901  0.0391
10314W        W53305  29.730  23.847  14.384 -0.1847  0.2798  0.2087
10315W        W53306  24.453   7.709  15.381  0.2104 -0.0574  0.0511
10316W        W53307  21.621  26.286  23.417 -0.1488 -0.1432  0.1553
10317W        W53308  31.957  21.686  15.619 -0.0485  0.1024  0.2092
10318W        W53309  23.584  11.876  20.097 -0.2955  0.0307  0.2451
10319W        W53310  19.479  21.092  18.358  0.0262  0.3143  0.0973
10320W        W53311  22.574  13.760  16.335  0.2558  0.1738 -0.0600
10321W        W53312  31.757  34.647  28.715  0.3999 -0.4326  0.0142
10322W        W53313  32.702  28.564  15.203 -0.0680  0.0150 -0.1816
10323W        W53314  34.619  29.556  27.744 -0.3189  0.1026 -0.0227
10324W        W53315  29.392  17.947   1.756  0.1185  0.0618 -0.2137
10325W        W53316  19.121  29.323  18.715 -0.0515 -0.0424 -0.1327
10326W        W53317   2.990  14.513  16.190 -0.3821 -0.1023  0.1465
10327W        W53318   0.497   2.456  18.388  0.0953 -0.1555 -0.2720
10328W        W53319  21.647  20.222  15.808  0.0714  0.0328  0.2833
10329W        W53320  25.065  14.331  15.708  0.1304  0.0320  0.3757
10330W        W53321   1.988   6.264   1.819  0.1339 -0.0863 -0.1310
10331W        W53322  11.089   1.141  23.564  0.1088  0.1789 -0.2372
10332W        W53323  33.791  11.686  25.990  0.0750  0.3264 -0.3334
10333W        W53324  27.790   2.244  16.656 -0.0467  0.3570 -0.0590
10334W        W53325  21.089  21.572  24.456 -0.3291 -0.0788  0.0797
10335W        W53326  32.014  10.297  20.761  0.3485 -0.0295  0.2234
10336W        W53327  15.297  32.566  25.427 -0.1791  0.3097  0.0690
10337W        W53328   2.909  27.644  21.085  0.1825  0.0930  0.1317
10338W        W53329   1.643  25.596  28.913 -0.2379  0.2630 -0.2657
10339W        W53330  16.971  26.133  18.791 -0.1366 -0.2726  0.1034
10340W        W53331  22.648  13.626  18.491  0.3068 -0.1820 -0.1466
10341W        W53332  23.104   6.420  19.849  0.1741 -0.1496 -0.3142
10342W        W53333  27.352   3.080  19.969 -0.3048 -0.0124  0.1812
10343W        W53334   9.230  33.208  23.401 -0.2771 -0.0243  0.1418
10344W        W53335  24.893  33.230  25.655 -0.0021 -0.1986  0.0913
10345W        W53336  23.730  17.246  18.039 -0.2691  0.1162  0.1345
10346W        W53337  21.411   7.058  14.607  0.0308  0.1041 -0.0274
10347W        W53338  11.065  16.359  29.005  0.2751 -0.1906  0.0102
10348W        W53339  30.942  21.297  22.911 -0.3732 -0.2317 -0.1361
10349W        W53340  18.880  23.632  13.393 -0.0251  0.1250  0.1919
10350W        W53341  25.243  20.538  14.760  0.1032  0.0503  0.1321
10351W        W53342  11.735  30.111  15.318 -0.1380  0.0106 -0.0910
10352W        W53343  23.782  18.657  18.172  0.1509 -0.0380  0.1078
10353W        W53344  28.309  32.712  20.334  0.0071  0.1245 -0.0101
10354W        W53345  29.519  34.425  20.540 -0.0039 -0.0794 -0.2132
10355W        W53346   2.700  29.355  15.680  0.1918  0.1726  0.1996
10356W        W53347  30.189  31.668  26.893  0.2966  0.1107  0.0355
10357W        W53348  28.468  13.698   1.753  0.0415 -0.1971 -0.0015
10358W        W53349  23.376  28.090  16.369  0.2223 -0.4270  0.0123
10359W        W53350  33.298  32.805  27.088 -0.1607  0.1252 -0.2036
10360W        W53351  12.319  32.456  18.947 -0.0256 -0.1037  0.1995
10361W        W53352  32.539  23.590  18.250 -0.1028  0.4347  0.3136
10362W        W53353  28.808   3.567  22.347 -0.0699  0.1188 -0.2771
10363W        W53354   3.753  32.499  16.821  0.0725  0.1531  0.2299
10364W        W53355  34.538  20.007  23.062  0.4401 -0.0403 -0.0836
10365W        W53356  14.015  34.326  26.729  0.3777  0.0503 -0.1823
10366W        W53357  18.521  25.599  17.180 -0.1140  0.2077  0.0923
10367W        W53358  26.490   8.247   2.055 -0.0555  0.0080 -0.3494
10368W        W53359  19.559  21.600  19.759 -0.4309 -0.1286 -0.0004
10369W        W53360  20.545   5.143   0.098 -0.1528 -0.0523 -0.3652
10370W        W53361  10.129  18.408  19.442  0.0245  0.2147  0.1044
10371W        W53362   1.166  22.363  23.684  0.2124 -0.3406  0.0612
10372W        W53363  17.173  23.684  21.670  0.3329  0.1762  0.1234
10373W        W53364  34.360  10.722  19.304 -0.0621 -0.1548  0.0055
10374W        W53365  18.972  33.587  21.176  0.0140 -0.0386 -0.2721
10375W        W53366  21.564  28.061   6.593 -0.2231  0.0470 -0.0090
10376W        W53367  16.768  23.462  17.140  0.0262 -0.0847  0.1219
10377W        W53368  18.985  25.734  20.389 -0.0674  0.3612 -0.2449
10378W        W53369  19.006  15.783  13.214 -0.1535  0.1253  0.1644
10379W        W53370  18.411  29.870   8.318  0.1094 -0.0555  0.0896
10380W        W53371   0.879  10.914  20.069  0.1698 -0.0189  0.1694
10381W        W53372   0.005  27.827   7.702 -0.1655  0.4356  0.1642
10382W        W53373  15.097   4.345  18.173  0.0441  0.1053 -0.2192
10383W        W53374  29.042  20.960  20.031 -0.0359 -0.0013 -0.0865
10384W        W53375  15.827  28.556  19.633  0.0174  0.2421  0.4754
10385W        W53376  17.266  31.585  17.793  0.0050  0.1566  0.0842
10386W        W53377   1.680  27.089  25.559 -0.1260 -0.1933 -0.3130
10387W        W53378  28.036  17.039   3.561 -0.0912 -0.0868 -0.1651
10388W        W53379  30.410   3.676  23.363 -0.1201 -0.0949  0.2226
10389W        W53380  28.816  28.864  27.281 -0.2317  0.0695 -0.0184
10390W        W53381  21.954  26.751  24.706  0.0472  0.0068 -0.3653
10391W        W53382  30.126  31.668  28.758  0.0335  0.1802  0.0598
10392W        W53383  28.552  24.929  16.654 -0.1703  0.2266  0.1723
10393W        W53384  14.709  22.802  26.333  0.0163  0.2036  0.1709
10394W        W53385  19.999  17.110  15.387  0.1699 -0.0931  0.0074
10395W        W53386  29.688  25.680  15.973  0.0098  0.0743 -0.1249
10396W        W53387  13.044   0.501  23.992 -0.3333 -0.3002  0.2654
10397W        W53388  17.058   9.090   3.049  0.1718  0.0105  0.1630
10398W        W53389  28.854  28.984  13.716 -0.0201 -0.1392 -0.1086
10399W        W53390  20.671  29.611  23.767  0.0625 -0.1059  0.2670
10400W        W53391  33.597   9.101  23.193  0.1751  0.4475  0.1401
10401W        W53392  13.010  24.917  16.314  0.0566 -0.0715 -0.1057
10402W        W53393  29.593   5.876  15.515  0.0983  0.2600  0.1336
10403W        W53394  25.593  30.866  22.422 -0.3108  0.2029  0.0004
10404W        W53395  25.689  25.632  17.154 -0.3501 -0.2736  0.0699
10405W        W53396   2.510   4.235   4.370  0.0704 -0.1071  0.2004
10406W        W53397  23.490   7.236  13.270  0.2773  0.0074  0.3229
10407W        W53398  21.588  32.860  13.471  0.0506 -0.3662  0.0519
10408W        W53399  18.344  12.722  16.715  0.2335  0.1601 -0.1652
10409W        W53400  19.919  14.622  17.061  0.0675 -0.1274  0.0056
10410W        W53401  32.143  23.122  27.029  0.0404 -0.2062  0.3487
10411W        W53402  26.443  27.840  22.409  0.1072  0.0663 -0.0590
10412W        W53403  16.169  29.166  20.369  0.1819 -0.2138  0.4560
10413W        W53404  30.592   7.552   7.849 -0.0499  0.0355  0.5936
10414W        W53405  24.836  33.462  18.451  0.1651 -0.0552 -0.0091
10415W        W53406  12.004   4.468  14.357 -0.0134  0.1764 -0.1321
10416W        W53407  23.247   4.789  16.089  0.0076 -0.2970 -0.0026
10417W        W53408  19.681   0.920  27.588 -0.0055  0.1150 -0.1702
10418W        W53409   0.398  28.190  15.529  0.1135 -0.2045  0.1789
10419W        W53410  28.335  30.730  14.577  0.1722 -0.2515 -0.2358
10420W        W53411  18.069  22.810  17.249 -0.0736  0.4354  0.0651
10421W        W53412  26.319   2.197   1.473  0.3972 -0.0384  0.1107
10422W        W53413  22.446  23.734  16.782  0.1056 -0.1945 -0.1000
10423W        W53414   0.088  28.595  23.948  0.4935  0.3249 -0.1579
10424W        W53415  30.090  29.459  22.532  0.1541 -0.0273  0.0640
10425W        W53416  30.692  33.538  25.542 -0.1424 -0.1232 -0.0425
10426W        W53417  29.512  31.363  23.681 -0.0627 -0.2906 -0.1757
10427W        W53418  15.456   7.090  24.079  0.1918  0.0348  0.1267
10428W        W53419   4.899  19.062   7.575  0.1057  0.1772 -0.1562
10429W        W53420  15.195  24.816  24.318  0.2649 -0.0434  0.1069
10430W        W53421  15.723  25.641  15.588  0.0029  0.1364 -0.2423
10431W        W53422   5.080  30.236  28.399  0.1823 -0.1740 -0.1719
10432W        W53423   3.403   4.453  15.313  0.2405  0.0551  0.0220
10433W        W53424  23.162  23.780  23.164 -0.2478  0.2450 -0.3090
10434W        W53425  18.827  14.100  14.281 -0.1754 -0.1573  0.0632
10435W        W53426  25.927  24.429  14.359  0.0477  0.0186  0.0355
10436W        W53427   0.112  32.803  13.566  0.0581 -0.1320 -0.1286
10437W        W53428  27.752   7.734  23.314  0.1070  0.1348  0.0499
10438W        W53429  26.194   5.326   6.969  0.2678  0.2571  0.3197
10439W        W53430   6.306  15.224  25.075  0.4652 -0.3345 -0.0741
10440W        W53431  24.316  27.575  28.421 -0.1865  0.1400 -0.0618
10441W        W53432  25.944  16.214  28.739  0.1146 -0.1135 -0.1089
10442W        W53433  32.204   9.761  21.487  0.2449 -0.0343  0.2467
10443W        W53434  25.712  25.998  21.138 -0.2420  0.1753  0.0975
10444W        W53435   5.794   0.369  29.211  0.1636  0.0737 -0.0705
10445W        W53436  25.526   7.481  21.509  0.1219 -0.1352  0.1260
10446W        W53437  32.199  24.850  18.372  0.3509 -0.1298  0.1899
10447W        W53438  21.110  18.304  15.861  0.0898  0.1788  0.1182
10448W        W53439  32.686  18.829  23.015 -0.0351 -0.1498  0.0619
10449W        W53440  25.501   2.442  16.960 -0.1614  0.0617  0.2233
10450W        W53441  18.634  32.136   0.858  0.0459 -0.2723  0.3211
10451W        W53442  11.776  28.752  14.605  0.0849 -0.1730  0.3166
10452W        W53443   9.664  34.089  23.478  0.4317  0.1858  0.1864
10453W        W53444  12.916  28.482   7.793 -0.1317  0.1418  0.1119
10454W        W53445  17.203  10.541  19.132 -0.3282 -0.2729  0.1214
10455W        W53446  29.942  21.955  22.525  0.0653  0.1005  0.0220
10456W        W53447  29.939  21.909  16.530 -0.0032  0.1513  0.4933
10457W        W53448  26.650  34.438  13.997 -0.0059 -0.2743 -0.0830
10458W        W53449  25.260  32.539  13.668  0.2021  0.0943  0.1124
10459W        W53450  20.336  17.361  13.006 -0.2298  0.2644  0.0158
10460W        W53451  25.627  21.678   0.751 -0.0170  0.0465 -0.1357
10461W        W53452  30.867  23.166  24.558  0.1006  0.0265  0.2064
10462W        W53453  32.700  23.998   3.171 -0.2418 -0.1185 -0.0375
10463W        W53454  10.359  22.758  14.430 -0.2331 -0.0144 -0.1759
10464W        W53455  27.341  15.045  24.225 -0.1200 -0.1193  0.1121
10465W        W53456   5.095  30.123  18.602  0.0301 -0.1602 -0.2358
10466W        W53457   0.643  22.224  25.696 -0.2829  0.1551 -0.2409
10467W        W53458  27.919   5.697  16.075  0.3609 -0.0516 -0.1969
10468W        W53459  27.858  16.428   1.170  0.0531 -0.0768 -0.4091
10469W        W53460  27.377  31.233   8.640  0.0212  0.2912  0.5857
10470W        W53461  26.945  27.617   0.339  0.0019 -0.2492 -0.5234
10471W        W53462  34.708  18.590   3.418  0.2589  0.1432 -0.1163
10472W        W53463  17.262  33.326  20.370 -0.0216  0.4638 -0.0310
10473W        W53464  18.280  24.621  14.981  0.1169  0.2786 -0.3317
10474W        W53465  11.841   0.482  19.623 -0.0181 -0.2287 -0.2785
10475W        W53466  18.831  28.363  18.169 -0.0169 -0.3184 -0.3206
10476W        W53467  32.446   0.938  24.825  0.1221  0.0274 -0.0756
10477W        W53468  29.990  22.276  14.313  0.0414  0.2963 -0.0101
10478W        W53469  16.207   1.767   0.638  0.1639 -0.1906 -0.0694
10479W        W53470  29.482  33.057  26.811  0.0993  0.0346 -0.1889
10480W        W53471   6.832  32.343   4.092 -0.2052 -0.0271  0.3249
10481W        W53472  14.929   4.401  16.716  0.2051  0.1846  0.0875
10482W        W53473  15.187  20.659  22.238 -0.5471 -0.0462 -0.1832
10483W        W53474  14.389  15.629  28.963 -0.3288 -0.0876  0.1079
10484W        W53475  23.831  17.507  14.257  0.1536  0.4836 -0.2719
10485W        W53476  30.244  29.004   3.527 -0.1374  0.0708  0.3546
10486W        W53477  16.127  21.097  13.910  0.1289 -0.3754  0.0523
10487W        W53478  29.110  33.280  14.040 -0.0039 -0.2264 -0.1005
10488W        W53479  32.009  31.868   4.639  0.0170 -0.2253 -0.4418
10489W        W53480  24.957  22.396  18.294 -0.3414  0.0780 -0.1658
10490W        W53481  33.409   6.213  28.292 -0.1074 -0.0881 -0.1586
10491W        W53482  21.329  31.529  21.198  0.0464 -0.6493 -0.0294
10492W        W53483   0.811  20.590  23.065  0.0367 -0.0565 -0.1871
10493W        W53484   3.507  22.145  25.885  0.1911 -0.2057 -0.0267
10494W        W53485   6.527  30.202  15.950 -0.2327 -0.0752  0.0728
10495W        W53486  20.862  27.572  14.641  0.1938  0.0924  0.1122
10496W        W53487  21.881   8.939  16.005  0.1561  0.1042 -0.2660
10497W        W53488  20.243  27.056  22.482 -0.2113 -0.0004 -0.1044
10498W        W53489  23.274   8.377  26.939 -0.0666  0.0942  0.2026
10499W        W53490  17.382  29.451  28.809  0.0250 -0.0278 -0.0722
10500W        W53491  12.708   1.611   2.892  0.0916 -0.1660  0.1834
10501W        W53492  22.392  17.941  15.080  0.1580  0.4435 -0.1763
10502W        W53493  12.498  13.222  18.098 -0.2830  0.0221 -0.2448
10503W        W53494  17.546   3.880  16.167 -0.2569 -0.2662  0.1497
10504W        W53495  23.592  32.530   8.097  0.0459  0.2189  0.2155
10505W        W53496  10.466  21.643  18.056  0.5627  0.0794 -0.0099
10506W        W53497  31.307  30.730  14.052 -0.1373  0.0662  0.0063
10507W        W53498  32.868  21.028   7.739  0.0483 -0.4728  0.2269
10508W        W53499  32.488  25.682  10.337  0.0154 -0.1915 -0.1586
10509W        W53500  26.776   3.925  18.223 -0.2433 -0.0943 -0.0536
10510W        W53501  29.623   4.811  14.850 -0.2163  0.1284  0.1054
10511W        W53502   7.713  30.804   1.243 -0.0129 -0.1416 -0.0627
10512W        W53503   1.034  23.863  17.889  0.0917 -0.0373  0.3384
10513W        W53504  17.224  26.013  17.475  0.2728  0.1306  0.0570
10514W        W53505  27.592  11.708  22.259  0.1812 -0.3934  0.1724
10515W        W53506  10.840  17.031  14.173 -0.2374 -0.2618  0.0600
10516W        W53507  27.625  23.245  22.025 -0.1834  0.1811  0.1510
10517W        W53508  28.376   5.278  19.931 -0.0870 -0.1140 -0.2652
10518W        W53509  32.202  23.087  28.647  0.0087  0.0025  0.4814
10519W        W53510  22.616  28.612  17.997 -0.0514 -0.0006  0.1859
10520W        W53511   6.947   0.476  17.249 -0.1237  0.1020  0.1311
10521W        W53512  19.036  29.848  27.686 -0.1478 -0.0329  0.0687
10522W        W53513  27.873  11.071  18.336  0.1012 -0.0452 -0.2002
10523W        W53514  15.227  20.536  18.591 -0.2970 -0.1043 -0.1509
10524W        W53515  33.384   1.975  25.211  0.0615  0.2025  0.0598
10525W        W53516  16.645   2.976  16.888 -0.2042  0.3764 -0.2094
10526W        W53517   2.084  26.462  14.870  0.1824  0.0688  0.0588
10527W        W53518  28.096  31.932   4.993 -0.2291 -0.0518 -0.1050
10528W        W53519  24.767   5.127  28.623 -0.2204  0.0447  0.0213
10529W        W53520  16.884  23.727   3.798 -0.1535 -0.0931 -0.1294
10530W        W53521  32.446   1.468   0.878 -0.0163 -0.0120  0.2737
10531W        W53522  32.612  13.505  17.531  0.2275  0.0262 -0.5202
10532W        W53523  18.831  12.904   2.274 -0.1465  0.2710 -0.0480
10533W        W53524  30.212   6.614  26.720 -0.1048 -0.3849 -0.0088
10534W        W53525  30.813  32.998  27.583  0.0591 -0.0471  0.0192
10535W        W53526  29.091  27.859   0.229 -0.0788  0.1266 -0.1009
10536W        W53527  27.913  34.408  21.064  0.0298 -0.1557  0.3779
10537W        W53528  25.528  25.271  14.059  0.1411  0.3232  0.2251
10538W        W53529  15.253  32.121   5.837  0.1538  0.1109 -0.1713
10539W        W53530  14.834  31.242  18.039  0.1252  0.3474  0.0035
10540W        W53531  30.522   2.125  18.534  0.1963  0.0246  0.2595
10541W        W53532  31.411  23.406  19.641  0.0091 -0.3099 -0.0524
10542W        W53533   4.433  30.728  15.881  0.2774 -0.2100 -0.1318
10543W        W53534  13.225  23.571  19.249  0.1964  0.2758  0.1061
10544W        W53535   1.311  24.801  26.712  0.1631 -0.0743  0.2460
10545W        W53536  22.563  22.395  19.614 -0.2077  0.4439 -0.1725
10546W        W53537  30.073  22.654  19.908  0.3419 -0.0619  0.2257
10547W        W53538  27.695  16.962  16.460 -0.0397 -0.1618 -0.2874
10548W        W53539  30.656  27.466  21.226  0.1966  0.1050 -0.2933
10549W        W53540   2.347  33.121  15.809  0.1784 -0.0080  0.0282
10550W        W53541  11.580  17.931  20.867 -0.0652 -0.2644 -0.4693
10551W        W53542  26.406  22.303  18.150 -0.2149  0.0794  0.1386
10552W        W53543  11.775  15.725  23.431 -0.1476 -0.1262 -0.4480
10553W        W53544  28.847  21.688  18.459 -0.1094 -0.2363 -0.1787
10554W        W53545  14.586   8.817  20.438 -0.0483 -0.0085 -0.0264
10555W        W53546  28.758  21.463   2.945  0.1582  0.0515  0.0910
10556W        W53547  25.565  26.887  22.351  0.1490  0.1736 -0.1490
10557W        W53548  30.532   8.412  18.445  0.0033 -0.1113 -0.0230
10558W        W53549   0.890  28.169   0.913 -0.0392 -0.0302  0.0686
10559W        W53550  26.639  26.085  15.662 -0.1181 -0.2455 -0.1676
10560W        W53551  24.942  25.711  25.604  0.2023  0.0500 -0.1799
10561W        W53552  25.694  15.463  22.203  0.0600  0.0177 -0.2006
10562W        W53553  30.137  34.356  14.650 -0.0225 -0.2153 -0.2821
10563W        W53554  12.458  24.462   0.659  0.0780  0.1315 -0.1683
10564W        W53555  13.308   5.929  14.982 -0.0654 -0.3013  0.1168
10565W        W53556  13.829  12.283  16.259  0.2919 -0.0240 -0.0222
10566W        W53557  14.761  14.251  27.574  0.1851 -0.0226  0.0408
10567W        W53558   0.832  25.443  20.653  0.0597  0.2313 -0.1317
10568W        W53559  31.426  32.153  13.459 -0.1820  0.2504 -0.0610
10569W        W53560  20.368  19.165  26.499 -0.2872 -0.1134 -0.1503
10570W        W53561  15.119  26.083   9.373 -0.1106 -0.1372 -0.2863
10571W        W53562   5.824  31.073   4.051 -0.0975  0.0945  0.2626
10572W        W53563  24.574  33.766  18.154 -0.1471 -0.1539  0.0525
10573W        W53564   2.647  19.900  17.117 -0.2215 -0.2377 -0.0137
10574W        W53565   4.311   1.995   3.222  0.1364  0.1676  0.0583
10575W        W53566  29.372  17.976  16.386  0.2148 -0.2462 -0.0965
10576W        W53567  11.014  23.933   2.984  0.1326 -0.0001  0.0778
10577W        W53568  15.861  30.102  15.177  0.0669 -0.0133  0.1274
10578W        W53569  17.760  27.033  28.463 -0.0833  0.1864 -0.3822
10579W        W53570  22.792   1.668  24.240 -0.0490 -0.0510 -0.1520
10580W        W53571   4.324  23.873  22.835  0.0957 -0.3407 -0.2231
10581W        W53572  12.289   2.472   5.389  0.1641 -0.1468  0.1301
10582W        W53573  11.516  31.715  20.758 -0.1346  0.1239 -0.1397
10583W        W53574  22.251  29.694  26.592 -0.0096 -0.1566 -0.0351
10584W        W53575  29.875   4.330   2.293 -0.2795  0.0423 -0.1802
10585W        W53576  25.715  27.754  23.788  0.0955 -0.0436 -0.1187
10586W        W53577   9.391   6.457  25.822 -0.2153 -0.1659 -0.2359
10587W        W53578  12.369   8.341  16.821  0.0222  0.0461  0.1244
10588W        W53579  32.999  29.713   3.765 -0.1313 -0.3647  0.1609
10589W        W53580  28.684  23.961  20.415 -0.2733 -0.2359 -0.3356
10590W        W53581  22.352   4.777  15.367  0.1918  0.2882 -0.0186
10591W        W53582  22.607  26.062  24.489 -0.0581 -0.1239  0.0739
10592W        W53583  32.112   0.976  18.159 -0.0488  0.1397  0.2299
10593W        W53584  33.966  32.054  18.510 -0.4028 -0.1592  0.1331
10594W        W53585  13.160   9.752  18.335 -0.1276 -0.2158  0.1152
10595W        W53586  27.306   3.672   3.867  0.2452 -0.0984  0.1661
10596W        W53587  28.029   7.787  15.048  0.5171 -0.3163 -0.0766
10597W        W53588  22.188   4.969  29.207 -0.0508  0.0040 -0.1591
10598W        W53589  20.390  19.867  20.131 -0.3253 -0.0279  0.0336
10599W        W53590  17.868   0.788   1.712  0.1386  0.2650 -0.1084
10600W        W53591  19.607  19.803   0.894  0.2705  0.0684 -0.0016
10601W        W53592   5.110  33.552  15.361  0.0158  0.1846 -0.2294
10602W        W53593  27.098  20.734  19.137  0.2581 -0.1565  0.0500
10603W        W53594  34.726  34.594  25.917  0.0755  0.0404  0.1566
10604W        W53595  18.652  32.143  28.199 -0.0289  0.1300  0.3159
10605W        W53596  16.452  29.850   4.983 -0.3494 -0.0364  0.2779
10606W        W53597  24.615  21.955  19.976  0.2599 -0.2754 -0.1268
10607W        W53598  33.692   0.563  22.931 -0.1909 -0.1290  0.0871
10608W        W53599  24.074   2.155  19.718  0.1436 -0.0618  0.0015
10609W        W53600   0.866   3.008  21.617 -0.0333 -0.3416 -0.2033
10610W        W53601  26.792   8.996  16.720 -0.2477 -0.0676 -0.2366
10611W        W53602  27.367  17.689  27.226 -0.0812 -0.1873  0.2679
10612W        W53603  13.626  27.006  29.028 -0.1918  0.1802 -0.0107
10613W        W53604  34.281   3.277  27.939 -0.0888 -0.3020  0.1705
10614W        W53605  17.727  26.113  20.737  0.2217 -0.0886  0.2914
10615W        W53606  18.518   0.918  14.306  0.0368 -0.1831 -0.2441
10616W        W53607   9.561  16.258  16.905 -0.5081  0.0598  0.0221
10617W        W53608  14.506   9.078  16.045  0.1616 -0.1783 -0.0097
10618W        W53609  27.465  19.083  15.101  0.1422  0.1979  0.2300
10619W        W53610  23.640  30.967  17.627  0.1344  0.1170 -0.0233
10620W        W53611  26.038  24.304  18.940  0.0651  0.0626  0.2591
10621W        W53612  24.033  32.300  20.711 -0.1292 -0.2265 -0.1979
10622W        W53613  15.843  22.238   4.928  0.2387  0.0756  0.2998
10623W        W53614   3.157  31.045  16.606  0.0404  0.1536  0.6938
10624W        W53615  29.778  20.892  19.528  0.0531 -0.2454  0.0227
10625W        W53616  19.168  25.351  15.978  0.1523  0.0533  0.0611
10626W        W53617  31.388   4.862  17.130 -0.0639 -0.4061  0.3903
10627W        W53618   9.084  22.594   7.723  0.1655 -0.0369 -0.0496
10628W        W53619  24.165  31.955  20.061  0.0392 -0.1973 -0.3936
10629W        W53620  23.937  23.359  18.911 -0.1225  0.0241  0.1107
10630W        W53621  32.055  24.165  20.249 -0.0578  0.0320  0.0795
10631W        W53622  29.017  15.624  16.404  0.1332  0.0369  0.0371
10632W        W53623   2.317  10.135  24.059  0.1191 -0.0945 -0.2401
10633W        W53624  34.752   6.414   8.555  0.1651  0.0542 -0.1141
10634W        W53625  27.627  20.724  13.611  0.0621  0.1915 -0.0411
10635W        W53626   1.392  32.583  14.111 -0.3017  0.2240  0.1639
10636W        W53627   3.088  25.138  20.178 -0.0214 -0.1609  0.2766
10637W        W53628  23.913  26.021  14.823  0.0860  0.1522  0.2381
10638W        W53629  20.310  30.221  18.603  0.0821 -0.0309 -0.0860
10639W        W53630  25.310  27.078  14.020 -0.0932 -0.0983  0.1837
10640W        W53631  34.607  30.928  18.216 -0.1346  0.1178  0.1352
10641W        W53632  29.033   9.151  22.733 -0.0094 -0.0349  0.1687
10642W        W53633  17.578  28.866  13.981  0.2425  0.1178  0.2067
10643W        W53634  15.265  19.948   5.585 -0.1432 -0.0054  0.0518
10644W        W53635  12.468  18.126  24.919  0.0606  0.0281  0.1258
10645W        W53636  20.252  26.706  16.740  0.1289  0.0538  0.0153
10646W        W53637  14.116  20.911  20.855  0.3840 -0.0044 -0.3353
10647W        W53638  23.322   0.867  15.704 -0.1058  0.1517 -0.1661
10648W        W53639  27.714   3.648  16.980  0.1950 -0.0064 -0.1777
10649W        W53640  25.564  26.089  21.962  0.2952 -0.1553  0.2361
10650W        W53641  27.381   6.284  14.531  0.0791 -0.0677  0.0039
10651W        W53642  19.224  32.182  20.581 -0.1204  0.5668  0.0875
10652W        W53643  17.914  15.908  14.208  0.0178 -0.1180 -0.0197
10653W        W53644  18.813  30.123  21.134 -0.1408 -0.2569 -0.0968
10654W        W53645  21.643  15.275  12.739  0.0144  0.1060  0.1052
10655W        W53646  29.361  12.028  26.821  0.2678  0.2265  0.2330
10656W        W53647  29.077  27.865  18.869 -0.5232 -0.2100 -0.1645
10657W        W53648   1.315  34.038  22.749  0.1394 -0.1002  0.0749
10658W        W53649  30.328  15.122  16.461  0.0533 -0.0665  0.1919
10659W        W53650  16.863  32.321  13.523  0.0827 -0.1957  0.1122
10660W        W53651  27.953  24.693  15.563  0.2119 -0.1821  0.3457
10661W        W53652  26.240  20.841   6.826 -0.2339 -0.1732  0.0564
10662W        W53653  27.447  15.048   1.419  0.1946  0.2880 -0.1832
10663W        W53654  16.683  28.807  16.391  0.0162 -0.2244 -0.2283
10664W        W53655  31.114   1.452  16.930 -0.0012 -0.2922  0.0417
10665W        W53656   8.840   6.158  16.504  0.0460  0.2026  0.0190
10666W        W53657  23.927  25.193  25.198 -0.3288 -0.0827 -0.1234
10667W        W53658  19.815  30.847  13.827 -0.3994 -0.3362  0.0972
10668W        W53659  23.724  12.038  21.998 -0.0118 -0.0447  0.2570
10669W        W53660  17.385   0.699   1.637 -0.0123  0.0990  0.1018
10670W        W53661   1.229  22.454  25.130 -0.1079  0.1423 -0.1088
10671W        W53662  15.965  18.767  26.996  0.2512  0.1310 -0.1894
10672W        W53663  25.065  33.791  20.445 -0.4828 -0.0409  0.0512
10673W        W53664  23.328  29.769  16.464 -0.1029  0.0264  0.3223
10674W        W53665  25.985  23.431  12.755 -0.1858  0.0483  0.0940
10675W        W53666  21.259  14.146  23.246  0.0145  0.0490  0.0189
10676W        W53667  17.619  22.124  16.841 -0.0285 -0.1263 -0.0756
10677W        W53668  26.268   7.019  21.535  0.0073 -0.2452 -0.2788
10678W        W53669  16.431  21.249   2.985  0.0184  0.1427 -0.1494
10679W        W53670  22.447  32.180  29.143 -0.0763  0.0789  0.1136
10680W        W53671  33.017  20.520  16.825 -0.2983 -0.0137 -0.0005
10681W        W53672  25.127  26.468   0.081  0.1821  0.2867 -0.1967
10682W        W53673  28.898   7.313  28.929 -0.2720 -0.1734  0.2316
10683W        W53674  18.987  27.108  29.187  0.1292  0.2804 -0.0424
10684W        W53675  24.854  22.537  13.252  0.0295 -0.0160 -0.1954
10685W        W53676   0.223   2.891  15.553  0.0325  0.1654 -0.1102
10686W        W53677  31.167   2.317  20.335 -0.4096 -0.0417 -0.2390
10687W        W53678   0.173  24.486  22.224 -0.1200 -0.1409 -0.2050
10688W        W53679  18.039  21.619  29.050  0.1983 -0.1889  0.1952
10689W        W53680  24.722  12.418  16.206  0.4790 -0.1213  0.0835
10690W        W53681  23.582  20.106   6.676 -0.0726  0.2549  0.1464
10691W        W53682  23.129  20.507  13.269  0.1443 -0.5146  0.0960
10692W        W53683  33.571  17.594  17.359  0.2796  0.0929 -0.0076
10693W        W53684   6.854  23.591  16.104  0.1595  0.2533  0.0787
10694W        W53685   2.303   2.593  16.131  0.1444 -0.0424  0.3127
10695W        W53686  28.165  15.769  19.036 -0.1179 -0.1059  0.0082
10696W        W53687  11.309  28.898  20.309 -0.0633  0.0300  0.2548
10697W        W53688   2.897  33.389  14.496  0.0746 -0.3137 -0.0211
10698W        W53689  14.872  14.640  14.445  0.0154  0.0134 -0.0214
10699W        W53690  26.473  13.862  18.629  0.2313  0.2060  0.3483
10700W        W53691  12.978  26.618  20.717 -0.0223 -0.1151 -0.0237
10701W        W53692  16.602  28.990  13.878 -0.0308  0.2063  0.0552
10702W        W53693  25.699  23.066  14.383 -0.0837  0.3370 -0.1446
10703W        W53694  31.796  22.380  17.601 -0.0962  0.1856 -0.4012
10704W        W53695  23.565  23.583  22.586  0.2760  0.0493 -0.2777
10705W        W53696  10.061  25.466  28.770  0.4403 -0.2484 -0.0444
10706W        W53697  16.271  18.624  18.342  0.1668 -0.0300 -0.0782
10707W        W53698  27.677  25.517  28.942  0.1142 -0.2193  0.1204
10708W        W53699  23.092  29.741  24.782 -0.2598  0.1741  0.1117
10709W        W53700  17.816   1.863  29.043 -0.2561  0.0783  0.3092
10710W        W53701  33.872   8.257  17.189  0.1699  0.0901  0.0437
10711W        W53702  29.605  18.090  22.389 -0.3829  0.3104  0.1244
10712W        W53703  32.091  27.548   9.481 -0.0350 -0.0372 -0.2017
10713W        W53704  10.328  23.907  28.128 -0.2742  0.0819  0.0931
10714W        W53705  19.260  22.249  16.420 -0.1020  0.0054 -0.1240
10715W        W53706  29.578  25.341  14.844 -0.1430  0.2293 -0.1858
10716W        W53707  22.155  24.650  20.595 -0.0813 -0.0676 -0.0965
10717W        W53708  28.212  23.117   1.149 -0.1133  0.0245 -0.0242
10718W        W53709  21.981  33.345  18.691  0.0930  0.1125 -0.0590
10719W        W53710  19.310  24.431  28.018 -0.1257  0.1217  0.0539
10720W        W53711   2.423  22.815  18.162  0.1462  0.0887 -0.0332
10721W        W53712   4.078  28.048  23.817  0.2586  0.0768 -0.1243
10722W        W53713  25.110  30.138  17.266 -0.1739 -0.0655 -0.2117
10723W        W53714  28.290   3.385  27.458  0.0345  0.0018 -0.1903
10724W        W53715  24.130  23.255  23.911 -0.0168 -0.2599  0.1228
10725W        W53716  31.430   0.191  19.050 -0.2905  0.3796  0.2074
10726W        W53717   8.803  23.519  21.010  0.0375 -0.1857  0.2269
10727W        W53718   0.660  28.605  21.145 -0.0419  0.1650 -0.0256
10728W        W53719  22.283  31.304  12.427  0.3010  0.0500  0.0206
10729W        W53720  30.890  25.282  15.394 -0.1212 -0.2457 -0.4844
10730W        W53721  25.075  26.016  21.823  0.1018 -0.1229 -0.1198
10731W        W53722  17.711  21.744   5.450 -0.1329 -0.2708  0.1653
10732W        W53723  21.688  19.284  21.299  0.1882  0.0017  0.4239
10733W        W53724  32.490  22.911  14.723  0.0381  0.0598 -0.0167
10734W        W53725  22.128  15.992  26.086  0.0118 -0.0271  0.0927
10735W        W53726   8.499  23.279  25.699 -0.3419 -0.0405  0.0674
10736W        W53727  16.182  23.422  17.815  0.2507  0.0544 -0.1757
10737W        W53728  17.067  23.922  23.337 -0.0581 -0.0355  0.1066
10738W        W53729  21.415  18.432  24.128  0.4516  0.1849 -0.1059
10739W        W53730  20.687  25.827  23.641  0.2182 -0.2284  0.0953
10740W        W53731  19.428   0.975  28.864 -0.1121  0.4022  0.2195
10741W        W53732  30.129  28.351   7.202 -0.2377 -0.2907  0.2085
10742W        W53733   6.533  20.057  16.155  0.0448 -0.0286 -0.0275
10743W        W53734  25.921  32.882  16.913  0.4787  0.2857 -0.1769
10744W        W53735  23.842  21.587  14.534  0.1480 -0.0604 -0.0672
10745W        W53736  24.370   1.713  23.095 -0.1566 -0.0912 -0.0048
10746W        W53737  19.514  33.385   1.308  0.0454  0.1397  0.0871
10747W        W53738  11.292  28.670   2.185 -0.2783 -0.3418  0.1253
10748W        W53739  32.050  17.173  16.356  0.1861 -0.0501  0.1615
10749W        W53740  15.911  20.227  14.335 -0.1895 -0.0290  0.3322
10750W        W53741  10.149  23.605  16.940 -0.1139  0.1293 -0.1539
10751W        W53742  22.576  25.016  20.634  0.1122 -0.1572  0.3106
10752W        W53743  30.389  25.676   5.814  0.6279 -0.0154  0.1601
10753W        W53744  24.405  21.269  19.014  0.0489 -0.1324  0.1837
10754W        W53745  33.385  10.569  16.704 -0.0311  0.0853  0.1039
10755W        W53746   8.559  21.847  22.231 -0.0830  0.2246  0.3884
10756W        W53747  29.752   6.707  21.338 -0.1236 -0.1607  0.1221
10757W        W53748   7.070   5.999  28.249 -0.2835  0.0346  0.4767
10758W        W53749   1.065  30.838   3.144  0.2380  0.1944 -0.0580
10759W        W53750  24.113  32.193  19.368 -0.1363 -0.0073 -0.2100
10760W        W53751   9.929   6.470   3.638  0.1831 -0.0936 -0.0499
10761W        W53752   1.350  11.437  20.610 -0.0823 -0.0886 -0.0658
10762W        W53753  27.429  32.300  17.197  0.0462 -0.0606  0.0244
10763W        W53754  24.431  29.237  18.037 -0.0432 -0.1225  0.1902
10764W        W53755  22.775  21.352  17.757  0.2587  0.2354 -0.0956
10765W        W53756  30.082   7.841  17.821  0.1247 -0.0650  0.1274
10766W        W53757  29.391   3.030  13.985  0.0511 -0.2249 -0.0510
10767W        W53758  17.949   2.369   1.885 -0.0218  0.0350  0.1174
10768W        W53759  27.038   8.666  23.551 -0.1590 -0.2560  0.0736
10769W        W53760  33.203  30.529  17.322  0.0540  0.0243 -0.0253
10770W        W53761  19.576  26.233  22.307 -0.0891  0.0287  0.0559
10771W        W53762  16.061  29.753  17.168  0.1935  0.0762 -0.0253
10772W        W53763  23.995  31.730  23.359  0.0815  0.1432  0.0558
10773W        W53764  28.085  32.080  23.307  0.1055  0.2164 -0.0308
10774W        W53765  22.649  24.364  28.056 -0.1684 -0.2166 -0.0105
10775W        W53766  26.117  20.973  17.439  0.2181 -0.0714 -0.0550
10776W        W53767  21.848  13.568  28.250 -0.0954  0.2985 -0.2102
10777W        W53768  24.096  30.510  18.801 -0.0684 -0.1779  0.0169
10778W        W53769  22.870  27.589  23.808 -0.1328 -0.0759 -0.0043
10779W        W53770  17.003  32.997  19.704  0.3849 -0.0264  0.2079
10780W        W53771   5.081  32.421  18.177 -0.1176 -0.1922  0.0725
10781W        W53772  20.061  11.344  13.852 -0.3173 -0.2171 -0.1998
10782W        W53773   8.321   2.746  23.103 -0.0924 -0.4855  0.2827
10783W        W53774  19.488  26.061  14.978  0.1005 -0.3570  0.1193
10784W        W53775   3.932  28.003   0.775 -0.0785 -0.0648 -0.0502
10785W        W53776  10.014  29.400  19.774 -0.1482 -0.0169  0.1793
10786W        W53777  21.762  27.117  16.541  0.1152  0.1846 -0.1675
10787W        W53778  23.343  31.983  18.513  0.2478  0.1114 -0.2064
10788W        W53779  10.330  29.944  20.308 -0.0849  0.1512  0.3460
10789W        W53780  14.880  32.731  13.967 -0.0174 -0.0651  0.4669
10790W        W53781  21.163   8.656  22.477  0.0801 -0.0960  0.0862
10791W        W53782  19.530  15.443  15.772 -0.2584 -0.2573  0.2076
10792W        W53783   9.542   2.676   6.215  0.2873  0.0891  0.1544
10793W        W53784  23.545  31.509  23.280 -0.0336  0.1962 -0.1322
10794W        W53785  32.704  25.881  18.361 -0.3545  0.2175  0.0065
10795W        W53786  17.756  32.911   0.927 -0.0627  0.1773 -0.0049
10796W        W53787  16.786  32.884  15.858  0.2718 -0.0485  0.3546
10797W        W53788  16.182   5.876  24.704  0.1283  0.0678  0.1840
10798W        W53789   5.240  28.306  21.815 -0.1127  0.0585 -0.1772
10799W        W53790  29.494  32.193  26.585 -0.1360  0.0679  0.1443
10800W        W53791  15.390  24.150  23.162  0.1321 -0.2303 -0.2645
10801W        W53792  31.870   8.477  26.086  0.0007  0.1210  0.1568
10802W        W53793  24.909  17.954  17.423 -0.0330  0.1538  0.2741
10803W        W53794  30.381  30.569  27.097  0.2908  0.0085 -0.4215
10804W        W53795  25.075  18.157  21.679 -0.1256 -0.1702 -0.0150
10805W        W53796  27.657  12.056  13.631  0.0402 -0.0463 -0.0438
10806W        W53797   1.501   6.723  22.159 -0.2397 -0.2095 -0.1052
10807W        W53798  28.512  34.542  17.895 -0.3586 -0.1564  0.0906
10808W        W53799  29.700  13.829  18.937 -0.1955 -0.3340 -0.2268
10809W        W53800  32.562  16.907  27.616 -0.2760  0.0810  0.1338
10810W        W53801  25.907  32.949  23.643  0.2048  0.1250 -0.1474
10811W        W53802  22.467  12.549  17.076 -0.0571 -0.0618 -0.0459
10812W        W53803  12.834  34.553  19.051  0.1298  0.0448  0.3005
10813W        W53804  23.402  28.741  17.596  0.1616 -0.1252 -0.1064
10814W        W53805  22.898  34.469  14.581  0.0585  0.0300  0.0199
10815W        W53806  24.517  28.838  22.344 -0.2105 -0.0088 -0.2150
10816W        W53807  30.212  25.331   4.516  0.4008  0.0652 -0.0901
10817W        W53808  26.835   8.445   7.573 -0.1332  0.0086 -0.1382
10818W        W53809  30.690  32.917  14.844 -0.1866  0.1220 -0.2134
10819W        W53810  30.908  20.805  26.247 -0.4341 -0.3812  0.1227
10820W        W53811   4.823  16.806   1.137 -0.0318  0.0660 -0.0303
10821W        W53812  30.077  21.711  25.828 -0.0433  0.1204  0.1794
10822W        W53813  28.566  28.346  21.856  0.0898 -0.2410 -0.0618
10823W        W53814  31.085   1.600  12.853 -0.1212  0.0007 -0.1273
10824W        W53815  22.601  18.030  18.343  0.2915 -0.0981 -0.0659
10825W        W53816  30.614   1.066  15.359 -0.0408  0.1847  0.0389
10826W        W53817  16.117  34.272  19.251  0.0686 -0.0134 -0.2469
10827W        W53818   0.415   3.450  28.734  0.3183  0.4011 -0.0742
10828W        W53819  30.963   1.075  14.397 -0.1777 -0.3058  0.1515
10829W        W53820  26.613  28.123  16.066  0.1173  0.0536 -0.0290
10830W        W53821  19.820  29.791   3.848  0.0222  0.4016  0.0536
10831W        W53822  17.798  31.179  17.140  0.3715 -0.1889 -0.1437
10832W        W53823  20.505  30.251  23.742  0.1510  0.0691 -0.1622
10833W        W53824  22.804  25.876  15.383  0.0553  0.1024 -0.2132
10834W        W53825  25.351   7.164  21.930  0.0125  0.1047 -0.2481
10835W        W53826  16.270  15.343  24.598 -0.0388  0.0008 -0.1574
10836W        W53827  20.097  20.660  21.198 -0.0485  0.2634 -0.1016
10837W        W53828  21.595   7.018  26.756 -0.1108  0.1142 -0.0748
10838W        W53829  26.212  18.260  16.906  0.2427  0.2841  0.0821
10839W        W53830  23.472  10.107  21.372 -0.1068  0.2431 -0.3253
10840W        W53831  25.628  29.245  24.130 -0.3826 -0.0058 -0.0125
10841W        W53832  27.548  34.204  21.653  0.0492 -0.1035 -0.1097
10842W        W53833  21.903   4.547  14.662 -0.2441 -0.0040 -0.0406
10843W        W53834  26.155  19.397  24.870  0.3956 -0.0076  0.0138
10844W        W53835  21.298  29.167  16.255 -0.2205  0.3770  0.6106
10845W        W53836  11.783  22.037  16.174 -0.2677  0.1317 -0.0764
10846W        W53837  26.301  17.632  25.366  0.2417 -0.2732 -0.0255
10847W        W53838  16.672  17.700  15.243  0.1418  0.0665  0.0772
10848W        W53839  27.968  33.465  19.461 -0.0889 -0.1848 -0.1377
10849W        W53840  31.767  20.782  22.805 -0.1080 -0.0586 -0.3068
10850W        W53841  33.131   4.164  19.926 -0.2726  0.2958 -0.0092
10851W        W53842  26.928  22.657   2.736  0.2156  0.1222 -0.0437
10852W        W53843  10.294  21.878  15.585 -0.0048 -0.1045  0.0749
10853W        W53844  25.639  13.577  23.114  0.2292  0.3496  0.0611
10854W        W53845   5.731   0.442   1.959 -0.1943 -0.0432  0.0315
10855W        W53846  30.361   6.724  22.951 -0.2198  0.2724  0.0926
10856W        W53847  13.608  24.508  13.386  0.0638 -0.0554  0.0596
10857W        W53848   0.884  21.086   5.310  0.1072 -0.2297 -0.2729
10858W        W53849   9.656  33.455   8.977 -0.4299 -0.0916  0.4637
10859W        W53850   6.989  28.978  16.694  0.0880  0.0686  0.1792
10860W        W53851  17.838  30.598  28.372  0.2767  0.0793 -0.3104
10861W        W53852  33.769  30.616  13.281 -0.3381 -0.0757  0.0513
10862W        W53853  10.755  28.465  26.143 -0.1570 -0.1162  0.1340
10863W        W53854  24.010  33.767  19.955  0.0927  0.3058 -0.0546
10864W        W53855  33.410  17.767   4.908  0.0293  0.1385  0.0838
10865W        W53856  11.986   1.072  21.269  0.0159 -0.1723 -0.1435
10866W        W53857  30.699  26.668  15.182  0.1949  0.4822 -0.0652
10867W        W53858   2.121  26.768  25.531 -0.1174  0.0860  0.1527
10868W        W53859  24.552  25.935  26.162 -0.0719 -0.2035 -0.0550
10869W        W53860  34.075   2.303  19.825  0.0035 -0.1371  0.1312
10870W        W53861  26.093   5.563  19.134  0.0584 -0.1175 -0.1757
10871W        W53862  26.534  32.494  19.850  0.3291  0.0201 -0.1700
10872W        W53863  23.456   1.109  14.324  0.0399  0.0271 -0.0291
10873W        W53864  23.540   1.533   2.688 -0.1906 -0.0161  0.0212
10874W        W53865  11.346  21.346  22.109  0.0888  0.0731  0.1195
10875W        W53866  22.482  22.584  14.474 -0.1075 -0.2099 -0.1359
10876W        W53867  18.302   5.165  20.933 -0.0015  0.1211  0.4613
10877W        W53868  32.811  19.968  20.694 -0.3452 -0.0752  0.0187
10878W        W53869  20.590  25.352   3.275  0.2391  0.1914  0.2581
10879W        W53870  20.908  26.527  13.483 -0.2280 -0.1255  0.0303
10880W        W53871  12.517   5.271   2.575  0.0317 -0.2019 -0.0364
10881W        W53872  19.523  22.829  15.709 -0.0356  0.0814 -0.0359
10882W        W53873  20.468  25.796  27.569 -0.1649 -0.0379 -0.0285
10883W        W53874  25.420  23.537  21.620  0.0577  0.0012  0.0080
10884W        W53875  31.615  27.061  24.054 -0.1244 -0.0354 -0.0895
10885W        W53876  30.333  20.358  22.645  0.2553 -0.2044 -0.1512
10886W        W53877  22.914  21.815  26.124  0.2057 -0.2007  0.1028
10887W        W53878  17.069  33.181   8.440  0.2974  0.0773  0.1679
10888W        W53879  15.902  21.767  22.822  0.0676 -0.0822 -0.1965
10889W        W53880  31.358   3.116  25.725 -0.0682  0.3359 -0.0436
10890W        W53881  29.108   9.446   0.636 -0.4831 -0.1161 -0.0003
10891W        W53882  15.706  23.703  22.318 -0.3281 -0.0278 -0.0666
10892W        W53883  12.323  26.416  20.058 -0.3328 -0.0270 -0.0126
10893W        W53884  24.129  11.217  28.791 -0.1373 -0.1294 -0.0702
10894W        W53885  30.775  21.303  19.329 -0.0410 -0.0114 -0.1010
10895W        W53886  16.373  26.885  24.132 -0.0818 -0.0121 -0.2684
10896W        W53887  32.162  32.049  17.097  0.2856 -0.1267 -0.1256
10897W        W53888  11.164   0.196  26.700  0.0797 -0.1792 -0.2267
10898W        W53889   5.091  31.774   1.722  0.3330 -0.1343  0.1235
10899W        W53890  27.680  10.229   1.823 -0.1269 -0.1881  0.0546
10900W        W53891  25.715  21.730  16.428  0.1956  0.0277  0.2268
10901W        W53892   0.127  14.369  21.611 -0.1074 -0.0690 -0.0151
10902W        W53893   3.233  27.539  14.959 -0.0123  0.1365 -0.1437
10903W        W53894  26.954  32.763  13.951  0.2245 -0.2155  0.2913
10904W        W53895  19.801  28.995  18.271 -0.4378  0.0914  0.0986
10905W        W53896  21.647  28.387   2.071 -0.3350 -0.1994 -0.0363
10906W        W53897  21.468  27.603   0.673  0.1354 -0.0433  0.0232
10907W        W53898  22.196  30.607   1.249  0.2746  0.2668  0.0646
10908W        W53899  30.661  23.772  21.538  0.2001 -0.1072  0.1071
10909W        W53900  33.509  33.139  23.089  0.1010 -0.1497 -0.0525
10910W        W53901  18.281  23.632  19.102  0.2603 -0.1481  0.2350
10911W        W53902  13.422   8.579  20.451  0.1701  0.1636  0.0140
10912W        W53903  33.718  31.334  16.178  0.2256 -0.2911 -0.0105
10913W        W53904  27.445  23.067   8.405  0.0661 -0.0237  0.0384
10914W        W53905  22.431  29.223   8.822  0.0155 -0.1294 -0.0871
10915W        W53906  15.083  11.184   0.089  0.1505 -0.1880 -0.1797
10916W        W53907  17.487  25.560   1.139 -0.0261 -0.2424 -0.0707
10917W        W53908  22.863  25.022  18.930 -0.0227 -0.0994 -0.0012
10918W        W53909  26.895  33.658  15.242  0.0767 -0.0996 -0.1216
10919W        W53910  11.662  16.220  16.626 -0.2426  0.0356 -0.2587
10920W        W53911   9.892  32.529   1.035 -0.1401 -0.1816  0.1592
10921W        W53912  30.613  24.513   0.854  0.2612  0.0074  0.1173
10922W        W53913  24.441   4.823  14.742  0.0842  0.0744 -0.1722
10923W        W53914  17.860   3.427   0.365 -0.3097  0.2033 -0.1795
10924W        W53915  29.243   4.722   7.158  0.2514 -0.1924 -0.0190
10925W        W53916  33.205  11.020  27.184 -0.0186  0.1935  0.0977
10926W        W53917   4.028   3.165  21.097 -0.0534 -0.2121 -0.3045
10927W        W53918   5.622   0.801  25.214  0.3065  0.0231  0.0041
10928W        W53919  16.089  33.492  23.942  0.0932 -0.2218  0.1773
10929W        W53920  29.780  16.413   9.361 -0.0132  0.1602 -0.0233
10930W        W53921  30.338  20.145   2.955  0.0023  0.1035 -0.2995
10931W        W53922   3.071  32.380   2.764 -0.2918  0.0372  0.1106
10932W        W53923  31.278   8.982   5.010 -0.0892  0.2133  0.2343
10933W        W53924  32.700  27.901  25.316  0.0095 -0.0414 -0.1323
10934W        W53925   5.667  14.412  21.110  0.1508 -0.0746 -0.2566
10935W        W53926  25.855  26.779  18.384  0.1503 -0.1077  0.1544
10936W        W53927  23.797  22.364   1.717 -0.1069  0.1327  0.0192
10937W        W53928  26.304   1.478  29.163  0.0134  0.3087 -0.0705
10938W        W53929  20.821   9.062  15.735 -0.2744  0.2231 -0.0305
10939W        W53930  20.236  24.836  22.465  0.0769 -0.0779  0.2004
10940W        W53931  33.395  30.426  15.778  0.2982 -0.1959  0.1016
10941W        W53932  14.280  25.250  23.553  0.0504 -0.2028 -0.2372
10942W        W53933   7.662   1.386  27.496 -0.1696  0.3490 -0.0424
10943W        W53934  32.008  29.474  24.755  0.1621 -0.2685 -0.1641
10944W        W53935  23.640   3.319   2.469  0.1734 -0.1228  0.2014
10945W        W53936  21.723  25.947   1.845 -0.0188 -0.1291 -0.1841
10946W        W53937   7.389  22.645  25.745 -0.0014 -0.1172 -0.2763
10947W        W53938  26.702  15.318   3.479 -0.1123 -0.0380  0.2285
10948W        W53939  31.039  11.431  28.213 -0.0040 -0.1014 -0.0771
10949W        W53940   9.116   8.180  15.865  0.0212  0.3035  0.2435
10950W        W53941  26.514  14.038  23.441 -0.1046 -0.1063 -0.0596
10951W        W53942   7.614   1.550   4.894 -0.0395 -0.5903 -0.2347
10952W        W53943  10.008  34.643  19.183 -0.1209  0.1705 -0.1203
10953W        W53944  26.313  32.325  19.356  0.0685 -0.2416  0.0301
10954W        W53945  13.208  16.646   7.400  0.0966 -0.2275  0.1183
10955W        W53946  32.258   0.414  15.334 -0.3348  0.0362  0.4707
10956W        W53947  24.752   4.246  22.312 -0.0165 -0.0630 -0.2863
10957W        W53948  26.067  27.834  15.594  0.4146 -0.0051 -0.2074
10958W        W53949  29.146  28.700  22.921 -0.2551  0.1135  0.1276
10959W        W53950  17.640  34.146  17.074  0.0174  0.0569 -0.0945
10960W        W53951  18.277  26.427  23.289  0.0599 -0.1327  0.1595
10961W        W53952  25.226  20.801   2.997 -0.1922 -0.3055 -0.4558
10962W        W53953  15.675  23.840  21.226  0.1236 -0.2759 -0.2795
10963W        W53954  12.771  21.625  16.688 -0.0620 -0.1356  0.1199
10964W        W53955  13.225  13.585   0.308  0.0690 -0.0042  0.1163
10965W        W53956  13.715  19.063  22.736  0.0716 -0.0478  0.1495
10966W        W53957  26.473  25.096  21.274  0.1069  0.0276 -0.1732
10967W        W53958  23.397  10.964  16.780  0.0643  0.0179  0.1487
10968W        W53959  19.949  27.113  19.733 -0.0457  0.3198  0.0567
10969W        W53960  12.037  19.581  27.469  0.3751  0.2972 -0.3172
10970W        W53961  10.544  25.162   6.645  0.1215 -0.1311 -0.1525
10971W        W53962  27.943  18.300  20.397 -0.1363 -0.0638 -0.1435
10972W        W53963  28.175  26.593   0.551  0.0084 -0.1844 -0.3837
10973W        W53964  24.405  31.678  14.496  0.0844 -0.1037  0.0192
10974W        W53965   2.638  18.370   9.383 -0.3296 -0.0389 -0.0885
10975W        W53966  32.016  34.114  19.207 -0.2464 -0.1673  0.0608
10976W        W53967   0.695   8.398   2.997 -0.0541  0.1708 -0.1177
10977W        W53968   1.663   2.443  15.363 -0.2498 -0.1284  0.1947
10978W        W53969   1.499  33.903   3.141 -0.0353 -0.0143 -0.0472
10979W        W53970  21.803  20.788  22.744 -0.1735 -0.2249  0.1420
10980W        W53971  18.301   9.763  19.262  0.2322 -0.1291 -0.0470
10981W        W53972   5.906  21.891  29.229  0.1303  0.2354 -0.1433
10982W        W53973  24.410   1.740  27.405  0.0441  0.0767  0.0833
10983W        W53974  22.063  27.919  16.092  0.0855  0.2708  0.0317
10984W        W53975  16.708   0.115  20.753  0.2594  0.3718 -0.1074
10985W        W53976   0.991  13.974   3.186 -0.4503  0.0416  0.0370
10986W        W53977  29.129  29.864  22.441  0.0021  0.0077  0.3164
10987W        W53978  13.699   7.365  19.269 -0.2947 -0.0825  0.1651
10988W        W53979  30.436  29.476  27.114 -0.4180  0.1009  0.4063
10989W        W53980  33.485   6.709  24.479 -0.1121  0.1777 -0.1342
10990W        W53981  27.207  12.164   1.090 -0.0166  0.0865  0.0075
10991W        W53982  26.786  21.064  13.981 -0.2359  0.0690 -0.1374
10992W        W53983  34.155  27.105  16.439 -0.2569  0.2148  0.0796
10993W        W53984  31.471  19.871  16.470 -0.3798 -0.4073 -0.1475
10994W        W53985  29.820  17.614  15.893  0.0463 -0.0012 -0.0396
10995W        W53986  19.790  33.060   0.363  0.2817  0.0182  0.2045
10996W        W53987  16.971   9.455  18.757 -0.3161 -0.0595 -0.2378
10997W        W53988   6.269  24.797  19.734  0.2407  0.1810  0.1074
10998W        W53989  34.174  29.795  21.057  0.0802  0.0516 -0.0977
10999W        W53990  20.755  31.696   4.085 -0.0244 -0.0861 -0.2441
11000W        W53991   3.890  24.280  20.036  0.3513  0.0323 -0.0291
11001W        W53992  26.124   2.974  25.264  0.1971  0.3218 -0.1149
11002W        W53993  18.744  17.860   0.400 -0.0389 -0.2303  0.0341
11003W        W53994  34.069  21.905  21.268  0.0652  0.1059 -0.2216
11004W        W53995  24.199   4.072  14.110 -0.2639 -0.0016  0.0615
11005W        W53996  27.723  27.625  17.625 -0.2242  0.0507  0.0123
11006W        W53997  22.588  27.422   6.179  0.0331  0.2799  0.2567
11007W        W53998  31.399  15.419   7.995  0.0432  0.2884  0.1241
11008W        W53999   9.331  12.839  21.310  0.0496  0.0944  0.0857
11009W        W54000  20.412  23.521  24.879 -0.1628 -0.1965  0.2150
11010W        W54001  13.461   3.347   1.333  0.2615  0.1504  0.0074
11011W        W54002  20.098  23.663  25.746  0.0175  0.5831  0.2180
11012W        W54003  31.244  19.872  22.684  0.0386 -0.1180 -0.2161
11013W        W54004   2.311   5.649  28.963  0.3290  0.0468 -0.2945
11014W        W54005  27.977   0.086   3.082  0.1232  0.0460 -0.0798
11015W        W54006  16.061  14.189  15.143  0.1869 -0.2371 -0.1101
11016W        W54007   1.700  13.981   3.986 -0.1298 -0.0913 -0.0208
11017W        W54008  28.648  28.883  24.443  0.0260  0.0150 -0.2284
11018W        W54009  28.922  28.254  28.522 -0.1655 -0.3823 -0.2800
11019W        W54010  20.163  34.232  25.628  0.1746  0.2672  0.0384
11020W        W54011  22.377  23.765   2.578 -0.0295 -0.0154  0.0592
11021W        W54012  25.274  24.369  22.346  0.5615 -0.2052  0.0320
11022W        W54013  14.708  32.677   6.193 -0.0717  0.3348  0.0817
11023W        W54014  31.290  16.191  22.972 -0.0225 -0.0164 -0.0502
11024W        W54015  22.783   2.367  22.130 -0.1267 -0.0626  0.0103
11025W        W54016   1.328  18.147   1.355  0.1755  0.0844  0.0443
11026W        W54017  16.256  26.659   6.113  0.3765 -0.2281  0.2737
11027W        W54018  23.198  25.468   7.784  0.2217  0.0650 -0.0976
11028W        W54019  16.561  26.350  17.227  0.1169 -0.1874  0.3266
11029W        W54020  34.040  25.271   6.751 -0.0137 -0.3676  0.3904
11030W        W54021  13.172  28.864  15.461 -0.1771  0.1731  0.0847
11031W        W54022  14.335  28.683  21.321  0.0693 -0.1448  0.4277
11032W        W54023   6.611   4.508   5.189 -0.0389 -0.1524 -0.0475
11033W        W54024  31.444   5.777  27.454 -0.3084  0.0039  0.0455
11034W        W54025  13.310  27.802  28.572 -0.2891  0.1293 -0.1458
11035W        W54026   8.344  29.202  28.314  0.1854 -0.0754 -0.0317
11036W        W54027  23.147  28.817   2.821 -0.2022  0.0552  0.4127
11037W        W54028  31.324   0.534  29.109 -0.2276  0.3138 -0.2628
11038W        W54029   1.386  10.437  23.741 -0.2140  0.2939  0.0923
11039W        W54030   1.927   8.939  26.455  0.1516 -0.2829 -0.0150
11040W        W54031  10.197  19.573   3.272  0.1317 -0.0693  0.0390
11041W        W54032  29.908  22.444  19.475 -0.1005  0.4667  0.1447
11042W        W54033   1.298   5.658  25.990 -0.2571  0.1167 -0.1633
11043W        W54034  25.611  21.205   0.302  0.0582  0.3146 -0.0682
11044W        W54035  25.481   9.643  18.533 -0.0310  0.1326  0.2508
11045W        W54036  23.610   6.960   8.132 -0.2571  0.0900  0.0787
11046W        W54037  21.044  24.987   9.901  0.3887 -0.2630  0.0018
11047W        W54038  30.279   5.347   7.151  0.0536 -0.0068  0.0540
11048W        W54039  14.359  26.303   2.177  0.1641 -0.2588  0.2152
11049W        W54040  19.335  20.023  24.051 -0.1282  0.1172 -0.2471
11050W        W54041  29.800  30.506  19.327 -0.2913 -0.0158  0.1511
11051W        W54042  15.281  26.826  17.257  0.1947  0.0549 -0.1700
11052W        W54043  33.444  29.235  20.814  0.0840  0.1138  0.2955
11053W        W54044  22.908  20.783   4.401 -0.2165 -0.0086  0.0101
11054W        W54045  28.458  21.621   1.760 -0.1315  0.2223  0.0683
11055W        W54046  30.779  20.252  18.050 -0.1841 -0.3194  0.0591
11056W        W54047  27.884  30.818  19.084 -0.0458 -0.0597 -0.2582
11057W        W54048   7.117  25.236  22.852 -0.1395  0.0780  0.0167
11058W        W54049   0.905  30.871  17.908 -0.0526  0.3896  0.0644
11059W        W54050  23.670  32.462   2.979  0.0583  0.0697  0.3906
11060W        W54051  23.928  24.512  24.148 -0.1238  0.2652  0.1727
11061W        W54052  28.395  18.779   6.190 -0.2737 -0.2173  0.1482
11062W        W54053  12.664   2.081  19.514  0.0765  0.1511 -0.0227
11063W        W54054  26.330  23.185  19.284  0.2035 -0.2522  0.0225
11064W        W54055  18.266  21.647  25.879 -0.1928  0.1450  0.1706
11065W        W54056  20.937  22.779  15.821 -0.0925 -0.1378  0.2774
11066W        W54057  28.624  27.530  19.673  0.0958  0.0013 -0.1573
11067W        W54058   0.343  28.196   4.205 -0.1025 -0.1281  0.0684
11068W        W54059  28.890  27.812   5.810  0.2152  0.0498 -0.3128
11069W        W54060  13.734  26.152  23.720  0.0726 -0.0292  0.0231
11070W        W54061  21.972   0.077   7.218 -0.0014 -0.0247  0.1998
11071W        W54062  33.184  16.590  19.113  0.2425 -0.0353  0.0073
11072W        W54063  13.922  22.889  21.756 -0.0947 -0.1936  0.0798
11073W        W54064  25.535  29.632  14.368  0.3066  0.3019  0.0607
11074W        W54065  22.860  29.996  25.748  0.0052 -0.0450 -0.2574
11075W        W54066  30.519   6.613  19.189  0.0230  0.1472 -0.0633
11076W        W54067  32.352   1.254  24.133  0.0290  0.0569 -0.1585
11077W        W54068  29.587  24.682  19.767  0.4318 -0.3627  0.5552
11078W        W54069  28.657  33.694  28.714  0.1314  0.1178  0.1914
11079W        W54070  11.759   4.036  27.446 -0.3469  0.0545 -0.1561
11080W        W54071  27.140  31.702  20.497  0.0019  0.2384 -0.0505
11081W        W54072  25.177   2.670  28.873 -0.1323 -0.0271  0.4229
11082W        W54073  15.222  31.542  17.115  0.1614  0.2935 -0.1981
11083W        W54074  32.737  20.965  17.059  0.3625 -0.2096  0.3135
11084W        W54075  26.909  24.805  16.705 -0.2649  0.2156  0.0413
11085W        W54076  19.403  21.439  15.041 -0.4162 -0.0484  0.2402
11086W        W54077  33.513  27.964  19.284  0.2178  0.1379 -0.0415
11087W        W54078  21.125  20.273   2.247 -0.0380 -0.2631 -0.3796
11088W        W54079  31.180  22.601  18.808  0.1043  0.2093  0.3436
11089W        W54080   4.285  22.140  18.233  0.2182  0.0065 -0.0437
11090W        W54081  28.550  17.562   6.554 -0.0540 -0.3339 -0.1216
11091W        W54082  21.144  13.794   7.946 -0.1378  0.1254  0.2281
11092W        W54083  25.142   4.990  15.194  0.1020  0.0535  0.2506
11093W        W54084  19.923  31.630   6.668 -0.0631 -0.2654  0.3266
11094W        W54085  25.445  32.799  27.642  0.0810  0.2123 -0.0718
11095W        W54086   8.896  23.670  24.044  0.1399  0.0360 -0.0033
11096W        W54087  23.275   9.936  15.934  0.3454  0.4736  0.2523
11097W        W54088  15.512  27.234  22.425  0.0422 -0.2426 -0.2408
11098W        W54089   8.603   9.657  16.799 -0.0804  0.0786  0.3850
11099W        W54090   9.238  18.513  16.062  0.0714  0.0279  0.0398
11100W        W54091  15.240  29.359  18.676  0.1181 -0.3406  0.0728
11101W        W54092  15.095  15.361  22.731  0.0520  0.1786 -0.2825
11102W        W54093  13.523  21.828   0.592  0.2392  0.2100  0.0568
11103W        W54094   5.386   2.664  28.380 -0.3736 -0.1070 -0.0879
11104W        W54095  26.051  29.737  25.203  0.2519  0.0222  0.1972
11105W        W54096  20.036  29.048  28.973 -0.2088  0.0215 -0.2959
11106W        W54097  21.979   4.849  23.357  0.2482 -0.0441  0.5816
11107W        W54098  34.068   2.830  28.188  0.1849 -0.2107  0.1830
11108W        W54099   9.035  28.755  10.287  0.0958  0.0591 -0.0604
11109W        W54100  30.938  12.292  21.612 -0.0403  0.1273 -0.0420
11110W        W54101  34.732  22.975   9.945 -0.0295  0.1648  0.0734
11111W        W54102  30.002   7.865  15.269 -0.2657  0.0201  0.0422
11112W        W54103   5.703   2.702  28.716 -0.0011  0.1500  0.0526
11113W        W54104  17.785  23.968  29.165 -0.1150  0.4449  0.1450
11114W        W54105  13.479  27.262   7.595  0.1055  0.2167  0.0016
11115W        W54106  13.127  19.320   0.970 -0.0061  0.1634  0.1644
11116W        W54107  25.835   2.314  26.450  0.5127 -0.0526 -0.0439
11117W        W54108  22.926  22.058  18.260  0.0969 -0.1010  0.0575
11118W        W54109  23.711   7.210   0.574  0.2705 -0.1278  0.1330
11119W        W54110  20.745  19.530  13.401  0.0471  0.1001  0.1196
11120W        W54111  27.168  19.360  15.403 -0.1746 -0.0098 -0.0101
11121W        W54112   8.022   4.329   7.709  0.0724 -0.0800  0.0497
11122W        W54113   0.788  20.872   3.311  0.0701 -0.0724 -0.1308
11123W        W54114  30.647  27.610   1.336  0.0090  0.1977  0.2328
11124W        W54115   2.573  26.555   0.778 -0.3964  0.1339  0.2047
11125W        W54116   5.280  21.812  18.247  0.1276 -0.4125  0.1447
11126W        W54117  14.735   1.028  25.603  0.1118 -0.1733  0.0243
11127W        W54118  12.590  21.612  19.383  0.2776  0.1247  0.0226
11128W        W54119  10.641  31.755  16.239  0.0905  0.0098  0.2871
11129W        W54120  16.886  27.292   2.015  0.0176 -0.0710  0.3178
11130W        W54121  16.700  24.352  22.749 -0.0897  0.2046  0.0202
11131W        W54122  19.172  21.644  13.147  0.0309  0.2266 -0.0832
11132W        W54123   9.374  21.363  18.070 -0.0055  0.0056 -0.0263
11133W        W54124  24.094  28.830   8.450  0.2309 -0.3788 -0.3338
11134W        W54125  24.882  24.424  25.751  0.0448 -0.0663 -0.1179
11135W        W54126  14.090  28.191  26.572  0.1541 -0.1348 -0.2054
11136W        W54127   5.156  27.627  18.428 -0.0995 -0.1015  0.0627
11137W        W54128  19.770  29.343   8.204  0.4392  0.0847 -0.5836
11138W        W54129  12.900  25.396  19.502  0.0729  0.2968  0.1640
11139W        W54130  27.206  25.935  17.387 -0.0672  0.0098  0.1619
11140W        W54131   1.160  23.128  26.068  0.0257 -0.0516  0.2869
11141W        W54132  27.348  34.120   8.054 -0.1628 -0.0870 -0.0245
11142W        W54133  25.148  24.279  28.541  0.0974 -0.2223 -0.3123
11143W        W54134  24.804  30.317  21.172  0.1055  0.1105 -0.4449
11144W        W54135  13.148  27.405  25.948  0.4386 -0.1067 -0.1723
11145W        W54136  22.328  30.016  21.827 -0.1235  0.3055  0.1275
11146W        W54137  27.658  22.790  20.667  0.1016 -0.0051  0.3990
11147W        W54138  33.363  23.033  15.180  0.0521 -0.1633  0.3635
11148W        W54139  28.168  30.826  16.117  0.1661  0.0652  0.0765
11149W        W54140  22.087  31.592   1.032  0.1546  0.0329  0.1351
11150W        W54141  22.002  29.126  18.752 -0.2435 -0.2019  0.0003
11151W        W54142   4.906   4.093  20.257  0.2162  0.2448 -0.1289
11152W        W54143   5.624  16.077  26.081 -0.2742  0.0979 -0.0853
11153W        W54144  23.221   3.053  24.497  0.1840  0.3856 -0.1233
11154W        W54145  18.015   9.476  14.668 -0.2174 -0.0701 -0.0781
11155W        W54146  26.608  34.507  14.942  0.1447 -0.2597  0.1421
11156W        W54147  30.194  34.222   6.441  0.0131  0.1038 -0.2931
11157W        W54148  34.761   4.070   9.265  0.0944  0.1390 -0.3036
11158W        W54149  20.581  24.431  16.956 -0.0764 -0.1428 -0.2099
11159W        W54150  20.157  33.784  20.771  0.0187  0.1204  0.4461
11160W        W54151  14.059  30.099   2.835 -0.1484 -0.0921 -0.5496
11161W        W54152  32.776  27.316  24.766 -0.0840  0.3509  0.1274
11162W        W54153  34.044  29.288  25.540  0.2768 -0.1738  0.0541
11163W        W54154   1.050  34.285  19.244  0.0508 -0.1865 -0.0092
11164W        W54155  31.843  23.038  21.536  0.0087 -0.2564  0.1969
11165W        W54156  14.251  18.549   7.854 -0.0077 -0.1163 -0.1976
11166W        W54157  16.575  22.411  20.862  0.1391  0.2232  0.1400
11167W        W54158  25.785   9.005   5.815 -0.1487  0.1290  0.1463
11168W        W54159  10.682  23.855  23.803 -0.1904 -0.0751 -0.3248
11169W        W54160  24.998   0.132  18.162 -0.0090  0.4328  0.0142
11170W        W54161  18.802  10.445  27.662  0.0823  0.1718 -0.0397
11171W        W54162  29.064   1.219  27.862  0.1705 -0.3301 -0.0545
11172W        W54163  27.686  34.790   4.128  0.0069  0.1109 -0.1568
11173W        W54164   3.350  30.150  24.925  0.2058 -0.3219  0.1582
11174W        W54165   5.509  12.118  17.825 -0.0651  0.1116 -0.0804
11175W        W54166  30.762  27.922  17.088 -0.3808  0.0536  0.0905
11176W        W54167  18.011  26.417   5.106  0.0682  0.3493 -0.0893
11177W        W54168  26.845  26.669  17.881 -0.0543 -0.1985 -0.0674
11178W        W54169  33.816  34.480   2.036  0.3925 -0.2569 -0.0751
11179W        W54170  10.292   3.044  19.333  0.1484 -0.0076 -0.2577
11180W        W54171  22.912  31.699  25.868  0.2952  0.0447 -0.0672
11181W        W54172  25.021   7.139  26.282 -0.1855  0.1811 -0.0144
11182W        W54173  31.425  29.049  28.989 -0.1118 -0.4317  0.0315
11183W        W54174  26.010   0.300  21.812  0.0263  0.1122 -0.0191
11184W        W54175   3.075  20.464   4.432 -0.1898 -0.1129  0.0337
11185W        W54176  34.543  22.213  18.474  0.1218  0.2060  0.2118
11186W        W54177  33.903   0.608  20.492  0.2855 -0.0611 -0.1969
11187W        W54178  29.506  30.097  19.122  0.2288  0.0161  0.2428
11188W        W54179  19.309  25.159  17.175  0.1719  0.3696  0.0709
11189W        W54180  32.672  30.615  27.091 -0.4830 -0.1122  0.0789
11190W        W54181  19.455  32.738  22.379  0.1067 -0.0895  0.0532
11191W        W54182  21.617  23.312  15.097 -0.1702 -0.4338 -0.1511
11192W        W54183   6.633  32.873  19.589  0.0208 -0.3269  0.0356
11193W        W54184  28.687  33.952  21.614 -0.0283  0.4659 -0.1735
11194W        W54185   1.001  12.288   3.339 -0.0450  0.1132 -0.1706
11195W        W54186  21.470   9.462  20.152 -0.3398  0.0525  0.1359
11196W        W54187  21.610  16.186   9.291  0.0353 -0.4517 -0.1011
11197W        W54188   2.944  31.132  15.551  0.4657  0.3716 -0.3034
11198W        W54189  18.255  21.108  24.107 -0.4643 -0.0860  0.0108
11199W        W54190  19.015  28.872   1.953 -0.2710 -0.0660 -0.1041
11200W        W54191  14.941  28.566  19.320 -0.0720  0.0004 -0.0845
11201W        W54192  23.689  11.052  16.060 -0.2815 -0.0351 -0.3028
11202W        W54193  20.598  10.542  27.605 -0.3036  0.0789 -0.1651
11203W        W54194  30.013  29.166  25.318 -0.2905  0.1340  0.1558
11204W        W54195  20.836  25.746   3.144 -0.1710 -0.2275 -0.1797
11205W        W54196  10.469   2.801   1.998  0.0849  0.4176 -0.1974
11206W        W54197   5.834  24.050  17.084 -0.1108 -0.0067  0.3224
11207W        W54198   2.840   3.126  19.422 -0.1169  0.1543  0.3407
11208W        W54199  21.499  33.636  15.770  0.3961 -0.2282 -0.0387
11209W        W54200  12.813  31.605  24.626 -0.0785  0.0817  0.0090
11210W        W54201  10.758  20.545   0.904  0.4933 -0.1477 -0.2904
11211W        W54202  26.072  10.664   9.639 -0.1428 -0.0868 -0.1505
11212W        W54203  27.302  31.536   7.109 -0.2041 -0.3322  0.1841
11213W        W54204  19.719  32.295  18.611 -0.2805  0.0843 -0.4238
11214W        W54205  18.452  25.962  16.056 -0.0442 -0.1261 -0.2548
11215W        W54206  31.786  32.563  27.959 -0.0498  0.0261  0.1675
11216W        W54207  10.987  27.116   1.084 -0.0695  0.0253  0.0814
11217W        W54208  20.521  14.331  24.245  0.0145  0.0481  0.0179
11218W        W54209  20.134   3.667  26.873 -0.0969  0.0725 -0.3589
11219W        W54210   2.281  31.787  20.367  0.1074 -0.2465 -0.0659
11220W        W54211  18.936  28.439   2.267  0.0793  0.0567 -0.2043
11221W        W54212  20.462  25.921  15.958  0.1286 -0.2708 -0.0152
11222W        W54213  14.454  18.981  13.497  0.2810 -0.3373  0.1631
11223W        W54214  20.233  26.686  20.016  0.1296  0.1194  0.0218
11224W        W54215   5.084  22.584   6.643 -0.1996  0.1734 -0.0030
11225W        W54216  22.351   1.777   4.491 -0.1756  0.0659 -0.0261
11226W        W54217  18.004  31.921  26.510  0.4454  0.0974  0.1475
11227W        W54218  20.185  14.879  26.802  0.0737 -0.0986 -0.0013
11228W        W54219  16.678  20.645   8.695 -0.1626  0.0043  0.3117
11229W        W54220   5.808  28.878   1.014  0.1055 -0.0134 -0.1019
11230W        W54221  15.148  12.020  19.516  0.1371  0.3207 -0.0992
11231W        W54222  17.616  17.634  28.240  0.3152 -0.4110  0.2813
11232W        W54223  21.402  24.499  25.707 -0.0880 -0.1303 -0.0267
11233W        W54224   3.184  22.583  27.713  0.0103 -0.1389  0.0291
11234W        W54225  29.575  32.462  25.720  0.0996 -0.0274 -0.1594
11235W        W54226  29.007  18.649   8.855  0.0896 -0.0345 -0.0761
11236W        W54227  28.491  21.459  22.002 -0.2349  0.1035 -0.0649
11237W        W54228   1.130  17.966  20.845  0.1687  0.1503  0.2194
11238W        W54229  31.345  33.143  24.967 -0.3812 -0.0652  0.0008
11239W        W54230  28.589  27.649  22.191 -0.0233  0.0704  0.0488
11240W        W54231  12.307  23.962  28.110 -0.1255 -0.1439  0.2350
11241W        W54232  28.229   3.555  17.116 -0.1486 -0.1798  0.1131
11242W        W54233  33.203  21.069  25.614  0.0831  0.1452  0.1998
11243W        W54234  24.358  28.802  15.321  0.0904  0.1442  0.0560
11244W        W54235  20.636  21.657  16.331 -0.1067 -0.1320  0.0823
11245W        W54236  16.137  34.467   6.283 -0.1068  0.0428 -0.0616
11246W        W54237  18.548  29.911  27.379  0.1557  0.2725  0.0866
11247W        W54238   1.425  16.656  24.453  0.1175  0.1920 -0.2014
11248W        W54239  28.833  24.417  20.063  0.2240  0.2037 -0.1355
11249W        W54240  25.893  33.065   0.465  0.1042 -0.1351 -0.2002
11250W        W54241  29.380  14.174  21.463  0.0450 -0.0110 -0.0577
11251W        W54242  13.488  13.917  22.175  0.0486 -0.0396 -0.0900
11252W        W54243  32.259   8.081  26.070 -0.1191  0.3222  0.3520
11253W        W54244  23.991   0.023   0.466  0.0053 -0.0026 -0.5678
11254W        W54245   2.794   5.716   3.458  0.0000  0.2766 -0.0655
11255W        W54246  18.126  34.682   3.530 -0.1163  0.1049 -0.3900
11256W        W54247  28.154  28.177   6.516  0.2045 -0.3055 -0.0982
11257W        W54248  31.612  15.408  21.914 -0.0491 -0.0923  0.2763
11258W        W54249  20.979  21.373   6.767  0.2231  0.2013 -0.3521
11259W        W54250  20.272   3.792  18.303 -0.0978  0.1448  0.0329
11260W        W54251  23.584   1.659  24.841  0.3556  0.0772  0.0395
11261W        W54252  29.184  20.398   1.155 -0.3696 -0.3282  0.2088
11262W        W54253  26.036  26.293  20.949 -0.2252 -0.0270  0.0215
11263W        W54254  14.383  28.832  19.012 -0.0334  0.0159 -0.2536
11264W        W54255  19.101  33.912  16.624  0.2150  0.2567  0.2253
11265W        W54256   1.456  20.561   8.256  0.1229  0.1090 -0.0201
11266W        W54257  26.894  22.562  14.726  0.3384  0.1924  0.2022
11267W        W54258  10.656  30.891  16.662 -0.0166 -0.0617  0.0404
11268W        W54259  31.594  24.275  19.414  0.0114  0.1943  0.3512
11269W        W54260  21.774  30.094  18.845 -0.4738 -0.2666 -0.3365
11270W        W54261  20.776   2.963  15.505 -0.1042 -0.1277 -0.1613
11271W        W54262  11.520   4.246  25.808  0.0638  0.2891 -0.1449
11272W        W54263  19.838  25.074  28.203 -0.1605 -0.1767 -0.0768
11273W        W54264  26.971   8.402  21.725  0.2332  0.1573  0.0091
11274W        W54265   0.038  12.396  23.554  0.2374 -0.1109 -0.1288
11275W        W54266   3.634   3.790   8.997 -0.2981 -0.3376 -0.1814
11276W        W54267  27.849  16.311   3.064  0.2737 -0.0482 -0.0467
11277W        W54268   6.742   4.218  19.582 -0.1638  0.0473  0.0699
11278W        W54269  10.623  31.455  21.168 -0.1331 -0.1863  0.1435
11279W        W54270  19.990  24.301   6.057 -0.2962 -0.1861 -0.0748
11280W        W54271  29.887  12.941   8.563 -0.0567 -0.1309 -0.1346
11281W        W54272  22.457  22.438  16.957 -0.5353 -0.0030  0.2176
11282W        W54273  17.928  22.534   1.343 -0.0819 -0.0953 -0.1328
11283W        W54274  18.427   7.498  24.444  0.0953 -0.0238 -0.0653
11284W        W54275  16.966  32.437  26.026  0.2019  0.2734 -0.1492
11285W        W54276   9.108  19.346  28.848 -0.4346  0.0258 -0.0099
11286W        W54277  10.329  34.020  25.353 -0.0597  0.0176 -0.0086
11287W        W54278   5.515  34.043  14.544  0.4141 -0.0023  0.0124
11288W        W54279  17.067  21.058  26.565  0.0318  0.1328  0.0499
11289W        W54280   9.912  10.542  25.943 -0.2081 -0.2429 -0.0382
11290W        W54281  18.020   5.324   8.845 -0.1509  0.1357  0.2511
11291W        W54282  29.632  11.248   3.272 -0.0907  0.1691 -0.1811
11292W        W54283  17.363  23.749  28.373 -0.0289  0.3257 -0.0383
11293W        W54284  26.306  33.487  27.265 -0.4577 -0.0189 -0.0326
11294W        W54285  20.586  33.117   4.777 -0.0747 -0.1265 -0.0769
11295W        W54286  19.383  26.980  17.920  0.1714 -0.0642 -0.0710
11296W        W54287   2.442  33.530  27.477  0.1368 -0.1224  0.2545
11297W        W54288  13.973  11.789   4.420  0.2212 -0.1070 -0.0104
11298W        W54289   5.830  27.429   9.181 -0.1709  0.0458 -0.2479
11299W        W54290   4.686  31.638   4.121  0.1179  0.1931  0.0645
11300W        W54291  28.964  24.261   0.142 -0.0210  0.0336 -0.0310
11301W        W54292  25.691  19.049  19.913 -0.1280  0.4194 -0.3378
11302W        W54293  29.594  33.555  13.712  0.0564 -0.1365  0.1127
11303W        W54294   9.843  18.358  23.917 -0.0346 -0.0463  0.2354
11304W        W54295   1.254  31.538   1.944 -0.0783 -0.0200  0.0625
11305W        W54296  23.621  21.033  18.491  0.0334 -0.2855 -0.1033
11306W        W54297  26.335   0.485   2.734  0.3089  0.1018 -0.0235
11307W        W54298  14.165  15.678  22.541  0.1461 -0.2043  0.3239
11308W        W54299  21.454   7.771   5.383 -0.1317 -0.2180  0.0452
11309W        W54300   2.687  28.014   1.400 -0.0993  0.0759 -0.0873
11310W        W54301  33.588   8.313  23.291  0.1532 -0.0581 -0.1032
11311W        W54302  28.242  29.889   2.097 -0.2044 -0.2971 -0.0346
11312W        W54303   8.795  28.032  15.166 -0.2404  0.1306 -0.2466
11313W        W54304   9.000  23.001  14.328 -0.4630  0.1257  0.0654
11314W        W54305  22.996  26.746   9.444 -0.3817 -0.4631  0.2140
11315W        W54306   3.251   6.458  16.231 -0.2259  0.1078 -0.0264
11316W        W54307  25.543  20.693  20.000 -0.1402  0.2639 -0.3126
11317W        W54308  28.186  16.104   3.372 -0.0108  0.0891  0.0928
11318W        W54309   6.421  32.474  19.207 -0.0185  0.0528 -0.5778
11319W        W54310  27.730  14.336  18.799 -0.1363 -0.2612 -0.0733
11320W        W54311   9.827  12.527   1.525 -0.2123 -0.2503 -0.0019
11321W        W54312   5.275   0.346  20.779 -0.1145 -0.2074 -0.0724
11322W        W54313  25.022  32.430   0.142 -0.0762  0.1336 -0.0300
11323W        W54314  28.182  12.009   0.535  0.1762  0.0908 -0.2157
11324W        W54315  34.650  25.227   4.359 -0.1737  0.0724  0.1567
11325W        W54316  29.176  20.367   9.599  0.2753  0.0379 -0.1014
11326W        W54317   8.344  25.815  20.436 -0.3161 -0.2173  0.3423
11327W        W54318  26.900  14.875   4.835  0.0517  0.1331 -0.0250
11328W        W54319  27.057  27.096  20.566  0.0168  0.0312  0.0922
11329W        W54320  19.141  19.063  25.939 -0.1918  0.1209  0.1518
11330W        W54321  12.596  13.678  17.366  0.1297  0.2520 -0.1300
11331W        W54322  10.860  27.408  26.242 -0.1874 -0.0389  0.0423
11332W        W54323  23.753  24.276  17.307 -0.0766  0.0433  0.1894
11333W        W54324  11.866  25.242   1.791 -0.1443 -0.2755 -0.1746
11334W        W54325  15.567  32.532  27.071  0.0499 -0.0785 -0.1710
11335W        W54326  21.568  15.904  25.758  0.0600 -0.1300 -0.2731
11336W        W54327  15.259  21.210  29.030 -0.2994 -0.1971 -0.2661
11337W        W54328   1.274  22.388  27.264  0.1878 -0.3576  0.1116
11338W        W54329  24.354  29.130   1.406  0.1420 -0.0884 -0.0974
11339W        W54330  26.042  31.125   6.264 -0.1578  0.1296 -0.2410
11340W        W54331   9.033  18.823   7.869 -0.1861 -0.0093 -0.1079
11341W        W54332   5.961   7.862  19.957  0.0317 -0.1080 -0.1128
11342W        W54333  26.422  21.046  15.645 -0.0043 -0.0119  0.2979
11343W        W54334  13.184  15.311   1.344 -0.0107 -0.0432 -0.1123
11344W        W54335  16.190  27.600  28.707  0.0696  0.1085  0.1421
11345W        W54336  24.233  26.886  26.335  0.0023 -0.0261 -0.1540
11346W        W54337  14.105   0.981  28.438 -0.2897 -0.3759 -0.1882
11347W        W54338  25.416  15.703  16.571  0.1578  0.3666 -0.2710
11348W        W54339  15.891   2.649   2.282 -0.0992  0.1662 -0.2293
11349W        W54340  10.093   0.472  26.626  0.0469  0.0950 -0.2156
11350W        W54341  15.475   3.448   5.777 -0.0700  0.1474 -0.1026
11351W        W54342   3.826  29.987  18.596 -0.2816 -0.2850 -0.3057
11352W        W54343   6.811  13.592  21.320 -0.2065  0.1942 -0.1637
11353W        W54344  25.308  19.022   3.627  0.1440 -0.1489 -0.2400
11354W        W54345  14.905  20.381  22.664  0.3885  0.2014 -0.1697
11355W        W54346   1.109  10.183  19.274  0.0460 -0.1497  0.0175
11356W        W54347  14.233  16.315  25.856 -0.0247  0.0046 -0.0713
11357W        W54348  23.393  30.384  18.414 -0.0563 -0.3629 -0.0604
11358W        W54349   0.874  22.032  27.073  0.0072 -0.1493 -0.2411
11359W        W54350  22.177   8.316  28.269 -0.2855 -0.3029  0.1898
11360W        W54351  22.693  29.296   1.818 -0.3414 -0.2501 -0.1820
11361W        W54352  20.590  13.632  21.647  0.0560 -0.0774  0.1911
11362W        W54353  14.512  30.985  20.972  0.1909  0.0257 -0.0317
11363W        W54354  24.390  33.571  25.122  0.1672  0.0583  0.4812
11364W        W54355  31.683  21.638  27.272 -0.0534  0.1798  0.1090
11365W        W54356  25.915  26.240  27.894 -0.0199 -0.2184 -0.0175
11366W        W54357  12.377  17.065   5.152 -0.1420 -0.1209  0.1863
11367W        W54358  25.107  17.138  27.222  0.0060 -0.2536 -0.1384
11368W        W54359  32.396   9.475   6.963 -0.0590 -0.3020  0.0152
11369W        W54360  22.670  14.090  24.205 -0.1622 -0.1605  0.0610
11370W        W54361  15.064   4.363  10.860 -0.1255 -0.1502  0.2756
11371W        W54362  14.511  20.921  19.726  0.0681 -0.4679 -0.0453
11372W        W54363   7.926  26.040   1.841 -0.0212 -0.1290 -0.1523
11373W        W54364   0.505  12.203  28.546  0.3714  0.1639  0.1826
11374W        W54365  12.298  22.063  16.245  0.0624  0.1414  0.1932
11375W        W54366  19.446  34.075  19.411  0.1018 -0.0090  0.3211
11376W        W54367  31.879   0.295   1.844  0.2051  0.2684  0.0547
11377W        W54368  29.760   0.621  16.192 -0.2673  0.0433  0.0146
11378W        W54369   6.693  29.984  21.587 -0.0739 -0.4464  0.3036
11379W        W54370  26.483  29.527   3.508  0.5299 -0.1723 -0.0353
11380W        W54371   5.855  32.442   9.611  0.3700  0.2358  0.2209
11381W        W54372  23.914  28.379   4.677 -0.0315 -0.0269 -0.0002
11382W        W54373  26.708  33.799   4.551  0.1495 -0.0460  0.0207
11383W        W54374  27.993   0.153   6.434 -0.0792  0.0856  0.1936
11384W        W54375  30.502  13.575   0.742  0.2288  0.4206 -0.0639
11385W        W54376  34.056  15.994  21.320 -0.2351 -0.1095 -0.2147
11386W        W54377  19.957  26.183  23.747 -0.1799  0.2081 -0.1522
11387W        W54378  24.004  20.329  19.842  0.0317  0.0228 -0.2775
11388W        W54379  24.724   7.802   7.760 -0.1594 -0.0659 -0.2725
11389W        W54380  21.778  34.572  27.269 -0.1955 -0.1134 -0.0581
11390W        W54381   0.875  17.858  16.669  0.0816 -0.2503  0.2178
11391W        W54382  16.259  21.833   0.795  0.2101 -0.1052 -0.1506
11392W        W54383  32.810  29.615  19.280  0.2235  0.2378  0.1810
11393W        W54384  30.292  34.632  16.524  0.1730  0.2589  0.4306
11394W        W54385   9.858  29.247   7.508 -0.4357 -0.1539  0.2025
11395W        W54386   6.128  32.995  18.163 -0.1671 -0.2606  0.0193
11396W        W54387  33.670   4.528  10.115  0.3224  0.2701 -0.1547
11397W        W54388  28.241   3.881   9.032 -0.0639  0.1481  0.2593
11398W        W54389  28.706   3.381  27.165 -0.2643  0.5305 -0.1199
11399W        W54390  26.385  29.690   6.225  0.0722  0.2584  0.2294
11400W        W54391  24.202  28.853  26.761 -0.0119  0.1766  0.0759
11401W        W54392  30.614  27.023   8.952 -0.3864  0.1053 -0.3526
11402W        W54393  23.845  22.739   8.314  0.3339 -0.1158  0.0958
11403W        W54394  31.646  21.751   5.764 -0.1828 -0.2180  0.0173
11404W        W54395  24.857  32.837   2.350  0.0913 -0.2226  0.2521
11405W        W54396  32.192  30.394  24.887 -0.2577  0.0772 -0.0061
11406W        W54397  20.186  26.604  23.684 -0.3899 -0.3231 -0.0836
11407W        W54398   2.184  25.802  23.670  0.1139  0.2320 -0.0207
11408W        W54399  32.895  28.489  16.652  0.0369  0.0714 -0.1531
11409W        W54400  26.262   8.016   3.186  0.3344  0.1801  0.0310
11410W        W54401  19.782  25.239  24.327  0.1186  0.0794  0.1203
11411W        W54402  27.400  29.208  18.625  0.2193  0.1091  0.0738
11412W        W54403   5.516  21.534  14.634  0.0423  0.2827  0.5630
11413W        W54404  24.025   0.298  15.820 -0.0056  0.0204  0.1904
11414W        W54405  25.686  22.801   8.281 -0.1297 -0.1355 -0.0644
11415W        W54406  28.439  11.187  17.430 -0.0370  0.0937  0.4026
11416W        W54407  22.496  32.741   3.043  0.0805 -0.3325  0.0713
11417W        W54408  20.843  22.476  25.616 -0.0787 -0.1824  0.1500
11418W        W54409  23.366   6.613   1.919  0.2356 -0.0377 -0.1346
11419W        W54410  24.218  19.560   2.305 -0.0460  0.3308  0.2935
11420W        W54411   1.327  32.647   4.377  0.5063  0.0263 -0.2203
11421W        W54412  26.378  22.992   6.611 -0.0522 -0.0425 -0.0647
11422W        W54413  28.547  29.376   8.941  0.0287  0.2902 -0.2150
11423W        W54414  12.114  17.727  26.233 -0.0155 -0.0817  0.1475
11424W        W54415  30.758  29.793  25.524  0.1615 -0.0240  0.1415
11425W        W54416   2.399  28.398  17.804 -0.1212 -0.1707 -0.2060
11426W        W54417  10.070  15.727   7.245 -0.0346 -0.0286 -0.1498
11427W        W54418  31.646   2.143   8.921  0.0003 -0.1747 -0.1616
11428W        W54419  12.196  25.508   7.767 -0.2481 -0.1007  0.0615
11429W        W54420  29.197  21.281   4.224  0.0378  0.2192 -0.1631
11430W        W54421  19.897  23.171  26.315 -0.2800  0.2541 -0.1494
11431W        W54422  26.714  29.219   7.727  0.1987 -0.1624  0.2052
11432W        W54423  21.887  11.025  24.338 -0.1143  0.0361 -0.0093
11433W        W54424  14.240  11.233   2.756 -0.0160  0.0843 -0.0262
11434W        W54425  34.314  18.797  24.108 -0.2875  0.1676  0.0296
11435W        W54426   2.284   4.679   2.104 -0.0358  0.3122 -0.3605
11436W        W54427  18.730  23.577  25.005  0.2272  0.0760 -0.0566
11437W        W54428   9.423   8.624   4.116 -0.0265  0.0058 -0.1443
11438W        W54429  21.535   3.714  16.404 -0.0519 -0.1106 -0.1864
11439W        W54430  16.675  31.529  28.525 -0.0723  0.2899 -0.1831
11440W        W54431  20.413  26.998   6.027 -0.1127 -0.3040 -0.0708
11441W        W54432  29.477  32.726  17.595 -0.0634  0.2802 -0.3617
11442W        W54433  32.126  27.970   4.937  0.0431  0.3034  0.1031
11443W        W54434  30.059  16.114  27.836 -0.1125  0.1962  0.2435
11444W        W54435   2.924  21.424  20.427  0.1672 -0.1019 -0.2310
11445W        W54436  13.560  19.837  24.769 -0.0654 -0.2143 -0.1045
11446W        W54437   3.911   6.033  22.593  0.0166  0.0558  0.1167
11447W        W54438  30.153  31.845  14.169 -0.1230  0.0812 -0.3307
11448W        W54439   2.003   4.837  27.636  0.1567  0.0019 -0.1071
11449W        W54440  16.820   8.981   1.675 -0.4646  0.1272 -0.2618
11450W        W54441  22.009   1.789  15.614  0.0491 -0.0082 -0.1957
11451W        W54442  22.694  29.024  19.296 -0.4946 -0.1794  0.2688
11452W        W54443  18.910  24.113   1.080 -0.0279 -0.0580  0.1091
11453W        W54444  25.015  21.939  20.867  0.0865 -0.1319  0.1587
11454W        W54445  14.100  28.269   0.246 -0.0699  0.1922 -0.1915
11455W        W54446   1.538  22.681  15.093 -0.1994 -0.1291  0.0383
11456W        W54447  27.896  22.864   8.934 -0.0909  0.0321  0.3128
11457W        W54448   4.612   0.610   2.543 -0.0038 -0.1402 -0.1716
11458W        W54449   2.854   8.840  25.516 -0.0672  0.4849  0.4242
11459W        W54450  26.204  13.390  27.244 -0.1896  0.2768  0.0187
11460W        W54451  16.888   8.511   0.510 -0.2417  0.0894 -0.0643
11461W        W54452  18.258  14.246  28.012 -0.1595 -0.1418 -0.2398
11462W        W54453   2.428  33.668   1.344  0.0554 -0.0967 -0.2625
11463W        W54454  21.448  26.944   1.900  0.0401 -0.2210  0.0872
11464W        W54455   0.306   1.949  16.031  0.4068  0.2003 -0.0810
11465W        W54456  12.286  14.754   3.271 -0.1043 -0.0471  0.2055
11466W        W54457  15.344   5.165  19.785  0.2661 -0.1407  0.1963
11467W        W54458   1.992  19.226   0.349 -0.0674 -0.2142  0.0758
11468W        W54459  20.382  27.145  26.419 -0.2269 -0.4066 -0.0405
11469W        W54460   6.107  29.186  19.631 -0.1208  0.1578 -0.1945
11470W        W54461   4.492  15.603  19.216 -0.2473 -0.0685 -0.1282
11471W        W54462  27.383   8.209  19.087 -0.3263 -0.2131 -0.2626
11472W        W54463   2.981  30.249   7.405 -0.3081 -0.1983  0.2308
11473W        W54464  30.714  31.030  28.855 -0.0422  0.1660  0.0120
11474W        W54465  23.696   2.078   4.866  0.2950  0.1496 -0.2759
11475W        W54466  24.685  14.013  15.492  0.0833  0.0932 -0.2850
11476W        W54467  32.721  26.246  22.865 -0.1992  0.0600 -0.1538
11477W        W54468  20.769  20.064  15.200 -0.0284 -0.1732  0.0377
11478W        W54469  22.639  22.843  21.415 -0.4074  0.0393  0.1682
11479W        W54470  29.077   7.684  22.815 -0.2331 -0.0609 -0.3606
11480W        W54471  28.874  22.981   5.344  0.1553  0.1083  0.0925
11481W        W54472  28.626  26.564   7.878  0.2386  0.3148  0.2319
11482W        W54473  19.667   3.643   5.241  0.1236  0.0149  0.2138
11483W        W54474  33.980  20.396   9.929 -0.0128 -0.0171 -0.0701
11484W        W54475  24.038  12.678  26.430  0.1019  0.1191  0.1200
11485W        W54476  17.844  10.603  26.861 -0.2121 -0.1688  0.0280
11486W        W54477   8.649   3.176   4.474  0.2017  0.0772  0.0331
11487W        W54478  18.080  16.540  27.644  0.0565  0.3166  0.2604
11488W        W54479  25.409  29.522  14.822 -0.2707  0.4144  0.1521
11489W        W54480  17.450  20.014  22.054 -0.0260  0.0124 -0.1492
11490W        W54481  19.631  20.593  27.339 -0.2222  0.0397  0.1992
11491W        W54482  17.242   2.289   9.964 -0.0871 -0.0049 -0.3369
11492W        W54483  28.770   2.014  27.868  0.3384 -0.0506 -0.3168
11493W        W54484  11.654  27.080   9.873 -0.0731  0.0025  0.0588
11494W        W54485   4.463   2.343  27.269 -0.1729 -0.2051 -0.2020
11495W        W54486  12.339   0.855  20.349  0.0018 -0.0591  0.0717
11496W        W54487  25.060  31.869  23.837 -0.0422 -0.2742  0.0292
11497W        W54488   2.115  25.100  25.930  0.2485 -0.1178  0.1159
11498W        W54489  30.714   0.210   1.964  0.1224 -0.1593 -0.2952
11499W        W54490   3.240  30.976  18.221 -0.1258  0.0846 -0.0903
11500W        W54491  17.673  14.392  28.638  0.1209  0.2376  0.0746
11501W        W54492  23.141  24.058   0.389 -0.0870 -0.1024 -0.0997
11502W        W54493  28.868  30.085  26.801  0.0561  0.1762 -0.2971
11503W        W54494  34.724  24.894   9.189 -0.0235  0.1131 -0.2387
11504W        W54495  16.105  13.062   0.850 -0.1264 -0.0760  0.0019
11505W        W54496   9.970   6.158  25.422  0.0810 -0.1250  0.2548
11506W        W54497  16.788   2.277   3.254 -0.2827  0.0754 -0.3061
11507W        W54498  34.682  28.305   8.205  0.3564  0.0706 -0.0659
11508W        W54499   5.010  34.346  20.330 -0.0187 -0.0465  0.0683
11509W        W54500  30.201  33.757   9.024 -0.2513 -0.1783 -0.3446
11510W        W54501  27.288  24.295   6.823  0.2176  0.1839  0.3882
11511W        W54502  13.414  21.019  19.207  0.0339  0.0644 -0.2026
11512W        W54503  32.371  25.010   0.675 -0.0561  0.0286  0.0543
11513W        W54504  19.635   1.771   3.576  0.2497  0.2782  0.0245
11514W        W54505  11.947  24.328   1.157 -0.0468  0.1868 -0.2576
11515W        W54506  30.628   5.684  16.209  0.3916  0.0408 -0.0173
11516W        W54507  32.413  31.498  18.670  0.0202  0.0797  0.0672
11517W        W54508  28.848  13.662  16.352  0.0433 -0.1698 -0.0597
11518W        W54509  12.254   5.694  22.628 -0.5112 -0.0248  0.2234
11519W        W54510  12.112   7.434   4.472  0.0281 -0.2628 -0.0341
11520W        W54511  18.483   0.462  19.702 -0.3316 -0.2414  0.2039
11521W        W54512  11.207  18.638  26.959 -0.0850 -0.1498  0.4429
11522W        W54513  30.382   6.635   0.482 -0.0388 -0.2196 -0.0292
11523W        W54514  19.882   1.139  21.100  0.2868  0.1728  0.0697
11524W        W54515  17.461  23.238  19.071  0.0007 -0.0427 -0.2552
11525W        W54516  17.475  12.435   8.199  0.6086 -0.0963 -0.0797
11526W        W54517  15.140  17.138   3.609  0.0589 -0.0149  0.0117
11527W        W54518   3.982  29.079   6.002 -0.1027  0.0791 -0.0871
11528W        W54519   2.908  16.492  24.021 -0.2874  0.0925 -0.2182
11529W        W54520  17.147   2.401  17.778 -0.1152  0.2561 -0.1550
11530W        W54521  14.187  26.326   5.553 -0.1476 -0.3228  0.3351
11531W        W54522  17.542  26.169  23.018  0.0315 -0.0398  0.1977
11532W        W54523  18.462  30.360   8.108  0.1322 -0.1741 -0.0562
11533W        W54524  13.951  32.183   8.655  0.1732 -0.0898 -0.0368
11534W        W54525   4.041  22.175   9.629  0.1161 -0.4097  0.0555
11535W        W54526  20.877   6.930  19.190  0.1971 -0.2363 -0.3732
11536W        W54527   9.214  26.676   4.604  0.2908 -0.0340  0.0712
11537W        W54528  19.442  14.120  22.590 -0.2155 -0.0435  0.0302
11538W        W54529  31.841  25.675  16.866 -0.1092  0.2261 -0.3433
11539W        W54530   0.144  19.000  19.472  0.0444  0.1999 -0.1943
11540W        W54531  16.532  11.681  20.384  0.0522 -0.0293  0.1688
11541W        W54532  24.703  22.570  27.375  0.1565  0.2190 -0.3273
11542W        W54533  32.141   7.415   5.520 -0.0287  0.1799  0.1671
11543W        W54534  19.383  25.578  16.443 -0.4146  0.0356  0.1203
11544W        W54535  30.220  19.183  20.713 -0.0149 -0.1581  0.2620
11545W        W54536  17.968  23.940  16.646  0.0282 -0.2977  0.0687
11546W        W54537  31.115  20.551   0.035 -0.0043 -0.1667  0.0514
11547W        W54538  34.586  16.217  26.950  0.1019 -0.1343  0.2859
11548W        W54539  12.373  30.110  13.785  0.2172  0.2975 -0.0689
11549W        W54540  22.631  28.738  20.604 -0.2571  0.0940 -0.0069
11550W        W54541  20.419  25.698  16.848 -0.0095 -0.1721 -0.1131
11551W        W54542  16.428   1.689   7.772  0.0834  0.5018  0.0304
11552W        W54543  12.520  25.058  23.274  0.0531 -0.0831 -0.0699
11553W        W54544  19.002  27.929   4.152 -0.0051  0.1909 -0.2212
11554W        W54545  32.384  21.185  22.949 -0.0603 -0.1558  0.1871
11555W        W54546  23.907   2.534  25.423  0.0213 -0.1777  0.0863
11556W        W54547   5.873  31.184   7.754  0.1894 -0.2119 -0.1781
11557W        W54548  33.960  26.641  19.008 -0.0717 -0.0463 -0.0666
11558W        W54549  24.574  34.108   8.381  0.1447  0.0592 -0.1197
11559W        W54550  28.875   4.533   1.078 -0.1850 -0.1247  0.1616
11560W        W54551  23.725  26.881  27.572  0.1009 -0.1331  0.2309
11561W        W54552  24.761  27.376  15.969  0.1571  0.2859 -0.0587
11562W        W54553   3.431  19.477  21.314  0.1940  0.1314  0.1678
11563W        W54554  29.036   8.270  13.488 -0.0264 -0.2766  0.0647
11564W        W54555  21.848  15.147  20.486 -0.2270 -0.2387 -0.1311
11565W        W54556  28.698  27.561   3.973  0.0718  0.0308  0.1852
11566W        W54557   6.444  29.017  20.048  0.1142 -0.0450 -0.1432
11567W        W54558  29.784  33.241   6.223 -0.4072 -0.2672  0.2844
11568W        W54559  22.719  12.069  26.186  0.1127 -0.1534  0.0649
11569W        W54560  22.712   4.661  17.788  0.1185  0.0503  0.0765
11570W        W54561  22.877  32.294  18.184 -0.0687  0.0377 -0.1128
11571W        W54562  32.990  31.463  27.350 -0.1515 -0.1257 -0.0016
11572W        W54563   1.146  20.895  21.254 -0.0118  0.0379  0.0170
11573W        W54564  20.087  20.331   4.253  0.6035  0.2973 -0.2406
11574W        W54565  11.025  34.355  17.338  0.0019 -0.3377 -0.2808
11575W        W54566  32.239  28.424  19.353 -0.1592 -0.0242  0.0259
11576W        W54567  25.342   0.642  25.771  0.0262  0.0823 -0.2541
11577W        W54568  19.843  26.405  16.450  0.0909 -0.2471  0.3241
11578W        W54569  22.415  33.598  25.498 -0.0807 -0.0329 -0.0191
11579W        W54570  16.572  17.087  14.702 -0.0508  0.2905  0.0966
11580W        W54571  15.841  30.461  28.438  0.1248 -0.2237  0.0204
11581W        W54572  29.985  24.351  28.400 -0.1078 -0.2979 -0.0121
11582W        W54573  24.655  30.935  13.956 -0.0220 -0.2287 -0.0287
11583W        W54574   3.847   4.631  25.584 -0.1607 -0.1189  0.1275
11584W        W54575  23.434  26.105  14.272  0.1129  0.2906 -0.0745
11585W        W54576  17.688  11.104  25.529 -0.1803  0.0539  0.0498
11586W        W54577   0.006  21.509  26.960 -0.1198  0.0132 -0.1182
11587W        W54578   6.247  21.945   3.451  0.1543  0.2755  0.1541
11588W        W54579  29.880  16.837   6.347  0.3243 -0.4506 -0.0509
11589W        W54580  29.228   9.953  25.012  0.2365 -0.1990  0.1211
11590W        W54581  16.223  23.496  26.570  0.0315 -0.1804 -0.0186
11591W        W54582   6.929  28.861  20.273 -0.6649  0.1450 -0.2787
11592W        W54583  12.242  25.445   6.643 -0.1971 -0.0351 -0.0174
11593W        W54584  23.101   7.953   3.514 -0.0604 -0.0028  0.0009
11594W        W54585   4.731  14.072  22.407  0.0591  0.1600  0.1780
11595W        W54586   3.750   1.227   0.486 -0.1669  0.1578 -0.0461
11596W        W54587   5.002  11.456   4.282  0.2534  0.0584 -0.1370
11597W        W54588  26.857  34.435  28.407 -0.2928 -0.1134  0.0377
11598W        W54589  16.308  22.826   1.895  0.0660  0.1588 -0.0160
11599W        W54590  30.122  27.789   6.282 -0.0475  0.1064  0.0579
11600W        W54591  15.721  32.603   8.819  0.2936  0.4510 -0.0404
11601W        W54592  31.806   4.421  19.556  0.1468 -0.0809  0.0758
11602W        W54593  20.395  30.248   3.261 -0.0014 -0.2810  0.0527
11603W        W54594  19.794   0.068   2.776  0.0196  0.1118 -0.1468
11604W        W54595  20.638   1.863  17.517 -0.0675 -0.0438 -0.4129
11605W        W54596  29.689  28.950  24.989  0.0832  0.0252  0.0019
11606W        W54597  11.042   5.262  25.685  0.2774  0.1580  0.0189
11607W        W54598  23.589  23.106   0.111  0.0702  0.0242  0.0081
11608W        W54599  22.888  20.723  24.832 -0.1585 -0.0757 -0.1474
11609W        W54600  28.801  22.107  25.199 -0.1495 -0.0062  0.1888
11610W        W54601  23.327  26.972   5.731  0.0612  0.0518  0.4161
11611W        W54602  30.161  27.437  26.223  0.0366 -0.0111 -0.3922
11612W        W54603  32.651   3.308   6.339  0.0960 -0.0967  0.0727
11613W        W54604  31.900  28.664  17.625  0.1667 -0.1516  0.0826
11614W        W54605  33.311   5.474  26.975  0.0109 -0.0801 -0.0553
11615W        W54606  25.770   3.709  25.897 -0.1181 -0.0600  0.3452
11616W        W54607  12.236  30.995   0.843  0.4972 -0.2313 -0.2107
11617W        W54608  19.900  25.165  29.163  0.1713  0.1655 -0.0702
11618W        W54609   6.264  33.758  17.709 -0.1380 -0.0589  0.0627
11619W        W54610  34.426   2.340  25.691 -0.2145 -0.0009  0.0258
11620W        W54611  19.611  31.141   4.143 -0.0961 -0.1532  0.0107
11621W        W54612   6.425  32.168   0.725 -0.0476 -0.2601 -0.1575
11622W        W54613  17.525  21.571  17.515  0.1097 -0.2214 -0.4816
11623W        W54614  14.249   9.659  23.040  0.0611 -0.0916 -0.0866
11624W        W54615   9.837   3.096   2.619  0.0852  0.2736  0.0543
11625W        W54616   1.815  19.635  21.998 -0.0005  0.1364 -0.1631
11626W        W54617   1.510  27.446  15.559  0.0373  0.0422  0.1910
11627W        W54618  14.170  20.926  27.522 -0.0624  0.0094 -0.1869
11628W        W54619  12.132  12.665  19.341  0.5936 -0.0678  0.2175
11629W        W54620  15.629  29.052  28.843 -0.3597 -0.0003 -0.2467
11630W        W54621  29.469   0.632   4.303  0.2263 -0.0350  0.2163
11631W        W54622  20.200   5.397  14.566  0.0401  0.1752  0.0833
11632W        W54623   8.402  11.410   4.257 -0.0783 -0.0316  0.0303
11633W        W54624  22.435  33.155  20.927  0.1989  0.1678  0.2351
11634W        W54625  24.033  21.031   8.040  0.1632 -0.1242 -0.0169
11635W        W54626  14.051  25.327  19.212  0.3384 -0.1003  0.1462
11636W        W54627  11.130  25.320   2.992  0.0482  0.3989  0.1758
11637W        W54628  27.401   7.832  20.599 -0.2472 -0.2101 -0.0810
11638W        W54629  19.821  13.515   7.717  0.0430  0.0631 -0.1274
11639W        W54630  34.549   1.937   4.193 -0.1948  0.0307 -0.1840
11640W        W54631   3.726  18.844  17.393 -0.0745 -0.0374  0.1736
11641W        W54632  11.493  28.302  23.001 -0.0774 -0.2591 -0.0952
11642W        W54633  20.826  32.369  18.223 -0.1082 -0.3799 -0.0596
11643W        W54634  17.362  29.221  27.956 -0.1794  0.0876 -0.2138
11644W        W54635  13.051  10.738  25.800  0.2501 -0.0783 -0.2160
11645W        W54636  21.268  23.318  24.200 -0.2224 -0.0760 -0.0635
11646W        W54637  20.491  19.990   7.728  0.2259  0.2680  0.0284
11647W        W54638  16.758  32.056   4.745  0.2827  0.0490 -0.0751
11648W        W54639  32.602  11.327  26.711  0.2311  0.0968 -0.4198
11649W        W54640   4.158  19.802   3.678  0.3387  0.1578 -0.0727
11650W        W54641  10.045  24.859   3.801 -0.2041 -0.0412 -0.1591
11651W        W54642  17.877   6.030  28.461  0.1770 -0.0344 -0.4861
11652W        W54643   2.433  21.572  16.250 -0.1250 -0.0937 -0.2353
11653W        W54644  22.294  30.993  16.380 -0.0079  0.0996  0.1790
11654W        W54645  27.831   5.770   5.595  0.1932 -0.1295 -0.1593
11655W        W54646  30.719   4.830  27.865  0.3195  0.0526  0.0642
11656W        W54647  26.541  25.908   3.901  0.0781  0.0413  0.2927
11657W        W54648  27.497  13.367  26.601  0.1768 -0.2611  0.0632
11658W        W54649  20.795  34.391  22.724 -0.2039 -0.0224  0.2668
11659W        W54650  27.973  17.254   7.191 -0.1277  0.2748 -0.4599
11660W        W54651  30.249   0.290  24.995 -0.5264  0.0985 -0.0643
11661W        W54652  30.048  21.241  25.529  0.1750  0.0366  0.0269
11662W        W54653  17.105  26.758   2.639  0.2526 -0.1930  0.2574
11663W        W54654  10.987  18.355  19.265  0.1262  0.1517 -0.1029
11664W        W54655  13.306  21.831  27.090  0.1258  0.3661 -0.1168
11665W        W54656   3.261  32.399  27.271  0.2330  0.1077  0.1306
11666W        W54657  18.237  23.082   5.378  0.0185  0.0291 -0.0668
11667W        W54658   1.324  23.365  25.339  0.1593 -0.3523 -0.2887
11668W        W54659  20.966  21.622   2.721 -0.0423 -0.1272 -0.0716
11669W        W54660  21.117   8.169  27.236  0.0569 -0.0389 -0.1693
11670W        W54661  27.106  15.346   1.282  0.3385  0.0559 -0.1600
11671W        W54662  22.081  15.859   6.696  0.2151  0.2130  0.2421
11672W        W54663  18.579   0.605   9.019 -0.0780  0.0103  0.0383
11673W        W54664  30.207  21.725   5.685 -0.3451  0.0069 -0.0947
11674W        W54665  24.050  27.292  13.758  0.0740  0.1181  0.0768
11675W        W54666  33.376   3.069  25.891 -0.0835  0.3624 -0.0059
11676W        W54667  26.426  23.191  23.367 -0.4035  0.0630 -0.5251
11677W        W54668  28.545   5.333  29.086 -0.3994 -0.1606  0.2392
11678W        W54669  19.662  30.297   4.679 -0.1301 -0.2282 -0.1091
11679W        W54670  29.183  24.837  19.403  0.0148  0.3110  0.1106
11680W        W54671  10.813  29.566   5.320  0.1612  0.1262 -0.2691
11681W        W54672  21.006  30.271  16.591  0.2307  0.0350  0.0180
11682W        W54673  29.118   9.857  26.139 -0.1773 -0.2612  0.1409
11683W        W54674  29.893  23.010  17.337  0.1782  0.3899 -0.1546
11684W        W54675   3.297  34.316  27.159  0.3516 -0.3118  0.0433
11685W        W54676   2.521  30.522   5.750  0.3207  0.1421 -0.0474
11686W        W54677  32.425  26.142  23.250 -0.0156 -0.3896  0.3483
11687W        W54678  13.390  20.037   7.839  0.1356 -0.2016 -0.0530
11688W        W54679  31.029  30.553  27.771  0.1893  0.4211 -0.2462
11689W        W54680  15.800  18.448   6.305 -0.1481  0.0409  0.5043
11690W        W54681  17.953  28.950  24.188  0.0536  0.2544 -0.0204
11691W        W54682  11.765  18.880   1.620  0.0611  0.0446  0.1857
11692W        W54683  23.395  19.151  26.141  0.0125  0.0267 -0.0076
11693W        W54684  32.409   1.623  26.054  0.0492 -0.3263  0.2944
11694W        W54685   9.579  24.906   4.906 -0.1405  0.2151  0.3347
11695W        W54686  14.084  16.936  22.824 -0.0128  0.1165 -0.0813
11696W        W54687  34.519  30.239  27.685  0.1870  0.0158  0.0502
11697W        W54688  30.766  29.786   0.319 -0.1206 -0.1724  0.1590
11698W        W54689   4.092   5.425  16.072 -0.1554  0.4037  0.0481
11699W        W54690   6.628   2.301  20.827 -0.0118 -0.1261 -0.0327
11700W        W54691   7.212  22.562   5.649 -0.2117 -0.2325  0.0735
11701W        W54692  14.855  27.551  28.921  0.0620 -0.0300 -0.0936
11702W        W54693  18.206  31.065  29.059 -0.1973 -0.0084  0.1234
11703W        W54694  17.224  19.747  23.147 -0.1550 -0.1126  0.0480
11704W        W54695  33.368  33.564   7.266  0.3036 -0.5063 -0.3143
11705W        W54696  33.225  14.545   0.147  0.0608  0.3256 -0.2839
11706W        W54697  25.509  14.820   1.990  0.2959  0.0474  0.0301
11707W        W54698  23.986  32.664   7.836  0.0777  0.2981  0.3369
11708W        W54699  23.851   9.259   5.675 -0.3713 -0.1309 -0.3029
11709W        W54700   3.172  23.051   1.697  0.0546  0.2014 -0.0748
11710W        W54701  28.678  26.457  21.255 -0.2055  0.0037 -0.2295
11711W        W54702  28.635  26.712   6.112  0.4497  0.4953 -0.0731
11712W        W54703  14.265  17.555  28.176 -0.1022 -0.0421 -0.1568
11713W        W54704  31.839   2.170  24.917 -0.0326  0.1295 -0.1887
11714W        W54705   6.091  17.500   6.882  0.0306  0.1261 -0.0099
11715W        W54706  31.788  25.800   4.263 -0.1638 -0.0656  0.4272
11716W        W54707  28.927  18.709   7.602 -0.1732  0.1854  0.0080
11717W        W54708   1.194  26.209   4.949 -0.1611  0.0859  0.1102
11718W        W54709  20.376  20.906  13.568  0.1530  0.0347  0.3181
11719W        W54710  26.507  25.049   6.812 -0.4060 -0.0770  0.1245
11720W        W54711  27.195  15.310  18.059  0.0838  0.0046  0.0587
11721W        W54712  13.411  10.584   5.837 -0.0767  0.3417  0.1362
11722W        W54713   2.717  12.073  26.542 -0.3476  0.2117 -0.3141
11723W        W54714  33.444  31.336  26.121 -0.0236  0.0950 -0.0010
11724W        W54715  22.694  20.564   1.908  0.1851  0.1143 -0.2651
11725W        W54716  23.411   7.102  22.203 -0.2817 -0.1655 -0.2280
11726W        W54717  18.425  29.134  21.673 -0.4110  0.3751  0.0997
11727W        W54718  27.727  30.363   7.382 -0.1021 -0.0902 -0.0038
11728W        W54719  34.074  26.185   8.509  0.0580  0.2337  0.1010
11729W        W54720  28.185   7.020   1.663  0.0513  0.0077 -0.1503
11730W        W54721  24.550  26.438  17.535  0.1196  0.1382  0.1637
11731W        W54722  17.089  29.937  15.732 -0.1174  0.2150  0.0546
11732W        W54723  30.096   1.201  23.162 -0.1885 -0.1246  0.2615
11733W        W54724   9.779  28.339   7.225 -0.2598  0.4068 -0.2015
11734W        W54725   3.977  22.505  20.993  0.0030  0.2454 -0.0813
11735W        W54726  20.713  28.344   5.174 -0.0571  0.2018 -0.0493
11736W        W54727  11.690  26.404   1.460 -0.1082 -0.1479 -0.1251
11737W        W54728   2.932  25.097  28.155 -0.1279  0.0534  0.1130
11738W        W54729  10.716  27.803   8.952 -0.0144  0.3964  0.0717
11739W        W54730  18.098   1.364  21.163 -0.2801  0.1323 -0.2271
11740W        W54731   9.637  31.302   4.652 -0.1888 -0.1209  0.2893
11741W        W54732  23.432  11.544  27.996  0.0156 -0.2300 -0.0100
11742W        W54733  11.582  20.442  27.626 -0.1053  0.1957  0.1709
11743W        W54734  31.943   8.723   7.456  0.0590 -0.1058 -0.2407
11744W        W54735  24.169  22.108   3.432 -0.2671 -0.0506 -0.2531
11745W        W54736   8.218  22.254   4.260  0.0237 -0.2022 -0.0352
11746W        W54737  31.165  23.987  17.717 -0.1094  0.0227 -0.3509
11747W        W54738  27.217  16.010  19.609 -0.0405 -0.1001 -0.0204
11748W        W54739  13.629  26.297   3.827  0.1644 -0.0863 -0.0007
11749W        W54740  14.638  34.010  16.324  0.1989  0.1316 -0.0377
11750W        W54741   2.129  20.375  23.804  0.0709  0.3254 -0.3036
11751W        W54742  32.573  32.693  15.092 -0.1330  0.2405  0.1181
11752W        W54743  21.688  12.680  13.483 -0.2752  0.4378 -0.0551
11753W        W54744  20.764   9.620  19.249  0.0965 -0.1579  0.1879
11754W        W54745  14.655  16.725  17.506 -0.1935  0.0803  0.2053
11755W        W54746  31.268  25.410  15.042  0.0772 -0.0923  0.1390
11756W        W54747  14.135   6.519  17.345 -0.2051 -0.2267  0.1318
11757W        W54748  22.025  16.005  15.574 -0.0820  0.2635 -0.0450
11758W        W54749  16.497  30.291  19.022  0.1373  0.1903 -0.0333
11759W        W54750  29.172   8.221  17.171 -0.2456 -0.0008 -0.1380
11760W        W54751  19.758  27.049  23.573 -0.1923  0.2525 -0.0460
11761W        W54752  33.878  26.304  20.208  0.1057 -0.2064  0.3060
11762W        W54753   6.528  27.601  16.765  0.0576  0.1096 -0.1024
11763W        W54754  13.910  23.461  26.948 -0.0181 -0.0021 -0.0761
11764W        W54755  27.928   3.580  25.609 -0.1454  0.0872  0.1904
11765W        W54756  32.030  24.200   2.150  0.2669  0.0928 -0.1932
11766W        W54757  27.565  28.848  18.291  0.3530  0.1411 -0.0545
11767W        W54758  13.715  21.517  18.388 -0.1173  0.0970 -0.3376
11768W        W54759   9.800  33.603  15.863 -0.0785 -0.2521 -0.0661
11769W        W54760  24.592  13.270  17.128 -0.0456 -0.1001  0.1626
11770W        W54761  23.438  24.246  13.714  0.1630 -0.1800 -0.1028
11771W        W54762   5.469  26.412  19.818 -0.1983  0.1423  0.0309
11772W        W54763  11.521   3.113   2.737  0.1381 -0.0582  0.2097
11773W        W54764  28.198  27.377  23.622  0.0035  0.1415 -0.0575
11774W        W54765  27.379  30.134  21.654 -0.0371  0.2108  0.3268
11775W        W54766   8.662   4.429  26.404  0.2231 -0.1654  0.0819
11776W        W54767  10.898   5.922  27.184  0.0830 -0.3497 -0.3225
11777W        W54768  24.538   3.200  23.161 -0.0972 -0.0603 -0.0224
11778W        W54769  28.832  23.209  18.095  0.2633  0.5538 -0.1256
11779W        W54770  33.712   3.985  21.425 -0.0522 -0.1467  0.1845
11780W        W54771  24.853   3.718  16.749 -0.2378  0.1988  0.3269
11781W        W54772  14.445   5.260  21.666  0.0719  0.0430 -0.0876
11782W        W54773  28.260  33.645  14.061  0.0788 -0.1692 -0.4483
11783W        W54774   4.790  24.869  18.183 -0.4028 -0.4443 -0.0797
11784W        W54775  22.244   2.009  21.521  0.3406  0.0927  0.0521
11785W        W54776   6.439   0.583   1.218  0.0173 -0.1169 -0.5330
11786W        W54777  25.865  25.232  17.544 -0.2570 -0.0191  0.0093
11787W        W54778   0.562  31.146  22.601  0.0232  0.2571 -0.1619
11788W        W54779  24.245   1.240  14.362 -0.0973 -0.0504  0.2234
11789W        W54780  31.062  30.749  19.181  0.1054  0.0817 -0.1439
11790W        W54781  19.170  21.755  19.222 -0.1849  0.2028 -0.2228
11791W        W54782  30.782  30.956  28.381 -0.1775 -0.0881 -0.0245
11792W        W54783  13.578   4.541  23.495 -0.1246 -0.2135 -0.1828
11793W        W54784  20.676  28.135  22.905  0.0418 -0.1621 -0.0266
11794W        W54785   2.010  21.772  14.076 -0.1140 -0.2694 -0.1595
11795W        W54786  24.776  32.287   9.688 -0.1571  0.1720 -0.1981
11796W        W54787   5.901  22.594  18.020 -0.0139  0.1963 -0.1055
11797W        W54788   6.566  24.316  25.545 -0.4244 -0.4092 -0.1887
11798W        W54789   4.665  26.099  17.746 -0.0206 -0.2953  0.1332
11799W        W54790  13.918  33.999  19.071  0.0055  0.1235  0.1761
11800W        W54791  21.296   1.053  26.995 -0.1817  0.0809  0.3912
11801W        W54792  33.766  14.046  21.088 -0.2165 -0.1088  0.0795
11802W        W54793  23.377  16.799  15.485 -0.0142  0.0946 -0.2837
11803W        W54794   3.401  11.062  25.888  0.1357  0.1366  0.1752
11804W        W54795   5.099  14.657  18.910 -0.0639 -0.2435  0.5152
11805W        W54796  26.853  20.680  20.474  0.1628 -0.0637  0.4635
11806W        W54797  27.247   0.304  13.554  0.3611 -0.1440  0.0032
11807W        W54798   3.927  34.518  20.665 -0.0331 -0.1132  0.1846
11808W        W54799  20.807  26.504  24.737 -0.0670  0.0704 -0.1603
11809W        W54800  31.111  27.696  21.241 -0.0374  0.2886  0.2191
11810W        W54801  18.682  20.929  21.659  0.2333  0.3897  0.1564
11811W        W54802  10.200  27.138  19.803  0.1224 -0.2525 -0.1342
11812W        W54803  10.750  32.402   4.117 -0.0904 -0.1758  0.3716
11813W        W54804  23.107  20.923  15.640  0.1881  0.4326  0.3016
11814W        W54805  19.756   6.301  16.183 -0.1786  0.0570  0.0724
11815W        W54806  25.571  28.564  15.168  0.1964 -0.3466 -0.1276
11816W        W54807  27.623  12.045   1.501  0.1124 -0.0377 -0.0212
11817W        W54808  19.901  31.621  28.473 -0.2086 -0.0883 -0.0164
11818W        W54809  29.277   9.881  20.206 -0.1420  0.2440  0.1316
11819W        W54810  33.669   3.466  22.828  0.0601  0.4129  0.1389
11820W        W54811  26.747   3.460  21.283  0.0659 -0.0058 -0.1783
11821W        W54812  10.608  14.811  19.284 -0.1069  0.1038  0.1373
11822W        W54813  25.849   0.979  16.714  0.1137 -0.2406 -0.2659
11823W        W54814  16.865  19.108  13.743 -0.0240  0.2322 -0.0623
11824W        W54815  24.938   6.585  24.089 -0.0212 -0.0749 -0.2991
11825W        W54816   1.146  31.951  16.337 -0.1938 -0.1346  0.0396
11826W        W54817  23.073   4.424  19.656 -0.0556 -0.0482 -0.0772
11827W        W54818  19.038  22.806  16.290  0.0833 -0.0825 -0.1121
11828W        W54819   8.537   7.405  28.117 -0.1944  0.1305  0.0515
11829W        W54820  24.374  30.824  14.323 -0.0936 -0.0644 -0.2867
11830W        W54821  22.419  32.895  23.579  0.2792  0.0725  0.2264
11831W        W54822  25.176   2.684  27.577  0.1162 -0.1289  0.3235
11832W        W54823   0.405  32.811  22.133 -0.1819 -0.0472  0.0637
11833W        W54824  19.045  19.877  21.539 -0.0301  0.0119 -0.2345
11834W        W54825  10.371   8.743  15.707 -0.0955  0.2145  0.2636
11835W        W54826  12.320  23.724  16.258 -0.1622  0.0599  0.1829
11836W        W54827  23.079  22.803  22.562  0.1887  0.2732 -0.0572
11837W        W54828  17.147  31.275  17.026 -0.4649 -0.3236 -0.2692
11838W        W54829  30.235   1.445  16.853 -0.1745  0.0601 -0.1282
11839W        W54830  29.049   4.981  24.381  0.0710 -0.0567 -0.0434
11840W        W54831  17.707  20.666  23.461 -0.0542 -0.2542 -0.0352
11841W        W54832   3.419  10.522  21.355  0.3742 -0.0606 -0.0748
11842W        W54833  12.544  24.369  19.177 -0.2485  0.3089 -0.1142
11843W        W54834  25.684  22.494  13.200 -0.1465 -0.2385  0.0581
11844W        W54835  29.694  31.698  18.044 -0.4170 -0.1357  0.1705
11845W        W54836  17.403   6.998  15.860  0.2452  0.0713 -0.1720
11846W        W54837  17.545  17.319  25.044 -0.0976 -0.1116  0.3158
11847W        W54838  31.826  33.674  16.624  0.0961 -0.0435 -0.3549
11848W        W54839  31.216   7.082  24.258 -0.1230 -0.2323  0.0800
11849W        W54840  20.585  30.806  22.822 -0.2609 -0.1581  0.3283
11850W        W54841  21.694  26.932  17.267  0.2427 -0.1427 -0.0069
11851W        W54842  19.093  29.485  19.266 -0.1953  0.2044  0.2216
11852W        W54843  31.863  23.332  19.425 -0.1254  0.3790 -0.2366
11853W        W54844  32.703  28.995  26.126 -0.1795  0.0770 -0.3514
11854W        W54845   5.188  31.445  24.567 -0.3254 -0.2480  0.0083
11855W        W54846   2.189   5.596  23.807  0.2458 -0.0396  0.0068
11856W        W54847  31.535  33.756  15.004 -0.5194  0.5120  0.1608
11857W        W54848  23.443  30.980  21.095 -0.1206  0.0006 -0.0138
11858W        W54849  23.454   2.512  17.639  0.1048 -0.1820 -0.0095
11859W        W54850  17.848   0.344  28.667 -0.2244  0.0688  0.0265
11860W        W54851  11.943  33.583  15.837  0.1887  0.4118  0.1760
11861W        W54852   9.081  34.213  14.729  0.0431  0.0878  0.3405
11862W        W54853  11.179   5.515  16.883  0.5001  0.2181  0.1525
11863W        W54854  31.367   8.952  21.166  0.2057 -0.1764  0.1288
11864W        W54855  23.387  24.781   3.109 -0.0261  0.2424  0.2355
11865W        W54856  21.394  21.116  24.465  0.0688 -0.0304 -0.2363
11866W        W54857  16.188   0.787  20.222  0.1949 -0.0162 -0.3996
11867W        W54858  24.290  27.091  14.142 -0.0966  0.1184 -0.3422
11868W        W54859  15.379  19.913  24.287  0.2600  0.1065  0.0426
11869W        W54860  25.695   1.271  21.583  0.0559  0.1378 -0.0165
11870W        W54861  29.481  12.846  23.439  0.1958  0.0610 -0.1592
11871W        W54862  32.395  28.040  16.037  0.1601 -0.1787 -0.1577
11872W        W54863  18.528  25.939  15.461 -0.4215  0.0587  0.2057
11873W        W54864   0.690  20.203  16.007 -0.0176  0.1090 -0.1869
11874W        W54865  27.734  29.278  18.995 -0.0952  0.0108 -0.0890
11875W        W54866   3.221  24.792  23.450  0.0472 -0.4788 -0.0357
11876W        W54867  31.995  34.038  26.545  0.2091  0.0248  0.2922
11877W        W54868  29.667  25.862  14.801  0.2092 -0.0872  0.0994
11878W        W54869  22.909  13.325  21.526  0.1569 -0.3487 -0.3027
11879W        W54870  17.964  27.133  21.690  0.1022 -0.0752  0.0027
11880W        W54871  22.424  29.043  15.861  0.0743 -0.3403  0.2810
11881W        W54872  28.530  32.486  13.000 -0.1591  0.2029  0.2386
11882W        W54873  16.251  32.220  23.590 -0.2664  0.1380  0.1340
11883W        W54874  28.365  25.357  18.899  0.1623 -0.0602  0.1947
11884W        W54875   1.082  27.269   6.614  0.1670  0.0797  0.2579
11885W        W54876  18.650  27.053  14.029  0.0438  0.1573  0.2177
11886W        W54877  33.153  28.645  12.286 -0.1982 -0.0160  0.0047
11887W        W54878  12.931   0.682  22.475 -0.1988 -0.0125  0.1448
11888W        W54879  24.711   0.431  14.447 -0.4266 -0.0875  0.1025
11889W        W54880  23.876   5.457  17.389  0.0301  0.0482  0.3086
11890W        W54881  22.801  34.526  18.504  0.0998 -0.0224  0.2194
11891W        W54882  18.624  29.504   0.008  0.3442 -0.0863  0.1969
11892W        W54883  27.619   1.086  20.677 -0.0253  0.0374 -0.0584
11893W        W54884  14.257  10.744  25.499  0.0135 -0.1581  0.1972
11894W        W54885  24.689  33.308  17.539 -0.1795  0.0627 -0.0604
11895W        W54886  27.557  24.693  16.764 -0.1325  0.3784  0.1448
11896W        W54887  25.421   4.108  17.898  0.0575 -0.2002 -0.1615
11897W        W54888   9.204  14.543  19.556 -0.2632 -0.2177 -0.0110
11898W        W54889  34.216  24.369  18.191 -0.1534  0.0400  0.2813
11899W        W54890  22.915  34.238  15.449  0.0060  0.1938 -0.2299
11900W        W54891  26.576  28.031  18.756 -0.1524  0.1070 -0.0368
11901W        W54892  33.731  12.614  21.348 -0.1292  0.1028  0.3933
11902W        W54893  19.797   2.493  16.901 -0.2850 -0.0366  0.2553
11903W        W54894  31.104   2.608  22.226 -0.1239 -0.1044  0.1414
11904W        W54895   1.898   4.961  26.729 -0.1951  0.1635  0.0945
11905W        W54896   6.162  14.071  25.845  0.0957 -0.1182  0.0947
11906W        W54897  20.257   2.633   3.249  0.1475 -0.3010 -0.0575
11907W        W54898  17.857   4.049  15.144  0.3381  0.0490 -0.2273
11908W        W54899  25.406   9.831  16.284 -0.3236 -0.4092 -0.1106
11909W        W54900  18.140  32.805  17.169 -0.2134 -0.1977 -0.0367
11910W        W54901  24.016   1.003  25.137  0.4096  0.1228  0.0924
11911W        W54902  14.819  32.874  20.216  0.0453 -0.2885 -0.0447
11912W        W54903  15.893  31.681  26.058  0.0017 -0.0348  0.1830
11913W        W54904  25.846  23.420  22.566 -0.1552 -0.2124 -0.0438
11914W        W54905  25.121  27.539   3.370  0.3233 -0.3644  0.0528
11915W        W54906  25.462  27.849  19.936  0.0911 -0.0988  0.0337
11916W        W54907  18.954   4.754  19.667  0.0131  0.0949 -0.0741
11917W        W54908   8.292   9.914  27.683 -0.4675  0.3621  0.0687
11918W        W54909  30.317  33.705  16.983  0.0712 -0.0517  0.2983
11919W        W54910  24.565  27.815  15.723  0.1074  0.2051  0.1747
11920W        W54911  26.322  14.941  17.539 -0.6074  0.1055  0.2731
11921W        W54912  19.239  32.074   4.763  0.1284  0.0840  0.2541
11922W        W54913  19.133  33.397  16.155 -0.0241 -0.0091  0.1203
11923W        W54914  21.972  18.656  16.962 -0.0507  0.0135  0.2443
11924W        W54915  19.567  25.742  17.320  0.0504 -0.0552 -0.1342
11925W        W54916  25.115  31.583  17.040 -0.0198 -0.4341  0.1288
11926W        W54917  32.660  26.202  16.117  0.1622 -0.0375  0.0384
11927W        W54918   1.425   5.756  27.896 -0.3022 -0.1390 -0.4294
11928W        W54919  20.459   7.665  21.409  0.0545 -0.0821  0.3964
11929W        W54920  27.209  34.667  16.140 -0.1190  0.0457  0.1573
11930W        W54921  34.322  26.783  21.454 -0.3577 -0.5588 -0.0020
11931W        W54922  24.692  29.189  16.655  0.1840  0.2873 -0.0211
11932W        W54923  25.184  19.103  19.404 -0.0770 -0.4229  0.0950
11933W        W54924   0.031  22.175  17.049 -0.1476  0.2339 -0.1770
11934W        W54925  34.668  14.150  18.005 -0.0213  0.1829 -0.0947
11935W        W54926  17.568  32.489  16.081 -0.3075  0.1460  0.0813
11936W        W54927  16.039  25.418  15.895 -0.2173 -0.4365  0.1131
11937W        W54928  13.946   8.838  19.822  0.2543  0.0521  0.0232
11938W        W54929   3.971  29.506  16.012  0.0618 -0.2884  0.1646
11939W        W54930  15.149  24.997  19.954  0.2074  0.2521 -0.2758
11940W        W54931   8.137  32.547  19.012  0.2341 -0.1090 -0.2186
11941W        W54932  25.332  34.225  18.843 -0.1001  0.0839  0.2248
11942W        W54933  10.379  19.691  28.691  0.0243  0.1340 -0.1138
11943W        W54934  29.558  15.577  26.814  0.0191 -0.0719 -0.0010
11944W        W54935  23.012  17.758  21.725 -0.0938 -0.0227  0.1540
11945W        W54936  30.111  28.884  14.751 -0.1187  0.3579 -0.0163
11946W        W54937   4.804  26.520  18.052  0.0302  0.2153 -0.3994
11947W        W54938  29.568   3.644   1.805 -0.3242  0.2291  0.4083
11948W        W54939  14.251  24.651  25.188  0.0295  0.0181 -0.0040
11949W        W54940  12.361  34.666  15.552 -0.0725  0.0634 -0.0709
11950W        W54941  14.743  21.016   1.187 -0.1453  0.0762 -0.0602
11951W        W54942  19.197  33.965  15.051  0.1458 -0.1220  0.0761
11952W        W54943  23.743  27.293  14.745 -0.0548 -0.1408  0.3028
11953W        W54944   9.591  17.084  19.577 -0.3053  0.3304  0.0398
11954W        W54945  21.248  31.724  13.715 -0.1712  0.0046  0.3554
11955W        W54946  18.858   0.036  22.233 -0.2295 -0.1347 -0.1079
11956W        W54947  24.272  34.487   1.784  0.1259 -0.1632 -0.0775
11957W        W54948  27.631  24.896  20.499 -0.1053  0.0976  0.2974
11958W        W54949  25.186  33.172  17.584  0.1142 -0.2328 -0.0796
11959W        W54950  29.817  27.371  26.956  0.1287  0.0577 -0.2328
11960W        W54951  26.922   7.997  13.710  0.0278 -0.2558  0.0898
11961W        W54952   0.769   5.877  19.207  0.1210 -0.2956  0.0323
11962W        W54953  11.035   3.356  21.881 -0.0006 -0.2400 -0.2879
11963W        W54954  11.369  27.746  16.428  0.2733 -0.3057 -0.2683
11964W        W54955   8.703  21.073  14.370 -0.1365  0.2058  0.1062
11965W        W54956  27.248  33.982  20.262 -0.1282 -0.2384  0.0106
11966W        W54957  23.936  18.083  15.116  0.1593 -0.3868  0.2682
11967W        W54958  15.709  34.288  17.419  0.2761  0.0413 -0.3036
11968W        W54959  10.831  25.061  16.459  0.0172  0.1368  0.1507
11969W        W54960  31.260   9.511  19.797 -0.0477  0.3570  0.3364
11970W        W54961   6.147  32.793  14.359  0.0474  0.2507 -0.1109
11971W        W54962  28.370   8.433  16.494 -0.0487 -0.4188  0.1410
11972W        W54963  19.567   3.118  27.538  0.0681  0.3654 -0.1883
11973W        W54964  15.330   0.085   9.334 -0.1444  0.3244 -0.1198
11974W        W54965  30.565  21.584  16.909  0.3463  0.2620  0.0646
11975W        W54966  30.347  14.445  23.647  0.3990  0.2023  0.0794
11976W        W54967  17.114   5.681  20.291 -0.2363  0.1289  0.0700
11977W        W54968   4.496  33.089  18.357  0.0376 -0.0115  0.1154
11978W        W54969  26.070   0.031   4.055 -0.1581 -0.3038 -0.1606
11979W        W54970  24.239  25.771  23.201 -0.2205 -0.1774  0.1277
11980W        W54971  22.597  11.398  26.847  0.1455  0.0670  0.1512
11981W        W54972  21.847   0.109  16.601 -0.3243  0.1722 -0.0838
11982W        W54973  21.211  31.020  21.269  0.3327  0.1648  0.1951
11983W        W54974  27.378  29.361  15.837  0.2414 -0.4032  0.1481
11984W        W54975   0.428   6.012  19.648 -0.0602 -0.1303 -0.2443
11985W        W54976  27.443  28.831  19.866 -0.0910  0.1190  0.1050
11986W        W54977   1.490  26.184   2.032  0.2901 -0.3081  0.0333
11987W        W54978  27.576  12.932  24.371  0.0539 -0.0021  0.0607
11988W        W54979  14.179  21.266  25.250  0.0255 -0.3046  0.1855
11989W        W54980  28.158  26.432  15.593 -0.2418 -0.0366  0.0619
11990W        W54981  28.280   0.849  26.424  0.2358  0.0904  0.2184
11991W        W54982  31.501  17.846   8.918 -0.0424 -0.1576 -0.0493
11992W        W54983  11.583  34.226  15.313 -0.0704 -0.2660 -0.0338
11993W        W54984  20.342  30.124  19.340  0.1381  0.0162 -0.0478
11994W        W54985  24.853   3.758  22.552 -0.0130  0.0002  0.2714
11995W        W54986  30.821  10.152  29.153  0.0379 -0.2269  0.1282
11996W        W54987   7.875  34.295   4.307  0.1616 -0.2333 -0.2382
11997W        W54988  24.751   0.441  28.921 -0.2674  0.1603 -0.4120
11998W        W54989  13.550  34.781  25.155  0.1336 -0.2531  0.1064
11999W        W54990  23.268  23.776  14.680  0.0249  0.4569  0.0153
12000W        W54991  26.763  15.725  19.086 -0.4749 -0.1726  0.0827
12001W        W54992  25.128  19.606  13.770 -0.0699  0.1245 -0.0917
12002W        W54993  32.594  34.266  19.094 -0.1438 -0.1189 -0.2051
12003W        W54994  24.575  21.045  25.478  0.3770  0.2456 -0.1314
12004W        W54995  32.223   4.605  23.630  0.0878 -0.0008  0.0087
12005W        W54996  20.935  22.115   4.748  0.0379  0.1223  0.0487
12006W        W54997  22.558  29.630  13.681 -0.1526  0.2975 -0.3100
12007W        W54998   6.037  11.573   6.792 -0.1553 -0.2057  0.1202
12008W        W54999  26.559  26.184  16.638  0.0689  0.1482 -0.1045
12009W        W55000  12.792   3.242   4.864 -0.1214  0.1832 -0.0862
12010W        W55001  21.456   1.115  19.956 -0.0916  0.1590  0.0083
12011W        W55002  21.325  32.250  18.456  0.0494  0.0500  0.0184
12012W        W55003   4.723  32.293  15.056  0.1145 -0.3930 -0.2608
12013W        W55004  20.920  14.220  26.350 -0.4585 -0.0750 -0.1395
12014W        W55005  33.247   4.938  18.380 -0.5018 -0.0492  0.1056
12015W        W55006  18.512  32.597  15.115 -0.2181 -0.2679  0.0872
12016W        W55007  30.378  17.582  21.698  0.2875  0.4476  0.1856
12017W        W55008  22.058   0.493  15.137 -0.0599  0.0385  0.2710
12018W        W55009  21.497   3.735  17.296  0.0785 -0.2208 -0.0895
12019W        W55010  13.186   3.512  18.253 -0.1050 -0.0645  0.0995
12020W        W55011  26.648  25.444  28.928  0.1683 -0.1777  0.2491
12021W        W55012   9.147  33.071  14.799 -0.1592 -0.2464 -0.1304
12022W        W55013  26.985   9.829  14.015 -0.3134 -0.4738  0.2020
12023W        W55014  23.168   8.181  15.845  0.0053  0.0153  0.2467
12024W        W55015   9.682  28.089  25.530 -0.0456  0.1625  0.0487
12025W        W55016  22.243  24.456   3.571 -0.2955 -0.2961 -0.1229
12026W        W55017  20.261   9.014   9.966 -0.2197 -0.1439  0.1439
12027W        W55018   5.199  15.513  16.571 -0.2722  0.3417 -0.1809
12028W        W55019  10.337  27.062  18.019  0.2300 -0.1060 -0.0135
12029W        W55020   2.039   3.453  27.861  0.0697 -0.0516 -0.2533
12030W        W55021  20.857  21.800  12.774  0.2797  0.0171 -0.3029
12031W        W55022  24.816  23.802  17.160  0.4163  0.0031  0.4729
12032W        W55023   6.973  33.659   8.409  0.3046  0.2612 -0.0420
12033W        W55024  17.557   1.156  27.496  0.1376  0.0770  0.1016
12034W        W55025  21.000  26.235  21.602 -0.0151  0.0634 -0.3737
12035W        W55026  27.213  31.702  25.796 -0.0907  0.2635  0.3305
12036W        W55027   7.007  25.474  19.710 -0.2326 -0.1154  0.3522
12037W        W55028  18.789  22.610  12.690 -0.3233 -0.1173 -0.1452
12038W        W55029   7.958  20.915  17.287 -0.5015 -0.2601 -0.0968
12039W        W55030   8.296  26.163  15.483  0.0944  0.0406  0.2717
12040W        W55031   3.154   5.412  23.003 -0.3289  0.0186  0.0574
12041W        W55032   9.570  15.344  28.637  0.2304  0.0440 -0.3088
12042W        W55033   8.465  15.652  20.266  0.0491  0.0537  0.2068
12043W        W55034  29.495  25.944  15.284 -0.1409  0.0469  0.0366
12044W        W55035  18.844   7.666  20.811  0.0135  0.0050  0.1268
12045W        W55036  29.474  25.622  19.875  0.0871  0.0071  0.1290
12046W        W55037  27.442   4.766  18.521 -0.0921 -0.1447 -0.0621
12047W        W55038  29.811  33.943  23.791 -0.3004 -0.0510 -0.0677
12048W        W55039  18.675   3.219  17.378  0.0720 -0.1600 -0.0414
12049W        W55040  22.912   7.535  16.673  0.2426  0.1332  0.0669
12050W        W55041  31.668  26.162  17.109  0.3629  0.1810  0.1777
12051W        W55042  16.503  26.220  22.235  0.2047 -0.0634  0.3083
12052W        W55043  27.013  11.697  14.421 -0.0429  0.2018 -0.2581
12053W        W55044  11.116   5.898  24.287  0.0844  0.0273  0.0286
12054W        W55045  14.292  21.778  27.700  0.0676  0.1967  0.3202
12055W        W55046  18.856  33.211  26.695 -0.0642  0.2228  0.3329
12056W        W55047   8.574   6.208   4.091  0.3550 -0.3571  0.0745
12057W        W55048  16.610   5.201  23.927  0.5315 -0.0580 -0.0371
12058W        W55049  29.244  34.234  14.382 -0.0181  0.0940 -0.1072
12059W        W55050  33.725   0.655   2.341 -0.1422 -0.1081  0.0656
12060W        W55051  21.224   4.480  13.496  0.2855  0.0662 -0.0367
12061W        W55052   0.192   2.124  16.519 -0.0460  0.0301  0.1347
12062W        W55053  16.875   0.161  26.286  0.0772  0.1467 -0.1788
12063W        W55054  34.392  24.808  24.097 -0.0188 -0.1999  0.0553
12064W        W55055  14.681  13.373  24.277  0.3122  0.0807  0.1547
12065W        W55056  26.812  31.147  13.218 -0.0159 -0.1929  0.2241
12066W        W55057  31.876  21.206  15.627 -0.0558  0.0178 -0.0299
12067W        W55058  31.489   0.913  19.264  0.5649  0.0769 -0.2068
12068W        W55059  25.448  28.489  16.995 -0.2960  0.1529  0.2180
12069W        W55060   7.389  20.924  18.085 -0.1003 -0.0374 -0.3598
12070W        W55061   8.830  32.206  18.355 -0.4037  0.2442  0.0729
12071W        W55062  23.800   1.196  15.715 -0.2151  0.2705 -0.3354
12072W        W55063  29.851  13.724  17.448 -0.0492  0.1090  0.2721
12073W        W55064  27.425  20.809  14.245 -0.1120  0.1157 -0.2188
12074W        W55065   9.901  23.100   2.061  0.0249  0.0553 -0.2577
12075W        W55066  19.186  31.229   1.383  0.0040 -0.0007  0.0003
12076W        W55067  21.289  31.447   7.039 -0.0897  0.3513 -0.0616
12077W        W55068  19.119  32.208  25.637  0.0166 -0.0730  0.0673
12078W        W55069  31.875  31.437   3.955  0.2584 -0.1385 -0.1658
12079W        W55070  24.274  33.583  21.182  0.3190 -0.0688  0.1658
12080W        W55071  23.108  33.861  24.791 -0.1337  0.0661 -0.1178
12081W        W55072  24.427  16.119  15.615 -0.2347 -0.1050  0.1627
12082W        W55073   4.793  33.437   9.715 -0.1811  0.0019  0.2483
12083W        W55074  27.460  24.671  28.945  0.1074  0.2843  0.1070
12084W        W55075  21.726  33.739  22.912  0.6063  0.1125  0.0529
12085W        W55076  26.935  26.241  21.363  0.2078 -0.3223  0.1566
12086W        W55077  16.809   2.863   1.232  0.0430  0.0662 -0.3566
12087W        W55078  21.542   3.564  14.567 -0.3025 -0.0886  0.3449
12088W        W55079  22.874   2.843  24.918 -0.3286  0.0733 -0.0965
12089W        W55080  31.619  27.456  15.364  0.0084  0.0492  0.0558
12090W        W55081  26.626   3.167  14.601  0.0736 -0.0675  0.0989
12091W        W55082  30.959   0.627  27.916 -0.0564  0.3321 -0.0819
12092W        W55083  22.260  28.018  29.021  0.1039 -0.0014  0.1410
12093W        W55084  29.741  29.294  19.580 -0.2807  0.5397 -0.2523
12094W        W55085  27.753  34.631  21.533 -0.1228 -0.0274  0.0714
12095W        W55086  13.378  29.047  17.831  0.2317 -0.0075 -0.2008
12096W        W55087  28.446  32.241  21.892 -0.0416  0.3375 -0.3527
12097W        W55088  17.991  21.761  13.924 -0.0527  0.3396 -0.0181
12098W        W55089  10.639  17.899   5.834  0.1885 -0.0156 -0.1265
12099W        W55090   0.234  18.334  25.732 -0.1265 -0.2440 -0.0917
12100W        W55091  18.579  25.767  26.785 -0.1327 -0.0262  0.2253
12101W        W55092  19.736   8.171  15.320 -0.0879 -0.0711  0.0440
12102W        W55093  26.271  25.226  20.744 -0.4558  0.2442 -0.0122
12103W        W55094  26.447   3.812  25.844  0.1573  0.1918  0.2493
12104W        W55095  29.866  30.223  12.884  0.4691 -0.2661 -0.1242
12105W        W55096   9.940  30.545  18.337  0.2199 -0.1722 -0.2893
12106W        W55097  25.086  28.042  14.734  0.1970 -0.0500 -0.3066
12107W        W55098  31.269  24.085  20.912 -0.0254  0.1236  0.0917
12108W        W55099  21.755  23.841  13.217  0.2051  0.0361 -0.0572
12109W        W55100  16.154  28.854  23.848  0.0164 -0.1322  0.0838
12110W        W55101  27.972  23.678  29.037 -0.1163  0.1254 -0.2157
12111W        W55102   1.333  21.014  14.850  0.0347 -0.4537 -0.0469
12112W        W55103   6.727   5.205  20.777  0.0283 -0.0235  0.3352
12113W        W55104  14.736   3.905  18.319  0.0276 -0.0261  0.1711
12114W        W55105  33.994   3.150  23.038  0.0304 -0.1456 -0.0024
12115W        W55106  21.046  34.257  23.379  0.2870 -0.1157  0.2111
12116W        W55107  14.104  33.195  18.114 -0.2133 -0.0730  0.3847
12117W        W55108  28.520  28.611  15.762  0.2209 -0.1811  0.0804
12118W        W55109   1.381  20.299  23.124  0.0444  0.0096 -0.0359
12119W        W55110  29.840   7.515  16.443  0.1020 -0.0317 -0.1357
12120W        W55111   9.383   0.509  16.494  0.1243 -0.0772 -0.1001
12121W        W55112  21.870   6.462  15.234 -0.0416 -0.1963  0.1622
12122W        W55113  31.603  15.231  19.271  0.0606  0.0203  0.1254
12123W        W55114  17.706  28.994  22.772 -0.0322 -0.1114 -0.0803
12124W        W55115  25.615  11.972  19.230 -0.1200  0.0943  0.0861
12125W        W55116  23.612  21.895   7.209  0.0225 -0.1053  0.1317
12126W        W55117  30.034   1.721  20.789  0.1901 -0.3654  0.0588
12127W        W55118  25.425  20.768  19.554  0.1275  0.0299  0.0273
12128W        W55119  26.869  29.364  20.492 -0.0146  0.0623 -0.3311
12129W        W55120  22.935   6.463  26.876 -0.2661  0.0532  0.5365
12130W        W55121  18.452  19.538  15.367  0.1035  0.2542 -0.3951
12131W        W55122  30.351  27.021  19.092 -0.1348  0.1637  0.0549
12132W        W55123  27.343   6.503  18.289 -0.0962 -0.0552  0.3093
12133W        W55124  27.518  33.009  15.153 -0.1341  0.1242  0.0984
12134W        W55125  15.997   2.313  20.221 -0.0059  0.1982  0.1427
12135W        W55126  33.535  33.099  15.577 -0.2631 -0.1665 -0.0246
12136W        W55127   0.533  34.421  20.669 -0.3955  0.1073  0.1110
12137W        W55128  17.772   1.766  19.146  0.0397 -0.0511  0.1319
12138W        W55129   8.366   9.895  24.595 -0.0113  0.0535 -0.0363
12139W        W55130  33.916  28.750  22.482  0.0008 -0.2046 -0.0572
12140W        W55131  18.631   0.836  22.552 -0.1279 -0.2663  0.2847
12141W        W55132  20.865  13.424  25.666 -0.2392 -0.1171 -0.1332
12142W        W55133  19.538  28.611  16.152  0.1288 -0.2775 -0.0800
12143W        W55134  17.075  23.661  20.700  0.1010  0.0916  0.3500
12144W        W55135  21.671   3.903   6.893  0.3258 -0.1682 -0.1482
12145W        W55136  27.826   0.012  18.271 -0.0132  0.0751  0.3245
12146W        W55137   8.441  22.972  17.902  0.0125 -0.2066  0.2676
12147W        W55138  19.198  13.915  13.969  0.0502 -0.0241 -0.0788
12148W        W55139   1.949  33.638  14.573 -0.0109  0.3442  0.2176
12149W        W55140  19.890  31.974   6.238 -0.1585 -0.0609 -0.0829
12150W        W55141  24.163  25.027  21.019  0.0920 -0.1282 -0.1895
12151W        W55142  29.610  19.875  24.620  0.0888 -0.1529 -0.1351
12152W        W55143  30.566   2.660  19.640 -0.1297 -0.1648 -0.1972
12153W        W55144  20.156  28.205  17.224  0.0024 -0.0077 -0.0167
12154W        W55145   7.317  30.258   0.611  0.2048 -0.0423 -0.1378
12155W        W55146  15.203  30.496  14.123  0.1582 -0.0232 -0.2391
12156W        W55147  27.003   7.842  23.964  0.0096  0.1001 -0.0472
12157W        W55148   2.766  34.588  17.656 -0.2916  0.2214 -0.0359
12158W        W55149  23.309  30.583  15.667 -0.0302 -0.0665 -0.1895
12159W        W55150  13.259  26.463  23.130  0.1179  0.1299 -0.2720
12160W        W55151  14.212   3.250  20.932  0.0235  0.2179 -0.0567
12161W        W55152  31.408  24.313   3.702  0.0952  0.0383 -0.0997
12162W        W55153  32.358   1.644  15.845  0.2562 -0.4076  0.0904
12163W        W55154  16.519  32.644  25.914  0.1177  0.1059  0.1614
12164W        W55155  19.690  34.464  21.363  0.0116 -0.2775  0.1472
12165W        W55156  30.187  23.655  20.769  0.2574 -0.0625  0.0005
12166W        W55157  27.864  33.451  14.314  0.2076  0.3250 -0.1901
12167W        W55158  23.301  29.394  14.218 -0.2865 -0.2397 -0.1721
12168W        W55159   0.388  22.269  14.044 -0.3572  0.0980 -0.1183
12169W        W55160  25.490  24.427  26.086  0.0002 -0.0233 -0.0026
12170W        W55161  18.821  12.797  16.579  0.0002  0.2199  0.2100
12171W        W55162  24.526  28.306  16.524 -0.0012  0.3270  0.3232
12172W        W55163  26.098  24.681  20.989 -0.2249  0.1693 -0.2199
12173W        W55164   3.311  29.112   6.739  0.0855 -0.4780 -0.1510
12174W        W55165   5.740  26.099  21.369  0.3392 -0.0380  0.1215
12175W        W55166  14.921  31.098  21.153  0.0798  0.0659  0.3336
12176W        W55167  26.028  16.758  20.226  0.1933  0.0743 -0.0901
12177W        W55168  20.991  20.161  13.106 -0.1403 -0.2618 -0.0916
12178W        W55169   2.900  34.165   7.706  0.0052  0.1254  0.3454
12179W        W55170  17.986   2.992  23.468 -0.1442 -0.2858  0.4429
12180W        W55171  31.478  13.899  22.560 -0.3167  0.1296  0.0048
12181W        W55172  16.265  28.903  17.088  0.3760  0.0199 -0.1974
12182W        W55173  28.147  16.669  28.183 -0.0277  0.0432 -0.1064
12183W        W55174  26.700  18.862  24.551 -0.0865  0.1806 -0.0200
12184W        W55175   6.393  28.946  18.612 -0.2462  0.2987  0.4573
12185W        W55176   7.127   9.939  27.552  0.0725 -0.1251 -0.0151
12186W        W55177  13.140   2.176  25.746 -0.0282 -0.0885 -0.1134
12187W        W55178  31.495  24.088  21.436 -0.0810  0.0138 -0.0428
12188W        W55179  17.246   0.325  18.297 -0.1082 -0.3616 -0.0236
12189W        W55180  21.153  18.977  24.767  0.0638 -0.2729 -0.1397
12190W        W55181  31.724  24.297  23.609 -0.1228 -0.2244 -0.1086
12191W        W55182  13.145  26.343  29.229 -0.0480  0.2218 -0.4114
12192W        W55183  19.869  27.836   6.257  0.0863  0.0223 -0.1175
12193W        W55184  31.193  32.284  19.205  0.2253 -0.0219 -0.1549
12194W        W55185  31.848   6.399   3.186  0.0666 -0.0318 -0.2594
12195W        W55186  28.412  33.008  14.914 -0.0010 -0.0917 -0.0488
12196W        W55187   4.562   7.981  26.743 -0.0086 -0.0706 -0.2235
12197W        W55188  30.664  22.135  27.703  0.2366  0.0564  0.0359
12198W        W55189   8.604  13.495  21.289  0.2990 -0.3055  0.1518
12199W        W55190  28.166  34.613  14.944 -0.1538  0.0395  0.1158
12200W        W55191  16.172   3.383  14.957 -0.2021  0.0313  0.1859
12201W        W55192  20.179  24.963  24.578 -0.1441  0.1588  0.0931
12202W        W55193  19.831  28.885  13.937 -0.1729  0.3524 -0.2161
12203W        W55194  22.007  34.482  14.423  0.1188 -0.0920 -0.2977
12204W        W55195  33.190  33.902  25.957  0.0054 -0.2394  0.0736
12205W        W55196  29.316   5.461  28.013 -0.0964  0.1433  0.1664
12206W        W55197  22.939  13.221  27.568 -0.3374  0.1837 -0.0619
12207W        W55198  25.846  26.213  13.791  0.0424 -0.0514 -0.1890
12208W        W55199  17.355  25.787  14.048 -0.2677 -0.4423 -0.0368
12209W        W55200  23.188  19.988  19.269 -0.0032  0.0508 -0.0652
12210W        W55201  17.274   1.868  22.306 -0.0420 -0.1608  0.0782
12211W        W55202  21.924  12.551  21.740  0.0242  0.1658 -0.2355
12212W        W55203  15.594   0.508   9.967 -0.0115  0.0853 -0.1311
12213W        W55204  27.725   1.839  20.102 -0.2457 -0.2469  0.2460
12214W        W55205  20.077  31.965  20.841 -0.1864 -0.0501 -0.0004
12215W        W55206  13.919  25.371  17.228 -0.3068  0.1725  0.0160
12216W        W55207  22.301  27.215  20.096 -0.1181  0.2754  0.2237
12217W        W55208  18.052  29.164   3.812  0.2500 -0.2064  0.2003
12218W        W55209  23.751  31.953  13.922 -0.0223  0.0880 -0.0111
12219W        W55210  25.140  25.370  18.181 -0.1081  0.0437  0.1941
12220W        W55211  30.840  32.586   4.697 -0.0950 -0.0098 -0.2596
12221W        W55212  18.282  25.479  16.200  0.0744  0.0836  0.0332
12222W        W55213  24.309  33.412  20.595  0.0429  0.1555 -0.1783
12223W        W55214  26.548   1.429  13.557  0.3181 -0.0587 -0.1816
12224W        W55215  25.387  22.120   5.741 -0.0962 -0.1587 -0.0732
12225W        W55216  22.623  26.942  24.648 -0.2529  0.1870  0.0012
12226W        W55217   3.292  27.427   4.477 -0.2303  0.2549  0.2397
12227W        W55218   2.496  32.494  15.288  0.1141 -0.0720  0.0533
12228W        W55219  18.330  18.253  12.776 -0.4458 -0.2848 -0.2755
12229W        W55220  28.580  27.124  15.634  0.1125  0.0181 -0.3503
12230W        W55221   1.618  17.576  22.112  0.1525  0.1314 -0.0040
12231W        W55222  28.922  32.510  16.935 -0.0016 -0.0086  0.1867
12232W        W55223   1.340  21.682   9.037 -0.0915  0.1279  0.1294
12233W        W55224  19.306   7.742  13.652 -0.1427  0.0074  0.0027
12234W        W55225  12.468   3.504  23.622 -0.3572 -0.0776  0.0590
12235W        W55226  21.964  31.775  24.285 -0.0129  0.0289 -0.0699
12236W        W55227  19.953   0.133  27.960  0.0537 -0.1167 -0.2816
12237W        W55228  32.693  23.033  21.785 -0.2123  0.0184 -0.1211
12238W        W55229  23.577  32.079  24.778 -0.1476  0.1484 -0.0617
12239W        W55230  29.980  33.788  20.286  0.2154  0.2230  0.2461
12240W        W55231  22.116  17.960  18.434  0.0222  0.0199  0.1126
12241W        W55232  12.371   5.639  17.874  0.1281  0.0229 -0.1061
12242W        W55233   1.502  23.505   0.815 -0.1107  0.1787 -0.1788
12243W        W55234  32.114  26.882  22.682  0.0692 -0.0055  0.0965
12244W        W55235  25.785   4.963  14.769 -0.0375  0.4504 -0.2962
12245W        W55236   1.161  32.097  25.097 -0.3120  0.2681  0.0457
12246W        W55237  16.284   2.381  18.361 -0.0789  0.1977 -0.1360
12247W        W55238  29.769   2.468  23.494  0.2332 -0.1594 -0.0626
12248W        W55239  27.948  14.763   3.771  0.1677  0.1947  0.0064
12249W        W55240  22.658  22.590  17.401  0.0927 -0.3862  0.1503
12250W        W55241  21.575  19.703  24.952  0.2835  0.2834  0.1528
12251W        W55242  27.938  20.899  29.147 -0.1830  0.3115 -0.2538
12252W        W55243  28.145   7.998   2.758  0.0514  0.1178 -0.0260
12253W        W55244  25.653  21.547  20.258  0.0887 -0.3395  0.1185
12254W        W55245  27.688  17.794  27.724  0.2294 -0.1591 -0.2209
12255W        W55246  23.164   2.007  16.498 -0.4557  0.0392  0.0053
12256W        W55247  14.715   1.531  21.584  0.1317  0.0816  0.1664
12257W        W55248   1.387  28.879  28.749  0.1750 -0.0191  0.0136
12258W        W55249   4.049   0.771  15.792  0.1299  0.2881  0.0669
12259W        W55250   8.950  25.042  27.147  0.1570 -0.1416  0.2003
12260W        W55251   3.863  28.824  28.933  0.1785  0.0947  0.0394
12261W        W55252  31.708  22.850  19.529  0.2900  0.0030 -0.6380
12262W        W55253   4.104  31.743   1.875 -0.0386  0.3472 -0.0257
12263W        W55254   8.676  29.772  18.219 -0.2926 -0.3218  0.2508
12264W        W55255   8.376  19.635  20.038  0.1886  0.0162  0.1258
12265W        W55256  28.420  21.188  20.993  0.3465 -0.1473 -0.2313
12266W        W55257  16.445  14.648  15.609  0.1027  0.3855 -0.1224
12267W        W55258  14.128  27.667  20.432  0.4015 -0.1341 -0.1472
12268W        W55259  33.146   6.809   5.403 -0.0095 -0.0422 -0.0268
12269W        W55260  16.629  31.158  15.751  0.2324  0.1321  0.0126
12270W        W55261  29.230  33.818  14.078  0.2012  0.0295  0.2704
12271W        W55262  13.601  26.673  19.169  0.2098  0.3697  0.2470
12272W        W55263  31.335   8.365  13.452  0.4056  0.0467 -0.0793
12273W        W55264  22.326  26.415  19.453  0.0910 -0.0815  0.1387
12274W        W55265   1.610   7.105  24.326 -0.1637  0.2264  0.1037
12275W        W55266  15.675  25.891   2.499 -0.1444  0.0745 -0.1351
12276W        W55267  24.126  30.573  24.279 -0.1263  0.1908  0.3535
12277W        W55268  26.752  22.805  15.669 -0.0240 -0.1886 -0.1600
12278W        W55269  16.355  34.530  14.022  0.0756  0.0029 -0.2115
12279W        W55270  23.735  32.791  21.467 -0.1735 -0.0591 -0.0747
12280W        W55271   5.224   3.920  21.601  0.3016 -0.1512 -0.3262
12281W        W55272  22.211   5.747  23.750  0.2312 -0.2639  0.0260
12282W        W55273  28.354  24.189  17.419  0.2254 -0.0997  0.0547
12283W        W55274   8.956   2.441  20.848  0.1226  0.0776 -0.1123
12284W        W55275  25.136   1.822  17.453  0.1238 -0.0160 -0.0783
12285W        W55276  12.480  17.469  16.812  0.4003  0.0056 -0.1641
12286W        W55277  21.386  22.639   2.811  0.1617  0.0204 -0.1387
12287W        W55278   6.420  12.290  19.360  0.0535  0.0646  0.0207
12288W        W55279  17.991  14.385  15.307 -0.4617 -0.1729 -0.2453
12289W        W55280  32.798  28.314  20.574 -0.0232 -0.4995  0.1115
12290W        W55281  32.577  26.548  14.951  0.1796 -0.0848 -0.0010
12291W        W55282  21.587  10.189   8.659  0.1223 -0.0561 -0.0183
12292W        W55283   8.560  18.192  17.144  0.3181 -0.1158 -0.2871
12293W        W55284  25.800  34.326  16.505 -0.0443  0.2033  0.0917
12294W        W55285  31.014  27.331  18.466  0.1626  0.0234  0.5561
12295W        W55286  34.040  18.217  25.073  0.1417 -0.2228  0.2140
12296W        W55287   7.318  32.295   4.154  0.0742  0.1615  0.0589
12297W        W55288  20.229   3.523  18.732 -0.1050 -0.1176  0.1514
12298W        W55289  21.163  32.686  20.156  0.3248 -0.1531 -0.1341
12299W        W55290  30.204  34.394  17.284 -0.1631 -0.2344  0.0710
12300W        W55291  28.811  10.725  20.024  0.0841 -0.3112  0.2793
12301W        W55292  27.407  29.325  20.114  0.1110  0.2186 -0.1713
12302W        W55293  27.347   6.862  22.464 -0.0691 -0.1074  0.2316
12303W        W55294  33.485  12.197  28.065 -0.0467  0.1970 -0.1008
12304W        W55295   0.221   8.204   2.676 -0.1345 -0.1826  0.0291
12305W        W55296  17.687  26.166  18.229 -0.1588 -0.0360 -0.2400
12306W        W55297  13.366  31.595  20.660 -0.1854 -0.0297  0.1383
12307W        W55298  26.118  24.809  22.783  0.0278  0.2018  0.0772
12308W        W55299  15.041  29.933  14.795  0.1614  0.2000  0.0315
12309W        W55300  32.920  26.381  17.694 -0.1970 -0.1050  0.0481
12310W        W55301   5.253  28.348  23.026 -0.0606 -0.0488 -0.1017
12311W        W55302   2.085  32.140  14.743 -0.1951  0.0783  0.2299
12312W        W55303   2.457  27.336  15.757  0.4075  0.2007 -0.5278
12313W        W55304   8.238  28.726   8.605 -0.0355 -0.1090 -0.2757
12314W        W55305  25.232  24.710  17.769  0.0965  0.1060 -0.0102
12315W        W55306  17.436   9.688  15.851  0.4561 -0.1142 -0.2428
12316W        W55307  22.632  24.990   4.604  0.0675 -0.1952 -0.1785
12317W        W55308  19.477  15.690  12.457 -0.0598  0.1494  0.0488
12318W        W55309  12.058  27.044  24.875 -0.1186 -0.1091  0.0171
12319W        W55310  30.623  18.382  20.333 -0.0089 -0.1480  0.1005
12320W        W55311  13.719  19.752  14.830 -0.1297  0.0828  0.0134
12321W        W55312  11.861   9.600  27.306 -0.3042 -0.2470 -0.0731
12322W        W55313  18.658   0.717  17.263 -0.2825 -0.0895 -0.1876
12323W        W55314  20.445  30.395  17.364 -0.0198 -0.2277 -0.1656
12324W        W55315  33.074  31.072  20.060  0.3078  0.3569  0.2075
12325W        W55316  25.311  30.391  20.489 -0.0387  0.1160 -0.0993
12326W        W55317  18.428  30.050  16.615  0.2225  0.1403  0.1245
12327W        W55318   8.219  20.097  21.924 -0.0420  0.1147 -0.0214
12328W        W55319  23.454  18.289  25.467  0.2753  0.2503  0.2900
12329W        W55320  22.047  32.489  17.716 -0.0345  0.3181  0.0793
12330W        W55321  29.360   0.958  14.006  0.1472 -0.0002 -0.0497
12331W        W55322  23.886  34.423   0.185 -0.0455 -0.0474 -0.0715
12332W        W55323  13.253   3.825  19.758 -0.2609  0.0192  0.5226
12333W        W55324  15.372  23.215  23.273  0.2361 -0.0473  0.1716
12334W        W55325  18.346  31.306   2.904 -0.4003  0.1596 -0.1662
12335W        W55326   1.996  22.699  17.308 -0.1564  0.1455 -0.0850
12336W        W55327  24.781   5.210  15.490  0.1013 -0.2534 -0.0490
12337W        W55328  25.201   9.355  15.598 -0.0303  0.1419  0.4018
12338W        W55329  21.767  29.723  21.001  0.1036 -0.1029 -0.0447
12339W        W55330  18.895  25.702  16.179 -0.0119 -0.1362 -0.0393
12340W        W55331  17.419   1.804  17.294 -0.1945 -0.0025 -0.1012
12341W        W55332   4.184  30.420  21.415 -0.0577 -0.0274 -0.0554
12342W        W55333  32.614  30.119   3.672  0.0918 -0.3023 -0.2897
12343W        W55334  28.017  31.823  14.743 -0.1459 -0.0851  0.2372
12344W        W55335  21.195  23.264   8.159  0.1304  0.2326  0.3348
12345W        W55336  21.776   1.619  23.379  0.0710  0.1990 -0.0850
12346W        W55337  22.637   6.919   1.652  0.0964 -0.2514  0.0751
12347W        W55338   2.635   0.300  20.885 -0.3284 -0.1525 -0.0406
12348W        W55339  14.594  23.224  18.113  0.4694  0.1999 -0.0334
12349W        W55340  18.282  28.213  15.654 -0.0760  0.1078  0.1651
12350W        W55341   7.850  15.686  18.349 -0.1233  0.2808  0.1179
12351W        W55342  11.083  21.128  20.504  0.0620  0.1260 -0.2412
12352W        W55343  14.103   7.821  16.302 -0.1682  0.1265 -0.2129
12353W        W55344  33.230   9.496  28.798  0.0147 -0.1150  0.0069
12354W        W55345  25.872  21.489  16.047  0.1423 -0.0737 -0.0767
12355W        W55346  16.930  27.966   1.199  0.4649  0.0720 -0.4258
12356W        W55347  33.740  34.648  15.101 -0.2937 -0.0091  0.1404
12357W        W55348  16.331  26.693  16.415 -0.2427  0.1378  0.2445
12358W        W55349  11.800   3.375  16.151  0.2162  0.0229  0.0828
12359W        W55350   2.526  32.732  17.067  0.0587 -0.4419 -0.4326
12360W        W55351  23.325  22.753  15.436 -0.0539  0.0763 -0.4098
12361W        W55352  13.717  31.859  26.311 -0.0831 -0.0331  0.0026
12362W        W55353  20.108  21.715  28.368  0.1043  0.0838  0.0545
12363W        W55354  28.489   1.229  26.696 -0.6073 -0.0492  0.1384
12364W        W55355   1.221  29.701  19.841  0.1019  0.2106 -0.1742
12365W        W55356   0.975  13.442   3.433  0.0757  0.3318  0.1610
12366W        W55357  29.465  29.594  21.492 -0.0771  0.1512 -0.0787
12367W        W55358  16.276   5.401  15.762 -0.2613  0.3525 -0.1298
12368W        W55359  17.384   5.314  15.186  0.0159  0.0692  0.3053
12369W        W55360  26.076  23.943   2.138 -0.5493  0.2000  0.0779
12370W        W55361  22.915  34.314   1.631 -0.1141 -0.0717 -0.0876
12371W        W55362  33.036  27.995  14.181 -0.1502 -0.0867 -0.2903
12372W        W55363  12.976  23.718  17.125 -0.0934 -0.0219  0.1833
12373W        W55364  20.341  29.094  24.292 -0.1114 -0.0970  0.0072
12374W        W55365  18.278   9.238   1.653 -0.0904 -0.1219  0.1893
12375W        W55366  26.045  24.755   7.245  0.1659  0.0364  0.1828
12376W        W55367  17.763  27.964  23.302  0.0092  0.4240  0.0189
12377W        W55368  27.228  28.009  13.132  0.1857 -0.0998 -0.0693
12378W        W55369  16.573  23.637  18.107 -0.1407 -0.2179 -0.2535
12379W        W55370  23.891   5.361  27.770 -0.0951 -0.2771 -0.1390
12380W        W55371  28.826  22.899  27.732 -0.3022 -0.1660  0.3489
12381W        W55372   5.501  28.786  15.257  0.0367 -0.2353  0.0153
12382W        W55373  22.221   4.751  19.674 -0.2018 -0.1926 -0.0155
12383W        W55374  26.310  10.160  23.022  0.2873  0.0879 -0.1916
12384W        W55375   8.027   2.784  26.210 -0.0343 -0.0995  0.2002
12385W        W55376   7.480  15.318  17.358  0.2124  0.0267  0.2120
12386W        W55377  11.848  28.621  15.285 -0.4276 -0.1562  0.5643
12387W        W55378  13.678  33.736  19.495 -0.0227  0.0657  0.2681
12388W        W55379   3.766  33.444   9.809 -0.0872  0.1413  0.0851
12389W        W55380  16.454  13.901  12.684 -0.4177  0.0864  0.1439
12390W        W55381   0.197  33.755  16.903  0.1470  0.0496 -0.0852
12391W        W55382  32.115  13.780   6.121  0.0631  0.3341 -0.1176
12392W        W55383  21.927  29.877  26.989 -0.2708 -0.1007 -0.2412
12393W        W55384  16.677   4.935   4.503  0.1382 -0.3850  0.1979
12394W        W55385  30.295  31.772  13.123 -0.0983 -0.2274 -0.1339
12395W        W55386  10.932  27.629  21.276  0.0035 -0.1317  0.0479
12396W        W55387  34.251  21.580  20.551  0.2405  0.2186  0.2556
12397W        W55388  25.605  20.088   3.553 -0.0213 -0.0187  0.2861
12398W        W55389  17.115  33.457  16.892 -0.0423 -0.1460 -0.1488
12399W        W55390  22.798  20.830  15.253 -0.0049  0.1930 -0.2442
12400W        W55391  19.592  34.347  15.062 -0.2270  0.0562 -0.1284
12401W        W55392   1.519   4.954  25.619 -0.2064 -0.1780 -0.1237
12402W        W55393  27.358  24.378   0.065 -0.0108  0.1400 -0.2104
12403W        W55394   4.936  18.368  26.646  0.0458  0.1154  0.2792
12404W        W55395  14.776  28.146  21.893 -0.0164  0.0646 -0.0135
12405W        W55396  23.388  20.773  20.113  0.2467 -0.1185 -0.1582
12406W        W55397  12.770  21.380  18.615  0.1323 -0.0616 -0.2377
12407W        W55398  29.011  31.970  23.186  0.2384  0.0491  0.2328
12408W        W55399  31.031  27.365  26.430  0.0374  0.1101  0.3309
12409W        W55400   1.231  28.644  17.205  0.1654  0.0443 -0.2216
12410W        W55401   2.077  24.295  27.397 -0.3419  0.0478 -0.0307
12411W        W55402  11.940  29.838  21.026  0.1471  0.3220  0.2320
12412W        W55403  26.736   6.655  25.852 -0.1516 -0.0683 -0.0350
12413W        W55404  25.557   4.343  19.486 -0.1720 -0.1585  0.1569
12414W        W55405  23.217  29.157  14.805 -0.0720  0.3214 -0.0786
12415W        W55406  23.634   1.128   2.919 -0.1549  0.1577 -0.0321
12416W        W55407  20.057   1.970  14.887 -0.2104  0.1839 -0.0535
12417W        W55408  24.892   7.521   1.326  0.0924  0.0805  0.0928
12418W        W55409  30.698  24.411   2.894  0.2070  0.0874  0.2217
12419W        W55410  33.945  27.285  20.673 -0.1723 -0.1260  0.0467
12420W        W55411  28.555   6.886  19.106  0.2529  0.1306  0.3099
12421W        W55412  12.991  25.701  20.864  0.1033  0.1381  0.1868
12422W        W55413  16.070  24.086  27.688 -0.2487  0.0859  0.1206
12423W        W55414  17.998   8.578  24.466 -0.3443 -0.3642 -0.0410
12424W        W55415   5.430   1.652   6.279  0.0429 -0.2003 -0.2075
12425W        W55416  26.041   1.940  16.385 -0.1794 -0.1480 -0.0211
12426W        W55417  16.809  25.950  19.271  0.1325  0.0922 -0.1277
12427W        W55418  20.110  33.326  20.201  0.0918  0.1135  0.3005
12428W        W55419  10.909  22.885  27.865 -0.2624 -0.0833  0.3932
12429W        W55420  20.850  25.614  25.015 -0.1669 -0.1620 -0.1527
12430W        W55421   7.438   6.010  27.871  0.1343 -0.1279  0.1787
12431W        W55422  30.041  32.971  26.878 -0.3448 -0.2036  0.2419
12432W        W55423  16.232  24.287  24.976  0.0215 -0.2088  0.0008
12433W        W55424   7.481  10.103  25.079  0.2934  0.1546  0.2660
12434W        W55425  31.241  34.396  22.303 -0.3455  0.0570  0.1346
12435W        W55426  21.735  21.872  12.833  0.0386  0.0362 -0.3171
12436W        W55427   5.402  26.175  25.527  0.0738 -0.0098 -0.2658
12437W        W55428   0.417  20.871   1.619 -0.1241  0.0745  0.0945
12438W        W55429  14.945  23.876  13.997  0.0473 -0.2637 -0.2018
12439W        W55430  28.194  30.288  22.623  0.0078 -0.0473  0.0083
12440W        W55431  25.221  22.880  16.915 -0.2130 -0.2226 -0.1107
12441W        W55432  11.004  15.153   0.247 -0.0136  0.0130 -0.2730
12442W        W55433  17.415  20.527  22.196 -0.0244 -0.1258  0.1492
12443W        W55434  16.528  19.692  15.377  0.0884  0.3489  0.1985
12444W        W55435  33.948  28.799  18.674  0.0618  0.0394 -0.1136
12445W        W55436  25.126  13.083  25.481  0.1132  0.0278 -0.1477
12446W        W55437   3.385  26.473  19.376  0.0654 -0.2021  0.1569
12447W        W55438  27.080   5.303  24.296  0.0076  0.1029  0.1368
12448W        W55439  21.378  13.930  22.048 -0.1375  0.0282 -0.1056
12449W        W55440  17.278   6.857  18.569 -0.2039 -0.1059  0.1064
12450W        W55441  28.352  25.248  27.979 -0.0604  0.0014  0.3240
12451W        W55442  32.231  28.000  18.406 -0.0958  0.1416  0.0306
12452W        W55443  22.159  30.958  26.795 -0.1308  0.0465 -0.0296
12453W        W55444  32.409  20.558  19.370 -0.0007 -0.0228  0.1378
12454W        W55445   9.850  29.652   6.405  0.2961  0.0801 -0.0859
12455W        W55446   8.379  32.601  23.789 -0.4533 -0.0366 -0.1310
12456W        W55447  18.061  25.769  16.921  0.1988 -0.2224 -0.2113
12457W        W55448  30.218  32.515  22.811  0.1411  0.0184 -0.1318
12458W        W55449  26.726   6.965  24.946 -0.3873 -0.1487 -0.2252
12459W        W55450  14.730  21.497   3.857  0.0169  0.3234 -0.4379
12460W        W55451  15.452  34.640  25.403  0.0617 -0.0840 -0.2223
12461W        W55452  19.270  30.480  18.611 -0.2572  0.0592 -0.2277
12462W        W55453  30.550  25.555  28.532 -0.0135  0.0287  0.0717
12463W        W55454  34.097  26.309  14.412 -0.2268 -0.1683  0.0649
12464W        W55455   9.274  29.753   6.977 -0.1882 -0.0911 -0.0944
12465W        W55456  34.547  24.332  21.504  0.0591  0.0214 -0.1296
12466W        W55457  14.467  18.575  28.249  0.2991 -0.2619  0.0693
12467W        W55458  28.150  32.564   0.278  0.1058 -0.0650 -0.0673
12468W        W55459  34.237  20.718  22.704 -0.1748 -0.0977 -0.0893
12469W        W55460  23.631  24.938  22.059 -0.1030 -0.2213  0.0569
12470W        W55461  23.716  33.964  16.355  0.0323  0.0970 -0.2546
12471W        W55462   5.715  30.744  16.765  0.0689 -0.2729 -0.2980
12472W        W55463   7.271  21.064   1.026  0.0027  0.2715 -0.1182
12473W        W55464  25.134  24.557   8.831 -0.3357  0.0308  0.1669
12474W        W55465  20.376  20.862  22.082 -0.0775 -0.1941 -0.1867
12475W        W55466  19.652  18.338  27.401 -0.1830  0.1102  0.1388
12476W        W55467   5.462  32.677   3.216 -0.1336  0.1641  0.0888
12477W        W55468  19.252  28.211  13.389 -0.1944  0.4080 -0.2101
12478W        W55469  24.539  18.084  21.359 -0.0728 -0.2812  0.1284
12479W        W55470  17.689  18.248  26.684 -0.0105  0.0148 -0.0472
12480W        W55471  27.137  15.134  23.646 -0.3656 -0.3257  0.1287
12481W        W55472  28.303  34.552  24.350  0.1339  0.1123 -0.2720
12482W        W55473  22.934   9.469  15.244  0.1625  0.2953  0.0985
12483W        W55474  33.848  23.848  26.616  0.0180 -0.5327  0.0298
12484W        W55475  18.706   3.457  20.756  0.2185 -0.2837  0.2000
12485W        W55476  20.088  20.387  14.510  0.1114 -0.0962 -0.2306
12486W        W55477  15.040   7.435   4.159  0.2288 -0.1712 -0.0606
12487W        W55478  14.557  33.225  16.641  0.2557 -0.1147 -0.0450
12488W        W55479  19.032   5.304  21.533  0.1036 -0.1507 -0.0249
12489W        W55480  26.483  26.944  14.619 -0.1773  0.2208 -0.1353
12490W        W55481  18.287  17.956  13.790  0.0805 -0.0256 -0.1052
12491W        W55482  14.586  21.094  22.942 -0.0466  0.1487 -0.0800
12492W        W55483  27.025  33.272  21.924 -0.0959 -0.1290  0.0272
12493W        W55484  10.871  26.355  14.543 -0.1999 -0.0880  0.0003
12494W        W55485  32.212   8.138  17.062  0.1643 -0.3492 -0.0067
12495W        W55486  20.535  29.069  13.480 -0.0050 -0.0245 -0.3415
12496W        W55487   9.351  26.570  19.869  0.1116 -0.1776 -0.0340
12497W        W55488  17.577  14.326  14.081 -0.1785  0.1133 -0.0601
12498W        W55489  18.016  24.594  23.951  0.0525  0.2113 -0.1977
12499W        W55490  32.143   1.936  14.425 -0.0512  0.1495 -0.3364
12500W        W55491  29.071  20.905  13.659  0.3109 -0.2011 -0.2927
12501W        W55492   3.483  26.159  17.047  0.0864 -0.2447 -0.2023
12502W        W55493  27.508   2.124  24.316  0.0252 -0.1357  0.3185
12503W        W55494  28.010  31.834  28.577  0.1787  0.0659 -0.3939
12504W        W55495   0.151   7.439   4.445 -0.1836  0.0390 -0.0821
12505W        W55496  20.083   8.407  21.183 -0.1493  0.0786 -0.1969
12506W        W55497   9.555  33.952  26.809 -0.0267  0.0972 -0.2965
12507W        W55498  22.243   5.807   3.103  0.1744 -0.1709 -0.0983
12508W        W55499  34.684  29.331  15.869  0.0327  0.1694  0.0430
12509W        W55500  23.329  34.685  15.385 -0.0787 -0.3060  0.1544
12510W        W55501   5.688   4.762   3.305  0.1478  0.3065  0.3060
12511W        W55502  25.081  26.961   1.666 -0.5339 -0.3846  0.0419
12512W        W55503   8.970  30.008  21.465  0.2832 -0.1145 -0.2312
12513W        W55504   7.266   3.895  21.702  0.0486  0.0212  0.0251
12514W        W55505   3.493  21.318  15.775 -0.1754 -0.0590  0.0343
12515W        W55506  17.838  34.437  15.972 -0.1734  0.0841 -0.2675
12516W        W55507  11.460   0.542   3.241 -0.0728 -0.4465  0.1658
12517W        W55508   1.660  26.541  20.593  0.1041 -0.0775 -0.0562
12518W        W55509  23.750  14.784  18.546  0.0673 -0.1323 -0.0480
12519W        W55510   1.525  32.342  22.635  0.0455  0.1040 -0.0156
12520W        W55511  13.863   6.368  19.135  0.2196 -0.1594 -0.0824
12521W        W55512   2.115  24.881  21.778 -0.0272 -0.1504  0.2719
12522W        W55513  32.338  12.149  16.998  0.0559  0.0091  0.2017
12523W        W55514   9.084   2.450  18.932  0.0618 -0.0763 -0.1142
12524W        W55515   8.287  19.114  20.229  0.1886  0.3086 -0.1426
12525W        W55516  23.258  29.000  13.920  0.0022 -0.0020  0.0615
12526W        W55517   5.191  31.448  21.373 -0.0630 -0.3546  0.2187
12527W        W55518  32.670  20.123  10.532  0.1148 -0.0872  0.3696
12528W        W55519  32.361  26.099  23.821 -0.0911  0.1770  0.0253
12529W        W55520  28.344   6.589  18.414 -0.0389  0.2735  0.1119
12530W        W55521  25.848   2.143  24.987  0.0139 -0.1803 -0.1324
12531W        W55522  21.109   5.922  14.421 -0.1408 -0.2064 -0.0967
12532W        W55523  17.718   3.194  23.817  0.1809  0.1363  0.2838
12533W        W55524   3.180  22.050  16.635  0.2126  0.0913  0.1631
12534W        W55525  24.924  25.827  16.364 -0.1133 -0.0193  0.0700
12535W        W55526  20.673  31.682  15.556  0.0561  0.2020  0.0542
12536W        W55527  13.320  32.456  14.438 -0.0332  0.1418 -0.1771
12537W        W55528  18.010  32.783   6.602  0.0672 -0.2310 -0.0891
12538W        W55529  16.469   7.770  27.977 -0.1581 -0.3254 -0.1904
12539W        W55530  17.872  26.067  25.212  0.1183  0.0119  0.1372
12540W        W55531  17.275  28.436   2.467  0.0381  0.2548 -0.1707
12541W        W55532  21.985   1.828  25.531 -0.0128 -0.1344  0.0509
12542W        W55533  22.641   3.687  17.429  0.2717  0.0354 -0.1235
12543W        W55534   0.939  31.491  22.775  0.1387 -0.1840 -0.2541
12544W        W55535  31.664  23.167  20.002  0.2011 -0.1935 -0.3720
12545W        W55536  25.647  19.481   9.063 -0.2689  0.0456  0.4082
12546W        W55537   6.542  31.705   1.826 -0.1569  0.3768 -0.2127
12547W        W55538  15.331  13.292   5.819  0.3227  0.0094  0.0238
12548W        W55539  21.429  29.580   4.875  0.1253 -0.2873 -0.0661
12549W        W55540  15.977  29.575  19.204 -0.0930  0.3087 -0.1533
12550W        W55541  27.695  27.177  23.236  0.1386  0.0261  0.1059
12551W        W55542   3.633  17.048  19.555  0.0965 -0.0828 -0.0409
12552W        W55543   0.928   5.370  18.813  0.0563 -0.2398 -0.1516
12553W        W55544  26.551  17.240   4.127 -0.3393  0.0391  0.2333
12554W        W55545  30.840   5.516   2.006 -0.1993 -0.1317 -0.0686
12555W        W55546   4.095  34.306   7.107  0.3910  0.2204 -0.1486
12556W        W55547  16.668  24.985   1.885 -0.0663  0.0194 -0.1574
12557W        W55548  17.947  27.530  21.979 -0.1070  0.2595 -0.0264
12558W        W55549  18.128  33.750  15.473 -0.0988 -0.1126  0.3031
12559W        W55550  18.933  19.615  12.591 -0.2213 -0.2229 -0.3174
12560W        W55551   7.511  27.707   1.124  0.1003 -0.1282 -0.1666
12561W        W55552  21.340  30.470  20.359 -0.0190  0.0633  0.3144
12562W        W55553  30.011  18.180  14.896  0.2647 -0.0572 -0.1454
12563W        W55554  28.620  27.112  15.063  0.0868 -0.0457  0.0273
12564W        W55555  31.967   3.372   2.022 -0.1046  0.3769 -0.2200
12565W        W55556  26.129  29.269   0.406  0.2193  0.0330  0.1066
12566W        W55557   1.715  19.959  16.504  0.1406 -0.1578  0.0703
12567W        W55558  19.417  27.127  24.735 -0.0977  0.0456 -0.1885
12568W        W55559  12.196  31.025  28.897  0.5315 -0.1376  0.1136
12569W        W55560  13.463  31.930   0.990  0.0896  0.0735  0.0619
12570W        W55561   4.775  26.744  23.484 -0.0766 -0.4175  0.1267
12571W        W55562   4.279  28.875  28.699  0.1469  0.0909  0.0299
12572W        W55563  24.586  17.789  15.400 -0.1590  0.0066  0.0249
12573W        W55564  23.173  18.189  19.890  0.1208  0.1703 -0.0323
12574W        W55565  25.171   1.191  15.975  0.1324  0.1858  0.2204
12575W        W55566  11.087  32.655   5.356  0.2130  0.0704 -0.3803
12576W        W55567  26.397   5.021   3.468 -0.0776 -0.0475 -0.1805
12577W        W55568  23.633   3.842  16.719 -0.0172 -0.1109 -0.0374
12578W        W55569  26.633  34.697   0.638  0.0957 -0.0474 -0.0639
12579W        W55570  19.201   5.892  28.955 -0.1957 -0.0950 -0.0147
12580W        W55571  10.203  31.880   8.652 -0.1218  0.0693  0.2020
12581W        W55572   6.471  31.205   1.622  0.0206 -0.1505  0.2672
12582W        W55573  33.583   6.162  23.767 -0.1518 -0.1140  0.0466
12583W        W55574  26.887  30.835   5.109 -0.2501  0.2426  0.2202
12584W        W55575  20.471  26.509   2.679  0.0971 -0.1370 -0.0104
12585W        W55576  25.560  23.330  15.983 -0.1423 -0.0329 -0.3288
12586W        W55577   4.215  28.238   2.256 -0.2477  0.1360 -0.1278
12587W        W55578  21.124   8.739  20.891 -0.2654 -0.1909 -0.0840
12588W        W55579  19.792  18.024  22.178  0.0702 -0.2739  0.1983
12589W        W55580  14.959   2.322  26.881 -0.2289  0.1746  0.0554
12590W        W55581  22.078  22.461  16.709 -0.2257  0.2225  0.0943
12591W        W55582  30.870  33.371   7.849  0.1040  0.4463  0.0335
12592W        W55583  19.594   6.028  24.943 -0.5667  0.4930  0.0529
12593W        W55584  13.687   0.273  18.028  0.2952 -0.0676 -0.0647
12594W        W55585  28.618   6.764  14.460 -0.1326 -0.2267 -0.2633
12595W        W55586  31.461   7.274  21.518  0.2190  0.3331  0.0282
12596W        W55587  32.930  23.494  19.072  0.0146 -0.1353  0.0358
12597W        W55588   5.195   3.225   2.559 -0.3221 -0.1580  0.1171
12598W        W55589  19.725  24.866   1.958  0.1141  0.0619 -0.0059
12599W        W55590  33.328  32.742  17.108 -0.1445 -0.0412 -0.2693
12600W        W55591  19.102   9.652  22.109 -0.1964  0.1729 -0.0379
12601W        W55592  19.775   5.866  27.330 -0.0097  0.0554  0.0025
12602W        W55593  15.837  28.980  19.155 -0.3060  0.1034  0.0832
12603W        W55594  27.098  21.801  28.512  0.0694 -0.1693 -0.0741
12604W        W55595  29.949   1.588  26.919  0.1953  0.1670 -0.2300
12605W        W55596  13.227   2.811  17.034 -0.4033  0.1316 -0.1187
12606W        W55597  21.820  28.603  22.401  0.0497  0.2210 -0.0235
12607W        W55598  27.843  31.159  19.445 -0.0228 -0.1023 -0.0419
12608W        W55599   0.615  24.569  19.960  0.0821  0.5662  0.3205
12609W        W55600  14.293  10.941  14.785 -0.0904 -0.0883 -0.0849
12610W        W55601  34.022  31.864   2.334  0.1487 -0.0415 -0.2186
12611W        W55602  11.731  14.885   4.170 -0.3379  0.0508  0.1538
12612W        W55603  25.752  10.054  15.930  0.0756 -0.0028  0.0676
12613W        W55604   0.687  16.616  25.055  0.0875  0.3317  0.0778
12614W        W55605  14.131  28.033   9.131  0.2937  0.2183 -0.1466
12615W        W55606   5.493  31.362  13.978  0.0275 -0.0849  0.1254
12616W        W55607  25.765  20.337  13.717  0.1262 -0.3287 -0.2264
12617W        W55608   4.686  21.837  25.690  0.0988  0.0991 -0.0379
12618W        W55609  28.540  11.499  20.569  0.2161 -0.3261 -0.0475
12619W        W55610   8.764  28.195  14.703  0.0476  0.2208 -0.0405
12620W        W55611  12.783  31.832   7.163 -0.0440  0.0453  0.0714
12621W        W55612  20.403  32.065  26.126 -0.1187  0.0886  0.1654
12622W        W55613  21.608  31.387  23.654 -0.0024  0.0062  0.5753
12623W        W55614   2.629  33.440  23.270  0.2442 -0.1520 -0.0951
12624W        W55615  30.720  18.971  20.842  0.0357  0.3422 -0.1903
12625W        W55616  27.076  28.034   0.206 -0.0108 -0.0678 -0.0086
12626W        W55617  33.706  24.855  14.598  0.2412 -0.1531 -0.0884
12627W        W55618  26.418  33.296  26.327 -0.3512 -0.1813 -0.0658
12628W        W55619  13.969  22.146   1.301  0.3915  0.0644 -0.1160
12629W        W55620  13.427   3.460  26.025 -0.5121 -0.3542 -0.1548
12630W        W55621  17.082  31.521  25.620  0.2088 -0.1626  0.0398
12631W        W55622  26.643  26.665  28.044 -0.0222 -0.2062  0.1977
12632W        W55623  30.936  12.832  27.620 -0.0178 -0.5273 -0.0794
12633W        W55624  28.394  24.901  26.306 -0.1618 -0.4831 -0.0685
12634W        W55625  31.446   1.793  16.200  0.0493  0.1165 -0.0992
12635W        W55626  25.510  31.621  23.546 -0.2156 -0.0252  0.0267
12636W        W55627  21.112   7.264  26.199 -0.0766  0.0570 -0.0514
12637W        W55628   5.055  19.232  10.805  0.0463  0.2555  0.1733
12638W        W55629  31.090   4.860  24.217 -0.0044  0.1487 -0.1152
12639W        W55630  19.193  29.631  18.027  0.0418 -0.1116  0.0298
12640W        W55631  19.807  30.979  20.914  0.0726 -0.2732  0.0213
12641W        W55632  30.141  23.763  24.946 -0.0646  0.1604  0.0597
12642W        W55633  26.898  31.348   6.734  0.1280 -0.1491  0.1011
12643W        W55634  29.101   6.456  24.235 -0.1409  0.0054  0.1720
12644W        W55635  17.262  15.635   4.970  0.0438 -0.0485 -0.2237
12645W        W55636  22.861  33.839  15.751 -0.1183  0.0012 -0.2381
12646W        W55637  33.810  15.339  17.183 -0.0948  0.2107  0.0037
12647W        W55638  33.855  28.811   0.171 -0.1594 -0.1413  0.2477
12648W        W55639  24.262  28.227  13.810 -0.0422  0.1990  0.1106
12649W        W55640  18.465  22.474  24.842  0.1125  0.0889  0.0630
12650W        W55641  19.302  20.554  24.938 -0.1428 -0.1849 -0.0314
12651W        W55642  28.812  20.611  16.681 -0.3954 -0.3628 -0.1403
12652W        W55643  18.626  28.945  16.992  0.1044 -0.0088 -0.0513
12653W        W55644  11.767  21.555  26.742  0.2611 -0.0018 -0.2194
12654W        W55645  19.899  27.823  26.938 -0.4286  0.0764 -0.0929
12655W        W55646  27.015  29.844  19.425 -0.2052 -0.0645 -0.0931
12656W        W55647   3.894   4.956  24.553 -0.0259 -0.0608 -0.0559
12657W        W55648  32.139   1.466  20.307 -0.0115  0.1916  0.2417
12658W        W55649  17.960   5.065  18.138  0.1591 -0.1597 -0.0435
12659W        W55650  29.789   6.561  18.173 -0.1205  0.2159  0.0230
12660W        W55651  22.213   5.486  19.526 -0.2116 -0.0160  0.1494
12661W        W55652  17.555  33.213  14.156 -0.2930  0.2779  0.0312
12662W        W55653  29.931  12.429   5.472 -0.1269  0.1512  0.0603
12663W        W55654  21.499  28.819  27.159  0.0514  0.3266  0.0232
12664W        W55655  16.350  32.142   4.344  0.2052  0.2552  0.3821
12665W        W55656  12.296  24.238   0.223 -0.2169 -0.2238 -0.1315
12666W        W55657  24.099  24.103  16.873  0.3059  0.1365 -0.0422
12667W        W55658  21.911  23.290  21.137  0.0316 -0.2609  0.1023
12668W        W55659   4.712  25.639  27.075 -0.0715  0.2448 -0.1845
12669W        W55660   6.772  23.580  19.214  0.0104  0.1053 -0.0664
12670W        W55661  34.342  11.085  26.341 -0.0895 -0.0482 -0.2386
12671W        W55662  12.540   6.943  23.029 -0.1099 -0.1586 -0.3056
12672W        W55663  20.354  33.146   1.797  0.3498 -0.0374  0.1677
12673W        W55664  32.171   1.924  21.301  0.3008  0.0369 -0.2982
12674W        W55665  28.158   1.196  20.809  0.0491 -0.1533  0.0656
12675W        W55666  21.536  28.747  14.472 -0.1437  0.0436 -0.2042
12676W        W55667   0.336  29.857   0.069 -0.1084 -0.2080 -0.1584
12677W        W55668  20.642   5.034  27.126  0.1291  0.1906 -0.2863
12678W        W55669   7.782  23.499  19.364  0.1522  0.0721  0.1251
12679W        W55670  23.285  34.598  18.832 -0.4164 -0.1125 -0.0617
12680W        W55671  26.103   0.445  21.375 -0.0812 -0.0724 -0.0819
12681W        W55672  32.504  33.291  18.994  0.0678  0.0600  0.1133
12682W        W55673  29.866   4.359  22.214 -0.0110 -0.0810 -0.2643
12683W        W55674  15.961  27.988  20.717 -0.3076 -0.1001  0.3705
12684W        W55675  12.027  16.405  24.990  0.1354 -0.0533 -0.3090
12685W        W55676  22.367  22.891   3.223  0.3404  0.0443 -0.1795
12686W        W55677  19.287  24.813  26.651 -0.0682 -0.2073 -0.2562
12687W        W55678  23.330  12.184  28.713 -0.1385 -0.0359 -0.0243
12688W        W55679  17.636  19.317   7.423 -0.2331 -0.2198  0.0692
12689W        W55680   1.616   9.116   5.161  0.0437 -0.1772  0.0517
12690W        W55681  27.397  23.672  19.109 -0.1595  0.2040 -0.2705
12691W        W55682  26.608  32.819  14.386 -0.0078  0.1741  0.2655
12692W        W55683  34.038  27.737  15.951  0.1603 -0.0116 -0.2679
12693W        W55684   3.758  26.657  25.692  0.2069  0.1980 -0.1144
12694W        W55685   3.109  29.924  13.854  0.0004  0.0382 -0.3247
12695W        W55686  24.242  32.537  25.658  0.0208 -0.0009  0.4184
12696W        W55687   5.899  13.657  21.562 -0.2272  0.0192  0.1004
12697W        W55688  31.742   7.756  15.433  0.1382 -0.2815  0.1044
12698W        W55689  22.421  31.315  21.106  0.0365  0.1919 -0.1664
12699W        W55690  25.544  19.580  26.477 -0.0262 -0.0788  0.1616
12700W        W55691  24.406  17.043  22.581 -0.0183  0.0230 -0.0603
12701W        W55692  14.875  29.303  22.119  0.1152 -0.2347 -0.0243
12702W        W55693  21.995   1.262  22.622  0.1444  0.0207  0.0803
12703W        W55694  29.455  32.317  22.313 -0.1149 -0.0150  0.2732
12704W        W55695  25.199  27.207  17.603 -0.1318  0.2350 -0.2784
12705W        W55696  31.496  24.827   6.278  0.0745  0.1167  0.0487
12706W        W55697  28.906  32.002  22.443 -0.2623  0.2961  0.1318
12707W        W55698  24.496   5.521  21.224  0.3769  0.0863  0.0532
12708W        W55699  26.728  28.403  25.687  0.1617  0.0358 -0.2983
12709W        W55700  29.529   5.842  21.524 -0.0340  0.1368  0.0437
12710W        W55701  22.775   6.621   1.206  0.1134 -0.0661  0.0717
12711W        W55702  24.734  15.697  15.925  0.1550  0.0732  0.3243
12712W        W55703   1.093  29.465  24.186 -0.2793 -0.0328  0.0093
12713W        W55704  23.659   0.429  16.962  0.0080 -0.0554  0.1538
12714W        W55705  20.949  29.381  24.619 -0.0669  0.1556 -0.0414
12715W        W55706  10.315  33.905  21.569  0.2327  0.1346 -0.3560
12716W        W55707   4.485   6.835  11.895 -0.2818  0.4207  0.3682
12717W        W55708  32.549  24.297  14.284 -0.0014  0.1295  0.1900
12718W        W55709   8.731  15.011  22.872 -0.0930  0.1883  0.2393
12719W        W55710  31.008   0.417  27.425 -0.1915  0.0152  0.0358
12720W        W55711  19.252  25.424   8.949  0.1369  0.2053 -0.3029
12721W        W55712  30.398  10.214  26.182  0.0544  0.0938  0.2848
12722W        W55713  19.490  33.604  21.193 -0.2227  0.1930 -0.2620
12723W        W55714   3.940  25.346  16.690 -0.2532 -0.4746  0.3268
12724W        W55715  30.144  21.321  26.125 -0.0763  0.1775 -0.1573
12725W        W55716  31.887   1.094  20.463  0.1326 -0.4591  0.3151
12726W        W55717  32.199  26.225  15.849 -0.1287 -0.3542  0.2754
12727W        W55718  21.010   0.532  18.304  0.0024  0.3857 -0.0587
12728W        W55719  16.379  32.124   3.510 -0.2716 -0.2450 -0.3305
12729W        W55720  25.209  31.801  18.933  0.0146  0.4258 -0.0019
12730W        W55721   8.324  26.558  19.541 -0.0313  0.2381  0.0062
12731W        W55722  16.057  34.182  24.589  0.0633 -0.0264 -0.1300
12732W        W55723  34.781  33.939   7.673  0.1168 -0.2776 -0.0698
12733W        W55724  23.679  29.564  15.482 -0.0768 -0.1101 -0.2402
12734W        W55725   8.472  19.827  16.909  0.0361 -0.3094 -0.1349
12735W        W55726  24.067   1.263  15.303  0.2377  0.0125  0.3451
12736W        W55727  16.412  29.415  27.822  0.0198 -0.3780 -0.0633
12737W        W55728   2.325  22.874  21.075  0.3022  0.0025  0.1983
12738W        W55729  23.460  11.663  20.565 -0.2645 -0.0879  0.0734
12739W        W55730  14.563   4.147  16.876  0.0180  0.0514  0.1061
12740W        W55731  27.119  19.084  24.659  0.1579  0.0192  0.1111
12741W        W55732  15.999  34.470  16.067 -0.3040 -0.1151 -0.2216
12742W        W55733   7.064   2.314  16.913 -0.2017  0.1262  0.1937
12743W        W55734  19.058  23.616  26.629 -0.0694 -0.0526  0.3608
12744W        W55735  22.429  21.540  27.500  0.1171 -0.2452  0.2604
12745W        W55736  17.608  31.550  28.538 -0.0528 -0.0540  0.0319
12746W        W55737  10.634   1.072   8.031 -0.0664  0.0257  0.0931
12747W        W55738  24.477   3.425  19.736 -0.2306  0.0187 -0.0669
12748W        W55739  29.144   0.451  14.030 -0.0230 -0.1054 -0.1196
12749W        W55740  13.436  32.057   2.406 -0.0813 -0.2052  0.2175
12750W        W55741  29.830  23.876  18.321  0.1070 -0.2151 -0.0037
12751W        W55742  27.755  13.089  15.480  0.2452  0.1495 -0.0519
12752W        W55743  17.099  22.783  22.694  0.4294  0.0516  0.0779
12753W        W55744  21.951  20.935  23.200 -0.1948 -0.2100 -0.1695
12754W        W55745  26.131  16.089  18.241  0.0886 -0.0285  0.1439
12755W        W55746  27.006  29.116  14.979 -0.2462  0.0933 -0.0127
12756W        W55747  25.754  20.276  15.630  0.3620 -0.0590  0.3110
12757W        W55748  34.455  26.939   0.313 -0.1108  0.1822  0.1935
12758W        W55749  29.893  22.961  14.731 -0.1858 -0.1522  0.3470
12759W        W55750  20.466  31.533  15.966  0.0192  0.0174 -0.2243
12760W        W55751  30.519   0.404   1.224  0.1631 -0.2324 -0.1485
12761W        W55752  22.907  30.135  23.931  0.0717  0.1442 -0.0024
12762W        W55753  15.079  22.713   8.221 -0.1433  0.1148 -0.0945
12763W        W55754   7.380  31.224  17.460 -0.1469  0.0671 -0.0263
12764W        W55755  29.228  12.671   4.818  0.1840  0.0459  0.1003
12765W        W55756  11.826  33.181   0.682  0.1946  0.2133 -0.0196
12766W        W55757  23.175  27.119   1.351  0.0174 -0.1595 -0.0015
12767W        W55758  33.222   2.812  27.860 -0.0698 -0.0505 -0.1296
12768W        W55759  22.978   3.189  22.376  0.1036 -0.2350 -0.0820
12769W        W55760  12.873  21.431   3.679 -0.3859  0.0674  0.1447
12770W        W55761  15.697  33.187  26.346  0.0165  0.0862 -0.3530
12771W        W55762   3.068   5.981   8.524  0.2555  0.0796  0.0307
12772W        W55763  17.950  15.429  14.877  0.2871 -0.1607  0.1389
12773W        W55764  24.138   9.504  20.392 -0.1851 -0.0744  0.1079
12774W        W55765  28.997   4.661  16.025  0.0234 -0.0412 -0.1337
12775W        W55766  21.741  20.919   8.074 -0.4545  0.0977  0.0464
12776W        W55767  15.831   3.286  15.316  0.0565  0.1680 -0.0736
12777W        W55768  14.589  32.706  17.435 -0.0777  0.1897 -0.0455
12778W        W55769  26.626  27.985   7.550  0.1481 -0.1625  0.1044
12779W        W55770  25.341  23.349   0.602 -0.0253  0.0261 -0.2823
12780W        W55771  14.351  23.664   3.974 -0.0040  0.1431  0.0023
12781W        W55772  14.662  23.023   1.428  0.3338  0.1840 -0.0899
12782W        W55773  20.466  33.159  28.168  0.0333 -0.0773  0.0180
12783W        W55774  19.777   3.886   1.784  0.1252 -0.1267  0.0018
12784W        W55775  22.240  30.171  18.990 -0.1631 -0.0661 -0.0609
12785W        W55776   5.070   7.724   9.963 -0.0385  0.0510 -0.0131
12786W        W55777  28.641  34.544  20.373  0.0219  0.1937  0.0871
12787W        W55778  20.822  14.823  18.788  0.0028 -0.4748 -0.1004
12788W        W55779  15.267  21.288  21.836 -0.3393  0.0259  0.2293
12789W        W55780   7.068   0.533   8.997  0.0762 -0.1270  0.1794
12790W        W55781   1.555   9.313   6.579 -0.0385 -0.0760 -0.2887
12791W        W55782  19.342   2.958  25.810 -0.1813  0.1228  0.0648
12792W        W55783  25.718  21.687   1.463 -0.4052 -0.0326 -0.1040
12793W        W55784  24.692  31.196  23.167 -0.0666 -0.0635  0.1329
12794W        W55785  31.867  15.843  23.474 -0.1428  0.0220 -0.1056
12795W        W55786   9.198  30.116  28.186 -0.1413 -0.2677  0.0036
12796W        W55787   8.501  27.225  19.083 -0.1276 -0.1417 -0.1875
12797W        W55788  33.310   4.523  21.148  0.3607  0.2302  0.2275
12798W        W55789   1.335  20.260  17.052  0.1030  0.1842 -0.2622
12799W        W55790   0.927   7.852  26.037 -0.0270  0.2498 -0.2345
12800W        W55791  29.275  13.806  25.288  0.0732 -0.1276 -0.1513
12801W        W55792  32.325   6.784   1.159 -0.1484 -0.0142 -0.2660
12802W        W55793  19.174  10.536  21.637  0.2638 -0.0175 -0.1945
12803W        W55794  16.828  10.801  15.325  0.0413 -0.0160 -0.1414
12804W        W55795  12.833   2.937  20.016  0.2732  0.0140  0.1101
12805W        W55796  29.194  34.520  14.965  0.6382  0.0990 -0.0954
12806W        W55797  10.188  23.363  15.072  0.2536  0.4014  0.3782
12807W        W55798  25.649  29.172  20.569  0.2035 -0.1036  0.1276
12808W        W55799  19.076  24.956  22.598  0.0430  0.1637  0.3966
12809W        W55800  24.497  29.532  18.813  0.3398 -0.2718  0.2282
12810W        W55801  21.885   3.264  20.136 -0.1386 -0.0356  0.0132
12811W        W55802  19.298  21.564  24.356  0.0776 -0.1104  0.0914
12812W        W55803  32.590  34.532  22.952 -0.1127  0.1616  0.1424
12813W        W55804  21.330   3.937  29.238 -0.0534 -0.0006  0.2568
12814W        W55805  21.370  21.650  13.158 -0.1372  0.1503  0.0207
12815W        W55806  19.357  33.287  28.058  0.2596  0.1582 -0.0077
12816W        W55807  19.636  32.126  28.286 -0.2126  0.0328 -0.5037
12817W        W55808  20.185  34.552   0.941  0.0658 -0.1523 -0.1092
12818W        W55809  22.977   0.272  27.359  0.0553  0.1965  0.1865
12819W        W55810   1.547   3.977  15.179 -0.4055  0.0966  0.0035
12820W        W55811  30.239   8.880   3.430  0.0663 -0.1405  0.0641
12821W        W55812  10.236  19.350  16.042  0.1412 -0.1270 -0.0533
12822W        W55813  13.588  26.786  18.063  0.2569  0.1315  0.1031
12823W        W55814  27.498  27.584   4.983  0.0575 -0.0926  0.3303
12824W        W55815  27.291   6.570   6.275 -0.0623  0.1685 -0.3499
12825W        W55816  10.634   3.910   0.742 -0.1902  0.0209  0.0566
12826W        W55817  11.995  22.263  26.410 -0.1296 -0.0003  0.0045
12827W        W55818  19.788   0.785  22.894  0.3853 -0.2392  0.2184
12828W        W55819  10.751  25.203   3.281 -0.1386 -0.0199  0.1914
12829W        W55820  17.039  20.776   2.464  0.0590  0.2996  0.0906
12830W        W55821   4.111  32.459  24.354 -0.1210 -0.0782 -0.0499
12831W        W55822  22.861  25.794  16.064 -0.0202  0.0322  0.1113
12832W        W55823  17.037  26.858  19.231  0.5091  0.3630 -0.3272
12833W        W55824  23.864  17.226  24.783 -0.1391 -0.1724  0.1135
12834W        W55825   1.733  13.658  21.736 -0.5437  0.2938 -0.0044
12835W        W55826  26.537  30.595  26.441  0.0462 -0.3163  0.0158
12836W        W55827  29.021  30.474  28.810 -0.0350 -0.2919  0.2088
12837W        W55828  10.442   3.376  25.099 -0.2478 -0.0186  0.1080
12838W        W55829  29.664   9.326  19.547  0.0145 -0.0322  0.2043
12839W        W55830  25.770  10.835   0.567  0.1168 -0.1594 -0.0402
12840W        W55831  18.106  30.638   5.623  0.1070  0.0188 -0.1082
12841W        W55832  23.140  31.071  27.418  0.1618 -0.0520 -0.1477
12842W        W55833  28.227  30.005   2.745 -0.3603  0.0811 -0.2313
12843W        W55834  16.132   3.794  18.456  0.0782  0.2373  0.0114
12844W        W55835  16.405  22.068   6.881  0.3404  0.0647 -0.1209
12845W        W55836  12.752  27.862   3.450 -0.1769 -0.2698  0.0193
12846W        W55837  23.143  32.004  25.304  0.1451 -0.1242  0.0753
12847W        W55838   9.561  33.831  24.110 -0.2310  0.2365 -0.0905
12848W        W55839   3.091  10.047   3.995 -0.0731 -0.0473  0.4017
12849W        W55840  30.927  23.753  19.507  0.1446 -0.0385 -0.1149
12850W        W55841  26.765  29.927  27.984  0.4244  0.3984 -0.2148
12851W        W55842  21.179  32.186  20.112  0.0427 -0.0248 -0.3005
12852W        W55843  14.061  32.364  15.592 -0.1405 -0.0344 -0.0670
12853W        W55844  19.327  24.890  28.314  0.0536 -0.1776  0.0061
12854W        W55845  19.490  28.670  26.225 -0.3986  0.4492 -0.0952
12855W        W55846  19.929  24.413  25.393  0.3074 -0.1557 -0.1203
12856W        W55847  33.261   8.989   1.424 -0.1688 -0.0284 -0.0904
12857W        W55848  27.113  10.484  22.913  0.0259 -0.2134 -0.0594
12858W        W55849  21.703   3.185  25.593  0.0583 -0.2658 -0.1941
12859W        W55850   5.353  26.182  14.740 -0.2848 -0.3307 -0.1590
12860W        W55851  31.366   9.487  17.920 -0.0420 -0.3449 -0.0058
12861W        W55852  28.726  26.920  16.861  0.3742 -0.0941 -0.1514
12862W        W55853  30.903  25.426  20.297 -0.4495  0.4039 -0.0951
12863W        W55854  27.061   6.567   0.172 -0.1875  0.0377 -0.1966
12864W        W55855  28.931  18.276  24.171  0.0738 -0.0695 -0.4388
12865W        W55856  17.426   9.403   6.829 -0.2383 -0.0219  0.1910
12866W        W55857  32.074   4.317  25.058  0.1426 -0.3270 -0.2318
12867W        W55858  12.249  18.960   1.816  0.1940 -0.0450 -0.4447
12868W        W55859   5.270   5.648  15.585  0.1391  0.0256  0.2192
12869W        W55860   0.063  34.736  25.144 -0.2997 -0.0270 -0.0013
12870W        W55861   8.799   4.809   4.832  0.3233  0.0077 -0.1115
12871W        W55862  14.549   1.005  26.176 -0.2800 -0.0484 -0.1434
12872W        W55863  27.216  27.354  23.388  0.0600  0.0419  0.1746
12873W        W55864  25.143   0.255   3.018 -0.1728  0.0302  0.0178
12874W        W55865  29.128  20.324  15.698 -0.2417 -0.2742 -0.2749
12875W        W55866  24.871  10.077  15.814  0.3179 -0.2761 -0.0381
12876W        W55867  25.958   9.383  28.763 -0.0478  0.2552  0.0494
12877W        W55868  17.123   6.582  26.093 -0.0268  0.0214 -0.2078
12878W        W55869  26.315  25.396  13.011 -0.0764 -0.0346 -0.1351
12879W        W55870  25.022   2.525   0.533 -0.0600  0.1056 -0.0456
12880W        W55871  14.033  28.118  16.442 -0.1667 -0.2030 -0.1424
12881W        W55872  32.176  17.626   0.134 -0.0289 -0.1515  0.0555
12882W        W55873  25.359  22.329  21.650 -0.3074 -0.1316  0.0915
12883W        W55874  28.324  16.340  16.031 -0.3689  0.0959  0.2360
12884W        W55875  26.045  34.494  19.983  0.2533  0.0865 -0.1212
12885W        W55876   9.798   3.471   0.791  0.0455  0.2334 -0.0885
12886W        W55877  17.021  20.526   0.102 -0.2138  0.2869  0.0136
12887W        W55878  29.252  28.947  12.874  0.2258 -0.0761 -0.1168
12888W        W55879  18.042   3.777  23.148 -0.0255 -0.1890 -0.0500
12889W        W55880   3.608  26.547   5.532 -0.0999  0.2355 -0.0746
12890W        W55881  14.385  22.763  24.029  0.1688  0.0882  0.2753
12891W        W55882   6.950   5.233  21.621  0.2092 -0.2236 -0.1195
12892W        W55883  29.489  25.179  25.547  0.1217 -0.1771  0.1340
12893W        W55884  13.111   3.015  22.201  0.0689 -0.2629 -0.2671
12894W        W55885  33.738  28.920  15.687 -0.2184 -0.1640 -0.1431
12895W        W55886  23.556  31.120   0.756  0.2094 -0.3134 -0.0652
12896W        W55887  25.328  22.980  23.535  0.0471  0.0189  0.1200
12897W        W55888  31.295   4.902  20.427 -0.1477 -0.1035 -0.0253
12898W        W55889  10.583  31.066   4.358  0.0981  0.1332  0.0100
12899W        W55890  19.027  28.186   2.766  0.1669  0.2160  0.1349
12900W        W55891  14.695  26.407  25.771  0.3651 -0.0952 -0.0359
12901W        W55892  18.659  34.611  23.766  0.0747 -0.1592 -0.1840
12902W        W55893  28.624  31.997  24.835  0.0358  0.0529  0.0503
12903W        W55894  19.055  30.849   4.197 -0.2301 -0.0278  0.2377
12904W        W55895  20.918  32.662  19.333 -0.2069  0.0020  0.1664
12905W        W55896  21.716  16.732  14.892  0.0828  0.2378 -0.1042
12906W        W55897  34.438  31.132   2.692  0.3272  0.0744 -0.1335
12907W        W55898  34.667  30.404  28.170 -0.1471 -0.2125 -0.0039
12908W        W55899  25.459   0.849  17.468 -0.0824  0.2711 -0.0456
12909W        W55900  19.117  30.182   8.721 -0.0591 -0.0053 -0.0993
12910W        W55901  26.759   9.535  22.973  0.0042  0.0091 -0.0385
12911W        W55902  13.723   1.722  18.705 -0.2963 -0.2137  0.2456
12912W        W55903   1.704  34.076  14.697 -0.0199 -0.0719 -0.0067
12913W        W55904  31.788  34.696  20.855  0.0669 -0.2886  0.1056
12914W        W55905   5.506  33.404  17.501  0.0364  0.0041 -0.3193
12915W        W55906  32.072   6.455  24.571 -0.0966 -0.0397 -0.0093
12916W        W55907  24.647  31.062  19.676  0.0000 -0.2764  0.0629
12917W        W55908  18.897  10.533   2.800  0.1314  0.1744 -0.0849
12918W        W55909  21.571  26.205  24.809  0.1809 -0.1343 -0.3178
12919W        W55910  16.009  20.839  13.447 -0.0578 -0.0915 -0.1310
12920W        W55911   3.321   6.158  25.363 -0.1088  0.1610  0.1753
12921W        W55912  19.965   3.088  22.303 -0.1556 -0.2304 -0.4432
12922W        W55913   1.992  30.583   9.196 -0.0177 -0.6153  0.0403
12923W        W55914   6.335  22.654  22.019 -0.1602  0.1296  0.0039
12924W        W55915  26.620   4.604  26.380  0.0371 -0.0107  0.2962
12925W        W55916  18.479  25.359   7.048 -0.2519  0.1147  0.3915
12926W        W55917  28.346   0.954  18.227  0.0473  0.5420 -0.0031
12927W        W55918  31.887  15.625  16.662 -0.2778  0.1917  0.1213
12928W        W55919  27.131  14.777  22.786 -0.0207  0.1453  0.0488
12929W        W55920  28.795  31.288  17.479 -0.0961  0.1734  0.2329
12930W        W55921  14.008  12.223  28.915 -0.2676 -0.2544  0.1811
12931W        W55922  27.983   9.836  18.814  0.3964 -0.0053 -0.0472
12932W        W55923  23.493  12.310   7.764 -0.2037  0.1372  0.0804
12933W        W55924   5.631   6.498  15.280  0.2035  0.1330  0.0987
12934W        W55925  21.479   3.234   4.485  0.1179 -0.2603  0.2187
12935W        W55926  22.528  16.336   6.011  0.2090  0.0264  0.1331
12936W        W55927  24.409   0.881  21.922  0.0015 -0.0018  0.1012
12937W        W55928  11.674  32.676   0.865 -0.0656 -0.1363  0.1217
12938W        W55929  32.756  30.312  21.565  0.1430 -0.2053 -0.0625
12939W        W55930  22.149   6.153  20.935 -0.1544  0.0019 -0.0170
12940W        W55931  20.313   7.769  18.855  0.3578 -0.1457 -0.0452
12941W        W55932   7.157  30.961   1.034  0.0902 -0.6618  0.4872
12942W        W55933  27.419   3.818  28.022 -0.2602 -0.1598  0.2508
12943W        W55934  19.766   2.250   6.050 -0.2109 -0.3980  0.0380
12944W        W55935   5.740  28.327  19.156 -0.1084  0.3007 -0.0555
12945W        W55936  25.501  32.266  12.735  0.0443 -0.0277 -0.0939
12946W        W55937  25.663  31.801  19.849 -0.1496 -0.2872  0.1891
12947W        W55938  11.963  32.084   2.511  0.1324  0.1587 -0.3152
12948W        W55939  19.941  34.767   1.401 -0.0558  0.0097  0.2163
12949W        W55940   4.057   0.420  18.430 -0.1934  0.0970  0.1648
12950W        W55941   6.951  11.822   7.152 -0.2520 -0.2873  0.3287
12951W        W55942  24.764   7.535  13.323 -0.1974  0.1536  0.1244
12952W        W55943  25.192  30.211  26.063 -0.0113  0.0651 -0.0495
12953W        W55944   3.864  27.692  21.237 -0.3435  0.0049  0.1426
12954W        W55945  16.347  29.564   6.300  0.1443 -0.3237  0.0695
12955W        W55946  24.280  15.351   8.412  0.0873 -0.3814 -0.2089
12956W        W55947  23.038  29.642   3.481 -0.1608 -0.1416  0.4345
12957W        W55948  29.260  15.693  26.417 -0.0052  0.0363 -0.1781
12958W        W55949  27.656  27.141  21.978 -0.1888  0.0731  0.2720
12959W        W55950  14.747  31.757  18.054  0.1792 -0.4848  0.0399
12960W        W55951   9.029  22.168  27.233  0.0879  0.2778 -0.3016
12961W        W55952  28.297  30.469  23.889  0.1900 -0.0291 -0.2283
12962W        W55953  25.675  25.172   6.273 -0.2310 -0.1063  0.1991
12963W        W55954   9.903  11.465  26.507  0.0076  0.3344  0.4499
12964W        W55955   4.379  30.579   3.255 -0.0249 -0.0919 -0.0984
12965W        W55956  25.032  20.061  29.252  0.1836  0.1394  0.1776
12966W        W55957  27.968  13.922  22.378 -0.2098  0.2305  0.3067
12967W        W55958  15.698   0.790  15.826 -0.0014 -0.2071  0.0113
12968W        W55959  16.043  11.769   6.366  0.2146  0.3136  0.0758
12969W        W55960  26.150  11.729   9.903 -0.0090  0.2295 -0.1529
12970W        W55961  24.749   3.009   6.876  0.2857  0.0066 -0.0145
12971W        W55962  26.878  28.671   1.984 -0.1341  0.4062 -0.1841
12972W        W55963  19.280  29.120  28.417  0.0942  0.1984  0.1254
12973W        W55964  24.815   4.996  19.231 -0.2616  0.1909  0.0293
12974W        W55965  31.563  20.802   0.835  0.0714 -0.2016 -0.3381
12975W        W55966  32.274   9.327   9.127 -0.0550  0.0718 -0.1197
12976W        W55967  26.206   9.338   5.609 -0.0783 -0.2050  0.1451
12977W        W55968   2.753  31.472   5.146  0.0403  0.1131 -0.0676
12978W        W55969  19.809   1.119   6.244 -0.1590 -0.0364 -0.1215
12979W        W55970   2.038  11.472  10.003 -0.0338  0.2376 -0.0347
12980W        W55971  20.960   1.766  24.636 -0.5074  0.2151  0.1281
12981W        W55972   0.835   4.423  23.942 -0.1409 -0.0844 -0.3279
12982W        W55973  24.383   8.540  15.281  0.0899  0.1168 -0.1802
12983W        W55974  21.620   2.962  27.621 -0.1171  0.2496 -0.0503
12984W        W55975   0.986   8.759  26.459 -0.1885  0.0396 -0.3043
12985W        W55976  16.497   8.812  20.636  0.1673 -0.1064 -0.0713
12986W        W55977  26.227  25.674   3.587 -0.0224  0.0190 -0.0269
12987W        W55978  31.874   6.091   0.199  0.0847  0.2351 -0.3617
12988W        W55979  28.317  18.293   6.362 -0.1333 -0.0117 -0.0878
12989W        W55980   3.777  26.370  28.161 -0.0934 -0.3515  0.2479
12990W        W55981  25.912  33.945   9.365 -0.2175  0.2662 -0.1917
12991W        W55982   6.853   7.954  28.181  0.0273 -0.2399 -0.2525
12992W        W55983  14.247  30.984  28.571 -0.1164  0.0762 -0.2128
12993W        W55984  31.117  21.952   0.119  0.5412 -0.1222  0.0514
12994W        W55985  26.859  29.646   7.961  0.0170  0.1392 -0.4056
12995W        W55986   3.018  31.141   2.513 -0.0205 -0.0877  0.1407
12996W        W55987  21.309  22.541  25.300 -0.1795 -0.1356  0.3460
12997W        W55988  30.106   3.369   4.410 -0.1834 -0.1668  0.0085
12998W        W55989  21.872   6.647  17.666  0.1378 -0.0809  0.0026
12999W        W55990  14.456  28.146   6.068 -0.5243 -0.0435  0.1058
13000W        W55991  10.112  26.366   2.153 -0.1344 -0.1224  0.3484
13001W        W55992  21.817  24.154  14.439 -0.2576  0.1227  0.0218
13002W        W55993  30.013   6.386  17.131 -0.1012  0.0461 -0.1464
13003W        W55994  33.253   0.851  18.689 -0.2649  0.1159  0.1585
13004W        W55995  14.947  14.356  17.508 -0.4036 -0.2069  0.0600
13005W        W55996  11.813   8.546   1.459  0.1750  0.0119  0.0254
13006W        W55997   6.893  19.808   1.565 -0.2670 -0.1557 -0.1091
13007W        W55998   4.879  30.817  26.642  0.0290 -0.1417  0.1503
13008W        W55999  27.273  30.958  24.448  0.0261  0.2869  0.1244
13009W        W56000  23.462  27.743  27.312  0.4077  0.1680  0.0884
13010W        W56001  25.130   5.721   5.599  0.1065 -0.1317 -0.1608
13011W        W56002  12.941  33.624   8.401  0.0311 -0.2002  0.1989
13012W        W56003  22.278  17.522  26.717  0.0270 -0.2112  0.0237
13013W        W56004  19.538   8.297  21.334  0.1377 -0.0028  0.0481
13014W        W56005   6.184  25.196   7.618  0.2485 -0.2424  0.0907
13015W        W56006  21.087  31.538  26.806  0.2056  0.2212 -0.1666
13016W        W56007  11.679   4.713   8.735  0.1673 -0.0337  0.0028
13017W        W56008  19.079  23.583  13.926  0.0100  0.2545  0.2222
13018W        W56009  23.435   1.659   1.814 -0.0210 -0.2217  0.0097
13019W        W56010   5.779  26.902  14.483  0.0608 -0.2018 -0.1191
13020W        W56011  20.975  19.054  14.397 -0.3198  0.2638 -0.1458
13021W        W56012  34.462  16.376  24.580 -0.2521 -0.0570  0.0826
13022W        W56013  20.657  31.646   5.812  0.0065  0.2044 -0.1920
13023W        W56014   5.237  29.050   9.041  0.1753 -0.0850 -0.1624
13024W        W56015  12.450   3.705  20.060 -0.1230 -0.0167  0.0766
13025W        W56016  25.011  17.652  23.838  0.1031  0.2369  0.1683
13026W        W56017  28.362  34.066  24.959  0.1419 -0.1574  0.0807
13027W        W56018  32.402   4.394   3.599 -0.3107  0.1828 -0.1579
13028W        W56019  18.035  26.222   9.085 -0.0255 -0.0729 -0.0789
13029W        W56020  31.808   0.886  16.901 -0.0743  0.0195  0.1709
13030W        W56021  16.784  28.804  29.141  0.0409 -0.2126 -0.1378
13031W        W56022  22.689   6.508  15.112 -0.1133  0.0125 -0.3231
13032W        W56023  28.683  25.465   1.506 -0.0819  0.1948  0.1052
13033W        W56024  33.634   1.218  22.979 -0.0233 -0.2330  0.3046
13034W        W56025  28.001  30.506  14.980 -0.1760  0.2708  0.0617
13035W        W56026   9.122  29.011  25.551  0.3296 -0.3878  0.0077
13036W        W56027   7.079   0.836   3.618 -0.0861  0.1188 -0.0007
13037W        W56028  15.194  25.457  20.822 -0.2595  0.0172  0.0109
13038W        W56029   1.159  11.792  24.948 -0.0885 -0.0433  0.2061
13039W        W56030  33.871  25.229  23.461 -0.0299 -0.2340 -0.0911
13040W        W56031  24.883  34.626   3.984 -0.1150  0.1908  0.0066
13041W        W56032  10.799  26.246  15.002  0.1855  0.0945  0.0916
13042W        W56033   3.338   1.799  18.714  0.1146 -0.1227  0.1464
13043W        W56034   4.754  12.552  24.991 -0.2300 -0.2161 -0.2134
13044W        W56035  26.223  13.299   1.923  0.2740 -0.1662 -0.0159
13045W        W56036  13.473  30.152   4.673 -0.2779  0.1368  0.2904
13046W        W56037  23.060  19.452  27.182 -0.1620  0.1371  0.1163
13047W        W56038  33.538  19.367  26.844 -0.1273 -0.0764  0.0598
13048W        W56039  31.279  27.820   9.139 -0.0405  0.1575  0.2555
13049W        W56040  21.643  33.438  15.163 -0.1313 -0.0419  0.0019
13050W        W56041  32.237  33.986   2.781  0.1420 -0.5047  0.2684
13051W        W56042  31.422  30.945   5.330 -0.0443 -0.2808  0.0190
13052W        W56043  12.531  17.153   8.164 -0.0207  0.1087  0.0533
13053W        W56044   0.420  23.993  15.660  0.0779 -0.0213 -0.0827
13054W        W56045  18.112  25.681   8.248 -0.1366  0.1009 -0.0312
13055W        W56046  19.301  31.739  21.347 -0.0478  0.0918  0.0081
13056W        W56047  27.955   4.967   4.524  0.1676  0.1447  0.2048
13057W        W56048  20.844  11.766   4.666  0.0014 -0.1474  0.0507
13058W        W56049  10.298   2.959   5.153 -0.0004  0.1038  0.1036
13059W        W56050  28.978  34.499   8.008  0.0643 -0.4406  0.1360
13060W        W56051  21.907   6.160  26.639 -0.1132  0.0598 -0.2152
13061W        W56052  34.129   5.956   1.859 -0.3048  0.1623 -0.2660
13062W        W56053  24.273  24.427  16.541  0.1231 -0.1585  0.2466
13063W        W56054  27.174  14.033   2.103  0.1506 -0.2842  0.3303
13064W        W56055  34.661  26.378  20.596  0.1672 -0.0300 -0.3264
13065W        W56056  10.558   2.919  22.246 -0.1459 -0.1954 -0.3487
13066W        W56057  20.562   0.392  28.620 -0.1924 -0.3613 -0.0423
13067W        W56058  19.163   3.293  19.689 -0.1230  0.0320 -0.1405
13068W        W56059  21.411  13.896  27.788 -0.0675  0.0123  0.1433
13069W        W56060   3.021  31.155  15.071  0.1721 -0.0979  0.0517
13070W        W56061  31.140  24.984   0.193  0.0462 -0.3300 -0.0189
13071W        W56062  23.293  27.403   3.128  0.3043 -0.2816  0.1212
13072W        W56063  19.227  30.161   7.640 -0.2679 -0.1020  0.2113
13073W        W56064   9.241  23.151  28.161 -0.1915 -0.0063  0.0291
13074W        W56065   8.110  12.141   8.701  0.1009 -0.1065 -0.1375
13075W        W56066  13.915   3.365   1.046 -0.0785 -0.0840  0.1168
13076W        W56067   9.700  31.882  21.755 -0.2740  0.1928  0.0710
13077W        W56068  21.784  27.934  17.892  0.1799  0.1314 -0.0679
13078W        W56069  32.308  32.896  23.760 -0.1405 -0.0942  0.0492
13079W        W56070   5.404  32.175   1.636  0.0316 -0.0418  0.0203
13080W        W56071   7.228  12.469  18.337  0.2563  0.0902 -0.0794
13081W        W56072  29.332  25.415   8.390 -0.2726 -0.0516 -0.0851
13082W        W56073  21.967  19.326   0.856 -0.0833  0.2884  0.0165
13083W        W56074  10.844   2.437   8.742  0.0947 -0.0373 -0.4779
13084W        W56075  21.495  25.762  22.813  0.1579  0.0032 -0.0364
13085W        W56076  33.088  28.895   9.877  0.1595 -0.0327 -0.0291
13086W        W56077  23.175  30.302  23.527 -0.1612 -0.0924 -0.1275
13087W        W56078  12.217  26.132   0.279  0.0358 -0.3941  0.0230
13088W        W56079  16.856   6.964  20.856  0.0139 -0.0757 -0.3212
13089W        W56080  29.159  30.336  15.923 -0.0105  0.1118 -0.1972
13090W        W56081  16.363  21.146  27.548 -0.3813 -0.2266  0.2882
13091W        W56082  27.473   8.070  26.861  0.1154  0.1817  0.2446
13092W        W56083  21.100  24.200  24.620 -0.0241  0.1499 -0.2579
13093W        W56084  33.821  17.725   6.602  0.0339 -0.2940 -0.2523
13094W        W56085  23.973  21.501  19.129 -0.1223  0.0517 -0.0291
13095W        W56086  12.650  32.676   9.001  0.1664 -0.3274  0.0178
13096W        W56087   7.344  15.648   5.084 -0.0930 -0.1777  0.0072
13097W        W56088   8.649  30.146   5.600  0.3643 -0.4017  0.0122
13098W        W56089  26.573   0.392  21.185 -0.0770  0.0147 -0.3221
13099W        W56090   9.570  25.916   6.752  0.1426  0.2869  0.0178
13100W        W56091  22.637   4.454   1.703 -0.4094 -0.0215 -0.2120
13101W        W56092   0.826  34.718  17.479 -0.0864  0.0802  0.1087
13102W        W56093   9.430   1.407  15.175 -0.1340 -0.0972 -0.3420
13103W        W56094  21.268   3.350   0.521  0.0821  0.3304 -0.0070
13104W        W56095  11.621   5.252  11.508  0.1795 -0.2037 -0.2375
13105W        W56096  30.416  16.105  25.328  0.1566 -0.0877 -0.1409
13106W        W56097   3.185  21.714   5.110 -0.0184  0.2554  0.2590
13107W        W56098  27.706  10.754  18.696  0.0793 -0.0377  0.2995
13108W        W56099  32.541  27.878  23.827  0.1235 -0.2625  0.1215
13109W        W56100   7.597  33.937  17.064 -0.1345 -0.1965  0.0686
13110W        W56101   0.727   8.762  28.399 -0.0706 -0.5639 -0.5023
13111W        W56102  16.385  25.353   0.660 -0.2761  0.4218  0.0654
13112W        W56103  24.403   5.316  26.487  0.1199 -0.1309  0.0565
13113W        W56104  28.228  27.791  28.981  0.0211 -0.0024 -0.2036
13114W        W56105  31.381  25.529  16.394 -0.0614 -0.0596 -0.2483
13115W        W56106  32.358  26.298  19.625  0.0640  0.0933  0.2119
13116W        W56107  23.758   3.437  25.491 -0.0572 -0.4240  0.2518
13117W        W56108  32.124  27.113  20.833 -0.2254 -0.0597 -0.1907
13118W        W56109  33.109  27.847   3.171  0.1321 -0.2187  0.1300
13119W        W56110  34.125  28.307   0.719 -0.2208 -0.1312 -0.0861
13120W        W56111  34.398   2.019  21.090  0.1618  0.1338 -0.2880
13121W        W56112   6.459  34.615  27.276 -0.1951  0.3678 -0.2753
13122W        W56113  30.132  17.121   7.075  0.2138 -0.1738 -0.1237
13123W        W56114  21.700  33.444  23.335 -0.0220  0.0511  0.0841
13124W        W56115   1.589   7.844  28.065  0.1939  0.1984  0.1827
13125W        W56116  26.159  12.877   3.186  0.5080 -0.0061 -0.1902
13126W        W56117   2.578  27.339  18.640  0.2142 -0.0797  0.2705
13127W        W56118  20.465  24.536  26.203  0.4584 -0.1454  0.1036
13128W        W56119  13.352  27.344   8.161 -0.1101  0.1194  0.4063
13129W        W56120  33.189  20.797  25.061  0.4070 -0.0098  0.0829
13130W        W56121  11.328  33.024  25.901 -0.0131  0.2170 -0.0562
13131W        W56122  22.262  17.378  24.763 -0.1106 -0.3086  0.1449
13132W        W56123  27.870  23.106  26.686  0.0468 -0.2995 -0.1351
13133W        W56124  21.245  34.498  22.965 -0.2092  0.0533  0.1454
13134W        W56125  29.383  32.171   7.266 -0.2348 -0.1035 -0.1451
13135W        W56126   1.081   0.270  17.619  0.0069  0.3471  0.2492
13136W        W56127   5.051  34.311  14.689 -0.0127  0.0137 -0.1285
13137W        W56128   0.653  27.561   2.161 -0.0804 -0.0866  0.2984
13138W        W56129  10.169  14.856  25.845 -0.1603  0.0688 -0.0452
13139W        W56130   4.826   5.175  11.293 -0.0326 -0.0322 -0.0668
13140W        W56131   0.636  31.874  25.904 -0.0453  0.1211 -0.0035
13141W        W56132  13.372  11.071  29.109 -0.0019 -0.1481  0.0988
13142W        W56133  31.887   0.942   3.010  0.2397 -0.0832 -0.2309
13143W        W56134   2.622   2.985   0.715  0.0149 -0.0889 -0.2192
13144W        W56135  16.132  31.329   7.561  0.1826  0.1710  0.3120
13145W        W56136  28.690   5.986   2.398  0.0687 -0.2528  0.1351
13146W        W56137  16.418  28.848  19.810  0.4733  0.1898  0.0616
13147W        W56138  23.888  27.091  26.861  0.0808 -0.0008 -0.0604
13148W        W56139   0.865  16.077  17.993 -0.0722  0.0271  0.0747
13149W        W56140  13.067  19.625  24.606 -0.0804  0.1163  0.2122
13150W        W56141  30.078   6.631  25.854 -0.0718  0.2085 -0.4165
13151W        W56142  17.462  20.863  15.787  0.2919  0.0749 -0.2583
13152W        W56143  16.110  26.968   2.842  0.0490  0.0560 -0.4333
13153W        W56144  10.054  22.845   6.478  0.0661 -0.3214 -0.3849
13154W        W56145   1.721   1.972   3.899  0.1353  0.2064  0.1201
13155W        W56146  25.650  18.504   6.963  0.1237  0.1915  0.2163
13156W        W56147  33.865   8.286   1.262  0.2676  0.4562  0.1406
13157W        W56148   0.267  31.877  23.403  0.1460  0.0096  0.0991
13158W        W56149  26.179  33.819   2.380  0.2109  0.1327  0.0385
13159W        W56150  33.599  21.901  28.671 -0.3215  0.2436 -0.0188
13160W        W56151  10.224  26.170   7.610  0.4084  0.2735  0.0661
13161W        W56152   9.156  14.214   7.771  0.1332  0.2363  0.0407
13162W        W56153  28.438   1.492  14.281  0.1108 -0.0271  0.0577
13163W        W56154  12.949  14.633   8.265  0.1545 -0.0884  0.2430
13164W        W56155  33.649  23.258   3.019 -0.2717 -0.0639 -0.2150
13165W        W56156  30.557  28.805  15.878 -0.0522 -0.0900  0.0941
13166W        W56157  23.653  13.096  14.840 -0.1382  0.2281 -0.0038
13167W        W56158  25.842   2.969  20.943 -0.0669  0.3015 -0.0033
13168W        W56159  20.058   1.075  26.809 -0.0437 -0.2235 -0.2985
13169W        W56160  26.094  27.946  27.802 -0.1112 -0.0854 -0.1618
13170W        W56161  10.666  26.218   5.815  0.1354  0.0061  0.2006
13171W        W56162   0.666  25.694  24.528 -0.2993 -0.0959 -0.2396
13172W        W56163  23.835  14.452   2.127  0.1002 -0.1020 -0.2585
13173W        W56164  27.207  27.369  22.066  0.0586 -0.0984  0.0652
13174W        W56165   5.784  28.912  28.967 -0.0153  0.1526  0.2413
13175W        W56166   6.228  33.209  22.820  0.3704 -0.0525  0.0526
13176W        W56167  16.227  16.511  28.115  0.2992 -0.1916  0.1860
13177W        W56168   7.060  20.999   3.043  0.2196  0.1583  0.3209
13178W        W56169  22.087  30.851  21.231  0.2780 -0.3155 -0.0621
13179W        W56170   8.278  34.768   6.619  0.1937 -0.0792 -0.1774
13180W        W56171  12.436  34.486   9.665 -0.0411 -0.1950  0.0199
13181W        W56172  16.581  22.214   8.146  0.1329  0.3090 -0.0859
13182W        W56173  17.589  26.456  17.843  0.1178  0.1235 -0.3751
13183W        W56174  16.146  23.794  23.172  0.0226  0.2075  0.2224
13184W        W56175  23.967  31.525   3.093  0.3056  0.0547  0.3402
13185W        W56176  21.433  27.733  26.161  0.1096  0.0371 -0.0505
13186W        W56177   2.728  33.732  18.389  0.1552  0.1227  0.0633
13187W        W56178  25.157  28.434  13.757  0.1064 -0.0027 -0.1717
13188W        W56179  13.571  28.443   4.124 -0.0899  0.2573  0.2305
13189W        W56180  34.501  29.360  22.945  0.4085  0.1015 -0.0529
13190W        W56181  24.953   1.797  26.540 -0.0728  0.3064  0.0019
13191W        W56182  16.033  27.995  15.367 -0.1065  0.1076 -0.0123
13192W        W56183  26.708   5.364  28.566 -0.4266  0.1560 -0.3082
13193W        W56184  19.919  34.386   5.234 -0.1269 -0.1855 -0.0589
13194W        W56185  19.786  29.684  24.035  0.1034 -0.2693  0.2980
13195W        W56186   6.128   0.803  23.142  0.1977  0.1482 -0.0211
13196W        W56187  13.040  23.817   4.242  0.0744 -0.0519  0.3837
13197W        W56188  23.497   9.147  25.444  0.0041 -0.2770  0.2702
13198W        W56189  26.897  10.342   6.356  0.3283 -0.0607  0.2623
13199W        W56190  26.425  31.873   4.233  0.0309  0.1336  0.0479
13200W        W56191  29.462  15.630   7.592 -0.0081  0.1476  0.2068
13201W        W56192   8.165   2.120  22.189  0.2058  0.0261  0.3126
13202W        W56193  34.014  24.215   5.675  0.0292  0.0654  0.1752
13203W        W56194  14.065   0.297  28.922  0.1910 -0.1183  0.1737
13204W        W56195  24.947  34.576   0.415  0.2495 -0.1350 -0.0162
13205W        W56196  24.157  15.030  26.256 -0.1184 -0.2275  0.1984
13206W        W56197  22.780  25.816   3.959  0.0752  0.2574  0.0284
13207W        W56198  21.113   9.969   8.650  0.1930  0.0209 -0.1087
13208W        W56199  29.720   0.011   4.547  0.0522 -0.2277 -0.4555
13209W        W56200  21.561   6.076  27.633  0.2397 -0.2378  0.2366
13210W        W56201   4.767  26.084  22.308 -0.0170  0.3200  0.2526
13211W        W56202   5.046   3.438  21.573 -0.1862 -0.0192  0.2822
13212W        W56203  26.531  13.785  14.842  0.1090  0.1892 -0.0767
13213W        W56204   4.554   6.898  28.905  0.1482  0.0627 -0.2625
13214W        W56205  22.592  30.033   5.338  0.0056  0.1342 -0.1957
13215W        W56206   7.219  26.069  25.887  0.1554  0.1154  0.0534
13216W        W56207   8.589  27.658   9.656  0.1593 -0.3585  0.5061
13217W        W56208  32.318  33.769  28.301 -0.0564  0.3063 -0.0261
13218W        W56209   2.254  32.636  22.008  0.0810  0.0050 -0.0474
13219W        W56210  25.583  32.738   6.118 -0.2482 -0.2894  0.3617
13220W        W56211  16.778  22.282   7.212  0.1287 -0.1397  0.0289
13221W        W56212   7.807  26.710  21.275  0.0312 -0.0142  0.0187
13222W        W56213   8.799   2.489  23.394 -0.1779  0.0773 -0.1043
13223W        W56214  26.776  22.861  13.240 -0.4452 -0.2552  0.3841
13224W        W56215  16.211  33.986  25.050 -0.4270 -0.1013 -0.0749
13225W        W56216  30.926  12.995  22.703 -0.1277  0.1299  0.0423
13226W        W56217  17.574   3.504  27.773 -0.0157  0.2238 -0.0122
13227W        W56218  18.384  18.952  27.245  0.0069  0.1951 -0.1209
13228W        W56219  32.983   4.689   9.170 -0.2524  0.1890  0.0300
13229W        W56220  23.499  11.095   7.891  0.0842  0.0415 -0.2296
13230W        W56221  19.070  31.560   4.769 -0.2206 -0.0783  0.0486
13231W        W56222   1.232   4.266   4.664 -0.0328  0.0366 -0.1236
13232W        W56223  15.418  12.108  14.812 -0.3077  0.4095  0.2591
13233W        W56224  34.528  14.917   0.928  0.1641  0.1247 -0.1010
13234W        W56225  29.066  26.679   4.725 -0.0922 -0.0289 -0.0295
13235W        W56226  31.325   0.225   2.853  0.0087  0.0613  0.0176
13236W        W56227  28.536  34.327   0.925  0.3121 -0.4401  0.1078
13237W        W56228  22.766  24.491  21.939 -0.0085  0.2618 -0.0275
13238W        W56229  26.123  16.172  16.840  0.0035 -0.0342 -0.0946
13239W        W56230  30.639  33.804   4.534  0.1255 -0.0956 -0.1010
13240W        W56231  19.161  25.879   9.225  0.2184  0.1934  0.0175
13241W        W56232  30.605  17.970   1.174  0.0087 -0.0887  0.1793
13242W        W56233   6.136  29.246  17.511  0.4440  0.0444  0.3335
13243W        W56234  29.448  20.877   1.220 -0.2380  0.0922  0.1438
13244W        W56235   2.037   0.243   3.867  0.2057  0.2498  0.0028
13245W        W56236  30.758  21.138  23.341 -0.1147  0.0615 -0.0192
13246W        W56237  24.574  31.828  23.762 -0.3059  0.1122  0.1604
13247W        W56238  12.119   9.101   9.741  0.1937 -0.2220  0.1966
13248W        W56239  25.523  22.225  16.494 -0.2968  0.0585 -0.2146
13249W        W56240  10.054  22.664  24.349  0.0181 -0.0631 -0.1279
13250W        W56241  21.487   3.442  27.200  0.1146 -0.2680 -0.0461
13251W        W56242  19.775  32.618  19.578  0.2771  0.1452  0.0750
13252W        W56243  23.157  31.645  23.580 -0.2220 -0.2959  0.0833
13253W        W56244  33.312   0.501  28.833 -0.1430  0.0104 -0.1646
13254W        W56245  22.344   3.681   4.679  0.1205 -0.1643  0.0725
13255W        W56246  11.375  34.385  21.132 -0.1722 -0.1959  0.0094
13256W        W56247  24.637  23.372  22.127 -0.2027  0.2360  0.0696
13257W        W56248   2.708  17.455   4.956 -0.2017 -0.0010 -0.0118
13258W        W56249  18.372   3.213   3.436  0.0912 -0.0796 -0.0803
13259W        W56250  34.143  33.075  16.916 -0.2706 -0.3221 -0.1972
13260W        W56251  13.696   4.362  16.626  0.0380  0.0189  0.3222
13261W        W56252  17.209   0.876  21.376 -0.0918 -0.2161 -0.1065
13262W        W56253  11.511   0.061   8.207 -0.0333  0.2273 -0.1211
13263W        W56254   7.064  18.559  26.463  0.0363  0.2014  0.0738
13264W        W56255  18.960  30.579   1.432  0.2735 -0.3430  0.1593
13265W        W56256  26.038  24.991   6.678  0.1990  0.0907  0.1912
13266W        W56257  14.618  31.893   3.738 -0.3028 -0.0603 -0.1417
13267W        W56258  32.542   6.381  27.109 -0.0801 -0.0402  0.2726
13268W        W56259  11.850  31.329  23.090 -0.1257  0.1049  0.3479
13269W        W56260  34.412  31.051  20.453 -0.1929 -0.1243 -0.1186
13270W        W56261  25.908  17.888  22.212 -0.2941 -0.0240  0.1792
13271W        W56262   3.772   4.015   0.887 -0.3128  0.0365 -0.0545
13272W        W56263  22.196  29.428  22.934  0.0068  0.1261  0.1187
13273W        W56264   1.461   9.345  23.251 -0.0486  0.3569 -0.2612
13274W        W56265  18.211  11.819   7.876  0.2968 -0.0965 -0.1229
13275W        W56266   1.072  22.969  20.364 -0.3114  0.0348 -0.2648
13276W        W56267  12.650  19.730  24.409 -0.2706  0.2870  0.2778
13277W        W56268   6.567  20.126  26.643  0.1764  0.1414 -0.1303
13278W        W56269  10.605  28.783   6.839  0.0851 -0.2328 -0.0680
13279W        W56270  33.934  20.706  24.045  0.1404 -0.1390  0.2654
13280W        W56271  32.754  31.392  14.285 -0.1472  0.0213 -0.1570
13281W        W56272  34.362  30.071   0.445 -0.2045  0.0086 -0.0757
13282W        W56273  20.721  23.793  25.523  0.0095  0.0854  0.4723
13283W        W56274  18.275  16.214   6.343 -0.1891 -0.2307  0.2972
13284W        W56275  13.628  26.698  23.435  0.1421 -0.0465  0.2447
13285W        W56276  32.264  20.243   0.312 -0.0577 -0.0878 -0.1234
13286W        W56277  27.705  29.391  27.996 -0.2023 -0.1870  0.0522
13287W        W56278  18.303  32.872  13.811 -0.0451  0.2051  0.1539
13288W        W56279   3.630  32.658  23.674  0.1155  0.0685 -0.2095
13289W        W56280  24.676  28.107   7.156  0.5415  0.1622  0.1219
13290W        W56281  34.017  26.008  26.150  0.0689  0.1340  0.2521
13291W        W56282  26.822  23.837  15.264  0.0208  0.1944 -0.0644
13292W        W56283  13.697  31.135  18.025  0.2106  0.3595  0.0323
13293W        W56284  23.516  16.436   7.889  0.3166  0.2124  0.1800
13294W        W56285  17.569   2.981   2.187 -0.1405 -0.2870  0.0349
13295W        W56286  15.338   3.435  23.273 -0.3405  0.4826  0.1710
13296W        W56287  34.653  28.830  15.876  0.0619 -0.1759  0.1009
13297W        W56288  23.665  28.055   7.672  0.1003 -0.3593  0.0446
13298W        W56289  25.639  31.633  21.736 -0.1029  0.2043  0.1025
13299W        W56290   9.706  21.356   4.527  0.0082 -0.1928 -0.0091
13300W        W56291  21.622   6.646   6.304 -0.0371  0.2669  0.1311
13301W        W56292   5.747  15.807  17.353  0.0527 -0.3050 -0.1985
13302W        W56293  19.922   3.902  23.094 -0.1387  0.0640 -0.0247
13303W        W56294  26.890  15.625  13.954  0.0232  0.0717  0.1965
13304W        W56295  23.102  27.435  13.476  0.0024 -0.2093  0.0726
13305W        W56296  19.319   5.162  16.088 -0.0973  0.0927  0.1754
13306W        W56297  12.995  27.155  24.701 -0.2713  0.1143 -0.0756
13307W        W56298  13.790  23.564   8.088  0.2048 -0.2559  0.4325
13308W        W56299  28.864  32.661  20.166  0.3297 -0.0424 -0.0865
13309W        W56300  11.765  25.646  19.921  0.1436 -0.1167 -0.0889
13310W        W56301   6.022  33.924   1.282 -0.0775 -0.1522  0.3027
13311W        W56302   4.063   5.224  27.314 -0.0250  0.0110  0.0030
13312W        W56303  12.898  29.155  15.205  0.2583  0.3906  0.3487
13313W        W56304  16.323  19.023  24.740 -0.1557  0.0920  0.0856
13314W        W56305  25.541  19.871   7.380 -0.1298  0.0394 -0.2315
13315W        W56306  19.989  31.180  26.460  0.0902  0.0962 -0.4499
13316W        W56307   4.038   4.507  28.125 -0.3402  0.2350  0.1810
13317W        W56308   0.441   9.408  26.117  0.0558  0.2241 -0.1083
13318W        W56309  21.127  24.329  23.550 -0.2624  0.1639 -0.0751
13319W        W56310  12.344   3.290   2.283 -0.2761 -0.0135 -0.3099
13320W        W56311  18.842  27.558   5.518 -0.2222  0.0706 -0.1324
13321W        W56312  17.153   9.162   0.097  0.2249 -0.0139 -0.3451
13322W        W56313  17.832  17.380   2.952 -0.0852 -0.0954 -0.3623
13323W        W56314  24.082  33.932  28.997  0.3720  0.2835  0.1594
13324W        W56315  26.975  25.943   5.862  0.1658 -0.2126 -0.0715
13325W        W56316  25.888  34.297  21.180  0.2026 -0.0341  0.1606
13326W        W56317  20.515   2.786   7.754 -0.2560  0.0892 -0.0714
13327W        W56318  34.733  19.895   1.648 -0.0913 -0.1078  0.0467
13328W        W56319  23.304  30.656  20.814 -0.0822  0.1072 -0.0443
13329W        W56320  14.485  31.532   7.076  0.0613  0.0693 -0.0352
13330W        W56321  26.162  33.485   3.914 -0.2136  0.3277  0.2051
13331W        W56322  29.908  32.842   3.190 -0.0502 -0.1720  0.2549
13332W        W56323   9.174  26.731  20.782 -0.0224  0.2326 -0.4271
13333W        W56324   2.873  30.841  27.455 -0.3194  0.0629 -0.3193
13334W        W56325  24.381  22.972   4.668 -0.1510 -0.0322 -0.1120
13335W        W56326   1.326  31.694   5.073  0.1207 -0.0323 -0.2754
13336W        W56327  13.086  10.404  27.082  0.1695 -0.0357 -0.0756
13337W        W56328  26.294  25.936  23.316 -0.0186 -0.1535 -0.4183
13338W        W56329  23.308  31.532  21.049  0.1604 -0.1187 -0.0108
13339W        W56330  23.651  28.525   3.783  0.3181  0.0461  0.1642
13340W        W56331  25.367  22.045  25.789 -0.0994  0.0541 -0.0789
13341W        W56332  34.651  17.284  18.900  0.0503  0.4196  0.0641
13342W        W56333   0.295  34.288  22.606  0.0440 -0.0540 -0.1046
13343W        W56334   5.302   4.111   0.137  0.2128 -0.2119  0.0032
13344W        W56335  13.981  31.921  22.333 -0.0572  0.0946  0.1290
13345W        W56336  27.063  15.000  17.667 -0.2456 -0.2564 -0.1051
13346W        W56337  32.560  21.688  18.230  0.1461  0.2133  0.2023
13347W        W56338  27.853  29.395  26.316  0.1209  0.0598  0.0611
13348W        W56339  33.570   1.950   8.436  0.2354 -0.1608 -0.2422
13349W        W56340   3.074  11.875  27.339  0.1334  0.2436  0.0270
13350W        W56341  25.089  23.143   5.666 -0.0937  0.3274 -0.2993
13351W        W56342  14.433   7.207  24.873 -0.3155  0.2241  0.0561
13352W        W56343  17.488  16.092   9.304  0.1104  0.1622 -0.2359
13353W        W56344  14.425  25.789   3.694  0.1193 -0.0294  0.0875
13354W        W56345  24.851  16.843   0.702  0.0974  0.1874  0.2003
13355W        W56346  22.197   5.362  16.588  0.0209 -0.2978 -0.2242
13356W        W56347  29.967  13.890  25.718  0.1069  0.1834  0.0979
13357W        W56348  15.773  23.300  28.700 -0.1236  0.2339  0.2258
13358W        W56349   7.426  14.799  19.438  0.1715  0.1310  0.0695
13359W        W56350  28.592   2.537   2.731  0.0413 -0.0280  0.1121
13360W        W56351  25.785   0.824   6.808  0.0416 -0.1160 -0.1624
13361W        W56352  19.136   8.612   2.498  0.0212  0.3560 -0.1844
13362W        W56353  31.673   4.336  22.619  0.2464  0.1441  0.0076
13363W        W56354  31.823  29.829  24.199 -0.0048  0.2320 -0.1017
13364W        W56355  13.392  14.375   5.704 -0.0330  0.1639  0.3347
13365W        W56356   5.024  17.330  22.937  0.0028  0.2223 -0.4196
13366W        W56357   8.535  14.363   1.435  0.1682 -0.2644  0.2493
13367W        W56358  17.475  20.114  28.166 -0.4096 -0.0933  0.0113
13368W        W56359  29.275  16.826   1.138  0.1019 -0.2871  0.2625
13369W        W56360  13.435   8.366  25.816 -0.0053 -0.0778  0.1502
13370W        W56361  14.923  16.316  26.995  0.0496 -0.0139 -0.0902
13371W        W56362  33.293  31.329   6.432 -0.1136 -0.0811  0.0090
13372W        W56363   3.016  24.010  27.049  0.0114 -0.1263  0.1761
13373W        W56364   8.059   3.408  10.860  0.1792 -0.4848  0.1815
13374W        W56365  18.035   2.737   1.578  0.0552 -0.2047  0.0995
13375W        W56366  21.871  19.436  18.138 -0.1783  0.2614  0.0404
13376W        W56367   4.872   3.600   0.588 -0.2217  0.1554  0.0512
13377W        W56368  32.606  30.926  14.436  0.1365  0.0391 -0.2065
13378W        W56369  14.429  15.959   7.428 -0.1926  0.1255  0.1041
13379W        W56370  11.411  29.185  27.873 -0.0122 -0.0641  0.2475
13380W        W56371  24.650   1.628   7.782 -0.1402  0.3197  0.0921
13381W        W56372  23.439  14.238  29.104 -0.1365  0.2769 -0.0202
13382W        W56373  21.395  23.438  28.941 -0.3585 -0.1803  0.2301
13383W        W56374  19.313  19.510   0.039  0.0747  0.0182 -0.0533
13384W        W56375  27.141  29.050  25.370 -0.1371 -0.1620  0.0894
13385W        W56376  11.611  31.653  10.047 -0.2990 -0.0803 -0.0416
13386W        W56377  26.521  16.798  27.997 -0.4762  0.1335  0.1339
13387W        W56378  18.188  27.702  24.637  0.0438 -0.0211  0.1207
13388W        W56379  22.823   1.038   5.920 -0.2243  0.1833  0.1812
13389W        W56380   7.316  28.548  20.406  0.0704 -0.0283 -0.5191
13390W        W56381  20.126  27.373  25.547 -0.2036  0.2014  0.0459
13391W        W56382  16.733  31.224   3.194 -0.4170  0.2770  0.2292
13392W        W56383  24.385  24.512   7.815 -0.0450  0.0095 -0.3059
13393W        W56384  15.095  33.339  19.303  0.0253 -0.0191  0.2258
13394W        W56385  10.977  27.222  21.639  0.2894 -0.1035 -0.0403
13395W        W56386  34.709  24.030   9.638 -0.2065 -0.1871  0.1404
13396W        W56387  22.965  25.612  25.096  0.2115  0.1195 -0.1387
13397W        W56388  32.019   7.521   6.000  0.0567  0.1641  0.4382
13398W        W56389  33.188   4.960  20.435 -0.1717 -0.0816 -0.1045
13399W        W56390   4.127  21.046  23.605 -0.1435  0.1594  0.0919
13400W        W56391  15.499  16.050   5.179 -0.1030 -0.0134  0.0206
13401W        W56392   0.350  33.711   0.423 -0.0996 -0.0172 -0.2587
13402W        W56393   9.502  21.232   1.944  0.0361 -0.1210  0.0884
13403W        W56394  14.619  11.362   5.243 -0.1518  0.2382  0.2980
13404W        W56395   7.327  30.755  22.587  0.0858  0.1719 -0.1435
13405W        W56396   5.093   1.073  22.834  0.1187 -0.2700 -0.1329
13406W        W56397  30.853  32.867  24.935 -0.3600  0.1847 -0.1373
13407W        W56398  34.233  27.542  22.744  0.3942 -0.1849  0.1797
13408W        W56399  23.808   9.440   3.331 -0.0738  0.2033  0.2477
13409W        W56400   2.180  17.828  28.335 -0.0800 -0.0498 -0.0406
13410W        W56401  30.154  20.163   1.178  0.1321  0.0472 -0.1100
13411W        W56402   4.331  29.243  20.233  0.1079  0.0274  0.4340
13412W        W56403  23.950  32.529   2.203  0.1562 -0.0190  0.0516
13413W        W56404  22.496   2.967  22.078 -0.1641 -0.1266  0.1676
13414W        W56405  28.760  30.696   7.619 -0.2116 -0.0336 -0.2539
13415W        W56406  24.561   9.122   6.401 -0.0476  0.4385 -0.2653
13416W        W56407  30.279   4.770  15.389 -0.0625  0.1163  0.0057
13417W        W56408  18.009   2.891  15.700 -0.0913 -0.2535  0.2715
13418W        W56409  16.768  28.256  28.678  0.1567  0.0887 -0.1135
13419W        W56410  25.165   6.765  25.369 -0.2225  0.1298 -0.1203
13420W        W56411  12.708   8.315  16.167 -0.2925 -0.1644 -0.0244
13421W        W56412  27.297  34.513  20.328  0.1851 -0.0395 -0.0678
13422W        W56413   1.453  27.114   0.737 -0.0756  0.1035  0.0117
13423W        W56414  22.943   6.595  24.576  0.1474  0.1860 -0.0828
13424W        W56415  28.105  32.949  17.540 -0.1454  0.3006 -0.0585
13425W        W56416  31.252   5.162  21.644  0.1380  0.0617  0.4644
13426W        W56417  19.535   5.871  19.744 -0.0475  0.0531  0.0255
13427W        W56418   8.599   3.947  19.923 -0.2056 -0.0010 -0.2908
13428W        W56419  27.594  32.777   3.073  0.0853  0.2095  0.1800
13429W        W56420  11.156   1.347  20.436  0.0781 -0.1850 -0.0125
13430W        W56421  23.101   1.479  24.988 -0.2759  0.1724 -0.3677
13431W        W56422  17.967   2.130  23.801 -0.0652 -0.0585 -0.2404
13432W        W56423  12.963  32.416  17.944  0.0435 -0.2459 -0.1851
13433W        W56424  23.050  10.678  23.252  0.1143 -0.1326 -0.1743
13434W        W56425  20.540   8.556  21.088  0.1681 -0.0069  0.1386
13435W        W56426  14.230   0.834  21.709 -0.3229  0.1640 -0.1011
13436W        W56427  21.005  14.424  17.894  0.0408 -0.1984  0.0219
13437W        W56428  21.162  31.409  18.839 -0.2837  0.0531 -0.3971
13438W        W56429   1.760  32.049  20.421 -0.0651  0.1252 -0.0092
13439W        W56430  27.140  32.664  19.039  0.4028 -0.0819 -0.1619
13440W        W56431  29.312  33.179  15.894 -0.0050 -0.2221 -0.2022
13441W        W56432  15.132  32.548  22.695  0.2091  0.1114 -0.0880
13442W        W56433  31.365   0.985  26.254  0.0868 -0.1329  0.0605
13443W        W56434  19.574   1.715  17.360  0.0762  0.1959 -0.0964
13444W        W56435  25.816   8.686  28.036  0.1192  0.0137  0.0767
13445W        W56436  23.327  20.662  25.092  0.2534  0.2029 -0.1399
13446W        W56437  26.986   8.865  21.952 -0.2778  0.2033  0.4246
13447W        W56438  26.581  28.372  14.623  0.1052 -0.2335  0.1117
13448W        W56439  21.653  33.706  28.250 -0.0794  0.2363  0.0386
13449W        W56440  25.901   3.911  15.461  0.0244 -0.2368  0.0691
13450W        W56441  16.729  20.645  17.530 -0.0568  0.0234 -0.0843
13451W        W56442  31.996  22.172  18.586  0.3089 -0.1399 -0.1365
13452W        W56443   4.546  10.453  27.915  0.0939  0.4899  0.0212
13453W        W56444  20.751  20.462  13.507 -0.1177  0.3648  0.0252
13454W        W56445  26.635   6.693  16.312 -0.3662  0.2055 -0.1937
13455W        W56446  24.672   3.130  24.447 -0.0383  0.1846  0.0429
13456W        W56447  16.271  24.123  14.936  0.0986 -0.2301 -0.3287
13457W        W56448  32.436  16.695  24.397  0.0060  0.1349  0.2035
13458W        W56449   0.998  14.203  21.302  0.0314  0.1402 -0.5275
13459W        W56450  24.487  29.862  23.280  0.1253  0.1006 -0.3003
13460W        W56451  14.216   0.917  20.913 -0.3983  0.0587 -0.2338
13461W        W56452  31.337  27.911  20.870  0.2184  0.0894 -0.1051
13462W        W56453  28.560  32.459  19.799  0.2278 -0.2334 -0.1796
13463W        W56454  14.179  32.607  14.522  0.0138 -0.2725  0.1264
13464W        W56455  18.608  32.152  15.418 -0.0361 -0.1198 -0.1648
13465W        W56456   1.465   5.063  23.113 -0.0849  0.0200  0.3462
13466W        W56457  19.462   9.260  19.127  0.2373  0.1733  0.1077
13467W        W56458  17.071  32.051  18.866 -0.0279 -0.0066  0.1233
13468W        W56459  23.797  25.725  13.106  0.0504 -0.1725  0.0467
13469W        W56460  30.943   3.526  22.487 -0.0845  0.0412  0.5632
13470W        W56461   7.309   7.611  27.348 -0.0028 -0.0691 -0.2165
13471W        W56462  10.753  19.722  17.657 -0.4589 -0.0940 -0.1580
13472W        W56463  25.691   2.947   2.977 -0.3131  0.1205 -0.0003
13473W        W56464  29.018  20.130  18.440 -0.0709 -0.0762  0.2003
13474W        W56465  31.174  18.547  16.205 -0.0695  0.0104  0.0175
13475W        W56466   7.086  21.657  22.747 -0.1725  0.0360 -0.0154
13476W        W56467  23.221  21.305  24.003  0.3711 -0.0341  0.0790
13477W        W56468  17.205   5.215  19.373  0.0227 -0.0999  0.2430
13478W        W56469  31.079  34.031   6.104 -0.0504 -0.0210  0.0369
13479W        W56470  21.690   7.302  18.093 -0.1133 -0.0095  0.0215
13480W        W56471  23.001   4.170  14.522 -0.0555 -0.1355 -0.0873
13481W        W56472   9.296   3.156  16.745  0.0349  0.0613  0.0981
13482W        W56473  14.044   0.689  17.371 -0.0820 -0.1257 -0.0562
13483W        W56474  27.912  33.653   0.848 -0.1273  0.1596 -0.0902
13484W        W56475   7.730  30.271   2.050 -0.1729 -0.2613  0.0273
13485W        W56476  31.075   2.650  27.278  0.0369 -0.1529  0.0745
13486W        W56477  32.161  29.433   3.966 -0.0749  0.1275 -0.1552
13487W        W56478  33.466   6.057   1.010  0.0024  0.2144 -0.1483
13488W        W56479  27.373  31.933  16.386  0.1190  0.3434 -0.0557
13489W        W56480   1.944   0.267  19.791  0.0018 -0.1327  0.0979
13490W        W56481  25.226  28.561  25.003 -0.0579  0.0320 -0.0892
13491W        W56482  31.567   0.797   4.737 -0.0997  0.1538 -0.1410
13492W        W56483   1.892  27.854  26.729 -0.0008  0.0311  0.2644
13493W        W56484  14.829  16.348  13.982 -0.0282  0.1018  0.1010
13494W        W56485  20.031   1.815  13.911 -0.0050  0.1104  0.1414
13495W        W56486  20.387  33.395  22.646 -0.1715 -0.1195  0.2959
13496W        W56487   7.952  11.584  15.018 -0.2631  0.2122  0.0781
13497W        W56488  23.336   4.286  17.508 -0.2134 -0.2957  0.0225
13498W        W56489  19.419  33.126  17.036  0.0793  0.3638  0.0017
13499W        W56490   8.997   5.159   6.192 -0.2369  0.2526 -0.1049
13500W        W56491  26.012  30.085  28.726 -0.1531 -0.1111 -0.1219
13501W        W56492  15.344  22.893  14.933 -0.1696  0.0452 -0.0025
13502W        W56493  30.155  29.186  16.088 -0.0588 -0.0613  0.0767
13503W        W56494   5.761  20.242  16.632 -0.1467  0.0140  0.0479
13504W        W56495  24.857   1.595  16.269  0.1833 -0.0698 -0.1692
13505W        W56496  24.452  31.539   3.986 -0.0036  0.0834 -0.0375
13506W        W56497  14.472  20.803  18.088  0.1207  0.1027  0.1695
13507W        W56498  21.475  34.634   2.584 -0.1029  0.3829 -0.1882
13508W        W56499  22.231  26.796  25.148  0.1839  0.1967  0.0618
13509W        W56500  31.338   8.114  21.041  0.3014 -0.0310  0.1137
13510W        W56501  12.447  34.078  19.565 -0.0782  0.1320 -0.2760
13511W        W56502  15.753  24.047  18.423 -0.0369  0.1546  0.0562
13512W        W56503  17.232  24.591  19.833 -0.0030 -0.3788  0.0473
13513W        W56504  12.918  27.470  20.587  0.2416 -0.1562 -0.1071
13514W        W56505  12.604  24.498  15.051  0.1558  0.1047  0.2658
13515W        W56506  30.512  28.191  23.964  0.1795 -0.2361  0.0150
13516W        W56507   2.027  33.516  19.602 -0.0745  0.2177 -0.2636
13517W        W56508  28.385   2.740  13.482  0.0578 -0.0406  0.0592
13518W        W56509  15.432   9.221  17.795 -0.4035  0.0119 -0.1165
13519W        W56510  21.934   1.202  13.126  0.0944 -0.1267 -0.3892
13520W        W56511  24.339  33.529  23.408 -0.0730  0.0250  0.2276
13521W        W56512  20.256  10.249  24.710  0.2936 -0.1805  0.1022
13522W        W56513  17.020   0.526  25.452 -0.1101 -0.2638  0.0491
13523W        W56514  22.284  13.747  24.069  0.0946  0.1655 -0.0744
13524W        W56515  10.235  30.207   0.376  0.1308 -0.3434  0.0703
13525W        W56516  17.361  29.699  24.675  0.0285  0.0258  0.3297
13526W        W56517  33.232  18.314  28.915 -0.0224  0.0608  0.1034
13527W        W56518  28.509   4.079  23.995 -0.3294  0.0171  0.2007
13528W        W56519  24.307  22.144  18.889 -0.0663 -0.0124  0.3387
13529W        W56520  32.267   7.817  23.926 -0.0730 -0.1982 -0.3080
13530W        W56521  25.173   3.020  24.246  0.1617  0.1987  0.3627
13531W        W56522  30.798  10.592  20.021  0.0574  0.1140 -0.1467
13532W        W56523  22.503  32.550  25.737  0.4515 -0.1796  0.2317
13533W        W56524  19.246  34.584  21.995 -0.1210  0.1685  0.4252
13534W        W56525  22.554  21.902  13.802  0.0023 -0.4457  0.0862
13535W        W56526  32.231  12.283   3.849 -0.0505  0.0222  0.1107
13536W        W56527  20.282   0.768  18.892  0.0929  0.1604 -0.2312
13537W        W56528  24.799  28.354  27.307  0.0473  0.0276  0.0265
13538W        W56529  22.427   2.948  15.379 -0.0911 -0.0555  0.3697
13539W        W56530  21.637  34.355  24.231 -0.0853 -0.1012  0.2060
13540W        W56531  24.397   4.257  27.131  0.3047 -0.0127  0.5101
13541W        W56532  28.757  24.878  27.140 -0.2221 -0.0371 -0.0366
13542W        W56533   7.188  28.805  15.733 -0.2626  0.0021  0.1372
13543W        W56534  14.377  33.058  14.323  0.1776  0.1126  0.1026
13544W        W56535  17.755  27.622  17.115 -0.0015 -0.0567 -0.1191
13545W        W56536  22.990  11.171  20.808  0.0672  0.0721 -0.2925
13546W        W56537  12.958   9.446  24.158  0.2026 -0.1967 -0.1689
13547W        W56538  33.387  34.288  14.257  0.1257  0.0008  0.0181
13548W        W56539  29.230  28.731   3.996  0.0348 -0.0175 -0.2750
13549W        W56540  30.986  14.531  27.630  0.2596  0.1173  0.1437
13550W        W56541  25.814   7.593  18.071 -0.0114  0.2379  0.1927
13551W        W56542  19.268   3.710  17.400  0.0866  0.3007 -0.3524
13552W        W56543  22.211  32.367  16.862  0.4202  0.1516  0.3953
13553W        W56544  25.983  30.196  27.136 -0.1227  0.0078  0.1771
13554W        W56545  24.660   4.566  17.782  0.0757 -0.0753  0.0262
13555W        W56546  15.466  34.565  27.885 -0.2014 -0.0390  0.0739
13556W        W56547  14.551  14.231  15.176 -0.0952 -0.3560  0.0712
13557W        W56548  26.474  32.096  23.946 -0.2060  0.2645 -0.0159
13558W        W56549  17.649  33.513  19.081  0.1120  0.0431  0.1131
13559W        W56550  28.866   9.640  19.934  0.1515 -0.0015  0.1123
13560W        W56551  26.149  14.076   2.844 -0.0959  0.0636 -0.2941
13561W        W56552  34.332  20.437  14.759 -0.0067  0.1759 -0.0296
13562W        W56553  20.154  29.948   5.269 -0.1369  0.2332  0.2702
13563W        W56554  19.724  10.593  18.828  0.2629  0.1303 -0.2356
13564W        W56555  31.401   1.189  14.014  0.2029  0.2597 -0.0542
13565W        W56556  16.969  29.314  25.369  0.6181  0.3595 -0.1938
13566W        W56557   6.552   2.528  25.156  0.1906 -0.1047 -0.2233
13567W        W56558  15.653  23.639  23.326 -0.0949  0.2602 -0.1485
13568W        W56559  20.424   7.904   0.588  0.3417  0.3602  0.1471
13569W        W56560   2.813   3.014  15.273 -0.0412  0.0745 -0.1683
13570W        W56561  17.311  23.375  14.785 -0.0810  0.0424 -0.3901
13571W        W56562  28.211  33.059  16.446  0.0453 -0.3451 -0.1915
13572W        W56563  15.171   9.907   5.488  0.0612 -0.2777  0.2199
13573W        W56564  16.149  24.305  13.918 -0.0680  0.1991  0.1200
13574W        W56565  19.178   4.672  24.555  0.0813 -0.1803  0.0199
13575W        W56566  31.509   1.580  13.670 -0.1715  0.0887  0.2489
13576W        W56567  26.046  29.871  13.534  0.2295  0.0647 -0.0272
13577W        W56568  31.692   3.358  21.010  0.0258  0.4150  0.3250
13578W        W56569  20.308   4.176   5.205 -0.0948  0.0170  0.1391
13579W        W56570  24.761  28.224  20.086  0.1850  0.0967 -0.0987
13580W        W56571  26.830   6.240  24.255 -0.0822  0.0678  0.1981
13581W        W56572  20.204  27.611  18.576 -0.1387 -0.2437  0.2964
13582W        W56573   2.550  31.943  16.630  0.3080 -0.0439 -0.3750
13583W        W56574  22.096   0.866  14.183 -0.0921 -0.2174  0.2324
13584W        W56575  20.000  23.387  15.796 -0.2765 -0.1279  0.3544
13585W        W56576  32.606   6.279  14.592  0.1904  0.2868 -0.2570
13586W        W56577  19.063   2.059  21.110  0.1082 -0.0569 -0.0755
13587W        W56578   9.803  10.174  21.068 -0.0739 -0.1148  0.3018
13588W        W56579  24.445  29.466  25.478  0.2938 -0.0936 -0.0680
13589W        W56580  21.898  28.995  26.967  0.3987 -0.0781  0.4749
13590W        W56581  26.898  27.846  24.553  0.0526  0.0142 -0.0275
13591W        W56582   1.187  15.979   9.060  0.1307  0.0097 -0.0629
13592W        W56583  18.308  31.478  15.599 -0.1725 -0.0359 -0.0215
13593W        W56584  28.507   3.291  18.668  0.2053  0.0710  0.0671
13594W        W56585  26.005  33.674  18.269 -0.0694  0.0847 -0.3769
13595W        W56586   9.509  11.218  18.239  0.2588  0.1138  0.2253
13596W        W56587  31.400   6.982  24.724  0.1000 -0.3138 -0.1152
13597W        W56588  27.655  27.762  13.352  0.0088  0.0288 -0.0770
13598W        W56589   0.640  32.751  16.272  0.0197 -0.0364  0.0717
13599W        W56590  26.410  32.956  19.615  0.0097 -0.1058 -0.0696
13600W        W56591  19.828  16.167  23.812 -0.2640 -0.2234 -0.1507
13601W        W56592  33.782  27.628  13.974  0.1773 -0.1964 -0.0570
13602W        W56593  28.972  15.323  16.821  0.0203  0.0563 -0.0650
13603W        W56594   7.232  20.848  27.858  0.0686  0.1947  0.0884
13604W        W56595   1.129   2.997  16.710  0.0505 -0.2143  0.1140
13605W        W56596  25.228  26.560  19.215  0.2022  0.0500 -0.2442
13606W        W56597  13.809  30.191  25.296  0.2042  0.0451  0.3561
13607W        W56598  22.158  11.180  18.753 -0.0160  0.1686 -0.1481
13608W        W56599  17.973   7.871  28.218  0.0212 -0.1137  0.0672
13609W        W56600  25.881  23.157   5.145  0.2166 -0.3649 -0.1086
13610W        W56601  18.136  31.455  25.664  0.0703 -0.0797 -0.1514
13611W        W56602  17.331  34.199  23.893  0.0169 -0.1691 -0.1422
13612W        W56603  29.966  25.277  15.852  0.2538 -0.4746 -0.1514
13613W        W56604  17.079   0.350  15.781 -0.3110 -0.0274  0.0723
13614W        W56605   9.960  21.665  27.640  0.1981 -0.3446 -0.0003
13615W        W56606  21.502   2.399  23.123 -0.0231 -0.0690 -0.0634
13616W        W56607  31.209   7.562  16.569 -0.2180  0.5158  0.1463
13617W        W56608  28.750  22.451  15.253 -0.1175  0.1027 -0.2630
13618W        W56609  30.899   1.447   3.765  0.1186 -0.0219 -0.1537
13619W        W56610   9.307  33.816  23.108 -0.2094  0.0995 -0.0129
13620W        W56611  17.956   3.142  14.505  0.0106 -0.0703 -0.0187
13621W        W56612  15.726  24.824  14.452 -0.0347 -0.2631  0.2467
13622W        W56613  21.229  27.206  22.628  0.0314 -0.0827  0.2234
13623W        W56614  20.130  32.624  16.660 -0.1307  0.0664 -0.1167
13624W        W56615  25.093  10.992  14.404  0.0455  0.4485  0.0589
13625W        W56616  18.774  31.097  13.917  0.1189 -0.3504 -0.2773
13626W        W56617  25.103   2.847   3.638 -0.2187  0.4510 -0.1350
13627W        W56618  31.299   2.195  21.444  0.1045  0.3641 -0.2917
13628W        W56619   4.966  25.409  24.978  0.0230 -0.1358  0.3118
13629W        W56620  27.144  31.959  26.765 -0.0360  0.0463 -0.1759
13630W        W56621  24.585   7.827  17.385  0.1935  0.1648 -0.2059
13631W        W56622  21.745   1.046  14.496  0.0922  0.0066  0.1275
13632W        W56623  29.698   6.691  16.071  0.1014 -0.0638 -0.0441
13633W        W56624  20.343  15.198  12.437 -0.0543 -0.0516 -0.1797
13634W        W56625  13.744  31.586  18.929  0.0215  0.0655 -0.0714
13635W        W56626  20.410   0.346  15.988  0.0193  0.0700 -0.0093
13636W        W56627  16.600   5.284   7.433 -0.2108 -0.1412 -0.1289
13637W        W56628   8.727  27.365   2.934  0.0007 -0.1039 -0.1973
13638W        W56629  10.244   1.517  27.653  0.1624  0.1637 -0.1403
13639W        W56630  17.417  15.855  14.033  0.0043 -0.0244  0.1354
13640W        W56631  18.827  11.321  21.180 -0.0346  0.0576  0.0239
13641W        W56632   9.220  32.518  19.936 -0.2817 -0.3022 -0.1941
13642W        W56633  21.062  30.421   7.370 -0.2724  0.3183 -0.2000
13643W        W56634   1.339  32.695  23.606  0.0513  0.2116  0.0416
13644W        W56635  24.884   0.947  28.905  0.1107 -0.0272  0.0540
13645W        W56636  16.978  18.836  14.920  0.2296 -0.2277  0.0333
13646W        W56637  19.042  10.692  23.561 -0.0060 -0.0084 -0.1681
13647W        W56638  20.649  12.503  27.713  0.0936 -0.0214 -0.1602
13648W        W56639  30.185  13.888  16.888 -0.3196 -0.2797  0.0780
13649W        W56640  15.851  29.633  21.476 -0.0980  0.1622  0.0562
13650W        W56641  34.199  17.236  28.968 -0.0069  0.4068  0.1562
13651W        W56642  33.620  33.348  22.152 -0.0609  0.0094 -0.1139
13652W        W56643  21.957  20.721  21.562 -0.2947 -0.1155  0.2767
13653W        W56644   4.328   5.828  20.174  0.4319 -0.0761 -0.3462
13654W        W56645  33.091  29.447  17.431 -0.1799  0.1974  0.2942
13655W        W56646  17.049   1.289  20.510  0.1576 -0.1269  0.0495
13656W        W56647  14.322  34.304  14.428  0.0234 -0.0418 -0.2709
13657W        W56648  10.825  16.771  20.400 -0.2307 -0.0470  0.0097
13658W        W56649  22.259   4.455  16.516 -0.3066  0.0592  0.3075
13659W        W56650  24.836  12.547   3.021  0.0714 -0.0784  0.0783
13660W        W56651  29.079   8.313  19.319  0.1687  0.0544  0.2869
13661W        W56652  34.112  31.829  17.081 -0.0550  0.0773  0.0212
13662W        W56653  32.961  28.047  23.970  0.3238  0.0366  0.0139
13663W        W56654   5.315   8.497  15.653  0.0664 -0.0222  0.1628
13664W        W56655  33.860  24.994  24.664  0.0510 -0.1944  0.0041
13665W        W56656  24.463   6.814  20.538  0.0067  0.0814 -0.0372
13666W        W56657  27.582  34.313  20.664 -0.0886  0.2276 -0.1060
13667W        W56658   0.557   5.599   6.035 -0.0495 -0.0205 -0.1671
13668W        W56659  14.234  33.115  26.788  0.1094  0.1953  0.2605
13669W        W56660   0.135  26.359  21.074 -0.2508  0.1683  0.0168
13670W        W56661  21.245  21.243  22.013  0.2763 -0.0096  0.1246
13671W        W56662  16.266   1.913   2.240  0.1433  0.1698  0.0151
13672W        W56663  22.417  33.554  13.350  0.0807  0.1151  0.0535
13673W        W56664  29.885  11.780  24.252 -0.3126 -0.0838 -0.3746
13674W        W56665  14.500  29.193  16.095 -0.2695  0.1928  0.0646
13675W        W56666  33.066  31.562  22.624  0.3646  0.1394 -0.1874
13676W        W56667  24.310  12.762  21.781 -0.0428  0.0669 -0.1418
13677W        W56668  14.756  10.511  18.023 -0.1398  0.0389  0.0436
13678W        W56669  20.012  34.178  20.518  0.1224  0.0634  0.1941
13679W        W56670  17.022   2.592  24.499 -0.2211  0.1297 -0.2579
13680W        W56671   5.222   0.046  28.562 -0.1267 -0.2950 -0.2695
13681W        W56672  31.358   1.050   5.702 -0.1113 -0.0336 -0.0409
13682W        W56673  17.914  33.443   6.507 -0.1449  0.0096 -0.0971
13683W        W56674  30.375  19.934   5.777 -0.1341  0.3327 -0.1438
13684W        W56675  25.557  24.127  15.416 -0.2142  0.0375  0.4003
13685W        W56676  20.681  33.002  17.028  0.0239 -0.2369  0.1469
13686W        W56677  17.213  33.775   0.646 -0.3204  0.1291 -0.0216
13687W        W56678  33.763  24.311  23.987  0.2904 -0.3193  0.2901
13688W        W56679   5.655  33.046  20.270 -0.0993  0.0476  0.0547
13689W        W56680  15.735  21.421  22.010 -0.2175 -0.1517  0.0689
13690W        W56681  26.082  30.173  25.702 -0.2682  0.1088  0.0560
13691W        W56682  20.337  12.817  26.786 -0.1454  0.0147 -0.0571
13692W        W56683  28.297  23.583   2.349 -0.2849  0.0358 -0.1191
13693W        W56684  27.369  29.613  16.395 -0.2759  0.0777 -0.2363
13694W        W56685  33.944  28.343  20.182  0.5502  0.3742  0.1619
13695W        W56686  12.954  26.340  15.338  0.1841  0.3171 -0.4694
13696W        W56687   6.830  21.651   0.237  0.1444  0.2718 -0.1047
13697W        W56688  22.804   4.042  19.731  0.0994 -0.0993 -0.1294
13698W        W56689  19.982  34.754  19.975  0.2601 -0.0157 -0.0980
13699W        W56690  16.190  32.097  15.868  0.0771  0.0561  0.0464
13700W        W56691  12.547   0.620  22.933  0.3431  0.1833 -0.2572
13701W        W56692  33.438  26.980  20.431  0.4506 -0.0324 -0.1175
13702W        W56693  31.823  30.914  19.187 -0.0770  0.2917  0.2484
13703W        W56694  31.932   3.761   7.572  0.0428  0.2687 -0.0556
13704W        W56695  22.223  12.712  25.267 -0.3017  0.2180  0.0723
13705W        W56696   1.533   7.099  17.187 -0.2050 -0.3099  0.2611
13706W        W56697   1.402  34.587  19.833 -0.0575 -0.0189  0.0218
13707W        W56698  28.496  13.385  19.988 -0.2034 -0.1835  0.0915
13708W        W56699   1.886  33.626  17.856  0.1726  0.0581 -0.1302
13709W        W56700  27.466   0.266   2.818  0.3293  0.0390 -0.0668
13710W        W56701  31.494  33.917  20.606 -0.1793  0.2456 -0.1187
13711W        W56702  17.453   5.322  27.536  0.1099 -0.0828  0.1783
13712W        W56703  17.643  14.380  15.987 -0.3297 -0.2887 -0.1026
13713W        W56704  20.393   0.023  22.643  0.0242 -0.2357 -0.0245
13714W        W56705  32.188  31.979  15.728 -0.4176 -0.2897 -0.1379
13715W        W56706  21.292  26.880  18.706  0.0401  0.0334  0.1128
13716W        W56707  12.517   2.756  10.295 -0.0712  0.1313 -0.1045
13717W        W56708   6.960   5.549  23.408 -0.1279 -0.1107 -0.0973
13718W        W56709  12.179   7.264   5.338 -0.0104 -0.0061 -0.2356
13719W        W56710  14.529  14.362  21.364  0.1613  0.0025  0.1928
13720W        W56711  14.268  15.114  27.425 -0.1637 -0.0647  0.1519
13721W        W56712  11.982  30.111   6.426  0.0849 -0.1266  0.0423
13722W        W56713  15.483  22.118  13.117 -0.0788 -0.1462  0.0095
13723W        W56714  31.774   9.817   3.410  0.0258  0.2609 -0.0418
13724W        W56715  17.238  31.066  26.561  0.0552 -0.0101  0.0141
13725W        W56716   2.275   0.739  13.942  0.1581  0.3469 -0.3180
13726W        W56717  14.270  12.947  17.989  0.1288  0.1396  0.0743
13727W        W56718  26.981  31.792  14.879 -0.0470  0.2257  0.0786
13728W        W56719  31.008   6.043  27.821  0.0907  0.1840  0.0225
13729W        W56720  23.579   2.728  16.610 -0.0716  0.2167  0.0013
13730W        W56721  11.796   5.272  14.553  0.0044  0.0863 -0.1239
13731W        W56722  24.527   5.966  15.988 -0.1010  0.0570 -0.1701
13732W        W56723  28.212   1.724  29.007  0.1850  0.1206  0.1486
13733W        W56724  34.273  10.748  19.935  0.1430 -0.1229 -0.0272
13734W        W56725   0.964  18.767   1.755  0.0732  0.1904 -0.0775
13735W        W56726   0.110  26.048   1.078  0.0389 -0.0384 -0.0759
13736W        W56727  21.955  34.198  19.075 -0.0652  0.5100 -0.0922
13737W        W56728  19.339  30.212  22.270  0.1508 -0.0514  0.0441
13738W        W56729  28.379   2.337  19.647  0.3970 -0.0912 -0.2437
13739W        W56730  21.979  23.991  23.702  0.1571 -0.1148 -0.3140
13740W        W56731  30.183  34.416  18.587 -0.0100  0.0583 -0.3425
13741W        W56732   6.951  26.493  18.080 -0.3408 -0.0100 -0.0992
13742W        W56733  28.661   5.041  23.066 -0.0262  0.1337 -0.1392
13743W        W56734  18.751   3.296  29.005  0.0322  0.0350  0.0601
13744W        W56735  30.616   2.825  15.464  0.0562 -0.3789  0.0748
13745W        W56736   8.031   8.019  16.642  0.0225 -0.0754  0.0434
13746W        W56737  23.351  15.558  24.972 -0.1416 -0.5271  0.1523
13747W        W56738  19.423  11.639   0.285  0.0192 -0.1374 -0.3004
13748W        W56739  27.089  31.257  27.258  0.1060  0.2090  0.2483
13749W        W56740  19.944  32.453  17.541 -0.0632  0.0270 -0.0006
13750W        W56741  16.302  30.247  23.027 -0.3091 -0.1011 -0.1805
13751W        W56742  33.012   2.300  21.007  0.0952  0.0469  0.0116
13752W        W56743   5.322  34.356  18.606 -0.0387 -0.0020  0.1353
13753W        W56744  17.730   4.734  14.652  0.1232 -0.2880  0.0636
13754W        W56745  29.646  21.132  21.684  0.2136  0.0151  0.1673
13755W        W56746  29.943  24.676  15.895 -0.0485  0.2124  0.0343
13756W        W56747  21.317  10.918  16.838  0.1832 -0.0933 -0.2011
13757W        W56748  31.885  11.125  20.208  0.3645 -0.1085 -0.1405
13758W        W56749  24.972   9.851  26.281  0.3671  0.1907  0.0426
13759W        W56750  25.423   7.984  27.781  0.0498  0.3122  0.4962
13760W        W56751  29.723  12.768  19.076 -0.0022 -0.3646  0.1759
13761W        W56752  15.586   0.944  20.671  0.1235 -0.1866  0.0344
13762W        W56753  29.990  19.330  16.688  0.1325 -0.3239  0.0829
13763W        W56754  17.608   2.039  16.051  0.1212  0.2676 -0.2415
13764W        W56755  20.490  11.082  17.934 -0.4326 -0.1938 -0.1252
13765W        W56756  22.927   8.915  26.197  0.0296  0.2044 -0.1088
13766W        W56757  18.342   2.036   0.404 -0.1194 -0.0826 -0.2052
13767W        W56758  20.381   1.693  21.813  0.1443  0.3027  0.2090
13768W        W56759  29.454   1.225  21.581  0.3585  0.1904 -0.0960
13769W        W56760  23.635  10.574  27.883 -0.0453  0.4101  0.0476
13770W        W56761  20.995   1.498  21.330 -0.0464  0.2312 -0.1959
13771W        W56762  14.784   1.530  28.320  0.0189  0.1331  0.0116
13772W        W56763   2.828  31.630  20.245  0.1996 -0.2380  0.1304
13773W        W56764  24.684   0.534  28.410  0.1065 -0.1557 -0.0399
13774W        W56765  29.989  20.093   8.988  0.0619  0.1814  0.2180
13775W        W56766  14.951  34.265  15.999 -0.0576 -0.1377  0.0186
13776W        W56767   0.546  22.256  17.940  0.1844  0.3143  0.2051
13777W        W56768  25.018   6.160  21.281  0.2726  0.0262  0.1452
13778W        W56769  13.755  31.141   1.284  0.3372  0.1490  0.0699
13779W        W56770  27.485  26.499  20.069  0.1736 -0.0928  0.0123
13780W        W56771  30.791  24.759  20.988  0.0023 -0.0296  0.1083
13781W        W56772  22.135  23.760  23.204  0.0087 -0.0534 -0.1554
13782W        W56773  16.725  26.404  23.376 -0.2553 -0.2414 -0.2333
13783W        W56774  25.759  24.377  22.781 -0.2884 -0.0092 -0.1098
13784W        W56775  19.644  12.760  17.389 -0.2543 -0.0564  0.0966
13785W        W56776   8.678  33.457  18.798 -0.3928  0.3515  0.3508
13786W        W56777  22.224   4.946  14.660  0.1639  0.0785 -0.3169
13787W        W56778  16.421  22.667  18.025  0.2057  0.1080  0.0617
13788W        W56779  32.470  21.417  16.968 -0.1663 -0.0072 -0.0707
13789W        W56780  26.964   0.726  21.374  0.2192  0.1736 -0.3328
13790W        W56781   2.277  34.764  15.812 -0.3604  0.1361 -0.1003
13791W        W56782  26.308  30.945  19.037  0.1762  0.0796  0.1000
13792W        W56783  21.210   2.876  24.734  0.0777  0.0575  0.0695
13793W        W56784  20.009  22.123  26.684  0.0340 -0.1411  0.0218
13794W        W56785  24.180  34.718   1.364  0.3432  0.1640 -0.0525
13795W        W56786  24.149  34.418  25.660  0.0431 -0.2965  0.0244
13796W        W56787  24.591  20.412  16.549  0.0992 -0.1352  0.0878
13797W        W56788  22.415  23.998  19.576 -0.2713 -0.0248  0.2365
13798W        W56789   3.909   8.238  21.595  0.3887 -0.2284  0.2001
13799W        W56790  27.290   1.399  17.450  0.0551 -0.0552  0.0419
13800W        W56791  32.409  30.785  15.348  0.1824 -0.2886  0.2140
13801W        W56792  29.128   3.777  14.572  0.0088 -0.1321 -0.2404
13802W        W56793  21.549  33.342  18.490 -0.0466 -0.0151 -0.0703
13803W        W56794  20.790   3.220  21.447 -0.1547 -0.0238  0.1509
13804W        W56795  19.090  33.339  18.738  0.0641  0.1661  0.2500
13805W        W56796  20.091  20.695  21.695 -0.2241 -0.0734  0.0716
13806W        W56797  23.987  28.591  15.739  0.1126 -0.0924 -0.0209
13807W        W56798  21.136  23.072  23.730 -0.0615  0.1458 -0.3238
13808W        W56799  27.248  30.420  23.531  0.0342  0.2064  0.2150
13809W        W56800  22.488  19.033  14.517 -0.3361 -0.0032  0.3828
13810W        W56801  28.207   8.424  24.340 -0.0948  0.0610  0.1168
13811W        W56802  21.215  30.810  15.881 -0.1516 -0.1766 -0.0582
13812W        W56803  13.786  31.838  24.744  0.0044 -0.1702  0.3266
13813W        W56804  29.186  25.452  25.277  0.3901 -0.1145 -0.0651
13814W        W56805  27.951  31.675  12.350 -0.0171 -0.0222  0.1863
13815W        W56806  23.538  33.048  17.797 -0.1079  0.1685  0.1349
13816W        W56807  29.539  28.926   1.163 -0.0091  0.1813  0.3812
13817W        W56808  23.835  28.113  27.102  0.0554 -0.1299  0.0413
13818W        W56809  22.005  29.488   8.980 -0.0127 -0.2618 -0.1967
13819W        W56810  21.016  23.831  22.754  0.0010 -0.0530 -0.0756
13820W        W56811  14.652  32.085  27.930 -0.0826  0.3586  0.0826
13821W        W56812  18.203  34.069  13.512 -0.2464  0.3623 -0.1959
13822W        W56813  15.114   7.779   1.705 -0.1824  0.2007  0.1349
13823W        W56814   2.896   1.066   2.082  0.1118 -0.1880  0.1286
13824W        W56815   3.529   7.376  27.160  0.0364 -0.0348 -0.0915
13825W        W56816   8.323  11.318  24.850 -0.0069  0.1721 -0.1756
13826W        W56817  22.986  33.113  22.428 -0.2177 -0.2098 -0.0874
13827W        W56818   1.201  29.335   7.355 -0.1141 -0.0525  0.2183
13828W        W56819  26.456  23.770   5.807 -0.1281 -0.2755  0.3080
13829W        W56820  12.502  17.868  17.976  0.2933 -0.0878 -0.0698
13830W        W56821  21.816   5.654  27.359 -0.0751 -0.0693 -0.0795
13831W        W56822   4.930  23.739  25.574  0.0549 -0.1780 -0.2024
13832W        W56823  13.747   9.655  23.495  0.2613  0.0177 -0.0545
13833W        W56824   6.620   4.827  26.738 -0.0276  0.2158 -0.3569
13834W        W56825  29.124  34.438  20.768  0.1178  0.1228  0.0166
13835W        W56826  24.353  33.803  20.303  0.1008 -0.2080  0.0724
13836W        W56827  19.447  33.405  14.360 -0.4080  0.1226  0.1902
13837W        W56828  24.420  29.292  15.864  0.1367  0.0615  0.2523
13838W        W56829  20.191  30.829  20.660 -0.1053 -0.0510  0.0902
13839W        W56830   8.887   0.435  25.621  0.0427 -0.3033  0.1415
13840W        W56831  17.807  32.544  21.424 -0.1610  0.0152  0.1847
13841W        W56832   1.155  23.237  14.284 -0.1133 -0.3019 -0.0511
13842W        W56833  30.698  31.314  23.982 -0.0305 -0.0995  0.1228
13843W        W56834   1.490  28.534  23.351  0.1044 -0.0755 -0.1507
13844W        W56835  23.807  32.815   1.232 -0.1451 -0.1787 -0.0670
13845W        W56836  16.565  30.683  25.930 -0.0637 -0.1574  0.0689
13846W        W56837  22.485   2.864  17.795  0.3445 -0.0035  0.0504
13847W        W56838  31.974   6.151  15.470 -0.0711  0.4022  0.0064
13848W        W56839  16.129  30.996  27.318 -0.0482  0.2308 -0.0094
13849W        W56840   1.825   4.608  28.046  0.2505 -0.1824 -0.0973
13850W        W56841   1.397  18.468  27.381 -0.3896 -0.0989 -0.2666
13851W        W56842  22.323  25.783  18.768 -0.0026 -0.0835 -0.0745
13852W        W56843  30.350  21.640  19.245 -0.1921 -0.1371 -0.3363
13853W        W56844  23.271  28.123  19.709 -0.0001 -0.1039 -0.2768
13854W        W56845  26.364  33.292  14.580 -0.0521 -0.1128  0.0087
13855W        W56846  31.767  10.715  19.794 -0.2032 -0.0803 -0.0334
13856W        W56847  27.729  33.187   3.283 -0.2780  0.2461  0.0446
13857W        W56848  30.019  29.771  27.167 -0.1203 -0.0049 -0.0632
13858W        W56849  12.078   9.960  18.349  0.0302  0.1697  0.1381
13859W        W56850  29.955   3.369  23.701  0.2823  0.0206  0.1306
13860W        W56851  29.229  32.537  14.589  0.0393 -0.0787 -0.0601
13861W        W56852  12.459   6.466  26.631  0.0679 -0.2603  0.1138
13862W        W56853  21.429   3.061  25.119 -0.1176  0.1363  0.3693
13863W        W56854  19.257   1.132   5.003  0.0800  0.0235 -0.1683
13864W        W56855  26.287  24.324  19.368 -0.2037 -0.0578 -0.1962
13865W        W56856  24.896  22.267   0.829  0.2171  0.1425 -0.0864
13866W        W56857  32.583  15.164  15.681 -0.3580  0.1787 -0.2526
13867W        W56858  23.905  32.669  25.288 -0.0030  0.0831 -0.2707
13868W        W56859  18.110  12.048  13.381 -0.0474  0.0699  0.0757
13869W        W56860  30.282  22.937  18.898  0.1564 -0.1392  0.2099
13870W        W56861  24.640   5.529  16.760 -0.0417 -0.0074  0.0498
13871W        W56862  30.280  15.680  15.170  0.2670 -0.1817 -0.2979
13872W        W56863   5.366   2.691  18.214 -0.0554 -0.0306 -0.3648
13873W        W56864  32.813   2.661   7.056  0.2085 -0.0348 -0.1410
13874W        W56865  19.162  15.784  15.184 -0.1241  0.0208  0.0453
13875W        W56866  20.990   8.438  24.630  0.3817  0.0697 -0.2368
13876W        W56867  27.878  34.405  26.447 -0.2473  0.0978 -0.2347
13877W        W56868  19.560  25.675  14.065 -0.0180 -0.2796 -0.0250
13878W        W56869  21.109  27.042   8.197 -0.0570  0.3132 -0.3666
13879W        W56870  23.395   3.776   2.499  0.1539  0.0361 -0.0707
13880W        W56871  11.278  10.569  28.289  0.0409 -0.0125  0.1656
13881W        W56872  25.650  29.303  21.465 -0.1556  0.0663 -0.1395
13882W        W56873  22.682   6.213  20.666 -0.0243 -0.2198 -0.2938
13883W        W56874  11.001   8.280  26.415 -0.0657  0.3101  0.2582
13884W        W56875   7.005   0.623   4.530  0.2680 -0.1331 -0.1032
13885W        W56876  14.168  17.702  14.469 -0.1166  0.1619  0.0888
13886W        W56877  21.734   4.540  16.404  0.0166  0.0593  0.3384
13887W        W56878  29.703  31.485   6.665 -0.1167  0.0561  0.1319
13888W        W56879  12.834  10.296   0.115  0.1781 -0.0405  0.1690
13889W        W56880  27.337  22.954  17.680  0.0230 -0.1180  0.2647
13890W        W56881  27.516   3.032   1.621 -0.3072 -0.0938  0.1151
13891W        W56882  11.918  15.450  17.255 -0.1988 -0.1881 -0.2527
13892W        W56883  22.390  29.148   2.219 -0.2069  0.1122 -0.1663
13893W        W56884  27.160   1.057  16.632  0.1243 -0.2627  0.0343
13894W        W56885  26.308  29.707  26.099 -0.1774  0.1389 -0.0320
13895W        W56886  24.192  30.453  17.433 -0.1842  0.1275 -0.0156
13896W        W56887  23.408  31.960  22.237 -0.0958 -0.0552  0.1685
13897W        W56888  26.787   4.868  16.182 -0.0519  0.1701 -0.1252
13898W        W56889  22.091  22.022  17.888  0.5082  0.3298 -0.1844
13899W        W56890   3.678  32.370   6.550  0.4406  0.3037 -0.4259
13900W        W56891  16.016  29.968   4.275 -0.0585  0.0264  0.0282
13901W        W56892  19.482   0.492  17.552 -0.2219 -0.0959 -0.1572
13902W        W56893   1.562  25.563  14.990 -0.1121 -0.2062 -0.1233
13903W        W56894  14.774  14.209  14.664  0.2273  0.0310  0.2120
13904W        W56895   3.011  23.103  17.913  0.1040 -0.1379 -0.0445
13905W        W56896  15.698  11.248   1.541 -0.0202 -0.3011 -0.2817
13906W        W56897  34.768  24.479  20.286 -0.1703 -0.1261  0.2084
13907W        W56898  26.944  16.040  26.735 -0.1274 -0.0064 -0.0028
13908W        W56899  13.700  31.120  16.939  0.6509 -0.1129  0.0256
13909W        W56900  33.741  19.437  22.276  0.1513  0.0514  0.1605
13910W        W56901  25.225  26.692  27.994  0.0047  0.0651  0.0264
13911W        W56902  17.489  34.187  15.704 -0.1277 -0.0798  0.1812
13912W        W56903  25.358   1.592  15.694  0.0105 -0.0032  0.1817
13913W        W56904  23.635  28.593  18.073  0.1507 -0.0811 -0.0651
13914W        W56905  27.492  29.345   2.716 -0.1823  0.1087  0.2296
13915W        W56906  12.939  33.070  24.095 -0.2909  0.4828 -0.1382
13916W        W56907  13.805  33.930  24.398 -0.1415  0.2075  0.4472
13917W        W56908  30.293  33.841  12.959  0.2216  0.1222  0.0645
13918W        W56909  29.807  26.332  14.704 -0.0749  0.2598 -0.2109
13919W        W56910  20.093  15.696  16.749  0.0448  0.1942 -0.0025
13920W        W56911  24.157  10.221  26.173  0.3609  0.1133 -0.1796
13921W        W56912  34.593   1.339  16.503 -0.0060 -0.2570  0.1759
13922W        W56913  26.259  33.328  20.251 -0.2905 -0.1180 -0.0801
13923W        W56914  31.284   1.399   1.972 -0.0773  0.0043  0.1107
13924W        W56915   5.528   8.358  26.433  0.1154  0.0642 -0.2642
13925W        W56916   3.584  12.445  26.353 -0.0207  0.2279  0.0637
13926W        W56917  29.174  24.627  17.357 -0.1690  0.1562  0.0095
13927W        W56918  12.298  28.968   9.523 -0.0506  0.1563  0.0067
13928W        W56919   9.797  27.932  18.385 -0.0499 -0.2147  0.0527
13929W        W56920  24.329   2.271  28.512  0.3483  0.0280  0.0654
13930W        W56921   6.553   9.966  22.238 -0.1234  0.0058 -0.1048
13931W        W56922  12.132  33.620   0.748  0.0639 -0.2561  0.1513
13932W        W56923  30.036  28.764  17.816  0.1876 -0.1388  0.1616
13933W        W56924  26.569  29.565   8.478 -0.2794 -0.0063  0.2490
13934W        W56925  26.885   5.830  15.434 -0.0728  0.0235 -0.1917
13935W        W56926  25.440   1.634  22.020  0.0917 -0.1197 -0.2827
13936W        W56927  24.475  34.695  22.666 -0.2437  0.3033 -0.1119
13937W        W56928  24.577   5.229  20.137  0.2876  0.2243  0.2595
13938W        W56929  28.502  26.754  18.901  0.0037 -0.2199  0.0093
13939W        W56930  20.334  12.333  29.176 -0.4675 -0.1724  0.0967
13940W        W56931  22.250  30.880  15.087 -0.0577 -0.0312  0.0187
13941W        W56932  27.358   3.600  23.827 -0.0135  0.2731  0.3127
13942W        W56933   3.208   9.792  28.815 -0.1571  0.0969  0.1409
13943W        W56934  20.372  33.455  23.142  0.2664 -0.1099 -0.1579
13944W        W56935  15.229  29.473  16.335  0.2400  0.2189  0.0039
13945W        W56936  31.911   1.626  16.131  0.1064 -0.1835 -0.1544
13946W        W56937  23.730  15.512  14.737  0.0745 -0.1977  0.0622
13947W        W56938   5.921   1.111  19.735  0.2337 -0.1986  0.1706
13948W        W56939  21.751  31.120   3.947  0.1552  0.1860  0.2706
13949W        W56940   3.426  28.531   9.238  0.1656  0.2821  0.1116
13950W        W56941  33.162  34.414  18.799  0.1021 -0.0363 -0.1364
13951W        W56942  25.284  18.663   4.615  0.1037 -0.1546 -0.3107
13952W        W56943  26.516   4.560  17.134 -0.0921 -0.2947  0.1906
13953W        W56944  26.104  29.671  17.685 -0.2530  0.1345 -0.4136
13954W        W56945   1.214   9.887  10.226 -0.0987  0.2931  0.1206
13955W        W56946   2.848  32.438   3.900  0.2532  0.1095  0.5097
13956W        W56947  22.657  27.542   1.799  0.2416 -0.1524  0.0796
13957W        W56948  24.116   2.492   6.150 -0.1738  0.2352  0.2251
13958W        W56949  33.201  32.173  27.703 -0.2600  0.1607 -0.0974
13959W        W56950  25.101  20.337   5.142  0.0220  0.0756 -0.2362
13960W        W56951  32.087  32.681  17.749 -0.0425  0.2806  0.0240
13961W        W56952  11.289  10.378  17.020 -0.2309 -0.0264 -0.1552
13962W        W56953  22.420  18.124   6.050  0.0150 -0.0749  0.3039
13963W        W56954  29.506  22.804  21.659  0.1274 -0.1740 -0.0456
13964W        W56955  11.570  33.785   1.889  0.0359  0.0797  0.3650
13965W        W56956  28.985   5.481  16.692 -0.0602 -0.0028 -0.1944
13966W        W56957  25.294  24.273  20.110 -0.0430  0.1105 -0.0658
13967W        W56958  32.100  18.099  23.912 -0.3231 -0.0095 -0.0073
13968W        W56959  19.100  24.547  22.929  0.0945 -0.0536 -0.3222
13969W        W56960  27.760   3.276  23.795 -0.2945  0.0916  0.0376
13970W        W56961   7.248   3.965  26.623  0.2355 -0.1524  0.0631
13971W        W56962  12.756  26.768  15.227 -0.2565 -0.0882 -0.2094
13972W        W56963  16.110   4.591   3.092  0.0916  0.0002  0.0259
13973W        W56964  12.931  32.931  14.679  0.1757  0.0387  0.0842
13974W        W56965  28.334  16.175   9.169  0.3962  0.1727 -0.0599
13975W        W56966  28.954   7.757  26.753  0.1654 -0.1322 -0.2908
13976W        W56967   6.409   6.449  16.938  0.0377  0.0506 -0.0014
13977W        W56968   7.119   4.231  16.145  0.0351 -0.1719 -0.0049
13978W        W56969  29.433  23.191  16.987  0.2195 -0.0034 -0.0349
13979W        W56970  19.173   1.055  17.985  0.0156 -0.2046 -0.0517
13980W        W56971  33.304  22.105   4.029 -0.4975 -0.1226  0.0168
13981W        W56972  18.907   8.253   7.558 -0.1656  0.0760  0.2153
13982W        W56973  29.233  30.737  26.941  0.2817 -0.4295  0.1544
13983W        W56974  15.479   2.292   0.694  0.1188  0.0516 -0.0233
13984W        W56975  25.707   3.581   8.395  0.2397 -0.1433 -0.1175
13985W        W56976  15.064   1.219  26.899  0.0985  0.2031  0.1173
13986W        W56977  29.764  23.534  24.262  0.3428 -0.1059  0.1252
13987W        W56978  25.339  33.519  14.300 -0.1747 -0.0642  0.3369
13988W        W56979  27.805   1.051  19.554  0.0954  0.1444 -0.0803
13989W        W56980  14.600  30.712  16.322  0.1280 -0.1683  0.0928
13990W        W56981  26.409   5.523   0.786  0.1307  0.2135  0.0164
13991W        W56982  31.228  20.732   3.515 -0.0318 -0.1964 -0.2337
13992W        W56983  23.653  17.493  16.673  0.2428 -0.0962  0.1210
13993W        W56984  10.189   5.724  19.937 -0.1262 -0.2572 -0.0420
13994W        W56985  24.834  24.911   7.580 -0.3269  0.1843  0.1000
13995W        W56986  10.448  31.989  21.578  0.0339  0.0095  0.1539
13996W        W56987  24.776   6.089  23.752  0.0601  0.0395  0.0049
13997W        W56988  12.981   9.782  25.506  0.2090  0.1619  0.2023
13998W        W56989   8.189  12.463   6.541  0.2828 -0.0889 -0.0482
13999W        W56990  27.137  12.784   5.764 -0.1514 -0.0652 -0.2062
14000W        W56991   4.705   8.318   4.219  0.1498  0.0912  0.0794
14001W        W56992  22.022  10.290  14.360 -0.1306  0.0120 -0.0402
14002W        W56993   0.115  32.024  20.897  0.1402 -0.2284  0.2006
14003W        W56994  32.699  14.724   8.801  0.1450 -0.3209  0.1287
14004W        W56995  21.201  29.188  25.873 -0.3505  0.1794 -0.3569
14005W        W56996  17.175  25.027  25.512  0.0361 -0.3379 -0.1115
14006W        W56997  21.663   0.930  24.000  0.2074  0.0875  0.0660
14007W        W56998  29.303   5.983  16.644 -0.2302 -0.1054  0.0581
14008W        W56999  23.719  25.881   6.902 -0.0709  0.0821  0.2179
14009W        W57000   9.262  31.577  27.826 -0.0951  0.2796  0.1903
14010W        W57001  25.433  29.744  21.697  0.2697  0.0876 -0.1572
14011W        W57002  23.579   6.472   0.153  0.2832 -0.1811  0.0918
14012W        W57003  28.012   3.532  19.585  0.0429 -0.0871 -0.0760
14013W        W57004  29.387   4.254   0.980  0.0134  0.1490  0.0675
14014W        W57005   0.450   4.431  15.465  0.2337 -0.2237  0.0688
14015W        W57006  24.472  17.151  17.427  0.0488  0.1430 -0.2751
14016W        W57007  31.921  17.310  10.171  0.4559  0.0752  0.1242
14017W        W57008  27.089  33.954  20.862 -0.1383  0.5153  0.2275
14018W        W57009  34.320  18.000   0.077  0.2298  0.0129 -0.2628
14019W        W57010  11.324  30.564  19.161 -0.1629  0.2019  0.1863
14020W        W57011  22.304  29.929  23.442  0.0890  0.0371  0.2182
14021W        W57012  11.399  24.382  22.903  0.3742  0.0727  0.0129
14022W        W57013  25.255  25.861  19.744  0.3240 -0.0299 -0.4344
14023W        W57014  21.154   4.943   9.170 -0.0010 -0.2073  0.0449
14024W        W57015  25.963  29.732  20.722  0.0180  0.0964 -0.0559
14025W        W57016  30.252  34.232  26.536  0.1633  0.0302 -0.1741
14026W        W57017   6.751   4.081  25.395  0.3717 -0.2984  0.0756
14027W        W57018  19.130   1.005  24.040 -0.0366 -0.5453  0.0340
14028W        W57019  27.993  33.988   3.199 -0.0969 -0.4199 -0.2187
14029W        W57020  18.376   6.141  22.557 -0.0398 -0.2612  0.0686
14030W        W57021  19.628  29.519  18.176 -0.2050  0.2934 -0.0120
14031W        W57022  28.462  27.758  27.735 -0.0818 -0.0973 -0.1740
14032W        W57023  32.902  28.122  13.234  0.3433 -0.1180  0.0107
14033W        W57024  33.286   4.047  28.668 -0.2337 -0.0124  0.1670
14034W        W57025  29.658  13.317  23.381 -0.2374  0.2164  0.1001
14035W        W57026  22.628  26.692  15.131  0.0690  0.1145  0.1160
14036W        W57027  10.763  30.261   3.424 -0.3525 -0.1729 -0.0586
14037W        W57028  19.541   8.594   3.749 -0.1182 -0.1662 -0.2559
14038W        W57029  20.056   9.819  19.566  0.1686 -0.1187 -0.0074
14039W        W57030   8.412  15.233  26.027  0.0445 -0.1257 -0.2344
14040W        W57031  33.586  21.786  15.048 -0.0554 -0.0629 -0.1382
14041W        W57032   4.384   4.292   6.094  0.1335  0.4257 -0.1343
14042W        W57033  14.949  29.300  14.151 -0.1815  0.0270 -0.1235
14043W        W57034   6.553  34.410  19.365  0.1435  0.2387 -0.0410
14044W        W57035  31.214  11.500  24.224 -0.1849  0.1181 -0.1551
14045W        W57036  11.741  31.296  20.527 -0.0241  0.3010  0.1871
14046W        W57037  11.422   1.550  10.268 -0.3075 -0.1321  0.3240
14047W        W57038  32.250  23.859   6.444  0.3399 -0.1530 -0.0842
14048W        W57039  27.786  32.214  19.679 -0.1486  0.2721  0.1132
14049W        W57040   0.218   1.864  25.464 -0.1163  0.4108 -0.3048
14050W        W57041  24.313   4.962  21.824  0.2207  0.2082 -0.0379
14051W        W57042  10.938  24.706  22.503  0.0794  0.0874 -0.1444
14052W        W57043  25.615  31.209   7.644 -0.1383  0.1056  0.0895
14053W        W57044  25.359  28.938  26.380 -0.0820  0.2270 -0.1357
14054W        W57045  11.535  13.697  21.321  0.0798 -0.1353  0.3614
14055W        W57046  34.115  18.691  19.643  0.0815 -0.0347  0.2459
14056W        W57047   0.486  30.307  20.579  0.0682  0.0319  0.1023
14057W        W57048  21.766   1.398  25.699  0.1126 -0.0827 -0.0094
14058W        W57049   6.043   3.781   7.415 -0.1362  0.1468 -0.0198
14059W        W57050  24.430  30.098  15.226 -0.2001 -0.1409 -0.0495
14060W        W57051  13.171  18.019  15.335  0.0558 -0.0651 -0.1011
14061W        W57052  24.545  29.722  20.462  0.2686  0.2008 -0.1576
14062W        W57053  11.060   4.954  23.939 -0.1493  0.0507  0.2132
14063W        W57054  22.741  31.762   5.877  0.0238  0.2505  0.0292
14064W        W57055  10.607  22.092  18.170  0.0666 -0.2755  0.1255
14065W        W57056  25.974   3.262  27.312 -0.1611  0.0015  0.1687
14066W        W57057  20.954   4.340  15.019  0.2190 -0.1476  0.3518
14067W        W57058  32.901   3.426  16.063 -0.0614  0.2700  0.2098
14068W        W57059   4.002   7.571  20.977 -0.2370 -0.2211  0.4120
14069W        W57060   2.579   9.248   6.340  0.2861  0.1186 -0.0945
14070W        W57061  12.605  31.746  22.584  0.0231  0.1629 -0.0770
14071W        W57062  17.897   4.597  24.834  0.3420  0.0177 -0.0688
14072W        W57063  32.715  10.738   1.989 -0.0126 -0.0225 -0.0881
14073W        W57064   4.198  30.118   3.352 -0.0955  0.2187 -0.1503
14074W        W57065  23.168   6.970  24.177 -0.0642  0.0646  0.1167
14075W        W57066  28.428   5.266  28.206 -0.3095 -0.0991 -0.1699
14076W        W57067  27.571  27.006  25.872  0.1559  0.1391 -0.0034
14077W        W57068  19.487   2.361   4.640 -0.0790 -0.2968  0.1627
14078W        W57069  15.975   4.219  20.463  0.0966 -0.0098  0.3875
14079W        W57070   1.001  23.854  15.597  0.0133  0.0679 -0.0619
14080W        W57071   5.106  34.318   5.270  0.2616  0.1131 -0.1835
14081W        W57072  23.837  23.042  18.075 -0.1453 -0.3075 -0.0126
14082W        W57073   2.623  33.204  17.255  0.1775  0.2582 -0.1437
14083W        W57074  11.357  14.733  27.688 -0.3152 -0.2268  0.0283
14084W        W57075  25.060  34.010  27.299  0.1087 -0.0491 -0.1935
14085W        W57076  19.266   0.275   9.418  0.2011  0.2373  0.1828
14086W        W57077  12.073  15.942  23.782 -0.1220  0.0458  0.0320
14087W        W57078  24.144   8.819  14.188 -0.1317 -0.1190  0.1895
14088W        W57079  20.698  27.071  20.692 -0.2477  0.1410 -0.0865
14089W        W57080  27.446  23.141   9.352 -0.1657  0.1064 -0.3455
14090W        W57081  21.656  29.485   3.810 -0.0645  0.0962  0.1590
14091W        W57082  24.812   7.777   5.323  0.3050  0.2215  0.1081
14092W        W57083   9.591   6.375  16.132 -0.0424  0.0294 -0.2600
14093W        W57084  11.365  34.475   4.520  0.1862  0.2258  0.2371
14094W        W57085   3.886   9.754   4.579  0.1839 -0.1767  0.2521
14095W        W57086  16.591  24.366   6.873 -0.4306 -0.2010 -0.4499
14096W        W57087  30.023  25.645   5.314 -0.1008  0.2646 -0.2038
14097W        W57088  33.425   3.764  27.883  0.0827 -0.0300  0.0720
14098W        W57089  29.084  26.964   5.969 -0.5090  0.3465 -0.0023
14099W        W57090  30.594   9.274  23.819 -0.0410 -0.0318  0.0947
14100W        W57091  20.065  22.099  19.462 -0.1993  0.0890  0.0260
14101W        W57092  19.947  34.418   2.663 -0.1286 -0.1564 -0.0117
14102W        W57093  24.947   2.675  16.090  0.2866  0.0495 -0.0679
14103W        W57094   1.570  33.803  21.696  0.0607 -0.0383  0.0030
14104W        W57095  30.873  29.013   8.026 -0.1713  0.2780 -0.1566
14105W        W57096   4.244  17.220  28.117  0.3398  0.1600  0.1011
14106W        W57097   3.696  18.473  23.668 -0.1767 -0.1858  0.0018
14107W        W57098  29.471  26.735  24.867  0.1144 -0.0141  0.4149
14108W        W57099  24.130  33.953  24.930  0.2660  0.0011 -0.1501
14109W        W57100  20.110  23.445  18.600  0.0684 -0.0178 -0.0099
14110W        W57101  25.741  20.483  22.300  0.1041 -0.2143  0.3922
14111W        W57102  25.019  21.110   3.486 -0.0354  0.0553  0.2451
14112W        W57103   3.367   9.070   1.600 -0.1652 -0.0447  0.0239
14113W        W57104  29.572  21.985   4.388 -0.0670  0.0014  0.1146
14114W        W57105  33.094   4.979  25.731  0.0259 -0.0205 -0.2780
14115W        W57106  31.289  23.913   0.023 -0.0005 -0.0393  0.2668
14116W        W57107  15.505   6.721  20.246  0.3060  0.4811 -0.0161
14117W        W57108  21.533   3.289   6.014 -0.0730  0.0400 -0.1696
14118W        W57109  32.489  19.116  24.912 -0.1193  0.2653 -0.0075
14119W        W57110  22.021  30.829  16.025 -0.0445  0.1178  0.1483
14120W        W57111  11.319   8.842  25.265 -0.1862  0.1912 -0.0183
14121W        W57112  17.377   5.201  22.809 -0.2862 -0.0153  0.3322
14122W        W57113  22.145  27.783   5.150  0.1262 -0.2476 -0.0541
14123W        W57114  21.452  31.363  14.639 -0.0620  0.0554  0.3319
14124W        W57115  22.811  33.433  24.626 -0.0607  0.1594  0.0695
14125W        W57116  31.132  22.454  17.107  0.1714  0.0338 -0.3268
14126W        W57117  23.942  23.046   1.265 -0.0979 -0.2223  0.2063
14127W        W57118  31.632   1.802   0.382 -0.0403 -0.0988 -0.0528
14128W        W57119  25.675  21.852  23.979 -0.3288 -0.1311 -0.1500
14129W        W57120  34.314   0.173  25.813  0.4400 -0.1939  0.2676
14130W        W57121  28.575  15.014  14.444 -0.0423 -0.0500  0.0666
14131W        W57122  20.900   1.410   5.064  0.1240  0.1215  0.1832
14132W        W57123  33.596  32.726   5.780 -0.3636 -0.0947  0.1682
14133W        W57124   7.173   3.722  16.106 -0.0583 -0.2922 -0.3574
14134W        W57125  26.344  32.520   7.348  0.2271  0.0772 -0.0331
14135W        W57126  26.269  13.054  17.674 -0.0859 -0.0944  0.3346
14136W        W57127  18.280  34.106  27.903 -0.0613  0.2376  0.1523
14137W        W57128  25.403  10.626   5.024 -0.1545  0.0465  0.0803
14138W        W57129  29.768  26.177  26.648 -0.1803 -0.0035  0.3523
14139W        W57130  12.064  33.536  22.793  0.0315  0.2337  0.0395
14140W        W57131  28.407  21.366   8.787  0.2612 -0.1149 -0.0922
14141W        W57132   2.225  26.068   3.774  0.1374 -0.0133 -0.2148
14142W        W57133  26.910  27.827   7.158 -0.3226 -0.2355  0.3887
14143W        W57134   2.690   6.103   6.457 -0.1258  0.1438  0.0953
14144W        W57135  19.711  28.593   4.986 -0.0889  0.2818  0.1767
14145W        W57136   1.704   0.142   2.566  0.0860  0.1090  0.0749
14146W        W57137  27.122  29.966   1.141 -0.1983  0.2921  0.0075
14147W        W57138  16.356   1.521  23.742  0.1537 -0.1137  0.1936
14148W        W57139  31.312  14.108   6.283  0.1123 -0.0796 -0.0848
14149W        W57140  18.187   2.508   0.675  0.2088 -0.1057 -0.1366
14150W        W57141  18.346  32.022  25.677  0.1961 -0.0456 -0.2928
14151W        W57142  16.226  33.947  14.817 -0.0517 -0.2101  0.0990
14152W        W57143   0.964   2.425   2.555  0.2778  0.0977 -0.0637
14153W        W57144   7.419  33.392  23.237 -0.0109  0.1875 -0.4012
14154W        W57145  26.744  26.716   6.388  0.2832  0.3167  0.0402
14155W        W57146  27.543   8.764   4.342  0.0429 -0.2425 -0.1577
14156W        W57147  31.465  16.016  15.300  0.0060  0.2042 -0.1849
14157W        W57148  21.622  34.208  28.838  0.1242  0.3895 -0.1148
14158W        W57149  23.794  31.396   7.409  0.1916  0.0450  0.3180
14159W        W57150   1.249   9.336  19.814  0.3433  0.0349 -0.1532
14160W        W57151  12.555  10.184   6.689 -0.0872 -0.0225  0.0468
14161W        W57152  33.493   3.668   7.758  0.0833 -0.4700 -0.0998
14162W        W57153  19.179  20.940  21.530  0.1363 -0.2182  0.0855
14163W        W57154  23.504  24.585  25.849 -0.0871  0.2761  0.0982
14164W        W57155  18.011  13.049  19.036 -0.0244 -0.0554 -0.1286
14165W        W57156  22.693  34.662   6.931  0.0272 -0.2140 -0.1123
14166W        W57157  17.142  24.194  28.019  0.1713  0.4703 -0.1577
14167W        W57158  14.562  33.764  20.400  0.2117 -0.0450 -0.2308
14168W        W57159   5.155  12.713  16.913  0.0884  0.1170 -0.1114
14169W        W57160  24.661  14.306   9.302 -0.1544 -0.2352 -0.2986
14170W        W57161  23.174  31.992  13.217  0.0787 -0.2324 -0.0416
14171W        W57162  11.837   5.243   0.363  0.2253 -0.1093  0.0636
14172W        W57163   5.934   2.221  24.342 -0.3290  0.0205 -0.0370
14173W        W57164   4.517   4.997   6.956  0.1645 -0.1418  0.1988
14174W        W57165  17.757  11.905  27.809  0.0631 -0.1719 -0.2470
14175W        W57166  26.816   7.050   2.268  0.1033  0.3041 -0.1161
14176W        W57167  27.360  29.440  23.709  0.0725  0.2708  0.1511
14177W        W57168  30.392  33.196  22.003  0.4516 -0.0509 -0.2431
14178W        W57169   3.460  21.481   4.725 -0.0008  0.0780 -0.1789
14179W        W57170   8.944  11.366  17.514 -0.0743 -0.0075  0.1794
14180W        W57171  13.619   2.390  22.713  0.1752 -0.2050  0.2370
14181W        W57172  23.684  20.000  20.494  0.3566 -0.1260 -0.2048
14182W        W57173  33.384  23.523   0.465  0.0060  0.1098  0.0320
14183W        W57174  26.449  22.716   8.444 -0.3995  0.0320  0.0979
14184W        W57175  30.909  22.682  16.661 -0.1175  0.2243  0.0214
14185W        W57176   8.526  25.671  10.755 -0.2512 -0.1769  0.0281
14186W        W57177  14.152  30.390  24.211  0.0657  0.3080  0.0102
14187W        W57178  26.352  29.529   5.108 -0.1871  0.0293 -0.0104
14188W        W57179   0.642  23.249  20.340 -0.3418  0.1739 -0.0957
14189W        W57180  26.654  31.378  22.815  0.0011 -0.0500 -0.0208
14190W        W57181   4.197  34.168   4.357  0.1174  0.0215  0.4166
14191W        W57182  32.860  28.240   4.334  0.0638  0.0305 -0.3809
14192W        W57183  22.073  22.742  27.047 -0.2082 -0.0324 -0.4089
14193W        W57184   3.565   7.120   4.132  0.0404 -0.0586  0.0889
14194W        W57185  18.717  24.419  16.826 -0.2216  0.0652 -0.1227
14195W        W57186   6.592  32.889   5.874  0.1434  0.0030  0.0602
14196W        W57187  32.051   5.726   4.045  0.2327 -0.1045 -0.1396
14197W        W57188   1.288  21.485   2.828  0.1189  0.1301 -0.2120
14198W        W57189  23.405   1.324   4.156 -0.0225 -0.5240  0.2018
14199W        W57190  19.075  12.465  23.893 -0.3292  0.0009 -0.0863
14200W        W57191  28.849  12.947  20.011 -0.3857 -0.1169  0.2029
14201W        W57192  28.279  13.787  19.926  0.3858  0.2034  0.1495
14202W        W57193  21.741   6.874  27.210  0.1029  0.0268  0.0293
14203W        W57194  17.356  26.069  25.169  0.1641 -0.0981  0.0659
14204W        W57195  30.439  25.246  28.100 -0.0435  0.1563 -0.0919
14205W        W57196  21.736  27.748  14.873 -0.0735 -0.0005 -0.0746
14206W        W57197  21.418  17.552  24.454  0.1346  0.2682 -0.0604
14207W        W57198   0.606  21.304   6.856  0.0450  0.0848 -0.2960
14208W        W57199  25.861   4.292   1.008  0.2911  0.1865  0.0217
14209W        W57200  21.218  12.749   5.219  0.1628 -0.0284  0.1358
14210W        W57201  27.975   5.598  25.380 -0.3379 -0.3075  0.0817
14211W        W57202  17.735  25.919  26.562  0.3439  0.2158 -0.0603
14212W        W57203  17.601   9.304   6.404  0.4414  0.3115 -0.1792
14213W        W57204  20.213  32.684  22.071  0.1348 -0.2007 -0.0281
14214W        W57205  26.516   6.388  23.262 -0.1879  0.1977 -0.0209
14215W        W57206  31.891  28.697  27.662 -0.0689 -0.2416  0.1885
14216W        W57207  14.599  33.209  26.465  0.0120  0.2055 -0.0792
14217W        W57208  17.184   3.779   2.858 -0.0115 -0.1693 -0.1136
14218W        W57209  11.431  30.828  20.590  0.1475 -0.2008  0.0808
14219W        W57210  12.882  32.150  23.977  0.1247 -0.0536  0.1327
14220W        W57211  34.593   5.790  14.798 -0.0957  0.2677 -0.0553
14221W        W57212  26.644  27.581   3.976 -0.1791  0.0268  0.1337
14222W        W57213  11.515  29.960  24.585 -0.3147 -0.1950  0.2948
14223W        W57214  20.195  32.794  16.180 -0.0117  0.0805  0.2457
14224W        W57215   5.507  34.445   2.181 -0.3032  0.0078 -0.2539
14225W        W57216  29.441   2.115  17.788 -0.2194 -0.0617  0.1409
14226W        W57217  16.056  33.293  25.151  0.4225 -0.1323  0.1535
14227W        W57218   0.287  11.182   2.153 -0.2427 -0.2855  0.0818
14228W        W57219  28.133   5.669  29.222  0.0678  0.2218  0.0441
14229W        W57220  10.784  26.366  15.715  0.2224  0.4929  0.2200
14230W        W57221  26.802  31.825   6.715 -0.1746  0.0654 -0.3009
14231W        W57222  20.616  28.395  22.040 -0.3948  0.0473 -0.0818
14232W        W57223  30.324   4.707  23.812  0.1373  0.0716 -0.1067
14233W        W57224  11.704  34.190  28.018 -0.4777  0.0549  0.2339
14234W        W57225  17.438   1.247  18.602 -0.1171 -0.1210  0.1204
14235W        W57226   0.176   6.037   4.495 -0.1884  0.2366 -0.2094
14236W        W57227  21.037  28.131   1.349  0.2391  0.2859 -0.2850
14237W        W57228  34.652   3.875  22.869 -0.1118  0.0027  0.1137
14238W        W57229  22.892  32.578  26.832  0.1835 -0.1177  0.0262
14239W        W57230  25.285  29.880  27.433 -0.0468  0.3056 -0.2981
14240W        W57231  34.030   0.443  27.314  0.2516 -0.1464 -0.1611
14241W        W57232   3.572  16.634   8.659  0.2742 -0.0815 -0.0347
14242W        W57233   4.114  28.059  20.154  0.1076  0.0215  0.0828
14243W        W57234   5.505  31.430   6.096 -0.0062 -0.0722 -0.0652
14244W        W57235  27.167  14.274  28.199  0.1045 -0.2770 -0.0860
14245W        W57236  33.142   3.965   3.250 -0.1203  0.1555  0.1683
14246W        W57237  26.556   7.734  16.141  0.1238 -0.1224 -0.0604
14247W        W57238   2.059  34.460  18.709  0.3200 -0.1845 -0.2445
14248W        W57239   7.521  30.187  17.197 -0.1681 -0.0218 -0.0686
14249W        W57240  13.362  14.208   2.597  0.0437  0.1092 -0.1379
14250W        W57241  20.871  32.284   6.788  0.1949  0.0333  0.3196
14251W        W57242  17.382  31.919   0.796 -0.0526  0.0922 -0.2113
14252W        W57243  32.463   7.747   1.022  0.2194 -0.0486  0.1731
14253W        W57244  21.251  23.742  17.853  0.0039  0.0009  0.0167
14254W        W57245  26.475  32.944   4.030 -0.1464 -0.2583  0.3842
14255W        W57246  32.563  13.526   6.606 -0.0532  0.1166  0.3612
14256W        W57247  31.222  31.927   6.326  0.2426 -0.1577  0.4440
14257W        W57248  33.270  24.862   6.078  0.0987 -0.3842  0.2478
14258W        W57249  24.347  32.895  22.764 -0.0062 -0.1787 -0.1307
14259W        W57250  24.311  28.549  25.734  0.1390  0.1112 -0.0518
14260W        W57251  15.251  19.716   9.463  0.1764  0.3146  0.0004
14261W        W57252   7.789  10.970  19.142  0.0676  0.1993 -0.0457
14262W        W57253  24.904  24.555   2.178  0.3328 -0.1812  0.2498
14263W        W57254   2.250   8.570   7.970 -0.3112 -0.1431 -0.1564
14264W        W57255  14.690  30.246  16.086 -0.1725 -0.0461 -0.1468
14265W        W57256  25.687   4.077  26.211  0.3662 -0.1253  0.1426
14266W        W57257  26.480  28.734  26.621 -0.1037 -0.0070 -0.2860
14267W        W57258  28.660  33.992  20.006  0.2836  0.3554 -0.2848
14268W        W57259  13.006  16.343   5.386 -0.2102 -0.0034  0.0088
14269W        W57260  23.280   4.451  15.215  0.2703  0.2517  0.3444
14270W        W57261  19.402  29.203  25.271  0.0253  0.0386 -0.2697
14271W        W57262  22.974  22.574  29.174  0.2295  0.1795  0.0131
14272W        W57263  25.043  14.590  19.711  0.0037  0.2426 -0.0284
14273W        W57264  24.713  28.115   1.454  0.1060 -0.4585 -0.2647
14274W        W57265  31.825  32.837  16.672  0.1716  0.2400 -0.0440
14275W        W57266  21.668  32.082   3.752 -0.2595  0.0561 -0.2217
14276W        W57267  27.706  32.216   2.483 -0.3593  0.0415  0.1098
14277W        W57268   0.538  18.390  27.628 -0.1992 -0.3244 -0.1965
14278W        W57269  27.657  28.629  23.966 -0.0181  0.0962  0.4498
14279W        W57270  27.517   5.115  24.536 -0.2533 -0.0985 -0.0016
14280W        W57271  30.321   6.702  23.437 -0.1104 -0.4592 -0.2613
14281W        W57272   8.855   3.832  28.180 -0.2862  0.0442  0.0041
14282W        W57273  17.458   6.567  26.998 -0.0233 -0.1609  0.0708
14283W        W57274  18.363   6.051  27.082 -0.0398 -0.1813 -0.2717
14284W        W57275  25.910   3.166  28.983  0.1472 -0.1328  0.0631
14285W        W57276  27.617  29.184  21.831  0.1984  0.1471  0.0396
14286W        W57277  25.447  30.359   6.134 -0.0470 -0.1341  0.1052
14287W        W57278  19.817  32.490   7.225  0.1043  0.2206 -0.1290
14288W        W57279   2.693   7.518   4.812 -0.0918 -0.1996  0.0276
14289W        W57280   9.549  10.363   1.685  0.4047 -0.0402  0.0976
14290W        W57281  33.706  30.453   9.681 -0.2022  0.0272 -0.1995
14291W        W57282  31.148   1.920  19.370 -0.0082  0.1735  0.1960
14292W        W57283  31.973  26.949   4.707 -0.1548 -0.1286  0.2040
14293W        W57284  11.687   7.319  11.324 -0.0618  0.1059 -0.0499
14294W        W57285  12.763  12.208   6.610 -0.0498  0.0504  0.3548
14295W        W57286   7.840  33.747   5.223 -0.0462 -0.4387  0.1131
14296W        W57287  23.779  18.170  27.068 -0.0745  0.1982  0.0326
14297W        W57288  19.121   0.768   3.354  0.2130  0.1217 -0.1603
14298W        W57289  26.054  34.623  15.068  0.0435 -0.1501 -0.0031
14299W        W57290   9.327  21.888   0.793  0.0705 -0.2799 -0.2455
14300W        W57291  19.533  24.545  25.915 -0.2223 -0.0841 -0.0214
14301W        W57292  15.086  33.470   0.935  0.0487 -0.0745  0.0976
14302W        W57293  19.851  10.328  16.246 -0.1555 -0.1493  0.0148
14303W        W57294  18.542  31.082   7.113  0.2517  0.0890  0.3735
14304W        W57295  29.117  34.410  16.745 -0.2837  0.1533 -0.5892
14305W        W57296  31.324  21.171  16.891 -0.1244 -0.2002  0.1305
14306W        W57297   1.514  14.726  24.346 -0.3066 -0.0060  0.2073
14307W        W57298   6.210   2.971  27.995 -0.2704  0.0936 -0.1327
14308W        W57299  30.458  16.122  28.558 -0.1682  0.0772  0.1763
14309W        W57300  26.765   5.421   8.050  0.1530 -0.0840  0.1280
14310W        W57301   0.882  24.599   4.259 -0.0615 -0.0850  0.1185
14311W        W57302   0.161   6.668   8.955  0.0438 -0.2846 -0.1209
14312W        W57303  18.245   2.899  26.798  0.2555  0.0632  0.0466
14313W        W57304  18.622  30.266   8.565  0.1705 -0.2815 -0.0889
14314W        W57305  21.777  18.562   2.898  0.3732  0.2502  0.2947
14315W        W57306  31.305   9.980  19.410  0.1719  0.1714 -0.1149
14316W        W57307  12.369  21.407   5.189  0.0663  0.5331 -0.2385
14317W        W57308  16.023  27.418   3.461 -0.1558  0.0602 -0.2474
14318W        W57309  27.468   5.698  22.362  0.1958  0.0557  0.1635
14319W        W57310  21.878   2.486  22.879 -0.3351 -0.1589 -0.0335
14320W        W57311  29.008   0.556   3.914  0.2467 -0.2099 -0.3470
14321W        W57312  18.169  15.901  12.724  0.0824  0.1591 -0.1412
14322W        W57313  32.188  26.548  23.883  0.0581  0.2436 -0.1929
14323W        W57314  23.018  28.474  14.326 -0.0953  0.1732  0.2316
14324W        W57315  20.302   5.666  25.952 -0.1732 -0.2384 -0.0712
14325W        W57316  15.770  31.220  25.874 -0.1022  0.1593  0.1751
14326W        W57317  21.357  30.212  17.338 -0.1582  0.0594 -0.3072
14327W        W57318  32.338  14.972  18.972  0.1317  0.3715 -0.1379
14328W        W57319  21.160  14.592  13.870  0.0780 -0.0866  0.0109
14329W        W57320  32.500  17.206  19.644 -0.1292 -0.1570 -0.0849
14330W        W57321  33.973   7.192  23.033  0.3935 -0.0164  0.3063
14331W        W57322  27.660  16.563  19.160 -0.0268 -0.0827 -0.2155
14332W        W57323  12.815  27.081  27.385 -0.0876 -0.1099 -0.2699
14333W        W57324   9.769   0.397  21.695 -0.4630  0.2166 -0.1214
14334W        W57325  13.841  10.771  23.296  0.0169 -0.1370  0.1149
14335W        W57326  32.064  16.091  18.268  0.1097  0.1502  0.0259
14336W        W57327  21.397   1.786  15.049  0.0277 -0.0625  0.0699
14337W        W57328   4.502  20.278  25.923 -0.0503  0.2368  0.5284
14338W        W57329  10.772   6.465  24.922  0.0696  0.1395  0.1898
14339W        W57330  28.851   4.828  23.432 -0.0660  0.1068  0.1399
14340W        W57331  24.726  30.317  23.297 -0.0156  0.2043  0.0021
14341W        W57332  31.491  29.160  18.093 -0.0947  0.0955  0.3366
14342W        W57333  15.543  17.159  13.760 -0.1535  0.1292 -0.1123
14343W        W57334  28.319  31.803  20.418 -0.1881  0.3876 -0.0574
14344W        W57335  29.258   5.661  16.271  0.1067 -0.1786  0.0880
14345W        W57336  23.780  34.703  23.516  0.0412  0.0384 -0.4500
14346W        W57337   3.789  34.553  15.837 -0.3887 -0.2297 -0.1482
14347W        W57338   4.464  29.083  25.370  0.1728 -0.0181  0.1881
14348W        W57339  24.485  10.749  25.969  0.0046  0.1774  0.3683
14349W        W57340  29.756   7.736  14.420  0.1707 -0.2116 -0.2744
14350W        W57341  23.963   0.736  22.822 -0.3744  0.0244 -0.0980
14351W        W57342   8.719   5.757   8.993  0.0388  0.0104  0.1389
14352W        W57343  23.493  12.299  15.385  0.0275  0.2216 -0.1541
14353W        W57344   1.529  13.817  20.325  0.3330  0.1975 -0.0584
14354W        W57345  31.050  33.482  17.855 -0.0028  0.4692 -0.0724
14355W        W57346   2.966   8.212  17.697  0.1397 -0.3171  0.1422
14356W        W57347  25.659  32.716  13.947  0.1821 -0.1435  0.0227
14357W        W57348  28.065   7.000  22.335  0.1292 -0.0479 -0.2773
14358W        W57349  21.958  18.545  28.412 -0.3001  0.0737  0.0026
14359W        W57350  23.087   9.503  15.980 -0.1342  0.2727  0.3075
14360W        W57351  25.977  10.388  24.245 -0.0769  0.1068 -0.0681
14361W        W57352  31.995   3.062  24.804  0.2036  0.0760 -0.0211
14362W        W57353  11.202  33.447  28.602  0.0728 -0.2718  0.1891
14363W        W57354   7.243  28.111  24.219 -0.0560  0.3540 -0.0386
14364W        W57355  32.491   7.306  27.099  0.0609  0.2565  0.4435
14365W        W57356  25.791   1.422  28.963 -0.1314 -0.3223 -0.3888
14366W        W57357  32.407   4.181  15.648  0.1755  0.2902 -0.1057
14367W        W57358  24.546   6.218  21.375  0.0488  0.0377  0.0018
14368W        W57359  20.148  30.417  21.917  0.2203 -0.2257 -0.3428
14369W        W57360  21.848  17.846  16.166 -0.0996  0.0152  0.0036
14370W        W57361  14.406  28.681  22.527  0.1735  0.2727  0.2921
14371W        W57362   1.423  23.776  26.312 -0.0667 -0.0376  0.3099
14372W        W57363  15.580   0.446  15.063  0.1279  0.4639  0.1218
14373W        W57364  21.391  32.002  21.131 -0.1378 -0.3318  0.1327
14374W        W57365  25.485  31.749  29.247 -0.1601 -0.3379  0.1793
14375W        W57366  18.181  26.247   1.002  0.1180 -0.2064  0.3433
14376W        W57367  23.439  32.382  21.092  0.2968  0.0140 -0.0267
14377W        W57368   2.895  11.922  28.732 -0.0168 -0.1805 -0.0054
14378W        W57369  26.704   4.293  19.348 -0.3119 -0.5071 -0.3429
14379W        W57370  30.724  11.433  23.997  0.0599  0.3950 -0.0448
14380W        W57371  12.951   4.798  17.744 -0.1757  0.1199  0.0399
14381W        W57372  20.471  15.338  14.087  0.0925 -0.1596  0.0138
14382W        W57373  24.476   5.163  24.973 -0.0820  0.1044 -0.0097
14383W        W57374  28.122   1.917  15.597 -0.0320 -0.3471  0.0842
14384W        W57375  18.407   0.114  20.470 -0.0057  0.1035  0.0034
14385W        W57376  23.411  31.324  21.552 -0.0524  0.1814  0.0330
14386W        W57377  22.997   4.252   2.666  0.2970 -0.0923  0.0341
14387W        W57378  20.305  26.505  13.716 -0.2401  0.0019 -0.0236
14388W        W57379   4.112   4.100  21.765  0.2405 -0.2787 -0.0235
14389W        W57380  33.551  15.816  18.819  0.2910  0.0884  0.2180
14390W        W57381  28.812  22.644  26.475 -0.3385 -0.0734  0.1275
14391W        W57382   1.139  32.826  24.181  0.0588  0.1235 -0.0639
14392W        W57383  21.070  20.027  23.622  0.2160  0.0512 -0.0493
14393W        W57384  30.143  32.359  25.648 -0.2523 -0.0693  0.4118
14394W        W57385  30.576   6.453  16.370 -0.2518  0.4658 -0.2158
14395W        W57386  22.960  32.230  19.728 -0.0200  0.0048  0.2143
14396W        W57387  27.094  30.762  16.964 -0.0626  0.0708  0.3698
14397W        W57388  26.851  16.898  20.604  0.0005  0.0105 -0.2889
14398W        W57389  33.275  31.203  18.081  0.1082 -0.1948 -0.1088
14399W        W57390  26.301   8.467   8.019  0.0645 -0.2943  0.1134
14400W        W57391   8.657  23.876  19.117  0.4632 -0.2184 -0.1472
14401W        W57392  20.415  28.716  15.223 -0.1732  0.0828 -0.4634
14402W        W57393  31.213   0.389  20.229  0.1584 -0.1105  0.0849
14403W        W57394  30.167  17.845  18.254 -0.1302  0.0580  0.3314
14404W        W57395  12.269   7.937  26.150 -0.3095 -0.0462  0.1694
14405W        W57396  27.180  23.152  16.670  0.0398  0.0780  0.2527
14406W        W57397  30.111  13.720  27.892 -0.1705 -0.2867 -0.1786
14407W        W57398  26.171  14.336  23.231  0.1805 -0.1440  0.0891
14408W        W57399   4.674   6.981  23.244 -0.0898 -0.0269 -0.1010
14409W        W57400  11.745  29.715  17.369  0.3150 -0.3881  0.0126
14410W        W57401  22.864   8.063  21.418  0.5822 -0.1153  0.0035
14411W        W57402  23.108   6.398  18.791  0.3133  0.0185 -0.1241
14412W        W57403  31.085   8.760  25.119  0.2377 -0.1786  0.2432
14413W        W57404  32.801  33.971   0.246  0.2147  0.1749  0.2844
14414W        W57405   7.075   4.946  14.698 -0.2111 -0.2879  0.0474
14415W        W57406  27.317  34.041  18.938 -0.3527  0.2434 -0.1527
14416W        W57407   7.907  33.525  15.585  0.2269 -0.0466 -0.0138
14417W        W57408  17.952  20.294   2.603 -0.3655 -0.2072  0.1655
14418W        W57409  19.772  34.085  18.055  0.0507  0.0502 -0.1311
14419W        W57410  14.411  13.806   7.783  0.1624 -0.0812  0.2667
14420W        W57411  23.749   1.604  24.249  0.2155 -0.3705  0.0952
14421W        W57412   8.635   6.122   0.579  0.1985  0.1719 -0.1288
14422W        W57413  32.525   3.911  26.749  0.2501  0.0220  0.0663
14423W        W57414   7.847  32.291  18.137 -0.0787  0.0074  0.0836
14424W        W57415   9.304  22.745  19.758 -0.0733 -0.0280  0.3723
14425W        W57416  24.268  16.497  16.632  0.0307  0.1737  0.0370
14426W        W57417  26.845   2.548  16.106  0.3775  0.0161  0.0427
14427W        W57418   4.002  27.188  18.150  0.2253  0.0111  0.0175
14428W        W57419  12.462  18.412  18.015 -0.1469 -0.0186  0.5202
14429W        W57420  12.767  29.290  19.050  0.2644  0.1414 -0.0808
14430W        W57421  30.938  27.130  16.118  0.1465 -0.3143 -0.1897
14431W        W57422  30.861   4.858  23.771  0.1300 -0.1149 -0.1194
14432W        W57423  23.770   0.643   1.193 -0.4541  0.1099  0.1823
14433W        W57424  27.640  20.003  14.136 -0.0322  0.0925 -0.0829
14434W        W57425  22.643  12.172  22.788 -0.3532 -0.1053  0.0610
14435W        W57426  32.748  12.812   1.387  0.0968  0.2523 -0.3740
14436W        W57427  26.998  28.091  24.180 -0.0007  0.3237  0.0885
14437W        W57428  33.387   4.551  25.892  0.1111 -0.0280  0.0324
14438W        W57429  30.584  25.408  13.816 -0.0052  0.0700  0.4530
14439W        W57430  26.548  29.020  23.435  0.1392 -0.0080  0.0450
14440W        W57431  30.606  31.745   2.128 -0.0437 -0.0802  0.1292
14441W        W57432  29.982   5.811  15.165 -0.2381  0.3837  0.3543
14442W        W57433  26.735  30.900  18.530 -0.2283 -0.1900 -0.0333
14443W        W57434  18.192   7.099  22.919  0.0851  0.1513 -0.0079
14444W        W57435  29.055  31.431  20.344 -0.1075  0.2167  0.0552
14445W        W57436  16.174  15.772  25.687 -0.2121  0.3150  0.1052
14446W        W57437  29.993   0.150  19.476  0.0340 -0.2189 -0.0229
14447W        W57438  30.800  32.956  22.318 -0.0312 -0.1880 -0.2219
14448W        W57439  33.336  30.883  25.345  0.0925  0.0497  0.2149
14449W        W57440   4.134   5.221   0.255  0.0918  0.0177 -0.1498
14450W        W57441  20.266  30.468  24.672  0.0736  0.2532  0.6016
14451W        W57442   0.632   2.184   4.510 -0.0260  0.1726  0.0136
14452W        W57443   7.787  13.544  20.225  0.2671  0.1446 -0.1711
14453W        W57444  27.328  23.006  20.201 -0.2805 -0.0246  0.1868
14454W        W57445   2.279   2.206  25.616  0.0299 -0.0910 -0.1076
14455W        W57446  31.819   6.078  22.409 -0.4111  0.0148 -0.2328
14456W        W57447   3.497   0.332  28.437 -0.1897  0.0499  0.0285
14457W        W57448   9.946  34.737  18.667 -0.2727  0.1089 -0.1332
14458W        W57449  14.633  10.088  17.313  0.1663 -0.1661  0.0267
14459W        W57450  28.849   7.861  17.139 -0.0095  0.1584 -0.2437
14460W        W57451  11.020  12.649  15.991  0.0745  0.0397  0.0568
14461W        W57452  26.992  14.435  17.694 -0.0672  0.2982 -0.0448
14462W        W57453  21.021  29.977  20.494  0.1315  0.2268  0.2128
14463W        W57454  23.929  13.367  23.371  0.3230 -0.0053  0.0297
14464W        W57455  23.313  16.115  21.796  0.0382 -0.1150  0.2453
14465W        W57456   3.074  32.865   3.004 -0.1251  0.0504 -0.0326
14466W        W57457  27.106  31.322  16.939 -0.0443 -0.3224 -0.0816
14467W        W57458   1.302  33.511  23.211  0.0206 -0.4148  0.0213
14468W        W57459  11.098  24.534  18.520 -0.2151  0.3534 -0.3619
14469W        W57460  24.424  20.442  21.633 -0.1146  0.1858 -0.1113
14470W        W57461   2.191   9.114  18.984  0.1352  0.1400 -0.0433
14471W        W57462  15.193  17.518   3.124 -0.2121  0.0535 -0.1570
14472W        W57463  31.797  32.334  16.700 -0.1900 -0.0489  0.1754
14473W        W57464  23.235   9.270  18.268  0.0781 -0.0872 -0.1614
14474W        W57465  22.700  29.610  22.697  0.1523 -0.2066 -0.2005
14475W        W57466  21.288  14.040  14.443 -0.1261 -0.0448  0.1097
14476W        W57467  31.724  21.575  21.113  0.1896  0.2994 -0.0426
14477W        W57468  34.729  15.879  22.083 -0.2330 -0.2658 -0.1271
14478W        W57469  24.884   5.054  15.990 -0.2657  0.2609 -0.0523
14479W        W57470  28.608   5.197   9.436  0.0497  0.0266 -0.0140
14480W        W57471  30.879   9.847  25.497  0.2337  0.0497  0.5011
14481W        W57472  18.225  30.999  15.473 -0.0948  0.0494 -0.2142
14482W        W57473  21.446   5.387  14.989 -0.3333  0.2022 -0.0824
14483W        W57474  31.617  32.732  19.616  0.0946  0.1696 -0.1247
14484W        W57475   2.950  29.232  14.269 -0.0059  0.0863  0.2876
14485W        W57476  27.918  11.136  16.382  0.0197  0.2765  0.0554
14486W        W57477   2.389  14.368  23.568  0.1637  0.0654 -0.1009
14487W        W57478  15.424   8.124  17.894  0.0136 -0.0640  0.0128
14488W        W57479   0.419   3.943  16.142 -0.1403 -0.0864  0.0161
14489W        W57480  28.373  10.564  21.755 -0.1803  0.2200  0.5619
14490W        W57481  31.457  30.205   0.582 -0.2246 -0.2686  0.1699
14491W        W57482  30.240   1.809  15.507  0.1642 -0.2628  0.0337
14492W        W57483  21.468  28.604  20.663 -0.0616 -0.3192 -0.1732
14493W        W57484   1.458  10.171  28.662 -0.1330  0.2048 -0.4129
14494W        W57485   8.510  19.325  18.203 -0.2901 -0.4152 -0.1763
14495W        W57486  34.159   4.702  21.265  0.0017 -0.3074 -0.3301
14496W        W57487  29.578   3.656  27.003 -0.0182 -0.4603  0.0025
14497W        W57488  32.592  30.407  19.019  0.0422  0.2503 -0.1918
14498W        W57489  26.172   9.661  16.176  0.0422  0.0333  0.2928
14499W        W57490   3.712  28.672  14.505 -0.0321  0.0336 -0.3701
14500W        W57491  29.109  34.619  26.236  0.0526  0.0289  0.2056
14501W        W57492   4.457   9.207   0.949 -0.0050 -0.1005 -0.1708
14502W        W57493  28.481  34.605  14.006  0.0679  0.0180 -0.6367
14503W        W57494  24.002   7.598  15.580  0.0290 -0.3453  0.1655
14504W        W57495  23.762  23.068  15.268 -0.0396 -0.5130  0.0455
14505W        W57496  32.260  17.687  20.302  0.1049  0.1018  0.0531
14506W        W57497  28.259  11.387  25.606  0.1095  0.2460  0.0528
14507W        W57498  10.901   1.382  15.074 -0.1022 -0.0058  0.0631
14508W        W57499   5.552  32.190  17.478  0.1173 -0.1857  0.2710
14509W        W57500  29.190  14.854  16.823 -0.2529  0.1730  0.2836
14510W        W57501  16.761  34.056  25.396 -0.2133  0.0412  0.0436
14511W        W57502  31.593  34.617  20.374  0.1956 -0.1367 -0.0322
14512W        W57503  32.006   3.691  14.560  0.1494  0.0429  0.1991
14513W        W57504  28.171   3.542  19.029 -0.2364  0.0588  0.0862
14514W        W57505  29.650   6.316  20.217 -0.0467  0.3192 -0.1888
14515W        W57506   0.218  28.762  20.653 -0.3563  0.1128 -0.0146
14516W        W57507   5.939   7.073  19.146 -0.1670 -0.1823  0.0226
14517W        W57508  16.665   7.275  17.540 -0.0298  0.1027  0.3935
14518W        W57509  18.091   4.582  19.252 -0.1462  0.0242 -0.0465
14519W        W57510  34.414   7.922  16.865  0.2388 -0.0260 -0.1604
14520W        W57511  14.991  34.666  21.120 -0.2529  0.0922  0.1790
14521W        W57512  11.804  28.472  15.870 -0.0789  0.1969 -0.0468
14522W        W57513  26.244  12.759  15.490  0.1571 -0.1675 -0.1194
14523W        W57514  19.605  28.030  24.969  0.1354  0.1543  0.2208
14524W        W57515  28.376   0.210   2.787  0.0286  0.0410 -0.2507
14525W        W57516  26.981  30.664  12.331  0.0696 -0.1929  0.0980
14526W        W57517  17.805   9.879   2.041  0.1678 -0.0728  0.1362
14527W        W57518  24.231  33.135  15.663 -0.1800  0.1877 -0.0075
14528W        W57519  26.331   5.259  26.981  0.1779 -0.0809  0.2401
14529W        W57520  25.892  10.498  22.389 -0.2480  0.0507  0.0224
14530W        W57521  28.059   6.460  24.327 -0.1632 -0.0266 -0.0143
14531W        W57522   0.950  11.454  21.011 -0.0586  0.0984 -0.3329
14532W        W57523  29.083   1.649  24.842  0.2394  0.1107 -0.2710
14533W        W57524  30.894  11.187   5.424  0.1896  0.2952 -0.1605
14534W        W57525  12.312   4.324   5.722 -0.0172  0.3085  0.1739
14535W        W57526  28.175  24.787  20.456 -0.3675  0.2742 -0.1385
14536W        W57527  17.247  13.479   7.094  0.1328  0.1585 -0.1963
14537W        W57528  16.599   9.122   8.526 -0.0599 -0.0760  0.0498
14538W        W57529  21.385  14.516  14.265  0.1190 -0.0271  0.0714
14539W        W57530  24.209  31.628  13.995  0.0216 -0.0167  0.0373
14540W        W57531  24.404   3.180  16.083 -0.1285 -0.0718 -0.0596
14541W        W57532   2.959  33.687  16.180  0.1149 -0.0782 -0.0371
14542W        W57533  24.360   2.495  13.395  0.2552 -0.3339 -0.0013
14543W        W57534   8.547   3.518  26.621 -0.0130  0.1187  0.2062
14544W        W57535  22.870   2.783  20.146  0.0841 -0.1485 -0.1967
14545W        W57536  30.578   2.521  17.005  0.0166 -0.1423  0.1288
14546W        W57537  17.101  34.214  19.581 -0.2359  0.0452 -0.1374
14547W        W57538   9.968  27.847  16.762  0.1388  0.0511 -0.1517
14548W        W57539   7.989  32.676   2.372 -0.1012 -0.0019 -0.0417
14549W        W57540  29.753  16.475  26.493  0.2228 -0.0813 -0.0723
14550W        W57541  23.968  12.331  25.434  0.0101  0.1825 -0.2568
14551W        W57542   2.402   0.042  15.310  0.0880  0.0740  0.1730
14552W        W57543  25.189   9.744  20.719 -0.0475 -0.2555 -0.2386
14553W        W57544   9.048  33.510   2.697 -0.2434  0.1096  0.1595
14554W        W57545  23.677  10.603  21.604 -0.0769  0.0535  0.1145
14555W        W57546  29.426  24.706  21.003  0.0196 -0.0366 -0.0898
14556W        W57547   8.404  13.876  15.763  0.0592 -0.0083 -0.3850
14557W        W57548  20.190  24.508  18.897 -0.1001 -0.1922 -0.0604
14558W        W57549  32.911   6.001  14.906 -0.1002  0.3529 -0.1948
14559W        W57550  29.997  12.276  21.128  0.0724 -0.1626  0.2088
14560W        W57551   4.968   7.617  26.568  0.0409 -0.0521 -0.1948
14561W        W57552  21.038  28.624  15.520  0.2551 -0.1512 -0.0950
14562W        W57553  21.050  20.851  21.443  0.0357 -0.1698  0.1830
14563W        W57554  25.861   5.208  15.858  0.1848  0.0830  0.0265
14564W        W57555  29.570  31.880   3.843 -0.0683  0.1704 -0.0406
14565W        W57556  17.812  28.401   0.463 -0.1091  0.0738 -0.0622
14566W        W57557  32.762  28.795  24.793  0.1913  0.0517  0.0736
14567W        W57558   2.289   2.352  22.920 -0.1581 -0.0799  0.0234
14568W        W57559  27.047  26.190   3.120  0.3100  0.1125 -0.0023
14569W        W57560  21.852   4.165  15.047  0.2079  0.2181 -0.1611
14570W        W57561  21.115  10.239  18.731  0.0962  0.0568 -0.0304
14571W        W57562   7.761  25.829  23.335  0.1553  0.1873 -0.1836
14572W        W57563  18.083  30.018  15.140 -0.0308 -0.3028  0.2013
14573W        W57564   5.571   1.346  19.295  0.0596  0.0089  0.1442
14574W        W57565  19.542   3.811  26.373  0.1511 -0.0869  0.0652
14575W        W57566   3.778  31.631  16.459  0.1108  0.0527  0.0417
14576W        W57567  24.193  10.029  17.448 -0.1156 -0.1695 -0.3127
14577W        W57568  28.176   3.246   3.882 -0.0863  0.2609 -0.4297
14578W        W57569  19.135  33.420  23.598 -0.2437  0.1552 -0.4012
14579W        W57570  25.991   0.717  20.833  0.1444  0.1870  0.0404
14580W        W57571  22.009  18.944  14.545 -0.2903 -0.1503 -0.3369
14581W        W57572   5.976  32.536  20.117 -0.1351  0.0754 -0.1133
14582W        W57573  18.514  28.191  24.794 -0.2349 -0.0842 -0.2281
14583W        W57574  29.984   7.075  17.257  0.0574  0.0004 -0.1514
14584W        W57575   1.710   2.733  14.529 -0.0785 -0.1551 -0.1043
14585W        W57576  26.558  13.135  19.903 -0.1056  0.0633  0.0757
14586W        W57577  12.488  32.381  23.179  0.2016 -0.2846  0.1211
14587W        W57578  22.069  10.846  20.700 -0.3509 -0.0529 -0.5023
14588W        W57579  26.712  11.585  20.232 -0.1685  0.2102  0.0627
14589W        W57580  26.422  14.666  13.810  0.1821  0.0880 -0.0987
14590W        W57581  29.722  15.622  22.463 -0.2225  0.0175 -0.1554
14591W        W57582  27.936   1.510  13.255  0.0375 -0.0967  0.1295
14592W        W57583   0.697   5.670  21.971 -0.1745 -0.1872 -0.0697
14593W        W57584  22.108   4.269  22.623  0.0706 -0.0703  0.4253
14594W        W57585  13.734  26.229  26.548  0.1099 -0.0220 -0.0492
14595W        W57586  19.914  12.061   8.417  0.2983  0.0192 -0.0733
14596W        W57587  24.380   4.532  24.988  0.1224 -0.1870  0.4313
14597W        W57588  21.922   9.432  23.914 -0.2067 -0.1304 -0.0205
14598W        W57589  29.733   4.505  16.174 -0.2584 -0.5855  0.0338
14599W        W57590  28.213  23.750  21.347  0.0126  0.1364 -0.0544
14600W        W57591   2.439   7.567   1.338  0.1216  0.1375 -0.0432
14601W        W57592   7.167   8.971  15.107 -0.2829 -0.3287  0.0164
14602W        W57593   8.399  28.276  19.915 -0.2016  0.2844 -0.0916
14603W        W57594  24.205   0.127   6.444 -0.1229 -0.1891  0.1371
14604W        W57595  17.466   5.147  17.862 -0.3725  0.0272  0.2150
14605W        W57596  22.812  30.122  17.346 -0.0798  0.1065 -0.1592
14606W        W57597  13.662  12.738  15.984  0.3744  0.0142  0.1964
14607W        W57598   1.271   3.959  29.135  0.3096  0.1085 -0.0984
14608W        W57599  29.595   2.442  18.101 -0.0527 -0.0929  0.0201
14609W        W57600   9.964   9.772  23.405  0.2319  0.1793 -0.0182
14610W        W57601  25.683  14.822  21.659 -0.1370  0.1080  0.0124
14611W        W57602  15.728  24.014  24.125 -0.0081  0.3689  0.0975
14612W        W57603   5.035  27.213  20.115 -0.0248 -0.0905  0.3193
14613W        W57604  25.759   6.909  15.175  0.2171  0.1060  0.1092
14614W        W57605  13.343  34.756  14.595  0.1681 -0.1128  0.3111
14615W        W57606  16.368  34.657   5.281 -0.3177 -0.1310 -0.0134
14616W        W57607  25.613   2.751  20.253  0.0431 -0.3785 -0.1800
14617W        W57608  23.986  32.807  18.469 -0.2092 -0.1228 -0.3020
14618W        W57609  32.585   4.798   1.301 -0.2352 -0.1310  0.3567
14619W        W57610  23.173   0.443  15.280 -0.0170  0.1077 -0.2785
14620W        W57611  21.490  11.694  15.726 -0.1311 -0.1052 -0.1687
14621W        W57612  19.883  27.769  23.452  0.2709  0.2535 -0.0612
14622W        W57613   8.283  18.889  22.310  0.0214  0.1403 -0.1375
14623W        W57614   4.574  27.235  27.325 -0.2698 -0.1028  0.0125
14624W        W57615  11.878   0.878  10.181 -0.1228  0.1906 -0.2169
14625W        W57616  23.155  32.410  15.769  0.0529  0.2554  0.0637
14626W        W57617  23.217  30.285  13.463 -0.1224 -0.0335  0.1970
14627W        W57618  21.963  32.041  13.764  0.0936  0.2939 -0.1856
14628W        W57619   7.124  19.378  18.048 -0.1331  0.1290  0.1587
14629W        W57620  28.830   6.790   5.271  0.0917 -0.1009  0.2913
14630W        W57621  25.663  18.495  18.588 -0.0768  0.0065  0.0913
14631W        W57622   2.251  18.651  23.897  0.1088 -0.2185 -0.1663
14632W        W57623  14.160   8.331  16.192 -0.0319 -0.1963  0.1445
14633W        W57624  13.877  21.034  17.535  0.0118  0.0610 -0.1528
14634W        W57625  14.041   3.373  17.924  0.1022  0.0705  0.2136
14635W        W57626  22.247  12.291  21.977  0.1465 -0.0391  0.0517
14636W        W57627  29.927   1.075   2.062 -0.0210  0.1864  0.2206
14637W        W57628   5.979  28.121  14.597 -0.3162 -0.1459  0.0636
14638W        W57629   1.449  11.606  28.946  0.0054  0.0451  0.0099
14639W        W57630  32.288  16.458  23.147 -0.1156  0.3019  0.3018
14640W        W57631  22.409  31.379  15.113 -0.0272 -0.1047 -0.2254
14641W        W57632  26.248  11.738   2.356 -0.3115 -0.0637 -0.0547
14642W        W57633  32.004  13.955  19.468  0.1045 -0.2522  0.0573
14643W        W57634  24.018  18.192  20.674  0.0370  0.3805  0.0270
14644W        W57635  23.511  26.733  23.447  0.0081 -0.0315 -0.0271
14645W        W57636  19.529   2.887  19.484 -0.0258 -0.4793  0.2831
14646W        W57637  32.506   4.979  27.746 -0.0272  0.0763  0.1007
14647W        W57638  11.026  34.550  25.730  0.1280 -0.0690 -0.0447
14648W        W57639  29.243  29.246  22.864  0.1740  0.0815 -0.1171
14649W        W57640  25.625   5.810  25.355 -0.0296  0.2933 -0.0006
14650W        W57641  18.183  23.483  20.796 -0.3162 -0.0007  0.0289
14651W        W57642  20.525   1.268  14.455  0.2108 -0.1555  0.2235
14652W        W57643  27.596  14.696  16.335  0.2023  0.2888  0.0937
14653W        W57644  26.723   7.474  16.556  0.3104 -0.0642 -0.4170
14654W        W57645  33.305  33.001  20.182 -0.0488  0.0226 -0.0222
14655W        W57646  25.351   0.582   0.731  0.1149  0.1545  0.0021
14656W        W57647   0.638  25.905  26.157  0.0305  0.0395  0.0117
14657W        W57648  30.946  21.097  20.916 -0.0031 -0.0231 -0.0681
14658W        W57649  19.164   4.630  20.861 -0.2340  0.0661 -0.1184
14659W        W57650   3.538  10.440  23.323 -0.1373 -0.2971 -0.0118
14660W        W57651  20.613  26.866  20.263 -0.2593 -0.1213  0.6902
14661W        W57652  21.919  33.337   1.095 -0.1868 -0.0889  0.0713
14662W        W57653  24.247   2.270  14.212 -0.3201  0.2746 -0.1794
14663W        W57654  20.446   5.220  14.035 -0.1059 -0.2100  0.0127
14664W        W57655  19.949  13.173  21.388 -0.2741 -0.2926  0.1403
14665W        W57656  24.603  14.272  13.283 -0.1400  0.5059  0.0849
14666W        W57657  33.575   6.451  20.589  0.2289 -0.1698 -0.2835
14667W        W57658  32.857   6.864  14.703  0.0939 -0.0375 -0.0090
14668W        W57659  20.965  29.618  25.985 -0.2926 -0.2480  0.2376
14669W        W57660   2.255  27.036   9.309  0.0572 -0.0606  0.2377
14670W        W57661  19.071   7.383  21.592 -0.0732 -0.3008 -0.0630
14671W        W57662   0.354   6.509  17.413  0.1402  0.0971  0.2501
14672W        W57663  25.477  32.112  21.132 -0.1572  0.0899  0.0220
14673W        W57664  21.561  34.107  21.592 -0.0019 -0.0296 -0.2016
14674W        W57665   7.980   3.308  16.429  0.3459 -0.2013  0.0103
14675W        W57666   6.049  32.539  24.387 -0.0815  0.1129  0.1881
14676W        W57667  34.389  31.118  14.090  0.0802 -0.1229 -0.1992
14677W        W57668  25.612   8.390  19.021  0.2924 -0.1865  0.1575
14678W        W57669  33.115  10.129   4.675 -0.0215 -0.1179  0.0759
14679W        W57670   1.025  13.532  17.878  0.1546 -0.0944 -0.2119
14680W        W57671  17.000  32.622  14.407  0.2267 -0.2583 -0.0874
14681W        W57672  21.000   3.061  18.103 -0.1296  0.1878 -0.4682
14682W        W57673  28.313   1.607  12.604 -0.0680 -0.2812  0.2728
14683W        W57674   6.653  30.850   5.508  0.0803  0.0127 -0.0443
14684W        W57675  32.176   9.558  26.613  0.0872 -0.0220  0.3180
14685W        W57676  19.793  27.454  24.805  0.1790  0.1468 -0.0265
14686W        W57677  19.052  26.347  28.447  0.3252 -0.1322 -0.0141
14687W        W57678  32.674  33.050   3.726 -0.1025  0.2200  0.1485
14688W        W57679   2.409   4.885  26.785  0.2916 -0.0542  0.0331
14689W        W57680  31.490   4.788  19.201 -0.2230  0.3081 -0.1206
14690W        W57681  24.786  31.791  16.591  0.0165 -0.0038 -0.1919
14691W        W57682  20.700  34.187  21.455 -0.0988  0.0307 -0.4258
14692W        W57683  20.037  32.862  25.623 -0.1811  0.3975 -0.0029
14693W        W57684   4.097  13.517  15.672  0.3069  0.2561  0.1743
14694W        W57685   8.598  33.209  24.777 -0.0189 -0.2284 -0.0503
14695W        W57686  30.636  19.872  28.344 -0.3798 -0.1278  0.2189
14696W        W57687  12.911  33.953  19.884  0.1203  0.2926  0.1723
14697W        W57688   3.322   5.280  16.559 -0.2781 -0.0804 -0.0161
14698W        W57689  23.885   6.026  17.332  0.4158  0.3033 -0.0891
14699W        W57690  22.867  28.235  14.812 -0.1002  0.1930  0.0570
14700W        W57691  26.100   4.362  18.668  0.1828 -0.1890 -0.3323
14701W        W57692   0.617  23.083  24.590 -0.0782 -0.0306  0.1720
14702W        W57693  18.652   1.310  29.129 -0.0790 -0.0987  0.1359
14703W        W57694  33.055   2.301  16.761  0.3072  0.1768  0.0691
14704W        W57695  33.873   5.777  23.852 -0.0009  0.2985  0.1867
14705W        W57696  33.790  24.129  22.791  0.3303 -0.0369  0.0554
14706W        W57697  26.946   1.206  19.891  0.0887  0.0157  0.2601
14707W        W57698  29.203  31.747  15.220 -0.0275  0.1154 -0.0296
14708W        W57699  32.578   2.065  15.297 -0.0002  0.1989  0.2171
14709W        W57700   0.451  12.389  22.002 -0.2759 -0.1829  0.1695
14710W        W57701  22.464   8.115  13.706 -0.0164  0.1472 -0.1163
14711W        W57702  31.474   8.149  15.130 -0.1990 -0.1360  0.0559
14712W        W57703  25.088  30.710  26.263 -0.0145 -0.2693  0.1931
14713W        W57704   0.950  25.420  17.316 -0.0432 -0.1751 -0.0043
14714W        W57705  25.449  29.925  19.524 -0.0931  0.0848 -0.1375
14715W        W57706  19.176  34.564  22.672  0.0324  0.1564 -0.1918
14716W        W57707  23.944  18.911  16.243 -0.1109 -0.0818 -0.0449
14717W        W57708  24.021   0.740  13.057  0.0579  0.0552 -0.0501
14718W        W57709  21.646  29.085  22.001 -0.0844  0.0172  0.0090
14719W        W57710  16.001   9.372   1.337 -0.0128  0.2057 -0.0291
14720W        W57711  31.821  31.746  16.064 -0.0948 -0.0536  0.1266
14721W        W57712  25.600  24.743  26.510  0.2416  0.2089 -0.0596
14722W        W57713   4.968  12.940   1.919 -0.1301  0.1938  0.5669
14723W        W57714  25.618  27.563  23.015  0.1990  0.2448  0.0824
14724W        W57715  29.176   4.228  22.722  0.1571 -0.1478  0.0020
14725W        W57716   2.975  33.232  25.105 -0.0550 -0.1881 -0.2089
14726W        W57717  13.539   3.342  22.144 -0.0413  0.0878 -0.1293
14727W        W57718  17.567   8.140  20.729 -0.0521 -0.2957 -0.1090
14728W        W57719  24.056  30.846  22.668 -0.1004  0.0608 -0.0616
14729W        W57720  20.336  17.689  22.317 -0.1201  0.3190 -0.0737
14730W        W57721   6.505  29.079  27.420 -0.2163  0.0702  0.0796
14731W        W57722  14.364  29.416  18.213  0.0555  0.0140 -0.0006
14732W        W57723  34.226  18.708   1.558  0.1505 -0.2605 -0.0191
14733W        W57724  30.313  22.214  17.445 -0.0327 -0.0877 -0.0063
14734W        W57725  26.778  25.880  21.051 -0.0862  0.3148 -0.2686
14735W        W57726   7.346  28.179  14.803 -0.0591  0.4590  0.1488
14736W        W57727  26.994  26.866  20.977  0.2014  0.1454  0.2286
14737W        W57728  28.059  33.136  18.150  0.1680 -0.0509  0.0628
14738W        W57729  29.074  10.344  16.117 -0.0399 -0.2969 -0.0287
14739W        W57730  20.446  33.384  14.760 -0.3239  0.0279 -0.2470
14740W        W57731  30.651  31.161  13.572  0.1131  0.1252 -0.1890
14741W        W57732  33.168   9.682  19.546 -0.1000 -0.5462 -0.2866
14742W        W57733  18.327  24.378  23.503 -0.3178  0.2862 -0.0551
14743W        W57734  32.450   6.369  19.326  0.1118  0.0240  0.1153
14744W        W57735   1.838   2.480  24.358 -0.1703  0.1026 -0.1791
14745W        W57736  24.207  25.515  13.857 -0.1151  0.2186  0.3005
14746W        W57737  28.184  29.447  23.094 -0.1530  0.2884  0.0186
14747W        W57738  22.467   3.309  14.451 -0.0170 -0.1731  0.0921
14748W        W57739  15.884   4.714  19.257 -0.0525 -0.1618  0.0941
14749W        W57740   5.563  20.892  23.326  0.0655  0.4227 -0.1605
14750W        W57741  26.565  21.124  17.370  0.1196  0.0789  0.2059
14751W        W57742  29.440   2.927  20.250 -0.0205 -0.0125 -0.2461
14752W        W57743   7.371   6.039  19.760 -0.1251  0.0402  0.0820
14753W        W57744   5.373  30.420  22.645 -0.0393  0.3471  0.1305
14754W        W57745  27.404  20.407  25.895  0.0294 -0.0453 -0.1942
14755W        W57746   8.637  25.798  19.115 -0.0984  0.0295  0.0230
14756W        W57747   6.484   9.056   5.482  0.2026 -0.2503 -0.0560
14757W        W57748  33.577  19.106   1.184  0.3561  0.0643  0.0053
14758W        W57749   3.086   8.109  16.812 -0.0840  0.0430 -0.1276
14759W        W57750  21.340  28.836  21.704  0.1840 -0.2208 -0.3128
14760W        W57751  15.197   6.486  24.763  0.4070 -0.0899 -0.0915
14761W        W57752  30.561  27.674  14.390 -0.0647 -0.2150  0.0643
14762W        W57753  13.092  17.654   4.486  0.3921 -0.1980  0.2160
14763W        W57754   9.845   0.184  25.304 -0.2927  0.1959 -0.1470
14764W        W57755  13.647  10.146  22.543 -0.0672  0.4056 -0.0901
14765W        W57756  30.983   9.813  21.240 -0.0864 -0.0510 -0.0552
14766W        W57757  23.394   0.133  23.282 -0.0036  0.0700  0.1335
14767W        W57758  32.796   6.084  18.988 -0.0406  0.0422  0.4030
14768W        W57759  33.743   5.917  26.979  0.1288 -0.0043  0.1516
14769W        W57760   5.339  18.709  17.381 -0.2595  0.0030  0.2190
14770W        W57761  20.070   2.508  13.910 -0.0066 -0.0451 -0.5402
14771W        W57762  13.714  22.773   2.267 -0.0189 -0.1562  0.0995
14772W        W57763  22.726   5.127  13.930 -0.2033  0.2340 -0.4012
14773W        W57764  30.397  18.310  16.137 -0.1387  0.1666  0.2338
14774W        W57765  15.208  14.027  15.994 -0.1413 -0.0702  0.0013
14775W        W57766  20.502  26.814  16.323 -0.1949  0.0614  0.1020
14776W        W57767  34.275  25.039  13.744  0.1235 -0.2171 -0.1608
14777W        W57768  30.933  28.557  16.219 -0.0701 -0.2811  0.3284
14778W        W57769  30.528  15.425  20.782 -0.1462  0.0695 -0.1207
14779W        W57770  20.835  32.958  20.488 -0.3385 -0.2559  0.1056
14780W        W57771  19.908  10.546  19.300 -0.3072 -0.0832 -0.3902
14781W        W57772   2.694   6.322  24.967  0.2902  0.1681 -0.2394
14782W        W57773  13.989   3.127  16.428  0.4450  0.2683  0.0848
14783W        W57774   4.063  16.569  23.112  0.0347  0.0178  0.2406
14784W        W57775  24.911  29.057  25.452 -0.0653  0.2464  0.1697
14785W        W57776  31.727   3.227  18.961 -0.3063 -0.0375 -0.3223
14786W        W57777  27.604  31.244  27.377  0.1209  0.0116 -0.0331
14787W        W57778  25.314  33.782  17.111  0.1084 -0.4125 -0.0208
14788W        W57779  21.616  29.241  14.557  0.0156 -0.0927 -0.3904
14789W        W57780  22.456   8.000  15.007 -0.4361  0.1672 -0.1751
14790W        W57781  17.471  30.388  27.204  0.3785  0.2023  0.0560
14791W        W57782  34.448   5.287  15.988 -0.0541  0.0477 -0.3056
14792W        W57783  14.941   3.615  21.310 -0.1879  0.1797  0.0364
14793W        W57784  19.713   5.881  13.341  0.0904  0.2296  0.0384
14794W        W57785   0.187  12.312  16.258  0.0715  0.1843  0.1160
14795W        W57786   9.670   1.373  16.605  0.1794 -0.0709 -0.0630
14796W        W57787  34.721   2.268  16.077  0.2533  0.0684 -0.1373
14797W        W57788  33.888   1.095  15.307  0.0619 -0.2446  0.1075
14798W        W57789  25.265   1.647  18.709 -0.2987  0.1823 -0.0536
14799W        W57790  22.713  18.899  18.298  0.0678  0.0833  0.0290
14800W        W57791  31.699  17.107   0.315 -0.0301 -0.2459  0.0876
14801W        W57792  11.366   6.171  16.651  0.0463  0.2087  0.1802
14802W        W57793  23.035  26.220   5.949 -0.1531  0.1958 -0.2142
14803W        W57794  29.884  25.686  18.909 -0.3122  0.0222  0.1561
14804W        W57795  33.532   5.016  26.043 -0.1742 -0.0659  0.3083
14805W        W57796  28.849   6.932  21.667  0.1510 -0.0534 -0.0784
14806W        W57797  33.855  27.552  28.939  0.0296  0.2783 -0.1905
14807W        W57798  19.642   9.542  16.779  0.1338 -0.0023 -0.0728
14808W        W57799  30.821  31.480  16.391  0.1493 -0.0018  0.0351
14809W        W57800   0.780  34.195  15.426 -0.2513  0.2436 -0.2671
14810W        W57801  20.599   1.443  24.159  0.2799 -0.1988 -0.0667
14811W        W57802  23.291  30.234  17.286  0.0034 -0.0556  0.2240
14812W        W57803  29.485  30.555  17.431 -0.2690 -0.1685 -0.2689
14813W        W57804  30.512  29.107  23.319 -0.1627 -0.0126 -0.1413
14814W        W57805  33.553  10.136  25.072  0.1014  0.0654 -0.1402
14815W        W57806   7.074  29.626  19.809 -0.0630 -0.1109  0.2739
14816W        W57807  18.848  11.404  13.809 -0.1426  0.2360  0.0003
14817W        W57808  30.524  21.845  18.729 -0.1827  0.2187 -0.0875
14818W        W57809  11.692   3.400  19.509  0.1344 -0.0599  0.1840
14819W        W57810  26.786  30.923  15.379 -0.3109 -0.2398  0.1540
14820W        W57811  16.369  32.113  25.906  0.1784 -0.1459 -0.2069
14821W        W57812  22.973  31.376  28.276  0.3693  0.1453 -0.0986
14822W        W57813  15.824  34.598  20.856 -0.0966 -0.1131 -0.3434
14823W        W57814   1.128  10.177  21.632 -0.0570 -0.2930 -0.0876
14824W        W57815  27.468   4.694  17.995 -0.0360  0.0110 -0.0790
14825W        W57816  27.388  11.176  22.614  0.2268 -0.2203  0.0876
14826W        W57817   3.785   4.758  19.287 -0.1131  0.1908 -0.0988
14827W        W57818   6.955   9.421   4.023  0.2776  0.2230 -0.3271
14828W        W57819  29.610  22.737  16.099  0.0550 -0.1501 -0.0999
14829W        W57820  27.563  30.136  18.500 -0.2500 -0.3247 -0.1997
14830W        W57821  21.905   0.684  24.388  0.1338  0.1539  0.0015
14831W        W57822  25.630   4.515  19.944  0.0250  0.2896  0.1886
14832W        W57823   5.238  20.272   0.332 -0.1384  0.1583 -0.1987
14833W        W57824   6.381   7.071  15.811 -0.1520  0.0501 -0.0336
14834W        W57825  11.300   3.124  15.477  0.0801  0.0275 -0.0031
14835W        W57826  34.128   1.488  17.163  0.1147  0.1887  0.0398
14836W        W57827  19.412  20.978  20.431  0.1469  0.3095  0.0142
14837W        W57828  23.391  13.544  16.090 -0.0574 -0.1505 -0.0238
14838W        W57829  18.000  32.058  18.900  0.0353 -0.2659 -0.1137
14839W        W57830  32.372   7.361  15.218 -0.0592 -0.2204  0.2177
14840W        W57831  16.949  23.219  18.860  0.0184 -0.6397 -0.0652
14841W        W57832  14.885  31.006  18.531 -0.1080  0.1211  0.1660
14842W        W57833  22.020  18.406  14.924  0.1470  0.0773  0.0716
14843W        W57834  33.516   2.965  14.574  0.0791 -0.0371  0.0465
14844W        W57835  26.175   8.420   1.644 -0.1747 -0.0697  0.2289
14845W        W57836  32.199   5.690  14.631 -0.0383 -0.0028 -0.3990
14846W        W57837  11.812   4.739  17.785 -0.0640  0.1559 -0.0361
14847W        W57838  28.057  30.396   0.515 -0.0685  0.1756  0.3226
14848W        W57839   2.025   1.111  16.288  0.2740 -0.1866  0.0547
14849W        W57840  33.141  22.417  19.007  0.0416  0.0316 -0.0697
14850W        W57841  11.385   7.336  22.751 -0.3055 -0.2487 -0.1782
14851W        W57842   1.581  27.058   7.399 -0.1487  0.0711 -0.2544
14852W        W57843  25.612  10.672  14.482 -0.0277 -0.0419  0.1983
14853W        W57844  17.662  30.841  22.382 -0.1597 -0.0168 -0.1147
14854W        W57845  29.082  25.375  19.220 -0.4712 -0.0893 -0.0237
14855W        W57846  32.087  25.465   3.842 -0.2376  0.0435  0.0393
14856W        W57847   8.776  25.928  14.083  0.0143 -0.1321 -0.1937
14857W        W57848  16.533  27.939  21.396 -0.3152  0.2236 -0.1415
14858W        W57849   0.528  29.709   9.152 -0.3492  0.0674  0.0296
14859W        W57850   2.068   9.277  28.083 -0.0445  0.0472  0.1131
14860W        W57851  30.010  25.672   1.665  0.2637  0.2039  0.0455
14861W        W57852  33.882   3.679  23.266 -0.0864 -0.1143 -0.2432
14862W        W57853  14.542   5.043  27.338 -0.4744 -0.1875  0.0137
14863W        W57854  15.019  32.784  24.429  0.2023 -0.1245  0.0303
14864W        W57855  21.856   1.243  16.892 -0.0386 -0.2168 -0.0000
14865W        W57856  21.179  13.229  17.082 -0.0144  0.0598 -0.0484
14866W        W57857   3.709  22.828  14.934 -0.0361 -0.0259 -0.0319
14867W        W57858  19.633  27.450  16.182  0.0201 -0.1584 -0.1122
14868W        W57859  26.268  24.180  26.739  0.0471  0.0624 -0.1430
14869W        W57860  19.596   3.207  20.381 -0.3873 -0.2786  0.3396
14870W        W57861  22.311  20.985   1.841  0.0304 -0.2579 -0.0734
14871W        W57862   2.308  17.291  26.032  0.0452 -0.2227 -0.1667
14872W        W57863  27.765  28.312  16.031  0.0089  0.0045  0.1214
14873W        W57864  22.346   6.549  17.610  0.5474  0.1331  0.0936
14874W        W57865   4.600  27.263  16.240 -0.4991  0.1295 -0.2910
14875W        W57866  33.747   7.606  15.412 -0.2734  0.0804 -0.0166
14876W        W57867  27.866   2.114  17.162 -0.2843  0.1738 -0.0609
14877W        W57868  25.481  25.915  25.746 -0.1852  0.4195  0.3055
14878W        W57869   8.355  34.677  17.688  0.0191 -0.2231  0.1459
14879W        W57870   2.133  19.063   2.960  0.2935 -0.1658 -0.1970
14880W        W57871   3.258  17.647  23.655 -0.0265 -0.0348 -0.0098
14881W        W57872  22.180  24.474  17.724 -0.1071  0.0479 -0.0398
14882W        W57873  30.474  32.740   3.028  0.1086  0.0657  0.2276
14883W        W57874  26.998   0.021   3.590 -0.1626 -0.0072  0.0198
14884W        W57875  20.154  11.813   6.771  0.0332  0.0847 -0.3697
14885W        W57876   3.337   6.208   1.806 -0.0997 -0.0619 -0.2962
14886W        W57877  32.696  28.586  14.165  0.1889 -0.0649 -0.0508
14887W        W57878  25.605  22.816   1.746  0.2040  0.1112 -0.0555
14888W        W57879  31.785  33.984  14.269  0.2462 -0.1970  0.0026
14889W        W57880  26.679  13.256  28.746 -0.0985 -0.0256 -0.0143
14890W        W57881   2.228  30.166  16.010 -0.0056  0.1974 -0.1855
14891W        W57882  23.372   2.203  23.813  0.1571  0.2291 -0.2011
14892W        W57883  26.364   0.832  13.592 -0.0495  0.0898 -0.1340
14893W        W57884  30.054  18.815  20.315  0.0715  0.0427 -0.2298
14894W        W57885  20.354   4.595  24.113  0.1582 -0.0000 -0.0553
14895W        W57886   8.328   5.341  16.727  0.2951  0.0879  0.0705
14896W        W57887  26.127  32.056  25.760  0.0608  0.2709 -0.0280
14897W        W57888   7.381  15.689  15.427  0.1887 -0.3589  0.0273
14898W        W57889  19.805   8.148  17.741  0.4260 -0.2220  0.0696
14899W        W57890  11.289  29.785  17.891 -0.0920 -0.0205  0.3757
14900W        W57891  24.404  32.862  17.579  0.1040 -0.4128  0.0788
14901W        W57892   1.221  28.338  24.775 -0.1974 -0.1351  0.3572
14902W        W57893  31.274  24.946  22.122 -0.0617  0.4512  0.1134
14903W        W57894   2.971  25.494  16.768 -0.4753  0.0882 -0.0366
14904W        W57895   6.560   0.419  20.788  0.1224  0.0419 -0.0936
14905W        W57896  26.589  10.251  17.072 -0.1831 -0.0303 -0.1551
14906W        W57897  13.798  27.801  21.297  0.0886  0.0142  0.0976
14907W        W57898  22.079  34.013  20.616 -0.0895 -0.0532  0.1442
14908W        W57899  24.876  19.897   1.433  0.1062 -0.0683 -0.2318
14909W        W57900  15.847   1.925  17.746  0.1742  0.1465  0.1028
14910W        W57901  31.787  29.482  21.070 -0.0723 -0.1100 -0.0002
14911W        W57902  34.022  28.523  24.467 -0.1739 -0.3074  0.3131
14912W        W57903  27.293  28.730  14.879  0.4609 -0.0847 -0.1901
14913W        W57904  12.378  12.174  20.548 -0.2153 -0.0792  0.0383
14914W        W57905  28.796  16.608  16.295 -0.0897  0.1633 -0.1049
14915W        W57906  23.522  17.166  14.715 -0.0357  0.0473 -0.0750
14916W        W57907  26.382   7.238  16.232 -0.0849 -0.2789 -0.1041
14917W        W57908  16.132  31.554  17.740 -0.1586  0.1977  0.1483
14918W        W57909  20.363   9.545  27.590 -0.0904  0.6708  0.0002
14919W        W57910  27.037  31.476  26.791  0.0824  0.1028 -0.1244
14920W        W57911   1.517   7.884  17.831 -0.1399 -0.2851  0.0612
14921W        W57912  21.081  13.695  12.918  0.2408 -0.0433 -0.0079
14922W        W57913  30.603  13.206  24.901 -0.1594  0.0532  0.2684
14923W        W57914  30.436  13.719   1.324 -0.0780 -0.1233 -0.1255
14924W        W57915  22.504   5.329  24.991  0.0875 -0.2567  0.0905
14925W        W57916  22.491   4.080  18.496 -0.3334 -0.3413 -0.0968
14926W        W57917   1.198  28.794  23.060 -0.3380 -0.1081  0.3247
14927W        W57918  31.564  22.309  23.611  0.2322  0.2139 -0.1796
14928W        W57919  25.063  33.222  20.628 -0.0454  0.0391  0.1942
14929W        W57920  34.166  30.623  13.978 -0.0976  0.1300 -0.1971
14930W        W57921  30.532  32.670  16.113 -0.2212 -0.1700  0.3590
14931W        W57922   9.068   6.932  24.456  0.0602 -0.1748  0.1055
14932W        W57923   7.247  33.104  18.852  0.2312 -0.3959  0.1034
14933W        W57924  24.602  31.187  26.261  0.0819  0.2336  0.3821
14934W        W57925  22.911  25.334  21.473  0.2923 -0.1009  0.1899
14935W        W57926  26.076   3.137  16.579 -0.1253  0.1289 -0.2341
14936W        W57927  20.842  13.852  14.169  0.0568  0.0743 -0.2058
14937W        W57928   4.163  31.942  22.005 -0.1109  0.0857  0.3691
14938W        W57929  26.999   6.446  27.708  0.1635  0.0274 -0.0443
14939W        W57930   5.359   4.744  19.593  0.0037 -0.1530  0.0999
14940W        W57931  24.065  31.535   1.330  0.1156 -0.0052  0.0474
14941W        W57932  33.639  11.771  19.643  0.0825  0.2313 -0.0565
14942W        W57933  34.064  34.182  27.704 -0.0200 -0.0285 -0.0394
14943W        W57934  18.155  31.217  20.581  0.1602  0.2090 -0.2088
14944W        W57935  33.688   2.576  24.929 -0.0020 -0.3311  0.0243
14945W        W57936  30.898  16.343   1.392 -0.1936  0.2026  0.3106
14946W        W57937  31.477   0.594  15.701 -0.0400 -0.1356  0.0448
14947W        W57938  30.040   3.760  17.693 -0.2119  0.1853  0.0336
14948W        W57939  24.328  27.368   6.709  0.1228 -0.1891  0.3440
14949W        W57940   3.406  26.408   0.736 -0.4845 -0.0990  0.1499
14950W        W57941  31.407  33.159  16.615  0.0266 -0.0298  0.0697
14951W        W57942  25.807  29.965  17.399  0.5845 -0.0968 -0.3874
14952W        W57943   9.312  31.815  15.614  0.0369 -0.1255 -0.0140
14953W        W57944  26.234  31.941  18.431  0.2440 -0.4700  0.1454
14954W        W57945  22.475   4.162  17.530 -0.3923  0.0654 -0.2233
14955W        W57946  28.845   3.218  15.701 -0.1356  0.1681 -0.0578
14956W        W57947  17.426   7.197  23.481  0.3367  0.2472 -0.0673
14957W        W57948  34.407  30.967   1.370  0.0029  0.2538  0.3519
14958W        W57949  26.361  31.671  16.789  0.0430 -0.1941  0.0093
14959W        W57950  25.038   7.865   6.690 -0.2563 -0.0123 -0.1166
14960W        W57951  22.156  13.124   3.410 -0.3161 -0.0712  0.1552
14961W        W57952  14.136   0.216  25.850  0.0605  0.0001  0.2434
14962W        W57953  25.309   3.708  16.529 -0.1756  0.2203  0.2189
14963W        W57954  24.747   0.364  16.945 -0.1505  0.1878  0.2627
14964W        W57955  13.707  24.928  18.822  0.2046 -0.0275  0.0005
14965W        W57956  26.628   7.360   6.889 -0.1836 -0.0888  0.1225
14966W        W57957  18.583  24.934  19.386 -0.0117  0.1051  0.0114
14967W        W57958  30.675  32.098  18.377 -0.3433 -0.1082 -0.0439
14968W        W57959  13.100  29.201  21.905  0.3764 -0.1207 -0.1763
14969W        W57960  32.982  26.508  23.365  0.0012  0.1529 -0.1009
14970W        W57961  19.434   0.605  14.566  0.2440  0.2229  0.0309
14971W        W57962   3.887  17.942  20.363 -0.0817  0.3352 -0.1622
14972W        W57963  34.565  11.310  16.474 -0.0645 -0.0453  0.1023
14973W        W57964  16.204  32.906   4.107 -0.4719  0.1987  0.2557
14974W        W57965  20.365   4.336  20.097 -0.2470 -0.0968  0.3651
14975W        W57966  33.272   3.523  22.516  0.0195 -0.3257 -0.0241
14976W        W57967  17.000   2.173  25.186  0.6016  0.0363  0.3464
14977W        W57968   6.271  29.132   1.131  0.0843 -0.3016 -0.1928
14978W        W57969  28.597   0.485  21.017 -0.2240  0.1130 -0.1840
14979W        W57970  30.054   7.239   5.709 -0.1521 -0.0527 -0.1107
14980W        W57971  31.174  28.249  15.271  0.2549  0.1204  0.1756
14981W        W57972  21.304  19.166  14.858  0.2245 -0.3606  0.0597
14982W        W57973  26.074  21.603  20.898  0.0185  0.1454 -0.2157
14983W        W57974  25.791  32.020  23.339 -0.2277 -0.0243  0.0862
14984W        W57975  23.747   6.042   8.407  0.1537 -0.0949 -0.2024
14985W        W57976  33.244  29.166  19.261  0.1370 -0.5782 -0.2202
14986W        W57977   8.041   1.706  27.715  0.0115 -0.0795 -0.3264
14987W        W57978  16.936  30.726  16.733  0.1861  0.2120  0.2353
14988W        W57979  28.497  30.230  23.393 -0.1428  0.0203  0.1112
14989W        W57980   2.770   5.030  15.110 -0.1303 -0.3955 -0.1082
14990W        W57981  34.563  15.943  22.666 -0.1562  0.1615  0.0360
14991W        W57982  28.683  25.568  21.900  0.0396  0.1338  0.1369
14992W        W57983  32.016   1.577  21.680  0.1092 -0.3141  0.1874
14993W        W57984  14.402   9.063  26.458 -0.0013  0.2276  0.1320
14994W        W57985  12.249  27.253  27.529  0.1487  0.0774  0.0232
14995W        W57986  34.444  27.958  17.544 -0.0567  0.3548 -0.2224
14996W        W57987  16.633  25.540  19.038 -0.0665  0.1703  0.0196
14997W        W57988   5.035  27.263  21.362 -0.0539 -0.0777 -0.0081
14998W        W57989  23.669  32.486  18.611  0.2047  0.0759  0.1066
14999W        W57990  29.472  25.881  25.208  0.0595  0.3310 -0.2995
15000W        W57991  11.875   5.160  25.724 -0.0660 -0.0898  0.3579
15001W        W57992  24.032   6.419  15.191 -0.0241  0.0645  0.1563
15002W        W57993  11.401  21.422  18.564  0.4632  0.1957 -0.2649
15003W        W57994   2.005  25.915  28.708 -0.2195 -0.2198  0.2415
15004W        W57995   1.262  33.245  13.405 -0.3136  0.3324 -0.1752
15005W        W57996   1.308   8.597  29.027 -0.1798  0.3155  0.0320
15006W        W57997  33.141  12.767  15.279  0.0895  0.2350 -0.0516
15007W        W57998  26.037   4.739  20.273 -0.0614 -0.1926  0.2475
15008W        W57999  20.024  12.878  24.776  0.1558  0.0721 -0.2649
15009W        W58000  30.758   7.329  23.796 -0.0741  0.0058  0.1736
15010W        W58001  30.348   5.758  15.802 -0.1948  0.2432  0.1156
15011W        W58002  32.522   3.504  19.989 -0.0607 -0.3397 -0.0965
15012W        W58003  19.977  28.502  16.820 -0.1003  0.0615 -0.0839
15013W        W58004  27.258   7.499  16.683 -0.2308 -0.0178 -0.0098
15014W        W58005  28.048  30.037  23.787  0.1006  0.3297 -0.5246
15015W        W58006  32.236   0.866  21.339 -0.0014  0.1087  0.0353
15016W        W58007  23.882  28.672  18.513  0.0888  0.0811  0.0826
15017W        W58008   3.559   2.784  18.042  0.4117  0.1081 -0.1241
15018W        W58009  30.688   4.044  20.102  0.0334 -0.1169 -0.4129
15019W        W58010  30.539   4.089   2.926  0.0477  0.2118 -0.0747
15020W        W58011  12.061   4.343  20.481  0.2194  0.0513 -0.1924
15021W        W58012  28.367  31.320  21.484  0.3023 -0.0281  0.1361
15022W        W58013  25.104   1.238  17.440 -0.0580 -0.2506 -0.2167
15023W        W58014   0.815  26.727  21.103 -0.0102  0.0196  0.0846
15024W        W58015  25.608  31.253  25.583 -0.0309 -0.2112  0.2412
15025W        W58016  14.316  19.698  13.246 -0.3579  0.0219 -0.0498
15026W        W58017  20.394  12.547  17.530 -0.0562 -0.2568  0.1425
15027W        W58018   8.405  34.296  16.844 -0.1969  0.2502  0.2224
15028W        W58019   5.760  31.927  18.805  0.1249 -0.1493  0.1605
15029W        W58020   0.893   0.039  25.671  0.0555 -0.2356 -0.1406
15030W        W58021  21.963  31.830   8.630  0.0413 -0.2747 -0.2841
15031W        W58022  24.199   3.720  18.808  0.0633  0.0071  0.1508
15032W        W58023  11.656   5.458  17.099 -0.2732 -0.0122 -0.0249
15033W        W58024  24.504   8.437   8.291  0.1583  0.0444 -0.2306
15034W        W58025  15.425   1.350  19.161 -0.0209  0.1880 -0.4519
15035W        W58026  19.540   5.436  24.160  0.3701  0.0761  0.1172
15036W        W58027   3.212  20.753   6.401  0.0148  0.0696 -0.4066
15037W        W58028  24.177  19.294   7.237 -0.0997 -0.1720 -0.0624
15038W        W58029  27.152   2.658  17.428  0.0464  0.0495 -0.2175
15039W        W58030  22.977  27.427  18.167  0.0143  0.0243  0.1037
15040W        W58031  16.656  34.257  25.951  0.2475  0.0215  0.0530
15041W        W58032   4.202  27.717  17.096 -0.0036 -0.1510  0.2812
15042W        W58033  29.211   0.855  18.016  0.1272 -0.0883  0.1504
15043W        W58034  27.966   6.278   5.666  0.0196 -0.1664  0.1774
15044W        W58035  12.275  24.320  14.704  0.4016 -0.2072  0.2006
15045W        W58036  14.309   2.051  17.802 -0.1398  0.2793 -0.3198
15046W        W58037  13.229  29.313  25.928  0.0332 -0.3035  0.4185
15047W        W58038  16.383   9.003  16.061  0.1153 -0.0721 -0.1708
15048W        W58039  29.573  10.522  25.436  0.1613  0.0261 -0.0640
15049W        W58040  17.015  32.280  13.982  0.0451  0.2480  0.1409
15050W        W58041  22.103  24.684   7.600 -0.2290  0.1332 -0.1833
15051W        W58042   8.330  34.058  10.564 -0.0957 -0.0334 -0.3774
15052W        W58043   3.079  29.788  20.930  0.0208 -0.0399 -0.0948
15053W        W58044   2.483   7.936  26.570 -0.3567  0.4268  0.1960
15054W        W58045   5.526  32.256  16.667  0.1989  0.1490  0.0666
15055W        W58046  28.246   4.173  21.990 -0.1341 -0.1399  0.0064
15056W        W58047  26.814  32.005  18.705 -0.0714  0.2331  0.1016
15057W        W58048  19.052  10.034  23.882  0.1503 -0.3757  0.1836
15058W        W58049  14.866   9.250  15.221 -0.2374 -0.2509  0.2002
15059W        W58050  26.970   6.864  18.228 -0.0533 -0.0050  0.1656
15060W        W58051   0.505   2.557  15.261 -0.1707 -0.0587  0.0318
15061W        W58052  20.572   5.658  27.882 -0.3065  0.3241 -0.3593
15062W        W58053   7.027  30.549  20.856  0.0867  0.0341  0.2434
15063W        W58054   3.264  23.600  14.744  0.3304 -0.0303 -0.1053
15064W        W58055  15.158  16.355  26.127 -0.4168  0.2068 -0.3325
15065W        W58056  23.352   3.401   1.912 -0.1884  0.3127  0.2691
15066W        W58057  30.124  33.689  14.019  0.0178  0.1869 -0.0932
15067W        W58058  29.053  24.772   4.637 -0.3142  0.2458 -0.2293
15068W        W58059  17.066  10.247  24.500 -0.0917  0.3215 -0.2640
15069W        W58060  17.178  31.700  15.470 -0.0245  0.0356  0.4606
15070W        W58061  23.036  11.671   4.643 -0.1381  0.0084  0.3008
15071W        W58062  25.722  18.607  26.598  0.0067  0.1154  0.0908
15072W        W58063  12.325   9.211  16.658  0.0651  0.1901 -0.0666
15073W        W58064  23.585  29.832  18.315  0.0771  0.2092 -0.0307
15074W        W58065  13.310   2.483   0.124  0.2493 -0.0044  0.4094
15075W        W58066  15.377   6.451  21.874 -0.0898 -0.0912  0.1305
15076W        W58067  25.597  24.943  14.518  0.3604  0.0394 -0.2981
15077W        W58068   2.810   5.848  17.428  0.0460  0.0236 -0.2353
15078W        W58069  25.973   9.590  17.139 -0.0994 -0.2197 -0.0691
15079W        W58070  12.144  29.529  26.677 -0.1176 -0.0978  0.3246
15080W        W58071   1.439  28.658  18.490 -0.1352  0.0971 -0.0558
15081W        W58072  22.734   8.439  24.143 -0.0976  0.1157 -0.2456
15082W        W58073  25.598  17.834   7.492 -0.2980  0.1797 -0.1080
15083W        W58074  29.102   1.949  19.121  0.0451  0.1735  0.2315
15084W        W58075  31.237  34.451   6.845  0.3389 -0.1337  0.0980
15085W        W58076   4.310  30.648   7.690 -0.0334 -0.1786 -0.3115
15086W        W58077  32.535  31.831   1.821 -0.1205  0.0107  0.0115
15087W        W58078  24.608  29.251  15.361 -0.0115 -0.0163  0.0738
15088W        W58079  15.801  11.499  17.700  0.1315 -0.0123  0.2688
15089W        W58080   3.320   7.858  29.263  0.0979 -0.1759 -0.0180
15090W        W58081  19.772  32.113   4.953  0.1206 -0.0289 -0.3508
15091W        W58082   3.580   1.363  18.962 -0.2069  0.1325  0.1311
15092W        W58083  28.499   1.495  16.386 -0.0509  0.0186 -0.1041
15093W        W58084   0.684  29.849  14.082 -0.0020  0.2424  0.0008
15094W        W58085  21.292  13.052  22.557  0.4313  0.4781 -0.0271
15095W        W58086  29.385   0.174  18.375  0.1516 -0.1042 -0.2883
15096W        W58087  18.311   2.518  23.758  0.1490 -0.0084  0.5656
15097W        W58088   7.935   0.138  17.570 -0.3126  0.1697 -0.0869
15098W        W58089  20.748  10.436  18.465  0.2345  0.2639  0.0847
15099W        W58090  21.047  23.323  18.251 -0.0458  0.0660 -0.0356
15100W        W58091   9.599   8.368  25.530  0.0225  0.3401 -0.0138
15101W        W58092  27.667   3.458  26.835  0.0437 -0.1214  0.2343
15102W        W58093  16.955   7.832  14.332  0.4159  0.1614 -0.3081
15103W        W58094  22.805  24.543  23.843 -0.3599 -0.0440  0.0022
15104W        W58095  29.735  29.812  22.670  0.0696 -0.0874  0.0523
15105W        W58096   0.884  24.740  15.468 -0.1916  0.2244 -0.1184
15106W        W58097  16.557   6.397  14.259 -0.3875 -0.0668  0.1062
15107W        W58098  34.102   2.511  26.157 -0.1606  0.2614 -0.0386
15108W        W58099  29.375   9.064  15.872  0.2754  0.1011 -0.1136
15109W        W58100  27.860   3.303  22.193  0.0377 -0.3123  0.1233
15110W        W58101  19.043   2.411  20.703  0.1323 -0.0222 -0.1645
15111W        W58102  17.117  17.275   4.819 -0.0018 -0.1225  0.1965
15112W        W58103  22.409  34.144  14.491 -0.0265  0.0614  0.2230
15113W        W58104  22.909  32.480  28.571 -0.1051 -0.0607  0.2621
15114W        W58105  25.802  34.391  13.091  0.0205 -0.1644  0.0911
15115W        W58106  29.016   2.686  20.125 -0.3317 -0.0034 -0.1758
15116W        W58107  12.898  22.401  27.493 -0.5253 -0.0788  0.0040
15117W        W58108   5.855   5.815  25.269 -0.5364  0.3369  0.2190
15118W        W58109  20.276   6.566  14.177 -0.0079 -0.1225 -0.4299
15119W        W58110   1.695  16.964  16.318 -0.0870  0.1707  0.0361
15120W        W58111  23.678   9.664  13.763 -0.1326 -0.1524  0.1308
15121W        W58112   3.033   9.059  17.832  0.0914 -0.0402 -0.0104
15122W        W58113   2.599  23.147  18.962 -0.0921  0.0215  0.1043
15123W        W58114   2.345   0.454  15.705  0.0534  0.0959 -0.0199
15124W        W58115  16.468   3.324   2.315 -0.2557  0.0644  0.0684
15125W        W58116  26.324  30.713  18.424 -0.2053 -0.1609  0.4918
15126W        W58117  32.365  10.788   9.989  0.2476 -0.1329  0.0468
15127W        W58118  32.283  34.407  15.287  0.2525 -0.0242  0.1038
15128W        W58119  21.746  15.750  19.361  0.1379 -0.4806  0.0555
15129W        W58120  18.770  30.861  14.380 -0.0006 -0.1936  0.0704
15130W        W58121  12.496  21.517  19.913 -0.1821 -0.0092 -0.2707
15131W        W58122  24.925   9.428  16.278 -0.0070 -0.1681  0.1614
15132W        W58123  32.506  19.994  19.389  0.1011  0.0404 -0.3624
15133W        W58124  20.024   8.706  14.363  0.2602 -0.0230 -0.3483
15134W        W58125  13.523   1.072   4.489 -0.0712  0.1072 -0.0103
15135W        W58126  21.381   8.071  21.302 -0.0438 -0.4107  0.2251
15136W        W58127  31.663   1.926  15.783 -0.2086 -0.0747  0.0219
15137W        W58128  17.471  31.309   9.209 -0.0337  0.0167 -0.2060
15138W        W58129   1.696  17.177  24.774  0.1466 -0.2266 -0.0433
15139W        W58130  22.006   0.693  21.185 -0.0993  0.1025  0.0365
15140W        W58131  25.357   1.198  20.649  0.3151 -0.1933  0.1856
15141W        W58132  33.497   4.887   8.444  0.0409  0.1159 -0.0670
15142W        W58133  33.873  18.148  15.731  0.2296 -0.0644 -0.0030
15143W        W58134   1.993   7.543  26.167  0.2278  0.2161  0.1461
15144W        W58135  33.407  24.470  14.745  0.2845  0.2791  0.2753
15145W        W58136  10.336  21.639  14.752 -0.0225  0.0802  0.0417
15146W        W58137  30.859   2.519  25.821  0.0317  0.1197 -0.0322
15147W        W58138  29.836  12.832  16.467  0.1457  0.0594 -0.0520
15148W        W58139  34.275  18.421  15.772 -0.1380  0.0805  0.0490
15149W        W58140  20.816   2.720  23.656 -0.0341  0.2441 -0.0570
15150W        W58141  30.765   3.221  18.702 -0.1435  0.0141 -0.0973
15151W        W58142  16.585  29.419  27.253 -0.2852  0.0747  0.0279
15152W        W58143  10.705   3.009  19.861 -0.0919  0.1868 -0.1627
15153W        W58144  22.350  21.754  20.630 -0.1734  0.1262 -0.0266
15154W        W58145  27.285   9.478  27.208 -0.0880 -0.4110  0.0425
15155W        W58146   0.263  34.736   0.402  0.0578 -0.2559 -0.2077
15156W        W58147  29.826   9.268  24.382 -0.0892 -0.1012 -0.2158
15157W        W58148  33.989  27.851  22.394 -0.1414  0.0445  0.0601
15158W        W58149   9.120   3.267   3.123 -0.0360 -0.0665  0.2201
15159W        W58150  24.227   6.154  25.600  0.1277 -0.2257  0.0096
15160W        W58151  25.406  17.769   6.454  0.1575 -0.2169 -0.1001
15161W        W58152  15.439   5.373  25.142 -0.0130  0.0527  0.2699
15162W        W58153  32.538  25.181  14.862  0.0755  0.2324  0.2177
15163W        W58154  30.394  33.308  25.900 -0.0498 -0.0166  0.0265
15164W        W58155  27.117  24.627  26.447  0.1145  0.0078  0.1264
15165W        W58156  28.841   4.919   0.023 -0.0995 -0.2660  0.0557
15166W        W58157  29.230  25.377  26.686  0.1508  0.0731  0.0120
15167W        W58158  15.368   1.090  22.244  0.0681 -0.2153 -0.0404
15168W        W58159  23.567  31.011  25.972 -0.0144 -0.0216 -0.0426
15169W        W58160  28.332   3.510  14.915  0.0708  0.1963  0.0954
15170W        W58161  28.069  30.902  25.419 -0.0081 -0.0856 -0.0044
15171W        W58162  25.086   6.974  18.340 -0.1639 -0.1853 -0.1158
15172W        W58163  29.360  31.828  22.113 -0.0228 -0.1631 -0.2934
15173W        W58164  32.151  15.112  22.408  0.3239  0.1676  0.2250
15174W        W58165  27.248   0.976   2.409 -0.1806 -0.2454 -0.2253
15175W        W58166  25.246   7.440  21.045  0.2748  0.1008 -0.0711
15176W        W58167  28.672  27.973  17.820  0.2646  0.0855 -0.1049
15177W        W58168  30.559   9.830  23.821  0.4263  0.0405 -0.3337
15178W        W58169  15.871  11.914  24.022 -0.0039 -0.1238  0.1435
15179W        W58170  20.733  33.700  24.175  0.0995 -0.2349 -0.0921
15180W        W58171  16.988  32.720  25.630 -0.0860  0.2398 -0.0825
15181W        W58172   1.260  34.370  18.207 -0.0357 -0.0258 -0.2853
15182W        W58173  25.714  24.762  17.667  0.1211 -0.3057  0.0014
15183W        W58174  25.275   8.013   5.482  0.3111 -0.2977 -0.1970
15184W        W58175  27.300   4.411  27.768  0.2252  0.2079 -0.1291
15185W        W58176   1.612  28.786   1.318 -0.1230 -0.1095 -0.1483
15186W        W58177  24.117  29.721  16.693  0.2486  0.0954 -0.0785
15187W        W58178  31.084  32.377  24.836 -0.4868  0.0964 -0.0980
15188W        W58179  28.532  24.505  18.253 -0.1625  0.3143 -0.0975
15189W        W58180   4.883   7.788   6.766 -0.1702  0.1190 -0.2888
15190W        W58181   0.550  26.966  17.591 -0.1465  0.3702 -0.1011
15191W        W58182  18.653   9.110  18.959  0.2570  0.4022  0.0752
15192W        W58183  23.056   6.648  28.600  0.1782  0.1363  0.2725
15193W        W58184  24.589  19.664  22.193 -0.1404 -0.0287 -0.4995
15194W        W58185  29.247  20.415   3.971 -0.1159  0.0493  0.0214
15195W        W58186  31.766  32.665   4.046 -0.0255  0.2037  0.1014
15196W        W58187  30.278   1.503  16.359 -0.1162 -0.2057  0.0123
15197W        W58188   7.022  33.021  14.541 -0.0254  0.2064 -0.0465
15198W        W58189  21.045  11.370   1.485  0.1745  0.1167  0.0108
15199W        W58190  23.370  18.520  13.013 -0.2026  0.0094 -0.5009
15200W        W58191  27.053  30.254   1.689  0.2636  0.0088  0.1241
15201W        W58192   0.483   3.075  25.494 -0.2673  0.0010 -0.0486
15202W        W58193  13.675  29.005  17.429 -0.1214  0.0300 -0.1148
15203W        W58194  21.989   9.141  25.905  0.1999  0.1223 -0.0630
15204W        W58195   1.765  24.767  18.572 -0.0818 -0.0096 -0.3172
15205W        W58196  25.210   2.499  14.167 -0.0191 -0.1878  0.0732
15206W        W58197  25.589   4.496  17.499 -0.1388  0.0727 -0.1889
15207W        W58198  30.186  15.347  15.590  0.0190 -0.2720 -0.1235
15208W        W58199   1.986  24.003  15.644 -0.1254  0.0445 -0.0219
15209W        W58200   5.059  13.622  16.479  0.1102  0.2797 -0.1689
15210W        W58201   9.278   0.573  17.774 -0.1300 -0.1535 -0.0083
15211W        W58202  20.704   6.339  22.767 -0.0384 -0.2515  0.0529
15212W        W58203  25.044  12.491  14.558  0.3166 -0.0549  0.0749
15213W        W58204  28.259  18.182   9.695 -0.3110 -0.0070  0.0395
15214W        W58205  22.317  30.298  27.361  0.2176  0.0517  0.1218
15215W        W58206   2.118  13.285  20.951 -0.2375  0.0296  0.0273
15216W        W58207  27.525  30.675  14.284 -0.2520  0.0732 -0.2260
15217W        W58208  19.847  32.272  21.890 -0.0986 -0.1359  0.1146
15218W        W58209  24.110   5.326  21.535  0.0432 -0.1297 -0.0848
15219W        W58210  18.744   6.596   1.616 -0.2816 -0.1009 -0.1407
15220W        W58211  33.029  29.600  15.353 -0.1201  0.1761  0.0003
15221W        W58212  34.077   3.029  24.457 -0.5397 -0.0697 -0.2208
15222W        W58213  18.868   1.138  15.724 -0.0847 -0.0686  0.3692
15223W        W58214  23.050  30.289  15.342 -0.1902  0.1389 -0.1317
15224W        W58215   2.719   2.900  26.211 -0.1206  0.0176 -0.0783
15225W        W58216  19.401   0.388  20.779 -0.4355 -0.1193  0.1148
15226W        W58217   6.839  34.034  21.818 -0.2710  0.3526 -0.0167
15227W        W58218  22.808  27.017  27.102 -0.1737 -0.0142 -0.1208
15228W        W58219  25.874  26.268  15.109 -0.1105 -0.0967 -0.2483
15229W        W58220  21.594   2.267  28.055 -0.3737  0.2900  0.2146
15230W        W58221  16.635   2.320  18.066  0.1655  0.5300  0.0503
15231W        W58222  27.703   9.400  18.667  0.4281  0.0464  0.2453
15232W        W58223  20.861  32.874  18.454 -0.0671 -0.1153  0.0027
15233W        W58224   1.819  33.596  20.428 -0.3177  0.1047  0.0654
15234W        W58225  26.384   0.894  14.425  0.1569  0.1108 -0.0732
15235W        W58226  33.931  13.571  20.807 -0.0854  0.2332 -0.0170
15236W        W58227  18.392   4.350  25.691 -0.1925 -0.3306  0.2482
15237W        W58228  19.216  28.717   0.046  0.4428  0.4690 -0.1363
15238W        W58229  34.305  12.830   3.244  0.2415 -0.0003  0.0453
15239W        W58230  19.373   3.569   5.625 -0.0749 -0.1213 -0.0135
15240W        W58231  34.637  11.041   3.785  0.4135  0.0897 -0.2406
15241W        W58232  17.928  17.882  27.428  0.1039 -0.0119 -0.1608
15242W        W58233   2.259   9.566   0.247 -0.0894  0.2382 -0.2708
15243W        W58234  27.952   4.193   6.863  0.2500 -0.0382  0.2596
15244W        W58235  20.881   7.619  26.481  0.1508 -0.0055 -0.0643
15245W        W58236   3.676  23.884  20.474 -0.1872 -0.2199  0.0728
15246W        W58237  29.466  15.497  18.825 -0.4540  0.0884  0.0852
15247W        W58238  26.267  32.795  28.908  0.0044 -0.0719  0.1276
15248W        W58239  31.076  17.296  23.775 -0.3069  0.4255 -0.0756
15249W        W58240  18.852  21.797  21.407  0.1301  0.0197  0.0061
15250W        W58241   1.024   3.792   1.337  0.3890  0.3342 -0.2319
15251W        W58242  12.886  33.321  14.317  0.3009  0.0310 -0.0441
15252W        W58243  33.132  23.738  15.912  0.1108  0.0971 -0.0769
15253W        W58244  30.980   6.197  24.171 -0.1589 -0.2210  0.0715
15254W        W58245  13.734   9.919  21.284  0.1021  0.0723 -0.3210
15255W        W58246  16.923   9.514  15.367  0.1724  0.1235  0.1865
15256W        W58247   1.901  21.873  26.131  0.0898 -0.0434 -0.0619
15257W        W58248  28.305  27.947  15.081  0.3158 -0.2724  0.1240
15258W        W58249  13.105   5.537  26.086  0.1632  0.0110 -0.2787
15259W        W58250  34.054  19.816  18.678 -0.0178 -0.1246 -0.1292
15260W        W58251  22.214  32.514  18.938  0.0148 -0.0202  0.3580
15261W        W58252   2.623   1.994  22.623  0.1466  0.1480  0.0019
15262W        W58253   2.236  33.468  17.037 -0.1437  0.1409  0.2723
15263W        W58254  30.878  34.464  14.450  0.0679 -0.3762  0.0295
15264W        W58255   2.840  32.182  27.490  0.0614 -0.2340 -0.2140
15265W        W58256   2.210  24.059   5.232 -0.1521  0.0871 -0.0002
15266W        W58257  21.624  28.964  23.837 -0.1177  0.0445 -0.0844
15267W        W58258  17.871  14.388  23.931  0.3947  0.0840  0.0227
15268W        W58259  16.427  27.592   3.713 -0.2363 -0.0375 -0.2092
15269W        W58260  32.792   4.969  15.673  0.1043  0.0484 -0.1798
15270W        W58261  30.338   9.391  23.168  0.2920  0.1416  0.3325
15271W        W58262  30.885  20.383   3.468 -0.0986  0.0821 -0.0171
15272W        W58263  13.277  27.326  28.384 -0.1089 -0.0788  0.2760
15273W        W58264  26.855  22.693  18.955 -0.0597 -0.1291  0.0424
15274W        W58265  30.427  17.800  24.520  0.0462  0.0051  0.0042
15275W        W58266  32.340   5.549  19.878  0.1781 -0.0247 -0.2041
15276W        W58267   9.866  30.108  14.268  0.2828  0.1231  0.0582
15277W        W58268  33.365  26.219   6.704 -0.2994 -0.0367  0.2823
15278W        W58269  14.867  29.621  19.872  0.0659  0.2709  0.0889
15279W        W58270  21.373  10.000  14.394 -0.1223 -0.1227 -0.1169
15280W        W58271  28.371   2.557  21.358 -0.1479  0.1487 -0.1542
15281W        W58272   9.440   3.681   3.975 -0.0755 -0.1287 -0.0338
15282W        W58273  10.938   7.140  25.841 -0.0730  0.1284 -0.0086
15283W        W58274  33.689  34.683  17.826 -0.1014  0.0968  0.1470
15284W        W58275  26.569  15.135  20.129  0.1903  0.1420 -0.1409
15285W        W58276  13.560  27.941  20.335  0.0100 -0.0646  0.2224
15286W        W58277  28.669   7.412  21.129 -0.0353 -0.1208  0.2432
15287W        W58278  17.783  14.725  13.722 -0.0009  0.2032  0.0090
15288W        W58279  26.500  22.754   1.681 -0.0842  0.0109 -0.0363
15289W        W58280  26.551  23.891  19.482  0.0840  0.0589 -0.1240
15290W        W58281  29.428  31.468  19.463 -0.0193  0.1723 -0.0767
15291W        W58282  18.508   6.127  15.065 -0.0283 -0.2247 -0.0519
15292W        W58283  33.156  28.741   8.930  0.2522  0.3155  0.1703
15293W        W58284  30.685   6.034  16.595  0.0270 -0.0975  0.0547
15294W        W58285  17.529   6.293  22.827 -0.0621 -0.2911 -0.0308
15295W        W58286  33.575  34.137  25.072 -0.0314 -0.2482  0.2810
15296W        W58287  28.438   5.455  14.800 -0.1795  0.0525  0.4182
15297W        W58288  31.217  31.689  16.091  0.0742  0.0505  0.0551
15298W        W58289  18.505  30.096  25.980  0.0314 -0.0011 -0.0635
15299W        W58290  33.322  29.226  23.782  0.1107 -0.0383  0.0886
15300W        W58291  30.167   9.176  19.856 -0.0055 -0.2097  0.1300
15301W        W58292  27.159   4.466  14.021 -0.0370  0.1099  0.0076
15302W        W58293  27.110   7.162  27.397  0.2327 -0.1396  0.0970
15303W        W58294  33.078   0.525   0.006 -0.3601  0.2617  0.0906
15304W        W58295  22.660   5.804   0.382 -0.0064  0.1727 -0.3831
15305W        W58296  18.585   3.680  14.786  0.0652 -0.0185  0.3616
15306W        W58297   1.729   4.637  17.484 -0.0610  0.1644  0.2918
15307W        W58298  18.293   6.823  24.996  0.1135  0.1411  0.0119
15308W        W58299  33.933  28.318  27.754 -0.4410  0.0746 -0.2607
15309W        W58300  34.261  25.422   7.843 -0.2599 -0.0801 -0.0776
15310W        W58301  26.439  34.571  17.922  0.2048  0.4655  0.4470
15311W        W58302  31.994  32.821   0.569  0.0716  0.0679  0.1217
15312W        W58303  22.834   3.030   4.844  0.1042 -0.1685 -0.0673
15313W        W58304  25.648   7.414  14.769  0.3022 -0.0429 -0.1972
15314W        W58305  13.610  32.253  16.869 -0.1752 -0.0487 -0.4226
15315W        W58306  19.533  21.951  13.278  0.1885  0.2092  0.0458
15316W        W58307  10.595   7.452  24.269  0.0640  0.0126 -0.0915
15317W        W58308  16.508  24.071   8.526  0.0041 -0.1781  0.0378
15318W        W58309  24.765  19.591   6.273 -0.1085  0.0931 -0.1460
15319W        W58310  14.071  28.244  24.133 -0.2904 -0.1369  0.1340
15320W        W58311  28.540  27.892  23.322  0.1176  0.1048  0.4733
15321W        W58312  31.731   7.590  26.445  0.1749 -0.0806 -0.3735
15322W        W58313   7.798  16.415   5.648 -0.0391 -0.2053  0.2362
15323W        W58314  30.640   2.201  27.310  0.0114 -0.0924 -0.0341
15324W        W58315  18.018   2.052  24.358 -0.0573 -0.0358  0.1403
15325W        W58316  25.474  26.376  27.691 -0.3584 -0.1132 -0.2631
15326W        W58317   2.230   5.346   8.767  0.0620  0.3922  0.2761
15327W        W58318  29.447  29.963   3.143 -0.0818 -0.2136 -0.0330
15328W        W58319  20.776  32.750  17.910 -0.1437  0.1175 -0.0702
15329W        W58320   1.807  25.035  22.110 -0.0472  0.2177 -0.0350
15330W        W58321  28.809   5.405  22.402  0.0612 -0.0241 -0.1742
15331W        W58322  13.369  15.215  13.801 -0.2861  0.1048  0.0984
15332W        W58323  28.287   1.689   4.460 -0.0502 -0.1356 -0.1103
15333W        W58324  22.689  11.081  18.258 -0.2869 -0.2063  0.0519
15334W        W58325  22.604  27.619   0.364  0.1171  0.3131 -0.1837
15335W        W58326  30.920  21.448  20.482  0.0347 -0.2077 -0.1031
15336W        W58327  28.137  26.090   7.097  0.0961  0.2677  0.0515
15337W        W58328  23.704  17.097  15.179  0.0193  0.1313 -0.1519
15338W        W58329  27.067  30.546  14.102  0.2146  0.0729 -0.0581
15339W        W58330  22.927   4.287  20.676  0.1731 -0.1088 -0.1024
15340W        W58331   7.592   0.308  28.382  0.1685  0.1819 -0.3887
15341W        W58332  33.702  26.872   5.976 -0.2934  0.1780 -0.2071
15342W        W58333  20.221  13.565   4.412 -0.1264 -0.1689 -0.1254
15343W        W58334  27.152  24.237  23.696  0.3298  0.0114 -0.1674
15344W        W58335   2.574   8.413  27.376 -0.1910  0.2317 -0.1097
15345W        W58336  30.277  30.215  19.585  0.1605 -0.0580  0.2183
15346W        W58337  33.636  32.076  15.826  0.0419 -0.0015  0.0434
15347W        W58338  29.744  32.441  19.153 -0.0494 -0.0617 -0.0267
15348W        W58339   3.365  32.114   2.460 -0.0511  0.3361 -0.0119
15349W        W58340   0.081   4.766   4.256 -0.1919 -0.2682  0.0496
15350W        W58341   1.688   8.462  23.197  0.1445 -0.0912  0.0577
15351W        W58342  21.235  26.456   1.490 -0.0314 -0.3779 -0.2699
15352W        W58343  22.571  18.066  14.398 -0.0472 -0.0495  0.1933
15353W        W58344  27.386  24.698  19.611 -0.1742  0.0626 -0.3234
15354W        W58345   3.926   2.307   7.554 -0.0057 -0.4180  0.2442
15355W        W58346   9.731   8.305  23.312 -0.2260  0.1244 -0.1257
15356W        W58347  30.935  21.559   7.221 -0.0377 -0.1016  0.3211
15357W        W58348  24.426   4.929  17.520 -0.0748 -0.2370 -0.1795
15358W        W58349  11.332  27.545  22.449  0.1481 -0.1776  0.1292
15359W        W58350   2.687   3.946   8.622 -0.1343  0.2144  0.3303
15360W        W58351  23.712  29.138   3.879 -0.2311 -0.1263 -0.1468
15361W        W58352  23.772  17.581  15.398  0.1138 -0.1208 -0.1381
15362W        W58353  31.849  18.021   1.649 -0.1258  0.0851 -0.0535
15363W        W58354   3.399  28.286  18.784 -0.2450  0.2824 -0.3019
15364W        W58355  12.314  18.946  19.573  0.1402  0.2070 -0.0118
15365W        W58356  21.797   5.449   1.909  0.1249 -0.0747  0.0609
15366W        W58357  32.245  30.370   6.149 -0.2969  0.1671 -0.5030
15367W        W58358   6.112  12.910  17.453  0.2927 -0.0474  0.1231
15368W        W58359   8.751   7.111  20.286 -0.0878 -0.1899 -0.0607
15369W        W58360  25.048  32.764  21.532 -0.0898 -0.2549  0.1491
15370W        W58361  19.589  24.748  17.246 -0.2064  0.0098 -0.0989
15371W        W58362  22.464   6.760  21.654  0.1303  0.1758  0.0111
15372W        W58363  32.679  32.217  28.316  0.1390 -0.0233  0.2213
15373W        W58364  28.410   4.038  23.491  0.0459 -0.0962  0.0888
15374W        W58365   3.775  33.874  18.923  0.2230  0.2935  0.0988
15375W        W58366  13.487  29.891  13.956 -0.1477 -0.1116 -0.2411
15376W        W58367  25.171   8.944  16.463  0.0082  0.3757  0.0988
15377W        W58368   5.094  33.043  23.079  0.0190 -0.1759 -0.0085
15378W        W58369   0.725   0.533  24.933 -0.0206 -0.1622 -0.0097
15379W        W58370  21.478   0.570  19.771  0.1112 -0.1442 -0.1274
15380W        W58371  11.506  15.398  13.729  0.0210 -0.1157 -0.0193
15381W        W58372  32.954   3.146  19.759  0.3727  0.1376 -0.1582
15382W        W58373  23.631  12.167   2.216  0.1424  0.0231  0.0185
15383W        W58374  24.088  14.257  18.930 -0.0544  0.0961  0.2923
15384W        W58375  20.827  14.998   1.166  0.1124 -0.2838  0.2437
15385W        W58376  25.116  15.985  13.486 -0.1500 -0.1870  0.1981
15386W        W58377   2.221   1.636  26.247  0.0021 -0.2739 -0.2378
15387W        W58378  18.632  28.579  16.647 -0.2102 -0.1486 -0.1290
15388W        W58379  25.020   1.647   0.145 -0.1755  0.0955 -0.0356
15389W        W58380  16.591  31.414  16.631  0.2303 -0.0918  0.2925
15390W        W58381  32.920   7.999  15.603  0.0732 -0.2471 -0.3035
15391W        W58382   1.337  10.259  22.163 -0.1147  0.0220  0.0614
15392W        W58383  18.042   9.091  22.923  0.1689  0.4703  0.0468
15393W        W58384  24.551   7.684   4.689 -0.0804  0.1680  0.1701
15394W        W58385  13.379  29.176   4.098 -0.0417  0.1472 -0.2053
15395W        W58386  31.010   1.999  26.496 -0.2481  0.3845 -0.1884
15396W        W58387  25.552   8.481  24.576 -0.1132  0.0632 -0.2153
15397W        W58388  23.656   1.086   2.391  0.3303 -0.3353  0.2105
15398W        W58389  22.597   1.109   1.219 -0.0761  0.1594  0.2639
15399W        W58390  10.431   0.304  17.235  0.0483 -0.1418  0.2203
15400W        W58391  13.903  18.824  29.152 -0.1874  0.0140  0.0114
15401W        W58392  28.670  33.686   0.265  0.1614  0.0901 -0.0332
15402W        W58393  33.621  26.357  22.427  0.3860  0.2042  0.2301
15403W        W58394  30.128  34.039  21.518 -0.0373  0.0214 -0.0895
15404W        W58395  26.806   8.978  28.132 -0.2728  0.2247  0.1541
15405W        W58396   2.801  14.508  28.761 -0.0014  0.0157  0.0375
15406W        W58397  25.577   0.051   1.604  0.0748 -0.4449 -0.5169
15407W        W58398   2.331  24.462  23.280  0.4467  0.1188 -0.0306
15408W        W58399  25.320  15.924  19.566  0.0616 -0.2547  0.2409
15409W        W58400  22.666  20.007  19.449 -0.2072 -0.2273  0.0168
15410W        W58401   0.947   7.390  24.877 -0.1365 -0.0508  0.1432
15411W        W58402  27.361   5.105  15.477 -0.0275  0.3927  0.1226
15412W        W58403  23.270  29.579  20.405 -0.1091  0.1835  0.2394
15413W        W58404  15.079  34.497  20.647  0.0923 -0.0631 -0.2933
15414W        W58405  33.908  33.887  22.149 -0.0727 -0.1345  0.1031
15415W        W58406  21.286   3.092   0.103 -0.1149 -0.0110  0.3046
15416W        W58407  15.777  31.480   9.688  0.0263 -0.1017 -0.4407
15417W        W58408   3.976  27.534  22.791  0.0096 -0.1597 -0.0731
15418W        W58409  12.940   4.397   1.677 -0.1545 -0.0517  0.2204
15419W        W58410   2.635  28.927  21.034 -0.0039 -0.1778  0.0348
15420W        W58411   3.790  25.940  15.928  0.1511  0.1890 -0.1060
15421W        W58412  31.039  14.344   0.927  0.1231  0.2286  0.0629
15422W        W58413  24.094  26.919   2.777  0.1650 -0.0378  0.0184
15423W        W58414   0.706   3.535  26.729 -0.1369 -0.2735  0.0519
15424W        W58415  20.910  14.224   8.131  0.1360  0.4967  0.1614
15425W        W58416  12.858  12.476  17.682  0.1149  0.0474 -0.1229
15426W        W58417  23.746   0.064  22.240 -0.2699 -0.2497  0.0065
15427W        W58418  23.864  34.781   6.041 -0.0412  0.0496 -0.1089
15428W        W58419  31.835   4.224   0.606  0.2172 -0.0093 -0.0698
15429W        W58420  12.477  27.498  22.938 -0.2348 -0.0730  0.0266
15430W        W58421   3.420  25.491   0.077 -0.1030 -0.0320  0.1163
15431W        W58422  12.686   2.943  14.509  0.3239  0.0622  0.0267
15432W        W58423   2.837   8.925  16.970  0.1395 -0.1538 -0.0512
15433W        W58424   2.238  25.754  17.100  0.1113 -0.1119  0.0065
15434W        W58425  20.349  10.311  21.116  0.1164 -0.1387 -0.3598
15435W        W58426  16.115  31.899  21.992  0.1159 -0.0023 -0.3385
15436W        W58427   8.519   8.781  18.693  0.1616  0.0774  0.3897
15437W        W58428   0.440  25.240   2.425 -0.1874  0.3828  0.2161
15438W        W58429  28.381   8.757  19.894 -0.0171  0.1913  0.1915
15439W        W58430  31.516  30.303  25.330 -0.1195  0.2430  0.0320
15440W        W58431  25.641   4.461   0.045 -0.0659 -0.3754  0.4645
15441W        W58432  25.663  26.655  13.947  0.0500  0.3144  0.1198
15442W        W58433  22.876  17.799  19.850 -0.1590  0.2642 -0.0629
15443W        W58434  14.433   6.604  21.851  0.0334  0.1907  0.0166
15444W        W58435   3.975  11.813  29.076 -0.0855 -0.2655 -0.2917
15445W        W58436  28.559  10.698  21.276 -0.2645 -0.0657 -0.2913
15446W        W58437  22.273  34.575  22.819  0.0583 -0.2818  0.1129
15447W        W58438  32.963  32.351  17.724  0.0905  0.2528 -0.2972
15448W        W58439  32.056  24.370  14.473 -0.0858  0.0719 -0.2412
15449W        W58440  21.914  34.187  17.737 -0.1093 -0.1237 -0.1360
15450W        W58441  33.987   7.028  26.970  0.0405 -0.0716  0.3982
15451W        W58442   9.682   7.015  26.492  0.1594  0.0229  0.0343
15452W        W58443  17.029  22.124  14.603  0.0081  0.2685  0.0178
15453W        W58444  10.849   9.147   0.073 -0.0168 -0.0849  0.3636
15454W        W58445  25.188  33.394  26.038 -0.0068  0.0396  0.2034
15455W        W58446  31.303  18.739  18.440  0.1688  0.3487  0.2065
15456W        W58447  15.678  15.350  14.114  0.3651 -0.3209  0.0167
15457W        W58448  24.574  13.997  13.961  0.2972  0.0739 -0.0709
15458W        W58449  22.273  29.619   0.661  0.1113  0.3884  0.2463
15459W        W58450  21.427  31.237  12.814  0.0123  0.1383  0.0382
15460W        W58451  14.581  24.392   7.301 -0.5505  0.2288 -0.0146
15461W        W58452   8.008  13.570   2.134  0.2574 -0.1420  0.2470
15462W        W58453   8.540   1.926  20.835 -0.0589  0.1268  0.0170
15463W        W58454  24.963  30.066  24.495  0.1579 -0.0546 -0.1253
15464W        W58455  13.404  33.173   1.214 -0.4666 -0.1601 -0.3372
15465W        W58456  20.374   7.080   8.384 -0.2918 -0.1855 -0.0531
15466W        W58457  26.142  28.833  27.444 -0.0627  0.0785 -0.1653
15467W        W58458  23.218  26.482  21.994 -0.0871 -0.0479  0.2409
15468W        W58459   0.379  27.648  24.829  0.1998  0.3659  0.2463
15469W        W58460  23.428   3.359  24.087  0.0728  0.1144  0.0658
15470W        W58461   7.893   0.443  24.153  0.1941 -0.1622  0.3753
15471W        W58462  20.807  33.186  16.541  0.0061 -0.2082  0.2357
15472W        W58463  32.171  28.225  15.512 -0.1530  0.2441  0.4914
15473W        W58464  11.010   7.264  22.441 -0.1968  0.0998 -0.2587
15474W        W58465  14.589  26.590  22.304  0.0125  0.2435  0.0476
15475W        W58466   5.677   4.593  26.846 -0.0625 -0.1074 -0.2056
15476W        W58467  21.453  28.900  28.040 -0.2169 -0.0145  0.0101
15477W        W58468   6.763  33.651   3.001 -0.1374 -0.0288 -0.0800
15478W        W58469  19.465  33.025  20.750  0.1901 -0.0397  0.1162
15479W        W58470  27.945  24.715  28.788  0.0357 -0.0314 -0.0289
15480W        W58471  34.302  32.345   1.427 -0.2955  0.1581 -0.0819
15481W        W58472  30.545  18.169  25.260 -0.2641  0.0535 -0.0211
15482W        W58473  18.986  25.129   2.557 -0.1503 -0.2726 -0.0633
15483W        W58474   9.482  34.597  18.772 -0.4895 -0.0622 -0.0363
15484W        W58475  30.056  10.028  20.036 -0.0632 -0.1315 -0.2440
15485W        W58476  19.890   8.013   2.422  0.0207 -0.0602 -0.0469
15486W        W58477  28.387   8.567  26.977  0.2121 -0.0860  0.2166
15487W        W58478  24.317   1.503  20.386  0.3820 -0.2051 -0.2845
15488W        W58479  23.240  21.511  18.604 -0.1940  0.2857 -0.0844
15489W        W58480  28.525   3.563  15.412  0.2275  0.2632  0.0049
15490W        W58481   0.800   9.928   6.835 -0.1465  0.0583  0.0930
15491W        W58482  34.239  13.603  27.824  0.1313 -0.4888 -0.2378
15492W        W58483  11.964  24.676  21.695 -0.0900  0.0577 -0.1450
15493W        W58484  28.631  33.947  28.245  0.0109  0.2200 -0.0101
15494W        W58485  29.257   4.364  25.036 -0.1121  0.1026  0.2356
15495W        W58486   1.341  32.561  28.924 -0.0112  0.0585  0.2295
15496W        W58487  33.374   4.950  21.465 -0.1709 -0.0600  0.0988
15497W        W58488  29.526   6.154  17.060 -0.0286 -0.0655  0.0424
15498W        W58489  19.214  13.399  17.249  0.2414  0.0290  0.1077
15499W        W58490  30.348  23.602   1.077 -0.1112  0.1460 -0.0375
15500W        W58491   8.457  27.307   4.447 -0.0793 -0.0385 -0.0487
15501W        W58492  27.267  32.950  19.420  0.1925 -0.0209  0.0491
15502W        W58493  31.966   3.537  21.366 -0.0610  0.0589  0.2618
15503W        W58494   7.431  11.801  16.803 -0.4636 -0.1288 -0.2012
15504W        W58495   1.121  34.381  18.747 -0.0061  0.1935 -0.1660
15505W        W58496  31.295  29.963  17.799  0.3374 -0.2150 -0.3009
15506W        W58497  15.367  33.138  18.885  0.3134 -0.0844 -0.0519
15507W        W58498  30.675  23.440  17.040 -0.0386 -0.2215  0.3127
15508W        W58499  17.527   5.255  18.383  0.4028 -0.0425  0.1634
15509W        W58500   6.135  32.971  19.953  0.1761 -0.1234  0.2557
15510W        W58501  19.148  29.113  26.941  0.1803 -0.0265 -0.1896
15511W        W58502  23.727  14.772  16.323 -0.2984  0.0060  0.0849
15512W        W58503  30.284   9.051   7.853 -0.0302  0.1400  0.2210
15513W        W58504  31.905   0.448   3.231  0.0570  0.0120 -0.0660
15514W        W58505   4.406   1.833  28.681 -0.1154 -0.2325 -0.2983
15515W        W58506  32.076  30.739  15.771 -0.2797  0.1681  0.0955
15516W        W58507  23.979   7.451  20.701  0.0702  0.1617 -0.2013
15517W        W58508   8.239   3.661  18.409  0.2263  0.0639 -0.0477
15518W        W58509  13.082  34.024   4.394 -0.0350 -0.4402 -0.1177
15519W        W58510  12.954  12.228  29.132  0.0485  0.1318  0.3062
15520W        W58511  30.023   6.434  25.250 -0.2916 -0.0168 -0.1048
15521W        W58512  27.763  11.442   6.800 -0.1469  0.0470  0.0501
15522W        W58513  34.584  27.006  29.039  0.1342 -0.1405  0.4415
15523W        W58514  33.509  10.536  15.699 -0.0439 -0.4730 -0.1080
15524W        W58515  24.645  10.344  23.994  0.0299 -0.0073 -0.0083
15525W        W58516  13.286  28.181  17.076  0.2283  0.2914  0.1147
15526W        W58517  27.733  31.391   7.282 -0.1378  0.1914 -0.2853
15527W        W58518  29.252  14.623   2.232  0.0218  0.1423  0.1928
15528W        W58519   5.606  32.435   9.077 -0.1291  0.1466  0.2359
15529W        W58520   9.738  33.487   1.257 -0.3008  0.2227 -0.1433
15530W        W58521  27.681  32.522  13.298  0.0107  0.0865  0.1062
15531W        W58522  23.915  10.970   6.558 -0.2839  0.1679 -0.1327
15532W        W58523   7.491   8.087   0.847 -0.0617  0.0105  0.0883
15533W        W58524  23.400   3.399  27.216 -0.0272 -0.2480 -0.3058
15534W        W58525  16.811   0.736  22.254  0.2657  0.1628  0.1027
15535W        W58526  19.396   6.863  28.613 -0.0520 -0.0032 -0.1752
15536W        W58527  24.268   3.193  24.116  0.1193  0.0861  0.0913
15537W        W58528  27.620   2.368  21.295 -0.1927 -0.0587  0.0135
15538W        W58529  22.919  22.267  22.626  0.0450 -0.2018  0.0615
15539W        W58530  25.398   5.387   3.135 -0.2736 -0.1245 -0.1001
15540W        W58531  21.689  33.277   2.924  0.1047  0.1770  0.1409
15541W        W58532   8.053   2.605  19.814  0.2369  0.2159 -0.3550
15542W        W58533  31.924  24.611   9.940 -0.0787  0.4780 -0.2237
15543W        W58534  24.413  25.039  26.095 -0.0032  0.0036 -0.2025
15544W        W58535  31.117  12.124  28.118  0.0641  0.1110  0.0896
15545W        W58536   3.031  16.376  17.114  0.2387 -0.1922 -0.2349
15546W        W58537  30.169   8.912   0.645 -0.0988 -0.1161 -0.0714
15547W        W58538   3.883   1.317   1.949 -0.5223  0.1252 -0.1725
15548W        W58539   5.661  30.332  17.504  0.0140 -0.3558 -0.3611
15549W        W58540   0.045   0.361   1.222 -0.1105  0.1090 -0.0593
15550W        W58541  12.433   5.936  26.602 -0.0433 -0.1315 -0.0053
15551W        W58542  19.059  26.251  16.132  0.0174 -0.1814 -0.0417
15552W        W58543   1.168  33.576   6.147 -0.0873  0.2635  0.1898
15553W        W58544  29.659   3.694  23.855 -0.0490 -0.0897 -0.1059
15554W        W58545  22.772  12.947  16.274  0.2344  0.3390 -0.0710
15555W        W58546  23.527  26.361   6.872 -0.0327  0.4765 -0.1007
15556W        W58547  19.454  13.233  24.642  0.2538 -0.0581 -0.0583
15557W        W58548  27.536   4.080   6.066  0.0804  0.1517  0.1694
15558W        W58549  32.465   7.452  28.093 -0.0970 -0.0846  0.0801
15559W        W58550   5.509  28.964  14.176  0.1958  0.0107  0.0592
15560W        W58551  29.059   5.395   6.170 -0.2725 -0.1365 -0.5306
15561W        W58552   8.764   5.570   2.442  0.1649  0.1775  0.2067
15562W        W58553  28.238   0.422  15.597 -0.2998  0.1640  0.1469
15563W        W58554  22.886  34.570  22.208 -0.1093 -0.2202  0.1144
15564W        W58555  30.799  31.944  16.128 -0.0480  0.0955  0.2384
15565W        W58556  23.570   3.218  17.345  0.0599  0.1699 -0.2041
15566W        W58557  32.128  25.358   8.400 -0.2299 -0.0753 -0.0919
15567W        W58558  34.550   8.556  16.433 -0.1655  0.1509 -0.1252
15568W        W58559  13.319  34.718   6.028 -0.1058 -0.3194  0.0062
15569W        W58560  31.015  13.626  17.278 -0.1946  0.0337  0.2589
15570W        W58561  21.255   0.946   4.460 -0.2596  0.2462 -0.1664
15571W        W58562   2.106  28.249  28.504  0.0217  0.2052 -0.4098
15572W        W58563  34.565   0.634  19.157 -0.3238 -0.0952 -0.2271
15573W        W58564  16.508   1.903  15.821 -0.0407  0.0076 -0.0578
15574W        W58565   2.962  14.277  17.312 -0.1422 -0.0647 -0.1259
15575W        W58566   6.384   1.146  23.566  0.0159  0.0804 -0.2148
15576W        W58567  27.239  11.092  28.073 -0.1813  0.0138  0.1142
15577W        W58568  30.490  27.743   0.662  0.2601  0.1021 -0.0799
15578W        W58569  27.819   3.837  21.521  0.4563 -0.0789  0.0905
15579W        W58570  22.347  29.080  16.347 -0.1385  0.0219  0.1048
15580W        W58571  20.976   6.946  17.617  0.0318  0.1215 -0.0033
15581W        W58572  28.886   0.830   8.342  0.3767  0.2912 -0.1301
15582W        W58573  10.963  23.128   8.546  0.0959 -0.2345 -0.1492
15583W        W58574   1.023  10.028   7.655  0.1676 -0.3485  0.0770
15584W        W58575  25.716  15.699  21.502  0.1388  0.4106  0.1217
15585W        W58576  19.323  28.989   3.170  0.0807 -0.2620  0.2640
15586W        W58577  15.306  23.162   8.745 -0.3098  0.1422  0.2246
15587W        W58578   0.708   7.128   4.507 -0.0043  0.1358 -0.0725
15588W        W58579  15.974  34.621  21.341 -0.0662  0.5014 -0.4304
15589W        W58580  11.020  30.005  14.984 -0.3507 -0.3323 -0.0278
15590W        W58581  34.478  28.809  23.771 -0.0629  0.1269 -0.1927
15591W        W58582  18.377   5.254  22.265  0.1813 -0.1997 -0.0400
15592W        W58583  33.609  29.108  16.933  0.2424  0.1210  0.2052
15593W        W58584  26.114  10.595  22.816 -0.3327 -0.0980  0.1538
15594W        W58585  19.948   0.176  25.961  0.3102 -0.1222 -0.1186
15595W        W58586   0.738   4.822  19.598 -0.0438  0.0220  0.1907
15596W        W58587  13.843  33.714   0.612  0.1894  0.0467 -0.3559
15597W        W58588  11.650  27.249   5.661  0.3097  0.1313  0.1769
15598W        W58589  21.161   4.102  23.199 -0.0570 -0.3252 -0.0247
15599W        W58590   2.978   5.967  20.172 -0.0539  0.0038  0.0765
15600W        W58591  34.716   2.740   8.859  0.2878 -0.2012  0.1500
15601W        W58592  15.780  26.917  25.145 -0.0736  0.3057  0.1729
15602W        W58593  14.398   3.168   1.347 -0.0565  0.0751  0.1376
15603W        W58594  19.731  30.547  20.652 -0.1534  0.2437 -0.0298
15604W        W58595   2.662   5.495  25.321 -0.0512  0.3184  0.1909
15605W        W58596  29.496  14.417  17.999  0.1170  0.0935 -0.2534
15606W        W58597  23.133   7.847  20.200  0.1410  0.1694  0.3648
15607W        W58598   7.540  29.035  18.524  0.0354  0.1979 -0.2732
15608W        W58599  23.886   6.567   5.016 -0.2313  0.2781  0.0341
15609W        W58600   1.414  32.487   1.812  0.1587  0.0121 -0.0657
15610W        W58601  21.348   5.397   9.116  0.3123 -0.0179  0.0550
15611W        W58602   4.227  16.612  26.167  0.2671  0.1377  0.0288
15612W        W58603  18.560  22.395  28.883 -0.1787 -0.0929 -0.0914
15613W        W58604  28.877  11.751  23.446  0.0487  0.4235  0.3458
15614W        W58605  21.285  29.876   9.556 -0.1764 -0.0542 -0.1803
15615W        W58606  19.386  25.517  27.301  0.2208  0.2821 -0.1427
15616W        W58607  26.123  13.359   4.140  0.1638  0.0732  0.2288
15617W        W58608  28.946   9.331  20.320 -0.0133  0.1411 -0.1008
15618W        W58609  26.948   3.789  28.496  0.1464 -0.0737  0.1215
15619W        W58610   9.629  34.701  20.119  0.1231 -0.1594 -0.0096
15620W        W58611   7.135   1.385   5.343 -0.1881  0.2281 -0.0179
15621W        W58612   2.761   3.837   4.178 -0.1824 -0.0251 -0.0990
15622W        W58613  33.810  17.796  18.314  0.2000  0.0410  0.0500
15623W        W58614   3.500  12.504  27.690  0.3245  0.3405 -0.0934
15624W        W58615  21.744   0.313  17.874 -0.0515 -0.1303  0.0933
15625W        W58616  22.512   2.885   3.930  0.3052 -0.0969  0.0156
15626W        W58617  30.129  12.781   8.967  0.0292  0.0390  0.3496
15627W        W58618  25.040   2.696   2.514  0.2066  0.0631  0.3160
15628W        W58619  28.671  10.127  18.911 -0.1731  0.2054 -0.0085
15629W        W58620   5.398  33.806  17.254 -0.2877  0.2218 -0.1649
15630W        W58621  27.081  19.836   2.248  0.1256 -0.0845 -0.0948
15631W        W58622   0.413   6.870   4.136  0.0397 -0.3385 -0.0544
15632W        W58623  28.560   9.460   4.418  0.0658  0.2501  0.0437
15633W        W58624  32.052   2.679  13.859  0.0066 -0.1502  0.0882
15634W        W58625   3.300  30.086  14.623 -0.4026  0.0971 -0.1936
15635W        W58626  27.835   6.077  25.565  0.1725  0.2273  0.0906
15636W        W58627  29.590   7.732  25.987  0.0731  0.0485 -0.1061
15637W        W58628  22.988   2.301  26.934 -0.0146  0.2631  0.0381
15638W        W58629  21.848  22.267  19.866 -0.0119  0.2617  0.0538
15639W        W58630   0.195   5.448  27.287 -0.0281  0.1192 -0.0457
15640W        W58631  28.417  28.008   6.959  0.0728 -0.0970 -0.3943
15641W        W58632   0.758  27.469  27.743 -0.0336 -0.0056 -0.2271
15642W        W58633  25.717   2.716  14.836 -0.1231 -0.1180  0.1672
15643W        W58634  19.301   7.210  15.090  0.2168  0.2714  0.1761
15644W        W58635  22.447   7.231  23.501 -0.4717 -0.2577 -0.0459
15645W        W58636  33.425   8.911  18.027 -0.1090 -0.0013 -0.1554
15646W        W58637  10.158  11.338  27.992 -0.1652 -0.2325  0.1288
15647W        W58638  25.302  34.213   6.781  0.2193  0.0312 -0.2461
15648W        W58639  19.690   6.688   4.603 -0.0210  0.3644 -0.0957
15649W        W58640  17.785  26.841   4.417 -0.0594  0.2528  0.0487
15650W        W58641  18.400   6.334   7.277  0.2588 -0.1948 -0.0575
15651W        W58642  25.335  10.464   5.592  0.2413 -0.3920  0.2120
15652W        W58643  33.944   4.767  23.580 -0.2291  0.2509 -0.2303
15653W        W58644  33.642  19.660   4.887 -0.1797  0.2856 -0.1459
15654W        W58645   3.618   8.774   9.591 -0.0529  0.0518 -0.2000
15655W        W58646  29.914  30.354   8.449  0.1422  0.2367  0.0982
15656W        W58647   9.581   1.333   6.126  0.0674 -0.0777 -0.2086
15657W        W58648  22.100  34.222  25.529  0.1041  0.0318 -0.2041
15658W        W58649  21.910  30.641   5.736  0.0742  0.0986  0.0484
15659W        W58650  11.262  24.750  16.682  0.2668 -0.1164 -0.0246
15660W        W58651  24.586  32.218  20.796  0.1904 -0.0022 -0.1328
15661W        W58652  19.462  32.353  28.794 -0.1998 -0.1227  0.0709
15662W        W58653  12.185  31.848  18.724 -0.0519 -0.0428 -0.1519
15663W        W58654  17.600  10.777   0.509  0.0542  0.2724  0.4667
15664W        W58655   8.291   7.206  26.688 -0.0613  0.2306  0.2008
15665W        W58656  32.785   4.173  19.547 -0.0083  0.1076 -0.2197
15666W        W58657  25.694   7.711  28.269 -0.1471  0.0036 -0.0803
15667W        W58658  29.687  15.666   3.090  0.2460 -0.3369  0.1221
15668W        W58659  14.855  29.139  25.613  0.1661 -0.0006  0.0051
15669W        W58660  24.401   2.633  21.378 -0.3192 -0.0678 -0.3756
15670W        W58661  14.787   8.962  25.046  0.2027 -0.0552 -0.0126
15671W        W58662  28.796   5.956  21.193 -0.0133  0.0738  0.1023
15672W        W58663   9.671  17.655   9.714  0.0127  0.1561 -0.3883
15673W        W58664  13.147   7.927  10.147 -0.0974 -0.0733 -0.1591
15674W        W58665  29.567  31.156   8.067  0.2239 -0.1673 -0.2911
15675W        W58666  28.206  22.646   3.936 -0.1783 -0.5036  0.2243
15676W        W58667  30.429  15.098  20.014  0.0139 -0.2209 -0.0165
15677W        W58668  32.749   2.352  27.122  0.0263  0.3139  0.1875
15678W        W58669   8.488  21.524  15.960  0.1219 -0.2278  0.0312
15679W        W58670  30.456  12.984  15.370 -0.1019 -0.0460 -0.0662
15680W        W58671  21.275  26.337  16.839 -0.2836 -0.0724 -0.1187
15681W        W58672  25.052  24.218   0.813  0.3345  0.1812  0.0592
15682W        W58673  26.443   5.008   0.746  0.3432  0.1973  0.3762
15683W        W58674   8.521   2.093  23.311  0.2366  0.1367 -0.3112
15684W        W58675  17.346  16.543  28.656  0.0722 -0.0620 -0.3322
15685W        W58676  15.313   4.749  28.786 -0.0371  0.0010  0.0065
15686W        W58677  32.433  24.724   2.630 -0.0496 -0.3211  0.0842
15687W        W58678  23.439  22.031   8.078 -0.2344 -0.0928 -0.4112
15688W        W58679  15.058  30.277   0.267  0.0246  0.0489 -0.2176
15689W        W58680  22.865   7.990  18.074 -0.0776  0.0846  0.1599
15690W        W58681  27.631  16.271  21.368  0.0236 -0.0503 -0.0572
15691W        W58682  12.999   7.585  21.767  0.2444  0.4088 -0.3420
15692W        W58683  22.895   7.212  14.791 -0.0018 -0.0155 -0.0808
15693W        W58684  24.538  28.488   8.647 -0.1003  0.0730 -0.2874
15694W        W58685  10.941   4.985  27.061 -0.1000 -0.1228  0.3086
15695W        W58686  28.033  18.618  15.005 -0.0034  0.2159  0.0470
15696W        W58687  34.268  32.729  17.937  0.2440 -0.2039 -0.0683
15697W        W58688  24.108   9.669  15.944 -0.2707 -0.0958 -0.3243
15698W        W58689  26.092  28.213  18.760 -0.1673  0.1199  0.1503
15699W        W58690  15.582   8.444  20.908  0.0683  0.0659 -0.0490
15700W        W58691  30.646   5.751  27.596  0.0937 -0.0272 -0.0404
15701W        W58692  25.062  33.860  14.712  0.2052  0.1044  0.0614
15702W        W58693  21.412   3.329   3.481 -0.2107 -0.1408  0.0788
15703W        W58694  20.846  29.639  28.211  0.3004  0.1764 -0.0469
15704W        W58695  27.888  10.294   0.631  0.1072  0.0882 -0.1941
15705W        W58696   6.665  27.353  29.166 -0.0096  0.1254 -0.1060
15706W        W58697  23.845  14.044  19.365 -0.0497 -0.1420  0.3368
15707W        W58698  33.392   6.232  17.429  0.2733 -0.4266 -0.1060
15708W        W58699  14.312   0.464  20.864 -0.2825  0.1196  0.1395
15709W        W58700  22.060  23.705  24.656  0.3235 -0.0470  0.1056
15710W        W58701  33.160  34.281   8.968 -0.2616  0.1054 -0.0595
15711W        W58702   0.183  33.715  21.861 -0.0138 -0.1478 -0.2624
15712W        W58703  28.039  26.644  21.116 -0.4022 -0.0448  0.1266
15713W        W58704   0.278  24.251  25.969  0.1463  0.3040 -0.0991
15714W        W58705  33.486  30.677  23.517 -0.0092 -0.2254  0.0187
15715W        W58706  33.169  32.976  15.036  0.2078  0.1961 -0.0416
15716W        W58707  28.963  11.211  26.109 -0.1182 -0.2652  0.0931
15717W        W58708  34.354   6.599  25.649 -0.3599  0.1917 -0.0183
15718W        W58709  33.151  31.185  27.748  0.2985 -0.0420 -0.0360
15719W        W58710  30.330   7.589  25.727 -0.0564  0.3728 -0.1413
15720W        W58711   4.905  18.739   9.300  0.1103 -0.0309  0.2667
15721W        W58712  29.839  33.886  27.790 -0.0526  0.0119 -0.0388
15722W        W58713  27.997  14.403  25.202 -0.2950  0.2057  0.0101
15723W        W58714  31.279   4.570  13.758 -0.2750  0.0510 -0.2176
15724W        W58715  18.456   8.825  22.038 -0.2259  0.0606  0.1149
15725W        W58716   1.532  10.512  24.596 -0.0750 -0.1823 -0.1480
15726W        W58717  13.135   5.360   8.261  0.0914 -0.2043 -0.3703
15727W        W58718  16.104  19.612  15.739  0.0200  0.0101  0.0693
15728W        W58719   9.564   6.879  19.003  0.0882  0.1452  0.1381
15729W        W58720  23.757  23.998  24.452  0.0083  0.1287  0.1649
15730W        W58721  25.003   5.970   1.957 -0.0458  0.0689 -0.3818
15731W        W58722  18.736   5.251  19.518  0.3430 -0.0131 -0.4093
15732W        W58723  11.044   0.648   4.537  0.2024  0.3256 -0.0269
15733W        W58724  27.949   1.712   3.273 -0.2564 -0.0430  0.0904
15734W        W58725  32.671   7.669   6.299 -0.0701 -0.0145 -0.1677
15735W        W58726   2.370  33.719   3.735  0.0206  0.1897 -0.0046
15736W        W58727   6.914   1.440  25.932  0.3268 -0.1540  0.3517
15737W        W58728  28.093  11.594  25.129  0.4812 -0.0032 -0.0506
15738W        W58729   1.053  31.624   7.476  0.1707  0.2018 -0.1384
15739W        W58730  20.816  20.515  19.373 -0.0606  0.0393  0.0407
15740W        W58731  28.963  18.491  15.049 -0.0339  0.3482  0.0307
15741W        W58732  27.075   9.120   2.912 -0.1547 -0.2316  0.1363
15742W        W58733  18.983  26.680   5.397  0.1392  0.0657  0.0516
15743W        W58734   2.047  26.105  24.202  0.1698 -0.0576 -0.1699
15744W        W58735  26.067  33.060  17.729  0.0011  0.1353 -0.1391
15745W        W58736   6.050   6.583  18.791 -0.3656  0.0066 -0.0412
15746W        W58737  21.260   4.194   3.233  0.2750 -0.1478  0.1919
15747W        W58738  24.982   5.004  17.907 -0.3120  0.1345  0.2731
15748W        W58739  23.780   0.748  19.919  0.1639  0.1711  0.1670
15749W        W58740   4.592  15.005  20.475 -0.1065  0.2010  0.0079
15750W        W58741  20.512   7.492  19.697 -0.2125 -0.0642 -0.1320
15751W        W58742   5.822   2.841   0.941 -0.1661  0.0124  0.0081
15752W        W58743  16.463  13.982  28.285  0.1869  0.2777 -0.2188
15753W        W58744  33.609   6.902  19.794 -0.3013 -0.0162  0.0986
15754W        W58745  25.055  25.236   2.759  0.0740  0.3086 -0.0491
15755W        W58746  24.013  31.225   3.503  0.1119 -0.1611 -0.1560
15756W        W58747  20.585   5.096   5.975 -0.2501 -0.2631 -0.3456
15757W        W58748  25.473   5.834   6.000 -0.1792 -0.0459 -0.0160
15758W        W58749  28.304   3.698  13.937  0.1313  0.1000 -0.0831
15759W        W58750  26.316  10.011   4.412  0.3052 -0.0371 -0.2015
15760W        W58751   7.011  28.236  14.401  0.1077  0.0166 -0.2179
15761W        W58752  27.015  28.158  18.607  0.1911  0.0670 -0.0414
15762W        W58753  13.697   5.651  16.549 -0.1251 -0.2859  0.0294
15763W        W58754  32.556  28.325  26.853  0.2077  0.0536  0.2795
15764W        W58755   4.476   7.152   0.589  0.0568  0.1134  0.2304
15765W        W58756  21.898   4.091  28.563 -0.2229  0.0375 -0.1252
15766W        W58757   6.720  24.933   5.008  0.0479 -0.1957  0.3367
15767W        W58758  14.349  22.924   5.164 -0.1278  0.3177  0.0362
15768W        W58759  28.732  27.858  24.616  0.3144 -0.1250 -0.1395
15769W        W58760  15.520   0.620   4.970 -0.1024  0.1012  0.1121
15770W        W58761  14.811   9.643   2.085 -0.1894 -0.0643  0.2701
15771W        W58762  15.267  10.408   5.651  0.2110 -0.1362 -0.3644
15772W        W58763  15.993  31.898  13.614  0.0261 -0.0027 -0.6123
15773W        W58764   8.507  12.564  28.809  0.0885  0.1698  0.0634
15774W        W58765  26.439  31.682  22.138  0.1168  0.1870  0.1320
15775W        W58766  25.198  21.859   2.519  0.1739  0.0390  0.5329
15776W        W58767  31.116  32.077  22.753  0.4255  0.3004 -0.3076
15777W        W58768  30.360   4.799  27.476  0.0466  0.1281 -0.0334
15778W        W58769  34.711  28.982   9.573  0.0831 -0.1873  0.0721
15779W        W58770  19.673  27.812   5.313  0.5147  0.1676  0.2373
15780W        W58771  33.498  12.767   1.463  0.1784  0.1027  0.1505
15781W        W58772  22.252  28.066  28.065 -0.1647  0.1080 -0.5109
15782W        W58773  20.767  20.664   2.069  0.0562 -0.0909 -0.1325
15783W        W58774  30.830  34.482   7.104 -0.1897  0.1060  0.2578
15784W        W58775  29.626   8.223  25.626  0.0668  0.2376 -0.1286
15785W        W58776  28.811   7.122   8.688 -0.0600  0.0762 -0.0905
15786W        W58777  28.821  34.155   0.405  0.3826 -0.1093  0.1604
15787W        W58778  34.607   0.816  18.401  0.0325 -0.0216  0.3465
15788W        W58779  34.416   6.067   6.037  0.0956 -0.0289 -0.3531
15789W        W58780  30.799  30.850   3.997  0.2407 -0.1555 -0.0021
15790W        W58781   2.889   0.235  18.118 -0.1062  0.3377 -0.0222
15791W        W58782   6.287  30.051  17.186 -0.0047  0.1870 -0.1064
15792W        W58783  28.744  32.050  18.306  0.0322 -0.0626  0.0638
15793W        W58784   1.024   8.669   1.743  0.2192  0.0869  0.0911
15794W        W58785   2.081  20.372  24.349 -0.3432 -0.3108 -0.3806
15795W        W58786   0.765  30.952   8.860  0.0352  0.0600 -0.0222
15796W        W58787   9.812   2.962   5.168  0.3410 -0.0751 -0.5694
15797W        W58788  27.540   7.897   9.342 -0.1447 -0.0993 -0.1870
15798W        W58789  23.868  26.202  15.444  0.2711 -0.1959  0.2060
15799W        W58790  27.233  29.726   6.504  0.0836 -0.0327  0.2843
15800W        W58791  13.193  14.194  29.046 -0.1636  0.1226 -0.0477
15801W        W58792  27.379   8.371  19.940  0.1353  0.4547  0.1686
15802W        W58793  23.059  19.911  22.269  0.3768 -0.1507  0.1347
15803W        W58794  28.400   1.037  15.403  0.2679 -0.1915  0.0279
15804W        W58795   4.407   4.117   1.526  0.2685 -0.1671 -0.4799
15805W        W58796  31.356   0.760  15.136  0.1830  0.0487  0.1478
15806W        W58797  31.014   6.662   4.415  0.0958  0.2353  0.1292
15807W        W58798   9.402  23.031   1.302 -0.0093  0.0928 -0.1841
15808W        W58799  29.203   6.151   7.260 -0.0655 -0.1287  0.4636
15809W        W58800  33.943  26.290   4.304 -0.0552  0.1399  0.1546
15810W        W58801  23.754   6.108  14.375  0.1156 -0.2441  0.0773
15811W        W58802  28.547  33.021  17.256 -0.1897  0.1237  0.0665
15812W        W58803  29.802  17.753   6.663  0.4719 -0.1929  0.2354
15813W        W58804  12.470   8.526  15.235 -0.2007 -0.0574 -0.1589
15814W        W58805  33.058  14.054  24.535  0.2561 -0.0185  0.0366
15815W        W58806  25.096  15.551  20.827 -0.0367 -0.1755 -0.2875
15816W        W58807  24.997   2.380  25.486  0.0012  0.0719  0.1258
15817W        W58808  19.210  11.259   0.059 -0.0018  0.0423 -0.2079
15818W        W58809   5.146  29.509   0.148  0.6332 -0.2463 -0.0104
15819W        W58810  15.503  25.620  13.783  0.2522 -0.1469 -0.0233
15820W        W58811  25.880  27.684  13.936 -0.0213 -0.2333 -0.0396
15821W        W58812   3.577   3.487   9.833 -0.2029 -0.0286 -0.0180
15822W        W58813  22.399  24.864  19.132 -0.0304 -0.0627 -0.3241
15823W        W58814  21.039  27.753  24.428  0.0415  0.5971  0.2351
15824W        W58815   6.324  15.324  28.777 -0.0789 -0.2673 -0.0962
15825W        W58816  28.253   4.006  26.547  0.2029 -0.2290  0.3113
15826W        W58817   2.449   6.053  28.186 -0.0169 -0.1082  0.2449
15827W        W58818  18.129  22.099  29.014 -0.1224 -0.1789  0.1382
15828W        W58819  33.487  33.183   2.497 -0.0805  0.3276  0.1001
15829W        W58820  27.106  13.035  28.450 -0.1849  0.0381 -0.0943
15830W        W58821  34.507   8.282   9.465 -0.2168  0.4584 -0.3403
15831W        W58822  26.233  33.895  20.772 -0.2132  0.1470  0.1523
15832W        W58823   1.214  29.633  20.746  0.2086 -0.0153 -0.2966
15833W        W58824  22.328  30.655  21.672 -0.0510 -0.1561  0.0629
15834W        W58825   9.902   8.527   2.061  0.0082 -0.3768 -0.1910
15835W        W58826   2.626  34.761  22.340  0.1327  0.1405 -0.0087
15836W        W58827  26.293   2.011   4.609 -0.1933  0.1153 -0.0466
15837W        W58828  30.249  13.224   9.246  0.0403  0.1823 -0.0423
15838W        W58829  28.626   0.594  16.074  0.0691 -0.3246  0.0033
15839W        W58830  30.046   9.610  14.754 -0.1842  0.0025 -0.2007
15840W        W58831  20.102  34.499  26.033  0.1581 -0.0344  0.2926
15841W        W58832  31.604   9.639  17.500 -0.1094  0.1177  0.2407
15842W        W58833   1.617  27.863  17.868 -0.1927  0.0167  0.0520
15843W        W58834   0.552  16.280  18.444  0.0372 -0.1008 -0.0362
15844W        W58835  16.433   6.794   1.364  0.1677  0.0390  0.2325
15845W        W58836  20.012   5.669  29.121  0.1514 -0.1630 -0.1223
15846W        W58837  27.920  13.101  10.162 -0.0756  0.0700 -0.0140
15847W        W58838  18.148   7.087  17.721 -0.0927  0.2274  0.0842
15848W        W58839  32.402  30.517   8.585 -0.0738 -0.0316  0.2131
15849W        W58840  16.872  34.044  23.661  0.0637  0.0316 -0.0830
15850W        W58841   1.746  20.440  27.558 -0.3865  0.0624  0.1859
15851W        W58842  15.999  14.739   8.193  0.0686  0.2758 -0.1398
15852W        W58843  28.497  28.835  16.922  0.0367  0.1359 -0.0509
15853W        W58844  23.764  18.129  23.489 -0.0439 -0.2534  0.0576
15854W        W58845  33.348  24.665  24.084 -0.0173  0.1995 -0.0312
15855W        W58846   1.562  27.871  27.692  0.3074  0.2540 -0.5354
15856W        W58847  23.707  22.208  28.721  0.1324  0.0120 -0.0473
15857W        W58848   0.275  28.762   3.436 -0.0802  0.3349 -0.0181
15858W        W58849  11.563  14.514   9.076 -0.1719 -0.0905 -0.0387
15859W        W58850  32.893  17.327  16.766  0.0423  0.0474 -0.0784
15860W        W58851  32.418   7.860  27.573  0.1926 -0.0601  0.0585
15861W        W58852  23.465  32.382   9.571 -0.0859 -0.1264 -0.2106
15862W        W58853  25.080  11.774   5.843 -0.0005 -0.1003 -0.1316
15863W        W58854  28.282   5.030  16.482 -0.1487 -0.2378 -0.2848
15864W        W58855  20.948  30.768  19.990  0.0973  0.6091  0.0101
15865W        W58856   2.091   6.082  18.162  0.1360 -0.0848 -0.1245
15866W        W58857  32.170  25.678  22.323  0.3514  0.1650  0.2812
15867W        W58858  30.856   7.601   6.894 -0.0464  0.1905  0.2099
15868W        W58859  31.790  25.632  19.719  0.2292 -0.1506  0.0645
15869W        W58860  12.597  18.614  24.889  0.2904 -0.2848 -0.0892
15870W        W58861   7.273  30.370  28.990 -0.0620 -0.0340  0.2254
15871W        W58862   0.214  31.309   7.824  0.2378 -0.3574  0.1133
15872W        W58863  30.288  24.576  23.854 -0.1192 -0.0320 -0.1583
15873W        W58864  14.469  15.240  26.380 -0.0506  0.1353  0.2871
15874W        W58865  31.601   0.984  25.243  0.0643 -0.2124 -0.1534
15875W        W58866  15.349  33.772   8.435 -0.3430 -0.3495 -0.3249
15876W        W58867   0.231   8.940  21.584  0.0021  0.4786  0.2130
15877W        W58868   1.079  32.557  28.428  0.0007 -0.0363  0.0408
15878W        W58869  32.665   3.920   1.214 -0.3248  0.2123 -0.1168
15879W        W58870  24.040  33.607   5.389 -0.4093  0.0611 -0.2748
15880W        W58871  33.795   4.311  26.749 -0.0286 -0.1697 -0.2546
15881W        W58872  20.462   8.328   4.527 -0.2627 -0.1821  0.3540
15882W        W58873  30.563  33.914   6.151  0.1406 -0.0280 -0.0728
15883W        W58874  25.858  18.549  23.986 -0.0823 -0.0088 -0.3077
15884W        W58875  34.480  17.013  10.735  0.0003 -0.2732 -0.0131
15885W        W58876  21.431  30.940   2.603 -0.0514  0.0797  0.1981
15886W        W58877   5.337  25.895   6.221  0.0093 -0.2282  0.0223
15887W        W58878  27.388   2.876  23.794  0.0914  0.1015 -0.1250
15888W        W58879   3.359   9.909   7.019 -0.0546  0.0862 -0.0045
15889W        W58880  16.326   9.304  14.706  0.1945 -0.2622 -0.3840
15890W        W58881  32.382  27.089   8.916  0.2887  0.0787  0.0222
15891W        W58882  33.855  13.019  28.386 -0.1197  0.0433 -0.1256
15892W        W58883  17.012  21.712  21.430  0.0081  0.6751 -0.2596
15893W        W58884  19.637   6.740  19.925 -0.1025  0.2046  0.3271
15894W        W58885  28.193   5.790   6.259 -0.1613  0.2764  0.2523
15895W        W58886  20.532  26.891   7.576 -0.0793  0.1909 -0.1700
15896W        W58887  23.553  30.724  25.581 -0.1057 -0.1832  0.0032
15897W        W58888  32.012  27.837  26.018  0.1837 -0.2349 -0.5272
15898W        W58889  31.930  28.564  22.083  0.0881  0.0737 -0.1598
15899W        W58890  34.129  22.291  23.791  0.1065 -0.0977 -0.2127
15900W        W58891  34.420   7.790   0.290 -0.0842  0.0914  0.2616
15901W        W58892   7.503   4.236  14.499  0.1405  0.1892 -0.0037
15902W        W58893  20.304   7.598  26.423  0.1765  0.0646 -0.0558
15903W        W58894  13.238   6.191   1.868  0.1662 -0.3029  0.2602
15904W        W58895  15.225  24.496  19.957 -0.1104  0.1135  0.0889
15905W        W58896  32.491   8.695   7.152  0.0661  0.0303 -0.0742
15906W        W58897  29.723  32.914  24.229 -0.0753  0.1723  0.3167
15907W        W58898  20.869  22.259  26.338 -0.1222  0.3427  0.3423
15908W        W58899  31.426  12.950  28.236  0.2087  0.0912  0.1419
15909W        W58900  33.379   3.460  19.707 -0.0757 -0.1457  0.3861
15910W        W58901  19.337  19.082   8.829 -0.1508 -0.2004 -0.0223
15911W        W58902  16.381   4.169   1.885 -0.0929  0.0463 -0.2659
15912W        W58903  23.716  33.726  21.550 -0.1786  0.3939 -0.0907
15913W        W58904  26.084  29.358  29.174  0.1761  0.0323 -0.2046
15914W        W58905  32.257  12.028   2.390  0.0181  0.0877 -0.1863
15915W        W58906   0.207   4.571  28.272  0.3318  0.3039  0.3441
15916W        W58907  23.003  10.911   7.774  0.2866 -0.0839  0.1679
15917W        W58908  18.633   6.611  16.964  0.0459  0.1465 -0.2514
15918W        W58909  25.410  20.213  17.573 -0.0541 -0.1445  0.0778
15919W        W58910  27.416  22.765  27.332 -0.0382 -0.2814 -0.1836
15920W        W58911   0.176   5.042  28.454  0.1095  0.0136  0.2473
15921W        W58912  26.746  12.355   7.204  0.4039 -0.0110 -0.0049
15922W        W58913  12.713   6.257  17.147  0.2530 -0.1181  0.1048
15923W        W58914  26.338   2.987  28.830  0.0269  0.3448  0.2040
15924W        W58915  19.314  20.526  26.948  0.1837 -0.2729  0.1252
15925W        W58916  18.356  25.391   4.671  0.0786 -0.2318  0.2576
15926W        W58917  15.135   3.788   5.724 -0.2291 -0.1361 -0.4663
15927W        W58918  11.021  24.857   2.417  0.0271 -0.2650  0.0689
15928W        W58919   6.614   3.861  27.305  0.0439  0.0946  0.0593
15929W        W58920   2.775   9.157   7.851  0.1370 -0.0686  0.1237
15930W        W58921  28.546  34.039  23.513  0.3130  0.2402  0.0142
15931W        W58922  14.528  27.700  26.040 -0.3116  0.0871 -0.1110
15932W        W58923  31.073   0.548  13.547 -0.0416 -0.0974  0.1721
15933W        W58924  31.611  14.036  26.884  0.1639  0.0427 -0.1493
15934W        W58925  26.709  15.279   9.469 -0.0028  0.0448 -0.0137
15935W        W58926  19.963  32.198  27.327  0.0477  0.0511  0.1277
15936W        W58927  19.061  25.863  23.757  0.2544 -0.2484 -0.1451
15937W        W58928   4.310   7.736  28.397  0.0836 -0.0461 -0.1898
15938W        W58929  23.415   3.098  29.160  0.4347 -0.0120  0.3300
15939W        W58930  10.852   8.929   1.146 -0.0470 -0.0574  0.2482
15940W        W58931   2.551  10.773   7.291  0.3070  0.5505  0.2549
15941W        W58932  28.211  22.218  22.726 -0.1702  0.0211  0.1648
15942W        W58933  22.465  11.088  10.003 -0.1565  0.1435 -0.1544
15943W        W58934  26.538  11.733   4.318  0.2299 -0.1416  0.0705
15944W        W58935  21.354  14.392  25.531 -0.2007 -0.1029 -0.0539
15945W        W58936  19.486   4.158   9.046  0.0203 -0.1641 -0.3951
15946W        W58937   4.569  11.384  21.291  0.1912 -0.1536  0.0361
15947W        W58938   1.405   1.106  17.314 -0.1404  0.1198  0.0595
15948W        W58939   5.761   7.225   5.545  0.0272  0.0398  0.1067
15949W        W58940  33.022  28.815  16.281  0.0058 -0.3038  0.0486
15950W        W58941  24.148  29.313  23.005  0.2169 -0.0360  0.0779
15951W        W58942   7.903   8.288   1.106 -0.2605  0.2454 -0.3035
15952W        W58943  33.767   7.897   2.571 -0.1753  0.0227  0.4540
15953W        W58944   9.224  10.818  10.755  0.0378 -0.1933 -0.1802
15954W        W58945  33.221  33.220  27.851  0.1848  0.1536  0.1197
15955W        W58946  19.172  11.569   6.865  0.0545 -0.4325 -0.2325
15956W        W58947  10.108   0.715   8.479  0.0127  0.0258  0.0352
15957W        W58948   2.289   3.453  16.256  0.3602 -0.5147 -0.1057
15958W        W58949  15.060   4.689  27.855 -0.2105 -0.1226 -0.2073
15959W        W58950   4.491  26.596   6.214 -0.1319 -0.1010  0.1224
15960W        W58951  13.045   6.337   6.363  0.3759 -0.2384  0.2325
15961W        W58952  28.593  30.243   2.453 -0.1956  0.0059 -0.0591
15962W        W58953  16.935  33.569   1.053  0.0851 -0.2992  0.2391
15963W        W58954  27.676  13.715   9.949  0.2171 -0.0428  0.0518
15964W        W58955  29.549   3.283   6.484  0.1911 -0.0094 -0.0659
15965W        W58956  20.046   6.627  22.134  0.0496 -0.2310 -0.0595
15966W        W58957  23.499  32.954  25.270  0.1539  0.1351  0.1616
15967W        W58958  26.707  18.000   1.599 -0.0972  0.2763 -0.2565
15968W        W58959  22.008   7.064   7.724 -0.1318  0.1264 -0.1071
15969W        W58960  27.584  27.622  21.670 -0.1398 -0.1517  0.0664
15970W        W58961   0.156  19.048  14.757  0.2080 -0.1153 -0.0639
15971W        W58962  34.509  15.829  21.135 -0.3212 -0.3257  0.0227
15972W        W58963  24.209   7.419   3.184  0.2186  0.2358  0.0841
15973W        W58964  25.534  27.227  14.912 -0.2758  0.1013  0.0497
15974W        W58965   6.253  10.714   6.045 -0.0874  0.3640 -0.3439
15975W        W58966  33.509  17.929  24.064 -0.0456 -0.2765 -0.3025
15976W        W58967  18.615   7.386  27.428  0.4112  0.2291 -0.2330
15977W        W58968  13.660   2.104  10.284  0.5356  0.2049 -0.0201
15978W        W58969  24.858  34.622   2.902  0.0084 -0.1484 -0.1294
15979W        W58970  25.553  27.169  26.403 -0.2679 -0.0133  0.2633
15980W        W58971  17.668   1.830  10.542  0.2061 -0.0427 -0.2681
15981W        W58972  20.256   5.732  18.240 -0.0154 -0.2603 -0.5794
15982W        W58973  20.290   1.129  19.880 -0.0392  0.1364  0.1134
15983W        W58974  26.427   8.235   5.630  0.1224  0.0735  0.1711
15984W        W58975  23.195  28.822   7.062  0.2222  0.1905 -0.0659
15985W        W58976  27.855  24.736  19.960  0.0800  0.0217  0.1131
15986W        W58977  27.017   2.217  22.685 -0.2941  0.0719 -0.1885
15987W        W58978   3.592   7.764  18.461 -0.0213 -0.2038  0.0756
15988W        W58979   5.544  22.220   8.695  0.0051  0.1805  0.3336
15989W        W58980  20.874   7.703  22.769  0.0268 -0.2131  0.0782
15990W        W58981  32.657  19.281  17.039 -0.0867 -0.2500 -0.2749
15991W        W58982  23.250   0.040  21.945  0.1181 -0.2345 -0.1002
15992W        W58983  29.251   6.761   3.351 -0.0439 -0.1436 -0.0692
15993W        W58984  30.113   2.461  13.598 -0.1647  0.3578 -0.0089
15994W        W58985  19.222   8.353  23.090 -0.0764  0.0326 -0.0015
15995W        W58986  29.022  16.410  14.921  0.0702 -0.0049 -0.0493
15996W        W58987   7.874   0.967  19.768 -0.2667  0.1268 -0.0004
15997W        W58988  21.841   8.408  14.016 -0.3024  0.1881  0.2700
15998W        W58989  23.095   5.633  23.740  0.0635 -0.1095 -0.4203
15999W        W58990  20.315   3.829   4.537 -0.0999 -0.1105 -0.1104
16000W        W58991  11.994  13.735  17.246  0.0723  0.2722 -0.2269
16001W        W58992  22.211   7.215  14.673  0.2492 -0.0227 -0.1173
16002W        W58993   4.987  11.637  26.120  0.0578 -0.0979  0.0915
16003W        W58994  17.623   5.690  21.965  0.2171 -0.0897  0.0432
16004W        W58995  23.211   4.710  16.606  0.0147  0.1066 -0.1037
16005W        W58996  20.747   8.109   2.293 -0.1596 -0.0254 -0.2014
16006W        W58997  22.845  20.367  11.983  0.0108  0.0570  0.2937
16007W        W58998  30.357  33.549   0.507  0.0998  0.0306 -0.3468
16008W        W58999  24.675  12.678  25.609  0.1987  0.1873 -0.0372
16009W        W59000  31.607  34.338  18.496  0.0070 -0.0855  0.1206
16010W        W59001  26.259   5.211  15.576 -0.1254  0.1879 -0.0855
16011W        W59002  29.756   4.155  17.422 -0.1194  0.0570  0.3697
16012W        W59003  15.444   5.332   6.565 -0.5603  0.2203  0.1917
16013W        W59004  24.034   5.197   5.811 -0.2467  0.0169  0.1581
16014W        W59005  32.949  12.425  18.877 -0.1359  0.2518  0.1856
16015W        W59006  27.641  13.133  18.619 -0.0611 -0.0356 -0.0807
16016W        W59007   4.347  14.571  20.667 -0.2351 -0.1689 -0.2112
16017W        W59008  25.597  29.345  27.404 -0.0756  0.1550  0.0489
16018W        W59009  16.439   8.452  19.282  0.5120  0.1422 -0.1174
16019W        W59010  33.386  31.603  17.560 -0.0050 -0.0535 -0.0166
16020W        W59011  22.719  17.695   2.999  0.0522  0.0755  0.2293
16021W        W59012   8.682  16.182   4.530 -0.5154 -0.1745  0.1511
16022W        W59013  26.853  15.876  27.684  0.1162 -0.0090  0.1432
16023W        W59014  24.780  13.957  28.526  0.0488 -0.1066 -0.0341
16024W        W59015   6.805  25.463   3.541  0.0207 -0.1212 -0.1058
16025W        W59016  25.574   1.492  17.464  0.0703  0.1890 -0.1222
16026W        W59017  24.804  16.401  18.698  0.1938  0.0204 -0.2281
16027W        W59018  22.338   8.241   0.858 -0.3662  0.2908  0.0888
16028W        W59019  25.956   8.822  14.625 -0.1426 -0.1604  0.2994
16029W        W59020  31.944  11.192  26.934  0.1810 -0.1929  0.1302
16030W        W59021  28.227  30.036  19.736 -0.0881 -0.0725 -0.0112
16031W        W59022  26.403   4.534  14.603 -0.0970  0.2448 -0.1287
16032W        W59023  34.634   5.812  22.440  0.0785  0.0631 -0.0894
16033W        W59024  23.878   1.224  16.226 -0.0524  0.0778  0.1899
16034W        W59025  27.846   2.404  20.846  0.0170  0.2606 -0.0674
16035W        W59026   2.344  22.935  17.596 -0.0032 -0.0668 -0.1235
16036W        W59027  32.651   0.283  21.561 -0.1602  0.0445  0.1407
16037W        W59028  24.808  20.709  17.226 -0.0481 -0.0800  0.0727
16038W        W59029  14.251  14.256  16.294 -0.0289  0.1408 -0.0301
16039W        W59030  33.086   3.202  21.472  0.4093  0.0371  0.2006
16040W        W59031  17.569  24.378  20.124 -0.1571  0.1710 -0.0769
16041W        W59032  33.308   9.866  25.439 -0.2325 -0.0602 -0.0470
16042W        W59033  12.948  33.899   2.142 -0.0179 -0.1357  0.2239
16043W        W59034  32.002   9.745  21.033 -0.2411 -0.1083  0.1456
16044W        W59035  34.721  22.313  13.678  0.1422  0.3820 -0.2797
16045W        W59036   8.344   3.120  16.730 -0.1198  0.1278 -0.2127
16046W        W59037  25.079  26.319  15.457  0.1752  0.1015  0.1887
16047W        W59038  11.717  15.758  15.441  0.2669  0.1758 -0.1171
16048W        W59039  15.458   3.589  17.691  0.2968 -0.1261  0.0793
16049W        W59040  11.717   4.848  19.569  0.1506 -0.1547 -0.2263
16050W        W59041  29.984  34.696  21.946 -0.1306  0.2070  0.1589
16051W        W59042  21.354  30.856  17.282  0.1316 -0.1756 -0.2751
16052W        W59043  16.046  29.948  18.259 -0.2722  0.0524  0.2540
16053W        W59044  31.167  32.637  15.909 -0.1157 -0.1533 -0.0205
16054W        W59045  29.356  22.436  21.210  0.0977  0.0539 -0.0587
16055W        W59046   0.492  10.234  16.131 -0.0282 -0.0239 -0.1273
16056W        W59047  10.501   1.534  22.061 -0.2472  0.0723  0.0262
16057W        W59048  20.625  25.404  23.009  0.0431  0.4615  0.0459
16058W        W59049  27.784  27.155  14.003  0.0086 -0.2885 -0.1004
16059W        W59050   7.833  27.982  17.430 -0.1599  0.0202  0.2658
16060W        W59051  24.994   0.871  23.758 -0.1140  0.1160 -0.0259
16061W        W59052  30.600   6.769  18.633  0.2302  0.0437  0.1551
16062W        W59053  25.047   7.414  23.695 -0.0956 -0.3829  0.0244
16063W        W59054  20.502  26.085  20.070 -0.1940  0.1441  0.0157
16064W        W59055  27.668   9.353  25.073 -0.1939  0.1280  0.0743
16065W        W59056  28.886  20.973   2.263 -0.0956  0.3279 -0.0656
16066W        W59057   9.038  16.932  22.211  0.1511  0.3439 -0.3130
16067W        W59058   0.644  31.159  21.936  0.3673  0.3404 -0.3753
16068W        W59059  15.822  30.501  22.831 -0.3339  0.1272  0.3763
16069W        W59060  30.779  15.274  17.685 -0.1088  0.2144  0.0854
16070W        W59061  14.221  10.748  15.974 -0.0166  0.5615 -0.1169
16071W        W59062  25.866  26.137   0.771  0.0041 -0.1685 -0.0616
16072W        W59063  21.766   9.326  14.027  0.2002  0.0539  0.3227
16073W        W59064  20.582   2.940   8.221 -0.1282  0.0786 -0.2571
16074W        W59065  16.156   6.269   1.019 -0.2565 -0.1988  0.2364
16075W        W59066  18.294   7.942   9.732  0.2375 -0.0003  0.1378
16076W        W59067   0.205  10.793  16.123  0.2740  0.2109  0.0871
16077W        W59068  15.041  13.155  17.760  0.0343 -0.0466 -0.0182
16078W        W59069  13.024   0.623  17.027  0.1816  0.1569  0.0442
16079W        W59070  25.146  32.974  24.711 -0.1077  0.2268 -0.1251
16080W        W59071  27.055  28.555  25.361 -0.0535  0.1845  0.2322
16081W        W59072  31.277  10.464  23.789 -0.4133  0.1805 -0.0366
16082W        W59073  33.572  12.093  19.201 -0.0817  0.0225  0.0445
16083W        W59074  20.848   7.446  17.520 -0.0292 -0.0992 -0.1559
16084W        W59075  31.542   8.173  13.961 -0.1811  0.0893 -0.1005
16085W        W59076  12.029  28.846  17.730 -0.1546 -0.2935 -0.2335
16086W        W59077   1.036  23.936  28.575  0.1531  0.0034 -0.3271
16087W        W59078  14.648  28.662  21.979  0.0756 -0.3767 -0.1953
16088W        W59079  13.833   3.454  23.836 -0.4037  0.6186 -0.2601
16089W        W59080  28.667  15.313   8.989  0.0762  0.0957 -0.2182
16090W        W59081  11.219   2.522  18.569 -0.1834  0.4930  0.4600
16091W        W59082  10.423  33.223   4.531  0.2615  0.2080 -0.1517
16092W        W59083  30.159   8.354  22.910  0.3431 -0.1897  0.1091
16093W        W59084  13.858   2.432   6.523 -0.0164 -0.1063 -0.2813
16094W        W59085  23.954   9.158  15.995 -0.4033  0.1896  0.1820
16095W        W59086  28.860  18.970  24.010 -0.0267 -0.2829 -0.0768
16096W        W59087  11.460   7.884  25.212 -0.0142  0.2232  0.2044
16097W        W59088  30.158   3.304  19.346 -0.0391 -0.1351  0.0465
16098W        W59089  23.171   3.909   0.366 -0.0108 -0.1414 -0.1657
16099W        W59090  28.321  18.540  21.190 -0.1134  0.0407 -0.0207
16100W        W59091  14.499  10.518  23.488  0.3603  0.0698  0.0235
16101W        W59092  24.215  24.788  25.087 -0.4831  0.0937  0.1732
16102W        W59093  26.954   2.277  20.446 -0.1084 -0.6126 -0.2072
16103W        W59094  28.520  13.176  25.912  0.0771 -0.1958 -0.0747
16104W        W59095  26.071   6.746  25.091 -0.4851 -0.4260 -0.1974
16105W        W59096  13.124   1.451  20.615 -0.0658 -0.0406  0.1263
16106W        W59097  33.434   5.539  23.995  0.0332 -0.0371 -0.0406
16107W        W59098   5.117   7.825  27.773 -0.3674 -0.1907  0.1995
16108W        W59099  18.521  12.955  17.225  0.0282 -0.0009 -0.0352
16109W        W59100  22.099   1.321  23.777 -0.0424 -0.2520 -0.2233
16110W        W59101  14.140   0.889   2.520 -0.2526  0.2938 -0.0929
16111W        W59102  30.174  16.407  23.735  0.1939 -0.1440  0.0220
16112W        W59103  21.694  10.549  21.018 -0.1307 -0.1759  0.1349
16113W        W59104  25.140   3.837  14.023  0.1372  0.1685  0.0998
16114W        W59105  20.120  10.251  20.222  0.3801  0.1148  0.2134
16115W        W59106  10.396  12.943   4.558  0.0770 -0.1145  0.3423
16116W        W59107   2.033  31.033  16.869 -0.3249  0.0096  0.2157
16117W        W59108  17.719  12.430  27.958 -0.2927 -0.1693  0.0245
16118W        W59109  31.895   2.835   6.515 -0.1334  0.1898  0.3096
16119W        W59110  16.801   6.452  20.695  0.1658  0.0173  0.0752
16120W        W59111  24.461  29.684  24.799 -0.0006  0.0491 -0.1036
16121W        W59112   2.047  32.900   3.828  0.0688 -0.1753  0.0436
16122W        W59113  27.281  32.582  15.025 -0.2333  0.1306  0.1196
16123W        W59114   6.470  10.795  25.792 -0.1855 -0.0113  0.0869
16124W        W59115  20.598   0.386  16.484 -0.2607  0.1272 -0.0266
16125W        W59116  21.583  20.435  20.277  0.0256  0.1190 -0.2417
16126W        W59117  11.978  16.322  22.279 -0.0012 -0.0024  0.1227
16127W        W59118  22.168  27.834  17.544  0.3085 -0.0371 -0.0915
16128W        W59119  32.383  11.619   0.258  0.1318 -0.0825 -0.0740
16129W        W59120  23.203   1.369   3.177 -0.1844 -0.1843  0.1222
16130W        W59121  22.134  16.144   4.885 -0.0576  0.0018  0.1579
16131W        W59122  26.462   5.369  27.453  0.2094 -0.1127 -0.1017
16132W        W59123  25.848  29.298   8.328 -0.0257 -0.0914  0.0148
16133W        W59124  28.305  14.343  23.145 -0.0108  0.3458 -0.3629
16134W        W59125  32.154   9.264  18.464 -0.2686  0.3613 -0.2223
16135W        W59126  15.344  16.443  12.967 -0.0958 -0.0521 -0.0682
16136W        W59127  18.562  10.896  25.103  0.0878  0.1962 -0.0509
16137W        W59128  17.771  33.217  20.283 -0.1210  0.1731 -0.1426
16138W        W59129  29.341  18.169  18.057 -0.0101 -0.1071 -0.1336
16139W        W59130  26.011   3.188  18.152  0.1205 -0.0408  0.1852
16140W        W59131  16.956   4.224  22.023  0.0474 -0.1124  0.0698
16141W        W59132  19.104  16.637  13.526  0.0028  0.0674 -0.0991
16142W        W59133  26.198  30.847  16.376 -0.1157 -0.2772  0.0249
16143W        W59134  25.604  13.818  21.481 -0.1257  0.1514 -0.0241
16144W        W59135  11.499  14.566  17.041 -0.0412  0.1943  0.0999
16145W        W59136  29.107   5.192  21.637 -0.2004  0.3372  0.2213
16146W        W59137  31.729  30.941  20.077 -0.0907  0.0119  0.2500
16147W        W59138  32.167   3.499  15.177  0.3033  0.1063  0.0918
16148W        W59139   0.724  10.556  14.970 -0.0688 -0.0336 -0.5974
16149W        W59140  17.747  14.406  13.301  0.3249  0.1068  0.1857
16150W        W59141  24.567  24.697  13.972  0.2365 -0.1356  0.0116
16151W        W59142  31.370  14.840  24.231 -0.2672 -0.0180  0.1171
16152W        W59143  10.621  22.634  18.491  0.2460  0.4785  0.0777
16153W        W59144  19.498  28.326  16.580  0.0434 -0.0611 -0.0122
16154W        W59145  30.655   2.041  16.366  0.4116  0.1974 -0.0927
16155W        W59146  31.944   1.478  17.469 -0.0914  0.0514 -0.0764
16156W        W59147   8.888  33.046   1.239  0.1042 -0.1417 -0.1526
16157W        W59148  13.271   0.784  19.244  0.1335  0.1004 -0.0722
16158W        W59149  26.918  20.187  23.968  0.0121 -0.1268  0.1524
16159W        W59150  26.102   6.119  16.803  0.2317  0.1253 -0.4216
16160W        W59151   3.165   3.058  19.025 -0.2176  0.0244  0.2176
16161W        W59152   3.685   4.369  20.283 -0.0414 -0.0399 -0.0129
16162W        W59153  24.852   3.412  20.354  0.1927 -0.1266  0.0293
16163W        W59154  18.897  29.122   0.662  0.3157  0.1304  0.0264
16164W        W59155  28.238  11.891  20.390 -0.1807 -0.3486 -0.1085
16165W        W59156  17.819  10.687  27.675  0.0810  0.1611 -0.0088
16166W        W59157  18.304  12.133   6.585  0.1525 -0.1793  0.0698
16167W        W59158  13.479  15.561  20.575 -0.3245  0.0468  0.3608
16168W        W59159  20.927   2.383  21.107 -0.0294 -0.2165 -0.0534
16169W        W59160   3.185   1.787  21.638  0.0381  0.2689 -0.1124
16170W        W59161  29.640  32.363  21.810 -0.0270 -0.0726 -0.1692
16171W        W59162  12.408   2.121  26.633 -0.2359 -0.3154  0.0986
16172W        W59163  23.940   3.155  14.250 -0.2254  0.2093 -0.1252
16173W        W59164  22.478   5.446  23.157  0.3649 -0.1175  0.0894
16174W        W59165  14.326   0.037  16.520  0.0487 -0.1444 -0.3896
16175W        W59166   8.086  32.931  19.912  0.1786  0.0178 -0.4995
16176W        W59167  27.645  33.156  19.787  0.1393  0.1118 -0.0185
16177W        W59168  24.712  11.549  16.620 -0.1288 -0.0828  0.1540
16178W        W59169  14.395  16.301  15.212  0.2221  0.2085  0.2538
16179W        W59170  29.180   7.194  18.678  0.1933 -0.3321 -0.4569
16180W        W59171  19.680  10.304  17.020 -0.2530 -0.1664 -0.0386
16181W        W59172  26.071   2.405  14.976  0.0282 -0.1950 -0.0802
16182W        W59173   3.066   0.142  21.150  0.0565  0.1339  0.4065
16183W        W59174   1.965   0.926   0.445 -0.0016 -0.1573 -0.3119
16184W        W59175  28.784   2.708  24.547 -0.3592 -0.2290  0.1575
16185W        W59176  30.909   9.085  16.663 -0.3512  0.2281  0.1912
16186W        W59177   2.579   6.355  20.509  0.0062  0.1670 -0.2824
16187W        W59178  34.579   1.955   5.161 -0.1108  0.0332  0.1471
16188W        W59179   0.902  26.753  25.966 -0.0704  0.4351  0.0937
16189W        W59180   1.032  20.299  22.715  0.0393 -0.2010 -0.1667
16190W        W59181  32.200  34.578  19.241  0.2309  0.2531 -0.1892
16191W        W59182  19.013  31.769  20.424  0.0273 -0.1199 -0.6878
16192W        W59183  31.314  30.517  18.796  0.0189  0.1333  0.0772
16193W        W59184  19.129  33.516  22.523 -0.1070 -0.0613 -0.0813
16194W        W59185  28.093  31.862  22.816 -0.0658 -0.1067  0.0024
16195W        W59186  18.988   8.975  13.368  0.0543 -0.0859  0.3022
16196W        W59187  29.609  19.239  23.276  0.1638  0.2917 -0.0298
16197W        W59188  32.409   0.625  13.944 -0.0995  0.0526  0.3336
16198W        W59189  13.428  10.514  16.485 -0.1544 -0.1057  0.0285
16199W        W59190  22.286  11.608  21.459  0.2494  0.1358  0.2821
16200W        W59191  19.134  22.621  21.975  0.0675 -0.1748 -0.0239
16201W        W59192  25.285   5.414  18.449  0.2811  0.2925 -0.0698
16202W        W59193   0.089  30.995  21.636 -0.1050  0.0538  0.0431
16203W        W59194   1.791   4.256  21.048 -0.3295  0.0140  0.0173
16204W        W59195  24.673   4.691  28.077  0.1825  0.6150 -0.2384
16205W        W59196  12.613  17.870  21.241  0.1026  0.2407 -0.5287
16206W        W59197  30.114  16.651  20.581  0.1434 -0.1694 -0.0940
16207W        W59198   2.081  32.181  23.375 -0.1020  0.2361  0.0033
16208W        W59199   7.797   1.485  17.551 -0.2393 -0.1026  0.0111
16209W        W59200  16.909  13.392  24.262  0.0149 -0.1586  0.0952
16210W        W59201  26.930  18.691  20.154 -0.0163 -0.1884  0.1465
16211W        W59202  13.109   2.920   1.010 -0.3217  0.1958  0.0870
16212W        W59203  33.536  12.029  16.474  0.0072 -0.0264 -0.2013
16213W        W59204   2.786   3.981  15.839 -0.2996  0.2478 -0.0155
16214W        W59205  29.790  18.930  16.400  0.2061  0.1809 -0.1647
16215W        W59206  28.411  32.887   0.612 -0.1295 -0.0458  0.0944
16216W        W59207   1.699  17.067  25.249  0.1724 -0.1190 -0.1891
16217W        W59208  33.581  28.654  15.330  0.3825 -0.4236  0.1260
16218W        W59209  28.819  20.378  14.895 -0.1999  0.1163  0.3395
16219W        W59210   0.850  27.655  28.181  0.2675 -0.0606 -0.1894
16220W        W59211  27.659   8.471  29.181 -0.1915 -0.2136  0.2399
16221W        W59212  24.782   3.983   2.347  0.0020 -0.3284 -0.0665
16222W        W59213   1.755  10.453  18.685  0.0018  0.0489  0.1110
16223W        W59214  13.118   6.562  26.608 -0.1032  0.0256  0.1233
16224W        W59215  27.037  22.309   6.636 -0.0966 -0.0347 -0.3007
16225W        W59216  28.493  13.006  18.541  0.1688 -0.1034 -0.0275
16226W        W59217  30.171  29.863  19.988  0.0738 -0.3971  0.3239
16227W        W59218   5.826   5.160  23.524  0.0704  0.0763 -0.1038
16228W        W59219  12.504  19.323  26.583 -0.1132 -0.4613  0.0336
16229W        W59220  25.339  25.470  15.216  0.1521  0.2350  0.2695
16230W        W59221  23.799   7.909  20.942 -0.1401  0.2594 -0.1088
16231W        W59222  28.612  34.284  25.343  0.1484  0.0809  0.2048
16232W        W59223  21.927  12.290  17.399 -0.1538 -0.1909  0.2059
16233W        W59224  24.423  13.266   0.510  0.1101  0.2182  0.0785
16234W        W59225  25.173   5.458  16.091 -0.2962  0.3185  0.1014
16235W        W59226   1.416   3.456  25.416 -0.1441  0.1054 -0.1560
16236W        W59227   4.368  21.088  19.595 -0.2666 -0.1159  0.1594
16237W        W59228  22.637  22.576  25.049  0.0056  0.0888  0.0038
16238W        W59229  28.259  14.984  21.198 -0.0890  0.1611 -0.1492
16239W        W59230  29.485  20.427  17.651 -0.0583 -0.1143  0.0330
16240W        W59231  24.086   7.586   1.537  0.1208 -0.1194 -0.1044
16241W        W59232  34.103   9.558  16.797  0.2975  0.2270  0.1345
16242W        W59233  20.001   2.085  20.754 -0.0452 -0.0531  0.0327
16243W        W59234   9.024  23.897  22.961  0.3222  0.0224  0.1205
16244W        W59235  18.703  33.118  18.411  0.1750 -0.0702 -0.0992
16245W        W59236  31.232  25.264  19.013  0.0811  0.2987 -0.0385
16246W        W59237  19.173  27.015  18.590  0.0751 -0.2117 -0.2286
16247W        W59238  29.000  31.831  15.651  0.0077  0.0252 -0.0603
16248W        W59239   3.307   5.331  24.047  0.0727  0.0601 -0.3549
16249W        W59240  23.723  14.464  16.725  0.0066  0.0532 -0.0191
16250W        W59241   3.997  34.546  27.689  0.0592 -0.0479  0.4861
16251W        W59242  25.098  13.774  19.960 -0.0216  0.0394 -0.4166
16252W        W59243  13.186   7.632  26.721  0.3113 -0.1411  0.0024
16253W        W59244  27.535  15.486  23.316 -0.2405 -0.0300  0.1176
16254W        W59245  27.367  15.716  26.670  0.1803 -0.1295 -0.4122
16255W        W59246   0.444  33.210  23.440 -0.1660  0.1229  0.3223
16256W        W59247  23.824   6.388  16.816  0.2233  0.1459  0.0334
16257W        W59248  30.412  28.885  26.893  0.0561 -0.3019  0.0199
16258W        W59249   4.163  15.786  28.400 -0.2577  0.1963 -0.1787
16259W        W59250   5.898   4.095  24.193 -0.2481  0.0721 -0.2774
16260W        W59251  26.312  14.612  14.336 -0.2346 -0.3795  0.0281
16261W        W59252  25.340   7.391  17.162 -0.1450 -0.0318 -0.0755
16262W        W59253  22.797  21.050   1.657 -0.1865 -0.2253 -0.1571
16263W        W59254  27.148   6.653  13.827 -0.0979 -0.0740  0.1151
16264W        W59255  28.228  33.760  28.425  0.1081 -0.2542 -0.2039
16265W        W59256  29.976   4.286  23.710  0.3337  0.1373 -0.0612
16266W        W59257  27.618   2.532  18.829 -0.1211 -0.0010  0.2312
16267W        W59258  16.082  29.000  26.551  0.1539 -0.3375 -0.3047
16268W        W59259  32.463  16.683  20.873  0.2821  0.0151  0.1142
16269W        W59260  34.249   6.160  15.609  0.2126 -0.1151 -0.2089
16270W        W59261  17.093  22.336  21.630 -0.1104 -0.2447  0.1413
16271W        W59262  34.260   2.082  20.325 -0.0575  0.1414 -0.2378
16272W        W59263  26.276   8.317  23.753  0.0936  0.2543 -0.0884
16273W        W59264  29.698  12.125  22.166 -0.1402 -0.1886 -0.1080
16274W        W59265   4.579  29.768  14.044  0.5221 -0.0300  0.2461
16275W        W59266  25.971  12.209  17.298  0.2288 -0.0150 -0.1798
16276W        W59267  33.698   5.403  15.872  0.1241  0.2095 -0.1524
16277W        W59268  25.474  27.374  25.702 -0.2544  0.1124  0.1921
16278W        W59269  27.748  21.999  19.437  0.2036 -0.0959  0.3237
16279W        W59270  29.275   4.413  20.800  0.2970  0.0802 -0.2830
16280W        W59271  26.098  14.007  16.038  0.1455  0.0893  0.0480
16281W        W59272  24.021  29.367  13.659  0.0374 -0.3067  0.3158
16282W        W59273  25.376   7.806  19.643  0.2923 -0.1662 -0.0355
16283W        W59274  21.914  22.452  23.039 -0.0491  0.0312 -0.0493
16284W        W59275  26.894  11.266  19.908 -0.1041 -0.0798  0.1439
16285W        W59276  25.742   7.550  18.837  0.0146  0.0325  0.1976
16286W        W59277   3.228  33.010  17.424 -0.2723 -0.4424  0.1182
16287W        W59278   0.959   6.324  21.484  0.0677  0.2374  0.0628
16288W        W59279  34.588   1.593  26.949 -0.0723 -0.1706  0.0985
16289W        W59280  25.960   5.669  15.778  0.1523  0.0627 -0.1715
16290W        W59281  23.474  11.095  17.665 -0.1864 -0.1362 -0.0346
16291W        W59282  23.211  26.723   2.437  0.2276  0.0035  0.1027
16292W        W59283   2.594   0.695  16.706  0.0786 -0.2605  0.1896
16293W        W59284  32.127  27.311  21.498  0.0938  0.0503 -0.2876
16294W        W59285  25.455  33.062  14.405 -0.0876  0.1397  0.0949
16295W        W59286  28.444   9.628   1.550  0.2181  0.1676 -0.3869
16296W        W59287  29.066   1.027  19.933 -0.0430 -0.0494 -0.0340
16297W        W59288  25.705   0.836  19.745  0.1058  0.0232 -0.0845
16298W        W59289  27.027   1.784  16.418  0.3566  0.2016 -0.0611
16299W        W59290  29.238  29.941  15.617 -0.0146  0.0397  0.1928
16300W        W59291  10.649  25.750  17.389 -0.3399  0.0124 -0.1265
16301W        W59292  24.556   0.414  21.649  0.3086  0.2008  0.1224
16302W        W59293  32.766  34.371  15.076  0.0759  0.2073  0.0197
16303W        W59294  18.768   0.802  14.792  0.0226  0.1327  0.0404
16304W        W59295   8.603   5.000   7.705 -0.1735 -0.1461  0.1594
16305W        W59296   8.728  15.790   1.794 -0.0865 -0.1151 -0.0961
16306W        W59297   2.604  14.358   4.230 -0.1954 -0.0747  0.2206
16307W        W59298  22.000   9.085  14.847  0.0541  0.0268 -0.4194
16308W        W59299  25.020   8.332  15.840 -0.0357  0.2895  0.0136
16309W        W59300  28.801  26.361  15.611  0.0262  0.2178 -0.0580
16310W        W59301  26.257  34.310  23.172  0.2833 -0.2968 -0.0301
16311W        W59302  30.819  10.658  23.495  0.0620  0.0306  0.0955
16312W        W59303  15.917  17.495  27.022  0.1441 -0.3359  0.0686
16313W        W59304  33.414  22.180  16.835  0.0214 -0.1387  0.0914
16314W        W59305  27.722  30.653   6.028 -0.1429  0.1429 -0.3748
16315W        W59306  21.877  11.161  26.358 -0.0011 -0.0931  0.2697
16316W        W59307  16.716  10.226  21.623 -0.0452  0.0789  0.2451
16317W        W59308  28.322  13.239  16.929  0.1689 -0.0550 -0.0113
16318W        W59309  34.329  16.668  20.950 -0.0221  0.3605  0.1902
16319W        W59310  28.452   2.990  27.051 -0.1927  0.2165 -0.0460
16320W        W59311   2.875  17.399  29.143 -0.1245 -0.0287  0.1626
16321W        W59312  25.455  30.229  18.993 -0.0104 -0.1250 -0.1114
16322W        W59313   9.003  13.452  24.856  0.2959 -0.1392 -0.1480
16323W        W59314  27.688  34.076  16.632  0.0760 -0.2784  0.0646
16324W        W59315   5.568  22.856  20.742 -0.1179  0.1973 -0.4016
16325W        W59316  23.424  11.576   4.944  0.1735  0.4145 -0.1467
16326W        W59317   1.837  29.715  15.703 -0.0289 -0.3187 -0.0771
16327W        W59318  22.796   3.458  20.264  0.0132  0.1341  0.0199
16328W        W59319  32.769  14.680  18.940  0.0472  0.0002  0.0796
16329W        W59320   4.355   8.361   7.513 -0.3498 -0.1125  0.0037
16330W        W59321  30.703   1.565  25.749 -0.1599 -0.1830 -0.2272
16331W        W59322  31.397   6.296  20.946 -0.2265  0.0362 -0.2097
16332W        W59323  31.708   4.541  21.194  0.0964  0.2081 -0.0733
16333W        W59324  24.074   5.838  15.965 -0.5244 -0.1219  0.1884
16334W        W59325  28.254  11.513  27.494  0.2568  0.0265  0.0963
16335W        W59326  13.064  17.751  16.031  0.0656  0.0935  0.0785
16336W        W59327  20.428  12.874  18.557 -0.0144  0.0429 -0.0279
16337W        W59328  18.579   1.624  19.734  0.1954 -0.2334 -0.0603
16338W        W59329  32.031   0.447  24.154  0.0360  0.2623  0.3150
16339W        W59330  13.117  14.064  16.643 -0.0059  0.0611  0.0254
16340W        W59331  29.808   0.441  24.167 -0.0119  0.0503  0.1098
16341W        W59332  19.693   8.667  17.885  0.2254  0.0589  0.0459
16342W        W59333   0.753   1.832  19.611  0.0117 -0.2686  0.0241
16343W        W59334  24.979   8.260  21.870  0.2307 -0.2295  0.2870
16344W        W59335  33.650  15.094  19.615  0.2574  0.1333  0.2337
16345W        W59336  16.652  23.301  17.768 -0.0451  0.1224  0.0251
16346W        W59337  19.380  34.235  18.500  0.0186  0.0708 -0.0305
16347W        W59338  24.338  12.594  23.639 -0.4729 -0.1440  0.1496
16348W        W59339   4.727  33.005  24.741  0.1218  0.0654  0.1336
16349W        W59340  25.082  29.447  16.930  0.0696  0.1501 -0.3130
16350W        W59341  32.727  30.796   3.071  0.1635 -0.2248  0.0220
16351W        W59342  27.365   5.574  20.806  0.1330  0.1940  0.1881
16352W        W59343  20.511  12.101   1.074 -0.0456 -0.3168  0.1427
16353W        W59344  30.992   6.529  27.005 -0.2086 -0.2514 -0.0847
16354W        W59345  26.072   4.367  22.738 -0.0244 -0.3016  0.1322
16355W        W59346  30.445  13.568  26.581 -0.2107  0.1762 -0.0370
16356W        W59347  28.297   6.883  24.448  0.3524  0.1752 -0.2225
16357W        W59348  31.701   2.433  28.630  0.0481 -0.0471 -0.2206
16358W        W59349  22.580  13.297  15.935 -0.3932  0.1486  0.1522
16359W        W59350  15.907   8.001   2.024 -0.1750  0.2068  0.1001
16360W        W59351  17.527   9.933  25.687  0.2728  0.1493 -0.0221
16361W        W59352   3.827  23.562   2.062  0.2589 -0.0941  0.1709
16362W        W59353  32.778   3.483  28.159 -0.1941  0.0931 -0.0317
16363W        W59354  15.905   3.536  26.022 -0.1547  0.0997  0.0624
16364W        W59355  16.082  14.842  21.532 -0.1400 -0.0769  0.1860
16365W        W59356  23.312  27.037  26.380 -0.3047  0.0700 -0.0500
16366W        W59357  19.864  34.529  15.525 -0.0300  0.1340  0.1154
16367W        W59358   3.094  20.695  25.434 -0.0653  0.3281  0.0678
16368W        W59359  30.885  28.786  23.565  0.1316 -0.0110  0.0852
16369W        W59360  18.109   8.702  25.229  0.2594 -0.1535 -0.1776
16370W        W59361  29.369   8.113  18.947  0.1855 -0.0174 -0.0320
16371W        W59362  16.661  28.444  21.098  0.1988  0.0706  0.2219
16372W        W59363  23.781   5.445  26.663  0.0261 -0.0113 -0.1918
16373W        W59364  26.848  16.654   4.820 -0.0226  0.3769 -0.0570
16374W        W59365  11.133   6.073   9.105 -0.1708  0.0076 -0.2360
16375W        W59366   4.979  12.762  16.367  0.1093 -0.3251  0.3488
16376W        W59367  21.621  34.453  16.243 -0.1778  0.4401  0.0906
16377W        W59368  22.960   6.885  18.970 -0.3157 -0.2210  0.1812
16378W        W59369  27.937  32.989  13.414  0.0105  0.0981  0.3198
16379W        W59370  25.801   3.870  20.253  0.0208  0.2716  0.0839
16380W        W59371   3.836  12.979  21.363  0.1139 -0.3775  0.0776
16381W        W59372   5.150  26.456  16.535 -0.0748 -0.0583 -0.1322
16382W        W59373  33.853  21.570  25.402 -0.1764  0.0830 -0.1231
16383W        W59374   6.589   7.283  22.823  0.1731 -0.1092 -0.0581
16384W        W59375  17.595  23.349  13.805  0.1567 -0.1758 -0.0728
16385W        W59376  18.784  23.164  17.096 -0.1980  0.0490  0.4072
16386W        W59377  29.818   0.407   7.421  0.0474  0.0328 -0.0266
16387W        W59378   2.696  29.094  27.090 -0.5719 -0.0511  0.0965
16388W        W59379  21.768  11.245  14.333  0.0278  0.0801 -0.3575
16389W        W59380   9.703  15.817  17.150  0.0268  0.1721 -0.0001
16390W        W59381  32.820   1.112  15.318 -0.0282  0.3495 -0.3194
16391W        W59382  15.355  19.579   0.473  0.1052  0.1692  0.0571
16392W        W59383   2.663  19.940   7.601 -0.1676 -0.0140 -0.1707
16393W        W59384  29.859  26.989  14.220 -0.0616  0.1280 -0.1971
16394W        W59385  26.933   8.683  22.415 -0.0955 -0.0778 -0.0542
16395W        W59386  18.985  15.385  20.252 -0.3173 -0.1456 -0.3411
16396W        W59387  28.207  29.813  15.988  0.0336  0.1450  0.2830
16397W        W59388  22.842  12.674  18.781 -0.2130 -0.4263 -0.1411
16398W        W59389  20.139   7.380  17.484  0.0289 -0.1130  0.3155
16399W        W59390  22.605   9.805  21.916  0.3778  0.1446  0.1222
16400W        W59391  28.680   4.928  15.455 -0.0867  0.0286  0.2105
16401W        W59392  28.834  14.907  27.389 -0.0481  0.1395  0.0174
16402W        W59393  27.534  13.859  24.273  0.2294  0.2288 -0.1636
16403W        W59394  18.558   5.577  18.776 -0.0759 -0.2007  0.5180
16404W        W59395  21.347   4.429   0.961 -0.1337 -0.0304 -0.1121
16405W        W59396  33.435   6.609  15.552  0.3175  0.0885 -0.1485
16406W        W59397  31.411  18.345  22.308  0.1135  0.1060 -0.0064
16407W        W59398   2.958   1.323  16.263  0.3200  0.2550  0.0004
16408W        W59399  33.073  31.393  15.591 -0.0988  0.0194  0.0725
16409W        W59400  27.572   1.773  14.474  0.3809 -0.0054 -0.1818
16410W        W59401  24.403   1.850  15.410 -0.1266 -0.2838  0.0519
16411W        W59402   3.370  33.836  21.255 -0.2144 -0.0621 -0.3245
16412W        W59403  27.605   3.338   5.976 -0.1922  0.1995 -0.1780
16413W        W59404  31.540  24.740  28.755 -0.0238  0.1537 -0.1279
16414W        W59405   0.057   2.750   5.999 -0.0014  0.0192  0.1329
16415W        W59406  33.872   8.731  21.029 -0.2743  0.0480 -0.3858
16416W        W59407   1.747   1.497   9.483 -0.0662  0.2314  0.0570
16417W        W59408  31.204   3.833  19.619  0.0709  0.0855  0.1645
16418W        W59409   4.054   8.637  24.566 -0.2492 -0.0335  0.1007
16419W        W59410  29.491   9.034   2.021 -0.1483  0.2209  0.3882
16420W        W59411   8.318   1.984  13.898  0.0601 -0.1866  0.0555
16421W        W59412  26.711   7.294  18.250  0.1995  0.0913  0.0767
16422W        W59413  26.258  28.457  20.229 -0.0023  0.1214 -0.1075
16423W        W59414   2.583  13.284  18.833  0.0318  0.2569 -0.0135
16424W        W59415  20.273  30.872  16.937 -0.2394 -0.3240  0.2613
16425W        W59416  16.422  23.737  28.974  0.1881 -0.0047 -0.1989
16426W        W59417  24.698  19.446  20.737  0.3339 -0.2134  0.0786
16427W        W59418  26.849  18.414  19.511 -0.4062 -0.2419  0.1103
16428W        W59419   1.207  11.931  16.384 -0.0684 -0.0647 -0.0273
16429W        W59420   3.821   3.393  26.184 -0.2188 -0.1185 -0.0050
16430W        W59421  34.246  12.316  22.209 -0.1626  0.3008 -0.1917
16431W        W59422  29.314  11.288  17.367  0.0578 -0.0294 -0.0730
16432W        W59423  11.845  33.255  17.624 -0.0679  0.0154 -0.0746
16433W        W59424  20.456   1.728   5.160  0.0518 -0.1412 -0.0275
16434W        W59425  23.686  13.103   2.077 -0.0362 -0.1063  0.4077
16435W        W59426   8.406  27.333   1.525 -0.0091  0.1482  0.0831
16436W        W59427  16.924  33.915  17.785 -0.0886  0.1584  0.0964
16437W        W59428  34.318  21.731   8.378 -0.4195  0.2233  0.5199
16438W        W59429  26.359  13.829  27.615  0.2259  0.1986 -0.4019
16439W        W59430   2.390  14.089  21.261 -0.0250  0.2345 -0.0436
16440W        W59431  32.520   0.822  15.668  0.0119  0.0531 -0.1804
16441W        W59432  31.611   5.265  20.898  0.0633 -0.1371  0.0760
16442W        W59433  13.606  34.279  19.414  0.0082  0.1802 -0.1312
16443W        W59434  26.862   1.683  25.445  0.1156 -0.0699  0.0359
16444W        W59435   3.401   7.403  25.021 -0.2195 -0.1814 -0.1063
16445W        W59436  23.812   0.508  21.040 -0.0984  0.0299 -0.0196
16446W        W59437  34.042  15.386   2.091  0.2007 -0.2728  0.4633
16447W        W59438  27.896   8.588  19.928 -0.3102 -0.0221 -0.1845
16448W        W59439  21.403  32.978   4.990  0.0572 -0.0225 -0.3144
16449W        W59440  17.347   7.015  23.966  0.0638  0.0009  0.0267
16450W        W59441  34.180  29.609   3.342  0.1295  0.0446 -0.1874
16451W        W59442  15.085   1.714  18.133 -0.1200  0.2113  0.1933
16452W        W59443  29.947  33.240   1.654 -0.1488  0.0313 -0.0146
16453W        W59444  12.675   4.346  17.884 -0.1254  0.2469  0.4701
16454W        W59445   0.626  16.354  28.722 -0.1776  0.1383  0.1652
16455W        W59446  33.945  11.468  27.820  0.0113  0.2040  0.1183
16456W        W59447  11.618  17.789  14.365 -0.0126  0.1132  0.0464
16457W        W59448  20.340   3.359  15.780 -0.1846 -0.2083  0.2673
16458W        W59449  21.379   1.844  18.900  0.0341  0.3798  0.0467
16459W        W59450  14.412   5.476  17.338 -0.1572 -0.1799  0.4956
16460W        W59451   0.670  31.876   6.718  0.0010 -0.1337  0.1901
16461W        W59452  25.883   6.501  27.254  0.1240 -0.1026 -0.0988
16462W        W59453   7.684   9.398  24.620  0.1496  0.0378  0.1658
16463W        W59454  24.540   8.354  22.137 -0.1279 -0.2386  0.1536
16464W        W59455   7.403  16.955  17.738 -0.2420  0.2449  0.0827
16465W        W59456   9.131   8.442  15.364  0.2323  0.3874  0.0873
16466W        W59457  18.237   3.616  21.616  0.2522 -0.4399 -0.1525
16467W        W59458  10.721  34.581  21.754 -0.1731  0.1070 -0.0598
16468W        W59459  30.389   4.167  20.911 -0.0691  0.0601 -0.0941
16469W        W59460   2.816  15.309  21.934 -0.2660  0.1251 -0.0847
16470W        W59461  12.565   9.013  20.104 -0.3067  0.1876 -0.0517
16471W        W59462   4.188   6.571   3.534  0.0465 -0.3219 -0.1312
16472W        W59463  22.138  33.810  25.959  0.0095 -0.1989  0.3752
16473W        W59464  27.156  32.002  28.412  0.1035  0.2061  0.4301
16474W        W59465  20.089  12.549  15.043 -0.1524  0.1871  0.1211
16475W        W59466  25.800   4.648  28.723  0.3066  0.2500 -0.0652
16476W        W59467   2.846  16.665   6.756 -0.1060 -0.2713 -0.2430
16477W        W59468  10.097  26.906  21.354 -0.1958 -0.0793  0.3246
16478W        W59469  11.323  12.470  21.882 -0.0539  0.1361 -0.1250
16479W        W59470  22.410   5.871  18.585 -0.1051  0.2428  0.1067
16480W        W59471   7.723  10.045  26.926  0.0088  0.2048  0.4345
16481W        W59472  25.338  34.491  27.553  0.0131  0.0186 -0.0231
16482W        W59473  18.092  33.845  25.689 -0.0127 -0.2180  0.1148
16483W        W59474  34.141  32.888  14.171 -0.1725  0.2599 -0.2467
16484W        W59475  18.098  32.453  27.526 -0.2014 -0.4259 -0.2078
16485W        W59476  24.084   1.003   1.394  0.0270  0.1218  0.0049
16486W        W59477  26.880  20.571  14.003  0.1264 -0.1975  0.0907
16487W        W59478  28.643  10.712  13.696  0.0366 -0.2139  0.0449
16488W        W59479   3.410  18.932  21.198  0.2690  0.1894  0.0676
16489W        W59480  13.070   8.329   0.085  0.4466  0.0167  0.2274
16490W        W59481  20.252  30.250  14.626 -0.2873 -0.2995 -0.0250
16491W        W59482  34.630   7.734  19.521 -0.3209 -0.0810  0.0242
16492W        W59483  31.736  10.524  22.713 -0.0158  0.0372  0.1581
16493W        W59484  10.471  13.341  15.991 -0.1203 -0.0197  0.1748
16494W        W59485  16.117  17.791   2.849 -0.2757 -0.0530  0.0279
16495W        W59486   1.732   9.116  18.576  0.3162  0.1672  0.1782
16496W        W59487  15.896  33.513  27.743 -0.0436  0.2769  0.0837
16497W        W59488  25.202   1.545  24.446  0.0068  0.1161  0.1398
16498W        W59489  11.085   2.714  20.661 -0.0595  0.1165  0.1369
16499W        W59490  17.286   1.381  24.861  0.0202 -0.0431 -0.2868
16500W        W59491   0.842  13.385   3.936  0.3654  0.3031 -0.1572
16501W        W59492  29.853   9.246  20.827 -0.0515 -0.1306  0.0003
16502W        W59493  18.771  34.000  27.899  0.3964 -0.0312  0.2066
16503W        W59494   5.557   1.513   8.346 -0.0320  0.1481  0.1205
16504W        W59495  29.877   3.384  24.618 -0.0328  0.4532 -0.1512
16505W        W59496  18.123   3.209   5.465 -0.1257  0.2037  0.0334
16506W        W59497  15.566  34.639  22.664 -0.1619 -0.0866  0.1142
16507W        W59498  10.627   5.173  19.338 -0.0063  0.2649 -0.1848
16508W        W59499  27.315   7.707  27.260 -0.0591  0.2906  0.0544
16509W        W59500  31.207   9.865  23.065 -0.0368  0.2235  0.3019
16510W        W59501  20.772   3.443  16.800  0.2120  0.3221 -0.0000
16511W        W59502  24.808   4.267  21.761 -0.0943 -0.0234 -0.0002
16512W        W59503  20.286   8.854  15.833 -0.0886 -0.0757  0.0003
16513W        W59504   0.175  31.613  27.712  0.0103  0.1258  0.1764
16514W        W59505   3.628   5.574   6.419  0.0388  0.4476  0.1327
16515W        W59506   0.547  28.380  19.383  0.2354  0.0055  0.0226
16516W        W59507  23.033   6.048  14.296  0.0766  0.1111  0.0157
16517W        W59508  28.665  15.985  24.634 -0.2113  0.2113  0.0361
16518W        W59509  28.901   0.421  18.760 -0.2416  0.1024  0.1789
16519W        W59510  22.670   3.537  14.996  0.2613  0.0313  0.4646
16520W        W59511  27.245  12.934  27.338  0.0119  0.2917 -0.0644
16521W        W59512   6.033   8.975  15.837 -0.0565  0.1263 -0.0785
16522W        W59513  27.434  21.614  27.170 -0.1630  0.0547 -0.0428
16523W        W59514  27.760  33.043  20.243 -0.0611 -0.1170  0.1241
16524W        W59515  30.307   3.925  14.773 -0.1830 -0.0677 -0.0664
16525W        W59516  13.813   7.074  21.538  0.3543  0.3167 -0.0349
16526W        W59517  16.342  16.448  23.685 -0.1859  0.0649  0.1954
16527W        W59518  29.152   0.470  19.192  0.4232  0.2145 -0.1495
16528W        W59519  12.965  29.612   1.480  0.0420  0.0230 -0.2867
16529W        W59520   8.444  14.617  19.883  0.1780  0.0524 -0.1437
16530W        W59521  33.554  31.260  15.686 -0.1826 -0.2271 -0.4578
16531W        W59522  23.780  30.542  26.708  0.4718 -0.2061  0.0188
16532W        W59523  32.928  34.659  21.413 -0.1010  0.1207 -0.0313
16533W        W59524  23.023  21.489  15.591  0.1620 -0.1204 -0.0278
16534W        W59525  31.947  31.163  18.619  0.2771  0.0729 -0.2910
16535W        W59526  22.096  11.243  22.848 -0.1947  0.2505  0.0963
16536W        W59527  10.480   4.955  16.108  0.1945  0.2640  0.0532
16537W        W59528  25.451  33.018   9.509 -0.0458  0.0789  0.0175
16538W        W59529   0.371  16.820  26.534 -0.2555 -0.1654  0.1188
16539W        W59530  32.040   0.090  26.416  0.1672  0.1770  0.2103
16540W        W59531  17.660  32.047  16.264 -0.0106 -0.1394  0.1273
16541W        W59532  26.383  13.583  25.729 -0.0778 -0.0244  0.0582
16542W        W59533  31.201  31.755  27.170  0.3502  0.2328  0.1547
16543W        W59534  17.646  15.277  12.824  0.3232  0.2736  0.0938
16544W        W59535   5.225  13.420   0.241  0.0234 -0.3376 -0.3174
16545W        W59536  26.475   6.928  17.889 -0.0569  0.2444 -0.0182
16546W        W59537  29.490  11.722  25.408  0.2047 -0.0234 -0.0016
16547W        W59538   5.009  14.071   4.574  0.0674 -0.1098 -0.1858
16548W        W59539  29.875   2.483  19.819  0.3181  0.1283  0.0311
16549W        W59540  17.043  16.212  14.026 -0.0123  0.0134  0.1817
16550W        W59541  34.308  29.292  26.723 -0.1063  0.0742 -0.1534
16551W        W59542  16.392   3.995  24.652  0.1283  0.0662  0.3495
16552W        W59543  17.330   7.951  14.643 -0.0267 -0.1795  0.0088
16553W        W59544   3.736  10.319  26.888  0.1546 -0.2567 -0.1327
16554W        W59545  12.308   2.168  15.025  0.2155 -0.1088 -0.0063
16555W        W59546  30.455  11.109  16.760 -0.0539  0.0326 -0.0081
16556W        W59547  28.027   6.348  14.343 -0.0423  0.1562  0.2281
16557W        W59548  11.818   4.956   4.103  0.2847 -0.0189 -0.0605
16558W        W59549  30.824  17.805  25.714  0.1419  0.1141  0.1128
16559W        W59550   2.119   2.640   7.235  0.3269 -0.1619  0.0071
16560W        W59551  31.499   8.929   3.217 -0.0848  0.1040 -0.0553
16561W        W59552  28.985   8.616  20.821  0.1048  0.0455  0.3584
16562W        W59553  20.079   7.892  16.414  0.1567  0.0709  0.0186
16563W        W59554  26.546   2.609  27.968 -0.0937  0.2190  0.1929
16564W        W59555  30.396  18.643  19.349  0.1585  0.1082  0.0493
16565W        W59556  28.241  18.967  16.376  0.0415 -0.2494 -0.3582
16566W        W59557  23.971   9.238  19.954 -0.2279 -0.0564  0.0206
16567W        W59558  33.582  26.371   8.571  0.1870  0.0544  0.0527
16568W        W59559  29.445  11.488  15.378  0.0698  0.0622  0.0141
16569W        W59560  21.986   8.907  14.259 -0.0290  0.0527  0.0806
16570W        W59561  13.712  32.589  15.203 -0.2757 -0.0637  0.0672
16571W        W59562  33.097  14.552  21.698 -0.1450 -0.0353 -0.1066
16572W        W59563  22.263  32.087  20.069  0.1006  0.0514  0.0269
16573W        W59564  15.907  29.703  23.712 -0.3771 -0.0375  0.4019
16574W        W59565  16.447  29.864  19.940  0.0005  0.0277  0.1972
16575W        W59566  16.175  10.647  21.134 -0.1826 -0.0199  0.0229
16576W        W59567  28.991  26.539  16.640 -0.0302  0.4719  0.0576
16577W        W59568   1.259  12.979  29.216 -0.1527  0.0540  0.0159
16578W        W59569  30.439  21.965   2.927  0.1427 -0.0540 -0.0267
16579W        W59570   0.437   6.154  24.534  0.2533  0.0827 -0.1987
16580W        W59571  25.043  14.549  27.199 -0.1704  0.1851  0.0969
16581W        W59572  23.678   1.981  16.683 -0.0267 -0.0549  0.1150
16582W        W59573  22.284  32.343  27.444  0.0363  0.1884 -0.3076
16583W        W59574   9.845  33.766  17.473 -0.1646 -0.0875  0.1678
16584W        W59575  13.495  32.244  22.756  0.0174  0.2344 -0.3136
16585W        W59576  27.672  11.460  25.481 -0.1582 -0.2289  0.0752
16586W        W59577   7.010   7.618  27.789  0.2177  0.3294 -0.1287
16587W        W59578   6.895  10.230  28.517 -0.1631 -0.0969 -0.1125
16588W        W59579  32.458  29.058  18.440 -0.5717 -0.1577 -0.2197
16589W        W59580   0.356  11.383  24.983  0.2448 -0.2035  0.4029
16590W        W59581  22.155  23.120  16.050  0.0893 -0.0297  0.2025
16591W        W59582  31.092  14.260   4.578  0.0133 -0.1935 -0.2677
16592W        W59583  25.691  14.228  23.832 -0.0690  0.1102  0.0935
16593W        W59584  22.274  19.791  12.530 -0.0348  0.2113 -0.0466
16594W        W59585  18.275  34.652  15.812  0.0074  0.1096  0.0561
16595W        W59586  33.191   8.429  17.919  0.0912  0.2196  0.2115
16596W        W59587  17.728  30.722  25.288  0.0260  0.3028 -0.2533
16597W        W59588  23.222  13.802  14.268 -0.0973 -0.0010 -0.0775
16598W        W59589  23.530   4.885  24.731 -0.2850 -0.0949 -0.1421
16599W        W59590   0.899  16.921   4.295  0.0572  0.1954 -0.0546
16600W        W59591   1.051  17.184  23.646 -0.0179 -0.0570 -0.0495
16601W        W59592  22.588   5.758  20.854  0.3690 -0.2217  0.1890
16602W        W59593   8.366  24.477   5.235 -0.1475  0.1227 -0.0505
16603W        W59594  31.997  20.431  23.553 -0.0415 -0.2278 -0.4016
16604W        W59595  12.508  13.021   9.986 -0.1079  0.1255 -0.3244
16605W        W59596   3.937   8.008  18.703  0.1424 -0.0969 -0.0223
16606W        W59597   4.696  13.769  28.255 -0.1172 -0.0739 -0.2387
16607W        W59598  28.778   6.363   0.615 -0.1281 -0.3018 -0.0843
16608W        W59599  23.137  17.270   7.480 -0.2331 -0.1043  0.0757
16609W        W59600   6.060   1.574  26.084 -0.3304 -0.0068 -0.2032
16610W        W59601  25.726  20.756  23.966 -0.2194  0.2534 -0.1778
16611W        W59602  28.663   4.937  21.146  0.0915 -0.0015 -0.0872
16612W        W59603  16.162  13.928   1.309 -0.1178 -0.4474  0.0217
16613W        W59604  28.218  12.806  16.690  0.2526 -0.0800 -0.0177
16614W        W59605   3.255  16.891   2.635  0.1314 -0.0133  0.0634
16615W        W59606   0.114  29.913  17.150 -0.0299  0.0768 -0.0491
16616W        W59607   2.267  19.692  15.769  0.0025  0.1504  0.0773
16617W        W59608   4.755   0.543  20.290 -0.1687  0.0391  0.3239
16618W        W59609   0.010  32.548   1.180  0.2076  0.1517  0.0281
16619W        W59610  33.369   5.388  22.455  0.0060  0.1390  0.0900
16620W        W59611  22.422  23.522  14.722 -0.0201  0.2054  0.1055
16621W        W59612  28.401  31.978  23.844 -0.0403  0.1820 -0.0822
16622W        W59613   9.951   1.175  22.845 -0.3011 -0.2024 -0.0750
16623W        W59614  18.791  28.582  26.188  0.2474 -0.0030  0.0893
16624W        W59615   1.307  31.041  26.071  0.2834  0.2911  0.1411
16625W        W59616  21.429   0.551  24.408 -0.1500 -0.1551 -0.0432
16626W        W59617  30.705  11.424  22.253 -0.2202 -0.0763 -0.0320
16627W        W59618  25.621  29.298  15.779  0.0057  0.1305  0.1287
16628W        W59619  28.012  26.553  28.189  0.1980 -0.0247  0.0315
16629W        W59620  30.528   5.339  19.307 -0.1696 -0.0927 -0.2374
16630W        W59621  30.343  12.408  16.658  0.4044  0.1610 -0.0908
16631W        W59622   8.829   6.526   9.977 -0.4041 -0.4307 -0.1070
16632W        W59623  25.619   4.792  15.686 -0.1489 -0.2150 -0.2596
16633W        W59624   1.254   2.720  17.988  0.1904 -0.2481  0.1043
16634W        W59625  15.125  12.855  16.695  0.1963  0.0812 -0.0869
16635W        W59626  24.724  32.758  15.225  0.1083 -0.1346 -0.0672
16636W        W59627  11.766   9.289   5.819 -0.0129 -0.3035  0.0643
16637W        W59628  19.654   9.405   4.959  0.2296 -0.0730 -0.1743
16638W        W59629  30.971  17.730  16.369  0.2444 -0.0051  0.3917
16639W        W59630  23.907  21.285  19.616  0.0230 -0.1323 -0.2467
16640W        W59631   2.727   3.016  20.663 -0.4781 -0.0005 -0.1574
16641W        W59632  22.624   0.508  19.014  0.2762 -0.1940  0.1103
16642W        W59633  25.630   1.932   8.835 -0.0931  0.1002  0.2596
16643W        W59634   2.788  30.299   4.557  0.1631 -0.1173  0.0332
16644W        W59635  26.441  31.727  13.257  0.1402 -0.0192 -0.2237
16645W        W59636   8.051   5.010  18.539  0.0453 -0.0828 -0.1619
16646W        W59637  24.194  10.654   4.188 -0.1758 -0.6723  0.1722
16647W        W59638  24.045   6.538  14.667 -0.3449  0.1067  0.0550
16648W        W59639  26.887   2.287  14.227  0.2059 -0.1803  0.2932
16649W        W59640  33.261  25.573   4.701  0.1637  0.0478 -0.0672
16650W        W59641  26.123  26.454  28.606  0.2343 -0.0143 -0.3264
16651W        W59642  13.990   6.110  21.778 -0.2103 -0.0818  0.2569
16652W        W59643  23.853   8.086  28.260 -0.0006 -0.1562 -0.1723
16653W        W59644   7.060  25.246   1.712  0.0769 -0.1815  0.2454
16654W        W59645  19.113  34.386  19.791  0.4126 -0.1914 -0.0193
16655W        W59646  34.308  16.485  28.548 -0.3031 -0.0323  0.0031
16656W        W59647  13.705  11.701  23.551 -0.1498  0.1057  0.4720
16657W        W59648  15.958  11.948  13.699  0.0216 -0.4563 -0.3248
16658W        W59649  26.634  32.460  21.857 -0.1013  0.2740 -0.0795
16659W        W59650  21.799  29.730  13.341  0.1110  0.0578 -0.2393
16660W        W59651  29.030  21.064  28.716  0.0013  0.1376 -0.1765
16661W        W59652  20.074  15.624  22.305 -0.0075  0.0382 -0.0322
16662W        W59653   4.080  11.780  25.965  0.3369 -0.3571  0.0925
16663W        W59654  20.798   2.148  20.624 -0.0918 -0.3007  0.1229
16664W        W59655   2.422  14.223   1.287 -0.1990 -0.1506 -0.1661
16665W        W59656  29.300  33.326  15.396 -0.0309 -0.2494 -0.2537
16666W        W59657  26.980   6.474  21.683 -0.2201  0.0483 -0.0655
16667W        W59658  32.204  25.120   7.274 -0.2457  0.0312  0.1306
16668W        W59659  30.558   6.334   1.926  0.0636 -0.0336  0.4121
16669W        W59660  32.017  21.951  20.208  0.2661  0.1169  0.0116
16670W        W59661  27.160   4.873  14.525 -0.1120 -0.0240  0.1325
16671W        W59662  34.237  26.532  26.146  0.0981 -0.1565 -0.4981
16672W        W59663  25.990  21.256  22.066 -0.0459  0.1335  0.1093
16673W        W59664  19.031   2.879  15.850 -0.1457  0.0576  0.0412
16674W        W59665  11.194   5.832   2.022 -0.0822 -0.2464 -0.3733
16675W        W59666  28.906  29.683  14.197  0.1326 -0.4069  0.0502
16676W        W59667  33.183  12.143  17.925 -0.2665  0.2535  0.0989
16677W        W59668  18.687   4.491  27.098  0.1550 -0.4051 -0.0852
16678W        W59669  25.954   5.979  18.731  0.1670  0.0481 -0.0170
16679W        W59670  19.746  33.251   0.858  0.0863  0.0413 -0.1626
16680W        W59671  22.195   3.573  18.445  0.0418 -0.3580  0.1504
16681W        W59672  24.934  10.915  14.916  0.0688  0.1382  0.0544
16682W        W59673   1.751  20.740  25.445  0.2297 -0.2022  0.0290
16683W        W59674   1.916  22.859  16.714  0.3433  0.0594  0.0228
16684W        W59675  25.107  12.759  20.791 -0.0489  0.0650 -0.3149
16685W        W59676  32.731  29.134  20.892  0.0345  0.1577 -0.3823
16686W        W59677  29.032   2.245   1.027 -0.2334  0.0826  0.1310
16687W        W59678  14.018   0.493  14.676 -0.2817 -0.1805 -0.0480
16688W        W59679   1.523  22.043  23.875 -0.1889 -0.1653 -0.0668
16689W        W59680  16.819   6.173  29.169  0.1506 -0.0138 -0.1560
16690W        W59681  27.170  16.851   7.492  0.1629 -0.0555  0.0838
16691W        W59682  31.394  29.931  26.138 -0.1331  0.0789 -0.1348
16692W        W59683  25.840  22.976  13.400  0.0009  0.0826 -0.3074
16693W        W59684   4.262   1.279  25.496 -0.0094  0.1165 -0.0747
16694W        W59685   6.369  28.260  19.690  0.1188  0.2698  0.1369
16695W        W59686   2.233  23.892  17.772 -0.1805 -0.0720 -0.1913
16696W        W59687  16.994  11.085  21.173 -0.2405  0.0153  0.0925
16697W        W59688  25.303   6.468  21.501  0.1797  0.0969  0.2455
16698W        W59689  18.226  32.043  20.760 -0.1029 -0.1338  0.1914
16699W        W59690   9.401   5.061   5.524  0.0922  0.1591  0.1653
16700W        W59691  10.486   2.317  16.509 -0.4425  0.0555  0.0007
16701W        W59692  29.666  14.782  15.995 -0.2211 -0.0828 -0.0556
16702W        W59693   6.986  31.099  17.902 -0.0797  0.3474  0.1189
16703W        W59694  23.579   7.441  20.957 -0.0939 -0.0469 -0.2036
16704W        W59695  18.200   8.811  20.891 -0.0199  0.2777  0.0097
16705W        W59696  23.715  32.533  24.004  0.3150 -0.1955  0.1675
16706W        W59697  19.599   0.414  21.350  0.0942 -0.0550  0.0489
16707W        W59698  12.593  31.915   9.701  0.1039 -0.1082  0.1389
16708W        W59699  26.688  30.664  17.728 -0.2110  0.2214 -0.1301
16709W        W59700  15.184   6.916  18.872 -0.2358 -0.3534 -0.0475
16710W        W59701  24.299  34.609  13.300  0.0001 -0.1011 -0.2574
16711W        W59702  21.577  28.560  16.277  0.1089 -0.1058  0.0321
16712W        W59703  31.788   5.086  26.099  0.0807  0.2069 -0.0151
16713W        W59704  24.251   7.501  24.301 -0.0804 -0.3214 -0.1784
16714W        W59705  18.766   8.928   2.211  0.2987 -0.0073  0.1786
16715W        W59706  16.652   6.674  22.689  0.0329  0.2575 -0.1198
16716W        W59707  21.915  14.697  26.170  0.1747  0.3403 -0.0408
16717W        W59708   1.009   1.511  19.316  0.2106  0.2004  0.2023
16718W        W59709  27.773   5.469  14.352 -0.3507 -0.1552  0.1573
16719W        W59710  17.171   1.128  18.994  0.1877 -0.0281 -0.0649
16720W        W59711  34.230  34.381  16.404 -0.1828 -0.0045  0.1052
16721W        W59712   4.851   9.930   1.856  0.0744 -0.4649 -0.0813
16722W        W59713  24.542  12.827  16.868  0.1733  0.0870 -0.1663
16723W        W59714   7.361   0.001  15.855  0.0595 -0.2119 -0.3208
16724W        W59715   3.436  10.935  26.366 -0.0753 -0.1981 -0.0337
16725W        W59716  14.142   1.106  17.786 -0.5455  0.0572  0.0773
16726W        W59717  12.746  25.410  24.822 -0.1306 -0.1021 -0.3856
16727W        W59718   9.763   3.403  23.698  0.1034  0.2867 -0.1884
16728W        W59719  24.234   9.564  14.981 -0.1977  0.1768  0.1480
16729W        W59720  10.510  30.182   0.799  0.2511 -0.0980 -0.0305
16730W        W59721  17.529   8.889  27.740  0.0416  0.1601 -0.2651
16731W        W59722  22.954   2.988   3.250  0.1258  0.1322  0.1124
16732W        W59723  24.310   1.644   5.596 -0.1547  0.2613 -0.0772
16733W        W59724  26.852   2.139  25.967  0.2036 -0.3071 -0.2024
16734W        W59725   0.356  12.377  20.442  0.0356  0.0226 -0.0234
16735W        W59726  15.525  29.970  14.804 -0.0202 -0.0031  0.1005
16736W        W59727  33.589  14.845  25.881 -0.3762 -0.0312  0.2743
16737W        W59728  20.032  13.907  12.713 -0.2079  0.1294  0.2291
16738W        W59729  27.594  14.074  26.822  0.1170 -0.0788  0.0267
16739W        W59730  12.489  34.646  22.453  0.1313 -0.2012  0.1236
16740W        W59731  10.270   6.981   4.681 -0.3136 -0.2752 -0.0128
16741W        W59732   4.046   2.418   3.877 -0.1723 -0.3018  0.1449
16742W        W59733  26.295  20.026   6.404  0.0952  0.3720 -0.5026
16743W        W59734   3.615   6.273  28.266  0.0163 -0.0088 -0.0335
16744W        W59735  18.162  14.488  24.718  0.0720  0.3302  0.3000
16745W        W59736  25.331  14.438  16.196  0.2013 -0.1436 -0.0466
16746W        W59737  31.339  13.237  21.384  0.2018 -0.1872  0.0376
16747W        W59738  19.287  26.432  16.569  0.2716 -0.0737 -0.0982
16748W        W59739  25.162   5.990  17.562  0.4909  0.1383 -0.1567
16749W        W59740  12.408  23.744  20.243  0.2448 -0.2422  0.0499
16750W        W59741  30.077   5.392   6.656  0.1080  0.2874 -0.2793
16751W        W59742   7.187  11.100  15.678  0.3194 -0.0070 -0.3598
16752W        W59743  33.616  16.543  26.514  0.0786 -0.2006 -0.0187
16753W        W59744  26.545  24.323  20.925  0.0545  0.0484  0.3132
16754W        W59745  31.510   6.936   5.225 -0.0576  0.1886 -0.2471
16755W        W59746  11.661   7.223  16.767 -0.2899 -0.0589  0.2481
16756W        W59747  24.515  31.063  18.632  0.0044 -0.2447 -0.1139
16757W        W59748  21.670  10.443  20.503 -0.1538 -0.2172 -0.3520
16758W        W59749  23.892   2.483  22.913  0.1552 -0.0117 -0.1448
16759W        W59750   1.123  10.792   6.251  0.1790 -0.1123  0.1414
16760W        W59751  25.744  17.934  26.158 -0.2406 -0.0668  0.1629
16761W        W59752   9.144   4.273  29.244  0.0100  0.0790 -0.1536
16762W        W59753   9.903   7.937  25.720 -0.1116  0.0700 -0.1248
16763W        W59754   1.896  31.106  22.955 -0.0903  0.0806  0.1330
16764W        W59755   1.780  12.912  28.320  0.0009  0.1147 -0.0546
16765W        W59756  31.386  10.464  14.166  0.1466 -0.2052  0.1820
16766W        W59757   0.959  31.560  21.910  0.2721  0.1782 -0.2746
16767W        W59758  32.487   3.789  21.909 -0.0547  0.2943  0.2434
16768W        W59759  21.555   5.797   0.955 -0.0694 -0.2859  0.0903
16769W        W59760   0.183  11.954  20.207  0.3056 -0.0676  0.3679
16770W        W59761  26.488  27.504  25.201  0.0872 -0.2207  0.0000
16771W        W59762   3.681   8.201  26.878  0.2118  0.1027  0.1405
16772W        W59763  33.103  14.160  17.756  0.1434 -0.4222 -0.1460
16773W        W59764   5.523   9.400  18.682 -0.0054  0.1869  0.0206
16774W        W59765  19.666  10.135   9.066  0.0956 -0.3068  0.1343
16775W        W59766  30.990  11.534  21.783 -0.3276 -0.0274 -0.0754
16776W        W59767  30.895   9.364   0.493 -0.1856  0.2197 -0.0431
16777W        W59768   5.085   3.049   6.388 -0.1072 -0.1435  0.3055
16778W        W59769  27.023  23.769  18.721  0.2550 -0.1866  0.1160
16779W        W59770   4.434  14.313  16.491  0.1356 -0.0759 -0.0552
16780W        W59771  22.337   7.165  15.764 -0.2824 -0.0577  0.1007
16781W        W59772  27.070   8.065  15.978 -0.2290  0.0155  0.0259
16782W        W59773  29.232   0.571   9.130  0.0462 -0.0709  0.1988
16783W        W59774  19.803   0.529   0.461 -0.1622  0.0494  0.1831
16784W        W59775   0.250  32.036   5.175 -0.2375  0.0305 -0.1917
16785W        W59776  28.536  17.160   0.817  0.1596  0.2493 -0.1723
16786W        W59777  15.140  25.227  20.372  0.0572 -0.3659  0.0024
16787W        W59778  23.668  23.383  24.404  0.2583  0.2003 -0.1258
16788W        W59779  24.887  18.482  24.045 -0.1075  0.0848 -0.0005
16789W        W59780   0.266   2.961  29.050 -0.1752  0.1502 -0.3896
16790W        W59781  20.199  18.011  12.696 -0.1244  0.0122 -0.0359
16791W        W59782  24.889  25.557  19.678 -0.0473  0.0797  0.0104
16792W        W59783   2.739  24.739  21.147 -0.1680 -0.1948 -0.0517
16793W        W59784  25.669   5.968  24.253  0.2929 -0.2172 -0.2295
16794W        W59785  30.370   0.779  20.111  0.2298  0.0202 -0.0621
16795W        W59786   0.839   2.759  18.230 -0.0438 -0.0629 -0.1275
16796W        W59787  21.960  22.576  23.513  0.3006  0.4523 -0.2232
16797W        W59788   3.785   7.616  15.401  0.0455 -0.0896  0.0393
16798W        W59789  23.171   5.261   2.957 -0.0647 -0.2037  0.1415
16799W        W59790  15.674   1.086  14.259  0.1332 -0.3712 -0.0422
16800W        W59791  18.416  33.075  14.887  0.1280  0.1561  0.0918
16801W        W59792  22.337   5.868  20.329  0.1540 -0.1456 -0.5718
16802W        W59793  34.298  32.829  15.080 -0.2506 -0.1110 -0.1629
16803W        W59794  25.759   7.066  21.289  0.0265 -0.1143 -0.0739
16804W        W59795  27.362   4.603  24.434  0.0444 -0.2112 -0.1361
16805W        W59796  27.460  19.585  25.516  0.0667 -0.1394  0.2563
16806W        W59797  29.957  12.572  22.852 -0.0358  0.0537 -0.1460
16807W        W59798  15.258  20.513  28.496  0.1870 -0.0854 -0.0515
16808W        W59799  30.172   7.050  19.510  0.0412 -0.0122 -0.1420
16809W        W59800  14.575  30.937   8.016  0.0372  0.1833  0.5468
16810W        W59801  13.738   5.250  21.690 -0.0102  0.3823  0.1425
16811W        W59802  34.634   9.308   6.025 -0.0965  0.1300  0.1640
16812W        W59803  33.234  18.082   0.103  0.0942  0.0817  0.0588
16813W        W59804   3.538  12.268  22.589  0.0244 -0.2076 -0.1141
16814W        W59805   8.306  32.231  19.762 -0.0942  0.1598  0.2345
16815W        W59806  29.840  30.225   3.873  0.1947  0.1552 -0.2556
16816W        W59807  27.404   4.908  16.171 -0.1387 -0.0683  0.0976
16817W        W59808   9.795  10.036  15.980  0.3024 -0.2115 -0.1155
16818W        W59809  15.333   6.168   4.625 -0.2042 -0.1698 -0.1862
16819W        W59810  25.622  27.980  23.282  0.1021  0.3258 -0.1283
16820W        W59811   4.077   2.128  19.226  0.3712 -0.3204  0.1631
16821W        W59812  27.222  32.652  16.930 -0.2858 -0.0547  0.0137
16822W        W59813  16.183  10.590  24.384 -0.1927  0.0350 -0.4889
16823W        W59814  21.385  30.272  19.380 -0.1198  0.2820  0.0498
16824W        W59815  12.776  15.064  17.308  0.1612  0.3777  0.0700
16825W        W59816  17.549  30.495  21.489  0.1081 -0.2584  0.2037
16826W        W59817  10.306  25.597  18.222 -0.2121 -0.1103 -0.1819
16827W        W59818  11.780  10.496  25.363 -0.0331 -0.2394  0.1921
16828W        W59819  21.036  30.518  19.005  0.1312 -0.0237 -0.0513
16829W        W59820  13.281   5.839  16.149 -0.1951 -0.2395 -0.3734
16830W        W59821  25.774  30.326  13.455  0.3271  0.1022 -0.3074
16831W        W59822  23.334   6.068   3.274 -0.2940 -0.1048  0.1316
16832W        W59823  32.729  11.518  20.375  0.0508  0.1637 -0.1416
16833W        W59824  19.380  25.797   0.550 -0.0326 -0.0916 -0.1171
16834W        W59825  29.814   0.008  28.985 -0.3000 -0.2471 -0.0206
16835W        W59826  24.276  11.881  15.794  0.0305  0.1139  0.1675
16836W        W59827  31.572  13.574  16.138 -0.0336 -0.0566  0.0839
16837W        W59828   0.538   4.207  28.087  0.0866 -0.1425  0.1323
16838W        W59829  23.286  32.066   6.105 -0.0820  0.1420 -0.4344
16839W        W59830  14.416   4.182  19.301  0.0006  0.3062  0.1144
16840W        W59831  32.062  13.072  17.109  0.0544 -0.0447 -0.1010
16841W        W59832  17.337  12.229  23.446 -0.4292 -0.1179 -0.0216
16842W        W59833  16.365  25.934  26.374  0.0971 -0.3014  0.3097
16843W        W59834  20.171  33.534  17.666 -0.1452  0.1306 -0.1240
16844W        W59835   0.077  33.005  27.686 -0.1750 -0.0350 -0.0253
16845W        W59836   0.896   1.082  13.635  0.2661  0.1533  0.1134
16846W        W59837  25.358   4.269  14.580  0.1371 -0.1026 -0.3045
16847W        W59838  23.493  18.682   9.007 -0.0753  0.0788  0.0836
16848W        W59839  34.033   4.661   1.026  0.0596  0.2774  0.0348
16849W        W59840   4.830  24.208   8.491 -0.0656  0.1484 -0.1410
16850W        W59841  26.157  14.478  28.313  0.1107 -0.2396 -0.0187
16851W        W59842  11.995   0.246  16.134 -0.1746 -0.0924 -0.1967
16852W        W59843  17.164  22.878   0.876  0.2831  0.2449  0.0807
16853W        W59844  19.502  10.766  19.541  0.2001 -0.3918  0.1281
16854W        W59845  14.425  14.999   3.191 -0.0645  0.0828 -0.0933
16855W        W59846  26.869   6.590  19.829  0.0260 -0.0076 -0.0107
16856W        W59847  29.553   2.885  24.385  0.1041 -0.2056 -0.1470
16857W        W59848  13.331   0.818  18.149 -0.1682 -0.1576 -0.1386
16858W        W59849  13.381  13.069  19.704 -0.1050 -0.0525  0.0682
16859W        W59850  28.856  22.975  15.706  0.1422 -0.1991 -0.0272
16860W        W59851  24.349  10.109  27.505 -0.0169 -0.0091  0.1819
16861W        W59852  17.603  10.264  22.937 -0.2967 -0.2587 -0.3179
16862W        W59853  22.867  10.960  29.044  0.1984  0.3231  0.2043
16863W        W59854  10.110   3.863  14.504  0.1098  0.2085 -0.2364
16864W        W59855  16.869   9.788   1.240  0.1005  0.1449  0.1538
16865W        W59856  22.355  20.030  16.955  0.1477  0.2101  0.1321
16866W        W59857  18.445   4.812  13.982  0.0395 -0.2634  0.0062
16867W        W59858  17.584   8.194   2.744 -0.0557  0.3013 -0.0549
16868W        W59859  17.864  14.025  20.708 -0.1799  0.2131  0.0685
16869W        W59860   9.231   7.459  22.704 -0.2504  0.1660 -0.1708
16870W        W59861  18.970  14.002   5.581 -0.1566 -0.0473 -0.2604
16871W        W59862  25.884  21.427  25.225  0.2038 -0.2571 -0.0899
16872W        W59863  33.513  27.096  23.710  0.0525  0.0631  0.0236
16873W        W59864  32.997   2.016  17.880  0.0102  0.1225  0.1810
16874W        W59865  23.545   7.885  24.864 -0.0720 -0.2209  0.3061
16875W        W59866  28.823  10.692   9.363  0.0573 -0.0325  0.1574
16876W        W59867  15.490  33.216   0.480  0.0499  0.3056 -0.3246
16877W        W59868  24.919  33.579   1.460  0.0605 -0.0335  0.2508
16878W        W59869  20.624   8.590  17.271 -0.1734 -0.1314 -0.1754
16879W        W59870  31.804   5.603   2.144 -0.3266 -0.0634  0.1101
16880W        W59871  17.556  30.166   8.577  0.0792 -0.0391 -0.1168
16881W        W59872   9.277   1.877  23.458  0.1808  0.0978  0.0831
16882W        W59873  32.808  34.312   3.958 -0.0780  0.0830 -0.1597
16883W        W59874   2.503  10.639  21.807  0.0855  0.0456  0.1662
16884W        W59875  25.273   8.330  17.624  0.1071 -0.1873 -0.2971
16885W        W59876  20.463   7.044  17.257 -0.0060  0.2880  0.1400
16886W        W59877  28.258   4.875   7.501  0.3266  0.0394  0.0608
16887W        W59878   1.785   1.642  21.321  0.0750 -0.2677 -0.1739
16888W        W59879   0.523  13.393   0.724 -0.2951  0.3331  0.0824
16889W        W59880  24.874   2.274  19.261  0.3125  0.0823 -0.0441
16890W        W59881   1.249  31.428  14.846  0.0536 -0.3346 -0.1002
16891W        W59882  24.518  10.340  17.801  0.3165  0.1226 -0.3572
16892W        W59883  23.708  11.619  24.035  0.0052 -0.3568  0.0202
16893W        W59884  32.498  32.321  17.453  0.1476  0.1786  0.1664
16894W        W59885  25.274  13.597  18.311  0.2847 -0.1260 -0.1414
16895W        W59886   0.341  12.120  23.207  0.0424  0.2100 -0.0328
16896W        W59887  22.865  17.875   6.098  0.2846 -0.2335 -0.0384
16897W        W59888  26.009   9.183  18.692  0.1871 -0.0311  0.0154
16898W        W59889  32.478   6.748   7.851  0.2652  0.2264  0.1584
16899W        W59890  22.971  10.010  28.665 -0.1572  0.0067 -0.1296
16900W        W59891  20.348  34.686   1.692 -0.0218 -0.2031  0.0287
16901W        W59892   1.082   7.403   8.414 -0.2082 -0.1260 -0.3147
16902W        W59893   4.578   1.838  26.598  0.1322 -0.0217 -0.0255
16903W        W59894  14.101  29.164  20.660 -0.2127 -0.3169 -0.1333
16904W        W59895  18.005  31.967   8.385 -0.1330 -0.0980  0.1756
16905W        W59896  28.000  19.972  26.725 -0.0674 -0.2517  0.0177
16906W        W59897  19.364  25.640  24.403  0.0925 -0.3149 -0.0890
16907W        W59898  17.126   9.298  15.834 -0.1593  0.0064  0.2237
16908W        W59899   1.594  31.379  22.575  0.0699 -0.0742  0.1890
16909W        W59900  20.355  19.446  21.635 -0.0414 -0.2016 -0.1141
16910W        W59901   3.368   0.131   3.536 -0.1765  0.1841  0.2100
16911W        W59902  21.937   4.056   4.012  0.1685  0.3842 -0.0161
16912W        W59903   0.778  10.751  28.272 -0.2015  0.1952  0.2497
16913W        W59904  23.132  22.125  18.735  0.0886 -0.0280 -0.0123
16914W        W59905  26.180  31.348  14.700  0.0368 -0.4699  0.2223
16915W        W59906  25.092  19.321  21.058 -0.2907 -0.1132  0.0793
16916W        W59907  28.950   8.708  24.713 -0.0473 -0.0018  0.1238
16917W        W59908  26.114  11.946  16.180  0.1810  0.0984  0.1498
16918W        W59909  31.452  27.267  21.237 -0.1906  0.2251 -0.2020
16919W        W59910   9.604   7.802   1.064  0.2978  0.1170 -0.2153
16920W        W59911  20.195  12.961   8.045  0.1860  0.4091  0.1415
16921W        W59912   2.972   7.084  15.249 -0.1768  0.2883  0.0036
16922W        W59913   1.016  32.094  19.570  0.2571  0.0257  0.0250
16923W        W59914  31.629   7.114  28.371 -0.1533 -0.1317  0.3822
16924W        W59915  26.543   1.692  23.094 -0.0796 -0.1100  0.3072
16925W        W59916  19.628   0.787  20.909  0.0661 -0.0343 -0.0802
16926W        W59917  26.131   7.445  22.327 -0.2316  0.0125 -0.1015
16927W        W59918  23.047  25.145   7.411  0.1755  0.2983 -0.0401
16928W        W59919  17.611   0.726  17.480  0.3629 -0.0184  0.0059
16929W        W59920   2.381  26.946   1.057  0.1191 -0.1485  0.0776
16930W        W59921   4.770   9.214  23.354 -0.3448 -0.0638 -0.0844
16931W        W59922   3.098  16.863  27.573 -0.1286 -0.1699 -0.0055
16932W        W59923   1.098  17.850  19.023  0.2177 -0.0445 -0.1469
16933W        W59924  17.185  32.164  22.576  0.0633 -0.2331 -0.2969
16934W        W59925  11.827  11.260  15.182 -0.0252 -0.1251  0.1632
16935W        W59926  19.589  30.759  16.505 -0.2499 -0.0013  0.2567
16936W        W59927   0.538  14.411  22.117  0.0130 -0.1730 -0.0377
16937W        W59928  12.786  12.721   6.571 -0.0582 -0.0124 -0.2606
16938W        W59929   3.613  25.215  17.629 -0.2268 -0.3885 -0.2194
16939W        W59930  13.052  11.300  21.408 -0.1329 -0.0363  0.0585
16940W        W59931  21.381   8.321   3.282 -0.1114  0.0185  0.1099
16941W        W59932  18.584  13.723  25.903  0.1827 -0.4580 -0.0500
16942W        W59933  27.523  19.350  17.869  0.0357  0.0601 -0.1709
16943W        W59934   9.059  23.592  14.907 -0.1168 -0.0979 -0.0848
16944W        W59935   0.972  32.486   5.366  0.0867 -0.3711  0.1482
16945W        W59936  31.465   2.750   2.358  0.2405  0.0135  0.2308
16946W        W59937  22.609   0.614  26.847  0.0978  0.0586 -0.0963
16947W        W59938  13.395   5.994  23.036 -0.1010 -0.2290  0.1638
16948W        W59939  24.542   8.451  16.574 -0.0720  0.0687  0.2535
16949W        W59940   6.004  14.830  21.956 -0.1782 -0.1690 -0.0297
16950W        W59941  26.152  32.500  27.311 -0.1158 -0.0094  0.1023
16951W        W59942  22.137   5.327  23.444  0.1598  0.0477  0.1138
16952W        W59943  20.655  21.706  15.823 -0.0557  0.1107 -0.2054
16953W        W59944  27.527  33.089  18.141  0.1072  0.1885 -0.1418
16954W        W59945  20.776   1.037   0.784  0.1839  0.2364  0.2445
16955W        W59946  34.237  32.394  18.320  0.1016  0.0829  0.0443
16956W        W59947  14.402  15.698  14.691 -0.0639  0.1738 -0.0707
16957W        W59948  22.183  34.490   4.252 -0.0702  0.0837 -0.2699
16958W        W59949  29.383   5.436  25.325  0.1019  0.0182  0.1079
16959W        W59950  33.650  10.557  21.972 -0.2443 -0.0677 -0.0100
16960W        W59951  25.216   0.645  22.855  0.1034 -0.2446 -0.0520
16961W        W59952  18.681  22.174   5.558 -0.0569 -0.2450  0.1657
16962W        W59953  20.761   8.663  22.128  0.0163 -0.0315  0.2686
16963W        W59954   1.049   5.218   6.063  0.1262 -0.1453 -0.0402
16964W        W59955  32.470  16.150  19.391 -0.1035 -0.2098 -0.1617
16965W        W59956  30.268  30.703  19.398  0.1583 -0.1522 -0.2038
16966W        W59957   4.718  29.900  27.551 -0.1303 -0.0342 -0.1253
16967W        W59958   0.633  10.268   4.894  0.2152  0.0740 -0.1475
16968W        W59959  30.663   4.573  20.534  0.1290  0.0885  0.2691
16969W        W59960  14.471  21.105   4.802  0.0233  0.1057 -0.1526
16970W        W59961  23.967  29.509  18.295 -0.2506 -0.0964 -0.0590
16971W        W59962   0.906  11.037   8.722 -0.0383  0.2262  0.1723
16972W        W59963  32.249  19.026  24.024  0.1767 -0.0942 -0.1285
16973W        W59964   5.621   8.885  24.654 -0.1050 -0.0191  0.0653
16974W        W59965  22.318  26.314  20.859 -0.1400 -0.2405  0.0547
16975W        W59966  19.013   1.676  19.369  0.2373  0.0833 -0.0715
16976W        W59967  25.519   6.869   5.308  0.1841 -0.1399  0.0690
16977W        W59968   4.068  12.351  27.953 -0.2576  0.1349 -0.2554
16978W        W59969  22.638   2.466   0.042  0.0417 -0.0350 -0.1247
16979W        W59970  34.628  17.585  24.784  0.2058 -0.0297  0.0160
16980W        W59971  28.236  25.723  25.133 -0.0034  0.0479 -0.2794
16981W        W59972  33.113  13.498  14.888  0.1300  0.0318  0.0864
16982W        W59973  31.607  17.491   5.252  0.0412 -0.1244  0.1716
16983W        W59974  22.980   3.391  26.800 -0.1712  0.0894  0.1921
16984W        W59975  22.313  15.616  14.711  0.2441  0.5731  0.0096
16985W        W59976  17.244  28.845  27.583 -0.0156  0.0339 -0.0016
16986W        W59977  27.749  19.923  25.213 -0.2229 -0.3876  0.0097
16987W        W59978  20.823  20.138  21.836 -0.1312  0.1587  0.1206
16988W        W59979   4.965   4.655  15.277  0.1347  0.2427 -0.2548
16989W        W59980  27.225  10.181  28.710 -0.0488 -0.2417 -0.2748
16990W        W59981   5.462   0.411  27.614  0.1050 -0.0378  0.2873
16991W        W59982  23.634  34.074  29.080  0.1609 -0.0585 -0.0572
16992W        W59983  29.072  10.516  25.417 -0.0973  0.3270  0.4662
16993W        W59984  28.347   0.622  25.909  0.1131  0.4004  0.0097
16994W        W59985  19.646   8.152  22.630 -0.2673  0.4210  0.0111
16995W        W59986   4.446  12.407   2.687  0.0837  0.0591 -0.2704
16996W        W59987  33.836   6.373  25.779  0.0251  0.2752 -0.0366
16997W        W59988  24.767   4.512  19.202 -0.2077 -0.2230 -0.1698
16998W        W59989  29.782   1.432  18.403 -0.2341 -0.0470  0.2362
16999W        W59990  34.343  27.033  19.375  0.2038 -0.1040 -0.1188
17000W        W59991  32.911   4.689   6.074  0.0814 -0.1466 -0.2782
17001W        W59992  32.523  25.611   1.258  0.4442 -0.1150  0.1572
17002W        W59993  20.226   1.961  22.756 -0.1621  0.2166 -0.2503
17003W        W59994   6.722  21.390  22.462  0.3401  0.1546 -0.0191
17004W        W59995   3.362   2.795  22.152 -0.1126 -0.2549  0.2559
17005W        W59996  12.958  16.015  22.799 -0.0164  0.0553 -0.2914
17006W        W59997  30.600  26.664  23.100  0.1836 -0.0672 -0.0737
17007W        W59998  23.199  16.449  29.066 -0.3843  0.0866  0.3837
17008W        W59999  31.107   3.311  24.755 -0.0522 -0.0397  0.3634
17009W        W60000  18.000   9.904  23.687  0.0520  0.1942 -0.1538
17010W        W60001  24.432   3.965  13.232  0.3111  0.2291 -0.2532
17011W        W60002  12.555  15.485   0.319  0.1239 -0.0157  0.1575
17012W        W60003  31.056   5.976   6.013 -0.2725 -0.1260  0.2442
17013W        W60004  31.673   5.505   2.709 -0.1015 -0.0192 -0.0747
17014W        W60005  13.840  10.911  21.012 -0.0916  0.0410 -0.1062
17015W        W60006  23.946   8.386  21.726  0.1769  0.2527 -0.0985
17016W        W60007   0.985   0.580   5.412  0.3821  0.0955 -0.1347
17017W        W60008  31.294  11.626   0.220  0.0427 -0.2558 -0.2177
17018W        W60009  27.508  16.605   0.171 -0.1193  0.2626  0.0685
17019W        W60010  23.101  18.851  17.945  0.0950 -0.0057 -0.2078
17020W        W60011  22.717  24.782   3.614 -0.0822  0.0882  0.0473
17021W        W60012   4.283   5.948  22.021  0.0989  0.0848 -0.2234
17022W        W60013  30.597   7.936  20.525 -0.3065  0.2632  0.1442
17023W        W60014  16.540  31.433  13.570  0.0320 -0.0668  0.0028
17024W        W60015  32.834  11.116  28.903 -0.2519  0.1165 -0.2085
17025W        W60016  26.504   2.936  18.304 -0.0367  0.0430 -0.0063
17026W        W60017   1.681   8.045  28.924  0.0390  0.1334 -0.0224
17027W        W60018  21.939   1.004  14.950  0.2778 -0.5153  0.2768
17028W        W60019   7.723  16.415  24.804  0.2338 -0.1693  0.1271
17029W        W60020  25.510  32.235  14.060 -0.1630 -0.0476  0.2084
17030W        W60021  28.983  28.193  17.501 -0.1873  0.1704 -0.0536
17031W        W60022  17.927   0.156  23.542  0.1910  0.0037 -0.0956
17032W        W60023   9.140   5.338  17.679 -0.1021  0.1371 -0.1176
17033W        W60024  31.767   5.163  20.425  0.0193 -0.1936 -0.0562
17034W        W60025  26.667  30.390  18.721 -0.0627 -0.1536 -0.1056
17035W        W60026   5.275   1.346  16.128  0.3077 -0.0982 -0.1596
17036W        W60027  26.363   3.233  23.998 -0.1430 -0.1538  0.0046
17037W        W60028  15.647  11.576  22.722  0.0512  0.2435  0.0662
17038W        W60029  24.844   5.495  29.056  0.3046 -0.0693 -0.2247
17039W        W60030  26.917  25.333   3.226  0.0992 -0.1151  0.0053
17040W        W60031  29.981  30.962   3.783  0.1800  0.3930 -0.0433
17041W        W60032  33.390   0.993   2.566  0.1198  0.1306  0.0102
17042W        W60033  19.498  17.699   0.346 -0.0043  0.2862  0.0138
17043W        W60034  12.632   4.503  17.401 -0.3584 -0.0372  0.0156
17044W        W60035   6.385  32.446  19.815  0.0389 -0.0194 -0.1920
17045W        W60036   4.929   7.507  17.749 -0.0826  0.1212 -0.2268
17046W        W60037  25.310  29.473  23.294 -0.0717  0.3077  0.4270
17047W        W60038  24.895   5.468   2.728 -0.1992  0.2428 -0.0336
17048W        W60039  27.339  34.605   9.082 -0.1959 -0.1652 -0.1410
17049W        W60040  20.816   2.184  13.683 -0.6134 -0.1748  0.1663
17050W        W60041  29.679   5.558  26.936 -0.2570  0.0570 -0.4774
17051W        W60042  18.227  15.636  13.868  0.0402 -0.1401 -0.1596
17052W        W60043  28.908  14.353  25.343 -0.1622  0.0141 -0.0388
17053W        W60044  22.400  11.563  22.332  0.3634 -0.2472 -0.0936
17054W        W60045  27.821  28.101  19.070 -0.0578 -0.1505  0.2491
17055W        W60046   4.756  11.353   4.838  0.0879  0.3380 -0.3262
17056W        W60047  16.239  28.076   7.322  0.1334 -0.2262 -0.3930
17057W        W60048  28.580  17.438  21.089  0.4978 -0.3499 -0.0673
17058W        W60049  27.805   8.048   6.272 -0.2149  0.0925 -0.0153
17059W        W60050  24.946   8.394  13.179  0.0927 -0.0046 -0.3453
17060W        W60051  23.475   7.605  22.089  0.1062 -0.1496 -0.1918
17061W        W60052  28.933  28.744  21.779 -0.4537 -0.2427 -0.2444
17062W        W60053  22.245  32.806  22.744 -0.0504  0.1162  0.2341
17063W        W60054  12.527  15.165  19.426 -0.3011  0.0385  0.2404
17064W        W60055  32.950  25.030  24.447  0.0733 -0.4856  0.2130
17065W        W60056  30.569  11.461  22.840 -0.0892  0.0648 -0.0129
17066W        W60057  32.827  13.392  26.508 -0.3579  0.3356 -0.1234
17067W        W60058  22.910   2.510  13.525  0.2413 -0.2770 -0.0695
17068W        W60059  28.214  21.327  26.672 -0.1917 -0.3787 -0.4357
17069W        W60060  21.770   1.963   0.011  0.0509 -0.1644 -0.1241
17070W        W60061  31.027   4.523  15.675  0.1073 -0.3137 -0.0096
17071W        W60062  25.977  33.499  16.273  0.1296 -0.1779  0.0838
17072W        W60063  23.388   6.479  14.318  0.0245  0.1865  0.1526
17073W        W60064   6.539   1.558   0.827  0.0522 -0.3425 -0.2404
17074W        W60065  26.571  12.530   1.467  0.0465 -0.1134 -0.2235
17075W        W60066  25.352  32.189   1.992  0.1950 -0.1330  0.0711
17076W        W60067  21.614  23.806  16.215 -0.0644 -0.0759 -0.1358
17077W        W60068  30.641  27.161  19.670  0.3411  0.1371 -0.1213
17078W        W60069  27.892  26.351   3.835  0.0849  0.0203 -0.0294
17079W        W60070  28.041   1.628  23.700 -0.6784  0.1137 -0.0401
17080W        W60071   0.885   0.230  27.038 -0.1551  0.1369 -0.0250
17081W        W60072  29.995  20.684  28.344 -0.0122  0.1699  0.0015
17082W        W60073   9.966   8.678  10.707 -0.3114 -0.0185 -0.2162
17083W        W60074  12.978   2.622   2.347  0.0357 -0.1338 -0.0721
17084W        W60075  10.465  29.081  19.398  0.3293 -0.0914  0.1213
17085W        W60076  19.920   7.674  28.952 -0.0958 -0.0631  0.1950
17086W        W60077  20.440   4.073  20.929  0.2254 -0.2302 -0.0342
17087W        W60078  18.851   8.557  16.963 -0.3565  0.0343  0.0982
17088W        W60079  10.792  30.823  24.320  0.1528  0.1700 -0.2238
17089W        W60080  30.722   0.122  14.351  0.1435  0.1723  0.1515
17090W        W60081  20.628  32.218  24.137 -0.2171 -0.1803 -0.2822
17091W        W60082   2.730  15.358  23.678 -0.6851 -0.0513  0.0304
17092W        W60083   2.733   0.626   1.893  0.3121 -0.0177 -0.1390
17093W        W60084  24.502  10.563  18.278  0.1921 -0.1358 -0.0255
17094W        W60085  30.651  14.019   1.913 -0.2103 -0.1201  0.0834
17095W        W60086   5.621  15.703  21.020  0.1634  0.1255  0.0493
17096W        W60087  17.272  29.129   8.811  0.0759  0.1431  0.1196
17097W        W60088  29.742   8.917  24.085 -0.1586  0.2155 -0.1650
17098W        W60089  21.803   0.108  14.087 -0.2958  0.1596 -0.2078
17099W        W60090  27.418  26.913   0.216 -0.5292 -0.0883  0.3220
17100W        W60091  24.959  14.141  14.662  0.0596  0.0204 -0.2018
17101W        W60092   0.222   8.103  18.848 -0.0119 -0.2261 -0.1052
17102W        W60093  22.133   0.002  16.995 -0.0092  0.1330 -0.0607
17103W        W60094  23.611  14.107  14.071  0.1053 -0.2022  0.1274
17104W        W60095   0.852   8.596  25.666 -0.0304 -0.0271  0.0541
17105W        W60096  20.716   8.079  18.844  0.0377  0.0181 -0.2143
17106W        W60097   7.038  15.869  19.800 -0.1411  0.1010 -0.0078
17107W        W60098   9.577  30.521  20.427 -0.5160 -0.1689  0.2325
17108W        W60099  16.157  20.782  16.151  0.1555  0.0020  0.0765
17109W        W60100  15.111  10.827  26.299 -0.0588  0.2575  0.3292
17110W        W60101  34.033  17.838  27.978  0.2430  0.0187  0.0429
17111W        W60102  14.679  29.131  19.293 -0.0731  0.2560 -0.0491
17112W        W60103  19.428  10.716  17.523 -0.0414 -0.2614  0.1439
17113W        W60104  15.640  13.712  20.157  0.0501 -0.2569  0.0159
17114W        W60105  32.282  23.979  18.449  0.0887 -0.1191  0.3117
17115W        W60106  25.021   5.034  25.254 -0.0030 -0.2353 -0.2278
17116W        W60107  25.230   2.321  29.216  0.0516 -0.0478  0.0482
17117W        W60108  25.927   0.410  16.521 -0.0381 -0.1623 -0.0934
17118W        W60109   6.489  29.932  28.831  0.2229 -0.1833 -0.1952
17119W        W60110  13.251   7.342  20.008  0.1565  0.0916 -0.1302
17120W        W60111   2.150  19.812  24.314  0.0608 -0.0903  0.1645
17121W        W60112  19.165   7.726  25.088 -0.1287  0.2736  0.0351
17122W        W60113  22.589   1.602   2.985 -0.0095 -0.0312 -0.1067
17123W        W60114  30.562  14.575  19.789  0.2182  0.0113  0.0904
17124W        W60115  27.376  32.350   5.048  0.2002  0.1615 -0.2847
17125W        W60116  14.993  25.287   8.812  0.1063 -0.0846 -0.0065
17126W        W60117  32.700  20.243  16.605 -0.1820  0.0777  0.1949
17127W        W60118   5.817  34.780  26.679 -0.3349 -0.1359  0.0036
17128W        W60119   5.605  27.357  16.059  0.1532 -0.1493 -0.0605
17129W        W60120  20.197  21.187  18.017  0.1018  0.2840 -0.3543
17130W        W60121  27.532  34.673  23.436 -0.0715 -0.1566 -0.0065
17131W        W60122  34.273  31.021  14.747 -0.2826  0.0530  0.0921
17132W        W60123  17.294  31.291  21.396  0.0387 -0.0951  0.0469
17133W        W60124  12.069  15.207  13.649  0.0999 -0.0183  0.4149
17134W        W60125  25.616  28.109  13.787  0.1238  0.2361  0.1142
17135W        W60126  26.399  10.687  28.944 -0.1061  0.3226  0.0805
17136W        W60127  27.602  31.121  24.930 -0.1184 -0.3065  0.1877
17137W        W60128  33.118  32.227  25.866  0.2244 -0.2364  0.0632
17138W        W60129   5.462  14.090  28.359 -0.1613  0.2020 -0.1785
17139W        W60130  28.933  17.712  17.806 -0.1106  0.3367 -0.0547
17140W        W60131  14.235   6.844  24.113 -0.1248  0.0614 -0.1715
17141W        W60132  20.088  32.640  23.408 -0.0282 -0.1359  0.3945
17142W        W60133   7.311   1.598  18.130 -0.2844 -0.0211 -0.1369
17143W        W60134  11.001  33.207  18.271 -0.0748 -0.1111 -0.1580
17144W        W60135  33.287  12.355  28.842  0.0580 -0.0607  0.1457
17145W        W60136   4.058   9.838  15.845 -0.1558 -0.1966 -0.1070
17146W        W60137  31.134   7.433  24.704  0.2315 -0.1418  0.0086
17147W        W60138  22.615   9.503   8.510  0.2049 -0.1941 -0.0300
17148W        W60139  17.643  29.793  14.330 -0.1486 -0.0586 -0.0202
17149W        W60140  20.130  34.473   6.273  0.2106 -0.4430  0.2847
17150W        W60141  33.403  28.466  23.258  0.1149 -0.1600  0.0006
17151W        W60142  10.980  11.163  27.914  0.0634  0.2663 -0.3268
17152W        W60143  24.865  11.439  20.506 -0.1164 -0.0145 -0.1558
17153W        W60144  13.434   6.377   9.579 -0.0609  0.1206  0.0921
17154W        W60145  15.109  10.718  10.061 -0.0055  0.1136 -0.0051
17155W        W60146   5.483  13.846  26.586 -0.1282  0.1052  0.2093
17156W        W60147  23.638  31.101  16.403 -0.1464 -0.1504  0.0365
17157W        W60148   4.622  25.951  19.612  0.3215 -0.1599 -0.0099
17158W        W60149  24.277  27.929   4.809 -0.1877 -0.3888 -0.3688
17159W        W60150  25.921  20.882  25.398  0.1178  0.0528 -0.0601
17160W        W60151  21.492  15.906   1.305 -0.1662 -0.1020 -0.1031
17161W        W60152  27.568   6.224  18.701 -0.1086 -0.1434  0.4073
17162W        W60153  30.694  21.465  24.640 -0.3268 -0.1355 -0.1157
17163W        W60154  11.928  27.439  21.444  0.0445 -0.2301  0.0522
17164W        W60155  21.957  34.084  28.459 -0.1865 -0.0084 -0.0291
17165W        W60156  33.663   6.555  26.232 -0.0378  0.0274 -0.1164
17166W        W60157  26.441  14.677  23.983 -0.2369 -0.3280  0.0109
17167W        W60158  10.535   2.883  14.983 -0.1677  0.1362  0.3066
17168W        W60159  27.495  18.956  25.105  0.0117  0.1765  0.0268
17169W        W60160  20.169   1.838  19.935  0.0982 -0.3518 -0.0191
17170W        W60161   6.671  14.849  24.662  0.1508  0.3319  0.1893
17171W        W60162  30.832  18.652  18.447 -0.0607 -0.3629 -0.0694
17172W        W60163  28.106  26.317  29.244  0.1892  0.3821 -0.2709
17173W        W60164  22.582  13.264  20.068 -0.3695  0.0143  0.1934
17174W        W60165   9.500   5.705   1.418 -0.4466  0.0478  0.0133
17175W        W60166  22.355   8.761  18.622 -0.1538  0.0704 -0.1395
17176W        W60167   9.056  16.704   2.173 -0.0563  0.2115 -0.2584
17177W        W60168  25.147  28.498  14.862  0.1923 -0.1271  0.3150
17178W        W60169  23.595   1.409  17.282 -0.0355  0.0474  0.0202
17179W        W60170  32.503  21.848  22.876 -0.1903  0.2351  0.1669
17180W        W60171   7.988   8.952  14.629 -0.1791 -0.0805 -0.1650
17181W        W60172   0.429   0.905   2.573  0.3166 -0.1146  0.0341
17182W        W60173  21.259   4.030  18.595  0.1868  0.0231  0.0710
17183W        W60174  29.416   1.497  23.863 -0.4424 -0.1555  0.1605
17184W        W60175   4.941  15.796  19.141 -0.2146  0.1907 -0.0626
17185W        W60176  33.552   0.507   4.377  0.0690  0.0212 -0.1727
17186W        W60177   3.849  31.384   4.520  0.0533 -0.0573  0.3049
17187W        W60178  33.209  34.483   2.912  0.0156 -0.3286  0.1126
17188W        W60179  31.322  27.937   5.494  0.1523 -0.2085  0.2015
17189W        W60180  23.665  22.790  27.311 -0.1996 -0.1192  0.1936
17190W        W60181  22.332  19.993  13.546  0.0604  0.1165 -0.0526
17191W        W60182  10.528  28.079   2.131  0.2934  0.1810 -0.0246
17192W        W60183  22.736   6.313  17.348 -0.2289  0.2850 -0.3024
17193W        W60184  24.764   2.694   8.866  0.1775 -0.1194 -0.0661
17194W        W60185  20.057  13.642  21.540  0.3565 -0.0471  0.2481
17195W        W60186  28.124  10.764  19.587  0.2067  0.1367 -0.1219
17196W        W60187  26.223  30.669   2.230  0.0505  0.2216 -0.0403
17197W        W60188  21.797   3.157  13.691  0.1206  0.1633  0.0015
17198W        W60189  32.051  27.829  15.733  0.0361  0.1045  0.0872
17199W        W60190  20.585   3.969  13.947  0.0133  0.0829 -0.3509
17200W        W60191   9.956   0.247  23.415 -0.0482  0.1271 -0.0088
17201W        W60192  26.561  29.788  18.519 -0.0446 -0.4243  0.1288
17202W        W60193  33.575  22.956   4.358 -0.1051 -0.2225 -0.0569
17203W        W60194  21.785  16.282  20.727  0.0752 -0.2496 -0.3506
17204W        W60195  23.812   7.102  27.077  0.0620  0.1598  0.0579
17205W        W60196  11.466   8.385  26.596 -0.2930 -0.0316  0.2970
17206W        W60197  23.749  31.952   8.140  0.0883 -0.0902  0.0298
17207W        W60198  26.748   7.183   3.958  0.0637  0.1325 -0.2192
17208W        W60199  27.455  27.905  24.683  0.2974  0.0193  0.2623
17209W        W60200  32.179   4.332   0.179 -0.2088 -0.0764 -0.1222
17210W        W60201  26.270   7.147  24.417  0.1916  0.1186  0.2159
17211W        W60202   0.277   3.706  23.193 -0.0591 -0.1224  0.2860
17212W        W60203   3.572  29.822  22.282  0.2361 -0.1603  0.1142
17213W        W60204   4.236  30.482   7.105 -0.0641  0.0641  0.1582
17214W        W60205  32.498  21.119   8.545  0.0506  0.1466  0.0460
17215W        W60206  29.661  28.403  28.359  0.1900  0.0155 -0.2611
17216W        W60207  19.905  11.552  29.050 -0.1407  0.0416  0.0348
17217W        W60208  16.521  13.589   1.018  0.1509 -0.2103 -0.0197
17218W        W60209  17.584  11.107  19.057  0.1787 -0.1012  0.1082
17219W        W60210  26.876  30.548  29.029  0.0435 -0.1879  0.1752
17220W        W60211  18.523  16.128   8.336 -0.0486  0.0098 -0.0266
17221W        W60212  26.691  24.582   2.404 -0.1690 -0.0237 -0.2671
17222W        W60213  25.688  15.001  28.903 -0.2797 -0.0874  0.1204
17223W        W60214  17.736  27.215   7.731  0.0402 -0.1916 -0.1975
17224W        W60215  22.600   5.819   9.014  0.3636  0.1037 -0.1947
17225W        W60216  13.857   5.516  29.212  0.1606  0.2586 -0.0685
17226W        W60217  15.291  27.890   4.150  0.1570 -0.2231  0.1180
17227W        W60218  22.624  11.775   9.444  0.1016 -0.2338  0.1347
17228W        W60219  29.547  33.722  15.195 -0.1029 -0.2883  0.1397
17229W        W60220  10.955  24.016   7.889  0.0324  0.3471 -0.0552
17230W        W60221   6.123  22.918  23.287 -0.1646  0.2074 -0.0717
17231W        W60222   2.651   7.448  20.974  0.0962  0.1226 -0.1710
17232W        W60223  26.461  31.807  27.487 -0.2012  0.1706  0.0450
17233W        W60224  27.157   6.361   6.892  0.4105 -0.2721  0.0479
17234W        W60225  21.451  22.716  15.735  0.1808  0.0475 -0.3742
17235W        W60226  33.523  29.264   4.302 -0.1814  0.4258 -0.0732
17236W        W60227  10.322   5.126  27.476 -0.4448  0.1806 -0.4207
17237W        W60228  31.172   6.309  19.204 -0.2334  0.0061  0.0227
17238W        W60229  18.705   3.616  26.383 -0.1130 -0.2490 -0.1186
17239W        W60230   9.340   0.241  10.005  0.4170 -0.0950 -0.0003
17240W        W60231  21.637  25.423  20.284 -0.1342  0.2554  0.1490
17241W        W60232  21.300   3.433  28.127  0.1426  0.2201 -0.0203
17242W        W60233  19.029  10.113   0.833  0.1089 -0.1221 -0.0251
17243W        W60234  31.609  19.093   9.889 -0.0814  0.0959  0.1346
17244W        W60235  11.176  18.525   0.965  0.2953 -0.0207 -0.2324
17245W        W60236  28.685  28.730   5.612  0.2918 -0.1175 -0.1650
17246W        W60237  16.380   9.691  25.971 -0.1532  0.0516  0.2553
17247W        W60238  20.792   8.310   8.914  0.2738 -0.2237 -0.3488
17248W        W60239  21.517   3.524  26.067 -0.0883 -0.0181  0.0996
17249W        W60240  25.110  12.572  25.276  0.0883 -0.0745  0.2197
17250W        W60241   5.982  33.116   1.933 -0.2190 -0.1018 -0.1689
17251W        W60242  26.251   0.264   7.730 -0.2145  0.1478 -0.0099
17252W        W60243   3.028  20.370  23.019 -0.0675  0.0997  0.1492
17253W        W60244  26.788  32.497  17.135 -0.0511 -0.0494  0.2397
17254W        W60245  29.033  30.410  17.569 -0.0880 -0.0927  0.0507
17255W        W60246   1.035   4.310   8.134 -0.0923 -0.1578  0.0101
17256W        W60247  25.115   9.852  21.283 -0.3349 -0.0798  0.3343
17257W        W60248  25.583   3.129  23.931 -0.2863  0.1638  0.1732
17258W        W60249   3.859   2.483   9.829 -0.2012 -0.1843  0.1084
17259W        W60250  19.791   1.867  14.309 -0.0447  0.0463  0.1557
17260W        W60251  29.266  11.488  19.515 -0.1313 -0.1692  0.1649
17261W        W60252  17.806   1.701  17.466  0.2136 -0.0571  0.2947
17262W        W60253  28.565  33.081  24.762  0.2274 -0.0972  0.1177
17263W        W60254  26.142  28.899  29.066 -0.0964  0.1827 -0.0318
17264W        W60255  16.627  22.925   4.590  0.3801  0.1224 -0.0109
17265W        W60256   4.503   9.143   4.719 -0.0745  0.2775  0.0561
17266W        W60257   2.384  10.159  21.515 -0.0739  0.0483  0.0566
17267W        W60258  11.860  15.537  26.874 -0.1312  0.0946 -0.0347
17268W        W60259  31.748   6.263  25.374  0.3148  0.2439  0.0295
17269W        W60260   0.997   3.597  29.013 -0.1093 -0.1805  0.2710
17270W        W60261  19.147  14.837  20.875  0.6123 -0.2232  0.0511
17271W        W60262  29.515  30.088  13.798  0.1156 -0.0683 -0.0220
17272W        W60263   3.730  27.279  19.055  0.1306  0.2314 -0.0062
17273W        W60264  33.003   7.093  29.145 -0.1994 -0.2151 -0.0821
17274W        W60265  17.029  25.664   3.253  0.1342 -0.1984 -0.0478
17275W        W60266  18.552   0.523   1.059 -0.2459  0.7009 -0.1258
17276W        W60267  17.589   6.058  29.159  0.0587  0.1568  0.1107
17277W        W60268  20.793   7.723  14.827  0.0518  0.2259 -0.1272
17278W        W60269  28.244  25.601  27.469 -0.0881  0.2016  0.3408
17279W        W60270   9.649  33.645  28.742  0.0133 -0.0120  0.3695
17280W        W60271   2.252  33.816  27.818  0.2951  0.0493  0.1044
17281W        W60272  14.485  34.733  27.806 -0.1339  0.3573  0.0494
17282W        W60273  34.011   0.777  16.772 -0.4144  0.0220 -0.0524
17283W        W60274  22.570   6.720  20.604  0.3460  0.2515 -0.1510
17284W        W60275  31.798   6.121  24.846  0.0924 -0.0452  0.0335
17285W        W60276   5.843  13.571  19.074  0.1100 -0.2193 -0.0715
17286W        W60277  25.902  27.549  21.236  0.1968 -0.1955  0.3816
17287W        W60278  21.184   3.484   7.485  0.2503 -0.1677 -0.1331
17288W        W60279   2.060  27.772  24.268 -0.1316 -0.1989  0.1058
17289W        W60280  26.086  13.140  25.920 -0.0881  0.1129 -0.1038
17290W        W60281  11.192   9.037  19.417 -0.1736  0.0645  0.1083
17291W        W60282  30.604  12.956  19.612  0.1856 -0.1449 -0.1848
17292W        W60283   1.118  20.728   5.947 -0.1880 -0.1945 -0.0417
17293W        W60284  23.712  13.005   3.148 -0.1165  0.1313 -0.5103
17294W        W60285  21.904  10.726  28.657 -0.0276  0.1080  0.0391
17295W        W60286  34.669  28.211  22.437 -0.0122  0.2912  0.0706
17296W        W60287   4.091  14.049  24.443 -0.1820  0.0787  0.1278
17297W        W60288  32.780  33.039  16.429  0.1703 -0.0297  0.1783
17298W        W60289  12.842  17.270  22.037 -0.1343  0.2270  0.2600
17299W        W60290  19.181  29.685   5.669  0.1606 -0.0932  0.0639
17300W        W60291  10.102  11.088   9.290  0.0921  0.0604 -0.1914
17301W        W60292  25.527  11.110  23.179  0.0743  0.0784 -0.3238
17302W        W60293  26.415  28.928  28.007  0.2027 -0.0311 -0.0941
17303W        W60294  15.756  27.244  21.291  0.0299 -0.1164 -0.0239
17304W        W60295  14.591   7.288  28.316 -0.0141 -0.1934 -0.1097
17305W        W60296   6.236  30.246   3.131 -0.1456  0.3157 -0.1239
17306W        W60297  28.167   4.476  24.158 -0.1741 -0.0595  0.1694
17307W        W60298  21.501   4.422  14.358 -0.4531 -0.2965  0.2362
17308W        W60299   0.422  33.127   2.130 -0.1117  0.1702 -0.1082
17309W        W60300  28.520  20.025   0.906 -0.0785 -0.0030  0.1807
17310W        W60301  29.167   7.164   9.574  0.0800  0.0413  0.1536
17311W        W60302  20.221   6.254   0.857 -0.0762  0.0438 -0.3824
17312W        W60303  22.268  31.187  17.973 -0.1131 -0.0883  0.0277
17313W        W60304  18.595  31.538  13.748  0.2616  0.2031 -0.0915
17314W        W60305  22.380  25.577   3.946  0.0037  0.1188  0.0751
17315W        W60306  34.021  11.875  23.922 -0.0929 -0.2266 -0.0471
17316W        W60307  20.497  19.632  13.878 -0.2660 -0.0766  0.1598
17317W        W60308   2.124  15.182  25.280  0.1859  0.0692  0.3035
17318W        W60309  18.597   4.567  23.909 -0.0844 -0.1676 -0.2256
17319W        W60310  21.620  33.710  19.963 -0.1643  0.1161 -0.1419
17320W        W60311  29.713   6.249   1.043  0.1954  0.0380 -0.0062
17321W        W60312  32.836  27.931   7.905  0.2862 -0.1007  0.0643
17322W        W60313  17.823  33.154  18.537 -0.0535 -0.0697  0.1713
17323W        W60314  25.407   9.906  10.406 -0.1465  0.3281 -0.2490
17324W        W60315   7.325   7.100  10.233  0.1103 -0.2536  0.0098
17325W        W60316   7.249  17.543  18.660 -0.2550  0.0935 -0.2149
17326W        W60317  20.080  31.084  16.405 -0.0236  0.1457  0.1658
17327W        W60318  28.154  33.351  19.988  0.1359  0.1045 -0.0782
17328W        W60319  25.326   4.533  19.054  0.0578 -0.1896  0.0044
17329W        W60320  21.079  17.375  22.065 -0.1993  0.0838  0.0794
17330W        W60321   0.450  34.479  16.885 -0.4749 -0.2742  0.2826
17331W        W60322  26.229  11.137  19.357  0.2090  0.0090  0.2343
17332W        W60323   3.544   4.598   6.378  0.3908  0.0025  0.0960
17333W        W60324  27.496   8.094  17.419 -0.1414  0.1360  0.1561
17334W        W60325  28.028   7.438   4.918  0.0064 -0.0836  0.0314
17335W        W60326   2.537   2.778  20.275 -0.2639  0.2091 -0.2534
17336W        W60327  28.913  10.118  20.951  0.0159  0.4333 -0.1184
17337W        W60328  34.018  22.230  16.698 -0.1649 -0.2813 -0.0676
17338W        W60329  16.397  30.293   0.428 -0.1032  0.1592  0.1355
17339W        W60330  20.832  12.489  24.129  0.2023 -0.3922 -0.2081
17340W        W60331  25.599  16.130  18.282  0.1078 -0.2573 -0.3571
17341W        W60332   3.183  26.371  16.679  0.0805 -0.1915  0.0183
17342W        W60333   1.854  29.021   1.725  0.0289 -0.1932  0.3897
17343W        W60334  28.399   9.910  21.875  0.0428  0.0636  0.1984
17344W        W60335  28.536  30.699   3.465 -0.1548 -0.1583 -0.4298
17345W        W60336  31.685   8.073   4.314 -0.0541 -0.1379 -0.3224
17346W        W60337  22.589  30.278   2.041 -0.1609 -0.0462  0.1257
17347W        W60338   8.078   5.773   1.310  0.0284 -0.0457 -0.0649
17348W        W60339  32.649   2.894  21.557 -0.3567  0.1118  0.1062
17349W        W60340  19.762  30.844   6.176 -0.0194  0.0258  0.0605
17350W        W60341  25.709  12.911  20.039  0.3629 -0.0931 -0.3549
17351W        W60342  25.899  11.358  25.875  0.1376 -0.1351 -0.4140
17352W        W60343  13.620  27.881   1.682  0.3366  0.1921  0.0795
17353W        W60344  21.039   9.671  24.966 -0.0166 -0.1832 -0.0881
17354W        W60345   3.273   1.889   4.214  0.1012 -0.1715 -0.0148
17355W        W60346  24.928  24.544   7.939  0.2710  0.2292 -0.2172
17356W        W60347  18.217   1.611   9.239  0.0868  0.4262  0.0157
17357W        W60348   3.606  27.173   8.976 -0.2229  0.0274  0.1310
17358W        W60349  27.645   6.673  14.601  0.1277 -0.1146  0.0660
17359W        W60350  22.702   0.704  27.535 -0.1659 -0.1049 -0.1946
17360W        W60351   5.563  28.403   3.002  0.0115 -0.0811  0.0545
17361W        W60352  30.925   9.267  26.471  0.0986 -0.2191  0.0002
17362W        W60353  34.491  13.367   7.154  0.3512 -0.5039  0.0119
17363W        W60354  25.245  20.699  17.495 -0.0156 -0.2826  0.3172
17364W        W60355  24.817   6.817   3.303  0.1496  0.0684  0.1952
17365W        W60356  25.880   2.008  22.699  0.1053  0.1060  0.2022
17366W        W60357   6.608  21.615  28.481 -0.1521  0.2694  0.0366
17367W        W60358  28.901   0.219  18.291  0.0443  0.4625  0.0835
17368W        W60359  24.133  32.751  14.294 -0.1002 -0.0338 -0.2420
17369W        W60360  31.749  13.403   7.321  0.1125 -0.3032  0.2143
17370W        W60361   2.534  21.433   0.587 -0.2343 -0.1812 -0.1444
17371W        W60362  22.612  25.856   6.010  0.0583  0.1194 -0.1967
17372W        W60363  25.759   7.716  26.340 -0.0319 -0.0714  0.4997
17373W        W60364  28.490   8.038  19.127 -0.4477  0.0858  0.3534
17374W        W60365  14.635  14.915  28.293  0.2453  0.2711  0.1700
17375W        W60366  26.242   7.930  19.458  0.0220  0.0430  0.2663
17376W        W60367  23.651   0.908  17.095 -0.0388  0.0632  0.3561
17377W        W60368  28.894  32.116  17.818  0.1919 -0.0638  0.0057
17378W        W60369   2.833  13.495  17.662  0.0040  0.0105  0.0035
17379W        W60370   1.669  10.119  19.344  0.1252  0.4093 -0.1575
17380W        W60371  13.486  29.882  14.785  0.0417 -0.1885 -0.2327
17381W        W60372  24.816  14.828  21.613 -0.1728 -0.1292  0.0655
17382W        W60373   0.449  26.211   9.843  0.0856  0.0753 -0.0947
17383W        W60374  25.198  14.345  23.743 -0.1344 -0.1600  0.0393
17384W        W60375  17.016  23.338   1.654 -0.1786 -0.1372  0.1037
17385W        W60376  18.059  11.402  15.194  0.2668  0.1299  0.1659
17386W        W60377   5.765  24.672  28.653 -0.0102 -0.0997  0.3012
17387W        W60378  21.301  22.450   8.614  0.1763 -0.0306  0.0129
17388W        W60379   3.788  30.359   1.830 -0.3291  0.1446 -0.0980
17389W        W60380  31.848  14.098  16.228 -0.1578  0.2000  0.0563
17390W        W60381  18.578  32.104  23.370 -0.0601  0.1240 -0.1419
17391W        W60382  28.965  34.711  17.899  0.2062 -0.2493  0.2793
17392W        W60383  19.533   8.030  28.176  0.0267  0.0109  0.1468
17393W        W60384   8.949  17.153   9.854  0.2613  0.2500 -0.0765
17394W        W60385  31.395  19.004  23.654  0.0638  0.1490  0.1528
17395W        W60386   9.942  10.799   5.967  0.1207 -0.0932  0.1770
17396W        W60387  29.365  27.717  25.027  0.1422  0.1648  0.3164
17397W        W60388  32.835   1.283  23.991  0.1864 -0.1979 -0.0570
17398W        W60389   9.948  16.569  19.910  0.2288  0.0737  0.0068
17399W        W60390   2.701  13.599  17.040  0.0654 -0.3405  0.2909
17400W        W60391  18.850  34.592   8.960  0.2324  0.2076 -0.2547
17401W        W60392  24.043  24.209   8.959 -0.3985 -0.1911  0.1382
17402W        W60393  14.878   9.350   4.107 -0.0309  0.0037 -0.0629
17403W        W60394  14.129  12.411  15.413  0.0213  0.0836 -0.1301
17404W        W60395  26.445   8.745  22.606 -0.0661  0.1304  0.0297
17405W        W60396  26.018  27.734  24.182 -0.1944 -0.0351 -0.1834
17406W        W60397  21.748   9.666  14.368  0.1079 -0.2401 -0.3265
17407W        W60398  17.558  28.760  21.035 -0.0974 -0.2165 -0.0641
17408W        W60399  33.676   8.339  28.715 -0.2451 -0.2118 -0.0374
17409W        W60400  16.659  30.671   0.780  0.1148  0.0626  0.0762
17410W        W60401  22.619  18.307   4.976  0.0226  0.0198  0.1860
17411W        W60402  30.711  16.321   4.108  0.2702 -0.1426  0.0942
17412W        W60403  32.125  29.429  21.504  0.1634  0.0554 -0.0450
17413W        W60404  18.627  28.249   6.801  0.0661  0.0791 -0.0149
17414W        W60405  25.623  28.457   4.044  0.0235  0.2134 -0.1511
17415W        W60406  10.015   2.750   6.067 -0.0687  0.1494 -0.3380
17416W        W60407   5.688   2.637  21.089 -0.2065  0.3230  0.0364
17417W        W60408  30.127  32.130   5.190  0.3323  0.1139 -0.1087
17418W        W60409  30.543   0.622   1.728 -0.1530 -0.2104 -0.0101
17419W        W60410  31.139  34.572  13.853  0.2988  0.2770  0.1157
17420W        W60411  29.729  12.896  27.085 -0.0709  0.1665  0.2758
17421W        W60412   4.897   3.376  24.845 -0.0331 -0.0704  0.1021
17422W        W60413  26.204   0.808  23.040 -0.0145  0.3640 -0.0431
17423W        W60414  16.171  15.484   1.949 -0.1733 -0.0002 -0.2542
17424W        W60415  21.375  32.424  13.775  0.2067 -0.2140  0.2321
17425W        W60416  34.113  32.345  17.047  0.1666  0.0837 -0.2266
17426W        W60417  16.255  16.815   2.900 -0.0451 -0.0145 -0.2319
17427W        W60418  11.823  19.799  13.529  0.0930  0.0668  0.2201
17428W        W60419   0.763   4.795   6.267  0.0647 -0.1171 -0.0954
17429W        W60420  28.756   9.219  19.061 -0.0471 -0.0328  0.1188
17430W        W60421  12.445  13.883  18.490 -0.1409 -0.1617  0.1579
17431W        W60422  33.557  10.533   3.141 -0.0208 -0.0112 -0.1713
17432W        W60423  33.849  28.545   8.580  0.0861  0.1210 -0.0358
17433W        W60424  19.893  32.785  24.523 -0.0441 -0.2205 -0.1627
17434W        W60425  29.850   4.561   6.867 -0.2575 -0.2543 -0.0038
17435W        W60426  12.770  14.715  24.415  0.0071 -0.0588 -0.2389
17436W        W60427  22.884   0.622  25.897 -0.1460  0.4065 -0.1013
17437W        W60428  25.585   9.016  20.812 -0.1209 -0.0696  0.2650
17438W        W60429  20.215  28.132   1.527 -0.2583 -0.0330  0.0058
17439W        W60430  21.936  29.913  21.521  0.0245  0.1588 -0.0519
17440W        W60431  28.241  12.087   9.897  0.1810 -0.2008  0.0409
17441W        W60432  18.724  27.625   1.855 -0.1884  0.1811  0.0805
17442W        W60433  23.938  20.329  21.358  0.0729  0.0928  0.0337
17443W        W60434  24.104  24.906   9.618 -0.0114  0.2394  0.0263
17444W        W60435  33.623   6.537  14.852 -0.1094  0.0540  0.3401
17445W        W60436  28.460   7.289  28.195 -0.1248  0.0604  0.0890
17446W        W60437  33.478  21.473  23.688 -0.2349  0.0426 -0.2524
17447W        W60438  20.136  12.903   3.374  0.1959  0.2080 -0.0647
17448W        W60439  24.422  33.917  17.101 -0.0693 -0.4363 -0.2041
17449W        W60440  27.582   9.759   1.791 -0.0953  0.3032  0.1065
17450W        W60441  22.957   4.787  28.811 -0.0737 -0.1417  0.1378
17451W        W60442  18.517   7.538  28.897  0.1805 -0.1981 -0.1043
17452W        W60443   1.726   2.504  27.743  0.0710  0.0473  0.2473
17453W        W60444  20.203  31.231   1.397 -0.0601  0.1337 -0.1202
17454W        W60445  28.985   9.607  25.340  0.1510 -0.3206  0.1514
17455W        W60446  29.824   8.938  16.729 -0.0308  0.1779 -0.0512
17456W        W60447  30.955  33.894  25.934  0.1837 -0.1654 -0.1410
17457W        W60448  16.706   4.242  19.994 -0.3989  0.1983 -0.0141
17458W        W60449  20.749  33.897  27.363  0.3508 -0.0594 -0.1052
17459W        W60450  34.795  19.080  15.484 -0.0325  0.2150 -0.0589
17460W        W60451  27.262   0.022   1.737  0.1276  0.0957 -0.0493
17461W        W60452  24.048  34.144   4.805  0.1138 -0.1855 -0.0185
17462W        W60453  22.374  24.018   8.104  0.4271  0.3646  0.2582
17463W        W60454  20.208   5.661  24.511  0.1155  0.0123 -0.1118
17464W        W60455  25.230  10.804  15.540  0.2233  0.0791 -0.2525
17465W        W60456  27.030  12.627   7.710 -0.0577 -0.0142  0.1859
17466W        W60457   0.337  17.611  10.833  0.2205  0.2014 -0.0315
17467W        W60458  30.234  19.046   2.930 -0.2487 -0.0999  0.0269
17468W        W60459   7.724  12.399  21.128 -0.2612 -0.0391 -0.1918
17469W        W60460  32.066  16.888   5.842  0.2184  0.0161 -0.0051
17470W        W60461  33.883  14.598  17.767  0.0817  0.0529 -0.0272
17471W        W60462   0.828  29.834   8.480 -0.0283  0.0151 -0.2586
17472W        W60463  25.713   6.426  19.363 -0.4089  0.2380  0.0582
17473W        W60464   1.558  33.205  14.752 -0.0303 -0.1615 -0.1617
17474W        W60465  20.052   5.563  24.075  0.2226  0.4154  0.0583
17475W        W60466  33.231  17.469   2.072  0.2026  0.1744 -0.1030
17476W        W60467  25.224   2.743   9.259  0.0864  0.3553 -0.0102
17477W        W60468   4.986  26.004  16.139  0.0318 -0.0076 -0.1688
17478W        W60469  21.949   1.409  17.387  0.1497 -0.1290  0.2898
17479W        W60470  20.536   8.968  28.588  0.1491  0.1912  0.3498
17480W        W60471   4.639  31.230  19.537  0.2303  0.1470 -0.1307
17481W        W60472  28.057   5.419  27.007 -0.2875  0.1457 -0.1211
17482W        W60473  19.611  23.611  12.956 -0.0257 -0.1974  0.0653
17483W        W60474  27.020  26.140  16.955 -0.2315  0.3650 -0.1261
17484W        W60475  19.899   1.827   8.211 -0.1047 -0.3672  0.0304
17485W        W60476  28.054  16.567   5.686  0.0699 -0.0417  0.0008
17486W        W60477  30.173  13.856  21.811  0.2828  0.2884 -0.0617
17487W        W60478  26.637  10.269  24.892  0.0451 -0.1265  0.2411
17488W        W60479  27.530   6.424  21.712 -0.0952 -0.0898  0.0582
17489W        W60480   4.356   5.671  27.930 -0.3298  0.0511 -0.2227
17490W        W60481   0.956  33.980   0.291  0.0577 -0.0521  0.2213
17491W        W60482  13.527  23.418  22.815  0.3551  0.0146 -0.2284
17492W        W60483  22.986  30.901  15.871  0.1560 -0.3581  0.0344
17493W        W60484  33.153   1.843   9.289 -0.1339  0.0146 -0.2755
17494W        W60485   5.693  15.513   6.286 -0.1416  0.1220  0.1459
17495W        W60486   7.450   6.256  23.792 -0.2161  0.3132  0.0384
17496W        W60487  20.160  15.536  13.743 -0.0662 -0.2474  0.4425
17497W        W60488  26.975  27.380   0.784  0.0995 -0.1351  0.0391
17498W        W60489  27.572   6.115   2.973 -0.3866  0.1773  0.1071
17499W        W60490  28.181  15.573   1.040 -0.2131 -0.1829 -0.2241
17500W        W60491  11.364  26.381  22.592 -0.3287  0.2197 -0.2083
17501W        W60492   4.580  13.142  19.059 -0.0063  0.3310  0.2384
17502W        W60493   9.307  28.940   2.034 -0.1151 -0.2339 -0.1068
17503W        W60494  14.243  20.493  26.288 -0.1464 -0.0247 -0.0765
17504W        W60495  26.748  32.527  17.886 -0.3516  0.1982  0.2198
17505W        W60496  19.651  34.115  24.753  0.1722  0.1945  0.2096
17506W        W60497  26.534   3.575  14.341  0.0541  0.2874 -0.0333
17507W        W60498   4.033   7.971  19.573  0.0628  0.0643 -0.2472
17508W        W60499  21.836  14.767   9.889  0.1424  0.0326  0.2939
17509W        W60500  24.185   9.402  27.992 -0.0958  0.0222 -0.4466
17510W        W60501  27.411  21.098  27.245  0.0776  0.2683 -0.0199
17511W        W60502  17.722   4.374   5.993  0.2159  0.0627  0.1928
17512W        W60503  22.047  17.962  26.582 -0.0769 -0.3213  0.0338
17513W        W60504  13.624   7.084  22.161  0.0143  0.0662 -0.1401
17514W        W60505  29.892   7.634   3.416  0.2822 -0.0565 -0.1417
17515W        W60506   7.945  33.068   1.745 -0.0102 -0.1015 -0.0678
17516W        W60507  26.705   2.988   4.429 -0.2125  0.0708 -0.2178
17517W        W60508  34.670  18.809   7.634 -0.0121  0.1577 -0.0812
17518W        W60509  15.880  10.104  21.247  0.0989 -0.2738  0.0564
17519W        W60510  21.250  17.673  26.704  0.2388  0.1707 -0.2767
17520W        W60511  29.540   3.300  14.780 -0.0714  0.0451  0.2724
17521W        W60512  21.477  30.099   7.506  0.0164  0.2013  0.2823
17522W        W60513  12.214  32.006  19.682  0.0010 -0.1853  0.1125
17523W        W60514  23.620  34.421   6.960  0.4856  0.0067  0.1575
17524W        W60515  33.088  11.153   5.463  0.0548 -0.1576 -0.0416
17525W        W60516   6.388  16.716   3.270 -0.1842  0.1569 -0.4157
17526W        W60517  33.243  12.441   6.572 -0.0780  0.0859  0.0261
17527W        W60518  33.117   3.281  20.895 -0.0606 -0.1099 -0.1788
17528W        W60519  26.424  29.016  24.336  0.2023 -0.0612 -0.0647
17529W        W60520  24.609  33.968  21.235 -0.2121  0.1132  0.2194
17530W        W60521  31.289  28.492   8.713 -0.1374  0.3196 -0.2520
17531W        W60522   5.676   6.857  26.506  0.1256  0.0558 -0.1677
17532W        W60523   9.918   2.387   9.028  0.0840 -0.1001  0.1202
17533W        W60524  19.230  19.560  24.314 -0.0129 -0.2036 -0.2816
17534W        W60525  32.006  18.288   4.097  0.0961 -0.0793 -0.2153
17535W        W60526  29.097   5.150  14.559 -0.0575  0.0765  0.5460
17536W        W60527   7.056  16.896  17.362 -0.1794  0.1695  0.1886
17537W        W60528  11.249  24.466  28.653  0.0439  0.0824 -0.0455
17538W        W60529  30.405  30.652  14.541  0.1716 -0.1002 -0.1847
17539W        W60530  24.132   1.164  22.632  0.1309 -0.0383 -0.1168
17540W        W60531  23.969   1.046   9.684  0.2122 -0.3110 -0.1223
17541W        W60532  26.303  16.421  18.617 -0.1057 -0.0834 -0.1059
17542W        W60533  16.467  25.593   0.107  0.3495 -0.1274 -0.0814
17543W        W60534  25.637  24.683  21.065 -0.1931  0.0994 -0.1677
17544W        W60535  24.389  14.859  25.408 -0.3633 -0.0714  0.0229
17545W        W60536  10.420  29.256   2.271  0.3494 -0.0899  0.0402
17546W        W60537  20.900  19.250  27.225  0.0294 -0.0454 -0.1510
17547W        W60538  19.019  26.107  28.992 -0.1950  0.0368  0.2930
17548W        W60539  12.847   0.633  25.973 -0.1788  0.1815 -0.0374
17549W        W60540  19.612  24.039   5.794 -0.0258  0.1024  0.1936
17550W        W60541  27.182   9.757  26.826  0.0954 -0.3022 -0.1567
17551W        W60542  29.139  14.133  24.433 -0.1729 -0.0929  0.1080
17552W        W60543  27.456   3.438   7.342  0.0409 -0.0015 -0.2481
17553W        W60544   4.200  10.172   2.044 -0.0458  0.0611  0.4328
17554W        W60545  33.337  33.297  22.590  0.3053  0.0749 -0.0896
17555W        W60546   8.677  31.616  14.785  0.3370 -0.1443  0.3006
17556W        W60547  29.201   2.388  15.309  0.1367  0.0816  0.0703
17557W        W60548  18.896   1.673   1.169  0.0538  0.0126 -0.0392
17558W        W60549   0.378  13.020  16.544  0.2371 -0.2704 -0.0805
17559W        W60550  32.483   9.866  26.889  0.0473  0.0762 -0.0560
17560W        W60551   2.928  25.471   7.849 -0.2489  0.0771  0.0714
17561W        W60552   4.897   2.004  10.355 -0.1739  0.1918 -0.0959
17562W        W60553  10.153   9.030  27.891 -0.3390 -0.0202 -0.0614
17563W        W60554  17.644   1.668  27.699  0.0055  0.1601  0.0769
17564W        W60555  34.395   1.319   8.291 -0.1459 -0.2529  0.0183
17565W        W60556  25.517  10.752  26.901 -0.2932  0.1793  0.0677
17566W        W60557  17.197  15.067  22.624 -0.1594 -0.0460  0.1481
17567W        W60558   7.901   1.786  27.240  0.1765  0.3070  0.0410
17568W        W60559  24.436  10.807  17.793  0.1837 -0.1231 -0.1994
17569W        W60560  19.732  16.799  23.567 -0.0967 -0.1294 -0.3218
17570W        W60561  19.400  10.415   1.712 -0.2597  0.1489  0.2237
17571W        W60562  33.142  10.722  15.997 -0.1657  0.1139 -0.3602
17572W        W60563  32.666  10.820   5.799  0.1876 -0.1338 -0.1411
17573W        W60564  25.705  32.024  26.125  0.2771 -0.1278 -0.3491
17574W        W60565  17.415   4.762  18.152 -0.1899  0.2572 -0.1639
17575W        W60566   1.171   4.421   8.891 -0.2206  0.0948  0.0238
17576W        W60567  17.827   5.094   0.108  0.1946  0.1928  0.1151
17577W        W60568  23.428  15.075   8.411 -0.1448 -0.1763  0.1201
17578W        W60569  31.969   6.690  28.354 -0.4382 -0.1872  0.0072
17579W        W60570  16.947   3.407  22.927 -0.2250 -0.1828  0.0842
17580W        W60571  29.804  13.134   8.130  0.0743  0.3761 -0.2576
17581W        W60572   5.567   5.071   9.305 -0.0282  0.2987 -0.1710
17582W        W60573   5.103  28.795  27.468  0.1548  0.2918 -0.3447
17583W        W60574  28.146  13.097   0.318  0.0515 -0.0572  0.2291
17584W        W60575  27.560  26.988  17.238 -0.0387  0.0218 -0.2752
17585W        W60576  33.235   3.460   4.761 -0.2139  0.1598 -0.3103
17586W        W60577  31.702  22.139  27.177  0.1285  0.0158  0.0203
17587W        W60578  27.848  12.277   8.045 -0.0891 -0.0203 -0.1712
17588W        W60579  18.709  15.128  23.328  0.1979 -0.0241  0.0863
17589W        W60580   0.966   4.209   3.469 -0.0143 -0.2004  0.0258
17590W        W60581   8.761  23.728   0.054  0.0385 -0.1310  0.0857
17591W        W60582  24.463  24.512   1.044 -0.0888 -0.0437  0.0720
17592W        W60583   2.527  22.546   7.875  0.1062  0.0149 -0.0645
17593W        W60584  34.650   6.250   9.003  0.2340  0.5552 -0.4229
17594W        W60585  23.037  16.798  27.127  0.4425 -0.2240  0.0157
17595W        W60586  20.450  31.959   5.416  0.0354 -0.1163  0.0613
17596W        W60587  26.945   0.632   7.084 -0.0164 -0.0164  0.0917
17597W        W60588  18.085   7.053   4.831  0.2056  0.1853 -0.0113
17598W        W60589  34.685  17.042  19.407 -0.3794 -0.0721 -0.2439
17599W        W60590  34.364   1.790   0.468  0.0994  0.0535  0.0993
17600W        W60591  21.198  12.676  29.129 -0.2026 -0.1753  0.1463
17601W        W60592   0.864  27.687   1.001 -0.0327 -0.4976  0.0718
17602W        W60593  28.893  29.453   3.856  0.0982 -0.1153 -0.1074
17603W        W60594  13.783  34.350  27.219  0.1487 -0.2695  0.1759
17604W        W60595  23.855  20.791   6.919  0.1959  0.1304 -0.1111
17605W        W60596  17.982   1.149  28.084 -0.0139  0.2276  0.1590
17606W        W60597  10.810   2.147  23.565  0.0021  0.3078 -0.1230
17607W        W60598   7.442  27.509   6.385 -0.2199 -0.0623  0.0428
17608W        W60599  24.962  32.166  26.837 -0.3483 -0.2390 -0.3049
17609W        W60600  25.133  30.260   5.721  0.1869  0.1570  0.0262
17610W        W60601  17.053  13.419  28.056  0.0901  0.3776  0.2136
17611W        W60602  28.747  20.719   7.424  0.1692  0.2515  0.2913
17612W        W60603  29.814   6.895   4.595 -0.1044 -0.1674 -0.0180
17613W        W60604  19.966  25.799  14.360  0.1126  0.1552 -0.2368
17614W        W60605   6.270  11.044  18.723  0.0108  0.0434 -0.1008
17615W        W60606  17.614  14.624   5.026  0.3312 -0.5531 -0.0623
17616W        W60607  28.096  18.317   1.699 -0.1619 -0.4495  0.0984
17617W        W60608  25.788  11.741   7.717 -0.2135  0.0107 -0.1184
17618W        W60609  13.594  30.319   7.071  0.1740 -0.0117  0.0747
17619W        W60610   5.108   2.892  23.163 -0.2982  0.3366 -0.1507
17620W        W60611   0.221   0.119   5.752  0.1228 -0.2561  0.0076
17621W        W60612   5.094  21.896  22.705  0.0613 -0.0068 -0.1862
17622W        W60613  10.283  10.357   2.259  0.2330  0.0424  0.2684
17623W        W60614  21.364  30.270   6.515  0.0286  0.2479  0.0993
17624W        W60615   4.744  18.103  28.570  0.1197 -0.2004 -0.1461
17625W        W60616  33.523   4.703   6.774  0.1922 -0.2118 -0.2168
17626W        W60617  27.152  26.336   7.655 -0.0909  0.1638 -0.0855
17627W        W60618  23.926  14.543   8.779 -0.0615 -0.3096 -0.4612
17628W        W60619  28.805   0.753   2.484 -0.0852 -0.0787  0.0943
17629W        W60620  33.418  30.137   5.366  0.3459 -0.0721 -0.2331
17630W        W60621  20.388   6.870  27.756  0.1500 -0.0668 -0.0777
17631W        W60622   3.000  14.100   4.638 -0.0246  0.1120 -0.1601
17632W        W60623  28.941  13.165   4.266  0.2491 -0.0306 -0.0578
17633W        W60624  29.646  29.144  14.818  0.0720 -0.0372 -0.1130
17634W        W60625   8.024   3.043   9.525 -0.1298  0.1191  0.0069
17635W        W60626  20.600   3.485   8.187  0.0354  0.0742  0.0896
17636W        W60627  16.093   2.212   0.951 -0.1690  0.2717 -0.2773
17637W        W60628  28.708  33.912   5.468 -0.3495  0.1668  0.1602
17638W        W60629  29.394   4.406   5.231  0.2765  0.0122 -0.2821
17639W        W60630  21.585  13.212  13.550 -0.0399 -0.2367 -0.2458
17640W        W60631  16.701  26.477  19.122  0.0687 -0.1248 -0.4379
17641W        W60632  15.029  21.531  23.301 -0.2371 -0.0020  0.0556
17642W        W60633  28.975   4.448   2.222  0.1165 -0.2449 -0.0884
17643W        W60634  22.981   6.278  23.652  0.2279 -0.0737 -0.4223
17644W        W60635   0.437  27.260  15.612 -0.2570  0.0021  0.1189
17645W        W60636  25.061  12.014  13.115  0.0834  0.0295 -0.3090
17646W        W60637   5.610   3.687   3.592 -0.1893 -0.1716  0.1198
17647W        W60638  20.492   0.232   0.816 -0.0557  0.0195  0.0401
17648W        W60639  16.714  18.903  24.987  0.2299 -0.0823 -0.1612
17649W        W60640  32.878  26.103  14.274  0.2062  0.1928  0.3769
17650W        W60641  21.991   3.153   6.492 -0.0115  0.1068 -0.0001
17651W        W60642  24.919  30.529   0.210 -0.5848  0.1522 -0.0883
17652W        W60643  32.144   8.362   2.748 -0.1366 -0.1289  0.0170
17653W        W60644  22.876  25.395  15.670 -0.2366  0.0555 -0.2661
17654W        W60645   2.334  12.829  25.940  0.5887  0.0876  0.0163
17655W        W60646  19.726  33.044  13.453 -0.0089 -0.1811  0.2469
17656W        W60647   0.265   5.699  21.260  0.0218  0.2025  0.0802
17657W        W60648  25.191   9.122  22.037 -0.0312  0.0519  0.0632
17658W        W60649  12.046   3.678   2.589 -0.4368 -0.1752 -0.2871
17659W        W60650  27.679  14.077  28.165 -0.3146  0.1811  0.1740
17660W        W60651  27.806  12.729  15.819  0.0964  0.2340  0.1408
17661W        W60652  31.428   7.522  24.345 -0.0376 -0.1138 -0.3024
17662W        W60653  24.839  33.495  14.444 -0.2914 -0.0372  0.0475
17663W        W60654  22.908  12.910  20.343  0.1671 -0.0001 -0.0510
17664W        W60655  27.922  12.906  22.586  0.0606 -0.1224 -0.0934
17665W        W60656  19.111   4.591  23.560  0.0808  0.1734  0.0854
17666W        W60657   0.007   8.303   1.191  0.1949 -0.0378  0.3131
17667W        W60658  32.827   3.991  24.083  0.0558  0.1551 -0.1319
17668W        W60659  26.865  19.028   0.754 -0.0295 -0.1290  0.0676
17669W        W60660  34.785   2.386  18.507 -0.2510 -0.2510 -0.0800
17670W        W60661  32.061  11.027  15.197 -0.1350  0.1718 -0.1132
17671W        W60662  28.352  12.046   7.674  0.1104 -0.2151 -0.1726
17672W        W60663  15.798  12.923  13.656  0.1418  0.1782  0.3466
17673W        W60664  33.719   4.646  19.312 -0.0643  0.1463 -0.1489
17674W        W60665  22.529  27.960  21.187 -0.2063  0.3043  0.0863
17675W        W60666  30.482  22.469  23.920  0.2930 -0.2267 -0.1119
17676W        W60667  19.291  26.618  22.133 -0.2033  0.1466  0.0412
17677W        W60668   3.468  17.912  18.799  0.2112 -0.2175  0.1029
17678W        W60669  25.774  16.300  26.513 -0.1881  0.0395  0.1230
17679W        W60670  29.113   8.192  23.389  0.0744 -0.0114 -0.0253
17680W        W60671  20.620   9.045  23.215 -0.2668  0.0570  0.0199
17681W        W60672  29.607   5.396  20.103  0.0298 -0.4336 -0.1342
17682W        W60673  23.825  16.386  16.327 -0.3617 -0.3340 -0.0072
17683W        W60674   6.855  16.964  16.814  0.1167  0.1369 -0.3629
17684W        W60675  16.548  22.998  21.265  0.0412 -0.3007  0.1134
17685W        W60676  33.001  33.214  23.107 -0.0955 -0.2443 -0.2080
17686W        W60677  20.946  18.214  22.466  0.0446  0.0759 -0.0401
17687W        W60678  23.969  22.745  14.342  0.2151  0.0213  0.1952
17688W        W60679   2.612   1.569  14.903 -0.0190  0.2405 -0.0303
17689W        W60680  25.278  18.686  13.881 -0.3503 -0.0455  0.3143
17690W        W60681  27.926  10.465  17.422  0.0431  0.1208 -0.0932
17691W        W60682  33.656   5.971  19.446  0.1111  0.1712 -0.1796
17692W        W60683  28.459  12.006  17.610 -0.0384  0.0146 -0.1854
17693W        W60684  11.217   9.618  20.207 -0.1481 -0.1287 -0.1557
17694W        W60685  31.655  20.915  15.940 -0.1032 -0.2972 -0.1177
17695W        W60686  31.922  17.640  16.111  0.0957 -0.1009  0.2374
17696W        W60687  30.534   9.433  17.306  0.0124 -0.1615 -0.0906
17697W        W60688  33.139  26.602  15.028  0.2418  0.1584  0.2543
17698W        W60689  10.709   3.895  17.633 -0.0063 -0.0760  0.1696
17699W        W60690  26.510  33.394  25.059  0.1702  0.4010 -0.0585
17700W        W60691  19.601  34.580  23.507  0.1294 -0.0447 -0.0588
17701W        W60692   0.011  17.004  18.542  0.1150 -0.0176 -0.4019
17702W        W60693  33.048  25.941  16.861  0.1357 -0.0401 -0.2248
17703W        W60694   8.632  16.218  15.581 -0.1614 -0.0426 -0.4992
17704W        W60695  26.665   5.784  19.805 -0.4067  0.4091 -0.0349
17705W        W60696  19.488  34.462  25.171 -0.1126  0.2071  0.0308
17706W        W60697  28.420   7.492  23.097 -0.1942  0.1195  0.2694
17707W        W60698  32.108  14.045  16.834 -0.0605  0.1906 -0.2281
17708W        W60699   9.117  29.576   7.911  0.0713 -0.3525 -0.0906
17709W        W60700  25.610  30.752  21.630  0.0517  0.0885  0.0817
17710W        W60701  28.983  17.328  19.179 -0.0115 -0.1334  0.0695
17711W        W60702  16.661  34.683  22.491 -0.0432  0.1503 -0.2393
17712W        W60703  15.565  15.202  23.532 -0.1121  0.2528  0.3150
17713W        W60704  28.323  26.487  21.970  0.0560  0.1754  0.0800
17714W        W60705  34.463   3.658  19.545  0.2269  0.0293  0.0613
17715W        W60706  30.311  32.182  19.848  0.1319 -0.1386 -0.0408
17716W        W60707  14.379  32.791  28.468  0.0543  0.2077 -0.0498
17717W        W60708  22.845   3.693  20.706  0.1223 -0.2711 -0.0102
17718W        W60709  23.310   9.482  24.211 -0.1406 -0.1337  0.1067
17719W        W60710  32.134   5.163  24.783 -0.0702  0.1502 -0.1744
17720W        W60711   5.360  13.630  25.290 -0.0040 -0.2081  0.3380
17721W        W60712  23.444  14.669   0.801 -0.1101  0.4390  0.1363
17722W        W60713  18.928  20.427  21.300  0.1396 -0.1543  0.0908
17723W        W60714  34.761  30.580  18.492 -0.1338  0.1545  0.2113
17724W        W60715  25.766   0.128  19.674  0.2782  0.0594 -0.1291
17725W        W60716   2.776  24.137  14.303 -0.2662 -0.0731  0.0975
17726W        W60717  31.528  24.396  24.240  0.5234  0.0601 -0.0917
17727W        W60718  25.832  11.788   1.221  0.0580  0.3173  0.1168
17728W        W60719  23.379   6.649  19.191  0.2112  0.1176  0.0909
17729W        W60720  21.959   1.628  16.239  0.0532  0.0836  0.1414
17730W        W60721  27.939  17.118  21.866 -0.2129  0.2744  0.2631
17731W        W60722  34.427  22.989  27.901 -0.0042 -0.1494 -0.0535
17732W        W60723  32.417   7.578  25.169  0.2323  0.0357  0.0413
17733W        W60724  29.023  14.234  16.307 -0.4403 -0.0332  0.3166
17734W        W60725  22.942  20.102   4.087  0.1972  0.1727  0.1216
17735W        W60726   5.308  13.999  16.696  0.0539 -0.1161  0.0974
17736W        W60727  18.189  34.246  22.861 -0.2663  0.0233  0.3746
17737W        W60728  19.350  32.910  21.699 -0.2113  0.1026 -0.1133
17738W        W60729  18.188   0.422   2.506 -0.2897  0.0878  0.0745
17739W        W60730  19.714  10.258  25.451 -0.1014  0.0526 -0.0824
17740W        W60731  21.359   8.900  19.237 -0.2553  0.2697 -0.0379
17741W        W60732   6.503   8.309   1.308  0.1757  0.2612 -0.0725
17742W        W60733  23.712  34.509  15.042  0.2534 -0.0880  0.0109
17743W        W60734  27.718  12.337   2.705  0.2973 -0.1281 -0.3329
17744W        W60735  27.164  21.583  22.375  0.0817  0.1589 -0.2198
17745W        W60736  27.325  21.938  21.060  0.1730 -0.0176 -0.0371
17746W        W60737  27.675  19.745  23.478  0.0033  0.3151  0.1275
17747W        W60738  24.958   8.876  19.061  0.0844 -0.2448 -0.1365
17748W        W60739  13.330   2.730   8.561 -0.2916  0.1890 -0.1179
17749W        W60740   3.275  31.480  15.732 -0.0958  0.1525 -0.0831
17750W        W60741   2.962  32.213  21.033  0.2963 -0.2435 -0.3625
17751W        W60742  30.045  26.256  16.414 -0.2383  0.0017  0.1812
17752W        W60743  33.987  10.527  14.866 -0.0243 -0.1569  0.1407
17753W        W60744  12.764  10.064  16.971 -0.0900  0.0868 -0.0721
17754W        W60745  32.970  12.706  21.416  0.3132 -0.1797 -0.1166
17755W        W60746   2.932  28.752  21.383  0.0045 -0.0558 -0.0719
17756W        W60747  28.239  11.557  21.660  0.0227 -0.1921  0.0335
17757W        W60748  23.733  32.367  28.249 -0.1697 -0.1394 -0.1408
17758W        W60749  19.910  20.675  23.972  0.0975 -0.3125  0.0599
17759W        W60750  26.938  23.510  14.913 -0.4888  0.0224  0.0481
17760W        W60751  19.595  11.773  21.282  0.2917 -0.0246 -0.1186
17761W        W60752  26.977  24.767  24.011  0.2129 -0.1920 -0.0311
17762W        W60753  34.792   6.271  24.825 -0.0860  0.0921 -0.0204
17763W        W60754  18.626  22.784  16.608  0.1668 -0.0728 -0.1953
17764W        W60755  33.415  19.149  23.529  0.5187  0.2042  0.0715
17765W        W60756  19.275  12.521  22.298  0.0177  0.0117 -0.2662
17766W        W60757  32.746   9.473  23.096 -0.1806  0.2665  0.1900
17767W        W60758  29.725   8.816  22.519 -0.2513 -0.1007  0.1377
17768W        W60759  26.248  13.302  16.638  0.1984 -0.0494 -0.1280
17769W        W60760  29.680   9.099  17.188  0.0597  0.1594 -0.1327
17770W        W60761  34.055  17.477  18.039  0.2163  0.2829  0.1301
17771W        W60762  28.007  33.014  26.181 -0.0523  0.1597 -0.0425
17772W        W60763  31.356   4.158   3.396  0.2552  0.0563 -0.0755
17773W        W60764   4.092   0.419  20.404 -0.4338  0.3117  0.0980
17774W        W60765  20.259  17.812  25.751 -0.0783  0.0820 -0.1099
17775W        W60766  20.947   1.561  14.404 -0.3215 -0.1406  0.3643
17776W        W60767  29.820  24.762  17.366  0.1515  0.3076 -0.0643
17777W        W60768  16.613   6.351   5.840 -0.0633 -0.1069 -0.0084
17778W        W60769  14.653  11.360  15.180 -0.0059 -0.0937 -0.1407
17779W        W60770  19.875  33.757  18.402 -0.1885 -0.3469  0.0767
17780W        W60771   6.458  21.082  26.136  0.0730 -0.1339 -0.1633
17781W        W60772  10.456  16.750   9.037 -0.2277 -0.0280  0.2399
17782W        W60773  32.199  22.278  22.754 -0.3442  0.0810  0.2850
17783W        W60774   5.830   0.598  27.320 -0.0736  0.2819  0.1840
17784W        W60775  21.938   6.774   5.924 -0.0808 -0.2200  0.2035
17785W        W60776  16.875  12.545  17.974 -0.0101  0.1451 -0.1467
17786W        W60777  34.697  12.133  26.944 -0.2584  0.0476  0.1729
17787W        W60778  31.689  20.035  25.715 -0.0262  0.0713 -0.0720
17788W        W60779  28.677  17.047  16.641 -0.1371  0.0954  0.1137
17789W        W60780  26.987  16.608  17.247  0.0496  0.0239 -0.1450
17790W        W60781  32.925  11.852  17.166 -0.1234  0.1709 -0.4483
17791W        W60782  31.310  16.689  28.739  0.1865  0.0009 -0.1370
17792W        W60783   6.077  28.743  24.527  0.2010 -0.0729  0.0100
17793W        W60784  25.030  15.394  14.073  0.0358 -0.2699  0.0312
17794W        W60785  24.503   0.535  16.553 -0.1475 -0.1620  0.1439
17795W        W60786   6.179  14.453  15.773 -0.1604 -0.4715  0.4079
17796W        W60787  23.735  22.446  23.259 -0.5166  0.3243 -0.0466
17797W        W60788  21.184  25.418  20.491 -0.0809  0.1990  0.4246
17798W        W60789  24.265  13.979  18.265 -0.2172 -0.0124 -0.1525
17799W        W60790  34.681  33.144  14.752 -0.1676  0.0704 -0.1347
17800W        W60791  30.336  24.958  16.688 -0.0137  0.1400  0.0018
17801W        W60792   6.597  31.776  24.549 -0.0396 -0.0692  0.2387
17802W        W60793  22.679  22.268  14.173  0.1624 -0.2661 -0.0414
17803W        W60794  22.667  25.314   1.502  0.1226  0.0521 -0.1257
17804W        W60795  13.379  12.888  22.953 -0.0498  0.2069 -0.0275
17805W        W60796  26.414   9.396  15.299 -0.0546 -0.1009  0.3847
17806W        W60797   6.922  21.013  16.587 -0.1510  0.1768  0.1636
17807W        W60798  17.182  10.201  21.781 -0.0625  0.3519 -0.1313
17808W        W60799  17.169  14.667  12.570  0.0026  0.0626  0.0266
17809W        W60800  28.956   8.637  16.870 -0.0950 -0.1226 -0.1458
17810W        W60801  29.466   3.954  19.426 -0.0707  0.0982  0.3673
17811W        W60802  24.857   9.939  17.848  0.1077  0.0439 -0.0446
17812W        W60803  21.868  27.589  13.916  0.1005 -0.1260  0.1869
17813W        W60804  30.303  21.519  18.349  0.0514 -0.1470 -0.0775
17814W        W60805  28.512  11.105  19.836  0.0586 -0.0723 -0.0818
17815W        W60806  24.240  10.766  23.117  0.0117  0.1362  0.0316
17816W        W60807  14.117   5.704  26.556 -0.0147 -0.1981 -0.0637
17817W        W60808   3.492  10.891  18.709  0.3724  0.0177  0.1157
17818W        W60809   0.042   3.215  23.241  0.1956  0.1820  0.4233
17819W        W60810  23.960   5.254  17.866 -0.1512  0.0834  0.2112
17820W        W60811  33.652  16.899  18.374 -0.1636 -0.0713 -0.1692
17821W        W60812  34.792  29.731  18.734 -0.0022  0.0219  0.2005
17822W        W60813   1.131  28.513  25.778 -0.2245 -0.2649  0.0102
17823W        W60814  15.275   7.313   3.205 -0.1562 -0.0630  0.2523
17824W        W60815  17.236   7.363   0.139  0.3602  0.0863 -0.1055
17825W        W60816  19.816   9.530  28.828 -0.0431 -0.3996 -0.0186
17826W        W60817  23.743  20.435  17.066 -0.2653  0.0273  0.2988
17827W        W60818  26.845  13.601  18.914 -0.0684  0.0609 -0.2072
17828W        W60819  33.086  11.846  23.157 -0.0084 -0.1140 -0.1255
17829W        W60820  16.602  13.074  23.447  0.2826  0.1303 -0.0178
17830W        W60821  21.868  13.140  26.039 -0.0772 -0.0804 -0.1974
17831W        W60822  33.695   3.936   3.012  0.1633  0.0005  0.0998
17832W        W60823  22.200   8.439   6.114 -0.0590 -0.2696 -0.2503
17833W        W60824  29.066   7.723  27.678 -0.1124 -0.0795 -0.0345
17834W        W60825   1.814  22.303  13.903  0.0083 -0.0139 -0.4209
17835W        W60826  26.214  10.589  24.996  0.2488 -0.2142  0.1241
17836W        W60827   5.522  10.457  16.027  0.3778 -0.0206  0.0293
17837W        W60828  28.349  16.215  26.763 -0.0014 -0.4329 -0.0150
17838W        W60829  24.983   4.625   8.013 -0.3172  0.0148 -0.1674
17839W        W60830  29.495  34.635  16.547 -0.2128  0.0613 -0.0945
17840W        W60831  20.030   7.043  14.420  0.0941  0.1556  0.0762
17841W        W60832  28.143  15.775  22.639 -0.3965 -0.0211 -0.1924
17842W        W60833  20.289  15.537  15.178 -0.0154 -0.2315 -0.0967
17843W        W60834   3.875  30.159  29.170 -0.0605  0.0608 -0.0859
17844W        W60835   9.684   4.927  24.355 -0.3397 -0.0385 -0.0359
17845W        W60836  22.625  19.767  14.198 -0.3203 -0.0670  0.1085
17846W        W60837  34.045  11.023  23.670 -0.1231  0.1806 -0.2270
17847W        W60838  23.469  19.367  24.714 -0.1604 -0.0174 -0.0295
17848W        W60839  23.993  11.297  22.164  0.0756  0.0215  0.0283
17849W        W60840  31.993  13.942  24.237 -0.2222 -0.0614  0.1739
17850W        W60841  19.423  23.337  18.471 -0.2188  0.2308 -0.0021
17851W        W60842   1.871  12.166  24.474  0.2377 -0.0810 -0.0762
17852W        W60843  26.862  11.884   6.704 -0.3371  0.2477  0.3134
17853W        W60844  32.247   3.174  19.103  0.0708  0.2924  0.0111
17854W        W60845   7.349   4.839  20.802  0.0539  0.1733  0.1446
17855W        W60846  32.876  11.909  25.385 -0.0941  0.3695 -0.0820
17856W        W60847  33.563   6.326  22.214  0.1240  0.1073 -0.1137
17857W        W60848  26.090  13.392  21.950 -0.1728 -0.0890 -0.1256
17858W        W60849  23.023  14.511  18.066 -0.2016  0.1145 -0.1371
17859W        W60850  27.635  21.341  15.476 -0.2671  0.1279  0.1308
17860W        W60851  31.392   2.271  25.290  0.0242  0.0524 -0.4049
17861W        W60852  19.672   6.839  20.482  0.0032 -0.0270 -0.0214
17862W        W60853  34.316   9.649  21.049 -0.2532 -0.3127 -0.1748
17863W        W60854  32.942   9.530  24.907  0.3033 -0.0440 -0.1323
17864W        W60855  33.575  10.024  20.055  0.3031  0.0923 -0.0296
17865W        W60856  28.181   3.506  26.941  0.0897  0.0813  0.3218
17866W        W60857  18.267  10.585  21.218 -0.1974  0.3578  0.0742
17867W        W60858  11.080  13.740  17.141  0.0555 -0.0553  0.0688
17868W        W60859  20.843  21.388  14.733 -0.0825 -0.3630 -0.1037
17869W        W60860  19.089  31.892  25.253  0.2296 -0.2382  0.1132
17870W        W60861  29.952  25.215  16.982 -0.2922  0.0332  0.1242
17871W        W60862  25.831   3.546  19.895  0.0024 -0.0472  0.0929
17872W        W60863  29.833  10.324  16.554 -0.1501  0.1085 -0.2387
17873W        W60864   0.085   4.987  17.323  0.1436  0.1965 -0.1103
17874W        W60865   5.303  17.108  14.768  0.2873  0.0075  0.0440
17875W        W60866  33.931  17.043  22.991  0.0582  0.1270  0.0428
17876W        W60867  20.242  17.230  24.270  0.2490  0.0900 -0.2479
17877W        W60868  33.818   6.082  27.482  0.0759 -0.0351  0.0567
17878W        W60869  23.362  11.800  23.378  0.1630 -0.0635 -0.1272
17879W        W60870  18.697  11.443  16.180 -0.0015 -0.4208 -0.0374
17880W        W60871   8.100   6.573  23.757  0.5128 -0.4394  0.1709
17881W        W60872   8.734  19.064  22.541  0.0164 -0.0252 -0.0651
17882W        W60873  17.162  33.561  14.006  0.1799 -0.0231 -0.0509
17883W        W60874  33.527  20.716  20.112 -0.0859 -0.1795 -0.0639
17884W        W60875  26.368  25.218  23.563  0.3234 -0.0650  0.2945
17885W        W60876  25.742   7.135  27.135  0.1649 -0.0273 -0.2707
17886W        W60877  33.460   4.189  24.187  0.1214  0.2554  0.1647
17887W        W60878  18.796  14.121  13.741 -0.0298 -0.0860  0.4069
17888W        W60879  33.221   9.620  16.600 -0.0356  0.1527  0.0172
17889W        W60880  19.919  10.816  17.836 -0.2211  0.0823  0.0742
17890W        W60881  29.315   6.477  16.408 -0.0084  0.0008  0.1387
17891W        W60882  23.803  10.041  24.693 -0.0539  0.3233 -0.1158
17892W        W60883  23.264   9.083  13.131 -0.2857 -0.1153  0.0487
17893W        W60884  34.062  21.547  15.384  0.1035 -0.1287 -0.0116
17894W        W60885   8.490   7.470  21.667  0.1214  0.4322 -0.2238
17895W        W60886  27.171  34.498  15.186 -0.1390 -0.2260 -0.2284
17896W        W60887  11.960  33.098  27.904  0.0075 -0.0243 -0.1282
17897W        W60888  24.604  11.037  28.969  0.1021 -0.0019 -0.0832
17898W        W60889  12.981   3.535   0.551  0.0665  0.1187  0.0451
17899W        W60890  21.976  20.615  15.131  0.2322 -0.0633 -0.0825
17900W        W60891  25.832  15.487  29.084 -0.3469  0.0365 -0.1557
17901W        W60892  24.891   7.765  19.167  0.1661 -0.1656 -0.1089
17902W        W60893  29.130  20.726   0.739 -0.0967 -0.1901 -0.2454
17903W        W60894  19.919  19.201  13.013  0.0316 -0.1163  0.3031
17904W        W60895  29.643   5.038  16.773 -0.3194 -0.1185 -0.1861
17905W        W60896  22.411  11.822  19.855  0.0096  0.0652  0.2582
17906W        W60897  30.231  16.170   6.879 -0.2491 -0.2648  0.2799
17907W        W60898   1.288  18.365  26.873  0.2884  0.2829 -0.0796
17908W        W60899  28.359  29.231  17.729 -0.1056 -0.0133 -0.0807
17909W        W60900  29.418  32.924  28.845 -0.1755 -0.0191  0.2052
17910W        W60901  31.924  17.138   7.860 -0.1549  0.2892 -0.1049
17911W        W60902  23.566   3.906  15.816  0.0321 -0.1554  0.2171
17912W        W60903  16.199   4.553  22.492  0.1686  0.2213  0.2681
17913W        W60904  31.208   1.556  24.559 -0.0166 -0.0857 -0.0873
17914W        W60905  14.712  25.427  14.403  0.0530  0.1321  0.0334
17915W        W60906  16.777  11.310  17.014  0.1480 -0.2219 -0.3462
17916W        W60907  20.964  30.500  21.790 -0.0687 -0.0494 -0.2738
17917W        W60908  23.493  12.879  14.387 -0.1033 -0.1632 -0.0965
17918W        W60909  25.322   3.952  18.889 -0.2115 -0.1636  0.1004
17919W        W60910  18.035  31.975  28.979  0.0441  0.2805  0.1623
17920W        W60911  14.884  30.579  19.046  0.1748 -0.0099  0.0210
17921W        W60912  15.727   5.309  23.570  0.0494 -0.4148  0.1752
17922W        W60913  32.238   0.812  23.840  0.2384 -0.3302  0.2337
17923W        W60914  13.179  30.410  19.742  0.5040 -0.0720  0.1360
17924W        W60915  22.574  10.781  22.996 -0.1550 -0.1599 -0.2100
17925W        W60916  34.677  21.267  27.552 -0.1260  0.3448 -0.0027
17926W        W60917  15.118  28.976  26.001  0.1492 -0.1449  0.0418
17927W        W60918  32.870  20.855  27.011 -0.1411 -0.1600  0.0292
17928W        W60919  11.100   0.660  24.150  0.2382  0.1094  0.2561
17929W        W60920  20.477   9.903  26.198 -0.2300 -0.0189 -0.1368
17930W        W60921  25.879  18.362   2.816 -0.0795 -0.3016  0.2538
17931W        W60922  31.565  26.396  20.331 -0.1129  0.0110 -0.1601
17932W        W60923  26.068   8.233  16.615  0.0147  0.2461  0.0602
17933W        W60924  14.333   3.636   1.203 -0.1197 -0.2195 -0.0675
17934W        W60925  22.806  22.752  25.498  0.1019  0.0839  0.0897
17935W        W60926   1.548   5.620  23.998  0.1312  0.1087  0.0114
17936W        W60927  23.292  19.707  20.244 -0.1733 -0.1234 -0.0224
17937W        W60928   2.029  27.092  17.200 -0.0048 -0.0010 -0.3010
17938W        W60929  27.626   7.177  14.619 -0.0996 -0.3278  0.0394
17939W        W60930  30.268   1.120  24.924  0.0864  0.3282  0.0122
17940W        W60931   7.906  30.185  15.647 -0.2225 -0.2312 -0.1175
17941W        W60932  27.551   9.943  21.661 -0.3988 -0.3661 -0.2613
17942W        W60933  26.339  13.703  24.181  0.2164 -0.0109 -0.1824
17943W        W60934  32.078  20.929  19.786  0.0889 -0.0108  0.1516
17944W        W60935  20.057   6.851  16.942 -0.3319 -0.1012 -0.3514
17945W        W60936  21.824   4.983  17.128 -0.1210 -0.0428 -0.2497
17946W        W60937  29.301  13.138  15.313  0.1397  0.1241 -0.4852
17947W        W60938  22.359   3.369  17.170  0.2961  0.0594  0.1264
17948W        W60939  29.533  32.796  13.464  0.3448  0.3991 -0.0281
17949W        W60940  24.059  19.915  13.696  0.1617  0.2927 -0.0443
17950W        W60941   6.846  14.191   1.046 -0.1480 -0.5986 -0.2455
17951W        W60942  33.988  18.481  21.689 -0.3354  0.2218 -0.2047
17952W        W60943  27.745  31.067  16.338 -0.0497 -0.1105 -0.0221
17953W        W60944  30.850   8.383  17.723 -0.1143 -0.2384  0.1671
17954W        W60945  29.070   8.707  17.340  0.1515  0.4233  0.2785
17955W        W60946  30.585   9.834  22.328  0.2062  0.1885 -0.0301
17956W        W60947  19.937  11.960   0.120  0.0018  0.2262 -0.0006
17957W        W60948  11.906  17.521  25.165  0.2264 -0.0735  0.0908
17958W        W60949  16.935  25.680  21.311  0.1364 -0.1186  0.1245
17959W        W60950  17.424  11.447   5.052 -0.5344  0.0489  0.2160
17960W        W60951  32.062   7.254  16.091 -0.0049 -0.1730  0.0307
17961W        W60952   9.782  30.771   0.571 -0.3555  0.1110  0.1377
17962W        W60953  29.515  22.010  22.816 -0.0339  0.2389 -0.2374
17963W        W60954  33.220   6.173   0.487  0.1000 -0.1144  0.0006
17964W        W60955  30.501   0.732  17.214  0.2820  0.2146  0.0360
17965W        W60956  27.623  16.131  16.178 -0.0638  0.1881  0.1514
17966W        W60957   4.482  29.752  24.138 -0.1885  0.0737 -0.0658
17967W        W60958  19.719  28.385  24.630  0.2738 -0.3313  0.2163
17968W        W60959  22.938  10.970  17.780  0.0785 -0.1102 -0.0373
17969W        W60960  22.461  29.023  14.974  0.3699  0.1660 -0.2413
17970W        W60961  28.086  13.837  17.536 -0.1590 -0.0644  0.0513
17971W        W60962  23.674  12.015  23.734  0.0725 -0.0020 -0.1549
17972W        W60963   7.328  16.724  20.614  0.0982  0.2745 -0.1183
17973W        W60964  25.351  10.678  17.797  0.0850  0.0409  0.0803
17974W        W60965  26.545  25.545  18.679 -0.0684 -0.1592  0.1296
17975W        W60966  29.566   1.217  22.966 -0.0622  0.1502  0.1870
17976W        W60967  30.646  30.971  19.099  0.0149 -0.1873 -0.0209
17977W        W60968   1.982   0.417   0.232 -0.1820  0.0790 -0.3491
17978W        W60969  23.872  33.786  23.558 -0.2110  0.0169 -0.1285
17979W        W60970  17.474  21.022  20.433 -0.0650  0.1032 -0.0199
17980W        W60971  31.598  12.205  25.294 -0.1311  0.1976  0.1059
17981W        W60972  26.248  16.360  15.125  0.1265 -0.1318  0.0453
17982W        W60973  29.038  17.629  26.115  0.1936  0.0121 -0.1552
17983W        W60974  18.878  17.056  14.791 -0.0711 -0.0036  0.1695
17984W        W60975  32.300  34.225  28.058 -0.1565 -0.0704 -0.1454
17985W        W60976  19.883   2.156   1.415  0.2589  0.1822 -0.1546
17986W        W60977  19.396  10.083  24.677  0.1283 -0.0418 -0.4983
17987W        W60978  27.975  30.727  16.572  0.0422 -0.2409  0.1514
17988W        W60979  30.385  15.738  23.090  0.0031 -0.1849  0.0088
17989W        W60980  10.018   5.674  23.561 -0.1349  0.0444  0.2454
17990W        W60981  29.426  20.538  26.318 -0.2178 -0.0884  0.2836
17991W        W60982  28.007  13.496  15.666  0.0675  0.2257 -0.2209
17992W        W60983   2.277  27.947   1.054  0.1154  0.3868  0.1785
17993W        W60984   3.487  20.487  23.320  0.3782 -0.2586 -0.2445
17994W        W60985  20.834  21.672  19.379  0.1539  0.1464 -0.0465
17995W        W60986   5.304  29.534  19.250 -0.0667  0.3061 -0.1266
17996W        W60987  22.026   3.168  18.582  0.0771 -0.1972 -0.0180
17997W        W60988  34.785  33.195  19.242  0.0978  0.2245  0.0070
17998W        W60989  26.690  10.249  21.225 -0.0090 -0.0951 -0.1867
17999W        W60990  27.949   4.005   5.771  0.2171  0.0755  0.0510
18000W        W60991  10.237   2.650  24.742 -0.0493 -0.0115 -0.2033
18001W        W60992  20.485   3.289   1.527  0.1505 -0.0453 -0.3670
18002W        W60993  10.331  10.292  23.773  0.1877 -0.1604  0.2683
18003W        W60994  29.651  30.949  14.494  0.4386  0.0066  0.0081
18004W        W60995  32.099  15.417  19.142  0.1235  0.0783  0.2330
18005W        W60996  33.752  27.987  16.288 -0.1345  0.1037  0.0753
18006W        W60997  16.453  32.504  15.017  0.1918 -0.2057  0.1756
18007W        W60998  29.074   5.932  24.112 -0.0714  0.3053 -0.0270
18008W        W60999  31.071  16.596  25.734  0.1434  0.0145  0.3552
18009W        W61000  18.843  16.002  24.928  0.0709 -0.0270 -0.2670
18010W        W61001  15.866  20.155  13.596  0.4292  0.1778  0.0015
18011W        W61002  31.708  33.515  23.807  0.1032  0.1732  0.0021
18012W        W61003   2.020  17.634  15.254  0.1435 -0.1256  0.2034
18013W        W61004  24.625  18.676  14.881  0.1593  0.1046  0.0423
18014W        W61005  25.350  19.126  15.233 -0.0522 -0.0136  0.2238
18015W        W61006  32.944   6.048  17.485  0.0411 -0.1489 -0.0073
18016W        W61007  17.602   9.943  17.270 -0.1757 -0.0961  0.1376
18017W        W61008  30.611   5.514  24.341 -0.2854  0.0832  0.1457
18018W        W61009  19.678  12.871  25.674  0.1493 -0.1595  0.4374
18019W        W61010   0.236  22.256   1.396  0.3069  0.2078  0.1742
18020W        W61011  11.720  14.117  22.423  0.4485 -0.0796  0.1391
18021W        W61012   0.821   4.976  24.851  0.1546 -0.2444  0.1286
18022W        W61013  19.101  10.395   6.508 -0.1384  0.2335 -0.0580
18023W        W61014  17.331  15.504  22.359 -0.0912 -0.1413  0.0227
18024W        W61015  26.612   9.179  19.387 -0.2846  0.0558  0.1145
18025W        W61016   4.891  29.473  20.909 -0.0192 -0.2189  0.1454
18026W        W61017  31.950  16.975  20.733  0.1762  0.2821 -0.2520
18027W        W61018  34.451   5.947  26.328  0.3756 -0.2411 -0.1961
18028W        W61019  31.384  21.413   0.292 -0.1073 -0.1011 -0.0404
18029W        W61020  20.579  24.757  24.842 -0.3826  0.0881  0.1487
18030W        W61021  16.184   0.684  15.820  0.0407 -0.0178 -0.1629
18031W        W61022  31.515  15.689  20.896 -0.0153 -0.0140 -0.3184
18032W        W61023  27.962  18.262  16.499 -0.1255 -0.5051 -0.0885
18033W        W61024  23.945   4.935  12.684  0.0289  0.3239 -0.1252
18034W        W61025  21.130  16.716  13.978  0.0075  0.3636 -0.1027
18035W        W61026  25.714  11.066  20.763 -0.1918  0.0594 -0.3904
18036W        W61027  20.120   7.490  15.609 -0.1378 -0.0239  0.0546
18037W        W61028  26.185   7.589   0.577 -0.2261 -0.2709  0.0682
18038W        W61029  34.312   6.082  25.141 -0.0317 -0.2150 -0.0635
18039W        W61030  29.720  34.296  18.460  0.0466 -0.0414 -0.0429
18040W        W61031  27.493  20.510  18.963  0.0490 -0.0840  0.0773
18041W        W61032  24.642  30.699  25.935  0.0893  0.3477  0.2523
18042W        W61033  18.645   4.689   8.790  0.0736  0.2925  0.0220
18043W        W61034  10.173   4.376  23.430 -0.0633 -0.2227  0.1753
18044W        W61035  24.867  21.173  17.370 -0.1005  0.0556 -0.0540
18045W        W61036  21.589  10.515   2.239  0.1596 -0.1666  0.1784
18046W        W61037  31.271  18.758  21.579  0.2213 -0.1234  0.0707
18047W        W61038  27.799  11.983  17.525  0.3321  0.0724 -0.0715
18048W        W61039  27.282  12.792   1.259 -0.0852  0.3729  0.2928
18049W        W61040  31.719  16.406  28.604 -0.1077 -0.1290  0.1070
18050W        W61041  27.039   2.579  25.804  0.1346  0.0165  0.3359
18051W        W61042  23.376   2.482  27.701  0.0040  0.0160 -0.0318
18052W        W61043  30.785   3.953  14.495 -0.0479 -0.0691 -0.0720
18053W        W61044  18.180   8.992   2.652  0.1283  0.1378 -0.0299
18054W        W61045  34.485  32.035  14.290 -0.1654 -0.2427  0.1923
18055W        W61046   0.031  29.579  20.618  0.1298 -0.3367  0.0802
18056W        W61047  18.729  23.968   2.242  0.1135  0.0142  0.1073
18057W        W61048  25.937  15.328  14.450  0.0131  0.4351 -0.1139
18058W        W61049  31.830   6.643  18.587  0.0296  0.0678  0.2002
18059W        W61050  18.609   0.991  16.174  0.1656  0.3212  0.3064
18060W        W61051  33.602   9.589  21.878 -0.2735 -0.4044  0.1151
18061W        W61052  25.976   4.952  27.233  0.1589  0.2122  0.0440
18062W        W61053  23.829   3.677  20.565  0.0019 -0.0808  0.1418
18063W        W61054  22.202  14.583  21.455  0.0644  0.5838  0.0455
18064W        W61055  29.223  23.848  22.848 -0.4473  0.0726  0.2284
18065W        W61056  24.658   7.648  16.816  0.2348  0.4209  0.0945
18066W        W61057  19.456  21.133  13.377  0.1572 -0.0773 -0.0346
18067W        W61058  16.934   9.625  20.535  0.0143 -0.0775 -0.3174
18068W        W61059  29.929  15.735   1.460  0.0908 -0.1324  0.0913
18069W        W61060  31.092  10.697   1.029  0.0204 -0.1660  0.0727
18070W        W61061  22.374   6.685  15.480  0.3882  0.0058  0.1394
18071W        W61062  27.864  24.112  23.598  0.0646  0.0998  0.1479
18072W        W61063  25.842  17.259  26.897 -0.4598  0.4120 -0.4578
18073W        W61064  25.093   8.177  22.465  0.2531  0.1345  0.0150
18074W        W61065  34.642  13.851  28.063 -0.1060  0.1134  0.3826
18075W        W61066  24.581  23.267  17.203  0.1690 -0.1805 -0.0206
18076W        W61067  10.542  18.910  20.248 -0.0391  0.0953  0.0981
18077W        W61068  29.854  24.704  26.760 -0.1530 -0.1859  0.3535
18078W        W61069  19.734   5.150  16.460 -0.3113  0.0228 -0.2261
18079W        W61070  26.728  22.063  21.434 -0.3056 -0.1540  0.2463
18080W        W61071   1.166  13.291  19.092 -0.0587 -0.3810 -0.0526
18081W        W61072  24.320   2.726  28.688  0.0004 -0.5677  0.4540
18082W        W61073  12.929  25.851  25.144 -0.0738 -0.0251  0.0040
18083W        W61074   2.048  30.052  25.357  0.1131  0.1727  0.1021
18084W        W61075  19.339  23.451  16.465  0.0438 -0.1023  0.0365
18085W        W61076  20.302  10.703  16.929 -0.0160  0.3015 -0.1317
18086W        W61077  13.699   5.660  15.202 -0.1250 -0.0770  0.1841
18087W        W61078  24.419   9.375  23.617 -0.0755 -0.0994  0.2032
18088W        W61079  33.143   8.188  18.426 -0.0255  0.2453  0.2590
18089W        W61080  24.562   3.564   2.518  0.0738 -0.2107 -0.0033
18090W        W61081  27.517  11.650  19.792 -0.2209  0.1564  0.2116
18091W        W61082  15.194  28.159   6.638 -0.0031 -0.3369  0.0687
18092W        W61083  11.080   7.973  15.884  0.0299  0.0826  0.1916
18093W        W61084  16.530   0.939  22.896 -0.0347 -0.1837 -0.1657
18094W        W61085  23.923  13.684  17.382  0.2217 -0.3434  0.1873
18095W        W61086  31.431  14.067  24.522  0.1365 -0.2045 -0.0535
18096W        W61087  18.565  24.753  23.269 -0.0383  0.0507 -0.4510
18097W        W61088   4.899   6.918   3.938  0.3243 -0.2846 -0.2656
18098W        W61089  17.498  13.965  14.478  0.2969 -0.0061 -0.1595
18099W        W61090  27.013   9.882  21.941  0.0700 -0.1912  0.0521
18100W        W61091  30.923   4.167  15.096  0.1843 -0.4983  0.3605
18101W        W61092   9.746  11.367  23.511 -0.0334 -0.3945 -0.1235
18102W        W61093  26.596   8.751  26.316  0.1560 -0.1666  0.0388
18103W        W61094  25.068  22.977  16.061 -0.1734 -0.1110  0.0063
18104W        W61095  30.499  15.086  15.300 -0.0893  0.0071  0.0689
18105W        W61096  15.338  11.596  17.999  0.0657  0.1575  0.1520
18106W        W61097  30.805  12.183  18.090  0.2191  0.2574  0.2449
18107W        W61098   2.039   0.865  27.017  0.2203  0.0561  0.0154
18108W        W61099   1.178  29.898  15.318 -0.2123  0.0250 -0.1369
18109W        W61100  15.952  14.341  24.303 -0.3235  0.0243 -0.3071
18110W        W61101   0.022  26.935  19.084 -0.1658  0.0558  0.1044
18111W        W61102  34.416  10.371  25.457 -0.3376 -0.3218  0.4843
18112W        W61103  23.620  18.344  14.669 -0.0335  0.0787  0.1995
18113W        W61104  16.529   7.820  24.844 -0.0531 -0.1180 -0.1543
18114W        W61105  26.093  33.332  22.774 -0.0759  0.0755  0.0513
18115W        W61106  32.422  18.933   6.146  0.3316  0.0390 -0.1396
18116W        W61107  17.738  11.185  26.387  0.1300  0.2584 -0.0062
18117W        W61108  27.356   2.384  28.157  0.3047  0.3248 -0.2142
18118W        W61109  12.235  15.821  27.243  0.2690 -0.0859  0.2130
18119W        W61110   0.510  15.957  16.772 -0.4764  0.0648  0.2237
18120W        W61111  11.360  32.946  20.473 -0.1185  0.1443  0.1958
18121W        W61112  34.571   2.535  27.105 -0.1633  0.1422 -0.1608
18122W        W61113  25.964  10.776  15.792  0.1405 -0.1824 -0.0818
18123W        W61114  25.526   7.419   2.631 -0.0212 -0.0632 -0.1515
18124W        W61115  27.961   3.913  24.948  0.0469 -0.0544  0.0519
18125W        W61116  26.997   5.214  19.283 -0.3204  0.0136 -0.3559
18126W        W61117  26.560  10.690  17.279 -0.1754 -0.1426 -0.0521
18127W        W61118  26.173   6.504  21.353 -0.0045 -0.1348 -0.0686
18128W        W61119  22.713  24.154  26.722  0.1467  0.3467 -0.1295
18129W        W61120  22.428  15.547   7.130  0.5052  0.1286 -0.1011
18130W        W61121  20.911  14.824   8.981 -0.0838 -0.0316  0.0552
18131W        W61122  30.628  12.320  23.179 -0.0213  0.0448  0.0798
18132W        W61123  24.707  25.766  17.031 -0.1121 -0.2854  0.1939
18133W        W61124  25.062  16.892  17.960 -0.0992 -0.0364  0.1139
18134W        W61125  26.201  14.142  23.808  0.1599 -0.1619  0.0079
18135W        W61126  26.593   2.755   4.970 -0.2596 -0.0977  0.0175
18136W        W61127  21.649   4.827  21.708 -0.1956  0.0335 -0.0671
18137W        W61128  29.410   7.746  28.798 -0.0031 -0.3793  0.3689
18138W        W61129   4.410   2.915  21.421 -0.2834 -0.3130 -0.0765
18139W        W61130   8.586   1.600  14.115 -0.0630  0.0583 -0.3323
18140W        W61131  15.958  23.785  16.582 -0.0608  0.0015  0.1133
18141W        W61132  11.699   7.919  22.465 -0.3689 -0.1126 -0.4144
18142W        W61133   5.775   9.581  16.030  0.2421 -0.2212  0.1891
18143W        W61134  12.709  22.740  24.695 -0.0503  0.3108 -0.2534
18144W        W61135  24.295  27.581  16.940 -0.0480  0.1062  0.0409
18145W        W61136   3.305   8.680  15.945  0.2758  0.0991  0.0533
18146W        W61137  23.741  22.805  27.894  0.2163  0.1776  0.0062
18147W        W61138  28.182  11.027  24.084  0.1977 -0.0302  0.0322
18148W        W61139  26.793  16.839  26.249  0.2786  0.1335 -0.0160
18149W        W61140  17.253   0.139  17.239 -0.1997  0.1369  0.0331
18150W        W61141  27.506   9.395  20.685  0.1049 -0.0952  0.2523
18151W        W61142  21.331  34.768   3.185 -0.1411  0.4193 -0.0251
18152W        W61143  17.682   6.107  17.941  0.0022 -0.2364  0.1578
18153W        W61144  14.708   2.549   1.307 -0.1876 -0.3071  0.0653
18154W        W61145  32.937  12.599  15.776  0.0979  0.3157 -0.0743
18155W        W61146  14.143   4.990   8.553  0.0822  0.5043  0.1454
18156W        W61147  31.543  11.653  20.633  0.2311  0.0866  0.2509
18157W        W61148  28.020  25.822  13.883  0.0356 -0.1708  0.0910
18158W        W61149  24.753  26.008  24.823  0.1806  0.4237  0.0597
18159W        W61150  21.344   0.539  17.534  0.3870  0.0729 -0.4339
18160W        W61151  25.490  12.198  28.547 -0.2973  0.0103  0.2379
18161W        W61152  24.641  14.636  17.660 -0.0656 -0.1075  0.4279
18162W        W61153  32.947   6.365  24.889 -0.2942  0.0841 -0.1676
18163W        W61154  31.758  15.076  25.190  0.1483 -0.2390 -0.1392
18164W        W61155  26.277  33.191  16.028  0.3066 -0.2131  0.1383
18165W        W61156  20.748  32.583  21.773  0.2434 -0.1781  0.0659
18166W        W61157   0.831   7.785   5.584  0.0918 -0.4099  0.0340
18167W        W61158  25.612   4.747  15.185  0.0427 -0.1240  0.0942
18168W        W61159  24.601  30.454  13.893  0.2550 -0.3302  0.4176
18169W        W61160  21.190  32.878  22.694 -0.2890 -0.3568 -0.1210
18170W        W61161  23.357   4.324  21.488  0.1191  0.0125  0.0861
18171W        W61162  32.067  26.610  13.857  0.0729 -0.0914 -0.1860
18172W        W61163   1.218   6.128  25.905  0.1051  0.1204 -0.1633
18173W        W61164   8.806  23.638  22.520 -0.0158  0.0375  0.3683
18174W        W61165  17.517  34.330   0.117 -0.0228  0.0221 -0.2544
18175W        W61166   5.272  27.154  29.251 -0.1415  0.1694 -0.0702
18176W        W61167  28.587  33.345  12.573 -0.2713  0.2038 -0.0425
18177W        W61168  22.736   7.414  15.600  0.1610 -0.0391 -0.0562
18178W        W61169  17.321  21.856  22.727 -0.1049  0.0606  0.0388
18179W        W61170  29.509  28.668  17.208 -0.3047  0.2613  0.0799
18180W        W61171  22.197   3.709  14.303  0.4307 -0.2679  0.1403
18181W        W61172  31.802  18.629  17.662 -0.1053 -0.0301 -0.1711
18182W        W61173   5.712  13.728  17.280 -0.1743  0.2716  0.0975
18183W        W61174  12.309  16.236  20.758  0.3273  0.1910  0.0994
18184W        W61175  21.642  14.547  19.831 -0.1282 -0.0583  0.0355
18185W        W61176  26.448  10.032  29.196  0.0109 -0.0061 -0.1629
18186W        W61177  24.666  33.467  26.090 -0.0982 -0.0333 -0.2907
18187W        W61178   0.334  20.862  19.214 -0.0712 -0.5513 -0.3092
18188W        W61179  30.999   5.529  27.174 -0.0634  0.0577 -0.0956
18189W        W61180  27.004  32.531   0.914  0.2770 -0.0414  0.0682
18190W        W61181  14.109  33.121  26.232  0.1104 -0.1123  0.0799
18191W        W61182   2.456   4.166   4.998  0.2970 -0.2594 -0.0105
18192W        W61183  34.009   6.984  18.428 -0.0428  0.0434 -0.4196
18193W        W61184  13.559   7.177  27.668  0.2828  0.1186  0.0147
18194W        W61185   3.116  30.147  22.260  0.1156 -0.3741 -0.0422
18195W        W61186  22.186  14.716  18.295 -0.0212  0.2991 -0.1578
18196W        W61187   0.372  11.565  29.100  0.0800  0.0967 -0.2800
18197W        W61188  14.374   9.216  17.592  0.0381  0.2755 -0.1678
18198W        W61189  22.727  14.625  14.776 -0.2452  0.1943  0.1339
18199W        W61190  33.766  30.672  26.339  0.0031  0.1358  0.3427
18200W        W61191  30.570  21.773  17.475  0.0249  0.0195  0.2173
18201W        W61192  28.992  24.488  15.016 -0.0984 -0.3227  0.1168
18202W        W61193  21.423  27.937  16.662  0.1882  0.2107 -0.3632
18203W        W61194  29.138  13.200  14.845  0.0561  0.0312 -0.0247
18204W        W61195  34.432  11.084   0.011  0.1200  0.2383  0.0249
18205W        W61196  12.783  20.179  27.089 -0.1132 -0.0961  0.0176
18206W        W61197  24.511  16.818  19.830  0.0954  0.0169  0.2555
18207W        W61198  18.178  14.311  26.657  0.0940  0.3362 -0.1979
18208W        W61199  33.598  12.719  17.161 -0.2395  0.2582  0.1287
18209W        W61200  23.509  21.957  28.309 -0.2439  0.0413  0.0496
18210W        W61201  16.004   4.874  24.262  0.4375  0.1112  0.1131
18211W        W61202  29.046   9.162  18.590  0.2663  0.2543  0.0087
18212W        W61203  30.905   9.972   0.933 -0.2012 -0.0975  0.1990
18213W        W61204  25.215  14.879  23.725  0.0474  0.1622  0.2412
18214W        W61205  21.298  12.358  24.184  0.1189 -0.1789  0.2203
18215W        W61206  19.357  32.625   4.202  0.1391 -0.2062 -0.1017
18216W        W61207  15.547   7.990  20.448 -0.1373 -0.3185 -0.0318
18217W        W61208   7.005  11.385  14.978 -0.2732 -0.0508 -0.0425
18218W        W61209  28.330   6.141  22.701 -0.0011  0.2811  0.0605
18219W        W61210  21.365  14.651  15.547  0.0154  0.1560  0.2017
18220W        W61211  25.383  24.423  16.410 -0.1502  0.3873 -0.0858
18221W        W61212  27.429  25.831  20.742  0.3063 -0.1322  0.2387
18222W        W61213  20.692   1.038  23.901 -0.1490 -0.3451 -0.0109
18223W        W61214  28.327   2.789  19.455 -0.0007 -0.3510 -0.0881
18224W        W61215  21.660  31.809  21.598  0.0071  0.1245 -0.1115
18225W        W61216  23.358  28.972  23.610 -0.2487  0.1328 -0.0840
18226W        W61217  21.748   9.543  23.506 -0.0863 -0.0479 -0.2790
18227W        W61218  15.984   8.071  20.763 -0.0409 -0.3207  0.1085
18228W        W61219   4.245   2.813  16.793 -0.2019 -0.0504 -0.0785
18229W        W61220  15.913  27.571  23.849  0.2444  0.0623 -0.3734
18230W        W61221  25.315   7.554  13.988 -0.0823  0.0679  0.0702
18231W        W61222  32.276   1.885   0.529  0.0509  0.2485 -0.1224
18232W        W61223  28.490  22.090  27.389 -0.0335  0.0454 -0.1945
18233W        W61224  19.529  16.367  13.413  0.1644 -0.1582 -0.1765
18234W        W61225  32.435  11.503  26.174 -0.2159 -0.0400 -0.0969
18235W        W61226  10.242  26.738  16.393  0.0911 -0.0515  0.2121
18236W        W61227  30.937  21.462  15.562 -0.1774  0.2044 -0.3932
18237W        W61228   3.719  33.485  19.203  0.1194  0.1902  0.1923
18238W        W61229  29.390   2.099  13.895 -0.1344 -0.0510  0.1699
18239W        W61230  32.718   1.443  27.295  0.0485 -0.1531 -0.1010
18240W        W61231  34.338  33.048  19.431 -0.1274  0.0855 -0.0467
18241W        W61232  25.047  16.308  19.761 -0.1729 -0.0637 -0.1458
18242W        W61233   1.742  23.381  15.599  0.0718  0.1144  0.0815
18243W        W61234   3.112  18.832   2.579  0.0550 -0.1209  0.1766
18244W        W61235  15.606  26.509  19.865 -0.1110  0.0886  0.1730
18245W        W61236   8.089  28.271  24.862 -0.2789  0.1490 -0.1696
18246W        W61237   4.562  11.814  22.003 -0.1110 -0.3503  0.4388
18247W        W61238  21.927   9.933  27.998  0.2164 -0.3677 -0.0746
18248W        W61239  22.543   3.967  24.421  0.2785 -0.1777  0.1803
18249W        W61240  17.357  27.375  16.215  0.0881 -0.0447  0.0722
18250W        W61241  18.182  32.843  17.690 -0.0105 -0.0208 -0.2031
18251W        W61242  27.531  13.877  14.438 -0.1083  0.1562  0.0374
18252W        W61243  15.554  13.747  12.906  0.1504  0.1821 -0.0002
18253W        W61244  22.183  21.947  22.390 -0.1495 -0.3221 -0.1246
18254W        W61245  26.349  33.449  28.397 -0.3776 -0.0502 -0.2144
18255W        W61246   3.014  15.669  16.649 -0.2301 -0.0762  0.0524
18256W        W61247  32.167  26.317  27.866  0.1434  0.0057  0.0008
18257W        W61248  33.507  15.998  20.476  0.0048 -0.1863 -0.1318
18258W        W61249  27.583   6.575  24.605 -0.1246  0.1070  0.0854
18259W        W61250  23.159  10.693  20.725 -0.1465 -0.1238 -0.0362
18260W        W61251  15.624   1.994  23.790  0.1150 -0.0805 -0.1253
18261W        W61252  21.894   3.699  27.673 -0.1144  0.1534  0.0579
18262W        W61253  33.732   6.163  22.759  0.1626  0.3275  0.2764
18263W        W61254  22.775  12.692  13.319 -0.0101 -0.1174  0.1496
18264W        W61255  32.195   7.937  28.203  0.2994 -0.0160 -0.1808
18265W        W61256  26.385   7.095  20.484  0.2502  0.1369 -0.0038
18266W        W61257  29.721  21.275   7.025 -0.1257 -0.2651 -0.1628
18267W        W61258  31.935  15.137  24.440  0.0686  0.2070 -0.4303
18268W        W61259   0.374   7.720  20.656  0.0558 -0.1217 -0.1260
18269W        W61260  33.312   8.584  16.306 -0.2778  0.1760  0.2575
18270W        W61261  22.440   6.298   1.113 -0.1133  0.0590  0.0387
18271W        W61262  34.696   5.175   0.544 -0.2554 -0.2680 -0.1952
18272W        W61263  28.864   6.592  19.414  0.0147  0.3180  0.1075
18273W        W61264  28.600  17.057  26.895 -0.0282 -0.0354  0.0130
18274W        W61265  32.217  10.506  22.454 -0.2634  0.1839 -0.0392
18275W        W61266  29.654  22.082  18.201  0.0182 -0.3044 -0.2190
18276W        W61267  22.561  24.044  18.321 -0.2319  0.3774 -0.2599
18277W        W61268  26.113   5.923   9.391  0.2397 -0.1373  0.2058
18278W        W61269  28.626  24.106  25.694 -0.3872  0.3560  0.1188
18279W        W61270  33.537   5.019  22.735  0.3929 -0.2291  0.0454
18280W        W61271  15.182   5.626  24.746  0.3129 -0.0340  0.0741
18281W        W61272  27.649  17.560  20.791 -0.0718  0.2629  0.3287
18282W        W61273  12.252  23.403  14.710 -0.0832  0.2153  0.4975
18283W        W61274  25.522  10.499   4.541  0.0480 -0.0035 -0.2714
18284W        W61275  17.824  13.518  21.311  0.1606  0.1440  0.1508
18285W        W61276   3.615  12.683  19.116  0.1493 -0.0946  0.3802
18286W        W61277  30.237  10.826  27.214 -0.1695  0.2135  0.2784
18287W        W61278  16.586   2.926  16.329 -0.1370 -0.2076  0.0498
18288W        W61279  30.544  29.587  16.348 -0.0725 -0.4437 -0.1298
18289W        W61280   0.933  11.241   0.788 -0.0303 -0.1785 -0.3560
18290W        W61281  24.520   2.008  28.111 -0.3649  0.1605  0.2780
18291W        W61282  22.928  16.262   0.989 -0.1609  0.2109 -0.1319
18292W        W61283   1.652  27.693   5.964 -0.0569 -0.1767 -0.1203
18293W        W61284  25.362   9.397  17.142  0.0303 -0.1494 -0.0935
18294W        W61285  28.404  31.130  25.115 -0.0659 -0.0389 -0.2234
18295W        W61286  10.871  19.251  13.712 -0.0014  0.0661  0.0540
18296W        W61287  20.365  33.325  23.933  0.1132 -0.1921  0.3116
18297W        W61288   1.738  16.957   4.164  0.1395 -0.1941 -0.2195
18298W        W61289   9.585   1.279  21.872 -0.0212  0.1323 -0.1131
18299W        W61290  29.112  18.126  19.440 -0.3571  0.0762  0.0397
18300W        W61291  26.443  32.537   0.613 -0.3686  0.2733 -0.2468
18301W        W61292  24.032  34.509  16.503 -0.2486  0.1805 -0.2058
18302W        W61293  21.145  14.245  15.652  0.0430 -0.1380 -0.0972
18303W        W61294  17.823   4.607   7.046  0.0049  0.2305 -0.2105
18304W        W61295  23.802  12.074  19.538  0.0245 -0.0016  0.0079
18305W        W61296  14.122  12.965  27.321  0.2013  0.0064 -0.2495
18306W        W61297  18.625  21.591  25.526 -0.2729  0.1065 -0.0230
18307W        W61298   3.605   1.380  25.386 -0.0017 -0.3340 -0.0192
18308W        W61299  16.159  25.836  22.981 -0.1036 -0.1549 -0.0378
18309W        W61300  34.441  21.841  20.917 -0.0067  0.3667 -0.2826
18310W        W61301  29.083  34.436  22.578  0.3899 -0.1254  0.1744
18311W        W61302  20.714  17.645  13.214  0.0430 -0.0355  0.0497
18312W        W61303  20.966  25.144  22.091  0.1286  0.0329 -0.1573
18313W        W61304  28.314   8.521  15.225  0.1660  0.0845  0.0336
18314W        W61305   5.024   1.700  28.526  0.3642 -0.1422 -0.0258
18315W        W61306  21.420   5.865  16.872  0.0585 -0.2424 -0.1136
18316W        W61307   4.142   7.922   0.011 -0.2218 -0.1771  0.2705
18317W        W61308  15.704   8.030  22.652  0.1326  0.1058  0.0505
18318W        W61309  24.380   7.187   2.023  0.1414  0.1892 -0.1153
18319W        W61310  30.768   7.705  14.249  0.1172 -0.0446 -0.2273
18320W        W61311  23.977  17.310  16.225  0.2521 -0.0563 -0.0927
18321W        W61312  19.941   2.033  17.007 -0.1927 -0.3447  0.1223
18322W        W61313  12.475  28.602   3.861 -0.0175  0.1602  0.0086
18323W        W61314  20.655  26.955  15.111  0.0216  0.0686  0.0658
18324W        W61315  22.097   2.061  13.698  0.2312 -0.0784  0.2430
18325W        W61316   2.521  22.585   2.548 -0.1284 -0.0671 -0.1004
18326W        W61317  23.939  13.816  26.845  0.1822 -0.0355  0.0339
18327W        W61318  28.917  16.726   1.567 -0.0947  0.1324 -0.0695
18328W        W61319  29.068  30.388  26.010 -0.2902  0.1665  0.3638
18329W        W61320  25.820  10.488  14.890 -0.0940 -0.5491 -0.0341
18330W        W61321  15.176   5.428  20.771  0.1897 -0.0028  0.2776
18331W        W61322  24.942  23.597  19.037  0.0163 -0.4166  0.0538
18332W        W61323  34.305  16.950  18.609 -0.0391 -0.3201 -0.0798
18333W        W61324  32.564  11.306  10.623 -0.1980 -0.1237 -0.1407
18334W        W61325  26.614  20.625  24.906 -0.2093 -0.1525 -0.3347
18335W        W61326  28.806   7.317  15.112 -0.1601 -0.0062  0.0596
18336W        W61327  27.657   5.481  17.933  0.0505 -0.2871 -0.0568
18337W        W61328  18.004  11.765  14.870  0.1028  0.1338 -0.1402
18338W        W61329  31.896  16.326  16.091 -0.0207  0.3398  0.1267
18339W        W61330  22.020   2.958  22.534  0.0750 -0.0889  0.1318
18340W        W61331  29.561  32.558  16.401 -0.0256  0.0603  0.0111
18341W        W61332  11.619  25.682  27.058  0.0584 -0.0820  0.3808
18342W        W61333  30.652  10.922  24.649  0.2063  0.0716  0.1357
18343W        W61334  26.750  17.289  18.633  0.2076  0.2700  0.1486
18344W        W61335  23.315   5.034  20.915  0.2013 -0.0352  0.1503
18345W        W61336  16.881   2.042  27.022  0.0188  0.2854 -0.1117
18346W        W61337  17.811  33.977  22.009 -0.2312  0.3062 -0.1528
18347W        W61338  29.208   5.815  20.900  0.2493  0.1266  0.0147
18348W        W61339  25.373  14.585  24.158  0.5389  0.2259  0.3278
18349W        W61340  14.418   0.760  23.356 -0.1678  0.0422  0.4467
18350W        W61341  23.105   6.281  20.417  0.0453 -0.3833  0.0171
18351W        W61342  25.555  12.045  18.608 -0.0252  0.0583 -0.1359
18352W        W61343   6.025   5.856  20.877 -0.3160  0.0388 -0.1962
18353W        W61344  28.082  33.436   4.113 -0.2238  0.1809  0.0281
18354W        W61345   7.471   2.781  19.096  0.0390  0.1304 -0.0722
18355W        W61346  28.323   8.409   4.883  0.0023  0.0102  0.0742
18356W        W61347  10.142   2.846  28.249  0.2805 -0.1751  0.0070
18357W        W61348   3.047   2.919   4.181 -0.1991 -0.0054  0.5472
18358W        W61349   1.322  10.309   1.148 -0.1881 -0.2414  0.4034
18359W        W61350  34.783  18.882  17.873 -0.3614 -0.0624 -0.3367
18360W        W61351  21.310  13.167  23.110  0.0165 -0.3355 -0.1979
18361W        W61352   0.142  14.839  25.735  0.1299  0.1341  0.1051
18362W        W61353  23.993  12.922  14.424 -0.0944 -0.3706  0.1849
18363W        W61354  18.509  20.281  14.311  0.0453  0.1500  0.2845
18364W        W61355   1.485   2.802  23.035  0.1538  0.1290 -0.1860
18365W        W61356  25.552  13.034  23.190 -0.0880 -0.0272  0.0481
18366W        W61357   9.555   0.085  19.304  0.0056 -0.2456  0.0932
18367W        W61358  12.748  11.181   7.607  0.2477  0.1188 -0.4619
18368W        W61359   5.153   0.603  23.035 -0.2665  0.0526 -0.0276
18369W        W61360  22.427  12.578  16.159 -0.2026 -0.0002  0.0360
18370W        W61361  26.436  31.983  13.784  0.1146 -0.3572 -0.0798
18371W        W61362  27.976   3.518  18.591  0.0759 -0.1122 -0.0760
18372W        W61363  22.766  24.503  21.301 -0.1441 -0.2878 -0.0965
18373W        W61364  28.367  16.100  14.159  0.1345 -0.3062 -0.1921
18374W        W61365  32.377   0.780   0.518  0.0505  0.1191  0.1863
18375W        W61366   2.967  10.050  18.526 -0.0262  0.1271 -0.0600
18376W        W61367  14.292   5.981  16.192 -0.1025 -0.3545 -0.1647
18377W        W61368  18.958   5.320  16.460  0.4048  0.0558 -0.2557
18378W        W61369  33.215  18.600  17.985  0.1045  0.1678 -0.2891
18379W        W61370  29.991   4.904  22.645  0.5762 -0.3486 -0.0419
18380W        W61371  12.161  28.725  23.626  0.0768 -0.2728  0.2067
18381W        W61372  19.117   3.871  16.374 -0.0750 -0.4981  0.1588
18382W        W61373  22.959   7.347  25.351 -0.0091 -0.2985  0.0263
18383W        W61374  21.513  10.505  15.023 -0.1446  0.0572 -0.2664
18384W        W61375  20.920  25.314  13.871 -0.0877  0.1820  0.2640
18385W        W61376   0.394  18.819  18.686 -0.0383 -0.1510  0.0374
18386W        W61377  16.022  24.519  15.680 -0.1702 -0.0892  0.1085
18387W        W61378  11.774  17.112  18.710 -0.2879  0.1924  0.0473
18388W        W61379  30.640  30.843   6.441  0.1187  0.1494  0.0270
18389W        W61380  25.734   1.423  22.854 -0.3251  0.0476  0.0426
18390W        W61381  22.172  27.106  18.871 -0.3678 -0.1830 -0.0418
18391W        W61382  20.337   5.706  14.235  0.0805 -0.0969 -0.1813
18392W        W61383  18.319  31.258  14.924 -0.2272  0.0065 -0.4196
18393W        W61384   3.852   1.347  21.045 -0.4628 -0.0335 -0.2583
18394W        W61385   7.687  14.237  21.632  0.0709  0.0353  0.0280
18395W        W61386  26.519   4.342  25.114  0.0495 -0.3493  0.2410
18396W        W61387  27.462  19.331  21.421 -0.0660  0.1791  0.0441
18397W        W61388  29.994   3.812   0.946  0.2120 -0.3204  0.0819
18398W        W61389  21.336   4.746  25.829 -0.0119  0.1658  0.2042
18399W        W61390  27.690   5.757  17.493 -0.0572  0.0452  0.2289
18400W        W61391  23.718  34.326  25.307 -0.3567 -0.4075 -0.0635
18401W        W61392  29.787  31.016  14.947  0.3056 -0.2780 -0.0605
18402W        W61393  32.924  29.175   2.725 -0.0739 -0.2046 -0.0729
18403W        W61394  22.569  28.547   0.527  0.2413  0.3402  0.0459
18404W        W61395  27.843   4.509  17.370  0.1026  0.0125 -0.3181
18405W        W61396  30.385   9.893  21.178  0.2724  0.1484 -0.2562
18406W        W61397  20.101   1.189  21.849  0.0631 -0.1545  0.0786
18407W        W61398  12.255  33.450   1.239  0.0506 -0.1646  0.0462
18408W        W61399   8.612  25.915  17.169  0.4308 -0.0680  0.0583
18409W        W61400  19.278  29.576   1.833  0.0801  0.0287 -0.2083
18410W        W61401  23.893  16.295  17.456  0.0527  0.1180  0.2404
18411W        W61402  27.308  12.877  19.588  0.0347  0.2147  0.2032
18412W        W61403  32.585   9.433  16.371 -0.2105 -0.0013  0.1173
18413W        W61404  13.826  13.041  28.181 -0.0694 -0.1336 -0.4855
18414W        W61405  34.770   9.673  15.631 -0.0225 -0.3132 -0.1974
18415W        W61406  31.313  16.628  21.300 -0.0799 -0.1614 -0.0146
18416W        W61407   0.541   3.931  27.092 -0.0244 -0.0021 -0.0792
18417W        W61408  25.164   1.320  21.452  0.3397  0.1872  0.1513
18418W        W61409   2.664  13.492  23.398  0.1355  0.1473 -0.2591
18419W        W61410  28.681  12.492   3.782 -0.0802  0.0375 -0.4866
18420W        W61411   9.093  24.878   3.968 -0.0856  0.4386 -0.2245
18421W        W61412   3.643  31.349  23.785  0.1204  0.1442  0.0209
18422W        W61413   0.017   1.439  20.248 -0.0971  0.1702  0.0882
18423W        W61414   9.028  29.789   8.388 -0.1116  0.3035  0.0541
18424W        W61415   2.786  12.401  20.931 -0.4299 -0.0219  0.4089
18425W        W61416   0.962  17.708  26.524  0.3652 -0.0430 -0.0799
18426W        W61417  27.465   5.978  17.916  0.1593 -0.2048 -0.0986
18427W        W61418  32.302   6.413   0.129  0.0180 -0.1126  0.4084
18428W        W61419  31.401   3.687  17.146 -0.0096  0.2209  0.0079
18429W        W61420   0.055  18.706   8.565 -0.1679  0.2060 -0.2059
18430W        W61421  23.647  23.412  14.752 -0.1841 -0.2040  0.0617
18431W        W61422  20.454   2.213  17.945  0.0260 -0.3560 -0.0148
18432W        W61423   5.209  14.129  27.675  0.1505 -0.0460 -0.1351
18433W        W61424  14.780  17.325  16.345  0.0453 -0.0787  0.1439
18434W        W61425  14.915  26.627  14.184  0.3410 -0.1501 -0.1954
18435W        W61426  26.688  30.602   4.671 -0.0045  0.0635 -0.0864
18436W        W61427  22.507  13.740  21.605 -0.0495 -0.0217 -0.2892
18437W        W61428  25.036   9.816  18.548  0.0208 -0.0384  0.1260
18438W        W61429  23.239  11.579  13.733  0.1316 -0.3717 -0.0260
18439W        W61430  28.892   1.654  16.639  0.0995 -0.2666  0.2217
18440W        W61431  24.080  22.745  16.544 -0.0833  0.1460 -0.0923
18441W        W61432   5.519   8.896   0.953  0.0965 -0.0330  0.2334
18442W        W61433  24.802  21.353  16.794 -0.0196  0.2878 -0.1016
18443W        W61434   1.012  10.261   1.633 -0.1473 -0.1337  0.1094
18444W        W61435  16.644  29.057  22.969  0.0002  0.1845 -0.2948
18445W        W61436  20.155  11.358  21.922  0.1662  0.0729 -0.0668
18446W        W61437  26.489   6.237  19.694 -0.1506 -0.0898  0.2312
18447W        W61438   3.183   7.047  19.961 -0.0168 -0.0911 -0.2496
18448W        W61439  15.548   1.686   3.287 -0.3145  0.2272  0.3360
18449W        W61440   0.354  16.718  18.274  0.0377  0.0013 -0.1001
18450W        W61441  22.943   2.970  22.854  0.3095 -0.2801  0.2956
18451W        W61442  15.534  11.603   4.914 -0.2513  0.0262 -0.0034
18452W        W61443  11.095   9.306  23.623 -0.0582 -0.1328  0.1761
18453W        W61444  28.661   5.634  15.265 -0.1154 -0.1120 -0.1857
18454W        W61445  33.377  13.208  28.552 -0.1266  0.1411  0.0577
18455W        W61446  20.770   3.544  13.699 -0.0735  0.1071  0.1160
18456W        W61447  27.792  29.479   3.660 -0.0984 -0.1230 -0.2372
18457W        W61448  34.358   3.227   0.140 -0.4174  0.2214 -0.2007
18458W        W61449  24.517   1.786  28.891  0.0309  0.0746 -0.0280
18459W        W61450  22.175  16.688  17.829 -0.1011 -0.2441 -0.2529
18460W        W61451  34.760   3.318  28.743 -0.1562 -0.1888 -0.1781
18461W        W61452   7.868  22.056  23.341  0.0217  0.0729 -0.3028
18462W        W61453  26.876  10.201   7.244 -0.1816  0.0260  0.1890
18463W        W61454  26.090   3.442  17.762 -0.1614 -0.0901  0.1449
18464W        W61455   1.910  30.721  17.960  0.0387 -0.1144  0.0618
18465W        W61456  32.151  25.330  16.460  0.2674  0.3163  0.0768
18466W        W61457  21.147  10.826   3.599 -0.0173 -0.4012  0.0155
18467W        W61458  19.577  11.556  14.415  0.0606  0.0829 -0.1874
18468W        W61459  13.128   2.018  22.859 -0.5008  0.1020 -0.2522
18469W        W61460  26.948  33.141  22.838 -0.1478 -0.0813 -0.0737
18470W        W61461  27.607  21.196   7.169 -0.1336 -0.0628  0.1319
18471W        W61462   1.267  18.505   5.273  0.2312  0.3294 -0.1452
18472W        W61463  28.447   5.142   0.359  0.2707  0.0522  0.1553
18473W        W61464  29.483  14.687  15.532  0.0148  0.1080  0.1193
18474W        W61465  33.526  34.781   7.093 -0.0276 -0.0405  0.1610
18475W        W61466   0.959  19.309  22.189 -0.2214 -0.0284  0.0066
18476W        W61467  32.957  12.966   4.078  0.0766  0.1535 -0.1152
18477W        W61468  16.185  12.576  20.004  0.0574  0.0494  0.1452
18478W        W61469   4.269   1.698  19.460  0.1701 -0.0688  0.1159
18479W        W61470   4.717  15.891   9.720  0.1463 -0.0821 -0.3254
18480W        W61471   6.742   2.981  25.114 -0.0611  0.1415 -0.0493
18481W        W61472  30.973   8.454  26.652  0.2546 -0.0400  0.3648
18482W        W61473  33.056  16.388   2.877  0.0426  0.2579 -0.3712
18483W        W61474  29.084  16.305  22.857  0.0955 -0.1643 -0.2091
18484W        W61475  14.823  28.410   6.942 -0.2815  0.0466  0.0040
18485W        W61476   3.602  16.189  20.925  0.1071 -0.1866 -0.0267
18486W        W61477   1.276  16.191  19.045  0.0091  0.4599 -0.1024
18487W        W61478  32.679   7.644  26.269  0.2137 -0.1366  0.2820
18488W        W61479  26.749   6.162  19.058  0.0525 -0.3014 -0.3488
18489W        W61480  23.263  15.713   6.185  0.1846 -0.1861 -0.1699
18490W        W61481  21.964  10.306  15.231 -0.0485  0.0622 -0.2246
18491W        W61482  19.368   9.782  14.757  0.0322 -0.0635  0.0474
18492W        W61483  22.601   6.085  26.258 -0.0864  0.0881 -0.1035
18493W        W61484  28.484  14.493  15.765 -0.1475  0.2103 -0.1689
18494W        W61485  27.140  16.592  26.663  0.1807  0.1341  0.3628
18495W        W61486  26.130  17.255  21.120 -0.0907  0.0981 -0.0345
18496W        W61487   3.045  18.212   1.491  0.2857  0.0773  0.1023
18497W        W61488  13.303   0.566   9.004 -0.0725  0.1024 -0.2824
18498W        W61489  22.484  15.139  14.623 -0.0796  0.1993  0.0172
18499W        W61490  19.383  30.751  24.868 -0.2305  0.0095  0.1417
18500W        W61491   8.878   7.197   3.859 -0.0381 -0.1431  0.1811
18501W        W61492  26.760  10.590   1.492  0.2366  0.1554 -0.0309
18502W        W61493  34.119  10.008  25.456 -0.0431  0.2262 -0.1283
18503W        W61494  34.031  22.279   6.565  0.1377  0.2083  0.1573
18504W        W61495   9.407  20.649  16.141  0.0839  0.0861 -0.0542
18505W        W61496  17.079  34.363  16.059 -0.2278  0.0467 -0.3349
18506W        W61497  21.228   2.423  23.701 -0.0573  0.0227 -0.2625
18507W        W61498  31.007  14.007  28.344  0.0868  0.5120  0.1722
18508W        W61499  25.806  24.685  16.319  0.0683 -0.3754  0.3017
18509W        W61500  24.740   0.691  24.521 -0.0381  0.0762 -0.3386
18510W        W61501  27.558  19.789  24.682 -0.0850  0.1106 -0.1325
18511W        W61502  13.811  15.063   7.477  0.0039 -0.0314 -0.0787
18512W        W61503  28.505  17.708  26.059  0.0075 -0.2754 -0.0625
18513W        W61504  32.135  21.272  21.302 -0.1931  0.2781 -0.0357
18514W        W61505  24.055  21.732   5.992  0.1167  0.2641 -0.1645
18515W        W61506   1.052  11.791   3.313  0.1163  0.0942 -0.2901
18516W        W61507  28.595  17.513  21.542  0.1213 -0.2238 -0.0969
18517W        W61508   3.840   2.175   0.410  0.1961  0.0931  0.1569
18518W        W61509  10.678  15.580   2.707  0.0230 -0.3044  0.1795
18519W        W61510  21.731   8.900   0.763 -0.0197 -0.3453  0.0529
18520W        W61511  16.219   3.608   7.122  0.0671  0.3242 -0.0675
18521W        W61512  28.544  15.057  20.309 -0.1909 -0.0668 -0.1671
18522W        W61513  23.289  27.043  18.005  0.0553 -0.0117 -0.2569
18523W        W61514  32.758  18.653  25.327  0.2417 -0.4013 -0.0175
18524W        W61515   9.823  33.725  20.825  0.1069  0.0330 -0.1411
18525W        W61516   6.771  10.334   1.536  0.0817 -0.2379  0.4022
18526W        W61517  32.408  13.267   0.597  0.3034  0.1023  0.0058
18527W        W61518  25.395   7.411  28.583  0.2755  0.3754 -0.0367
18528W        W61519  14.790   8.379  20.683  0.0856 -0.2544 -0.2089
18529W        W61520  26.516  27.834  15.330 -0.0976 -0.1632 -0.1693
18530W        W61521  16.741  34.619  21.989 -0.1584  0.0807 -0.2518
18531W        W61522  29.082  18.898  25.276 -0.3650 -0.0422  0.4389
18532W        W61523  31.597  16.894  10.181  0.2122 -0.0160  0.1311
18533W        W61524  13.492   9.209  18.987  0.1868 -0.2290 -0.0107
18534W        W61525   3.447  32.732  15.731  0.1676  0.0925  0.0288
18535W        W61526  10.812  25.986  15.410  0.1488  0.0947  0.2007
18536W        W61527  17.082   4.778  21.716 -0.0560  0.0825 -0.0756
18537W        W61528  23.080  25.078  17.106  0.0142 -0.1611  0.0182
18538W        W61529  30.748  34.181   2.085  0.2341  0.1592 -0.0452
18539W        W61530  32.273  12.751  21.306 -0.1330 -0.0671  0.1032
18540W        W61531   7.782  20.699   5.883 -0.2050 -0.3279  0.2494
18541W        W61532   4.153  14.533   4.129 -0.4683 -0.0143 -0.1623
18542W        W61533  24.714  31.901  18.656 -0.2273  0.0248 -0.3704
18543W        W61534  33.541  10.869  26.583  0.0760  0.2631  0.0276
18544W        W61535  16.101  23.880  19.812  0.1949  0.0209  0.0270
18545W        W61536  21.569  32.571   3.580 -0.0987 -0.0425  0.0502
18546W        W61537  20.688   3.210  14.855 -0.0865 -0.0810  0.1003
18547W        W61538  12.297  13.365  16.309  0.0251  0.3244  0.1777
18548W        W61539  26.513  17.868  28.921 -0.0746  0.0386 -0.1870
18549W        W61540  24.942  20.202  17.353 -0.1904 -0.2371 -0.3398
18550W        W61541  15.104  26.914  24.438 -0.3774  0.0405  0.1555
18551W        W61542  32.804   2.124  20.000 -0.0780  0.0777 -0.1033
18552W        W61543  30.902  11.477  16.555  0.2557  0.2815 -0.1889
18553W        W61544  27.185  13.095  14.402  0.0926 -0.2064  0.2089
18554W        W61545   1.190  32.852   3.733 -0.3406  0.0632 -0.0014
18555W        W61546  17.042  14.390   6.857 -0.0541  0.2501  0.2255
18556W        W61547  13.626   6.029  18.338  0.0944  0.1108  0.0124
18557W        W61548  28.731   3.332  28.585 -0.0571 -0.3253 -0.2008
18558W        W61549  10.506  16.802  19.170  0.2383  0.0644  0.1377
18559W        W61550   4.283  27.216   1.045 -0.4126 -0.3152  0.1170
18560W        W61551  21.527  19.135  21.724  0.3702 -0.1100  0.0146
18561W        W61552  22.061   5.163  15.338  0.2062 -0.2009  0.1722
18562W        W61553  24.601  18.278   3.048 -0.0436 -0.2682  0.1134
18563W        W61554  30.323   0.583  22.521 -0.2329 -0.3549 -0.4024
18564W        W61555  32.756  25.447   4.402  0.3038  0.1871  0.0361
18565W        W61556  21.597  10.021  22.190 -0.1115  0.1790 -0.0150
18566W        W61557  27.134   9.651  23.907 -0.1337 -0.1103  0.0105
18567W        W61558   0.571  18.615  23.276  0.1977  0.0532 -0.1301
18568W        W61559  25.901   9.328  13.388 -0.0037 -0.2478  0.0342
18569W        W61560  25.380   1.191  19.272 -0.0268  0.0809  0.1404
18570W        W61561  28.378   3.420   2.891 -0.1892  0.2157  0.0128
18571W        W61562  22.583  25.363   6.110 -0.2664  0.1211 -0.1734
18572W        W61563  20.345  11.598  13.443  0.3023 -0.2772 -0.2321
18573W        W61564  31.475   4.712  15.349  0.0279 -0.0481 -0.0241
18574W        W61565   7.750   0.616  17.509  0.1017  0.1109  0.1839
18575W        W61566  30.867  26.000   1.426 -0.1202  0.0768  0.4194
18576W        W61567  18.705  12.083   7.951 -0.2108 -0.1474 -0.0127
18577W        W61568  26.668  23.698  13.506  0.1980  0.0086  0.1772
18578W        W61569  21.903   9.072  28.325  0.0982 -0.0613  0.1005
18579W        W61570  34.675   1.511  14.766 -0.2052  0.0159  0.1091
18580W        W61571  18.014   9.301  19.731  0.0144 -0.0508 -0.3268
18581W        W61572  28.824  17.516  15.909  0.0220  0.1462  0.1504
18582W        W61573  31.721  12.658  18.354 -0.2642  0.0502 -0.0601
18583W        W61574   5.501  34.119   8.886  0.1152  0.3512  0.3551
18584W        W61575  18.814   0.575  16.438 -0.1811 -0.0645  0.1610
18585W        W61576   2.507  22.025  18.648 -0.4353 -0.4582 -0.1721
18586W        W61577  17.440  31.905   3.264  0.0172  0.2630 -0.3028
18587W        W61578  18.043  11.585  17.858  0.0189 -0.2334 -0.1631
18588W        W61579  25.989  19.970  16.354  0.0346 -0.2208 -0.0556
18589W        W61580  32.160  32.135  28.001  0.0153 -0.1540 -0.2135
18590W        W61581  26.503  31.456  15.223 -0.1524 -0.0239 -0.2575
18591W        W61582  23.183  14.352  19.801  0.0696  0.0077  0.0502
18592W        W61583  22.223  13.471  17.888 -0.0829 -0.1671 -0.1790
18593W        W61584  24.954  23.758   4.183 -0.3191  0.0959 -0.1989
18594W        W61585  25.248  33.656  18.323  0.0872 -0.3661 -0.1460
18595W        W61586   5.233   9.336  25.426 -0.1328  0.2050  0.0252
18596W        W61587  33.051  19.184  24.810 -0.0175 -0.1812  0.1806
18597W        W61588   0.278  30.531  16.322 -0.1524 -0.2242 -0.3606
18598W        W61589  23.989  19.936  16.882  0.0134 -0.1171  0.0050
18599W        W61590  28.327   4.967   5.226 -0.0687  0.3115  0.2199
18600W        W61591  31.579  27.844   6.119 -0.0221  0.1440  0.3546
18601W        W61592  30.136   7.102  20.074 -0.1779  0.1630  0.3675
18602W        W61593  27.074   4.688   3.824 -0.0287 -0.0273 -0.1985
18603W        W61594  25.611  18.004  28.082  0.1041  0.1338  0.0129
18604W        W61595  27.280   0.369  16.074  0.1020  0.0692 -0.1754
18605W        W61596  28.820   7.198  10.270 -0.0074 -0.0049  0.1525
18606W        W61597  22.413  12.670   8.785  0.0514 -0.2227 -0.3213
18607W        W61598   1.876   3.803  22.257 -0.0799 -0.1834 -0.0020
18608W        W61599  30.597  32.321  23.610 -0.1845 -0.3752  0.1478
18609W        W61600  26.994  10.773  18.475 -0.3194 -0.0336 -0.1258
18610W        W61601   9.009   0.846  25.840  0.0255  0.0993  0.3942
18611W        W61602  30.100   0.847  24.096  0.2145  0.2802 -0.0261
18612W        W61603  11.574   9.925  15.451  0.2346 -0.1210  0.1334
18613W        W61604  30.672  29.864  15.962 -0.0587 -0.2024  0.0681
18614W        W61605  28.856  11.251  22.464  0.1732  0.0980  0.0465
18615W        W61606  21.324   8.313  28.329  0.1560 -0.1647 -0.0816
18616W        W61607  28.210  18.780  27.964  0.3602  0.1653 -0.1017
18617W        W61608   2.556  34.669  19.900  0.1667  0.0203 -0.2182
18618W        W61609  21.324  11.184   7.867 -0.1205  0.0173 -0.2773
18619W        W61610  20.620  31.023  13.743  0.1864  0.2166  0.5775
18620W        W61611  20.952   4.644  27.118  0.1351  0.4095 -0.1773
18621W        W61612  19.072  16.738  27.474  0.0832 -0.0243 -0.1795
18622W        W61613   3.387  25.666  23.000 -0.3318  0.1533  0.0822
18623W        W61614   2.094  17.310  19.693 -0.2310 -0.0275 -0.0067
18624W        W61615  11.349  27.809  26.290 -0.0290  0.0885 -0.0708
18625W        W61616  29.220   6.569  25.754 -0.1169  0.0196 -0.0165
18626W        W61617  25.230  12.485  23.266  0.1866  0.1791  0.0487
18627W        W61618  21.082  28.177  22.099  0.1869 -0.0007 -0.4218
18628W        W61619  27.171  31.294   4.177 -0.3864 -0.2981  0.1186
18629W        W61620  27.070  11.824   8.791 -0.1950 -0.0968  0.1954
18630W        W61621   1.893  24.818  28.666 -0.2746  0.0157 -0.2027
18631W        W61622   4.980  10.589  27.997  0.1825 -0.1701  0.2202
18632W        W61623   3.628  18.391  19.745 -0.4048  0.0659  0.0835
18633W        W61624  29.779  22.018  14.668 -0.1827 -0.2453  0.0865
18634W        W61625  31.706   7.205   5.711 -0.3842  0.1168  0.0081
18635W        W61626  28.168   9.483   6.694 -0.1286 -0.3832  0.1984
18636W        W61627  30.341  12.153  22.797 -0.0206  0.0649 -0.3235
18637W        W61628  32.512   0.717   2.070  0.0245 -0.1002 -0.1648
18638W        W61629  14.140  26.025  17.383 -0.1056  0.1191 -0.0575
18639W        W61630  19.800  11.315  22.672 -0.1737  0.0509  0.1610
18640W        W61631  26.409   2.438  18.648  0.1979 -0.0668  0.5831
18641W        W61632  31.500  16.533  24.307  0.1369 -0.1790 -0.1624
18642W        W61633   6.443  14.859   4.968 -0.1850 -0.0107  0.3170
18643W        W61634  10.511   5.317  25.640  0.2901 -0.1091 -0.0552
18644W        W61635  12.195  31.271  16.337 -0.0112  0.0173 -0.1981
18645W        W61636  15.682   7.142   3.508 -0.0118  0.0409 -0.1363
18646W        W61637   3.761  19.522   1.614  0.0935 -0.0208  0.1513
18647W        W61638   3.864  25.019  15.745 -0.1524  0.2004 -0.0923
18648W        W61639  30.150   3.530  24.239 -0.2006 -0.1457  0.1658
18649W        W61640  30.554  31.099  14.386 -0.1424 -0.3091 -0.0811
18650W        W61641   4.945  12.903  19.758  0.1010  0.1228  0.0715
18651W        W61642  25.263   5.626  16.565 -0.0580 -0.1136 -0.0527
18652W        W61643   4.318  29.432   5.954  0.5098 -0.1008  0.2080
18653W        W61644  28.789   5.434  20.190  0.2171 -0.3242 -0.1690
18654W        W61645   0.211   2.382  27.072  0.3917  0.3786 -0.2519
18655W        W61646  12.640   6.807  28.066  0.0491 -0.1964 -0.3636
18656W        W61647  25.954  19.044   6.019 -0.3432  0.1057 -0.2464
18657W        W61648  17.103  13.464  13.918 -0.0914  0.2368 -0.0700
18658W        W61649  32.206  13.829  25.026 -0.1272 -0.0739 -0.0342
18659W        W61650  29.646  21.532  26.109 -0.0818  0.1153 -0.1277
18660W        W61651  22.267  32.774  20.501 -0.1796 -0.1976 -0.1048
18661W        W61652  25.988   2.215  18.483  0.3064  0.0718 -0.2033
18662W        W61653  18.055   5.600   4.408 -0.2833 -0.0003  0.3758
18663W        W61654  22.639   3.032  17.356 -0.0238 -0.0514 -0.1852
18664W        W61655  19.425  21.601  16.953  0.0826  0.1489  0.2071
18665W        W61656   0.314   3.475  16.061  0.1312  0.3268 -0.0469
18666W        W61657  23.980  13.789   4.407 -0.3352  0.3501  0.2024
18667W        W61658  28.001   5.597  23.210 -0.0832  0.0296 -0.1875
18668W        W61659  28.199  11.486  13.784  0.1039  0.0535 -0.0454
18669W        W61660  10.548  31.110  19.605 -0.2085 -0.2728 -0.1038
18670W        W61661  15.755  10.852  18.758 -0.2452  0.2432 -0.4251
18671W        W61662  29.611   4.178   5.624 -0.2123 -0.0329 -0.1689
18672W        W61663  26.579  10.942   2.979 -0.0794  0.1594  0.0023
18673W        W61664  27.770   4.922   2.601  0.1917 -0.1392 -0.2562
18674W        W61665   1.037  28.861   4.478  0.0144 -0.1090 -0.0425
18675W        W61666  24.235  21.275  26.441 -0.0333 -0.0502  0.2112
18676W        W61667  19.853   9.109  23.738 -0.3122 -0.2619  0.0364
18677W        W61668  26.681  16.405  17.564 -0.1142  0.3731  0.1287
18678W        W61669  31.548   8.214  16.865  0.2274  0.2736 -0.0750
18679W        W61670   1.174   9.385  18.832 -0.1385 -0.2623  0.1561
18680W        W61671  13.495  33.250   4.726  0.0439  0.3706  0.0611
18681W        W61672  34.783  33.793  16.442  0.2642 -0.1479 -0.1373
18682W        W61673   0.249   0.217  16.151 -0.1092 -0.2795 -0.2249
18683W        W61674  22.168  21.693  20.196 -0.0298 -0.0870  0.2383
18684W        W61675  24.936   1.242  22.295 -0.2393  0.0972 -0.1656
18685W        W61676  23.754  11.153  18.181 -0.1891  0.3545 -0.1019
18686W        W61677   1.610  33.603  18.761 -0.1510  0.3458 -0.0128
18687W        W61678   3.166  14.793  19.752  0.2485 -0.1908 -0.0781
18688W        W61679  32.852   0.032  23.186 -0.1308  0.1301 -0.1626
18689W        W61680  19.597  12.936   5.939  0.4597  0.1591  0.0495
18690W        W61681  28.426  14.042  27.555  0.0135 -0.3922  0.3168
18691W        W61682  17.559   1.957   1.098  0.3425 -0.0739  0.0823
18692W        W61683  33.610   3.555  22.153  0.2060  0.4910 -0.0170
18693W        W61684  23.825  31.787  15.614 -0.0159 -0.2845  0.1981
18694W        W61685  19.423   7.530   3.033  0.0612 -0.0674 -0.3715
18695W        W61686  23.473   7.844  24.271  0.1372  0.0044  0.3138
18696W        W61687  27.521   5.268  16.502 -0.1669  0.1318 -0.0279
18697W        W61688  31.205  24.242   3.236 -0.2774 -0.3512  0.0980
18698W        W61689  18.646   4.732  20.790  0.1282 -0.0003 -0.1129
18699W        W61690  15.880  21.408  15.019 -0.1135 -0.1074 -0.2692
18700W        W61691  17.730  11.577   4.016  0.2831 -0.1588  0.1870
18701W        W61692  30.640  27.807  18.890 -0.0013  0.0985 -0.1856
18702W        W61693  10.792  16.590  25.999  0.2041  0.2406 -0.1096
18703W        W61694  22.454  16.046  20.876  0.1974  0.3183  0.1302
18704W        W61695  25.039  26.418  23.243  0.1455  0.0675  0.0931
18705W        W61696  11.654  10.093  19.341  0.1448 -0.0332 -0.1184
18706W        W61697  32.429   8.008  20.870 -0.0678  0.0172 -0.2633
18707W        W61698  21.496  12.903  26.282 -0.0740 -0.0529  0.0190
18708W        W61699  20.466  13.940  15.022  0.1221 -0.0513 -0.0604
18709W        W61700   5.283   6.272  25.063 -0.0780 -0.0140 -0.1476
18710W        W61701  28.412  11.438  28.353  0.2742  0.1049 -0.2218
18711W        W61702  14.925   7.046  26.371  0.0403 -0.1419  0.4328
18712W        W61703   1.673   2.871   2.949  0.1052 -0.1161 -0.0492
18713W        W61704  28.524   8.119  20.548 -0.1761 -0.0822  0.1374
18714W        W61705  18.091  25.658  17.498 -0.0378 -0.1652  0.0199
18715W        W61706  18.125  17.537  26.659  0.0966  0.1330 -0.1861
18716W        W61707   4.508  32.621  20.893 -0.2634 -0.0612  0.1248
18717W        W61708  16.040  18.825  14.708  0.2328 -0.2059 -0.2994
18718W        W61709  33.972  14.465  22.335  0.0618  0.1272  0.1214
18719W        W61710  29.545  15.030  19.230 -0.2347  0.2187 -0.2915
18720W        W61711  25.728  12.656  24.121  0.0055  0.1710  0.0195
18721W        W61712  34.607  10.503  28.247 -0.1402  0.0712  0.0895
18722W        W61713  20.797   4.887  22.257 -0.1881  0.1971 -0.0551
18723W        W61714  32.661   7.254   8.948 -0.0934 -0.0519  0.2621
18724W        W61715  27.393   1.595  12.525  0.2261  0.2206 -0.1238
18725W        W61716  27.266  23.776  23.562  0.1138  0.0284 -0.2627
18726W        W61717  26.293  28.150   1.609  0.2993 -0.0447  0.0221
18727W        W61718  23.825   8.324  23.068 -0.0244  0.0353  0.2934
18728W        W61719   3.007  17.472  10.625  0.0832 -0.1345  0.0500
18729W        W61720   5.693  15.507   3.486 -0.0345  0.1182  0.0527
18730W        W61721  24.077   2.685  26.839 -0.0992 -0.0665  0.4339
18731W        W61722   1.608  31.115  28.473  0.0973  0.0034 -0.1404
18732W        W61723  17.633  10.732  23.216 -0.0375 -0.1926 -0.0645
18733W        W61724  30.016   5.270  19.673 -0.1338 -0.1424  0.1210
18734W        W61725   6.652  14.323  18.927  0.1282  0.1186  0.2892
18735W        W61726  28.967  11.365  14.397  0.0455  0.0249  0.1494
18736W        W61727  21.647  20.215  21.983  0.0132 -0.1729  0.0717
18737W        W61728   4.230  19.509  15.931  0.1139  0.0022  0.1249
18738W        W61729  32.833  19.501  21.202  0.1076 -0.0599 -0.0671
18739W        W61730  10.287  24.626  22.861  0.0306 -0.1193 -0.0952
18740W        W61731  23.850   3.495   7.252 -0.0178  0.2868 -0.1666
18741W        W61732  19.532  22.699  16.274  0.3346 -0.0794 -0.1082
18742W        W61733  16.729   8.255  27.919 -0.2326  0.1317  0.1162
18743W        W61734  17.613  13.455  15.747 -0.0703  0.1394 -0.1742
18744W        W61735  26.637   6.909  21.875  0.0961 -0.2687  0.1773
18745W        W61736  24.217   5.063  19.801 -0.2588  0.2893 -0.0182
18746W        W61737  29.006  16.491   3.814  0.1788  0.0090 -0.0512
18747W        W61738  19.875  31.755  14.381  0.4938 -0.0917  0.0788
18748W        W61739  25.572  11.267  23.700 -0.0046  0.2343  0.1937
18749W        W61740  21.994  11.465  27.488 -0.0652  0.1357 -0.2233
18750W        W61741   7.712   6.699  27.377 -0.2757 -0.0467  0.1133
18751W        W61742   4.236   7.937   2.131  0.0005 -0.1609  0.1602
18752W        W61743  28.801   8.534  19.694  0.1656 -0.1518  0.1720
18753W        W61744  32.100  15.310   3.158 -0.0506  0.1851 -0.1149
18754W        W61745  28.739  29.881  15.827 -0.4287  0.1024 -0.0640
18755W        W61746   2.791   9.707   6.213  0.0110 -0.0166  0.2829
18756W        W61747  16.930  12.788  21.168 -0.0631  0.1755  0.1967
18757W        W61748  32.373  14.134   4.778  0.1045 -0.0752  0.1491
18758W        W61749  32.860   3.475   8.076  0.0674 -0.0433 -0.3540
18759W        W61750  20.307  23.723  27.571  0.2538 -0.3856 -0.0320
18760W        W61751  19.877  14.898   4.228  0.1785  0.1771  0.3839
18761W        W61752  17.948  32.083  17.300  0.2087  0.0115  0.1238
18762W        W61753  30.256   1.291  18.599 -0.1892 -0.0659  0.1640
18763W        W61754   7.910  20.050   5.255  0.1919 -0.1142  0.3143
18764W        W61755  28.728   8.608  18.333  0.0851  0.2121  0.0349
18765W        W61756  13.846  34.324  21.880  0.0920 -0.2560  0.2071
18766W        W61757  29.204   8.517   8.612  0.1390  0.1101 -0.0795
18767W        W61758  29.999  10.898  18.926 -0.0058  0.1381 -0.0413
18768W        W61759   0.936   8.560   6.964  0.1486  0.0360 -0.0059
18769W        W61760   7.149   2.580  29.255  0.1576 -0.3846  0.2861
18770W        W61761   0.924  24.169  22.946  0.3206 -0.0300 -0.0342
18771W        W61762  29.604   4.646  18.886  0.0636 -0.1017  0.0602
18772W        W61763   2.258   2.622  25.203  0.4030 -0.0489 -0.1355
18773W        W61764  20.498   0.328   2.923  0.1471  0.0840 -0.1006
18774W        W61765  31.972  33.676  14.659  0.0257 -0.0943 -0.2090
18775W        W61766  15.684  10.825  26.191 -0.4372 -0.2670  0.1738
18776W        W61767   1.129  32.140   2.128  0.1767 -0.1627 -0.1298
18777W        W61768  28.055  10.470  14.180  0.1693  0.0855 -0.0545
18778W        W61769  29.061  33.672   7.447 -0.0207  0.2462  0.0976
18779W        W61770  16.493   9.235  21.535 -0.2297 -0.1804 -0.2456
18780W        W61771  33.699   2.068  26.248  0.1828  0.0858  0.1342
18781W        W61772  33.215  23.699  22.218 -0.1159 -0.0189  0.2376
18782W        W61773  33.907  32.810  18.276 -0.0482 -0.1341  0.1527
18783W        W61774  32.419  18.387  25.669  0.1399  0.0218 -0.0468
18784W        W61775  24.447  11.260  25.073  0.2367  0.3548 -0.0366
18785W        W61776  24.791   3.022  13.565  0.0625 -0.0384 -0.2183
18786W        W61777  27.507  24.624  24.353 -0.1132  0.0504  0.1336
18787W        W61778  27.784  26.673  16.728 -0.0283  0.2099 -0.0985
18788W        W61779  31.496  21.323  23.737 -0.1063 -0.0058  0.2211
18789W        W61780  12.022  12.989  17.489  0.0024 -0.0980  0.1871
18790W        W61781  20.895  11.483  26.020 -0.2729 -0.2661 -0.0456
18791W        W61782  21.909  34.645  18.013 -0.1971 -0.0523 -0.1817
18792W        W61783  24.059  19.557   0.592  0.1704  0.1053  0.0967
18793W        W61784  24.030   7.472  21.189 -0.1671  0.1620  0.2058
18794W        W61785  23.546  15.856  20.890 -0.2931  0.2318  0.0526
18795W        W61786  27.018  33.069   8.923  0.3931  0.0286 -0.0024
18796W        W61787  32.076   7.117  19.307  0.1189  0.0498  0.0749
18797W        W61788  22.166   9.933   7.868  0.2344  0.1282  0.3784
18798W        W61789  28.118   5.762   1.183 -0.1746 -0.2501 -0.0561
18799W        W61790  13.245  26.552  16.282 -0.1165 -0.1250  0.0682
18800W        W61791  34.225  14.019  15.857 -0.0788  0.1110  0.0456
18801W        W61792  25.223   4.972   8.312  0.0430  0.2583  0.1860
18802W        W61793   4.022  12.839   9.339  0.6267  0.1756 -0.0158
18803W        W61794  21.959  18.457  15.839 -0.4076  0.0059  0.0661
18804W        W61795  22.608  13.750   0.809  0.0274  0.0295  0.1112
18805W        W61796  23.860   1.779  14.708 -0.3224  0.0945 -0.2136
18806W        W61797  11.412  28.968   1.808 -0.3039  0.2490 -0.0650
18807W        W61798  19.442  34.500  10.192 -0.2020 -0.1964 -0.2471
18808W        W61799  29.129  12.960  25.199 -0.0223 -0.2647 -0.0891
18809W        W61800  22.557   5.594  18.978  0.3653  0.0426  0.0576
18810W        W61801  19.354   1.442  20.241  0.0128 -0.0760 -0.1698
18811W        W61802   2.166   0.270   2.677 -0.3055  0.0865 -0.0382
18812W        W61803  14.796  15.120  14.762 -0.2265  0.3362  0.1003
18813W        W61804  30.632  20.767  23.017 -0.1796  0.2373  0.0633
18814W        W61805   4.045   4.653  23.325 -0.1205 -0.3511  0.2796
18815W        W61806  27.505   4.404  15.965  0.2093 -0.1240  0.3256
18816W        W61807  20.606  12.065  17.839 -0.1802  0.4329 -0.1106
18817W        W61808  27.874  19.129  23.796  0.2096 -0.1804  0.1356
18818W        W61809  31.010   7.289   8.750  0.4038 -0.0633 -0.1560
18819W        W61810  20.065  19.899   8.190 -0.1881  0.2112 -0.0278
18820W        W61811  25.816   5.501  29.081  0.3533  0.5018 -0.1818
18821W        W61812  33.068   4.447  18.687 -0.0520 -0.1283 -0.0927
18822W        W61813   4.759   7.347  24.262 -0.2621  0.2017 -0.0775
18823W        W61814  13.748  21.744  16.654  0.0465 -0.3553  0.4836
18824W        W61815  19.189  14.709  16.042 -0.4649 -0.3185  0.0925
18825W        W61816  27.430  25.187  26.562 -0.3275  0.2114  0.0960
18826W        W61817  24.756  11.404  18.761 -0.1638  0.0343 -0.1245
18827W        W61818   1.538  14.302  20.513 -0.3400 -0.2637  0.0478
18828W        W61819  29.233  15.374  18.358  0.1786 -0.3098  0.2333
18829W        W61820  31.483   9.438  22.973 -0.2424  0.0406 -0.0943
18830W        W61821  29.121  30.210  14.030  0.4711  0.0503  0.1366
18831W        W61822  31.192   7.190   2.834 -0.3221  0.0964 -0.2361
18832W        W61823   4.143   7.192  15.743  0.2350  0.0491 -0.0283
18833W        W61824   2.090  14.792  21.619 -0.0245  0.2183 -0.0812
18834W        W61825  23.224   7.963  19.611 -0.1858  0.0329 -0.1977
18835W        W61826  32.035  15.467  23.144 -0.1659  0.1450  0.2103
18836W        W61827  26.000   8.215  20.454  0.1405 -0.2459  0.1673
18837W        W61828  27.144  11.000  20.952 -0.0649 -0.3833  0.1518
18838W        W61829  29.699   4.571  17.039 -0.0622 -0.1129  0.1920
18839W        W61830   0.400  29.088  16.137 -0.0366 -0.1370 -0.4068
18840W        W61831  33.142  14.294   6.580  0.2720 -0.0251 -0.1059
18841W        W61832  25.381   5.818  20.378  0.1031  0.1066 -0.2633
18842W        W61833  20.205  33.918  14.812 -0.0120 -0.0934  0.0392
18843W        W61834  15.555  32.438  20.318  0.0649 -0.0208  0.1059
18844W        W61835  20.570   3.133  14.334  0.2187 -0.1485  0.0399
18845W        W61836  19.996  25.162   0.439 -0.0462  0.1998 -0.0547
18846W        W61837  27.243   2.976  13.424  0.1148  0.0951  0.1129
18847W        W61838  34.030  17.809  17.436 -0.1147 -0.0387  0.1265
18848W        W61839  18.605  14.838  22.699 -0.0395  0.0776 -0.0507
18849W        W61840  32.087  16.626  28.273 -0.1282  0.2367 -0.0796
18850W        W61841  29.958  28.078  13.088  0.1406  0.2061 -0.0259
18851W        W61842  25.721  34.730  21.989 -0.0064 -0.0489  0.0471
18852W        W61843   3.131   6.588  10.931 -0.0861  0.2622 -0.1333
18853W        W61844   5.456  34.566  14.939  0.3045 -0.0081 -0.1453
18854W        W61845   7.121   8.366   7.024 -0.0294  0.0795  0.0960
18855W        W61846  33.546  21.400  28.877 -0.1281 -0.1881  0.2733
18856W        W61847  29.511  16.900  26.653 -0.0848 -0.1399 -0.1349
18857W        W61848  30.191  11.847  21.546 -0.1255  0.0180 -0.2703
18858W        W61849  19.974   7.231  16.526 -0.0210 -0.0389  0.0142
18859W        W61850  33.961  15.051   4.237  0.0367 -0.1113 -0.1495
18860W        W61851  18.809   3.900  27.010  0.0696 -0.2300  0.0472
18861W        W61852   6.797  15.352   3.253  0.2446  0.0249  0.0315
18862W        W61853  22.925   5.325  19.918  0.1296  0.0626 -0.0678
18863W        W61854  31.563   3.491  27.208  0.2039 -0.2430  0.2199
18864W        W61855  22.096  10.575  27.531  0.0133  0.0288  0.0536
18865W        W61856  34.158   6.811  21.344  0.3129 -0.0299 -0.1606
18866W        W61857  29.076   3.348  23.902 -0.0056  0.3394 -0.1235
18867W        W61858  16.629  31.268  17.911 -0.1178 -0.0958 -0.0146
18868W        W61859  26.623   5.264   3.065 -0.1881  0.1762  0.3441
18869W        W61860   8.393  26.295   0.649 -0.1345  0.0122 -0.1618
18870W        W61861  22.908  33.438  20.291 -0.0464  0.0243  0.1125
18871W        W61862   4.463   5.581   7.228  0.1524 -0.2662 -0.0089
18872W        W61863  11.177  19.604   4.652  0.1775  0.2121 -0.1033
18873W        W61864  28.993  26.793  21.101  0.1421 -0.5242  0.0494
18874W        W61865  29.246  34.588  19.517  0.0613  0.0402 -0.4771
18875W        W61866  28.419  18.913   9.723  0.2248  0.0636  0.0198
18876W        W61867  28.588  10.848  19.404  0.0307  0.2268 -0.0398
18877W        W61868   4.948  18.732  25.771 -0.0307 -0.1353 -0.1877
18878W        W61869  31.792  33.452  26.954 -0.2062 -0.0835  0.2268
18879W        W61870   9.113   5.225  21.226  0.1612 -0.2180 -0.2379
18880W        W61871  20.300   2.003  23.295  0.2822 -0.1758  0.4854
18881W        W61872  11.869  30.181   1.188  0.0958  0.3777 -0.1002
18882W        W61873   6.538   4.099  17.394 -0.2043  0.0614  0.2532
18883W        W61874  28.442  24.385  25.285  0.1014  0.0418 -0.0149
18884W        W61875  25.515  15.731  18.603  0.1613 -0.0082 -0.1615
18885W        W61876  31.220   7.581   3.677 -0.1362  0.0778  0.3730
18886W        W61877  28.334  18.916  24.464 -0.2259  0.1324 -0.1389
18887W        W61878  17.769   5.018  21.091 -0.2305 -0.0435 -0.1997
18888W        W61879  31.031  18.543  24.339  0.1339 -0.1954  0.2214
18889W        W61880  29.066  13.916  15.946  0.0316  0.2171  0.3393
18890W        W61881   1.656   4.502   6.565  0.2513  0.2050 -0.1307
18891W        W61882  20.033  20.226   2.061  0.0317 -0.2830 -0.0084
18892W        W61883  23.582  15.524  25.405  0.0688  0.1742  0.0720
18893W        W61884  15.505  10.240  14.464  0.1436  0.1169  0.1768
18894W        W61885  15.554  30.379   3.373 -0.2677  0.2387 -0.1981
18895W        W61886  24.530   3.807   4.221  0.0578 -0.1721 -0.1727
18896W        W61887  26.047   8.540   3.273  0.2586  0.1625  0.2216
18897W        W61888  18.610  33.323  26.179  0.1814 -0.2036  0.0178
18898W        W61889  21.604   7.762  19.201  0.0859  0.0078  0.0254
18899W        W61890   5.969   5.033  18.408  0.2790  0.0293  0.2409
18900W        W61891   0.165   3.638  20.468 -0.4583  0.3538  0.2300
18901W        W61892   0.168  22.392  21.854  0.0294 -0.1285 -0.6979
18902W        W61893  26.725   3.723  22.843  0.3553 -0.0982  0.2943
18903W        W61894  11.610   3.545  28.532 -0.2697  0.2402  0.0375
18904W        W61895   4.398  14.573  22.091 -0.1554  0.2084  0.1751
18905W        W61896  21.370   5.307  25.256  0.0631  0.2258  0.2776
18906W        W61897   3.646  10.355   5.277 -0.1980  0.0935 -0.1041
18907W        W61898  30.323  18.794  25.328 -0.0422 -0.0239 -0.3212
18908W        W61899  23.908  28.155   6.356  0.2509 -0.4679 -0.1975
18909W        W61900  10.799  31.494   2.844 -0.1131  0.1492  0.0845
18910W        W61901  32.269  12.277   8.671 -0.2036 -0.1058  0.0727
18911W        W61902   0.978   8.621  11.403 -0.0648 -0.1299  0.0045
18912W        W61903   8.583  34.487   3.009 -0.0288 -0.1541  0.0184
18913W        W61904  32.828  19.857  27.121 -0.2635  0.0071  0.0751
18914W        W61905  31.333  14.746  22.803  0.3713  0.0688  0.0555
18915W        W61906  23.545  15.231  13.499  0.0676 -0.0976  0.1433
18916W        W61907  21.638  17.553   3.358  0.0839  0.2622 -0.1361
18917W        W61908  16.823   6.743   4.462  0.0505  0.4062 -0.1322
18918W        W61909  20.841  28.253   3.879  0.0399 -0.1565 -0.1369
18919W        W61910  26.634   1.002  22.319 -0.1683  0.0370  0.1322
18920W        W61911  11.176   4.040   5.402  0.1106  0.1265 -0.0725
18921W        W61912  31.729  31.375  20.364  0.0648 -0.1212  0.2169
18922W        W61913  20.114  11.077  15.033 -0.3743 -0.0826 -0.3598
18923W        W61914  25.187  19.078  20.186  0.0135 -0.4482 -0.1860
18924W        W61915  12.791   4.585  27.479  0.0794  0.3906 -0.3235
18925W        W61916   7.690  10.438   1.467 -0.3030  0.0614  0.1571
18926W        W61917  28.689  27.907  17.184 -0.2593 -0.1354 -0.0952
18927W        W61918   3.018   4.768   3.806  0.2179  0.0528  0.0230
18928W        W61919  27.519  27.758  27.829 -0.1580  0.3995 -0.1010
18929W        W61920   7.894  25.256   5.041  0.1612  0.2345 -0.0674
18930W        W61921  17.950  20.608  27.090  0.0669  0.0551  0.2426
18931W        W61922  20.342  22.979  21.248  0.3717  0.0643 -0.1305
18932W        W61923  26.745  24.462  16.010 -0.1342 -0.4062  0.0376
18933W        W61924  27.239   0.916  17.232 -0.1077  0.0839 -0.1593
18934W        W61925   9.817  12.003  16.050  0.0021  0.4532  0.1457
18935W        W61926  24.499   9.532   0.229 -0.2114  0.0742  0.0331
18936W        W61927  18.615  10.835  23.280  0.0168 -0.5061 -0.1812
18937W        W61928  17.917  22.819  21.487 -0.2837 -0.1924  0.0666
18938W        W61929  29.896   9.479  25.651  0.2235 -0.2006 -0.1556
18939W        W61930   1.489  33.198  16.025 -0.1899  0.0246 -0.2099
18940W        W61931  26.363   0.791  28.211 -0.3030 -0.1147  0.2153
18941W        W61932  17.847  12.685  17.946  0.1297 -0.1352 -0.0036
18942W        W61933  25.607   5.133  23.393 -0.2142  0.0748 -0.0864
18943W        W61934  34.029  14.764  26.166  0.0561  0.1397  0.0978
18944W        W61935  21.933  25.127  13.992  0.0060  0.1542  0.0404
18945W        W61936  28.064   8.238   7.203  0.0603  0.1347  0.0004
18946W        W61937  34.411  22.610   7.821 -0.0660 -0.0302  0.0534
18947W        W61938  33.005  14.361  26.145  0.0091  0.0630 -0.0096
18948W        W61939  13.846   3.117   2.357  0.0668  0.1577 -0.0914
18949W        W61940  25.948   8.054  14.667  0.3645  0.1797  0.0157
18950W        W61941  32.652  10.334   4.927 -0.0804  0.2514 -0.0470
18951W        W61942   5.541  17.165   8.956  0.0457  0.0904  0.0190
18952W        W61943  18.317  32.890   3.719  0.0686  0.0873  0.1372
18953W        W61944  19.714   9.101  17.226  0.1273 -0.0733 -0.0641
18954W        W61945  31.927  32.784  15.012  0.1230 -0.1095 -0.0481
18955W        W61946  18.499  33.073   5.899 -0.3243  0.0220 -0.2255
18956W        W61947  32.832  26.218   5.029  0.1674 -0.1602 -0.2908
18957W        W61948  20.016   8.935  20.762 -0.0969 -0.1201  0.0009
18958W        W61949  20.850  17.770   7.375  0.3642 -0.1787  0.2542
18959W        W61950  21.891  14.634  16.706 -0.1973  0.1190 -0.0574
18960W        W61951  18.461   5.730   8.558  0.3173  0.1129 -0.0629
18961W        W61952  33.488  31.563   5.871 -0.1965 -0.0747 -0.2497
18962W        W61953  12.180  15.946  22.542 -0.0397  0.2498 -0.1554
18963W        W61954  17.448   9.216   4.224  0.4033  0.0407  0.0913
18964W        W61955  27.014   6.400  14.239 -0.0636  0.1905  0.2071
18965W        W61956   9.012   1.340  17.321  0.1904  0.1817 -0.0687
18966W        W61957  20.159   9.173  15.233 -0.3627  0.1925  0.0921
18967W        W61958  19.881  10.331   7.967 -0.4235 -0.1287 -0.1253
18968W        W61959  28.730  33.263  13.107  0.0033 -0.4493 -0.2930
18969W        W61960   0.377  33.756  21.335 -0.0163  0.0962 -0.0053
18970W        W61961   1.492   3.801   7.365  0.0728 -0.1537 -0.1169
18971W        W61962  16.106   3.245  27.885 -0.0398  0.2001  0.0398
18972W        W61963   0.041  28.026  28.623 -0.2071 -0.0595 -0.1261
18973W        W61964  28.356  11.974   5.652 -0.2350  0.0313  0.0265
18974W        W61965  28.982  23.539   3.696 -0.1203 -0.1653  0.0986
18975W        W61966  30.379  16.405  27.495 -0.0664  0.0574  0.0919
18976W        W61967  31.936  18.073  21.744  0.2208  0.1287  0.0208
18977W        W61968   9.745   6.755  16.690 -0.1475 -0.3837  0.1508
18978W        W61969  20.553   6.432   6.101  0.0470 -0.1496 -0.0612
18979W        W61970   2.052  22.247  18.546 -0.2467 -0.1379 -0.0031
18980W        W61971  27.647  18.619  16.775 -0.0709  0.0514 -0.0904
18981W        W61972  29.783  14.149  28.914 -0.1066  0.2626 -0.1170
18982W        W61973   8.328   3.951   8.539  0.2697 -0.2821  0.0687
18983W        W61974  33.194   8.601   3.971  0.1441  0.0574 -0.0071
18984W        W61975  27.125   9.976  15.179  0.0177 -0.0331 -0.0648
18985W        W61976  32.698   5.669   6.056  0.2564  0.0243  0.1171
18986W        W61977  12.090  12.164   8.425 -0.0809 -0.1760  0.5280
18987W        W61978  25.619  20.018  22.387 -0.1602  0.0369 -0.2271
18988W        W61979  20.602   9.774   0.993 -0.0696  0.1039 -0.0779
18989W        W61980  23.249  10.527   5.102  0.2081 -0.4060 -0.2569
18990W        W61981  19.653  28.826  24.863  0.0669 -0.3237  0.3579
18991W        W61982   4.086   6.229  20.371 -0.1073  0.0239 -0.1810
18992W        W61983  15.734   5.738  24.299 -0.1002  0.0429 -0.1789
18993W        W61984  15.084   6.054  28.645 -0.0972 -0.1912  0.0637
18994W        W61985  19.713  12.671  20.851 -0.2937  0.0109 -0.2909
18995W        W61986  33.143  14.480   7.950 -0.0929  0.1074  0.0990
18996W        W61987  21.850   0.353  22.754  0.3013  0.0319 -0.3004
18997W        W61988   0.169  34.760   5.258  0.1482  0.0009  0.2771
18998W        W61989   1.192   0.184   7.711 -0.1044  0.3146  0.1807
18999W        W61990  34.420   0.685   6.745  0.1260  0.0149 -0.2303
19000W        W61991  26.043   5.528   5.342 -0.4145  0.0528  0.0977
19001W        W61992   5.095  12.054  18.224  0.2557 -0.3442  0.3044
19002W        W61993  20.542   5.032   4.570 -0.0799 -0.1031  0.0738
19003W        W61994  14.532   5.272  17.771 -0.0655  0.2045 -0.4559
19004W        W61995  11.885   8.473  19.019 -0.0031 -0.0366 -0.2495
19005W        W61996  32.646  15.166  10.053  0.0610  0.4270  0.1126
19006W        W61997  23.635   1.586  23.744  0.2167 -0.1190 -0.2495
19007W        W61998  32.997  32.833   6.780 -0.0831 -0.1585  0.0412
19008W        W61999  22.125  16.173  14.168 -0.0857  0.1062  0.1697
19009W        W62000   6.508   9.743  16.449  0.0873  0.1016  0.1590
19010W        W62001  16.439  15.680  14.384 -0.5855 -0.3624  0.0209
19011W        W62002  17.217  10.338  16.204  0.0782 -0.0042  0.1700
19012W        W62003  20.954   9.395   1.908 -0.3749  0.0065  0.1839
19013W        W62004  32.391  12.655  17.198  0.0227 -0.1149  0.1583
19014W        W62005  21.628   5.581   2.690  0.2630 -0.1530 -0.4260
19015W        W62006  24.752  28.701   5.397  0.1996 -0.2566 -0.4903
19016W        W62007  16.535  11.592  16.262 -0.3358  0.0292 -0.0361
19017W        W62008  25.063   0.515  17.815  0.0456  0.2409  0.0228
19018W        W62009  13.174   3.327  16.250 -0.0353  0.2060 -0.1516
19019W        W62010  20.570  26.787   4.272 -0.2206  0.1576  0.2378
19020W        W62011  29.325   7.705  22.142 -0.1694  0.1874  0.0733
19021W        W62012  26.404   4.820   1.546  0.0003 -0.1469 -0.2223
19022W        W62013  28.850   9.160  24.780 -0.3855 -0.2955 -0.3025
19023W        W62014  24.091   1.667  22.157 -0.4497  0.2320 -0.0156
19024W        W62015  27.376  12.978  15.806  0.2116  0.0990  0.1757
19025W        W62016  26.961  13.885  27.334 -0.1530  0.0919  0.0035
19026W        W62017   6.335  27.218   5.801 -0.1310 -0.1590  0.0514
19027W        W62018  29.666   2.886  21.467  0.0042  0.0109  0.2795
19028W        W62019  28.600   5.456   2.487 -0.2389  0.0260  0.0875
19029W        W62020  10.241   3.919   8.099 -0.2910  0.1862  0.1644
19030W        W62021  34.252   5.934   3.774  0.1879 -0.3831  0.0267
19031W        W62022   5.157  12.515  27.780  0.1203 -0.2733 -0.0836
19032W        W62023   0.495   9.242  16.263  0.1800  0.0099 -0.0839
19033W        W62024  29.666   7.198   1.407 -0.2105  0.0481  0.1468
19034W        W62025  30.885  14.908  24.389  0.0642  0.3043  0.0915
19035W        W62026  24.184  16.933  15.036 -0.0550 -0.2046 -0.1772
19036W        W62027  20.707   7.047  23.419  0.1624  0.1287 -0.0385
19037W        W62028  16.511   8.150   0.847  0.1880  0.0385 -0.2026
19038W        W62029   2.196  10.680  27.744 -0.0920 -0.1056  0.2241
19039W        W62030  24.325  10.027  28.021  0.0190 -0.3303 -0.2033
19040W        W62031  15.057   3.042  21.195  0.1276 -0.1413  0.1395
19041W        W62032  17.559  33.699   2.755 -0.3202  0.0407 -0.0388
19042W        W62033  24.606  14.439  21.287 -0.1610 -0.1478 -0.0983
19043W        W62034  34.025  14.898   6.282  0.2805 -0.0356 -0.1638
19044W        W62035  24.230   9.527  29.042  0.1722 -0.1430  0.2902
19045W        W62036  31.432  15.498  26.975 -0.2232  0.0385  0.1052
19046W        W62037  11.211   5.142  18.296 -0.0966  0.4295 -0.0816
19047W        W62038  20.998  34.254   9.770 -0.1746  0.1326  0.1945
19048W        W62039  25.777  19.551  22.608  0.0596  0.2117  0.0667
19049W        W62040  13.108   1.907   4.967 -0.0434 -0.2207  0.5797
19050W        W62041  25.805  23.827  17.598  0.2107  0.0508 -0.1339
19051W        W62042  11.548  28.592  20.650 -0.2335 -0.2181  0.0757
19052W        W62043  12.265   5.594  21.133  0.2101 -0.0160 -0.0476
19053W        W62044  21.456  34.269  19.453  0.0756  0.1907  0.0718
19054W        W62045  21.764  24.466  28.166 -0.2911  0.0715  0.2647
19055W        W62046   9.854   9.520  24.369 -0.4332 -0.1625 -0.0129
19056W        W62047  28.103  25.292  18.390 -0.0715  0.3041  0.1784
19057W        W62048  28.402   5.669   9.291 -0.2120  0.2417  0.0643
19058W        W62049  17.340  14.846  28.526  0.2605  0.1569 -0.1164
19059W        W62050  23.872   5.112   8.693  0.1190 -0.3426 -0.1662
19060W        W62051  14.234  25.663  16.600  0.1405  0.0390 -0.0609
19061W        W62052  20.542   5.089   8.157  0.0077 -0.1855 -0.0560
19062W        W62053  31.693  31.943  25.063  0.0097 -0.1950  0.1233
19063W        W62054  30.028  19.115  10.869  0.1537  0.0803 -0.3833
19064W        W62055  28.239   0.466  29.079  0.2406  0.0797  0.1358
19065W        W62056  19.108  19.533  21.926 -0.2077 -0.4025 -0.0060
19066W        W62057  27.375  33.724   1.109 -0.2340  0.0824  0.2221
19067W        W62058  24.893  32.442  27.532  0.1524  0.1515 -0.1723
19068W        W62059  28.829   4.896   5.285 -0.0364  0.0564 -0.2480
19069W        W62060   7.245   0.069   1.510  0.3852 -0.0985  0.0251
19070W        W62061   2.201  18.077  17.892 -0.0773 -0.0730  0.4893
19071W        W62062   4.093  12.008  26.988 -0.2450 -0.0622  0.1159
19072W        W62063  29.031  16.889  22.308  0.1448 -0.1303  0.1967
19073W        W62064  33.712   9.619  11.250 -0.0693  0.0043  0.1116
19074W        W62065  28.271  14.234   0.220 -0.0975  0.2433  0.0388
19075W        W62066  19.118  20.204  22.675  0.1524 -0.2165 -0.0554
19076W        W62067   2.639  13.751   5.300  0.2162 -0.2988  0.1490
19077W        W62068  32.025  30.471  13.741 -0.3627 -0.1803 -0.4014
19078W        W62069  31.854   4.052   2.558 -0.1019 -0.1428  0.1137
19079W        W62070  27.014  22.104  26.142  0.2176 -0.1370  0.0102
19080W        W62071  23.814  33.618   0.694  0.0106 -0.0628  0.1499
19081W        W62072  30.553  13.613   6.760  0.0241  0.2248 -0.2305
19082W        W62073  31.047   1.158   4.119 -0.0960  0.0513 -0.4425
19083W        W62074  24.944  29.774  13.503 -0.0150  0.0181 -0.2353
19084W        W62075  30.162   8.206  21.500 -0.0046  0.2624  0.1179
19085W        W62076   1.719  17.425  20.636 -0.3107 -0.0898  0.0201
19086W        W62077  27.530  27.117   3.209  0.0366  0.2457  0.1169
19087W        W62078  10.062  16.035  23.861  0.0692 -0.0962 -0.2393
19088W        W62079  25.353  12.768   6.049  0.1517 -0.0696  0.0581
19089W        W62080   8.943  33.300   5.152 -0.1110  0.2130 -0.0047
19090W        W62081  20.801  25.661   1.508 -0.2041  0.1405 -0.4945
19091W        W62082  31.429   0.017  25.523 -0.1902  0.2370 -0.2571
19092W        W62083   6.821  25.743  16.189  0.0671 -0.2858 -0.0214
19093W        W62084  34.135   0.571   2.691  0.2463 -0.1561  0.1147
19094W        W62085   5.452  11.162   4.529 -0.1103  0.3173 -0.2895
19095W        W62086  18.611   4.648  19.325 -0.0678  0.2097  0.1473
19096W        W62087  32.012  14.195   7.506  0.0983  0.0459 -0.0716
19097W        W62088  24.631   8.241  25.670 -0.0975  0.2454  0.2275
19098W        W62089  15.538   0.053   2.828  0.1074  0.0406 -0.0957
19099W        W62090  22.108   6.847   3.182 -0.4464 -0.1635 -0.0742
19100W        W62091  33.426  16.859   4.357  0.1973  0.0316 -0.2678
19101W        W62092   2.265  11.482  18.810  0.0782 -0.1125  0.1063
19102W        W62093  11.222  30.145  27.567  0.2601 -0.0624 -0.0203
19103W        W62094  34.032  17.356   5.723 -0.0635 -0.1156  0.0539
19104W        W62095  26.155  22.187  17.696 -0.2125  0.2494 -0.0189
19105W        W62096  26.675   0.448   6.338  0.3512  0.0876  0.0999
19106W        W62097   3.378  14.991   3.319 -0.1985 -0.1607  0.1397
19107W        W62098   3.174  19.094   7.004  0.0855  0.2210  0.3243
19108W        W62099  31.139   4.190   5.670  0.2688  0.2212  0.0493
19109W        W62100  31.199  29.470  25.801  0.3774 -0.2063  0.1358
19110W        W62101  23.598  10.112   6.333 -0.1841 -0.0962  0.0933
19111W        W62102  31.102  10.857  27.244  0.1535 -0.2635 -0.0480
19112W        W62103   4.451  17.640  28.916  0.0352  0.2527  0.0898
19113W        W62104  16.886  25.286  15.436  0.0568 -0.3929  0.3324
19114W        W62105  30.203  30.730  21.122  0.1291  0.0446  0.2827
19115W        W62106  31.348  17.337   6.525 -0.1335  0.3510  0.0608
19116W        W62107  32.065  31.425   3.486 -0.0602 -0.0376 -0.0358
19117W        W62108  29.953  16.753  25.048  0.0670  0.3282  0.2435
19118W        W62109  22.896  25.689  26.586 -0.0827  0.0228 -0.2779
19119W        W62110   0.346   4.980   6.049  0.0172 -0.0188 -0.2128
19120W        W62111  32.571  26.058  21.550 -0.0259  0.1963 -0.3083
19121W        W62112  34.404  10.443  23.083  0.1375 -0.3830 -0.1433
19122W        W62113  10.165  14.106  18.109  0.0421  0.1685  0.4405
19123W        W62114  28.952   3.235  27.572 -0.1103 -0.0569 -0.1852
19124W        W62115  19.244   5.150  22.885 -0.1841  0.1137 -0.1295
19125W        W62116  15.112   8.276  10.329  0.1123 -0.2418  0.0003
19126W        W62117  21.395   1.102   4.996 -0.4063 -0.2949  0.1475
19127W        W62118   6.318   9.375   1.141 -0.0204 -0.3042 -0.3366
19128W        W62119  28.084   6.415  17.082 -0.0605  0.2984  0.2816
19129W        W62120  18.683  21.104  25.835 -0.1560 -0.1164  0.0809
19130W        W62121  21.243  11.878  17.013 -0.0571 -0.0509  0.2013
19131W        W62122  34.115   6.201  26.562  0.0589  0.0862  0.2097
19132W        W62123  34.523  33.447   9.994  0.2553 -0.3261 -0.0102
19133W        W62124  29.809  12.605  24.702 -0.1053 -0.1790  0.2825
19134W        W62125  34.295  25.747  26.543  0.0583 -0.3989 -0.1425
19135W        W62126  30.624  20.591   6.249 -0.0557 -0.0345 -0.1020
19136W        W62127  22.926  19.402  15.131 -0.1269  0.0416 -0.1595
19137W        W62128   2.132   7.449   5.975 -0.3124  0.0814 -0.1709
19138W        W62129  25.473  22.837   7.393  0.0294 -0.1944 -0.1613
19139W        W62130  20.162   0.394   2.549 -0.2498 -0.2900  0.1065
19140W        W62131  21.423  10.918   5.408  0.1391  0.2024  0.1630
19141W        W62132  32.172  16.314   4.599 -0.2308 -0.0467 -0.2846
19142W        W62133  13.473  10.534   7.308  0.0641 -0.4401 -0.1137
19143W        W62134  30.782   6.051   5.609  0.3462 -0.0786 -0.0678
19144W        W62135  30.635   4.125  16.090  0.1611  0.1549  0.2237
19145W        W62136  16.177  30.328   9.388 -0.2018  0.0004 -0.2064
19146W        W62137  21.848   5.138   1.499 -0.1014 -0.0480  0.4131
19147W        W62138  30.184  18.401  20.113 -0.2876  0.2148 -0.3048
19148W        W62139   4.021  10.088   8.682  0.3737  0.2072 -0.1076
19149W        W62140  32.204   7.331  24.112 -0.0911  0.0119  0.0037
19150W        W62141  27.383  23.315   0.806  0.1014 -0.4259  0.3191
19151W        W62142   3.399   8.989  20.849 -0.2290 -0.1797  0.0982
19152W        W62143   3.396  10.063  19.406  0.2456  0.1892  0.1375
19153W        W62144  33.412  20.519   7.106 -0.1377  0.2564  0.0702
19154W        W62145  32.176   7.752  23.157  0.2196 -0.3440 -0.1587
19155W        W62146  25.023  20.559   0.828 -0.2139  0.3034 -0.2262
19156W        W62147  16.600   4.535   2.731 -0.1388  0.0798  0.0418
19157W        W62148  20.503  10.044  22.433  0.2101  0.1677 -0.1423
19158W        W62149  11.171  29.301  25.160  0.0887  0.1345  0.0430
19159W        W62150   1.816   5.604  16.632  0.0881 -0.0024 -0.2481
19160W        W62151   7.163   4.289   4.019  0.2444 -0.1245 -0.1945
19161W        W62152  31.544  15.452  25.520  0.3344 -0.0608  0.1643
19162W        W62153  12.027  34.121   1.825  0.0886  0.1782 -0.1420
19163W        W62154  27.603   7.171   6.094 -0.2013  0.1144  0.0776
19164W        W62155  20.988  17.280   9.503 -0.0022  0.2506  0.1030
19165W        W62156  31.988  17.324  21.014 -0.0902  0.1712  0.0060
19166W        W62157  32.191  33.417  29.253  0.0252 -0.2398 -0.3811
19167W        W62158  24.206   5.471  23.674 -0.1635 -0.0791 -0.2346
19168W        W62159  19.179  31.209  28.422 -0.1584  0.0373 -0.2047
19169W        W62160  31.915  21.158   2.574 -0.0438  0.2127  0.1333
19170W        W62161  30.636  19.391  23.341 -0.2756 -0.0496 -0.0030
19171W        W62162  16.875   8.969  21.665 -0.3227  0.0474  0.2265
19172W        W62163  31.428   8.086  28.695  0.4742 -0.1657  0.0946
19173W        W62164  27.161  34.764   0.841 -0.1331  0.0129  0.1721
19174W        W62165   0.731  25.217  23.155  0.0900  0.0601  0.1663
19175W        W62166   0.686   3.662  18.367 -0.1745 -0.2433  0.1329
19176W        W62167  23.231  33.923  25.261 -0.1350  0.2178  0.1668
19177W        W62168  25.111  12.300  18.991 -0.1827 -0.1662 -0.0827
19178W        W62169  28.958  11.034   7.289 -0.2494 -0.3358  0.2642
19179W        W62170  28.712  18.894  23.558  0.2120  0.2213  0.0686
19180W        W62171  34.445   4.082  15.291  0.2173  0.2297  0.1508
19181W        W62172  25.163   7.738  27.434  0.1187  0.0637  0.1210
19182W        W62173   7.998  30.792  27.940  0.1738 -0.1483  0.1380
19183W        W62174  21.064  23.973  13.753  0.2446 -0.0129  0.0987
19184W        W62175  26.138   7.899  28.276 -0.1821 -0.5177 -0.3044
19185W        W62176  20.669   2.970  19.226  0.1014  0.0996  0.4183
19186W        W62177  22.336  33.607  23.180  0.0001  0.0968  0.1456
19187W        W62178  22.944  12.321  15.497 -0.4433  0.3087  0.1741
19188W        W62179  30.466  20.406  18.426  0.1203  0.3978  0.2497
19189W        W62180  13.594  22.284   1.609 -0.1837 -0.1983  0.1322
19190W        W62181  27.276   2.683   8.672  0.0500  0.0838  0.0301
19191W        W62182  34.463  29.145  18.009  0.0767 -0.0167 -0.0344
19192W        W62183  34.088   9.509   2.906 -0.0596 -0.0325 -0.0065
19193W        W62184  32.224  30.992  27.743 -0.0143 -0.2553 -0.3339
19194W        W62185  32.959  14.044  21.783 -0.2755 -0.0053 -0.1000
19195W        W62186  32.872   5.996   0.076  0.1971  0.3792 -0.2072
19196W        W62187  24.539   0.377   9.306 -0.0906 -0.0324  0.0261
19197W        W62188  23.404  31.095  20.566  0.0035 -0.1388 -0.1914
19198W        W62189   4.910  16.814  16.586  0.0063  0.1020  0.0390
19199W        W62190  27.856   1.731   2.700  0.0040 -0.2351  0.2581
19200W        W62191  20.966  29.413   1.712  0.0745 -0.1302  0.0431
19201W        W62192  24.354   5.436   0.208  0.0896 -0.0431 -0.1760
19202W        W62193  11.003  31.765   0.926 -0.3206 -0.0307  0.1815
19203W        W62194  30.180  16.924   0.346 -0.2007  0.0083 -0.1918
19204W        W62195  24.167  21.269   1.871  0.1250  0.0214 -0.1551
19205W        W62196  24.852   1.511   1.940 -0.2710  0.0738 -0.1009
19206W        W62197   9.275  14.276  21.665  0.4181  0.2751  0.1027
19207W        W62198  20.388  19.985  14.468 -0.1284  0.0747  0.0649
19208W        W62199  17.573  15.795   7.675 -0.0104  0.0533  0.3253
19209W        W62200  28.840  31.976  18.824 -0.2146 -0.2010  0.4159
19210W        W62201  24.196   6.715   1.803 -0.1675 -0.1955  0.1328
19211W        W62202   1.193  26.489  25.632 -0.1237  0.0061  0.1126
19212W        W62203  26.153  17.403  28.170 -0.1247 -0.1227 -0.1954
19213W        W62204   8.731  27.899  23.949  0.0240  0.1524  0.4090
19214W        W62205  22.822   4.783   1.292  0.1880 -0.1101  0.1280
19215W        W62206  27.731  21.680   4.090  0.2039  0.0371 -0.0674
19216W        W62207   5.706  11.182  17.807  0.4395 -0.1996 -0.3994
19217W        W62208  18.666  13.958  26.377  0.3228 -0.0793  0.1967
19218W        W62209   8.285  25.265  24.723  0.0696  0.1177  0.1486
19219W        W62210   8.083  14.336  26.680 -0.2282 -0.0201  0.1606
19220W        W62211  11.712  21.554  23.832 -0.1356  0.2503  0.0218
19221W        W62212  12.808  22.327   2.140 -0.2655  0.1619  0.0722
19222W        W62213  16.114  20.535  15.402 -0.4225  0.0443  0.2940
19223W        W62214   5.529   2.292  21.456 -0.0056  0.0821 -0.2983
19224W        W62215   7.542  25.066   3.787 -0.0227  0.1985  0.1117
19225W        W62216   1.530  12.739  11.365  0.4278  0.4844  0.0598
19226W        W62217  21.356  14.401  29.182 -0.3771 -0.0170 -0.1416
19227W        W62218  15.941  17.436  23.813 -0.0434  0.0790  0.1010
19228W        W62219  28.647  10.889  22.198  0.2864  0.4610 -0.2290
19229W        W62220  25.474   8.705  15.336  0.3352 -0.1896 -0.2812
19230W        W62221   1.217   3.352  22.437  0.2778  0.1463 -0.1334
19231W        W62222  20.950  17.729  24.324 -0.0586 -0.1493  0.1529
19232W        W62223  16.419  28.949   4.951 -0.0849 -0.1809 -0.3259
19233W        W62224  22.607  29.721  27.940 -0.0183  0.3669  0.5449
19234W        W62225  26.039   1.575  24.388  0.1907  0.1385 -0.1094
19235W        W62226  23.363   1.761   5.108 -0.0414  0.2119  0.5711
19236W        W62227  19.117   6.660  25.957 -0.0120 -0.2312  0.2162
19237W        W62228   8.348  16.122  20.048 -0.0069  0.1226  0.0289
19238W        W62229  32.355  30.668  17.759  0.0084  0.2956 -0.0506
19239W        W62230   0.467  20.721  17.861 -0.0047  0.0105 -0.0537
19240W        W62231   6.179  14.255  25.411 -0.1939 -0.0151 -0.2803
19241W        W62232  26.644  11.576   1.584 -0.0395 -0.2484  0.0032
19242W        W62233  29.610   2.811   3.274 -0.1074  0.0118  0.0689
19243W        W62234   8.059  20.041  22.984  0.2829 -0.1176 -0.0410
19244W        W62235  32.439   7.613   9.241  0.1313  0.3895  0.1471
19245W        W62236  10.669  16.203  22.802 -0.3770 -0.0546  0.3247
19246W        W62237  20.612  14.556   1.095  0.0243  0.2291 -0.1149
19247W        W62238  23.778  13.283  15.934  0.1200  0.1529  0.1447
19248W        W62239  33.007  29.036   7.087  0.3418  0.1914  0.1432
19249W        W62240  34.681  10.046   3.122  0.1819 -0.3631 -0.1246
19250W        W62241  32.064  11.257   6.333  0.0891  0.0438 -0.2976
19251W        W62242  25.196   8.111  26.189  0.3468 -0.7351 -0.1248
19252W        W62243  23.004  28.977  15.244 -0.0202  0.1002 -0.2383
19253W        W62244   8.300  14.061   7.287 -0.1711  0.0820  0.0808
19254W        W62245  16.912  10.096   8.288 -0.0936  0.1475 -0.2319
19255W        W62246  28.594  11.586   3.441 -0.0202  0.2903  0.1873
19256W        W62247  33.045  10.407   3.975  0.1212 -0.0292  0.0998
19257W        W62248  33.835   4.856   5.027  0.3372 -0.1630 -0.1833
19258W        W62249  29.885  21.713   0.765 -0.0601 -0.1620 -0.1173
19259W        W62250  28.233  23.590  22.234 -0.1380 -0.1436 -0.1349
19260W        W62251   9.062   7.471  23.187  0.2495 -0.0363 -0.1048
19261W        W62252   0.206   6.170  17.692  0.0922  0.1756  0.0063
19262W        W62253  19.022   9.171  20.964  0.2955  0.1901 -0.0768
19263W        W62254  34.062   3.795  22.749 -0.2782  0.3483 -0.0322
19264W        W62255   0.300   6.401   4.110  0.2205 -0.2014 -0.1585
19265W        W62256  14.978  12.694  22.995  0.2610  0.0869 -0.2823
19266W        W62257  25.277   5.969  23.425 -0.4007  0.0274  0.1948
19267W        W62258  13.407  12.458  23.782  0.2571  0.2025 -0.0293
19268W        W62259   6.189   6.960   3.260  0.2715 -0.3510  0.0225
19269W        W62260  27.343  32.908   5.629 -0.0199  0.0414 -0.0023
19270W        W62261   4.943  21.818   7.323  0.2213  0.0163  0.3003
19271W        W62262   2.195   0.109   9.162  0.0997 -0.0065 -0.0563
19272W        W62263   5.935  33.714  24.216 -0.1942 -0.0728  0.1663
19273W        W62264  15.889  15.350  25.652  0.3284 -0.1606 -0.1010
19274W        W62265  33.135   6.547   2.721  0.2236 -0.1929 -0.0294
19275W        W62266  14.227   4.591  10.890  0.0644  0.0431 -0.3010
19276W        W62267   2.050   4.762   8.050  0.1442  0.2506  0.5148
19277W        W62268  24.407   6.208   5.668  0.1841 -0.3432  0.2822
19278W        W62269  17.291  11.079  23.302  0.0218 -0.3797 -0.1923
19279W        W62270  26.027   7.202  28.464 -0.0871 -0.2600  0.1521
19280W        W62271  24.641  18.498  28.242  0.1755 -0.2774  0.2144
19281W        W62272   0.508  21.296  28.992 -0.2172 -0.0723 -0.0780
19282W        W62273   0.890  20.658   0.974  0.1889 -0.0774 -0.2186
19283W        W62274  24.209  21.388  23.043 -0.0983  0.2718 -0.1655
19284W        W62275  25.140  13.310  23.006 -0.1638  0.1914  0.1480
19285W        W62276  15.702   4.917   6.026  0.0923  0.0574 -0.0583
19286W        W62277  30.291  26.876   7.082  0.0725 -0.0047 -0.0863
19287W        W62278  32.160  11.278  22.924 -0.1866  0.0516 -0.3108
19288W        W62279  27.361  29.888  27.721 -0.2525  0.0616 -0.1685
19289W        W62280  33.159   6.269  28.899 -0.2097  0.2244  0.3101
19290W        W62281  28.090  24.689   9.016  0.2851 -0.1747  0.0195
19291W        W62282  24.016  21.998  19.234  0.1828  0.4131 -0.2920
19292W        W62283  32.764  15.078  23.949  0.3782 -0.0532 -0.1246
19293W        W62284   6.098  18.655   5.143 -0.0287  0.0812  0.1306
19294W        W62285  13.759  21.392  17.120  0.2531  0.0032  0.0974
19295W        W62286  15.101  16.836  25.257  0.2427  0.1959 -0.0591
19296W        W62287  31.240  25.645   8.569 -0.1545 -0.2006 -0.3353
19297W        W62288  23.424   7.164  26.739  0.1474 -0.0390 -0.1493
19298W        W62289  28.913   2.266  25.408  0.2084  0.1200 -0.1066
19299W        W62290  14.817   3.650  29.221  0.0796  0.0050 -0.0410
19300W        W62291  30.113  18.254  17.979  0.1216 -0.3855 -0.0772
19301W        W62292  27.378   2.018  27.644  0.2738  0.0278  0.0003
19302W        W62293  23.917  23.485   6.888 -0.1578  0.1075 -0.1763
19303W        W62294  25.609  13.828   1.991 -0.2713  0.0085  0.1270
19304W        W62295  18.848  10.925  24.197  0.3942 -0.0761 -0.2866
19305W        W62296   2.328  20.482  22.934 -0.4100  0.1140  0.0368
19306W        W62297   2.527   8.670  20.025  0.1445  0.2116 -0.1059
19307W        W62298  34.005   6.423  27.060 -0.0056  0.1618  0.1592
19308W        W62299  17.226  29.809  27.406  0.0918  0.2012 -0.1185
19309W        W62300  17.355   4.420   1.941  0.0051 -0.0121  0.0334
19310W        W62301  26.212  23.891   7.913  0.1998 -0.0629 -0.0741
19311W        W62302  29.085   5.131   3.248 -0.1883 -0.0635  0.0403
19312W        W62303  28.953  17.886  27.404 -0.0050 -0.1299  0.0016
19313W        W62304   3.624  24.623   1.332 -0.0601 -0.0633  0.1055
19314W        W62305  34.260  30.158   9.166 -0.1565 -0.0756 -0.1121
19315W        W62306  15.110   3.003  23.979 -0.0232  0.2133 -0.1733
19316W        W62307  14.975   0.126  19.223 -0.2528  0.3456  0.0355
19317W        W62308   5.154  32.560  15.219 -0.2498  0.2768 -0.0929
19318W        W62309  11.189   7.980   9.773 -0.2441 -0.0105 -0.2647
19319W        W62310  27.471  34.648  15.678  0.0057 -0.1368  0.0829
19320W        W62311  25.124  10.633   1.048  0.0705 -0.1008 -0.2755
19321W        W62312  19.047   2.937  15.308 -0.1775  0.1385 -0.2205
19322W        W62313  12.330  29.173  21.706  0.0861  0.0362 -0.0743
19323W        W62314  27.712  34.536   0.105 -0.3150  0.0551 -0.0566
19324W        W62315  22.886  27.216  26.598  0.0785  0.2084 -0.3480
19325W        W62316  20.781  11.933  25.767  0.0470  0.0056 -0.0057
19326W        W62317  33.287  22.126  14.821 -0.0161  0.0100 -0.0193
19327W        W62318  23.545  10.383  14.120 -0.2800 -0.0323  0.1005
19328W        W62319  31.440  23.934  27.000 -0.0212  0.2669 -0.1611
19329W        W62320   9.393  22.659   9.994 -0.1125 -0.0429 -0.0092
19330W        W62321  28.618  13.170  20.460 -0.0480 -0.0233  0.2306
19331W        W62322  30.394  32.155  17.076 -0.2350 -0.1077 -0.2838
19332W        W62323  21.036  18.736  25.691  0.0187  0.2751 -0.0914
19333W        W62324   4.006  32.432  27.379  0.0861  0.0944  0.1902
19334W        W62325  25.057  12.365  18.465  0.1891 -0.0950  0.1125
19335W        W62326  16.145   6.442  19.000  0.0299 -0.0217 -0.3623
19336W        W62327  29.070  20.571  28.607 -0.1861  0.1100  0.0449
19337W        W62328  11.960  11.429  19.372 -0.0252  0.1537 -0.0799
19338W        W62329   1.344  31.700  16.791  0.1374  0.1108  0.1921
19339W        W62330  27.595  30.681  13.317  0.0054 -0.0477 -0.0941
19340W        W62331  28.995   1.599  21.323 -0.1582 -0.2108  0.1361
19341W        W62332  31.391  18.150  16.497  0.0349 -0.1361  0.1488
19342W        W62333  24.730  15.736  21.199  0.0407 -0.2534 -0.1366
19343W        W62334   0.100  20.836  18.314 -0.1299 -0.0135  0.0747
19344W        W62335  25.921  15.502  23.167  0.0846  0.0673 -0.0620
19345W        W62336  19.715   2.940  14.489 -0.0815 -0.0879 -0.0349
19346W        W62337  18.929  19.005  14.691 -0.2139 -0.1586  0.1592
19347W        W62338  18.637   3.513  25.551 -0.0522  0.1994  0.0203
19348W        W62339  26.565  15.823  16.797 -0.1557  0.2717  0.1516
19349W        W62340  26.585   3.886  21.882 -0.4084  0.0439 -0.0725
19350W        W62341   2.826  25.341  27.507 -0.0917  0.1182 -0.1152
19351W        W62342  20.702   3.850  25.632  0.0072 -0.4514 -0.1430
19352W        W62343  10.356  17.457  18.630 -0.2008 -0.2056  0.2319
19353W        W62344  29.543  29.542  17.786 -0.1730  0.0805  0.3597
19354W        W62345  13.412  22.985  18.705 -0.2477 -0.1303 -0.0852
19355W        W62346  17.809  19.336  28.215 -0.1268  0.0190 -0.1719
19356W        W62347  21.354  21.009  21.024  0.3207 -0.0665 -0.0810
19357W        W62348  24.299  10.729   0.261  0.5678  0.3622  0.0015
19358W        W62349  34.556  19.550  21.457 -0.2724  0.3507  0.3796
19359W        W62350  24.691   5.611  13.519 -0.0380  0.0575 -0.1659
19360W        W62351   2.754   2.844  25.231  0.0174  0.1267 -0.0300
19361W        W62352  30.027  16.940  17.629  0.1252  0.0883 -0.0453
19362W        W62353  24.178  16.947  23.356 -0.3133  0.0268 -0.4032
19363W        W62354  24.406  30.283  17.881 -0.1986 -0.2066 -0.1151
19364W        W62355  25.078  20.410  26.590  0.3419  0.3092 -0.3088
19365W        W62356  23.021   2.338  23.425 -0.1922 -0.1771  0.1490
19366W        W62357  22.117   4.003  16.679  0.0943 -0.1398 -0.2534
19367W        W62358   4.066  14.605   1.234 -0.2144 -0.0553 -0.0761
19368W        W62359  34.221  25.946  22.900 -0.0996 -0.0391  0.1239
19369W        W62360  17.991   1.983   7.458 -0.2760 -0.1148 -0.1611
19370W        W62361  31.142  32.921  13.805  0.0372 -0.2933 -0.0529
19371W        W62362  25.147   8.929  15.895 -0.1444 -0.0739 -0.2914
19372W        W62363  33.726  31.532  23.291  0.1531  0.1939 -0.0654
19373W        W62364  29.318   8.289  17.606 -0.1901 -0.0207  0.0218
19374W        W62365  11.533  11.202  17.307  0.1281  0.0090 -0.1796
19375W        W62366  26.145  24.739  16.808 -0.2211 -0.1398  0.2306
19376W        W62367  29.518   4.928  21.472 -0.1640  0.0697  0.2148
19377W        W62368  28.943   3.446  18.567 -0.3883 -0.1894 -0.0169
19378W        W62369  28.530   0.677   6.411 -0.0677  0.0217  0.0631
19379W        W62370  27.989  21.581  19.260  0.1569 -0.3279  0.0379
19380W        W62371  24.137  27.135   8.949 -0.2810  0.1046 -0.0596
19381W        W62372  31.946  21.643  28.126  0.0787  0.0264  0.2101
19382W        W62373  30.239   9.394  28.605 -0.2983  0.2137 -0.2589
19383W        W62374  28.380  21.548  14.883  0.1727  0.1048  0.4395
19384W        W62375  33.087  10.652  20.602 -0.3401 -0.1345  0.0803
19385W        W62376  29.795  27.501  25.613  0.0509  0.5324 -0.1683
19386W        W62377  27.460  18.427  16.318  0.1109  0.0340  0.0367
19387W        W62378  32.105  25.189  16.950  0.0243  0.1184  0.1398
19388W        W62379   0.785  21.237   2.971 -0.2893 -0.0569 -0.0583
19389W        W62380  25.994   7.911  20.868 -0.0562  0.0579  0.5072
19390W        W62381  26.446   5.722   5.738 -0.3686 -0.0339 -0.1790
19391W        W62382  16.900  14.580  15.370  0.1055  0.1962  0.1325
19392W        W62383  24.905  24.810  18.776  0.4077 -0.0229 -0.2004
19393W        W62384  17.730  10.829  22.723  0.2302  0.1100  0.1548
19394W        W62385   8.098  25.590  15.310  0.0806  0.0347 -0.0220
19395W        W62386  27.155  34.291   6.555  0.0147 -0.1417  0.2155
19396W        W62387  21.247   4.015  27.150 -0.1607 -0.1075 -0.5867
19397W        W62388  19.581  23.698  14.039  0.0992  0.2915  0.0948
19398W        W62389  31.959  26.716  15.600  0.0215 -0.2545 -0.4332
19399W        W62390  16.469   1.533   0.955  0.4381 -0.0060 -0.1721
19400W        W62391  27.418  21.994  21.598  0.3443  0.2110 -0.1945
19401W        W62392   7.261  24.144  21.339  0.3339 -0.3034 -0.2365
19402W        W62393  16.812  10.382  26.433  0.2844  0.3688  0.0479
19403W        W62394  16.580   0.317  15.927  0.2748  0.2071 -0.0728
19404W        W62395   7.920  20.502  23.097  0.0063  0.1041 -0.1608
19405W        W62396  21.131  20.363  17.838 -0.2951  0.1791  0.2595
19406W        W62397  26.276   0.908  20.404  0.0457 -0.0655 -0.0648
19407W        W62398  25.148  29.041  19.384  0.0806 -0.3655 -0.0665
19408W        W62399  21.231   7.855  21.873  0.0882  0.1431  0.0550
19409W        W62400  14.693  20.533  14.901  0.0431 -0.1818 -0.1277
19410W        W62401   3.677   0.684  14.513 -0.1391  0.0682 -0.0584
19411W        W62402  14.532  13.390  15.789 -0.0406  0.1104 -0.2298
19412W        W62403   3.888  15.634  20.916  0.2295  0.0737  0.0706
19413W        W62404   9.986   7.534  18.353  0.3194  0.0917  0.1995
19414W        W62405   8.139  14.367  15.925 -0.2517  0.0639 -0.0871
19415W        W62406   7.007   9.034   3.758 -0.0443  0.1164 -0.1546
19416W        W62407  17.518   9.722  19.514  0.0926 -0.1052  0.1758
19417W        W62408  19.403  23.425  17.625  0.2148  0.1422  0.0347
19418W        W62409  20.356  12.546  16.616  0.0755  0.5189  0.2597
19419W        W62410  31.078  19.674  20.371 -0.4458  0.0248  0.0030
19420W        W62411  24.161  13.777  22.415  0.0134 -0.3043 -0.1025
19421W        W62412  11.002  27.059  21.171  0.0731 -0.2820  0.3990
19422W        W62413  28.224  11.043  22.394 -0.1958 -0.3136 -0.0844
19423W        W62414  24.331   9.541  14.419 -0.2270  0.1227 -0.0393
19424W        W62415  16.006  29.301  24.957  0.0615 -0.1189  0.0739
19425W        W62416  26.351  13.812  21.754 -0.0593  0.2348  0.0001
19426W        W62417  28.403  16.075  16.835  0.0858 -0.2257 -0.2499
19427W        W62418  26.830   6.907  18.744  0.2857 -0.0900 -0.1115
19428W        W62419  25.845  34.556  27.485  0.0506 -0.2307  0.0498
19429W        W62420   1.440  27.084  19.864 -0.0004 -0.0936  0.1438
19430W        W62421   0.292  33.328  22.333 -0.1198 -0.3275  0.1160
19431W        W62422  21.865  25.158  26.739  0.0394 -0.2104 -0.1974
19432W        W62423   8.716  21.039  15.675  0.2164 -0.2372 -0.0391
19433W        W62424  30.154   1.692   5.843  0.0192 -0.0488 -0.1206
19434W        W62425  33.872   7.105   7.667 -0.1425  0.0468  0.0572
19435W        W62426  24.566  16.246  19.908 -0.0425 -0.5068  0.2774
19436W        W62427   7.849  20.358  21.697 -0.3257  0.0683  0.1038
19437W        W62428  11.639   0.642  24.018  0.0985  0.2332  0.1741
19438W        W62429   0.639  14.527  16.272  0.2545 -0.0422  0.1739
19439W        W62430  10.092  22.575   0.929  0.3667  0.0425 -0.1907
19440W        W62431  20.257   5.211  16.141 -0.1501 -0.0441  0.0534
19441W        W62432  29.287   5.170  16.355  0.3193 -0.3206 -0.1941
19442W        W62433  18.038  22.345  21.632  0.2087 -0.1191 -0.0665
19443W        W62434   1.220  21.154  22.927 -0.1033  0.1246 -0.0328
19444W        W62435   7.697   8.931  17.459 -0.1144  0.1611  0.2624
19445W        W62436  29.180   4.471  16.922 -0.1644 -0.0837 -0.2952
19446W        W62437   1.008  18.824  17.007  0.2608  0.1182 -0.1008
19447W        W62438   5.399  15.261  20.897 -0.0801 -0.2170  0.2461
19448W        W62439  20.941   3.675   1.984 -0.0468  0.3893 -0.1327
19449W        W62440   0.848  22.523  26.930  0.1162 -0.1651  0.1492
19450W        W62441  27.785  32.578  15.200  0.0044  0.1722  0.0957
19451W        W62442  11.995  18.377  18.316  0.3571 -0.3458  0.1913
19452W        W62443  17.326   6.742  19.954  0.4000 -0.1720 -0.3624
19453W        W62444   9.086   3.825  19.973  0.1407  0.0357  0.2124
19454W        W62445  22.924   4.793  14.298  0.0923  0.1349  0.0760
19455W        W62446   4.906  28.923  17.329  0.0963  0.1333  0.0025
19456W        W62447  27.226  11.207  13.751 -0.1586 -0.1515 -0.5679
19457W        W62448  22.058   7.486  17.787 -0.2533  0.1900 -0.0843
19458W        W62449  29.531  24.551  14.263  0.0013  0.1391 -0.3150
19459W        W62450  29.497  21.649  27.068  0.1195 -0.1410  0.1642
19460W        W62451  30.184  15.955  16.783  0.0448  0.0707 -0.0253
19461W        W62452  24.315  14.161  19.413 -0.1140  0.0588  0.0892
19462W        W62453  27.959  33.456  17.232 -0.0456  0.3836  0.0099
19463W        W62454  21.480  31.840  19.106  0.0598 -0.1705 -0.2154
19464W        W62455  19.230  33.772   4.106 -0.1386 -0.1093 -0.0842
19465W        W62456   2.358  20.023  17.875 -0.1353  0.0011 -0.1918
19466W        W62457  18.401  21.786  24.755 -0.2114 -0.0735 -0.2119
19467W        W62458  23.400  23.442  17.063 -0.0478 -0.3759 -0.4379
19468W        W62459  27.111  15.714  20.057  0.0071  0.0478 -0.0016
19469W        W62460  25.544  21.767  20.887 -0.1033 -0.0552  0.0834
19470W        W62461  34.373  21.419  24.151 -0.2611 -0.4833  0.1044
19471W        W62462  31.488  34.303  15.925 -0.0194 -0.3067  0.0072
19472W        W62463  22.954  17.474   0.784  0.1816 -0.0983 -0.0621
19473W        W62464  31.131   9.868  28.197 -0.2569  0.2890  0.0769
19474W        W62465   9.184   3.318  19.771  0.1259  0.0368 -0.1399
19475W        W62466  34.252  13.063  27.728  0.0441 -0.0748  0.1015
19476W        W62467  28.530  16.367  24.264  0.0638 -0.0364  0.1240
19477W        W62468  13.486  32.526  20.167 -0.0414  0.2144  0.0556
19478W        W62469   2.807  16.650  24.546 -0.1306  0.0104 -0.0188
19479W        W62470  24.794  26.668  20.112 -0.0368 -0.1927 -0.2391
19480W        W62471  23.375   4.844  23.188  0.1944 -0.0445  0.1693
19481W        W62472  34.230  23.708  27.889  0.1626 -0.1047 -0.3020
19482W        W62473  29.895  18.035  16.189  0.2016  0.0408 -0.2231
19483W        W62474  29.431  18.761  15.901 -0.1818 -0.0503 -0.0712
19484W        W62475  25.405  18.086  20.196  0.0667  0.0679  0.1744
19485W        W62476  33.203  26.712  18.035 -0.0022 -0.0170 -0.2894
19486W        W62477  15.303  12.484  23.376 -0.3403  0.2299 -0.2657
19487W        W62478  31.465  21.247  20.445 -0.1769 -0.2785  0.1300
19488W        W62479  21.071   7.945   9.853 -0.3456  0.3471  0.0089
19489W        W62480  22.758  17.085  15.626  0.1580  0.2536  0.0959
19490W        W62481  22.043  14.990   9.500  0.1506  0.1983  0.2522
19491W        W62482  21.293   2.145  28.560  0.1297 -0.2425 -0.0807
19492W        W62483  33.488  26.333  28.034 -0.0588 -0.0522  0.3730
19493W        W62484  28.441   0.940   3.621 -0.0001 -0.2200  0.2732
19494W        W62485   0.216  25.151  17.439  0.0738 -0.2812 -0.2294
19495W        W62486  20.295   4.472  20.593 -0.1417  0.0243 -0.0484
19496W        W62487  33.394  13.664  16.023 -0.0043 -0.0068 -0.1781
19497W        W62488  12.612   8.314  25.457  0.1896  0.1605 -0.2391
19498W        W62489   5.037  19.680  25.060  0.3340 -0.1161 -0.0028
19499W        W62490  30.122  13.960  26.636  0.1871 -0.1487  0.0660
19500W        W62491  31.965  13.945   4.588 -0.1313 -0.1251 -0.0751
19501W        W62492  32.858   5.114  21.522 -0.0971  0.0628 -0.0907
19502W        W62493  30.305  13.848  17.379  0.2073  0.2640  0.0605
19503W        W62494  20.813  14.643  15.759 -0.1042 -0.0726  0.3165
19504W        W62495  16.801  22.386  23.007  0.2568 -0.3011  0.0501
19505W        W62496   6.366   1.446  19.734 -0.1884 -0.0250  0.0304
19506W        W62497  15.789   8.152   3.503 -0.2467  0.0427 -0.0487
19507W        W62498  10.116  33.965  24.062 -0.1059 -0.0273 -0.0646
19508W        W62499  33.006   5.283  22.004  0.0431  0.3024  0.0570
19509W        W62500  18.905   3.566  23.668  0.1315  0.1287 -0.0745
19510W        W62501  25.068  19.724  19.010 -0.0921 -0.3367  0.1191
19511W        W62502   9.369  17.529  19.580 -0.3464 -0.1004  0.1618
19512W        W62503  16.785  14.303  22.158 -0.0283 -0.2100  0.2839
19513W        W62504  31.746  17.820  19.507 -0.0730 -0.2524 -0.0421
19514W        W62505  20.583   8.513  16.677 -0.0522 -0.0411 -0.2065
19515W        W62506  21.183  17.427  13.201 -0.2793  0.0608 -0.0681
19516W        W62507  19.677   9.789  20.595  0.0596 -0.1201  0.0773
19517W        W62508   0.775  14.760   1.305  0.0476 -0.1653 -0.1854
19518W        W62509  26.863  19.036  16.256 -0.2737  0.0300 -0.0729
19519W        W62510   9.385  31.702   1.421 -0.0507 -0.1210 -0.1818
19520W        W62511  28.395  32.531  16.926  0.1423 -0.5505 -0.1851
19521W        W62512  20.434  24.055  14.824 -0.0413  0.1470  0.2569
19522W        W62513  19.816  29.026  14.997  0.1023 -0.0540  0.0530
19523W        W62514  24.341  14.505  21.686 -0.0205 -0.0762 -0.1195
19524W        W62515  32.267  29.497  22.114 -0.1288  0.4345  0.0459
19525W        W62516  24.731   9.916  16.281 -0.0493  0.1184 -0.1569
19526W        W62517  19.947  33.289  25.336 -0.0436 -0.0662  0.2315
19527W        W62518  33.868   5.887  16.924 -0.3153 -0.0438  0.0486
19528W        W62519  28.090  11.527  14.985 -0.1714 -0.0512  0.1460
19529W        W62520  33.983  31.993  28.872 -0.1011 -0.2783 -0.0065
19530W        W62521  17.710  10.260  16.899  0.5427  0.1287 -0.1453
19531W        W62522  10.902   5.759   2.660  0.3830 -0.1586 -0.2394
19532W        W62523  20.264  12.391  20.877 -0.0522  0.0404 -0.0283
19533W        W62524   7.998  11.914  25.427 -0.3942 -0.2768  0.1777
19534W        W62525  32.779  19.003  21.295  0.1764  0.2843  0.0951
19535W        W62526  27.942  30.651   1.143 -0.2066 -0.1210 -0.0427
19536W        W62527  25.399   1.983  24.666 -0.0381 -0.1223 -0.1261
19537W        W62528  31.075  20.794  14.790 -0.0801  0.2318  0.2581
19538W        W62529  31.695   0.206  29.111 -0.4856  0.4395  0.1663
19539W        W62530  28.689  10.019  29.207  0.1087  0.0767 -0.1077
19540W        W62531   0.897  19.868  13.982 -0.2207  0.0343 -0.1246
19541W        W62532  22.029   3.498  23.785 -0.3547  0.2368  0.1795
19542W        W62533   1.192  23.305  18.608 -0.1383 -0.0282 -0.0529
19543W        W62534  24.468  21.338  15.419  0.3874  0.1415  0.0550
19544W        W62535   9.353   6.653  15.679  0.0673 -0.1204  0.0143
19545W        W62536  12.524  10.687  15.375 -0.6734 -0.2660  0.1597
19546W        W62537  27.969  11.801  23.189  0.0564 -0.1351  0.0243
19547W        W62538   0.318  25.423  24.963  0.1238 -0.0003  0.3052
19548W        W62539  22.904   3.543  27.301 -0.0563  0.2042  0.2535
19549W        W62540   5.724   6.413  18.339  0.1145  0.2640  0.1226
19550W        W62541  22.016  28.715  13.161 -0.3391  0.0310 -0.0474
19551W        W62542   7.981  23.266  25.793  0.1565 -0.0920  0.0322
19552W        W62543   5.522  16.344  24.817  0.0068 -0.1488 -0.4203
19553W        W62544  29.377  27.095  27.736  0.2490 -0.1240 -0.2932
19554W        W62545  30.615  14.612  21.845 -0.0395  0.2192  0.0650
19555W        W62546  20.807  10.385  22.186 -0.0485  0.0526 -0.1180
19556W        W62547  31.627  10.700  28.100  0.1611  0.2720 -0.1812
19557W        W62548  33.162   3.763  24.995 -0.0206  0.0298 -0.0206
19558W        W62549  32.309   5.406  17.076 -0.1872 -0.1339  0.2203
19559W        W62550  29.231  20.627  21.860  0.3762 -0.1673  0.0209
19560W        W62551  26.723  31.145  24.279  0.0361 -0.1541  0.4140
19561W        W62552   0.303  17.052  20.709  0.0997 -0.0559 -0.3395
19562W        W62553  16.733   9.665  25.597  0.2174  0.5519  0.0261
19563W        W62554  12.342  19.879  29.241  0.3746  0.1099  0.0333
19564W        W62555  15.099   3.393   5.364 -0.1301 -0.2644  0.1358
19565W        W62556  30.117  31.917  15.255 -0.0157 -0.1415  0.0995
19566W        W62557  22.761  27.412  15.016 -0.0198 -0.1284  0.0848
19567W        W62558  12.318  13.851  14.722  0.1667  0.0401 -0.0644
19568W        W62559  17.384  15.380  24.936  0.0224  0.0025 -0.2266
19569W        W62560  29.859  30.603  13.225 -0.5626 -0.2928  0.2822
19570W        W62561  24.725  15.784  14.197 -0.1576 -0.2047  0.0785
19571W        W62562  30.028   6.674  19.187 -0.2538 -0.0892 -0.1096
19572W        W62563  34.654  14.079  27.013  0.0090 -0.0911 -0.4914
19573W        W62564  29.939  22.458  28.975 -0.0513 -0.0807  0.2038
19574W        W62565  28.294  20.224  15.176  0.1265  0.1353  0.0557
19575W        W62566  16.331  10.669  23.333  0.0724  0.1336  0.1836
19576W        W62567  19.887  10.856  18.373  0.0656 -0.0755 -0.0492
19577W        W62568  23.577   4.930  18.457 -0.0363  0.0464 -0.1196
19578W        W62569   4.945   5.424  18.118 -0.2841 -0.0138  0.2124
19579W        W62570  31.866   0.879   1.700  0.1956  0.1950  0.1378
19580W        W62571  16.195  33.016  18.538  0.0875  0.1923  0.1567
19581W        W62572   4.788  23.704  27.195  0.0370  0.0867 -0.0284
19582W        W62573   6.377  10.202  14.659  0.1302  0.0325  0.0993
19583W        W62574  25.331  17.623  27.852  0.1279  0.2407  0.0553
19584W        W62575  26.415   2.187  13.951 -0.0599 -0.0506 -0.1198
19585W        W62576  32.361  15.174  25.139 -0.0652  0.1414  0.3907
19586W        W62577  28.135  15.391  15.912  0.2194  0.1291  0.1383
19587W        W62578  17.564   2.915  21.375  0.0141  0.2944  0.1554
19588W        W62579  27.608  25.671   1.332 -0.0721  0.0019 -0.0730
19589W        W62580  26.438  28.482   2.411 -0.0385 -0.1774  0.1492
19590W        W62581  26.793  14.170  20.349  0.3003  0.1516 -0.1998
19591W        W62582  33.152  16.595  24.602 -0.1868  0.1649  0.2481
19592W        W62583  19.229  26.200  21.899  0.1355 -0.0196 -0.1072
19593W        W62584  27.362  17.429  25.307 -0.0343  0.1180  0.0556
19594W        W62585  18.504  10.847  20.482  0.1516  0.0324  0.1533
19595W        W62586  12.836  10.893  27.790 -0.4983  0.0388  0.1827
19596W        W62587  22.034   7.349  21.609  0.1402  0.1539  0.0805
19597W        W62588  24.913  19.256   5.076  0.0019 -0.0246 -0.0102
19598W        W62589   1.100  26.422  17.340  0.1212  0.0146 -0.0054
19599W        W62590  31.761  23.596  15.033 -0.1822 -0.1219  0.0572
19600W        W62591   3.624  13.600  21.408  0.1698 -0.0396  0.2240
19601W        W62592   0.840  17.288   3.331  0.0801 -0.1176  0.5485
19602W        W62593   8.147   8.958  17.363  0.2151 -0.0606  0.0155
19603W        W62594  24.403  12.701  15.239  0.0776 -0.3263 -0.2523
19604W        W62595  10.436  19.304  23.617 -0.0922  0.1394 -0.2181
19605W        W62596  19.039  17.949  25.648  0.0874 -0.1218  0.0038
19606W        W62597  32.238  30.081  27.778 -0.0806 -0.0091  0.4902
19607W        W62598  21.716  21.378  14.208 -0.2078 -0.1530  0.0350
19608W        W62599  22.707  23.705  20.567 -0.1060 -0.2063  0.3859
19609W        W62600   1.772  32.768  18.263  0.1119  0.0115 -0.1193
19610W        W62601  27.878  22.172  21.809  0.0062 -0.1438  0.1194
19611W        W62602  23.522  14.800  13.923 -0.0128 -0.4109  0.0731
19612W        W62603  15.205   2.136   2.321 -0.0503 -0.2769  0.2707
19613W        W62604   8.590  11.041  19.476 -0.3338  0.2990 -0.1146
19614W        W62605  30.135  14.256  24.155 -0.2270 -0.0508  0.0809
19615W        W62606  28.283  25.358  21.015  0.2309 -0.3516 -0.2093
19616W        W62607  17.326   8.275  27.966 -0.0288  0.1557 -0.1246
19617W        W62608  25.833  13.082  13.691 -0.0771 -0.1061  0.1354
19618W        W62609  21.338  18.750  22.248  0.3495 -0.1120 -0.0235
19619W        W62610  26.872  11.743   4.800 -0.0112 -0.0604  0.3516
19620W        W62611  21.255   7.864   0.756  0.0433  0.1100 -0.0759
19621W        W62612  26.161  25.015  20.218 -0.1207  0.0940  0.0788
19622W        W62613  32.862   8.699  15.973  0.2483  0.1514 -0.0515
19623W        W62614  19.085  10.412  13.835 -0.3254  0.0715  0.0220
19624W        W62615  22.635  31.752  13.176 -0.0505  0.1975  0.0490
19625W        W62616  20.104  27.240  18.954 -0.0081 -0.1490  0.3374
19626W        W62617   1.372  17.721   1.731  0.2443  0.0740 -0.1990
19627W        W62618  14.334  17.428  14.867 -0.1955 -0.0818  0.0545
19628W        W62619  31.530  16.125  19.546  0.3615  0.0609  0.0361
19629W        W62620  30.533   0.787  14.517 -0.2181 -0.0482 -0.1321
19630W        W62621  29.740  10.003  14.944 -0.2165  0.0874  0.0008
19631W        W62622  28.678  12.201  18.942  0.0001  0.1455 -0.1610
19632W        W62623  19.333  13.368  15.773  0.0395 -0.0008  0.0293
19633W        W62624  33.905  11.804   9.262 -0.1941 -0.0880  0.1250
19634W        W62625  28.966  20.091  19.384 -0.2801  0.1381 -0.2769
19635W        W62626  19.897  26.476  15.642  0.0741 -0.0946 -0.1585
19636W        W62627  14.335  21.307  26.261  0.1041 -0.3658 -0.2571
19637W        W62628  27.524  16.015  14.739 -0.2840  0.0076  0.1195
19638W        W62629  18.775  10.488  23.969 -0.0386 -0.2826 -0.3169
19639W        W62630  21.560  30.716  13.466 -0.0454 -0.1924 -0.0417
19640W        W62631   1.143  20.151   7.500  0.0007  0.1271 -0.2658
19641W        W62632  18.135  25.723  19.360  0.0527 -0.0956 -0.2021
19642W        W62633  21.435  17.782  12.536  0.0141 -0.0432  0.0447
19643W        W62634  30.455  33.801  26.248 -0.1016  0.1340 -0.0703
19644W        W62635  27.856   7.262  13.767 -0.2892  0.1882 -0.1355
19645W        W62636   4.590  11.380  17.491  0.0547 -0.0766 -0.0191
19646W        W62637  29.962  29.460  18.540 -0.1426 -0.2184  0.0763
19647W        W62638  24.208  30.881  16.463  0.1894 -0.1967  0.0607
19648W        W62639  27.159  18.652  29.200  0.0009 -0.0651  0.1580
19649W        W62640  16.709   6.926  16.733  0.0261  0.1028 -0.4755
19650W        W62641  18.993  22.859  20.057 -0.0293 -0.3333 -0.1386
19651W        W62642  25.021   2.507   1.134 -0.2605  0.0099 -0.1211
19652W        W62643  25.661  19.926  18.368 -0.0942  0.4109 -0.0602
19653W        W62644  29.850  29.183  26.417 -0.1539  0.1694 -0.2033
19654W        W62645  30.208  26.868  17.336  0.1453 -0.1211 -0.1465
19655W        W62646  24.846  12.820   0.913 -0.0296 -0.1108 -0.1286
19656W        W62647  27.341  23.419  23.165 -0.0872 -0.3978 -0.1319
19657W        W62648  29.019  10.810  15.354 -0.3769  0.0390 -0.0559
19658W        W62649  33.779  12.635  16.412 -0.3032 -0.1378  0.2004
19659W        W62650  24.431  15.064  21.858  0.3059 -0.0323 -0.1639
19660W        W62651  34.701  15.552  27.996  0.3583  0.0898 -0.0105
19661W        W62652  29.116  15.836  23.715 -0.0267 -0.2332 -0.0485
19662W        W62653  26.902   9.980  26.095  0.3364 -0.1104 -0.0746
19663W        W62654  29.043   4.885  26.567  0.0383 -0.3863  0.1745
19664W        W62655  26.913   6.181  22.822 -0.2604 -0.3482  0.1502
19665W        W62656  24.465  20.199  13.930 -0.0113  0.2954 -0.0883
19666W        W62657  34.378  28.281  23.837  0.0497 -0.1790  0.3038
19667W        W62658  34.410  11.438  23.892  0.1502 -0.1892  0.1356
19668W        W62659  22.445  13.285  27.624 -0.2948  0.0511 -0.0498
19669W        W62660  22.169   4.690   0.865 -0.1533 -0.1955 -0.1293
19670W        W62661  27.890  16.447  15.544  0.1398  0.1063  0.0128
19671W        W62662  26.372  25.542  25.567  0.0385  0.0946  0.0206
19672W        W62663  29.345  13.598  16.237 -0.0670  0.2208  0.2516
19673W        W62664  28.187  29.834  27.187  0.0293  0.2787  0.1286
19674W        W62665  19.135  24.187  12.551 -0.3233 -0.0957 -0.1647
19675W        W62666  31.440  16.804  15.530  0.2380 -0.0970  0.3570
19676W        W62667  20.161  21.399  27.714 -0.2442 -0.3559  0.0590
19677W        W62668  30.061  15.944  22.566  0.2815 -0.2152 -0.2845
19678W        W62669   3.673   1.222  22.248 -0.1986  0.4296  0.0594
19679W        W62670  22.624   9.913  25.927  0.2840  0.2959 -0.0084
19680W        W62671  23.830  10.065  19.171  0.0490  0.1206  0.0485
19681W        W62672  21.674   2.010   7.536  0.1237 -0.2995  0.0570
19682W        W62673  21.111  10.585  17.184 -0.0003  0.0709 -0.2223
19683W        W62674  26.812   4.260  23.476 -0.1145 -0.3626  0.3273
19684W        W62675  23.495  15.363  17.727 -0.0735  0.0912 -0.0850
19685W        W62676  27.559  24.588  22.209 -0.0765  0.1760 -0.2475
19686W        W62677  30.822  19.792  19.540 -0.3559  0.0114  0.0322
19687W        W62678  25.080  11.385  14.722  0.0384  0.0439 -0.0278
19688W        W62679  21.157  16.464  25.242  0.2069  0.4929 -0.1529
19689W        W62680  22.511  15.846  13.495 -0.0540  0.0694  0.2436
19690W        W62681   9.924  21.629   4.929 -0.1077 -0.1248 -0.0022
19691W        W62682  27.049  12.571  15.760 -0.2402 -0.2604  0.1425
19692W        W62683   7.740  18.008  18.146 -0.0563 -0.1579 -0.0966
19693W        W62684  28.127   2.113  21.209  0.0225  0.4205 -0.0115
19694W        W62685  21.009   1.434   6.400  0.1722  0.0811 -0.1443
19695W        W62686  20.156  34.031  17.660  0.1035  0.0122  0.1156
19696W        W62687  23.890  22.364  19.585 -0.1436  0.3011 -0.1526
19697W        W62688  31.229  24.048  19.722 -0.1839 -0.2310 -0.1013
19698W        W62689  27.762  13.969  14.028  0.2747  0.1166 -0.0353
19699W        W62690   4.489  32.073  20.951 -0.3983  0.3243  0.0175
19700W        W62691  21.375   6.751  17.356  0.5209 -0.0717 -0.0515
19701W        W62692   7.184  31.383   5.728  0.3224  0.2007  0.1715
19702W        W62693  18.674  13.888  28.838 -0.2491 -0.0763 -0.1199
19703W        W62694   3.838  20.706  20.841 -0.0159 -0.1586 -0.0183
19704W        W62695  33.579  23.854  18.809 -0.0421  0.1331  0.1175
19705W        W62696  24.301   4.249  17.927  0.0396  0.1101  0.0215
19706W        W62697  21.718  16.637  22.793  0.1481 -0.4452  0.1944
19707W        W62698   9.915  26.062  18.919 -0.3127 -0.2180 -0.1785
19708W        W62699   3.549   2.532  15.517 -0.1722 -0.1311 -0.0275
19709W        W62700   5.606  27.417  17.353 -0.4580 -0.1334 -0.2885
19710W        W62701   8.775   7.312  22.143  0.0831 -0.2442  0.0447
19711W        W62702  28.137  14.335  15.063 -0.2901  0.0414 -0.0252
19712W        W62703   8.965   7.460  15.729  0.1562  0.1840 -0.2284
19713W        W62704  28.395  32.772  14.373  0.1459 -0.0209 -0.2320
19714W        W62705   2.603  31.982  20.680  0.0931 -0.1901 -0.0393
19715W        W62706  33.361  19.296  27.362  0.0524 -0.1792 -0.0090
19716W        W62707  19.190   6.020  20.518 -0.2891  0.3054 -0.0284
19717W        W62708  14.834  21.285  13.950 -0.2287  0.0422 -0.2649
19718W        W62709  21.908  26.844  19.460  0.2546  0.1360 -0.0987
19719W        W62710  14.409  22.961  21.672  0.0787  0.1596  0.0347
19720W        W62711   9.739  33.025  15.161 -0.2074 -0.1637 -0.1222
19721W        W62712   3.536  15.271  24.654 -0.0713  0.2549  0.0705
19722W        W62713  24.717  12.160  15.741  0.1769 -0.4104  0.0150
19723W        W62714  11.258   9.593  16.791  0.0014 -0.0842  0.0205
19724W        W62715  23.523  11.183  13.662 -0.1917  0.1719 -0.2250
19725W        W62716  31.447  30.984  22.003  0.0407  0.2379  0.2220
19726W        W62717   3.920   8.831  14.951  0.1950 -0.0599  0.0023
19727W        W62718  26.988  26.676  27.674 -0.1253  0.1973  0.0493
19728W        W62719  28.020  27.455  21.350 -0.1811 -0.1669  0.2844
19729W        W62720  21.631   7.854  15.798 -0.1896  0.2970 -0.5913
19730W        W62721  33.270   8.976  15.942 -0.0843 -0.2615 -0.0464
19731W        W62722  19.261   6.423  24.897 -0.1028  0.0523 -0.1014
19732W        W62723  24.639  25.236  17.118 -0.2638  0.0041  0.1222
19733W        W62724  25.118   2.408  12.934 -0.2468 -0.2644 -0.0649
19734W        W62725  32.354  31.636  16.104  0.3120 -0.2865 -0.1306
19735W        W62726  18.269  14.128  28.904 -0.1512 -0.2180  0.1226
19736W        W62727  15.391  20.332  21.003 -0.2421 -0.0591  0.2827
19737W        W62728  18.221  34.134   2.324  0.0610  0.1271  0.1944
19738W        W62729  26.631  14.673  20.318  0.2270  0.1492  0.0330
19739W        W62730  34.642  12.217  24.209 -0.0277 -0.2572  0.3351
19740W        W62731  26.044  12.174  20.686 -0.0421  0.3148 -0.0240
19741W        W62732  16.931   4.817  28.240  0.1686  0.3795 -0.1181
19742W        W62733  17.548  21.209  16.220 -0.5035 -0.1089  0.0784
19743W        W62734   1.422  22.337  22.881 -0.0316 -0.3061 -0.2623
19744W        W62735  33.702   8.685  18.796 -0.1306 -0.0313  0.1690
19745W        W62736  23.510  11.077  24.284 -0.1582 -0.1795  0.3071
19746W        W62737  22.760  14.462  25.819 -0.3522  0.2895  0.1949
19747W        W62738  19.514   7.571  25.737  0.1151 -0.2763  0.1365
19748W        W62739  22.361  22.744  15.741 -0.3095 -0.0184 -0.3604
19749W        W62740  32.693  15.640  20.218  0.3224  0.1134  0.0132
19750W        W62741  25.159  19.098  16.152 -0.2650 -0.0109 -0.1530
19751W        W62742  33.604  13.196  15.887 -0.0592  0.1298 -0.2999
19752W        W62743  27.803  11.919   1.026 -0.0386 -0.2046 -0.0800
19753W        W62744  16.695  19.013   4.546  0.1128  0.3007 -0.3939
19754W        W62745   0.625   8.609  18.435 -0.1437 -0.0971 -0.4068
19755W        W62746  27.448  12.647  15.420  0.1470  0.0591 -0.0689
19756W        W62747  13.704   3.463   6.293 -0.0766  0.0696 -0.0041
19757W        W62748  18.800  16.763  23.781  0.0724  0.1845  0.0961
19758W        W62749  26.443  14.383  18.561 -0.1521 -0.0784 -0.2549
19759W        W62750   2.684  15.507  28.818  0.1531 -0.0529 -0.2202
19760W        W62751  29.547  25.161  16.787 -0.2737  0.0827  0.0864
19761W        W62752  19.587  31.374  21.965 -0.1980  0.2436 -0.1509
19762W        W62753   0.525  25.494   5.459 -0.1929  0.0973 -0.3020
19763W        W62754  21.240  25.541  14.211  0.0863  0.2834  0.1541
19764W        W62755  21.661  11.212  26.843  0.0286  0.2866  0.0585
19765W        W62756  25.081  12.414  22.586  0.3327 -0.0250 -0.0202
19766W        W62757  27.210   3.622  20.689  0.1114  0.1715  0.0013
19767W        W62758  16.524   1.430  17.785 -0.0265  0.0089  0.0284
19768W        W62759  26.720  28.467  26.256 -0.0949 -0.0707 -0.1052
19769W        W62760  20.323   2.196   4.224 -0.0510  0.3299 -0.4069
19770W        W62761  27.962   7.726  22.260 -0.3833 -0.2483  0.1026
19771W        W62762  33.074  11.766  16.165  0.2944  0.0100 -0.3677
19772W        W62763  31.025   6.077   9.453 -0.0732 -0.0747 -0.0982
19773W        W62764  23.817  13.655  14.375 -0.1287 -0.1432 -0.2457
19774W        W62765  19.388  20.358  14.426  0.2360 -0.0649 -0.0666
19775W        W62766   4.300   2.608  19.477  0.2216  0.1608  0.0594
19776W        W62767  20.295  11.276  18.464  0.2222 -0.1580 -0.0922
19777W        W62768  26.160  12.896  14.085  0.3377 -0.2072  0.0331
19778W        W62769   6.345   1.881   9.562  0.0056  0.0938 -0.1603
19779W        W62770  23.561  25.641  13.997 -0.0535  0.1007 -0.2672
19780W        W62771  12.515  29.742  16.913  0.2213 -0.3971 -0.2017
19781W        W62772  28.802  14.666  16.137 -0.0732 -0.0443  0.0823
19782W        W62773  18.726  31.761   7.820  0.3508 -0.0139 -0.0807
19783W        W62774   1.718  15.127  26.117 -0.0846  0.2805  0.0210
19784W        W62775  29.940   2.205  25.662  0.0773  0.0160  0.4413
19785W        W62776  26.622  28.036   0.422  0.0277 -0.2262  0.1593
19786W        W62777  13.677  10.984   6.004  0.0299  0.1680  0.2136
19787W        W62778  17.284  23.604  18.724  0.1246  0.0515 -0.3108
19788W        W62779   1.986  22.312   3.568  0.1000  0.0558  0.0958
19789W        W62780   6.379  30.339  15.445  0.1472 -0.1404  0.0352
19790W        W62781   0.461   5.487  28.984 -0.1678 -0.0582 -0.0647
19791W        W62782  19.363  29.302  20.007  0.1491  0.2150  0.1709
19792W        W62783  16.872  15.443  12.931 -0.1664 -0.2174 -0.0942
19793W        W62784   5.878  15.857   0.734 -0.2008  0.0351  0.1542
19794W        W62785  17.003  25.847  20.324 -0.0352  0.0095 -0.3773
19795W        W62786  30.925  12.621  17.754 -0.1564 -0.2771 -0.0927
19796W        W62787  24.364  25.546   6.816 -0.1046 -0.2325  0.1822
19797W        W62788   0.600  15.068  27.962  0.2704  0.1553  0.4248
19798W        W62789  24.151   3.106  25.290  0.0342  0.0538 -0.3660
19799W        W62790   0.405   6.958  20.069  0.0749  0.2459 -0.4209
19800W        W62791   0.655  32.068  25.003  0.2511 -0.3086  0.0956
19801W        W62792  27.455   2.814  21.000 -0.0825  0.0279 -0.2107
19802W        W62793   3.188  15.519  18.963 -0.1834 -0.2815  0.0582
19803W        W62794  22.969   3.301   6.882  0.0203 -0.0499  0.0458
19804W        W62795   3.604  15.727  25.104  0.3041 -0.0403  0.1954
19805W        W62796  23.747  14.056  22.135 -0.0657 -0.2114 -0.1223
19806W        W62797   5.044  15.064  21.512 -0.2110  0.0256 -0.1613
19807W        W62798  26.608  19.412  19.068 -0.1271 -0.4111  0.1081
19808W        W62799  23.954  15.009   6.329  0.1262  0.1023 -0.0160
19809W        W62800  29.499   5.333  15.950 -0.1699 -0.1587  0.2595
19810W        W62801  21.792  13.542  27.785  0.2843 -0.0512  0.1224
19811W        W62802   3.139   6.263  14.971 -0.1785 -0.4455  0.1569
19812W        W62803  34.222  27.095  27.770 -0.1653 -0.0714 -0.3553
19813W        W62804   1.830   6.370  18.902  0.1103 -0.1800  0.2365
19814W        W62805  21.623   1.050   2.260 -0.3811  0.0401  0.2379
19815W        W62806  31.623  18.175   3.014 -0.0264  0.1658  0.0586
19816W        W62807  34.661   7.905  24.940  0.1909  0.0899 -0.3966
19817W        W62808  16.070  13.268  28.443 -0.0388 -0.2913  0.2665
19818W        W62809  22.916   9.921   1.682  0.0730 -0.0320 -0.0026
19819W        W62810  31.834  10.755  14.461  0.1090 -0.1584 -0.0646
19820W        W62811   2.873   5.147  15.591  0.1120  0.2338 -0.0146
19821W        W62812   3.671  32.760  14.424  0.1999  0.1370 -0.1646
19822W        W62813  21.885  16.493  16.717 -0.0897 -0.1377  0.2056
19823W        W62814  23.638  11.535  27.434 -0.0823 -0.1615  0.2356
19824W        W62815   1.452  28.216  14.765  0.1246  0.0347 -0.1880
19825W        W62816  26.566   2.677  17.850 -0.1792 -0.0351 -0.0773
19826W        W62817  10.862   7.043  19.969 -0.3108  0.3450 -0.1723
19827W        W62818  31.312   9.872  27.141  0.1364  0.1452 -0.1795
19828W        W62819   2.370  27.708  17.283 -0.2329  0.2045  0.0346
19829W        W62820  16.605  29.530  24.322  0.0371 -0.0949 -0.0306
19830W        W62821  25.072  11.338  24.361 -0.0374  0.3296  0.0485
19831W        W62822  14.819  20.106  19.262 -0.0057  0.0687  0.0017
19832W        W62823  25.156  31.490   6.868  0.0946  0.0460 -0.1399
19833W        W62824  15.929  34.632  20.337  0.1039 -0.2340  0.0435
19834W        W62825   3.958  12.723  16.349  0.1108  0.0403 -0.3589
19835W        W62826  29.705  31.193  28.636 -0.1927 -0.1829  0.0197
19836W        W62827  15.703   7.386  18.421  0.0595  0.1887  0.1046
19837W        W62828  13.581   7.138  20.368  0.3080 -0.0206 -0.2099
19838W        W62829  10.229  23.181  20.839  0.2060  0.1054 -0.1584
19839W        W62830   0.770  11.886  21.839  0.2135  0.0105  0.2790
19840W        W62831  26.332  18.533  16.431  0.0921 -0.0269  0.0785
19841W        W62832  30.437  26.546  21.176  0.1863 -0.0466 -0.0002
19842W        W62833  26.935  20.416  15.139 -0.1980 -0.1223 -0.1318
19843W        W62834  16.912   5.206  17.919  0.2368 -0.3523 -0.1225
19844W        W62835  29.245   5.005  18.947  0.0646  0.0600 -0.1274
19845W        W62836   8.890  28.912   2.370 -0.0372  0.2420  0.0977
19846W        W62837  16.981   7.125  21.310  0.2993  0.3578 -0.0921
19847W        W62838  29.114  23.565   2.632 -0.0166  0.1981  0.2974
19848W        W62839  28.893  11.053  21.365 -0.0713  0.0941  0.2142
19849W        W62840  31.174  16.481  19.662  0.2476 -0.0099 -0.1262
19850W        W62841  18.793   6.808  26.840 -0.0543 -0.0594  0.3821
19851W        W62842  32.322  10.390   6.961 -0.1131 -0.0514 -0.1145
19852W        W62843  13.643   8.573  22.020  0.3173 -0.1115  0.0647
19853W        W62844  23.765  14.562  19.684  0.0838 -0.1397  0.0288
19854W        W62845  17.768  21.135  12.253 -0.0724 -0.0507 -0.2043
19855W        W62846  24.511   4.407  21.164 -0.1790 -0.2355 -0.3868
19856W        W62847  16.741  13.376  12.805 -0.0789 -0.0298 -0.3869
19857W        W62848  17.322   8.037  23.116  0.2761 -0.0500 -0.0414
19858W        W62849  25.685   8.893  23.346  0.1323 -0.0645  0.2776
19859W        W62850   9.466   0.964  26.235  0.0685  0.4323  0.0109
19860W        W62851   7.904  24.488  18.640 -0.2303  0.1693 -0.2014
19861W        W62852  17.309   0.545  28.302 -0.1430 -0.0129  0.2034
19862W        W62853  14.882  21.908  15.279  0.0651  0.1671 -0.0686
19863W        W62854  34.388   5.876  19.328 -0.0158 -0.1852  0.0915
19864W        W62855  21.405  26.210  18.361  0.0864  0.0225 -0.0828
19865W        W62856  24.949  22.337  21.214  0.2445  0.2901 -0.1471
19866W        W62857  32.783  14.103   0.923 -0.0453 -0.0416  0.2126
19867W        W62858  14.921  33.527  23.931  0.1235 -0.0273  0.0845
19868W        W62859   3.043  12.602  16.924 -0.0879 -0.1982 -0.3092
19869W        W62860   4.165   6.765  15.447  0.0106 -0.1772  0.1020
19870W        W62861  31.423   4.420  26.385  0.1915  0.0112 -0.0588
19871W        W62862  33.231  20.613  22.683 -0.0913 -0.0871  0.1321
19872W        W62863  25.735   5.242   2.016  0.2441 -0.1328  0.0398
19873W        W62864  25.225  16.695  24.328 -0.1064  0.0176  0.0842
19874W        W62865  20.767   0.895  27.709  0.1563 -0.0277  0.0119
19875W        W62866  17.371  19.832  13.639 -0.2623  0.1138  0.0153
19876W        W62867  24.652   2.016  23.938 -0.1313 -0.3301  0.2370
19877W        W62868  24.297  16.755   1.118 -0.0052  0.2376  0.0923
19878W        W62869   3.228  11.989  26.338  0.3656 -0.2331  0.0960
19879W        W62870  22.384  28.711   2.480  0.2142 -0.2226 -0.0090
19880W        W62871  20.942   6.991  24.319 -0.0996  0.0552 -0.2913
19881W        W62872  34.538   8.553  25.525  0.2081 -0.0775  0.3649
19882W        W62873  28.255  21.630  25.782 -0.2540  0.1285  0.1093
19883W        W62874   6.158  16.508  19.531 -0.2805  0.0697  0.1500
19884W        W62875  16.051   7.550  22.094 -0.0120 -0.2627  0.0544
19885W        W62876   4.198  20.540  26.880 -0.3140  0.0123 -0.0959
19886W        W62877  25.355  14.480  21.570  0.1139 -0.2405 -0.1610
19887W        W62878  34.792  19.072  18.380  0.3205  0.1719  0.1398
19888W        W62879  22.270   0.253  21.897 -0.3082  0.3792 -0.5112
19889W        W62880  22.337  20.611  23.862  0.0292  0.0956 -0.1104
19890W        W62881   3.459   8.569  20.634  0.1650 -0.1135  0.0500
19891W        W62882  16.131  27.878  29.258 -0.1662 -0.0891  0.0297
19892W        W62883   1.051  21.301  15.166  0.0344 -0.0052  0.0401
19893W        W62884  22.924  16.103  22.251 -0.0709  0.3233  0.1255
19894W        W62885  18.002  10.306  13.572 -0.1852 -0.0292 -0.2180
19895W        W62886  26.751   4.339  22.240 -0.1115  0.2798 -0.2181
19896W        W62887  17.529  23.530   3.168  0.0068 -0.0948  0.3318
19897W        W62888  25.132  15.267  22.910 -0.0538  0.1804 -0.0406
19898W        W62889  22.967  30.349  20.619 -0.0949  0.1105 -0.1533
19899W        W62890   3.633  19.412  19.918  0.1306  0.1442  0.3138
19900W        W62891   7.908   0.548  21.855  0.1015  0.3760  0.0552
19901W        W62892  19.693  26.426  21.863  0.1057  0.1994 -0.0975
19902W        W62893  25.161   5.502  15.234 -0.0064  0.0211  0.0180
19903W        W62894  22.950   3.312  24.873  0.1488  0.0510  0.1578
19904W        W62895  13.147  12.359   1.030  0.2873  0.4150 -0.0673
19905W        W62896  34.454  17.911   3.455 -0.4008  0.1171 -0.0492
19906W        W62897  30.609  33.660  23.551 -0.0246 -0.1386 -0.1676
19907W        W62898  30.802   9.248  13.957 -0.0352 -0.0096  0.0143
19908W        W62899   5.104  20.551  29.207  0.1342 -0.1028  0.0222
19909W        W62900  18.893   7.801  17.787  0.0964 -0.5539  0.1126
19910W        W62901  24.450  30.154  16.423  0.0736  0.1240 -0.3908
19911W        W62902   1.586  24.461   3.402  0.2083 -0.0115  0.3156
19912W        W62903  29.166  15.966  18.123  0.1192  0.0998 -0.0378
19913W        W62904   0.870  29.481  20.350  0.1361 -0.0299  0.2097
19914W        W62905  32.303   8.822  22.050 -0.3773  0.0906  0.0160
19915W        W62906  17.568  13.360  20.851 -0.0112 -0.0955  0.3265
19916W        W62907  20.426   5.519   0.463  0.2677  0.1486 -0.0102
19917W        W62908  11.639  16.382  14.597  0.0050 -0.3512  0.0368
19918W        W62909  29.345  17.279  18.286 -0.0113  0.0652  0.0795
19919W        W62910  34.187  20.938  21.669 -0.0833 -0.0470 -0.0931
19920W        W62911   2.782  20.219   4.145  0.0210 -0.1304 -0.0616
19921W        W62912  31.044  21.766  21.923  0.1951 -0.1346 -0.0043
19922W        W62913  24.901  17.894   6.523  0.0310 -0.2173 -0.3648
19923W        W62914   3.336  34.344   4.636  0.0961 -0.2941  0.1470
19924W        W62915  21.337   0.656  18.652 -0.0230  0.2439  0.1326
19925W        W62916  17.462  25.010   3.349  0.1102 -0.2543  0.0405
19926W        W62917  24.549  15.304  26.295  0.5391 -0.3242 -0.0773
19927W        W62918   5.389  34.611  20.093 -0.0273 -0.6080 -0.0419
19928W        W62919  18.498  20.222  13.370  0.0783 -0.0880  0.0448
19929W        W62920  31.039  23.034  14.935  0.0873  0.1772  0.1123
19930W        W62921  29.730   6.462   9.740  0.0910 -0.1098 -0.1896
19931W        W62922  28.933  17.857  19.023  0.1212 -0.0351  0.0712
19932W        W62923   2.666   0.886  27.582 -0.3648  0.2085  0.0930
19933W        W62924  22.662  33.961  28.919  0.0884  0.2009 -0.1198
19934W        W62925   0.309   7.637  19.662  0.2628 -0.2532  0.1709
19935W        W62926   7.645  19.762  22.736  0.0038  0.2220 -0.0227
19936W        W62927   0.628  15.311  27.170 -0.1539  0.1456  0.0768
19937W        W62928  16.614  28.556  18.350  0.4148  0.0409 -0.0117
19938W        W62929   2.433  15.305  27.666 -0.1847  0.1082 -0.1877
19939W        W62930   8.481  12.047  24.298  0.1195 -0.2454 -0.1373
19940W        W62931  32.960  28.763  13.674  0.0266  0.0318 -0.1060
19941W        W62932  19.723   8.988   1.289  0.2475  0.0389 -0.4532
19942W        W62933   7.188   7.505  20.822 -0.1132  0.0375  0.0533
19943W        W62934  34.414  22.679  26.843 -0.3965  0.0493  0.2483
19944W        W62935   9.425   5.856  26.608  0.0275 -0.0427  0.4172
19945W        W62936  26.864  17.914  23.176  0.2716 -0.0326 -0.2373
19946W        W62937  27.651  15.434  24.966  0.2386 -0.2348 -0.1629
19947W        W62938   4.666  10.874   7.331  0.3117  0.1704  0.1682
19948W        W62939  26.275  23.130   7.073 -0.0518  0.0791 -0.0124
19949W        W62940  28.117  14.429  26.387  0.0808  0.3838  0.0557
19950W        W62941   1.658  23.802   4.180 -0.0271  0.0817 -0.1636
19951W        W62942  31.921  19.635  19.880 -0.2627  0.0872 -0.0828
19952W        W62943  30.618  29.235  19.726  0.0925  0.0523  0.0644
19953W        W62944  25.114  19.533  20.353 -0.1354 -0.0326 -0.1307
19954W        W62945  25.821   5.677   1.826  0.0655 -0.3323  0.0303
19955W        W62946  25.391   2.040  22.371  0.0237 -0.0075  0.4359
19956W        W62947  32.960  12.038  18.448  0.0129 -0.0159 -0.0823
19957W        W62948  29.729   5.123  14.468  0.3338 -0.0733 -0.4976
19958W        W62949  22.331  15.120  18.108  0.2711 -0.0305 -0.2043
19959W        W62950  31.532   4.615  21.684  0.0230  0.1746 -0.3127
19960W        W62951   4.021  12.257  26.385 -0.3150 -0.0336 -0.2022
19961W        W62952  28.039  13.750  18.350 -0.1562 -0.0025  0.0979
19962W        W62953  32.017   9.325   9.890  0.0925  0.0021 -0.2292
19963W        W62954   5.703  15.940  27.701 -0.0733  0.0791  0.1332
19964W        W62955  25.556  29.220  13.552 -0.1721  0.2232  0.3811
19965W        W62956  12.304  32.384  16.781 -0.3531  0.1826  0.2022
19966W        W62957  13.771  24.519  19.052  0.0743  0.3619  0.3767
19967W        W62958  30.489  16.553   0.600  0.0539  0.0094  0.3205
19968W        W62959  29.019  22.221  16.642 -0.0434  0.3601  0.2002
19969W        W62960  11.874  26.423  13.928  0.1837 -0.1050 -0.1138
19970W        W62961  28.281  14.301  24.082 -0.2321  0.1295 -0.0055
19971W        W62962  26.994  34.641  19.977  0.2533  0.1594  0.2912
19972W        W62963  22.991  17.945   2.028 -0.5034  0.1273 -0.1457
19973W        W62964   3.354  11.425   3.794  0.0717  0.1509 -0.1355
19974W        W62965  13.529   3.825   1.533  0.1717 -0.3826  0.0256
19975W        W62966  27.536  16.481   8.250  0.0503 -0.0969  0.2064
19976W        W62967   4.799   5.134  22.266  0.1206  0.4491  0.0787
19977W        W62968  15.440  10.148  20.973 -0.1043  0.3328 -0.2259
19978W        W62969  18.352   0.199  23.359 -0.3638 -0.0867 -0.4457
19979W        W62970  18.964  26.571  22.618 -0.3605  0.2567  0.0683
19980W        W62971  30.517  33.322  24.039  0.4012 -0.0292  0.0753
19981W        W62972   6.754  11.939  26.458 -0.1108 -0.1425  0.0976
19982W        W62973  13.137   0.742  27.224 -0.0271  0.0605  0.0127
19983W        W62974  32.666  21.341  21.223  0.0063 -0.1556  0.0000
19984W        W62975  33.683  32.466  14.595  0.2783 -0.2684  0.3323
19985W        W62976  23.643   7.298  16.568  0.0771  0.1373 -0.4358
19986W        W62977   0.056  24.867  26.686  0.0733  0.0416 -0.2721
19987W        W62978  23.888  25.834  13.639  0.1312 -0.2630 -0.0533
19988W        W62979  25.701   9.321  18.142 -0.2074 -0.0884  0.0769
19989W        W62980  16.179  10.754  24.828 -0.3326  0.0628 -0.2273
19990W        W62981   4.563   7.775  21.283 -0.2105 -0.1728  0.1361
19991W        W62982  30.883  17.080  18.100  0.1370 -0.2278 -0.2115
19992W        W62983  31.431  21.971   2.927  0.0225  0.3953  0.3025
19993W        W62984  14.187  14.068  18.256 -0.4219  0.1647  0.0188
19994W        W62985  24.324  24.047  28.560 -0.1104 -0.0313 -0.2901
19995W        W62986   7.054   0.500  23.247  0.0175  0.2092  0.1723
19996W        W62987  19.671  21.904  23.537 -0.0313  0.3679  0.2834
19997W        W62988  23.798  15.580  21.226  0.4692 -0.1168  0.0706
19998W        W62989  14.954  19.272  17.170  0.1442 -0.0853  0.2568
19999W        W62990   9.975  16.588  17.972  0.1603 -0.4309 -0.1599
20000W        W62991   5.390   5.811  20.448  0.1894  0.2213 -0.0339
20001W        W62992  32.960  24.426  20.264 -0.5046  0.3568 -0.0925
20002W        W62993  34.283  15.774  20.597 -0.1669  0.2472  0.0406
20003W        W62994   7.625   3.014  16.631 -0.2552 -0.2459  0.0647
20004W        W62995  24.511  19.455   0.855  0.0358  0.0970  0.2346
20005W        W62996  12.474  15.541  18.610  0.0567  0.0302  0.1019
20006W        W62997  32.022   8.039  23.559 -0.0726 -0.0018 -0.1203
20007W        W62998  23.375   1.720  21.195 -0.3355  0.2948 -0.0196
20008W        W62999  24.323   2.555  22.014  0.2017 -0.0386 -0.2878
20009W        W63000   0.393  29.650  21.092  0.3238  0.0965 -0.0378
20010W        W63001  29.084  26.544  27.653 -0.1045 -0.0101  0.1298
20011W        W63002   7.344   8.519   1.161  0.3895 -0.1679 -0.1085
20012W        W63003   2.743  21.190  18.224 -0.0155  0.0283 -0.1058
20013W        W63004  32.722  15.691   3.674 -0.4021  0.0448 -0.1974
20014W        W63005  31.591   9.253  16.134 -0.1983 -0.0661  0.1683
20015W        W63006  32.627  28.156  19.736 -0.0151 -0.1085  0.0388
20016W        W63007   2.435  28.885  16.352 -0.0244 -0.2018  0.0165
20017W        W63008  28.662  19.210  25.354 -0.0837 -0.1475 -0.0479
20018W        W63009  11.728  18.525  16.114  0.3688  0.1200  0.3904
20019W        W63010  29.279  12.647  24.486 -0.2957  0.0223 -0.0758
20020W        W63011   5.332   8.617  17.215  0.1788  0.1140 -0.1596
20021W        W63012  15.796  10.877  21.682  0.0839  0.1211  0.0155
20022W        W63013  21.839  18.314  14.187 -0.1126 -0.1283 -0.0004
20023W        W63014  24.014   6.785  15.540  0.3298  0.2822  0.0998
20024W        W63015   5.977  13.527  16.462 -0.1330  0.0728  0.0719
20025W        W63016  26.765  26.818  24.499 -0.0359  0.1949 -0.3250
20026W        W63017   9.962  13.072  23.101 -0.1716  0.0410  0.3503
20027W        W63018  15.033  12.577  16.220 -0.3818  0.2542 -0.3551
20028W        W63019  21.002  14.769  26.236 -0.2666 -0.0568  0.0009
20029W        W63020  17.286   6.467  18.909 -0.2648  0.0396  0.1223
20030W        W63021  25.877  10.290  23.199 -0.0172  0.0794 -0.1381
20031W        W63022  28.181  22.942  14.297 -0.1551 -0.1810  0.1765
20032W        W63023  19.617  12.894  13.694 -0.0049 -0.1587  0.0289
20033W        W63024   0.811  31.247   1.930 -0.1402  0.0780  0.0900
20034W        W63025  16.998   8.806  23.797  0.2194  0.3417 -0.2090
20035W        W63026  22.993   0.778  17.837 -0.0989 -0.2219 -0.2529
20036W        W63027  30.084  31.981  19.358  0.1831  0.0603 -0.1794
20037W        W63028  29.908  32.939  12.534  0.2463 -0.2782 -0.2742
20038W        W63029  28.269  19.310  22.873 -0.0420 -0.2780 -0.2213
20039W        W63030   4.700  12.425  29.102  0.1580 -0.0923  0.3070
20040W        W63031   0.641  14.148  26.392  0.2010  0.0840 -0.1569
20041W        W63032  31.322  26.925  20.928 -0.0333  0.1933 -0.2542
20042W        W63033   6.314   7.602  20.738  0.2392  0.0079  0.0523
20043W        W63034   1.555   1.271   5.585 -0.3306  0.2357 -0.0760
20044W        W63035  28.697   4.607  26.228 -0.2200  0.1265  0.1735
20045W        W63036  13.275  27.410  16.038 -0.3997 -0.1326  0.0093
20046W        W63037  27.105  15.559   3.165 -0.1226 -0.3199  0.0159
20047W        W63038  33.601  29.661   0.089 -0.0715  0.0646  0.2244
20048W        W63039  20.200   6.691  27.032  0.2615  0.2478  0.0450
20049W        W63040  32.342   6.865  22.711  0.3116 -0.1394 -0.1294
20050W        W63041  25.275   1.599   5.705  0.3195 -0.0939  0.2825
20051W        W63042  34.515  26.133  14.281  0.0483  0.1539  0.2521
20052W        W63043  21.004  14.518  22.855 -0.1363 -0.1249 -0.0103
20053W        W63044  11.242  18.739  27.541  0.0985 -0.2816  0.0842
20054W        W63045  11.107   8.545  19.236 -0.2432 -0.0309 -0.1804
20055W        W63046  25.729  32.058  18.188  0.1586 -0.1444  0.1714
20056W        W63047  10.843  27.103  15.118  0.0509 -0.0797 -0.0229
20057W        W63048  28.792  29.257  16.646 -0.0942  0.0670  0.3975
20058W        W63049  33.840  23.611  26.114  0.0426  0.0423 -0.0095
20059W        W63050   9.368  28.103  23.999  0.1528  0.0071 -0.0299
20060W        W63051  34.556  27.485  14.122 -0.0649  0.0326 -0.0133
20061W        W63052  22.734   7.887  27.206  0.0505 -0.2071 -0.2541
20062W        W63053   3.565  17.445   0.942  0.0386 -0.0932  0.1705
20063W        W63054   9.145   9.157   9.388  0.2585  0.1592 -0.0418
20064W        W63055  30.282  24.104  20.223  0.1081 -0.1320 -0.3903
20065W        W63056  33.642  13.426  18.304 -0.1698  0.1122 -0.1224
20066W        W63057  31.088  27.633  18.085 -0.1178 -0.0631  0.2640
20067W        W63058   2.289  19.304  22.165 -0.1410  0.1949  0.0287
20068W        W63059  27.155  11.446  16.160 -0.0065 -0.4189 -0.0302
20069W        W63060   9.593  17.146  14.525 -0.0691 -0.0956 -0.0859
20070W        W63061  29.221   3.839  18.855  0.0877 -0.1946  0.1081
20071W        W63062  28.024  11.426  15.869 -0.1437  0.2003 -0.0303
20072W        W63063  26.536  11.558  19.391  0.0147 -0.0371 -0.0738
20073W        W63064  27.428   0.170  16.492  0.2677  0.1043 -0.0119
20074W        W63065   0.111  13.065  24.225  0.2401 -0.3181 -0.1694
20075W        W63066  11.318  30.194  15.568  0.1884 -0.1299  0.0649
20076W        W63067  28.260  12.708  15.513 -0.1378 -0.1063 -0.2494
20077W        W63068  32.121  15.862  19.252  0.2012  0.0288 -0.0876
20078W        W63069   2.698  20.743  21.988 -0.2671 -0.1218 -0.0504
20079W        W63070  25.700  29.138   7.474 -0.1456 -0.3943  0.0612
20080W        W63071  25.801  11.631  13.987 -0.0982  0.5061 -0.1631
20081W        W63072  20.899  10.137  17.010  0.0164 -0.1351  0.0450
20082W        W63073  11.264  15.807  24.593  0.0885  0.1054  0.4225
20083W        W63074  22.932  12.023   6.973 -0.0255 -0.0917 -0.3652
20084W        W63075  21.111   7.976  14.563  0.4233 -0.4323 -0.1286
20085W        W63076  20.220  14.624   1.718  0.3736 -0.2609  0.0728
20086W        W63077  34.319  16.946  24.797 -0.2308 -0.1051  0.3252
20087W        W63078  28.624  18.390  22.447  0.1067  0.2241 -0.2063
20088W        W63079  17.233  13.013  24.769 -0.1393  0.0684 -0.0413
20089W        W63080  18.757   2.901  21.383 -0.0117 -0.0785  0.2016
20090W        W63081   4.512  14.382  26.394  0.0792  0.0946  0.0529
20091W        W63082  24.442   9.270  13.852  0.1700 -0.0664 -0.3215
20092W        W63083  15.440  11.117  17.865 -0.0775 -0.0474  0.0039
20093W        W63084  30.361  17.033  15.351 -0.1898 -0.2365  0.1551
20094W        W63085  31.036   8.015  23.238  0.2362 -0.3466 -0.1158
20095W        W63086  10.264  10.689  17.188 -0.1737  0.0206  0.1116
20096W        W63087  30.583  11.224  19.273  0.0333  0.0701 -0.3554
20097W        W63088  22.898  11.760   2.612  0.0618  0.2585  0.1087
20098W        W63089  28.389  21.466  25.331 -0.0826  0.2965 -0.2087
20099W        W63090   7.903  16.895  25.231  0.0768  0.2809 -0.0993
20100W        W63091  17.049  12.699   1.454  0.3331  0.1979 -0.1658
20101W        W63092  11.631   4.431  22.581 -0.2028  0.0794 -0.1811
20102W        W63093  14.499  18.008   2.187 -0.0823  0.1492  0.1683
20103W        W63094  22.708  20.024  15.656 -0.0985 -0.1292  0.2044
20104W        W63095  31.753  16.879   7.411 -0.1443  0.2772  0.0923
20105W        W63096  15.368  20.518  13.904  0.0698 -0.1736  0.0299
20106W        W63097   9.865  17.951  20.048 -0.0302 -0.0892  0.0248
20107W        W63098  26.938  34.129  23.827  0.2364  0.1252  0.4969
20108W        W63099  29.607  28.349  12.742 -0.3544  0.3010 -0.0776
20109W        W63100  23.662  18.064  18.145  0.0067 -0.0407  0.0872
20110W        W63101   9.221  16.269  20.116  0.0446 -0.0838 -0.1633
20111W        W63102  34.354  10.514  28.713  0.0006 -0.2737  0.1667
20112W        W63103  19.169  16.234   0.015  0.0518 -0.2673  0.3446
20113W        W63104   2.640  27.698  14.396 -0.1340 -0.1787 -0.3530
20114W        W63105  21.600  13.845  18.684 -0.0139  0.2173 -0.0012
20115W        W63106  24.776   8.048  22.881  0.0674 -0.2602 -0.2656
20116W        W63107  31.140  12.842  18.872  0.0897 -0.1360 -0.2094
20117W        W63108  25.744  12.336  26.603  0.0730  0.0445 -0.0946
20118W        W63109  19.514  10.364  26.944  0.2998 -0.2226  0.3615
20119W        W63110  25.042  13.791  26.550  0.1071  0.3699  0.0874
20120W        W63111  28.525  16.785  25.083 -0.0491  0.1392  0.0292
20121W        W63112  17.764  19.527  14.769  0.1750  0.2174  0.0723
20122W        W63113  30.929  28.345   3.352 -0.0138  0.3244 -0.1906
20123W        W63114  28.788   8.814   1.339 -0.0233 -0.0318 -0.0104
20124W        W63115  33.754  20.072  14.675 -0.0087 -0.2007 -0.0868
20125W        W63116  21.342  34.214   1.638 -0.0549 -0.0540 -0.2510
20126W        W63117   1.674   9.538  21.276 -0.1625 -0.0660  0.2057
20127W        W63118  13.880   4.167  22.838 -0.1311  0.1439  0.0680
20128W        W63119  25.153   3.819  15.295 -0.0303  0.1319 -0.1308
20129W        W63120  27.898  11.600  20.884  0.2245 -0.1392  0.0942
20130W        W63121  27.207  10.290  17.366  0.0207 -0.1802 -0.0092
20131W        W63122  18.251  12.922  15.131  0.2865  0.1382  0.1425
20132W        W63123  22.906  29.834  20.168 -0.0387 -0.3126  0.3337
20133W        W63124   8.112  32.948  28.006  0.0353 -0.0059  0.0481
20134W        W63125   5.843  27.720  26.828  0.1448 -0.1322 -0.4233
20135W        W63126  24.437  12.878   5.878  0.0842 -0.0151  0.4931
20136W        W63127  18.797  10.447  14.255  0.1402 -0.1788 -0.2794
20137W        W63128  29.090   3.449   0.970 -0.0889  0.1570  0.0147
20138W        W63129  25.734   1.623  20.450 -0.0301  0.1560 -0.2765
20139W        W63130  19.565  22.993   7.222 -0.3449  0.0214 -0.3172
20140W        W63131  32.240  18.062  28.849 -0.0522  0.0616  0.2252
20141W        W63132   9.678   8.885  25.404  0.1581  0.3543  0.0909
20142W        W63133  18.153  24.681  19.362  0.1578  0.1447 -0.0297
20143W        W63134   4.230  31.321   8.061  0.0071  0.1872 -0.0002
20144W        W63135   2.198  11.305  24.398 -0.2374  0.2783  0.1497
20145W        W63136   4.024  15.416  23.805 -0.1149 -0.1321  0.1430
20146W        W63137  26.294  15.668  28.910 -0.3217  0.0914 -0.0959
20147W        W63138  18.081   5.713  22.180 -0.2962 -0.1025 -0.1776
20148W        W63139   1.266  19.671   4.129  0.3697 -0.1285 -0.0669
20149W        W63140  20.882  16.250  16.720 -0.1598 -0.1154 -0.2104
20150W        W63141   9.190  13.635  16.846 -0.1793 -0.0716  0.3511
20151W        W63142  21.682  17.343  27.336  0.3357  0.2401  0.0614
20152W        W63143  19.390   9.024   8.238 -0.0429 -0.1293 -0.0951
20153W        W63144   5.598  13.764  20.592  0.1151  0.1765 -0.1809
20154W        W63145  26.178  15.423  27.644  0.1044 -0.2018  0.0862
20155W        W63146  28.628  34.702  13.198  0.0605  0.1630  0.0190
20156W        W63147   3.263  22.165  15.397  0.2743 -0.2135 -0.1089
20157W        W63148  27.589  23.622  21.360  0.0428 -0.1047  0.0173
20158W        W63149  28.629  12.411  14.983 -0.1950  0.0604  0.2328
20159W        W63150  19.931  11.595  25.936  0.2503  0.1876 -0.2042
20160W        W63151  33.893   1.890  22.341  0.1098  0.1849  0.1177
20161W        W63152   0.383  10.993  27.407  0.2060  0.0933 -0.1688
20162W        W63153  32.010  34.087  25.055  0.3819 -0.2140 -0.2773
20163W        W63154  20.729   6.494   2.533 -0.3586  0.1540  0.0988
20164W        W63155  33.222  19.312  19.970  0.0974  0.0502 -0.2921
20165W        W63156  16.422   3.115  18.990 -0.2096  0.0534 -0.0198
20166W        W63157  20.971  16.989  25.400  0.3926 -0.4773  0.0434
20167W        W63158  30.045   8.962   2.207  0.2332  0.0233 -0.0242
20168W        W63159  23.802  13.664  25.226  0.0534 -0.1695  0.0663
20169W        W63160   2.470   9.430  22.713 -0.0193  0.0481 -0.2782
20170W        W63161  28.458   3.184   5.690 -0.0996  0.3747 -0.1371
20171W        W63162   1.878   9.854  17.461 -0.0816  0.5551 -0.0702
20172W        W63163  27.431  31.787  13.091  0.1135 -0.1455  0.0759
20173W        W63164  24.183  27.652  22.087 -0.0082 -0.1158  0.0068
20174W        W63165  31.115  18.360  27.376  0.0495 -0.2347 -0.3455
20175W        W63166  23.038   7.662  14.499 -0.2334  0.2936  0.3683
20176W        W63167   1.259  15.507  21.015 -0.2338  0.4540  0.1613
20177W        W63168  20.912  17.490  27.430  0.5398 -0.0250 -0.1009
20178W        W63169  10.621   1.320  26.715  0.0524  0.1861 -0.1223
20179W        W63170  15.371  33.287  18.401  0.1099 -0.3631 -0.0714
20180W        W63171  11.333  22.441  15.591  0.1617  0.1752 -0.2565
20181W        W63172  33.460   8.361   3.058 -0.1011 -0.0326  0.2727
20182W        W63173   0.533  16.118   2.580  0.2669  0.3059  0.2033
20183W        W63174  21.587  30.508   3.189  0.3369  0.2331 -0.0257
20184W        W63175  27.885  26.704  20.189  0.1612 -0.2130 -0.2524
20185W        W63176  24.760  14.458  24.732  0.1922 -0.4526  0.0532
20186W        W63177   3.803  24.949  22.283  0.1178  0.3179 -0.0989
20187W        W63178  19.404   5.255   0.649  0.1007 -0.2062  0.0687
20188W        W63179  29.275  10.625   2.807 -0.0482  0.1629  0.1000
20189W        W63180   7.788  19.072  26.210 -0.1412 -0.2316 -0.2201
20190W        W63181  25.309  12.365  23.765 -0.1092  0.0955 -0.4319
20191W        W63182  21.559  19.045  20.035 -0.3422  0.1791 -0.1999
20192W        W63183  18.085  23.412  17.955  0.0734  0.1567  0.1370
20193W        W63184  29.121   9.307  27.480 -0.0034  0.0442 -0.0070
20194W        W63185   0.501  21.110  28.050 -0.1510  0.1201  0.2026
20195W        W63186  19.518  30.614   4.335  0.1670 -0.1279 -0.0912
20196W        W63187  12.518  25.653  19.052 -0.3330 -0.3733  0.0366
20197W        W63188  30.353  13.747  21.357  0.0591 -0.0712 -0.1125
20198W        W63189  29.695  14.877  24.866  0.0625 -0.0416  0.2059
20199W        W63190  25.108   7.047  22.950 -0.1459 -0.0576  0.2315
20200W        W63191  28.873  19.885  22.133 -0.0121  0.3357 -0.1305
20201W        W63192  20.342   4.557   3.427  0.0755  0.1889  0.3554
20202W        W63193  22.280   7.868  29.181 -0.1743 -0.0626 -0.3030
20203W        W63194  17.523  25.464   3.447 -0.1846 -0.0577 -0.2360
20204W        W63195  32.612  15.112  22.109 -0.3213 -0.0212  0.3793
20205W        W63196  26.484  29.391  20.147  0.0911 -0.0866  0.1302
20206W        W63197  31.211  19.230   5.433  0.1935  0.1519 -0.0877
20207W        W63198  18.648  11.832  28.495  0.1062  0.0543 -0.0562
20208W        W63199  27.430  22.504  14.540  0.1699  0.2029 -0.2677
20209W        W63200  33.533  16.970   3.906 -0.1481 -0.0192 -0.1645
20210W        W63201  19.639   6.713  14.348 -0.0160 -0.1552  0.0538
20211W        W63202  30.869  10.370  27.489 -0.1750 -0.1585 -0.2077
20212W        W63203  32.975  13.710  24.140 -0.1341 -0.0881 -0.1342
20213W        W63204  23.790  16.125   8.627 -0.0329 -0.0515 -0.0775
20214W        W63205  22.371   2.568  17.397  0.0251  0.2457 -0.0412
20215W        W63206  21.620   9.161   4.589  0.0079 -0.1565  0.0315
20216W        W63207   5.334  15.185   6.290  0.3801 -0.2463 -0.3811
20217W        W63208  12.393  14.347  14.825  0.1463  0.1315 -0.1140
20218W        W63209  34.625   3.210   1.010  0.0635 -0.0921 -0.1392
20219W        W63210  22.455  13.308  16.506  0.2947 -0.0426 -0.5311
20220W        W63211  28.453  11.517  14.586  0.3297  0.3383 -0.0253
20221W        W63212  19.847  21.079   6.011 -0.1412 -0.1566  0.0292
20222W        W63213  16.384   9.853  23.965 -0.0161 -0.4243 -0.1532
20223W        W63214  31.031   5.305  23.307 -0.0056 -0.1148 -0.0471
20224W        W63215  11.310  11.064  16.537 -0.0242 -0.1296 -0.0394
20225W        W63216  27.871  34.330  23.590  0.0674  0.3563 -0.1798
20226W        W63217   3.361  18.355  25.110 -0.0496 -0.1404 -0.2085
20227W        W63218  11.364  16.538  21.272 -0.2102 -0.0486  0.0611
20228W        W63219  28.595  12.860   0.697  0.1919  0.1011  0.2511
20229W        W63220  21.345  11.860   7.067 -0.0665 -0.2652  0.1015
20230W        W63221  26.044  26.654   0.557 -0.0833  0.5171 -0.0294
20231W        W63222  16.347  17.331   5.671  0.1083  0.2634  0.1680
20232W        W63223  34.151   7.415   4.317  0.1197  0.0903  0.0536
20233W        W63224  18.991  33.593  28.371 -0.2949  0.3806 -0.1792
20234W        W63225  33.014  31.807  25.450  0.1907 -0.1741 -0.1160
20235W        W63226  10.627  20.278  19.785  0.0274 -0.1330  0.0000
20236W        W63227  20.716  23.846  17.820 -0.1324 -0.3672 -0.0489
20237W        W63228  16.620  20.023  12.000  0.0282 -0.0864 -0.1167
20238W        W63229   6.580   0.291  16.922  0.3065 -0.2872  0.0703
20239W        W63230   2.310  12.331  24.151 -0.0164  0.0089  0.3080
20240W        W63231  19.094  10.741  10.089  0.1308 -0.1780  0.1500
20241W        W63232  29.742  18.309   4.945  0.0352 -0.0473  0.0515
20242W        W63233   1.872   3.056  17.673 -0.0578  0.1143 -0.1114
20243W        W63234  19.894  24.219  25.884  0.1897  0.3044  0.1203
20244W        W63235  24.545  20.213   8.432 -0.0059  0.0911 -0.0893
20245W        W63236   0.627   9.376  27.648  0.0090  0.3526  0.1327
20246W        W63237  15.646   0.840  24.571  0.0733  0.1284  0.0192
20247W        W63238  34.543  17.692   4.458  0.2901 -0.2382 -0.0551
20248W        W63239  25.744  27.096  19.027 -0.2237  0.0668 -0.1986
20249W        W63240  27.360   7.247  15.170 -0.1288  0.1645 -0.1390
20250W        W63241  34.208   0.120  28.371 -0.0648 -0.2091 -0.3093
20251W        W63242  24.748  20.568   3.615 -0.0121 -0.0452 -0.1751
20252W        W63243  27.796  20.685  26.141 -0.0509  0.3486 -0.0683
20253W        W63244  22.869  29.466  28.911  0.3103  0.0501  0.0565
20254W        W63245   9.365   8.297   5.550  0.1314  0.0418 -0.5086
20255W        W63246  19.936  33.752  24.928  0.1682  0.0322 -0.3499
20256W        W63247  27.908  20.445  13.937  0.0914  0.0831  0.2729
20257W        W63248  25.565   5.492   4.077  0.1609 -0.2962 -0.1345
20258W        W63249  25.346  17.633  19.180 -0.1105 -0.3891 -0.2445
20259W        W63250   5.868  18.563  27.222  0.2868 -0.1797 -0.4445
20260W        W63251  19.485  23.311  15.596 -0.2391 -0.4300 -0.0984
20261W        W63252  30.881   0.559  20.702 -0.3454  0.0319 -0.1004
20262W        W63253   0.908  15.503   5.546 -0.4327  0.2309 -0.0031
20263W        W63254  26.592  22.296  27.275  0.2155 -0.0181  0.3574
20264W        W63255  32.301  18.211  20.135  0.2138 -0.2070 -0.1502
20265W        W63256   5.246  18.849  18.485 -0.4582  0.1651  0.3200
20266W        W63257   8.689   9.249   7.039  0.1844 -0.2974  0.1523
20267W        W63258  10.652   0.006  10.291 -0.0660  0.0498  0.2231
20268W        W63259   8.427  10.679  27.181  0.1825 -0.1406  0.0016
20269W        W63260  27.447   4.925  17.044  0.2038 -0.3048  0.4658
20270W        W63261  29.055  13.736  15.466 -0.0677  0.1505 -0.0418
20271W        W63262  26.885   8.271   5.370 -0.1621  0.0446  0.1794
20272W        W63263  15.783  11.436  28.800 -0.0961  0.2400 -0.1583
20273W        W63264  23.691  17.527  19.069  0.1859  0.0211  0.1204
20274W        W63265   0.109  30.245  26.009  0.6251 -0.2815 -0.1328
20275W        W63266   0.822  29.215  17.249  0.0361  0.3348 -0.1775
20276W        W63267  26.239  10.323  15.822  0.2277  0.1677 -0.2099
20277W        W63268  28.613  17.809   9.120  0.2820  0.1934 -0.1987
20278W        W63269  29.367  19.853   6.408  0.1534 -0.0635 -0.1070
20279W        W63270  24.092  28.410   2.904 -0.3301  0.2090 -0.0254
20280W        W63271  20.562  25.167  18.427 -0.5354  0.1302 -0.0903
20281W        W63272  34.385  16.584  23.348 -0.0043 -0.0493 -0.1800
20282W        W63273  15.323  25.257  26.599  0.0762 -0.0646 -0.0383
20283W        W63274  24.440  25.762  16.189  0.5078  0.0525  0.0867
20284W        W63275  13.848  19.333   0.184 -0.1463 -0.3159  0.3142
20285W        W63276  30.242  26.909  28.128 -0.1160  0.0050 -0.2234
20286W        W63277  21.087  23.636   3.394 -0.2941 -0.0537  0.0006
20287W        W63278  33.541  21.958  22.722 -0.1049 -0.0351 -0.0601
20288W        W63279   0.581   1.194  21.671  0.3573 -0.0211  0.0001
20289W        W63280  26.123   8.519  16.201 -0.0780  0.0995 -0.0084
20290W        W63281  26.369   2.864  16.058 -0.2474  0.2624 -0.0151
20291W        W63282  17.811  10.027  14.091 -0.0194 -0.1577  0.0831
20292W        W63283  22.019  28.321   7.502 -0.1553 -0.2169 -0.1665
20293W        W63284  25.060  30.545  22.419  0.1032 -0.0622 -0.1079
20294W        W63285  11.506  30.626   0.792  0.3243  0.0245 -0.2245
20295W        W63286  18.426  12.097  19.515 -0.1993  0.3231 -0.1437
20296W        W63287  21.148  14.793  27.752  0.3801 -0.0431 -0.1061
20297W        W63288   0.077   8.389   8.063  0.1599  0.2654  0.0719
20298W        W63289  14.134  10.639  20.013  0.0469  0.0577 -0.1752
20299W        W63290  29.362  20.750  25.120  0.0276  0.2768 -0.1279
20300W        W63291  26.716  14.757  17.902  0.2921 -0.1784 -0.2719
20301W        W63292   2.555  13.991  24.039  0.0402  0.2150  0.3736
20302W        W63293  19.967  24.667  20.198 -0.2247 -0.1288 -0.0707
20303W        W63294  31.515  16.689  28.176 -0.1157 -0.0578  0.0028
20304W        W63295  19.213   2.879  17.374 -0.0997  0.0018 -0.0845
20305W        W63296  14.896  12.245   8.184 -0.1913  0.1072  0.3966
20306W        W63297  23.053  32.739  19.988  0.1509  0.0424 -0.0912
20307W        W63298  25.240   7.151  17.889 -0.1226  0.0222  0.0937
20308W        W63299  21.056  12.023   9.409  0.1415 -0.0028  0.1167
20309W        W63300  25.004  18.196  14.067  0.2256 -0.0275  0.1404
20310W        W63301   3.930  17.204   1.567 -0.0958  0.3692  0.0740
20311W        W63302  28.029  16.670  17.387 -0.3663 -0.0114 -0.3449
20312W        W63303   6.672  26.222  16.297 -0.2296 -0.0422  0.2219
20313W        W63304  30.757  15.324  17.154 -0.2814  0.1426  0.5120
20314W        W63305  16.434   7.579  15.641  0.3092  0.2192  0.1056
20315W        W63306  14.047  22.664  22.441 -0.1770  0.1595 -0.1103
20316W        W63307  30.517   4.511   3.308 -0.0675  0.0474  0.0747
20317W        W63308   0.676   7.618   0.619 -0.2598 -0.2514  0.0626
20318W        W63309  19.477   0.730  25.341  0.1137 -0.0494  0.1144
20319W        W63310  24.630   2.832  15.116 -0.1420  0.0983 -0.1292
20320W        W63311  21.812  13.327  18.264  0.0522  0.1282  0.2503
20321W        W63312   0.020   0.110   0.793 -0.0883  0.2588 -0.0838
20322W        W63313  27.805  20.545  24.452 -0.3348 -0.1546 -0.1084
20323W        W63314   1.129  26.458   1.357 -0.2383 -0.0646 -0.0360
20324W        W63315  33.542  23.458  28.276  0.0457  0.1436 -0.3414
20325W        W63316  22.406   7.429  22.931 -0.1083 -0.4131 -0.0819
20326W        W63317  23.273  11.941  18.642 -0.2471  0.1476  0.0549
20327W        W63318  19.779  22.549  23.235 -0.1844  0.0902  0.1119
20328W        W63319   0.139   6.286  21.728  0.0953 -0.0663  0.2478
20329W        W63320  25.302   2.768   7.015 -0.2479 -0.0324 -0.1140
20330W        W63321  17.928  31.316  10.609 -0.0733 -0.2298 -0.0391
20331W        W63322  23.467   3.800   4.097 -0.5955 -0.1162  0.3749
20332W        W63323  23.338   6.463  27.754  0.0803 -0.1503  0.2899
20333W        W63324  22.249  16.096  14.670  0.0611 -0.4283  0.0607
20334W        W63325  33.001   7.726  20.976  0.1659  0.0541 -0.0343
20335W        W63326  26.054   8.371   5.951  0.1222 -0.2722 -0.1080
20336W        W63327  26.089   1.171  24.709 -0.0026  0.1852  0.0310
20337W        W63328  22.019   2.056  14.181  0.1702 -0.0845  0.4204
20338W        W63329  30.786  17.919  21.882  0.0495  0.4392  0.0438
20339W        W63330  33.589  21.368  27.883 -0.2052 -0.0403 -0.0053
20340W        W63331  11.444  21.299  21.625  0.2171 -0.0492 -0.1240
20341W        W63332  29.321  14.127   2.223  0.1731  0.1233 -0.1122
20342W        W63333  16.200   0.682  18.821 -0.0566  0.1593 -0.2009
20343W        W63334  23.956   8.316  23.985 -0.0600 -0.0270 -0.0782
20344W        W63335  21.929  11.332   8.771 -0.0130 -0.0066 -0.6524
20345W        W63336   1.199  20.849  20.403  0.0019  0.3915 -0.0104
20346W        W63337   7.709  33.300  23.602  0.2373 -0.0154 -0.3081
20347W        W63338  12.915  15.743  28.173 -0.2452 -0.0684  0.2255
20348W        W63339  22.494  21.965   7.934  0.2043 -0.1275  0.1872
20349W        W63340  17.360  29.934   4.842 -0.2076 -0.3462 -0.0815
20350W        W63341  21.502  31.297  21.660  0.0712 -0.1325  0.0797
20351W        W63342   5.511  12.409   0.752 -0.4006  0.1288  0.0075
20352W        W63343   2.636  27.051   2.800 -0.0292 -0.1879 -0.1409
20353W        W63344  26.307   9.909  27.405  0.0929  0.1539  0.0434
20354W        W63345  19.668   2.816  13.978  0.0538  0.1112 -0.0346
20355W        W63346  30.695   6.940   3.125  0.2196 -0.1405  0.2366
20356W        W63347  31.880  21.784   2.984 -0.1239  0.1540  0.1521
20357W        W63348  24.747  18.726  24.502  0.2851 -0.2921  0.1823
20358W        W63349  17.377   8.253   3.274  0.0782  0.1028  0.0181
20359W        W63350  27.048  17.634  17.349  0.3121 -0.1332  0.0070
20360W        W63351  13.842  14.034  16.586  0.0716 -0.0030 -0.2124
20361W        W63352   7.660  17.469  26.266  0.0591  0.1172 -0.1241
20362W        W63353  31.401  15.775  18.254 -0.1538  0.0989  0.3677
20363W        W63354   1.409   6.510  21.321 -0.3420 -0.1083  0.2158
20364W        W63355  32.207   5.945  27.266  0.1808  0.2559  0.0208
20365W        W63356  28.451   1.986  25.372  0.0976  0.1219  0.1593
20366W        W63357  19.777  11.515  13.403  0.2416  0.1359 -0.0887
20367W        W63358  22.772   3.119  16.858  0.1286  0.3018  0.1325
20368W        W63359  31.358  25.187  28.163  0.0896 -0.0325 -0.0024
20369W        W63360   2.523  28.374  20.153 -0.1093 -0.2158 -0.3248
20370W        W63361  26.703  31.337   7.877 -0.0804 -0.0802 -0.2549
20371W        W63362  23.249  16.122  22.780  0.0417  0.0136  0.4159
20372W        W63363  26.970  18.907   8.017  0.0928  0.2007  0.1193
20373W        W63364   3.368  11.928  15.795  0.0783  0.1214 -0.1563
20374W        W63365  25.862  10.121  17.350 -0.0825 -0.4855  0.0266
20375W        W63366  27.846  12.825  15.044 -0.2340 -0.2763  0.1539
20376W        W63367   7.113  20.263   4.553 -0.4284  0.0759 -0.0172
20377W        W63368  25.434  10.180  20.410  0.1388  0.0173 -0.0328
20378W        W63369  10.213  13.033  28.468 -0.0290  0.1353 -0.2544
20379W        W63370  26.248  11.095  20.724  0.0105  0.1655  0.1565
20380W        W63371  18.099   5.304  15.810  0.0368  0.2479 -0.0901
20381W        W63372  30.885  29.881  18.129  0.1037 -0.1106  0.3401
20382W        W63373  30.929  20.030  18.987 -0.0320 -0.2433  0.1499
20383W        W63374  10.412  15.012  23.011  0.3560 -0.0053 -0.6596
20384W        W63375   4.745  32.124   8.626  0.0985 -0.1150  0.2339
20385W        W63376  14.316  24.621   6.363  0.0767 -0.0057 -0.1217
20386W        W63377  22.916  14.985  25.665  0.1876 -0.2024  0.3663
20387W        W63378  21.147  21.611  27.570 -0.0612 -0.0471  0.0552
20388W        W63379   9.962   8.198  22.547  0.2321  0.0325  0.0037
20389W        W63380  32.464  16.817   1.998  0.2901  0.1234  0.0219
20390W        W63381  22.945  14.664  17.535  0.0805 -0.7771  0.0173
20391W        W63382  11.428  11.629  28.337  0.0194 -0.1359 -0.3693
20392W        W63383  29.273  10.175  14.742 -0.2797 -0.0097 -0.1094
20393W        W63384   3.125  15.117   2.923  0.0182 -0.3240 -0.0728
20394W        W63385  23.019  15.029  14.923  0.0080 -0.2326 -0.2692
20395W        W63386  14.089  25.357  27.048 -0.2516  0.1416 -0.0953
20396W        W63387  14.283   5.879   8.866 -0.3062 -0.1956  0.1446
20397W        W63388  29.220  15.881  22.563 -0.2452 -0.0620  0.1181
20398W        W63389  26.109   6.602  26.421 -0.1689  0.0507 -0.1872
20399W        W63390  26.321  18.312  10.380  0.1259 -0.3146 -0.3420
20400W        W63391   0.817  27.244  27.350 -0.0982 -0.0357  0.3004
20401W        W63392  17.880  11.361  14.291  0.0463 -0.0423  0.1097
20402W        W63393  16.888  32.614  23.829 -0.1632  0.0399 -0.0422
20403W        W63394  33.484  32.486  29.091 -0.0975  0.0311  0.2338
20404W        W63395  33.077  15.661  17.608 -0.1193  0.2260  0.0119
20405W        W63396  21.203  12.755  15.910 -0.2856 -0.2490 -0.1446
20406W        W63397  30.036   1.443   4.806  0.3667  0.0874 -0.1406
20407W        W63398   9.244  14.160  18.343  0.2180 -0.1756 -0.0715
20408W        W63399   6.783  12.384  26.745 -0.0317 -0.5294  0.0480
20409W        W63400   4.070  21.168   6.448 -0.1256  0.0044  0.1008
20410W        W63401  28.320   7.530  23.557 -0.2950  0.0393 -0.0767
20411W        W63402  26.176  28.224  22.200  0.0927 -0.1023 -0.0707
20412W        W63403  30.429  22.642  29.051  0.1200 -0.0999 -0.1146
20413W        W63404  21.373  12.629  16.316 -0.1311 -0.0177 -0.3207
20414W        W63405  10.248  22.914  15.267  0.0107  0.0052 -0.1326
20415W        W63406  22.191  25.516  20.280 -0.0912  0.2396  0.1639
20416W        W63407  28.700  20.124  24.401  0.2288 -0.1365 -0.0061
20417W        W63408   6.656   5.453   3.583 -0.3010  0.1150 -0.0783
20418W        W63409  13.156  15.795   1.408 -0.1119  0.3179  0.1411
20419W        W63410  17.114  14.517  15.920  0.0744  0.1106 -0.0801
20420W        W63411  22.045  15.837  19.018  0.0109 -0.0445 -0.0214
20421W        W63412  27.039  24.033  17.367  0.4224 -0.1400  0.2199
20422W        W63413  22.600   6.672   7.752 -0.0097  0.2705 -0.0834
20423W        W63414  33.403   9.060  21.066 -0.3864  0.0890  0.2278
20424W        W63415  33.868   1.454  19.609  0.0606 -0.0780  0.1827
20425W        W63416  22.359   2.002  24.963 -0.0828 -0.2103  0.0698
20426W        W63417  22.615   2.362  24.711  0.1064 -0.0907 -0.2844
20427W        W63418  31.196  13.477  28.197 -0.1953 -0.0101  0.1480
20428W        W63419  25.220   5.686   4.686  0.2908 -0.0232  0.5374
20429W        W63420  12.009  16.962  25.210 -0.0413  0.1522 -0.3928
20430W        W63421  28.472  11.149  23.715  0.1026  0.1224 -0.4315
20431W        W63422  24.612  18.965  17.410  0.2047  0.1067  0.2980
20432W        W63423  20.206  34.237  14.171  0.2902  0.2318  0.0487
20433W        W63424   1.641   3.950  15.757  0.2219 -0.2366 -0.1504
20434W        W63425  26.193  17.158  13.972  0.2123  0.0390 -0.1891
20435W        W63426  27.275  10.642  22.467 -0.0246  0.1929 -0.0336
20436W        W63427   1.498  14.473  17.316  0.1576  0.0551  0.2012
20437W        W63428  29.465  21.871  24.258  0.1269 -0.2598  0.1375
20438W        W63429   1.827  12.897  24.704  0.0434  0.2101  0.0424
20439W        W63430  12.623  15.024  28.192  0.3591  0.2159  0.2542
20440W        W63431  12.443  15.056  29.172  0.0467  0.2559 -0.3406
20441W        W63432  17.596  32.202  19.106  0.0635 -0.2163 -0.1635
20442W        W63433  23.889  26.601   5.391 -0.1412 -0.1215  0.1052
20443W        W63434  28.569   0.290  27.227 -0.2631 -0.0747 -0.0465
20444W        W63435  20.211  12.317  27.438  0.2149 -0.5257  0.0510
20445W        W63436   6.627  13.255   1.082  0.0799 -0.0304  0.0406
20446W        W63437   6.692  31.267   8.943 -0.1463  0.0186  0.1977
20447W        W63438   2.587  29.096  26.224 -0.1411 -0.0273  0.0401
20448W        W63439  22.322  10.308  17.153 -0.2219  0.1321 -0.1182
20449W        W63440  31.442  21.874   4.933  0.2373 -0.3578  0.2520
20450W        W63441   8.026   5.904  21.904  0.4719  0.0329  0.1892
20451W        W63442  31.713  24.197  18.434  0.1075  0.1350  0.0379
20452W        W63443  33.843   9.564  17.706  0.1993 -0.0587  0.0002
20453W        W63444  28.616  20.847  28.491  0.0854 -0.0293  0.0599
20454W        W63445   1.253   5.494  24.635  0.0166 -0.3691 -0.0459
20455W        W63446   4.204  32.210  16.590 -0.1445  0.2049 -0.1135
20456W        W63447  28.017  14.983  29.081  0.1037  0.1784 -0.0368
20457W        W63448  29.640  32.939  14.880  0.1703  0.2162  0.1028
20458W        W63449  30.997  10.268  20.391  0.0129 -0.0633 -0.0118
20459W        W63450  28.957  19.188  14.999  0.1462 -0.5636  0.2369
20460W        W63451  30.940  25.100  27.096  0.2546  0.1741  0.0431
20461W        W63452  25.290  25.228  27.240 -0.1344  0.0884 -0.1527
20462W        W63453  28.800  22.588  28.581  0.2476  0.0114  0.0773
20463W        W63454  13.723  19.374  12.481 -0.0395  0.0607  0.0342
20464W        W63455  21.789   9.498  16.703  0.1046 -0.1268  0.0535
20465W        W63456  21.421   6.581  22.105  0.1440 -0.1594  0.0290
20466W        W63457  15.286   9.443  21.459  0.3033  0.0451  0.2523
20467W        W63458   7.683   8.484  26.106 -0.0570 -0.1819 -0.1058
20468W        W63459  18.234  33.795   1.070  0.0710 -0.0704 -0.2628
20469W        W63460   1.421  12.028   1.517  0.1411 -0.1157 -0.0110
20470W        W63461  34.129   5.666  15.997 -0.2066 -0.1347 -0.3064
20471W        W63462  21.551   4.870   8.011 -0.0014 -0.0918  0.0167
20472W        W63463   0.507   2.293  17.449  0.2940  0.1270  0.1072
20473W        W63464  22.950  16.383  16.823  0.1365  0.0982 -0.2658
20474W        W63465  15.438  12.989  14.954  0.1306  0.0552 -0.2398
20475W        W63466  13.569   0.650   5.547  0.0754  0.2145  0.0658
20476W        W63467  33.958   9.183  21.313  0.1539  0.2099  0.2169
20477W        W63468  22.776   8.470  14.984  0.0966  0.0178  0.0595
20478W        W63469  24.840  24.679   5.061 -0.5622  0.2216 -0.0192
20479W        W63470  21.984   6.446  25.425 -0.2481 -0.1073  0.2361
20480W        W63471  32.692  27.705   1.247 -0.1034 -0.1165 -0.0326
20481W        W63472  29.195  26.376  24.578 -0.1283 -0.0524 -0.3051
20482W        W63473  18.705  22.720  23.855 -0.0250  0.2708  0.1343
20483W        W63474   2.014  21.768  24.929 -0.0229 -0.1266 -0.0958
20484W        W63475  24.444  24.657  18.733  0.3226 -0.3510  0.2112
20485W        W63476  15.012  16.477  28.268  0.2691  0.4173  0.3458
20486W        W63477  14.440  26.709  18.463  0.1994 -0.1335 -0.0799
20487W        W63478  24.733  18.968  27.997 -0.3047 -0.1761 -0.3039
20488W        W63479  30.459  13.491   5.337  0.2600  0.2327  0.1547
20489W        W63480  34.196   4.335  23.602 -0.0664 -0.1026 -0.1270
20490W        W63481  31.758  17.673  24.112  0.0305  0.2903 -0.0876
20491W        W63482   8.770   7.985   4.423 -0.2108  0.1583  0.0788
20492W        W63483  21.129  28.991   0.261 -0.2703  0.4182  0.1862
20493W        W63484  26.271  18.803  13.646 -0.2674 -0.0443 -0.1893
20494W        W63485   8.561   3.786  20.449 -0.0145 -0.0149 -0.1941
20495W        W63486   2.104  18.287  22.310 -0.2212  0.1210 -0.6196
20496W        W63487   3.967  19.973  15.602 -0.1374 -0.1083 -0.1319
20497W        W63488  32.187  13.499   8.325 -0.0645 -0.1172 -0.2603
20498W        W63489  29.790  11.236  17.478  0.0588 -0.2137 -0.1248
20499W        W63490  24.653  11.551  24.366  0.1529 -0.0472 -0.0467
20500W        W63491  34.419   5.330  22.662  0.3476  0.1952  0.1165
20501W        W63492  16.983   9.177  16.326 -0.3617  0.3051 -0.3210
20502W        W63493  25.084  22.490   8.330 -0.0549  0.1281 -0.0326
20503W        W63494   5.519   5.735   5.541  0.0932 -0.0104 -0.0139
20504W        W63495  23.982  14.911  24.334  0.4560  0.1361 -0.0259
20505W        W63496   0.920  26.395  19.390 -0.0891  0.0163 -0.0164
20506W        W63497  13.457   4.878   7.927 -0.1620  0.1040 -0.3513
20507W        W63498  33.974   6.388  18.756 -0.1649  0.0971 -0.2243
20508W        W63499  22.408   3.855  21.408  0.0193  0.1789 -0.0834
20509W        W63500  15.176  12.313  18.077  0.0124  0.1191  0.0259
20510W        W63501  33.120  13.603  29.231  0.1562  0.0497  0.0884
20511W        W63502  26.401  23.755  28.882 -0.1118  0.0855 -0.3549
20512W        W63503   8.270  10.853  29.225 -0.0019  0.4509  0.0580
20513W        W63504  34.341  19.921   1.087  0.1437  0.2083 -0.0494
20514W        W63505  18.848  33.488  27.901 -0.0324 -0.0003 -0.2994
20515W        W63506  11.930  22.671  21.003 -0.0335 -0.0871  0.1443
20516W        W63507  28.888   9.844   1.387 -0.5294  0.1551  0.3275
20517W        W63508  29.330   9.487  26.881 -0.0227  0.0157 -0.0102
20518W        W63509  16.914  24.600  28.706 -0.1252 -0.0397  0.5100
20519W        W63510  30.622  14.671  25.924 -0.0642  0.0527  0.0365
20520W        W63511  22.891   3.221  21.890  0.2398 -0.0635  0.3602
20521W        W63512   3.316  22.749  17.643 -0.3093 -0.0977 -0.0313
20522W        W63513  18.189   5.369  16.280 -0.1490  0.2224 -0.0428
20523W        W63514   9.704  14.490   3.008 -0.3025  0.0936 -0.1854
20524W        W63515  33.606   4.052   4.740 -0.1569  0.1914  0.0210
20525W        W63516  26.523  22.666  18.513  0.2185  0.4420  0.2411
20526W        W63517   6.202   1.355  20.842 -0.2577 -0.4181 -0.0011
20527W        W63518   3.696  25.557  21.418  0.0469 -0.0853 -0.2120
20528W        W63519   6.843  11.807   0.403  0.1804 -0.0220  0.2696
20529W        W63520  19.007  11.289  27.464 -0.3404  0.2233  0.2406
20530W        W63521   0.159   7.285  21.791 -0.1723 -0.0033  0.2573
20531W        W63522  19.843   1.022   0.497 -0.3577 -0.3121  0.2716
20532W        W63523   2.542  21.257  11.074  0.2409 -0.2440 -0.0436
20533W        W63524  27.512  23.711  26.417 -0.2466 -0.2209 -0.1912
20534W        W63525  19.397  25.938  15.887 -0.2799 -0.0919  0.1592
20535W        W63526  24.031  29.982   3.523  0.0236  0.0248  0.2106
20536W        W63527  29.714  23.273  16.095 -0.3190  0.2003  0.0086
20537W        W63528   7.542  24.167   3.529  0.0397 -0.2959 -0.0419
20538W        W63529  25.050  17.719   3.043 -0.1708 -0.1116  0.1223
20539W        W63530  11.734  19.015  23.128 -0.1175  0.1726  0.2648
20540W        W63531   1.948   3.926  28.599  0.3878 -0.0129 -0.0836
20541W        W63532  31.507  20.905  27.977 -0.0620  0.0478  0.0324
20542W        W63533  13.288  14.556  28.672  0.2884  0.2383  0.1276
20543W        W63534  28.750  12.354  17.389  0.0401  0.0225 -0.1512
20544W        W63535   5.670  11.118   9.241  0.4247 -0.0223 -0.1050
20545W        W63536  31.592  19.752   4.545  0.3047 -0.2818 -0.3319
20546W        W63537  25.947  15.033   6.773  0.3519  0.0455 -0.2998
20547W        W63538  24.017  10.159   7.180  0.3103 -0.0756 -0.0122
20548W        W63539   0.104  14.860   8.025  0.1282 -0.1626  0.4587
20549W        W63540  23.523  29.054  26.788  0.0449 -0.3107 -0.1114
20550W        W63541   1.844  29.115  26.104  0.2956 -0.1009 -0.2293
20551W        W63542  27.742  13.260   9.750 -0.3286  0.1398  0.0615
20552W        W63543  30.238  27.159  22.520 -0.0120  0.4012  0.0672
20553W        W63544  23.914  18.997   8.746  0.4022 -0.0066 -0.1244
20554W        W63545   0.728  11.017   2.837 -0.2693  0.1042 -0.2373
20555W        W63546  12.352  18.383  19.725 -0.0645  0.0839  0.0387
20556W        W63547  23.763  20.394  29.219  0.0303 -0.1767 -0.0333
20557W        W63548   0.817   9.384  10.338  0.1761 -0.0031  0.3445
20558W        W63549  33.208  26.576   2.465  0.0800  0.1972 -0.0613
20559W        W63550  27.169   1.488   3.760 -0.1286 -0.0804 -0.0414
20560W        W63551  30.136  11.779   4.005  0.0827  0.4494 -0.3489
20561W        W63552  17.113  20.706  24.311  0.0637  0.0982 -0.2461
20562W        W63553  30.471  11.368   7.759 -0.0684  0.1257  0.1738
20563W        W63554  12.885   4.866  18.943 -0.0713 -0.2129 -0.0211
20564W        W63555  21.211  33.479  19.713  0.2181 -0.2404 -0.2230
20565W        W63556  32.082   0.159   3.862 -0.3348 -0.2585 -0.0699
20566W        W63557  25.236   9.621  16.693  0.1077 -0.0005  0.1335
20567W        W63558  27.238  10.065  27.272 -0.0194 -0.2645  0.1800
20568W        W63559  14.012  30.931  21.290 -0.0026 -0.0709 -0.0445
20569W        W63560  25.161  20.891  13.914  0.1032  0.0080 -0.0124
20570W        W63561   6.774  33.551  22.012  0.0180  0.2379  0.1399
20571W        W63562   2.917  28.425   5.694  0.0919 -0.0576 -0.0812
20572W        W63563   2.278  28.018  29.045  0.1223 -0.0312 -0.1035
20573W        W63564  32.745  17.401   1.639  0.0732 -0.0087  0.4714
20574W        W63565   5.318   5.198   5.522  0.1019  0.0780 -0.2105
20575W        W63566  21.994  16.895   6.651  0.0416 -0.2919  0.0631
20576W        W63567  23.815  14.690  25.422  0.1298 -0.2349  0.1173
20577W        W63568  14.051  15.762   1.631 -0.1790 -0.1424 -0.0226
20578W        W63569  27.344   9.260  24.222 -0.2898 -0.0363  0.0494
20579W        W63570  24.766  21.180   8.176 -0.0385 -0.0789  0.0625
20580W        W63571  24.362  31.627   3.467  0.2132 -0.0177 -0.1453
20581W        W63572  26.474   4.371  18.327 -0.1371  0.2166  0.0092
20582W        W63573  16.723  14.390   0.710  0.0125  0.0576 -0.1665
20583W        W63574   1.569  11.014  18.634 -0.2945 -0.4008  0.2561
20584W        W63575   3.380  28.237  23.837  0.0754 -0.1845  0.0875
20585W        W63576  18.693  10.912  26.056 -0.2368  0.0432 -0.1366
20586W        W63577   5.563  22.237  15.815 -0.1145  0.1336 -0.1022
20587W        W63578  25.967  23.653   3.988 -0.0500  0.0271  0.1439
20588W        W63579  24.744   6.595   5.501 -0.1433  0.0141  0.2579
20589W        W63580   4.638  10.498   1.844  0.1579  0.0036 -0.2607
20590W        W63581  29.375   2.006  21.918 -0.2119  0.0065  0.2612
20591W        W63582  29.005   6.271   8.347 -0.3805 -0.0180 -0.1834
20592W        W63583  29.210   1.807   5.433 -0.1820  0.0014  0.4038
20593W        W63584  33.900  33.360   1.447 -0.1361 -0.3130 -0.1192
20594W        W63585   1.002  10.376   5.179 -0.1809  0.0411  0.1404
20595W        W63586   8.025  26.809  16.160 -0.1781  0.0255 -0.1030
20596W        W63587  30.020  23.425   5.156 -0.0860  0.2610  0.0749
20597W        W63588  32.549  12.045  21.342 -0.0162 -0.0954  0.1446
20598W        W63589   1.899  16.325   9.896  0.2407  0.1694  0.0297
20599W        W63590  29.184  10.714   0.580  0.1993  0.1500 -0.1880
20600W        W63591   9.123   2.324  19.439 -0.0903 -0.0101  0.0663
20601W        W63592  28.296  15.874  16.227 -0.1501 -0.2146 -0.2707
20602W        W63593  14.835  12.508  26.814  0.0844  0.0094 -0.0195
20603W        W63594  13.351   0.076   1.277  0.0281  0.0197 -0.0995
20604W        W63595  15.288  10.884  21.456 -0.1041  0.1778 -0.2700
20605W        W63596  24.066  32.189   6.980 -0.0156  0.4338  0.0708
20606W        W63597   6.545  12.946   1.961 -0.1466 -0.0239  0.1725
20607W        W63598  30.247   3.411   5.398 -0.1006 -0.3602 -0.1629
20608W        W63599  31.012  14.420  26.146  0.1447 -0.1435  0.0032
20609W        W63600  25.025  11.688   8.105  0.1680  0.1474  0.0398
20610W        W63601  26.269   8.710   2.030  0.1083 -0.1935  0.0953
20611W        W63602  34.569  20.049  23.572  0.2484  0.0132  0.0073
20612W        W63603   3.493  20.130   9.376  0.2337 -0.5145 -0.0560
20613W        W63604   1.509  22.548   1.384 -0.0375  0.2897  0.1459
20614W        W63605  18.774   7.449   1.281  0.0155  0.1743 -0.0842
20615W        W63606  10.220   1.106  28.768 -0.4418 -0.3817  0.1343
20616W        W63607  34.295   0.617  25.258  0.0222  0.1366  0.4473
20617W        W63608  23.355  11.113  22.225  0.1731  0.2097 -0.1473
20618W        W63609  18.466  22.366  14.754 -0.3155 -0.0946 -0.0538
20619W        W63610  34.082  32.536   2.963  0.0277  0.2226 -0.1027
20620W        W63611   0.039   9.975   4.547 -0.0480 -0.0878 -0.1563
20621W        W63612  17.047   1.173   1.573  0.1196  0.3866 -0.1416
20622W        W63613  23.348  22.700  25.535  0.1036 -0.0498  0.1193
20623W        W63614  31.309  10.083  26.552  0.2041  0.0261 -0.2108
20624W        W63615  14.538   3.809   5.853 -0.0191 -0.1295 -0.3380
20625W        W63616   4.018   3.613  17.485  0.0096 -0.0395 -0.3840
20626W        W63617  30.055  12.330  17.304  0.2176 -0.1353  0.0902
20627W        W63618  32.388  31.455   6.258 -0.1016  0.0524  0.0621
20628W        W63619   4.815   3.120   8.864  0.1506  0.2164  0.0113
20629W        W63620  30.850   5.690  20.564  0.0962 -0.0648  0.0827
20630W        W63621  18.113  22.172   7.950 -0.1314  0.0240  0.0707
20631W        W63622  31.798   1.332  15.132  0.3604  0.0337 -0.1021
20632W        W63623  14.130  13.398   2.362 -0.2443  0.1346 -0.1904
20633W        W63624  10.211  17.778   1.293  0.3801  0.0959 -0.2508
20634W        W63625  21.505  33.616  21.506 -0.2072 -0.0341 -0.1501
20635W        W63626  10.733   3.341   1.179  0.1175 -0.2366  0.1693
20636W        W63627  31.059  16.342  23.519  0.1563 -0.1910  0.0398
20637W        W63628  32.858   6.049  27.209 -0.0979  0.3223  0.0305
20638W        W63629  34.555  17.109  21.936  0.4763  0.0489 -0.1842
20639W        W63630  23.964  22.592   5.988  0.0512  0.1434  0.2946
20640W        W63631  19.711  11.969   5.029  0.0573  0.1200 -0.3029
20641W        W63632   7.490  32.243   5.370  0.1080 -0.2520  0.4424
20642W        W63633  14.345  25.542  24.806 -0.0118  0.0599 -0.1162
20643W        W63634   2.059   0.317  24.963 -0.2436  0.3400  0.0136
20644W        W63635  24.190  20.145  16.288  0.1386  0.0084  0.0945
20645W        W63636  29.672   5.722  24.108 -0.1477  0.0886 -0.1531
20646W        W63637  23.608   7.415  14.568 -0.0744  0.2101  0.3911
20647W        W63638   7.548  11.920  19.830 -0.0237 -0.2565 -0.1036
20648W        W63639  15.876  12.148  24.495 -0.0644 -0.2588 -0.0825
20649W        W63640   2.887  16.975  21.853  0.0214 -0.0494 -0.0033
20650W        W63641  27.734  26.619  17.636 -0.1618  0.0295 -0.0722
20651W        W63642  17.984  13.259  17.730  0.0739 -0.0574  0.0331
20652W        W63643  31.977  16.836   9.815  0.0510 -0.1455 -0.0775
20653W        W63644  29.011  23.830  21.829 -0.0400 -0.1662  0.2632
20654W        W63645  33.066  18.964  18.750  0.1530  0.0469 -0.0284
20655W        W63646  27.906  15.172  21.925  0.4293 -0.1457  0.2467
20656W        W63647  16.682  18.636   2.623 -0.0755 -0.0547  0.1476
20657W        W63648  24.049   9.396  27.513  0.0802 -0.0951  0.0644
20658W        W63649  24.706  13.892  19.620 -0.0617  0.1773  0.0594
20659W        W63650  34.636  14.358  15.934  0.1349 -0.0074 -0.2056
20660W        W63651  21.932  29.830  17.915  0.1829 -0.1335  0.0453
20661W        W63652  22.336   4.852  18.310 -0.0739 -0.0442 -0.0534
20662W        W63653  19.758  18.760  15.626  0.2602  0.0290  0.0447
20663W        W63654   1.543  30.145  29.019 -0.0643  0.0374 -0.0022
20664W        W63655  10.480   6.746   7.584  0.2336 -0.1406  0.0787
20665W        W63656   2.238  21.061   6.131  0.1224  0.1409  0.1804
20666W        W63657  33.185  28.083  24.460  0.0940  0.0756  0.0005
20667W        W63658  10.554  10.164   7.628 -0.3027 -0.2723 -0.1941
20668W        W63659  28.214  12.426   4.008 -0.0694  0.1958  0.3165
20669W        W63660  23.810   5.600  18.482 -0.0500 -0.0012  0.1713
20670W        W63661  25.201   4.531  14.170  0.0879 -0.0358  0.1592
20671W        W63662  21.627  17.935   0.257 -0.0426 -0.2879  0.3217
20672W        W63663  26.349  33.237  18.162  0.0091  0.0173 -0.0561
20673W        W63664  34.208  13.385  22.381 -0.0147 -0.3598 -0.0288
20674W        W63665  17.939   8.924   7.258  0.0607 -0.2250  0.4116
20675W        W63666  27.748   4.829  23.629  0.2328  0.1825 -0.2760
20676W        W63667  26.353   2.686  19.072 -0.1807  0.3422 -0.3285
20677W        W63668  14.067   4.489  28.061 -0.3437 -0.4157 -0.0529
20678W        W63669  27.909  14.592  21.039  0.2483 -0.0182  0.2004
20679W        W63670  24.692  34.338  16.811  0.0592  0.1096 -0.0177
20680W        W63671  28.416  32.688   5.598  0.3499  0.3069 -0.0390
20681W        W63672  10.550  20.712   2.440  0.1204  0.1673  0.0110
20682W        W63673   8.443  11.223   1.224  0.0073  0.1185  0.1200
20683W        W63674   8.658   9.914   5.058  0.2156  0.1132  0.1743
20684W        W63675  34.735  15.463   9.194 -0.0707 -0.2364  0.0531
20685W        W63676   1.710  15.021  25.020  0.0996 -0.2013 -0.0014
20686W        W63677   7.800  34.056   0.253 -0.3918  0.2403 -0.0652
20687W        W63678  30.576  13.478  22.735 -0.2857  0.1299  0.3730
20688W        W63679  30.264  12.758  10.154  0.0899 -0.4136  0.2941
20689W        W63680  32.491   3.610   1.829 -0.2422  0.3758 -0.1055
20690W        W63681  14.881   8.356   3.941  0.0176  0.0108 -0.2949
20691W        W63682  25.749  12.445  23.480 -0.2357 -0.0260  0.2478
20692W        W63683  25.874  16.716  18.378 -0.1007  0.2743  0.0571
20693W        W63684  21.781  24.403  20.943  0.0018 -0.1577 -0.1450
20694W        W63685  32.390   6.711  14.552  0.1463 -0.1590  0.0219
20695W        W63686  22.483   0.159  13.697  0.1746  0.1374 -0.0738
20696W        W63687  21.701  19.598   0.521  0.0461 -0.1628  0.1526
20697W        W63688  20.637  17.408  25.527 -0.2713 -0.2917 -0.0360
20698W        W63689  15.359  14.936  21.213 -0.0578 -0.0358  0.2179
20699W        W63690  25.768  18.926  15.475  0.1558 -0.1931  0.4127
20700W        W63691  28.257  31.491  14.371  0.0146  0.0926  0.0844
20701W        W63692  21.457   6.016   4.723  0.1292 -0.0380 -0.0467
20702W        W63693  24.244  21.549   4.343 -0.1604  0.1675  0.2507
20703W        W63694  23.432  16.557  16.642  0.4058  0.2037 -0.0356
20704W        W63695  28.674  12.830  28.640 -0.2527  0.1827  0.2746
20705W        W63696   4.845   8.620   2.104 -0.0220  0.0601  0.2466
20706W        W63697  34.206  15.281  18.307 -0.1336  0.0416  0.0100
20707W        W63698  29.017   0.850  20.452 -0.4829  0.2476  0.0415
20708W        W63699  28.454  16.837   8.073 -0.0354 -0.2125 -0.2238
20709W        W63700  22.212  26.828   0.656 -0.2435  0.0554  0.3756
20710W        W63701  23.492   9.128  23.770 -0.0046 -0.1667 -0.2083
20711W        W63702   7.068   4.260   9.017 -0.1321  0.1420 -0.3720
20712W        W63703  21.903  29.227  16.845  0.0089  0.1571  0.0353
20713W        W63704   4.499  12.777   6.972 -0.3511  0.5766  0.1229
20714W        W63705  34.717  13.307   2.595  0.0693 -0.0691 -0.2088
20715W        W63706   6.906   7.089   9.989 -0.0494 -0.0678  0.1807
20716W        W63707  17.454   6.538   1.004 -0.0882  0.1902 -0.0760
20717W        W63708  18.604  13.766  15.010 -0.2999  0.0783 -0.0290
20718W        W63709  33.205   7.842  21.541 -0.0170  0.1992  0.1120
20719W        W63710  30.094   3.999  10.202  0.0847  0.2451 -0.1030
20720W        W63711  28.573   6.644  26.912  0.0909  0.1559 -0.2303
20721W        W63712   4.386  10.103   6.940 -0.4129 -0.0072 -0.1369
20722W        W63713  12.726   7.763  22.213 -0.4909  0.2215  0.1595
20723W        W63714  15.656  15.965  23.319 -0.2907  0.1818 -0.0738
20724W        W63715  26.811   7.520  17.058 -0.4306 -0.1676 -0.0427
20725W        W63716  23.961   6.980  16.820 -0.2266  0.0799 -0.0418
20726W        W63717   0.700  13.888  25.974  0.0807 -0.0366 -0.2998
20727W        W63718  29.749  19.437  21.066  0.3806 -0.3400 -0.0487
20728W        W63719  29.899  26.488  23.991  0.1868  0.0018  0.0674
20729W        W63720  29.287  17.433  10.642  0.0757 -0.2406  0.1827
20730W        W63721  20.661  20.553  22.968 -0.1121 -0.3518  0.1401
20731W        W63722  23.124   0.049   0.304 -0.1392 -0.2276 -0.3007
20732W        W63723  23.126  18.202  29.258  0.2988  0.2068 -0.0031
20733W        W63724  29.522   2.281   2.481  0.0205  0.0774 -0.1215
20734W        W63725  30.296  12.555  16.153  0.0293  0.1512  0.0437
20735W        W63726  25.007  33.009  27.544  0.0228  0.1560  0.1452
20736W        W63727  27.634  16.161   0.360 -0.1835 -0.0063  0.1324
20737W        W63728  22.647  21.212   8.349 -0.0268 -0.1968  0.1782
20738W        W63729  24.869  19.394  28.907  0.2289 -0.2805  0.1536
20739W        W63730  20.507  18.483  24.370  0.0020  0.0273 -0.1529
20740W        W63731  30.616  24.266  26.511 -0.0191 -0.1863 -0.1059
20741W        W63732  31.947  15.449  19.613  0.2761  0.6036 -0.0564
20742W        W63733  21.016  34.622  26.763  0.0709 -0.5091  0.1258
20743W        W63734  18.763  14.783  14.897  0.1761 -0.1172  0.1219
20744W        W63735  31.565   4.406   2.994 -0.0469 -0.2846  0.0253
20745W        W63736  29.993  12.723   5.091  0.1329 -0.0663  0.1315
20746W        W63737   9.654  16.215   2.050  0.2999 -0.0795  0.0281
20747W        W63738   5.628   9.279  25.736  0.1757  0.0453  0.1617
20748W        W63739  11.965  12.852  28.680 -0.1823 -0.0509 -0.2678
20749W        W63740  12.491  14.705  21.091  0.2001  0.3576 -0.0179
20750W        W63741   5.019  34.230   3.108 -0.2940  0.0693 -0.2411
20751W        W63742  14.376  18.400  13.808  0.1515  0.0954 -0.0621
20752W        W63743   1.239   4.654   8.453  0.0814  0.0738  0.0790
20753W        W63744   5.100  18.195   3.701  0.0710 -0.0966  0.0575
20754W        W63745  29.281  20.257   4.859  0.0788 -0.1633  0.0707
20755W        W63746  18.358  18.515  11.831 -0.0520 -0.2866  0.0636
20756W        W63747  21.637   4.314  28.967  0.1353 -0.0545  0.1046
20757W        W63748  21.122  24.075  15.831 -0.2048  0.1921  0.0570
20758W        W63749  23.427   2.215   0.571  0.0032  0.0828  0.1659
20759W        W63750  10.179  24.541  25.927 -0.4384  0.1179  0.2274
20760W        W63751  22.904  23.421  21.658  0.2392 -0.0036 -0.2785
20761W        W63752  33.828  16.901   3.431 -0.0846  0.1108  0.0765
20762W        W63753  19.613  12.315   5.986  0.0705  0.1753 -0.2039
20763W        W63754  23.743  20.040   8.838 -0.3142 -0.0063  0.2087
20764W        W63755   1.041  11.544  26.668  0.1325 -0.3894 -0.0759
20765W        W63756  27.752   7.005  20.849  0.3828  0.0211 -0.0855
20766W        W63757  32.839  27.881  15.851 -0.0854 -0.0540  0.2450
20767W        W63758   9.055  33.327  26.362  0.0963 -0.3784 -0.1691
20768W        W63759  27.707  11.851  28.944  0.0547  0.1669 -0.2511
20769W        W63760  20.797  17.229   9.026 -0.0325  0.0695 -0.0037
20770W        W63761  11.480  27.553  10.119  0.2024 -0.1903 -0.1521
20771W        W63762  21.116  19.433   2.735 -0.0179  0.0922 -0.2373
20772W        W63763  20.614   8.969  26.254 -0.2516 -0.0323  0.0580
20773W        W63764  23.961   2.643  14.349  0.0977  0.1520  0.0748
20774W        W63765   3.944   8.468  26.552  0.1533  0.0068 -0.0559
20775W        W63766  22.356  23.800   3.719 -0.5610  0.2795  0.1246
20776W        W63767  21.594  18.615  14.520 -0.0710 -0.4272 -0.2471
20777W        W63768   3.958  17.031  25.971  0.0937  0.1099 -0.1294
20778W        W63769   2.319   9.241  26.193  0.1199 -0.0282 -0.2501
20779W        W63770  27.261   6.266  25.103 -0.1639  0.0573  0.1822
20780W        W63771  20.571   7.605  15.245 -0.0019 -0.0161 -0.4128
20781W        W63772  30.500  14.783   6.596 -0.0894  0.2782  0.2630
20782W        W63773  24.337  12.167  27.235  0.2704 -0.0323 -0.1528
20783W        W63774   9.968  22.809   0.435 -0.1778 -0.1064  0.2591
20784W        W63775  12.798   5.106   9.509  0.0266 -0.2792 -0.1424
20785W        W63776   6.096   1.805  22.754  0.1484  0.1840  0.2301
20786W        W63777  19.478   9.421   5.486  0.3179  0.1898  0.2179
20787W        W63778  19.573  13.806  15.819  0.1313 -0.1819 -0.1450
20788W        W63779  28.233  18.702   1.951 -0.1021  0.0185 -0.1575
20789W        W63780  12.582   3.494  18.207 -0.0824 -0.1055 -0.0490
20790W        W63781  26.996  16.209  14.583  0.0015  0.0540  0.1381
20791W        W63782  26.777  16.171  16.000 -0.0434  0.2740 -0.0340
20792W        W63783  26.242   2.820  21.776  0.4422  0.1929 -0.2085
20793W        W63784  22.622  25.267   3.640  0.0088 -0.0397  0.0529
20794W        W63785  29.639  20.072  27.998  0.0630  0.1654  0.0354
20795W        W63786  19.336   3.215   2.255 -0.2687 -0.3742  0.1137
20796W        W63787  18.805  14.608  15.384  0.2524 -0.1789  0.5199
20797W        W63788  31.036  16.642  10.262 -0.0707  0.6634  0.3596
20798W        W63789  30.661  13.214   1.074  0.1843  0.1849 -0.1319
20799W        W63790  30.694   5.062  22.097  0.4711 -0.1756 -0.0085
20800W        W63791  29.733   5.949  19.365  0.1584 -0.0962 -0.1356
20801W        W63792   3.191   6.404  18.504 -0.0024 -0.0202  0.2201
20802W        W63793  21.478  19.915  23.310 -0.0584 -0.2452  0.3042
20803W        W63794  24.186  25.152  18.460 -0.2314  0.5531  0.0459
20804W        W63795  19.497  26.881   2.541 -0.0473 -0.2260  0.1752
20805W        W63796  19.033  26.725  16.201 -0.2743 -0.1766 -0.2182
20806W        W63797  30.144  11.236  27.468  0.0725 -0.0664 -0.0682
20807W        W63798  28.438  18.519  18.797  0.1693  0.2008 -0.0706
20808W        W63799   9.457   4.731  14.715 -0.1059 -0.0384 -0.1900
20809W        W63800  25.372  13.637   1.575 -0.1757 -0.0660  0.1613
20810W        W63801   5.791  18.913  26.238  0.0683 -0.3236 -0.2086
20811W        W63802  27.206   5.229   7.003 -0.0852 -0.0901 -0.0187
20812W        W63803  30.373  18.509   3.815 -0.2074 -0.1638 -0.4066
20813W        W63804  21.605   9.953   6.520  0.1308  0.1219 -0.1721
20814W        W63805   6.099  11.672  16.413  0.0400 -0.0837 -0.0841
20815W        W63806  29.733  28.817   0.715  0.1505 -0.1090 -0.0833
20816W        W63807  23.669  17.557   5.401  0.1133 -0.0445  0.0747
20817W        W63808  22.084  21.866  14.926  0.0671 -0.2353  0.0344
20818W        W63809  27.432  25.138   2.064 -0.5731  0.2581  0.1808
20819W        W63810  26.489   3.930  23.515  0.1470 -0.2615  0.1157
20820W        W63811  20.803  17.137  22.962 -0.1881 -0.1567 -0.1376
20821W        W63812  30.719  16.527  25.394  0.1777 -0.1044  0.0840
20822W        W63813  21.356  32.265  23.947  0.0650 -0.1876  0.2456
20823W        W63814  28.353  25.126  24.425  0.1251  0.0455  0.0835
20824W        W63815  22.554  26.837  15.620 -0.2126 -0.0269  0.0382
20825W        W63816  25.791  23.890  21.603 -0.2105  0.0047 -0.1662
20826W        W63817   9.213  28.088  28.995  0.0320  0.3247 -0.1959
20827W        W63818  28.657  14.967   6.723 -0.1151  0.1654  0.1617
20828W        W63819   6.562  13.240   3.414  0.0072 -0.0311 -0.1486
20829W        W63820  22.644   5.185  24.325  0.1983 -0.2487  0.0370
20830W        W63821  22.887   3.891   7.315  0.4386 -0.0438 -0.1871
20831W        W63822  28.061  17.338  16.145  0.0254  0.0965 -0.3382
20832W        W63823  25.280  19.505  29.253  0.1111  0.2067  0.0942
20833W        W63824   4.713  23.442   6.500  0.0793  0.1712 -0.1345
20834W        W63825  12.555  13.583  23.483  0.1498  0.0556  0.0083
20835W        W63826  30.185  30.322   3.071 -0.1187 -0.1725 -0.1581
20836W        W63827  19.144  10.913  21.297 -0.0025 -0.1652  0.0680
20837W        W63828  31.786  15.619   7.489 -0.2175  0.2346 -0.1716
20838W        W63829  23.491   9.228  22.846  0.2030  0.2287  0.2190
20839W        W63830  28.806  12.761  10.682  0.0146  0.1375  0.0893
20840W        W63831  32.920  20.157  22.382 -0.2527 -0.0935 -0.0904
20841W        W63832  27.235  12.720  17.201  0.0740  0.2352 -0.0977
20842W        W63833  33.331  22.476  24.653 -0.0767  0.0061 -0.2576
20843W        W63834  22.896  17.367   6.992  0.3081 -0.0702  0.2666
20844W        W63835   2.258   6.314  21.452 -0.0079  0.0962 -0.0606
20845W        W63836  24.469  17.321  24.726  0.3233 -0.1619 -0.0288
20846W        W63837  29.342  17.496   2.743 -0.2957 -0.2517 -0.1834
20847W        W63838  33.145  17.498   1.265 -0.1047  0.1886  0.0507
20848W        W63839  25.783  20.220  24.796 -0.1578  0.2696  0.1263
20849W        W63840  21.095  20.522  20.965 -0.1242 -0.0953 -0.0575
20850W        W63841  14.996  20.752  12.497  0.1606 -0.1259  0.1341
20851W        W63842   5.166   2.580  27.378 -0.1778 -0.2456  0.0035
20852W        W63843  19.290   4.640  25.605  0.1950 -0.1320 -0.1541
20853W        W63844  27.439  12.507   7.338 -0.1357 -0.1461 -0.0561
20854W        W63845  32.361  15.380   0.398 -0.3905  0.0309  0.1944
20855W        W63846   0.419  23.032  15.853  0.2947 -0.0847 -0.1061
20856W        W63847  31.001  27.568   5.314 -0.0697 -0.0652 -0.1868
20857W        W63848  18.423  14.952   0.638  0.0191 -0.1870 -0.2339
20858W        W63849  15.054  20.856   3.805  0.0960 -0.6115  0.1836
20859W        W63850  29.989  32.144  26.690 -0.1400  0.0635  0.1164
20860W        W63851  28.039  23.935  14.720  0.0432 -0.0767  0.1245
20861W        W63852  28.367  33.077   5.908 -0.0835 -0.0870 -0.3591
20862W        W63853   6.752  11.137  18.511 -0.1819  0.2452 -0.4477
20863W        W63854  26.765  17.985   9.025  0.2499  0.2067 -0.1436
20864W        W63855   1.834  19.412  27.396 -0.0598  0.1478  0.1027
20865W        W63856  14.891  26.004  15.554 -0.2469 -0.0248 -0.2186
20866W        W63857  11.689  18.248  22.789 -0.1479 -0.0517  0.1400
20867W        W63858   5.876   4.279   3.265  0.2245 -0.1717  0.0345
20868W        W63859   6.282   0.425  26.624  0.0596 -0.0201  0.0814
20869W        W63860  27.924   7.747  18.050  0.0205 -0.1593 -0.3847
20870W        W63861  20.595   8.560   5.458 -0.2049 -0.1028 -0.1325
20871W        W63862  30.992  33.043   0.402  0.2144  0.1502  0.0232
20872W        W63863   8.075  12.953   5.977  0.3066 -0.1533  0.0822
20873W        W63864  14.451  17.340   3.472 -0.2440 -0.0383  0.0699
20874W        W63865  25.275   3.476  22.956 -0.0940  0.1628 -0.0526
20875W        W63866  24.356   0.766  28.766 -0.0975  0.0215 -0.2046
20876W        W63867  31.530  18.635   5.825 -0.0182 -0.1491 -0.1788
20877W        W63868  27.350  13.917  14.923  0.1251  0.2274  0.0588
20878W        W63869   0.110  11.586   4.468  0.1181  0.1384 -0.1943
20879W        W63870  12.053  31.015   0.087 -0.0535 -0.3023 -0.1595
20880W        W63871  30.847  26.337   2.162 -0.1382  0.0755 -0.2871
20881W        W63872  21.692  23.385  23.135  0.0662 -0.2182  0.4240
20882W        W63873  32.707   1.913  28.602 -0.0120 -0.1249 -0.2868
20883W        W63874  15.931  21.121  17.878 -0.1098 -0.4932  0.1735
20884W        W63875  10.071   9.080  24.475  0.1048  0.0481 -0.0514
20885W        W63876  33.929  21.960   8.134  0.2660  0.0954 -0.2157
20886W        W63877   7.153   8.565   2.455  0.1618 -0.3071  0.1060
20887W        W63878  26.817  13.091   5.499 -0.2942  0.3781  0.5766
20888W        W63879  24.435   9.434   3.830  0.1733 -0.5289 -0.1290
20889W        W63880   1.286   5.154   1.577  0.0215 -0.2593 -0.2859
20890W        W63881  26.213  24.394   0.757  0.1413  0.2442 -0.1501
20891W        W63882   5.554  21.233   0.548 -0.1657  0.0294  0.2781
20892W        W63883  10.541  25.840  15.950 -0.1920  0.1762  0.2609
20893W        W63884  20.358  11.733  29.005 -0.0178 -0.2270  0.0134
20894W        W63885   1.281  14.683  23.599 -0.2774 -0.0498  0.2735
20895W        W63886  17.986   8.509  25.893 -0.0189 -0.0775 -0.0694
20896W        W63887   4.572   3.190   9.774  0.1006  0.1010  0.0388
20897W        W63888  23.941  17.179   5.566 -0.1122  0.0645 -0.1687
20898W        W63889   2.182  20.452  27.201  0.1519  0.0105 -0.1963
20899W        W63890  13.109   8.222  25.354 -0.0913 -0.1082 -0.2549
20900W        W63891   1.968  19.963   9.321 -0.1150 -0.0560  0.0420
20901W        W63892  31.171  12.499   0.023  0.1669 -0.2355  0.0073
20902W        W63893   2.048  18.791   9.948  0.2262 -0.0736 -0.0939
20903W        W63894  10.730  18.211  18.312  0.0834 -0.0832 -0.0955
20904W        W63895  23.634  11.587   4.283  0.2328  0.1100  0.0041
20905W        W63896  22.152  11.448  20.137  0.0991 -0.0476 -0.0492
20906W        W63897  24.435  22.672  20.639 -0.2104 -0.0506 -0.1130
20907W        W63898  24.572  12.450   1.678 -0.0949  0.0645 -0.0418
20908W        W63899  32.882  15.233   5.989  0.0540  0.1096  0.1248
20909W        W63900   2.379   0.348  19.432 -0.0771  0.0861  0.2402
20910W        W63901  18.593  15.506   3.471  0.0924 -0.1691 -0.0357
20911W        W63902  14.723  32.159  10.253  0.1133 -0.0471 -0.3690
20912W        W63903   2.806   5.492   9.843  0.1505  0.1043  0.0782
20913W        W63904  34.587  23.844  27.410  0.1167  0.1777  0.2854
20914W        W63905  30.091   7.013   8.808  0.4019 -0.1582  0.4967
20915W        W63906  29.852  21.258  27.151  0.2083  0.1649  0.1260
20916W        W63907  29.865  12.582  20.731 -0.1744  0.0637  0.3180
20917W        W63908  15.191   7.794  24.425 -0.0550 -0.1238  0.1669
20918W        W63909  26.352  16.928  23.331 -0.4664 -0.1700  0.3022
20919W        W63910   0.361   5.295  18.384  0.0617  0.0577  0.1836
20920W        W63911  13.692  15.051  15.132 -0.1352 -0.2587  0.1017
20921W        W63912  24.159   9.720  13.703 -0.2339 -0.4681 -0.1998
20922W        W63913  15.603   3.624   5.186  0.1114 -0.0238 -0.1655
20923W        W63914  19.045  10.241  20.943 -0.0853  0.0431  0.0209
20924W        W63915  22.060   1.592  27.726 -0.0031  0.0681  0.1744
20925W        W63916  34.165   3.398   6.882  0.0227 -0.3016 -0.0470
20926W        W63917   4.386  13.491  10.428  0.3271 -0.1016  0.1008
20927W        W63918  12.695  18.429  29.157 -0.2679  0.1308 -0.1738
20928W        W63919   8.597  15.191   9.354 -0.0392 -0.1899 -0.1299
20929W        W63920  14.935   1.772   3.753 -0.1100 -0.0101  0.0766
20930W        W63921  23.791  25.360  28.863  0.1903 -0.2307  0.0171
20931W        W63922  23.403  32.658  24.834  0.1722 -0.1343  0.1014
20932W        W63923   2.611   4.404  24.387  0.0483 -0.0355  0.0736
20933W        W63924  28.148  12.021  28.320 -0.0882  0.0052 -0.4286
20934W        W63925  17.571  24.023   8.163  0.1649  0.2719  0.1257
20935W        W63926  19.019  15.317   3.035 -0.0170  0.0488 -0.0067
20936W        W63927   1.949  18.778  22.425 -0.2132  0.1782  0.1703
20937W        W63928  24.538  17.102   0.333 -0.0421 -0.4236  0.3545
20938W        W63929   0.052   9.357   4.996  0.1192 -0.0863  0.1557
20939W        W63930  26.234   5.702   3.791 -0.0713 -0.2790 -0.0143
20940W        W63931  18.069  14.673   3.579 -0.0848  0.0331  0.3742
20941W        W63932  31.633  12.447   4.931  0.1951 -0.0481 -0.1033
20942W        W63933  22.994   4.984   1.786  0.1306 -0.3385  0.0769
20943W        W63934  30.703  12.028   3.367  0.0608  0.2005  0.3033
20944W        W63935  33.381  11.915   2.775 -0.3266  0.0345  0.1903
20945W        W63936   7.032   9.388  11.271 -0.0470 -0.1710  0.1192
20946W        W63937  15.562  23.550   6.173 -0.1711 -0.0678 -0.1844
20947W        W63938  33.706  31.493   3.338 -0.1427 -0.0816 -0.1263
20948W        W63939  21.771  22.090  22.099  0.1234 -0.0203  0.2986
20949W        W63940  19.600   3.503   0.812 -0.2499  0.0736  0.2264
20950W        W63941  17.603  17.219   9.079  0.2882 -0.0497 -0.0447
20951W        W63942  28.632   1.169  28.189 -0.1227  0.0831 -0.1646
20952W        W63943  25.830  14.789   5.674 -0.0074 -0.0650 -0.3767
20953W        W63944  22.152  19.168  19.246  0.1317  0.3888 -0.1815
20954W        W63945  28.585   7.851  25.991  0.1804  0.1695  0.0326
20955W        W63946   0.617  17.503   2.942  0.2433 -0.3271  0.0354
20956W        W63947  30.673  11.164  25.772 -0.0746  0.0437  0.0921
20957W        W63948  19.604  21.863   7.428  0.2432 -0.1429 -0.1020
20958W        W63949  22.162   6.185   5.949  0.0114  0.3837  0.2339
20959W        W63950   1.501  12.864   2.025 -0.1824  0.1803  0.2439
20960W        W63951  14.145   1.610  10.443  0.0165 -0.0815  0.2367
20961W        W63952  19.771  21.264  25.525  0.0758  0.1588 -0.5678
20962W        W63953  29.858  11.977   9.441  0.1162 -0.2184 -0.1689
20963W        W63954  18.502   6.770  22.588  0.0677 -0.2277 -0.3541
20964W        W63955   8.623   0.709  23.247  0.0941  0.0036  0.0228
20965W        W63956  34.158  16.081   1.603  0.0209 -0.2703  0.2233
20966W        W63957  14.334  15.793  15.290 -0.0845 -0.0281 -0.1546
20967W        W63958  29.871   5.224  25.935 -0.1092 -0.2198  0.0812
20968W        W63959  34.362  16.889   3.330 -0.1966 -0.1318 -0.0546
20969W        W63960  11.045  13.081  11.289 -0.0228 -0.1073  0.0642
20970W        W63961   0.497   9.521  11.773 -0.0852  0.0683  0.1040
20971W        W63962  30.693   4.460  25.259 -0.0143  0.0764 -0.2674
20972W        W63963   5.205  22.539   5.340 -0.1680  0.3458 -0.0801
20973W        W63964  21.496  31.356  22.526  0.0341  0.1606  0.0508
20974W        W63965  22.036  13.939   7.401  0.2155  0.0821  0.1415
20975W        W63966   1.936  13.002  21.671  0.0195 -0.1554  0.0873
20976W        W63967  29.347  21.059  27.126  0.0825 -0.3576 -0.1467
20977W        W63968  27.351  18.187  27.611  0.0082 -0.0300  0.3918
20978W        W63969  32.061   7.660  27.182 -0.2848  0.0340 -0.2711
20979W        W63970  24.985   9.607   0.265 -0.0415  0.0353  0.1593
20980W        W63971  19.588  10.799   9.487 -0.0260 -0.1101 -0.0382
20981W        W63972  32.489   1.971  22.320 -0.0464  0.1154 -0.0500
20982W        W63973   5.917   1.874   1.060 -0.2763 -0.1271 -0.0093
20983W        W63974  20.400   2.307  22.415  0.1206  0.0526  0.0099
20984W        W63975  23.092   2.901  25.422 -0.0978 -0.0280 -0.1367
20985W        W63976  24.341  16.026   1.533 -0.1189  0.1832 -0.2226
20986W        W63977  10.647  10.209  25.840 -0.0101  0.0314  0.3165
20987W        W63978  18.674   1.796   2.109 -0.3911 -0.0540  0.0466
20988W        W63979  18.591   6.941  19.322  0.2634  0.3262  0.0485
20989W        W63980  31.302  20.401  17.259 -0.0596 -0.1757  0.2761
20990W        W63981  20.614  28.890  14.244  0.0423 -0.1431 -0.0457
20991W        W63982  27.601  18.416  29.152 -0.0301  0.1641 -0.0807
20992W        W63983  32.567   8.462  15.529 -0.1809  0.2834 -0.3109
20993W        W63984  27.392  16.722  26.196 -0.0801  0.0761 -0.1506
20994W        W63985  34.446  18.603  20.086  0.3115 -0.0230 -0.0248
20995W        W63986  24.283  20.769  18.623 -0.3944  0.0711 -0.1572
20996W        W63987  10.127  22.622  18.387  0.1746 -0.1245 -0.0379
20997W        W63988  14.785  24.003  16.695 -0.1793 -0.2360 -0.0668
20998W        W63989  26.422  21.456  24.407 -0.0097 -0.1413  0.3139
20999W        W63990  19.565   2.962  18.479  0.0174  0.0554 -0.1558
21000W        W63991  22.561   9.666  15.992  0.1087 -0.0284 -0.0504
21001W        W63992  18.748  12.943  13.755  0.1245  0.1171  0.1432
21002W        W63993  18.742  18.374  14.007  0.0191 -0.1543 -0.0711
21003W        W63994  24.505  24.333  14.362 -0.3663  0.0730  0.0085
21004W        W63995  33.466  26.573  28.623  0.0098  0.0522  0.0103
21005W        W63996  31.245  31.517  25.202 -0.1365  0.0115 -0.0271
21006W        W63997   7.337   7.144  15.723  0.3070 -0.2164  0.7004
21007W        W63998  30.223  33.173  14.966  0.0130 -0.0085 -0.0127
21008W        W63999  11.945  16.676  16.850  0.1094 -0.1771  0.1000
21009W        W64000  18.780  32.471  21.532 -0.1220 -0.1716  0.0723
21010W        W64001  19.570  18.120  15.030 -0.0456 -0.0386 -0.0114
21011W        W64002  20.051  14.133  15.189  0.0210 -0.0307 -0.4266
21012W        W64003  12.053  19.352  18.234 -0.1292 -0.2118 -0.2019
21013W        W64004  19.042  26.145  20.151 -0.2034 -0.1595  0.1897
21014W        W64005   8.488  25.767  22.749  0.1252 -0.0688  0.1411
21015W        W64006  31.177  23.263  21.923  0.0166 -0.0672  0.1091
21016W        W64007  24.951  22.131  26.270  0.2590 -0.0287 -0.0534
21017W        W64008  14.073  21.931  18.482 -0.0242  0.1995  0.0418
21018W        W64009  26.744  34.167  15.370  0.0903  0.1047  0.5491
21019W        W64010  25.083   0.623  19.649  0.0483 -0.1362 -0.3749
21020W        W64011  18.012  31.572  14.483  0.0701 -0.1645  0.2184
21021W        W64012  16.244  10.692  15.956  0.0440 -0.3188  0.1080
21022W        W64013  26.487  23.382  17.801  0.0485 -0.1056  0.1767
21023W        W64014  27.828  31.435  22.090  0.2195 -0.1497 -0.1502
21024W        W64015  20.245  24.753  16.797 -0.3848  0.0214 -0.0384
21025W        W64016   5.263  21.749  23.197  0.0148 -0.1890 -0.0213
21026W        W64017  16.838  12.727  15.013  0.0423  0.2237  0.0800
21027W        W64018  15.377   4.160  15.117  0.0479 -0.4547  0.2037
21028W        W64019  30.574  20.113  24.774 -0.1168 -0.0736  0.2037
21029W        W64020  32.450  27.286   9.749 -0.2135 -0.0007 -0.2686
21030W        W64021  32.763  11.696  18.104  0.1625 -0.0478 -0.0881
21031W        W64022  21.395  15.403  15.814 -0.0141 -0.1833  0.1157
21032W        W64023  33.187  18.483  18.574 -0.1583  0.0016 -0.2025
21033W        W64024   3.968   5.096  19.702  0.2119 -0.3451 -0.0163
21034W        W64025   4.363  13.644  27.573  0.0116 -0.2554 -0.2993
21035W        W64026  22.550  18.321  12.943 -0.5914 -0.3732  0.1395
21036W        W64027  23.236  22.963  17.678  0.0244 -0.0603  0.2843
21037W        W64028   4.326  27.747  18.847  0.2786  0.0595 -0.1769
21038W        W64029   8.581   6.535  18.397 -0.1926 -0.1199  0.0985
21039W        W64030  28.662  17.899  22.530 -0.1600 -0.1880  0.1345
21040W        W64031   7.511  30.857  27.212  0.2185 -0.0532  0.0116
21041W        W64032  32.299  12.153  26.114 -0.0379  0.1249 -0.0199
21042W        W64033  33.346  15.857   0.688  0.2628 -0.3241  0.2032
21043W        W64034  13.093  14.679  19.116  0.2308  0.3865  0.1690
21044W        W64035  16.997   7.874  26.617  0.1754 -0.0683  0.1665
21045W        W64036  19.657  20.784  14.489 -0.0103 -0.1022  0.0551
21046W        W64037  26.523  28.954  18.561  0.1447 -0.2059  0.1270
21047W        W64038   4.462  28.650  16.443 -0.1167  0.0667  0.0077
21048W        W64039   5.370  17.808  22.388  0.0712 -0.1865 -0.3258
21049W        W64040  18.623   0.819  24.778 -0.1350 -0.3499  0.1803
21050W        W64041  32.882  22.598   8.974 -0.0475  0.0057 -0.0508
21051W        W64042  30.187  24.288  26.890  0.2601 -0.0166 -0.0966
21052W        W64043   4.389  21.402  21.388  0.1083  0.2209 -0.1305
21053W        W64044  33.635  25.745  21.797  0.0751  0.2429 -0.0850
21054W        W64045   5.504  12.319  16.921 -0.0145 -0.0589  0.1462
21055W        W64046  24.471  15.161  17.017 -0.1373 -0.2745  0.0824
21056W        W64047  30.595  16.153  18.122  0.0147  0.2154  0.1554
21057W        W64048  12.950  15.700  25.514  0.2992 -0.0654 -0.0469
21058W        W64049  27.976  18.497  21.515  0.0163 -0.0146 -0.0209
21059W        W64050  14.133  22.507  18.417 -0.1464 -0.0608  0.3050
21060W        W64051  33.132  11.577  20.123  0.2701  0.1047 -0.0028
21061W        W64052  27.208  17.139  17.946 -0.1569  0.2532 -0.2572
21062W        W64053  30.796  31.410  15.779  0.1107  0.0053  0.0874
21063W        W64054  13.562  24.286  23.067  0.0203 -0.0070 -0.0867
21064W        W64055  30.849  13.348  21.425  0.0997  0.0378  0.1106
21065W        W64056  29.707  29.657  19.975 -0.3892  0.1328 -0.0034
21066W        W64057  10.309   8.961  16.131  0.0930 -0.2059  0.1868
21067W        W64058  19.882  23.094   6.674 -0.0278 -0.0317  0.0469
21068W        W64059  24.521  19.338  14.527 -0.0576 -0.1552 -0.1936
21069W        W64060  16.995   8.961  18.595 -0.1138 -0.0620  0.2757
21070W        W64061   1.811  18.711  21.283  0.2291 -0.4406 -0.1071
21071W        W64062  21.185   0.756  25.758  0.1238 -0.1079 -0.3633
21072W        W64063  24.524  16.707  24.962 -0.4181 -0.0817 -0.0436
21073W        W64064  21.186  22.313  14.959 -0.1794 -0.0614  0.1124
21074W        W64065  32.910  22.980  23.357 -0.1170  0.1902 -0.1814
21075W        W64066   9.847   6.607  18.021  0.0193 -0.0218  0.0744
21076W        W64067  18.228  28.952   5.080 -0.1270  0.0681  0.2161
21077W        W64068  25.239   8.797  16.927 -0.0599 -0.1135  0.3165
21078W        W64069  27.491  31.505  20.226 -0.0409 -0.1046  0.0355
21079W        W64070  29.974  11.183  16.620 -0.0131 -0.0571  0.0421
21080W        W64071  26.168   3.470   2.864  0.0591  0.1124 -0.1446
21081W        W64072  28.252  15.241  23.694 -0.0241 -0.0060 -0.0341
21082W        W64073  14.744  21.918  24.037  0.0845  0.0432  0.1579
21083W        W64074  18.756  15.759  23.955  0.0832  0.2708  0.1323
21084W        W64075  22.062  25.607  29.194 -0.1843  0.4058 -0.0554
21085W        W64076  16.365   7.789  16.155  0.0356  0.1082  0.3353
21086W        W64077  28.519  18.951  21.551 -0.3604  0.1844  0.2197
21087W        W64078  23.570  18.586  20.660  0.0704 -0.2940 -0.0109
21088W        W64079   2.096  31.445  14.999 -0.0192  0.0972 -0.0336
21089W        W64080  31.727  19.526  19.024 -0.2900  0.2335  0.0576
21090W        W64081  21.242  33.027  26.476  0.2689  0.1458 -0.0760
21091W        W64082  12.340  26.955  19.836  0.0014  0.2168 -0.0367
21092W        W64083  23.489   2.597  28.989  0.2051 -0.0892  0.0158
21093W        W64084  27.879  23.325   0.763 -0.1164  0.0475  0.1570
21094W        W64085  10.736  11.152   0.667  0.0748 -0.1342 -0.2858
21095W        W64086  23.745  30.996  13.849 -0.2371  0.0221  0.1545
21096W        W64087  22.136  32.745  21.192  0.1078  0.1611  0.4327
21097W        W64088  29.957  25.702  29.119 -0.0336  0.0092 -0.1108
21098W        W64089  14.767  24.400  27.543  0.2444  0.2590 -0.2089
21099W        W64090  20.418  11.712  12.922 -0.2568 -0.2612  0.1452
21100W        W64091  18.396   7.981  16.974 -0.1671  0.4760 -0.2831
21101W        W64092  30.014  33.912  18.379 -0.1007 -0.0901  0.2596
21102W        W64093  10.385  12.598  26.619  0.1065  0.1132  0.3476
21103W        W64094  23.008  24.272  17.385 -0.1176 -0.2569 -0.1114
21104W        W64095  19.700  15.001  15.440  0.1082 -0.4586 -0.0959
21105W        W64096  18.674  32.226  16.488 -0.2445 -0.1681 -0.3861
21106W        W64097  24.653   4.271  28.518 -0.0188  0.2274  0.6215
21107W        W64098  10.318  29.103  21.013  0.1621 -0.3289  0.0524
21108W        W64099  28.558  20.228  20.649  0.1492 -0.0532 -0.1588
21109W        W64100  24.086   0.516  21.991  0.1529  0.0987 -0.1546
21110W        W64101  27.999  16.866  23.045 -0.2966 -0.2087  0.2240
21111W        W64102  25.511  28.811   4.878  0.5114 -0.1946 -0.2749
21112W        W64103  33.716  25.190  16.788 -0.0075 -0.0627 -0.1761
21113W        W64104   6.161  10.942  16.662  0.2508  0.1023 -0.0339
21114W        W64105  29.027   5.501   9.362  0.0391  0.4826  0.1099
21115W        W64106   2.140  33.071  22.259  0.0859  0.0403  0.0516
21116W        W64107  22.984  13.921  13.808  0.0497  0.2529  0.0761
21117W        W64108  30.958   3.521   1.555 -0.1262 -0.1125 -0.4121
21118W        W64109  26.742  10.683  19.979  0.0347 -0.1688 -0.4408
21119W        W64110  18.189  24.332  19.849  0.3778 -0.2946 -0.2622
21120W        W64111   1.060  21.879  27.497  0.1596 -0.0833  0.0306
21121W        W64112  32.141   9.294  20.805  0.1607 -0.2253  0.0051
21122W        W64113  19.339  23.483  13.506 -0.0530  0.0319 -0.1184
21123W        W64114  20.729  14.746  19.307  0.3885 -0.0455  0.4051
21124W        W64115  34.696  18.735  26.162  0.0284  0.4877  0.0288
21125W        W64116   6.033   9.928   0.673 -0.0073  0.1659  0.0246
21126W        W64117  25.537  24.569  13.485 -0.0196  0.3645  0.0097
21127W        W64118  22.082  34.160  18.212  0.1095  0.0934  0.1759
21128W        W64119  32.155  26.739  14.337  0.1442 -0.1254  0.2648
21129W        W64120  28.751  30.591  19.945 -0.1884  0.3621 -0.0741
21130W        W64121  27.499  33.056  13.659 -0.1619 -0.0575 -0.0669
21131W        W64122  29.178  16.768  21.057 -0.0125 -0.0390 -0.2002
21132W        W64123  15.819  20.496  29.160 -0.4647 -0.0118 -0.1802
21133W        W64124  28.115  22.306   1.613 -0.2083  0.1624  0.1228
21134W        W64125  30.672   6.984  19.475 -0.2522  0.0087  0.2810
21135W        W64126  18.901  24.506   1.368  0.2992 -0.1570 -0.4263
21136W        W64127  27.795  14.309  23.926  0.0065 -0.1236 -0.3216
21137W        W64128  23.074  21.460  27.451  0.0279  0.0691 -0.0317
21138W        W64129  25.860  32.472  13.131  0.0733 -0.0834 -0.1584
21139W        W64130  24.572  28.270  15.969  0.1427  0.0891 -0.0481
21140W        W64131   0.723  11.148  29.163  0.5423  0.1533  0.4149
21141W        W64132  16.713  28.318  19.681  0.0888 -0.1198 -0.2707
21142W        W64133  32.916  25.171  28.994  0.1716 -0.2336  0.0403
21143W        W64134  22.008  15.980  27.054  0.0377  0.2170 -0.0591
21144W        W64135  25.647   6.603  21.183  0.1223  0.1478 -0.2642
21145W        W64136  25.914  19.504  27.958 -0.0089 -0.1140 -0.1413
21146W        W64137  14.396  17.224   9.722  0.0726  0.0178  0.1738
21147W        W64138   6.455  29.916  16.729 -0.1347 -0.3152 -0.1225
21148W        W64139  22.829  30.007  13.844 -0.1423 -0.0533  0.0709
21149W        W64140  26.867  19.327  13.939  0.1688 -0.1857  0.2969
21150W        W64141  23.878  15.875  22.103  0.1072 -0.0115  0.1445
21151W        W64142  15.995   3.331  23.151 -0.0537  0.0389  0.2914
21152W        W64143  25.187   2.323  15.475 -0.0099  0.0221  0.0172
21153W        W64144   0.142  29.436   4.531  0.2122  0.1998  0.1518
21154W        W64145  26.074  25.293  16.938  0.0027 -0.2649 -0.0118
21155W        W64146  16.346  12.002  20.771 -0.0567 -0.0469 -0.0878
21156W        W64147  18.581   7.224   3.317  0.1851  0.1691  0.0103
21157W        W64148  19.303  19.882  17.067  0.0029 -0.1024 -0.1635
21158W        W64149  20.878  14.476  14.229 -0.0798 -0.2438  0.0317
21159W        W64150  22.971  21.420  19.319  0.0859  0.4068  0.1574
21160W        W64151  31.214  18.162  15.603 -0.0340 -0.1476 -0.3244
21161W        W64152  22.531  15.774   3.858  0.1294  0.0014 -0.0132
21162W        W64153  27.418  31.247  23.071 -0.1484 -0.4036  0.1673
21163W        W64154  15.212   3.417  24.213  0.2103 -0.0929 -0.4222
21164W        W64155  34.573  17.658  22.828  0.1320 -0.3672 -0.2957
21165W        W64156  12.447  22.932  14.841  0.2491 -0.1003  0.0719
21166W        W64157  27.067  19.179  14.464 -0.1606 -0.0866 -0.3897
21167W        W64158  30.236  24.834  24.736 -0.1505 -0.0335  0.2486
21168W        W64159  26.142   9.333   2.582  0.1744 -0.0300 -0.0990
21169W        W64160  14.599  14.987  13.460  0.0468 -0.0929 -0.0604
21170W        W64161  25.875   0.215  24.091  0.0939 -0.0248 -0.1400
21171W        W64162  19.107   9.710  22.639  0.2421 -0.2232  0.0135
21172W        W64163   2.095   4.319  15.746  0.0992 -0.0743  0.0975
21173W        W64164  24.229  15.620  18.332  0.0927 -0.2558  0.1773
21174W        W64165  32.936  13.060  23.360  0.3475  0.2087 -0.2774
21175W        W64166  30.905  23.198  18.842 -0.0377 -0.2125 -0.0783
21176W        W64167  25.052  18.203   2.822 -0.0586  0.0320  0.1797
21177W        W64168  25.304  13.382  16.135 -0.3053 -0.1519  0.1253
21178W        W64169  21.820  26.592  14.304  0.0266 -0.0838  0.0746
21179W        W64170  32.962   8.121   3.238  0.1168  0.2606 -0.1303
21180W        W64171  30.156  16.312  24.342 -0.0430  0.0601  0.2040
21181W        W64172  24.500  28.667  29.203 -0.0004  0.0047 -0.0092
21182W        W64173  28.847  17.164  25.507  0.3659  0.5742 -0.1875
21183W        W64174  12.583  22.906  25.192 -0.0262  0.1270 -0.1978
21184W        W64175   3.202  32.667  20.908 -0.1714 -0.3561 -0.1048
21185W        W64176  28.285  24.605  17.805  0.3398  0.2499  0.0582
21186W        W64177  31.131   3.563  15.771 -0.2477  0.0307 -0.0371
21187W        W64178  31.457  17.873  16.087 -0.1199 -0.0317  0.0082
21188W        W64179  13.776  26.008  27.598  0.2696 -0.0713  0.0156
21189W        W64180   0.099  33.597  15.868  0.1551 -0.1862  0.0372
21190W        W64181  28.070  20.086  21.491 -0.0222  0.1385 -0.0894
21191W        W64182  26.753  19.693  18.138  0.1367 -0.0423  0.1543
21192W        W64183  10.272  18.917  19.305  0.2610  0.3904  0.0604
21193W        W64184   9.238  25.918  21.168 -0.0156 -0.0312 -0.0711
21194W        W64185  21.995  23.127  23.497 -0.1639 -0.0650  0.0949
21195W        W64186  19.280  11.360  21.447  0.4279  0.0046  0.1397
21196W        W64187  12.314  14.339  18.319  0.1107  0.2609  0.1380
21197W        W64188  11.765  16.556  23.093 -0.0565  0.0940 -0.0149
21198W        W64189  15.255  22.348  23.710  0.1661  0.1244  0.0030
21199W        W64190  12.861  21.314  14.688  0.0520 -0.0966  0.1133
21200W        W64191  33.757  25.174  22.624 -0.2604  0.4406  0.0010
21201W        W64192  24.438  24.008  16.464  0.2332  0.2334  0.2344
21202W        W64193  29.811  12.559  23.750  0.2454 -0.0122  0.1650
21203W        W64194  28.489  30.966  21.111  0.2145 -0.1905  0.0828
21204W        W64195  28.144  11.452  18.630  0.0760  0.0541  0.3574
21205W        W64196  28.242  19.012  25.132 -0.1422 -0.1852 -0.0129
21206W        W64197  20.528  32.376  19.437 -0.4216 -0.0618 -0.1892
21207W        W64198  23.995  22.761  24.200  0.0356  0.1025 -0.2413
21208W        W64199  11.113  20.768  17.607  0.2063  0.0680  0.3199
21209W        W64200   5.609  31.457  14.508 -0.0897 -0.1301 -0.0351
21210W        W64201  26.043  27.250  16.028  0.1180 -0.1497 -0.0261
21211W        W64202  27.089  25.370  14.009 -0.2877 -0.0647  0.0669
21212W        W64203  26.128   9.872  18.902 -0.1723  0.2061 -0.3837
21213W        W64204  14.490  24.782  27.518  0.1008 -0.2641 -0.1024
21214W        W64205   0.757  23.239  15.031 -0.2509 -0.1914 -0.2453
21215W        W64206   3.372  21.499   9.393  0.0129  0.0085 -0.1248
21216W        W64207  25.773  12.986  20.556  0.1405 -0.1387  0.0896
21217W        W64208   3.601  12.568  16.748 -0.2313 -0.1240  0.0058
21218W        W64209  23.134  16.739  17.068  0.0468  0.0038 -0.0149
21219W        W64210  33.191   6.656  18.274  0.0984  0.1074 -0.0374
21220W        W64211  28.475  20.544  17.591  0.1777  0.2876 -0.0615
21221W        W64212  29.516  18.185  23.409 -0.0284  0.2229 -0.3677
21222W        W64213  28.153   1.841  28.476 -0.1081  0.1404  0.0863
21223W        W64214  25.484  23.495  28.543  0.1066 -0.0824 -0.3352
21224W        W64215  18.608  22.724  17.601 -0.0100 -0.0913  0.1499
21225W        W64216  32.928   5.880  15.402  0.2146 -0.0314  0.0121
21226W        W64217  22.834  17.392  18.805 -0.1274  0.1589  0.0796
21227W        W64218  29.841  18.910  25.948 -0.1138 -0.0303  0.1506
21228W        W64219  11.297  10.105  17.897 -0.2261  0.1440 -0.2251
21229W        W64220  30.008   2.172  22.691  0.3189  0.0280 -0.0029
21230W        W64221   3.159  17.526  20.743 -0.1567 -0.0895 -0.1298
21231W        W64222  25.714   4.670  21.503  0.0180  0.1543  0.2462
21232W        W64223  21.435   0.269  23.500  0.1493  0.0186 -0.1510
21233W        W64224  27.018  17.779  15.270 -0.0259 -0.0639  0.1727
21234W        W64225  11.458  22.695  17.933  0.0525 -0.2814  0.0255
21235W        W64226  28.819  14.585   6.044  0.0310  0.0698  0.1376
21236W        W64227  17.922  27.391   0.484  0.3361 -0.0650  0.1493
21237W        W64228  27.499  21.335  20.374  0.2519 -0.2543  0.2137
21238W        W64229  15.157  19.166  14.655  0.2455 -0.0198 -0.2334
21239W        W64230  21.434  21.576   2.508  0.1203 -0.1711  0.0497
21240W        W64231  29.604  31.547  24.616  0.1331  0.2476  0.0347
21241W        W64232  23.265  17.904  13.174 -0.1220 -0.1205 -0.0005
21242W        W64233  32.742  33.023   0.625 -0.2324 -0.2631  0.0967
21243W        W64234  25.671  20.673  23.378 -0.5301 -0.0735 -0.2721
21244W        W64235  11.158  14.698  21.879  0.1065  0.1197  0.3111
21245W        W64236   1.399  23.245  28.355 -0.0946 -0.2283 -0.1064
21246W        W64237  34.075  25.503  21.081  0.0014  0.2347  0.0552
21247W        W64238   2.911   8.456  21.329  0.1930 -0.4168 -0.1269
21248W        W64239  20.821   8.952   5.249  0.1519 -0.1208  0.0388
21249W        W64240   0.473   7.743  21.191  0.1706 -0.1602  0.0804
21250W        W64241  28.000  25.499  14.545  0.0790  0.1729 -0.0905
21251W        W64242  21.320   8.292  18.361  0.2530 -0.0558  0.0773
21252W        W64243  11.242  16.764  14.323 -0.0416  0.1935 -0.0065
21253W        W64244  25.062  30.343  12.500 -0.0863 -0.0667  0.1944
21254W        W64245  10.644  10.552   1.393  0.0567 -0.3143  0.0216
21255W        W64246  29.897  21.043  27.633  0.0098 -0.1534 -0.1369
21256W        W64247  25.718  12.572  21.279 -0.1142 -0.4451 -0.1697
21257W        W64248  18.147  23.528  13.901 -0.0522 -0.0591  0.0252
21258W        W64249  18.035  28.899  29.174 -0.0657 -0.0744 -0.0247
21259W        W64250  33.076  19.672   0.546 -0.1752 -0.0176  0.3615
21260W        W64251  29.026  17.837  23.211  0.0725 -0.0263  0.3146
21261W        W64252  29.635  23.448  15.611 -0.0426 -0.0158  0.3667
21262W        W64253  23.725  17.650  13.047  0.0810 -0.0354  0.0536
21263W        W64254   2.436  21.798  27.036  0.0666 -0.0210  0.4896
21264W        W64255  31.727  26.089  19.535  0.0900  0.2242  0.2989
21265W        W64256  29.078  12.759  20.914  0.2263  0.0417  0.0339
21266W        W64257   3.748   0.364  20.784 -0.4529  0.3773  0.3532
21267W        W64258  30.332  34.230  26.016 -0.0930  0.3624  0.1272
21268W        W64259   2.924  19.188  19.245  0.1149  0.1881 -0.0010
21269W        W64260  29.439  21.185  25.395  0.1310 -0.2669 -0.1042
21270W        W64261  25.042   0.440  16.374 -0.1699 -0.0780 -0.1996
21271W        W64262  11.859  20.488   1.095  0.0540  0.0416  0.0282
21272W        W64263  12.873  22.644  27.009  0.2749 -0.1822 -0.3403
21273W        W64264  25.542   6.455  28.914  0.3619 -0.3351  0.1402
21274W        W64265  32.682  18.510  15.758  0.0134 -0.1839  0.0289
21275W        W64266  32.139  23.496  18.576 -0.0155  0.0556  0.0429
21276W        W64267  32.286  29.409   0.285 -0.1582  0.0429  0.2900
21277W        W64268  18.097  20.556  16.026 -0.1860 -0.1678 -0.1389
21278W        W64269  31.740  24.683  24.890 -0.3335  0.3077 -0.1365
21279W        W64270   6.593  14.129  26.739 -0.1746 -0.3466 -0.1374
21280W        W64271  31.637  25.185  21.688  0.2912  0.2792 -0.0017
21281W        W64272  30.832  23.489  16.177 -0.0588  0.1800 -0.0469
21282W        W64273  27.027  32.038  12.801  0.1453 -0.0245 -0.0652
21283W        W64274  20.986  33.742  22.281  0.0247  0.1343 -0.2153
21284W        W64275  18.972  18.395  23.273  0.0422  0.2212 -0.1484
21285W        W64276  13.633  24.224  18.199 -0.2214  0.0064  0.0849
21286W        W64277  22.657   3.521  13.450  0.3012 -0.0522 -0.0777
21287W        W64278   8.826  16.590  14.396 -0.1207 -0.1423  0.0433
21288W        W64279  34.571  11.780  28.308  0.0596  0.1873 -0.0769
21289W        W64280  18.065  29.116  23.195  0.0158  0.0632  0.0686
21290W        W64281  16.158   9.346  20.143 -0.1048 -0.2107  0.3347
21291W        W64282   3.700  17.716  26.544  0.3246  0.5966  0.2198
21292W        W64283   6.728  15.026  20.199 -0.4377  0.2115  0.0764
21293W        W64284   1.448  11.309  20.101  0.0976  0.3440 -0.3541
21294W        W64285  14.297  12.387  16.757  0.0954  0.0507 -0.1165
21295W        W64286  32.203  22.401  24.155 -0.1381 -0.0003  0.1631
21296W        W64287  19.051  11.436  19.861  0.0195 -0.1707 -0.1723
21297W        W64288  28.206  25.359  22.146 -0.0651 -0.1054  0.0828
21298W        W64289   8.385   8.305  23.187  0.0593  0.0104  0.4301
21299W        W64290  20.718  20.439  15.988 -0.1628  0.1769  0.0521
21300W        W64291  24.085  16.930  20.081 -0.0296  0.1079 -0.4093
21301W        W64292   4.730   7.088  21.475 -0.1596  0.2662  0.0270
21302W        W64293  18.562  27.657  25.718  0.0007 -0.1132  0.0046
21303W        W64294   2.583   1.856  20.886  0.1964  0.1184  0.0242
21304W        W64295  25.339  25.287  19.743 -0.0009  0.0953 -0.2849
21305W        W64296   0.869  11.469   1.278 -0.1963  0.2332 -0.0233
21306W        W64297  12.042   9.492  19.130 -0.3280 -0.0304 -0.0625
21307W        W64298  16.505  25.124  14.078  0.0525 -0.1623 -0.1206
21308W        W64299  17.407  27.538  22.197  0.3573  0.1591  0.0528
21309W        W64300  17.927  28.561  15.780  0.1365  0.1023 -0.0792
21310W        W64301  18.527  27.186   1.716  0.0247  0.3356  0.1761
21311W        W64302  31.193  20.748  21.273  0.0967 -0.2871 -0.2009
21312W        W64303  12.171  12.598  15.409  0.0566  0.0644  0.1862
21313W        W64304  29.278   2.827  18.372 -0.1945 -0.2070  0.2979
21314W        W64305  23.806  14.453   0.118 -0.1395  0.1973 -0.2799
21315W        W64306  31.253   3.252  25.253 -0.0320 -0.0532 -0.0482
21316W        W64307  16.408  14.639  24.411 -0.1401 -0.0336  0.2375
21317W        W64308  26.936  28.049  27.033  0.1172  0.2202 -0.0079
21318W        W64309  12.050  13.535  14.428 -0.2532  0.2185 -0.3166
21319W        W64310  25.753   6.769  26.806 -0.4778  0.0921 -0.1161
21320W        W64311   4.321  24.895   0.800  0.4421 -0.2104  0.0574
21321W        W64312  23.585   7.256  24.116 -0.2805  0.1965 -0.0802
21322W        W64313   6.699  18.539   0.254 -0.4229  0.1269  0.1534
21323W        W64314  27.469  13.083  21.463  0.1235 -0.3805  0.0101
21324W        W64315  15.997  25.587  14.675 -0.1298 -0.3519  0.0161
21325W        W64316  19.750  26.545  15.163 -0.2609  0.2638 -0.2950
21326W        W64317  21.188   9.605   3.790  0.1379 -0.0190 -0.0189
21327W        W64318  23.607  18.819  16.820 -0.0878  0.0318 -0.0695
21328W        W64319  34.582  13.099   3.576 -0.0318 -0.3600 -0.3084
21329W        W64320  25.971  29.820  21.720 -0.1873  0.2330 -0.2320
21330W        W64321  26.509  15.150  22.014 -0.2040  0.3887  0.1246
21331W        W64322   7.532   8.140  26.431 -0.1366  0.0143 -0.1694
21332W        W64323  33.480   7.466  23.242 -0.0556  0.0520 -0.1371
21333W        W64324  33.641   4.939  16.928  0.0245  0.3381 -0.0588
21334W        W64325  18.711  29.101  22.006 -0.0889  0.0593  0.0082
21335W        W64326  29.201  15.191  28.521 -0.2162  0.0503 -0.1563
21336W        W64327  19.560  27.879  24.410 -0.0359 -0.1960  0.3020
21337W        W64328  25.631  25.575  22.664  0.0791 -0.1917 -0.3434
21338W        W64329  11.971  20.141  27.526 -0.1353 -0.1239 -0.0705
21339W        W64330  30.972  28.848  13.053  0.3911 -0.3372  0.0889
21340W        W64331  19.085  32.683  22.040 -0.2316  0.1338  0.0868
21341W        W64332  27.729   8.447  20.390  0.1494 -0.0052 -0.0033
21342W        W64333  24.294   1.586  16.297  0.0522 -0.0907 -0.0046
21343W        W64334  30.804  31.681  12.867  0.1031 -0.2221  0.1847
21344W        W64335  31.893  17.553  15.219 -0.0011  0.0267 -0.1531
21345W        W64336  10.270  23.560   5.673  0.1567  0.1697  0.1509
21346W        W64337  24.228  24.314  17.864  0.1902 -0.0079  0.1699
21347W        W64338  17.952   3.249  20.359 -0.0031  0.0384  0.1907
21348W        W64339   1.199  10.926  23.845  0.2707  0.2356 -0.2920
21349W        W64340  26.734  15.647  22.915 -0.1657  0.0122 -0.0665
21350W        W64341  28.686  14.920  16.666  0.3450  0.1329  0.1757
21351W        W64342  11.765  13.677   4.629 -0.1232 -0.0023  0.0862
21352W        W64343  25.943  29.426  13.880 -0.3179 -0.1550  0.2803
21353W        W64344  18.640  11.494   3.016  0.1104  0.2575 -0.0359
21354W        W64345  32.628  26.312  24.753  0.2129  0.3047  0.1611
21355W        W64346  27.608  19.924  22.170 -0.0111 -0.1696 -0.0753
21356W        W64347  22.191  20.582  22.488  0.2065  0.1040  0.1187
21357W        W64348  30.460  32.356   3.898 -0.1881  0.3478  0.1937
21358W        W64349  27.603  13.089  17.356  0.0906 -0.0386  0.1826
21359W        W64350   0.226   8.402  10.815 -0.0162 -0.3771 -0.0242
21360W        W64351  32.644  21.146  23.399  0.5556  0.1945 -0.2103
21361W        W64352   1.740  33.848  19.292  0.2005 -0.0675  0.1305
21362W        W64353   4.540  21.405  28.823  0.0688 -0.1547  0.3176
21363W        W64354  30.397  17.862  20.306  0.0700  0.3342  0.1895
21364W        W64355   0.878   9.026   4.416  0.2639 -0.2760 -0.1013
21365W        W64356   5.815  22.040  17.501  0.1004  0.0040 -0.0902
21366W        W64357  22.636  27.369  19.038  0.2501 -0.0169 -0.0726
21367W        W64358  16.790   1.217  25.837 -0.1779 -0.0124 -0.0170
21368W        W64359  21.051  14.270  13.487  0.1657  0.2275 -0.2225
21369W        W64360  27.084   0.655  19.993  0.1363 -0.1320  0.2063
21370W        W64361  12.547  30.550  28.840  0.0726  0.1059 -0.2645
21371W        W64362   1.236  23.405  13.829  0.1094  0.2060  0.2197
21372W        W64363  14.301  34.581  15.587  0.1016  0.1077  0.4667
21373W        W64364  32.455  19.300  15.138 -0.2436 -0.0920  0.0715
21374W        W64365   2.796  31.629   5.655  0.1981  0.0000 -0.3547
21375W        W64366  32.624  22.411  16.061 -0.2002  0.0845  0.0190
21376W        W64367  22.065  31.699  23.585  0.0193  0.3084  0.1585
21377W        W64368  11.037  12.534  24.420 -0.1150  0.0688  0.1560
21378W        W64369  31.490  17.124   4.488 -0.0097  0.0114 -0.3197
21379W        W64370  14.831  10.380  26.086 -0.1598 -0.0851 -0.3108
21380W        W64371  11.696  28.349   1.300  0.3314  0.0755 -0.0930
21381W        W64372  27.852  25.483  26.473 -0.3278 -0.2292 -0.2573
21382W        W64373   5.092  30.310   4.667 -0.1873 -0.2057 -0.2115
21383W        W64374  23.843  22.745  20.809 -0.1456  0.0531  0.1243
21384W        W64375  15.699  10.644  17.671  0.0491  0.2053  0.0263
21385W        W64376  31.691  17.532  18.440  0.0146  0.0900  0.1045
21386W        W64377  13.037   2.306  15.646 -0.1321  0.2176  0.2175
21387W        W64378  24.590  15.881  25.668 -0.0011  0.0690  0.1931
21388W        W64379  33.623  15.943  17.840  0.0600 -0.1226  0.1549
21389W        W64380  18.712   4.231   0.769  0.1095 -0.1254 -0.3670
21390W        W64381   0.874   4.240   0.110  0.0830  0.2295  0.3248
21391W        W64382  28.442  21.188  24.028 -0.1534 -0.1432 -0.3038
21392W        W64383  21.373  32.761  19.058  0.1745 -0.2219  0.0533
21393W        W64384  18.341  23.191  20.479 -0.1143  0.1098  0.2222
21394W        W64385  21.227  20.296  27.180 -0.5465 -0.1752  0.1181
21395W        W64386   1.941  21.767  17.703  0.0795  0.0322 -0.1757
21396W        W64387  31.358  26.310  14.526 -0.1769  0.0644 -0.0215
21397W        W64388  22.652  28.183  26.248  0.2040  0.1111  0.4194
21398W        W64389  27.093  14.881  20.882  0.0511  0.1792 -0.0125
21399W        W64390  27.481   9.702  16.164 -0.0157 -0.0316  0.1074
21400W        W64391  20.341   9.609  25.892 -0.5274  0.0750  0.2459
21401W        W64392  13.757   8.917  17.942  0.2233  0.2481  0.2813
21402W        W64393  25.771  20.504  25.158  0.4535 -0.1988 -0.1885
21403W        W64394  27.305  34.753  18.020 -0.0211  0.0708  0.0376
21404W        W64395  31.979  34.021  12.854  0.2011 -0.0084  0.2761
21405W        W64396   7.548  13.803  26.783  0.0748 -0.1968  0.3405
21406W        W64397   3.662   4.274  22.471  0.1665  0.0977 -0.1965
21407W        W64398  25.288  28.228  25.531  0.1655  0.2568  0.1108
21408W        W64399  20.818  21.656  13.272  0.0514 -0.3005  0.1889
21409W        W64400  23.252   1.447  22.123 -0.1521  0.0610 -0.2363
21410W        W64401  30.683  17.363  23.360  0.0844  0.0224 -0.1115
21411W        W64402  10.621  29.043   3.439  0.0043 -0.2925 -0.0219
21412W        W64403  11.383  25.858  24.664  0.1838  0.0470 -0.0663
21413W        W64404  26.966  22.877  24.516  0.1283 -0.1747 -0.3294
21414W        W64405  23.387   8.418  22.391  0.3797  0.1136  0.4374
21415W        W64406  14.694  12.288  13.825  0.2538 -0.0072 -0.1132
21416W        W64407  17.477   3.973   0.493  0.1570  0.1722  0.0459
21417W        W64408   2.813  14.088  21.576 -0.1293  0.0961  0.1474
21418W        W64409  31.647  14.923  10.567  0.0799 -0.1277 -0.2105
21419W        W64410  34.340  28.826  26.584 -0.0932  0.0910 -0.1244
21420W        W64411  31.384  19.284  14.957  0.2775  0.1681  0.0623
21421W        W64412  30.725  27.798  21.629 -0.3211  0.0685 -0.2163
21422W        W64413  27.855  25.196  20.188  0.3962 -0.2920 -0.0244
21423W        W64414  24.976  23.586  25.715  0.0531  0.1445  0.2293
21424W        W64415  20.370  30.283  21.446  0.0600 -0.2932 -0.2354
21425W        W64416  21.308  30.137  15.832  0.0129  0.4051  0.0996
21426W        W64417   2.532  12.563  27.403 -0.2596 -0.1925  0.2563
21427W        W64418  10.420  26.433  24.032 -0.1185 -0.0806 -0.1337
21428W        W64419  29.562   2.572   4.109  0.0452  0.3765 -0.1402
21429W        W64420  28.205  26.434  26.356  0.3751 -0.0867  0.2023
21430W        W64421  21.704  11.151  20.737 -0.0994 -0.0311 -0.2831
21431W        W64422  18.582  20.541  17.834 -0.2318 -0.0088  0.1594
21432W        W64423   2.585  19.649  27.645 -0.0637  0.0844 -0.1542
21433W        W64424  28.511  26.182  22.554 -0.1188 -0.2522 -0.1639
21434W        W64425  23.307  22.083   0.115 -0.2110  0.3430  0.3848
21435W        W64426  23.634   6.561  25.283 -0.1327 -0.0077  0.0924
21436W        W64427   6.996  21.897  23.611 -0.2239 -0.0760 -0.1938
21437W        W64428  20.345  28.163  20.914  0.1730  0.1646 -0.0842
21438W        W64429   7.898  18.800  21.210  0.2468  0.1583 -0.1225
21439W        W64430  34.091  28.244   2.137 -0.0090  0.1006  0.1293
21440W        W64431  18.250   9.409  17.536  0.0815 -0.1615 -0.0044
21441W        W64432   2.542  18.211  17.454 -0.0935  0.1035 -0.1358
21442W        W64433  30.069  14.479  21.804  0.1046 -0.4099  0.4254
21443W        W64434  24.996  21.165  20.125 -0.0561  0.2391 -0.0210
21444W        W64435  21.884  21.596  17.538 -0.1281 -0.2795  0.2438
21445W        W64436  31.712  29.179  27.563 -0.3509  0.0703 -0.0064
21446W        W64437  34.162   9.970  17.603  0.2540 -0.0490 -0.2777
21447W        W64438  24.180  27.741  24.179 -0.2944 -0.2370  0.0586
21448W        W64439  24.279  12.165  16.625 -0.0353 -0.2471 -0.0623
21449W        W64440  24.485  20.084  22.017 -0.0220 -0.0977  0.2690
21450W        W64441  23.382  21.229  17.660  0.4829 -0.1419  0.3377
21451W        W64442  24.760   8.862  21.621  0.3832  0.0892 -0.0016
21452W        W64443  22.187  14.851  15.547 -0.4126 -0.1624  0.1365
21453W        W64444  27.213   9.635  28.822 -0.2165  0.1304 -0.1194
21454W        W64445   2.061  15.777   3.880  0.0462  0.1431  0.1950
21455W        W64446  31.309  19.800   0.839  0.0548  0.1827 -0.1089
21456W        W64447  16.776  15.908  27.042  0.1018 -0.0029  0.2272
21457W        W64448  15.844  32.672   1.677  0.0384  0.0643 -0.0194
21458W        W64449  20.428  16.703  26.805 -0.4968 -0.0141 -0.4798
21459W        W64450  30.831  33.559  19.582 -0.0045 -0.0882  0.0266
21460W        W64451   3.921  22.265  24.018  0.0724 -0.3278 -0.0981
21461W        W64452   1.574  13.215  21.223 -0.2060 -0.0304  0.0680
21462W        W64453  23.707  15.870  10.057 -0.2241 -0.3677  0.3388
21463W        W64454  26.351  24.682  16.279  0.0896 -0.2900  0.2836
21464W        W64455   3.069  26.239  28.680 -0.0171 -0.0617 -0.3233
21465W        W64456  11.702  26.955   7.084 -0.1232 -0.3502  0.2739
21466W        W64457  20.229  14.885   0.774 -0.3263 -0.0554  0.3170
21467W        W64458   9.577   9.507   0.138 -0.0689  0.1197  0.1977
21468W        W64459   3.904  14.975  18.707  0.1246 -0.0471  0.0610
21469W        W64460  30.240  25.777  24.611  0.1308 -0.2049  0.0503
21470W        W64461  11.314  10.782  21.674  0.1385  0.2749  0.1109
21471W        W64462  10.341  23.277  14.521 -0.0710 -0.3321  0.2014
21472W        W64463  26.288   0.276  13.337  0.1177 -0.1846  0.3493
21473W        W64464  15.852  17.337  13.346  0.1219 -0.1064  0.0122
21474W        W64465  33.923   0.970   0.310 -0.0107  0.5023  0.0833
21475W        W64466  11.728  34.678  24.554 -0.0459 -0.1495  0.0618
21476W        W64467  20.606  15.349  16.832 -0.2045  0.0034 -0.0321
21477W        W64468   5.472  14.357   9.807  0.1907 -0.1680 -0.0537
21478W        W64469  18.496  22.315  24.342  0.3678  0.2059 -0.2993
21479W        W64470  29.760  24.020  25.282 -0.1375  0.1647 -0.1897
21480W        W64471  32.121  28.203  22.995 -0.0102  0.0634  0.1849
21481W        W64472  27.194  17.276  15.127 -0.1570  0.2763 -0.0599
21482W        W64473   0.338   5.754   7.342  0.1898  0.1499 -0.1608
21483W        W64474  29.241  10.247   0.780  0.1163 -0.1519 -0.2319
21484W        W64475  21.617  26.239  22.133  0.0141  0.2915 -0.1998
21485W        W64476  30.438  12.536  25.512  0.0259  0.1742 -0.2757
21486W        W64477  31.682  12.186  16.219  0.1645  0.0337  0.1545
21487W        W64478  24.621  30.392   2.730  0.1432 -0.3357 -0.0561
21488W        W64479  19.356  11.242  22.867 -0.0968 -0.1667 -0.1236
21489W        W64480  24.184  31.382  24.605 -0.2303 -0.1947 -0.0199
21490W        W64481  28.005  22.550  14.022 -0.0682  0.3514 -0.2569
21491W        W64482  18.742  17.951   4.625 -0.0899 -0.1668 -0.4579
21492W        W64483  32.282   0.208  14.390  0.1955  0.0494  0.0606
21493W        W64484  10.885   4.759  17.446  0.0729  0.0626  0.0607
21494W        W64485  26.994  24.546  27.075  0.3627 -0.2721 -0.2803
21495W        W64486  33.224  21.036  19.111  0.1174 -0.1904 -0.1752
21496W        W64487  18.734  19.065  26.685  0.3667  0.2529  0.0006
21497W        W64488  19.810   9.157  17.704  0.0928 -0.0691 -0.0684
21498W        W64489  14.326  18.188  16.108  0.0203  0.0389  0.0665
21499W        W64490  30.511  13.107   8.832  0.0783  0.2153 -0.3241
21500W        W64491  34.450  31.562   5.009 -0.2304  0.2004 -0.1300
21501W        W64492  19.534  24.189  13.812  0.2025 -0.2230 -0.0278
21502W        W64493  19.926  13.344  17.771  0.1398  0.1420  0.0054
21503W        W64494   4.453  33.861  21.950  0.0611  0.1043 -0.0082
21504W        W64495  21.469  26.508  16.393  0.2030 -0.3559 -0.1115
21505W        W64496  33.163  20.579  19.339 -0.0941  0.0998  0.1322
21506W        W64497  22.329  12.030   1.020 -0.2275  0.1439  0.0646
21507W        W64498   3.052  26.100  14.764  0.3148  0.1270  0.0541
21508W        W64499  26.293   5.685  16.581  0.1390 -0.0441 -0.0050
21509W        W64500   8.659  27.084   1.050  0.1146  0.0400  0.0254
21510W        W64501   1.238  32.315  26.527  0.0563 -0.2949 -0.1523
21511W        W64502  24.614  10.729  26.486  0.1059  0.0226 -0.1464
21512W        W64503  31.843   1.582   0.963  0.0603 -0.0342  0.2341
21513W        W64504  16.722  20.510   7.747  0.0475  0.1012  0.2863
21514W        W64505  27.008  33.216  23.658  0.0778 -0.1328 -0.0342
21515W        W64506  30.989   4.979  22.936  0.0798 -0.0765 -0.0151
21516W        W64507  27.555  24.560  15.213 -0.0853  0.0848  0.0239
21517W        W64508   2.363  23.302  24.182  0.2154  0.2647  0.2774
21518W        W64509  23.825  26.377  22.888 -0.2082 -0.1417  0.1473
21519W        W64510  24.791  16.810  27.817 -0.2407 -0.0022 -0.0588
21520W        W64511  25.154   7.903  16.871  0.2632  0.1968 -0.0619
21521W        W64512  20.977  24.103  14.735 -0.2965 -0.0700 -0.0685
21522W        W64513  31.109  11.337  25.507  0.1756 -0.1124  0.1475
21523W        W64514   5.396  29.982  19.044  0.3884 -0.0292  0.0168
21524W        W64515  25.785  22.059  18.879  0.1791  0.2574 -0.0465
21525W        W64516  31.056  20.388   5.547  0.0287 -0.1720 -0.0236
21526W        W64517  19.574   8.646  18.388  0.2959  0.0553 -0.1398
21527W        W64518  33.388  19.572  17.000 -0.0403 -0.0346 -0.0120
21528W        W64519   2.202   3.008  18.282 -0.0510 -0.1134 -0.1337
21529W        W64520  21.632  31.167  21.051 -0.0095 -0.0289 -0.1808
21530W        W64521   1.645  28.398  27.489  0.1640 -0.1927  0.2165
21531W        W64522  19.755  24.249  19.709 -0.2269 -0.2426 -0.0725
21532W        W64523  24.006  28.440  28.722 -0.0536  0.1207 -0.1265
21533W        W64524  25.040   8.298  24.657  0.0195 -0.0360  0.2248
21534W        W64525  31.081  15.319  21.673 -0.2340 -0.0315 -0.0692
21535W        W64526  29.844  29.105  20.621 -0.2353 -0.0164 -0.2872
21536W        W64527  22.092  20.291  20.660  0.2569  0.1347 -0.0287
21537W        W64528   5.031  31.166  22.331 -0.0625 -0.0390 -0.0890
21538W        W64529  29.372   6.652  19.863  0.2035  0.2720 -0.0715
21539W        W64530  19.989  15.241  15.863  0.1855 -0.0875  0.2116
21540W        W64531   4.321  16.230   6.190 -0.0682  0.0952  0.0512
21541W        W64532   4.054   9.000   2.457  0.0061  0.1619  0.1018
21542W        W64533  20.630  17.444  15.443 -0.0108  0.1643  0.1170
21543W        W64534  30.964  22.238  23.768 -0.2164 -0.1621 -0.0474
21544W        W64535  24.003  25.016  23.676 -0.0599 -0.2285  0.0822
21545W        W64536  21.176  10.449  23.632 -0.1841  0.2812 -0.1510
21546W        W64537  13.423   8.378   3.327 -0.1259  0.2096 -0.2265
21547W        W64538   0.399  11.003  19.162 -0.3235 -0.0352  0.2995
21548W        W64539   9.029  21.599  18.481 -0.1100  0.0022 -0.0914
21549W        W64540  28.500  18.970  22.545 -0.5125  0.0153 -0.0269
21550W        W64541  33.607   8.081  25.296  0.2857 -0.1063  0.0389
21551W        W64542   8.631  12.450  25.005  0.2636  0.1010  0.0020
21552W        W64543  27.269  29.922  20.214  0.0483 -0.0483 -0.1660
21553W        W64544  26.745  14.328  21.606  0.1126  0.2696 -0.0543
21554W        W64545  22.408  28.211  20.202  0.2953 -0.0915 -0.1223
21555W        W64546  28.364  21.742  28.254 -0.0246  0.0571 -0.2643
21556W        W64547   1.361  19.128  25.722  0.0159 -0.2210 -0.3159
21557W        W64548  25.871  22.220   5.660 -0.0561  0.0386  0.0132
21558W        W64549   2.468  25.509  15.158  0.0293 -0.0041  0.0358
21559W        W64550  25.700  15.689  24.453  0.1547 -0.2120  0.3613
21560W        W64551  16.405  14.327  16.567  0.0645 -0.1078  0.0302
21561W        W64552  31.817  17.272  23.249  0.0240 -0.0762  0.0299
21562W        W64553  16.293  16.612  15.193  0.0933 -0.4170  0.0768
21563W        W64554  26.374  10.310   2.025  0.3069 -0.1053  0.1172
21564W        W64555   0.939  22.672   4.255 -0.4835 -0.0672 -0.1122
21565W        W64556  27.579   8.157  16.070 -0.0400  0.1489  0.3052
21566W        W64557  23.286  17.191  20.060 -0.0474  0.0921  0.0706
21567W        W64558   6.080  29.952  15.244 -0.0066  0.1290  0.2227
21568W        W64559   0.423  11.412  20.963  0.2978 -0.0194 -0.1660
21569W        W64560   1.413  17.069  20.910 -0.0317 -0.0274  0.1650
21570W        W64561  24.010   9.734   2.361 -0.1940 -0.0581  0.2860
21571W        W64562  32.383  27.856  20.779  0.1686  0.1957  0.1084
21572W        W64563  32.667   7.398  21.973  0.0573  0.2459 -0.1776
21573W        W64564   5.203  26.105  25.044 -0.0077  0.0781 -0.0556
21574W        W64565  23.900  26.755  22.457 -0.1815 -0.1468  0.5079
21575W        W64566  19.703  14.525  18.617 -0.1266 -0.0128 -0.0570
21576W        W64567  28.276  15.713  15.221 -0.0386 -0.0556 -0.0658
21577W        W64568  26.330   0.121  23.839  0.0586  0.2783 -0.2175
21578W        W64569  23.369  28.179   4.495  0.1379  0.0869 -0.3047
21579W        W64570  34.648   4.517   9.195 -0.0051  0.2833 -0.1422
21580W        W64571  29.553   3.191  15.678  0.1357 -0.1592 -0.0563
21581W        W64572   4.845  16.210   1.129  0.2350  0.0018  0.2296
21582W        W64573  11.682  24.620  17.231 -0.1748  0.1307  0.3383
21583W        W64574  14.593  26.791  23.783  0.2800 -0.0607  0.2095
21584W        W64575  25.726   2.808  16.215 -0.0941  0.1654  0.0382
21585W        W64576  26.344  14.804  15.706  0.1680  0.0742  0.3045
21586W        W64577  17.714  25.265  16.033  0.1652  0.2237 -0.0360
21587W        W64578   1.409  24.542  14.354 -0.2624  0.0109  0.2199
21588W        W64579  22.619  32.226  13.839 -0.1802 -0.1308 -0.1931
21589W        W64580  29.156  27.616  14.708 -0.0991  0.0708  0.0708
21590W        W64581  33.353  27.586  18.947  0.2354 -0.0263 -0.3846
21591W        W64582   2.085  13.343   4.959  0.3073 -0.1102  0.1000
21592W        W64583   1.528   8.010  20.050  0.4815 -0.0850  0.1868
21593W        W64584   4.155   4.441  26.833 -0.2038 -0.0379  0.2312
21594W        W64585   8.375   4.319  28.715  0.2170  0.3829 -0.2501
21595W        W64586  29.850  31.885  23.181  0.2121 -0.1052 -0.2371
21596W        W64587  29.804  23.561  19.194  0.0819 -0.0543 -0.2203
21597W        W64588   4.587   0.137   7.433 -0.0117  0.0028 -0.1139
21598W        W64589   0.610  31.176  20.799  0.1136  0.3478 -0.2172
21599W        W64590  26.960  20.238  22.872  0.1481  0.0476 -0.0356
21600W        W64591  29.253   7.625  18.227 -0.0342  0.0775 -0.1337
21601W        W64592  31.586  27.723  25.179 -0.1440  0.1719 -0.1663
21602W        W64593  32.774  29.188  28.559  0.1058 -0.0767  0.0807
21603W        W64594  12.512  16.114  22.959 -0.2958  0.2488  0.0638
21604W        W64595  26.164  20.051  26.000  0.0653  0.0282  0.0839
21605W        W64596  31.857  17.051  17.377 -0.2095 -0.2529  0.1650
21606W        W64597  27.875  22.908  27.610  0.0684 -0.1308  0.2282
21607W        W64598  21.401  18.919   7.818  0.1439 -0.2413  0.2200
21608W        W64599  25.925  17.321  15.094  0.0359 -0.0077  0.1453
21609W        W64600   2.083  21.813  18.714 -0.0896 -0.0339 -0.0239
21610W        W64601  33.461  26.151  27.076 -0.0041  0.4140  0.1923
21611W        W64602  27.894  19.726   7.573  0.1308 -0.0828 -0.1101
21612W        W64603  26.300  13.486  21.389 -0.2917 -0.1749  0.2186
21613W        W64604  11.252  27.933  25.148 -0.0493 -0.1363  0.0317
21614W        W64605  26.064  13.663  18.442  0.0487  0.1188  0.0406
21615W        W64606  25.089  20.946  21.686 -0.1882 -0.0884  0.0836
21616W        W64607  31.031   2.160   8.115  0.1771 -0.1654  0.0201
21617W        W64608  25.267  31.113  26.042 -0.0710  0.3174  0.1495
21618W        W64609   0.610  16.506   1.689  0.1213 -0.0321  0.4848
21619W        W64610  29.007  17.671  20.895  0.3195 -0.2210 -0.2841
21620W        W64611   5.372  17.972  15.342 -0.0271 -0.0218 -0.2194
21621W        W64612  17.778  15.757  13.013  0.0062 -0.0395 -0.3426
21622W        W64613   1.578  11.389  23.709 -0.1518 -0.0236 -0.0370
21623W        W64614  26.891   8.353   7.038 -0.2165  0.2583  0.0321
21624W        W64615  32.494  21.993  16.787  0.3067 -0.1697  0.4681
21625W        W64616   7.016   8.292  28.620  0.2108 -0.3183 -0.1121
21626W        W64617  24.945  30.723  20.369 -0.1850 -0.2424  0.0614
21627W        W64618  24.568  29.966  13.751  0.3430  0.1030  0.3692
21628W        W64619  33.026  31.353   5.554  0.0047 -0.0063 -0.1773
21629W        W64620   8.030  28.276  21.751  0.1089 -0.1030  0.1569
21630W        W64621  29.939  29.027  17.392 -0.1893 -0.1760 -0.0465
21631W        W64622  33.286  20.584  20.536  0.1071  0.1975 -0.1214
21632W        W64623  27.403  20.271  25.395 -0.1003 -0.2930 -0.1181
21633W        W64624  24.591  30.927  14.842 -0.0009  0.0272 -0.0495
21634W        W64625  28.354  16.216  15.517  0.0614 -0.1421  0.0691
21635W        W64626  24.739  20.551  15.970 -0.3804  0.3042  0.2534
21636W        W64627  13.536   6.336   3.529  0.2546 -0.2321  0.0085
21637W        W64628  26.010  29.709   9.181  0.2391 -0.6107 -0.0300
21638W        W64629   7.922  10.959  22.962 -0.2081 -0.1877  0.0793
21639W        W64630  32.877  23.820  25.942  0.1535  0.0461 -0.3648
21640W        W64631  20.988  14.623  22.048  0.2339  0.0479 -0.1400
21641W        W64632  31.895  34.145  28.490  0.1157 -0.0051  0.1995
21642W        W64633  20.574  28.384  14.114  0.4111 -0.0182  0.3100
21643W        W64634  32.247   8.716   2.391  0.0479  0.2023 -0.0344
21644W        W64635  21.003  31.870  24.045  0.0242  0.2250 -0.1981
21645W        W64636  25.650  16.741  19.264 -0.1483 -0.3590 -0.1150
21646W        W64637  30.501  28.905   5.119  0.0914 -0.2352  0.1292
21647W        W64638  13.646  18.329  24.384  0.3424 -0.0180  0.2108
21648W        W64639  31.662  34.157  17.565 -0.1577  0.0523 -0.0676
21649W        W64640   6.267  18.769  21.969 -0.0390  0.2589  0.1853
21650W        W64641  23.994  26.350  19.618 -0.2125 -0.3729 -0.2271
21651W        W64642  10.948   4.328  17.753 -0.0879  0.0791  0.0233
21652W        W64643   0.777  26.843  18.510  0.0330  0.0605  0.3824
21653W        W64644  23.726  24.867  14.317 -0.2089  0.1403  0.1656
21654W        W64645  20.184  24.410  29.030 -0.0129  0.2362  0.2414
21655W        W64646  24.173  19.064  17.243  0.0945  0.2633  0.2051
21656W        W64647  19.340  18.891   6.762  0.1064  0.0620  0.0595
21657W        W64648   4.576  13.670  17.674 -0.1593 -0.0099 -0.1165
21658W        W64649  21.053  25.836  22.614  0.0694  0.0780 -0.1012
21659W        W64650  30.717  34.533  23.569  0.1288  0.0039 -0.1774
21660W        W64651  22.440  20.198  22.650 -0.0140 -0.1204  0.0913
21661W        W64652  28.013   0.255  25.073  0.1037 -0.1367  0.1318
21662W        W64653  29.091  22.305   1.846  0.0925 -0.2202 -0.2553
21663W        W64654  12.291   0.658  19.768  0.1722  0.1437 -0.1511
21664W        W64655   6.232   5.674  27.149  0.1675 -0.1317 -0.0980
21665W        W64656   3.743  15.572   5.052 -0.1290 -0.1728  0.0025
21666W        W64657  11.661   9.236  18.202 -0.1200  0.1010 -0.0836
21667W        W64658  22.574  11.516   0.403  0.3490  0.1295  0.1201
21668W        W64659  18.958   9.446  13.061  0.0480 -0.0863  0.0097
21669W        W64660  17.799  25.984  19.912  0.0590 -0.3209  0.0581
21670W        W64661   3.040  28.493  29.026  0.0373  0.2356  0.0775
21671W        W64662   1.093  17.266  26.258  0.2651  0.4240  0.1899
21672W        W64663   2.560  20.313  20.101 -0.0196 -0.3398  0.0711
21673W        W64664  14.086  24.945  19.686  0.1569  0.1577 -0.4609
21674W        W64665  10.921  21.610  20.062 -0.1594  0.1166  0.2979
21675W        W64666  26.788  30.694  24.406 -0.0303 -0.1421 -0.1496
21676W        W64667   1.834  18.448   6.413 -0.1101 -0.0336 -0.0118
21677W        W64668  20.537   9.368  18.155  0.0305 -0.0313  0.0040
21678W        W64669  29.205   9.565  17.806 -0.1664  0.0208 -0.2373
21679W        W64670  19.239  23.455  23.148 -0.3314  0.0107 -0.1684
21680W        W64671  11.387  15.784  28.297  0.1043 -0.2403 -0.2829
21681W        W64672  21.907  10.674   0.906 -0.2432  0.3113 -0.1331
21682W        W64673  27.569  34.273   1.787  0.1907  0.2111  0.0498
21683W        W64674  10.377  19.430  19.548  0.0450 -0.1949 -0.0135
21684W        W64675  31.895   6.068  19.793  0.0824 -0.1522  0.1582
21685W        W64676   4.667  21.628  22.444 -0.1688  0.0481  0.0957
21686W        W64677  32.909   9.180  15.501  0.1261 -0.0027  0.1736
21687W        W64678  20.275   8.031  13.916  0.0703 -0.0077  0.1870
21688W        W64679  25.350  12.961  15.831  0.1199 -0.0868 -0.5334
21689W        W64680   2.709  12.830  27.842  0.1508 -0.2628 -0.1063
21690W        W64681   4.811  34.546   4.352 -0.1440  0.1465 -0.2145
21691W        W64682  20.084   1.738  19.257  0.2724 -0.0307  0.1521
21692W        W64683  26.269  20.753  17.822  0.5846  0.1090 -0.0120
21693W        W64684  23.999  14.989  15.929  0.2540  0.1590  0.1803
21694W        W64685  17.392   8.527   5.098  0.2892  0.0458 -0.1548
21695W        W64686  18.440   7.635  16.536 -0.1387  0.0406 -0.0355
21696W        W64687  11.828  22.659  20.150 -0.2931 -0.1595 -0.2223
21697W        W64688  21.053  23.433  16.902 -0.0055  0.1483 -0.1835
21698W        W64689  31.109  15.041   6.936  0.3995 -0.2157  0.0908
21699W        W64690  23.757  17.239  17.113 -0.1630  0.2139 -0.0738
21700W        W64691  30.805  11.905  29.090  0.0646  0.0094 -0.4496
21701W        W64692   1.340   8.706  15.660 -0.0860 -0.1731 -0.0294
21702W        W64693  19.499  11.055  18.622 -0.2346  0.1387  0.0748
21703W        W64694   1.098  23.426  23.553  0.1564  0.1865  0.1420
21704W        W64695  21.019  15.766   1.831 -0.0119 -0.0366 -0.2437
21705W        W64696  27.837   1.518  16.359  0.0438 -0.0189  0.1066
21706W        W64697  34.443   3.263   7.940  0.1709 -0.4193 -0.5302
21707W        W64698  29.772  25.600  22.255  0.0698 -0.0680 -0.0935
21708W        W64699  22.069  11.190  14.875  0.3546  0.0619  0.0698
21709W        W64700  32.811   2.941  15.931  0.1036  0.2168 -0.2072
21710W        W64701  21.036  24.610  16.725 -0.1740 -0.1265 -0.3660
21711W        W64702  26.741   9.327   6.726  0.3029  0.0984  0.1503
21712W        W64703  26.077  21.728  24.256  0.4436 -0.0420 -0.2641
21713W        W64704  11.936  19.415  23.760 -0.2045 -0.1471  0.4125
21714W        W64705  25.950  20.165  21.554  0.1280  0.0737 -0.0316
21715W        W64706   1.782   7.617  22.872 -0.1165 -0.1182 -0.2832
21716W        W64707   4.008  27.052  15.681  0.1817  0.1008  0.0405
21717W        W64708   4.077  24.954  24.771 -0.2439 -0.0385 -0.0757
21718W        W64709   2.857  15.283   8.477  0.1162  0.1859 -0.0598
21719W        W64710   2.817  34.031  21.021 -0.0533  0.3552  0.0952
21720W        W64711  28.806  27.770   1.088 -0.1410 -0.0179  0.2155
21721W        W64712   9.054  19.473   0.841  0.0615 -0.0650  0.0552
21722W        W64713  23.362  18.792  18.425  0.6225 -0.2175  0.1587
21723W        W64714  20.888  13.099  18.637 -0.2062  0.1012 -0.0292
21724W        W64715   9.306  28.191  15.970 -0.0678  0.0035 -0.0320
21725W        W64716  28.366  18.119  23.634 -0.1654 -0.0489 -0.0687
21726W        W64717  21.464  34.670  18.202  0.1581 -0.0270  0.2223
21727W        W64718  14.960  25.954  19.971  0.0684 -0.0505  0.1537
21728W        W64719  28.232  18.724  20.568 -0.2556 -0.1533 -0.3627
21729W        W64720  14.139  15.624  27.118 -0.2162  0.2232  0.1663
21730W        W64721   1.179   8.717  20.966 -0.3095 -0.2361  0.3425
21731W        W64722   2.857  22.993  25.744  0.1380 -0.1328  0.0679
21732W        W64723  32.409  13.018   7.425  0.0332 -0.1533 -0.1954
21733W        W64724  30.266  33.490  26.940  0.0158  0.0975 -0.0673
21734W        W64725  28.012  23.219  16.110 -0.1839  0.1145  0.2477
21735W        W64726  31.208  25.467  26.081  0.3952  0.3459  0.1123
21736W        W64727   6.427  16.166   9.597 -0.0161  0.0302  0.0752
21737W        W64728   8.415  11.321  21.174  0.2180 -0.5704  0.1228
21738W        W64729  24.119  16.506  19.748 -0.3126 -0.2011 -0.0625
21739W        W64730   0.823  22.758  17.474  0.1654 -0.1559 -0.1007
21740W        W64731  15.905  18.826   7.553  0.0978 -0.2413  0.0487
21741W        W64732  23.875   3.175  23.833  0.0184 -0.2103  0.1476
21742W        W64733  22.504  12.473   1.231  0.2118  0.3055 -0.0057
21743W        W64734  21.670  19.785  17.181  0.0096 -0.1970  0.2682
21744W        W64735  27.135  19.882  21.389 -0.1398 -0.1679  0.0021
21745W        W64736  28.613  28.309   0.102  0.0877  0.0312  0.1069
21746W        W64737  21.939  23.658  14.869  0.0568 -0.2673  0.1792
21747W        W64738   6.685   4.339  26.459  0.1429  0.1957  0.2098
21748W        W64739  22.452  32.275  28.593 -0.0702  0.0135  0.2611
21749W        W64740  29.580  26.063  17.365 -0.1260 -0.2878 -0.1092
21750W        W64741   8.575  22.510  16.395 -0.2026 -0.2696  0.0015
21751W        W64742   4.719  26.669  28.586 -0.0259 -0.1469  0.2059
21752W        W64743  13.831  28.723  14.709  0.4910  0.1596  0.2385
21753W        W64744  10.753  32.450  15.387 -0.2914 -0.0052  0.1611
21754W        W64745  15.620  20.472  22.307 -0.4149 -0.1775 -0.0517
21755W        W64746  31.183  28.971   5.048 -0.0289  0.0927 -0.2066
21756W        W64747  28.600  19.957  21.601 -0.0594 -0.2605  0.0856
21757W        W64748  22.721   2.116  20.162 -0.2019 -0.2518  0.1580
21758W        W64749  33.808  32.755  17.189  0.0229 -0.1981  0.0956
21759W        W64750  32.123  16.501  23.968 -0.1003  0.0228  0.2202
21760W        W64751  26.146  21.875  14.947 -0.0954  0.3674 -0.1146
21761W        W64752  33.672   7.945  19.306  0.2382 -0.1019 -0.1977
21762W        W64753  28.397   2.373  19.113 -0.3231 -0.0900 -0.2326
21763W        W64754  15.850  20.038  26.214  0.0640 -0.4879 -0.0656
21764W        W64755  11.504   6.695   4.793  0.2651  0.1800  0.2143
21765W        W64756  13.075  12.010  23.186 -0.0395 -0.2482  0.0677
21766W        W64757  14.092  23.214  22.660 -0.0005  0.0727 -0.0367
21767W        W64758  27.268  12.966  21.016 -0.1598  0.2117  0.1456
21768W        W64759  28.681   6.459  21.467 -0.4476  0.2991 -0.2002
21769W        W64760   9.081   8.986  27.073  0.0080  0.2630 -0.0561
21770W        W64761  30.266   7.039   2.720 -0.1259 -0.3493 -0.1012
21771W        W64762  19.968   8.290  22.218 -0.1143 -0.0416  0.1134
21772W        W64763  27.877  34.136  15.046 -0.3314  0.0862  0.1702
21773W        W64764   0.624  22.985  25.410  0.1054 -0.3565 -0.0548
21774W        W64765  26.407  13.813   4.988  0.0581  0.1041  0.1129
21775W        W64766  25.853  17.745  18.781  0.0916 -0.1515 -0.3940
21776W        W64767  31.099  25.816  26.413 -0.0749  0.4156  0.1155
21777W        W64768   5.933  21.807  23.613  0.0699 -0.2858 -0.0490
21778W        W64769  27.537  11.810  16.263 -0.1043 -0.1354 -0.1639
21779W        W64770   0.778  34.490  23.306  0.2430 -0.0240 -0.1878
21780W        W64771   4.085   4.139  16.702  0.1879 -0.4198 -0.1165
21781W        W64772  32.179  25.014  26.527 -0.2275 -0.0277 -0.1793
21782W        W64773  33.427  13.821  21.977  0.0688 -0.2464 -0.1399
21783W        W64774  23.332   7.621  23.860 -0.0154  0.1893  0.1527
21784W        W64775  32.083   2.111   2.324  0.0893  0.1736 -0.0567
21785W        W64776  27.565  20.424  16.265  0.4245 -0.3452  0.0935
21786W        W64777  29.829  30.867  27.904 -0.1206 -0.0283  0.0604
21787W        W64778  32.916  14.994   5.200  0.1627  0.0777 -0.2522
21788W        W64779   3.708   1.122   8.898 -0.1491 -0.0579 -0.1970
21789W        W64780  25.795   9.101  17.181  0.0535  0.1147  0.2477
21790W        W64781  26.647   2.624  26.118 -0.1257 -0.3146 -0.2081
21791W        W64782  28.216  20.961  27.034  0.1902 -0.0580  0.2282
21792W        W64783  31.065  20.122  17.606  0.1624 -0.0789  0.0940
21793W        W64784  19.592  22.528  28.721 -0.3468  0.1554 -0.4370
21794W        W64785  13.108  32.947  25.223 -0.2532  0.0882  0.1274
21795W        W64786   2.917  15.798  21.916  0.0521  0.0762 -0.0765
21796W        W64787  19.989   7.381  21.356 -0.1800  0.3460 -0.4313
21797W        W64788  26.389   3.199   7.150 -0.0697  0.1387  0.0010
21798W        W64789   4.678  32.599  17.891 -0.1446  0.0165  0.0302
21799W        W64790  28.418  33.435  13.509  0.0885  0.1077 -0.0801
21800W        W64791  28.802  21.287  20.290 -0.0943  0.0014  0.2700
21801W        W64792  21.329  20.486   2.651  0.3265  0.1012 -0.0753
21802W        W64793  18.009   2.959   0.416  0.1196 -0.1554 -0.1599
21803W        W64794  24.988  14.286  15.200 -0.0450 -0.0634  0.0190
21804W        W64795   4.528  17.038  16.990  0.0842  0.1016 -0.2371
21805W        W64796   8.664   3.863  24.344 -0.0829  0.1224 -0.0496
21806W        W64797  23.804   4.199   5.555 -0.1237  0.2141 -0.2169
21807W        W64798  32.061  16.180  16.769 -0.1114 -0.3774  0.0289
21808W        W64799  30.558  28.402  24.856 -0.2055  0.0106 -0.2404
21809W        W64800  25.410   4.969  24.369 -0.2825  0.1124 -0.2098
21810W        W64801   2.501  19.183   7.822  0.3476  0.0554 -0.0263
21811W        W64802  30.993  12.956   2.894 -0.2625 -0.2618  0.1476
21812W        W64803  31.257  26.878  14.427 -0.2787  0.2353 -0.1257
21813W        W64804  13.399   9.459  17.397  0.0603 -0.1510  0.0521
21814W        W64805  18.665   8.458  15.345  0.4086 -0.1049  0.0601
21815W        W64806  25.888  18.529   9.212  0.2225 -0.0957 -0.4042
21816W        W64807   1.400  13.174  24.686 -0.2304  0.1230  0.3382
21817W        W64808  30.973  15.949   7.681  0.1644  0.2515  0.1304
21818W        W64809  27.755  32.271   5.818  0.1789 -0.0891 -0.0658
21819W        W64810  20.011  20.120  13.613  0.2132 -0.4784 -0.1244
21820W        W64811  32.341  18.079  21.159 -0.0879 -0.0590  0.1925
21821W        W64812  34.401  20.986  27.912 -0.0997  0.0150  0.0093
21822W        W64813  28.180  20.080  25.484 -0.1238  0.2819 -0.0514
21823W        W64814  30.821   9.801  19.574  0.0736  0.0880 -0.0331
21824W        W64815  21.909  28.663  21.893 -0.0815 -0.2706 -0.2237
21825W        W64816   5.910  27.483  16.836 -0.0104  0.2378 -0.1578
21826W        W64817  29.859   8.295  17.629  0.1386 -0.2169  0.0214
21827W        W64818  23.595  23.810  20.488  0.0324 -0.2693  0.0854
21828W        W64819  29.084   0.536  14.508 -0.3705 -0.1232 -0.0757
21829W        W64820  29.852  11.632   1.466  0.3236 -0.1311  0.1581
21830W        W64821  20.817   3.875  21.939 -0.1027  0.2030 -0.3176
21831W        W64822  33.502  12.794  10.672  0.1521 -0.1887 -0.0661
21832W        W64823   0.349  30.870  26.073  0.3543  0.2239 -0.1610
21833W        W64824   5.468  10.372  22.155 -0.1462 -0.0424  0.0017
21834W        W64825   4.949  12.771  28.356 -0.2818  0.0233 -0.0691
21835W        W64826  21.665  15.012  17.765  0.3894  0.0409 -0.3398
21836W        W64827  26.967  29.396   2.945 -0.2235  0.2983 -0.3257
21837W        W64828  31.605   8.384  26.923  0.0379 -0.2748  0.0837
21838W        W64829  31.612  14.006  16.674  0.1085  0.0862 -0.0198
21839W        W64830  28.004  16.051  25.905  0.1761 -0.1214  0.1487
21840W        W64831  23.881  10.971  21.419  0.0137  0.0241 -0.1295
21841W        W64832   0.402  13.216   2.777  0.0183 -0.0496 -0.0140
21842W        W64833   5.500  30.743  21.707 -0.0671 -0.1554  0.2504
21843W        W64834  32.786   4.785  23.303  0.1939 -0.1876  0.2124
21844W        W64835  34.095   8.850  24.430  0.0817  0.0880  0.1500
21845W        W64836   7.556  25.004   5.512 -0.1116  0.1464  0.0283
21846W        W64837  10.869  13.893  14.604 -0.0147 -0.0823  0.0643
21847W        W64838  23.856  15.433  26.365  0.2724 -0.0201 -0.1786
21848W        W64839  13.165  28.176  28.145  0.2787 -0.1889 -0.1575
21849W        W64840   6.118  24.903  15.457  0.1472 -0.1119  0.1515
21850W        W64841  24.400  22.299  18.010 -0.2700 -0.2430 -0.0368
21851W        W64842   0.254  12.798  22.538 -0.2846  0.2503 -0.0604
21852W        W64843  22.228  16.711  13.053 -0.0653 -0.0796 -0.0197
21853W        W64844  28.420  10.121   1.303 -0.0524  0.0293  0.1417
21854W        W64845   7.116  30.067  22.492 -0.4040 -0.1569 -0.0984
21855W        W64846  25.165  31.157  24.899 -0.1882  0.2992 -0.1576
21856W        W64847  30.069  11.602  23.735 -0.2839  0.0840 -0.0602
21857W        W64848  12.527   6.223  17.641  0.1178 -0.0657  0.1353
21858W        W64849  11.761  33.216  20.535  0.0995 -0.1047  0.0864
21859W        W64850  33.963  33.603  19.169  0.1512  0.0432  0.0110
21860W        W64851  24.587   9.850  23.043 -0.0701  0.0103  0.0963
21861W        W64852  26.850  16.041   8.730  0.3054  0.0823 -0.0247
21862W        W64853   9.449  13.710  21.679 -0.0686 -0.2756 -0.0830
21863W        W64854  13.478  18.632   2.322  0.0391 -0.2987 -0.0023
21864W        W64855   2.284  14.293  28.824  0.1359  0.0352 -0.1493
21865W        W64856  28.448   7.222  29.219  0.4842  0.3112  0.1817
21866W        W64857  25.039   7.459  18.220  0.1217  0.1852 -0.0473
21867W        W64858   3.403  14.489  24.996 -0.1041 -0.0647 -0.2694
21868W        W64859  21.614  14.815  23.085  0.4172  0.2337 -0.2773
21869W        W64860   8.615  18.328  28.557  0.2089  0.2192  0.1801
21870W        W64861  32.209  15.630  17.888  0.2794  0.0772  0.1315
21871W        W64862  27.059   4.141  16.833 -0.0665 -0.0841  0.1506
21872W        W64863  13.699  21.431  22.501 -0.0556 -0.1986  0.0659
21873W        W64864  28.842  17.440  19.940  0.1876 -0.1097 -0.1400
21874W        W64865  14.422   3.110  27.228 -0.1417  0.4154  0.1757
21875W        W64866  32.710  21.303  14.449 -0.0323 -0.0033 -0.3314
21876W        W64867  20.669   1.072  13.496 -0.0066 -0.1612 -0.0036
21877W        W64868  30.419   4.286  29.124  0.2686  0.0023  0.0046
21878W        W64869  22.943  18.485  21.454 -0.1531  0.1161  0.3561
21879W        W64870  27.299  18.516  23.291 -0.0843 -0.0717 -0.2597
21880W        W64871  22.071  11.305  24.680  0.1711 -0.0187 -0.1140
21881W        W64872  15.391  26.587  14.358  0.0070  0.3342 -0.0361
21882W        W64873  11.280  24.464  14.874  0.3015  0.1594 -0.1562
21883W        W64874  31.272  20.812  26.666  0.1772  0.0936 -0.2256
21884W        W64875  34.182  18.527  28.510 -0.1042 -0.0938 -0.3045
21885W        W64876  30.060  27.662  27.561  0.1999 -0.1540  0.0130
21886W        W64877  30.922  24.465  17.850 -0.0626  0.1770 -0.1612
21887W        W64878  18.239  17.968   1.539 -0.1347  0.1766 -0.3281
21888W        W64879  25.406  33.790  15.473 -0.1787 -0.1216  0.2108
21889W        W64880   8.023  24.147  28.121 -0.2800  0.0074 -0.1307
21890W        W64881  24.861   3.695  13.073  0.1191  0.0086 -0.0049
21891W        W64882  31.757   7.217  20.974 -0.0299 -0.0477 -0.1622
21892W        W64883  15.369  14.322  14.133  0.1340  0.2294  0.0263
21893W        W64884  13.653  20.680  26.975 -0.0035 -0.1697  0.1489
21894W        W64885  19.010  24.708  15.356  0.0349 -0.3187  0.3396
21895W        W64886  21.670  22.794  22.454  0.0511  0.0240 -0.2891
21896W        W64887  23.267  16.997  27.515  0.6342  0.0904  0.0945
21897W        W64888  25.258  25.118  23.008 -0.1053  0.0158 -0.1634
21898W        W64889  16.901  11.414   7.368 -0.0691 -0.0228 -0.0388
21899W        W64890  19.657  12.911  22.262  0.1913  0.1542  0.1857
21900W        W64891  13.616   1.341   1.412  0.2049  0.1815  0.0360
21901W        W64892  30.310  34.583  14.204 -0.2032  0.1451  0.1153
21902W        W64893  16.417  28.078  16.724 -0.0076 -0.3045  0.0484
21903W        W64894  23.603  28.574  20.907  0.1079 -0.1593  0.3915
21904W        W64895  31.110  31.832  21.494 -0.1268  0.2304 -0.2475
21905W        W64896  26.207  23.681   3.525 -0.1509 -0.0874  0.1762
21906W        W64897   0.273  31.639  19.289 -0.0284  0.1039  0.0604
21907W        W64898   6.648   3.923  26.791 -0.0965 -0.0214 -0.2500
21908W        W64899   0.019   7.656  22.619 -0.3577  0.2455  0.2743
21909W        W64900  23.651  26.612  24.634 -0.2445 -0.0012 -0.0059
21910W        W64901  29.834  17.224   3.781 -0.1609 -0.2885  0.0341
21911W        W64902  29.137  19.737   9.584 -0.1961 -0.0582 -0.0330
21912W        W64903  28.169  12.881   8.617 -0.0371 -0.0691 -0.2059
21913W        W64904   0.881  20.743   1.448 -0.0291  0.0277 -0.2236
21914W        W64905  30.984  24.802   5.426  0.1138 -0.0856  0.2493
21915W        W64906  32.305  17.034  22.984 -0.2390 -0.0902  0.1239
21916W        W64907  32.911  24.980  15.903  0.0477  0.2884 -0.2008
21917W        W64908  16.913   2.245  15.108  0.0417 -0.5353 -0.1131
21918W        W64909  16.899   9.939  18.544  0.1770 -0.2701  0.2686
21919W        W64910  30.636  22.962  25.285  0.1199 -0.0199  0.2216
21920W        W64911  17.498  17.437  12.096 -0.1157 -0.0582  0.1572
21921W        W64912  30.905  13.964  25.299 -0.0052 -0.1046 -0.0201
21922W        W64913  33.540  22.063  28.165 -0.0970  0.0638 -0.0865
21923W        W64914  24.820  33.808   7.503  0.0237  0.0237 -0.1121
21924W        W64915  19.848   8.267   6.414 -0.4262 -0.1509 -0.0154
21925W        W64916   0.877  13.070  22.698 -0.0243 -0.1939  0.1379
21926W        W64917  20.346  23.095  16.383  0.1408  0.1576  0.2835
21927W        W64918  19.863   4.595  27.657  0.1416 -0.2186 -0.1453
21928W        W64919  14.604  14.213  24.725  0.3094 -0.2432  0.1274
21929W        W64920  27.843  21.840  24.016  0.2807  0.2936  0.5357
21930W        W64921  15.590  24.929  28.770  0.0854 -0.1069 -0.1486
21931W        W64922   7.922  17.253   5.762 -0.0322 -0.0771 -0.2288
21932W        W64923  31.372   8.461  17.681  0.1250  0.0705  0.1873
21933W        W64924  32.301  30.442   3.467  0.2835 -0.0068  0.0918
21934W        W64925  12.457  21.255  22.077  0.0597 -0.2100 -0.0249
21935W        W64926  30.426   1.744  18.849 -0.0109 -0.0802  0.0108
21936W        W64927  29.203   7.157  22.071  0.0317 -0.1983 -0.0436
21937W        W64928  14.296   7.095   0.777 -0.2360  0.0288  0.0393
21938W        W64929   4.167   4.580   7.772 -0.3581 -0.0566  0.2525
21939W        W64930   3.332  23.785  23.434 -0.0963 -0.3538  0.2652
21940W        W64931  12.657   5.473   0.899  0.3050  0.0519 -0.2800
21941W        W64932  24.519  18.477   7.942 -0.1499  0.2335  0.2204
21942W        W64933   2.227  25.415  22.589 -0.2121 -0.0232  0.1196
21943W        W64934  28.493  12.364  26.498  0.1774  0.2111  0.2718
21944W        W64935  14.315   3.376   3.603  0.2578  0.1907 -0.1793
21945W        W64936  14.419   9.801   3.995  0.1483 -0.1284  0.2960
21946W        W64937  26.755  16.969  19.172  0.2630  0.3143  0.0716
21947W        W64938  23.945  16.958  14.594  0.1249 -0.4467  0.2029
21948W        W64939  24.850  14.152   7.111 -0.1633 -0.3477 -0.0387
21949W        W64940  28.983   5.652  19.286 -0.1058 -0.3061  0.4537
21950W        W64941  27.400  28.429  16.930 -0.3917 -0.0149  0.4764
21951W        W64942  26.481  24.634  20.024  0.0729 -0.1715 -0.1112
21952W        W64943  31.544  23.460  28.230  0.0981 -0.0107 -0.2924
21953W        W64944  20.899  14.045  19.957  0.0093 -0.0853 -0.1311
21954W        W64945  23.265  19.475  29.202  0.1493 -0.2428  0.0801
21955W        W64946  31.701  18.678  23.479  0.4398 -0.0082 -0.0430
21956W        W64947   9.667  19.383   2.382  0.0900 -0.2660  0.0237
21957W        W64948  26.638   0.582  15.276 -0.2605 -0.1904 -0.0670
21958W        W64949  33.227   2.250  18.687  0.0637 -0.1524  0.0381
21959W        W64950  15.699  16.750   2.170  0.3182 -0.0507 -0.1491
21960W        W64951  16.503   0.570  20.910 -0.1743  0.0308 -0.0446
21961W        W64952   0.373  17.753  27.844  0.0754 -0.4314 -0.0301
21962W        W64953   6.963  20.249  22.946  0.0886 -0.0307 -0.1794
21963W        W64954   6.790  26.271  26.626  0.2005  0.1434 -0.4282
21964W        W64955  24.640  16.373  28.137 -0.1955  0.2696 -0.2210
21965W        W64956  23.513  27.773  24.430  0.0682  0.0409 -0.0394
21966W        W64957  20.676  28.509  14.615  0.0406 -0.0189  0.2439
21967W        W64958  29.552  34.755  19.179 -0.0088 -0.5868  0.0281
21968W        W64959  23.042  24.839  22.903  0.0244 -0.0435 -0.0002
21969W        W64960  24.464  16.830  14.686 -0.5219  0.0040  0.3771
21970W        W64961  23.621  25.420  18.617 -0.0872 -0.0515  0.1045
21971W        W64962  11.318  23.979  27.584  0.0078  0.0631  0.2482
21972W        W64963   8.511  26.333  17.828 -0.1459 -0.3957  0.0933
21973W        W64964  23.196   6.476  24.143 -0.2130 -0.0183  0.1083
21974W        W64965   5.380  28.729   1.422  0.0291  0.1686 -0.0233
21975W        W64966  22.137   8.617  19.795  0.2280 -0.0545 -0.3771
21976W        W64967  21.900  21.871  13.312  0.0519  0.1469  0.0641
21977W        W64968  24.340  18.878  23.373  0.1050 -0.2284  0.0671
21978W        W64969  24.501  17.152  13.218 -0.1433 -0.1209 -0.2373
21979W        W64970  26.645  19.647  18.616 -0.1183 -0.4449  0.0379
21980W        W64971  13.871  14.888  27.635 -0.0948  0.0696  0.0466
21981W        W64972  12.134  33.297   9.363 -0.2534  0.2599 -0.2033
21982W        W64973   6.193  18.753  16.438  0.0509  0.4293  0.3064
21983W        W64974  19.035  15.164  26.934  0.0280 -0.1464 -0.1056
21984W        W64975  29.040  25.021  25.358  0.0728  0.3482 -0.2664
21985W        W64976  27.725   7.282   1.661 -0.1123  0.0820  0.0193
21986W        W64977  27.228  30.721  27.112 -0.0220  0.1541 -0.2983
21987W        W64978  33.745   6.624  17.344 -0.4464  0.0662 -0.2307
21988W        W64979  22.372  21.542  21.461 -0.1895  0.1045 -0.2029
21989W        W64980   9.598  29.577  17.217  0.0290  0.1144  0.0357
21990W        W64981  22.353  20.714  13.507  0.1569 -0.1879  0.1396
21991W        W64982  22.072  25.264  23.595  0.2323 -0.0892  0.0397
21992W        W64983  24.401  10.603  15.618 -0.0762 -0.1113  0.1202
21993W        W64984  30.049  30.407   2.555  0.2729 -0.2742  0.2193
21994W        W64985   3.341   3.418   2.122  0.1817  0.0583 -0.1012
21995W        W64986  21.461  13.607   1.733  0.4915  0.0565  0.3263
21996W        W64987  31.817  27.590  16.974 -0.2828  0.0503  0.2639
21997W        W64988  32.000  18.634  14.925 -0.1891  0.2906 -0.0344
21998W        W64989   4.612  18.985   2.692 -0.4773 -0.0155  0.0756
21999W        W64990  19.543   8.096  28.952 -0.0340  0.0871  0.3515
22000W        W64991  17.619  24.293  23.206  0.1037 -0.0266 -0.0594
22001W        W64992  24.652  24.227  28.937  0.0456 -0.0371  0.1802
22002W        W64993   0.764  15.500  18.865  0.0091 -0.1829  0.0748
22003W        W64994  25.127   2.590  17.991 -0.1623  0.0342  0.0997
22004W        W64995  30.034  18.775   5.860  0.0669 -0.1767  0.0483
22005W        W64996  14.662  21.030   5.243  0.0453  0.2334  0.1792
22006W        W64997  22.113  23.735  27.064  0.0705 -0.1016 -0.1443
22007W        W64998  23.560   2.619  23.585  0.1608 -0.0577  0.3580
22008W        W64999  23.656   9.686  21.147  0.3386 -0.1703  0.1203
22009W        W65000   9.290   3.596  11.140 -0.1279 -0.1775 -0.0465
22010W        W65001   0.204  12.656  23.167 -0.0064  0.1684 -0.0860
22011W        W65002  25.848  31.106  28.782 -0.1778 -0.2582  0.0436
22012W        W65003  26.664  28.237   1.991 -0.0512 -0.1243  0.0012
22013W        W65004  30.938   3.618   5.673 -0.0069 -0.1773  0.1435
22014W        W65005  19.160   3.675  28.423  0.0595  0.2223 -0.2911
22015W        W65006  22.087  34.129  21.400 -0.0311  0.2961 -0.3599
22016W        W65007  27.812   7.094  13.290  0.3395  0.4330  0.2588
22017W        W65008  28.680  16.627  23.474  0.1831  0.0990  0.0955
22018W        W65009  30.210  34.473  29.245 -0.0718  0.0422 -0.1639
22019W        W65010  17.207  30.120  19.936  0.0038 -0.0354 -0.0105
22020W        W65011  15.611  12.256  28.185  0.1088 -0.3355 -0.0520
22021W        W65012  30.315  34.788  18.958  0.0718 -0.0056  0.0479
22022W        W65013  28.289   9.211  22.574 -0.1334 -0.2005 -0.2366
22023W        W65014  25.845   9.339   1.768  0.1357 -0.0174  0.1798
22024W        W65015  23.877   6.561  14.191 -0.0137 -0.1228 -0.3947
22025W        W65016   6.543  19.307  25.717 -0.0687 -0.1063  0.3119
22026W        W65017  24.607  13.394  23.276 -0.1739 -0.0363 -0.0497
22027W        W65018   5.647  34.371  24.400 -0.1759  0.1546  0.1344
22028W        W65019  33.674  27.289  18.638 -0.1967 -0.0757  0.0664
22029W        W65020  25.900   9.100  21.966  0.0958 -0.0514  0.0466
22030W        W65021  29.036  23.534  26.093  0.0547 -0.0739 -0.1883
22031W        W65022  30.526   2.163   0.898 -0.0580  0.0263  0.0054
22032W        W65023  33.502  32.479   0.383  0.1726 -0.3082 -0.1299
22033W        W65024  14.855  18.299   6.908 -0.2003  0.0441  0.0047
22034W        W65025  22.064  18.493  24.966  0.1501  0.0586 -0.0119
22035W        W65026  18.352   1.513  28.003 -0.2921  0.2027  0.3000
22036W        W65027  13.076   5.208   7.078  0.0202 -0.1319  0.1047
22037W        W65028  19.777  15.148  21.466 -0.2460  0.0213 -0.2255
22038W        W65029  26.126  15.511  25.037  0.1190  0.2594  0.0470
22039W        W65030  31.681  16.730  18.280  0.0797 -0.2544 -0.3700
22040W        W65031  25.577   7.043  28.212 -0.1213 -0.0516 -0.3336
22041W        W65032   7.989  11.214   3.824 -0.0917 -0.2112 -0.1337
22042W        W65033  28.538   7.000  15.434 -0.2101 -0.0420 -0.2925
22043W        W65034  30.573  10.819   7.556 -0.1994 -0.0460 -0.1162
22044W        W65035   4.425  15.320  24.999  0.0554 -0.2139 -0.3251
22045W        W65036   0.764  26.381  15.717 -0.1472 -0.1379  0.1687
22046W        W65037  19.961  25.209   0.997  0.1255  0.1628 -0.2374
22047W        W65038  20.057  15.416  17.299  0.0245  0.4186  0.1593
22048W        W65039  24.175  23.664  28.283 -0.3984 -0.1085 -0.0620
22049W        W65040   1.725  27.089  20.343 -0.0344 -0.0265 -0.1535
22050W        W65041  30.709  24.736  17.513  0.0846 -0.2288  0.2146
22051W        W65042  19.126  23.382   1.054  0.0386 -0.0591  0.4402
22052W        W65043  16.230  20.166  20.609  0.2002  0.0562 -0.0546
22053W        W65044  29.369  14.443  20.487 -0.2648 -0.1777 -0.2897
22054W        W65045  16.666  23.265  25.716  0.0047  0.4063 -0.0775
22055W        W65046  31.581  18.898  16.117  0.0402 -0.0993 -0.0675
22056W        W65047  21.248  25.288   8.831  0.1796 -0.0336  0.1595
22057W        W65048  21.119  12.264  27.952  0.0356 -0.0564  0.2673
22058W        W65049  29.019   6.875  19.018  0.0396 -0.3432  0.2184
22059W        W65050  10.984   3.969  28.403 -0.1156  0.1053  0.2139
22060W        W65051  27.725  12.684  23.411  0.2783 -0.1915 -0.0726
22061W        W65052  13.262  18.758  13.086  0.1494 -0.1998 -0.0267
22062W        W65053  21.636  29.403  19.266 -0.0361 -0.0061  0.2211
22063W        W65054   5.878  12.203  22.174 -0.0174 -0.1159 -0.1795
22064W        W65055  33.084   0.206  27.116 -0.1189  0.1092 -0.2870
22065W        W65056   1.656  23.132  25.765  0.0169  0.0999  0.1480
22066W        W65057  25.990  14.601  25.268  0.2601  0.0264 -0.2341
22067W        W65058  23.652  23.516   3.272 -0.3066 -0.0629  0.5250
22068W        W65059  24.006  19.422  14.060 -0.2171 -0.0522  0.0393
22069W        W65060   2.776  11.522   3.718  0.0091 -0.1608 -0.4057
22070W        W65061   8.165   6.365  17.277 -0.0475 -0.2318 -0.1094
22071W        W65062  27.064  14.888   8.580 -0.1811  0.0000  0.5756
22072W        W65063  32.658  19.180  17.888 -0.0459 -0.0930 -0.3163
22073W        W65064  26.772  11.376  26.663 -0.1544  0.2240 -0.0347
22074W        W65065  27.048   1.632  17.852 -0.2174 -0.0667 -0.1635
22075W        W65066   1.980   5.027   5.481  0.0580 -0.2226 -0.1858
22076W        W65067   1.655  16.318  20.804 -0.0173 -0.0401 -0.3288
22077W        W65068  17.088  21.161  15.692  0.1321  0.1402  0.0009
22078W        W65069  25.816   7.674  27.801 -0.0277  0.0557  0.3284
22079W        W65070  20.406  16.459  16.450  0.2553  0.3171 -0.1684
22080W        W65071  18.801  20.994  18.816 -0.0154  0.3585 -0.0112
22081W        W65072  22.290  21.527  26.045 -0.1834  0.0118  0.1302
22082W        W65073   3.133  27.689  21.871  0.2270 -0.2729  0.0882
22083W        W65074  29.752  27.740  26.069 -0.2619 -0.1608  0.2843
22084W        W65075  25.802   8.190  24.109  0.2101  0.2426  0.0401
22085W        W65076  19.123  20.904  12.748  0.1552  0.1356  0.0983
22086W        W65077  10.591   4.712  18.995 -0.2672  0.1065  0.2658
22087W        W65078  31.299   7.390  15.457 -0.0917  0.1516  0.0270
22088W        W65079  24.750   7.748  26.594 -0.0624  0.1338  0.2246
22089W        W65080   3.192  28.883  19.400 -0.0907  0.1444 -0.0710
22090W        W65081   2.916   6.032  20.769 -0.1700  0.0320 -0.2213
22091W        W65082  16.681  23.599  21.988 -0.1012  0.2913 -0.2844
22092W        W65083  17.720  30.294  24.342 -0.1379  0.1486 -0.4788
22093W        W65084  25.997  30.605  18.936 -0.1705 -0.0668  0.0156
22094W        W65085  20.680  23.285  13.649  0.1164  0.0810  0.0057
22095W        W65086  28.670  30.691  26.188  0.2043  0.2135 -0.2737
22096W        W65087  16.493  23.404  18.538 -0.0793 -0.2939 -0.0242
22097W        W65088  13.225  20.226  17.539  0.1752 -0.2248  0.3316
22098W        W65089  33.916  24.096  25.812 -0.2863 -0.3115 -0.0400
22099W        W65090  17.062  30.578  23.496  0.1877 -0.1273  0.0360
22100W        W65091  34.642  21.794  19.363  0.0754  0.0092  0.2550
22101W        W65092  30.198  18.935  29.037 -0.2068  0.0532  0.3175
22102W        W65093  31.271  23.850  28.736  0.0092 -0.0833  0.0784
22103W        W65094  20.471   4.070  28.165 -0.2937 -0.1754 -0.1825
22104W        W65095   1.324  26.061  19.886  0.0563  0.0648 -0.1629
22105W        W65096   8.085  13.396   1.489  0.0557  0.2619  0.2508
22106W        W65097  12.638  22.456  19.951  0.1906  0.1175  0.1110
22107W        W65098  21.382   3.432  21.457  0.4786  0.4528 -0.2664
22108W        W65099  26.734  23.943   4.919 -0.2174  0.2325  0.0583
22109W        W65100  14.597  20.636  22.013 -0.0363 -0.3365 -0.0170
22110W        W65101  26.647  26.744  20.524 -0.1392 -0.0133 -0.3582
22111W        W65102  16.102  20.735  14.489 -0.3807  0.0575  0.1249
22112W        W65103  24.887  18.161  21.058  0.1165  0.2134  0.4561
22113W        W65104  21.159   9.685  20.476 -0.0258  0.0111  0.0031
22114W        W65105  16.076  17.685  15.916  0.0794  0.0841 -0.1363
22115W        W65106  28.938  24.415  19.102 -0.4043 -0.0230 -0.1059
22116W        W65107   6.579   6.227  15.203  0.0289  0.2361  0.0050
22117W        W65108  29.152  23.297  21.625 -0.0762 -0.1427  0.2304
22118W        W65109  30.317  18.630  15.082 -0.0064  0.0568  0.2585
22119W        W65110  26.323  27.754  23.764  0.2809 -0.3165  0.0952
22120W        W65111  29.775  25.100   6.086  0.2340  0.1712  0.0345
22121W        W65112  21.431  22.312  16.740  0.0361  0.1657  0.1439
22122W        W65113  17.016  14.239  20.546 -0.1584 -0.1261 -0.1571
22123W        W65114   4.242  29.596  18.376  0.1678 -0.0736  0.1698
22124W        W65115  26.752  16.323  20.991  0.1915  0.3154 -0.1125
22125W        W65116   9.647  17.672  25.126 -0.4698 -0.0596  0.1711
22126W        W65117   0.921  21.365  23.733  0.0823  0.2030 -0.2653
22127W        W65118  11.240  19.538  18.613 -0.2669 -0.1509  0.2401
22128W        W65119  23.133  16.580  25.227 -0.0601  0.2681 -0.3121
22129W        W65120   3.667  16.718   0.455  0.0590 -0.0484  0.0544
22130W        W65121  11.094   4.163  16.715 -0.0248 -0.0053 -0.1559
22131W        W65122  30.645  19.840  27.454  0.1663 -0.3600  0.0114
22132W        W65123  32.069  21.290  28.538 -0.1260 -0.0587  0.0485
22133W        W65124  26.258  27.451  15.071 -0.1709 -0.1265  0.1579
22134W        W65125   4.384  10.130   2.852 -0.2281 -0.1829 -0.3979
22135W        W65126   2.354   9.013   9.917 -0.1243  0.1675  0.1382
22136W        W65127  34.670   2.770  23.802 -0.0687  0.0755  0.0382
22137W        W65128  31.303  12.356  18.157 -0.0562 -0.2100 -0.1070
22138W        W65129  11.881  19.047  25.912  0.2205 -0.2353 -0.1158
22139W        W65130  10.862  19.922  18.634  0.0930  0.1959  0.0528
22140W        W65131  18.406  28.367  28.232 -0.2213  0.0437  0.1191
22141W        W65132  25.469   8.237  22.111  0.2375  0.5505  0.5017
22142W        W65133  34.454  19.282   8.839 -0.0821 -0.0863  0.2277
22143W        W65134   1.600  14.991  15.815  0.2043 -0.2778 -0.0188
22144W        W65135  23.741  20.938  25.200  0.1662  0.2377  0.0563
22145W        W65136  17.739  25.874  10.059 -0.1258  0.1626  0.2498
22146W        W65137  30.531   9.438  18.404 -0.2403 -0.1297 -0.0300
22147W        W65138  21.807  17.110  20.070 -0.1928  0.2001  0.0237
22148W        W65139  21.192  25.259   4.612 -0.0550  0.2457  0.1451
22149W        W65140  17.413  15.226   6.662 -0.1049 -0.2867 -0.0457
22150W        W65141  30.393  18.289   0.821 -0.2558 -0.2080 -0.0501
22151W        W65142  33.886  29.307  16.520  0.1423 -0.0862  0.1752
22152W        W65143  19.039  29.520  21.873  0.2742 -0.3101  0.1165
22153W        W65144  15.254  34.486  19.187 -0.4565  0.1051  0.1265
22154W        W65145  30.459   9.191   6.114 -0.1654  0.4332 -0.2366
22155W        W65146  22.114  10.340  20.761 -0.0856 -0.1860 -0.3341
22156W        W65147  34.131  19.859  15.972  0.1485  0.0334  0.2772
22157W        W65148  31.470  11.424  21.575  0.1430  0.1196 -0.1751
22158W        W65149  11.420   3.564  16.508 -0.0495  0.4736  0.2266
22159W        W65150   6.629  16.240   1.633  0.0798  0.1440  0.1123
22160W        W65151  32.574  32.756  17.708 -0.1037 -0.2089 -0.0134
22161W        W65152  31.308  31.966   2.730 -0.1199 -0.1309  0.0302
22162W        W65153  26.883  21.337  27.213  0.0541  0.2850 -0.0369
22163W        W65154   1.514  26.138  17.653  0.4120 -0.1227  0.2482
22164W        W65155  11.011   9.947  21.885  0.1172  0.1314 -0.0282
22165W        W65156   3.140  14.944  19.126  0.1102  0.0046  0.0509
22166W        W65157  32.962  18.259  15.442 -0.0446  0.0847  0.1497
22167W        W65158  25.292  14.860  22.603 -0.2342  0.0571  0.0003
22168W        W65159  29.459  20.071  19.269  0.3625 -0.0304  0.1428
22169W        W65160  32.169   8.075   4.587  0.0376  0.0541  0.0502
22170W        W65161   8.339   0.804  16.419  0.2360  0.2170  0.1928
22171W        W65162  28.378  21.906  26.211  0.2347 -0.1436  0.0874
22172W        W65163  25.925  19.869  19.391  0.0999  0.0560  0.0800
22173W        W65164  15.925  27.470  17.899 -0.1240 -0.1490  0.0693
22174W        W65165  29.930  27.615  23.152 -0.0426 -0.0631  0.0744
22175W        W65166   0.407   3.967   6.120  0.0802 -0.3947  0.0763
22176W        W65167  20.179  17.991   2.104  0.1381  0.2171 -0.0920
22177W        W65168   4.037  26.740  16.955  0.1960 -0.0464  0.0920
22178W        W65169  18.583  33.892   1.890  0.0740 -0.2798 -0.1286
22179W        W65170  24.820   7.916  23.810 -0.1563  0.1358 -0.4663
22180W        W65171   0.986   0.689   4.314 -0.0690  0.2075  0.1212
22181W        W65172  24.145  13.172  13.522 -0.1181 -0.0317 -0.0633
22182W        W65173  29.158  18.260  19.948 -0.0217  0.2065  0.0875
22183W        W65174  26.030  25.791   3.128  0.0327 -0.0222  0.1711
22184W        W65175  13.559  12.413  23.190 -0.0192  0.1174  0.0456
22185W        W65176  15.904   9.434   0.793  0.2111  0.0207  0.1291
22186W        W65177  15.978  21.356   9.006  0.3279 -0.0062  0.1758
22187W        W65178  16.239   5.484  16.686 -0.0811 -0.0464 -0.2030
22188W        W65179  31.650  29.718   0.884 -0.1442  0.0341 -0.0621
22189W        W65180  20.673  11.406  19.462 -0.1691  0.0243 -0.2190
22190W        W65181  29.069  20.674  18.269 -0.1298 -0.0014 -0.0004
22191W        W65182  24.448  12.597   4.933 -0.2762 -0.0760  0.1636
22192W        W65183  31.178  19.429   9.336  0.2258  0.0631 -0.1552
22193W        W65184  15.315  24.165  21.340 -0.3000 -0.1015  0.3334
22194W        W65185  32.445   5.492  23.757  0.2994 -0.0136  0.0128
22195W        W65186  33.315  24.300  13.990  0.0074 -0.0986  0.2419
22196W        W65187  20.379  12.561   7.825  0.1022  0.0455 -0.0108
22197W        W65188  28.058  14.338   1.619 -0.0032 -0.1106  0.1337
22198W        W65189  33.501   3.261  20.522  0.0516  0.1155 -0.3963
22199W        W65190  27.904   0.579   3.082  0.2036 -0.2271 -0.2096
22200W        W65191  19.663  34.472  26.360  0.0275 -0.0959  0.0855
22201W        W65192  13.565  23.486  26.350  0.0437  0.0707  0.5742
22202W        W65193  31.787  10.265   9.134 -0.1031 -0.0978 -0.0415
22203W        W65194   1.825   9.846  26.678  0.1312 -0.1716  0.1985
22204W        W65195  27.138  15.560  25.019  0.1878 -0.1471 -0.1027
22205W        W65196  27.369   7.933  28.570  0.1493 -0.2780  0.1300
22206W        W65197  30.643  16.329  10.121  0.1201 -0.0732  0.0854
22207W        W65198  25.521  20.576  19.071  0.3969 -0.1314 -0.0384
22208W        W65199   0.858  28.988  28.422  0.1013 -0.2533  0.1119
22209W        W65200  11.893   3.504   5.530 -0.1235  0.2763  0.3275
22210W        W65201  12.241  34.493   0.866  0.2557  0.0309 -0.2862
22211W        W65202  20.852  15.856   3.182  0.2300  0.3993 -0.0196
22212W        W65203   0.500  14.269  10.749  0.2237 -0.0661  0.0351
22213W        W65204  14.631  22.146   2.834 -0.0097 -0.0727 -0.0710
22214W        W65205  33.451  23.763  15.355  0.0296  0.0151  0.6011
22215W        W65206  28.138  12.271   1.801 -0.1137  0.0316  0.2990
22216W        W65207  25.551   2.161  20.424  0.0338  0.2267 -0.0666
22217W        W65208  23.307  24.552   5.696  0.0606  0.0490 -0.2659
22218W        W65209  26.513   5.643  22.229 -0.2365  0.1724  0.0506
22219W        W65210  24.720  18.551  23.536  0.1557  0.0383 -0.7801
22220W        W65211   8.899  21.488  25.369  0.1402 -0.1482 -0.1271
22221W        W65212  17.991   6.393   9.202 -0.1780 -0.0471 -0.1612
22222W        W65213  33.384  15.447  29.061 -0.2255 -0.0789 -0.1869
22223W        W65214  13.382   3.712  24.097  0.2445 -0.2789 -0.0254
22224W        W65215  21.591  21.245  23.716 -0.1542 -0.1988  0.1620
22225W        W65216  29.939  21.741  16.069  0.2503 -0.1761 -0.0236
22226W        W65217  11.616  33.109  23.685  0.1711  0.0996 -0.0019
22227W        W65218  22.663  19.354  28.549  0.1110 -0.1035  0.1792
22228W        W65219   0.677  17.232  26.630 -0.0357 -0.1796  0.1449
22229W        W65220  12.157  20.489  21.740  0.1547 -0.0274  0.0992
22230W        W65221  28.325   9.880  20.620  0.0382  0.0186 -0.0727
22231W        W65222  31.116  13.348   4.663  0.0214  0.0627 -0.3944
22232W        W65223  13.591  12.878  17.270  0.0896  0.0463 -0.2339
22233W        W65224  24.211  21.244  25.018  0.2034  0.0622 -0.1052
22234W        W65225  13.172   5.291  17.522  0.0431  0.2893  0.1182
22235W        W65226   3.848  16.854  24.592  0.1512 -0.0180  0.0016
22236W        W65227  23.743   8.799  23.148 -0.0331 -0.1452 -0.2264
22237W        W65228   2.403  23.969  23.306 -0.0597  0.0919  0.0541
22238W        W65229  32.319  21.586  23.240  0.0912  0.0412  0.0896
22239W        W65230  11.546  17.049  22.052 -0.1196  0.1055  0.0149
22240W        W65231  29.339   2.185  25.928 -0.0141 -0.2770  0.0434
22241W        W65232  23.199  23.469  18.500  0.0592 -0.0659  0.3060
22242W        W65233  19.332  15.404  27.287 -0.3473  0.0278  0.3858
22243W        W65234  32.103  12.322  18.688  0.1680 -0.3504 -0.1123
22244W        W65235  25.651  32.601  23.355  0.0413  0.2665 -0.2176
22245W        W65236  16.216  15.920   2.960 -0.1295 -0.1170  0.1029
22246W        W65237  22.028  13.211   6.797  0.0959  0.1329 -0.0019
22247W        W65238  11.646  22.728  19.633 -0.2576 -0.0585  0.4102
22248W        W65239  24.797  15.317   9.452 -0.1134 -0.2323  0.0853
22249W        W65240  21.934  12.531  16.929 -0.1173 -0.0302  0.1950
22250W        W65241  33.270   6.252  15.152 -0.3197  0.0181 -0.2150
22251W        W65242  33.035  17.575  23.370 -0.0130  0.0856 -0.2020
22252W        W65243  21.951  27.132  24.322  0.0975 -0.0335  0.1147
22253W        W65244  19.729  22.559  15.186 -0.0841 -0.0456  0.1101
22254W        W65245  21.476  16.634  20.294 -0.2055 -0.0967  0.1738
22255W        W65246  20.904  30.202   0.975 -0.2294 -0.0468  0.1451
22256W        W65247  25.377  19.127  17.588 -0.0329 -0.0156  0.0893
22257W        W65248  31.590  14.278  17.596 -0.1385  0.1431  0.0759
22258W        W65249   0.972  22.436   9.024  0.4237 -0.4130 -0.1514
22259W        W65250  26.002  18.165  23.592  0.1895  0.1621  0.0553
22260W        W65251  26.564  11.765   8.401 -0.1424  0.1922  0.2178
22261W        W65252  29.360  29.051  13.348  0.3033  0.0446 -0.1194
22262W        W65253  33.887  17.295  17.558  0.1048  0.2993 -0.2216
22263W        W65254  16.867   8.406   5.013  0.0676 -0.1157 -0.0984
22264W        W65255  21.267  19.014  27.858 -0.1264 -0.2405 -0.0519
22265W        W65256  16.217  13.218   6.858 -0.0374  0.0072 -0.0961
22266W        W65257  17.698  25.989  17.631 -0.0489  0.4153 -0.4347
22267W        W65258   1.811  31.631  23.556 -0.0896 -0.0875  0.0781
22268W        W65259   8.933  26.624  16.870  0.0880  0.0722 -0.2144
22269W        W65260  16.521  12.320  19.377  0.1999  0.4105  0.1084
22270W        W65261  22.397   9.262   0.106 -0.1652 -0.0918  0.2392
22271W        W65262  23.878  11.999   4.185  0.0801 -0.1394  0.2474
22272W        W65263   1.189   8.652   7.592  0.0720 -0.1505 -0.2670
22273W        W65264   9.694   7.193  11.486  0.0773 -0.2243  0.2237
22274W        W65265  12.593  11.788  26.471 -0.0373  0.0957 -0.1216
22275W        W65266  10.387  16.844  22.199 -0.2475 -0.0639 -0.0060
22276W        W65267  20.880   6.306   6.927 -0.4326 -0.1622  0.0018
22277W        W65268  23.388  15.885  14.569  0.1629  0.1307 -0.0293
22278W        W65269  22.474  10.654   8.485  0.0238  0.1232  0.0817
22279W        W65270   2.360  16.034  17.518  0.0213 -0.0869  0.1646
22280W        W65271  19.855   7.403   3.935  0.2837 -0.0584 -0.1544
22281W        W65272  23.948  13.843  20.188  0.0109 -0.0279  0.0621
22282W        W65273  10.836  24.896   7.296 -0.0883  0.2911  0.3482
22283W        W65274  15.703   0.591  19.673  0.0504  0.2177 -0.1806
22284W        W65275   0.059   5.355   9.039 -0.1864  0.1299  0.2620
22285W        W65276  22.956  15.256   9.136 -0.2028  0.2959  0.3759
22286W        W65277   4.166   4.571   1.506  0.1522 -0.4338 -0.0714
22287W        W65278  21.141  16.958  14.410  0.0122  0.2765  0.4977
22288W        W65279  33.450  32.721  13.116 -0.2128  0.2572 -0.0396
22289W        W65280  19.333  17.078   5.207 -0.1404  0.1078 -0.0360
22290W        W65281   7.102  20.513  17.808 -0.0027 -0.1749 -0.0080
22291W        W65282  27.202  27.985  18.219 -0.0241  0.0614 -0.0753
22292W        W65283  30.257  12.089   7.406  0.1801  0.2223 -0.0614
22293W        W65284  19.111   9.191   4.622  0.2331  0.2020  0.1400
22294W        W65285  17.736  12.438  25.206 -0.1121  0.0877 -0.0705
22295W        W65286  32.800  18.857   5.421  0.1122 -0.0243  0.0792
22296W        W65287  31.107  28.523  28.140  0.1929 -0.1006  0.2951
22297W        W65288  25.896   3.181   1.256 -0.2873  0.0133  0.1251
22298W        W65289   2.845  28.781  24.878  0.1038 -0.3100 -0.2885
22299W        W65290  13.915  12.886  23.107 -0.0153  0.1255 -0.2443
22300W        W65291   2.162  21.040  10.092  0.0023 -0.2269 -0.3366
22301W        W65292  26.407   0.701  15.885 -0.2226  0.2218 -0.1229
22302W        W65293   7.552  22.542  17.874 -0.1397 -0.0966 -0.1386
22303W        W65294  31.235  30.736   2.991  0.1055 -0.0653  0.0242
22304W        W65295  24.960  15.518  25.581  0.5989  0.1288  0.0843
22305W        W65296  29.408  20.416  16.162 -0.1109  0.0306 -0.1186
22306W        W65297  25.308  19.123  13.663 -0.2997  0.3016  0.1458
22307W        W65298  21.365   8.748  16.598  0.1646  0.1595  0.1143
22308W        W65299  14.108  14.533   7.666 -0.1668 -0.2561 -0.3023
22309W        W65300  27.253  23.502   7.243  0.2616 -0.0459 -0.0786
22310W        W65301  29.181   0.637  22.101  0.1016  0.1192 -0.0614
22311W        W65302  34.563  21.948  25.801 -0.1292  0.1400  0.1215
22312W        W65303  20.617  15.754  24.017 -0.0710 -0.2830 -0.1572
22313W        W65304  30.627  14.154   0.005 -0.2243  0.0889 -0.0642
22314W        W65305  32.544  19.134  27.890  0.0356  0.1770  0.0422
22315W        W65306  16.816  26.950   7.945 -0.0641  0.2259 -0.1505
22316W        W65307  15.238  24.558  21.782 -0.0989 -0.0782  0.0566
22317W        W65308  19.007  19.180  14.130  0.3836 -0.0269 -0.1218
22318W        W65309  15.292   8.922   6.716  0.2032 -0.1567 -0.2755
22319W        W65310   1.167   4.993  19.347 -0.4055 -0.0732  0.1493
22320W        W65311   7.683  20.385   0.477  0.1855  0.1199  0.0645
22321W        W65312  24.656  17.771  21.740  0.3137  0.1412  0.0224
22322W        W65313   5.969  15.640  18.658 -0.1675  0.4207  0.1088
22323W        W65314  31.797  19.231   0.127  0.0654 -0.1895  0.0903
22324W        W65315  27.023  26.032   5.391 -0.2868 -0.1766  0.0177
22325W        W65316  22.760  31.066  22.854 -0.0755 -0.1377  0.3397
22326W        W65317  34.487  23.499  17.888 -0.2826 -0.0314  0.0890
22327W        W65318  29.447  20.665  25.604 -0.0780 -0.2125  0.1670
22328W        W65319  25.415  19.985   2.330 -0.2436  0.0014  0.0622
22329W        W65320  20.120  28.719  27.791  0.1735 -0.0315  0.2060
22330W        W65321   3.450  10.496   4.441 -0.1407  0.1878 -0.0187
22331W        W65322  34.225   8.708   6.510 -0.0862 -0.1056  0.0091
22332W        W65323  19.347  20.863   6.032  0.2876  0.1153  0.1460
22333W        W65324  17.711  33.563  25.456 -0.1180 -0.3695 -0.1857
22334W        W65325  32.452  17.401   1.245  0.1777  0.0346 -0.1578
22335W        W65326  33.924  17.304  19.537  0.3757  0.0051 -0.1747
22336W        W65327  18.274  10.746  20.028 -0.1484 -0.0473  0.2191
22337W        W65328  12.996  14.308  10.312 -0.1057  0.1209 -0.2356
22338W        W65329  26.891  13.846  27.939  0.0639 -0.0429  0.1572
22339W        W65330   7.100   3.994   6.726  0.0055 -0.0350  0.3158
22340W        W65331  14.720  12.727  25.739  0.1150  0.0915  0.1764
22341W        W65332  21.336  18.844  16.226  0.0598 -0.1679 -0.0124
22342W        W65333  28.705   2.045  24.913  0.3219 -0.0814 -0.1008
22343W        W65334  27.424   5.223  26.212  0.1146 -0.0920  0.0259
22344W        W65335  15.702   4.795  10.076 -0.3635  0.1203 -0.1154
22345W        W65336  14.505  16.700  14.950  0.0349 -0.0667  0.0231
22346W        W65337   1.115  34.489   3.092  0.0012  0.1999  0.1615
22347W        W65338  21.570  13.771  20.301 -0.0816 -0.1492 -0.0938
22348W        W65339  10.416   7.373  10.417  0.0330  0.3535  0.0821
22349W        W65340  20.739   6.531  24.343  0.3252 -0.2550  0.2861
22350W        W65341  19.339  10.259  19.439  0.2545  0.2235 -0.1992
22351W        W65342  28.813  12.154   3.320  0.1932 -0.0034  0.0205
22352W        W65343   9.496  27.393  16.257  0.2225  0.1600 -0.0861
22353W        W65344   3.954  27.937   6.812  0.3424  0.2010  0.4159
22354W        W65345  27.909  13.895  28.985  0.0358 -0.1032  0.1860
22355W        W65346  21.223  16.742   6.608  0.3049  0.0504  0.0536
22356W        W65347  30.622  17.374   2.385 -0.0599  0.2354 -0.0027
22357W        W65348  11.538   2.048   5.466  0.1171 -0.1177  0.0049
22358W        W65349  25.262  33.367   3.986  0.1117 -0.1212  0.2193
22359W        W65350  23.391  28.119  20.247 -0.1446 -0.0462 -0.1029
22360W        W65351  24.785   8.690  27.799 -0.0373  0.1081 -0.1721
22361W        W65352  26.205  17.099  19.839 -0.2802  0.1834  0.2468
22362W        W65353  29.085  14.456  21.021 -0.0052  0.0790  0.1292
22363W        W65354  34.579  20.914   5.202  0.0623  0.1365 -0.0243
22364W        W65355  23.692  17.441  13.645 -0.0614  0.5902 -0.0840
22365W        W65356  23.269  11.767   0.033  0.2043  0.0728  0.2282
22366W        W65357  33.325  33.201  26.124  0.1097  0.1361  0.2593
22367W        W65358  22.153  10.819  22.662 -0.1898  0.4722  0.0559
22368W        W65359  14.757  30.069  27.144 -0.1327  0.0249  0.0253
22369W        W65360  18.579  34.283  20.430  0.0226  0.0986  0.0913
22370W        W65361  31.275  12.897  21.041 -0.2795 -0.1210 -0.2728
22371W        W65362  26.330  16.014  26.504 -0.0170  0.1726 -0.0096
22372W        W65363  27.708  10.673  20.457  0.1736  0.1572 -0.3895
22373W        W65364  23.437  15.943  26.084  0.1731  0.1533 -0.0834
22374W        W65365  34.033   1.626  23.313 -0.1528 -0.3448 -0.0618
22375W        W65366  21.012   8.758  28.570  0.1200 -0.2243  0.0172
22376W        W65367  22.972  24.713  28.835 -0.0714  0.0451 -0.1372
22377W        W65368  32.132  25.052  19.427 -0.0535  0.1705 -0.4054
22378W        W65369  16.433  27.681   6.870 -0.1367 -0.1961 -0.1054
22379W        W65370  26.914  12.397  17.412 -0.1596 -0.2291 -0.4577
22380W        W65371   3.085  17.242  19.711 -0.0438  0.2863 -0.3109
22381W        W65372  30.844  25.595  27.379  0.0278 -0.0054  0.0994
22382W        W65373   0.342  10.983  26.843  0.0838 -0.0593 -0.0111
22383W        W65374   1.548   9.991   7.739  0.0606 -0.1121  0.0291
22384W        W65375  17.825  25.184  20.144 -0.2196 -0.1199 -0.1852
22385W        W65376   0.863  11.033  26.674  0.2175  0.3344  0.2687
22386W        W65377   3.128  10.266   0.118  0.0610  0.1067 -0.1914
22387W        W65378  28.171   8.647   4.363  0.1950 -0.0332  0.0967
22388W        W65379  22.535  26.228  15.018  0.3430  0.2794 -0.1955
22389W        W65380   2.983  17.726  19.813 -0.0886 -0.1441 -0.1689
22390W        W65381   9.058  18.158   4.837 -0.0473 -0.0338 -0.2076
22391W        W65382  20.892   1.683  14.899 -0.3551  0.0775 -0.2984
22392W        W65383  27.758  23.965  21.736 -0.3304  0.0938 -0.1769
22393W        W65384  13.270  11.009  19.546 -0.0240 -0.2800 -0.1829
22394W        W65385  24.026  20.389  26.608  0.3383  0.0996  0.3237
22395W        W65386   4.875   4.967   0.483 -0.0731  0.0898  0.3907
22396W        W65387   3.275   4.643   0.087 -0.0815 -0.1496 -0.0003
22397W        W65388  29.358  17.353  26.401  0.0040  0.0714 -0.1954
22398W        W65389  25.317  23.170  21.975  0.0201 -0.0980  0.2939
22399W        W65390  32.131  10.579  23.074  0.3244 -0.0659  0.2007
22400W        W65391  20.353  30.476   4.173 -0.2114  0.1967 -0.0869
22401W        W65392  12.539   9.588  25.620  0.0421  0.2824 -0.0919
22402W        W65393   7.999  13.428  29.001  0.3688  0.1386 -0.1590
22403W        W65394  29.588   3.497  26.429  0.0120 -0.0328 -0.2384
22404W        W65395   5.827   6.699   2.930  0.0658 -0.1327  0.0769
22405W        W65396  28.880  23.324  16.297  0.2584  0.2645  0.2865
22406W        W65397   3.124  34.329  25.163  0.0755  0.2192 -0.3465
22407W        W65398  20.822  17.312  16.620 -0.0730  0.1042 -0.0321
22408W        W65399  28.766   1.560  13.496  0.0075  0.0661  0.0986
22409W        W65400  18.717  12.389  28.598 -0.1110  0.2227  0.0900
22410W        W65401  19.112  18.408  26.595  0.3235  0.1381  0.2210
22411W        W65402   2.424  22.683   4.887  0.0333  0.1049 -0.2076
22412W        W65403  26.509  19.148  26.693 -0.2331  0.0241  0.1327
22413W        W65404  21.015  31.304  13.644  0.1012  0.1504 -0.2608
22414W        W65405  24.316  14.695  20.471  0.0106 -0.1280 -0.1647
22415W        W65406  21.864  12.506  26.076 -0.0968 -0.2001  0.1677
22416W        W65407  24.168   0.404   7.994 -0.4583  0.0838  0.3774
22417W        W65408  18.384  34.605  25.335  0.1398 -0.0542 -0.1585
22418W        W65409  19.596  26.607  27.416  0.1246  0.1088 -0.0806
22419W        W65410  27.336  21.145   9.818  0.0409  0.1192 -0.2544
22420W        W65411   7.144  25.132   1.245  0.2648  0.0065  0.1188
22421W        W65412  28.964  27.486  12.795  0.4005 -0.2282 -0.1152
22422W        W65413  18.365  34.222  14.418 -0.0005  0.1044 -0.1244
22423W        W65414  10.073  12.147  24.624 -0.4654  0.0457  0.2935
22424W        W65415  14.023  13.177  14.857  0.2770  0.0880 -0.1797
22425W        W65416  18.544   7.384  22.672 -0.0017  0.3946  0.0206
22426W        W65417   9.186  15.464   6.726 -0.0001  0.1752 -0.0633
22427W        W65418  33.662  20.106   5.702  0.0251  0.0415  0.0397
22428W        W65419  12.854  14.119  23.487 -0.2139  0.1043  0.1867
22429W        W65420  19.733  19.516  23.144  0.1708 -0.0348 -0.1037
22430W        W65421  31.203   6.898   5.623  0.4675 -0.0682 -0.0048
22431W        W65422  32.514   5.329   9.963  0.0706 -0.1946  0.1796
22432W        W65423  21.514  25.860  17.017  0.2043  0.1327  0.0829
22433W        W65424  30.713  27.709   8.228 -0.0454 -0.0571  0.2417
22434W        W65425   4.646  32.403  27.550  0.0396  0.0646  0.1561
22435W        W65426  32.559   7.548  23.521 -0.3522  0.0846  0.1181
22436W        W65427   5.701  33.957   0.825 -0.0744 -0.1077  0.2014
22437W        W65428  30.069  22.059  21.646 -0.2422 -0.0787  0.1415
22438W        W65429  23.923   9.719  14.646 -0.0459 -0.1644 -0.2580
22439W        W65430  27.385   9.543  22.665  0.0675 -0.1945 -0.0327
22440W        W65431   1.211  22.469   2.906  0.0038  0.0889  0.1232
22441W        W65432  24.211  23.022  25.686 -0.2824  0.0349  0.1352
22442W        W65433   3.282  22.236   8.294 -0.0053  0.1524  0.2410
22443W        W65434  29.562  23.595  25.545  0.0605 -0.0333  0.1441
22444W        W65435  27.469  26.763  27.814 -0.0516 -0.2044  0.1709
22445W        W65436  24.648  20.281   2.681 -0.0528 -0.0029 -0.1471
22446W        W65437  17.632  34.713   7.613 -0.2836 -0.2502 -0.1396
22447W        W65438  11.724  12.846   2.972  0.1933  0.3321  0.0660
22448W        W65439   6.723  27.923   9.221  0.0699  0.1566  0.0152
22449W        W65440  27.877  31.341  21.165  0.2165  0.0656 -0.0108
22450W        W65441   2.560   7.565   5.657 -0.0688 -0.1959  0.1263
22451W        W65442   1.899  23.787  25.997  0.2537 -0.1123 -0.0817
22452W        W65443  28.834  25.310   5.742  0.1211  0.1015  0.2108
22453W        W65444   9.803   5.089  21.771  0.1122 -0.1911  0.0707
22454W        W65445  18.765   7.788  22.497 -0.1052  0.3615  0.1110
22455W        W65446  29.786  22.888  16.892 -0.2782  0.1840  0.0189
22456W        W65447  25.413  15.278  23.351  0.2512  0.0285  0.3194
22457W        W65448  25.353   9.455  21.078 -0.0230  0.1539  0.2281
22458W        W65449  11.455  17.801  19.293 -0.2886  0.4186  0.0610
22459W        W65450  16.363  18.561   5.703 -0.2638 -0.0798 -0.1869
22460W        W65451  29.476   2.185  28.752 -0.0274 -0.3628  0.3217
22461W        W65452  28.073  17.156   6.490  0.2895 -0.2203 -0.2972
22462W        W65453  23.896  17.125  25.302 -0.0577 -0.3565  0.0806
22463W        W65454  23.357   8.827   4.371  0.0229 -0.1270  0.0617
22464W        W65455   0.424  20.378   1.422  0.3409  0.2766 -0.3378
22465W        W65456   9.650   1.332   1.288  0.0619 -0.0011  0.2522
22466W        W65457  26.824   4.294   5.233 -0.1412 -0.1992  0.1038
22467W        W65458  25.149  25.928  27.624  0.2725 -0.2349  0.2076
22468W        W65459  10.413  18.557   7.412 -0.2831 -0.0865 -0.3397
22469W        W65460  29.417  21.533   6.380 -0.2537  0.2444  0.3417
22470W        W65461  21.613   6.520  26.355 -0.1950 -0.1717  0.0327
22471W        W65462  28.427   5.589  25.090  0.3705 -0.0577 -0.0406
22472W        W65463   4.116  26.255  26.907  0.0927  0.3044  0.0762
22473W        W65464  10.018  23.414  20.214  0.2920  0.2631  0.2499
22474W        W65465  29.074   9.950   6.587  0.0048  0.0801 -0.1346
22475W        W65466   4.374  14.264   5.632  0.1045  0.0513 -0.1528
22476W        W65467  31.861  16.707   0.096  0.1392  0.0585 -0.0932
22477W        W65468  30.056  13.396  20.415 -0.0484  0.1593 -0.1770
22478W        W65469  10.831  22.259  20.880 -0.0378 -0.3149  0.2356
22479W        W65470  23.558  29.696  19.994  0.2233  0.0306 -0.1685
22480W        W65471  26.513   3.978  29.121  0.0304 -0.1357 -0.0497
22481W        W65472  13.100  19.042   5.584  0.0533  0.0728  0.3042
22482W        W65473  22.110  28.596   1.958 -0.0204  0.2317 -0.6988
22483W        W65474   5.795   5.400   5.309  0.0251 -0.2084 -0.0910
22484W        W65475  29.446  26.318   4.053  0.3495 -0.2820 -0.1047
22485W        W65476  28.356  26.982  21.426 -0.0162 -0.1046  0.1629
22486W        W65477  34.451   7.844   3.081  0.1187 -0.0822 -0.3082
22487W        W65478   1.651  11.074  27.364  0.0891  0.1239  0.0441
22488W        W65479   5.140  18.499   8.792  0.2931 -0.2596  0.1732
22489W        W65480   6.322  32.695  22.539  0.2261  0.0158 -0.2031
22490W        W65481  30.146  14.055  23.414 -0.1239 -0.1945 -0.0289
22491W        W65482  30.249  14.392  18.552 -0.0471  0.0073 -0.1971
22492W        W65483  28.413  26.570   6.637 -0.0442  0.2879 -0.0564
22493W        W65484  13.232  19.725   4.150 -0.1206 -0.0489 -0.0429
22494W        W65485  33.531   2.171   4.163  0.0771  0.2960  0.0094
22495W        W65486  29.418   8.247   8.088  0.1137  0.0639 -0.1030
22496W        W65487  31.819  17.370  26.612  0.1428 -0.0049  0.0444
22497W        W65488  33.134  16.742   0.938  0.1481 -0.1661 -0.1848
22498W        W65489  24.244   5.555   6.983 -0.1501 -0.2731 -0.1714
22499W        W65490  11.502   8.217  15.846 -0.1631  0.0516 -0.0969
22500W        W65491  15.217  22.629  26.020  0.1698 -0.0002  0.1720
22501W        W65492  32.766  28.429  27.506  0.0533 -0.1121 -0.1697
22502W        W65493  23.633  26.597   4.741  0.0768 -0.0112 -0.3732
22503W        W65494  22.647  12.826  25.017 -0.2300 -0.1559 -0.1265
22504W        W65495  16.048  18.409  15.246 -0.1010  0.1111  0.1138
22505W        W65496  33.648   5.597   5.707  0.2167  0.0645 -0.0057
22506W        W65497  19.527  12.645   7.755 -0.1568 -0.2003 -0.0521
22507W        W65498  20.790  20.996  12.718  0.1268  0.1436 -0.1494
22508W        W65499  33.561  20.096  20.476 -0.0705 -0.2676  0.0494
22509W        W65500  22.637  27.473   8.327 -0.0160  0.7374  0.0023
22510W        W65501  23.567  24.792  23.284 -0.1531  0.0573  0.0742
22511W        W65502  33.751  20.144  19.496  0.1697 -0.0977 -0.2113
22512W        W65503   0.690  23.683   8.281  0.1186  0.0939 -0.1465
22513W        W65504  20.401  12.731  17.984  0.0979 -0.2081  0.2867
22514W        W65505  28.102  23.242  25.815  0.2206 -0.1004 -0.1107
22515W        W65506  10.046   9.466  22.294 -0.1707 -0.0618  0.1096
22516W        W65507  25.442  19.889  25.233  0.2024 -0.0083  0.1001
22517W        W65508  29.249  13.558  18.819  0.0866  0.2521 -0.3044
22518W        W65509  30.276  12.054   4.511  0.1388  0.1092  0.0501
22519W        W65510  18.356  20.743  18.817  0.2915  0.2665 -0.1459
22520W        W65511  24.770   9.004  18.306  0.4536 -0.0316 -0.1196
22521W        W65512   7.946  16.181   3.531 -0.0864  0.0419 -0.0157
22522W        W65513   7.161  25.065   8.248  0.1748  0.0192  0.0757
22523W        W65514  20.245  21.482  16.601  0.0212  0.0460  0.2714
22524W        W65515  27.858  21.810  22.674  0.2413  0.1978 -0.0195
22525W        W65516   5.759   3.542   4.849 -0.1319 -0.1911 -0.1482
22526W        W65517  14.176  18.051   6.087  0.0209  0.0277  0.1489
22527W        W65518   4.238  10.666  26.629  0.0891 -0.0317 -0.0494
22528W        W65519   6.352   4.106  20.340  0.0562 -0.0149  0.0393
22529W        W65520  34.602  10.404  17.045 -0.3171 -0.2085 -0.0926
22530W        W65521   3.329   3.733  26.502  0.2604 -0.0630  0.0136
22531W        W65522  17.634  12.346  29.084 -0.0418  0.2277 -0.2473
22532W        W65523  26.451  26.487   0.729 -0.3053  0.1517 -0.0425
22533W        W65524  16.169   6.123  27.423 -0.2232 -0.0955  0.3314
22534W        W65525  28.574  10.504   0.066 -0.0383  0.1410  0.2536
22535W        W65526  26.249  26.627   2.146 -0.0597 -0.2729  0.0002
22536W        W65527  21.004  14.640   7.098  0.3210 -0.1136  0.3175
22537W        W65528  24.926   6.329  25.346 -0.1904  0.1582  0.0388
22538W        W65529   9.101   5.096  28.803  0.0423  0.2735 -0.2982
22539W        W65530   3.736   2.165  27.777 -0.5295 -0.1388  0.0988
22540W        W65531  27.018  15.579   4.243 -0.0157 -0.0621  0.0030
22541W        W65532  20.678  26.743  23.476 -0.3033 -0.1789 -0.0510
22542W        W65533  22.512  18.569  16.604 -0.0416 -0.1158  0.0753
22543W        W65534  22.047  29.051  25.976 -0.0762  0.0533  0.1296
22544W        W65535  23.017   7.798  25.621  0.0013  0.0329 -0.0963
22545W        W65536  19.546  12.675  27.668 -0.0232  0.1861  0.1373
22546W        W65537  17.009  11.757  26.490 -0.2511 -0.4027 -0.1209
22547W        W65538  34.053   8.528  29.213  0.1431 -0.0238 -0.1091
22548W        W65539   6.059  20.617  17.766 -0.0729 -0.1380  0.2533
22549W        W65540  32.226   3.789   4.625 -0.0310 -0.1139  0.3000
22550W        W65541   3.609  17.783   8.520  0.2351 -0.1152  0.1325
22551W        W65542  20.908  12.236  14.592 -0.1913  0.0086  0.0105
22552W        W65543  26.606  28.412  27.026  0.0051 -0.2582  0.0962
22553W        W65544  21.740  13.222  28.698 -0.0700  0.4049  0.0682
22554W        W65545  23.869   6.591  23.350  0.1223 -0.1564  0.0578
22555W        W65546  24.516  21.871   0.774 -0.0228 -0.1271 -0.2145
22556W        W65547  23.914   7.099  24.586 -0.0095 -0.1850  0.0447
22557W        W65548  10.847  19.606   5.515 -0.4916 -0.3011 -0.0892
22558W        W65549  25.231  23.638  15.464 -0.3216 -0.1742 -0.0574
22559W        W65550  20.485   8.592  22.978  0.0598 -0.0586 -0.0324
22560W        W65551  23.268   3.908  14.944 -0.0281  0.1845  0.1630
22561W        W65552   3.073  19.096  20.587 -0.4067 -0.4312 -0.0425
22562W        W65553   3.937   9.650  22.520 -0.0877 -0.0681  0.1265
22563W        W65554  21.252  16.259  22.837 -0.2164 -0.2478  0.3267
22564W        W65555  19.287   6.818  22.760 -0.1841 -0.1442  0.1418
22565W        W65556  19.514  31.658  24.521  0.4155  0.0784  0.0656
22566W        W65557  25.156  31.294  13.603  0.2511  0.2378  0.3015
22567W        W65558   9.594  29.625  23.809 -0.1807  0.1213  0.0095
22568W        W65559  29.611  16.806  18.870 -0.0898 -0.1158  0.1272
22569W        W65560  24.402  17.411   7.310 -0.1400  0.1173  0.1773
22570W        W65561  23.991  17.737  20.435  0.0704 -0.2265  0.0303
22571W        W65562  31.357  18.162  24.536  0.3346 -0.3010  0.2189
22572W        W65563  22.660  24.059  27.276  0.1382  0.1452 -0.0996
22573W        W65564   3.277  16.241  21.386  0.3545 -0.1953  0.1952
22574W        W65565  21.744  15.323   0.426 -0.3142 -0.0945 -0.1606
22575W        W65566   8.249  23.796  28.929 -0.0972  0.2524  0.1537
22576W        W65567  15.032  34.262  25.243  0.1109 -0.2393 -0.3152
22577W        W65568  29.454   7.748   4.297 -0.2245  0.1514  0.1597
22578W        W65569   6.296   2.593   7.093  0.0839  0.1163  0.0115
22579W        W65570  29.942   3.609  14.791 -0.3113 -0.3696 -0.1521
22580W        W65571  30.832  20.170  24.268 -0.0758  0.1189  0.0813
22581W        W65572   1.844  18.006   7.165 -0.2174  0.2163  0.1007
22582W        W65573  19.222  11.697  19.460  0.1228 -0.0802 -0.2727
22583W        W65574  17.749  14.011  22.013  0.3857  0.0333  0.1064
22584W        W65575  16.801   8.443   1.736 -0.0647  0.0216 -0.0846
22585W        W65576  31.266  14.230  27.912  0.0185 -0.2892 -0.0419
22586W        W65577  25.851  31.508  15.906 -0.1982 -0.1586 -0.1382
22587W        W65578  21.514  16.128  27.989 -0.1634  0.0709  0.3728
22588W        W65579  21.598  16.083  20.242 -0.2239  0.3885 -0.2746
22589W        W65580  12.605  12.392   2.858  0.1994 -0.2382  0.0580
22590W        W65581   8.950  11.548  19.407  0.1456 -0.0848 -0.0747
22591W        W65582  28.746  18.138   4.994 -0.0310  0.0372  0.0233
22592W        W65583  20.969  18.420  15.381  0.0248 -0.1114 -0.0477
22593W        W65584   8.746   9.240   8.273 -0.0618  0.0785  0.1555
22594W        W65585  24.134   3.745  27.258  0.0082 -0.1119 -0.0425
22595W        W65586   2.160  29.953   8.471 -0.0087 -0.3469 -0.0252
22596W        W65587  32.487   1.336   5.853 -0.0773 -0.0454  0.0209
22597W        W65588  30.822  25.103   1.699  0.4376 -0.1334  0.1070
22598W        W65589  22.090   5.735  19.081  0.1101 -0.3143 -0.0990
22599W        W65590   6.998  24.934   0.583 -0.0875  0.2017  0.0067
22600W        W65591  23.081  15.540  28.499 -0.3530 -0.1401  0.4552
22601W        W65592  28.230  27.404  14.769  0.0585  0.0210 -0.2007
22602W        W65593  13.370   4.362   7.982 -0.0407 -0.0535 -0.0281
22603W        W65594  23.216  13.050   4.934 -0.0940  0.0104  0.2042
22604W        W65595  22.323  14.363  21.996 -0.0151  0.2030 -0.1948
22605W        W65596   2.839  12.651   1.799  0.0383 -0.1539  0.3433
22606W        W65597  31.433  10.331   1.254 -0.3149 -0.1151  0.4017
22607W        W65598   6.308  10.222  23.493 -0.0782 -0.0751  0.0079
22608W        W65599  24.449  24.588  26.239 -0.0696 -0.0258  0.0329
22609W        W65600   5.675  14.123  19.134  0.1797  0.1886  0.0760
22610W        W65601  23.376  17.657  18.062  0.1949  0.0401 -0.0407
22611W        W65602  29.535   9.680   7.499  0.0731  0.1418 -0.0747
22612W        W65603   3.259   3.442  17.495  0.0696 -0.1371 -0.3011
22613W        W65604   2.824  26.504  23.572  0.3169  0.1538 -0.2555
22614W        W65605   4.932  18.273  24.304 -0.0132  0.1155  0.0017
22615W        W65606  24.228  21.312  27.523 -0.2828  0.1050  0.1867
22616W        W65607  27.680  15.725   5.436  0.1884  0.1663 -0.0818
22617W        W65608  32.040  31.664  23.790  0.3831 -0.2486 -0.0693
22618W        W65609  21.038  26.805  20.974 -0.2291  0.0452  0.1582
22619W        W65610  23.340  22.012   2.981  0.2676  0.2262  0.1700
22620W        W65611  21.614  15.977  23.939 -0.0217  0.0516  0.1719
22621W        W65612  26.062  29.557  21.197  0.0539 -0.1509  0.3505
22622W        W65613  21.132  32.776  15.703  0.0061 -0.1822 -0.1537
22623W        W65614   4.394  21.198  22.737  0.1176 -0.3312  0.0752
22624W        W65615  14.676  22.284  18.335 -0.3722  0.0962 -0.4102
22625W        W65616  34.098  18.926   1.138 -0.2410  0.2407 -0.1162
22626W        W65617  18.670  11.620  27.165  0.2761 -0.1553 -0.1301
22627W        W65618  22.162  20.930   2.730 -0.4970  0.2902 -0.0995
22628W        W65619  23.073  20.444  21.812  0.0635  0.0393 -0.2130
22629W        W65620  32.325  20.091   7.381  0.0298 -0.3870 -0.0125
22630W        W65621  31.903   6.108   8.810 -0.0239 -0.1229 -0.3767
22631W        W65622  24.478  17.940  22.840 -0.2631  0.2698  0.2869
22632W        W65623  26.631  26.371  20.929 -0.3706 -0.1780  0.1071
22633W        W65624  31.569  25.390  26.383 -0.1036 -0.1461 -0.0471
22634W        W65625  29.637  16.856  27.931  0.1244 -0.1297  0.0509
22635W        W65626   0.502  23.233  24.124  0.2336  0.1195 -0.2206
22636W        W65627  12.576  23.963   3.489 -0.4479  0.0915 -0.0494
22637W        W65628  21.156   0.816  27.415 -0.1046  0.1110  0.0632
22638W        W65629  31.004  13.027  28.473 -0.0386  0.1334  0.3039
22639W        W65630  30.978  29.383   1.632 -0.4339 -0.0479 -0.0756
22640W        W65631   6.153   7.496   7.527  0.3669  0.0484  0.0510
22641W        W65632  12.366  24.299  24.399 -0.0906 -0.5078  0.2250
22642W        W65633  26.862  26.375   1.002 -0.2733 -0.4055 -0.1764
22643W        W65634  29.171  10.230  20.535  0.0754 -0.0817  0.1933
22644W        W65635  26.160  27.254  29.095  0.1492 -0.0020  0.2572
22645W        W65636   4.749  20.909   2.091 -0.0810  0.5841  0.2693
22646W        W65637  31.990  18.097   9.008 -0.0454  0.0515  0.2232
22647W        W65638  32.680   1.383  24.520 -0.1120 -0.0700 -0.1580
22648W        W65639  25.808  12.083  23.952 -0.0837  0.0157  0.0704
22649W        W65640   8.715   8.793  10.595 -0.0883 -0.1603  0.0083
22650W        W65641  32.310  25.594   4.276 -0.0226 -0.0222 -0.1856
22651W        W65642   3.078  23.280  20.333  0.1884  0.3488  0.1688
22652W        W65643  21.488  15.049  27.949 -0.1608  0.0401 -0.0677
22653W        W65644   5.330  18.647  23.603  0.0966  0.1764  0.0346
22654W        W65645  27.906  12.584  18.421 -0.0787  0.1089  0.1774
22655W        W65646  13.865  25.953  14.165 -0.2641 -0.1669 -0.3150
22656W        W65647   7.730  28.872  20.452  0.0592 -0.1309  0.2347
22657W        W65648  20.040   7.100  19.947 -0.2558  0.0156  0.1195
22658W        W65649  24.704   7.248  18.586  0.0924  0.0619 -0.0098
22659W        W65650   1.142  27.687  14.155  0.4328  0.1009 -0.1938
22660W        W65651  30.188  26.663  27.457  0.1111 -0.0385  0.0634
22661W        W65652  26.686  10.314  17.572 -0.0348 -0.0125  0.2978
22662W        W65653  28.722  24.342  18.684  0.2968  0.0422 -0.0671
22663W        W65654   3.542   1.723  10.237 -0.1333 -0.0924 -0.1374
22664W        W65655  28.487  26.705  15.325 -0.0541  0.0133 -0.1134
22665W        W65656  16.482   5.878  15.615 -0.1266 -0.0127 -0.3431
22666W        W65657  18.114  11.685  23.232 -0.2554  0.0321 -0.0144
22667W        W65658  25.973  22.853  19.585 -0.3925 -0.1932  0.1731
22668W        W65659  23.059  15.844  15.979  0.0505  0.0604  0.2670
22669W        W65660   7.559  26.701   4.597 -0.2198 -0.0253 -0.0994
22670W        W65661  27.889   1.517  21.179 -0.1519  0.1298  0.2398
22671W        W65662  25.795  23.009  15.563 -0.2194  0.3811  0.5469
22672W        W65663  27.443  32.111  27.361  0.0652  0.0729 -0.1930
22673W        W65664  28.178  30.368  17.013 -0.3042 -0.1818 -0.0916
22674W        W65665  20.406   6.151  13.935  0.1127 -0.2089 -0.0179
22675W        W65666  26.069  16.497  25.520  0.1549  0.0289 -0.0828
22676W        W65667  27.696  29.596  24.767 -0.1713 -0.1167  0.4951
22677W        W65668  22.745   6.371  18.013 -0.0177  0.0295  0.0936
22678W        W65669   8.109  20.636  21.310  0.2966 -0.0332 -0.3014
22679W        W65670   1.954  26.567   2.726  0.0511  0.0921  0.0222
22680W        W65671  33.291  31.846  19.609  0.2300  0.1232  0.0622
22681W        W65672  32.848  14.300  21.293 -0.0552  0.0184 -0.1411
22682W        W65673  19.992  15.002  14.171 -0.0619  0.1843  0.1021
22683W        W65674  34.317   7.382  17.810  0.2861 -0.5879 -0.1707
22684W        W65675   9.524  31.489   6.596 -0.0001  0.3685 -0.2119
22685W        W65676  26.472  27.483  20.055  0.1497  0.0345 -0.1721
22686W        W65677  17.183  30.668  19.625  0.1692 -0.0756 -0.0581
22687W        W65678  25.416   8.324  26.751 -0.3600 -0.0133  0.0986
22688W        W65679  10.932  32.461  21.887 -0.2956  0.0827 -0.1816
22689W        W65680  20.344   2.062  28.080 -0.0416  0.0718  0.0302
22690W        W65681  29.213   3.692   6.675 -0.0555  0.2173  0.0049
22691W        W65682   7.090  29.391  14.908 -0.1465  0.0698 -0.0853
22692W        W65683  25.834  16.986  23.438  0.0907  0.0922 -0.1544
22693W        W65684  25.783  19.440   0.234  0.3011  0.0633  0.1453
22694W        W65685   3.342  21.719  20.014  0.4562  0.2853 -0.1161
22695W        W65686   1.750  24.502  25.396  0.1992  0.0485  0.1420
22696W        W65687  32.609  31.955  22.466  0.1540  0.0496  0.3563
22697W        W65688  14.804  30.471  15.076  0.1745  0.4242 -0.2958
22698W        W65689  18.909  10.723  19.520 -0.2779 -0.0420  0.1828
22699W        W65690  16.110   7.097  19.603  0.0682  0.1736  0.2339
22700W        W65691  13.942  17.939  15.417 -0.0734 -0.1081 -0.2668
22701W        W65692  24.525   2.633  26.537  0.1782 -0.1592 -0.0074
22702W        W65693  17.640  16.493   6.975 -0.4021  0.3940  0.1460
22703W        W65694   8.211  30.913   4.695  0.1276  0.1600 -0.1292
22704W        W65695  19.960  12.908  15.547  0.0019 -0.0185  0.0555
22705W        W65696  32.062  10.129  22.741  0.1518  0.0935  0.4914
22706W        W65697  26.872  12.241  23.402 -0.1213  0.0710  0.0616
22707W        W65698  24.080   7.269  27.618  0.0992  0.3741  0.1207
22708W        W65699  15.395  34.200  18.727 -0.0922 -0.1237  0.1169
22709W        W65700  33.666  29.291   6.199  0.1852 -0.0579  0.0937
22710W        W65701  12.492  26.850  25.954 -0.2975  0.2514 -0.0660
22711W        W65702  22.656   5.288  16.943 -0.1911 -0.2380  0.1866
22712W        W65703  17.166  23.458  21.160 -0.1998  0.2045 -0.0794
22713W        W65704  21.667   1.897  21.600 -0.0630 -0.0802  0.2398
22714W        W65705  14.787  23.370  19.186 -0.0978 -0.0120  0.1859
22715W        W65706  30.720  34.516  24.087  0.2496  0.2504 -0.0463
22716W        W65707  28.258  25.799  20.208  0.4041  0.4157 -0.1425
22717W        W65708  23.602  22.234  16.646  0.0803 -0.0654  0.1249
22718W        W65709  28.580  24.102  19.644  0.1410  0.2151  0.1979
22719W        W65710  32.332  23.803  20.764 -0.0519 -0.0623 -0.4626
22720W        W65711  22.029  30.291  16.757 -0.1179 -0.3717  0.0253
22721W        W65712  32.738   6.746   0.742 -0.0021  0.3399 -0.0323
22722W        W65713  30.883  25.721  19.843  0.4433  0.0086  0.2395
22723W        W65714  27.025   7.759  14.104  0.0904 -0.0603 -0.2352
22724W        W65715  34.456  19.370   2.265 -0.3051 -0.0312  0.0810
22725W        W65716  27.989  16.864  16.870 -0.2065  0.0877 -0.3927
22726W        W65717   7.339   2.308  28.839 -0.3373 -0.2329  0.2262
22727W        W65718  26.084  15.567  16.755 -0.1773  0.0516 -0.2797
22728W        W65719  29.899  21.120  15.227  0.0166 -0.1119  0.0525
22729W        W65720  27.174   2.516   0.474  0.1642 -0.3329 -0.2369
22730W        W65721  27.121  32.812  18.012 -0.3063  0.2539  0.2796
22731W        W65722  30.912  11.226  18.390  0.2251  0.2759 -0.1375
22732W        W65723  22.973  27.071  24.307 -0.1603 -0.2368 -0.1688
22733W        W65724  30.940  18.836  17.879  0.2638  0.1692 -0.1019
22734W        W65725  28.175  17.992  24.651 -0.1729  0.3679  0.1516
22735W        W65726  17.768  30.010  20.727  0.1986  0.2186  0.3286
22736W        W65727  27.089  18.757  24.199 -0.3084  0.0860 -0.0837
22737W        W65728   0.115  19.569  21.824  0.1645  0.2974  0.0148
22738W        W65729  31.112  32.547  19.640 -0.1334  0.1479  0.1681
22739W        W65730  17.138  17.347   2.529  0.0883 -0.1779  0.1266
22740W        W65731  30.629  17.418  14.509  0.0289  0.3185 -0.0287
22741W        W65732  23.116  15.372  16.413  0.1236  0.0044  0.1790
22742W        W65733  21.618   8.259   8.993  0.0103 -0.0228 -0.0804
22743W        W65734  23.351  25.250  26.376 -0.2392  0.5051  0.0051
22744W        W65735  30.711  33.604  17.557  0.1351 -0.1289  0.0168
22745W        W65736  29.729  22.240  24.473  0.0342  0.0842  0.0913
22746W        W65737  24.617  22.886  25.902  0.0818  0.2684  0.2718
22747W        W65738  29.258  26.041  24.185 -0.1953 -0.2932 -0.0871
22748W        W65739   1.273  11.340  25.303 -0.1771 -0.1932  0.2845
22749W        W65740  24.645  21.315  28.880  0.1791 -0.2313  0.0953
22750W        W65741   5.176   3.720  19.114 -0.2025 -0.1888  0.0070
22751W        W65742  12.432  19.930  16.256 -0.0624 -0.0892  0.1352
22752W        W65743  28.714  31.503  15.318 -0.1132  0.0765  0.1534
22753W        W65744  12.124  26.255  20.525  0.2799  0.1761 -0.3445
22754W        W65745  27.430  24.096  18.883 -0.4451 -0.0458 -0.0157
22755W        W65746  28.406  12.407  18.587  0.1542 -0.0393  0.0298
22756W        W65747  32.785  23.120  16.916  0.2733  0.2771 -0.2494
22757W        W65748  16.819  12.897   4.387 -0.1856  0.0734  0.0853
22758W        W65749  18.494  24.671  17.333  0.2635  0.1181 -0.2117
22759W        W65750  33.188   1.847  23.146  0.2048  0.1113  0.1131
22760W        W65751  16.646  26.847  18.775  0.2943  0.0603  0.4462
22761W        W65752  33.358  23.349  24.684 -0.0959  0.0459 -0.2154
22762W        W65753  15.539  24.251  16.128 -0.0958 -0.0407  0.0633
22763W        W65754  15.298  22.184  19.697  0.2049  0.0210  0.0434
22764W        W65755   1.073   7.279  22.272 -0.1772 -0.0687  0.2099
22765W        W65756  17.551   5.783  23.252 -0.3710 -0.1957  0.2046
22766W        W65757  33.691   0.036  15.578 -0.1688  0.1740 -0.0049
22767W        W65758   9.118  24.360  17.871  0.3011 -0.2516  0.0488
22768W        W65759  21.010   2.000  26.671 -0.2188  0.3132 -0.2646
22769W        W65760  12.227  24.740  20.269 -0.0104 -0.0844  0.0035
22770W        W65761  28.139  16.189  22.987 -0.1691  0.2593  0.1127
22771W        W65762  30.491  27.537   8.807 -0.1165  0.1144 -0.0043
22772W        W65763  14.343  20.215  25.816  0.3975 -0.0292  0.3394
22773W        W65764  12.446  23.011  21.840 -0.0015 -0.0616 -0.3539
22774W        W65765  20.134  15.166  16.861 -0.0692 -0.0930  0.3300
22775W        W65766  27.794  20.849  18.682  0.3747  0.2113 -0.2808
22776W        W65767  25.880  21.902  19.981  0.1269  0.1840  0.0773
22777W        W65768   7.356  20.636  22.892  0.0446 -0.3425  0.0866
22778W        W65769  31.521  30.855  21.524  0.1670  0.0962 -0.2093
22779W        W65770   6.326   9.757  19.770 -0.3308 -0.0723  0.0616
22780W        W65771  30.634   2.556  20.462 -0.2966  0.0974  0.1028
22781W        W65772  19.530  28.751  15.627 -0.0554 -0.2638  0.0252
22782W        W65773  10.909  32.312  20.944 -0.0405  0.0971 -0.0020
22783W        W65774  20.729  27.995  22.387  0.0660  0.2887  0.0747
22784W        W65775  10.048  18.002  14.863  0.0219  0.1475  0.3509
22785W        W65776   3.543  16.080  20.167 -0.2323  0.2036  0.2358
22786W        W65777  20.233  29.551  17.015  0.0481  0.2008  0.2469
22787W        W65778  32.282  19.527  23.776 -0.1929 -0.3094  0.2059
22788W        W65779  23.353  15.194  23.674  0.0414  0.1182 -0.4269
22789W        W65780  25.509   0.346  21.717 -0.3448  0.0282  0.0389
22790W        W65781   7.458  27.684  25.042 -0.3127  0.3900 -0.0809
22791W        W65782   0.076  17.379  20.436 -0.1574  0.2756  0.0362
22792W        W65783  21.929  22.035  16.007  0.1903 -0.1035  0.1055
22793W        W65784  27.594  13.576  18.906 -0.2835  0.0290 -0.0018
22794W        W65785  30.282   3.606  15.182 -0.0666  0.1582  0.1840
22795W        W65786   8.936  14.186  24.636 -0.3489 -0.1552  0.0851
22796W        W65787  30.213  14.421  18.019 -0.0450 -0.0575  0.2438
22797W        W65788  26.667  21.024  16.876 -0.0993  0.0941  0.0742
22798W        W65789   5.403  32.541  21.856  0.0272 -0.1119  0.2246
22799W        W65790  26.447   3.461  18.311 -0.2568 -0.0229 -0.1630
22800W        W65791  33.688   0.807  16.411  0.2098 -0.2775  0.0665
22801W        W65792  30.135  13.077  22.677 -0.0010 -0.2467  0.0042
22802W        W65793  29.610  11.178  18.730  0.2679  0.0088  0.0779
22803W        W65794  31.295  27.971  25.569 -0.1152  0.1204 -0.1740
22804W        W65795  21.588   1.175  19.031 -0.3186  0.1623 -0.1227
22805W        W65796  32.979  11.703  28.549 -0.0871 -0.2102 -0.1531
22806W        W65797  19.278  18.509  15.509 -0.0236  0.0716  0.2837
22807W        W65798  18.580  10.111  28.867 -0.0876 -0.1833 -0.0223
22808W        W65799  26.286  27.935  14.290 -0.0488  0.1076  0.1780
22809W        W65800  24.542  27.241  17.285 -0.2481 -0.2218 -0.2010
22810W        W65801  17.788  10.530  21.099 -0.1037 -0.1292 -0.1357
22811W        W65802  22.496   2.874  27.452 -0.5421  0.0036 -0.0909
22812W        W65803  34.560  34.212  25.208 -0.0865  0.1308 -0.1879
22813W        W65804  25.006  12.357  19.471  0.3665 -0.0742 -0.1764
22814W        W65805  23.782  16.601  22.380  0.3441 -0.0630 -0.0588
22815W        W65806   3.407  27.741  15.800 -0.0451  0.0554 -0.0333
22816W        W65807  23.127  34.003  14.449 -0.3587 -0.0195 -0.0723
22817W        W65808  12.233   6.560  22.881  0.0373 -0.1004 -0.3750
22818W        W65809  15.854  16.264   3.020 -0.0678 -0.1632  0.2047
22819W        W65810  11.345  22.497  19.163  0.2449 -0.1512  0.0510
22820W        W65811  30.837  11.880  14.411 -0.1142  0.0635 -0.0030
22821W        W65812  22.464  15.812  14.284 -0.1199 -0.1329 -0.0175
22822W        W65813  31.064  30.865  20.232  0.2160  0.3837  0.1563
22823W        W65814   2.582  30.158   8.863 -0.0673 -0.0892 -0.0969
22824W        W65815  20.975  26.124   4.474 -0.1093  0.0435 -0.2230
22825W        W65816   5.819  32.892  22.659  0.2366 -0.1893 -0.1068
22826W        W65817  22.091   6.591  28.755 -0.0390  0.3040 -0.1216
22827W        W65818   1.745  23.169   0.553 -0.2112 -0.1557  0.0454
22828W        W65819  28.455  20.453  16.361 -0.3300 -0.2650  0.1865
22829W        W65820  32.277  11.117  28.798 -0.0981  0.0038 -0.1237
22830W        W65821  24.185  24.290  25.074 -0.0653  0.1903 -0.0274
22831W        W65822   8.112  16.880  26.032 -0.0975 -0.0330 -0.1533
22832W        W65823  17.731  11.914  16.827 -0.0825  0.1372 -0.1718
22833W        W65824  27.176  21.116  18.239  0.0471  0.0950 -0.3953
22834W        W65825   0.736  32.675  19.838 -0.0671  0.1250 -0.2875
22835W        W65826  22.498  33.515  18.736 -0.0745 -0.0370  0.3249
22836W        W65827  22.952  22.332  12.306 -0.0934  0.0711  0.1072
22837W        W65828   0.286  22.628  20.591  0.0971 -0.0898 -0.0933
22838W        W65829  25.060  16.847   8.890  0.1209  0.2154  0.0209
22839W        W65830  25.284  30.972  19.406  0.0303 -0.0774 -0.1193
22840W        W65831  27.958  16.906   0.102 -0.1408 -0.0425 -0.0552
22841W        W65832   1.434   6.878  23.863  0.1768 -0.0504 -0.2284
22842W        W65833  22.335   3.971  19.485 -0.0080 -0.2532  0.2731
22843W        W65834  12.616   4.813  25.184  0.2776  0.1976 -0.1128
22844W        W65835  22.901  22.952  24.543 -0.0727 -0.1108  0.0106
22845W        W65836  30.970  16.870  23.433 -0.4357 -0.0973  0.0047
22846W        W65837   1.277  18.502   7.825  0.1402  0.2565  0.2390
22847W        W65838  33.779  20.659  20.571  0.1143 -0.3276  0.0804
22848W        W65839   0.034  26.358  13.871  0.0553 -0.0707 -0.1794
22849W        W65840  24.444   3.285  14.901  0.1025  0.0156  0.0963
22850W        W65841  14.359  30.338   2.587 -0.2071  0.2027 -0.1289
22851W        W65842  15.571  29.008  25.791  0.0806  0.1762 -0.0252
22852W        W65843   9.897   6.089  20.733  0.4063  0.0917  0.1318
22853W        W65844  14.176  29.487  26.450 -0.0176  0.1100 -0.0497
22854W        W65845  21.142  13.515   1.252 -0.0088 -0.3984 -0.0669
22855W        W65846  28.850  19.129  17.700  0.1637 -0.0983  0.3297
22856W        W65847  31.083  21.814  24.971  0.0466 -0.2788 -0.2182
22857W        W65848  32.033  30.590   3.082 -0.1248 -0.0935  0.2190
22858W        W65849  28.408  15.089  18.451 -0.3008  0.1166  0.0752
22859W        W65850  23.749  33.204  15.928  0.0610 -0.1319  0.3911
22860W        W65851   4.809  32.876  27.299  0.0524  0.3501 -0.0057
22861W        W65852   6.772  20.815   8.485 -0.0182 -0.3113 -0.0148
22862W        W65853  27.819  16.863  27.340 -0.1112  0.2344 -0.2155
22863W        W65854  30.752  26.188  20.105 -0.0845  0.2917  0.1918
22864W        W65855  22.054  17.691  27.186 -0.0530  0.0313  0.4246
22865W        W65856   0.627  32.349  22.348  0.1419 -0.1620  0.5732
22866W        W65857  18.677  30.761  26.822 -0.1337 -0.1195  0.1414
22867W        W65858  33.422  20.669  16.517 -0.1119  0.1204  0.2902
22868W        W65859  15.128   7.291   0.991 -0.0110 -0.4304  0.0781
22869W        W65860   1.302  29.268  26.989  0.1141  0.0095  0.2460
22870W        W65861  21.468  23.761  22.348 -0.1661  0.0799 -0.0991
22871W        W65862  30.510  16.786  16.774 -0.3725 -0.2422  0.0698
22872W        W65863  32.034  23.439  24.586  0.1557 -0.1551 -0.2856
22873W        W65864  33.600   2.666   2.643 -0.4935  0.1430  0.1333
22874W        W65865  29.987  31.275  21.764  0.2222  0.0787  0.0036
22875W        W65866  20.236  25.369  14.510 -0.0977  0.0751 -0.2213
22876W        W65867  31.898  32.134  24.094 -0.0010 -0.4983  0.0686
22877W        W65868  17.356   3.712  18.978 -0.0238  0.1865  0.0448
22878W        W65869  21.571  31.857  28.430 -0.1256  0.1418 -0.0120
22879W        W65870  24.508  27.015  20.337 -0.2712 -0.1257  0.1908
22880W        W65871  27.591  15.827   6.838  0.1009 -0.1402  0.0777
22881W        W65872  33.024  18.477  23.046 -0.1669  0.0975  0.2794
22882W        W65873   5.656   3.152  16.233 -0.0867 -0.1256 -0.1705
22883W        W65874   6.470  14.916  21.598 -0.3339  0.2502  0.2996
22884W        W65875   4.986  29.718  18.333 -0.2102  0.2860 -0.1524
22885W        W65876   6.361  16.980  19.316 -0.0472  0.1445 -0.0607
22886W        W65877  27.651  22.196  18.842 -0.0068  0.2332  0.2018
22887W        W65878   7.262  26.102  17.134  0.0474 -0.0890 -0.1072
22888W        W65879  21.073  16.721  21.929 -0.2566  0.0346  0.1059
22889W        W65880  34.035  25.516  15.125 -0.0761 -0.1253 -0.1698
22890W        W65881  25.139  25.775   8.007 -0.0508 -0.2498 -0.3158
22891W        W65882  12.112  21.623  15.785 -0.0300 -0.1653 -0.1662
22892W        W65883  27.869  31.847  12.875 -0.2479  0.0259  0.2094
22893W        W65884  24.266  22.991  18.901 -0.0481 -0.0069  0.0942
22894W        W65885  20.892  23.163  19.620 -0.0031  0.1653  0.0542
22895W        W65886  10.254  25.216  23.841 -0.2194 -0.2204  0.0356
22896W        W65887  32.217  15.199  23.529  0.0663 -0.1069  0.5426
22897W        W65888  33.427  19.329   2.214  0.0443 -0.0242  0.3136
22898W        W65889  33.759  25.773  13.739  0.2196 -0.1951 -0.0218
22899W        W65890  28.416   2.383  16.761  0.1670  0.2753  0.0808
22900W        W65891   5.828  25.041  15.843  0.2833 -0.1705 -0.0611
22901W        W65892  30.351  24.143  28.715  0.1267 -0.1087 -0.0772
22902W        W65893  15.972  11.535  16.472 -0.1931 -0.2086 -0.0555
22903W        W65894  31.918  23.305  22.443  0.1510 -0.1442  0.0547
22904W        W65895  24.696  20.753  20.149 -0.1022  0.0746  0.2228
22905W        W65896  32.922  19.543  26.095 -0.1878 -0.0608 -0.1496
22906W        W65897  22.903  33.461  23.262  0.1378  0.1013  0.1709
22907W        W65898  21.009  25.593  19.114 -0.0959 -0.0744  0.2409
22908W        W65899  28.584  16.166  28.626  0.1572  0.1653 -0.3983
22909W        W65900  27.410  12.116  22.510 -0.0494  0.0885 -0.0463
22910W        W65901  13.444  11.724  21.249 -0.2410 -0.0808 -0.1189
22911W        W65902  16.407  23.814  24.592 -0.3079  0.1030 -0.1296
22912W        W65903  20.064  27.135  14.375  0.1714  0.2113 -0.2102
22913W        W65904  29.391  26.906  17.488 -0.0425 -0.0267 -0.1327
22914W        W65905   0.537  27.410   9.254  0.0693  0.0063  0.3275
22915W        W65906   7.871  14.708  21.665  0.0296 -0.2218  0.2133
22916W        W65907  28.202  21.432  13.106 -0.0384 -0.1575 -0.0084
22917W        W65908  11.223  25.093  21.106  0.2734  0.0495  0.1683
22918W        W65909  20.487   7.170  15.457 -0.0320 -0.0957  0.0888
22919W        W65910  14.908  24.949  14.408 -0.0004 -0.0744 -0.1288
22920W        W65911  33.732  17.443  15.103 -0.2189 -0.2697 -0.1580
22921W        W65912  26.740  33.573  27.494 -0.2922  0.0837  0.2158
22922W        W65913  14.442  30.504  21.848 -0.2606 -0.2759  0.0088
22923W        W65914  16.821  24.284   6.412 -0.1160 -0.3981  0.0358
22924W        W65915  23.370  11.585  15.937 -0.1740  0.0176  0.3650
22925W        W65916  17.273   2.850   2.551 -0.1732  0.0156 -0.2792
22926W        W65917  21.984  19.428  18.868 -0.0387 -0.4395 -0.1206
22927W        W65918  27.865  26.210  19.952 -0.2155  0.0093  0.4701
22928W        W65919  16.304  23.710  22.303 -0.2068  0.3364 -0.1132
22929W        W65920   2.038  14.641  17.189  0.1490  0.3329 -0.0666
22930W        W65921  16.190  13.707  15.156 -0.1193  0.0356  0.1794
22931W        W65922  12.982  25.008  24.007  0.0265  0.1700 -0.1912
22932W        W65923  28.672  13.000  27.593  0.1666  0.0203 -0.0892
22933W        W65924  13.498  22.111  16.161  0.1819  0.0435  0.2038
22934W        W65925  30.599  30.151  22.986  0.1456  0.0831 -0.1944
22935W        W65926  16.319  14.143  16.977  0.0583 -0.4191  0.0796
22936W        W65927  25.329   6.573  14.305  0.0242  0.0043 -0.1204
22937W        W65928   4.113  23.390  19.893 -0.0190 -0.1264 -0.1265
22938W        W65929  20.332  25.129  15.602  0.0331  0.1174  0.0023
22939W        W65930  25.645   7.369  13.739  0.0658  0.0702  0.0095
22940W        W65931  19.004   3.261  14.950  0.0388 -0.3987 -0.1288
22941W        W65932   5.016  27.123  17.113 -0.1086 -0.1593 -0.1266
22942W        W65933   2.977  14.229  25.257 -0.0420  0.1953  0.1647
22943W        W65934  20.875  14.502  21.202  0.0138  0.3613 -0.1251
22944W        W65935  34.089  27.304  26.849 -0.1103 -0.1574 -0.4731
22945W        W65936  21.636   5.527  23.329  0.3855  0.0645 -0.1551
22946W        W65937  32.265  11.695  23.823 -0.2193 -0.0478  0.0062
22947W        W65938  21.630  18.480  26.048 -0.1400  0.0792  0.3742
22948W        W65939  26.477  32.398  18.912  0.2993 -0.0201  0.1573
22949W        W65940  15.637  31.010  18.343 -0.1900 -0.2619  0.3189
22950W        W65941  15.532  22.478  18.711 -0.1790  0.1963  0.0917
22951W        W65942  27.626  29.942  16.891  0.1514  0.4225  0.0769
22952W        W65943  19.421  27.536  22.698 -0.3173  0.1025  0.1730
22953W        W65944  12.314  29.891  17.594 -0.0634  0.2492 -0.2369
22954W        W65945  24.795   4.187  15.385 -0.0928  0.0227 -0.1846
22955W        W65946  20.334  26.488  24.294 -0.0612  0.1557  0.1297
22956W        W65947  23.704  28.787  27.426 -0.0687 -0.0660 -0.3273
22957W        W65948  28.808  23.016  22.856 -0.0204 -0.0555  0.1490
22958W        W65949  32.615  28.097  18.083 -0.1287 -0.0587  0.0596
22959W        W65950  24.396  15.342  20.314  0.0636  0.1487 -0.2451
22960W        W65951  24.465  18.269  15.157  0.1583 -0.3990  0.0126
22961W        W65952  25.343  18.945  23.202 -0.1363 -0.1890  0.4397
22962W        W65953  34.723  29.929  16.612  0.2731 -0.2943 -0.2190
22963W        W65954   8.663   2.260  21.266 -0.2101  0.2172  0.1699
22964W        W65955  30.690   7.278  28.106 -0.0371  0.3333  0.2622
22965W        W65956  32.487  14.701  19.405  0.2492 -0.2249  0.1463
22966W        W65957  18.626   4.899  28.814 -0.0109  0.1940 -0.1796
22967W        W65958  29.666  27.429  18.833  0.0110  0.1155 -0.0917
22968W        W65959  20.351  20.748  17.748  0.2593  0.0598  0.0218
22969W        W65960  27.507  10.304  16.678 -0.0254  0.1037 -0.2883
22970W        W65961  31.660  24.495  21.719  0.1824 -0.0069  0.0792
22971W        W65962  30.929  19.793  17.994  0.0770  0.1716  0.1038
22972W        W65963  27.632  23.289  13.567 -0.2433  0.0005  0.0637
22973W        W65964  30.541  21.031  25.424 -0.4082  0.1419  0.2658
22974W        W65965   4.048  30.627  14.967  0.2908 -0.2386  0.0328
22975W        W65966  31.802  30.344  18.984  0.2012 -0.1647 -0.2683
22976W        W65967  23.008  25.999   2.057 -0.2919  0.2089 -0.0826
22977W        W65968  33.287  32.055  21.651 -0.2695 -0.0296  0.1625
22978W        W65969  14.345   9.746  20.156 -0.0642 -0.2215 -0.0644
22979W        W65970  29.160  20.137  24.657 -0.1712  0.0290  0.5112
22980W        W65971   8.416  12.649  21.599 -0.0357 -0.0993  0.1656
22981W        W65972  20.778  16.021  16.193  0.1031 -0.1713 -0.0409
22982W        W65973  29.017   3.346  16.266 -0.1870  0.0470 -0.1746
22983W        W65974  19.520  12.719  20.332 -0.1677  0.1709  0.1079
22984W        W65975  26.298  33.490   3.305  0.0914 -0.0792 -0.0941
22985W        W65976  11.853   6.730  19.316  0.2377  0.0982  0.0274
22986W        W65977  14.798  16.904  14.139 -0.0878 -0.0914  0.2042
22987W        W65978  34.481  23.011  17.122  0.2923 -0.4485  0.0855
22988W        W65979  29.775  29.120  22.252  0.0089 -0.1926 -0.2634
22989W        W65980  32.222   7.578  19.011 -0.0973 -0.0953  0.0586
22990W        W65981  29.619  32.304  23.963 -0.1944 -0.3247  0.0401
22991W        W65982  21.589  13.579  15.857 -0.2244 -0.1251  0.0834
22992W        W65983  21.711  25.658  14.247 -0.1780 -0.1837 -0.0469
22993W        W65984  17.984  13.335  14.011 -0.2015  0.0586  0.2354
22994W        W65985  27.230   9.519  24.964 -0.1561  0.1707  0.1001
22995W        W65986  11.842  24.590  15.831 -0.2194 -0.0649  0.1821
22996W        W65987  33.498  26.299  16.376 -0.0926  0.0046 -0.1248
22997W        W65988  31.694  33.960  20.109 -0.1164  0.0434 -0.0182
22998W        W65989  25.447  25.477  14.534  0.0967  0.1721  0.0233
22999W        W65990  27.237  31.615  21.386 -0.0022  0.2280  0.1897
23000W        W65991  29.126  23.944  23.924  0.1307  0.0596  0.1006
23001W        W65992  18.094  30.934  27.578  0.0131  0.1521 -0.0905
23002W        W65993  14.360  33.932  19.990  0.2205 -0.3549 -0.1557
23003W        W65994  32.715  33.623   8.571  0.2187 -0.1770  0.0293
23004W        W65995   3.124  23.846  14.002  0.1766 -0.1458 -0.1914
23005W        W65996  28.529  11.749  21.146 -0.2491  0.0737 -0.1420
23006W        W65997  34.709  28.767  13.056 -0.0289 -0.2353 -0.0104
23007W        W65998  19.103  18.969  28.669 -0.0484  0.1647  0.0522
23008W        W65999  24.025  19.325  27.068  0.1704 -0.0724  0.2184
23009W        W66000  20.678   9.053  13.572 -0.0312 -0.1743  0.0948
23010W        W66001  22.820   5.522  19.394  0.3550 -0.1135 -0.2136
23011W        W66002  20.956  16.575   3.043  0.0136  0.0828  0.1284
23012W        W66003  30.531  24.299  15.260 -0.2648 -0.2250 -0.0458
23013W        W66004   1.366  27.525  20.929  0.1635 -0.1503  0.0221
23014W        W66005  30.034  13.810   9.870 -0.2324  0.1063  0.0109
23015W        W66006  12.004  12.414   5.681 -0.1814  0.0619  0.2586
23016W        W66007  23.829   7.511  18.792  0.4693 -0.0781 -0.1414
23017W        W66008   0.759  12.308  19.642  0.1525 -0.0764  0.2569
23018W        W66009   1.128  25.522  18.864 -0.1997  0.0988  0.2409
23019W        W66010  27.076  34.690  12.252  0.1843  0.0183 -0.0073
23020W        W66011  24.856  21.431  19.157 -0.0494 -0.0417 -0.0918
23021W        W66012   3.665  33.414  20.483  0.2019 -0.2747  0.0407
23022W        W66013  22.152  26.058   2.042  0.1768  0.2265  0.1478
23023W        W66014  14.528   8.607  15.343 -0.0666  0.0745  0.1010
23024W        W66015  33.624  24.701  18.883 -0.4618 -0.2747  0.1899
23025W        W66016  28.065  30.211  15.394 -0.1821  0.0049  0.0723
23026W        W66017  19.491  24.400  17.797  0.0337  0.0550 -0.0001
23027W        W66018  32.263  20.686  18.867 -0.1081  0.1004  0.0421
23028W        W66019  28.952   6.917  16.625 -0.2169 -0.3002 -0.0261
23029W        W66020  27.108  16.236  15.048  0.0350  0.3154  0.2468
23030W        W66021  27.850  16.808  15.125 -0.0552  0.1970 -0.2584
23031W        W66022  20.835  24.904   3.104  0.2861  0.0593  0.2764
23032W        W66023  32.125  18.401  26.504  0.3077  0.3914 -0.0649
23033W        W66024  22.121  23.658  19.769 -0.2939 -0.0389  0.0898
23034W        W66025  29.904  16.153   1.821  0.1813 -0.2192  0.1309
23035W        W66026  31.516  25.751  19.145  0.1041 -0.2247  0.5151
23036W        W66027  15.079   8.971  23.662 -0.1741  0.1216 -0.0846
23037W        W66028  33.748  27.445  22.011  0.1996 -0.0995 -0.2408
23038W        W66029  15.858   5.767  17.392 -0.1002 -0.0144  0.0147
23039W        W66030   7.888  12.629  20.642 -0.1977  0.2235  0.0314
23040W        W66031  28.231   8.496  20.303  0.0337 -0.0840 -0.1643
23041W        W66032  24.192  30.015  17.094  0.0389 -0.0475 -0.3040
23042W        W66033  19.293  26.622  21.638 -0.0146 -0.0072 -0.1241
23043W        W66034   0.579  29.810   0.500  0.1444  0.2248  0.1098
23044W        W66035   8.689  21.652  23.017  0.0558 -0.1378  0.0982
23045W        W66036  33.410   4.469  23.442  0.2612  0.2165 -0.2728
23046W        W66037  31.259  11.249   4.548  0.4201  0.0139 -0.1728
23047W        W66038  22.635  15.149  16.450  0.2387  0.0801 -0.2824
23048W        W66039  10.567  31.483  26.466  0.0901  0.0066 -0.1029
23049W        W66040   0.394   0.301  28.586 -0.0787  0.2184 -0.3322
23050W        W66041   1.604  14.608  22.977 -0.0969 -0.0781  0.0495
23051W        W66042  26.017  25.434  15.831  0.2195  0.0501  0.3072
23052W        W66043   6.053  18.477  22.510 -0.0642  0.1653  0.1687
23053W        W66044  33.132  17.959  15.081  0.0835  0.0673  0.0397
23054W        W66045   5.301  19.714   0.258 -0.0625  0.0180  0.0573
23055W        W66046   7.322  16.058  21.427  0.2015  0.0543 -0.2834
23056W        W66047  30.619  26.114  19.008  0.0337  0.1378  0.1365
23057W        W66048  28.166   9.415  18.364  0.2928 -0.0364  0.2239
23058W        W66049  22.306  26.300  25.496  0.1802  0.1541 -0.0350
23059W        W66050   4.136  21.215  21.841  0.1418  0.0875  0.0579
23060W        W66051  18.431   0.516  25.333 -0.3033  0.1780 -0.3360
23061W        W66052  21.538  31.210  13.683  0.0284 -0.1925  0.0549
23062W        W66053  13.468  32.582  19.181 -0.1896 -0.1898  0.0604
23063W        W66054  21.990  14.368  22.500  0.2889  0.0106 -0.4375
23064W        W66055   0.454  21.311  22.407 -0.1302 -0.2512 -0.2595
23065W        W66056  26.371  26.302   6.055 -0.1937 -0.0969  0.1108
23066W        W66057  20.566  28.733  15.675  0.0140  0.3021 -0.2988
23067W        W66058  34.217   2.129   0.904 -0.2808 -0.1953 -0.1360
23068W        W66059  27.808  16.960   6.019 -0.1568 -0.0539 -0.0078
23069W        W66060  21.071  24.861  21.071  0.3571  0.0570  0.1897
23070W        W66061   3.325  22.284  23.482 -0.4777 -0.0943 -0.0343
23071W        W66062   0.840  22.638   2.151 -0.0186  0.3891 -0.2297
23072W        W66063  14.441  32.841   3.178  0.1050  0.0958 -0.2566
23073W        W66064   4.338  15.662   3.014 -0.1408  0.4618  0.3391
23074W        W66065  21.443  31.642  24.883  0.0782  0.0094 -0.0245
23075W        W66066  13.976  25.933  23.354 -0.0020  0.3209 -0.1770
23076W        W66067  24.936  13.568  22.624 -0.1854 -0.1562 -0.1724
23077W        W66068  28.541  24.719  14.370 -0.3490  0.0517 -0.0540
23078W        W66069  11.333   5.582  20.673  0.0944  0.3354  0.0254
23079W        W66070  17.413   8.922  20.373 -0.2216 -0.0333  0.0192
23080W        W66071   3.244  19.729   1.213 -0.1397  0.0234  0.3425
23081W        W66072  17.466  21.095  22.139 -0.1992  0.1117  0.2563
23082W        W66073  29.908   9.137  25.254 -0.0313  0.3313 -0.2613
23083W        W66074   1.207  15.209  23.207  0.3021 -0.0563  0.0304
23084W        W66075   3.132   4.746  16.795  0.0535  0.0060 -0.1688
23085W        W66076  21.123  16.353  16.270  0.2952 -0.0211 -0.0316
23086W        W66077  13.656  14.773  16.898  0.1098  0.1526  0.0555
23087W        W66078  30.415  22.527  27.606 -0.3556  0.2449  0.1274
23088W        W66079  18.026  12.571  23.728 -0.1213 -0.1604  0.3610
23089W        W66080  14.265  21.327   0.579 -0.1105  0.1855 -0.0077
23090W        W66081  16.856  14.577  21.640  0.1345 -0.0640 -0.1150
23091W        W66082  20.465  21.068  25.631 -0.0510  0.1624 -0.0691
23092W        W66083  21.967  31.450  15.425 -0.0258 -0.0545 -0.1702
23093W        W66084  28.080  28.348  15.571  0.0996 -0.0043  0.0678
23094W        W66085   0.396   1.691  14.982  0.1227  0.0386  0.1734
23095W        W66086  20.771  34.052  16.501 -0.2407 -0.2283  0.1827
23096W        W66087  19.583  28.440  14.102  0.1821  0.3959 -0.0545
23097W        W66088  18.163   3.181  14.015 -0.2117 -0.1013  0.2134
23098W        W66089  27.063  10.477  17.881 -0.2570 -0.2419 -0.2492
23099W        W66090  28.092  10.142  28.443 -0.3269  0.2082  0.0797
23100W        W66091  34.358  14.331  20.320  0.3250  0.1158  0.1482
23101W        W66092  29.081   6.344  20.905  0.1120  0.0823  0.0962
23102W        W66093  13.891  12.797  18.791 -0.3273  0.0377  0.1318
23103W        W66094  21.043  10.939  15.996  0.0892  0.3698  0.3589
23104W        W66095  12.247  18.893   1.131 -0.2454  0.0051  0.0231
23105W        W66096  12.282  13.506  24.788  0.3468  0.2904 -0.1468
23106W        W66097  22.030  22.702   0.541  0.0572  0.1093  0.0857
23107W        W66098  16.396  26.267  14.934  0.1974 -0.2765  0.2043
23108W        W66099   5.523   3.228  17.037 -0.2421  0.0922  0.1317
23109W        W66100   7.449  25.332  16.676 -0.5070 -0.0771 -0.0009
23110W        W66101   1.001  10.439  20.516  0.2575  0.0271  0.0498
23111W        W66102  19.813  21.983  18.353 -0.2638  0.1342 -0.0928
23112W        W66103  19.025  20.274   1.624 -0.1674  0.3439  0.2859
23113W        W66104   7.770  34.646  16.068 -0.0203  0.0638  0.1006
23114W        W66105  13.453  23.085  13.157 -0.0392  0.3097  0.2747
23115W        W66106  32.126  14.636  27.090 -0.0652 -0.0402  0.4788
23116W        W66107  32.351  23.209  19.573 -0.1062  0.1791 -0.2222
23117W        W66108  27.897  29.800  13.291  0.0114  0.0858  0.0864
23118W        W66109  26.895  24.444  14.423  0.2822 -0.1341  0.0217
23119W        W66110  32.270  13.392   4.702 -0.0158 -0.2944  0.2255
23120W        W66111   7.894  27.701  15.977 -0.0694  0.0408  0.0769
23121W        W66112  27.504  14.718  17.532  0.0536  0.0532  0.1201
23122W        W66113  14.214  30.953  14.766  0.4139 -0.1382  0.1582
23123W        W66114  25.542  26.875  16.361  0.2528  0.1205  0.1486
23124W        W66115  18.367  19.758  12.583 -0.2323  0.3524  0.2299
23125W        W66116  27.373  10.443  25.569  0.0065 -0.0198 -0.0837
23126W        W66117   8.647  19.180  22.067 -0.2285  0.2232 -0.0019
23127W        W66118  16.931  17.829   2.261 -0.2048  0.2523  0.1601
23128W        W66119  20.228  33.032  15.215  0.4115  0.0647 -0.2695
23129W        W66120  18.155  10.120   1.388 -0.0266 -0.0742 -0.1934
23130W        W66121  22.496   3.388  20.654 -0.2125  0.0320  0.0314
23131W        W66122  22.144   6.839  16.294 -0.1288  0.0662  0.2522
23132W        W66123  24.755   4.738  21.659 -0.1043 -0.1807  0.1141
23133W        W66124   5.272  28.381  19.720 -0.2178 -0.1266 -0.1463
23134W        W66125   1.635  22.469  22.141 -0.2650 -0.1543  0.0382
23135W        W66126  33.045  25.890  27.372 -0.1526 -0.0881  0.0136
23136W        W66127  27.141  20.305  27.287 -0.0148 -0.1219 -0.2310
23137W        W66128  22.700   3.525  28.219 -0.0047  0.1207  0.0764
23138W        W66129  31.910   0.630  13.303 -0.0736  0.0549 -0.0178
23139W        W66130  33.738  24.258  17.873 -0.0297  0.0773 -0.2375
23140W        W66131  15.817   9.165  24.190 -0.2202  0.0819 -0.2032
23141W        W66132  31.628  13.238  24.481 -0.3040 -0.0760 -0.2385
23142W        W66133  26.227   8.901  19.201 -0.0198 -0.2160  0.4415
23143W        W66134  13.232  23.963  21.291 -0.1921 -0.3449 -0.0774
23144W        W66135   1.559   2.200  20.602  0.0737 -0.1485  0.0078
23145W        W66136  27.632  23.969  24.814 -0.3453  0.5979  0.4835
23146W        W66137  18.702  27.129  18.815 -0.2221  0.3305  0.0127
23147W        W66138  21.212   2.303  21.790 -0.1008 -0.0723 -0.2133
23148W        W66139  19.626  27.911  17.989 -0.0702  0.1447  0.0970
23149W        W66140  32.405  11.938  22.323 -0.0460 -0.0329 -0.0415
23150W        W66141  12.676  12.645   1.929  0.0031 -0.2373 -0.0462
23151W        W66142  25.405  10.749  14.944 -0.0052  0.0108 -0.2630
23152W        W66143  24.093  18.341  22.245  0.1299 -0.3516  0.1184
23153W        W66144   4.931   0.521  17.604 -0.0864  0.0697  0.1253
23154W        W66145  23.186  28.428  16.042  0.1320  0.2029 -0.0364
23155W        W66146   0.334  14.176   5.046 -0.1374 -0.3630 -0.2030
23156W        W66147  24.483   1.144  17.927  0.0005  0.1636  0.0474
23157W        W66148   4.886  32.550  23.982  0.1188  0.0855 -0.2020
23158W        W66149  29.288  14.675  16.366 -0.1572 -0.0670 -0.0655
23159W        W66150  24.647  25.675  14.017  0.0020 -0.3459  0.0432
23160W        W66151  27.920  25.436  19.257  0.0359 -0.0383 -0.2244
23161W        W66152  14.401   6.702  20.436 -0.3844 -0.0816 -0.0986
23162W        W66153  11.037  16.438  19.011  0.2028 -0.1738 -0.0196
23163W        W66154  27.309  32.853  25.525  0.0542 -0.1964  0.2539
23164W        W66155  18.099  28.080  16.106  0.1296 -0.2916 -0.0426
23165W        W66156   7.253  22.428  18.316 -0.3989 -0.1042 -0.2427
23166W        W66157  12.172  33.813   6.369 -0.1376  0.1943 -0.1308
23167W        W66158  28.195  15.180  16.934  0.1719 -0.0063  0.0404
23168W        W66159  31.167  29.291   2.129  0.1924 -0.0091  0.1278
23169W        W66160   3.853  18.059  28.185  0.0807  0.0091  0.1440
23170W        W66161  28.948   1.545  18.237 -0.2515 -0.2063  0.3475
23171W        W66162  27.140  16.732  15.068 -0.0711  0.0360  0.0996
23172W        W66163  21.452  29.578  20.562 -0.0394  0.1905 -0.3352
23173W        W66164  14.319  29.995  22.051 -0.2154  0.0065  0.2683
23174W        W66165  25.500  12.190  29.101  0.2074  0.0749  0.1391
23175W        W66166  33.124   9.185  23.380 -0.0685  0.0335  0.2001
23176W        W66167   2.966  23.749   5.980 -0.1033  0.0771  0.1922
23177W        W66168  21.143   6.439  19.146  0.4179 -0.1866 -0.0649
23178W        W66169  30.270  19.396  17.246 -0.1495 -0.4005  0.0508
23179W        W66170  24.685  20.934  23.605 -0.1596 -0.3952  0.0293
23180W        W66171  28.649   3.204  29.102 -0.4740 -0.2564 -0.2155
23181W        W66172  29.978  22.514  23.630 -0.2849 -0.0727  0.2513
23182W        W66173  29.561   2.386  24.224  0.1561  0.3123 -0.2812
23183W        W66174  31.129   6.333  17.868  0.0076  0.2280  0.0318
23184W        W66175   6.815  23.109  17.566 -0.0143 -0.3511 -0.1452
23185W        W66176  25.333  32.735  21.009 -0.0277  0.1229  0.3822
23186W        W66177  19.411  18.700  12.740 -0.1506  0.0381  0.3633
23187W        W66178  30.134   7.864  20.657 -0.3251  0.0608 -0.0893
23188W        W66179  32.563  27.425  20.154 -0.2439  0.2129  0.0406
23189W        W66180  33.900  25.665  23.678 -0.2247 -0.0022  0.0732
23190W        W66181  22.451  29.429  19.788  0.1926  0.0176 -0.0305
23191W        W66182  22.026  20.160  17.444 -0.1569 -0.0734 -0.0109
23192W        W66183   3.171  33.573  26.958 -0.1612  0.0070  0.2955
23193W        W66184   3.561  16.223  18.868  0.2332 -0.1095  0.1865
23194W        W66185  18.144  21.158  23.095 -0.2188 -0.2985  0.3598
23195W        W66186  23.887  19.447  25.410  0.0267  0.2786  0.4204
23196W        W66187   1.125  23.466   9.292  0.1245  0.1234 -0.1133
23197W        W66188  16.956   9.048  28.918  0.0575  0.2174 -0.0504
23198W        W66189  20.983  19.129   0.863  0.1498 -0.2013 -0.1012
23199W        W66190   0.163  26.042  16.098 -0.0760  0.1222 -0.1519
23200W        W66191  21.111  23.890  25.079 -0.1790  0.1823  0.1864
23201W        W66192  18.580  30.246  15.089  0.4084  0.0360  0.0530
23202W        W66193  18.230  17.662  13.353  0.2389 -0.0745  0.2049
23203W        W66194   2.349  13.220  16.165  0.4261  0.0283  0.1182
23204W        W66195  34.256  21.252  22.512 -0.0477 -0.0899  0.0567
23205W        W66196   2.152   1.249  19.985  0.0977  0.0606  0.1179
23206W        W66197   4.237  33.032  25.734  0.3164  0.3026 -0.0365
23207W        W66198  12.387  10.986   0.175  0.0687 -0.1931  0.1239
23208W        W66199  25.695  22.930   0.465  0.1229  0.0653  0.0010
23209W        W66200  25.231  22.824  25.135  0.4010 -0.1276 -0.0535
23210W        W66201  15.885  30.071  19.364  0.1484  0.2969  0.0273
23211W        W66202  12.753   9.508  26.909  0.2975  0.0274 -0.0336
23212W        W66203  23.948  21.322   6.971 -0.2823  0.2534  0.0140
23213W        W66204  24.069  28.039  21.318  0.0890  0.0495  0.4205
23214W        W66205  28.197   9.617  17.877 -0.0081 -0.0654 -0.0058
23215W        W66206  32.498  20.258  27.114  0.1866 -0.0165  0.0926
23216W        W66207  24.844  34.738  20.298  0.2021  0.2363  0.2041
23217W        W66208   3.454  21.195  25.026 -0.1141  0.1020  0.2111
23218W        W66209  31.736   9.236  20.406 -0.0541  0.3448 -0.1003
23219W        W66210  19.580  13.161   6.452 -0.1033 -0.5022  0.1848
23220W        W66211  26.364  28.800  22.351  0.0490 -0.0214 -0.1891
23221W        W66212  26.642  18.928  17.534 -0.2340 -0.0959  0.0621
23222W        W66213  18.800  33.531  14.878  0.1126  0.0924  0.2946
23223W        W66214  24.539   6.453   0.793  0.1455 -0.1774 -0.1014
23224W        W66215  29.512  14.698  26.587 -0.0909 -0.1133  0.1303
23225W        W66216  23.590  28.355   8.848 -0.1161  0.0760  0.0329
23226W        W66217  24.058  22.350   4.729 -0.0554 -0.0552 -0.1369
23227W        W66218  31.079   0.014  13.383 -0.3170  0.0971  0.0804
23228W        W66219  24.710  11.696  14.883 -0.1471  0.1500  0.0441
23229W        W66220  32.573  26.772  20.695  0.2206  0.0314 -0.4114
23230W        W66221  22.987   2.306   0.390 -0.0265  0.1467  0.1312
23231W        W66222  25.391  24.298  27.343 -0.0548  0.1741  0.1870
23232W        W66223  29.136  33.802   2.284 -0.4189  0.0635  0.2074
23233W        W66224  12.426  21.962  16.729  0.0533 -0.0098 -0.0510
23234W        W66225  15.738  20.821  23.423  0.0453 -0.1188  0.0337
23235W        W66226  31.764  11.463   7.336 -0.1945  0.3335  0.0892
23236W        W66227   3.492  21.676  20.852  0.2862  0.1974  0.0103
23237W        W66228   2.432  17.215  27.577  0.1021 -0.0622 -0.0755
23238W        W66229  22.329  18.558  15.353 -0.2332 -0.3716  0.1919
23239W        W66230  23.012  33.648  18.673 -0.1202  0.2651 -0.1972
23240W        W66231  26.290  26.293  19.918 -0.0948 -0.0969  0.2141
23241W        W66232  34.590  34.046  19.643  0.1343 -0.0096 -0.3584
23242W        W66233  27.671  25.861  21.600  0.3181  0.1805  0.1008
23243W        W66234  33.604   9.978  22.862  0.0387 -0.1330 -0.2235
23244W        W66235   1.517  13.620  18.815  0.0670  0.1656  0.1276
23245W        W66236  14.824  12.421  16.848 -0.0891 -0.1894 -0.3198
23246W        W66237  19.804  30.457  29.178  0.1714 -0.2246 -0.0240
23247W        W66238  30.666  15.857  16.946  0.0049 -0.0670  0.0947
23248W        W66239   6.559  18.033   0.682  0.0991  0.1954  0.1102
23249W        W66240  20.369   0.155  24.134  0.2475 -0.1219  0.1695
23250W        W66241  21.964  14.440   1.877 -0.3223  0.1775 -0.2402
23251W        W66242  22.946  13.044  13.587 -0.0299 -0.1576 -0.3513
23252W        W66243   6.357  29.246  21.365  0.3384 -0.1626 -0.1328
23253W        W66244   3.989  19.228  17.775  0.1215  0.3979  0.0746
23254W        W66245   1.955  27.528   1.321 -0.1476 -0.4252 -0.1238
23255W        W66246  28.758  16.817  17.565 -0.3065 -0.0340  0.0393
23256W        W66247  25.586  10.642  22.919 -0.0011  0.2101 -0.4545
23257W        W66248  15.191  33.875  24.267 -0.0914 -0.3276  0.2235
23258W        W66249   1.166  28.855  15.232 -0.1335  0.0727 -0.0667
23259W        W66250  32.407  30.376   0.688  0.0608  0.0234  0.0867
23260W        W66251  22.952  31.425  20.199 -0.2053  0.0959  0.0408
23261W        W66252  24.670  20.313  23.999 -0.1629  0.1926 -0.1732
23262W        W66253  20.065  27.861   9.768  0.4905  0.1164 -0.0822
23263W        W66254  28.249  32.081  19.569 -0.0300  0.1933  0.0230
23264W        W66255   8.163  12.984   2.739  0.3435 -0.2434  0.0680
23265W        W66256  32.235  15.402  16.386 -0.0301 -0.1067 -0.0766
23266W        W66257  22.779  18.092  13.349 -0.2874 -0.0958  0.3280
23267W        W66258  30.106  28.133  22.519  0.4262  0.1611  0.3810
23268W        W66259  23.443  21.618  21.253 -0.2226  0.3264 -0.0334
23269W        W66260  31.951   4.345  16.857  0.2058  0.2343 -0.1015
23270W        W66261   0.970  30.867  19.912  0.3219  0.0191  0.2123
23271W        W66262  32.024  30.776  21.784  0.1029  0.3131 -0.0176
23272W        W66263  34.470   6.747  24.331 -0.0451  0.0825 -0.4997
23273W        W66264   0.213  32.405  21.317 -0.0457  0.3656 -0.1317
23274W        W66265  25.645  24.717  23.139  0.1465 -0.1970  0.1408
23275W        W66266  31.904  18.713  16.935 -0.2563 -0.1047 -0.2382
23276W        W66267  32.768  27.124  19.046 -0.0740  0.0531  0.0322
23277W        W66268  34.424  17.979  24.322  0.0553 -0.0346  0.0768
23278W        W66269  30.405  19.201  22.090  0.0268 -0.2732  0.0144
23279W        W66270   3.770  23.442  17.515 -0.2157  0.0111 -0.1973
23280W        W66271  32.079   8.636  15.527  0.1729 -0.3035  0.1332
23281W        W66272  11.508  15.845   6.269 -0.2472  0.1277 -0.1009
23282W        W66273  24.438  22.757  23.951  0.0530 -0.2026 -0.0067
23283W        W66274   7.491  31.794  20.049  0.1314 -0.1373  0.5899
23284W        W66275  19.627  28.108  17.425 -0.2112  0.2028 -0.1935
23285W        W66276  27.434  20.355  22.695 -0.0236 -0.2475 -0.0737
23286W        W66277   9.099  29.677  21.903 -0.1242  0.2619 -0.0440
23287W        W66278  25.176  34.535  14.494  0.2994 -0.2950  0.0430
23288W        W66279  28.794  25.433  21.000 -0.0350 -0.2350  0.0850
23289W        W66280  33.944  28.572   6.116 -0.3144  0.0018 -0.0265
23290W        W66281  25.847  26.361  25.473  0.0131 -0.0675  0.0068
23291W        W66282  12.793  15.973  23.971  0.0694  0.0712  0.1065
23292W        W66283  28.653  12.986  21.472  0.1292 -0.2088  0.2803
23293W        W66284  28.068  21.091  18.169 -0.0401 -0.0313  0.2605
23294W        W66285  17.086  17.693   6.941 -0.1419  0.1841 -0.2181
23295W        W66286  11.224  18.043  20.558  0.1921  0.2052 -0.1470
23296W        W66287   0.211  13.837  17.018 -0.0283 -0.0843 -0.3465
23297W        W66288  32.492  24.366   7.526 -0.1774  0.1490 -0.0229
23298W        W66289   2.351  16.160  23.931  0.3897  0.0382 -0.1085
23299W        W66290  31.675  25.622  20.700 -0.1997 -0.0333 -0.1002
23300W        W66291   0.053  18.681  16.028  0.0298 -0.0113  0.0847
23301W        W66292   9.029   5.807  15.487 -0.0245 -0.1421 -0.1319
23302W        W66293   1.221  17.634  24.195 -0.1936 -0.1772  0.2318
23303W        W66294  26.396  28.536  18.969 -0.1223 -0.0747 -0.1087
23304W        W66295   5.238   2.664  27.853  0.1743 -0.2192  0.0792
23305W        W66296   4.569  31.818  16.461  0.0872  0.0968 -0.1723
23306W        W66297  12.871   4.211  19.454 -0.0526 -0.2296 -0.1579
23307W        W66298   1.164  30.936  23.854 -0.0245  0.0618  0.0153
23308W        W66299  30.127  22.526  15.978 -0.1140 -0.1866  0.3223
23309W        W66300  20.974  18.778  12.069 -0.1907  0.1474  0.0611
23310W        W66301  32.351  20.010   3.457 -0.0432 -0.0942 -0.0755
23311W        W66302   2.431  15.635  22.093 -0.0593  0.2194 -0.1520
23312W        W66303  25.325  22.107  19.831  0.2308 -0.1763  0.1162
23313W        W66304   8.771  14.322  19.626  0.0618 -0.0876 -0.0626
23314W        W66305   0.449  22.673  27.262  0.1012  0.0322 -0.2854
23315W        W66306  28.467  24.046  20.923 -0.0774 -0.0422  0.0731
23316W        W66307  25.140  24.084  13.668  0.0946  0.1556 -0.2696
23317W        W66308  23.522   2.020  15.427 -0.1009 -0.0738  0.2320
23318W        W66309   2.781  29.545  28.650  0.4057  0.2930 -0.1463
23319W        W66310  19.203  28.133  20.394 -0.1147  0.3337 -0.1346
23320W        W66311   3.235  14.350  27.528  0.0757  0.2223 -0.1776
23321W        W66312  32.223  19.362  14.707 -0.2030 -0.1052 -0.0599
23322W        W66313  12.100  13.161  21.106  0.0165 -0.0780  0.3084
23323W        W66314  23.061  28.155  28.642  0.5807 -0.1314  0.1139
23324W        W66315  31.651  10.042  15.037  0.3501  0.0480 -0.0746
23325W        W66316  25.329  30.024  16.126  0.3116 -0.2998 -0.0054
23326W        W66317  24.509  18.341  14.111  0.0930 -0.0478  0.1591
23327W        W66318  27.958  17.809  19.580  0.3606  0.1568 -0.1300
23328W        W66319  17.541  21.245  18.404  0.2220  0.3442  0.1191
23329W        W66320  21.119  21.536  26.742 -0.1262 -0.3529  0.0757
23330W        W66321  31.632  16.849  17.774  0.0593  0.1736  0.1372
23331W        W66322  21.741  32.857  21.562  0.0208 -0.0507  0.0318
23332W        W66323  27.002  14.135  23.538 -0.1050 -0.1746  0.1943
23333W        W66324  17.979   6.461  26.892  0.2115 -0.1408 -0.0391
23334W        W66325  21.623  28.821  18.960  0.4363 -0.2094 -0.3012
23335W        W66326  22.103  27.715  20.762  0.0453 -0.0187 -0.2006
23336W        W66327  23.291  32.814  21.274 -0.1224 -0.1941  0.1607
23337W        W66328   4.027  10.472  15.937 -0.1327 -0.1671  0.0071
23338W        W66329  13.614  23.879  17.337  0.3292 -0.1903  0.1213
23339W        W66330  19.303  17.312  14.606  0.0058 -0.0158  0.1840
23340W        W66331   6.366  13.061  16.017  0.2326  0.1520  0.3189
23341W        W66332  24.114  11.705   0.932 -0.4401  0.1248  0.0057
23342W        W66333  27.914   8.741   3.952 -0.1928  0.2608  0.0008
23343W        W66334  25.394  12.937  25.036  0.0721 -0.0049  0.0759
23344W        W66335  18.737  15.467  14.009  0.0508  0.0366  0.1642
23345W        W66336  26.999  19.986  25.464  0.2561  0.0224 -0.2097
23346W        W66337  18.054  12.239  23.270 -0.0915  0.3218  0.0852
23347W        W66338   1.352   5.103   3.329 -0.2280 -0.0604  0.0123
23348W        W66339  31.686  25.682  14.677 -0.0956 -0.1488  0.0400
23349W        W66340  29.680  10.157  21.692 -0.0540 -0.1626 -0.0092
23350W        W66341  23.696  24.704   0.613  0.1792 -0.0985 -0.0991
23351W        W66342   9.134  19.681  21.555  0.0228 -0.0093 -0.0352
23352W        W66343  23.598  21.252   1.767 -0.1067 -0.0681 -0.0078
23353W        W66344  17.536  13.797  22.776 -0.3185 -0.1439 -0.0559
23354W        W66345   4.717  10.533  18.612 -0.0686 -0.0914 -0.1769
23355W        W66346  20.650  13.765  19.363 -0.0992  0.1407 -0.1924
23356W        W66347  10.745  32.181   0.725 -0.0803 -0.1536 -0.0513
23357W        W66348  11.234  13.230  16.811 -0.2888 -0.0674 -0.2279
23358W        W66349  34.128   9.203  19.220  0.0859  0.0723  0.2155
23359W        W66350  22.399  18.613  13.362 -0.1418  0.1188  0.2259
23360W        W66351  28.425  23.784  20.007 -0.0036 -0.1735  0.0094
23361W        W66352  26.544   9.053  25.804 -0.0122  0.0680 -0.1816
23362W        W66353  23.563  22.466  12.807 -0.2156  0.0951 -0.0239
23363W        W66354  26.571  27.071  21.295 -0.0544  0.0336  0.2121
23364W        W66355  26.687  33.736  28.866  0.1903  0.3405 -0.2139
23365W        W66356  22.835  13.536  16.823  0.2255  0.0502 -0.2092
23366W        W66357   0.827  26.214  27.243  0.3123 -0.1285 -0.1223
23367W        W66358  24.862  25.048  21.360 -0.0080 -0.0117 -0.1837
23368W        W66359  31.551  13.769  15.567  0.2581 -0.0479  0.1294
23369W        W66360   0.262  34.144  23.947  0.0845 -0.0602 -0.0138
23370W        W66361  32.440  12.872  16.762 -0.1383 -0.1239  0.1349
23371W        W66362   8.907   6.241  20.567  0.0402 -0.3307  0.0230
23372W        W66363  31.811   7.715  18.682  0.0309 -0.0811  0.1149
23373W        W66364  14.941  31.719  16.704 -0.1219  0.1694 -0.1663
23374W        W66365   6.376  16.352  18.221  0.4634  0.0119 -0.3317
23375W        W66366  19.803  27.378   0.351  0.1561 -0.1311  0.0442
23376W        W66367   2.929  10.443  17.934  0.3736  0.2861 -0.0332
23377W        W66368   5.752  34.322  25.721  0.1849 -0.0511 -0.0254
23378W        W66369  25.017  28.135  17.621 -0.0877 -0.0218 -0.1490
23379W        W66370  16.663  27.470  22.575 -0.1096 -0.1445  0.1393
23380W        W66371  22.022  21.171  15.284 -0.0596 -0.2202 -0.0107
23381W        W66372  27.278  25.068  18.563  0.1526 -0.1370  0.0949
23382W        W66373  15.896   1.418  23.442 -0.0034  0.2076  0.1297
23383W        W66374   0.876   9.780  27.537 -0.0050  0.1222 -0.1215
23384W        W66375  13.966   1.075  19.990  0.0451 -0.0184 -0.0276
23385W        W66376  18.576  13.165  25.920  0.2186  0.1876 -0.0813
23386W        W66377  31.684  15.245  27.500 -0.3094 -0.0030  0.2177
23387W        W66378  28.248   3.422   1.501 -0.4335  0.0562  0.2025
23388W        W66379   3.434  18.276  15.812 -0.2058  0.0505  0.1668
23389W        W66380  34.636  32.287  16.421 -0.1128 -0.1606 -0.0033
23390W        W66381   6.597  11.707  16.826  0.4631  0.2107  0.0057
23391W        W66382  31.612  28.842  12.930 -0.0982 -0.1214 -0.1175
23392W        W66383  16.730  22.812   7.400  0.1612 -0.0278  0.0548
23393W        W66384  22.694  25.345  16.370 -0.0219 -0.1515  0.0641
23394W        W66385  32.090  29.098  22.461  0.1072 -0.2159  0.1960
23395W        W66386  27.888  18.483  14.257  0.0439 -0.1033 -0.0892
23396W        W66387  30.021  31.015  16.512 -0.0784 -0.2156 -0.1958
23397W        W66388  14.186  25.622  29.235 -0.0794 -0.1738 -0.0271
23398W        W66389  21.183  34.424  16.925 -0.1982  0.0680 -0.0339
23399W        W66390  16.693  26.958  22.428  0.2821  0.0154 -0.0472
23400W        W66391   3.688  27.124  21.609 -0.2152  0.0907  0.0289
23401W        W66392  30.332  15.687  28.081 -0.0186  0.2470  0.0577
23402W        W66393   4.794  31.138  28.017  0.1141  0.1757 -0.1028
23403W        W66394  11.411  33.928  28.591 -0.1376  0.1235 -0.0376
23404W        W66395  34.708  17.035  27.132  0.1212 -0.2422 -0.2933
23405W        W66396   5.259  22.579   2.169  0.1301 -0.0162  0.1847
23406W        W66397  33.698  22.260   2.342 -0.0775 -0.0344  0.1921
23407W        W66398  18.242   1.848   3.398  0.1333  0.2683 -0.1663
23408W        W66399  29.023  11.931  19.261 -0.0881 -0.0179 -0.1458
23409W        W66400  23.460   3.841  24.250  0.3009  0.0643 -0.0795
23410W        W66401  24.369   8.401  14.417 -0.1438  0.0259  0.1041
23411W        W66402  16.265  18.178  14.710 -0.1383  0.1240 -0.1832
23412W        W66403  22.354   8.494  15.190  0.0651  0.0072 -0.0217
23413W        W66404  13.248  25.427  21.418 -0.2114  0.1859  0.2668
23414W        W66405  23.940  14.310  28.906  0.0603 -0.0525  0.0174
23415W        W66406   4.893  27.289  18.039  0.1203 -0.1017  0.1634
23416W        W66407  29.876  31.257  19.775 -0.0571 -0.1409  0.5091
23417W        W66408  18.718  32.554  18.380 -0.0433 -0.0743 -0.1128
23418W        W66409  27.944   7.199  26.261  0.0198 -0.0161  0.1033
23419W        W66410  23.083  12.451  18.399 -0.1197  0.0510 -0.2129
23420W        W66411  31.572  28.640   0.022  0.2204  0.0095  0.1535
23421W        W66412  24.756  12.550  19.806 -0.1027  0.1094  0.0664
23422W        W66413   5.493  27.974  18.106 -0.0322  0.1413  0.0836
23423W        W66414  28.037   3.505  24.631  0.1851  0.0783 -0.2083
23424W        W66415  31.016  32.148  20.358  0.1036 -0.0648  0.3966
23425W        W66416  18.173  13.334  17.276  0.1992 -0.0095 -0.2654
23426W        W66417   2.618  17.329   2.087  0.2426 -0.2167 -0.3457
23427W        W66418  31.614  22.881  25.504 -0.1018  0.0349  0.1142
23428W        W66419  11.278  16.817  17.553  0.0075  0.1613  0.0313
23429W        W66420  11.372   7.434  22.152 -0.4034  0.2238 -0.1467
23430W        W66421  30.156  32.023  22.801 -0.1915  0.0374 -0.2975
23431W        W66422  16.902  20.112  13.668 -0.1963  0.2690 -0.2386
23432W        W66423  18.472   8.895   5.274 -0.2746 -0.0080 -0.0087
23433W        W66424  29.276  21.450   1.081  0.1091 -0.0088  0.1088
23434W        W66425  26.275  12.850  16.927 -0.0897  0.2699  0.3260
23435W        W66426  28.800  27.618   2.135  0.1645 -0.0885 -0.4087
23436W        W66427   7.826   0.118  19.286 -0.1032 -0.0138 -0.2851
23437W        W66428  29.965  22.188  17.817 -0.0622  0.1481  0.3149
23438W        W66429  30.573  19.098  18.527 -0.1395  0.2715 -0.1743
23439W        W66430  17.943   6.341  19.154 -0.0537  0.2976 -0.0479
23440W        W66431  27.943  23.936  20.062  0.0209  0.4617 -0.0308
23441W        W66432  18.558  20.005  17.799 -0.1920  0.1872 -0.2286
23442W        W66433  32.700  17.992  20.831  0.0042 -0.2991  0.2174
23443W        W66434  15.843   7.376  24.139  0.2587 -0.2558  0.0031
23444W        W66435  22.473  11.813   2.933 -0.1431  0.0862 -0.1027
23445W        W66436  30.719  27.831  23.146 -0.0978  0.1074 -0.0917
23446W        W66437  11.796  24.469  17.817  0.2144  0.1111 -0.0330
23447W        W66438   0.895  31.002  23.063 -0.1467  0.1399 -0.0664
23448W        W66439  32.211  31.898   5.956 -0.0659 -0.1046 -0.0970
23449W        W66440   8.956  22.030  16.620 -0.3555 -0.0259 -0.0264
23450W        W66441  26.241  17.858  19.830 -0.1118 -0.1560  0.3602
23451W        W66442  26.048  20.171  22.098 -0.1940 -0.0252 -0.2499
23452W        W66443   3.166  22.575   1.512  0.2121  0.1797  0.1899
23453W        W66444  32.728  28.365  19.074  0.1393 -0.0119 -0.0689
23454W        W66445  28.418  22.835  26.800  0.0913  0.5385  0.0172
23455W        W66446  19.830  25.226  24.860 -0.0496 -0.3181  0.1101
23456W        W66447  20.501  21.759  27.541  0.1747 -0.1545 -0.1557
23457W        W66448  16.848  24.022  19.500  0.4013 -0.1330 -0.3842
23458W        W66449  21.791   4.313   0.207  0.1125  0.0694 -0.1287
23459W        W66450  26.683  24.195  23.278  0.2344 -0.0155  0.0801
23460W        W66451  24.227  23.314  15.203 -0.1329 -0.0493  0.1055
23461W        W66452  34.273   3.361  24.742 -0.1299  0.2322 -0.0384
23462W        W66453  22.862  12.830   3.926  0.1034  0.0077 -0.0334
23463W        W66454  28.072  18.845   7.598 -0.2968  0.0923  0.1847
23464W        W66455  33.026  32.368  28.889 -0.0436 -0.0664 -0.2718
23465W        W66456  32.584  13.145  28.979 -0.1726  0.2190  0.1973
23466W        W66457  14.069  33.541  23.670 -0.0146  0.0348  0.2403
23467W        W66458  26.034  28.194  17.601  0.2248 -0.1131  0.1046
23468W        W66459  26.130  33.186   2.892 -0.2097 -0.2055  0.4360
23469W        W66460   5.085  19.164  18.092  0.0381 -0.0441 -0.0431
23470W        W66461  32.000   9.377  15.184  0.1194  0.1873  0.1257
23471W        W66462   0.739  28.456  22.961 -0.2274  0.1384 -0.1890
23472W        W66463  32.212  26.728  27.556  0.0249 -0.0951 -0.2598
23473W        W66464   3.488  24.573  14.783 -0.1111 -0.2323  0.1240
23474W        W66465  29.926  23.614  21.285 -0.3053  0.0128  0.0459
23475W        W66466  27.297   4.225   3.221  0.0191 -0.1994  0.0960
23476W        W66467  34.190  15.951  26.812  0.0882 -0.1949  0.0075
23477W        W66468  26.722  21.662  16.357  0.0373  0.1972 -0.0764
23478W        W66469  17.062  34.552  23.633 -0.2911 -0.2374 -0.0510
23479W        W66470  29.619  21.618  25.621  0.0187  0.1244  0.3117
23480W        W66471   2.658  19.956   6.130  0.2753  0.2152 -0.1498
23481W        W66472  33.244  23.043  19.333  0.1432  0.0579 -0.0878
23482W        W66473  22.387  23.792   8.620  0.0424  0.1538  0.3939
23483W        W66474  19.260  31.246  23.265  0.1488 -0.1483 -0.2179
23484W        W66475   0.149  22.645  27.989  0.0406  0.1927  0.0509
23485W        W66476  23.108  15.406  25.444  0.1757 -0.0845  0.0668
23486W        W66477  20.883   7.452   8.321  0.1855 -0.2851 -0.1482
23487W        W66478  22.900  27.256  15.596  0.0499 -0.1285  0.0122
23488W        W66479  34.678   9.969  29.103 -0.1038  0.1362  0.2133
23489W        W66480  26.305  29.340  24.721  0.4284  0.0798  0.1657
23490W        W66481   0.684  31.437   9.526 -0.1574 -0.0368  0.1518
23491W        W66482  11.065  26.003  23.955 -0.0377  0.0017  0.2454
23492W        W66483   9.125  19.816  15.740 -0.4394  0.0620 -0.0522
23493W        W66484  31.797  26.621   0.459  0.0281 -0.1366  0.2120
23494W        W66485  29.555  23.438   2.895 -0.0677 -0.1743 -0.0114
23495W        W66486  10.209  27.001  27.448  0.0519  0.1380  0.1291
23496W        W66487  19.274  21.862  14.683 -0.1257 -0.0714 -0.0035
23497W        W66488   5.127  32.466  21.315  0.1239  0.0160  0.1412
23498W        W66489   1.760   7.485   2.807  0.1082 -0.0771  0.2904
23499W        W66490  18.885   2.829  27.124  0.0961  0.0159  0.0282
23500W        W66491   5.505  21.414   5.458 -0.2166  0.2139  0.1114
23501W        W66492  21.401  33.054  17.953 -0.3627  0.1464 -0.1298
23502W        W66493  16.040  23.715   1.064  0.2366  0.1470 -0.2848
23503W        W66494   1.886  11.900  26.203  0.0270  0.2051 -0.0577
23504W        W66495  14.717   6.815  19.409  0.0460 -0.0031 -0.1194
23505W        W66496   8.541   7.997   9.186 -0.0855  0.2658  0.0678
23506W        W66497   3.847  18.456   3.289 -0.0587  0.1540 -0.0193
23507W        W66498  32.396  30.718   2.710 -0.0323 -0.2580 -0.2460
23508W        W66499  15.396   6.934  22.044 -0.0283 -0.1864  0.0352
23509W        W66500  25.715  24.121   4.080  0.2244 -0.0933 -0.1142
23510W        W66501  21.894  21.471   3.251  0.1817 -0.0311 -0.1656
23511W        W66502  20.411   2.389  23.760 -0.2886  0.0587  0.2231
23512W        W66503   5.616  22.884  25.998 -0.0879  0.2144 -0.0725
23513W        W66504  14.041  33.463   5.324 -0.1647  0.0481  0.1182
23514W        W66505  34.129  17.741  26.889  0.3106 -0.0698 -0.3651
23515W        W66506   2.868  26.205  24.962 -0.0892 -0.2320 -0.0808
23516W        W66507  25.251  21.303   8.216 -0.0408  0.3043 -0.0455
23517W        W66508  11.929  22.233  14.268 -0.4995  0.1185 -0.2746
23518W        W66509  17.823  13.033  23.927 -0.0958  0.2859  0.1888
23519W        W66510  34.186  24.917   0.025  0.0243 -0.2085 -0.3720
23520W        W66511  15.908  15.646   0.533  0.0119 -0.2030 -0.1014
23521W        W66512  26.630  26.782  18.890  0.2414 -0.2107 -0.0288
23522W        W66513  28.833  21.887  23.087 -0.1268 -0.0267 -0.1023
23523W        W66514   0.505  10.757   4.833  0.0818  0.0350  0.2759
23524W        W66515  24.884  20.713  21.196  0.1341 -0.0700 -0.0282
23525W        W66516   8.414  15.335  11.029 -0.0591 -0.1306 -0.0714
23526W        W66517  19.410   7.465  19.170 -0.2487 -0.3268 -0.2980
23527W        W66518  24.542   6.328  22.817  0.0941 -0.0340  0.1042
23528W        W66519  30.469  14.031  17.802  0.0571  0.2229 -0.0434
23529W        W66520   4.116  28.324  14.412  0.0986  0.2860 -0.1596
23530W        W66521  16.081  10.713   8.090  0.4521 -0.2060  0.1448
23531W        W66522  22.379  21.738  23.995  0.0298 -0.0798  0.0442
23532W        W66523  18.054  11.581   3.190 -0.0670  0.0464 -0.3107
23533W        W66524  30.826  29.944   3.978  0.0526  0.0997  0.0421
23534W        W66525  20.662   2.497   1.818  0.1883 -0.0202 -0.2164
23535W        W66526   2.102   9.562  15.673  0.1790 -0.1947  0.2286
23536W        W66527  18.704  12.181  14.574 -0.1109 -0.5017  0.2642
23537W        W66528  29.368  32.488  20.233 -0.0717 -0.0235 -0.4084
23538W        W66529  26.027  24.018  23.287 -0.2457  0.2687  0.0402
23539W        W66530  31.006  25.800  15.329  0.0378 -0.1448 -0.1121
23540W        W66531  30.269  32.511   0.964 -0.2752 -0.0898  0.2048
23541W        W66532  18.614   8.060   1.705 -0.0009  0.0713 -0.0606
23542W        W66533  11.193  22.148  23.373 -0.0120  0.2474 -0.1924
23543W        W66534  28.685  28.890  12.461  0.1019 -0.1927  0.0882
23544W        W66535  21.950  24.056  13.617 -0.1930  0.0957 -0.0883
23545W        W66536  23.726  26.723   5.935  0.3449  0.0841 -0.0371
23546W        W66537  20.598  12.688  13.704 -0.1411 -0.0145 -0.0242
23547W        W66538   4.296  26.118   0.375 -0.1661 -0.0291  0.0471
23548W        W66539  11.448  18.716  14.124 -0.0020  0.1642  0.1985
23549W        W66540   1.557  11.017  15.894 -0.0778  0.0978 -0.1471
23550W        W66541  10.699  21.419  20.927  0.0173  0.1798  0.1049
23551W        W66542  20.015  15.333  23.744 -0.0004 -0.4292  0.1000
23552W        W66543  30.718  12.727  27.175 -0.1599 -0.1022 -0.0994
23553W        W66544  23.158  28.151  28.154 -0.0387  0.0826 -0.0350
23554W        W66545   6.603   1.143  27.124 -0.0488 -0.0412 -0.0412
23555W        W66546   2.965  25.524  18.838  0.0151  0.1157  0.0638
23556W        W66547  32.436  26.377   3.973 -0.2647  0.0203  0.1101
23557W        W66548  29.716  31.807  22.653 -0.2664  0.1049 -0.2596
23558W        W66549  23.587   3.163   6.398  0.1501  0.0684 -0.2992
23559W        W66550  20.211  14.486  18.482 -0.3935 -0.0353  0.0243
23560W        W66551  23.699  19.958  14.539 -0.0759 -0.0842 -0.2315
23561W        W66552  34.021  23.944  19.343 -0.3173  0.2831  0.0594
23562W        W66553  21.221  14.470  14.736  0.1655 -0.2566  0.0583
23563W        W66554  20.348   6.772   2.866 -0.2317 -0.1610  0.1803
23564W        W66555   3.676  19.785  27.205 -0.1365 -0.0399  0.1032
23565W        W66556   2.612  11.992  27.489  0.1328  0.1310  0.3564
23566W        W66557  32.878  22.874  15.641  0.0764 -0.0635 -0.2936
23567W        W66558  23.188  17.810  26.612  0.3057 -0.0280  0.1401
23568W        W66559   1.803  29.421  21.412  0.0836 -0.3157  0.0016
23569W        W66560  19.562  21.942  21.966  0.0376  0.2826  0.0339
23570W        W66561  26.133   6.468   1.491  0.3224 -0.0654  0.3413
23571W        W66562  14.951  17.573  26.723 -0.3565 -0.1643  0.0240
23572W        W66563  23.247  27.281  21.349  0.1663 -0.2102 -0.3086
23573W        W66564  21.271  31.078  13.270 -0.1052 -0.3736 -0.1034
23574W        W66565  32.516  16.778  19.403  0.0401  0.1162  0.0001
23575W        W66566  30.333  22.845  27.967  0.2826  0.5394  0.1828
23576W        W66567  32.028  15.930   9.922 -0.0493  0.1991 -0.0370
23577W        W66568  11.573  12.084  19.777 -0.2385  0.2228  0.1252
23578W        W66569  17.969   3.182  28.050  0.4719 -0.3416  0.0179
23579W        W66570  27.917  16.326  10.389 -0.3005 -0.0988 -0.0004
23580W        W66571   1.813  19.029  14.546 -0.2703 -0.0263  0.1266
23581W        W66572  11.069  20.788  26.098 -0.0339 -0.1592 -0.3395
23582W        W66573  28.523  28.288   5.656 -0.3073  0.1846  0.0241
23583W        W66574   0.687  22.126  22.320 -0.0322  0.1728 -0.2538
23584W        W66575  32.818   4.197  21.823 -0.1003  0.1505  0.1580
23585W        W66576   6.074  20.654  21.490 -0.2598 -0.0868 -0.0949
23586W        W66577  22.170  20.299  22.114 -0.0530 -0.1762  0.1736
23587W        W66578  31.766   7.000   1.290 -0.0868  0.3544 -0.0231
23588W        W66579   9.945  15.991  23.354  0.1749  0.0587  0.1022
23589W        W66580   9.963  24.586  14.717 -0.2041  0.0235 -0.0654
23590W        W66581  30.964  24.629   1.511 -0.1397  0.1542  0.0626
23591W        W66582  24.396  13.130  27.414 -0.2723  0.0893 -0.0129
23592W        W66583  24.126  18.490  25.080  0.1157 -0.1221  0.2100
23593W        W66584  21.331  11.803  24.304  0.0022 -0.0512  0.2648
23594W        W66585  14.495  26.273  27.999 -0.2247  0.5198  0.1947
23595W        W66586  29.099  22.083  21.540  0.3317  0.0900  0.1208
23596W        W66587   9.633  24.412   6.679  0.0349  0.1164  0.1624
23597W        W66588  33.645   4.096  27.589 -0.2667  0.0823 -0.2026
23598W        W66589  26.880  11.130  21.787 -0.1575 -0.0460  0.1939
23599W        W66590  17.019   5.125  19.886 -0.1612  0.0532  0.1642
23600W        W66591  25.148  20.160  24.069 -0.2159  0.4994 -0.2574
23601W        W66592  30.243  26.346  24.801 -0.0971 -0.0137 -0.0549
23602W        W66593  21.909  15.660   1.476  0.0286 -0.0458  0.0275
23603W        W66594   4.968  15.363  17.033 -0.0195  0.0338 -0.1523
23604W        W66595  29.913  33.455  21.409 -0.1572 -0.4978 -0.0707
23605W        W66596  24.304   0.642  19.975  0.1288  0.1843 -0.3405
23606W        W66597  17.002  23.868   4.712  0.0166  0.3320  0.0836
23607W        W66598  28.778  28.248  18.305 -0.1352 -0.2896 -0.2208
23608W        W66599   1.569  18.611  24.671 -0.0727 -0.2066  0.1079
23609W        W66600  20.913  24.022  25.958 -0.5394  0.2926  0.0197
23610W        W66601  12.205  15.183  27.909  0.2111 -0.3915 -0.0867
23611W        W66602  12.430  21.067  22.945 -0.1095  0.2715 -0.1614
23612W        W66603  21.650  18.443  12.807  0.0480  0.1497  0.1399
23613W        W66604   1.958  21.195  18.522  0.3700 -0.0720  0.0439
23614W        W66605  19.671  10.788  16.016  0.2457 -0.0237  0.0153
23615W        W66606  28.037  27.423   8.647  0.0745 -0.3077  0.0283
23616W        W66607  19.998   7.981  21.506 -0.1497 -0.1374  0.1903
23617W        W66608  29.011  20.884  17.123 -0.2385 -0.4102  0.0937
23618W        W66609   1.032   2.237  26.587 -0.0924 -0.2734  0.0875
23619W        W66610   4.793  13.833   4.985 -0.1190 -0.0923 -0.0302
23620W        W66611  32.849   5.494  19.743  0.1517  0.3749 -0.1764
23621W        W66612  28.804  20.573   4.906  0.1286 -0.0290  0.1381
23622W        W66613  16.733  16.805  13.430  0.2900  0.1387 -0.2714
23623W        W66614  16.123  11.778  16.061 -0.0660 -0.0949  0.4486
23624W        W66615  19.869   6.224  24.276  0.0826  0.0463 -0.1846
23625W        W66616  32.265   5.677   1.890 -0.0187 -0.0453 -0.2916
23626W        W66617  26.356  25.686  22.201 -0.3259 -0.1624 -0.0175
23627W        W66618  21.726  24.638  19.363 -0.1069  0.0255  0.4128
23628W        W66619   6.656   8.108  24.284  0.1579  0.0674 -0.2656
23629W        W66620  27.945  25.180  21.329 -0.2667 -0.0606 -0.0305
23630W        W66621   9.373  20.228  27.732  0.1276  0.0710  0.2260
23631W        W66622  30.813  26.211  28.480  0.1331  0.2866 -0.2470
23632W        W66623   9.767  21.540   9.015  0.0079 -0.1092 -0.1085
23633W        W66624  17.329   4.694  19.315 -0.0447  0.0331  0.2951
23634W        W66625   1.506  30.197  16.930  0.0419  0.3076 -0.0660
23635W        W66626  12.845  28.164  23.208  0.2949  0.2082 -0.1560
23636W        W66627   9.076  22.908   6.252 -0.0399  0.1204 -0.4342
23637W        W66628   1.796   6.275  24.499  0.0253 -0.0615 -0.0083
23638W        W66629   4.308  24.340  14.165  0.0166 -0.3484 -0.0591
23639W        W66630  16.080   3.363   0.682  0.0795 -0.2060 -0.1050
23640W        W66631  34.045   5.263  24.716 -0.2116  0.2921 -0.1281
23641W        W66632  29.049  22.935   0.053 -0.4358 -0.0942 -0.0556
23642W        W66633  18.946  24.924   4.886  0.2508  0.3998  0.2002
23643W        W66634   6.715   9.102  19.390 -0.0516 -0.0608 -0.1366
23644W        W66635  19.724  17.652  14.610 -0.0246 -0.0773  0.3646
23645W        W66636  23.513  16.644  21.507 -0.1232 -0.1396 -0.0875
23646W        W66637  27.378  17.155  27.080  0.0334 -0.2439 -0.1251
23647W        W66638  25.791  21.505  14.679  0.0111  0.1745  0.0909
23648W        W66639  21.235  20.598   1.709  0.1910 -0.2072  0.1561
23649W        W66640  23.467  15.646  24.013  0.1421  0.0270  0.0687
23650W        W66641  21.256  26.647  15.461  0.1179  0.0588 -0.0844
23651W        W66642  32.613  11.534   9.713  0.2028 -0.2916  0.0061
23652W        W66643  18.643   3.221  21.704 -0.0971 -0.1632 -0.4279
23653W        W66644   7.492  21.458  27.156 -0.3198  0.0208 -0.4097
23654W        W66645   5.530   4.476  27.989  0.1177 -0.0656  0.0963
23655W        W66646  23.415  25.193  14.321  0.0847  0.4593 -0.0717
23656W        W66647  15.727   7.033  23.170 -0.2468  0.0810  0.2771
23657W        W66648   2.870   1.095  10.508 -0.0515  0.0780  0.2807
23658W        W66649  25.483  14.998  15.414 -0.1072 -0.0529  0.0407
23659W        W66650  19.844  17.203  14.791 -0.2222  0.0011 -0.1262
23660W        W66651  30.070  33.826  21.077 -0.1277  0.0211  0.0695
23661W        W66652  21.660  11.600  29.168 -0.1825 -0.1971 -0.0887
23662W        W66653  25.839  27.910  17.110 -0.0411  0.0539  0.3490
23663W        W66654  28.964   8.969  21.698  0.0363  0.1715 -0.2846
23664W        W66655  32.326   1.302   3.141  0.3332  0.1187  0.1915
23665W        W66656  27.990  17.090   0.646  0.2202 -0.1592 -0.0711
23666W        W66657  19.250  21.547  27.784 -0.0982  0.2961  0.1090
23667W        W66658   2.395   8.334   6.149 -0.1998 -0.0014 -0.0065
23668W        W66659  29.908   3.179   2.452 -0.0217  0.3382 -0.0431
23669W        W66660  20.413  10.186   2.783  0.3273 -0.1385 -0.3404
23670W        W66661   0.315  33.849  18.361 -0.2370  0.1476  0.3089
23671W        W66662  31.082   0.123  26.783  0.2036 -0.0251 -0.0346
23672W        W66663  31.990  21.300  23.507  0.0194  0.1821  0.1612
23673W        W66664  24.148  29.970   1.513 -0.1114 -0.3725 -0.0727
23674W        W66665  32.169   9.825  29.188  0.1953 -0.0589  0.4261
23675W        W66666  21.153  12.772  19.913 -0.0675  0.2081  0.0396
23676W        W66667  14.861  20.156  21.279  0.1466 -0.0406  0.0491
23677W        W66668  20.098  19.858  27.769 -0.1784 -0.1466 -0.0189
23678W        W66669   1.523  20.584  22.168 -0.0032  0.5451 -0.1982
23679W        W66670   0.764  20.504  27.462  0.0839 -0.0036  0.1159
23680W        W66671  32.482  28.930  13.863 -0.0050  0.0428 -0.0162
23681W        W66672  30.643  28.184   7.077 -0.1103 -0.0662 -0.1170
23682W        W66673  23.637  22.602   1.182  0.0974  0.3107 -0.0204
23683W        W66674  25.571  34.472   5.363 -0.0695  0.0270  0.1192
23684W        W66675  34.027  28.908  17.194  0.1472 -0.1590  0.1428
23685W        W66676  11.036  10.602  25.937 -0.0738  0.0189 -0.1321
23686W        W66677   1.593  13.502  19.311  0.0172 -0.1840 -0.2093
23687W        W66678  31.066  20.865   2.028  0.2223 -0.4474  0.4341
23688W        W66679   8.240  20.839   2.128  0.0898  0.1188 -0.0013
23689W        W66680  25.802   6.817   4.458 -0.0137 -0.1125 -0.0603
23690W        W66681  24.268   0.761  20.855  0.3430 -0.0306 -0.1976
23691W        W66682  28.719   8.371  25.528 -0.1172  0.0954  0.2662
23692W        W66683  25.890  11.453  22.488 -0.0245  0.2353 -0.1721
23693W        W66684  28.064  13.845  25.584  0.0799  0.0015  0.0825
23694W        W66685  29.383  22.865  13.617  0.2276 -0.0664 -0.4022
23695W        W66686  34.149  31.466  19.309 -0.2513  0.0601  0.0359
23696W        W66687  32.154  18.630  18.072 -0.0399  0.2449  0.1979
23697W        W66688  33.868   2.010   0.492  0.0902 -0.0898  0.1623
23698W        W66689  34.673   1.837  20.507 -0.2184 -0.0053 -0.0630
23699W        W66690  30.046  23.951   2.087  0.3480 -0.0114  0.2967
23700W        W66691  27.950  15.151   4.591 -0.2145 -0.1146 -0.0158
23701W        W66692  29.162   8.080   5.156 -0.0435  0.0786 -0.0685
23702W        W66693  26.134   8.773   1.071  0.0737 -0.1651  0.3513
23703W        W66694  14.773  19.451  15.362  0.0938 -0.0903  0.3333
23704W        W66695  31.926  12.941  26.622  0.0988 -0.1403 -0.0913
23705W        W66696  25.649  25.706  24.787  0.2521 -0.0155  0.2483
23706W        W66697  17.778  14.432   8.082 -0.1281 -0.1469 -0.1166
23707W        W66698  10.044  18.780  18.205  0.0023  0.2111 -0.0221
23708W        W66699  13.857  29.745  25.497 -0.2582 -0.2217  0.1148
23709W        W66700  25.321   5.138   7.260  0.0091  0.0475  0.2177
23710W        W66701  18.486  23.295  18.817 -0.1031  0.1868 -0.1524
23711W        W66702  22.639  10.826   0.591  0.1282  0.1000  0.1916
23712W        W66703   0.425  14.746   9.086  0.3158 -0.3777  0.1562
23713W        W66704  23.694   2.353  15.836  0.0745  0.3394 -0.1185
23714W        W66705  29.985  25.665  19.667  0.1483 -0.0676  0.0863
23715W        W66706  29.767  29.267  22.869 -0.1452 -0.1798 -0.2145
23716W        W66707  26.538   2.463   7.710  0.0065  0.3079 -0.3383
23717W        W66708  23.220  28.263  22.437 -0.0401 -0.2179 -0.1323
23718W        W66709  18.703   9.336  16.275 -0.1022 -0.0719 -0.0312
23719W        W66710  26.724  13.669  23.195  0.0359 -0.0259  0.1325
23720W        W66711  30.550  14.265  16.928 -0.1212  0.0295 -0.0042
23721W        W66712  25.105  34.175   8.245  0.0101  0.0814 -0.3374
23722W        W66713  12.770  27.353  27.813 -0.2518 -0.1407  0.0955
23723W        W66714  28.193  16.627   9.528 -0.0141 -0.1193 -0.1105
23724W        W66715   0.922  15.731   6.541  0.0943  0.1461 -0.0005
23725W        W66716   8.688  34.740  27.580  0.1371 -0.0697 -0.3896
23726W        W66717  30.115  32.052  21.844 -0.2143 -0.0574 -0.1300
23727W        W66718  31.840  17.672  26.087 -0.2432 -0.2092  0.1218
23728W        W66719  26.470  13.409  22.757 -0.1783  0.0591  0.0030
23729W        W66720  13.988  20.760  14.356  0.2663 -0.3830  0.0831
23730W        W66721   5.099  21.504   3.812  0.0442 -0.0216  0.0719
23731W        W66722  33.207  24.817  14.463  0.3811  0.1301 -0.1137
23732W        W66723  25.104  24.411  13.274 -0.1793  0.4282  0.0350
23733W        W66724  29.316  23.972   0.940  0.3509  0.3778 -0.2577
23734W        W66725  23.915   7.104   3.452  0.3152  0.2983  0.1181
23735W        W66726  25.338   4.981   0.759 -0.0556  0.0613 -0.1980
23736W        W66727  21.742  28.130  18.381  0.2776 -0.4247  0.1698
23737W        W66728  24.891  22.105  21.687  0.0989 -0.0723  0.2622
23738W        W66729  10.915   8.912  28.355  0.2765  0.2630 -0.1628
23739W        W66730  28.687  31.149  20.689  0.0246 -0.0114  0.4986
23740W        W66731  28.802   4.616  18.468 -0.0873  0.0045  0.0140
23741W        W66732  21.436  23.952  26.004 -0.1262 -0.1163 -0.1424
23742W        W66733   7.565  25.947   3.779 -0.1361  0.2964  0.2564
23743W        W66734  18.546   3.243  18.455 -0.0594 -0.0281 -0.2647
23744W        W66735  31.796  15.233  15.225  0.1377 -0.0867  0.0890
23745W        W66736  24.954  24.417  18.038 -0.0598 -0.5085  0.1096
23746W        W66737  29.757  19.606  27.895  0.0950  0.2537 -0.0795
23747W        W66738   0.302   9.239   3.396 -0.0912 -0.0393  0.0268
23748W        W66739  25.937  28.634  16.497  0.3159 -0.0013  0.2814
23749W        W66740  24.277   0.242  19.643  0.4483  0.2211  0.0721
23750W        W66741  26.263  26.879  17.114  0.0075  0.1017  0.1536
23751W        W66742  14.404  19.600  23.154  0.0551 -0.2434  0.4333
23752W        W66743  13.642  17.589  14.265 -0.0355 -0.1067  0.1301
23753W        W66744  29.901  14.987  26.782 -0.0882 -0.3577 -0.1927
23754W        W66745  22.020  13.578   1.446  0.1948  0.2234  0.0867
23755W        W66746  19.733  17.400  25.831 -0.0009  0.2342  0.0010
23756W        W66747  16.875  11.459  15.926  0.0386  0.1319  0.0080
23757W        W66748  17.172  26.850  19.713 -0.2205  0.2271 -0.3062
23758W        W66749  31.300  31.877   3.908  0.1768  0.2037  0.3095
23759W        W66750  11.860  13.336  24.995  0.0854  0.3258  0.1917
23760W        W66751  22.540  21.347   4.762 -0.0315  0.0008 -0.0446
23761W        W66752  22.686  24.433  13.258  0.4535 -0.2926 -0.0514
23762W        W66753  29.028  23.937   4.237 -0.1418 -0.2471 -0.2627
23763W        W66754  32.111   7.083  26.560 -0.0996  0.0954  0.0972
23764W        W66755  32.247  26.604  28.210  0.1305 -0.4019  0.0587
23765W        W66756   1.838  10.646  10.377  0.0961 -0.2862 -0.1975
23766W        W66757   7.343  20.144  29.243  0.0649  0.3901  0.1604
23767W        W66758  18.094  11.086  16.790 -0.0257 -0.0824 -0.2329
23768W        W66759  32.922  32.152  20.847 -0.4004 -0.0197 -0.1240
23769W        W66760   1.197   3.053  17.556  0.3344 -0.0813 -0.2054
23770W        W66761   9.662  13.897  25.981  0.1054 -0.2755 -0.1265
23771W        W66762  16.857  19.582   3.676  0.2935  0.1135  0.0552
23772W        W66763   1.778   9.173   2.063 -0.1833  0.0385  0.2101
23773W        W66764  14.449  12.048  18.880  0.2249  0.3394  0.0704
23774W        W66765  27.819  19.553  28.617 -0.1031 -0.3392 -0.1133
23775W        W66766  12.233  15.464  19.034  0.0695 -0.0827  0.0736
23776W        W66767  27.665  21.106  17.867  0.0821  0.0306 -0.0724
23777W        W66768  24.139   4.690  17.839  0.0718  0.1658  0.0754
23778W        W66769   4.181  27.929   6.244 -0.2048  0.2271 -0.3847
23779W        W66770  20.676  10.533  24.548 -0.2537  0.0306  0.0606
23780W        W66771  24.797  18.395  16.186 -0.2274  0.1988 -0.3095
23781W        W66772  24.390  21.395  24.340 -0.2062 -0.3263 -0.1408
23782W        W66773  23.161  17.323  27.062  0.3225 -0.2560  0.1632
23783W        W66774  28.292   4.778  14.990  0.1280  0.1072 -0.0209
23784W        W66775  30.584   0.212   3.087 -0.5005  0.0767  0.0511
23785W        W66776  22.945  20.909  17.645  0.1063 -0.0975  0.1097
23786W        W66777   8.113  23.222   9.140 -0.3122  0.0866  0.3776
23787W        W66778  32.391  24.552  26.930  0.2096  0.0965 -0.0103
23788W        W66779  28.375  22.581  18.184 -0.0638  0.1756 -0.1189
23789W        W66780  12.804  19.381  25.162  0.0474 -0.0279  0.0025
23790W        W66781   0.727  20.586  21.357  0.1868  0.1404  0.0631
23791W        W66782  20.770   0.226  24.567 -0.3691 -0.1956  0.2135
23792W        W66783  23.234  25.027  13.859  0.0243  0.1985  0.0966
23793W        W66784   3.254  24.465  15.367 -0.0088 -0.2025  0.0273
23794W        W66785   1.653  16.455  16.213 -0.0501 -0.2082  0.2257
23795W        W66786  22.604  16.659   1.733 -0.1912  0.1055  0.1703
23796W        W66787  32.731  31.109   3.630 -0.1802  0.0891 -0.3101
23797W        W66788  33.856  25.550  24.651 -0.1773  0.2118 -0.2358
23798W        W66789   6.842  15.213  26.452 -0.1249 -0.2836  0.2346
23799W        W66790  18.593   7.945  27.689 -0.0450 -0.2409 -0.2579
23800W        W66791   2.366   6.878  16.149 -0.0710  0.0780 -0.0054
23801W        W66792   0.386  12.147  17.486  0.1522  0.1803  0.0039
23802W        W66793  21.658  16.426  27.083  0.1149 -0.0545 -0.2430
23803W        W66794  32.229  17.243  26.917 -0.2996  0.1507 -0.0457
23804W        W66795  23.723  19.033   3.848 -0.1210  0.0538  0.1519
23805W        W66796  28.224  29.227   7.963  0.2178 -0.0389  0.3943
23806W        W66797   2.633   4.408   2.945 -0.2031  0.3333 -0.0939
23807W        W66798   5.214  15.778   9.900 -0.0444 -0.1244  0.3905
23808W        W66799  17.403  17.440  13.666 -0.3934 -0.0549 -0.2607
23809W        W66800  30.407  22.663  23.458 -0.1105 -0.0066 -0.0177
23810W        W66801  22.955  23.237  23.278 -0.0123  0.0457  0.3421
23811W        W66802  33.162  10.986   1.377 -0.3000  0.1105 -0.0853
23812W        W66803  30.252  17.803  21.182  0.1453  0.1165 -0.0615
23813W        W66804  32.927  13.057  27.448 -0.2405  0.0347  0.2911
23814W        W66805  15.552  18.597  14.394 -0.0331  0.2935  0.1568
23815W        W66806  34.661  14.724  18.568 -0.0521 -0.1108  0.0250
23816W        W66807  29.095  25.820   5.825 -0.1730  0.0606  0.0899
23817W        W66808  23.465  28.104   2.250 -0.0881 -0.0026 -0.4716
23818W        W66809  23.676  33.261  20.189 -0.3027 -0.1417  0.1543
23819W        W66810  24.317   7.560  25.281 -0.0939 -0.0364  0.0468
23820W        W66811  29.003  17.483  27.697  0.1531  0.3839  0.1059
23821W        W66812  27.617  21.566  21.424  0.1934 -0.2964  0.2892
23822W        W66813   0.361  32.245  18.161 -0.0084 -0.0276 -0.4167
23823W        W66814   2.447  20.776   5.635 -0.2246 -0.1184 -0.3104
23824W        W66815   6.791  22.393  24.369  0.2051 -0.2276  0.2044
23825W        W66816  25.605  22.732  21.801 -0.0626  0.4004  0.2376
23826W        W66817  23.213  10.948  16.139  0.2844  0.0055  0.0249
23827W        W66818  16.944  14.352  12.108 -0.1330 -0.1562 -0.1013
23828W        W66819  30.916  28.324  21.916 -0.1403  0.2699  0.0029
23829W        W66820  26.592  15.994   1.738 -0.2555  0.1789  0.1332
23830W        W66821  28.420  16.958  22.281 -0.1907 -0.1447  0.3137
23831W        W66822  13.962  27.772  27.050  0.3394  0.3454  0.0970
23832W        W66823  15.001   0.170   3.078 -0.0414  0.0765 -0.3726
23833W        W66824  27.252  19.263  28.754  0.1665 -0.0314 -0.0916
23834W        W66825   2.203  14.850  17.965 -0.2857  0.0776 -0.0610
23835W        W66826  19.261   9.376  13.416  0.0885 -0.0171 -0.0454
23836W        W66827   9.351  23.387  21.676 -0.2194 -0.0970 -0.2278
23837W        W66828  13.521   0.305  24.705 -0.3617 -0.0952 -0.0645
23838W        W66829   2.196   8.287   9.855  0.4160  0.0551 -0.1451
23839W        W66830  28.130  17.591  27.873  0.0079  0.1325 -0.0354
23840W        W66831  24.779   0.336  15.446 -0.1534 -0.2303 -0.1381
23841W        W66832  24.298  34.558   5.818  0.3128  0.0465  0.1921
23842W        W66833  27.592   2.902  22.004 -0.2169 -0.0194  0.0968
23843W        W66834  31.542  14.629  23.258 -0.0413 -0.0087  0.0427
23844W        W66835  25.939  21.260  24.502 -0.2758  0.1780 -0.1366
23845W        W66836  33.090  17.222  15.040  0.2835  0.4189 -0.4700
23846W        W66837  25.893  15.088  25.043  0.2383 -0.2570  0.1307
23847W        W66838  21.512  14.407  16.931  0.1813 -0.0140 -0.0338
23848W        W66839  23.427  24.736  24.235 -0.0970 -0.2128 -0.0941
23849W        W66840  22.698  31.269   5.533  0.2981 -0.2332  0.1803
23850W        W66841  16.324  21.689  28.615  0.1334 -0.2579 -0.0235
23851W        W66842  20.987  31.247  14.537 -0.2134  0.1347  0.0651
23852W        W66843  33.576  15.863  21.361  0.0020  0.1947  0.1968
23853W        W66844  22.450  33.316  17.836 -0.0610  0.2345 -0.1320
23854W        W66845  27.848  22.721  24.141  0.1924  0.0650 -0.0334
23855W        W66846  31.655   5.839  25.997 -0.0175  0.0705  0.3534
23856W        W66847  13.723  24.441  27.918 -0.3197 -0.0249  0.0985
23857W        W66848  32.625   9.603   1.622  0.1536  0.3583 -0.2834
23858W        W66849  30.302  15.042  17.293  0.1931 -0.2950 -0.1342
23859W        W66850  32.372  17.083  18.599 -0.1011  0.1182  0.1351
23860W        W66851   8.849   0.011   5.894  0.2189 -0.1353 -0.2864
23861W        W66852  33.378   8.468  16.790  0.0873 -0.1672  0.0137
23862W        W66853  30.349  20.866  10.150 -0.1546  0.1150 -0.0774
23863W        W66854  10.649  25.778  26.600 -0.0722  0.0189  0.2351
23864W        W66855  10.418  30.716  18.336 -0.1718  0.0991 -0.0272
23865W        W66856  22.239   9.635  16.462 -0.0143 -0.0844 -0.0062
23866W        W66857  27.362   0.976  19.797  0.1090 -0.0123  0.0568
23867W        W66858  19.102   9.307  20.470 -0.2802  0.0621  0.0593
23868W        W66859   1.347  29.912  24.067 -0.0493  0.0229 -0.0005
23869W        W66860   2.134  18.300   7.912 -0.1080  0.3223  0.1105
23870W        W66861  28.277   8.419   3.042 -0.0123 -0.2692  0.0328
23871W        W66862  28.772  27.832  21.742 -0.2430  0.2403  0.0980
23872W        W66863  20.767  26.727  26.363 -0.2014  0.1362 -0.0501
23873W        W66864  30.523  10.149  28.296 -0.0625 -0.0866 -0.1080
23874W        W66865  29.880  26.246  16.921 -0.0154  0.0798  0.0163
23875W        W66866  19.709  22.571  24.500 -0.1087 -0.0901 -0.0967
23876W        W66867  28.628  21.778   9.035  0.0591  0.0539  0.0491
23877W        W66868  11.625  18.963   5.214 -0.3123  0.2432 -0.0985
23878W        W66869  30.378  24.303   8.138 -0.1176  0.2003  0.1811
23879W        W66870  32.671  22.134   2.069  0.1843  0.2329 -0.0287
23880W        W66871  28.281  15.459   4.396  0.1912 -0.3529  0.4333
23881W        W66872  15.367  26.321  18.585 -0.4010 -0.1330 -0.0723
23882W        W66873  22.035  18.090  28.425  0.3554  0.1478 -0.1532
23883W        W66874  28.484   4.124  25.970 -0.0626  0.1988 -0.1592
23884W        W66875  22.522  15.442  28.238 -0.0021 -0.2832 -0.0038
23885W        W66876   5.582   5.089   7.703  0.2272  0.1036 -0.0039
23886W        W66877  23.504  14.647   5.886 -0.3452 -0.0070  0.2597
23887W        W66878  29.183  23.078   8.759  0.2109 -0.0751 -0.0763
23888W        W66879  34.051  26.643   8.161  0.2092  0.2097 -0.2509
23889W        W66880  23.539  24.204   4.686 -0.1667 -0.1782 -0.1883
23890W        W66881  11.587  31.114   6.281  0.0838  0.2960 -0.2210
23891W        W66882  12.487  23.288   4.268  0.1701 -0.3427 -0.2234
23892W        W66883  17.440  17.777  27.200 -0.3322 -0.0232  0.1578
23893W        W66884  17.771  20.249  26.503  0.1988 -0.5287  0.0970
23894W        W66885   9.335  23.486  25.379  0.4836 -0.2226  0.2045
23895W        W66886  21.540  22.287   1.733 -0.0425 -0.1253  0.1636
23896W        W66887  23.774  32.311   0.986 -0.1300 -0.1609  0.0645
23897W        W66888  30.560  22.825   5.507 -0.0048  0.4029 -0.0530
23898W        W66889   3.395  25.883   2.078 -0.3017  0.1685 -0.1562
23899W        W66890  32.545  31.583  26.081 -0.0507 -0.2058  0.2582
23900W        W66891  30.153  23.043  22.619  0.0804 -0.1099 -0.0421
23901W        W66892   7.227  18.273  17.936  0.2498 -0.1608 -0.3167
23902W        W66893  30.390  20.268  23.214 -0.1158 -0.0787 -0.2944
23903W        W66894   7.573  28.311  26.009  0.0027 -0.0465 -0.0025
23904W        W66895  27.404  25.943  22.190 -0.1083  0.3266  0.0275
23905W        W66896   9.522  32.336  18.870  0.1074 -0.0249 -0.0305
23906W        W66897  18.180  22.896  23.739  0.3052 -0.2335 -0.5881
23907W        W66898  29.387  33.714   4.092 -0.4216  0.0922 -0.0403
23908W        W66899   0.488  22.932  16.335  0.1199 -0.0853 -0.2747
23909W        W66900  18.303  19.073  28.251 -0.2296 -0.1161  0.1551
23910W        W66901  22.227   0.715  23.217  0.1197  0.0077 -0.0102
23911W        W66902   2.913  15.962  28.106  0.0911 -0.2058 -0.1160
23912W        W66903   9.015  18.043  24.781 -0.0053  0.0310 -0.0424
23913W        W66904  21.340   3.486  17.896 -0.2228  0.1491  0.0872
23914W        W66905  24.305  34.409  24.347  0.0723 -0.0372 -0.1422
23915W        W66906   1.578  33.558   2.401 -0.0079 -0.3543  0.0552
23916W        W66907  25.393  16.379   7.501 -0.0954  0.1255 -0.0152
23917W        W66908  30.554  19.746  25.775 -0.1824  0.0696 -0.0922
23918W        W66909  23.212   7.731  13.162  0.0296  0.0033 -0.1885
23919W        W66910   5.719  25.156   5.215  0.2570 -0.3578  0.0257
23920W        W66911  27.406  10.853  14.631 -0.0089 -0.0742  0.0505
23921W        W66912  21.467  27.307  13.713  0.1047  0.2752 -0.3968
23922W        W66913  32.078   7.667  20.833 -0.1679 -0.0647  0.1505
23923W        W66914  34.398  28.753   7.165 -0.1302  0.1643 -0.0241
23924W        W66915  20.901  12.593   7.602  0.1298 -0.1390  0.1437
23925W        W66916   6.880  12.878  26.384 -0.3284 -0.1783 -0.0327
23926W        W66917  21.872   8.275   5.234  0.1544  0.2006 -0.0135
23927W        W66918  18.932  16.050   4.039 -0.0021  0.0466  0.4109
23928W        W66919  22.637  14.748   1.897  0.3318 -0.0740  0.2573
23929W        W66920  25.529  24.275   0.551  0.0405 -0.0843 -0.1896
23930W        W66921  22.242   7.062  28.628  0.1295 -0.2242  0.3142
23931W        W66922   3.404  25.024   1.592  0.1362  0.0148 -0.3672
23932W        W66923  19.907  27.159   1.021 -0.2004 -0.1054  0.2311
23933W        W66924   9.231   2.958  17.728 -0.0008  0.0068 -0.0385
23934W        W66925  32.409   9.494   3.202  0.1452 -0.2253  0.2100
23935W        W66926  13.191  21.610  16.317 -0.2625 -0.0905  0.2102
23936W        W66927  21.785   3.763   2.672 -0.2431  0.4020 -0.2881
23937W        W66928  26.163  34.491   3.135 -0.0418  0.1265 -0.0952
23938W        W66929   6.651   8.246   1.808 -0.0578  0.0491  0.0191
23939W        W66930  25.294  17.438  28.611  0.1892 -0.1673 -0.3762
23940W        W66931  20.724  32.258   4.817 -0.0126 -0.2497 -0.1622
23941W        W66932   0.407  30.422  21.272  0.2390 -0.0572  0.1592
23942W        W66933  16.692  13.789  17.115 -0.0952 -0.3697 -0.0593
23943W        W66934  14.883  16.705  22.943 -0.0505  0.2248 -0.0395
23944W        W66935  28.528  18.114  28.990  0.2547 -0.0579  0.3159
23945W        W66936   7.453   2.334  25.449  0.1503  0.2523 -0.0130
23946W        W66937  26.476   9.693  16.759  0.0183  0.0947  0.2935
23947W        W66938  23.344  12.740  20.503  0.0926 -0.2424  0.0344
23948W        W66939  28.245  34.739  15.861  0.0022 -0.0527  0.0645
23949W        W66940  24.493  14.461  16.291  0.0614 -0.0617  0.0711
23950W        W66941  27.929  15.671  21.825 -0.3411  0.1167  0.3575
23951W        W66942  27.530  19.146  21.903 -0.0514  0.0018  0.3144
23952W        W66943   7.744  16.700   0.003 -0.0489 -0.1280  0.1162
23953W        W66944   2.375  15.927  24.837  0.4713 -0.1720 -0.0594
23954W        W66945   8.990  22.256  28.054  0.1090  0.0958 -0.1719
23955W        W66946  22.240  25.092  14.467  0.2122 -0.0513  0.1726
23956W        W66947  19.621   2.076  23.956  0.0301  0.0244  0.3746
23957W        W66948  24.662   6.881   4.017 -0.1071  0.1142 -0.0755
23958W        W66949  25.223   9.640  25.390 -0.0696 -0.1487  0.3427
23959W        W66950  28.035  19.692  15.831 -0.1933  0.1140  0.3244
23960W        W66951  20.891  22.981  14.037 -0.1814  0.0092 -0.0840
23961W        W66952  31.296  28.843  17.134  0.1553 -0.3189 -0.0708
23962W        W66953  25.729   5.166  28.618  0.0515  0.1420 -0.1311
23963W        W66954   1.279  26.748  16.966 -0.1193 -0.1035  0.1172
23964W        W66955   0.274   5.417  17.086 -0.1648  0.2524  0.2284
23965W        W66956  28.492  12.896   1.225 -0.0076  0.2329  0.0728
23966W        W66957  26.621  18.003   7.334 -0.0522 -0.5981 -0.6188
23967W        W66958  33.113  17.339   7.972 -0.1739 -0.1871  0.1644
23968W        W66959  15.861   9.885  17.288 -0.1532 -0.1087  0.1584
23969W        W66960  15.272   2.932   1.589 -0.3718  0.1294  0.2457
23970W        W66961  18.731  23.778  26.089 -0.0858 -0.1309 -0.1508
23971W        W66962   1.124   0.538   2.746 -0.1916  0.0722 -0.0391
23972W        W66963  34.022   4.400  22.268 -0.2238  0.0365 -0.4047
23973W        W66964  14.332  20.468  15.275 -0.3977 -0.1522  0.2099
23974W        W66965  21.684   6.908  25.022 -0.2192 -0.0587 -0.2042
23975W        W66966  28.129   1.086  21.275  0.0366 -0.2351 -0.1480
23976W        W66967   2.079   6.170   9.854 -0.0370 -0.1282 -0.1901
23977W        W66968  12.680  12.216   0.865  0.1511 -0.0309 -0.1268
23978W        W66969  24.262  27.373  27.160 -0.0693 -0.0150  0.3350
23979W        W66970  24.234  26.714   5.773 -0.0513  0.1000  0.4122
23980W        W66971   5.674   4.500  28.577 -0.0769 -0.2553  0.2490
23981W        W66972  28.435  31.140  28.276 -0.1094 -0.1266  0.2478
23982W        W66973   3.101  23.399   1.152 -0.1971  0.0578  0.1713
23983W        W66974  31.236  23.258  20.252  0.0871 -0.0487 -0.1284
23984W        W66975  34.338  27.692   5.301 -0.0554  0.1121 -0.1065
23985W        W66976  12.061  30.760  24.993  0.0053  0.3832  0.2331
23986W        W66977  30.026  21.758   7.668 -0.1531  0.0131 -0.2058
23987W        W66978  15.319   4.040  22.540  0.0876 -0.1746 -0.2959
23988W        W66979  15.921  21.011   3.545 -0.0118  0.2711 -0.0179
23989W        W66980  28.213  26.570  19.753 -0.2083 -0.1272 -0.0412
23990W        W66981   6.576  22.281   7.062  0.1722 -0.1050 -0.1214
23991W        W66982   2.099  17.271   4.521  0.1299 -0.2345 -0.0542
23992W        W66983   8.705  19.411   5.010  0.1951 -0.1088  0.0922
23993W        W66984  17.497  29.301  13.645 -0.0230  0.3769  0.0174
23994W        W66985  26.959  10.939  26.411  0.0313  0.0480  0.0445
23995W        W66986  21.548   5.571  20.680 -0.1202 -0.3656  0.1229
23996W        W66987  18.490  13.501  25.420 -0.0537 -0.0148 -0.0135
23997W        W66988  33.986  21.080   4.422  0.2997 -0.2765  0.0075
23998W        W66989  28.293  20.676  25.380 -0.0786 -0.0732 -0.2279
23999W        W66990  29.624  17.428   9.572  0.2703  0.0786 -0.0148
24000W        W66991  26.988   7.328  26.518 -0.0537  0.0027 -0.1488
24001W        W66992  30.117  34.399  22.440  0.4609 -0.0252 -0.1910
24002W        W66993  21.882  22.913  15.676  0.1380  0.0179 -0.0780
24003W        W66994  27.779  29.278  18.334  0.2504  0.2039 -0.1966
24004W        W66995  25.448   9.795   7.905  0.2433 -0.0409  0.1136
24005W        W66996  28.354  19.781   4.717 -0.1523  0.1067 -0.0395
24006W        W66997  22.794  13.440  21.998 -0.3030 -0.0983 -0.1259
24007W        W66998  18.360  20.831  15.667  0.0573 -0.2584 -0.3937
24008W        W66999  30.538  11.833  24.303 -0.2373  0.0919  0.4447
24009W        W67000  14.402  22.321  21.688 -0.0486 -0.1046 -0.2249
24010W        W67001  33.576  19.776  13.865 -0.1363 -0.3637 -0.2306
24011W        W67002  20.948  19.112   0.318 -0.3019 -0.0916  0.2034
24012W        W67003  29.035  12.891  24.106 -0.3186  0.2067 -0.2054
24013W        W67004  15.426  18.523  26.816 -0.1104  0.1975  0.0369
24014W        W67005  19.017  26.006  15.225  0.1022 -0.2834 -0.1730
24015W        W67006  10.253  18.474  21.606  0.1274 -0.3181  0.0561
24016W        W67007   0.912  21.274   1.397  0.3514 -0.2173 -0.0719
24017W        W67008  33.348  26.055  28.658  0.0458  0.2713  0.1006
24018W        W67009  11.280   2.166   3.297  0.0038 -0.0635  0.0754
24019W        W67010  33.015   3.486   6.711  0.1586 -0.1337 -0.0999
24020W        W67011   0.089  30.476   4.271 -0.0108 -0.0182  0.2232
24021W        W67012   0.061  13.557  17.428  0.0358  0.1660  0.2240
24022W        W67013  28.197   4.792   7.026  0.0317 -0.0694  0.1513
24023W        W67014  32.923  11.305  22.855 -0.0379 -0.2939 -0.0481
24024W        W67015  19.181  17.154   5.665 -0.1368  0.1629  0.2081
24025W        W67016   3.157  10.247   6.084  0.1897 -0.1818 -0.2587
24026W        W67017  29.628  16.525  23.592  0.0274 -0.2135 -0.1526
24027W        W67018  20.995  20.920   5.904 -0.0421 -0.0479 -0.0434
24028W        W67019  32.362  33.517  16.464  0.1866 -0.2301  0.2204
24029W        W67020  11.911  13.410   4.134  0.2420 -0.0584  0.1206
24030W        W67021  33.084  23.295  10.572 -0.1384  0.3230 -0.1636
24031W        W67022   0.479   7.362   0.196 -0.3250  0.2500 -0.1132
24032W        W67023  29.761   6.214   1.879 -0.3086  0.0375  0.0346
24033W        W67024  13.058   8.021  17.066  0.1226 -0.0937 -0.1454
24034W        W67025  30.873  30.796  25.601  0.0836 -0.2433 -0.5116
24035W        W67026   2.014   5.966  16.996  0.0333  0.2509 -0.1103
24036W        W67027  29.528   9.053  18.654  0.3960 -0.0079 -0.4278
24037W        W67028  31.951  16.302  23.508  0.0721 -0.1129  0.0088
24038W        W67029  29.165  12.764   2.604  0.0610 -0.0441 -0.2025
24039W        W67030   1.131   3.863   2.954 -0.0740  0.1235  0.2485
24040W        W67031  27.675  11.067  24.394 -0.2751 -0.0350  0.1794
24041W        W67032  22.182  11.956  22.782  0.1261  0.0724 -0.0750
24042W        W67033  20.407  18.390   6.645  0.1373 -0.0549  0.1269
24043W        W67034   7.695   4.249  20.840 -0.0539  0.0157 -0.1539
24044W        W67035  34.493  25.254  15.500 -0.0549 -0.0829 -0.2914
24045W        W67036  29.278  23.348  19.966 -0.3682 -0.1752 -0.2312
24046W        W67037   8.311  12.184   1.946  0.2464 -0.1539 -0.0471
24047W        W67038  23.333  11.176  23.272  0.0872  0.1000  0.1221
24048W        W67039  32.361  14.934   9.692 -0.2423  0.2323 -0.0623
24049W        W67040   3.717   3.598  26.880  0.0421  0.2582  0.3490
24050W        W67041   5.290  15.115  27.965 -0.0040  0.0477  0.2112
24051W        W67042  14.519  16.439  22.224 -0.2148  0.0318 -0.3578
24052W        W67043   0.899  26.339  28.733 -0.0549 -0.0414  0.0426
24053W        W67044  14.835   6.667   3.701  0.3379 -0.2809 -0.3835
24054W        W67045   3.310  19.140   0.467  0.1274 -0.0158  0.3860
24055W        W67046   5.167  20.444  28.300 -0.1524  0.0124  0.0530
24056W        W67047  28.576   7.663   4.310  0.1572  0.1610  0.1496
24057W        W67048  27.063  28.962  20.203 -0.0009  0.1452 -0.0450
24058W        W67049  32.661  25.323  28.083  0.0087  0.2978 -0.2477
24059W        W67050  30.212  24.488  25.128  0.1785  0.3813 -0.1763
24060W        W67051  19.439  31.495  14.426  0.0652  0.0613 -0.0354
24061W        W67052   9.138  28.162  23.573 -0.1988 -0.0435 -0.2427
24062W        W67053   6.841   5.906  19.679 -0.2443 -0.1225  0.2083
24063W        W67054  33.335  19.602  18.925 -0.0574 -0.1347  0.0657
24064W        W67055  34.120   2.751   9.336  0.0017 -0.1162  0.3127
24065W        W67056  26.253  31.149  24.087  0.0232 -0.1397 -0.0568
24066W        W67057  27.575  10.802  19.612  0.0393  0.4240  0.1662
24067W        W67058  27.846   3.600  28.828 -0.1651 -0.0902 -0.2726
24068W        W67059  26.295  29.502  23.433  0.6783  0.2451  0.2385
24069W        W67060  15.318   7.062  15.590  0.1148  0.0725  0.0817
24070W        W67061  18.737  26.903  25.565 -0.2004  0.0978 -0.0135
24071W        W67062  34.294  10.084   6.989 -0.1004  0.2473 -0.1617
24072W        W67063  30.510  22.594   7.974  0.0590  0.1882 -0.2000
24073W        W67064  25.933  33.848   1.037  0.1424 -0.3556 -0.1524
24074W        W67065  32.491  13.495  11.255 -0.1570 -0.2643 -0.1352
24075W        W67066  15.622  27.346  28.448 -0.1548  0.1173 -0.0755
24076W        W67067  28.373  17.287  15.780  0.0863 -0.3376  0.1016
24077W        W67068   0.880  33.119   2.926 -0.0669 -0.0257 -0.0929
24078W        W67069  10.281  33.843   9.264  0.1744 -0.0135  0.0299
24079W        W67070  11.588  32.021  17.616  0.0200  0.3237  0.4593
24080W        W67071  29.592  26.548   0.711  0.1504  0.2362  0.1325
24081W        W67072  23.937  24.750   8.453  0.1356 -0.1140 -0.1770
24082W        W67073   1.152  10.019  23.940  0.2814 -0.1825  0.2710
24083W        W67074  16.424   7.075   4.394 -0.2726  0.0117 -0.1598
24084W        W67075  29.618  34.168  27.422 -0.1222  0.1830  0.0170
24085W        W67076   0.841   2.811  18.756  0.2119 -0.2680 -0.1160
24086W        W67077  17.827  32.445  28.762  0.1210 -0.1930 -0.0999
24087W        W67078   0.607   3.078  15.179  0.0695 -0.3501 -0.1431
24088W        W67079  32.986  26.321  28.309 -0.2607  0.4158 -0.2519
24089W        W67080  31.139  26.128  19.276  0.3083  0.4186  0.0747
24090W        W67081  21.987  22.390  21.210 -0.0866  0.2243  0.1853
24091W        W67082  17.894  19.964  25.207 -0.0743  0.0868  0.0895
24092W        W67083  28.826  12.126   6.384 -0.0833 -0.0288 -0.2576
24093W        W67084   7.082  32.728  22.944  0.0419  0.1320 -0.0929
24094W        W67085  29.777  29.602   4.932  0.0003  0.0014 -0.0789
24095W        W67086  31.379  32.956  23.827  0.0900  0.1431 -0.1705
24096W        W67087   8.111   5.126  15.474  0.2444 -0.1566 -0.0612
24097W        W67088  23.780  25.451  19.191  0.0344 -0.3174 -0.0837
24098W        W67089  14.103  10.059   2.583  0.2037 -0.0117  0.0631
24099W        W67090  10.209  34.757   0.852  0.3607 -0.0188 -0.0140
24100W        W67091  18.756  11.784   1.645 -0.3591 -0.0521 -0.0929
24101W        W67092  33.461  20.303  27.110 -0.1541  0.2254 -0.1775
24102W        W67093   6.992  21.573  15.754 -0.0657 -0.1441 -0.0409
24103W        W67094  24.605  17.103  26.984  0.1191  0.1792  0.0039
24104W        W67095  29.369  13.451  28.331  0.3811 -0.0121  0.1077
24105W        W67096   5.155  22.969   9.106  0.0173 -0.0488  0.4765
24106W        W67097  28.381  20.804   3.041  0.0566  0.0442 -0.0546
24107W        W67098   6.150  26.243  18.295 -0.2626  0.1270 -0.1198
24108W        W67099  24.725  28.450  22.048  0.0510 -0.0814  0.2251
24109W        W67100   1.024  26.504   6.270  0.2334  0.0984 -0.2624
24110W        W67101  18.925  16.485  25.107  0.0540 -0.0691  0.1954
24111W        W67102   2.189   9.542  24.160  0.0723 -0.2250  0.0259
24112W        W67103  15.493  14.768   8.282  0.1071  0.4149 -0.3676
24113W        W67104  32.772  31.591   3.905  0.0155 -0.1120  0.2457
24114W        W67105  20.497  19.987   4.233 -0.0755  0.0247 -0.0241
24115W        W67106  12.080  29.827  26.254 -0.0990 -0.0291  0.0554
24116W        W67107  20.311  25.302  28.720  0.1616  0.0647 -0.1384
24117W        W67108  30.435  30.639  28.779 -0.0449 -0.0346  0.4278
24118W        W67109   5.411  22.888   1.336 -0.2074  0.1559  0.1025
24119W        W67110  32.971  26.847   9.712  0.0896 -0.0990  0.0519
24120W        W67111   5.602   5.082  24.749 -0.0942 -0.0582 -0.0087
24121W        W67112  32.200  12.981   1.169  0.2958  0.0346  0.0062
24122W        W67113  15.138  16.081  13.299  0.1431 -0.1401  0.0784
24123W        W67114  22.714  26.422   8.641 -0.1561 -0.1986  0.0530
24124W        W67115  21.485  14.588   6.894 -0.0328  0.2379 -0.0179
24125W        W67116  31.884   6.244   4.718  0.1055  0.2734 -0.0985
24126W        W67117  27.997  10.306  16.933 -0.1267 -0.3598  0.0267
24127W        W67118  29.796  20.466  23.452 -0.1150  0.1347 -0.0014
24128W        W67119   9.258   7.049  22.418  0.1243 -0.0868 -0.1870
24129W        W67120  32.102   0.340  14.807 -0.0977 -0.0885  0.1153
24130W        W67121  28.200  14.231  16.847 -0.3397 -0.0036 -0.0537
24131W        W67122  27.195  25.024  22.272 -0.1139 -0.2703 -0.4572
24132W        W67123  27.805  16.269  20.469 -0.0990  0.2026  0.1815
24133W        W67124  29.626   9.444  16.816 -0.2733 -0.0472  0.1888
24134W        W67125  14.262  25.049  18.643  0.0842 -0.0266 -0.0659
24135W        W67126  29.537  16.588  28.358  0.0381 -0.1803  0.0438
24136W        W67127   2.256  15.205  22.313  0.2277 -0.3405  0.1351
24137W        W67128  13.569  13.799  16.945 -0.0536 -0.1306  0.1336
24138W        W67129  24.498  15.974  22.148  0.1860 -0.3764  0.0924
24139W        W67130  29.207  14.741  10.652 -0.2626  0.2539 -0.2945
24140W        W67131  19.447   8.481  22.131 -0.1511  0.2878 -0.0180
24141W        W67132  20.868  14.939  14.008  0.2061  0.1743 -0.0085
24142W        W67133  31.631  18.892   5.279  0.2356 -0.1621  0.1336
24143W        W67134  15.521  15.450   3.384 -0.1308 -0.0021  0.3449
24144W        W67135  17.736  25.015  13.760  0.2787 -0.1931  0.2665
24145W        W67136   2.171   1.202  24.427 -0.1678 -0.1794 -0.2915
24146W        W67137  27.684  18.609  23.702  0.2408  0.1033  0.0835
24147W        W67138  29.818  13.862  19.980  0.3858  0.0363  0.4269
24148W        W67139  30.929  16.990  17.513  0.1222 -0.0996 -0.1022
24149W        W67140  33.576   2.448  28.898  0.0957  0.2801 -0.3259
24150W        W67141  20.763  26.444  20.765 -0.1211 -0.1227  0.2271
24151W        W67142  24.801  21.770   6.574 -0.0014  0.1293  0.0021
24152W        W67143  26.943  17.503   2.648 -0.0404 -0.0912 -0.1356
24153W        W67144  33.786   5.571  16.472 -0.0392  0.1974  0.2129
24154W        W67145  22.165   7.970  20.618  0.1846  0.0966  0.3451
24155W        W67146  29.466  29.109   3.682 -0.1638  0.2601 -0.1937
24156W        W67147  15.046  22.773   4.733 -0.1360  0.0100 -0.2154
24157W        W67148  19.348  15.106  26.577 -0.1448 -0.0341  0.1041
24158W        W67149  31.404  21.115  22.744  0.0827  0.1348 -0.0566
24159W        W67150   2.185   0.512  25.760 -0.0233  0.2576 -0.0651
24160W        W67151  22.171  23.603   2.038  0.1596  0.0606 -0.1726
24161W        W67152  11.495  30.130   7.982 -0.0824 -0.1893  0.0409
24162W        W67153  22.377   5.884  19.786 -0.1452 -0.1686  0.0206
24163W        W67154  29.174   8.603  26.491  0.2673 -0.3727  0.1883
24164W        W67155   0.011  31.084   7.377 -0.1020 -0.1173  0.0767
24165W        W67156   3.464  23.338   6.777  0.0494  0.2592 -0.0073
24166W        W67157  10.195   6.129  15.081 -0.1318  0.2189  0.0147
24167W        W67158  16.113   9.669  19.300  0.0252  0.2710  0.0789
24168W        W67159  26.074  15.035  26.996  0.1184 -0.1112  0.1979
24169W        W67160  13.708  14.548   6.035  0.3713 -0.2854  0.1397
24170W        W67161  20.472  28.982  23.295 -0.1510  0.3064  0.0216
24171W        W67162   0.054  28.972  28.911 -0.1856  0.2673 -0.0410
24172W        W67163  24.031  27.465   4.856  0.2833 -0.0050  0.1264
24173W        W67164  32.805  18.403  20.131 -0.4874 -0.1507  0.0638
24174W        W67165  11.422  31.844  21.636 -0.3007  0.1395 -0.1593
24175W        W67166  27.257  30.561   3.920 -0.1706 -0.2072 -0.3474
24176W        W67167  17.093  15.509   5.885  0.1648  0.0859  0.3793
24177W        W67168  16.408  34.155  26.674  0.2019  0.1039 -0.1273
24178W        W67169  28.630  28.961  23.034  0.2670  0.3201 -0.1293
24179W        W67170  30.081  19.358  24.057 -0.0928  0.1650 -0.0017
24180W        W67171  20.996  23.693   5.925 -0.3137 -0.2607 -0.3441
24181W        W67172  30.877  17.209  26.535 -0.2343 -0.2490  0.0413
24182W        W67173  25.397  17.196  19.332  0.1036 -0.3179  0.0522
24183W        W67174  25.521  22.317   1.938  0.0268 -0.0113  0.1768
24184W        W67175  28.179   3.753   9.657 -0.0634  0.0843  0.0153
24185W        W67176  25.489  15.247   6.669  0.0063  0.1095 -0.2269
24186W        W67177  21.616  21.938  27.169  0.1781 -0.2654 -0.1155
24187W        W67178  27.887  19.994   1.577  0.1247  0.0252  0.1909
24188W        W67179  13.855  10.682   6.974  0.0424  0.0934  0.3411
24189W        W67180  12.990  15.458  28.855 -0.0588 -0.0487 -0.1875
24190W        W67181  25.153  21.269   0.004 -0.0486 -0.1158 -0.2089
24191W        W67182   0.284  20.473   2.768 -0.1287  0.1654  0.1597
24192W        W67183  24.974  27.849   5.960  0.0228  0.0209  0.3416
24193W        W67184   5.573   3.850  17.733 -0.1210  0.0171 -0.0095
24194W        W67185  11.919  10.139   6.134 -0.3068 -0.0327 -0.0215
24195W        W67186  28.499  21.099   1.997  0.0224 -0.1662 -0.0062
24196W        W67187  32.333  12.821   8.687 -0.0483 -0.0924 -0.0030
24197W        W67188  27.844  22.906  17.783  0.0733 -0.1420  0.0155
24198W        W67189  17.685  11.072  18.118 -0.0405  0.2447  0.1746
24199W        W67190  28.700  23.988   3.530  0.1935  0.1012 -0.2803
24200W        W67191  14.526   1.732  15.005  0.2036 -0.0380  0.0009
24201W        W67192  19.513   1.519  29.130  0.0362  0.4340  0.0005
24202W        W67193   3.204  13.916   8.448  0.2142 -0.2745  0.0990
24203W        W67194  20.082  19.507  27.359 -0.0820 -0.0394 -0.0727
24204W        W67195  34.496  34.798  27.300  0.2550  0.3595 -0.1617
24205W        W67196  22.946  16.875   6.741 -0.0126 -0.1813  0.2197
24206W        W67197  24.785  15.199   4.454  0.0727 -0.2039 -0.1577
24207W        W67198  32.265  21.041  24.607 -0.0073  0.1007  0.1231
24208W        W67199  23.838  23.744  17.232  0.2162 -0.0440  0.0228
24209W        W67200  30.375  11.064   5.359  0.3052  0.2555 -0.2092
24210W        W67201   5.262  14.142  21.414  0.0225 -0.0834  0.0035
24211W        W67202  32.657  19.794  18.044 -0.0200 -0.3874 -0.1063
24212W        W67203   6.126  12.637  22.206  0.1194 -0.0253  0.0272
24213W        W67204   0.769  21.550   6.358  0.0753 -0.2104  0.2502
24214W        W67205  24.803  21.861  22.575 -0.0795  0.0389  0.1305
24215W        W67206   5.493  14.539   8.024 -0.2006 -0.0729  0.0385
24216W        W67207  31.736  17.935  27.775  0.0868 -0.0364 -0.0877
24217W        W67208  29.744  33.263  28.530  0.1458 -0.3043 -0.1382
24218W        W67209   8.355  23.151  16.911  0.1486 -0.0339  0.2562
24219W        W67210   1.354  19.690  15.761 -0.0195 -0.3372  0.1207
24220W        W67211  27.212  15.402   2.571  0.1644 -0.0417  0.2133
24221W        W67212  34.449  14.980  10.240  0.1600  0.0880 -0.2154
24222W        W67213  30.471  10.334  28.806 -0.2367 -0.0546  0.2789
24223W        W67214  32.561  23.599  23.686  0.4275 -0.0009 -0.4184
24224W        W67215  31.822  25.937  28.711  0.2479  0.0545  0.3096
24225W        W67216  33.791  33.844   3.319  0.0629  0.0774  0.2781
24226W        W67217  22.241   0.945  18.993  0.3420  0.1723  0.1137
24227W        W67218  24.441  23.145  14.198  0.4392 -0.2166  0.0388
24228W        W67219  22.406   8.756  15.703 -0.0193 -0.0480 -0.4516
24229W        W67220  30.365  13.511  27.124  0.0466 -0.3498  0.2465
24230W        W67221  30.961  21.210   4.554  0.2854 -0.0855 -0.1319
24231W        W67222  24.547  15.647   5.883 -0.2375 -0.0883 -0.1123
24232W        W67223  28.785  16.245  23.826 -0.1007 -0.2063  0.0178
24233W        W67224  25.133  24.099   2.338 -0.1144  0.0221 -0.2333
24234W        W67225   6.237  22.456   5.075 -0.0270 -0.0300 -0.0480
24235W        W67226  14.449  18.561   1.073 -0.0605  0.1497  0.0655
24236W        W67227  22.611  23.579  22.857  0.0320  0.1408 -0.1758
24237W        W67228  31.128   3.211   8.909 -0.1558  0.1214  0.1312
24238W        W67229   9.769  20.661  10.114  0.0194 -0.0737 -0.0480
24239W        W67230  12.017  16.065  13.692 -0.1883 -0.0807 -0.1560
24240W        W67231  17.139  16.135   1.067  0.0577  0.2486 -0.1314
24241W        W67232  22.507  16.809  18.213 -0.0715 -0.0721  0.2281
24242W        W67233  31.600  33.530  27.872  0.1338 -0.0868  0.0455
24243W        W67234  29.090  23.778   7.675  0.2327 -0.3653 -0.0425
24244W        W67235  19.971  24.562  17.771 -0.1891  0.1043 -0.0185
24245W        W67236  21.974   1.429  19.276  0.1647 -0.1456  0.1338
24246W        W67237  27.098  13.217  17.101  0.0939  0.2232 -0.2490
24247W        W67238  26.634  33.401   3.801  0.0663  0.2194  0.0068
24248W        W67239  31.275  27.425   1.490  0.1861 -0.0243  0.0566
24249W        W67240  11.817  16.199  14.138  0.5072 -0.1449  0.1763
24250W        W67241  10.871  18.245  14.817  0.1404  0.1448  0.3327
24251W        W67242  28.648  16.578   5.414 -0.1485  0.0017 -0.1918
24252W        W67243  19.804  23.055  21.377 -0.0206  0.0200  0.0099
24253W        W67244  28.787  23.163  24.174  0.0801 -0.0287  0.2416
24254W        W67245   6.346  25.643  19.195  0.4318 -0.0185  0.2032
24255W        W67246  19.067  22.322  22.741 -0.3000  0.1345 -0.2154
24256W        W67247  20.822  23.233   5.568 -0.2049 -0.1650 -0.2042
24257W        W67248  22.803  20.753  16.283  0.0691  0.0734 -0.0008
24258W        W67249  21.868  16.357  25.661  0.3321 -0.2960 -0.1041
24259W        W67250  25.057  17.885  15.410  0.0272  0.1626 -0.1068
24260W        W67251  27.284  22.971   5.128  0.1657  0.1378 -0.0202
24261W        W67252  14.192  10.267  25.251  0.2035 -0.1650  0.1253
24262W        W67253  19.467  25.780  26.806 -0.0179  0.1933 -0.0328
24263W        W67254  28.844  17.951  14.287 -0.2155  0.0284 -0.0150
24264W        W67255  34.369  18.675  22.986 -0.1270  0.2439  0.0758
24265W        W67256   5.458  21.922   1.250 -0.0229 -0.1185  0.0805
24266W        W67257  21.497  22.686   9.850  0.0804  0.2165 -0.3942
24267W        W67258  14.893  22.267   7.426 -0.6242  0.4469 -0.0287
24268W        W67259  26.778  18.737   7.590 -0.0312  0.2160 -0.2589
24269W        W67260  19.465   0.171   0.584  0.0049 -0.1229 -0.2213
24270W        W67261   0.521  33.217   7.388 -0.0833  0.1160  0.1519
24271W        W67262  24.566  15.375   7.504 -0.0146  0.1964 -0.0633
24272W        W67263  25.591  10.858   6.960 -0.2967  0.0561  0.1210
24273W        W67264   2.942  14.058  22.388 -0.1073  0.2746 -0.0760
24274W        W67265  31.880  20.118   6.710  0.1467  0.0539  0.0352
24275W        W67266  29.845  16.264  24.889  0.0131  0.2107 -0.1647
24276W        W67267  22.483   1.838  28.064  0.4333 -0.1847  0.2488
24277W        W67268   3.053  17.935  10.324  0.3017  0.1193  0.2552
24278W        W67269  28.710  18.472  14.469 -0.3199 -0.0266 -0.0071
24279W        W67270  19.689  14.306  22.232 -0.2050 -0.0807  0.0201
24280W        W67271  26.945  33.734   7.366 -0.0780 -0.1005 -0.0459
24281W        W67272  28.742  27.310   3.500 -0.1831 -0.1026  0.1161
24282W        W67273  29.776  26.353  20.115  0.1201  0.4026  0.0926
24283W        W67274  28.484  19.234   2.813  0.0401  0.0683 -0.2523
24284W        W67275  31.591  25.847  25.666 -0.0872 -0.1390  0.1921
24285W        W67276  24.302   2.793   8.953  0.3477  0.2257 -0.1889
24286W        W67277  28.802  12.270  26.872  0.1847  0.1381  0.0337
24287W        W67278   5.682  10.547  19.320 -0.2280 -0.3537 -0.1759
24288W        W67279  21.264  12.908  24.214 -0.0301 -0.2414  0.1141
24289W        W67280  16.142  14.995   2.147  0.2457 -0.0835  0.1237
24290W        W67281  24.986  29.565   1.652 -0.0760  0.1801 -0.0801
24291W        W67282  22.827   8.325  23.645 -0.1641  0.0701 -0.0141
24292W        W67283  33.674  22.408  23.878 -0.0596 -0.1629 -0.0179
24293W        W67284  14.404  20.582   8.981 -0.0407 -0.5081 -0.1728
24294W        W67285   9.324  21.053   6.942 -0.0402 -0.2109  0.2159
24295W        W67286  25.449  25.474   4.199  0.2449 -0.1120 -0.1923
24296W        W67287  27.434  30.096   8.353  0.2065 -0.0234  0.0920
24297W        W67288   4.412  25.584   6.112  0.3129 -0.2719 -0.4365
24298W        W67289  25.496   3.163  26.190  0.3443  0.2570  0.2315
24299W        W67290   9.323   6.711  17.939  0.0665 -0.1113  0.4065
24300W        W67291  26.192  11.468  26.398  0.1288 -0.0065 -0.3707
24301W        W67292   3.420  28.484   8.730 -0.0964  0.2910  0.2308
24302W        W67293  12.563  10.857   2.106 -0.0002  0.1597  0.1593
24303W        W67294  33.918  13.051   1.519  0.1434  0.1211 -0.0107
24304W        W67295  27.398  25.367  20.535  0.0576 -0.0610  0.2499
24305W        W67296  24.382  20.227  27.865 -0.0995 -0.0587  0.2196
24306W        W67297  22.736  11.677  19.491  0.0217  0.2866 -0.0385
24307W        W67298  26.499  19.519  28.650 -0.0058  0.1679 -0.1610
24308W        W67299   3.517  21.719   6.355  0.1365  0.0548  0.2219
24309W        W67300  26.131   7.643  25.429 -0.0736 -0.2293  0.1203
24310W        W67301  30.920  31.496  14.336 -0.2905 -0.3410  0.0696
24311W        W67302  19.585  21.900   0.557  0.1048  0.2269 -0.1378
24312W        W67303  25.176  17.889  27.232  0.1232 -0.2472 -0.0938
24313W        W67304   1.960  15.487   1.234  0.0722  0.0568 -0.2050
24314W        W67305   5.581   9.753   0.769  0.0877  0.0709  0.0337
24315W        W67306  18.010   9.248  21.398  0.2105 -0.1554 -0.2729
24316W        W67307  32.723  10.962   7.876  0.0893  0.2279 -0.0663
24317W        W67308   2.696  20.518  14.553 -0.0764  0.3012 -0.1021
24318W        W67309  34.761   1.657   6.259 -0.1921  0.0405 -0.4510
24319W        W67310  23.897   1.958  23.152  0.0328 -0.1815  0.3028
24320W        W67311  34.800  26.389  22.378 -0.5037 -0.0814 -0.2396
24321W        W67312   0.630  25.825  17.039  0.2065  0.1460 -0.0138
24322W        W67313  22.938  26.692  16.456  0.0913  0.0502 -0.1982
24323W        W67314  31.277  28.914   7.142 -0.0503  0.0286 -0.0306
24324W        W67315  33.035   6.631  16.014  0.1560 -0.2132  0.2862
24325W        W67316  10.100  19.749  25.580 -0.0651 -0.1890 -0.1642
24326W        W67317  24.653  23.520  19.502 -0.0074 -0.1608 -0.3121
24327W        W67318  21.234  21.513  14.409 -0.2735  0.1209 -0.3579
24328W        W67319   1.194  28.297   5.652  0.2122 -0.0106  0.3499
24329W        W67320  29.313  14.317  23.631 -0.0251 -0.3287  0.3035
24330W        W67321   8.093   0.488  17.141 -0.1935 -0.1895  0.1159
24331W        W67322  24.581   2.696  20.646  0.0430  0.1134 -0.1327
24332W        W67323  26.680  21.576  14.201  0.0391 -0.0976  0.2487
24333W        W67324  31.954  29.923  21.506 -0.1578 -0.1807 -0.0808
24334W        W67325   4.976   2.472  25.852 -0.2188  0.0597 -0.0063
24335W        W67326   9.021  20.960  25.377  0.1815  0.1852  0.2447
24336W        W67327  24.457  24.186  27.190  0.0945 -0.1109 -0.0724
24337W        W67328  30.612  19.344   3.092 -0.0709 -0.2027 -0.1492
24338W        W67329  22.737  31.894  20.538 -0.0376 -0.0298 -0.0434
24339W        W67330  34.426  26.433  21.101 -0.1069  0.1650 -0.1580
24340W        W67331  26.529  18.422  19.087  0.3251 -0.1620 -0.0082
24341W        W67332  13.505  30.312  15.131  0.0168  0.2878 -0.1131
24342W        W67333  27.947  23.392  13.107  0.0031  0.3289  0.1626
24343W        W67334  21.959  33.567  17.321  0.1621 -0.0269  0.1872
24344W        W67335  22.351   1.117  14.667  0.0564 -0.0333 -0.0337
24345W        W67336  24.102  25.135   2.025 -0.1095 -0.1778  0.2729
24346W        W67337  25.116   1.954  13.029  0.1901  0.0073  0.1053
24347W        W67338  16.450  30.858  16.600  0.3900 -0.0699  0.2100
24348W        W67339  25.140  10.124  28.299 -0.2720  0.1908 -0.1371
24349W        W67340  16.839  21.890  15.188  0.1488 -0.2030  0.4520
24350W        W67341  17.259   7.580  19.579 -0.1740 -0.1609 -0.1527
24351W        W67342  21.197   2.285  16.501  0.0463 -0.2261 -0.1118
24352W        W67343  13.632  32.821  22.050 -0.3466 -0.0073 -0.0277
24353W        W67344   3.262  18.676  23.603  0.1197  0.0764  0.3499
24354W        W67345   0.948  17.013  28.894 -0.0923 -0.1419 -0.1704
24355W        W67346   0.192  33.443  15.043 -0.2304  0.1236  0.0454
24356W        W67347  16.712  26.313  20.548  0.0139  0.0763 -0.1839
24357W        W67348  19.879  34.278  18.531 -0.4706  0.2569 -0.1515
24358W        W67349   2.741  13.143  28.214  0.0606 -0.0103 -0.0586
24359W        W67350  34.283  27.420  24.564  0.1666 -0.3797  0.0044
24360W        W67351  28.212  12.081  21.912 -0.2962 -0.1231 -0.1581
24361W        W67352  34.152  23.769  20.862 -0.1786  0.1512 -0.0398
24362W        W67353  24.605  25.694  25.225 -0.1144  0.1796  0.2032
24363W        W67354  30.391   3.690   0.156 -0.0917 -0.0520  0.1408
24364W        W67355  14.995  26.955  14.582  0.0890 -0.1484 -0.1805
24365W        W67356   1.378  28.872  17.700  0.2634  0.0681  0.0485
24366W        W67357  21.638   0.194  20.774  0.2987 -0.0118  0.0072
24367W        W67358  19.336   4.885   3.320  0.0543  0.3487  0.1630
24368W        W67359  31.276  16.863  18.507  0.0632 -0.1975 -0.0138
24369W        W67360  10.014  22.441  20.864 -0.1620 -0.4878 -0.3677
24370W        W67361   5.334  15.404  18.267 -0.2731  0.2811 -0.3154
24371W        W67362  18.203  22.936  15.681  0.1137  0.1263  0.0414
24372W        W67363  24.256  25.815  15.290  0.2228 -0.2075  0.0476
24373W        W67364  26.598  29.753  26.477 -0.1579 -0.0179  0.0800
24374W        W67365  34.144  34.237  15.044 -0.0911 -0.0217 -0.0206
24375W        W67366  29.077  20.997  18.800  0.0473 -0.0573  0.1280
24376W        W67367  27.622  30.651  28.393  0.2031 -0.0176 -0.1398
24377W        W67368  26.471  10.243  25.902  0.0448  0.1360  0.4478
24378W        W67369  27.851  29.794  26.786  0.1102 -0.2361 -0.1999
24379W        W67370  11.154  31.555  17.018 -0.1088 -0.0530  0.0990
24380W        W67371  34.516  23.019  24.167  0.0802  0.3118  0.1755
24381W        W67372  28.815   3.795  29.246  0.0643 -0.0652  0.1943
24382W        W67373   6.708  28.503  22.071  0.1912  0.1683  0.2731
24383W        W67374  21.522   1.052  17.706  0.4914 -0.2980 -0.1613
24384W        W67375  13.560  14.282  16.915 -0.0024 -0.0674 -0.1945
24385W        W67376   2.942  29.523  18.695 -0.0507  0.2797 -0.0132
24386W        W67377  30.602   4.916   7.149  0.1340 -0.1953 -0.0321
24387W        W67378  22.784  20.001  18.932 -0.2032  0.0965 -0.0617
24388W        W67379   1.386  33.051  13.940  0.0967  0.3703 -0.2547
24389W        W67380  33.112  27.402  23.894  0.0806 -0.2445  0.1051
24390W        W67381  31.426  33.083   1.823 -0.1160  0.1569  0.1120
24391W        W67382  19.772  26.878  20.298 -0.1696 -0.1952 -0.1260
24392W        W67383  30.631   2.886  27.220 -0.1048 -0.0061 -0.4351
24393W        W67384  12.334  31.049  23.234  0.2098  0.1868 -0.0105
24394W        W67385  26.115  17.017  15.460  0.2130  0.2551  0.3003
24395W        W67386  33.816   9.907  18.917  0.3610  0.0145  0.3269
24396W        W67387  20.972  32.501  18.760  0.3163 -0.0297  0.2578
24397W        W67388  30.975  33.976  22.305 -0.0732 -0.0982 -0.0068
24398W        W67389   3.138  19.976  21.125  0.0770 -0.1395  0.1491
24399W        W67390  24.203  22.518  16.992  0.1287 -0.0687 -0.0202
24400W        W67391  16.415  16.534   1.883  0.0507 -0.3214  0.2193
24401W        W67392  18.559  26.003  17.510  0.2356 -0.1044 -0.2689
24402W        W67393  29.234   1.090  24.034  0.0633  0.1244  0.2001
24403W        W67394  29.840  13.546  14.945 -0.0568 -0.0479  0.0096
24404W        W67395   3.464   9.860  25.540 -0.0366 -0.0220  0.0403
24405W        W67396  22.476  29.696  15.654  0.0300 -0.0043  0.1332
24406W        W67397  33.230  23.301  19.746 -0.0331  0.0968 -0.2382
24407W        W67398  16.638  29.020  24.944  0.1083  0.2854 -0.2025
24408W        W67399   3.713  29.706  16.516 -0.2810  0.1169  0.2690
24409W        W67400  19.825  27.923  16.866 -0.1211 -0.2017 -0.3500
24410W        W67401  29.692   0.479   2.948 -0.2838  0.1664  0.0446
24411W        W67402  13.185   2.623  26.237  0.0566 -0.1588 -0.2120
24412W        W67403   2.420  17.617  19.205  0.0196 -0.2061 -0.1519
24413W        W67404  31.808  29.710   3.701 -0.0250 -0.0067 -0.2350
24414W        W67405  27.511  12.563  14.733  0.1761  0.3000  0.5299
24415W        W67406  33.142  23.761  24.851 -0.1810  0.2241 -0.2083
24416W        W67407  21.396  18.417  20.977 -0.1208 -0.1403 -0.1431
24417W        W67408  27.330  19.071  23.205  0.0888 -0.0352 -0.1573
24418W        W67409  10.158  34.381  18.173  0.0505 -0.0645 -0.0234
24419W        W67410  17.402  28.193   0.230 -0.2135  0.0300 -0.0421
24420W        W67411  25.177  30.036  20.937 -0.3992  0.0051 -0.1132
24421W        W67412  17.634  31.617  14.080  0.1990 -0.3022  0.1739
24422W        W67413  29.926  32.750  26.124 -0.8225 -0.0597 -0.0796
24423W        W67414  26.246  28.764  16.942 -0.0746  0.1848  0.1207
24424W        W67415  33.950  30.197  17.637 -0.0631  0.2306  0.0970
24425W        W67416  28.007  12.227  23.361 -0.4868  0.3717 -0.2458
24426W        W67417  22.680  18.116  16.364 -0.1227  0.0816  0.1310
24427W        W67418  30.561   4.651  17.719 -0.0032  0.0242 -0.2164
24428W        W67419  22.616  21.400  20.915 -0.0961 -0.1670  0.1030
24429W        W67420  29.318  20.645  14.066  0.1686  0.2328 -0.1304
24430W        W67421  22.961  23.529  17.674 -0.0277 -0.1502  0.1736
24431W        W67422   5.051  22.400  20.049  0.0843 -0.0436 -0.2001
24432W        W67423  31.560  27.122  25.860 -0.2227  0.1304 -0.2412
24433W        W67424  15.303   8.462  23.737 -0.1080 -0.0689 -0.1110
24434W        W67425  26.598  25.501  15.084 -0.2042 -0.1354 -0.1258
24435W        W67426  13.875  19.615  25.772 -0.1157 -0.0251 -0.0220
24436W        W67427  27.568  19.997  27.576 -0.1269 -0.2578 -0.0659
24437W        W67428  28.245  29.574  13.574  0.0850  0.2464  0.1105
24438W        W67429  30.808  20.624  17.687  0.0383 -0.2663  0.3047
24439W        W67430   4.365  26.700  15.388  0.1934 -0.1990 -0.2936
24440W        W67431  30.142  21.328  16.214 -0.1360  0.2799 -0.2452
24441W        W67432  10.637   0.640  21.843 -0.3070 -0.4307  0.1579
24442W        W67433   8.409  24.884  17.343  0.1745  0.2263 -0.3335
24443W        W67434  16.141  30.917  25.995  0.3852  0.5648 -0.1552
24444W        W67435  25.991  26.184   0.210  0.3010  0.1254 -0.2821
24445W        W67436  33.897  24.853  25.309 -0.0700 -0.3928  0.0751
24446W        W67437  29.454  28.397  23.906 -0.0112  0.2413 -0.0299
24447W        W67438  21.604  34.426  20.809  0.1549  0.2226 -0.1782
24448W        W67439  32.414  29.448   7.653  0.1799 -0.0650  0.1961
24449W        W67440   1.539  11.341  21.647  0.0252  0.0148  0.0994
24450W        W67441  17.119  16.996   0.091 -0.0781 -0.0814 -0.1234
24451W        W67442  11.073  25.438  14.610 -0.1046 -0.1867 -0.1128
24452W        W67443  21.102  33.958   2.562  0.1611  0.1197 -0.1632
24453W        W67444  27.083  18.262  26.662 -0.0062  0.3514  0.0958
24454W        W67445  26.307  26.155  17.776  0.0995  0.0257  0.0021
24455W        W67446  22.081  25.437  19.733  0.1217  0.0326 -0.2479
24456W        W67447   9.422   6.091   4.836 -0.1141 -0.0366 -0.4210
24457W        W67448  18.393  14.974  13.946  0.2258  0.1577  0.1237
24458W        W67449  32.179   0.140  18.930  0.1461 -0.2062  0.5041
24459W        W67450   4.356  27.997   0.412 -0.2544 -0.0282 -0.1209
24460W        W67451  30.852  34.234  21.439 -0.0019 -0.0938 -0.0757
24461W        W67452  14.316   0.931  24.749 -0.0832 -0.1916 -0.1728
24462W        W67453   4.674  31.660  25.368  0.0972 -0.1257  0.0389
24463W        W67454  27.012  20.204  17.879  0.0088  0.3105 -0.2621
24464W        W67455  31.213  26.941  18.699  0.1240 -0.2335 -0.0485
24465W        W67456  14.736  32.051  26.946 -0.0183  0.2998  0.1993
24466W        W67457  15.542  11.690   8.076  0.0844  0.0833  0.0407
24467W        W67458  34.649  31.930  15.559 -0.1869  0.1529 -0.0109
24468W        W67459  21.575  16.147  14.306 -0.0454 -0.1739  0.3472
24469W        W67460  31.601  15.602  24.624  0.3879 -0.0397 -0.3257
24470W        W67461  34.795  12.783  20.611  0.4770 -0.1702  0.1414
24471W        W67462   4.338  18.597  16.701 -0.1203  0.2492 -0.2185
24472W        W67463  23.234  25.482  23.788  0.1142 -0.0210  0.0575
24473W        W67464  18.734  24.296  22.347 -0.0918  0.2403  0.0182
24474W        W67465  24.425   7.276  17.545 -0.1138 -0.2414 -0.1644
24475W        W67466  29.151  27.000   0.544  0.2657  0.1681  0.1501
24476W        W67467  25.390  22.698  19.583  0.0085 -0.2397 -0.1447
24477W        W67468  26.496  27.953  24.204 -0.0251  0.0027 -0.0247
24478W        W67469  18.569  34.724  18.381  0.1534 -0.1537 -0.0143
24479W        W67470  21.497  27.990  13.134  0.1704 -0.0348  0.0164
24480W        W67471  26.327  27.155  26.746  0.1075  0.0468  0.2617
24481W        W67472  11.657  25.405  17.586  0.1289 -0.0867 -0.0065
24482W        W67473  22.602   7.490  24.049 -0.1528  0.3687 -0.1175
24483W        W67474  19.149  31.452   6.043 -0.2325  0.4252  0.3279
24484W        W67475  22.577  34.643  20.980 -0.1992  0.0333 -0.2360
24485W        W67476  10.650  24.825   4.510 -0.0368 -0.1345 -0.0674
24486W        W67477  21.107   8.672  21.415 -0.1971 -0.5823 -0.4161
24487W        W67478  13.916  11.759  14.783 -0.0532 -0.1956 -0.2606
24488W        W67479  14.231  25.495  18.014  0.0938  0.0485 -0.0676
24489W        W67480  29.754  27.008  17.078 -0.1406  0.1764  0.1828
24490W        W67481  11.376  17.036  21.434 -0.1525  0.2194  0.1694
24491W        W67482  29.133  23.448  25.350 -0.3360  0.0017  0.0900
24492W        W67483   3.559   5.753  19.361  0.0852  0.0959  0.0170
24493W        W67484  22.687  19.247  23.561 -0.0084  0.0638  0.1270
24494W        W67485  28.679  18.433  15.692  0.1124  0.0864 -0.1476
24495W        W67486  12.367   0.453  21.634 -0.0516  0.0108  0.0082
24496W        W67487  23.715   3.444  28.992  0.3468  0.5677  0.2078
24497W        W67488  22.237  21.730  25.281  0.1484 -0.0538  0.1094
24498W        W67489  28.580  24.966  20.866 -0.1352 -0.0142  0.0985
24499W        W67490   0.092  20.720  23.306  0.3484 -0.2085  0.0640
24500W        W67491  26.029  11.433  14.763 -0.2127  0.2138 -0.0982
24501W        W67492  32.532  20.096   5.383 -0.3323 -0.0769  0.1078
24502W        W67493  20.689  32.591  16.082  0.3666 -0.0906  0.1276
24503W        W67494  11.404  22.136   7.521 -0.1794 -0.2837 -0.1724
24504W        W67495  17.495  23.596  23.300 -0.0087 -0.2411 -0.1136
24505W        W67496  18.798  26.649   8.818  0.0414 -0.2797 -0.1625
24506W        W67497  22.044   8.708  22.633  0.1252  0.5332  0.0419
24507W        W67498  24.060  25.891  19.926  0.2195  0.0362  0.0151
24508W        W67499   7.559  20.470  14.438 -0.0000  0.1358 -0.0257
24509W        W67500  30.669   9.073  22.917  0.1585 -0.3446 -0.0826
24510W        W67501  23.838  34.159  22.717 -0.4522 -0.1160  0.0419
24511W        W67502  18.578   1.373  25.669  0.3109 -0.1340 -0.3091
24512W        W67503   7.040  20.235   2.586 -0.0407 -0.1092  0.1875
24513W        W67504  33.683  32.093  14.936  0.0556 -0.1418 -0.0734
24514W        W67505  23.245  20.909   1.850 -0.3187  0.0953  0.0404
24515W        W67506  23.172   0.690  25.324  0.0540  0.1306 -0.1838
24516W        W67507  13.294  22.849  18.014 -0.2530  0.0773 -0.0336
24517W        W67508  19.558   6.547  16.647 -0.0627 -0.0953 -0.0898
24518W        W67509  14.836  17.285  13.195 -0.2236 -0.0612 -0.3786
24519W        W67510  14.048   9.288  27.591  0.1112 -0.0887  0.0850
24520W        W67511  33.534  21.821  21.173 -0.0682  0.1094 -0.0606
24521W        W67512  13.332  13.989  26.402  0.0174 -0.2636  0.0707
24522W        W67513  18.107  22.258  13.243  0.1937 -0.1482  0.2354
24523W        W67514  29.847  18.745  19.825  0.3048  0.0709  0.2557
24524W        W67515   3.928  25.459  18.587 -0.1889  0.0617 -0.0697
24525W        W67516   1.745  12.833   0.243 -0.1763  0.1599  0.0322
24526W        W67517   3.691  13.989  21.004  0.2799 -0.0444  0.2632
24527W        W67518  16.239  28.855  20.824 -0.0002  0.0452  0.0893
24528W        W67519  11.246  19.910  14.384 -0.0103  0.3622 -0.0570
24529W        W67520  21.154  19.846  17.541  0.0402  0.2089  0.0651
24530W        W67521   4.462  30.017  23.107 -0.4252 -0.1546  0.0467
24531W        W67522  26.900  25.806  18.957 -0.1373 -0.1446  0.1899
24532W        W67523  14.914  28.370  14.178 -0.0990 -0.0072  0.0325
24533W        W67524  24.865  30.869  15.755 -0.0883  0.0641  0.4696
24534W        W67525  22.506  27.670  16.187 -0.0027  0.1317  0.0158
24535W        W67526  29.302  22.608  16.506 -0.0835  0.2007  0.0010
24536W        W67527  22.871   8.685  19.023 -0.0362 -0.0586 -0.0397
24537W        W67528  33.245  34.552  16.558  0.0314 -0.0954 -0.0676
24538W        W67529  24.203  15.821  21.420  0.1653 -0.3413  0.2048
24539W        W67530   3.773   9.148  20.429  0.2962  0.1176  0.1063
24540W        W67531  14.665   3.310  17.473 -0.1094 -0.0865  0.3697
24541W        W67532  22.622  29.136  25.854  0.0238 -0.2812  0.1037
24542W        W67533  16.702  28.195  20.423 -0.2601  0.0189 -0.1250
24543W        W67534  25.225  22.804  19.098  0.0857 -0.0945  0.1975
24544W        W67535   0.333  33.259  21.308  0.2578  0.0276 -0.2485
24545W        W67536  24.589  33.131  26.504  0.1058  0.1618  0.0709
24546W        W67537   5.124  30.640  14.586 -0.0847 -0.1643 -0.3698
24547W        W67538  25.278  28.906  16.084  0.0722  0.0616  0.0874
24548W        W67539  13.603  11.897  17.789 -0.2145  0.5633  0.2314
24549W        W67540   0.786  31.009  16.218  0.0610  0.1864  0.1193
24550W        W67541   9.908  10.013  27.644 -0.0391 -0.2403  0.0512
24551W        W67542   5.321  21.390  16.942  0.1206  0.0916  0.1102
24552W        W67543  30.860  22.704  18.429 -0.3806 -0.0851 -0.2414
24553W        W67544  15.860   1.747  15.196  0.2204  0.0776  0.1301
24554W        W67545  25.843   9.879  13.738 -0.1509  0.0164 -0.2603
24555W        W67546   1.067  32.344  17.400  0.2875 -0.1455  0.1038
24556W        W67547  29.040  23.424  14.976 -0.1367  0.2097  0.2061
24557W        W67548  31.586  31.228  28.787 -0.5069 -0.2362  0.0231
24558W        W67549   1.676  19.346  16.049 -0.3076  0.2077  0.0769
24559W        W67550  27.479  15.032  14.764 -0.1211  0.0492  0.0701
24560W        W67551  26.041  34.112  13.435  0.0317 -0.2092  0.1705
24561W        W67552   6.614  10.451  22.452  0.2416 -0.3144 -0.1493
24562W        W67553   2.069  26.827  15.917 -0.0320  0.0959  0.1618
24563W        W67554  34.223  21.946  15.984 -0.0291 -0.1755  0.0426
24564W        W67555   2.582  31.105  16.785  0.1885 -0.0350  0.0345
24565W        W67556  11.989  11.117  22.828  0.0827 -0.0000 -0.0168
24566W        W67557  22.424  25.557   5.639  0.3072 -0.0872  0.0701
24567W        W67558   3.848   6.762  16.295  0.0636 -0.0156  0.2452
24568W        W67559  15.931  18.332  27.340 -0.1263 -0.0668 -0.3258
24569W        W67560  31.643  23.325  18.197  0.0538  0.1420  0.0925
24570W        W67561  20.472  16.444   9.495  0.3642  0.2466  0.0224
24571W        W67562  33.565   7.467  16.922 -0.0819 -0.1206  0.1432
24572W        W67563  26.755  16.968  16.531 -0.2814 -0.2522  0.0310
24573W        W67564   2.901   0.715  23.755  0.1514 -0.0631 -0.2277
24574W        W67565  25.914  28.036  21.352  0.1763 -0.2292 -0.2672
24575W        W67566  32.692  33.597  25.321 -0.2872  0.1252  0.0575
24576W        W67567  30.551  26.171  17.730 -0.0801  0.0765 -0.1490
24577W        W67568  25.715  26.126  16.838 -0.1617 -0.0837 -0.2038
24578W        W67569   0.504  30.196  24.775  0.1352  0.1790  0.0717
24579W        W67570  28.099   7.995   1.858 -0.1591 -0.0799 -0.2816
24580W        W67571  31.922  32.733   1.517  0.1178  0.0289  0.0465
24581W        W67572  29.094   8.098  25.736  0.0329 -0.1271 -0.4896
24582W        W67573   2.416  21.364  25.491  0.0225 -0.0598 -0.0821
24583W        W67574   2.153   9.653  16.394 -0.2586  0.0243  0.4203
24584W        W67575  21.987  27.879  23.082 -0.1384 -0.0192 -0.2150
24585W        W67576  27.983   4.096  28.716  0.1946 -0.0571 -0.1116
24586W        W67577  31.458  17.704  26.886  0.0096 -0.1374  0.3569
24587W        W67578  16.506  24.522  18.093 -0.1064 -0.1233 -0.0308
24588W        W67579   0.751  25.384  17.743 -0.0292 -0.0447  0.1339
24589W        W67580  28.940  21.110  15.301 -0.0783  0.1701  0.4207
24590W        W67581  20.419   1.163  16.060 -0.1193  0.0569  0.1905
24591W        W67582  22.458  23.528  17.624 -0.0250 -0.0138 -0.1238
24592W        W67583   4.243  17.226   7.023 -0.0781  0.0376  0.1455
24593W        W67584  22.160   5.990  26.973 -0.0888 -0.0242  0.0504
24594W        W67585  16.798  11.875  19.416  0.1663  0.1484 -0.2129
24595W        W67586  23.132  25.081  25.762  0.3309 -0.0232  0.2459
24596W        W67587   3.973  12.551   3.081  0.1860  0.2336 -0.0541
24597W        W67588  15.160  21.113  16.472 -0.3437  0.3197 -0.3829
24598W        W67589  27.179  19.959  19.822 -0.1153  0.1907  0.2953
24599W        W67590  27.971  24.734  13.170  0.1088 -0.1641  0.0008
24600W        W67591   1.520  21.028  18.298  0.0720  0.1326 -0.0789
24601W        W67592  24.604  29.886  25.234 -0.0551 -0.0344  0.0376
24602W        W67593   5.424  16.366   6.546 -0.0823  0.4773  0.0293
24603W        W67594  25.469  26.470  24.147  0.1368 -0.1167  0.1924
24604W        W67595  28.197  19.960  20.937 -0.1566 -0.1734 -0.4495
24605W        W67596  11.427  32.002  26.874  0.0259  0.2225  0.1633
24606W        W67597  21.207  12.992  25.410  0.0906  0.1065 -0.1338
24607W        W67598  29.678  27.864  17.634 -0.3172  0.1232  0.0654
24608W        W67599  31.087  27.979  19.134 -0.2000  0.0842  0.1215
24609W        W67600  27.901  21.105  19.600  0.1662  0.2487 -0.0755
24610W        W67601  12.596  28.972  14.270 -0.0429  0.0490 -0.3750
24611W        W67602  30.633   5.826  23.462 -0.0029 -0.0797  0.1151
24612W        W67603  27.458  34.785  22.944 -0.2010  0.1076 -0.1076
24613W        W67604  26.923  10.168  24.335 -0.3712  0.1687  0.4074
24614W        W67605  24.954  10.313   5.334  0.0554 -0.2837  0.0821
24615W        W67606  14.470  24.029  19.526 -0.0297 -0.0970  0.0601
24616W        W67607  32.635   8.297  16.852  0.0938 -0.2456  0.1559
24617W        W67608  20.221  29.048  25.375 -0.3304  0.3172  0.3457
24618W        W67609   1.425   0.158  16.902 -0.0186 -0.0613 -0.0166
24619W        W67610  26.973   5.118  28.142 -0.3245  0.2681 -0.1637
24620W        W67611  30.898  33.068  19.592 -0.0248 -0.1947 -0.2610
24621W        W67612  29.693  30.505  21.194 -0.0036 -0.2640 -0.1914
24622W        W67613  28.556  23.378  25.026  0.2192  0.0788  0.1930
24623W        W67614  29.872   1.529  19.684 -0.0425  0.1805 -0.2565
24624W        W67615  14.316  20.855  14.759 -0.1265 -0.1701  0.0789
24625W        W67616  29.856  20.530   3.208  0.1378 -0.2729  0.0785
24626W        W67617  29.970  20.276  26.134 -0.1403  0.0147 -0.3865
24627W        W67618  21.793  10.275  26.175 -0.1795 -0.0293  0.2620
24628W        W67619  31.128  32.584  24.168 -0.0338  0.1455 -0.0340
24629W        W67620  18.455  20.699  25.601  0.0335  0.1832 -0.3462
24630W        W67621  32.874   8.727  16.724 -0.1385 -0.0540 -0.3005
24631W        W67622  11.352  23.697  17.918 -0.1291 -0.1368 -0.0604
24632W        W67623  34.289  22.777   4.869  0.3382  0.0232 -0.3248
24633W        W67624   5.003  23.520  17.488 -0.1461 -0.0390  0.0468
24634W        W67625  19.978   3.880  14.373  0.1218  0.0770 -0.1013
24635W        W67626  22.729  33.209   1.403  0.2865  0.1828  0.1252
24636W        W67627  30.688  32.855  16.687  0.1852  0.0678  0.0452
24637W        W67628  23.129  13.086  24.871 -0.0578 -0.3421 -0.1514
24638W        W67629   2.846  16.588   4.835  0.0434  0.4323 -0.3554
24639W        W67630  22.855  28.762  14.809 -0.2893 -0.1855 -0.1033
24640W        W67631  32.110   8.237  21.248 -0.0307  0.2671 -0.0063
24641W        W67632  24.525  11.068  20.859 -0.0073 -0.0431 -0.0995
24642W        W67633  32.488  28.254  17.162 -0.2419 -0.0621  0.0339
24643W        W67634  24.003  23.344  14.368 -0.1054  0.2275  0.0623
24644W        W67635   4.893  29.654  22.570  0.2832 -0.0210 -0.1006
24645W        W67636  22.603  19.581  26.279  0.2243 -0.2033  0.0309
24646W        W67637   0.148  27.044  25.519 -0.0973 -0.2470 -0.4073
24647W        W67638  30.119  33.795  24.137 -0.2956 -0.0428 -0.0306
24648W        W67639   3.188  33.080  15.329  0.0612 -0.1556  0.4357
24649W        W67640  34.074  32.503   3.733 -0.1967  0.0857 -0.0143
24650W        W67641   1.399  22.010   1.475  0.3597  0.2771 -0.2796
24651W        W67642   2.937  32.510  22.407  0.2371  0.2846 -0.0433
24652W        W67643  26.711  28.614  20.046  0.2101 -0.0779  0.2509
24653W        W67644  30.250  29.959  17.406  0.1019 -0.1028  0.0083
24654W        W67645  18.948  29.220  13.375  0.0249 -0.0151  0.0407
24655W        W67646   9.706  30.212  16.517  0.2537 -0.1140 -0.2084
24656W        W67647  31.695   0.264  25.144  0.1744  0.0727 -0.2459
24657W        W67648  19.286   8.584  16.124  0.1673 -0.1265  0.1283
24658W        W67649  30.372  24.739   1.807 -0.1205 -0.1852  0.0489
24659W        W67650  25.433  17.619  15.756 -0.2992 -0.5085 -0.1745
24660W        W67651  28.705   2.058  23.793  0.6011  0.0629 -0.2172
24661W        W67652   2.682  23.837  28.517  0.2315  0.0284  0.2459
24662W        W67653  27.406  25.091  19.940 -0.2257 -0.0437  0.0158
24663W        W67654  30.469  17.439  20.810  0.1622  0.0873 -0.0289
24664W        W67655  32.769   6.825  27.676 -0.0648 -0.2286 -0.1471
24665W        W67656  17.680  27.881  13.440 -0.0679 -0.1816  0.0070
24666W        W67657  23.186  31.641  18.838 -0.1503 -0.2771 -0.0095
24667W        W67658   0.105   9.435   5.617  0.1440  0.2574  0.1858
24668W        W67659  26.358  15.528  20.724  0.0327  0.0935  0.0680
24669W        W67660  14.576  17.783  16.475  0.2342  0.1920 -0.0489
24670W        W67661  20.658  30.104  16.293 -0.0690  0.0367 -0.0767
24671W        W67662   8.009  23.289  15.163  0.2535 -0.2196  0.3029
24672W        W67663  27.878  28.777  15.457  0.2323  0.1610  0.0602
24673W        W67664   7.657  14.079  28.525  0.2414 -0.1687 -0.0700
24674W        W67665  34.321  12.995  23.726  0.3301  0.0847  0.0899
24675W        W67666   8.383  32.662  16.943 -0.0789  0.1441  0.0039
24676W        W67667  31.524  16.194   6.826  0.0046 -0.1057 -0.0188
24677W        W67668  25.742  20.218  21.096 -0.1361 -0.1424 -0.1658
24678W        W67669  25.283  31.237   2.947 -0.2212  0.0072 -0.0741
24679W        W67670  17.245  28.539   4.056 -0.0889  0.0151 -0.2565
24680W        W67671  30.023   8.393   3.211  0.1111 -0.0828 -0.0528
24681W        W67672   3.707   8.209   5.089 -0.0180  0.1529 -0.0318
24682W        W67673  26.939  17.307   3.509 -0.1573  0.1156 -0.0780
24683W        W67674  27.979  23.633  24.648 -0.1248 -0.0977  0.0391
24684W        W67675  32.416  18.807  24.425  0.1503 -0.3365  0.1410
24685W        W67676  31.566  16.915  16.805 -0.0873  0.1033 -0.1747
24686W        W67677  21.041  27.690  22.770  0.0282 -0.0210 -0.0770
24687W        W67678  32.568  34.091  21.483  0.1300 -0.0443  0.0322
24688W        W67679  13.574  30.131  23.322  0.0699 -0.0680 -0.0241
24689W        W67680  10.184   9.674  15.298  0.0098  0.0413 -0.3264
24690W        W67681   2.009   9.850  19.571  0.0201  0.0053 -0.0130
24691W        W67682  21.995  24.453  16.302 -0.1963  0.3352  0.1176
24692W        W67683  10.966  11.152  27.419 -0.1299 -0.0356 -0.1269
24693W        W67684   2.040  20.313  15.915 -0.0475 -0.0023  0.1607
24694W        W67685  11.089  34.264  15.558  0.2315 -0.1173 -0.1396
24695W        W67686  14.286  26.936  22.038 -0.1435 -0.3488 -0.3427
24696W        W67687  20.512   0.769  15.645 -0.0960  0.1934 -0.1520
24697W        W67688  22.358  25.718  23.288  0.0884  0.1493  0.0582
24698W        W67689  25.604  33.364  16.903  0.1368 -0.0275  0.2860
24699W        W67690   8.909  24.039   2.834 -0.0409 -0.1840  0.0216
24700W        W67691  24.471  25.383  21.393 -0.1679 -0.4091  0.0384
24701W        W67692  15.524  12.984   2.279 -0.2388  0.2169 -0.1315
24702W        W67693  26.206  21.207  13.182 -0.2596 -0.2531 -0.4231
24703W        W67694  30.339  26.056  26.703 -0.0874 -0.2456 -0.0017
24704W        W67695  25.744  17.956  18.324  0.1956  0.2015 -0.0333
24705W        W67696  30.370  34.671  20.267  0.0563  0.0911  0.0722
24706W        W67697   6.699  20.987  15.164 -0.0910  0.2472  0.2702
24707W        W67698   3.244  21.029   6.034 -0.2306  0.1147  0.0579
24708W        W67699  16.072  32.452  17.361  0.1416  0.2657  0.0080
24709W        W67700  26.074  13.039  21.159 -0.2517 -0.1878 -0.0180
24710W        W67701  17.737  26.615  14.489  0.0787  0.0288 -0.3012
24711W        W67702  27.694  13.532   1.471  0.2185  0.1651 -0.1954
24712W        W67703  13.342  12.564   0.400  0.6289  0.2604  0.0894
24713W        W67704   9.962  33.984  19.865 -0.0579  0.2017 -0.0941
24714W        W67705  15.444  23.495  25.665  0.0024 -0.0150  0.1887
24715W        W67706  28.424  18.851  15.938  0.4554 -0.2305 -0.0133
24716W        W67707  28.343  20.790  27.753 -0.1128 -0.0014  0.1307
24717W        W67708  24.607  26.099  28.873  0.0779  0.2234 -0.2531
24718W        W67709  20.301   1.106  23.499 -0.1400  0.0634  0.0543
24719W        W67710   9.515   0.384  28.591 -0.1033 -0.0631  0.5269
24720W        W67711  13.939  20.729  23.527 -0.0704 -0.0194 -0.0514
24721W        W67712  26.298  23.870   0.150 -0.2113 -0.1821 -0.1681
24722W        W67713  21.678  23.054   0.820  0.0196  0.1279 -0.1462
24723W        W67714  13.912  14.313  19.465 -0.2272  0.0398  0.2559
24724W        W67715  30.491   2.943   3.236  0.1359 -0.2336  0.1319
24725W        W67716  23.016  23.466  19.068  0.2046 -0.0936 -0.0851
24726W        W67717   4.334   7.742   3.495 -0.0841 -0.0351 -0.0125
24727W        W67718  34.027  25.627  17.094  0.4332 -0.3909  0.0321
24728W        W67719  12.553   5.717   2.924  0.1474 -0.0680  0.0131
24729W        W67720  24.233  32.576  16.991 -0.0017  0.0118  0.1566
24730W        W67721  19.928  22.770  27.274  0.1930  0.1716  0.1155
24731W        W67722  26.510  30.130  15.768 -0.1112 -0.1443 -0.1998
24732W        W67723  25.823   0.834  26.556 -0.2485  0.3286  0.0627
24733W        W67724  27.755   8.171  17.853 -0.2910 -0.2193 -0.2338
24734W        W67725   3.785   2.509  21.872 -0.1499  0.1321 -0.0924
24735W        W67726  30.148   5.057   0.977 -0.0654 -0.1734  0.0634
24736W        W67727  23.817  19.384  15.977  0.0259  0.0886  0.2402
24737W        W67728  33.693  22.132  14.130  0.1871 -0.0031 -0.1118
24738W        W67729   0.267  23.274   3.073 -0.0548 -0.1622 -0.0420
24739W        W67730  27.544   7.457  18.277  0.0009 -0.2563  0.1060
24740W        W67731  20.478  15.088  19.704  0.2229 -0.1877  0.0242
24741W        W67732   8.613  15.604  24.537  0.0413  0.0771  0.0154
24742W        W67733  30.474  27.373   0.963  0.1816  0.2196 -0.0456
24743W        W67734  28.619  13.389  18.264 -0.1204  0.1431 -0.0861
24744W        W67735  18.056   5.953  22.996  0.0528  0.1092 -0.0922
24745W        W67736  31.540   2.413  27.201 -0.2507  0.3140  0.0628
24746W        W67737  34.764   7.455  21.384 -0.3222 -0.2774 -0.0338
24747W        W67738  28.954  27.632  22.532 -0.3387  0.0795 -0.1030
24748W        W67739  33.872  23.038  18.646  0.0423  0.0551  0.0832
24749W        W67740  31.275  26.823  25.089 -0.1695  0.0131 -0.1266
24750W        W67741  23.046  20.010   8.755  0.0092 -0.1301  0.1305
24751W        W67742  18.205  30.387   0.398 -0.1108 -0.1786 -0.2334
24752W        W67743  32.163  17.125  27.471  0.1563  0.0699 -0.0051
24753W        W67744  33.039  31.801  16.711  0.0435 -0.0735  0.1388
24754W        W67745  27.079   5.017  21.165  0.2114  0.1026  0.0571
24755W        W67746  10.492   5.304  21.629 -0.1021 -0.0533 -0.0775
24756W        W67747  31.307   5.114  23.758 -0.2251  0.0477 -0.1024
24757W        W67748  27.480  21.149  21.160 -0.0423  0.0007 -0.1277
24758W        W67749   3.458  28.496  25.932  0.3569 -0.1514 -0.2222
24759W        W67750  28.314  29.559   7.326 -0.5347  0.0869  0.0714
24760W        W67751  22.847  32.241  18.755 -0.0571  0.4291  0.0031
24761W        W67752  26.446   0.155  13.823  0.1741  0.0611  0.1858
24762W        W67753  17.078  11.177  19.308  0.4853  0.2580  0.1698
24763W        W67754   8.682   9.610  19.127 -0.2264 -0.0879 -0.3458
24764W        W67755  19.247   0.886  15.451  0.2308  0.0425 -0.0434
24765W        W67756   7.864  27.235   6.255 -0.2181 -0.0214 -0.1289
24766W        W67757   6.977  16.203  18.487  0.0052 -0.2116 -0.2962
24767W        W67758  23.987  20.874  21.126  0.0373  0.2060 -0.1359
24768W        W67759  19.345  34.264  14.168  0.0525  0.1143  0.1922
24769W        W67760  34.433  33.955  16.765 -0.1164 -0.2934  0.2628
24770W        W67761  25.307   7.175  16.189 -0.0976 -0.0721 -0.0592
24771W        W67762  31.051  10.867  20.455  0.0436 -0.0947  0.2180
24772W        W67763   2.010  27.467   9.118  0.3005  0.1612  0.1374
24773W        W67764  27.845  24.095  21.210  0.2851 -0.0072  0.3859
24774W        W67765  21.738   0.162  22.076  0.0976  0.0775  0.0338
24775W        W67766  31.343  23.362  16.058  0.0369 -0.1781 -0.0398
24776W        W67767  29.140  26.443  20.779 -0.0756 -0.0572  0.4276
24777W        W67768   7.066  21.510  16.355 -0.1369 -0.0912 -0.2992
24778W        W67769   6.749  12.270  21.700  0.0727 -0.1461  0.1985
24779W        W67770   7.868  26.704   1.914  0.3187  0.1758 -0.1448
24780W        W67771  10.175  28.289  21.901  0.1025 -0.0917  0.2158
24781W        W67772  15.433  30.452  21.362 -0.1698 -0.2547 -0.1198
24782W        W67773  29.420  24.774   3.033  0.1767 -0.1848 -0.3783
24783W        W67774  33.019  18.917  17.667 -0.1346  0.1177 -0.1715
24784W        W67775  16.503  19.757  12.493  0.3085  0.1478  0.1254
24785W        W67776   5.852  19.596  26.824 -0.1285  0.1033  0.0262
24786W        W67777  34.073  28.918  21.412  0.1964  0.0454 -0.0309
24787W        W67778  30.138   4.937   9.972 -0.2939 -0.0153  0.0850
24788W        W67779   4.569  23.221  18.528 -0.0535  0.0404  0.0548
24789W        W67780  26.672  18.877  26.271  0.0327 -0.1278 -0.1392
24790W        W67781   0.190  23.557  28.251 -0.1554  0.0286  0.1662
24791W        W67782  23.381  28.430  13.464  0.2572 -0.4891 -0.1074
24792W        W67783  30.199  22.176  10.671  0.0024 -0.2419 -0.4887
24793W        W67784  28.894  19.483   4.704 -0.3217  0.4952 -0.2974
24794W        W67785  21.978  18.474  13.749  0.0770  0.0464 -0.0397
24795W        W67786  19.568  28.618   4.504 -0.0696 -0.0345 -0.0443
24796W        W67787   5.453   2.342  29.072  0.0788  0.2239  0.1618
24797W        W67788  12.828  19.948  17.638  0.1930 -0.1617  0.1640
24798W        W67789  14.794  23.126  10.002  0.2657  0.0681 -0.0201
24799W        W67790  20.711  11.057  25.854  0.1475 -0.0354 -0.0382
24800W        W67791  20.076  31.413  14.711 -0.0251 -0.1204  0.1511
24801W        W67792  17.120  19.434   7.152  0.0940 -0.3213  0.3271
24802W        W67793  34.352  21.778   1.222 -0.1171  0.0273 -0.1664
24803W        W67794  28.741  18.829  28.559 -0.3489  0.0319 -0.0208
24804W        W67795   2.055  14.493  17.690 -0.1735  0.3083  0.0228
24805W        W67796  31.822   3.492  19.777  0.0219  0.0331 -0.0600
24806W        W67797  10.070   2.334  21.364  0.0216 -0.1743 -0.3182
24807W        W67798   3.615  15.219  17.163  0.1036 -0.3284  0.0391
24808W        W67799  21.309  20.931  12.631 -0.0824 -0.2381  0.1168
24809W        W67800  21.765  26.710  13.046  0.0815  0.2933  0.1149
24810W        W67801   0.501  30.731  20.877 -0.2786  0.0954  0.0492
24811W        W67802  29.192  32.768  24.061 -0.1071  0.0754  0.0826
24812W        W67803  19.844  31.502  15.155 -0.4528  0.1140 -0.0949
24813W        W67804  29.648  28.633  14.911 -0.0051 -0.0277  0.1258
24814W        W67805  32.446  29.680  18.763  0.1243  0.3244  0.1453
24815W        W67806  13.150  15.725  15.776  0.1810  0.0135  0.0962
24816W        W67807  28.174  17.773   9.963 -0.0594 -0.3062 -0.1165
24817W        W67808  32.697  14.721  15.264 -0.1081  0.3069 -0.2240
24818W        W67809  30.088  22.653  17.654  0.3714  0.1833 -0.2925
24819W        W67810  19.965  22.765  20.987  0.1181  0.0255  0.1746
24820W        W67811  14.375  15.239  14.591 -0.1303  0.0650  0.0244
24821W        W67812  28.369  19.506   5.533 -0.0787  0.0177  0.0135
24822W        W67813  28.644  28.079  19.868  0.2381 -0.0116 -0.2139
24823W        W67814   0.770   9.502   3.339 -0.4485  0.1098 -0.2967
24824W        W67815   3.545  25.464  15.932 -0.2791 -0.0653 -0.0377
24825W        W67816  26.944  32.029  22.101 -0.1491  0.0324 -0.1754
24826W        W67817  17.002  25.599  18.713  0.1947  0.1002  0.1259
24827W        W67818   0.484  22.975  15.329  0.0054 -0.2580 -0.0525
24828W        W67819  11.266  18.381  24.445  0.0941 -0.0107  0.3415
24829W        W67820  27.091   7.029  20.126  0.1576 -0.0811  0.2062
24830W        W67821  29.058  17.234  21.227  0.0736 -0.3022 -0.1621
24831W        W67822  25.937  17.563   1.795  0.0540 -0.3335 -0.3143
24832W        W67823  32.791  31.642   2.598 -0.1778  0.0868  0.1195
24833W        W67824  34.532   5.257  10.661  0.0031  0.1060 -0.1907
24834W        W67825  13.664  22.055  17.064 -0.0865 -0.0865 -0.2523
24835W        W67826  26.111  25.533  15.199  0.3340 -0.2354 -0.1949
24836W        W67827  24.359  28.854  16.375  0.0938 -0.2251 -0.0190
24837W        W67828  25.465  20.782   0.047  0.1203 -0.1813 -0.1165
24838W        W67829  24.992   4.205  13.139 -0.4451  0.0003 -0.1313
24839W        W67830  26.075  29.067  17.842 -0.1135 -0.0503  0.1112
24840W        W67831  15.733  25.121  17.419  0.1633 -0.2587  0.0410
24841W        W67832  31.187  30.980  28.686 -0.0479  0.2302 -0.0230
24842W        W67833  19.168   1.109  16.429 -0.1840  0.2110  0.0705
24843W        W67834  27.892  14.046   9.082  0.0203  0.3100  0.1792
24844W        W67835  27.387  15.851  25.401  0.2932  0.3157 -0.5872
24845W        W67836  11.664  12.074   8.845 -0.0141 -0.2697  0.2781
24846W        W67837  28.761  28.154   1.885  0.0055  0.1391  0.0069
24847W        W67838  25.806  33.062  19.193 -0.1602 -0.0870  0.0368
24848W        W67839  28.573  14.009  27.122  0.0932 -0.3249  0.3936
24849W        W67840  28.540  24.017  17.936 -0.3420 -0.0604 -0.2281
24850W        W67841  28.553  22.121  17.452 -0.0319  0.2999  0.0966
24851W        W67842   3.290   0.913  20.308 -0.0137  0.0221 -0.1387
24852W        W67843   6.328  11.935  20.934 -0.1499 -0.2346 -0.0405
24853W        W67844  15.609  10.718  14.582  0.2133  0.0892 -0.1075
24854W        W67845  21.236   2.022  29.236 -0.0592 -0.1915 -0.1402
24855W        W67846  21.053  22.685  19.278  0.0714  0.1674 -0.0959
24856W        W67847  30.219   5.940  25.050 -0.0074  0.0037  0.1148
24857W        W67848   0.019  21.762   7.826 -0.0821 -0.0815  0.1455
24858W        W67849   5.308  23.268  23.446 -0.1113 -0.3957  0.2641
24859W        W67850  28.577  21.526  23.253 -0.1690  0.0848  0.4338
24860W        W67851  14.137  12.591  19.567 -0.3610 -0.1003 -0.3151
24861W        W67852  24.263  23.624   5.158 -0.1637  0.0017 -0.2456
24862W        W67853  14.145  12.209  14.989  0.2425  0.3328 -0.1353
24863W        W67854  19.659  25.870  21.154 -0.0644  0.1932  0.3564
24864W        W67855  26.238  14.866   6.413 -0.1091 -0.0072  0.0129
24865W        W67856  21.072  30.185  22.139 -0.2084 -0.0738  0.0471
24866W        W67857   1.729  20.322  19.816 -0.1038  0.2500  0.1638
24867W        W67858   0.922   3.980   9.771 -0.2482  0.0792 -0.3267
24868W        W67859   5.129   1.500   2.888 -0.2009 -0.1501  0.0268
24869W        W67860   7.873  15.095  10.419 -0.0170 -0.1786 -0.1821
24870W        W67861  12.820  29.501  22.955 -0.1706  0.4067 -0.1287
24871W        W67862  29.641  32.038  24.475  0.1218  0.0175  0.3094
24872W        W67863  20.033  29.513  15.271 -0.0745  0.2773  0.1889
24873W        W67864  20.419  33.523  18.192  0.0211  0.1292  0.0579
24874W        W67865  26.484  33.727  27.985 -0.2026  0.4036  0.2501
24875W        W67866  30.175  23.224  14.371  0.2081  0.3502  0.0036
24876W        W67867  28.589  23.201  17.100  0.0753 -0.2909  0.0318
24877W        W67868   5.537  19.117  23.597 -0.0486  0.3907  0.3859
24878W        W67869  24.301  23.846  18.085  0.1746  0.3255  0.0990
24879W        W67870  29.342   4.677  24.633 -0.1520  0.1262 -0.3047
24880W        W67871  30.162  17.362  17.301 -0.1557  0.5397  0.1609
24881W        W67872  31.185  15.832  29.219  0.0439 -0.1400 -0.1100
24882W        W67873  18.229  23.614   0.606  0.1331 -0.0665  0.2959
24883W        W67874  29.480  31.297  21.908 -0.2010 -0.0867 -0.0324
24884W        W67875   2.855  31.293  16.002  0.1917 -0.0415  0.0002
24885W        W67876  27.272  31.589  29.111  0.0121  0.0535 -0.0690
24886W        W67877  14.199  28.055  16.962  0.1825 -0.1448  0.1158
24887W        W67878  25.490  32.204  16.568  0.1599  0.0879  0.1911
24888W        W67879   4.563  32.554  19.523  0.1123 -0.2244 -0.1668
24889W        W67880   3.850  15.848   2.902  0.1103  0.2730 -0.2354
24890W        W67881  31.209  28.834  12.624 -0.2941  0.4503  0.2548
24891W        W67882  25.529  25.423   4.761  0.0070  0.1128 -0.0815
24892W        W67883  29.919  31.985  15.724  0.0684 -0.0237 -0.1361
24893W        W67884  32.765   9.000  17.287  0.2629  0.1216  0.0338
24894W        W67885  27.707  33.424  21.255  0.4219 -0.2006  0.1224
24895W        W67886   1.772  17.095  23.041 -0.1114  0.3111  0.1077
24896W        W67887  18.552  21.798  27.153 -0.0389 -0.0783 -0.4302
24897W        W67888  21.120  26.310  21.121  0.1140  0.1551 -0.1409
24898W        W67889   2.307  26.539  19.581 -0.3053  0.0143 -0.2768
24899W        W67890   7.374  26.927  21.446  0.0141  0.0847  0.1662
24900W        W67891  12.126  26.941   3.239 -0.2954 -0.1748  0.1234
24901W        W67892  12.168  24.221  18.189 -0.0766  0.1144  0.2151
24902W        W67893   0.186  15.978  20.116  0.2077 -0.1164 -0.2315
24903W        W67894   3.731  25.890  27.188 -0.0861  0.2049 -0.4051
24904W        W67895   9.822  24.309   1.273 -0.0530 -0.1128  0.2287
24905W        W67896   1.312  18.073  22.848  0.1038 -0.0102 -0.0695
24906W        W67897   0.895  18.422   1.398  0.0003 -0.1416 -0.1565
24907W        W67898  21.176  18.272  16.476 -0.1473  0.1201  0.4304
24908W        W67899   8.823  23.080  26.705  0.2032 -0.2079  0.1900
24909W        W67900  27.136  34.624  20.796  0.0861  0.0608  0.0371
24910W        W67901   6.790  19.243  24.556 -0.0671  0.2792  0.0342
24911W        W67902  19.819   8.983   9.193  0.0315 -0.1954  0.0271
24912W        W67903  30.104  26.933  28.685  0.1968  0.2189  0.0744
24913W        W67904  34.789   2.833   7.034 -0.1530  0.0683  0.0562
24914W        W67905  31.839  27.078  17.983 -0.1808  0.0011 -0.0706
24915W        W67906   6.177  25.172  19.372  0.2383  0.0555 -0.1118
24916W        W67907   7.451   1.285  19.544  0.0188  0.2226  0.0743
24917W        W67908   0.479  33.324  28.617  0.2048 -0.0903 -0.2827
24918W        W67909  19.495  28.615  28.320  0.2212 -0.0573  0.0931
24919W        W67910  23.990  24.561  15.496 -0.0439 -0.0659 -0.1326
24920W        W67911  16.282  17.349  24.716  0.0385 -0.0536  0.1791
24921W        W67912  30.193  12.111   6.422 -0.0959  0.0617  0.1145
24922W        W67913  29.312  27.090  22.460  0.0685 -0.2143 -0.1543
24923W        W67914  18.412  10.987  14.966 -0.1473  0.4191 -0.1136
24924W        W67915  25.273  23.806  21.218  0.1700  0.6323  0.3454
24925W        W67916  21.655   9.185  14.514  0.1106  0.1135 -0.1012
24926W        W67917  26.422  23.071  13.945 -0.0330  0.0471 -0.0638
24927W        W67918  21.680  13.428  17.014 -0.1356  0.0503  0.1650
24928W        W67919  23.620   4.134  15.303  0.1439 -0.0173  0.0623
24929W        W67920  14.884  27.998  18.871 -0.0397 -0.1266 -0.2831
24930W        W67921   6.402  17.608  14.713 -0.2643  0.1936 -0.0826
24931W        W67922  30.272   5.069  14.436 -0.3138  0.1812  0.3147
24932W        W67923  22.233  15.542  20.782  0.3168 -0.1611 -0.1347
24933W        W67924  32.043  25.438  15.642  0.1138  0.4204  0.0849
24934W        W67925  17.611  32.356  22.872  0.1150 -0.0181  0.0289
24935W        W67926  34.757  27.711  21.538 -0.3124 -0.1591  0.1080
24936W        W67927   2.097  13.018  20.552 -0.0282  0.0861  0.2034
24937W        W67928  33.321  28.142  15.792 -0.2089 -0.0485  0.0002
24938W        W67929   1.462   7.056  29.119  0.1605 -0.2321 -0.2645
24939W        W67930  21.368  20.479  12.951 -0.5428  0.2214 -0.0574
24940W        W67931  19.966  30.359   3.037 -0.1789 -0.1547  0.1990
24941W        W67932  30.995   3.712  19.123 -0.4634  0.2054 -0.2454
24942W        W67933  13.154  19.578  24.094 -0.2513 -0.0680 -0.0386
24943W        W67934  20.980  22.636  17.477  0.0327 -0.2196  0.4470
24944W        W67935  34.031  32.103  22.149 -0.0628 -0.2052 -0.2548
24945W        W67936  17.950  22.232   3.061  0.2440 -0.1839  0.0823
24946W        W67937  23.904  19.107  20.115  0.2813  0.1089  0.0021
24947W        W67938  22.005  34.566  17.405  0.2794 -0.2157  0.0044
24948W        W67939  18.285   4.335   2.179  0.0347 -0.3292 -0.1342
24949W        W67940  16.602  22.217  19.765  0.0672  0.1070 -0.0097
24950W        W67941  32.459  13.257  17.926  0.0551  0.1051 -0.1280
24951W        W67942  25.762  23.207  19.183 -0.0082 -0.0782 -0.0979
24952W        W67943  33.404  18.743  24.748  0.0690  0.0844 -0.1319
24953W        W67944  30.623  10.955  22.576  0.2680  0.2153  0.0750
24954W        W67945   5.782  24.025  17.559  0.0771 -0.4156  0.1135
24955W        W67946   1.097  27.747  26.274 -0.1722  0.0693 -0.1125
24956W        W67947  26.769  32.007  20.684 -0.1068 -0.1160 -0.0361
24957W        W67948  27.615  33.772   7.907 -0.0245 -0.1517 -0.1405
24958W        W67949   4.416  14.676  16.156 -0.0362  0.2389 -0.1959
24959W        W67950  29.212  21.701  21.888  0.1359 -0.0501 -0.0182
24960W        W67951  32.314  10.264  17.643 -0.0926 -0.4738  0.0104
24961W        W67952  22.548  20.607   7.603 -0.1525  0.0264 -0.1419
24962W        W67953  22.727  21.667  13.370 -0.2633  0.2638 -0.0229
24963W        W67954  28.714  27.619  14.892  0.2069 -0.1567  0.1281
24964W        W67955   1.254  16.168  23.030 -0.2682 -0.0022 -0.1318
24965W        W67956  20.698  15.041  18.121  0.0693 -0.4936 -0.0752
24966W        W67957  16.492  32.805  19.532  0.2220 -0.0899  0.0135
24967W        W67958  22.459  20.278   0.799 -0.1523  0.1274 -0.0211
24968W        W67959  33.184  25.685   1.372  0.0497 -0.1509 -0.1847
24969W        W67960   5.997  23.435  24.582 -0.0308 -0.1763 -0.4893
24970W        W67961   5.231  28.802  27.983 -0.2197 -0.2068  0.2587
24971W        W67962  22.539  15.983  19.437 -0.1991  0.0536  0.3284
24972W        W67963  15.795  26.274  23.605 -0.0109  0.2814  0.3475
24973W        W67964   3.182  21.283   9.773  0.0337 -0.1076 -0.3543
24974W        W67965  29.813   1.660  13.893 -0.1579  0.0149  0.0651
24975W        W67966   4.223  32.028  21.460  0.1565  0.1569 -0.3368
24976W        W67967  12.657  33.797  16.754  0.0603  0.2268  0.3203
24977W        W67968  25.346  17.702  16.285 -0.0603 -0.0783 -0.1059
24978W        W67969   1.665  30.273  17.851  0.0199  0.3194 -0.1811
24979W        W67970  17.563  32.544  27.392 -0.4295  0.0792  0.0087
24980W        W67971  31.133  34.719   4.324  0.0730 -0.2028 -0.0151
24981W        W67972  29.978  23.324  19.616  0.1970 -0.4889  0.0855
24982W        W67973  13.522  22.833  20.871  0.4950 -0.0812  0.0033
24983W        W67974  33.961   6.703  24.513  0.0283  0.2921 -0.2540
24984W        W67975   8.826   1.175   3.274 -0.2996  0.1584 -0.1607
24985W        W67976  11.689  34.167  26.395 -0.0879  0.0031  0.1114
24986W        W67977  32.893  31.979  20.347  0.1847 -0.1610 -0.2108
24987W        W67978  33.852  15.217   1.112 -0.1794  0.0084 -0.1496
24988W        W67979  24.881  16.728  13.797  0.0205 -0.3358 -0.0105
24989W        W67980  29.033  15.428   5.477  0.2197  0.0459 -0.4887
24990W        W67981  34.353  20.040  17.491  0.2020 -0.1594 -0.0904
24991W        W67982  22.721  23.780   0.084  0.2822 -0.2563  0.2218
24992W        W67983  25.615  27.085   9.539 -0.1216 -0.1030  0.1738
24993W        W67984  18.441  25.250   2.426 -0.0753 -0.1161  0.0901
24994W        W67985  18.484  10.722  22.115 -0.1026 -0.1216 -0.0113
24995W        W67986  22.780  22.198  23.629 -0.0856 -0.1488  0.1693
24996W        W67987  15.950  26.568  27.091 -0.0216  0.1172  0.0407
24997W        W67988  25.452  20.787  20.928  0.0155 -0.2671 -0.1413
24998W        W67989  20.441  28.666  20.951  0.0802 -0.2822  0.6757
24999W        W67990  30.124  21.887  20.797 -0.0915 -0.1430 -0.0482
25000W        W67991  18.797  26.639  14.395  0.2219  0.2027  0.0889
25001W        W67992  22.581  12.376  26.688 -0.0247  0.1327 -0.0736
25002W        W67993  19.877  16.620  12.370  0.4718  0.1777  0.2048
25003W        W67994  26.413   7.435  28.305 -0.0212 -0.0555 -0.1322
25004W        W67995  17.550   9.184   9.156 -0.0415 -0.1713  0.1037
25005W        W67996  32.598  27.295  22.271  0.5263  0.2050  0.2865
25006W        W67997  21.822  27.503  23.413 -0.0371 -0.2763  0.2417
25007W        W67998   2.213  20.258  27.835 -0.1084  0.0934 -0.1080
25008W        W67999  30.750  12.320  25.819 -0.3026  0.3899  0.0249
25009W        W68000  24.747  17.413  13.980  0.0308  0.1203  0.0973
25010W        W68001  19.237  12.920  22.574  0.1281 -0.0972  0.1068
25011W        W68002  34.131  18.296  18.436 -0.3716 -0.1242 -0.0939
25012W        W68003  28.181   6.424   8.725 -0.2784  0.0582  0.1655
25013W        W68004  11.098  25.467  26.873  0.0450  0.1164 -0.0755
25014W        W68005  26.335  26.619  21.667 -0.0078  0.1700  0.0326
25015W        W68006   2.637  32.567  27.868 -0.0938  0.1450 -0.3260
25016W        W68007  33.459  19.281  22.767 -0.1830 -0.1276 -0.1958
25017W        W68008   3.294  30.160  25.870  0.1332 -0.0036  0.1173
25018W        W68009  25.691  31.994  13.128 -0.0983  0.1761 -0.0105
25019W        W68010  19.295  18.971   5.377  0.0914  0.0631 -0.1432
25020W        W68011   6.743  15.554  20.319 -0.1539 -0.0466  0.2816
25021W        W68012  32.002  10.306  24.935 -0.0482  0.0877 -0.0445
25022W        W68013  23.581   2.278  18.889  0.0133 -0.1351  0.3012
25023W        W68014   0.137  25.923  22.263  0.0882  0.0592  0.2192
25024W        W68015  33.361   9.288  14.897  0.1504 -0.3169  0.0053
25025W        W68016   4.316  29.765  28.076 -0.0252 -0.0567  0.4659
25026W        W68017  26.014  24.766  19.738 -0.2772  0.2381  0.3985
25027W        W68018  13.579   1.151   0.232  0.0090  0.0414  0.1224
25028W        W68019  30.618  21.497  14.802  0.2346  0.0699  0.0059
25029W        W68020   3.641  32.178   1.154  0.0969  0.0101  0.4841
25030W        W68021  22.105  23.335  17.944 -0.4968 -0.2929 -0.1146
25031W        W68022   5.538  29.172  28.434 -0.0037 -0.2118 -0.0175
25032W        W68023   1.661  24.011  19.602 -0.1698 -0.4283 -0.1219
25033W        W68024  24.707  21.648  17.225 -0.2823  0.2459  0.1133
25034W        W68025  29.537  15.546  16.726 -0.2429 -0.0732  0.0005
25035W        W68026  18.210  23.106  13.544 -0.1504  0.0821  0.0089
25036W        W68027  24.696   5.282  20.771  0.1107 -0.1707 -0.1968
25037W        W68028  25.774  11.617  16.072 -0.1413 -0.1299 -0.1474
25038W        W68029  15.558  11.882  22.346  0.2640  0.0004  0.2614
25039W        W68030  33.012  30.796  18.380  0.2539 -0.0966  0.4150
25040W        W68031  21.448   6.919  17.841  0.0803 -0.1192 -0.2414
25041W        W68032  22.031  13.706  19.373 -0.1951  0.2256  0.1758
25042W        W68033  22.688   0.435  23.223  0.2177 -0.1584  0.0356
25043W        W68034  31.002  33.957  21.048 -0.1614  0.2240 -0.3129
25044W        W68035  19.515  33.768  28.854 -0.3904  0.2651 -0.0793
25045W        W68036  32.912  30.320  18.487 -0.0404  0.2994 -0.4252
25046W        W68037  31.932   8.173  24.280 -0.3054 -0.0463 -0.1923
25047W        W68038  34.723  31.190  29.000 -0.0620  0.2945  0.3208
25048W        W68039  30.605  21.218  16.373 -0.0522  0.0878  0.0844
25049W        W68040  34.522  29.051  13.798 -0.0563 -0.2580 -0.2944
25050W        W68041   5.473  19.394  15.517 -0.2172 -0.0679  0.0581
25051W        W68042  12.806  24.226  23.604  0.0740  0.0163 -0.0877
25052W        W68043  21.954  19.734   2.555  0.0103 -0.1850  0.2562
25053W        W68044   4.682   1.558   1.190 -0.1212 -0.1873  0.0817
25054W        W68045   3.689  19.854  15.162 -0.3974 -0.2154  0.0801
25055W        W68046  33.019  11.521  26.969 -0.1149  0.2213 -0.1209
25056W        W68047  14.800  25.602  15.193 -0.0705  0.4511  0.1719
25057W        W68048  22.664  27.325   1.338  0.0847  0.1951 -0.2814
25058W        W68049  29.077   6.902  23.937  0.0016 -0.1187  0.0089
25059W        W68050  10.102  32.788   6.317  0.2628  0.0708 -0.4163
25060W        W68051   7.782  25.518   3.815  0.1994 -0.2641 -0.0102
25061W        W68052  29.882  24.166  14.032  0.1334  0.3798  0.0515
25062W        W68053  16.895  17.277   9.063 -0.1377 -0.2555  0.2257
25063W        W68054   2.010  20.773  17.446 -0.0903  0.0717 -0.1199
25064W        W68055  34.709  17.581  21.435  0.4006  0.5226  0.1419
25065W        W68056  14.098  31.766  15.497 -0.0366  0.0811 -0.1726
25066W        W68057  13.882  26.787  14.425  0.1277 -0.2531  0.3369
25067W        W68058  23.452  28.790  21.611 -0.2982 -0.3818 -0.0345
25068W        W68059  31.775  18.097  17.592  0.1361  0.0418 -0.0540
25069W        W68060  12.096  20.074   1.235 -0.4007  0.0367  0.0272
25070W        W68061  20.430  10.161  27.362  0.0990  0.0185 -0.0987
25071W        W68062  27.627  22.470  21.531 -0.0820 -0.4067 -0.1256
25072W        W68063  32.213   4.541  28.237  0.0064 -0.0265 -0.0921
25073W        W68064   9.278   4.075   2.720  0.0506  0.0612  0.1260
25074W        W68065  25.655  27.837  26.512 -0.1253  0.2773 -0.4046
25075W        W68066  32.169  16.905  21.184 -0.0048  0.4166 -0.2787
25076W        W68067  33.260  17.997  25.362  0.0825 -0.1154 -0.0843
25077W        W68068   9.935  21.970  16.751 -0.1401 -0.2086  0.0534
25078W        W68069  26.826   0.802  23.448  0.1185 -0.2258 -0.2952
25079W        W68070  31.751   3.926   1.181 -0.1512 -0.0475 -0.1745
25080W        W68071  25.406  11.087  17.523 -0.0599  0.0550 -0.0173
25081W        W68072  20.626  21.933  25.430 -0.0471 -0.1191  0.0876
25082W        W68073   0.182  10.960   6.927 -0.3392 -0.1763  0.0751
25083W        W68074  28.091   4.382  23.677 -0.1321  0.0541 -0.1777
25084W        W68075  20.351  20.790  12.541  0.0294  0.0745  0.1839
25085W        W68076  18.249  11.613  26.739  0.1848  0.1849 -0.0918
25086W        W68077  21.804   1.843  20.675  0.1411 -0.2048  0.7198
25087W        W68078  23.621   7.662  19.190 -0.0729 -0.2365  0.0757
25088W        W68079  16.950  13.279  20.931 -0.2708  0.1113  0.0164
25089W        W68080  28.847  32.415  21.590 -0.1477 -0.0775 -0.1469
25090W        W68081  17.956  16.914  24.831  0.2731  0.0316  0.1171
25091W        W68082  27.310  34.097   7.399  0.1081  0.5304 -0.0035
25092W        W68083   4.188   5.987  18.023  0.0176  0.0305 -0.0422
25093W        W68084  34.059  13.246  23.374  0.1882  0.0719  0.2164
25094W        W68085  22.754  11.911  13.768  0.0314 -0.1162 -0.1657
25095W        W68086  27.636  34.391  25.542 -0.0425  0.0209  0.1972
25096W        W68087  27.730  18.798  19.643 -0.2621  0.2337 -0.0227
25097W        W68088  16.586  19.587  23.417  0.0518  0.2456  0.2360
25098W        W68089  19.471  22.241  26.753  0.0587  0.2167 -0.2103
25099W        W68090  30.292  26.660  18.765 -0.0494  0.2061  0.3087
25100W        W68091  18.844   0.218  15.945  0.1774  0.1468 -0.0585
25101W        W68092  18.627  19.946  16.628 -0.3053 -0.1371 -0.0874
25102W        W68093  24.214   2.814  25.755 -0.1649  0.0773  0.1335
25103W        W68094  34.419  14.454  22.096 -0.1891  0.2574 -0.1013
25104W        W68095  26.678  29.561  24.432  0.1954  0.2692 -0.1101
25105W        W68096  24.771  23.906  14.333 -0.0315  0.0644  0.1811
25106W        W68097  26.827  21.483  21.933  0.0662  0.2043 -0.0279
25107W        W68098  11.116  16.221  26.705  0.2585 -0.2764 -0.0820
25108W        W68099   6.237  33.571  22.387  0.0162 -0.2901 -0.1479
25109W        W68100  34.774  25.597   1.257 -0.3686 -0.0948 -0.0585
25110W        W68101  34.174  27.294  24.085  0.1124 -0.3783 -0.2018
25111W        W68102  31.634   3.232  17.344 -0.0011 -0.0583 -0.0462
25112W        W68103  31.715  15.880  25.069  0.0751 -0.1258  0.0678
25113W        W68104  20.645  14.456  17.215 -0.1906  0.1901  0.1792
25114W        W68105   7.357  22.340  23.298  0.3190 -0.0408 -0.0758
25115W        W68106  19.717  16.070  16.814 -0.0790 -0.0144 -0.1070
25116W        W68107  24.093  21.639  15.348  0.0632  0.1189 -0.4192
25117W        W68108  23.824   4.058  16.242  0.4293 -0.1626  0.2600
25118W        W68109  31.688  29.060  21.338 -0.0264 -0.2893  0.1618
25119W        W68110  24.293  34.273  20.037  0.2195 -0.1893 -0.1850
25120W        W68111  34.575  26.809   2.712 -0.0334 -0.3686 -0.0580
25121W        W68112  23.653  18.146  16.562 -0.0059  0.4491 -0.1247
25122W        W68113  10.634  10.901  15.275  0.3220  0.2188  0.0636
25123W        W68114  20.043  18.566   2.943  0.3388  0.0469  0.4684
25124W        W68115  32.387  33.485  26.966 -0.1930 -0.3243 -0.1213
25125W        W68116  10.620  22.194   1.938 -0.0368  0.0708 -0.1520
25126W        W68117  27.561  11.808  16.790 -0.3330  0.1910  0.3068
25127W        W68118   1.960  24.520  26.474  0.3108  0.0480 -0.0085
25128W        W68119   2.263  30.722  23.051  0.2485 -0.1879  0.1938
25129W        W68120  31.062  28.043   2.900 -0.0774 -0.0636  0.2229
25130W        W68121  27.759  30.119  27.210  0.1093 -0.0504  0.1677
25131W        W68122  21.273  33.173  15.357 -0.0366  0.0316  0.0788
25132W        W68123  28.731  19.446   8.101  0.1472  0.1744  0.0261
25133W        W68124  20.815   2.855   6.800  0.0370  0.3658 -0.0835
25134W        W68125  31.034  24.424   0.116  0.2536  0.1909  0.2848
25135W        W68126  28.482  21.436  16.970 -0.1834  0.1266 -0.1035
25136W        W68127  20.550  21.179  20.458  0.3121  0.0967 -0.0980
25137W        W68128  31.425  26.912   7.855 -0.1949 -0.1823  0.1543
25138W        W68129  32.797  33.924   0.762 -0.0278 -0.1454  0.2261
25139W        W68130  14.196   7.163  25.278 -0.1084  0.0068  0.1455
25140W        W68131  23.295  27.217   9.677  0.0624 -0.2076  0.1403
25141W        W68132   1.294  33.357   6.882  0.2546 -0.2114 -0.0584
25142W        W68133  25.372  25.690  27.139 -0.1606  0.1602  0.0896
25143W        W68134  12.213   4.503  21.355 -0.1471 -0.0306 -0.1675
25144W        W68135   1.088  15.392   1.138  0.2675 -0.0006 -0.0362
25145W        W68136  10.266  17.353  24.497 -0.0618  0.3430  0.0835
25146W        W68137  33.374   0.856   2.047  0.0331 -0.1920 -0.1546
25147W        W68138  24.247   4.993  23.956  0.1914 -0.1384 -0.0994
25148W        W68139  15.012  21.524  25.625 -0.0870  0.0387 -0.0274
25149W        W68140  29.339  31.527  27.171  0.0245  0.1763  0.3123
25150W        W68141  24.125  17.197  15.701  0.2432 -0.0887  0.3882
25151W        W68142  15.424  20.688  19.087  0.0811 -0.1800  0.0262
25152W        W68143  25.840  25.570   3.927 -0.2356  0.3280 -0.0557
25153W        W68144  26.300  23.310  27.234  0.0401 -0.0231  0.2821
25154W        W68145  23.302  23.726  13.750  0.0577 -0.0413 -0.1175
25155W        W68146  23.585  29.121  17.966  0.2664 -0.0784 -0.4301
25156W        W68147  19.701  22.584  16.714 -0.0199 -0.5056  0.0632
25157W        W68148  28.375  31.327  27.806  0.2264  0.0593 -0.1304
25158W        W68149  21.807  29.650  18.441 -0.2485  0.0684 -0.2922
25159W        W68150   3.594   5.223  27.097 -0.0511 -0.2546 -0.0843
25160W        W68151   8.831  33.716  24.909 -0.1594  0.1634 -0.2168
25161W        W68152  10.134  30.765  28.823 -0.1236 -0.0393  0.0216
25162W        W68153  15.536  17.703  12.133  0.1386  0.3830  0.1225
25163W        W68154  11.594  16.570  20.706  0.0704  0.1378 -0.0559
25164W        W68155  27.073  22.418  17.502 -0.1418  0.0823  0.0878
25165W        W68156  10.638  14.862   0.496  0.1459  0.0430 -0.1442
25166W        W68157  15.362  18.177  14.683 -0.1075  0.1328  0.1583
25167W        W68158   0.334  17.866  15.712  0.5252 -0.3161 -0.2159
25168W        W68159  31.197  29.497  14.541  0.3531  0.1529  0.0669
25169W        W68160  33.722  26.746  21.535 -0.1958 -0.1010  0.0165
25170W        W68161  32.047  26.510  19.272 -0.3819 -0.0826  0.0489
25171W        W68162  26.893   6.739  22.594 -0.0848  0.3795  0.0762
25172W        W68163   9.175  25.335  28.743  0.1368  0.0223 -0.2084
25173W        W68164  32.059  31.808   2.016  0.1533 -0.1919 -0.1567
25174W        W68165   2.220  19.853  22.447  0.0325  0.4410  0.1187
25175W        W68166   3.249  16.660  10.106  0.1288  0.1741 -0.0979
25176W        W68167  24.061  22.004  16.733  0.0077  0.1932 -0.1628
25177W        W68168  25.570  27.312  19.742  0.3706 -0.0044 -0.0692
25178W        W68169   5.370  26.735  26.263  0.1253  0.1525  0.0695
25179W        W68170  31.710   0.907  19.694 -0.0009  0.0484 -0.0808
25180W        W68171   9.509   3.623  20.063 -0.1111 -0.0020  0.5884
25181W        W68172  22.696  25.426  20.381 -0.0879  0.0411  0.1412
25182W        W68173  18.792  22.148  27.852  0.4135  0.2425  0.0275
25183W        W68174  14.397  17.791   5.084 -0.1408 -0.0161  0.0134
25184W        W68175  12.640  15.473  21.310 -0.0972 -0.1085 -0.4128
25185W        W68176  21.884  20.725  19.432  0.0706  0.1764 -0.0013
25186W        W68177  21.534  19.422  18.609  0.2789 -0.1936  0.0995
25187W        W68178  21.518  18.935  26.970  0.0267 -0.0390  0.2438
25188W        W68179   1.032  33.085   2.014 -0.3193 -0.0435  0.0371
25189W        W68180  34.282  31.930  21.715  0.3847 -0.1253  0.4197
25190W        W68181  17.689  17.272  29.263 -0.0228  0.0660  0.4309
25191W        W68182  21.566  34.135   2.657 -0.1436 -0.0341 -0.3400
25192W        W68183  32.458  29.791  15.624 -0.1457  0.0531  0.2221
25193W        W68184   2.258  11.177  25.469 -0.0119  0.1000 -0.0572
25194W        W68185  13.789  24.910   6.467 -0.0071  0.3320  0.3821
25195W        W68186  27.207   0.833  22.283  0.4815  0.1799 -0.3851
25196W        W68187  20.227  28.258  20.041  0.0468 -0.1113  0.3117
25197W        W68188  30.839  21.995   1.471  0.0246  0.0564  0.2007
25198W        W68189   6.487  25.002   3.580  0.1580 -0.1669  0.0115
25199W        W68190  24.376  21.700  13.421  0.1547 -0.2920 -0.1357
25200W        W68191  15.283   1.405  24.582  0.1638 -0.0600  0.4477
25201W        W68192  19.792   8.461  19.392  0.3266  0.1491 -0.0625
25202W        W68193  24.637  22.772  18.209  0.0800  0.1576 -0.0241
25203W        W68194  25.048  17.270   6.644 -0.1829 -0.0914 -0.0306
25204W        W68195  29.159  22.068  25.918  0.0754  0.0673  0.2687
25205W        W68196  27.208   9.346  20.019  0.0895 -0.0590  0.2522
25206W        W68197  16.233   8.351   1.279  0.0650 -0.2134  0.0156
25207W        W68198  31.097  20.406  20.931  0.1609  0.0499  0.2473
25208W        W68199  16.634  11.122  25.996  0.0642  0.2715 -0.2969
25209W        W68200   1.972  26.200  20.358 -0.2254  0.1180  0.0032
25210W        W68201  29.030   3.308  24.431 -0.1552 -0.2051 -0.4459
25211W        W68202  17.492  16.171   1.950  0.0956  0.2782 -0.6106
25212W        W68203  30.570  17.809  22.613  0.0953 -0.2651  0.0038
25213W        W68204  26.348  20.717  25.841  0.1038  0.1377  0.0427
25214W        W68205  32.573  24.451  22.465 -0.2715 -0.3086 -0.1116
25215W        W68206  20.280  19.423  25.788  0.1507  0.0983  0.0006
25216W        W68207  31.838   2.892   8.201 -0.0855 -0.2509 -0.0681
25217W        W68208   8.658  11.646   3.065 -0.4834  0.1532  0.1628
25218W        W68209  25.255  18.418  29.107  0.2481  0.5369  0.1889
25219W        W68210   4.129  27.008  25.844  0.0356  0.1620  0.1744
25220W        W68211  14.348  29.736  26.985 -0.1242  0.1091  0.2676
25221W        W68212  34.287  29.053   3.571 -0.0660  0.1555 -0.0533
25222W        W68213  26.191  15.728  15.329 -0.1952  0.0150 -0.0972
25223W        W68214   1.186  15.281  11.708 -0.0081  0.0032  0.3528
25224W        W68215  29.934  24.852   5.185 -0.0772  0.1422 -0.1012
25225W        W68216  25.082  20.446   8.681 -0.2036 -0.1133  0.1812
25226W        W68217   1.173   0.248   9.801  0.0772 -0.0770 -0.0315
25227W        W68218  12.545   9.433  23.098 -0.2058  0.3784  0.0041
25228W        W68219   2.811  34.778   9.961  0.0838 -0.0842  0.1202
25229W        W68220   8.736  34.260  23.641 -0.0521  0.0648  0.2953
25230W        W68221   6.840  28.906  17.645 -0.3724  0.1065 -0.3802
25231W        W68222  24.849  32.736  16.237 -0.2077 -0.1383 -0.1911
25232W        W68223   4.973  13.420  17.853 -0.0921 -0.0290  0.0852
25233W        W68224  23.734  28.467  20.062  0.1735  0.0166 -0.4199
25234W        W68225   8.280  12.397   7.071 -0.0948  0.0162  0.1827
25235W        W68226  20.316   6.265  16.148  0.0246 -0.0949  0.1367
25236W        W68227  28.187  34.617  22.230  0.0787 -0.1524  0.1398
25237W        W68228  30.185  33.156   3.878 -0.3044  0.1516 -0.0656
25238W        W68229  23.121  17.335  15.896  0.2596  0.0458 -0.2293
25239W        W68230   0.720  24.072  15.297 -0.3730 -0.1306  0.0252
25240W        W68231   1.297  15.773  23.397  0.2169  0.2851  0.0329
25241W        W68232   9.563   7.947  16.742  0.1639 -0.0738  0.0545
25242W        W68233  17.008  20.232  19.222  0.2515  0.3314 -0.0715
25243W        W68234  24.578  32.778  12.878 -0.0665 -0.0007 -0.1764
25244W        W68235  31.417  15.641  17.243 -0.0456 -0.0848  0.1793
25245W        W68236   1.540   0.624   0.374 -0.0144 -0.0534 -0.0794
25246W        W68237  24.112  18.747  13.135 -0.1247  0.1911  0.0268
25247W        W68238  32.087  12.504  15.355  0.2206 -0.0702 -0.0563
25248W        W68239  27.745  16.553  28.598 -0.2196  0.2028  0.0488
25249W        W68240  25.265  21.034   1.241 -0.1107  0.1405 -0.1261
25250W        W68241  30.794  29.582  20.718  0.1575  0.2210  0.0269
25251W        W68242  29.565  29.701  14.123 -0.1542  0.1990 -0.1365
25252W        W68243   2.141  21.243   2.623  0.1469  0.2232 -0.1936
25253W        W68244  31.892  32.228  18.773 -0.0767 -0.1959  0.1352
25254W        W68245   5.711   1.136   2.303 -0.0518 -0.0006 -0.1461
25255W        W68246  24.596  27.346  21.190  0.0227 -0.0668  0.2004
25256W        W68247  23.791   9.299  29.108  0.2858 -0.0529 -0.1155
25257W        W68248  32.628  17.742  21.355 -0.2422 -0.0256 -0.3295
25258W        W68249  24.334  15.541   1.619  0.0551  0.0729 -0.2155
25259W        W68250   0.275   0.418  17.968  0.1817 -0.1427 -0.2171
25260W        W68251  17.188  18.897  24.356  0.2604  0.0693 -0.0754
25261W        W68252  25.570  21.427   6.769 -0.0262 -0.2587 -0.0466
25262W        W68253   0.916  30.775   4.785  0.2043  0.0130  0.0077
25263W        W68254  34.444  33.303   1.525  0.2487  0.0126 -0.2855
25264W        W68255  21.608  17.422  13.529  0.0234 -0.0890 -0.1842
25265W        W68256  27.240  23.768   1.459  0.0867 -0.0212  0.2402
25266W        W68257   0.857   1.609  15.522 -0.0512 -0.1718  0.0401
25267W        W68258  29.058  27.111  23.984  0.2044 -0.3613  0.0588
25268W        W68259  24.605  34.164  19.620  0.1971  0.2630 -0.0281
25269W        W68260  27.282  22.730   3.063 -0.0180 -0.0733  0.1631
25270W        W68261  19.669  31.378  13.981  0.0135 -0.2857 -0.1791
25271W        W68262  25.878  27.079   1.313 -0.1079  0.2766  0.3582
25272W        W68263  15.840  23.395   7.949  0.3001 -0.4088 -0.0224
25273W        W68264  34.216  16.437  25.742  0.0690 -0.1231  0.3302
25274W        W68265  14.917  28.179  20.018  0.2428 -0.2576 -0.0928
25275W        W68266  28.428  26.996  17.249  0.1833 -0.0147 -0.0471
25276W        W68267   2.902  23.153   4.534  0.2640  0.3050 -0.2074
25277W        W68268  19.666   2.085  15.928  0.1626 -0.0983 -0.2284
25278W        W68269  34.702  30.963  15.809  0.1018 -0.0976  0.3265
25279W        W68270   0.123  32.178   7.392 -0.1588  0.1209  0.2923
25280W        W68271  27.895  28.761  20.217 -0.2224 -0.2706  0.3750
25281W        W68272  26.375   9.469   6.192 -0.0200 -0.1762  0.1405
25282W        W68273   4.641  21.776   3.044  0.2195  0.1755  0.1068
25283W        W68274  23.648  29.812   3.981 -0.1859 -0.1129  0.1615
25284W        W68275  15.504  21.506   0.169  0.1378 -0.0313 -0.1749
25285W        W68276  20.807  21.564  16.791  0.0222 -0.2318 -0.2966
25286W        W68277  19.516  25.922   4.669 -0.1492  0.0717 -0.1512
25287W        W68278  26.455  22.720  20.338  0.0773  0.1253 -0.0748
25288W        W68279  15.161  24.048   8.840 -0.2634  0.0679 -0.3864
25289W        W68280  19.098  22.811   6.237  0.0565  0.2275 -0.0347
25290W        W68281  31.946  13.116  28.371  0.2862  0.3555 -0.1356
25291W        W68282  20.667  19.059  21.711 -0.1141 -0.1217 -0.0126
25292W        W68283  24.690  16.395  26.485 -0.1929 -0.2170  0.1461
25293W        W68284  26.632  14.721  14.713  0.1820 -0.1720  0.0136
25294W        W68285  13.816  16.014  28.879  0.0750 -0.0260 -0.1179
25295W        W68286  14.803  29.349   6.013 -0.0621  0.1562  0.3780
25296W        W68287   5.095  32.788  24.460 -0.2911 -0.2941  0.0165
25297W        W68288   8.327  28.329  16.932  0.1007 -0.1175  0.0353
25298W        W68289  34.356  24.893  27.322 -0.3793  0.0241 -0.3277
25299W        W68290   2.294  16.212  28.796 -0.4510 -0.0709  0.2315
25300W        W68291   1.414  22.347   0.085  0.1318 -0.1123  0.1139
25301W        W68292  27.809  30.266  26.608 -0.0268  0.1478 -0.1579
25302W        W68293  19.730  21.329  16.577 -0.0721  0.1163 -0.0814
25303W        W68294  34.345  27.961  18.570 -0.0090  0.0668  0.0805
25304W        W68295  25.490  25.516  23.230 -0.2158 -0.1215 -0.0984
25305W        W68296  27.430  27.914  21.083 -0.0181 -0.1201  0.2781
25306W        W68297  25.083  25.387  28.240  0.2047  0.0634  0.1078
25307W        W68298  34.725  20.672  25.677 -0.0261  0.1477  0.0449
25308W        W68299   7.097  31.907   3.821  0.1040 -0.0100  0.0878
25309W        W68300  12.105   6.942   4.438  0.4385  0.0099  0.1473
25310W        W68301   3.397  28.216   6.567  0.0639  0.0129 -0.1371
25311W        W68302  26.456   9.885   8.544 -0.1939 -0.2247  0.2349
25312W        W68303  14.238  27.515  18.227 -0.0729  0.1243 -0.0130
25313W        W68304  31.577   5.034   3.902 -0.0654 -0.1565  0.2232
25314W        W68305  26.686  20.803   0.196  0.1943 -0.2778  0.2281
25315W        W68306  23.000   8.858  25.637  0.5247 -0.1505 -0.0049
25316W        W68307  34.337  34.722   1.606 -0.4599  0.1608 -0.1090
25317W        W68308  29.708  28.179   9.146 -0.1445  0.1289  0.4241
25318W        W68309  18.093  10.767  20.786 -0.2726  0.0427 -0.4474
25319W        W68310  24.422   0.319  26.130  0.4468 -0.1756  0.0684
25320W        W68311  31.298  22.738  25.954  0.1612 -0.2783 -0.1164
25321W        W68312   2.902   3.092  26.956 -0.2820  0.0867 -0.1118
25322W        W68313  21.702   4.937  22.178  0.0354 -0.2427  0.0215
25323W        W68314   4.404  27.760  22.705 -0.0431 -0.0606 -0.3415
25324W        W68315  29.795  20.138  22.515  0.2976 -0.0868 -0.0453
25325W        W68316  25.251   0.755   4.159  0.1630 -0.2289 -0.2304
25326W        W68317  30.686   1.947  28.070  0.6239 -0.4450 -0.0666
25327W        W68318  22.844  34.126  27.838 -0.0512  0.2363  0.2394
25328W        W68319  32.669  22.120  21.644 -0.1206 -0.0846  0.2050
25329W        W68320  29.069  22.134  28.503  0.2036 -0.1057 -0.3404
25330W        W68321   1.172  12.399  23.360 -0.0515 -0.4032  0.0917
25331W        W68322  19.210  23.655  19.369  0.2408 -0.1538  0.0753
25332W        W68323   3.834  22.211  17.992  0.0186 -0.2569  0.0691
25333W        W68324   4.696  16.141  10.464  0.1232 -0.1528  0.1255
25334W        W68325  26.334  22.546  15.823  0.3215 -0.1070  0.1175
25335W        W68326  28.393  23.077  22.398  0.3290 -0.2561 -0.0969
25336W        W68327  10.895  28.019  26.860  0.2772  0.1361 -0.3855
25337W        W68328  16.145   7.008   2.814 -0.2092 -0.1034  0.2036
25338W        W68329  12.642  17.379  17.256  0.3206  0.1267  0.0368
25339W        W68330  30.772  28.448   1.359  0.1064 -0.1172 -0.0540
25340W        W68331  17.306  23.636  26.340 -0.2198 -0.2795 -0.1232
25341W        W68332   2.105  23.799  27.144  0.5368  0.0322  0.1697
25342W        W68333  32.655  25.782  20.876 -0.0154 -0.2381 -0.1657
25343W        W68334  19.323  30.096  18.930  0.1236 -0.1265  0.3595
25344W        W68335  33.566  30.242  23.967  0.0237  0.0232 -0.1579
25345W        W68336  27.811  23.985   0.155  0.1387  0.1398  0.0139
25346W        W68337   1.232   0.678   2.266  0.3032  0.0534 -0.1102
25347W        W68338  23.742  33.115  16.474  0.2969 -0.0572  0.0515
25348W        W68339  27.302  17.714  21.615 -0.4395 -0.2594  0.2706
25349W        W68340  17.029  23.429  27.547 -0.1977 -0.0716 -0.0897
25350W        W68341   9.897  11.531   4.567 -0.0519 -0.0222 -0.0283
25351W        W68342  29.482  30.407  17.999 -0.3112 -0.1120  0.1078
25352W        W68343   8.996  14.498  24.991 -0.2172 -0.0560  0.2827
25353W        W68344  22.060  32.977  24.917  0.2129 -0.1151  0.0927
25354W        W68345  33.523   1.803  18.865  0.4213 -0.2342  0.2780
25355W        W68346   9.150  34.033  17.995  0.2236  0.0166 -0.2422
25356W        W68347   5.325  28.144   5.633  0.1109 -0.0767  0.2361
25357W        W68348  27.317  14.585   8.283  0.3349 -0.0580  0.1283
25358W        W68349  33.171  15.286  17.322  0.1044  0.0041  0.0891
25359W        W68350  30.863   6.605  27.513  0.0086 -0.1905 -0.1899
25360W        W68351  21.547  30.767  12.946 -0.0559 -0.0172  0.0578
25361W        W68352   3.185  19.230  15.689 -0.0595  0.2578  0.1195
25362W        W68353  12.200  25.327   4.599  0.4632  0.0025  0.0667
25363W        W68354  12.732  17.450   3.360  0.1291 -0.1050 -0.1065
25364W        W68355  21.076  19.582  17.010 -0.0306  0.0868 -0.1047
25365W        W68356   8.277  11.233  23.258 -0.3177 -0.2344  0.4569
25366W        W68357  10.069  18.221  22.921  0.1241 -0.2844 -0.2253
25367W        W68358  29.975  21.104  24.759 -0.2619 -0.1854  0.1350
25368W        W68359  27.250  33.759  15.594  0.0457  0.3004  0.1091
25369W        W68360   4.532  14.754  25.023  0.1198 -0.1349 -0.0874
25370W        W68361   1.428  29.187   5.290  0.0387 -0.0188  0.2458
25371W        W68362  19.242   7.818  26.804  0.0166  0.5453  0.1519
25372W        W68363  27.696  20.357  16.925  0.1764  0.1576  0.0159
25373W        W68364  30.588  20.085   5.320  0.0871  0.0776  0.0359
25374W        W68365   4.768  25.845  20.709 -0.1687  0.0538  0.1658
25375W        W68366  19.729   9.629   1.061 -0.0402  0.0085 -0.0454
25376W        W68367   2.954  29.247   4.488 -0.0506 -0.1645  0.0847
25377W        W68368  27.802   2.442  15.824 -0.2267  0.4334  0.2893
25378W        W68369  24.137  19.208  28.629  0.3021  0.1313 -0.0900
25379W        W68370   1.940  11.077  23.960 -0.0488 -0.0991 -0.1552
25380W        W68371  19.194  22.033  18.709 -0.1497  0.0721 -0.0413
25381W        W68372  11.019  23.544  16.052 -0.0416  0.0124  0.1482
25382W        W68373   5.399  32.699   8.660  0.2169 -0.2021 -0.0520
25383W        W68374  15.532  26.522  13.865  0.1986  0.0294 -0.1836
25384W        W68375   1.635  24.370   2.386 -0.0292 -0.2560  0.0396
25385W        W68376  20.299   8.964   5.291  0.1263 -0.0199  0.0501
25386W        W68377  24.940  25.598   4.376 -0.0460 -0.2450 -0.2521
25387W        W68378  25.655   1.853   5.553  0.0159  0.0658 -0.0882
25388W        W68379  28.277  30.966  18.739 -0.1470  0.0991 -0.1868
25389W        W68380  29.711  13.283  19.137  0.0325 -0.1360 -0.1280
25390W        W68381  26.680  24.371  16.545  0.2767 -0.2311  0.1484
25391W        W68382  27.732  33.152  16.308 -0.0102  0.0506 -0.1298
25392W        W68383  26.193  33.605  26.721 -0.2522 -0.1038 -0.1421
25393W        W68384  13.033  22.329  13.723 -0.3119  0.1170  0.2434
25394W        W68385  30.766   4.552  21.758  0.2720  0.0886 -0.0114
25395W        W68386  25.977  19.502  19.818  0.1757 -0.0239  0.1685
25396W        W68387   8.079  16.663  16.773 -0.0390 -0.1489  0.1527
25397W        W68388  25.199  28.328  18.046 -0.0102  0.1008 -0.0636
25398W        W68389  24.897  27.572   9.529 -0.0749  0.0276  0.4231
25399W        W68390   3.845  20.388  18.953  0.0246  0.2905 -0.2448
25400W        W68391  16.466  22.948  16.269 -0.2228 -0.2528  0.0467
25401W        W68392  31.433   3.591   1.372  0.0509  0.2414 -0.0588
25402W        W68393  34.451  32.709  22.497  0.0762  0.2940  0.1957
25403W        W68394  13.380   6.190  19.930 -0.0622 -0.3090  0.1595
25404W        W68395  25.795  20.794   0.553  0.2533  0.0534  0.1621
25405W        W68396  24.682  28.259  26.398  0.1618  0.1516  0.0307
25406W        W68397  16.344   1.508   7.278 -0.1019 -0.1273  0.3795
25407W        W68398  24.000  31.018  18.610  0.0652  0.1186 -0.1239
25408W        W68399  21.109  13.033  25.913 -0.0097  0.2802 -0.3560
25409W        W68400   4.406  18.811  29.174 -0.2415 -0.0848 -0.2692
25410W        W68401  20.251  21.611  19.420  0.0462  0.2816 -0.2037
25411W        W68402  31.167  25.362  14.569  0.1163  0.0754  0.1591
25412W        W68403  23.416  15.059   3.559  0.2322 -0.2404  0.0991
25413W        W68404   7.135  24.352   8.319 -0.1331 -0.1689  0.3988
25414W        W68405  13.348  20.748  25.603  0.2668 -0.2599  0.0148
25415W        W68406  16.474  20.519   8.235 -0.0455  0.1507  0.2198
25416W        W68407  32.448  19.372  22.203  0.2615  0.1141  0.2771
25417W        W68408  17.324  23.498  14.228 -0.3350 -0.1794  0.2039
25418W        W68409  30.170  21.573  15.129  0.1242 -0.1318 -0.0211
25419W        W68410  18.318  29.550  22.679 -0.1343 -0.2444  0.2131
25420W        W68411  16.981  34.231  21.128 -0.3807  0.0927  0.0379
25421W        W68412  27.230  30.924  25.409 -0.2984 -0.2398  0.2273
25422W        W68413  22.954  22.307   6.012 -0.4356 -0.1439  0.1897
25423W        W68414  29.122   2.521   9.078 -0.0872 -0.0875 -0.0479
25424W        W68415  15.530  24.030  19.063  0.1768 -0.2011 -0.2177
25425W        W68416  24.504  29.188   0.083 -0.1878  0.1939 -0.1526
25426W        W68417  13.364  24.126  29.050  0.2266  0.0169  0.0275
25427W        W68418  25.199  34.637  13.294 -0.3909 -0.1014  0.1014
25428W        W68419  30.519  24.102  16.906  0.1427  0.1080 -0.0260
25429W        W68420   0.755   0.947  22.504  0.2523  0.1750 -0.1171
25430W        W68421  16.596  31.305  18.848 -0.1043 -0.0317 -0.1316
25431W        W68422   0.394  11.335  21.997 -0.1604 -0.1026 -0.0835
25432W        W68423  29.564  34.331  24.987  0.0224  0.2518 -0.0068
25433W        W68424  24.073  22.049   9.069  0.1986 -0.3247  0.0542
25434W        W68425   8.594  17.630   6.432 -0.1822 -0.0445  0.0058
25435W        W68426  13.676  17.122  25.623  0.2842  0.0461  0.1299
25436W        W68427  34.314  12.660   3.720  0.0144  0.0624  0.0059
25437W        W68428  17.553  21.948  27.423 -0.2764 -0.0919  0.2022
25438W        W68429   7.299   7.771  20.299 -0.0787 -0.0613 -0.1769
25439W        W68430  23.521  33.485   8.043  0.0378 -0.0438 -0.2028
25440W        W68431  29.616  25.658  20.928 -0.0636 -0.0617  0.1362
25441W        W68432   9.307  13.127  16.736  0.1101  0.3609 -0.3956
25442W        W68433  32.703  20.158  17.682  0.0627 -0.1884 -0.1234
25443W        W68434  11.939  15.368  15.643 -0.0680 -0.3501 -0.1063
25444W        W68435  27.952   3.733  23.293  0.0102 -0.0716 -0.0660
25445W        W68436  32.705   2.511  24.593  0.0615 -0.1132  0.0089
25446W        W68437  29.088  34.098  23.154  0.0379  0.1848  0.2535
25447W        W68438  27.797  23.369   8.958  0.2985 -0.0936 -0.0539
25448W        W68439  30.920   7.879  25.149  0.2342 -0.0770 -0.0316
25449W        W68440  30.973  23.344   5.282 -0.1032  0.0898 -0.0274
25450W        W68441  12.579  27.530   3.837  0.1303  0.2109  0.2380
25451W        W68442   9.778  12.451  15.804  0.1825  0.0333  0.0241
25452W        W68443  23.644   2.264   6.565  0.1636  0.2430  0.0172
25453W        W68444  21.460  32.296   0.134 -0.1065  0.1967  0.1302
25454W        W68445  26.519  22.297   6.772 -0.2024 -0.2485 -0.0325
25455W        W68446  21.601  13.659  13.829  0.1295 -0.0700  0.0317
25456W        W68447   4.329  21.431   4.249  0.0837  0.1067  0.1436
25457W        W68448  15.116  13.447  23.917  0.0041  0.0473  0.1397
25458W        W68449  31.758  17.351  22.179 -0.0103 -0.1698 -0.2160
25459W        W68450  12.459  34.769  21.746 -0.0476 -0.2219  0.0134
25460W        W68451  16.079   3.276   5.576 -0.1442  0.1559  0.0245
25461W        W68452  25.416  22.848  12.885  0.1623  0.5621  0.1276
25462W        W68453  27.733  34.621  28.264  0.0785  0.3879  0.1917
25463W        W68454  32.339  24.877  16.641 -0.0247  0.0300 -0.1502
25464W        W68455  30.805  31.594  22.643  0.1620 -0.1018  0.1250
25465W        W68456  17.253  28.319  23.315  0.0797  0.1903  0.0266
25466W        W68457  13.846  21.251  19.326 -0.1572  0.1327  0.0455
25467W        W68458  33.136  33.224  18.768  0.1459  0.0551  0.1506
25468W        W68459  34.128  20.672  25.820  0.3550 -0.4724 -0.2472
25469W        W68460  31.051  12.746  24.814  0.0458  0.0920 -0.0650
25470W        W68461  11.323  32.659  14.865  0.1334  0.0544 -0.3679
25471W        W68462   0.012  20.274  26.700  0.0175 -0.2016  0.0504
25472W        W68463  20.459   6.364  22.224 -0.2014 -0.0039 -0.1166
25473W        W68464  24.538   3.488  13.425 -0.2537  0.0649  0.0241
25474W        W68465   9.623  18.730   0.723  0.1219 -0.3368  0.0236
25475W        W68466  28.189  25.680  15.295  0.2140 -0.0992 -0.0093
25476W        W68467   3.809  22.029   8.276 -0.2596  0.0008 -0.1606
25477W        W68468  20.970   5.964  26.868 -0.1187  0.0628 -0.0594
25478W        W68469  27.761  15.732  26.309 -0.0185 -0.0288  0.1304
25479W        W68470  29.039  18.656   9.901  0.0404 -0.0461 -0.1101
25480W        W68471   3.842  18.333   1.470 -0.0593  0.0018 -0.0436
25481W        W68472   3.540  30.196  15.571  0.0586  0.2050 -0.3575
25482W        W68473  12.754  24.287  15.691 -0.2910 -0.0700 -0.1778
25483W        W68474  25.025   1.918   8.849  0.2614  0.0236 -0.1340
25484W        W68475   2.964  34.024  14.011 -0.1987  0.0888  0.0155
25485W        W68476  30.542  11.355  15.618  0.0591 -0.1675  0.0045
25486W        W68477  31.257  11.218  23.098 -0.1372  0.0622 -0.0316
25487W        W68478   7.755  30.118  10.283  0.0463  0.1070  0.2773
25488W        W68479  31.411  22.497  20.693  0.2777 -0.0603  0.1238
25489W        W68480  27.641  15.062  18.278 -0.4106  0.1100  0.2426
25490W        W68481  34.096  34.315  16.942  0.0385 -0.2939  0.1980
25491W        W68482  23.217  27.971  21.188  0.2841 -0.3206 -0.0625
25492W        W68483  22.070  14.631  27.043 -0.1846 -0.2651  0.1613
25493W        W68484  31.559   1.618  29.112  0.2344  0.1740  0.1617
25494W        W68485  23.906  19.586  19.184  0.1357 -0.0731  0.2049
25495W        W68486  15.524   4.529  27.053 -0.0967  0.1747  0.2596
25496W        W68487   9.284  30.101  18.800 -0.2100 -0.1299  0.1884
25497W        W68488   1.562  33.266  24.289 -0.2227 -0.1257 -0.0894
25498W        W68489  24.061  11.797  22.180 -0.0002  0.1992  0.2313
25499W        W68490  30.934  15.153  27.551  0.0840  0.3547 -0.3101
25500W        W68491  31.281  26.290  18.746 -0.1140  0.1629  0.2428
25501W        W68492  28.527  20.887  14.612 -0.1004 -0.0643  0.3214
25502W        W68493  29.296  27.587   7.798 -0.2178 -0.1865 -0.2400
25503W        W68494  28.087  25.608   1.359  0.0634  0.2907  0.0912
25504W        W68495   2.319  28.628  24.895 -0.0804  0.3084 -0.1719
25505W        W68496   9.045  25.303   2.684 -0.0055  0.1446 -0.1766
25506W        W68497   0.894  28.536  14.791  0.0533 -0.0007  0.2661
25507W        W68498  23.227   2.260   4.822 -0.2331 -0.1199  0.3859
25508W        W68499  30.582  34.127   2.723 -0.2971  0.1798 -0.0422
25509W        W68500  21.343  33.447   2.581  0.0478  0.0396 -0.0626
25510W        W68501  25.239  26.520  28.447 -0.1705 -0.0044  0.0300
25511W        W68502  20.018  11.824   0.559  0.0019  0.0530 -0.0707
25512W        W68503   7.330  14.923   1.120 -0.2088 -0.0904 -0.0359
25513W        W68504  20.520  32.561  25.076 -0.1432 -0.1536  0.1673
25514W        W68505  32.639  26.599  16.435 -0.0996 -0.0590 -0.0105
25515W        W68506  27.593  18.035   7.887  0.1539 -0.0131 -0.3585
25516W        W68507  28.431  12.169  25.457 -0.0453 -0.1800 -0.1431
25517W        W68508  25.491  19.389   5.360 -0.0313 -0.3053  0.2736
25518W        W68509  26.345  14.226  15.605  0.2527  0.1218  0.4189
25519W        W68510   1.084  13.914  18.269 -0.0721  0.0963  0.1414
25520W        W68511   0.687  13.078  25.165  0.0229  0.0657  0.1919
25521W        W68512  24.996  12.169  26.448  0.1011  0.0337 -0.4030
25522W        W68513  10.426  30.978   8.443  0.2338 -0.4400 -0.2509
25523W        W68514  20.407  23.620  17.312 -0.1509  0.0970 -0.1547
25524W        W68515   2.355  11.574  11.284  0.0652  0.0216  0.0379
25525W        W68516  29.982  18.705  22.748 -0.1059 -0.1808  0.1219
25526W        W68517  15.202   7.306   8.530 -0.0961 -0.0476  0.0432
25527W        W68518  10.808  26.468  19.764 -0.1680  0.2241 -0.2801
25528W        W68519  18.638  25.290  24.598 -0.0330 -0.2336 -0.0258
25529W        W68520  29.550  30.636  15.911 -0.2177 -0.0022 -0.0388
25530W        W68521  17.493  29.981   2.811  0.1710  0.1511 -0.1360
25531W        W68522  17.455  13.833  23.273  0.0066  0.1140 -0.1185
25532W        W68523  16.824  25.206   5.805 -0.0171 -0.0866 -0.2231
25533W        W68524  22.759  29.344  21.401 -0.0790  0.0501 -0.1153
25534W        W68525  18.659  25.245  18.622  0.0537  0.1069  0.1363
25535W        W68526  21.240  24.326  21.166 -0.1640 -0.2891  0.3278
25536W        W68527  18.919  10.182   1.411 -0.2384 -0.3184 -0.0187
25537W        W68528  33.335  29.152  15.382 -0.0085  0.0140 -0.2649
25538W        W68529  15.232  17.496  15.367  0.2928 -0.2574 -0.0174
25539W        W68530   1.092  11.088  18.420  0.2185 -0.0403  0.1742
25540W        W68531  25.432  23.292   7.955 -0.5903  0.1961  0.3070
25541W        W68532   4.957  20.156   3.729 -0.1684  0.2984 -0.0351
25542W        W68533  16.933  11.621  18.432  0.3024 -0.3014 -0.1549
25543W        W68534  34.333  32.915  27.721 -0.1053  0.2671 -0.1138
25544W        W68535  14.963  22.459  24.312  0.0069 -0.0936  0.0370
25545W        W68536  32.303  15.593  26.819  0.1864 -0.3201 -0.0625
25546W        W68537   2.482  32.815   5.890 -0.1375  0.0833 -0.0234
25547W        W68538  13.806  28.558   1.188 -0.0750 -0.3483 -0.0145
25548W        W68539  27.364  27.454  14.864  0.0738 -0.0548  0.3249
25549W        W68540  31.321  16.003  28.688 -0.1522  0.1149 -0.2795
25550W        W68541  20.173  15.654  28.328 -0.0552  0.1227  0.0219
25551W        W68542   2.586   8.858  24.755 -0.0675 -0.0960 -0.2271
25552W        W68543  34.190  31.487  28.813 -0.1349 -0.0052  0.1178
25553W        W68544  17.973  31.662   1.398  0.0730 -0.2489 -0.1889
25554W        W68545   7.622  24.497   0.622 -0.1355 -0.1773  0.2141
25555W        W68546  27.013  19.292  17.807 -0.0725  0.3716 -0.0686
25556W        W68547   4.467  34.283   0.863 -0.1882 -0.5687 -0.0814
25557W        W68548  34.200  16.155  29.093 -0.2081  0.1704 -0.1569
25558W        W68549   5.103   5.978  25.456 -0.2019 -0.1106 -0.1158
25559W        W68550  26.991  13.206   0.772  0.1208 -0.1533  0.0228
25560W        W68551   7.722  30.861  20.038  0.2405  0.2661 -0.4048
25561W        W68552  27.904  21.798  16.705 -0.2351  0.1103 -0.0730
25562W        W68553  32.204  18.053  23.270  0.1353  0.0265  0.0260
25563W        W68554  18.166  10.025   0.790 -0.3320 -0.2157 -0.1156
25564W        W68555  33.010   6.573  22.971  0.3120 -0.4533 -0.1695
25565W        W68556  22.032  18.177   4.199  0.0762 -0.0293 -0.2628
25566W        W68557  13.402   0.089  19.809 -0.1102  0.0967 -0.0686
25567W        W68558  21.299  10.696  16.389 -0.2566  0.0828 -0.0011
25568W        W68559  22.397   9.850  19.897  0.1301 -0.1039 -0.0132
25569W        W68560  17.428  18.188   2.218 -0.5877 -0.1390 -0.1743
25570W        W68561   4.664  23.468  15.779  0.2483 -0.1326  0.1093
25571W        W68562  14.374  17.561  23.905 -0.3285 -0.0028  0.2228
25572W        W68563   7.311  25.279  26.260 -0.1740 -0.1488  0.0799
25573W        W68564  27.838  16.442   6.156  0.1720  0.2853 -0.1022
25574W        W68565  15.496  17.912  28.248  0.0620 -0.0851  0.0770
25575W        W68566  16.090  20.650  20.326 -0.1680  0.2927 -0.0650
25576W        W68567  33.539  22.399   1.076  0.0461  0.2888 -0.0648
25577W        W68568  27.204   2.860  16.294  0.2641  0.2447 -0.1587
25578W        W68569  21.317   5.484  28.900 -0.5752 -0.1492  0.2423
25579W        W68570  33.767  20.990  28.762 -0.0348 -0.0905 -0.1556
25580W        W68571  12.571  22.611  24.261  0.0219  0.1276 -0.0981
25581W        W68572  30.616  18.921   5.881 -0.0215 -0.1424  0.3821
25582W        W68573  30.605  18.509  29.019  0.1999 -0.1027  0.0863
25583W        W68574  19.691  14.740   3.685  0.2367  0.0813  0.0409
25584W        W68575  18.130   3.942  10.089  0.1600  0.2517 -0.0416
25585W        W68576  21.352  13.159  18.169  0.0904  0.0476 -0.0494
25586W        W68577  10.106  26.357  10.194  0.2965  0.0214  0.0100
25587W        W68578   9.010  16.710  23.922  0.2743  0.0624 -0.1746
25588W        W68579  22.083   3.244  15.010 -0.2827 -0.0764 -0.0745
25589W        W68580  26.487  20.375  29.202  0.2292  0.0512 -0.1348
25590W        W68581  28.582   1.755  14.855 -0.2851 -0.1671 -0.3863
25591W        W68582  17.367  25.232   1.870  0.1122  0.1084  0.0053
25592W        W68583  27.786  22.260  20.536 -0.2869 -0.0515  0.1820
25593W        W68584  16.762  32.618  19.903  0.4253  0.2062  0.0714
25594W        W68585  26.651  15.575  15.418  0.1353 -0.0273 -0.0344
25595W        W68586   7.538  21.598   1.440  0.0312 -0.3541  0.1183
25596W        W68587  34.657  17.726  27.728  0.3609 -0.1007  0.1122
25597W        W68588  17.456  24.691  21.394 -0.0887  0.1020  0.1525
25598W        W68589  26.056  20.343  25.601 -0.0629 -0.0113  0.0851
25599W        W68590  33.396  16.397   9.908 -0.0197 -0.0161 -0.0876
25600W        W68591  32.936   9.522  15.114 -0.2672  0.1478 -0.1155
25601W        W68592  34.499  25.103   5.731  0.1971  0.2606  0.1640
25602W        W68593  19.175   3.500   3.133  0.0222  0.1102 -0.5429
25603W        W68594   2.674  19.102  15.725  0.0419 -0.0323 -0.2639
25604W        W68595  30.678  32.080  27.864  0.0463  0.1492  0.0636
25605W        W68596  16.031  34.438  25.209 -0.1987 -0.2244  0.3466
25606W        W68597  17.929   8.386  20.941 -0.1620 -0.0810 -0.1521
25607W        W68598  29.349  16.779   7.575 -0.2439 -0.1151 -0.4755
25608W        W68599  29.463  20.757   0.202  0.0094 -0.0555 -0.2002
25609W        W68600   3.216   2.069   0.393 -0.1657 -0.2040  0.2287
25610W        W68601   3.990  14.664  27.116 -0.2587 -0.2085  0.0077
25611W        W68602  21.413  19.041  20.940  0.0130  0.2300 -0.0225
25612W        W68603  22.886  19.538   2.359 -0.0966  0.0287  0.1583
25613W        W68604  24.706  20.038  19.262 -0.0923  0.0652 -0.0119
25614W        W68605  20.231  29.353  23.906 -0.1294  0.0598  0.1131
25615W        W68606  32.563  34.070  14.437 -0.3009 -0.0893 -0.0682
25616W        W68607   3.097  20.247   1.823  0.1450 -0.1403 -0.0103
25617W        W68608   4.131  19.174  24.997 -0.1085 -0.1567 -0.1619
25618W        W68609  30.833  16.647  19.200  0.3210  0.0129 -0.0263
25619W        W68610  32.691  15.156  16.179  0.1424  0.0734  0.1176
25620W        W68611  14.285  20.189   5.258  0.0770 -0.1666 -0.0607
25621W        W68612  23.642  29.294  20.286 -0.1471 -0.1132  0.2556
25622W        W68613  30.600  26.705   6.136 -0.0520  0.3383  0.0516
25623W        W68614   9.594  19.204  29.045 -0.0051  0.1497  0.0652
25624W        W68615  15.170  29.547   7.659  0.3753 -0.2424  0.0296
25625W        W68616  20.216  21.306  25.244 -0.0151 -0.2395 -0.2584
25626W        W68617  27.747  22.864   6.636  0.0272  0.1085 -0.0279
25627W        W68618  12.215  22.811   4.961  0.0057 -0.0121  0.1324
25628W        W68619  28.105  27.787  16.967  0.0669 -0.1505 -0.1599
25629W        W68620  16.799  23.397  21.487  0.1324 -0.1880  0.0460
25630W        W68621   5.182   3.216  24.052  0.4971  0.1821 -0.1410
25631W        W68622  26.297  26.602   9.081  0.1519 -0.2844 -0.0887
25632W        W68623   8.489  26.581  26.161 -0.2137 -0.0591 -0.0571
25633W        W68624  26.355  19.376   1.650 -0.0588 -0.1907  0.4904
25634W        W68625  11.479  26.670  19.128  0.0210 -0.3325  0.0649
25635W        W68626   7.915  16.044  25.635 -0.2332 -0.1202  0.1611
25636W        W68627   7.727   5.783   4.443 -0.5672 -0.2130  0.0646
25637W        W68628  26.741  31.512  17.208  0.1055 -0.0298 -0.2050
25638W        W68629  30.304  33.220  25.396 -0.1854  0.2628  0.0245
25639W        W68630  31.802   2.472   2.042  0.2208  0.0930 -0.1474
25640W        W68631  32.648  25.964   8.232 -0.0500 -0.0458 -0.1319
25641W        W68632  26.860  10.107   4.531  0.1736  0.1127 -0.2334
25642W        W68633  29.538  34.117  13.314  0.0514 -0.0699 -0.0439
25643W        W68634  26.090  30.994  13.848  0.1151 -0.0304  0.0644
25644W        W68635  13.862   3.507  28.147 -0.0914 -0.1570  0.1020
25645W        W68636  13.818  21.571  26.824  0.2110  0.2119  0.2834
25646W        W68637  27.935  26.913   6.199  0.1876 -0.0129 -0.0273
25647W        W68638   6.854   7.292  17.472  0.0385  0.1209 -0.0065
25648W        W68639  12.700  10.552   3.237 -0.0980  0.1824 -0.1057
25649W        W68640  28.820  23.684  28.347  0.1674  0.4608 -0.0726
25650W        W68641  20.290  14.963  17.287  0.1551 -0.3649  0.0887
25651W        W68642  23.743  21.710   8.920  0.4264  0.0218 -0.0668
25652W        W68643   2.733  27.763   8.138  0.2064  0.0199  0.2076
25653W        W68644  32.546  18.777   8.991  0.1365 -0.0238  0.0587
25654W        W68645  18.454  28.324  20.301  0.0888  0.1401  0.3501
25655W        W68646  26.242  28.227  28.758 -0.0775 -0.1396  0.0881
25656W        W68647  22.274  24.255  28.986  0.3551  0.1428 -0.1800
25657W        W68648  28.181  19.522   5.094 -0.0078 -0.1657 -0.0743
25658W        W68649  18.865  23.315  23.870 -0.0930  0.2321 -0.1001
25659W        W68650  26.519  32.471   4.171 -0.1907  0.1493  0.0398
25660W        W68651  30.288  28.471   8.197  0.3683  0.0510 -0.1818
25661W        W68652  20.244  28.372   7.405  0.1284  0.0528 -0.1304
25662W        W68653  31.495  29.448  20.605  0.0258 -0.2593 -0.1638
25663W        W68654  23.472  29.111  15.936  0.3504 -0.1024  0.1953
25664W        W68655  34.630   7.475   1.360  0.0303  0.0517  0.2459
25665W        W68656  23.133   0.289  18.925 -0.1502 -0.0556 -0.0360
25666W        W68657   0.138  10.205  17.363 -0.1714 -0.3047 -0.3786
25667W        W68658  32.471  19.519  25.216 -0.2639 -0.2847  0.3081
25668W        W68659   0.960   2.509   8.699 -0.1638  0.2765  0.1886
25669W        W68660  25.286  12.542   7.497  0.3524 -0.0766  0.0237
25670W        W68661  30.469  24.348  22.324 -0.2065  0.1180  0.0562
25671W        W68662  30.491  27.336   3.178 -0.0094 -0.1700  0.1449
25672W        W68663  22.659  19.949   1.244 -0.0172 -0.2038  0.0647
25673W        W68664  17.479   2.360   6.061  0.1653 -0.0127 -0.0285
25674W        W68665   3.404  15.291   2.063  0.4266 -0.0463  0.2025
25675W        W68666  34.306  10.986  27.640 -0.1485  0.0451  0.1410
25676W        W68667  33.319  19.256  20.455  0.2261  0.0732  0.1031
25677W        W68668   5.962  18.961   4.095  0.0815  0.0739  0.2051
25678W        W68669  21.279  29.548   2.126 -0.2150 -0.1364 -0.0347
25679W        W68670  32.954  14.827   2.598 -0.0449 -0.0785  0.1991
25680W        W68671  22.336  22.458  27.355  0.1536 -0.1372  0.0081
25681W        W68672  31.578  30.434   5.696  0.1107 -0.1392 -0.1242
25682W        W68673  22.226  23.824  24.203  0.0762 -0.4264  0.3888
25683W        W68674  21.084  21.833  18.955  0.1499  0.2920  0.3977
25684W        W68675  27.739  25.162  18.732 -0.0579 -0.0470  0.2086
25685W        W68676  33.863  10.842  15.946  0.1718  0.2353 -0.0477
25686W        W68677   6.923  25.380   0.831  0.1879  0.0218  0.1314
25687W        W68678  17.372   9.972   3.420 -0.2091  0.1912 -0.3686
25688W        W68679  26.910  13.363   3.570 -0.1261  0.0508 -0.1407
25689W        W68680  18.367   8.947   9.186  0.0577  0.0005  0.0073
25690W        W68681  30.178   2.282  22.151 -0.0966  0.1265 -0.0456
25691W        W68682   4.053  15.846   6.431  0.4725 -0.1657 -0.0087
25692W        W68683  17.852  24.773  21.695  0.2185  0.1162 -0.1530
25693W        W68684  24.622  13.756   3.230  0.2151  0.1762 -0.2290
25694W        W68685  29.739   6.906   5.479 -0.1979  0.2307 -0.0881
25695W        W68686  22.036  14.639  18.842  0.0087  0.0117  0.1374
25696W        W68687  32.923  10.277   5.581  0.4619  0.0610  0.1980
25697W        W68688  18.837   7.200  28.973  0.0059  0.1131  0.2857
25698W        W68689   4.108   4.182   4.107  0.2052 -0.0711 -0.1895
25699W        W68690  22.419  23.668   5.692  0.0166 -0.0234  0.0034
25700W        W68691  16.893   9.412  18.182 -0.0736 -0.2774 -0.0408
25701W        W68692  17.154  15.252  24.479  0.0278  0.0688  0.1611
25702W        W68693  33.878  33.608  27.255 -0.2112 -0.1173 -0.3819
25703W        W68694  18.090   8.330   0.209 -0.1202 -0.3583  0.4377
25704W        W68695   4.872  23.391   2.806  0.1230 -0.1084 -0.0455
25705W        W68696  32.833  33.771  21.815 -0.2546  0.0044  0.1543
25706W        W68697  18.184   6.222   4.576  0.2580  0.0744  0.3755
25707W        W68698  16.436   0.819  28.115 -0.0514 -0.0675  0.1913
25708W        W68699  16.799  24.077  28.769  0.0356 -0.0288  0.0442
25709W        W68700  23.173   6.051   3.851 -0.0395  0.0769 -0.0449
25710W        W68701  19.111  16.133   5.023  0.0673 -0.0523 -0.0088
25711W        W68702   2.677   9.684  11.327  0.1589  0.0834  0.2183
25712W        W68703   4.197  11.476   7.556 -0.2029  0.4564  0.0351
25713W        W68704   0.720  18.838   1.118 -0.2414 -0.2637 -0.0574
25714W        W68705  11.766  17.233  15.131 -0.1975 -0.0484 -0.1299
25715W        W68706   3.713  19.338   9.392  0.0012  0.2114 -0.0554
25716W        W68707  27.477  17.698  19.826 -0.0536  0.1808  0.0835
25717W        W68708  24.657  20.193  18.195  0.1171 -0.2096 -0.1598
25718W        W68709  31.056  30.107  26.508 -0.1793  0.1014  0.0794
25719W        W68710   7.242  28.015  24.820 -0.2306 -0.2408  0.1374
25720W        W68711   5.118   4.021   1.998  0.3416  0.1387 -0.0595
25721W        W68712  23.469  25.268  25.049 -0.0556 -0.0817 -0.1581
25722W        W68713  32.406  22.753   7.296  0.0745  0.0758  0.2513
25723W        W68714  28.447  10.454  19.885  0.0334 -0.1679  0.1606
25724W        W68715  26.701  25.566  23.533 -0.1178 -0.3504 -0.2182
25725W        W68716  15.318   0.503  17.057 -0.1879 -0.0714  0.0283
25726W        W68717   5.397  34.686   9.801 -0.1244 -0.1271  0.2015
25727W        W68718  24.929   5.424  13.985 -0.0407 -0.1412 -0.0995
25728W        W68719   3.999  21.924  20.114 -0.1628  0.1021 -0.1795
25729W        W68720  20.958  30.310  28.194  0.3404  0.1931 -0.2232
25730W        W68721   9.353  21.899  20.994  0.0668 -0.0193 -0.0942
25731W        W68722  30.921  20.650   6.740  0.2227  0.2604  0.1769
25732W        W68723  24.844  11.793   7.491  0.2531  0.1175 -0.1779
25733W        W68724  26.463  21.010   8.395 -0.4038 -0.0814 -0.3651
25734W        W68725  13.248  26.681  25.521  0.0130  0.0449 -0.1146
25735W        W68726  25.982  17.242  27.422  0.0532 -0.0955  0.1026
25736W        W68727   0.362  32.682   2.856 -0.0301  0.1712  0.4718
25737W        W68728  29.814   0.701  23.325 -0.0405 -0.3351  0.0739
25738W        W68729  25.376  18.197  17.363  0.0879  0.1280 -0.0777
25739W        W68730  32.318  16.148  16.332 -0.1365 -0.2653  0.0511
25740W        W68731   9.524  12.851  17.293 -0.1730  0.1305  0.1276
25741W        W68732  22.505   3.271   6.628  0.1439  0.2405 -0.0919
25742W        W68733  21.838  32.702  28.123  0.0348  0.0418 -0.0378
25743W        W68734  34.244  12.217  17.075 -0.0708 -0.2953 -0.2318
25744W        W68735  31.481   9.516  24.018 -0.1155  0.0505  0.0160
25745W        W68736   0.760  24.314  28.921  0.1308 -0.1680 -0.0211
25746W        W68737  28.580  29.620  13.205  0.0258  0.2459 -0.0086
25747W        W68738  22.618  15.317   3.450 -0.2277 -0.3839  0.1210
25748W        W68739   2.239  12.724   6.889  0.2461  0.1258  0.1595
25749W        W68740  15.931  30.845   4.895  0.0111 -0.1897  0.1485
25750W        W68741   9.855  34.162  19.222  0.2655  0.3513 -0.4784
25751W        W68742  28.931  18.240   3.635 -0.1569  0.4675  0.0377
25752W        W68743   3.246  31.953  29.052 -0.1794 -0.0398 -0.1731
25753W        W68744   1.766  16.510  19.036  0.2327 -0.2373 -0.0955
25754W        W68745  11.895  10.939  19.124 -0.1607 -0.2156 -0.1035
25755W        W68746  11.502  31.606  27.894  0.1764 -0.1386 -0.0496
25756W        W68747   4.637  13.285  16.495 -0.0010  0.1705  0.0687
25757W        W68748  26.773  33.394   1.025 -0.1578 -0.0995  0.0497
25758W        W68749  30.715  26.408  28.957  0.0954  0.2663 -0.0254
25759W        W68750  33.512  27.782  25.777  0.1005 -0.2574 -0.0827
25760W        W68751  16.134   1.642  17.380  0.0771  0.1036  0.3248
25761W        W68752   3.777  32.747  24.148  0.1038 -0.1913 -0.1416
25762W        W68753  33.498  22.190  26.742  0.4128 -0.2172 -0.2176
25763W        W68754  27.731  14.495   1.965 -0.2685 -0.1578 -0.1592
25764W        W68755  17.780  32.691  24.306 -0.0175 -0.2155 -0.0695
25765W        W68756  27.695  10.708  16.213  0.1576  0.0578  0.1257
25766W        W68757   1.983  24.669  24.955  0.0132 -0.0440 -0.0216
25767W        W68758  10.117  20.995   0.074  0.3796  0.1364 -0.0129
25768W        W68759  34.544  25.244   0.819  0.1798 -0.1879 -0.4285
25769W        W68760  28.363  29.139  27.262  0.2465  0.1585  0.2990
25770W        W68761  29.975  22.661   2.867  0.2702  0.0472 -0.2323
25771W        W68762   0.253  18.767  27.541  0.2778  0.1026 -0.4015
25772W        W68763   7.351  12.249  16.520 -0.0667 -0.1081 -0.2702
25773W        W68764  11.517  31.090   2.020  0.1229  0.0304  0.4330
25774W        W68765  21.817  21.396  13.175 -0.1280  0.2464  0.0273
25775W        W68766  14.924  19.967   8.069 -0.1891  0.1137 -0.0612
25776W        W68767  30.272   9.818  17.130  0.2344 -0.2186 -0.0653
25777W        W68768  18.787  31.711   6.238 -0.1115 -0.0743 -0.3413
25778W        W68769  27.936   8.997   9.349  0.0473  0.2128 -0.1290
25779W        W68770   0.135  29.089   5.076 -0.2218  0.1876  0.3266
25780W        W68771  17.918  26.741   7.587 -0.0811 -0.1766 -0.1321
25781W        W68772  27.009  25.373   8.805  0.1669 -0.1330 -0.1363
25782W        W68773  18.995  24.342   8.932  0.4750  0.0637 -0.1663
25783W        W68774  29.838  20.341   0.138 -0.2202  0.1662 -0.2794
25784W        W68775   4.113  33.297  15.292 -0.0465  0.1183  0.1939
25785W        W68776  27.270  31.547   3.741  0.0363  0.0499  0.1697
25786W        W68777  11.579  24.326  21.499 -0.1214  0.2586 -0.0893
25787W        W68778  25.845  16.408  22.222 -0.0274 -0.0551  0.3331
25788W        W68779  27.502  18.072  26.875 -0.0317  0.0533 -0.0218
25789W        W68780  30.402  32.643  22.263  0.0189 -0.0663  0.0853
25790W        W68781  20.172   9.692   7.255  0.3118  0.2330 -0.1849
25791W        W68782   2.101  20.825  24.059  0.1291  0.0878 -0.0996
25792W        W68783  32.639  12.300  18.026  0.1099 -0.0136  0.0893
25793W        W68784  31.643  20.461  24.078 -0.1404  0.0335 -0.1029
25794W        W68785  18.921  20.839  27.248 -0.0164  0.1336 -0.2521
25795W        W68786  30.602  34.383  23.113  0.0119  0.1004 -0.0917
25796W        W68787  24.417   6.001  13.488 -0.2436  0.0922 -0.2832
25797W        W68788  14.539  34.613  17.906 -0.1028  0.1676  0.2418
25798W        W68789  31.039   7.615  20.021 -0.3926  0.1356 -0.0035
25799W        W68790   0.468  25.192  27.244  0.0066 -0.0203  0.2602
25800W        W68791  21.511  21.598   4.492 -0.0009 -0.1467 -0.2705
25801W        W68792  20.065  18.976   7.808 -0.1320 -0.0267 -0.1614
25802W        W68793  29.869  13.138  28.549 -0.1727 -0.1004  0.0290
25803W        W68794   2.687   3.762  28.570 -0.1465  0.1891  0.0022
25804W        W68795   6.141  18.876  21.476 -0.0431 -0.2088 -0.0127
25805W        W68796  25.019  27.346   0.335  0.3473 -0.2805  0.3210
25806W        W68797  17.676  10.342  10.040  0.2482 -0.0675 -0.2267
25807W        W68798  31.523  26.297   1.244  0.2436 -0.0003 -0.0235
25808W        W68799   1.335  12.619  28.903  0.0277  0.1838 -0.0467
25809W        W68800   9.863  12.119  10.657  0.2781  0.0945  0.3192
25810W        W68801  34.525  22.155   8.137  0.1376 -0.1032  0.0861
25811W        W68802  29.488  22.301   8.781 -0.1266  0.4233 -0.0805
25812W        W68803  13.733  27.383   2.783  0.1586  0.2796  0.2594
25813W        W68804  28.756  33.428  24.350  0.1106  0.1795 -0.1173
25814W        W68805  31.384  32.796   1.457  0.0529 -0.0563 -0.2149
25815W        W68806  21.822  19.514  19.864  0.4151 -0.2013  0.1341
25816W        W68807  26.913  29.286   8.318  0.4324  0.1442 -0.0224
25817W        W68808  25.126  18.680   2.202  0.1709 -0.1049  0.0062
25818W        W68809  26.792  23.537  21.482 -0.0333  0.0293  0.0070
25819W        W68810   1.036  31.173  22.422  0.1108 -0.0027  0.1761
25820W        W68811   0.975  28.131  14.493 -0.1706  0.1571  0.1909
25821W        W68812   9.858  14.185   1.941  0.0651  0.3525 -0.1064
25822W        W68813   7.349  28.115  20.629 -0.1218  0.1395 -0.4663
25823W        W68814  21.792  20.668  27.743 -0.0905  0.3315 -0.2534
25824W        W68815   3.831  13.172   5.934  0.1465 -0.0841  0.1727
25825W        W68816  29.481   1.392   6.411 -0.0713  0.1399 -0.0543
25826W        W68817  19.036   0.014   6.344 -0.0657 -0.1154 -0.1151
25827W        W68818  29.967  13.352  17.130 -0.0357  0.0543 -0.0750
25828W        W68819   4.620   7.545  21.698 -0.1952  0.1255 -0.0796
25829W        W68820  29.994   7.365   1.035  0.0341 -0.0676  0.0630
25830W        W68821  25.096  17.739  28.269 -0.3323  0.1129 -0.0330
25831W        W68822  18.913  32.195   1.300 -0.0740 -0.1220 -0.1837
25832W        W68823  30.906   5.240  20.119  0.0028 -0.0970  0.1552
25833W        W68824  32.312  26.995  24.273  0.0573  0.2332 -0.2133
25834W        W68825  27.246   3.666  24.311  0.0063 -0.2645  0.1148
25835W        W68826   4.467  25.950  10.547  0.1775  0.2606  0.2949
25836W        W68827  21.347  31.589  13.198  0.2637 -0.0971 -0.1583
25837W        W68828  17.391   0.092  20.908  0.0648 -0.0546  0.1611
25838W        W68829   2.015   2.987  14.206  0.1481 -0.2584  0.2093
25839W        W68830  23.881  31.067   2.165  0.0165 -0.0743  0.2027
25840W        W68831  30.930  28.977   5.890  0.5063 -0.2430  0.1844
25841W        W68832  31.241  30.957  25.992  0.0387  0.0657  0.1459
25842W        W68833  17.251   6.731  22.063  0.2943 -0.0060 -0.1085
25843W        W68834  19.611  12.567   2.905 -0.3425  0.0475 -0.0808
25844W        W68835   6.977   6.329   5.146 -0.0125 -0.1105  0.0493
25845W        W68836  29.113   1.744  27.688  0.0276  0.1224 -0.1127
25846W        W68837  25.876  34.694   3.549  0.2182  0.0638  0.1149
25847W        W68838  14.946   4.878   4.535  0.2961  0.3119 -0.1394
25848W        W68839  29.094  27.930   2.753  0.1255 -0.0893  0.1019
25849W        W68840   3.288  15.042   1.538 -0.0581  0.1013  0.1655
25850W        W68841  31.845  25.401   1.485 -0.1174  0.0327 -0.1907
25851W        W68842  33.801  28.492  25.708  0.0408  0.0495  0.0886
25852W        W68843   2.492  28.568  24.460 -0.5024 -0.2584 -0.0459
25853W        W68844   2.349   6.684   3.650  0.1492 -0.0136  0.1925
25854W        W68845  23.690  27.008  21.376  0.1830  0.0141 -0.0742
25855W        W68846  17.469  22.163  14.387 -0.3434  0.2671 -0.2933
25856W        W68847   6.875  26.311   5.188 -0.0016 -0.1794 -0.0831
25857W        W68848   7.950  28.473   7.821 -0.0294 -0.3317  0.0846
25858W        W68849  20.210  28.784   9.797  0.2192 -0.1334 -0.0507
25859W        W68850   8.292  28.746  18.801 -0.3261  0.3823 -0.0796
25860W        W68851  21.980  24.138  18.575  0.0009 -0.0953  0.1323
25861W        W68852  33.157  28.260   3.408 -0.1355  0.5321  0.0892
25862W        W68853   5.842  17.216  11.108 -0.3484 -0.0760 -0.0346
25863W        W68854  27.296  33.531  20.471 -0.3421 -0.0452  0.1928
25864W        W68855  31.996   6.011  27.756 -0.1339  0.0471  0.1362
25865W        W68856  29.684  29.692   7.225  0.1236  0.3416 -0.0062
25866W        W68857  22.727  20.244  28.847 -0.1914 -0.0529  0.0733
25867W        W68858  18.887  16.316   2.330 -0.4118  0.1722 -0.2397
25868W        W68859  10.783  21.354  19.108 -0.2614 -0.0057 -0.3795
25869W        W68860  30.925  19.732   8.300  0.1492 -0.1975 -0.3794
25870W        W68861  20.812  21.736  27.177  0.0498  0.0132  0.2409
25871W        W68862  27.750   8.469  18.679 -0.0243 -0.2263  0.1346
25872W        W68863   0.353  11.252  19.657 -0.0587 -0.0705 -0.0943
25873W        W68864  19.875  32.527  28.431  0.0682  0.0558  0.0357
25874W        W68865  24.250  11.463  16.719 -0.2258 -0.0847 -0.0281
25875W        W68866   6.814  11.694   8.199 -0.3992  0.0924 -0.2133
25876W        W68867  27.634  24.837  18.304  0.2653  0.1209 -0.1172
25877W        W68868  19.515  32.670   1.439 -0.0423  0.1323 -0.0982
25878W        W68869  30.122   5.052   8.327 -0.3788 -0.0631  0.3326
25879W        W68870  31.199  27.143   1.931 -0.1336 -0.4148 -0.2750
25880W        W68871   0.250  25.872  21.270  0.2344 -0.0067  0.1625
25881W        W68872  30.793  14.111  26.530  0.1385 -0.1471 -0.0722
25882W        W68873  22.210  18.456   0.955  0.2360  0.1141  0.0838
25883W        W68874  10.302  21.579  20.013  0.1059  0.1607  0.0379
25884W        W68875  18.532  24.237  26.178 -0.3677  0.3144  0.0023
25885W        W68876  16.587  32.878   3.203  0.0556  0.1217  0.1026
25886W        W68877  31.863  24.247   6.413 -0.1476 -0.0599 -0.1704
25887W        W68878  22.911  31.962  28.075 -0.2977  0.2256  0.2323
25888W        W68879  17.070  24.816   1.040  0.1840 -0.0773 -0.0156
25889W        W68880  25.783  19.760  24.818  0.3915 -0.5074 -0.1175
25890W        W68881   1.158  22.824  21.517 -0.0029 -0.0178  0.2665
25891W        W68882  27.481  13.088   2.894  0.0597  0.2508  0.0466
25892W        W68883  23.851  21.725   9.414  0.0604  0.1391 -0.0306
25893W        W68884   7.968  20.009   2.523 -0.1613  0.2136 -0.0001
25894W        W68885   3.965  24.158  28.654  0.0134 -0.0875 -0.3116
25895W        W68886  21.034   0.872  17.772  0.1896 -0.0603  0.0487
25896W        W68887  27.108  22.035  22.130  0.1501  0.0685 -0.1066
25897W        W68888   3.822  31.048   9.029  0.1862 -0.3421  0.1161
25898W        W68889   0.781  32.417  21.456 -0.4556  0.4095 -0.0838
25899W        W68890   0.887  26.549   3.131  0.1835  0.3049  0.0671
25900W        W68891  34.419  33.539   1.043  0.0801  0.3971 -0.3548
25901W        W68892   0.980  18.345   9.006 -0.1833  0.0477  0.2067
25902W        W68893  32.247  25.517   2.170 -0.1532  0.0050 -0.2665
25903W        W68894  31.765  10.125   7.034 -0.0750  0.1285 -0.1481
25904W        W68895   6.062  21.631  24.831  0.0192  0.0035  0.0014
25905W        W68896  31.939  32.594   6.361 -0.1326  0.0126  0.2510
25906W        W68897  23.847   6.027  18.624  0.1020 -0.1447 -0.1611
25907W        W68898  31.113  31.562  23.880 -0.0970  0.2555 -0.4056
25908W        W68899  15.786  11.786   4.547 -0.1327  0.0860 -0.4947
25909W        W68900  27.697  22.952   6.115  0.0533  0.2557  0.0551
25910W        W68901   4.731  34.724   1.000  0.0631 -0.1366 -0.2784
25911W        W68902   2.682  34.525  17.093 -0.1708  0.0299  0.3266
25912W        W68903  24.722  26.016  23.233  0.2625 -0.2941  0.2184
25913W        W68904  29.076  27.784  26.366  0.0979  0.0386  0.0320
25914W        W68905  10.736  30.628  17.941 -0.1502 -0.2124 -0.1314
25915W        W68906  34.619   2.803   0.753  0.1362  0.2010 -0.2634
25916W        W68907  21.106  26.386   3.788 -0.0433  0.0917  0.3095
25917W        W68908  24.994  22.171  16.244 -0.1587 -0.0262 -0.0115
25918W        W68909   6.137  28.693   9.102  0.3458  0.0966 -0.0874
25919W        W68910  34.627  21.072  26.339 -0.3824 -0.0265  0.0050
25920W        W68911  19.417  25.045   1.099 -0.0071  0.0932  0.0906
25921W        W68912  32.174  24.230  17.343  0.0716  0.0405 -0.0661
25922W        W68913   3.311  33.470  24.380  0.4506  0.0607 -0.0288
25923W        W68914  13.085  22.205  24.426 -0.1413 -0.1058  0.0376
25924W        W68915   4.290   8.023   0.942 -0.0383 -0.0358 -0.1181
25925W        W68916  22.673   4.127  15.594 -0.0600 -0.1440  0.0134
25926W        W68917   7.994  30.961  26.291  0.1504 -0.4114 -0.0157
25927W        W68918  29.633  13.185   2.570 -0.1950  0.0988  0.0829
25928W        W68919   4.762  13.431   8.920  0.2278  0.0654  0.1330
25929W        W68920  20.980  31.772   2.239  0.1005  0.2105 -0.1356
25930W        W68921   0.786  16.863   0.101 -0.3013 -0.2787 -0.4178
25931W        W68922  29.623  26.167  19.040 -0.1562  0.0402  0.0903
25932W        W68923   5.786  22.049   6.957  0.0386 -0.0366 -0.0075
25933W        W68924  33.639  22.665  19.494 -0.3116 -0.3385  0.1333
25934W        W68925  24.330   6.492  27.766  0.1044 -0.1061  0.0070
25935W        W68926  18.157  13.496   8.923 -0.2637 -0.1191  0.0655
25936W        W68927  23.891  21.477  16.946  0.0354  0.3966 -0.2527
25937W        W68928   0.428   3.932  26.451 -0.0072 -0.0533 -0.1272
25938W        W68929  30.024  30.760  19.798  0.0266 -0.0003 -0.1020
25939W        W68930   0.591  33.293   1.414  0.1348  0.1026 -0.0193
25940W        W68931  16.519   3.122   1.751 -0.3193 -0.0746 -0.1709
25941W        W68932   1.227  29.260   3.088  0.1394  0.0175 -0.0420
25942W        W68933   2.598  32.207  21.533 -0.0204 -0.1761 -0.2365
25943W        W68934  15.638  20.762   9.820 -0.1045  0.3335 -0.2070
25944W        W68935   7.929  18.360  27.841 -0.1911 -0.0001 -0.0772
25945W        W68936   6.573  16.986   9.625  0.0572  0.0826 -0.2881
25946W        W68937  33.454  30.838   2.754 -0.1589 -0.0271  0.0505
25947W        W68938  10.937  23.765   9.219  0.2076  0.1257  0.1006
25948W        W68939  27.528  20.779   3.180 -0.3106  0.0898 -0.2648
25949W        W68940  17.317  14.715  14.878 -0.0256 -0.0153  0.0051
25950W        W68941  16.574  20.334  22.887 -0.1821  0.0407  0.2355
25951W        W68942  20.563  23.457  15.014 -0.0775  0.2213  0.2770
25952W        W68943  30.522  34.330  27.950  0.3870 -0.1784  0.2006
25953W        W68944   4.256  26.103   6.968 -0.0072  0.1250 -0.2459
25954W        W68945  25.652  24.390   7.306 -0.1290 -0.0118  0.1854
25955W        W68946  30.602  30.787   8.172 -0.1561 -0.1185 -0.2359
25956W        W68947  31.614  12.534  25.792  0.4922  0.2557  0.0547
25957W        W68948  17.777  14.490  21.829 -0.0151  0.0856  0.1660
25958W        W68949  29.538  18.467   6.668  0.2863 -0.0642 -0.0605
25959W        W68950   3.289  22.999   5.180  0.4240 -0.0283  0.0738
25960W        W68951   8.651  33.258   6.115 -0.2056 -0.1089  0.2475
25961W        W68952  29.687  14.040   5.791 -0.0191 -0.2025 -0.0769
25962W        W68953  27.951   8.781   4.838  0.1930 -0.1170 -0.0747
25963W        W68954  24.303  28.650  18.735 -0.0086  0.3853  0.1881
25964W        W68955   5.972  20.235  20.016  0.0295 -0.3389  0.0634
25965W        W68956  19.666  33.774  15.415  0.2052 -0.0306 -0.2109
25966W        W68957  21.784  14.237  20.184  0.2655  0.4967  0.1312
25967W        W68958  18.414  21.186  23.522 -0.0231  0.1308  0.2794
25968W        W68959   0.588  27.256   6.444 -0.0370  0.0739  0.1297
25969W        W68960   7.964   7.117  27.468  0.1255  0.2186  0.4310
25970W        W68961  26.814  32.458   7.286  0.0648 -0.0346 -0.1119
25971W        W68962  29.367  10.822   5.643  0.4005  0.1435  0.1699
25972W        W68963  32.512  17.306   4.599  0.0251  0.1862 -0.0484
25973W        W68964  15.165  20.640  14.819  0.2824  0.0527 -0.1072
25974W        W68965   8.884  13.177  27.051 -0.2115 -0.1811 -0.2188
25975W        W68966  24.873  32.841   8.297 -0.1730  0.1214  0.2809
25976W        W68967   2.450   7.270   0.104 -0.1229  0.0823  0.2060
25977W        W68968  32.720  19.109  28.658 -0.2662 -0.2193 -0.0103
25978W        W68969  29.273  22.806  14.398 -0.1522  0.0912 -0.2664
25979W        W68970  14.405  18.400   0.013 -0.4224 -0.1365  0.2578
25980W        W68971  22.645  31.602  26.912 -0.1544  0.0534 -0.0605
25981W        W68972  32.348  14.395   8.024 -0.0468 -0.1295 -0.2303
25982W        W68973   4.379  24.569  28.202  0.1398  0.1308 -0.1151
25983W        W68974  24.759  12.771  23.877  0.4531 -0.1934  0.0121
25984W        W68975  12.614  10.863  10.852 -0.3851  0.2227 -0.2303
25985W        W68976  10.048   4.855   0.281 -0.2065 -0.0711  0.0849
25986W        W68977   7.215  32.835   9.155 -0.0027 -0.2278 -0.2043
25987W        W68978  28.671  16.628  27.674  0.2061  0.2535  0.0101
25988W        W68979  23.827  28.421  21.602  0.1502  0.1627  0.0796
25989W        W68980  13.005  10.812  14.496  0.0468  0.2310 -0.0179
25990W        W68981  24.186  30.448  16.136 -0.1536  0.1624 -0.1165
25991W        W68982  17.129  25.700  15.329  0.0586 -0.4432 -0.0184
25992W        W68983   7.695   2.026  14.992 -0.0863  0.0462  0.1781
25993W        W68984  27.875  31.612  16.481  0.0197  0.0968  0.0695
25994W        W68985  15.858  22.816  16.474  0.1388  0.1056  0.0908
25995W        W68986  30.554  22.036  25.871  0.1891 -0.0164 -0.0831
25996W        W68987   2.856  30.763  17.587 -0.0328  0.4244  0.0526
25997W        W68988  34.215  28.035  19.967  0.0078 -0.6310  0.1379
25998W        W68989  25.940  24.398   6.385 -0.1126 -0.0479 -0.1044
25999W        W68990  20.299  29.996  24.552 -0.0684  0.4153 -0.0786
26000W        W68991  20.630  30.512  13.763 -0.1325 -0.1593 -0.2149
26001W        W68992  22.537  10.261  19.229 -0.1161  0.0803 -0.0394
26002W        W68993  27.335   0.716  17.662 -0.0333  0.4059  0.1738
26003W        W68994  28.313  33.256  14.493 -0.2431 -0.0444 -0.3292
26004W        W68995  24.258  21.925  19.667 -0.1727  0.0444  0.1960
26005W        W68996  26.890  32.892  19.776 -0.2572  0.0043  0.1675
26006W        W68997  16.157  28.790  15.578  0.0637  0.0501  0.0854
26007W        W68998  26.607  33.721  21.085  0.2739  0.0906 -0.2805
26008W        W68999  18.710   0.160  15.109  0.0425  0.2841 -0.2220
26009W        W69000  29.362  23.832  15.653  0.1697 -0.1937 -0.0997
26010W        W69001  18.599  22.386  13.130  0.0630 -0.4862 -0.2498
26011W        W69002  31.907   1.650  28.230 -0.1275 -0.2722  0.0713
26012W        W69003  32.499  33.125   5.485  0.1274 -0.1556  0.0925
26013W        W69004  23.108  13.851  16.352 -0.3124  0.4515  0.2241
26014W        W69005   8.056   0.944  25.991 -0.0547 -0.1660  0.0255
26015W        W69006  28.423  13.998  25.266  0.1012  0.1611  0.3350
26016W        W69007  27.977   0.183  26.637 -0.2336 -0.0478 -0.5524
26017W        W69008  31.273  25.054  15.723 -0.2659 -0.2002 -0.2918
26018W        W69009   8.673   4.669  16.007 -0.3801  0.0053 -0.3207
26019W        W69010  25.316  33.588  28.278 -0.2390 -0.1581 -0.2592
26020W        W69011  23.316  31.123  16.769  0.0141  0.0254 -0.1980
26021W        W69012  27.725   0.524  12.401  0.1209  0.2449  0.0797
26022W        W69013   5.618   0.239  16.458  0.3489 -0.2954  0.0426
26023W        W69014  15.939   0.643  16.687  0.0144  0.1554  0.1368
26024W        W69015  27.916  24.998  26.181  0.0225 -0.0854 -0.0835
26025W        W69016   6.436   6.256  14.728  0.0808 -0.0566  0.3842
26026W        W69017  24.297  21.848  13.883  0.1127  0.0736 -0.0417
26027W        W69018  15.775  21.827  15.286  0.0322  0.0943  0.0106
26028W        W69019  16.229   5.454  17.730 -0.1098  0.4480  0.3026
26029W        W69020  16.210  34.548  17.388 -0.0040 -0.0771  0.1044
26030W        W69021  31.941  26.364  21.377  0.2277 -0.1496  0.2153
26031W        W69022   7.442  14.318  20.606  0.2964  0.3613 -0.0655
26032W        W69023  31.774   3.181  14.112  0.1731  0.0291 -0.0675
26033W        W69024  26.628  14.292  27.746 -0.0221  0.1254 -0.0044
26034W        W69025  15.068  33.137  20.945  0.1923 -0.1269  0.0449
26035W        W69026   4.419  29.945  14.560  0.0880  0.1219 -0.3195
26036W        W69027  27.146  26.651  16.811  0.2575 -0.1390 -0.1624
26037W        W69028  23.184  28.871  16.338  0.2802 -0.1388 -0.0880
26038W        W69029  25.301  13.187   4.237  0.3726 -0.0874 -0.0657
26039W        W69030  16.353   2.764  22.706  0.1605 -0.0623 -0.1195
26040W        W69031  31.707  23.725  18.503  0.3043 -0.0149 -0.1002
26041W        W69032  25.966  33.129  13.738  0.1422 -0.1687 -0.1615
26042W        W69033  30.094  30.310  28.874 -0.0557  0.0392 -0.1270
26043W        W69034  11.534  33.041  22.111  0.0465 -0.1032 -0.2148
26044W        W69035  23.897   5.372  16.036 -0.2780 -0.1696 -0.0172
26045W        W69036   1.469  33.686  16.963 -0.2709 -0.2868  0.5106
26046W        W69037  23.292  22.677  28.080 -0.0461  0.0461 -0.1346
26047W        W69038  18.037  16.335  28.233 -0.1762  0.0369 -0.2238
26048W        W69039  26.354   8.169  21.744 -0.1913 -0.0375 -0.1951
26049W        W69040  34.006  18.115  17.831  0.4667 -0.0176  0.1661
26050W        W69041  12.370  28.402  24.108  0.0467 -0.0400 -0.0721
26051W        W69042  14.866  26.296   0.913 -0.1194 -0.1038  0.4677
26052W        W69043  31.069  28.449  18.364  0.1921 -0.2660  0.2645
26053W        W69044  22.529  14.303  18.279 -0.3173 -0.5238 -0.1774
26054W        W69045  32.555   1.355  20.930 -0.2260  0.2571  0.1520
26055W        W69046  21.844  25.573  16.801  0.1838  0.1052 -0.2425
26056W        W69047  16.784   7.616  16.363  0.3851 -0.2162 -0.2382
26057W        W69048  25.009  13.097  21.092 -0.1329  0.1707  0.2361
26058W        W69049  28.297  18.467  20.110 -0.2870 -0.3299  0.2805
26059W        W69050   1.166  27.815  21.803 -0.3464  0.1791 -0.3954
26060W        W69051  19.848  32.901  20.104  0.0258 -0.0671  0.2190
26061W        W69052  31.114  15.917  16.414  0.2568 -0.0253 -0.1953
26062W        W69053  18.063   2.050  22.324 -0.0215  0.0562  0.1107
26063W        W69054  17.993  21.982  24.959  0.1179  0.0121 -0.0126
26064W        W69055  23.927   4.840  19.176  0.0403 -0.1831 -0.0686
26065W        W69056  20.263  19.986  24.144  0.1754  0.3943  0.0759
26066W        W69057  20.197  31.024  22.160  0.0987  0.0741  0.1478
26067W        W69058  20.470   0.460  13.861 -0.2483 -0.0357  0.0752
26068W        W69059   8.345   8.601  14.938 -0.0338 -0.2424 -0.1110
26069W        W69060  24.786  29.420  23.110 -0.2544 -0.4062 -0.1864
26070W        W69061  11.566   8.575  17.693 -0.3204  0.1002 -0.0812
26071W        W69062  27.728   8.695  28.114  0.1553 -0.0471  0.2465
26072W        W69063  11.388  23.224  17.158  0.0618 -0.2165  0.0501
26073W        W69064  23.478  21.452  19.449  0.0540  0.1318 -0.1516
26074W        W69065  32.808  31.126  21.485 -0.3272 -0.0652 -0.7557
26075W        W69066   6.806  21.469  23.704  0.1908 -0.1624 -0.0476
26076W        W69067  27.611  24.972  16.041 -0.1139  0.0347 -0.2108
26077W        W69068   1.554  32.706  26.929  0.0756  0.0827 -0.3483
26078W        W69069   6.309  19.492  27.017  0.0088  0.0654 -0.0930
26079W        W69070  27.779  24.447  20.846  0.0677 -0.0857 -0.0278
26080W        W69071   8.070  15.451  20.982 -0.0245  0.0548 -0.2577
26081W        W69072   9.197  30.631  16.355 -0.0441 -0.2374  0.0010
26082W        W69073  32.163  21.359  14.246  0.0493  0.2264 -0.4516
26083W        W69074  22.285   0.283  26.545  0.0661  0.3050  0.0755
26084W        W69075   2.257  31.374  20.674 -0.1867 -0.1026  0.1949
26085W        W69076  10.628  20.475  21.177 -0.0403 -0.2322 -0.3510
26086W        W69077  22.787  34.265   3.947  0.1122  0.4285 -0.2001
26087W        W69078   4.150  25.567  16.009  0.1089 -0.2661 -0.1658
26088W        W69079  26.337  30.196  25.241 -0.0958 -0.0470 -0.0647
26089W        W69080   2.401  29.495  27.044  0.2199 -0.3462 -0.0650
26090W        W69081  10.182   6.490  28.960 -0.0761  0.0947  0.1156
26091W        W69082   0.502  30.105  14.602 -0.0358 -0.1368  0.0450
26092W        W69083  23.436   0.928  22.047 -0.0154  0.1138 -0.2840
26093W        W69084   5.245   1.193  26.591  0.0024  0.1537  0.2106
26094W        W69085  25.418   3.519  20.264  0.6428  0.2372 -0.1399
26095W        W69086   0.206  11.122   4.397  0.1478  0.3240 -0.0391
26096W        W69087  20.961   9.983  13.893  0.0664  0.1181 -0.1853
26097W        W69088  21.377  30.425  28.429  0.3202  0.3909 -0.0451
26098W        W69089  24.286  31.713   6.167 -0.0524  0.0270 -0.0613
26099W        W69090  26.232  31.208  18.368 -0.1183 -0.0840  0.0117
26100W        W69091  32.530  22.370  14.030 -0.1739 -0.3802 -0.1996
26101W        W69092  26.537  27.378   0.520  0.1621  0.0558 -0.0527
26102W        W69093   1.351   2.118  15.589 -0.0205 -0.0315 -0.0758
26103W        W69094   3.378  16.203  26.269 -0.0955 -0.0199 -0.1592
26104W        W69095  26.699  27.737  21.892  0.0143  0.4923  0.1321
26105W        W69096  24.159  24.033  15.113 -0.0727  0.2908 -0.0905
26106W        W69097   3.480  32.917  18.849  0.0493  0.1576 -0.0552
26107W        W69098  26.882  23.741  20.038 -0.0772  0.2020  0.3987
26108W        W69099   5.325  20.970  15.106 -0.0143 -0.0254  0.1549
26109W        W69100  19.645   4.659  19.095 -0.1887  0.0188 -0.1321
26110W        W69101   2.294   5.880  21.781  0.1958 -0.0075 -0.0512
26111W        W69102  24.840  14.289  18.852 -0.2916 -0.2549  0.1458
26112W        W69103  26.849  25.166  14.769 -0.0409 -0.1340  0.0661
26113W        W69104   1.965  22.296  22.751  0.7364 -0.1677 -0.0875
26114W        W69105  26.395  19.718  16.365  0.1276  0.0568 -0.0821
26115W        W69106  25.773   0.903  20.405  0.2378  0.1596  0.0298
26116W        W69107  27.447  28.016  14.790 -0.2885 -0.0682 -0.3204
26117W        W69108  20.382   3.644  23.236 -0.0052 -0.0587  0.1015
26118W        W69109  29.952  27.705  26.563 -0.1386  0.2512 -0.0914
26119W        W69110  32.721  25.288  16.614  0.3836 -0.3745  0.0569
26120W        W69111  25.720  30.377  14.712  0.1905  0.0861 -0.0792
26121W        W69112  21.192  32.869  16.249  0.3151 -0.3778 -0.3341
26122W        W69113  22.661   0.531  22.634 -0.2592  0.1987  0.0049
26123W        W69114   5.308  32.725  24.916 -0.0345 -0.4367 -0.3826
26124W        W69115   5.571  28.043  19.553  0.0272  0.2543 -0.1021
26125W        W69116  14.690  20.825   8.570 -0.2164  0.2193  0.2677
26126W        W69117  26.092  24.704  22.258 -0.1341 -0.2256 -0.2990
26127W        W69118  20.556  33.155  20.005 -0.1466 -0.0672 -0.1640
26128W        W69119  22.455  19.131  15.332 -0.1444  0.0316 -0.2694
26129W        W69120  23.163   6.214  21.175  0.1637 -0.0946  0.1608
26130W        W69121  25.022   2.827  26.306  0.1146  0.1331 -0.0283
26131W        W69122   3.246  11.118  16.880  0.0353  0.2292 -0.0224
26132W        W69123   6.467   2.009  22.464  0.1318  0.3178 -0.0849
26133W        W69124  26.884  15.253  19.331 -0.3972 -0.2153 -0.2062
26134W        W69125  21.706  23.379  27.281 -0.2207 -0.1953 -0.2134
26135W        W69126  26.483  17.060  21.414  0.3150  0.1246 -0.0205
26136W        W69127  22.957  24.945  14.400  0.1499  0.1227 -0.0116
26137W        W69128  25.685   9.328  13.903  0.0797  0.1082 -0.1953
26138W        W69129  23.342   9.678  23.759  0.0695  0.0293  0.1637
26139W        W69130  20.726   8.225  19.405  0.2230  0.1397  0.0281
26140W        W69131  19.421  30.382   3.034 -0.3731 -0.0603 -0.0204
26141W        W69132  19.102  15.323  13.460 -0.0930  0.0347  0.1464
26142W        W69133  33.056  27.191  19.482 -0.0587  0.2666  0.2193
26143W        W69134  26.075  14.246  18.027 -0.2152  0.1186 -0.1571
26144W        W69135  24.044   7.545  16.168  0.4044  0.0192  0.4741
26145W        W69136  33.354  26.765  16.578 -0.3569  0.0405 -0.0807
26146W        W69137  30.633  32.046  24.511  0.0958  0.0416  0.0125
26147W        W69138  16.904  25.977  25.915  0.1470  0.1397 -0.1702
26148W        W69139   1.802   9.793   6.780  0.0679  0.0747  0.0505
26149W        W69140  27.935  31.388  16.921  0.1930  0.0752 -0.3135
26150W        W69141  29.813  21.347  17.118  0.1021  0.4289  0.0315
26151W        W69142  11.519  27.681  21.313 -0.1324 -0.0004  0.1059
26152W        W69143  20.563  23.865  29.250  0.0832 -0.4011  0.0852
26153W        W69144  28.175  34.348  22.825 -0.1982  0.2029  0.0193
26154W        W69145  29.223  23.633   1.821 -0.1048 -0.1504 -0.0451
26155W        W69146  18.175   3.542  17.867 -0.1671  0.0487 -0.0853
26156W        W69147  21.770  28.129  20.632 -0.2044  0.4207 -0.2512
26157W        W69148   8.961  23.293  19.794  0.1142 -0.0978 -0.1480
26158W        W69149  29.613  23.164  20.871  0.3834 -0.0935 -0.2227
26159W        W69150  31.199   0.321  22.996  0.0892 -0.2528  0.2042
26160W        W69151  30.611  22.732  22.606 -0.0351 -0.4753 -0.4994
26161W        W69152   0.228  26.990  18.533 -0.0216  0.0468 -0.2396
26162W        W69153  28.273   0.707  16.900 -0.1546 -0.0632  0.3536
26163W        W69154  31.499  27.800  14.035 -0.0165 -0.3863 -0.4515
26164W        W69155  22.415  24.592  13.718  0.1867  0.1869  0.3523
26165W        W69156  22.570  15.434  16.867  0.4365  0.1529  0.0241
26166W        W69157   0.096  16.413  16.011 -0.0189  0.1499  0.1348
26167W        W69158   1.304  16.449  18.002  0.5097 -0.1654  0.0203
26168W        W69159  33.206  19.631  20.788  0.1661  0.2550 -0.1336
26169W        W69160  28.703  29.793  24.966  0.0289  0.0021 -0.1021
26170W        W69161  27.299  26.972  14.426  0.2500  0.2603 -0.3237
26171W        W69162  34.458  33.258  20.979  0.2264  0.0754 -0.0019
26172W        W69163  18.216   2.972  23.877  0.3018  0.2074  0.2378
26173W        W69164  27.175  12.978  26.433  0.0370  0.0971 -0.0796
26174W        W69165  34.083   6.874  19.554 -0.1700  0.1480  0.0793
26175W        W69166  27.021  28.934  15.829  0.0576  0.0299 -0.3741
26176W        W69167  27.781  18.236  24.798  0.0559  0.0001  0.1290
26177W        W69168  19.157  32.084  23.444  0.2831  0.0477  0.1026
26178W        W69169  17.277  18.764  29.222  0.1821  0.1460 -0.1349
26179W        W69170  17.846   1.199  14.903  0.4808 -0.0678 -0.1187
26180W        W69171  26.600   4.118  23.978  0.0552  0.0197 -0.6647
26181W        W69172   2.482  26.725  26.865  0.0663 -0.1378 -0.0018
26182W        W69173  22.604  15.327  13.137  0.0498  0.0120 -0.2800
26183W        W69174  23.357  27.687  15.961 -0.2376 -0.0873 -0.0995
26184W        W69175  32.763  27.840  26.743 -0.3034  0.0078  0.1894
26185W        W69176  31.295   8.249  21.602  0.0160  0.0553 -0.1236
26186W        W69177  17.678  17.796  12.375  0.0348 -0.2627  0.0306
26187W        W69178  33.830  32.237  18.008 -0.1119 -0.3976 -0.1351
26188W        W69179   0.761  10.796  15.402 -0.1228 -0.0732  0.1473
26189W        W69180  28.902  27.563  26.886 -0.2660 -0.3250 -0.4166
26190W        W69181  14.645  28.148  18.466  0.3390 -0.0271 -0.1557
26191W        W69182   6.341  34.427  14.686 -0.1030 -0.1326  0.3618
26192W        W69183  34.011  27.029  21.890  0.0208 -0.0303  0.1608
26193W        W69184  21.283  29.899  13.234 -0.0145  0.3048  0.0242
26194W        W69185  31.906   5.233  19.888  0.1762 -0.1070 -0.1901
26195W        W69186  26.937  26.927  21.947 -0.1325 -0.2479  0.0903
26196W        W69187  17.519  22.790   1.812 -0.0118 -0.2947  0.0056
26197W        W69188   2.624  30.295  26.231 -0.0358  0.1823  0.3155
26198W        W69189  29.461  31.248   1.934  0.3270 -0.0229 -0.1388
26199W        W69190  22.859   5.037  25.341  0.0432  0.0406  0.0192
26200W        W69191  11.759   5.808  20.475  0.1881  0.1939 -0.0723
26201W        W69192  34.292   4.845   6.424  0.0585  0.3688 -0.1049
26202W        W69193   4.585  32.127  18.298  0.0056 -0.0066  0.2398
26203W        W69194  26.548  28.292  24.608  0.3289 -0.0674 -0.0984
26204W        W69195   0.745   4.169  17.959  0.2270 -0.2994  0.0068
26205W        W69196  30.530  16.971  20.751  0.0548  0.0141  0.2801
26206W        W69197   1.063  20.728  22.342  0.1733 -0.2407 -0.0200
26207W        W69198  34.542  32.654  22.979 -0.0493  0.0379 -0.3557
26208W        W69199   4.610   8.275   2.808  0.4750  0.1489 -0.2255
26209W        W69200  21.233   6.280  27.271 -0.3384  0.3246 -0.1463
26210W        W69201  20.876  27.133  28.292 -0.3147  0.0156 -0.0932
26211W        W69202  31.838  27.873  18.765  0.2292  0.0951 -0.0817
26212W        W69203  15.577  22.799  14.516  0.0804 -0.0447 -0.2617
26213W        W69204  31.156   6.409  13.994  0.3051 -0.2191  0.1855
26214W        W69205  15.473  33.986  25.497 -0.0461 -0.0064 -0.3110
26215W        W69206  11.354  31.370   9.706  0.0220  0.1530  0.1128
26216W        W69207  34.032  10.343   4.138 -0.0523 -0.4337  0.1796
26217W        W69208   1.740  27.864  21.701  0.0537 -0.0504 -0.3449
26218W        W69209  31.235  22.756  20.150 -0.0001  0.0258  0.0992
26219W        W69210  15.718  29.268  27.383  0.0429 -0.1157 -0.2284
26220W        W69211  25.364  26.918   0.201 -0.1918 -0.1913 -0.1791
26221W        W69212  33.986   2.141  20.756 -0.1589  0.0718  0.1485
26222W        W69213  31.811  25.905  15.755  0.2154 -0.1741 -0.2706
26223W        W69214  14.322  23.702  15.092  0.0130  0.1779 -0.1358
26224W        W69215  16.934   6.789   5.882 -0.0266  0.3176 -0.2122
26225W        W69216  14.577   2.918  28.645 -0.4324  0.0149 -0.0969
26226W        W69217  34.509  24.825  25.535 -0.0577 -0.0583  0.3395
26227W        W69218   2.757   5.349  28.306  0.0580 -0.1982 -0.1748
26228W        W69219  14.003   9.479  15.006 -0.0820 -0.2445 -0.1042
26229W        W69220   0.049  20.589  22.104  0.0496 -0.2671  0.0197
26230W        W69221  23.329   8.022  17.399 -0.2221 -0.2504  0.0611
26231W        W69222  22.806  26.683  27.566 -0.1223 -0.1522  0.0096
26232W        W69223   5.994  23.448  16.234  0.1056 -0.1516  0.1266
26233W        W69224  26.189  28.541  17.938 -0.1037  0.2140 -0.0590
26234W        W69225  31.592  27.747  16.362 -0.1388  0.0207 -0.3488
26235W        W69226  27.502   7.768  13.916  0.1296  0.5101  0.2800
26236W        W69227   7.801  20.955  22.174  0.2216  0.2006  0.1245
26237W        W69228  18.500   7.655  20.404  0.1831  0.1579  0.1174
26238W        W69229  29.492  30.182  18.539 -0.1154 -0.0988 -0.2128
26239W        W69230  33.322   3.849  21.940  0.1419 -0.0085  0.0206
26240W        W69231  27.718   3.257  17.325 -0.0539 -0.2067  0.4222
26241W        W69232  19.505  30.359  17.734 -0.0375 -0.0602  0.1853
26242W        W69233   2.301   4.679  22.837 -0.0008  0.2288 -0.1739
26243W        W69234  16.356  33.131  21.326 -0.0221  0.1858  0.2085
26244W        W69235  32.314  29.894  22.465 -0.3628 -0.1821 -0.0621
26245W        W69236  18.904   2.350  17.768  0.1639  0.3182  0.1174
26246W        W69237  26.002   3.362   8.788 -0.1608  0.3787 -0.3081
26247W        W69238  30.443  13.516  14.678 -0.1523  0.3603 -0.1497
26248W        W69239  33.028   0.598  16.649 -0.1704 -0.0105 -0.0488
26249W        W69240  18.614   1.223  17.298  0.2116  0.0561 -0.0308
26250W        W69241  23.234  18.654  14.985 -0.2510 -0.0546  0.3271
26251W        W69242  30.439  21.892  19.854  0.1018 -0.3657 -0.3355
26252W        W69243  26.408  17.520  17.553  0.1701  0.0850 -0.0190
26253W        W69244  29.466  32.724  15.320 -0.2503 -0.0586  0.1160
26254W        W69245  31.545  21.877  19.962  0.2637 -0.1042  0.2783
26255W        W69246  23.772  14.581  17.227 -0.0279 -0.1181 -0.0150
26256W        W69247  13.541  29.573  17.260 -0.0903  0.3057 -0.0875
26257W        W69248  28.925  32.077   1.835 -0.0923  0.0461 -0.1131
26258W        W69249  33.516  34.690  20.581  0.0951  0.1198  0.0531
26259W        W69250   6.486   0.791  21.947 -0.0272  0.0489  0.2127
26260W        W69251   9.606  29.983  15.251  0.3348  0.1454 -0.1570
26261W        W69252  10.234   5.798  16.700 -0.1907 -0.0465  0.0420
26262W        W69253  31.520   1.300  27.027  0.0460 -0.2768 -0.2497
26263W        W69254  13.934  11.886  18.634 -0.1050 -0.0935  0.3226
26264W        W69255  13.776  25.204  20.847 -0.0224  0.4368  0.1388
26265W        W69256  11.293  29.318  18.680 -0.0694 -0.0292  0.0947
26266W        W69257  19.615  17.857  26.008  0.1537  0.0784  0.1650
26267W        W69258  12.294   2.080  25.303 -0.0162  0.3725  0.3807
26268W        W69259  25.342   8.559  25.043 -0.0619  0.0781  0.2835
26269W        W69260   9.368  30.353  16.887  0.3121 -0.0269  0.1287
26270W        W69261  22.606  26.132  28.791  0.0137  0.2449 -0.1425
26271W        W69262  13.199  21.894   4.623 -0.0258  0.0213  0.0881
26272W        W69263  33.623  24.843  16.305 -0.2527 -0.1196 -0.2513
26273W        W69264  31.029  26.004  17.379  0.0706 -0.0152  0.0778
26274W        W69265  33.122  21.680  28.834 -0.2073  0.0070 -0.0214
26275W        W69266   7.578  10.317  21.393  0.0991 -0.0549  0.1417
26276W        W69267   3.504  26.391  20.384  0.1154  0.1887  0.0933
26277W        W69268  23.887  20.245  14.977  0.1736  0.0071 -0.1043
26278W        W69269  12.278   3.854   5.472  0.0922 -0.2144  0.0048
26279W        W69270   7.847   5.602   7.412 -0.1278 -0.0864 -0.0255
26280W        W69271  24.076  25.804  26.316  0.2504  0.0606  0.1707
26281W        W69272  28.075   4.295  26.111 -0.2584 -0.2331  0.1062
26282W        W69273  29.374  29.956   4.138  0.2429 -0.0090 -0.0857
26283W        W69274  23.854  16.385  16.896  0.0141  0.0979 -0.1011
26284W        W69275  24.778   2.421  19.780  0.3423 -0.1088  0.0753
26285W        W69276  28.558   1.587  28.521 -0.4306 -0.1515 -0.0262
26286W        W69277  18.961  21.169  13.208 -0.1111 -0.1601  0.0910
26287W        W69278  12.558  22.854  14.367  0.1751 -0.0387  0.1070
26288W        W69279  30.365  31.365  13.980 -0.1760 -0.2422  0.2481
26289W        W69280   7.559  26.277  21.474 -0.0631 -0.3163 -0.1674
26290W        W69281  12.390  16.656  15.472  0.2849 -0.0432  0.0412
26291W        W69282  14.713  21.542  17.129 -0.0727  0.2086  0.1271
26292W        W69283  30.118   9.833  15.252 -0.1297 -0.0357 -0.0453
26293W        W69284  25.948  12.376   1.243  0.1523 -0.1394  0.4049
26294W        W69285  30.547   1.761   7.204  0.4450  0.1880  0.2589
26295W        W69286  29.146  10.391  27.725 -0.0326  0.2788  0.1491
26296W        W69287   1.071  10.811   2.409  0.1800  0.2011 -0.0144
26297W        W69288  26.788  26.200  17.522 -0.5974  0.2559 -0.0191
26298W        W69289  27.019   1.811  27.958 -0.3303  0.2005  0.0267
26299W        W69290  14.394  32.818  16.308 -0.0991  0.0702  0.1319
26300W        W69291  32.959  30.171  13.368 -0.1882 -0.0348  0.2834
26301W        W69292  31.915  25.762  21.413 -0.3103  0.2763  0.0924
26302W        W69293   1.323  23.064  15.697 -0.1457  0.1323  0.1467
26303W        W69294  26.682  29.106  21.577  0.4048 -0.2124  0.0455
26304W        W69295  21.037   6.513  15.911 -0.2169 -0.0741 -0.3709
26305W        W69296  33.822  17.032   1.904 -0.2456  0.4872  0.0997
26306W        W69297  29.131  25.847  25.952  0.0879  0.1747 -0.0863
26307W        W69298  19.750  25.802  19.253 -0.2086 -0.1574  0.3293
26308W        W69299  34.138  29.786  27.724 -0.1392  0.0440  0.1261
26309W        W69300  19.578  20.676  22.588  0.3933  0.0800 -0.0651
26310W        W69301   8.368   9.920  21.716 -0.1619  0.2418 -0.0116
26311W        W69302  18.989   2.508  20.144 -0.0395 -0.1700 -0.1052
26312W        W69303  31.313  32.446  15.437  0.0225  0.3418  0.0063
26313W        W69304   6.988  19.257  27.815 -0.0557 -0.1232 -0.0393
26314W        W69305  25.799  24.921  17.167  0.1980  0.3024 -0.1075
26315W        W69306   9.922   2.573   3.446 -0.0596 -0.2753 -0.1570
26316W        W69307   2.305   4.257  29.245  0.2874  0.3360  0.0042
26317W        W69308   0.105  34.194  22.031 -0.1233 -0.3896  0.0374
26318W        W69309  31.943   8.341  14.170  0.1575 -0.2613 -0.2416
26319W        W69310  34.539  21.739  22.479 -0.1509 -0.0523  0.1052
26320W        W69311  31.757  16.361  15.600 -0.0661 -0.3522 -0.1107
26321W        W69312  12.800   3.318  26.483  0.2071 -0.0585  0.3340
26322W        W69313  32.835  30.737  21.103 -0.0617  0.2022  0.2570
26323W        W69314  20.312  34.247   1.990  0.1950 -0.1377 -0.0324
26324W        W69315  33.750  31.740  15.330  0.2804 -0.1425  0.1104
26325W        W69316  31.037  32.085  15.744 -0.1329  0.0463 -0.2561
26326W        W69317   2.497   1.065  23.973 -0.0030  0.0378 -0.0089
26327W        W69318  31.079  26.043   0.970 -0.0364  0.1142 -0.0795
26328W        W69319  31.213  28.618  14.421 -0.0091 -0.4698 -0.0702
26329W        W69320  32.634  26.324  16.844  0.0328  0.0142  0.2228
26330W        W69321  24.563  21.741  23.315  0.1641 -0.3376  0.0788
26331W        W69322  14.434  23.792  19.074  0.1429 -0.0577 -0.1495
26332W        W69323  16.106  28.145  14.898  0.2216  0.2913 -0.1733
26333W        W69324   6.016  17.154  25.160 -0.1591 -0.1993 -0.0739
26334W        W69325  22.884  21.576  18.289 -0.2987 -0.4120 -0.0223
26335W        W69326  19.400  31.821  22.680 -0.0036 -0.1452  0.0525
26336W        W69327  21.383  21.874  15.380 -0.0419  0.3994  0.1210
26337W        W69328  23.322  23.776  27.630 -0.2825  0.3835  0.2454
26338W        W69329  28.727   3.026   0.880 -0.0107 -0.2141  0.0202
26339W        W69330  29.996  15.076  21.933 -0.2203  0.2335 -0.0526
26340W        W69331  28.856  26.060  16.534 -0.1254 -0.2133 -0.1181
26341W        W69332  30.755  32.566  19.217  0.3074  0.2041 -0.2614
26342W        W69333   6.775   4.937  17.924 -0.0490  0.3833  0.3955
26343W        W69334  25.626  33.498  25.819  0.1713  0.1731  0.1649
26344W        W69335  17.140  26.035  14.910 -0.2995  0.6327  0.1771
26345W        W69336  15.128  21.135  22.383 -0.0306  0.4094  0.0613
26346W        W69337  27.546  29.787  26.327  0.0499 -0.2986 -0.0851
26347W        W69338  17.777  31.228  15.773  0.1216  0.0199 -0.3438
26348W        W69339  32.283  31.684  25.527 -0.1685  0.1639  0.0544
26349W        W69340  23.392  25.496  21.449  0.2434 -0.1896 -0.0272
26350W        W69341   0.593  26.085   3.722 -0.1990 -0.3266  0.1290
26351W        W69342  29.447  31.941  23.619  0.2734  0.3169 -0.0136
26352W        W69343  32.840  25.654  16.023 -0.1786  0.4013  0.1270
26353W        W69344   2.291  24.821  15.237 -0.0505  0.0775 -0.2072
26354W        W69345  25.925  31.166  17.316 -0.1246 -0.3484 -0.1031
26355W        W69346  23.946  30.887  17.253 -0.1376  0.2134  0.1776
26356W        W69347   6.886  18.526  15.854  0.1554 -0.1237  0.1638
26357W        W69348  24.645   0.954  26.728 -0.1680  0.5684 -0.1915
26358W        W69349   0.741  30.593   7.811  0.1182  0.2081 -0.1283
26359W        W69350   6.643  29.041  21.002 -0.1295  0.4259 -0.1158
26360W        W69351  34.403  15.267  23.185  0.1223  0.2689 -0.0234
26361W        W69352  31.762  28.145  16.082 -0.1157  0.0006 -0.1100
26362W        W69353  31.590  20.345  15.898  0.1958  0.0589  0.0356
26363W        W69354  25.105  22.056  14.536  0.3776 -0.0938 -0.0900
26364W        W69355  22.498  33.808  24.039  0.1198 -0.0553  0.0865
26365W        W69356  16.823   2.048  22.083 -0.0020  0.0626  0.0395
26366W        W69357  31.681   1.178  22.995 -0.1182  0.1949 -0.5524
26367W        W69358   8.298   0.778  22.834 -0.1206  0.0010  0.2633
26368W        W69359  30.085  30.739   0.461  0.0589 -0.2063  0.1629
26369W        W69360  32.991   1.087  20.833 -0.1598  0.3018  0.1049
26370W        W69361   0.777   2.958  28.910 -0.2111  0.0815 -0.0357
26371W        W69362  17.222  17.422  26.897 -0.0909  0.1397  0.0181
26372W        W69363  23.693  25.735   7.689 -0.0598 -0.2738  0.0164
26373W        W69364  13.094  29.296  26.481 -0.0198 -0.0419 -0.1071
26374W        W69365  33.616  14.019  22.383 -0.1143  0.0535  0.2098
26375W        W69366  18.748   5.227  22.699  0.1302  0.1633  0.0607
26376W        W69367  17.319  18.406  14.933  0.0984 -0.1821 -0.0641
26377W        W69368  13.485  23.278  18.299  0.1008  0.1591 -0.3504
26378W        W69369  30.592  33.898  28.522  0.0580  0.0043  0.0765
26379W        W69370   9.372  34.139  19.448  0.0885 -0.0922 -0.1996
26380W        W69371  29.473  33.524  24.885  0.0898 -0.0087  0.0586
26381W        W69372  26.127  29.235  16.001  0.1455 -0.2678 -0.3081
26382W        W69373  24.708  18.378  17.468  0.0838 -0.0040 -0.1852
26383W        W69374  25.978   0.589  17.400 -0.2913 -0.1570 -0.0165
26384W        W69375  32.268  14.308  16.404  0.0274 -0.0847 -0.0730
26385W        W69376  25.579  27.897  20.424 -0.1519 -0.1721 -0.0625
26386W        W69377  34.319  16.061  20.145  0.0151 -0.1736 -0.3138
26387W        W69378  20.208  16.102  13.860 -0.3126 -0.0546 -0.0278
26388W        W69379  27.412   6.131  16.651  0.1177 -0.3896  0.0358
26389W        W69380  33.449  28.212  16.681 -0.1855  0.0691  0.4258
26390W        W69381  19.252  23.104  21.779 -0.1466 -0.0431  0.2793
26391W        W69382  12.463   0.022  18.882  0.2904 -0.1775  0.1109
26392W        W69383  23.550  26.090  15.956  0.3602 -0.2684 -0.2112
26393W        W69384   2.345  22.111   7.561 -0.0920  0.0069 -0.2761
26394W        W69385   0.124  24.857  21.212  0.1597 -0.0229  0.0952
26395W        W69386  28.727  16.201  23.186 -0.0194 -0.0144 -0.1039
26396W        W69387  25.071  33.872  24.669  0.0327  0.1459 -0.2439
26397W        W69388  28.823  26.719   1.940 -0.0986 -0.0867 -0.0198
26398W        W69389  31.395  18.565  17.166 -0.1178 -0.0538  0.1725
26399W        W69390  22.572  19.226  14.075 -0.0696  0.2001 -0.0588
26400W        W69391  16.581  25.388  17.757 -0.0025  0.3328 -0.2722
26401W        W69392  25.122  17.458  26.860 -0.0220 -0.1864 -0.4543
26402W        W69393   1.597   2.587  19.284 -0.2005 -0.2157 -0.1076
26403W        W69394  32.723  20.647  17.433 -0.1978  0.1486 -0.1037
26404W        W69395  31.187  32.949  14.670 -0.0725 -0.0334  0.3190
26405W        W69396  25.479  29.532  16.275  0.2373  0.0187 -0.0447
26406W        W69397  16.842  29.109  15.251  0.2032 -0.1215 -0.1213
26407W        W69398  22.647  18.079  15.492 -0.2734  0.1271  0.2396
26408W        W69399  18.619  29.037  16.483  0.0488 -0.2723  0.1784
26409W        W69400  10.270   4.275  15.253  0.1528 -0.0852 -0.0237
26410W        W69401   9.979  29.578  24.896  0.2314  0.2894 -0.0158
26411W        W69402  28.056  32.673  14.746  0.0375 -0.0339  0.0574
26412W        W69403  30.236  14.911  18.630 -0.1417 -0.0697  0.2239
26413W        W69404  19.492  24.860  19.305 -0.1040 -0.2560 -0.1048
26414W        W69405  28.400   0.556   0.350  0.1438 -0.0073 -0.2901
26415W        W69406  33.898  20.075  17.732  0.3071  0.2107 -0.2206
26416W        W69407  32.503  14.583   1.362 -0.1755 -0.0496  0.0591
26417W        W69408  22.146   0.684  27.465 -0.0890  0.0550 -0.0715
26418W        W69409  27.784  30.443  12.867  0.2161  0.2135  0.0298
26419W        W69410   4.701  21.086  26.121 -0.3813 -0.2456 -0.0055
26420W        W69411   0.487  28.104   6.482 -0.0282 -0.0419 -0.0341
26421W        W69412  32.647  32.072  16.013  0.0024  0.1372 -0.0341
26422W        W69413  28.675  20.824  21.189  0.0177 -0.2521  0.0248
26423W        W69414  10.928  22.238  15.253 -0.4685  0.2476 -0.2524
26424W        W69415  27.993  33.633  15.004 -0.0198 -0.0839 -0.1948
26425W        W69416  13.123  32.505  15.009  0.1559 -0.0191 -0.0315
26426W        W69417  30.770  27.050  15.584 -0.2045  0.3755  0.2422
26427W        W69418   9.913  24.000   2.197 -0.0018  0.1820 -0.0974
26428W        W69419   0.186  23.804  17.211  0.1124 -0.0919  0.3524
26429W        W69420  21.992   2.828  16.596 -0.0982  0.0035 -0.3198
26430W        W69421  32.233  30.175  17.487 -0.0183 -0.1112 -0.4281
26431W        W69422  25.175  26.696  18.003 -0.1365 -0.3259  0.2299
26432W        W69423  12.283  23.187  26.501  0.1154  0.1471 -0.0967
26433W        W69424  20.395  21.793  12.601 -0.0255 -0.0455  0.0861
26434W        W69425  24.107  28.829  24.735  0.1596  0.0818  0.0649
26435W        W69426  11.626  13.936  24.299 -0.0333 -0.1044 -0.1475
26436W        W69427  13.806  27.206  19.282 -0.2879 -0.0303  0.1243
26437W        W69428   5.164  33.702  25.853  0.0379  0.1060  0.1682
26438W        W69429  10.285  23.356  24.755  0.0671  0.0089  0.0381
26439W        W69430  30.523  30.274  22.274  0.0900  0.0312 -0.0210
26440W        W69431  27.604  18.955  22.368  0.1294 -0.3535  0.0108
26441W        W69432   0.145  20.790   9.260 -0.2547 -0.1595  0.0674
26442W        W69433  17.142  25.991  22.756 -0.1725  0.1329  0.0818
26443W        W69434   2.328  20.548  17.794  0.0358  0.2148  0.0551
26444W        W69435   5.563   8.032  19.472  0.0294 -0.0096 -0.1329
26445W        W69436  21.814  19.454  15.746 -0.1263 -0.1704 -0.1703
26446W        W69437  24.588  25.189  14.035  0.3140 -0.2054  0.2222
26447W        W69438  20.297  27.259  16.182  0.3013 -0.1567  0.0987
26448W        W69439  13.687  24.834   0.520 -0.2362 -0.0691  0.2042
26449W        W69440  30.992  20.505  24.742 -0.1468 -0.1633  0.0036
26450W        W69441  22.463   4.580  15.793 -0.1071 -0.4542 -0.1232
26451W        W69442  21.192   3.169  15.359  0.1846 -0.3823  0.0101
26452W        W69443  24.087   6.524  26.337  0.0946  0.3472  0.0231
26453W        W69444   0.744  18.084   4.134 -0.0466 -0.1657 -0.1512
26454W        W69445  29.771   1.248  25.672 -0.1272  0.1581  0.0779
26455W        W69446  23.408  20.856  16.065 -0.3319  0.1044  0.1769
26456W        W69447   6.012  26.871  22.075  0.1930 -0.0292 -0.0464
26457W        W69448  31.382  33.034  17.895  0.5098  0.0884  0.3040
26458W        W69449   0.418  16.270  17.919  0.1071  0.0024 -0.1972
26459W        W69450  28.096  30.187  27.607 -0.0547 -0.0027  0.2998
26460W        W69451  24.376   1.070  14.925  0.0218  0.0089  0.3079
26461W        W69452  30.666   0.441  24.723 -0.1812  0.0964 -0.0789
26462W        W69453  24.538  34.448  16.231  0.2000 -0.0522 -0.0183
26463W        W69454  30.955  22.405  20.431 -0.0768 -0.2861 -0.3012
26464W        W69455   3.393  22.548  16.681  0.1031 -0.1078  0.2066
26465W        W69456  21.795   8.128  18.365  0.1599 -0.0848 -0.2094
26466W        W69457  22.863   8.727  15.975  0.4458 -0.0247  0.2397
26467W        W69458  11.602  24.587  26.372 -0.2537 -0.2566  0.2081
26468W        W69459  20.724  21.234  21.250  0.2161 -0.0103  0.0370
26469W        W69460  20.102  19.365  16.076 -0.0832  0.1765  0.0390
26470W        W69461  30.244  34.637  26.930  0.1205 -0.0285  0.0029
26471W        W69462  29.947  30.574  14.394  0.0334  0.1623 -0.1289
26472W        W69463  23.471  34.395  16.293 -0.2568 -0.2048 -0.2490
26473W        W69464  22.930  34.149  17.506 -0.1074  0.3280  0.1347
26474W        W69465  22.020   2.752  16.124  0.0818 -0.1059 -0.1073
26475W        W69466  33.370   5.218   0.172 -0.1317  0.1400 -0.0625
26476W        W69467  25.218   1.146  24.097 -0.3150  0.4015  0.4789
26477W        W69468  17.749  18.507  15.310 -0.3448  0.2520  0.2088
26478W        W69469  34.325  14.484  20.910  0.0016  0.0138  0.4948
26479W        W69470  16.380  26.567  23.093  0.0019 -0.0084 -0.0100
26480W        W69471   1.001  25.654  19.948 -0.3832  0.0906  0.0914
26481W        W69472  16.492  23.768  25.732  0.1412 -0.0640  0.2788
26482W        W69473   2.341   9.840   6.216  0.0933  0.0992 -0.1899
26483W        W69474  23.655  28.166  15.848 -0.1716  0.1780 -0.1443
26484W        W69475  32.053  18.276  25.190 -0.3454  0.0237 -0.2193
26485W        W69476  30.667  33.754  16.693 -0.0130  0.1335  0.1301
26486W        W69477  30.752  31.924  21.795  0.1709 -0.1195 -0.6660
26487W        W69478  17.845  21.080  18.809 -0.1672  0.0729  0.4590
26488W        W69479  24.044  31.552   0.827  0.0355 -0.0704 -0.1262
26489W        W69480  30.829  26.147  27.425  0.0436 -0.0510  0.0196
26490W        W69481  20.204  20.492  13.349 -0.0134 -0.2994  0.1988
26491W        W69482   1.944  14.029  18.708  0.0294  0.4218  0.0536
26492W        W69483  33.637  21.446  19.158 -0.1580 -0.2031 -0.0401
26493W        W69484  29.665  11.617   6.182 -0.3206 -0.0881 -0.1851
26494W        W69485  22.407   2.551  20.342  0.0684  0.2529  0.2544
26495W        W69486  28.943  31.472  21.633 -0.3298 -0.1857 -0.0198
26496W        W69487  33.337  31.670   0.842  0.0398 -0.0934 -0.0597
26497W        W69488   7.353   0.123  17.531  0.0887  0.0428  0.1899
26498W        W69489   7.700   3.872  27.017 -0.1026  0.2173 -0.0985
26499W        W69490   9.581  22.847  23.980  0.0939  0.0901  0.1738
26500W        W69491  30.469  19.539  14.777  0.0077 -0.1996 -0.0426
26501W        W69492  18.029  10.329  20.025  0.1427  0.1821  0.0648
26502W        W69493  26.107   2.058  16.866  0.0186  0.0344  0.0023
26503W        W69494   1.854   1.176  18.941  0.0840 -0.0812 -0.0513
26504W        W69495  33.974   1.065  22.110  0.2591 -0.0808  0.1955
26505W        W69496  15.119   2.509   8.815  0.1604 -0.0107  0.0502
26506W        W69497  32.698  28.994  15.983 -0.2191 -0.0926 -0.1567
26507W        W69498  21.589   7.082  14.083  0.0838 -0.0655 -0.0435
26508W        W69499  16.748  24.059   2.194  0.0447  0.0340 -0.0467
26509W        W69500  29.679  32.653   4.463  0.0712 -0.1706  0.3518
26510W        W69501  24.380  19.075  19.840 -0.1281  0.1920 -0.2037
26511W        W69502  21.729  21.419  24.160 -0.1667 -0.0505 -0.2649
26512W        W69503  22.620  21.316  24.285  0.1018  0.0288  0.0412
26513W        W69504  10.626  30.282  16.206 -0.1571  0.3272 -0.0276
26514W        W69505   2.164  24.663  19.882 -0.0764 -0.1935 -0.3632
26515W        W69506  16.514  25.013  15.175 -0.0734  0.2032  0.1081
26516W        W69507  14.271   4.650  18.511 -0.1428  0.1902  0.3748
26517W        W69508   0.282  27.794   3.515 -0.0682  0.2094 -0.0696
26518W        W69509  30.440  33.383  23.010  0.2602  0.1871  0.0189
26519W        W69510   0.975  31.278  25.389  0.0285 -0.0441  0.0757
26520W        W69511  31.389  19.535   9.768 -0.2438  0.0925  0.0363
26521W        W69512  27.707  22.910  23.359 -0.0809 -0.1131  0.3061
26522W        W69513  17.140   4.401  25.341  0.0648  0.0243 -0.2311
26523W        W69514  18.836   2.069  19.146  0.0667  0.4017 -0.1922
26524W        W69515  34.683  18.279  18.424 -0.2448 -0.1760 -0.0138
26525W        W69516  13.082  32.460  25.007 -0.1474  0.2974 -0.0371
26526W        W69517   7.007  19.724  22.355  0.0020 -0.2986 -0.2139
26527W        W69518  22.124  20.230  21.655 -0.2838  0.1403  0.3552
26528W        W69519  25.382  30.324  25.054  0.0458 -0.3926  0.1152
26529W        W69520  26.326  23.212  29.078 -0.0289 -0.0048  0.0969
26530W        W69521  16.556  20.600  13.586 -0.0838 -0.0865 -0.0323
26531W        W69522   8.967  14.769  15.858 -0.2563  0.0694  0.2256
26532W        W69523  25.943  26.448   6.850  0.1225 -0.1347 -0.1516
26533W        W69524  18.896  26.914  23.938 -0.2941 -0.0944  0.1973
26534W        W69525  33.528  15.927  18.299  0.0661 -0.2076  0.0683
26535W        W69526  33.710  31.288  24.973  0.0828  0.0712  0.1004
26536W        W69527  30.305  18.021   7.618 -0.1505  0.1555  0.1204
26537W        W69528   6.129  33.452   1.450  0.4916  0.0872  0.0802
26538W        W69529   1.925  21.242  25.288 -0.4824 -0.3592  0.0404
26539W        W69530  20.468  27.445  18.169 -0.2362 -0.3257 -0.0270
26540W        W69531   2.559  23.498   8.447  0.0135 -0.0168  0.0185
26541W        W69532  24.669  11.035  28.436  0.1149  0.1805 -0.3164
26542W        W69533  19.598  25.213  18.561 -0.0327  0.1273 -0.0549
26543W        W69534  29.033  28.419   3.595 -0.0434  0.1201  0.0775
26544W        W69535  33.767  15.325  24.027 -0.2139  0.1104 -0.0234
26545W        W69536  34.344  27.107  23.226  0.0679  0.3716 -0.2636
26546W        W69537  27.006  10.425   3.718 -0.0638 -0.2686 -0.1334
26547W        W69538  20.694  25.278  20.674 -0.1749 -0.1165  0.2141
26548W        W69539  24.557  30.103  19.493  0.2764  0.2541  0.1385
26549W        W69540  17.520  25.775  21.219  0.0979 -0.1719 -0.0948
26550W        W69541   3.291  25.156  27.817  0.1241  0.1351 -0.1480
26551W        W69542  34.499  27.448  20.496  0.1079 -0.1621  0.2159
26552W        W69543  31.087  20.608  24.223  0.2209  0.0087  0.2772
26553W        W69544  13.534  16.800  12.899 -0.0312  0.0022  0.1194
26554W        W69545  21.449  14.664  18.040 -0.2870 -0.0913  0.0824
26555W        W69546  32.677  13.347  18.396 -0.4577 -0.0588 -0.5422
26556W        W69547  25.955  21.263   0.635 -0.0589  0.2228 -0.0871
26557W        W69548  26.290  31.109  26.245 -0.0864  0.1864 -0.0273
26558W        W69549  20.875  22.993   6.799  0.1348  0.0410 -0.3015
26559W        W69550  27.401  25.568  25.590  0.1775  0.1573  0.0406
26560W        W69551  31.282  22.135  26.522  0.1909 -0.0361  0.1465
26561W        W69552   2.335  31.559  23.679  0.0974  0.2327  0.3611
26562W        W69553  25.856  18.467  13.715 -0.2337 -0.0562 -0.1336
26563W        W69554  26.804   2.907  19.934 -0.1678 -0.0351 -0.1225
26564W        W69555   7.438  33.389  10.754  0.1055  0.2630 -0.0956
26565W        W69556  26.483  23.732   7.068 -0.1938  0.0488  0.0892
26566W        W69557  16.969  20.709  12.480 -0.2564 -0.0063  0.2028
26567W        W69558  13.569  27.716  28.166 -0.0297  0.1697  0.0786
26568W        W69559  13.772  12.853  19.327 -0.0882 -0.1003  0.3675
26569W        W69560  19.566   1.326  18.193  0.1447 -0.0741 -0.2089
26570W        W69561  14.893  20.803  16.784  0.0833  0.0129  0.0966
26571W        W69562  32.715   4.405   0.995  0.1439 -0.1411 -0.0640
26572W        W69563  10.250   0.629  18.059  0.0504  0.2318  0.1291
26573W        W69564   0.722  32.248  17.826 -0.0207 -0.0720 -0.1522
26574W        W69565  22.365  21.494   6.124  0.0860 -0.1129 -0.4190
26575W        W69566  26.633  16.233  18.074  0.1283  0.0906  0.0008
26576W        W69567  26.326  12.016  19.336  0.3731  0.0361  0.1002
26577W        W69568  16.866  22.488   0.260 -0.1291 -0.1209  0.0711
26578W        W69569  27.176  30.993  16.447  0.1918 -0.0056 -0.1695
26579W        W69570  29.133  25.306  14.550  0.1688 -0.0557  0.1132
26580W        W69571   2.161  25.050   7.898  0.0451  0.1205 -0.2585
26581W        W69572  22.967  30.908  20.431 -0.1089 -0.3132  0.0254
26582W        W69573  25.036  31.981   9.289  0.2303  0.0876  0.4268
26583W        W69574  27.189  25.414  28.241 -0.0006  0.1697 -0.1104
26584W        W69575  31.023  15.056  15.164  0.0385 -0.2784 -0.1906
26585W        W69576  29.661  30.562  16.828 -0.3054  0.0135 -0.5423
26586W        W69577  16.789  22.634  16.718  0.0600 -0.1999 -0.1168
26587W        W69578  31.648   0.035  22.961 -0.3813 -0.0967  0.2206
26588W        W69579  26.434  30.260  14.688  0.1053  0.1525  0.2555
26589W        W69580  27.377   1.344  16.317  0.6037  0.1286 -0.0875
26590W        W69581  27.544  14.232  29.246 -0.3204  0.1975  0.0413
26591W        W69582   6.600  26.290  25.842  0.0603  0.1847 -0.2064
26592W        W69583  26.708  33.163   3.059 -0.2983  0.0632  0.0359
26593W        W69584  32.460   4.801  18.872  0.2090  0.0665  0.0634
26594W        W69585  18.219  23.823   2.194 -0.2656  0.0312  0.1806
26595W        W69586   0.232  33.990  14.665  0.1073 -0.0075 -0.1206
26596W        W69587  28.682   7.995  18.236  0.0358 -0.1215 -0.1282
26597W        W69588   0.636  23.469  23.063 -0.1509  0.0558 -0.0932
26598W        W69589  33.875  28.219  13.580  0.3305 -0.2293  0.3929
26599W        W69590  33.985  23.303  13.889  0.0668  0.1417 -0.1415
26600W        W69591  17.268  22.098   5.357 -0.1054 -0.2967 -0.3195
26601W        W69592  16.781   0.341  18.350  0.0008 -0.0964 -0.2908
26602W        W69593  34.513  22.669  17.760 -0.2805  0.0264 -0.1219
26603W        W69594  17.917  27.387  19.392  0.1279  0.1122  0.1617
26604W        W69595  29.074  31.532  22.834 -0.3813  0.1586 -0.0453
26605W        W69596  26.869  24.466  15.433  0.1821 -0.0670  0.2996
26606W        W69597  34.492  23.070   9.021 -0.1119 -0.2518  0.0213
26607W        W69598  29.663  28.397  17.636  0.1120 -0.0033 -0.1053
26608W        W69599  27.586  12.048  26.563  0.2499  0.0992  0.1100
26609W        W69600  26.248  28.952  19.443 -0.3425 -0.1878 -0.0271
26610W        W69601   1.808  11.630  20.340  0.2961  0.0587  0.0236
26611W        W69602  14.780  23.610  10.176  0.0709 -0.0771 -0.1410
26612W        W69603  33.588  22.822   5.103  0.0311 -0.2719 -0.1422
26613W        W69604  25.335   1.009  14.649 -0.2005 -0.0381  0.0191
26614W        W69605  30.433  20.858  18.665  0.0853  0.1956 -0.0529
26615W        W69606  33.994  31.458  22.813  0.0038  0.0254 -0.0528
26616W        W69607  31.305  16.212  25.958  0.1968 -0.0175  0.0612
26617W        W69608  31.457  12.797  27.749 -0.3442  0.0245 -0.0804
26618W        W69609  30.716  22.145  26.333  0.2305  0.1496 -0.1927
26619W        W69610  22.851  27.988  16.868  0.1802  0.1796 -0.2731
26620W        W69611  16.635  32.801   4.511  0.2580  0.1284 -0.3864
26621W        W69612  27.335  32.350  21.238 -0.0675  0.0025 -0.2427
26622W        W69613  34.591   2.991  20.269 -0.3632  0.0495  0.1423
26623W        W69614  26.446  16.115  14.543  0.3236 -0.0096  0.0253
26624W        W69615  12.867  11.256  25.841  0.0521 -0.2250  0.1974
26625W        W69616  24.236  31.298  14.788 -0.2459  0.1208  0.0180
26626W        W69617  23.774  14.280  18.034 -0.0012  0.1884  0.1146
26627W        W69618  20.109  34.499  18.024  0.0991 -0.3572  0.0136
26628W        W69619  30.245  12.429  19.793  0.1177  0.1338 -0.2457
26629W        W69620   5.196  17.450  17.681  0.0530  0.1206 -0.1338
26630W        W69621   8.017  31.693  21.335  0.2235 -0.0262 -0.0277
26631W        W69622  30.724   8.732  16.327  0.1586  0.2061  0.3447
26632W        W69623  30.416   0.439  21.134  0.0345 -0.0535  0.0116
26633W        W69624  30.090  30.874  20.255  0.1700 -0.0155 -0.3858
26634W        W69625  31.953  19.071  14.339  0.0059  0.0970 -0.0961
26635W        W69626  29.753  26.710  25.450 -0.0011 -0.1049  0.3012
26636W        W69627  28.764  34.698  21.132 -0.2936  0.0466 -0.1248
26637W        W69628  20.896  19.689  24.132 -0.2757  0.0440  0.0814
26638W        W69629  30.552  22.760  19.901  0.0123  0.3459 -0.3925
26639W        W69630  16.925  28.948   4.934  0.0394  0.2456  0.1836
26640W        W69631  32.390  23.671  15.169 -0.1596  0.4076 -0.0178
26641W        W69632  11.503   5.540  23.139  0.0194 -0.1815  0.0759
26642W        W69633   3.918   5.789  28.157  0.2426 -0.0755 -0.5651
26643W        W69634  32.039  28.096  16.921 -0.1782  0.0803  0.1512
26644W        W69635   8.009  20.528  20.364 -0.0115 -0.3588 -0.2035
26645W        W69636  28.340   6.762   7.940  0.1978 -0.0858  0.1680
26646W        W69637  25.871  21.984  20.480 -0.1492  0.1567 -0.2501
26647W        W69638  33.197   1.782   0.745  0.0839  0.3427 -0.0148
26648W        W69639  27.437   2.916  12.988 -0.1398 -0.2617  0.1012
26649W        W69640  22.946  20.741  22.654 -0.2955  0.1571  0.3318
26650W        W69641  28.296   0.247  13.101  0.0195 -0.1503  0.4663
26651W        W69642   8.559  34.042  18.921 -0.1329 -0.1376  0.0734
26652W        W69643  19.950  25.443  21.741  0.3813  0.0393  0.1148
26653W        W69644  19.450  24.373  15.366  0.1860 -0.2846  0.1759
26654W        W69645  21.243  23.601  15.895  0.1020  0.2940  0.0758
26655W        W69646  25.330  23.681  16.320 -0.1607  0.0177  0.0234
26656W        W69647   8.481   0.816  17.986 -0.1122 -0.0858 -0.3702
26657W        W69648  25.554  23.100  21.411  0.0459  0.0336 -0.0089
26658W        W69649  24.950  29.591  25.534 -0.0462  0.0650 -0.2211
26659W        W69650  22.476  18.349  21.108 -0.3256  0.0595 -0.0012
26660W        W69651  31.924  30.362  26.395  0.2780  0.0475 -0.0819
26661W        W69652  30.574   6.315  27.793 -0.0887  0.3442  0.1945
26662W        W69653  20.506   1.680  14.156  0.1722 -0.0429 -0.0712
26663W        W69654   7.954  29.017  27.189 -0.0686  0.1663 -0.2428
26664W        W69655  17.123  24.243  22.467  0.1870 -0.1200 -0.1224
26665W        W69656  30.837  19.944  27.013  0.1020  0.1541  0.1368
26666W        W69657   7.428  13.404  19.939 -0.4597  0.3358  0.2067
26667W        W69658  29.330  29.043  16.710 -0.0413 -0.0663  0.0452
26668W        W69659  23.074  19.653  18.701  0.2725 -0.0170 -0.0997
26669W        W69660  17.586  34.070  25.695  0.1783 -0.0333  0.1030
26670W        W69661  29.495   7.949  22.532  0.0122 -0.2955  0.3014
26671W        W69662  28.081  30.901  17.056 -0.0139 -0.1193  0.1270
26672W        W69663   1.875  33.214  28.566 -0.3655  0.3814  0.0109
26673W        W69664  21.929  28.465  13.667  0.2893  0.1787  0.3069
26674W        W69665  16.053   1.106  18.308 -0.2795 -0.0470 -0.0559
26675W        W69666  19.085   4.350   4.957 -0.2353 -0.1864 -0.1656
26676W        W69667  12.979  19.490  26.144 -0.2990 -0.0358  0.3306
26677W        W69668   4.074  31.942  24.465 -0.4645 -0.2428  0.0098
26678W        W69669  28.730  19.596  20.068  0.3057  0.0289 -0.1359
26679W        W69670  28.546  32.799   2.644  0.2810  0.1311  0.1707
26680W        W69671  27.750   7.101  18.987 -0.1125 -0.0463  0.2191
26681W        W69672  20.325   1.741  17.934 -0.0205  0.1470 -0.6324
26682W        W69673  20.647  29.806   5.342 -0.0221  0.0276  0.0172
26683W        W69674  30.393  19.748  24.238  0.0573  0.1015 -0.3525
26684W        W69675  31.553  32.669  24.791  0.2356  0.1403  0.0837
26685W        W69676  17.416   7.154  19.149 -0.2762 -0.2064 -0.0467
26686W        W69677   1.378   0.715  20.989 -0.0915 -0.0447 -0.2095
26687W        W69678  20.575   8.133  16.246 -0.1425 -0.2585  0.1821
26688W        W69679  30.986  26.326  14.178 -0.0999  0.2163  0.3356
26689W        W69680   3.045   3.243  20.358  0.2749  0.2628  0.1695
26690W        W69681   7.941  32.609  28.285 -0.1674  0.0991  0.2949
26691W        W69682  22.225  25.543  14.153 -0.1365 -0.2427  0.2340
26692W        W69683  31.449  29.805  15.113 -0.0386 -0.1765  0.0509
26693W        W69684  32.440  27.474  15.759 -0.2117  0.3512  0.1650
26694W        W69685  31.715  14.929   0.705 -0.0000  0.0319 -0.0618
26695W        W69686  24.167  18.956  18.312  0.0107  0.1842 -0.4675
26696W        W69687  32.628   4.689   7.084  0.1082  0.0532  0.0369
26697W        W69688  18.463   0.751  23.377  0.1237  0.2154 -0.1780
26698W        W69689  18.098  32.796  27.920  0.2075  0.0673  0.2202
26699W        W69690  19.574  28.820  16.571  0.1024  0.0422 -0.2964
26700W        W69691  31.335  20.697  20.617 -0.1557 -0.1739 -0.3500
26701W        W69692  12.016  16.972  23.104 -0.2384 -0.0524  0.1578
26702W        W69693  20.177  20.242  19.877 -0.0110 -0.2308 -0.1771
26703W        W69694  20.234   5.299  15.558 -0.0357 -0.1991  0.1235
26704W        W69695  34.737  19.709  19.972 -0.0032 -0.1072 -0.0197
26705W        W69696  24.677  15.096  23.890  0.0509 -0.1446  0.0191
26706W        W69697  26.044  30.752  17.084 -0.1642 -0.3676 -0.0014
26707W        W69698  28.086  24.703   8.166 -0.2754  0.4618  0.3233
26708W        W69699  34.487  28.386  18.215  0.0454  0.2680  0.1788
26709W        W69700   0.852   0.002  22.907  0.1261 -0.0267  0.1677
26710W        W69701  32.192   0.940  26.673  0.0930 -0.2967 -0.1546
26711W        W69702  11.081   4.644  16.891 -0.1423  0.0472  0.2992
26712W        W69703   4.476  30.320  28.973  0.0340 -0.1780  0.2289
26713W        W69704   0.428  28.970  20.157 -0.1344  0.0331 -0.0529
26714W        W69705  17.571  26.730  26.135 -0.3527 -0.0245 -0.0021
26715W        W69706  23.496   7.077  14.966 -0.4630 -0.1219 -0.0727
26716W        W69707   2.899  13.688  28.051  0.1485 -0.1687 -0.1050
26717W        W69708  29.451   7.875  16.342  0.1714  0.1099 -0.1142
26718W        W69709  33.757  29.698  25.492  0.0836  0.3016 -0.2321
26719W        W69710  33.339  26.080  29.214 -0.0184 -0.1352  0.2745
26720W        W69711  33.597  16.601   1.072 -0.2272 -0.0686 -0.1318
26721W        W69712  22.443  25.286  29.192  0.0006  0.5051 -0.1230
26722W        W69713   0.220   4.592   8.643  0.0432 -0.0618 -0.1605
26723W        W69714   3.893  14.319  28.099 -0.1468 -0.2322 -0.4136
26724W        W69715  15.723  34.258  15.256  0.0700 -0.0309  0.1414
26725W        W69716  26.326  18.387  14.476  0.1274  0.2053  0.1591
26726W        W69717  16.577  26.131  14.201 -0.0904  0.2245 -0.1001
26727W        W69718  31.670   0.443  22.636 -0.2027 -0.2606 -0.3974
26728W        W69719  25.572  30.959  25.189 -0.0067  0.0002 -0.2144
26729W        W69720  17.567   0.423  21.966  0.2944  0.0489 -0.0655
26730W        W69721  32.600  30.204  25.463  0.0471  0.2633  0.0178
26731W        W69722  31.983   5.524  23.916  0.1426  0.3967  0.1038
26732W        W69723  28.382   5.478  23.848  0.1914 -0.3789 -0.0321
26733W        W69724  14.447  31.928  16.918  0.1568  0.2270 -0.1719
26734W        W69725  28.381  19.599  22.112 -0.1398  0.0210  0.0794
26735W        W69726  20.453  32.229  16.841  0.2204 -0.1161 -0.1683
26736W        W69727  16.363  19.156  23.783  0.1153 -0.3795  0.0331
26737W        W69728  31.025  32.558  13.421 -0.0462  0.1155  0.1008
26738W        W69729  24.242   3.593  25.120  0.0139  0.0264  0.0328
26739W        W69730  30.763  16.629  18.276 -0.0981  0.2779  0.1777
26740W        W69731  19.908  12.387  15.701  0.2190 -0.0508 -0.0695
26741W        W69732  24.678   8.570  22.619  0.3262 -0.3225  0.0266
26742W        W69733  27.121  16.369  10.151  0.1146 -0.0514 -0.1597
26743W        W69734  26.786  26.872  22.972 -0.3482  0.1914  0.0308
26744W        W69735  33.371  16.065  19.466  0.1427  0.1170 -0.1624
26745W        W69736  32.335  15.620  21.287 -0.0202 -0.0490 -0.0271
26746W        W69737   7.399   5.041  19.017  0.2127  0.1624 -0.1595
26747W        W69738  20.450   8.643  20.415  0.1479 -0.1781 -0.0924
26748W        W69739  29.784  21.655  17.884  0.0355 -0.0449 -0.3778
26749W        W69740  18.516  25.531   6.046 -0.0871 -0.0886 -0.3436
26750W        W69741  17.810  23.055  24.926 -0.1697 -0.0781  0.0890
26751W        W69742   0.369  10.047  24.668 -0.1243  0.0798  0.2234
26752W        W69743  32.273  23.780  24.327  0.1040  0.0623  0.1121
26753W        W69744  24.822  15.964   3.347  0.1042  0.1513  0.1977
26754W        W69745  21.224  19.265  13.509 -0.0339 -0.3957  0.0811
26755W        W69746  33.106  23.557  27.229 -0.0574 -0.2126 -0.1095
26756W        W69747  23.105  20.070  13.009  0.3925 -0.1010  0.3176
26757W        W69748   1.559  23.975  21.839 -0.1599 -0.3137 -0.0840
26758W        W69749  19.556  26.344  21.297  0.2077  0.0000  0.0097
26759W        W69750  28.953  29.186  14.156  0.0418  0.2842 -0.4082
26760W        W69751  31.689  31.618   7.144 -0.0947 -0.1153 -0.1117
26761W        W69752  29.847  11.474  26.330  0.0573  0.0204 -0.1202
26762W        W69753  28.653  22.686   0.211  0.1252 -0.1886 -0.0933
26763W        W69754  28.373  15.450  19.444 -0.2335  0.0404  0.0410
26764W        W69755  22.615  33.682  20.698  0.3356  0.2351  0.3311
26765W        W69756  34.100  26.313  18.064  0.1907  0.1693  0.1668
26766W        W69757  22.676   8.445  17.361 -0.2882  0.0321  0.3899
26767W        W69758  33.055  33.778  14.456  0.0330 -0.2858  0.2620
26768W        W69759  23.267   9.050  15.132  0.0067  0.0750 -0.0652
26769W        W69760  31.027  33.965  19.300  0.1044 -0.0280  0.3949
26770W        W69761  20.500  24.297  27.391 -0.2127 -0.1792  0.4694
26771W        W69762  24.517  20.556   5.734  0.0990  0.1632 -0.2488
26772W        W69763   1.029  18.179   1.776  0.0497 -0.0831 -0.2190
26773W        W69764   2.152  28.842  17.869  0.0950 -0.1428  0.0825
26774W        W69765   7.127   2.228  15.784 -0.0191 -0.1201  0.0203
26775W        W69766  28.747  34.242  13.410  0.0479  0.3309  0.4147
26776W        W69767  28.073  33.968  23.210  0.0097  0.0822 -0.0298
26777W        W69768  33.415  27.793  24.014 -0.1220  0.0996  0.0239
26778W        W69769  25.138   6.717  13.745  0.3067 -0.2901 -0.0616
26779W        W69770  22.750   4.696  24.187 -0.0826 -0.1380  0.2225
26780W        W69771  31.498  27.252  17.120 -0.0403  0.1983  0.0664
26781W        W69772  26.824   0.751  20.392 -0.1175  0.0411 -0.0810
26782W        W69773   0.445   6.850  27.146 -0.1038  0.2280 -0.0320
26783W        W69774  23.795  30.456  20.614  0.0891 -0.3078  0.0452
26784W        W69775  18.550   5.019  21.848  0.0475 -0.2637 -0.2080
26785W        W69776  30.477  32.866  18.654  0.0272 -0.3716 -0.1540
26786W        W69777  24.931  12.492  22.168 -0.1514  0.1705  0.2426
26787W        W69778  21.458   3.244  20.915  0.2585 -0.0816 -0.0292
26788W        W69779   1.163  25.142  16.176  0.6350 -0.0339  0.0920
26789W        W69780  11.243  19.018  23.205 -0.2112 -0.1310  0.0853
26790W        W69781  14.159  20.905  15.498 -0.0232 -0.0460  0.0252
26791W        W69782  15.184  22.537  28.532 -0.3356 -0.2526 -0.0684
26792W        W69783  31.571  21.145  22.030 -0.0807 -0.3916 -0.2702
26793W        W69784  19.832   2.474  21.623 -0.1138 -0.2018  0.1471
26794W        W69785  27.486  15.605  28.003 -0.0461 -0.2263 -0.0861
26795W        W69786   1.527  28.029  18.825 -0.4033 -0.2280  0.0653
26796W        W69787  20.404   9.058   7.365 -0.0160  0.1205  0.1482
26797W        W69788  30.211  25.204  26.410 -0.2091  0.0987 -0.0309
26798W        W69789  31.158  23.991   8.949  0.0094 -0.0433 -0.0567
26799W        W69790  24.238  28.576  17.240 -0.1568 -0.3624  0.0528
26800W        W69791   3.521  11.631  24.243  0.0487 -0.1096 -0.0535
26801W        W69792  33.235  32.006   5.895 -0.1109 -0.1082 -0.0125
26802W        W69793  24.032  22.792  22.638 -0.2468  0.0548  0.0845
26803W        W69794   2.905  23.087  27.855 -0.1568 -0.1862 -0.5737
26804W        W69795  23.007   1.881   0.712 -0.1909 -0.1756 -0.2984
26805W        W69796  10.618   5.072  23.775 -0.1968 -0.2796 -0.0041
26806W        W69797  31.370  17.130  27.951  0.1692  0.0892  0.0874
26807W        W69798  34.215  17.052  23.429 -0.1646 -0.1511 -0.3163
26808W        W69799  24.442  15.020   2.342 -0.0336  0.1995 -0.1569
26809W        W69800   0.135   1.942  23.849 -0.1184  0.4222 -0.1492
26810W        W69801  31.113  33.276  15.927 -0.0321 -0.1075  0.1927
26811W        W69802  17.824  23.469  25.310 -0.1597 -0.0116 -0.1153
26812W        W69803  23.589  31.362  26.415  0.0329  0.0514  0.0797
26813W        W69804  15.501   3.644  21.423 -0.1683  0.2839  0.3867
26814W        W69805  27.608   2.732  26.536  0.2804  0.1603 -0.0130
26815W        W69806  18.589  22.247  16.871 -0.1140 -0.0505  0.1401
26816W        W69807  10.042  25.519  25.636 -0.2093 -0.1000  0.1440
26817W        W69808   7.423  11.739   9.097 -0.2198 -0.0844 -0.0023
26818W        W69809  16.244  31.567  14.502  0.3552  0.0353  0.0362
26819W        W69810  24.317   6.476  13.876 -0.1439  0.1797  0.2627
26820W        W69811  32.845  11.565  22.148  0.0494  0.0580 -0.0671
26821W        W69812  33.046  21.060  21.571  0.3719  0.0504 -0.0653
26822W        W69813  20.689  27.973  21.810 -0.3086  0.1737  0.4058
26823W        W69814  30.146  32.242  12.820 -0.0562  0.1668  0.1376
26824W        W69815   0.415   7.133   3.739  0.3438 -0.0557 -0.0138
26825W        W69816  31.326   5.776  14.224  0.0099 -0.3148  0.0434
26826W        W69817  26.227  18.648  18.745  0.0393 -0.1386 -0.2938
26827W        W69818  27.588  19.844  16.875 -0.0353 -0.0859 -0.4458
26828W        W69819  24.977  27.066   0.712 -0.2943  0.1729  0.0180
26829W        W69820  21.282   2.863  14.007  0.2404 -0.1617 -0.0084
26830W        W69821  29.991  21.991  26.408 -0.0190  0.1592 -0.1121
26831W        W69822  25.004  18.536   1.728  0.0876 -0.1711 -0.2437
26832W        W69823  31.407  23.475   9.166  0.1777  0.0625 -0.1209
26833W        W69824  22.341  28.493  18.461  0.1183 -0.1141  0.0543
26834W        W69825  32.298  20.696   1.188  0.0328  0.0555  0.3146
26835W        W69826  21.181  33.332   6.431 -0.2193  0.0796 -0.2109
26836W        W69827   8.687  25.688   4.475  0.0884  0.1264  0.0304
26837W        W69828   4.588  20.484  29.093  0.0371 -0.0376  0.2303
26838W        W69829  27.394   1.254   7.051  0.0101  0.0536 -0.1197
26839W        W69830  28.515  25.502   1.042 -0.0800 -0.3548  0.0840
26840W        W69831  28.466  30.720  22.604  0.1140  0.1432  0.0530
26841W        W69832  13.516  23.108  13.669 -0.2545  0.0383 -0.0202
26842W        W69833  25.174   2.045  19.624  0.1260 -0.1818 -0.3553
26843W        W69834   9.194  34.254  23.321 -0.0330 -0.0807 -0.1161
26844W        W69835  18.692  14.677  12.807 -0.2596  0.2353 -0.0049
26845W        W69836  26.403  30.608   1.407  0.0122 -0.0243 -0.2727
26846W        W69837  27.120   9.560  25.970  0.1225  0.0331 -0.1273
26847W        W69838  16.708  24.120  17.017  0.1268 -0.0415 -0.2298
26848W        W69839  29.743  10.898  22.595  0.1528  0.3846 -0.0647
26849W        W69840  32.791  26.756  21.425  0.2534 -0.0275  0.0044
26850W        W69841  26.160  21.063  24.072 -0.3350 -0.2031 -0.1003
26851W        W69842   0.497  15.691  21.395 -0.1882  0.2294 -0.2956
26852W        W69843  28.709  25.735  28.231  0.2431 -0.0960  0.0310
26853W        W69844  29.286  33.310  14.911 -0.0272  0.4125  0.1372
26854W        W69845   0.129  26.980   0.535 -0.0979  0.1598  0.0532
26855W        W69846  19.762   2.485  28.025 -0.1730 -0.1001 -0.0584
26856W        W69847   1.030  28.470   0.178 -0.0588  0.1282 -0.0045
26857W        W69848  23.758   8.115  17.667  0.0904  0.1956  0.1301
26858W        W69849  23.419  22.595  26.092  0.0402  0.1000  0.1470
26859W        W69850  31.364  21.680   7.508  0.1135  0.0056 -0.0578
26860W        W69851  32.396   0.198  22.874 -0.1416  0.0952  0.0536
26861W        W69852  17.504   0.617  26.784  0.0192 -0.1801 -0.0397
26862W        W69853  22.922  25.911  22.907 -0.1758  0.1010  0.1637
26863W        W69854  14.811  28.374  25.982  0.2657 -0.1729 -0.0953
26864W        W69855   7.940  26.681  27.029  0.0009  0.0331  0.1646
26865W        W69856  25.939  28.977  22.275 -0.0896 -0.2438  0.0472
26866W        W69857  25.750  24.248   4.853  0.0222  0.0050 -0.2014
26867W        W69858   0.191  28.677  19.534 -0.2803 -0.2408  0.3467
26868W        W69859  11.777  33.198  16.527 -0.1593 -0.3875 -0.0572
26869W        W69860  16.359  10.151  21.210 -0.4588  0.0226  0.0267
26870W        W69861  10.208   9.670   1.600  0.1377 -0.1819 -0.0175
26871W        W69862  20.443  27.786  16.947 -0.0416 -0.0626 -0.1650
26872W        W69863  24.098  27.545  21.586 -0.0112 -0.0252 -0.1613
26873W        W69864  15.637   2.746  22.449 -0.3349  0.2343  0.3227
26874W        W69865  19.554  28.424   0.490  0.1266 -0.0718 -0.0292
26875W        W69866   4.186  19.628  22.055  0.3813  0.2117 -0.1699
26876W        W69867   2.662   3.390  18.992 -0.2564  0.0421 -0.3364
26877W        W69868  27.643  25.083  14.811  0.0229  0.0536 -0.1468
26878W        W69869   7.663  27.574  15.038 -0.2683 -0.0755 -0.1566
26879W        W69870  28.923  21.431  27.112 -0.1382 -0.2541 -0.1367
26880W        W69871   1.152  18.884   4.421  0.0755 -0.2869 -0.2624
26881W        W69872  23.061  31.238  25.614 -0.1775 -0.0281  0.1268
26882W        W69873  29.534   6.375  20.734  0.4243  0.1060  0.0423
26883W        W69874  24.544  21.976   6.967 -0.0346 -0.0580 -0.1431
26884W        W69875  26.917  26.727  21.496  0.1769  0.0050  0.0238
26885W        W69876  30.721  34.528  20.625  0.0518  0.0631  0.1105
26886W        W69877  19.449   4.255  20.747  0.0258  0.2649 -0.2554
26887W        W69878  14.877  22.841  13.112 -0.1252  0.1727  0.1148
26888W        W69879  29.514  31.709  15.794  0.1617 -0.0070  0.2430
26889W        W69880   0.350  21.430  27.492 -0.0461 -0.0190  0.2014
26890W        W69881   4.296  33.410   0.955  0.1526 -0.0320 -0.2466
26891W        W69882  29.908   0.910  18.845  0.2449  0.1671 -0.2429
26892W        W69883  29.040  25.772   2.936 -0.2209 -0.0197  0.3125
26893W        W69884  29.644  30.573  13.655  0.1471 -0.2190  0.1614
26894W        W69885  32.274  30.048   5.607 -0.0177  0.0197 -0.0200
26895W        W69886  32.369  27.492  29.077 -0.2031  0.1855  0.1752
26896W        W69887  22.208   3.558   0.525 -0.1733  0.0529  0.1541
26897W        W69888  33.472  20.526  16.992 -0.0469 -0.0146  0.1989
26898W        W69889  33.519  27.617  15.884 -0.1060 -0.1539  0.2513
26899W        W69890   1.836   4.512  18.129  0.0958  0.2626 -0.4358
26900W        W69891  26.763  19.359   1.215  0.1214 -0.1575  0.4924
26901W        W69892  12.032  29.522   9.812 -0.3294  0.4131 -0.1730
26902W        W69893  20.011  20.970   0.247 -0.0725 -0.0607 -0.1005
26903W        W69894   1.557   1.607  27.869 -0.1806  0.0899  0.0965
26904W        W69895   9.183  20.413  19.109  0.1452 -0.0690 -0.0759
26905W        W69896  28.049  28.879  16.626  0.2655 -0.0862  0.0095
26906W        W69897  23.716  32.872  15.324 -0.1977  0.1588 -0.0018
26907W        W69898   0.951  24.422  28.509  0.1564  0.1625  0.0702
26908W        W69899  32.909  27.978   6.186  0.0110  0.0290  0.0519
26909W        W69900   6.420  28.621  25.039 -0.5157 -0.3625  0.1751
26910W        W69901  25.185  25.279  24.238  0.2414 -0.1660  0.2089
26911W        W69902  21.603  26.934   7.360 -0.1992 -0.1277  0.3077
26912W        W69903   4.924  14.629  20.606 -0.1575 -0.1581  0.3158
26913W        W69904   6.319  27.941  28.735  0.1510  0.2157  0.2003
26914W        W69905   0.126  23.637  17.684  0.0101  0.0683 -0.0163
26915W        W69906  25.442   1.258   9.521  0.0348 -0.1361  0.0143
26916W        W69907  29.682  24.107   2.400 -0.0785  0.3888 -0.4032
26917W        W69908   2.652  30.161   6.630 -0.3012 -0.1981 -0.3445
26918W        W69909  14.335  28.769  28.398  0.3345 -0.2513 -0.2847
26919W        W69910  16.647  20.644  24.675  0.0616 -0.0692 -0.0128
26920W        W69911  31.021  15.879  15.542 -0.0553  0.1868 -0.2701
26921W        W69912   5.734   5.528   2.058 -0.0142  0.1263  0.2222
26922W        W69913  22.400  25.423  15.421  0.0071 -0.4566  0.0821
26923W        W69914  21.904  25.749  23.697 -0.3736  0.0191  0.1355
26924W        W69915  15.193  32.828  28.002 -0.1606 -0.0692  0.2046
26925W        W69916  10.332   8.160  25.929 -0.1878 -0.4316  0.2813
26926W        W69917   3.745  22.957  17.374 -0.0211 -0.1370  0.1356
26927W        W69918  21.917  17.344  14.104  0.1819  0.4480 -0.2644
26928W        W69919   0.034  26.598  14.350 -0.1621 -0.0772 -0.1736
26929W        W69920   3.741  29.908   9.480 -0.2547 -0.1339 -0.3700
26930W        W69921  14.959  26.693  19.626 -0.0314 -0.0762 -0.0443
26931W        W69922  26.314   3.509   6.701  0.4043  0.2560  0.2012
26932W        W69923  33.690   3.920   0.376  0.1895 -0.2384  0.0294
26933W        W69924  23.685  30.445  17.516 -0.0346 -0.1472 -0.1296
26934W        W69925  10.405   9.074  16.613 -0.0071  0.2039 -0.1530
26935W        W69926   4.490  23.424   1.698 -0.1948  0.1147 -0.2906
26936W        W69927   3.095  27.030  19.930  0.2250  0.0031 -0.2822
26937W        W69928  21.930  19.296  14.888 -0.2226  0.1940  0.1817
26938W        W69929  23.841  23.955  20.917  0.3183  0.0330 -0.0207
26939W        W69930  32.790  25.505   4.935 -0.1391  0.4011 -0.2095
26940W        W69931   5.057  17.328  18.123  0.1324  0.2063  0.2020
26941W        W69932  34.132  18.633  16.189 -0.1549 -0.3020  0.2170
26942W        W69933  27.757  32.057   8.309 -0.0290  0.1086  0.1600
26943W        W69934  30.984  28.136  27.194 -0.0273 -0.0753 -0.0443
26944W        W69935  23.288  27.948  18.830  0.2610 -0.0721  0.0368
26945W        W69936  33.798   8.351   6.506  0.2635 -0.1238 -0.1437
26946W        W69937   9.087  12.894  22.790 -0.1065 -0.0514 -0.1460
26947W        W69938  24.072  22.401   1.263  0.0327 -0.6029 -0.0167
26948W        W69939   3.880   6.773  26.229  0.0752  0.1899 -0.1760
26949W        W69940   4.041  12.471  15.916  0.0910  0.1679  0.1007
26950W        W69941  28.855  28.457  23.266 -0.0507 -0.2293  0.3391
26951W        W69942  32.983  28.634   4.602  0.2887 -0.1068  0.1917
26952W        W69943  25.454  34.570  22.497 -0.1497 -0.0326 -0.2213
26953W        W69944  22.063  32.781   4.272  0.1054  0.0382 -0.0611
26954W        W69945  29.962  34.789  14.584  0.1213 -0.3429 -0.1452
26955W        W69946  24.194  18.721  13.988 -0.0952  0.0338 -0.2483
26956W        W69947  25.008  31.539  12.865  0.1550 -0.0910 -0.1394
26957W        W69948  32.258   4.705   1.769  0.0809  0.0144  0.1910
26958W        W69949  12.572  11.601  21.545 -0.0706 -0.0719  0.0877
26959W        W69950  12.863  31.612  23.590  0.0969  0.0981  0.0160
26960W        W69951  31.978   1.015  17.334 -0.0321 -0.0411  0.2119
26961W        W69952  17.329   1.687  15.636 -0.0532  0.1105 -0.1942
26962W        W69953  32.213   2.283   3.275 -0.1447  0.0471 -0.0184
26963W        W69954  18.306   8.631   8.137  0.1844  0.4571 -0.0610
26964W        W69955  16.899  25.055  13.155  0.0308 -0.0197 -0.0925
26965W        W69956  19.153  20.854  21.052 -0.2482  0.3070 -0.0983
26966W        W69957  20.344  20.354  21.994 -0.1598  0.2106  0.0227
26967W        W69958  20.555   6.943   4.655  0.0143 -0.2641 -0.0705
26968W        W69959  22.458   2.676   6.341  0.1300  0.2006  0.1875
26969W        W69960   1.950  27.013   8.825 -0.0726 -0.0400 -0.2893
26970W        W69961  22.016  24.861  20.986  0.3062  0.0616 -0.1235
26971W        W69962  34.571  28.040   5.603  0.0141 -0.1465  0.1366
26972W        W69963  21.982  24.439  17.254  0.2097 -0.0131  0.0527
26973W        W69964  20.655  26.718  27.604 -0.3900 -0.0326 -0.0837
26974W        W69965   4.978  26.526  10.105 -0.3183 -0.1422  0.0091
26975W        W69966  25.701   5.500  19.468  0.1405 -0.0155  0.1151
26976W        W69967   8.790  34.743  15.401  0.0187  0.1976  0.1165
26977W        W69968  33.642  29.847  28.865  0.0318  0.2092  0.3536
26978W        W69969   5.047  29.100   5.467  0.1104 -0.0105  0.3511
26979W        W69970  28.574  22.929  25.994  0.2650 -0.0227  0.2171
26980W        W69971   8.869  13.099   3.847 -0.0501  0.2503 -0.0973
26981W        W69972  19.025  14.453   3.299  0.0185 -0.1952  0.0271
26982W        W69973   3.922  34.676   6.811 -0.3298 -0.0478  0.0953
26983W        W69974  19.626  23.500   1.156 -0.1014 -0.1365  0.1171
26984W        W69975  30.820  32.114  19.885 -0.0646 -0.2696  0.1121
26985W        W69976  24.837  16.249  14.020 -0.0114 -0.2828 -0.1840
26986W        W69977  26.944  21.446  25.346 -0.1728  0.1730  0.0162
26987W        W69978  12.512   3.559  20.693 -0.2658  0.1022 -0.1153
26988W        W69979  27.427   8.399  10.061  0.4768  0.1600 -0.5038
26989W        W69980  14.154  19.677  16.929 -0.2103 -0.2921  0.0837
26990W        W69981  20.471   6.925  20.813  0.0294  0.2805  0.1535
26991W        W69982  30.342   2.634   3.836  0.0540 -0.2122  0.0013
26992W        W69983  27.878   4.796  18.709 -0.2709 -0.0532  0.0775
26993W        W69984  23.420   8.662  20.314  0.0513  0.2025 -0.0551
26994W        W69985  14.594  25.132  14.075  0.2385  0.0579  0.1813
26995W        W69986  33.192  27.037   0.582 -0.4310 -0.0580 -0.0725
26996W        W69987  33.483  25.810   7.589 -0.0051 -0.0764 -0.2628
26997W        W69988   7.081  25.032  26.665 -0.0933  0.0084 -0.1802
26998W        W69989  21.377  33.253  27.452 -0.4872  0.4175 -0.1482
26999W        W69990  16.854  28.737   2.398 -0.0695  0.2334  0.2559
27000W        W69991  25.172  34.010  24.148  0.2473  0.1068 -0.1150
27001W        W69992   2.806   6.489  17.764  0.1908 -0.0351  0.0458
27002W        W69993   7.416  29.937   6.344  0.0636  0.1265 -0.3317
27003W        W69994  28.056  25.000  16.353 -0.2203 -0.3544 -0.1027
27004W        W69995  13.877   1.689   1.079  0.0787  0.3633  0.2382
27005W        W69996  13.206  16.867  14.130  0.1737 -0.1135  0.0191
27006W        W69997  30.629   9.633  28.436 -0.1744  0.0634  0.0760
27007W        W69998  29.630  29.483  16.764  0.5896 -0.2889  0.2474
27008W        W69999  24.426   2.320  22.741 -0.2474 -0.1163  0.0595
27009W        W70000  23.009  17.953  14.155  0.2926 -0.0073 -0.1046
27010W        W70001  16.500  22.625  13.833  0.0297 -0.0182  0.0976
27011W        W70002   1.735   1.496   3.876 -0.0397 -0.2190 -0.2567
27012W        W70003  25.767  26.082  18.903  0.2070  0.1945  0.0206
27013W        W70004   4.882   2.481   0.928  0.0349 -0.1946 -0.1611
27014W        W70005   1.419  13.270  16.463  0.4036 -0.2471 -0.2241
27015W        W70006  24.574  19.140  21.415  0.0917  0.2696  0.0951
27016W        W70007  30.753  25.340  19.034 -0.1837  0.2081  0.0462
27017W        W70008  20.023  20.826   7.993 -0.0200 -0.2030 -0.3087
27018W        W70009  22.141   3.931   6.763  0.3571 -0.1354 -0.2052
27019W        W70010   2.346  22.419  28.921 -0.1290  0.0158  0.2716
27020W        W70011   9.019  29.017  17.680  0.0142 -0.1413 -0.0975
27021W        W70012  10.703   1.145  21.853  0.1633  0.4113 -0.2811
27022W        W70013  14.751  25.540  23.674 -0.2175  0.1612 -0.0140
27023W        W70014  19.287  20.823   0.707 -0.1578  0.0487  0.0348
27024W        W70015  10.755  23.110  20.971 -0.2321 -0.1746  0.0819
27025W        W70016   0.663  28.851   6.842 -0.2444 -0.0974 -0.2120
27026W        W70017  28.331   6.182   5.943 -0.2548  0.3666 -0.4380
27027W        W70018   4.112  11.973  21.299  0.2777  0.0275  0.3205
27028W        W70019   9.812   6.467   7.254  0.0691  0.0814  0.2787
27029W        W70020  22.910  33.654   6.169 -0.0854  0.0762 -0.2803
27030W        W70021  27.770  21.087   4.816 -0.1228  0.0750  0.0088
27031W        W70022  31.382  25.755  17.024  0.1266 -0.0146  0.4013
27032W        W70023  25.456   1.895  22.884 -0.0541  0.2825  0.0275
27033W        W70024  28.341  22.715   8.845 -0.1886  0.0543  0.1320
27034W        W70025  14.805  28.826  15.959 -0.0524  0.2110  0.1154
27035W        W70026  26.421   7.833  22.185 -0.1571 -0.0879  0.0873
27036W        W70027  29.715  20.961  22.729 -0.1612  0.2859  0.2570
27037W        W70028   0.423  11.459  24.456  0.1978 -0.0206 -0.0034
27038W        W70029   9.678  26.408   1.721  0.0624 -0.3079  0.2662
27039W        W70030  14.652  23.297  21.378  0.1583  0.0540  0.1084
27040W        W70031  33.704   0.852   5.693  0.1138 -0.0467 -0.1194
27041W        W70032  13.816  15.448  25.290 -0.0429  0.0352  0.0544
27042W        W70033   0.303  33.626  24.882 -0.2119  0.2020 -0.1936
27043W        W70034  30.564  33.889  21.258 -0.2170  0.0205 -0.0619
27044W        W70035  12.960  34.706  21.893  0.0788  0.3339 -0.3283
27045W        W70036  22.222   2.739   5.878  0.3669 -0.1002  0.0290
27046W        W70037  16.925  29.216  23.358 -0.0803 -0.3402  0.3678
27047W        W70038  17.833  17.494  24.651  0.2529 -0.1942 -0.1276
27048W        W70039  28.396  33.789  25.419 -0.2671  0.4385  0.1338
27049W        W70040  11.961  30.851   8.624 -0.1449 -0.1634 -0.1423
27050W        W70041   8.843   0.875  21.832 -0.0375  0.1137 -0.0481
27051W        W70042  18.819   9.160  21.994  0.1589 -0.4417 -0.0062
27052W        W70043  21.525   7.910  10.070 -0.1303  0.0981 -0.0982
27053W        W70044   6.456   1.909   2.493 -0.2892  0.3032  0.1717
27054W        W70045  20.994  12.203  17.349 -0.2518  0.0024  0.1761
27055W        W70046  29.008  19.665  21.574 -0.1175 -0.3089  0.1367
27056W        W70047  19.390   9.646  25.655 -0.2901  0.1218 -0.2666
27057W        W70048  33.777  34.199  19.929 -0.0585  0.0102  0.0284
27058W        W70049  32.682  32.024   5.909 -0.1380 -0.1170  0.0447
27059W        W70050  32.035  33.504   8.909  0.1956  0.1134 -0.1276
27060W        W70051  32.132   0.803   7.065 -0.1913  0.0863 -0.0548
27061W        W70052   1.487  24.285  28.394 -0.4072 -0.1347  0.0615
27062W        W70053  23.053  11.426  14.573 -0.1790  0.0249 -0.1321
27063W        W70054  28.902   2.093  20.216  0.1263 -0.1592  0.0768
27064W        W70055   9.771  21.717   1.789  0.0538  0.0989  0.3485
27065W        W70056   5.060  33.169  26.227 -0.0737 -0.2204 -0.3862
27066W        W70057  24.942  12.554  15.511 -0.2362 -0.4386 -0.1160
27067W        W70058  27.568  33.279  25.840 -0.0739  0.0562  0.1285
27068W        W70059   4.836   5.491  17.369 -0.1715  0.0757 -0.1840
27069W        W70060  29.361  15.350   6.452  0.1868 -0.0073 -0.2364
27070W        W70061  15.632  24.416  25.543 -0.4308 -0.2141 -0.0924
27071W        W70062  33.778  31.845  19.144  0.0130  0.1210  0.0903
27072W        W70063  29.101  34.291   3.645  0.2809  0.2556  0.0115
27073W        W70064  23.420  11.264  17.220 -0.1440  0.0226 -0.0348
27074W        W70065  16.598  16.694  21.327  0.0644 -0.0199 -0.0350
27075W        W70066  31.580  25.673  27.298 -0.0075  0.2921  0.0133
27076W        W70067  28.913  25.078  17.406 -0.1581 -0.2002 -0.2221
27077W        W70068  33.403  32.171  25.464 -0.2602  0.1859 -0.1652
27078W        W70069  23.327  18.662   6.763  0.1374 -0.1782  0.0052
27079W        W70070   8.865  33.501   0.284 -0.2980 -0.4524 -0.0693
27080W        W70071  19.145  26.341   1.331 -0.1607  0.1821 -0.2459
27081W        W70072  24.172  24.775   5.719 -0.1762  0.1205  0.0289
27082W        W70073  22.164   3.489   6.967  0.0330  0.0884  0.1649
27083W        W70074  33.946  21.735  22.444 -0.1824  0.1691 -0.1732
27084W        W70075  23.948  24.107  27.170  0.0216 -0.1579  0.1751
27085W        W70076  30.727  32.550  22.685  0.0094 -0.0504 -0.2941
27086W        W70077  27.219  23.553  20.894 -0.3475  0.0520 -0.3382
27087W        W70078  33.779   0.151  20.241  0.2098  0.0061  0.1261
27088W        W70079  26.475  16.549  19.133 -0.2306  0.1066  0.0085
27089W        W70080   9.539  30.289  19.945  0.0448  0.2567 -0.0788
27090W        W70081   0.363  19.017  17.577  0.1747  0.1868  0.0448
27091W        W70082  17.366  20.374  21.097  0.2470  0.0969  0.0804
27092W        W70083   1.512  14.746   5.214 -0.2464 -0.0031 -0.1420
27093W        W70084   1.140  22.265  25.621 -0.2630 -0.0878 -0.0720
27094W        W70085   2.259  26.332  15.929  0.3544 -0.0818 -0.2611
27095W        W70086  31.408  31.181   0.399 -0.0703  0.0075  0.1489
27096W        W70087  25.750  28.390  24.289  0.0283  0.2948  0.3945
27097W        W70088  24.615  24.803  19.212  0.0446  0.0869  0.2035
27098W        W70089  31.126  12.724  10.155 -0.1496 -0.0797 -0.1953
27099W        W70090  28.681  16.738  15.784  0.0714  0.0026  0.2434
27100W        W70091   6.902  28.342  20.638 -0.2573  0.0207 -0.0229
27101W        W70092   9.886  22.957  10.209 -0.0233 -0.1334  0.5913
27102W        W70093   7.924  10.389  22.340  0.1532 -0.1074  0.0138
27103W        W70094  29.634  24.216  27.986  0.3001 -0.3752  0.0994
27104W        W70095  22.399  20.828  26.373  0.1467 -0.0902 -0.2163
27105W        W70096  28.554   3.953  17.988 -0.0313  0.0122  0.2722
27106W        W70097  24.263  26.476  22.616  0.2156 -0.0659  0.0432
27107W        W70098  33.440   5.560  25.279  0.0951 -0.0305  0.2046
27108W        W70099  33.980  24.583   6.485 -0.1704 -0.0650  0.1232
27109W        W70100  30.437  29.851  21.000 -0.0843  0.2998  0.0659
27110W        W70101  29.318   6.888  29.190 -0.2932 -0.1438 -0.1521
27111W        W70102  18.672   6.498   2.149 -0.1860 -0.0158  0.0536
27112W        W70103  29.298  25.034  17.734  0.0536  0.0390 -0.3233
27113W        W70104  18.036  32.669  16.203  0.0007  0.1759 -0.1065
27114W        W70105  34.300  26.275  28.353  0.0312  0.0138  0.3113
27115W        W70106  24.745  31.978   6.031 -0.2065  0.2086  0.1443
27116W        W70107  32.230  11.965  18.033  0.2043 -0.2629  0.1509
27117W        W70108  26.104  21.566  22.506 -0.0454  0.2107 -0.3095
27118W        W70109  24.976  27.924  13.044 -0.2402 -0.3869  0.3124
27119W        W70110  33.543   1.138   1.130 -0.1131 -0.1240  0.2508
27120W        W70111  23.137  29.002  21.311 -0.1637  0.0800 -0.2105
27121W        W70112  17.658  29.148  18.989  0.2442  0.4072  0.0946
27122W        W70113   0.563   4.590  27.656 -0.1136  0.0151 -0.1910
27123W        W70114  25.993  31.641  14.294  0.3144 -0.3074 -0.0281
27124W        W70115  31.544  26.244  23.308  0.0665 -0.1543 -0.4713
27125W        W70116  23.396  26.284   1.218  0.4983  0.0804  0.2790
27126W        W70117  27.876  18.196  26.559  0.0787  0.4770  0.1371
27127W        W70118  25.103  12.879   6.538  0.1924  0.0859 -0.2564
27128W        W70119   8.728   5.467  18.240  0.1757  0.4203 -0.1455
27129W        W70120  18.577  24.388  20.982  0.1238  0.3585  0.2468
27130W        W70121  25.457  31.421  24.589  0.1275 -0.0893 -0.1126
27131W        W70122  17.728  32.029  17.935  0.0129  0.1991 -0.2330
27132W        W70123  33.669  28.510  15.907  0.3466  0.0858 -0.2326
27133W        W70124  29.852   0.544  21.487 -0.1080  0.2957 -0.0059
27134W        W70125   3.733  22.200  16.800 -0.1467  0.3365  0.1752
27135W        W70126  23.592   8.483  19.536 -0.2355 -0.2712  0.1357
27136W        W70127  18.815  29.698  15.473  0.0430 -0.2095 -0.3302
27137W        W70128   1.568  34.310  27.791 -0.1999  0.1981 -0.3096
27138W        W70129   4.175  19.440   9.194 -0.0902 -0.4021 -0.0384
27139W        W70130  21.405  17.301   0.963 -0.2945  0.2681  0.1061
27140W        W70131  14.827  21.050  24.324 -0.1427  0.1162 -0.0252
27141W        W70132   6.080  31.247  17.993 -0.1918  0.1435 -0.0681
27142W        W70133  21.589  26.501  15.131  0.0227  0.0658  0.2052
27143W        W70134  10.628  17.279   1.852  0.0176  0.1689 -0.2725
27144W        W70135  27.363  31.632  27.135  0.0094 -0.3078  0.1441
27145W        W70136  14.670  27.032  14.187 -0.2348 -0.0145 -0.1190
27146W        W70137  31.590  31.707   6.639  0.2049 -0.1998 -0.0215
27147W        W70138  31.646  16.117  21.071 -0.1375 -0.1422  0.2179
27148W        W70139  23.416  11.986  16.315 -0.0925 -0.0097  0.2441
27149W        W70140  23.693  33.110  13.610  0.2356 -0.0870 -0.1928
27150W        W70141  13.058  19.508   0.058  0.2134  0.0446  0.2689
27151W        W70142  30.155   3.650   5.936 -0.0394 -0.2192  0.1668
27152W        W70143   8.065  19.846   4.146  0.2634  0.0252 -0.0284
27153W        W70144  11.939  29.547  25.748 -0.0004  0.3261 -0.2006
27154W        W70145  13.696  33.318  25.329  0.2654  0.1624 -0.0580
27155W        W70146  15.250  28.768  15.521 -0.1896  0.0788 -0.1285
27156W        W70147  22.565  14.433  27.816 -0.1615 -0.0256  0.1162
27157W        W70148  26.388  29.235  22.557 -0.2944  0.1472  0.2161
27158W        W70149  31.993  33.265  21.622 -0.1719 -0.0094 -0.0681
27159W        W70150  22.836  22.945   7.713  0.1611  0.0109 -0.0357
27160W        W70151  21.418  25.556  19.882  0.0486 -0.2507 -0.0047
27161W        W70152  31.880   1.489   7.024 -0.1114  0.3420  0.0851
27162W        W70153  22.921  34.006  18.019 -0.0198  0.1467  0.0310
27163W        W70154  29.311  15.398  23.834  0.0273 -0.4925  0.4236
27164W        W70155   3.532  31.946   0.351  0.1547  0.2437  0.0315
27165W        W70156  32.625   8.500  19.265  0.4000  0.2560 -0.1114
27166W        W70157  31.706  22.716   9.827  0.2247 -0.2656  0.1749
27167W        W70158   0.203   0.912  18.855 -0.0832 -0.0704  0.0253
27168W        W70159   6.876   2.171  28.767 -0.1443  0.4845  0.1303
27169W        W70160  27.766   3.477  25.106 -0.0358 -0.3556  0.1745
27170W        W70161  29.913  17.156  19.004 -0.2492  0.1267  0.1544
27171W        W70162  31.063  30.712  15.337 -0.1727  0.1880  0.1258
27172W        W70163  11.083  25.822  14.943  0.2548 -0.0039 -0.0016
27173W        W70164  27.786  25.219  24.278  0.1429  0.1195  0.0996
27174W        W70165  19.763  29.479   0.462  0.0263 -0.1195  0.1704
27175W        W70166  28.526   1.347  23.054  0.0036 -0.0217  0.1092
27176W        W70167  30.689  21.580  22.226  0.1150 -0.0231 -0.3729
27177W        W70168  29.886  30.024  20.410  0.0854  0.2575  0.3468
27178W        W70169  24.465  26.891  22.823 -0.2119 -0.0355 -0.0773
27179W        W70170  20.997  24.550   7.026  0.2943  0.1263 -0.1724
27180W        W70171  18.296  31.221  16.088 -0.1131  0.1919 -0.0943
27181W        W70172   9.280  26.898   3.326 -0.0110  0.1915 -0.1292
27182W        W70173   3.468  18.053  15.305 -0.1958 -0.2384 -0.3030
27183W        W70174   5.176   4.716  26.764 -0.2634  0.3115  0.0735
27184W        W70175  24.993  19.828   5.169 -0.0510  0.2885  0.1921
27185W        W70176  26.956   4.733  17.003  0.0690  0.0418 -0.2366
27186W        W70177   5.120   4.455  20.421 -0.1078 -0.3697  0.0416
27187W        W70178  28.679   1.929   7.252 -0.0351  0.0961 -0.1431
27188W        W70179  30.318  21.661  24.400 -0.1196 -0.0311  0.0247
27189W        W70180  19.856  32.538  18.196 -0.1062 -0.2105  0.1578
27190W        W70181  20.597  20.248   2.863  0.2953 -0.0461  0.1518
27191W        W70182  27.556   4.633   6.299  0.0808 -0.0394  0.3483
27192W        W70183  26.868  32.043  20.196  0.0542 -0.0434  0.0245
27193W        W70184  19.843  23.416   8.655  0.2418 -0.1979 -0.0281
27194W        W70185   2.895  19.297  27.611  0.2388  0.0366 -0.0384
27195W        W70186  33.562  28.746   1.498 -0.3119  0.3508  0.1557
27196W        W70187   5.956  27.738  20.769  0.0836 -0.0460 -0.0753
27197W        W70188   0.588   2.117  27.751  0.1082  0.2868  0.0698
27198W        W70189  15.373  31.537  25.979  0.1204 -0.1454 -0.1528
27199W        W70190   7.814  20.160   1.833 -0.3081 -0.0954  0.2322
27200W        W70191  28.153  27.662  25.896  0.3097  0.0615 -0.0791
27201W        W70192   1.104   3.263   0.610  0.2658  0.0871  0.5710
27202W        W70193  14.152  19.992   4.657  0.3967 -0.4155 -0.2097
27203W        W70194  25.500   4.581   2.248  0.1612  0.1536 -0.2631
27204W        W70195   2.679  18.951  20.323 -0.1548 -0.3862  0.4688
27205W        W70196  28.146  23.732  25.693  0.0054  0.1821 -0.3273
27206W        W70197  33.158  23.265   4.400 -0.0508  0.3145 -0.1197
27207W        W70198   8.172  26.036  25.828 -0.0962  0.2193  0.0534
27208W        W70199   1.141  26.967   1.586  0.0705  0.0854 -0.3454
27209W        W70200  24.692   8.724   3.709 -0.0078  0.1452  0.1917
27210W        W70201   3.399  31.249  20.964  0.1421 -0.0415  0.4667
27211W        W70202  25.035  10.052  23.115 -0.4022  0.2372 -0.0163
27212W        W70203  27.414  15.783  15.178  0.1599  0.0734  0.2170
27213W        W70204  27.461   2.981  19.157 -0.1097  0.0327  0.4418
27214W        W70205   6.630  16.064  22.725  0.1340 -0.2156  0.0961
27215W        W70206  17.888  17.597  14.997 -0.0592  0.0399  0.0236
27216W        W70207  33.079  15.774  11.512 -0.2443 -0.1072  0.0261
27217W        W70208  25.594   3.513   7.275 -0.1911  0.1200  0.2130
27218W        W70209  26.871   0.135  14.013  0.3415  0.0857  0.1421
27219W        W70210  24.170  15.614  26.006  0.1221  0.1969  0.1426
27220W        W70211   5.728  22.116  19.168  0.0384 -0.3607  0.2129
27221W        W70212  22.554   8.179  14.566  0.0501  0.0265 -0.0285
27222W        W70213   3.487  34.291  16.118  0.0628  0.1726  0.1234
27223W        W70214  16.472  14.644  28.961  0.2063  0.1219 -0.0344
27224W        W70215  13.439  32.636   7.372 -0.0702 -0.0036  0.3936
27225W        W70216  14.640  28.140  14.523  0.0115 -0.3437 -0.1955
27226W        W70217  28.618  30.208  26.332  0.1170  0.2289 -0.0244
27227W        W70218  18.787  11.019   6.100 -0.1022 -0.0151 -0.2130
27228W        W70219  29.971  33.700  22.815  0.1318  0.0563  0.2079
27229W        W70220  17.030  24.041   0.157 -0.0455 -0.1186 -0.1402
27230W        W70221  14.571   0.332  20.391 -0.2171  0.0725  0.1187
27231W        W70222  21.826   1.999   2.036 -0.0046  0.0804  0.1134
27232W        W70223  20.023  18.327  13.592  0.0603  0.0350  0.1780
27233W        W70224  29.491  30.149   0.873 -0.0740  0.1998  0.1900
27234W        W70225  22.409  24.682   0.124  0.2161  0.1582  0.1270
27235W        W70226  25.004  28.559   1.808  0.0840 -0.0604  0.0429
27236W        W70227   5.400  25.475   5.450 -0.0660 -0.0197 -0.2454
27237W        W70228   1.035  32.466   6.822 -0.1722 -0.2240  0.0247
27238W        W70229  26.014  22.678  20.048 -0.0555 -0.2454  0.1477
27239W        W70230  14.621  24.128   8.211  0.0776  0.2499  0.0007
27240W        W70231  24.583  16.087  16.778  0.0750  0.1560 -0.0643
27241W        W70232   4.400  27.867  17.580 -0.0485 -0.1915  0.1341
27242W        W70233  15.616  27.740  17.071 -0.0119  0.0013  0.0283
27243W        W70234   4.213   0.778   4.571  0.1973 -0.2063 -0.3184
27244W        W70235  30.018   7.590  26.114 -0.3482 -0.0086  0.0098
27245W        W70236  29.495  13.750   0.690  0.0229 -0.0524 -0.3751
27246W        W70237   3.460  26.762  15.419  0.0051  0.0599  0.0454
27247W        W70238  20.224  26.652  20.539 -0.3888  0.0100 -0.0393
27248W        W70239  25.231   5.849  17.082  0.1859  0.2749  0.1880
27249W        W70240  16.584  25.191  28.534  0.0041 -0.3148 -0.1402
27250W        W70241  25.632  29.962   8.159  0.3232 -0.2985  0.2279
27251W        W70242   3.734  30.983  21.221 -0.2957 -0.0747  0.4623
27252W        W70243  33.972  29.522  18.203 -0.0302  0.1231 -0.1215
27253W        W70244  28.147  25.362   7.428 -0.1474  0.0624  0.0172
27254W        W70245   0.698   8.633  16.134 -0.0002 -0.2778 -0.0256
27255W        W70246  13.274  22.433  12.904  0.1221  0.1864 -0.0881
27256W        W70247  31.524  18.854   7.903  0.4220 -0.0086  0.0813
27257W        W70248  29.873  15.020  21.165 -0.1721  0.0307  0.1675
27258W        W70249  15.837  16.277   4.918  0.0846  0.1192 -0.0189
27259W        W70250  32.039   3.628  16.158 -0.0131  0.3894 -0.0532
27260W        W70251   7.854  32.618  17.206 -0.1556 -0.3209 -0.0630
27261W        W70252   7.020  18.305  16.311 -0.0224 -0.1060  0.0177
27262W        W70253   2.195  24.704  24.503 -0.0186  0.2876 -0.1122
27263W        W70254   6.863  18.079  24.007  0.0449 -0.2063 -0.2643
27264W        W70255  20.930   5.404  21.874 -0.0152  0.1677 -0.1172
27265W        W70256  24.602  15.850  27.047  0.1238 -0.0893 -0.1209
27266W        W70257  20.222   1.172   6.500  0.1383 -0.0277  0.1903
27267W        W70258  24.591  19.121  26.216 -0.1386 -0.0753  0.0433
27268W        W70259  22.976  14.481   3.658  0.1052  0.1625 -0.0849
27269W        W70260  27.543  25.773   6.025 -0.2515 -0.1706 -0.0971
27270W        W70261  27.084   0.442  25.237 -0.1459 -0.0846  0.0921
27271W        W70262   6.690  16.431   2.283 -0.3398  0.2827 -0.1919
27272W        W70263  22.447  23.647  28.078  0.1534  0.0039 -0.0787
27273W        W70264   1.708  23.216  10.090 -0.2076  0.3401 -0.2824
27274W        W70265  32.950  25.936   6.663  0.0215 -0.0357 -0.0239
27275W        W70266  25.105   2.034  21.913 -0.0772 -0.0628  0.1031
27276W        W70267  28.638  18.385   2.559 -0.0811 -0.0909 -0.0991
27277W        W70268   9.303  22.960  25.718  0.0753 -0.2551 -0.1041
27278W        W70269  29.459   2.569   1.216 -0.3256  0.0775  0.0489
27279W        W70270  22.193  21.289  14.325 -0.0484  0.0004  0.1765
27280W        W70271  33.641  21.536   5.529  0.1875  0.1656  0.0273
27281W        W70272   9.537  22.421   4.069 -0.0998 -0.1049  0.0622
27282W        W70273  17.109  18.696   3.817 -0.0971  0.1653 -0.3965
27283W        W70274  14.024  24.949   4.747  0.1154  0.2651  0.0150
27284W        W70275  34.004  28.422  15.144  0.0490 -0.2626  0.1233
27285W        W70276   7.905  32.799   0.119  0.2505 -0.1788 -0.1457
27286W        W70277  14.394   8.606   4.859 -0.3112  0.1211  0.2098
27287W        W70278  27.690   6.827  23.004  0.1431  0.1353 -0.2180
27288W        W70279  22.240   5.429  18.177 -0.0182  0.1117 -0.0847
27289W        W70280  33.958  34.284   5.324 -0.0540 -0.3089 -0.0891
27290W        W70281   5.644  21.078  19.638  0.1224  0.0735  0.1825
27291W        W70282   3.682  28.639  16.646  0.1790 -0.0447  0.2909
27292W        W70283  23.657  13.330   7.164 -0.3367 -0.2633  0.0235
27293W        W70284  28.670  30.853  24.115 -0.2160  0.1950  0.1093
27294W        W70285  25.495   8.023  14.865  0.0921  0.1481  0.2326
27295W        W70286  20.361  28.146   6.720  0.1090  0.0173 -0.0139
27296W        W70287  13.504  20.981  19.696 -0.2833  0.0427 -0.2454
27297W        W70288  10.366  26.921  16.817 -0.0678 -0.1821  0.0258
27298W        W70289  30.816  34.183  24.420 -0.0949 -0.1715 -0.2464
27299W        W70290   2.184   5.150  25.219 -0.1154  0.0890  0.0714
27300W        W70291  32.597  18.554   1.276  0.2681  0.0216 -0.0754
27301W        W70292   1.598   4.248  26.370  0.0930  0.2987  0.0425
27302W        W70293   0.799  25.981  28.394  0.0679 -0.0580  0.1434
27303W        W70294  17.660  17.908   6.587 -0.2534 -0.2678  0.0471
27304W        W70295   4.162  24.257   5.714  0.0389  0.1359 -0.1046
27305W        W70296  30.094  25.205  21.404  0.2783  0.0914 -0.3117
27306W        W70297  18.015  12.594  13.416 -0.2237 -0.0157  0.0033
27307W        W70298  32.647  34.203  27.677  0.0731  0.0664  0.0523
27308W        W70299  34.764  14.999  11.369  0.2183 -0.0635 -0.0432
27309W        W70300  33.232  23.768   7.463  0.1365 -0.1466  0.1010
27310W        W70301  28.250  20.917   5.714 -0.2881 -0.2511 -0.0641
27311W        W70302   8.241  30.005   9.648 -0.1716  0.0163 -0.1504
27312W        W70303  24.442  13.048   5.382  0.0427  0.0678  0.2605
27313W        W70304  17.778  28.202   2.139 -0.1755 -0.1896  0.1453
27314W        W70305   3.783  10.600  29.122 -0.3480 -0.1981  0.0268
27315W        W70306  21.511  15.506  14.283  0.2157  0.0341  0.0613
27316W        W70307   4.089  33.193   5.481 -0.2039  0.1992 -0.0575
27317W        W70308   5.293  24.448   8.618 -0.3724  0.1735 -0.1587
27318W        W70309   7.144  31.452  15.721  0.1328  0.1366  0.0410
27319W        W70310  14.468  33.331  22.480  0.1076  0.1148 -0.1643
27320W        W70311   4.409  29.301  16.210 -0.1024 -0.1043  0.1612
27321W        W70312  32.728   9.909   2.946  0.0547  0.2862  0.2241
27322W        W70313  29.346  11.531  25.875 -0.0862 -0.0402 -0.1820
27323W        W70314   2.693  32.518  18.542  0.0835  0.3131 -0.1034
27324W        W70315  24.951  20.115   2.267  0.1179  0.1526 -0.0649
27325W        W70316  26.675  19.213  28.322 -0.0900  0.0208  0.0163
27326W        W70317  29.154  29.854  13.565 -0.0768  0.1561  0.2344
27327W        W70318   8.625  12.985   0.969  0.3836 -0.4257  0.1829
27328W        W70319  18.355  21.416  19.961 -0.0292 -0.1156  0.1491
27329W        W70320  32.382   3.142  26.867 -0.2840 -0.0777  0.2686
27330W        W70321  26.855  27.722   8.749 -0.2384 -0.2281 -0.1153
27331W        W70322   0.806   7.620   6.667 -0.0820  0.0379  0.3981
27332W        W70323  21.325  32.559   2.504  0.4385 -0.2941 -0.0813
27333W        W70324  15.310  25.434   0.341 -0.0177  0.1062  0.0953
27334W        W70325  24.716   0.916  19.993 -0.2145 -0.1532 -0.1606
27335W        W70326  24.026  27.046  16.421 -0.4156 -0.1444  0.1813
27336W        W70327  30.137   9.546  29.168 -0.0464 -0.0429 -0.1442
27337W        W70328  30.269   3.099  18.828 -0.4234  0.0266  0.0972
27338W        W70329  21.008  24.580  18.306  0.1148 -0.0611 -0.0099
27339W        W70330  26.186  24.709  17.428  0.0590  0.2133  0.3397
27340W        W70331  15.840  30.664  14.889 -0.1687  0.1572 -0.1655
27341W        W70332   9.532  32.068  28.837 -0.1836 -0.2204 -0.0318
27342W        W70333  32.030  25.560  19.224  0.2681 -0.1816  0.2109
27343W        W70334  24.944  24.784  25.445  0.0451 -0.1035  0.1240
27344W        W70335   0.180  27.096   2.823 -0.0468 -0.3345  0.0145
27345W        W70336  28.463  19.573  16.645  0.2766 -0.0735 -0.0382
27346W        W70337  29.024  25.010   9.567  0.0798 -0.3148 -0.0231
27347W        W70338  31.720  25.418  18.845 -0.0684  0.2098 -0.1451
27348W        W70339  25.346   2.975  13.977  0.0745  0.0978 -0.1071
27349W        W70340   3.722   1.770   8.411 -0.0362  0.3029  0.0342
27350W        W70341  25.355  21.202  16.557 -0.0666  0.0541 -0.0150
27351W        W70342  16.267  30.906  25.308 -0.1519 -0.1215 -0.0125
27352W        W70343   1.861   1.370   3.345  0.1071  0.1512 -0.0223
27353W        W70344  20.867  23.442  25.055 -0.0633 -0.3089  0.0292
27354W        W70345  25.630  15.814   9.550 -0.3021  0.0554  0.1201
27355W        W70346  23.718  11.042  29.053 -0.1815 -0.3591 -0.4868
27356W        W70347   5.713   2.550  28.036  0.1370  0.2646 -0.3227
27357W        W70348  24.518  10.684  18.817  0.1056 -0.2440  0.0512
27358W        W70349  24.357  18.223   7.053 -0.1644 -0.0291 -0.0800
27359W        W70350  22.309   1.351   0.326 -0.2906  0.0523 -0.0923
27360W        W70351  21.130  33.353   8.631 -0.0960 -0.0846 -0.0737
27361W        W70352  30.586  28.204   2.832 -0.1443 -0.0735 -0.0316
27362W        W70353   5.362  24.246   7.695  0.1642  0.0592  0.1759
27363W        W70354   8.606   1.226  23.409  0.1234  0.0565  0.0333
27364W        W70355  17.078   6.652   5.391  0.2266 -0.0184 -0.2764
27365W        W70356  31.193  29.617  28.973  0.0337  0.1133 -0.0986
27366W        W70357  29.871  10.416  22.756 -0.2081 -0.0094 -0.2726
27367W        W70358  33.177  17.574   3.470 -0.0690  0.2002  0.2918
27368W        W70359   9.602  27.798   3.306  0.0334  0.1945  0.0172
27369W        W70360  34.179  29.550  24.183  0.2492 -0.0613  0.0921
27370W        W70361  25.627  31.814  13.831  0.1259  0.1768 -0.0761
27371W        W70362  18.460  18.188  14.920 -0.2238 -0.1104  0.0377
27372W        W70363   0.532  20.616  27.916 -0.0313  0.3522 -0.1362
27373W        W70364   6.186  32.009  27.244 -0.0638  0.2018  0.1150
27374W        W70365   2.988   6.361  25.693  0.0943  0.1152  0.1114
27375W        W70366   0.965  27.013  20.168  0.1726  0.1013  0.1640
27376W        W70367  34.744  26.771  28.454 -0.0405  0.0948  0.0639
27377W        W70368   4.817  31.541  22.554  0.3013 -0.1397  0.0998
27378W        W70369  24.148  26.051  18.623 -0.2657  0.1220 -0.2443
27379W        W70370  14.625  32.858  20.703 -0.0361 -0.0198 -0.0626
27380W        W70371   0.449   2.034  18.095 -0.2045 -0.0902  0.1227
27381W        W70372  31.688   2.002  22.071  0.2279  0.0523  0.1834
27382W        W70373  10.152  28.171  25.381  0.1780 -0.1637  0.0531
27383W        W70374  34.695  28.869  14.208 -0.2757 -0.0227 -0.0118
27384W        W70375  24.848  25.283  26.784 -0.0021 -0.0488 -0.0995
27385W        W70376  17.563   3.098   3.096 -0.0664  0.0851  0.3119
27386W        W70377  14.651  21.264   3.080 -0.0883 -0.0488  0.2967
27387W        W70378  24.818  31.665  19.727  0.2307  0.0595  0.0950
27388W        W70379   1.227  28.893  26.611  0.1820 -0.2156  0.0242
27389W        W70380  30.307  28.387  24.394  0.0911  0.1894 -0.0217
27390W        W70381   0.202  17.047   7.412  0.1243 -0.0344  0.1323
27391W        W70382   1.709  32.504   7.825 -0.2050  0.4512  0.1437
27392W        W70383  19.853  32.162   7.620  0.1681  0.1061  0.1045
27393W        W70384   2.001  26.379   2.250 -0.0001  0.3096  0.0113
27394W        W70385  26.394  31.166  15.641 -0.1476  0.2528 -0.1099
27395W        W70386   5.792   4.893   5.464  0.1108  0.2330  0.1097
27396W        W70387  21.446  31.759   5.395  0.0108  0.4195 -0.1074
27397W        W70388  28.683  25.821   0.094 -0.3276 -0.1477 -0.0869
27398W        W70389   2.782  22.011  21.365 -0.1190 -0.3204  0.2146
27399W        W70390  22.976  25.084   3.195  0.0728 -0.0058 -0.0924
27400W        W70391   0.704  24.813   1.451  0.1010  0.1787 -0.1384
27401W        W70392  13.889  21.203   1.377  0.1694  0.1231  0.0599
27402W        W70393  23.386  16.549  23.592  0.1702  0.3984  0.1008
27403W        W70394  22.072  21.043  26.023  0.1043  0.1075 -0.2257
27404W        W70395  30.287   4.232   2.495  0.1265 -0.2143  0.1689
27405W        W70396  21.282   8.559   8.647  0.1386  0.1820 -0.1273
27406W        W70397  27.519  20.093   7.675 -0.1018 -0.1677  0.1161
27407W        W70398  13.513   5.124  15.292  0.3806 -0.2948 -0.0816
27408W        W70399  20.150  19.702   0.996 -0.1467  0.1562 -0.1179
27409W        W70400   6.381  20.412  22.925 -0.0028 -0.0790 -0.0580
27410W        W70401  10.227  14.898   2.897 -0.1670  0.1724  0.1812
27411W        W70402   9.788  29.246   5.465 -0.1737  0.0165 -0.1492
27412W        W70403  11.785  19.744  21.327 -0.1064  0.2033  0.2501
27413W        W70404   7.733   2.007   0.813 -0.2194  0.0135  0.0569
27414W        W70405  30.490  25.855   8.993  0.0061  0.2263 -0.0930
27415W        W70406  12.044  29.763   4.647 -0.0203 -0.3473 -0.1215
27416W        W70407  29.909   6.751  21.786  0.1283  0.0259 -0.1000
27417W        W70408  26.876   2.362  24.769 -0.5430 -0.0491 -0.0492
27418W        W70409  24.370  33.909   5.152  0.0496 -0.0654  0.1447
27419W        W70410  25.585  34.341   0.148  0.1472 -0.1332  0.0573
27420W        W70411  27.202   7.175  21.133  0.2786 -0.2462  0.1466
27421W        W70412  30.468   0.689  23.853  0.2466  0.0250 -0.1191
27422W        W70413   4.287  25.787  16.913 -0.0323  0.2605  0.0864
27423W        W70414  33.888   7.609  20.922 -0.0409 -0.1211 -0.0163
27424W        W70415  29.300  31.665  28.139  0.1324 -0.1415  0.0595
27425W        W70416  21.912  29.450  20.508 -0.2662 -0.0627 -0.0782
27426W        W70417   2.990  24.146  24.090  0.2310 -0.1625  0.1996
27427W        W70418   4.129   0.001   9.246 -0.1790 -0.2713  0.0720
27428W        W70419   3.022   5.435   3.095 -0.0745  0.0816 -0.2327
27429W        W70420  17.438   5.293   5.576 -0.0220 -0.0404  0.0490
27430W        W70421   5.305  24.156  22.573  0.0599 -0.0073  0.2619
27431W        W70422  22.119  20.779   4.084  0.1899  0.0958  0.0707
27432W        W70423  17.858  30.927  17.685  0.4323  0.1579  0.0218
27433W        W70424  26.024  32.301  24.744  0.1253  0.2483 -0.0215
27434W        W70425   4.582  28.728  17.639  0.0892  0.0061  0.3950
27435W        W70426  10.187  25.304   7.732 -0.1638 -0.1475  0.1400
27436W        W70427  33.244  34.799   2.434 -0.0049 -0.3047 -0.2560
27437W        W70428   0.550   7.068  24.875  0.4330 -0.1090 -0.0206
27438W        W70429  30.233  28.217   4.011 -0.0857 -0.1181 -0.0216
27439W        W70430  24.131  32.952  16.151 -0.2813  0.1655  0.0197
27440W        W70431  16.130  32.409  15.431 -0.0357 -0.2665  0.2575
27441W        W70432  18.038  24.798  27.387 -0.1944  0.2451  0.2036
27442W        W70433  11.332  10.103  21.005  0.1265  0.2476 -0.3083
27443W        W70434  26.001  31.353  17.773 -0.0530 -0.0801 -0.4148
27444W        W70435  34.134  33.245  18.006  0.1003 -0.0958 -0.1818
27445W        W70436  12.193   2.758  23.654 -0.2745  0.0245 -0.0262
27446W        W70437  34.160  22.818  18.085 -0.0023  0.3730  0.2107
27447W        W70438  12.304  14.746   2.503  0.1978 -0.0447  0.3951
27448W        W70439  27.565  13.154  20.546  0.0261  0.2946 -0.0496
27449W        W70440  26.335  21.408   8.785  0.1323 -0.1126  0.0641
27450W        W70441  24.898   5.397  28.199  0.2202  0.1146  0.0364
27451W        W70442  32.281  26.701  26.992  0.6650  0.0654 -0.3269
27452W        W70443  31.307   1.315  28.760  0.1488 -0.0223 -0.1445
27453W        W70444  28.651  23.767  23.617 -0.2746  0.1646  0.1017
27454W        W70445  33.902  23.681   0.401 -0.0133  0.1691 -0.3378
27455W        W70446  34.425  32.236   8.504 -0.1224  0.1076  0.2011
27456W        W70447  34.757  29.234   0.999  0.1216 -0.1902  0.0013
27457W        W70448  23.048  22.614  19.647  0.3354  0.0119  0.2740
27458W        W70449  23.325  25.694  19.348  0.0685 -0.1482 -0.2324
27459W        W70450   2.025  28.812   6.111  0.0495 -0.2508  0.2183
27460W        W70451   5.579   2.989  21.484 -0.2003 -0.2500  0.1048
27461W        W70452  27.964  28.769  14.922 -0.3044 -0.0086 -0.2245
27462W        W70453  34.069  26.847   3.711  0.2557  0.0081  0.0429
27463W        W70454  18.381  24.399   6.940  0.0703  0.4591  0.3436
27464W        W70455  18.071  10.398  23.352  0.0419 -0.1876 -0.0781
27465W        W70456  18.222  28.832  21.238 -0.2301  0.0910 -0.0074
27466W        W70457  26.647   8.602  28.672  0.2605  0.3556  0.1283
27467W        W70458  24.158  34.127  15.192  0.2217  0.2107  0.2584
27468W        W70459  21.263  32.871  14.610  0.1086 -0.0153  0.0715
27469W        W70460  27.140   7.520   0.263 -0.0191 -0.2857  0.0343
27470W        W70461  11.903   2.420  20.763 -0.0088  0.0011 -0.3122
27471W        W70462   2.064   5.754   7.797  0.1258 -0.2167  0.1676
27472W        W70463   2.832  33.604  25.652  0.3030 -0.2699 -0.0444
27473W        W70464  27.942  30.899   4.169 -0.6492  0.1697 -0.1428
27474W        W70465  22.495  26.905   8.694 -0.1886 -0.1721 -0.0274
27475W        W70466  26.062  26.660   1.646 -0.3995 -0.1623 -0.2973
27476W        W70467  30.313  32.967  24.960 -0.0194 -0.0704 -0.0667
27477W        W70468  32.230  33.677   6.245 -0.1841  0.1258  0.2282
27478W        W70469  30.579  33.099  21.099  0.1557  0.0852 -0.0540
27479W        W70470  31.076   7.171   7.123 -0.2108  0.3087  0.2198
27480W        W70471  30.540   3.353  26.897 -0.3379  0.1641 -0.0741
27481W        W70472  20.758  31.231   2.172  0.0320 -0.1362 -0.1003
27482W        W70473   7.326  29.599   2.403  0.1695  0.0183 -0.1946
27483W        W70474  23.734  34.751  25.656 -0.0050 -0.4048 -0.2526
27484W        W70475  23.559  17.262   0.507 -0.0430 -0.0656 -0.2098
27485W        W70476  16.520  22.540  27.505 -0.5658  0.4574 -0.0969
27486W        W70477  23.909   7.899   9.406  0.0160 -0.0688 -0.0320
27487W        W70478  30.158  13.019  25.673 -0.0484  0.2251  0.0927
27488W        W70479   2.859  29.921  14.884 -0.0991  0.1720 -0.0273
27489W        W70480  23.558  29.503  20.877  0.0748  0.0395  0.1722
27490W        W70481   7.266  25.477  21.288 -0.0642  0.0190 -0.0157
27491W        W70482  24.543   2.192   7.006 -0.1716 -0.2187 -0.1388
27492W        W70483  18.093  14.166  15.779  0.0662  0.2034  0.4885
27493W        W70484  23.781  16.623   1.182  0.2095 -0.0062  0.1849
27494W        W70485   1.404  32.644   1.310  0.1535  0.2374  0.1088
27495W        W70486  23.160  23.667   4.637  0.0065 -0.0784  0.1635
27496W        W70487   3.070   7.641  20.737 -0.0566 -0.0803 -0.1231
27497W        W70488  31.721  28.519   3.783 -0.0284  0.0223  0.2749
27498W        W70489  24.494  11.583  18.320  0.0885  0.0478  0.2142
27499W        W70490  26.079  17.455   2.311  0.2464  0.1629 -0.0465
27500W        W70491  26.115  12.831   4.881 -0.2506 -0.1175 -0.0268
27501W        W70492  11.465  17.118   5.349  0.0940  0.3623 -0.0453
27502W        W70493   4.991  29.864  20.592  0.3033 -0.1261  0.0324
27503W        W70494  29.761   8.124   4.515  0.2711 -0.1340  0.1067
27504W        W70495  25.067  24.863  18.317  0.2548 -0.2316 -0.1753
27505W        W70496   2.739   0.499  27.892 -0.2717  0.2334  0.0932
27506W        W70497  26.450  32.407  16.301  0.3193  0.1064  0.0775
27507W        W70498   6.734  29.688  19.335 -0.2596  0.0031  0.2191
27508W        W70499  15.523  12.825  13.214  0.4613 -0.4609 -0.3089
27509W        W70500  14.929  13.748   8.737  0.0639 -0.2072 -0.2085
27510W        W70501  25.687  27.416   4.180  0.0729  0.1481 -0.2717
27511W        W70502   9.555  33.360  17.415  0.0679  0.4190  0.1847
27512W        W70503  21.468  21.880   0.764 -0.1869 -0.0978 -0.0090
27513W        W70504  13.426  16.716  23.323  0.1207 -0.1177  0.1352
27514W        W70505  13.783  26.032   2.008 -0.0783 -0.2035 -0.2018
27515W        W70506  20.783  31.682  14.510 -0.2088 -0.2101  0.1292
27516W        W70507  33.102  24.413   5.076 -0.1084 -0.0694  0.2413
27517W        W70508  28.126  22.157  27.860 -0.0328  0.1019  0.3542
27518W        W70509   4.990  17.094  23.796  0.0542 -0.0749  0.1848
27519W        W70510  32.037  32.904   3.227  0.2257  0.0900  0.0315
27520W        W70511  24.026  22.939  13.357 -0.1743  0.2817 -0.1883
27521W        W70512  30.052  29.479   2.704 -0.3122  0.2001 -0.1751
27522W        W70513  21.536  12.712  28.642 -0.2068  0.1386  0.0410
27523W        W70514  22.346  25.213   2.031 -0.1876  0.0459 -0.0001
27524W        W70515  29.293  23.810  18.371 -0.1044 -0.2929  0.2098
27525W        W70516  30.943   5.760   6.885  0.1265 -0.1431  0.0702
27526W        W70517  23.244  15.000  29.215  0.0502  0.2418  0.0904
27527W        W70518  11.444  19.927  22.150  0.3082 -0.2432  0.0276
27528W        W70519  24.357  25.674   3.653 -0.1227  0.0166  0.1256
27529W        W70520  27.179   3.945  25.563  0.1769 -0.0964 -0.0327
27530W        W70521  27.274  23.070  25.388 -0.0438 -0.0682  0.3546
27531W        W70522  30.571  19.179  16.897  0.1675  0.1045 -0.0631
27532W        W70523  25.323  30.290  29.227 -0.1423 -0.0076 -0.1120
27533W        W70524  34.731   5.722   3.736  0.2131  0.2083 -0.1672
27534W        W70525  15.128  31.837  27.843 -0.1271  0.0070 -0.0083
27535W        W70526   7.742   7.323  10.430  0.0178  0.0721 -0.3162
27536W        W70527   1.064  24.081   4.192 -0.4574  0.1292 -0.5128
27537W        W70528  30.906  19.500  22.157 -0.2245  0.0320  0.2468
27538W        W70529  18.306  31.605  10.158 -0.2334 -0.0286 -0.0126
27539W        W70530   1.117  16.955   6.194  0.0768  0.0595 -0.0083
27540W        W70531   3.278  21.718  25.993 -0.1379  0.1395  0.0193
27541W        W70532   1.574  32.473   0.772 -0.0464 -0.0680 -0.2214
27542W        W70533  30.124  18.414   4.265 -0.2067  0.3447  0.2097
27543W        W70534  33.608  26.723  26.734  0.0365 -0.1178 -0.0465
27544W        W70535  28.046  16.312  19.477  0.0473  0.0341 -0.0967
27545W        W70536  20.745  24.527   2.572 -0.2157  0.1166 -0.1039
27546W        W70537  30.431  23.778  22.417  0.1497 -0.1444 -0.0717
27547W        W70538  27.192  18.317  23.769  0.0472  0.1609 -0.1330
27548W        W70539  30.165  16.966   7.560  0.2499  0.1463  0.2696
27549W        W70540  22.327  24.682  15.777  0.0049  0.0813  0.0406
27550W        W70541  24.836  19.327  22.649  0.3463 -0.0754 -0.3796
27551W        W70542  32.259  18.391  28.423  0.0168 -0.0932  0.0216
27552W        W70543   2.128  31.162   2.644  0.0057 -0.1483 -0.0033
27553W        W70544  34.282   9.834  24.553  0.2032  0.1858  0.2259
27554W        W70545  27.054  21.444  20.183 -0.1825 -0.0990 -0.1649
27555W        W70546  12.064   8.070  29.041 -0.0368 -0.2638 -0.2616
27556W        W70547  21.935  25.293   3.935 -0.1119  0.0894 -0.1814
27557W        W70548  32.857  19.056  15.877 -0.1447  0.1629 -0.2671
27558W        W70549  18.008  28.561  19.610 -0.0110  0.4821  0.1011
27559W        W70550  22.751  25.822  21.633  0.1185  0.3032  0.2888
27560W        W70551  16.111  21.945   5.271 -0.1806  0.1697  0.4671
27561W        W70552  17.221  33.740  18.761  0.3826 -0.0331 -0.0732
27562W        W70553  19.544   0.026  24.167 -0.2465 -0.2274 -0.0111
27563W        W70554   0.636  32.929  18.530 -0.4436 -0.1056 -0.1343
27564W        W70555  15.981  33.147  23.214  0.0036 -0.0839  0.0366
27565W        W70556  18.899  20.863  20.497  0.2279 -0.1566  0.0199
27566W        W70557  27.832  23.728  15.181  0.1058  0.1083  0.1772
27567W        W70558  18.504  25.576  23.106 -0.1273 -0.0667 -0.0870
27568W        W70559  26.517   4.503  13.229 -0.0855 -0.0242 -0.0573
27569W        W70560  24.732  24.501  21.621 -0.1864 -0.3330  0.1399
27570W        W70561   7.072  30.574   3.825 -0.4193 -0.1923  0.0347
27571W        W70562  26.285   8.720  20.610 -0.0562 -0.3823 -0.1557
27572W        W70563  23.198  20.198   0.159 -0.0523 -0.0056  0.1049
27573W        W70564  19.493  26.838   5.048 -0.0701 -0.2330  0.0819
27574W        W70565   5.645  34.102  28.129  0.2205 -0.1440  0.0023
27575W        W70566  29.729   1.205  26.627  0.2530 -0.0062 -0.2269
27576W        W70567  24.244  27.413  26.659  0.0510  0.0160 -0.3584
27577W        W70568  28.956  12.875  25.848 -0.0827  0.2992 -0.1515
27578W        W70569  29.980   1.967   1.116 -0.3010 -0.3210 -0.0190
27579W        W70570  28.912  27.427  18.638 -0.0210 -0.0001  0.0059
27580W        W70571  34.228  20.355  15.722 -0.5257 -0.1834 -0.0418
27581W        W70572  27.317  34.152   0.184 -0.4354  0.0191  0.1362
27582W        W70573  30.935  31.313   7.775 -0.0560 -0.4767 -0.1245
27583W        W70574  32.870  32.226  18.588  0.1394 -0.0817 -0.2331
27584W        W70575  32.893  20.607  21.441  0.0858  0.2859 -0.0269
27585W        W70576   5.912  22.360  24.321 -0.2779 -0.1899 -0.0165
27586W        W70577  32.251  26.746  18.297  0.2359 -0.2043 -0.0194
27587W        W70578  23.391  17.889  18.978  0.2615 -0.1879  0.0070
27588W        W70579  17.299  27.487   2.817 -0.0623 -0.0275  0.1556
27589W        W70580  15.669  20.846  26.534  0.0768  0.0631  0.0263
27590W        W70581  23.416  15.310  19.394 -0.0234 -0.3867 -0.1342
27591W        W70582  20.528  29.792   0.132 -0.5210 -0.2698  0.4014
27592W        W70583  13.884  16.392   4.189 -0.2629 -0.2664  0.1415
27593W        W70584  26.061  27.106   0.704  0.0994  0.2972 -0.1363
27594W        W70585  27.645  29.996  14.333 -0.3102 -0.2274 -0.2414
27595W        W70586  30.150  23.015   3.311 -0.0498  0.0226 -0.1626
27596W        W70587  21.263  19.423   0.086 -0.1476 -0.1693 -0.0207
27597W        W70588   5.071  32.040  28.804 -0.0388 -0.0789 -0.2754
27598W        W70589  10.230   0.742  21.530  0.0090 -0.1080 -0.0398
27599W        W70590  30.910  31.799   5.557  0.2814 -0.0694 -0.1549
27600W        W70591  22.609  31.350   9.083 -0.1404  0.0649 -0.1085
27601W        W70592  30.506  16.981   5.683  0.0022  0.0428  0.2370
27602W        W70593  23.721  30.528  16.170  0.4513  0.0198 -0.0834
27603W        W70594  16.249  16.003  25.206  0.0678 -0.1037  0.0490
27604W        W70595   5.725  27.778   0.024  0.1070  0.0824 -0.1646
27605W        W70596   7.133  25.794   5.153  0.2929 -0.1906  0.3478
27606W        W70597  24.056  30.090   0.102  0.1455  0.0366 -0.4744
27607W        W70598   0.639  27.168  21.353  0.3006  0.1912 -0.2708
27608W        W70599  29.937  26.026   5.815  0.1979 -0.1960 -0.0491
27609W        W70600   1.413  13.654  10.528 -0.0375  0.0353  0.3131
27610W        W70601   4.613  25.742   9.240  0.2361  0.2298  0.1518
27611W        W70602  22.423  12.628   6.574 -0.4116  0.0289  0.0710
27612W        W70603  27.571  14.618   5.474 -0.0625  0.1077  0.0038
27613W        W70604   0.239   9.454  25.547  0.0549 -0.2158 -0.0386
27614W        W70605  24.483   2.217  20.536 -0.0026 -0.2161 -0.4866
27615W        W70606  29.090  16.955   8.598  0.1381  0.1772  0.2675
27616W        W70607   7.294   6.911   1.842  0.0817 -0.1389  0.0015
27617W        W70608  11.342  18.782  28.053 -0.3374 -0.1110 -0.0612
27618W        W70609  28.799   8.341  17.736 -0.0548  0.0989 -0.2720
27619W        W70610  24.531  25.112   9.252 -0.0057  0.1159  0.0395
27620W        W70611   6.068  25.603   1.803 -0.0778 -0.0882  0.1774
27621W        W70612   5.115  32.896   5.676 -0.1545  0.1916 -0.2917
27622W        W70613  25.082  26.580   0.584 -0.0756  0.1811  0.2575
27623W        W70614  31.464  29.419  17.244 -0.1844  0.0231 -0.3907
27624W        W70615  12.241  31.780   2.214 -0.0356 -0.1223 -0.1341
27625W        W70616   8.660  18.856  21.661 -0.0768 -0.0341  0.0391
27626W        W70617  16.801  30.780   5.188  0.2728  0.1786 -0.0419
27627W        W70618   0.243   9.494   0.630 -0.1394 -0.0797  0.0670
27628W        W70619  17.513  13.869  14.966 -0.3543  0.0831  0.1676
27629W        W70620  20.751  24.664  19.046 -0.0299  0.0679 -0.0591
27630W        W70621  19.520  31.948  23.863  0.3028 -0.1378 -0.0398
27631W        W70622  14.991  34.760  17.307 -0.0421  0.1054 -0.1670
27632W        W70623  26.203  20.749   1.434 -0.0439  0.0595 -0.3287
27633W        W70624  29.333  19.272  15.899 -0.2174  0.0360  0.1035
27634W        W70625  21.689  11.406  18.494  0.2851 -0.2235 -0.0627
27635W        W70626   0.526  32.910  25.638 -0.0730 -0.1770 -0.1034
27636W        W70627  26.285   2.298  26.762  0.2450 -0.0264 -0.0230
27637W        W70628  32.971  12.875   7.357  0.3182  0.0783  0.4756
27638W        W70629  32.935  21.394  23.901  0.2893  0.0251  0.0322
27639W        W70630   2.505  14.635  16.583 -0.0954  0.2532  0.1489
27640W        W70631  15.952  10.122  26.125 -0.4236 -0.1565 -0.2363
27641W        W70632  21.554  15.910   8.546 -0.2347 -0.1932  0.2480
27642W        W70633   8.855  34.146   9.867  0.0556 -0.2556 -0.5454
27643W        W70634  25.874  11.907  20.208 -0.0208 -0.2345 -0.2401
27644W        W70635  29.365  31.049   4.459  0.0802  0.0550  0.0226
27645W        W70636  22.830  25.386  14.646  0.1206  0.0310  0.2948
27646W        W70637  30.431  17.850   4.036  0.1732  0.1799 -0.0261
27647W        W70638   5.885  29.213  16.539 -0.0620  0.1730 -0.1284
27648W        W70639   2.396  28.923   7.867 -0.1655 -0.0778  0.0973
27649W        W70640  22.138  32.521  26.033  0.3155  0.3834 -0.0892
27650W        W70641  23.474  11.519  24.568 -0.0738  0.0385  0.1486
27651W        W70642  24.892  26.913  23.024 -0.3318  0.0751  0.0819
27652W        W70643  30.768   5.304  26.546 -0.1306  0.1210 -0.1937
27653W        W70644  29.390   2.476  22.080 -0.0769 -0.0391  0.0136
27654W        W70645  23.591  20.826  12.450  0.4422  0.0852  0.4653
27655W        W70646  17.920  16.189  13.170  0.2270 -0.2286  0.3397
27656W        W70647  30.007  27.560  18.347  0.3438  0.0645 -0.1013
27657W        W70648   6.887  10.394  14.770 -0.2777  0.2022 -0.2137
27658W        W70649  31.718  21.942   0.881 -0.0993  0.1130  0.0285
27659W        W70650  12.981   1.639  15.556  0.2551 -0.0970  0.1162
27660W        W70651  19.270   0.747  19.148  0.0058  0.0287  0.1033
27661W        W70652  27.014   4.319  21.736  0.0467  0.1656 -0.0239
27662W        W70653  17.834   3.030  15.232 -0.0523  0.0833 -0.3303
27663W        W70654   5.809   3.140  25.241 -0.1722  0.2468 -0.0014
27664W        W70655  34.105  23.427  16.546 -0.0795  0.0951 -0.0626
27665W        W70656  16.623  32.658  24.303 -0.2950  0.0163 -0.3131
27666W        W70657  23.509  26.575  15.296  0.0255  0.0199 -0.0919
27667W        W70658   8.956   3.497  18.014  0.2120 -0.1595 -0.1840
27668W        W70659  31.998   5.527  18.521 -0.0703 -0.3994 -0.0141
27669W        W70660   0.499  20.412   2.296 -0.1211  0.1619  0.2001
27670W        W70661  31.183   1.845  21.782  0.0260 -0.2899 -0.1458
27671W        W70662  27.924  22.477  20.102  0.0400 -0.1511  0.1428
27672W        W70663  23.325  30.543  24.517  0.1899 -0.1676  0.3255
27673W        W70664  21.995  14.245  18.542  0.2354 -0.2028  0.1571
27674W        W70665  14.858  24.717  20.277 -0.0119 -0.0104 -0.0963
27675W        W70666   2.688  16.184  23.546  0.1247  0.2613 -0.0532
27676W        W70667  28.834  26.075  14.805 -0.0394 -0.0401 -0.1344
27677W        W70668  30.005   5.154  15.281  0.1397 -0.0602  0.0064
27678W        W70669  20.707  21.562  13.854 -0.0079  0.3082 -0.1880
27679W        W70670   4.886  31.656  19.411 -0.0838  0.3969  0.3367
27680W        W70671   1.235  19.255   7.147  0.2442  0.2144 -0.0699
27681W        W70672  18.861  34.377  18.661  0.1527  0.2462  0.0200
27682W        W70673  28.415  29.701  23.450 -0.0628 -0.1009 -0.1663
27683W        W70674  20.412  23.774  18.743 -0.1531 -0.0690 -0.0053
27684W        W70675   8.613  18.307  20.016  0.1402 -0.1393  0.0076
27685W        W70676   8.684  30.093  25.117  0.0855 -0.1831  0.3671
27686W        W70677  24.955  28.800  14.050 -0.0164  0.2156  0.1845
27687W        W70678  18.300  31.890   0.620 -0.0385 -0.0083 -0.2714
27688W        W70679  32.279  27.289  14.394 -0.1590 -0.0164  0.1858
27689W        W70680  25.492  29.672  13.371  0.0222 -0.1921  0.1053
27690W        W70681  33.936  18.363  22.780 -0.1873 -0.2158  0.1320
27691W        W70682  19.236  31.998  27.090 -0.0546 -0.2005  0.0100
27692W        W70683  26.773  29.374  18.339 -0.2391 -0.1370 -0.0332
27693W        W70684  27.110   1.419  18.325 -0.0732 -0.0086 -0.0861
27694W        W70685  31.226   0.298  17.338  0.0822 -0.0758  0.0109
27695W        W70686   5.748  19.497  26.199 -0.1097  0.1670  0.0679
27696W        W70687  33.357   0.500  19.068  0.2252 -0.3218  0.2255
27697W        W70688  13.429   0.682  24.329  0.2762  0.1183 -0.2286
27698W        W70689  30.006  32.935  22.257 -0.3912 -0.3496  0.2015
27699W        W70690  29.452  11.035  23.483 -0.1287  0.2166 -0.3087
27700W        W70691  20.708  29.177  27.996  0.0002  0.0196 -0.3685
27701W        W70692  18.751  19.242  13.566 -0.2539  0.2322  0.0475
27702W        W70693  21.940   6.625  20.769  0.1246 -0.0460 -0.0293
27703W        W70694  31.869  25.321  20.309 -0.2041 -0.2426 -0.1934
27704W        W70695  27.014  33.114  20.233  0.0647  0.3226 -0.2485
27705W        W70696  24.618  18.377  19.457  0.2218 -0.0002  0.3534
27706W        W70697  21.138  31.274  24.713 -0.0604 -0.2303 -0.0957
27707W        W70698   0.099  26.305   1.519  0.1273 -0.0177 -0.2249
27708W        W70699  25.376   0.186  12.989 -0.2464  0.4024 -0.0158
27709W        W70700  24.538  27.009  16.268  0.2011  0.0916  0.2174
27710W        W70701  10.231  31.101  26.540 -0.0122 -0.1717 -0.2251
27711W        W70702  31.927  31.174  13.048 -0.1511  0.0302  0.2562
27712W        W70703  23.848   5.176  28.363 -0.0040 -0.0458 -0.2242
27713W        W70704  28.896  32.579  23.088  0.0004 -0.1173  0.1181
27714W        W70705  29.798  24.854  13.724  0.2373  0.1261  0.1443
27715W        W70706  26.581   5.719   4.211  0.1268  0.2092 -0.1586
27716W        W70707  24.291  32.635  28.076 -0.1456  0.1712 -0.2453
27717W        W70708  21.993   3.354  20.956  0.1373  0.0316 -0.4571
27718W        W70709  18.720   0.235  26.302  0.2350 -0.1325 -0.0113
27719W        W70710  25.591   2.827  22.929 -0.0433 -0.0687  0.2265
27720W        W70711  10.245  11.917  28.223 -0.0528  0.0013 -0.2663
27721W        W70712  23.792  24.941  17.156  0.0078  0.5162 -0.4401
27722W        W70713  29.012  31.351  16.963  0.0751  0.0960 -0.1462
27723W        W70714  22.577  27.761  23.067 -0.0915 -0.1369  0.2986
27724W        W70715   3.787  33.681  21.446  0.2042  0.1919 -0.1190
27725W        W70716   0.839  34.300  24.236 -0.2372 -0.0472 -0.0902
27726W        W70717  32.223   0.727  16.461 -0.0133 -0.0740 -0.2486
27727W        W70718  24.738  31.460  18.317 -0.3681  0.0032 -0.0728
27728W        W70719  30.766  33.315  13.116 -0.1076 -0.0117 -0.0294
27729W        W70720  27.377  25.181  16.976  0.0489  0.0210 -0.1903
27730W        W70721  29.369  31.757  20.568 -0.0853 -0.1266 -0.0832
27731W        W70722  13.351   2.598  25.419  0.1324  0.1600  0.0755
27732W        W70723  30.008  29.831  14.070 -0.1547 -0.1419 -0.2519
27733W        W70724   4.262  32.999  21.140  0.3076 -0.0153  0.0437
27734W        W70725  23.618   5.325  28.852  0.0750  0.1542 -0.3442
27735W        W70726   7.721   1.524  14.999  0.0472  0.0775 -0.1678
27736W        W70727  27.163  18.392  20.502 -0.2956 -0.0045 -0.0699
27737W        W70728   6.270  34.030  22.067 -0.0018 -0.4698  0.2604
27738W        W70729  22.866  28.239  20.915  0.0421  0.0744 -0.1437
27739W        W70730  15.403   7.752  25.868  0.3864 -0.3627  0.1099
27740W        W70731   4.070  34.052  21.707 -0.2400  0.2366 -0.2093
27741W        W70732   3.728  10.144  19.768  0.0371  0.1292 -0.1509
27742W        W70733  29.060  20.897  23.370  0.0070 -0.0287 -0.1057
27743W        W70734  30.808  31.760   4.067 -0.3150  0.1778 -0.0686
27744W        W70735   0.422  14.834  22.342  0.1421  0.0286 -0.0761
27745W        W70736  25.754  26.982  20.188  0.2346 -0.2968 -0.0546
27746W        W70737  29.312  29.281  19.777  0.0236  0.3030  0.4572
27747W        W70738  28.640  30.143  14.275 -0.0808 -0.0351  0.1394
27748W        W70739  23.912  25.782  22.104  0.2741 -0.0236  0.0625
27749W        W70740  22.783  32.229  13.301  0.1039  0.1564 -0.0350
27750W        W70741  24.034  12.292   6.323 -0.2247 -0.1640 -0.0608
27751W        W70742  15.183  27.820  15.626 -0.0741  0.0498  0.0336
27752W        W70743  33.205  31.940  14.873  0.0427  0.0148 -0.1182
27753W        W70744  31.272   9.253  26.019 -0.1377 -0.0378 -0.2841
27754W        W70745  28.098  27.599  18.992  0.2510  0.2880 -0.3811
27755W        W70746  25.581  28.050  22.347 -0.0822 -0.0773 -0.0892
27756W        W70747  28.926   2.732  12.892  0.0305 -0.2309 -0.2333
27757W        W70748  22.359   7.901  18.012 -0.2626 -0.0003  0.3171
27758W        W70749  24.137  28.644  19.861  0.3304  0.0818  0.2447
27759W        W70750  26.422   7.988  13.468 -0.0492  0.4400 -0.0023
27760W        W70751  24.609  31.806  15.156 -0.4955 -0.1749  0.0686
27761W        W70752  22.454  25.576   2.459 -0.0710  0.3526  0.2731
27762W        W70753  32.465  34.023  17.378  0.1112 -0.0937  0.4528
27763W        W70754  33.536  29.070  21.436 -0.0350  0.0362 -0.1128
27764W        W70755  31.842   7.938  18.193 -0.2890 -0.0542 -0.3592
27765W        W70756  21.669   2.907  23.303 -0.0356  0.1617 -0.0875
27766W        W70757  30.030  29.578  24.447 -0.1832 -0.2081  0.0739
27767W        W70758  29.242  13.948  20.923 -0.1524  0.0491 -0.1288
27768W        W70759  22.287  34.150  15.123 -0.3345 -0.2526  0.1091
27769W        W70760  26.834  12.602  18.998  0.1091 -0.1491  0.2839
27770W        W70761  22.882  30.804  19.925  0.0133  0.5945  0.2012
27771W        W70762  30.164  20.012   4.433  0.1047  0.0010 -0.1091
27772W        W70763  20.057  23.991  18.468 -0.2550  0.1771 -0.0425
27773W        W70764  32.498  24.722  16.055  0.0007  0.1458 -0.0718
27774W        W70765  22.666  28.355  24.785 -0.1119  0.0421 -0.1450
27775W        W70766  29.469   1.181  20.733 -0.0065  0.5671 -0.1915
27776W        W70767  27.659   4.044  19.091 -0.1201 -0.1422  0.1861
27777W        W70768  30.683   1.804   5.929 -0.1530  0.2882  0.0197
27778W        W70769  27.749  30.894  15.258 -0.1616 -0.4018 -0.2734
27779W        W70770  27.721  30.876   0.454 -0.0420 -0.0905  0.0355
27780W        W70771  23.811  23.047  23.472 -0.0215 -0.0004 -0.0211
27781W        W70772  33.610  29.906  18.474 -0.0218 -0.0787 -0.3501
27782W        W70773  31.404  28.893  21.737 -0.1231  0.0353 -0.1891
27783W        W70774  22.004  13.361  17.441 -0.1323 -0.2888  0.2495
27784W        W70775  25.043  26.949  21.214  0.2117  0.1124 -0.0783
27785W        W70776  27.502   0.229  21.767  0.1226  0.0256  0.1724
27786W        W70777  30.001  26.950  19.664 -0.2845  0.1011  0.2698
27787W        W70778  33.572  28.958  13.976 -0.1718 -0.0235 -0.0373
27788W        W70779  17.163  13.302  21.905 -0.0340 -0.0033  0.0002
27789W        W70780  22.111  17.988  15.525 -0.1509 -0.0847 -0.1767
27790W        W70781  22.201  10.250  16.679  0.1567 -0.1362 -0.0909
27791W        W70782  13.439  31.809  19.775 -0.1960 -0.0202  0.0513
27792W        W70783  24.552   4.342  25.451  0.1002 -0.0993  0.2811
27793W        W70784  22.944  30.783  24.703 -0.2047 -0.1665  0.2437
27794W        W70785   6.337  20.833  16.780 -0.1454  0.0377 -0.0669
27795W        W70786  24.296  12.416   3.348 -0.1576  0.1440  0.1909
27796W        W70787   5.368  33.779   2.143  0.0767  0.0697  0.0291
27797W        W70788  22.803   1.730  20.887  0.2670  0.0523 -0.0279
27798W        W70789  30.512   6.302  21.154  0.1736 -0.0864 -0.1140
27799W        W70790  27.073  25.124  21.218  0.1076  0.0287  0.0620
27800W        W70791  12.939  22.426  21.885  0.2739  0.0882 -0.0005
27801W        W70792  22.417  30.520  17.660 -0.1521  0.1740 -0.0220
27802W        W70793  10.358  34.715  22.197 -0.0911  0.2703  0.3474
27803W        W70794   9.665  30.237   4.123 -0.0073  0.1725  0.2286
27804W        W70795  21.893  28.271  17.445 -0.1318  0.0213 -0.0436
27805W        W70796  14.505  12.723  17.533  0.0681  0.1633  0.3569
27806W        W70797   0.528  27.520  19.804  0.3527 -0.2503 -0.2266
27807W        W70798  15.327  28.371   1.456  0.0030 -0.0865  0.0989
27808W        W70799  29.461  34.148  15.434 -0.3300  0.4015  0.1284
27809W        W70800   2.818  23.969  14.791 -0.2421  0.1734  0.1231
27810W        W70801  20.315  24.691  28.177 -0.0864 -0.1299 -0.4181
27811W        W70802  33.241  33.734  13.251 -0.1782  0.1596 -0.0921
27812W        W70803  10.682  32.366  18.133 -0.0509 -0.1376  0.2210
27813W        W70804  21.457  29.532  26.163 -0.3574 -0.0474  0.0420
27814W        W70805  19.796   7.655  22.746  0.0746  0.1927  0.1324
27815W        W70806  17.387   5.977  22.347 -0.0891 -0.1190  0.1625
27816W        W70807  30.722   3.764  20.928  0.1984 -0.0491  0.2613
27817W        W70808  17.329  28.842  22.508 -0.0951 -0.1850  0.1198
27818W        W70809  29.536   1.262  14.449 -0.0857 -0.0734 -0.0327
27819W        W70810  25.928  32.438  19.057 -0.0414 -0.0848 -0.3785
27820W        W70811  18.346   6.337   1.759 -0.1239 -0.1134 -0.0762
27821W        W70812   7.487  30.092  21.394 -0.3300 -0.0309  0.0926
27822W        W70813  24.931  14.866   5.689  0.0270  0.1568  0.1172
27823W        W70814  18.053  33.948  18.632  0.0770  0.1377 -0.1123
27824W        W70815  27.464  25.471  19.616 -0.2290 -0.0506  0.0528
27825W        W70816  19.726   0.329  23.755 -0.0848  0.2454 -0.1179
27826W        W70817  33.690   9.528  25.859 -0.1476  0.1435  0.0018
27827W        W70818  30.669  28.516  13.692 -0.2776  0.1337  0.3096
27828W        W70819  12.100  20.237  18.212 -0.0006 -0.2312  0.1094
27829W        W70820  29.118  31.081   7.763  0.1624 -0.0001  0.0147
27830W        W70821  20.101  33.694   2.367 -0.1200  0.0693 -0.3121
27831W        W70822  25.329   3.121   5.116 -0.1596 -0.0807  0.0985
27832W        W70823  19.451   1.048  19.705  0.0488  0.1596  0.0313
27833W        W70824   5.788  29.485  15.067 -0.1067 -0.3731  0.3470
27834W        W70825   1.524  28.469  19.793  0.2614 -0.0064  0.0865
27835W        W70826   5.796  22.895  26.912  0.1504 -0.0885  0.1314
27836W        W70827  24.438  21.574  15.846 -0.0701  0.2464  0.0141
27837W        W70828  21.643  28.964  19.931 -0.0148  0.3359  0.1253
27838W        W70829  26.102  29.117  17.329  0.1285 -0.2864  0.1967
27839W        W70830  11.916  21.457  21.444 -0.1868 -0.0995  0.1921
27840W        W70831  30.644  24.191  17.420 -0.0134 -0.2649 -0.5257
27841W        W70832  21.826  22.224  18.874  0.2356 -0.1461 -0.2964
27842W        W70833  16.787  26.252  27.751  0.0030  0.2638  0.2768
27843W        W70834  18.408   6.340  23.571  0.0212  0.0832 -0.1594
27844W        W70835  10.968  30.972  20.419 -0.0163  0.2571 -0.3588
27845W        W70836  24.307   1.057  16.568  0.1636 -0.0040 -0.1709
27846W        W70837  16.377   6.874  25.239  0.2687  0.2463  0.1954
27847W        W70838   0.581   7.299  17.668  0.0847  0.2385  0.1254
27848W        W70839  24.742   5.512  15.891  0.2263  0.0975 -0.0646
27849W        W70840   2.111  28.698  20.937  0.0417  0.2547  0.1669
27850W        W70841  33.354  13.721  17.123  0.0581 -0.0224  0.3627
27851W        W70842  27.804  30.114   2.985  0.4457  0.0429  0.2065
27852W        W70843  31.294   7.432  20.365  0.0686 -0.2253  0.0572
27853W        W70844  16.731  21.630  15.728  0.0929  0.4897  0.0694
27854W        W70845  34.748  10.660  16.608  0.2362  0.0976 -0.1664
27855W        W70846   6.042   5.134  21.180 -0.0264 -0.2963 -0.0072
27856W        W70847  24.035   7.391  13.506 -0.1016 -0.0039  0.2805
27857W        W70848  26.002  19.553  23.951 -0.1306  0.0457  0.1332
27858W        W70849  31.380  21.926  15.485  0.0710 -0.2044  0.2427
27859W        W70850  27.427  33.613  13.506 -0.0218  0.0377 -0.0626
27860W        W70851  14.923  32.773  17.910 -0.3559 -0.0644  0.2392
27861W        W70852  23.351   2.027  17.486 -0.1138 -0.1030 -0.1987
27862W        W70853   1.415  27.242  23.190 -0.1609 -0.1685  0.4059
27863W        W70854  31.948  33.027  15.871  0.1697 -0.0407 -0.1021
27864W        W70855  34.351  31.071  28.669  0.0514 -0.0743 -0.1715
27865W        W70856  14.799   2.748  18.106 -0.3967  0.0228  0.1566
27866W        W70857  22.790  12.129  17.253 -0.0880 -0.0830 -0.0721
27867W        W70858  25.805  22.106  27.886  0.0536 -0.2323  0.3040
27868W        W70859  23.820   2.831  14.814  0.1670 -0.1019  0.0817
27869W        W70860  17.410  16.928  12.446  0.0544  0.3345  0.0610
27870W        W70861  12.250  30.868  23.728 -0.1302 -0.0085  0.0555
27871W        W70862  30.514   6.372  16.984 -0.2108  0.0484 -0.2083
27872W        W70863  23.485  11.429  26.081  0.1383 -0.1469  0.1073
27873W        W70864  24.229   7.388  23.180 -0.2601 -0.0650  0.4781
27874W        W70865  30.071  28.201   2.689  0.0268 -0.2142 -0.3104
27875W        W70866  28.969   8.152   3.671 -0.2476 -0.0956  0.2112
27876W        W70867   7.446  20.839  17.477 -0.2276 -0.4122  0.0026
27877W        W70868  21.967   9.969  23.954 -0.0160 -0.3160  0.1976
27878W        W70869   4.125   1.806  21.249  0.2496 -0.3812 -0.2651
27879W        W70870  24.578  31.045  22.248 -0.0713 -0.1347 -0.3001
27880W        W70871  31.638  26.614  14.290  0.1564  0.1364  0.2437
27881W        W70872  26.967  32.132  22.581 -0.1785 -0.1160 -0.2203
27882W        W70873  23.297  28.304  19.133  0.1541  0.1785 -0.1357
27883W        W70874  26.532  13.045  16.310 -0.0833 -0.0739  0.2965
27884W        W70875  14.019  19.238  13.419  0.2727  0.2821  0.2637
27885W        W70876  19.693  30.078  20.217  0.0871  0.4445  0.0458
27886W        W70877  31.615  34.619   0.925 -0.2635  0.3025 -0.0673
27887W        W70878   0.072  17.230  22.706  0.0298 -0.3043  0.0647
27888W        W70879   4.286  10.857  16.338 -0.0494 -0.0753  0.0159
27889W        W70880  24.124  34.548  15.989  0.2361  0.2649  0.0322
27890W        W70881  29.262  25.305   4.670  0.0734  0.0686 -0.0014
27891W        W70882  14.077   1.349  16.807 -0.0795  0.1283 -0.4021
27892W        W70883  24.276   6.905  16.196 -0.2596 -0.1552  0.1782
27893W        W70884  32.596   3.406   1.168  0.3126  0.1012  0.0603
27894W        W70885  33.605  23.299  14.829 -0.1426 -0.1324 -0.4761
27895W        W70886  26.745  16.193  19.339 -0.0330  0.0299  0.0956
27896W        W70887  34.078  24.907  14.291 -0.3150  0.2857 -0.2578
27897W        W70888   5.444  27.553  22.497 -0.0150  0.2228 -0.2160
27898W        W70889  31.195   4.104   0.341  0.0716 -0.0345  0.0930
27899W        W70890  18.318  27.810  20.161 -0.1241 -0.1183  0.0175
27900W        W70891  25.605  28.032  18.034 -0.2015  0.2652  0.0758
27901W        W70892   1.348  25.010   3.389 -0.2516 -0.3362 -0.2451
27902W        W70893  19.718  15.503  16.238  0.0096  0.2441 -0.1406
27903W        W70894  25.544  32.067  19.177 -0.3265  0.1762  0.2396
27904W        W70895  32.460  28.393   2.595  0.0374 -0.3856 -0.1928
27905W        W70896  24.882  18.042   0.846 -0.0255  0.1384  0.0773
27906W        W70897   2.407  31.219  22.976 -0.0585 -0.2205 -0.0034
27907W        W70898  15.115  14.974   4.053  0.2724  0.2328 -0.0685
27908W        W70899  25.555   2.431  23.586 -0.1953  0.2250 -0.0380
27909W        W70900  27.158  21.925  17.582 -0.2477  0.2101  0.0464
27910W        W70901   0.915   1.577  24.477 -0.1647 -0.1303  0.0824
27911W        W70902  32.261   1.176  15.481  0.0068 -0.1750 -0.1309
27912W        W70903  20.797   2.781  27.956 -0.0010 -0.2590  0.1665
27913W        W70904  34.138  21.430  19.186 -0.0766  0.1862 -0.0470
27914W        W70905  15.451   1.057  21.265  0.1799 -0.0344  0.4354
27915W        W70906  17.635  22.807  19.768 -0.1330  0.3789 -0.2942
27916W        W70907  24.157   9.460  21.140  0.0959  0.1881 -0.0502
27917W        W70908  33.982  33.408  14.108  0.0019  0.1725 -0.1233
27918W        W70909   5.182  33.490  23.241  0.2482 -0.0316 -0.0504
27919W        W70910  32.583   6.729  18.995  0.2426  0.3515 -0.1776
27920W        W70911  29.493  27.455   1.172  0.2440  0.4246  0.1558
27921W        W70912  21.215  24.811  18.722 -0.2611  0.1089  0.1374
27922W        W70913  20.637   1.484  27.517 -0.0240  0.0304  0.0612
27923W        W70914  30.017  20.297  20.169  0.0174  0.1008  0.2298
27924W        W70915   6.761  27.084  15.084  0.1813  0.0707 -0.1930
27925W        W70916  26.827  30.549  25.134  0.1671  0.1090  0.1932
27926W        W70917   1.932  33.834  20.855 -0.0399  0.2135  0.1227
27927W        W70918  32.874  19.054  14.821 -0.1174  0.0386  0.3046
27928W        W70919  25.807  31.176  19.246 -0.1671  0.1726  0.1982
27929W        W70920  15.585   0.966  18.486 -0.2255  0.2163 -0.3484
27930W        W70921  21.975   7.277  13.270 -0.1571  0.1464  0.0901
27931W        W70922  30.232  10.641  22.524 -0.1009 -0.1519  0.1199
27932W        W70923  22.393  15.844  26.519 -0.0131 -0.1684 -0.1038
27933W        W70924  32.713  24.997  19.319 -0.0869  0.1027  0.1031
27934W        W70925  14.980  30.425  14.627  0.2938 -0.0844 -0.0514
27935W        W70926  29.799   2.567  17.103 -0.0744 -0.1370  0.2745
27936W        W70927  33.601   8.944  19.281 -0.0421 -0.1176  0.0414
27937W        W70928  10.872  23.185  19.632 -0.0646 -0.0453 -0.1254
27938W        W70929  25.598  11.082  14.174 -0.1505  0.3012  0.3930
27939W        W70930  31.097   5.651  19.240 -0.1432 -0.0111 -0.2509
27940W        W70931  33.919   9.872   0.447  0.3153  0.2806 -0.3675
27941W        W70932   7.631   1.423  20.912  0.1490 -0.0637 -0.0864
27942W        W70933  31.851  21.079   2.096 -0.2814  0.0349 -0.1435
27943W        W70934  18.021  26.497  18.094 -0.0432  0.1937 -0.0348
27944W        W70935  29.866  18.970  25.425  0.3923  0.0297 -0.3912
27945W        W70936   8.138  29.434   9.273 -0.1382  0.2090 -0.0323
27946W        W70937  17.814  21.219  16.625 -0.2950  0.1257  0.2611
27947W        W70938  13.006  28.334  26.055 -0.0123  0.0352  0.0773
27948W        W70939  16.022   7.546   1.698  0.4900  0.3101 -0.0925
27949W        W70940  14.960   1.924  25.758 -0.0486  0.0736 -0.0153
27950W        W70941   0.754   1.877  17.222  0.2889 -0.2145 -0.3198
27951W        W70942  13.528   7.786  19.437  0.0247 -0.0765 -0.1732
27952W        W70943   5.660  21.618  20.982 -0.5023 -0.0854 -0.3636
27953W        W70944  17.685  25.947  16.684 -0.0920 -0.1674  0.0951
27954W        W70945  33.317  24.307  18.965 -0.0966  0.0901  0.1831
27955W        W70946   4.337  19.722  16.928 -0.0023 -0.0319 -0.0494
27956W        W70947  33.076  30.961  20.706  0.0510 -0.1517 -0.1536
27957W        W70948  22.436  25.537  23.744  0.2010 -0.0156 -0.0494
27958W        W70949  32.771  22.366  22.834  0.1131  0.4517  0.1994
27959W        W70950   6.442  33.434  15.672 -0.3061 -0.1104  0.1479
27960W        W70951  31.341  28.505  22.608  0.2647 -0.1864 -0.2629
27961W        W70952  28.073  15.239  27.925  0.0056  0.2117 -0.0962
27962W        W70953   2.955  17.010  22.826  0.0509  0.2291 -0.2078
27963W        W70954  32.048  26.547  15.043  0.0105 -0.1342  0.2411
27964W        W70955  13.846  21.059  26.237 -0.0790  0.2377  0.1284
27965W        W70956  24.479  31.832  13.583 -0.1879 -0.2871  0.0017
27966W        W70957  25.868  31.320  20.775  0.4725  0.2075 -0.1857
27967W        W70958  24.733  26.808  17.175  0.0207 -0.1653  0.1161
27968W        W70959   7.363   1.475  25.771 -0.0385  0.1387 -0.0715
27969W        W70960  31.428  26.029  20.633  0.0677 -0.3812 -0.0169
27970W        W70961  22.336   3.882   3.695 -0.0618  0.1835  0.0725
27971W        W70962  10.793   5.670  21.756 -0.0604  0.2223  0.0786
27972W        W70963   2.538  31.530  15.680  0.0793  0.0606  0.2561
27973W        W70964  28.102  25.460  24.660 -0.0841  0.1790 -0.0959
27974W        W70965  17.914  29.542  15.456 -0.0317  0.0014  0.0848
27975W        W70966  29.190  34.038  19.777 -0.2224  0.3398 -0.0401
27976W        W70967  20.564   4.334  14.643 -0.4845  0.2740 -0.1282
27977W        W70968  30.646  27.270  18.779  0.5156  0.0066  0.1065
27978W        W70969  31.407  24.449  27.192  0.0540  0.2608  0.4144
27979W        W70970  23.935  20.578  18.270 -0.2241 -0.2272  0.0307
27980W        W70971  25.147   7.640  25.391  0.2073  0.1896  0.1075
27981W        W70972  30.622  12.193  24.707  0.0333 -0.2961 -0.0596
27982W        W70973  20.161  19.278  12.149  0.0751  0.0555  0.1420
27983W        W70974   0.969   7.537  24.393 -0.1414 -0.1468 -0.3248
27984W        W70975  12.010  12.468  20.662 -0.0943 -0.1472 -0.0337
27985W        W70976  18.908  22.987  18.175  0.1867 -0.0404 -0.4255
27986W        W70977   6.273  20.242  20.415  0.0271 -0.0823 -0.0160
27987W        W70978  22.672   1.655  25.991 -0.0550  0.2720  0.0300
27988W        W70979  20.607   0.706  26.267 -0.1169 -0.1424  0.0750
27989W        W70980  21.441  15.661  22.510  0.1460  0.0403  0.0542
27990W        W70981  21.266  29.581  13.656 -0.0916 -0.0875 -0.1894
27991W        W70982  21.952  10.540  13.874 -0.0552 -0.0642  0.0065
27992W        W70983   7.357  31.800  17.436 -0.0572  0.0892 -0.0716
27993W        W70984  27.393   0.736   6.909  0.1128  0.1561 -0.0589
27994W        W70985  25.243  31.947  19.607 -0.4006 -0.1585 -0.0249
27995W        W70986   0.944  33.296  20.485 -0.0587  0.2292 -0.1470
27996W        W70987  22.723  26.135  13.668  0.2272 -0.0753 -0.1727
27997W        W70988  31.124  10.143  18.645 -0.1076  0.3555  0.0344
27998W        W70989  25.313  24.905  22.203  0.3989  0.2423 -0.2774
27999W        W70990  24.468  26.334  14.198 -0.1170  0.1344 -0.4516
28000W        W70991  29.838  33.328   2.582 -0.0630 -0.0393  0.0616
28001W        W70992  21.782  31.099  14.888  0.1288 -0.0397 -0.2796
28002W        W70993  22.953  28.640  13.832 -0.0096  0.3927  0.1595
28003W        W70994  21.864   5.697   0.622 -0.0280  0.0149  0.1316
28004W        W70995  16.026   2.368  21.995  0.0417  0.0355 -0.0843
28005W        W70996  29.870   8.536  28.512  0.0833 -0.0924 -0.0167
28006W        W70997  25.421  31.813  14.337 -0.0376 -0.0077  0.0370
28007W        W70998  31.953   8.190  23.096  0.1675  0.1554 -0.0345
28008W        W70999   1.509   3.061  17.172 -0.3141  0.1578 -0.1531
28009W        W71000  20.573  22.535  15.606 -0.3459 -0.1511  0.1344
28010W        W71001  19.244  29.112  14.786  0.2087  0.1438 -0.0585
28011W        W71002   6.389   6.235  26.413 -0.2644  0.2068 -0.1958
28012W        W71003  27.107  20.197  27.906  0.0479 -0.0644  0.0968
28013W        W71004  12.230  26.014  21.002 -0.0857 -0.1133 -0.0189
28014W        W71005  20.978  24.009  20.765  0.0878  0.0690 -0.0171
28015W        W71006   2.713  21.133  25.202  0.0384  0.1168  0.1531
28016W        W71007  30.556  13.119  27.537  0.0283  0.1882  0.3430
28017W        W71008   0.880  15.949  20.639  0.0390  0.1602 -0.1990
28018W        W71009  14.341  32.286  18.210  0.0511  0.1540 -0.0570
28019W        W71010  27.768   1.050   3.020  0.2447 -0.2407 -0.2136
28020W        W71011  17.979   6.206  15.749  0.0383  0.0389 -0.1801
28021W        W71012  30.080  28.062  23.034  0.0883 -0.2141 -0.0517
28022W        W71013  26.574  28.088  20.068 -0.0904 -0.2656  0.1091
28023W        W71014  25.741  30.092  13.889  0.0518  0.2340  0.1122
28024W        W71015  24.948   5.009   6.037  0.0790  0.0486 -0.2333
28025W        W71016  21.375  28.090  16.207  0.1629 -0.4644 -0.1333
28026W        W71017  10.805   0.166  24.866 -0.1348  0.0235 -0.0563
28027W        W71018  18.632   7.466   6.340  0.0544  0.2477  0.1734
28028W        W71019  30.184  29.408  21.200 -0.0351  0.2424 -0.0277
28029W        W71020  13.981  31.057  27.501 -0.2352  0.0246  0.5176
28030W        W71021  20.454  23.766  20.101  0.1375  0.0996  0.0534
28031W        W71022  16.228  28.596  17.965  0.0990 -0.1377  0.1624
28032W        W71023  23.335  24.265  14.705  0.2847 -0.2661  0.0829
28033W        W71024  31.221  21.207  14.183  0.0421  0.1361 -0.0889
28034W        W71025  22.167   9.431  17.040  0.2836  0.2601 -0.0795
28035W        W71026   0.007   2.483  24.776  0.5621 -0.3869 -0.0910
28036W        W71027  19.513  32.527  15.054  0.3225  0.1110 -0.2469
28037W        W71028  20.976  20.474  14.929 -0.2461  0.1249  0.0632
28038W        W71029  30.265   4.631  20.875  0.2019  0.0705  0.2384
28039W        W71030  25.905  33.121  25.867  0.1805 -0.1912 -0.1356
28040W        W71031  15.274  18.574  12.747  0.0649 -0.2539  0.0153
28041W        W71032  30.942   0.661  19.117  0.0359  0.1462 -0.0190
28042W        W71033  24.284  29.868   0.529 -0.2875 -0.1570  0.0054
28043W        W71034  24.581  11.511   4.135 -0.3407  0.1322  0.2685
28044W        W71035   3.548   5.947  24.456  0.0054  0.1054  0.0377
28045W        W71036  31.909  33.705  17.662  0.0463 -0.1376 -0.1349
28046W        W71037  26.522   2.123  17.729  0.1845 -0.1342 -0.0147
28047W        W71038   8.665  27.208  20.059 -0.1469  0.3750 -0.0571
28048W        W71039  30.930   5.081  18.547  0.1290 -0.3696 -0.3009
28049W        W71040  18.393  34.494   5.352  0.2421 -0.3338  0.1987
28050W        W71041  11.540  29.794  28.410 -0.2065 -0.0587  0.1500
28051W        W71042  19.310  29.155  20.478  0.0862 -0.0264 -0.2920
28052W        W71043  27.904  25.066  23.514 -0.0175 -0.0806 -0.1461
28053W        W71044  25.272   6.096  19.323 -0.0276  0.1041 -0.1300
28054W        W71045  29.277  17.706  22.299  0.2827  0.0417  0.5281
28055W        W71046  23.875  28.090   0.710 -0.1097  0.3326 -0.0354
28056W        W71047  28.646  31.389  18.979  0.1115  0.0721 -0.2883
28057W        W71048  14.851  30.509   5.861  0.0313  0.1180 -0.2020
28058W        W71049  23.821   2.012  23.696 -0.0691 -0.2192  0.3657
28059W        W71050  24.944  11.740  18.112 -0.1096 -0.0803  0.0458
28060W        W71051  25.576   2.068  28.181 -0.0334  0.0851  0.1595
28061W        W71052   1.059  21.405   9.758 -0.3347 -0.0210 -0.2227
28062W        W71053  13.588  15.649  27.180 -0.0208 -0.1639  0.3959
28063W        W71054  22.967   4.499  21.827  0.0360  0.1055  0.0769
28064W        W71055   7.701  31.896  22.125  0.1752 -0.0649 -0.0944
28065W        W71056  18.786   6.386  20.328 -0.2193  0.2080  0.1234
28066W        W71057   0.622  23.241  26.072  0.0991 -0.1248 -0.2161
28067W        W71058  21.095   1.045  28.017  0.0027 -0.0802 -0.0363
28068W        W71059  31.876   2.820  22.104  0.1112  0.3062 -0.0135
28069W        W71060  32.818  29.062  15.510  0.3073  0.0386 -0.1323
28070W        W71061  26.446   6.933  26.194 -0.0981  0.1909 -0.1063
28071W        W71062  21.355  15.647  13.261 -0.2239  0.1748 -0.0078
28072W        W71063  24.168  31.826  17.649  0.2092 -0.1162 -0.1189
28073W        W71064  21.337  21.135   3.949  0.2769  0.3106  0.0506
28074W        W71065   2.205  31.703  18.055  0.0473 -0.1995 -0.3200
28075W        W71066  22.913  26.792  18.422  0.0189 -0.1163  0.0353
28076W        W71067  30.520  20.762  16.592  0.0029  0.0738  0.0370
28077W        W71068  11.037  29.442   9.761  0.2175 -0.3310  0.0284
28078W        W71069  18.723  28.576   0.731 -0.2579  0.0224  0.0130
28079W        W71070   6.779  24.824   3.268  0.2395 -0.2963 -0.2597
28080W        W71071   4.324  30.426  23.458  0.5316  0.1159 -0.1879
28081W        W71072  34.609  34.322  22.424  0.4037  0.2943 -0.0527
28082W        W71073  25.748  10.450  19.986 -0.3415 -0.0098  0.0368
28083W        W71074  10.394  33.291  24.089 -0.0267 -0.0335  0.1196
28084W        W71075   9.369  34.408  22.370 -0.2212  0.0394 -0.1849
28085W        W71076  19.623  34.190  26.792 -0.0358 -0.1663 -0.0107
28086W        W71077  28.468  30.443  19.557  0.1817  0.1458 -0.1181
28087W        W71078   2.437  31.858  19.006  0.0260 -0.1554 -0.0469
28088W        W71079  13.331  24.139  19.574 -0.0784  0.2349  0.2392
28089W        W71080  11.528  12.611  19.954 -0.0513  0.0671 -0.1091
28090W        W71081  22.330  27.895  16.616  0.2842 -0.1361  0.1838
28091W        W71082  18.449  11.043  27.570  0.0243  0.1038  0.0052
28092W        W71083  15.228  16.767   6.032  0.0033  0.0482 -0.3822
28093W        W71084  20.319   6.114  20.439 -0.0548 -0.2409 -0.0446
28094W        W71085  17.545   0.162  18.693  0.0072 -0.0639 -0.1027
28095W        W71086  22.578  33.146  19.317 -0.0871  0.2102  0.3186
28096W        W71087  15.443   3.943  16.434 -0.3649  0.2262  0.0789
28097W        W71088   4.138  33.510  21.810  0.1274 -0.0047 -0.1968
28098W        W71089   2.676   5.073  23.448 -0.3118 -0.1733 -0.0758
28099W        W71090   7.942  21.411  21.825  0.0911 -0.2137  0.0395
28100W        W71091   9.775  31.053  26.290 -0.3704  0.2109 -0.1884
28101W        W71092  23.651   9.121  27.339 -0.0347 -0.0588 -0.2970
28102W        W71093  18.022  10.161  15.074  0.5413  0.4463 -0.1925
28103W        W71094  26.412   0.042  15.812 -0.0475 -0.1116  0.0493
28104W        W71095  24.875  29.656  17.339  0.2069  0.0191 -0.0154
28105W        W71096  34.197  31.880   9.482 -0.0512 -0.0013  0.0049
28106W        W71097  14.026  27.190  13.775  0.3910  0.3351  0.5095
28107W        W71098  18.314   4.934  27.173 -0.1814  0.0896  0.3005
28108W        W71099  26.012  25.449  13.413  0.3136 -0.1663  0.0929
28109W        W71100  25.562  33.966  17.926  0.1620  0.2305 -0.0223
28110W        W71101   2.931  32.337  19.847  0.0570  0.1245 -0.2078
28111W        W71102  19.802   1.467  15.632  0.1792 -0.0952  0.2342
28112W        W71103  25.626  12.945  14.088 -0.1935  0.1240  0.1538
28113W        W71104  11.849   6.725  16.645  0.0893 -0.0184 -0.1092
28114W        W71105  25.211   8.991  25.316  0.1242 -0.0391 -0.0519
28115W        W71106  28.592  25.345  27.212 -0.1819 -0.1385 -0.0234
28116W        W71107  26.892  25.349   0.123 -0.0423 -0.3418 -0.2931
28117W        W71108   0.434  24.739  15.718  0.3113  0.0275 -0.1293
28118W        W71109  28.313  24.258   4.632  0.0081  0.0828  0.0552
28119W        W71110  19.709   1.014  28.362  0.0928  0.4086 -0.0439
28120W        W71111  27.888  10.350  25.750 -0.0217  0.0906  0.1677
28121W        W71112  22.645  29.098  18.362 -0.1633 -0.1643  0.1515
28122W        W71113  24.557   1.076  20.608  0.0882  0.1161 -0.0509
28123W        W71114   8.790  32.640  17.760 -0.0319  0.3242 -0.0464
28124W        W71115   3.434  13.970   1.103 -0.0270  0.2426  0.1381
28125W        W71116  20.834  31.371  18.435  0.0209 -0.0141 -0.0400
28126W        W71117  29.692   3.552  16.824 -0.3018  0.3410 -0.2856
28127W        W71118  27.094   9.049  14.503  0.1400  0.0860  0.0671
28128W        W71119  22.490  16.411  16.424  0.0582  0.2246  0.2176
28129W        W71120  33.509  20.267   6.133 -0.0639 -0.5197 -0.0018
28130W        W71121   1.562   1.363  27.355 -0.0861  0.0129 -0.2157
28131W        W71122  32.432   4.598  14.326  0.1990  0.0537 -0.0335
28132W        W71123  12.215   4.538  21.868  0.2922  0.0688  0.2746
28133W        W71124   4.839  19.977  23.377 -0.0300  0.0372  0.1452
28134W        W71125  29.156  22.600  19.884 -0.2918  0.0674  0.3148
28135W        W71126   1.278   8.195  21.727 -0.0926  0.0004 -0.0765
28136W        W71127  34.041  28.697   1.467 -0.3735 -0.0232 -0.1556
28137W        W71128  26.626  27.843  20.853 -0.3340  0.1371 -0.4451
28138W        W71129  26.293   6.456  24.773  0.0610  0.1231  0.1414
28139W        W71130  34.690  23.619  19.328 -0.0350 -0.1312  0.0246
28140W        W71131  25.824  12.422  10.117  0.1416 -0.3000 -0.0308
28141W        W71132  33.693  19.250  23.940  0.0770 -0.2519 -0.0562
28142W        W71133  26.035  29.181  28.286  0.2597 -0.2592  0.2348
28143W        W71134   4.986  29.055  22.409 -0.1049  0.0755  0.2562
28144W        W71135  31.804  23.326   2.492  0.1041  0.2270  0.2357
28145W        W71136  23.750  32.784   0.669  0.0045  0.2795  0.1317
28146W        W71137  26.356  29.520  21.623  0.0893  0.1028  0.1836
28147W        W71138  11.815  25.035  15.591  0.2653 -0.0261  0.1071
28148W        W71139  30.663  24.495   6.843  0.2436  0.1356 -0.1021
28149W        W71140  16.838  11.071  19.713  0.0201  0.0273 -0.0873
28150W        W71141  29.935   9.193  15.909 -0.0836 -0.2947  0.0136
28151W        W71142  33.377  14.213  18.293  0.3955  0.0480 -0.1119
28152W        W71143  19.286   7.271   1.227 -0.0526  0.0648 -0.0944
28153W        W71144  29.637  27.288  20.376  0.0121  0.1160  0.2018
28154W        W71145  17.173   1.178   2.042 -0.1418  0.1823  0.0081
28155W        W71146  23.570  33.022  25.835 -0.1246  0.0231 -0.0504
28156W        W71147  27.871   9.129  15.771 -0.3010 -0.0914  0.3130
28157W        W71148  10.888  19.118  15.483  0.3391  0.2504 -0.1102
28158W        W71149   7.450   9.723  15.616  0.0592 -0.3599 -0.1586
28159W        W71150  24.670  22.838  15.716 -0.2831 -0.0363  0.3856
28160W        W71151  17.189  33.462  21.943  0.1871  0.1439  0.1929
28161W        W71152  16.251   6.884  21.874  0.1045 -0.3595  0.2115
28162W        W71153  27.864   9.171  20.960 -0.0502 -0.0053 -0.0377
28163W        W71154  29.542   0.606  20.151  0.0597 -0.1504 -0.1085
28164W        W71155  29.812   2.117  21.742  0.1284 -0.0542  0.0285
28165W        W71156  26.965  11.689  27.645 -0.1416 -0.0919 -0.1281
28166W        W71157  29.824  18.000   0.503 -0.0397 -0.1776  0.0332
28167W        W71158   4.876   5.500  21.846  0.2581 -0.0597  0.0000
28168W        W71159   1.152  27.960  20.250  0.0673  0.3449  0.0375
28169W        W71160  23.323   0.561   3.505  0.2689  0.0282  0.1529
28170W        W71161  34.670  30.126  18.404  0.3276  0.0528 -0.2249
28171W        W71162  12.592   0.999  15.893 -0.1029 -0.0345  0.1046
28172W        W71163  19.494  23.039  18.906 -0.0671 -0.2734  0.1487
28173W        W71164  20.400  32.474  22.534 -0.4087  0.1410 -0.0247
28174W        W71165   8.747   3.317  21.880  0.1499  0.0102 -0.2608
28175W        W71166  14.214  27.605  25.677 -0.0682 -0.2337 -0.1907
28176W        W71167  32.469  24.622   6.960 -0.3139  0.0225  0.1646
28177W        W71168  25.106  24.278  16.023 -0.6342  0.3628 -0.3794
28178W        W71169  26.935  20.677  15.736  0.2614  0.1548  0.3044
28179W        W71170  26.037   1.821   0.071  0.0537 -0.1648 -0.2086
28180W        W71171  33.607  23.792   3.132  0.1176 -0.0416 -0.1596
28181W        W71172   0.243  29.626  18.146  0.1636 -0.3701  0.4139
28182W        W71173  15.955  10.602  15.325  0.0760 -0.0375  0.2022
28183W        W71174  31.200  16.605  17.787 -0.2623 -0.1166 -0.1890
28184W        W71175  28.363  18.660  19.384  0.0617 -0.1521 -0.0863
28185W        W71176   5.637  23.791  21.289  0.2106  0.4146 -0.0644
28186W        W71177  34.660  12.361  20.313  0.1812  0.1023  0.1065
28187W        W71178  13.357   2.622  18.292  0.0845  0.0681 -0.0149
28188W        W71179  32.432  30.628  23.922  0.1508 -0.2529 -0.0337
28189W        W71180  28.751  23.791   6.059 -0.2106 -0.1182 -0.0547
28190W        W71181  16.778  24.736  17.074  0.3095  0.1659  0.0481
28191W        W71182  20.812   6.800  26.117 -0.0580  0.0194  0.0251
28192W        W71183  13.339   0.081  15.126  0.2931 -0.1057  0.0645
28193W        W71184  26.427  20.614  17.194  0.3704 -0.1964  0.0270
28194W        W71185  26.479  20.493   4.831 -0.4463 -0.0320 -0.0317
28195W        W71186  30.639  15.258  16.049  0.1372  0.0081 -0.1165
28196W        W71187  21.585  29.494  22.327 -0.3524 -0.0780  0.0392
28197W        W71188  26.918  29.685  14.548  0.1806 -0.0403 -0.0224
28198W        W71189  32.293  27.941  17.768  0.0356 -0.1144  0.0132
28199W        W71190  25.837  17.419  25.446 -0.0204 -0.1144  0.3461
28200W        W71191  17.215   0.867  20.811 -0.1714  0.0255 -0.2737
28201W        W71192  30.820  19.549  21.675  0.1344  0.1944  0.1339
28202W        W71193  34.369  31.406  28.316  0.1905  0.0472 -0.2305
28203W        W71194  28.462   3.117   6.676 -0.1672  0.1392 -0.2051
28204W        W71195  30.601   2.586  22.208  0.0567  0.0765 -0.1730
28205W        W71196  20.967  27.284  18.126 -0.0988  0.1192 -0.1080
28206W        W71197   7.338   9.778  27.149  0.1895  0.3377  0.4146
28207W        W71198  34.261  28.270  25.960  0.1263  0.1704  0.0906
28208W        W71199  12.276   5.922  16.364  0.2810  0.2786 -0.3265
28209W        W71200  26.499  34.254  14.513  0.5263  0.0708  0.0750
28210W        W71201  27.436   3.878  27.011 -0.3730 -0.4021  0.1108
28211W        W71202  26.970   1.347  23.044  0.2123 -0.2607 -0.0293
28212W        W71203  18.877  33.746  25.086 -0.0334  0.1934 -0.0297
28213W        W71204  34.471  29.834  27.335 -0.1316 -0.0117 -0.0076
28214W        W71205  21.426  34.398  20.341 -0.3029 -0.0706  0.2305
28215W        W71206  19.864  15.610  21.410 -0.0405 -0.1447  0.1224
28216W        W71207  20.630   4.576  14.222 -0.1222  0.0552 -0.0245
28217W        W71208  13.903   1.514  20.963 -0.1044  0.1978 -0.0417
28218W        W71209  18.607  28.834  13.752  0.1815  0.0125  0.1966
28219W        W71210  17.618  23.072  16.541 -0.1006 -0.3646 -0.1552
28220W        W71211  26.838  21.573  18.219  0.0045  0.1336  0.0612
28221W        W71212  23.248  28.879  17.172 -0.0322  0.0177 -0.0130
28222W        W71213  22.172  31.044   0.294 -0.0565 -0.0879  0.2477
28223W        W71214  21.512  28.082  24.047  0.0832  0.1489 -0.0594
28224W        W71215  32.370  32.307  22.167  0.2043 -0.1604  0.1290
28225W        W71216  29.338   0.110   0.498 -0.1635 -0.0049 -0.2340
28226W        W71217   0.059  21.076  18.772  0.0340  0.3004  0.2637
28227W        W71218  29.950   0.161   0.227 -0.0862  0.1029 -0.1671
28228W        W71219  23.342   0.707  23.978  0.2617  0.1101 -0.0068
28229W        W71220  25.042  32.349   7.350 -0.0663  0.0032  0.1378
28230W        W71221   2.682  29.847  22.412  0.0395 -0.0596 -0.2320
28231W        W71222  26.382  12.022  15.448 -0.0237 -0.2378 -0.0056
28232W        W71223  27.902  31.355  25.252  0.0720  0.0684 -0.0004
28233W        W71224  30.017  28.545  13.337 -0.0091 -0.2796 -0.3294
28234W        W71225  27.893  24.206  13.309  0.0513  0.0978  0.4712
28235W        W71226  22.510  34.645  27.822  0.0170 -0.1038 -0.3036
28236W        W71227  22.531  21.857  25.763 -0.0178 -0.1371 -0.3738
28237W        W71228  25.669  11.531  17.658 -0.2590  0.0209  0.0640
28238W        W71229  24.866  23.110  17.579 -0.0777  0.0372 -0.1188
28239W        W71230  19.317  29.389  21.472  0.1917  0.3665  0.1552
28240W        W71231  29.981  33.767   1.595  0.0000 -0.1528  0.0731
28241W        W71232  29.410  26.742  24.140  0.0709  0.1613  0.1420
28242W        W71233  29.925  25.222  14.429  0.1258  0.0601  0.2559
28243W        W71234  32.644   6.009  25.510 -0.3120 -0.0379  0.0733
28244W        W71235   9.333  12.205  17.139  0.3249  0.0910  0.3158
28245W        W71236  30.467  31.529  19.180 -0.1471  0.0990  0.2658
28246W        W71237  27.179  31.562  24.296  0.1867 -0.0237 -0.0553
28247W        W71238   3.309  20.026  20.575  0.1885 -0.2502 -0.2833
28248W        W71239  29.305  22.792  19.376  0.2408 -0.0442 -0.3596
28249W        W71240  33.309   1.367  23.739 -0.2146  0.0295 -0.2719
28250W        W71241   3.034  31.292  14.078 -0.4131 -0.3444  0.0026
28251W        W71242  13.335   1.967  21.455  0.0367 -0.0334  0.0426
28252W        W71243  26.596  20.277   4.415  0.0306  0.0135 -0.0867
28253W        W71244  33.523  33.222  14.225 -0.1367  0.2084  0.1787
28254W        W71245   5.567  10.224  18.466 -0.1454 -0.1858  0.1495
28255W        W71246   2.595  33.003  16.615  0.2906 -0.0287 -0.0799
28256W        W71247  29.965   7.135   3.598  0.0319 -0.1476 -0.2217
28257W        W71248  29.054  25.985  25.446 -0.2616  0.2933  0.1160
28258W        W71249  20.309   7.633  22.990  0.0709 -0.1742 -0.0690
28259W        W71250   3.200   5.370  18.996 -0.2081 -0.0762  0.0640
28260W        W71251  13.968  25.374  16.206 -0.0902 -0.1897  0.1747
28261W        W71252   1.814  24.007  26.622  0.0377  0.2048  0.2725
28262W        W71253  32.482  29.673  14.378  0.1991  0.3257 -0.3253
28263W        W71254  13.892  22.545  19.311  0.1082  0.3285 -0.1955
28264W        W71255  25.482   3.562  20.786 -0.1984  0.4175  0.0733
28265W        W71256  20.509  34.266  15.548 -0.0046  0.0287 -0.2821
28266W        W71257  26.460  24.456  22.572 -0.2796 -0.0945 -0.0247
28267W        W71258  14.247   0.812  24.203  0.1070 -0.3379  0.0887
28268W        W71259  22.120  27.699  21.302 -0.1229  0.0448  0.0017
28269W        W71260  12.206  26.676  27.348  0.0223 -0.0065  0.1483
28270W        W71261  34.206   1.699  20.791  0.0478  0.0014 -0.2931
28271W        W71262  29.469  11.729   1.192  0.0452  0.0231  0.0258
28272W        W71263  26.474   6.513  22.782 -0.2698  0.3199 -0.1543
28273W        W71264  27.109  31.193  18.765  0.3640 -0.2878  0.0112
28274W        W71265  30.561   1.337  27.398  0.0716  0.0025  0.2664
28275W        W71266   1.077   9.064  23.187  0.2405  0.2484 -0.1707
28276W        W71267   7.539   6.654  25.093 -0.0418 -0.0504  0.1533
28277W        W71268  15.737   5.131  15.763  0.1231 -0.0261 -0.2508
28278W        W71269  10.171  20.865  28.011 -0.2365  0.0027 -0.1429
28279W        W71270  22.791  32.077   5.199  0.2393 -0.0509  0.0215
28280W        W71271  14.685  24.146  14.297 -0.1736  0.5548  0.0236
28281W        W71272   3.027  27.852  16.748 -0.2757 -0.1390  0.0058
28282W        W71273   2.774   9.633  16.375  0.2339 -0.1112  0.3429
28283W        W71274  25.608  18.131  24.328 -0.1274 -0.0495  0.5195
28284W        W71275  20.005  28.045  18.826 -0.1549  0.0792  0.2390
28285W        W71276  31.722  34.284  15.296 -0.2685  0.1621 -0.0655
28286W        W71277   5.534  28.960  15.713  0.1424  0.0154 -0.0003
28287W        W71278  28.621  23.547   3.310  0.2672  0.1844 -0.0059
28288W        W71279  29.283  23.712  24.297 -0.4201  0.1026 -0.2357
28289W        W71280  17.801  10.944  19.637  0.0416 -0.0498  0.3327
28290W        W71281   8.571  18.049  20.991  0.0888 -0.1342 -0.1406
28291W        W71282  27.813   6.618  26.408 -0.1693  0.2345  0.0589
28292W        W71283  27.368  31.432  18.470  0.2741 -0.0519 -0.0791
28293W        W71284  29.241  33.828  16.536  0.1585  0.1345 -0.1117
28294W        W71285  32.125  30.686  18.704  0.0762  0.0107 -0.1695
28295W        W71286  25.519  31.705  20.314 -0.0989  0.0313 -0.4478
28296W        W71287  19.398  23.386  21.284  0.1628  0.0860  0.3172
28297W        W71288   3.966   6.331  27.287  0.1409  0.1736 -0.1306
28298W        W71289   0.939   0.701   9.052  0.4597  0.1434 -0.0938
28299W        W71290  24.204   4.727  16.960  0.1655 -0.3050  0.0444
28300W        W71291  24.107  17.836   9.000  0.1073  0.1403  0.0905
28301W        W71292  30.603  32.088  22.643  0.3160 -0.1969 -0.0771
28302W        W71293  31.797   5.461   7.904 -0.1068  0.0083  0.1272
28303W        W71294  20.090  13.819  17.634 -0.1455  0.0542  0.2052
28304W        W71295  21.826  29.959  16.408 -0.0729  0.0004  0.0359
28305W        W71296  24.004  29.310  25.342  0.0924  0.0728  0.1187
28306W        W71297   0.998  21.642  13.709 -0.3048 -0.3310 -0.2259
28307W        W71298  22.738  26.403  23.662  0.0795 -0.3614 -0.1971
28308W        W71299  26.530  30.266  24.270 -0.2166  0.3123  0.3927
28309W        W71300  23.744   5.634  16.938 -0.1761 -0.0840 -0.1099
28310W        W71301  26.184  17.467   2.917 -0.2191  0.1616  0.0417
28311W        W71302  31.011   4.704  19.224 -0.0962 -0.1129  0.2371
28312W        W71303  28.275  31.696  19.927  0.0903 -0.2131 -0.0254
28313W        W71304  30.616  25.214  21.316  0.2616  0.0925  0.0762
28314W        W71305  32.896   8.504   0.751 -0.3184  0.1038  0.2326
28315W        W71306  11.208  30.554   2.789 -0.0765  0.0350  0.1007
28316W        W71307  27.248  32.669  17.510  0.4295  0.1839  0.3320
28317W        W71308  23.203  18.574  21.003 -0.1289  0.1362  0.0424
28318W        W71309  23.964  19.932  20.923  0.0872  0.0676  0.0074
28319W        W71310  31.153  24.916   3.621  0.1859  0.0560 -0.1619
28320W        W71311  24.227   2.266  15.621  0.2228  0.1722  0.2980
28321W        W71312  28.095   2.739  24.712  0.0201 -0.2206  0.0970
28322W        W71313   9.546  29.106   2.451  0.0945  0.1782 -0.3049
28323W        W71314  16.328  27.978  19.557  0.0891 -0.0478 -0.3024
28324W        W71315  13.775  13.516  20.854  0.2070  0.1424  0.2263
28325W        W71316   6.885   0.876   0.370  0.0106 -0.0820  0.0041
28326W        W71317  25.402  19.190  27.010  0.1517 -0.1439 -0.1234
28327W        W71318  17.708  31.768  24.815  0.0519 -0.0854  0.0733
28328W        W71319  10.985  30.623  26.763 -0.0457  0.1352  0.1672
28329W        W71320  19.397  27.306  28.859  0.0227  0.1507  0.0470
28330W        W71321  18.347  18.185  27.670 -0.0298 -0.0895  0.0257
28331W        W71322  28.727   2.989  15.065 -0.1647 -0.0014 -0.0860
28332W        W71323  33.194   0.658  17.955  0.0233  0.1723 -0.0675
28333W        W71324  12.050  29.181  16.333 -0.5453 -0.1164 -0.1497
28334W        W71325  24.323   2.836  14.749  0.1214  0.1055  0.3076
28335W        W71326  34.369  21.160  17.713 -0.2171 -0.2949  0.1792
28336W        W71327  19.675   4.524  13.746 -0.0926  0.2293  0.0817
28337W        W71328  27.355  23.736  16.516  0.0638 -0.0028  0.0384
28338W        W71329  33.954  28.977  15.260 -0.1827  0.0167 -0.0830
28339W        W71330  14.177  20.562  21.530  0.3090 -0.1529 -0.0875
28340W        W71331   1.577   4.811   9.811 -0.2471 -0.0330 -0.2069
28341W        W71332  21.655  10.630  25.134  0.0391  0.1562  0.1368
28342W        W71333  32.173  18.372  24.419 -0.0440  0.5664  0.2396
28343W        W71334  28.337  30.933  19.373 -0.5551  0.1952  0.2236
28344W        W71335  22.893   2.578  16.195  0.0894  0.0315  0.0583
28345W        W71336  23.321  25.711  23.303  0.2216  0.0087 -0.0130
28346W        W71337   4.169   4.430  21.071  0.1750 -0.0896  0.0733
28347W        W71338  24.711  24.539   0.578  0.0118 -0.2767  0.0547
28348W        W71339  32.851   6.882  17.064  0.0515 -0.2176 -0.0554
28349W        W71340  34.315   5.172  27.028  0.2474  0.0402  0.1357
28350W        W71341  33.963  30.074  22.191 -0.0093  0.1261  0.2320
28351W        W71342   6.197   8.056  26.546  0.4560 -0.2143  0.0698
28352W        W71343  10.530   0.834  17.201 -0.4265  0.1175  0.2304
28353W        W71344  28.271  20.238   9.881  0.3139 -0.1592  0.2620
28354W        W71345  34.117  28.939  14.123 -0.0239  0.1614  0.1161
28355W        W71346  19.386   7.599   4.271  0.0735  0.2420 -0.1126
28356W        W71347  11.149  32.203  22.243 -0.0276  0.0852  0.1387
28357W        W71348  32.879  24.700  19.730 -0.1484  0.0224  0.0334
28358W        W71349  29.289   5.793  27.070 -0.0368  0.1103 -0.2502
28359W        W71350  22.793  32.701  22.757 -0.1197 -0.1223 -0.3065
28360W        W71351  32.615   0.511  18.048  0.1398  0.0363  0.0636
28361W        W71352   4.653  31.874  29.233 -0.0517  0.1708  0.1576
28362W        W71353  23.714   1.217  19.835  0.0482 -0.1413  0.1832
28363W        W71354  27.414   6.190  23.230 -0.2699 -0.0073  0.4095
28364W        W71355  30.536  24.699   6.396  0.0116 -0.2518  0.1706
28365W        W71356  24.947  34.462  18.036 -0.1268  0.0156 -0.3084
28366W        W71357  29.445  27.610  26.680  0.0643  0.1531  0.0572
28367W        W71358  19.855  33.774  20.279  0.2816 -0.0691 -0.2469
28368W        W71359  20.614  34.400  19.428  0.1254 -0.0016  0.2078
28369W        W71360  13.717  28.456  20.502 -0.0059  0.3430  0.0727
28370W        W71361  21.010  20.726  14.406 -0.1564 -0.0147 -0.2176
28371W        W71362  27.220  21.346  15.960  0.3218 -0.2271 -0.0876
28372W        W71363   0.255  18.970  21.033 -0.3004 -0.1960  0.0580
28373W        W71364  20.545  29.390  14.421 -0.0384 -0.1702 -0.0361
28374W        W71365  11.965  32.629  16.422  0.1401 -0.1137  0.1868
28375W        W71366   2.296  25.976   0.058 -0.1037  0.0434 -0.0715
28376W        W71367  26.005  10.676  20.498  0.1941  0.0360  0.1577
28377W        W71368  22.815  30.372   4.080 -0.0884  0.0260 -0.3272
28378W        W71369  10.947  34.532  21.310  0.0434 -0.0353  0.1128
28379W        W71370   3.541  28.522  29.169 -0.0233  0.1480  0.0535
28380W        W71371   4.939  26.387  25.957 -0.0695  0.1124  0.0674
28381W        W71372  27.362   8.615  24.965  0.2893 -0.1568 -0.1626
28382W        W71373   4.490  12.485  16.381 -0.0168 -0.0924  0.3053
28383W        W71374  30.435  33.334  19.803 -0.0302  0.1020 -0.2711
28384W        W71375  23.502  26.467  20.472  0.2715 -0.1936  0.2586
28385W        W71376  28.101  17.730  27.331  0.0792 -0.0358  0.1786
28386W        W71377  14.101   1.667  15.322 -0.1664  0.3590  0.0442
28387W        W71378  33.152  21.537  20.331  0.0821 -0.1808 -0.0550
28388W        W71379  30.126  17.025  24.678  0.3753 -0.1037 -0.0709
28389W        W71380   0.495  33.474  15.431  0.0668 -0.2203  0.3623
28390W        W71381  26.353  22.878  26.438 -0.2693 -0.0621  0.2215
28391W        W71382  31.329   4.808  18.502 -0.3685  0.2459  0.2840
28392W        W71383  10.872  33.520   1.033 -0.4156 -0.0344  0.0647
28393W        W71384  26.773   4.941  17.410 -0.1664  0.0876 -0.2196
28394W        W71385  23.245  26.028  16.979  0.1198 -0.2299 -0.2541
28395W        W71386  29.622   2.119  17.262 -0.3471  0.4099 -0.2068
28396W        W71387   8.010  27.819  24.952 -0.1707 -0.0187 -0.0647
28397W        W71388  23.038  26.191  21.625 -0.1915 -0.2384 -0.0863
28398W        W71389  28.105   5.109  29.089 -0.0992  0.1007 -0.2925
28399W        W71390   6.832   0.406  21.924  0.0109 -0.2517 -0.1770
28400W        W71391  26.564  26.129  19.524  0.0926 -0.0533 -0.0233
28401W        W71392   0.052  31.957  22.871  0.2877  0.1671  0.1117
28402W        W71393  17.545  10.680   2.706  0.1761  0.1307  0.1999
28403W        W71394  30.927  23.947  22.083 -0.2109  0.0987  0.0230
28404W        W71395  23.695  29.280  21.825  0.0437 -0.1060 -0.3904
28405W        W71396   2.213  19.642  16.684 -0.0448  0.2080  0.0686
28406W        W71397  11.593  13.276   3.815 -0.2014  0.0664 -0.0151
28407W        W71398   6.428  28.889  22.844 -0.0239  0.0324 -0.2166
28408W        W71399  14.586  24.604  15.326  0.0321  0.0518 -0.1547
28409W        W71400  20.584  32.916   3.563 -0.2951 -0.2786  0.0204
28410W        W71401  20.058  33.615   0.663  0.0560  0.1478  0.2497
28411W        W71402   6.818   0.133  24.842 -0.2039  0.0769  0.2186
28412W        W71403  11.990  12.235  21.103 -0.3516 -0.0862  0.0785
28413W        W71404  15.754  25.695  19.760  0.0033  0.0929 -0.2953
28414W        W71405  23.996  30.510  27.192  0.2752 -0.2608 -0.1528
28415W        W71406  25.007  27.120  26.051  0.1921 -0.1606  0.0501
28416W        W71407  23.675   8.061  15.816 -0.1110 -0.1861 -0.1426
28417W        W71408  23.683  16.370  26.070  0.0912  0.2714  0.1076
28418W        W71409  17.495   3.915  27.536 -0.1241  0.2851 -0.0156
28419W        W71410  31.463  32.398  12.544 -0.0316 -0.0888  0.0540
28420W        W71411   5.687  26.799   3.328 -0.1704 -0.0272 -0.0424
28421W        W71412  11.953  33.990   2.284  0.1647 -0.0419  0.2760
28422W        W71413  21.491   6.139   1.522 -0.0223  0.0997 -0.0874
28423W        W71414  32.998   0.908  24.528  0.0788 -0.6829  0.4029
28424W        W71415  28.291  26.717  16.726 -0.1094 -0.1083 -0.0937
28425W        W71416  31.932  34.321  21.223 -0.1985  0.0036 -0.0922
28426W        W71417  22.877  24.515   8.336 -0.3163  0.3032  0.0019
28427W        W71418   3.220  29.099  19.838 -0.0439 -0.1032 -0.1386
28428W        W71419  33.201  22.931  10.196 -0.1747 -0.1027  0.1565
28429W        W71420  28.963  16.616  20.570 -0.0507 -0.1045  0.0132
28430W        W71421  25.468  22.973  27.866  0.1125  0.1314  0.1813
28431W        W71422   6.559   4.336   1.844  0.0867  0.1152 -0.1576
28432W        W71423  22.423   2.009  19.296 -0.1161 -0.2952  0.0617
28433W        W71424  27.997  17.770  16.307 -0.1437  0.1576 -0.3002
28434W        W71425  24.144   3.183  27.773 -0.2592 -0.2286  0.0037
28435W        W71426  29.673  11.714  21.628  0.0591  0.0036  0.1925
28436W        W71427  31.270   3.665  15.234  0.2266 -0.0917 -0.1715
28437W        W71428   2.764  30.492  10.342 -0.1420 -0.3635  0.0594
28438W        W71429  13.254  25.453  23.871 -0.2755  0.0261 -0.1785
28439W        W71430  24.525  28.743  23.777  0.1605  0.1427 -0.0260
28440W        W71431  23.792  16.311  22.769 -0.0472  0.0065  0.1111
28441W        W71432  27.903  31.007  28.206  0.0190  0.0557 -0.1929
28442W        W71433  19.409  32.750  22.927 -0.2667  0.1554  0.0002
28443W        W71434  20.460   3.779  19.110 -0.2414 -0.1857 -0.1094
28444W        W71435  22.426   7.035  19.076  0.0945 -0.0076  0.0628
28445W        W71436   6.683   6.411  20.404 -0.1819  0.0299 -0.2417
28446W        W71437  18.162   2.695  13.782 -0.0676 -0.2654 -0.3432
28447W        W71438   4.931   3.846  17.816  0.1136  0.2619 -0.1886
28448W        W71439  21.616   9.147  17.878 -0.0483 -0.2708  0.0398
28449W        W71440  14.796  11.917  26.997  0.4650  0.2064 -0.1657
28450W        W71441  11.539  33.049   2.786  0.0065 -0.1557 -0.0276
28451W        W71442   1.452  25.903  18.618  0.0307 -0.0149 -0.1093
28452W        W71443  13.797   7.303  22.716 -0.1127 -0.0963 -0.0018
28453W        W71444  31.245   2.065  15.547  0.1102 -0.0442 -0.1520
28454W        W71445   0.226  32.312  17.682  0.2114  0.0642  0.0299
28455W        W71446  23.207   2.427   3.255  0.1014  0.0958  0.1267
28456W        W71447  25.257  25.260  18.656  0.2061  0.0559 -0.0099
28457W        W71448  16.547   3.101  23.113  0.1974  0.0816 -0.0277
28458W        W71449  17.900   8.483  27.590  0.0280  0.2343  0.1539
28459W        W71450  14.086  33.702  20.512 -0.0296 -0.1084  0.0481
28460W        W71451  28.965  20.356  26.680  0.1109 -0.1497  0.2482
28461W        W71452  27.803  17.192  13.831  0.2857  0.2318  0.0785
28462W        W71453  29.645  21.272   0.566  0.0163 -0.3550  0.0914
28463W        W71454  33.213  30.102  21.158  0.3747  0.1499 -0.3781
28464W        W71455  11.926   1.532  24.352 -0.0575 -0.0487  0.4238
28465W        W71456  29.064  27.764  28.673  0.0965  0.3457  0.1178
28466W        W71457  23.872  31.934   0.602  0.1025 -0.1529  0.2703
28467W        W71458  23.886   7.122  28.912 -0.0283 -0.1048  0.2223
28468W        W71459  25.136  29.731   6.944  0.0303  0.0029 -0.0552
28469W        W71460  30.200   5.490  26.773 -0.3864 -0.0611 -0.3869
28470W        W71461   1.928  34.070   5.674  0.1080  0.0230  0.2660
28471W        W71462  28.256  14.833   4.269  0.0406  0.0641  0.3034
28472W        W71463  18.981  22.377  24.196 -0.1595  0.1910  0.2844
28473W        W71464  16.729  18.251  24.555  0.0192 -0.4562  0.1887
28474W        W71465   0.765  22.782  18.559 -0.2185  0.0379  0.3928
28475W        W71466  34.776  27.540  25.503  0.2733 -0.1065  0.0958
28476W        W71467  24.165  30.133  27.472 -0.1029  0.0396 -0.3065
28477W        W71468  28.068  33.116  25.042  0.0189 -0.2441  0.0030
28478W        W71469  15.902  33.356   4.158  0.0042 -0.0282  0.1498
28479W        W71470  32.662   1.386   8.519  0.2554  0.0566 -0.0987
28480W        W71471  29.090  31.105  24.427 -0.0697  0.2294  0.0725
28481W        W71472   3.102  31.300   7.487 -0.0945 -0.1252 -0.2096
28482W        W71473   4.930  25.963  15.636 -0.0133  0.1931  0.0974
28483W        W71474  23.604   6.817  17.389  0.1666 -0.1504  0.4948
28484W        W71475   4.183   4.024  10.240 -0.2566  0.0927 -0.0703
28485W        W71476  20.992   6.639   4.537  0.0839 -0.0212 -0.0715
28486W        W71477  23.071  32.988  28.081 -0.1963 -0.0366 -0.0676
28487W        W71478  32.485  26.109   9.484 -0.1417  0.0480  0.0875
28488W        W71479  17.394   1.395   3.533 -0.0793 -0.0375  0.1430
28489W        W71480  24.464  21.000   4.803  0.0654  0.0021 -0.1871
28490W        W71481   0.631  16.569  16.003 -0.0315 -0.1847 -0.0681
28491W        W71482  19.605  22.153  16.864  0.2379 -0.1412  0.0117
28492W        W71483  32.600   8.869   0.898 -0.0262 -0.3254  0.2083
28493W        W71484  21.023  29.525  15.988 -0.1089 -0.0865 -0.0909
28494W        W71485   6.208   1.543   7.367  0.0491 -0.2648  0.0589
28495W        W71486  22.707  32.812  21.281 -0.0547  0.2644 -0.1730
28496W        W71487  20.942   2.255  27.251 -0.1204  0.0747 -0.0719
28497W        W71488  26.753  28.362   3.496 -0.0413 -0.0940 -0.3534
28498W        W71489   4.631  17.212  27.254 -0.1512  0.1812  0.2669
28499W        W71490  24.924  29.539  16.366  0.0414  0.1963  0.1255
28500W        W71491  12.665  13.293  22.951 -0.2368  0.1060 -0.1193
28501W        W71492  29.697  29.107  15.329  0.0596  0.1343 -0.0126
28502W        W71493  29.740  32.394  14.795  0.1145  0.1209  0.2293
28503W        W71494  18.551  24.581  27.610  0.2103 -0.0379  0.0168
28504W        W71495  24.707  26.201  25.314  0.1091  0.1523 -0.1993
28505W        W71496   0.308   8.457  23.261  0.1080 -0.2989 -0.2569
28506W        W71497  23.308  28.585   8.126 -0.2672  0.0288  0.1493
28507W        W71498  34.095  29.895  19.875 -0.1049  0.0691  0.0329
28508W        W71499  19.157  13.683  16.283 -0.0843  0.2716  0.2253
28509W        W71500  14.172  30.848  18.189 -0.0707 -0.0125  0.2242
28510W        W71501  13.448   5.575   2.893  0.0402 -0.1187 -0.0497
28511W        W71502  19.466   8.881  26.828  0.3190  0.1156 -0.0873
28512W        W71503   7.856  13.961  15.745  0.1627  0.4507 -0.0035
28513W        W71504  33.121   0.160  24.638  0.2171  0.2064 -0.4256
28514W        W71505  29.920  26.992  18.813 -0.1905 -0.1270  0.0695
28515W        W71506  25.437   3.037  28.672  0.0510  0.2561  0.1768
28516W        W71507   8.310  32.068  21.250 -0.1829 -0.2046  0.1942
28517W        W71508  22.798  25.457   0.769 -0.0724 -0.1530  0.0925
28518W        W71509  23.850  19.739  15.007 -0.0046 -0.0675  0.1459
28519W        W71510  12.705  32.120  15.190 -0.0581 -0.0026 -0.0012
28520W        W71511  21.878  31.311  25.776  0.3525 -0.1702 -0.0179
28521W        W71512  29.368  23.606  14.097 -0.3114  0.0189 -0.1766
28522W        W71513  18.464  31.297  16.624  0.2573 -0.2062 -0.0709
28523W        W71514   1.274   7.532  16.017  0.3599 -0.0463 -0.0113
28524W        W71515   8.024  27.336   3.159  0.1363 -0.2084 -0.0543
28525W        W71516  24.658  33.214  23.011 -0.0357 -0.0400  0.3521
28526W        W71517   1.861   0.016  28.938  0.0284  0.0065  0.1257
28527W        W71518  27.224  11.663   4.059  0.1232 -0.0661  0.0149
28528W        W71519  21.258   5.148  19.795 -0.1667  0.2950  0.2542
28529W        W71520   2.609  10.453  28.573  0.0467 -0.2832 -0.0383
28530W        W71521  23.923  21.671  17.418 -0.0514 -0.2410 -0.0088
28531W        W71522  19.218  10.607  15.951  0.2449  0.4275  0.0887
28532W        W71523  22.822   4.351  16.809 -0.1258 -0.0860  0.2856
28533W        W71524  14.910  18.267  14.333  0.1766  0.1181  0.1591
28534W        W71525  28.058   1.309  18.797 -0.1114 -0.1634  0.1197
28535W        W71526  28.769  16.938   3.051  0.1761  0.1177 -0.1021
28536W        W71527  16.574   3.755  18.807 -0.0681 -0.1634  0.1194
28537W        W71528   7.622   2.326   1.730 -0.1036  0.1754  0.4809
28538W        W71529  22.912  23.579  16.480 -0.2350 -0.0146  0.1134
28539W        W71530  24.861  30.880   1.560 -0.2505 -0.3707 -0.0304
28540W        W71531  33.243  10.087  18.278 -0.0690  0.1204  0.0320
28541W        W71532  16.023  14.485  13.421  0.0485  0.1263  0.0669
28542W        W71533  25.365  33.983  16.515  0.0140 -0.0547 -0.4155
28543W        W71534   0.994  15.986   1.503  0.2847 -0.2334 -0.1068
28544W        W71535  31.448   6.919  17.230 -0.1679  0.0994 -0.3157
28545W        W71536  28.333   1.194  14.731  0.0640  0.0371  0.1897
28546W        W71537  16.539  34.738  15.537  0.0016 -0.0302  0.2049
28547W        W71538   8.427   1.528  17.428  0.3073  0.4948 -0.3147
28548W        W71539   7.906  28.982  21.406  0.0388 -0.1012 -0.0709
28549W        W71540  30.442  23.252   6.030 -0.1255 -0.1022 -0.1721
28550W        W71541  33.777  10.278   1.816 -0.1528  0.1695 -0.3759
28551W        W71542  21.034  25.992  24.740  0.0568 -0.0132  0.2838
28552W        W71543  28.822  13.522  26.977  0.1018 -0.0669 -0.1276
28553W        W71544  33.416  34.622   1.069 -0.4053 -0.0867 -0.0573
28554W        W71545  34.414   1.637   0.928  0.2346 -0.1262  0.0412
28555W        W71546  17.715  15.031   0.128 -0.1614 -0.1984  0.1518
28556W        W71547  22.118  30.460   7.596  0.1660  0.0356  0.2065
28557W        W71548  14.687   4.885  18.016 -0.0085 -0.2158 -0.1475
28558W        W71549  18.240  31.475   2.295  0.1602 -0.1247  0.0638
28559W        W71550   6.182  24.801  28.953  0.0734  0.1869 -0.2955
28560W        W71551  30.248   6.488   0.999 -0.0674 -0.2979 -0.1479
28561W        W71552  22.967  29.280  22.411  0.1856 -0.0854  0.1002
28562W        W71553  27.385  32.408   0.561 -0.2960  0.0953  0.2400
28563W        W71554  27.227  30.710   0.541  0.0157 -0.1103  0.0791
28564W        W71555  16.106  32.279  19.194  0.0636  0.0162  0.0961
28565W        W71556  21.797  18.825  23.904  0.3578 -0.0761  0.2554
28566W        W71557  24.354  31.840  25.948  0.1152 -0.1098  0.2677
28567W        W71558  21.773  23.687  17.711  0.2048  0.0009  0.1198
28568W        W71559  22.145  21.460  28.334  0.1762  0.2548  0.2457
28569W        W71560   0.494  28.122  26.686 -0.0775 -0.2255  0.3192
28570W        W71561  16.636   3.215  27.737  0.0905  0.1632  0.2065
28571W        W71562  32.850   8.537  19.717  0.0367  0.1502 -0.1550
28572W        W71563  17.351  14.491  27.378  0.3779  0.1366  0.3349
28573W        W71564  28.519  11.777  18.110  0.0934 -0.2401 -0.0586
28574W        W71565  18.479  32.711   4.530 -0.1569  0.1629  0.3285
28575W        W71566  30.835  31.263   7.272  0.1519 -0.0059  0.3019
28576W        W71567  23.713  32.148  17.635  0.1688 -0.2971  0.2033
28577W        W71568  33.111  25.448  25.846  0.0360 -0.2209  0.2157
28578W        W71569  18.430   0.938   7.923  0.1251 -0.3490 -0.0454
28579W        W71570  33.970  33.718  16.726  0.0816 -0.3439 -0.3274
28580W        W71571   5.839  23.916  20.748  0.1021 -0.1952 -0.2616
28581W        W71572  34.737  29.630  19.280  0.3482  0.1261 -0.0792
28582W        W71573  27.635   2.743  14.332  0.0621  0.2127  0.2392
28583W        W71574  27.876   6.133  15.774  0.1670 -0.1055  0.3852
28584W        W71575   2.401  28.453  21.208 -0.3229 -0.1693 -0.0787
28585W        W71576   3.107   0.735  19.799 -0.1683  0.3126  0.2563
28586W        W71577   5.159   1.948  27.296  0.4092 -0.2588 -0.1695
28587W        W71578  14.281  29.563  21.351  0.1910  0.1102  0.0213
28588W        W71579  21.270  18.013  15.234  0.2885  0.0345 -0.3195
28589W        W71580  34.235  19.841  26.416 -0.1676 -0.1194 -0.0089
28590W        W71581   8.093  26.577  28.959  0.0736 -0.0494 -0.2331
28591W        W71582  34.584  29.211  24.074 -0.2344  0.0885  0.2017
28592W        W71583   3.731  34.279  10.084  0.3686  0.4038 -0.4608
28593W        W71584  31.035   5.008  28.771 -0.0578  0.0749  0.0469
28594W        W71585  19.451   4.773  26.822 -0.2567 -0.0410 -0.2898
28595W        W71586  34.464  12.248  28.959 -0.1769 -0.2121 -0.3264
28596W        W71587  26.495   1.154  13.971 -0.1752  0.2425 -0.0483
28597W        W71588  17.038  19.599   5.251 -0.0820 -0.0250  0.0728
28598W        W71589  13.807  30.296  15.996  0.2736 -0.4140  0.2307
28599W        W71590   9.394  19.689  25.846 -0.1126  0.3409  0.0033
28600W        W71591  25.943   3.158  15.089 -0.1522 -0.1924  0.1012
28601W        W71592  24.172  24.473  13.737 -0.2354  0.0100  0.1864
28602W        W71593  24.741  26.568  28.550 -0.1064 -0.0374 -0.1052
28603W        W71594  31.268  34.282  25.655  0.0897  0.3577 -0.0344
28604W        W71595  19.273  33.059  25.651 -0.0863 -0.0981  0.0719
28605W        W71596   6.800  30.844  18.356  0.0530  0.1219  0.1877
28606W        W71597  28.064   3.235   6.143 -0.2893 -0.1956  0.0212
28607W        W71598   0.535  25.582  19.105 -0.4193 -0.0126 -0.1614
28608W        W71599  31.675   6.444  22.750  0.1243  0.3349  0.0269
28609W        W71600  23.508  14.730  13.423 -0.0780  0.0866  0.1331
28610W        W71601  22.999  33.652  22.454 -0.2110 -0.2766  0.0665
28611W        W71602  27.679  31.413  12.714 -0.1855 -0.1909  0.0218
28612W        W71603   2.192  27.200  14.331 -0.1308  0.2916  0.0611
28613W        W71604  18.006  34.232  29.178 -0.1179 -0.0713  0.0259
28614W        W71605  29.067   0.083  17.430 -0.1874 -0.2113 -0.0462
28615W        W71606   9.028  23.800  19.517 -0.0820  0.0146  0.1840
28616W        W71607  33.586   8.476  21.295  0.2579  0.4447  0.2880
28617W        W71608  33.241   5.779  23.619 -0.2228  0.0679 -0.0730
28618W        W71609  25.986  33.567  21.130  0.1574 -0.1468 -0.1598
28619W        W71610   2.116   2.178  26.197 -0.3034  0.0339 -0.2212
28620W        W71611  22.114  19.757  14.818  0.1276 -0.2497  0.2680
28621W        W71612  25.866  30.510  16.711 -0.1113 -0.1445  0.2371
28622W        W71613  13.418  12.679  28.266  0.0306  0.1582 -0.1653
28623W        W71614   4.928  13.549  15.531 -0.0975  0.4144  0.3687
28624W        W71615   1.620  26.910  26.503 -0.0335 -0.0953  0.0283
28625W        W71616  31.213  25.821  23.957  0.1025 -0.1925  0.0991
28626W        W71617   5.671   1.638  28.543  0.3093  0.0950  0.1740
28627W        W71618  29.030  19.121  24.503 -0.1133 -0.0049 -0.2741
28628W        W71619  10.965   0.598  17.960 -0.3191  0.1213  0.0512
28629W        W71620  25.634   5.806   2.646  0.0487 -0.1427 -0.1407
28630W        W71621   9.020   0.721   4.390  0.1803  0.0299  0.0658
28631W        W71622   2.886   3.023   1.662  0.3690  0.2647 -0.2941
28632W        W71623   1.641   3.111  25.126  0.0181  0.2388  0.0901
28633W        W71624  23.623   4.797   0.731  0.3033  0.2439 -0.1334
28634W        W71625  24.320  15.466  21.062  0.1153  0.2243  0.0337
28635W        W71626  26.394  23.853  24.567  0.0576  0.1473  0.1776
28636W        W71627  13.314   0.935   7.041 -0.1141 -0.1961 -0.1743
28637W        W71628  32.694  12.220   1.402  0.2223  0.0700  0.2699
28638W        W71629  20.982  18.819  15.848  0.0605 -0.1483  0.2518
28639W        W71630  34.717  28.735  22.574  0.1225  0.0996 -0.2481
28640W        W71631   9.030   6.237  26.442 -0.1447  0.0888  0.0340
28641W        W71632  25.019  28.228  16.671 -0.0871  0.0725 -0.1737
28642W        W71633  25.575  10.915  16.537 -0.2578 -0.1352  0.0184
28643W        W71634  11.028   2.397  28.252  0.3257  0.1365  0.0232
28644W        W71635  20.983  22.191  15.527 -0.1154 -0.1708  0.2532
28645W        W71636   5.207  22.411   0.013 -0.0096 -0.2458 -0.0306
28646W        W71637  29.783   2.309   1.553 -0.1741 -0.1689  0.4247
28647W        W71638  27.191  30.857  17.787  0.1820 -0.0589 -0.2047
28648W        W71639   5.909  28.278  23.743 -0.3111 -0.0374  0.0554
28649W        W71640  26.354  32.029  23.397 -0.1489  0.0513  0.1463
28650W        W71641  32.685  22.182  19.889  0.2274 -0.0126  0.0239
28651W        W71642  18.269   3.438  24.303  0.0278 -0.0509  0.3412
28652W        W71643   7.613   3.687   8.577 -0.1776  0.0791 -0.2612
28653W        W71644   0.196  25.586  29.255 -0.0561  0.1226 -0.3400
28654W        W71645  13.409  12.495  16.476 -0.1766 -0.3544 -0.0492
28655W        W71646  15.817  28.254  18.701  0.2814  0.2415  0.2649
28656W        W71647   3.509  33.636  28.437  0.1426  0.0705 -0.0519
28657W        W71648  33.965  27.230  23.563 -0.1509  0.2426 -0.0561
28658W        W71649   9.962  27.969   8.127  0.0415 -0.0419  0.0413
28659W        W71650  26.080  28.795  18.343  0.0284  0.0671 -0.0368
28660W        W71651  26.445  23.964  26.358 -0.0383 -0.0354 -0.0304
28661W        W71652  24.413  23.272  15.788 -0.2085  0.1596 -0.1902
28662W        W71653   3.833  33.604  17.877 -0.1282  0.0501  0.0035
28663W        W71654  27.518   7.696   0.641  0.0745 -0.0223 -0.2817
28664W        W71655  17.760  24.502  20.632 -0.1961 -0.3888  0.1698
28665W        W71656   6.434  12.881  27.977 -0.1705 -0.1382  0.0052
28666W        W71657  15.261  26.076   1.996 -0.1789  0.3059  0.2759
28667W        W71658  16.409  33.407   2.547  0.2283  0.0403  0.3015
28668W        W71659  24.770  18.889  16.388  0.5049 -0.0810  0.3587
28669W        W71660  19.728  11.035  26.279  0.3301  0.0066  0.1910
28670W        W71661  22.504   9.180  17.860 -0.0536  0.1017 -0.1403
28671W        W71662  30.139   0.446  16.987  0.1721 -0.0183  0.1171
28672W        W71663  12.186   2.029  24.827 -0.2738 -0.1022  0.1219
28673W        W71664  15.722  29.423  16.405 -0.1533 -0.2706  0.2384
28674W        W71665   1.202  20.428  24.043 -0.0488  0.0181  0.2735
28675W        W71666  25.356   2.706  25.597  0.0812  0.0988  0.1069
28676W        W71667  22.154  22.838  22.148 -0.0965  0.0941 -0.0388
28677W        W71668   1.191  33.838  21.364  0.1326  0.0027  0.3691
28678W        W71669  25.161  24.918   6.020 -0.1643 -0.1243  0.0140
28679W        W71670   0.818  11.006  17.115  0.1389  0.4551 -0.0107
28680W        W71671  31.176   1.119  26.681  0.3584  0.1194 -0.2225
28681W        W71672  26.582  27.164  17.955  0.1272 -0.2152  0.0681
28682W        W71673  25.330   4.786  19.661  0.0950  0.1002  0.2153
28683W        W71674   5.493  26.307  25.967  0.1269 -0.1378 -0.1277
28684W        W71675  33.524  23.680   4.908  0.0599 -0.1463  0.1130
28685W        W71676  23.458  33.685  19.977 -0.4154  0.0311 -0.3862
28686W        W71677  21.032  29.906   7.340  0.2459 -0.2666  0.1581
28687W        W71678  27.802   0.257  16.882  0.2239  0.0110  0.1912
28688W        W71679  27.089  25.130  21.725 -0.2312  0.0437  0.0830
28689W        W71680  29.802   1.203  16.859 -0.2843  0.3951  0.0585
28690W        W71681   1.481  25.764  19.103 -0.0147  0.1623 -0.1359
28691W        W71682  13.841   9.099   1.796 -0.0145  0.2476  0.1888
28692W        W71683  19.961  30.214  26.602 -0.0435  0.0753 -0.1228
28693W        W71684  24.461  10.555  16.095 -0.1413  0.3127 -0.0638
28694W        W71685  16.859  34.450  28.533  0.0925 -0.0194  0.1720
28695W        W71686  31.667  34.090  21.676 -0.0034 -0.2591  0.1124
28696W        W71687   1.649  24.209  26.144 -0.1039 -0.2379 -0.0246
28697W        W71688  26.220  26.794  20.201  0.1770  0.1695  0.1074
28698W        W71689  30.452  19.716  22.047 -0.1467  0.1005  0.1362
28699W        W71690  32.491  19.252  22.817  0.0890  0.1966  0.1130
28700W        W71691  34.673  28.696   3.982  0.0187 -0.0173  0.0988
28701W        W71692  21.046  30.436   4.654 -0.1400 -0.1303  0.1062
28702W        W71693   4.892   0.232  16.844 -0.0654  0.3385  0.0992
28703W        W71694  28.186  28.836  26.314 -0.3795  0.0546 -0.1912
28704W        W71695  30.850  27.096  23.882  0.3071 -0.1873 -0.0367
28705W        W71696  21.651  23.028  20.082 -0.1760  0.0074 -0.1097
28706W        W71697  19.754   4.490   5.582 -0.1059  0.0622 -0.0556
28707W        W71698  10.984   5.643  23.197 -0.1487 -0.2370  0.1702
28708W        W71699  32.757   4.218   7.673  0.2409  0.1827  0.0967
28709W        W71700  13.133   9.663  28.639  0.1447 -0.3231 -0.0645
28710W        W71701  24.973   0.938   7.733  0.0285 -0.2203 -0.2645
28711W        W71702  24.034  25.977  15.880  0.3356 -0.1368 -0.0578
28712W        W71703   4.851   2.084  15.204 -0.1830 -0.0646 -0.1057
28713W        W71704  26.675  15.137   6.233  0.1262  0.0651  0.1153
28714W        W71705  26.133  28.546  26.973  0.0228  0.2470 -0.1488
28715W        W71706  23.976  25.154   9.229  0.2634 -0.0849  0.0515
28716W        W71707  32.299  28.532   6.505  0.1239  0.3066 -0.0000
28717W        W71708  32.349   0.268   2.935  0.0555  0.0791  0.4564
28718W        W71709   1.615  32.089  21.413 -0.0164  0.0221  0.5169
28719W        W71710   4.933  18.311  22.320  0.0250  0.4394 -0.0979
28720W        W71711  17.591   6.994  25.288 -0.0390 -0.4339  0.3771
28721W        W71712  31.141   2.292  26.886 -0.0994  0.0840 -0.0888
28722W        W71713  20.695  18.141  12.915  0.1090  0.1468  0.0803
28723W        W71714  25.212  24.697  20.485  0.2193  0.0294  0.2888
28724W        W71715   6.589  32.256  25.370 -0.2559  0.2698 -0.3386
28725W        W71716  14.585  25.969   6.304  0.0457 -0.2490  0.1238
28726W        W71717  12.960  34.093   0.159 -0.0309 -0.0389 -0.3494
28727W        W71718  25.355  17.825  20.734 -0.0687  0.0072  0.0167
28728W        W71719   5.672   5.187  22.599 -0.3333  0.0689 -0.1417
28729W        W71720  29.008   4.461  20.291  0.1367  0.0638  0.1389
28730W        W71721   1.244  24.602  22.144  0.1395  0.3401 -0.0066
28731W        W71722  19.653   3.281  21.270  0.0480 -0.1229  0.0381
28732W        W71723  26.887   8.867  24.855  0.1842  0.1711 -0.0570
28733W        W71724   2.750   1.932   0.057  0.1336  0.0651  0.4712
28734W        W71725  28.802  22.410  26.037  0.1539  0.1923 -0.1954
28735W        W71726  25.705  19.152   9.845  0.0840 -0.2020  0.1503
28736W        W71727  30.673  29.408  18.138  0.1647  0.2102 -0.1039
28737W        W71728  27.349  12.844  26.852 -0.1141  0.3254 -0.0391
28738W        W71729   0.765   2.500  21.378 -0.0265 -0.2029  0.0856
28739W        W71730   2.085  28.638   3.589 -0.1688  0.1298  0.3065
28740W        W71731  31.898   4.618  29.140  0.0312  0.0539  0.1501
28741W        W71732  28.140   2.429  16.304  0.0742  0.0193 -0.0332
28742W        W71733  29.627  29.939  24.879 -0.2061 -0.0567  0.0170
28743W        W71734  22.602  19.404  18.758  0.2734 -0.2553 -0.0429
28744W        W71735  10.327  17.751  25.212  0.0384 -0.3387 -0.1755
28745W        W71736   2.172  15.943   4.963  0.0816 -0.0417 -0.0453
28746W        W71737  24.285  32.419  25.127 -0.2852 -0.0578 -0.1217
28747W        W71738  18.840  31.679  27.119  0.0466  0.3571 -0.0999
28748W        W71739   5.659  10.927  28.230  0.1125 -0.1859 -0.0282
28749W        W71740  16.128  33.796  17.828  0.2405  0.1143 -0.1636
28750W        W71741  28.002  11.194  26.271  0.0479 -0.3908 -0.3086
28751W        W71742  31.786   4.578  13.703  0.0277 -0.3082 -0.2505
28752W        W71743  23.131  11.889  14.182 -0.1089 -0.2161 -0.0430
28753W        W71744   0.176  22.570  15.203  0.2462  0.0259 -0.1562
28754W        W71745   5.237  31.836  22.409  0.0575 -0.0397  0.0315
28755W        W71746  27.415   1.628   5.421 -0.1611 -0.1215 -0.0941
28756W        W71747  31.761  34.248   2.324  0.1646 -0.2815  0.0750
28757W        W71748   6.850  16.389   7.970 -0.3101 -0.1135 -0.1499
28758W        W71749  31.056  30.570   4.908  0.2430 -0.1597  0.1703
28759W        W71750   3.911  15.907   1.610 -0.0331  0.0301  0.1009
28760W        W71751  34.799  25.225   5.231  0.1184  0.2501  0.2601
28761W        W71752   0.451  29.722  25.822  0.1260  0.0587 -0.0445
28762W        W71753  17.798  26.592  18.472  0.1183  0.1330 -0.0710
28763W        W71754   1.249   5.364  14.842  0.0596 -0.1543  0.0787
28764W        W71755  28.065  29.309  14.857  0.5250 -0.2023 -0.0061
28765W        W71756  24.016   5.288   2.291  0.1098  0.1536  0.0497
28766W        W71757  27.511   0.918  15.152 -0.1172 -0.1366 -0.0688
28767W        W71758  32.790   1.365  26.845 -0.3259 -0.2756  0.0083
28768W        W71759  27.185   7.506  20.235 -0.1521 -0.0008  0.0134
28769W        W71760  34.584  26.985  14.986  0.0915  0.1896  0.0262
28770W        W71761  21.870  30.341  28.338  0.1507 -0.1462  0.1541
28771W        W71762  29.661  11.150  14.819 -0.2257 -0.0575 -0.2516
28772W        W71763  29.094  20.193  17.534 -0.1176  0.1989  0.1944
28773W        W71764  19.962  16.116   6.515 -0.3478  0.1603 -0.0468
28774W        W71765   2.876   0.222  27.326 -0.2192 -0.1475 -0.1291
28775W        W71766   0.926  32.531   9.863  0.0719  0.1483  0.1393
28776W        W71767   2.922  32.521   0.615 -0.1277  0.1926 -0.1886
28777W        W71768   4.391   1.431  20.279  0.2659  0.3917 -0.1503
28778W        W71769   2.998   5.282   3.622 -0.0948 -0.2582  0.2974
28779W        W71770  10.614  28.496  23.545 -0.2799 -0.1025 -0.1058
28780W        W71771  30.497  19.383  15.973  0.5490 -0.1225 -0.0763
28781W        W71772   6.983  24.616  25.142 -0.1808 -0.1026 -0.0785
28782W        W71773  13.337   7.541  15.602  0.4306  0.1673 -0.2226
28783W        W71774  25.076  18.664  17.513  0.1650 -0.1600  0.0758
28784W        W71775  21.872  27.812  14.392  0.2113  0.0518 -0.4297
28785W        W71776  33.450  33.807   6.684  0.0036 -0.1045  0.2781
28786W        W71777  16.661  34.362  17.542 -0.1032 -0.0916 -0.1371
28787W        W71778  21.279  17.153   3.311  0.0824  0.4040  0.0242
28788W        W71779  31.493   2.811  17.200 -0.1127  0.1298 -0.2943
28789W        W71780  33.485   8.463  28.182 -0.2505 -0.0506  0.1764
28790W        W71781  18.708  15.149  29.119  0.0915  0.0564 -0.0516
28791W        W71782  25.685   4.361  27.319 -0.3342  0.2496  0.0879
28792W        W71783  17.943  29.990   7.681 -0.0009  0.1197 -0.0344
28793W        W71784  13.274  32.497   4.110 -0.0455 -0.0007 -0.2289
28794W        W71785  13.815  24.567  25.898 -0.0594 -0.0358  0.0151
28795W        W71786  18.063  31.327   1.847  0.1770 -0.2269  0.0412
28796W        W71787  17.725  28.853   2.687 -0.0474 -0.1880 -0.0154
28797W        W71788   3.761   7.324  22.267 -0.0892 -0.1031  0.0828
28798W        W71789  33.943   8.146   7.750  0.1773 -0.3575  0.1525
28799W        W71790  21.459   2.326  27.564 -0.0260 -0.0721 -0.0455
28800W        W71791  29.478  24.102  22.007  0.1780  0.5917  0.0135
28801W        W71792  23.587   5.723   3.992  0.0505 -0.3745  0.2651
28802W        W71793   8.311  27.696  22.592 -0.0131 -0.1485  0.0365
28803W        W71794  28.895  28.200  16.563  0.1467  0.1329  0.0045
28804W        W71795  26.217   4.449  28.503  0.0317  0.4285  0.1252
28805W        W71796  31.178   9.302   9.634  0.0779 -0.0344 -0.3531
28806W        W71797  21.240  20.940   0.435  0.1906 -0.2275 -0.0583
28807W        W71798  20.185   6.585  17.401 -0.2740  0.0712 -0.2313
28808W        W71799  29.978   6.986  23.780  0.3597 -0.0168  0.0715
28809W        W71800  28.643  30.495  13.728 -0.1338 -0.2922 -0.0884
28810W        W71801  34.174   3.841  27.267  0.0764  0.0760  0.2111
28811W        W71802  34.143  27.713  28.352  0.0457 -0.1689 -0.6030
28812W        W71803  31.055  20.460  22.302  0.0098 -0.0697  0.1218
28813W        W71804  23.895   0.099  26.249 -0.0476  0.0156 -0.0939
28814W        W71805  18.695  10.456   3.926  0.2973 -0.0833  0.4768
28815W        W71806   0.191  24.556   4.453  0.0470  0.1313  0.1122
28816W        W71807  23.709  21.590  28.614 -0.2957  0.2146  0.3142
28817W        W71808  16.672  21.302  21.784  0.0374  0.1472  0.2761
28818W        W71809  25.548  27.624  27.133 -0.1782 -0.1275  0.0720
28819W        W71810  15.651  28.382  20.096  0.1317  0.0023  0.1725
28820W        W71811  27.505   5.494   6.743 -0.2116  0.0365  0.1776
28821W        W71812  23.849  24.743  21.305  0.3286 -0.0692 -0.1168
28822W        W71813  14.040  30.838   4.836 -0.0889  0.0003 -0.1408
28823W        W71814  18.342  29.832  21.005 -0.1214 -0.0251  0.0395
28824W        W71815  10.048  26.225  22.660  0.0257  0.0878 -0.2358
28825W        W71816  28.065  25.056  13.555  0.3563  0.0633  0.1848
28826W        W71817  26.916  10.098  19.425 -0.0000 -0.1360  0.2359
28827W        W71818   4.165  29.738  21.067  0.2203  0.0067  0.1744
28828W        W71819   0.367  25.469  25.480 -0.0839  0.1715  0.0081
28829W        W71820  25.030  29.749   6.394 -0.0315  0.1560  0.0303
28830W        W71821  30.593   4.943  18.927 -0.0160 -0.1277  0.0686
28831W        W71822  33.932  27.372  14.994  0.1545  0.0261  0.0593
28832W        W71823  22.279   5.692   1.983 -0.1571 -0.2474  0.2490
28833W        W71824  11.052  27.410  16.831  0.0818  0.0082 -0.1497
28834W        W71825  30.057  20.935   5.033 -0.2166 -0.0210 -0.2099
28835W        W71826  27.076  31.294  17.540  0.0797 -0.0831 -0.0491
28836W        W71827  31.782   8.620  18.319  0.2163 -0.0703 -0.1839
28837W        W71828  20.695  25.945  23.024 -0.1667 -0.1439  0.0281
28838W        W71829  34.659   4.675   1.859 -0.3628  0.0099  0.1245
28839W        W71830  13.561  33.001  27.330  0.0790  0.0034 -0.1887
28840W        W71831  29.232  32.443  20.700 -0.3794 -0.0082 -0.2488
28841W        W71832   1.140   2.426  19.402 -0.0413 -0.1685 -0.1391
28842W        W71833  26.998   5.544   0.670 -0.0556 -0.0841 -0.4342
28843W        W71834   2.088  21.365   4.935 -0.0213 -0.0411  0.2368
28844W        W71835  32.064  28.163  21.706 -0.0837 -0.1195  0.1590
28845W        W71836   2.394   1.356  27.559  0.5055  0.1838  0.0597
28846W        W71837  20.982  31.798  28.333 -0.1631  0.1295 -0.0245
28847W        W71838  24.042  22.143  14.473 -0.0411 -0.1163  0.2090
28848W        W71839  19.824  22.592  25.460  0.2902  0.1241 -0.0738
28849W        W71840  26.722  27.138  25.704  0.0454  0.0236 -0.1948
28850W        W71841  34.165   9.471  24.271  0.2836 -0.3651 -0.2929
28851W        W71842  24.984  29.971   0.127  0.0477  0.1706 -0.0976
28852W        W71843  19.140  16.981   3.225  0.0150  0.0461 -0.1818
28853W        W71844  22.340   6.460   1.631 -0.0888  0.1835  0.2208
28854W        W71845  18.999  22.542  16.918 -0.1907 -0.1517 -0.1191
28855W        W71846   0.881  23.048  16.008  0.0720  0.2581  0.1521
28856W        W71847  22.031  21.974   0.708  0.0899  0.0682 -0.1380
28857W        W71848  34.091   4.375   3.522  0.0800  0.3730  0.0625
28858W        W71849  24.948  24.264   4.005 -0.1699 -0.0064 -0.1265
28859W        W71850  28.098  24.088  13.740 -0.5104  0.3245 -0.2902
28860W        W71851  29.040  31.570   1.634 -0.2156  0.1362 -0.3422
28861W        W71852  14.780  14.421  12.811 -0.0565 -0.4052 -0.1409
28862W        W71853  10.246  20.350  25.634 -0.0333  0.2909  0.4375
28863W        W71854  17.209   0.125  14.380 -0.1164 -0.2720 -0.0005
28864W        W71855  16.421   0.063   2.996 -0.1194  0.1091 -0.0024
28865W        W71856  14.770  22.952  28.632 -0.1707  0.3315  0.2694
28866W        W71857  29.496  27.250   2.579  0.2172  0.0655  0.1690
28867W        W71858  18.519  32.799   9.213 -0.1220  0.0760 -0.0296
28868W        W71859  31.681  28.889  16.345 -0.3567 -0.3052  0.1830
28869W        W71860  14.852   3.320  25.066 -0.3270  0.3980  0.0884
28870W        W71861  24.379  20.755   1.860 -0.0621  0.0220 -0.3045
28871W        W71862  28.854  21.116  16.730 -0.1239  0.0353  0.0263
28872W        W71863  26.968  26.152  22.477 -0.1423 -0.0170 -0.2766
28873W        W71864  28.719  21.162   7.779  0.0245 -0.0797  0.1490
28874W        W71865  24.123  32.027  26.813  0.0835  0.2531  0.3066
28875W        W71866  18.984  18.008   5.100 -0.0803 -0.3562  0.0127
28876W        W71867  21.280  27.556  28.986 -0.0609 -0.3669  0.2309
28877W        W71868  30.809  15.839  28.734  0.3909 -0.3558  0.2877
28878W        W71869   0.522  17.862   8.369  0.0581 -0.2063  0.1100
28879W        W71870  28.821  25.441   5.226 -0.2514  0.0415  0.0724
28880W        W71871  31.879   1.512  15.643 -0.1064  0.1945  0.3587
28881W        W71872  28.689  25.827  23.490  0.3564  0.0460  0.0767
28882W        W71873  30.923  11.993  21.959 -0.1700  0.0406 -0.1378
28883W        W71874  24.445   4.397   2.306  0.1040 -0.1603 -0.1281
28884W        W71875  21.201  32.657   6.889 -0.1121  0.0818  0.1353
28885W        W71876  29.358  26.438  18.680 -0.0199 -0.1866 -0.0388
28886W        W71877   0.158  21.630  16.562 -0.0344  0.1928  0.0127
28887W        W71878   0.632   7.172  24.329 -0.1347  0.2584  0.2262
28888W        W71879  24.934  26.021  28.396  0.0353  0.3037 -0.0597
28889W        W71880  14.262  20.380  13.927  0.2178 -0.0168  0.1186
28890W        W71881  22.034  22.378   4.021 -0.0743 -0.0012 -0.1067
28891W        W71882   7.841  22.877  15.423  0.2043  0.0036  0.0022
28892W        W71883  27.419  33.275  22.742  0.1017  0.1381 -0.1316
28893W        W71884  26.162  21.860   2.192 -0.1492 -0.3551 -0.1004
28894W        W71885  26.494  34.542  17.382  0.2541  0.0287 -0.1560
28895W        W71886  15.588  30.451   9.463  0.1772 -0.2050  0.0792
28896W        W71887  20.094  28.574  22.079  0.2106  0.2099 -0.0250
28897W        W71888  24.463  29.641   4.244 -0.1101  0.0089 -0.0256
28898W        W71889  32.504  12.228  25.644 -0.0383 -0.2584  0.0610
28899W        W71890  10.630  29.111  23.617  0.0370  0.0646 -0.0948
28900W        W71891  22.415  24.916  24.608 -0.3126 -0.1939 -0.1439
28901W        W71892   4.461  27.401  29.134  0.1621  0.3585  0.1831
28902W        W71893  31.619  34.469  29.181  0.0058 -0.1906 -0.0145
28903W        W71894  12.922  31.661  16.758  0.0410  0.1968 -0.1965
28904W        W71895  23.101  26.790   0.609  0.1445  0.2314  0.0587
28905W        W71896  23.009  31.175  21.943  0.2434 -0.0338  0.1317
28906W        W71897  21.627  17.192  21.034 -0.0911  0.1328  0.2706
28907W        W71898  24.081  28.450  23.897 -0.1094  0.3060 -0.1611
28908W        W71899  15.354  21.529   2.992 -0.1337  0.1278  0.2357
28909W        W71900  18.537  23.317  29.036  0.0387  0.1327  0.1718
28910W        W71901  27.339   6.022   4.922  0.0258  0.1691 -0.0076
28911W        W71902  28.735   5.774  23.616 -0.0763 -0.0930  0.2724
28912W        W71903  34.367  10.481  15.758 -0.0337  0.0683  0.0933
28913W        W71904  33.335  21.075   7.886  0.0895  0.0935 -0.1365
28914W        W71905  28.193  17.308  16.648  0.2004 -0.0006  0.2409
28915W        W71906  18.978  12.275  16.150  0.2000 -0.1102  0.0129
28916W        W71907  24.384  12.871  19.640 -0.0275 -0.0203  0.1025
28917W        W71908  30.825  15.764  26.576 -0.0638 -0.0783  0.0334
28918W        W71909   0.803   1.246  22.080 -0.0498  0.0783 -0.1254
28919W        W71910  22.308  30.874  29.088 -0.2238  0.0189  0.3744
28920W        W71911  11.298  30.134  10.167 -0.3993 -0.1655 -0.5122
28921W        W71912  22.997  29.086   0.991  0.2768  0.3568  0.0218
28922W        W71913  26.820  17.758  21.620 -0.1461  0.0777  0.2725
28923W        W71914   5.111  20.484   8.859 -0.0250  0.1321 -0.1299
28924W        W71915  24.537   6.524  27.170  0.1186 -0.3046  0.3006
28925W        W71916  22.219   3.894  21.839 -0.1411 -0.1432 -0.2870
28926W        W71917  33.231   8.020  23.911 -0.1165 -0.1558 -0.1541
28927W        W71918   1.324  21.466  17.138 -0.2216  0.3422 -0.4409
28928W        W71919  11.881   5.898   5.712 -0.0474 -0.1280 -0.3024
28929W        W71920  24.427   8.578   9.734 -0.2061  0.0362 -0.0448
28930W        W71921  24.857   0.570  13.891  0.1289  0.2418 -0.2416
28931W        W71922  31.042   2.946  28.837 -0.2055 -0.0867 -0.1631
28932W        W71923   9.105   4.317  22.267 -0.0339  0.0446 -0.0956
28933W        W71924   7.105  25.899   7.855 -0.1213  0.2744  0.2324
28934W        W71925  26.346   5.002  20.668  0.1353  0.1468  0.4197
28935W        W71926  28.223  34.096  22.271  0.0851 -0.1381  0.2722
28936W        W71927  22.188   1.915  25.989  0.0744 -0.1107 -0.0043
28937W        W71928  13.941   6.637  28.392  0.1566 -0.2738  0.1595
28938W        W71929  28.122  27.430  19.500 -0.2896 -0.1037 -0.0467
28939W        W71930  17.117  13.366   5.228 -0.0443  0.0975 -0.0406
28940W        W71931  27.747  19.625   7.100 -0.0848 -0.3631 -0.0147
28941W        W71932  20.393   7.193   4.220 -0.2555  0.0804 -0.1790
28942W        W71933  27.059  24.670  24.633 -0.1305  0.1468  0.1404
28943W        W71934  15.951   7.876  27.590 -0.2780 -0.0896  0.1254
28944W        W71935   5.027  21.864   1.562 -0.0192 -0.2328 -0.0282
28945W        W71936   5.903   8.515   0.903  0.4931 -0.3181  0.1525
28946W        W71937   3.096  26.472   7.738  0.2035 -0.0127 -0.1030
28947W        W71938  13.126  24.605   3.155  0.0346  0.0806  0.2674
28948W        W71939  10.516   2.379  23.937 -0.1413 -0.0640  0.0619
28949W        W71940  27.881  29.071  17.541  0.0680  0.1862 -0.0418
28950W        W71941  21.273   1.672   2.738 -0.2693 -0.2087  0.0579
28951W        W71942  17.830   1.197   3.842  0.0321  0.1380 -0.3371
28952W        W71943  33.431  25.590  10.395  0.3172  0.3340 -0.2060
28953W        W71944  23.625   4.902   6.035 -0.0127  0.1105  0.2366
28954W        W71945  16.937  28.945  15.805  0.0001 -0.2122 -0.2739
28955W        W71946  28.958  24.143  25.265 -0.0611  0.0858  0.1225
28956W        W71947  14.504  32.724  23.587 -0.0314  0.1135 -0.0417
28957W        W71948  30.119  11.589   0.289 -0.1843 -0.2621  0.4326
28958W        W71949   9.932  33.785  25.116  0.0694  0.1468 -0.0163
28959W        W71950  30.213  28.830   8.526 -0.0614 -0.3161  0.0963
28960W        W71951  15.807   8.646  26.177 -0.1274  0.2654 -0.0751
28961W        W71952  10.333  14.645  25.017 -0.1958 -0.0114  0.1284
28962W        W71953  18.340  27.415  20.524 -0.1165 -0.0108  0.4832
28963W        W71954  22.346  22.265  28.440  0.1126  0.1122 -0.3795
28964W        W71955  20.459   4.262  15.736  0.1768  0.0982  0.2145
28965W        W71956  25.986  32.884   6.329 -0.1736 -0.1854  0.0372
28966W        W71957   2.805  29.325  23.459  0.1117  0.0583  0.0816
28967W        W71958  20.407  18.867   4.331 -0.0916 -0.1085 -0.3405
28968W        W71959  29.598  26.603  19.684  0.1616 -0.1948  0.1232
28969W        W71960  11.205  26.094  15.827 -0.1171 -0.0616  0.0393
28970W        W71961   8.348  30.836  15.813  0.1456  0.1350 -0.1470
28971W        W71962  26.306   0.765   3.117 -0.0038  0.2015 -0.1215
28972W        W71963   5.378  27.635   6.446 -0.1896 -0.0239 -0.0613
28973W        W71964  31.982  22.660  13.920  0.0132 -0.1928 -0.0247
28974W        W71965   3.458  29.944   7.291  0.2470 -0.1745 -0.0734
28975W        W71966  15.465  20.704  19.752 -0.0587  0.1091 -0.1295
28976W        W71967  28.440  33.008   6.822  0.0279 -0.0639  0.1436
28977W        W71968   3.191   0.649   4.282 -0.3052 -0.4216  0.0075
28978W        W71969   5.757  31.452   7.316 -0.4323 -0.3316 -0.0461
28979W        W71970  20.271  25.016   8.369  0.2337  0.1982  0.2837
28980W        W71971  16.095  22.900  21.456 -0.2570  0.0711  0.0271
28981W        W71972  32.946  30.764   5.466  0.0028  0.2176 -0.0560
28982W        W71973  24.684  25.477  17.565 -0.1010  0.0572 -0.0631
28983W        W71974  18.796  26.406  15.370  0.1939  0.1912 -0.0112
28984W        W71975  10.131  27.951   2.527  0.3239  0.1121 -0.2198
28985W        W71976  29.056  21.894  24.614 -0.1828 -0.1102 -0.2338
28986W        W71977   8.544  28.988  15.585  0.1587 -0.1342 -0.1132
28987W        W71978  28.683  14.221  18.577 -0.0204 -0.0551  0.0693
28988W        W71979   0.846  19.728  27.744 -0.0307 -0.0040  0.0540
28989W        W71980  23.482  21.594   0.283 -0.1150 -0.2725 -0.3515
28990W        W71981  17.939   6.691  16.323 -0.0192 -0.0740 -0.1697
28991W        W71982  25.790  18.867  20.890  0.0144 -0.2997 -0.0520
28992W        W71983  33.139   6.772  21.099 -0.1440  0.1921  0.0612
28993W        W71984  28.325   7.146  28.744  0.1350 -0.1970  0.2812
28994W        W71985  32.206  28.521   5.143  0.0949 -0.0714  0.1445
28995W        W71986  15.767   1.312   9.012 -0.2284 -0.1830  0.0477
28996W        W71987  31.712  28.218   0.217 -0.1152  0.0634 -0.1228
28997W        W71988   0.839  26.417  10.174  0.1063  0.0122  0.0691
28998W        W71989  20.222   0.679   8.829 -0.1539 -0.1508  0.1021
28999W        W71990  22.795  26.860   3.818 -0.2297  0.2486 -0.1886
29000W        W71991  30.698   5.754  24.798  0.1889 -0.0806 -0.2217
29001W        W71992   3.178  28.943   5.467  0.2126  0.0072  0.1383
29002W        W71993   9.693   4.043   8.682 -0.0676  0.1872  0.1161
29003W        W71994   4.358   2.387  25.413  0.3581 -0.0097 -0.1564
29004W        W71995  21.336   9.090  14.883 -0.0092  0.3686  0.0389
29005W        W71996  29.236   4.759   9.981 -0.0398 -0.0803  0.0995
29006W        W71997  23.989  26.363  26.346 -0.3811 -0.1677  0.1174
29007W        W71998  16.972   2.220   7.312  0.0708 -0.0538  0.0210
29008W        W71999  27.436  20.287   4.920  0.0315  0.2108 -0.0163
29009W        W72000  18.110   1.986  17.793  0.0517 -0.0384  0.2535
29010W        W72001   4.713  25.995  18.273 -0.1580 -0.2933 -0.4042
29011W        W72002  33.075  33.353  27.057  0.0891 -0.1588  0.1868
29012W        W72003  25.718   0.197   0.607  0.2402 -0.3889  0.0978
29013W        W72004  25.272   7.300   0.283  0.2943 -0.0077 -0.0612
29014W        W72005  25.428  31.945   5.133 -0.0986 -0.1167  0.1347
29015W        W72006  32.813  23.316  24.645  0.2011  0.3288  0.1761
29016W        W72007   3.753   3.926  28.903  0.3107  0.5873 -0.0737
29017W        W72008  34.390   3.578   1.527 -0.2375  0.5151  0.0259
29018W        W72009  34.476  29.694   9.339 -0.0136  0.1748 -0.0282
29019W        W72010  11.148  30.723   1.117 -0.1082  0.0621 -0.0129
29020W        W72011   1.085  26.741  26.463  0.2609 -0.0407 -0.1477
29021W        W72012   6.424   4.641  28.110 -0.1210 -0.0224  0.0098
29022W        W72013  25.981  32.527  20.009  0.1196 -0.0360  0.0285
29023W        W72014  25.128  11.989  28.263  0.0770 -0.0140 -0.3250
29024W        W72015  29.884   5.302  27.871  0.1371 -0.0245  0.0285
29025W        W72016  25.316   4.447  24.153  0.3027  0.0529 -0.3711
29026W        W72017  24.340  24.921  21.514 -0.0414  0.2172 -0.1114
29027W        W72018  11.668  33.974  25.825  0.1080 -0.1584  0.1062
29028W        W72019  23.446  31.071  24.050  0.2218 -0.1549  0.0214
29029W        W72020   6.025  24.899  24.974 -0.2393  0.1536  0.0337
29030W        W72021  32.646  15.817  24.553 -0.2812 -0.0561  0.0542
29031W        W72022  32.296  29.804  24.089  0.0090  0.3272  0.2027
29032W        W72023  16.492  20.759  12.566 -0.2551  0.0144  0.1672
29033W        W72024  31.601  30.757  28.352  0.1257  0.0097  0.1548
29034W        W72025  23.185  26.826  20.588  0.0745 -0.1497  0.1692
29035W        W72026  21.310  28.984   3.228 -0.0173  0.1016  0.1704
29036W        W72027  31.922   0.578  13.786  0.3392  0.0711  0.0121
29037W        W72028  26.929  26.960  15.437  0.1068 -0.0298 -0.0585
29038W        W72029  17.545   8.811  15.258  0.0148 -0.2483  0.2037
29039W        W72030  23.353  27.212   0.036  0.0484  0.0752 -0.0003
29040W        W72031  25.147  33.241   6.563  0.0603 -0.2948 -0.0530
29041W        W72032  30.205   0.667  24.657 -0.3276 -0.2344  0.1155
29042W        W72033   6.792  21.095  27.387  0.0641  0.2230  0.4901
29043W        W72034  34.319  21.028  15.547 -0.0239  0.3462 -0.2681
29044W        W72035  19.272  11.667  15.919 -0.0563 -0.0994 -0.0304
29045W        W72036  28.327  10.981   6.211 -0.1306  0.1030  0.1357
29046W        W72037   6.025  23.159  25.014 -0.3337 -0.0161 -0.1272
29047W        W72038  30.357   9.026   2.565 -0.2419  0.1106  0.1028
29048W        W72039  11.401   7.879   2.054  0.0429 -0.1851  0.0160
29049W        W72040  24.683  30.682   3.855  0.0931  0.2119  0.4389
29050W        W72041   1.156  10.161  24.432 -0.0388  0.0790  0.0007
29051W        W72042   1.565  26.601   2.342  0.0932 -0.1665  0.1439
29052W        W72043  33.811  23.702   8.613  0.3313  0.1528  0.3835
29053W        W72044   3.816  25.700   6.009  0.3169 -0.3144 -0.1528
29054W        W72045   2.309  22.611  22.469 -0.0129 -0.1018 -0.0083
29055W        W72046  19.508  27.068   0.664  0.0587  0.3602 -0.1093
29056W        W72047   2.584  24.489   9.156  0.5378 -0.0020  0.0201
29057W        W72048  24.666  10.636  27.020  0.3741 -0.1564 -0.1673
29058W        W72049  18.802  24.794  24.217 -0.0401  0.2743 -0.0491
29059W        W72050   4.560  29.929   9.526 -0.1276 -0.0568  0.0230
29060W        W72051  29.242  13.342   5.288 -0.0519 -0.0486 -0.1608
29061W        W72052  15.338   2.278  28.464 -0.2947 -0.3428  0.0941
29062W        W72053  15.418   6.316  17.835 -0.0714 -0.0223 -0.2520
29063W        W72054  16.291   8.225  20.213  0.2825 -0.2913  0.2201
29064W        W72055  18.381   0.175  16.182 -0.1677 -0.0484  0.1522
29065W        W72056  17.127  24.636  26.404  0.0214  0.0072  0.0469
29066W        W72057   3.577  25.846   3.234  0.0021 -0.0395 -0.1984
29067W        W72058  34.448  23.875   3.979  0.0459 -0.1925 -0.0348
29068W        W72059  31.201  33.190  29.054  0.0212 -0.1125  0.0947
29069W        W72060  25.735  13.478  21.117 -0.3841 -0.0868  0.1010
29070W        W72061   8.337  23.266   2.665  0.2322 -0.2341  0.2307
29071W        W72062  26.821  31.013  28.900  0.1093  0.0461  0.0051
29072W        W72063  24.880  27.598  28.748 -0.2442  0.0896  0.1832
29073W        W72064   1.318  15.662  25.354  0.0805  0.1138 -0.0665
29074W        W72065   6.378  12.135  26.088  0.1162  0.3163  0.2528
29075W        W72066  20.832  31.274  28.551  0.4910 -0.0850  0.1229
29076W        W72067  34.078   2.654   2.820  0.1701 -0.2041  0.2496
29077W        W72068  30.116   0.719  19.455 -0.1334  0.0157  0.0696
29078W        W72069   1.220  20.583   4.186  0.1492  0.0420 -0.0376
29079W        W72070   1.956  28.453  20.058 -0.0783  0.3789 -0.0206
29080W        W72071  27.293  31.275   7.528  0.1769 -0.0597 -0.1217
29081W        W72072  30.002  20.914  19.090 -0.2111 -0.1750  0.0383
29082W        W72073  19.462  19.864   6.081  0.2078  0.0767 -0.4391
29083W        W72074  17.042  31.611   5.686  0.3132  0.1208 -0.0443
29084W        W72075  34.070  28.852  23.444 -0.2235  0.0739 -0.0064
29085W        W72076   3.230  19.996  27.039  0.0647  0.0831 -0.2426
29086W        W72077  25.642  33.042   2.739  0.1651  0.0023  0.0754
29087W        W72078  21.633  30.270  26.759  0.2048 -0.1340 -0.0877
29088W        W72079  21.824   5.978  21.630  0.1186  0.3061 -0.0427
29089W        W72080  34.721   4.573  25.444 -0.1244  0.1968 -0.1288
29090W        W72081  17.823  30.357   1.642  0.2098 -0.1515  0.1724
29091W        W72082   9.592   3.909  16.510 -0.0592 -0.1454 -0.4272
29092W        W72083  10.244   7.600  23.800  0.1760 -0.0290 -0.1103
29093W        W72084  29.274  19.984  22.354 -0.1784 -0.1239  0.1395
29094W        W72085  25.066  22.834   2.017  0.1487 -0.0516 -0.0615
29095W        W72086  13.150  12.930  22.029  0.0985  0.0328 -0.0087
29096W        W72087   0.585  23.039  22.271  0.2023  0.1434 -0.2043
29097W        W72088  34.216  27.583  27.807 -0.2048 -0.2729 -0.0694
29098W        W72089   0.296   8.987  20.501  0.0705 -0.1090 -0.0912
29099W        W72090   1.200   0.464  26.122  0.2644 -0.2368  0.3575
29100W        W72091  12.191  11.523  17.428  0.0299  0.0469  0.0538
29101W        W72092  24.366   4.635  23.617 -0.1308 -0.0560  0.1466
29102W        W72093  28.683  32.708  25.821 -0.1896 -0.1452 -0.0493
29103W        W72094   2.162   0.014  27.106 -0.0963 -0.0523 -0.2007
29104W        W72095  34.048  25.907   7.562  0.3222 -0.1794 -0.0815
29105W        W72096  10.539   2.824   4.371  0.2400  0.2929  0.3668
29106W        W72097  17.784  23.022   5.586 -0.1431  0.2093 -0.1445
29107W        W72098   3.548  10.201  16.672  0.0803 -0.0525  0.1300
29108W        W72099  10.057   3.734  25.531  0.0818  0.5293 -0.0417
29109W        W72100  28.603   6.418  20.968  0.2205 -0.0353  0.0637
29110W        W72101  34.362  24.278   8.470  0.3399  0.0038  0.0161
29111W        W72102  29.105  24.397  26.425  0.1416  0.2184 -0.1038
29112W        W72103  28.190   0.362  16.123 -0.1479 -0.0844 -0.1366
29113W        W72104  29.229  34.781   5.162  0.0222 -0.0824  0.2799
29114W        W72105  26.050   5.149  19.401  0.0410  0.0541 -0.0085
29115W        W72106  18.419  22.591   7.277  0.4154 -0.0762 -0.0280
29116W        W72107  24.652   7.848   7.090  0.0304 -0.0592 -0.0056
29117W        W72108  20.838  26.081  13.725 -0.5319  0.4490  0.4524
29118W        W72109  13.155   5.565   1.139  0.0240 -0.1544 -0.0890
29119W        W72110   6.001   4.517  10.136 -0.0573 -0.0726 -0.1594
29120W        W72111  24.191   1.312  21.405  0.1188  0.4363 -0.0445
29121W        W72112   8.300  27.020   0.660 -0.0390 -0.4083  0.2263
29122W        W72113  30.064   2.526   5.512 -0.1304 -0.2849  0.3065
29123W        W72114  32.140  33.524  27.425 -0.0226  0.2007 -0.2896
29124W        W72115  19.261  18.274  27.134 -0.1267  0.2474 -0.1101
29125W        W72116  30.600  31.436   1.106 -0.2817 -0.2028  0.2295
29126W        W72117   2.514  15.937   3.904 -0.1824 -0.1719  0.2776
29127W        W72118  30.340  21.450  17.847 -0.1335 -0.1572  0.2612
29128W        W72119   2.526  29.023  13.893 -0.5184  0.0112 -0.1946
29129W        W72120  32.608   2.423  28.477 -0.1666 -0.3600 -0.1868
29130W        W72121   5.042  11.542   0.703 -0.0907  0.1171  0.2050
29131W        W72122  17.219   1.682  25.490  0.1814  0.3091  0.1492
29132W        W72123  17.608  29.063  23.383 -0.0405  0.0207  0.0388
29133W        W72124  34.315  26.438  15.695  0.0009 -0.6075 -0.1390
29134W        W72125  34.677   2.963   7.473  0.2561  0.2145  0.0631
29135W        W72126  33.739  19.420  19.244 -0.0517 -0.0654  0.1914
29136W        W72127  13.596   2.035  25.612  0.1391  0.2159 -0.1586
29137W        W72128  24.032   1.256  20.726 -0.0596  0.0046  0.2720
29138W        W72129  31.430  11.247  10.106  0.3593  0.1306  0.0184
29139W        W72130  15.334   5.991   0.124  0.0257 -0.0238 -0.1351
29140W        W72131   1.208   3.490  22.012  0.0715  0.1130 -0.0374
29141W        W72132  12.298  20.754  26.818  0.4238  0.0042 -0.2147
29142W        W72133  23.760  24.844  24.575 -0.0669  0.0841  0.1253
29143W        W72134   1.734   5.126  27.197  0.0465 -0.0817  0.1344
29144W        W72135  27.178   4.084   2.682 -0.1577  0.0935  0.0031
29145W        W72136  32.966   4.048  21.256 -0.2134  0.2109  0.1793
29146W        W72137  33.407   1.135   1.630  0.0562  0.0805  0.0980
29147W        W72138  22.897  25.704  24.576  0.0631  0.0450  0.2467
29148W        W72139  16.388  22.290   3.373 -0.0129 -0.1392 -0.2676
29149W        W72140  28.146  30.541   3.073 -0.0299 -0.0647  0.1216
29150W        W72141   2.072  11.321   1.748  0.2222  0.1977  0.0130
29151W        W72142  26.811  22.742  18.083 -0.0109 -0.0998  0.2955
29152W        W72143   6.259   7.141  19.490 -0.2659 -0.1064 -0.0147
29153W        W72144  32.179  29.296  14.092 -0.0954  0.0934 -0.1865
29154W        W72145   3.160  33.943   6.796  0.0335  0.0995 -0.2516
29155W        W72146  33.503  29.758   4.621 -0.0733 -0.2422 -0.0642
29156W        W72147  25.201   1.499  25.004  0.2301  0.0863  0.3820
29157W        W72148   0.330  31.816   3.735  0.2272  0.2506  0.5461
29158W        W72149  29.711  27.462  21.409 -0.1893 -0.1461  0.0053
29159W        W72150  33.121   0.237   7.083 -0.0331 -0.1164  0.1357
29160W        W72151  19.394  12.682   2.015 -0.1362 -0.2062  0.0383
29161W        W72152  32.921  27.016  16.262 -0.3698 -0.3128 -0.0571
29162W        W72153   7.928  32.757   7.501 -0.0757  0.0147 -0.3865
29163W        W72154  19.040  23.842  24.679 -0.0537 -0.1689 -0.0056
29164W        W72155  25.277  29.670   0.569 -0.0864  0.2616  0.0577
29165W        W72156  28.420   5.029   3.133 -0.0613  0.2273 -0.3097
29166W        W72157  33.920  33.028   8.139 -0.1067  0.0820  0.0466
29167W        W72158   2.880   8.562  16.610  0.3192  0.0400  0.1485
29168W        W72159   3.455  27.007   0.686 -0.0711  0.2374 -0.1217
29169W        W72160  21.627  33.151   6.613  0.1896  0.1103  0.0153
29170W        W72161  11.566  22.518  15.161 -0.0613  0.0156  0.0204
29171W        W72162  28.321  26.480   3.265 -0.1325  0.1924  0.0061
29172W        W72163  32.248  13.731  21.115  0.2387 -0.0335  0.0940
29173W        W72164  31.919  15.297  28.144 -0.1028 -0.0022 -0.0461
29174W        W72165  21.976   0.267  25.789  0.2523  0.0339 -0.0923
29175W        W72166  29.517  27.802  20.117  0.1038 -0.2070 -0.3317
29176W        W72167  22.444  31.429  25.676  0.1156 -0.4038  0.2720
29177W        W72168  26.287  29.801  16.649 -0.0512 -0.1020  0.0413
29178W        W72169  26.519   3.375  21.697  0.3017  0.1119 -0.0721
29179W        W72170  21.016  33.455  15.711 -0.0412 -0.2139 -0.1824
29180W        W72171  29.053  33.768  29.221 -0.0323  0.0078  0.1655
29181W        W72172   3.772  34.373  24.151 -0.0659 -0.3644 -0.0592
29182W        W72173   6.505  23.548  17.742 -0.0803  0.2921 -0.3051
29183W        W72174  17.272  27.422   3.455 -0.2101  0.0530  0.1462
29184W        W72175  19.503  12.456  26.951  0.0194 -0.1238  0.2724
29185W        W72176  25.037  11.119  23.362  0.1033 -0.1688 -0.0440
29186W        W72177  15.115   2.618  17.364 -0.1971  0.1090  0.0390
29187W        W72178  19.918  19.207  21.599  0.1010  0.0208  0.3154
29188W        W72179  20.461   3.650  28.607  0.0017  0.0487 -0.0193
29189W        W72180   1.396   2.675   6.636  0.1669  0.1512  0.2009
29190W        W72181   8.411  32.378  25.989  0.2177 -0.4283  0.1884
29191W        W72182  16.004  20.702  21.901 -0.1852  0.1710  0.2869
29192W        W72183  11.864   1.982   6.276  0.1912 -0.0575  0.4236
29193W        W72184  26.711   6.845  17.218  0.0705  0.0387 -0.1827
29194W        W72185   8.973  22.227  17.104 -0.1613 -0.1187  0.2653
29195W        W72186  18.218  20.141  26.442  0.0068  0.2242  0.5152
29196W        W72187  18.574  27.292   4.990 -0.2954  0.0104  0.1993
29197W        W72188  28.679   9.806  16.311  0.1055  0.4319  0.2564
29198W        W72189  25.705   5.120  18.299 -0.2070 -0.1751  0.1147
29199W        W72190  19.787  25.899  21.907 -0.1113 -0.3376 -0.3177
29200W        W72191  16.993  20.362   9.442 -0.0342  0.2946  0.0304
29201W        W72192   9.332   3.785  28.022  0.0780  0.1668 -0.3108
29202W        W72193  33.188  26.596   4.978  0.0243  0.2175 -0.0256
29203W        W72194  15.925  26.746  27.862 -0.0155  0.1019 -0.1274
29204W        W72195  27.247  34.580  13.436 -0.1484  0.3689  0.0664
29205W        W72196  28.045   2.557  20.261 -0.0568 -0.2886 -0.1470
29206W        W72197  32.564  29.224  26.588  0.2643 -0.0709 -0.1982
29207W        W72198  11.570  24.574   1.355 -0.0872 -0.1317 -0.1926
29208W        W72199  13.204   1.282  11.329  0.2620 -0.1338  0.0921
29209W        W72200  22.798   2.387  25.190  0.0449  0.4812 -0.1194
29210W        W72201   4.896  32.218   1.751  0.2430  0.0112 -0.0236
29211W        W72202   1.271   5.991   9.552 -0.1405  0.0580 -0.1271
29212W        W72203  30.288  17.368  27.694 -0.1947 -0.1016 -0.1450
29213W        W72204  25.275  26.507  16.217 -0.0817  0.0183 -0.0959
29214W        W72205   7.973   2.050  23.291  0.2208 -0.0020  0.0771
29215W        W72206  31.585   5.428  14.608 -0.1954 -0.0557  0.0906
29216W        W72207  29.804   2.610  26.576  0.1448 -0.0392 -0.0083
29217W        W72208  33.290  29.383   9.131 -0.3790 -0.0070  0.0169
29218W        W72209   5.862  23.922   6.328  0.3925  0.0442 -0.0086
29219W        W72210  26.383  22.274  21.115  0.2687  0.0308  0.2079
29220W        W72211  26.526  32.034  17.248  0.0964 -0.2092  0.0898
29221W        W72212  27.738  10.721   1.782 -0.1903  0.4376  0.1551
29222W        W72213  20.501  32.594   5.979  0.1079 -0.2009  0.1051
29223W        W72214   6.839  15.919  23.165 -0.0389 -0.2000  0.2932
29224W        W72215   6.925   3.224  24.257  0.0706  0.3261 -0.1067
29225W        W72216  31.998  23.438  24.049  0.1276  0.3891 -0.0767
29226W        W72217  30.576   1.237  20.686 -0.1095  0.2203  0.2030
29227W        W72218  28.132   7.205  16.557  0.1682 -0.3952  0.0855
29228W        W72219  26.666  22.116  28.218 -0.1956  0.1257 -0.1312
29229W        W72220  20.819  19.659  20.028 -0.2148  0.2535  0.4509
29230W        W72221  15.975  29.173  21.552 -0.6238 -0.1360 -0.2854
29231W        W72222  21.633  28.799  22.931 -0.4153  0.0267  0.3371
29232W        W72223  14.145   5.765   4.143 -0.3215  0.0866 -0.0604
29233W        W72224  10.873  26.785  28.887  0.1679 -0.1139 -0.0968
29234W        W72225  26.836  32.318   0.349  0.0104  0.0345  0.0060
29235W        W72226  26.064  21.980   3.852 -0.1104  0.0084  0.1563
29236W        W72227  15.781  25.842  16.019 -0.2033 -0.2635 -0.1333
29237W        W72228  30.793   1.280   0.251  0.0020 -0.0074 -0.0924
29238W        W72229  30.238  23.413   0.167 -0.0435  0.0585 -0.4224
29239W        W72230  29.660   5.698  25.986  0.1526  0.0135  0.0453
29240W        W72231  27.249   8.415  13.925 -0.1013 -0.0703 -0.1246
29241W        W72232   0.400  29.094  21.152  0.1934 -0.1239 -0.1921
29242W        W72233  16.216   7.347   0.092 -0.0172 -0.0507 -0.0368
29243W        W72234  23.494  24.712   4.843  0.1371 -0.0476  0.1681
29244W        W72235  20.475   4.835  19.960 -0.3465 -0.0773 -0.1226
29245W        W72236   4.017   7.241   1.531  0.1009  0.3738  0.0558
29246W        W72237   1.942  10.319  22.798 -0.0740 -0.0537  0.0088
29247W        W72238  17.550  23.343  26.705 -0.0562 -0.2483 -0.1833
29248W        W72239   3.993  32.302  19.186  0.2173 -0.0758  0.0601
29249W        W72240  32.833  31.737   0.818  0.2329 -0.0324  0.2436
29250W        W72241  27.660  29.279  28.859  0.1834 -0.3252  0.2784
29251W        W72242   9.762  31.736   3.719  0.0530 -0.0420  0.3651
29252W        W72243  11.016   2.559  24.880 -0.1568  0.1584 -0.2264
29253W        W72244  32.254  25.327   6.232  0.2885  0.2500 -0.0865
29254W        W72245   2.879  28.580   9.594 -0.3396 -0.0479 -0.0483
29255W        W72246   9.714  27.986  28.856  0.5008  0.2146  0.0289
29256W        W72247  20.427  15.151  18.533  0.0519  0.1322 -0.2245
29257W        W72248  14.774  21.286  21.534 -0.0639 -0.2565 -0.1527
29258W        W72249  28.435   9.718  25.450 -0.2477 -0.1013 -0.2799
29259W        W72250  29.902  31.643   4.433  0.4285  0.3175  0.1792
29260W        W72251  22.233  27.331   1.605 -0.1776  0.0338  0.2847
29261W        W72252   1.832  25.251   5.979 -0.0395  0.1277  0.0542
29262W        W72253  29.776  14.537  15.116  0.3478 -0.2908 -0.0241
29263W        W72254  33.092  26.903   7.656  0.1471 -0.3890 -0.1153
29264W        W72255  23.646  33.023   7.864 -0.1642 -0.2579 -0.1211
29265W        W72256   4.443   6.244   2.898  0.2025 -0.1024  0.0081
29266W        W72257   4.162  22.894  18.437 -0.1643 -0.0680  0.1906
29267W        W72258  28.678  26.103   7.111 -0.0319 -0.1880 -0.0154
29268W        W72259   5.364  27.537   4.808  0.1839 -0.1524  0.0918
29269W        W72260  34.123  28.238  20.634 -0.1888  0.2138 -0.0273
29270W        W72261  12.097  26.624  25.556 -0.1049 -0.4484 -0.2779
29271W        W72262   2.098  33.059  10.105  0.0417  0.1087  0.0998
29272W        W72263  29.165  27.630  17.913 -0.0270 -0.0754 -0.2757
29273W        W72264  27.344  25.011  16.462 -0.0518 -0.2251 -0.2818
29274W        W72265  28.305  24.566  16.449 -0.0152  0.0588 -0.1015
29275W        W72266  32.688  17.080  22.405  0.2149  0.1784 -0.0370
29276W        W72267   7.743  31.948   5.014  0.0649  0.0277 -0.0968
29277W        W72268  17.362  20.972   1.237  0.1584 -0.0848 -0.0536
29278W        W72269  30.465  25.665   2.111  0.3039  0.0275  0.1367
29279W        W72270  27.826  27.670  14.768  0.0007 -0.1941 -0.2265
29280W        W72271  13.093  28.452   6.885  0.2663 -0.0948  0.1926
29281W        W72272  21.864   7.121   2.618 -0.1001  0.1645  0.1550
29282W        W72273  32.959  33.215  21.136 -0.2115 -0.3276  0.0640
29283W        W72274  14.882  23.206   6.267  0.0054  0.1748  0.0740
29284W        W72275  21.580  20.976   5.914 -0.3556 -0.0462  0.1876
29285W        W72276   0.575  28.307   0.230  0.0413 -0.3395  0.4117
29286W        W72277  33.021  32.952  15.952 -0.0550 -0.0200 -0.0307
29287W        W72278   2.887   1.973   3.760  0.0605  0.1264 -0.0194
29288W        W72279   2.207  21.543  23.315  0.1118  0.1060 -0.1046
29289W        W72280  25.837  21.072  29.145 -0.0514  0.0038  0.0600
29290W        W72281  18.497  13.885   0.464 -0.0219 -0.0573 -0.0283
29291W        W72282  27.436  31.175   6.824 -0.0633 -0.1038  0.1270
29292W        W72283  18.210  33.245   8.029 -0.1228 -0.2322  0.2788
29293W        W72284  27.043  24.003  22.420 -0.2964 -0.0129 -0.3149
29294W        W72285  12.986  33.695  27.027  0.4262  0.0582  0.3352
29295W        W72286  33.230  26.617  21.665 -0.0113  0.0966  0.0295
29296W        W72287   2.354  21.769   2.283  0.1457 -0.0162 -0.1613
29297W        W72288   6.617  30.222  19.264 -0.1289  0.3868  0.1833
29298W        W72289  31.843   9.759   2.372  0.0750 -0.2804  0.0294
29299W        W72290   9.076  28.389  26.297  0.1120  0.3845 -0.0655
29300W        W72291  17.389  19.185  14.847  0.1062 -0.0353  0.3104
29301W        W72292  24.675   1.248  14.082  0.0592 -0.0085  0.0310
29302W        W72293   5.441  32.954  23.520  0.3053 -0.0947 -0.0960
29303W        W72294   4.686  27.675  27.138  0.0762 -0.0024 -0.2694
29304W        W72295   6.533  31.099   7.397  0.3418  0.0820 -0.1525
29305W        W72296  29.220  30.100   1.762  0.2382  0.3805  0.1776
29306W        W72297   4.865   7.668   7.548 -0.4109  0.0091  0.3399
29307W        W72298  14.111   3.558  26.507 -0.0545 -0.1146 -0.2285
29308W        W72299  34.263   0.865   9.430  0.2278  0.1716 -0.1243
29309W        W72300  20.030  20.716  19.737 -0.1465  0.1207  0.0956
29310W        W72301  18.462   5.291  23.216  0.0273 -0.3468 -0.1321
29311W        W72302  30.713  14.939   3.823  0.1695  0.1330 -0.3170
29312W        W72303  34.322   8.087  20.556 -0.2343 -0.0613  0.0930
29313W        W72304   1.913  18.374  25.084 -0.2096  0.4076  0.2001
29314W        W72305  28.866   5.253  28.326  0.1168 -0.1569 -0.1793
29315W        W72306  30.229  29.577  18.138  0.1965  0.0570  0.3783
29316W        W72307  13.378  27.426   6.158 -0.0364  0.3820  0.0239
29317W        W72308   4.888  29.827   8.283 -0.1932  0.0146  0.0302
29318W        W72309   2.018  26.209  21.297  0.1390  0.1399  0.0091
29319W        W72310   4.719   9.273   6.728 -0.1133  0.2202 -0.1451
29320W        W72311  29.148  25.687  29.141  0.1298  0.2416 -0.1154
29321W        W72312  17.378  30.444  22.221  0.0002  0.0219  0.0105
29322W        W72313  23.604  24.732  19.708 -0.2620 -0.0473  0.0241
29323W        W72314  29.646  33.404  22.310  0.0577 -0.3436  0.1185
29324W        W72315   0.969  30.309  24.645  0.1513 -0.0555  0.2656
29325W        W72316  23.355   3.664   7.166  0.3537 -0.2477  0.1502
29326W        W72317  30.651   4.438  13.179  0.4495 -0.0329 -0.0386
29327W        W72318  28.067   5.148  20.313 -0.0237  0.0104  0.1821
29328W        W72319  30.989   3.353  21.796  0.3810 -0.0120  0.1039
29329W        W72320  28.402   0.190  24.642 -0.2371  0.1059  0.2530
29330W        W72321  20.410  29.962  25.696 -0.0030 -0.0189  0.0936
29331W        W72322  14.202  29.475  27.365  0.0573 -0.1592  0.0739
29332W        W72323  20.023  28.176  17.706  0.2311 -0.0811 -0.1718
29333W        W72324  32.558   7.174  19.122  0.0127  0.3158  0.1631
29334W        W72325  24.168  27.623  20.973  0.3626 -0.2421 -0.1086
29335W        W72326  31.215  34.189  14.167  0.0264 -0.2563 -0.0312
29336W        W72327  28.391   3.372  19.878 -0.1829  0.1051  0.1721
29337W        W72328  30.164  27.427  18.839  0.0736 -0.1456  0.0168
29338W        W72329   8.095  29.658  26.686 -0.1463  0.3693 -0.1231
29339W        W72330  18.973  26.842  16.660  0.1991 -0.0087 -0.0675
29340W        W72331  26.065   3.823   4.674  0.2502  0.0023  0.1276
29341W        W72332  32.931  34.642  19.284 -0.1336 -0.0717  0.0247
29342W        W72333   6.958  20.528  22.039  0.1469 -0.1533  0.1777
29343W        W72334  23.895   4.992  26.419  0.1112 -0.1019 -0.3751
29344W        W72335  24.808  10.900  16.779 -0.1977 -0.1766 -0.1973
29345W        W72336  11.608  25.977  18.396  0.1556  0.1334  0.0367
29346W        W72337  23.219  24.672  22.019  0.1315 -0.1717  0.0036
29347W        W72338  30.518  11.783  21.911 -0.1448 -0.1468  0.0011
29348W        W72339  21.527   6.627  14.356  0.0309 -0.0272 -0.0115
29349W        W72340  24.445  22.678  23.388 -0.0923 -0.1846  0.0757
29350W        W72341  22.748  32.790  19.042 -0.3981  0.0294  0.0563
29351W        W72342  12.597   3.040  15.567 -0.2957  0.2520 -0.1919
29352W        W72343  29.514  16.547   5.225  0.0955 -0.0189  0.2352
29353W        W72344  14.877   2.263  24.302  0.2277 -0.3629  0.0214
29354W        W72345  16.362  24.924  25.013  0.0238 -0.2486  0.0419
29355W        W72346  26.272   3.875  17.531  0.2612 -0.1037  0.2372
29356W        W72347  10.548  32.981  25.033  0.1859 -0.0249  0.1296
29357W        W72348  24.453   3.458  21.171  0.2549 -0.0893  0.4494
29358W        W72349  25.803   9.518  27.504 -0.3429  0.1844  0.3464
29359W        W72350   3.311   5.057  22.737 -0.1137 -0.2676  0.1458
29360W        W72351   3.885  34.341  14.422 -0.0333 -0.1346 -0.0121
29361W        W72352   0.064  23.204   1.142 -0.0995  0.1428  0.2880
29362W        W72353  23.325   2.890  22.461  0.2268 -0.0996  0.3308
29363W        W72354  18.495  27.375  24.834  0.2725  0.0347  0.0491
29364W        W72355  17.481  15.033  19.031 -0.0494 -0.0671  0.0764
29365W        W72356   1.719   8.588   1.042 -0.0680 -0.4126  0.0128
29366W        W72357  34.146   6.703  26.477  0.0986  0.1571  0.1765
29367W        W72358  21.725  26.852  14.781 -0.0244 -0.2001 -0.1456
29368W        W72359  13.654   2.233   3.138 -0.0902  0.0771  0.0901
29369W        W72360  32.483  26.784  13.649 -0.0274 -0.0719  0.1760
29370W        W72361  29.048  26.226  29.029 -0.1019  0.2608  0.1836
29371W        W72362  32.948  10.233  26.231 -0.1303  0.1292 -0.3925
29372W        W72363  32.530  23.194  20.149 -0.0123 -0.0572  0.0758
29373W        W72364  28.585  23.383  15.464  0.0851  0.0259 -0.1115
29374W        W72365  31.305  28.181  18.018  0.0098 -0.2972 -0.2663
29375W        W72366  20.054  31.989  16.631  0.0343  0.1350 -0.0312
29376W        W72367  24.406  12.102  19.805  0.0767  0.2021  0.1100
29377W        W72368  33.620  20.767  18.770  0.4761 -0.3175 -0.2226
29378W        W72369  13.134   4.404  18.109  0.1609  0.0368  0.2006
29379W        W72370  20.176  27.971  28.673  0.1068  0.0373 -0.1265
29380W        W72371   9.613   7.754   4.414  0.1244  0.0867 -0.0881
29381W        W72372  29.395  31.140  15.859 -0.1486 -0.1715  0.1032
29382W        W72373  29.833   4.394   0.184  0.1757  0.0669 -0.1897
29383W        W72374  19.767  11.840  20.353 -0.0571  0.2469 -0.1361
29384W        W72375  21.678  32.638   6.773 -0.3875  0.2134  0.0258
29385W        W72376  20.184   7.159  24.717  0.2201  0.0974 -0.3033
29386W        W72377  26.181  10.532  18.302  0.1426  0.0111  0.2114
29387W        W72378  11.675  23.044  16.603 -0.1218 -0.2821  0.0923
29388W        W72379  33.307  30.442  16.255 -0.0183  0.1163 -0.0907
29389W        W72380  22.712  20.226  16.179  0.1529 -0.0365 -0.0384
29390W        W72381   0.520  31.789  20.663  0.0090  0.0645 -0.2439
29391W        W72382  23.821  13.478  21.512 -0.3250 -0.2876  0.1366
29392W        W72383  21.302   4.074  15.273  0.2151 -0.0733 -0.0378
29393W        W72384  23.377  27.357  24.074 -0.1382  0.2434 -0.1299
29394W        W72385  17.737  20.106  14.041  0.0971  0.2645 -0.0117
29395W        W72386  30.839  16.198  26.273  0.2094  0.2247  0.0492
29396W        W72387  27.684  21.217  17.392 -0.2262 -0.1555  0.0393
29397W        W72388   5.880  28.379  19.715 -0.1874  0.0965 -0.3092
29398W        W72389  29.487   7.271  17.303 -0.0185  0.1358 -0.1116
29399W        W72390   3.426  19.727  17.139 -0.0843  0.0258  0.0595
29400W        W72391  31.294   2.996  17.660 -0.3725  0.3204 -0.0317
29401W        W72392  22.279   5.647  21.708  0.0380  0.0331 -0.1359
29402W        W72393   2.330  29.301  19.263 -0.1687 -0.0774  0.0297
29403W        W72394  19.529   2.731  15.345  0.0575 -0.0686 -0.0821
29404W        W72395  27.596  29.332  15.007 -0.0690  0.0953 -0.0374
29405W        W72396  31.337  31.405  22.286 -0.0291 -0.0610 -0.2316
29406W        W72397  16.659   5.096  14.594  0.0884 -0.2542  0.0683
29407W        W72398  15.567  31.466  26.418 -0.0028 -0.0565 -0.0297
29408W        W72399  34.584  20.951  21.210  0.2190 -0.1711  0.4665
29409W        W72400  26.843  22.407  19.488  0.1688 -0.0693 -0.1916
29410W        W72401  26.381   5.421   2.524  0.0759 -0.1897  0.2046
29411W        W72402   1.865  24.606  23.373 -0.0417 -0.0820 -0.1861
29412W        W72403  25.144   4.421  20.601  0.0998  0.0549  0.0778
29413W        W72404   0.243   8.462  20.079  0.2188 -0.3291  0.2481
29414W        W72405   8.793   4.894  21.079 -0.0331 -0.0304  0.1909
29415W        W72406  31.981  12.777  29.130 -0.0315  0.3205 -0.0708
29416W        W72407  26.061  34.685   2.096  0.0885  0.0130  0.3615
29417W        W72408   6.254   1.221  26.769  0.1773  0.0211 -0.2000
29418W        W72409  26.961   3.881   0.110 -0.1109 -0.0594 -0.0144
29419W        W72410  22.681  24.518  27.028  0.0484 -0.0430 -0.0743
29420W        W72411   1.468  30.144  18.363  0.0453 -0.3212  0.4886
29421W        W72412   6.749   1.769  19.597  0.3734 -0.3499 -0.1404
29422W        W72413  18.410  23.602  16.736  0.1462  0.1876 -0.0723
29423W        W72414   9.528   3.556  28.470 -0.1702 -0.0187 -0.2687
29424W        W72415  23.249  21.673  13.040  0.1316  0.2344 -0.1221
29425W        W72416  21.432   9.167  16.217 -0.0604 -0.3669  0.0080
29426W        W72417   1.742  21.825  20.336 -0.2320  0.2581 -0.1716
29427W        W72418   7.292  17.586  15.084 -0.1034  0.0735  0.0319
29428W        W72419  23.528  24.994  16.169 -0.2046  0.0828  0.0294
29429W        W72420  23.833   2.056  14.134 -0.1702  0.1600  0.3336
29430W        W72421  26.683  31.730  24.289  0.1962 -0.1758  0.2239
29431W        W72422   0.740  26.025  14.424 -0.3245 -0.1924 -0.1557
29432W        W72423  24.920  29.039  23.453  0.2062  0.0602 -0.0079
29433W        W72424  27.272  32.549   0.090  0.1313  0.2085  0.1990
29434W        W72425  14.581   7.423   7.755  0.0238 -0.0434 -0.2657
29435W        W72426  31.188  32.300  29.238 -0.0067  0.3032  0.2155
29436W        W72427  23.266   1.253  18.119 -0.3298 -0.0963 -0.0594
29437W        W72428  10.971  18.471  26.229 -0.3820  0.1245 -0.0637
29438W        W72429  22.083   2.755  19.076  0.0029 -0.3508  0.0535
29439W        W72430   2.997  14.929  18.290 -0.1429  0.4653  0.0273
29440W        W72431  19.354   3.183  14.181 -0.0602 -0.0947 -0.2181
29441W        W72432  25.367  27.635  13.075  0.3583 -0.2553 -0.0531
29442W        W72433   3.682   1.572  23.208 -0.0065 -0.1805 -0.0677
29443W        W72434   1.201   4.764  24.635 -0.1827  0.0252 -0.1477
29444W        W72435  25.960  29.484  20.275 -0.1774 -0.0818 -0.2392
29445W        W72436  21.114   7.824  17.357 -0.2103  0.0196  0.4413
29446W        W72437  14.933  20.886   5.652  0.1654  0.0026 -0.1179
29447W        W72438  26.278  10.551  23.427  0.1408 -0.0634  0.2302
29448W        W72439  34.630  32.329  25.235 -0.0868 -0.0115 -0.0996
29449W        W72440  19.334  33.572  24.939 -0.1763 -0.3247 -0.2167
29450W        W72441  29.229  30.178  21.760  0.0123  0.4022 -0.1448
29451W        W72442  30.457  16.731   3.344  0.1157  0.0132  0.2580
29452W        W72443  23.366  27.315  22.655 -0.1365 -0.3097 -0.0492
29453W        W72444  29.278   4.228  21.813 -0.1081 -0.3483  0.0837
29454W        W72445  20.111  31.046  15.133 -0.2175  0.0750  0.0738
29455W        W72446   4.876   3.014  16.745  0.0815  0.0937 -0.1904
29456W        W72447  27.933  32.586  26.545  0.3116 -0.0901  0.2646
29457W        W72448  31.728   9.408  15.611  0.2315  0.2484  0.1023
29458W        W72449  25.306  34.378  15.603 -0.0146 -0.4752 -0.0146
29459W        W72450  18.169  24.045  12.699 -0.0565  0.0988 -0.2359
29460W        W72451  21.426  29.585  24.691  0.1731  0.1216  0.2416
29461W        W72452  18.066  27.979  15.249 -0.0921 -0.0400 -0.2484
29462W        W72453  17.321   6.911  29.081 -0.3964  0.1449  0.2866
29463W        W72454  16.647  26.692  21.423 -0.2228  0.3165  0.0585
29464W        W72455   9.216   1.843  16.981 -0.3026 -0.3423 -0.0158
29465W        W72456  25.678  23.942  20.298 -0.1494  0.0838  0.1401
29466W        W72457  23.066  10.616  18.130 -0.1774 -0.0846 -0.0734
29467W        W72458  26.843  33.270  14.764  0.0092  0.3508 -0.1051
29468W        W72459  24.677   2.632  17.893  0.2041 -0.1172  0.0776
29469W        W72460   3.779  16.717  18.039  0.2373  0.0726 -0.0323
29470W        W72461  28.977   0.105  14.740  0.1859  0.3668 -0.6965
29471W        W72462  25.101   5.398  16.980  0.2981 -0.0134  0.0708
29472W        W72463  23.916  32.352  15.104 -0.0264 -0.0613  0.0015
29473W        W72464  17.336  23.009  14.392 -0.1059  0.1218 -0.0027
29474W        W72465  14.584  30.079  14.749  0.2198 -0.2325  0.2671
29475W        W72466  26.629   6.728  24.264 -0.0895 -0.2333  0.0810
29476W        W72467  26.615  33.588  19.075  0.1053 -0.0326  0.0489
29477W        W72468   5.056  12.182  25.165 -0.2074 -0.0077  0.0601
29478W        W72469  27.460  29.873  15.366  0.0208  0.0999  0.2022
29479W        W72470  26.884   2.459   3.373  0.0069 -0.1066 -0.1518
29480W        W72471  29.364  32.732  16.817 -0.1081 -0.3581  0.0700
29481W        W72472  14.678   4.725  22.830 -0.2098  0.0874  0.0015
29482W        W72473   2.290   2.859  18.859  0.2108  0.0280  0.1526
29483W        W72474  33.319  18.062   5.726 -0.1434 -0.1630  0.0412
29484W        W72475  31.256  18.471  23.332 -0.1287  0.1138 -0.2626
29485W        W72476  25.570  25.615  20.085  0.0077 -0.0968 -0.2135
29486W        W72477  23.616  23.753  18.825 -0.0304 -0.1256 -0.3670
29487W        W72478  24.759  28.967  20.721 -0.1669 -0.1140 -0.1323
29488W        W72479  29.697   0.342  15.254 -0.0740  0.0742  0.1762
29489W        W72480  25.492  12.695  17.816  0.2079  0.0036 -0.0502
29490W        W72481   2.469  12.797  17.428  0.0475 -0.1840 -0.1006
29491W        W72482  16.969  26.026   7.361 -0.1371  0.2606  0.2424
29492W        W72483  33.245  12.590  16.671  0.1128  0.1233 -0.0089
29493W        W72484  18.017  30.012  20.038  0.4658 -0.2685  0.0608
29494W        W72485  25.921  34.733  14.078  0.0811 -0.1051 -0.0602
29495W        W72486  26.125  30.941  19.831 -0.2294  0.1480  0.2126
29496W        W72487   3.210   4.117  23.706 -0.0967 -0.1306 -0.1841
29497W        W72488  28.512   4.494  23.298 -0.0739 -0.0034  0.1242
29498W        W72489  17.503  16.617  13.917  0.0087  0.0792 -0.0086
29499W        W72490  27.341   2.234  14.389 -0.3176 -0.1368 -0.0636
29500W        W72491  20.398  31.705  21.276 -0.0000  0.0107  0.0789
29501W        W72492  31.793  34.264  16.757  0.2297  0.3536  0.0175
29502W        W72493  29.248   3.041  19.236  0.0320  0.0031  0.1606
29503W        W72494  17.582  24.344  25.300 -0.1505 -0.1077 -0.1193
29504W        W72495   6.550  28.770  18.069 -0.0554 -0.0534 -0.2056
29505W        W72496  24.058  23.293  13.865  0.1067 -0.0041 -0.1372
29506W        W72497  28.795  18.458  18.185  0.1011 -0.3830 -0.0551
29507W        W72498   6.054   8.186  23.590  0.1995 -0.0619 -0.0208
29508W        W72499  24.449   3.069   1.208 -0.0125 -0.0177  0.1843
29509W        W72500   2.333  30.535  16.363 -0.0403 -0.1577  0.1834
29510W        W72501  33.523  28.052  17.988 -0.0666  0.3210 -0.2502
29511W        W72502  24.293  30.344  14.325  0.0649 -0.0303 -0.0168
29512W        W72503  22.332  31.222  18.575  0.2574 -0.1977  0.1994
29513W        W72504  27.185  15.767  21.962 -0.0095  0.0022  0.4699
29514W        W72505   9.285   4.694  15.787  0.2414 -0.0312  0.3028
29515W        W72506  14.125  30.497  20.956 -0.1559 -0.0435  0.0433
29516W        W72507  29.095  33.226  29.140 -0.2979  0.1996  0.1985
29517W        W72508  25.668  32.339  26.603  0.0854 -0.2937  0.2488
29518W        W72509  24.537  23.664  15.203  0.0330 -0.1052 -0.0996
29519W        W72510  22.434  32.879  15.064  0.3045 -0.1455 -0.2525
29520W        W72511  17.248   1.020   4.797 -0.4833  0.0339 -0.1277
29521W        W72512  26.694   2.225   4.989 -0.0175  0.0416 -0.3127
29522W        W72513  28.556  26.991  17.807 -0.3297  0.2423  0.1320
29523W        W72514  20.680  18.823  15.396 -0.0819  0.2449 -0.1323
29524W        W72515  18.927   0.706   9.373 -0.3095 -0.3424 -0.0172
29525W        W72516  16.717   6.023  15.130 -0.2025 -0.1880  0.0608
29526W        W72517  16.764  22.036  23.715  0.0534  0.0383  0.1225
29527W        W72518   9.029  30.999  18.603  0.1267  0.4731  0.0365
29528W        W72519  13.243   5.371  25.026 -0.0698 -0.0145 -0.2622
29529W        W72520  28.624  19.021  27.222  0.1424  0.3337  0.1643
29530W        W72521  25.748   7.644  24.100  0.1197 -0.0380  0.0817
29531W        W72522   1.803  23.274  23.401 -0.3439  0.0681 -0.0302
29532W        W72523  14.389   0.363  16.185  0.0058 -0.1295  0.0038
29533W        W72524  25.946  33.973  25.810  0.2330 -0.1986 -0.0185
29534W        W72525  29.947  33.933  16.356 -0.3668 -0.0073  0.1791
29535W        W72526  13.942  21.120  13.940  0.1368  0.1534 -0.1032
29536W        W72527  25.180  29.841  15.213  0.3010 -0.2223 -0.1490
29537W        W72528  28.879  28.066  14.589  0.1651 -0.1433 -0.3778
29538W        W72529  11.131   2.492  14.494  0.2183  0.0060  0.2069
29539W        W72530   2.169  30.214  17.927  0.2080 -0.0542  0.2950
29540W        W72531  16.494  15.328   2.321  0.0300  0.2451 -0.1429
29541W        W72532  17.386  19.300   1.282  0.4187 -0.2429 -0.1539
29542W        W72533  29.154  10.759   4.775  0.4560 -0.1133 -0.0811
29543W        W72534  23.429  34.207  16.823  0.0953 -0.1038 -0.0676
29544W        W72535  15.397  26.755   4.595  0.0456  0.0098 -0.0809
29545W        W72536  11.130   5.203  20.287  0.0409  0.1451  0.3337
29546W        W72537   4.216  34.061   2.547  0.0350  0.0083  0.2141
29547W        W72538  33.901  32.772  25.556 -0.0040  0.0333 -0.0103
29548W        W72539  33.904   6.461  19.891 -0.2890 -0.1077 -0.1587
29549W        W72540  23.090  33.720  26.230  0.3811 -0.1497  0.5121
29550W        W72541   1.436  26.484  26.101 -0.0063 -0.1851 -0.1672
29551W        W72542  29.044   4.192  14.798  0.0514  0.2158 -0.0617
29552W        W72543  24.702  31.911   1.945 -0.0998  0.2734  0.0347
29553W        W72544   8.848   3.466  20.751  0.2684  0.2779  0.1582
29554W        W72545  28.224   2.855   4.255  0.1081 -0.0169  0.2718
29555W        W72546  28.191   9.089  23.164  0.0868 -0.5875 -0.2104
29556W        W72547   1.080   2.416  15.313 -0.3516 -0.0839  0.0389
29557W        W72548  26.957   4.415  14.545  0.0369  0.0880 -0.3274
29558W        W72549   0.209   2.421   4.490  0.2102 -0.0128  0.0733
29559W        W72550  33.376  31.158   7.570  0.3388  0.2826  0.0860
29560W        W72551  23.196   2.144  21.386  0.1476  0.0686 -0.0110
29561W        W72552  24.962  12.992  22.437  0.2751  0.1318 -0.2959
29562W        W72553  24.135  10.948  18.488  0.0205 -0.1234 -0.0364
29563W        W72554   9.197   0.045  21.968  0.4330  0.3171 -0.0567
29564W        W72555   2.298  15.653  23.536 -0.0792  0.5909  0.0321
29565W        W72556  22.294   9.771  17.439 -0.1522  0.1403 -0.0297
29566W        W72557  17.688   4.933   9.247  0.0987  0.0339  0.0936
29567W        W72558  12.003   0.880  20.759 -0.0656  0.1534  0.1735
29568W        W72559   7.514  11.486  15.869 -0.0793  0.0581 -0.3505
29569W        W72560  12.246  31.945   9.322 -0.1250  0.0977 -0.4432
29570W        W72561  28.472   4.900  28.534 -0.0425 -0.1322 -0.0312
29571W        W72562   5.893  33.808   2.269  0.0988 -0.1654  0.1438
29572W        W72563  21.752  32.541  24.809 -0.3365 -0.0042 -0.1296
29573W        W72564   0.492   5.073   2.107 -0.0135 -0.0348 -0.2008
29574W        W72565  10.751   1.162  17.755 -0.2515  0.1881 -0.0324
29575W        W72566  23.143  28.101  24.222  0.0446 -0.2534 -0.2553
29576W        W72567  29.965  32.926  17.585  0.0442 -0.0991 -0.3740
29577W        W72568  29.205   3.691  21.840  0.0634 -0.2706  0.1891
29578W        W72569   0.282  24.684  14.798 -0.0974  0.3003 -0.0161
29579W        W72570  20.596  20.418  12.305 -0.2012 -0.0887  0.4858
29580W        W72571   1.186  27.170  13.995  0.2258 -0.2995  0.2130
29581W        W72572  16.703  31.409   4.879  0.1816  0.0260  0.0642
29582W        W72573  19.242  23.587   4.676 -0.0839 -0.0709  0.0971
29583W        W72574  34.618  28.825   0.764  0.1395 -0.2958 -0.0544
29584W        W72575   6.187  25.094  27.846  0.2179 -0.1842 -0.1172
29585W        W72576  20.947  12.218  19.917 -0.0329  0.1554 -0.3234
29586W        W72577  23.309   5.118   6.505  0.1508  0.0918 -0.0972
29587W        W72578  19.607  18.428  26.838 -0.0524 -0.1247 -0.2165
29588W        W72579  27.906  25.664  25.587  0.0289 -0.1711  0.1653
29589W        W72580  27.259  11.708  25.616  0.3257  0.0763 -0.2527
29590W        W72581  20.800  31.955  14.004  0.1745 -0.1941 -0.1200
29591W        W72582  15.316  31.342  16.649  0.3118 -0.2972 -0.4455
29592W        W72583  22.323  29.702  20.233  0.0635 -0.1845  0.1783
29593W        W72584  33.740  30.743  28.607 -0.2980 -0.2874 -0.2992
29594W        W72585  29.146  11.242  24.309 -0.2410 -0.2725  0.1030
29595W        W72586  29.761  32.602  21.182 -0.1135  0.0160 -0.1022
29596W        W72587  14.543   3.348  26.401 -0.0586 -0.3404  0.0991
29597W        W72588  15.138   2.113  19.691  0.2175 -0.0133 -0.0335
29598W        W72589  22.416   2.833   2.189 -0.3934 -0.1978 -0.0282
29599W        W72590  29.346  22.780   0.987  0.0451  0.2010  0.0433
29600W        W72591  33.548  28.014  24.875  0.0546 -0.0315  0.1868
29601W        W72592  26.368  10.036  18.435 -0.0860  0.2721  0.1025
29602W        W72593  30.454  25.596  15.920  0.2342 -0.0111 -0.0346
29603W        W72594  14.171  29.993  26.534  0.0472  0.0340  0.3419
29604W        W72595  34.432  28.886   6.666  0.0390  0.2054 -0.4909
29605W        W72596  32.684  34.565   8.475  0.1105  0.2836 -0.3408
29606W        W72597  23.074   0.298  20.389  0.0106  0.1928 -0.0102
29607W        W72598  28.464  34.276  17.135 -0.1125 -0.3125 -0.0455
29608W        W72599  12.356  10.500   7.147  0.2022  0.0711 -0.0702
29609W        W72600  23.513  31.979   6.751  0.2210  0.1582  0.1242
29610W        W72601  30.286  30.348  20.082 -0.1615 -0.2372  0.0715
29611W        W72602   0.652  31.237  18.054  0.1474  0.0224  0.0209
29612W        W72603  28.112   2.358   0.787  0.0732 -0.1841  0.2122
29613W        W72604  31.283  12.881  24.345 -0.0878 -0.0071  0.1984
29614W        W72605   1.460  32.513   3.295  0.1951  0.2161 -0.0450
29615W        W72606  28.417   5.681   0.517 -0.3553 -0.0554 -0.0596
29616W        W72607  33.043  25.091   7.373 -0.2385  0.2367  0.0653
29617W        W72608  22.372  30.120  28.272  0.2121 -0.1013  0.0759
29618W        W72609  19.162  10.600   5.329  0.0064 -0.0628  0.0190
29619W        W72610   2.566  25.090   5.678 -0.1718  0.0863  0.3200
29620W        W72611   2.144   3.611  25.787  0.1493  0.0574 -0.0388
29621W        W72612  10.654  34.442   5.111 -0.0637 -0.1228 -0.1078
29622W        W72613  28.507  29.565  17.075 -0.1491  0.0608 -0.1103
29623W        W72614  25.474  28.307  22.756 -0.0098 -0.1368  0.0964
29624W        W72615  23.313  15.101  26.628  0.3279  0.2171  0.1182
29625W        W72616  28.543   4.079  25.426 -0.1067  0.0424 -0.0789
29626W        W72617  15.572  20.549  13.409  0.0863 -0.1174 -0.1656
29627W        W72618  17.331  31.736  18.309  0.0756  0.1243 -0.1317
29628W        W72619  27.003   1.698  27.456 -0.2119 -0.1122  0.0360
29629W        W72620  10.438  29.076  25.334 -0.0468  0.0173  0.1143
29630W        W72621  24.267  33.051  24.316 -0.0119  0.0498 -0.1342
29631W        W72622  28.758   9.668  20.854 -0.2038  0.0656 -0.2824
29632W        W72623   5.123  26.794  19.776  0.2324  0.1634 -0.0258
29633W        W72624  30.598  30.769  20.049 -0.1452 -0.5116 -0.1216
29634W        W72625  22.096  33.667  19.773  0.0694  0.2741  0.2480
29635W        W72626  24.258  26.523  16.527  0.0519  0.3071 -0.0924
29636W        W72627  18.564   2.174  26.571 -0.2009 -0.1238 -0.1638
29637W        W72628  15.422  24.201  18.009 -0.2069 -0.3308  0.0102
29638W        W72629  28.946  18.861  21.264 -0.3008 -0.0054  0.0390
29639W        W72630  20.390  16.210  13.089  0.3836 -0.0719 -0.0309
29640W        W72631  15.687  34.008  25.051  0.1836  0.0638 -0.0108
29641W        W72632   4.869   3.007  25.649  0.1234  0.2825 -0.1678
29642W        W72633   6.842  33.069  18.475 -0.0207 -0.1050  0.1205
29643W        W72634  21.500  27.433  25.167 -0.0438  0.0757  0.1080
29644W        W72635  16.401  13.665  13.154  0.0598  0.4311 -0.3704
29645W        W72636  20.480  26.185  18.739  0.1050 -0.0087  0.0281
29646W        W72637   8.938   7.848  24.477 -0.2232 -0.0152 -0.3877
29647W        W72638  24.368   5.766   3.370 -0.2537 -0.2627  0.1647
29648W        W72639   0.356  32.329  16.288  0.1523  0.1213 -0.1177
29649W        W72640  13.378  32.755  23.798 -0.1076  0.2221 -0.3419
29650W        W72641  25.940   0.653  22.645  0.1096  0.0685  0.0192
29651W        W72642  19.873  33.481  14.697  0.2004  0.3153  0.0393
29652W        W72643   5.898  30.682  24.598 -0.1899  0.3125 -0.0979
29653W        W72644  16.229  32.703  18.958  0.0407  0.1475  0.1099
29654W        W72645  20.975   2.620   8.288  0.2197  0.1050  0.0502
29655W        W72646  27.629  30.957  22.091  0.0169 -0.3431 -0.2573
29656W        W72647  17.606  29.496   4.954  0.0914 -0.0402  0.0492
29657W        W72648   0.460  23.066  19.747  0.1102 -0.0826  0.2354
29658W        W72649   2.430   1.559  20.349  0.2920 -0.0901  0.1470
29659W        W72650  21.634  34.771  14.663  0.0130  0.1035 -0.1824
29660W        W72651   9.735   0.678  21.306 -0.0786 -0.4583 -0.0418
29661W        W72652  20.821  23.691  14.619 -0.4136 -0.0134  0.0492
29662W        W72653  31.835   8.345  17.268 -0.0824  0.2532  0.0808
29663W        W72654  25.581  19.896  19.765 -0.0187 -0.2104  0.2773
29664W        W72655  28.590   9.379  27.491  0.0495 -0.2649 -0.0102
29665W        W72656  32.271  27.055  20.383  0.1124  0.0416 -0.1059
29666W        W72657  23.305   9.023  22.387 -0.0765 -0.0385 -0.0517
29667W        W72658  20.837   3.453  17.795  0.1143  0.1460 -0.0625
29668W        W72659  29.321  27.261  15.105 -0.0196  0.0185  0.3336
29669W        W72660  13.858  20.174  15.435  0.2529 -0.0818 -0.1528
29670W        W72661  26.175  20.962  16.888  0.0050  0.2590 -0.1154
29671W        W72662   0.198  34.503  27.363  0.2384 -0.2474 -0.0305
29672W        W72663   0.707  10.885  24.005 -0.1286  0.0955  0.0166
29673W        W72664  31.813  27.240  24.548  0.0272 -0.0478  0.0863
29674W        W72665  28.747   3.022  21.494  0.0622 -0.1907  0.0145
29675W        W72666   0.504  24.190  24.066  0.2821  0.0141  0.0584
29676W        W72667  16.215   1.425  21.877  0.2386  0.1353  0.1895
29677W        W72668  21.490  25.796  21.824  0.1065  0.0019 -0.1461
29678W        W72669  34.399  31.347  15.963 -0.2320 -0.0100  0.2358
29679W        W72670  29.688  20.558  19.092 -0.0606  0.1002 -0.0056
29680W        W72671  29.102  24.549  24.024  0.0177 -0.1663 -0.1188
29681W        W72672  30.311   8.235  18.852 -0.2384  0.3707  0.0777
29682W        W72673  18.928  34.653  20.141 -0.0893  0.1223 -0.1410
29683W        W72674  33.995  32.371  28.150  0.0439  0.0553 -0.0879
29684W        W72675   0.342  22.883  14.808  0.1803 -0.2019 -0.3047
29685W        W72676  31.556  30.411  15.131  0.0691  0.2094  0.1109
29686W        W72677  24.487   8.268  24.868  0.0952  0.1186  0.0267
29687W        W72678   9.140  24.743  24.280 -0.0319 -0.0557 -0.0251
29688W        W72679   0.606  33.618  19.669 -0.1130  0.2377 -0.1288
29689W        W72680  19.709   0.048   6.962  0.4390  0.0166  0.1991
29690W        W72681  19.198   8.194  15.265 -0.0999 -0.1011  0.0367
29691W        W72682  34.643  20.789  19.352  0.0635  0.4008 -0.0060
29692W        W72683  26.427  26.555  14.987 -0.0013 -0.0057  0.0781
29693W        W72684  11.626  34.493  25.902 -0.1753  0.2244  0.0947
29694W        W72685  16.434  32.952  23.101 -0.3251  0.1102 -0.1894
29695W        W72686  16.141  11.001   0.279  0.1366 -0.1923  0.1536
29696W        W72687  14.022   3.420  27.318  0.0726 -0.0886  0.2084
29697W        W72688  25.065  33.970  14.167 -0.0893  0.0919  0.0351
29698W        W72689  30.793  25.268  20.820  0.2907  0.3125 -0.4689
29699W        W72690   3.980   6.173  23.873  0.0097 -0.0155 -0.3494
29700W        W72691  29.427  29.857  27.379 -0.2515 -0.1444 -0.0187
29701W        W72692  28.642   2.770  21.907  0.2208 -0.1987  0.0466
29702W        W72693  20.050  17.225  25.044 -0.1557  0.0222  0.1539
29703W        W72694   0.591  29.610  16.296 -0.0877 -0.0350  0.1539
29704W        W72695  18.591  13.043  22.134 -0.1246  0.3008  0.1922
29705W        W72696  10.452   0.651  14.454 -0.1835  0.1643 -0.0178
29706W        W72697   5.926  12.687  21.317  0.1667 -0.1371  0.2347
29707W        W72698   1.226  30.083  27.450 -0.1646 -0.0526  0.0377
29708W        W72699  21.525  18.400   0.206 -0.1397 -0.0268  0.1504
29709W        W72700  20.410  17.440  27.585 -0.1289  0.2408  0.1169
29710W        W72701  25.099   0.914  18.641  0.0141 -0.4309 -0.2122
29711W        W72702  25.070  10.855  21.507 -0.0695  0.0828 -0.1647
29712W        W72703  33.255  27.058  19.009  0.0503  0.3469 -0.1679
29713W        W72704  20.277   9.072   6.773  0.2903 -0.2130 -0.3407
29714W        W72705  26.294  31.744  27.058  0.0328 -0.2431  0.1611
29715W        W72706  33.121  15.810  20.096 -0.2561 -0.1101  0.0402
29716W        W72707  18.465  32.208  26.546  0.4639 -0.5332 -0.1668
29717W        W72708  13.801  23.507  22.375 -0.2953  0.0350  0.0601
29718W        W72709  27.496  31.894  24.020  0.0935 -0.0982 -0.2922
29719W        W72710  18.757  29.503  21.051  0.0051  0.1856  0.1115
29720W        W72711  24.593  30.512  20.000 -0.1808  0.1431 -0.3601
29721W        W72712  26.525  26.663  27.000  0.2045 -0.0646  0.2204
29722W        W72713   1.016  17.977   0.955 -0.2083  0.1471  0.2544
29723W        W72714  29.183  24.678   7.323 -0.5037  0.1824 -0.2467
29724W        W72715   6.457  28.227  23.161  0.0647 -0.0744 -0.1061
29725W        W72716  17.127   2.279  27.781  0.1773  0.2624 -0.0620
29726W        W72717  27.246  28.389  20.795 -0.0500 -0.4371  0.0982
29727W        W72718  25.541  33.860  19.174  0.0600  0.0148 -0.0266
29728W        W72719  30.677  24.861  14.011 -0.2133 -0.1983  0.2194
29729W        W72720  27.617   2.885  15.207  0.2606 -0.0155 -0.1343
29730W        W72721  10.616  19.804  22.339  0.2528  0.1586  0.1150
29731W        W72722  10.618  27.869  16.115 -0.2833 -0.0470  0.0015
29732W        W72723  20.514  27.734  24.272 -0.1889  0.1846 -0.1080
29733W        W72724  30.878  31.099  14.031 -0.3733 -0.2032 -0.0444
29734W        W72725   2.281  29.115  15.650  0.0331 -0.0660  0.0236
29735W        W72726  28.986  11.655  22.074  0.0149  0.1627  0.0279
29736W        W72727  29.791   8.756  14.229 -0.2409 -0.2412 -0.1578
29737W        W72728   2.347  34.711  22.973 -0.0044  0.1046 -0.0387
29738W        W72729  20.651  29.328  15.665 -0.0959  0.0175 -0.1376
29739W        W72730  20.079  18.068  27.088  0.2636 -0.1132  0.1761
29740W        W72731  10.229  34.768  22.966  0.0742  0.3608 -0.1173
29741W        W72732  18.341   4.622  21.534 -0.2619 -0.1726 -0.1276
29742W        W72733  21.258  25.415  24.753 -0.1244  0.1144 -0.2605
29743W        W72734  14.524  24.198  16.135 -0.0655 -0.4314  0.0948
29744W        W72735  29.818  29.557  16.288 -0.1224  0.4017 -0.0680
29745W        W72736  22.627   6.099  21.210  0.3288 -0.3386  0.1571
29746W        W72737  29.584  29.399  23.586  0.0450  0.1477 -0.1045
29747W        W72738   7.826  34.360  15.064  0.4031  0.1909  0.0556
29748W        W72739  32.028  34.522  13.684  0.1708 -0.2380 -0.0142
29749W        W72740  27.980   0.199  21.768  0.2608 -0.2363 -0.2278
29750W        W72741  17.104  24.140  19.930 -0.4523  0.0140 -0.0251
29751W        W72742  22.505  27.847  22.344 -0.2198 -0.0409 -0.4545
29752W        W72743   8.359  18.737  19.858 -0.1612  0.0701 -0.1765
29753W        W72744  26.203   0.701   2.067  0.1031  0.1829  0.0016
29754W        W72745  22.933  32.417  20.388 -0.3055  0.1785  0.1313
29755W        W72746  18.319   6.323   8.060 -0.0267  0.0096 -0.1182
29756W        W72747  26.147  30.148  22.099  0.0798  0.0984 -0.0439
29757W        W72748   4.564  33.651  17.310  0.1339  0.0316  0.1772
29758W        W72749  24.542  17.098  15.979  0.0738  0.1656  0.1237
29759W        W72750   1.590  27.723  24.346 -0.1637  0.2518 -0.3462
29760W        W72751  27.751  31.414   4.195  0.0364 -0.0732 -0.0108
29761W        W72752  31.061   6.790   7.506 -0.0349 -0.2298  0.0489
29762W        W72753  15.060   2.435  24.826  0.0623  0.2444 -0.0362
29763W        W72754  10.384   0.746  23.311  0.0327 -0.1667  0.2273
29764W        W72755  28.029  10.235  27.412 -0.1118  0.1805 -0.0709
29765W        W72756  19.941  31.237  24.716 -0.2647  0.0411 -0.1380
29766W        W72757  24.519  27.334  23.131  0.2652 -0.0046 -0.0259
29767W        W72758  34.118   3.914  20.690  0.0309 -0.1703 -0.1644
29768W        W72759  26.503   0.575  17.265  0.0496  0.0105  0.1476
29769W        W72760  22.153   4.655  17.365  0.1384  0.2249  0.1624
29770W        W72761  29.730   3.133  17.114  0.1685 -0.2473  0.0571
29771W        W72762  30.655  25.222  26.128  0.1188 -0.1866  0.0564
29772W        W72763  18.066   2.207  25.976  0.2244 -0.2081 -0.1680
29773W        W72764  20.195   5.101  21.708  0.7305 -0.0668  0.1011
29774W        W72765   3.444   0.519  17.305 -0.0342 -0.0637  0.1184
29775W        W72766  26.383  14.005  22.844  0.0621  0.2655 -0.0357
29776W        W72767  27.367  24.753  21.316 -0.2647 -0.1191 -0.1490
29777W        W72768  27.241   4.428  22.150 -0.0130  0.0218  0.1436
29778W        W72769  29.778   4.088  21.757 -0.0269 -0.0297 -0.2901
29779W        W72770   8.947  19.891  17.435  0.2463 -0.3282 -0.2908
29780W        W72771   0.852  31.994  20.124 -0.0084  0.1490  0.0849
29781W        W72772  29.278  17.003   5.458 -0.1550 -0.1210  0.0101
29782W        W72773  34.071  13.139  20.617 -0.5496 -0.1644 -0.0567
29783W        W72774  23.098   7.621  19.297 -0.0035  0.1601  0.0367
29784W        W72775  34.091   4.808  20.789 -0.5335  0.2061 -0.1176
29785W        W72776  31.414  26.445   9.795 -0.1480  0.4039 -0.2022
29786W        W72777  18.275  19.369  24.268 -0.3319 -0.1568 -0.0291
29787W        W72778  17.695   1.498  28.571  0.1204  0.1351 -0.1192
29788W        W72779  27.432  24.829  26.901  0.4498 -0.1682 -0.1046
29789W        W72780  17.162  21.242  17.609 -0.3598  0.0918 -0.0747
29790W        W72781  34.616   3.753  22.369 -0.0914 -0.3434  0.1361
29791W        W72782  25.642  29.418  12.924  0.0301  0.0345  0.0674
29792W        W72783  26.647  24.193  23.986  0.1585  0.0677  0.0068
29793W        W72784  34.220  25.600   5.075  0.1674  0.4167 -0.2734
29794W        W72785  34.486  13.225  20.194  0.1102 -0.1964  0.1002
29795W        W72786   0.315  12.254   4.929  0.0242 -0.0344 -0.2587
29796W        W72787  29.063  30.152   6.276 -0.1446  0.0252  0.1892
29797W        W72788  33.280  32.484  14.926  0.1078  0.1555  0.1673
29798W        W72789  33.286  29.558  24.248 -0.0262  0.0087 -0.0365
29799W        W72790   1.137  33.627  27.193 -0.0028  0.1609 -0.0539
29800W        W72791  32.752  16.192   9.694 -0.0376 -0.1795  0.1164
29801W        W72792  34.643  23.181  23.326  0.2824 -0.0835 -0.1355
29802W        W72793  33.990  16.767  11.079 -0.0463 -0.0040  0.1951
29803W        W72794  33.379  29.425  24.767 -0.0881  0.0199  0.1732
29804W        W72795  11.288  14.881  21.400 -0.0913 -0.5740  0.3643
29805W        W72796  30.582  22.854  14.768 -0.1341 -0.0171 -0.4243
29806W        W72797   3.043   9.853  16.844  0.1659  0.0256  0.1311
29807W        W72798  12.222   5.386   7.624 -0.0120  0.0663 -0.6312
29808W        W72799   9.974   5.113   3.111  0.2507 -0.3351  0.0058
29809W        W72800  28.358  31.533  24.226 -0.2627  0.3419 -0.1447
29810W        W72801   0.578  23.422   2.695  0.0730  0.0828 -0.0683
29811W        W72802  27.768  34.038  22.095 -0.0684 -0.0799 -0.0048
29812W        W72803  16.261   1.299  22.711 -0.1578 -0.3441  0.0250
29813W        W72804  18.897  24.029  25.250  0.1035 -0.3712  0.1303
29814W        W72805  12.651   6.843  16.547  0.1232  0.2898 -0.3003
29815W        W72806  32.191  34.283  22.309  0.0757  0.0424  0.1912
29816W        W72807  24.442   4.684   0.675 -0.1060  0.4464  0.1912
29817W        W72808   2.691  19.707  24.171 -0.2169  0.1488 -0.0448
29818W        W72809   3.067   9.466   1.789 -0.1648 -0.0610 -0.0039
29819W        W72810  24.455   2.535  20.120  0.2526  0.0368  0.0216
29820W        W72811  27.177   2.127   3.845  0.0666 -0.0117 -0.2861
29821W        W72812  18.787  23.921  28.268 -0.1519 -0.4048  0.2068
29822W        W72813   9.171  30.680  14.977 -0.2357  0.2573 -0.1752
29823W        W72814  27.994  13.970  24.880  0.3328  0.3353 -0.2492
29824W        W72815   1.126  26.098  26.781 -0.1885  0.0122 -0.0449
29825W        W72816  26.745  29.781  23.972  0.0894 -0.1444  0.0037
29826W        W72817  22.295  28.966  27.845 -0.0312  0.1087 -0.0391
29827W        W72818  25.246  30.737   1.965 -0.1825 -0.1877 -0.0156
29828W        W72819  24.833  30.341  20.675  0.0985 -0.1093 -0.1958
29829W        W72820  13.818  17.482  15.301  0.3030 -0.0392  0.1800
29830W        W72821  31.422   1.994  28.238  0.0292  0.1335 -0.0861
29831W        W72822  12.257  28.441  19.847 -0.0353 -0.1569  0.1030
29832W        W72823  20.652  33.916   7.337  0.0644  0.1241 -0.0399
29833W        W72824   0.541   1.677  22.094 -0.0630  0.0397  0.0639
29834W        W72825  24.193  11.898  13.598 -0.4604  0.3027 -0.1505
29835W        W72826  22.140   2.146  18.251  0.0695  0.0095  0.2221
29836W        W72827  27.613  20.466  20.528  0.0713 -0.1349  0.1248
29837W        W72828  29.566  26.652   7.558 -0.1696  0.0807  0.0559
29838W        W72829  26.353  15.115  14.603  0.0974 -0.1940  0.1764
29839W        W72830  23.754   1.477  27.623 -0.0664 -0.1154 -0.4105
29840W        W72831  33.004  34.797   4.521  0.0876  0.2560 -0.2072
29841W        W72832  18.395  21.888  28.195 -0.1353 -0.0326 -0.0341
29842W        W72833  28.789   5.159  16.275 -0.0314  0.3124  0.0722
29843W        W72834  25.454  13.210  19.279  0.1071 -0.2188 -0.0334
29844W        W72835   9.600   2.244  24.215 -0.1843  0.0695  0.1266
29845W        W72836  11.253  20.004  20.004 -0.0804  0.1934  0.1236
29846W        W72837   1.906   2.646  22.224 -0.0195  0.2000 -0.1905
29847W        W72838   4.703   1.136   2.688 -0.2894  0.1539  0.1297
29848W        W72839   4.896  32.945  15.048 -0.3631 -0.0180  0.1843
29849W        W72840  33.765  34.350   3.621 -0.1091 -0.1345 -0.0600
29850W        W72841  31.042   5.801   2.455  0.1041  0.1438  0.2495
29851W        W72842  17.785  29.089  19.470  0.0558  0.2481 -0.1473
29852W        W72843   1.958   8.324  18.554 -0.1043  0.2579 -0.0705
29853W        W72844  29.374  26.465   0.241  0.0238 -0.0545  0.0008
29854W        W72845  26.266  22.147  27.884 -0.0809  0.1455  0.0167
29855W        W72846  12.885   2.134  22.489 -0.2289 -0.1690  0.1498
29856W        W72847  22.958   5.547  18.566 -0.1497 -0.2613 -0.2841
29857W        W72848  21.872  10.828  21.409  0.2503  0.0115 -0.0570
29858W        W72849  18.491  28.246   0.496  0.1493 -0.1228  0.1092
29859W        W72850   1.871  23.976   5.610  0.0145 -0.4050  0.1278
29860W        W72851  27.801  16.554  14.674 -0.0861 -0.0072  0.0324
29861W        W72852  30.581  26.230  20.726  0.1071 -0.1459  0.0124
29862W        W72853  19.352  26.400   5.330 -0.3323 -0.0081  0.0955
29863W        W72854  26.372  19.065  27.403 -0.2717  0.1723 -0.2698
29864W        W72855  17.861  28.614  14.493  0.1717 -0.1563  0.0502
29865W        W72856  31.287  14.976  26.735 -0.1113 -0.3494  0.2508
29866W        W72857  14.361   2.297  18.316 -0.1246  0.1056  0.1390
29867W        W72858  28.712  24.491  26.058 -0.2350 -0.0118  0.1613
29868W        W72859  31.302  15.366  27.938  0.0930  0.1728 -0.3160
29869W        W72860  27.480   5.665  23.230  0.4501  0.0979  0.0378
29870W        W72861  33.420  14.968  22.885 -0.2383 -0.0863 -0.2214
29871W        W72862  25.728  29.951  21.231 -0.0808  0.0114 -0.1912
29872W        W72863  28.155  34.496  17.462  0.0539  0.0899  0.3365
29873W        W72864  26.389  10.349   7.070  0.1510  0.0322  0.1779
29874W        W72865   6.559   9.703  14.718 -0.0208 -0.0070 -0.2874
29875W        W72866  22.649  31.336  17.613 -0.0253  0.0103  0.0310
29876W        W72867  14.757  33.996  18.848 -0.1337 -0.0281 -0.4164
29877W        W72868  15.785  13.989  21.857 -0.1294  0.0573  0.4486
29878W        W72869  31.343  12.023   8.046  0.3792  0.0158  0.4672
29879W        W72870  23.217  27.151  14.639 -0.0582 -0.1187  0.0345
29880W        W72871   0.210  32.567  19.261  0.3367 -0.1683  0.2292
29881W        W72872  31.580  16.025  22.572 -0.1816  0.2189 -0.2246
29882W        W72873  28.983  20.551   6.170  0.0836 -0.0962 -0.0429
29883W        W72874  34.363   8.221  24.605 -0.0049  0.1555  0.1423
29884W        W72875  19.752  27.720  15.717  0.0772  0.1357 -0.0582
29885W        W72876  30.008   1.938  21.255 -0.0566 -0.1192 -0.5091
29886W        W72877  18.001   9.260  29.012  0.0900  0.0412  0.4202
29887W        W72878  33.439   0.354  21.397  0.3448  0.0017  0.1308
29888W        W72879  13.782  13.796   1.710 -0.1760 -0.2459  0.0943
29889W        W72880  17.149  31.112   0.122 -0.5316 -0.1191  0.0546
29890W        W72881  17.763  28.012  26.564 -0.0457  0.2054  0.0293
29891W        W72882  31.978  32.252  23.046 -0.1218  0.2508 -0.1050
29892W        W72883  16.448   7.930  14.360  0.3942  0.1303  0.1870
29893W        W72884  17.969  30.907  26.629  0.0390  0.0538 -0.4451
29894W        W72885  20.792  14.882  22.519 -0.1160 -0.1697 -0.0653
29895W        W72886  24.962  17.182   2.139  0.2620 -0.0991 -0.4944
29896W        W72887   3.334   4.884  24.432  0.2325  0.1105  0.1342
29897W        W72888  31.868   2.153   2.962 -0.3568 -0.0494 -0.1816
29898W        W72889  15.013  30.979  15.438  0.0834  0.4051  0.0390
29899W        W72890  32.396  25.068  13.991  0.1187 -0.0047 -0.1663
29900W        W72891  17.712  24.164   0.777 -0.0773 -0.0215  0.0030
29901W        W72892  12.304   2.191  18.455 -0.0839  0.1696  0.2875
29902W        W72893  29.462  34.774  27.181  0.1988  0.1707  0.1861
29903W        W72894  28.087  20.802   1.852 -0.1254  0.1060 -0.0270
29904W        W72895  26.227  33.828  23.458 -0.3425 -0.0590  0.1489
29905W        W72896  22.086   0.292  20.229 -0.2393  0.3048 -0.3187
29906W        W72897  23.755  20.509   4.625 -0.1369  0.0477 -0.1008
29907W        W72898  17.736   2.519   0.343 -0.0308 -0.2681  0.1302
29908W        W72899  27.496   1.732   1.573 -0.0854 -0.0753 -0.2817
29909W        W72900  25.526   6.266  20.241 -0.1228 -0.0750 -0.0989
29910W        W72901  34.743  26.592  27.058 -0.0126  0.1053 -0.1161
29911W        W72902  18.783  26.693  18.641 -0.1730 -0.0986  0.0840
29912W        W72903  33.944  23.964  28.916 -0.0864  0.2724  0.2198
29913W        W72904  31.480  30.877  20.483 -0.1186 -0.0885  0.0372
29914W        W72905  29.190  12.024  16.826  0.3219 -0.0133  0.2617
29915W        W72906  25.657  10.502   2.672 -0.1482 -0.2774 -0.0872
29916W        W72907  22.298  25.482  16.029  0.0460  0.1142  0.1420
29917W        W72908  15.610  32.560  22.416 -0.1251 -0.2890 -0.3457
29918W        W72909  32.388  29.414  18.139 -0.1136  0.0819  0.0085
29919W        W72910  27.680  34.580  22.035  0.0523 -0.3735  0.1677
29920W        W72911  16.449   7.458  24.381 -0.1678 -0.3263 -0.1623
29921W        W72912   3.399   3.032  23.158 -0.0345 -0.2298 -0.0556
29922W        W72913   5.107  32.965   4.857  0.1779 -0.3034  0.0367
29923W        W72914  33.960  20.960  20.093  0.2205 -0.1716 -0.0573
29924W        W72915   0.814  15.278  16.595 -0.1033 -0.2134 -0.1629
29925W        W72916  23.413  18.060  23.067  0.0608 -0.0372  0.0367
29926W        W72917  12.780  10.793   0.458 -0.1351 -0.1329  0.0061
29927W        W72918  26.297   7.803  22.714 -0.1914 -0.3443  0.0463
29928W        W72919   0.511   5.706   7.834  0.3210 -0.2451 -0.0410
29929W        W72920  28.193  17.084  17.573  0.2336 -0.0074 -0.1936
29930W        W72921  29.037   0.149  13.064  0.1021 -0.0141  0.1685
29931W        W72922   1.491  30.611  20.873  0.1376 -0.0768 -0.0995
29932W        W72923   4.931  25.860  26.603 -0.1820  0.0885 -0.1835
29933W        W72924  12.842   8.304   1.547  0.1344 -0.0157 -0.1812
29934W        W72925  33.714  23.139  19.348  0.2040  0.1394 -0.1666
29935W        W72926  22.653  10.635  25.598 -0.0739 -0.1655 -0.1311
29936W        W72927  29.785  33.422  18.593 -0.3566  0.2722 -0.0060
29937W        W72928   7.411   8.018  15.463  0.1198  0.1256 -0.0097
29938W        W72929  26.193  12.879  19.660 -0.1702 -0.2366  0.2440
29939W        W72930  13.586   1.801   0.049  0.3713 -0.1611 -0.3387
29940W        W72931  29.310  12.809  13.892  0.4083 -0.0752  0.2767
29941W        W72932  21.464  29.978  25.303  0.0984 -0.0945  0.3038
29942W        W72933  17.082  33.724  28.263  0.0063  0.1677 -0.0126
29943W        W72934  27.388   1.475  20.049  0.0343 -0.2840 -0.1336
29944W        W72935  17.224   6.453  21.464  0.0210 -0.2287  0.5500
29945W        W72936  23.036  25.606  25.591  0.0799  0.0656 -0.2129
29946W        W72937  17.491  33.805  15.387 -0.1180 -0.1607  0.0676
29947W        W72938  20.211  29.599   6.761  0.3482 -0.1512  0.1365
29948W        W72939  26.571   6.802  23.493 -0.3959 -0.0761 -0.0907
29949W        W72940   5.963  14.809  17.010 -0.1361 -0.0073 -0.0525
29950W        W72941  11.119  27.903  24.680  0.0393  0.0104  0.0808
29951W        W72942  32.369  30.987   4.396 -0.2438  0.3063  0.0216
29952W        W72943   7.091  33.145  15.043  0.2568  0.2005 -0.3686
29953W        W72944  32.933  20.811  27.889  0.1919  0.3488  0.0395
29954W        W72945  32.758  21.196   9.499 -0.0006  0.0611  0.2684
29955W        W72946  12.360  25.839  14.209 -0.0649  0.0474 -0.1105
29956W        W72947  30.142   3.729  28.648 -0.1845 -0.0971 -0.2795
29957W        W72948  33.098  33.642  16.749 -0.2619  0.2799 -0.2399
29958W        W72949  26.985  25.145   8.264  0.0712 -0.3642  0.0352
29959W        W72950  21.112  21.799  16.047  0.2004  0.3175  0.3595
29960W        W72951  17.406   2.430  17.369  0.2910 -0.2575 -0.3058
29961W        W72952   0.330   9.737  27.527  0.1736 -0.0362 -0.0252
29962W        W72953   2.299   7.887  10.254  0.0059 -0.1068  0.1651
29963W        W72954  26.235  21.410  18.152 -0.1027  0.2366  0.1392
29964W        W72955  31.653  32.503  23.819 -0.0105 -0.0477  0.1617
29965W        W72956  30.583   1.361   0.714 -0.1479  0.1816  0.0444
29966W        W72957  26.930   4.006  25.142 -0.1311  0.3174  0.2671
29967W        W72958  14.263   6.546   0.306 -0.0130 -0.0241 -0.0507
29968W        W72959  26.918  29.610  16.617 -0.2033 -0.0127  0.2710
29969W        W72960  24.352   8.743   4.645  0.1352  0.0217  0.4047
29970W        W72961  22.801   3.736  24.968 -0.2481  0.1699  0.0178
29971W        W72962  28.390   6.443  27.419  0.2452  0.1804 -0.0400
29972W        W72963   2.469   7.542  23.012  0.0346  0.0707  0.4122
29973W        W72964  25.257  23.229  24.166 -0.3224 -0.3734 -0.0405
29974W        W72965  33.397  28.576  26.117 -0.3385 -0.1892  0.0759
29975W        W72966  33.885  32.310  23.697 -0.2644 -0.0398 -0.1131
29976W        W72967  26.772  33.659   1.713  0.0493 -0.0496 -0.1058
29977W        W72968   3.281  30.602   0.358  0.1653 -0.0941  0.1858
29978W        W72969  24.887  10.788  25.609  0.0300 -0.3324 -0.1315
29979W        W72970  27.642  20.751  21.432 -0.3173 -0.0121 -0.2132
29980W        W72971  24.484   1.811  22.578 -0.1796  0.1898 -0.1404
29981W        W72972  30.576  29.773   6.588  0.3361  0.0401 -0.2667
29982W        W72973  30.504   7.397  21.699 -0.3803 -0.2253 -0.3094
29983W        W72974  22.312  31.606   4.495 -0.0865 -0.0772  0.3093
29984W        W72975  30.795  34.383  19.074  0.2411 -0.3477 -0.1468
29985W        W72976   6.902  19.292  22.983  0.0869  0.0645 -0.0113
29986W        W72977   6.561  21.909  18.214  0.1723  0.0711  0.2848
29987W        W72978   4.143  20.701  21.979  0.1230 -0.0224 -0.2829
29988W        W72979  25.104  21.330  19.609  0.1881 -0.0737  0.0221
29989W        W72980  32.863  10.988  24.090 -0.0495  0.0049  0.0386
29990W        W72981  27.716  31.736  27.560 -0.1424  0.4159  0.1200
29991W        W72982  31.782   9.791   2.930 -0.1489  0.0758 -0.0077
29992W        W72983  32.300   3.262   8.954 -0.2386  0.1808 -0.2954
29993W        W72984  21.466  22.992  27.079  0.1041  0.2028  0.2259
29994W        W72985  27.976  25.232   6.089 -0.0123 -0.1762  0.0397
29995W        W72986   5.263  19.291   7.323  0.4082 -0.1741 -0.2684
29996W        W72987   7.972  22.218   5.202  0.0385  0.3260  0.2742
29997W        W72988  22.019  34.145  24.930  0.0054  0.1661 -0.0152
29998W        W72989  10.483  11.748  24.748  0.1980  0.0066 -0.0300
29999W        W72990  23.769  34.605  14.493 -0.0733 -0.1668  0.2141
30000W        W72991  20.778  10.331   7.052 -0.0064  0.0499 -0.2018
30001W        W72992   4.195   3.018  27.967 -0.0576  0.0258  0.1198
30002W        W72993  22.916   8.108   2.290  0.3513  0.2267  0.2195
30003W        W72994  18.572  10.711   3.130 -0.2188 -0.0885  0.2999
30004W        W72995   9.743  13.951   7.482 -0.0198  0.2021 -0.0272
30005W        W72996  21.495   5.769   6.890 -0.2230 -0.1205 -0.2912
30006W        W72997  15.971  27.862   8.720  0.4980 -0.1212  0.0496
30007W        W72998  25.867  21.965   3.041 -0.0562 -0.1483 -0.0691
30008W        W72999   4.851  30.708   1.908 -0.0753 -0.0551 -0.1060
30009W        W73000   0.487  10.291  21.765 -0.2178 -0.2609 -0.0382
30010W        W73001  16.328  11.950  25.815  0.1725 -0.1348  0.0712
30011W        W73002   1.004  24.765   3.070 -0.1144 -0.2770 -0.2219
30012W        W73003  30.791  33.194   3.922  0.1001  0.0686 -0.0693
30013W        W73004   9.999   7.211  25.599  0.0758 -0.3797  0.2215
30014W        W73005  21.199  34.035  27.700  0.2077  0.0575 -0.0846
30015W        W73006  27.353   9.102  14.928  0.0161  0.0338  0.1701
30016W        W73007  24.812   6.208  27.996 -0.3230 -0.1741  0.2094
30017W        W73008  15.960   4.453  16.966 -0.3275  0.0511  0.0713
30018W        W73009  14.755  28.806  29.058  0.1942  0.0410 -0.0846
30019W        W73010  20.419  25.155   0.194 -0.1115  0.3165  0.1381
30020W        W73011   0.115  29.283  21.655  0.0031 -0.1518 -0.4786
30021W        W73012   7.535  23.770  17.201 -0.2693 -0.0098  0.2428
30022W        W73013   1.710  27.110   6.650 -0.0805 -0.2541  0.0830
30023W        W73014  11.559  31.075  14.429  0.0464  0.2285 -0.0184
30024W        W73015  20.709  29.227  19.446 -0.1394  0.0896  0.3070
30025W        W73016  18.203   5.910  20.293 -0.0721 -0.1240  0.0560
30026W        W73017  31.812  21.262   4.755  0.0249  0.2164  0.2646
30027W        W73018  23.929  32.298  21.325 -0.0718  0.1833  0.2931
30028W        W73019  22.449  25.628  28.784  0.3735  0.0168 -0.0515
30029W        W73020  16.969  27.660   9.799  0.0641  0.1176  0.1263
30030W        W73021  11.572   7.834  17.751 -0.0693  0.0487 -0.1237
30031W        W73022  24.016   0.770  13.514 -0.3073  0.2218  0.2148
30032W        W73023  20.741  25.801   1.993 -0.0957 -0.0246 -0.3366
30033W        W73024  23.318  34.304  19.249 -0.0291 -0.1837  0.0346
30034W        W73025   1.385  34.276   0.454  0.2801  0.8147 -0.0590
30035W        W73026  25.237  22.629   0.670  0.1152  0.3029 -0.1721
30036W        W73027  26.470   1.876  20.051  0.3708  0.1998  0.0928
30037W        W73028  23.979   1.188  28.724 -0.0150 -0.1994 -0.2617
30038W        W73029  27.710  13.308  26.175 -0.0510  0.2710  0.4197
30039W        W73030  23.600  34.078   0.410 -0.1005 -0.0925  0.0691
30040W        W73031   3.064   3.761  20.548 -0.4361 -0.3377  0.0914
30041W        W73032  13.729  34.501  22.310 -0.1266  0.0088 -0.2037
30042W        W73033  13.133  14.093   7.685  0.1016  0.2880  0.3768
30043W        W73034  28.322  27.446   0.030  0.0721  0.1342 -0.1192
30044W        W73035  29.748  33.282   3.470 -0.2098  0.2293  0.2861
30045W        W73036  21.026   0.344  27.117  0.0285 -0.0893 -0.1236
30046W        W73037  25.038  22.905  28.758 -0.1530  0.0836  0.3694
30047W        W73038  18.345  17.931   2.485 -0.0061 -0.1126 -0.0310
30048W        W73039   6.254  25.409  26.852 -0.0115 -0.1754  0.0356
30049W        W73040  21.424  23.564  13.628 -0.0630 -0.3205  0.0858
30050W        W73041   0.290   6.198   2.586  0.2819 -0.0130 -0.0458
30051W        W73042  28.804  32.274  28.696 -0.0204 -0.4337  0.0266
30052W        W73043  23.199  34.509  20.479  0.0776  0.0051 -0.2726
30053W        W73044  19.687   7.808  24.420 -0.0266  0.2722  0.0600
30054W        W73045  29.243   8.481   4.473  0.0034  0.1094 -0.0904
30055W        W73046  23.604  16.337  15.402  0.3046 -0.0228  0.2503
30056W        W73047  12.178  32.723  22.921  0.2811 -0.0956 -0.0787
30057W        W73048  29.456   3.411  25.154 -0.0582  0.1207 -0.1059
30058W        W73049  25.452   6.326  27.055  0.3772  0.1013 -0.0125
30059W        W73050  17.466  28.721   0.244  0.3371  0.0943  0.0790
30060W        W73051  20.739  10.950  10.376 -0.2129 -0.0768 -0.3185
30061W        W73052  15.828   0.799  23.454  0.0782  0.0335  0.0277
30062W        W73053  17.342  25.761   6.181 -0.0458  0.3364  0.3701
30063W        W73054  20.265  21.633  14.293 -0.3796  0.3667 -0.0708
30064W        W73055  30.425  20.099  25.281 -0.1295 -0.0622 -0.2410
30065W        W73056  18.887  18.717  24.194 -0.1500  0.0482  0.2781
30066W        W73057  25.671   2.726  25.206  0.0476 -0.0245 -0.1946
30067W        W73058   5.078  24.651  28.713 -0.0421  0.0605  0.0217
30068W        W73059  18.782  29.114  27.599  0.0037 -0.1804  0.1387
30069W        W73060  20.577  18.537   9.530 -0.1548  0.3261  0.0457
30070W        W73061   7.915  11.354   2.837  0.1932  0.0020 -0.3157
30071W        W73062  32.441   2.102   3.638  0.1725  0.0815  0.0812
30072W        W73063   0.100  15.048   9.359  0.3443  0.1098 -0.2303
30073W        W73064  28.241  22.266  23.278 -0.0439 -0.0501  0.4264
30074W        W73065  29.785  19.274   1.294 -0.5082 -0.1445  0.2864
30075W        W73066  24.310   1.642   7.369 -0.0832  0.1581  0.0140
30076W        W73067  17.062   0.427  23.556 -0.1001  0.0217  0.0269
30077W        W73068  33.772   1.090   8.783 -0.0692  0.2009  0.4158
30078W        W73069  17.084   2.233  16.907 -0.3663 -0.2200 -0.0977
30079W        W73070  16.843  28.279  26.266  0.1045  0.0985  0.0680
30080W        W73071  25.476  24.448  18.188  0.0472  0.1163  0.1913
30081W        W73072  25.981  28.423  17.186 -0.3638  0.3780 -0.0774
30082W        W73073  29.517   9.776   0.650 -0.0204  0.2472 -0.2586
30083W        W73074  24.698  26.533  29.032 -0.0127 -0.2353 -0.0318
30084W        W73075  11.215  34.214  22.671  0.3476  0.0649  0.0636
30085W        W73076  28.102  29.945  26.278  0.1749  0.0544 -0.1441
30086W        W73077  26.531  12.101  17.431  0.2356  0.2958  0.2319
30087W        W73078  25.975   2.857  15.750  0.2445  0.1359  0.0244
30088W        W73079   6.234  11.933   9.807 -0.0042  0.0016 -0.0723
30089W        W73080  23.506  31.756  16.832  0.3731 -0.0207  0.0749
30090W        W73081  32.381   0.883  20.810 -0.0354  0.3199 -0.1223
30091W        W73082  30.136  34.457  23.357 -0.1489 -0.0996  0.1440
30092W        W73083  12.976  21.254   7.134 -0.1807  0.1005  0.0285
30093W        W73084  27.159  31.568  28.145  0.2504 -0.0280  0.1774
30094W        W73085  26.633  28.985   2.293 -0.0016 -0.2471  0.1682
30095W        W73086  11.902   2.613  25.063  0.0561  0.1197 -0.0045
30096W        W73087  18.396   0.174   7.233 -0.2620 -0.0872  0.3185
30097W        W73088  24.469  31.591   8.358  0.0969  0.1526 -0.1437
30098W        W73089  23.819  34.037  20.942  0.0715 -0.0952  0.1137
30099W        W73090  26.434   6.066   1.501 -0.1639 -0.2562 -0.1646
30100W        W73091  22.708   3.859  27.754  0.1091 -0.2831  0.3059
30101W        W73092  15.773   5.068  29.034  0.0225 -0.0832 -0.0043
30102W        W73093  27.968  31.754  17.710  0.0232 -0.2060  0.2909
30103W        W73094   3.689  33.062  19.633  0.2091 -0.4083 -0.1933
30104W        W73095   8.414  29.058   8.872  0.1431  0.2376  0.1017
30105W        W73096  18.459  32.624   1.735 -0.0184 -0.1405 -0.2083
30106W        W73097   7.224  32.375  15.744 -0.2726  0.0620 -0.2436
30107W        W73098  17.983   3.923  19.453  0.1196  0.1323 -0.0545
30108W        W73099  12.506  28.548  10.438 -0.0816  0.1510  0.2247
30109W        W73100  19.597  32.335   2.030  0.1920 -0.0500 -0.0098
30110W        W73101  17.902  26.353   7.958 -0.0666  0.2046 -0.2280
30111W        W73102  31.127   7.118  26.971 -0.1118  0.0525  0.0404
30112W        W73103  13.455  15.996  27.418 -0.0587  0.1092 -0.1012
30113W        W73104  28.253  22.312  16.563  0.0107  0.1837  0.1814
30114W        W73105  22.278  26.340  19.972 -0.1427 -0.0909 -0.0505
30115W        W73106  29.627  28.374  26.929 -0.0391  0.2235  0.1266
30116W        W73107   0.566   1.074  20.108 -0.1888  0.0304 -0.0522
30117W        W73108  29.491  24.356  23.217 -0.1860  0.0910  0.2642
30118W        W73109  22.676  24.929  15.487 -0.2227 -0.3926  0.0068
30119W        W73110  20.288  23.911  28.800  0.0363 -0.0139 -0.2903
30120W        W73111   4.418  18.652  18.301 -0.1797 -0.0287  0.2116
30121W        W73112  29.363   1.706  17.475  0.1946  0.2845 -0.0172
30122W        W73113   6.422   0.608   2.624 -0.0405 -0.2867  0.0011
30123W        W73114  25.711  32.497   7.976  0.1010  0.0234 -0.1320
30124W        W73115  28.524  13.320   8.087 -0.3444  0.1853  0.2944
30125W        W73116  32.006   0.149  13.434 -0.2417 -0.1524  0.0571
30126W        W73117  30.154   9.028   5.364 -0.1128  0.0835 -0.1325
30127W        W73118  14.602  13.844  23.362 -0.1551  0.1174  0.3230
30128W        W73119   3.322  30.410   2.821  0.1057  0.0070  0.1588
30129W        W73120   6.156   0.299  11.254  0.1519  0.0146 -0.1849
30130W        W73121  29.202   7.521  25.138 -0.3045  0.3023 -0.1878
30131W        W73122  30.826   4.211  16.547 -0.1063 -0.1704  0.2929
30132W        W73123  29.869  29.543  20.415  0.4237 -0.2465 -0.0224
30133W        W73124   7.396  14.193   1.708 -0.1045  0.1890 -0.1750
30134W        W73125  32.688  31.205  15.326  0.0501  0.0392  0.0791
30135W        W73126   4.108   5.848  28.949  0.0755 -0.1402 -0.0636
30136W        W73127  23.116  31.332   6.100 -0.0804 -0.0778 -0.0002
30137W        W73128  31.449  27.845  28.692 -0.1051  0.0026  0.2128
30138W        W73129  25.014  28.652  27.880  0.0985  0.0453  0.0216
30139W        W73130   0.333   0.050  25.625 -0.2344 -0.2613  0.0299
30140W        W73131   4.708  13.584   6.100  0.2487  0.1565  0.1209
30141W        W73132  26.795  33.107  24.702  0.0405 -0.0033  0.0580
30142W        W73133  26.660  18.838   2.541  0.1071  0.4916  0.2722
30143W        W73134  24.310   2.633   2.286 -0.0660  0.2651  0.1884
30144W        W73135   2.434  24.451  27.661 -0.0672  0.1707  0.0903
30145W        W73136  24.494  14.576  22.747  0.1162 -0.0096  0.1343
30146W        W73137  18.438   1.890  24.173 -0.1224  0.2041 -0.1236
30147W        W73138  21.979  32.487  21.789 -0.2069 -0.0753 -0.0169
30148W        W73139  21.802  17.591   7.827 -0.0620 -0.0082  0.2212
30149W        W73140  21.252  31.611  21.978  0.0480 -0.1679 -0.1696
30150W        W73141  30.364  34.359  17.755 -0.0425  0.1346  0.0063
30151W        W73142  29.533  29.205   7.072 -0.0666 -0.0569 -0.2985
30152W        W73143  30.353   2.471  26.351  0.2464 -0.1336  0.1060
30153W        W73144   8.751   6.323   1.066  0.1803 -0.4895 -0.3509
30154W        W73145  28.680   0.927   3.138  0.0181  0.0129 -0.2449
30155W        W73146  20.797  30.392   6.392 -0.3480  0.1939 -0.0613
30156W        W73147  31.293  25.455  21.990  0.0133 -0.1107 -0.0074
30157W        W73148  19.562   6.455  18.157  0.3437 -0.0253  0.1503
30158W        W73149   0.779   8.654  15.632  0.1961  0.0254  0.2390
30159W        W73150   9.192  32.302   3.087 -0.0525 -0.0684 -0.0708
30160W        W73151  27.200  24.734   5.729 -0.0354  0.1166  0.1325
30161W        W73152  18.606   5.314  13.695  0.0265 -0.1079  0.4310
30162W        W73153  15.862  11.577  27.317  0.1392 -0.1889 -0.3176
30163W        W73154  32.131   6.622  27.337 -0.0244 -0.0441 -0.0881
30164W        W73155  26.412  15.238   6.743 -0.3009  0.0992  0.0426
30165W        W73156  29.038  12.273   5.151  0.1309  0.0280  0.0200
30166W        W73157  31.920  14.608  15.338  0.0444  0.0157 -0.0627
30167W        W73158   3.361  29.516  27.038  0.0115  0.2103  0.2153
30168W        W73159   1.316  31.391   7.057  0.0799 -0.1365  0.3884
30169W        W73160  30.108  30.121  19.107 -0.1143  0.1348  0.0638
30170W        W73161  27.493  10.032  14.801 -0.0896  0.0331  0.2523
30171W        W73162  26.371   1.139  26.020  0.1370  0.1624 -0.3064
30172W        W73163  31.877  29.717  28.447  0.0933 -0.2138 -0.4399
30173W        W73164  14.790   1.865  22.041 -0.1712 -0.1131 -0.3252
30174W        W73165   2.696   3.525   8.087 -0.2238 -0.1067 -0.1427
30175W        W73166  23.468   7.094   6.640 -0.1428  0.2486  0.1880
30176W        W73167  31.442  11.426   3.180 -0.3156  0.0675 -0.0524
30177W        W73168  28.532  23.456  26.061  0.1975 -0.2727  0.1016
30178W        W73169  23.180  24.473   3.426 -0.0170  0.4144 -0.2842
30179W        W73170  30.181  34.305   2.348 -0.1247  0.2383  0.1061
30180W        W73171  34.320   0.836  27.051  0.0036  0.3179  0.3322
30181W        W73172  29.887   3.935  15.360 -0.2576 -0.1600  0.1538
30182W        W73173  31.203  20.944  20.211  0.0647  0.0875 -0.0275
30183W        W73174   0.181  33.596  20.002 -0.0073  0.1203 -0.0205
30184W        W73175   9.242   2.123  14.706 -0.0319 -0.0556 -0.3567
30185W        W73176  10.372   6.360  21.057 -0.2594  0.1458 -0.4587
30186W        W73177   6.263  26.555   9.475 -0.0834 -0.2346  0.1927
30187W        W73178  21.672  25.436  24.534 -0.2310  0.1197  0.0488
30188W        W73179  28.510  31.830  15.990  0.0799 -0.1309  0.0959
30189W        W73180  30.259  24.646   2.296  0.0662  0.0301 -0.0618
30190W        W73181  24.170   7.687  10.327  0.1658  0.3881  0.1301
30191W        W73182  29.577   4.010  17.863  0.0056 -0.4074  0.1681
30192W        W73183  23.821   3.240  20.108  0.3071 -0.2274  0.2517
30193W        W73184  28.553  24.486   8.294 -0.1811  0.1034  0.0304
30194W        W73185  20.020  25.337   5.211 -0.2025  0.0884  0.0585
30195W        W73186  20.694  16.776  16.688 -0.1182  0.2843  0.0522
30196W        W73187   6.599   2.473  18.878  0.1456  0.1441 -0.1966
30197W        W73188  28.329  22.190   6.720  0.0508  0.5060  0.1427
30198W        W73189  19.046   0.179  17.786  0.0240 -0.2091  0.4300
30199W        W73190   8.919  32.979   9.176  0.1162  0.1641 -0.3773
30200W        W73191  31.893   1.505  22.670 -0.1671  0.3216  0.0339
30201W        W73192  17.548   3.016  28.962  0.2608 -0.2391  0.1992
30202W        W73193   0.833   4.547   7.596  0.1800 -0.0380  0.0541
30203W        W73194  28.712  26.757   2.870  0.1311  0.5508 -0.1485
30204W        W73195  12.429  30.634   5.803 -0.2705  0.1525  0.0302
30205W        W73196  16.244  25.680   2.099  0.2746  0.2140  0.2881
30206W        W73197  20.549  24.895  25.318  0.1926 -0.0367  0.0025
30207W        W73198  17.287   1.896   0.323  0.1077  0.1472 -0.0717
30208W        W73199  26.301  20.453   7.123  0.2662 -0.0411  0.0340
30209W        W73200   6.077  26.567   0.245 -0.1361 -0.3415  0.0629
30210W        W73201  12.584  30.678  23.441  0.1153 -0.1354 -0.0784
30211W        W73202  25.513  15.593  13.741 -0.3493 -0.1566 -0.1355
30212W        W73203   6.505  31.340   2.623 -0.0941 -0.0104  0.0411
30213W        W73204  20.767  32.648   0.406  0.1324 -0.0228  0.1293
30214W        W73205  20.991  18.753  24.311  0.1692  0.2574  0.1558
30215W        W73206  31.522   0.021  13.619 -0.0712  0.3494 -0.1513
30216W        W73207  22.075  27.955   8.673  0.0161  0.0840  0.2652
30217W        W73208  27.434  32.834   5.143 -0.0410 -0.0235 -0.0456
30218W        W73209  20.993   1.093   8.403 -0.0159  0.1955  0.0697
30219W        W73210  24.159  27.571  17.544 -0.2756  0.1317 -0.1499
30220W        W73211  19.617  15.597   0.755 -0.0313 -0.3160 -0.2543
30221W        W73212   3.853  30.410   7.405 -0.3287 -0.3718  0.0769
30222W        W73213  25.809  29.253  25.381  0.1862 -0.0643  0.1354
30223W        W73214  31.327  29.150  15.486  0.0909  0.0178 -0.1849
30224W        W73215  30.855  31.594  13.861 -0.0127 -0.2331 -0.2486
30225W        W73216  31.175  33.513   4.238 -0.0958 -0.0131  0.4164
30226W        W73217  21.885  32.937  15.825  0.1072 -0.0103  0.2468
30227W        W73218   0.644   0.352  25.372  0.2851 -0.2294 -0.1179
30228W        W73219  31.859   0.294  24.666 -0.2352  0.0317 -0.0067
30229W        W73220   9.044  22.411  16.333  0.0313 -0.6952 -0.1759
30230W        W73221   0.613  24.987  21.429 -0.0556 -0.0870 -0.6640
30231W        W73222  27.005  24.397  21.225 -0.0730  0.3349  0.1695
30232W        W73223  26.824  32.263  23.498 -0.0001 -0.0957  0.0103
30233W        W73224  16.450   8.125  17.582 -0.0459  0.1055  0.0641
30234W        W73225  27.937  16.398  27.138  0.2858 -0.1309  0.2066
30235W        W73226  27.596  11.265  17.043 -0.1406  0.1493 -0.2004
30236W        W73227  22.238  13.947  17.995  0.0538 -0.1235 -0.1061
30237W        W73228  15.228   5.596  23.446  0.0860  0.1153  0.0013
30238W        W73229   3.987   1.339  23.561 -0.1046  0.0326 -0.0642
30239W        W73230  20.294   0.469  17.265 -0.1783  0.1277 -0.0118
30240W        W73231   1.043  24.410   1.345 -0.1145 -0.1455  0.0269
30241W        W73232  32.292  17.565  18.760  0.0666  0.2231  0.0708
30242W        W73233  28.927   8.921  16.267  0.2282  0.2793  0.0246
30243W        W73234  25.288   0.054  26.081 -0.2119  0.0268 -0.0264
30244W        W73235  31.321   5.398  22.819  0.1999 -0.3592  0.0641
30245W        W73236  26.597   1.769  21.153 -0.3717  0.1176 -0.4374
30246W        W73237  16.060   4.490   0.626 -0.0226 -0.1778 -0.1319
30247W        W73238  25.458   5.622  22.817 -0.1838  0.0134 -0.2645
30248W        W73239   4.553  26.036  21.865 -0.0389 -0.0103  0.1705
30249W        W73240   2.211  28.971  27.139  0.1523 -0.0515  0.2294
30250W        W73241  12.830   0.203  18.559 -0.2817  0.1917 -0.4469
30251W        W73242  24.873   2.264  22.997  0.1482 -0.3476  0.0663
30252W        W73243  22.404   3.360  17.859  0.0067  0.3538  0.2283
30253W        W73244   5.524  10.152  17.997 -0.2871  0.0402 -0.0634
30254W        W73245  26.841   7.548   4.862  0.0625 -0.3636 -0.2109
30255W        W73246  18.017   0.653  26.846  0.0037  0.1144 -0.0535
30256W        W73247   3.855   2.641   5.326  0.0160  0.3715  0.5030
30257W        W73248  24.702  34.589  21.851  0.0422  0.0112 -0.3174
30258W        W73249  33.315  16.305  20.136 -0.0864 -0.0178 -0.1265
30259W        W73250   2.463   3.821  17.643  0.1404  0.1092  0.0731
30260W        W73251  29.419  19.689  28.917 -0.3268 -0.1055  0.2205
30261W        W73252  28.895  20.713  26.018 -0.3722 -0.0784 -0.0291
30262W        W73253  34.143  21.195  16.719  0.0120 -0.1700 -0.1203
30263W        W73254  11.264  12.331  16.888 -0.1881  0.1167  0.1544
30264W        W73255   4.304   3.665  21.962  0.0736 -0.0068  0.1030
30265W        W73256  25.455   3.976   6.854  0.1440 -0.0415 -0.1109
30266W        W73257  20.789  29.870   2.095 -0.2461 -0.1419  0.0968
30267W        W73258  22.864  32.240  15.367 -0.2076 -0.1268  0.0969
30268W        W73259  21.091  24.804  24.767 -0.0236 -0.0297  0.0988
30269W        W73260  11.594  16.663  15.756  0.2697  0.1170 -0.1495
30270W        W73261   8.159  11.821  19.220 -0.0273 -0.0420  0.1847
30271W        W73262  33.961  29.341  14.838  0.0258 -0.0072  0.0519
30272W        W73263   6.675   0.695  26.784  0.0282 -0.1500  0.0730
30273W        W73264   1.880   8.247   0.742 -0.0920 -0.2133  0.1322
30274W        W73265   4.620  12.002  16.599 -0.1169 -0.1459 -0.1833
30275W        W73266  31.045   7.384  14.668 -0.0134  0.0999  0.1309
30276W        W73267   3.199  23.704   0.064 -0.3343 -0.3012  0.1705
30277W        W73268  20.902  12.075  24.464  0.1664  0.2043 -0.0528
30278W        W73269  24.864  17.523  15.707 -0.0008  0.1410  0.1152
30279W        W73270   0.038   9.574  19.893  0.2806 -0.1852  0.4514
30280W        W73271  23.640  14.883  23.332 -0.1291 -0.0462  0.0189
30281W        W73272   0.873  25.197  18.250 -0.0470 -0.1145 -0.1266
30282W        W73273   1.887   5.971  25.278  0.2905  0.1200  0.0588
30283W        W73274  33.801  31.472  18.794 -0.0412  0.0798 -0.3285
30284W        W73275   0.613  30.728   0.335 -0.1215 -0.2574 -0.2480
30285W        W73276   5.072   5.036   2.281 -0.0921 -0.0542 -0.1850
30286W        W73277  24.164  20.942  28.672 -0.3803 -0.3009 -0.4011
30287W        W73278  30.788  20.638   5.102 -0.0768  0.3293  0.1206
30288W        W73279  28.727   7.331  18.877  0.2751  0.0241  0.0355
30289W        W73280  31.601   7.830   3.181 -0.1238  0.1878  0.2070
30290W        W73281  31.258   3.197  14.163  0.1246 -0.0160 -0.0871
30291W        W73282  29.546  16.709  21.932 -0.1136  0.1675 -0.3256
30292W        W73283   0.484  30.795  23.468  0.0820 -0.1264  0.0968
30293W        W73284   2.274  31.602  19.474 -0.2717 -0.0544  0.1015
30294W        W73285  30.346   6.703  13.897 -0.1890 -0.3181 -0.0057
30295W        W73286   1.319  14.712  22.603 -0.4729 -0.1148 -0.1042
30296W        W73287  30.726  31.816  23.068 -0.3606 -0.1182  0.1810
30297W        W73288  24.423  27.406  20.633  0.2341 -0.1225  0.0642
30298W        W73289  23.137  29.134  20.255 -0.0645  0.0803 -0.0586
30299W        W73290  33.196   4.088   0.251  0.0612 -0.1521 -0.2468
30300W        W73291   9.710   4.952  15.847 -0.0232 -0.0401 -0.0756
30301W        W73292  31.320   1.140  14.863 -0.0287 -0.1201  0.0669
30302W        W73293  32.856  33.053  22.459 -0.0416 -0.1126 -0.0912
30303W        W73294  26.573   4.704  20.277 -0.0155  0.2535  0.1914
30304W        W73295  23.536  13.424  24.894 -0.0114 -0.0120  0.1549
30305W        W73296  34.707   0.579  28.059 -0.2932 -0.1712 -0.1096
30306W        W73297  10.475   6.667  17.982 -0.0459  0.1838  0.0054
30307W        W73298  23.497  29.055  19.794  0.2226 -0.2404  0.0786
30308W        W73299  27.957   1.852  14.153  0.4387  0.0459  0.0986
30309W        W73300  34.365  27.490   0.320  0.1169 -0.1010  0.3138
30310W        W73301  26.721  31.475  18.551  0.2279 -0.0780  0.0870
30311W        W73302   6.516   1.118  14.651 -0.0158 -0.1131 -0.1298
30312W        W73303  19.275  33.466   6.524  0.0577  0.1550  0.2441
30313W        W73304   6.180  31.660  17.029 -0.1684  0.0802 -0.1754
30314W        W73305  29.253   2.676  27.454 -0.1310 -0.1378 -0.1739
30315W        W73306  29.313   4.021  20.459 -0.0470 -0.0444  0.1711
30316W        W73307  23.272   1.742  22.582 -0.0210  0.0398  0.0149
30317W        W73308  34.724  16.378  20.154 -0.1134  0.0585 -0.0943
30318W        W73309  23.892   5.783  28.094  0.4056 -0.3134  0.0889
30319W        W73310  30.276   5.386  22.349 -0.2453 -0.1801 -0.1625
30320W        W73311   4.015   1.649  20.591  0.1036 -0.1747  0.0037
30321W        W73312  20.610  25.963  21.725 -0.1105  0.0636 -0.1265
30322W        W73313  19.281   2.210  15.177 -0.0466  0.1206 -0.1490
30323W        W73314  25.597  11.155  27.261 -0.3521 -0.0942 -0.2312
30324W        W73315  16.974  29.392  14.779  0.2609  0.1099  0.3577
30325W        W73316  13.729   4.816  16.405 -0.0652 -0.1995 -0.1129
30326W        W73317   0.176  13.681  21.082  0.4088 -0.1289 -0.2080
30327W        W73318  27.373  24.117   0.482  0.0566 -0.2551  0.0566
30328W        W73319  30.218   5.520  24.771 -0.3302 -0.0710 -0.1383
30329W        W73320  24.193  10.529   2.860 -0.0555  0.0336  0.0728
30330W        W73321  27.553   2.899  21.505 -0.0805 -0.1019 -0.2582
30331W        W73322  21.680  23.257  20.574  0.1878 -0.0706  0.1291
30332W        W73323  28.847  13.068  19.534  0.0179  0.2612 -0.2521
30333W        W73324  31.389  16.835  17.322 -0.1920 -0.0120 -0.0864
30334W        W73325  23.594  16.785  17.940 -0.1154  0.0465 -0.4264
30335W        W73326  21.011  15.119  22.019  0.1510 -0.0931  0.3218
30336W        W73327  24.414  23.232  20.388 -0.0073 -0.0941 -0.1486
30337W        W73328  18.446   8.581  16.628  0.3636 -0.0940 -0.0563
30338W        W73329  31.219   7.345  29.068  0.1838 -0.0524  0.2714
30339W        W73330  29.870  27.114  15.029  0.0376 -0.1891  0.0958
30340W        W73331  32.022   0.848  19.289  0.0764  0.1440 -0.0539
30341W        W73332  17.931  12.315  19.324  0.1128 -0.0801 -0.3035
30342W        W73333  14.538  23.008  14.586 -0.0437  0.0265 -0.3127
30343W        W73334  15.188  13.048  23.273  0.1087 -0.0777  0.1470
30344W        W73335   6.677  30.722  28.128 -0.2708  0.0847  0.1190
30345W        W73336   6.255  33.945  18.163  0.1836  0.1521  0.1118
30346W        W73337   8.058  26.617  15.413 -0.0937 -0.1561  0.1666
30347W        W73338   3.775  28.595  16.090  0.0334 -0.0172 -0.1550
30348W        W73339  29.306  33.684  25.310 -0.0568  0.0527  0.1187
30349W        W73340   3.479  10.379  15.991  0.3786  0.3594  0.1274
30350W        W73341  27.541  24.196  17.173 -0.4128 -0.1898  0.2335
30351W        W73342  14.268   6.482  25.740  0.0677 -0.0222 -0.0402
30352W        W73343  24.907   6.564  26.830  0.1649 -0.3538  0.3442
30353W        W73344  22.153  12.199  14.139 -0.1796  0.1985  0.0470
30354W        W73345  32.602   7.276  16.713 -0.3756 -0.0867 -0.1906
30355W        W73346  33.976   9.620   3.616  0.1061  0.0952  0.0909
30356W        W73347  23.733  15.693  17.505  0.0103 -0.0797  0.0632
30357W        W73348  32.011   8.554  23.445  0.0318 -0.2869  0.1243
30358W        W73349   1.619  24.706  17.635 -0.1260  0.0621 -0.0575
30359W        W73350   0.415  17.432  15.958 -0.0165  0.0963  0.1783
30360W        W73351   3.527  26.321  20.910 -0.0913 -0.0783 -0.0173
30361W        W73352  28.659  18.614  16.292  0.0923 -0.0493 -0.1829
30362W        W73353  30.044   3.749   5.102  0.1459 -0.3676 -0.2571
30363W        W73354  19.570  31.898  18.268  0.2014  0.0211 -0.4610
30364W        W73355  25.962  17.824  19.350  0.1599  0.3235 -0.0431
30365W        W73356   4.587  26.192  26.778 -0.1136 -0.0892 -0.0218
30366W        W73357   2.245   8.541   0.105 -0.1325 -0.0780  0.0174
30367W        W73358   2.076  21.686   2.774 -0.0541 -0.0987 -0.1458
30368W        W73359  14.621   3.029  28.119  0.2112  0.2307 -0.0866
30369W        W73360   6.557   4.278  18.129 -0.0522  0.0485 -0.4486
30370W        W73361  18.197   1.204  28.577 -0.1377  0.1741 -0.2228
30371W        W73362   3.286  32.985  24.126 -0.2579  0.0049  0.0262
30372W        W73363  24.279   2.775  27.415  0.3565  0.1324  0.1363
30373W        W73364  24.544  10.993   6.054 -0.1367 -0.1327 -0.0357
30374W        W73365  19.676  15.477  16.920  0.3706 -0.2292  0.5048
30375W        W73366   1.489  18.647  16.127  0.3345  0.0938  0.1089
30376W        W73367  30.748   5.150  21.590 -0.1390 -0.4412 -0.1088
30377W        W73368  30.940  10.073  19.091 -0.0766  0.0253  0.2954
30378W        W73369  27.631  30.943  12.835 -0.0024 -0.0667  0.0128
30379W        W73370  14.053   2.636  26.705  0.0575 -0.0826 -0.2097
30380W        W73371   0.968  29.116  17.734 -0.0820 -0.1640  0.2267
30381W        W73372  33.810   9.668  18.412 -0.2159 -0.1094 -0.5156
30382W        W73373  14.029  13.473  15.729 -0.1254  0.0173  0.3523
30383W        W73374   9.255   1.357  27.386  0.0289  0.2336  0.0994
30384W        W73375   3.546  31.586  26.995 -0.1025 -0.0079  0.2493
30385W        W73376  10.134  30.865  22.932 -0.1934 -0.1277 -0.1155
30386W        W73377  31.946  12.212  28.294  0.4274  0.2387 -0.2815
30387W        W73378   2.957  21.326  20.875 -0.0556 -0.0715 -0.2692
30388W        W73379   1.873  27.217   5.799 -0.0346 -0.1522  0.2143
30389W        W73380  32.118   7.339  22.681  0.1893  0.1040  0.4974
30390W        W73381   2.635  32.224  17.073 -0.0434 -0.0970 -0.1408
30391W        W73382  23.481   6.339  24.587  0.2086  0.0441  0.1418
30392W        W73383  20.455   9.651   0.298 -0.0524  0.1021 -0.3630
30393W        W73384  30.518   6.562  25.450  0.0464 -0.0464  0.1745
30394W        W73385  16.220  33.791  27.488  0.6419  0.0743  0.0319
30395W        W73386  32.094   2.131  15.609 -0.4516 -0.1025  0.3726
30396W        W73387  16.912  10.834  14.827 -0.2232 -0.0254 -0.1376
30397W        W73388   0.308  21.427  17.586  0.4591  0.0271 -0.0480
30398W        W73389  18.538  22.815  18.475  0.0228  0.2581  0.2408
30399W        W73390   4.372  12.003  22.779 -0.2175 -0.0386 -0.0320
30400W        W73391  29.165  10.693  26.001 -0.0549 -0.0450 -0.1777
30401W        W73392  21.283  29.171  12.967  0.2459 -0.0815  0.0838
30402W        W73393  21.283  10.668  20.188 -0.0117 -0.0630  0.1159
30403W        W73394  28.614   0.316  17.048 -0.0636  0.0517  0.1943
30404W        W73395  29.996   5.743   3.146  0.0992  0.0840  0.1412
30405W        W73396  22.602   3.729  15.919 -0.1095 -0.0957  0.2614
30406W        W73397  28.087   3.452  26.411 -0.0620 -0.0856  0.2024
30407W        W73398  23.632  25.949  19.627  0.1382 -0.1262  0.1616
30408W        W73399   2.105  28.755  24.079  0.1305  0.0026  0.1321
30409W        W73400  11.468   5.630  17.586  0.0815 -0.2006  0.0909
30410W        W73401  25.578   1.415  15.247  0.1691  0.2203  0.0010
30411W        W73402  29.657  23.808  15.215 -0.0888 -0.0772  0.0503
30412W        W73403   2.977  32.921  20.166 -0.0181 -0.0959  0.0040
30413W        W73404  26.259   1.110  16.506 -0.0763 -0.1179  0.0825
30414W        W73405  10.212   9.181  19.262 -0.0822  0.3806 -0.0652
30415W        W73406   3.171   1.255   2.912  0.0410 -0.2426 -0.0359
30416W        W73407  30.526   2.701  24.512  0.1326 -0.0883 -0.0686
30417W        W73408  23.321  25.502   5.246 -0.1972  0.0178  0.0586
30418W        W73409   4.848   4.186  15.038 -0.3164  0.1235 -0.0510
30419W        W73410   2.038   2.727  16.612 -0.0688 -0.0062 -0.0446
30420W        W73411  10.341  31.743  22.355 -0.1012  0.1905 -0.1862
30421W        W73412  33.103   7.640  25.729 -0.2685  0.2625  0.0574
30422W        W73413  18.695   1.921  17.253 -0.1415 -0.0072 -0.0432
30423W        W73414   1.374   8.062  23.049 -0.2367 -0.4278 -0.1977
30424W        W73415  22.799  31.403  24.546 -0.5477  0.0690 -0.0952
30425W        W73416  25.916   9.689  19.398  0.0789  0.1398 -0.0064
30426W        W73417  24.113   9.479  17.380 -0.1219  0.4956 -0.0537
30427W        W73418  31.797  30.746  25.291  0.0784  0.2844  0.1380
30428W        W73419  30.372  29.041  18.220 -0.0587  0.1180 -0.0274
30429W        W73420  34.164  33.323  13.222  0.0826  0.3221 -0.0441
30430W        W73421  32.498  24.955   3.142 -0.0844 -0.0289 -0.0130
30431W        W73422  29.533   5.295  15.450  0.1975  0.0012  0.1701
30432W        W73423  26.431  27.621  28.649  0.1314  0.3741  0.1444
30433W        W73424  30.716  34.450  13.543  0.2336  0.3541  0.2065
30434W        W73425  33.584   3.132  15.513  0.1228  0.1183 -0.0202
30435W        W73426  33.305  15.502  21.781  0.0938 -0.0502 -0.2706
30436W        W73427  32.269  11.243  17.042 -0.0115  0.0677  0.0494
30437W        W73428   0.517  27.885  17.298 -0.0111  0.1610 -0.0544
30438W        W73429  24.329  10.749  21.230  0.0214 -0.0239 -0.0126
30439W        W73430  31.558  11.309  27.412  0.0426 -0.3869  0.0069
30440W        W73431  31.450  23.202   5.674 -0.0133  0.1015  0.1462
30441W        W73432  34.016   8.390   9.662 -0.1421  0.1895  0.2260
30442W        W73433   1.261  33.963  10.661  0.3518 -0.0707 -0.5019
30443W        W73434  14.928   0.710  16.103 -0.0254 -0.1345  0.0182
30444W        W73435  21.593  28.898   1.906 -0.1563 -0.0936  0.2404
30445W        W73436  32.024   6.790  21.989  0.2680  0.3282  0.5221
30446W        W73437  14.025  22.587   1.081  0.1439  0.0271  0.1609
30447W        W73438   9.369  25.181  19.885  0.1274 -0.1218 -0.1434
30448W        W73439  34.648  25.728  15.911  0.2579 -0.0515 -0.1991
30449W        W73440   8.692   0.896  10.719  0.1188  0.4548  0.1525
30450W        W73441  19.740  25.946  17.758 -0.0814  0.4220  0.1702
30451W        W73442  17.305   3.299   8.288  0.1372  0.0418 -0.0757
30452W        W73443   7.404   9.133  19.970 -0.1998 -0.0729  0.1444
30453W        W73444  34.310   8.751  17.966 -0.0023  0.0063  0.0587
30454W        W73445  20.943   8.305  21.798 -0.0413  0.0466  0.0615
30455W        W73446  15.473  33.596  23.972 -0.0811  0.1333 -0.1873
30456W        W73447   1.104  26.277  20.916  0.0203 -0.1378 -0.0324
30457W        W73448  16.596  11.105  21.925  0.3407 -0.1074  0.0100
30458W        W73449  11.044   6.833  16.272 -0.0416 -0.3063 -0.3826
30459W        W73450  14.162   1.308  24.418  0.1209 -0.0283 -0.0657
30460W        W73451  26.021  28.915  13.691  0.2098 -0.4241  0.3249
30461W        W73452   6.182  27.576  23.788  0.3364 -0.0098 -0.3190
30462W        W73453   1.305  30.094  16.280 -0.2902  0.1059  0.1980
30463W        W73454  25.946  31.749  21.089  0.1560  0.0580  0.1550
30464W        W73455  26.194  30.285  20.914  0.0263  0.0360  0.4372
30465W        W73456   6.561   0.925  18.014 -0.0044 -0.1789  0.3201
30466W        W73457   9.798  15.575  21.511  0.2282  0.1015 -0.0892
30467W        W73458   0.852  30.601  19.195  0.0527  0.3007 -0.0518
30468W        W73459  11.233   8.024   0.778  0.3273  0.1235  0.2001
30469W        W73460  25.608   9.517  20.515  0.0579  0.0249  0.0306
30470W        W73461   3.797   7.020   1.873  0.1958  0.2058 -0.0991
30471W        W73462  28.819  23.127  28.525 -0.1328 -0.0388  0.0124
30472W        W73463  29.448  22.306  19.046 -0.3711  0.1162 -0.0342
30473W        W73464   3.480   2.737  22.667 -0.3982 -0.1622  0.0387
30474W        W73465  25.155   5.964  25.663 -0.0085 -0.0049 -0.0389
30475W        W73466  29.405   7.724  14.912  0.1631 -0.1336 -0.1289
30476W        W73467  23.995   0.019  17.013 -0.1745 -0.1029 -0.0165
30477W        W73468   8.599   7.050  18.939  0.0608 -0.3920 -0.1250
30478W        W73469   9.028   4.599  25.508  0.1421  0.1691 -0.4063
30479W        W73470  16.784  22.522  22.088 -0.1297 -0.3847  0.5115
30480W        W73471  32.722   1.585   2.108 -0.1700  0.2992  0.3082
30481W        W73472  16.843   6.209  14.602 -0.0724 -0.1739 -0.2355
30482W        W73473  20.551   1.243  18.641 -0.1475  0.0782 -0.0220
30483W        W73474  21.642   6.410  15.668  0.1766 -0.1062  0.0399
30484W        W73475  31.010   8.600  22.050 -0.3393  0.0168 -0.0706
30485W        W73476  31.971   0.898  18.673 -0.2507  0.0611  0.0550
30486W        W73477  27.003   5.628  15.899 -0.0357  0.1361  0.1376
30487W        W73478  25.067  30.911  15.215 -0.4031 -0.0086  0.0422
30488W        W73479  21.544  11.096  22.607  0.1623 -0.0773 -0.1793
30489W        W73480  12.588  13.591  26.259  0.1213  0.1218  0.2228
30490W        W73481  27.447  17.476  17.632  0.0358 -0.0455 -0.0937
30491W        W73482  28.726  30.440  27.173  0.0254  0.1041 -0.0226
30492W        W73483   1.135  10.511  19.664 -0.0404 -0.2022 -0.1384
30493W        W73484  28.069   2.819  21.711 -0.0075  0.0746 -0.2002
30494W        W73485  15.852  11.757  15.584 -0.0255  0.2644 -0.0978
30495W        W73486  32.688  10.177  14.279  0.1007  0.0451 -0.3140
30496W        W73487   9.095  18.361  22.327  0.1971  0.1890  0.0377
30497W        W73488  29.987   0.291  26.039  0.1143  0.0429 -0.0316
30498W        W73489  26.051  27.910  20.910 -0.1048  0.0557  0.1415
30499W        W73490  22.903  32.684  15.037  0.4511 -0.0098  0.1578
30500W        W73491  20.797  14.365  22.411  0.2878 -0.3245  0.1453
30501W        W73492  24.211   2.635  19.687  0.2731  0.3373 -0.3846
30502W        W73493  30.375  15.930  23.947 -0.0976 -0.4463  0.3043
30503W        W73494  29.931   4.801  28.406  0.0694  0.1535  0.0221
30504W        W73495  32.884  23.659  15.498  0.1007  0.0239 -0.1296
30505W        W73496   7.544  33.626  20.211  0.0218  0.0283 -0.2087
30506W        W73497  29.881  30.145  28.397  0.0306 -0.1137  0.1164
30507W        W73498  14.405  34.191  17.185  0.0744  0.0507 -0.0120
30508W        W73499   2.177  28.153  24.619 -0.2781  0.0098  0.2124
30509W        W73500   2.317   6.297   0.837 -0.1417 -0.3593  0.1054
30510W        W73501  20.476   2.129  14.065  0.0895  0.0564  0.1338
30511W        W73502  28.623   4.034  15.618  0.0318 -0.0026 -0.0277
30512W        W73503   7.659  20.391   1.397  0.0362 -0.0207  0.1335
30513W        W73504  25.905  21.138  15.623 -0.0065  0.2737  0.0173
30514W        W73505  31.651  25.528  23.370 -0.0737  0.0141  0.1162
30515W        W73506  24.862  11.119  17.651  0.1369 -0.0436  0.1301
30516W        W73507  22.124  20.345  15.939  0.0480 -0.0020 -0.1864
30517W        W73508   6.400  20.570   1.261 -0.2545  0.1081 -0.0181
30518W        W73509  14.866  27.965   5.844  0.3543 -0.0431  0.0083
30519W        W73510  21.081   2.771  24.150 -0.0597  0.1762 -0.0083
30520W        W73511  28.745   2.638  16.279 -0.0339  0.1406 -0.1182
30521W        W73512  30.088   6.198  17.868  0.1507 -0.1211 -0.0319
30522W        W73513  22.151   3.028  20.557 -0.0886  0.1827  0.0056
30523W        W73514   8.088  31.610   1.879  0.1313  0.0138 -0.3397
30524W        W73515  30.996  24.032  14.693 -0.1798  0.0775 -0.0587
30525W        W73516  32.274  34.548  23.376  0.2877  0.0399 -0.2105
30526W        W73517  19.400  28.244  14.547  0.1542 -0.3339  0.2822
30527W        W73518  21.851  24.900  18.960 -0.1597  0.0992  0.0398
30528W        W73519  30.867   0.512  25.599  0.2004  0.1073 -0.2212
30529W        W73520   0.400  15.633  20.882 -0.3702 -0.0226  0.1005
30530W        W73521  19.022   3.161   0.203 -0.2543  0.0151  0.1748
30531W        W73522  26.295  16.157  19.865 -0.1888  0.0319  0.1544
30532W        W73523   7.267  12.370   9.652  0.2760 -0.1857  0.1720
30533W        W73524   8.632   3.276  18.422  0.0802  0.2716  0.1780
30534W        W73525  30.228   6.405  18.388  0.4001  0.1053 -0.0811
30535W        W73526   0.979  11.312  17.925 -0.1614  0.0263 -0.4002
30536W        W73527  26.353  33.713   0.381  0.0141  0.0279  0.1220
30537W        W73528  22.571   1.010  17.963 -0.3767 -0.0755  0.0304
30538W        W73529  31.919   9.383  23.995 -0.1170 -0.4191  0.1247
30539W        W73530  23.175  18.507  14.392  0.0045  0.1706  0.0921
30540W        W73531  19.037  29.166   0.210  0.0188  0.0024  0.1518
30541W        W73532  32.785  25.109  15.268 -0.0518 -0.4831 -0.0744
30542W        W73533  29.605   2.577  14.064  0.2288  0.2857  0.1771
30543W        W73534  23.717   5.676  15.614  0.0285  0.0733 -0.1836
30544W        W73535  12.316   2.956  16.148  0.1603 -0.1151 -0.3903
30545W        W73536  30.546  27.049  21.470 -0.0904 -0.0197 -0.1779
30546W        W73537  25.481  23.222  15.146  0.0273 -0.1738  0.2476
30547W        W73538  29.109   9.377  21.040 -0.2150  0.0990 -0.2711
30548W        W73539  17.957  14.188  14.390 -0.3724 -0.1419  0.2877
30549W        W73540  25.936  24.625  18.141 -0.0608  0.1266  0.0985
30550W        W73541  31.238  31.218  15.426 -0.0939  0.1584  0.2813
30551W        W73542  32.179  32.347  21.589 -0.0715  0.2479 -0.1066
30552W        W73543  32.740   0.299  14.245  0.0983 -0.0782  0.1879
30553W        W73544  28.417  26.448  25.784 -0.0879 -0.0098 -0.1933
30554W        W73545   6.258  26.615  15.094 -0.1587  0.0157 -0.2143
30555W        W73546  28.239  10.678  23.758 -0.2110 -0.0671  0.0752
30556W        W73547  21.537  10.063  23.608  0.1232 -0.0306  0.0009
30557W        W73548  20.187  29.614  16.415 -0.1638  0.1664 -0.1211
30558W        W73549   8.964  25.465  21.994 -0.0462 -0.0007 -0.0085
30559W        W73550  32.732  27.446  15.275 -0.0302  0.1681  0.0470
30560W        W73551   6.529  32.156  18.209 -0.1311  0.0865 -0.4114
30561W        W73552  15.567  29.100   3.205  0.2948  0.3348  0.0225
30562W        W73553   1.166  21.713  17.594  0.1142 -0.1141 -0.0701
30563W        W73554  19.812   6.846  25.186  0.2677 -0.0031 -0.2196
30564W        W73555  13.417   6.647  17.827  0.0348  0.0323  0.6393
30565W        W73556  11.785  17.974  23.574  0.3458 -0.0801 -0.0129
30566W        W73557   0.719  27.304  14.166  0.2170 -0.3066 -0.0158
30567W        W73558  17.100   6.217  17.867  0.1077  0.2669 -0.1017
30568W        W73559  27.994  31.273  19.914  0.0136  0.0375  0.1869
30569W        W73560  14.523  34.617  21.992 -0.0140 -0.2503 -0.1912
30570W        W73561  27.239  13.402  24.325  0.3257 -0.1634  0.1901
30571W        W73562  34.078  24.803  17.459  0.1166  0.2118  0.3238
30572W        W73563  31.509  12.266  15.636 -0.0066 -0.0466  0.2298
30573W        W73564  27.977  30.417  24.721  0.1108  0.1415 -0.2226
30574W        W73565  30.213  12.777   3.085  0.1562 -0.0512  0.0488
30575W        W73566  28.518  29.327  18.724 -0.0845  0.1707  0.0947
30576W        W73567  17.067  24.394  14.158  0.2144  0.4664 -0.0499
30577W        W73568  31.115  30.147  17.030  0.4591 -0.2393 -0.0442
30578W        W73569   9.514  29.412   1.800 -0.2634 -0.0754  0.5457
30579W        W73570  25.938  34.205  21.927 -0.1406  0.2070 -0.2968
30580W        W73571   0.587   7.805  28.206 -0.0448 -0.1306 -0.0275
30581W        W73572  14.744  29.306  26.235 -0.0053  0.2754  0.2858
30582W        W73573  22.955  33.320  20.984  0.1063 -0.0771 -0.0872
30583W        W73574  10.049   2.678  15.743  0.2666  0.3323 -0.1455
30584W        W73575  22.305   1.769  14.539 -0.2310 -0.0548  0.0527
30585W        W73576  34.763  31.897  17.475 -0.0810  0.1190 -0.1947
30586W        W73577   1.382  14.807   5.819  0.2791  0.1964 -0.0550
30587W        W73578  32.335  17.512  23.976  0.0187  0.1045  0.2561
30588W        W73579  16.003  10.451  17.279 -0.3683  0.1047 -0.1716
30589W        W73580   5.545  34.167  19.417  0.2218 -0.2648 -0.2290
30590W        W73581  31.362  27.337  14.256 -0.0105 -0.0547  0.0411
30591W        W73582  23.799   3.804  14.939 -0.3257  0.2404  0.0388
30592W        W73583  24.781  25.656   1.932  0.0838  0.0304  0.2809
30593W        W73584  26.509  28.697  15.537 -0.0109  0.1480  0.2934
30594W        W73585  17.422   7.523  14.344  0.1977  0.2169  0.2694
30595W        W73586   5.553   0.219  15.988 -0.3289 -0.1636  0.2884
30596W        W73587  19.116  30.203  24.437 -0.0679  0.2254 -0.2861
30597W        W73588  10.457   4.539  25.959 -0.1758 -0.2014  0.1286
30598W        W73589   7.745   1.248  26.184  0.2540 -0.2164  0.2376
30599W        W73590  20.519  30.393  16.841  0.4656  0.0557  0.1995
30600W        W73591   0.056  11.640  19.411  0.2129  0.0654  0.1193
30601W        W73592  25.446  31.282  16.852  0.1265 -0.1555 -0.1854
30602W        W73593  13.463   3.147  18.566 -0.2434  0.2159  0.1734
30603W        W73594  10.192  29.985  14.624  0.2923  0.1587 -0.1233
30604W        W73595  28.167  15.759   6.757  0.0757  0.0278  0.0159
30605W        W73596  34.408  25.410  22.459  0.0892  0.0487  0.4096
30606W        W73597  19.926  22.233  14.766 -0.0041  0.1730  0.1971
30607W        W73598  28.684  12.420  17.865 -0.0810 -0.0642  0.0010
30608W        W73599   3.856  31.778  25.106  0.1048 -0.2047 -0.0339
30609W        W73600  10.724  13.000  27.355  0.5126  0.0339 -0.1315
30610W        W73601  18.783   8.444  16.108 -0.3426  0.0876 -0.1576
30611W        W73602  33.569   3.724  17.569  0.1870 -0.1059  0.1652
30612W        W73603  31.049  34.579  21.059 -0.1544 -0.1940 -0.1890
30613W        W73604  31.794   0.624  20.315 -0.1700 -0.1089 -0.2622
30614W        W73605  30.840  10.869  25.370 -0.3251 -0.2963 -0.2243
30615W        W73606  16.125  20.958  19.705  0.0845 -0.3096 -0.3251
30616W        W73607  33.948  15.799  17.382  0.1433  0.2452  0.1727
30617W        W73608   4.620  14.747   3.978  0.0810  0.0684  0.2328
30618W        W73609  26.890  29.671  12.315 -0.1847  0.2162  0.1740
30619W        W73610   0.388   9.852  22.008 -0.1455 -0.1674 -0.0308
30620W        W73611  20.496  31.946  25.682 -0.2050  0.0375  0.2447
30621W        W73612   1.538   5.947  18.973 -0.1729 -0.0963 -0.0041
30622W        W73613  29.256   9.443  14.146 -0.1074 -0.0602 -0.1634
30623W        W73614  33.958  13.044  14.944 -0.2718  0.4169  0.0828
30624W        W73615   4.779  31.092  22.935 -0.1159  0.1525  0.1778
30625W        W73616  26.298   1.506  19.732  0.0108  0.0041  0.2920
30626W        W73617  26.460  34.111   1.612  0.2356 -0.0430  0.1855
30627W        W73618  18.396   9.297  20.149 -0.1168  0.0603  0.2390
30628W        W73619   1.215   9.699  25.114 -0.2955  0.0665  0.3486
30629W        W73620  19.691  28.706  14.540 -0.2110 -0.1305 -0.1017
30630W        W73621   4.617  17.400  22.078  0.0709  0.2157  0.1753
30631W        W73622  21.870  30.075  19.360 -0.0061  0.3179  0.1076
30632W        W73623   6.938  31.702  14.412  0.2097  0.1305 -0.2277
30633W        W73624  22.930  11.027  20.346 -0.2813 -0.0868 -0.0111
30634W        W73625  25.629   4.004   3.233  0.0067  0.1066 -0.2770
30635W        W73626   7.597  28.722  21.003 -0.0384 -0.1687 -0.1115
30636W        W73627   9.683  25.038  20.975  0.2197 -0.1085 -0.2572
30637W        W73628  27.228   3.119  17.197 -0.1370  0.0016 -0.0629
30638W        W73629   3.590  28.242  15.839  0.0320  0.0299  0.1353
30639W        W73630  25.310   4.693  13.684  0.0157  0.2542 -0.3040
30640W        W73631  17.302  13.194  24.028 -0.1366  0.1032 -0.2020
30641W        W73632  23.825  17.848  28.351  0.2274 -0.1395 -0.0679
30642W        W73633  19.714  19.309  16.349 -0.1347 -0.0115 -0.1477
30643W        W73634   0.932  13.588   4.463  0.1209  0.0893 -0.0104
30644W        W73635   5.417   6.122  17.884  0.2175  0.0660  0.0624
30645W        W73636  32.633  26.038  14.699  0.1090  0.4196 -0.1792
30646W        W73637  22.179   4.327  15.501  0.4251  0.2957  0.3115
30647W        W73638   7.124  29.104  23.394 -0.2132  0.1289  0.4198
30648W        W73639  28.169   1.233  16.678  0.0513  0.3775 -0.1112
30649W        W73640  24.532  21.899  15.440  0.1328  0.1243 -0.4351
30650W        W73641  30.815   1.500  20.265 -0.0813  0.1570  0.1044
30651W        W73642  29.525   1.391  26.122  0.4150 -0.1203  0.0851
30652W        W73643   5.606  11.415  20.006 -0.0833 -0.2727 -0.0772
30653W        W73644  31.122  34.032  14.957 -0.0812 -0.2350 -0.0431
30654W        W73645  14.362  30.960  15.949  0.0435 -0.0560 -0.4161
30655W        W73646  28.117   1.446  15.966  0.0296  0.0523  0.0715
30656W        W73647  14.178   1.582  17.513 -0.0663  0.1319 -0.4499
30657W        W73648   2.694  15.076  21.042  0.1101  0.1487  0.0114
30658W        W73649  31.016  27.699   6.361  0.2306  0.0194  0.0866
30659W        W73650  14.867   5.885  17.229  0.0640 -0.3355 -0.0127
30660W        W73651   5.983   6.622  23.020 -0.3368  0.1445  0.2355
30661W        W73652   8.748   5.136   0.311 -0.2234 -0.3510 -0.1219
30662W        W73653  31.783  20.031   0.558  0.0033  0.4208 -0.3248
30663W        W73654  31.693  31.684   4.314  0.2641 -0.1358 -0.0322
30664W        W73655  24.391   4.535  14.225  0.1524 -0.2573 -0.0445
30665W        W73656  33.795  34.357  18.197 -0.0168  0.1183 -0.2495
30666W        W73657  19.730   5.779  24.499 -0.0567  0.0165 -0.1859
30667W        W73658   2.842  20.894  15.143 -0.0323  0.3520  0.0927
30668W        W73659  33.355   9.953  17.053 -0.2722  0.2045  0.0897
30669W        W73660  15.006  16.806  14.632  0.2307 -0.4097 -0.0250
30670W        W73661  34.310  14.788  20.004 -0.2169  0.0433 -0.1007
30671W        W73662  23.575   0.465  22.029 -0.0600  0.0428 -0.0938
30672W        W73663  25.273   3.935  21.048  0.1471  0.0454  0.2468
30673W        W73664  32.568  23.403  23.233 -0.0231 -0.2807 -0.3022
30674W        W73665   2.021   7.000  15.599  0.5113  0.2663 -0.3387
30675W        W73666  32.811   0.350  28.824  0.0134 -0.0894  0.0488
30676W        W73667  25.556   8.314  25.865  0.0236 -0.1784 -0.1057
30677W        W73668  10.545  13.363  23.395 -0.0887  0.0996  0.1696
30678W        W73669  29.321  34.502  18.244 -0.2738 -0.2305  0.0528
30679W        W73670  34.129  24.529   1.942 -0.1644  0.1557  0.0756
30680W        W73671  29.186  33.847  13.554 -0.1287  0.1720 -0.1134
30681W        W73672  33.173  26.069  19.863 -0.0422 -0.0028 -0.3107
30682W        W73673   7.728   5.444  19.995 -0.2386 -0.1607  0.0207
30683W        W73674  26.894   3.589  17.216 -0.0178  0.1340 -0.1600
30684W        W73675   8.820   6.953  15.819  0.1480 -0.1889  0.0788
30685W        W73676  20.592   4.736  18.857 -0.1075  0.3331 -0.2050
30686W        W73677  32.524  23.479   4.896  0.1969 -0.1343 -0.1056
30687W        W73678   9.828  28.580   2.466  0.0113 -0.1136 -0.0556
30688W        W73679   5.561   7.163   7.952  0.0164 -0.1406  0.0063
30689W        W73680  21.088  11.609  24.719  0.1097 -0.0865  0.1857
30690W        W73681  26.743   0.488  13.602 -0.0028  0.1610 -0.1841
30691W        W73682  32.245  20.716  22.238  0.1057 -0.5030 -0.2186
30692W        W73683  11.168   1.263   2.893  0.2208 -0.0504 -0.0077
30693W        W73684  33.120  24.662  17.442  0.1116  0.0774  0.2704
30694W        W73685  32.076  34.539  22.903  0.1496 -0.0484 -0.0199
30695W        W73686  30.433   9.217  28.204  0.2981  0.2431 -0.0024
30696W        W73687  22.421   1.580   2.368  0.0909 -0.0534 -0.0905
30697W        W73688  24.466  12.894  16.339  0.1499 -0.2285  0.1321
30698W        W73689  21.543  33.844   2.174  0.0904  0.0872 -0.1416
30699W        W73690  26.213   6.868  23.885 -0.0812 -0.0366 -0.0654
30700W        W73691   3.753  33.292  24.032 -0.0154 -0.2259 -0.0246
30701W        W73692  18.948  23.810  21.406 -0.0915  0.1552  0.1823
30702W        W73693  29.508  32.535   5.744 -0.1274  0.1034  0.1349
30703W        W73694   3.625  28.268  15.275 -0.3887 -0.0705 -0.0965
30704W        W73695  11.548   9.563  17.873 -0.1501  0.0240 -0.1286
30705W        W73696  10.357  27.314  20.234 -0.0321  0.1081 -0.2378
30706W        W73697  27.425   9.411  13.838 -0.0171 -0.1406  0.1842
30707W        W73698   1.774   4.074   4.568 -0.0259  0.2363 -0.2388
30708W        W73699  30.924  25.768  17.777  0.1196 -0.2023 -0.1540
30709W        W73700   3.536  26.942  22.324 -0.4839 -0.4798  0.2126
30710W        W73701   0.637   0.618  23.078 -0.2371  0.1778 -0.0848
30711W        W73702  17.890  15.227  27.633  0.1308 -0.2548  0.0808
30712W        W73703   6.267  31.798  21.114  0.0817 -0.0456  0.3370
30713W        W73704  20.664  14.597  13.629  0.1142 -0.2873  0.0703
30714W        W73705   0.542  28.900  17.588 -0.0234 -0.0721  0.1481
30715W        W73706  19.569   8.159  16.684  0.2098 -0.0744  0.0213
30716W        W73707  22.614  33.307  16.578 -0.0668 -0.1937  0.0977
30717W        W73708   0.176  34.275  18.663  0.1444 -0.2045 -0.2341
30718W        W73709   4.158   1.011  27.447  0.1326  0.2789  0.0244
30719W        W73710   2.241  12.066  17.385  0.1226 -0.1503 -0.0494
30720W        W73711   8.850   1.155  28.572  0.0500 -0.1671  0.1348
30721W        W73712  26.804   4.426   0.095 -0.3775  0.2284  0.1611
30722W        W73713  31.915   7.644  19.584 -0.0155  0.4411  0.0976
30723W        W73714  27.621  33.239  16.799 -0.4439 -0.0533  0.0386
30724W        W73715   3.139  11.845  22.175  0.1489 -0.1039 -0.1187
30725W        W73716  31.669   1.232  18.875 -0.1928  0.0075 -0.0034
30726W        W73717  33.734  23.399  27.104  0.3298  0.2099  0.1712
30727W        W73718  26.600  28.490  25.126  0.1776  0.1151 -0.1361
30728W        W73719  34.316  13.412  19.290 -0.1315 -0.1417  0.0059
30729W        W73720  25.519  14.495  26.020 -0.0442  0.0296 -0.1883
30730W        W73721  28.576   0.941  20.709  0.0786 -0.0832 -0.0165
30731W        W73722   6.163   8.316  15.261 -0.1861  0.0926 -0.0808
30732W        W73723  25.744  28.443  14.170 -0.1233 -0.3193 -0.0025
30733W        W73724  29.922  12.841  15.902  0.0547 -0.0217  0.1311
30734W        W73725  13.158   2.413  24.225 -0.1099  0.0414  0.1625
30735W        W73726  30.306  29.405  25.594 -0.0568 -0.1872  0.0534
30736W        W73727  33.139  33.751  23.155 -0.2292  0.4754  0.1664
30737W        W73728  20.863   4.748  25.444  0.0606 -0.0514  0.0047
30738W        W73729  29.835   0.235  16.608 -0.0552 -0.1688  0.1562
30739W        W73730   1.374   0.001  17.826 -0.1848  0.1818  0.0832
30740W        W73731  28.834  23.337   7.924 -0.1184 -0.0124  0.0054
30741W        W73732  14.815  29.064   2.297 -0.2158 -0.0749  0.1404
30742W        W73733  27.247   5.632   6.139  0.2113 -0.0301 -0.0067
30743W        W73734  26.906   1.681  19.195 -0.0131  0.0946 -0.4171
30744W        W73735  21.956   7.726   3.227 -0.1367 -0.2521 -0.1952
30745W        W73736  23.445  31.314  15.303 -0.0377 -0.2337 -0.3802
30746W        W73737   6.476  25.047   9.214  0.0214  0.1073 -0.0447
30747W        W73738   1.004   3.164  25.597 -0.0773  0.3269 -0.0948
30748W        W73739  33.461  31.239  14.248 -0.0630 -0.0129 -0.2884
30749W        W73740  25.579  30.503  26.265 -0.1350 -0.0453 -0.0238
30750W        W73741  27.701   0.112  21.101  0.1188  0.1694 -0.1805
30751W        W73742  24.282  26.635   3.677 -0.0594  0.3101  0.2035
30752W        W73743  14.784  29.739  17.008  0.3713  0.2027  0.2239
30753W        W73744  25.803   4.849  16.179 -0.1729  0.0956 -0.1025
30754W        W73745   7.061   1.798  16.307  0.1408  0.3611  0.1410
30755W        W73746   5.745  31.771  27.451 -0.1708 -0.3229  0.0892
30756W        W73747  20.019   7.771   5.185 -0.0368 -0.1944  0.1596
30757W        W73748  29.546  10.873   4.431 -0.2305 -0.1450 -0.1400
30758W        W73749  11.060  19.529  16.939  0.1487 -0.1089  0.3377
30759W        W73750   1.267  26.133  15.547  0.3783 -0.1189  0.1892
30760W        W73751   2.303  14.114  20.159 -0.6027 -0.0814 -0.1103
30761W        W73752  31.711  27.292  27.211 -0.2812  0.1966  0.1147
30762W        W73753  34.106   9.435  20.571 -0.2276  0.1385  0.2818
30763W        W73754  18.585   6.659  28.691 -0.0800 -0.2324 -0.0083
30764W        W73755  31.133  12.811  19.893  0.0394  0.0627 -0.1004
30765W        W73756  28.018  31.673  15.707  0.2203 -0.1535  0.2890
30766W        W73757   4.055   8.050  18.208 -0.0337 -0.0344  0.1148
30767W        W73758  10.149  20.289  16.364 -0.1023  0.0243 -0.0834
30768W        W73759  31.630   1.680   4.274 -0.0788 -0.3923  0.0349
30769W        W73760   9.629  24.163  14.858 -0.0238 -0.0224  0.0972
30770W        W73761  33.487  27.710   0.597  0.0382  0.0452  0.2635
30771W        W73762  13.934  29.463  22.822 -0.0895  0.1516 -0.0179
30772W        W73763  33.410  27.907  27.127 -0.4631  0.0573 -0.1339
30773W        W73764  10.081  13.347  26.113 -0.1103 -0.1473 -0.1203
30774W        W73765  31.550   5.615  20.243  0.4512  0.2067  0.0373
30775W        W73766  19.491  26.899  16.418 -0.0884  0.0482 -0.2398
30776W        W73767  33.831  18.506  20.692 -0.1731  0.0414 -0.0093
30777W        W73768  31.758  19.795  15.317  0.0421 -0.0600  0.0389
30778W        W73769   6.227  11.525  18.637  0.1244 -0.1761  0.1229
30779W        W73770  26.867  19.784  17.627  0.1847 -0.2802  0.3921
30780W        W73771  27.029   9.657  16.689  0.1315  0.1337 -0.1190
30781W        W73772  19.386   4.309   8.234 -0.0363  0.2092  0.0335
30782W        W73773   3.461  19.071  17.946  0.3382  0.2042  0.3282
30783W        W73774  21.842  28.026  24.560 -0.4200 -0.1187  0.2986
30784W        W73775  32.634  13.263  19.595  0.1720  0.1470  0.1161
30785W        W73776  34.635   7.473  10.076 -0.1938  0.2644 -0.2055
30786W        W73777  21.759  31.167   9.443 -0.1401 -0.2535  0.2188
30787W        W73778  26.257   4.188  15.696 -0.3081  0.0043  0.2585
30788W        W73779   3.142   1.448  23.182  0.0210 -0.0699 -0.1775
30789W        W73780  27.636  32.515  16.262 -0.1594  0.3052  0.1126
30790W        W73781  20.817   0.401  15.655  0.1614 -0.0175 -0.1362
30791W        W73782  29.201   3.635  20.910 -0.0261 -0.2111  0.0313
30792W        W73783  19.604   1.389   5.259 -0.1640  0.0582  0.2895
30793W        W73784   4.706  28.845  18.359 -0.2263 -0.2274  0.0789
30794W        W73785  29.631  24.115  14.755 -0.0411 -0.0923  0.0578
30795W        W73786  32.916  12.367   0.031 -0.0901  0.0648  0.1406
30796W        W73787  30.913  30.713  22.166  0.1240  0.1226  0.5184
30797W        W73788  32.617   6.291  22.108  0.1663  0.0524 -0.2840
30798W        W73789  21.865  33.537  21.855 -0.0770  0.0290 -0.1000
30799W        W73790   0.547  12.527   3.396  0.0398 -0.2459  0.3313
30800W        W73791  15.084  14.290  15.160  0.0253 -0.0836 -0.1027
30801W        W73792  30.484  21.194  21.934 -0.2556 -0.2005  0.0920
30802W        W73793  24.161   0.204  14.388  0.2095 -0.0124  0.1155
30803W        W73794  29.255   9.205  19.121 -0.0746 -0.0601 -0.0526
30804W        W73795  28.510  10.690  16.800  0.0194 -0.2578  0.0708
30805W        W73796  11.421   0.422  18.150 -0.2027  0.0577  0.1885
30806W        W73797  28.919   1.016  15.224 -0.2336 -0.1170 -0.0225
30807W        W73798  20.729  34.186  19.860 -0.4101  0.2038 -0.0366
30808W        W73799  25.269  32.671  21.950 -0.0611  0.2185  0.0127
30809W        W73800  26.626   5.803  24.626 -0.0858 -0.0337  0.1591
30810W        W73801  30.056  12.836  24.191  0.3337  0.1439 -0.0775
30811W        W73802  25.498  25.111   0.847 -0.0401  0.0521 -0.2146
30812W        W73803   0.522  32.462   5.163 -0.0815 -0.1139  0.1831
30813W        W73804  20.378  11.913  26.787  0.0292  0.0838  0.0460
30814W        W73805  18.404  31.709  15.155  0.0414 -0.3405 -0.1015
30815W        W73806   6.883  31.647  16.231 -0.2525 -0.1653 -0.5357
30816W        W73807  32.849  23.623   1.739 -0.1572  0.1178  0.0409
30817W        W73808  24.035   3.330  23.162 -0.0535 -0.1250 -0.0845
30818W        W73809  33.254   9.139  28.354 -0.1117 -0.1860 -0.0762
30819W        W73810  22.815  13.160  14.524  0.0299 -0.1351 -0.3519
30820W        W73811  30.503   8.994  17.525  0.1386  0.0271  0.0956
30821W        W73812   4.720   9.800   5.688 -0.1055 -0.1445  0.0072
30822W        W73813   9.082   4.601  21.359  0.0919 -0.1390  0.0215
30823W        W73814  29.545   8.745   0.702  0.0755 -0.1544  0.0209
30824W        W73815  22.728  22.593  16.051  0.0160  0.0580  0.2580
30825W        W73816  27.439  12.878  20.103 -0.2734  0.0095  0.2412
30826W        W73817  23.162   6.508  25.037 -0.2233  0.2754 -0.1721
30827W        W73818  34.067  32.882  19.825 -0.4776  0.3236 -0.0127
30828W        W73819   5.949   9.566  16.465 -0.1464 -0.1711 -0.0213
30829W        W73820   4.577  31.355  18.324 -0.1917 -0.0453  0.0560
30830W        W73821  31.495  28.938  19.315  0.2195  0.1722 -0.1263
30831W        W73822  17.653   0.997   0.443  0.2245 -0.2185 -0.0764
30832W        W73823   4.284  33.788  15.670 -0.1636 -0.1320  0.1414
30833W        W73824  32.870  15.030  19.285 -0.0334  0.0716 -0.2273
30834W        W73825  28.028  11.409  16.813  0.2756  0.0860  0.0333
30835W        W73826  27.334   4.210  18.242 -0.1320  0.0442  0.1187
30836W        W73827   9.724   4.258  21.718  0.4296  0.1081 -0.1505
30837W        W73828   6.015   5.092  24.026  0.0772  0.0158 -0.1925
30838W        W73829   3.461  32.811  10.377 -0.1998 -0.0696 -0.1787
30839W        W73830  27.313  20.893  18.647  0.1720 -0.3679  0.1395
30840W        W73831   3.288   6.321  29.093  0.2162  0.0054  0.2143
30841W        W73832  23.405   5.139  17.636  0.0131  0.0664  0.1101
30842W        W73833  27.243   6.259  21.271 -0.2706  0.1411  0.1276
30843W        W73834  22.908  12.601  20.943 -0.0152  0.0130  0.0632
30844W        W73835  20.653  22.799  26.580  0.3399 -0.0170  0.2375
30845W        W73836  26.171  30.386  23.917  0.1356 -0.2651  0.3479
30846W        W73837  32.319  34.038  25.453 -0.0611  0.1469  0.0665
30847W        W73838  33.736   2.180  15.615 -0.1173  0.0919 -0.0962
30848W        W73839   1.349  18.863  22.153 -0.2180 -0.0349 -0.1679
30849W        W73840   6.887  16.392   1.246 -0.1593 -0.1496  0.1697
30850W        W73841  16.059   1.599  18.495 -0.3367 -0.0524 -0.0067
30851W        W73842  32.776   5.581  17.522  0.0711  0.1048  0.0939
30852W        W73843   9.200  20.524   0.905 -0.2964  0.1614 -0.0989
30853W        W73844  10.600   2.461  19.010 -0.4642 -0.0716  0.1625
30854W        W73845  24.410  14.202  28.809 -0.1619 -0.0463 -0.1586
30855W        W73846  30.663   6.250  15.414 -0.1984  0.0715 -0.3704
30856W        W73847  22.853  30.646  22.432 -0.0682  0.2638  0.1075
30857W        W73848  19.529   4.171  16.636  0.1798 -0.1462 -0.3633
30858W        W73849  20.506   5.664  28.413  0.0448 -0.0740 -0.3700
30859W        W73850   5.601   9.938  21.032  0.0037  0.0161 -0.1872
30860W        W73851   0.758  29.934  15.040 -0.1801  0.2309  0.0331
30861W        W73852  23.255  33.197  19.998  0.2014  0.0363 -0.0379
30862W        W73853  20.590  18.385  15.969  0.0838  0.2781  0.2106
30863W        W73854  24.793  31.646  26.763 -0.1009 -0.1530  0.2259
30864W        W73855  22.052  25.702  26.429 -0.0439  0.4132  0.1861
30865W        W73856  26.006  33.438  23.726  0.0308 -0.3359  0.0357
30866W        W73857   3.802  20.979  27.734 -0.1402 -0.0373 -0.2061
30867W        W73858  27.116  10.190  21.532  0.0452 -0.2395 -0.0027
30868W        W73859  29.656  13.479  22.720 -0.0023  0.0379 -0.1077
30869W        W73860   7.288   2.212   0.857  0.3362  0.1003 -0.1896
30870W        W73861   4.613   6.521  23.846  0.1105  0.1169 -0.1263
30871W        W73862   3.709   3.109  15.240  0.0680 -0.0169  0.1211
30872W        W73863   0.958  18.606  19.704  0.0345  0.0139 -0.0726
30873W        W73864  34.373  15.950  15.690  0.0079 -0.0853  0.0066
30874W        W73865  21.925   0.014  23.581 -0.0049 -0.0676  0.2151
30875W        W73866  22.029   9.050  21.691  0.0922 -0.0542  0.3744
30876W        W73867   2.368  26.723  16.878  0.0975  0.1463 -0.1440
30877W        W73868  19.827   8.026  19.062  0.0125  0.1478  0.1000
30878W        W73869   1.231  17.552  22.575  0.0715  0.0470  0.2898
30879W        W73870   4.187   3.926  21.311  0.1583 -0.0587  0.0991
30880W        W73871  26.261   5.927  18.389  0.0219 -0.2363  0.1970
30881W        W73872   5.627   6.282  18.892  0.1188 -0.0868 -0.0044
30882W        W73873  16.154  32.054  17.621  0.0262 -0.2343 -0.1832
30883W        W73874   5.554   8.567  14.754  0.1810  0.0136  0.0393
30884W        W73875  25.931  22.427  15.113  0.1417  0.0049 -0.0728
30885W        W73876  33.609  16.424  17.126 -0.0612  0.0445  0.0389
30886W        W73877  26.056   9.889  23.907  0.0709 -0.0536  0.2355
30887W        W73878  30.329  23.777  17.272 -0.2761  0.1096  0.1278
30888W        W73879  27.704  30.195  12.355  0.1015  0.0218 -0.1755
30889W        W73880   6.932  25.388  25.192 -0.2050 -0.2444 -0.1073
30890W        W73881  30.018  16.415  16.990  0.2373 -0.2475  0.0107
30891W        W73882  29.221  10.071  25.569 -0.2082 -0.1105 -0.0552
30892W        W73883  22.847  11.328  22.336 -0.2424 -0.2414 -0.1209
30893W        W73884  27.670  12.659   7.804  0.1907 -0.1203 -0.2389
30894W        W73885  22.814   9.772  26.663 -0.3605 -0.2919 -0.0710
30895W        W73886  33.992   3.881   0.796 -0.2065  0.1040 -0.1396
30896W        W73887   6.896  29.881  20.823  0.2604 -0.0974 -0.2398
30897W        W73888  25.823   5.123  23.956 -0.2606 -0.0768 -0.3019
30898W        W73889  25.563  10.932   2.888  0.2281 -0.0570 -0.1955
30899W        W73890  29.192   4.578  19.272 -0.2161 -0.2048  0.1514
30900W        W73891  31.520  21.629  16.837 -0.2688 -0.1995 -0.0505
30901W        W73892  23.998  29.394   4.523  0.1528 -0.1934  0.0192
30902W        W73893   4.697  14.696  16.696  0.3226  0.1115  0.1670
30903W        W73894  30.592   5.193  16.378  0.1378 -0.1536  0.0821
30904W        W73895  18.325  29.916  18.433  0.0913 -0.1605  0.2383
30905W        W73896  29.557   4.326  26.281 -0.0422  0.0204 -0.4087
30906W        W73897  32.924  28.277  28.488  0.1669 -0.0811  0.1130
30907W        W73898  24.141   7.011  23.527  0.0350 -0.1500  0.1314
30908W        W73899   5.255  25.494  22.042 -0.1226 -0.1522 -0.0733
30909W        W73900  25.181  28.674  23.676 -0.1071  0.1221  0.1299
30910W        W73901  32.432   1.908  14.847 -0.0988 -0.0284 -0.0414
30911W        W73902  12.465   5.992  23.031  0.0563  0.0030 -0.1343
30912W        W73903   6.813   0.789  22.870 -0.1081 -0.0269 -0.4002
30913W        W73904  34.271   9.335  25.375  0.4166 -0.1413  0.2341
30914W        W73905  32.751  31.613  13.849 -0.0260  0.1401  0.0604
30915W        W73906  21.657  19.835   7.979  0.1701  0.3053 -0.1223
30916W        W73907  18.649  22.429  19.944  0.0176 -0.1060  0.2154
30917W        W73908  29.811   1.764  24.375 -0.0987 -0.1636 -0.1101
30918W        W73909  25.337   7.895  22.891 -0.0117  0.1118  0.0174
30919W        W73910   7.547  23.864   3.976 -0.2564 -0.2231  0.1474
30920W        W73911  31.099  34.332  16.217 -0.1074 -0.1807 -0.0108
30921W        W73912  30.838  12.525  16.800  0.2589  0.1781 -0.0270
30922W        W73913   8.872  13.290  16.929  0.3329  0.2162  0.0833
30923W        W73914   1.862  12.628  25.807  0.1934  0.3018 -0.3273
30924W        W73915  24.463   4.175  16.108 -0.3377  0.2853 -0.1127
30925W        W73916  20.399   1.334  25.482  0.0162 -0.0641  0.0568
30926W        W73917  25.694   2.300  24.053 -0.2598 -0.1089  0.0968
30927W        W73918  24.452   0.770  22.937  0.1370 -0.1620 -0.0396
30928W        W73919   3.056   1.445  17.988  0.2729 -0.3496  0.0311
30929W        W73920   6.374  30.019   2.653 -0.1533  0.3516  0.1674
30930W        W73921  18.883  14.970  13.807 -0.1817 -0.1702  0.2519
30931W        W73922  19.413   6.335  25.758 -0.2747  0.3273 -0.0059
30932W        W73923  20.580   7.348  24.447  0.0832 -0.1575  0.1293
30933W        W73924   3.117  12.494   6.265 -0.1936 -0.1489  0.4477
30934W        W73925  25.988   5.645  15.224  0.3734  0.1077  0.0800
30935W        W73926   2.570   9.101  18.565 -0.2699  0.0025  0.1206
30936W        W73927  27.391   5.167  18.206 -0.0130 -0.0904  0.3677
30937W        W73928  30.996   0.649   1.973 -0.0897 -0.2599 -0.2401
30938W        W73929  11.119  26.793  20.175 -0.1510 -0.1069 -0.0104
30939W        W73930  26.862  30.318  23.841 -0.0064  0.0818  0.0134
30940W        W73931  30.970   0.513  13.077  0.0618  0.0583  0.1544
30941W        W73932  12.270   3.974  20.713 -0.2665 -0.5936 -0.1505
30942W        W73933  27.293  28.541   0.331 -0.1283  0.0586 -0.0039
30943W        W73934  16.791   4.341   9.494 -0.0229 -0.1576  0.0257
30944W        W73935  13.616  32.312  21.849  0.3060  0.0263 -0.3384
30945W        W73936  24.206  30.929  19.087  0.0352  0.1245 -0.0506
30946W        W73937  19.013   6.999  17.680  0.1908 -0.1890 -0.0877
30947W        W73938  27.348  30.366  18.084  0.1784  0.1311 -0.3714
30948W        W73939  25.563   6.774  19.654  0.0199 -0.1757 -0.1692
30949W        W73940   2.638   7.897  20.420  0.0581  0.1034  0.3670
30950W        W73941   8.894  25.066  29.122 -0.0051  0.1531 -0.0575
30951W        W73942  24.964  29.735  14.630 -0.1201 -0.2115  0.0916
30952W        W73943   5.742  29.480   4.715  0.0204  0.2104  0.3058
30953W        W73944  18.437   4.043  21.573  0.1058 -0.1725  0.3634
30954W        W73945  27.388  27.583  18.500  0.0160 -0.0925 -0.3779
30955W        W73946  21.259  24.272  15.259  0.0926  0.2344  0.0332
30956W        W73947  34.248  11.459   0.354  0.1589  0.2196 -0.0680
30957W        W73948  24.073  29.321  21.187 -0.0374  0.0649  0.0255
30958W        W73949   0.651   2.096  27.149  0.2153  0.0654 -0.3043
30959W        W73950   9.811  27.344  21.108  0.0225  0.3118  0.0936
30960W        W73951  25.810  27.111  14.029 -0.0740 -0.1892 -0.1464
30961W        W73952   3.661  34.260  28.113 -0.1329 -0.2311 -0.0318
30962W        W73953  32.363  34.500  20.613  0.1560 -0.4740 -0.0283
30963W        W73954  24.332   1.837  14.495 -0.4553  0.0232 -0.2163
30964W        W73955  33.267   3.087  16.278  0.0242 -0.0977 -0.1360
30965W        W73956  14.018   5.510  18.899 -0.0070  0.2236 -0.2651
30966W        W73957   4.070  32.117  18.269  0.2017  0.1756 -0.1423
30967W        W73958   7.400   6.593  21.054 -0.0361 -0.0596 -0.3460
30968W        W73959  17.631   5.278  18.967  0.3667  0.0527  0.1399
30969W        W73960   1.818   5.031  17.995 -0.1460 -0.0471 -0.0077
30970W        W73961   7.508   7.364  29.229  0.3834  0.2153  0.0623
30971W        W73962  32.153  30.761  14.253 -0.0982 -0.1066  0.2399
30972W        W73963  19.151   4.963  17.984 -0.0027 -0.0379 -0.1640
30973W        W73964   2.639  19.969   0.205  0.0173  0.0822 -0.2605
30974W        W73965  28.272   5.888  14.149  0.0717 -0.1294 -0.1204
30975W        W73966  11.151  32.928  16.116 -0.0016 -0.1237  0.2120
30976W        W73967  24.043  20.648  24.789 -0.1193 -0.0982 -0.1414
30977W        W73968  33.486   6.104  14.713 -0.2540  0.0650 -0.0951
30978W        W73969  31.333  34.374  21.426 -0.0771 -0.0432  0.0682
30979W        W73970  24.037  32.020  18.688  0.0803 -0.0750 -0.2573
30980W        W73971   8.280  33.053  15.567  0.1131 -0.0487 -0.2551
30981W        W73972  30.318  34.702   3.272 -0.0230 -0.0695  0.0286
30982W        W73973  22.401  22.214  22.810 -0.0583  0.2553  0.0620
30983W        W73974  19.245   2.082  19.430 -0.2510  0.2141 -0.2125
30984W        W73975  25.855  33.490  19.517  0.0298 -0.0338 -0.2831
30985W        W73976  19.592  25.383  25.278 -0.0593 -0.0123 -0.0897
30986W        W73977   4.386  13.082  16.846 -0.1111  0.0543 -0.1050
30987W        W73978  17.768   2.999  22.098 -0.0347 -0.3242 -0.0476
30988W        W73979  18.878  30.860  23.132 -0.0979 -0.1140  0.1487
30989W        W73980   9.673  28.176  15.235 -0.0428 -0.1741  0.0843
30990W        W73981  34.304   9.922   3.878 -0.5226  0.1380 -0.0022
30991W        W73982   6.741   4.628  17.147 -0.1750 -0.4485  0.1008
30992W        W73983  32.080  27.499  17.800 -0.2047  0.2757 -0.0352
30993W        W73984  20.137  10.932  22.741 -0.1048 -0.2708  0.0907
30994W        W73985   2.106  32.515  26.150 -0.0086  0.2690 -0.2263
30995W        W73986   4.103  20.830  18.832  0.0178  0.2091 -0.0829
30996W        W73987  32.860  30.800  18.840 -0.1981  0.2782 -0.0159
30997W        W73988  32.451   0.321  17.450 -0.0850  0.1013 -0.0957
30998W        W73989  21.823  20.795  12.844  0.3004 -0.0657  0.0600
30999W        W73990   1.811  30.063  24.159 -0.0181  0.1798  0.2171
31000W        W73991   7.624  25.194   8.016  0.1391  0.0623  0.0834
31001W        W73992  21.797  12.160  19.497  0.1123  0.3345  0.0365
31002W        W73993  26.820  30.906  12.749  0.2218 -0.0188 -0.1721
31003W        W73994  27.704  31.076  18.633  0.0068  0.3287  0.1637
31004W        W73995  20.795  12.089   2.025  0.1851 -0.0271 -0.1877
31005W        W73996  22.837   9.375  22.610 -0.0136  0.1603 -0.0261
31006W        W73997  24.488   6.732  15.229 -0.0881 -0.0368  0.0746
31007W        W73998  32.444  33.419  21.397 -0.2347 -0.0940 -0.0858
31008W        W73999   4.448   5.135  18.759  0.0464  0.0471  0.1663
31009W        W74000  32.537   2.194  21.283  0.0919 -0.3481  0.1120
31010W        W74001  16.976  12.210  15.406  0.0538  0.1991 -0.3979
31011W        W74002  10.608  32.720  18.898  0.0506  0.1336 -0.2740
31012W        W74003  26.494  13.424  15.886  0.2134  0.1030  0.2267
31013W        W74004  13.131  15.395  20.177 -0.0734 -0.2004 -0.1850
31014W        W74005   7.575  25.286  17.360  0.0418  0.3091 -0.0420
31015W        W74006  19.035   1.438   8.571  0.1976  0.0890  0.0590
31016W        W74007  18.702   9.288   1.381  0.0762 -0.1266 -0.1176
31017W        W74008  33.587  30.909  17.047 -0.5467 -0.0349  0.0363
31018W        W74009  12.035  23.861  22.840 -0.4605 -0.2410  0.2268
31019W        W74010  20.026  11.891  13.736 -0.1419  0.1234  0.0026
31020W        W74011  31.030  28.764  29.163  0.1154  0.3495  0.0396
31021W        W74012  24.980   3.702  19.107  0.0379  0.1525 -0.1349
31022W        W74013   1.733   6.410  25.032  0.0982 -0.0157  0.2001
31023W        W74014  31.340   9.309  16.602 -0.1061  0.1314  0.1990
31024W        W74015  32.669   0.084  24.431 -0.3132 -0.0888 -0.1235
31025W        W74016  28.214   8.563  23.187 -0.1834  0.4125  0.0076
31026W        W74017  25.022  31.883  21.231 -0.0947 -0.0140  0.2038
31027W        W74018  15.398  30.517   7.359  0.1191 -0.2754 -0.2404
31028W        W74019  33.086   4.547  17.684 -0.1060  0.0060 -0.0904
31029W        W74020  33.065   7.409   3.781  0.0414  0.0167  0.2564
31030W        W74021  29.983  15.189  16.144 -0.1462  0.0326 -0.0836
31031W        W74022  33.226  31.211  19.656 -0.1172 -0.2218  0.0740
31032W        W74023  29.221  26.413  23.324  0.1364  0.1924 -0.3162
31033W        W74024  30.786  29.468  13.994  0.0677 -0.0062 -0.1323
31034W        W74025   9.734  20.463  22.935  0.2569  0.0357  0.1575
31035W        W74026  21.698  26.825  24.012  0.0515 -0.3835  0.0028
31036W        W74027  29.988   2.198   0.216 -0.1107 -0.0300  0.0103
31037W        W74028   6.913   6.563  21.794 -0.1919 -0.1594 -0.2844
31038W        W74029  23.416   4.768  19.502  0.2595 -0.0131 -0.4057
31039W        W74030   1.653  28.768  27.152  0.0471 -0.0154  0.3866
31040W        W74031  31.763  32.157   1.246 -0.5219  0.1097  0.1961
31041W        W74032  30.744  12.493  15.295  0.1281 -0.0155  0.0463
31042W        W74033  28.345  13.519  24.173  0.1589 -0.0588 -0.1361
31043W        W74034  10.998   6.839  28.755 -0.2495 -0.2902 -0.0264
31044W        W74035   1.605   1.219  23.052  0.0138 -0.0674 -0.1268
31045W        W74036  29.976  32.453  18.613 -0.0238  0.0316 -0.1716
31046W        W74037  33.699   4.164   7.217 -0.3828  0.2158  0.1610
31047W        W74038  19.859  29.976  22.183  0.1701 -0.0989  0.5046
31048W        W74039  29.278   0.881   6.992  0.1397 -0.0205 -0.0893
31049W        W74040  32.648  10.847   0.968  0.2257  0.1630 -0.1200
31050W        W74041  16.315  34.285  16.495  0.0669  0.1530  0.1979
31051W        W74042  26.519  31.154   2.310 -0.0326 -0.2540 -0.0171
31052W        W74043  10.623  32.536   1.545 -0.4296  0.0186 -0.2298
31053W        W74044  10.069  34.447  19.931  0.1253 -0.1080 -0.1953
31054W        W74045   1.369   1.452  20.491 -0.1446  0.1507 -0.0145
31055W        W74046   2.516  16.578  25.655  0.2399 -0.1973 -0.0797
31056W        W74047   3.830  14.761   1.708  0.0275  0.1625 -0.1172
31057W        W74048   2.165   7.940  18.911 -0.0163  0.1670 -0.0199
31058W        W74049   3.190  11.414  10.037 -0.4190 -0.4066 -0.0523
31059W        W74050  21.741   3.455  24.621 -0.2987 -0.1084  0.1198
31060W        W74051  25.432   3.390  27.275 -0.2569  0.2651  0.4263
31061W        W74052   1.766   2.539  16.107 -0.1516 -0.1546  0.2447
31062W        W74053  32.141  31.202  20.058 -0.3258  0.0517  0.2042
31063W        W74054  33.208   7.805  15.293  0.1511  0.3342 -0.0419
31064W        W74055   3.740  12.040  19.537  0.1207  0.1560  0.0739
31065W        W74056  23.761  12.612  25.929 -0.1051  0.0433 -0.0136
31066W        W74057  30.785   1.930  15.480  0.2843  0.2193  0.2094
31067W        W74058  32.752  28.382  22.135  0.0702  0.1043 -0.2023
31068W        W74059  14.413  15.995  16.350  0.2806  0.3012  0.0331
31069W        W74060  30.930  14.025  24.772  0.0654 -0.0678 -0.3827
31070W        W74061   3.710  26.480  23.079  0.2945  0.1400  0.1205
31071W        W74062  23.278  21.607   5.245  0.1673  0.1131  0.0231
31072W        W74063   4.023   4.178  25.810 -0.1023  0.0396  0.1361
31073W        W74064   4.188  31.518  26.207 -0.2868 -0.0053  0.2258
31074W        W74065  20.692   9.868   1.981  0.1980 -0.0219 -0.1188
31075W        W74066  20.130  24.685   8.031  0.1813  0.1593 -0.0298
31076W        W74067   5.357  30.120  18.128  0.0377  0.4228  0.1817
31077W        W74068  11.366   5.415  21.149 -0.0751 -0.1272  0.0289
31078W        W74069  11.377   9.511  18.495  0.1392  0.0661  0.3281
31079W        W74070  16.519  33.814  29.128  0.1172 -0.3041 -0.0176
31080W        W74071  19.710   0.827  23.935 -0.0858  0.3307 -0.0582
31081W        W74072  21.351   1.233   9.493 -0.1934  0.3602  0.0554
31082W        W74073   5.616  29.062  20.248  0.0514 -0.1710  0.1763
31083W        W74074  34.250  28.565   5.715  0.4199 -0.1944 -0.0393
31084W        W74075  16.603   5.013  15.862 -0.1667  0.2137 -0.2685
31085W        W74076   9.128  16.246  20.611 -0.2543 -0.3168  0.0652
31086W        W74077  16.474   0.104  22.952  0.0864  0.3112  0.1276
31087W        W74078  21.862  30.877  24.500  0.1059 -0.0707  0.1881
31088W        W74079  28.809  15.967   8.908  0.0235 -0.0973  0.1956
31089W        W74080  28.681   2.605  29.178 -0.0983  0.0205  0.1788
31090W        W74081  16.832  11.736   1.818  0.3230  0.0302 -0.0138
31091W        W74082  33.195   4.978  16.486  0.3220  0.0016 -0.1067
31092W        W74083   6.312  32.202   2.817 -0.0577 -0.0607 -0.1150
31093W        W74084  27.022   9.308  16.335 -0.0637 -0.2900 -0.0874
31094W        W74085  23.325   4.009   6.283 -0.0156 -0.2888  0.3104
31095W        W74086  23.085  31.331  26.739 -0.1718  0.1217 -0.1618
31096W        W74087  26.315  31.442  24.589 -0.1744  0.2444 -0.0130
31097W        W74088   0.079   6.524  18.207 -0.0325 -0.1289  0.3655
31098W        W74089  23.576  17.261   3.153  0.3961  0.0340 -0.2476
31099W        W74090  24.681  15.182  13.532 -0.2575  0.0763 -0.2584
31100W        W74091   9.082   5.568  24.856 -0.3533 -0.1413  0.0817
31101W        W74092  21.005  31.380  21.581  0.0990  0.1486  0.1550
31102W        W74093  10.374  26.648   8.734 -0.0473 -0.0061  0.2338
31103W        W74094  14.005  24.342  22.714 -0.3365 -0.0003  0.1206
31104W        W74095  34.665  28.235  21.481 -0.2473  0.1874  0.3143
31105W        W74096  21.189  21.806  18.233  0.0670  0.0025 -0.0344
31106W        W74097  33.260  27.456  26.319 -0.0141  0.0238  0.0330
31107W        W74098  23.696   7.607   5.057  0.1132  0.0087 -0.4331
31108W        W74099  17.237  24.003  25.083  0.0743 -0.0952  0.0261
31109W        W74100  33.537   5.372  24.777  0.2159  0.0026 -0.0180
31110W        W74101  27.074   3.591  16.377  0.2600  0.0471  0.2517
31111W        W74102  25.352  30.983  24.302  0.1429  0.0662  0.1950
31112W        W74103  28.014  14.584  19.737  0.0484  0.3227 -0.2339
31113W        W74104   4.776  29.497  25.427  0.4020 -0.1592  0.0974
31114W        W74105  12.982   4.456  18.588  0.1052 -0.0899 -0.0580
31115W        W74106  18.280  14.378  26.108  0.4664  0.0135 -0.2703
31116W        W74107  12.525   2.553  20.240 -0.1155 -0.1274  0.4030
31117W        W74108  21.704  31.129   0.432 -0.0481 -0.0817  0.1017
31118W        W74109  22.953  12.428  20.490  0.2105  0.1217 -0.0121
31119W        W74110  11.565   3.528   9.546 -0.1588 -0.0612  0.0853
31120W        W74111   2.567  17.815  15.835  0.3714 -0.2107  0.3543
31121W        W74112   1.140   4.749   5.871 -0.1275  0.3633 -0.0242
31122W        W74113   8.766  18.513  24.022 -0.1510  0.1684  0.0167
31123W        W74114   6.703  31.270  24.395 -0.2455  0.0275 -0.0747
31124W        W74115   5.797  18.181   1.251  0.0883  0.1879  0.1557
31125W        W74116  33.543  13.374   9.934  0.0248  0.0322 -0.0206
31126W        W74117   0.385  28.774  12.845 -0.1442 -0.1318 -0.1994
31127W        W74118  32.346  25.914  24.550 -0.0282  0.0986  0.2695
31128W        W74119  32.414  10.048  24.800 -0.0710  0.0406  0.0763
31129W        W74120  27.621  26.647   5.845 -0.1163  0.1455  0.1193
31130W        W74121   3.780   9.386   3.744 -0.2289  0.0502 -0.0803
31131W        W74122   2.099  29.012   8.326 -0.0917  0.3121  0.0463
31132W        W74123   5.337  19.966   1.601 -0.3265  0.1631 -0.4231
31133W        W74124  23.398   3.065  16.259 -0.1163  0.0958  0.1312
31134W        W74125  28.716   0.876  17.024 -0.0376  0.1591  0.0507
31135W        W74126   0.570   8.686  17.418 -0.1937  0.0656  0.1166
31136W        W74127  29.040  21.215  21.756 -0.0904 -0.0101 -0.2404
31137W        W74128  13.701  26.140  26.021  0.2016 -0.1750  0.0558
31138W        W74129  30.015  30.888  24.694 -0.0687 -0.0439 -0.2142
31139W        W74130  21.770   2.450  15.796 -0.1526  0.1597 -0.0332
31140W        W74131   8.359  11.239  27.331  0.1817  0.0437 -0.1369
31141W        W74132  25.474   9.000  26.834 -0.3128 -0.0382  0.0904
31142W        W74133  33.833  22.255   2.826 -0.0029  0.1649  0.0807
31143W        W74134   9.237  24.863  20.985 -0.1841 -0.3566  0.2749
31144W        W74135  15.990  27.637  28.250 -0.0919 -0.0197  0.0002
31145W        W74136   0.456  14.316  25.753  0.3257  0.2182  0.1964
31146W        W74137  24.552  12.989  19.211 -0.1309  0.0355 -0.1098
31147W        W74138  22.775  30.377  20.164 -0.1018 -0.2113 -0.1462
31148W        W74139  27.103  29.532  29.255  0.1983  0.5416  0.0926
31149W        W74140  24.767   8.993   1.890 -0.4042  0.0579 -0.0474
31150W        W74141  26.666  30.932  20.824 -0.1133 -0.1955  0.2928
31151W        W74142   9.074   6.324  17.042  0.0879 -0.2686  0.0494
31152W        W74143  11.709  13.135   7.635  0.0056 -0.0633 -0.1219
31153W        W74144   3.643  13.087  16.279  0.2498 -0.0898 -0.3771
31154W        W74145  22.524   2.078   2.791  0.1868 -0.0327 -0.2465
31155W        W74146  29.919   2.269   4.254 -0.1632  0.1620 -0.0549
31156W        W74147  22.835  26.540  24.296  0.1169  0.0407 -0.2328
31157W        W74148   0.910  17.709  27.704  0.1581 -0.0354  0.1660
31158W        W74149  30.625   6.485  14.756 -0.0323  0.1036 -0.0517
31159W        W74150  27.329   6.722  26.217 -0.1017 -0.0135 -0.2426
31160W        W74151  28.758  31.918  24.218  0.1887  0.0769 -0.1157
31161W        W74152   0.995  30.993   0.679 -0.0887  0.1504 -0.0728
31162W        W74153  23.315  21.041  23.584  0.1600  0.0064 -0.0941
31163W        W74154   5.509   1.880  19.329  0.1616 -0.1530  0.2208
31164W        W74155  30.685  29.373  16.801  0.0675  0.1758 -0.2610
31165W        W74156  28.839  14.018  19.552 -0.3129  0.0072  0.0018
31166W        W74157  18.317  24.592  22.013 -0.0270  0.1118  0.1191
31167W        W74158  22.557  34.456  29.034  0.1294 -0.1763 -0.3006
31168W        W74159  17.237  31.198   0.931 -0.2241  0.2942  0.3024
31169W        W74160   6.572  27.204   9.714  0.2444  0.0518  0.0470
31170W        W74161  25.603   1.306  18.860 -0.0200 -0.0886  0.4173
31171W        W74162   2.847  14.711  10.456 -0.2675 -0.2013 -0.3665
31172W        W74163  33.556   7.011  25.979 -0.1147  0.1675  0.0857
31173W        W74164  12.411   7.451  21.060  0.2947  0.0584  0.0631
31174W        W74165  15.526  27.467  15.776  0.0110  0.0763  0.4543
31175W        W74166  33.677  23.316  14.298 -0.0090  0.0803 -0.3218
31176W        W74167  21.741   2.888  14.142  0.1834 -0.2560 -0.1388
31177W        W74168  30.163  12.693  18.396  0.2328 -0.2279  0.0350
31178W        W74169   0.327  24.854   2.133  0.0919  0.2510  0.1040
31179W        W74170  30.069   9.242  21.819  0.0182  0.0225  0.0248
31180W        W74171   0.224   7.758  15.185 -0.4613 -0.1324  0.1197
31181W        W74172   4.593   8.970   3.830 -0.3177 -0.0836  0.1129
31182W        W74173   6.565  21.401  23.001  0.1283  0.1188 -0.0138
31183W        W74174  15.111  30.568  15.976 -0.1958  0.2717  0.0898
31184W        W74175  21.166  25.773   3.514 -0.2916  0.1230 -0.3778
31185W        W74176  23.443   5.052  22.137 -0.0820 -0.1859 -0.0716
31186W        W74177  31.141  20.137   5.108  0.3911 -0.0619 -0.2075
31187W        W74178  34.359  29.306  15.443  0.3302  0.0275  0.0400
31188W        W74179  30.766   7.056  26.535 -0.0841 -0.0281  0.0799
31189W        W74180  31.329  20.409  25.745 -0.0628  0.3672  0.2190
31190W        W74181  26.254   3.484  15.289  0.0456  0.0442  0.4192
31191W        W74182   9.823  34.351  17.434  0.1373 -0.0550  0.0723
31192W        W74183   6.895   6.434   1.009 -0.0918  0.2862  0.0763
31193W        W74184  20.561  25.954  16.463 -0.3437 -0.1598 -0.4805
31194W        W74185  33.566  24.993  21.710  0.2594 -0.0475  0.2382
31195W        W74186  32.048  10.022   5.729  0.1122 -0.2143  0.1793
31196W        W74187   7.715  19.967   9.761  0.0430  0.0353  0.1771
31197W        W74188  14.314  22.690  13.109 -0.1226 -0.3902  0.3657
31198W        W74189  31.128  19.483  14.599 -0.1038  0.1110 -0.2867
31199W        W74190  25.270  14.035   2.817 -0.2787 -0.2651 -0.2956
31200W        W74191  26.321  32.809  26.041  0.0475  0.1076  0.3615
31201W        W74192  13.666  23.938   5.935  0.1485 -0.0829 -0.1175
31202W        W74193   5.695  25.966  24.170  0.0889 -0.3270  0.2425
31203W        W74194   8.973   9.001  26.035  0.1733  0.1619 -0.0030
31204W        W74195   5.784   9.743  22.243  0.0973  0.0911 -0.0190
31205W        W74196  26.488   4.466  16.130 -0.0195 -0.1165  0.3892
31206W        W74197  21.559  15.733   3.857 -0.2462  0.1395 -0.3424
31207W        W74198  31.004  31.898  16.636 -0.0844 -0.0130  0.1457
31208W        W74199  30.312   4.108  21.894  0.1490 -0.1075  0.2755
31209W        W74200  31.949   1.514  26.142  0.2773 -0.1206 -0.1131
31210W        W74201  21.897  24.668  24.381 -0.0580  0.1615  0.2656
31211W        W74202   3.805   7.312   4.565 -0.0373  0.1687  0.0325
31212W        W74203  29.707  34.308  17.279  0.1347  0.0819 -0.0594
31213W        W74204   4.249   3.765   2.805  0.2174 -0.0549 -0.0329
31214W        W74205  34.782  33.630  18.999 -0.2883  0.0016 -0.0055
31215W        W74206  21.490  17.587  21.445  0.0502  0.5623 -0.1680
31216W        W74207   6.597  33.186  14.784  0.0784  0.1923 -0.3249
31217W        W74208  22.203  27.769  18.088 -0.1062 -0.3153 -0.1328
31218W        W74209   7.263   0.740  22.625 -0.0618  0.2503 -0.1817
31219W        W74210   3.395  24.534  19.280 -0.2536 -0.0862 -0.0178
31220W        W74211  19.602   1.761  24.431 -0.1640 -0.3366  0.1752
31221W        W74212  33.759  28.130  26.085 -0.0375  0.0210  0.0127
31222W        W74213  22.222   0.727   4.764 -0.0770 -0.0822  0.0695
31223W        W74214  24.629  27.220   9.021  0.1982  0.0341 -0.1003
31224W        W74215  33.730  23.281  20.805  0.0396  0.0840  0.1707
31225W        W74216   2.184   3.876  20.516  0.2668 -0.0261  0.0321
31226W        W74217   6.908  26.569  24.686  0.0290 -0.0558  0.3019
31227W        W74218  23.411  14.640  21.733  0.0585 -0.4318 -0.4415
31228W        W74219  25.951   2.363  16.051 -0.1165 -0.1222  0.2615
31229W        W74220  34.515  24.578  17.005 -0.0047 -0.1339 -0.1161
31230W        W74221  10.364  13.448   7.564 -0.1386 -0.0234 -0.0282
31231W        W74222  29.198  24.232  24.707  0.3368  0.1507  0.0405
31232W        W74223  24.876  29.720  21.256  0.2693  0.1377  0.5247
31233W        W74224  34.566   8.869   3.346  0.0718 -0.1736  0.1369
31234W        W74225  25.468  26.238   0.354  0.0498 -0.0202 -0.1273
31235W        W74226  17.353   3.112   6.989 -0.0620  0.1058  0.1037
31236W        W74227  26.740   5.001  24.055  0.1623  0.1467  0.1258
31237W        W74228  28.986  31.567  16.103 -0.3649 -0.1961 -0.0886
31238W        W74229   0.004  30.752   3.735  0.0157  0.1575 -0.0297
31239W        W74230   8.381  14.005  27.492  0.1817  0.3974  0.0976
31240W        W74231  17.955  30.843   0.242  0.2324 -0.1079 -0.1885
31241W        W74232  14.848   7.489  20.851  0.2009  0.2071 -0.1698
31242W        W74233   6.754  22.919  21.994 -0.2519  0.1999  0.0337
31243W        W74234   0.810  31.703  23.179  0.1272 -0.4081 -0.2150
31244W        W74235  25.570  33.750   1.387  0.0561  0.3930 -0.1050
31245W        W74236   6.232   2.864  24.888  0.0122  0.0389  0.0264
31246W        W74237  12.594   9.860   3.390 -0.0258  0.0511  0.1229
31247W        W74238   0.829  22.739  14.954 -0.2059  0.0938  0.1592
31248W        W74239  31.873  18.582  18.541 -0.0758 -0.0519  0.1668
31249W        W74240  27.252   2.746  16.797  0.0969 -0.0822 -0.0956
31250W        W74241  33.698  14.421   7.868  0.0304 -0.2539  0.1935
31251W        W74242  25.222  29.143  16.505  0.1078  0.0416 -0.2932
31252W        W74243   3.285  13.175   6.675  0.1735  0.0298  0.2600
31253W        W74244  31.493   3.198  28.587 -0.1027 -0.1471  0.0855
31254W        W74245   3.833  22.827  16.878 -0.1405 -0.1286  0.2759
31255W        W74246  21.862  10.695  18.088 -0.2342  0.1704 -0.3480
31256W        W74247   1.888  14.338  21.468  0.1353  0.1940  0.0786
31257W        W74248  27.037   4.661  29.007  0.1194  0.0388  0.0798
31258W        W74249   0.512   3.548  16.508  0.1594 -0.0744  0.0684
31259W        W74250   3.220  30.853  22.876  0.0157  0.0786  0.0827
31260W        W74251   4.578   1.655   2.963  0.2091  0.0921  0.0820
31261W        W74252  11.450   4.731  18.401  0.1285 -0.1754 -0.2627
31262W        W74253  31.061   9.202  19.377  0.1665  0.0450  0.1077
31263W        W74254  21.092  28.141  13.392  0.0200  0.0443 -0.0306
31264W        W74255  22.889   1.990   3.116 -0.1415  0.2026  0.0659
31265W        W74256  33.126  14.202  25.083  0.0371 -0.0317  0.2307
31266W        W74257  29.816  21.378  14.756 -0.2113 -0.0465 -0.1066
31267W        W74258  24.897   8.725  26.868 -0.1053 -0.0575 -0.0529
31268W        W74259  27.833  29.737  24.171  0.0687 -0.1859  0.0125
31269W        W74260  34.374  29.624  18.922 -0.0041 -0.0091 -0.1006
31270W        W74261   5.461   6.844   8.861  0.2306  0.2781  0.1427
31271W        W74262  29.876   6.239  15.805 -0.2372  0.0759 -0.2731
31272W        W74263   3.903  11.888  10.954 -0.0394 -0.0505  0.1630
31273W        W74264  10.368  32.177  25.373  0.3518 -0.1850 -0.0317
31274W        W74265  28.965  27.147  13.514  0.1767 -0.3474 -0.0252
31275W        W74266  27.011   8.704  20.707 -0.0723  0.2854 -0.1131
31276W        W74267  17.111  13.375  20.433 -0.1843 -0.3364 -0.0091
31277W        W74268   0.922   1.244   9.886 -0.0939  0.0175  0.1705
31278W        W74269  34.008  14.015   1.688  0.0873  0.2294 -0.1499
31279W        W74270  24.442  12.059  14.500 -0.2750  0.1755  0.0378
31280W        W74271   9.212  14.949  17.112  0.2010 -0.0252 -0.2843
31281W        W74272  27.683  20.401  22.286 -0.1566  0.5352  0.0268
31282W        W74273   6.567   5.910  28.252  0.0169 -0.0799  0.0196
31283W        W74274   4.366  15.761  28.905  0.1016 -0.1279 -0.3234
31284W        W74275  27.269  29.632  25.146  0.1881  0.1087 -0.3372
31285W        W74276   5.752  31.621  19.753 -0.2090 -0.1083 -0.0324
31286W        W74277  23.087   8.530   4.120  0.1337  0.0013 -0.2877
31287W        W74278  13.482  24.603  15.176 -0.2104  0.2269 -0.0738
31288W        W74279   9.902   1.922  18.142  0.3800  0.2824  0.0352
31289W        W74280  32.183  32.439  28.356 -0.0565  0.0676  0.0895
31290W        W74281  23.423  33.162   0.077  0.1189  0.1388 -0.1031
31291W        W74282   5.505  23.804  27.534 -0.1175 -0.0908  0.0127
31292W        W74283  10.167  34.439  16.597 -0.5429  0.1443 -0.0566
31293W        W74284   2.214   4.131  27.396 -0.0152 -0.5512  0.1093
31294W        W74285  18.707   0.798  25.569  0.0498 -0.2680  0.0334
31295W        W74286  31.006   2.952   7.180 -0.2647 -0.1322 -0.0820
31296W        W74287  26.016   2.396  18.003 -0.0530 -0.3833  0.1532
31297W        W74288   3.335  30.923  14.811 -0.0345 -0.2261 -0.1311
31298W        W74289  17.424   2.827   9.418  0.2034  0.1709 -0.2801
31299W        W74290  10.538  29.216  19.839  0.1705  0.0266  0.2351
31300W        W74291  33.450   1.694   1.355  0.0387 -0.1497 -0.2327
31301W        W74292  12.136  20.769  22.165  0.3513  0.0929  0.1216
31302W        W74293  28.019   7.650   7.106 -0.0709  0.0640  0.3213
31303W        W74294  27.380  27.442   6.704 -0.0853  0.1754 -0.0056
31304W        W74295  23.479  30.154  20.879  0.3573 -0.1221  0.0661
31305W        W74296   2.541   0.222  25.058 -0.3037  0.1559 -0.2213
31306W        W74297  23.347   8.741  19.180 -0.1175  0.1512 -0.2156
31307W        W74298  30.003  11.785  22.001 -0.3655  0.2513  0.0879
31308W        W74299  29.932   6.509   5.275 -0.0040 -0.0144 -0.1079
31309W        W74300  33.231   4.825   5.098  0.1708  0.2753  0.1850
31310W        W74301  26.020  14.142  18.562  0.1170  0.0167  0.3128
31311W        W74302   4.276  31.298  20.486  0.0042  0.0461 -0.1810
31312W        W74303  24.504  12.370  14.840  0.1255  0.0111  0.3930
31313W        W74304  27.071   8.745  17.714 -0.0420  0.1334  0.2683
31314W        W74305   6.692  34.756  14.979 -0.2647  0.1562  0.3132
31315W        W74306   0.257  21.358  16.131  0.0201 -0.1583 -0.2901
31316W        W74307  33.678   1.362  17.299  0.4046 -0.1582 -0.0181
31317W        W74308  19.796  32.311  26.870 -0.0657 -0.0953  0.1546
31318W        W74309  29.729  14.523  19.477 -0.1522  0.2000 -0.1196
31319W        W74310  14.092  31.521  23.007  0.2369  0.0018 -0.0121
31320W        W74311  26.639   3.710  26.322  0.1683 -0.1017  0.0387
31321W        W74312  23.541   2.014  24.445  0.0756 -0.0544 -0.0232
31322W        W74313  27.595  18.947  16.035  0.2047  0.3264 -0.0668
31323W        W74314  25.410  29.379   7.190  0.1315  0.1885  0.3586
31324W        W74315   8.421  17.448  24.668  0.0425 -0.0465  0.0146
31325W        W74316   0.714  32.316  27.127  0.1086 -0.4944 -0.2908
31326W        W74317  28.623  31.182  29.252 -0.0663  0.2013 -0.1030
31327W        W74318   6.192   2.854  16.353 -0.0469 -0.2787  0.0620
31328W        W74319   4.305  16.534  20.190 -0.1052 -0.0824 -0.2278
31329W        W74320  22.973  33.096  25.022  0.1772  0.3886 -0.2657
31330W        W74321  13.790  30.594  23.328 -0.1166  0.0427  0.1668
31331W        W74322   3.179   5.122  17.112 -0.2295  0.4046 -0.0458
31332W        W74323  31.585   6.201  15.191  0.0286 -0.0602 -0.0543
31333W        W74324  18.347   1.422  15.956 -0.1427 -0.0331  0.2300
31334W        W74325  21.588  33.283  19.061 -0.1496  0.5149 -0.0116
31335W        W74326  33.079   8.117  19.898 -0.1786 -0.0593 -0.0463
31336W        W74327  20.329   3.524  14.076  0.1623  0.2365  0.2140
31337W        W74328   9.080  11.037  27.811 -0.1318  0.0803 -0.0781
31338W        W74329  13.852  30.642  20.475  0.0638 -0.0097  0.0778
31339W        W74330   0.699  25.672  16.350 -0.0360 -0.1161  0.2240
31340W        W74331  17.985  32.911   2.588  0.0772 -0.0437  0.0133
31341W        W74332  32.447  26.268  18.564  0.1172 -0.0142 -0.0118
31342W        W74333  20.676   7.347   1.266 -0.1528  0.0542 -0.1895
31343W        W74334  23.676   8.640   5.592 -0.0907 -0.0207 -0.0461
31344W        W74335   2.965  16.205  23.086  0.0401  0.0180  0.2126
31345W        W74336  32.606  21.526   2.717  0.1744  0.0750  0.1950
31346W        W74337  34.496  29.221   7.907 -0.1696 -0.1400 -0.0951
31347W        W74338   4.518  22.465  28.818  0.1022  0.1429 -0.0357
31348W        W74339   7.869  32.658  26.829 -0.0824  0.1165 -0.0914
31349W        W74340  20.631  23.491  27.149  0.0381  0.1124 -0.0803
31350W        W74341  10.857   5.847   7.007 -0.1457 -0.1027 -0.2126
31351W        W74342  27.276  27.557  17.982 -0.1860 -0.0323 -0.0206
31352W        W74343   6.015   5.275  21.730  0.2751 -0.1508  0.1002
31353W        W74344   6.804  24.847   2.700 -0.0305 -0.1834 -0.0891
31354W        W74345   2.458  10.475  16.603 -0.0880  0.0513  0.2993
31355W        W74346  20.528  32.116   0.377  0.1374 -0.1401  0.0844
31356W        W74347  29.480  10.186  24.129 -0.0629  0.0954  0.2359
31357W        W74348  29.536   3.205  27.361  0.0694  0.1190 -0.2248
31358W        W74349  21.317  33.069  19.389 -0.2627  0.3564 -0.2164
31359W        W74350  16.883   6.954  20.149 -0.2682 -0.1753  0.3415
31360W        W74351   2.522  24.441  18.217 -0.2870 -0.0992  0.0797
31361W        W74352   2.105   3.538  21.653 -0.2597 -0.0245  0.0195
31362W        W74353  22.543  22.811  26.849 -0.1318  0.0936 -0.0328
31363W        W74354  16.815  32.884  21.448  0.1136  0.1355  0.0530
31364W        W74355  25.486  31.792  15.271  0.1481 -0.0683  0.0439
31365W        W74356  30.242   4.703  16.005 -0.2158 -0.0055  0.2910
31366W        W74357  19.897  12.484  25.420  0.0028 -0.0676 -0.0748
31367W        W74358   9.173   1.564   5.897 -0.4260 -0.1456  0.0022
31368W        W74359  18.251   5.037  24.754 -0.0674  0.1275 -0.0088
31369W        W74360  20.577   0.526  22.849  0.0484 -0.1029  0.0369
31370W        W74361  27.061   0.446  22.740 -0.1282  0.2826 -0.2481
31371W        W74362  29.741   1.771  15.225  0.2391 -0.1705  0.0660
31372W        W74363  27.599  28.122  17.828 -0.2568  0.0452  0.1005
31373W        W74364  33.476  23.474   4.078 -0.0701 -0.1930 -0.2615
31374W        W74365  13.885   9.339  18.664  0.0551  0.2114 -0.0732
31375W        W74366  28.939  12.917  21.819 -0.2170 -0.0374  0.3534
31376W        W74367  27.463  16.439  14.283 -0.0957  0.1261 -0.1144
31377W        W74368  19.169  25.489  29.030  0.3833  0.0126 -0.1391
31378W        W74369   5.752  33.707  28.433  0.1394 -0.1485  0.1453
31379W        W74370  30.158   9.359   0.826  0.0470  0.3201  0.3836
31380W        W74371  30.595   6.393  14.149  0.1482  0.1899  0.0569
31381W        W74372  34.533  23.823  25.124 -0.0856 -0.0137  0.0737
31382W        W74373   3.663  26.302   2.217 -0.0787 -0.0252 -0.1349
31383W        W74374  29.302  13.214   1.184  0.2918  0.0439  0.0151
31384W        W74375   0.285  34.536  23.545  0.1521  0.1350  0.1960
31385W        W74376  25.755  34.258  22.939 -0.0422  0.0767  0.1232
31386W        W74377  33.789  30.536   2.885 -0.1215 -0.2585 -0.2046
31387W        W74378  32.971  10.182   0.385  0.1134 -0.0023 -0.1691
31388W        W74379   4.738  25.072  14.574 -0.1688 -0.0315  0.1380
31389W        W74380  17.247  33.378   2.637  0.1688  0.0117  0.0619
31390W        W74381  16.279  13.341  21.605 -0.1727 -0.0513 -0.2601
31391W        W74382  23.107  31.915  15.089 -0.1423 -0.0813 -0.3660
31392W        W74383  19.444  11.187   3.108  0.3699 -0.4117 -0.2226
31393W        W74384  32.185  28.384  17.920 -0.0258  0.2689  0.0351
31394W        W74385  33.478   3.871   2.126  0.2903  0.3075  0.1301
31395W        W74386  10.550   1.732  28.094  0.2046 -0.0842 -0.3518
31396W        W74387  27.055   4.401  13.573  0.2188 -0.0489  0.2014
31397W        W74388  28.942  33.124  23.165  0.0407  0.0932  0.2378
31398W        W74389  22.251  22.304  19.262  0.0409  0.0962  0.0535
31399W        W74390  22.380  31.655  24.068  0.0093 -0.0766 -0.0001
31400W        W74391   1.992   8.797   2.433 -0.0857 -0.1443  0.2099
31401W        W74392  17.043  23.225  21.893 -0.3068  0.0063 -0.2687
31402W        W74393  30.972  26.647   6.512 -0.2736  0.0775 -0.1503
31403W        W74394  24.771   5.480  25.204  0.2427 -0.2494  0.1245
31404W        W74395   5.312  31.922  17.848  0.3488  0.3905  0.0372
31405W        W74396  28.523  19.991  23.474 -0.0136 -0.1331 -0.1301
31406W        W74397  26.336  10.162  16.324 -0.2512  0.0860 -0.0398
31407W        W74398   0.830  24.784  20.342  0.0197 -0.0866  0.2097
31408W        W74399  32.006   5.678   9.355  0.3681 -0.0505 -0.0880
31409W        W74400  20.314  29.082   6.847  0.1961 -0.0560  0.1782
31410W        W74401  34.483  10.051  28.478 -0.1131 -0.0868  0.1018
31411W        W74402  33.251   3.694   3.812 -0.1453  0.2252 -0.1848
31412W        W74403  24.374  11.111  20.337 -0.2749  0.1638  0.0466
31413W        W74404  26.202   0.842  19.738  0.2439  0.3245  0.2252
31414W        W74405  30.205  30.604   6.666  0.0827 -0.3404  0.5083
31415W        W74406  31.696   3.307   7.939 -0.4800  0.2074 -0.0359
31416W        W74407   1.567  34.583   7.678 -0.2515 -0.2257 -0.2673
31417W        W74408  33.790  12.957  17.571  0.2567 -0.0508  0.2162
31418W        W74409   9.231  24.897  15.870  0.1348 -0.2039 -0.1324
31419W        W74410  23.239  21.382  21.735  0.0008 -0.0951  0.0191
31420W        W74411  29.974  28.667  28.078 -0.1233 -0.1665  0.4145
31421W        W74412   4.922   0.710  14.506  0.0482 -0.1036  0.2179
31422W        W74413   4.478   1.874  22.300 -0.1382  0.0302 -0.2126
31423W        W74414  10.726  25.936  19.634 -0.0998  0.2326  0.1888
31424W        W74415   2.065  32.411   0.520 -0.2596 -0.2897 -0.0263
31425W        W74416  19.310  26.217  25.047  0.1477 -0.0158 -0.1517
31426W        W74417   4.406  22.136   6.522 -0.0988 -0.0867 -0.2045
31427W        W74418  27.267   3.618  25.034  0.2820  0.1188  0.0197
31428W        W74419  17.856  25.522  24.660 -0.0505  0.1120 -0.2860
31429W        W74420  31.581   6.705  16.793 -0.0229  0.3397  0.0043
31430W        W74421   4.445  30.387  27.687 -0.1602  0.0699  0.3437
31431W        W74422   1.168  29.708   2.276 -0.3084  0.1064  0.0001
31432W        W74423  24.362   8.871  21.986 -0.1043  0.0897 -0.0413
31433W        W74424   2.389  23.465   2.031 -0.2061  0.0244 -0.2290
31434W        W74425  24.024   3.207  18.654  0.0447 -0.0030  0.2556
31435W        W74426  14.838   0.897  24.428 -0.0503  0.4027  0.3261
31436W        W74427  17.585  26.012  15.728  0.3387 -0.1679  0.0809
31437W        W74428  33.977   1.789   2.862  0.0645  0.0254 -0.0464
31438W        W74429  27.805  10.014  23.473  0.0837  0.3396 -0.1708
31439W        W74430  28.659  31.507   3.867 -0.3160 -0.1929  0.1244
31440W        W74431  25.494   0.527   1.385 -0.1936  0.0211 -0.2764
31441W        W74432  30.838  33.770  27.223 -0.1450  0.0065  0.2971
31442W        W74433  28.110   7.761   3.557  0.2532 -0.1102  0.0795
31443W        W74434  14.883  20.536  27.425 -0.2548  0.1701 -0.1412
31444W        W74435  24.568  30.868  24.531  0.1281 -0.2976  0.0040
31445W        W74436  27.841  30.164  25.922  0.2195 -0.1413 -0.0673
31446W        W74437   2.520  31.227  20.258 -0.2168  0.0942 -0.0917
31447W        W74438   3.849  27.947  25.860 -0.0237  0.1483  0.4027
31448W        W74439  23.912  11.833   8.338 -0.0349 -0.2238  0.0562
31449W        W74440  30.796  30.950  24.847  0.0203 -0.2157 -0.1341
31450W        W74441  33.548  31.557   9.975 -0.0752 -0.4613  0.0655
31451W        W74442   0.047  15.044  24.264 -0.3042  0.1569  0.0511
31452W        W74443  26.584  32.582  28.591 -0.4307 -0.2868  0.0880
31453W        W74444  19.774  28.887   2.755  0.0885  0.0934 -0.0152
31454W        W74445  32.667  11.419  24.185 -0.1206  0.3484  0.0409
31455W        W74446  21.799  29.858   8.773  0.2375  0.0913 -0.1237
31456W        W74447  11.470   8.699  22.881 -0.3132 -0.0506 -0.1335
31457W        W74448  19.256   3.612   8.504 -0.3016  0.1837  0.1263
31458W        W74449  26.912  17.516  23.901 -0.1969  0.4789  0.0133
31459W        W74450  23.192  11.901  26.165  0.2225  0.0839  0.0217
31460W        W74451  30.005  24.376   5.582 -0.0406 -0.1124 -0.0894
31461W        W74452  23.597   6.993   1.077  0.1228 -0.4310  0.4403
31462W        W74453  30.364  30.058   0.931 -0.1777 -0.0457 -0.0518
31463W        W74454  22.015  31.385   3.220 -0.2471 -0.2209  0.0611
31464W        W74455  31.099   5.687  28.194 -0.0018 -0.2543  0.1677
31465W        W74456  20.172  13.582   0.029 -0.1567 -0.0664 -0.2542
31466W        W74457  31.153  33.788   9.153 -0.3622 -0.1937  0.2020
31467W        W74458   1.903   5.491  23.393  0.2936 -0.0058  0.0914
31468W        W74459  25.641   5.506  18.895 -0.1579 -0.1583 -0.1756
31469W        W74460   5.115   3.365  23.419 -0.3018  0.0357 -0.0088
31470W        W74461  10.750  20.522  26.997 -0.3370 -0.0153  0.2504
31471W        W74462  31.642   7.183  26.804  0.2052 -0.1688 -0.2752
31472W        W74463   1.206   7.841  23.878 -0.1645 -0.0418  0.0994
31473W        W74464   1.369  29.752  20.307  0.1652 -0.0968  0.1318
31474W        W74465  18.686   3.161  26.503 -0.0275  0.0640 -0.2370
31475W        W74466  26.566   7.964  14.427 -0.0519 -0.2907 -0.0992
31476W        W74467  14.189   4.542  23.028 -0.0114 -0.0133  0.1180
31477W        W74468  32.498  11.484   4.140  0.5897  0.0330 -0.1008
31478W        W74469   3.009  12.791   3.655 -0.1237 -0.0194 -0.0483
31479W        W74470  12.702   8.919   7.861  0.2201 -0.1708  0.0493
31480W        W74471  31.033   3.500   9.306  0.3267 -0.2339 -0.0108
31481W        W74472   6.875   0.606  24.679  0.0666 -0.1777  0.0171
31482W        W74473  10.575   7.479  27.214 -0.1090  0.1672  0.2232
31483W        W74474  32.752  31.228   6.449 -0.0200 -0.2446 -0.0107
31484W        W74475  22.572  32.518  26.464  0.1052 -0.0343 -0.0040
31485W        W74476   9.116  10.543   9.656 -0.4414 -0.0397 -0.0599
31486W        W74477   4.549   7.503  22.471 -0.3296  0.0697 -0.0852
31487W        W74478  26.351  31.562   6.529  0.3433 -0.0345 -0.1110
31488W        W74479   2.745   3.844  11.194  0.1697 -0.1321  0.0013
31489W        W74480  29.244  22.998  23.867  0.3032  0.0138 -0.0693
31490W        W74481   9.796   1.179  28.017 -0.1238 -0.0959  0.2754
31491W        W74482  31.158   4.907  24.736  0.1355  0.1395  0.0450
31492W        W74483   3.051  19.049  23.359  0.2016 -0.1393  0.0182
31493W        W74484   2.937   3.968  25.141 -0.0288 -0.0089 -0.1575
31494W        W74485   8.103  15.093   3.727  0.0478 -0.4190 -0.0803
31495W        W74486  22.842  12.812   6.284  0.1862 -0.0691  0.0539
31496W        W74487  16.265   8.991   5.566 -0.2233 -0.2168 -0.2464
31497W        W74488  31.791   6.971  23.459 -0.3489 -0.3957 -0.2115
31498W        W74489   3.310  11.704   9.589 -0.3247 -0.0697 -0.0055
31499W        W74490   0.727  34.073   0.783  0.2319 -0.1653  0.1222
31500W        W74491   8.253   6.781   1.179 -0.0977  0.0453  0.1379
31501W        W74492  19.344  25.731   7.525 -0.0858  0.2838 -0.2980
31502W        W74493  34.122   4.888   1.482  0.1976  0.2241 -0.0178
31503W        W74494   2.035   3.474   6.796 -0.0626 -0.3533 -0.1342
31504W        W74495   5.400   4.656  25.909  0.0114  0.1023  0.0759
31505W        W74496  21.557   0.401  24.943 -0.1516  0.1119  0.2181
31506W        W74497  26.380  33.022  15.533 -0.0032  0.0247 -0.0534
31507W        W74498  28.582   4.327  16.950 -0.2478  0.0224  0.1056
31508W        W74499   7.221  17.667  26.959 -0.1751  0.4603 -0.1860
31509W        W74500  11.589  27.882   8.631  0.0785 -0.5496 -0.1071
31510W        W74501   4.791  17.995  10.730  0.2723 -0.2293  0.1029
31511W        W74502  31.085  24.840  28.982 -0.0028  0.1383 -0.0313
31512W        W74503   6.849   4.312  28.140  0.1022 -0.2633 -0.1384
31513W        W74504  28.310   2.319   1.762  0.0987 -0.0587 -0.0727
31514W        W74505  28.412  10.214  21.058 -0.0116 -0.0333 -0.2074
31515W        W74506  13.868   4.518   3.366 -0.2336  0.1557  0.0321
31516W        W74507  30.844   2.924   8.604 -0.0902  0.2388  0.1800
31517W        W74508  24.521   9.881   7.260  0.2288 -0.0735  0.0162
31518W        W74509   6.656   0.908  21.017  0.0002  0.0268  0.3722
31519W        W74510   4.516   9.762   5.217  0.2845 -0.0094  0.1551
31520W        W74511  21.678  26.463   8.607 -0.1504 -0.0590 -0.0045
31521W        W74512  20.326   3.407   2.573  0.2829 -0.1919 -0.4769
31522W        W74513   5.643  10.485  20.948 -0.2733 -0.3926 -0.2118
31523W        W74514   0.447  11.797  22.797 -0.3549  0.1743 -0.1774
31524W        W74515  22.815  13.359  25.242 -0.1692 -0.3601  0.0999
31525W        W74516   4.540   7.246  17.571  0.1152 -0.2000 -0.3560
31526W        W74517  31.932   3.924  15.418  0.0965 -0.2439 -0.0942
31527W        W74518   0.380  12.724  15.546 -0.0987 -0.2241 -0.1807
31528W        W74519   5.653  32.255  27.203 -0.1532 -0.0873  0.2550
31529W        W74520  16.869  25.408  29.061 -0.1702 -0.2169  0.3533
31530W        W74521  16.622  26.814  25.581 -0.2741 -0.1828 -0.1442
31531W        W74522   1.098  30.838   0.184  0.5499 -0.3401 -0.0686
31532W        W74523  26.088  34.247   2.687 -0.3085 -0.0816  0.0967
31533W        W74524   3.099   3.323   2.583 -0.4284 -0.1077 -0.1003
31534W        W74525   1.309   5.539  19.201  0.1608  0.2003 -0.1754
31535W        W74526  31.701  33.395  22.504 -0.0413 -0.5102  0.0793
31536W        W74527  33.716  22.391  25.847 -0.1138 -0.1495  0.1441
31537W        W74528   2.126   0.647  24.399 -0.2070 -0.0579  0.0938
31538W        W74529  25.694  16.864  24.321 -0.1799  0.2251  0.1463
31539W        W74530  34.267   5.450  22.220 -0.5654 -0.0387  0.3580
31540W        W74531  32.600  17.204   2.682  0.1099  0.2724 -0.0741
31541W        W74532   1.353   1.418  24.782 -0.0671 -0.2537  0.0569
31542W        W74533  24.593  33.015   1.840  0.1369  0.4409 -0.2138
31543W        W74534  32.469   9.019  23.253 -0.0171 -0.3941 -0.0877
31544W        W74535  14.101  25.117  27.460 -0.2261 -0.2941 -0.5447
31545W        W74536  25.079  24.807  19.904  0.3521 -0.1454 -0.2456
31546W        W74537  28.769   5.771   5.462  0.1531 -0.1891 -0.3060
31547W        W74538  10.328  29.942   1.407 -0.2190 -0.2059  0.3527
31548W        W74539  27.416   7.100  28.189  0.1104  0.1587 -0.4978
31549W        W74540  22.065  32.749  25.446 -0.1469  0.0529 -0.3464
31550W        W74541  25.995  14.554  19.636 -0.1519  0.3430 -0.0601
31551W        W74542  25.561   0.513  28.214 -0.1083  0.0851  0.1534
31552W        W74543  27.091  12.267  25.284 -0.0367  0.1247  0.1629
31553W        W74544  27.931   8.770  23.977 -0.1034  0.1601 -0.1486
31554W        W74545  19.850  26.374   5.402  0.0958 -0.1491  0.0288
31555W        W74546  30.824  12.044  18.876 -0.3260  0.2007 -0.1921
31556W        W74547  31.597   7.473  19.964 -0.0774 -0.4178 -0.2382
31557W        W74548   4.562  11.392   2.505  0.2999 -0.0406 -0.0837
31558W        W74549   5.397   1.468  24.546  0.2211  0.3692  0.1355
31559W        W74550  31.719   2.040  17.480 -0.1876 -0.0832 -0.1414
31560W        W74551  31.591  10.375   9.971 -0.2691 -0.0180 -0.1390
31561W        W74552  32.918  20.697  16.366 -0.0419  0.0112 -0.2148
31562W        W74553  26.577  29.608   5.713  0.0501 -0.0401  0.0039
31563W        W74554  26.247   6.629   8.711 -0.0823 -0.4630  0.1313
31564W        W74555  31.310  21.435  20.013  0.1846  0.0965  0.2041
31565W        W74556   0.242   5.901  26.956 -0.4010 -0.1220 -0.0963
31566W        W74557  16.063  32.216  24.042 -0.1749 -0.2401  0.2421
31567W        W74558  25.114  31.833  20.686 -0.2868 -0.0752 -0.1622
31568W        W74559  30.961  28.271   6.362 -0.0622  0.0057 -0.1187
31569W        W74560  32.913   4.581  24.857  0.2111  0.1970 -0.1368
31570W        W74561  26.552   9.953  28.286 -0.2494 -0.2569 -0.2718
31571W        W74562  19.626  17.937  12.811  0.3177  0.0536 -0.2266
31572W        W74563  34.743  11.348  26.041  0.2763 -0.1296  0.0656
31573W        W74564  24.095   4.087  25.377 -0.1394 -0.0041 -0.0281
31574W        W74565  25.953   3.099  17.279 -0.1910 -0.0264 -0.0289
31575W        W74566   0.788  21.429  25.287 -0.0146 -0.0932  0.3393
31576W        W74567  28.700  11.323  26.554  0.1433 -0.2233 -0.2165
31577W        W74568  27.548  32.829   4.182 -0.2156  0.3720  0.0132
31578W        W74569  25.251  34.576   1.353 -0.1817  0.1595  0.2271
31579W        W74570  19.267   7.302  22.157 -0.3405  0.2254  0.0829
31580W        W74571  32.557   6.664  15.790 -0.2409 -0.2081  0.0028
31581W        W74572  23.230   5.346  13.153 -0.3457 -0.0740  0.1453
31582W        W74573   8.091   0.261   3.089 -0.1062  0.2830 -0.0082
31583W        W74574  21.005  25.754   8.422  0.1645  0.4243  0.1800
31584W        W74575   2.715  34.525   7.342 -0.0943 -0.5018  0.0680
31585W        W74576  18.058  24.289  18.066  0.1753  0.4243  0.2445
31586W        W74577  31.292   9.488   2.584 -0.0189 -0.1825 -0.0717
31587W        W74578  29.407  10.412  18.338 -0.2219  0.1898  0.0644
31588W        W74579  34.175   4.306  22.700 -0.0583  0.0545  0.2203
31589W        W74580  10.725  31.053   7.117  0.2436 -0.0379  0.3039
31590W        W74581  23.753  27.628   0.471 -0.1141  0.2436 -0.0559
31591W        W74582  22.591   3.526  16.630 -0.0623 -0.2848  0.1540
31592W        W74583   9.173  29.268  25.049 -0.0089 -0.4038 -0.2309
31593W        W74584   6.203  23.132   4.238  0.0132  0.1778  0.1265
31594W        W74585  18.301   5.207   6.312  0.1763 -0.0509 -0.2095
31595W        W74586  32.474   6.761  20.435 -0.1384 -0.0355 -0.3750
31596W        W74587   0.438   6.207  25.188 -0.2319  0.0617  0.0928
31597W        W74588  29.585  29.529  29.079  0.4173  0.0834 -0.2664
31598W        W74589  33.760   7.699   6.312  0.0288 -0.1967 -0.1718
31599W        W74590  31.899   7.636  24.386  0.1367 -0.1034  0.0532
31600W        W74591  20.675  10.142   0.204  0.3565 -0.0969  0.1939
31601W        W74592  17.909   9.029   6.751  0.3701  0.1833 -0.3058
31602W        W74593   6.581   8.758  14.517 -0.0513  0.2870 -0.0562
31603W        W74594   1.164  12.915  26.159 -0.3554  0.3777  0.1176
31604W        W74595  28.104  25.952   2.579  0.1621  0.0016  0.2935
31605W        W74596  26.162  28.056   0.176  0.0311 -0.1166  0.0325
31606W        W74597  27.132  12.075  15.640  0.1334 -0.3454 -0.0210
31607W        W74598   2.302  16.046   4.467  0.1159  0.1382 -0.1678
31608W        W74599   1.750  12.639   6.176  0.1413  0.2337  0.0293
31609W        W74600   0.494  32.332   9.954 -0.1050 -0.1970  0.0126
31610W        W74601  33.145  23.323  23.047 -0.0465  0.0034 -0.0719
31611W        W74602  33.009  25.738   2.689 -0.1445 -0.5217 -0.0664
31612W        W74603   3.209   1.525  24.533  0.4629  0.1187  0.2597
31613W        W74604  28.014   7.617  23.957  0.0603  0.1799  0.0862
31614W        W74605  33.570   9.034   5.150  0.1135  0.1223  0.0000
31615W        W74606  16.471  32.204  21.070 -0.0332  0.2527 -0.0126
31616W        W74607  30.663   1.943  26.829 -0.0020 -0.4895 -0.0082
31617W        W74608   7.630  23.751  26.670  0.0295  0.0218  0.1789
31618W        W74609   7.621   8.669  22.874  0.1417  0.0876 -0.1617
31619W        W74610  18.271   5.496  19.317 -0.2812 -0.3440 -0.0254
31620W        W74611  24.962   9.658   0.771 -0.0394 -0.1751  0.0040
31621W        W74612   4.775  15.228   3.701 -0.0766  0.2619  0.1155
31622W        W74613  17.437  22.181  26.012  0.0450  0.0053 -0.0456
31623W        W74614   7.616  15.234  23.390  0.0463 -0.0858 -0.0099
31624W        W74615  17.421  28.573  21.934  0.2008 -0.1017 -0.4889
31625W        W74616   4.313   0.689  22.242  0.1620  0.1019 -0.2131
31626W        W74617   0.167  20.552  15.066  0.3855  0.2630 -0.5041
31627W        W74618  19.449  31.998  15.328 -0.1674 -0.0176 -0.4939
31628W        W74619  34.042   4.988   4.594 -0.0914  0.2030 -0.0062
31629W        W74620   5.596  33.126  26.801  0.0407 -0.0123  0.0612
31630W        W74621  22.244  10.062   0.132 -0.1938 -0.3393  0.0085
31631W        W74622  14.020  11.249   2.315 -0.2512  0.0953  0.1464
31632W        W74623  29.351  31.936  24.911  0.0630 -0.2160  0.2594
31633W        W74624   2.423  13.720  26.532  0.2739 -0.1574  0.1256
31634W        W74625  32.200  32.398  15.265 -0.0699 -0.0668 -0.1382
31635W        W74626  20.057  27.337   6.185  0.1080  0.1794 -0.0107
31636W        W74627   1.415   1.473  19.004  0.0797  0.0890  0.0182
31637W        W74628   6.766   9.875   2.254  0.0547 -0.0686 -0.2482
31638W        W74629  32.232  34.521  25.498 -0.1612 -0.0460  0.2510
31639W        W74630  31.746  24.299   8.212 -0.2551  0.1458  0.0731
31640W        W74631  15.292   0.857  14.926 -0.0124 -0.1548  0.0114
31641W        W74632  34.755  33.136  16.880  0.0608 -0.0280 -0.0163
31642W        W74633   7.632  23.959  18.005 -0.0555  0.1097  0.1734
31643W        W74634  32.240   1.367  21.298  0.1460  0.1028 -0.0367
31644W        W74635  30.749  34.266   1.566  0.1571  0.0522 -0.3581
31645W        W74636  34.673  19.411  16.696  0.4663  0.0131  0.0987
31646W        W74637   3.972   3.554  24.205 -0.2414 -0.0549 -0.2194
31647W        W74638  19.955  27.278  21.563 -0.3617  0.2711 -0.2950
31648W        W74639  27.572   0.413  25.182 -0.0306 -0.3397 -0.0335
31649W        W74640  33.250  34.654   6.404 -0.1635  0.2648  0.0976
31650W        W74641  21.593  16.870  15.321 -0.1668  0.2243  0.0358
31651W        W74642  25.449   7.374  22.854 -0.0929 -0.0641 -0.1174
31652W        W74643  26.361  25.827  29.124  0.2070  0.0607  0.0778
31653W        W74644  25.767   0.703  24.146 -0.1524 -0.0454 -0.3007
31654W        W74645  23.163  14.336  25.087 -0.0996 -0.0662  0.0879
31655W        W74646   4.762   9.244  18.931 -0.0246  0.0329  0.3215
31656W        W74647  34.438  19.953   4.225 -0.1629 -0.0215  0.1962
31657W        W74648  33.882  23.892   1.786 -0.1208  0.0748  0.1881
31658W        W74649  26.737  31.259   6.242  0.1151  0.1301  0.0573
31659W        W74650   5.429  32.116  27.627  0.2023  0.2143 -0.2306
31660W        W74651  22.303   3.569   8.232 -0.0232  0.1082  0.0096
31661W        W74652  31.375  31.622  20.549  0.2723 -0.0081  0.2241
31662W        W74653  33.648   5.511  23.431  0.0770 -0.1944 -0.0194
31663W        W74654  29.613  32.919  21.585 -0.0838 -0.2061 -0.1881
31664W        W74655  10.349  13.825  19.183  0.1252  0.0939  0.0871
31665W        W74656  32.592   1.985   0.906 -0.0925 -0.0007  0.0081
31666W        W74657  21.968  26.681  16.491  0.0888  0.2140  0.4937
31667W        W74658   4.514  32.084   4.936  0.2180 -0.3026 -0.0454
31668W        W74659  34.366  25.037  26.038 -0.1551 -0.0489 -0.1906
31669W        W74660   8.932   1.437  17.806  0.1949  0.4735  0.1184
31670W        W74661  23.708  23.979  23.472  0.1079 -0.2304  0.0576
31671W        W74662  28.166  27.944   7.840 -0.1754 -0.0914  0.0195
31672W        W74663   4.398   0.241  24.090 -0.1147 -0.1693  0.1913
31673W        W74664   8.948   4.994   7.351 -0.5119  0.0611  0.0932
31674W        W74665  19.932  13.011  18.959  0.0714  0.0362 -0.0202
31675W        W74666   9.687  12.195  28.339 -0.1151  0.1567 -0.3046
31676W        W74667  16.757   8.885   0.179 -0.1319  0.1535  0.0414
31677W        W74668   0.668  30.561  27.948 -0.1317 -0.0164 -0.0545
31678W        W74669  26.741   0.295  19.756  0.0011 -0.4792  0.0446
31679W        W74670  30.449  31.122  14.915  0.1051 -0.0823 -0.0730
31680W        W74671  29.634  30.835   1.258  0.0203 -0.1794 -0.2612
31681W        W74672  27.545   7.940  22.906 -0.3147  0.1069  0.1429
31682W        W74673  23.747   2.600   4.807 -0.3197  0.1403  0.0380
31683W        W74674   8.879  28.095  20.060 -0.1827  0.1656  0.1765
31684W        W74675   3.321  23.889   9.939 -0.1417  0.2289  0.1425
31685W        W74676  24.938   1.449  20.857 -0.2607  0.2552  0.0523
31686W        W74677  25.507  12.127  26.178 -0.2163  0.2837  0.0565
31687W        W74678  27.249  23.731  21.789 -0.1083 -0.1150  0.1434
31688W        W74679  21.385  11.539   4.649 -0.2172  0.0536 -0.2230
31689W        W74680  26.386  14.726   4.692  0.3394 -0.0269  0.0940
31690W        W74681  24.462   7.608  22.823 -0.1194 -0.1357 -0.1852
31691W        W74682   0.788  15.887  28.887 -0.2164  0.0931 -0.1105
31692W        W74683  23.853  10.848  14.350  0.1135 -0.1369 -0.2195
31693W        W74684  21.942  20.945  23.697 -0.3820 -0.0088  0.1481
31694W        W74685  26.851  13.229  23.572  0.2297 -0.1382 -0.2457
31695W        W74686  29.911   0.851  22.799  0.0171  0.2313  0.0264
31696W        W74687  24.479  29.891  26.469  0.0310  0.1130 -0.2294
31697W        W74688  22.441   9.821  17.922  0.3203 -0.3591 -0.2068
31698W        W74689  32.831  10.220  25.560  0.0210 -0.1387 -0.3062
31699W        W74690  24.264   1.829  21.384 -0.1583  0.1791 -0.1483
31700W        W74691   0.397   6.598   3.666 -0.0288 -0.3139  0.0386
31701W        W74692  23.886  17.362  20.065 -0.1632 -0.0206 -0.1160
31702W        W74693  18.879  18.892  23.137 -0.2384 -0.1721  0.0227
31703W        W74694  19.219   3.408  24.936 -0.1338  0.2474  0.0208
31704W        W74695  21.761  31.178  17.400  0.1791  0.1604  0.0226
31705W        W74696  12.175   0.182  21.279  0.2030  0.0522  0.0866
31706W        W74697   5.222   8.386  16.264  0.3608 -0.2798  0.1169
31707W        W74698  10.114   5.861  24.746  0.0252  0.1740  0.2291
31708W        W74699  31.349  33.541   6.892  0.0324  0.3235  0.3236
31709W        W74700  21.626   3.714  24.158  0.4337  0.0294  0.0690
31710W        W74701   0.308   3.722  22.187 -0.2012  0.0547 -0.4798
31711W        W74702  30.139  24.566   2.959 -0.3395  0.2259  0.0905
31712W        W74703   6.265   0.075  25.082 -0.1028 -0.0573  0.2018
31713W        W74704   4.170  27.514  27.415 -0.2094  0.3627  0.5597
31714W        W74705  31.058  11.477   1.636  0.2958 -0.0301 -0.0592
31715W        W74706  33.805  29.666  20.718  0.1715 -0.2594  0.1831
31716W        W74707  17.814   9.034   1.367 -0.0420 -0.0690 -0.0248
31717W        W74708  25.826  32.531  29.037 -0.0566  0.2555  0.2728
31718W        W74709  15.835   1.491   7.201 -0.2972  0.2436  0.0496
31719W        W74710  27.914  32.499   2.808  0.0776  0.0513  0.1114
31720W        W74711  15.440  24.628   0.351 -0.0415 -0.0242 -0.0796
31721W        W74712  23.021  20.448  20.068 -0.0491 -0.0739  0.0771
31722W        W74713   2.804   7.473   3.173  0.1474 -0.3897 -0.0089
31723W        W74714  18.616  31.261  21.805  0.2138 -0.0181  0.0231
31724W        W74715  31.641   5.924  21.932 -0.0226 -0.0407 -0.1570
31725W        W74716  34.247  29.572  20.235  0.1840 -0.4462  0.3377
31726W        W74717   4.817  29.870  17.014 -0.2864  0.2926 -0.0326
31727W        W74718  23.717  28.923   9.759 -0.0613  0.0825 -0.1112
31728W        W74719  20.466  26.863  27.179  0.0209 -0.0855 -0.0053
31729W        W74720  26.116  18.571  17.668 -0.0249  0.0561 -0.3021
31730W        W74721   4.042  12.150  24.704  0.0528 -0.0616 -0.0281
31731W        W74722  25.137  28.822  13.445 -0.3456  0.0479  0.0126
31732W        W74723  11.137  30.503  20.274 -0.2519 -0.0505 -0.0092
31733W        W74724  29.005  14.621  22.902 -0.2192  0.2794 -0.0504
31734W        W74725  25.012   8.531   8.359 -0.0194 -0.0465 -0.1504
31735W        W74726   2.950   9.021  15.841  0.0045  0.0562 -0.0915
31736W        W74727   9.088  27.692   0.205 -0.0733  0.0253 -0.1287
31737W        W74728  30.084  17.282  23.360  0.0876 -0.1055 -0.3263
31738W        W74729  15.830  32.125   3.344 -0.0349 -0.2230 -0.3773
31739W        W74730   5.965   8.375  14.742 -0.0054 -0.0015 -0.0141
31740W        W74731  14.087  16.848   7.674  0.0600  0.0968  0.0598
31741W        W74732  28.353   4.124  10.898 -0.1927  0.1959  0.0936
31742W        W74733  28.659   3.716   8.043 -0.0343 -0.0544 -0.2758
31743W        W74734   1.950  11.226   2.680 -0.2129  0.0592 -0.0174
31744W        W74735  33.291   5.444  16.290 -0.1642  0.0542  0.0756
31745W        W74736  29.603   5.926   0.111 -0.2670  0.0970 -0.0623
31746W        W74737  27.484  10.449   0.256  0.0858  0.0754 -0.0054
31747W        W74738  32.125  30.391   7.386 -0.0591 -0.1826 -0.2079
31748W        W74739   9.475   2.605   5.474 -0.1011 -0.2865 -0.1646
31749W        W74740   9.820   4.446  27.087 -0.0161 -0.2054  0.1539
31750W        W74741   1.533  25.808  15.829  0.1398  0.2739  0.0287
31751W        W74742  27.889  21.134  26.255  0.0522  0.0744  0.0931
31752W        W74743  27.236   4.141  23.014  0.0249  0.1113  0.1147
31753W        W74744   7.396  32.727  26.730 -0.0468  0.0305 -0.1231
31754W        W74745   6.579  31.046  17.070 -0.1530 -0.0113  0.1767
31755W        W74746  12.662   5.204  27.997  0.0294 -0.0808 -0.1901
31756W        W74747  11.373   6.502  29.002 -0.4609  0.0535  0.4599
31757W        W74748  19.717   0.328  24.647  0.1348 -0.0664  0.3283
31758W        W74749  33.908   1.541  14.018  0.0893 -0.0690  0.0097
31759W        W74750  21.718  14.362  27.336 -0.1554  0.2557 -0.1754
31760W        W74751  34.298   4.108   1.758  0.0544 -0.0455  0.0071
31761W        W74752  30.793   8.022  26.431  0.0330 -0.1539  0.0953
31762W        W74753  30.591  27.525   7.517 -0.1619  0.4122 -0.0302
31763W        W74754   4.187  26.854   1.804 -0.0229  0.0822 -0.1815
31764W        W74755  10.705  16.282   7.945 -0.1104  0.2243 -0.1665
31765W        W74756  16.614   2.854  18.262 -0.1588  0.1031 -0.1766
31766W        W74757  17.693   3.483  10.183 -0.0438  0.1030 -0.0110
31767W        W74758   4.964  30.004   0.985 -0.0046 -0.3246  0.0571
31768W        W74759  10.441   4.314  19.468 -0.1237 -0.0523  0.2020
31769W        W74760   3.226   1.568  28.576  0.1242 -0.0580 -0.1718
31770W        W74761  31.161  33.543   3.703 -0.1005  0.0362 -0.0643
31771W        W74762   0.844   0.719   4.943  0.1362 -0.1841 -0.2372
31772W        W74763   9.932   9.713   7.159 -0.0477  0.1125  0.0316
31773W        W74764  22.844  34.752   5.971  0.0585 -0.2744  0.0465
31774W        W74765  19.714  30.727  23.366 -0.0978 -0.0022 -0.0729
31775W        W74766  28.332  22.908  23.411 -0.2169  0.0498 -0.2852
31776W        W74767  14.884   0.146   6.667 -0.1396  0.1540  0.3854
31777W        W74768  29.718  26.794   8.722  0.1561 -0.0119  0.3827
31778W        W74769  27.782  26.657  26.446  0.0178 -0.0425  0.0820
31779W        W74770  26.115   6.190  17.331  0.2484  0.1513  0.1009
31780W        W74771  12.121  10.814  15.844 -0.3475  0.2810  0.1714
31781W        W74772  20.369  32.466  25.632  0.3962  0.0747  0.2194
31782W        W74773  19.485  19.650   2.718 -0.1761 -0.2881  0.3112
31783W        W74774  30.409  13.988  25.443  0.3534  0.1007  0.0966
31784W        W74775  30.822  24.327   5.128 -0.0651 -0.1956  0.1331
31785W        W74776  22.427   2.531   1.196  0.1265 -0.0246 -0.2734
31786W        W74777   4.201   2.373   1.691  0.1742  0.1961  0.1281
31787W        W74778  16.668   2.615   7.920  0.1138  0.1711 -0.0232
31788W        W74779   8.663  13.024   2.200  0.2612 -0.2397  0.0152
31789W        W74780   9.394  33.066   0.723 -0.0880 -0.0382 -0.0238
31790W        W74781   0.050   8.320  26.110  0.1446 -0.0333  0.1949
31791W        W74782   9.178  28.267   9.845 -0.1093  0.0571 -0.2713
31792W        W74783  20.197   8.364   2.321  0.0683 -0.0172 -0.0142
31793W        W74784   2.595   8.230   1.089 -0.0091  0.0504  0.0533
31794W        W74785  24.274   6.684   9.041 -0.0423 -0.1018  0.3665
31795W        W74786   5.232  10.716   2.768  0.0666 -0.1978 -0.4380
31796W        W74787  20.295   5.183   2.904  0.0152 -0.0449  0.0107
31797W        W74788  16.691  15.592  13.399  0.0670  0.0696 -0.0687
31798W        W74789  32.814   5.383  28.762 -0.2231 -0.1657 -0.0575
31799W        W74790  34.602  34.603   6.596 -0.0987 -0.3327  0.1133
31800W        W74791   6.646   8.325   4.459  0.2886 -0.1676 -0.3775
31801W        W74792   2.747  34.149   9.896  0.1752  0.1495  0.0363
31802W        W74793   8.380  26.590   2.821  0.2373 -0.3356  0.1781
31803W        W74794  17.485   9.541  28.311  0.0769  0.4829  0.0609
31804W        W74795   0.905  15.286  17.799  0.2192  0.0385  0.0552
31805W        W74796  31.884  25.129  19.871 -0.1946 -0.2687 -0.1521
31806W        W74797   8.611   4.495   4.153 -0.1584  0.0391  0.2335
31807W        W74798  21.408   8.858  18.242 -0.0485  0.2581 -0.1351
31808W        W74799  29.089  25.825   1.269  0.1745  0.1303 -0.0907
31809W        W74800   6.217   8.197  17.788  0.0697  0.1643 -0.0279
31810W        W74801  24.415   6.254  20.647  0.0017 -0.2503 -0.0599
31811W        W74802  29.513  34.332   8.819  0.1110 -0.1184 -0.1369
31812W        W74803   4.700  27.976   2.490  0.2528 -0.1136  0.2084
31813W        W74804   2.789   5.556  24.386  0.1739  0.2134  0.1336
31814W        W74805  19.990  29.822  22.688  0.1307  0.2684  0.2459
31815W        W74806   8.253  14.805  17.521  0.4664 -0.4230 -0.0634
31816W        W74807  26.329   5.778  17.080 -0.0516 -0.1173 -0.3761
31817W        W74808  34.659  21.724  23.398 -0.1575  0.1423  0.1651
31818W        W74809  13.541   2.718  27.117  0.2583 -0.1454  0.4494
31819W        W74810  24.417  31.147   1.284  0.1653  0.0600 -0.1694
31820W        W74811  11.125   4.208   6.095  0.4329  0.0087  0.0621
31821W        W74812  20.955   6.136  17.581 -0.1605 -0.0219  0.0715
31822W        W74813   4.653   5.552   2.017  0.0223  0.0071  0.3089
31823W        W74814  19.974  24.498  22.860  0.1703  0.0519 -0.4041
31824W        W74815  28.541   6.789  23.768 -0.3563  0.0072  0.2198
31825W        W74816  24.262  21.542   2.502  0.0277  0.2121  0.0577
31826W        W74817  27.016   4.405  24.796  0.2065 -0.0689  0.0674
31827W        W74818  25.167  32.654  27.217  0.1335 -0.0075  0.0918
31828W        W74819  22.737   6.707   7.130  0.0982  0.2288 -0.4673
31829W        W74820  29.828   9.197  13.946  0.1010  0.0337  0.3806
31830W        W74821  33.620  16.936  19.271 -0.1135 -0.3682  0.0583
31831W        W74822  23.624   3.293  22.330  0.3289 -0.0156 -0.0381
31832W        W74823   9.012  32.013   6.969 -0.1331 -0.1376  0.1385
31833W        W74824  10.599   9.361  19.596 -0.2993 -0.1951  0.1328
31834W        W74825   5.709  33.236  14.479  0.0955 -0.0047 -0.0774
31835W        W74826  20.713   1.945  22.572 -0.0141  0.4809  0.1613
31836W        W74827  34.009  17.621  26.335 -0.0571 -0.2205  0.0191
31837W        W74828  13.526  23.744  25.902  0.2468 -0.0820  0.1005
31838W        W74829  28.910   2.380  22.835 -0.3258 -0.0581  0.4005
31839W        W74830  33.310   7.319  10.500  0.3836 -0.2575 -0.3768
31840W        W74831   2.737   6.941  29.102 -0.2168 -0.1164  0.1412
31841W        W74832   9.189  30.677   1.262  0.1763  0.0080 -0.1980
31842W        W74833  18.583   2.786  22.550 -0.1369  0.2654  0.2832
31843W        W74834   6.188   3.961  25.300 -0.0382  0.0911  0.1610
31844W        W74835  19.271  10.403   2.187 -0.2113  0.1226 -0.0702
31845W        W74836   2.172  30.719   2.315 -0.1010 -0.0175  0.0270
31846W        W74837  33.132  34.020   2.601 -0.2881 -0.0790 -0.1167
31847W        W74838  28.757   9.842  17.614 -0.1854 -0.1263 -0.1367
31848W        W74839  31.723  11.082  23.126  0.2608  0.2005  0.1092
31849W        W74840   1.473   9.985  27.886 -0.0437 -0.0697  0.3365
31850W        W74841  24.560  32.262   2.263  0.1894 -0.1040  0.0302
31851W        W74842  19.152  28.445   3.183 -0.0290 -0.1898 -0.1039
31852W        W74843  26.206  27.793  21.675  0.0063 -0.0021  0.0271
31853W        W74844  32.247   9.561  20.262 -0.0386 -0.2049  0.2550
31854W        W74845   7.175   4.209   4.541  0.1135 -0.2317 -0.0065
31855W        W74846  32.850   3.706  10.459  0.1410  0.2386  0.0723
31856W        W74847   8.641  26.188   2.879  0.0323 -0.2263  0.2688
31857W        W74848   1.448   2.945  24.681  0.2762 -0.0821 -0.2698
31858W        W74849  29.340  12.855   2.129 -0.0025  0.2142 -0.1522
31859W        W74850  20.828  15.999  17.503  0.1848 -0.2126 -0.0181
31860W        W74851  25.358  33.600   2.279 -0.0756 -0.1117 -0.0112
31861W        W74852   8.231  11.051  11.141  0.0915 -0.0201 -0.1208
31862W        W74853  21.041   4.896   7.313  0.2461 -0.2507  0.0738
31863W        W74854   3.684  19.015   6.996 -0.1034 -0.1197 -0.0428
31864W        W74855  11.555  14.956  26.156 -0.1148 -0.3063 -0.0196
31865W        W74856  17.390  26.829   6.418 -0.1686  0.1234 -0.1147
31866W        W74857   1.820  34.748  24.519 -0.0421  0.1924 -0.4006
31867W        W74858   3.412   2.380  28.677  0.2302 -0.2303  0.0649
31868W        W74859   1.475   7.561   9.697  0.3484  0.2082  0.0223
31869W        W74860   0.624  14.241  25.170 -0.0309  0.2319 -0.1574
31870W        W74861  34.486  33.489   7.572 -0.2033  0.0283 -0.1165
31871W        W74862  23.693  14.429   9.208 -0.0990  0.1532 -0.0677
31872W        W74863   6.076   5.561   0.728  0.2971  0.0201 -0.0000
31873W        W74864  27.422   5.218  18.928 -0.0732  0.1111 -0.1097
31874W        W74865   0.163   9.353  24.198  0.0642 -0.0851 -0.2673
31875W        W74866   1.639  10.774   0.182 -0.2136  0.0101  0.0528
31876W        W74867  23.371  31.093  27.926 -0.0384  0.3244  0.1863
31877W        W74868  30.876  13.145  17.540 -0.1085  0.0116  0.0555
31878W        W74869  32.210  26.232  27.344  0.1602  0.1044  0.0468
31879W        W74870  25.549  11.072  28.493  0.4768  0.1811 -0.1546
31880W        W74871   2.651  18.890  23.069 -0.1937  0.0555 -0.2527
31881W        W74872   7.442   9.781  26.614 -0.3801 -0.1761 -0.3020
31882W        W74873  33.581  12.201   9.072 -0.0347  0.0350  0.1557
31883W        W74874  13.033  34.260  28.365 -0.1036  0.0628 -0.1893
31884W        W74875  18.949  27.271   1.538 -0.1187  0.2007  0.1969
31885W        W74876   1.147  31.793   1.204  0.1620 -0.0595 -0.2070
31886W        W74877  11.470   8.716   3.336 -0.0190  0.4435 -0.1723
31887W        W74878  22.169  13.494  26.451  0.1890  0.0883  0.0993
31888W        W74879   8.675  32.041   7.725  0.2222 -0.1914  0.0634
31889W        W74880   0.023  30.115  19.356  0.0559 -0.0274  0.0535
31890W        W74881  29.148   1.128  22.160  0.0865  0.1138 -0.2140
31891W        W74882  29.130  29.652   6.455  0.0305 -0.2603 -0.0858
31892W        W74883  24.302   7.339  17.065  0.1473 -0.0590 -0.1211
31893W        W74884   2.226  30.524  22.514 -0.5982  0.2838 -0.1461
31894W        W74885  14.249   8.724  26.969 -0.0353  0.1721 -0.0147
31895W        W74886  20.193   1.496  17.532 -0.0808  0.2372 -0.1177
31896W        W74887  31.113   5.088  16.318  0.0414 -0.0057  0.1247
31897W        W74888  33.112  22.967  24.908 -0.0019  0.2032 -0.1481
31898W        W74889   0.695   9.654   6.414 -0.1180  0.0826  0.2677
31899W        W74890  30.704   7.632  17.063  0.4357  0.0205  0.2367
31900W        W74891  19.297  22.019  18.154 -0.0426 -0.1201 -0.1285
31901W        W74892  24.455   6.894  14.782 -0.2377 -0.5603 -0.1045
31902W        W74893  28.720   9.319  17.723  0.0559  0.1873 -0.0995
31903W        W74894   7.805  23.329  24.133 -0.0211 -0.0581  0.0137
31904W        W74895  26.203  26.997  13.354 -0.0467 -0.0826  0.0035
31905W        W74896  22.909  29.209  23.843 -0.2598 -0.1522  0.1303
31906W        W74897   6.094  18.422   2.116 -0.0899  0.1240  0.0178
31907W        W74898  24.371   6.038  26.072 -0.1124 -0.2694 -0.0080
31908W        W74899  22.719  12.845  21.351  0.0597  0.2312 -0.1035
31909W        W74900  11.183  25.252  17.729 -0.0996  0.0450  0.2304
31910W        W74901  11.811   7.194   4.753 -0.2067 -0.1774  0.1074
31911W        W74902  26.703  12.236  19.611 -0.1094 -0.0257  0.0915
31912W        W74903  28.190   4.696  25.080 -0.1754 -0.1228 -0.0678
31913W        W74904  21.133   7.911  19.098 -0.3492  0.2537  0.2765
31914W        W74905  19.483   3.772  15.755  0.0025 -0.2039 -0.3382
31915W        W74906   0.494  14.190  16.754  0.2149 -0.2411 -0.3029
31916W        W74907  13.775   2.158  17.090 -0.0272 -0.0636 -0.2007
31917W        W74908  27.234  13.645  23.893  0.2009  0.1242  0.3158
31918W        W74909  29.022   8.424  21.285  0.0218  0.0760 -0.0508
31919W        W74910  29.842  34.237   8.294  0.0353  0.0147 -0.0527
31920W        W74911  16.360   3.764  18.059  0.1405 -0.0623  0.0225
31921W        W74912  25.528  30.094   8.637 -0.0143 -0.2962 -0.0582
31922W        W74913   0.264   6.710   9.823  0.0892  0.0918  0.1647
31923W        W74914   4.710   2.761  27.117 -0.1860 -0.2251 -0.2001
31924W        W74915   3.283   9.579  21.729 -0.2817  0.1096 -0.0194
31925W        W74916   2.083  14.376  22.902 -0.2978  0.1056  0.3714
31926W        W74917   8.583   2.324   0.180 -0.1562 -0.2069 -0.0214
31927W        W74918  18.693   2.854  14.967 -0.0603  0.3792  0.0685
31928W        W74919  30.651   7.424  24.913  0.1018 -0.0504  0.0295
31929W        W74920  24.485   4.851  12.911  0.0184  0.0458  0.1249
31930W        W74921  26.786   8.372  29.103  0.0871 -0.1864 -0.1093
31931W        W74922  19.965  32.957  21.173 -0.2542 -0.2164  0.3176
31932W        W74923  24.362  32.205  24.667  0.0275  0.1423  0.0115
31933W        W74924  24.168  25.631  24.914  0.0924  0.1923 -0.2540
31934W        W74925  18.062  25.128  15.650  0.1211 -0.1764  0.1060
31935W        W74926  15.073  13.338  15.481 -0.1721 -0.2047 -0.1894
31936W        W74927  15.913   1.172  16.581  0.1707  0.1270  0.1328
31937W        W74928  32.703  32.908  18.689 -0.6858  0.1013  0.0348
31938W        W74929  21.819  28.578  26.177 -0.0985 -0.0696  0.1864
31939W        W74930  19.666   4.198  25.318  0.0007  0.1345  0.0873
31940W        W74931  26.490   1.171  15.363  0.0746  0.2089 -0.0906
31941W        W74932  10.188  12.255  27.694 -0.0998 -0.1545 -0.1411
31942W        W74933  28.009  21.419  18.678  0.0408 -0.2405 -0.1859
31943W        W74934   9.863   5.552  21.440 -0.1742 -0.0493  0.0990
31944W        W74935  28.623  34.153  12.922  0.0933  0.0705 -0.0173
31945W        W74936  25.637   8.469  17.877 -0.0643  0.3742  0.4673
31946W        W74937  28.733  13.180  14.544  0.1130 -0.2662 -0.1663
31947W        W74938   9.544  32.958  18.947  0.4216 -0.0227 -0.0035
31948W        W74939  13.498   0.153  20.360  0.0944 -0.0724  0.1033
31949W        W74940  33.622  11.188  23.449 -0.1040  0.3048  0.0057
31950W        W74941  26.156  28.996  15.573  0.0754 -0.1173  0.0806
31951W        W74942  11.200   0.033  19.031 -0.0790 -0.1900  0.0490
31952W        W74943   8.008   1.669  25.992  0.0385 -0.1292  0.0174
31953W        W74944  22.652   2.083  22.517  0.5655  0.2068 -0.3318
31954W        W74945  31.786  33.634  20.871  0.0112  0.0053 -0.2402
31955W        W74946   8.895   1.348  26.361 -0.1160  0.0542  0.3213
31956W        W74947  10.599   9.537  26.616  0.1020 -0.0577 -0.1206
31957W        W74948  22.214  34.789  29.194 -0.1874  0.0904  0.1963
31958W        W74949   0.823   7.568  27.644 -0.0695  0.1052  0.0250
31959W        W74950  22.413   8.103  21.636  0.2372  0.0109  0.1505
31960W        W74951   3.782   7.351  17.139  0.2168 -0.2023 -0.0677
31961W        W74952  13.755  19.051  15.723  0.0997  0.1369  0.0082
31962W        W74953  29.214  13.255  15.820 -0.0989 -0.4172 -0.1921
31963W        W74954  21.717   7.236  17.514 -0.4080 -0.0727 -0.0807
31964W        W74955   3.507   0.890  19.283  0.1459 -0.0728 -0.0438
31965W        W74956  34.412  31.808  16.283  0.2356 -0.1291 -0.0013
31966W        W74957  27.724   8.583  14.125  0.3800 -0.0158 -0.2599
31967W        W74958  19.154  14.534  16.489 -0.0516 -0.0508  0.0624
31968W        W74959  31.324   0.803  22.792  0.0608  0.1822 -0.1658
31969W        W74960   7.617  24.113  16.211  0.2635  0.1176  0.1296
31970W        W74961  31.004  25.398  18.582  0.3400 -0.2210 -0.1003
31971W        W74962   6.663   8.547  17.800  0.1231 -0.1555  0.1454
31972W        W74963  23.202   5.589  14.481 -0.2112  0.1114  0.1493
31973W        W74964  17.075  29.387  18.366  0.1125 -0.2864 -0.0013
31974W        W74965  27.746  25.055  19.558  0.0709 -0.1104  0.1304
31975W        W74966   1.729   8.105  22.627  0.0220  0.0005  0.0717
31976W        W74967  31.203  12.342  27.079 -0.4020 -0.0283 -0.0523
31977W        W74968  25.286   3.494  13.360 -0.1448  0.1120  0.0581
31978W        W74969  26.349  25.200  17.402  0.1434 -0.0162 -0.0081
31979W        W74970   8.714  32.766  26.117  0.2084 -0.1506  0.1489
31980W        W74971  22.830   1.017  15.479  0.1740 -0.1031  0.0861
31981W        W74972  26.504   2.099  22.513 -0.1561 -0.1206  0.2642
31982W        W74973  22.701   0.845  16.460  0.1630  0.3156  0.0427
31983W        W74974  30.491   2.500  15.157  0.3655  0.1392  0.0008
31984W        W74975   9.297  32.809  22.339 -0.2387  0.0541 -0.5285
31985W        W74976  12.932   9.786  21.886  0.1011 -0.1764  0.5481
31986W        W74977  31.195  11.450  21.143  0.3168 -0.2692 -0.2797
31987W        W74978  12.763  11.038  15.795 -0.1249 -0.1149  0.0392
31988W        W74979  22.020   3.490  26.955 -0.2036 -0.0831 -0.0472
31989W        W74980  34.569   4.087  21.939 -0.1444 -0.2595 -0.0668
31990W        W74981  20.938   7.783  18.378  0.2859  0.0119 -0.1176
31991W        W74982  18.677  28.849  13.190 -0.2342 -0.2050 -0.2435
31992W        W74983  21.676   6.870  22.564  0.0193 -0.1216 -0.0543
31993W        W74984  34.264  16.698  17.757  0.1367  0.1860 -0.0636
31994W        W74985  14.792  19.073  25.278 -0.2511  0.5222 -0.1836
31995W        W74986  10.960  26.480  24.021  0.0189 -0.0985 -0.1299
31996W        W74987   3.962  31.599   0.244 -0.0588 -0.1411  0.0886
31997W        W74988  17.537  30.554   0.361 -0.0283 -0.1953 -0.4207
31998W        W74989  20.506  30.766  20.239 -0.0114 -0.2333  0.1109
31999W        W74990  32.570   7.594  22.919 -0.1801 -0.1940  0.0191
32000W        W74991  11.304   8.151  26.996 -0.0716  0.3040  0.1451
32001W        W74992  22.558  12.260  20.198  0.1332 -0.0055 -0.2516
32002W        W74993   6.694  28.875  21.635 -0.1076 -0.2826 -0.0444
32003W        W74994  25.505  12.723  19.358 -0.0456 -0.1672 -0.0984
32004W        W74995   5.553  34.556  18.022  0.0495  0.1946 -0.0374
32005W        W74996   4.558  31.718  25.925 -0.2438 -0.1705 -0.2341
32006W        W74997  32.160  30.871   5.758  0.0166  0.0980  0.1319
32007W        W74998  25.641  11.400  18.195  0.0656 -0.1077  0.1466
32008W        W74999  28.785  13.601   0.065  0.0931  0.0976 -0.2819
32009W        W75000  27.179  12.015  20.051 -0.1666 -0.1166  0.0300
32010W        W75001  33.994   1.477  16.064 -0.0725 -0.0016  0.1322
32011W        W75002  30.518   4.261  16.942 -0.0337  0.1287 -0.2427
32012W        W75003  32.814   0.532  17.150 -0.0260 -0.1798 -0.1206
32013W        W75004  20.985  25.953  18.514 -0.1004  0.1281 -0.2192
32014W        W75005   2.977   8.061  19.129  0.0183  0.1537  0.2720
32015W        W75006  10.895  14.695  15.235  0.2702 -0.1095  0.0093
32016W        W75007  34.035  16.046  24.603 -0.2195  0.1438  0.1760
32017W        W75008  34.555   9.698  25.551 -0.0881  0.0187  0.1150
32018W        W75009   1.092  30.178  20.014  0.1728 -0.0256  0.1536
32019W        W75010  26.857  10.471  16.075 -0.2412 -0.0048 -0.1725
32020W        W75011  26.632   7.740  21.266  0.2285 -0.0426 -0.1128
32021W        W75012  20.500   5.505  19.320  0.2692 -0.2374 -0.1142
32022W        W75013  30.600  23.909  25.720 -0.1800  0.0500 -0.0315
32023W        W75014  13.319  32.226  26.320 -0.0046  0.3771  0.0028
32024W        W75015  22.629  17.595  15.937 -0.0170 -0.3698 -0.0666
32025W        W75016  24.397   5.562  16.201 -0.3147 -0.0559  0.2388
32026W        W75017  14.820  25.220  21.088  0.5183 -0.1338 -0.0807
32027W        W75018  31.339   7.830  18.458  0.1610 -0.1195  0.0492
32028W        W75019  24.661  33.267  15.452 -0.0438 -0.2011 -0.4696
32029W        W75020  31.406  10.947  24.052 -0.5643  0.1859 -0.0850
32030W        W75021  25.353   8.359  24.010  0.2449 -0.4223 -0.0211
32031W        W75022  24.461   8.138  23.580  0.1490 -0.2375 -0.0934
32032W        W75023   7.187  14.982  19.023  0.3187  0.0634  0.0631
32033W        W75024  13.660   1.931  22.940 -0.2329 -0.0223  0.0186
32034W        W75025  33.022  13.939  19.608 -0.1542 -0.0659 -0.1435
32035W        W75026  13.391  13.070  18.877 -0.4456  0.2864  0.0831
32036W        W75027  18.390  12.617  18.129  0.3733 -0.0397  0.1685
32037W        W75028   4.793   6.493  21.560 -0.0843  0.2652  0.2903
32038W        W75029  23.156   5.028   5.888 -0.0231  0.0502  0.0537
32039W        W75030  20.481  13.165  13.806  0.1203 -0.1914  0.1117
32040W        W75031  25.892   0.347  12.928 -0.4063  0.1369  0.1393
32041W        W75032  31.759  30.002  22.379 -0.2547  0.0436 -0.2469
32042W        W75033   0.933  29.976  16.610 -0.0437  0.0724 -0.0456
32043W        W75034  27.370   9.506  17.787 -0.3656 -0.3128  0.3508
32044W        W75035  30.237  19.827  16.141 -0.0641  0.0613 -0.0215
32045W        W75036  32.886   2.675  16.327 -0.3014  0.1641 -0.0602
32046W        W75037   6.838   6.019  20.207 -0.1096  0.1195 -0.0836
32047W        W75038  28.450   8.732  14.631  0.0343 -0.1357 -0.0488
32048W        W75039  11.090  10.231  27.951  0.0699  0.2954  0.0003
32049W        W75040  27.807  21.509  14.743  0.2952  0.1860 -0.1434
32050W        W75041  29.991  22.085  18.623 -0.0171 -0.0001 -0.0156
32051W        W75042   4.847  11.193   0.386 -0.0308  0.0880  0.0471
32052W        W75043  20.712  10.839  20.533  0.0569  0.0279 -0.3407
32053W        W75044  28.993   2.443  19.017  0.0961 -0.0065  0.0179
32054W        W75045  21.626  20.973  15.067 -0.0249  0.1238  0.0088
32055W        W75046   0.160   3.839  15.726  0.3368 -0.4602  0.0034
32056W        W75047   2.783  20.813  20.279 -0.3036 -0.2044  0.2100
32057W        W75048  32.164   5.513   7.504 -0.0890  0.2478  0.2758
32058W        W75049  29.832  19.301  14.634 -0.0661 -0.3730  0.1500
32059W        W75050   6.603   1.827  16.165  0.0316  0.1178  0.1415
32060W        W75051   5.574   2.600  25.888 -0.0306 -0.0576  0.1044
32061W        W75052   8.010  26.211  18.801 -0.4211 -0.3664  0.0949
32062W        W75053  30.950  13.675  20.302  0.1233  0.0404  0.1709
32063W        W75054  27.723  31.798  28.097 -0.0505 -0.0219 -0.0607
32064W        W75055  30.573   2.637  14.304  0.0362  0.3752  0.0117
32065W        W75056   7.508  26.491  25.782 -0.0669  0.0166 -0.2118
32066W        W75057  32.901  11.721   2.277 -0.0089  0.0867 -0.0984
32067W        W75058  32.285  32.425  18.979  0.2273  0.0646 -0.3026
32068W        W75059  20.960   8.329  14.241 -0.2214  0.0055  0.0779
32069W        W75060  25.041  11.746  24.650 -0.0937 -0.1972 -0.0715
32070W        W75061  22.950   8.972  19.452 -0.0200 -0.2354  0.2964
32071W        W75062  17.997  10.126  21.301 -0.2993 -0.1220 -0.1196
32072W        W75063  22.205  19.959  12.987  0.0923  0.4025 -0.1396
32073W        W75064   7.529  34.754  14.306 -0.1217  0.0031 -0.0325
32074W        W75065   8.801   1.777  17.217  0.3123  0.0871  0.1875
32075W        W75066  16.107   3.999  23.116  0.0788  0.0964 -0.2130
32076W        W75067  23.989   4.185  19.990  0.1506 -0.3022  0.3137
32077W        W75068  29.835  32.760  23.074 -0.0792  0.3528  0.4363
32078W        W75069  12.070   5.356  21.814 -0.2642  0.1673 -0.2076
32079W        W75070  30.155  29.098  19.345  0.0873 -0.2824  0.2821
32080W        W75071  29.075   0.277  13.547 -0.1452 -0.0704  0.1660
32081W        W75072  32.785   3.614  18.469 -0.2359 -0.2742 -0.1764
32082W        W75073  21.552  14.156  13.560  0.0853 -0.4252 -0.0149
32083W        W75074  31.741  25.131  14.592  0.0042 -0.0248  0.0682
32084W        W75075  18.832   8.277  28.154 -0.2344  0.1510  0.2788
32085W        W75076  23.214  34.045  27.438  0.2062  0.2249  0.0019
32086W        W75077  27.164  30.173  19.802 -0.2567 -0.0656  0.2027
32087W        W75078   1.039  22.030  14.002  0.1300 -0.0521 -0.2401
32088W        W75079  25.656   1.637  19.220 -0.1518  0.0495  0.1689
32089W        W75080   3.710  31.707  26.193 -0.2410  0.0160 -0.1883
32090W        W75081  31.828  21.863  21.855 -0.1598 -0.2384  0.0701
32091W        W75082  28.878  10.725  18.353  0.0465  0.0193 -0.0318
32092W        W75083  22.996   4.321   8.248  0.3068 -0.1038 -0.1178
32093W        W75084  33.864  23.427   4.445  0.3408  0.2740  0.0015
32094W        W75085  17.274  32.107  15.881  0.0714 -0.0674 -0.1774
32095W        W75086  28.163  33.637   2.288 -0.3200 -0.1339 -0.0219
32096W        W75087  31.904  14.948  21.921  0.1254 -0.0917 -0.0116
32097W        W75088  13.341  13.910  28.669  0.1219  0.0209 -0.1608
32098W        W75089   1.339   7.843  25.008  0.1175 -0.0624  0.1423
32099W        W75090  11.812   8.815  21.650 -0.0282 -0.1401 -0.1337
32100W        W75091   2.864   2.377  26.290 -0.0150 -0.0939  0.1096
32101W        W75092  25.437  16.586  21.489 -0.0393 -0.3401 -0.0381
32102W        W75093  23.128  11.541  22.970  0.4232 -0.0514 -0.0277
32103W        W75094   9.990  32.870   0.118  0.2788 -0.2379 -0.1754
32104W        W75095  29.901  18.627  14.725  0.1777 -0.0598 -0.0802
32105W        W75096  30.249   6.825  22.352 -0.1420 -0.2667  0.0094
32106W        W75097  30.218   0.217   4.444 -0.1986  0.0469  0.1594
32107W        W75098  34.659  27.808  24.614 -0.0832 -0.2733 -0.0026
32108W        W75099   1.204   5.608  16.099 -0.0041 -0.0631  0.2537
32109W        W75100   2.267  20.784  20.479 -0.0987  0.0291  0.1967
32110W        W75101  12.875  17.693  17.574 -0.2237 -0.1664 -0.0367
32111W        W75102  22.050   5.898  16.852  0.0321 -0.2486 -0.0296
32112W        W75103  31.499  18.612  19.477  0.1480 -0.1051  0.0950
32113W        W75104   0.295  13.520  19.069  0.0689  0.0768 -0.1376
32114W        W75105  29.238  31.965  21.634 -0.1272 -0.0567  0.1719
32115W        W75106  10.214  12.432  28.443 -0.2497  0.1686 -0.2314
32116W        W75107  20.646  15.210  16.319 -0.1296  0.0816  0.3334
32117W        W75108  29.633  15.176   9.878 -0.2227 -0.2471 -0.1045
32118W        W75109   5.037   5.454  20.180  0.0074  0.1590 -0.0976
32119W        W75110  31.827  14.297  18.154 -0.0349  0.1682  0.0040
32120W        W75111   5.007  24.252  20.692  0.1045  0.0896  0.0496
32121W        W75112  25.559   2.324  15.092  0.2224  0.1692  0.1627
32122W        W75113  28.748  28.816  13.214  0.1801  0.0690 -0.1500
32123W        W75114  32.998  15.360  21.180 -0.1497  0.2755 -0.1736
32124W        W75115  11.153   2.753  19.587  0.3484  0.1451 -0.5859
32125W        W75116  31.215   3.296  19.850 -0.0267 -0.0028  0.0703
32126W        W75117  28.323  14.156   8.733  0.0526 -0.0474 -0.1002
32127W        W75118  25.207  16.171  24.385  0.3430  0.0618  0.1573
32128W        W75119  23.941   9.490  23.716 -0.2389 -0.3015  0.0669
32129W        W75120   8.035   3.182  15.335 -0.2106 -0.0412 -0.0540
32130W        W75121  27.245  10.452  23.461  0.1475  0.0571 -0.1237
32131W        W75122  24.770   6.841  25.009 -0.1223  0.0724  0.0866
32132W        W75123  34.774  33.645  21.038  0.2635  0.3407 -0.1406
32133W        W75124  25.298  15.580  15.932 -0.0788 -0.2161  0.1250
32134W        W75125  27.345  13.075  22.681 -0.3179 -0.1186  0.0499
32135W        W75126  27.515  23.592  18.629  0.0893  0.1283  0.1864
32136W        W75127  25.527  34.317  21.477  0.0660 -0.1221 -0.0542
32137W        W75128  28.049   6.833  23.422  0.0544 -0.0732  0.1603
32138W        W75129  17.396   3.737  23.010  0.0923  0.0136  0.3666
32139W        W75130   4.119  10.450  20.008  0.0453 -0.1883 -0.0863
32140W        W75131   5.813  31.654  19.217 -0.1617  0.2168  0.1580
32141W        W75132   0.103   6.842  16.144 -0.0173  0.2510 -0.3256
32142W        W75133  33.833  26.830  13.748 -0.1369 -0.1019  0.1862
32143W        W75134  32.598   1.173  19.326  0.2741 -0.0641  0.0624
32144W        W75135   9.307  33.206  24.738 -0.1854 -0.2414 -0.3247
32145W        W75136  15.533   6.892   6.167 -0.0687 -0.0902 -0.0324
32146W        W75137  24.224  20.174  25.952  0.0845  0.2521  0.4392
32147W        W75138   8.986   3.254   9.495  0.1794  0.1773  0.2107
32148W        W75139   1.874   7.318   1.552 -0.0905  0.2444 -0.0078
32149W        W75140  24.030   3.264  13.552  0.0686  0.2113  0.0861
32150W        W75141  10.232   4.851  20.146  0.0789  0.0593  0.0790
32151W        W75142  11.664  19.928  19.050  0.1949 -0.3002 -0.1953
32152W        W75143   4.306  33.761  17.684 -0.3680 -0.2429 -0.5002
32153W        W75144   0.897  10.583   4.537  0.0677  0.3315  0.0584
32154W        W75145  26.412  32.991  13.874 -0.2831  0.1708 -0.0269
32155W        W75146  13.502   8.509  15.543  0.2063  0.0964  0.1357
32156W        W75147  30.667   1.676   5.382 -0.0117  0.2418 -0.0315
32157W        W75148  29.998  20.279  20.781  0.3253  0.3140  0.0058
32158W        W75149  32.726  14.309  22.710  0.0287  0.0610 -0.1332
32159W        W75150  27.242  29.947   2.524 -0.1560  0.3122 -0.0375
32160W        W75151   9.134  24.955   3.480 -0.2066 -0.0264 -0.0240
32161W        W75152   1.084  10.280   2.312  0.0614 -0.1919 -0.3334
32162W        W75153  29.617  11.277  16.965 -0.1196  0.0569  0.0852
32163W        W75154  23.626  25.148  21.106 -0.0801  0.4643 -0.0128
32164W        W75155  24.945  16.275  15.477 -0.1031  0.2498  0.0957
32165W        W75156  31.929   6.405  21.140 -0.2688 -0.3899  0.0983
32166W        W75157  12.552  29.157  19.515  0.0699  0.1119 -0.1580
32167W        W75158   5.668   1.246   9.440  0.1957 -0.2102  0.0418
32168W        W75159   2.944  18.638  18.650  0.0234  0.1619 -0.3053
32169W        W75160  28.934  12.280  15.907 -0.0731  0.1843  0.1617
32170W        W75161  18.970  31.105  17.266  0.0040 -0.0156 -0.2164
32171W        W75162   0.904   8.759  19.305  0.1191 -0.0882  0.0109
32172W        W75163  34.275  28.826   7.665  0.2747  0.4294  0.1368
32173W        W75164  10.129  33.793  23.349 -0.3138 -0.1877  0.3577
32174W        W75165  32.479   7.497  21.518  0.1842 -0.0024 -0.2474
32175W        W75166  22.913  34.183  13.387 -0.1432  0.0110 -0.0791
32176W        W75167  18.889  10.126  23.209 -0.2980  0.1139 -0.0925
32177W        W75168   2.925   3.733  18.715  0.0337  0.2133 -0.0825
32178W        W75169  24.975   5.895  28.430 -0.1713 -0.0252 -0.1586
32179W        W75170  25.193  31.931   0.889  0.1983 -0.0848  0.0152
32180W        W75171  24.321  11.921  17.594  0.1795 -0.1464  0.0154
32181W        W75172   5.405  10.819  19.035 -0.0426  0.0297  0.0310
32182W        W75173  25.709  34.415  14.401 -0.3408 -0.2248 -0.1179
32183W        W75174  27.967   9.019  24.417  0.1745  0.2219 -0.0661
32184W        W75175  15.270   1.424   8.729 -0.1589 -0.1604  0.1659
32185W        W75176  27.023  13.865  14.541  0.0908  0.0610  0.4488
32186W        W75177   0.858   1.190  19.649 -0.1007  0.0656 -0.1038
32187W        W75178  18.206  13.644  16.249  0.2702 -0.2754  0.1603
32188W        W75179  24.063  20.534  13.319  0.1187 -0.2242  0.0463
32189W        W75180  21.037  33.639   6.012 -0.0477 -0.1770  0.1494
32190W        W75181   2.307  21.882  21.571 -0.0880 -0.2112 -0.0973
32191W        W75182  26.515   1.219  20.701 -0.1261 -0.0895  0.1871
32192W        W75183  31.093   1.766  15.148 -0.1214  0.1785 -0.1078
32193W        W75184   1.400   7.522  19.138 -0.1146 -0.2243  0.0072
32194W        W75185  24.516   9.087  19.681  0.1215 -0.0806 -0.0314
32195W        W75186  34.510   7.978  25.405  0.2437 -0.0006  0.1060
32196W        W75187   3.301  19.261  27.051  0.1346 -0.0037  0.1306
32197W        W75188  24.710   9.215  14.264  0.2579  0.2339  0.0780
32198W        W75189  34.513  34.074   3.788  0.0273 -0.0973  0.0531
32199W        W75190  24.675   8.724  16.953 -0.2732  0.1259 -0.0057
32200W        W75191  15.245  34.738  16.426 -0.0302 -0.0205 -0.1563
32201W        W75192  33.902  11.679  27.302 -0.0967 -0.1139 -0.0078
32202W        W75193  28.124  30.048  23.138 -0.2584  0.2252 -0.0558
32203W        W75194  30.360   5.543   4.790  0.0734 -0.0185 -0.0178
32204W        W75195  28.442  11.124  15.947  0.0576 -0.2210  0.0400
32205W        W75196  27.897  10.305  20.774  0.2809  0.1841  0.0956
32206W        W75197   6.754   8.361  25.874  0.0582  0.1459 -0.0484
32207W        W75198   2.647  31.120  19.445  0.3224 -0.0044 -0.2161
32208W        W75199   6.171  20.193  23.691  0.2506 -0.1051  0.1096
32209W        W75200  27.961  32.607  21.252 -0.1423 -0.1141  0.0777
32210W        W75201  22.553  12.957  23.618  0.0778 -0.1801 -0.0820
32211W        W75202  31.066  13.289  27.690 -0.1970  0.5919 -0.1215
32212W        W75203  24.726   9.737  14.125 -0.1094 -0.2438 -0.0120
32213W        W75204   7.511   7.079  15.272  0.2631 -0.0353  0.0885
32214W        W75205   2.341  25.428  21.134  0.0324  0.1363 -0.1799
32215W        W75206  24.662   3.744  15.116  0.2166  0.1964 -0.0628
32216W        W75207  33.634   2.952   2.030 -0.0024  0.1545  0.3027
32217W        W75208  24.774   9.807   5.610  0.0321 -0.3027 -0.0386
32218W        W75209  26.358  18.451  23.761  0.0884  0.4184  0.1289
32219W        W75210  27.795  33.794  27.721 -0.0718  0.1260 -0.0613
32220W        W75211  27.136  29.237  19.667 -0.1117 -0.0212  0.1937
32221W        W75212   8.150   6.922  25.606  0.2620 -0.1902  0.2631
32222W        W75213  10.158  10.862   2.290  0.2422 -0.0095  0.1957
32223W        W75214  15.855  32.900  17.061  0.1153  0.3438  0.1224
32224W        W75215  32.910   3.685  22.139  0.2765 -0.0771 -0.0132
32225W        W75216  32.010  33.898  24.069  0.0335  0.0063 -0.1362
32226W        W75217   1.188   9.240  16.843  0.3509 -0.0809 -0.0110
32227W        W75218  24.571  12.638  14.423  0.1534 -0.2604 -0.0347
32228W        W75219   5.759  15.914  10.375 -0.2562 -0.0689 -0.0306
32229W        W75220   7.509   5.972   0.557  0.3168  0.0726  0.0969
32230W        W75221  14.542   6.895  16.993 -0.2335  0.0524  0.1452
32231W        W75222   5.198   5.596   2.442 -0.0613  0.0248  0.1369
32232W        W75223  33.603  25.383  16.250  0.2247  0.3304 -0.1089
32233W        W75224   1.109   4.769  18.756 -0.4399 -0.2559 -0.1245
32234W        W75225   2.968   1.286  23.782 -0.2835  0.1998 -0.0999
32235W        W75226  27.665  31.666  13.589 -0.4041 -0.2673 -0.0815
32236W        W75227  31.194   9.493  15.509  0.3030 -0.5387  0.0719
32237W        W75228   1.549  31.900  15.606  0.2441  0.4457 -0.4304
32238W        W75229  29.143  12.532  17.726  0.3073 -0.1083  0.2783
32239W        W75230  27.862  27.694  14.176 -0.1508 -0.3254  0.0314
32240W        W75231   4.368   3.227  24.232 -0.1848  0.2660 -0.0801
32241W        W75232   8.891  19.088  17.415 -0.2808 -0.2285 -0.3238
32242W        W75233  18.919  10.598  17.623 -0.0178 -0.2124  0.3943
32243W        W75234  32.871  13.454  27.720 -0.0140 -0.3630 -0.0352
32244W        W75235  17.568  10.164  18.321  0.1582  0.1369  0.0857
32245W        W75236   6.670   5.192  22.642 -0.1655  0.3372 -0.0623
32246W        W75237   2.077  14.655   6.445  0.1333 -0.0121 -0.0852
32247W        W75238  25.405  13.548  14.116 -0.0584 -0.1353 -0.2312
32248W        W75239  19.561   0.250  28.952 -0.2602 -0.0772  0.3932
32249W        W75240  34.723   9.861  15.078  0.2737 -0.0588  0.3523
32250W        W75241  24.999   2.855  19.772 -0.1147 -0.2088  0.1639
32251W        W75242   1.072  21.364  21.349  0.2381 -0.5210  0.0358
32252W        W75243  32.946  28.760  20.141 -0.0681 -0.3263 -0.1458
32253W        W75244  27.895   8.303  15.108 -0.1785  0.2113 -0.2015
32254W        W75245  20.422  12.269  18.319  0.1008 -0.0946  0.0571
32255W        W75246  20.309   2.305  15.865 -0.3018  0.0179 -0.1193
32256W        W75247  27.795  19.064  16.484  0.1042  0.0998  0.3419
32257W        W75248  24.284   8.153  17.607  0.2431  0.2234 -0.0093
32258W        W75249  21.754   3.920  28.110  0.0911 -0.3490  0.1705
32259W        W75250  18.569  21.695  15.976  0.2334  0.1939  0.1425
32260W        W75251   0.977   1.142  16.965  0.0699  0.1001  0.1496
32261W        W75252  17.472  13.799  12.730  0.2120 -0.0831 -0.1261
32262W        W75253  16.223   3.040  24.913 -0.1393  0.1413 -0.0900
32263W        W75254  23.761   3.686  22.654 -0.2014  0.2076  0.0099
32264W        W75255   1.253  14.806  25.726 -0.2293  0.1477  0.1450
32265W        W75256   6.946  33.387  14.184 -0.1272  0.0050 -0.1198
32266W        W75257  24.426  17.420  20.601  0.2181  0.1539  0.0816
32267W        W75258   0.086  32.736   5.879  0.1581 -0.1916  0.0852
32268W        W75259  34.517  19.345  18.107  0.2661 -0.1555  0.1086
32269W        W75260  14.506   0.825  17.567  0.2527 -0.0816  0.2176
32270W        W75261  28.093  19.257  22.406  0.2209 -0.2069  0.1466
32271W        W75262  10.447  32.881   1.907  0.0300  0.0544 -0.3032
32272W        W75263   3.257  31.055  24.760  0.1012  0.2117 -0.3890
32273W        W75264  23.299  15.373  14.370 -0.3373  0.1439 -0.1220
32274W        W75265   4.770   1.431  15.652  0.2878  0.1177  0.0817
32275W        W75266  13.994  18.580  26.040  0.4080  0.0568  0.2430
32276W        W75267  20.838  20.529  16.492 -0.0102 -0.0410 -0.0582
32277W        W75268   2.874  34.269  22.416  0.2516 -0.1789 -0.0727
32278W        W75269   0.098  11.545  17.483 -0.0610 -0.2507 -0.0729
32279W        W75270   6.549   0.018  17.985 -0.1587 -0.1831  0.2127
32280W        W75271   8.626  17.604  19.695  0.1520 -0.1779 -0.2612
32281W        W75272   3.996  11.671  24.467 -0.1259  0.2450 -0.0320
32282W        W75273  33.548   2.846  23.435 -0.0608  0.1072 -0.1163
32283W        W75274   2.582   0.262  16.543  0.1039  0.2815  0.0146
32284W        W75275   3.146   0.412  18.695  0.1696 -0.0394 -0.1313
32285W        W75276   6.110   0.357  20.563 -0.0862 -0.0786 -0.0891
32286W        W75277   1.840  34.699   5.821  0.1305  0.2185 -0.0723
32287W        W75278  28.629   3.107  22.312  0.3271  0.2197  0.1283
32288W        W75279   3.609  16.538  16.322 -0.0934  0.0274  0.0078
32289W        W75280   7.313   9.771  17.435 -0.3081  0.1171  0.1382
32290W        W75281   4.571   7.479  20.158 -0.1338  0.3215  0.0966
32291W        W75282  24.049   1.272  13.572  0.1508 -0.1209 -0.1260
32292W        W75283   9.968  24.536  16.366  0.5428 -0.2800  0.1839
32293W        W75284  32.617  31.678  15.632  0.0721 -0.1248  0.2273
32294W        W75285  19.624  26.998  13.996 -0.2735 -0.0383 -0.1234
32295W        W75286  33.749   4.770  15.712  0.1020  0.0177  0.0600
32296W        W75287  30.783  11.332   2.792 -0.1073  0.0588 -0.0989
32297W        W75288  16.658  14.186  14.538 -0.0368  0.2370 -0.2302
32298W        W75289  28.620  21.878  20.143  0.0363 -0.0549  0.1707
32299W        W75290  32.411   8.304  19.800 -0.3930  0.0756 -0.1035
32300W        W75291  14.663  11.242  26.932 -0.0886  0.1624 -0.1861
32301W        W75292  10.195  18.613   3.163 -0.0684  0.0250 -0.0250
32302W        W75293  18.909   9.817  21.227  0.0314  0.2044  0.0028
32303W        W75294  32.846   8.488  17.458 -0.1388 -0.2165  0.2753
32304W        W75295  22.705   5.811  15.399  0.1263  0.0780  0.1040
32305W        W75296  32.218   5.974  20.656  0.0488  0.0835 -0.1473
32306W        W75297  28.449   9.752  27.753  0.0072  0.3742  0.1055
32307W        W75298  30.748   4.801  16.619  0.1844 -0.1678  0.1268
32308W        W75299  22.379   6.489  29.154  0.4334 -0.3826 -0.2425
32309W        W75300  28.236  17.895  23.192  0.0943 -0.1623  0.0322
32310W        W75301  18.800   4.706   0.608  0.0501  0.0427  0.0654
32311W        W75302  17.545  10.861   2.237  0.0215  0.3440  0.0147
32312W        W75303  32.763  17.360  17.927 -0.1957  0.0352 -0.2502
32313W        W75304  19.396  21.274  14.568  0.1640  0.1833  0.0180
32314W        W75305  22.301  29.849  17.548 -0.2788  0.0793 -0.0067
32315W        W75306   6.186  26.379  21.963 -0.0286  0.0101 -0.3277
32316W        W75307  23.255   4.122  22.036  0.0647  0.3466 -0.0690
32317W        W75308   8.602  30.640   3.226 -0.0009  0.3330 -0.0050
32318W        W75309   6.365  26.888  20.761 -0.2100  0.3643 -0.1787
32319W        W75310  33.479  34.376  15.626 -0.3137  0.0611  0.2195
32320W        W75311  30.506  21.108  15.900  0.3405 -0.3505  0.0488
32321W        W75312   0.500  27.654  22.132  0.2390  0.1064 -0.1436
32322W        W75313  32.335  19.914  24.196 -0.0807 -0.0297  0.1093
32323W        W75314  33.957   8.692   2.995  0.3574 -0.2298  0.1992
32324W        W75315  34.134  32.605  15.554 -0.1312  0.0970  0.0542
32325W        W75316  32.374  31.570  24.382 -0.1698 -0.2845 -0.2118
32326W        W75317  24.486  24.397  23.264  0.1727 -0.0830  0.0662
32327W        W75318  29.197  12.390  18.190  0.1070  0.1254 -0.0763
32328W        W75319  19.688  30.281  21.053  0.2633 -0.1920 -0.1239
32329W        W75320   2.593   5.477  21.653  0.0356 -0.0404 -0.0003
32330W        W75321   5.262  15.039  24.640  0.0433  0.0308 -0.1120
32331W        W75322   6.384  12.547   3.586 -0.0317 -0.0963 -0.1057
32332W        W75323  30.716  18.646  21.585  0.4750 -0.1171  0.3331
32333W        W75324  31.006  11.945  23.998  0.2055  0.0389 -0.0269
32334W        W75325  25.416   5.033  22.919  0.0217  0.0264  0.0375
32335W        W75326   6.888   5.050  25.302  0.2286  0.1036 -0.3807
32336W        W75327  30.574   3.731  16.929 -0.3489 -0.2043 -0.1886
32337W        W75328  26.315  33.258   1.863  0.0617 -0.2549  0.2882
32338W        W75329  28.453  33.723  17.314 -0.2031  0.1696  0.1713
32339W        W75330  17.440   0.569   0.271  0.1021 -0.0331  0.1823
32340W        W75331  16.457  33.265  20.822  0.2182  0.0636  0.1381
32341W        W75332  21.793  19.727  26.638 -0.0452 -0.0839 -0.1750
32342W        W75333  29.153  13.247  16.534  0.3357  0.0745 -0.2208
32343W        W75334   7.407  10.537  26.038 -0.2859 -0.0388 -0.1290
32344W        W75335   9.201   6.148  24.939 -0.0648  0.0737 -0.1473
32345W        W75336   4.582   7.948  15.671  0.2085  0.1991  0.0169
32346W        W75337  30.506  24.274  21.487  0.1003 -0.2172  0.0342
32347W        W75338  26.950  23.029  26.319 -0.3098 -0.0896 -0.1985
32348W        W75339  32.225  11.830  22.810 -0.1533  0.1572 -0.2596
32349W        W75340   3.266  14.680  22.254 -0.3576 -0.0909 -0.1017
32350W        W75341  26.237  23.106   2.731  0.5848  0.1161  0.3006
32351W        W75342  29.081  21.334   2.560 -0.0323 -0.2492  0.2938
32352W        W75343   1.190  11.445  19.677  0.0324  0.0404  0.0140
32353W        W75344  32.046   0.167  22.435 -0.1679  0.0767 -0.2713
32354W        W75345  10.819  34.507   9.289 -0.0080  0.2207 -0.2823
32355W        W75346  13.358   7.898  21.528 -0.1770  0.0824 -0.2194
32356W        W75347   8.917  10.536  19.122 -0.0675 -0.4415  0.1818
32357W        W75348   8.172  11.850  20.466  0.2043  0.0852  0.1786
32358W        W75349   1.201  32.785  18.793 -0.0470  0.3425  0.4095
32359W        W75350  19.298   6.379   1.781  0.0552  0.0591 -0.0871
32360W        W75351  27.151  15.874  22.468  0.2309  0.0246  0.1095
32361W        W75352  30.097  11.714   4.872  0.0268  0.1579 -0.0576
32362W        W75353  15.819  34.065  18.892  0.0609  0.0986  0.3648
32363W        W75354  23.585   5.160  17.109  0.0331  0.1243  0.0455
32364W        W75355   9.696  10.996  19.071  0.0103  0.1335 -0.0290
32365W        W75356   7.802   6.063  20.184 -0.1233  0.3716  0.1200
32366W        W75357  34.759  17.621   0.179  0.2482 -0.3046 -0.3290
32367W        W75358   3.312   9.336  15.657  0.3013 -0.3206  0.2064
32368W        W75359  27.099  28.999  18.168 -0.0847 -0.1567 -0.3676
32369W        W75360  23.763  11.846  25.327 -0.2287 -0.3115 -0.1200
32370W        W75361   7.980   7.276  16.359 -0.0985 -0.2408  0.1264
32371W        W75362  32.561   1.389  25.462  0.0944  0.2698 -0.1004
32372W        W75363  28.283  12.413  19.672  0.0171  0.0631  0.0092
32373W        W75364   3.437   9.816  24.943  0.1515 -0.1483  0.1539
32374W        W75365   6.342  12.417  29.241  0.0195  0.3403 -0.0778
32375W        W75366  29.813  26.543  17.365  0.1840 -0.0860  0.0999
32376W        W75367  32.635  25.794  13.283 -0.4680 -0.0981  0.0475
32377W        W75368  24.992  10.312  23.605 -0.2344 -0.1330 -0.1537
32378W        W75369   5.120  15.620  24.721  0.0068 -0.1498  0.0533
32379W        W75370  20.979   0.264   6.688  0.0289  0.0197  0.3890
32380W        W75371  25.919  15.931  22.015  0.3719  0.2820 -0.0450
32381W        W75372   2.834   2.805   5.242  0.2881 -0.1747  0.1415
32382W        W75373  34.683  23.500  27.827  0.2139  0.1964  0.4967
32383W        W75374   4.411   5.520  17.067 -0.1526  0.4082  0.0743
32384W        W75375  18.193   8.934   0.081  0.1385 -0.0900  0.1926
32385W        W75376  17.455  30.745  15.956 -0.1804  0.5234  0.0462
32386W        W75377  29.039  23.789  14.504 -0.0955  0.3457 -0.0893
32387W        W75378  17.461  32.506  20.801 -0.0761 -0.0088 -0.0564
32388W        W75379   7.574  33.028  19.744 -0.0306 -0.1525 -0.0537
32389W        W75380  31.001   3.498   7.919  0.1812  0.0633  0.0178
32390W        W75381  27.322  12.038  27.026  0.5506  0.0505  0.0170
32391W        W75382   5.751   6.711  17.410 -0.0233  0.0631  0.1301
32392W        W75383  19.875   2.336  24.662 -0.1095  0.2433 -0.4096
32393W        W75384  19.974  25.795  20.293  0.0226 -0.0989  0.1030
32394W        W75385  21.969   0.774  17.044  0.1243 -0.1544 -0.2325
32395W        W75386  29.768   6.164  16.293 -0.2908  0.0727 -0.2951
32396W        W75387  24.313  24.669  20.720  0.2318  0.1201  0.0680
32397W        W75388   1.131  25.203  20.219 -0.0645  0.0859  0.3093
32398W        W75389  13.739   0.757  17.790 -0.0220  0.2456 -0.0371
32399W        W75390   6.309   2.488  22.453 -0.0937 -0.1588  0.1114
32400W        W75391  17.492  10.803  16.368  0.0089  0.1747  0.0277
32401W        W75392  34.335  30.774  21.190  0.1942 -0.0677 -0.2339
32402W        W75393   4.566   8.955   3.374  0.0259  0.3564  0.0971
32403W        W75394  14.095   7.958  20.509  0.1276 -0.1227  0.1716
32404W        W75395   0.127   4.471  17.546  0.1182  0.0370 -0.2228
32405W        W75396  25.248   1.796  21.053 -0.2079 -0.2679  0.3728
32406W        W75397  34.019  32.466  22.809 -0.1739  0.2105 -0.0132
32407W        W75398   6.959  13.668  19.973  0.0235 -0.0936  0.4828
32408W        W75399  13.700  32.330  19.609 -0.0409  0.0588 -0.1268
32409W        W75400  25.876  33.748  23.068 -0.5027  0.1033  0.0669
32410W        W75401  30.996   3.078  22.238  0.1198  0.1190  0.0810
32411W        W75402   6.241  29.107  16.156  0.1645 -0.1087  0.2116
32412W        W75403   5.229   5.090  15.085 -0.0455  0.3312 -0.0558
32413W        W75404  31.636  28.406  13.265  0.0143 -0.0955 -0.1210
32414W        W75405  28.473   9.340  19.990 -0.0775  0.1305  0.0231
32415W        W75406  27.887  32.625  27.988  0.0034  0.1741 -0.2007
32416W        W75407  32.326   8.632  23.013  0.0698  0.1313  0.1577
32417W        W75408  23.996   4.204  15.825  0.1618 -0.1074  0.0379
32418W        W75409  23.582  22.190  21.452  0.0216  0.0245 -0.1624
32419W        W75410   0.600  12.663  17.524 -0.3446  0.3564 -0.1472
32420W        W75411  11.401   7.961  22.005  0.3200  0.2815  0.0727
32421W        W75412   6.730  26.034  14.369 -0.2380 -0.2386 -0.0660
32422W        W75413  30.522  32.061  26.739  0.3302  0.0385 -0.3544
32423W        W75414   1.554  13.683  19.774  0.0358  0.1186  0.0715
32424W        W75415  30.263  14.714  25.025  0.1453  0.0898  0.2446
32425W        W75416  20.260  33.274  17.198  0.1927  0.3053 -0.0330
32426W        W75417   1.232  26.425  18.551 -0.3146 -0.2557 -0.1655
32427W        W75418  23.188  11.736   0.539 -0.0386  0.2787 -0.0440
32428W        W75419   7.131   4.714  15.244 -0.0930  0.1877  0.1305
32429W        W75420  31.385  16.078  20.663 -0.0809  0.3402 -0.0648
32430W        W75421   3.504  26.373  29.052  0.0274  0.0670  0.2302
32431W        W75422  30.102  31.486  14.974  0.1620 -0.1954 -0.2059
32432W        W75423  20.663  13.538   8.733 -0.3547 -0.3711  0.2488
32433W        W75424  32.551  11.620  16.887  0.2342  0.0464 -0.1561
32434W        W75425  27.741   6.691  22.105 -0.0987  0.1878  0.4955
32435W        W75426   6.227  14.407  17.975 -0.3865 -0.1077  0.0486
32436W        W75427  25.498  11.172  22.656 -0.0935  0.0922 -0.1311
32437W        W75428  30.217   8.993  23.500 -0.3348 -0.1157 -0.0100
32438W        W75429  20.188  13.252   1.603  0.1434 -0.3424  0.5054
32439W        W75430  28.335   9.032  15.062 -0.2270  0.0831  0.0521
32440W        W75431  23.148   9.988  15.199 -0.1831  0.1213  0.2582
32441W        W75432  29.962  33.887  22.311  0.0342 -0.0779  0.1543
32442W        W75433   0.125   9.558  22.984 -0.1030  0.1077 -0.1714
32443W        W75434   5.550   4.454  20.111  0.1673 -0.0143 -0.2867
32444W        W75435   9.352   9.021  25.046  0.2199 -0.1778 -0.0118
32445W        W75436  22.419  21.982  21.210  0.2468 -0.4615 -0.0496
32446W        W75437  10.958  16.242  15.148  0.1388  0.2652 -0.0767
32447W        W75438   0.065  10.963  21.126 -0.1434  0.0337  0.3319
32448W        W75439  33.520  11.972  16.002  0.1624  0.2315  0.2250
32449W        W75440  11.137   6.436  26.481  0.0355 -0.1541  0.0547
32450W        W75441   2.104  33.773  24.281  0.2543 -0.2905 -0.1635
32451W        W75442  22.125  13.738  20.284  0.3124  0.0677 -0.1929
32452W        W75443  24.385  26.147   3.653 -0.1938  0.2512 -0.1419
32453W        W75444  29.957   6.626  19.956  0.2079  0.0020  0.0671
32454W        W75445  24.395  26.843  13.540  0.1555  0.0564  0.1871
32455W        W75446  18.770  16.820  14.320  0.1313  0.2689  0.2494
32456W        W75447  34.019  33.725  20.183 -0.2040 -0.2073 -0.3087
32457W        W75448  20.769   8.999  21.245  0.2311 -0.0377  0.0110
32458W        W75449  31.316  10.753  22.894  0.3104 -0.0948 -0.1564
32459W        W75450   7.894  24.413  19.163 -0.0156  0.0576 -0.0071
32460W        W75451  33.808  14.059  16.806  0.2413  0.0327 -0.1838
32461W        W75452  27.376   7.502  16.136  0.2209  0.3346 -0.0188
32462W        W75453   2.249   9.891  17.791 -0.1129  0.0975  0.1461
32463W        W75454  22.770   0.989   5.367  0.1952  0.2370 -0.1727
32464W        W75455   3.825  10.931  28.666  0.2011 -0.0495 -0.5922
32465W        W75456  28.756   4.146  28.704  0.0833 -0.1347  0.0763
32466W        W75457  18.359  14.013   0.982  0.1092  0.1438  0.1926
32467W        W75458  20.046  13.013  23.153 -0.1779  0.1493  0.0324
32468W        W75459   6.083   2.146  21.112 -0.0145 -0.2460 -0.1082
32469W        W75460  23.914  14.496  14.379 -0.3201 -0.0629 -0.0730
32470W        W75461  24.688   2.454  28.869  0.3749  0.0363  0.3502
32471W        W75462  29.439   3.752  25.578  0.3191  0.1196 -0.1643
32472W        W75463  32.616  11.774  15.286 -0.4182  0.2095  0.0667
32473W        W75464  28.826   5.433  20.966 -0.1666  0.2987  0.2216
32474W        W75465  30.889  28.970  13.548  0.1737 -0.0586  0.0168
32475W        W75466  16.670   1.399  24.654 -0.0310 -0.0762 -0.0381
32476W        W75467   2.249   8.273   3.187 -0.1545  0.3500  0.1574
32477W        W75468   7.263   5.082  17.813 -0.2422  0.0374  0.1709
32478W        W75469   2.667   9.706  20.960  0.0235 -0.0493 -0.0324
32479W        W75470  30.390  32.479  16.608 -0.1360 -0.2873 -0.1203
32480W        W75471  19.580  26.130  19.665  0.0926 -0.3355 -0.2257
32481W        W75472   5.394   3.220  22.454  0.0604  0.1493  0.2539
32482W        W75473  34.587  19.444  26.621 -0.0219  0.0741 -0.0217
32483W        W75474  34.319   2.055   5.563 -0.0382 -0.3916 -0.3624
32484W        W75475  33.073  20.502  25.591  0.1553  0.0808  0.0106
32485W        W75476  33.377  33.328  15.975  0.1661 -0.0141 -0.0032
32486W        W75477  30.603   9.240  29.146  0.1846  0.0340 -0.2423
32487W        W75478  20.410  31.568  18.324  0.0477 -0.0930  0.0383
32488W        W75479  29.777  31.638  22.154 -0.2149  0.1450 -0.0644
32489W        W75480  31.644  31.471  18.296  0.1123 -0.1082 -0.1487
32490W        W75481  27.601  27.367  18.924  0.0769 -0.0473 -0.0677
32491W        W75482  23.677  21.963  12.994  0.0086  0.0612 -0.0182
32492W        W75483   0.094  32.675  14.512  0.0543 -0.0788  0.0661
32493W        W75484  28.769   9.338   1.241 -0.0299  0.3586  0.1825
32494W        W75485  28.328   3.629  25.189  0.0843  0.1008  0.0003
32495W        W75486  17.691  15.018   1.769  0.0835 -0.3370 -0.1560
32496W        W75487  24.845   2.880   0.962  0.1663 -0.0206  0.0606
32497W        W75488  33.144  14.921  15.264 -0.0059 -0.0089 -0.0548
32498W        W75489   2.875  15.885  17.100 -0.0410 -0.3542  0.1017
32499W        W75490  28.276  27.391  28.686 -0.2984 -0.0728  0.0657
32500W        W75491  16.058  11.856  23.567 -0.1461 -0.1040 -0.0650
32501W        W75492  15.409  15.579  27.436  0.1635 -0.1685  0.1296
32502W        W75493  34.208  15.064   2.945  0.2489 -0.6157  0.1618
32503W        W75494  26.167   1.679  26.116 -0.1772 -0.1041  0.2770
32504W        W75495  23.567  10.080  16.342 -0.3910  0.1096  0.1585
32505W        W75496  22.487   9.395  22.241 -0.2669  0.0756  0.0413
32506W        W75497  34.622   5.049  16.428 -0.1184  0.1056 -0.0331
32507W        W75498  21.449  33.201  21.769 -0.1755 -0.0173  0.0065
32508W        W75499   5.261   9.362  19.113 -0.2589  0.0306  0.0329
32509W        W75500  20.476  15.122  21.990  0.1396 -0.1121  0.0073
32510W        W75501   4.159  26.941  24.926 -0.0053  0.0125 -0.2423
32511W        W75502  31.997   1.826  24.522  0.1092  0.0518  0.2553
32512W        W75503   2.007  26.095   3.029  0.0878 -0.0944 -0.1604
32513W        W75504  18.671  31.188  28.587 -0.0437  0.2658 -0.3503
32514W        W75505  20.760  10.844   0.054 -0.0873  0.0462  0.0566
32515W        W75506  28.558  33.819   2.516  0.1177 -0.0112 -0.2005
32516W        W75507   2.017  26.598  18.227 -0.0966 -0.2979 -0.0793
32517W        W75508   5.537   4.592   1.654 -0.1811  0.1954 -0.0108
32518W        W75509  28.270   1.804  22.657 -0.0887  0.3092  0.2805
32519W        W75510  27.103  27.106  24.359  0.2287 -0.0643 -0.2836
32520W        W75511   1.817   3.465  24.004 -0.0942 -0.2191 -0.0561
32521W        W75512  24.894   5.822  14.755 -0.0797  0.3352  0.2008
32522W        W75513  10.493  14.336  23.264  0.1743  0.0091  0.0556
32523W        W75514  21.969   9.373  22.460  0.2325  0.2209 -0.0854
32524W        W75515  16.685  20.288  27.172 -0.1264  0.0967  0.1150
32525W        W75516   0.539  12.499  23.609  0.0246  0.1930  0.2608
32526W        W75517  29.235  26.626  13.739  0.1728  0.0477 -0.0434
32527W        W75518   3.984  21.691   1.221  0.0677  0.2139  0.1652
32528W        W75519  26.510  32.894  25.180  0.0200 -0.1115 -0.0205
32529W        W75520  19.317  14.302   3.780 -0.0103 -0.0868  0.0432
32530W        W75521  29.636  22.098  26.817  0.3463  0.0157 -0.3422
32531W        W75522   5.486  20.967  17.800  0.0386  0.0812 -0.1389
32532W        W75523   7.750  12.600  22.903  0.1874 -0.0162  0.1611
32533W        W75524  18.715   5.422  25.509 -0.0447  0.1458  0.0817
32534W        W75525  22.319  15.191   2.110  0.0209  0.2729 -0.0047
32535W        W75526  21.177  30.937  25.593  0.3152  0.2102  0.0533
32536W        W75527  28.225   7.054   3.619 -0.2452  0.3310 -0.1860
32537W        W75528  13.432   5.255   5.755  0.3233  0.0734  0.1086
32538W        W75529  20.345  11.643  28.092  0.0117  0.0465 -0.0465
32539W        W75530  14.208  22.213  22.495 -0.1237 -0.2913 -0.1030
32540W        W75531   8.644   4.625  17.589  0.0324 -0.0945  0.0651
32541W        W75532  24.061   5.105  25.354 -0.0017  0.2773  0.1212
32542W        W75533  28.120   2.259  24.905  0.1760 -0.3645 -0.1663
32543W        W75534  27.912   8.755  17.866  0.0423  0.3776  0.2971
32544W        W75535  22.290  17.606   2.528  0.0596  0.0657 -0.2364
32545W        W75536  15.549  24.845  18.995  0.2165 -0.1707 -0.0319
32546W        W75537  21.455   4.089  25.268  0.0530 -0.2530 -0.1367
32547W        W75538  12.405  20.433  18.535 -0.0971  0.0385  0.4903
32548W        W75539  22.764   6.301  14.689  0.2634  0.2331 -0.3137
32549W        W75540  24.546  27.292  26.293  0.1695 -0.2915 -0.4410
32550W        W75541  29.810   2.419  16.475 -0.1770  0.1017  0.0074
32551W        W75542   0.228  18.402  24.897 -0.2708 -0.2339  0.2184
32552W        W75543  28.885  10.696  23.145 -0.3047 -0.0430  0.2169
32553W        W75544   5.500  10.507  24.473  0.0891 -0.2561 -0.0014
32554W        W75545  26.741  13.325  25.081  0.0924 -0.1287  0.0745
32555W        W75546   2.864   8.204   2.139 -0.0135 -0.0882 -0.1756
32556W        W75547  13.662   4.761  22.454 -0.2643 -0.2777  0.3017
32557W        W75548  24.556  20.485  17.581 -0.0271 -0.0470 -0.0067
32558W        W75549  30.017  29.219  28.609  0.0855 -0.2445  0.1066
32559W        W75550  29.010   5.138  25.504 -0.2492 -0.5248 -0.0388
32560W        W75551   1.122  26.853  21.478  0.2265 -0.1444  0.1813
32561W        W75552  21.970   0.066  16.087 -0.2769 -0.2763 -0.0968
32562W        W75553  29.164   6.341  23.076  0.0041 -0.0057  0.0172
32563W        W75554  30.322  13.668   2.200 -0.1711  0.1092  0.1718
32564W        W75555  30.351  34.079  23.704  0.0018 -0.2434  0.1964
32565W        W75556  30.343  28.273  19.007 -0.0234 -0.0216 -0.2987
32566W        W75557  11.532   2.333  24.831  0.1018  0.2092 -0.6550
32567W        W75558  34.621   6.155  19.813  0.3153 -0.2565 -0.1395
32568W        W75559  29.775  25.478  15.335 -0.1855 -0.2576  0.0984
32569W        W75560  30.960   2.519  16.549  0.1114 -0.1151  0.0933
32570W        W75561   5.256   4.251  25.576 -0.0594  0.0680  0.1165
32571W        W75562  14.138  33.682  26.563  0.1312 -0.1108 -0.1298
32572W        W75563  29.288   1.010   7.993 -0.0249  0.0359 -0.1996
32573W        W75564   8.880  33.592  16.343 -0.1993  0.0663 -0.4588
32574W        W75565  18.062  12.079  17.173  0.1558  0.1438 -0.1340
32575W        W75566  27.894   7.658  14.212 -0.2349 -0.1348  0.0953
32576W        W75567  28.719  10.349   0.518 -0.0719  0.2409 -0.0074
32577W        W75568  33.971  34.359  27.144 -0.3244 -0.4059 -0.0713
32578W        W75569  31.755   2.177  21.136 -0.1060  0.1964  0.0231
32579W        W75570  12.804   2.059  18.425  0.2289 -0.0168 -0.2720
32580W        W75571  18.984  22.438  14.642  0.3547  0.0040 -0.0950
32581W        W75572  25.849  11.494  15.289 -0.1867 -0.2117 -0.2294
32582W        W75573  29.667   8.090  18.583  0.1727 -0.3362 -0.1344
32583W        W75574  19.997  32.447  21.048 -0.4181 -0.1487  0.1968
32584W        W75575  19.384  27.875  21.388 -0.0208  0.0336  0.1680
32585W        W75576  33.636  31.169   0.136  0.0879 -0.2381  0.4299
32586W        W75577  26.470  14.079   3.664 -0.2139  0.1690  0.3288
32587W        W75578  26.925   4.445  17.500 -0.1914 -0.2359 -0.1881
32588W        W75579  18.462  31.967  26.996 -0.0125 -0.1679 -0.0914
32589W        W75580  33.551   4.218  18.436 -0.0077 -0.0727 -0.2947
32590W        W75581   4.569   4.008  24.597  0.0598 -0.2365  0.2298
32591W        W75582   0.276   5.981  28.767 -0.1890  0.1984 -0.1659
32592W        W75583   1.043   0.633   0.583  0.0015 -0.1093 -0.2830
32593W        W75584  29.605   4.782   2.546 -0.2959  0.1339 -0.0271
32594W        W75585  13.593  23.477  19.571 -0.0791  0.0299  0.0065
32595W        W75586  26.187   6.482  16.487  0.0665  0.2906  0.0002
32596W        W75587  27.642  13.295  25.485 -0.1832  0.1823 -0.1802
32597W        W75588  24.343   9.107  25.457  0.0016  0.0384  0.2575
32598W        W75589  29.158  20.036  10.116 -0.0364  0.1342 -0.2397
32599W        W75590  26.507  32.583   4.940  0.1208  0.0153  0.0304
32600W        W75591  28.629  32.519  15.095 -0.0643 -0.0597 -0.1178
32601W        W75592   0.197   6.025  23.894 -0.0633  0.0007  0.1866
32602W        W75593   4.791  23.316  20.456  0.0401 -0.0159 -0.2215
32603W        W75594   8.604  23.307   0.245 -0.0315 -0.2000 -0.2944
32604W        W75595  23.953  26.267   8.168  0.2050  0.0057 -0.0023
32605W        W75596  30.123  25.786  16.203 -0.2230  0.0368 -0.0374
32606W        W75597  23.037  16.945  21.669  0.1703  0.2351  0.1255
32607W        W75598   4.203  18.983  15.909 -0.1704 -0.0551  0.0031
32608W        W75599  26.488  15.121  15.137 -0.0253 -0.0241 -0.0853
32609W        W75600   1.545  33.583  16.435 -0.1153 -0.1886  0.3261
32610W        W75601  26.537  32.391  18.365  0.1601  0.0762  0.2173
32611W        W75602  31.388  26.510  16.255  0.1640  0.0465 -0.1210
32612W        W75603   7.380  32.846   4.177 -0.0582 -0.1148  0.0032
32613W        W75604  30.730   0.430  21.631  0.0255 -0.2072 -0.1629
32614W        W75605  26.768  12.923  27.174 -0.2408 -0.0276  0.0186
32615W        W75606  27.398  16.234  20.034 -0.1232  0.3118 -0.0386
32616W        W75607  31.616  26.865  28.783 -0.0466 -0.0645 -0.3741
32617W        W75608  11.976  26.570  25.059  0.3131  0.3359 -0.0244
32618W        W75609  15.701  28.201   5.874 -0.1782 -0.1497 -0.1535
32619W        W75610  25.199   0.382   4.532 -0.2353  0.3076 -0.0925
32620W        W75611  16.332  20.253  13.874 -0.0082  0.0158 -0.2076
32621W        W75612  25.159   9.091  15.182  0.3038 -0.2394  0.1019
32622W        W75613  29.346  13.964  28.565  0.0295  0.0323  0.2611
32623W        W75614  24.793   2.109   0.173 -0.0954 -0.1589  0.5245
32624W        W75615  24.965  13.596  20.729 -0.1064 -0.0521 -0.2057
32625W        W75616  24.826   9.410  24.030  0.0757  0.0456  0.1237
32626W        W75617  21.261  18.707  17.563  0.0728  0.1360 -0.2120
32627W        W75618  13.029   6.535  16.507 -0.1392 -0.0028  0.3071
32628W        W75619  25.449   6.293  18.891 -0.1214 -0.1170  0.2588
32629W        W75620  31.882  26.850  21.707  0.0561 -0.1662 -0.0312
32630W        W75621  26.115  19.018  25.894  0.2208 -0.0309 -0.3161
32631W        W75622  26.702  15.867  28.516  0.0737  0.2016 -0.1161
32632W        W75623  10.990  20.049  21.474  0.2329 -0.4328 -0.3463
32633W        W75624   6.673   5.456  18.372 -0.4080 -0.0212  0.2861
32634W        W75625  20.843   3.390  15.825 -0.1469  0.0265  0.1525
32635W        W75626  25.315   0.196  23.131 -0.0473  0.1022 -0.0617
32636W        W75627  18.314  25.231   3.370  0.2090  0.0091 -0.1496
32637W        W75628   9.640  25.232  15.091 -0.0573 -0.1641 -0.0783
32638W        W75629  28.282  33.663  21.247 -0.0857  0.0715 -0.0899
32639W        W75630  27.768  29.979  15.782 -0.0589  0.2959 -0.1968
32640W        W75631  27.507   2.476  27.598 -0.3957  0.0969  0.1077
32641W        W75632  32.074  33.686  19.477 -0.3577 -0.3454 -0.0383
32642W        W75633  29.495   6.910  18.989 -0.0320  0.1654 -0.2536
32643W        W75634  23.040  13.149  14.054 -0.2136 -0.0940 -0.1008
32644W        W75635  23.950  30.248  14.696 -0.5031 -0.0337  0.1487
32645W        W75636  33.217   6.079  22.884 -0.0437 -0.1142 -0.0040
32646W        W75637  25.071  11.808  18.610  0.1525  0.1487  0.1257
32647W        W75638   2.048  32.606  16.856  0.2870 -0.1365  0.1118
32648W        W75639   0.500   4.188  10.084 -0.3211 -0.1331 -0.0059
32649W        W75640  18.490  17.138  26.750 -0.1081 -0.0040  0.4587
32650W        W75641  30.199  13.175  14.937  0.0226  0.1146  0.0389
32651W        W75642   0.682   8.784  23.471 -0.0384 -0.0790  0.2359
32652W        W75643  34.032  15.097  16.856  0.0330 -0.3460 -0.0578
32653W        W75644  20.018  26.652   2.448  0.1129  0.2392  0.0434
32654W        W75645  13.474  20.743  18.771 -0.1279 -0.3236  0.3441
32655W        W75646  33.266   9.074  18.832 -0.2344  0.1828  0.1943
32656W        W75647  32.382  14.918   0.954  0.0087 -0.3597 -0.0100
32657W        W75648  22.207  21.650  12.906 -0.2545  0.0536  0.1120
32658W        W75649  28.973  33.581  26.030 -0.0876 -0.2549  0.0036
32659W        W75650   7.605   9.259   1.975  0.3748  0.2826  0.1790
32660W        W75651   7.779  10.397  15.618 -0.3017 -0.2374  0.0870
32661W        W75652  33.436  32.873  19.094 -0.0869 -0.0888  0.0623
32662W        W75653  21.114  14.743  23.258 -0.2101 -0.0162  0.1270
32663W        W75654  15.017   0.631  19.069  0.0463 -0.0655  0.1160
32664W        W75655  29.804  11.784  18.698  0.1030 -0.0347 -0.2273
32665W        W75656   3.826  21.198  28.992  0.0718  0.1017  0.0177
32666W        W75657  31.054   1.623  23.969 -0.0869 -0.1917  0.3275
32667W        W75658   8.162  14.567  18.770  0.2422 -0.2319  0.1079
32668W        W75659  32.015   3.018  21.200  0.1229  0.0539  0.0836
32669W        W75660  26.500   2.596  25.045  0.2152 -0.0638  0.1681
32670W        W75661   4.667   5.619  21.159  0.2309 -0.1837 -0.2350
32671W        W75662  30.954   6.646  23.926 -0.1599 -0.1279  0.0852
32672W        W75663  34.534  24.073  17.830  0.1748  0.1498 -0.1091
32673W        W75664  16.626   2.348  20.410 -0.0264 -0.1500  0.0167
32674W        W75665  26.112  12.663   9.853 -0.2917 -0.2853 -0.0993
32675W        W75666  30.744   2.124  20.119 -0.2330  0.3828  0.1627
32676W        W75667  19.969  24.736  24.051 -0.2858  0.1246  0.1622
32677W        W75668  23.915  30.009  15.736  0.2706  0.3029 -0.3428
32678W        W75669  24.494  33.698  13.530  0.2014 -0.1941  0.0840
32679W        W75670  22.135  19.078  20.179 -0.0160 -0.1290  0.1292
32680W        W75671  32.885  12.932   3.096  0.0564 -0.1611  0.2037
32681W        W75672  23.123  16.819  20.497  0.1486  0.0155 -0.1045
32682W        W75673  31.741   3.510   0.899 -0.2989 -0.0066  0.0885
32683W        W75674   6.578  34.232  26.963  0.1861  0.1477 -0.0932
32684W        W75675   6.607   5.528  27.968 -0.2461  0.1411 -0.1191
32685W        W75676  26.911   1.397  20.868 -0.1062  0.3127  0.2662
32686W        W75677  21.319  23.961   4.882  0.1164 -0.0359  0.1045
32687W        W75678  27.539  13.493  16.916  0.0836  0.1059 -0.3584
32688W        W75679  30.460  24.346  25.846 -0.2974 -0.2594 -0.0816
32689W        W75680  26.809   4.831  20.687  0.1687 -0.1094 -0.1872
32690W        W75681  27.846   8.805   2.472  0.0032 -0.0975  0.1991
32691W        W75682   5.666  30.344   4.895  0.1081 -0.0016  0.1979
32692W        W75683   4.799  31.802  14.234 -0.0961  0.2178 -0.0397
32693W        W75684   2.532  16.027  21.653 -0.1596  0.1176 -0.3898
32694W        W75685  34.216  29.075  19.528  0.0408 -0.2011  0.0463
32695W        W75686   9.657  10.796  22.430 -0.1189  0.0856  0.4004
32696W        W75687  26.910   5.076   0.502 -0.1176 -0.1414 -0.2498
32697W        W75688  29.130  16.358   1.366 -0.1264  0.0041 -0.3348
32698W        W75689  24.422   4.480  15.583  0.1561  0.0982 -0.0800
32699W        W75690  16.051   9.883  23.057 -0.0878 -0.0692  0.1296
32700W        W75691  22.273  11.832   6.236 -0.0065  0.3684 -0.0728
32701W        W75692  24.366   9.613  16.463 -0.0452 -0.5229  0.2267
32702W        W75693   2.767  29.234  22.002 -0.0810  0.0590  0.1126
32703W        W75694   0.549   0.810  22.076 -0.0166  0.1182  0.0715
32704W        W75695   9.269   4.179  10.246 -0.1731 -0.1379 -0.4646
32705W        W75696  31.451  30.303  26.984  0.1520 -0.0910  0.0832
32706W        W75697  21.321   3.351  14.102 -0.0176  0.1717  0.1076
32707W        W75698  34.159   5.404  23.573  0.1512 -0.3246 -0.1200
32708W        W75699   2.176   6.726  22.799 -0.0760 -0.1100  0.1864
32709W        W75700  10.582  18.895   6.370 -0.0010  0.1154  0.2310
32710W        W75701  31.681   6.504   6.843 -0.0716  0.3008 -0.0142
32711W        W75702  32.417   5.115  21.778 -0.1585  0.0914  0.1887
32712W        W75703   4.656  24.717  17.607  0.2285  0.1094 -0.0305
32713W        W75704  29.830   7.776  22.232  0.1945 -0.2483  0.0756
32714W        W75705  11.056  10.829  16.172 -0.2569  0.2196  0.2103
32715W        W75706  17.416  25.811  24.330  0.2364 -0.0846 -0.3183
32716W        W75707   3.516  30.930  16.951 -0.2435  0.1611  0.0874
32717W        W75708  15.577   7.964  21.069  0.1073 -0.1331 -0.1779
32718W        W75709  28.868  15.213  23.808 -0.0860  0.0357  0.1389
32719W        W75710  33.765  10.252  21.176 -0.0582  0.0320 -0.2048
32720W        W75711  13.696  11.816  24.557 -0.2842  0.0044  0.2830
32721W        W75712   1.931   7.734  20.437 -0.0060 -0.0754 -0.3519
32722W        W75713  24.852  28.224  18.969 -0.1965 -0.2313 -0.0109
32723W        W75714  12.166   0.681   6.112 -0.1403  0.1643  0.1755
32724W        W75715   6.794  11.298  17.021  0.0851 -0.2321 -0.2159
32725W        W75716  31.866  16.471  17.502 -0.1728 -0.0686 -0.3196
32726W        W75717   0.290  16.901  19.073  0.0231 -0.0263 -0.0528
32727W        W75718   1.932   2.376   9.032  0.0934  0.5107 -0.2126
32728W        W75719  10.834  25.170  17.369  0.0673  0.0460 -0.1868
32729W        W75720  21.217  10.278   6.521  0.0515 -0.0940 -0.1479
32730W        W75721  23.381   8.388  14.227  0.1057 -0.1559  0.1814
32731W        W75722  33.368   5.927  27.822 -0.1080 -0.0437 -0.0308
32732W        W75723   7.614  34.112   3.146  0.2738  0.2449  0.4040
32733W        W75724  18.576   1.558  21.262  0.0331  0.4221 -0.1976
32734W        W75725  34.202  10.327   2.129  0.0473 -0.1618  0.2014
32735W        W75726  26.863  27.917   3.280  0.0575 -0.0928  0.2516
32736W        W75727  18.131   8.174  20.558  0.1233 -0.2138 -0.0518
32737W        W75728  31.937  10.759  24.640 -0.0657  0.2085  0.0931
32738W        W75729   9.373   3.841   7.773  0.2296  0.2428 -0.0121
32739W        W75730   2.601   8.063  22.183  0.2970  0.0618 -0.6200
32740W        W75731   3.054   8.417   1.121  0.0939 -0.1850  0.0720
32741W        W75732   1.887   1.089   8.923 -0.3438 -0.1191  0.1787
32742W        W75733  29.445   6.942  21.642 -0.2596  0.0014 -0.1527
32743W        W75734   1.741  13.166  18.398  0.1977 -0.0547  0.3577
32744W        W75735   6.580   5.721  14.961  0.3002 -0.0519  0.0260
32745W        W75736  29.928   5.880  24.508 -0.1591 -0.0526 -0.3881
32746W        W75737  30.134   7.606   8.721  0.2771  0.2139 -0.1859
32747W        W75738  30.484  32.001  21.277 -0.0935  0.0375 -0.2267
32748W        W75739  33.278   1.488  14.761 -0.0870  0.0053  0.0182
32749W        W75740  15.276   5.716  19.871  0.1509 -0.1989 -0.0825
32750W        W75741  27.125   5.858  14.363 -0.1574 -0.0941  0.0938
32751W        W75742  31.438   6.101  24.448 -0.1881  0.0294  0.0094
32752W        W75743   7.030  34.382  19.359  0.3106  0.0894  0.0139
32753W        W75744  26.435   3.943  27.306  0.3709  0.0242  0.1366
32754W        W75745  30.773   7.494  25.523 -0.0629 -0.1997  0.0998
32755W        W75746  29.996  31.323  24.358 -0.1537 -0.1268  0.2229
32756W        W75747   8.236  10.411  16.459  0.1305 -0.0667 -0.2806
32757W        W75748  28.935   0.325   1.202 -0.0012  0.0341 -0.1135
32758W        W75749   2.162   9.099  16.273 -0.2985 -0.0693  0.2619
32759W        W75750  26.581   7.935  18.348  0.0075 -0.2595 -0.1387
32760W        W75751   0.311   7.866   6.297  0.0240  0.0586  0.1414
32761W        W75752  25.443   9.788  26.511 -0.1661 -0.1535 -0.1979
32762W        W75753  34.627  13.499  18.800 -0.0264  0.0092 -0.0944
32763W        W75754  26.560   9.510   8.844 -0.0899 -0.1225  0.0456
32764W        W75755   8.864  29.255  16.408  0.0640  0.0399  0.1295
32765W        W75756   4.388  34.321   5.708  0.1034  0.2785  0.1073
32766W        W75757  31.712  12.994  25.620 -0.1165 -0.0728  0.0173
32767W        W75758  24.708   8.141  14.084 -0.0039 -0.1763 -0.2252
32768W        W75759   2.759   2.085  15.622  0.1040 -0.0465 -0.2493
32769W        W75760  29.300  11.786  17.307 -0.1106  0.0663 -0.2211
32770W        W75761  25.900   1.670   5.118 -0.2244 -0.1903 -0.3623
32771W        W75762  27.852  15.302   8.082  0.2571 -0.0521  0.0809
32772W        W75763  30.633   6.245   4.399 -0.0475 -0.0040 -0.0809
32773W        W75764  31.559  10.130   5.519 -0.2496  0.3487 -0.0290
32774W        W75765  31.105  30.638  28.211 -0.1335 -0.0385  0.3159
32775W        W75766  25.019   2.776  16.967 -0.2343 -0.1677 -0.1356
32776W        W75767   1.343  19.380  10.131  0.0496  0.0671  0.1368
32777W        W75768   4.419  34.446   4.708  0.2572  0.1676  0.0869
32778W        W75769  16.495   3.442  16.583 -0.0198  0.1508  0.2250
32779W        W75770  16.719   7.194  25.214 -0.0442  0.3549 -0.0822
32780W        W75771  32.593  15.757  28.726  0.1689 -0.3828  0.0787
32781W        W75772   4.643  30.143  17.596  0.1088  0.5487 -0.2571
32782W        W75773  28.232  32.640   1.627 -0.0159 -0.2218  0.2025
32783W        W75774  28.018  27.454  27.724  0.1572 -0.0744 -0.1799
32784W        W75775   3.746  22.022  25.434  0.3240  0.0049 -0.0687
32785W        W75776   1.114  13.389  27.045 -0.1089  0.0276 -0.0534
32786W        W75777  17.597  11.505  13.925 -0.0310 -0.1834 -0.0663
32787W        W75778  21.200   0.309   5.684 -0.0347 -0.0294 -0.0969
32788W        W75779  30.682  17.392  28.411 -0.1898 -0.2361  0.0361
32789W        W75780  17.752   8.767  18.841 -0.2188 -0.1116 -0.2017
32790W        W75781  28.008  28.759  15.928 -0.2237 -0.3845 -0.1391
32791W        W75782  16.414  26.683   1.937  0.1572 -0.0606  0.4496
32792W        W75783  20.985   3.315   2.580  0.1916  0.0239 -0.0186
32793W        W75784  30.649   9.247  19.745  0.3745  0.0942  0.0702
32794W        W75785  22.147   3.135   0.780 -0.2180 -0.0227 -0.1225
32795W        W75786  27.383  30.827  19.005 -0.1828  0.1714  0.0729
32796W        W75787  26.110   8.747  27.600  0.2653 -0.1201 -0.0532
32797W        W75788  27.330  34.008  15.203 -0.1283 -0.2969 -0.0352
32798W        W75789  29.247  15.809   5.101 -0.3082  0.1396  0.0997
32799W        W75790  25.781  16.289  16.023 -0.2185 -0.0906 -0.0537
32800W        W75791  22.771  13.197  26.942 -0.0900 -0.1265 -0.1017
32801W        W75792  32.940  31.854  17.398 -0.0997  0.0001 -0.3373
32802W        W75793  27.255  28.818  14.372 -0.1501  0.1307  0.0429
32803W        W75794  21.433   9.208   1.830  0.0604  0.1010  0.2842
32804W        W75795  18.127   9.205  14.093  0.0722 -0.2715 -0.0187
32805W        W75796  28.091  30.871  12.840  0.2252  0.1742 -0.3981
32806W        W75797  28.728  11.498  28.822 -0.3125 -0.0716 -0.1009
32807W        W75798   8.589  32.090  23.713 -0.1186  0.1007  0.1393
32808W        W75799  18.745  12.022  25.007  0.0098 -0.1236 -0.3758
32809W        W75800  26.871   8.717   5.116  0.1402 -0.1368  0.0037
32810W        W75801  16.113  11.459  17.335  0.1670 -0.2500 -0.0516
32811W        W75802  32.597   4.162  24.460 -0.0964  0.3267 -0.1767
32812W        W75803  10.607  16.479  25.481  0.0700  0.2984 -0.3421
32813W        W75804  26.914   6.396   1.614 -0.0490 -0.4440  0.0605
32814W        W75805  34.136  28.036  22.928 -0.0380 -0.0363 -0.1292
32815W        W75806  16.643   4.499   1.299  0.1175  0.0665 -0.0546
32816W        W75807   3.641   9.301  23.958 -0.0834 -0.2198  0.2771
32817W        W75808   2.890  11.589  20.929  0.0560 -0.2436 -0.2106
32818W        W75809  33.153  23.296   7.691 -0.0257  0.0254  0.0780
32819W        W75810  16.273  29.904  25.619 -0.0195  0.3871  0.1078
32820W        W75811  22.991   6.621   2.234 -0.0638 -0.1352 -0.3712
32821W        W75812   7.942  11.569  15.518 -0.0385  0.3188 -0.0371
32822W        W75813   1.932   0.783  15.684 -0.0096 -0.4150 -0.0166
32823W        W75814   7.267   9.816  23.853 -0.1749  0.0239 -0.1993
32824W        W75815  22.036   5.626  22.894  0.0954  0.2161 -0.1384
32825W        W75816   3.582  34.198   1.097  0.3991  0.0933 -0.0028
32826W        W75817   3.435   5.864  27.480 -0.0172 -0.0812 -0.0864
32827W        W75818   5.603  12.266  21.428 -0.0499 -0.1545  0.1150
32828W        W75819  29.287  30.414  29.200  0.2214  0.1587 -0.1663
32829W        W75820  24.639   1.324   2.494  0.2035  0.2489 -0.1068
32830W        W75821  30.789   9.759   3.782 -0.1163 -0.0586 -0.4194
32831W        W75822  32.655   6.288  26.645 -0.2844  0.1232  0.0487
32832W        W75823  21.644   7.874   6.920  0.1342 -0.1430  0.2573
32833W        W75824  33.480  33.533  18.337  0.2591  0.0214 -0.3278
32834W        W75825  11.829  14.097  14.541  0.1235 -0.2334 -0.0007
32835W        W75826  17.237  30.654  24.497  0.1866 -0.0297 -0.1233
32836W        W75827  18.535   4.576  19.834 -0.2034 -0.0527 -0.0530
32837W        W75828  22.207  24.949   0.713  0.0182 -0.2330  0.0501
32838W        W75829   5.770   7.434  24.607 -0.4611  0.1075  0.0687
32839W        W75830  34.309   5.237  17.703  0.1159  0.1587  0.0385
32840W        W75831  27.119  11.338  17.674  0.1575  0.1267 -0.2704
32841W        W75832  32.412   8.620  26.043 -0.2583 -0.0828  0.1136
32842W        W75833  34.249  23.239  20.782  0.2153 -0.2500  0.0698
32843W        W75834   3.711  12.814  23.826  0.2068  0.0366  0.3158
32844W        W75835  16.580  20.241  15.346 -0.2443  0.1478 -0.0876
32845W        W75836  27.848   0.064  25.599  0.0706 -0.2095 -0.3843
32846W        W75837   0.710  16.100   1.969 -0.1675  0.0493 -0.3566
32847W        W75838  28.576   4.227   8.224 -0.0367 -0.0910 -0.2454
32848W        W75839  18.793   5.783  19.285 -0.1817  0.0938  0.1155
32849W        W75840  10.906  33.785  27.851 -0.1401  0.0985 -0.3621
32850W        W75841  33.697  34.098  28.116  0.1519  0.4305 -0.1346
32851W        W75842  11.619   2.691   5.233  0.2732  0.0687  0.1041
32852W        W75843   1.739   6.446  27.519 -0.2605  0.2103 -0.0330
32853W        W75844  29.894   7.920  16.831  0.2675  0.2645  0.3309
32854W        W75845   1.721   0.878  17.759  0.0386  0.0169  0.0093
32855W        W75846  14.150  32.223  18.643  0.0178  0.1302 -0.3158
32856W        W75847   3.295  25.068   6.246  0.0179  0.0099  0.3482
32857W        W75848  24.751   1.486  24.777  0.0725  0.0074  0.1805
32858W        W75849  33.094   2.959   4.634 -0.0504 -0.0430 -0.0511
32859W        W75850  28.995   4.870  24.965  0.1237 -0.0552  0.1271
32860W        W75851   1.092   6.420  22.353 -0.2472  0.1561 -0.1488
32861W        W75852  18.279   7.840  15.845  0.3243  0.2017 -0.0780
32862W        W75853  31.642  20.160  17.681  0.1692  0.1642 -0.3438
32863W        W75854  26.011   5.518  18.571 -0.1082 -0.4503 -0.2479
32864W        W75855  10.954  13.391  24.511  0.0948 -0.2826  0.4503
32865W        W75856  28.145   6.695  14.034  0.1419 -0.1980  0.1596
32866W        W75857  22.151  25.245   5.868 -0.1160  0.0006 -0.1131
32867W        W75858   3.201  12.920  23.449 -0.1961 -0.2662 -0.1466
32868W        W75859  29.549  13.050  21.684 -0.5140  0.1379  0.1300
32869W        W75860   9.010  22.077   9.007 -0.2740  0.5383  0.0904
32870W        W75861   2.502  12.393  17.718  0.2919 -0.1450  0.0526
32871W        W75862  32.152   2.898  26.195  0.0988  0.1386  0.0435
32872W        W75863  28.782  34.045  14.809  0.2110 -0.1422  0.2222
32873W        W75864  16.796   1.518  24.020  0.0483 -0.4500  0.4088
32874W        W75865  33.205  18.547  25.624  0.0038  0.1069 -0.0755
32875W        W75866  14.070   8.471  26.111 -0.1143 -0.2519 -0.1108
32876W        W75867   9.927  15.655  26.873 -0.2687  0.1091  0.1599
32877W        W75868  29.210   1.798  27.128 -0.1984 -0.0225  0.0794
32878W        W75869  27.115   7.128  17.326 -0.0108  0.0726 -0.1414
32879W        W75870  18.804  22.048  14.897 -0.1985  0.3195  0.1047
32880W        W75871  22.472  12.412  18.998 -0.4327 -0.1330 -0.1571
32881W        W75872  22.621  11.420  17.890  0.0395  0.1431 -0.0653
32882W        W75873  15.393  33.512  21.086  0.0270 -0.0905 -0.0181
32883W        W75874   9.783   1.874  26.738 -0.4210 -0.0854 -0.0118
32884W        W75875   0.914  32.646   4.176 -0.0699 -0.0048  0.0462
32885W        W75876  23.336  32.708   2.595 -0.1361  0.1319 -0.1172
32886W        W75877   0.262  14.382  19.781 -0.2774  0.4509  0.2117
32887W        W75878  20.149  16.335  24.651  0.1768 -0.4011 -0.1760
32888W        W75879  31.735  11.577  22.935  0.0514 -0.1502  0.0208
32889W        W75880   2.382   7.173  23.652 -0.0555  0.3775 -0.2256
32890W        W75881  14.703  34.578  24.073 -0.2546 -0.2615  0.1169
32891W        W75882   4.096  30.496   8.203  0.0293 -0.0407  0.0031
32892W        W75883  32.317  31.621  19.167  0.2735  0.1574 -0.0014
32893W        W75884   2.532   1.876  25.360  0.1712  0.2390 -0.0381
32894W        W75885  32.067  29.093  20.801  0.1691  0.1237 -0.2365
32895W        W75886  28.825   3.249  23.400 -0.0418  0.0319  0.2467
32896W        W75887   7.155  19.760  23.928 -0.3365 -0.1183  0.2651
32897W        W75888  17.095   0.582   4.067 -0.0730 -0.2150 -0.1127
32898W        W75889  16.351   1.306   1.457  0.1289 -0.2120  0.1624
32899W        W75890  29.319  30.736  22.085  0.2606 -0.1565 -0.2191
32900W        W75891  30.616  34.307  22.512 -0.6496 -0.1760 -0.1316
32901W        W75892  26.053  12.881  16.392 -0.1391  0.1736 -0.1329
32902W        W75893  16.824   9.741  28.129 -0.0336  0.0278 -0.1120
32903W        W75894  33.894  26.270  14.921 -0.1774 -0.0311 -0.0038
32904W        W75895  12.581  19.485  23.081  0.1431 -0.1120  0.2849
32905W        W75896  29.051  31.713  24.589  0.0669 -0.2308 -0.2008
32906W        W75897   1.608  14.304   4.990  0.1689  0.0736  0.0854
32907W        W75898  12.177  17.362  23.532  0.3514  0.2132  0.1965
32908W        W75899   1.831   7.155   0.682 -0.2031 -0.1658  0.0703
32909W        W75900  17.652  26.409  13.508 -0.2095 -0.0477  0.1001
32910W        W75901  31.152   3.997  24.249 -0.0241  0.3124 -0.0905
32911W        W75902   2.010  24.340  24.215  0.1360 -0.0461  0.1278
32912W        W75903  25.057  21.265  28.406 -0.0227  0.4987 -0.1712
32913W        W75904  28.529  17.477  27.326 -0.2991  0.1407  0.1036
32914W        W75905  20.805   4.218   3.463 -0.3646 -0.1766 -0.0477
32915W        W75906  32.286  29.564  28.726  0.1308  0.1040 -0.0410
32916W        W75907  24.433  23.439  18.929 -0.2800 -0.0819 -0.1657
32917W        W75908  34.011  31.943  24.029 -0.1928  0.2675 -0.1580
32918W        W75909  16.658  18.501  12.349  0.1555  0.3157  0.4785
32919W        W75910  30.581  32.168   4.334  0.2202  0.0255 -0.4806
32920W        W75911   4.522  21.582   7.145  0.1684  0.1221  0.0956
32921W        W75912  24.837   2.240  22.283 -0.0736  0.0949  0.1201
32922W        W75913  19.531   7.097  19.486 -0.3915 -0.1035  0.1430
32923W        W75914  32.649  12.451  21.100  0.1709  0.0888 -0.1649
32924W        W75915  32.984   1.515  19.953 -0.0147 -0.1255 -0.1901
32925W        W75916   7.159   1.703  19.933 -0.1867  0.0236  0.2629
32926W        W75917  10.672  23.280  13.721 -0.0536 -0.1217 -0.1793
32927W        W75918  10.109  15.582  17.870  0.0931 -0.2626 -0.1619
32928W        W75919   6.219  29.718  18.655  0.0011  0.0428 -0.1750
32929W        W75920   7.971  13.077  18.020 -0.1192 -0.0755 -0.1817
32930W        W75921  22.437  29.780  29.002 -0.0305 -0.1205  0.0931
32931W        W75922  25.641   8.881  13.618  0.0357  0.2233 -0.1217
32932W        W75923  23.039  11.240  27.028 -0.1173  0.2796  0.0182
32933W        W75924  23.571   5.794  28.936  0.3386 -0.0538  0.2815
32934W        W75925  27.381   4.913  27.936  0.0752  0.2051 -0.0233
32935W        W75926  31.789  16.972  19.264 -0.0858  0.0725  0.3272
32936W        W75927  29.276  32.881   1.930  0.2262 -0.1291  0.4794
32937W        W75928  22.639   1.663   0.441  0.0329 -0.2785  0.1233
32938W        W75929  24.338   9.160  20.707  0.3353 -0.1629 -0.3128
32939W        W75930   0.496   2.914   2.418 -0.0366 -0.1578 -0.1379
32940W        W75931  25.999  15.183  21.384 -0.4289  0.3082  0.4544
32941W        W75932  23.597  25.466  21.934  0.1843 -0.1140  0.2880
32942W        W75933   3.894  24.345  20.559 -0.1736  0.0989 -0.0134
32943W        W75934  25.184  19.235   9.119 -0.0717 -0.0540 -0.2197
32944W        W75935  20.563   2.799  21.224 -0.3698  0.1077 -0.1814
32945W        W75936  32.345   9.215   5.841  0.4162  0.0796  0.0873
32946W        W75937  17.397   9.661  20.087  0.1479 -0.2129 -0.0438
32947W        W75938  10.954   0.717  23.247 -0.2335  0.0640  0.1804
32948W        W75939   8.910  28.929  19.079  0.2774  0.1464 -0.0023
32949W        W75940  23.771  27.730   3.127  0.2242 -0.2445  0.1133
32950W        W75941   1.430  21.397  19.193  0.1456 -0.1524 -0.1354
32951W        W75942  25.455   0.799  16.431 -0.1286 -0.1163 -0.4017
32952W        W75943   9.728   5.312   6.597 -0.0806  0.0298 -0.1318
32953W        W75944  32.990  30.116  12.885  0.0194  0.0378 -0.0736
32954W        W75945   0.364  25.978   0.297  0.0164  0.0425  0.1533
32955W        W75946  32.060   0.721  25.353  0.1385 -0.0859 -0.5315
32956W        W75947  31.105  19.675  28.232  0.4177  0.1563 -0.4845
32957W        W75948  23.748   3.795  25.081 -0.3406 -0.1588  0.3804
32958W        W75949   6.715  10.815  21.245 -0.0273  0.2081  0.0794
32959W        W75950   4.553  13.337  24.198  0.1951  0.0172 -0.1146
32960W        W75951  26.948   3.732  19.495  0.0994  0.2425 -0.0387
32961W        W75952  29.018  18.332   4.121  0.1145 -0.1733  0.2368
32962W        W75953  23.405   6.882  23.264 -0.2066 -0.0133 -0.1156
32963W        W75954  19.974  17.668  25.322  0.0157 -0.2824  0.1957
32964W        W75955  33.296   2.250  27.038 -0.0372 -0.1537  0.1175
32965W        W75956   9.542   0.754  15.920 -0.0678 -0.0415 -0.0573
32966W        W75957  14.708  27.954  27.506 -0.0463 -0.1094  0.1236
32967W        W75958   2.762  18.377  27.333 -0.1717 -0.0277  0.0066
32968W        W75959  20.589   1.603  19.107 -0.0739  0.0537 -0.0208
32969W        W75960  10.588  30.303  22.275  0.1684 -0.1741 -0.0824
32970W        W75961   8.100   2.407   1.514  0.0254  0.0634 -0.1339
32971W        W75962  31.905  14.636   8.098  0.2339 -0.3495  0.0669
32972W        W75963  21.629  31.010  12.363 -0.0567  0.0525 -0.0917
32973W        W75964  24.251   4.684  20.783  0.0947 -0.1935 -0.1722
32974W        W75965  34.087  22.341  22.436  0.0012  0.0295  0.1662
32975W        W75966   0.487  23.807  28.824 -0.0706 -0.0475  0.0349
32976W        W75967  19.267  20.435  21.680 -0.2384 -0.0263 -0.0295
32977W        W75968  29.722  32.058   4.257  0.2119  0.0203  0.0035
32978W        W75969  11.012  15.364  26.953 -0.0370  0.2030 -0.0907
32979W        W75970  12.429  32.098  14.747 -0.1229 -0.4150  0.0440
32980W        W75971  13.137  24.821   0.536  0.2214 -0.4573  0.1517
32981W        W75972  18.489   3.014  19.542 -0.0296 -0.1959 -0.3338
32982W        W75973   4.418  31.846   9.586  0.2950  0.0299  0.1862
32983W        W75974  32.539  13.753  25.371 -0.0226  0.0198  0.1183
32984W        W75975  31.668   3.627  23.437  0.0018  0.2498 -0.0652
32985W        W75976   5.742   9.124  16.212  0.2182 -0.5069 -0.1131
32986W        W75977  11.113  10.252  26.275 -0.1188  0.1084  0.0055
32987W        W75978   4.347  24.273  18.696 -0.0539  0.1276  0.0928
32988W        W75979   4.639  12.136  24.239 -0.2509 -0.0529  0.2053
32989W        W75980  25.972  17.523  17.821 -0.0131  0.0114  0.0248
32990W        W75981   8.651   0.066  25.898 -0.0172 -0.0485  0.0713
32991W        W75982  32.240  32.817  18.307  0.1154 -0.0817  0.1324
32992W        W75983  21.877   4.794  20.127  0.0403 -0.0490  0.1760
32993W        W75984  29.273   3.418  22.362  0.2986  0.3212 -0.1558
32994W        W75985  27.731   9.943   7.366  0.1033 -0.1163  0.0282
32995W        W75986  29.603   5.354   2.045  0.3269 -0.2150  0.0043
32996W        W75987  29.258  34.145   2.620  0.0611 -0.1807  0.1807
32997W        W75988  33.880   4.418   1.577 -0.0290  0.1441 -0.0213
32998W        W75989  32.687  29.275   3.392 -0.0016 -0.0396  0.1513
32999W        W75990  28.594   5.378   5.200 -0.2784  0.2787  0.1296
33000W        W75991  34.304  32.004  17.555  0.0395 -0.3265  0.2916
33001W        W75992  32.302  16.369  10.437 -0.2181  0.0173  0.0068
33002W        W75993   0.745   8.906  20.714 -0.0938 -0.2059  0.0285
33003W        W75994  32.934  17.828  26.662 -0.0049  0.1611 -0.1340
33004W        W75995  32.610   4.663  28.532  0.1571  0.0306  0.1218
33005W        W75996   6.458  32.582  16.424  0.1604 -0.0702  0.4723
33006W        W75997   6.917  19.142  17.354  0.0568 -0.1735 -0.0132
33007W        W75998   2.046   6.839  24.975 -0.2267  0.0385 -0.1959
33008W        W75999   3.346  32.325  16.363 -0.0120  0.3884  0.0371
33009W        W76000   3.498  25.238  23.351  0.2982  0.0902 -0.0703
33010W        W76001  18.051  24.779  17.873  0.0886 -0.3270 -0.1335
33011W        W76002  30.702   7.742  27.430  0.2419  0.2838  0.0602
33012W        W76003  33.056   8.686  26.779  0.0822  0.0315 -0.2797
33013W        W76004  15.886  19.348   2.273  0.5688  0.2119  0.1207
33014W        W76005  22.813  15.559  14.539  0.1096 -0.0226 -0.1079
33015W        W76006  14.564  34.764  25.988  0.0162 -0.0134  0.2108
33016W        W76007  16.409  10.832  18.152  0.1710  0.0050  0.0233
33017W        W76008   5.225   3.429   1.299 -0.1390  0.0261  0.1825
33018W        W76009  23.942  16.851  22.854  0.0178 -0.1325 -0.0997
33019W        W76010  13.713  17.034  23.684  0.0945  0.2024  0.1449
33020W        W76011  31.769  17.387   0.828  0.2109 -0.1628 -0.0864
33021W        W76012   2.232   8.579  27.759 -0.2975 -0.0967  0.0932
33022W        W76013  15.517   1.691  21.187 -0.1257 -0.3524 -0.0954
33023W        W76014  27.997  28.025  16.456 -0.2613 -0.0710  0.1161
33024W        W76015   3.800   4.035  26.578 -0.0330  0.1962 -0.1089
33025W        W76016  23.145   2.259  22.523  0.3695  0.2907  0.0505
33026W        W76017  30.983  34.616  17.139  0.1565  0.0673  0.2021
33027W        W76018  19.427  10.781  23.252  0.0934 -0.1475  0.0951
33028W        W76019  29.874  12.885   0.974 -0.0660  0.0984 -0.1050
33029W        W76020  32.952   4.495   5.568  0.0920 -0.1114  0.1246
33030W        W76021  25.564   4.406  16.467 -0.0752 -0.0329  0.0200
33031W        W76022  34.628   6.282  22.195  0.1261 -0.1577 -0.2290
33032W        W76023  27.509  16.783  15.536 -0.1243 -0.2572  0.0070
33033W        W76024   2.929   9.344   9.156  0.3874  0.1296 -0.1129
33034W        W76025  11.344  28.614  19.365  0.0304  0.1086 -0.0785
33035W        W76026  33.004  11.410   1.557 -0.0955  0.0480 -0.0890
33036W        W76027  28.133  13.225  14.640 -0.1634  0.0356 -0.3276
33037W        W76028  28.706  20.031  18.957 -0.1648 -0.3067  0.2623
33038W        W76029  16.969  10.727  16.266  0.1972 -0.1138  0.0779
33039W        W76030  31.816  16.489   0.556 -0.0629  0.2509 -0.2492
33040W        W76031  31.361   5.628   1.150  0.1267  0.3328 -0.1491
33041W        W76032  22.086  33.508   6.670  0.2475  0.1489  0.1931
33042W        W76033   0.410  31.378   4.156  0.0158 -0.0440 -0.0635
33043W        W76034  31.435  10.430   2.705 -0.0719  0.0841  0.0684
33044W        W76035  31.957  16.223  10.753  0.1153 -0.2396 -0.0470
33045W        W76036  28.935  15.084   9.518  0.0366 -0.3609 -0.3854
33046W        W76037  27.910  30.492   6.939  0.1440 -0.0865  0.1268
33047W        W76038  32.080  21.957   3.518  0.1990 -0.0767 -0.1184
33048W        W76039  28.563  25.661   7.267  0.1539  0.0549 -0.3197
33049W        W76040   9.373  12.392  27.421 -0.0470  0.3536 -0.3840
33050W        W76041  29.528   6.372  21.671  0.1092  0.0137 -0.2590
33051W        W76042  28.009  27.619   0.961  0.1127  0.2112  0.1069
33052W        W76043  30.581  29.916   5.606 -0.1046 -0.3265  0.0895
33053W        W76044  25.294   2.240  13.464  0.1560 -0.1298 -0.1847
33054W        W76045  30.025  27.064  25.716  0.2076 -0.2792 -0.2155
33055W        W76046   0.919  28.171  23.367  0.2784 -0.3132  0.0209
33056W        W76047  11.629  11.907  16.805  0.4121  0.1028  0.0289
33057W        W76048  29.996   3.720  21.012 -0.1338  0.1053 -0.2384
33058W        W76049  19.644  12.316  24.325  0.0407 -0.0356  0.0982
33059W        W76050  25.533  31.232  29.115  0.0543  0.1637  0.2803
33060W        W76051  24.331  29.002  13.826  0.0749  0.0991  0.0857
33061W        W76052  11.287   8.972  29.046 -0.0749 -0.0886  0.2912
33062W        W76053  32.070  16.666  16.951  0.7156  0.2758 -0.2408
33063W        W76054  34.756  22.522  27.194 -0.0693 -0.0591 -0.2734
33064W        W76055  19.019  25.384   0.452 -0.2476  0.0776 -0.1455
33065W        W76056   1.268  28.980   0.548 -0.2002  0.1139 -0.1984
33066W        W76057   2.535   8.558   0.615  0.1955 -0.1031  0.1855
33067W        W76058   4.023   4.964  26.832 -0.0946  0.1209 -0.2568
33068W        W76059  14.940  33.675  24.665 -0.0979  0.0634 -0.3289
33069W        W76060  32.661  31.415  20.121 -0.1584 -0.4732  0.1758
33070W        W76061  28.228   7.898   6.125 -0.1016  0.0357 -0.0891
33071W        W76062  30.794  15.921   6.154  0.2328 -0.2224 -0.0868
33072W        W76063  33.366  15.225  24.633 -0.0181  0.0974  0.0089
33073W        W76064  22.532  15.023  22.952  0.4222 -0.4722  0.0430
33074W        W76065  31.792  14.310  27.239  0.2314  0.1124 -0.2299
33075W        W76066   6.934   1.325  17.845 -0.0105 -0.0259  0.1699
33076W        W76067  31.613  32.081  18.357 -0.1113  0.1462 -0.5271
33077W        W76068  11.321  12.960   8.266 -0.0125  0.0016  0.0135
33078W        W76069   1.043   5.478  26.488 -0.2763  0.2002  0.2940
33079W        W76070  27.578  23.356   5.255 -0.0686 -0.0933  0.0403
33080W        W76071   8.926   3.879  21.887 -0.0180  0.0570 -0.0576
33081W        W76072   2.285  23.155  23.249  0.1091 -0.0954 -0.0902
33082W        W76073  28.300   1.613   2.367  0.0442 -0.4978 -0.1218
33083W        W76074  15.626   4.259  23.187  0.5056  0.0302 -0.3024
33084W        W76075  17.377   2.384   7.973 -0.1999 -0.1335  0.1197
33085W        W76076   2.020  11.487   4.557  0.2975 -0.0452  0.0778
33086W        W76077   3.677  32.989  21.050 -0.2471  0.0300  0.1741
33087W        W76078  33.246   8.292  19.449 -0.1806  0.2529  0.4113
33088W        W76079  27.169  11.334  22.176 -0.0095  0.2553 -0.0534
33089W        W76080  21.259  12.654  13.783  0.5105  0.2870  0.0756
33090W        W76081   2.830  13.126  11.422 -0.0385  0.1219  0.0515
33091W        W76082  32.719   5.814  26.708  0.0691  0.0521  0.2182
33092W        W76083  18.598   5.258   4.946  0.1259 -0.1462 -0.0499
33093W        W76084  14.632  14.664   0.492  0.4173 -0.0172  0.0354
33094W        W76085  26.140   4.780  15.221 -0.0124 -0.1184  0.2381
33095W        W76086  33.548   5.366  18.071 -0.0554 -0.0935 -0.0672
33096W        W76087  33.180  33.474   6.327 -0.0715  0.3190 -0.0610
33097W        W76088  23.020  19.437   3.343  0.0083  0.0126  0.2192
33098W        W76089  24.925   6.123  18.898 -0.3528  0.0696 -0.2461
33099W        W76090  32.191   3.258  17.447  0.0132 -0.2242 -0.2472
33100W        W76091  11.450   3.146   0.053  0.0904 -0.2714 -0.2377
33101W        W76092   8.506   9.428  23.955  0.0917  0.2310 -0.0078
33102W        W76093   2.005  34.452  28.126  0.1693 -0.2781 -0.0393
33103W        W76094   0.493  10.874   5.695 -0.2583  0.1482 -0.0319
33104W        W76095   5.813   7.972   1.129 -0.0269 -0.0184  0.0559
33105W        W76096  16.296   0.855  14.277 -0.2188  0.1473  0.0721
33106W        W76097   4.778  14.159  21.372  0.3180  0.2256  0.0606
33107W        W76098  18.111   4.116  17.541 -0.2157 -0.2007  0.0661
33108W        W76099   6.834   2.372  26.287 -0.0162 -0.3335  0.1489
33109W        W76100  33.095  15.852   8.054  0.3746 -0.0700  0.0293
33110W        W76101  24.635  34.253   0.610 -0.1134  0.0972  0.1759
33111W        W76102  27.389  22.528  23.313 -0.1562  0.3549  0.3085
33112W        W76103  23.224   8.065  18.396  0.2045 -0.1086 -0.3160
33113W        W76104  33.407  28.097   6.179 -0.0331  0.0837 -0.1327
33114W        W76105  24.886  34.193  19.094 -0.0752 -0.1399  0.0932
33115W        W76106  31.034   7.627   2.453 -0.0778  0.1411 -0.2130
33116W        W76107  22.060  14.989  27.390  0.0539 -0.1083  0.0979
33117W        W76108  30.902   2.480   5.119 -0.2500 -0.3029 -0.1623
33118W        W76109  26.877  24.594  20.354 -0.2672  0.1536 -0.1739
33119W        W76110   5.086  11.959   9.220  0.0198 -0.1415 -0.0522
33120W        W76111  16.644  23.278  15.955  0.3426 -0.2951  0.1557
33121W        W76112  29.787   9.862   6.260  0.0932 -0.1454 -0.0402
33122W        W76113  26.900  19.105  27.540 -0.1571 -0.1819  0.0193
33123W        W76114  24.470  15.354  13.924  0.3133  0.1300  0.1901
33124W        W76115  29.327   9.001   9.206 -0.3077 -0.2709 -0.1074
33125W        W76116  30.507  30.394  24.118 -0.1307  0.3263 -0.1763
33126W        W76117  22.951   7.310  23.680  0.0157 -0.0713 -0.0157
33127W        W76118  26.616   4.005   1.872  0.1813  0.0315 -0.0540
33128W        W76119  26.743  31.870  29.259 -0.0667 -0.2062  0.1305
33129W        W76120   9.385   1.645  29.252 -0.0376  0.1372 -0.0341
33130W        W76121  14.318  24.902   4.268  0.0799 -0.3865 -0.2672
33131W        W76122  14.577   4.556  24.672 -0.2208  0.0440 -0.1889
33132W        W76123   6.287  10.635   2.513 -0.1750  0.0887  0.2694
33133W        W76124  29.693  21.640   3.124  0.0259  0.2225  0.2423
33134W        W76125  24.460  28.741  15.906  0.0474  0.1232 -0.2006
33135W        W76126  25.796   8.833  26.033 -0.3551 -0.2534  0.0544
33136W        W76127  26.692  10.561  26.273  0.0814  0.0054  0.4626
33137W        W76128  22.799   5.635  20.258 -0.1963 -0.1955  0.1052
33138W        W76129  29.467  21.156  21.028 -0.0094 -0.3019 -0.1300
33139W        W76130  28.115  31.896  24.779  0.1638  0.1056  0.1717
33140W        W76131  33.384  11.639  25.352  0.0884 -0.0134  0.2590
33141W        W76132  22.388  13.097   9.122 -0.0637  0.2429  0.1474
33142W        W76133  21.961   0.221   8.551  0.0547  0.0819  0.0967
33143W        W76134   6.555   7.852   5.248  0.3687  0.0346 -0.1206
33144W        W76135   0.476  32.530   2.346 -0.1074  0.1658 -0.0339
33145W        W76136   3.867  32.626  10.642 -0.1182  0.2771 -0.0387
33146W        W76137  24.223   3.951  28.435 -0.3600 -0.0055 -0.0285
33147W        W76138  18.054  18.801   3.425 -0.3805  0.0287 -0.0662
33148W        W76139   6.238  33.953   3.932  0.0932  0.1427 -0.4617
33149W        W76140   5.490  20.544   7.593  0.0546  0.0858  0.0000
33150W        W76141  20.704  13.020  17.352 -0.1773 -0.0035  0.0264
33151W        W76142  18.516   8.726  28.503  0.2608 -0.1359  0.1168
33152W        W76143  11.064   8.003   5.111  0.3216  0.2173 -0.4961
33153W        W76144   7.010  31.675  24.834 -0.1372  0.2148 -0.2079
33154W        W76145  34.597   6.290  28.695 -0.2195  0.1615 -0.1746
33155W        W76146  26.349   8.173  28.654 -0.0570 -0.1339 -0.2010
33156W        W76147  17.172  18.772   5.875 -0.2749 -0.2490 -0.0598
33157W        W76148  12.434   6.846  14.654  0.0462  0.2136 -0.1477
33158W        W76149  18.617  12.969  24.967  0.0284 -0.1109 -0.1108
33159W        W76150  33.600   4.755   0.813 -0.0469  0.2196 -0.2220
33160W        W76151   0.947   4.420  14.922 -0.1208 -0.2255 -0.0753
33161W        W76152   2.335   4.109   7.482  0.1032 -0.0091  0.1730
33162W        W76153   6.074  15.681  19.732 -0.1051  0.0062 -0.1931
33163W        W76154  32.070  24.610   7.384  0.0128 -0.0270  0.2026
33164W        W76155  31.492   7.715   2.174  0.0379 -0.0489  0.0422
33165W        W76156   2.941  23.907  25.623 -0.2443 -0.1413 -0.0052
33166W        W76157  33.061  23.155  27.648  0.0112  0.4082 -0.2130
33167W        W76158  11.966   8.378   5.724 -0.0581 -0.0102  0.0409
33168W        W76159   5.213  17.789   0.184  0.2261  0.1544  0.1573
33169W        W76160   7.959  32.995  14.767 -0.0391 -0.1266  0.1404
33170W        W76161  23.509  16.284  18.923 -0.0629  0.1998  0.1885
33171W        W76162  20.760  32.183  25.362 -0.0074 -0.1017  0.1489
33172W        W76163  26.300  30.733  20.517 -0.1737 -0.2500 -0.3212
33173W        W76164  27.130  33.075   0.114  0.1263  0.0768  0.0399
33174W        W76165  34.229  32.108  19.244 -0.0377  0.0184  0.1645
33175W        W76166  26.966  20.110  26.022  0.1128  0.1129 -0.1157
33176W        W76167  25.413  33.689   6.594 -0.1325 -0.0184 -0.2382
33177W        W76168  24.201   2.796  13.816 -0.1254 -0.1014 -0.0619
33178W        W76169  11.109  12.001  28.259  0.0827  0.2473  0.1725
33179W        W76170  33.378   0.942  16.799  0.0138  0.1320  0.1752
33180W        W76171  25.281  22.290  24.043  0.2053  0.4090 -0.0775
33181W        W76172  27.121  22.210   4.613  0.2230 -0.1693 -0.0753
33182W        W76173  26.321   6.619   3.401 -0.0382  0.2841 -0.2047
33183W        W76174  23.924   9.014  21.794 -0.0962  0.1209 -0.0976
33184W        W76175  29.172   3.061  28.367 -0.0816 -0.0437  0.1973
33185W        W76176   2.022  22.181  26.610 -0.3057 -0.1327 -0.1626
33186W        W76177  10.526  14.267   0.582 -0.1051 -0.1937  0.1995
33187W        W76178  14.105   1.183   7.706  0.0796  0.2235 -0.0901
33188W        W76179  31.434  11.486   6.912  0.3053 -0.3675  0.1887
33189W        W76180  27.058   4.632   5.511  0.0941 -0.0632  0.0469
33190W        W76181  25.952  17.779  21.063 -0.2381  0.0306 -0.0829
33191W        W76182  20.257  34.124   0.649  0.1119 -0.1461  0.0956
33192W        W76183   6.781  13.703   1.810  0.0651  0.1357 -0.1288
33193W        W76184  11.545  34.065   3.672 -0.2287 -0.1145  0.2838
33194W        W76185  28.036  12.755  29.124  0.1834  0.3637  0.0407
33195W        W76186  32.048   8.105  26.907  0.2799  0.0745 -0.0623
33196W        W76187  33.517  30.398  19.207 -0.4974 -0.0833 -0.0377
33197W        W76188  29.957  10.568   2.813  0.1958  0.0865  0.0178
33198W        W76189  23.068   5.622   2.525 -0.0211 -0.0027  0.0415
33199W        W76190  26.935  33.862   8.300  0.2052  0.0793  0.1732
33200W        W76191  30.741   2.962  25.133 -0.5322 -0.0215 -0.0547
33201W        W76192  26.631   7.565   3.318  0.0947 -0.1806  0.2348
33202W        W76193  22.661  32.048  21.486  0.2690 -0.0668 -0.2446
33203W        W76194  29.376  31.777   6.475  0.0778  0.2146  0.2467
33204W        W76195  11.854   6.423   1.798  0.0700 -0.0116  0.0707
33205W        W76196  33.676  31.993  28.346 -0.1823  0.2193  0.1286
33206W        W76197  15.629  22.039  22.430 -0.4880  0.2145 -0.0120
33207W        W76198  34.580   3.487   6.578  0.0773  0.3350 -0.1721
33208W        W76199   2.651   4.108  20.377  0.0824  0.0555  0.0711
33209W        W76200  11.308  23.544  26.484 -0.1508  0.0818 -0.3567
33210W        W76201   6.248   8.992  26.267 -0.2523  0.0823 -0.0563
33211W        W76202  25.705   8.579   0.531 -0.2095 -0.1381  0.2160
33212W        W76203  21.080  13.736  24.921  0.2206 -0.1699 -0.0440
33213W        W76204  30.122   3.905  22.442 -0.0093 -0.2128 -0.1495
33214W        W76205  24.787   0.226  14.954  0.2766 -0.0238  0.3354
33215W        W76206  25.359   8.925   1.738  0.0096 -0.0279 -0.0945
33216W        W76207  31.761   8.130  17.735 -0.1411 -0.3828 -0.1396
33217W        W76208   1.938  10.658  20.947 -0.0708  0.2643  0.1322
33218W        W76209  27.483  33.039   8.608 -0.0157 -0.2595  0.2324
33219W        W76210  24.140   2.713   5.622  0.1012  0.0176 -0.1331
33220W        W76211  32.309   0.137   6.385 -0.0350 -0.1774 -0.1495
33221W        W76212   2.838   8.952   6.077  0.0775 -0.0043  0.0276
33222W        W76213   0.832  30.026   5.314 -0.1602 -0.1871 -0.0043
33223W        W76214   6.371  31.636  14.009  0.1076  0.0755  0.5006
33224W        W76215  30.775   0.500  20.092  0.1598  0.3910  0.3791
33225W        W76216   6.209  18.052   1.003 -0.3259 -0.0748  0.0266
33226W        W76217   6.441   6.321   6.408 -0.2577 -0.0731  0.2541
33227W        W76218  32.637  27.897   0.016  0.0204  0.2039  0.3583
33228W        W76219   9.626   5.563  27.967  0.0435 -0.0330  0.0275
33229W        W76220   7.348   0.551  24.317  0.1257 -0.1684 -0.0121
33230W        W76221  32.024   6.068  21.568  0.0036  0.1920 -0.2111
33231W        W76222  12.132   3.128   0.667 -0.1147 -0.1359  0.1166
33232W        W76223  27.813   0.151  13.394  0.2115  0.4013 -0.0368
33233W        W76224  31.299  30.033   5.024  0.0808  0.1543  0.2026
33234W        W76225   2.518  24.356  20.701 -0.0275 -0.1960 -0.0382
33235W        W76226  26.602   4.530  20.985  0.3168  0.4244 -0.0229
33236W        W76227  11.876  10.662  27.696  0.1507  0.1410 -0.3064
33237W        W76228   0.158  15.778   4.456  0.0486  0.0629 -0.1292
33238W        W76229  28.459   3.603  23.243  0.0740  0.1314  0.2368
33239W        W76230  21.518  26.989  17.736  0.0550  0.1557 -0.0116
33240W        W76231  31.296  29.362   7.752  0.3765  0.1569 -0.2906
33241W        W76232  32.753   4.904   0.832  0.0367 -0.0771  0.0743
33242W        W76233   8.112  31.753  14.875 -0.4732  0.0948  0.0758
33243W        W76234  12.691  10.687  27.225  0.3823 -0.0274  0.1309
33244W        W76235  15.694  13.140   8.520  0.0565 -0.1460 -0.0335
33245W        W76236   1.387  33.280   2.864 -0.3330 -0.0095  0.4867
33246W        W76237  20.446  22.770   3.059 -0.3969 -0.0561 -0.2056
33247W        W76238  10.316  28.010  18.490  0.1105  0.5897 -0.2912
33248W        W76239  19.139  12.657  21.061  0.0287  0.1282 -0.3430
33249W        W76240  27.233  17.423   2.218 -0.0489 -0.2342 -0.0118
33250W        W76241   8.862  25.814  21.586  0.2440 -0.1455 -0.2150
33251W        W76242  28.914   3.989   2.433  0.3021  0.0836 -0.0381
33252W        W76243  27.188  31.726   7.717  0.2700  0.1075 -0.2601
33253W        W76244  13.879  11.088  20.291  0.0195 -0.1449 -0.1832
33254W        W76245  27.758  17.955   4.512  0.2094 -0.2220 -0.0001
33255W        W76246   5.178   0.594  23.601 -0.0129  0.1576  0.1462
33256W        W76247  30.868  26.578  26.044  0.1752 -0.0986 -0.1552
33257W        W76248  30.672  10.325  23.869 -0.2238 -0.0834 -0.1498
33258W        W76249  18.026  29.528  26.065  0.1286 -0.0828  0.0382
33259W        W76250  31.619  10.552   7.603 -0.1757 -0.1283  0.1709
33260W        W76251  30.954  32.408   6.348 -0.1149 -0.0936  0.0623
33261W        W76252   6.719  26.001  22.385 -0.0748  0.0838 -0.2418
33262W        W76253  17.608  31.336   3.570  0.0460  0.1898 -0.2377
33263W        W76254  15.086  16.052   7.219 -0.0156  0.2180 -0.1052
33264W        W76255  33.767  11.854   6.401 -0.2941 -0.0634  0.1670
33265W        W76256  34.577  26.415   5.419 -0.1140 -0.0852  0.1152
33266W        W76257   7.924   3.279  27.987 -0.1185 -0.0075 -0.2075
33267W        W76258  26.425  29.946  19.335 -0.0798  0.2242 -0.0474
33268W        W76259  13.617  13.438  21.491  0.2602 -0.1129  0.0029
33269W        W76260  13.815  13.674  14.901 -0.0436 -0.2582 -0.0614
33270W        W76261  30.097  16.743  29.127  0.1686 -0.0077  0.0685
33271W        W76262  29.727   2.310  15.417  0.1635  0.0402 -0.1196
33272W        W76263  33.666   8.435  22.207  0.0260  0.0062  0.2853
33273W        W76264  22.833   2.101  23.922  0.1794  0.0164 -0.1196
33274W        W76265  19.950  29.985  13.177  0.2147 -0.0146 -0.5438
33275W        W76266   2.127  34.376  17.257 -0.0538 -0.2971  0.0834
33276W        W76267  31.547   8.647   1.936  0.1756  0.0117  0.1791
33277W        W76268  12.650   4.406  21.617  0.3550  0.2388  0.2496
33278W        W76269   4.999  26.791  20.603 -0.3263 -0.2310  0.2383
33279W        W76270  31.226   1.527  14.356  0.3925  0.0345 -0.3325
33280W        W76271  16.437  21.739  17.052 -0.2657  0.0984  0.1792
33281W        W76272   1.440  21.629   1.747 -0.0714  0.0648 -0.0066
33282W        W76273   1.694   0.208   3.477 -0.2886  0.3520  0.2197
33283W        W76274  32.892   0.525  28.320 -0.2155 -0.1648 -0.0775
33284W        W76275  23.571  17.745  26.081 -0.0722 -0.1315  0.3062
33285W        W76276  34.799  12.440   7.078 -0.0892 -0.0995  0.1089
33286W        W76277  32.071  15.264  25.532  0.3175  0.2645  0.1294
33287W        W76278  13.490   5.099   5.286 -0.0686  0.0613  0.0012
33288W        W76279   6.297  13.101   4.201 -0.2138 -0.1005 -0.0451
33289W        W76280  26.038   7.552  26.881  0.0019  0.0517 -0.0025
33290W        W76281  31.254  13.511  17.754  0.0549  0.1037  0.0992
33291W        W76282   2.555  18.231  23.946  0.0976 -0.1510 -0.2428
33292W        W76283   7.876  33.747   4.280  0.1742 -0.2917 -0.0244
33293W        W76284  10.360  34.718   9.174 -0.1542 -0.1189 -0.0886
33294W        W76285  19.705  13.210  16.977 -0.0378  0.1686 -0.0882
33295W        W76286   5.862  13.584   9.159 -0.2158  0.0763  0.2334
33296W        W76287  30.323   0.967   6.091 -0.2000 -0.1926  0.0126
33297W        W76288  31.321   5.941  14.758 -0.2976 -0.2208 -0.2089
33298W        W76289   1.937  31.214   0.746 -0.0080 -0.0132 -0.1309
33299W        W76290  21.692  34.309   2.045 -0.0380  0.0459  0.1962
33300W        W76291  14.158   2.093  27.715 -0.0398  0.0425  0.2831
33301W        W76292  25.998  12.392  19.213  0.2526 -0.4190 -0.0491
33302W        W76293  29.381  12.608  20.547 -0.0245  0.0818  0.2356
33303W        W76294   8.760   4.895   6.540 -0.3186  0.1089  0.0037
33304W        W76295   0.643  31.681  22.394  0.3278 -0.1018  0.0743
33305W        W76296  16.526  33.582  26.624 -0.2119  0.2286  0.2665
33306W        W76297  20.787   2.523  15.288 -0.1269 -0.0441  0.0737
33307W        W76298  23.535  20.090   5.105 -0.0281  0.0855 -0.0972
33308W        W76299  33.043  10.800   9.339  0.0341  0.0387  0.2748
33309W        W76300  27.132  23.659   6.651 -0.2800  0.0299 -0.2812
33310W        W76301  27.673   5.956  28.655 -0.0290  0.1557  0.1118
33311W        W76302  22.135   7.516  28.244  0.0839  0.0726  0.0299
33312W        W76303  18.889   0.965   2.551 -0.0279 -0.1231  0.2181
33313W        W76304  33.343  33.451  25.712  0.0377 -0.1893  0.1322
33314W        W76305  10.378  11.534  20.845  0.1228  0.2378  0.2098
33315W        W76306  19.466  14.033  23.540  0.0536 -0.2529 -0.1517
33316W        W76307  28.378   4.093  27.909 -0.0578  0.3064 -0.3220
33317W        W76308   3.186   4.222  16.932  0.1834 -0.2065  0.1351
33318W        W76309  27.963  30.288   2.003  0.0057  0.0699 -0.0942
33319W        W76310  31.815  13.699   9.661  0.0989 -0.2375  0.2207
33320W        W76311  18.652  20.961  26.735  0.3330  0.0353  0.0852
33321W        W76312  10.960  10.561   3.356  0.0212 -0.1006  0.0800
33322W        W76313  33.544   1.223  26.489 -0.0050  0.2016  0.0140
33323W        W76314  24.203   4.020  24.901  0.2920  0.1825  0.0426
33324W        W76315  13.482   9.285  28.513 -0.3036  0.3887 -0.0999
33325W        W76316  21.801  15.740  22.007  0.2227  0.1263 -0.1702
33326W        W76317   0.003  13.440  22.902  0.3531  0.1575 -0.3329
33327W        W76318   6.281   1.204  10.868 -0.0864 -0.2355 -0.1141
33328W        W76319   7.834   0.754   2.615 -0.3749  0.0051  0.3019
33329W        W76320  10.244   0.380   5.491  0.0432 -0.0171 -0.2035
33330W        W76321  22.669  22.560  19.129  0.1252  0.0638  0.2547
33331W        W76322  22.869   5.871  19.768  0.0716  0.0423  0.3945
33332W        W76323  27.756  15.754  18.779  0.2578  0.1270 -0.0095
33333W        W76324  24.619  24.058  24.955 -0.1720  0.0472 -0.0617
33334W        W76325  21.617   0.781   3.611  0.0835 -0.1525 -0.2757
33335W        W76326  27.061  28.915  16.425  0.1773 -0.0239  0.2617
33336W        W76327  20.613   6.431  28.574 -0.1161 -0.0837 -0.0137
33337W        W76328  29.217   2.378   7.225 -0.2813  0.2025  0.1096
33338W        W76329  26.413  33.992  17.494 -0.0189  0.0296 -0.3003
33339W        W76330  27.519   7.067  21.791  0.0124 -0.0149  0.1757
33340W        W76331   7.679   4.284  18.444 -0.2731 -0.1820  0.0459
33341W        W76332  11.542  12.392   2.801  0.3232 -0.3566 -0.0933
33342W        W76333  23.438   2.211  28.185  0.0664 -0.1798 -0.2381
33343W        W76334  34.359  18.279  21.917  0.0073  0.0213 -0.2690
33344W        W76335  33.597   9.047  18.451  0.1396 -0.0212 -0.0779
33345W        W76336  18.388   1.939  24.683  0.1313  0.2618  0.2657
33346W        W76337  33.530  28.436  12.759 -0.0207 -0.0062  0.2543
33347W        W76338   6.333   0.813   7.900  0.0535 -0.0284 -0.0864
33348W        W76339  28.209  25.931   1.866  0.0528  0.0389 -0.1188
33349W        W76340   1.499  20.282   7.155 -0.1162 -0.0823  0.1289
33350W        W76341  23.978   4.140   3.253 -0.1103 -0.2881 -0.0797
33351W        W76342  26.504   3.634   0.258 -0.0240 -0.1198  0.2839
33352W        W76343  26.109  23.861  27.176  0.1429 -0.1824  0.1338
33353W        W76344  25.115   5.880  25.120 -0.0376 -0.0177 -0.0561
33354W        W76345   3.498   1.386  21.551 -0.0204 -0.0428 -0.1301
33355W        W76346   9.516  16.497   0.888 -0.0549 -0.0261 -0.1396
33356W        W76347  30.158  28.554  22.790 -0.2895  0.3645 -0.0693
33357W        W76348  24.215  15.542  26.626 -0.1517 -0.1538 -0.0658
33358W        W76349  26.101   2.696   1.197  0.1907 -0.0298  0.1762
33359W        W76350  29.864   6.036   8.980 -0.2067 -0.2629  0.3098
33360W        W76351   4.611   0.085   0.475  0.1865 -0.0549 -0.1987
33361W        W76352  33.750   3.459  20.181  0.1303  0.0602 -0.1017
33362W        W76353  24.358  28.352   8.135 -0.0506 -0.4211 -0.0209
33363W        W76354   1.215   7.246   7.128 -0.1670 -0.0330  0.4222
33364W        W76355  22.703   9.836   0.323  0.4452  0.1876 -0.1298
33365W        W76356  25.190  15.764  28.411  0.1945 -0.0669 -0.0797
33366W        W76357  22.205  34.145   7.308  0.1083 -0.0726 -0.0784
33367W        W76358  20.348  27.332   1.980 -0.1140  0.3629  0.1606
33368W        W76359  21.546  28.675  26.640 -0.2222 -0.1779  0.2872
33369W        W76360  10.081  15.415   1.290  0.1667 -0.0152 -0.1389
33370W        W76361  10.135   3.598  16.335  0.2232 -0.0909 -0.0055
33371W        W76362  25.482   6.251   6.481  0.0289 -0.1284 -0.0346
33372W        W76363  14.562  21.700  18.407 -0.2878  0.3512  0.0579
33373W        W76364  20.388  31.942  27.360 -0.1472 -0.2162 -0.2027
33374W        W76365  15.981   2.278  17.395  0.1854 -0.3151 -0.0067
33375W        W76366  33.621  23.267  22.245  0.0816  0.2963 -0.1746
33376W        W76367  30.078  33.584  24.851 -0.1302 -0.1648 -0.1906
33377W        W76368   7.237   2.960  18.095 -0.1122 -0.0911  0.0709
33378W        W76369   5.320   5.070   0.739 -0.0671  0.0022 -0.0200
33379W        W76370   2.295  21.294  19.317  0.0488 -0.1326  0.0856
33380W        W76371   4.618   0.518  21.918 -0.2605  0.2273 -0.1358
33381W        W76372   3.602  23.372  23.680  0.5269 -0.0397 -0.2436
33382W        W76373  24.387  28.431   5.007 -0.0900 -0.0174  0.1347
33383W        W76374  17.584  12.706   2.719 -0.0988  0.1605 -0.0545
33384W        W76375   5.102  10.860  24.506 -0.1417 -0.0640 -0.4163
33385W        W76376  29.042   7.533   4.445 -0.2287 -0.0352  0.0797
33386W        W76377  34.675  19.494  27.145 -0.1247 -0.1462  0.3715
33387W        W76378  11.365  34.102   5.178 -0.1675 -0.1757 -0.0636
33388W        W76379  31.916  14.655  28.660 -0.0312 -0.0431 -0.0856
33389W        W76380  15.166  14.062  21.070 -0.0837 -0.0107 -0.0799
33390W        W76381  23.471   2.402  14.097 -0.0730 -0.0204  0.2548
33391W        W76382  25.707   8.921  25.323  0.0405 -0.0074 -0.1274
33392W        W76383  16.999  26.700  12.965  0.1905 -0.1167 -0.0062
33393W        W76384   4.009  10.481   5.597  0.0166 -0.0180  0.1462
33394W        W76385  32.748  20.360  19.094 -0.1155  0.1847 -0.0398
33395W        W76386  30.282   3.706  19.835 -0.1666  0.0685  0.0306
33396W        W76387  31.363   0.074   9.612  0.0975 -0.1306  0.1432
33397W        W76388  13.613   8.868   5.847  0.0329  0.1813  0.0947
33398W        W76389  27.629  31.030  22.586 -0.3292 -0.0038  0.0782
33399W        W76390  34.503  18.335  23.404 -0.0680 -0.2144  0.0154
33400W        W76391  16.773   4.373  27.992 -0.0454 -0.1014  0.1788
33401W        W76392   1.936  32.466   1.171  0.0807  0.1865  0.1263
33402W        W76393  19.276  31.588  26.810  0.1700 -0.0480 -0.0726
33403W        W76394  21.732   9.878   9.472  0.0250 -0.0358  0.0555
33404W        W76395  25.925  28.259  20.508  0.1042  0.1190 -0.1596
33405W        W76396  17.872   4.703  25.390  0.0375  0.0667 -0.2294
33406W        W76397  18.499   9.946  28.432 -0.4351 -0.0283  0.2777
33407W        W76398   2.191   3.996  23.958 -0.3084  0.2499  0.0111
33408W        W76399   3.999  10.222  26.154 -0.1057  0.1252 -0.1558
33409W        W76400  34.486  24.934  28.275  0.0221  0.2866  0.0787
33410W        W76401  16.412   4.873   9.051  0.1753 -0.0148 -0.0491
33411W        W76402  22.349  19.210  27.116  0.0902 -0.1349  0.2329
33412W        W76403  28.070  14.882  16.509  0.0033  0.3782 -0.1742
33413W        W76404  20.544   7.702   7.953  0.1790  0.0783  0.1080
33414W        W76405   5.770   8.933   3.580  0.0501  0.0866  0.0115
33415W        W76406   6.614   2.473  16.138  0.1857  0.1686 -0.0431
33416W        W76407  25.364   8.278   1.004  0.2212 -0.2421 -0.4391
33417W        W76408  24.155   5.846  21.669  0.0727 -0.2141  0.3779
33418W        W76409  20.785  28.180   0.071  0.1098  0.1098  0.0803
33419W        W76410   9.334  24.261  20.317  0.1151 -0.1493 -0.0547
33420W        W76411  33.746   4.604  22.884 -0.0889 -0.2911  0.0504
33421W        W76412  25.647   9.667   6.803 -0.1323 -0.1800 -0.0270
33422W        W76413  25.071   8.043  23.304 -0.3307  0.2579  0.0182
33423W        W76414  27.831  32.840  25.694 -0.2676  0.0849 -0.0163
33424W        W76415  21.663  32.684   3.043  0.2240 -0.2438  0.1999
33425W        W76416  29.069   1.596   6.581  0.1631  0.1479 -0.1833
33426W        W76417  27.558   1.942  28.117  0.3733  0.4357 -0.0604
33427W        W76418  23.177   6.376   5.957 -0.0362 -0.0654 -0.1173
33428W        W76419  17.283   8.462  18.596 -0.0681 -0.1008  0.0668
33429W        W76420  23.524  34.529  24.293 -0.0364 -0.1869 -0.3062
33430W        W76421  16.614   8.046   1.458 -0.1680 -0.0780 -0.0053
33431W        W76422   1.052   6.577  16.169  0.0298 -0.1539 -0.1285
33432W        W76423  19.306  31.701  18.704  0.0142  0.0196  0.0189
33433W        W76424   0.724  17.841   1.987  0.3234  0.1523 -0.0050
33434W        W76425   5.177  10.247   3.072 -0.5227 -0.3280  0.0272
33435W        W76426  33.382   5.985  25.623  0.2179  0.1981 -0.3721
33436W        W76427  34.396   6.241  18.994 -0.1395  0.0839 -0.1450
33437W        W76428  34.489   9.778  19.050 -0.2405  0.1419 -0.2183
33438W        W76429  21.220  18.195   7.979 -0.1619 -0.3404 -0.1003
33439W        W76430  20.020  11.598  24.125  0.3777  0.0089 -0.2311
33440W        W76431  18.917   6.129   3.201  0.1359 -0.0165  0.1442
33441W        W76432  23.974   8.462  20.291 -0.0953 -0.3058  0.0791
33442W        W76433  32.426  10.356  25.843 -0.1624 -0.3650 -0.3076
33443W        W76434  27.863   6.971   7.933  0.0868  0.0734  0.1364
33444W        W76435  19.567   4.022  14.731  0.1757 -0.3328  0.1320
33445W        W76436  14.981  16.005  26.588  0.1102 -0.0256 -0.0380
33446W        W76437  28.234   3.246   7.347 -0.0423  0.1951 -0.0937
33447W        W76438  16.721  30.959   2.392  0.0701 -0.0450  0.1979
33448W        W76439  13.287  31.960   0.229  0.2027 -0.4168 -0.1303
33449W        W76440  17.292  12.923  20.829 -0.0063  0.1669 -0.0496
33450W        W76441   4.694   4.286   2.265  0.3680  0.1555  0.1164
33451W        W76442  20.369   4.050   5.725 -0.3645  0.1903  0.2311
33452W        W76443  28.119   8.238  27.592  0.1967  0.1404  0.1400
33453W        W76444  10.554  22.309  25.981 -0.1587 -0.0463  0.2307
33454W        W76445  12.871  14.125  28.706  0.0017 -0.0030 -0.1269
33455W        W76446   9.640   2.641  17.342 -0.0430 -0.3198  0.0787
33456W        W76447   0.305   3.740   9.007 -0.0669  0.2840 -0.2922
33457W        W76448  18.818   5.533   8.303  0.2012  0.0091 -0.1846
33458W        W76449   8.761  33.775  10.870  0.1958  0.0380  0.0277
33459W        W76450  21.376   7.159   0.677  0.2495  0.0758 -0.3565
33460W        W76451  33.401  14.517  23.842 -0.0793  0.2091 -0.2774
33461W        W76452  25.980  11.620  24.922 -0.0882 -0.2742  0.0012
33462W        W76453   7.398   7.185  17.791  0.4485  0.0371 -0.0082
33463W        W76454  23.429   3.352   0.979  0.2196  0.0641 -0.0029
33464W        W76455   1.131   4.196   1.025 -0.3580  0.0725  0.0005
33465W        W76456  16.996  32.204  19.619  0.0298  0.0161 -0.1266
33466W        W76457  22.002   2.335  26.783 -0.1630  0.0145 -0.3137
33467W        W76458  20.865  13.432  21.231  0.1839 -0.0737 -0.1281
33468W        W76459  25.730   5.252  15.255  0.1994 -0.2213 -0.3391
33469W        W76460  23.569  18.810  26.504 -0.0398 -0.2147  0.0302
33470W        W76461  21.501   3.589  20.513  0.0517  0.1621  0.1292
33471W        W76462  22.627  12.705  22.958 -0.4348 -0.0022 -0.0844
33472W        W76463   0.683  33.981  24.633 -0.0034 -0.3305  0.0421
33473W        W76464  17.556  33.106  21.915  0.0673 -0.2442  0.2325
33474W        W76465   2.390   5.607   4.000 -0.1120  0.0788  0.0375
33475W        W76466  18.231  15.741   8.657  0.1080 -0.1466 -0.3053
33476W        W76467  31.751   9.993  25.330  0.5079  0.0329  0.1027
33477W        W76468  27.191   6.021  18.357  0.2461 -0.0183 -0.2306
33478W        W76469  27.903  25.649   3.103 -0.2931 -0.1485  0.0655
33479W        W76470   7.138  31.729   7.143  0.2167 -0.4006 -0.3589
33480W        W76471  25.839   0.305  22.279 -0.2490  0.2426  0.3850
33481W        W76472  12.916  13.596  27.575  0.2434 -0.0892 -0.0572
33482W        W76473  34.005  17.883   3.241 -0.2005  0.0354  0.2794
33483W        W76474   6.224  11.492  27.084 -0.0288  0.0698  0.0047
33484W        W76475   2.098  33.041  24.815  0.3440 -0.0879  0.2593
33485W        W76476  19.455  11.284  27.789 -0.2052  0.0879 -0.0528
33486W        W76477   3.920   6.017  10.217 -0.2613 -0.2177  0.0434
33487W        W76478  27.095  33.796  29.121  0.0327  0.2725  0.1671
33488W        W76479   6.601  12.857  25.447 -0.0048  0.0682  0.4470
33489W        W76480   3.072   7.999   9.553 -0.0690  0.1136 -0.1391
33490W        W76481  15.462  34.181   0.500 -0.1190 -0.2900  0.0526
33491W        W76482   2.404   2.232   7.704 -0.2500  0.0433  0.2155
33492W        W76483  21.571  10.332   9.428 -0.0205  0.0797  0.2384
33493W        W76484   3.235  21.329  22.831  0.2222  0.1314  0.3573
33494W        W76485  31.430   5.260  15.588  0.0409 -0.1435 -0.2944
33495W        W76486  31.796   0.506   4.357  0.2257 -0.3498 -0.0953
33496W        W76487  27.196   5.913  27.824  0.0612  0.0288  0.2360
33497W        W76488   1.405  13.608  11.504  0.2143  0.1009 -0.0984
33498W        W76489  34.265   7.188  24.298  0.2619 -0.1177  0.3630
33499W        W76490   5.673  12.656  27.552 -0.2410 -0.0513  0.1782
33500W        W76491  15.814  31.193  28.427 -0.1921  0.0621 -0.0640
33501W        W76492  26.498  14.452  19.413 -0.0365  0.1895 -0.0388
33502W        W76493  20.098   3.418   1.135  0.0359  0.2418 -0.2060
33503W        W76494  31.156  23.136   4.433  0.1050 -0.0139  0.0580
33504W        W76495  34.590  18.290   8.755  0.0278 -0.2101  0.0905
33505W        W76496   4.196   0.955   1.716  0.1381  0.0647  0.1235
33506W        W76497  29.526   8.225   6.061  0.0584  0.4356  0.2085
33507W        W76498  28.009  22.161   6.102 -0.1603 -0.0718 -0.1495
33508W        W76499   3.499  19.231  20.752 -0.0261  0.1906 -0.0813
33509W        W76500  29.678   6.037   7.158 -0.1100 -0.3265  0.2209
33510W        W76501  24.317  32.297   0.513 -0.3352 -0.2201  0.0924
33511W        W76502  33.098   0.106  28.522  0.1194  0.4452 -0.0618
33512W        W76503   6.406   3.271  25.617 -0.2091 -0.2779  0.0158
33513W        W76504  21.824   8.639  22.018 -0.1614 -0.2392 -0.0464
33514W        W76505  32.840   2.659  19.941  0.0578  0.1495 -0.1646
33515W        W76506  33.842  27.087  23.021 -0.1035  0.1241 -0.3124
33516W        W76507  26.787  34.370  22.200 -0.0700  0.4001 -0.1300
33517W        W76508   3.400   9.410   0.879  0.0965  0.2875  0.1843
33518W        W76509  25.532   5.999   5.459 -0.1513 -0.1363  0.1033
33519W        W76510  32.963  34.574   6.940  0.0395 -0.1172 -0.2257
33520W        W76511  27.211   3.321   3.430  0.2034 -0.0444  0.3102
33521W        W76512  31.668   4.955  26.704 -0.0642 -0.2818 -0.2632
33522W        W76513  11.233  34.159   4.066  0.0498  0.0109 -0.1329
33523W        W76514   7.377  23.098  24.262 -0.2069  0.1374  0.2652
33524W        W76515  22.239  13.535  15.249 -0.0090  0.1933 -0.0351
33525W        W76516  27.755   5.397   1.440 -0.1517 -0.3775 -0.0241
33526W        W76517   7.830  27.247  22.240  0.1116 -0.0469  0.0827
33527W        W76518   2.676  21.027  26.630  0.2703 -0.1297  0.2744
33528W        W76519  24.674  26.962  23.496  0.0605  0.0036  0.0378
33529W        W76520  27.629   2.093  27.161  0.2403 -0.0315 -0.1503
33530W        W76521  31.770  31.392  19.003 -0.0917  0.0404 -0.6271
33531W        W76522  26.486  25.298   9.054 -0.1632 -0.1032  0.3566
33532W        W76523  28.897  17.210   1.816 -0.0647  0.2323 -0.2285
33533W        W76524   2.622  17.105  22.512 -0.1043  0.4365 -0.1047
33534W        W76525  10.480  12.792  15.880 -0.2427  0.0650 -0.1393
33535W        W76526  15.691   3.316  25.610 -0.2537 -0.3058  0.4728
33536W        W76527  24.900  12.479  26.039  0.2762 -0.1343 -0.0480
33537W        W76528   6.077  11.142  25.649  0.0511  0.0740 -0.2161
33538W        W76529  24.713   4.749  22.191 -0.0550  0.2504 -0.3396
33539W        W76530  17.082   5.151   0.620 -0.3009 -0.2544  0.0335
33540W        W76531  27.370  24.890   1.207  0.2325 -0.1586 -0.2057
33541W        W76532   9.695  21.489  28.757 -0.0125  0.1395 -0.2211
33542W        W76533  31.378   3.602   8.774 -0.0094  0.0485  0.1935
33543W        W76534  22.120   2.107   1.117  0.2430  0.2270 -0.1830
33544W        W76535  16.566  33.184   8.350 -0.0614 -0.2333 -0.0624
33545W        W76536  20.238   0.444   1.422  0.1013 -0.1260  0.2109
33546W        W76537  13.763   6.687   5.647  0.5861  0.3353 -0.0516
33547W        W76538  25.053   4.626   1.062 -0.2464  0.1346 -0.1699
33548W        W76539  32.420   1.209   2.109 -0.0895 -0.0677  0.1299
33549W        W76540  14.628  26.626   5.736 -0.0814  0.1164 -0.2059
33550W        W76541  33.472  17.919  21.442 -0.0309 -0.0514 -0.2764
33551W        W76542   5.455  33.390   4.055  0.1271  0.0587  0.3080
33552W        W76543  22.940  20.156  18.412 -0.3797 -0.0613 -0.3211
33553W        W76544  10.818  32.642   7.731  0.0242  0.1719 -0.1698
33554W        W76545  19.453  11.868  24.004 -0.0841 -0.1617  0.0064
33555W        W76546   7.751   1.589  28.766 -0.2686 -0.1402  0.0972
33556W        W76547  14.820  15.856  23.758  0.1850 -0.1427  0.0238
33557W        W76548  28.887   9.097  23.716 -0.0198 -0.1751 -0.1222
33558W        W76549  18.438  30.840  27.257  0.2395  0.0423  0.1079
33559W        W76550   1.009  17.869  17.187 -0.0278 -0.3186  0.0951
33560W        W76551   2.071   2.693   3.874 -0.4383  0.1165 -0.0384
33561W        W76552  23.815  11.361   3.883 -0.1517 -0.0219  0.1698
33562W        W76553   3.568  20.887  22.993 -0.2136 -0.3170 -0.1300
33563W        W76554  13.368   6.773   0.500 -0.2688  0.1074 -0.0573
33564W        W76555  10.451   3.506  15.895  0.0696 -0.3493  0.0213
33565W        W76556  27.580  17.819  24.950  0.0794 -0.0246 -0.2409
33566W        W76557  31.361  24.114  23.372 -0.1070 -0.3065  0.3551
33567W        W76558  19.946  15.587  14.184 -0.0531 -0.1713 -0.0772
33568W        W76559   3.665  28.172  19.191  0.3089  0.1063  0.0740
33569W        W76560  24.324   0.184  28.781 -0.2342 -0.3570 -0.2035
33570W        W76561   3.718   8.746   1.364 -0.0741 -0.0022 -0.0523
33571W        W76562  32.904   9.063  16.280  0.0226  0.1274  0.0927
33572W        W76563  15.381  10.094  18.093 -0.0401 -0.3341  0.2470
33573W        W76564   3.497   6.328  16.664 -0.0472 -0.1101  0.2590
33574W        W76565  27.853  25.104  17.226 -0.3802  0.0451  0.0001
33575W        W76566  22.623  11.896  13.254 -0.1252  0.1681 -0.2337
33576W        W76567   3.320   6.061  28.679  0.1186 -0.2111 -0.2907
33577W        W76568  19.897   6.779  17.995  0.4133  0.0525  0.1904
33578W        W76569  28.900  14.194  23.825 -0.1188 -0.5620  0.1143
33579W        W76570   5.825  19.808  28.365 -0.0974 -0.1228  0.0353
33580W        W76571  22.725  33.486  13.768 -0.0325  0.0528 -0.0649
33581W        W76572  15.780   7.402  20.222  0.2724 -0.0107  0.0887
33582W        W76573   4.342  10.913   1.514 -0.5141  0.1647 -0.4651
33583W        W76574  28.418  14.626   2.652  0.1533 -0.3202 -0.3906
33584W        W76575   7.605  12.019  15.168  0.1347  0.1719 -0.0514
33585W        W76576  29.909  26.932  26.179 -0.2033 -0.0232  0.1278
33586W        W76577  22.649  10.196  16.563  0.0325 -0.2437 -0.4144
33587W        W76578  15.358  16.742  24.798  0.1052  0.1330 -0.0530
33588W        W76579   0.241  24.589  14.318  0.3086  0.2866 -0.0978
33589W        W76580  32.881   1.530  19.498  0.0245  0.2984 -0.1438
33590W        W76581   5.225   3.550  16.042  0.3593 -0.2314 -0.1676
33591W        W76582   7.145  18.465  21.679  0.2424 -0.0392 -0.0267
33592W        W76583  32.726   7.595   9.641  0.0202  0.2575  0.2340
33593W        W76584  22.044   9.612  27.610 -0.1685 -0.0600 -0.0753
33594W        W76585  25.473  11.883   6.831 -0.2027 -0.0574 -0.1450
33595W        W76586  20.207  20.316  20.866  0.0913  0.0790  0.1033
33596W        W76587  14.153   7.228   0.256 -0.0941  0.2681  0.1572
33597W        W76588  32.700  13.059  21.152 -0.0442 -0.2898  0.2747
33598W        W76589  11.152   3.634  15.670 -0.1175  0.1005  0.2207
33599W        W76590   7.634  14.776  24.168 -0.1717  0.2440  0.0482
33600W        W76591  23.111   7.947  21.860  0.0617  0.2786  0.1891
33601W        W76592  26.805  17.546  19.145 -0.0353  0.3441 -0.0374
33602W        W76593  26.633   7.968  19.758  0.0541  0.3949 -0.2593
33603W        W76594   2.617  31.127  26.731 -0.2302  0.5115  0.1559
33604W        W76595  26.493  13.008  14.566  0.0410 -0.1708  0.1369
33605W        W76596  30.164  10.648  26.085 -0.1703 -0.2839  0.1543
33606W        W76597  33.100  23.179  21.518  0.3523  0.0631  0.1513
33607W        W76598  10.164   5.713   4.153  0.1147  0.0328 -0.0790
33608W        W76599  33.275  10.181  18.781 -0.3811  0.0039  0.3960
33609W        W76600   4.298  31.168  14.746  0.2394 -0.0984 -0.0642
33610W        W76601  34.545   2.442  19.818 -0.4240 -0.2594 -0.0217
33611W        W76602  16.766   5.457   3.792 -0.1745 -0.0852 -0.0410
33612W        W76603  30.154   9.981  22.910  0.0232 -0.0325  0.0295
33613W        W76604  23.224   6.450  17.792 -0.0554 -0.2558  0.2082
33614W        W76605  24.700  33.759  25.563 -0.3172  0.0298 -0.0235
33615W        W76606  11.549  11.993  26.598 -0.0824 -0.1451 -0.4224
33616W        W76607  32.434   2.466  14.135  0.0188 -0.0290  0.2825
33617W        W76608  31.405  17.486   0.030  0.2226 -0.2181  0.1379
33618W        W76609   6.038  22.827  18.876  0.1744  0.1320  0.0749
33619W        W76610  29.288  13.963  18.003 -0.0142 -0.0712 -0.2277
33620W        W76611   7.578  32.821  25.002  0.3570  0.0147 -0.0542
33621W        W76612  25.694   1.431  20.986 -0.1759  0.2374 -0.5005
33622W        W76613  34.039   2.788  22.608 -0.0211 -0.1073 -0.1252
33623W        W76614   8.300   9.935  18.985  0.1106 -0.0704  0.0515
33624W        W76615   2.201   7.938  22.797 -0.0651 -0.1603 -0.1604
33625W        W76616  24.483   3.295  13.869  0.3852  0.0684 -0.0676
33626W        W76617  25.052  17.323  21.263  0.1803 -0.2103 -0.0882
33627W        W76618  31.049   7.922  15.357 -0.0084 -0.1561  0.0358
33628W        W76619   0.237   3.723  23.703  0.0908  0.1149 -0.1150
33629W        W76620   6.546  34.518  29.035 -0.3286 -0.0906  0.0687
33630W        W76621   3.281   1.888   8.590  0.1063 -0.1531 -0.1903
33631W        W76622  10.062  25.012  15.244 -0.1497 -0.3042  0.1193
33632W        W76623  31.822  13.122  25.053  0.3396 -0.0179  0.0944
33633W        W76624   4.135   5.794   4.531  0.2709 -0.0111 -0.0035
33634W        W76625  28.947  10.868  17.384 -0.1575 -0.0205 -0.2103
33635W        W76626  24.825  24.679  24.117  0.3028 -0.1488  0.1582
33636W        W76627   0.905  17.151   6.683 -0.2294 -0.0271 -0.1553
33637W        W76628  30.293  23.970  21.225 -0.1618  0.4417 -0.1170
33638W        W76629  31.162   5.497  21.304 -0.0798 -0.1817  0.0290
33639W        W76630  21.458  24.845  13.996  0.0738 -0.0325 -0.1121
33640W        W76631  29.053  16.975  26.737 -0.1309  0.0366  0.2762
33641W        W76632  21.699   9.906  23.136 -0.0391 -0.0819 -0.0776
33642W        W76633   5.119   2.503  20.188 -0.0460 -0.1146 -0.1018
33643W        W76634  17.825  22.441  12.559  0.2402  0.0822  0.2849
33644W        W76635  20.251   9.420  21.494  0.3465  0.1997  0.2242
33645W        W76636  25.716  23.354  23.353  0.0476  0.0359 -0.1049
33646W        W76637   2.539  11.268  23.938  0.1836 -0.1193  0.1183
33647W        W76638  24.241   0.581  18.573 -0.1155  0.0263  0.0985
33648W        W76639   1.194  23.350  21.417 -0.1033 -0.2370 -0.0569
33649W        W76640   5.083  23.408  26.364 -0.2830  0.0050  0.0452
33650W        W76641  27.469   7.973   7.118  0.1272 -0.0460  0.1703
33651W        W76642  29.608   5.352   3.104 -0.0862  0.2277 -0.0985
33652W        W76643  26.086  28.634  15.132  0.0434 -0.0759 -0.1272
33653W        W76644  25.620  17.010  18.067  0.0986 -0.0492  0.0297
33654W        W76645  26.434  26.534  24.208  0.2176  0.1256  0.0583
33655W        W76646  33.490   5.617  19.181  0.3431  0.1324 -0.3062
33656W        W76647  32.104  10.180  21.230 -0.2145  0.2823 -0.4690
33657W        W76648  17.672  30.471  17.708 -0.1239 -0.0626 -0.2316
33658W        W76649  32.740   7.479  17.761 -0.1320 -0.1821 -0.2256
33659W        W76650  33.998   3.945  17.602  0.0405  0.0169  0.1113
33660W        W76651   1.170  23.014  15.247  0.0421 -0.0773 -0.2833
33661W        W76652  23.324   3.112  20.911  0.5850  0.0972 -0.0289
33662W        W76653  29.104  16.957  16.119  0.0430 -0.2801 -0.3234
33663W        W76654  26.394  13.891  18.148 -0.1579  0.0659 -0.1050
33664W        W76655  18.953   8.952  15.995 -0.0468  0.2312  0.1774
33665W        W76656  30.376   7.521  20.382  0.0627 -0.0859  0.0502
33666W        W76657  24.824  16.528  21.035  0.2840 -0.0418 -0.1514
33667W        W76658   4.111  21.773  15.112  0.1205  0.3684 -0.1419
33668W        W76659   4.842  34.385  17.969 -0.2043  0.1939  0.0361
33669W        W76660  27.850  31.360  26.942 -0.0397  0.1830  0.2074
33670W        W76661  18.716   6.714  14.338 -0.0749 -0.2422 -0.3070
33671W        W76662  19.944  12.426  25.991  0.0070  0.0402  0.0779
33672W        W76663   3.548   5.716  25.543  0.2771  0.0938 -0.1549
33673W        W76664  21.663   1.168  23.463  0.2644  0.0555 -0.2667
33674W        W76665   1.307  22.497  15.458  0.1614 -0.0296 -0.1541
33675W        W76666  22.761  15.940  22.676  0.2889 -0.1346 -0.2500
33676W        W76667   6.929   2.893  23.800 -0.0691 -0.1526 -0.1159
33677W        W76668  12.606  32.056  19.041  0.0410 -0.1254  0.2986
33678W        W76669  11.499  19.939  13.838  0.2432  0.3055 -0.1555
33679W        W76670  23.284  12.252  14.604  0.2029 -0.3100 -0.1654
33680W        W76671  16.125   8.515  19.690  0.0670  0.2113 -0.0032
33681W        W76672  31.574   6.217  16.540 -0.0317 -0.0164 -0.0385
33682W        W76673   0.765   3.392  22.643  0.0659 -0.0555  0.1813
33683W        W76674   2.453   9.979  11.018 -0.0782 -0.1389  0.0378
33684W        W76675   9.220  33.282  20.322 -0.0112 -0.0233  0.0499
33685W        W76676  31.737  34.666  14.526  0.1091  0.3709 -0.0003
33686W        W76677   9.232  21.845  18.058  0.1579  0.0033 -0.1476
33687W        W76678   0.318  17.823  21.335 -0.2879  0.2039 -0.3384
33688W        W76679  34.421  11.213  27.002  0.0426  0.1928 -0.1575
33689W        W76680  29.162  20.948   7.518 -0.0070  0.2175 -0.2645
33690W        W76681  24.395  12.336  24.640  0.1840  0.0650 -0.2350
33691W        W76682  23.096  18.397  16.441  0.1967 -0.1046 -0.0377
33692W        W76683   3.159   9.076  25.780  0.0001 -0.0573 -0.1659
33693W        W76684  25.000  34.541  19.548 -0.2291 -0.3005 -0.0414
33694W        W76685  32.049  15.940  28.058 -0.2114  0.0727  0.1008
33695W        W76686  23.058   3.770  17.771 -0.0064  0.0336  0.1134
33696W        W76687  23.793   4.376  14.103 -0.0980 -0.0584  0.2068
33697W        W76688  14.371  10.629  21.521 -0.1175 -0.1686 -0.3948
33698W        W76689   8.169  33.967  26.532  0.0789 -0.0541 -0.0582
33699W        W76690  21.505  17.333  19.463 -0.1298 -0.0649 -0.1765
33700W        W76691   3.219  16.831  24.278  0.0230 -0.0526  0.1780
33701W        W76692  22.818   1.505  25.514 -0.1688 -0.0574  0.1661
33702W        W76693   6.505   1.211  15.801 -0.1734 -0.0217 -0.0449
33703W        W76694  26.676  28.012  27.721 -0.1149 -0.1513  0.0849
33704W        W76695  25.372   7.811   6.339 -0.1005  0.2412 -0.2934
33705W        W76696  23.603   4.558  16.363  0.1339 -0.1046 -0.1761
33706W        W76697  34.299  12.857  19.976  0.1979  0.4863  0.2100
33707W        W76698  12.673  11.392  15.192 -0.0799  0.1214 -0.0945
33708W        W76699  32.028   5.580  19.111  0.1715 -0.0980 -0.1123
33709W        W76700   9.933  12.773  26.844  0.1989 -0.0453  0.0010
33710W        W76701  32.546   3.001  20.123  0.4036 -0.1766 -0.3230
33711W        W76702   8.518  21.658  15.240 -0.2130  0.5177  0.2939
33712W        W76703  13.129   4.547  25.549  0.0540 -0.3356 -0.1854
33713W        W76704   4.710   8.074  20.863 -0.0748 -0.1592  0.0731
33714W        W76705  13.015  17.810  25.923 -0.0017  0.2417  0.1160
33715W        W76706  34.696  12.347  18.475  0.2565 -0.1051 -0.1564
33716W        W76707   7.421   4.938  17.324  0.1191 -0.1110 -0.1028
33717W        W76708  28.686   4.537  26.710 -0.0658 -0.3005  0.1887
33718W        W76709  31.348  32.112  20.749  0.0426 -0.1136  0.0087
33719W        W76710   3.410  34.752   6.076  0.0802  0.1277  0.3566
33720W        W76711   2.488   2.315  18.855  0.1933 -0.1032 -0.0010
33721W        W76712   2.873  22.214  24.018  0.0592 -0.1401 -0.1443
33722W        W76713  30.940  10.481  15.465 -0.0473  0.0736  0.2640
33723W        W76714  26.525  10.722  14.758 -0.0764  0.3986  0.0863
33724W        W76715  17.550   2.590  18.735  0.0902 -0.3683 -0.1282
33725W        W76716  33.446   5.031  22.063  0.0508 -0.1642 -0.0983
33726W        W76717  25.953   7.021  26.091 -0.1814 -0.0126  0.0425
33727W        W76718  33.899   0.555  19.429  0.0389 -0.1389 -0.0278
33728W        W76719  19.717  32.522  21.473 -0.1268 -0.0366 -0.2397
33729W        W76720  31.019  15.938  22.180 -0.2442  0.1492  0.0922
33730W        W76721  14.037  13.454  25.723 -0.1986 -0.3427  0.1755
33731W        W76722  28.513  17.460  22.436 -0.1334 -0.1716 -0.1615
33732W        W76723  28.879  10.787  23.665  0.1413 -0.2960  0.0098
33733W        W76724   6.066  10.315  15.738 -0.2436 -0.1192 -0.0009
33734W        W76725  27.644  31.947   1.995 -0.0171  0.0079 -0.0768
33735W        W76726  26.749   3.596  24.892 -0.1153 -0.0841 -0.0510
33736W        W76727   5.390   8.457  22.656 -0.0756 -0.0842 -0.1059
33737W        W76728  23.793  14.355  24.589 -0.1248 -0.1099  0.1640
33738W        W76729  11.215  14.966  23.840  0.3461  0.1149 -0.2502
33739W        W76730  20.738  26.748  14.552  0.1231 -0.0496 -0.2481
33740W        W76731  30.548  27.424  26.585  0.3306  0.3131  0.1472
33741W        W76732  13.491   7.228   1.073  0.4192  0.0051  0.1104
33742W        W76733   2.145   5.038  17.532 -0.0136  0.2616 -0.1501
33743W        W76734  21.531   8.717  15.258 -0.1484  0.0938 -0.0956
33744W        W76735  22.602   1.139  23.506  0.0442  0.2476  0.1623
33745W        W76736  33.432  25.042  24.968 -0.1468  0.2789 -0.1843
33746W        W76737   2.146  28.383   1.342  0.1398  0.1179 -0.2673
33747W        W76738  25.749   7.419  24.909 -0.2481 -0.0927  0.1334
33748W        W76739  19.131  16.240  15.394  0.3089  0.0861  0.2917
33749W        W76740   1.462  13.795  26.053 -0.0637  0.1103  0.1479
33750W        W76741  34.412   1.550  17.975 -0.2686 -0.1031  0.2594
33751W        W76742   5.313  21.577  26.198  0.0554  0.2946 -0.1378
33752W        W76743  26.491  11.859  20.571 -0.0225 -0.2069  0.1043
33753W        W76744  27.001  19.181  23.970 -0.1619  0.1227 -0.1154
33754W        W76745  33.670  16.719  20.181 -0.2290  0.0791  0.4572
33755W        W76746  10.796  15.135  24.111  0.0111 -0.0267 -0.2896
33756W        W76747   2.333   1.123  22.646  0.0373  0.0266  0.0619
33757W        W76748  28.181  27.232  25.681  0.1434  0.0205 -0.2054
33758W        W76749   5.747  20.868  15.523  0.1531 -0.1277 -0.3376
33759W        W76750   8.734  27.303  17.490 -0.2715  0.1392  0.2396
33760W        W76751   7.483  30.981  15.672 -0.0484  0.2551 -0.2576
33761W        W76752  21.246   9.779  24.505 -0.0794  0.0387 -0.0855
33762W        W76753   2.453  26.081  24.792 -0.0641 -0.1221 -0.0375
33763W        W76754  30.627   2.895  28.470  0.0166  0.2301 -0.0318
33764W        W76755   7.454   1.556  24.519 -0.0538  0.5095 -0.1470
33765W        W76756  28.440  33.601  24.858  0.2391 -0.2308  0.0928
33766W        W76757  24.893  27.035  23.960 -0.2463  0.1548  0.2216
33767W        W76758  24.012   5.978   4.869 -0.0028 -0.1114 -0.0174
33768W        W76759  30.995  17.746  26.608  0.0828  0.2164 -0.1133
33769W        W76760   4.110  16.477  20.869  0.3943  0.1174  0.0564
33770W        W76761   0.856   6.588  18.332 -0.2058 -0.1103  0.3861
33771W        W76762  29.429   1.099   2.330  0.3251  0.2452 -0.1424
33772W        W76763   4.093  10.030   1.100  0.2317  0.2245 -0.2390
33773W        W76764  31.050  34.708   9.268  0.0437  0.0375 -0.0528
33774W        W76765  22.742  21.813  14.898 -0.0772 -0.1158  0.0610
33775W        W76766   3.898  13.896  18.338  0.0381  0.1585  0.1129
33776W        W76767  31.362   0.849  20.139  0.2959 -0.2422 -0.0213
33777W        W76768  21.611   2.048  16.030  0.3766  0.0991 -0.3661
33778W        W76769  18.161   1.489  26.997 -0.2415  0.3149 -0.0492
33779W        W76770   8.626  14.265  14.470 -0.1796  0.0111 -0.2314
33780W        W76771  32.174   9.551  24.467 -0.2965 -0.0521  0.0946
33781W        W76772   7.641  12.441  16.057 -0.0323 -0.0511  0.1405
33782W        W76773   3.955  11.397  22.456 -0.1738 -0.0831 -0.0321
33783W        W76774   8.538   7.098   3.101 -0.1822 -0.0693  0.1202
33784W        W76775  23.784   8.733  22.557 -0.2811  0.1586  0.3106
33785W        W76776  25.659   8.352  25.357 -0.2144 -0.0779  0.0438
33786W        W76777  29.213   5.694  22.512 -0.1045 -0.1393  0.1820
33787W        W76778   0.055   7.576  25.399  0.1626  0.1153  0.1208
33788W        W76779  30.865   3.185  22.893  0.0841  0.2732  0.0948
33789W        W76780   3.892   9.495  17.276  0.2553  0.2719  0.2356
33790W        W76781  24.929  22.513  24.837  0.2150 -0.0417  0.0238
33791W        W76782  34.412  11.748  17.067 -0.0417 -0.1238  0.2436
33792W        W76783   4.220   7.787  19.160 -0.0301 -0.1574  0.1569
33793W        W76784  33.655   3.862  14.034  0.1627 -0.0133 -0.1806
33794W        W76785  20.130   9.003  23.329  0.2385 -0.3970 -0.1760
33795W        W76786   7.732  13.990  18.237 -0.0332 -0.0815  0.0175
33796W        W76787  33.045   1.312  14.128  0.0680  0.0077 -0.0619
33797W        W76788   4.456   3.775  17.817  0.0665  0.0513 -0.1026
33798W        W76789   6.153  16.654  15.519  0.0833  0.4898 -0.4452
33799W        W76790  21.605  12.918  16.867 -0.1116 -0.2295  0.0742
33800W        W76791   0.217  27.598  20.240 -0.0404  0.1190 -0.1174
33801W        W76792   1.489   6.753  18.511 -0.2747  0.0075 -0.2996
33802W        W76793  17.646  10.119  27.005 -0.0972 -0.0676  0.0690
33803W        W76794   2.037   2.515  19.101  0.0632 -0.0462 -0.2222
33804W        W76795  27.489   4.566  15.410  0.2175  0.0526  0.1916
33805W        W76796  22.423  34.287  28.604  0.2417  0.3276 -0.4534
33806W        W76797  32.334  29.450  19.274 -0.0041  0.1079 -0.0066
33807W        W76798   6.630   1.408  20.142 -0.0146  0.0923 -0.1060
33808W        W76799  32.262  11.843  24.761  0.2913  0.0157 -0.0224
33809W        W76800  28.742  23.694  23.129  0.0925  0.3381 -0.0513
33810W        W76801  27.658  26.168  27.469 -0.4806 -0.1979 -0.2451
33811W        W76802   6.867   2.082  21.231  0.3842 -0.0434 -0.0302
33812W        W76803  19.230   0.541   3.799 -0.1807  0.0643  0.4426
33813W        W76804   6.228  34.163  23.140  0.3899  0.2151  0.0639
33814W        W76805  30.101  31.294   5.786  0.0811 -0.1306 -0.2511
33815W        W76806  11.928  11.773  16.089  0.2022  0.3309 -0.2120
33816W        W76807   0.249  14.719  27.633  0.0862 -0.0150 -0.3669
33817W        W76808  31.802  23.591  21.545 -0.1886  0.4688  0.0079
33818W        W76809  26.287   9.958  26.881  0.1185 -0.5220  0.2974
33819W        W76810   8.012   0.951  17.170  0.3979 -0.0981  0.0984
33820W        W76811  25.601  19.516   8.160 -0.1542  0.3347  0.1452
33821W        W76812  32.615   2.437  19.555 -0.1314 -0.1573 -0.2063
33822W        W76813  27.408   6.774  15.380  0.0353 -0.0118  0.0223
33823W        W76814   4.745  18.937  16.703 -0.2232 -0.1021 -0.1885
33824W        W76815  24.209  17.053  21.765  0.1902  0.0201 -0.0940
33825W        W76816  22.447  11.210  17.432 -0.2354  0.1027  0.2157
33826W        W76817  27.822  12.253  27.815  0.0968  0.1198 -0.3751
33827W        W76818  22.903  16.620  15.406 -0.0284 -0.2334 -0.0690
33828W        W76819  22.836   1.719  18.906 -0.0689 -0.1530 -0.3150
33829W        W76820   9.078  30.155  19.716 -0.0914 -0.3159  0.1610
33830W        W76821   8.029   5.766  24.842 -0.1278 -0.3044  0.1834
33831W        W76822  29.738  29.817  18.840  0.3363  0.0984  0.0428
33832W        W76823   9.930  18.444  28.292 -0.2851  0.0441 -0.3030
33833W        W76824   7.286  16.447  17.565  0.0194 -0.6706 -0.1811
33834W        W76825  29.205  33.160  27.752  0.0261 -0.0989 -0.0756
33835W        W76826  26.284  28.307  27.406  0.0828  0.1252  0.2022
33836W        W76827   1.833   3.631  14.958 -0.0698 -0.3141 -0.1063
33837W        W76828  21.141   7.151  15.703 -0.0362  0.0407 -0.0761
33838W        W76829  29.593  16.272  22.626  0.1457  0.5264 -0.2439
33839W        W76830  18.078   6.880  21.306  0.0029  0.1983 -0.0220
33840W        W76831  29.410   0.116  17.874 -0.4046  0.1982 -0.2885
33841W        W76832   6.601  11.157  23.982  0.0883  0.1300  0.1352
33842W        W76833  20.427  12.011  17.350 -0.1957  0.0239 -0.4601
33843W        W76834   0.386  29.681  16.751 -0.0279 -0.1964 -0.2120
33844W        W76835  29.162   3.777   2.862  0.4564  0.1104  0.1639
33845W        W76836   8.609   5.884  18.473 -0.0166  0.3543 -0.1828
33846W        W76837  27.157  24.868  12.887  0.1436  0.1702 -0.0168
33847W        W76838  27.262   3.188  22.958  0.2264 -0.0908 -0.0956
33848W        W76839  28.450   4.216   4.360  0.1704 -0.2048 -0.4874
33849W        W76840  24.047   3.298  20.831  0.4227 -0.1061 -0.0405
33850W        W76841  34.439   9.566  22.510  0.0681 -0.0406  0.1259
33851W        W76842  34.702  17.274  16.127 -0.0996 -0.0373  0.0067
33852W        W76843  28.839  14.378  19.007 -0.1042 -0.0881  0.0433
33853W        W76844  28.662   2.662  13.882  0.3618 -0.3322 -0.1804
33854W        W76845   0.365  12.036  11.010  0.3405 -0.0726 -0.2396
33855W        W76846  21.570  15.218  18.603  0.0735 -0.1225  0.2646
33856W        W76847   3.595   1.788  21.224  0.0980  0.2024  0.0463
33857W        W76848   6.680   1.830   6.357 -0.1102 -0.0060 -0.3364
33858W        W76849  28.477   5.537  26.100  0.0462  0.1549  0.0193
33859W        W76850  28.279  31.375  20.877  0.0734  0.1922  0.0879
33860W        W76851  18.868  12.165  21.910 -0.1212  0.0326 -0.2882
33861W        W76852  33.749   3.661  21.003  0.2560  0.0664  0.3015
33862W        W76853  29.578   5.148   4.638 -0.1242 -0.0635 -0.1435
33863W        W76854   8.577  28.013  24.519 -0.0551  0.2426  0.1261
33864W        W76855  27.540   9.900  18.719 -0.1290  0.1163  0.0292
33865W        W76856  22.773  21.193  26.655 -0.0646  0.3600 -0.0942
33866W        W76857  29.600  28.098  14.350 -0.1352  0.0441 -0.2999
33867W        W76858  29.259  15.786  20.446  0.1011 -0.1068 -0.1224
33868W        W76859   2.821   6.904  20.255  0.0070  0.0366 -0.2726
33869W        W76860  22.377  10.220  18.271  0.1248  0.0688 -0.1265
33870W        W76861   0.304   5.556  22.442 -0.0364  0.2434  0.1985
33871W        W76862  29.713  10.874  27.354 -0.1511  0.0744  0.2569
33872W        W76863  19.148  11.171  19.457 -0.2937 -0.0315  0.2341
33873W        W76864   8.943  24.209  18.327 -0.1899  0.0453  0.2440
33874W        W76865  24.968   9.803   5.101 -0.0305  0.0998 -0.1850
33875W        W76866  30.962  14.419  22.104 -0.0639 -0.1665  0.2590
33876W        W76867  30.841   8.897  27.324 -0.2104 -0.1991  0.1784
33877W        W76868   8.239  10.026  28.642 -0.1444 -0.4443 -0.1367
33878W        W76869  34.257   8.987  16.631 -0.1436 -0.1604  0.0131
33879W        W76870  33.551   4.027  25.961  0.0136 -0.0697  0.1843
33880W        W76871  22.216   3.779  18.941 -0.0263 -0.1533 -0.0611
33881W        W76872   6.116  34.202  18.862  0.4830 -0.1382  0.2635
33882W        W76873  28.402   1.027  14.223  0.1434 -0.3203  0.1150
33883W        W76874   1.087   4.011  16.108  0.0814  0.0402 -0.1008
33884W        W76875  32.185  14.892  28.353  0.0302 -0.1923 -0.3015
33885W        W76876   0.801   9.902  25.330  0.0584 -0.0035 -0.1563
33886W        W76877   4.000   0.287  15.934  0.2493  0.2470 -0.0557
33887W        W76878  19.985  15.656   3.263  0.0467 -0.0379 -0.1805
33888W        W76879  28.629  30.081  24.547  0.1546  0.2605  0.5543
33889W        W76880  32.165   0.453  21.660 -0.0160  0.1584 -0.0384
33890W        W76881  10.607   6.055  24.195  0.1204 -0.0267  0.2387
33891W        W76882  32.837   6.806  27.182  0.4574  0.1185 -0.1483
33892W        W76883  26.276  10.133  17.871  0.1537  0.1257 -0.0405
33893W        W76884  33.750   5.414  15.123 -0.0929  0.1666  0.2558
33894W        W76885  31.604  31.799  21.033  0.3222 -0.0051  0.2599
33895W        W76886   0.995  14.985  20.923 -0.1524 -0.0789 -0.1194
33896W        W76887  29.129   4.707   4.845 -0.1000 -0.3026  0.0241
33897W        W76888   8.836  16.100  16.888  0.1930 -0.5119 -0.1631
33898W        W76889   3.185  12.385  15.765 -0.4416 -0.0209  0.0464
33899W        W76890  34.341   4.277  27.042 -0.1256 -0.1110  0.3106
33900W        W76891   8.146  31.958  18.939 -0.1194  0.1212  0.2037
33901W        W76892  18.868   3.675  24.662  0.1359  0.0817 -0.0489
33902W        W76893  25.353  10.335  15.701  0.0277 -0.1089 -0.1240
33903W        W76894  30.255   6.286  18.911  0.0500 -0.0751 -0.0979
33904W        W76895   8.856   2.355  27.906  0.0684  0.1138  0.1278
33905W        W76896   0.698  20.097  18.785 -0.1249  0.0121 -0.1347
33906W        W76897  31.603   2.416  20.587  0.1279  0.0225 -0.0401
33907W        W76898  22.510   0.873  16.979  0.0060  0.0128  0.1551
33908W        W76899  27.379  24.241  16.650  0.1781 -0.3890  0.2209
33909W        W76900   8.380  23.669  14.304 -0.2199  0.0114 -0.0674
33910W        W76901   0.424  11.812  20.607  0.3601 -0.2410 -0.0097
33911W        W76902  24.172  31.122  23.211  0.2568  0.0483  0.0128
33912W        W76903  22.711  18.927  13.635  0.0872 -0.1530 -0.0083
33913W        W76904  34.143   6.607  15.343 -0.1674  0.2355 -0.2969
33914W        W76905   4.003  22.899  20.016 -0.1601  0.2141 -0.2913
33915W        W76906  30.248  26.404  20.033 -0.1413 -0.4069 -0.1584
33916W        W76907  28.914  10.110  16.652  0.2212  0.3740 -0.1183
33917W        W76908  20.491  33.828  25.733  0.0922 -0.1372 -0.0774
33918W        W76909  29.425   0.395  21.631  0.0457 -0.0690  0.0660
33919W        W76910  34.158  33.960  26.453 -0.3475  0.1637  0.1037
33920W        W76911  27.107  11.486  19.463 -0.1369  0.1793 -0.2415
33921W        W76912  29.615  28.689  15.993  0.3786 -0.3797  0.4075
33922W        W76913  22.535   3.376  27.658  0.0691 -0.1166  0.0804
33923W        W76914  31.110  13.792  16.369 -0.0016 -0.2631 -0.0169
33924W        W76915   9.549   2.214   1.028 -0.3138  0.0752  0.0630
33925W        W76916  30.039  15.562  20.867 -0.1014 -0.1418 -0.2754
33926W        W76917  28.540  10.470  25.555 -0.0955  0.3385  0.0312
33927W        W76918  22.448  26.825  21.026 -0.2517 -0.3079 -0.0585
33928W        W76919  30.382  29.062  17.042 -0.2216  0.3047 -0.1209
33929W        W76920  10.338   9.487  17.563  0.1860 -0.0995  0.0963
33930W        W76921  13.386   4.374  21.612 -0.0622 -0.2272  0.1668
33931W        W76922  14.942  21.611  14.885  0.0366 -0.2744  0.1392
33932W        W76923  34.277  34.370  17.828  0.0433 -0.2066 -0.3099
33933W        W76924  27.437   3.572  21.397 -0.1329 -0.1588  0.1302
33934W        W76925   5.009   5.846  17.736 -0.2249 -0.1876  0.1419
33935W        W76926  21.013   1.976  26.113  0.0877 -0.2046 -0.0207
33936W        W76927  32.122  10.066  23.316  0.4123 -0.2488 -0.2681
33937W        W76928  21.810  32.339  20.358  0.0669 -0.3859  0.0528
33938W        W76929  26.032   3.986  19.021 -0.1810 -0.0885  0.2824
33939W        W76930  23.052   5.081  21.872 -0.1228 -0.0781 -0.0800
33940W        W76931  31.120   3.270  17.266  0.2307  0.4300  0.1383
33941W        W76932  28.992   0.913  18.903 -0.0269 -0.1162  0.2188
33942W        W76933  26.316   4.988  19.919  0.0980 -0.0258  0.0655
33943W        W76934  28.779   7.809  25.448  0.4073  0.0533 -0.1709
33944W        W76935   7.032   2.028   2.474  0.0109  0.0325 -0.1585
33945W        W76936  31.031  26.595  18.369  0.0291 -0.1338  0.1496
33946W        W76937   0.374  14.776   0.961 -0.0108 -0.1219 -0.1587
33947W        W76938  34.116   7.195   4.869  0.0548  0.0909 -0.1935
33948W        W76939  33.508  12.221  19.701 -0.0949  0.1647  0.0817
33949W        W76940  23.036  13.265  14.949 -0.2801  0.0337  0.0370
33950W        W76941   1.960  10.365   3.619 -0.1152 -0.4306 -0.1660
33951W        W76942   8.713  10.168  22.514 -0.0779 -0.1444 -0.1430
33952W        W76943  34.232   2.298  15.857  0.2250  0.3105 -0.2309
33953W        W76944  31.984   5.604  22.590  0.0294  0.0702 -0.1592
33954W        W76945  12.762   5.627  16.504  0.0092 -0.0464 -0.2473
33955W        W76946   1.936  12.691  16.914 -0.0366 -0.0356  0.3052
33956W        W76947  17.439  13.990  28.430  0.0320  0.1959  0.0323
33957W        W76948  22.163  12.741  13.329 -0.0658  0.0445  0.1727
33958W        W76949  29.319  23.357  22.662  0.1481 -0.3167  0.0066
33959W        W76950  32.342   6.510  13.992 -0.0689  0.1304  0.1318
33960W        W76951  32.394   8.065  19.040  0.0238 -0.0565  0.2944
33961W        W76952  22.498   7.188  28.241 -0.0435 -0.1718 -0.1803
33962W        W76953  13.982  17.836  14.914 -0.1060 -0.3542  0.0785
33963W        W76954  13.993   6.480  22.101 -0.0271  0.2179  0.3411
33964W        W76955  18.049   8.583  14.445 -0.0081  0.2596  0.0953
33965W        W76956  28.815  23.388  22.527 -0.0325  0.0079  0.1646
33966W        W76957   1.729   5.316  25.315 -0.1238 -0.2646  0.0625
33967W        W76958   7.087   2.702  17.295  0.1497  0.1713 -0.1255
33968W        W76959  17.250   3.226   1.254  0.0826 -0.0583  0.0157
33969W        W76960  31.759  10.432   1.682 -0.1125 -0.0091  0.1357
33970W        W76961  33.049  11.833   9.719 -0.1810  0.0885 -0.1375
33971W        W76962  30.189  11.393  16.091  0.2281 -0.2032  0.1727
33972W        W76963   4.341  33.899  28.853  0.2693  0.3197 -0.0324
33973W        W76964  26.399  18.453  15.474  0.2323  0.0471 -0.0970
33974W        W76965  33.829  13.174   4.276 -0.0880 -0.2697 -0.3162
33975W        W76966  17.577  10.865  23.785 -0.1618 -0.4431 -0.3589
33976W        W76967  32.826   8.988  22.818 -0.0307 -0.0332 -0.4270
33977W        W76968   2.257  13.767  20.926  0.0797 -0.3446 -0.1271
33978W        W76969  29.077  11.244  18.449  0.1649  0.0746 -0.0254
33979W        W76970  27.597   4.534  21.012 -0.1897  0.3857  0.2336
33980W        W76971  21.076  10.588  21.347  0.2096  0.0971 -0.1562
33981W        W76972   4.639  14.735  25.903  0.1365 -0.4280  0.1114
33982W        W76973  30.471  13.889   4.019  0.2187 -0.0028 -0.0711
33983W        W76974   0.550  33.401  16.967  0.1875  0.1804 -0.2404
33984W        W76975  34.112   0.795  10.025  0.1155  0.1288 -0.1531
33985W        W76976  21.483   0.885  24.773 -0.1610  0.1344 -0.2479
33986W        W76977   3.525   0.192  16.772 -0.1295  0.0690 -0.0835
33987W        W76978  34.397  20.858  22.241 -0.0591 -0.2281 -0.2478
33988W        W76979  31.949  13.428  23.136 -0.0823  0.0742 -0.1418
33989W        W76980   5.988   4.143  19.869 -0.0684 -0.0786 -0.4776
33990W        W76981  16.228  11.717   4.872  0.1487 -0.0773  0.0306
33991W        W76982  26.733  22.138  22.784 -0.1528  0.1005 -0.2365
33992W        W76983  24.518  21.732  12.933  0.1866 -0.1208 -0.1574
33993W        W76984  33.506  19.004  28.158  0.1308 -0.3940  0.0061
33994W        W76985  11.584  14.426  20.640 -0.3370 -0.2969  0.0395
33995W        W76986   4.597  11.038   2.078  0.0234 -0.2679 -0.1157
33996W        W76987  29.592  14.334   2.592  0.0675 -0.2346  0.2562
33997W        W76988  31.583  13.298  23.395  0.1668  0.0135 -0.1322
33998W        W76989  26.310   1.195   2.221  0.0075 -0.1705  0.1516
33999W        W76990  30.287  16.390   4.741 -0.0686 -0.1880 -0.0753
34000W        W76991  20.712  11.792  17.016 -0.0554  0.0301  0.2967
34001W        W76992  29.759  34.014   7.857 -0.1440  0.0339  0.0453
34002W        W76993  33.258  12.215  27.607  0.1017 -0.0972  0.2215
34003W        W76994  12.488   3.638  15.503  0.0865 -0.4843 -0.0126
34004W        W76995   0.590  14.345  20.556  0.1653  0.2375 -0.0036
34005W        W76996  31.472   7.791  22.449  0.1778  0.2278 -0.1830
34006W        W76997  28.148   0.721  20.969  0.0696 -0.1615 -0.0804
34007W        W76998  26.611  27.552  19.241  0.0685  0.3886 -0.4581
34008W        W76999  29.406  31.254  15.302  0.0149  0.1747  0.1425
34009W        W77000  15.866   0.720   3.926 -0.1714 -0.0158 -0.0791
34010W        W77001  11.705   4.513  24.349 -0.0835 -0.1091 -0.1104
34011W        W77002  34.047  19.524  21.432 -0.1157 -0.3268  0.1781
34012W        W77003   6.631  14.504   9.112  0.0318  0.0567 -0.0606
34013W        W77004  26.547  32.472  13.779 -0.0506 -0.0860 -0.0072
34014W        W77005  30.397  32.399  18.935  0.2343 -0.0346 -0.0481
34015W        W77006   2.849  15.625   2.972  0.2185 -0.0797  0.0543
34016W        W77007   5.527  15.115   8.165 -0.0974  0.0293 -0.1643
34017W        W77008   7.387   1.602   4.480  0.2273 -0.0015  0.0048
34018W        W77009  18.734  13.226  15.023 -0.1447  0.0521 -0.2537
34019W        W77010  30.719  17.867  18.304  0.7225 -0.4063 -0.1872
34020W        W77011   3.060  22.943  18.784  0.0718  0.0776 -0.1896
34021W        W77012  22.908  17.459  13.955  0.0543 -0.1831 -0.2154
34022W        W77013  25.630   3.210  25.332  0.0720  0.1179  0.3273
34023W        W77014  21.231   3.977  20.546  0.0133  0.2330  0.0466
34024W        W77015   6.511  15.044   3.035  0.0902  0.0871  0.1551
34025W        W77016   4.749  34.673  24.139  0.2816  0.2140 -0.2621
34026W        W77017  29.143   5.364  20.551  0.4724  0.0447  0.2067
34027W        W77018  24.947  14.161  21.506 -0.3136 -0.0972  0.0584
34028W        W77019  10.089  32.321  16.827 -0.0893 -0.2441 -0.3405
34029W        W77020  34.432  26.675  21.962  0.1319  0.1616 -0.1168
34030W        W77021  31.589   5.573  28.957  0.0660 -0.3265  0.0133
34031W        W77022  25.978   2.811  23.921 -0.1642 -0.0968  0.1863
34032W        W77023  30.848  25.637  14.821  0.0748 -0.0896  0.1053
34033W        W77024  30.446  33.497  21.514 -0.1721 -0.1604  0.1241
34034W        W77025  31.493   8.934  20.077  0.1249 -0.1666  0.1064
34035W        W77026  20.096  28.366   0.202  0.1459  0.2907 -0.1932
34036W        W77027   7.688  15.934  16.502  0.0842 -0.2103 -0.0078
34037W        W77028   9.846  21.959  26.347 -0.1806  0.2938  0.0891
34038W        W77029  33.440  11.983  21.190 -0.1191  0.0687 -0.0423
34039W        W77030  32.848  11.306  17.117 -0.1912  0.3250  0.1905
34040W        W77031  10.693  20.669  14.879 -0.4037 -0.2235 -0.3252
34041W        W77032   8.205  34.647  21.363 -0.1629 -0.1814 -0.0205
34042W        W77033  31.622   5.722  15.549  0.1849  0.2994  0.1196
34043W        W77034  11.385   7.655   0.306 -0.0261 -0.2623 -0.0232
34044W        W77035   8.147  11.159  15.268 -0.0311  0.2501  0.0416
34045W        W77036  28.882  17.190  15.576 -0.1511 -0.0056  0.1671
34046W        W77037  27.470  26.419   4.742 -0.0328  0.1335 -0.1899
34047W        W77038   7.298   8.410  19.396  0.0306 -0.0884 -0.0052
34048W        W77039  29.971   6.273  13.926 -0.0842 -0.0449  0.0796
34049W        W77040  34.757  32.166  23.763  0.1399 -0.0345 -0.3965
34050W        W77041  24.190   7.556  20.042 -0.0919 -0.0692 -0.0147
34051W        W77042  25.993  21.132  18.526 -0.1041 -0.1057  0.1874
34052W        W77043  19.109   0.641  15.988 -0.1380 -0.0254  0.2292
34053W        W77044  11.658  22.315   0.998 -0.0375  0.3324 -0.1285
34054W        W77045  18.260   6.952  16.973 -0.0708 -0.0042 -0.0499
34055W        W77046  27.069   9.794   3.019  0.2370 -0.1546  0.1056
34056W        W77047  26.918  32.285  15.113  0.1206  0.2140 -0.0089
34057W        W77048  23.298  19.420  28.316  0.6102  0.1571 -0.3140
34058W        W77049  20.797   0.710  28.181  0.0948 -0.0437  0.0456
34059W        W77050  23.070  29.687  17.495  0.0559  0.4674 -0.0261
34060W        W77051  29.655   7.263   1.922  0.0389  0.2226  0.1100
34061W        W77052  30.307  19.303  14.351  0.0311 -0.2094  0.0113
34062W        W77053   5.773  20.561  23.623 -0.0511  0.1043 -0.2806
34063W        W77054   9.240   9.892  26.168 -0.2579 -0.0704  0.0243
34064W        W77055  30.557  22.200  17.855 -0.1404 -0.2188  0.1540
34065W        W77056   2.040   9.172  22.028 -0.1519  0.0830 -0.0182
34066W        W77057  17.243  13.483  18.065 -0.2580 -0.0616 -0.1148
34067W        W77058  30.796  10.366  22.445  0.1264  0.1012 -0.0769
34068W        W77059  27.708  34.800   0.959  0.0029  0.1680  0.0004
34069W        W77060  11.348  14.271  25.752  0.0920 -0.3414  0.1031
34070W        W77061  24.566  31.730  24.597 -0.1595 -0.3107 -0.2230
34071W        W77062  10.020   0.757  15.207 -0.3287  0.2533 -0.0874
34072W        W77063   7.437  34.332  28.939  0.1338  0.0140 -0.0572
34073W        W77064  26.944   4.028  14.926 -0.3423 -0.0393  0.0539
34074W        W77065  34.128  17.430  24.889 -0.2126  0.2829 -0.0853
34075W        W77066  18.116  31.544  13.941  0.1177 -0.0538 -0.1434
34076W        W77067  27.812  21.720  19.902 -0.1219  0.4281  0.1059
34077W        W77068   9.101  25.805   8.016 -0.2544  0.0517 -0.2414
34078W        W77069  31.503  20.077  23.506 -0.1687  0.0342 -0.0408
34079W        W77070   6.706  17.321  15.640 -0.3102  0.2303  0.2540
34080W        W77071   4.423   2.605  24.960 -0.0181 -0.0416 -0.6158
34081W        W77072  32.100  22.476  22.289  0.1801 -0.1216 -0.0539
34082W        W77073  25.546  13.416  15.280 -0.0641  0.4160 -0.2847
34083W        W77074  17.821  13.073   2.971  0.0382  0.1013  0.0317
34084W        W77075   9.955   4.422  20.218 -0.0017 -0.1402  0.0694
34085W        W77076  23.909   6.825  23.965 -0.1133  0.1062  0.0145
34086W        W77077  22.782   8.076  26.117 -0.0577 -0.3368 -0.0363
34087W        W77078  16.319   5.690  27.071  0.1697 -0.1048  0.1715
34088W        W77079   6.439   2.105  23.379 -0.1419  0.1641 -0.2985
34089W        W77080  20.896  13.759  14.936 -0.0338 -0.0336  0.2815
34090W        W77081  23.300   8.474  15.229  0.0569  0.2708 -0.1311
34091W        W77082  27.564   5.273  20.480 -0.3518  0.2067 -0.0489
34092W        W77083   4.375   6.707  26.417  0.0794 -0.1806 -0.0724
34093W        W77084  29.119   0.854  16.245  0.3092 -0.3169 -0.2915
34094W        W77085  27.250  22.512   8.930  0.2493 -0.0451  0.1153
34095W        W77086  19.147  32.118  19.461 -0.1190 -0.2907  0.0454
34096W        W77087   0.201  12.573  17.297  0.1333 -0.0604 -0.2084
34097W        W77088  17.553   7.082  22.196 -0.1119 -0.1156  0.0255
34098W        W77089  31.899   0.751  24.850  0.3495  0.1914  0.0164
34099W        W77090  33.570   9.170  17.335  0.0615 -0.0545  0.0671
34100W        W77091   1.441   1.576  19.735  0.3684  0.0625  0.0583
34101W        W77092  23.891  11.904  20.597 -0.1040  0.0269 -0.1093
34102W        W77093  29.094   4.704  14.842 -0.1164  0.1073  0.1601
34103W        W77094   2.786   4.547  27.680  0.0975 -0.0681 -0.2858
34104W        W77095  34.230  11.946   3.525  0.4470 -0.2076  0.0836
34105W        W77096  20.569   6.921  14.572  0.4084 -0.2215 -0.3430
34106W        W77097  31.182  22.434  13.796 -0.4640  0.2528  0.0084
34107W        W77098  31.265  29.235  24.817 -0.0679 -0.1202 -0.2710
34108W        W77099   5.164  19.305  21.486  0.3049 -0.1226 -0.0975
34109W        W77100  24.638   5.238  27.245 -0.1200 -0.2334 -0.5986
34110W        W77101  23.955   9.623  21.657  0.0024 -0.3349 -0.0956
34111W        W77102  10.785  26.971  28.227 -0.2860 -0.0995 -0.1538
34112W        W77103  25.990  33.895  21.541 -0.0127 -0.2430 -0.1147
34113W        W77104   7.456  26.243  15.894  0.2670  0.1023 -0.0386
34114W        W77105  14.201  13.040  29.235 -0.1936 -0.2170  0.0670
34115W        W77106  34.461   8.957  20.352  0.1667  0.1129 -0.1848
34116W        W77107   3.973   3.427  22.301 -0.2365  0.1563 -0.0928
34117W        W77108  22.725  12.808  14.882 -0.2253  0.1050 -0.0622
34118W        W77109  34.011  15.272   7.466  0.2206  0.1687 -0.0033
34119W        W77110   3.405  10.318  18.007 -0.0801  0.0035 -0.2329
34120W        W77111  30.429  13.337  21.016  0.0343  0.2044  0.2701
34121W        W77112  23.379   6.036  28.076  0.2001  0.0598  0.1036
34122W        W77113  31.114  14.109  17.039 -0.5737  0.1124 -0.1781
34123W        W77114   0.161   7.511   7.796 -0.0079  0.1261  0.2101
34124W        W77115  10.187  10.537   1.246 -0.0978  0.2346  0.0557
34125W        W77116   6.890  32.215  14.543  0.3768 -0.2926  0.0789
34126W        W77117  13.123  23.654  19.809 -0.2915  0.0561  0.1352
34127W        W77118  10.541  32.256  16.728 -0.1125 -0.0643  0.2439
34128W        W77119   8.158  22.699  20.823  0.2816 -0.1137  0.0234
34129W        W77120  29.488   0.369  21.085  0.0952  0.1247  0.2983
34130W        W77121  30.327  14.184  20.171  0.0473 -0.2717  0.0573
34131W        W77122  32.330  31.445   0.695 -0.1227  0.0711  0.3742
34132W        W77123  28.640  17.876  24.429 -0.1090 -0.1166  0.4018
34133W        W77124  28.327   3.030  23.586 -0.0095 -0.1037 -0.0223
34134W        W77125   4.636  19.429  16.692 -0.2341 -0.0514  0.0710
34135W        W77126   4.929  15.498  21.755  0.3554 -0.0457 -0.1944
34136W        W77127  28.076  14.314  25.855 -0.5290  0.0669  0.0451
34137W        W77128  13.518  15.931  17.007  0.0067 -0.0584 -0.4262
34138W        W77129  21.922  12.943  26.506 -0.1470 -0.1184 -0.1128
34139W        W77130   0.404  16.421   8.730 -0.0033  0.0543 -0.2196
34140W        W77131   4.854  18.353  16.029  0.0226  0.0052  0.3824
34141W        W77132  19.528  22.428  13.962  0.1545  0.2421 -0.1875
34142W        W77133  21.817  34.641  25.608 -0.3138  0.1762 -0.3923
34143W        W77134  24.695   8.187  16.961 -0.1781  0.1667 -0.0589
34144W        W77135   3.226  30.441  16.749 -0.1344  0.2511  0.1762
34145W        W77136   7.696  15.325  21.293 -0.2686  0.2127 -0.1301
34146W        W77137   8.001  17.175  24.364  0.0422 -0.0622 -0.0522
34147W        W77138  25.586  17.802  25.635 -0.0431 -0.2138  0.0463
34148W        W77139  33.418   8.823   2.734  0.2991 -0.4963  0.2478
34149W        W77140  31.369  20.633  17.681 -0.1876  0.0314  0.2095
34150W        W77141  16.192  16.495  26.081 -0.0427 -0.1454 -0.2194
34151W        W77142  27.100  33.198  17.640 -0.1930  0.1607  0.0255
34152W        W77143  33.380  11.442   4.334  0.0076  0.2138 -0.3624
34153W        W77144   0.041  13.832  26.593  0.0119 -0.1414 -0.0499
34154W        W77145   2.040  18.193  23.670 -0.2490  0.0151 -0.0842
34155W        W77146   2.508  14.678  22.991 -0.2313 -0.0548 -0.3332
34156W        W77147  10.117  13.149  28.959  0.1604 -0.0968 -0.1863
34157W        W77148  21.833   2.237   0.484  0.1146  0.3592  0.0283
34158W        W77149   1.536   8.955  17.074  0.0006  0.1830 -0.0586
34159W        W77150  30.291  32.325   2.824 -0.0793 -0.1567  0.2796
34160W        W77151  20.753  33.405  19.540  0.0718  0.0841 -0.0797
34161W        W77152  15.818  12.706  19.384 -0.0572  0.1964  0.0008
34162W        W77153  33.517  29.678  15.165  0.2651 -0.1290  0.1789
34163W        W77154  15.321   2.826  16.946 -0.2532 -0.2002  0.0272
34164W        W77155  24.548   8.139  19.795  0.1750  0.0883  0.0972
34165W        W77156  26.288  23.875  20.938  0.2269 -0.0961  0.1168
34166W        W77157   1.085   9.018  20.176 -0.1009 -0.4057  0.0025
34167W        W77158   4.318  19.392  18.366 -0.3196 -0.2008  0.2148
34168W        W77159   0.837   5.776  26.066  0.0164 -0.1948  0.1800
34169W        W77160  26.371   3.587   8.441 -0.0749  0.1302 -0.0261
34170W        W77161  18.487   6.794  23.331  0.0409  0.0213  0.0997
34171W        W77162  21.345   9.324  19.532 -0.0492 -0.1756 -0.1603
34172W        W77163   0.088  13.135  28.992  0.1193  0.0267  0.0221
34173W        W77164   5.716  33.972  16.822 -0.0868 -0.1381 -0.1266
34174W        W77165  22.673  13.554  14.019 -0.0807  0.0517 -0.0132
34175W        W77166  32.587  34.399   4.861 -0.3378 -0.0061 -0.0527
34176W        W77167  32.793  23.135  23.981 -0.1101  0.1101 -0.1474
34177W        W77168  29.867   4.210  23.188 -0.1371 -0.1376  0.3077
34178W        W77169  34.552   1.344  20.655 -0.1338 -0.2661  0.1212
34179W        W77170  21.789   8.268  19.814  0.1785  0.2288 -0.1283
34180W        W77171  32.462   8.951  15.539 -0.0490 -0.1100  0.0084
34181W        W77172  21.860   4.463  26.708 -0.0270  0.0901 -0.2428
34182W        W77173  20.947  31.783  24.746 -0.1034 -0.1354  0.2050
34183W        W77174  31.168  11.018  21.454  0.1177  0.0945 -0.0659
34184W        W77175  33.268  33.077  16.566 -0.3864  0.0599 -0.0290
34185W        W77176  29.830  10.221  15.729 -0.0180 -0.2162  0.3762
34186W        W77177   4.506   9.026  21.209 -0.0864  0.1317 -0.0752
34187W        W77178  15.258  31.992  20.128  0.1309  0.1636 -0.2493
34188W        W77179  34.487  14.592   5.368 -0.0116 -0.2285  0.0850
34189W        W77180  25.035   8.001   4.811  0.2414 -0.0619 -0.1020
34190W        W77181  17.370  26.003  27.376 -0.2031  0.0568  0.0265
34191W        W77182   2.878  19.638  15.732  0.2218 -0.0463  0.2577
34192W        W77183  27.539  13.968  19.270 -0.0698  0.0702 -0.0523
34193W        W77184   9.045  12.994  22.277 -0.2677 -0.0755 -0.0604
34194W        W77185   8.461  11.319  20.686  0.0383 -0.0145 -0.0821
34195W        W77186  29.623  21.290  20.240 -0.2385  0.0848  0.0697
34196W        W77187  19.667  29.377  16.549 -0.0589  0.0744  0.0541
34197W        W77188  18.119   6.412  21.034 -0.1672  0.1059  0.0689
34198W        W77189  34.753  11.506  20.386 -0.1406  0.2789  0.2955
34199W        W77190   3.192  22.047  22.930  0.0400 -0.1786 -0.2217
34200W        W77191  29.777  14.189  27.919 -0.0910 -0.0676  0.2022
34201W        W77192  16.672  13.175  27.843 -0.0238  0.0821  0.1262
34202W        W77193  33.095  25.018  18.095  0.0589  0.1116 -0.5373
34203W        W77194  26.946   8.258   1.935 -0.1919  0.0654 -0.0231
34204W        W77195  32.601  33.473  20.406 -0.0269  0.0672 -0.1872
34205W        W77196   9.036  19.316  16.166 -0.0587  0.0008 -0.3723
34206W        W77197  22.699   6.410  23.255  0.0614 -0.1028 -0.2161
34207W        W77198  32.346   7.981  24.386 -0.2344 -0.1919 -0.4293
34208W        W77199  22.852  33.388  28.386  0.1609  0.1295 -0.1466
34209W        W77200   2.026  27.989  20.358 -0.2952  0.0095  0.0431
34210W        W77201  34.193  34.508  20.829  0.2197 -0.1559 -0.1722
34211W        W77202  31.450   8.547  24.251  0.2650  0.2703  0.1943
34212W        W77203  11.703  22.394  23.383 -0.0533 -0.0226  0.3157
34213W        W77204   3.282   0.974   9.755 -0.2080  0.0302  0.2119
34214W        W77205  24.795   3.941  21.172 -0.3261  0.0211  0.2481
34215W        W77206  11.695   0.422  23.577  0.0790  0.0720  0.0157
34216W        W77207  11.645  11.898  26.104  0.0052  0.2276 -0.1343
34217W        W77208  27.813  11.105  14.794  0.2894  0.0910  0.0694
34218W        W77209  19.361  13.252  26.245 -0.2592 -0.0817 -0.0726
34219W        W77210  31.942   5.225  25.310  0.0024  0.0646 -0.1827
34220W        W77211  33.580   3.948  19.841 -0.1766 -0.2072 -0.3350
34221W        W77212  27.608  20.512  15.778 -0.2825  0.0137 -0.0095
34222W        W77213   5.560   4.476  15.772 -0.4513 -0.1430  0.0137
34223W        W77214  19.661  21.906  15.024 -0.0759 -0.0972 -0.0549
34224W        W77215   3.983  11.451  20.108  0.1244  0.0333 -0.0642
34225W        W77216  20.772  11.553  13.257  0.5175 -0.2593  0.0848
34226W        W77217  27.035   1.311  26.562 -0.0496 -0.1139  0.5267
34227W        W77218  16.893   4.533   5.585 -0.2384  0.0434 -0.1314
34228W        W77219  33.500  12.810  21.811 -0.0822 -0.0679  0.0955
34229W        W77220  33.089   2.273  15.248 -0.0950  0.3107 -0.1424
34230W        W77221  16.486   4.931  21.175 -0.3814 -0.1470  0.0579
34231W        W77222  27.162  27.265  17.153  0.1570 -0.0199 -0.0534
34232W        W77223  33.369   8.664  19.763 -0.0285  0.3156 -0.0585
34233W        W77224  24.634  21.808   5.950  0.3856  0.3747 -0.1809
34234W        W77225  22.532  19.513  19.395 -0.0950 -0.1318 -0.1202
34235W        W77226  29.713  13.031  24.482 -0.1829 -0.0970 -0.0086
34236W        W77227  22.081  31.308  22.578  0.2631  0.0927 -0.2213
34237W        W77228  15.400  13.244  19.941  0.1633 -0.2607 -0.2066
34238W        W77229   8.414  30.949  28.255  0.1066  0.0305 -0.1654
34239W        W77230  20.262  26.162  20.551 -0.2355  0.0303  0.0010
34240W        W77231  27.551   6.508  20.861  0.0793  0.2442 -0.0611
34241W        W77232   4.787   4.531  18.568  0.3715 -0.2020 -0.2317
34242W        W77233  17.606  13.016  18.722  0.0591 -0.1017 -0.1008
34243W        W77234  10.085   7.328  27.317 -0.0137 -0.0400  0.0127
34244W        W77235  28.344   9.060  20.830  0.2644 -0.2532  0.3371
34245W        W77236  32.609  27.609  22.708 -0.4444 -0.4320  0.1836
34246W        W77237   8.291  18.950   8.435 -0.1367  0.3307  0.0235
34247W        W77238   3.903  18.791  24.346 -0.0852  0.1664  0.3884
34248W        W77239  11.025  14.885  18.105  0.0700  0.2782  0.2393
34249W        W77240  22.148   8.192  16.505  0.0655  0.0753 -0.0695
34250W        W77241   5.021  16.492   4.592 -0.0697 -0.0846  0.2188
34251W        W77242  26.452   6.131  26.652  0.0973 -0.0319  0.1634
34252W        W77243  12.273   5.959  19.712  0.0501  0.0992 -0.2981
34253W        W77244  28.109   2.179   4.286 -0.1104  0.2415 -0.1451
34254W        W77245   5.378  24.315  25.086 -0.1322  0.0292 -0.2520
34255W        W77246  32.798   5.458  23.423 -0.2103 -0.1160  0.0271
34256W        W77247   5.642  19.441  21.675 -0.1920 -0.1113  0.1024
34257W        W77248   4.804  27.895  16.997  0.1314 -0.1102  0.1484
34258W        W77249  29.976  16.229  22.979  0.1562  0.2553 -0.0579
34259W        W77250  17.733  14.829  15.364 -0.2118  0.2491 -0.2888
34260W        W77251   3.332  10.664  26.813 -0.4026 -0.2039 -0.1620
34261W        W77252  20.292  11.103  23.568  0.3109 -0.2750 -0.0459
34262W        W77253  23.317   4.242  13.924 -0.1384  0.2304  0.0106
34263W        W77254  13.220  22.674  15.029 -0.1343  0.4573  0.1794
34264W        W77255  26.960  15.524  17.616  0.2402 -0.0877  0.1003
34265W        W77256  27.726  22.166  13.599  0.0285  0.0881  0.1478
34266W        W77257  27.234  17.566  18.908 -0.2891  0.0054 -0.0556
34267W        W77258  31.079   5.248  18.045 -0.3478  0.0021 -0.1443
34268W        W77259  25.998  12.489  27.430 -0.0080  0.0975  0.0952
34269W        W77260  25.673  18.298   7.453  0.0797 -0.0608  0.2167
34270W        W77261   0.180  26.832  26.576  0.0713 -0.1214 -0.4930
34271W        W77262  18.567   3.292  15.166  0.0757  0.2337 -0.2042
34272W        W77263  25.709  30.938  21.145 -0.4139  0.0702  0.0385
34273W        W77264   4.419  17.571  24.668  0.2194  0.0758 -0.1360
34274W        W77265  29.216   4.295   6.869 -0.1434 -0.0521 -0.1391
34275W        W77266  31.996   8.382  28.951 -0.0350  0.0415 -0.2024
34276W        W77267  33.717  34.135  14.612  0.1686  0.0495  0.2081
34277W        W77268   0.436  17.994   1.259  0.4274 -0.0620 -0.2025
34278W        W77269   1.695   0.717   7.209  0.1506  0.0099 -0.1083
34279W        W77270   8.260  16.431  20.481 -0.2699  0.3799 -0.1874
34280W        W77271  24.675   3.500   7.263 -0.1683  0.2919 -0.1367
34281W        W77272   1.824   2.496  17.051 -0.0517 -0.2458 -0.0371
34282W        W77273   0.024  21.324  24.941  0.1718  0.2580 -0.2609
34283W        W77274  11.534  20.176  21.508 -0.0596 -0.2495  0.3041
34284W        W77275  16.773  28.917  23.765 -0.3025  0.1954  0.1827
34285W        W77276   7.499   2.435  24.975  0.1480  0.0788  0.3588
34286W        W77277  17.258  12.289  22.322  0.0892  0.5259  0.0584
34287W        W77278   5.437   3.366  15.110  0.2245 -0.0286  0.0431
34288W        W77279  27.867  10.530  15.648  0.1116  0.0166  0.1360
34289W        W77280  30.423  16.633  21.645 -0.2711 -0.2023 -0.0380
34290W        W77281  14.261  19.354  16.561 -0.2264 -0.0085 -0.0637
34291W        W77282  28.788  23.223  23.381  0.0082  0.0595  0.0682
34292W        W77283  33.626   9.447  28.530  0.2073 -0.2109  0.3269
34293W        W77284   8.146  12.568  22.125  0.1214 -0.1597  0.3793
34294W        W77285   0.820  17.807  22.822  0.1233  0.1203  0.3980
34295W        W77286  26.091   7.567  17.391  0.2734  0.2481 -0.1210
34296W        W77287  18.811  12.354  24.631 -0.1682 -0.0849 -0.1283
34297W        W77288  33.821  14.240  21.889  0.3647 -0.1265  0.0760
34298W        W77289  23.707  25.625  17.740 -0.2707 -0.0158  0.0794
34299W        W77290  20.289   1.229  15.494 -0.1336  0.1929 -0.2408
34300W        W77291  25.211  10.083  18.920  0.0735 -0.0387  0.1968
34301W        W77292  33.697  32.286  27.700  0.0527 -0.1160  0.0145
34302W        W77293  14.833   9.176   7.017 -0.1744  0.5821  0.1558
34303W        W77294  30.165  19.574  19.553 -0.0954 -0.0044 -0.2170
34304W        W77295   2.695   4.072  22.640 -0.0465 -0.3334  0.2246
34305W        W77296   6.514  28.439  18.454  0.0803  0.1378  0.4959
34306W        W77297  22.371  31.207  19.234 -0.1954 -0.0045 -0.1242
34307W        W77298  27.628  16.164  18.429 -0.0134  0.1655 -0.0583
34308W        W77299  32.490  26.527   0.978 -0.2842  0.1612 -0.3210
34309W        W77300  21.898  16.562  23.500  0.0160 -0.1157 -0.0075
34310W        W77301   2.327  20.259  17.302  0.0188 -0.0031  0.1628
34311W        W77302  15.318   2.841  28.221 -0.1577  0.0903  0.0116
34312W        W77303  28.171   5.172  22.966  0.0198  0.1334  0.0822
34313W        W77304  25.316  14.377  22.811 -0.0410 -0.0418  0.2440
34314W        W77305   7.429  28.481  17.160  0.0960  0.0397  0.0751
34315W        W77306   4.641  10.952   4.489  0.0673 -0.1283 -0.1149
34316W        W77307   0.049  15.895  15.467  0.5116 -0.0351  0.1199
34317W        W77308  19.826  24.168  17.419  0.3797  0.0320  0.1608
34318W        W77309   5.912   5.576  28.333  0.1565  0.1028  0.0530
34319W        W77310  20.118   1.340  14.163 -0.0582 -0.2791  0.4395
34320W        W77311  12.790  26.117  19.041 -0.0442 -0.1048 -0.1163
34321W        W77312  33.278   1.371  15.243 -0.2490 -0.1280 -0.3404
34322W        W77313  26.686   9.873   0.419 -0.0030 -0.1862  0.3243
34323W        W77314  20.209  14.561  13.446 -0.2971  0.0091  0.0702
34324W        W77315   2.715  32.527   7.763 -0.0754 -0.2228 -0.0176
34325W        W77316  26.869  24.001  14.059  0.2338 -0.1539 -0.2603
34326W        W77317  33.687  32.015  21.105  0.1467  0.3512  0.0505
34327W        W77318  27.439  17.951  14.477  0.3144 -0.1119  0.1785
34328W        W77319  34.382  34.220  18.386 -0.1005  0.1062 -0.0812
34329W        W77320  30.716   1.641  18.405 -0.4381 -0.3182 -0.0697
34330W        W77321  26.641   4.284  27.667  0.2427  0.2382 -0.2313
34331W        W77322   4.320   1.930   1.434  0.1331 -0.1400  0.2383
34332W        W77323  14.774  14.590   3.451 -0.0841  0.2219 -0.0832
34333W        W77324  33.607   4.591  22.394 -0.1055 -0.0863 -0.1197
34334W        W77325  22.536  13.955  16.908  0.2320  0.3969 -0.0016
34335W        W77326  31.799   4.817  16.821 -0.1770  0.0378  0.1461
34336W        W77327   5.238   9.426   3.460 -0.1525  0.0290 -0.0242
34337W        W77328  27.868   4.984  17.249 -0.2967 -0.0800 -0.2221
34338W        W77329  28.565   9.329  25.142  0.2859 -0.3251 -0.0371
34339W        W77330  29.932  20.031  23.592 -0.1414 -0.2540  0.3269
34340W        W77331  26.684  11.989  16.873 -0.2691 -0.0310 -0.0766
34341W        W77332  34.113  14.444  24.331 -0.2372  0.0992 -0.0423
34342W        W77333   1.228   2.040  21.661 -0.1672  0.3220  0.1661
34343W        W77334   5.498   6.263  17.387  0.1139  0.0970 -0.2142
34344W        W77335   6.044   5.657  26.628 -0.3692  0.1592 -0.0554
34345W        W77336  30.164   8.043  14.250  0.1833 -0.1948  0.0834
34346W        W77337   3.049   8.525  18.988  0.1837 -0.3128  0.1591
34347W        W77338  14.868  10.920  23.462  0.3756 -0.2575 -0.2111
34348W        W77339  17.440   7.956  15.185  0.3082 -0.1673  0.3005
34349W        W77340  21.949  14.555  15.950  0.1415 -0.1327  0.0735
34350W        W77341   8.358  24.860  14.791  0.0407  0.1103 -0.2812
34351W        W77342  26.865  14.389  22.574 -0.0509 -0.0042 -0.0456
34352W        W77343  20.867  11.664  21.171 -0.2356  0.0223 -0.0593
34353W        W77344  23.936   8.965  17.597  0.2652 -0.1976 -0.0577
34354W        W77345  23.801   3.932  19.509  0.3508  0.0327 -0.1186
34355W        W77346   8.895   9.822  21.403 -0.1009  0.0225  0.1588
34356W        W77347  28.200  26.720   2.820 -0.0826 -0.0798  0.4015
34357W        W77348  26.111  22.145  28.355  0.0632 -0.2498 -0.2004
34358W        W77349   2.296   5.513  22.127 -0.0195  0.2162  0.2600
34359W        W77350   2.411  18.833   1.436 -0.0700  0.0071  0.1798
34360W        W77351   5.742  21.062  20.660  0.1191 -0.1679  0.2502
34361W        W77352  14.117   8.633  23.892 -0.0808  0.1984 -0.1746
34362W        W77353  24.507  21.886  26.161  0.0776 -0.0085 -0.0577
34363W        W77354   4.787   1.977  22.656  0.1945 -0.0344 -0.1126
34364W        W77355  13.400   8.984  10.495  0.0656 -0.2316 -0.0173
34365W        W77356  11.161  19.333  16.278 -0.2592  0.0353 -0.1528
34366W        W77357  25.812  30.763  27.156 -0.3410  0.3732 -0.4261
34367W        W77358  27.952  11.278   2.792  0.3810 -0.2847  0.0044
34368W        W77359  33.753   2.672   9.702 -0.1792 -0.2289 -0.2399
34369W        W77360  26.327   1.467  12.749  0.3927  0.4073 -0.0101
34370W        W77361  27.557  12.575  20.806 -0.2125  0.1819  0.2874
34371W        W77362  19.447   7.162  26.047  0.3828 -0.0684 -0.0303
34372W        W77363   1.133   9.218  27.284  0.1115  0.2148 -0.0370
34373W        W77364  12.045   2.776   9.221 -0.1514  0.0402 -0.2738
34374W        W77365  31.432  10.508   3.416 -0.0476 -0.0766 -0.1320
34375W        W77366  25.231   2.939   2.007 -0.1715 -0.0911 -0.0297
34376W        W77367  31.468  21.671  14.767  0.1624 -0.0010  0.4593
34377W        W77368  10.282  13.414   5.897 -0.0043  0.1520  0.2398
34378W        W77369  27.057  12.112  22.893  0.2060 -0.1565 -0.1271
34379W        W77370  18.159   7.532  17.910 -0.0116 -0.2559  0.1594
34380W        W77371  25.423  34.554  17.361 -0.0389  0.2705 -0.0308
34381W        W77372  26.901  33.065  16.699 -0.0649  0.0666  0.1588
34382W        W77373  24.908   6.665   0.366 -0.0003  0.2718  0.0330
34383W        W77374   5.591   0.471  20.213  0.1151 -0.1327 -0.3708
34384W        W77375  28.313  23.060  27.803 -0.0475  0.1840  0.1684
34385W        W77376   9.560   7.352  19.251  0.1755  0.0780  0.0502
34386W        W77377  23.836   2.589   4.138  0.1354 -0.1750  0.0329
34387W        W77378   4.195  12.099  21.796 -0.0083 -0.1518  0.2969
34388W        W77379  30.310  32.253  14.382  0.3381 -0.0643 -0.1295
34389W        W77380  18.886  29.353  24.220 -0.1309 -0.1906  0.1845
34390W        W77381  29.348   3.557  17.659  0.2022  0.0166 -0.0872
34391W        W77382  34.481   6.948  18.656  0.1212 -0.3229  0.1594
34392W        W77383  28.067  18.306  23.970 -0.0544  0.0810  0.0163
34393W        W77384  26.764  13.375  16.769  0.0552 -0.1136 -0.1320
34394W        W77385  28.493  12.243  28.079  0.1338  0.0226  0.1004
34395W        W77386  22.649  17.432  22.084  0.0871 -0.2591  0.1577
34396W        W77387  31.441  33.630   8.742  0.0471 -0.0095 -0.0203
34397W        W77388   0.018   5.710  19.814 -0.0125  0.2354  0.1140
34398W        W77389  30.419   3.697  24.590  0.0951  0.1717  0.5459
34399W        W77390  10.051  17.419   3.185 -0.2641  0.3027  0.0227
34400W        W77391  17.188  22.812  21.784 -0.3022  0.3980 -0.0393
34401W        W77392  17.723  22.241  17.317 -0.0140  0.0838  0.1215
34402W        W77393  23.135  22.545   6.646 -0.1919 -0.0784 -0.0250
34403W        W77394   4.065  11.606  18.361 -0.0732 -0.1139 -0.2502
34404W        W77395  19.151   8.294  18.766 -0.0017  0.0832  0.2523
34405W        W77396  15.255  22.945  25.583 -0.1894  0.1139 -0.0207
34406W        W77397  30.284  32.958  13.315 -0.1974  0.1537  0.0178
34407W        W77398  29.466  21.127  15.609 -0.2111 -0.0670  0.5476
34408W        W77399  18.611   8.165   9.275  0.0488 -0.0958 -0.2701
34409W        W77400  33.644   4.141  16.235  0.1507 -0.2066 -0.2798
34410W        W77401  20.090  14.307  26.568 -0.2921  0.0258 -0.0460
34411W        W77402  11.870  13.664  23.929 -0.3764 -0.2805 -0.1835
34412W        W77403  18.929   1.430  28.083  0.2247  0.1095 -0.0024
34413W        W77404  33.780  12.423   2.792 -0.0967  0.0516 -0.1899
34414W        W77405  28.577  22.117  25.753  0.1639 -0.0447 -0.0641
34415W        W77406  25.566  22.272  29.245  0.1021 -0.2115  0.3773
34416W        W77407  13.785   6.134  16.135 -0.2618 -0.1361  0.0511
34417W        W77408  26.159  12.556  26.468 -0.3524  0.0693  0.0982
34418W        W77409  34.565  21.345   0.687  0.0067 -0.2156  0.1375
34419W        W77410   7.045   6.123   4.180 -0.0623 -0.1042  0.2192
34420W        W77411   1.135   9.821   8.579  0.3741 -0.1500 -0.3478
34421W        W77412  27.524   4.992  28.958 -0.2644 -0.1692  0.0980
34422W        W77413   8.068  14.842   5.954  0.1450 -0.1179 -0.2113
34423W        W77414  31.312  28.861  24.537  0.1244  0.0138  0.0336
34424W        W77415  28.457   1.883  17.868 -0.0666 -0.0391  0.0309
34425W        W77416  23.712  16.749  18.830  0.0332  0.0843  0.1477
34426W        W77417  25.328   4.452   3.536  0.0338 -0.1355  0.0718
34427W        W77418  32.029   0.024  18.486  0.1691  0.0983  0.0115
34428W        W77419  29.095  12.250  20.670 -0.2308 -0.1425  0.0184
34429W        W77420  28.582  15.812  17.697  0.0615 -0.2467  0.0578
34430W        W77421  22.458  14.600  17.442 -0.0994  0.1044 -0.0173
34431W        W77422  27.044   7.816  17.472 -0.0914  0.2671  0.2196
34432W        W77423  25.028  14.378   7.900 -0.5440  0.2046  0.0995
34433W        W77424  25.423  12.788   8.610  0.1211  0.0272 -0.1799
34434W        W77425  21.208  33.853   5.156  0.1732 -0.2471  0.2175
34435W        W77426  34.248   8.996  18.772 -0.0459  0.1924 -0.0351
34436W        W77427  28.511   9.097   5.565  0.0357 -0.0698 -0.2237
34437W        W77428  22.409  13.555  14.460 -0.0115  0.2606 -0.1204
34438W        W77429  27.376  14.569  15.008 -0.0695 -0.1822  0.1955
34439W        W77430  28.178   6.191  19.492  0.0041  0.0222  0.3554
34440W        W77431  28.063   4.565   4.203 -0.0735  0.1341  0.1540
34441W        W77432  22.023  16.880  14.215 -0.0248  0.1369  0.4217
34442W        W77433  33.422  10.612  19.187 -0.2112  0.0889 -0.0394
34443W        W77434   5.490  22.006   6.474  0.0443  0.0054  0.0583
34444W        W77435  11.230  13.878  28.127  0.1349  0.0941 -0.1220
34445W        W77436  32.723  31.350  14.818  0.0214 -0.2975 -0.0886
34446W        W77437  17.905  25.956  24.371  0.3243  0.0862 -0.1941
34447W        W77438   6.896   9.676  26.336  0.1678  0.2478 -0.0187
34448W        W77439  29.791  28.267  23.484  0.1756 -0.0592 -0.2041
34449W        W77440  14.563   7.423  22.407  0.1936 -0.2090  0.3755
34450W        W77441  30.685  22.898  24.021 -0.3230  0.0911  0.0947
34451W        W77442  23.556   6.499  19.718 -0.2492  0.0930 -0.0794
34452W        W77443  26.904   8.210  14.171 -0.0644 -0.0107  0.0654
34453W        W77444  31.043  19.264  18.339 -0.2775 -0.0494  0.1066
34454W        W77445  28.117  10.076   5.164  0.3556 -0.2620 -0.0377
34455W        W77446  24.641  11.588  20.934  0.4390  0.1081 -0.3479
34456W        W77447  29.534   2.680  15.667  0.0065 -0.0042 -0.2105
34457W        W77448  21.125  23.513  16.401 -0.0796 -0.0936 -0.0301
34458W        W77449  32.332  14.593   7.513 -0.2266  0.0559  0.1540
34459W        W77450  27.414  14.724   2.833 -0.1097 -0.1181  0.4024
34460W        W77451  12.384  10.548  10.574  0.0215 -0.0365  0.2509
34461W        W77452   7.397  15.106  10.215  0.1186 -0.2355  0.0498
34462W        W77453  29.989   2.332   6.450 -0.1810  0.0433 -0.0770
34463W        W77454   4.395   3.096  28.606  0.0985 -0.3267  0.0275
34464W        W77455  25.034  28.989   2.659 -0.2536  0.2967 -0.0157
34465W        W77456  34.013  14.954  24.392 -0.0072  0.2743  0.0753
34466W        W77457  24.543  19.415  17.251  0.0718 -0.0784  0.0214
34467W        W77458   4.836   2.755  20.501 -0.1123  0.1623 -0.1043
34468W        W77459  32.288   2.539   4.653  0.1967  0.2401  0.2537
34469W        W77460  25.379  12.295  18.123 -0.1248  0.4431 -0.1707
34470W        W77461   7.258   6.099  16.983 -0.1271  0.1072  0.2541
34471W        W77462  32.614   9.317  25.650 -0.1651 -0.1402 -0.2225
34472W        W77463  34.276  11.634  20.666 -0.3483  0.1849  0.2242
34473W        W77464  25.704  17.473   0.233 -0.0008 -0.0492  0.3999
34474W        W77465  17.688   5.437  21.537  0.1532  0.2183 -0.2060
34475W        W77466   4.122   3.009  11.059  0.0401  0.0190 -0.2358
34476W        W77467  19.260  29.747  23.153 -0.2761 -0.0602 -0.0826
34477W        W77468  15.069  10.173  27.580  0.2120  0.1794  0.2745
34478W        W77469   2.428  10.953  16.701  0.1068  0.1635 -0.1308
34479W        W77470  30.691  12.841  10.926 -0.2144 -0.0422 -0.0352
34480W        W77471  12.561  31.600  16.326  0.1876  0.0606 -0.1111
34481W        W77472  26.585   9.951   4.966 -0.0759 -0.1081 -0.2339
34482W        W77473  27.736  21.412   1.289 -0.0039 -0.0354 -0.1596
34483W        W77474  33.575   7.305  14.346  0.0966 -0.1829 -0.2382
34484W        W77475   6.038  11.943  26.570 -0.0412 -0.1548  0.1046
34485W        W77476  20.401  11.617  21.044 -0.3584  0.1244  0.1922
34486W        W77477   2.093   0.536   5.931 -0.2107  0.0488 -0.0835
34487W        W77478  18.766  29.526  26.685 -0.0954 -0.1413  0.2683
34488W        W77479   3.856  22.913   2.605  0.1562 -0.1350 -0.0534
34489W        W77480  24.630  33.398   6.718  0.1091  0.0861 -0.1807
34490W        W77481  23.328  16.577  19.677 -0.0414 -0.2518  0.0545
34491W        W77482   7.284   3.262  15.333  0.0065  0.0700  0.1967
34492W        W77483  32.049   5.154  16.211 -0.0872  0.4386 -0.2901
34493W        W77484  23.405  14.408  23.363  0.3022 -0.0074  0.2345
34494W        W77485  19.833   7.603  24.875  0.2158  0.3115  0.2692
34495W        W77486   7.496  18.515  28.156  0.2103  0.0640 -0.0336
34496W        W77487   3.324  12.341  18.338 -0.2278  0.2043  0.0474
34497W        W77488  25.894  32.909  14.715 -0.1904 -0.1862 -0.0454
34498W        W77489  24.347   8.221  28.516 -0.2580  0.1307 -0.0715
34499W        W77490   2.920   2.258  24.222  0.0323 -0.0755  0.2632
34500W        W77491   0.634  22.186  18.466  0.1400  0.3794 -0.1809
34501W        W77492  13.272  16.307   1.695 -0.0242 -0.0428 -0.1536
34502W        W77493  26.717   0.165  23.546  0.0871 -0.0670 -0.0398
34503W        W77494   1.648   8.768  25.133 -0.1266  0.2564 -0.1434
34504W        W77495  32.899   4.595  20.858  0.2861  0.0901  0.0320
34505W        W77496  25.545   4.793  18.711 -0.2595  0.0115  0.1814
34506W        W77497  32.927  28.321   0.385 -0.3915  0.0740 -0.0174
34507W        W77498  32.720  10.312  22.635  0.0042  0.2311  0.3281
34508W        W77499  19.069  29.716  24.694 -0.2971 -0.1505 -0.1865
34509W        W77500   6.866   6.565   6.199  0.0880 -0.1178  0.3615
34510W        W77501  21.525  14.857  17.185 -0.0606 -0.0782  0.0144
34511W        W77502   3.946   8.063  25.916 -0.0048 -0.1246  0.1238
34512W        W77503   2.321  25.026  24.863 -0.0273  0.1345  0.0816
34513W        W77504  22.540   6.739  24.803  0.0865 -0.0070 -0.0221
34514W        W77505   8.767  16.819   4.437 -0.2011 -0.3879 -0.1899
34515W        W77506  14.040  16.711  14.549 -0.3279 -0.2243 -0.3624
34516W        W77507  12.387  27.574  24.385  0.1205  0.0596  0.0665
34517W        W77508  23.231  32.368  26.616  0.1551  0.0143  0.2152
34518W        W77509  22.860  16.554  13.527 -0.0876 -0.0607 -0.2659
34519W        W77510   0.841  24.329  15.722  0.1369 -0.0162  0.0066
34520W        W77511  28.142   5.450  17.083 -0.1469  0.4439  0.2873
34521W        W77512   1.959  15.619  22.262 -0.1181  0.2491 -0.1194
34522W        W77513  24.860   1.665  27.432 -0.0315 -0.3110 -0.0133
34523W        W77514  30.695   4.609  24.223  0.2279 -0.0689 -0.3274
34524W        W77515   3.702  33.585   3.513  0.0604  0.1184 -0.0784
34525W        W77516  29.198  14.226  23.138 -0.2554  0.2885 -0.1437
34526W        W77517  30.376   0.232  19.846 -0.3430  0.3223  0.0248
34527W        W77518  32.244  23.421  16.746 -0.1872  0.0641 -0.0628
34528W        W77519   7.740   6.343  24.740  0.1692  0.3010 -0.2403
34529W        W77520   3.906   5.497  21.861 -0.4106 -0.0185 -0.1624
34530W        W77521  26.686  17.363  20.438  0.1451  0.0069 -0.1377
34531W        W77522  26.009   0.443  19.391 -0.1673 -0.0856 -0.1894
34532W        W77523  26.827  23.211  20.132 -0.0982 -0.1997  0.2261
34533W        W77524  31.962   9.416  26.125  0.1145  0.3154 -0.0955
34534W        W77525  18.812  18.859   3.776 -0.4121  0.0718 -0.0550
34535W        W77526  26.317   9.455  14.594  0.4715  0.1037 -0.1589
34536W        W77527   9.003  16.540  22.518 -0.0300  0.3068 -0.2901
34537W        W77528   0.770  10.269  16.831 -0.3152  0.0407  0.3319
34538W        W77529   3.071  11.385  19.369  0.1009 -0.0096 -0.1349
34539W        W77530  24.361  11.158  18.856 -0.0626  0.0981 -0.0712
34540W        W77531  30.957  18.107  15.106  0.3282  0.0332  0.1484
34541W        W77532  29.515   1.731  26.688 -0.1883 -0.0192  0.1196
34542W        W77533   0.273  26.032  23.069 -0.1922  0.3360 -0.2422
34543W        W77534  12.133   4.255  22.987 -0.1454  0.0539 -0.2203
34544W        W77535  33.917   2.266   2.513  0.2636 -0.0106 -0.0012
34545W        W77536  33.058  11.283  24.546 -0.0293  0.1247  0.0930
34546W        W77537   2.327  12.641  21.821 -0.0057  0.1656  0.3154
34547W        W77538   6.135  31.990   9.582  0.1610  0.1516 -0.0657
34548W        W77539  27.785  32.707  23.820  0.2354 -0.2123 -0.2507
34549W        W77540  31.792   0.471  23.700  0.2221  0.3462  0.0136
34550W        W77541  26.306  14.079  25.377  0.0947  0.4257  0.0690
34551W        W77542  32.433   4.650  24.608  0.1448  0.0190 -0.1836
34552W        W77543   0.350  22.946   1.404 -0.0793  0.2671  0.2360
34553W        W77544   7.547  16.434  23.324 -0.0424 -0.0811  0.0829
34554W        W77545  10.637   8.992   4.479  0.0506 -0.1685 -0.0507
34555W        W77546   0.907  16.531   2.684  0.1760  0.1051  0.2448
34556W        W77547   4.085   8.592  25.712  0.1337 -0.0252  0.0078
34557W        W77548  27.991  13.862  18.840  0.1770  0.0566  0.0674
34558W        W77549  32.959  14.066   5.016 -0.3374  0.3206  0.2502
34559W        W77550  27.372  21.333  13.897  0.1046 -0.3819 -0.0456
34560W        W77551   2.563   6.791  17.395 -0.1763  0.2324 -0.0067
34561W        W77552   6.816  34.676  17.187 -0.3571  0.1434  0.3419
34562W        W77553  26.885   1.812  14.425 -0.0672 -0.2737  0.2673
34563W        W77554   5.656   2.659  27.227  0.4062 -0.0814 -0.0699
34564W        W77555  29.745  16.096  16.693  0.0631  0.0978 -0.2196
34565W        W77556  28.975  12.051  17.765  0.1734  0.1419 -0.1411
34566W        W77557   2.828  11.227  18.904  0.1043  0.3730 -0.0518
34567W        W77558  22.948  22.385  20.523  0.3093 -0.4054 -0.1334
34568W        W77559   4.995  14.635  26.366  0.1824  0.1372  0.1446
34569W        W77560   0.998  12.529  21.056 -0.0708 -0.0972  0.0506
34570W        W77561   4.312  11.318  24.562  0.2245  0.0218  0.2738
34571W        W77562  20.014   6.245  29.090 -0.0666  0.1495 -0.4601
34572W        W77563  30.955  22.505  14.901  0.1549 -0.0090  0.1180
34573W        W77564  32.671  28.283  24.850  0.1842 -0.4149 -0.0465
34574W        W77565  30.848   8.792   2.506  0.0855 -0.0395  0.0894
34575W        W77566  17.280  12.963  15.087 -0.1326 -0.2333  0.0626
34576W        W77567   1.385  14.711   0.315  0.5875  0.3868  0.1788
34577W        W77568  11.742  12.046  21.741 -0.1524 -0.1397 -0.4457
34578W        W77569  28.958   8.118   0.423 -0.1754  0.0323  0.0164
34579W        W77570  32.338  12.398   9.464  0.1818  0.0428 -0.0641
34580W        W77571  27.407  11.053   6.762  0.0137 -0.0206  0.0377
34581W        W77572  27.948   7.170  25.224  0.0155  0.1082 -0.0008
34582W        W77573  33.257  27.314  20.955 -0.0127 -0.0782 -0.0259
34583W        W77574  31.230  15.385  19.584 -0.5134 -0.2009 -0.4394
34584W        W77575  22.786   5.981  21.913 -0.1138 -0.2264 -0.0934
34585W        W77576  13.206  30.314  19.217  0.1168 -0.0468 -0.1120
34586W        W77577   3.823  16.932  17.107  0.2285  0.3520 -0.0615
34587W        W77578   4.379  13.701   3.117 -0.1609 -0.4625 -0.0065
34588W        W77579   8.033  31.094  15.412  0.1029 -0.3181 -0.2130
34589W        W77580  15.412   4.396  23.622  0.0909  0.0621 -0.0715
34590W        W77581   6.344  16.200   5.637 -0.1124 -0.0666  0.0676
34591W        W77582  29.017  16.205  29.153 -0.2966  0.0752 -0.1813
34592W        W77583  11.103   5.758  16.450  0.2516 -0.1229 -0.1538
34593W        W77584   2.303  20.519  25.415 -0.0774  0.0724  0.0497
34594W        W77585  31.106  17.035  28.399 -0.1547  0.3648 -0.0273
34595W        W77586  28.148  27.181   1.172 -0.2728 -0.0327  0.1771
34596W        W77587  12.467   1.369  21.307 -0.1119 -0.1166  0.1351
34597W        W77588  24.306   3.997  22.356  0.1498 -0.1001  0.0292
34598W        W77589  27.922  13.981   5.143 -0.0020  0.1102 -0.1846
34599W        W77590   3.837  31.256   3.555  0.0435 -0.0251  0.2339
34600W        W77591  25.924   6.883   7.271  0.0259  0.1774 -0.2019
34601W        W77592  27.374  19.579   5.374 -0.2465  0.1785 -0.0404
34602W        W77593  19.716  30.988   3.626  0.1590  0.0832 -0.0344
34603W        W77594  30.868   8.318   2.946  0.1272 -0.2523  0.0949
34604W        W77595  32.730   8.666   1.329 -0.0637 -0.0796 -0.0532
34605W        W77596  20.126   4.511  22.841  0.3112  0.0966  0.1806
34606W        W77597  24.488  29.613  28.876 -0.0097 -0.4029 -0.1476
34607W        W77598  29.267   8.157  15.884  0.3028  0.0358 -0.1315
34608W        W77599  27.042  34.041  25.729 -0.4133  0.1426 -0.2082
34609W        W77600   8.549  34.436  22.316  0.0295  0.0601 -0.0074
34610W        W77601  17.892   8.375  17.477  0.0254  0.0893  0.1611
34611W        W77602   6.462   6.314  11.241 -0.1266  0.1329  0.1581
34612W        W77603   2.978  19.776  18.725 -0.4362 -0.1718 -0.1029
34613W        W77604  30.077  11.292   3.543  0.1532  0.1922  0.2571
34614W        W77605   1.690  27.544  14.074 -0.0717  0.2343  0.0481
34615W        W77606  31.107   4.728  26.684 -0.2065  0.0777 -0.0816
34616W        W77607   1.594   6.873  26.301 -0.2235 -0.0460 -0.2264
34617W        W77608  28.946  31.075   1.349 -0.1395  0.3858  0.3107
34618W        W77609  26.232  18.214  28.563  0.1021  0.1502  0.0160
34619W        W77610  33.458   5.200  15.470  0.1098 -0.3464 -0.1407
34620W        W77611   3.017   1.098   8.178  0.1212  0.2604  0.0875
34621W        W77612  28.270  22.193   3.726  0.1244 -0.0010 -0.1147
34622W        W77613   0.051   1.349  13.846 -0.0345  0.0215 -0.2285
34623W        W77614  24.572  17.745  16.787  0.0134  0.3257 -0.0271
34624W        W77615   8.632  29.931   9.971  0.1233  0.1986  0.1244
34625W        W77616   2.744   7.121  26.983  0.0416  0.1922  0.1089
34626W        W77617   5.940  31.007   1.152 -0.0329 -0.0218  0.2548
34627W        W77618  29.908  15.611  17.115  0.3176  0.1748 -0.3427
34628W        W77619   1.105   0.811   3.821 -0.0515 -0.0434 -0.1823
34629W        W77620  19.437   5.707  13.821  0.0704 -0.2596  0.1530
34630W        W77621   4.347  13.452   2.039 -0.1642  0.1445  0.1033
34631W        W77622   2.514  10.907  26.898  0.2328  0.3010 -0.0514
34632W        W77623   0.738  33.719  15.056 -0.0231  0.3150  0.0789
34633W        W77624  20.193   4.061   6.737 -0.0698 -0.3053 -0.2520
34634W        W77625  12.435   1.158  18.415 -0.0757 -0.1006 -0.1008
34635W        W77626  34.136  33.296  21.488 -0.1019  0.1399 -0.1003
34636W        W77627   8.964  17.272  26.733 -0.0705 -0.0147  0.0341
34637W        W77628  33.832  12.885  27.558  0.0558 -0.0308  0.0790
34638W        W77629  31.394  17.122  21.929 -0.1300 -0.1172  0.0572
34639W        W77630  20.487   3.804   3.315 -0.1920 -0.0276 -0.0171
34640W        W77631  24.662  20.319   0.481 -0.0430  0.1065 -0.2498
34641W        W77632  31.978  32.374  18.198 -0.1240  0.1301 -0.0750
34642W        W77633  26.611   1.264  25.579  0.2374 -0.0315  0.1456
34643W        W77634   1.346   7.538  29.173 -0.1810 -0.0862 -0.1851
34644W        W77635  33.975  10.639  15.456 -0.1200 -0.1242  0.2657
34645W        W77636  12.777  18.819   8.243  0.1564  0.2239  0.0154
34646W        W77637   3.787   9.383  26.467 -0.0167 -0.3607 -0.0557
34647W        W77638  22.684  21.954   8.922  0.1567  0.2661 -0.2636
34648W        W77639  33.930  11.341  22.085  0.0830 -0.1293  0.0163
34649W        W77640  28.185  17.776   3.178 -0.1966  0.1111  0.2319
34650W        W77641   8.660  16.188  24.477 -0.2024  0.2062 -0.1093
34651W        W77642  23.418  19.592   8.328 -0.1789 -0.2290  0.3091
34652W        W77643  11.096  23.325  23.336 -0.0428 -0.1641  0.0924
34653W        W77644   8.269  11.698  16.443 -0.1630  0.0478 -0.0944
34654W        W77645  15.118  12.685  17.612 -0.1036 -0.1219 -0.1053
34655W        W77646   9.513  12.757   4.520 -0.0122  0.1358 -0.1915
34656W        W77647   0.088  18.598   2.583 -0.0084 -0.1475  0.3122
34657W        W77648  11.202   5.352   0.183 -0.1850 -0.0596  0.3591
34658W        W77649   1.540  17.690  17.371  0.0322  0.2362 -0.2499
34659W        W77650  19.480   7.534  28.634 -0.0385  0.0862 -0.2260
34660W        W77651  25.226  12.124   0.493  0.1723 -0.0093 -0.0919
34661W        W77652  18.095  12.150   8.519 -0.0746  0.0078 -0.1022
34662W        W77653  31.410  25.025   4.327  0.1707 -0.0155  0.0925
34663W        W77654   8.798  27.644   2.408  0.0352 -0.1833 -0.3871
34664W        W77655  23.861  17.785  27.410  0.1112  0.1471 -0.3381
34665W        W77656  25.738   9.633  15.595  0.3611 -0.1507 -0.0630
34666W        W77657  21.138   4.314  15.741 -0.0150  0.1569  0.0524
34667W        W77658   7.327   4.644  20.141 -0.1796 -0.1048  0.2267
34668W        W77659  34.076  16.968  18.161  0.0621  0.0669 -0.3345
34669W        W77660  22.365   5.171  22.515 -0.0749 -0.1189  0.1767
34670W        W77661  24.028  20.202  27.471 -0.4037  0.0941  0.0833
34671W        W77662  25.136   7.504  20.518 -0.0600 -0.0272  0.2815
34672W        W77663  26.530  15.235  26.858  0.0481  0.0094 -0.0174
34673W        W77664  24.673   6.780  25.512  0.2824 -0.1672 -0.2696
34674W        W77665  27.041  15.965  16.886 -0.0389 -0.2391  0.2402
34675W        W77666   0.587  33.576  26.280 -0.0494  0.1840  0.2084
34676W        W77667   9.850   2.444  24.654 -0.2566  0.0724  0.2622
34677W        W77668  25.497  14.147  26.412  0.1937 -0.0462  0.0473
34678W        W77669  14.752  26.181  19.610 -0.0724 -0.0637 -0.0543
34679W        W77670  12.439  10.487  29.035  0.0151 -0.0420 -0.0754
34680W        W77671  27.509  19.840  22.768  0.3396 -0.0078  0.2290
34681W        W77672  33.671   9.571   3.131 -0.1383  0.0372 -0.2151
34682W        W77673   4.805  16.541  29.227 -0.0899  0.0790 -0.1566
34683W        W77674  27.100  27.151  18.215  0.2994 -0.0117 -0.0537
34684W        W77675  23.826   4.634  23.864  0.1565  0.2994  0.1632
34685W        W77676  27.965  15.834  17.082 -0.0913  0.1205 -0.2132
34686W        W77677  29.137   2.574  13.848 -0.0300  0.0416 -0.1409
34687W        W77678  30.910   8.994  20.945 -0.1157 -0.2252  0.0739
34688W        W77679  29.712  13.793  24.872 -0.2394 -0.1128  0.0681
34689W        W77680  24.380  16.750  15.667 -0.0747 -0.1059 -0.0679
34690W        W77681  27.594  20.020  20.752  0.2406  0.2844  0.1521
34691W        W77682  25.541  21.804   5.326 -0.1526 -0.0223 -0.2407
34692W        W77683  24.559   5.318  22.233 -0.1748 -0.0482 -0.2261
34693W        W77684   4.282   3.620  28.304 -0.3072  0.4072 -0.1376
34694W        W77685   3.271   8.237  15.624  0.0967  0.5937 -0.0857
34695W        W77686  22.519   8.325  23.268 -0.4175  0.0669 -0.3201
34696W        W77687  22.703   1.070   0.495  0.0695 -0.0266 -0.3052
34697W        W77688   5.159  20.142   1.160 -0.2067  0.2666  0.0445
34698W        W77689  23.450  15.156  22.148  0.1491 -0.0549 -0.0259
34699W        W77690   2.344   5.465  26.417 -0.1396  0.1205  0.0495
34700W        W77691  14.451   2.444  16.519 -0.1203  0.2757  0.0360
34701W        W77692  30.620  30.593  25.200  0.1349  0.0640 -0.1475
34702W        W77693  25.820  16.300  24.233  0.1122  0.0417  0.1914
34703W        W77694  32.054   5.811  17.245 -0.1088 -0.1327 -0.1107
34704W        W77695  33.775  24.546  18.355 -0.1767  0.5105  0.0683
34705W        W77696  13.152   9.115  19.364  0.1423 -0.0412  0.1449
34706W        W77697  18.984  22.436   5.199  0.0863  0.1970  0.2636
34707W        W77698  12.019   6.926   9.648  0.1099  0.0708 -0.2082
34708W        W77699  23.280   7.673  17.067 -0.3022 -0.4078  0.2712
34709W        W77700   5.620  33.241  15.307 -0.2294  0.0968 -0.4849
34710W        W77701  27.785   8.782   9.782 -0.0427  0.0003 -0.2775
34711W        W77702  27.597   5.321  25.250 -0.0004  0.0708  0.0481
34712W        W77703   3.459  27.687  20.959  0.0689  0.0977 -0.0914
34713W        W77704   1.914   6.383  21.820  0.1719 -0.0395  0.1335
34714W        W77705  21.337  10.341   0.447  0.0022  0.1176  0.1104
34715W        W77706  25.248   1.765  20.522  0.0276 -0.0721  0.2371
34716W        W77707  23.422  25.993  21.389  0.0526 -0.1571  0.2505
34717W        W77708  23.843   8.842   0.970  0.0439 -0.1031 -0.2693
34718W        W77709   1.444  17.013   6.809  0.0331 -0.0152  0.0264
34719W        W77710  34.779  14.513   8.699 -0.2931 -0.0391  0.1703
34720W        W77711  13.762  11.523  15.204 -0.2944  0.0030  0.1410
34721W        W77712  26.761  16.642  22.107  0.1638  0.1191 -0.1093
34722W        W77713  14.078  34.600   1.859 -0.1218 -0.0089 -0.2761
34723W        W77714  25.142  15.212   5.393  0.2841 -0.1604 -0.0667
34724W        W77715  25.762  13.201  16.102 -0.0538  0.1287  0.1587
34725W        W77716  20.459  21.577  25.749  0.2164  0.3682 -0.1372
34726W        W77717   5.334   5.945   7.317  0.2033 -0.0394  0.0332
34727W        W77718  24.835  18.564   0.083 -0.1231 -0.1834 -0.0110
34728W        W77719  33.294  17.205   0.681  0.1987  0.3303 -0.3079
34729W        W77720   3.758   9.776  10.654 -0.1361 -0.1017  0.0037
34730W        W77721  22.294  20.621   2.182 -0.2239 -0.0481 -0.2709
34731W        W77722  14.039  25.335  15.714 -0.0835 -0.0547  0.2811
34732W        W77723   6.013  21.621   2.478 -0.0008 -0.0370  0.2825
34733W        W77724   5.963   6.962  28.118  0.4663 -0.0985 -0.0686
34734W        W77725  34.733  15.224  19.321 -0.1685 -0.2906 -0.2210
34735W        W77726  32.812  30.309   3.162  0.2768  0.1400  0.1443
34736W        W77727  28.544   7.634   2.634 -0.0556 -0.0482  0.0634
34737W        W77728  10.799  11.142   6.561  0.2990  0.1414  0.2042
34738W        W77729  19.161  15.866  27.039  0.3155 -0.1690 -0.1294
34739W        W77730   9.170   9.569  20.753  0.2146  0.0634  0.1826
34740W        W77731   6.199   9.158   3.699 -0.2606  0.1677 -0.1477
34741W        W77732   4.031   3.080   6.385  0.0271 -0.3821  0.1475
34742W        W77733   2.899  28.214  18.749  0.0192  0.1162  0.0280
34743W        W77734   6.045   4.374  27.650 -0.2015  0.3295  0.1513
34744W        W77735  26.541  23.502  18.678 -0.0260 -0.1844  0.0582
34745W        W77736   3.693   5.161  10.357 -0.1374  0.0525  0.2017
34746W        W77737  22.559  19.821   7.976  0.3302 -0.1377  0.2754
34747W        W77738   5.846   6.494  27.848  0.3852 -0.1954  0.0577
34748W        W77739  30.627  33.494  15.114  0.3032 -0.0001  0.1791
34749W        W77740  34.586  21.012   3.257  0.2461 -0.0970  0.3285
34750W        W77741  15.424  14.576  25.468 -0.0901 -0.2195  0.2156
34751W        W77742  32.889  13.827  20.644  0.0099  0.0884  0.3653
34752W        W77743  32.979   4.508   6.705  0.0378 -0.0445  0.1038
34753W        W77744  26.332   5.529  29.139 -0.0573 -0.0107 -0.0479
34754W        W77745   7.329  32.692  21.898 -0.4104  0.3202  0.0605
34755W        W77746   3.648   0.860   0.809  0.1660  0.2636  0.2971
34756W        W77747  11.002  12.594  14.642 -0.2114  0.1609  0.0356
34757W        W77748  26.368  31.071  26.768  0.0604  0.1450  0.0480
34758W        W77749  23.520   4.131   7.801  0.1167 -0.1106  0.0690
34759W        W77750  31.428   6.867  21.824 -0.2097  0.2085  0.0233
34760W        W77751  27.546   5.575   7.260  0.0755  0.0894  0.1770
34761W        W77752  20.192   8.808  16.412 -0.1544 -0.1064  0.0039
34762W        W77753  27.430  14.116  22.238  0.0249 -0.0926 -0.0822
34763W        W77754   8.821   7.216   7.887 -0.1477 -0.0406 -0.2674
34764W        W77755  23.750   4.435   1.836 -0.0111  0.2562 -0.0514
34765W        W77756  30.225   9.707  16.060  0.1384  0.2701  0.0315
34766W        W77757   6.262  12.365  18.702  0.1742 -0.0769  0.2670
34767W        W77758  19.821  13.982   4.755 -0.1174  0.1835 -0.1778
34768W        W77759  29.046   7.494  16.081  0.1088  0.2441 -0.2578
34769W        W77760  17.968  15.436  25.748  0.2053 -0.2040 -0.1520
34770W        W77761  13.158  28.808   9.703  0.0125  0.1599  0.2314
34771W        W77762  30.284   5.507   9.197 -0.0634  0.0376  0.1110
34772W        W77763  24.898  17.908  22.197 -0.0881 -0.1475  0.0872
34773W        W77764  24.831   8.778  19.878 -0.3611 -0.0263 -0.1609
34774W        W77765  32.858  28.207   1.430 -0.2206  0.2444  0.0826
34775W        W77766  24.964  26.624  25.320  0.4105 -0.4739  0.0950
34776W        W77767  21.245  18.206   6.519  0.0300  0.0658 -0.1504
34777W        W77768   6.330  30.762  26.900  0.1154 -0.0448 -0.5129
34778W        W77769  27.056   9.299  22.255 -0.0431 -0.0113  0.1839
34779W        W77770  30.284  16.462  18.289  0.0513 -0.2630 -0.2530
34780W        W77771  18.237   3.256  19.082 -0.3088  0.0271  0.1869
34781W        W77772   5.116  33.193   8.753  0.0330 -0.1682  0.0270
34782W        W77773  33.253  31.433   7.203  0.0461  0.1563  0.4007
34783W        W77774   8.705  14.794  19.491 -0.0698  0.0164 -0.0567
34784W        W77775   9.318  19.260  14.965  0.0276  0.6314  0.0433
34785W        W77776  31.731   0.717   8.426 -0.0281  0.2145 -0.1126
34786W        W77777  34.670   7.713  17.670 -0.0259 -0.1671 -0.3098
34787W        W77778  17.406  13.361   3.664 -0.0218 -0.4072 -0.2362
34788W        W77779  28.670  15.698  20.753 -0.0129  0.1702  0.1591
34789W        W77780  14.922  26.147   2.940  0.2113 -0.2196 -0.0513
34790W        W77781  30.327   9.730  19.650 -0.1132 -0.1631  0.7389
34791W        W77782  25.391   0.611  26.297  0.1339 -0.0461 -0.2680
34792W        W77783   3.865  11.762   1.213 -0.0528 -0.1700  0.1574
34793W        W77784   6.562   6.105   8.714 -0.1455 -0.2638 -0.0194
34794W        W77785  22.348  16.744  15.456  0.0789 -0.0345 -0.2565
34795W        W77786  28.072  30.978  13.378 -0.1626  0.1668  0.0512
34796W        W77787  22.898  18.958  21.196  0.0835  0.0633  0.3716
34797W        W77788   4.941  13.309   6.446 -0.2135  0.1684 -0.3513
34798W        W77789   4.312  19.204  16.357  0.2150  0.0610 -0.0113
34799W        W77790  22.323   0.275  22.932  0.0193 -0.1982 -0.3327
34800W        W77791   4.315  10.838  18.120 -0.0668 -0.2270 -0.0172
34801W        W77792  29.340  23.360   7.781  0.1119  0.0140  0.2500
34802W        W77793   3.911   3.411   0.010  0.0145  0.1841  0.0805
34803W        W77794   4.567  10.804   6.003 -0.0632  0.2839  0.0197
34804W        W77795   6.148  17.140  15.929  0.3047  0.0119 -0.0508
34805W        W77796  27.656  15.053  19.638  0.1512  0.0156  0.0112
34806W        W77797  17.900  13.393  29.125  0.2682 -0.0530 -0.2513
34807W        W77798  16.204  14.185  15.589 -0.0960 -0.0808 -0.1283
34808W        W77799  12.526  16.288  21.492  0.0613  0.2581  0.2339
34809W        W77800  28.257  33.328  12.990  0.0994 -0.1541  0.0289
34810W        W77801  32.307  10.145   1.580  0.1041 -0.0059 -0.0006
34811W        W77802   5.858  11.211   9.796  0.1287 -0.1688 -0.3020
34812W        W77803  14.268   8.994   0.397 -0.0042  0.0462 -0.3648
34813W        W77804  31.369  24.973  25.458  0.1739 -0.0457 -0.1615
34814W        W77805  33.198  20.005  14.590  0.2907  0.0271 -0.0009
34815W        W77806  29.713   4.567  20.981 -0.1577 -0.1652  0.1618
34816W        W77807  26.867  11.838   0.025 -0.0344 -0.1703  0.0100
34817W        W77808   1.264   6.961  20.013  0.2801 -0.0064  0.2306
34818W        W77809  10.416   0.557   8.008  0.1883  0.0792  0.1435
34819W        W77810  20.579  25.621   0.044  0.0925  0.0141 -0.0714
34820W        W77811   9.736  21.969   6.261 -0.2061  0.0203  0.0745
34821W        W77812  24.183  15.376  19.558  0.0370  0.1048  0.0899
34822W        W77813   9.921  18.428  25.783  0.1965 -0.1667  0.1601
34823W        W77814  24.867   6.922  27.225  0.1116 -0.2765  0.0616
34824W        W77815  26.829   0.229  20.327 -0.1780 -0.1330 -0.4087
34825W        W77816   0.171   8.236   2.081 -0.0473  0.2271  0.1589
34826W        W77817   7.965  18.791   8.880 -0.1679  0.3996 -0.0359
34827W        W77818  30.202   7.447   9.584 -0.0043  0.1437 -0.1797
34828W        W77819  25.094  10.522   1.548 -0.1848  0.2113 -0.1581
34829W        W77820   0.827   6.729  28.354  0.2540 -0.2013 -0.1740
34830W        W77821   7.978  12.771  25.418  0.3297 -0.2173 -0.0857
34831W        W77822   2.026  14.679   4.434 -0.1040  0.0273 -0.1253
34832W        W77823  28.389  26.546  28.525 -0.0775 -0.0301 -0.0253
34833W        W77824  12.212  32.698  15.976 -0.0064 -0.4191  0.0140
34834W        W77825  31.045   3.411   8.458 -0.2861  0.0887  0.0730
34835W        W77826  17.375  27.551  21.203 -0.1452 -0.0320  0.1316
34836W        W77827  33.998  10.985  26.725 -0.1008  0.1418  0.0500
34837W        W77828  19.948   1.906  23.667 -0.2770  0.0711  0.0378
34838W        W77829   3.207   1.103  17.568  0.0795 -0.3463 -0.1818
34839W        W77830  26.631   1.645   5.874 -0.0530  0.1869 -0.3783
34840W        W77831  19.507  26.687  22.640  0.0431 -0.0214 -0.0787
34841W        W77832   8.912  34.185  28.402  0.1052 -0.1261  0.3455
34842W        W77833  34.285   9.510  18.677  0.1646  0.0066 -0.0222
34843W        W77834  31.703  15.850  17.845 -0.0701  0.1598  0.0688
34844W        W77835   0.383   8.611  25.820  0.2085  0.0664  0.1365
34845W        W77836  26.588   3.077   1.856 -0.3411 -0.2988  0.1366
34846W        W77837   2.072   9.342  10.684  0.2334 -0.0983  0.1732
34847W        W77838  28.581   1.609  23.571 -0.2227 -0.0739  0.0164
34848W        W77839  13.272   0.081  18.907  0.0756  0.0379  0.1326
34849W        W77840  32.320  32.951  16.594  0.0350  0.2766 -0.3394
34850W        W77841  19.787   0.521  21.920 -0.0147 -0.1271  0.0280
34851W        W77842  22.185   8.710   7.045 -0.3859 -0.0214 -0.1734
34852W        W77843  15.937  28.718   4.376  0.1486  0.1492 -0.3231
34853W        W77844   6.647  12.187   7.432  0.0789 -0.0188 -0.0030
34854W        W77845   8.537   0.450  20.097 -0.1103  0.0256  0.0057
34855W        W77846   1.976  33.312   4.104  0.3005 -0.3356  0.2272
34856W        W77847  19.556  17.227  24.345  0.3098  0.1073  0.0590
34857W        W77848   4.053  25.675  20.333  0.0500  0.0757  0.0873
34858W        W77849   0.683   9.643  21.608 -0.0204  0.1280  0.2517
34859W        W77850  26.065  12.796  23.314  0.0712 -0.0682  0.2167
34860W        W77851  18.657  33.616  24.475 -0.2699 -0.0854  0.1464
34861W        W77852   2.700   5.843   1.530  0.0336  0.4948  0.0234
34862W        W77853  14.454  14.437  25.847 -0.1381  0.1211  0.2869
34863W        W77854   2.723  33.440   2.322 -0.0741 -0.1460 -0.0715
34864W        W77855  22.439   5.154  15.699 -0.2848  0.2238  0.4576
34865W        W77856   6.931  34.288  16.728  0.0213  0.1117 -0.0952
34866W        W77857  27.636   6.815  19.680 -0.1316  0.1299  0.1185
34867W        W77858  21.597  18.164  26.456 -0.1476  0.2182 -0.0155
34868W        W77859   1.823  10.252  19.911  0.1710  0.1901  0.4381
34869W        W77860   0.464   9.445  20.149  0.1513  0.0857 -0.1588
34870W        W77861   4.290  11.424   0.209  0.0002 -0.2674 -0.0018
34871W        W77862  12.407  24.329  18.641  0.0604 -0.4198 -0.2624
34872W        W77863  14.199  22.645   8.235  0.0291  0.1782 -0.2321
34873W        W77864  26.101  11.756  21.346  0.0344 -0.0327 -0.0727
34874W        W77865  14.003   4.326  18.183  0.1517 -0.2689  0.1447
34875W        W77866  12.039   4.857  18.287  0.1513 -0.2095  0.1614
34876W        W77867  28.129  10.559  18.402  0.0200  0.2920 -0.0220
34877W        W77868   0.761   0.042  16.114 -0.1337  0.0355  0.2494
34878W        W77869  26.489  10.554  20.448 -0.2302 -0.1831 -0.0707
34879W        W77870   2.470  16.571   2.941 -0.0661 -0.3537 -0.1894
34880W        W77871  22.645  15.122  22.129  0.1651 -0.0393 -0.0474
34881W        W77872   6.535  11.687   1.275  0.0008  0.3124 -0.0613
34882W        W77873   7.396  19.044   0.917 -0.0369 -0.1846  0.0721
34883W        W77874   3.381  12.189   4.409 -0.2947 -0.3548  0.1116
34884W        W77875  26.195  31.825  19.771 -0.3556  0.1403  0.1498
34885W        W77876  25.565   3.546  21.386  0.1022  0.2018 -0.1382
34886W        W77877   5.951  11.674  21.218  0.1439 -0.1187 -0.0732
34887W        W77878  19.506  33.696   8.615  0.1589 -0.1532  0.4008
34888W        W77879  30.872  12.588   7.368  0.3025 -0.2332 -0.4743
34889W        W77880  21.182  19.157  16.619  0.1071  0.1358 -0.3289
34890W        W77881  34.779  19.105   3.888 -0.2616  0.3787 -0.1156
34891W        W77882  27.952   7.573   2.752 -0.1425  0.0486 -0.1011
34892W        W77883  26.954  22.611  25.375  0.0824  0.1198 -0.0559
34893W        W77884  31.176   5.989   8.266  0.1958 -0.0208  0.3339
34894W        W77885  26.692  27.983   8.056 -0.1045  0.1141 -0.1883
34895W        W77886   7.279  13.133   0.714  0.0290 -0.4848 -0.3729
34896W        W77887  29.799  15.210   6.827  0.0917 -0.3529 -0.1548
34897W        W77888  23.446   7.585  25.573  0.4267  0.1220  0.2002
34898W        W77889  34.045  14.870  11.025  0.0897  0.1074 -0.0367
34899W        W77890   8.147  15.601  24.931  0.0740 -0.1727 -0.2655
34900W        W77891  21.035  17.033   0.717 -0.0283  0.0008 -0.2804
34901W        W77892  27.123   1.704   5.010 -0.0218  0.0553 -0.1375
34902W        W77893  27.178  31.345  25.063 -0.0339  0.2850 -0.2147
34903W        W77894  14.305   0.482  25.446  0.0801 -0.1197 -0.1644
34904W        W77895  33.061   4.310  27.098  0.2258 -0.1441 -0.0704
34905W        W77896   2.026  26.203  20.840 -0.3111 -0.3834 -0.3009
34906W        W77897   0.255  28.753  13.897 -0.2377 -0.3276  0.0957
34907W        W77898  24.164   9.134   2.351 -0.0664 -0.3683  0.0803
34908W        W77899  34.545   8.558   0.714  0.4590  0.1201 -0.1365
34909W        W77900  29.041  19.373  28.713  0.1081  0.3693 -0.2015
34910W        W77901  25.558  12.026   4.577 -0.2739  0.1134 -0.1100
34911W        W77902  17.518   7.139   8.146 -0.0744 -0.0174  0.1597
34912W        W77903   1.241   3.572  19.252 -0.1771  0.1367 -0.1188
34913W        W77904  26.613   4.754  15.038  0.0308  0.0663 -0.2300
34914W        W77905  14.153   2.141  22.654  0.3342  0.2072  0.0782
34915W        W77906   8.116  22.187  10.019 -0.0107  0.1735  0.0456
34916W        W77907   8.296   7.602  27.285  0.3516  0.2876  0.2499
34917W        W77908   0.421  32.515  14.847 -0.0007  0.0348  0.0502
34918W        W77909   5.829  19.183  24.818 -0.1522  0.0272  0.0981
34919W        W77910  30.316   8.996  16.601  0.1123 -0.0548  0.1817
34920W        W77911  28.424  19.507  15.026 -0.1552 -0.1943  0.1250
34921W        W77912  28.240  22.935  18.666  0.2176 -0.0197  0.3050
34922W        W77913  33.617  29.892   9.035  0.0238  0.2309 -0.1457
34923W        W77914   1.161   9.599   6.831  0.1316  0.0511 -0.4456
34924W        W77915   1.555  24.413  27.679 -0.0160 -0.1122 -0.2062
34925W        W77916  25.474  10.228   1.417 -0.2041 -0.0722 -0.0158
34926W        W77917  34.755   5.989  24.331  0.0080 -0.2325  0.1594
34927W        W77918  12.064  21.975  21.606 -0.2430  0.0938 -0.2125
34928W        W77919  22.357  26.082  23.957  0.0671  0.1282  0.1051
34929W        W77920  23.280  12.332  17.466  0.0235  0.0815 -0.0050
34930W        W77921  24.626  16.098   5.522 -0.2455  0.3531  0.3617
34931W        W77922  29.532  20.237  21.474 -0.0270  0.0016  0.1894
34932W        W77923  16.747  15.585  24.342 -0.0788 -0.1291  0.1495
34933W        W77924   4.568   3.737   1.094  0.0720  0.0616  0.2797
34934W        W77925  10.477  13.263  24.593  0.0661  0.1817 -0.0082
34935W        W77926  23.915  10.992   5.564 -0.1377 -0.1176  0.0713
34936W        W77927   5.897   9.619  24.145 -0.1364 -0.1536 -0.0087
34937W        W77928  16.698   1.695   0.486  0.1622 -0.0979  0.2163
34938W        W77929  26.302  11.443  22.773  0.0689  0.0423  0.0488
34939W        W77930   4.093   9.514  14.968  0.0601  0.0910 -0.1419
34940W        W77931  14.501   2.762  11.074 -0.0686  0.1425  0.0570
34941W        W77932  30.612   3.486  20.081  0.1681  0.1504  0.0448
34942W        W77933  25.551   8.954   8.438 -0.0931  0.1234 -0.1477
34943W        W77934  20.746   8.549  25.864 -0.1262 -0.1973  0.0355
34944W        W77935   1.866   6.354  17.274 -0.1696 -0.3697  0.2360
34945W        W77936   0.593  26.467   5.468  0.1542 -0.2358  0.0971
34946W        W77937  10.911  21.705  25.335  0.0729  0.1631 -0.0119
34947W        W77938   3.059   5.485   0.178 -0.0136  0.1313  0.1011
34948W        W77939  26.250   5.833  17.580  0.1005  0.0503 -0.0436
34949W        W77940  24.960  17.100   2.682  0.1139  0.0738  0.0210
34950W        W77941  26.105  30.596  28.541 -0.1120  0.1677 -0.0157
34951W        W77942   2.637  10.002  24.958 -0.0778 -0.0583 -0.0113
34952W        W77943  23.901  10.210  21.886 -0.1832  0.0817  0.2974
34953W        W77944  18.487   6.512  27.629  0.0329  0.0301  0.0716
34954W        W77945  20.186   8.045   1.966  0.0696 -0.1022  0.0317
34955W        W77946  19.146  10.868   1.426 -0.0301 -0.1500  0.0975
34956W        W77947  23.771  19.531  28.467 -0.0922  0.1900 -0.1423
34957W        W77948  12.795   8.684  22.953 -0.2759  0.1113 -0.2397
34958W        W77949  25.706  21.156  28.694  0.0224  0.6780  0.0299
34959W        W77950   2.344  16.560  24.673 -0.0208  0.0341 -0.1928
34960W        W77951  25.277   8.238  15.380 -0.1111 -0.2826  0.1175
34961W        W77952   6.892  12.232  19.831 -0.2010  0.1733  0.1570
34962W        W77953  19.081  34.316  20.521 -0.0439  0.3096  0.0239
34963W        W77954   7.430   5.363  11.039  0.0889 -0.1033 -0.2089
34964W        W77955   7.970  17.861  27.535 -0.7508  0.1608  0.2172
34965W        W77956  33.260   5.611   8.044  0.1706 -0.2411  0.1305
34966W        W77957  26.705  15.647  15.916  0.0097  0.0960 -0.1731
34967W        W77958  17.434   3.728  21.398 -0.0453 -0.1510 -0.0158
34968W        W77959  12.487  16.967  25.018  0.3919 -0.0326 -0.1349
34969W        W77960  34.476   4.101   5.282  0.3662  0.1564 -0.2199
34970W        W77961  21.130  18.636  23.232  0.1925  0.2142 -0.0137
34971W        W77962   0.604  34.745   6.049 -0.0142  0.3864  0.1801
34972W        W77963  21.490  10.765  27.137 -0.1872 -0.2484 -0.1032
34973W        W77964  19.698   9.744   6.983 -0.0705 -0.0963 -0.2536
34974W        W77965   0.205   6.199   3.184  0.0808 -0.0076 -0.1923
34975W        W77966  25.410   7.368  27.927 -0.1984 -0.1654  0.3938
34976W        W77967  34.066  22.209  18.742  0.0757  0.0780  0.1848
34977W        W77968  30.401   4.921   8.979  0.1077 -0.2152 -0.3049
34978W        W77969  31.878  12.074  16.674 -0.0112  0.0469  0.0341
34979W        W77970  33.757  34.508  28.435 -0.1251  0.0062 -0.1274
34980W        W77971   0.196   8.061  25.561  0.0746 -0.0162 -0.1578
34981W        W77972   1.461  18.647   1.630 -0.3711  0.1458  0.2712
34982W        W77973  15.624  33.319  29.232 -0.3478  0.3293  0.0462
34983W        W77974  19.408  29.011   4.851  0.2896  0.2414  0.0997
34984W        W77975   6.518  17.390   3.640 -0.1049 -0.0951 -0.2842
34985W        W77976  24.923  16.229  29.235  0.1849  0.1429  0.6058
34986W        W77977  17.803   6.219  27.943  0.1365 -0.0109  0.0230
34987W        W77978   6.301  13.950  16.588  0.1399  0.0215  0.0610
34988W        W77979  28.680  30.293  22.901 -0.0651 -0.1612 -0.0789
34989W        W77980  16.108  19.459  12.561 -0.0804  0.0309  0.1125
34990W        W77981  23.808  14.551   4.944  0.3043 -0.1576  0.3302
34991W        W77982  26.032   5.935   7.727 -0.1263 -0.1761  0.0707
34992W        W77983   5.594  13.105   2.881  0.4130  0.6058 -0.1133
34993W        W77984  12.282  16.264  16.242 -0.5105  0.0443 -0.2759
34994W        W77985  24.447   2.534   5.279  0.1129 -0.3591 -0.1703
34995W        W77986  19.304  11.021   2.510  0.1440  0.1878  0.0674
34996W        W77987  34.576  19.831   8.837 -0.1084 -0.0365 -0.0936
34997W        W77988  23.966   4.630   0.356 -0.1374  0.0110  0.0989
34998W        W77989  29.424   2.891   2.190  0.1289  0.0981  0.1168
34999W        W77990  24.459  29.384  28.403  0.1292  0.1508  0.3372
35000W        W77991  22.015  29.746   7.385 -0.0277  0.0269 -0.2811
35001W        W77992  33.859  19.536  27.285  0.0770  0.1365  0.0848
35002W        W77993  29.666   3.907  20.069  0.0250 -0.1613 -0.2090
35003W        W77994  28.490  26.937   6.997 -0.1460  0.1343 -0.2750
35004W        W77995  25.020  16.235  18.175  0.0178 -0.1046 -0.1846
35005W        W77996  17.131  17.998  13.541 -0.0046  0.1610  0.1009
35006W        W77997   0.927  16.920  16.213  0.2021  0.0499 -0.0705
35007W        W77998  15.101  10.345  22.292  0.0409  0.2891 -0.0333
35008W        W77999   3.651  32.929   4.724  0.1530 -0.1518  0.0736
35009W        W78000   7.749  12.182   5.137 -0.3534 -0.5175  0.2091
35010W        W78001  28.259  12.597  26.901  0.2000  0.1827 -0.0412
35011W        W78002  25.130  13.896  13.898 -0.1512  0.1096  0.1756
35012W        W78003   5.405  14.745  22.367  0.0154 -0.1899 -0.0570
35013W        W78004  11.254   6.019   0.802 -0.1575  0.3037  0.0433
35014W        W78005  25.877   3.109   7.151  0.0522 -0.2072 -0.4173
35015W        W78006  12.977   2.777   9.600 -0.2319 -0.0282 -0.1984
35016W        W78007  30.467   7.612  13.805  0.2146  0.2195  0.1270
35017W        W78008   6.109  34.525   6.128  0.4511 -0.0690 -0.1114
35018W        W78009   3.381  11.240  16.382  0.1224  0.0702  0.1569
35019W        W78010   8.005  34.542   5.575  0.2963 -0.2984  0.1588
35020W        W78011  22.612  10.502  13.477  0.0825 -0.0750 -0.3391
35021W        W78012  29.552   4.052   6.535  0.0693 -0.0883 -0.0065
35022W        W78013  31.743   6.698   2.254 -0.1976  0.1483 -0.4771
35023W        W78014  24.717  25.194  18.496 -0.1379 -0.0116 -0.0841
35024W        W78015   3.274  10.666  23.812  0.0342 -0.0977  0.1741
35025W        W78016  21.760   7.147   0.331 -0.1016 -0.1005  0.1030
35026W        W78017   0.327  12.914   0.620 -0.1294  0.2041  0.2079
35027W        W78018  29.291  15.826  14.478 -0.0619  0.1556 -0.2157
35028W        W78019  30.978   9.567  29.238  0.0388 -0.0863  0.0925
35029W        W78020  21.214  10.452   1.479 -0.0874  0.0679 -0.2281
35030W        W78021   0.087  34.228  28.846  0.2835  0.0236  0.1752
35031W        W78022  34.390  34.236   6.895  0.3978 -0.0779 -0.0425
35032W        W78023  29.506  15.701  17.900 -0.3488 -0.0154  0.1174
35033W        W78024   3.116  10.415  18.809  0.1478 -0.0096  0.0192
35034W        W78025   1.126  22.840   4.733 -0.1777  0.0218 -0.3401
35035W        W78026  20.611  34.602  23.654 -0.2583  0.0190  0.0174
35036W        W78027   1.349   3.594  18.320 -0.1987  0.0803 -0.0223
35037W        W78028  30.311  23.566  23.422  0.0539  0.0443  0.1516
35038W        W78029  34.095   8.692  15.202 -0.1440  0.1583 -0.0269
35039W        W78030  20.980   6.889   7.956 -0.1307  0.0252  0.2646
35040W        W78031  23.781  19.660   4.405 -0.0766  0.1876  0.0799
35041W        W78032  16.819  17.765  28.943  0.0574 -0.0383  0.0106
35042W        W78033   8.348   5.202  18.114 -0.2229 -0.0322 -0.0307
35043W        W78034  33.869  28.636   1.928  0.2337 -0.4088  0.1415
35044W        W78035  27.910   0.287  28.680  0.1543  0.1494 -0.1470
35045W        W78036   9.181   4.117  25.074 -0.0246 -0.3436  0.2226
35046W        W78037  17.490  22.214  15.817  0.0890  0.0628 -0.0982
35047W        W78038   1.277  11.236   6.564 -0.0316 -0.1374 -0.2000
35048W        W78039  21.367  34.138   8.626 -0.2901  0.1475  0.1285
35049W        W78040  15.156  32.299  18.023  0.2564  0.1440  0.1230
35050W        W78041   2.407   7.240  26.053 -0.0047  0.0561 -0.3465
35051W        W78042   5.425  16.332  21.004  0.1537 -0.1267 -0.1674
35052W        W78043   5.581  33.771  15.450  0.0492 -0.1857 -0.0695
35053W        W78044   5.032  20.962  23.174 -0.1354  0.1803  0.2494
35054W        W78045   1.990  12.792  20.090 -0.2926  0.0139  0.0832
35055W        W78046   2.701   6.790  11.199 -0.2003 -0.2457  0.0919
35056W        W78047  26.483  23.318  25.096 -0.1274 -0.0628 -0.0645
35057W        W78048   8.166  34.590   2.804  0.0581  0.3459  0.0610
35058W        W78049   7.096   5.348  10.049 -0.1209 -0.0031  0.0586
35059W        W78050  24.831  16.443  25.259  0.1295 -0.1482 -0.0911
35060W        W78051  30.486  13.508  17.014  0.0607  0.1294  0.1204
35061W        W78052  17.423   1.764  28.096 -0.1795 -0.0619  0.2642
35062W        W78053  27.971   4.537   0.718  0.1034 -0.2390  0.0845
35063W        W78054  28.802  12.412  19.433  0.1497  0.2520  0.3391
35064W        W78055  26.741  32.707   8.090  0.1167 -0.0758 -0.0823
35065W        W78056  22.900  19.381   0.734  0.2618  0.1040  0.3797
35066W        W78057   6.365   2.085   2.040  0.0821  0.3032  0.3457
35067W        W78058  19.533  17.968  26.544  0.3459  0.0050 -0.4571
35068W        W78059  34.647  31.481   3.372 -0.0100  0.1058  0.0038
35069W        W78060  17.025  17.337  28.801  0.1128  0.1717  0.1594
35070W        W78061   1.246   6.925  20.935  0.0435 -0.2395  0.0415
35071W        W78062   8.852  23.719   2.028  0.1605  0.2648 -0.0273
35072W        W78063  22.816  34.632   4.425  0.2204  0.0647 -0.3452
35073W        W78064  25.801  14.825  14.424 -0.0963  0.3889 -0.0705
35074W        W78065  26.322  27.557  27.637 -0.3831  0.1727 -0.0804
35075W        W78066  24.081  14.996  15.291 -0.1708  0.0719 -0.1110
35076W        W78067  24.569  13.787   4.107 -0.2619  0.0343 -0.0303
35077W        W78068  21.897  15.724  22.818 -0.1731  0.1409 -0.2601
35078W        W78069  31.624  26.098  21.867 -0.1179 -0.1335 -0.0649
35079W        W78070   3.483  20.120   7.225 -0.3501 -0.0301  0.2229
35080W        W78071   0.312  12.116  24.789 -0.1773 -0.1095 -0.0475
35081W        W78072  16.445   4.453   8.751  0.0153 -0.2024  0.1086
35082W        W78073   0.895   1.193   3.531 -0.1543  0.0422 -0.1040
35083W        W78074   0.639   1.708   7.979  0.1528  0.1451  0.0841
35084W        W78075  17.937  17.037   6.339  0.2784 -0.2526 -0.0764
35085W        W78076  34.330  15.647  19.867  0.1367 -0.3659 -0.1279
35086W        W78077   9.043  19.695   6.232 -0.3672 -0.0647  0.0676
35087W        W78078   3.312  15.201  22.015  0.2055 -0.2797  0.0977
35088W        W78079  26.934  31.355  25.540 -0.2788 -0.1750  0.3033
35089W        W78080  23.561  13.088  13.707 -0.1881 -0.2940  0.0132
35090W        W78081   4.598   2.583  28.624  0.2182  0.1713 -0.2314
35091W        W78082  20.466  20.728  26.515  0.2154 -0.1996 -0.0810
35092W        W78083  22.870   2.786  19.511 -0.0437 -0.1008  0.0546
35093W        W78084  24.585  10.640   8.433  0.0824  0.0064 -0.1051
35094W        W78085  33.408   6.556  20.112 -0.2202  0.0898 -0.3229
35095W        W78086  13.250  20.809  27.221 -0.1084 -0.2286 -0.1492
35096W        W78087  33.664   9.934   6.014 -0.0829 -0.0254  0.4828
35097W        W78088   4.920  13.981   6.341  0.2300 -0.2014 -0.1595
35098W        W78089  17.822   3.803  25.251 -0.2397 -0.2250  0.0041
35099W        W78090  22.371  18.822  28.317  0.2013 -0.1415 -0.3006
35100W        W78091  21.685  32.837  25.792  0.1793 -0.0283 -0.0291
35101W        W78092  34.205  11.504   1.254 -0.2080 -0.1571 -0.1427
35102W        W78093  28.117   7.082   8.387  0.0826  0.0265 -0.1285
35103W        W78094   5.185  32.117   6.736  0.3031  0.1430  0.0539
35104W        W78095  20.584   7.840  16.695  0.0449  0.1304  0.0083
35105W        W78096   9.709   2.956  25.512  0.1489 -0.1504  0.3967
35106W        W78097  16.150  30.696  21.159  0.0166 -0.2632 -0.2575
35107W        W78098  13.718   5.390   6.452 -0.0786  0.2054  0.1223
35108W        W78099  23.857   8.459   1.752 -0.2557  0.0217 -0.2859
35109W        W78100  34.600  21.044  20.628  0.2212 -0.2361  0.1548
35110W        W78101  22.823  15.399  24.825 -0.1570 -0.0704 -0.3277
35111W        W78102   2.093  12.912  10.279 -0.5981 -0.2094  0.2195
35112W        W78103  29.631   2.980  17.975  0.1289  0.1295 -0.2369
35113W        W78104  23.930  16.239   7.013  0.0790 -0.1267 -0.4352
35114W        W78105  18.708  18.042  22.942 -0.4391  0.3876  0.0837
35115W        W78106  25.573  11.957  16.416  0.1416 -0.3813 -0.2816
35116W        W78107   3.370   7.408   7.155 -0.1025 -0.1267 -0.0849
35117W        W78108  29.324  30.661  23.551 -0.0669 -0.3667 -0.2216
35118W        W78109  29.178  21.052  24.206 -0.0287  0.0764  0.0468
35119W        W78110   4.193  22.400   6.157  0.0497 -0.2151 -0.3022
35120W        W78111  28.709   5.439  21.924  0.1911  0.0930  0.1444
35121W        W78112  23.285  20.169  18.772 -0.0516  0.2288 -0.4049
35122W        W78113  29.951   8.694   6.729  0.1506  0.0452  0.1005
35123W        W78114  21.643  13.267  20.592  0.0484  0.1188  0.1846
35124W        W78115   0.542  13.820   4.073 -0.0529 -0.2189 -0.0623
35125W        W78116  31.523  14.511   5.967  0.1099 -0.1102 -0.0358
35126W        W78117  22.975   0.998  14.044  0.1712 -0.1360 -0.1780
35127W        W78118  16.914  15.412  27.105  0.0970 -0.0794 -0.2063
35128W        W78119  31.012  17.641   0.382  0.2096  0.2785  0.2329
35129W        W78120  20.722  20.626  22.394 -0.1875  0.0211 -0.1596
35130W        W78121  33.080  31.068  22.798  0.0845 -0.0935  0.1048
35131W        W78122  15.495  14.309  24.027 -0.3633  0.0453 -0.0922
35132W        W78123  32.015  27.938  28.272 -0.0123  0.2321 -0.0545
35133W        W78124   4.966  17.786   7.262 -0.0924 -0.3624 -0.1363
35134W        W78125  28.026  12.212  10.339  0.0713 -0.3321  0.1099
35135W        W78126  26.515  13.571  28.084  0.0382 -0.1959 -0.1103
35136W        W78127   3.976  23.619  28.580  0.2790 -0.0426  0.0147
35137W        W78128   1.685  21.220   1.888 -0.0262 -0.0935  0.2241
35138W        W78129   1.635  10.398  23.188  0.0208 -0.2227 -0.1470
35139W        W78130  28.060   8.020  16.514 -0.2219 -0.2933 -0.2615
35140W        W78131   2.431  18.972   9.678  0.0078  0.0237 -0.1393
35141W        W78132   4.371   1.159   9.861 -0.1452  0.1554 -0.0997
35142W        W78133   2.657  23.204  24.583 -0.0674  0.0602 -0.0701
35143W        W78134  34.753  13.528  25.625 -0.2332 -0.0113 -0.0114
35144W        W78135  32.499  11.088  16.145  0.2410  0.1733  0.3498
35145W        W78136   2.401  16.067   2.247  0.0499  0.0875  0.0999
35146W        W78137   5.878  10.676  21.351 -0.0928 -0.1769 -0.0450
35147W        W78138  30.168   5.959   0.947 -0.4408 -0.3442 -0.2985
35148W        W78139   4.593  11.785  18.989  0.1863 -0.3435 -0.2016
35149W        W78140  19.370  14.127  16.653 -0.0926  0.2546 -0.3169
35150W        W78141  22.636  16.459   7.249 -0.2555  0.1181 -0.2085
35151W        W78142  19.277   7.632  22.606  0.2656 -0.2226 -0.3593
35152W        W78143   9.234  13.525   5.689 -0.1193  0.2811 -0.0912
35153W        W78144  21.868  11.852   8.805 -0.0517 -0.1917 -0.1798
35154W        W78145  17.961  27.413  25.161  0.1988 -0.0482 -0.2552
35155W        W78146  26.691  16.334  25.471 -0.2708 -0.4598 -0.1227
35156W        W78147   1.467  18.397  17.670  0.0559  0.3563 -0.0858
35157W        W78148   6.227  24.596   6.811 -0.0569  0.0105  0.0922
35158W        W78149  16.474  11.783  19.921  0.1560  0.3128  0.1274
35159W        W78150   2.797  34.205   5.796  0.2041 -0.2730  0.0414
35160W        W78151  25.065   2.239   6.970  0.2189 -0.0977 -0.1543
35161W        W78152  29.487   6.259  21.205 -0.0950 -0.0168 -0.1470
35162W        W78153  26.629   8.055   1.555 -0.0768 -0.1520  0.1823
35163W        W78154   6.684   8.254  27.798 -0.2885 -0.0544  0.0725
35164W        W78155  12.664  11.423  28.499 -0.2574  0.0264 -0.2660
35165W        W78156   8.624   4.643  25.156 -0.1147  0.1204  0.0901
35166W        W78157  18.474  10.526   5.948  0.0767  0.1064 -0.6322
35167W        W78158  13.337   3.964   4.802  0.3303 -0.2988  0.1541
35168W        W78159  31.014  14.580  28.368 -0.0662  0.0455 -0.1887
35169W        W78160  11.464  12.867  14.460  0.2265 -0.2197  0.0050
35170W        W78161  24.655  27.355  19.557  0.2158  0.1260  0.2175
35171W        W78162  21.506   1.090  26.005 -0.0155 -0.1944 -0.0597
35172W        W78163  22.623   8.437  28.122 -0.1646 -0.1376  0.0058
35173W        W78164   6.203  18.340   1.462  0.2358 -0.3166  0.2410
35174W        W78165  22.498  12.629  28.269  0.0989 -0.2033  0.1143
35175W        W78166  22.969   9.807  25.627 -0.1947 -0.1186  0.0879
35176W        W78167  25.810   3.063   4.467  0.1173  0.1103  0.0980
35177W        W78168  25.629  13.505  27.306 -0.1167 -0.1867 -0.3023
35178W        W78169  26.026  13.327  20.733  0.1120  0.4375 -0.0140
35179W        W78170   4.310  17.811   8.658 -0.2184 -0.1830  0.0171
35180W        W78171  21.625   2.867   0.765  0.1451 -0.0347  0.0042
35181W        W78172  32.972  16.023  17.219  0.3115 -0.0067 -0.1945
35182W        W78173  16.544  19.542   7.842  0.1792 -0.2187  0.2994
35183W        W78174  26.591  14.948  18.448 -0.0654 -0.1940  0.2022
35184W        W78175  29.554  13.394  20.244 -0.3187  0.0218  0.1076
35185W        W78176   5.285  13.386  20.733 -0.1893 -0.1392  0.0887
35186W        W78177  26.375  17.143  26.216 -0.1333  0.0480  0.0089
35187W        W78178  24.061  15.819   2.689 -0.5393  0.0466 -0.0935
35188W        W78179  21.118  15.526   1.169 -0.0655 -0.1109 -0.1307
35189W        W78180   9.067  11.906   5.655  0.0673 -0.1577 -0.0519
35190W        W78181  21.404   8.366   5.066 -0.3547 -0.0083 -0.1176
35191W        W78182   8.885  14.867   3.880  0.1762  0.3141 -0.1676
35192W        W78183  32.421  22.053  25.424  0.1726 -0.1941 -0.0766
35193W        W78184  20.737  21.687   3.256  0.0077  0.1228  0.2541
35194W        W78185   3.119   7.855   7.849 -0.1431  0.1023  0.2994
35195W        W78186  21.682  14.315  26.865  0.1660 -0.2642  0.0731
35196W        W78187  30.797  13.168  26.892  0.4149  0.2859  0.3659
35197W        W78188  17.864   5.053  25.019 -0.0164  0.1987 -0.3011
35198W        W78189   8.043  18.079   7.401 -0.2507 -0.0910  0.1322
35199W        W78190  27.569  28.583  25.437  0.0989  0.1569  0.0894
35200W        W78191  32.598  22.953  26.858  0.0262  0.0766 -0.1064
35201W        W78192   2.732  13.607  15.684  0.0295  0.1769 -0.2354
35202W        W78193  27.399  13.870  26.142 -0.1160  0.2883 -0.0382
35203W        W78194  13.593  30.501  20.059  0.2865  0.0147  0.0621
35204W        W78195  10.177   7.733  28.227 -0.1160 -0.0158 -0.1071
35205W        W78196  29.553  14.572   7.905  0.0129 -0.0116  0.3889
35206W        W78197  19.230  16.300   1.412  0.1721  0.0156 -0.0691
35207W        W78198  20.532  18.984  15.940 -0.0698 -0.0763 -0.0152
35208W        W78199  32.450   1.142  17.177 -0.2063  0.3544  0.2465
35209W        W78200   4.133  14.853  21.777 -0.3731 -0.2925 -0.1163
35210W        W78201  29.918  18.794   1.735  0.3228  0.1106  0.1721
35211W        W78202  30.686   3.290   9.609  0.0034  0.1827 -0.1452
35212W        W78203  25.795  14.858  25.643  0.0020  0.2625 -0.0419
35213W        W78204  31.978   4.662   3.175 -0.3929  0.2245  0.2442
35214W        W78205  24.688  10.595  14.680  0.0308  0.1612  0.0500
35215W        W78206  28.328   7.668   3.100 -0.1621  0.0684  0.1202
35216W        W78207  21.685  31.034   5.881 -0.1930  0.2640 -0.2355
35217W        W78208  30.501  29.828  22.681  0.2102  0.0977 -0.1565
35218W        W78209  25.160   1.952  18.325 -0.2747  0.2053 -0.1623
35219W        W78210  29.113  31.031   8.976  0.3138 -0.0888  0.0614
35220W        W78211  20.661   0.239  20.991  0.2111 -0.1377  0.1201
35221W        W78212  29.540  17.114  21.411 -0.0455 -0.3324 -0.0932
35222W        W78213   0.923  10.134  29.111 -0.1498  0.1879 -0.2160
35223W        W78214  28.519   7.483   4.790  0.3518 -0.0768 -0.1692
35224W        W78215  29.272   9.948  17.450 -0.4398 -0.0389 -0.4181
35225W        W78216  31.279  20.191  18.066  0.1830 -0.1226  0.2716
35226W        W78217  34.124   3.487  28.356 -0.2656  0.0898 -0.0777
35227W        W78218  34.648  11.150   1.832 -0.3859 -0.0532  0.2096
35228W        W78219   1.529  18.612  16.833 -0.0345  0.1208  0.1349
35229W        W78220   6.534  11.837  22.877  0.1274 -0.0352  0.0732
35230W        W78221  21.347  29.489  14.957 -0.1854  0.3472 -0.1925
35231W        W78222   2.518  20.557  27.543  0.0240 -0.1089 -0.1984
35232W        W78223   7.404  26.195  18.290  0.1178 -0.6839  0.0239
35233W        W78224  23.325  29.844  27.286 -0.0132 -0.0797 -0.0317
35234W        W78225  27.112  16.475   5.293  0.2645 -0.0831  0.0046
35235W        W78226  32.452   5.492  18.334  0.2083 -0.0740 -0.0285
35236W        W78227  32.147   1.473  18.079 -0.2757  0.3105 -0.0145
35237W        W78228   4.025  28.377  18.880  0.1342  0.0847 -0.1617
35238W        W78229  28.610   3.569  24.245 -0.0457  0.4282 -0.1250
35239W        W78230   4.718   5.968  21.649  0.3326 -0.0390  0.0464
35240W        W78231   3.031   5.677  17.816  0.0549  0.0467  0.0257
35241W        W78232  32.490  26.228  22.068  0.2012  0.0711  0.4573
35242W        W78233  28.762   4.463  25.207 -0.0491 -0.1734 -0.2075
35243W        W78234  31.582  14.661  21.436  0.2211 -0.1559 -0.1881
35244W        W78235   0.192  20.966  25.983 -0.1241 -0.4464 -0.0086
35245W        W78236  10.727   9.458  20.399  0.3695 -0.1941 -0.0222
35246W        W78237   3.899   1.899  18.721  0.0101  0.2422  0.2821
35247W        W78238  34.754  29.128  20.379 -0.2483 -0.1401 -0.0549
35248W        W78239  20.118  15.218  16.339  0.0317  0.1349  0.0673
35249W        W78240  12.156  25.853  15.038  0.1648  0.0191  0.1078
35250W        W78241  33.812  12.346  16.015  0.0544  0.1496 -0.1186
35251W        W78242   0.893  23.208  28.118 -0.1067  0.0089 -0.1455
35252W        W78243  21.416  16.408  15.783 -0.0716  0.2682 -0.1465
35253W        W78244   1.948  11.518  18.422  0.1327  0.1710 -0.2714
35254W        W78245  33.614  12.089  24.159 -0.0244 -0.1867  0.2338
35255W        W78246  26.382   8.787  16.576 -0.0680  0.0607  0.1834
35256W        W78247  34.409   4.350  15.716 -0.0595  0.4857  0.1395
35257W        W78248   7.455  11.484  22.010 -0.0014 -0.1316  0.0442
35258W        W78249  31.934  15.369  14.715 -0.1498 -0.1718 -0.1044
35259W        W78250  21.249   1.914  28.112 -0.5196  0.2119  0.2563
35260W        W78251  20.282  19.172  14.127  0.3904 -0.2401  0.4427
35261W        W78252   0.102   5.750  27.821  0.1407  0.1323  0.4729
35262W        W78253   6.838  13.328  17.068 -0.1184  0.0405  0.1454
35263W        W78254  32.492  12.824  19.825 -0.1360 -0.0741  0.2553
35264W        W78255  24.698   5.355  18.924  0.2969 -0.1012  0.1131
35265W        W78256  33.779  10.226  16.621  0.0715 -0.0576 -0.1295
35266W        W78257   0.669   3.216  27.707  0.3019 -0.1125 -0.2864
35267W        W78258   6.070   3.892  28.252 -0.1116  0.0467 -0.1636
35268W        W78259   0.965  12.387  10.207 -0.0359  0.3007  0.0153
35269W        W78260   2.046   5.861   1.386 -0.0129  0.0539  0.0688
35270W        W78261  11.004  18.461  13.634  0.0978 -0.2033 -0.0698
35271W        W78262  33.543  12.967  22.602  0.0067 -0.0571 -0.2898
35272W        W78263   2.948  30.662   5.588 -0.0813  0.2009 -0.0417
35273W        W78264  33.884  11.204  24.132  0.0454  0.1819  0.3374
35274W        W78265  27.423  32.918   0.467 -0.0500  0.0672 -0.0525
35275W        W78266   2.905  15.081  22.891 -0.2940 -0.3077 -0.2376
35276W        W78267   3.287  10.789  22.368 -0.2178  0.1590  0.0694
35277W        W78268   8.238  10.129  22.704 -0.0374 -0.1775  0.0964
35278W        W78269  27.507  13.859  23.217  0.0847  0.0349 -0.1055
35279W        W78270  33.195   4.144  14.498 -0.2763  0.2059 -0.3059
35280W        W78271  27.458  10.208  20.232  0.2139  0.2112 -0.1088
35281W        W78272  34.130   4.878  24.060 -0.2271  0.0318  0.1223
35282W        W78273   9.994  18.880  18.683  0.0343 -0.2585  0.1813
35283W        W78274  32.866   5.513  14.051 -0.1287  0.3382  0.0068
35284W        W78275  19.646  16.403  15.373 -0.2563  0.1054  0.1382
35285W        W78276  30.902   5.933  15.774  0.0542 -0.0112 -0.1400
35286W        W78277   1.792  14.986  17.687 -0.1481 -0.1160  0.0996
35287W        W78278  23.018   0.947  23.711 -0.3404  0.1120  0.2420
35288W        W78279  19.751   8.048  20.694 -0.3378  0.0397 -0.0587
35289W        W78280  13.908  15.509  15.489 -0.0314 -0.0868  0.1946
35290W        W78281  28.927  27.191  22.995  0.0163  0.0163 -0.0738
35291W        W78282   5.643  20.998  27.161 -0.1897 -0.2641 -0.2034
35292W        W78283   7.259  12.739  16.210  0.0219 -0.4223 -0.2013
35293W        W78284   3.048   5.591  21.142 -0.0989 -0.3864 -0.0746
35294W        W78285  33.710  13.603  23.413  0.0400 -0.0189 -0.1037
35295W        W78286  31.734   0.425  21.300  0.0391 -0.2656 -0.2264
35296W        W78287  26.909   0.666  15.996  0.2385  0.1210 -0.4405
35297W        W78288  21.223  11.749  18.352 -0.2912 -0.4213 -0.2021
35298W        W78289  12.817   5.309   4.443 -0.0673 -0.4167  0.1495
35299W        W78290  19.397   0.266  28.174 -0.1977 -0.1506  0.1733
35300W        W78291  33.010  27.729  20.087 -0.2489 -0.0959  0.1291
35301W        W78292  28.619   8.657  26.463  0.2471 -0.1207  0.0135
35302W        W78293  29.769  32.603  26.683  0.3677  0.2232 -0.3295
35303W        W78294  19.428  24.172  14.836  0.0374 -0.3619 -0.1635
35304W        W78295   3.059  10.627  23.317  0.0961  0.2257  0.2097
35305W        W78296  15.162  18.819   0.680 -0.1429  0.3339 -0.1516
35306W        W78297  22.081  16.363  17.308 -0.0201  0.1226 -0.1398
35307W        W78298  33.673  24.503  17.474 -0.1133  0.0158  0.2318
35308W        W78299   6.130   5.591  21.317  0.1466  0.3754 -0.1687
35309W        W78300  31.186   7.637  22.887 -0.0106 -0.0118  0.0505
35310W        W78301   1.699  19.343  17.952  0.0149 -0.1841  0.0448
35311W        W78302   8.830   8.395  14.806 -0.1901 -0.1908  0.2219
35312W        W78303   7.852   7.271  23.320  0.0396  0.0306  0.1030
35313W        W78304   0.892   6.505  14.810 -0.2197 -0.0535 -0.1873
35314W        W78305  22.390   7.880  18.572  0.1638  0.1904  0.1990
35315W        W78306   8.635   4.138  17.400  0.1618  0.1812  0.0217
35316W        W78307  34.081  17.145  22.186  0.2084  0.0861  0.1130
35317W        W78308  27.705  11.378  23.162 -0.3452  0.0125  0.1452
35318W        W78309  26.201  19.284   2.478  0.3041 -0.1369 -0.0678
35319W        W78310  14.631  20.574  13.356 -0.0833 -0.2527 -0.0642
35320W        W78311   1.819   1.694  19.384  0.2876  0.1758 -0.0345
35321W        W78312  27.410  20.561  28.038 -0.0875  0.1677 -0.1370
35322W        W78313   0.977   2.296  24.547 -0.1201  0.2526 -0.0361
35323W        W78314  29.522   0.180   2.509 -0.0514  0.0463 -0.1510
35324W        W78315  31.095  34.285  19.675  0.0771  0.1115 -0.1391
35325W        W78316  20.988  21.932  19.926  0.0833 -0.0093  0.1921
35326W        W78317  30.523  32.537  13.566  0.0114  0.0020  0.0268
35327W        W78318  20.101  16.076  14.952  0.1947 -0.2944  0.1239
35328W        W78319   7.333  17.063  21.586 -0.0056 -0.0284 -0.0045
35329W        W78320  20.713  17.312  14.370  0.0359 -0.2122 -0.0708
35330W        W78321  29.701   8.149  23.931 -0.0813  0.2312  0.2789
35331W        W78322  27.103  13.722  16.548 -0.0517  0.0628 -0.3144
35332W        W78323  31.957  10.303  28.219  0.0029  0.0096 -0.0607
35333W        W78324  23.989   5.427  19.484 -0.1497 -0.2561  0.1794
35334W        W78325  14.611   5.630   0.542  0.1867 -0.1379  0.0929
35335W        W78326  21.384  20.715  19.579 -0.2441  0.2715 -0.1754
35336W        W78327  33.588  33.762   1.471  0.2095  0.0621 -0.0218
35337W        W78328   1.953  17.472   0.031 -0.3689 -0.1915  0.0219
35338W        W78329  28.829  33.279  16.617  0.3112  0.0173 -0.4105
35339W        W78330  13.722  31.252  22.498 -0.1334  0.2165 -0.1684
35340W        W78331   9.572   8.884   7.167  0.2495 -0.0502 -0.1272
35341W        W78332  33.108   6.354  20.847 -0.0675  0.2424  0.1598
35342W        W78333  30.145  26.551  22.170  0.0437 -0.0182  0.0536
35343W        W78334  30.013  13.553   8.803  0.1504 -0.0609 -0.0953
35344W        W78335  33.066  15.477  16.388 -0.2141  0.1085 -0.3085
35345W        W78336  34.795  22.476  24.489 -0.0254 -0.2416  0.0767
35346W        W78337  11.781  34.437   8.170  0.0018 -0.1606  0.2088
35347W        W78338  11.592  17.252  20.176  0.1964  0.1769 -0.1008
35348W        W78339  24.565   7.510  16.269 -0.1645  0.2410  0.0204
35349W        W78340  21.112   0.329  13.258  0.1670  0.0460  0.1140
35350W        W78341  17.597   4.083   0.061  0.1569 -0.3290 -0.0866
35351W        W78342  19.158  34.227  17.021 -0.2091 -0.2289  0.3235
35352W        W78343   6.766  27.556  27.025 -0.1108 -0.2322  0.0217
35353W        W78344  26.938  17.290  16.085 -0.0459  0.0561  0.1752
35354W        W78345  32.759  33.604   4.621 -0.0236  0.1744  0.0552
35355W        W78346  27.862  19.019  18.049  0.0775  0.0259 -0.2851
35356W        W78347  23.664   6.094  15.020  0.1349 -0.0560  0.0610
35357W        W78348   1.378  11.042  26.919  0.4433 -0.1896 -0.1862
35358W        W78349  24.297  19.512  14.978  0.1449  0.0664  0.1285
35359W        W78350  27.937  31.406   0.444  0.1843  0.0031  0.0248
35360W        W78351   0.673   2.671  26.990  0.0554 -0.1366 -0.1382
35361W        W78352  26.949  20.856  14.419 -0.0765 -0.1272  0.0852
35362W        W78353  20.885  13.964  17.480 -0.1599  0.0604 -0.0485
35363W        W78354  33.449   6.347  19.654 -0.1319 -0.4793 -0.0862
35364W        W78355   6.335  34.630  27.774  0.1969 -0.3668  0.0723
35365W        W78356  26.387   5.101   7.893 -0.1149 -0.1991  0.1285
35366W        W78357   0.127  22.067  16.389  0.0330 -0.3914 -0.1236
35367W        W78358  26.324  17.585  16.985 -0.1112 -0.3032 -0.0722
35368W        W78359  27.263  23.305  19.442 -0.2382  0.0282  0.1959
35369W        W78360  17.986  26.007  23.208  0.0288 -0.1664 -0.0074
35370W        W78361   6.907   6.403  18.786  0.0211 -0.0019 -0.0227
35371W        W78362  33.522  15.962  15.109 -0.0534  0.2925  0.1962
35372W        W78363  32.563  18.918  25.727  0.0667 -0.0140  0.0509
35373W        W78364  23.156  24.373  26.740 -0.3427 -0.2188 -0.0109
35374W        W78365   1.243  23.505  15.936  0.1309 -0.0536 -0.1047
35375W        W78366  34.351   6.671  21.815 -0.0253 -0.4595  0.1558
35376W        W78367  10.700  22.089  17.669 -0.0461 -0.0935 -0.1155
35377W        W78368  23.394  10.714  18.961 -0.0383  0.1761 -0.1859
35378W        W78369   0.831  19.527  15.988  0.0676 -0.2365  0.2225
35379W        W78370  17.930  13.326  19.458 -0.2570  0.1725  0.1197
35380W        W78371   5.513  18.747  14.788 -0.3905 -0.0451  0.3780
35381W        W78372  27.517  14.667  28.972 -0.0648  0.0605 -0.1732
35382W        W78373  28.895  16.253  20.177  0.2034  0.2329 -0.0915
35383W        W78374   1.957  17.046  27.860  0.0280 -0.3784 -0.0576
35384W        W78375   5.845   1.112  23.403  0.2638 -0.1362 -0.0200
35385W        W78376   1.405   0.669  19.852 -0.1846 -0.1041 -0.1619
35386W        W78377  20.801  12.437  14.153 -0.3805 -0.1324 -0.0318
35387W        W78378   9.687   3.475  24.543  0.1505 -0.0842 -0.1693
35388W        W78379  31.716  12.950  24.054 -0.2986  0.3164 -0.2630
35389W        W78380  31.761   2.211  16.203 -0.4443 -0.1455  0.0521
35390W        W78381  17.040  23.939  19.080  0.2169  0.1182 -0.1577
35391W        W78382  26.660  32.622  16.670 -0.1456 -0.2166 -0.1537
35392W        W78383  16.513  14.675   3.679  0.1174 -0.2432  0.1232
35393W        W78384  17.206  21.769  16.064  0.0665  0.2700  0.0172
35394W        W78385  28.867   4.270  17.430  0.2015 -0.1326  0.1127
35395W        W78386  17.042  27.978   6.053  0.1423  0.0256 -0.2378
35396W        W78387   5.326  32.211   3.538 -0.4364  0.0889 -0.1853
35397W        W78388   1.094   7.824  17.485  0.0250 -0.1266  0.1428
35398W        W78389   1.371   1.564  25.302 -0.1156 -0.0205 -0.2237
35399W        W78390  15.141   3.407  19.358 -0.1570 -0.0851  0.2113
35400W        W78391  17.331  28.637  15.839 -0.0822 -0.1022 -0.0199
35401W        W78392   5.803  32.017   1.878 -0.1300  0.2636  0.0760
35402W        W78393  30.574   7.792  19.965  0.0712  0.1358  0.4349
35403W        W78394  28.570   8.300  21.129 -0.1407  0.1118 -0.1926
35404W        W78395  11.539   8.230  16.944 -0.0278 -0.0100 -0.5835
35405W        W78396  20.812   9.224  17.005  0.0622 -0.1081  0.2163
35406W        W78397  31.737   5.667  22.978 -0.0407  0.0967 -0.0787
35407W        W78398  20.823   8.090   7.217 -0.0448  0.3091 -0.1869
35408W        W78399  23.454  19.424  22.280  0.3794 -0.0373  0.0579
35409W        W78400  31.696  18.711  22.692  0.1447  0.1842 -0.1357
35410W        W78401   4.045  18.068  23.794 -0.0475  0.0019  0.1063
35411W        W78402  22.223   8.155  19.647  0.0350 -0.0269 -0.1690
35412W        W78403  22.453  32.097  22.834  0.0667 -0.1310  0.0238
35413W        W78404  29.853   0.926  20.410 -0.1173  0.0490 -0.0228
35414W        W78405  24.046  25.228  22.096  0.0628 -0.0438  0.0196
35415W        W78406  23.071   7.953  24.673  0.1919  0.1816 -0.1975
35416W        W78407  21.976   2.817  21.990  0.0200 -0.1519  0.0220
35417W        W78408   1.806   0.674  18.773  0.0364  0.1928 -0.0118
35418W        W78409   5.599  12.476  15.772 -0.0098 -0.1050  0.1304
35419W        W78410   1.126  16.567  22.657  0.1629  0.1618 -0.0720
35420W        W78411  25.348  13.228   7.256 -0.0719 -0.1526  0.1492
35421W        W78412  17.305  23.491  17.198 -0.1319  0.0202  0.1004
35422W        W78413  10.966   5.405  25.195  0.0380 -0.0267  0.0713
35423W        W78414  29.583  27.391  17.516  0.2390 -0.0047 -0.1168
35424W        W78415  22.640  13.345  26.482 -0.0226 -0.0907 -0.2684
35425W        W78416   6.199  29.657  24.387 -0.0003 -0.2800  0.1170
35426W        W78417  26.437  14.556  16.941  0.1391  0.4134  0.1230
35427W        W78418   1.153  34.625  21.918 -0.1453 -0.2379  0.0574
35428W        W78419  13.834  32.902  20.227  0.0994  0.2910 -0.1390
35429W        W78420  25.286  11.835  21.799  0.0914  0.2650  0.0080
35430W        W78421  10.466   6.585  23.415  0.1560  0.1212  0.0704
35431W        W78422   2.447  31.819   7.183  0.0445  0.0368 -0.2003
35432W        W78423  26.592   6.984  14.812 -0.2867 -0.0279 -0.0276
35433W        W78424   0.714  10.128  19.633 -0.1044 -0.2334  0.0922
35434W        W78425  25.229  14.552  17.448  0.0411  0.0239  0.3706
35435W        W78426  33.118   6.174  20.239 -0.1740 -0.1846 -0.4956
35436W        W78427  30.681   4.632  24.734  0.0745  0.2888  0.1622
35437W        W78428  16.068   2.932  20.772 -0.5577  0.2631  0.1391
35438W        W78429   1.827  11.638  21.929  0.1859  0.1431 -0.0354
35439W        W78430  28.818   7.168  19.442 -0.2848 -0.0349  0.2080
35440W        W78431  29.563   8.362  21.219 -0.2184  0.1444 -0.0495
35441W        W78432  31.732   8.420  15.974 -0.1099  0.0741  0.2294
35442W        W78433  27.617  22.024  13.120  0.1283 -0.1523  0.3640
35443W        W78434   4.546  18.666  20.466  0.0703 -0.0280  0.1045
35444W        W78435  22.037  18.052  14.514 -0.0385 -0.1198 -0.2007
35445W        W78436   4.917  13.521  29.134 -0.1056  0.2230 -0.1871
35446W        W78437  25.424  13.335  24.085  0.2406  0.3982 -0.0197
35447W        W78438  23.117   7.368  21.836  0.0843  0.0329 -0.0062
35448W        W78439  26.520  22.952  24.188  0.3231  0.1108 -0.1328
35449W        W78440  25.440   1.504  26.375 -0.2267 -0.0121  0.0174
35450W        W78441  31.716  23.064  24.274 -0.2125  0.1985 -0.0156
35451W        W78442   6.140  13.603  18.662 -0.3197  0.1496 -0.1454
35452W        W78443  23.620   5.994   0.148 -0.0191 -0.2339 -0.0379
35453W        W78444   0.645  10.417  18.815  0.2477  0.1167  0.3870
35454W        W78445   5.123  22.616  17.625 -0.0768 -0.1526 -0.1232
35455W        W78446  29.719  14.213  18.586  0.0316 -0.1532 -0.1719
35456W        W78447  12.808  10.534  26.674  0.3067 -0.1100 -0.0503
35457W        W78448  30.182  12.236  28.886  0.0985  0.0928 -0.1036
35458W        W78449  28.193   5.047  27.767  0.2934 -0.0517 -0.0407
35459W        W78450  30.663  12.995  19.066 -0.1871 -0.0161 -0.1893
35460W        W78451  27.751   6.194   1.488  0.0434 -0.0348 -0.1936
35461W        W78452  31.329   4.399  14.450  0.2060  0.2610 -0.0242
35462W        W78453  31.674   9.353  23.563 -0.2019  0.1212 -0.0944
35463W        W78454  27.459  14.424  24.352  0.3367 -0.2581 -0.0563
35464W        W78455  29.826   9.223   2.587 -0.0039  0.0599 -0.0559
35465W        W78456  15.523  13.168  16.605  0.2604 -0.1309 -0.0356
35466W        W78457  23.739  23.112  16.744  0.0994  0.0180 -0.2080
35467W        W78458  30.676   0.423  22.236  0.2139  0.1353  0.1194
35468W        W78459  12.644  21.393  20.793  0.2205 -0.0364  0.0475
35469W        W78460   0.311  25.170  18.892 -0.2201  0.0083 -0.2112
35470W        W78461  34.620  27.913  18.988  0.1177 -0.3600 -0.3453
35471W        W78462   4.729  12.688  22.030 -0.2088  0.1929  0.0170
35472W        W78463  27.652   3.909  17.943 -0.1646 -0.4866 -0.0284
35473W        W78464   3.277   6.753  26.978 -0.1357 -0.0712 -0.0853
35474W        W78465   9.161  28.261  14.380 -0.1524 -0.0004 -0.2591
35475W        W78466  18.586  31.275  21.056 -0.1944 -0.0708  0.0124
35476W        W78467  34.431  20.458  21.849  0.0871 -0.0079  0.1074
35477W        W78468  14.342  21.039  22.263 -0.1447 -0.0823  0.3520
35478W        W78469   2.868   7.326  19.075 -0.4630  0.1157 -0.3913
35479W        W78470  25.656  23.939  26.069 -0.1298  0.1088  0.0576
35480W        W78471  11.270   9.194  18.910  0.0410  0.0748  0.1003
35481W        W78472  20.030  13.672  15.973  0.2262 -0.2480 -0.0901
35482W        W78473  27.094  13.789  24.632  0.3397 -0.3808 -0.3106
35483W        W78474  19.929  11.769  18.195 -0.0174  0.1554  0.0135
35484W        W78475  33.661  20.172  23.986  0.1143  0.1905  0.3523
35485W        W78476   7.893  18.764  18.414  0.2439 -0.0514  0.0701
35486W        W78477  17.064   4.616  24.336  0.1579  0.0347 -0.2113
35487W        W78478  30.479  14.727   1.685 -0.3178  0.1329  0.0811
35488W        W78479  24.855  10.655  19.673  0.1273 -0.0010  0.1987
35489W        W78480  25.803   8.016  16.237  0.1653 -0.0371  0.2392
35490W        W78481  28.260  17.878  21.667  0.1679 -0.0933  0.0890
35491W        W78482  23.597  13.242  17.361 -0.0963 -0.4116  0.4237
35492W        W78483  11.299  10.523  15.371  0.0061 -0.2393 -0.1355
35493W        W78484  27.341  10.135  22.557  0.1257  0.0238 -0.1640
35494W        W78485  13.186  18.011  24.444  0.0776 -0.0527 -0.1065
35495W        W78486  34.276  12.930  17.635 -0.2640  0.0756  0.4008
35496W        W78487  33.884  27.352  25.572  0.1859 -0.0027 -0.0571
35497W        W78488  25.950  16.972  22.351  0.0361  0.0927  0.5269
35498W        W78489   0.502  20.980   1.164  0.0540 -0.2717 -0.1001
35499W        W78490   4.650  17.633  26.551 -0.1328  0.2493 -0.4573
35500W        W78491  26.796   7.865  20.422  0.1646  0.2273  0.1401
35501W        W78492  30.486  28.778  21.953 -0.2022  0.2275  0.1310
35502W        W78493  11.854   3.348  20.593 -0.2754  0.0504  0.0028
35503W        W78494  29.806   4.892  24.669 -0.0252  0.1495 -0.1211
35504W        W78495  19.350  20.391  17.968  0.1877 -0.1195 -0.0932
35505W        W78496  20.728   2.436  24.110 -0.0695  0.2151 -0.5623
35506W        W78497  29.546   7.212  23.751 -0.0082 -0.5255  0.2475
35507W        W78498   9.843  15.968  21.960 -0.0909 -0.1704  0.3073
35508W        W78499  34.034  21.219  18.124  0.1280 -0.0195 -0.1431
35509W        W78500   2.187  13.721  17.798 -0.1337 -0.0042 -0.1483
35510W        W78501   0.761  22.134  21.332 -0.0859  0.0798 -0.0572
35511W        W78502  28.332   1.565  15.232 -0.0262 -0.0189  0.2719
35512W        W78503   2.113  33.321  13.962 -0.0243 -0.1087 -0.4879
35513W        W78504   1.127  18.800  19.258  0.5548  0.0813 -0.0024
35514W        W78505   0.914  15.743  22.389 -0.2086 -0.0083  0.1972
35515W        W78506  23.368  13.532  20.735 -0.0329 -0.0168  0.2273
35516W        W78507  12.783   8.283  18.331 -0.3231  0.2341 -0.2947
35517W        W78508  32.885   7.073   3.361  0.1449  0.0252 -0.0751
35518W        W78509   6.213  15.186  19.503  0.3236 -0.0018  0.1089
35519W        W78510  28.017  25.463   0.855 -0.3436 -0.0055  0.1858
35520W        W78511  31.280   7.145  23.052 -0.0408 -0.1875 -0.1560
35521W        W78512  25.293   4.912  21.550 -0.0598  0.0625 -0.1151
35522W        W78513  32.312  14.865  16.453 -0.4280  0.2328  0.0420
35523W        W78514  32.262  27.428  28.289  0.3886  0.0128 -0.0808
35524W        W78515  24.556  20.858  16.829  0.1666  0.0776 -0.1855
35525W        W78516  27.840   9.947  17.854  0.4098  0.0080  0.0890
35526W        W78517  31.076   0.832  28.738 -0.0532 -0.2170  0.1097
35527W        W78518   6.305  19.652  16.236  0.2044 -0.3304  0.2766
35528W        W78519  28.550  15.269  17.739 -0.1022  0.1385  0.1007
35529W        W78520   8.528   9.974  17.317 -0.1042 -0.0205 -0.2950
35530W        W78521  14.712   2.534  26.488 -0.0141  0.0311  0.0689
35531W        W78522  31.120  28.007  28.042  0.2819  0.2793  0.2529
35532W        W78523   7.059  18.708  17.503  0.0666 -0.1833  0.4047
35533W        W78524   4.392  21.530  20.877 -0.2710 -0.0961  0.3779
35534W        W78525   0.957   9.674  19.455 -0.1424  0.0096  0.1706
35535W        W78526  19.890   5.415  14.977 -0.0192  0.1664 -0.0679
35536W        W78527  31.897  18.185  16.322 -0.1537 -0.1074  0.2269
35537W        W78528  32.602  23.451  26.946  0.1729 -0.0026 -0.1091
35538W        W78529  27.117  20.995  20.038  0.2691  0.2871  0.1113
35539W        W78530  23.662  18.310  21.959 -0.0726 -0.0845  0.2266
35540W        W78531   0.262  10.730  15.162 -0.1707  0.2509 -0.1740
35541W        W78532  19.568  20.849  21.913  0.5798 -0.0798  0.3279
35542W        W78533  29.229   9.319   1.457  0.0631  0.1948  0.1251
35543W        W78534   8.605  28.348  17.371  0.1337 -0.1462 -0.2707
35544W        W78535  31.379  23.742  25.977  0.0680  0.1392  0.0490
35545W        W78536  31.145  28.699  27.144  0.0344 -0.0593  0.0229
35546W        W78537   8.793  22.838  14.765  0.1612  0.3236 -0.2935
35547W        W78538  21.405  17.343  17.616 -0.1887 -0.3973 -0.2374
35548W        W78539  24.526  12.689  20.818 -0.0599 -0.2082 -0.1886
35549W        W78540  27.374  10.624  19.142 -0.0197 -0.0183  0.2437
35550W        W78541  23.002  10.894  17.164  0.1106  0.2249 -0.0221
35551W        W78542   3.272  12.551  26.959  0.0864 -0.2655  0.1565
35552W        W78543  17.461   2.629  27.656  0.0535  0.1842  0.2195
35553W        W78544  33.655   6.672  26.781  0.1787  0.0827 -0.0998
35554W        W78545   8.537   2.059  20.301  0.1185 -0.1511  0.3261
35555W        W78546  19.132  11.379  17.867 -0.3829 -0.2950 -0.4162
35556W        W78547  12.203  12.803   3.067 -0.2018  0.0249  0.0701
35557W        W78548  12.568   4.790  24.204  0.0160 -0.3246 -0.2573
35558W        W78549   5.771  19.967  26.370  0.2394 -0.4407  0.0578
35559W        W78550   7.727   1.549  16.692  0.1711  0.2645  0.1635
35560W        W78551  17.340  32.945  27.960 -0.1093 -0.4149  0.1453
35561W        W78552  25.912  33.657  17.202 -0.0696 -0.2242  0.1278
35562W        W78553  25.106  21.113  14.874 -0.2735  0.2398 -0.3464
35563W        W78554  26.327   4.300  15.202 -0.0973  0.2070 -0.1515
35564W        W78555   1.089  10.913  16.262 -0.2110  0.0195  0.1812
35565W        W78556  34.474  31.959  18.367  0.0487 -0.2233  0.2159
35566W        W78557  33.917   8.231  15.449 -0.2014  0.4300 -0.0171
35567W        W78558  30.756  30.692  13.709 -0.0478  0.2983 -0.0956
35568W        W78559  31.574  11.159  15.909 -0.1010  0.0836 -0.0233
35569W        W78560  11.073  10.364  24.430 -0.2046  0.4718  0.0657
35570W        W78561  19.662  25.636  19.740  0.2371 -0.0396 -0.2235
35571W        W78562  30.363   5.970  28.612  0.1527 -0.2482  0.0185
35572W        W78563  34.473   5.043   2.138 -0.2022  0.0831 -0.0538
35573W        W78564  32.462   2.724  18.295  0.0525 -0.1077  0.0750
35574W        W78565  17.916  31.588   2.727  0.1965  0.0727 -0.1800
35575W        W78566  11.459  14.871   3.740 -0.2573 -0.0403 -0.4467
35576W        W78567   0.056  10.710  15.615 -0.2807 -0.1234  0.0896
35577W        W78568   5.797  32.553  18.978  0.2319 -0.2831 -0.0817
35578W        W78569  21.540  23.217  25.674  0.1011 -0.3488  0.0343
35579W        W78570  23.491   8.485  17.960  0.3312  0.1754  0.0034
35580W        W78571   9.649   9.860  15.304 -0.3439  0.3854  0.1707
35581W        W78572  22.088  15.714  24.653 -0.0093 -0.1099 -0.0766
35582W        W78573   8.967  15.615  18.747 -0.1891  0.2084  0.4091
35583W        W78574  31.299  33.867  24.835  0.0283 -0.2993 -0.2236
35584W        W78575  34.037   5.541  18.030 -0.1592 -0.2072 -0.2377
35585W        W78576  34.162  26.848  16.957 -0.2430 -0.2113 -0.3771
35586W        W78577   6.851   4.681  19.542  0.1675  0.1263  0.0112
35587W        W78578  22.392  13.319   0.627 -0.1169  0.0201  0.0429
35588W        W78579  23.947  11.135  17.268  0.2087  0.3622  0.1984
35589W        W78580  21.737   9.192  27.491  0.1599  0.2140 -0.0730
35590W        W78581  25.697  17.092  18.684 -0.1763  0.1475 -0.3483
35591W        W78582  27.842   2.628  18.367 -0.1698 -0.1093  0.1520
35592W        W78583  22.883  10.853  21.182 -0.3314 -0.5528  0.1320
35593W        W78584   7.736  11.234  17.579  0.0516  0.1035 -0.4150
35594W        W78585  25.231   3.320  26.775 -0.3516  0.0166 -0.2976
35595W        W78586   0.397  16.821  24.693  0.2318  0.1549  0.0334
35596W        W78587  29.470  32.724  12.805 -0.3012 -0.0426 -0.0393
35597W        W78588   4.220  28.544  22.927 -0.3040 -0.0393  0.0274
35598W        W78589  33.343  15.311  27.031  0.2593  0.0273 -0.1071
35599W        W78590  31.316  30.424  21.847  0.0558  0.0217  0.1659
35600W        W78591  26.860  25.841  22.961 -0.2513  0.4543 -0.0600
35601W        W78592  27.902  27.220   0.681 -0.1671 -0.0798  0.0331
35602W        W78593  20.648   3.461  19.419 -0.2484 -0.0531  0.0176
35603W        W78594  29.250  10.750   2.109 -0.1754  0.3511  0.1065
35604W        W78595  21.993  21.385   1.621  0.1697 -0.0588 -0.0432
35605W        W78596   7.752  26.255  15.452 -0.0071 -0.1182  0.0514
35606W        W78597   9.426  16.855  15.390 -0.0469 -0.1351 -0.1075
35607W        W78598   3.057   3.481  28.689  0.0794  0.2236  0.0813
35608W        W78599  28.249   3.539  18.086 -0.3947  0.1963  0.1461
35609W        W78600   9.583  23.555  22.097 -0.0299 -0.2076  0.0716
35610W        W78601  31.104  15.278  23.883 -0.0320 -0.4277  0.0366
35611W        W78602   8.856  23.705   0.535 -0.2079  0.2268 -0.2658
35612W        W78603  26.884   2.979  28.047 -0.3058 -0.0694 -0.0851
35613W        W78604  15.798  22.205  15.745 -0.2293 -0.1201 -0.1531
35614W        W78605  27.412   1.504  27.101  0.1660 -0.5069  0.0429
35615W        W78606  32.977  21.545  24.484 -0.1156  0.1415 -0.2829
35616W        W78607   9.166   0.377  17.319 -0.3498  0.2336  0.1027
35617W        W78608  31.025  23.431  15.288  0.2185  0.1292  0.4610
35618W        W78609   8.599   3.112   2.095 -0.1100  0.0467 -0.0533
35619W        W78610  13.766   5.840  28.314 -0.0431  0.1374 -0.0486
35620W        W78611  18.486  28.373  13.227 -0.0338 -0.1012 -0.2239
35621W        W78612  27.197  15.490  15.671 -0.0146 -0.1463 -0.1964
35622W        W78613   5.946  33.935  26.054  0.1787 -0.2430  0.0033
35623W        W78614  32.293  12.423  19.541 -0.1138 -0.3115  0.1154
35624W        W78615  22.917   7.913  24.011  0.0482  0.3756 -0.0698
35625W        W78616  28.893  11.241  16.420 -0.0285  0.1474  0.3494
35626W        W78617  13.736  33.510  17.228 -0.0371  0.1533  0.4046
35627W        W78618  10.828  27.091  18.265 -0.2275  0.1355  0.1022
35628W        W78619  12.583   2.458  15.799  0.1351 -0.0112 -0.0176
35629W        W78620  26.196  15.585  22.207  0.1066 -0.0688  0.0923
35630W        W78621   3.887  31.053  26.623  0.1040  0.1827 -0.4046
35631W        W78622   4.223  22.227  17.661  0.0934 -0.0246 -0.1193
35632W        W78623  29.144  22.101  20.054 -0.1434 -0.1160 -0.2107
35633W        W78624   2.237  12.469  20.911 -0.0310 -0.3288  0.1943
35634W        W78625  24.473  27.791  21.422  0.0546  0.3506  0.0378
35635W        W78626  10.076  13.793  16.786 -0.0822  0.5063  0.1063
35636W        W78627  15.115  11.699  16.194 -0.1026 -0.0839 -0.1310
35637W        W78628   0.370   7.630  23.042  0.0528  0.1515 -0.0139
35638W        W78629   0.312  25.391  20.523 -0.1299 -0.2002  0.1205
35639W        W78630  30.437  25.696  23.762 -0.1572 -0.2101  0.1484
35640W        W78631   0.545  15.924  19.757 -0.1076  0.0024  0.0021
35641W        W78632  23.117  23.902  26.652 -0.1880 -0.1541 -0.2643
35642W        W78633  18.687   7.621  19.759  0.2532  0.1319 -0.2727
35643W        W78634  22.458  16.081  22.041 -0.0794 -0.1230  0.0618
35644W        W78635  25.511  10.781  15.989 -0.2151  0.3319 -0.1723
35645W        W78636   7.349  11.763   0.425  0.0913 -0.1584 -0.2224
35646W        W78637  26.420  31.306  21.794  0.1691  0.2547 -0.3499
35647W        W78638   1.168  14.279  25.043 -0.1178 -0.3074  0.3640
35648W        W78639   0.173   6.723   5.637  0.1308 -0.4084 -0.3008
35649W        W78640   9.178  27.047  21.865  0.0656 -0.0638  0.0384
35650W        W78641  22.268  14.250  26.065 -0.0259  0.4521 -0.4629
35651W        W78642  23.364   1.649  26.464  0.3274 -0.0924  0.1707
35652W        W78643   2.454  16.920  22.066 -0.0961  0.1413 -0.1683
35653W        W78644  33.667   6.830  16.795 -0.0970 -0.0771 -0.0938
35654W        W78645  25.106  21.660  19.981 -0.1250  0.0405 -0.3121
35655W        W78646  15.039  25.325  24.007 -0.1656  0.2975 -0.2993
35656W        W78647  10.409   7.813  18.355  0.1629  0.2008  0.1153
35657W        W78648   8.370   6.658  26.790  0.1492 -0.2323  0.1092
35658W        W78649  32.527  32.688  24.624 -0.0473  0.2138  0.3879
35659W        W78650  20.406  11.621   4.852  0.0900  0.1627 -0.5260
35660W        W78651  32.437   5.352  18.816 -0.0110 -0.0659 -0.0260
35661W        W78652   4.456  23.339  20.937  0.2808  0.1826  0.3080
35662W        W78653  16.381   0.957  25.992 -0.0986  0.1156  0.0505
35663W        W78654   1.329  14.157  24.604  0.1897  0.2232  0.1753
35664W        W78655  23.174  19.968  17.747 -0.0565 -0.2045  0.2368
35665W        W78656   3.694   8.414   2.696  0.1801 -0.3005  0.0667
35666W        W78657  25.909   0.836  14.507  0.0880  0.1070 -0.0250
35667W        W78658  32.500  32.432   6.173  0.0293 -0.3588  0.0525
35668W        W78659  30.029  11.681  22.881  0.0022 -0.2195  0.0151
35669W        W78660  19.979   9.370  19.350 -0.0849 -0.1661 -0.1147
35670W        W78661  30.675  11.828   1.629  0.2929 -0.1158 -0.1466
35671W        W78662  27.779  10.469  23.605  0.0555  0.2476 -0.0158
35672W        W78663  20.975   2.779  13.603  0.0343  0.1301  0.3600
35673W        W78664  19.835  21.432  15.284 -0.0224 -0.0285 -0.0186
35674W        W78665  29.756  13.150  22.287 -0.2217  0.1188 -0.1244
35675W        W78666  16.952   1.698   3.464  0.5150  0.1493  0.0485
35676W        W78667   0.906  12.725  15.429 -0.1592  0.1994  0.3191
35677W        W78668  30.397  13.463  15.271  0.0935 -0.0843  0.0567
35678W        W78669  31.686  25.613  24.038 -0.1358  0.0993  0.1081
35679W        W78670  28.501  20.769  14.166 -0.2207  0.0151  0.1189
35680W        W78671   6.659  23.426  20.235 -0.0459 -0.1925 -0.2706
35681W        W78672  24.764  13.606  14.180  0.1309 -0.0606 -0.1709
35682W        W78673  24.251   4.883  23.045  0.2406  0.0214 -0.1367
35683W        W78674   1.137  14.812  16.492  0.1393  0.1017 -0.2331
35684W        W78675  23.732   2.313  21.995  0.1350 -0.0182 -0.0667
35685W        W78676  21.555   4.261  24.343  0.0129  0.1084  0.0313
35686W        W78677   6.148  16.935  19.747  0.0256 -0.2094  0.0774
35687W        W78678  24.534   9.471   0.736  0.1723  0.0274 -0.0703
35688W        W78679  28.511  11.407  22.102  0.1651 -0.0538 -0.0696
35689W        W78680   6.825  11.938  24.264 -0.2056 -0.0121  0.1196
35690W        W78681  30.257  17.156   4.797 -0.1297 -0.2100  0.0036
35691W        W78682  24.682   0.703   0.064 -0.2141 -0.2704  0.3865
35692W        W78683   1.400  18.736   2.867 -0.0536 -0.2372  0.2172
35693W        W78684  24.665  14.723   3.269 -0.0022 -0.1642  0.3338
35694W        W78685  32.856  14.665  20.366  0.0274  0.2294 -0.0807
35695W        W78686  14.066  32.394  17.798 -0.2365  0.1286 -0.1385
35696W        W78687  29.673  19.046   4.232 -0.0804 -0.0903 -0.1939
35697W        W78688  33.848  28.198   1.522  0.3263 -0.1135  0.1291
35698W        W78689  18.854   6.173  23.157 -0.2487 -0.2289  0.3263
35699W        W78690  22.383  27.295  26.157 -0.2205  0.0462 -0.0068
35700W        W78691  28.671  18.024  15.171  0.2628  0.1458 -0.0878
35701W        W78692  14.615   0.275  19.891  0.1311  0.2766 -0.2072
35702W        W78693  21.180  18.709   1.514 -0.2850  0.2974 -0.1454
35703W        W78694  14.295  11.179  16.130 -0.1619  0.0333 -0.0045
35704W        W78695  29.284  19.040  19.829  0.0848  0.0971  0.1915
35705W        W78696  31.827  20.441  17.317 -0.2783  0.1204  0.0082
35706W        W78697   2.236   5.087  27.246  0.1694 -0.0206 -0.0768
35707W        W78698  10.474  30.046  23.847  0.0645  0.0154  0.2121
35708W        W78699  12.578  24.965  16.067  0.3474  0.0805  0.0434
35709W        W78700  23.169  14.769   1.687 -0.2232 -0.0671  0.2086
35710W        W78701  27.820   6.080  20.640 -0.1173 -0.1030  0.2069
35711W        W78702  31.679   0.569  26.293 -0.3861  0.0386  0.0104
35712W        W78703  13.581   9.768  15.258 -0.0642 -0.0109 -0.0594
35713W        W78704  25.910  20.773  16.544  0.1426 -0.0599  0.0821
35714W        W78705   2.897  25.764  22.935 -0.0678 -0.0137  0.3471
35715W        W78706   1.878   0.034  17.896 -0.0838 -0.0819  0.3628
35716W        W78707  34.423  16.800  28.925  0.3416 -0.0842  0.2434
35717W        W78708  30.389  21.983   4.237  0.2126  0.3880  0.0076
35718W        W78709  29.955   9.933   9.076 -0.0421  0.1193  0.0260
35719W        W78710  28.213  10.913  15.096  0.0658  0.2088 -0.0804
35720W        W78711   3.599   4.000  25.963  0.1332 -0.0335 -0.0657
35721W        W78712  31.842  19.390  26.297 -0.0282 -0.1142 -0.0317
35722W        W78713  12.346  30.517  25.556 -0.1436  0.1892  0.1359
35723W        W78714  11.721   8.863  15.984  0.0019 -0.1156  0.0704
35724W        W78715  27.784  27.204  15.063  0.0232  0.1457  0.2549
35725W        W78716  25.781  24.842  29.088  0.1053  0.1701  0.0471
35726W        W78717  28.905   3.955   0.979 -0.4069  0.2291 -0.0312
35727W        W78718  29.802  27.611  12.899 -0.1984 -0.2666  0.1098
35728W        W78719  33.536  32.894  16.198  0.0374  0.0344  0.0705
35729W        W78720  11.218  34.674   8.888  0.1613 -0.2966  0.2756
35730W        W78721  19.838  29.393  13.944  0.0451  0.3896 -0.0609
35731W        W78722  17.157   8.499  20.383 -0.0669  0.2819 -0.0168
35732W        W78723  19.163  31.006  15.265  0.0555 -0.1593  0.1319
35733W        W78724  28.028  15.460  28.358 -0.1779  0.1027  0.0035
35734W        W78725  30.375   8.921  19.341 -0.1652  0.0713  0.0353
35735W        W78726  12.483  25.371   7.347 -0.1983 -0.0174  0.5158
35736W        W78727  14.932   7.962  26.852  0.1975 -0.0050  0.0836
35737W        W78728   9.576   8.762  18.599  0.0079 -0.2420  0.1195
35738W        W78729  10.743   4.992   2.096 -0.1384  0.2312 -0.0719
35739W        W78730  30.340   6.819  14.377 -0.1067  0.3713  0.3434
35740W        W78731  28.709   9.716  28.812 -0.1332 -0.2748 -0.0003
35741W        W78732   1.415  16.702  23.606 -0.1427 -0.2328  0.1538
35742W        W78733  28.899   3.676  25.352  0.0902 -0.0087 -0.1690
35743W        W78734   5.866   8.848  28.465  0.1294  0.0220 -0.3397
35744W        W78735   5.871  16.613  22.845  0.1467 -0.1402  0.0908
35745W        W78736   0.917  13.315  16.654  0.3491 -0.1670  0.1007
35746W        W78737  13.833  27.206  17.954  0.3264  0.0828  0.2525
35747W        W78738   0.341  29.387  24.649  0.3737  0.2615 -0.2153
35748W        W78739   9.069   3.593  25.957 -0.1164  0.0063 -0.0392
35749W        W78740  12.368  29.090  28.430  0.0302 -0.0815  0.0973
35750W        W78741  28.196  34.741   3.940  0.1691 -0.0643  0.2866
35751W        W78742   0.894  11.269  24.902 -0.5347 -0.2150  0.1117
35752W        W78743   8.627  13.140  17.339  0.4495  0.0870  0.1671
35753W        W78744  17.247  11.953  22.828 -0.1074  0.0046  0.3496
35754W        W78745  28.579  16.483  17.223 -0.1208 -0.2376  0.0830
35755W        W78746  34.607   8.073  27.496 -0.0356  0.1842  0.1161
35756W        W78747  21.344   4.901  19.367  0.0144 -0.0554  0.0572
35757W        W78748   0.139  15.646  19.662  0.2788  0.5364 -0.1967
35758W        W78749   0.073  22.422  17.909 -0.4224 -0.2612  0.0098
35759W        W78750  24.743  14.494   8.778  0.1115  0.1410 -0.0844
35760W        W78751  16.806  19.079  23.548  0.0605  0.1011 -0.1669
35761W        W78752  32.507  23.664  19.299 -0.1614 -0.1179 -0.0680
35762W        W78753  28.507  26.015  25.507 -0.3736  0.0575  0.1280
35763W        W78754   4.802  22.573   4.296  0.2560  0.4007 -0.4388
35764W        W78755  21.086  34.247  25.231  0.2166 -0.0683 -0.2551
35765W        W78756  31.848  10.332  15.405  0.2268 -0.3663  0.0992
35766W        W78757  31.845   8.236   5.913  0.0762  0.1456 -0.1796
35767W        W78758  22.671   7.370   9.396 -0.0704 -0.0234 -0.3112
35768W        W78759  28.455  13.198  15.749 -0.1880  0.1907  0.2718
35769W        W78760  31.177  13.451  22.675  0.2134  0.1671  0.2990
35770W        W78761  28.791  34.292  17.510 -0.1646 -0.0279 -0.1562
35771W        W78762  34.698  16.882  22.364 -0.1153 -0.1937  0.0222
35772W        W78763  12.137   3.101  19.568 -0.0587  0.1367 -0.1303
35773W        W78764  34.130   0.036  14.772 -0.0075 -0.2558  0.1055
35774W        W78765  29.594   7.675  20.795  0.1848  0.1184 -0.0100
35775W        W78766  24.465  26.110  16.594 -0.0460  0.0051  0.0353
35776W        W78767  13.802   3.972  15.803  0.4076  0.1300  0.1763
35777W        W78768  30.248  11.472  20.699 -0.1648 -0.5134 -0.3115
35778W        W78769   4.241  11.997  17.269  0.0540 -0.1567  0.2031
35779W        W78770  34.000   6.796   8.769  0.0288  0.0709  0.3083
35780W        W78771  13.609   9.674   1.575 -0.1973 -0.0610 -0.1313
35781W        W78772  11.175  33.957   3.372 -0.0537 -0.1510  0.0125
35782W        W78773   0.482  21.060  26.500 -0.2201  0.0707 -0.0209
35783W        W78774   1.121  13.371   0.770 -0.2109  0.0613  0.2289
35784W        W78775   8.542  12.163  26.935 -0.2383 -0.0997  0.0534
35785W        W78776   4.224  15.307  16.311 -0.2218 -0.1427  0.1815
35786W        W78777  15.208  32.319  27.989  0.0875 -0.0935 -0.0158
35787W        W78778  31.212  15.586   0.441  0.0631  0.1936 -0.5895
35788W        W78779  33.055  28.568  15.611  0.1528 -0.0910 -0.3889
35789W        W78780  24.744  16.031  24.494 -0.1033 -0.0074  0.0406
35790W        W78781  21.144  24.673  16.179 -0.2071  0.1590 -0.0656
35791W        W78782  22.387  33.843   2.472  0.0540 -0.1399 -0.0349
35792W        W78783  33.956  14.415  25.161  0.0485  0.1517 -0.1643
35793W        W78784  14.738  20.016  14.280 -0.2054 -0.0424  0.1092
35794W        W78785  32.012   1.448   5.211  0.1666  0.1737 -0.1068
35795W        W78786  22.852  16.124  17.737 -0.4412 -0.2035  0.0020
35796W        W78787  31.426   7.916  18.948 -0.3008  0.0290 -0.3141
35797W        W78788  19.040  14.878  13.095  0.1736  0.1772  0.4818
35798W        W78789  18.532  10.400  23.033 -0.1925  0.0055 -0.0992
35799W        W78790  29.939  34.397  16.252  0.3934  0.1356  0.2195
35800W        W78791  24.351   7.255  15.209  0.1172 -0.0838  0.2480
35801W        W78792   4.775  16.768  24.236  0.1457 -0.1555 -0.1077
35802W        W78793  22.768  15.510  17.332 -0.1476 -0.0526  0.2435
35803W        W78794  22.817   9.653  16.462  0.0705  0.5501 -0.1396
35804W        W78795  22.209   7.081  20.832 -0.0626  0.0625  0.0162
35805W        W78796   4.925  16.468  22.162 -0.0380  0.2480  0.1406
35806W        W78797  25.833  29.030  24.543 -0.1360  0.1169  0.3290
35807W        W78798  24.750  13.063  15.433 -0.0180  0.2855 -0.0467
35808W        W78799  32.083  17.538  28.064 -0.0595 -0.0612 -0.4160
35809W        W78800  25.674  33.121  20.972 -0.2028 -0.0377 -0.0115
35810W        W78801  33.512  25.247  24.327 -0.0481 -0.2633  0.1125
35811W        W78802  12.549   8.641   0.245  0.3490 -0.1095 -0.2685
35812W        W78803  22.681  23.396  24.655  0.1537 -0.0506  0.2355
35813W        W78804  30.646  30.778  16.928  0.3573 -0.0375 -0.4453
35814W        W78805   0.783  26.417  13.524  0.1853  0.0844  0.3014
35815W        W78806  16.829  31.914  22.862 -0.2384 -0.3346 -0.2637
35816W        W78807  10.533  11.213  23.210  0.1365  0.0415 -0.1085
35817W        W78808  28.244   6.274  16.072 -0.1525  0.0913  0.1700
35818W        W78809   2.947  15.429  19.370  0.1493  0.3522  0.4022
35819W        W78810  21.770  17.284   5.610  0.0327  0.1553  0.2056
35820W        W78811  31.770   0.591   0.094 -0.3161 -0.0060 -0.1759
35821W        W78812  21.994   4.181  17.653 -0.4233  0.3459 -0.1129
35822W        W78813   0.027  21.320  22.675 -0.1902 -0.0493  0.0718
35823W        W78814   0.305  12.368  19.924 -0.0580  0.0063 -0.1206
35824W        W78815  34.230   2.011  17.694  0.2440  0.1422 -0.1421
35825W        W78816   4.231  17.392  15.540  0.5359  0.0812 -0.0377
35826W        W78817  33.130   6.925   7.281  0.1227 -0.1733  0.3079
35827W        W78818  31.102  18.682  14.234  0.4670  0.1108 -0.1080
35828W        W78819  23.849   1.717  21.585  0.4616 -0.0514 -0.2219
35829W        W78820  32.780  17.141  28.976 -0.1639  0.0023  0.2873
35830W        W78821  22.295  10.182  25.593  0.0813 -0.1700 -0.0244
35831W        W78822   8.235  27.637  22.143  0.1086  0.0403 -0.0918
35832W        W78823   6.656  32.838   5.345 -0.3140  0.0655  0.2655
35833W        W78824  26.563  26.155  28.605  0.0171  0.2644  0.1539
35834W        W78825  15.803  21.987  24.936 -0.0099 -0.0292  0.0368
35835W        W78826   4.817  11.817   3.348  0.1202 -0.2474  0.1534
35836W        W78827  18.428  25.059  15.181 -0.5058  0.0030 -0.2469
35837W        W78828  25.353  25.527  16.193  0.0484 -0.0941 -0.2531
35838W        W78829  33.133   8.776   7.207 -0.0098  0.1977  0.0662
35839W        W78830  21.966  15.314  14.370 -0.0280 -0.0767 -0.3707
35840W        W78831  22.941  15.063  18.804  0.2856 -0.0823  0.0536
35841W        W78832  32.594  27.949  20.307  0.0466  0.0543 -0.2885
35842W        W78833   6.321   6.150  20.595  0.1435  0.3581 -0.0494
35843W        W78834  19.179   4.984  23.314  0.4944  0.0751  0.1142
35844W        W78835  30.835  32.335  16.883  0.2568  0.2882  0.1324
35845W        W78836   0.204  12.123  15.760  0.0365 -0.2113  0.0498
35846W        W78837  23.810  15.956   5.271  0.0669  0.1024 -0.1270
35847W        W78838   5.004   6.572  18.110  0.1801 -0.1981  0.5896
35848W        W78839  32.938   1.085  20.274  0.0123 -0.3772 -0.1621
35849W        W78840   5.651  13.914  17.856 -0.1190  0.0915  0.3364
35850W        W78841  31.009  27.859  22.740 -0.2031 -0.0013  0.1641
35851W        W78842   2.948   9.836  17.954 -0.0601  0.2141 -0.2022
35852W        W78843  27.901  21.337  27.195  0.0950 -0.2470 -0.0841
35853W        W78844  34.194   5.451   1.465 -0.0692  0.2093 -0.0291
35854W        W78845  21.698  13.938  21.189 -0.3454 -0.0147  0.0554
35855W        W78846  20.343  16.154  26.903 -0.0025  0.0327  0.0205
35856W        W78847  10.901   6.145  28.380  0.1090 -0.1461 -0.1313
35857W        W78848   9.281  26.119  24.275  0.4038  0.0255  0.0364
35858W        W78849  31.354  11.084   0.400 -0.0620  0.0478  0.2882
35859W        W78850  26.721   7.260  17.625  0.0291 -0.3964 -0.2914
35860W        W78851  34.323   4.769  26.734 -0.0113  0.1239  0.1631
35861W        W78852  31.389  15.422  14.355 -0.0541  0.2424 -0.1574
35862W        W78853   0.522  22.920  16.830 -0.0141  0.0218 -0.0196
35863W        W78854  14.772   0.348  25.300 -0.2526 -0.0041  0.3986
35864W        W78855  20.185   6.577  22.654 -0.1078 -0.0067  0.2477
35865W        W78856  32.214  14.692  20.223 -0.2908  0.0356  0.4096
35866W        W78857  27.432  10.128  23.839  0.2058  0.1225  0.2292
35867W        W78858   1.698   7.926  25.840 -0.1805  0.3490 -0.1490
35868W        W78859  34.209  26.401  23.606 -0.2428 -0.1720 -0.0093
35869W        W78860  22.070  12.200  28.029 -0.2540  0.0729 -0.1897
35870W        W78861  31.253   1.796  25.190  0.1327  0.3773  0.2835
35871W        W78862   6.051  14.877  24.654  0.1537  0.0168  0.0562
35872W        W78863   1.852  18.163  19.568  0.1134 -0.2391 -0.1351
35873W        W78864  33.042  12.062  16.675 -0.1704  0.1420 -0.2464
35874W        W78865   2.880  13.788  27.510  0.3383 -0.0404  0.1567
35875W        W78866  21.338  20.096  15.039  0.2526  0.3153 -0.0668
35876W        W78867  30.567  21.392  18.868  0.0034 -0.0472 -0.3359
35877W        W78868  13.043  11.211  20.069  0.2356 -0.0602 -0.1080
35878W        W78869  29.873   1.643  17.832  0.1268 -0.2807  0.0277
35879W        W78870   4.992   7.237  28.377  0.1156 -0.2977 -0.2237
35880W        W78871   3.714  25.135  26.737  0.2909  0.0907  0.3292
35881W        W78872  27.662   7.324  22.367  0.1479  0.0993  0.2115
35882W        W78873  26.530  30.833  19.570  0.0966  0.2160 -0.0701
35883W        W78874  29.260  20.448  23.611 -0.2228 -0.2212 -0.0354
35884W        W78875   3.481   9.625  17.466  0.4084 -0.1072  0.2078
35885W        W78876   4.218  24.958   4.938 -0.1144  0.0973  0.0538
35886W        W78877  10.332  10.737  23.998 -0.2809  0.0339 -0.1583
35887W        W78878   4.388  23.460  15.259  0.1035 -0.1776  0.1144
35888W        W78879  32.174   8.425  18.061  0.0771 -0.0558 -0.2851
35889W        W78880  25.278  11.854  19.687 -0.2659 -0.0668 -0.3050
35890W        W78881  23.849   8.636  18.598 -0.2838 -0.0561 -0.1088
35891W        W78882  30.459  18.869  19.902  0.0388 -0.2186  0.2091
35892W        W78883  17.397   3.134  19.461  0.1641 -0.0680  0.0149
35893W        W78884  30.107  19.598  15.659 -0.1424 -0.3133 -0.1689
35894W        W78885  33.090  12.302  24.000 -0.1363  0.0806  0.1962
35895W        W78886  21.759  23.293   1.307  0.1873 -0.0263  0.1551
35896W        W78887  32.913   3.174  22.386 -0.0568  0.0403  0.2158
35897W        W78888  29.262  11.763  27.687  0.0354  0.0538  0.1098
35898W        W78889  28.576  22.754  19.069 -0.2239 -0.3129  0.2801
35899W        W78890  27.058  27.546  27.004  0.0311  0.0869 -0.1188
35900W        W78891  17.743  22.378  17.938 -0.2242  0.2860  0.0051
35901W        W78892  30.902   6.100  27.284 -0.1060 -0.1746 -0.2699
35902W        W78893   3.488  25.830  21.031 -0.0289  0.0933 -0.0902
35903W        W78894   7.133  21.509  24.535  0.0693  0.2637  0.1799
35904W        W78895  32.354  14.639  22.135 -0.1620  0.1948  0.2892
35905W        W78896  26.810  10.828  17.672 -0.0360  0.1722  0.0308
35906W        W78897  26.940  27.272  25.238  0.1847 -0.2807 -0.0913
35907W        W78898  25.842   8.957  17.846  0.1842 -0.3029 -0.0024
35908W        W78899   1.434  17.195  23.345  0.0024  0.1850 -0.1089
35909W        W78900  22.956  29.968   0.386 -0.0728  0.0433  0.0912
35910W        W78901  29.536   3.714  21.400 -0.1131 -0.2447 -0.2611
35911W        W78902  25.915  31.590  18.352  0.2353 -0.0989  0.1163
35912W        W78903  31.557  14.331  20.754 -0.1225 -0.0781 -0.4024
35913W        W78904   0.955  13.003   1.929  0.2395  0.0704  0.1497
35914W        W78905  27.145  14.713  28.001  0.1498 -0.3409  0.0139
35915W        W78906  11.896   7.416  22.565 -0.3201  0.0205 -0.0755
35916W        W78907  24.585  18.322  16.643 -0.2209  0.1931 -0.2498
35917W        W78908  29.865  25.991  25.922 -0.0208 -0.0604 -0.1547
35918W        W78909   5.102  12.055  21.129 -0.0981 -0.1256  0.0157
35919W        W78910  12.967  11.377  21.890  0.3242 -0.1077 -0.0868
35920W        W78911   4.770   2.811   7.739 -0.2163  0.0481 -0.0936
35921W        W78912  17.758   8.799   0.932 -0.1425 -0.0267 -0.2174
35922W        W78913  28.414  16.701  19.477  0.1722  0.1579 -0.0880
35923W        W78914  10.755   7.316  15.213  0.3728  0.2756  0.0822
35924W        W78915  24.313   8.388  26.136 -0.0150  0.1816 -0.3695
35925W        W78916  27.667   9.088  17.592  0.1765 -0.1611 -0.0640
35926W        W78917  14.126  30.961  22.686 -0.2119  0.2333  0.1069
35927W        W78918  27.010  28.398  27.703  0.2537  0.2367 -0.0750
35928W        W78919  33.148  15.171  16.774 -0.0822  0.1583  0.1334
35929W        W78920  28.412  12.210  22.308  0.0238  0.1198 -0.1924
35930W        W78921  26.481  22.574  27.755 -0.0700  0.2221 -0.0613
35931W        W78922  26.704   6.451  25.264 -0.0889  0.0925  0.0571
35932W        W78923   2.604  24.024  21.684  0.2210 -0.2479  0.1110
35933W        W78924  29.193  28.068  25.959  0.0724  0.3234 -0.1551
35934W        W78925  25.381  18.194  16.319 -0.2479  0.0597 -0.0909
35935W        W78926   4.920   7.415  28.895 -0.0818 -0.1415 -0.1007
35936W        W78927  23.784  19.353   1.035  0.0088 -0.3434 -0.6034
35937W        W78928   2.576  19.678  25.868  0.2129 -0.1112  0.3162
35938W        W78929  31.029  18.099  20.541  0.2130 -0.3408  0.0179
35939W        W78930  30.177  20.931  22.472 -0.0631  0.2487  0.3867
35940W        W78931  28.413  23.570  17.879 -0.0250  0.1789 -0.0059
35941W        W78932  16.691  32.502   3.589  0.1540 -0.3294  0.1765
35942W        W78933   1.120  14.715   2.186 -0.0365 -0.1015 -0.0457
35943W        W78934   6.995  23.805  25.686  0.1209 -0.1645 -0.2525
35944W        W78935   6.524  13.618  15.768  0.1517  0.0447  0.0367
35945W        W78936   6.140   6.947  22.650 -0.2779  0.0875  0.0178
35946W        W78937   4.768   7.533  18.296 -0.0781 -0.0557 -0.2291
35947W        W78938  22.907  13.593  23.394  0.0049 -0.0841 -0.0988
35948W        W78939   0.950  19.959  17.722  0.0802  0.1954 -0.3822
35949W        W78940  32.045   2.312  26.449  0.0520  0.1269 -0.0637
35950W        W78941  34.359   9.499  15.895 -0.1108  0.1327 -0.1290
35951W        W78942   3.642  29.975  23.777 -0.2927  0.1073 -0.0264
35952W        W78943   3.827  30.472   0.332 -0.0396 -0.0956 -0.0383
35953W        W78944  30.761  22.530  21.487  0.2963 -0.2927  0.3242
35954W        W78945  27.057   4.519  23.858  0.1628  0.2172  0.0421
35955W        W78946  31.994  29.661  17.897  0.0656 -0.1145  0.0232
35956W        W78947  15.357  23.664  24.354 -0.4595  0.0263 -0.2222
35957W        W78948  20.902  12.900  21.348  0.3006  0.1487  0.1130
35958W        W78949  27.826  24.446  21.861 -0.0783  0.0212  0.0650
35959W        W78950  25.584  21.088  27.023  0.1644 -0.1354  0.0998
35960W        W78951  27.214  12.546   2.914  0.1098  0.1034 -0.0782
35961W        W78952  17.627  27.816  18.080 -0.1375 -0.2616  0.1609
35962W        W78953  29.299   3.830  28.130  0.0246 -0.0245  0.1836
35963W        W78954  32.275  27.811   4.470  0.3152 -0.0649 -0.0519
35964W        W78955  19.898  22.852  14.760  0.0461  0.0649 -0.1968
35965W        W78956  26.701  19.702  14.967  0.2654  0.4777  0.2301
35966W        W78957  28.825  29.093  15.751  0.0395  0.1689  0.2190
35967W        W78958  26.004   0.902  18.759  0.1573 -0.1169 -0.0154
35968W        W78959   2.584   8.747  24.050  0.0985 -0.1182  0.3638
35969W        W78960  24.213  14.252  26.836 -0.4884 -0.0463 -0.0805
35970W        W78961  34.323  13.137   0.035  0.1274  0.0770 -0.2638
35971W        W78962  31.826  14.229  24.978 -0.0055  0.2991  0.1228
35972W        W78963  26.153  15.966  21.575  0.0142 -0.0280 -0.2323
35973W        W78964  34.296   5.833   7.810  0.1487 -0.1763  0.0202
35974W        W78965  10.113  23.932   4.444 -0.1652  0.0703  0.0785
35975W        W78966   1.577  21.510  25.084  0.0383 -0.1008 -0.4912
35976W        W78967   8.512  13.039   7.971 -0.1100 -0.3220  0.0023
35977W        W78968   1.548  26.952  13.648  0.0627  0.0137  0.0393
35978W        W78969  28.619   9.639  18.108 -0.0704  0.1105  0.0303
35979W        W78970  23.846  19.685  13.361 -0.4450  0.0493  0.0245
35980W        W78971  23.486  13.928  20.442 -0.2044 -0.0913 -0.0530
35981W        W78972   1.192   8.725   3.016  0.0043  0.0332  0.0014
35982W        W78973  31.905  17.570   1.877  0.1605 -0.0830 -0.0271
35983W        W78974   5.441  26.559   7.581  0.0261 -0.0604  0.0565
35984W        W78975  23.114  14.862  26.215  0.3944  0.2852  0.1892
35985W        W78976   7.452  17.249  22.783 -0.0243  0.0148 -0.0853
35986W        W78977  26.564  12.409  20.662  0.0457  0.1470  0.1177
35987W        W78978  29.733   3.500  17.980 -0.2946 -0.1991 -0.0001
35988W        W78979  30.446  23.804  16.102 -0.0410 -0.1749  0.1390
35989W        W78980  22.387  33.561   4.364 -0.2564  0.1299  0.0904
35990W        W78981  22.392  17.300  23.253  0.0100 -0.1977  0.2294
35991W        W78982  32.335  11.525  22.061 -0.3467 -0.4265  0.3674
35992W        W78983   0.064  16.034  24.356 -0.1419 -0.2447 -0.1304
35993W        W78984  27.510  20.837  28.489  0.0981  0.1570  0.1696
35994W        W78985  28.286  14.720  17.040 -0.2398  0.1180 -0.0845
35995W        W78986  26.576   9.933  22.091 -0.0441 -0.0277  0.1224
35996W        W78987  16.721  27.085  16.761 -0.2759 -0.1560  0.0413
35997W        W78988   2.041  12.135  25.797  0.1900 -0.0717  0.2182
35998W        W78989  29.965  26.689  16.074 -0.3806 -0.3781 -0.2912
35999W        W78990  15.890   3.466   0.131 -0.1321  0.2121 -0.1565
36000W        W78991  34.394  15.356  21.343  0.1324  0.0092  0.1175
36001W        W78992  16.746   3.978  22.409 -0.0997 -0.0244  0.0030
36002W        W78993  27.690  27.549  17.114 -0.5252 -0.0094  0.1628
36003W        W78994  29.166   8.189  22.901  0.1164 -0.1450  0.2798
36004W        W78995   3.700  10.091  21.154  0.0348 -0.2065 -0.0812
36005W        W78996  30.571  11.173  26.797 -0.1619  0.1894  0.0257
36006W        W78997  31.867  17.116  26.199 -0.1438 -0.5890 -0.1117
36007W        W78998   4.536  10.558   3.179  0.1423  0.0682  0.1103
36008W        W78999  26.772   9.672  15.460  0.0808 -0.3030  0.3161
36009W        W79000  26.964  30.972  14.800 -0.0532  0.0053  0.1513
36010W        W79001   3.527   2.216  18.989  0.2795  0.0665 -0.1845
36011W        W79002  23.268  34.508  18.157  0.1174 -0.0907 -0.1795
36012W        W79003   5.275  20.875  18.678 -0.0242  0.1136  0.0633
36013W        W79004  25.174  12.502  15.980 -0.0510  0.1262  0.0861
36014W        W79005  33.370  18.491  15.258  0.0018 -0.1047  0.1679
36015W        W79006  24.277  11.684   7.654 -0.1370  0.3502  0.1703
36016W        W79007   9.697   2.990  20.446  0.4709  0.4013 -0.0028
36017W        W79008  11.181  16.310  21.684 -0.1884  0.1900  0.0116
36018W        W79009  31.126  15.538  19.129  0.0984 -0.0169 -0.2959
36019W        W79010   0.163  29.998  20.832  0.1738 -0.0414 -0.0436
36020W        W79011  26.385   5.738  23.099 -0.1564 -0.0598  0.0815
36021W        W79012  26.338  22.128  20.617 -0.2740 -0.1184  0.1566
36022W        W79013   5.081  23.264  25.435  0.1901 -0.2743  0.0186
36023W        W79014  32.757  22.390  20.983 -0.1261 -0.0432  0.0091
36024W        W79015   1.847   7.958  23.297 -0.2337 -0.0987 -0.0465
36025W        W79016  26.234  22.178  19.665 -0.2528  0.4987 -0.0188
36026W        W79017  32.499   7.469  21.014  0.1299 -0.2697 -0.2578
36027W        W79018   0.561  15.220   1.176  0.1599  0.1128  0.2299
36028W        W79019  12.429   9.948   1.889  0.0989  0.0488  0.1731
36029W        W79020   2.249  26.449  18.974  0.0967  0.1158  0.2661
36030W        W79021  26.167  18.324   4.368 -0.2679  0.1157  0.0139
36031W        W79022  29.914  21.698  28.844  0.1733  0.0967  0.1950
36032W        W79023  29.210  21.530  15.380 -0.1054  0.1068 -0.0445
36033W        W79024  28.591  29.331  28.432 -0.2498 -0.1691 -0.2048
36034W        W79025  16.224  18.451  22.875  0.1383 -0.0919  0.0377
36035W        W79026  30.861  18.204  10.276  0.0929 -0.0249  0.1049
36036W        W79027  31.560  25.131  27.274  0.1621 -0.0634  0.1042
36037W        W79028  27.707   2.988   3.977  0.2984  0.2400  0.1142
36038W        W79029  32.363  18.611  26.104  0.0663 -0.2456 -0.2551
36039W        W79030  28.253  30.308  28.782 -0.0424 -0.1298  0.0967
36040W        W79031  32.295  31.455  20.458 -0.0313  0.1241 -0.1197
36041W        W79032  10.921   6.291  20.879 -0.0284  0.1340  0.2644
36042W        W79033   5.702   2.114   2.068  0.0994  0.0597  0.1261
36043W        W79034  33.668  22.418  28.652  0.2750 -0.1754 -0.0804
36044W        W79035  33.567  14.976  26.366 -0.1867 -0.2083 -0.1651
36045W        W79036   6.595  10.140  15.132  0.1325  0.1943  0.2715
36046W        W79037  18.471   2.247  17.583 -0.2599  0.2732 -0.1435
36047W        W79038  10.391   9.005   6.983 -0.0100 -0.0335 -0.0797
36048W        W79039  10.917  21.682  26.268  0.0785 -0.0382  0.3299
36049W        W79040  30.544  24.403   4.726  0.0293  0.1642  0.1734
36050W        W79041  26.230  14.770  21.717  0.1429  0.1298  0.1523
36051W        W79042  25.765  15.353  25.421 -0.1241 -0.3335  0.1860
36052W        W79043   1.304  12.838  22.416  0.0568 -0.1705 -0.0898
36053W        W79044  20.166  24.747  28.670  0.2622  0.0961 -0.2046
36054W        W79045  31.817  29.160  20.364  0.0615 -0.1407  0.0638
36055W        W79046   5.811  19.926  25.882 -0.0571  0.3532 -0.1902
36056W        W79047   6.705  20.430  17.118  0.3358  0.2087  0.2178
36057W        W79048   0.437  21.317  18.031  0.2205 -0.0480  0.1595
36058W        W79049  29.188  13.005  14.407 -0.1299  0.4533 -0.4856
36059W        W79050  25.606  10.838   1.037 -0.0300  0.2018 -0.2934
36060W        W79051   6.873  13.698  17.380 -0.3816  0.0228  0.0942
36061W        W79052   5.057  14.471   6.896  0.1198 -0.0044 -0.2365
36062W        W79053  17.690   9.537  17.606 -0.1128  0.0960  0.5418
36063W        W79054  32.198  27.659  23.017  0.1105  0.1366 -0.3167
36064W        W79055   3.742  12.154  20.093 -0.1697  0.4187  0.0558
36065W        W79056  22.568  27.054  22.439 -0.3226 -0.0775 -0.0105
36066W        W79057   1.083   7.880  18.039 -0.0981 -0.0690 -0.1254
36067W        W79058   9.549  12.879  27.719 -0.0557 -0.0550  0.1421
36068W        W79059   2.411  14.649  28.467 -0.3781  0.0978  0.0131
36069W        W79060  12.083   5.292  18.609  0.3666  0.1445  0.0260
36070W        W79061  26.533   5.425  17.310 -0.0685  0.0741 -0.2143
36071W        W79062   3.499  22.227   2.246 -0.0780 -0.2521 -0.1057
36072W        W79063   7.501  17.573  25.777  0.0796  0.0148  0.2487
36073W        W79064  29.507  18.366  15.072  0.3380  0.0285 -0.4648
36074W        W79065  22.053  15.598  18.555  0.2484 -0.2543  0.2596
36075W        W79066   5.942  22.520  20.536  0.0231  0.0275 -0.0679
36076W        W79067  22.908  23.490  15.496  0.1504  0.0131  0.0779
36077W        W79068  30.697  30.439  26.358  0.1323  0.0022  0.2416
36078W        W79069  22.879   6.247  28.321  0.0377  0.0873  0.0463
36079W        W79070  28.510  17.933  14.741  0.3593  0.1364 -0.0995
36080W        W79071  16.032  29.366   0.358 -0.2914  0.0681 -0.1109
36081W        W79072   3.511   2.480   9.328  0.4520 -0.1057 -0.1912
36082W        W79073   1.634  20.844   8.785  0.2447 -0.1385 -0.4980
36083W        W79074  32.649  10.794  18.181 -0.4234  0.2220  0.1272
36084W        W79075  34.108   7.969  19.578 -0.2341  0.3667 -0.0549
36085W        W79076  29.826  33.551  15.673  0.0191  0.0030 -0.0642
36086W        W79077   6.530  24.735   7.719  0.2075  0.0521 -0.0912
36087W        W79078   2.347  12.920  22.898  0.2114 -0.0263 -0.1828
36088W        W79079  29.573  12.986  17.043 -0.4181 -0.0890 -0.1026
36089W        W79080  24.029   5.989   2.422  0.1432 -0.1399 -0.1393
36090W        W79081  29.586   0.683   2.026 -0.0903  0.0617  0.0959
36091W        W79082  21.896   1.559   7.414  0.1158  0.0025  0.0414
36092W        W79083   6.902  14.712   4.877  0.1069 -0.0509  0.2657
36093W        W79084  20.722  12.958  15.880  0.0087  0.3034  0.0364
36094W        W79085  22.743   4.123   3.477  0.2119 -0.0061  0.2013
36095W        W79086  31.464  26.280  24.984  0.1903 -0.0023  0.3625
36096W        W79087  29.133  32.822  13.824  0.1403 -0.2738  0.1238
36097W        W79088   7.045  24.571  17.002  0.0484 -0.1052  0.0222
36098W        W79089  27.082  16.666  19.774 -0.0536  0.0296 -0.0437
36099W        W79090   6.038  20.760   5.995  0.0023  0.3162 -0.0873
36100W        W79091   2.222  25.710  20.184 -0.0861 -0.2737  0.1646
36101W        W79092  22.239   4.920  25.557  0.1722  0.0798 -0.0416
36102W        W79093  24.285  14.183  23.583 -0.1031  0.2308  0.0446
36103W        W79094   0.091  13.572   0.028  0.3503 -0.0918  0.2570
36104W        W79095  29.810  19.981  18.928 -0.0741  0.1398  0.1263
36105W        W79096  28.133  30.695   4.934 -0.1205  0.1003  0.0801
36106W        W79097   2.942  19.291  15.284  0.0349  0.0387  0.3139
36107W        W79098  30.922  16.905   8.696  0.0984  0.1231 -0.0446
36108W        W79099  12.146  26.065  16.397 -0.0863  0.0484 -0.1834
36109W        W79100  28.242  21.567   3.300  0.2990  0.0609  0.1185
36110W        W79101  15.088  25.187   6.097  0.1725  0.1369 -0.3288
36111W        W79102   2.273  10.199  28.184 -0.2215 -0.3206 -0.1325
36112W        W79103  27.214  15.987   7.538 -0.1817 -0.0194 -0.1564
36113W        W79104   1.165  29.713  21.883  0.1048 -0.1902 -0.0549
36114W        W79105   8.362   6.789  17.512 -0.2963 -0.1721 -0.1363
36115W        W79106  20.732  24.275  15.206 -0.0778 -0.0588 -0.0456
36116W        W79107  31.773  21.048  24.940  0.0917  0.2242 -0.3216
36117W        W79108  17.563  29.783   2.366  0.1312 -0.0421 -0.0759
36118W        W79109  27.655   0.712  18.828 -0.1176  0.1376 -0.0477
36119W        W79110  21.291   4.314   7.962  0.0591  0.1243  0.0411
36120W        W79111  28.955  21.372  19.386 -0.1097 -0.0261 -0.2129
36121W        W79112  18.713   7.617  14.641  0.0099  0.0283 -0.1339
36122W        W79113  10.476   5.399   2.749 -0.3107  0.2541 -0.1427
36123W        W79114  22.180  11.349  29.081 -0.2913 -0.2643 -0.0977
36124W        W79115  19.863   1.393  27.728  0.0524  0.0841  0.2628
36125W        W79116   7.648  14.173  29.093 -0.2236  0.1908  0.2910
36126W        W79117  31.569  34.792  16.037  0.0038 -0.0956 -0.0904
36127W        W79118   2.858  23.163  16.665 -0.3566  0.0284 -0.1393
36128W        W79119   1.497   0.392  18.465  0.2933  0.0576 -0.0476
36129W        W79120  10.286  14.101   2.518 -0.0160 -0.2044 -0.1468
36130W        W79121  26.619   8.447  24.677  0.0991  0.0744 -0.0743
36131W        W79122   4.773   5.623   8.558 -0.1223 -0.1429 -0.0310
36132W        W79123  20.485   9.739  16.930 -0.2349  0.0564 -0.2093
36133W        W79124  22.863   8.493  27.199 -0.4941  0.0304 -0.3342
36134W        W79125  16.716  15.105  15.729  0.0939  0.0606  0.1599
36135W        W79126  28.716   7.098  22.096  0.3440  0.1390  0.3807
36136W        W79127   0.923  23.571  24.484  0.1959 -0.2100 -0.2665
36137W        W79128   6.970  24.366   3.031  0.1501 -0.4600 -0.3675
36138W        W79129   1.371   7.842  19.529  0.0044 -0.0631 -0.2164
36139W        W79130  33.488  21.682   1.912 -0.0590  0.0012 -0.1207
36140W        W79131  18.789   8.409   2.073  0.2410  0.3643 -0.4392
36141W        W79132   6.947  12.587   6.120 -0.2168 -0.2082 -0.0466
36142W        W79133  20.519   9.338  16.056 -0.0721 -0.3557  0.2917
36143W        W79134   9.166  14.297  27.892 -0.1039  0.1282  0.0947
36144W        W79135  29.367   0.931  26.875 -0.0148 -0.3343 -0.1362
36145W        W79136   4.490   9.298  19.953  0.0232  0.2527 -0.1819
36146W        W79137  27.162  21.983  18.725  0.1540  0.0100 -0.0389
36147W        W79138  24.780  16.035  17.822  0.1663  0.0514  0.1690
36148W        W79139  27.575  20.701  19.424  0.1109 -0.1086 -0.0825
36149W        W79140  21.240  15.652  24.115 -0.0771  0.2799  0.0046
36150W        W79141  30.800   6.520  26.507  0.1357 -0.0372  0.0005
36151W        W79142   0.206  23.913  27.090  0.0338 -0.1664 -0.2276
36152W        W79143  27.969  21.403  24.126 -0.0085  0.2743  0.0967
36153W        W79144  32.812  24.979  20.860  0.0038 -0.1339  0.0353
36154W        W79145   9.852  13.820  24.907  0.0348  0.1386  0.2836
36155W        W79146  31.123  13.292  15.370 -0.1533  0.1361 -0.0756
36156W        W79147  10.382  19.379  21.170 -0.1655  0.2824  0.1040
36157W        W79148  31.928  13.515   4.155 -0.1153 -0.0174 -0.1965
36158W        W79149  14.762  18.390  23.941 -0.2420 -0.3204  0.1046
36159W        W79150   4.798  14.916  15.254 -0.1928  0.1531  0.1059
36160W        W79151  34.203  12.362  23.718  0.2451  0.2286 -0.0416
36161W        W79152   5.329  31.583  15.051 -0.1178 -0.4231  0.1779
36162W        W79153  17.912  12.793   5.366 -0.0881 -0.4046 -0.0554
36163W        W79154  33.373   8.832  20.246  0.0224  0.1235  0.3084
36164W        W79155  19.308   5.560  21.930  0.3186 -0.2756 -0.0293
36165W        W79156  32.898  20.759  18.140  0.0068 -0.1164 -0.0471
36166W        W79157  31.400   2.708  16.362  0.5986 -0.3106 -0.0231
36167W        W79158  29.011  22.285  17.223  0.1363 -0.3467  0.0153
36168W        W79159  20.564  25.516  14.853  0.0916  0.1938 -0.4354
36169W        W79160  25.200  24.947   2.361 -0.5122  0.0943 -0.3958
36170W        W79161  26.729  13.441  27.054 -0.2117 -0.2467 -0.2435
36171W        W79162  27.006  18.416   3.400 -0.1618  0.0160 -0.1659
36172W        W79163  10.046   5.949   7.423  0.0518 -0.1180 -0.1836
36173W        W79164  25.989  15.945  17.788 -0.0982 -0.0525  0.1528
36174W        W79165   1.664   3.793  17.103  0.0807 -0.3364  0.3817
36175W        W79166  16.457   1.204   3.816  0.3776  0.1075  0.3132
36176W        W79167  21.228  14.571   4.835  0.1874 -0.0914  0.0041
36177W        W79168  28.923  27.250   6.975 -0.0906 -0.1826 -0.2211
36178W        W79169  30.074  26.051  23.585  0.0435  0.1446  0.1442
36179W        W79170  26.093   0.011  20.521 -0.0871  0.0156 -0.0748
36180W        W79171  22.901  31.336  19.168  0.3649  0.3368  0.0226
36181W        W79172   7.183  19.266   4.377 -0.0989 -0.2376  0.1980
36182W        W79173  27.423  11.744  23.131 -0.0390 -0.3192 -0.0403
36183W        W79174   0.328  22.584  18.331  0.0525 -0.2258  0.0309
36184W        W79175  29.979   7.671  13.853 -0.3134 -0.3364 -0.1594
36185W        W79176  23.337   9.495   5.898 -0.1971  0.1272 -0.5739
36186W        W79177   7.017   7.809  19.453  0.0469 -0.1447 -0.0521
36187W        W79178  32.507  15.505  24.124  0.0913 -0.3186 -0.1198
36188W        W79179  11.809   3.821  16.659 -0.0430  0.3013 -0.0805
36189W        W79180  28.026  14.045   9.920 -0.0122  0.1194  0.0961
36190W        W79181  19.591   2.594  23.852  0.3024 -0.0806 -0.2372
36191W        W79182   9.686  10.356   3.614 -0.0793  0.0185  0.1082
36192W        W79183  33.027   9.997  20.864  0.1315  0.0266  0.1157
36193W        W79184   2.029   1.806   3.556 -0.2122 -0.2644 -0.3610
36194W        W79185   1.652  32.878   4.078  0.1526  0.4041  0.1916
36195W        W79186  15.989  22.281  17.266 -0.0521 -0.1053 -0.2555
36196W        W79187  25.272   6.859  24.627 -0.0440 -0.0757  0.0466
36197W        W79188  27.542  24.617   3.442  0.2885  0.1097 -0.1938
36198W        W79189  28.950  29.057  19.523 -0.0903  0.0463 -0.1607
36199W        W79190   1.786  13.461  15.287 -0.1975 -0.0824  0.0955
36200W        W79191  11.469  19.065  14.789 -0.2109 -0.0513 -0.2029
36201W        W79192  16.412   7.209  21.183  0.2535 -0.1965 -0.0746
36202W        W79193   6.990  16.475  19.815 -0.1885 -0.0149  0.0798
36203W        W79194  11.460  10.709  20.776  0.2239  0.1131 -0.3439
36204W        W79195  29.266  16.481  18.810 -0.1141 -0.1317 -0.1409
36205W        W79196  15.698   4.583  10.709 -0.0836 -0.1494  0.0623
36206W        W79197  25.716  14.316   2.964 -0.3888 -0.0407 -0.2396
36207W        W79198  14.832   2.617  27.952 -0.2598 -0.1038 -0.0515
36208W        W79199  19.872   3.949  18.061  0.1864  0.1373 -0.0722
36209W        W79200  31.369   0.586   0.371 -0.1238  0.1523  0.0489
36210W        W79201  32.765  10.895  19.771 -0.1116 -0.1615 -0.2434
36211W        W79202  29.786  10.585  23.766  0.3486  0.1204  0.4357
36212W        W79203  24.804   3.774  21.964  0.3635 -0.2585  0.2181
36213W        W79204  26.062  17.296   9.850 -0.0714  0.0344  0.1460
36214W        W79205  28.115  13.228  15.171  0.1268 -0.2951  0.2498
36215W        W79206   4.276  10.169  18.758 -0.1006  0.2552  0.2002
36216W        W79207  31.601  18.911  20.641 -0.1645  0.1877  0.2767
36217W        W79208  20.603  11.254  13.645 -0.0646 -0.1281 -0.0139
36218W        W79209  32.145  15.027  17.831  0.3559 -0.1430 -0.1084
36219W        W79210  19.643   6.096   7.523  0.0293  0.6019  0.3802
36220W        W79211  12.193   7.773  22.815  0.0993 -0.0974  0.1638
36221W        W79212   9.106   4.182  24.505  0.2396  0.1802 -0.1472
36222W        W79213  29.338   4.830  29.078  0.1638  0.0513 -0.2120
36223W        W79214   3.474   7.047  27.742  0.1189  0.0095 -0.1885
36224W        W79215  24.828   8.689  14.569 -0.3661  0.3195 -0.2116
36225W        W79216  31.506  14.442  14.622  0.0620  0.3153 -0.2713
36226W        W79217  15.984   5.877  21.190 -0.0117  0.2127  0.0801
36227W        W79218  30.641  22.146   3.457 -0.2858  0.2586 -0.1793
36228W        W79219   1.117  31.500  20.899  0.0273 -0.1698  0.3275
36229W        W79220  31.918  13.672   0.690  0.0455  0.2079 -0.0989
36230W        W79221  33.657   5.058   1.190  0.0207 -0.2766 -0.1587
36231W        W79222  20.412  10.317  15.531  0.0965  0.1243 -0.0421
36232W        W79223   1.802   2.999  18.545 -0.0821  0.3114 -0.0671
36233W        W79224  17.663   4.843   6.636 -0.1569  0.2879 -0.1345
36234W        W79225  25.212  16.402  26.587  0.2345 -0.2968  0.0462
36235W        W79226  19.789   3.636   2.214 -0.1046 -0.0726  0.2968
36236W        W79227   1.017  16.239  22.217  0.0998 -0.2686  0.0277
36237W        W79228  24.740  13.581  20.270 -0.2693 -0.0014 -0.0345
36238W        W79229  29.151  16.276   5.420  0.1766  0.0205 -0.1339
36239W        W79230  26.763   7.897  21.718 -0.1686  0.0804  0.3271
36240W        W79231   7.541  11.836  28.035 -0.2568  0.0090  0.0262
36241W        W79232  29.974  18.507  25.591  0.0745 -0.1290  0.0188
36242W        W79233  33.284  18.131   1.154 -0.1313 -0.0987 -0.1347
36243W        W79234  31.078  22.852  20.716  0.2595  0.0732  0.0891
36244W        W79235  32.496  14.298  23.546 -0.1656 -0.3763  0.0917
36245W        W79236  28.032  31.942  21.877  0.0273  0.2768  0.1650
36246W        W79237  33.507   6.453  16.008  0.4969  0.0236  0.1721
36247W        W79238  19.099   2.040   4.444 -0.0703 -0.0222 -0.0436
36248W        W79239   6.620  18.062  16.473 -0.0208  0.1856  0.1773
36249W        W79240  34.236  12.358  20.063  0.1761  0.1057  0.0630
36250W        W79241  21.396  33.028  23.192  0.0277  0.2084 -0.3023
36251W        W79242   8.808   5.432  14.835 -0.0839 -0.1147  0.1917
36252W        W79243   3.257  13.973  27.161 -0.0111  0.0415  0.0721
36253W        W79244   0.772   7.390   9.396 -0.0528  0.2730  0.2356
36254W        W79245  28.864   7.727  14.121 -0.1418 -0.3003 -0.2692
36255W        W79246  28.927  27.508  13.872 -0.0020 -0.2027  0.1770
36256W        W79247   7.682  28.899  15.276  0.3087  0.0155  0.2330
36257W        W79248   0.356  15.863  23.121  0.3009  0.2410 -0.1411
36258W        W79249  29.966  12.282  19.446 -0.0720  0.1172  0.1514
36259W        W79250   1.225  21.874  19.168 -0.3897 -0.0772 -0.0312
36260W        W79251   5.819  32.205  23.929 -0.2133 -0.1955  0.1580
36261W        W79252   1.397  30.079   8.186 -0.4421  0.0926 -0.0066
36262W        W79253  25.191  25.059  21.748  0.1283  0.2865  0.1049
36263W        W79254   4.912   0.514  24.097 -0.0601  0.2779  0.2343
36264W        W79255  15.970   1.162  17.645  0.0039  0.2884 -0.1295
36265W        W79256  31.417  18.658  26.191 -0.1872 -0.2398 -0.2171
36266W        W79257  22.054   3.052  18.081 -0.0512 -0.1465 -0.0653
36267W        W79258  21.566  22.113  18.453  0.1546  0.0862 -0.0907
36268W        W79259   2.912  16.126   6.911  0.0134 -0.1621 -0.0734
36269W        W79260  15.529   5.015  22.047  0.1566  0.0009  0.1483
36270W        W79261   1.632   2.044   8.054  0.0379  0.0901  0.1242
36271W        W79262  30.779  14.060  16.046  0.0525 -0.0633  0.1595
36272W        W79263  34.205  12.355   0.077 -0.0816  0.1250  0.3243
36273W        W79264  14.756  14.004  18.969 -0.3445 -0.0301 -0.2841
36274W        W79265  33.737   3.291  16.919 -0.1678  0.2734 -0.0546
36275W        W79266   0.525   8.351  28.568  0.0186  0.0617  0.0191
36276W        W79267   8.067  19.805  25.909  0.0262  0.1580 -0.0918
36277W        W79268  32.181  29.127   2.029 -0.2579  0.0337  0.1562
36278W        W79269  26.686  10.128  19.877 -0.0387  0.1740 -0.0605
36279W        W79270  24.343   7.307  26.617  0.0331 -0.1549  0.2841
36280W        W79271  33.527   7.285  22.258  0.1839 -0.0860 -0.2173
36281W        W79272  12.123   9.476  20.854 -0.0567 -0.1006 -0.2843
36282W        W79273  22.496   5.569   4.256 -0.1333 -0.0155  0.0858
36283W        W79274  22.473  20.566  18.123  0.0757 -0.1451 -0.0209
36284W        W79275  26.255  11.837  17.083 -0.1586 -0.0825 -0.3260
36285W        W79276  34.626  13.657  10.420  0.1037  0.1199  0.0461
36286W        W79277   1.551   8.245  11.002 -0.0324 -0.1990  0.0263
36287W        W79278  25.104  12.927  23.412  0.0272  0.1804  0.1538
36288W        W79279  31.516  14.455  15.690 -0.1969  0.0802  0.0478
36289W        W79280   2.521   4.056  26.055 -0.2149  0.0465  0.0466
36290W        W79281  18.478  21.241   1.023 -0.0582 -0.0113  0.2780
36291W        W79282  25.999  19.233   7.661  0.0903 -0.2165  0.0450
36292W        W79283  25.601  30.410  27.520 -0.1771 -0.0093  0.1543
36293W        W79284  33.253  19.406  14.082  0.0173  0.0434 -0.2109
36294W        W79285  22.658  17.703  19.280 -0.2797 -0.2229 -0.1684
36295W        W79286  33.984  14.341   0.672 -0.0228 -0.0438  0.1036
36296W        W79287  29.827  21.127  16.604  0.0230 -0.0591  0.2705
36297W        W79288   1.888  18.340  21.659 -0.3572  0.0641  0.0375
36298W        W79289   5.178  27.822  27.624 -0.3392 -0.0108 -0.1841
36299W        W79290  16.815  22.707  17.754 -0.0783  0.3188  0.3090
36300W        W79291  10.453  30.680  20.104  0.0602  0.1375  0.3221
36301W        W79292  23.598  12.245   2.730  0.2066  0.0923 -0.1700
36302W        W79293  29.141  18.410  16.116  0.1638 -0.1202 -0.0665
36303W        W79294  19.217   7.018  14.111  0.0686 -0.1095 -0.1230
36304W        W79295  20.879  12.225  23.012  0.1701 -0.0629 -0.1954
36305W        W79296  15.505  10.661   4.247 -0.1558 -0.1436 -0.0004
36306W        W79297  34.373  13.923  19.554 -0.1766 -0.1263 -0.0250
36307W        W79298   1.557  23.016   1.134 -0.1269 -0.2707  0.1267
36308W        W79299  11.615  14.614  23.118  0.0470 -0.0006  0.1242
36309W        W79300  21.165  23.995  17.428  0.0779 -0.2819  0.1898
36310W        W79301   8.945   7.243   2.945  0.0081 -0.0732  0.1057
36311W        W79302  27.455  19.969   8.858 -0.1429  0.2102  0.0221
36312W        W79303  30.780  18.820   2.246  0.1044  0.1973  0.1059
36313W        W79304  28.123  16.920  26.146 -0.0006 -0.0976 -0.2101
36314W        W79305  15.954  14.631  23.234 -0.1455  0.1292  0.0297
36315W        W79306  28.051  15.698  24.054 -0.0625 -0.1436  0.1496
36316W        W79307  13.230   8.662   2.825  0.0014 -0.1049 -0.4203
36317W        W79308   6.889   7.108  11.398  0.0440  0.2676  0.2209
36318W        W79309   4.733  13.091  20.811 -0.1313  0.4277  0.1436
36319W        W79310   8.603   9.222  15.710  0.2252 -0.2689 -0.1241
36320W        W79311  30.404  12.715  23.887 -0.0872 -0.0065  0.0059
36321W        W79312  31.140  29.749  22.205  0.0264 -0.0960  0.0870
36322W        W79313  32.568  20.635  21.832 -0.2694  0.4498  0.2762
36323W        W79314   6.250   1.450  21.819 -0.0820  0.1849 -0.0546
36324W        W79315  17.330   1.386  16.543  0.1972  0.0692  0.1055
36325W        W79316  17.176  31.509  24.712  0.0818 -0.0473 -0.0652
36326W        W79317  34.418   5.105  21.023 -0.1196  0.2131 -0.1131
36327W        W79318   6.109  32.551  15.450  0.1546  0.3754 -0.1090
36328W        W79319  22.062  12.256  16.050 -0.1877  0.0034  0.2599
36329W        W79320  28.959  31.765   3.620  0.0958 -0.2170  0.2486
36330W        W79321  31.713  11.401  24.462 -0.3047 -0.1540  0.2912
36331W        W79322   9.133  15.040  24.830  0.2504  0.0920  0.0430
36332W        W79323  23.086  30.003  18.250  0.0382 -0.0082  0.1169
36333W        W79324  26.208  18.812  27.874  0.3146  0.1395  0.1543
36334W        W79325  31.240  34.187  17.145 -0.1959  0.2538 -0.0121
36335W        W79326  27.929  13.359  19.189  0.0612 -0.1259  0.0959
36336W        W79327  17.949   9.784  19.911 -0.0877 -0.0594  0.0668
36337W        W79328  33.850  27.842   8.325 -0.3101 -0.3322  0.0623
36338W        W79329  23.300  12.469  16.397 -0.2970 -0.0857  0.0712
36339W        W79330  11.683  28.239  21.989 -0.2315 -0.2571  0.1267
36340W        W79331  25.545   9.573   0.049  0.1233  0.0420  0.0571
36341W        W79332  29.866   3.353   0.986 -0.1007  0.2819  0.2736
36342W        W79333  20.017   6.147  26.644  0.0156  0.1883 -0.0414
36343W        W79334  11.502  21.269  23.443  0.0719  0.1527  0.0556
36344W        W79335  21.237   7.410  24.489 -0.3299  0.0540 -0.1624
36345W        W79336  27.922  16.762  20.309 -0.3243  0.0168  0.1726
36346W        W79337  23.904  29.062  22.519  0.1574  0.1164  0.3825
36347W        W79338  20.492  11.801  25.350  0.2132 -0.0653 -0.0862
36348W        W79339  11.355  15.905   2.292  0.2398  0.0208 -0.1542
36349W        W79340   6.673   7.730  17.638 -0.1947  0.1382 -0.0331
36350W        W79341  30.582  17.278  22.655  0.1630  0.2975  0.1665
36351W        W79342  25.232  18.736  14.798  0.0932 -0.3144 -0.3076
36352W        W79343  23.499  28.014  24.912  0.0158 -0.0925  0.2275
36353W        W79344  29.845  11.885  25.928  0.1314 -0.0876 -0.3071
36354W        W79345  24.082  17.833  23.149  0.0232  0.1404 -0.3965
36355W        W79346  23.288  14.663  17.098 -0.3486  0.0668 -0.3043
36356W        W79347   3.685  33.934   2.500  0.1748  0.1857 -0.0606
36357W        W79348  14.837   3.113   6.840 -0.2522 -0.0308  0.1690
36358W        W79349   3.131   8.738   4.182 -0.1750 -0.0467  0.2170
36359W        W79350  26.780  10.102  22.796 -0.1205 -0.0785 -0.1424
36360W        W79351  26.426  19.284   4.421  0.2451 -0.4017 -0.1072
36361W        W79352  28.697  32.139  16.748  0.0630 -0.2045  0.2199
36362W        W79353   5.095  21.298   5.956  0.1332 -0.0876 -0.0523
36363W        W79354  29.921  27.757  16.819  0.0380  0.0186 -0.0590
36364W        W79355  24.237  14.961  19.975  0.0953 -0.0079  0.0404
36365W        W79356   0.373  31.304  19.695 -0.3661  0.0616 -0.2868
36366W        W79357  29.542  28.435   5.210 -0.0090  0.0248  0.2142
36367W        W79358  20.502  17.068   2.652  0.0080 -0.1003  0.4681
36368W        W79359   0.619  31.787   3.243  0.1953  0.1181 -0.1345
36369W        W79360  27.532   1.202  22.286 -0.2313 -0.2162  0.1021
36370W        W79361  24.804  27.390  22.111 -0.0407  0.0092 -0.4518
36371W        W79362  15.554  11.891  16.443  0.0845 -0.2165 -0.1073
36372W        W79363  16.444  22.371  18.863  0.1964  0.1371  0.1321
36373W        W79364  24.041   7.526  13.980  0.1780  0.0856  0.0241
36374W        W79365  25.791  18.329   5.429  0.1761  0.2387 -0.0862
36375W        W79366  10.695   3.729   2.110 -0.3432 -0.2402  0.3264
36376W        W79367   7.525   1.354   1.533  0.1250 -0.1385 -0.1274
36377W        W79368  16.373   6.649  18.530  0.1394 -0.0973 -0.0603
36378W        W79369  31.992   4.490  24.631  0.1867 -0.1682  0.0650
36379W        W79370  25.545  24.378  21.510  0.1116 -0.1958 -0.1750
36380W        W79371  31.596  13.827  28.017 -0.0360 -0.1051  0.3051
36381W        W79372  22.236  10.115  16.081 -0.0941  0.0619 -0.2314
36382W        W79373  21.811  16.338   3.569 -0.0076  0.0994  0.0563
36383W        W79374  33.502  12.786  19.439  0.1386 -0.0028 -0.3049
36384W        W79375  10.882  24.024  14.437 -0.0847  0.1405 -0.2777
36385W        W79376  30.518  12.492   6.210  0.1160 -0.2577 -0.1001
36386W        W79377  16.061  22.926  28.432 -0.2571  0.1205 -0.2004
36387W        W79378   1.270  13.349  22.208 -0.0235 -0.2169  0.0693
36388W        W79379  28.801   6.416  18.176 -0.1170 -0.1455  0.0011
36389W        W79380   1.674   9.566   0.287  0.0685  0.1179  0.0339
36390W        W79381  30.395  17.733   5.966 -0.0130 -0.1720  0.1780
36391W        W79382  24.032  13.712  28.064  0.0043  0.0619 -0.0212
36392W        W79383  30.908  19.232  28.272 -0.3311 -0.0685  0.1643
36393W        W79384  24.093  24.473  18.330 -0.0837 -0.2383 -0.0649
36394W        W79385  17.638   6.182  18.729  0.2010  0.0546  0.1755
36395W        W79386   3.935  10.558   1.696  0.1759  0.1146  0.1946
36396W        W79387  26.754   4.541  22.659 -0.1656 -0.0211  0.1359
36397W        W79388  25.340  15.420  19.988 -0.2344  0.1017  0.1877
36398W        W79389  23.482  26.723   0.883 -0.3064  0.2040 -0.0713
36399W        W79390  18.375  28.738  26.472 -0.1510  0.2000  0.1664
36400W        W79391  31.811   3.565  26.017  0.1686 -0.1160  0.1975
36401W        W79392  33.915  15.828  27.229  0.3507 -0.1313  0.0634
36402W        W79393  30.954   4.041   8.117 -0.1951  0.2045  0.1069
36403W        W79394  20.364   4.628  21.520 -0.1879 -0.0499  0.2622
36404W        W79395   6.166   7.438  15.528 -0.1595  0.1655  0.2507
36405W        W79396   0.531  32.705  22.837  0.2354  0.2223  0.0972
36406W        W79397  34.355  15.543   7.654 -0.2707 -0.2205 -0.2133
36407W        W79398   6.730  13.253   1.591 -0.0991 -0.1006 -0.2073
36408W        W79399  27.654  12.475  26.762 -0.0178  0.3733 -0.2309
36409W        W79400  13.471  19.772  20.648  0.0230  0.0024  0.0146
36410W        W79401   6.696   8.434   2.741  0.1522 -0.0468  0.2508
36411W        W79402  27.452  18.910  26.145 -0.0495 -0.0344 -0.2748
36412W        W79403  23.756  27.976  19.020 -0.1830 -0.4535  0.2715
36413W        W79404  27.162  10.470  21.167 -0.0292 -0.0223  0.0515
36414W        W79405  16.783   9.706   5.884  0.2016  0.0801 -0.4128
36415W        W79406  32.713   9.382  15.883  0.0530 -0.0574 -0.0974
36416W        W79407  26.279   2.307  24.698  0.1423 -0.0030  0.0597
36417W        W79408  29.270  20.505  23.103 -0.1246 -0.4282 -0.2369
36418W        W79409  34.600  17.455  22.360  0.1884  0.1135 -0.2193
36419W        W79410  32.034   7.095   3.081 -0.3737  0.2305 -0.1876
36420W        W79411   0.441   0.345  22.193 -0.1165  0.0006 -0.1331
36421W        W79412  24.591   8.374  14.898 -0.1112  0.1493 -0.0799
36422W        W79413  31.898   6.913  20.315  0.0083  0.2500 -0.0789
36423W        W79414  29.864  17.037  28.803  0.2581 -0.0325 -0.2600
36424W        W79415  29.752  11.350  25.640  0.0315 -0.0690 -0.2747
36425W        W79416   8.050  22.032  16.752  0.1813 -0.0993 -0.0982
36426W        W79417   6.453  18.671  29.111  0.3173 -0.0327 -0.0049
36427W        W79418  34.593  23.432  17.362  0.0290  0.1798  0.0619
36428W        W79419  21.317   0.156   4.266 -0.2220 -0.3778  0.0674
36429W        W79420   0.186  34.373   2.229  0.0064 -0.0045  0.1963
36430W        W79421  15.867  22.238  14.005  0.2831  0.0296 -0.3095
36431W        W79422  21.328  13.635  18.264 -0.0464  0.1630  0.1900
36432W        W79423  34.196  30.799   3.094  0.1780 -0.0819  0.1567
36433W        W79424  12.452   4.559  20.692 -0.1003  0.0509 -0.2000
36434W        W79425  31.137  11.253  11.361 -0.1036  0.2001  0.1647
36435W        W79426  21.407   6.852  20.397 -0.2762  0.1173  0.0689
36436W        W79427   5.269   6.895   3.571 -0.2503 -0.1507 -0.1182
36437W        W79428  28.302   4.670   0.099 -0.2122 -0.1053  0.0554
36438W        W79429  11.828  33.972  27.591 -0.0605 -0.2216  0.2452
36439W        W79430   2.302   3.991   1.497  0.2570 -0.1034  0.2111
36440W        W79431  23.141  12.100  22.730  0.5077 -0.0245  0.2207
36441W        W79432   6.193   6.960  19.965 -0.0273  0.0961 -0.0485
36442W        W79433  29.849  10.304   6.535 -0.0293  0.0723  0.1569
36443W        W79434  27.120  16.591  19.278  0.0479 -0.1517  0.0001
36444W        W79435   6.176  10.348   2.075 -0.3563 -0.1081  0.0878
36445W        W79436  29.846  10.646   6.929  0.0605 -0.0266  0.2083
36446W        W79437  15.048  13.375   0.002 -0.0302 -0.2118 -0.1224
36447W        W79438   0.621  30.890   4.381  0.0502  0.2801 -0.0106
36448W        W79439  31.685  16.715   8.496 -0.1071  0.2776 -0.1416
36449W        W79440  21.663   5.497  24.865 -0.1678 -0.2987 -0.2213
36450W        W79441   8.002  29.873  16.949 -0.0244 -0.0493  0.0030
36451W        W79442   5.222  19.574   7.825 -0.1192  0.0247  0.1727
36452W        W79443  31.692  17.148   6.984  0.1524  0.0390 -0.2162
36453W        W79444  29.531   4.044   7.953  0.1204 -0.1566 -0.2880
36454W        W79445   3.979  14.153   6.381  0.1706 -0.1097  0.4095
36455W        W79446   0.704  26.806  14.276 -0.3063 -0.2505  0.0671
36456W        W79447  21.883  17.314  17.483 -0.0245 -0.1929  0.1089
36457W        W79448  24.676  15.712   2.887 -0.0785  0.0005  0.2727
36458W        W79449   8.365  27.250  22.457 -0.1177  0.0686  0.2288
36459W        W79450  27.855  19.479  14.266  0.1329 -0.2121 -0.2419
36460W        W79451   1.842  13.800  22.703  0.0673  0.1199  0.1247
36461W        W79452  20.850  20.269  21.361 -0.0799  0.1875 -0.0926
36462W        W79453  27.330  19.564   4.852  0.2828 -0.0002  0.0366
36463W        W79454  29.841  18.860  26.491 -0.0722  0.0672  0.1347
36464W        W79455  22.483  33.677  15.428 -0.0857 -0.2725 -0.2835
36465W        W79456  31.400  31.136  23.617 -0.0189 -0.2725 -0.2324
36466W        W79457  28.196  18.114  28.530 -0.0196  0.0629  0.1478
36467W        W79458   3.815  16.548  11.346  0.0133 -0.0237 -0.0697
36468W        W79459  16.709   9.720  21.323  0.4827  0.0165  0.1538
36469W        W79460  22.004  23.322   6.095 -0.2074  0.0251  0.1574
36470W        W79461  25.883  33.009   8.004  0.1783 -0.0208 -0.0632
36471W        W79462  16.364  25.297   8.499 -0.0049  0.1309  0.5681
36472W        W79463   1.986  34.231  15.104  0.0883 -0.2628 -0.2136
36473W        W79464  12.119  11.577   0.917 -0.3154 -0.0315 -0.2691
36474W        W79465  26.711  14.476   1.127  0.0811  0.3122 -0.2840
36475W        W79466  24.718   0.961  14.499  0.5069  0.1122 -0.2691
36476W        W79467  27.053   0.940   6.407 -0.1111 -0.0169  0.2080
36477W        W79468  33.219   7.820   4.154  0.0827 -0.2030 -0.3585
36478W        W79469  17.185  18.009  28.148 -0.1183  0.3813 -0.0403
36479W        W79470   9.778  11.151   4.295 -0.0605 -0.2613  0.3102
36480W        W79471   4.744  11.132  24.889  0.0297  0.4201 -0.1596
36481W        W79472   1.804  32.966  15.697  0.1106  0.0418 -0.0962
36482W        W79473  27.526  18.566   3.162 -0.0517  0.1365 -0.2063
36483W        W79474  26.277  17.805  16.521 -0.1523  0.1504 -0.2987
36484W        W79475  23.341  16.839   8.200  0.1305 -0.0648  0.1493
36485W        W79476  30.229   5.568  16.588  0.1068 -0.1842  0.0686
36486W        W79477  14.719   5.361   2.356  0.2103  0.1505  0.0917
36487W        W79478   3.954   8.741   6.912  0.0437  0.1469  0.0752
36488W        W79479   7.137   4.717  16.769 -0.0261 -0.1760 -0.2291
36489W        W79480  14.708  14.614   6.893 -0.1067 -0.2972 -0.1176
36490W        W79481  25.105   0.861  27.659 -0.0175 -0.2721  0.3725
36491W        W79482   2.068  15.579   0.178 -0.1726 -0.0336 -0.1425
36492W        W79483   8.531   5.874   6.720 -0.2409 -0.0324 -0.0866
36493W        W79484  10.638   9.629  15.148 -0.1259 -0.2034  0.0982
36494W        W79485  20.804   6.493  27.107  0.0087 -0.2117  0.3285
36495W        W79486  23.305  30.847   9.659 -0.3723 -0.1800 -0.0454
36496W        W79487  23.454   5.130   9.055 -0.3562 -0.1322  0.0339
36497W        W79488  25.886   7.801  21.460  0.1676 -0.1382  0.0977
36498W        W79489   3.327  14.746  20.618 -0.1934  0.0123  0.0371
36499W        W79490   0.873   0.571  28.480 -0.0026  0.1590  0.1020
36500W        W79491  33.864  20.914   7.836 -0.4182 -0.0657  0.1070
36501W        W79492  18.852   6.739   0.761 -0.1482  0.0755  0.1944
36502W        W79493   8.178  17.823  28.523  0.1260 -0.2146  0.0152
36503W        W79494   0.913  14.997  23.571  0.1059 -0.0375 -0.0680
36504W        W79495  30.019   1.249  20.872  0.5482 -0.0823  0.4672
36505W        W79496  28.346  28.993   3.786  0.1442  0.2056 -0.2233
36506W        W79497   8.517  34.752   1.450 -0.1002  0.1012 -0.0990
36507W        W79498  28.976   2.993   3.558  0.0220 -0.0617 -0.1444
36508W        W79499  29.015  11.944  10.385 -0.2505 -0.1959 -0.2061
36509W        W79500  33.383  13.495  26.417 -0.0936 -0.0884  0.1366
36510W        W79501  27.960  12.285   0.097  0.0904  0.0279 -0.2970
36511W        W79502  28.013  23.378  14.372  0.0029 -0.2316  0.0301
36512W        W79503  29.999   6.826   7.567 -0.1835 -0.1317 -0.3041
36513W        W79504   7.195  28.478  25.190 -0.0491  0.0508 -0.2810
36514W        W79505  10.683   8.546   0.158 -0.0044 -0.0506  0.1877
36515W        W79506   4.334  12.012   6.500 -0.3685 -0.0260 -0.1205
36516W        W79507  14.663  16.917  16.711 -0.0882 -0.0430  0.1816
36517W        W79508  23.246  10.034   8.017  0.2720 -0.2992 -0.0004
36518W        W79509  11.103   3.857  27.905  0.2069  0.3146 -0.0281
36519W        W79510  33.924   2.287  25.697  0.0629  0.0555 -0.1000
36520W        W79511  27.754  17.778   5.004 -0.1915  0.1272 -0.2126
36521W        W79512  22.289   1.789   5.853 -0.1442 -0.0399  0.0180
36522W        W79513  22.003  14.939  19.428  0.0338 -0.1229 -0.0009
36523W        W79514  11.979   7.630   0.940  0.0376 -0.0201 -0.3486
36524W        W79515   1.847  28.322  26.921 -0.2169  0.0787 -0.1495
36525W        W79516  31.655  23.710  22.059 -0.1127 -0.0410  0.2497
36526W        W79517  24.296  10.101   3.122 -0.0502 -0.0848  0.1699
36527W        W79518   0.428   0.122  20.687  0.0691  0.2377 -0.0559
36528W        W79519  26.569  19.164  24.994  0.0332 -0.1490  0.0095
36529W        W79520  15.651   4.627   1.577  0.1427 -0.0004  0.1085
36530W        W79521  15.807  15.247   9.357  0.1731 -0.1359  0.0319
36531W        W79522  33.063   7.731  23.537  0.0068  0.0229 -0.0391
36532W        W79523  24.104  10.706  26.338  0.2876 -0.0128  0.0758
36533W        W79524  24.161   6.153   3.076  0.0311 -0.1063  0.1182
36534W        W79525  28.869  11.256   9.235 -0.0389  0.0280 -0.1558
36535W        W79526  30.640  21.976   5.882  0.0851 -0.1864  0.2214
36536W        W79527  24.543  19.413  24.823 -0.0168 -0.2428  0.0603
36537W        W79528  30.080  31.890  25.820  0.4618  0.0810 -0.1802
36538W        W79529  12.414  19.086  21.496  0.1485 -0.0500  0.1360
36539W        W79530  24.388  15.598  13.466 -0.0012  0.2192  0.2455
36540W        W79531   9.782   0.828  10.088 -0.0732  0.0223 -0.0586
36541W        W79532   4.137  10.603   6.927 -0.1504 -0.0486 -0.1760
36542W        W79533  28.751  17.468   2.386  0.1250  0.0235  0.0692
36543W        W79534   0.978  18.810  26.329 -0.0405  0.2364 -0.1830
36544W        W79535  13.796   3.007   1.659  0.1313 -0.2597 -0.0373
36545W        W79536  32.232  29.854  25.719 -0.4703 -0.2170 -0.3026
36546W        W79537  14.837  21.017  14.678  0.0989  0.1770 -0.2454
36547W        W79538  25.464  10.818  21.784  0.0074 -0.0882 -0.2806
36548W        W79539   1.211  20.843   9.639  0.1821 -0.3099 -0.2099
36549W        W79540   6.633  11.615  21.691  0.2759  0.0711 -0.2264
36550W        W79541   7.152  31.667  21.732  0.1601 -0.0594 -0.0349
36551W        W79542  14.698   8.875  18.104 -0.0773 -0.0377  0.0221
36552W        W79543  23.958  32.151  22.984  0.2560 -0.0401 -0.0143
36553W        W79544  27.164  13.271  25.422  0.1611  0.2616  0.1760
36554W        W79545   1.023  19.397  25.480 -0.1170 -0.0124  0.3716
36555W        W79546   0.986  12.256  28.831 -0.0939  0.0989 -0.1775
36556W        W79547  32.074  28.631   0.352  0.0843  0.0905 -0.1012
36557W        W79548  21.446   4.002   8.359  0.4720  0.1020  0.1681
36558W        W79549   3.914   1.739  26.996  0.0077 -0.1895  0.1907
36559W        W79550   6.243  32.109   7.039  0.1723  0.1169  0.1689
36560W        W79551   0.862   6.984   8.369  0.3198 -0.1698 -0.2091
36561W        W79552  20.026  10.552  28.425 -0.1184 -0.2031 -0.0404
36562W        W79553   9.923  33.214  27.421  0.2010 -0.1559  0.0091
36563W        W79554  29.721   0.663   0.144 -0.2402  0.1361  0.1030
36564W        W79555  21.180   4.054  18.047 -0.2633 -0.2446  0.2290
36565W        W79556  29.549  34.340  21.388  0.2935  0.0334  0.0693
36566W        W79557  14.030   2.644  22.468 -0.0730 -0.0142  0.1784
36567W        W79558  27.883  19.058   5.133  0.0338  0.0644  0.3423
36568W        W79559  28.021  10.372  23.201 -0.1505 -0.1979  0.1647
36569W        W79560   4.985  10.264  15.921 -0.1017 -0.2497  0.2154
36570W        W79561  23.582  19.890  17.300  0.1626 -0.0090  0.2493
36571W        W79562  20.983  18.808   5.095  0.2066  0.1817  0.1576
36572W        W79563  26.516  22.202   2.450  0.1548 -0.0422 -0.1100
36573W        W79564  34.784   1.516  19.092 -0.2286  0.1849  0.0340
36574W        W79565  17.879  34.051  13.982  0.1237 -0.1871 -0.4235
36575W        W79566   3.975  17.445   8.624 -0.1278 -0.0292 -0.0824
36576W        W79567  30.634  18.791  18.937  0.3339  0.0116 -0.1848
36577W        W79568  25.889   6.754   1.100  0.0536  0.1284  0.0262
36578W        W79569   0.297   9.289  10.294 -0.2107  0.0697 -0.2530
36579W        W79570  34.496   6.391   6.411  0.0655  0.1773 -0.0847
36580W        W79571  31.493  19.490   8.947  0.3939 -0.1608  0.2040
36581W        W79572  21.812  11.614   7.155  0.0414  0.0392 -0.0136
36582W        W79573   7.366  16.229  21.950  0.1386  0.1873  0.0796
36583W        W79574   4.598  19.736   3.279  0.2270  0.1445  0.1221
36584W        W79575  25.933  12.311  28.777  0.0616 -0.4717  0.3362
36585W        W79576  20.881   9.395  24.092 -0.1143  0.2645 -0.3355
36586W        W79577  28.394  12.581  27.706  0.0414 -0.0446 -0.3202
36587W        W79578  25.219  30.465  15.881 -0.1116  0.0344 -0.0169
36588W        W79579  33.122   1.413   2.686  0.1385  0.0013  0.1325
36589W        W79580  22.076  12.776  28.743  0.0678 -0.0086 -0.0404
36590W        W79581  25.917  11.310   2.791 -0.3297  0.2166 -0.0662
36591W        W79582   4.284  13.817  19.790 -0.1169  0.2165  0.2482
36592W        W79583  32.982  14.876  24.335 -0.0423  0.0416  0.1263
36593W        W79584  18.426  13.164  22.623 -0.0140 -0.0137  0.0329
36594W        W79585  32.447  21.593  24.629 -0.1401  0.1932 -0.2572
36595W        W79586  13.501  15.763  23.499 -0.2584  0.0857  0.2530
36596W        W79587  30.633  12.670  25.051 -0.4395  0.1297  0.2681
36597W        W79588   7.106   6.489   3.135 -0.0790  0.2353  0.4711
36598W        W79589  26.427  19.810   5.438  0.2261  0.0244  0.1128
36599W        W79590  26.226  29.983  23.580  0.1317 -0.0677  0.1396
36600W        W79591  26.011  18.745   0.910 -0.1252  0.2927 -0.1849
36601W        W79592  21.849  23.432  29.205  0.2865  0.0682 -0.1900
36602W        W79593  27.336  26.086  18.896  0.0079 -0.0783 -0.0591
36603W        W79594  31.846  19.577   1.882  0.0997  0.0854  0.0917
36604W        W79595  33.353  10.405  23.100 -0.1312  0.2308  0.1931
36605W        W79596   4.734  11.420  29.262  0.2016  0.2331  0.0655
36606W        W79597  22.284  19.887   0.281  0.1371  0.1392 -0.0430
36607W        W79598  28.157  10.585   1.017 -0.0983 -0.3004 -0.1707
36608W        W79599  33.488  14.523  12.358  0.1446  0.1292  0.1657
36609W        W79600  12.303   6.955  29.022 -0.2243 -0.1807  0.3207
36610W        W79601   8.469  29.261  17.841  0.0667 -0.3706 -0.0127
36611W        W79602   8.355  33.426  22.998 -0.0700 -0.1420  0.1025
36612W        W79603  24.081  34.312  13.025  0.3058 -0.0504 -0.1233
36613W        W79604  23.010  14.049   0.016 -0.1583 -0.1466  0.3899
36614W        W79605  24.490   5.793  29.141  0.1484 -0.1192 -0.0083
36615W        W79606  32.961   8.736   6.124  0.0624  0.0225  0.1416
36616W        W79607  14.122  12.617  17.183 -0.2497 -0.1798  0.1448
36617W        W79608  34.301  21.496   4.506  0.1132  0.2235  0.1066
36618W        W79609  25.246  10.511   6.143 -0.2885 -0.0245 -0.3525
36619W        W79610  22.404   5.103   1.064 -0.0422 -0.1868  0.1643
36620W        W79611   2.463  10.297  22.677 -0.5313  0.0277  0.1380
36621W        W79612  19.849  20.015  23.398  0.0713 -0.0665  0.1294
36622W        W79613   0.005   2.847  21.011 -0.1120  0.0702 -0.2132
36623W        W79614  32.172   6.298   3.537  0.0688 -0.1037 -0.0875
36624W        W79615  32.827  12.247   2.548 -0.0823  0.1693 -0.0171
36625W        W79616  26.419   9.521  23.284 -0.1622  0.1568 -0.3173
36626W        W79617  29.184   5.530   2.337  0.0773  0.1988 -0.1875
36627W        W79618   3.898   1.844  26.396 -0.1742 -0.2201  0.1859
36628W        W79619  13.605  23.572   7.589 -0.2252 -0.2095  0.1533
36629W        W79620  24.873  12.432  28.364  0.1870  0.1974 -0.1946
36630W        W79621   0.166  16.837  21.608 -0.2930  0.0410  0.1364
36631W        W79622   1.188  13.319   5.191  0.0648 -0.2094 -0.1758
36632W        W79623  23.455   4.061  26.841  0.1966  0.1495 -0.0335
36633W        W79624  11.603   6.578  17.884 -0.0347  0.1688 -0.0486
36634W        W79625   2.623   8.845   4.317  0.1705 -0.0995  0.0988
36635W        W79626   8.041  16.450   3.030 -0.1422 -0.2193  0.0390
36636W        W79627   3.656   3.666   7.771  0.0636  0.1754 -0.0055
36637W        W79628  17.958   5.984  23.519 -0.4429 -0.2819  0.1209
36638W        W79629   7.289  15.733  29.015  0.3195  0.0048  0.0309
36639W        W79630   2.577  22.639  15.241  0.3093  0.0741  0.2697
36640W        W79631  17.845  17.968   8.706  0.0443  0.3642  0.0093
36641W        W79632  24.525   6.493   6.979  0.3049 -0.1277 -0.3933
36642W        W79633   6.527   4.043  24.915  0.0495  0.1255 -0.0675
36643W        W79634   1.937   8.096   0.165 -0.0804 -0.4500  0.0704
36644W        W79635  29.280  10.277   5.692 -0.0704  0.2726 -0.0130
36645W        W79636  27.223  19.397  18.294 -0.1270 -0.4251  0.1940
36646W        W79637   7.758  13.247   0.618 -0.1204 -0.0715  0.1270
36647W        W79638  30.584  22.346   3.964 -0.0982  0.0049  0.0409
36648W        W79639  23.534  33.276  28.002 -0.2072  0.1399 -0.0978
36649W        W79640  33.008   0.110  25.467 -0.0928  0.0108 -0.0658
36650W        W79641  20.646  21.481   7.782  0.1995 -0.1656 -0.0388
36651W        W79642  16.062   0.178  17.670  0.1022 -0.0643  0.0261
36652W        W79643  33.797  11.773   4.414 -0.1822 -0.2486 -0.2920
36653W        W79644   8.087  10.201   1.325 -0.1495 -0.0807  0.2450
36654W        W79645   8.176  20.122  10.042 -0.0739  0.0323 -0.1532
36655W        W79646  31.927   9.729  21.984  0.1194 -0.1838 -0.3406
36656W        W79647  34.084  12.170   3.924  0.0571 -0.0915 -0.1971
36657W        W79648  30.933   4.068   6.109  0.1133 -0.2194 -0.3421
36658W        W79649  29.076   3.082  27.074  0.4127 -0.1117  0.0832
36659W        W79650  21.830   7.300  14.940  0.1747  0.0870  0.1442
36660W        W79651  33.200  25.665  24.404 -0.2533  0.0059 -0.1509
36661W        W79652  33.574  14.500  26.304  0.1483 -0.1544  0.0546
36662W        W79653  34.417  29.914  22.069 -0.0373 -0.0339  0.0146
36663W        W79654   1.249  11.701  28.072 -0.0585 -0.0148 -0.3228
36664W        W79655  17.148  14.875  24.796  0.1056  0.0785 -0.1887
36665W        W79656  21.919  23.273   1.749  0.0738  0.0078  0.3420
36666W        W79657  14.553  17.165  28.564 -0.1569  0.0292 -0.3796
36667W        W79658  12.415   5.837  24.430  0.0554 -0.2929  0.1991
36668W        W79659  27.036   7.265   8.858  0.3391 -0.3188  0.0369
36669W        W79660  15.105  10.531  25.433 -0.0753  0.2625 -0.1409
36670W        W79661  32.845  31.533   5.970 -0.0822  0.1290 -0.0345
36671W        W79662  30.488   8.392  20.207 -0.2262  0.0185  0.0270
36672W        W79663   6.071  14.863  18.076 -0.1840  0.0956 -0.0587
36673W        W79664   0.463  29.281  23.321 -0.1517  0.1853  0.2017
36674W        W79665   3.086   5.887  25.658  0.0231 -0.1296 -0.3977
36675W        W79666  28.027  28.780  18.081 -0.0017  0.1509 -0.1578
36676W        W79667  23.754  13.540  19.328 -0.0014  0.3708  0.2017
36677W        W79668  22.580  29.975  26.400  0.0013  0.0097 -0.1151
36678W        W79669   8.923   8.233  27.829  0.0893  0.3655 -0.0148
36679W        W79670  31.101  11.869   9.590  0.1534 -0.1011 -0.0915
36680W        W79671  24.355  23.543  24.212 -0.0698  0.0918 -0.1541
36681W        W79672  24.341  18.944  24.942  0.0239  0.0783 -0.0993
36682W        W79673  25.691  10.555   7.620 -0.0841 -0.1016  0.2260
36683W        W79674   8.953  19.331  14.547 -0.2375  0.0019  0.0896
36684W        W79675  22.336   2.303  14.457  0.1022  0.0095 -0.1573
36685W        W79676  15.109   3.386  28.905 -0.2264 -0.0059 -0.3272
36686W        W79677  13.615  33.122  25.983  0.0966  0.0268  0.1146
36687W        W79678  14.438   6.686   4.777 -0.1840 -0.0261 -0.1183
36688W        W79679  31.089  15.338   7.520 -0.0490 -0.1202 -0.0855
36689W        W79680  28.732  11.311  19.403 -0.1773 -0.1083  0.1520
36690W        W79681   6.312  25.684  20.379 -0.0644 -0.0971  0.1407
36691W        W79682  19.312   6.161  19.062  0.0266  0.0221  0.0665
36692W        W79683  32.267  23.113   3.500 -0.1563  0.2883 -0.0248
36693W        W79684  31.582  15.167  22.340 -0.0574  0.0734 -0.0240
36694W        W79685  22.252  12.445  22.502  0.0898 -0.1136  0.1428
36695W        W79686  28.311  23.567  17.374  0.3461  0.2576 -0.1759
36696W        W79687  33.497  30.334  26.659 -0.1378  0.0625 -0.0852
36697W        W79688   3.391  26.900  19.042  0.2236  0.1520 -0.2160
36698W        W79689   3.591   6.583   3.580 -0.2353  0.0095 -0.0387
36699W        W79690  17.026   7.073   7.108  0.0897  0.0490  0.1603
36700W        W79691  18.009  23.581  16.997 -0.1472  0.2543  0.0653
36701W        W79692  28.738   7.232  27.007  0.1677  0.3142 -0.0070
36702W        W79693  19.955  16.048  25.072  0.2246 -0.1043  0.2827
36703W        W79694  22.259  16.595  18.639  0.0887  0.0517 -0.0256
36704W        W79695  26.485   3.219  20.217  0.2218 -0.2602 -0.1963
36705W        W79696  31.369  13.694  10.689 -0.0122  0.1133 -0.0314
36706W        W79697  25.839  14.325  14.344  0.0261 -0.0526  0.2374
36707W        W79698  11.321  10.309  19.047 -0.1509  0.0709 -0.0438
36708W        W79699   1.617  14.849  26.936  0.1505 -0.0676 -0.1389
36709W        W79700  22.168  16.152   8.019  0.1982 -0.1059  0.0963
36710W        W79701   2.613  34.563  21.238  0.1547 -0.2394  0.2441
36711W        W79702  33.161  10.839  23.259 -0.0404  0.1650 -0.0462
36712W        W79703  29.395   8.583   3.714  0.1908  0.1149  0.0852
36713W        W79704  23.287  12.354   3.225 -0.2034  0.1663  0.0173
36714W        W79705  26.222  13.269  27.775  0.2083  0.1023 -0.0108
36715W        W79706  21.779   4.722   3.673 -0.0217  0.0612  0.1251
36716W        W79707  33.115  24.221  25.098  0.2085  0.0065  0.1381
36717W        W79708  30.119  20.941  21.583  0.0257  0.0167  0.1020
36718W        W79709  34.274   0.618  22.386  0.0093  0.1927 -0.1171
36719W        W79710  30.798  13.835  16.776 -0.1169  0.0073  0.0085
36720W        W79711   7.424   9.591   2.487  0.0104 -0.4452 -0.1162
36721W        W79712  12.065  11.567  21.604 -0.1058  0.1061  0.2376
36722W        W79713  13.116   9.656   1.411  0.0864 -0.0283  0.3116
36723W        W79714  21.796  19.135  19.592  0.1216 -0.4350  0.1155
36724W        W79715  33.537  20.768  14.127 -0.1097 -0.1731 -0.3130
36725W        W79716  34.478  28.391  20.233 -0.1424 -0.0749 -0.0012
36726W        W79717  15.493  19.545  27.416  0.0794  0.1513 -0.3233
36727W        W79718  26.297   7.772   2.134  0.3810  0.0047  0.0576
36728W        W79719   0.483   9.771   2.110 -0.0213 -0.0221  0.2873
36729W        W79720  29.133  19.131  22.761 -0.0324 -0.0015  0.1925
36730W        W79721  21.485   6.399  23.896 -0.2861 -0.2027  0.1053
36731W        W79722  12.348  28.992   7.153  0.1480 -0.1477 -0.2324
36732W        W79723  33.880   4.214   2.149  0.2917  0.1103  0.0194
36733W        W79724  25.928  21.721  17.821  0.2874 -0.2956 -0.0572
36734W        W79725  27.242  20.061   6.137  0.0908  0.1474  0.1009
36735W        W79726  29.703  18.310  17.713 -0.0798  0.0297 -0.3638
36736W        W79727  32.999  28.819  22.985  0.2377  0.3110  0.1985
36737W        W79728   3.735   4.444  23.011 -0.2141  0.1446 -0.4028
36738W        W79729   6.657   9.319   2.136  0.4234 -0.3292 -0.0705
36739W        W79730   1.239   3.228  22.958  0.2049 -0.2333  0.2971
36740W        W79731  14.270  29.111  21.536  0.0421  0.1164  0.0700
36741W        W79732  15.160  21.475   8.505 -0.1416  0.0122  0.3312
36742W        W79733  19.875   3.615  24.476  0.0014  0.0987  0.0378
36743W        W79734  19.484   3.641  27.704  0.1923 -0.0989  0.2500
36744W        W79735   7.738  21.628  23.795  0.2404 -0.2315 -0.0031
36745W        W79736   3.932  16.998   8.460 -0.3049 -0.0158  0.3353
36746W        W79737   0.252  21.966  26.548  0.1613 -0.2027  0.2101
36747W        W79738  11.120   3.590  21.335 -0.1932  0.1051  0.0543
36748W        W79739  14.614  21.648  14.457  0.0816 -0.0308  0.3451
36749W        W79740  27.276   6.906   3.175 -0.1867 -0.0037 -0.2351
36750W        W79741  23.500  17.162  27.894  0.0398  0.1427 -0.1038
36751W        W79742  25.944  14.846  15.325  0.1239 -0.0938 -0.0088
36752W        W79743  17.106  12.522  17.035 -0.0424  0.1992 -0.3783
36753W        W79744  16.136  20.290  28.253  0.0651  0.1555  0.2195
36754W        W79745  20.632  22.635  29.018 -0.0049  0.0796  0.0928
36755W        W79746  17.411  34.038  14.139 -0.2520 -0.2086 -0.1977
36756W        W79747   1.016  17.214   9.501  0.2443 -0.0222 -0.0244
36757W        W79748  10.358   7.235  24.670 -0.2190  0.0138 -0.1916
36758W        W79749   8.043   9.610   3.592 -0.1258 -0.1147  0.1420
36759W        W79750   0.292  33.817   3.172  0.2524  0.0345 -0.2121
36760W        W79751  26.387   7.458   4.074  0.0167 -0.1434  0.0825
36761W        W79752  13.449   9.989  22.090 -0.1317 -0.2863 -0.0096
36762W        W79753  15.227  29.632  14.409  0.0055  0.1364  0.0627
36763W        W79754  22.062   8.690  28.621  0.4584  0.0100  0.2057
36764W        W79755   3.736  29.056   2.340  0.2131 -0.0660  0.5897
36765W        W79756  14.856   9.132   1.798  0.1755  0.0059  0.1970
36766W        W79757  24.016  16.995  24.396  0.3078 -0.1160 -0.1091
36767W        W79758  27.924  28.323   2.800 -0.0838  0.2267 -0.1534
36768W        W79759   8.266  17.067  24.962 -0.3869  0.2216 -0.1968
36769W        W79760  32.238   8.854  24.089  0.0517 -0.3402 -0.2807
36770W        W79761  23.954  10.438  28.819  0.0228 -0.1041 -0.1591
36771W        W79762  24.977  14.593   0.593  0.0207  0.3219 -0.1007
36772W        W79763  25.179   1.025   0.403 -0.2252  0.1357 -0.1766
36773W        W79764  33.740   7.382   6.666 -0.0531  0.0363  0.3160
36774W        W79765   2.302   0.903   9.850  0.1345 -0.2962  0.2985
36775W        W79766   1.502  16.773   0.595  0.1138  0.0243  0.0891
36776W        W79767  20.312  15.056  25.216 -0.1373  0.1288  0.0757
36777W        W79768  20.980  25.105  25.130 -0.1992 -0.1633  0.2191
36778W        W79769   6.407  10.392  18.060 -0.1300  0.1153 -0.2273
36779W        W79770  34.008   9.156   6.880  0.0278 -0.0796  0.0371
36780W        W79771  31.102  15.407  16.270  0.2685  0.1795 -0.0980
36781W        W79772   2.586  18.952   7.373  0.1903  0.2410  0.1546
36782W        W79773  28.148  15.095   9.934 -0.0445 -0.2716  0.2604
36783W        W79774   2.039  12.573  25.316  0.1281  0.0749  0.1176
36784W        W79775  31.203   8.984  28.639  0.1015  0.1924 -0.0918
36785W        W79776   5.131   2.330   1.572 -0.0140 -0.1177  0.0704
36786W        W79777   2.490  16.966   6.542  0.0998 -0.1472  0.1752
36787W        W79778   3.025   0.879  27.921 -0.2172  0.0133 -0.0783
36788W        W79779  34.736   3.378  21.992 -0.1921  0.0974  0.0239
36789W        W79780  31.745  12.752  21.987  0.0044 -0.0009  0.1250
36790W        W79781  22.909  15.405  26.819 -0.1554 -0.1651  0.0332
36791W        W79782   5.116  15.341  22.205 -0.1378 -0.0517  0.0629
36792W        W79783   2.494  11.436  28.708 -0.2802 -0.1379 -0.1459
36793W        W79784  15.035   3.824  24.990  0.0251  0.1243 -0.1792
36794W        W79785  12.858  11.420  24.795 -0.0198 -0.2516  0.0350
36795W        W79786  25.157   5.868   2.772  0.2006 -0.1163  0.1929
36796W        W79787  11.735   9.956   3.522 -0.0618  0.2140  0.0400
36797W        W79788  34.495  32.990   2.148 -0.2848 -0.0018 -0.0384
36798W        W79789  24.345  21.713  24.842 -0.0721  0.4317 -0.0535
36799W        W79790  22.041  26.731   7.128 -0.2508  0.1134 -0.1267
36800W        W79791  28.023  20.326  17.544 -0.4787  0.0675  0.0986
36801W        W79792  13.818  11.622  27.360  0.0034 -0.2510 -0.0049
36802W        W79793  34.659  31.665   3.869  0.0641  0.0016  0.0639
36803W        W79794  14.649  11.367  28.330  0.0897 -0.3275  0.0327
36804W        W79795  22.006  18.878  28.030 -0.0044 -0.3443  0.2071
36805W        W79796  14.354   4.169   4.883  0.1017 -0.0549  0.2273
36806W        W79797  32.784  27.662  26.210  0.0737 -0.3354  0.1251
36807W        W79798  17.201  20.404  27.400  0.1762  0.0392 -0.2293
36808W        W79799  31.167   5.868  18.095  0.0818 -0.3008  0.2687
36809W        W79800   2.542   6.871  25.081 -0.0220 -0.2088 -0.0770
36810W        W79801  29.413  10.893  17.696 -0.1521 -0.1520 -0.1143
36811W        W79802   0.597  22.174   9.979 -0.2605  0.0928 -0.1104
36812W        W79803   7.649  10.419  23.356 -0.1488  0.1101  0.0951
36813W        W79804  30.517   9.983   6.991  0.3752  0.3528 -0.0370
36814W        W79805  27.289  26.497   8.694 -0.0773 -0.4045  0.1558
36815W        W79806  22.886   2.479   5.457  0.0962  0.3747 -0.1063
36816W        W79807   9.291   7.499   3.243  0.0181  0.1358 -0.0746
36817W        W79808  30.469  15.494  25.659 -0.4294 -0.0341  0.3181
36818W        W79809  21.658  13.164   1.994 -0.0894  0.1738  0.0069
36819W        W79810   7.615  21.393  24.667 -0.2799  0.1613 -0.0027
36820W        W79811  33.406  17.173   5.627  0.3222  0.4611  0.2031
36821W        W79812   6.642   3.090   8.605  0.0272 -0.7959  0.0829
36822W        W79813  24.172   6.244  19.151 -0.0581 -0.0434  0.2347
36823W        W79814  30.958   2.553   3.156  0.1516 -0.1637  0.1469
36824W        W79815  33.761  13.192  22.247  0.1227  0.0686  0.1055
36825W        W79816  28.859   9.546  24.200  0.1378 -0.0897 -0.3472
36826W        W79817   0.550   1.218   4.988 -0.2138  0.5212  0.1274
36827W        W79818  30.100  10.920  10.178 -0.0375 -0.1499 -0.2091
36828W        W79819  26.217  15.856   6.287  0.0250  0.0359  0.2555
36829W        W79820  24.852  33.938   5.053  0.1529  0.3018 -0.1779
36830W        W79821  13.670  27.263  23.423 -0.0748 -0.0331 -0.2749
36831W        W79822  16.668  15.106  22.686 -0.0681 -0.0479 -0.1333
36832W        W79823  22.412  27.774   3.583 -0.1540  0.3224 -0.1795
36833W        W79824  24.494  23.976   5.387  0.1832  0.0217 -0.2637
36834W        W79825  34.271   7.453  21.254 -0.0076  0.1024  0.3140
36835W        W79826   9.121  11.753   3.340  0.0756 -0.0292  0.1876
36836W        W79827   5.728   2.761  17.750 -0.0898  0.0576 -0.1142
36837W        W79828  29.814  24.293   6.010  0.0961 -0.1358  0.0017
36838W        W79829   1.380  17.432   3.122 -0.3381  0.1491 -0.0661
36839W        W79830   3.421  30.558  23.264  0.4307  0.2432 -0.1342
36840W        W79831   1.590   1.919   9.639  0.0760 -0.0562  0.3340
36841W        W79832   3.817  26.852   6.479  0.0578  0.2076 -0.2691
36842W        W79833   8.075   4.286  21.567  0.1686 -0.2725  0.0422
36843W        W79834  22.607   8.906   6.926 -0.1155 -0.1501 -0.2618
36844W        W79835   0.424  12.866   9.275 -0.3100 -0.1000  0.0879
36845W        W79836  27.480  18.306   2.308  0.1827  0.0977  0.1440
36846W        W79837   3.866  16.432  18.455 -0.1487  0.1080  0.0702
36847W        W79838  23.677  15.834   2.315 -0.2810  0.3161  0.1071
36848W        W79839  34.280  23.803  22.363  0.3250 -0.0648  0.4938
36849W        W79840  26.956   6.183  19.514  0.1997  0.3697  0.0789
36850W        W79841   9.910   8.505  29.185  0.0539  0.1723  0.1409
36851W        W79842  19.562  30.743   8.152 -0.3448 -0.3988  0.2596
36852W        W79843  19.205   8.367  20.970 -0.1435 -0.3804 -0.2603
36853W        W79844  22.068   8.967  19.016 -0.0244  0.5138 -0.1681
36854W        W79845  31.956   8.170  19.757 -0.3256  0.2095 -0.0721
36855W        W79846  23.095  24.270  27.421  0.2132 -0.2450  0.0498
36856W        W79847  32.087   7.515  27.774 -0.1611  0.2157 -0.0782
36857W        W79848   1.707   5.495   8.661 -0.2218 -0.1836  0.0385
36858W        W79849   9.964  14.631   5.139  0.0519 -0.4561 -0.0799
36859W        W79850   5.753   5.135  18.912  0.1298  0.0406  0.0460
36860W        W79851  32.138  16.146  17.773 -0.3094  0.2111  0.1522
36861W        W79852  27.585  18.467  15.785  0.0402  0.3559 -0.3064
36862W        W79853  29.125   3.475  15.243 -0.2557  0.1245 -0.0080
36863W        W79854  22.967  31.187   6.655  0.1652 -0.1384 -0.0355
36864W        W79855  32.352  13.496   7.517  0.1008  0.0720  0.1478
36865W        W79856  27.792   6.641  18.496  0.1978 -0.0642  0.1614
36866W        W79857   7.345   3.254   4.329 -0.0407  0.0876  0.0111
36867W        W79858   0.906  16.862  16.757 -0.0761 -0.1021  0.2693
36868W        W79859  29.840  31.435   8.440 -0.4376 -0.1239  0.2267
36869W        W79860  28.292  10.040  22.355  0.1855  0.2632 -0.2299
36870W        W79861  19.209  17.091   1.829 -0.0743 -0.2954 -0.1395
36871W        W79862   9.657  24.438  19.974 -0.0353  0.0946  0.1651
36872W        W79863  29.404   5.806   0.965 -0.4444 -0.1906 -0.0345
36873W        W79864   3.583  19.513   2.111 -0.3552 -0.2541  0.0096
36874W        W79865  32.281  34.018   5.293  0.2014  0.1268 -0.3084
36875W        W79866  15.397  14.266  25.058 -0.0343 -0.0504  0.0937
36876W        W79867  19.573   9.884  26.995 -0.1291 -0.1233 -0.4185
36877W        W79868   0.524   9.774   0.149 -0.0931  0.0542  0.1203
36878W        W79869   0.892  17.573   3.710  0.0368  0.0320 -0.1676
36879W        W79870  26.212  20.284   9.478  0.1579 -0.1015 -0.1364
36880W        W79871   0.463  19.645  10.947 -0.1968  0.0791  0.0589
36881W        W79872  11.194   8.331  28.249 -0.0223 -0.4070  0.2221
36882W        W79873  17.078  22.293   8.139  0.1393 -0.0875 -0.1383
36883W        W79874  12.046  13.323   8.214 -0.0989 -0.1183 -0.0214
36884W        W79875  32.859  15.733   4.863  0.1648  0.0567  0.1006
36885W        W79876  19.974  14.606   9.102 -0.2253 -0.0100  0.1015
36886W        W79877  26.899  17.114   3.013  0.0438  0.1594  0.0312
36887W        W79878  28.774   6.241  20.518  0.3288 -0.0096 -0.2802
36888W        W79879  20.694  12.859   2.501  0.1558 -0.2671 -0.4306
36889W        W79880  32.656  23.638  25.459  0.2001 -0.0392  0.2125
36890W        W79881   6.638  29.878  19.826  0.2469  0.2848  0.2070
36891W        W79882  19.004  22.053  17.763  0.2306 -0.0277  0.1030
36892W        W79883   3.098   2.662  15.107  0.3663  0.2775 -0.1396
36893W        W79884  33.033  12.160  19.783 -0.1221 -0.1424 -0.1760
36894W        W79885   0.948  20.107  23.366 -0.0674 -0.1819 -0.1660
36895W        W79886  29.738  10.192   0.616  0.1167 -0.2026 -0.2054
36896W        W79887   2.772  16.575  22.257  0.0274  0.1916  0.2671
36897W        W79888  28.442  26.273  13.271 -0.0657  0.3747  0.3408
36898W        W79889  31.998  23.978  26.607  0.0311 -0.1812  0.1240
36899W        W79890  24.047  25.719  20.425 -0.0296  0.0109 -0.2432
36900W        W79891  27.270  15.029  25.167 -0.2068 -0.0661  0.0402
36901W        W79892  31.288  34.202  20.158  0.1462  0.0325  0.2014
36902W        W79893  28.739  12.760  15.678 -0.2230  0.0598  0.0511
36903W        W79894   8.859  10.506  16.677 -0.0656  0.0782 -0.3473
36904W        W79895  11.852  23.757  16.071 -0.1081  0.0218  0.3095
36905W        W79896  34.652  23.103  29.161  0.0142  0.0562  0.0241
36906W        W79897  19.403   6.492  15.243 -0.1582  0.2732 -0.1423
36907W        W79898  22.315  20.809  17.106 -0.0214 -0.0105 -0.2469
36908W        W79899  32.119  22.836  22.635 -0.2266 -0.1481 -0.5102
36909W        W79900  24.149  22.431  15.594  0.1173  0.3549 -0.0254
36910W        W79901  23.670  20.491  17.735  0.1290  0.0016  0.0728
36911W        W79902  30.054   3.146  18.229  0.4906 -0.4295 -0.1199
36912W        W79903  30.002  21.191  22.073 -0.1826  0.0427  0.0945
36913W        W79904  28.305  13.365  22.910 -0.0463  0.0938 -0.1270
36914W        W79905  33.138   8.961  22.382 -0.1614  0.1103 -0.0078
36915W        W79906  20.874  18.606  14.534 -0.3153  0.1135  0.1829
36916W        W79907  32.168  14.613  24.310 -0.1349  0.3970  0.1238
36917W        W79908   1.146  16.264  16.902  0.0526 -0.3071 -0.1055
36918W        W79909  21.287  19.896  15.956  0.0332  0.1885 -0.1637
36919W        W79910   1.864   4.770  22.499 -0.1284  0.1091  0.1425
36920W        W79911  28.462  30.646  24.797 -0.2589  0.0057  0.1099
36921W        W79912  19.586   9.657  15.809  0.0151 -0.0384 -0.1119
36922W        W79913  29.934  28.522  24.017 -0.0564  0.0018  0.3594
36923W        W79914  23.558  12.900  15.676 -0.1476 -0.0351 -0.0748
36924W        W79915   0.207  27.503   0.455 -0.0462  0.0073  0.1449
36925W        W79916  21.233  27.698  15.175  0.4238  0.1572  0.0934
36926W        W79917  32.039  28.761  26.329 -0.0099  0.0722  0.1741
36927W        W79918  28.721  13.517  21.307  0.0308  0.1231 -0.1402
36928W        W79919  27.268   8.916   2.385 -0.0608  0.0711  0.1773
36929W        W79920   8.153   9.332  16.008 -0.1313 -0.0698 -0.0252
36930W        W79921   0.763   6.266  23.501  0.1124  0.2797  0.0082
36931W        W79922  27.521  25.711  14.107 -0.2306  0.0988  0.1999
36932W        W79923  31.862  21.841  17.207  0.1631  0.0970 -0.0310
36933W        W79924  26.793  25.061  24.383  0.0557  0.0871  0.0086
36934W        W79925  21.594  18.340  16.198 -0.0288 -0.0597 -0.2033
36935W        W79926  29.969   6.974  15.177  0.2003 -0.1500 -0.0637
36936W        W79927  28.112  12.571  23.756  0.0989  0.3520  0.0999
36937W        W79928  23.756  32.599   4.374  0.1930  0.0275 -0.1479
36938W        W79929  10.240  19.320  14.374  0.1479 -0.0338  0.0103
36939W        W79930   0.182  18.441  18.077 -0.1639 -0.0454  0.0089
36940W        W79931  34.093  23.259  24.011  0.1199 -0.0959  0.0797
36941W        W79932  31.722  19.424  28.047  0.1623  0.1811 -0.0632
36942W        W79933   1.136  14.949  24.066  0.3473  0.1325 -0.0736
36943W        W79934  27.992  24.480  17.211  0.4027 -0.2264 -0.0725
36944W        W79935   2.614  13.337  20.787  0.4106 -0.3158 -0.0311
36945W        W79936   8.954  13.773  19.784 -0.0208 -0.0577  0.0470
36946W        W79937   2.574  23.873  26.737 -0.1081  0.1232 -0.3119
36947W        W79938  24.348  28.634  14.196 -0.1164 -0.0608 -0.1442
36948W        W79939  32.939   5.340  20.638  0.3470 -0.0433 -0.0232
36949W        W79940  13.462  24.366  24.122 -0.2169 -0.5089 -0.1544
36950W        W79941  24.758  13.482  21.210 -0.3104  0.0023  0.1665
36951W        W79942  20.121  10.838  26.041 -0.0042  0.2390  0.1006
36952W        W79943   3.112  20.320   6.900 -0.0658 -0.4810 -0.1789
36953W        W79944  26.578   6.185  21.940  0.3299  0.1582  0.1161
36954W        W79945  10.782  30.283  18.367 -0.1475 -0.0406 -0.5794
36955W        W79946  12.082  27.801   1.219  0.2118 -0.1742  0.0962
36956W        W79947  11.959   8.110   2.814 -0.1978 -0.2617  0.2822
36957W        W79948  28.118   9.513  15.486  0.1223 -0.2230 -0.0687
36958W        W79949  29.288  12.536  26.030 -0.2427 -0.1405 -0.2481
36959W        W79950   1.558  11.121  22.036  0.3086  0.3625  0.1080
36960W        W79951   4.379  22.891  15.623 -0.2205 -0.0477  0.0411
36961W        W79952   2.297  16.447  19.485 -0.0027 -0.0683  0.2115
36962W        W79953  32.813  22.245  23.809  0.1174  0.1058 -0.2173
36963W        W79954  33.821   7.793  18.781 -0.3015 -0.2337  0.2177
36964W        W79955  33.416  12.258  23.167  0.1349 -0.1249 -0.1060
36965W        W79956   2.961  17.020  20.983 -0.2350  0.1825  0.1327
36966W        W79957  29.062  33.097   3.683 -0.1415  0.1366 -0.0771
36967W        W79958   4.972  19.095  23.289  0.0784  0.1057  0.0191
36968W        W79959   0.467  15.285  26.728  0.2440  0.1850 -0.1532
36969W        W79960  23.017  12.336   2.652 -0.0994  0.0558 -0.0992
36970W        W79961  34.666  30.170  26.433  0.1885 -0.0246  0.0688
36971W        W79962  22.109  32.816  14.375  0.0424  0.0862  0.2942
36972W        W79963  15.008  20.188  16.127  0.1209 -0.2526  0.0533
36973W        W79964  30.232  13.471  16.553  0.1082 -0.1591 -0.0927
36974W        W79965  20.438  13.841  26.881  0.0227 -0.1404 -0.0081
36975W        W79966   1.111  27.948  15.039 -0.0040 -0.2046 -0.2109
36976W        W79967  28.873  25.528  23.180  0.1909  0.1348 -0.2560
36977W        W79968  24.778   8.324  20.583 -0.0320  0.3143  0.0925
36978W        W79969  13.105  20.324  14.578  0.1515  0.1757  0.1005
36979W        W79970  32.626  30.097   1.081  0.1918 -0.0363 -0.0835
36980W        W79971  15.694  16.640  26.187 -0.5279  0.1715  0.1713
36981W        W79972  28.350  10.048  15.000  0.0562 -0.1534 -0.3361
36982W        W79973  30.843  33.121  19.012 -0.2840  0.3099  0.0329
36983W        W79974  26.260  23.921  21.688  0.0140 -0.3241  0.0469
36984W        W79975   2.989  13.985  25.675  0.0068 -0.1812  0.3035
36985W        W79976   4.353  17.906  22.046  0.0424 -0.0412 -0.3022
36986W        W79977  17.497  29.660  15.727  0.0493  0.3318 -0.1313
36987W        W79978  11.836  29.127  15.392  0.0187  0.1429 -0.0291
36988W        W79979   9.554  14.428  28.231 -0.2247  0.1683 -0.0787
36989W        W79980  20.275  21.587  21.376  0.0859  0.5405 -0.0031
36990W        W79981   0.045  28.671  24.647 -0.0977 -0.1157  0.2183
36991W        W79982  34.460  22.186  17.992  0.0057 -0.2178 -0.1460
36992W        W79983  32.345  24.343  28.638  0.0179  0.3017 -0.2444
36993W        W79984  25.739  11.531  21.016 -0.1206  0.0158  0.0778
36994W        W79985  26.587  25.510   0.551 -0.0550 -0.1756 -0.3374
36995W        W79986   0.248  11.163   0.092 -0.4293  0.0796 -0.4734
36996W        W79987  31.772  10.835  15.552  0.3092  0.0248  0.0484
36997W        W79988   1.896  28.440  21.527 -0.1553 -0.3958 -0.0902
36998W        W79989   0.636  16.045  17.479  0.0695 -0.0541 -0.0683
36999W        W79990  29.685  25.738  20.374 -0.0676 -0.0164  0.1574
37000W        W79991   5.269  28.027  21.124  0.1372  0.0210 -0.2448
37001W        W79992  34.021   5.199  15.483  0.0953  0.3470  0.1735
37002W        W79993  26.565  29.199  15.777 -0.2236  0.2438 -0.1843
37003W        W79994  11.053  26.858  20.746  0.2288 -0.0427  0.2662
37004W        W79995   2.689  12.390  19.926 -0.1963 -0.1788 -0.0220
37005W        W79996   0.998  23.272  18.139 -0.1050  0.1091 -0.1095
37006W        W79997  30.979  10.991  15.303 -0.1479  0.1207  0.0727
37007W        W79998  28.891  15.871  15.995 -0.0064 -0.0831 -0.0173
37008W        W79999   0.768  23.046  21.205 -0.1153 -0.0725 -0.0195
37009W        W80000  28.092  14.623  16.103  0.0445 -0.3047 -0.3476
37010W        W80001  21.361  20.013  16.482 -0.0527 -0.3412  0.0279
37011W        W80002   2.191  24.362  22.449 -0.0005 -0.3416  0.2725
37012W        W80003  21.729  25.090  16.744 -0.1423 -0.1761 -0.0605
37013W        W80004  34.740  16.856  20.297  0.1092  0.0638  0.0578
37014W        W80005   7.175   8.461  26.251 -0.3298  0.1431 -0.0535
37015W        W80006  33.828  27.714  23.698  0.1353 -0.0056 -0.0699
37016W        W80007   0.551   5.146  17.398 -0.1461  0.2196  0.0878
37017W        W80008   4.858   6.113  15.608  0.2675 -0.0000 -0.0378
37018W        W80009   1.080   0.033  16.495 -0.3822  0.0646  0.3411
37019W        W80010   6.520  10.667  16.319  0.1841 -0.1825 -0.1925
37020W        W80011  23.195  14.772  19.499 -0.0294 -0.2125  0.1818
37021W        W80012  29.819  15.608  23.771 -0.1721 -0.0621  0.2856
37022W        W80013  22.516   4.986  26.894 -0.2115  0.2640  0.3407
37023W        W80014   5.030  18.580  23.209  0.0649  0.0628 -0.0019
37024W        W80015  22.163   7.712  17.383 -0.0104  0.1545  0.1818
37025W        W80016  32.228   2.047  16.081  0.2599  0.0215 -0.0656
37026W        W80017  25.328  23.172  14.005 -0.2610 -0.2719 -0.0192
37027W        W80018  28.674   8.779  14.083  0.1099  0.0687  0.0372
37028W        W80019   2.929  16.379  25.374  0.0109 -0.1192 -0.1955
37029W        W80020  31.823  13.792  18.321 -0.1878  0.2556 -0.0225
37030W        W80021  24.080   2.440  20.630 -0.2722  0.0165 -0.0818
37031W        W80022  27.442   3.812  19.443 -0.2036 -0.1035  0.1304
37032W        W80023  30.163  31.854  22.331 -0.1456 -0.0440 -0.2632
37033W        W80024   0.565  21.814  16.330  0.1045 -0.1711  0.0028
37034W        W80025  30.135   8.434   4.226  0.0119 -0.0924  0.2427
37035W        W80026   7.005  14.213  26.005  0.0588  0.0961  0.1178
37036W        W80027  11.385  20.074  18.518 -0.3055  0.1183 -0.0064
37037W        W80028  17.511   8.548  14.540 -0.2628 -0.1583  0.0494
37038W        W80029  10.922  12.692  18.728  0.0627  0.0300  0.0571
37039W        W80030  18.588  11.456  20.020 -0.0219 -0.0946 -0.2594
37040W        W80031  22.978   1.045  14.551 -0.1772  0.1961 -0.1251
37041W        W80032  27.138  16.442  18.301  0.6447 -0.0480 -0.1020
37042W        W80033  21.657  21.421  19.232  0.0049  0.0095 -0.2536
37043W        W80034  17.119  22.237  13.682 -0.0237  0.0964  0.1879
37044W        W80035  13.562  21.927  17.951  0.1270  0.1948  0.0060
37045W        W80036  20.232  19.937   6.614 -0.1269 -0.0494 -0.1255
37046W        W80037   5.515  16.008  20.691  0.1105  0.0268  0.3225
37047W        W80038  29.204  18.343  17.344  0.3995 -0.1307  0.2866
37048W        W80039  20.813  22.105  18.420  0.1187  0.0257 -0.0820
37049W        W80040  24.715  24.913  21.868 -0.1428 -0.0967 -0.0680
37050W        W80041  28.764  13.070  17.092 -0.0307 -0.0953 -0.2575
37051W        W80042  14.623  26.232  15.905  0.0854 -0.2398 -0.0268
37052W        W80043  34.319  26.513  25.026 -0.1944 -0.2382  0.1655
37053W        W80044  29.812  10.622  17.546 -0.1074 -0.0527  0.3094
37054W        W80045   4.749  29.838  29.256 -0.2596 -0.0785  0.0347
37055W        W80046  24.685   3.813  25.793  0.0016 -0.0339  0.1953
37056W        W80047  34.359  17.448  17.378  0.0270  0.1471 -0.2358
37057W        W80048   1.796  13.539  24.030 -0.4105 -0.1672  0.6196
37058W        W80049  11.781   2.898  20.822  0.0113 -0.0316  0.4942
37059W        W80050   5.774   7.097   9.830  0.2612 -0.1379  0.1328
37060W        W80051  32.256  12.927  19.364  0.0121 -0.1707  0.5755
37061W        W80052   2.002  14.768  15.993  0.2800  0.1494  0.1325
37062W        W80053  10.279  13.529  24.171 -0.0112 -0.2858 -0.3444
37063W        W80054  20.559  26.890  13.436 -0.2859  0.0065  0.1341
37064W        W80055  32.195  18.056  25.983  0.1351 -0.1475  0.1496
37065W        W80056   5.149  11.280  29.022 -0.4288 -0.1623  0.1301
37066W        W80057  11.736  14.566  22.114  0.2923 -0.0451  0.0159
37067W        W80058   5.122   5.129  19.803 -0.0703  0.0686  0.0017
37068W        W80059  27.232   9.517  17.321 -0.1260  0.0320  0.3224
37069W        W80060  31.469   5.099  17.570 -0.3591  0.2730 -0.0837
37070W        W80061  31.880  28.328  25.993  0.2414 -0.0788  0.2564
37071W        W80062  12.167   7.273  26.412  0.1273  0.0916 -0.0883
37072W        W80063   6.295  10.459  16.736  0.1002 -0.0518  0.0586
37073W        W80064   3.231   1.956  17.007 -0.0196 -0.1168 -0.2910
37074W        W80065   0.603  18.651   2.595  0.1536  0.2052  0.2357
37075W        W80066  31.588   7.290  23.819  0.1402  0.0778  0.1102
37076W        W80067  33.078   5.503  24.380 -0.2335  0.2253 -0.0213
37077W        W80068  34.668  20.197  15.162  0.1729 -0.1598  0.1538
37078W        W80069   0.358  14.987  19.999 -0.1857  0.0554  0.0136
37079W        W80070  24.405  19.078  20.882  0.2396 -0.1677  0.0265
37080W        W80071  28.167  18.638  16.802  0.1246  0.2223 -0.4132
37081W        W80072  11.057   7.634  19.344 -0.0194  0.0857 -0.0077
37082W        W80073  15.258   9.707  16.060 -0.1628  0.0936  0.1771
37083W        W80074  15.113  15.044  13.391  0.3262  0.0053  0.0669
37084W        W80075  32.522   6.542   2.507 -0.0782 -0.1450 -0.0096
37085W        W80076   1.361  15.672  16.742  0.3210  0.1444 -0.0360
37086W        W80077   0.845  27.608  24.967 -0.2630 -0.2981 -0.0997
37087W        W80078  27.542  30.411  27.553 -0.1829  0.0134  0.1145
37088W        W80079  24.022  13.815  24.831  0.1378 -0.2528  0.1304
37089W        W80080   3.451   1.117  18.033 -0.2898 -0.0164 -0.0864
37090W        W80081  27.596  11.001  27.692 -0.1072  0.1599 -0.1975
37091W        W80082   2.559  24.285  21.220 -0.0169 -0.2591  0.3385
37092W        W80083  28.347  18.084  15.538  0.2192  0.0625 -0.0758
37093W        W80084  28.673  18.819  20.454 -0.1585 -0.0904 -0.0611
37094W        W80085  11.750  21.193  27.376  0.2866  0.3039  0.3773
37095W        W80086  27.144  24.194  20.345  0.1903  0.1372 -0.3257
37096W        W80087  21.442  18.236  17.530  0.0993 -0.1143 -0.0096
37097W        W80088  20.613   4.031  16.757  0.0060  0.2382  0.1125
37098W        W80089  32.784  21.064  21.996  0.0480 -0.0736  0.2253
37099W        W80090  27.976   3.103  24.307 -0.1644 -0.0797  0.0188
37100W        W80091  24.737   2.151   0.698  0.0429  0.0568  0.1959
37101W        W80092  12.532  25.295  27.420 -0.0728 -0.0772  0.0109
37102W        W80093  28.876   0.683  17.429 -0.1481 -0.0732  0.1934
37103W        W80094  34.352   7.260  21.718  0.2956  0.4995  0.2603
37104W        W80095   1.075  11.906  18.781  0.0008  0.1379 -0.0202
37105W        W80096  13.628   5.010  29.204  0.0056 -0.4971 -0.1368
37106W        W80097  11.322   7.662  16.807 -0.2034 -0.0264  0.2887
37107W        W80098  32.453  24.181  25.673 -0.0406  0.0740 -0.1103
37108W        W80099  10.205  19.814  16.938 -0.1253 -0.0503 -0.1646
37109W        W80100   3.581  18.352  29.108 -0.1293  0.0491  0.0551
37110W        W80101   0.011  10.342  28.807 -0.1527 -0.1251  0.0337
37111W        W80102  29.233  16.578  28.913 -0.1472 -0.3096 -0.4439
37112W        W80103  28.071  23.268  21.192  0.2466 -0.0994 -0.0234
37113W        W80104   5.835  11.473  17.318 -0.0114  0.5302 -0.0866
37114W        W80105  21.677  23.532  20.055  0.0081 -0.1582  0.0335
37115W        W80106  11.668  15.585  24.221 -0.2327 -0.2009 -0.0868
37116W        W80107  22.897   8.434  25.013  0.2482 -0.0457  0.1646
37117W        W80108  18.909  12.649  25.794 -0.2651 -0.2183 -0.2955
37118W        W80109   2.869  23.158  21.977  0.1288  0.0182  0.1083
37119W        W80110   1.834   3.395  19.354  0.0186 -0.1980  0.1224
37120W        W80111   9.005  10.167  23.830 -0.2538  0.0060  0.1994
37121W        W80112  28.483  22.248  23.818 -0.1169 -0.1507 -0.1689
37122W        W80113   9.257  28.966  14.228 -0.1087  0.0373 -0.0382
37123W        W80114   3.081  27.779  17.267  0.1968 -0.0297  0.2456
37124W        W80115  25.499  12.731  25.618 -0.0103  0.0021 -0.0940
37125W        W80116  26.124  23.442  14.192 -0.0227 -0.2528 -0.2454
37126W        W80117  21.229  30.856  23.716  0.0130 -0.1005  0.0832
37127W        W80118  26.510   9.484  25.549 -0.0605  0.2205  0.2874
37128W        W80119  12.260  13.548  20.501 -0.0910  0.1245 -0.1248
37129W        W80120   0.081   3.446   3.368 -0.0779 -0.0775 -0.2946
37130W        W80121  32.519  14.099  20.882 -0.0245  0.0253 -0.3204
37131W        W80122  28.631   6.900  27.366  0.2095 -0.1812 -0.1074
37132W        W80123  33.104  10.604  17.109 -0.2211 -0.0368  0.2002
37133W        W80124  26.187  16.855  27.627 -0.2450  0.0299  0.3497
37134W        W80125  32.593   2.234  16.400 -0.1224  0.2442 -0.0593
37135W        W80126  11.225  30.887  24.549  0.0306  0.1915  0.0040
37136W        W80127  24.749   6.220  23.285 -0.0143 -0.1870 -0.2404
37137W        W80128  26.705  20.714  21.426  0.0880  0.0611 -0.0059
37138W        W80129  29.756  17.196  16.213  0.0430 -0.1412 -0.1638
37139W        W80130  12.475   5.617  21.649  0.1021  0.2121  0.0788
37140W        W80131  29.254  15.377  24.369 -0.0117  0.0659  0.1744
37141W        W80132  33.821  31.481  14.409  0.1113 -0.2791 -0.3130
37142W        W80133   4.125  23.398  15.802  0.3075  0.1015  0.1261
37143W        W80134  20.945   4.638  19.279  0.4005  0.1066  0.1988
37144W        W80135  25.884  15.974  19.683 -0.0819  0.3577  0.0593
37145W        W80136  31.403  28.677  14.962 -0.2650 -0.0150  0.2296
37146W        W80137  23.802  19.774  24.929  0.4868 -0.2155 -0.0347
37147W        W80138  33.103  17.748  19.652  0.2961  0.0256  0.1146
37148W        W80139  24.256   2.453  24.672 -0.0007 -0.1621  0.2313
37149W        W80140   9.402  27.271  19.063 -0.1309  0.1770  0.1772
37150W        W80141  12.147  16.648   1.600 -0.3376  0.0592  0.2542
37151W        W80142  16.890   0.033  25.300 -0.0268  0.0822  0.0749
37152W        W80143  19.719  12.050  16.676 -0.2165 -0.2040  0.1201
37153W        W80144   1.435   5.773  25.438 -0.2134 -0.2524  0.1663
37154W        W80145  13.597  11.219  21.326 -0.1257  0.2104 -0.0782
37155W        W80146  23.467  20.472  15.602  0.0442 -0.1482  0.0171
37156W        W80147  16.772  17.684  13.520  0.0561  0.0593  0.1692
37157W        W80148  10.313  10.890  24.492  0.0794  0.2567  0.1214
37158W        W80149   2.327  31.693  23.048 -0.2470 -0.0563 -0.2359
37159W        W80150  23.753   0.540  17.863 -0.2804  0.1209  0.1905
37160W        W80151  34.580   7.870  15.337 -0.2554  0.2264  0.0466
37161W        W80152  33.535  15.085  19.000  0.0644  0.0405 -0.1562
37162W        W80153  27.512  16.513  16.642  0.1451  0.1877 -0.6417
37163W        W80154  18.674  23.646  16.286  0.2625 -0.5352  0.0581
37164W        W80155   4.969   2.772   7.052 -0.0172 -0.1882  0.0384
37165W        W80156  13.231   7.049  23.806  0.1129  0.0881  0.1335
37166W        W80157  26.617  18.887  20.618 -0.0575  0.0111 -0.0211
37167W        W80158   7.891  19.916  23.896 -0.1562  0.0928  0.0194
37168W        W80159  28.176   6.460  20.719 -0.0425  0.0484 -0.1870
37169W        W80160  30.642  25.206  26.681  0.1401  0.2008  0.2682
37170W        W80161  32.636  25.714  19.259 -0.2615  0.0013  0.0133
37171W        W80162  17.997   3.906  24.299 -0.0188  0.0355 -0.2510
37172W        W80163  32.553  26.432  14.388  0.1684 -0.0222  0.1705
37173W        W80164   5.228  13.772  18.085  0.1596 -0.1605  0.1716
37174W        W80165  31.722  10.143   3.795 -0.4707 -0.1122  0.0173
37175W        W80166  29.400  16.263  15.215  0.1498 -0.0145 -0.0508
37176W        W80167   5.040   7.833  27.109 -0.1072 -0.2327 -0.0330
37177W        W80168  26.211   0.875  19.220  0.2631  0.1271 -0.2551
37178W        W80169  33.602  18.170  20.407  0.0684 -0.1304  0.1216
37179W        W80170  10.577  10.986  22.484  0.1134 -0.1850  0.5928
37180W        W80171   7.624  13.769  21.857 -0.3309 -0.2162 -0.3047
37181W        W80172   1.126  27.334  24.635 -0.1687 -0.1394 -0.0769
37182W        W80173   6.823  27.384  19.939 -0.3124 -0.3314 -0.0168
37183W        W80174   5.611  24.919  15.133 -0.0398  0.1095 -0.1509
37184W        W80175   9.024  18.628  28.088 -0.2539 -0.1393  0.1198
37185W        W80176  17.212   1.989   1.456 -0.1153 -0.1728  0.0295
37186W        W80177   2.779  19.670  14.992 -0.0164 -0.2535  0.1307
37187W        W80178  25.278  17.937  26.095  0.2954  0.1347 -0.1380
37188W        W80179  19.356   6.671  19.053 -0.0963 -0.1552 -0.4707
37189W        W80180  33.541   8.901  26.543 -0.1480 -0.0844  0.1463
37190W        W80181  30.707  14.724  22.414 -0.3418 -0.0620 -0.0735
37191W        W80182   0.635   1.663  27.523 -0.2178  0.1284  0.4724
37192W        W80183  27.487   3.087  24.231 -0.1839  0.0337 -0.0988
37193W        W80184  28.463   3.606  28.916  0.0133 -0.0975  0.0488
37194W        W80185  17.451  10.042  17.706 -0.2731  0.3476 -0.2821
37195W        W80186  21.139  20.307  20.478 -0.1024  0.2803  0.2605
37196W        W80187  22.630  31.936  16.892 -0.2859 -0.1608 -0.2775
37197W        W80188   0.266  17.793   4.330  0.1705 -0.1006 -0.4515
37198W        W80189  30.747   0.934  24.797 -0.0116  0.3238 -0.2105
37199W        W80190  21.429  19.292  17.256  0.0690  0.0022 -0.2798
37200W        W80191  34.132  10.076  23.348  0.0073 -0.0726 -0.0659
37201W        W80192  30.448  23.487  17.969  0.0178 -0.0615 -0.0421
37202W        W80193  34.289  22.693  20.874 -0.3087 -0.2596  0.0234
37203W        W80194  23.868  24.998  14.776  0.1144  0.2141 -0.0602
37204W        W80195   8.585   3.335  15.837 -0.3259 -0.2278 -0.0770
37205W        W80196   7.769  17.475  18.082 -0.0924  0.1275 -0.0507
37206W        W80197  18.879  23.103  22.313  0.1301  0.0321  0.1386
37207W        W80198   1.357   1.634   0.303  0.1073 -0.5511 -0.1242
37208W        W80199  24.068  17.843  13.792  0.5262 -0.1646 -0.2111
37209W        W80200  21.142  15.587  12.799  0.1858  0.2475 -0.0314
37210W        W80201  30.235   6.015  16.273 -0.2095 -0.0283  0.2632
37211W        W80202  32.057  18.448   3.252  0.1590 -0.1742  0.2256
37212W        W80203  33.760  10.441  22.865  0.2365 -0.1266  0.1231
37213W        W80204  15.286  19.537  15.545 -0.2758 -0.1086  0.0873
37214W        W80205  34.465  21.624  28.741  0.1087 -0.1403 -0.1632
37215W        W80206  24.933   4.278  22.873  0.2764  0.4260  0.0479
37216W        W80207  18.192  20.685  13.472  0.1141  0.0303  0.1477
37217W        W80208   4.260   0.084  24.837  0.1414  0.1304  0.1295
37218W        W80209  22.603  16.001  18.706  0.2555 -0.0271  0.0178
37219W        W80210   3.695  27.696  25.023 -0.1252  0.0069  0.0473
37220W        W80211   4.209  16.025  20.541 -0.1667 -0.3928  0.2976
37221W        W80212  26.364  20.042  19.318 -0.1730 -0.0462 -0.2975
37222W        W80213  20.528  32.919  13.063  0.2254  0.0012  0.2339
37223W        W80214  33.005  17.268  19.809  0.0240  0.0796  0.0974
37224W        W80215   8.006  12.557  19.078  0.1941 -0.1058  0.0493
37225W        W80216  26.695  30.469  13.716  0.1321 -0.0367  0.0650
37226W        W80217  29.345  34.398  17.692  0.0361 -0.0308  0.1714
37227W        W80218  21.986  13.849  15.544  0.0987 -0.1532 -0.1103
37228W        W80219  13.913  32.849  23.217  0.0532  0.0057 -0.2295
37229W        W80220  24.352  16.273  14.199 -0.1767  0.3255 -0.0565
37230W        W80221   2.991   9.344  20.637  0.1872  0.0217  0.2431
37231W        W80222  27.619  16.614  18.115  0.3767  0.0760  0.0526
37232W        W80223  26.502  27.905  14.750  0.2449  0.0831 -0.1870
37233W        W80224  24.187  24.663  16.119 -0.0987 -0.2159 -0.1039
37234W        W80225  33.511  14.891  16.281  0.0289 -0.0166 -0.3323
37235W        W80226   6.026  21.055  23.973 -0.3514  0.1511 -0.2535
37236W        W80227  20.549  17.687  12.641 -0.0887  0.1783  0.2283
37237W        W80228  15.902  16.769  24.690 -0.0061 -0.0812  0.1267
37238W        W80229  30.509  17.192  19.512  0.0384  0.1434  0.1266
37239W        W80230  20.704  14.524  18.404  0.0960 -0.1263 -0.0457
37240W        W80231  11.095  20.070  16.806  0.1665  0.0590 -0.0161
37241W        W80232  13.901  26.731  15.885 -0.2886 -0.1862 -0.4298
37242W        W80233  23.624  20.009  19.581  0.0343  0.0104  0.4803
37243W        W80234  30.450  16.047  18.603 -0.4056  0.1869 -0.2694
37244W        W80235   1.360  17.735  15.838 -0.1615 -0.0572 -0.2419
37245W        W80236  26.478  14.555  25.002  0.0658 -0.0653 -0.1193
37246W        W80237  21.545  26.768  19.177  0.0200 -0.1077  0.2586
37247W        W80238  22.436  28.304  27.109 -0.1088 -0.0857  0.2922
37248W        W80239  29.030  28.159  15.582  0.2577 -0.0002 -0.1411
37249W        W80240  29.471   6.535  15.569  0.1598  0.2062  0.3325
37250W        W80241  11.332   4.581  29.041 -0.0176  0.1547  0.0012
37251W        W80242  24.781  19.758   1.946 -0.2114 -0.1214 -0.0389
37252W        W80243  20.819   6.561  17.330 -0.1185 -0.0876  0.0821
37253W        W80244  16.362  28.637  13.537 -0.1530 -0.2141  0.1957
37254W        W80245  29.492   1.522  19.262  0.1518 -0.0904 -0.0381
37255W        W80246  28.707  15.010  15.802 -0.0613 -0.0814  0.0291
37256W        W80247   0.611  18.706  17.251 -0.2026  0.2596 -0.3502
37257W        W80248  26.993  20.515  29.132 -0.2134 -0.0020 -0.0751
37258W        W80249   5.039  24.747  22.077 -0.0588  0.1641 -0.0310
37259W        W80250  27.873  28.301  23.153 -0.1110  0.0160 -0.0559
37260W        W80251  25.847  19.047  14.983  0.5326  0.1770 -0.3067
37261W        W80252  31.690  23.792  19.425  0.1834 -0.2295 -0.0045
37262W        W80253  31.741  11.167  10.621 -0.0431  0.2987  0.3306
37263W        W80254  14.588  15.322  28.649  0.1029  0.3521  0.2425
37264W        W80255  33.404  12.381  18.854  0.0637 -0.3755  0.0599
37265W        W80256  27.601  15.579  20.901 -0.0018 -0.0134 -0.1907
37266W        W80257  26.394  11.435  18.429  0.1181 -0.1852  0.0640
37267W        W80258  21.268  11.056  27.521 -0.1148 -0.1408  0.1693
37268W        W80259  26.447  11.784  18.868 -0.1384  0.1811 -0.1771
37269W        W80260  12.656  34.135  27.938 -0.0627 -0.1668  0.0241
37270W        W80261   9.294   6.491  23.002 -0.0234  0.0218  0.1400
37271W        W80262  23.692  20.842  25.656  0.0084 -0.1576  0.3884
37272W        W80263  18.226  19.466  28.555  0.1610  0.0328 -0.0382
37273W        W80264  34.710  14.110   2.439  0.4279  0.1379 -0.0427
37274W        W80265   4.380  21.848  26.766 -0.0497  0.0886  0.1985
37275W        W80266  30.126  11.468  15.219  0.1050  0.0715  0.4605
37276W        W80267  34.618   8.170  19.769 -0.0870  0.2025  0.1377
37277W        W80268  23.425   0.098  13.903 -0.2120  0.0518  0.1083
37278W        W80269  24.285  15.492  28.156  0.1846 -0.1492 -0.0760
37279W        W80270  10.047  11.291  19.496 -0.1347  0.3677  0.3022
37280W        W80271   4.631  19.901   6.350  0.3013 -0.1819 -0.3092
37281W        W80272  25.514  20.991  18.385 -0.0913  0.0776 -0.2368
37282W        W80273   6.523   8.612  18.301 -0.1916 -0.2462  0.3389
37283W        W80274  30.232   7.185  16.461  0.1941  0.1892 -0.3572
37284W        W80275   3.828  21.065  24.050 -0.1092  0.0974  0.3508
37285W        W80276  25.975  12.191   2.107 -0.0639 -0.0445  0.0960
37286W        W80277  33.268  28.458  22.129  0.0223  0.1147  0.4309
37287W        W80278  30.112  11.968  15.439  0.1267 -0.2815  0.0981
37288W        W80279  30.147  23.031  17.980  0.1657  0.2430  0.0563
37289W        W80280  13.532  15.223  21.358  0.0394 -0.1773  0.0903
37290W        W80281  30.074   1.369  14.322  0.2421 -0.4971  0.2875
37291W        W80282  28.686  14.181  23.335  0.1923 -0.1633 -0.1450
37292W        W80283  22.300   1.344  26.267 -0.0842 -0.1105 -0.2510
37293W        W80284  10.113  18.855  14.220 -0.3885  0.0133  0.3865
37294W        W80285  14.764   8.813  14.461 -0.1974  0.0984 -0.3784
37295W        W80286  10.695  21.770  19.479 -0.0208 -0.3243 -0.2326
37296W        W80287   5.919  12.544  16.203  0.0360  0.0763 -0.0856
37297W        W80288  26.759   0.834  25.340  0.0587  0.0919 -0.1752
37298W        W80289  34.708   9.964  24.939  0.1131 -0.0382  0.0381
37299W        W80290   2.683   7.309  19.951  0.2845  0.0575  0.0699
37300W        W80291  34.262  15.394  17.542  0.1217  0.4325 -0.0591
37301W        W80292  27.120  14.502   4.228  0.0707  0.2781 -0.0341
37302W        W80293  23.092  30.542   6.010  0.2670 -0.1714  0.1615
37303W        W80294  22.430  34.699  24.276  0.0953  0.0984  0.1732
37304W        W80295   5.928  18.684  20.618  0.3100  0.2023  0.6916
37305W        W80296   8.478  13.575  25.772  0.1192 -0.2427 -0.3195
37306W        W80297  34.750  20.582  20.874 -0.1492  0.2670 -0.0005
37307W        W80298  15.822  24.594  14.880  0.3772  0.3414 -0.1532
37308W        W80299   3.738   6.719   2.249  0.1450 -0.0237  0.2524
37309W        W80300   6.070  30.672   3.308  0.3463  0.2087  0.1321
37310W        W80301   5.168   2.254  10.784 -0.2581 -0.0887  0.0226
37311W        W80302  24.244  23.546   4.665 -0.2185 -0.1620  0.0983
37312W        W80303  26.812   2.123  15.614 -0.0728 -0.1542 -0.1071
37313W        W80304  29.558   6.823  20.465 -0.2471 -0.0000  0.1721
37314W        W80305  27.633  11.501   1.510  0.1160  0.1362  0.0748
37315W        W80306  24.503  25.602  19.313  0.2223  0.0637 -0.2299
37316W        W80307  34.675  18.633  20.808 -0.3173  0.0431  0.0552
37317W        W80308   1.764  24.823  15.927  0.2273 -0.2894  0.0495
37318W        W80309  25.799   9.478  21.735 -0.1431  0.0328  0.0894
37319W        W80310   9.520  13.244  23.658 -0.0800  0.3177  0.1054
37320W        W80311  19.366  30.826  22.891 -0.1358  0.2094  0.0323
37321W        W80312  27.009   3.943  17.738  0.2650 -0.0319  0.1241
37322W        W80313  21.916  17.418  18.321  0.1120 -0.0646 -0.1404
37323W        W80314  28.039  13.913  15.299 -0.0186 -0.1372 -0.1685
37324W        W80315  27.431  23.049  18.521 -0.0360  0.1491 -0.0701
37325W        W80316  20.451  33.349   2.294 -0.0442 -0.3059 -0.4004
37326W        W80317  26.912  22.613  16.560 -0.0607 -0.0465 -0.1303
37327W        W80318   1.576  21.351  20.401  0.2850 -0.3851  0.0472
37328W        W80319  13.857  22.641  23.244 -0.1780  0.2132  0.2091
37329W        W80320  14.682  27.657  18.449 -0.1777  0.0110  0.2210
37330W        W80321  30.406  22.571  25.701 -0.2187 -0.2149 -0.1079
37331W        W80322   8.322  22.079  24.251 -0.1359  0.0258  0.1625
37332W        W80323  28.470  29.238  22.229 -0.1310 -0.0748 -0.2478
37333W        W80324  26.032  18.632  14.776  0.0450 -0.0948  0.1210
37334W        W80325  31.913  24.722  23.885 -0.3404 -0.3012  0.1378
37335W        W80326  13.940  22.023  17.460 -0.0755  0.2587 -0.0086
37336W        W80327  27.550   5.993   5.977  0.2043 -0.3452 -0.1320
37337W        W80328  31.931   7.523  22.249  0.0629  0.3544 -0.0505
37338W        W80329  24.848  11.815  19.494  0.0966 -0.1374  0.1515
37339W        W80330  18.150   9.454   0.155 -0.0175  0.2523 -0.3756
37340W        W80331  24.385  33.431  18.922 -0.0953 -0.1529 -0.0420
37341W        W80332  16.799  17.318  14.311  0.3022 -0.2535 -0.3261
37342W        W80333  25.638  20.427   1.888  0.0581  0.0511 -0.0739
37343W        W80334  28.227  22.011  25.345 -0.1441 -0.1251  0.3795
37344W        W80335  13.011  22.909   1.686  0.0137 -0.0457  0.0898
37345W        W80336  19.210  19.449  15.995 -0.3517 -0.0252 -0.1981
37346W        W80337  25.332  28.032   0.859 -0.1481  0.0477  0.0699
37347W        W80338   7.432  13.709  24.068  0.1483 -0.0443  0.0667
37348W        W80339   0.875  19.197  18.003  0.1803  0.0221  0.0694
37349W        W80340  33.876  18.224  27.719  0.1692 -0.1597  0.0053
37350W        W80341  31.087  17.805   7.985  0.1602 -0.3501 -0.0902
37351W        W80342  31.439  22.472  16.684  0.1339 -0.0646  0.1211
37352W        W80343  11.668  21.483  24.623 -0.2806  0.2121  0.3310
37353W        W80344  27.571   8.223  21.356 -0.0782  0.1255  0.3344
37354W        W80345  33.490  22.026  20.472 -0.2968 -0.0262 -0.1693
37355W        W80346  25.453   5.115  16.372  0.1788 -0.0458  0.3350
37356W        W80347  30.027  27.876  14.615  0.0771  0.1543  0.0199
37357W        W80348  30.337  22.779   4.253  0.0295  0.1732  0.0741
37358W        W80349  19.676  31.836  22.274  0.0130  0.1243 -0.1016
37359W        W80350  32.100  32.204   5.024 -0.0587  0.0268  0.0540
37360W        W80351   8.447  21.367  22.042 -0.0788 -0.0341 -0.1610
37361W        W80352  32.556  13.891  22.391 -0.0590  0.1909  0.2222
37362W        W80353  18.803  33.772  22.181 -0.2894  0.0692  0.0191
37363W        W80354  30.000   7.272   2.373  0.0835 -0.1720 -0.0680
37364W        W80355   1.638  33.037  20.446 -0.0001  0.0128 -0.1154
37365W        W80356  27.729  18.468  22.319  0.0398  0.3195  0.1514
37366W        W80357  25.510  14.675  15.795 -0.1329 -0.0261  0.2590
37367W        W80358  21.193  17.976  26.201  0.1187  0.3524 -0.0393
37368W        W80359  34.650  10.298  19.257  0.1265 -0.0656 -0.1883
37369W        W80360  20.345  28.784  13.858  0.0186  0.0041 -0.2317
37370W        W80361  27.263  16.661  21.993 -0.0718 -0.0603 -0.2388
37371W        W80362  34.284   4.114   9.106  0.2159  0.0639 -0.4102
37372W        W80363  28.069  23.902  26.818  0.1143 -0.0072 -0.0300
37373W        W80364  22.817  10.856  15.159 -0.1405  0.2668 -0.1564
37374W        W80365  16.770  12.087  21.030 -0.1524  0.0506  0.2997
37375W        W80366  25.091  20.114  15.264 -0.1600  0.2361 -0.3122
37376W        W80367   3.315  12.140  19.849  0.1343  0.1972  0.2391
37377W        W80368   7.971  23.979  18.412  0.1176  0.1196 -0.0985
37378W        W80369   7.670  10.114  23.819  0.1742  0.1837 -0.0214
37379W        W80370  22.665  19.407  20.961  0.0250  0.0190  0.0630
37380W        W80371  25.934  32.347  16.143  0.0201  0.0554  0.1134
37381W        W80372  30.006   9.910  27.442 -0.1599 -0.0812 -0.0656
37382W        W80373  34.313  10.929  16.811 -0.0192  0.2212  0.0992
37383W        W80374   7.986  27.712   7.346  0.4330 -0.1005 -0.1392
37384W        W80375  34.330   3.602  16.377 -0.0458 -0.2371 -0.2148
37385W        W80376  22.518  14.446  15.223  0.0983 -0.0336  0.1932
37386W        W80377  25.286   7.805  23.811  0.0349  0.1155 -0.4283
37387W        W80378  34.447  16.331  16.529 -0.0130  0.2324  0.0922
37388W        W80379  28.650  20.933  18.500 -0.0224 -0.1489  0.0236
37389W        W80380  34.143  27.907   0.073 -0.1324  0.0975  0.1255
37390W        W80381  22.393   3.265   8.692  0.0762  0.0526 -0.1194
37391W        W80382  22.548  18.257   1.320 -0.1498  0.4547  0.1100
37392W        W80383   4.546   8.451   0.679 -0.0978 -0.2405  0.0883
37393W        W80384  25.528  10.478   3.938 -0.0788 -0.2828 -0.3544
37394W        W80385  21.604   7.288  15.585  0.2683  0.0966  0.1328
37395W        W80386  29.817  16.622   2.584  0.0699  0.2239 -0.0700
37396W        W80387  26.127  18.774  15.802  0.1142 -0.4478 -0.0661
37397W        W80388  29.082  17.738  25.607  0.1103  0.3954  0.2654
37398W        W80389  14.896   6.029  20.790 -0.2095  0.2237 -0.0275
37399W        W80390  21.200  14.334   6.511 -0.1096 -0.3194 -0.0448
37400W        W80391  23.839  32.701  20.930  0.3250  0.2245 -0.1768
37401W        W80392   7.846  17.921  22.448  0.1228  0.0410  0.0605
37402W        W80393  22.694  24.951  21.094 -0.3257  0.0562  0.0727
37403W        W80394  23.094  14.023  21.087  0.1239 -0.2563  0.2122
37404W        W80395   1.566  34.342  28.339 -0.3005 -0.0115 -0.0736
37405W        W80396  28.268   6.383  28.927  0.1253 -0.1051  0.0463
37406W        W80397   7.156  29.658  27.013 -0.0196 -0.0091  0.2774
37407W        W80398   5.996  32.519  22.987  0.2884  0.0790  0.3133
37408W        W80399  26.979  12.366  16.667 -0.2351 -0.0360  0.2374
37409W        W80400  30.514  27.167  13.676  0.1787 -0.1502 -0.1570
37410W        W80401  21.589  31.800  26.675 -0.4251  0.0500  0.0176
37411W        W80402  25.741  17.413  17.086 -0.0697  0.1501  0.0132
37412W        W80403  16.322   3.562  26.257 -0.0325  0.0537  0.0133
37413W        W80404   5.878  15.675  27.286  0.3805  0.0923 -0.3398
37414W        W80405  24.804  21.516  13.305  0.0744 -0.0533  0.0444
37415W        W80406  15.762  28.955  23.568 -0.0034 -0.2282  0.1104
37416W        W80407  32.269  19.909  18.410  0.0413  0.1050  0.2565
37417W        W80408  14.951  34.634  23.275 -0.4552  0.0900 -0.4358
37418W        W80409  31.349   6.838  22.592 -0.2362 -0.0515 -0.0016
37419W        W80410  31.925  18.744  29.094 -0.2460  0.2056  0.0816
37420W        W80411  28.712  31.516  22.373  0.2004  0.0694 -0.0616
37421W        W80412  28.969   9.772  21.311  0.2674 -0.0823  0.1360
37422W        W80413   2.452   3.824  24.948  0.1281 -0.0212 -0.1489
37423W        W80414   0.009  33.306  13.744  0.0722  0.1424 -0.3292
37424W        W80415  21.830   9.261  13.443 -0.2691 -0.1565  0.0365
37425W        W80416   2.540  34.182  27.994  0.2464 -0.1272  0.1848
37426W        W80417  24.116  13.320   7.374 -0.3072 -0.3365 -0.1689
37427W        W80418   5.645  18.488  17.067  0.0818 -0.1875 -0.1286
37428W        W80419  32.276   0.636  18.930  0.0609  0.3347  0.0215
37429W        W80420  20.594   3.675  21.183  0.3021  0.1180 -0.3474
37430W        W80421   2.497   0.294   1.338  0.0924  0.2726 -0.0292
37431W        W80422  25.846  22.487  18.617  0.3690  0.0521 -0.0252
37432W        W80423  19.875   3.372  16.010  0.1274 -0.0105  0.0702
37433W        W80424  24.000  14.305  21.231 -0.1829  0.0304  0.4264
37434W        W80425  18.759   1.383  16.490 -0.0096 -0.0115  0.0291
37435W        W80426   4.449  18.715  18.949 -0.0341  0.0416 -0.0611
37436W        W80427  29.571  22.217  22.390 -0.0007 -0.0051 -0.2940
37437W        W80428  19.966   5.215   0.957  0.1472 -0.1086 -0.1558
37438W        W80429  23.449   6.405  16.405  0.1627 -0.1324 -0.2024
37439W        W80430  27.212  13.986  17.536 -0.0909  0.1221  0.2065
37440W        W80431  20.259  10.733  20.644 -0.0769 -0.0827  0.1923
37441W        W80432  34.264   7.691  19.038  0.3269  0.2505 -0.0478
37442W        W80433   4.203   8.542   1.533 -0.2394 -0.0330 -0.0577
37443W        W80434  16.895  24.895   4.762  0.0532 -0.3559  0.0092
37444W        W80435  14.497  11.315  27.784  0.1451  0.0586  0.0221
37445W        W80436  30.422  27.606  24.726 -0.1422  0.0430 -0.0602
37446W        W80437  30.637  33.132  24.590 -0.1208  0.0313 -0.3614
37447W        W80438  32.219  26.982  19.100  0.0011  0.0974 -0.0116
37448W        W80439  30.359  27.232  12.480  0.1376 -0.0735 -0.1531
37449W        W80440  26.576  13.714  20.964 -0.0951  0.4173 -0.1825
37450W        W80441  17.056   7.449  28.340  0.3161  0.2314 -0.0232
37451W        W80442   2.913  25.830  19.775  0.1059 -0.2574  0.0058
37452W        W80443  26.986  34.468  17.196  0.0230  0.0572  0.0751
37453W        W80444  17.066   7.583   6.908  0.2915 -0.2025 -0.0996
37454W        W80445  12.184   7.089  16.611 -0.2835 -0.0219 -0.1029
37455W        W80446  31.911  22.342  25.286  0.0820  0.1610 -0.1667
37456W        W80447  25.606  18.222   0.257 -0.0560  0.2326 -0.0195
37457W        W80448  21.932  15.263  23.051  0.0281 -0.0476 -0.0713
37458W        W80449  10.400  22.253  27.061  0.2132  0.0425  0.1910
37459W        W80450  30.906  30.074  17.473  0.1521  0.2862 -0.1595
37460W        W80451   4.030  10.784  14.807 -0.3522  0.3006  0.4950
37461W        W80452  30.492  17.839  16.076 -0.1405 -0.0066  0.0543
37462W        W80453  34.688  13.841  16.189 -0.1132  0.1607  0.0009
37463W        W80454   9.897  13.726  20.425 -0.2114  0.0139  0.1566
37464W        W80455   3.775   6.367  17.055 -0.0291  0.1662  0.1094
37465W        W80456   2.464  24.807   4.552  0.0623 -0.0412 -0.0531
37466W        W80457  21.742  15.053  15.484  0.0421 -0.0370  0.1413
37467W        W80458   2.009  33.587   5.688 -0.0316  0.0343 -0.0592
37468W        W80459  20.818   6.046   1.572  0.0333  0.2186 -0.1536
37469W        W80460  27.391  15.772  18.225  0.0259 -0.2560  0.0845
37470W        W80461   3.095  28.242  27.017  0.0362 -0.1375  0.0199
37471W        W80462   4.465   6.137  21.134 -0.1191  0.2854 -0.0177
37472W        W80463  24.519  32.948  26.967  0.0317 -0.1354 -0.1898
37473W        W80464  31.372  16.042  14.788 -0.3038 -0.1413 -0.1692
37474W        W80465  24.785  22.413  14.356 -0.0784 -0.3745 -0.1561
37475W        W80466  30.397  16.833  25.130  0.0123 -0.3041  0.0605
37476W        W80467  13.607  18.826   5.632 -0.0191  0.0413  0.0625
37477W        W80468  21.667  32.134  22.002 -0.0828  0.0006 -0.0031
37478W        W80469   5.049  17.854   4.567  0.0426 -0.1391  0.1718
37479W        W80470  33.258  19.013  15.274 -0.3052  0.1355  0.0869
37480W        W80471  26.889  34.029  14.258  0.1169 -0.1364  0.1188
37481W        W80472   1.095  16.140  23.634  0.3353 -0.1075  0.0197
37482W        W80473  28.790  28.469  26.006 -0.2004 -0.0665 -0.1479
37483W        W80474  21.033  19.125  20.253 -0.2533  0.0146  0.0096
37484W        W80475  32.349  33.570  22.636 -0.1364  0.0181  0.0415
37485W        W80476   0.129  22.345  18.785  0.0417  0.0624  0.0857
37486W        W80477  11.111  34.154  19.741  0.2519 -0.0191  0.0394
37487W        W80478  31.000  22.068  15.802  0.0778  0.0309  0.2009
37488W        W80479  23.567  18.090  27.650  0.0112  0.2482 -0.3347
37489W        W80480  27.390   7.554  26.747 -0.1664 -0.0293 -0.4539
37490W        W80481  33.995  10.653  21.539 -0.0270  0.2268 -0.0147
37491W        W80482  31.881   3.878  24.922 -0.1932  0.1652 -0.0310
37492W        W80483  30.904  22.080   4.845 -0.3522 -0.1779 -0.2155
37493W        W80484  18.211  11.977  15.961  0.0419 -0.0339 -0.0791
37494W        W80485  23.672  13.434  20.184  0.4074  0.3080 -0.1132
37495W        W80486  13.430  14.140  17.475  0.2570  0.3323  0.2436
37496W        W80487  34.191  11.261  22.526 -0.1555 -0.2327 -0.2455
37497W        W80488  22.349   0.112   6.667 -0.1298  0.0452  0.4505
37498W        W80489  26.438  19.769  14.147  0.2534  0.0428 -0.1542
37499W        W80490  15.168  30.880  27.681  0.2318 -0.1155  0.1062
37500W        W80491   1.910  11.866  27.550  0.0050  0.1433 -0.1890
37501W        W80492  34.164   1.617   5.059  0.1892 -0.0937  0.0513
37502W        W80493  25.901   2.357   0.886 -0.0948 -0.1168 -0.2858
37503W        W80494  20.659  31.532  18.877  0.1970 -0.0807 -0.0713
37504W        W80495  33.523  25.957  23.491 -0.1529 -0.2653 -0.0482
37505W        W80496  32.907  10.078  17.267  0.0527 -0.1253  0.1080
37506W        W80497  27.135   2.176  19.625  0.1741  0.0597 -0.0789
37507W        W80498  28.520  27.005  16.336  0.0302  0.2108 -0.2354
37508W        W80499   0.287   9.066  17.307  0.1194  0.2347  0.1199
37509W        W80500   6.821   3.452  26.881  0.1118  0.1015  0.0741
37510W        W80501  29.283  26.032  28.186  0.1966  0.1799 -0.0315
37511W        W80502   4.750  17.603  25.132 -0.1023 -0.1438  0.1382
37512W        W80503  21.507  18.572  17.997 -0.0946 -0.1001 -0.2887
37513W        W80504  23.456  33.364  22.403  0.2164  0.1413 -0.3039
37514W        W80505  31.796  15.879  21.945 -0.2469 -0.0938  0.0787
37515W        W80506  30.617   8.591  21.127 -0.1702 -0.0101  0.1197
37516W        W80507  11.195  15.996  18.205 -0.0544  0.0892  0.0270
37517W        W80508   0.960  12.412  18.591  0.0269  0.3421  0.2378
37518W        W80509   7.929   2.951  24.201  0.0872 -0.1518 -0.3538
37519W        W80510  26.480  17.663   2.531 -0.3403  0.2768  0.2901
37520W        W80511  19.926  21.592   5.928 -0.3232  0.0082  0.2392
37521W        W80512  22.513   8.292   7.405  0.4176  0.2613 -0.0730
37522W        W80513  31.216  13.316  25.824 -0.0491 -0.2899 -0.0460
37523W        W80514  26.794  10.695  24.168 -0.1919  0.1025  0.0470
37524W        W80515  34.548  26.516  17.202 -0.0146  0.2931 -0.0070
37525W        W80516  15.850  24.374  17.430  0.1989  0.2576  0.1457
37526W        W80517  29.749  12.730  27.551  0.0361  0.1168  0.0661
37527W        W80518  25.730   9.942  24.374 -0.2612 -0.2517  0.1530
37528W        W80519  13.582   8.993  20.281  0.2692  0.1232 -0.0048
37529W        W80520  28.983  20.744  14.439  0.4138  0.1147 -0.1399
37530W        W80521  25.443   6.301  19.763 -0.0423  0.0718 -0.1726
37531W        W80522  31.886  17.765  17.017  0.0025 -0.2512  0.0498
37532W        W80523  30.585  11.420  24.596 -0.2320 -0.0220 -0.0751
37533W        W80524  12.618   7.770  21.522 -0.0433  0.0794 -0.1365
37534W        W80525  27.076  26.022  19.397  0.0970  0.1003  0.2304
37535W        W80526  27.946  10.663  26.390 -0.0062  0.0144  0.0656
37536W        W80527   6.981  18.042  15.824  0.1369 -0.1405  0.0667
37537W        W80528  31.346  30.246  20.965  0.0563 -0.0197  0.1332
37538W        W80529  23.555  17.180  22.755 -0.0327  0.1550  0.2019
37539W        W80530  16.621  25.295  21.188  0.0370  0.2062  0.0690
37540W        W80531  17.195   4.604  27.168 -0.2966  0.1991  0.2892
37541W        W80532  31.973  13.908  21.635 -0.0301  0.2131 -0.2118
37542W        W80533   6.154  16.678  27.492 -0.1852  0.3299 -0.5845
37543W        W80534  23.525  10.214  15.468 -0.2192 -0.1328  0.1263
37544W        W80535  18.427   6.812  20.249  0.1215 -0.0023  0.0177
37545W        W80536  15.929  32.805  21.561 -0.0342 -0.0632 -0.1185
37546W        W80537  20.752  22.461  13.836  0.1380 -0.0181 -0.2905
37547W        W80538  29.336   9.648  22.953  0.1286  0.0284  0.2162
37548W        W80539  24.117  21.539  19.980  0.3744  0.2567 -0.2585
37549W        W80540   2.433  17.759  29.194  0.1298 -0.1173  0.0378
37550W        W80541   4.882   4.196  26.994 -0.0831 -0.0542  0.0552
37551W        W80542  31.300  18.625   2.135 -0.0282 -0.2250 -0.1526
37552W        W80543   5.949  20.848  22.167 -0.1594 -0.0671  0.1098
37553W        W80544   4.946  19.470  14.919 -0.1052 -0.4300 -0.4178
37554W        W80545  31.806  17.940   0.840  0.2202 -0.1428 -0.0398
37555W        W80546  28.559  33.848   3.832 -0.0705 -0.1440 -0.0443
37556W        W80547  31.517  17.478  21.157 -0.2505  0.2011  0.1258
37557W        W80548  29.657   7.656  28.391  0.2364  0.0047  0.0547
37558W        W80549  29.694  33.906  14.379  0.0295 -0.0478  0.1203
37559W        W80550  29.321  11.301  21.116  0.1158 -0.1391 -0.0096
37560W        W80551  26.216   8.447  26.367  0.0216  0.3041  0.4773
37561W        W80552   0.986  21.768  21.089 -0.1227  0.1441  0.0282
37562W        W80553  28.917   9.030  19.869  0.3326  0.0168  0.1070
37563W        W80554  18.020   1.590  22.108  0.2999  0.0433  0.1001
37564W        W80555  28.814  12.574  25.354  0.0933  0.1070 -0.1793
37565W        W80556  33.351  22.419  25.195 -0.0196 -0.2665  0.0653
37566W        W80557   1.349   2.668  24.310  0.1045 -0.1073  0.1124
37567W        W80558  23.201  25.422  18.969  0.0019 -0.2223  0.0350
37568W        W80559  27.627  11.857  23.555  0.0534 -0.0649 -0.0037
37569W        W80560  17.322   4.211   9.424 -0.0603 -0.3160 -0.1290
37570W        W80561  32.731  25.422   6.565 -0.1418 -0.1022  0.1317
37571W        W80562  20.899  15.940   1.368  0.0426 -0.1543  0.1576
37572W        W80563  29.565   8.359  19.469  0.2499  0.2244 -0.1013
37573W        W80564  21.446   1.213  15.693 -0.3492  0.1506  0.0008
37574W        W80565   0.431  17.367  29.202 -0.2661  0.3008  0.0341
37575W        W80566  34.388   4.918  25.855 -0.0092  0.2713 -0.0630
37576W        W80567  22.552  30.339  27.851 -0.2264  0.1471  0.1854
37577W        W80568  18.196  21.050  14.884 -0.1095 -0.1721  0.0545
37578W        W80569  10.038  20.155  15.427 -0.0671  0.0396 -0.1750
37579W        W80570  24.210   4.833   2.568 -0.1460 -0.0012 -0.2014
37580W        W80571   7.213  17.459  21.872  0.5356  0.3488 -0.0963
37581W        W80572  32.757  31.342  18.318  0.1135  0.2339 -0.1291
37582W        W80573  18.448  12.980  16.309 -0.0384 -0.0895  0.0990
37583W        W80574  33.436  28.440  24.235 -0.1176  0.0740 -0.4700
37584W        W80575  20.885  15.732  24.492 -0.1111  0.2251 -0.0811
37585W        W80576  18.785  16.948   5.990 -0.1709 -0.2381 -0.2063
37586W        W80577   2.498  16.479  17.972  0.2428 -0.0306 -0.0484
37587W        W80578  23.492  33.535  28.941  0.2129  0.0627 -0.1125
37588W        W80579  34.480   1.309  18.370  0.0375  0.1132 -0.1597
37589W        W80580   1.805  18.558  19.928  0.1571 -0.2289 -0.2404
37590W        W80581   0.017  10.049  23.099  0.4723 -0.0888 -0.0491
37591W        W80582  31.054  16.309  22.495  0.0083  0.0815  0.3145
37592W        W80583  30.046  20.031  22.068 -0.0071  0.0444 -0.0483
37593W        W80584  22.949  12.127  23.259 -0.1175  0.0378 -0.0964
37594W        W80585  26.754  23.201  23.808 -0.1265  0.1350  0.0362
37595W        W80586   4.213  13.876  19.266 -0.2060  0.1362  0.0712
37596W        W80587  25.824  17.659  14.697 -0.2349  0.2182  0.1686
37597W        W80588   0.203  15.950  23.794  0.1832  0.0770 -0.0584
37598W        W80589   1.131   4.976  23.823  0.0203 -0.0896  0.2202
37599W        W80590   0.866   9.725  19.942 -0.0619  0.0524  0.2542
37600W        W80591   6.513   7.744  18.372  0.2482 -0.5235 -0.1374
37601W        W80592   0.515  32.991  19.445 -0.0042  0.0427 -0.1531
37602W        W80593  13.784  13.660  24.746  0.4622 -0.2087 -0.0887
37603W        W80594   5.639  17.603  17.924 -0.0611  0.0895 -0.1753
37604W        W80595  18.896  24.349  24.479 -0.0936 -0.0005 -0.2175
37605W        W80596  24.687  17.274  17.835  0.0299 -0.1049 -0.0235
37606W        W80597   1.652  23.544  20.425 -0.0636 -0.0016  0.2358
37607W        W80598  30.171  28.681  28.891 -0.2555  0.0249  0.3667
37608W        W80599  17.698   6.835  24.830  0.1726 -0.0465  0.1855
37609W        W80600  30.589   7.181  22.217 -0.0655  0.4732  0.0509
37610W        W80601   2.497  34.049  16.374  0.0819  0.2020 -0.4668
37611W        W80602   9.822  21.078  19.200  0.0879  0.0418  0.2609
37612W        W80603   1.718  15.096   2.638 -0.5062  0.0612 -0.0301
37613W        W80604  23.519  22.679  17.991 -0.1405 -0.0882 -0.2022
37614W        W80605  21.848  16.148  21.609  0.0619 -0.2011 -0.2751
37615W        W80606   0.854  17.417  21.600  0.3543 -0.0939 -0.2347
37616W        W80607   3.098   0.494  19.284 -0.1195  0.0753  0.0537
37617W        W80608  13.645  16.784  17.814 -0.3037 -0.0694 -0.2162
37618W        W80609  15.696  30.634  24.698 -0.1105 -0.1931 -0.1131
37619W        W80610  27.200  19.490  10.200 -0.1022  0.1398 -0.0336
37620W        W80611  27.939   0.113  19.930  0.1472  0.1338  0.1045
37621W        W80612  28.260  18.245  17.093 -0.2629 -0.1126 -0.1721
37622W        W80613   3.388   6.423  15.776 -0.0391 -0.1855 -0.1791
37623W        W80614   7.389   9.900  22.173  0.1329  0.0211  0.0180
37624W        W80615   2.873   1.243   8.735  0.0288  0.1797  0.2051
37625W        W80616   0.720  17.525  26.028  0.0206  0.0885 -0.1054
37626W        W80617  28.713  34.190  20.940 -0.0738 -0.3106  0.6063
37627W        W80618  34.088  16.179   6.826 -0.0413  0.2939 -0.0932
37628W        W80619  33.430  28.159  21.693 -0.0794 -0.1390 -0.0652
37629W        W80620  27.540  10.891  25.458  0.3843  0.1692  0.0149
37630W        W80621  23.360  11.400  14.184  0.0256 -0.2720  0.0710
37631W        W80622   6.993   7.055   6.405  0.0791  0.1109  0.0091
37632W        W80623  27.291  10.897  17.877  0.1172  0.0663 -0.5768
37633W        W80624  30.406  17.867  18.898  0.1689 -0.2965  0.1977
37634W        W80625  29.708  10.095  25.068 -0.2984 -0.2374  0.0531
37635W        W80626  27.360   5.421  27.895 -0.3028 -0.1656 -0.1838
37636W        W80627  24.508  31.066  18.003  0.1916 -0.0994 -0.0341
37637W        W80628   0.406  19.853  15.734 -0.0529  0.1490  0.4101
37638W        W80629  14.393   9.165  28.325 -0.1083 -0.2036 -0.2671
37639W        W80630  29.980  20.272   0.624 -0.1466  0.0147  0.0935
37640W        W80631  26.725  20.132  19.727 -0.1558  0.0416  0.2812
37641W        W80632  29.658  34.444  14.185 -0.2883  0.1316 -0.1317
37642W        W80633  27.366  16.847  21.354 -0.1127  0.1083  0.3983
37643W        W80634   6.313   5.976  20.121 -0.2591  0.3562  0.0775
37644W        W80635  30.635  23.559  20.892  0.2031 -0.1478 -0.2745
37645W        W80636  29.864  10.034   7.717  0.2591  0.1480 -0.2232
37646W        W80637  28.931  10.353  24.866  0.0142  0.0702 -0.1648
37647W        W80638   0.221  21.943  23.637  0.1363  0.2691  0.0435
37648W        W80639  29.788   9.570   4.082 -0.1152  0.1682  0.1245
37649W        W80640   2.015  13.877  19.338 -0.0536 -0.1388  0.1075
37650W        W80641  31.872  21.595  16.136  0.0448  0.1432 -0.1746
37651W        W80642   0.501   9.025  25.616 -0.0996  0.1114  0.1210
37652W        W80643  30.932  27.135   2.982  0.1596  0.1319  0.3088
37653W        W80644  23.465   3.058  19.555 -0.1312  0.4533 -0.0626
37654W        W80645  33.061  19.819  17.541  0.0920 -0.3915 -0.0419
37655W        W80646  30.715  15.456  15.515  0.0536 -0.2669  0.1030
37656W        W80647  12.458  21.779  14.418 -0.0311 -0.1930 -0.1745
37657W        W80648  22.315  20.703  25.740  0.0802 -0.0309 -0.2556
37658W        W80649  23.140   6.868  27.470 -0.0271  0.0616 -0.0875
37659W        W80650  30.657  10.630  26.487  0.1177  0.0038  0.0999
37660W        W80651  17.866  16.234  15.670 -0.0245  0.1645  0.1595
37661W        W80652  26.002  34.270  26.229  0.2855 -0.0513  0.0268
37662W        W80653  19.190  12.465  26.235  0.2072 -0.3354  0.4290
37663W        W80654  34.301  25.027  20.426 -0.2053  0.0328  0.0411
37664W        W80655  29.868  11.843  17.340  0.1626  0.2608  0.3645
37665W        W80656  21.381  32.212  19.504 -0.0455  0.0493 -0.0007
37666W        W80657   0.712   4.067  15.274  0.0748 -0.0292  0.3732
37667W        W80658  27.763  27.246  13.446 -0.4829  0.2320  0.2769
37668W        W80659  25.003  22.350  25.800  0.1163 -0.1415  0.2997
37669W        W80660  25.806  15.490  16.036 -0.2143  0.0478 -0.2264
37670W        W80661  29.536  12.756  17.527  0.0348  0.1734  0.1946
37671W        W80662  22.225  30.993  25.578 -0.0135  0.3200 -0.2523
37672W        W80663  30.979  18.428  14.724  0.2738 -0.1555 -0.0136
37673W        W80664  18.172  14.023  21.124 -0.0429  0.0753  0.0224
37674W        W80665  31.736  12.497  24.407  0.0358  0.2575  0.1430
37675W        W80666  17.951  11.072  26.801 -0.2622  0.0898 -0.2100
37676W        W80667   7.147   9.161   0.112  0.2600 -0.0534 -0.0858
37677W        W80668  10.789  19.161  19.159 -0.1579  0.0985  0.1478
37678W        W80669   0.954  12.329  20.572 -0.1021 -0.1590 -0.0203
37679W        W80670  29.191  23.976  28.212 -0.1465 -0.4617  0.3826
37680W        W80671  30.696   6.010  19.249  0.2091 -0.0807 -0.0096
37681W        W80672  19.027   0.459  27.175 -0.2061 -0.2463  0.0708
37682W        W80673  28.367  14.886  14.970  0.1543  0.3208  0.4317
37683W        W80674  27.968  22.684  15.459  0.1222 -0.0690 -0.0233
37684W        W80675  29.374  10.915  23.987  0.0472 -0.1793 -0.1069
37685W        W80676  21.230  30.473   0.104 -0.2259 -0.1485 -0.2354
37686W        W80677   4.461  18.547  21.483 -0.0884  0.0042 -0.1105
37687W        W80678  33.801  13.269  19.278 -0.1352  0.1431 -0.3460
37688W        W80679   0.043  22.545   6.740 -0.0558  0.0104 -0.2206
37689W        W80680   0.579  22.067  20.761 -0.2406 -0.2726  0.0481
37690W        W80681  29.235  15.067  15.324 -0.2058 -0.0000  0.1317
37691W        W80682  23.305  18.334   1.763 -0.0312 -0.3678 -0.0787
37692W        W80683   0.942  29.492  13.753  0.2510  0.0589 -0.0361
37693W        W80684  14.324  12.434  24.404  0.1944 -0.0676  0.0981
37694W        W80685  27.988   5.678  24.830  0.1460  0.2438  0.2336
37695W        W80686  10.580  18.067  21.640  0.4631 -0.0859 -0.2354
37696W        W80687  32.051  21.809  19.673  0.2616 -0.1350  0.3615
37697W        W80688  29.682  12.507  19.884  0.2657  0.0193 -0.0437
37698W        W80689   8.178   5.360   5.285 -0.0532 -0.2613 -0.0962
37699W        W80690  33.434  19.075  15.808  0.0620  0.1856  0.1249
37700W        W80691   0.417  31.729   0.493  0.1325  0.0588  0.3351
37701W        W80692  14.584  25.641   2.178  0.1692  0.1087  0.0507
37702W        W80693  31.035  10.932  28.841  0.1464 -0.0496 -0.0423
37703W        W80694   6.418  17.517   2.900 -0.0444 -0.2926 -0.0895
37704W        W80695  27.851  32.670  25.191  0.0161  0.0902  0.1471
37705W        W80696   5.561  21.168   6.013  0.0044 -0.0997 -0.3936
37706W        W80697  27.754  13.389   6.405 -0.2008 -0.0290  0.5070
37707W        W80698   6.028   5.234  26.881  0.1034 -0.1137 -0.2425
37708W        W80699  14.232  28.947   0.670 -0.2226  0.0376  0.0514
37709W        W80700  15.128   8.633  27.148 -0.0045 -0.1654  0.1383
37710W        W80701  12.691  15.694   8.955 -0.0314  0.0478 -0.3515
37711W        W80702   8.330  18.538   4.655  0.0747  0.1847 -0.0554
37712W        W80703  33.796  17.571  21.635  0.0147  0.0397 -0.0284
37713W        W80704  30.709  23.537   3.651  0.2921 -0.1087 -0.3595
37714W        W80705  15.539  14.429   4.547 -0.2338 -0.2085  0.0001
37715W        W80706  32.534  33.035  17.083  0.2661  0.0554 -0.0857
37716W        W80707   0.372  17.090   3.120 -0.0317 -0.1509  0.1439
37717W        W80708  26.684   6.534  14.546  0.0890  0.2298 -0.4318
37718W        W80709   7.892  13.466   2.731  0.2485 -0.0324  0.0239
37719W        W80710  34.733  19.451   4.803  0.1499  0.1417 -0.2603
37720W        W80711  27.759  18.310  27.815 -0.2822  0.0815  0.2563
37721W        W80712  22.432  17.234  12.949  0.2748  0.1691 -0.0319
37722W        W80713  31.998  16.316  21.852  0.1392 -0.0759 -0.1320
37723W        W80714  22.948  30.276  15.791 -0.1794  0.1544 -0.3429
37724W        W80715   4.042  34.303   9.300  0.2174 -0.1562 -0.4489
37725W        W80716  29.746  10.685  15.666 -0.1858  0.0445 -0.1971
37726W        W80717  33.094  14.879   8.392  0.0379 -0.0292  0.1389
37727W        W80718  22.070  26.916  22.961 -0.2854  0.0804 -0.0639
37728W        W80719  22.569   9.739   9.336 -0.1310  0.1976  0.0358
37729W        W80720  27.157  30.512  15.098  0.1625 -0.3182  0.1818
37730W        W80721   4.456  19.411  15.026  0.1214 -0.3118 -0.1409
37731W        W80722  17.534   0.829  14.785 -0.0478 -0.0313 -0.1302
37732W        W80723  30.183   3.546  27.128  0.1155  0.0411  0.0717
37733W        W80724   6.808  24.115   1.876 -0.2881 -0.2984  0.1271
37734W        W80725  20.886  13.960  25.908 -0.0993 -0.0196 -0.0683
37735W        W80726   5.568  18.545   2.870  0.3338 -0.3203  0.0969
37736W        W80727   6.544  19.358  20.418  0.1675  0.1429 -0.0713
37737W        W80728   2.855  12.925  23.839 -0.0330 -0.1828 -0.0628
37738W        W80729  34.165  20.831  19.447 -0.3737  0.1564  0.3199
37739W        W80730  12.281  26.270  24.126 -0.1090  0.0432  0.2995
37740W        W80731  21.069  23.105  23.200 -0.0545 -0.3378 -0.1426
37741W        W80732  29.558   5.491  19.597 -0.1094 -0.0823 -0.0530
37742W        W80733  33.403  28.575   0.226 -0.0939  0.0466 -0.3202
37743W        W80734  25.938  31.089   2.352 -0.2136 -0.2081 -0.2043
37744W        W80735   4.111  25.139  23.185  0.4615  0.1394 -0.3277
37745W        W80736  13.659   3.622  18.206  0.3007  0.3554 -0.0524
37746W        W80737   2.041   8.056  16.116  0.0426  0.2029 -0.1976
37747W        W80738  31.024   3.070   4.056  0.2225 -0.2651  0.0429
37748W        W80739  31.766  12.075  27.624 -0.2726 -0.3899  0.3238
37749W        W80740  32.640  34.613  21.817  0.2978 -0.1091  0.1673
37750W        W80741  12.159  21.983  23.066 -0.1268 -0.0151 -0.1576
37751W        W80742   2.980  30.609   9.365  0.0511 -0.1895  0.2547
37752W        W80743   1.418  16.771  16.973  0.2531  0.1136 -0.3471
37753W        W80744  23.575  19.492   3.314  0.4005  0.3335  0.0871
37754W        W80745  17.539   6.870  27.850  0.0663 -0.0024  0.0970
37755W        W80746  21.239   9.755  17.895 -0.3552  0.3569 -0.0840
37756W        W80747  34.495   4.774  14.031  0.0439 -0.0408 -0.1192
37757W        W80748  34.414  33.404  16.605 -0.3357  0.1554  0.0092
37758W        W80749  15.482  16.896  26.547  0.2497 -0.1630 -0.0242
37759W        W80750  14.839  32.458  19.415 -0.1359  0.2641 -0.0828
37760W        W80751   1.535   0.899  23.913 -0.1658 -0.2253 -0.1029
37761W        W80752  32.426  27.124  17.953  0.1275 -0.1896 -0.1311
37762W        W80753  28.928   6.387   1.597 -0.3450  0.2529 -0.2536
37763W        W80754  13.631  18.796  16.898  0.1623 -0.2272 -0.1288
37764W        W80755   7.884  34.069  29.017 -0.0658  0.2844  0.2639
37765W        W80756  26.156   9.799  15.086 -0.0571 -0.0183  0.0903
37766W        W80757   0.278  20.964  15.820  0.0428  0.0338  0.1175
37767W        W80758   4.218  16.211  27.973 -0.0737 -0.1009  0.0022
37768W        W80759  19.294  10.451  16.498  0.0800  0.0294 -0.1266
37769W        W80760  25.109  22.475   1.673  0.2171 -0.1889  0.0968
37770W        W80761  33.172   7.083  25.605 -0.0312 -0.0691  0.0792
37771W        W80762  22.789  30.183   6.351 -0.1046  0.2741 -0.1340
37772W        W80763  31.733  28.132  23.311 -0.2749 -0.0940  0.3217
37773W        W80764  12.364   8.146  19.624 -0.1342 -0.3558  0.0900
37774W        W80765   1.236   7.450   0.781 -0.1167  0.1224 -0.0478
37775W        W80766  34.436  11.400  27.934 -0.1901 -0.0083  0.0110
37776W        W80767  18.086  11.752   3.681 -0.1202 -0.0543  0.0116
37777W        W80768   9.839  27.903  22.409  0.0245  0.0625 -0.0330
37778W        W80769  29.256   5.059  23.095 -0.2726 -0.2737  0.0212
37779W        W80770   1.555  32.736  20.054 -0.1462  0.0984  0.1311
37780W        W80771   2.738  20.843   6.210 -0.0920  0.2334  0.1819
37781W        W80772   5.327   8.555   5.602 -0.3264 -0.0576  0.0714
37782W        W80773   2.865  33.472  15.683 -0.2213 -0.1016 -0.1094
37783W        W80774  22.372  16.840   3.212  0.0599  0.0470  0.1422
37784W        W80775   6.196  26.098  16.495  0.0914 -0.1536 -0.2538
37785W        W80776   3.176  15.774   7.634  0.1218  0.0612  0.0122
37786W        W80777  28.628  24.555  23.190 -0.0735 -0.1434 -0.0507
37787W        W80778  26.669  17.781  28.025 -0.0087  0.2524  0.1215
37788W        W80779   2.504  10.983   2.885  0.1682 -0.3989 -0.2453
37789W        W80780   1.856   9.617  25.838  0.2026 -0.3513 -0.1087
37790W        W80781  23.521  20.812  20.639  0.2825  0.0333 -0.0480
37791W        W80782  21.426  19.800  18.155 -0.0198  0.0518 -0.2241
37792W        W80783   4.023  21.079  25.834  0.2873 -0.2331 -0.0489
37793W        W80784  32.229  34.054  16.530  0.2026 -0.0896  0.0900
37794W        W80785  25.372   5.655  26.076 -0.0564 -0.0071 -0.1590
37795W        W80786   0.694  30.588  26.909 -0.2145 -0.1355  0.1249
37796W        W80787   0.276  13.605   2.391  0.0957  0.1977  0.1064
37797W        W80788  32.384  17.528  17.078  0.0957 -0.1731  0.0086
37798W        W80789  20.780  18.931  16.361 -0.1491  0.3950  0.1116
37799W        W80790  15.547  28.610   2.892 -0.4411 -0.1650 -0.0679
37800W        W80791   1.389  18.531   0.545 -0.2077 -0.1437 -0.1646
37801W        W80792  33.637   7.929  23.610  0.0603 -0.0239  0.1213
37802W        W80793  26.970  23.843  26.392 -0.2722  0.1600 -0.2101
37803W        W80794  17.842  20.133  16.231  0.1434  0.1991  0.1404
37804W        W80795   6.063   3.248  23.870  0.0680  0.0409 -0.1381
37805W        W80796  34.372  13.698  18.008 -0.0203  0.3716 -0.1412
37806W        W80797  26.790  13.437   4.117  0.0574  0.2470  0.0786
37807W        W80798  28.903   4.954  14.136  0.1637  0.0834  0.2500
37808W        W80799   8.015  18.250   4.914  0.2192  0.2211 -0.0934
37809W        W80800  24.853  19.774  15.550 -0.0570 -0.0677  0.0530
37810W        W80801   5.472  11.125  20.386 -0.1372  0.0828  0.0801
37811W        W80802  28.260   7.775  25.552 -0.0946  0.2718 -0.0571
37812W        W80803  22.779  22.933   0.149 -0.0865  0.1827  0.1984
37813W        W80804  22.928   2.125  24.399  0.1522  0.2077  0.0095
37814W        W80805  27.870  10.308   3.030 -0.1106 -0.0280  0.1184
37815W        W80806   1.765  25.466   3.324  0.0459  0.5035  0.0702
37816W        W80807  24.221  19.707  25.179  0.2537  0.0336 -0.0831
37817W        W80808  33.364  27.577  14.226  0.1451 -0.0363  0.1458
37818W        W80809  30.572  17.754  15.050 -0.0943 -0.1852  0.1763
37819W        W80810  25.225  32.450   5.980  0.2533 -0.0464  0.3304
37820W        W80811   0.270  29.870  26.420 -0.1890 -0.2093  0.1563
37821W        W80812   8.025  15.610  17.849 -0.1584  0.0174 -0.1139
37822W        W80813   5.811  18.242  19.403  0.2379  0.0508 -0.1286
37823W        W80814  17.379  27.925  24.223 -0.0966 -0.0325  0.1898
37824W        W80815  29.956  18.452  23.162 -0.0050  0.1440 -0.0039
37825W        W80816  32.798  17.087  21.668  0.2842  0.0638  0.3151
37826W        W80817  18.302   0.957  29.201  0.3893  0.2437  0.0869
37827W        W80818   0.216  11.789  17.880 -0.0453 -0.0722  0.0537
37828W        W80819  26.403  21.797  23.925  0.0322 -0.1154 -0.4331
37829W        W80820   3.163  16.918   0.089  0.0550 -0.0149  0.1368
37830W        W80821   8.477  31.596  17.704 -0.0603  0.1855  0.0483
37831W        W80822  24.745  22.640   0.519 -0.0868 -0.0272  0.0284
37832W        W80823   7.671  25.673  17.040 -0.1532 -0.2915 -0.0945
37833W        W80824  33.482  11.629  26.565 -0.0244  0.0073  0.0010
37834W        W80825  21.740  24.268  16.742  0.2011 -0.1959 -0.0815
37835W        W80826  28.449   8.295  18.635  0.0936 -0.4193  0.4163
37836W        W80827   1.494  23.215   9.056 -0.1243 -0.3462  0.0172
37837W        W80828  15.140  19.380  13.688 -0.1342  0.1906 -0.3563
37838W        W80829  28.353  29.792  17.847  0.1614  0.0697  0.0756
37839W        W80830  32.496   0.188  20.649 -0.0940  0.2443  0.1519
37840W        W80831  30.818  17.286  21.185 -0.1375  0.4220 -0.1143
37841W        W80832  29.759  23.410  23.297  0.0086  0.2666  0.0043
37842W        W80833  28.889   4.272  21.271  0.3229 -0.3219  0.1489
37843W        W80834   2.904   4.188   5.634 -0.1158  0.0358  0.0720
37844W        W80835  21.979   4.613  17.884  0.0441  0.1534  0.1062
37845W        W80836  22.490  33.000   4.664  0.0722 -0.1995 -0.1145
37846W        W80837  33.149  11.789  20.560 -0.4343  0.0225  0.0281
37847W        W80838   5.540  17.052  20.830  0.1163  0.0471  0.0623
37848W        W80839  31.949  26.144  20.548  0.2310 -0.2587 -0.3527
37849W        W80840  17.325  31.297  14.408 -0.2141 -0.0882  0.0317
37850W        W80841   9.957   5.749  28.815  0.0013 -0.0304 -0.3245
37851W        W80842   0.142   7.532   3.528 -0.4230  0.1322  0.0020
37852W        W80843  30.959  29.472  17.651  0.0599  0.3122 -0.3402
37853W        W80844  25.049  18.950  12.948 -0.1995  0.0615  0.4612
37854W        W80845  29.735  22.162  17.362  0.1019 -0.0070  0.2252
37855W        W80846   1.410  12.180   0.997 -0.0062  0.0183  0.1273
37856W        W80847   5.675  22.791  21.283 -0.3111 -0.0080 -0.0420
37857W        W80848   1.124  10.364  21.058  0.2827  0.1039  0.0441
37858W        W80849  19.515   7.748  21.405  0.1625  0.0562 -0.3239
37859W        W80850  29.205   8.413  22.463  0.0502 -0.0686  0.0484
37860W        W80851  24.926  18.526   5.630  0.0605  0.1406  0.0212
37861W        W80852  33.786   1.370  20.629 -0.2199 -0.0102 -0.0967
37862W        W80853   3.883  28.510   5.215 -0.3457  0.0400 -0.5227
37863W        W80854  24.815  28.657  19.152  0.2492  0.2032  0.2741
37864W        W80855  30.362  24.750  18.521  0.2965  0.1860  0.0963
37865W        W80856  29.678  17.722  18.431 -0.1823  0.0984 -0.2239
37866W        W80857   3.419  15.915  23.989  0.2777  0.0123  0.0961
37867W        W80858  21.100  33.528  18.295 -0.0785  0.3697  0.2547
37868W        W80859   8.592  23.223  21.413  0.0946 -0.1456 -0.1187
37869W        W80860  30.152  18.456   7.823  0.1849  0.0785  0.2299
37870W        W80861   2.487   7.822   9.757  0.1080 -0.2549 -0.2456
37871W        W80862  29.243  18.769  26.138  0.0004  0.4369 -0.4083
37872W        W80863  32.768  23.553  22.797 -0.1931  0.3474 -0.1210
37873W        W80864  32.231   9.246  25.369 -0.1230 -0.0917 -0.1283
37874W        W80865  17.095   6.630  16.530  0.0222  0.2693  0.0848
37875W        W80866  19.031  14.568  21.296 -0.0936 -0.1758  0.1060
37876W        W80867  29.972  24.887  16.376  0.0717 -0.1683 -0.0369
37877W        W80868   9.560  22.468  14.870 -0.0545 -0.1657 -0.1490
37878W        W80869  25.244  27.635  15.186  0.3220  0.0131  0.2536
37879W        W80870  30.861   2.028   6.913 -0.2884 -0.2789 -0.0299
37880W        W80871  21.438   5.411  27.681  0.2368  0.2649  0.1097
37881W        W80872  23.235  16.021  23.295 -0.0580 -0.1551 -0.0140
37882W        W80873  29.722  24.453  16.291 -0.0966  0.0612 -0.0059
37883W        W80874  33.540  14.207  20.681  0.0289 -0.1021 -0.0822
37884W        W80875  34.478   6.012   0.817  0.1863 -0.2171 -0.1377
37885W        W80876  25.616  23.287   0.127 -0.1430  0.1854 -0.1524
37886W        W80877  29.719  17.425  22.337 -0.0241 -0.0222 -0.0601
37887W        W80878  32.967  31.087  22.302 -0.2795 -0.1035  0.0892
37888W        W80879  12.971  12.610  21.057  0.1678 -0.1219 -0.0234
37889W        W80880  29.576  15.648   0.518 -0.1032  0.4434  0.5259
37890W        W80881  12.865  18.362  14.363 -0.2351  0.3194  0.0298
37891W        W80882   9.918  17.692   7.787 -0.1865  0.0900  0.0563
37892W        W80883  30.334   3.543  18.401 -0.1901  0.0994 -0.5187
37893W        W80884  23.625  24.162  27.629 -0.2645 -0.2932 -0.0342
37894W        W80885  20.564  33.293  24.425 -0.3299  0.3063  0.2851
37895W        W80886  26.430  20.808   9.459  0.0844  0.0050 -0.1121
37896W        W80887   5.319  14.072  27.083 -0.0035  0.1908  0.1746
37897W        W80888  17.346  27.984  28.097  0.0305 -0.0465  0.0566
37898W        W80889  14.186  21.050  23.240  0.3234  0.2910 -0.0925
37899W        W80890  21.386  19.805   2.956  0.1719 -0.0764  0.1968
37900W        W80891   6.090  32.748   9.944  0.1236  0.1430 -0.1397
37901W        W80892   1.047  15.784  17.618  0.2472  0.1709  0.2430
37902W        W80893  21.174  30.903  14.936 -0.0094 -0.2012  0.1607
37903W        W80894  32.304   4.736  15.557 -0.2365  0.0455  0.0785
37904W        W80895   9.720   6.504   4.807 -0.0309  0.1644  0.0176
37905W        W80896  29.227  26.524  19.243 -0.1262  0.0369  0.0612
37906W        W80897  26.283  14.876  19.366 -0.0964  0.1432 -0.2559
37907W        W80898  22.344  17.398  18.830  0.1683 -0.0967 -0.3010
37908W        W80899  22.103   8.889  21.147 -0.0047  0.2198 -0.0512
37909W        W80900  25.212  11.167  16.785  0.1436  0.2133  0.1144
37910W        W80901  29.290  17.254   3.873 -0.1875 -0.1085 -0.2601
37911W        W80902  20.878   5.953  28.297  0.2230  0.2332 -0.0486
37912W        W80903  20.816  24.815   5.229 -0.2832 -0.0742  0.0291
37913W        W80904  25.774  19.182  19.451 -0.3167 -0.4609 -0.2141
37914W        W80905  28.082  23.177   6.413 -0.0729 -0.1368 -0.0067
37915W        W80906  29.898  15.785  20.131  0.1376 -0.1193  0.1293
37916W        W80907  32.571  28.053  21.800  0.0041  0.0805 -0.1273
37917W        W80908  26.140   4.671   3.230  0.0792 -0.1383  0.3310
37918W        W80909  13.762  18.991  13.763 -0.0535 -0.0231  0.0822
37919W        W80910   8.692  19.259  15.728  0.1760  0.2773  0.1286
37920W        W80911  31.980  21.633   8.963 -0.0452 -0.0200 -0.0046
37921W        W80912   6.932  21.583  26.998  0.0913 -0.1302  0.0569
37922W        W80913   0.632  29.208  18.237 -0.0031 -0.0577 -0.0093
37923W        W80914  30.005  17.138  25.858  0.1287  0.2806  0.0865
37924W        W80915   2.800   2.948  28.827  0.1849  0.0948  0.0169
37925W        W80916  27.307  23.895   1.947 -0.1689 -0.2943 -0.2597
37926W        W80917  32.347  10.537  24.477  0.0179  0.1203  0.2212
37927W        W80918  33.803  20.517   5.034 -0.5526 -0.0647  0.1154
37928W        W80919  34.446  30.789  23.774 -0.0303 -0.0021 -0.1723
37929W        W80920  23.779  11.575  15.020  0.0754  0.0769 -0.1969
37930W        W80921  25.132  21.267  26.889 -0.0519 -0.0010  0.1762
37931W        W80922  31.978   7.101  28.733 -0.1619  0.1209  0.0503
37932W        W80923  27.519  22.259  23.676  0.0725  0.2164 -0.0503
37933W        W80924  20.123   8.647  23.725 -0.1391  0.1405 -0.0414
37934W        W80925  31.992   7.847  13.900 -0.2934  0.3523 -0.1486
37935W        W80926   7.009   8.731   4.142 -0.0827 -0.0638 -0.0533
37936W        W80927  24.954  17.698  23.153 -0.1369  0.1531 -0.1583
37937W        W80928  18.989   9.216  13.849  0.1273  0.1145 -0.1083
37938W        W80929  29.167  14.996  23.473 -0.0037  0.3479  0.3474
37939W        W80930  20.731  10.883  21.523 -0.0207  0.0746  0.0218
37940W        W80931  22.413  34.311  17.572 -0.3876 -0.0454 -0.4455
37941W        W80932  29.337  33.718  15.689 -0.0990 -0.3381  0.1260
37942W        W80933  28.019  11.134  28.511  0.3053  0.0053  0.1422
37943W        W80934  13.919  15.870  22.970 -0.0177 -0.2036 -0.0857
37944W        W80935  21.468  12.120   0.795 -0.1637  0.3236  0.0583
37945W        W80936  25.195   9.367  23.671  0.0780 -0.0974  0.2342
37946W        W80937  25.711  20.773  13.964 -0.0411 -0.0269 -0.1787
37947W        W80938  30.364  10.017   4.288 -0.1768 -0.2457 -0.1637
37948W        W80939  29.576  30.292  20.754 -0.1510  0.2728  0.1264
37949W        W80940  23.679  29.333  13.091  0.2012 -0.2673  0.2130
37950W        W80941  30.859  19.934  22.365  0.0399  0.1409 -0.1241
37951W        W80942  26.212   9.223  27.556  0.0200  0.1022  0.0366
37952W        W80943   5.039  20.889  15.646  0.2880  0.0376 -0.0420
37953W        W80944   0.918  19.442  28.785 -0.2743  0.3204  0.0981
37954W        W80945  13.800  29.565  15.069  0.0182  0.3429 -0.0583
37955W        W80946   5.783  10.416  27.065  0.2592 -0.3425  0.0988
37956W        W80947  14.013  13.047  22.270  0.1183  0.3048 -0.0412
37957W        W80948  12.791  16.814  14.508  0.0066 -0.0495  0.2861
37958W        W80949   6.312  23.629   6.457 -0.0623  0.2178  0.3847
37959W        W80950  21.898  27.582  27.201  0.2789  0.0225 -0.1527
37960W        W80951   2.569  24.009  19.512 -0.2518  0.3279  0.0325
37961W        W80952   5.502  23.659  14.718  0.0801 -0.1892  0.1659
37962W        W80953  15.073  21.395  27.048  0.2748  0.1330  0.1251
37963W        W80954  30.575  30.006   4.907 -0.1048  0.0022  0.2722
37964W        W80955  14.657  24.517  21.663  0.1042  0.3547 -0.0067
37965W        W80956  23.362  18.512  28.946  0.2773  0.3254  0.0434
37966W        W80957  16.706  11.917   0.177  0.0778  0.1659  0.1171
37967W        W80958  34.087  12.591  18.661 -0.3826  0.3211  0.2690
37968W        W80959  34.156  18.102  25.569  0.1489 -0.0924  0.1026
37969W        W80960  28.662  10.822  26.137  0.1608  0.1557 -0.1297
37970W        W80961   3.867  24.373  19.521 -0.4221 -0.0441 -0.4842
37971W        W80962  18.682  13.537   5.613  0.0797  0.1275 -0.0400
37972W        W80963  15.896   5.231  22.321 -0.0500  0.0597  0.3090
37973W        W80964   1.770  23.634  22.574  0.1245 -0.3462  0.0513
37974W        W80965  10.602  27.394   1.175  0.0887 -0.0264 -0.0580
37975W        W80966  32.430   7.124  17.627  0.2543  0.1709  0.1399
37976W        W80967   1.698  14.180   5.942 -0.0051 -0.3148  0.3160
37977W        W80968   3.582   7.622   4.212 -0.1292 -0.0091 -0.0914
37978W        W80969   0.264   8.102  16.681 -0.2369 -0.1264  0.0380
37979W        W80970  26.784   5.907  17.300  0.3338 -0.1712  0.2157
37980W        W80971   0.197  18.347  23.522  0.1835 -0.4211  0.0120
37981W        W80972   7.167  18.807  26.877 -0.1794  0.2546  0.0665
37982W        W80973  11.518  16.589  23.606 -0.0083 -0.0239  0.0161
37983W        W80974  15.921   4.189  23.603 -0.0562  0.3045 -0.0970
37984W        W80975  18.218  28.895   1.361 -0.2374  0.1676  0.0788
37985W        W80976  27.911  11.567  25.968  0.2867  0.0441 -0.1687
37986W        W80977   1.178  23.055  20.973 -0.0461  0.0848 -0.1985
37987W        W80978  10.936   7.595  18.263  0.0307 -0.2233 -0.0768
37988W        W80979  29.244  13.245  22.570  0.0243 -0.2001  0.1085
37989W        W80980  22.628  23.604   8.185  0.0396 -0.1128 -0.0592
37990W        W80981  21.891  11.220  17.485  0.2100 -0.1010 -0.1223
37991W        W80982  20.157  30.074  17.676  0.1311 -0.0482  0.1552
37992W        W80983  29.867   9.622  15.696  0.2577 -0.0315  0.2637
37993W        W80984  14.926   2.632  16.773 -0.0221 -0.1321 -0.0097
37994W        W80985   6.462   6.819  17.965 -0.0541 -0.1026 -0.1855
37995W        W80986  22.531  18.864   3.902 -0.0865  0.0497  0.1408
37996W        W80987   8.612  15.061   2.999 -0.2747  0.1938 -0.3849
37997W        W80988  29.573  13.023   4.991  0.2957 -0.0694 -0.2246
37998W        W80989  21.852  19.325  27.068  0.4378  0.5830 -0.3722
37999W        W80990  14.477   9.460   5.869  0.2053 -0.0211  0.1400
38000W        W80991   9.246  15.675   3.241 -0.2255  0.0803 -0.1024
38001W        W80992  28.463  16.262  22.060 -0.0091 -0.1125 -0.1031
38002W        W80993   8.965  21.419  22.132  0.1330  0.2672  0.0604
38003W        W80994  32.780  16.004  10.591  0.0308  0.0945  0.1315
38004W        W80995   8.695  21.910  23.596  0.1457 -0.1982  0.0337
38005W        W80996  29.458  13.794  27.994  0.2149  0.0715 -0.2289
38006W        W80997   3.017  24.508  20.227  0.0802 -0.2376 -0.0337
38007W        W80998  13.495   9.422   2.807 -0.1657 -0.2521  0.0386
38008W        W80999  18.284  34.602  17.998  0.1649 -0.1107 -0.3072
38009W        W81000  17.143  11.660  15.497 -0.0672 -0.1167 -0.1373
38010W        W81001   4.071  31.701  27.059  0.0961 -0.0772 -0.0853
38011W        W81002  24.012  20.897  13.691 -0.1050 -0.1527  0.0775
38012W        W81003  24.273  24.872  24.557  0.1041  0.1569  0.0227
38013W        W81004   3.377  12.527   0.673 -0.0704 -0.1744 -0.4374
38014W        W81005  34.511  14.609  17.699 -0.1131 -0.2505  0.3749
38015W        W81006  31.770  14.706  17.828 -0.2320 -0.0842  0.2057
38016W        W81007  12.869   4.208   4.988  0.2315 -0.0145 -0.1299
38017W        W81008  10.293  28.502   5.353  0.0756 -0.0189 -0.1093
38018W        W81009  27.035  20.336  18.770  0.1502 -0.1746 -0.3349
38019W        W81010  31.486  15.690  25.955  0.0828 -0.1620  0.0354
38020W        W81011  30.923  13.430   9.560  0.1351  0.2489  0.2991
38021W        W81012  32.618  11.260  16.574 -0.1204 -0.1684 -0.0568
38022W        W81013   2.011  21.342  26.063 -0.0256  0.3611  0.1377
38023W        W81014   2.951  28.704  21.973 -0.1300  0.0597  0.1363
38024W        W81015  28.782   1.764   3.588  0.0152  0.0723 -0.2109
38025W        W81016  31.465  30.044  19.248  0.0302 -0.3826  0.0268
38026W        W81017  29.454  17.816  22.875 -0.0898 -0.4468  0.0175
38027W        W81018  31.446   2.957  14.592 -0.0453 -0.1603  0.0414
38028W        W81019  26.654  18.854  27.940 -0.2636  0.0640 -0.0094
38029W        W81020  13.885  20.824  17.075  0.1969 -0.1515  0.0097
38030W        W81021  11.628   8.201  23.807  0.3237  0.0939  0.1131
38031W        W81022  17.034   6.151  22.005 -0.0755  0.0477  0.4224
38032W        W81023   4.640   3.465   5.642 -0.0055  0.1592 -0.1906
38033W        W81024   5.440  17.558   2.047 -0.0880  0.0491  0.2886
38034W        W81025  24.620  16.865   1.546  0.0402  0.1481  0.3168
38035W        W81026   8.542  24.083  23.064  0.1392  0.0693 -0.3856
38036W        W81027  30.816  18.305  26.716 -0.0320 -0.1441 -0.2037
38037W        W81028  33.140  14.131   0.448  0.3210 -0.3685 -0.1314
38038W        W81029  21.916  24.629   0.357  0.1422  0.0497 -0.1456
38039W        W81030   6.048  30.352  16.617 -0.2835 -0.3584 -0.2307
38040W        W81031  25.061   3.034  25.823  0.4805 -0.1438 -0.3983
38041W        W81032  20.886  23.048   0.955 -0.1186 -0.2058  0.0479
38042W        W81033   2.479  14.774  18.451 -0.2582  0.2179  0.1624
38043W        W81034  28.568   4.419  14.733  0.0455  0.0021  0.4079
38044W        W81035  25.100  28.017  21.175 -0.2291  0.1926  0.0732
38045W        W81036  30.030   9.555  22.213  0.5778  0.3683 -0.1013
38046W        W81037  30.017  18.526   2.240  0.1435  0.2967 -0.3108
38047W        W81038  16.911  11.937  14.370 -0.0591 -0.2546  0.3636
38048W        W81039  23.851  10.191  14.506 -0.1730  0.2576  0.2332
38049W        W81040  30.274   1.533  23.475 -0.1915 -0.2261 -0.2552
38050W        W81041   6.033  26.645   4.891 -0.0574  0.0732 -0.0052
38051W        W81042   6.559   9.418  26.987 -0.0166  0.2318 -0.0582
38052W        W81043  32.915  15.119  11.331 -0.2358 -0.0335 -0.1611
38053W        W81044   5.462  12.990  25.706 -0.0999 -0.1506  0.2205
38054W        W81045  24.519  31.511  17.164 -0.0768  0.1854 -0.1249
38055W        W81046  13.585  26.429  28.305  0.1009 -0.1170 -0.2492
38056W        W81047  34.239  16.067  19.588  0.1262 -0.1320  0.0715
38057W        W81048  15.214  14.835   2.814 -0.1027 -0.3199  0.0191
38058W        W81049  31.240  30.677  17.015 -0.1904 -0.0664  0.0311
38059W        W81050  25.181   3.462  21.890  0.1483 -0.0207 -0.3941
38060W        W81051  28.858  33.118  14.635 -0.2790 -0.1088  0.1749
38061W        W81052  28.965  24.490  14.109  0.0320 -0.1945 -0.0579
38062W        W81053  24.190   0.452   3.703  0.1304 -0.3962  0.0019
38063W        W81054  25.506  20.460  26.364  0.0232  0.1834 -0.1043
38064W        W81055   4.826   4.123  27.630 -0.0402 -0.1660 -0.0059
38065W        W81056  26.155   2.459  17.389  0.2477 -0.5481 -0.0125
38066W        W81057  29.219   4.671   3.157 -0.1617  0.1540 -0.0583
38067W        W81058  25.587  30.100  18.268  0.0268  0.2071 -0.0697
38068W        W81059   2.610  19.502   4.561 -0.1501  0.3063 -0.1491
38069W        W81060  32.764  12.380  10.054 -0.0661  0.2804 -0.1323
38070W        W81061  21.384  15.677   9.024 -0.0016  0.1714  0.0780
38071W        W81062   5.503   6.626  22.321  0.1688  0.2734 -0.1438
38072W        W81063  26.028  11.031  26.581  0.3370 -0.0190  0.1337
38073W        W81064  32.507  31.014  26.155 -0.2320  0.1999 -0.1058
38074W        W81065  14.626  11.822  19.328  0.0261 -0.1618  0.6106
38075W        W81066  16.891  32.010  27.070 -0.3688  0.1485  0.1291
38076W        W81067  31.329  16.386   0.784 -0.0384 -0.1627  0.0975
38077W        W81068   4.315  21.659  22.036 -0.0559 -0.1985 -0.2255
38078W        W81069   3.542   1.224  20.648 -0.3066  0.3197 -0.2232
38079W        W81070   1.169  24.942  17.829 -0.0832 -0.1037  0.1604
38080W        W81071  11.349  19.689  27.992  0.1944 -0.0476  0.0290
38081W        W81072  22.611  26.133  23.244 -0.0371 -0.0853  0.0268
38082W        W81073  24.177  29.788  28.515 -0.2011 -0.1386  0.0210
38083W        W81074  14.652  27.015  27.971 -0.0832  0.2795 -0.1754
38084W        W81075  33.477  11.735   2.266  0.0724  0.0083  0.0083
38085W        W81076  33.430   1.309  25.655 -0.1626 -0.1139  0.0305
38086W        W81077  29.527  18.281  28.276 -0.1787 -0.0304 -0.3066
38087W        W81078   8.553  14.860  21.838 -0.0061  0.2399  0.0199
38088W        W81079  28.986  20.692  25.507  0.1141 -0.1876  0.1923
38089W        W81080  23.415  14.321  19.339  0.0913  0.0300  0.1021
38090W        W81081  28.648  21.337  18.750  0.1935  0.1450 -0.1744
38091W        W81082  31.639   3.800  18.975 -0.0789 -0.1151  0.0556
38092W        W81083  28.061  20.386  29.199 -0.0379 -0.2034  0.0629
38093W        W81084  27.744  18.597   7.901 -0.3936 -0.0824 -0.1834
38094W        W81085  23.123  21.176  17.262  0.0261  0.1220 -0.2168
38095W        W81086  33.074  16.193   8.538 -0.3809  0.0881  0.0199
38096W        W81087  11.750  15.914  17.468  0.3381 -0.1727 -0.1646
38097W        W81088  23.926  16.134  20.714 -0.0156  0.1265  0.2212
38098W        W81089  30.041  16.863  26.606  0.1036 -0.1545  0.0011
38099W        W81090   2.057  34.573  24.118  0.0999  0.0116 -0.1556
38100W        W81091  20.669  17.360   6.287  0.0245 -0.0269  0.1949
38101W        W81092  17.107  24.839  24.196  0.0023  0.2998 -0.1194
38102W        W81093   9.617   9.895  19.676  0.0918 -0.2350 -0.4889
38103W        W81094   4.600   8.485   3.681  0.2251 -0.1001  0.0420
38104W        W81095  29.408  17.598   0.311  0.0840 -0.0949 -0.1998
38105W        W81096  23.631  11.951  24.718  0.1263 -0.0426  0.0619
38106W        W81097   7.502   8.061   2.583  0.0326 -0.1028  0.2863
38107W        W81098  26.816  15.304   8.948  0.4717  0.2096  0.0602
38108W        W81099  30.709  19.300  19.677 -0.1807  0.1592 -0.0978
38109W        W81100   6.471  12.921  20.022 -0.0656 -0.2144  0.0684
38110W        W81101  21.650   5.766  21.162  0.1501  0.0359 -0.1706
38111W        W81102   5.658  26.203   8.386 -0.0705 -0.0505  0.1609
38112W        W81103  15.408  13.595  16.359 -0.0870  0.4095 -0.1324
38113W        W81104   3.589  27.648  19.457  0.1280 -0.3944 -0.2504
38114W        W81105  28.143  30.934   0.771 -0.2136 -0.0435  0.1009
38115W        W81106   1.885  23.827  27.585 -0.0403 -0.0450 -0.2863
38116W        W81107  34.583  10.351  24.011  0.1354  0.0116 -0.0209
38117W        W81108  17.573  26.481   8.880 -0.0401  0.3030  0.2306
38118W        W81109  34.132  12.636   6.144  0.0071 -0.0322  0.2380
38119W        W81110  26.776  19.225   8.984  0.1536 -0.1517  0.3304
38120W        W81111   9.038   5.040  26.312 -0.0336  0.1547  0.1757
38121W        W81112  22.353  23.670   6.201  0.2806  0.0594 -0.1674
38122W        W81113  32.166   6.882   2.536 -0.0570 -0.2834 -0.0929
38123W        W81114  27.849   6.348   6.127 -0.3423 -0.0403 -0.1916
38124W        W81115   0.531  19.200  28.335 -0.2242 -0.3802 -0.1532
38125W        W81116  32.417   2.224  26.778 -0.3227 -0.2900 -0.0595
38126W        W81117   1.712  19.078   1.466 -0.2906  0.0276  0.2228
38127W        W81118  23.813   3.449  27.513 -0.3144 -0.0079 -0.1412
38128W        W81119  22.877   1.890   2.383 -0.1888 -0.0662  0.1343
38129W        W81120  28.587  11.615   4.033 -0.3000 -0.1852 -0.0812
38130W        W81121  20.776   8.535  27.542  0.0052 -0.0067  0.2163
38131W        W81122  31.378  25.519  26.855  0.0850 -0.0284  0.1235
38132W        W81123   5.922  30.838   0.694  0.0447 -0.0949 -0.1564
38133W        W81124  20.154   3.286   2.044 -0.1193 -0.1228  0.1268
38134W        W81125   8.776   1.226  23.888  0.0106 -0.0079  0.0748
38135W        W81126  34.234  13.408   1.341  0.2276  0.1158  0.1812
38136W        W81127   7.716   4.720  25.453  0.0937 -0.0237 -0.1338
38137W        W81128   5.079  29.304  15.556 -0.1751 -0.0984  0.0237
38138W        W81129  29.037  12.470   7.843  0.2311  0.0761 -0.1091
38139W        W81130  28.734  21.852  23.653 -0.2163 -0.0642  0.0216
38140W        W81131  26.820  19.719  27.839  0.0428 -0.0202  0.1431
38141W        W81132  30.312  27.683  16.226 -0.1298 -0.1760 -0.1062
38142W        W81133  28.482  24.720  17.290 -0.0798  0.1050 -0.3300
38143W        W81134   6.057  28.606   7.569 -0.2175  0.0691 -0.0764
38144W        W81135  24.953  16.428  23.236  0.1082  0.2687  0.2289
38145W        W81136  34.048   8.365  26.290 -0.0065  0.0652 -0.2462
38146W        W81137  33.485  25.734  17.004  0.2851 -0.2050 -0.0278
38147W        W81138   5.819  16.077   3.703 -0.1421  0.0149  0.2432
38148W        W81139   2.953  22.912   9.318  0.2946 -0.1589  0.2696
38149W        W81140   3.516  13.196  22.573 -0.1307 -0.2736 -0.1574
38150W        W81141   2.790  30.544  26.652  0.0909  0.2511  0.2502
38151W        W81142  20.612  27.783  28.535  0.0489 -0.0973 -0.0011
38152W        W81143  25.769  16.158  18.780 -0.0545 -0.0467 -0.1522
38153W        W81144   9.876  23.805   3.953 -0.0156 -0.1676  0.0488
38154W        W81145  17.438   9.335  15.414 -0.3889 -0.0123 -0.1832
38155W        W81146  28.658  20.856   0.607 -0.3180 -0.0519  0.0189
38156W        W81147   3.928  29.555   9.800 -0.0064  0.2139  0.2110
38157W        W81148  20.782  19.653   0.208 -0.0310 -0.0972  0.1114
38158W        W81149   3.866   0.564  24.134 -0.0889  0.3063  0.2654
38159W        W81150  16.810  12.406  14.513  0.0287  0.2542  0.1835
38160W        W81151   3.486  29.390  16.173  0.2868 -0.1809  0.0606
38161W        W81152  26.633   9.249  25.050  0.2792 -0.1100 -0.1740
38162W        W81153  25.395  20.844  14.357  0.0098 -0.2266  0.0624
38163W        W81154  14.443  21.635  26.834  0.3138  0.2986 -0.0480
38164W        W81155   6.954  18.656  22.579 -0.0197 -0.0252 -0.2793
38165W        W81156  29.959  18.041  29.163 -0.0659 -0.0079  0.0082
38166W        W81157  12.787  11.466   8.077 -0.2867  0.0616  0.0557
38167W        W81158   0.667   3.719  17.162 -0.1816  0.0810  0.0416
38168W        W81159   0.493  34.575  28.952 -0.1956 -0.0439  0.1574
38169W        W81160  33.947  24.490   7.345 -0.1245 -0.2642 -0.1265
38170W        W81161  25.587  13.931  18.337  0.1426  0.0990 -0.3308
38171W        W81162  21.535  33.844  23.597  0.2378 -0.0277  0.0863
38172W        W81163  28.814  27.163  27.177 -0.0473  0.1739  0.1243
38173W        W81164  30.080  11.453  14.718  0.2327 -0.0243  0.1032
38174W        W81165  30.746   3.385  24.379 -0.0945  0.3330  0.0016
38175W        W81166  22.981  15.148   1.463  0.0268 -0.2011  0.2871
38176W        W81167  33.666  32.414   4.450 -0.2409  0.0812  0.0816
38177W        W81168  12.759   1.063  20.520  0.2156 -0.2419 -0.1093
38178W        W81169  10.304   3.986   3.555  0.1182 -0.0502 -0.0295
38179W        W81170  31.345   3.569   3.293 -0.3451 -0.0183  0.1615
38180W        W81171  33.070   5.911   1.393 -0.1487  0.1823 -0.1485
38181W        W81172  33.507   9.494   3.852 -0.1718  0.1504 -0.1749
38182W        W81173  27.888  27.856  25.162 -0.1210 -0.2846  0.2125
38183W        W81174   0.432  17.848  18.754 -0.0797 -0.0543 -0.2138
38184W        W81175  32.287  18.222  17.765 -0.1167 -0.1338 -0.1953
38185W        W81176   5.977  14.332   1.508 -0.0409  0.0734  0.0505
38186W        W81177  22.289   6.187  21.539 -0.0076 -0.0861  0.1343
38187W        W81178  30.042  23.852  29.195 -0.2833  0.1606 -0.0462
38188W        W81179  28.224  28.258  23.507  0.1238 -0.0990  0.2493
38189W        W81180   4.902  18.205  27.295  0.0300  0.0120  0.2950
38190W        W81181  28.415   8.319   0.164  0.1070  0.0253 -0.0642
38191W        W81182  33.421  15.234  15.564  0.0629  0.2221  0.1385
38192W        W81183  27.589  19.850  14.633 -0.0043 -0.1146  0.4504
38193W        W81184  32.904  24.487  24.331  0.1577 -0.2860 -0.1332
38194W        W81185   5.744  19.243   3.362 -0.0407  0.1293  0.0560
38195W        W81186  32.282  19.996   3.984 -0.0895 -0.4316 -0.0014
38196W        W81187  32.627  15.102   2.982  0.0530 -0.0932  0.2903
38197W        W81188  18.176  23.632  20.235 -0.1212 -0.0521 -0.0015
38198W        W81189   6.946  14.671  18.181  0.1827 -0.2452 -0.2648
38199W        W81190   7.775   3.305  18.589 -0.0092  0.0523  0.0242
38200W        W81191   1.110   5.065   5.463  0.2164  0.1472 -0.1101
38201W        W81192  27.058  12.115  16.200  0.2220  0.1727  0.1539
38202W        W81193   6.325  20.548  15.308 -0.0570 -0.2822 -0.0405
38203W        W81194  10.657  19.287  27.415  0.2902  0.0739 -0.1977
38204W        W81195  11.513   8.029  19.749 -0.1901  0.1541 -0.1117
38205W        W81196   1.446  22.994  16.657 -0.1094  0.0828 -0.1147
38206W        W81197   3.509  20.071   3.056 -0.0367 -0.0036 -0.2457
38207W        W81198   1.937  10.258   7.933 -0.1458  0.0975  0.0831
38208W        W81199  12.374  20.021  13.474  0.0926 -0.0629 -0.1474
38209W        W81200  29.716  29.498   6.669 -0.0105  0.1580  0.1431
38210W        W81201  28.458  17.178   4.565  0.0957  0.3555 -0.0250
38211W        W81202  15.133  12.547  14.926  0.1014 -0.1593  0.1515
38212W        W81203  28.703  34.778  26.529 -0.0080 -0.0158  0.1602
38213W        W81204  26.349  21.234  25.193  0.1333  0.1017 -0.3055
38214W        W81205  20.210  24.540   0.225 -0.0964  0.2595 -0.0800
38215W        W81206  34.744  22.548  25.006 -0.1890 -0.0516 -0.4510
38216W        W81207  17.958  17.494   0.350  0.1205 -0.5581 -0.1037
38217W        W81208  32.607   7.381   3.025 -0.0776 -0.1023  0.2628
38218W        W81209  10.731  20.593  21.787 -0.2217 -0.3086  0.2051
38219W        W81210  29.359  31.367  21.438  0.0538 -0.0513  0.2093
38220W        W81211  25.828  25.661  22.120 -0.0861 -0.0098 -0.1749
38221W        W81212   5.431  23.769  25.341  0.1068 -0.1502  0.1694
38222W        W81213  13.861   9.817  25.988  0.2254  0.0345  0.1404
38223W        W81214  33.037   1.557   8.126 -0.0223  0.0840  0.2602
38224W        W81215   4.275   6.652  17.076  0.1409  0.3202  0.0748
38225W        W81216   9.478  26.548  16.941  0.2656  0.1826  0.1468
38226W        W81217  10.223  22.624   4.596  0.0998 -0.0785 -0.4497
38227W        W81218  21.915  16.644  22.344  0.0927  0.1650  0.1532
38228W        W81219  19.397  12.272  27.979  0.0693  0.2673  0.2987
38229W        W81220  26.864  15.763  16.410  0.0148 -0.2829  0.3529
38230W        W81221  32.424  19.717  20.467  0.1541  0.0188  0.1531
38231W        W81222  33.224  32.655  18.671 -0.0372  0.3431 -0.3256
38232W        W81223   7.319  13.162  28.472 -0.5354  0.0220  0.0209
38233W        W81224  26.702  27.136   5.973  0.1323  0.2546  0.3948
38234W        W81225  25.935  17.507  15.558 -0.1967 -0.1315  0.1272
38235W        W81226   8.535  15.304  28.309  0.2527  0.3265  0.0777
38236W        W81227  33.069  32.999   1.014 -0.2280 -0.1896  0.0485
38237W        W81228  19.401   1.235   0.594  0.2113  0.2273  0.0943
38238W        W81229  28.776   7.316   5.262 -0.0369  0.2008  0.4645
38239W        W81230   1.487  15.309   3.248 -0.0910  0.1813 -0.2513
38240W        W81231   0.480   3.789   0.160 -0.4255 -0.3483 -0.3586
38241W        W81232  20.335   6.824   6.309  0.0993 -0.0751  0.0773
38242W        W81233  22.856  24.871  19.411 -0.0847 -0.2169  0.1291
38243W        W81234   8.452  24.767   2.968 -0.0517  0.3165  0.3841
38244W        W81235  19.171  29.064  22.344  0.1369 -0.0195  0.0306
38245W        W81236  33.035   6.226   2.362  0.1676  0.3181  0.1244
38246W        W81237  17.659  13.252   8.955 -0.3542  0.1508 -0.0030
38247W        W81238   6.905   8.511  24.066  0.1432  0.1582  0.2452
38248W        W81239   0.796  21.533  27.238 -0.0064  0.1097  0.0092
38249W        W81240  33.262  34.198  21.296 -0.2320 -0.3304 -0.1534
38250W        W81241  13.335  28.754   5.853 -0.0214  0.1013  0.5175
38251W        W81242  28.883  15.689  24.115  0.1980  0.1290 -0.1293
38252W        W81243  26.230  16.608  26.358 -0.0070  0.1066 -0.2314
38253W        W81244  17.090  28.823  21.703  0.0362  0.1175 -0.0635
38254W        W81245  17.663  28.859  20.564  0.0329  0.0421 -0.3240
38255W        W81246   9.786  10.053  28.732  0.0748 -0.0593 -0.0115
38256W        W81247   6.052  26.351   0.777 -0.3503 -0.0977 -0.4857
38257W        W81248  12.267  10.055   4.348 -0.0673 -0.1516 -0.0293
38258W        W81249  24.350  15.122   4.721 -0.2575 -0.2102 -0.0146
38259W        W81250  12.617  14.927  17.744 -0.3158 -0.1075  0.1199
38260W        W81251   9.946  21.901  23.369 -0.0859 -0.0444 -0.4689
38261W        W81252  23.850   4.637   7.646 -0.0584 -0.3862 -0.1720
38262W        W81253   2.462  10.172   0.790 -0.0120 -0.2107  0.2143
38263W        W81254   3.914  19.429  28.477  0.0274  0.0027  0.1980
38264W        W81255  33.096  23.632  28.406 -0.0581 -0.0693 -0.0265
38265W        W81256   5.650  10.167   9.372  0.1095  0.2426 -0.0549
38266W        W81257   3.795  25.184  27.769  0.3945 -0.2264 -0.0921
38267W        W81258   0.080  28.652  20.186  0.2986 -0.0443 -0.2173
38268W        W81259  33.942   3.368  15.787 -0.1502  0.1822  0.1713
38269W        W81260   8.367  28.462  23.037 -0.3256 -0.1578  0.0238
38270W        W81261   5.800  12.986  10.861 -0.0160  0.0156  0.1470
38271W        W81262   8.085   7.934   3.653 -0.0524  0.0375  0.2671
38272W        W81263  24.902  11.000   0.673 -0.0745  0.3913 -0.4487
38273W        W81264  25.776  23.886  18.974  0.0493 -0.3657  0.4223
38274W        W81265  28.269  15.426   4.917 -0.0571  0.1350  0.3794
38275W        W81266  23.662  18.524  23.187  0.2599  0.2625 -0.0647
38276W        W81267  30.423  20.422   0.802 -0.0458  0.0716 -0.1939
38277W        W81268   7.677  16.479  18.739 -0.0698  0.1701 -0.4240
38278W        W81269  25.532  29.148  28.265 -0.0853 -0.2280 -0.2086
38279W        W81270  32.845  23.037  19.823  0.3319 -0.0892 -0.2022
38280W        W81271  28.505  11.049  21.668  0.1908 -0.1887  0.2402
38281W        W81272   4.132  22.040  19.253  0.1105 -0.3570  0.1154
38282W        W81273  12.100  13.207  20.195  0.0125  0.1154  0.0936
38283W        W81274   4.300   1.384  21.466  0.1051  0.0682 -0.1030
38284W        W81275   8.858  10.976   7.756  0.2010  0.1094 -0.3236
38285W        W81276  24.604  29.087  14.203  0.0344 -0.4316 -0.2824
38286W        W81277  22.111  21.724  21.901 -0.0794 -0.4840 -0.1210
38287W        W81278  22.955  28.765  16.804 -0.2042 -0.0414 -0.2576
38288W        W81279  15.769  13.736  20.626 -0.0736  0.1414 -0.0099
38289W        W81280  29.854  15.296  18.311 -0.1713  0.0308  0.1664
38290W        W81281  20.950  24.537   5.625 -0.3057  0.3287  0.0307
38291W        W81282  29.708  22.834   9.516  0.3178  0.1941  0.2331
38292W        W81283  27.953  24.010   1.190  0.1032 -0.1538  0.2091
38293W        W81284  28.322   2.085   2.802 -0.3674  0.0401 -0.1971
38294W        W81285  31.379  18.517  23.892 -0.0047  0.1590  0.0449
38295W        W81286   4.787  22.194  26.794 -0.2534  0.3542  0.0446
38296W        W81287  25.789  27.609   1.435  0.0233  0.0641  0.2192
38297W        W81288  21.642  10.597  22.656  0.0245 -0.0837 -0.1892
38298W        W81289   6.744  13.842  18.066 -0.2615 -0.1837  0.0901
38299W        W81290   0.940  18.189  24.125 -0.1322  0.0951  0.2054
38300W        W81291  28.392   7.782  14.346  0.0887  0.0392  0.2618
38301W        W81292   7.157  19.053  26.429 -0.4234 -0.2310 -0.2408
38302W        W81293  32.615   3.296  20.516  0.0573  0.0152  0.0553
38303W        W81294  23.158   5.276  23.373 -0.0846 -0.3119 -0.1770
38304W        W81295   4.430  23.305  28.642  0.0415 -0.1426 -0.2807
38305W        W81296  23.142   5.324  13.684 -0.2068  0.1070 -0.1438
38306W        W81297  17.602  12.040   3.710 -0.0662 -0.0621 -0.0359
38307W        W81298  17.385  10.215   2.439 -0.2586 -0.0351  0.0380
38308W        W81299  32.472   5.684   1.413  0.1045 -0.1237  0.2880
38309W        W81300   6.840  20.021  14.812  0.0977 -0.2161 -0.0172
38310W        W81301   2.780  22.769   3.391  0.0293 -0.1409 -0.1772
38311W        W81302  26.958  18.155   4.853 -0.2133 -0.0370 -0.0782
38312W        W81303  19.603  18.812   3.039  0.0571  0.2055 -0.2051
38313W        W81304  16.445  25.033   3.419  0.2844  0.1194  0.1311
38314W        W81305  14.522  12.614  14.128 -0.1076  0.1955  0.1796
38315W        W81306  13.008   8.311   6.375 -0.1416 -0.0324  0.0097
38316W        W81307  28.423  14.032  22.087 -0.0801 -0.0478  0.2197
38317W        W81308  24.769  23.169   9.464 -0.1384  0.1943 -0.0279
38318W        W81309  33.222  28.635  27.313 -0.1077 -0.1347  0.0664
38319W        W81310  24.372  15.088  20.738  0.0867  0.2149  0.0793
38320W        W81311  24.065  23.069  27.586 -0.0020  0.1276 -0.0730
38321W        W81312  14.564  14.505   2.324  0.1541 -0.0500  0.0546
38322W        W81313  30.252  17.295  21.265 -0.2658  0.0160 -0.1730
38323W        W81314   0.217  16.691  17.179  0.2217 -0.2951 -0.3534
38324W        W81315   0.331  25.960  28.302  0.0382 -0.1008  0.0642
38325W        W81316   5.348   0.679  10.569 -0.0918  0.1882  0.1740
38326W        W81317   6.178  25.345   8.877  0.1150 -0.0813 -0.3094
38327W        W81318  30.931   5.545  15.021 -0.0312  0.0348 -0.1274
38328W        W81319   5.903   7.963   3.245 -0.0987 -0.1946 -0.1322
38329W        W81320   1.744  18.259  15.888  0.2175 -0.0720  0.0378
38330W        W81321  22.915  34.503  28.623 -0.2971 -0.2187 -0.1559
38331W        W81322  32.605   4.096  27.687  0.1327 -0.0571 -0.0233
38332W        W81323  27.966  15.205  24.150 -0.1461 -0.0115  0.2941
38333W        W81324  21.214  31.854   0.128 -0.0076 -0.3182 -0.3825
38334W        W81325  17.423  14.090  24.908 -0.0809 -0.1213  0.0840
38335W        W81326  25.790   9.638   8.405  0.0364  0.0645  0.1762
38336W        W81327  33.305   8.727  26.014 -0.0937 -0.2688 -0.4517
38337W        W81328   3.726  14.904   2.202  0.0019  0.1696 -0.0836
38338W        W81329  29.971  19.223  17.991  0.4432 -0.0585  0.0523
38339W        W81330   0.133  15.251  22.329 -0.1771  0.2278  0.0623
38340W        W81331  17.996   4.959  22.291 -0.2458 -0.2484  0.3744
38341W        W81332  30.626   7.920   2.209 -0.0317 -0.2447  0.0962
38342W        W81333  33.579  22.934  24.538  0.2080  0.4184 -0.2240
38343W        W81334   7.579  18.476  19.705 -0.2874 -0.0742  0.1721
38344W        W81335  15.422  22.506  28.078 -0.1316 -0.1064 -0.3521
38345W        W81336   8.784  15.553  22.192  0.1950 -0.0119  0.3559
38346W        W81337   1.298  29.299  17.104  0.2886  0.2472 -0.0202
38347W        W81338   4.749  25.650  23.650  0.0313  0.1859  0.1883
38348W        W81339   8.381  10.500   2.668  0.2007 -0.1940 -0.0367
38349W        W81340   1.442  21.967  16.375 -0.0933 -0.2731 -0.3727
38350W        W81341  24.904  12.955  17.329 -0.1587  0.1550 -0.0979
38351W        W81342  24.774  13.002   4.504  0.1274  0.0311  0.0024
38352W        W81343  18.998  15.882  15.700  0.0041  0.1356  0.0100
38353W        W81344   0.744  21.896  24.499 -0.3805  0.0969  0.0751
38354W        W81345  31.709  22.191  18.154 -0.0536  0.0586  0.0863
38355W        W81346  25.416  18.609   2.684  0.2979 -0.1768 -0.2240
38356W        W81347  30.799  28.240  23.551 -0.0045 -0.1584 -0.2348
38357W        W81348  23.507  22.318  13.670 -0.2562  0.3231  0.0381
38358W        W81349  15.944  30.348   1.419  0.2247 -0.1676 -0.1843
38359W        W81350  25.471  15.193   3.753  0.0872 -0.3208  0.5666
38360W        W81351  25.364  21.387   3.698 -0.0284 -0.0434 -0.3841
38361W        W81352  31.529  21.996   9.613  0.1183  0.1456  0.1082
38362W        W81353   2.235  24.060  28.920 -0.2449 -0.1983  0.0850
38363W        W81354  26.750  29.851   1.858  0.0331 -0.0331  0.3139
38364W        W81355  28.431   2.678  17.294  0.1888 -0.1045  0.1532
38365W        W81356  22.375  19.932  24.261 -0.3278  0.3468  0.0108
38366W        W81357  27.714  23.904  25.388 -0.1995 -0.0497  0.2386
38367W        W81358   4.391  24.545   7.803  0.0265  0.1143  0.2020
38368W        W81359  31.361  17.963  28.276 -0.1394 -0.0712 -0.0226
38369W        W81360  34.055  21.211  26.080 -0.3639 -0.1500  0.0887
38370W        W81361  24.758  23.476   2.369  0.0304 -0.1502  0.1479
38371W        W81362   9.184  30.397  21.773  0.0590 -0.1739 -0.1697
38372W        W81363  20.140   8.317  17.149  0.1756 -0.1422  0.2263
38373W        W81364  33.607   2.141  17.792 -0.0485  0.0291 -0.2578
38374W        W81365   0.786  18.512   0.324 -0.2036 -0.1431 -0.0226
38375W        W81366   9.287  12.488   1.733 -0.0455  0.1344 -0.4349
38376W        W81367   4.603  11.908   2.755  0.1142  0.0436  0.1785
38377W        W81368  34.499  22.532  15.212  0.1272 -0.2181  0.0237
38378W        W81369  25.144  17.602   3.557  0.1867  0.1357 -0.0769
38379W        W81370   2.563  19.277   0.986 -0.1169  0.0793 -0.1664
38380W        W81371  23.498  16.855  28.922 -0.0457 -0.1303  0.0693
38381W        W81372   0.169  19.991  20.367 -0.3579 -0.0297 -0.0466
38382W        W81373  25.309   8.634   3.974 -0.4781  0.2456 -0.0751
38383W        W81374  21.667   8.485  17.986  0.1523  0.1864 -0.1653
38384W        W81375  34.570  14.435  22.928 -0.0817  0.1055  0.1425
38385W        W81376  18.707  15.099  15.304 -0.1753 -0.0526  0.4313
38386W        W81377   6.970  26.994   0.168 -0.0649  0.0970 -0.3875
38387W        W81378  24.172  27.312   0.633 -0.3978  0.1946  0.0048
38388W        W81379   4.536  25.419  27.987  0.2931  0.0696  0.3446
38389W        W81380  28.922  16.219   2.947 -0.1551  0.0417 -0.1565
38390W        W81381   6.670   7.670   0.261 -0.4009 -0.1266 -0.0334
38391W        W81382  28.778  29.986  17.729  0.0328  0.1561  0.0419
38392W        W81383  34.054  13.894   1.190 -0.1336  0.3346 -0.3647
38393W        W81384  30.069  11.959  14.947  0.1621 -0.0385  0.2176
38394W        W81385  14.487  11.507  16.463 -0.0499 -0.1178 -0.0056
38395W        W81386  23.812   8.814   2.548 -0.1460 -0.4246 -0.0273
38396W        W81387  18.227  20.286  22.506 -0.0408 -0.3022  0.1666
38397W        W81388  30.246   8.964  23.993  0.0118  0.0574  0.2102
38398W        W81389   6.740  19.183  26.823  0.0942 -0.0326 -0.1628
38399W        W81390  28.955   9.564  22.546  0.1410  0.2275  0.0228
38400W        W81391   6.192  33.177   8.442  0.0429 -0.0301 -0.1461
38401W        W81392  11.037  14.666  10.075  0.2963 -0.0510  0.1811
38402W        W81393  24.125  17.054   8.789  0.1134 -0.0680 -0.0355
38403W        W81394  21.520  28.209  18.935  0.0426  0.0604 -0.1275
38404W        W81395  28.549  24.767  14.938 -0.0094  0.1628  0.1628
38405W        W81396   2.236   5.072   4.243  0.1900  0.2221  0.1700
38406W        W81397   2.702   7.548  10.145  0.0463  0.2730 -0.1624
38407W        W81398  30.281  21.414  22.413  0.2949  0.1500  0.0244
38408W        W81399  25.624   7.742   4.029  0.0130  0.2048  0.0936
38409W        W81400   3.901  22.960   4.156 -0.0600  0.0511  0.0276
38410W        W81401  21.766  12.736   5.430 -0.2073 -0.0852 -0.2780
38411W        W81402  17.718  18.870  26.058 -0.1626  0.1864  0.0045
38412W        W81403  23.120   1.324  27.002  0.0852  0.0040  0.1455
38413W        W81404  22.208  32.287  14.200  0.1105 -0.0292  0.0933
38414W        W81405  26.180   2.137  28.541 -0.1403 -0.0649  0.1011
38415W        W81406   4.266  12.715  25.022  0.1102 -0.2397  0.0724
38416W        W81407  24.882   8.253   5.252  0.2222  0.0397 -0.2380
38417W        W81408  17.214  19.170   3.526  0.0798  0.0266 -0.0768
38418W        W81409  29.555  12.471   5.113 -0.0579  0.0263 -0.0835
38419W        W81410  27.362  32.899  24.962  0.1275  0.0142 -0.2249
38420W        W81411  14.558  11.011  16.540  0.1527 -0.1440  0.1024
38421W        W81412  20.885  11.293  23.764  0.0831  0.0773 -0.1880
38422W        W81413  34.747  27.596   1.279  0.1212 -0.0100  0.3380
38423W        W81414  29.490  10.017   5.349  0.1007 -0.2606 -0.0593
38424W        W81415   7.163  19.279  27.141 -0.3129 -0.1439  0.3054
38425W        W81416  26.789  18.186  15.772 -0.1723  0.0317  0.0666
38426W        W81417  34.270  14.264   5.083  0.0965 -0.3371  0.0888
38427W        W81418   5.412  26.021  28.040 -0.0610 -0.2235 -0.3344
38428W        W81419  26.902  21.213   1.315  0.1804 -0.0758  0.2468
38429W        W81420   0.530  30.429  23.141  0.0032 -0.1597  0.1573
38430W        W81421  32.532  24.776  27.386 -0.0845  0.0302 -0.3560
38431W        W81422   1.357  17.839  20.346 -0.1771 -0.3357 -0.0662
38432W        W81423  27.381  33.965  14.146  0.3406 -0.1789 -0.0279
38433W        W81424   6.842  12.054  10.967 -0.0498  0.0177 -0.4437
38434W        W81425   1.708  30.913  19.986 -0.1414 -0.0742  0.1757
38435W        W81426   1.987   8.263  17.607  0.2164 -0.3202 -0.3259
38436W        W81427  22.443  11.381  16.316  0.0554  0.0317  0.0879
38437W        W81428  15.239   9.793   5.002 -0.2132  0.2852  0.1871
38438W        W81429  33.113  21.062  24.266 -0.3074  0.1973 -0.0582
38439W        W81430  20.780  20.007  24.557 -0.0132 -0.2207  0.0489
38440W        W81431  20.322   0.548  25.883  0.0436 -0.0157  0.0086
38441W        W81432  31.288  10.145  25.628 -0.0120 -0.0862  0.0410
38442W        W81433  19.913  23.594  25.057 -0.1638  0.2459  0.2987
38443W        W81434  33.788   4.120  23.817 -0.1004 -0.5877 -0.0718
38444W        W81435  25.697  25.921  27.537 -0.3032 -0.1017 -0.1074
38445W        W81436  21.269  15.812  23.021  0.1636 -0.0830  0.1016
38446W        W81437  21.239  33.081  22.250  0.0525  0.1728  0.1824
38447W        W81438   3.257  33.888   0.253 -0.0405 -0.0560  0.2956
38448W        W81439  10.199  10.587   5.142  0.3671 -0.0138  0.1074
38449W        W81440  23.650   1.356  18.723  0.1501  0.0759 -0.2037
38450W        W81441  16.514   0.160  26.681  0.3972 -0.0324  0.1311
38451W        W81442  24.052  12.450  27.821 -0.0205  0.2275  0.1368
38452W        W81443  15.976   3.934   9.928 -0.2166 -0.0254  0.1625
38453W        W81444  23.647  33.723   5.027 -0.0487 -0.1051  0.1139
38454W        W81445  19.768  14.821  27.883  0.1529 -0.1352  0.2144
38455W        W81446  28.635  21.553  15.417  0.2192  0.0400  0.1920
38456W        W81447  15.574  27.041  14.451 -0.1940 -0.2144 -0.1712
38457W        W81448   8.816  15.946  20.117 -0.2279 -0.0281  0.4490
38458W        W81449   0.792  16.989  20.647  0.0124  0.3051  0.0017
38459W        W81450  34.748  24.529   6.839 -0.4511 -0.0031  0.0262
38460W        W81451  31.832  12.155  17.198 -0.0712 -0.2145  0.0922
38461W        W81452  26.837  12.646   8.288 -0.0424 -0.1791  0.0042
38462W        W81453  26.900  21.452  19.721  0.3203 -0.2862  0.1101
38463W        W81454  33.323  29.443   2.022 -0.2335 -0.1478  0.1817
38464W        W81455   8.430  17.109  25.457  0.1249  0.2274  0.3204
38465W        W81456   0.824  24.632  19.484 -0.0249  0.1157 -0.0763
38466W        W81457  27.526  13.141   2.375 -0.1943 -0.1212  0.1796
38467W        W81458  28.919  16.215  18.503 -0.0849 -0.2785  0.1644
38468W        W81459  16.525   3.761  19.913 -0.5401  0.1144  0.1267
38469W        W81460   7.999  12.274  24.385 -0.0705  0.0197 -0.1817
38470W        W81461  21.345  12.527  25.281  0.0444 -0.1678  0.3035
38471W        W81462   3.383  24.535   4.493  0.2189 -0.1306  0.4019
38472W        W81463   6.033  12.223  28.389 -0.3784  0.0024 -0.0338
38473W        W81464  23.966  14.589  17.710  0.0000  0.0289 -0.0501
38474W        W81465  30.689  34.096   8.312  0.0476  0.0365 -0.0144
38475W        W81466   1.846  27.638   3.226  0.1985 -0.2620 -0.0376
38476W        W81467  24.208  11.022  26.726  0.0993 -0.0247  0.0344
38477W        W81468  33.621  18.082  28.199  0.2800  0.0651 -0.0461
38478W        W81469  27.054  21.665  16.830 -0.0128 -0.0363 -0.1938
38479W        W81470  29.517  34.127  28.593 -0.0779 -0.3337 -0.0229
38480W        W81471  23.702  12.776  29.022 -0.2163  0.3289 -0.2554
38481W        W81472  15.456   2.111  26.488 -0.0969 -0.3701 -0.0711
38482W        W81473  25.243  14.991  21.386 -0.1413  0.0837  0.2368
38483W        W81474  30.901  12.586  19.460  0.1368 -0.0337  0.2737
38484W        W81475   7.548  19.628  10.609 -0.0464 -0.0852  0.3868
38485W        W81476  13.729  26.285   4.307  0.1776  0.1264 -0.2218
38486W        W81477  27.462  17.909  15.432  0.0158  0.1264  0.0997
38487W        W81478  22.502  23.866   7.233  0.0749  0.1504 -0.0072
38488W        W81479  17.829  30.329   3.307 -0.1205  0.2299  0.0800
38489W        W81480  26.029  22.690  17.573  0.2401 -0.1127 -0.0110
38490W        W81481  31.179  21.293  26.327  0.1140 -0.2676  0.1745
38491W        W81482   1.403  24.061   0.590  0.0873  0.0741 -0.2949
38492W        W81483  25.849  13.463   9.316 -0.1362  0.2842  0.0242
38493W        W81484  18.708   4.234  22.021  0.0397  0.2067  0.3358
38494W        W81485   9.256  16.250  23.846  0.3710  0.1501 -0.1408
38495W        W81486   5.905  18.841  17.793  0.0739  0.4217 -0.1733
38496W        W81487  33.829  18.629  23.820 -0.2040 -0.0369  0.2218
38497W        W81488   6.569  23.330   6.799  0.1165 -0.1036 -0.0938
38498W        W81489  23.826   3.874   2.204  0.1171  0.1138 -0.0678
38499W        W81490  34.620  32.127  28.813 -0.1367  0.0980  0.3601
38500W        W81491   7.035  11.267  20.370  0.1696  0.0659  0.1072
38501W        W81492   8.077  16.248  16.521  0.0660  0.0570  0.0600
38502W        W81493   4.686   8.911  17.918 -0.0647 -0.2172 -0.1672
38503W        W81494  29.262  30.888  25.126  0.2046 -0.0788 -0.0081
38504W        W81495  16.040   2.728  25.941  0.0884  0.4328 -0.1338
38505W        W81496  30.671  12.492  22.603 -0.1853 -0.1286  0.1201
38506W        W81497  26.700  24.938   3.748  0.2889 -0.1641  0.0590
38507W        W81498  12.788  22.548  14.802  0.2302 -0.0601  0.2426
38508W        W81499  12.343  23.601  22.483 -0.1986  0.2645 -0.0856
38509W        W81500  22.581  18.919  29.089 -0.2518  0.0705 -0.0680
38510W        W81501  31.454   0.459  27.679  0.2201 -0.0229 -0.2597
38511W        W81502  26.493  12.832  15.064  0.2907  0.1514 -0.0252
38512W        W81503   1.739  14.395   1.596  0.2704 -0.3495  0.2135
38513W        W81504  32.269  27.999   2.205  0.0050  0.0330 -0.1622
38514W        W81505   8.474  17.816  17.518  0.0699 -0.2010 -0.5148
38515W        W81506  27.540  21.775   5.973 -0.0351  0.1068  0.2384
38516W        W81507  22.774  15.489   8.750 -0.3074  0.0131 -0.0665
38517W        W81508  10.039  14.935   1.142  0.1776 -0.0694 -0.0363
38518W        W81509   8.445  34.507   7.115  0.1831  0.0074 -0.0512
38519W        W81510  27.341   8.970  18.550  0.0967  0.2640 -0.0512
38520W        W81511  28.971   5.946  26.342  0.3132  0.2599 -0.0045
38521W        W81512  22.919  14.382  23.206  0.3531  0.4287  0.1061
38522W        W81513  14.195   9.841  17.563  0.0566 -0.0613  0.3433
38523W        W81514   3.184  16.719  21.406 -0.1103  0.1463  0.2146
38524W        W81515  28.593  12.854   4.115 -0.2091  0.3604  0.0112
38525W        W81516  15.772   8.692   3.565  0.1028  0.0853  0.2882
38526W        W81517  25.023  12.330  21.751 -0.1359  0.0714 -0.3132
38527W        W81518  10.458  34.765  16.391  0.1294  0.1008  0.0841
38528W        W81519  20.094  14.407  26.034 -0.1304 -0.0062 -0.1363
38529W        W81520  25.344  12.412   3.266 -0.2163 -0.2114 -0.1074
38530W        W81521  13.740  25.234   6.021  0.3743  0.0081  0.1029
38531W        W81522   0.185   7.081   8.087 -0.0355  0.1826  0.0302
38532W        W81523  34.185  20.146  22.724  0.1288 -0.0894 -0.1157
38533W        W81524  27.694   0.886  18.059  0.0186  0.0814 -0.2461
38534W        W81525  29.354  20.954  19.228 -0.2400  0.2426  0.3351
38535W        W81526   4.975  13.992   9.863  0.0142 -0.1467  0.1536
38536W        W81527  29.441   6.794   2.455 -0.3027 -0.0299  0.3315
38537W        W81528  24.268   3.520   0.963  0.1932  0.1660 -0.1806
38538W        W81529   7.279  23.837   5.837 -0.2188 -0.0361  0.3254
38539W        W81530  31.616  28.099  21.849 -0.1080  0.0961  0.1870
38540W        W81531  30.914   1.812   0.754 -0.0650  0.2613  0.2132
38541W        W81532   3.092  34.733   2.624 -0.1327 -0.3738 -0.1072
38542W        W81533  32.113  12.068  12.171  0.1300 -0.3469 -0.0630
38543W        W81534   0.141  26.717   5.332 -0.0745  0.3080  0.0880
38544W        W81535  29.204  16.759   6.708  0.4721  0.1052 -0.1914
38545W        W81536   0.129  18.445   6.650  0.0029 -0.1989 -0.0287
38546W        W81537   0.869  13.193   7.843  0.0750 -0.1843 -0.1913
38547W        W81538  20.633   9.246  21.694 -0.2961 -0.0160  0.0715
38548W        W81539  32.610  22.183  18.571  0.1471 -0.1769 -0.0839
38549W        W81540  32.446  25.987  25.135 -0.2534 -0.2164  0.0135
38550W        W81541  20.910   1.590  13.658  0.4014  0.4839  0.3098
38551W        W81542   9.848  16.168   3.852 -0.1176 -0.0520 -0.0208
38552W        W81543  28.092  12.722   0.982 -0.0939  0.1006  0.1111
38553W        W81544  19.213   9.912   2.410 -0.0630 -0.1011 -0.1944
38554W        W81545  15.634  25.861  27.831 -0.0479  0.2194 -0.4085
38555W        W81546   4.898  25.013  15.850 -0.1481  0.0514 -0.0102
38556W        W81547  10.426  30.068   7.314 -0.0631  0.2100  0.3314
38557W        W81548   5.496  11.077   8.243 -0.0276 -0.2340 -0.0462
38558W        W81549  12.538  34.461  14.516  0.2519 -0.1322 -0.0752
38559W        W81550   8.815   2.712  14.891 -0.1611  0.1684  0.4702
38560W        W81551  27.223   6.052   6.492 -0.1634  0.3189  0.0217
38561W        W81552  30.767  28.145  18.068  0.1063 -0.1350  0.0760
38562W        W81553  23.995  14.590  13.268  0.0078  0.0582  0.0789
38563W        W81554  25.604  33.430  18.070 -0.0697 -0.3356 -0.0748
38564W        W81555  28.794  17.029  20.842  0.1406 -0.1595 -0.0903
38565W        W81556   2.346  29.475  14.096 -0.1176  0.3128 -0.5412
38566W        W81557  34.084  33.799  13.843  0.2092 -0.0859 -0.1212
38567W        W81558   1.512  26.574  14.725  0.1244 -0.0294  0.1967
38568W        W81559  23.462  19.687  16.101  0.0994  0.2442  0.0209
38569W        W81560  31.179   6.905  19.503 -0.1376  0.3168 -0.0156
38570W        W81561   8.206  33.459   3.980  0.1077 -0.1010  0.2527
38571W        W81562  27.744  21.791  28.158 -0.3660 -0.0209  0.6260
38572W        W81563  34.145   5.882   0.471 -0.2471  0.1093  0.0271
38573W        W81564   3.306  22.413  20.290 -0.1075  0.0562 -0.1950
38574W        W81565  25.868   6.583   3.872 -0.0997 -0.0282  0.1682
38575W        W81566  30.501  21.226   0.298  0.1240 -0.1842 -0.2818
38576W        W81567  22.262  32.774  18.052  0.1171 -0.1670 -0.2469
38577W        W81568  33.623  21.348  15.323  0.0022 -0.0026  0.3655
38578W        W81569  17.846  20.527  13.814 -0.1476  0.1203 -0.0097
38579W        W81570  26.792  14.794  19.146  0.1600 -0.3633  0.2134
38580W        W81571  29.678  30.493  20.351  0.1512 -0.2658 -0.0032
38581W        W81572   0.449  15.156  15.943  0.1100 -0.0261 -0.1305
38582W        W81573  31.219  30.912  22.486 -0.0978 -0.0614 -0.1462
38583W        W81574  34.729   4.877  24.673 -0.2378  0.1691  0.0679
38584W        W81575  30.818  16.549  23.070 -0.2103  0.1795 -0.3969
38585W        W81576   9.904  32.509  15.067  0.0776 -0.0525 -0.2513
38586W        W81577  33.107  23.971  27.586  0.0197 -0.3455  0.1936
38587W        W81578  27.635  11.392  17.774  0.1463  0.2503  0.1073
38588W        W81579  31.901  23.029  18.596 -0.1831 -0.0699 -0.1812
38589W        W81580  17.459   0.764  27.770  0.0442  0.2986  0.1812
38590W        W81581  17.103  24.968  29.256  0.5151  0.0932  0.0512
38591W        W81582  21.943  24.024  19.226 -0.1385  0.0448  0.1411
38592W        W81583   4.729   1.660  23.111 -0.1997 -0.2163 -0.0052
38593W        W81584   4.017  22.187   2.069  0.0424  0.0516  0.1584
38594W        W81585  27.758  14.485  18.062 -0.1480  0.1251  0.0828
38595W        W81586  23.292  27.272  22.148 -0.2691 -0.0064 -0.1150
38596W        W81587  11.441  14.497  14.700  0.3204  0.1050  0.0737
38597W        W81588  34.776  12.389  10.119  0.2339  0.1041 -0.2600
38598W        W81589  24.906   1.469  28.931  0.0040 -0.1371  0.0524
38599W        W81590  27.777   6.531   4.344 -0.1869 -0.0500 -0.0121
38600W        W81591  23.887  27.373  14.272  0.0234 -0.0582 -0.1428
38601W        W81592   1.507  21.088  15.300  0.3376  0.0736 -0.2655
38602W        W81593   0.761  13.368  23.713 -0.1605 -0.3371 -0.4707
38603W        W81594  32.715  16.426  19.020  0.2713  0.4215 -0.0065
38604W        W81595  31.023   6.471  21.154  0.1127  0.1150 -0.0015
38605W        W81596   8.509  23.650  23.418 -0.0424 -0.0386  0.0157
38606W        W81597  22.660  25.913  26.157 -0.1413  0.0977  0.0156
38607W        W81598  34.461   9.209   0.984 -0.0993  0.3143 -0.1926
38608W        W81599   8.720  18.415   6.837  0.2123  0.1010 -0.0500
38609W        W81600  17.417   6.098  25.351 -0.0751 -0.0350  0.1304
38610W        W81601  32.686  20.190  16.122 -0.1063 -0.0160  0.1033
38611W        W81602   6.745  26.578  20.250 -0.1840 -0.1792 -0.3934
38612W        W81603  14.984  33.506  18.668  0.1220  0.2637 -0.1101
38613W        W81604  32.219  21.345  19.454 -0.0822 -0.0461  0.2355
38614W        W81605  22.444   3.521  24.677  0.1812 -0.1696 -0.0340
38615W        W81606   7.262  13.013  27.178  0.3379 -0.0088 -0.2200
38616W        W81607  25.296  22.437  22.393 -0.2389 -0.2305 -0.1521
38617W        W81608  28.917  23.116  16.759  0.1700 -0.0978 -0.2035
38618W        W81609  30.392  31.591  25.062  0.1721 -0.1168 -0.1919
38619W        W81610   4.304   8.213  26.358  0.0551 -0.4566 -0.2040
38620W        W81611  32.201  20.616  24.066  0.0107  0.1541  0.0866
38621W        W81612   5.573  19.069  18.154  0.0675 -0.2677  0.0645
38622W        W81613  34.467  22.891  19.840  0.2830  0.1624  0.1485
38623W        W81614  30.429  32.613  27.968  0.0071 -0.3657  0.3052
38624W        W81615   0.600  28.167  20.812 -0.0925 -0.0870 -0.1500
38625W        W81616   9.836  26.542  14.751  0.1189 -0.0282 -0.1796
38626W        W81617  23.390   6.544  23.673  0.1368  0.1165  0.0023
38627W        W81618  28.342  34.038  15.011  0.1658 -0.1508 -0.1415
38628W        W81619  32.263  33.216  27.786 -0.4132  0.1686  0.1542
38629W        W81620  27.880  27.756  15.993  0.0176 -0.1342 -0.1960
38630W        W81621  24.829  18.401  25.404  0.3019 -0.0033 -0.2162
38631W        W81622  26.992   8.387  13.423 -0.0145 -0.1433  0.2620
38632W        W81623  32.246  17.877  24.989 -0.1387  0.4709 -0.2267
38633W        W81624  13.285  28.021  26.872 -0.2197 -0.1759 -0.0967
38634W        W81625  20.660  27.688  15.917 -0.2418  0.0566 -0.1940
38635W        W81626   8.116  29.892  18.326 -0.1518  0.2279 -0.0607
38636W        W81627   0.513  11.973  16.072 -0.0346  0.0353 -0.1727
38637W        W81628  26.866  23.542  22.643  0.0386 -0.1054 -0.0523
38638W        W81629  27.567   9.266   4.572 -0.3764 -0.1403 -0.0845
38639W        W81630   8.314   0.701  25.083 -0.1127 -0.1346 -0.1074
38640W        W81631   0.216  24.324  21.271 -0.0185 -0.2258 -0.0516
38641W        W81632  28.051  19.615  23.768 -0.1098  0.1073  0.2034
38642W        W81633   5.248  28.537  26.218 -0.0241  0.1450  0.1397
38643W        W81634  14.751  24.956  16.281 -0.0486 -0.1166 -0.0587
38644W        W81635  30.585  20.733  17.129  0.4886 -0.0279 -0.1394
38645W        W81636  26.465  20.829  14.259 -0.3782 -0.2437  0.1209
38646W        W81637  30.346  28.940  22.461  0.1033 -0.0100  0.0487
38647W        W81638   1.446  25.381  14.481  0.1626  0.3246 -0.1667
38648W        W81639  32.502  16.322  21.806  0.1591  0.0303  0.1676
38649W        W81640  28.309   1.029  24.655 -0.0033  0.1405  0.0598
38650W        W81641  34.070  20.285   5.461  0.0051 -0.0350 -0.2726
38651W        W81642  18.458  13.524  26.527 -0.0532 -0.1319  0.1157
38652W        W81643  32.376  12.797  20.786 -0.1697  0.3146  0.0826
38653W        W81644   1.741  28.206  22.346  0.2578 -0.0895 -0.0837
38654W        W81645   4.068  13.056  16.011 -0.2863  0.2764  0.2644
38655W        W81646   6.037  29.996  15.722  0.2254 -0.0943  0.1097
38656W        W81647   3.127  23.449  16.956 -0.2463  0.1123 -0.1726
38657W        W81648   3.670  16.113  16.601  0.0182  0.1112  0.0309
38658W        W81649  24.826  32.754  19.290 -0.0518  0.0615  0.1572
38659W        W81650   4.503  12.933  16.153  0.0924 -0.0876  0.0503
38660W        W81651  29.074  33.163  17.447  0.0108  0.2074  0.1107
38661W        W81652   7.969   7.489   0.232 -0.2772 -0.3587 -0.0895
38662W        W81653  29.922  22.028   6.351 -0.1051 -0.2213 -0.2585
38663W        W81654  24.626   3.194   0.636 -0.1526  0.2476 -0.2584
38664W        W81655  30.460   7.035  14.926  0.1340 -0.2185 -0.3613
38665W        W81656  31.550  34.643   2.585 -0.1121 -0.1525  0.1725
38666W        W81657  30.550  16.029  23.508  0.0843 -0.0558 -0.0806
38667W        W81658  21.836  16.511  13.886  0.0302  0.1993 -0.0402
38668W        W81659  18.224  24.157  14.139 -0.1647 -0.0632 -0.1378
38669W        W81660  30.059  11.148  20.328  0.1923  0.1306  0.0596
38670W        W81661   1.923  22.201  18.036 -0.1321  0.0177 -0.2149
38671W        W81662   5.811  13.183  28.796  0.0217  0.3943 -0.0267
38672W        W81663   2.107  21.930   5.030 -0.1656 -0.1336  0.1636
38673W        W81664   0.836  20.086  18.173  0.0092  0.0139  0.0164
38674W        W81665  34.678  33.900  18.569  0.1816 -0.0894  0.2302
38675W        W81666  24.014  18.137  22.715  0.1784 -0.1276  0.1934
38676W        W81667  32.401  20.292  15.598  0.1223 -0.2123  0.0810
38677W        W81668   0.839  30.736  25.370 -0.1419  0.0322 -0.0642
38678W        W81669  30.339   6.740  17.244 -0.1530  0.3920 -0.0863
38679W        W81670  21.807  30.922  15.338  0.0946 -0.2972 -0.2110
38680W        W81671   0.673  15.848  26.028 -0.1861  0.3787 -0.0847
38681W        W81672  31.258   5.292  14.202  0.4772 -0.0731  0.0959
38682W        W81673   9.475  12.498  14.855 -0.3187 -0.0646 -0.2572
38683W        W81674  32.221  28.062   3.003  0.0317  0.0436 -0.2600
38684W        W81675  33.907  18.719  24.869 -0.2664 -0.0816 -0.0993
38685W        W81676  32.891  33.560  26.680 -0.0008  0.2090  0.0021
38686W        W81677  29.529  29.951  16.151  0.1829 -0.0633 -0.0160
38687W        W81678  29.629  13.044  22.922  0.1665 -0.1360  0.2153
38688W        W81679  33.149   8.271  25.031  0.1218  0.0447 -0.1079
38689W        W81680   6.976  11.370  21.927  0.1809  0.0693 -0.2169
38690W        W81681  33.317  29.173  13.590 -0.0152 -0.2537  0.0333
38691W        W81682  27.260  11.729  28.020 -0.1847 -0.0498  0.1700
38692W        W81683  31.216  12.354  19.122  0.2253 -0.0916  0.0526
38693W        W81684  28.455  27.284  26.821 -0.1683 -0.0429 -0.0369
38694W        W81685  33.317  21.429  17.591 -0.0372  0.1966  0.1853
38695W        W81686   4.086  20.623  20.426 -0.2538  0.1603 -0.1064
38696W        W81687  31.101  33.472  26.729  0.1498 -0.0631  0.1466
38697W        W81688  30.569   9.389  20.944  0.2398  0.0881  0.4056
38698W        W81689  26.346   8.932  17.133 -0.0553  0.2629  0.1106
38699W        W81690   4.309   9.353  20.918 -0.1180  0.1789  0.0785
38700W        W81691  20.572  19.420  14.906 -0.0166  0.0473  0.3270
38701W        W81692  32.416  30.399  19.686 -0.2557 -0.1936 -0.0360
38702W        W81693  24.431  25.418  18.091  0.1177 -0.1643  0.0201
38703W        W81694  26.384   1.863  22.083  0.0055 -0.1432  0.0719
38704W        W81695  28.897  28.578  15.386 -0.2265  0.1856 -0.1612
38705W        W81696  18.708  14.254  16.585  0.0371 -0.3313  0.0309
38706W        W81697  26.930  25.394  17.432  0.0926  0.2289  0.3206
38707W        W81698  26.572   2.536  25.590 -0.0839 -0.0997  0.2901
38708W        W81699  33.369   0.014  24.247 -0.0620 -0.4643  0.0413
38709W        W81700  26.798   9.842  27.849  0.2825  0.0901  0.3678
38710W        W81701  14.200  13.168  16.617  0.1681 -0.0802 -0.1115
38711W        W81702  27.307  14.420  18.410 -0.1324  0.3821 -0.0593
38712W        W81703  16.440  13.682  15.601  0.1191 -0.0577  0.1194
38713W        W81704  21.466  18.020  29.076 -0.0897  0.0293 -0.1400
38714W        W81705   5.309  16.986  16.882  0.0721 -0.3163 -0.1681
38715W        W81706  13.628  14.034  25.442 -0.1005 -0.0266  0.3170
38716W        W81707   1.161  20.684   1.857 -0.1046  0.1128  0.0634
38717W        W81708  33.832  22.297   9.169 -0.1290 -0.1213  0.0264
38718W        W81709   9.107  18.828  22.737 -0.1135  0.3351 -0.0498
38719W        W81710  19.913   6.158  16.800  0.1011 -0.2865 -0.0666
38720W        W81711  25.764  26.602  28.189  0.1167  0.1969 -0.0871
38721W        W81712  26.740  16.606  23.391 -0.3289 -0.2280  0.2267
38722W        W81713  16.710   1.990  25.578 -0.3424  0.0302 -0.2852
38723W        W81714  23.518  14.447  26.292 -0.0794 -0.1981 -0.5162
38724W        W81715   9.786  27.291  21.786 -0.1253  0.1204 -0.0990
38725W        W81716  27.431  34.396  23.902  0.1730 -0.0265  0.0271
38726W        W81717   2.481  23.448  21.844  0.3033  0.0924  0.0395
38727W        W81718  22.857  30.102  22.035 -0.0361  0.1942  0.2205
38728W        W81719  22.105  10.622  23.384  0.1267 -0.1664  0.2325
38729W        W81720  29.128  12.308  28.803  0.0644 -0.2300  0.1598
38730W        W81721  34.555   7.146   7.601  0.1616 -0.1204 -0.3698
38731W        W81722  23.849  20.564  16.157 -0.3308 -0.1517  0.0570
38732W        W81723  33.410  15.948  17.374  0.1199  0.0777  0.0015
38733W        W81724  34.351   1.480  18.841 -0.4512 -0.2332 -0.0884
38734W        W81725  12.126  16.136  24.556 -0.1077  0.4844  0.0225
38735W        W81726  26.999  21.821  26.951  0.0043 -0.1600 -0.0055
38736W        W81727  18.888  32.913  18.854  0.2662 -0.2768  0.0095
38737W        W81728  12.107   8.348  16.002  0.0700 -0.0363 -0.4542
38738W        W81729  19.596  12.898  16.413 -0.0152 -0.1760  0.0405
38739W        W81730  31.187   9.071  23.203 -0.1226 -0.1719 -0.1978
38740W        W81731  24.410  30.737  13.536  0.1697  0.2321 -0.0822
38741W        W81732  11.082   4.588  23.126 -0.0960  0.1068 -0.2033
38742W        W81733   7.974  34.291  25.323 -0.2521 -0.0270  0.4109
38743W        W81734  34.385  19.663  23.800  0.0510  0.1032  0.1528
38744W        W81735  27.035  30.092  21.040 -0.0970 -0.1307 -0.2278
38745W        W81736  34.705  19.717  17.578 -0.1273  0.1873 -0.3503
38746W        W81737  30.676  28.035  13.484  0.0715  0.0829 -0.1129
38747W        W81738   9.116  12.447  28.681 -0.4085  0.1571 -0.3100
38748W        W81739  28.490   9.418  20.465 -0.0284 -0.1862 -0.1606
38749W        W81740  23.749  20.355   0.718 -0.1488  0.1910 -0.0408
38750W        W81741  29.931  22.738  22.073  0.1045  0.2506  0.1853
38751W        W81742  18.607  19.932  14.644 -0.1502 -0.1975 -0.1127
38752W        W81743   8.684  20.587   1.070  0.2785  0.0922 -0.0061
38753W        W81744  33.441  31.838  22.859  0.0785  0.0649  0.0791
38754W        W81745  33.646  34.018  15.280  0.0804 -0.1480 -0.0571
38755W        W81746  20.002  20.583  12.893 -0.1805  0.0320 -0.0053
38756W        W81747  32.334   4.755  22.141 -0.0908 -0.0137  0.0909
38757W        W81748   5.633  21.146  24.750  0.0681 -0.0732 -0.2535
38758W        W81749  19.501  28.922   7.635  0.2848 -0.1294  0.0822
38759W        W81750  25.554  18.625  19.050  0.1238  0.1370 -0.0097
38760W        W81751  28.843  30.018  21.227  0.4160 -0.1511 -0.0290
38761W        W81752   3.196  18.263  19.489  0.1415 -0.0377 -0.2149
38762W        W81753  21.390  28.251  17.306  0.1568 -0.2111  0.2426
38763W        W81754   4.570  28.458  13.949 -0.1474 -0.0631 -0.1596
38764W        W81755   8.841  15.195  14.506  0.1368  0.2454 -0.0530
38765W        W81756   5.829  12.771  17.092  0.0886  0.1131  0.5169
38766W        W81757  26.756  14.872   0.412  0.1735  0.1678 -0.0510
38767W        W81758  34.448  33.722   4.906  0.2558  0.1096  0.0941
38768W        W81759   7.425  34.418  23.025  0.3213 -0.3092 -0.1598
38769W        W81760   0.904  32.115   5.093  0.1856  0.1260 -0.0024
38770W        W81761  26.448  23.641  26.840 -0.0723 -0.1523  0.2189
38771W        W81762   0.177  20.509  24.710  0.4120 -0.0998 -0.0617
38772W        W81763  24.597  13.234  17.669  0.0100  0.0908 -0.0971
38773W        W81764  26.418  11.050  23.199 -0.2043  0.1608  0.1922
38774W        W81765  31.944  27.261  15.677 -0.1088  0.0351 -0.2139
38775W        W81766  29.143  15.724  19.902 -0.0060  0.3073  0.0980
38776W        W81767  26.772  19.155  15.011 -0.0795 -0.0574 -0.1057
38777W        W81768  28.385   0.927  23.322  0.1224  0.1211  0.1167
38778W        W81769  19.830  28.246  22.481 -0.2079 -0.1232 -0.1932
38779W        W81770   4.571  11.868  25.328  0.2052 -0.0323 -0.0269
38780W        W81771  30.137  14.465   0.407  0.0495  0.3783 -0.1183
38781W        W81772  31.043  18.335   1.347 -0.2114 -0.4102  0.0151
38782W        W81773  31.523  22.938  20.998  0.0453 -0.5117  0.0475
38783W        W81774   3.405  13.333  26.253  0.2893  0.0774 -0.0717
38784W        W81775  33.584  15.798  16.496 -0.0040 -0.1255 -0.2756
38785W        W81776  24.233   8.807  21.461 -0.1185 -0.0059  0.1113
38786W        W81777  31.433  30.515  13.185  0.2397 -0.0954 -0.3456
38787W        W81778  22.738  23.110  14.285 -0.0228  0.0101 -0.2449
38788W        W81779  23.947  16.476   5.229 -0.0713 -0.4407 -0.1114
38789W        W81780  24.194  30.132  25.451 -0.1730 -0.1725 -0.0653
38790W        W81781   3.650  23.932  22.171  0.0055 -0.3573 -0.0965
38791W        W81782  32.173  10.556   1.072 -0.3649  0.0373 -0.2070
38792W        W81783   0.780  10.977  21.149 -0.1692 -0.1646  0.0147
38793W        W81784  21.016   1.441  18.952  0.0963  0.1218  0.2472
38794W        W81785  26.276  23.228  20.427  0.1456  0.1294  0.2888
38795W        W81786  15.912  25.004  22.002 -0.2582 -0.1829 -0.3549
38796W        W81787  27.766  29.126  20.566  0.0905 -0.2632  0.1085
38797W        W81788  33.926  24.714  17.902 -0.0843 -0.0213  0.1868
38798W        W81789  23.132  20.862  12.855 -0.1009  0.0953 -0.1877
38799W        W81790  29.479   4.571  20.131  0.0111 -0.0093  0.4399
38800W        W81791  16.931  14.184  21.061 -0.0676  0.1637  0.2805
38801W        W81792  24.748  23.689  13.810  0.1671  0.1030 -0.0658
38802W        W81793   0.718  14.679  17.727  0.0749  0.2728 -0.1796
38803W        W81794  29.768  14.083  20.798 -0.0982  0.2491 -0.2978
38804W        W81795   7.361  10.117  15.393  0.0524  0.0684 -0.2078
38805W        W81796  27.661   2.725  17.338  0.0028  0.1766  0.1085
38806W        W81797  14.201  11.516  23.415 -0.0460 -0.1318  0.1801
38807W        W81798  31.924  29.042  19.834 -0.3105  0.0869  0.2401
38808W        W81799  19.598   6.432  25.298  0.0299  0.3032 -0.0237
38809W        W81800  13.599   0.837  15.485 -0.0657  0.5624  0.0183
38810W        W81801  14.987  23.230  22.812  0.2651 -0.1547  0.0389
38811W        W81802  19.303  24.781  24.678 -0.3167  0.3820 -0.2200
38812W        W81803  34.617  20.768  17.393 -0.0643 -0.0731 -0.2396
38813W        W81804  25.765  31.808  16.290  0.0443  0.0872 -0.1570
38814W        W81805   2.554   5.241   0.988  0.0782 -0.0136  0.0712
38815W        W81806   0.155  18.529   4.661  0.3590 -0.0409 -0.0511
38816W        W81807  19.530  20.204  12.282 -0.0054 -0.2827  0.0822
38817W        W81808  22.399  31.651  18.322  0.2828 -0.1235 -0.3670
38818W        W81809  21.548  21.512  18.360 -0.0838 -0.2971  0.1659
38819W        W81810   3.110   8.744  27.578  0.1545  0.2057 -0.2088
38820W        W81811  18.084  26.093  16.371 -0.1154 -0.1737 -0.3747
38821W        W81812  29.938  21.926  19.681 -0.0458  0.2601 -0.1269
38822W        W81813  21.102   2.399  20.328  0.0326 -0.2423  0.1335
38823W        W81814  16.188  32.131  14.130 -0.1374  0.4174  0.0658
38824W        W81815   2.706  27.320  27.719 -0.0379 -0.0741 -0.0968
38825W        W81816   6.364  17.515   8.924 -0.4831  0.0904 -0.1863
38826W        W81817  25.985  16.241  15.520 -0.1605 -0.2153  0.0075
38827W        W81818  32.249  26.218  28.511  0.0619 -0.2114 -0.1957
38828W        W81819   9.050  28.523  20.319 -0.3436  0.1590 -0.0068
38829W        W81820  18.533  21.114  15.195  0.0390 -0.0111  0.0670
38830W        W81821  18.595  18.351  12.258  0.2945  0.1304 -0.1236
38831W        W81822   1.933  25.921   1.979 -0.3106  0.0393  0.0872
38832W        W81823  26.935  24.354  14.954 -0.0871  0.0089 -0.2140
38833W        W81824   9.515  30.207   0.682  0.0759  0.3867  0.3175
38834W        W81825  10.703   9.787  17.428 -0.1186 -0.0556 -0.2106
38835W        W81826  25.040  14.572  21.132 -0.1282 -0.1278 -0.1667
38836W        W81827  21.235  32.914   0.062 -0.0994 -0.1478 -0.0504
38837W        W81828  20.874  18.233  24.220  0.2733  0.1330  0.2496
38838W        W81829  32.189  30.814  25.789  0.0778  0.1547 -0.2372
38839W        W81830  30.726  19.394  20.537  0.3425 -0.0350  0.1019
38840W        W81831  30.601  22.693   6.074  0.0778  0.1573  0.3916
38841W        W81832  17.076  23.234  24.515  0.2230  0.2222  0.2620
38842W        W81833  21.146  27.241  24.791 -0.1931  0.1807  0.1422
38843W        W81834  12.463  30.534   0.914  0.2703 -0.0867 -0.0380
38844W        W81835  21.129  26.135  28.666 -0.1467  0.1670  0.0409
38845W        W81836  14.351  11.224  27.319 -0.1953 -0.4018  0.3324
38846W        W81837   6.095  23.560  22.292  0.1432  0.0267  0.0742
38847W        W81838  17.113  32.463  22.994 -0.1135  0.1724  0.0069
38848W        W81839  22.910   5.583  14.102 -0.0314 -0.0350 -0.2649
38849W        W81840  30.178  30.880  13.555  0.3940 -0.0297 -0.3613
38850W        W81841  14.957  19.586  20.439 -0.0923 -0.4031 -0.3317
38851W        W81842  33.059  14.785  18.490  0.1786 -0.0498 -0.1166
38852W        W81843  34.704  14.869  23.088  0.1253  0.2941  0.0308
38853W        W81844  31.028  27.363  13.686  0.0766 -0.0579  0.2130
38854W        W81845   8.553  20.858  21.442  0.2250 -0.0720 -0.1179
38855W        W81846  28.247  23.836  13.234 -0.0930  0.1286  0.1586
38856W        W81847  26.790  22.584  15.230 -0.1605  0.0118  0.3487
38857W        W81848  29.268   1.312  20.276  0.2322 -0.0684 -0.1426
38858W        W81849  22.151  13.590  13.564  0.0932 -0.0726  0.0163
38859W        W81850  25.730  28.777  17.456  0.1392 -0.2577 -0.0178
38860W        W81851  27.487  32.936  21.119 -0.1356  0.0224  0.2116
38861W        W81852   2.319  33.950  26.484 -0.2087 -0.0858 -0.0378
38862W        W81853  18.415  21.249  13.319 -0.0318  0.0097 -0.0007
38863W        W81854   2.994  25.669  20.292  0.0015  0.1636 -0.3337
38864W        W81855  23.040  23.506  16.003 -0.1962 -0.0789 -0.2806
38865W        W81856  26.485  10.474   0.542 -0.1190  0.1455  0.2374
38866W        W81857  22.102  13.348  15.741 -0.0503 -0.1167  0.0747
38867W        W81858  31.651  24.314  20.554  0.0346  0.2477 -0.0807
38868W        W81859  28.102  17.714  23.668 -0.3792  0.0241  0.1007
38869W        W81860  33.442  26.267  15.175  0.2314 -0.1940 -0.2559
38870W        W81861  31.707  27.301  20.271  0.0802 -0.3600 -0.4439
38871W        W81862  34.682   8.929  20.828 -0.0023 -0.2364  0.1594
38872W        W81863  16.503  17.089   1.894  0.1837  0.0288 -0.0229
38873W        W81864  29.388  21.656  19.706 -0.2959 -0.0266 -0.0401
38874W        W81865   3.561  27.615  21.659 -0.2122  0.3362 -0.0300
38875W        W81866  31.345  18.766   7.430 -0.1617 -0.1417  0.1436
38876W        W81867  28.452   7.489  16.045  0.0850  0.0577  0.1172
38877W        W81868   2.999  12.900  27.379 -0.1741 -0.1705  0.0344
38878W        W81869  30.020  28.580  17.168 -0.1214 -0.0959  0.1054
38879W        W81870  25.429  16.517  15.758  0.1029 -0.1534  0.0451
38880W        W81871   1.442  12.088  28.927 -0.0116  0.2146  0.0898
38881W        W81872  26.620  21.641  21.017  0.0220 -0.0348  0.2074
38882W        W81873  23.904  28.579  17.631 -0.2302 -0.0343  0.0795
38883W        W81874  31.588  16.990  21.059  0.0463  0.4180  0.0308
38884W        W81875  23.758  23.876  13.425 -0.3169  0.1201  0.1553
38885W        W81876  28.420  14.447  16.490  0.1687 -0.3468  0.2020
38886W        W81877  31.678  34.226  22.170  0.0898  0.1639  0.1873
38887W        W81878   2.684   7.610  26.212  0.1006  0.1882 -0.1128
38888W        W81879  27.780   5.671  20.328 -0.0398 -0.1527 -0.0024
38889W        W81880  30.955   7.674  18.725 -0.0340  0.0445  0.2897
38890W        W81881  11.751  10.351  21.041 -0.0385  0.2888  0.3247
38891W        W81882  24.921   6.884  14.500 -0.1304 -0.0795 -0.0333
38892W        W81883  33.207  29.978  18.180  0.4031 -0.1238 -0.0089
38893W        W81884  34.613   0.352  22.185 -0.0181  0.4283 -0.4402
38894W        W81885   0.614  14.567  20.147  0.2304 -0.2933 -0.0436
38895W        W81886   2.836  12.023  21.335 -0.3085  0.1555  0.2339
38896W        W81887  24.303  27.158  17.726 -0.1805  0.0055  0.0212
38897W        W81888  30.573  13.431   2.575  0.3213  0.0512  0.0888
38898W        W81889   7.507  18.300   4.947 -0.3743  0.3615 -0.0934
38899W        W81890   0.042  18.032  23.091 -0.2790  0.1732  0.0419
38900W        W81891  26.607  22.344   2.978  0.2892 -0.1524  0.1912
38901W        W81892  26.856  30.249  21.542  0.3600  0.0078 -0.3078
38902W        W81893  32.592  19.571  19.757 -0.1700  0.2731  0.2366
38903W        W81894  24.338  11.376  14.940 -0.1468 -0.2051 -0.0667
38904W        W81895  31.298   6.148  28.318 -0.1015  0.1003  0.0511
38905W        W81896  28.880  11.421  15.883 -0.0895 -0.4327 -0.1050
38906W        W81897  28.164  33.999  20.886 -0.2655  0.2350 -0.1460
38907W        W81898  25.173  15.753   2.334 -0.0592  0.0470  0.1184
38908W        W81899  27.720   0.931  22.982 -0.0656 -0.0123 -0.0724
38909W        W81900  21.821   3.477  14.089  0.0303 -0.1109 -0.1166
38910W        W81901   4.211   2.209  16.114 -0.0119 -0.2097  0.1421
38911W        W81902   5.175  24.491  26.010  0.0426  0.3418 -0.1635
38912W        W81903  23.556  22.984  28.523 -0.2389  0.1378 -0.1264
38913W        W81904  16.867  11.715  23.884  0.1138  0.2941 -0.1429
38914W        W81905   5.195  22.965   2.539  0.0112 -0.2265 -0.0758
38915W        W81906   0.960  19.018  20.342 -0.0280  0.1258 -0.2361
38916W        W81907  27.813  14.490  16.706 -0.0543  0.0778  0.1012
38917W        W81908  28.417  23.275  23.854 -0.2141  0.2002  0.0857
38918W        W81909  11.775   0.412  22.595 -0.2837 -0.1705 -0.0349
38919W        W81910  29.683  14.298  23.254  0.0888  0.1503 -0.0791
38920W        W81911  28.367   0.029   3.425  0.0532 -0.0589 -0.2663
38921W        W81912  22.426  23.471  14.212  0.1863  0.0527 -0.0273
38922W        W81913  31.869   3.023  20.556 -0.2560 -0.0427  0.1325
38923W        W81914   5.056  25.983  21.877 -0.2090 -0.0871 -0.1918
38924W        W81915  33.909   7.573  27.153 -0.0003  0.3389 -0.1908
38925W        W81916  24.955  28.952  18.271 -0.1063  0.0303  0.0880
38926W        W81917  28.082  23.579  25.165 -0.1543 -0.1866  0.2424
38927W        W81918  33.704  26.219  18.627 -0.0826  0.0820 -0.0459
38928W        W81919  21.763  15.655  16.424 -0.4497  0.1320 -0.4384
38929W        W81920  29.687  31.456  13.301 -0.0397  0.2532 -0.0212
38930W        W81921  23.926  10.546  16.234 -0.0478  0.0770 -0.0742
38931W        W81922   8.636  13.728  27.098  0.1200  0.1568  0.0996
38932W        W81923  27.377  25.969  19.814 -0.4701  0.0558 -0.0592
38933W        W81924  24.694  27.947  15.291 -0.0235 -0.1859 -0.0512
38934W        W81925  29.752   3.654  22.915 -0.0862  0.0847 -0.2105
38935W        W81926   4.650  10.995  19.551  0.2755  0.1125 -0.0334
38936W        W81927  27.222  13.042  23.927 -0.2579 -0.0754 -0.1316
38937W        W81928   1.991  18.816  26.268  0.4116 -0.0447 -0.1892
38938W        W81929   4.265  18.550  26.406 -0.0987 -0.0290 -0.1575
38939W        W81930   0.300   0.887  25.879  0.1236  0.0823  0.0703
38940W        W81931  24.444  13.779  16.271 -0.2442  0.0770  0.1903
38941W        W81932   0.181  19.162  19.948  0.0509 -0.0486 -0.0683
38942W        W81933  22.262  13.026  22.676  0.0439  0.2839  0.0803
38943W        W81934   2.237  25.990  14.541  0.1637 -0.0950 -0.0475
38944W        W81935   1.291  29.997  14.351 -0.1714  0.0166 -0.0068
38945W        W81936   7.440  23.267  15.366 -0.3012  0.0771  0.0427
38946W        W81937  26.606  34.753  27.905  0.0864 -0.2088  0.1910
38947W        W81938   7.274  10.197  23.093  0.1694  0.3516  0.0232
38948W        W81939   7.125  21.350  16.883  0.0159  0.0189 -0.1553
38949W        W81940  22.653  10.046  21.042 -0.3018 -0.2052 -0.0507
38950W        W81941  25.230   6.703  20.105  0.3268  0.0710 -0.2969
38951W        W81942  27.367   4.160  20.730  0.2382  0.1099 -0.0974
38952W        W81943  30.628  20.461  18.997  0.1280  0.1609 -0.6302
38953W        W81944  15.636  20.187  16.117 -0.0168  0.0203  0.0839
38954W        W81945  34.260  30.217  20.271 -0.0615  0.1325 -0.0091
38955W        W81946   9.822   9.209  17.405 -0.0101 -0.0577 -0.1146
38956W        W81947   1.377  12.893  17.580 -0.0292 -0.1364 -0.0476
38957W        W81948  29.059  11.500  23.855  0.2451  0.2634 -0.2996
38958W        W81949  18.440  13.920  14.566 -0.0606  0.0933  0.2448
38959W        W81950  33.283  28.243  25.751 -0.2145  0.1643 -0.0427
38960W        W81951  33.075  32.569  24.637  0.2251 -0.4930 -0.2010
38961W        W81952  34.098  34.679  17.504 -0.5195 -0.0130  0.1779
38962W        W81953   3.845  17.688  25.467  0.2905 -0.0663 -0.0738
38963W        W81954  34.303  30.468  18.324  0.0293 -0.0618  0.0813
38964W        W81955  29.077  31.725  13.049 -0.0265 -0.0551  0.0689
38965W        W81956  25.130  18.698  26.274 -0.1670 -0.1264  0.0423
38966W        W81957  24.711  25.711   0.972  0.1332 -0.2210 -0.0420
38967W        W81958  13.021  13.429  19.782 -0.2146  0.2346 -0.1330
38968W        W81959  25.635  12.995  26.028  0.0751 -0.0208  0.0169
38969W        W81960  20.407  27.804  22.690 -0.4106 -0.0396  0.0543
38970W        W81961   0.056  26.435  16.381  0.1729 -0.1725 -0.1584
38971W        W81962  14.117  28.581  17.363  0.0508  0.5348  0.1066
38972W        W81963   7.932  17.909  26.102  0.2516  0.3329 -0.3928
38973W        W81964  29.650  15.307   0.045  0.3839 -0.0183 -0.2459
38974W        W81965  25.349  21.497  18.608 -0.1232  0.0446  0.0063
38975W        W81966  26.543  18.257  18.115  0.2257 -0.0382 -0.1568
38976W        W81967  30.063  23.260   5.618 -0.2109  0.0736  0.0296
38977W        W81968  14.288   8.557  20.715 -0.0482 -0.0501 -0.0381
38978W        W81969  30.808  34.126  15.847  0.0950  0.2117  0.1125
38979W        W81970   9.734  25.938  19.352  0.2487  0.4587 -0.0962
38980W        W81971  34.324  10.956  20.973  0.2856  0.1110  0.0901
38981W        W81972   2.722  21.358  15.323  0.1545 -0.0555  0.0448
38982W        W81973  22.771  27.796  21.931  0.2740  0.1623 -0.0375
38983W        W81974   3.893  31.434  16.887  0.2777  0.0847 -0.0425
38984W        W81975  28.677  23.484  22.076  0.2012 -0.0324 -0.1861
38985W        W81976  31.664  15.215   1.245  0.0659 -0.1538  0.0362
38986W        W81977  34.793  21.814  15.421  0.0523  0.0011  0.2762
38987W        W81978  12.266  26.798  26.506  0.1338 -0.1865 -0.2818
38988W        W81979   6.989   6.060  21.988  0.0409 -0.2535  0.2136
38989W        W81980   5.056  28.165  25.123  0.2365 -0.0165  0.1853
38990W        W81981  21.161  25.394  26.360 -0.0752  0.0902  0.1857
38991W        W81982   1.446   6.855  20.488 -0.1011  0.0074  0.0515
38992W        W81983  22.095  20.410  17.862 -0.1348 -0.2846  0.2955
38993W        W81984   8.570  14.060  16.336  0.0599 -0.0121  0.0319
38994W        W81985  28.379  16.485   1.395 -0.1252 -0.1184 -0.2169
38995W        W81986   5.615  25.228  17.568  0.1965 -0.1567 -0.0864
38996W        W81987  20.333   9.252  23.709  0.0376 -0.1780  0.0712
38997W        W81988  30.380  16.968  25.612 -0.0159  0.0187  0.1329
38998W        W81989  21.184  17.328  12.586  0.0452 -0.0758  0.2610
38999W        W81990  29.320  23.511  18.834  0.1057 -0.4447 -0.1440
39000W        W81991  18.363  11.118  15.452  0.0413  0.0903 -0.3181
39001W        W81992  17.385   5.717   6.973 -0.3378  0.1439 -0.0831
39002W        W81993  28.109  15.188  17.431  0.3155  0.0515  0.2315
39003W        W81994   8.136  29.808  21.651  0.3769  0.1846  0.0633
39004W        W81995  16.998  33.535  24.544 -0.4085  0.0586  0.0410
39005W        W81996   4.979  12.421  23.975  0.0726 -0.0239  0.0775
39006W        W81997  26.778  17.899  17.729  0.0691  0.1718  0.0969
39007W        W81998  25.760  29.330  18.706  0.0021  0.2327 -0.0551
39008W        W81999  25.835  11.803  16.873 -0.3423  0.1079  0.1085
39009W        W82000   6.667   7.839  23.009 -0.1908 -0.2786 -0.0391
39010W        W82001   3.756  14.049  20.163 -0.1551 -0.0138  0.1487
39011W        W82002   1.442  30.524  19.247  0.1898  0.0785  0.3105
39012W        W82003  27.680  33.134  17.707 -0.4718  0.0352 -0.1142
39013W        W82004  23.691  25.020  26.702  0.1885  0.0376 -0.0876
39014W        W82005   0.750  31.160  20.271 -0.0281 -0.1303  0.1286
39015W        W82006  26.763  20.687  17.651  0.1577  0.3093 -0.0370
39016W        W82007   0.904  17.652  20.292 -0.0394 -0.0822 -0.4000
39017W        W82008  32.182  22.089  25.907  0.0152 -0.2030  0.1822
39018W        W82009  32.669   7.349  17.259  0.0152  0.2835 -0.0002
39019W        W82010  28.313  25.038  15.297  0.1024  0.2494 -0.1782
39020W        W82011   9.384  18.309  27.902  0.2605  0.0422 -0.2753
39021W        W82012  33.926  20.731  16.475  0.1041  0.0845 -0.0655
39022W        W82013  21.200  28.243   6.920 -0.2439  0.1906  0.0632
39023W        W82014   1.538  15.826  16.331 -0.2473 -0.0099 -0.2423
39024W        W82015  25.615  24.106  24.037  0.2333 -0.0016 -0.2998
39025W        W82016  32.844   9.261  27.549  0.1772  0.0140 -0.0607
39026W        W82017  29.953  29.797   4.511 -0.0413  0.0685 -0.0380
39027W        W82018  19.337  24.421   3.178  0.3858  0.0920 -0.3359
39028W        W82019  22.253  18.078  22.661  0.0367 -0.0400  0.1118
39029W        W82020   4.510   8.252  21.818  0.1748 -0.0661  0.1168
39030W        W82021   5.118   9.129  23.842  0.0922 -0.1533  0.0353
39031W        W82022   9.280  22.202   1.231  0.1233  0.1885 -0.2007
39032W        W82023   0.676  20.923  18.311 -0.2024 -0.1973 -0.1188
39033W        W82024   1.908  15.525  17.663 -0.1164  0.0557 -0.1597
39034W        W82025   1.463   9.049  17.594  0.0109  0.3761 -0.0550
39035W        W82026   5.920   0.163  19.242  0.2490 -0.2909  0.0396
39036W        W82027   9.661  28.739  22.444  0.0369 -0.0758  0.4442
39037W        W82028  30.823  22.726  24.871 -0.0665 -0.0637  0.1438
39038W        W82029  28.896  23.596  15.837 -0.0408  0.1778  0.1028
39039W        W82030   5.946   3.287  17.351  0.1613  0.1678 -0.0923
39040W        W82031  23.569  30.932  18.394  0.2812 -0.2014  0.0655
39041W        W82032  29.306  20.229  15.169 -0.0286 -0.1909  0.1698
39042W        W82033   9.556  20.086  18.933 -0.0100  0.2784 -0.1492
39043W        W82034  31.428  21.799  18.412 -0.0694 -0.0887  0.2474
39044W        W82035  32.951  24.678   8.812 -0.0036  0.0044 -0.2008
39045W        W82036  14.237   6.975  15.812  0.1593 -0.0234 -0.0862
39046W        W82037  24.675  27.519  25.312 -0.2107  0.0198  0.1841
39047W        W82038  30.797   2.261  22.583 -0.3093 -0.2976 -0.1039
39048W        W82039  11.341  25.105   2.124  0.1144  0.0840  0.1166
39049W        W82040  33.668   0.614  20.013 -0.0355 -0.2330 -0.2524
39050W        W82041  10.901   8.238  18.867 -0.2135  0.1597 -0.1493
39051W        W82042  19.385  32.308  22.093 -0.2952 -0.3125 -0.4104
39052W        W82043  25.214  33.714  28.831  0.0858  0.2014 -0.0339
39053W        W82044  33.687  22.095  24.633  0.2503 -0.1026 -0.3270
39054W        W82045   6.423  25.558  27.945 -0.3856  0.0184  0.3628
39055W        W82046  10.907  13.840   2.876 -0.1849  0.0470 -0.1304
39056W        W82047  22.920  33.995  28.299 -0.2042  0.0585 -0.0015
39057W        W82048  30.178  22.906  15.164  0.1784 -0.1008 -0.2449
39058W        W82049  29.463  29.426  22.413 -0.0395 -0.1257 -0.0236
39059W        W82050   1.818  14.100  17.921  0.1133  0.1443 -0.3520
39060W        W82051   0.832  19.905  14.836  0.2885 -0.2850 -0.1368
39061W        W82052   1.864  26.704   7.164  0.2071 -0.1742  0.2667
39062W        W82053  31.740  24.552  22.983  0.2682  0.1293  0.2404
39063W        W82054  33.152   3.053  18.821  0.0232 -0.2328 -0.1424
39064W        W82055  22.845  27.617  21.350 -0.5019  0.0349 -0.0538
39065W        W82056  24.165  16.314  28.088 -0.0272 -0.2203 -0.0384
39066W        W82057  25.038  20.471  16.868 -0.1090 -0.0988 -0.3488
39067W        W82058   4.224  25.187  18.097 -0.1870  0.2263 -0.1383
39068W        W82059  30.772  16.355  27.846  0.1231  0.3549  0.0661
39069W        W82060   6.029  26.267   6.108  0.0642  0.1436 -0.0734
39070W        W82061  18.526  27.428  28.892 -0.1333 -0.2098 -0.3550
39071W        W82062  24.952  16.347  27.642  0.0421 -0.2982  0.0562
39072W        W82063  24.755   9.944  24.899 -0.0657  0.0684  0.1491
39073W        W82064  32.382   7.372  19.617  0.0257  0.1232 -0.2472
39074W        W82065  21.365  20.900  25.373 -0.1136  0.1216 -0.0936
39075W        W82066  30.958  29.189  17.263 -0.0453 -0.0100  0.0519
39076W        W82067  27.931  23.038  23.766  0.0604 -0.1684  0.1413
39077W        W82068   7.767   8.254  19.537 -0.0938  0.0613 -0.2955
39078W        W82069  22.457  30.191   0.036  0.2349 -0.1987 -0.0252
39079W        W82070  16.958  11.863  20.133 -0.2487 -0.0403  0.3441
39080W        W82071  34.531  24.159  22.138 -0.0301  0.1105  0.1491
39081W        W82072  26.936  25.544   5.593  0.3301  0.1237 -0.0213
39082W        W82073  16.444  29.570  19.507 -0.0665  0.1247  0.0168
39083W        W82074   5.351  16.383   3.609  0.0050  0.2091  0.2081
39084W        W82075  33.212  18.126  27.826 -0.1589  0.0163 -0.3868
39085W        W82076  28.372  31.922  18.657  0.0020 -0.1107 -0.1014
39086W        W82077   0.324  12.248  19.327 -0.0961 -0.0118  0.2644
39087W        W82078  31.495  11.255  27.967  0.0455  0.3081 -0.1473
39088W        W82079  22.419  21.864  14.452  0.0303  0.1771  0.1286
39089W        W82080   2.638  21.737  24.407  0.0532 -0.3937 -0.2410
39090W        W82081  29.238  16.681  16.591  0.0475  0.0886  0.0160
39091W        W82082  27.629  13.758  17.922  0.0394 -0.2712 -0.2945
39092W        W82083  32.921   8.484  23.792  0.3431  0.0906  0.0203
39093W        W82084   5.226   7.130  26.328 -0.0047 -0.0598  0.0971
39094W        W82085  27.139  22.792  17.150 -0.0887 -0.2006  0.1149
39095W        W82086  27.977   9.528  16.084  0.1823 -0.0247 -0.1928
39096W        W82087  16.884  14.425  24.225  0.0096 -0.1752  0.0907
39097W        W82088   3.385  14.455  21.647 -0.0436 -0.1980  0.0644
39098W        W82089  24.375  29.163  24.914 -0.0491  0.0923  0.1571
39099W        W82090  31.918  14.238  23.193 -0.1148  0.2401 -0.3826
39100W        W82091   1.090  18.687  14.820 -0.1850  0.4855  0.0319
39101W        W82092   3.521  29.513  24.011 -0.1023  0.0490 -0.0366
39102W        W82093  30.959  15.393  27.122  0.1369 -0.1164  0.0805
39103W        W82094  31.117   6.877  17.661  0.1368  0.1475  0.0318
39104W        W82095   1.716   3.336   7.577 -0.2190  0.1250 -0.0742
39105W        W82096  31.995   5.670  16.326 -0.0336  0.3597  0.0019
39106W        W82097  27.952  25.559  17.147  0.0714 -0.0028  0.1554
39107W        W82098  33.408  34.105  18.448  0.2218  0.2196  0.1852
39108W        W82099  32.640  32.178  29.240  0.3389 -0.0279 -0.2200
39109W        W82100   1.426  14.681   4.597 -0.2723 -0.1768 -0.3069
39110W        W82101  31.115  18.200  18.453  0.0055  0.0014 -0.0100
39111W        W82102  19.121  32.753  21.286 -0.0450 -0.4058  0.1155
39112W        W82103  31.854  31.080  28.084 -0.4081  0.0278  0.0803
39113W        W82104  31.781   6.707   2.811  0.1568  0.3947 -0.0482
39114W        W82105  33.556  13.736   6.106 -0.2813  0.2172 -0.2462
39115W        W82106  21.416  25.208  27.741  0.2215  0.1736  0.0626
39116W        W82107  10.367  24.545  17.921  0.0480 -0.0668  0.1886
39117W        W82108  26.958  27.704   2.131 -0.0403 -0.0703  0.1575
39118W        W82109   8.988  11.942  27.239  0.0214  0.2725 -0.0184
39119W        W82110   4.413  29.308  15.673  0.1526  0.0448 -0.4253
39120W        W82111  22.114  12.106  15.237  0.2496  0.1607 -0.0098
39121W        W82112   0.002  28.143  17.223  0.0089  0.0503 -0.1019
39122W        W82113  29.502  21.167  24.912 -0.1139  0.0640  0.1002
39123W        W82114   6.276   8.675   2.702  0.0757 -0.0296 -0.1953
39124W        W82115  21.519  30.511  17.746 -0.0448  0.0611  0.1678
39125W        W82116   2.522   9.141   3.660  0.3392  0.1022  0.0797
39126W        W82117  11.539  24.150  19.227 -0.0011 -0.1193 -0.0030
39127W        W82118  26.324  10.893  21.647 -0.2975  0.0354  0.0324
39128W        W82119  21.465  23.988  14.923  0.1376  0.1157  0.1642
39129W        W82120  34.043  32.050  20.123  0.1035 -0.1085 -0.1763
39130W        W82121   0.509  30.670  13.207  0.3100 -0.1401  0.0581
39131W        W82122  34.777  25.134  22.658  0.0928 -0.1806  0.0822
39132W        W82123  33.675  15.805   4.980  0.3086 -0.1842  0.0810
39133W        W82124  16.738   7.222  22.787 -0.2554  0.0435  0.0216
39134W        W82125   5.517  20.419  23.167 -0.0617 -0.0364 -0.2253
39135W        W82126  14.199  18.862  13.862 -0.1066 -0.0050  0.1613
39136W        W82127  25.522  23.038  28.970 -0.2335 -0.0332  0.0989
39137W        W82128  18.788  20.662  14.160  0.2050  0.0552  0.4391
39138W        W82129  28.253  28.047  15.941 -0.0061  0.1381  0.0283
39139W        W82130  33.622  22.994  28.412 -0.1588 -0.2425  0.0363
39140W        W82131  18.976   5.288  15.627 -0.1071 -0.0023  0.0775
39141W        W82132  30.261  18.715  22.238  0.0741  0.2421  0.1753
39142W        W82133  26.250  19.509  22.969 -0.0378 -0.0215  0.1882
39143W        W82134   3.564  31.231   2.202  0.2687  0.0346  0.1574
39144W        W82135   9.006  27.513  20.189  0.1105 -0.0375 -0.1097
39145W        W82136  16.592  11.137  25.450 -0.1171  0.0182  0.1568
39146W        W82137  25.190  22.815  22.710 -0.1520  0.1854  0.0816
39147W        W82138   0.230  24.104  15.195  0.1806 -0.0583  0.1622
39148W        W82139  25.415  23.894  15.868  0.2341 -0.1451 -0.0545
39149W        W82140  22.117   9.364  17.649 -0.3050  0.2442 -0.0516
39150W        W82141  28.477  26.061  21.784  0.0711 -0.0254  0.0979
39151W        W82142   1.207   7.931  28.898 -0.2211  0.1884  0.1908
39152W        W82143   0.164  28.590  19.027  0.1279 -0.0952 -0.0000
39153W        W82144  10.235  29.082   4.621  0.3063  0.2295  0.0900
39154W        W82145  30.690  22.687  15.325 -0.2221 -0.2508  0.0704
39155W        W82146  32.652  16.605  18.545  0.2114  0.1033  0.1756
39156W        W82147  16.953   4.739  29.125 -0.3856  0.1215  0.0136
39157W        W82148  34.659  14.582  27.152  0.0308 -0.1445 -0.0260
39158W        W82149  32.040  30.966  17.478 -0.2217  0.0847 -0.2508
39159W        W82150  17.286   4.000  23.461 -0.1499 -0.0333  0.2620
39160W        W82151  31.879  23.917  28.409  0.0980 -0.1414 -0.0004
39161W        W82152  34.675   4.613  21.688  0.3200  0.0896  0.1219
39162W        W82153  24.754  14.648  17.162  0.0978  0.2652  0.1010
39163W        W82154   5.458  26.098  16.277  0.0199  0.1242  0.0809
39164W        W82155   0.712  31.644  25.200  0.0261  0.0658 -0.0718
39165W        W82156  27.548  24.128  16.203  0.0482 -0.3664 -0.2839
39166W        W82157   0.081  21.801  24.851 -0.1506 -0.5639 -0.2276
39167W        W82158  24.275  29.113  19.863  0.3636 -0.4826  0.1755
39168W        W82159   2.986  24.533  26.929 -0.1576  0.2553 -0.1254
39169W        W82160  20.448   6.592  19.243 -0.1951 -0.1389  0.1400
39170W        W82161  14.441  11.166  18.376 -0.2328  0.0017 -0.0790
39171W        W82162  13.823   3.863  24.353  0.0340  0.0447  0.2270
39172W        W82163  24.898  15.458  20.172  0.1720  0.3525  0.1009
39173W        W82164  18.659   2.798  21.976 -0.2320 -0.2836 -0.2976
39174W        W82165  21.181  11.338  14.687 -0.0583  0.0242 -0.0959
39175W        W82166   1.482  20.917  27.408 -0.0595  0.0989  0.1418
39176W        W82167  29.820   6.798   7.036  0.1450  0.1998 -0.4084
39177W        W82168  23.421  21.078  13.238 -0.1238  0.0399 -0.1868
39178W        W82169  27.219  17.191  16.482  0.3364  0.1189 -0.0061
39179W        W82170  14.928  13.454  19.831 -0.0603  0.1181  0.1491
39180W        W82171   1.912  20.296  17.699  0.1158  0.1194  0.0077
39181W        W82172  32.378  15.077  26.907 -0.2372  0.0357 -0.3672
39182W        W82173  33.906  21.453  14.435 -0.2703 -0.1698 -0.1220
39183W        W82174   3.512  33.221  17.828 -0.0890  0.1923 -0.2260
39184W        W82175  21.125  17.736   3.004 -0.0777 -0.2350  0.2661
39185W        W82176  15.115  14.663  16.545 -0.0074  0.0354 -0.0627
39186W        W82177  11.284   8.253   4.720 -0.0547 -0.0584  0.2476
39187W        W82178  18.639  15.416   2.637 -0.0042  0.0267  0.1640
39188W        W82179   1.357   0.689   4.708 -0.0195  0.2444 -0.1201
39189W        W82180   0.822  33.536   4.186  0.1926 -0.1780  0.4311
39190W        W82181  34.192   3.373  16.789 -0.1086  0.0477  0.0460
39191W        W82182  25.134  25.783  24.042 -0.3427  0.0994 -0.0425
39192W        W82183  21.129  12.939   6.990 -0.1626  0.2339  0.2691
39193W        W82184  27.975  26.704  25.943 -0.1123 -0.2592  0.0614
39194W        W82185  24.393  31.356  16.472  0.0144  0.1782 -0.3175
39195W        W82186  28.656   2.519   0.812 -0.1588 -0.1262 -0.0865
39196W        W82187  25.809  12.345  25.603  0.0278  0.1696  0.2097
39197W        W82188   5.323  20.783   0.337 -0.1547 -0.2532  0.1600
39198W        W82189  18.403  20.302  23.819 -0.0703 -0.1494 -0.1870
39199W        W82190  32.884   8.006  22.319 -0.1882 -0.2010 -0.1694
39200W        W82191  10.818  13.623  15.511 -0.0370 -0.1764  0.0567
39201W        W82192  31.701  26.727  25.634  0.1926 -0.1180  0.1070
39202W        W82193  30.348  31.212  20.056 -0.2676 -0.1992  0.0442
39203W        W82194  15.847  10.400  23.225 -0.0730 -0.0543 -0.1506
39204W        W82195   0.830  21.445  18.427  0.1830 -0.0799  0.2649
39205W        W82196   2.534  27.198  19.366 -0.0076 -0.1968  0.0174
39206W        W82197  27.706  25.429   3.978 -0.0664 -0.2574 -0.1676
39207W        W82198  28.050  24.650  27.800  0.5485 -0.2378 -0.0107
39208W        W82199   9.018  11.408  21.953 -0.0969  0.0938 -0.1621
39209W        W82200  27.295  33.593  12.893 -0.0790  0.1585  0.0462
39210W        W82201  28.211  18.315  25.244 -0.2394 -0.0391  0.1188
39211W        W82202   5.541  24.368   5.445  0.3242 -0.1476 -0.1376
39212W        W82203  27.467  12.456  27.224  0.0005 -0.0528 -0.1521
39213W        W82204   4.495  19.814  27.482 -0.1950  0.0624 -0.1081
39214W        W82205   7.702  19.655  17.956  0.0254 -0.1470 -0.2038
39215W        W82206  25.622   7.278  22.378  0.0917 -0.0298  0.0912
39216W        W82207   2.716  23.245  27.365  0.2966 -0.1981  0.1847
39217W        W82208   8.874  17.695  16.215  0.1765  0.1071 -0.0621
39218W        W82209   2.252  29.810   2.875  0.1943  0.2109  0.2861
39219W        W82210  34.341   6.569   8.228  0.2400 -0.0772  0.3079
39220W        W82211  28.917  18.164  26.936 -0.0530 -0.1155  0.0745
39221W        W82212  30.497  32.055  20.805  0.2427 -0.1568  0.0535
39222W        W82213   5.913  10.478   7.724  0.2337  0.0538 -0.0317
39223W        W82214   0.137  18.349  22.154  0.2258 -0.0168  0.1593
39224W        W82215  33.922  34.758  19.116  0.1528 -0.1893  0.0004
39225W        W82216  23.437   4.115  17.981  0.2363  0.0726 -0.1785
39226W        W82217  28.540  25.739  14.105 -0.2495 -0.3164 -0.0780
39227W        W82218   4.907  17.792  25.571 -0.1190 -0.1082  0.2237
39228W        W82219   0.806  27.941  22.871 -0.0092  0.1510 -0.0199
39229W        W82220  34.552  24.634   4.890  0.0437 -0.0938  0.0349
39230W        W82221  15.992  25.310  18.234 -0.0153 -0.1219  0.4117
39231W        W82222   3.628  23.350  17.036  0.0091 -0.3978 -0.0456
39232W        W82223   9.760  34.729  27.136 -0.1028  0.0555  0.1607
39233W        W82224  21.765  12.117  15.637 -0.0464 -0.0660 -0.2138
39234W        W82225   2.407  18.605  15.751 -0.0310  0.0033 -0.1547
39235W        W82226  10.112  26.422  15.131  0.1539  0.0787  0.0207
39236W        W82227  29.655  28.824  12.595  0.5325  0.0631  0.0016
39237W        W82228  26.930  22.332  21.820  0.1296  0.0960 -0.1135
39238W        W82229  12.970  19.464   9.021 -0.0190 -0.1188 -0.0431
39239W        W82230  20.583  21.434  28.997  0.0576 -0.0123 -0.2665
39240W        W82231  21.213  26.206  15.041  0.1015  0.1396  0.2190
39241W        W82232  23.490   6.846   2.501  0.2540  0.1193 -0.1588
39242W        W82233   3.947  20.378  21.298 -0.0843 -0.0648 -0.2297
39243W        W82234  32.863  16.696  21.997 -0.0599  0.1913 -0.1135
39244W        W82235   4.029  23.037  26.039  0.2688  0.0368  0.0329
39245W        W82236   1.446  31.695  18.480  0.0334 -0.2165  0.0927
39246W        W82237  12.865  22.742   7.149  0.2742 -0.0319 -0.1417
39247W        W82238  27.980  19.638  26.381  0.0264 -0.0345 -0.0590
39248W        W82239  34.044  21.392  28.382 -0.0148  0.1045 -0.1098
39249W        W82240  22.422  21.203  16.300 -0.0564  0.0753  0.2442
39250W        W82241  16.564   7.109  14.821  0.1915 -0.0397 -0.1641
39251W        W82242  11.930   9.215  16.329  0.2344 -0.1050  0.1422
39252W        W82243   9.026  17.338  18.195 -0.1535 -0.1660  0.1360
39253W        W82244  28.277  21.967  16.950 -0.0413  0.1084  0.0005
39254W        W82245  31.675  14.436   4.796 -0.0514  0.1007 -0.0172
39255W        W82246  22.556   9.228  16.607 -0.1647  0.0700  0.1420
39256W        W82247  22.258  13.856  23.490 -0.1276 -0.2484 -0.2968
39257W        W82248  25.267  27.048  18.968 -0.1902 -0.0454 -0.1479
39258W        W82249  29.487  18.607  25.309  0.2156 -0.0364  0.3815
39259W        W82250   5.102  14.851   3.904  0.2735  0.1100  0.1693
39260W        W82251  24.771  30.292  24.999 -0.3957  0.1108 -0.1787
39261W        W82252  33.726  19.370   2.749 -0.0499  0.1331 -0.3578
39262W        W82253   2.001  13.488  18.877  0.1203  0.1717 -0.0178
39263W        W82254  28.127   4.020  18.858 -0.4813 -0.2487 -0.2103
39264W        W82255  30.467   7.535  17.579 -0.2652 -0.2709  0.0779
39265W        W82256  29.975  34.651  24.892 -0.2656  0.2291 -0.1149
39266W        W82257  21.715  30.239  26.147  0.3097  0.0623  0.0030
39267W        W82258  32.781  18.668   2.258 -0.0801 -0.1068  0.1728
39268W        W82259  30.158  15.000  25.475 -0.0219 -0.1699  0.0245
39269W        W82260  27.460  12.919   1.774  0.0760 -0.2278 -0.0322
39270W        W82261  28.126   4.455  15.981  0.2398 -0.0893  0.0324
39271W        W82262  28.760  11.625  18.560 -0.2316  0.1136 -0.0777
39272W        W82263  16.696  22.313  13.352 -0.0450 -0.2430 -0.0572
39273W        W82264  12.029  10.635  16.799  0.0658 -0.0980 -0.0700
39274W        W82265  19.453  11.285  24.675 -0.1463  0.1181  0.1475
39275W        W82266   9.958  19.153  15.140  0.0137  0.0144 -0.2143
39276W        W82267  26.000   8.580  16.978  0.3406  0.3617 -0.0406
39277W        W82268  28.351  30.541  19.038  0.0624  0.1606  0.0343
39278W        W82269   6.721  29.259  23.151  0.0775  0.2738 -0.2848
39279W        W82270  18.413   0.185   4.259  0.0034  0.0296  0.1004
39280W        W82271  15.881  21.455  17.513 -0.0000 -0.0026 -0.1786
39281W        W82272  22.896  34.383  26.719  0.2595 -0.1271 -0.1932
39282W        W82273   8.807   4.447  24.189  0.1382 -0.2255  0.0137
39283W        W82274   1.523  21.828  14.713  0.1379 -0.0284 -0.1985
39284W        W82275  30.013  23.443  27.423  0.0626 -0.3752 -0.1582
39285W        W82276  26.628   8.150   3.933  0.1612  0.0018 -0.2500
39286W        W82277  34.263  17.339  21.479 -0.0524 -0.1109  0.2064
39287W        W82278   7.418  27.980  15.858 -0.1685  0.1847  0.0756
39288W        W82279  31.284  23.303  29.214 -0.0447 -0.1023  0.0561
39289W        W82280   4.451   3.817  16.710 -0.2843 -0.1029 -0.1323
39290W        W82281  29.184  29.482  24.296 -0.1263 -0.0824  0.0100
39291W        W82282  12.090  16.500   6.796 -0.1888  0.0741 -0.1937
39292W        W82283  34.688  14.499   7.786  0.3269  0.0972  0.1322
39293W        W82284  18.726   5.775   5.737 -0.0667 -0.0875 -0.1779
39294W        W82285  33.486  10.932  16.292 -0.1692  0.2374  0.2477
39295W        W82286  26.788  18.134  21.924  0.0042  0.0752  0.0480
39296W        W82287  30.628  14.113  19.537  0.0602 -0.2760 -0.0179
39297W        W82288  31.703   1.328  20.016 -0.1400 -0.3223 -0.0326
39298W        W82289  31.015   0.230  25.136 -0.3488  0.0685 -0.1358
39299W        W82290  30.768  29.324  13.215 -0.1488  0.2872  0.0206
39300W        W82291  26.722   9.501  20.016 -0.1691 -0.1074 -0.1121
39301W        W82292   3.968  29.099  18.183  0.1110 -0.0017 -0.0508
39302W        W82293   5.214  22.164   5.746  0.1770 -0.1129 -0.1183
39303W        W82294   4.141   6.461  16.040 -0.2430  0.0316 -0.1362
39304W        W82295  25.803   9.737   1.473  0.2542  0.1502  0.0257
39305W        W82296  22.564  13.872  27.828  0.0351  0.0188 -0.3281
39306W        W82297  21.933   1.953  23.733  0.2258 -0.0293  0.0589
39307W        W82298   0.967  20.664   7.532 -0.0750 -0.3190  0.0346
39308W        W82299  25.996  29.586  17.105  0.2513  0.1385  0.0410
39309W        W82300  25.583  22.424  16.025 -0.0903  0.2209 -0.0036
39310W        W82301  33.064  22.054  22.498 -0.1398  0.2745  0.1168
39311W        W82302   0.933  20.765  16.622 -0.2517 -0.0086  0.1222
39312W        W82303  27.756  13.567  20.136  0.0723 -0.0125 -0.2990
39313W        W82304  22.122  17.913  25.720  0.0323 -0.0372  0.2626
39314W        W82305  18.217   2.095  19.226  0.3510  0.1449 -0.2875
39315W        W82306  25.626  28.174  28.052  0.2339 -0.2459 -0.2678
39316W        W82307  23.075  26.468  27.136  0.0247 -0.3040 -0.4449
39317W        W82308  19.710  19.030  14.028 -0.0080 -0.2625 -0.3612
39318W        W82309   7.292  31.179  21.678  0.1068 -0.4041  0.2219
39319W        W82310  32.197  22.341  19.911 -0.0885 -0.0119 -0.1132
39320W        W82311  29.133  11.276  14.943  0.0448  0.3273 -0.3809
39321W        W82312   8.175   4.032  19.683 -0.0175 -0.0313 -0.0228
39322W        W82313  27.324  17.503  22.128 -0.1318 -0.2423  0.0277
39323W        W82314  20.546   6.825   7.585  0.2593  0.1256 -0.1071
39324W        W82315  26.011  30.440  22.655  0.4010  0.2820 -0.2739
39325W        W82316  17.612   6.425  26.110 -0.1092 -0.0043  0.2948
39326W        W82317   6.362  16.364  26.647 -0.0466  0.1302 -0.1790
39327W        W82318  25.950  18.212   4.995  0.1858  0.1372 -0.1117
39328W        W82319  32.434  18.241  18.277 -0.1620  0.2408  0.1621
39329W        W82320   4.982   8.526   3.312 -0.0436  0.3276 -0.2144
39330W        W82321  31.007  22.120  25.573 -0.0683  0.0917  0.0201
39331W        W82322   0.722  14.703  16.752  0.1693 -0.0839 -0.0146
39332W        W82323  14.481  25.117  22.244  0.0480  0.1432 -0.1429
39333W        W82324  27.584  28.962  13.251  0.1783  0.1925 -0.0772
39334W        W82325  31.265  28.868  23.252  0.1264 -0.0008 -0.1740
39335W        W82326  29.070   7.037  14.779 -0.1529 -0.2018 -0.0359
39336W        W82327  14.231  23.642  14.094  0.1071  0.1495  0.1000
39337W        W82328   0.850   8.956  16.479 -0.1313  0.2544 -0.0291
39338W        W82329  30.336   7.988  15.673  0.0642 -0.0680 -0.1966
39339W        W82330   3.385  30.343  16.108 -0.3008  0.1518  0.2014
39340W        W82331  13.841  28.191  18.818  0.0475 -0.1356 -0.4298
39341W        W82332  29.998  22.513  18.214  0.0792  0.0185  0.0000
39342W        W82333   2.214   7.887  17.873 -0.1655  0.1557 -0.1418
39343W        W82334   4.143   6.062   9.490 -0.3747  0.0787 -0.1677
39344W        W82335  23.629  15.223  22.970 -0.1294 -0.1233  0.0596
39345W        W82336  25.304  19.337  14.574 -0.0757 -0.0115  0.0321
39346W        W82337  18.302  22.840  28.764 -0.0161 -0.2491  0.1143
39347W        W82338  30.673   2.263  23.952  0.1757  0.2796  0.1602
39348W        W82339   7.893  14.743  23.167  0.0407  0.1044 -0.3222
39349W        W82340  10.578  15.279  27.921 -0.2106  0.1373 -0.1699
39350W        W82341  24.235   9.042  15.112  0.3042 -0.0649  0.0318
39351W        W82342  30.162  13.634  17.835  0.3613  0.3027  0.1021
39352W        W82343  22.174  28.984  17.350  0.0105  0.0988  0.0840
39353W        W82344  32.212  22.462   3.367  0.1787 -0.1131 -0.1247
39354W        W82345   2.060  21.897  19.871 -0.0775  0.0051 -0.0895
39355W        W82346   5.951  28.783  19.408 -0.0782 -0.0860  0.0791
39356W        W82347  22.298  28.952  19.690 -0.1770 -0.5151  0.3723
39357W        W82348  25.632  12.327  19.673 -0.0825 -0.1205 -0.0769
39358W        W82349  13.328  22.630   1.368 -0.1074  0.0255  0.0365
39359W        W82350  24.363  17.650  15.915 -0.1415  0.2231  0.0449
39360W        W82351  34.069  29.218  19.068 -0.1499  0.1492  0.2470
39361W        W82352  32.946  31.779   3.102 -0.0630  0.1523  0.0853
39362W        W82353  32.681  15.875  18.800 -0.1287  0.1763  0.0200
39363W        W82354  17.947  15.735  26.159 -0.1678  0.0079  0.2000
39364W        W82355   9.788  10.538   2.606 -0.1268 -0.0113 -0.0160
39365W        W82356   4.527  28.055  14.294  0.1618 -0.0899  0.0575
39366W        W82357  26.869  23.005  16.125 -0.2088 -0.4061 -0.0640
39367W        W82358  28.148   6.715   5.396  0.0598  0.0595 -0.3130
39368W        W82359   2.996   9.156  28.159  0.3330 -0.0492  0.1409
39369W        W82360  14.375  12.226   5.448  0.2449  0.0284  0.2038
39370W        W82361  32.237  29.166  17.102 -0.2616 -0.1216 -0.0315
39371W        W82362  24.118   5.563  25.243  0.2780 -0.0431 -0.1022
39372W        W82363   7.177   1.357  15.091 -0.1670 -0.0784  0.1664
39373W        W82364  21.039  22.240  20.343  0.2888  0.4259  0.1582
39374W        W82365   6.631  15.658  19.401  0.0234 -0.2315 -0.2512
39375W        W82366  32.598  18.354  27.984 -0.3804  0.1695 -0.0575
39376W        W82367  22.369  16.191  17.724  0.2134  0.2591  0.0674
39377W        W82368   1.902   1.739  19.897 -0.0144  0.0903 -0.0180
39378W        W82369  22.182  29.371  19.331 -0.0800 -0.3928  0.0188
39379W        W82370  28.011  19.153  15.824 -0.0620 -0.0982  0.0788
39380W        W82371  25.881  28.841  25.737  0.0130 -0.1063 -0.3177
39381W        W82372  17.916  21.811  17.266  0.1992  0.0612 -0.0624
39382W        W82373  15.361  31.222   7.838 -0.2529  0.0244  0.0851
39383W        W82374  13.361  34.676   3.252  0.1384  0.1042  0.4941
39384W        W82375  27.060   7.359  18.662  0.1346  0.2419 -0.2529
39385W        W82376  30.933   9.388  27.312 -0.1529 -0.1119  0.2799
39386W        W82377   9.847  14.569  20.807 -0.0110 -0.1159  0.1828
39387W        W82378  11.174  15.687   0.344  0.2020 -0.1087  0.3603
39388W        W82379  28.842  19.231  14.040  0.0350  0.2929  0.0111
39389W        W82380  24.731   9.608  15.806 -0.0495  0.3245 -0.1610
39390W        W82381  28.113  20.289  19.509 -0.0460  0.0708  0.0233
39391W        W82382   1.562  25.805  25.400 -0.0021  0.2264 -0.1070
39392W        W82383  25.676  16.431   0.803 -0.0443 -0.1444 -0.3527
39393W        W82384  30.702  17.479  20.311 -0.0953 -0.0366 -0.2180
39394W        W82385  34.424  12.841  18.154  0.2887 -0.0376 -0.1523
39395W        W82386  14.182  30.027   3.356 -0.0261 -0.0446  0.0161
39396W        W82387  24.322  29.090  20.531  0.0838  0.1420  0.0869
39397W        W82388  23.507  12.763  24.874  0.3636  0.0208 -0.2769
39398W        W82389   0.140  17.745  23.485  0.0397 -0.1359 -0.1570
39399W        W82390   4.687  20.191   1.316 -0.2534  0.2141  0.2034
39400W        W82391  32.854  34.499   0.112 -0.0485  0.1564  0.1154
39401W        W82392  21.042   2.111  22.262  0.0630 -0.0506  0.2815
39402W        W82393  11.757  25.320  23.400 -0.0976 -0.3395  0.1522
39403W        W82394   5.421  29.538  17.956  0.1230  0.0982 -0.1219
39404W        W82395  25.420   0.514   2.540 -0.3213 -0.2999 -0.2617
39405W        W82396  21.993  21.770   2.414 -0.1771  0.1376  0.2193
39406W        W82397  13.287  14.710  29.166 -0.2359 -0.1235 -0.0019
39407W        W82398   0.364  25.256  26.762  0.1754 -0.0100  0.0232
39408W        W82399  34.237   5.771  28.218  0.0716  0.0015  0.1918
39409W        W82400  31.519  17.453   7.901 -0.2624  0.1164  0.0164
39410W        W82401  13.699  12.498  25.959  0.2212 -0.1326  0.0118
39411W        W82402  32.409  17.474  22.666  0.0726  0.0163  0.0866
39412W        W82403  32.618  28.276   9.697 -0.1400  0.1386 -0.0917
39413W        W82404  26.371  23.550  20.011 -0.2554  0.1145 -0.1387
39414W        W82405  21.726  13.802   4.476  0.0765 -0.0577 -0.2212
39415W        W82406  33.724  31.242  16.639  0.4657 -0.1162  0.0490
39416W        W82407  22.498  20.881   0.251  0.2749 -0.0385  0.1397
39417W        W82408  33.553  24.644  22.801  0.1918  0.1053 -0.0724
39418W        W82409   0.191  19.867  22.824 -0.0196 -0.0056  0.0916
39419W        W82410  28.100   8.160  29.102  0.2116  0.0310 -0.1177
39420W        W82411  30.171  30.628  23.721  0.4078  0.0532 -0.2914
39421W        W82412  10.996  22.157   2.427  0.0593  0.1752 -0.1219
39422W        W82413   9.940  24.634  14.230 -0.0257  0.0233 -0.1474
39423W        W82414  25.042   4.942  23.451 -0.0066 -0.2293 -0.0888
39424W        W82415  22.279  20.559  12.900 -0.1811  0.1136 -0.2243
39425W        W82416   4.059  18.599  21.177  0.1544 -0.4534  0.0565
39426W        W82417  27.010   5.647  28.266 -0.0537  0.1369 -0.1767
39427W        W82418   8.274  11.665  15.870 -0.0094 -0.2556  0.0531
39428W        W82419  30.827  16.791  24.882  0.1016  0.1519  0.1593
39429W        W82420  30.061  12.815  26.262  0.2894  0.3402 -0.0267
39430W        W82421  23.200  12.253  24.740 -0.3488 -0.0127  0.1006
39431W        W82422  29.545   4.930  19.778  0.0252  0.2277 -0.1286
39432W        W82423  22.342  18.303  20.588  0.0881 -0.0498  0.1786
39433W        W82424  34.508  19.453   6.608 -0.2452 -0.0968 -0.0140
39434W        W82425  31.032  31.362  21.905 -0.1401  0.3364  0.1975
39435W        W82426  28.856   9.080   5.060 -0.2472 -0.2501  0.1848
39436W        W82427  28.145   7.896  23.054  0.0874 -0.0047 -0.0054
39437W        W82428  28.336  26.455  24.000 -0.0295 -0.2630 -0.0403
39438W        W82429  24.912  29.732  21.737 -0.0694  0.1115 -0.2360
39439W        W82430  23.328  24.681  13.051 -0.0917 -0.2015  0.4843
39440W        W82431   7.410  28.502  22.889  0.0547 -0.0950 -0.1903
39441W        W82432  34.318   8.107   3.557 -0.2055 -0.0083  0.0316
39442W        W82433   0.609  23.660   6.016  0.3051 -0.1288 -0.1269
39443W        W82434  30.824  20.937  15.564 -0.0612  0.2141 -0.1178
39444W        W82435  32.578  26.114  28.101 -0.0017 -0.0345 -0.0688
39445W        W82436  22.318  26.870  13.835 -0.2571  0.0842  0.1770
39446W        W82437  26.218  33.123  22.255  0.0847 -0.0695  0.2000
39447W        W82438  28.921  25.717  22.577 -0.0083  0.1380 -0.1961
39448W        W82439  26.015  22.506  16.307  0.0840 -0.1739  0.3075
39449W        W82440  31.032  15.702   3.047  0.1563  0.0536 -0.0624
39450W        W82441  19.064  12.902   0.585  0.1645 -0.1461 -0.1348
39451W        W82442  27.022  23.156  15.273 -0.1634 -0.4103  0.0382
39452W        W82443   0.444  23.579   0.689  0.3312 -0.3662  0.0473
39453W        W82444  15.963  17.268  27.563 -0.0846 -0.0882 -0.1647
39454W        W82445   0.405  11.158  10.581  0.0756  0.0985 -0.0514
39455W        W82446   2.389  25.722   2.082  0.1114  0.0700  0.0475
39456W        W82447   5.762  16.262  14.824  0.2641 -0.0479  0.1492
39457W        W82448  29.004  28.745  20.433 -0.0371 -0.2178 -0.0905
39458W        W82449  25.129  13.159   2.935 -0.3834  0.1745 -0.0725
39459W        W82450  28.416  20.844  26.222 -0.0180 -0.1731  0.3097
39460W        W82451  27.431  28.303  28.757  0.3353 -0.0377 -0.1895
39461W        W82452   1.405   6.295   0.360  0.2217  0.4449 -0.0274
39462W        W82453   0.279  31.073   5.425 -0.0062 -0.0674  0.1074
39463W        W82454  31.427  16.074   5.338 -0.1362 -0.1360  0.2238
39464W        W82455  29.025   9.656  18.908 -0.0922  0.2544 -0.0355
39465W        W82456  23.746  12.723  25.371 -0.0790  0.0904  0.1746
39466W        W82457   4.174  20.985  26.715  0.5241  0.0436  0.1864
39467W        W82458   1.255  12.592   2.411 -0.1899  0.0536  0.0787
39468W        W82459  18.146  23.878  16.132 -0.3416  0.1125 -0.4220
39469W        W82460  18.598  21.056  13.822  0.0266  0.1418  0.3535
39470W        W82461  21.749  32.716   5.697 -0.0813 -0.0959  0.1071
39471W        W82462  12.419  31.220  25.154 -0.1211 -0.1213 -0.1648
39472W        W82463  27.369  22.028  16.651  0.0189 -0.1879  0.1075
39473W        W82464  21.240  19.765   4.899  0.3942  0.2063 -0.0774
39474W        W82465   8.444  24.609   1.068  0.2568 -0.3222 -0.0182
39475W        W82466   0.457  12.933  20.323 -0.1365 -0.0934 -0.1377
39476W        W82467  33.913  20.029  27.284  0.1499 -0.1211  0.2905
39477W        W82468  22.268  13.905  14.726 -0.1221 -0.1644  0.4038
39478W        W82469  26.976  27.835  13.957 -0.1353  0.0422  0.0445
39479W        W82470  28.062  17.515  22.693  0.1351 -0.1735 -0.0618
39480W        W82471   5.426  15.385   5.851 -0.0709 -0.0117  0.0184
39481W        W82472  29.707  17.440  17.058  0.2040  0.2658 -0.0657
39482W        W82473   4.057  17.208  20.837 -0.1071 -0.1917 -0.3310
39483W        W82474  19.235   2.362  16.161  0.0531  0.3059 -0.0380
39484W        W82475   0.132   4.928  18.174  0.1839  0.0064 -0.1619
39485W        W82476  30.711  19.205  25.945  0.1287  0.0413 -0.1596
39486W        W82477  29.223  25.836  20.211 -0.0990  0.0844 -0.1434
39487W        W82478   5.933   9.152   4.175 -0.2075  0.0760  0.1024
39488W        W82479   0.884  28.057  29.121 -0.1534  0.0831 -0.0525
39489W        W82480  29.316  17.371  13.970  0.2103 -0.1563  0.0846
39490W        W82481  34.013  17.592  24.290 -0.0954 -0.3556 -0.1635
39491W        W82482  21.799  24.116  20.296 -0.1339 -0.0418  0.1007
39492W        W82483  27.338  21.790  24.073  0.3491  0.1196  0.0888
39493W        W82484  32.950  23.408  17.915  0.1015 -0.0071  0.2680
39494W        W82485  12.675  14.767  15.500 -0.1787 -0.0819  0.1734
39495W        W82486  11.078   9.126   4.731  0.0523 -0.5219 -0.0044
39496W        W82487  16.077   2.911  22.179  0.1780  0.1145 -0.3445
39497W        W82488  25.978  14.306   0.320  0.0211  0.0912 -0.1552
39498W        W82489  16.250  21.135   6.622 -0.2625 -0.1382 -0.0457
39499W        W82490  24.883  23.883   6.476 -0.2723  0.3297 -0.0826
39500W        W82491  16.696  26.142  23.861  0.1540 -0.0237  0.0099
39501W        W82492   7.231  26.633  19.199  0.4033 -0.0003 -0.0587
39502W        W82493   7.524  18.849  27.227  0.2057  0.0553  0.0431
39503W        W82494  17.262  17.818   8.231  0.1622 -0.1553  0.1544
39504W        W82495   9.495  25.648  16.746 -0.0293  0.1327  0.0749
39505W        W82496   2.980  25.385  23.380 -0.1683  0.1294  0.2732
39506W        W82497  28.304  10.546  20.692  0.0141 -0.0191  0.1085
39507W        W82498  24.920   0.004  16.627  0.0780 -0.3991 -0.0593
39508W        W82499  20.704  14.720  16.256 -0.0819 -0.1143  0.1490
39509W        W82500   4.716   8.009   6.212  0.2230  0.0948 -0.2553
39510W        W82501  30.480   9.426   2.236 -0.0755  0.1015 -0.2060
39511W        W82502   0.734  28.754  17.100 -0.0275  0.0374 -0.1029
39512W        W82503  20.777  24.261  20.217 -0.0905  0.2529 -0.0748
39513W        W82504  26.010  17.077  16.221  0.0036 -0.1309 -0.1108
39514W        W82505  18.888  24.975   1.117  0.1871 -0.2332 -0.1836
39515W        W82506  27.246   9.126   3.478 -0.2491  0.0983  0.1235
39516W        W82507  27.953  31.682  19.399  0.0243  0.0931 -0.1106
39517W        W82508   3.285  25.411  28.262  0.0927 -0.0542  0.0027
39518W        W82509  30.549  26.897  22.158 -0.0072 -0.1940  0.0855
39519W        W82510   2.284   3.504   2.932 -0.2156 -0.3656  0.0075
39520W        W82511   6.757  19.499  20.855 -0.1732 -0.2926 -0.0225
39521W        W82512  10.363  11.380  26.642 -0.2057 -0.0603 -0.1702
39522W        W82513  11.075  16.517   6.749 -0.0897  0.0446 -0.2237
39523W        W82514  18.020  21.138  15.374 -0.2469  0.0701  0.1130
39524W        W82515  22.636  27.754  14.629 -0.1589  0.0278  0.3364
39525W        W82516  22.011  23.653  27.742  0.2634 -0.1067 -0.1163
39526W        W82517  23.604  26.422   1.772 -0.0369 -0.1310 -0.2000
39527W        W82518   1.526  13.667  23.636  0.2518  0.2255  0.2983
39528W        W82519   3.569  31.189  22.889  0.2878 -0.2462  0.0952
39529W        W82520  21.933  29.314   4.905  0.1391 -0.0482 -0.2439
39530W        W82521  25.541  16.819   0.270 -0.4593  0.0613 -0.0584
39531W        W82522  29.301  28.121  13.107 -0.3600 -0.0800  0.1475
39532W        W82523  23.550  31.368  26.987  0.0788  0.0686 -0.2962
39533W        W82524  31.692   0.278   8.660 -0.0722 -0.0471 -0.0642
39534W        W82525  27.707  27.862  26.119 -0.1135  0.0797  0.2146
39535W        W82526  24.384   6.163   4.593  0.0972 -0.3082  0.2683
39536W        W82527  10.249  20.590  26.219 -0.1272  0.2778  0.0045
39537W        W82528   0.940  20.883  27.736 -0.0336  0.1787 -0.1225
39538W        W82529   3.183  25.484  20.809 -0.0490 -0.3172 -0.1030
39539W        W82530  13.652  30.213  21.788  0.1045  0.2451 -0.0909
39540W        W82531  31.443   0.486  19.740 -0.1538  0.1409  0.0597
39541W        W82532  22.439  30.134  14.112 -0.2575  0.2702  0.3620
39542W        W82533  21.711  33.829  18.490 -0.1290 -0.0220  0.1324
39543W        W82534   5.895  22.469  18.516 -0.0529  0.0044  0.2354
39544W        W82535  21.135  16.642   8.828 -0.1413  0.0134  0.2304
39545W        W82536  30.509  34.134   8.815  0.2759  0.2010 -0.3842
39546W        W82537  31.175  26.590  19.147  0.1906 -0.0854  0.1425
39547W        W82538  26.742   2.105  15.107 -0.0221 -0.0792  0.1903
39548W        W82539  31.971  26.260  18.328 -0.1240  0.0757 -0.3404
39549W        W82540  21.475  21.889   2.906  0.2117  0.0602  0.1111
39550W        W82541  27.026  19.869   3.193 -0.1233  0.1149  0.1191
39551W        W82542  30.312   9.521  25.207 -0.2093  0.1266  0.2140
39552W        W82543  27.447  11.349  16.575  0.2298  0.0821  0.0545
39553W        W82544  34.088  29.375   5.167 -0.1103 -0.1060 -0.0497
39554W        W82545   5.802   0.461  26.828  0.2372  0.2979  0.0874
39555W        W82546  34.247  29.572   2.302  0.2676  0.1668  0.1171
39556W        W82547  32.250  25.130  14.428  0.1518  0.3629 -0.1377
39557W        W82548   2.438   9.732   4.480  0.2591 -0.2112  0.1891
39558W        W82549   2.935  33.430   3.049  0.0546  0.1980 -0.1768
39559W        W82550  28.212  29.952  24.970 -0.1644 -0.0053  0.0693
39560W        W82551  11.009  21.845  16.821 -0.1310 -0.2041 -0.2869
39561W        W82552   9.365   0.005  16.772  0.2517 -0.3501  0.1964
39562W        W82553  29.706   4.526  18.063 -0.0016 -0.2249 -0.4053
39563W        W82554  31.357   4.588  20.790 -0.1752 -0.0305 -0.1354
39564W        W82555  34.745  29.906  22.805 -0.3255 -0.0650  0.1162
39565W        W82556   1.764  23.875  28.817 -0.1355  0.1795  0.3364
39566W        W82557   0.011  14.865  24.722  0.1418 -0.0059  0.1672
39567W        W82558  29.127  21.264  16.255  0.0868 -0.0855 -0.0368
39568W        W82559  23.868   5.119  22.520 -0.2051  0.1208  0.1723
39569W        W82560  33.093  29.905   1.852  0.1538  0.1207 -0.4018
39570W        W82561  10.899   2.767   4.064  0.0591 -0.0713  0.1108
39571W        W82562  15.737  19.999  15.670  0.1989 -0.0909 -0.0559
39572W        W82563  17.470   8.456   8.227 -0.2258 -0.0684  0.1017
39573W        W82564  33.913  20.494  19.122  0.0652  0.0608 -0.0354
39574W        W82565  27.259  24.002  25.247 -0.1594  0.2945  0.1984
39575W        W82566  24.725  33.586  22.561 -0.2398  0.2423  0.1849
39576W        W82567  18.427  23.199  16.380  0.2806  0.3552  0.2370
39577W        W82568   9.532  30.146  28.608 -0.1049 -0.0390  0.1824
39578W        W82569  12.515  11.026   3.228 -0.0836  0.1290  0.4235
39579W        W82570  27.208  14.166  23.986 -0.2453  0.2591  0.1252
39580W        W82571  27.021  24.074  16.307  0.4267 -0.3868  0.0799
39581W        W82572   7.277  11.639  22.461  0.2199 -0.0671 -0.0574
39582W        W82573   6.825  28.122  17.075  0.0285  0.0230 -0.1367
39583W        W82574  34.605  11.068  23.016  0.0688  0.4980  0.1135
39584W        W82575   9.532  10.889  29.026  0.0112  0.0903 -0.1287
39585W        W82576  18.781  25.674  19.013  0.1413 -0.0925  0.1477
39586W        W82577   4.219  20.294   2.174  0.0915 -0.1379 -0.0600
39587W        W82578  10.388  20.353  20.545  0.0117 -0.0567 -0.0690
39588W        W82579  34.495  18.707   5.277  0.4814 -0.1252 -0.0643
39589W        W82580  29.929  14.214  17.135  0.0701  0.0430 -0.1903
39590W        W82581  13.364   5.554  21.116 -0.0437 -0.0262  0.1353
39591W        W82582  32.899  32.042   7.805 -0.0741  0.0387  0.1086
39592W        W82583  28.832  30.499  23.668  0.2271 -0.0695  0.0697
39593W        W82584  19.756  26.651  19.742 -0.3653 -0.3295  0.0238
39594W        W82585   2.859  32.089  18.727  0.1621  0.2547 -0.0400
39595W        W82586  32.501  13.320   2.095 -0.0191  0.1655 -0.1036
39596W        W82587  33.545   1.777  21.593 -0.0530 -0.2224  0.1782
39597W        W82588  15.128  21.815  26.432 -0.1718 -0.0009  0.2242
39598W        W82589  25.019  17.513  16.738 -0.1857  0.3372 -0.0424
39599W        W82590  30.910  25.392  27.923  0.2700  0.0101 -0.0204
39600W        W82591   0.686  27.970   7.070 -0.2566  0.1347 -0.2114
39601W        W82592  30.087  12.738  28.841  0.1551  0.2123  0.2809
39602W        W82593   3.656  29.451  21.980 -0.2194 -0.0972  0.1050
39603W        W82594  25.446  31.336  14.429 -0.3140 -0.0643  0.0117
39604W        W82595  28.171  20.455  23.677 -0.0672 -0.0180  0.0324
39605W        W82596  12.097  14.773   1.787  0.1262  0.2910 -0.2017
39606W        W82597  32.576  32.021   2.861  0.2231  0.0370  0.2550
39607W        W82598   9.933  19.366  13.579  0.1207 -0.0195  0.2831
39608W        W82599  19.074  33.953  28.974 -0.3555 -0.0426  0.0806
39609W        W82600  32.790  21.918   3.892 -0.3570  0.2757 -0.1824
39610W        W82601  34.412  10.814   7.009  0.0230 -0.3424  0.2090
39611W        W82602  15.720  16.995   0.745  0.0598  0.3614 -0.2973
39612W        W82603   0.609  18.703  16.136  0.2716  0.0519 -0.2407
39613W        W82604  22.946  19.007  22.726  0.1890 -0.1831 -0.2214
39614W        W82605  20.676  13.662  20.871 -0.0884  0.2512 -0.1275
39615W        W82606  24.405  12.535   2.822 -0.0034  0.1505 -0.0817
39616W        W82607  28.367  25.407  17.912 -0.1918 -0.0016 -0.1190
39617W        W82608  12.459   8.979  24.336  0.1816 -0.0495  0.0444
39618W        W82609  28.955  20.792  23.842  0.1316  0.1480 -0.0049
39619W        W82610   3.223   4.762  26.781  0.0110  0.2529  0.0597
39620W        W82611  21.027  26.109  13.263 -0.0129  0.1433  0.1985
39621W        W82612  20.801  11.659  24.184  0.1010 -0.1024 -0.1654
39622W        W82613  13.940  23.540  20.055  0.0707  0.0047  0.1813
39623W        W82614  34.135   9.751  21.834  0.0366  0.0381  0.1544
39624W        W82615   7.077  33.404  27.355  0.0997  0.2449 -0.3206
39625W        W82616   3.366  12.105  28.614 -0.3330  0.2287  0.0123
39626W        W82617   3.819  30.939  25.584 -0.0181  0.1423  0.2350
39627W        W82618   2.610  13.828  26.023  0.4218  0.2521  0.3658
39628W        W82619  32.771  27.605  23.479 -0.0051 -0.1747 -0.0949
39629W        W82620  34.099   4.538   0.161 -0.1979  0.2914  0.1561
39630W        W82621   2.045  14.519   3.961 -0.0500  0.2383 -0.0513
39631W        W82622  21.537  29.617  15.405  0.0209 -0.0441  0.0848
39632W        W82623   0.356  33.773   6.588  0.2887  0.0501 -0.1970
39633W        W82624  14.680   3.125  14.415  0.3268  0.0375  0.1239
39634W        W82625  14.226  25.919   9.046 -0.1892  0.1290  0.0019
39635W        W82626  30.895  23.729  18.993 -0.0761  0.2125  0.0303
39636W        W82627  32.876   1.412  23.430  0.1298  0.0574 -0.1474
39637W        W82628  31.995  29.666  27.918  0.2002  0.0929 -0.2001
39638W        W82629  14.040  30.146  18.972 -0.1580 -0.0533 -0.1707
39639W        W82630  25.320  30.822  15.586 -0.1937  0.1303  0.0573
39640W        W82631  31.784  18.869  22.208 -0.0879 -0.0711  0.1078
39641W        W82632  22.503   7.913  28.156  0.4278  0.0205 -0.3075
39642W        W82633  22.764  13.086  24.550 -0.1256  0.1161  0.1490
39643W        W82634  17.287  13.800  29.139 -0.1017 -0.1177  0.1219
39644W        W82635  23.809  27.101  17.705  0.0321 -0.3061  0.1082
39645W        W82636  19.811   2.122  25.929  0.0017  0.1697  0.1401
39646W        W82637   1.001  24.739  14.127 -0.4111  0.1524  0.1477
39647W        W82638  25.558  11.975  28.041  0.1800  0.0487 -0.2384
39648W        W82639  26.630   0.723  20.846  0.0387 -0.1112 -0.0632
39649W        W82640  31.024  23.749  21.164  0.0552  0.1948 -0.1092
39650W        W82641   2.365   3.818  22.404 -0.0150  0.2336 -0.1673
39651W        W82642  26.744  26.630   7.611  0.2259  0.1042 -0.0865
39652W        W82643  14.691   1.436   3.543  0.1848  0.0581  0.2970
39653W        W82644   3.543   5.063  27.785  0.1197  0.6146  0.1323
39654W        W82645  24.647   8.594   0.518  0.2751 -0.1065  0.1022
39655W        W82646  26.357  26.274  23.725  0.1386  0.1409 -0.0962
39656W        W82647   0.638  22.025   1.217 -0.1274 -0.0910  0.1470
39657W        W82648  27.054  29.925  21.983  0.0659 -0.1454 -0.3478
39658W        W82649  29.157  13.655  16.799  0.1875  0.2020 -0.0158
39659W        W82650   3.651  18.914  28.397 -0.3743 -0.0749 -0.1279
39660W        W82651  26.969  33.196  24.142  0.1281 -0.0646  0.1058
39661W        W82652  26.910  26.463  24.853  0.1039  0.0827  0.0552
39662W        W82653  18.233  12.093  20.556 -0.3127  0.1514  0.1241
39663W        W82654  27.378  21.538  18.002  0.2098  0.4042 -0.0391
39664W        W82655  28.450  23.870  25.272  0.0994  0.1912  0.1302
39665W        W82656  20.235  20.175  19.353  0.2437 -0.0465 -0.0886
39666W        W82657  34.717   1.129  26.020 -0.0867  0.1397 -0.2834
39667W        W82658  29.271  19.830  25.006  0.3412  0.1394  0.1248
39668W        W82659  16.560  12.334  15.223  0.1544  0.0565  0.0504
39669W        W82660   5.202  32.443  16.195  0.0117  0.2771  0.0709
39670W        W82661  30.761  14.153  21.084 -0.3696  0.2836 -0.0987
39671W        W82662  26.968  31.013  19.932 -0.1800  0.1346 -0.2407
39672W        W82663  26.132  33.679  13.638  0.1108 -0.0485  0.0207
39673W        W82664  19.186  26.659  21.056 -0.1162 -0.1094  0.0095
39674W        W82665  21.936   8.363  15.967 -0.0810 -0.1252  0.0620
39675W        W82666   5.172  18.401  18.261 -0.0296  0.1613  0.1694
39676W        W82667  24.434  11.410  22.532 -0.1002 -0.1214 -0.2235
39677W        W82668   6.192  20.537  22.485  0.0989  0.0880  0.2992
39678W        W82669  30.685  24.405  19.503  0.0484 -0.3499 -0.2395
39679W        W82670  30.186  27.268   4.970 -0.3499  0.0414 -0.0842
39680W        W82671  32.418   5.490  16.169 -0.1826 -0.0398 -0.0520
39681W        W82672  23.816   8.820   7.640 -0.0819 -0.1447  0.1136
39682W        W82673  26.181  32.134  13.390 -0.3006  0.2324  0.2294
39683W        W82674  10.044  20.059   2.127  0.1132  0.6234 -0.1364
39684W        W82675  25.661   7.518  16.236  0.1529  0.0537  0.1606
39685W        W82676  20.953  34.042  19.423 -0.0812  0.2155  0.2246
39686W        W82677  15.493   2.808   3.079 -0.0020 -0.1974  0.1835
39687W        W82678  26.910  15.166  27.248 -0.0497 -0.1766  0.1003
39688W        W82679  24.070  17.826  19.380 -0.2427  0.1251  0.1479
39689W        W82680  17.220  25.725   4.390 -0.0989 -0.0004  0.3662
39690W        W82681  24.638  19.870  15.149  0.1447  0.0377 -0.1967
39691W        W82682   0.538  24.453  13.973 -0.4367 -0.1001  0.0668
39692W        W82683  29.248  24.274   7.001 -0.1627  0.0810  0.1921
39693W        W82684  32.880  13.472  15.886  0.0607  0.3053  0.0417
39694W        W82685  24.283  27.225  28.928 -0.1320  0.0372 -0.1606
39695W        W82686   0.908  32.214  18.989  0.3355  0.2030  0.1941
39696W        W82687  30.117  28.542   7.732  0.2151  0.0723  0.1226
39697W        W82688  13.552  24.426  20.214 -0.0002 -0.2031  0.1532
39698W        W82689  18.643  21.821   3.668  0.3102  0.0367 -0.0628
39699W        W82690  12.672  19.647   1.917  0.4615  0.0787  0.0371
39700W        W82691  34.516  31.678  20.678 -0.0213  0.3077 -0.0963
39701W        W82692  30.149  11.908   8.254 -0.0754  0.1074  0.1394
39702W        W82693  15.254   4.429  21.560 -0.2342 -0.4260  0.0444
39703W        W82694  31.671  29.153  23.362  0.1916 -0.1467 -0.0966
39704W        W82695  23.407  22.072  22.326  0.0719  0.0148 -0.3055
39705W        W82696   1.961  22.267  21.810  0.0719 -0.1604 -0.0029
39706W        W82697  27.011  20.022  23.433 -0.2369  0.4306 -0.0763
39707W        W82698  28.890  25.356   8.174  0.2407 -0.0011  0.0926
39708W        W82699  25.722  11.268   0.195  0.1072 -0.2114 -0.0579
39709W        W82700  10.319  25.338   8.657 -0.1004  0.5831 -0.1364
39710W        W82701  29.120  21.544  14.306 -0.0430  0.0682 -0.1699
39711W        W82702   1.333  25.898  22.593 -0.1080  0.1018  0.0038
39712W        W82703  30.743  19.934  14.719 -0.1387  0.2151 -0.0267
39713W        W82704  17.831  24.900  12.892  0.0454  0.0531  0.1766
39714W        W82705  14.846  11.083   1.555 -0.2535  0.1989 -0.2304
39715W        W82706   4.395  14.964  23.132  0.0734  0.3163 -0.2131
39716W        W82707  30.351  27.586  23.377 -0.0494  0.3021 -0.1065
39717W        W82708   1.397   5.641  15.194 -0.1861 -0.2808 -0.2795
39718W        W82709   4.190  21.408  26.976  0.0165  0.1258  0.0409
39719W        W82710  25.232  13.172  27.339  0.0565 -0.1312  0.0595
39720W        W82711   5.718   0.286   3.446  0.1509  0.0573  0.2353
39721W        W82712  21.073  33.577  17.788 -0.0658 -0.1978  0.1709
39722W        W82713  31.212  21.371  24.214  0.3539  0.0878  0.0513
39723W        W82714   6.518  11.505  18.244  0.0259 -0.0178  0.0306
39724W        W82715  18.616  11.191   4.147 -0.1362  0.0347 -0.3318
39725W        W82716  21.942  33.741  25.431 -0.2399  0.0654 -0.2823
39726W        W82717  29.811  12.320  24.265 -0.2580 -0.0272  0.0118
39727W        W82718   3.945  25.452  29.261 -0.0091  0.1455  0.3415
39728W        W82719  21.392  20.014  18.600 -0.1334  0.1648 -0.2850
39729W        W82720  28.334  22.535  27.639 -0.0187 -0.2714  0.3167
39730W        W82721   4.639  23.273  23.047  0.0959 -0.3286  0.0693
39731W        W82722  10.284  22.901  21.753  0.2464 -0.3454  0.2638
39732W        W82723   5.822  20.589  20.968  0.0866 -0.4358 -0.2009
39733W        W82724  15.664   7.643  17.994  0.3379 -0.3314 -0.2740
39734W        W82725  24.000  18.627   1.668 -0.2233 -0.0138 -0.0722
39735W        W82726  16.770  25.104   1.428 -0.2191  0.0937  0.1742
39736W        W82727  29.426  20.588   1.628 -0.0803  0.1604  0.2527
39737W        W82728   1.857  24.446  14.531 -0.2756  0.0486 -0.0818
39738W        W82729  27.825   4.405  25.165  0.2244 -0.1862 -0.0144
39739W        W82730  24.471  11.245  17.287  0.0460 -0.0049  0.2570
39740W        W82731  32.292  21.597   5.814 -0.0082  0.1430 -0.0571
39741W        W82732  21.703  31.515  28.773 -0.1680  0.1837 -0.1536
39742W        W82733  28.125  14.267  28.355  0.3316 -0.1215  0.0506
39743W        W82734  29.105  18.066  24.582  0.2968  0.0638 -0.1897
39744W        W82735  20.873  30.761  28.455 -0.2705 -0.1441  0.0914
39745W        W82736  13.392  23.553  24.835  0.1467  0.1385 -0.0089
39746W        W82737   0.270  32.903   3.306  0.0017 -0.2954  0.1203
39747W        W82738  21.877   5.005  16.641 -0.2563  0.1488  0.0416
39748W        W82739  30.599  34.122  19.526 -0.0711  0.0158  0.2024
39749W        W82740   0.544  13.161  11.419 -0.1517 -0.0238  0.0013
39750W        W82741   4.038  17.153  19.965 -0.1950  0.2281 -0.3523
39751W        W82742  25.817  13.210  19.605  0.1639  0.0935 -0.0752
39752W        W82743  32.277  31.093  23.099  0.1456  0.1320  0.2870
39753W        W82744   0.419  14.732  25.348 -0.1084 -0.0447 -0.3608
39754W        W82745  24.779  29.116  16.136 -0.1955  0.0030 -0.1329
39755W        W82746  34.477  21.221  26.776 -0.0076 -0.4005 -0.2062
39756W        W82747  27.589  17.126  19.042  0.1146 -0.0240 -0.1483
39757W        W82748   7.485  27.257  19.403  0.1164  0.0951  0.0851
39758W        W82749   0.812  23.600  10.320  0.2210  0.2064  0.0680
39759W        W82750  25.922  24.595  25.688  0.1603  0.0037 -0.3483
39760W        W82751  21.964  16.184  26.512  0.0697 -0.1079  0.0600
39761W        W82752   1.325  19.682  29.003  0.1635 -0.3412  0.0981
39762W        W82753  22.756  21.311  22.608 -0.1282 -0.2763  0.0013
39763W        W82754   0.518  21.772  18.203  0.1319 -0.0900 -0.1603
39764W        W82755  13.259   7.931  25.916 -0.2879  0.2100 -0.0949
39765W        W82756   4.221  15.520  20.413 -0.0992  0.0466 -0.1096
39766W        W82757  30.225   4.936   1.436 -0.3170  0.0268 -0.2122
39767W        W82758   3.406  28.108  17.461 -0.1168  0.2628 -0.3304
39768W        W82759   7.486   4.617  28.652  0.1969 -0.0609 -0.4202
39769W        W82760  27.982  22.460   5.364 -0.0433  0.1563  0.0038
39770W        W82761  13.202  17.965   7.436 -0.2077 -0.2368  0.1107
39771W        W82762   1.792  33.485  24.653  0.3008  0.1146 -0.0087
39772W        W82763  13.871  27.837   1.136 -0.0343 -0.2428 -0.0156
39773W        W82764  12.115   6.793  23.775 -0.0928  0.2324 -0.1058
39774W        W82765  31.861  19.299  15.277  0.0575 -0.4199 -0.0518
39775W        W82766  24.573   5.069  29.127  0.1179 -0.2999  0.0319
39776W        W82767  10.157  19.419  26.658 -0.0713  0.1488 -0.0862
39777W        W82768  27.336   9.579   6.238  0.4833 -0.3263  0.0737
39778W        W82769  20.091  11.846  27.679 -0.2302 -0.2224 -0.2655
39779W        W82770  32.714   0.208  26.715  0.1174  0.1411  0.0579
39780W        W82771  30.582  22.321  23.096 -0.0417  0.1967 -0.0059
39781W        W82772  25.205  19.970  20.208  0.1984  0.2713 -0.1823
39782W        W82773  23.967  12.019  24.286 -0.1410  0.0036  0.0503
39783W        W82774   0.715  11.284  22.907  0.1938 -0.0344 -0.1419
39784W        W82775  34.789  18.365   1.352 -0.2024  0.1337  0.2252
39785W        W82776  27.779  21.635   3.137  0.1883  0.1792  0.1933
39786W        W82777   4.957  33.726  26.382 -0.1544  0.1473  0.0694
39787W        W82778   8.472   2.459  15.828  0.1602 -0.1376 -0.0677
39788W        W82779  11.064  13.299   5.667 -0.0912  0.1188  0.0221
39789W        W82780  24.985  24.223  14.673 -0.0818  0.0037 -0.3313
39790W        W82781  27.070  18.812   7.235  0.5967  0.1883 -0.0097
39791W        W82782   3.198  12.954   4.551 -0.0164 -0.1591  0.2109
39792W        W82783   7.991  19.993  21.345 -0.1591  0.0776  0.0457
39793W        W82784  21.788   9.036   1.429 -0.0074  0.2137 -0.3970
39794W        W82785   0.069  20.533  14.213  0.0585  0.1986  0.0587
39795W        W82786  24.533  22.350  28.799 -0.0068  0.2755  0.0721
39796W        W82787   4.396  23.229  26.338  0.0512  0.0279 -0.1013
39797W        W82788  23.272  14.848  18.452 -0.2394  0.2576 -0.1709
39798W        W82789   2.803  19.792  17.603  0.1142 -0.2085 -0.0133
39799W        W82790  29.018  28.266  21.740  0.0465  0.0871  0.4117
39800W        W82791  20.172   2.683  24.371  0.1335  0.0622 -0.1282
39801W        W82792  31.598  33.512  28.997 -0.1687 -0.1259  0.1858
39802W        W82793  25.166   8.793  19.508  0.0953  0.1470  0.0357
39803W        W82794  27.477   8.214   1.302  0.1379  0.0783 -0.2932
39804W        W82795  32.352  21.755  18.665  0.1831 -0.0422 -0.0343
39805W        W82796   6.611  21.335  20.910 -0.2420 -0.0941 -0.0316
39806W        W82797  19.289  19.992  15.239  0.0526  0.0261 -0.1675
39807W        W82798   5.615  14.583   4.485 -0.0627  0.1444  0.1584
39808W        W82799  24.604   0.480   7.758 -0.2081 -0.2399  0.0882
39809W        W82800  33.775  25.667   5.294  0.1439 -0.2128 -0.0521
39810W        W82801   6.410  27.118   4.078 -0.0500  0.0626 -0.2052
39811W        W82802   4.500  17.936  19.454 -0.0346  0.0205  0.1745
39812W        W82803  23.808  29.237  27.156  0.0030 -0.1807  0.0223
39813W        W82804  27.835  22.321  22.320 -0.2157 -0.5436 -0.1357
39814W        W82805   0.959   7.109   0.003  0.1701 -0.0365  0.1416
39815W        W82806   1.312  18.880   8.235 -0.0785 -0.0095 -0.0215
39816W        W82807  26.521  16.665   6.095 -0.1463  0.1261 -0.1342
39817W        W82808  19.533  18.795  13.609  0.1831 -0.4272 -0.3713
39818W        W82809  16.683  10.351  15.946  0.1988  0.1969 -0.1282
39819W        W82810   5.285  27.648  14.279  0.0175  0.1358 -0.0767
39820W        W82811  25.429   5.004   1.658 -0.2587  0.2678  0.2895
39821W        W82812   9.583  27.588  27.825 -0.2796 -0.1957 -0.0845
39822W        W82813  17.775  15.422  12.073  0.0862  0.0205  0.0380
39823W        W82814  28.368  19.377   3.295  0.0346  0.0746 -0.0444
39824W        W82815  18.812  18.562   7.135  0.3150  0.0040 -0.1867
39825W        W82816  18.222  33.387  18.421 -0.0854  0.1549  0.2867
39826W        W82817  27.510  25.090  27.352 -0.1347  0.2268  0.2962
39827W        W82818  22.055  15.580  23.744 -0.0634  0.0421  0.3134
39828W        W82819   1.009  26.064   1.774 -0.0615 -0.3616 -0.0148
39829W        W82820   3.439  30.812   3.291  0.0515  0.0004 -0.2549
39830W        W82821  11.300  19.698   6.555  0.0305 -0.0458  0.1436
39831W        W82822  29.769  25.316   4.165  0.1084 -0.0257 -0.0155
39832W        W82823  25.891   0.301   2.448 -0.2330 -0.1064 -0.1244
39833W        W82824  33.953  20.669   3.098 -0.1181 -0.0059  0.0366
39834W        W82825   1.630  11.566  27.256  0.2245  0.2008  0.1357
39835W        W82826  20.841  18.298  26.469 -0.1338 -0.2209  0.2839
39836W        W82827  16.397  20.023   7.989 -0.3773  0.0502 -0.1078
39837W        W82828  17.417  27.919  23.635 -0.1817  0.1580  0.0132
39838W        W82829   2.202  30.023  15.484 -0.3040 -0.2045  0.1451
39839W        W82830   5.725  16.047  21.716  0.4007  0.0688  0.1179
39840W        W82831  30.259  17.486   7.453 -0.0063  0.0064 -0.1660
39841W        W82832  16.033  25.938  27.397  0.0361 -0.0448 -0.0204
39842W        W82833  33.694  16.394   0.007  0.1601  0.0748 -0.0507
39843W        W82834  26.377  13.564  17.482  0.2280  0.1076  0.0801
39844W        W82835  26.908  24.292   7.089 -0.4517  0.0219 -0.1210
39845W        W82836   7.640   5.646   1.694 -0.2608 -0.0967 -0.0700
39846W        W82837  27.869  20.913  21.024 -0.1683  0.1734  0.0312
39847W        W82838  30.556  15.836   3.877 -0.1141  0.3551 -0.1035
39848W        W82839  22.640  21.344  25.138 -0.1585 -0.0932 -0.2923
39849W        W82840  21.166  29.608  25.539 -0.6111  0.1277 -0.2587
39850W        W82841   7.008  13.436   3.610 -0.0846  0.0662  0.2448
39851W        W82842   8.809  15.937  10.226  0.3569 -0.3731 -0.0120
39852W        W82843  28.061  12.918  26.038  0.0049  0.0043 -0.0633
39853W        W82844  25.087  15.293  19.072 -0.1244  0.2356 -0.1557
39854W        W82845  19.853  24.756   6.228 -0.2344  0.1458 -0.0567
39855W        W82846  14.692  20.150  27.703  0.0775 -0.1812  0.2689
39856W        W82847  29.270  14.902   7.464 -0.1121 -0.1608  0.0409
39857W        W82848  31.416  16.938  26.614 -0.0765 -0.1292 -0.1003
39858W        W82849   5.766  14.189   4.779  0.1829  0.1236  0.0536
39859W        W82850   3.082   5.975   6.891  0.0595  0.0274 -0.0946
39860W        W82851  28.136  30.609  26.410  0.0756 -0.3215  0.4458
39861W        W82852   3.140  20.921  20.687  0.0644 -0.2821 -0.0483
39862W        W82853   6.408  20.614  23.800 -0.2559  0.0855 -0.0540
39863W        W82854  17.548  19.642  27.207 -0.2901 -0.1617 -0.1303
39864W        W82855  21.414  14.652  26.017 -0.2490 -0.0718 -0.1268
39865W        W82856   8.765  29.292  28.867  0.1300  0.0408 -0.1575
39866W        W82857  25.822  27.165  28.120 -0.2763 -0.1174  0.1984
39867W        W82858   1.179  30.500  28.177 -0.0529  0.0050  0.2910
39868W        W82859   3.766  19.343  27.421  0.1339 -0.3658  0.0495
39869W        W82860  18.118  27.166  24.553  0.1438  0.2136  0.0193
39870W        W82861  32.225  30.809  23.505 -0.4095  0.1640  0.1800
39871W        W82862   0.307  10.488   0.647  0.2721 -0.2573 -0.0859
39872W        W82863   2.898  31.104  22.472 -0.0047 -0.2915 -0.0082
39873W        W82864  27.217  21.072  19.488  0.1899 -0.0900  0.2396
39874W        W82865  22.982  11.029   2.786  0.1869 -0.0250  0.2662
39875W        W82866  18.584  27.134   2.902 -0.0026  0.3022 -0.2011
39876W        W82867  28.205  31.574  22.415  0.1428 -0.2491 -0.3965
39877W        W82868  27.397  22.690  18.157  0.4287  0.1114 -0.0273
39878W        W82869  24.373  10.349  17.110 -0.1617 -0.0095 -0.1803
39879W        W82870   9.606  12.538  10.568  0.0793 -0.0824 -0.0373
39880W        W82871  12.736  24.103  16.236 -0.0546  0.0642 -0.1879
39881W        W82872  27.037  22.921  25.814  0.0083 -0.0489 -0.0285
39882W        W82873   3.083  16.885  10.578  0.0553  0.0164 -0.0164
39883W        W82874  26.199  17.671  24.450  0.0446  0.1952 -0.0204
39884W        W82875  22.925  31.950  28.590 -0.0641 -0.1145 -0.1300
39885W        W82876   4.933  16.146  24.821 -0.2278 -0.0097  0.1155
39886W        W82877  18.684   3.625  17.799 -0.0089 -0.0558 -0.0066
39887W        W82878   5.360   5.806  25.055 -0.1631 -0.0068 -0.0063
39888W        W82879  29.891   2.139  23.973  0.1397 -0.0954  0.0943
39889W        W82880  28.293  34.714  28.004 -0.0299  0.0441  0.1261
39890W        W82881   5.196  13.485  18.517  0.0878  0.0038  0.0987
39891W        W82882   5.736   2.809   9.744 -0.1427  0.0765  0.0758
39892W        W82883  26.735   4.383   8.429 -0.2270 -0.3386 -0.2029
39893W        W82884   0.823  23.723  22.663  0.3973  0.1232  0.6403
39894W        W82885  24.244  27.301  25.548  0.1892 -0.0642 -0.3928
39895W        W82886   2.826   2.594   9.096 -0.0502  0.1733 -0.2589
39896W        W82887  33.432  12.910  28.162 -0.1218  0.1840 -0.2400
39897W        W82888   1.566  19.922   5.461 -0.0594  0.1344 -0.0138
39898W        W82889  28.305  31.182  27.020 -0.1497 -0.0080  0.0039
39899W        W82890   6.106   9.109   0.190  0.2472 -0.1284  0.0120
39900W        W82891  33.562  29.312  12.611  0.3658 -0.0333  0.1430
39901W        W82892  26.928  32.088   5.223  0.1736 -0.4522  0.0411
39902W        W82893   0.882  24.992  24.490 -0.0475 -0.0544  0.0508
39903W        W82894  32.405  21.937   4.739  0.3094  0.0095 -0.0689
39904W        W82895  24.938  12.832  24.886  0.0502 -0.3547 -0.0590
39905W        W82896  28.395  24.543  15.424  0.1808 -0.2989  0.0261
39906W        W82897  31.240  22.903  24.164 -0.2150  0.0550  0.0545
39907W        W82898  26.208  22.181   3.318 -0.1449  0.1053 -0.1620
39908W        W82899  29.478   2.435   6.323  0.2018 -0.1735  0.0027
39909W        W82900  30.184   8.973  24.518 -0.1815  0.1266 -0.0290
39910W        W82901  31.258  21.821  26.996  0.4057 -0.0759  0.1629
39911W        W82902  27.150  22.374   3.392  0.4224 -0.0266  0.2254
39912W        W82903  32.446  34.230  29.254  0.0154  0.2628  0.0154
39913W        W82904   0.409  19.027  18.171  0.3103 -0.1205 -0.4308
39914W        W82905   3.559  27.686  24.514  0.2494  0.1074  0.3197
39915W        W82906  34.615  27.838  27.563 -0.1941  0.0990  0.1281
39916W        W82907   1.300  30.585  18.062 -0.3595  0.1321  0.1606
39917W        W82908   3.010  26.251  16.102  0.0858 -0.2624 -0.0597
39918W        W82909  34.177  12.137  24.724  0.4410  0.0203  0.0051
39919W        W82910   3.867  15.580   1.074 -0.2007  0.0746 -0.1576
39920W        W82911  31.899  16.334   5.556  0.0408  0.1789  0.1957
39921W        W82912  33.669  26.772   4.980 -0.3390  0.0363 -0.0086
39922W        W82913  16.024  30.469  15.862  0.0971  0.0909  0.2360
39923W        W82914  34.655  12.007   1.799 -0.0845 -0.5549  0.4416
39924W        W82915  28.794  14.329   8.996  0.0972  0.1704  0.2495
39925W        W82916  30.077  20.877   3.647  0.0187  0.1990  0.1557
39926W        W82917  27.019   2.741  18.062  0.3786  0.3738  0.0729
39927W        W82918  34.197  21.861  27.596  0.0581 -0.1082 -0.2510
39928W        W82919   7.254  25.357   8.647  0.0410  0.1103 -0.1207
39929W        W82920  24.048  21.428   1.413 -0.0978  0.1220 -0.1338
39930W        W82921  31.853  27.167   3.613 -0.1094  0.0028 -0.1105
39931W        W82922  33.944  13.751  17.218 -0.0458 -0.0363  0.1646
39932W        W82923   5.595  24.885   2.409 -0.2675  0.1910  0.1205
39933W        W82924   8.332  10.893  26.648 -0.0770  0.0964 -0.3119
39934W        W82925   7.197  29.077  26.877  0.2773 -0.0893 -0.1899
39935W        W82926   0.427  26.651   7.991 -0.0980  0.0211 -0.0744
39936W        W82927  14.921  28.118  19.456 -0.3015  0.0462 -0.0492
39937W        W82928  24.810  23.811   8.458  0.0065 -0.0852  0.2521
39938W        W82929   6.413  15.148  26.115 -0.2335  0.1719  0.2038
39939W        W82930  28.869  27.238   1.793 -0.1387 -0.2001 -0.0297
39940W        W82931   0.823  28.753   0.768 -0.0520  0.1105 -0.3500
39941W        W82932   0.849  24.957   6.697  0.2281  0.1501 -0.1286
39942W        W82933  31.311  32.845  19.222 -0.2026 -0.1829 -0.1911
39943W        W82934   2.060   7.769  24.828 -0.1819  0.1381  0.0049
39944W        W82935  27.081  18.825  21.369  0.1185 -0.1585 -0.1570
39945W        W82936  25.239  24.433  15.135 -0.0950 -0.1290 -0.2481
39946W        W82937  22.547  19.966  22.175 -0.0198  0.1701  0.1787
39947W        W82938  18.985  19.559  24.842  0.0627 -0.2939  0.3624
39948W        W82939  26.695  29.663  22.364 -0.1648 -0.4339 -0.0306
39949W        W82940   5.069  18.298   6.277 -0.2918 -0.2597  0.2285
39950W        W82941   3.210  17.268   2.264  0.1360 -0.4433  0.5432
39951W        W82942   7.504  18.121  24.754  0.3167 -0.2078  0.2945
39952W        W82943  13.167  16.465  16.192 -0.1361 -0.0928  0.1127
39953W        W82944  14.581  18.610  25.406 -0.0159 -0.2695  0.0848
39954W        W82945  26.362  28.378   7.260  0.1925 -0.3122 -0.0385
39955W        W82946  22.540  14.021   3.015 -0.0214  0.0713  0.1799
39956W        W82947  31.297  17.760  25.927  0.4191 -0.1509 -0.3054
39957W        W82948  20.099   8.737   0.663 -0.2054  0.2003 -0.0834
39958W        W82949  28.908  20.641  22.655  0.0771  0.0004 -0.2757
39959W        W82950  32.681  21.812   9.447  0.0849 -0.0971  0.1250
39960W        W82951  20.616  28.207  27.479 -0.0744 -0.0089  0.0380
39961W        W82952  29.727  20.448  22.939 -0.1125  0.2196 -0.2492
39962W        W82953   3.208   7.628  21.625 -0.1875  0.2053  0.2498
39963W        W82954   1.700  21.749  19.437  0.2535  0.1798  0.0302
39964W        W82955  34.023  20.997   2.107  0.1169  0.2600  0.2065
39965W        W82956  16.503  32.833  20.469  0.0545 -0.1163 -0.0079
39966W        W82957   4.776  25.574   1.681  0.0411 -0.1957  0.0576
39967W        W82958  33.773  23.894   1.271  0.4925 -0.2088  0.1455
39968W        W82959  31.379  20.362   0.858 -0.1946  0.0465 -0.2294
39969W        W82960  27.509  14.403  19.562  0.2250 -0.0510  0.0940
39970W        W82961  22.252  19.531  23.932 -0.0320 -0.3400 -0.0365
39971W        W82962   0.301  20.301  15.541 -0.2208  0.0847 -0.0609
39972W        W82963  21.990   8.100  21.110 -0.4043 -0.1326  0.1310
39973W        W82964   1.974  15.229  18.085  0.0098 -0.0575  0.1429
39974W        W82965   8.475   2.250   8.200  0.0898 -0.2719 -0.2275
39975W        W82966  31.670  28.537   1.839  0.4173 -0.0534  0.0475
39976W        W82967  32.158  33.367  22.070 -0.0033  0.1554 -0.0921
39977W        W82968  14.917   9.910  20.545  0.1353  0.0432  0.1844
39978W        W82969  29.133   4.779  21.165  0.1368 -0.0106 -0.2464
39979W        W82970  26.949  25.902  14.211 -0.0811 -0.0347 -0.3509
39980W        W82971  22.463  13.732   7.574 -0.0317  0.1024 -0.1730
39981W        W82972  15.218   8.969  24.704 -0.2331 -0.0135 -0.1661
39982W        W82973   9.952  29.399  23.495  0.2327  0.1344  0.3682
39983W        W82974   8.383  26.489  23.830  0.1332 -0.0206 -0.0338
39984W        W82975  14.932  27.891   1.912  0.3445 -0.0337 -0.1295
39985W        W82976  21.536  14.744  20.416  0.2942  0.0890 -0.0781
39986W        W82977  32.758  25.408  20.595  0.0979 -0.0929  0.1140
39987W        W82978   7.227  10.237  17.544  0.0439  0.0306 -0.0680
39988W        W82979  16.931  23.402  28.514  0.2122  0.0962 -0.2984
39989W        W82980  31.630  19.298   3.380  0.0663  0.0641 -0.0121
39990W        W82981   6.172  18.969  28.784  0.1737  0.1117  0.1209
39991W        W82982   1.062  22.674  29.135 -0.0667 -0.4514  0.2535
39992W        W82983  27.848  24.018  24.343  0.0464  0.2610 -0.0067
39993W        W82984  32.404  13.786   0.762 -0.4214  0.0514  0.3824
39994W        W82985  19.589   4.062  21.179 -0.0073  0.0318 -0.0300
39995W        W82986  27.023  16.414   2.216 -0.2579  0.0094  0.0967
39996W        W82987  31.575   8.166   1.894  0.0568  0.0338 -0.3208
39997W        W82988  24.637   9.693  28.717  0.2251  0.4297 -0.0923
39998W        W82989   3.063  15.015  23.943  0.2342 -0.1553  0.2721
39999W        W82990   0.836  27.498   5.669 -0.2955  0.0100 -0.0494
40000W        W82991  30.409  10.965  18.571 -0.5089  0.0037  0.1118
40001W        W82992  32.225  18.078   5.633 -0.1102  0.2043 -0.0948
40002W        W82993  22.257  27.925  27.519 -0.0049  0.0957  0.0260
40003W        W82994  26.219   7.576   6.686 -0.1633  0.1479  0.1281
40004W        W82995  16.923   7.093  18.916  0.0162  0.2231  0.2895
40005W        W82996  30.874   3.295  20.933  0.1841  0.0744  0.0076
40006W        W82997  29.236  22.481  15.379 -0.2305 -0.5626 -0.1363
40007W        W82998   5.079  15.670  23.060  0.0682  0.1578  0.0060
40008W        W82999  23.897  25.905   6.108  0.0097  0.1967 -0.2012
40009W        W83000  24.972  16.155   7.063 -0.2354 -0.0944  0.1823
40010W        W83001  18.068  10.221  28.690 -0.0381  0.0617 -0.0374
40011W        W83002   5.018  20.689  27.149 -0.1769  0.0725  0.0920
40012W        W83003  29.377  25.835  26.858 -0.2571 -0.2275 -0.0534
40013W        W83004   1.917  25.262  14.157 -0.0227 -0.0514 -0.1834
40014W        W83005   7.096  10.548  28.157  0.0804  0.2457  0.0826
40015W        W83006   2.865   3.314  25.167  0.0395  0.0481  0.0730
40016W        W83007   2.990  18.638   3.140  0.0843  0.0163 -0.0740
40017W        W83008   4.740  28.567  25.945  0.3353 -0.0885  0.1726
40018W        W83009  30.235  19.560   8.497  0.4758  0.1204 -0.2222
40019W        W83010   0.177  16.512   0.658 -0.2235  0.0611 -0.0547
40020W        W83011   0.232   1.534   1.262 -0.1443  0.0139 -0.2894
40021W        W83012  33.866  20.004   9.222 -0.1566  0.0270  0.0943
40022W        W83013   6.489  26.444  18.909  0.0027  0.5070  0.0936
40023W        W83014  30.803  18.336  16.467  0.1308  0.2536  0.3949
40024W        W83015  14.250  12.763  22.649  0.0037 -0.1294 -0.0508
40025W        W83016   9.835   7.040  24.682 -0.0921  0.2018  0.0603
40026W        W83017   0.106  10.658   8.486  0.1049  0.2532  0.1573
40027W        W83018  28.098  28.952  18.597  0.2887  0.1589 -0.1918
40028W        W83019   3.349  26.697   9.936 -0.1514  0.0040 -0.0350
40029W        W83020  21.862   8.230   3.356  0.0414 -0.1629  0.2579
40030W        W83021  29.579  25.688  19.322 -0.1398  0.0077  0.4500
40031W        W83022  22.164  31.327  21.975  0.0173  0.4040  0.1482
40032W        W83023  22.845  18.998   7.877  0.1339  0.1518  0.1921
40033W        W83024   2.891  22.638  21.547  0.0693  0.0444  0.1349
40034W        W83025   5.537  29.514  21.799 -0.0609 -0.2237 -0.3526
40035W        W83026   4.088  11.758   4.891  0.2316 -0.0845  0.1550
40036W        W83027  25.692  14.377  23.340  0.0939  0.5229 -0.0047
40037W        W83028  15.763  23.314   0.799  0.1621  0.2430  0.0890
40038W        W83029  23.671  19.512  22.805  0.0196 -0.2678 -0.2366
40039W        W83030   1.425   8.740  19.298 -0.1202 -0.0213 -0.0233
40040W        W83031  33.124   7.526  24.046 -0.2204 -0.1512  0.1822
40041W        W83032  16.849   5.182  24.867  0.1697  0.2020  0.1663
40042W        W83033   5.554  30.817  24.900  0.0667  0.0772  0.0865
40043W        W83034   4.203  16.887  21.293  0.1619 -0.2102 -0.0719
40044W        W83035  34.580  27.466  25.007 -0.0038  0.1596  0.1161
40045W        W83036  31.114  12.014  22.423  0.2512  0.1089  0.0538
40046W        W83037  22.676  32.258   8.847 -0.1467 -0.0387 -0.0117
40047W        W83038   6.723  25.135   6.658  0.4890 -0.0164 -0.1483
40048W        W83039  18.670  24.160   1.710  0.0103 -0.1301  0.3272
40049W        W83040   0.105  13.853  21.667  0.0103  0.1413 -0.0333
40050W        W83041  19.857  33.176   9.236  0.0882  0.2366 -0.4189
40051W        W83042   9.795  15.493   3.085  0.0257  0.0307 -0.2507
40052W        W83043  30.514  13.587  18.180 -0.2438 -0.2742 -0.0144
40053W        W83044  20.055  16.725  16.142  0.2091 -0.2327 -0.1234
40054W        W83045  32.578  11.832   0.664  0.2334  0.1178  0.0330
40055W        W83046  15.366   7.441   2.703 -0.1799  0.2074  0.0866
40056W        W83047  12.100  16.568  14.420 -0.2755 -0.1444  0.2672
40057W        W83048  20.821  24.939  26.398 -0.1385 -0.1654 -0.1779
40058W        W83049  28.768  25.775  19.973 -0.3530 -0.0742  0.0750
40059W        W83050  31.376  20.883   0.334 -0.1430 -0.1129 -0.0970
40060W        W83051   7.346  28.116  16.717  0.2292  0.2000 -0.1995
40061W        W83052   7.324  11.658  28.446 -0.2962 -0.2138 -0.1769
40062W        W83053  24.040  17.944   7.343 -0.0625  0.1978  0.0808
40063W        W83054   5.221   4.981  18.063  0.0269 -0.2166 -0.1200
40064W        W83055   3.553   3.229   7.521 -0.4391  0.0517  0.0850
40065W        W83056  15.945  22.972  21.976 -0.3122 -0.0622  0.2942
40066W        W83057  14.332  20.491   4.817 -0.0036 -0.1895  0.0396
40067W        W83058  16.657  31.748  25.694 -0.2745 -0.1673 -0.2240
40068W        W83059  15.444  26.668  16.285 -0.3264 -0.2615 -0.1017
40069W        W83060  17.196   7.892  25.722  0.2141 -0.1491 -0.2056
40070W        W83061  28.695  24.088   5.614 -0.0597  0.1356 -0.0056
40071W        W83062  30.389   6.739   6.715 -0.2917 -0.4453  0.1963
40072W        W83063  15.587  23.803   0.283 -0.0757 -0.2560  0.0122
40073W        W83064  25.387  22.620   3.544 -0.0235 -0.1103  0.1416
40074W        W83065  15.312   6.073  10.114  0.1134  0.0454 -0.1852
40075W        W83066  25.653  23.635  19.827  0.0538  0.3999 -0.2958
40076W        W83067  16.266  30.749  22.846  0.0813  0.0705  0.0040
40077W        W83068   8.098  16.050  24.691 -0.2049 -0.1555 -0.0745
40078W        W83069  18.428   0.761  26.462 -0.0713  0.3196  0.1345
40079W        W83070  13.833  20.507  17.542 -0.1681 -0.0290  0.1894
40080W        W83071  32.202  34.053  22.830  0.0384  0.1413 -0.1530
40081W        W83072  33.991   9.166  24.958 -0.0037  0.1592  0.4851
40082W        W83073   3.174  25.514   0.955  0.2767  0.1408  0.2826
40083W        W83074  29.402  25.893   8.152  0.2250  0.2017 -0.1178
40084W        W83075   2.400  11.974  20.131  0.1165 -0.0123 -0.3782
40085W        W83076  12.532  28.577  27.455 -0.0590  0.0883 -0.3129
40086W        W83077  33.355   7.906  23.011  0.0605 -0.2216  0.1271
40087W        W83078  13.622  33.573  10.377 -0.2258  0.1936  0.1747
40088W        W83079  33.839  21.008  19.117 -0.1645 -0.0018 -0.0781
40089W        W83080  25.167  25.991   6.427 -0.1054  0.0930  0.0903
40090W        W83081  30.712  14.206  17.398  0.2126 -0.0454 -0.0575
40091W        W83082  33.150  19.414  14.578 -0.2318  0.0311 -0.0466
40092W        W83083   2.493  16.732   5.717 -0.1723  0.3162  0.1158
40093W        W83084  29.400  14.112  26.229 -0.0917 -0.2201 -0.0361
40094W        W83085  24.960   0.054  17.569  0.1534  0.3480 -0.1980
40095W        W83086  34.016  19.645  27.801  0.0083  0.2416  0.0563
40096W        W83087  31.896  22.477  25.789 -0.1527 -0.0087 -0.2796
40097W        W83088  25.763  28.362  25.678  0.0299 -0.0407 -0.2297
40098W        W83089   3.481   9.670  21.159 -0.5982  0.1041  0.2461
40099W        W83090  27.058  26.524   5.112 -0.0233  0.1868 -0.4659
40100W        W83091  12.857  11.774  19.255  0.2974  0.1309 -0.1656
40101W        W83092   0.817  25.435   6.490 -0.1491 -0.3539  0.2124
40102W        W83093   7.029   7.111   7.401  0.1886  0.0653 -0.2776
40103W        W83094  32.422  33.639  13.724 -0.1863 -0.1294 -0.0800
40104W        W83095  12.935  21.231  16.050 -0.0704  0.0564  0.3935
40105W        W83096   2.340  15.269  18.522  0.0836  0.1942  0.1321
40106W        W83097  31.810   8.780  22.957 -0.3041 -0.2906 -0.1393
40107W        W83098  33.787   3.147   6.644  0.0610  0.0142  0.1710
40108W        W83099   0.848  12.963   5.577  0.0193  0.1505 -0.0203
40109W        W83100   6.285  11.489  23.120 -0.1839  0.0880  0.2581
40110W        W83101  25.805  20.878  27.807 -0.0288 -0.0481 -0.0885
40111W        W83102  32.279  31.075  28.981 -0.1014  0.4624 -0.0035
40112W        W83103  20.196  13.426  22.572 -0.3481  0.1016 -0.1936
40113W        W83104  16.782  11.237   5.471  0.1752 -0.2378 -0.0228
40114W        W83105   9.473  26.369  16.023  0.0522  0.0011 -0.1397
40115W        W83106   6.669  18.136   2.139 -0.0383  0.1696  0.1996
40116W        W83107  34.085  10.237  26.370  0.1679 -0.3224 -0.1075
40117W        W83108  32.428  21.566   8.265 -0.1314  0.1042  0.0733
40118W        W83109  30.034  30.800  27.439 -0.0737  0.0365  0.1884
40119W        W83110   4.882  27.548   6.250 -0.4445 -0.0034  0.0147
40120W        W83111   0.243  33.249  21.812 -0.2844 -0.0588  0.1787
40121W        W83112  30.109  20.784   4.303 -0.1407  0.0488 -0.1089
40122W        W83113  29.456   1.874  13.137  0.1957  0.0627 -0.0077
40123W        W83114   7.690  16.419  16.936 -0.3451 -0.1274 -0.0152
40124W        W83115  32.467  16.779  15.669  0.4465 -0.0484 -0.0680
40125W        W83116   5.489  13.713   9.453 -0.1831  0.0264 -0.0535
40126W        W83117   5.655   9.708  20.446  0.0820  0.0724  0.2642
40127W        W83118   0.071   0.179  21.116 -0.1912 -0.0588 -0.2035
40128W        W83119  16.956  34.750   0.595  0.2115 -0.0334 -0.2843
40129W        W83120  27.933  28.379   4.945  0.1203 -0.2774  0.0652
40130W        W83121   2.968  15.534  20.416  0.3208 -0.5746  0.1715
40131W        W83122   4.036  31.612   8.418  0.3029 -0.0357 -0.1693
40132W        W83123  29.459  14.512   1.758 -0.0751  0.2329  0.4106
40133W        W83124  32.728  33.966  24.638 -0.0650 -0.1052  0.0347
40134W        W83125  24.998  21.933  26.769  0.4411  0.0317 -0.3458
40135W        W83126  11.068  21.945   3.164 -0.0022 -0.0004  0.0254
40136W        W83127  21.592   9.868  26.836 -0.0977 -0.1507  0.4963
40137W        W83128  18.857  13.706  21.965 -0.2808  0.0789  0.1439
40138W        W83129  26.343  19.077   3.862 -0.1369  0.1160  0.5627
40139W        W83130  23.388  15.011   2.659  0.0027 -0.3598 -0.1406
40140W        W83131  12.670  26.926  24.378 -0.0651  0.2778 -0.0914
40141W        W83132  34.095  24.885   4.720  0.2147 -0.1066 -0.2729
40142W        W83133  34.596   2.431   5.172 -0.0085 -0.1373  0.1101
40143W        W83134   3.250   6.971   6.953 -0.1207  0.0583  0.0886
40144W        W83135  20.252  30.668  23.191  0.0234  0.0670 -0.1598
40145W        W83136   6.191   8.483  27.031  0.2651  0.0435  0.2172
40146W        W83137   8.633  19.187   9.584 -0.2392  0.0651 -0.3232
40147W        W83138  33.406  11.224  10.520 -0.0522  0.1780 -0.1447
40148W        W83139  27.793  26.660   9.359  0.1767  0.2424 -0.0289
40149W        W83140  18.833  18.526   4.289 -0.0240 -0.2931 -0.0834
40150W        W83141  31.357  17.691  24.717  0.1341 -0.0772 -0.4066
40151W        W83142  28.636  15.725   3.601 -0.0549 -0.1763 -0.3961
40152W        W83143  30.304  31.517  22.683 -0.0816  0.1670 -0.2797
40153W        W83144  27.649   5.653  24.350 -0.0587  0.2462 -0.1045
40154W        W83145  29.772  18.772  15.265  0.0616 -0.0858 -0.0617
40155W        W83146   6.103  25.729   0.698  0.0270  0.4270  0.0233
40156W        W83147  22.375  28.945  16.855  0.0560  0.3444  0.0002
40157W        W83148   1.780  26.665   1.296 -0.1455 -0.2263  0.4359
40158W        W83149  10.582  17.927  28.775  0.2585 -0.0952  0.0398
40159W        W83150   2.838  19.706  27.139 -0.2341  0.1356  0.1310
40160W        W83151  19.143  26.994  15.323 -0.1941  0.4591  0.1349
40161W        W83152  13.487  10.760  17.660  0.1384  0.1301  0.0015
40162W        W83153   7.920  16.942  26.579  0.0392  0.3413  0.0111
40163W        W83154  32.617  16.326  15.382 -0.0991 -0.0189  0.1783
40164W        W83155   3.531  21.908   9.662 -0.0896  0.2640 -0.3529
40165W        W83156  25.684   0.847  28.624 -0.2032  0.3997  0.0789
40166W        W83157  17.650  26.952  15.755 -0.0919  0.6857 -0.0877
40167W        W83158  14.579  15.907   3.287 -0.3661  0.0092  0.0386
40168W        W83159  16.237  21.851  27.160 -0.1536  0.0379  0.1905
40169W        W83160  32.140  28.769  28.425 -0.1393  0.1987  0.1766
40170W        W83161   5.463  25.970  23.281 -0.0320  0.0040  0.2252
40171W        W83162  27.149  17.118  24.979  0.0360  0.1009  0.0479
40172W        W83163   6.692   4.054   3.475  0.1086  0.1619  0.2372
40173W        W83164  25.594  11.152  14.668 -0.1682  0.5757  0.0011
40174W        W83165   4.947  23.962  18.031  0.0578 -0.0345  0.0929
40175W        W83166  32.380  21.236  15.705  0.3039  0.0276  0.1043
40176W        W83167  24.513  24.350   3.750 -0.2344 -0.0040  0.0603
40177W        W83168   6.555  15.766   5.837  0.1154  0.0607 -0.4169
40178W        W83169   0.701   0.003  21.966 -0.0732  0.2886  0.3098
40179W        W83170   9.904  23.876  18.325 -0.1624  0.2885 -0.0929
40180W        W83171  19.736  21.693  19.256 -0.2415 -0.1702  0.1308
40181W        W83172  32.159   8.409  19.323 -0.0345  0.2597  0.3253
40182W        W83173  18.293  14.925  14.503 -0.1889  0.1797 -0.2642
40183W        W83174   6.370   2.535   2.989 -0.1409 -0.2222  0.1922
40184W        W83175  34.573  14.205  19.894  0.1266 -0.2023 -0.0375
40185W        W83176  15.978   3.882   1.581 -0.0749 -0.0462  0.1503
40186W        W83177  26.522  11.422   3.580 -0.1182 -0.2681  0.0768
40187W        W83178   6.041  31.287  23.441 -0.0766  0.0866  0.0445
40188W        W83179  14.139  23.523  16.408 -0.1122 -0.0009  0.1537
40189W        W83180   3.545  23.899   8.952  0.1328  0.1800 -0.2557
40190W        W83181  32.858  24.404  23.786 -0.2188 -0.0184 -0.0268
40191W        W83182   9.218  21.667  17.594  0.0021 -0.3735  0.3095
40192W        W83183  23.637   7.974  29.208  0.1065  0.1722  0.3780
40193W        W83184  34.641  33.845   0.388 -0.2045 -0.3151 -0.0332
40194W        W83185  17.488  25.441  13.687 -0.1751  0.1375  0.1604
40195W        W83186   1.878   0.395  27.887  0.1062  0.0867 -0.0568
40196W        W83187   2.412  24.487   7.880 -0.1301  0.0797 -0.2808
40197W        W83188  25.907   8.984   3.435  0.0457 -0.1020 -0.3947
40198W        W83189   7.092  33.682  23.015 -0.0824 -0.1610  0.1239
40199W        W83190  33.882  14.094   4.519  0.2014  0.1144 -0.0330
40200W        W83191  27.740  32.446  15.711 -0.1440 -0.0430 -0.0421
40201W        W83192   3.806  32.732  24.709 -0.3792  0.1270 -0.0892
40202W        W83193  14.037  17.444   2.126 -0.1403 -0.0630 -0.0239
40203W        W83194  28.263  22.399  26.065 -0.3925  0.0275 -0.2107
40204W        W83195  28.332   1.741  27.520  0.0633 -0.1320  0.0950
40205W        W83196  19.841   3.398  14.002  0.1949 -0.0992  0.2623
40206W        W83197   8.861  14.565   2.833 -0.0773  0.0931 -0.3335
40207W        W83198  18.636   7.088  21.619 -0.1589  0.0912  0.0665
40208W        W83199   1.440  21.590  23.979  0.1068 -0.0125  0.1491
40209W        W83200  23.217  21.030   6.008  0.3124  0.0805  0.0564
40210W        W83201  30.885  12.362  10.499  0.0412  0.0945  0.0448
40211W        W83202   1.721  21.437  27.072 -0.1660  0.1933 -0.0118
40212W        W83203   3.630  15.498  25.569  0.0221  0.0948  0.3398
40213W        W83204   7.371  29.664   3.793  0.1882 -0.4614  0.0996
40214W        W83205   8.115  18.441  22.330  0.3942  0.2424  0.0811
40215W        W83206  22.504  25.783   8.504  0.2578 -0.0782 -0.3435
40216W        W83207  34.628   5.029  19.008 -0.1778  0.0328 -0.3502
40217W        W83208  29.219  23.453   8.302  0.4228  0.0249 -0.1708
40218W        W83209  20.921  33.273   2.044 -0.1442 -0.1208  0.1853
40219W        W83210  32.082  31.886   2.673  0.0733 -0.0137  0.0377
40220W        W83211   0.402   9.628  23.846  0.3002 -0.1172 -0.0600
40221W        W83212   0.435  21.834  22.636 -0.1495  0.1417 -0.5697
40222W        W83213  24.297  21.859  20.863 -0.0789 -0.0456  0.0146
40223W        W83214  12.488  17.460   7.107 -0.1208  0.1933 -0.0100
40224W        W83215  23.698  30.534  21.136 -0.0856  0.1243  0.1711
40225W        W83216  11.689   7.300  26.227 -0.2347  0.2049 -0.0947
40226W        W83217  33.451  34.625  19.146 -0.1082  0.4087 -0.1005
40227W        W83218   9.118  17.220  16.363 -0.0671  0.0627  0.3178
40228W        W83219  15.945   0.563  16.195  0.0273  0.0064 -0.0710
40229W        W83220  13.778   3.656   0.042 -0.0321  0.3318 -0.0261
40230W        W83221  26.779   4.599  25.930 -0.1051  0.0923 -0.2197
40231W        W83222  26.904  20.116  28.825 -0.0293  0.0933  0.2623
40232W        W83223  21.968  29.968  29.096 -0.2391  0.0583  0.2599
40233W        W83224   7.134  24.592  27.067 -0.0486  0.1847  0.1212
40234W        W83225  24.708  23.344   1.224  0.0085  0.0759 -0.2534
40235W        W83226  28.709  22.165  22.605  0.0361 -0.1025  0.1178
40236W        W83227   1.112   3.277  20.492 -0.0547 -0.1446  0.3754
40237W        W83228  25.692  19.615  13.586  0.0136  0.2123  0.1018
40238W        W83229  11.924  10.862  19.649  0.0369 -0.0071  0.2970
40239W        W83230   5.079  25.044  23.872  0.1742 -0.0214 -0.2764
40240W        W83231  18.141   1.223  23.613 -0.0381 -0.2050  0.2414
40241W        W83232  28.310  27.545  15.807 -0.0232 -0.0478  0.0354
40242W        W83233   4.447  27.883  20.663  0.0115 -0.2038 -0.2157
40243W        W83234   0.611  25.185  15.553 -0.0244 -0.2140 -0.0771
40244W        W83235  29.437   2.176  20.483 -0.1949  0.1982  0.0616
40245W        W83236   4.980  24.792  18.646  0.1555  0.0600 -0.0492
40246W        W83237   0.526  23.946  18.097 -0.0423  0.2422 -0.2780
40247W        W83238   7.548  33.904  19.193 -0.0640 -0.1740 -0.1088
40248W        W83239  20.035   1.105  18.601 -0.0770 -0.0964 -0.0004
40249W        W83240  25.859  14.535  22.107 -0.1666 -0.4974  0.0864
40250W        W83241  31.570   2.253  17.019 -0.1773 -0.2383  0.2558
40251W        W83242  27.338   8.928  14.020  0.0522  0.2113  0.1825
40252W        W83243   5.289  26.326  21.441 -0.1279  0.3342 -0.2200
40253W        W83244  31.098  26.596  15.471  0.0590  0.0583 -0.1931
40254W        W83245  20.541  22.459  16.602  0.0061 -0.1508  0.2576
40255W        W83246  18.382  27.955  21.231 -0.1084  0.0494  0.0654
40256W        W83247  15.012  22.960  18.029 -0.1253  0.0324  0.0465
40257W        W83248  21.160  29.776  17.311  0.1020  0.0180 -0.2055
40258W        W83249  18.782  31.801  22.528  0.0021  0.0669 -0.2180
40259W        W83250   8.117  25.958  16.987 -0.1786 -0.0536 -0.0146
40260W        W83251  33.214  28.726  21.688  0.2533  0.1660 -0.0963
40261W        W83252  21.194  14.582  23.802 -0.1437  0.1532 -0.0992
40262W        W83253   6.414  28.482  26.390  0.0260  0.0910 -0.0867
40263W        W83254  26.969  32.039  26.052  0.0472  0.0714  0.0626
40264W        W83255   5.291  12.343  24.337 -0.0441  0.3071 -0.1645
40265W        W83256  17.805   0.705  29.143 -0.0789 -0.0807 -0.0899
40266W        W83257  28.164   1.824  18.830 -0.1365  0.0256 -0.2278
40267W        W83258  17.736  27.939   6.512 -0.0125  0.1662 -0.0244
40268W        W83259   1.427  24.308  14.875  0.0034  0.0964 -0.0576
40269W        W83260  33.993  15.438  22.471 -0.1534  0.0932  0.1268
40270W        W83261   1.949  17.695  18.109 -0.0148 -0.1623 -0.1326
40271W        W83262   2.430  31.122  13.206 -0.4537 -0.1744 -0.3089
40272W        W83263  15.523  12.279  21.780  0.0182  0.3024  0.1107
40273W        W83264   2.527  32.010  23.514 -0.0257 -0.0658 -0.0049
40274W        W83265  17.872  18.628  13.447  0.0126  0.0550  0.1208
40275W        W83266  31.493   0.446  18.368 -0.0401  0.0416  0.0585
40276W        W83267  22.226  26.555  24.315 -0.1090  0.0601 -0.0184
40277W        W83268   6.102  15.208   3.865 -0.3065 -0.0234  0.1539
40278W        W83269   3.228  22.249  21.447  0.3194 -0.0959  0.1685
40279W        W83270   7.400  26.908  22.427  0.1153 -0.0195 -0.0054
40280W        W83271  21.704  11.267  13.377  0.0613 -0.0686  0.1298
40281W        W83272   8.664  24.154  17.913  0.0027  0.0775 -0.2929
40282W        W83273   3.866   8.013  22.860  0.1506  0.2418 -0.0159
40283W        W83274  15.755  27.422  15.302 -0.1401 -0.2657  0.0199
40284W        W83275  25.894  17.530  20.067  0.1516  0.0691 -0.0053
40285W        W83276  28.232  20.011  16.219 -0.2167 -0.2453 -0.0217
40286W        W83277   2.270  27.199  16.749  0.3932 -0.0591  0.4764
40287W        W83278  27.195  23.054  20.703 -0.1136  0.0548  0.0783
40288W        W83279  30.773  27.912  25.641 -0.1418 -0.0253 -0.0422
40289W        W83280  25.320  23.521  29.048  0.2339 -0.2695 -0.0190
40290W        W83281  32.743  20.051  24.588  0.0556 -0.1177  0.0722
40291W        W83282  33.100  30.259  25.874  0.2906 -0.1905 -0.0084
40292W        W83283   6.696  13.794  16.899 -0.3698  0.1809  0.2286
40293W        W83284  24.780  18.613  17.916  0.1438 -0.3526 -0.1578
40294W        W83285  17.614   1.924  15.346 -0.3031 -0.3312  0.1580
40295W        W83286  31.021  14.919  19.786  0.0614 -0.0904  0.1027
40296W        W83287   1.349  33.215  20.105  0.2808 -0.0627 -0.1362
40297W        W83288  24.311  21.611  14.341  0.0456 -0.0302  0.0738
40298W        W83289   8.467  22.500  19.978  0.0415 -0.1779 -0.4214
40299W        W83290   6.443  27.590  15.841 -0.1582 -0.1278  0.1072
40300W        W83291  28.314   9.091  18.015  0.0552  0.0950  0.1938
40301W        W83292  26.000  25.672  19.101 -0.0492  0.0169  0.1669
40302W        W83293  28.901  14.470  16.845 -0.3625 -0.0872 -0.0729
40303W        W83294  33.773   0.293  15.999  0.1315 -0.2115 -0.0686
40304W        W83295  25.897  32.156   0.049  0.0576  0.0261 -0.0881
40305W        W83296  21.176  29.105  15.571  0.2443  0.3654  0.0197
40306W        W83297  25.576  33.890  21.103  0.0313 -0.3331 -0.0666
40307W        W83298   5.992  16.832  27.943 -0.0314 -0.0893 -0.1849
40308W        W83299  10.802   3.936  24.550  0.0725 -0.0105  0.1066
40309W        W83300  15.818  31.537  18.413  0.0412  0.0844 -0.0740
40310W        W83301   3.319  19.125  23.845 -0.0462 -0.0240 -0.2332
40311W        W83302   8.896  16.377  24.875  0.3870  0.1562  0.0257
40312W        W83303   2.486  26.878  18.328 -0.0467 -0.0736 -0.1231
40313W        W83304  30.157  12.938  20.017 -0.3334 -0.0374 -0.5566
40314W        W83305   4.089  18.372  27.772 -0.2278  0.1466 -0.2242
40315W        W83306  32.379   6.148  16.843  0.0645  0.2970  0.1333
40316W        W83307  34.239   3.430  22.101 -0.2383  0.1958 -0.1313
40317W        W83308  12.855  22.966   4.397  0.0529  0.0719 -0.1180
40318W        W83309   2.816   5.631  26.751 -0.0101  0.0542  0.0484
40319W        W83310  27.949  21.984  15.001  0.1152 -0.1462  0.2447
40320W        W83311  34.234  26.120  19.872 -0.0990  0.0380 -0.0869
40321W        W83312  32.641  29.144   6.545 -0.0641 -0.0018 -0.2419
40322W        W83313  12.449  26.180  16.891  0.0233  0.1859  0.2688
40323W        W83314  28.614  26.661  13.715 -0.1349 -0.1014 -0.3222
40324W        W83315  25.468  27.145  15.410 -0.1649  0.0289  0.1800
40325W        W83316  12.857  30.983  20.438  0.0354  0.0097 -0.1608
40326W        W83317   4.442  20.108  27.042  0.0871 -0.2556  0.0902
40327W        W83318  32.040  16.059  21.396 -0.0508 -0.1550 -0.1549
40328W        W83319   4.056  22.497  14.832  0.1563 -0.2151  0.1398
40329W        W83320  12.372  25.103  18.760 -0.2601  0.1334 -0.1054
40330W        W83321  10.724  11.139  16.379  0.1226  0.2485 -0.0866
40331W        W83322  24.414  19.028   2.443  0.0367  0.0624  0.0678
40332W        W83323  13.719   0.426  10.054  0.2512  0.0981  0.2398
40333W        W83324  23.410  25.289  18.045  0.3953 -0.1660  0.1206
40334W        W83325  10.506  12.840  23.845 -0.1013  0.3389 -0.0317
40335W        W83326   1.435  24.249  19.998 -0.3850  0.0300  0.1446
40336W        W83327  30.382  24.076  14.004  0.4151  0.1448 -0.0309
40337W        W83328  10.117  18.838  21.954 -0.0983  0.2878  0.1675
40338W        W83329  19.548  18.503  27.864  0.2102 -0.0679 -0.3040
40339W        W83330   0.962  14.227  19.181 -0.0466  0.2261  0.0786
40340W        W83331   4.142  21.267  16.151  0.1722 -0.2020 -0.3863
40341W        W83332  22.079  34.127  14.015  0.3894 -0.2877 -0.3338
40342W        W83333  25.613  19.407  15.495 -0.0947  0.1491 -0.0919
40343W        W83334  29.191   5.341  22.093 -0.2883 -0.2161 -0.2059
40344W        W83335  32.707  12.278  17.390 -0.0083  0.2084  0.2239
40345W        W83336   3.311  23.714  20.186  0.2009  0.2618  0.0257
40346W        W83337  31.215  11.800  25.778 -0.3242 -0.4414  0.0146
40347W        W83338  30.929  20.824  27.065 -0.1092  0.1794  0.0281
40348W        W83339  28.071   3.280  23.205 -0.0030  0.0906  0.2321
40349W        W83340  15.076  12.844  15.329 -0.0168 -0.0165  0.0181
40350W        W83341   7.730  10.735  21.636 -0.0181  0.1453 -0.0957
40351W        W83342  27.429  19.044  20.984  0.0686  0.0557  0.1307
40352W        W83343  30.032  30.078  18.036 -0.4398 -0.0418 -0.2615
40353W        W83344  26.521  33.940  25.018  0.5293  0.3826  0.1275
40354W        W83345  18.124  14.963  12.679 -0.0100 -0.0661 -0.1304
40355W        W83346  23.792  30.713  14.362  0.2730 -0.1173  0.5635
40356W        W83347   5.157  14.790  15.864  0.0342  0.1458  0.1125
40357W        W83348  25.105   0.613  26.729 -0.0376 -0.2544  0.0547
40358W        W83349   1.343   8.504  22.241  0.0003 -0.0317  0.2470
40359W        W83350  26.394  15.623  18.166  0.1037  0.0938 -0.0843
40360W        W83351  22.921  22.595  18.733 -0.1894 -0.1984  0.1152
40361W        W83352   9.482  17.020  23.007 -0.0214  0.0698  0.1423
40362W        W83353   6.894  14.661  17.351  0.1400  0.1535  0.0374
40363W        W83354  26.038   6.972  22.173 -0.0128  0.1857  0.0089
40364W        W83355  31.138   6.347  26.205 -0.0926 -0.0698  0.1785
40365W        W83356  12.819  21.047  24.544  0.2817  0.2287 -0.2307
40366W        W83357  28.747  33.744  13.374 -0.0307  0.1146  0.1809
40367W        W83358  28.953  28.659   4.435  0.1351 -0.1428 -0.0917
40368W        W83359  30.006  31.487  25.454 -0.1784  0.0545 -0.1290
40369W        W83360   7.325  29.194  15.368  0.1093 -0.0893  0.1071
40370W        W83361  29.036  10.015  24.347 -0.2280  0.1862 -0.0707
40371W        W83362   3.637  25.851  17.436 -0.0726  0.0326 -0.0379
40372W        W83363  28.268  33.073  25.781 -0.1441 -0.0349 -0.1377
40373W        W83364  19.835  30.488  14.308 -0.0202  0.0457  0.2294
40374W        W83365  26.615  22.316  24.819  0.2489 -0.1999  0.1460
40375W        W83366  23.202  14.375  16.551  0.0375 -0.1362 -0.3057
40376W        W83367   3.731  25.024  21.462  0.0315 -0.2252  0.0466
40377W        W83368  29.045  18.825   2.561  0.0664 -0.1286  0.2037
40378W        W83369  33.751   2.482  14.500  0.0451  0.0852  0.0537
40379W        W83370  29.882  31.919  13.595 -0.2182 -0.2474 -0.0137
40380W        W83371   4.430  26.329  24.362 -0.0870  0.3775 -0.1621
40381W        W83372   3.339  14.430  21.142  0.3482  0.1068 -0.0280
40382W        W83373  24.310  16.756  23.936  0.2480 -0.0706  0.1913
40383W        W83374  27.856   2.321  14.175  0.0752  0.2551 -0.0793
40384W        W83375   0.399   5.800  20.803  0.3122 -0.1385  0.2314
40385W        W83376   5.171  16.442  24.479  0.0369 -0.2570 -0.0029
40386W        W83377  22.116  30.775  24.086 -0.0146  0.1972  0.0073
40387W        W83378   6.718  30.728  17.520  0.1687 -0.5121  0.3465
40388W        W83379   6.320  14.849  20.940  0.1195  0.2890  0.0335
40389W        W83380   2.922  34.497  14.140  0.1139  0.0104  0.3830
40390W        W83381  31.285  17.295  16.564  0.2508 -0.1196 -0.0892
40391W        W83382   0.123   0.649  22.395  0.0788 -0.2826 -0.0944
40392W        W83383  27.140  14.779  26.783  0.0477 -0.0964  0.1304
40393W        W83384  29.857  12.305   3.130  0.0083 -0.1029  0.1040
40394W        W83385  19.196  29.806  18.532 -0.0253 -0.0031  0.0401
40395W        W83386  19.585  24.730  21.988 -0.1392 -0.2900  0.2805
40396W        W83387  19.363   8.809  27.771  0.2278  0.0231 -0.1662
40397W        W83388  17.371  29.760  14.789 -0.0289  0.1509 -0.0380
40398W        W83389  23.045  26.494  19.655  0.0222 -0.1421  0.0259
40399W        W83390  30.369  13.916  14.985  0.2087 -0.3742  0.0656
40400W        W83391  25.192  29.323  21.741 -0.0030  0.0084 -0.1985
40401W        W83392  23.079  26.140  26.360  0.0291 -0.2119 -0.0445
40402W        W83393   1.738  34.199  23.951 -0.0093  0.2196  0.0017
40403W        W83394  29.450   4.799  15.841 -0.0700 -0.2451 -0.0144
40404W        W83395  31.942  25.471  14.305  0.0119 -0.1917 -0.0223
40405W        W83396  24.091  24.703  22.079 -0.0505 -0.0194 -0.0425
40406W        W83397  18.032   0.765  15.084  0.3616 -0.0741  0.0460
40407W        W83398  18.259  33.101   2.945 -0.0073  0.1962 -0.2475
40408W        W83399   2.836  21.894   0.674  0.0913  0.0445  0.1285
40409W        W83400  33.287  31.528  19.111  0.2136 -0.0978  0.3053
40410W        W83401  23.030  20.281  25.048 -0.0437 -0.2642 -0.1602
40411W        W83402  22.021  11.138  16.176 -0.0523  0.1619  0.5210
40412W        W83403   0.820  26.142  19.813 -0.1457  0.2075 -0.0353
40413W        W83404  15.880  26.661  28.762 -0.3091  0.1349 -0.0245
40414W        W83405  26.897  26.669  14.840  0.0997 -0.1521  0.0391
40415W        W83406   0.211  34.471   4.278  0.1268 -0.2167 -0.2649
40416W        W83407  29.494  10.745  20.901  0.2313 -0.1119  0.1117
40417W        W83408   3.157  24.388  25.456  0.1987  0.0670  0.1871
40418W        W83409  33.369  21.956  17.547  0.2944  0.0083 -0.0093
40419W        W83410   9.920  25.914  18.403 -0.1911 -0.0129  0.2610
40420W        W83411  31.017  16.773  15.857  0.2669  0.2984  0.0294
40421W        W83412   2.136  28.966  14.760 -0.1163  0.0981  0.0620
40422W        W83413   2.617  29.404  16.300  0.0929  0.1324  0.1726
40423W        W83414  30.699   6.484   3.093 -0.0906  0.1742  0.2454
40424W        W83415  19.222  28.227  17.817  0.3452  0.0785  0.0956
40425W        W83416  27.288  14.310  15.948 -0.4118  0.2403 -0.3426
40426W        W83417  34.267   6.646  24.878 -0.0659  0.3519  0.0435
40427W        W83418  26.347  26.921   2.560 -0.0711 -0.2162 -0.1948
40428W        W83419   2.787  28.682  18.803  0.2033  0.0961 -0.1448
40429W        W83420   0.077  16.111  28.382  0.0343 -0.0334  0.2773
40430W        W83421   5.879  22.093  24.941  0.1555  0.1738  0.1590
40431W        W83422  32.846  27.642  19.092  0.0986  0.0146 -0.1981
40432W        W83423   6.460  27.670  20.830 -0.0121 -0.0327 -0.1352
40433W        W83424  19.745  10.770  15.449 -0.4228 -0.0320  0.1176
40434W        W83425  23.433  15.950  22.311  0.3524 -0.1965  0.2329
40435W        W83426   7.655  32.436  14.636  0.1187  0.0761  0.0911
40436W        W83427   1.523  11.854  19.016 -0.1279  0.1265 -0.2754
40437W        W83428   5.930  23.573  19.480  0.2499 -0.0967 -0.0033
40438W        W83429  24.770  27.376  19.052  0.2622 -0.0252 -0.4012
40439W        W83430  23.764  21.411   0.637  0.1310  0.3164 -0.0275
40440W        W83431  23.036  14.976  25.118  0.4226 -0.0987 -0.0242
40441W        W83432  30.813  18.687  27.066 -0.0860  0.1638 -0.2456
40442W        W83433   2.655  26.395   6.547  0.1402  0.2767 -0.1961
40443W        W83434  29.083  26.216  13.990 -0.1617  0.1011  0.0396
40444W        W83435  22.015  27.351  17.349  0.2593  0.0743 -0.1479
40445W        W83436   9.758  34.504  16.938 -0.1359  0.3087 -0.0474
40446W        W83437  20.345  13.417  21.139  0.2790 -0.2353  0.0853
40447W        W83438  29.349  32.409  21.424  0.1813 -0.2090  0.4050
40448W        W83439   2.613  23.348  20.787  0.0106  0.2967  0.1173
40449W        W83440  22.597   8.863  25.289  0.0008  0.1330  0.0202
40450W        W83441   3.861  12.105  28.582  0.5155  0.1741  0.0548
40451W        W83442  25.592  28.031  15.098  0.1262 -0.0947 -0.1671
40452W        W83443  16.251  22.326  23.040 -0.5721 -0.1831  0.2253
40453W        W83444   8.445  18.461   5.794  0.1705 -0.0223  0.0864
40454W        W83445  32.253  31.273  14.261 -0.1922 -0.0155 -0.0560
40455W        W83446   1.761  17.306  22.540 -0.2193  0.0441 -0.3865
40456W        W83447   0.550  29.935  27.927  0.0506 -0.0350  0.1286
40457W        W83448  21.948  33.677  17.852 -0.1946 -0.0465 -0.0687
40458W        W83449   0.307   4.407  15.973 -0.1768 -0.1741 -0.3513
40459W        W83450   7.180  11.619  23.526 -0.2023 -0.1615  0.1544
40460W        W83451  30.783  29.112  27.164 -0.2771  0.0372  0.2397
40461W        W83452  28.320  25.448   5.703 -0.0075  0.0148  0.0851
40462W        W83453   8.554  26.414  29.117 -0.2486 -0.0826 -0.1947
40463W        W83454  30.714  15.458  19.804 -0.3504  0.1640 -0.0252
40464W        W83455   0.791  23.722  20.308  0.0552  0.0657  0.0243
40465W        W83456  27.486  27.073  22.419 -0.1788  0.0498  0.1136
40466W        W83457  22.375  34.684  22.234  0.1974 -0.2155 -0.2268
40467W        W83458  34.269  22.522  23.290 -0.1662 -0.1367 -0.0239
40468W        W83459   2.847  17.808  26.021  0.2416 -0.0164 -0.1123
40469W        W83460  26.658  26.223  18.191  0.0033  0.0387  0.0415
40470W        W83461   8.468  21.702  16.978  0.1256 -0.5816  0.1572
40471W        W83462  29.582   0.526  18.071  0.0641  0.1771 -0.1699
40472W        W83463   2.911   5.738  27.378 -0.2588  0.2442 -0.0536
40473W        W83464   0.245  25.587   7.096 -0.3087 -0.3292  0.1826
40474W        W83465  29.194  25.426  24.466  0.0291 -0.3537 -0.1028
40475W        W83466   5.715  11.567   7.889 -0.2351  0.0964  0.0211
40476W        W83467   2.719  19.910  19.776 -0.0052 -0.1039 -0.2060
40477W        W83468  34.153  34.600  19.876  0.2671  0.2309 -0.2058
40478W        W83469  24.672   0.644  26.385 -0.1266  0.0104  0.1947
40479W        W83470  27.145  34.068   2.319  0.2368  0.1855  0.0683
40480W        W83471  26.319  34.752  27.505  0.1799  0.6127 -0.0466
40481W        W83472  33.556  30.845  26.734 -0.0595 -0.1538  0.1513
40482W        W83473  22.908  22.663  23.028  0.4454 -0.0426  0.2874
40483W        W83474  27.500  25.904  16.233 -0.0144 -0.4513  0.1155
40484W        W83475  27.057  30.543  14.606 -0.1773  0.1807 -0.0898
40485W        W83476  25.825   3.943  27.802  0.0626  0.2701  0.1861
40486W        W83477  25.176  28.690  25.881  0.1324 -0.0518 -0.2082
40487W        W83478  34.750  29.340  27.194 -0.2251  0.1751 -0.0776
40488W        W83479  26.003  28.558  19.327  0.3711 -0.0683  0.0563
40489W        W83480  24.479  13.712  23.844 -0.2675  0.1708  0.0321
40490W        W83481  27.669  27.229  18.064 -0.3589 -0.0152  0.1232
40491W        W83482  28.885   2.248  23.410  0.0161  0.1633  0.2413
40492W        W83483  32.982  13.954  16.775 -0.1701  0.0640 -0.0086
40493W        W83484  22.189  25.238  16.962  0.0031 -0.1157  0.2297
40494W        W83485  20.880  27.875  26.019 -0.2483  0.1560  0.0147
40495W        W83486  32.348   3.287  25.973 -0.1019  0.2083 -0.1067
40496W        W83487  26.491  17.312  18.086 -0.0263 -0.0283  0.0665
40497W        W83488  16.354   1.605  25.500 -0.2213  0.0435 -0.0475
40498W        W83489  33.467  26.401   5.827  0.2398 -0.0915 -0.2108
40499W        W83490  22.112   1.061  24.820  0.3218  0.1596  0.0808
40500W        W83491   0.720  19.114  23.247 -0.0655  0.1604 -0.2575
40501W        W83492  30.944   8.613  14.355  0.0417 -0.0087 -0.3055
40502W        W83493  12.454  33.822  15.657  0.0655  0.1325 -0.0652
40503W        W83494  28.775  18.499  20.985 -0.1905  0.1750  0.1144
40504W        W83495   3.737  16.963  27.826  0.2132 -0.1105 -0.0389
40505W        W83496   5.468  29.418  21.124  0.1848  0.4713  0.2296
40506W        W83497   3.272  30.055  24.079 -0.2695 -0.0207  0.2093
40507W        W83498  34.214   1.279  15.650 -0.2091 -0.1248 -0.1335
40508W        W83499  31.897  30.057  14.978  0.1052  0.3285  0.0354
40509W        W83500  20.224  18.818  21.702 -0.0296  0.2190 -0.2458
40510W        W83501   7.585  21.984  25.257 -0.2586  0.0260 -0.2601
40511W        W83502  31.879  28.191   0.660  0.1723  0.0081 -0.1304
40512W        W83503  30.816  13.494  19.027  0.2683  0.3505  0.0818
40513W        W83504  11.597  19.703  16.009 -0.1805 -0.0102  0.1148
40514W        W83505   7.740  19.057  16.619  0.2101  0.1675 -0.1697
40515W        W83506   4.560  21.381  15.781 -0.0672  0.0411  0.0264
40516W        W83507   6.485  24.707  20.689 -0.5929 -0.1190 -0.0176
40517W        W83508  33.515  17.352  18.104 -0.1244  0.1684  0.3520
40518W        W83509  24.377  14.615  10.152  0.0609 -0.0440 -0.3253
40519W        W83510  30.240  30.270  16.746  0.1816 -0.1674  0.1780
40520W        W83511  30.690  23.056  17.839  0.1394 -0.3140  0.3683
40521W        W83512  27.406  19.377  20.556 -0.4882 -0.0064  0.2416
40522W        W83513  18.787  33.723  21.671  0.2674 -0.1016  0.0984
40523W        W83514   1.893  27.043  25.099 -0.1880  0.0620  0.1125
40524W        W83515  33.266   1.585  26.697  0.0260  0.2397 -0.0298
40525W        W83516  32.095  25.410  27.327 -0.0122  0.0728 -0.0464
40526W        W83517  26.419  27.227  18.943 -0.0714 -0.1016  0.2820
40527W        W83518  12.463  14.773  22.664  0.3014  0.1717  0.1962
40528W        W83519   5.125  25.071  16.998  0.4318  0.3128 -0.1464
40529W        W83520  27.153  31.698   2.756 -0.2585  0.2437  0.0040
40530W        W83521  33.997   3.679  17.121  0.0850 -0.1161 -0.1625
40531W        W83522   3.938  26.253   0.030  0.1337  0.0150 -0.0065
40532W        W83523  23.001  26.273  21.096  0.3495  0.1017 -0.2205
40533W        W83524  27.709  28.048  16.893 -0.0943  0.2544 -0.1063
40534W        W83525  16.134   2.097  19.313 -0.0471  0.1661 -0.0965
40535W        W83526   5.832  12.410  29.188 -0.0872 -0.0670  0.2698
40536W        W83527  29.133  28.923  25.253  0.1297  0.0740  0.0098
40537W        W83528  33.681  16.243   0.697  0.3532 -0.1934 -0.2098
40538W        W83529  15.035  28.329  13.632  0.1221  0.1090  0.2118
40539W        W83530  18.341  30.816  16.403  0.2055 -0.1059  0.0764
40540W        W83531  24.599  13.050  25.254 -0.1550 -0.1648  0.0846
40541W        W83532  29.402  22.498  14.043 -0.2331 -0.2261 -0.1643
40542W        W83533  29.186  32.411  12.467  0.0664  0.2773  0.0898
40543W        W83534  30.487  10.478  15.824 -0.2145 -0.1959 -0.1867
40544W        W83535  32.176  17.534  15.647 -0.0733 -0.0015 -0.0715
40545W        W83536  13.268  27.995  15.905  0.0590  0.1688 -0.1696
40546W        W83537  17.843  21.269  26.086 -0.4258  0.0730  0.3840
40547W        W83538  30.788  22.204  18.864  0.1126 -0.1681  0.0077
40548W        W83539  29.032  24.156  18.094  0.0191 -0.1093  0.1911
40549W        W83540  15.417  28.579  21.400  0.1291 -0.1181  0.3020
40550W        W83541   3.794  32.188  25.419 -0.1815 -0.0084 -0.0661
40551W        W83542  18.308  32.032  20.223  0.0267 -0.0335  0.0739
40552W        W83543  27.764   1.941  23.411  0.1633 -0.1943 -0.3083
40553W        W83544  31.144  11.255  17.478 -0.0939  0.1104 -0.3002
40554W        W83545   3.773  28.461   2.478  0.2085  0.3400 -0.1405
40555W        W83546   8.982  11.008  15.714 -0.3527 -0.2524 -0.0841
40556W        W83547  28.866  21.238  15.834  0.1613  0.2305 -0.1780
40557W        W83548  33.754   3.252  17.428  0.1353  0.1534 -0.1771
40558W        W83549  31.025  27.105  25.992  0.3725 -0.1243 -0.1074
40559W        W83550   9.681   2.307   5.900 -0.2729 -0.1233 -0.1284
40560W        W83551  24.520   2.512  27.042 -0.0845  0.2351  0.0933
40561W        W83552   0.604  32.952  26.359  0.0913 -0.2224  0.0401
40562W        W83553  33.024  21.830  16.821  0.2354  0.0864  0.1468
40563W        W83554   0.458  17.119  17.560 -0.2269  0.1333  0.0282
40564W        W83555   0.404   1.460  19.567  0.2295  0.0559  0.1285
40565W        W83556   0.070   7.446  24.732  0.1651  0.0093  0.1866
40566W        W83557  32.535  22.740  24.459 -0.2719 -0.1655  0.0806
40567W        W83558  32.461  34.047  28.756  0.0426  0.4700  0.5350
40568W        W83559  27.184  34.265  15.658 -0.2730  0.3088  0.0037
40569W        W83560  31.018  26.952  27.869  0.0771  0.2060  0.3485
40570W        W83561  11.959   8.419  18.150  0.2560 -0.3060  0.1557
40571W        W83562  27.460  24.173  19.958  0.1008  0.0816 -0.0952
40572W        W83563  25.607  27.364  16.280 -0.0403 -0.2834 -0.0105
40573W        W83564   7.451   1.860  23.267 -0.0759 -0.3851  0.0517
40574W        W83565   4.584   6.883  28.330  0.0080  0.2461 -0.2681
40575W        W83566  14.691  22.753  15.416 -0.0810 -0.1229  0.1499
40576W        W83567  10.025  12.054   4.818 -0.1912  0.1529  0.0061
40577W        W83568  32.204   2.108  28.981  0.2480 -0.0115  0.0877
40578W        W83569  33.027  18.366  20.635  0.2239 -0.1385  0.1105
40579W        W83570  22.478  23.247  22.365  0.0391  0.0852 -0.4563
40580W        W83571  28.769  31.749  26.053 -0.1292  0.1000  0.0856
40581W        W83572   1.326  15.155  25.311  0.0545 -0.1394  0.1834
40582W        W83573  33.946   0.556  23.416  0.2198  0.2238  0.0955
40583W        W83574   0.734  13.405  24.205  0.1250  0.3650  0.0738
40584W        W83575  32.620  22.140  17.542 -0.0830 -0.3940 -0.0559
40585W        W83576  19.590   7.716  14.700  0.0237  0.1111 -0.1643
40586W        W83577  14.488  12.532  13.334  0.1073 -0.3218 -0.0442
40587W        W83578  26.871  30.135  17.776 -0.0806 -0.0729 -0.1192
40588W        W83579   3.241  25.017  26.661 -0.1005 -0.0817 -0.4064
40589W        W83580  24.732  11.926   1.198  0.0065  0.1927  0.0289
40590W        W83581   2.791  31.966  24.305  0.4308  0.0888  0.0030
40591W        W83582   3.453  18.989   4.422  0.3615 -0.3179  0.0167
40592W        W83583   9.352  25.835  21.690  0.0544 -0.1761  0.2146
40593W        W83584   8.214  21.891  20.091 -0.0204 -0.3251 -0.3275
40594W        W83585  23.187  31.291  16.148  0.0361  0.2309  0.0121
40595W        W83586  24.300  29.387  16.396  0.3492 -0.2042 -0.2894
40596W        W83587  24.775  30.600  17.301  0.1085  0.0359  0.0960
40597W        W83588   1.073  27.334  16.293 -0.1021  0.1394 -0.3049
40598W        W83589  13.513  14.027  16.219 -0.1376 -0.1324  0.2206
40599W        W83590   4.250  25.994  20.766  0.1522  0.3369 -0.0188
40600W        W83591   2.757  23.142  18.383 -0.0674  0.0051 -0.3826
40601W        W83592   1.682  16.737  18.178  0.1057 -0.0914 -0.0099
40602W        W83593  30.871  15.178  19.333  0.0882  0.0961 -0.2343
40603W        W83594  31.728  19.898  10.251  0.3030  0.1160 -0.1659
40604W        W83595  34.365  32.455  13.403  0.0710  0.2108  0.1032
40605W        W83596   4.413  29.599   8.324  0.2159 -0.0999  0.0008
40606W        W83597   0.073  24.498   0.191 -0.0255  0.2575 -0.0779
40607W        W83598  32.409  20.146  25.005 -0.2495 -0.2265 -0.1019
40608W        W83599  20.789  24.524  19.556  0.3383 -0.1752  0.0128
40609W        W83600  32.155  24.857  13.613 -0.1384 -0.1865  0.0894
40610W        W83601  27.535  23.458  25.020 -0.1116  0.1411  0.0507
40611W        W83602   0.225  28.588  13.410  0.0126  0.0786  0.2102
40612W        W83603  27.863   1.003  14.700  0.0796 -0.0206  0.0095
40613W        W83604  24.438  27.285  18.720 -0.2413  0.1988  0.2199
40614W        W83605  23.862   0.882  26.960  0.0431 -0.0444 -0.1463
40615W        W83606  34.538  27.366  16.063 -0.2643  0.0309 -0.2291
40616W        W83607  19.092  25.520  28.162 -0.0900  0.3775  0.0227
40617W        W83608  31.308  29.338  21.984 -0.0034  0.1572 -0.1270
40618W        W83609   8.666  26.828  17.654 -0.1975 -0.5095 -0.1036
40619W        W83610   1.055  26.494  22.635  0.3009 -0.2499  0.0795
40620W        W83611  30.484  26.907  12.893  0.1508  0.2457  0.0630
40621W        W83612  19.364  34.110  22.442  0.0891  0.1970  0.0213
40622W        W83613  33.923  22.537  25.296 -0.2991  0.2323 -0.1470
40623W        W83614  34.136   2.007  26.443  0.0664  0.2734 -0.1878
40624W        W83615  26.057  23.870  24.947 -0.1990  0.3815  0.4222
40625W        W83616  29.901   3.713   2.180  0.1713  0.1362 -0.1179
40626W        W83617  19.870  30.509  14.845 -0.0073  0.0671 -0.1138
40627W        W83618  33.446  20.863  22.256  0.0754 -0.1050 -0.1771
40628W        W83619   0.823  25.208  16.575 -0.3220 -0.2267 -0.2222
40629W        W83620  24.682  23.491  16.663  0.0838 -0.2683 -0.2710
40630W        W83621  24.272   5.431  22.640 -0.2026  0.3226 -0.0613
40631W        W83622  18.965   0.018  21.600 -0.0402  0.0818 -0.0543
40632W        W83623   6.794  32.691  20.028 -0.2645  0.0045  0.1187
40633W        W83624  17.715  12.928  13.761 -0.0113 -0.1114 -0.1416
40634W        W83625   1.453  30.281  24.450  0.1414 -0.1605 -0.0395
40635W        W83626   5.756  25.341   0.889 -0.1750 -0.0026  0.0675
40636W        W83627   0.266  16.814   2.402  0.3903  0.0164 -0.1397
40637W        W83628  10.401  13.675  16.390  0.1230 -0.1240 -0.2222
40638W        W83629  15.552  27.487  19.533  0.2158  0.1098 -0.0775
40639W        W83630   0.587  16.025  28.225 -0.0397  0.3402 -0.0902
40640W        W83631  32.395  12.170  23.694  0.2288  0.2980  0.2206
40641W        W83632  30.960  18.629  21.169 -0.0949  0.0680  0.0927
40642W        W83633  28.291   7.167  23.989  0.1241 -0.1178 -0.1383
40643W        W83634  29.967  26.399  28.013  0.2437  0.1155  0.0162
40644W        W83635  32.624  25.230   0.154  0.1936 -0.1203  0.1612
40645W        W83636  23.479  19.240  20.387 -0.1604  0.0285  0.2816
40646W        W83637   3.293   3.789  21.664 -0.2809  0.0019  0.3545
40647W        W83638  13.305  34.349  19.043 -0.0631  0.2592  0.0374
40648W        W83639  19.474  14.410  23.988 -0.1156  0.0556  0.4143
40649W        W83640  17.588  22.848  18.151  0.1536  0.0074 -0.2416
40650W        W83641  25.040  21.985  28.560  0.0068  0.0993 -0.1080
40651W        W83642  21.615  19.183  14.420 -0.0861 -0.1340  0.1090
40652W        W83643  33.256   5.375   4.425 -0.2552 -0.2248 -0.1824
40653W        W83644  13.443  17.999  13.273  0.2403 -0.3000 -0.1138
40654W        W83645  12.074   7.700  20.639 -0.0802 -0.0884 -0.2468
40655W        W83646  32.840  34.399  17.475 -0.3813  0.1998  0.1650
40656W        W83647  24.936  24.231  26.811 -0.1866  0.0551 -0.2002
40657W        W83648   2.016  34.562  19.697  0.4756 -0.1014  0.1357
40658W        W83649  29.326  10.941  16.170  0.0480 -0.0080 -0.0658
40659W        W83650   4.756   4.207  15.562  0.1113 -0.3266 -0.1355
40660W        W83651  33.545  11.706   3.939  0.2250 -0.0036  0.2157
40661W        W83652  31.720  13.588  19.834 -0.1694 -0.4140  0.4422
40662W        W83653   6.268  18.656  15.225  0.3345  0.0885 -0.0453
40663W        W83654  28.520  25.363  26.321 -0.0221 -0.0915  0.2007
40664W        W83655  15.974  23.606  17.135 -0.1316  0.1665 -0.0647
40665W        W83656  13.726  26.099  20.758 -0.0106  0.0009 -0.0580
40666W        W83657  33.879  13.711  22.650 -0.1896  0.1051  0.0185
40667W        W83658  17.294  29.202  15.591  0.0907  0.2814 -0.1213
40668W        W83659  25.022  26.201  22.778  0.3207  0.1904  0.0305
40669W        W83660  26.780  29.268  19.354 -0.1309  0.1866  0.1603
40670W        W83661   4.127  24.076  16.823 -0.2775  0.1102 -0.3440
40671W        W83662  26.928  17.708  28.794  0.0576  0.3107  0.1469
40672W        W83663   9.939  19.769  27.757  0.0714 -0.4334  0.3711
40673W        W83664   7.256  16.869  23.266  0.0417 -0.0778  0.1715
40674W        W83665  17.813  27.430  18.408 -0.1565  0.0431 -0.3203
40675W        W83666  33.373  23.484  20.482  0.1416  0.3283  0.0420
40676W        W83667   4.508  18.114  26.483 -0.3087  0.0610 -0.1149
40677W        W83668  20.928  23.858  18.873  0.2398 -0.0632 -0.1407
40678W        W83669  18.540  17.696  12.943 -0.0741  0.2584  0.2141
40679W        W83670   2.677  25.190  19.235 -0.4322  0.2147  0.1051
40680W        W83671   9.522  31.072  22.238 -0.0009  0.0482  0.0841
40681W        W83672   6.420   9.796  23.200 -0.2811 -0.3403 -0.0577
40682W        W83673  29.772  25.299  20.553 -0.1548 -0.0019 -0.1409
40683W        W83674   2.148  13.444  21.431 -0.1428 -0.0400  0.0659
40684W        W83675  10.591  33.642   4.433  0.0132 -0.0595 -0.1725
40685W        W83676  15.838  31.567  16.097 -0.2117 -0.0688  0.0335
40686W        W83677  16.939  32.685  28.217 -0.2288 -0.1039 -0.0288
40687W        W83678   0.546  29.309  25.089  0.0889  0.0231 -0.1194
40688W        W83679  32.648  14.520  29.173  0.1163 -0.2224  0.1544
40689W        W83680   0.809  23.529  19.533  0.0138  0.0415  0.0281
40690W        W83681   1.616  24.609  19.085  0.0826 -0.2717 -0.0141
40691W        W83682  28.644   6.702  25.772 -0.1802  0.0237  0.2277
40692W        W83683  22.273  19.500  14.443  0.1507  0.1562  0.0051
40693W        W83684  18.803   6.745  20.645 -0.0606  0.1792 -0.1277
40694W        W83685  25.676   7.931  14.034 -0.0313 -0.1701  0.3586
40695W        W83686  33.233  15.610  24.909  0.0895 -0.0992  0.0927
40696W        W83687   1.604  26.561  13.959 -0.3073  0.0447  0.0403
40697W        W83688   0.480  15.138  20.933  0.0696  0.0795  0.1725
40698W        W83689  18.040  26.715  21.944 -0.1125  0.4885  0.1136
40699W        W83690   2.856  23.190  15.391  0.1040 -0.0892  0.7523
40700W        W83691   7.812  25.066  15.011  0.1689 -0.2439  0.1304
40701W        W83692  20.961   2.684  21.510  0.2867  0.0775  0.0076
40702W        W83693  20.312  31.176  21.254 -0.0378  0.1082 -0.0224
40703W        W83694  27.222   8.161   4.994  0.1407 -0.2645 -0.2364
40704W        W83695  31.910   3.953  17.177  0.1105 -0.0172 -0.0493
40705W        W83696  13.465  27.507  17.019 -0.2280 -0.3175  0.2891
40706W        W83697   3.279  16.458  20.284  0.3182  0.0523 -0.1145
40707W        W83698  32.636  16.354  22.299  0.1224  0.2142  0.2986
40708W        W83699  21.528  15.655  26.341 -0.1274  0.2549 -0.0432
40709W        W83700   1.605   1.074  25.165 -0.1344  0.0782 -0.2347
40710W        W83701  19.200  31.077  18.802 -0.0102  0.0660 -0.0006
40711W        W83702   1.369  29.833  22.842  0.0058  0.1648 -0.0311
40712W        W83703   5.201  23.928   0.584 -0.3733 -0.0299  0.4158
40713W        W83704  16.070  17.296  13.798 -0.1514  0.2681 -0.1579
40714W        W83705  23.014  23.385   6.030  0.1539 -0.0186 -0.4142
40715W        W83706   2.521  11.099  22.033  0.1931 -0.0599 -0.4716
40716W        W83707   6.900  24.340   7.872  0.1657  0.2336  0.1458
40717W        W83708  26.356  13.147  23.738 -0.2328 -0.3296 -0.2071
40718W        W83709  33.177  32.519  19.362  0.0068 -0.2177 -0.1110
40719W        W83710   3.705  22.061  14.623  0.0724  0.1225  0.0718
40720W        W83711  19.306   7.368   1.748 -0.1537 -0.1626 -0.2700
40721W        W83712  23.160  28.431  24.736  0.1641 -0.1889  0.2088
40722W        W83713  22.834  24.853   7.046  0.0549 -0.1510 -0.1169
40723W        W83714   8.505  30.785  18.255 -0.0642 -0.3011  0.0610
40724W        W83715   0.806  29.386  15.869  0.2798 -0.1013 -0.0290
40725W        W83716   8.614   1.402  16.948  0.2057  0.3778  0.0271
40726W        W83717  27.130  14.664  21.584  0.2026 -0.2325  0.1090
40727W        W83718  31.054  25.359  26.534  0.3667 -0.0425 -0.4308
40728W        W83719  26.692  13.922  17.765 -0.2501 -0.2028 -0.0307
40729W        W83720   2.035  21.018   5.667  0.0586  0.1114 -0.1086
40730W        W83721  23.683  23.675  16.741 -0.1254 -0.0133 -0.2383
40731W        W83722  17.458  13.997  17.368  0.1448  0.0825  0.1268
40732W        W83723   1.796  10.004  28.271 -0.1040  0.1369  0.1884
40733W        W83724  25.448  23.901  14.970  0.0968  0.3016  0.3729
40734W        W83725  34.613  27.795  20.087 -0.1489  0.1583  0.2457
40735W        W83726   3.314  21.932  14.939  0.0925  0.0120  0.0952
40736W        W83727   4.629   1.291   5.388  0.1401 -0.1875 -0.1587
40737W        W83728  29.668  10.753  25.907  0.1180  0.0352  0.1377
40738W        W83729   7.423  12.080   0.035 -0.5680  0.1472  0.4638
40739W        W83730  27.760  19.435  16.162 -0.1308  0.1428  0.2580
40740W        W83731   4.751  17.183  15.387 -0.2205  0.0352  0.0826
40741W        W83732  12.121  34.614  23.798 -0.1842  0.2810 -0.0138
40742W        W83733  29.762  28.203   4.779  0.1861 -0.1612 -0.0586
40743W        W83734  30.848  15.562  27.861 -0.0683  0.1146 -0.1168
40744W        W83735  31.255  28.629  23.952 -0.2244 -0.2869  0.2111
40745W        W83736   6.129  28.220  18.762  0.1621 -0.1129  0.1090
40746W        W83737  26.201  29.854  19.852 -0.1315 -0.0174  0.1648
40747W        W83738  18.946  30.312  23.051  0.2380  0.1375 -0.0755
40748W        W83739  32.178  29.520  14.835  0.0733  0.0479 -0.0483
40749W        W83740  30.988  13.795   4.215  0.0467 -0.2458 -0.3436
40750W        W83741   0.993  31.853  15.719 -0.1539  0.1914  0.0263
40751W        W83742  15.165   6.080  15.749 -0.0361  0.0721  0.2657
40752W        W83743   2.827  24.975  18.799 -0.2043 -0.1746 -0.1030
40753W        W83744  28.696  27.346  25.328  0.2445 -0.0265  0.3119
40754W        W83745  27.126  12.577  22.610 -0.0988 -0.0455  0.1707
40755W        W83746  33.963  28.342  14.497 -0.0646  0.3163  0.2525
40756W        W83747   0.245  17.661  17.265  0.0688  0.1734  0.2179
40757W        W83748  21.514  26.873  27.241 -0.0884  0.2586  0.1545
40758W        W83749  28.567  29.187   6.996  0.2331  0.0060  0.0030
40759W        W83750  30.789   3.408   2.701  0.0098  0.2690 -0.0117
40760W        W83751  14.210   9.612  28.697  0.0693  0.0090  0.0695
40761W        W83752  31.174  12.581  22.572 -0.1945 -0.1676 -0.0691
40762W        W83753  24.793  30.022   0.562  0.0260  0.0746 -0.1379
40763W        W83754   6.052  28.940  17.949  0.0302  0.1997  0.4305
40764W        W83755   2.506  18.093   2.603 -0.0438 -0.3002  0.2098
40765W        W83756   9.589  34.272  23.003  0.0486  0.3224 -0.1131
40766W        W83757   2.563  28.650  25.817 -0.0688  0.1763 -0.1306
40767W        W83758   5.042   9.717  26.488 -0.1139 -0.0894  0.0568
40768W        W83759   6.722  30.615  24.802  0.2879  0.1614  0.0628
40769W        W83760  21.679  18.170  27.498 -0.1013 -0.2318 -0.1237
40770W        W83761  29.176  32.497  13.223  0.1400 -0.0059  0.0284
40771W        W83762  24.454  26.244   0.134  0.1455  0.2453 -0.1119
40772W        W83763   9.632  25.552  23.110  0.5275  0.0306  0.1052
40773W        W83764  24.773  20.052  22.607  0.0372  0.0942 -0.0042
40774W        W83765  21.157  23.428  21.338  0.0556 -0.0879 -0.1251
40775W        W83766   5.007  20.018   3.255 -0.1519 -0.0629 -0.0558
40776W        W83767  31.070   0.035  21.522 -0.2006  0.0637  0.0046
40777W        W83768   3.770  30.426  21.704  0.0975  0.0382 -0.0801
40778W        W83769  24.313  20.689  26.329  0.3179  0.2478  0.2572
40779W        W83770   7.017   5.196  19.273  0.1939  0.1082  0.0979
40780W        W83771  29.860  27.113  18.242  0.3317 -0.2706  0.2004
40781W        W83772  25.146   4.048   4.757  0.0707  0.0292  0.1691
40782W        W83773  15.310  13.145   2.812  0.0054  0.1450  0.1528
40783W        W83774  17.063   2.954  23.124 -0.1779 -0.2526  0.0060
40784W        W83775   6.883   3.969  21.181 -0.4134 -0.0256  0.1675
40785W        W83776  33.763  14.520  17.130  0.0141 -0.3540  0.0119
40786W        W83777   2.044  22.155  16.454  0.2086 -0.0890  0.2581
40787W        W83778  22.599  25.611  13.664 -0.1314 -0.0364 -0.0385
40788W        W83779   0.493   7.790  19.095 -0.1673  0.1445 -0.0882
40789W        W83780  28.881  16.376  21.186  0.1802  0.2995  0.0218
40790W        W83781  26.376  24.514  15.648 -0.0686 -0.0291  0.1186
40791W        W83782   1.214   9.389  22.311 -0.0109 -0.0353  0.0009
40792W        W83783  13.021   1.690  16.481 -0.2529 -0.1166  0.1165
40793W        W83784  24.848  25.901  22.343 -0.1219  0.2204  0.1953
40794W        W83785  28.193  22.483  18.930 -0.1114 -0.1674  0.3329
40795W        W83786  26.994  15.121  18.848 -0.0983 -0.0951  0.0369
40796W        W83787  29.774   9.929  16.175 -0.2357  0.1648 -0.2222
40797W        W83788   5.553  13.248  23.199  0.0127 -0.1517  0.0508
40798W        W83789  32.343  23.401  17.796  0.0462 -0.2730 -0.1529
40799W        W83790  27.630  20.670  17.573  0.0758 -0.0965 -0.0355
40800W        W83791  26.638  33.695  14.418 -0.0480 -0.2849  0.0684
40801W        W83792   2.306  28.033  14.680  0.2435 -0.1817  0.0922
40802W        W83793   5.020  24.668  17.277  0.1603  0.1458  0.0001
40803W        W83794  23.117  19.511  22.631  0.1265  0.2053 -0.0105
40804W        W83795  23.948  28.508  22.421  0.4391  0.1007 -0.1834
40805W        W83796  31.654  33.163  13.192 -0.1529 -0.2390 -0.2580
40806W        W83797   5.722  28.198  17.704  0.1108  0.1605 -0.0534
40807W        W83798  31.691  28.687  12.376 -0.2239 -0.0045 -0.0922
40808W        W83799   8.074   7.049  20.522 -0.1702  0.0752  0.0369
40809W        W83800  31.113   4.717  21.380 -0.1046 -0.1918  0.0539
40810W        W83801  27.878   8.036  18.931  0.0371 -0.0300 -0.0395
40811W        W83802  33.879   0.925  24.512 -0.1235  0.0715  0.0241
40812W        W83803  25.161  23.084  24.656  0.1584 -0.1832  0.0940
40813W        W83804   0.859   4.872   0.713 -0.1338 -0.1979  0.1176
40814W        W83805   3.389  24.556   1.805  0.2358 -0.1795  0.3452
40815W        W83806  24.457   4.220  27.988 -0.0820 -0.1695  0.1437
40816W        W83807  23.761   9.578  25.491 -0.0663  0.0695  0.5020
40817W        W83808  23.548  18.059  20.433 -0.0745  0.0088 -0.3300
40818W        W83809  23.104  22.544   7.945  0.0786 -0.2395  0.0452
40819W        W83810  33.339  23.558  19.311  0.1092 -0.1005  0.0648
40820W        W83811  14.074  23.297  14.377 -0.0816 -0.3613  0.1350
40821W        W83812  29.303  19.077  26.526  0.1612  0.3160 -0.0151
40822W        W83813  29.571   1.632  17.031 -0.0190 -0.3497 -0.0052
40823W        W83814  20.439  31.112  18.630  0.0429  0.1709  0.2230
40824W        W83815   0.895  25.920   1.322  0.3139  0.0033  0.0599
40825W        W83816  26.480  26.150   8.755 -0.0534  0.1376 -0.0931
40826W        W83817   1.077  14.704  27.801 -0.1777  0.1955 -0.0952
40827W        W83818  30.806   2.001  20.619  0.4430  0.3068 -0.1594
40828W        W83819   7.579   5.232  28.600  0.0553  0.0323  0.3082
40829W        W83820   1.900  33.600   1.196  0.2777 -0.1508  0.1366
40830W        W83821  22.392   9.754  19.090 -0.2153  0.0021  0.1131
40831W        W83822   5.309  19.685  28.703  0.1002  0.0692  0.3768
40832W        W83823  26.690  18.835  18.696  0.3966  0.0204 -0.2760
40833W        W83824   8.700   3.620  17.560 -0.5531 -0.0489  0.0278
40834W        W83825  29.377  22.190  19.643 -0.1500  0.2124  0.2808
40835W        W83826  29.298  34.288  13.813 -0.0148 -0.0327  0.2056
40836W        W83827  21.914  30.332  17.994 -0.2195 -0.2766  0.2675
40837W        W83828  29.135   6.635  15.943  0.0597 -0.1216  0.1797
40838W        W83829  26.096  23.245  23.773  0.3859  0.0872 -0.0070
40839W        W83830  28.255  20.468   5.426  0.1462 -0.4312  0.2477
40840W        W83831  26.937  15.632  15.008  0.1217  0.0372 -0.0916
40841W        W83832  25.429  34.222  14.789  0.0882 -0.3323  0.0886
40842W        W83833  16.745  28.024  23.398 -0.1777  0.3502 -0.1222
40843W        W83834  28.333  16.637   0.491 -0.1106 -0.1150  0.1280
40844W        W83835   5.848  27.834  17.367 -0.1502 -0.0013 -0.1735
40845W        W83836  32.360  12.343  16.006  0.0570  0.2696 -0.0808
40846W        W83837  13.265  30.134  25.993 -0.1645  0.0403 -0.3069
40847W        W83838  31.129  14.480  17.499  0.0958  0.1091  0.1872
40848W        W83839   2.915  17.927  23.172 -0.2809 -0.0582  0.0087
40849W        W83840  11.670  30.023   3.214  0.0587  0.1329 -0.3434
40850W        W83841   1.448  19.244  20.317  0.0405 -0.0697 -0.0886
40851W        W83842   8.786  17.492  20.998  0.1101  0.1396 -0.3887
40852W        W83843  23.305  15.242  15.375 -0.0479  0.1260 -0.2565
40853W        W83844  23.095   1.697  15.078  0.1343  0.3177  0.1057
40854W        W83845   3.185  21.744  24.211  0.1465  0.1633 -0.2948
40855W        W83846  32.487  15.025  11.674 -0.1584 -0.1620  0.0512
40856W        W83847   3.992  20.963  28.178 -0.0777 -0.0495 -0.2351
40857W        W83848  27.137  33.251  15.517  0.1567 -0.0248  0.1956
40858W        W83849  31.021  31.881  18.909 -0.3005 -0.2167  0.0244
40859W        W83850  24.529  20.335  28.560  0.0241  0.1910  0.2490
40860W        W83851   2.104  30.164   7.354  0.0339 -0.3937  0.0531
40861W        W83852  30.877  32.982  14.259  0.2234 -0.4258 -0.0181
40862W        W83853   0.957  21.028   7.200  0.0419  0.0810 -0.0113
40863W        W83854   4.887  19.509  27.378  0.0255 -0.1173 -0.1016
40864W        W83855   7.597   9.579  17.854  0.1704  0.0451  0.3627
40865W        W83856  22.831  23.835  19.398  0.1786 -0.1625 -0.1813
40866W        W83857  28.919  20.401  16.144 -0.1289  0.0107 -0.1324
40867W        W83858  29.539  28.596  13.154 -0.1811  0.3634 -0.0174
40868W        W83859  23.084  31.434   7.117  0.0362 -0.0957  0.2826
40869W        W83860  28.032  32.044  27.399 -0.1224  0.0514  0.1261
40870W        W83861  24.366   0.187  23.131  0.0810  0.1098 -0.0205
40871W        W83862  14.027  16.249  15.569 -0.0041  0.1778 -0.0562
40872W        W83863  20.628   8.950  20.806 -0.1443  0.0428 -0.1436
40873W        W83864   1.471  31.981  17.291  0.2732  0.1775  0.1746
40874W        W83865  32.865   2.679  13.892  0.4352 -0.1033 -0.0871
40875W        W83866   0.617  13.419  16.209 -0.0447  0.1102 -0.0870
40876W        W83867   2.724  22.498  27.952  0.1305 -0.2897  0.1745
40877W        W83868  14.532  15.747  20.990  0.1657 -0.0727 -0.1893
40878W        W83869   6.634  21.425   1.710 -0.1094  0.0028 -0.1962
40879W        W83870  19.981  24.526   1.179  0.0393  0.0033 -0.1890
40880W        W83871  29.697  17.185   0.394 -0.0458  0.1336 -0.1582
40881W        W83872  26.172   9.841  15.694 -0.0811 -0.0770 -0.0820
40882W        W83873  13.680  20.573  15.780 -0.3515  0.3139 -0.2123
40883W        W83874   0.838  34.758  20.415 -0.0646 -0.0827  0.6119
40884W        W83875  29.801  15.675  14.528 -0.1384  0.0380  0.0987
40885W        W83876  14.715  22.264  25.304 -0.2305 -0.1485  0.2565
40886W        W83877   8.723  28.067  26.168 -0.0076  0.2709  0.0921
40887W        W83878  29.506  29.524  18.392 -0.0856  0.2619 -0.1138
40888W        W83879  33.552  27.351  26.771 -0.1233  0.1428 -0.1014
40889W        W83880   4.941  21.894  15.181  0.0361 -0.2344 -0.4801
40890W        W83881  20.493  18.418  22.239  0.1252 -0.0102  0.0689
40891W        W83882  21.850  24.063   8.332 -0.0358 -0.1605  0.3250
40892W        W83883   4.124  27.037  21.149 -0.0293  0.0430  0.0661
40893W        W83884  29.521  28.229  13.520 -0.1147  0.2894  0.3818
40894W        W83885  28.622  25.444  17.270 -0.0796 -0.2246  0.1753
40895W        W83886  26.923  30.318  19.186  0.0342 -0.2536  0.2701
40896W        W83887  27.967   3.495  16.183 -0.2886  0.0051 -0.0968
40897W        W83888  25.958  27.654  28.606  0.0899 -0.0211  0.1541
40898W        W83889  29.898   8.159  23.317 -0.1931  0.0110 -0.3865
40899W        W83890  29.446  31.982  20.087  0.0592  0.0071  0.2448
40900W        W83891  34.580  24.011  21.063 -0.0652 -0.3028 -0.0671
40901W        W83892  15.036  29.728  20.314  0.1569 -0.0310  0.0688
40902W        W83893   0.298  26.217  24.518  0.0794  0.0674  0.2417
40903W        W83894   0.768  19.925   5.033 -0.2509 -0.1396  0.1628
40904W        W83895  21.372  23.222  15.532  0.0845 -0.0453 -0.0602
40905W        W83896   5.389  32.074  15.106  0.3000 -0.0100 -0.3035
40906W        W83897   5.111  19.250   4.494  0.0227  0.0408  0.2282
40907W        W83898  29.562  22.605  20.675 -0.1494  0.0240  0.0192
40908W        W83899  30.392   0.996  21.101 -0.2073  0.2392 -0.1788
40909W        W83900  12.873   9.448   0.971  0.2869 -0.0481 -0.2180
40910W        W83901  19.549  15.500  11.994 -0.0921  0.3536 -0.1282
40911W        W83902  29.278  14.701  27.491 -0.4421 -0.2409  0.1708
40912W        W83903  18.989  13.746  16.792 -0.1757 -0.0133  0.2622
40913W        W83904  26.902  19.683  23.732  0.0001  0.1248 -0.1949
40914W        W83905  19.465  28.006  25.601  0.1996 -0.3426  0.2112
40915W        W83906  24.010  15.127  17.985  0.0703 -0.1330 -0.0930
40916W        W83907  20.703  24.970   2.289  0.3585  0.0701  0.2904
40917W        W83908  30.743  32.273   0.788  0.1331 -0.2597 -0.2144
40918W        W83909  26.473  18.529  22.784 -0.1258 -0.2480  0.1363
40919W        W83910   7.518  28.034  20.115 -0.0218  0.1901  0.2357
40920W        W83911   6.428   0.397  24.601 -0.0031 -0.0431  0.1228
40921W        W83912  34.253   3.218  17.245  0.2057 -0.0358  0.1984
40922W        W83913  26.872  31.519  21.841  0.1377 -0.4320 -0.2028
40923W        W83914  34.124  22.374  24.871  0.0436  0.1819 -0.0301
40924W        W83915  33.850  22.029   7.640  0.0258  0.0540  0.0729
40925W        W83916   7.152  17.013   6.959  0.1499  0.1153 -0.0114
40926W        W83917  16.728  13.301  13.376 -0.0186 -0.1410  0.3685
40927W        W83918   2.420  22.994  24.982  0.0134 -0.1614  0.3067
40928W        W83919  29.564  30.123  13.293 -0.0674 -0.0276  0.3054
40929W        W83920  23.965   2.700  21.643 -0.0188 -0.0240  0.1391
40930W        W83921  30.691  26.569  27.681  0.1378  0.0754 -0.0778
40931W        W83922  11.257  31.620  24.524 -0.0042  0.0536  0.0633
40932W        W83923   9.699  26.744  17.404  0.1638  0.0088 -0.1490
40933W        W83924  20.627  27.437  26.104 -0.1067 -0.2872  0.0905
40934W        W83925  24.582   6.796  18.418  0.0566  0.2809  0.0851
40935W        W83926   3.392  33.982  29.061 -0.1143  0.5073 -0.1263
40936W        W83927  32.835  17.104  22.860 -0.0190 -0.2907 -0.0840
40937W        W83928  30.162  15.939  22.050 -0.2973 -0.1525 -0.0330
40938W        W83929   0.231  13.821  22.502 -0.0280 -0.1353 -0.1885
40939W        W83930  25.842  13.985   8.765 -0.0384  0.0244 -0.3014
40940W        W83931  28.113  26.494  22.973 -0.1520 -0.0587 -0.2913
40941W        W83932  22.969  31.821  19.365  0.3484 -0.0745  0.0131
40942W        W83933   7.237  17.446   6.681 -0.1758  0.1823 -0.1085
40943W        W83934  25.160   6.497  18.484  0.2217 -0.1970 -0.1643
40944W        W83935  30.768  18.725   8.330 -0.1223 -0.1011 -0.3642
40945W        W83936  22.560  29.265  17.402  0.1199 -0.0603 -0.2750
40946W        W83937   4.374  19.161  20.478 -0.4527  0.0374 -0.2631
40947W        W83938  28.207  27.422  15.274 -0.1713 -0.1094 -0.0610
40948W        W83939  24.322  29.361  22.451  0.5046 -0.0037  0.3437
40949W        W83940   8.460  28.014  19.188 -0.0559 -0.0444  0.0000
40950W        W83941   8.963   4.846  18.907 -0.2007  0.1167  0.3170
40951W        W83942   0.545  32.765  17.916  0.0073  0.3716  0.0877
40952W        W83943  25.112   9.864   6.096  0.0418 -0.0688 -0.0796
40953W        W83944  19.552  23.823  18.528  0.2937 -0.0452  0.0137
40954W        W83945  33.993  17.538  15.609 -0.0942 -0.1349 -0.0142
40955W        W83946  32.546  33.203  22.864 -0.1560 -0.0612  0.0080
40956W        W83947  29.497   5.279  18.376 -0.0647  0.1304 -0.2833
40957W        W83948   6.133  14.934  18.674 -0.0415 -0.1482 -0.0475
40958W        W83949  26.061   3.672   5.460 -0.0718  0.0373 -0.1997
40959W        W83950  18.523  28.122  19.704 -0.1985 -0.0280 -0.1639
40960W        W83951   6.987   4.074  17.909 -0.2306 -0.1629  0.0898
40961W        W83952  31.378  33.164  19.830 -0.0935 -0.0490  0.0133
40962W        W83953   3.209  23.124  26.726  0.1989  0.0156  0.0331
40963W        W83954  31.679  25.336  25.842 -0.3813 -0.0089  0.0918
40964W        W83955   4.397  16.704  28.949 -0.0839 -0.0136  0.3000
40965W        W83956  28.459   1.316  22.498  0.3703 -0.1284 -0.3519
40966W        W83957  29.447  29.331  21.891 -0.2108  0.0614  0.1025
40967W        W83958   4.353   2.919  18.252 -0.1117 -0.0873  0.1105
40968W        W83959  29.808  17.681  17.509  0.0983  0.0834 -0.0740
40969W        W83960   9.321  29.220  23.487 -0.0954  0.0888  0.4409
40970W        W83961  17.317   3.507  20.025 -0.0587  0.0772  0.1108
40971W        W83962   5.089  18.868   2.637 -0.1886 -0.2105 -0.2055
40972W        W83963   1.345  31.662  14.310  0.0977 -0.0419  0.0491
40973W        W83964  30.388   5.102  13.931  0.1463 -0.3308  0.2392
40974W        W83965  33.285  23.323  29.219  0.0856  0.1772  0.2086
40975W        W83966  31.197   9.344  28.253  0.0221 -0.1034 -0.2839
40976W        W83967  28.584   2.341  17.691  0.1659 -0.3336  0.1441
40977W        W83968  25.950  25.371  24.016 -0.1828  0.1329  0.0277
40978W        W83969   2.842  17.771  25.387  0.1705 -0.1098  0.1259
40979W        W83970  21.364  17.161  14.963 -0.1394 -0.1511 -0.2126
40980W        W83971   1.899   9.532   1.187  0.1184  0.1382 -0.1986
40981W        W83972  13.838   3.381  24.335 -0.1868 -0.0649  0.0411
40982W        W83973   2.707  25.763  21.534  0.0086  0.0499  0.2108
40983W        W83974  30.473  18.528   1.277  0.0391  0.1893 -0.5383
40984W        W83975  26.727  16.308   4.458  0.2825  0.0459  0.2672
40985W        W83976   0.138  14.918  19.037  0.2405  0.3015 -0.1861
40986W        W83977  11.336  14.372   1.972  0.1471 -0.2917 -0.1558
40987W        W83978   6.691   8.868  23.051 -0.1196 -0.3301 -0.0087
40988W        W83979  16.442  17.752  13.053 -0.1486 -0.2107  0.0536
40989W        W83980  23.400   8.789  16.612 -0.1729  0.1320 -0.1360
40990W        W83981  27.710  34.173  18.222  0.3900 -0.0329 -0.0369
40991W        W83982  26.121  30.435   3.672 -0.0897 -0.1071 -0.0917
40992W        W83983  15.035  14.301   6.260  0.2284  0.3431 -0.3554
40993W        W83984   2.082  11.109  25.935 -0.0199  0.0028 -0.0456
40994W        W83985  32.820  17.390  18.700  0.2563  0.0982  0.4449
40995W        W83986  10.043  29.714  23.972  0.2888 -0.1414  0.4454
40996W        W83987   5.785  34.796  28.539 -0.0802  0.2255 -0.1674
40997W        W83988  30.137   4.906  19.224 -0.1385 -0.2822  0.1736
40998W        W83989  21.301  27.603  18.088  0.1885 -0.1288  0.1920
40999W        W83990  27.868  27.782  18.047  0.1716 -0.1236 -0.1642
41000W        W83991  29.684   7.968  21.794 -0.3863  0.0118  0.1383
41001W        W83992   7.680  32.608  19.475 -0.0629 -0.1205 -0.1155
41002W        W83993  21.831  20.459  28.381 -0.3962 -0.0233 -0.0524
41003W        W83994  31.867  25.715  16.285  0.0911 -0.2330 -0.2477
41004W        W83995  30.476  31.176  16.641 -0.2377 -0.4371 -0.2717
41005W        W83996  30.944  27.799  14.997 -0.0141 -0.4111 -0.2325
41006W        W83997  34.565  24.575  19.143 -0.0448  0.1085 -0.0181
41007W        W83998  31.710  18.192  14.959  0.3046  0.2864  0.1086
41008W        W83999  18.560   5.477  25.963  0.0282  0.0243 -0.1177
41009W        W84000  34.578  19.147   9.931  0.0887  0.3197  0.3596
41010W        W84001  16.519  25.433  22.977 -0.0863  0.2205  0.1708
41011W        W84002   3.927  18.561  18.486  0.2118  0.0541  0.0547
41012W        W84003   4.730  28.919  21.085  0.2636 -0.0700 -0.3531
41013W        W84004  28.333  32.962  23.609  0.2619  0.0999  0.1817
41014W        W84005  19.333  14.590  13.330  0.3988 -0.0512  0.0153
41015W        W84006  33.562  18.278  17.780 -0.2194 -0.2866 -0.0777
41016W        W84007  22.361  21.600  15.246  0.2700  0.1482  0.0499
41017W        W84008  12.851  29.332   8.338 -0.0675  0.1829  0.1281
41018W        W84009  21.953  31.544  24.795  0.1762 -0.1284 -0.1134
41019W        W84010   6.640  23.237  23.376 -0.6139 -0.0349  0.2482
41020W        W84011   9.785  20.200  23.714  0.3605 -0.2969 -0.0982
41021W        W84012  18.240   3.177  21.967  0.3700 -0.2049 -0.2633
41022W        W84013  33.718  21.855  16.564 -0.1211 -0.0241 -0.1799
41023W        W84014  28.254  23.061  26.393 -0.4985 -0.0663 -0.4024
41024W        W84015  21.097  27.687  28.392 -0.0153  0.3338 -0.1495
41025W        W84016  30.649   0.615  16.770  0.2501 -0.0646 -0.0533
41026W        W84017  25.014  31.034   7.770  0.1220 -0.0821  0.3950
41027W        W84018  23.228  28.336   2.741 -0.1416 -0.1605 -0.0456
41028W        W84019  26.543  21.164   7.304 -0.1329 -0.1255  0.0205
41029W        W84020  27.840  14.479  24.776  0.0912 -0.0678  0.4089
41030W        W84021  34.221  18.313  20.980  0.1985  0.0034  0.0948
41031W        W84022  28.843  10.673  21.739  0.0347 -0.1572  0.5411
41032W        W84023  29.995  21.525  21.628  0.1307  0.1615  0.1348
41033W        W84024  22.883   0.004  25.212  0.4657  0.1383 -0.2507
41034W        W84025   2.324  30.836  18.321 -0.2691 -0.4637  0.0479
41035W        W84026  34.286   4.717  27.268  0.1122 -0.0090  0.0019
41036W        W84027  32.662  17.546  20.621 -0.0360 -0.1285  0.1400
41037W        W84028   0.881   4.376  21.718  0.0117 -0.0896 -0.1131
41038W        W84029  10.916  33.878  28.396 -0.1401  0.0259 -0.0641
41039W        W84030   1.900  19.825  23.881 -0.0140 -0.1073  0.0342
41040W        W84031  11.835   2.803   3.072  0.0513  0.1094 -0.2625
41041W        W84032  31.329  26.718  22.631  0.1036 -0.2203  0.2811
41042W        W84033  33.938  21.617  23.939  0.2553 -0.0317 -0.3224
41043W        W84034  25.623   3.132   9.025  0.1653  0.0976 -0.0149
41044W        W84035  21.172  31.810  15.822  0.1073 -0.0780 -0.1834
41045W        W84036  27.081  14.669  16.288 -0.0541 -0.1103  0.1891
41046W        W84037  17.262  10.527  23.555 -0.1120  0.0285 -0.0180
41047W        W84038   0.921   0.239  19.939  0.0621 -0.0183  0.0918
41048W        W84039  24.870  32.493  14.861  0.0454  0.0398  0.0380
41049W        W84040  13.180  31.635  26.130  0.0672 -0.3082  0.2673
41050W        W84041  34.591  14.555  27.657 -0.2081  0.0798  0.2636
41051W        W84042   7.360  27.369  25.946  0.1200 -0.2416 -0.3686
41052W        W84043  25.143  18.047  24.103  0.0771 -0.2635 -0.0137
41053W        W84044   0.791  30.449  19.666  0.1933  0.3278 -0.1610
41054W        W84045   4.863  14.538  22.233 -0.0429 -0.1463  0.2833
41055W        W84046  33.184  26.551  22.164 -0.2787  0.0166 -0.3414
41056W        W84047  14.781   7.448  18.371 -0.1109  0.2156  0.0400
41057W        W84048  26.909  10.920   6.444  0.0617 -0.0575  0.1273
41058W        W84049  32.808  27.565  21.905 -0.1453 -0.0188 -0.0499
41059W        W84050  25.163  26.479   1.455  0.0154  0.0251 -0.2979
41060W        W84051  34.309  14.034   2.082 -0.2237 -0.0637  0.1323
41061W        W84052   4.353  20.170   0.114  0.0510  0.4076 -0.2592
41062W        W84053  15.930   2.810   1.749  0.2650 -0.2576  0.1543
41063W        W84054  23.077  19.181   6.876  0.0005  0.0392 -0.0293
41064W        W84055  30.023   6.709   3.792 -0.0166  0.4372  0.0672
41065W        W84056  28.598   7.303  27.689  0.0240 -0.3465 -0.0747
41066W        W84057  32.328  25.818  28.800  0.0202  0.2833 -0.0216
41067W        W84058  34.299   1.804  18.432  0.1182  0.0921  0.1965
41068W        W84059  24.776  28.216   5.265 -0.2856  0.0915 -0.1884
41069W        W84060  34.003   9.272  28.067  0.0753  0.2594 -0.0395
41070W        W84061  32.085   4.847   4.268  0.1168  0.1937  0.0078
41071W        W84062  23.677   1.522   3.224  0.4953  0.2177 -0.1458
41072W        W84063  31.589  28.505   2.338  0.0192 -0.3566  0.0507
41073W        W84064   2.129  27.900  21.398  0.2516  0.0992  0.1428
41074W        W84065  31.079  21.765   5.759  0.0795 -0.1015  0.0075
41075W        W84066  25.125  14.056  17.997 -0.1462 -0.3135  0.0088
41076W        W84067   0.376  29.196  16.714 -0.1324 -0.0171 -0.1851
41077W        W84068  28.466  20.043  20.203 -0.3951 -0.1322 -0.2710
41078W        W84069   0.996   0.341  20.862 -0.0531  0.3027  0.0496
41079W        W84070   6.475   3.735  28.669  0.3893 -0.1271 -0.2635
41080W        W84071   2.831  31.617  27.680 -0.1258 -0.1145  0.1697
41081W        W84072  24.538  33.971  24.141  0.1145 -0.3154  0.1158
41082W        W84073  12.600  11.612  18.142 -0.0007  0.0128  0.0288
41083W        W84074  30.657   0.151  27.017 -0.0016  0.2414 -0.0680
41084W        W84075  27.874  18.775  15.450 -0.1418 -0.1290 -0.1489
41085W        W84076  29.576   9.318   4.706  0.1372  0.3005  0.2856
41086W        W84077  26.945  32.203  17.470 -0.0165 -0.0535 -0.2606
41087W        W84078  20.048  14.004   4.276 -0.2101 -0.2291  0.0129
41088W        W84079  32.054  22.834  19.920  0.0787 -0.0270 -0.0406
41089W        W84080  25.292  31.036  23.717 -0.0320 -0.0433 -0.4945
41090W        W84081  30.292  13.000  27.078 -0.0652 -0.1226  0.2034
41091W        W84082  18.229  29.879  25.583  0.1279  0.1024  0.2049
41092W        W84083  12.988  17.514  16.903 -0.0892 -0.0502  0.1769
41093W        W84084  26.387  30.252  27.736 -0.0508 -0.1194  0.1630
41094W        W84085   0.943  26.601  26.915  0.1617  0.0616 -0.0098
41095W        W84086  22.740  17.207  24.017 -0.0203 -0.0551  0.1620
41096W        W84087  16.326  28.425  16.290 -0.0805  0.0022  0.1930
41097W        W84088   2.055  24.891  19.453  0.1994  0.1381  0.1525
41098W        W84089  33.671  21.994   6.293 -0.2577  0.1766  0.1986
41099W        W84090  30.960  13.804   7.232  0.1854 -0.1993  0.0284
41100W        W84091  25.149  22.318  27.182  0.2579 -0.2231  0.0706
41101W        W84092  29.858  24.612  20.861  0.0988 -0.0888  0.3160
41102W        W84093   3.232  29.224  20.347 -0.0946 -0.1572 -0.3168
41103W        W84094  22.850  22.396  27.686  0.1965 -0.0003  0.0452
41104W        W84095  23.642  11.784  15.482  0.1226 -0.0271 -0.1663
41105W        W84096  26.877   7.585   7.350  0.0496  0.0478 -0.2979
41106W        W84097  20.049  26.433   0.309  0.1020 -0.1727  0.3455
41107W        W84098  33.307   8.900  15.217  0.1969 -0.0265 -0.0474
41108W        W84099  26.250  28.813   2.786  0.2078 -0.1657  0.0066
41109W        W84100  25.950  21.395  19.744 -0.0892  0.2254  0.0337
41110W        W84101  29.712  11.177  23.014  0.0625 -0.2667  0.2966
41111W        W84102  19.746  19.310  13.513  0.1733  0.3980  0.1407
41112W        W84103  13.103  21.746  17.841  0.0419  0.0661 -0.0322
41113W        W84104   0.834  34.387  17.862 -0.0285  0.0876  0.2026
41114W        W84105  28.413  30.539   1.270  0.0545 -0.0284  0.1233
41115W        W84106  13.418   6.953  22.600  0.1138 -0.0528  0.0623
41116W        W84107  20.845  30.481  26.386 -0.4763 -0.1226 -0.0480
41117W        W84108   6.297  28.865   9.535  0.1075  0.1672  0.1002
41118W        W84109  12.573  19.783  22.650  0.4040  0.2642  0.0479
41119W        W84110  10.547  29.445  27.475 -0.1836  0.2844 -0.0433
41120W        W84111  24.562  18.222  14.628  0.0759  0.2732 -0.0820
41121W        W84112  26.454  16.813  25.450 -0.4129  0.0336 -0.2523
41122W        W84113  19.706   1.679  16.656 -0.1326  0.0984  0.1032
41123W        W84114  21.373  12.522  20.918  0.3057  0.0105  0.1195
41124W        W84115  18.368  22.412  23.670  0.0589  0.0002  0.1599
41125W        W84116  33.306  32.127  23.242 -0.1178 -0.3192 -0.1333
41126W        W84117  28.106   6.888  18.019 -0.1837 -0.0383  0.1300
41127W        W84118  22.744  33.059  27.364 -0.0780  0.1942 -0.3523
41128W        W84119  33.241  19.014   3.731 -0.0323 -0.2587  0.2744
41129W        W84120  28.726  28.372  28.047 -0.3574  0.1741  0.2960
41130W        W84121  22.898  31.803  18.404 -0.5815  0.1483 -0.2321
41131W        W84122  31.231  22.885  25.178 -0.0265  0.2618 -0.1797
41132W        W84123  22.306   7.660  25.987  0.4553 -0.2997 -0.2328
41133W        W84124  18.416  23.239  24.115 -0.0319 -0.2235  0.2300
41134W        W84125  12.950   5.671  24.359  0.0646  0.2333 -0.1114
41135W        W84126  18.364  20.799  27.708 -0.0719  0.0349 -0.0781
41136W        W84127   4.246  34.217   1.781  0.2441 -0.2290  0.3281
41137W        W84128  16.610  22.280  15.395 -0.0075 -0.0832  0.1777
41138W        W84129  34.680  23.365   5.984  0.0040  0.3743 -0.2784
41139W        W84130   6.821  23.814  23.974 -0.0502  0.2020 -0.3119
41140W        W84131  33.902  15.185  21.482 -0.4786  0.0414  0.1336
41141W        W84132  34.620  17.581  19.463 -0.2216 -0.0143 -0.0845
41142W        W84133   9.728  11.528  28.144  0.3062 -0.1458 -0.2138
41143W        W84134   2.576  19.914   9.246  0.1444  0.0676  0.0700
41144W        W84135  31.374   3.271   4.361 -0.0016  0.3105  0.0034
41145W        W84136  22.997  22.940  28.421 -0.1081 -0.1210 -0.4514
41146W        W84137   1.949  32.561  15.104  0.0359  0.2758 -0.0256
41147W        W84138   9.458  16.472  18.536 -0.1775  0.0939 -0.4942
41148W        W84139  15.852  29.480   4.453  0.0722  0.0280 -0.6665
41149W        W84140  17.364  22.221   0.397 -0.6368 -0.0421  0.2668
41150W        W84141  20.189  29.654  20.870  0.0119 -0.2454 -0.0987
41151W        W84142  10.171  27.426   0.925 -0.0346  0.0856 -0.1525
41152W        W84143  28.178  29.416  28.736  0.0540  0.1742  0.2498
41153W        W84144  22.738  21.842   5.966  0.0436  0.1066 -0.1515
41154W        W84145  24.543   1.312   3.500 -0.1329  0.3370 -0.1124
41155W        W84146  22.766  14.351  13.830  0.1271  0.0726  0.1653
41156W        W84147  23.575  21.381  12.302  0.0349 -0.0028  0.0550
41157W        W84148   3.468  32.578  13.961  0.1335  0.0962 -0.3512
41158W        W84149  34.271  11.604  25.858  0.0895 -0.3069 -0.2526
41159W        W84150  31.988   2.972  24.007 -0.1808 -0.1508  0.0647
41160W        W84151  25.969  12.863  19.255 -0.0454 -0.3038 -0.0535
41161W        W84152  31.670  10.914   0.781  0.1019  0.1296  0.1718
41162W        W84153  31.070   2.602  23.653  0.0059  0.1543  0.1112
41163W        W84154   5.991  13.502  22.990 -0.1547  0.1278  0.2350
41164W        W84155  18.841   1.979  15.425 -0.2720 -0.0379  0.0185
41165W        W84156  24.397  16.425  20.789 -0.0376 -0.1009 -0.1833
41166W        W84157  17.172  11.997  19.701  0.0353  0.0228 -0.0485
41167W        W84158  34.789   5.445  25.056  0.1134 -0.0812  0.0762
41168W        W84159  27.118  20.252   8.509 -0.0668  0.0587  0.0680
41169W        W84160  33.650  34.109  19.120  0.1862  0.1527 -0.1366
41170W        W84161   1.253   5.166  27.418  0.0559 -0.2030  0.0739
41171W        W84162  18.371  28.094   5.948  0.1027  0.0620  0.0956
41172W        W84163  30.044   4.905  24.165 -0.1448 -0.3907  0.2921
41173W        W84164  33.897   2.060  21.340  0.1589  0.0920 -0.0637
41174W        W84165  25.596   7.187  18.401 -0.0384 -0.0565  0.1671
41175W        W84166   9.542  27.534  16.734 -0.2002  0.5739 -0.1759
41176W        W84167  34.052  27.622   4.292  0.0071  0.1029  0.0581
41177W        W84168  12.310  23.788  22.003 -0.1961  0.0103  0.1790
41178W        W84169   5.179  17.957  20.794  0.0140  0.0864  0.1701
41179W        W84170  24.390   2.252  17.792 -0.3132  0.0117 -0.3912
41180W        W84171   3.044   6.925   8.493 -0.2451 -0.1853  0.1002
41181W        W84172  28.526  28.742  20.725  0.0626  0.0239  0.0798
41182W        W84173  28.971  10.638  19.039 -0.1484 -0.3426  0.3114
41183W        W84174   4.666  19.790  25.907 -0.1356  0.0372 -0.0138
41184W        W84175  17.847   7.222  14.610  0.4455 -0.0317  0.0431
41185W        W84176  17.244   9.579  25.867 -0.1006  0.0700  0.2670
41186W        W84177  34.105  17.571  28.568 -0.1903  0.0587  0.0264
41187W        W84178  14.365   0.436  16.790  0.2053  0.0213  0.1682
41188W        W84179   6.811   2.752  20.838  0.1352 -0.2465  0.1416
41189W        W84180  17.691  24.706  19.771  0.1036  0.3131  0.1756
41190W        W84181  30.323  22.467  19.088 -0.0351 -0.0876  0.0716
41191W        W84182  26.659   7.864  28.363  0.1490  0.0610  0.1611
41192W        W84183  18.023  18.405   1.549 -0.0393  0.1583  0.1175
41193W        W84184  32.973   7.308  27.258 -0.2518  0.0244 -0.2265
41194W        W84185  21.509  20.784   7.130 -0.1789  0.1314  0.2557
41195W        W84186  26.901  14.929  16.850 -0.0508  0.1279 -0.1355
41196W        W84187  31.125  17.436  25.575  0.1730  0.3084  0.1115
41197W        W84188   0.070  31.647  26.102  0.1778  0.1718  0.4609
41198W        W84189  20.482  29.752  28.604 -0.1258 -0.1369  0.0693
41199W        W84190   3.026  21.643   8.458  0.0327  0.1683  0.0307
41200W        W84191  24.288  27.720  18.443  0.3157  0.0920 -0.0172
41201W        W84192   2.095  24.848  16.726  0.2120  0.0065  0.1445
41202W        W84193  22.579  28.379  29.001 -0.0641  0.1608 -0.1790
41203W        W84194  13.030  12.006  16.364  0.0850 -0.0438 -0.3009
41204W        W84195  27.159  10.697  28.593 -0.0696 -0.2269 -0.2155
41205W        W84196  28.341  27.574  27.266  0.0401 -0.1330 -0.0058
41206W        W84197   0.366  31.721  24.767 -0.0513  0.1593 -0.1689
41207W        W84198  13.531  34.488  15.383 -0.2105 -0.1298 -0.0621
41208W        W84199  24.980  33.108  14.149 -0.2340 -0.2864  0.0522
41209W        W84200  28.872  15.256  21.344 -0.1875  0.2813  0.3346
41210W        W84201  25.015  25.333  14.286  0.1831 -0.1976 -0.0544
41211W        W84202  27.553  18.848  21.491 -0.4003  0.2190 -0.0576
41212W        W84203  23.966  26.411  19.093  0.2602 -0.2475  0.1526
41213W        W84204  27.335  26.736  18.013  0.0861  0.2104 -0.0667
41214W        W84205  23.425   7.298  27.322  0.0507  0.1296 -0.1083
41215W        W84206   5.599   8.530  20.906 -0.3566  0.1221  0.0586
41216W        W84207  13.370  18.665  15.720 -0.2713 -0.0031  0.0455
41217W        W84208   6.688  11.737  25.952  0.1967 -0.0758  0.0519
41218W        W84209  18.790   8.108  16.509  0.3596 -0.2054  0.2504
41219W        W84210   3.257  25.960  25.157  0.0233  0.1173  0.1276
41220W        W84211   0.289  21.274   0.836  0.2422  0.1454  0.2612
41221W        W84212  11.545  23.476  23.725 -0.3728  0.0085 -0.1651
41222W        W84213  10.128   4.233  23.905 -0.1101  0.0492 -0.0468
41223W        W84214  32.137  21.137  16.152 -0.0792  0.1718  0.0490
41224W        W84215   1.764  24.461  19.673  0.1755 -0.2919 -0.1596
41225W        W84216  30.343  28.530   1.564 -0.0141 -0.1046 -0.1782
41226W        W84217  17.753   9.819   3.132  0.0675  0.1475 -0.0043
41227W        W84218   1.416  29.219  21.022  0.1353  0.2189 -0.0959
41228W        W84219   6.501  20.055  24.540 -0.0447  0.0768  0.1095
41229W        W84220  29.384  27.438  13.689 -0.0682  0.0213 -0.1987
41230W        W84221  23.222   1.314  15.465 -0.0475  0.1101 -0.4651
41231W        W84222   4.352  20.233  22.606 -0.4264  0.1437 -0.0425
41232W        W84223  34.654  24.542   0.646  0.0728 -0.3048 -0.1640
41233W        W84224   3.652  29.815   1.591 -0.0535 -0.1485  0.2306
41234W        W84225  18.405  14.468  27.166  0.0137  0.0003  0.2406
41235W        W84226  29.993  22.598  24.626  0.0304  0.2442 -0.0726
41236W        W84227   3.896  26.802  18.974 -0.2091 -0.0381 -0.1418
41237W        W84228  30.015  20.594  26.858  0.0998 -0.0488  0.0631
41238W        W84229  16.159   2.477  17.810  0.0044 -0.2519 -0.2324
41239W        W84230  23.441   7.936   2.804  0.6637 -0.1666 -0.2462
41240W        W84231   3.095  20.333  24.953 -0.1890  0.1188 -0.2462
41241W        W84232   0.494  24.275   9.149  0.0119 -0.4318  0.3565
41242W        W84233  22.533  28.743  14.422  0.0194 -0.0178  0.0656
41243W        W84234   6.806  22.322  23.349 -0.1717 -0.0444  0.0764
41244W        W84235  34.586  31.737  19.227 -0.2790  0.2297 -0.0929
41245W        W84236  10.517  23.808  28.611 -0.0767 -0.1550 -0.2134
41246W        W84237   0.389  20.932  21.923 -0.0549 -0.1277 -0.0256
41247W        W84238  25.208  13.134  27.980  0.5608  0.0094 -0.0849
41248W        W84239  29.865  24.873  25.030 -0.2197  0.4408 -0.2126
41249W        W84240  27.452  20.601  27.543  0.3061  0.1194 -0.2103
41250W        W84241  20.234  33.524   5.059 -0.2233  0.0396  0.0007
41251W        W84242  16.514  30.037  18.049  0.1509  0.0814 -0.3212
41252W        W84243  12.744  33.224   0.295  0.3961  0.0537 -0.1133
41253W        W84244  24.172  25.472  27.087 -0.2592 -0.0851 -0.3462
41254W        W84245  29.167  32.243  16.508  0.1283  0.0847 -0.1357
41255W        W84246  31.892  15.596  18.312 -0.0590 -0.0428 -0.2965
41256W        W84247  22.451  20.826   0.987  0.0430  0.0215 -0.0334
41257W        W84248   4.974  22.222  23.275 -0.1043  0.0024  0.1574
41258W        W84249  24.970  34.335  19.995 -0.2231  0.0721  0.3243
41259W        W84250  20.062  13.180   2.070  0.4497  0.3332 -0.1450
41260W        W84251  25.457  32.473  18.960  0.0298 -0.0224 -0.0795
41261W        W84252   1.204  14.840  17.537 -0.1661 -0.2407  0.1046
41262W        W84253  23.056  15.299  16.885  0.1525  0.0427  0.1097
41263W        W84254   0.963  24.631  25.614 -0.1880  0.0125  0.0631
41264W        W84255  26.797   1.561  18.698 -0.1517 -0.1589 -0.0785
41265W        W84256   4.889  26.805   1.128  0.0870  0.0822  0.3055
41266W        W84257  32.044  19.147  20.843 -0.1045  0.2408 -0.1454
41267W        W84258  33.275  34.347  18.037  0.2314  0.2098 -0.1953
41268W        W84259   9.527   4.565   5.288 -0.0000 -0.1725  0.3969
41269W        W84260  16.165  20.925  12.933 -0.2459  0.3903 -0.1687
41270W        W84261  27.808   0.531  21.368 -0.0387  0.0640 -0.2230
41271W        W84262  21.959  10.701   2.575  0.0358  0.0076 -0.0624
41272W        W84263   7.690   4.805  26.824 -0.2710 -0.1125  0.0493
41273W        W84264  29.212   2.748  14.352 -0.1984 -0.0186 -0.1292
41274W        W84265  34.555  20.776   6.418  0.3797 -0.4381 -0.0439
41275W        W84266   5.290  21.337  18.129  0.1273  0.3920 -0.0848
41276W        W84267  30.027  21.619   4.487  0.0070 -0.1294 -0.2050
41277W        W84268   2.953  24.876   1.794  0.0939 -0.0535 -0.1204
41278W        W84269  26.805  11.222   2.059  0.1377  0.2286  0.0158
41279W        W84270  23.491  12.350  29.156 -0.1107 -0.1134 -0.0856
41280W        W84271  32.198  32.046   1.472 -0.0941 -0.1739  0.1464
41281W        W84272  32.579  33.323   4.126 -0.2226  0.0763  0.1275
41282W        W84273   6.586   0.727  27.350  0.2577  0.3379 -0.3102
41283W        W84274  24.296  18.598  28.625 -0.0174  0.0386 -0.0714
41284W        W84275  15.977  14.883   7.462 -0.0561 -0.3245  0.0426
41285W        W84276   9.484  25.636  23.572 -0.1739 -0.1702  0.2131
41286W        W84277  30.027  23.008  21.623  0.1261 -0.3021 -0.1102
41287W        W84278  30.687  33.866  24.934 -0.1005  0.0873  0.1023
41288W        W84279  34.522  27.523  26.591 -0.0039 -0.2260  0.2336
41289W        W84280  32.549  12.103  28.343 -0.0391 -0.1747  0.0424
41290W        W84281  11.926  26.184  16.892  0.2004 -0.4550  0.0087
41291W        W84282  34.305   0.373   9.316  0.0218 -0.2694 -0.1241
41292W        W84283  13.935  20.666  15.051 -0.3814  0.1344  0.0811
41293W        W84284  22.590  18.606  22.846  0.1279  0.3290 -0.1795
41294W        W84285   6.683  28.178   4.094  0.3373  0.0546 -0.1367
41295W        W84286   2.287   0.227  14.826 -0.3331 -0.2220  0.6117
41296W        W84287  26.479  15.762  28.016 -0.4143  0.1079  0.0328
41297W        W84288  16.876  28.321  14.532 -0.1821 -0.0356  0.0488
41298W        W84289  27.723   1.861  22.664  0.0852  0.0145 -0.1889
41299W        W84290  26.352  31.251  20.552 -0.1645 -0.1035 -0.1113
41300W        W84291  31.274  15.551  27.463  0.0506 -0.3900 -0.3630
41301W        W84292  26.649  12.471  21.295 -0.1472 -0.2430 -0.0223
41302W        W84293  23.106   2.454  17.970  0.0537  0.0863 -0.1284
41303W        W84294  30.165  22.539  15.490 -0.1236 -0.1042  0.1992
41304W        W84295  33.547  32.696  13.671 -0.0107  0.0563  0.0473
41305W        W84296   2.672  30.581  25.636  0.1454 -0.0638  0.1353
41306W        W84297   5.850  33.594   3.837  0.1285 -0.0743 -0.3995
41307W        W84298   0.150  23.167  16.632  0.1112  0.2104  0.0482
41308W        W84299  23.466  12.761  24.247  0.3257  0.1433 -0.1744
41309W        W84300  33.568  18.654  17.053  0.3511 -0.2851  0.0387
41310W        W84301  18.119   8.584  27.059 -0.0015  0.0151 -0.1908
41311W        W84302  28.713  23.065  20.694  0.0304 -0.1283  0.3302
41312W        W84303  28.515  15.711  15.658  0.0125  0.1373 -0.2130
41313W        W84304   6.988  31.057  15.459 -0.1766 -0.1766  0.1063
41314W        W84305  32.891  32.700  17.332 -0.1722 -0.0506  0.3419
41315W        W84306  32.886  27.545  16.847  0.0313  0.0186 -0.1242
41316W        W84307   2.216  30.991  27.406 -0.0713 -0.0250 -0.3734
41317W        W84308  25.301  23.937   4.768 -0.1664  0.0274  0.1336
41318W        W84309   4.456  14.589  17.160 -0.1204  0.0411  0.0832
41319W        W84310  29.221   9.022  27.086 -0.0360 -0.0560  0.2932
41320W        W84311  30.643  26.685  13.714 -0.3915  0.5362  0.3484
41321W        W84312  34.003  19.749  19.606 -0.1826  0.0026  0.2386
41322W        W84313  18.066   8.145   4.972  0.0465  0.1090 -0.1497
41323W        W84314  33.528  16.826  27.390 -0.3364 -0.1717 -0.3462
41324W        W84315  13.986  20.686   0.051 -0.0477 -0.0593 -0.0501
41325W        W84316   0.286  30.497  19.686  0.2540 -0.2674  0.0412
41326W        W84317  32.962  34.349   0.539 -0.1300 -0.0525 -0.4290
41327W        W84318  25.479  17.938   2.763  0.2006 -0.0252 -0.0359
41328W        W84319   4.362  30.565   3.723  0.2673  0.1394 -0.1828
41329W        W84320  34.363  23.243   9.621  0.0363 -0.2272  0.1463
41330W        W84321  25.669  14.756  17.694 -0.1359  0.2280  0.0363
41331W        W84322  33.371  30.525   2.288  0.0074 -0.1228  0.2092
41332W        W84323  14.364  15.939  25.144  0.3299  0.0867  0.3321
41333W        W84324   9.553   7.803  20.169 -0.2306 -0.0741 -0.0982
41334W        W84325   4.779  21.292  24.321 -0.0265 -0.2904  0.1865
41335W        W84326   6.669  19.572  16.602  0.1868 -0.1788  0.0446
41336W        W84327   8.828  11.608  21.421  0.0541 -0.0848  0.1559
41337W        W84328  30.629   6.300  25.026  0.1641  0.2168  0.0574
41338W        W84329  31.456  18.019  17.218 -0.0402  0.1860 -0.0124
41339W        W84330  27.666  21.311  25.769 -0.1157 -0.0495 -0.0528
41340W        W84331  20.339  25.585   1.754 -0.2713  0.3848  0.0482
41341W        W84332   2.765  32.862  18.885  0.0344 -0.0935 -0.0229
41342W        W84333  18.776   0.228  23.567 -0.0257  0.3935 -0.1650
41343W        W84334  20.920  22.853  25.156 -0.3539  0.4179 -0.1299
41344W        W84335  25.209  13.828  21.731 -0.2762 -0.3854  0.0597
41345W        W84336   1.897  28.567  14.735  0.1304 -0.0114  0.0040
41346W        W84337   2.526  28.823  23.482 -0.1993  0.2514 -0.0557
41347W        W84338  24.666  15.854   1.907 -0.1419 -0.1316 -0.1209
41348W        W84339  24.960  30.509   7.827  0.1119 -0.1665 -0.4396
41349W        W84340  32.119   6.664   6.865 -0.1407  0.3150  0.1871
41350W        W84341   5.913   2.683  18.241  0.0035  0.1038  0.2638
41351W        W84342  12.220  24.635  25.752  0.3227 -0.2175 -0.1720
41352W        W84343  19.150  30.042  19.884 -0.0372 -0.3853 -0.1831
41353W        W84344  32.986  10.593  18.896  0.0305 -0.3752 -0.3635
41354W        W84345  12.775  22.058  19.599 -0.0694  0.1608 -0.0808
41355W        W84346   4.618   2.143  23.208  0.0064  0.1649 -0.0832
41356W        W84347  33.946  10.245  28.374  0.0130 -0.0653 -0.1066
41357W        W84348  25.452  20.688  24.802 -0.0843  0.1493  0.0937
41358W        W84349  33.888  18.824  22.877  0.3796  0.0448  0.1071
41359W        W84350  29.901   7.193  19.089 -0.2929  0.3484  0.0619
41360W        W84351  30.324  10.533   4.166 -0.1719  0.1356  0.0201
41361W        W84352   9.064  31.119  23.385  0.2421 -0.1219  0.0917
41362W        W84353  18.075  31.716  16.733  0.0165  0.0359  0.0407
41363W        W84354  21.144  15.502   4.141  0.0370  0.4064 -0.0888
41364W        W84355  31.544   5.296  27.556 -0.0015  0.1196 -0.3202
41365W        W84356  30.021   7.268  27.370  0.3092  0.2568 -0.2033
41366W        W84357  31.613  21.706  24.186 -0.0986 -0.0781  0.0172
41367W        W84358   3.175  25.597  23.858 -0.0705  0.0978 -0.3093
41368W        W84359  21.838  22.042  16.516  0.0424  0.2339 -0.0620
41369W        W84360   8.689   9.966  23.004 -0.1539 -0.1107 -0.1579
41370W        W84361  24.531  23.400   2.796  0.1025  0.3705 -0.0975
41371W        W84362  19.510   0.061  19.773  0.2502 -0.3275 -0.0927
41372W        W84363   8.341  12.592   1.663  0.3928 -0.0103  0.5010
41373W        W84364   2.353  13.967  15.750 -0.2741  0.3287 -0.0102
41374W        W84365  29.986   5.436  15.683 -0.0118  0.1217 -0.1795
41375W        W84366  28.500  23.738  27.126 -0.1472 -0.3381  0.3307
41376W        W84367   4.202  20.817  18.027 -0.2420 -0.1099  0.1449
41377W        W84368  16.569   7.125  19.770 -0.0668 -0.0558  0.2164
41378W        W84369   0.810  26.979  22.578  0.1347 -0.0819 -0.1820
41379W        W84370  28.773  18.927   7.146  0.3200  0.0602 -0.3454
41380W        W84371  29.939  31.053   6.755  0.0895  0.1727 -0.2205
41381W        W84372  10.551  25.124  15.199 -0.1970 -0.3513 -0.2449
41382W        W84373  32.577  10.879   6.935  0.0490 -0.0539 -0.2092
41383W        W84374   9.607  33.470   7.368  0.0556 -0.0970 -0.0696
41384W        W84375  12.987  11.012   2.408  0.1345 -0.0965 -0.1874
41385W        W84376  34.420   1.218   1.267 -0.2791  0.1878  0.0107
41386W        W84377  23.832  33.655  17.417 -0.1329  0.0327  0.2320
41387W        W84378   7.478  26.907  27.196  0.2391 -0.1495 -0.0324
41388W        W84379  29.429  30.004  21.236  0.0303 -0.0973  0.1193
41389W        W84380   0.806  20.905  28.525  0.0200 -0.2592 -0.0971
41390W        W84381   1.308  24.673  28.723 -0.1340  0.1778  0.0445
41391W        W84382  24.655  34.382  20.952  0.2030 -0.1049 -0.1067
41392W        W84383   7.031  19.910  28.760  0.2184 -0.0010  0.1355
41393W        W84384  34.521  15.896  23.983 -0.0009  0.0821  0.2197
41394W        W84385  15.719   9.107   7.061 -0.1490  0.0380 -0.2260
41395W        W84386   2.829  28.672  16.016  0.1071  0.1275  0.0044
41396W        W84387   3.111  15.810  22.740 -0.1306 -0.0522  0.0274
41397W        W84388  23.106  24.981   8.775  0.2247 -0.1430 -0.0479
41398W        W84389  22.318  14.612   9.768  0.0347  0.0726  0.0665
41399W        W84390   7.005   2.493  18.326 -0.1797  0.0416 -0.1571
41400W        W84391  29.443   6.711   4.252 -0.0121  0.0600 -0.3169
41401W        W84392  32.554  12.226  15.535  0.1032 -0.1822 -0.0049
41402W        W84393  27.107  16.860  18.859  0.0676  0.2104  0.2284
41403W        W84394  19.336  22.169  21.280 -0.0697 -0.2873 -0.1897
41404W        W84395  32.360   7.441   2.124 -0.0171 -0.0561 -0.3432
41405W        W84396  16.379  22.099  13.962 -0.0197  0.1346 -0.1942
41406W        W84397  16.001  21.705  20.546 -0.2119 -0.1139  0.2225
41407W        W84398  19.721  14.442   6.368  0.1226 -0.1376 -0.0730
41408W        W84399   7.287  22.423  10.050 -0.0201 -0.0723 -0.0890
41409W        W84400  28.079  14.309  17.329  0.0387 -0.1145  0.0065
41410W        W84401  24.107   6.483  28.604  0.5343  0.0042 -0.0279
41411W        W84402  23.686  27.007  24.959  0.0935 -0.1850  0.1794
41412W        W84403  32.508  13.377  20.340 -0.1954 -0.4050  0.0630
41413W        W84404  22.923  19.237  13.334  0.0879  0.1401 -0.0517
41414W        W84405  34.472  23.654  22.989  0.0575  0.0500  0.0346
41415W        W84406  34.490  13.996   7.288  0.0494  0.0010  0.1367
41416W        W84407   0.249   6.928  21.366 -0.2973  0.0476  0.0627
41417W        W84408   0.475  31.461  18.806 -0.0622 -0.1232 -0.0003
41418W        W84409  25.880  20.332  17.984  0.0417 -0.0481  0.1094
41419W        W84410  30.022   1.785  17.199 -0.1247  0.1785 -0.0797
41420W        W84411  26.670   0.847  18.077  0.0486 -0.0319 -0.0995
41421W        W84412  30.204  30.913  26.213  0.1118  0.2150  0.2333
41422W        W84413  34.692   7.554  26.763 -0.2733  0.2403 -0.0611
41423W        W84414  22.929  27.199  20.931  0.2066  0.1018  0.2664
41424W        W84415  29.698  27.971   1.153  0.1178 -0.0383  0.3940
41425W        W84416  18.678  16.564   3.612 -0.1579  0.0927  0.0989
41426W        W84417  16.879   8.319  20.009  0.0281  0.2088  0.5024
41427W        W84418  17.517  16.263  25.114 -0.0487 -0.0331 -0.1793
41428W        W84419  11.733  11.501   3.110  0.2511  0.1201 -0.0641
41429W        W84420   2.191   5.500  17.917 -0.0669 -0.1344  0.0976
41430W        W84421   1.716  33.737   0.546 -0.1319 -0.0212  0.1189
41431W        W84422   2.752  24.654  28.034  0.1919 -0.1944 -0.2365
41432W        W84423  27.347  30.017   6.134 -0.2425  0.0915 -0.0919
41433W        W84424  17.708  11.052  29.179 -0.0815 -0.1018  0.4764
41434W        W84425   2.965  26.812  23.191 -0.1393  0.1978 -0.2052
41435W        W84426  23.564  26.882  28.139 -0.1880 -0.3568 -0.2116
41436W        W84427  29.342  10.126  28.983  0.1851  0.0921  0.1452
41437W        W84428  21.247  16.275  25.767 -0.0412  0.2286 -0.0045
41438W        W84429   1.362  24.624  16.042  0.0312  0.0129 -0.0368
41439W        W84430   3.069   6.338   5.208  0.0876  0.0605 -0.0136
41440W        W84431  26.818  21.045  23.000  0.1947  0.2735 -0.0168
41441W        W84432  29.351   0.361  23.253  0.0686 -0.0507 -0.0412
41442W        W84433  21.550   5.175  25.952  0.1059  0.0905 -0.0059
41443W        W84434  32.543   5.269   1.096  0.0119  0.2752  0.3522
41444W        W84435  32.265  33.413  19.968  0.4498 -0.0326  0.1432
41445W        W84436   7.787  15.231  23.924  0.2482  0.1931  0.2482
41446W        W84437  27.594  26.863  26.895 -0.1607  0.0835 -0.1823
41447W        W84438  28.880  25.602   4.383  0.2429  0.1693 -0.0380
41448W        W84439  23.590  20.944  19.358 -0.1973  0.0764  0.1376
41449W        W84440   3.512  18.735  24.036  0.1730  0.0233  0.1024
41450W        W84441   5.643  27.715  16.452 -0.1737 -0.1337 -0.0019
41451W        W84442  12.043  25.355  28.740 -0.2067 -0.1056  0.1867
41452W        W84443  28.025  15.265  26.347 -0.2813  0.0324  0.1408
41453W        W84444   6.369  17.057  15.349  0.1207  0.5434 -0.1850
41454W        W84445  15.904  21.849  26.687  0.0370  0.0692  0.2236
41455W        W84446   4.432  26.691  18.953 -0.4690  0.4049  0.2311
41456W        W84447  32.366  28.369  28.295 -0.1042  0.1600 -0.1399
41457W        W84448  14.230  25.031  24.047  0.0833  0.1634 -0.1357
41458W        W84449  34.120  24.354   4.603  0.2759 -0.1483  0.0046
41459W        W84450   3.132   7.757   4.615  0.1644 -0.1541  0.1824
41460W        W84451  18.174  26.722   7.232  0.0625 -0.0947 -0.1595
41461W        W84452   2.469  29.298  23.119 -0.0075  0.2765 -0.1178
41462W        W84453   8.589   2.726  25.129 -0.0605  0.3417 -0.0801
41463W        W84454  26.610  28.490   1.504 -0.5891  0.0165  0.0278
41464W        W84455  27.386  29.285  28.389  0.1090  0.4048  0.0487
41465W        W84456  21.563   0.253   3.819  0.4125  0.2368  0.4110
41466W        W84457  21.701  17.345  25.862 -0.0086 -0.0678 -0.0517
41467W        W84458   8.071  23.192  18.783 -0.1865 -0.0538  0.2057
41468W        W84459  14.775  23.409   3.917 -0.3192  0.1123 -0.0354
41469W        W84460  17.146  18.515  28.272  0.1082  0.0792 -0.0386
41470W        W84461  24.326   9.421  26.689 -0.0270 -0.0124  0.1169
41471W        W84462  16.160   8.234  27.892 -0.1419  0.1873  0.1478
41472W        W84463  31.038  18.908  14.815 -0.0333 -0.1552 -0.0978
41473W        W84464  27.643  30.635  21.718  0.2765  0.0691  0.2393
41474W        W84465  26.408  28.037   3.292  0.2494  0.0697  0.1723
41475W        W84466  34.636  13.203   5.130  0.1304  0.1044 -0.4428
41476W        W84467  33.886  16.262  19.850  0.1091 -0.2523  0.1285
41477W        W84468   1.303  15.994  29.253  0.1354 -0.0955  0.2912
41478W        W84469   1.634  12.445  22.562  0.1952  0.0932  0.0635
41479W        W84470   4.098  24.691   9.246 -0.3545  0.1641  0.2412
41480W        W84471  32.111  25.730   5.899  0.0833 -0.0787  0.1064
41481W        W84472  24.921  19.292  17.777  0.0237 -0.0465  0.1283
41482W        W84473  15.787  29.514  21.006 -0.1103 -0.1558 -0.2473
41483W        W84474  16.011  16.506   1.553  0.0961 -0.0858 -0.0894
41484W        W84475  26.241  18.493   0.283  0.0769  0.1049  0.4051
41485W        W84476  29.872  23.817   2.775  0.1211 -0.0454 -0.1773
41486W        W84477  32.814   4.528   1.955 -0.2707  0.3654 -0.1733
41487W        W84478  25.600   4.753  28.305  0.2865 -0.1317  0.1591
41488W        W84479  31.981  22.553   3.750  0.3974  0.0346 -0.1330
41489W        W84480  29.696  30.195  26.270 -0.0781  0.2781  0.4738
41490W        W84481  28.814  17.090  27.535  0.2422  0.1999  0.0984
41491W        W84482  29.201  12.779  15.702 -0.0113 -0.1462  0.0579
41492W        W84483   2.483  25.839  18.333 -0.1252  0.0893  0.2408
41493W        W84484  24.755  14.597  18.241  0.1291 -0.1634 -0.0028
41494W        W84485  16.187  29.543   2.539  0.0164 -0.1688  0.0083
41495W        W84486   2.473   3.564  21.342 -0.1545  0.0096  0.0254
41496W        W84487  21.912  28.087  23.731  0.0812  0.2059 -0.2412
41497W        W84488  25.234  16.215   1.310 -0.0123  0.4732 -0.0439
41498W        W84489   6.230  20.235  20.996  0.1532  0.1803 -0.2030
41499W        W84490   0.325  10.277   2.348  0.0824 -0.3233 -0.2868
41500W        W84491   2.881  10.736  21.467  0.2986 -0.0339 -0.0510
41501W        W84492   8.275  11.897   9.101 -0.1010 -0.3251 -0.0211
41502W        W84493  29.365  30.622  18.698  0.0358  0.1048  0.2799
41503W        W84494  31.158  30.042  15.825 -0.0067 -0.0853  0.2212
41504W        W84495  23.681  22.718  19.967  0.4312  0.1657 -0.0381
41505W        W84496   0.475   5.343   9.436 -0.0018 -0.0386 -0.0866
41506W        W84497   4.246  21.430   5.084 -0.2924 -0.1434 -0.3663
41507W        W84498  17.637  12.178  20.015  0.0661  0.2139 -0.0941
41508W        W84499   9.092  31.284   8.297  0.1025  0.1357 -0.1030
41509W        W84500  28.226  25.888  18.000  0.1558  0.0112 -0.0510
41510W        W84501  16.181  26.592  16.902  0.0433  0.3981  0.0680
41511W        W84502   7.786   2.076   8.828  0.0184 -0.0863  0.1460
41512W        W84503   6.533  16.560  27.113 -0.1050  0.2334  0.2611
41513W        W84504  29.425  25.112  15.358  0.4056 -0.0708  0.0237
41514W        W84505  10.054  24.622  19.328 -0.0626 -0.1799  0.1666
41515W        W84506   9.304  31.102  16.433  0.3132  0.0826  0.0698
41516W        W84507  22.739  23.480  18.244  0.1693  0.3522 -0.0809
41517W        W84508  16.030  22.340  27.304  0.2331 -0.1951 -0.1115
41518W        W84509  28.348  18.103   8.626  0.4939  0.2166  0.0103
41519W        W84510  21.830   3.342  17.222 -0.2794  0.2031 -0.1530
41520W        W84511   5.323  12.914  22.494  0.1974 -0.1310  0.0253
41521W        W84512  26.687  10.340  21.773 -0.0803  0.1604  0.2364
41522W        W84513   6.449   5.045  21.682  0.1092 -0.1784  0.3806
41523W        W84514  10.268  25.964  20.963 -0.0722 -0.0542  0.0585
41524W        W84515   6.478  24.790  24.590 -0.2716  0.2858  0.1588
41525W        W84516   0.470   3.049  21.284  0.2332  0.1729 -0.1201
41526W        W84517  12.255   3.093   7.066 -0.1316  0.0088 -0.1946
41527W        W84518  23.770  26.855  13.731 -0.0923 -0.0827  0.1356
41528W        W84519  15.189   6.411   4.172  0.1426  0.0725 -0.1435
41529W        W84520  15.718  16.864  27.105 -0.1491 -0.0242  0.0660
41530W        W84521  18.543  22.006  22.504  0.0328  0.2871  0.0064
41531W        W84522  26.718  29.942  12.708  0.0842 -0.4559 -0.1033
41532W        W84523  32.390  17.140  20.648 -0.0342 -0.1249  0.0187
41533W        W84524  20.036  17.173  23.494  0.2685 -0.2809 -0.0096
41534W        W84525  21.053  21.278  18.007  0.3961  0.1778  0.1949
41535W        W84526  29.008  26.952  14.768 -0.0242  0.3189 -0.0805
41536W        W84527  23.097  24.268  24.176  0.2463 -0.1262 -0.5562
41537W        W84528  25.214  30.461  28.677 -0.0481  0.1567  0.0408
41538W        W84529  27.319  34.429  26.029  0.1075 -0.1224 -0.1851
41539W        W84530  32.150  32.846   3.688  0.1318 -0.2985 -0.4936
41540W        W84531   7.221   7.534   7.699  0.0047  0.5055  0.1030
41541W        W84532   4.666  12.976  23.856 -0.1920  0.1823 -0.0478
41542W        W84533   6.920  30.926   5.091 -0.1199  0.0273  0.0056
41543W        W84534   3.189  22.321  24.505  0.0207 -0.0287  0.2184
41544W        W84535  25.842  22.877  14.893 -0.2900  0.1554 -0.0738
41545W        W84536  33.875   0.107  23.076  0.1977  0.0940 -0.1799
41546W        W84537  28.579   3.484  26.681  0.1601 -0.1055 -0.0052
41547W        W84538   0.845  23.885   7.337  0.2950 -0.0234 -0.0114
41548W        W84539  23.647  27.874   8.927  0.0058  0.1915 -0.1828
41549W        W84540   7.294  30.550   1.918 -0.2205 -0.2703 -0.2514
41550W        W84541  29.244  14.041  18.726  0.1422 -0.0200  0.0197
41551W        W84542   3.908  17.407  24.550  0.2365 -0.0878  0.0817
41552W        W84543  21.081   3.147  19.099 -0.1222 -0.1770  0.1819
41553W        W84544   3.218  30.520  23.956  0.1958  0.0991  0.1272
41554W        W84545  18.088  27.701  22.931  0.0715 -0.0989 -0.1506
41555W        W84546  27.830   4.950  15.206 -0.1508 -0.0967 -0.3292
41556W        W84547  33.117  27.755  14.930  0.0055  0.2903  0.1612
41557W        W84548   0.519  15.883   5.712  0.4623 -0.0758 -0.2480
41558W        W84549  15.038  15.609   2.369  0.4342 -0.1518  0.0147
41559W        W84550   6.257  26.424  19.327  0.0682  0.2897  0.0452
41560W        W84551  23.503  12.791  23.247  0.2207 -0.2233 -0.0942
41561W        W84552   0.087  19.935  27.349  0.0721  0.0601 -0.0726
41562W        W84553  34.652   0.382  23.619 -0.0846 -0.1505 -0.0152
41563W        W84554   9.764  22.454   6.549 -0.3439  0.0573  0.1145
41564W        W84555  34.078  14.744  28.103 -0.3816 -0.0285  0.1931
41565W        W84556  25.478  25.097  21.343  0.2445  0.2164 -0.1465
41566W        W84557   9.326  33.392  16.686  0.5698 -0.3374 -0.0976
41567W        W84558  17.680  13.199   1.921  0.2165 -0.3136 -0.2042
41568W        W84559  33.504   0.982  20.571 -0.1578  0.5298 -0.0432
41569W        W84560   5.441  20.808  15.934 -0.1647  0.0719 -0.0010
41570W        W84561  22.567  33.586   0.578 -0.3051  0.0589  0.0132
41571W        W84562  26.313  26.698   3.532 -0.0845  0.1303  0.0597
41572W        W84563  12.894  19.543   5.351  0.1174 -0.3548 -0.0734
41573W        W84564  30.522  26.855  26.832 -0.4145 -0.1173  0.1627
41574W        W84565  23.508  33.504  16.289 -0.3989 -0.0174  0.0981
41575W        W84566  26.676  16.930  17.073 -0.1409  0.0302  0.1702
41576W        W84567   9.842   6.642  15.814  0.2164  0.0129  0.0292
41577W        W84568  33.680  20.215   1.376  0.0255 -0.3401 -0.1924
41578W        W84569   2.281  26.910   8.473 -0.1580  0.1078 -0.1626
41579W        W84570  26.374  26.158  21.320 -0.0754 -0.2626 -0.0047
41580W        W84571  22.377  31.611  20.303  0.2794  0.1191  0.0052
41581W        W84572  27.867  24.645  21.321  0.0880  0.0333  0.3053
41582W        W84573  32.898  21.454   1.427  0.1496  0.3135  0.0449
41583W        W84574  32.860   2.100   5.113  0.0279  0.0174  0.2890
41584W        W84575   1.340  34.365  24.204  0.0426  0.2211  0.1714
41585W        W84576  28.692  28.270  23.742 -0.1682  0.0118 -0.1303
41586W        W84577  33.415  27.882  22.204 -0.3411  0.4119  0.1424
41587W        W84578  19.126  31.040  22.040 -0.0641 -0.1542 -0.0444
41588W        W84579  26.973  20.488   5.601  0.3913 -0.2824  0.4150
41589W        W84580  27.510   2.948  22.486  0.1911 -0.1407 -0.0684
41590W        W84581  34.576  14.797   1.504 -0.3566  0.3940 -0.1495
41591W        W84582  23.526  28.510  25.134 -0.0218 -0.0903 -0.4104
41592W        W84583   4.607  22.276  19.126  0.2946 -0.0941 -0.0046
41593W        W84584   3.169  27.258   5.235 -0.0066 -0.2081 -0.2906
41594W        W84585   6.362  27.178  16.000 -0.2219 -0.1622 -0.2211
41595W        W84586   3.961   8.495  20.589  0.2310 -0.0066  0.0825
41596W        W84587   2.665  25.419  24.643 -0.0036 -0.2019  0.0313
41597W        W84588  32.392  27.786  28.613  0.2233  0.1503  0.2095
41598W        W84589  11.509  24.834  16.274 -0.2842 -0.0648 -0.2170
41599W        W84590  13.218  19.448   8.158  0.0044  0.2435 -0.2635
41600W        W84591  27.126  25.017   0.599  0.0779  0.0093 -0.0261
41601W        W84592  26.235  11.681  16.578  0.0285 -0.2483  0.2115
41602W        W84593   9.129  11.193   9.022  0.4299  0.1267  0.1519
41603W        W84594  28.312   0.153  25.760 -0.1978  0.0077  0.0490
41604W        W84595  31.376  31.075   1.736 -0.2227  0.1830 -0.3035
41605W        W84596  30.376   5.902   7.776  0.1103 -0.3207 -0.0367
41606W        W84597  34.389  28.531  13.978  0.0924  0.2768  0.0682
41607W        W84598  23.754   2.563  24.472  0.1102 -0.4245 -0.2562
41608W        W84599  24.645  19.343   8.903 -0.0694  0.1864  0.0103
41609W        W84600  30.049  18.460  26.130  0.0078  0.1229 -0.0373
41610W        W84601  32.215  12.913  20.250 -0.0094  0.0016 -0.0889
41611W        W84602  30.368  27.959  25.279  0.3182  0.1424  0.0085
41612W        W84603   0.295  22.218   4.534  0.0421  0.2358 -0.0852
41613W        W84604  10.739  27.042   7.334  0.2141 -0.0547 -0.0335
41614W        W84605  23.548  19.143   4.734 -0.0057 -0.2164 -0.2823
41615W        W84606  22.947  14.703  27.895  0.1218  0.2065  0.0139
41616W        W84607  33.014   4.836   4.381  0.0378 -0.0983 -0.3782
41617W        W84608   2.314  27.703  27.477  0.0454  0.0087  0.1351
41618W        W84609  27.430  16.399  17.149  0.1362  0.0870 -0.0499
41619W        W84610  27.544   1.303  25.326 -0.0438 -0.0730 -0.3268
41620W        W84611   1.585   4.637  19.588  0.1212  0.0493 -0.1150
41621W        W84612   7.925  19.285  27.319  0.2807 -0.1329  0.0072
41622W        W84613   3.969  24.541   5.196  0.3260 -0.0792 -0.2923
41623W        W84614  18.150  19.851  24.750 -0.0917  0.0946  0.0432
41624W        W84615   3.854  24.286  26.906  0.0547 -0.3012  0.0101
41625W        W84616  14.588  19.510  13.639 -0.3757  0.3869  0.2129
41626W        W84617  11.713   6.482  24.755 -0.0589  0.0887  0.1207
41627W        W84618  31.873  23.649   2.935  0.3497  0.1297  0.1066
41628W        W84619  33.823  10.189  15.229  0.0121 -0.3284 -0.0775
41629W        W84620  24.642  29.766   5.403  0.0492  0.0566  0.1983
41630W        W84621   9.411  32.819  24.231 -0.2199 -0.0096 -0.2646
41631W        W84622  14.574  14.791  28.794 -0.3384  0.2408  0.1368
41632W        W84623  21.875  28.924  15.030 -0.2099  0.2248  0.4432
41633W        W84624  24.145  21.231  14.088 -0.2990  0.2877 -0.1026
41634W        W84625  25.291  14.509  22.091  0.3893 -0.1082  0.2019
41635W        W84626   7.868  22.044   1.666 -0.0520  0.1466  0.0708
41636W        W84627  14.985  32.666   6.694 -0.1209 -0.3383  0.0239
41637W        W84628  24.007  19.893  15.777  0.2609 -0.0810  0.0138
41638W        W84629   4.803  18.860  17.392  0.0971 -0.1623 -0.0302
41639W        W84630  33.616  10.583   7.805 -0.1826  0.1173  0.0127
41640W        W84631  33.031  14.530   2.059  0.1001  0.1928  0.4170
41641W        W84632  25.545  34.319  27.961  0.0454 -0.0883 -0.0306
41642W        W84633  32.052  24.881  14.840 -0.0028  0.2151  0.0901
41643W        W84634   6.929  22.853   8.601  0.0156 -0.1035 -0.1546
41644W        W84635   2.661  18.400   3.475  0.2102 -0.0066  0.3703
41645W        W84636   1.195  22.616   5.770  0.2448 -0.2217 -0.0469
41646W        W84637  28.397   6.289   3.415 -0.1944 -0.0771 -0.1110
41647W        W84638  29.052  19.344  27.338  0.0820 -0.0474 -0.2474
41648W        W84639  27.300  27.856  23.797  0.0183  0.1459 -0.3033
41649W        W84640  25.231  31.305   6.421  0.2490  0.3493  0.0254
41650W        W84641   2.719   0.242  23.679  0.1436 -0.1270 -0.2736
41651W        W84642   2.699  27.735  21.588  0.1102  0.1074  0.1763
41652W        W84643  25.059  20.116  15.993  0.1060 -0.2168  0.0492
41653W        W84644  17.048   0.497   6.684 -0.1184 -0.1104  0.0434
41654W        W84645  26.416  27.640  16.038  0.1096  0.0657  0.0834
41655W        W84646  33.176  21.776  26.920  0.0897  0.1422  0.1286
41656W        W84647   3.256  13.388   1.181  0.1415  0.1237  0.0161
41657W        W84648  31.644  24.954  17.462  0.2517  0.0756  0.0570
41658W        W84649   2.107  25.227   1.750 -0.1816 -0.1400  0.1415
41659W        W84650  10.108  25.081  26.768 -0.1452  0.0088  0.1751
41660W        W84651  25.631  21.593  21.776 -0.2528  0.1221  0.0623
41661W        W84652   4.469   1.188  19.289 -0.1848 -0.1693 -0.3350
41662W        W84653  26.362  16.453  25.044  0.1695 -0.1350  0.2657
41663W        W84654  20.726  14.398  23.377 -0.2247 -0.1154  0.1830
41664W        W84655  25.386   8.505   5.308  0.1628  0.2320 -0.0206
41665W        W84656   2.669  22.447   0.478 -0.2738  0.2996 -0.2158
41666W        W84657   6.194  11.044   5.078  0.0411 -0.0404  0.3370
41667W        W84658  29.737  20.094   3.985  0.0407  0.1766 -0.1326
41668W        W84659  27.893  24.452  24.683 -0.1397  0.2041 -0.3602
41669W        W84660   0.637  18.032   4.667 -0.1847  0.1974 -0.1772
41670W        W84661   1.472  16.276  28.877 -0.3564  0.0043  0.0670
41671W        W84662   0.286  11.652   8.328 -0.0377 -0.0605 -0.2063
41672W        W84663   5.642  25.050  26.676 -0.2297  0.2123  0.1246
41673W        W84664   3.410   2.742  15.996  0.0517  0.1159  0.2502
41674W        W84665   2.305  23.838   1.618 -0.2358 -0.0425 -0.3414
41675W        W84666  15.563  17.593   5.750 -0.1392 -0.3538  0.0074
41676W        W84667   1.409  32.168  28.625  0.0985  0.3337 -0.1927
41677W        W84668   2.841  30.630  16.029  0.0525  0.1555 -0.0048
41678W        W84669   8.909  26.427  21.235  0.1366 -0.1652  0.0291
41679W        W84670  20.191  32.225  27.841 -0.0576  0.3327 -0.0475
41680W        W84671  26.329  22.415   5.453 -0.0240 -0.1311 -0.0284
41681W        W84672  10.449   9.466  14.429  0.0489 -0.1773  0.2117
41682W        W84673  33.338  24.853  15.064  0.2213 -0.1180 -0.2681
41683W        W84674  26.393  21.259  26.432  0.4439 -0.0024  0.1906
41684W        W84675   8.046  27.445  22.916  0.0367 -0.0178  0.0662
41685W        W84676  16.263  31.477   2.993  0.1498 -0.1938 -0.1110
41686W        W84677  21.780  20.001  24.208  0.4238 -0.0637 -0.0830
41687W        W84678   0.124  27.538  28.866 -0.2849  0.1672 -0.1647
41688W        W84679   1.555  23.748   8.295  0.1495  0.1003  0.2711
41689W        W84680  19.824  10.370   0.133  0.1388  0.1202 -0.0591
41690W        W84681  33.325  30.549   6.169 -0.0273 -0.2351  0.1624
41691W        W84682   3.826  25.668  23.243 -0.0645  0.0186  0.1706
41692W        W84683   4.508   7.594   0.866 -0.4076  0.0038  0.0834
41693W        W84684  21.375   5.784  25.074 -0.3174  0.2764  0.2868
41694W        W84685  27.540   8.660  24.263  0.2479  0.3205 -0.3295
41695W        W84686  29.570  34.720   7.057 -0.0020  0.4151  0.1550
41696W        W84687  29.061  34.662   2.540 -0.0330 -0.1988 -0.1597
41697W        W84688  34.680  24.610  20.846 -0.0677 -0.2084 -0.2784
41698W        W84689   6.035  23.790   7.343 -0.0816 -0.0423 -0.1254
41699W        W84690   4.163  27.401   3.665  0.1633  0.2576 -0.0357
41700W        W84691  20.717  14.418   1.712  0.2188  0.0360 -0.1137
41701W        W84692  13.341  16.596  27.675  0.3904  0.0427  0.1855
41702W        W84693  12.698   0.538   3.177 -0.0026 -0.1126 -0.2457
41703W        W84694  27.333  22.820   9.887 -0.2752 -0.2422  0.0748
41704W        W84695  18.628   5.652  15.095 -0.1061 -0.0582 -0.0377
41705W        W84696  29.716  12.058   6.451  0.0861 -0.2431 -0.0262
41706W        W84697  32.920  19.531   2.945  0.1990 -0.1761  0.1336
41707W        W84698  31.967   1.724  19.892  0.0195 -0.1491 -0.2186
41708W        W84699   7.266   5.716  26.926  0.1903  0.0974 -0.0214
41709W        W84700   3.576  23.462   3.299 -0.0682  0.0274 -0.2169
41710W        W84701  26.749  22.501  25.916 -0.2442 -0.4116 -0.1212
41711W        W84702  33.079  22.821  24.365  0.0884 -0.0183 -0.3244
41712W        W84703  16.982  13.239   7.517  0.1816  0.0690  0.4665
41713W        W84704   3.804  24.117   9.904 -0.0726  0.0355  0.1517
41714W        W84705   4.907  23.483  15.279 -0.1102  0.2733  0.1326
41715W        W84706  21.806   9.050   7.366 -0.0940  0.0445 -0.0669
41716W        W84707  23.004  23.160   8.907  0.1410 -0.1714  0.3147
41717W        W84708  30.181  14.994   8.584  0.1594  0.2849  0.0663
41718W        W84709   0.802   0.791  10.633 -0.0282 -0.0227  0.1424
41719W        W84710   8.119  19.459   9.321  0.2529  0.2922  0.2252
41720W        W84711   0.021  21.633  24.004  0.2276  0.0721  0.3344
41721W        W84712  20.724  16.676   2.004 -0.2900  0.0128  0.1438
41722W        W84713   4.952   5.589  25.841 -0.0222  0.0038 -0.2361
41723W        W84714   7.603  21.829   5.440  0.0878 -0.1566 -0.1867
41724W        W84715  33.123   4.073   8.500 -0.1286  0.1869  0.1809
41725W        W84716   3.940  34.077  16.878  0.0918  0.1812  0.0809
41726W        W84717  20.052  23.595   3.570  0.2859 -0.2650 -0.0298
41727W        W84718   5.472  18.367  28.131 -0.0768  0.1773  0.2078
41728W        W84719  15.383  20.949   7.805  0.1245  0.1138 -0.1795
41729W        W84720   6.655  21.944  28.941 -0.0826  0.0256 -0.2204
41730W        W84721   0.936  28.743  27.965  0.0229  0.2567 -0.1050
41731W        W84722   6.881  10.297   8.817  0.0930  0.2879  0.1384
41732W        W84723  30.913   8.265  29.108 -0.2479  0.0239 -0.1663
41733W        W84724  19.616  16.232  24.763  0.0546 -0.0415  0.2219
41734W        W84725  33.373  23.779  18.315  0.2499 -0.0390  0.0634
41735W        W84726  23.468  18.644   1.404 -0.0838 -0.0876  0.0211
41736W        W84727  31.110  22.964  19.719  0.1770  0.0305  0.0139
41737W        W84728   3.541  18.587  19.256  0.1164 -0.0390 -0.0336
41738W        W84729   4.651  19.004  21.392 -0.0456 -0.2828  0.1003
41739W        W84730   3.503  22.256  14.143 -0.1147 -0.0669  0.2363
41740W        W84731   9.872   3.018   7.994 -0.3800 -0.2293 -0.2895
41741W        W84732   7.126   1.817  27.557 -0.1185  0.1197 -0.0901
41742W        W84733  26.074  22.287   7.014  0.1075 -0.1801 -0.3416
41743W        W84734  27.283   7.961  26.359  0.2968  0.1116 -0.3472
41744W        W84735   4.362  28.161   6.633 -0.1062  0.0103 -0.0643
41745W        W84736   0.140   0.772   4.432 -0.2731  0.1281 -0.1391
41746W        W84737  16.628   2.013   0.913  0.4754 -0.0382  0.3552
41747W        W84738   1.703   2.806   7.668  0.2291  0.2767  0.3490
41748W        W84739  34.561  27.353   1.676 -0.0844 -0.0699 -0.0528
41749W        W84740  31.003  19.852   4.627  0.0044 -0.1473 -0.3634
41750W        W84741   0.844   5.251  16.385  0.1323  0.3727 -0.2026
41751W        W84742  22.830  15.711  28.898  0.3130  0.0519  0.0322
41752W        W84743  29.523  18.157   4.476 -0.2608 -0.0429 -0.1252
41753W        W84744   4.418  24.129   0.272 -0.2766  0.1085 -0.1591
41754W        W84745   1.123   8.883   5.290  0.1287  0.1254 -0.1621
41755W        W84746  21.365  18.942  13.104 -0.0592  0.0430 -0.3835
41756W        W84747  31.053   5.308  24.124  0.1404 -0.1234 -0.0276
41757W        W84748  31.171  25.136   0.659 -0.4229  0.0108 -0.0973
41758W        W84749  22.391   2.486  13.577  0.0232  0.0744 -0.1293
41759W        W84750  28.551   0.237  28.665 -0.3580  0.0589 -0.2094
41760W        W84751  10.644  20.951   9.126 -0.2219  0.2696  0.0538
41761W        W84752  19.172  11.897  16.353  0.1059  0.1843 -0.0074
41762W        W84753   3.495  30.908   2.627  0.1266  0.1257 -0.0693
41763W        W84754   1.917  18.464  15.455 -0.0082  0.0392 -0.1084
41764W        W84755  21.670  16.668   9.606  0.1332  0.3640  0.1515
41765W        W84756   2.637  22.464  27.122  0.0208  0.0686  0.1568
41766W        W84757  27.500  31.159   5.728 -0.0790  0.0737  0.0056
41767W        W84758  32.393   9.952   7.249 -0.1515  0.0423  0.3280
41768W        W84759  31.384  22.305   1.110 -0.2802 -0.0778  0.1211
41769W        W84760  31.362  14.793  27.242  0.0799 -0.4484 -0.1114
41770W        W84761  28.761  17.451   4.290  0.2759  0.0188 -0.1734
41771W        W84762  34.089  28.381  29.217 -0.0214 -0.2469 -0.0177
41772W        W84763  22.722   7.215   6.262 -0.3284 -0.3183 -0.1765
41773W        W84764  14.282  33.022  10.423 -0.2302 -0.1161  0.0565
41774W        W84765  26.589  25.606  25.110 -0.0711  0.0946 -0.2051
41775W        W84766  24.244  11.014  15.914 -0.1056 -0.0238  0.0440
41776W        W84767  18.218  34.047   8.565 -0.0684  0.2682  0.1935
41777W        W84768  19.941  21.454  20.980 -0.0338 -0.1535 -0.1145
41778W        W84769  14.084  16.478  27.984  0.0280 -0.1477 -0.1275
41779W        W84770   7.924  22.521   7.264 -0.0443  0.0786 -0.2435
41780W        W84771  23.278  14.042  27.043 -0.2860  0.2035  0.0069
41781W        W84772  25.439  19.294  20.654 -0.2547  0.2960 -0.0441
41782W        W84773  10.176  23.219  22.664 -0.1220 -0.1171  0.0173
41783W        W84774  25.423  26.827   2.027  0.1105 -0.2217 -0.0152
41784W        W84775   2.303  29.061  22.186  0.1925  0.1419 -0.4020
41785W        W84776   9.377  24.423   1.030  0.0306 -0.2612  0.2341
41786W        W84777  29.576  13.404  27.631 -0.2362 -0.0457  0.0909
41787W        W84778   0.775  32.093  22.794  0.0688  0.2217  0.1064
41788W        W84779  18.682  23.963   8.741  0.3614 -0.2594  0.0677
41789W        W84780  34.307  17.455  20.966 -0.1984 -0.2164 -0.1241
41790W        W84781   3.046  15.442   5.650 -0.4038 -0.0631 -0.3452
41791W        W84782  20.122   2.598   0.556 -0.0246 -0.0718 -0.0727
41792W        W84783  18.982  18.041   2.786 -0.1971  0.1542  0.3088
41793W        W84784   6.785  12.815  20.957  0.2646  0.1701 -0.1482
41794W        W84785  29.300  22.458   4.598 -0.1141 -0.0995 -0.1289
41795W        W84786  25.337  26.190  28.123 -0.0474 -0.0854  0.2081
41796W        W84787  25.076  33.044   0.707 -0.2629  0.1497  0.3884
41797W        W84788  18.019  27.414   8.108 -0.0687 -0.2910 -0.0946
41798W        W84789  29.428   7.076   2.921  0.2015 -0.1793  0.2481
41799W        W84790   6.057  33.635   0.604 -0.2033 -0.2939 -0.2030
41800W        W84791  10.948  15.212   6.769  0.0627 -0.0947 -0.0815
41801W        W84792   0.938  15.210   3.440  0.0716 -0.1757  0.2586
41802W        W84793   8.292  32.249  16.538 -0.2707  0.1183  0.4573
41803W        W84794  27.157  11.938  14.025  0.0650  0.0358  0.3612
41804W        W84795   6.858   4.587   2.101  0.0256 -0.0875 -0.0797
41805W        W84796   4.770  28.588  24.954 -0.0740 -0.1795 -0.0241
41806W        W84797  26.417  20.213  27.915 -0.2333 -0.0532  0.1540
41807W        W84798   2.436  17.305  28.887  0.3798  0.0913  0.2201
41808W        W84799  33.733  32.860   2.783 -0.2754  0.0733  0.1011
41809W        W84800  29.763  28.967   2.252 -0.1327 -0.3937 -0.1622
41810W        W84801  23.612  22.546   7.183 -0.3316 -0.4431  0.2872
41811W        W84802   5.706  16.335  18.292  0.0512 -0.0498 -0.0074
41812W        W84803  27.922  22.738  18.225  0.1224 -0.3445  0.1671
41813W        W84804  24.882  15.820  19.726 -0.0550 -0.1575 -0.1005
41814W        W84805  14.983  31.019   9.518  0.2658  0.2920 -0.0040
41815W        W84806   4.206  22.977   1.337  0.1084 -0.0780  0.2335
41816W        W84807   6.380   4.913  10.184 -0.1011  0.0706  0.1924
41817W        W84808  30.815  20.302   3.017  0.2397  0.4547  0.3368
41818W        W84809   2.256  26.132   4.771  0.1198 -0.0091 -0.2782
41819W        W84810   3.643  23.507  15.580  0.0603  0.3935  0.1139
41820W        W84811   2.492  33.245   2.734 -0.3068  0.0349 -0.1173
41821W        W84812  19.977  20.234   6.262 -0.2115 -0.0376  0.2561
41822W        W84813  30.883  25.660  16.263 -0.0255 -0.2829 -0.2060
41823W        W84814  29.551   7.082  15.582  0.0975  0.0099  0.1733
41824W        W84815  27.060  26.776   2.947 -0.0864 -0.3662  0.1277
41825W        W84816   3.632  25.569  20.555  0.2368 -0.0003  0.2149
41826W        W84817  34.745  18.200   2.858  0.0838 -0.0371  0.0154
41827W        W84818   8.700  13.298  25.308  0.4886 -0.1196  0.0822
41828W        W84819  16.352  15.935   4.828 -0.0080 -0.2054 -0.0281
41829W        W84820  20.343  18.711   8.766 -0.2927  0.0874  0.1646
41830W        W84821  22.934  16.096  16.404 -0.4587 -0.1276  0.2821
41831W        W84822  27.360   1.572   3.269  0.1098 -0.2029  0.0785
41832W        W84823   7.964  15.227   4.175 -0.2453  0.5389  0.1857
41833W        W84824  23.726   9.791   5.616 -0.0796  0.1233 -0.1995
41834W        W84825  26.375  34.168  21.296 -0.1943 -0.2562 -0.0558
41835W        W84826  34.138   0.772   1.858  0.1983 -0.0525 -0.1359
41836W        W84827  12.263  13.622  23.009  0.2043  0.1743  0.2257
41837W        W84828   6.855   1.686  23.592  0.2831 -0.2294 -0.0530
41838W        W84829  12.039  27.312   2.265  0.0610 -0.0811 -0.0351
41839W        W84830  26.059  25.177   8.653 -0.0022 -0.2943 -0.1760
41840W        W84831   6.695  33.203   7.670 -0.2228  0.2138  0.1490
41841W        W84832  27.628   7.720   1.465  0.0345  0.1039  0.3374
41842W        W84833   3.958  11.660   3.673 -0.1114 -0.1497 -0.0605
41843W        W84834  19.562   8.916   7.793  0.3992 -0.1550 -0.4179
41844W        W84835  30.928  27.704  28.928  0.0949  0.2105  0.1807
41845W        W84836  32.540  14.476   3.453 -0.0873 -0.2396 -0.0151
41846W        W84837   9.186  30.059   4.205  0.1877  0.2059  0.1307
41847W        W84838  31.518   8.903  29.074  0.0992  0.1053 -0.0831
41848W        W84839   8.286  12.019  24.911 -0.1238 -0.1005  0.0056
41849W        W84840   1.488  28.427   7.115 -0.0080  0.3301 -0.3111
41850W        W84841  21.901  19.611   8.388  0.3371  0.2232 -0.1374
41851W        W84842   4.076  19.410  19.168 -0.0041 -0.0896  0.3055
41852W        W84843  30.266   0.063   2.186 -0.1095 -0.1746  0.1806
41853W        W84844  12.341  24.047   1.662 -0.2362 -0.0928 -0.1516
41854W        W84845   7.168  23.599  26.105 -0.3865 -0.0310  0.1604
41855W        W84846  17.315  19.087  23.618  0.1409 -0.1464  0.0623
41856W        W84847  31.125   1.319   7.892  0.0274  0.1430 -0.2336
41857W        W84848  34.474  23.866  21.775  0.0079 -0.1238  0.0278
41858W        W84849   0.576   8.912   0.818 -0.2493 -0.0642 -0.2452
41859W        W84850   6.321  25.891  17.167  0.2773 -0.3000 -0.3060
41860W        W84851  29.635  31.461   5.602  0.1473 -0.0248 -0.1886
41861W        W84852  12.876  26.067  27.874  0.2439 -0.0157  0.1437
41862W        W84853   3.487   5.229   3.427 -0.0718  0.1964 -0.2627
41863W        W84854  28.141  31.007   6.254 -0.1891 -0.1069 -0.2130
41864W        W84855  34.786  31.161  16.853  0.2300  0.1042  0.2885
41865W        W84856  21.913  28.028   0.134  0.0498  0.1896 -0.0792
41866W        W84857  28.463  17.979  28.111 -0.0180 -0.1718  0.4172
41867W        W84858  33.453  25.705  15.171 -0.1470  0.1729 -0.0114
41868W        W84859   5.736  31.568  20.884 -0.1053 -0.1797 -0.2336
41869W        W84860   4.698  27.080  24.958 -0.2001 -0.1259  0.0110
41870W        W84861  25.675   9.546  26.118  0.0511 -0.0930  0.1072
41871W        W84862  33.375   3.169  23.818 -0.1994 -0.3956  0.4206
41872W        W84863  13.125   2.022   5.644  0.1459 -0.1019 -0.0791
41873W        W84864  11.342  21.683  23.183 -0.1535 -0.0248 -0.0204
41874W        W84865  33.340   0.004  14.239 -0.0425 -0.0799  0.1133
41875W        W84866  24.113  11.988  28.838 -0.2373 -0.0578 -0.2612
41876W        W84867   1.422  19.806   7.280 -0.1730 -0.0207  0.2166
41877W        W84868   7.546  22.463   6.083  0.1652 -0.0509  0.0488
41878W        W84869  24.976  24.499  26.289 -0.1143 -0.5079 -0.1478
41879W        W84870   0.854   0.337   9.393  0.0708  0.0048  0.2447
41880W        W84871   2.145   9.442  17.513 -0.0306 -0.0247 -0.1907
41881W        W84872   9.287  25.477  28.315  0.1920  0.1151 -0.0245
41882W        W84873  15.414   9.690   4.506 -0.1943  0.0734 -0.1777
41883W        W84874  29.754  27.753  24.602  0.0062 -0.1018 -0.0632
41884W        W84875  33.605  26.227   1.597  0.1550 -0.1143 -0.0229
41885W        W84876  29.385  13.798   8.467 -0.3668  0.1766 -0.1675
41886W        W84877  24.195  10.421  27.007  0.3069 -0.0376  0.2674
41887W        W84878  24.337  25.395  24.339  0.1223 -0.4348 -0.1125
41888W        W84879  23.197  22.620   3.159  0.3687  0.0608 -0.1686
41889W        W84880  32.376  16.799   4.613  0.1828  0.2659  0.1320
41890W        W84881  12.810  23.263  25.417  0.2034 -0.1009 -0.1584
41891W        W84882  18.887  17.511   4.406  0.2817  0.2143 -0.1804
41892W        W84883  14.604   1.953  23.350  0.0522 -0.0244 -0.1118
41893W        W84884   2.075   8.011  15.646 -0.1230 -0.2125  0.0782
41894W        W84885  33.903  19.485  15.701  0.1037  0.0700 -0.0385
41895W        W84886   3.190  27.407  21.432 -0.0569 -0.1557 -0.1810
41896W        W84887  31.566   5.094   2.252  0.2478  0.1057  0.2079
41897W        W84888  22.420  27.368  19.523  0.5005 -0.2223 -0.2317
41898W        W84889   9.424  25.603  26.816  0.0339  0.1338 -0.0526
41899W        W84890  15.983   6.466  24.605 -0.2549  0.0640  0.3216
41900W        W84891  20.855  33.312  25.079 -0.0270  0.0187  0.3668
41901W        W84892  21.493  34.275  14.548 -0.0977 -0.2391  0.0243
41902W        W84893   7.742   0.530  14.148  0.0123  0.0345  0.2004
41903W        W84894  26.261   7.267  24.928 -0.3657  0.2041 -0.0056
41904W        W84895  19.073  22.705  14.179 -0.0593  0.0087  0.0870
41905W        W84896   0.531  11.162  25.862 -0.0596  0.1178 -0.1016
41906W        W84897  20.443  22.472  18.323 -0.0796  0.1015 -0.2364
41907W        W84898  20.951  32.341  29.254  0.0258 -0.0509 -0.3243
41908W        W84899  26.823   0.724  16.909 -0.0008  0.1002 -0.1069
41909W        W84900  28.588  16.784  23.951 -0.1875 -0.3310 -0.0518
41910W        W84901   9.628  20.213  16.423 -0.0881 -0.1038  0.1325
41911W        W84902   2.039   2.590   3.376 -0.2026  0.0976  0.1071
41912W        W84903  25.477   5.162  13.675 -0.3171 -0.1432  0.1173
41913W        W84904  12.678   1.256  22.144 -0.0486 -0.2236  0.0774
41914W        W84905  16.242  20.058   4.505  0.0441  0.1570  0.1783
41915W        W84906  29.515  23.686  22.213  0.0718  0.0405 -0.3063
41916W        W84907   9.752  26.423   0.266  0.1948  0.0590  0.0582
41917W        W84908   2.064  19.891   3.615 -0.0776  0.3640 -0.1237
41918W        W84909  29.082  17.410  29.203 -0.1688 -0.0097 -0.1195
41919W        W84910   6.493   1.791  16.640 -0.0640 -0.2150  0.0978
41920W        W84911  32.678   0.979  18.866 -0.4635 -0.1238 -0.1316
41921W        W84912  34.799  30.471  15.907  0.0249 -0.2456 -0.0927
41922W        W84913   5.651   0.050  17.257 -0.0111 -0.3028  0.1141
41923W        W84914  28.193   5.715  15.501 -0.0576 -0.3149  0.1717
41924W        W84915  13.434  16.227  16.561  0.1878 -0.3236 -0.2584
41925W        W84916  31.060  27.900  16.638 -0.2917  0.2017  0.0248
41926W        W84917  20.558  31.341  23.376  0.0482 -0.1166  0.0289
41927W        W84918  30.203  27.946   1.375 -0.0511 -0.1122  0.0819
41928W        W84919   1.552  15.507   0.237 -0.0964  0.2273  0.1136
41929W        W84920  31.207  23.876  16.330 -0.0364 -0.1605  0.0043
41930W        W84921  30.565   1.415  23.115 -0.0477 -0.0366 -0.0847
41931W        W84922  28.779  33.211   8.465  0.1475 -0.1425 -0.3269
41932W        W84923  30.558  19.870  15.714 -0.1928  0.2527  0.4861
41933W        W84924  19.420   3.741  14.281  0.1466 -0.0181 -0.4005
41934W        W84925  25.071  29.974  14.057 -0.0485  0.0926 -0.2172
41935W        W84926   3.460  20.271  14.938 -0.0042 -0.3244  0.1103
41936W        W84927  26.953  32.429  24.007 -0.0872 -0.2169  0.1826
41937W        W84928  21.408  18.440  13.902 -0.1058  0.1928 -0.2367
41938W        W84929  23.393  28.028  16.885 -0.2274 -0.2180  0.0885
41939W        W84930   0.801  32.417   3.723  0.0193  0.3039 -0.0192
41940W        W84931  18.038   9.889  17.472 -0.1683  0.0644  0.1357
41941W        W84932  34.524   8.180   1.791  0.3559  0.1189 -0.0913
41942W        W84933  25.573   4.527  22.690 -0.2257 -0.1449  0.4003
41943W        W84934  14.162  21.564  15.250 -0.0498  0.2193  0.1716
41944W        W84935  30.418  29.600  23.794 -0.0647 -0.1890  0.0021
41945W        W84936  29.007   3.570  18.044  0.1763  0.1022 -0.1249
41946W        W84937  34.622   1.308  15.289 -0.0009  0.0199 -0.2899
41947W        W84938   1.442  27.207  24.246 -0.2255 -0.0821 -0.0700
41948W        W84939  12.355  24.203  20.150  0.0296  0.1677  0.2570
41949W        W84940  24.964  26.096  14.005  0.2375 -0.1230  0.0206
41950W        W84941  30.870  27.298  26.925  0.3718 -0.2157 -0.1299
41951W        W84942   2.092  29.510   1.863 -0.1012 -0.3099  0.0001
41952W        W84943  34.464   8.826  19.368  0.1081 -0.2221 -0.1881
41953W        W84944  27.196  30.371  20.472  0.2430  0.1697  0.0156
41954W        W84945  21.105  29.510  14.528 -0.1515 -0.3904  0.2861
41955W        W84946   3.079  27.957  13.544 -0.1704  0.3117  0.1640
41956W        W84947  13.645  34.321  18.319 -0.3373 -0.3519 -0.1354
41957W        W84948  32.934  28.795  19.090  0.3549 -0.1793 -0.1490
41958W        W84949  27.389  20.441  13.921 -0.0046  0.0885 -0.3575
41959W        W84950  30.178  22.516  21.639  0.2205 -0.2651 -0.1788
41960W        W84951  26.931  33.653  24.031  0.0589 -0.1336  0.1943
41961W        W84952  33.536   0.297  23.414  0.0698 -0.0499 -0.1029
41962W        W84953  30.010  32.092   3.652  0.1900  0.1357  0.0674
41963W        W84954  32.046   0.236  23.256  0.2012  0.1851 -0.1765
41964W        W84955  30.448  25.649  22.771 -0.2362 -0.0083  0.1047
41965W        W84956  33.063  15.672  18.546  0.3027 -0.1169 -0.1648
41966W        W84957   9.510  16.267  17.884 -0.0432  0.3426 -0.3360
41967W        W84958   6.881  22.741  18.286  0.2266  0.1221  0.0742
41968W        W84959   2.660  24.757  14.305 -0.1000 -0.5893 -0.1983
41969W        W84960  24.785  28.693  25.028 -0.1065  0.2010  0.2104
41970W        W84961  12.863  27.615  24.907  0.0345 -0.0344  0.1776
41971W        W84962   4.152  31.334  24.720  0.0361 -0.1922  0.0319
41972W        W84963  24.823  20.197  19.784 -0.2447 -0.0056 -0.1278
41973W        W84964  10.191   2.044   5.199  0.0874  0.3545  0.0717
41974W        W84965  34.047  21.053  24.432 -0.0132  0.3363  0.1092
41975W        W84966   5.001   6.042  23.740 -0.1553 -0.1735 -0.0056
41976W        W84967   0.720  24.421  17.789 -0.0430 -0.0271 -0.0663
41977W        W84968  31.961  24.048  15.369  0.0879  0.1641 -0.1179
41978W        W84969   1.350  16.720  16.504  0.2579 -0.1450 -0.0442
41979W        W84970  15.334  33.011  28.420 -0.3657  0.1687 -0.4329
41980W        W84971  34.151   9.852  19.994 -0.0620  0.0432 -0.3796
41981W        W84972   6.318  27.084  15.344  0.2477 -0.2109 -0.0730
41982W        W84973   1.147  24.856  14.694  0.3362 -0.0919  0.1153
41983W        W84974  23.610   5.261  14.405  0.1080  0.2728  0.0814
41984W        W84975  23.431  18.089   5.915  0.2151 -0.2375 -0.0912
41985W        W84976  19.433  11.956  18.131 -0.1115 -0.2318 -0.1879
41986W        W84977   0.231  17.822  20.622 -0.1105 -0.0720  0.2435
41987W        W84978  10.851  28.115   0.024 -0.0259 -0.0194  0.2335
41988W        W84979  21.135  26.934  25.930 -0.1698  0.0798  0.3359
41989W        W84980  24.300  28.675  19.270 -0.0947  0.0955  0.2003
41990W        W84981  10.776   7.669  21.272  0.1722 -0.1158 -0.1621
41991W        W84982   3.873  21.128  21.442  0.2677  0.3098  0.3345
41992W        W84983  25.183  13.377  16.586 -0.2490 -0.1607 -0.0667
41993W        W84984  21.578  27.505  19.556  0.0898 -0.2600  0.4807
41994W        W84985  18.230  27.515  15.219  0.3834  0.0124  0.4485
41995W        W84986  33.676   0.709  14.476  0.0534  0.0009  0.0265
41996W        W84987   5.035  10.098  21.451  0.0160 -0.0204  0.2816
41997W        W84988  26.963   4.007  22.562  0.1652 -0.0601  0.2404
41998W        W84989  24.156  34.534  19.612 -0.0991  0.2889  0.0066
41999W        W84990   9.034  27.052  17.950  0.0412 -0.1767 -0.3306
42000W        W84991   1.142   8.401  16.413  0.2385 -0.3593  0.1123
42001W        W84992  19.835  30.378  18.748 -0.3167  0.2198 -0.0463
42002W        W84993  28.362   1.482   0.251 -0.0498  0.2073  0.1162
42003W        W84994  31.105  19.290  17.125  0.0043 -0.3030  0.2533
42004W        W84995  30.810   0.390   4.409 -0.3897  0.2570 -0.2178
42005W        W84996  30.639  12.760  23.394 -0.0076 -0.3594  0.0018
42006W        W84997  33.005  25.465  19.046 -0.0360 -0.1936 -0.0263
42007W        W84998  30.150  29.352  15.603 -0.0664 -0.0111  0.3382
42008W        W84999  28.198  25.335  20.510  0.3634 -0.0138  0.4239
42009W        W85000  14.442  16.117  22.832  0.2030 -0.1125  0.1378
42010W        W85001  19.712  32.250  19.920 -0.1403 -0.1983  0.5000
42011W        W85002  30.632   0.734  17.995  0.1605  0.0733  0.0895
42012W        W85003  31.286  18.244  25.857 -0.0262  0.0645  0.2145
42013W        W85004  29.780  27.358  15.517 -0.2239 -0.0989 -0.3263
42014W        W85005  27.875  16.007  15.201 -0.0835  0.0908  0.2388
42015W        W85006  29.792  31.001  22.199 -0.0439 -0.0712  0.2190
42016W        W85007  20.795  25.576  25.577  0.1640 -0.1844 -0.1831
42017W        W85008  25.935  17.586  26.502  0.0756 -0.1011  0.0584
42018W        W85009   0.312  28.839  21.981  0.0469  0.1880  0.0048
42019W        W85010   4.578  14.548  20.141  0.0823  0.0982  0.2412
42020W        W85011  28.993   1.595   3.056 -0.1994  0.0037  0.0913
42021W        W85012  24.634  28.768  27.039  0.3086 -0.1689 -0.0648
42022W        W85013  33.992   1.966  23.721 -0.1308 -0.1165  0.1316
42023W        W85014  14.014   7.472   6.487 -0.1700  0.2909  0.0117
42024W        W85015  29.624  20.712  15.791  0.2374 -0.1133 -0.0409
42025W        W85016   4.931  27.896  17.491  0.0192 -0.2088 -0.1052
42026W        W85017  29.736   1.297  17.399  0.1973 -0.3365 -0.1167
42027W        W85018   6.513  33.399   0.371 -0.0737 -0.1587  0.0357
42028W        W85019  20.595   3.656  13.219  0.1595  0.2059 -0.0270
42029W        W85020  33.340  19.200  24.427 -0.2494 -0.0290 -0.1764
42030W        W85021  31.250  22.047  16.721  0.1249 -0.0606  0.3103
42031W        W85022  25.878   0.549  23.634 -0.1924 -0.0483  0.2004
42032W        W85023   8.988  18.043  15.808  0.1164 -0.0440 -0.2358
42033W        W85024  29.391  29.240  14.399  0.0295  0.3171  0.0020
42034W        W85025  33.872  12.476  19.306 -0.2848  0.2066  0.2371
42035W        W85026  28.475  26.215  19.066 -0.0716  0.1434  0.0321
42036W        W85027  26.692   4.026  15.961 -0.2128  0.3897  0.1371
42037W        W85028   3.557  29.408  21.489 -0.1225  0.1362 -0.0005
42038W        W85029  32.752  33.279  23.741  0.0321 -0.1173  0.0904
42039W        W85030  32.464  26.237  20.671  0.1029 -0.0996  0.0544
42040W        W85031  29.324  32.562  23.629  0.0472 -0.0036  0.2998
42041W        W85032  11.869  30.763  19.261  0.2161 -0.3101 -0.0154
42042W        W85033  33.013  26.646  19.871 -0.0348 -0.0915 -0.1318
42043W        W85034  10.255  25.637  17.723  0.0343 -0.0175  0.2059
42044W        W85035  28.867  23.130  26.432 -0.1245  0.0327 -0.0545
42045W        W85036  28.461  21.863   0.442  0.3586 -0.0756  0.0976
42046W        W85037  27.188   1.988  21.817 -0.2352 -0.0742  0.1688
42047W        W85038   2.489  26.801  22.986 -0.0454  0.1867 -0.2497
42048W        W85039   0.566  24.931  14.075  0.0794 -0.0417 -0.1812
42049W        W85040  29.026  29.728  21.640  0.3707  0.1877 -0.1307
42050W        W85041  32.461   0.576  13.306 -0.2630  0.1430  0.2007
42051W        W85042  13.170  34.586   1.613 -0.0765 -0.0474  0.0134
42052W        W85043   5.072  25.901  24.225  0.0819 -0.0487 -0.1242
42053W        W85044   9.076  23.817  17.908 -0.1518 -0.1657  0.2628
42054W        W85045  26.260   6.328  28.323 -0.0134 -0.1415  0.1335
42055W        W85046  17.080  31.085  18.800 -0.1115 -0.1356 -0.2022
42056W        W85047  28.509  28.885  14.845 -0.0305  0.3678  0.0392
42057W        W85048   7.302   0.455  14.424  0.0052 -0.0820  0.1668
42058W        W85049  26.393  24.677  20.592 -0.0543 -0.1912  0.1005
42059W        W85050   1.764  34.610  26.829 -0.0279 -0.6069  0.1962
42060W        W85051   4.186  27.120  17.671  0.0188 -0.0411  0.0970
42061W        W85052  31.487  21.045  17.360 -0.1073 -0.0170  0.0641
42062W        W85053   5.579  28.112  25.911 -0.2556 -0.0688  0.1415
42063W        W85054  19.118  26.668  15.714  0.1167 -0.4161 -0.1437
42064W        W85055  22.514  23.376  13.753  0.0483 -0.0855 -0.1502
42065W        W85056  29.504  31.594  25.300 -0.0907  0.3115 -0.2082
42066W        W85057  26.538  29.141  29.011  0.1967 -0.0667 -0.0053
42067W        W85058  16.300   8.753  27.166 -0.1690 -0.0748 -0.1324
42068W        W85059  26.537  34.284  13.508 -0.1845 -0.1103 -0.1573
42069W        W85060  32.763  24.910  20.239 -0.2237  0.0618 -0.0518
42070W        W85061  28.042   9.025  20.380  0.2395 -0.3837 -0.3622
42071W        W85062  25.541  28.541  19.152 -0.0890  0.1897  0.1440
42072W        W85063  32.297  23.030  22.156  0.1569 -0.1203 -0.0602
42073W        W85064   1.682  29.172  17.372  0.1155 -0.2365  0.0387
42074W        W85065  25.094  21.881  15.709 -0.4022 -0.0712  0.3066
42075W        W85066   6.336  17.238  23.236 -0.0070  0.1991  0.1535
42076W        W85067  19.512   3.706  22.726 -0.4919 -0.2004 -0.3009
42077W        W85068   0.856  34.533  21.440 -0.2082  0.1906  0.2230
42078W        W85069  34.285  15.303  27.198  0.3496 -0.1417 -0.2721
42079W        W85070  25.660  17.102  27.806  0.1890 -0.0249 -0.1395
42080W        W85071   8.198  29.647  19.427  0.0462  0.0070 -0.1878
42081W        W85072  12.167  31.137  26.604 -0.0857  0.0824 -0.0428
42082W        W85073  34.526  18.447  27.128  0.1505  0.0268 -0.0881
42083W        W85074  27.311  22.471  16.767 -0.1388 -0.0108 -0.4519
42084W        W85075  23.305  20.917  27.539  0.0387 -0.2110 -0.0083
42085W        W85076  29.874  24.683  23.363 -0.2656  0.0148 -0.0224
42086W        W85077  27.700   5.093   2.133 -0.0882  0.1020 -0.0247
42087W        W85078  26.061  33.382  21.832  0.4810  0.0112 -0.0955
42088W        W85079   5.344  23.313  15.029  0.4146  0.1391 -0.0584
42089W        W85080  25.811  26.293  24.963 -0.0552  0.1604 -0.4012
42090W        W85081  28.228   4.649  26.448 -0.4671 -0.1304  0.1735
42091W        W85082  21.036  25.566  24.304  0.1167 -0.0422 -0.2739
42092W        W85083  13.744  21.923  14.114  0.0914 -0.1371  0.2870
42093W        W85084  28.910  10.185  15.096  0.2141 -0.2741 -0.3115
42094W        W85085  33.340  32.885  23.735  0.2557  0.0855 -0.2038
42095W        W85086  22.727  34.564  20.536  0.0780 -0.0114  0.3803
42096W        W85087  33.131  30.872  15.872 -0.0240  0.0685  0.1329
42097W        W85088  29.427  19.776  14.990 -0.0944 -0.0687  0.2164
42098W        W85089   6.980  23.583   0.856 -0.1379  0.1886  0.1472
42099W        W85090  32.736  23.360  26.087  0.0194 -0.0426 -0.3291
42100W        W85091  20.138   3.810  17.260 -0.0647 -0.1113 -0.0056
42101W        W85092  33.769  30.441  23.156 -0.0164  0.0644  0.1137
42102W        W85093   1.588   2.637  21.804 -0.4368 -0.1081 -0.0986
42103W        W85094  24.947  18.303  26.052  0.2278  0.0396 -0.2636
42104W        W85095  20.774  31.597  17.979 -0.3019  0.1500  0.3677
42105W        W85096  26.293  15.025  25.348 -0.1463  0.0580  0.3291
42106W        W85097  22.537  21.210  15.527 -0.0837 -0.2548 -0.1903
42107W        W85098  23.437  19.942  22.713  0.2832  0.1462 -0.1384
42108W        W85099  22.185   0.834  20.360 -0.0943 -0.4801  0.2730
42109W        W85100  13.609  27.622  15.634 -0.2123  0.0716  0.0230
42110W        W85101  27.754   2.747  16.551 -0.1374  0.0465  0.0201
42111W        W85102  14.924  33.346  20.305 -0.0455  0.0916  0.1066
42112W        W85103  16.537  20.792  15.180  0.1348  0.0132  0.0160
42113W        W85104   7.172  16.061  22.823  0.2337  0.1773 -0.1714
42114W        W85105  26.694  25.231  17.040  0.2425 -0.0662 -0.1721
42115W        W85106  28.389  23.201  16.468  0.0340 -0.3517 -0.0312
42116W        W85107  23.255  10.381  24.454 -0.0087 -0.1146  0.0397
42117W        W85108   6.124  15.567  26.222  0.3323  0.1185  0.0249
42118W        W85109  18.911  15.055  25.019  0.3139  0.2956  0.1140
42119W        W85110   2.523  29.052  15.205 -0.1069  0.2143 -0.0891
42120W        W85111   5.928  26.300  28.299  0.0676 -0.0122  0.1847
42121W        W85112  10.000  26.262  17.165  0.1705 -0.0345  0.2756
42122W        W85113   2.534  34.020  25.942  0.1949  0.0674 -0.1956
42123W        W85114  10.046  30.805  20.421 -0.0902  0.1229  0.1749
42124W        W85115  20.334  31.819  14.646 -0.2835  0.0424  0.2615
42125W        W85116  33.753  14.234  25.936 -0.0171  0.1057 -0.1843
42126W        W85117   6.880  24.457  20.393  0.1091 -0.0858 -0.1443
42127W        W85118  34.067  14.309  28.333  0.1166  0.2925 -0.0413
42128W        W85119  20.199  15.577  12.734  0.1645 -0.0811 -0.1946
42129W        W85120  33.181  30.592  21.454 -0.3594  0.0288 -0.0446
42130W        W85121  30.948  17.317   1.905  0.2362 -0.1459 -0.0056
42131W        W85122  18.406  17.304  23.152 -0.0349 -0.1820  0.0647
42132W        W85123  33.539  25.531  20.306 -0.0970 -0.0011 -0.2668
42133W        W85124   4.303  32.599  24.890  0.0943  0.1989  0.1817
42134W        W85125  30.438  29.758  14.877 -0.1739  0.2659 -0.2979
42135W        W85126   4.564  20.954  17.595  0.1060 -0.1921  0.2920
42136W        W85127   0.782  32.871  22.431 -0.0858 -0.2093 -0.1259
42137W        W85128  32.663  14.339  16.833  0.3222  0.2816  0.1118
42138W        W85129  23.141   2.339  20.247  0.2308  0.2212 -0.0000
42139W        W85130  21.419  26.749  19.665 -0.2428 -0.0660 -0.1136
42140W        W85131   0.735  19.216  17.059 -0.1562  0.0322  0.2343
42141W        W85132  26.401  12.351  23.434 -0.3226  0.2715 -0.1588
42142W        W85133  23.352  31.495  19.310  0.0052  0.0172 -0.3401
42143W        W85134  29.115  27.403  23.493 -0.0744 -0.1827 -0.2582
42144W        W85135  20.960  25.566  19.575  0.0643 -0.2366  0.1531
42145W        W85136  33.025   7.278  16.125  0.2521  0.0118 -0.3871
42146W        W85137  34.358   3.921  26.189 -0.0099  0.3215  0.2804
42147W        W85138   1.310  32.916  15.701 -0.2706 -0.0936 -0.0863
42148W        W85139  23.151  17.943  17.203  0.2660 -0.1810 -0.0085
42149W        W85140   8.939  31.929  19.585  0.0905 -0.2028  0.3902
42150W        W85141   0.052  17.337  27.512  0.0768 -0.0894 -0.0951
42151W        W85142   4.780  16.847  17.374  0.0470  0.0947  0.0182
42152W        W85143  17.310  15.305  13.738 -0.0564 -0.0930  0.0001
42153W        W85144  23.094  31.034  18.628 -0.1642  0.1854 -0.2328
42154W        W85145  29.947  20.125  17.956 -0.0197 -0.1742  0.2107
42155W        W85146   6.627  26.800  23.645 -0.2335 -0.1671 -0.0337
42156W        W85147  11.347  29.198  17.602  0.2713 -0.0250  0.0621
42157W        W85148   9.214   2.570  19.910  0.2498  0.1617 -0.0456
42158W        W85149   0.657   6.056  17.772 -0.2490 -0.0449 -0.2519
42159W        W85150  10.809  20.720  20.700 -0.0622  0.4120 -0.2589
42160W        W85151  21.009  18.570  19.358  0.0036 -0.0672 -0.1433
42161W        W85152  31.528  15.945  16.842 -0.0258  0.3245 -0.0065
42162W        W85153   0.704   4.290  16.279  0.1126  0.0528  0.2690
42163W        W85154  13.657  32.015  18.709 -0.1888  0.3172 -0.3720
42164W        W85155   4.276  10.853  15.643 -0.1101 -0.1784 -0.2390
42165W        W85156  34.415  25.768  18.767  0.2331  0.0713 -0.0881
42166W        W85157  34.185  24.976  18.199 -0.2127 -0.3906 -0.0370
42167W        W85158  23.057   3.969  18.241 -0.2376 -0.1704  0.0363
42168W        W85159  14.248  33.233  15.093 -0.2267  0.0478 -0.3079
42169W        W85160   3.132  13.471  21.389 -0.2013  0.0055 -0.0108
42170W        W85161  30.845  14.870  17.338 -0.3076 -0.1634 -0.3193
42171W        W85162   1.309  24.377  19.469 -0.1037 -0.1906 -0.2238
42172W        W85163  28.832   6.899  21.162 -0.2206  0.1785  0.2829
42173W        W85164  24.209  18.807  20.397 -0.0003 -0.3796 -0.1784
42174W        W85165  29.168  27.660  17.393 -0.0254 -0.5722 -0.3273
42175W        W85166  11.631  29.468  22.164 -0.1356 -0.0319 -0.1233
42176W        W85167  20.668  27.023  24.984 -0.2961  0.2904  0.1247
42177W        W85168  32.093   2.792  14.960  0.1181 -0.1466  0.1231
42178W        W85169  22.065  18.098  21.009  0.1187  0.1075 -0.2407
42179W        W85170   8.220  25.213  14.333 -0.1481  0.0294  0.0614
42180W        W85171  17.069  24.920  21.071 -0.3293 -0.0787 -0.0464
42181W        W85172   6.785  27.229  19.263 -0.0199 -0.1462  0.3845
42182W        W85173   8.246  15.847  26.019 -0.1068 -0.4477 -0.1129
42183W        W85174  27.126  29.128   2.011 -0.0616  0.2751 -0.0850
42184W        W85175   1.237  19.449  16.308 -0.1068 -0.1992  0.0189
42185W        W85176   7.911  26.587  18.495 -0.3297  0.1355 -0.2264
42186W        W85177   1.934  23.965  18.910  0.0063 -0.2765  0.2583
42187W        W85178  24.682  21.061  19.568 -0.2379 -0.0300  0.1488
42188W        W85179  23.773  19.791  21.353 -0.5287  0.1067  0.1247
42189W        W85180  18.952  29.677  13.603  0.0520  0.1049 -0.0465
42190W        W85181  30.000   2.973  13.267 -0.0375  0.2235 -0.1266
42191W        W85182   0.034   3.277  23.810 -0.0797  0.0516 -0.0580
42192W        W85183  21.614  27.936  13.614 -0.1755 -0.2143  0.1032
42193W        W85184   1.780  23.170  17.134 -0.2329 -0.2472 -0.3608
42194W        W85185   4.969  22.401  18.791  0.0889 -0.2623  0.1200
42195W        W85186  32.974  21.648  14.146 -0.2966  0.0032 -0.1844
42196W        W85187   0.377  33.153  16.052  0.3064  0.2923  0.0703
42197W        W85188  20.268  16.240  15.952  0.2785 -0.0267 -0.1270
42198W        W85189  32.072  16.963  20.243  0.0360  0.0821  0.1434
42199W        W85190  23.222  27.687  14.770  0.3153 -0.0557  0.2063
42200W        W85191   1.309  27.908  13.751 -0.4943 -0.0516  0.1480
42201W        W85192   8.907  17.868  21.333 -0.1367  0.0274  0.1849
42202W        W85193  10.865  18.711  18.290  0.3048 -0.1358  0.0433
42203W        W85194  30.477   4.580  19.348 -0.0635  0.1686  0.2739
42204W        W85195  22.190   8.239  17.369 -0.0440  0.0402 -0.1254
42205W        W85196  28.746  23.668   0.857 -0.0414 -0.0502 -0.0554
42206W        W85197  34.559  25.413  20.224 -0.0225  0.0734  0.0038
42207W        W85198  15.768  26.251  14.290 -0.1998  0.0474  0.3056
42208W        W85199  32.039   7.551   4.258  0.1663 -0.0051 -0.1087
42209W        W85200   2.115  25.790  27.036  0.1139  0.0263 -0.1248
42210W        W85201  31.622  24.706  16.445 -0.0098  0.1214  0.2017
42211W        W85202  31.784   9.040  27.533 -0.1523  0.3032 -0.2504
42212W        W85203   3.012   3.704  28.186 -0.1010 -0.0183 -0.0161
42213W        W85204   9.013   2.380  16.114  0.1963 -0.2233 -0.1682
42214W        W85205  29.868  33.181  25.074 -0.0371 -0.2241 -0.3448
42215W        W85206  24.925  25.740  19.144 -0.2086 -0.3036 -0.1384
42216W        W85207  27.833  28.870   0.382  0.0547  0.1733  0.2775
42217W        W85208   0.299  23.385  29.046 -0.0613 -0.1145 -0.2977
42218W        W85209   2.170  19.761  25.337 -0.1972 -0.0170  0.0045
42219W        W85210   1.613  27.786  26.245 -0.0644  0.0793  0.2619
42220W        W85211  33.353  20.724  21.332 -0.0289  0.0923 -0.1643
42221W        W85212  30.762   2.359  15.831 -0.0885 -0.3073 -0.2643
42222W        W85213  29.790  20.614  21.716  0.0563  0.2403 -0.1648
42223W        W85214  28.337  34.731  26.952  0.1492 -0.1568 -0.1357
42224W        W85215  13.708  33.814  23.013  0.1631 -0.0515  0.0329
42225W        W85216  26.756  17.677  22.781 -0.2343  0.3935 -0.0063
42226W        W85217  27.608   3.207  16.273  0.0553  0.0762 -0.1427
42227W        W85218  25.944   9.567  16.581 -0.0693 -0.0709 -0.1029
42228W        W85219  17.998  19.068  23.170  0.0970  0.3151  0.1023
42229W        W85220  19.645   6.949  22.299 -0.1172  0.1090 -0.1301
42230W        W85221  27.332   8.169  24.754 -0.1977  0.0435  0.1594
42231W        W85222  10.191  21.599  21.022 -0.1368 -0.0494 -0.0173
42232W        W85223  20.997   8.719  16.946  0.0800 -0.0374  0.1294
42233W        W85224  16.791   8.756  10.183  0.2177 -0.2566 -0.2700
42234W        W85225  26.299  14.216  20.747  0.2435  0.1997 -0.2029
42235W        W85226  34.076  25.336  26.265 -0.2213 -0.0829  0.0475
42236W        W85227  12.842  27.667  22.417 -0.0765 -0.3163  0.2699
42237W        W85228  23.582  24.661  15.817  0.0515 -0.1895 -0.2233
42238W        W85229   1.953  26.386  23.729  0.2183 -0.1581 -0.0399
42239W        W85230   0.882  21.494  22.611  0.2990  0.1008 -0.3769
42240W        W85231   3.497  20.249  15.490 -0.1825 -0.0769  0.0217
42241W        W85232  24.702   1.927  16.897 -0.2983  0.0752  0.2309
42242W        W85233  16.850  11.364  20.178 -0.0404 -0.2490 -0.0130
42243W        W85234  21.466   5.245   0.073 -0.3680 -0.2781  0.3249
42244W        W85235  11.281  31.414  20.369  0.3274  0.0886  0.2353
42245W        W85236  31.182   5.282  22.333 -0.0200 -0.0669  0.2345
42246W        W85237  28.773  31.679  17.999 -0.0521  0.3666 -0.0970
42247W        W85238  15.874  18.665  13.039  0.1063 -0.1261 -0.1168
42248W        W85239   9.357  22.804  19.137  0.1190 -0.0936  0.0699
42249W        W85240   0.509   1.691  21.308  0.2003 -0.2946 -0.1593
42250W        W85241   8.077  17.753  20.370 -0.1790  0.0650  0.1604
42251W        W85242   3.142   6.570  23.789 -0.0523  0.1864  0.4599
42252W        W85243  27.853  25.244  15.219 -0.0959  0.1854 -0.0988
42253W        W85244  22.678  28.290   1.029  0.1894 -0.0438 -0.0186
42254W        W85245  15.655  22.496  13.608  0.0403 -0.0623  0.2210
42255W        W85246   4.851  13.766  24.243  0.1640  0.4492 -0.1815
42256W        W85247  28.326  28.899  28.617  0.1249 -0.0435  0.1319
42257W        W85248   0.872  31.731  14.570  0.0775 -0.0794  0.0605
42258W        W85249   7.035   1.991  18.341 -0.0047  0.2949  0.2401
42259W        W85250   0.931  18.390  23.022 -0.1786 -0.0460 -0.3333
42260W        W85251  25.657  17.316  21.993 -0.2613 -0.0545  0.0363
42261W        W85252  26.774  10.208  27.427 -0.0246  0.0835  0.0976
42262W        W85253  23.066   9.371  24.722 -0.0504  0.0614  0.3025
42263W        W85254  26.868   1.387   8.835  0.1003 -0.0398 -0.3149
42264W        W85255  29.366  23.565  17.454  0.3138 -0.1640 -0.1037
42265W        W85256  30.929   3.777  28.476  0.1940 -0.0982 -0.1076
42266W        W85257  25.057  31.658  21.720  0.0834 -0.3025  0.0818
42267W        W85258  29.560  23.975  28.651  0.0410  0.2701  0.0341
42268W        W85259  17.676  29.993  22.430  0.0157 -0.0441 -0.1077
42269W        W85260  27.224  25.517  16.206  0.2301 -0.1111 -0.0153
42270W        W85261  32.792  21.953  13.802 -0.0094  0.1484 -0.3445
42271W        W85262   4.046  12.472  20.466  0.0159  0.1792 -0.2928
42272W        W85263  32.793   9.780   0.684 -0.0267  0.2790 -0.1963
42273W        W85264   6.739  24.340  19.420 -0.0179  0.3263  0.3232
42274W        W85265  34.108  25.152  16.443 -0.3889 -0.2645 -0.1299
42275W        W85266  28.295  10.662   0.517 -0.1601  0.3332 -0.0755
42276W        W85267  27.884   6.223  22.013  0.2838  0.0639  0.0802
42277W        W85268  26.274  17.246   0.946  0.0350  0.4477  0.1698
42278W        W85269  24.609  27.807  18.893  0.0520 -0.1705  0.1288
42279W        W85270  33.420  21.738  14.324 -0.1254  0.2226  0.0187
42280W        W85271  32.328  29.416  22.897 -0.0181  0.0001  0.2473
42281W        W85272  32.456  28.613  24.421  0.4908  0.3629  0.0601
42282W        W85273  32.433  30.274  15.761  0.2252 -0.0109 -0.0578
42283W        W85274  25.509  33.320  22.862 -0.2893 -0.1018 -0.0957
42284W        W85275   3.094   4.930   1.541  0.0418 -0.4611  0.2005
42285W        W85276   2.559  31.749  16.174  0.1362 -0.0093  0.1057
42286W        W85277  34.621  34.635  16.223  0.1676 -0.3761 -0.2194
42287W        W85278  24.403  28.225  23.410 -0.1221 -0.1545  0.0529
42288W        W85279   1.887  31.703  21.688 -0.0156  0.2457  0.3362
42289W        W85280   2.435  26.576  24.727  0.0456  0.1658 -0.0246
42290W        W85281   8.674   6.600  14.495 -0.1200  0.2812  0.0099
42291W        W85282  34.528  28.099  25.215  0.0357  0.0178 -0.0617
42292W        W85283   7.376  33.457  16.694  0.1518  0.0237 -0.0493
42293W        W85284  32.307  28.992  15.182 -0.0228  0.3317 -0.0305
42294W        W85285  33.997   7.481  22.102 -0.2633 -0.3509 -0.0396
42295W        W85286   5.130  28.311  27.772 -0.0104  0.0724 -0.0123
42296W        W85287  16.594   7.859  20.211  0.0356 -0.2121 -0.1362
42297W        W85288   7.229   4.325  21.079 -0.0292  0.1671  0.0618
42298W        W85289  20.221  18.585  26.860  0.0904 -0.1728  0.0070
42299W        W85290  27.859  14.859  17.217 -0.0949  0.3121 -0.2014
42300W        W85291   7.692  27.663  22.028 -0.5628 -0.0956 -0.1196
42301W        W85292   0.838  28.248  18.165 -0.2279 -0.2127 -0.2232
42302W        W85293  26.468  21.245  25.933  0.1419 -0.0202 -0.2216
42303W        W85294  31.626  20.514  23.215 -0.1108  0.0270  0.0768
42304W        W85295   1.695   1.538   2.377 -0.0770 -0.0016  0.1173
42305W        W85296  18.851   8.252  26.667 -0.0475  0.2261 -0.1276
42306W        W85297   4.506  24.858  23.124 -0.3040  0.1232 -0.0469
42307W        W85298  18.891  23.955  16.728  0.0765 -0.0617 -0.1877
42308W        W85299  18.242  24.762  26.158 -0.0068  0.0613  0.1513
42309W        W85300   7.692  31.913  26.298 -0.0867 -0.0153 -0.3299
42310W        W85301   2.911  18.240  20.962  0.2514  0.1508  0.3701
42311W        W85302  28.288  22.892  21.491 -0.0250 -0.0386 -0.0663
42312W        W85303  26.393  25.152   2.964  0.4418 -0.0132  0.1914
42313W        W85304  29.878  21.228  18.129 -0.2788  0.1030 -0.0184
42314W        W85305  23.022  30.556  17.652  0.1063  0.0103  0.4667
42315W        W85306  11.846  21.220  18.718  0.0383 -0.0849 -0.3279
42316W        W85307  16.805  27.797   1.890  0.3013 -0.0750  0.0097
42317W        W85308   5.040   3.821  26.693 -0.4129  0.0761 -0.2397
42318W        W85309  32.701  20.859  19.003 -0.4542  0.1141 -0.3228
42319W        W85310  31.474  31.631  23.517  0.1957 -0.1573  0.0174
42320W        W85311  17.178  27.992  14.215  0.0533  0.3953 -0.1915
42321W        W85312  27.265   2.936  28.847 -0.2339  0.2186  0.0886
42322W        W85313  30.196  31.422  16.327  0.2071  0.0833 -0.3091
42323W        W85314  28.377   5.702  21.128  0.0526 -0.0762  0.4828
42324W        W85315  29.377  24.949  24.895 -0.0770 -0.0296  0.0537
42325W        W85316   2.084  23.359  25.938  0.0525  0.3881  0.2350
42326W        W85317  23.975  18.329  13.773 -0.1390  0.0107 -0.0266
42327W        W85318  30.694  32.448  20.215  0.1177 -0.3642 -0.1319
42328W        W85319   7.177  31.943  25.231 -0.0547 -0.2530  0.0471
42329W        W85320  27.042  25.505  26.819  0.3306  0.0157 -0.1686
42330W        W85321  23.393  14.542  20.415  0.2325  0.1388 -0.2563
42331W        W85322  28.038  32.489  12.859  0.1713 -0.0413  0.2340
42332W        W85323  31.799   3.017  13.651 -0.0128 -0.0152  0.2722
42333W        W85324   3.972  21.747  16.875 -0.0155  0.0906 -0.1233
42334W        W85325   5.448  30.171  28.807  0.2899  0.0511 -0.1077
42335W        W85326  19.521  31.078  26.656  0.0066 -0.0087 -0.1349
42336W        W85327  26.751  24.836  26.085  0.2419  0.2232  0.0331
42337W        W85328  15.334  10.969   2.136 -0.1722 -0.0404  0.0646
42338W        W85329  24.530  32.844  23.842 -0.2583 -0.0684 -0.1159
42339W        W85330  27.644  26.261  28.067  0.2242  0.3626 -0.0070
42340W        W85331  34.003  30.674  22.134  0.1135 -0.0681 -0.0926
42341W        W85332  10.628  26.333  19.273  0.1203 -0.1639  0.4020
42342W        W85333  26.875  16.834   2.052  0.2856  0.0096  0.1013
42343W        W85334   9.120  24.934  15.213  0.0380 -0.1252  0.3761
42344W        W85335  10.802   0.122   2.517  0.2163  0.0198 -0.0208
42345W        W85336   4.834  11.239   5.312  0.0005  0.0523 -0.1384
42346W        W85337  11.346  17.831   1.431 -0.1580 -0.2113 -0.0987
42347W        W85338   7.262  30.824  18.216 -0.2001  0.0439  0.0276
42348W        W85339   1.809   1.620  23.400  0.0855  0.0582 -0.1942
42349W        W85340  25.879  15.228  17.068 -0.0145  0.0301  0.0286
42350W        W85341   1.710  31.424  16.341 -0.0175 -0.0055 -0.2638
42351W        W85342   1.928  25.697  21.112  0.1485  0.1384 -0.2871
42352W        W85343  26.612  28.975  25.757  0.0569  0.1023 -0.2136
42353W        W85344  28.098  31.348  19.036  0.0105 -0.0872 -0.2330
42354W        W85345  17.528  31.595  17.082 -0.1314  0.1764 -0.0825
42355W        W85346  31.222  18.010  27.766 -0.0752 -0.0851 -0.2162
42356W        W85347  29.962  20.017  18.422  0.3226 -0.0537  0.0829
42357W        W85348  23.606  12.469  19.748 -0.2362 -0.2705 -0.1392
42358W        W85349   2.927  26.771  18.092  0.3927  0.1396  0.0372
42359W        W85350   5.610  22.363  17.162  0.2359  0.1085  0.0012
42360W        W85351   4.665  31.686  28.699 -0.1073 -0.0253 -0.0824
42361W        W85352   2.555  14.406  17.649  0.1748 -0.1553 -0.0334
42362W        W85353   3.239  33.720  16.594  0.0217 -0.2183  0.0483
42363W        W85354  31.176  29.114  14.216  0.0254  0.0156 -0.2135
42364W        W85355  10.991   2.189   4.198  0.0708  0.2875  0.1906
42365W        W85356  20.217  33.661  21.749 -0.2489 -0.0507  0.0130
42366W        W85357  24.040  28.470  21.124  0.0822  0.1853  0.0758
42367W        W85358  30.551  12.315  18.564 -0.1506  0.2355 -0.0438
42368W        W85359  13.670  15.346  14.215 -0.1766  0.3080  0.0434
42369W        W85360  32.246  34.663  24.649 -0.0151  0.1716 -0.2274
42370W        W85361  34.296   7.468   7.303  0.1412  0.1377 -0.1715
42371W        W85362  23.127  25.501  13.779  0.2662 -0.2788 -0.1920
42372W        W85363   2.312  11.640  25.313 -0.2539 -0.0209  0.1755
42373W        W85364  11.771   3.903  29.009 -0.0229 -0.2109 -0.1672
42374W        W85365   5.337  26.782  21.539  0.1834  0.2667  0.0903
42375W        W85366  27.394  28.997  15.356 -0.1213  0.0585 -0.0095
42376W        W85367  13.882  26.276  21.677 -0.3405  0.0277  0.0585
42377W        W85368  28.166  32.207  20.059  0.0412  0.1661  0.0342
42378W        W85369  25.912   7.968  25.037 -0.0772  0.1862  0.1589
42379W        W85370   6.926   0.020  23.346  0.1708 -0.0655  0.2604
42380W        W85371  34.105  31.527  23.762  0.0528  0.0727  0.0239
42381W        W85372  34.526   5.263  23.852 -0.5143 -0.1069  0.2910
42382W        W85373  31.041   1.026  20.817  0.2633 -0.1266 -0.0074
42383W        W85374  23.756  31.021  19.276  0.2005 -0.2012  0.0341
42384W        W85375  27.689  22.424   0.817  0.5700  0.0652  0.3787
42385W        W85376  21.992   3.554  21.419 -0.0893 -0.0372 -0.2180
42386W        W85377  21.363  22.859   3.374 -0.2233 -0.1698  0.3094
42387W        W85378  28.225  22.149  19.891 -0.0580 -0.1081  0.1539
42388W        W85379  28.399  32.176  24.451 -0.0224  0.1497  0.1214
42389W        W85380   1.492  21.202  20.885 -0.3192  0.0325 -0.0693
42390W        W85381  26.319   0.694  18.460 -0.2233  0.2322 -0.1043
42391W        W85382  31.146  16.955  27.452 -0.1830  0.0924 -0.1137
42392W        W85383  25.318   8.048  16.344  0.2127  0.0561 -0.0778
42393W        W85384  24.956  29.283  19.025 -0.0459  0.0449 -0.3080
42394W        W85385  27.455   2.024  20.482  0.0916  0.1445  0.2398
42395W        W85386  29.359  27.557  28.316 -0.1707 -0.1667  0.0748
42396W        W85387   5.344  25.449  24.090 -0.2377 -0.0508 -0.1967
42397W        W85388  33.854  22.851   6.760  0.1677  0.2555 -0.2627
42398W        W85389  25.730   5.312  26.348  0.0731  0.0387  0.2630
42399W        W85390  15.866  27.099  15.653 -0.1033 -0.3245  0.1812
42400W        W85391   6.289  27.481   6.846  0.1233  0.1821 -0.2726
42401W        W85392   3.638  13.520  20.050 -0.2194  0.1583 -0.1598
42402W        W85393  29.999  26.843  27.009 -0.0358  0.1767  0.3600
42403W        W85394   8.331   0.920  24.569  0.0773 -0.0250 -0.5455
42404W        W85395  22.219  18.792  20.648 -0.2209  0.0223 -0.0811
42405W        W85396  16.535  32.493  17.523 -0.0279  0.1237  0.2022
42406W        W85397  21.369  22.048   6.221  0.0728  0.2618  0.0038
42407W        W85398  24.219  14.424  23.154  0.1385  0.2277  0.1863
42408W        W85399  28.567  10.198  28.740  0.1050 -0.1896 -0.1621
42409W        W85400   7.133  32.397   3.600 -0.1991  0.0497 -0.3265
42410W        W85401  28.947  31.054  21.360  0.2396  0.2031  0.1572
42411W        W85402  34.387  29.309  14.390  0.0798 -0.0277  0.1708
42412W        W85403  31.840  22.787  14.772 -0.1413  0.4458 -0.0928
42413W        W85404  31.524  21.663  19.078 -0.1116 -0.1043 -0.2068
42414W        W85405  18.992  29.927  23.986  0.3487  0.3238  0.2363
42415W        W85406   5.794  21.771  15.822 -0.0247  0.1515  0.0674
42416W        W85407  31.715   2.211  18.136  0.1969  0.4603  0.0082
42417W        W85408  14.991   7.180  19.265  0.1292 -0.1484 -0.0219
42418W        W85409   4.925  15.404  27.178 -0.0832 -0.3092 -0.1571
42419W        W85410   3.851  31.544  15.477 -0.2946  0.0197 -0.0713
42420W        W85411   0.816   1.443  26.635  0.0093  0.0428 -0.0627
42421W        W85412   2.665  31.318   3.734  0.1045 -0.1695  0.3034
42422W        W85413   2.006   5.726  20.280  0.3955  0.1680 -0.2915
42423W        W85414   3.491  32.301  14.563  0.1180  0.0116 -0.1775
42424W        W85415  27.175  21.714  27.614  0.0790 -0.2442  0.2374
42425W        W85416   7.155  23.975  15.862 -0.0439 -0.0708  0.1820
42426W        W85417   9.153   4.773   3.539 -0.0042  0.3224  0.2253
42427W        W85418  24.545  21.629  14.980 -0.0781 -0.0421  0.0836
42428W        W85419  10.688  30.491  21.612  0.0374  0.0348 -0.1795
42429W        W85420  20.204  33.156  23.463  0.1665 -0.3802  0.1709
42430W        W85421  34.054  22.524  17.157  0.1864 -0.2032  0.1311
42431W        W85422  29.608   6.997  17.798 -0.3609  0.2348  0.2501
42432W        W85423   7.936  27.160   1.652 -0.1949 -0.1070 -0.2357
42433W        W85424  32.909   1.424   3.164  0.1216 -0.0975 -0.3355
42434W        W85425  30.428   3.801   2.303 -0.1836  0.2228  0.2215
42435W        W85426  27.010  23.329  17.081 -0.0957 -0.1109  0.1126
42436W        W85427   5.997  17.022  17.184  0.0043 -0.4886  0.0419
42437W        W85428  29.324  34.748  13.946 -0.3765 -0.0639 -0.3083
42438W        W85429  25.217  21.350  20.934  0.0321 -0.0158 -0.1216
42439W        W85430  32.406   2.463  21.732 -0.1318  0.1285  0.2469
42440W        W85431   5.416  21.461  20.485  0.1011  0.0206  0.0719
42441W        W85432   1.219  22.765  14.640  0.0872  0.2433 -0.2280
42442W        W85433  24.328  22.047  27.537  0.0236  0.0272  0.1879
42443W        W85434  23.623  17.431  21.007 -0.2510 -0.0768 -0.1088
42444W        W85435  31.882   9.697  18.673 -0.2318  0.0551  0.4053
42445W        W85436   1.204  25.404   7.024  0.1641  0.0844  0.0343
42446W        W85437  25.669   2.716  29.129 -0.3531  0.1186  0.1314
42447W        W85438   7.238  31.902  15.951 -0.0930  0.0913  0.0111
42448W        W85439   5.989  30.869  26.407  0.0321 -0.1165  0.1772
42449W        W85440  24.595  20.474  25.707  0.0178  0.1886  0.0470
42450W        W85441   4.024  17.563  23.877 -0.1559  0.0930  0.1713
42451W        W85442  29.327  28.104  14.793 -0.2577  0.1433 -0.2024
42452W        W85443  22.592  25.094  28.722  0.1664 -0.1987 -0.4524
42453W        W85444  30.555  31.593  25.900  0.2593  0.3213 -0.0117
42454W        W85445  28.455  31.549  13.920  0.1288  0.0564 -0.1353
42455W        W85446  14.993  26.802   3.246 -0.0789 -0.2930  0.2045
42456W        W85447   9.743   3.330   4.365  0.1990  0.0233  0.3049
42457W        W85448  10.238   4.324  25.386 -0.0977 -0.1618  0.0910
42458W        W85449  20.878  28.984  20.959 -0.1151 -0.1013  0.0912
42459W        W85450  20.097  30.322  27.069 -0.1427  0.1226 -0.0612
42460W        W85451   1.488  34.536  14.044  0.2314 -0.0826  0.1709
42461W        W85452  11.346   3.939  26.188  0.1629  0.0787  0.3150
42462W        W85453  34.371   4.343  18.589  0.1032 -0.1693  0.0741
42463W        W85454  24.529  32.748  27.512  0.3155 -0.0041 -0.0890
42464W        W85455  33.381   6.105   2.755  0.0363  0.2836 -0.2291
42465W        W85456  12.800  19.050  17.982 -0.1728 -0.0827  0.1092
42466W        W85457  32.085   2.485  18.652  0.2837 -0.1245  0.0937
42467W        W85458   5.524  18.589  16.510  0.3606 -0.0091 -0.0540
42468W        W85459  26.468  31.041  23.570 -0.1038  0.1976  0.2173
42469W        W85460  18.616  32.196  14.880 -0.0716  0.1096  0.1878
42470W        W85461  28.870  29.725   2.485 -0.2955 -0.0946  0.2526
42471W        W85462   2.498  26.481   8.577 -0.0634 -0.0082 -0.3348
42472W        W85463  34.519   8.477  20.110 -0.0073  0.0759 -0.2375
42473W        W85464  18.379   0.758  25.922 -0.1519 -0.2399 -0.1298
42474W        W85465  31.079  21.372  14.674 -0.2603 -0.0071  0.0906
42475W        W85466  22.478  31.254   0.644 -0.0358  0.0779  0.4141
42476W        W85467   2.169  22.477  16.858  0.2793 -0.1276  0.1750
42477W        W85468  31.780  22.013   2.523 -0.0297  0.0583  0.4453
42478W        W85469  23.012  28.142  17.886  0.1542 -0.0992  0.1383
42479W        W85470   4.109  10.694  21.820 -0.0668 -0.1117 -0.1276
42480W        W85471  14.912  26.172  16.908  0.2146  0.1500 -0.2253
42481W        W85472  26.292  23.637   1.841 -0.0271 -0.1125 -0.2636
42482W        W85473  29.188  26.976  26.196 -0.1011  0.0975  0.1320
42483W        W85474  20.915  24.295  17.869 -0.0563 -0.3262  0.1454
42484W        W85475   6.003   6.757  17.804 -0.0982  0.0983 -0.2052
42485W        W85476   0.842   5.368  28.148 -0.0775  0.1774 -0.0247
42486W        W85477   7.723  30.197  20.978 -0.2146 -0.2799 -0.0410
42487W        W85478   6.543   4.485  16.102  0.0110  0.1678  0.2376
42488W        W85479  31.461  12.392  17.452 -0.3062 -0.0245  0.1764
42489W        W85480   2.932  14.907  20.226 -0.0865  0.3701  0.1602
42490W        W85481  16.621   5.227  29.117 -0.0876  0.1326 -0.1497
42491W        W85482  24.150  17.215   6.095 -0.1116  0.2498 -0.1145
42492W        W85483  33.446  16.170  28.306 -0.2524 -0.2255  0.2352
42493W        W85484  28.346  31.510  26.128  0.1372  0.0151 -0.1245
42494W        W85485  17.518  22.727  12.980  0.5054  0.0617 -0.1536
42495W        W85486   5.377   5.315  29.185  0.1077  0.1312 -0.0751
42496W        W85487   8.782  11.902  17.574  0.0247  0.0686  0.0652
42497W        W85488  27.815  27.486  29.003  0.0656 -0.0187  0.1776
42498W        W85489  18.997  19.545  14.463  0.2381  0.0287  0.1025
42499W        W85490  22.092  24.422   8.031 -0.0613 -0.1030  0.0417
42500W        W85491  26.234  30.127  26.534 -0.1220 -0.1378  0.0920
42501W        W85492   6.687   0.341  23.722 -0.1595  0.1195  0.4179
42502W        W85493  20.670  30.120  24.201  0.1947  0.0258  0.1194
42503W        W85494  25.425  31.132  20.216 -0.0782 -0.0861 -0.2079
42504W        W85495   6.390  18.542  14.708  0.1649 -0.0706 -0.0482
42505W        W85496  20.961  16.203  15.618  0.0744 -0.0613  0.2769
42506W        W85497  22.780   4.570  17.288  0.1010  0.0239 -0.0430
42507W        W85498  26.739  28.409  20.931 -0.0197 -0.1089  0.0075
42508W        W85499  22.570  22.933   2.738  0.0790  0.0088  0.2207
42509W        W85500  12.533   7.104  18.357  0.0632 -0.0510 -0.2678
42510W        W85501  27.500  16.703  24.404 -0.0621  0.0061  0.2236
42511W        W85502  18.153  18.915  24.539 -0.2294  0.0352  0.0837
42512W        W85503   8.124  24.988   2.604 -0.2888 -0.2804  0.2619
42513W        W85504  24.673   0.276   0.289  0.0284 -0.0313 -0.2155
42514W        W85505  10.894  21.577  14.990 -0.0331 -0.0663  0.3123
42515W        W85506   1.527  25.818  16.745 -0.2446  0.0706 -0.0294
42516W        W85507  29.289  32.094  22.791  0.0365  0.1587 -0.1814
42517W        W85508  11.488  30.967  26.670  0.2037  0.0202  0.3191
42518W        W85509   4.712  34.357  17.491  0.0023  0.2013  0.2449
42519W        W85510   2.280  27.993   3.252 -0.3858  0.2796 -0.3166
42520W        W85511  25.389  10.292   1.972 -0.0674 -0.0888 -0.3146
42521W        W85512   4.383  23.674  18.726  0.0757  0.3594  0.2845
42522W        W85513  16.528  19.457  13.767 -0.0408 -0.2599  0.1286
42523W        W85514   5.065   5.096  23.537  0.3369 -0.2177 -0.2663
42524W        W85515  11.634  33.982  25.155  0.0403 -0.0719 -0.1964
42525W        W85516  26.372  28.364  27.936 -0.0613 -0.0113 -0.1151
42526W        W85517  32.939  12.065  20.996 -0.0802  0.3923  0.0110
42527W        W85518   3.677  33.853  20.004 -0.3715 -0.1064  0.1933
42528W        W85519  32.631  24.083  23.404 -0.0074 -0.0579  0.0469
42529W        W85520  23.464  22.758  18.940 -0.2229 -0.1204  0.3641
42530W        W85521  30.027  32.584  24.047 -0.3022 -0.2022  0.2489
42531W        W85522  28.930  33.883  27.757  0.0626  0.0081 -0.1520
42532W        W85523   9.468   4.041  22.686 -0.0448  0.0697 -0.0158
42533W        W85524  32.658  22.564   4.355 -0.3302 -0.3819  0.0546
42534W        W85525   5.627  26.092  26.675 -0.0808 -0.0949 -0.0403
42535W        W85526  21.583  28.364  16.858  0.2410  0.0795  0.0534
42536W        W85527  26.484  27.205   4.274  0.3102 -0.0596 -0.3037
42537W        W85528  12.866  22.065  16.205  0.1546  0.1005 -0.2960
42538W        W85529  28.667  12.028  21.891 -0.0106  0.1133  0.2384
42539W        W85530  34.275  31.123  19.943 -0.3299  0.2680 -0.1210
42540W        W85531  27.690  23.549   2.651 -0.1008 -0.2760 -0.1434
42541W        W85532  18.471  14.065  19.987  0.0095 -0.1680 -0.1121
42542W        W85533  26.797   2.265   0.609  0.1897 -0.2866  0.0296
42543W        W85534  30.276  19.566  18.478  0.2966 -0.0286  0.0982
42544W        W85535  32.474  25.399  19.570  0.2509 -0.0924 -0.0088
42545W        W85536  26.573  29.298  14.528  0.0813 -0.1779  0.0123
42546W        W85537  27.194  27.461  24.709 -0.0134  0.0495  0.3349
42547W        W85538   2.153  14.904  24.773 -0.2174  0.2141  0.1500
42548W        W85539   3.840   2.932  19.875 -0.1076 -0.0474 -0.2108
42549W        W85540  27.109   7.088  15.611  0.2039  0.1567 -0.1306
42550W        W85541   3.556  19.724  21.792 -0.0953 -0.0023 -0.0899
42551W        W85542  34.356  29.396  16.266 -0.2001  0.1227  0.4277
42552W        W85543  33.045  30.903  14.226 -0.1917 -0.3257  0.1314
42553W        W85544  32.263  11.683  25.728 -0.2215  0.0260  0.0828
42554W        W85545   1.266  14.429  18.397  0.1979 -0.3157 -0.2184
42555W        W85546   9.780  21.190  18.636  0.0158  0.4124 -0.1922
42556W        W85547   1.170  33.601  19.871 -0.2763 -0.0050 -0.4199
42557W        W85548  20.701  22.569  28.256  0.1181 -0.0439 -0.1698
42558W        W85549  33.715   3.323  26.515  0.0284 -0.0200  0.3419
42559W        W85550  13.560  21.291   5.973 -0.1476  0.1717 -0.0423
42560W        W85551  24.329  19.177  22.916  0.1782 -0.2871  0.4249
42561W        W85552   9.290  22.309   2.094 -0.2611  0.3845  0.1186
42562W        W85553   1.519  21.615  15.292 -0.3206 -0.0381 -0.0225
42563W        W85554  29.312  17.577  14.771  0.1279  0.0599  0.1284
42564W        W85555  25.929  28.565  28.274  0.0263  0.0095 -0.1096
42565W        W85556  25.976   4.444  17.029 -0.1057 -0.1545 -0.3035
42566W        W85557  18.353  26.473  29.043 -0.1385 -0.2305  0.0964
42567W        W85558  28.761  23.236  27.026 -0.4344  0.4134  0.0157
42568W        W85559  27.260  28.493  13.006  0.2043 -0.2541 -0.1339
42569W        W85560   1.246  25.341  24.746  0.3410 -0.2167 -0.0608
42570W        W85561   4.756  21.321  16.775  0.0437 -0.0683 -0.0053
42571W        W85562  22.003   0.329  28.874 -0.0121  0.1532  0.0137
42572W        W85563  17.594   1.357   2.453 -0.0183  0.3260 -0.1892
42573W        W85564   8.262   0.583  15.812 -0.3008 -0.1061 -0.1178
42574W        W85565  30.859  25.445  23.488  0.1913  0.1530  0.0180
42575W        W85566  16.533   6.753  18.985 -0.0706  0.1618 -0.0464
42576W        W85567  31.491  30.963  18.689 -0.3038  0.0284 -0.0732
42577W        W85568  15.897  26.165  20.136  0.0762  0.0230 -0.3038
42578W        W85569  31.912  17.486   4.835 -0.0793  0.1127 -0.0967
42579W        W85570  21.437  19.425  13.959 -0.4096 -0.2259 -0.1465
42580W        W85571  31.420  13.927  25.598 -0.3636  0.0890  0.0745
42581W        W85572  31.222   2.325  18.131 -0.2344  0.5012 -0.0655
42582W        W85573   8.341  30.894  25.421 -0.1590 -0.3527  0.1668
42583W        W85574  19.727  19.699  13.030  0.1372  0.0638  0.2714
42584W        W85575  24.363  32.988  13.936  0.1307  0.2139  0.0865
42585W        W85576   8.424  20.957  27.253 -0.0691 -0.0023 -0.0322
42586W        W85577  25.913  19.405  17.762  0.1242  0.2006  0.0977
42587W        W85578  32.918  24.429  16.020  0.0037  0.3097  0.0646
42588W        W85579   1.316  10.325  20.166 -0.4905 -0.1711  0.0181
42589W        W85580   0.713  17.121  19.171  0.1327  0.0515 -0.2547
42590W        W85581  33.553   4.077  14.935 -0.1341  0.0625  0.0306
42591W        W85582  34.136   0.312  27.880 -0.1814  0.1863 -0.0898
42592W        W85583  25.602  28.641   3.508  0.0833  0.0861  0.0090
42593W        W85584  12.255  19.240  16.631  0.0464  0.0813  0.1429
42594W        W85585  11.228  27.519   5.659 -0.1964  0.1366 -0.0423
42595W        W85586  29.355  32.256  25.312  0.0777  0.0711  0.0003
42596W        W85587  30.064  34.110  27.102  0.2399  0.2137  0.2344
42597W        W85588   8.992  33.937  15.985 -0.1940  0.2454 -0.2273
42598W        W85589  29.187   1.166   3.280  0.2435 -0.2038  0.0767
42599W        W85590  19.837  13.272  20.917 -0.0540  0.1519 -0.1578
42600W        W85591  26.211  22.791  15.375 -0.0955 -0.1077  0.2770
42601W        W85592   1.660  32.832  24.082  0.1466  0.0283  0.2341
42602W        W85593  21.608  19.115  19.060  0.0201  0.0773 -0.0331
42603W        W85594  31.511  26.219  24.174  0.0011 -0.1575 -0.4380
42604W        W85595  12.770  19.810  13.738  0.1682 -0.2857  0.4377
42605W        W85596   0.294   7.819   2.370  0.4381 -0.3858  0.0016
42606W        W85597  14.482  22.830   6.259  0.3177  0.2005 -0.0385
42607W        W85598  24.906  28.681  16.456 -0.3354  0.2643 -0.0680
42608W        W85599  23.294   1.280  23.446  0.0545  0.0100  0.1665
42609W        W85600  17.404   1.914  28.559 -0.1592 -0.2078 -0.1079
42610W        W85601  26.824  30.865  19.078 -0.1363  0.2564  0.2947
42611W        W85602  19.809   3.093  15.563 -0.2710 -0.0430  0.2242
42612W        W85603  23.899  34.391  28.722  0.0413  0.0821  0.1607
42613W        W85604  27.288  33.677  21.997  0.0320 -0.1064  0.1751
42614W        W85605  19.503  27.461  17.176  0.1077  0.2431 -0.2600
42615W        W85606   9.612  24.974  15.500  0.1171  0.2046 -0.1880
42616W        W85607  26.384  26.032  18.629 -0.1161 -0.0878 -0.0287
42617W        W85608  25.616  10.628  19.190  0.2091 -0.1566  0.0957
42618W        W85609   4.854  33.937  20.018  0.0830 -0.2193  0.1958
42619W        W85610   2.739   1.133  20.362  0.0748 -0.1363 -0.0342
42620W        W85611  16.473  18.149   4.639 -0.1435  0.2184  0.0540
42621W        W85612  29.955  23.613  14.793 -0.0515 -0.0190 -0.0601
42622W        W85613  15.623  17.440  14.646  0.5408  0.3403  0.0611
42623W        W85614  33.486  12.344  22.119 -0.0538  0.1481 -0.0905
42624W        W85615   6.576  10.438   2.882  0.0411 -0.1184 -0.2425
42625W        W85616  24.377  32.795   2.246  0.2428  0.0372 -0.3426
42626W        W85617  29.230   7.382  19.128 -0.1694  0.2654  0.0234
42627W        W85618   1.294  19.157  18.306  0.3497  0.1537  0.0592
42628W        W85619  33.801   3.429  24.610 -0.0816  0.0906 -0.1216
42629W        W85620   0.834  18.742  18.276  0.0092  0.0434 -0.4202
42630W        W85621  24.294  33.894   3.035 -0.1476  0.1906  0.0569
42631W        W85622  22.240  32.513   0.678 -0.0092 -0.0816  0.1105
42632W        W85623  32.610  25.351  25.208  0.0884  0.1109  0.0296
42633W        W85624  31.771  29.711  19.666 -0.0212  0.2348 -0.1370
42634W        W85625  14.179   3.357   4.586 -0.3305  0.0177 -0.0509
42635W        W85626   2.957  32.409  24.351 -0.2480  0.0229  0.2652
42636W        W85627  22.697   3.769   0.431  0.0727  0.1039 -0.0595
42637W        W85628  31.836  33.148  20.714 -0.0623 -0.2451 -0.2349
42638W        W85629  26.686  25.675  13.799 -0.1655 -0.2656  0.4800
42639W        W85630   3.127  30.645  22.442  0.0969 -0.1574  0.0961
42640W        W85631  33.910  27.680  16.965 -0.1486  0.3630  0.0803
42641W        W85632  15.117  33.757  27.457 -0.2877 -0.1434  0.0124
42642W        W85633  29.190  22.574  15.870 -0.3163 -0.1808  0.1658
42643W        W85634  22.916  27.491  16.027 -0.0376  0.3447 -0.1797
42644W        W85635  31.502  24.704  25.886 -0.0630 -0.1317  0.1015
42645W        W85636  26.577   2.008  16.676  0.3444 -0.0067 -0.3028
42646W        W85637  14.832   5.311  15.548 -0.0586  0.0546  0.0162
42647W        W85638  27.004  16.762  14.538  0.2460 -0.0309  0.3020
42648W        W85639  34.248  13.867   4.827 -0.2856 -0.0372  0.0181
42649W        W85640  20.530  19.488  12.515 -0.0036  0.1537 -0.0001
42650W        W85641  14.467  20.247  17.541 -0.2040 -0.0458  0.2732
42651W        W85642  28.357  33.971  13.700  0.2692 -0.1461  0.2585
42652W        W85643  19.706   5.875  21.754  0.3709 -0.0792 -0.3386
42653W        W85644   9.054  27.134  19.399  0.0401 -0.0495  0.3789
42654W        W85645   2.492  16.216  17.100 -0.0896  0.2255  0.3792
42655W        W85646   0.305  23.584  14.058  0.0417 -0.1282 -0.1436
42656W        W85647  32.633  27.929  28.190 -0.1086  0.0733 -0.2236
42657W        W85648   0.515  24.975  25.214 -0.1681 -0.0112  0.1192
42658W        W85649  34.113   1.129  16.445  0.2092 -0.0820  0.0000
42659W        W85650  33.831  22.790  19.922 -0.0610 -0.1055  0.1717
42660W        W85651   1.304   0.616  21.531 -0.0807  0.0875  0.0686
42661W        W85652   0.651  21.715  26.773 -0.1508 -0.1195  0.2129
42662W        W85653   3.877   9.644  17.780 -0.1541 -0.0974 -0.0149
42663W        W85654   0.402  29.423  12.932  0.1846  0.1147  0.0479
42664W        W85655  23.498  28.538  16.759 -0.2118  0.1181 -0.1062
42665W        W85656  33.222  22.778  21.161  0.2089  0.0965 -0.2275
42666W        W85657  30.543  23.665  20.298  0.1392 -0.1700 -0.1086
42667W        W85658  15.703  18.021  16.090  0.1952 -0.0918  0.2289
42668W        W85659  30.527  29.151  15.375  0.0934 -0.0387  0.0282
42669W        W85660  29.053  13.317  20.878 -0.1180  0.1338  0.1965
42670W        W85661  22.422   4.519  23.593 -0.0584  0.0945 -0.1392
42671W        W85662   2.338  17.525  16.601  0.0346  0.3147 -0.3611
42672W        W85663   4.247  32.088  19.591  0.2817 -0.0858 -0.0474
42673W        W85664  32.243   1.246  18.918  0.0342 -0.2087 -0.0300
42674W        W85665  24.952  16.325  21.523  0.0487  0.2625  0.4456
42675W        W85666   4.133  33.356  25.361 -0.0364  0.1842  0.0307
42676W        W85667   6.392  30.144  18.807 -0.1181 -0.2582 -0.0547
42677W        W85668  16.093  21.474  16.669  0.0270 -0.1540 -0.1914
42678W        W85669  31.006  33.777  16.203 -0.0426  0.2019  0.1909
42679W        W85670  26.556  30.321  28.554 -0.0585  0.0040 -0.2183
42680W        W85671  33.564  24.189  19.375  0.0936 -0.0431  0.0385
42681W        W85672  31.666  29.727   5.136  0.1684 -0.0956  0.1991
42682W        W85673   7.187  12.104  20.173  0.1971 -0.2282 -0.1804
42683W        W85674  14.348  30.993  17.130 -0.0459 -0.0973 -0.2030
42684W        W85675  31.836  21.448  20.069  0.1272 -0.0085 -0.2073
42685W        W85676  30.014  29.917  21.271  0.2633 -0.1425  0.0648
42686W        W85677  34.097  31.433  14.925 -0.0135  0.2028  0.2080
42687W        W85678  27.787   1.564  20.588  0.1274 -0.0777 -0.0005
42688W        W85679  27.254  29.489  22.208  0.0715 -0.0591 -0.0499
42689W        W85680  24.775   2.684  13.208  0.1029 -0.0730  0.1114
42690W        W85681  30.892  13.092   3.355  0.0449 -0.0989  0.1833
42691W        W85682   0.142  22.258  20.963 -0.1280  0.2169 -0.2194
42692W        W85683  23.765  21.328   2.225 -0.1266  0.1216 -0.0114
42693W        W85684  33.958  30.408  26.908  0.1245 -0.1563  0.2703
42694W        W85685  32.499  29.581  24.588  0.3747 -0.0583  0.0682
42695W        W85686  32.238  15.252  17.372  0.3203  0.1016 -0.0854
42696W        W85687  31.344  20.491   8.599 -0.0594 -0.1216  0.0185
42697W        W85688  28.078  24.816  18.636  0.0680 -0.2540  0.0403
42698W        W85689   4.214  30.736  22.683  0.0311  0.0626  0.1188
42699W        W85690  26.679  26.110  24.608  0.1490 -0.2326 -0.0777
42700W        W85691  23.206  12.410  14.109  0.3248 -0.0015 -0.0773
42701W        W85692   7.330  32.057  28.877 -0.1066  0.2052 -0.1045
42702W        W85693  21.365  23.285  19.704  0.4243  0.1406 -0.0933
42703W        W85694  12.636  33.962   6.251 -0.1621 -0.1082  0.0781
42704W        W85695  20.782  22.382  18.919  0.1045 -0.3550 -0.1333
42705W        W85696   2.273  21.699   6.094  0.1630  0.1318  0.0379
42706W        W85697   1.159  20.231  25.077  0.0138 -0.0497  0.1882
42707W        W85698  26.703  20.775  14.861  0.0263  0.3310 -0.2057
42708W        W85699  32.984  16.332  23.429 -0.0617 -0.1192 -0.0444
42709W        W85700  18.490  20.753  18.301  0.3438 -0.1039  0.0127
42710W        W85701  24.696  21.350  22.962  0.2661  0.0639  0.1726
42711W        W85702   1.602   9.450   0.799  0.0548  0.2157 -0.1519
42712W        W85703  14.153  23.221   3.823 -0.2940 -0.1848 -0.2395
42713W        W85704   9.621  34.568   5.364  0.0825 -0.0222 -0.2170
42714W        W85705  21.312  31.611   1.969  0.1100 -0.4413 -0.0166
42715W        W85706  19.343  12.658   7.286  0.4497 -0.3525 -0.0436
42716W        W85707  33.755  25.640  26.540  0.0904 -0.0529  0.3267
42717W        W85708   0.822  30.642  22.044 -0.1081  0.2554 -0.1849
42718W        W85709  23.289  28.194  27.138  0.0658  0.1202  0.1021
42719W        W85710  20.518   5.489   4.740  0.0492  0.1658 -0.0272
42720W        W85711  24.000  27.501  16.570  0.1327  0.3053 -0.1725
42721W        W85712  30.289  27.616  22.753  0.1795 -0.1239  0.2580
42722W        W85713  31.141  21.525   1.732 -0.0494 -0.1073 -0.1232
42723W        W85714   7.614  21.893  28.724 -0.0080  0.0828 -0.0923
42724W        W85715  27.045  15.527  24.101  0.1060  0.2735  0.0362
42725W        W85716   3.200  17.939  17.962  0.0123  0.1616  0.2457
42726W        W85717   7.930  33.668  27.093  0.0286 -0.0941 -0.3119
42727W        W85718  25.560  26.233  15.623  0.0655 -0.0199  0.0466
42728W        W85719   5.215  24.021  22.075 -0.2261 -0.1773 -0.1151
42729W        W85720   3.891  33.934  23.231  0.3822 -0.1532  0.0205
42730W        W85721  33.643  30.712   1.502 -0.0265  0.1916 -0.3001
42731W        W85722   5.796  13.825  25.427  0.3951 -0.0543 -0.0594
42732W        W85723  23.846  31.070  20.142 -0.1239  0.4363  0.1280
42733W        W85724  22.660  15.657  16.392  0.0241  0.2026  0.3059
42734W        W85725  18.477   3.662  18.720  0.1330  0.2551 -0.2262
42735W        W85726  23.630  18.495   4.045 -0.3870  0.2576 -0.1830
42736W        W85727   4.370  31.709   0.534  0.1227  0.0111 -0.3614
42737W        W85728  28.493  18.026   7.399 -0.1386 -0.1142 -0.2370
42738W        W85729  25.517  22.978   4.437 -0.0656  0.2011 -0.1291
42739W        W85730   5.459  34.765  25.523 -0.1054  0.0241 -0.0423
42740W        W85731  30.456  29.020  20.207  0.2327  0.0068  0.1054
42741W        W85732  28.201  22.453  29.214  0.1045  0.1319  0.3420
42742W        W85733   8.703  24.808  19.215 -0.3110  0.0270 -0.0495
42743W        W85734  31.570  14.105   0.757 -0.3227  0.0263  0.0579
42744W        W85735   5.018   2.070  27.739 -0.0477  0.2278 -0.0178
42745W        W85736  27.870  12.075  18.464 -0.0415  0.0338 -0.1352
42746W        W85737  34.389  22.684  15.979  0.3477  0.1484  0.0237
42747W        W85738  30.621  28.780  14.982  0.0234 -0.1657  0.5547
42748W        W85739  15.602  31.270  22.725  0.0936  0.0038  0.1774
42749W        W85740  13.638   7.643  18.489  0.0197  0.3220  0.0885
42750W        W85741   7.787  32.789  21.249  0.1690 -0.1414  0.1824
42751W        W85742   4.219  24.755  23.580 -0.0246  0.1678  0.1801
42752W        W85743  23.742   9.813  28.755 -0.2607  0.2284  0.0074
42753W        W85744  11.495  30.799   2.410 -0.0946 -0.1470  0.1314
42754W        W85745  22.769  27.304  19.958  0.1478 -0.0744  0.0424
42755W        W85746   6.409  22.845  20.780 -0.0274 -0.1607 -0.2274
42756W        W85747   4.900  19.791  17.585 -0.1449 -0.0748  0.0410
42757W        W85748  23.702  13.219  27.298 -0.0938 -0.0025  0.1010
42758W        W85749   2.731   5.066  16.773  0.0197  0.3665  0.1082
42759W        W85750   2.393  23.462   7.920 -0.0545  0.2334 -0.0292
42760W        W85751   9.107  34.222  20.455 -0.0548 -0.1085 -0.0551
42761W        W85752  15.979  25.813  21.573 -0.1478  0.0611 -0.0050
42762W        W85753  10.044  33.047  23.798  0.2647  0.1652 -0.1093
42763W        W85754  31.698  31.607  19.914  0.0628  0.0590  0.3504
42764W        W85755  32.785   3.623  15.553  0.0629  0.1644 -0.0263
42765W        W85756  34.398  16.635   1.445  0.1392 -0.2485  0.2420
42766W        W85757  29.856   5.485  21.324  0.0098  0.0792  0.0395
42767W        W85758  33.961   8.782   1.322  0.1425 -0.0291 -0.2707
42768W        W85759  31.089  29.335  23.252  0.0845 -0.0919  0.1472
42769W        W85760   7.194  17.549  15.570  0.1018 -0.0065  0.0113
42770W        W85761  34.272   6.575   1.912  0.1551 -0.1520  0.3469
42771W        W85762  15.402  14.978   9.333  0.1120 -0.0270  0.1627
42772W        W85763  31.717   9.151  22.578  0.0610 -0.0915  0.2862
42773W        W85764   1.518  24.629  24.056 -0.0990 -0.1138 -0.1191
42774W        W85765   1.309  26.492  10.114  0.1934  0.2153  0.1389
42775W        W85766   2.829  15.204  16.791  0.3355  0.1444 -0.1358
42776W        W85767   8.450   5.170  23.712 -0.0657 -0.0070 -0.2964
42777W        W85768  30.177   4.872  14.899 -0.0991 -0.1471  0.1090
42778W        W85769   0.880  21.344   5.765 -0.1073  0.1915  0.0537
42779W        W85770  26.767  32.188  21.279 -0.0509 -0.2750 -0.0851
42780W        W85771  32.021  29.588  20.558 -0.0226  0.0957 -0.1590
42781W        W85772  17.679  15.152  28.180  0.0745 -0.3435 -0.0436
42782W        W85773  34.769  15.839  10.448  0.3144 -0.2947 -0.0171
42783W        W85774   7.553  18.439  18.283 -0.2095 -0.2706  0.0970
42784W        W85775  27.945  27.975  24.599 -0.0010 -0.0068  0.1492
42785W        W85776  33.746  20.943  16.877  0.1236  0.0690  0.0177
42786W        W85777   4.112  33.338  20.725  0.1528 -0.1082 -0.1761
42787W        W85778  25.224  33.405  24.410 -0.2900 -0.0385  0.1294
42788W        W85779  28.233  34.746  26.284 -0.0285  0.0344 -0.0131
42789W        W85780   5.565  30.225  18.555  0.0122  0.0874 -0.2619
42790W        W85781  32.677  17.616  21.893 -0.2202 -0.0059  0.1273
42791W        W85782  29.929  32.086  17.073  0.2739 -0.0606  0.0425
42792W        W85783   8.327  12.971   0.004  0.0485  0.2245 -0.0678
42793W        W85784  24.802  33.438   0.937 -0.1455 -0.1207  0.3749
42794W        W85785  24.239  13.284  22.049  0.0044 -0.2108  0.2571
42795W        W85786   0.199  27.353  21.218 -0.2749 -0.1147  0.1511
42796W        W85787  33.928   6.128  15.973  0.0992  0.1698  0.2058
42797W        W85788   3.407  24.114   4.116  0.0211 -0.0733 -0.1268
42798W        W85789  29.705  20.140   2.360  0.0473 -0.4540  0.0537
42799W        W85790  32.746  20.659  22.305  0.1173 -0.3742  0.2476
42800W        W85791  20.168   7.031  20.403 -0.0127  0.1964 -0.0112
42801W        W85792  21.985  30.751  24.980 -0.0395  0.3157 -0.3350
42802W        W85793  21.532   4.412  24.808  0.1729 -0.1892  0.1251
42803W        W85794  23.201  27.307   9.200 -0.1869  0.1850  0.1019
42804W        W85795   2.431  20.226  21.697  0.1289  0.0185 -0.1178
42805W        W85796  27.798   8.768   5.292  0.2844  0.1449 -0.1508
42806W        W85797  22.269  11.007  27.821  0.4300 -0.3917 -0.0839
42807W        W85798  21.256   2.797  17.774 -0.1831  0.0895  0.1533
42808W        W85799  16.736   2.884   6.076 -0.1864  0.1181 -0.1348
42809W        W85800  34.004  26.916  25.260 -0.1507  0.1454  0.0534
42810W        W85801  17.137  30.464  27.788 -0.1361 -0.3356 -0.3247
42811W        W85802  15.397  33.195  21.431  0.1425 -0.0065  0.2108
42812W        W85803  25.593  12.273   8.747 -0.4573 -0.2163 -0.0698
42813W        W85804   9.006  27.784  21.178  0.0706  0.4859 -0.1584
42814W        W85805  22.058   2.403  16.773  0.2976  0.0031  0.0567
42815W        W85806   5.089   2.313   9.357 -0.1091 -0.0961  0.0088
42816W        W85807  27.915  31.201  17.654 -0.2598 -0.0329 -0.0913
42817W        W85808  14.047   0.153  24.263  0.3195  0.1401 -0.0368
42818W        W85809  11.279  16.290  27.671 -0.1069 -0.1118  0.0304
42819W        W85810  29.703  19.254   4.742  0.1625 -0.2791  0.4178
42820W        W85811  17.043  26.914   6.871 -0.3458 -0.0776 -0.1863
42821W        W85812  28.361   9.610  14.319  0.1364  0.2842  0.0812
42822W        W85813  23.338  27.260   4.953 -0.1357  0.2497  0.0848
42823W        W85814   2.945  22.057  28.496  0.1409  0.2862 -0.0109
42824W        W85815  11.296  13.443   4.667  0.0653  0.2574  0.3298
42825W        W85816  24.839  29.883  16.033 -0.1005 -0.2220 -0.3730
42826W        W85817  25.072  28.607  23.159  0.0868 -0.1230 -0.0746
42827W        W85818   0.204  14.710  16.033 -0.0483 -0.0642  0.0092
42828W        W85819  11.593  18.122  21.897  0.0787 -0.0439 -0.0531
42829W        W85820   1.115  11.588  22.958 -0.0763 -0.1766  0.1220
42830W        W85821  21.966  15.469  29.193  0.4332  0.2232 -0.4258
42831W        W85822   6.256  26.575  22.848  0.0486 -0.0322 -0.0473
42832W        W85823   1.435  11.344  24.781  0.2689  0.0222 -0.1982
42833W        W85824  31.189   9.183  23.747 -0.1117 -0.0792 -0.0998
42834W        W85825   1.985  31.302  13.363  0.0865 -0.0612 -0.4538
42835W        W85826   5.318  24.126  21.525  0.0746  0.2128  0.0888
42836W        W85827  18.862  13.491  19.340  0.2008  0.0349  0.0638
42837W        W85828  23.270   0.413  29.214  0.1720  0.0146  0.0510
42838W        W85829  31.467   5.114   1.195  0.1366 -0.2533 -0.2222
42839W        W85830  28.860  29.353  25.111  0.4722 -0.1584  0.1487
42840W        W85831   1.317  23.378  19.579 -0.2533  0.0799  0.0639
42841W        W85832  33.083  19.761  22.717 -0.0155 -0.1406 -0.0749
42842W        W85833  20.091  34.252  26.535  0.1209 -0.1958  0.1102
42843W        W85834   8.439  21.726   8.245 -0.0623 -0.1885 -0.0873
42844W        W85835  18.451  29.272  13.524 -0.2053 -0.3056  0.0637
42845W        W85836   4.829  28.955  15.348 -0.0705  0.3942 -0.3308
42846W        W85837   3.528  33.137  18.367  0.2890  0.2488  0.0543
42847W        W85838  16.595  23.452  15.485 -0.2199 -0.0850  0.1099
42848W        W85839   7.775  18.054  21.192 -0.0335  0.2726 -0.1551
42849W        W85840  23.570  18.189   0.468 -0.0730  0.0228  0.1277
42850W        W85841  33.571  22.855  25.075  0.2686 -0.1147 -0.0239
42851W        W85842  24.630   0.834  16.907  0.1304  0.1194  0.2486
42852W        W85843  15.973  24.161  29.194 -0.2682 -0.0904  0.3385
42853W        W85844  32.664  20.552   0.475 -0.0974 -0.1689 -0.1329
42854W        W85845  32.306  32.393   6.635  0.2114 -0.0335 -0.1162
42855W        W85846  24.295  20.506   3.453 -0.1295  0.4307 -0.3125
42856W        W85847  29.315  34.048   1.202 -0.0125  0.1386  0.1302
42857W        W85848  23.715  32.041  21.870  0.1174 -0.0889 -0.0885
42858W        W85849   4.298  22.200   3.027  0.2175 -0.1777  0.1709
42859W        W85850   2.638   9.639   8.177  0.0248 -0.1910 -0.0644
42860W        W85851   0.862  17.787  15.911 -0.0372  0.3332  0.0578
42861W        W85852  31.214  34.045  17.654  0.2919 -0.0620  0.0315
42862W        W85853  25.667  21.306   4.619  0.0630 -0.2132  0.1559
42863W        W85854  29.928  23.051  27.696  0.0520  0.0666 -0.2089
42864W        W85855  12.838   0.703  24.598 -0.0917  0.1788 -0.0545
42865W        W85856   4.688   1.521  17.780  0.0780 -0.3094 -0.1626
42866W        W85857   6.744  12.376  18.451  0.1211 -0.1337 -0.2470
42867W        W85858  33.471   3.390  23.283 -0.3784  0.0085 -0.1032
42868W        W85859  30.355   5.817  22.809  0.2729  0.2967 -0.1380
42869W        W85860  27.867   2.139  27.716 -0.1201  0.2827 -0.1468
42870W        W85861   6.462  31.853  14.541 -0.2778 -0.0691 -0.2898
42871W        W85862   7.099  28.777  21.950 -0.2135  0.1553 -0.2222
42872W        W85863  34.351  30.650  24.861  0.0481 -0.0665  0.0493
42873W        W85864   1.106  34.170  20.583  0.1439 -0.0604 -0.0596
42874W        W85865  28.517  19.696   6.769  0.0148 -0.1491  0.0638
42875W        W85866  12.029  22.160  18.756  0.0297 -0.0743 -0.0242
42876W        W85867  28.449  22.662   1.060  0.1595  0.1220  0.2529
42877W        W85868  25.823  33.519  14.081  0.0225  0.2505  0.1257
42878W        W85869  10.367   9.280  10.617  0.0276 -0.0023 -0.3570
42879W        W85870  10.316  29.471  16.302 -0.0080 -0.1010  0.0620
42880W        W85871  34.490  30.702  14.332  0.0721 -0.3406  0.0615
42881W        W85872   6.674  13.351  25.640 -0.2085 -0.0204  0.0074
42882W        W85873   1.846  15.796   3.028 -0.2326  0.2104  0.2231
42883W        W85874  20.171  17.878  23.869  0.1449 -0.1448 -0.1065
42884W        W85875  28.611   0.346   8.529 -0.0532 -0.1978 -0.0552
42885W        W85876  23.548  34.047  14.816  0.4244  0.0196  0.0275
42886W        W85877  33.186   5.623  17.807  0.2215  0.2476  0.2739
42887W        W85878   7.226   4.459  21.560  0.1926 -0.1021  0.2333
42888W        W85879  26.860  16.268  28.169  0.1913 -0.0316 -0.4003
42889W        W85880  12.970   2.113  26.874  0.1675 -0.3069 -0.2297
42890W        W85881   4.743  33.048  15.853  0.1264 -0.1354  0.0556
42891W        W85882   5.909  22.864  19.849  0.1317  0.1686 -0.2195
42892W        W85883  22.000  26.392  13.849  0.1064 -0.1845  0.2505
42893W        W85884  24.887  27.786  14.298 -0.0738  0.1990  0.0951
42894W        W85885   5.605  34.439   6.462  0.1105 -0.2710  0.0424
42895W        W85886  18.610  21.572   4.818 -0.2148 -0.3512  0.0053
42896W        W85887  33.405  31.116  13.410  0.1181  0.1457  0.0696
42897W        W85888   8.767  13.451  28.769 -0.0283 -0.0548 -0.0868
42898W        W85889  30.438  16.420  22.720 -0.0964 -0.1109 -0.2999
42899W        W85890  30.312   9.431  15.581  0.1603 -0.0143  0.2558
42900W        W85891   6.353  17.091  17.662 -0.0981 -0.2568  0.0583
42901W        W85892  13.956  32.760   8.175  0.1541 -0.3103  0.1883
42902W        W85893  10.000   3.888  25.054 -0.0261 -0.2380  0.1591
42903W        W85894   5.722   3.533   1.428 -0.0334  0.4496  0.3236
42904W        W85895  33.492  28.067   4.232  0.0314 -0.1291 -0.0035
42905W        W85896  23.319   2.972   5.955 -0.0806 -0.0709 -0.1701
42906W        W85897  33.861  28.810  27.264 -0.2123  0.0302 -0.2588
42907W        W85898  10.106   3.784  20.799  0.1978  0.0269 -0.0050
42908W        W85899  30.047  34.229   4.922  0.1400  0.3676 -0.1170
42909W        W85900  18.846  11.046  16.744  0.4412  0.3607  0.1155
42910W        W85901   6.808  14.978  23.952 -0.0943 -0.0886  0.1731
42911W        W85902   1.193  13.824   6.147 -0.0960 -0.0441  0.3398
42912W        W85903  13.848  23.990  15.567  0.0392 -0.3036  0.0115
42913W        W85904  22.403   2.368  25.546 -0.2934 -0.0089 -0.2830
42914W        W85905  29.528  17.013  23.249  0.0269 -0.0952 -0.0041
42915W        W85906   0.210  16.412   2.081  0.0638 -0.0954  0.1830
42916W        W85907  28.311  27.058  13.772  0.2432 -0.1748 -0.0383
42917W        W85908  22.659  25.764   1.286  0.2888 -0.1557  0.1558
42918W        W85909  22.516  17.352   5.389  0.2454 -0.2157 -0.3412
42919W        W85910  25.178  20.943  24.011 -0.1699 -0.2423  0.0277
42920W        W85911  20.116   5.515  22.959 -0.0203  0.1252  0.1130
42921W        W85912  29.562  17.555  24.621  0.1737  0.0121 -0.0881
42922W        W85913  15.265  10.666  18.707 -0.2860 -0.0285 -0.3548
42923W        W85914  27.486  26.165   3.577  0.2298  0.1920 -0.2308
42924W        W85915   3.981   1.225  21.845 -0.0728  0.0078 -0.0267
42925W        W85916  31.394  23.999  26.508  0.0967 -0.0015  0.3124
42926W        W85917   0.300  27.909  24.399 -0.0393  0.2971  0.1696
42927W        W85918  20.608  29.977  13.877  0.0784 -0.1150 -0.0034
42928W        W85919  22.898  21.723  24.111 -0.0986 -0.0672  0.3038
42929W        W85920   1.245   5.862   6.789 -0.2378 -0.3219 -0.0419
42930W        W85921  19.925  21.691  16.250 -0.1496 -0.0869 -0.2832
42931W        W85922  18.645  26.022  13.966 -0.0575  0.2300  0.2262
42932W        W85923  33.172   8.200  25.577  0.0553 -0.1048 -0.0317
42933W        W85924  29.503  24.296  18.298  0.0420 -0.1738 -0.1519
42934W        W85925   0.894  13.152  28.992  0.0136  0.2266  0.1986
42935W        W85926   0.186   2.764   8.421 -0.0436  0.0606  0.2811
42936W        W85927  21.322  19.873   4.364  0.1477 -0.1554 -0.1908
42937W        W85928  33.736  20.063  21.471  0.1495 -0.1451  0.0450
42938W        W85929  29.303  29.199  28.703  0.1555 -0.2252  0.1445
42939W        W85930  28.478  25.014  18.238 -0.1872  0.1782 -0.0385
42940W        W85931   4.278  33.539  26.318 -0.1531  0.1110 -0.2211
42941W        W85932  29.805  19.423  17.141 -0.1389 -0.3356 -0.0339
42942W        W85933  30.509  17.928  26.594 -0.1534 -0.1485 -0.0440
42943W        W85934  20.307  14.563  28.273 -0.3664  0.0765  0.0286
42944W        W85935  21.265   9.313  21.198 -0.3231 -0.1710  0.2976
42945W        W85936  25.555  16.193   5.802  0.0190 -0.0536 -0.0088
42946W        W85937  23.480   4.499  19.898 -0.1010  0.1606 -0.0441
42947W        W85938  32.291  15.604  28.354 -0.1551  0.2727  0.3326
42948W        W85939  24.442  15.357  25.652  0.2274 -0.2168 -0.0835
42949W        W85940  19.406  31.475  27.639 -0.3836  0.0335 -0.0621
42950W        W85941   2.512   1.376  16.791  0.2877  0.0321  0.1481
42951W        W85942  12.217  28.214   0.073  0.3353 -0.0150  0.1274
42952W        W85943  34.493   2.038  19.439 -0.1863 -0.0247  0.1344
42953W        W85944  24.393  22.867  15.291  0.2793  0.0385 -0.1967
42954W        W85945  21.054   3.860  16.446  0.0363  0.1253  0.0365
42955W        W85946   2.939  21.743  26.610  0.1178  0.2127  0.0758
42956W        W85947  24.528  34.277  18.281 -0.0600  0.3375  0.0671
42957W        W85948  21.104  28.997   1.917 -0.1437  0.4596 -0.0207
42958W        W85949  17.935  12.146   7.568 -0.3740 -0.1215  0.1284
42959W        W85950  19.614  33.657  23.523 -0.0551  0.0275  0.0149
42960W        W85951  26.057   1.365  18.541 -0.1310 -0.1597 -0.4941
42961W        W85952  30.544  19.555  27.090 -0.2183  0.1417  0.2404
42962W        W85953   9.289  18.728  20.503 -0.4318  0.1970  0.0439
42963W        W85954   3.154   0.018  25.452 -0.0103  0.2112  0.2534
42964W        W85955   1.805  23.698  17.925 -0.2828  0.0599  0.0011
42965W        W85956  29.711  18.438  18.226  0.1974  0.2350 -0.1649
42966W        W85957  26.320  27.631  17.937  0.0034  0.1197  0.1152
42967W        W85958   4.297  25.393   1.571  0.3443  0.2931  0.0076
42968W        W85959  32.651  33.518   0.485 -0.0114  0.1865  0.2297
42969W        W85960  23.993  24.472  19.664 -0.0927  0.0881  0.3022
42970W        W85961  24.128  25.741   7.952 -0.0265  0.2553 -0.2445
42971W        W85962  19.938  20.741  25.574 -0.2098  0.0762  0.1146
42972W        W85963  31.798  18.351  23.092  0.0785 -0.0390 -0.1612
42973W        W85964  23.248   1.876   0.255 -0.2289  0.0158 -0.1144
42974W        W85965  19.278  34.789  25.544  0.0052 -0.0797 -0.1118
42975W        W85966  28.414   2.831  27.550 -0.1737  0.2326  0.2721
42976W        W85967   0.016  34.614  24.049  0.0814 -0.0348  0.1875
42977W        W85968  19.613  23.387  12.120 -0.2778 -0.2855 -0.3745
42978W        W85969   5.035  30.138  16.646  0.1312  0.2268 -0.2053
42979W        W85970  23.756   9.408  15.565 -0.0459 -0.0385 -0.1162
42980W        W85971  16.520  34.431   2.160 -0.0394 -0.1435 -0.0100
42981W        W85972   4.458   7.481   6.646 -0.1597 -0.0111  0.0298
42982W        W85973  32.988  21.898   9.098 -0.2221  0.0565 -0.0987
42983W        W85974  29.927  22.004   1.166  0.0583 -0.3091  0.4423
42984W        W85975   7.157  20.795  15.739 -0.0861 -0.0241  0.0086
42985W        W85976  25.750  12.885  26.463 -0.1652  0.2217  0.0721
42986W        W85977  31.437   2.900  22.429  0.1189  0.2151  0.2166
42987W        W85978   9.173  16.380  16.581 -0.1812 -0.0453 -0.0162
42988W        W85979   1.019   7.341  17.271  0.0200  0.2965 -0.2314
42989W        W85980  17.559  31.800  22.143 -0.1728 -0.3896  0.1391
42990W        W85981  32.357   9.805   4.984  0.1290 -0.1800 -0.0515
42991W        W85982  24.089  32.661  23.087 -0.1046 -0.0145 -0.1620
42992W        W85983  22.625  14.210  21.069  0.0499 -0.0275 -0.1807
42993W        W85984  24.887   1.018   3.299  0.0503 -0.1032  0.0324
42994W        W85985  31.854   5.303  15.308  0.0457  0.0265  0.2280
42995W        W85986  32.433  25.209  16.011  0.0470  0.1418  0.0682
42996W        W85987  21.237  32.848  21.425 -0.0098 -0.0539  0.0698
42997W        W85988  20.272  26.630  15.192 -0.1126 -0.0977  0.0678
42998W        W85989   5.941  18.593  24.891  0.2847 -0.3373 -0.1918
42999W        W85990  16.761   1.782   8.120 -0.0301  0.2882  0.2683
43000W        W85991  32.525  13.735  16.044 -0.3765  0.0106  0.3052
43001W        W85992   2.808  26.268  21.638 -0.2520  0.4021  0.0642
43002W        W85993  24.944  26.380  26.506  0.2558  0.0565 -0.2308
43003W        W85994  32.638  28.130  21.079  0.1110  0.1599  0.1352
43004W        W85995  30.233  33.871  28.958  0.0722  0.1230 -0.0235
43005W        W85996  29.260  27.510  25.944 -0.0883 -0.2944  0.1782
43006W        W85997  34.522  22.113  24.980  0.2270 -0.1634  0.0506
43007W        W85998  21.320  31.331   5.755  0.0054  0.0344  0.1232
43008W        W85999   6.343  23.727  20.498 -0.1060 -0.1430  0.1494
43009W        W86000  21.847  12.155   7.057 -0.0934  0.3184  0.0039
43010W        W86001  31.038   0.783  24.180  0.0336  0.0082  0.0521
43011W        W86002  19.354  13.609  19.128 -0.0725  0.0650 -0.0132
43012W        W86003  20.189  27.671   1.620 -0.3330  0.2779  0.0094
43013W        W86004  32.511  27.846   3.999 -0.2944  0.0437 -0.3127
43014W        W86005  25.335  30.009   1.455 -0.3548 -0.1931 -0.1404
43015W        W86006   8.427  17.568   5.053 -0.3144  0.0337  0.0930
43016W        W86007   3.560  22.496  17.201  0.0752 -0.0285 -0.1851
43017W        W86008  25.942   2.344  13.942 -0.3765  0.0972 -0.0564
43018W        W86009   3.010   3.411   4.022  0.3112 -0.2671 -0.1303
43019W        W86010   0.138   0.591   3.846  0.0437 -0.0225  0.1435
43020W        W86011  25.682  28.542  17.963 -0.1155 -0.0669  0.1325
43021W        W86012  32.445  16.145  22.705 -0.1157 -0.2932  0.2275
43022W        W86013  24.263  31.109   0.033  0.0398  0.0888  0.1325
43023W        W86014   1.226   5.243   4.961 -0.0933 -0.1718  0.0166
43024W        W86015  18.578  27.148  22.811 -0.0992  0.1240 -0.1374
43025W        W86016  20.392   0.929  14.131 -0.1499  0.3127  0.1308
43026W        W86017   0.137  31.756  16.445 -0.2726  0.2707 -0.1382
43027W        W86018  27.454  27.957   3.852  0.1198 -0.5391 -0.1023
43028W        W86019  32.271  31.297   9.734  0.3602 -0.5095  0.0705
43029W        W86020  30.143   6.295  14.408  0.0976  0.1171  0.2270
43030W        W86021   1.266   5.636  17.627 -0.0167 -0.2778 -0.1519
43031W        W86022   1.113   2.597  21.784 -0.1855  0.0952 -0.3274
43032W        W86023  26.651  19.753  13.668  0.2484  0.0140 -0.1387
43033W        W86024   3.543  32.723  18.007  0.1849 -0.0667 -0.1411
43034W        W86025  31.655  26.098   6.785 -0.0562 -0.0526  0.2803
43035W        W86026  30.789  20.438  25.224  0.1995 -0.1487 -0.0143
43036W        W86027  24.632   9.311   2.568 -0.2411 -0.4876  0.1819
43037W        W86028   3.429   1.374  22.758 -0.2652  0.2610  0.0103
43038W        W86029   0.758  20.752   2.532 -0.2314 -0.1417 -0.0347
43039W        W86030  18.546   3.904  24.363  0.0880  0.2447  0.4311
43040W        W86031  22.769  27.014  26.113  0.2200  0.1374 -0.1438
43041W        W86032   2.070  14.772  28.859 -0.3171 -0.0537 -0.0407
43042W        W86033  18.162  33.740  21.707 -0.0673 -0.0779  0.2515
43043W        W86034  27.405  17.945   1.506  0.0178 -0.1360  0.1732
43044W        W86035  24.447  33.167  18.378  0.0683 -0.0253 -0.1675
43045W        W86036   5.123  32.959  20.030  0.1869 -0.1168  0.2668
43046W        W86037  11.015   2.226  19.003 -0.1288 -0.0792  0.1656
43047W        W86038  26.217  18.328   6.974  0.1893 -0.0882 -0.0984
43048W        W86039  20.403  32.296  14.728  0.3094  0.1825  0.2569
43049W        W86040  28.683  17.160  23.261  0.0263  0.2060 -0.3401
43050W        W86041  11.207  27.351  23.444  0.1600 -0.0183  0.0996
43051W        W86042  23.696  21.713  18.738 -0.0754 -0.0914 -0.1279
43052W        W86043   4.248  28.341  19.789  0.2079 -0.1098  0.1706
43053W        W86044   4.189  29.519   0.477  0.0852 -0.4182 -0.2661
43054W        W86045  25.597  28.918   2.546  0.1204  0.3746  0.2316
43055W        W86046  29.724  28.289  25.989  0.0837  0.1347  0.3464
43056W        W86047   1.332  25.466  27.630 -0.1340 -0.2139 -0.2139
43057W        W86048   4.866  29.676  19.360  0.1459  0.1856  0.0815
43058W        W86049  30.506  28.300  15.879 -0.4023  0.1980 -0.1070
43059W        W86050  33.980   2.339  16.636 -0.3455 -0.1734  0.0467
43060W        W86051   3.140  24.506  14.304 -0.0419  0.0735 -0.1229
43061W        W86052  17.992  10.378   8.558 -0.2207 -0.0263 -0.1407
43062W        W86053  31.957   3.877  28.591 -0.0552 -0.1565 -0.0861
43063W        W86054  20.159  21.390   6.294  0.1598 -0.2435  0.1395
43064W        W86055  24.627  23.369   4.428 -0.3181  0.0248  0.1535
43065W        W86056  29.894  34.634  27.418 -0.2690 -0.2742  0.3190
43066W        W86057  16.805  28.297   1.946  0.1136  0.1709 -0.0648
43067W        W86058   7.928  15.549  18.868  0.0350 -0.0602 -0.2222
43068W        W86059  23.134  27.071  27.918 -0.2160 -0.2783 -0.2668
43069W        W86060  25.299  20.003  26.345 -0.1878  0.2870 -0.0109
43070W        W86061  29.189  34.477  13.370  0.1687 -0.1881 -0.1274
43071W        W86062  22.008  29.514  16.416 -0.1128  0.3577  0.0358
43072W        W86063  19.275   1.558  25.244 -0.1032  0.2047  0.1182
43073W        W86064  34.665  22.819   6.197 -0.1983  0.0255  0.1689
43074W        W86065  27.750  28.194  23.659 -0.3578 -0.2627  0.0773
43075W        W86066   6.031  25.740  23.852 -0.0722 -0.1505 -0.0915
43076W        W86067  19.776   9.461   2.081 -0.0389 -0.0313  0.0180
43077W        W86068   2.505  27.769   4.553  0.2713 -0.1120 -0.0502
43078W        W86069   4.017  31.541  19.848 -0.1840 -0.3663 -0.1415
43079W        W86070  22.916  30.083  14.335 -0.0105 -0.2665 -0.1146
43080W        W86071   7.651   0.893   3.068 -0.3759  0.0111  0.1282
43081W        W86072  22.244  26.637  18.061  0.0316  0.0007  0.1203
43082W        W86073  17.202  24.368  23.637 -0.0970  0.3035  0.2347
43083W        W86074   8.252   9.282  26.378  0.1401  0.0586  0.0105
43084W        W86075  20.200  26.636  28.983  0.0231 -0.2126 -0.1111
43085W        W86076  32.840  22.876  25.867  0.1365  0.3296  0.1116
43086W        W86077   4.192  31.490  18.696  0.0080  0.0250  0.2007
43087W        W86078   1.567  20.815  15.779 -0.1157 -0.3941  0.3899
43088W        W86079   3.597  12.451   6.023  0.1042 -0.1517  0.2457
43089W        W86080   4.574  12.689   3.227 -0.3918 -0.1156 -0.1494
43090W        W86081   1.462  25.095  18.878 -0.1693 -0.0738 -0.0399
43091W        W86082   5.874  26.673  19.275 -0.2028 -0.1190 -0.0066
43092W        W86083  17.965  32.919   9.381  0.0138  0.0917  0.0282
43093W        W86084  25.597  28.657  13.725  0.0115  0.3679  0.0038
43094W        W86085  27.885  17.428  22.265  0.1389 -0.1695  0.0395
43095W        W86086   1.015  13.459  26.034 -0.0115  0.2933  0.0262
43096W        W86087  29.475   6.196   4.465  0.1869  0.0211  0.4028
43097W        W86088   4.443  25.768  14.127 -0.0918  0.1236  0.1631
43098W        W86089  26.599   9.926   6.885  0.0076  0.0276 -0.1186
43099W        W86090  30.620  16.261  21.302 -0.4026 -0.4290 -0.2271
43100W        W86091  32.346   1.383   3.659  0.1790 -0.3520  0.2786
43101W        W86092  29.592   2.221  26.882 -0.0225 -0.0349  0.1203
43102W        W86093  32.580  28.684   4.254  0.1928 -0.0097  0.0502
43103W        W86094  22.141   6.545   6.345 -0.0365  0.1570 -0.1045
43104W        W86095  31.799   2.473  14.731 -0.0886 -0.0259  0.0744
43105W        W86096  32.130  11.270  29.250  0.0490  0.0043  0.1033
43106W        W86097  19.777  24.279   9.520  0.1174 -0.2430  0.0151
43107W        W86098  33.258   4.021  19.439  0.0284  0.5165  0.0384
43108W        W86099   1.137  23.388   7.508  0.0392  0.2121  0.0518
43109W        W86100  31.110   4.587  27.195  0.1993 -0.0478  0.3444
43110W        W86101   9.613  21.147   4.948 -0.0017 -0.1856 -0.0311
43111W        W86102  30.105  24.449  21.926  0.1867 -0.1990  0.2355
43112W        W86103  27.682   0.549  20.906  0.1350 -0.0942 -0.2053
43113W        W86104  22.946  21.014   1.156 -0.0459  0.1848 -0.2066
43114W        W86105   8.257   1.339  26.298 -0.2772  0.2763  0.1828
43115W        W86106  23.187   3.191  19.946  0.0821  0.0440  0.2504
43116W        W86107   1.680  24.898   9.184 -0.0229  0.0545 -0.1645
43117W        W86108  17.494  32.860  23.029 -0.2241  0.1894 -0.0234
43118W        W86109   1.975  11.275  25.015 -0.4017  0.0604  0.1375
43119W        W86110  34.069  24.742  15.760  0.0813 -0.2116 -0.2444
43120W        W86111   7.908   1.304   8.103 -0.1270 -0.1038 -0.1010
43121W        W86112   3.651  26.755  20.046 -0.2343 -0.0127 -0.1063
43122W        W86113  22.623  16.265   4.059 -0.1990 -0.1753  0.1681
43123W        W86114   3.287   3.124   5.784  0.0109 -0.2676 -0.3107
43124W        W86115  19.931  32.682   8.209 -0.2706  0.2771 -0.1245
43125W        W86116  24.302   2.074  24.319  0.1936 -0.0938  0.1700
43126W        W86117  31.565  29.484  25.106  0.1655 -0.3593 -0.0590
43127W        W86118  29.158  33.336   8.950  0.1131  0.0965 -0.0381
43128W        W86119   3.479   0.445   9.502 -0.0641 -0.0464  0.0916
43129W        W86120  13.867   7.009  16.380 -0.0806 -0.1958  0.2290
43130W        W86121  33.798   5.400   4.881  0.2357 -0.1045  0.0026
43131W        W86122   1.993  23.775  23.551 -0.0947 -0.2728 -0.0258
43132W        W86123  18.518  24.081  20.548  0.2320 -0.1779  0.1390
43133W        W86124  33.093   1.694   8.605 -0.0572  0.2489 -0.0769
43134W        W86125  28.313  25.376  16.121 -0.2077  0.1347 -0.0507
43135W        W86126  31.048  26.455   7.809 -0.3489  0.0757 -0.1779
43136W        W86127  25.157  31.056  25.499 -0.0759  0.1586  0.0648
43137W        W86128  26.735  20.082   9.505  0.3044 -0.0297  0.1087
43138W        W86129   7.457  25.955  27.997 -0.0670 -0.1152  0.0192
43139W        W86130  12.011  17.763  24.257 -0.1683  0.3166  0.0444
43140W        W86131  14.998  22.437   0.040  0.2946 -0.2417 -0.0240
43141W        W86132  14.179   4.658  27.569  0.0343  0.1897  0.0601
43142W        W86133  21.375  26.777   5.525 -0.0507 -0.0431  0.1503
43143W        W86134   2.334  27.106  21.514 -0.1773  0.0895 -0.0942
43144W        W86135   0.211  33.805  10.139 -0.0361  0.2721  0.0907
43145W        W86136  32.340   0.476   4.208  0.1766 -0.0364 -0.5390
43146W        W86137  29.063  28.949  17.160  0.0990  0.0565  0.0973
43147W        W86138   3.603  11.556  24.767  0.0272 -0.1931 -0.2973
43148W        W86139   8.755  14.216  28.889  0.3713 -0.1241 -0.0331
43149W        W86140  23.116  32.430  12.849 -0.1381 -0.1781 -0.2599
43150W        W86141   2.163  22.870  18.890 -0.0260  0.2535 -0.0923
43151W        W86142  26.548  22.592  26.816  0.0093 -0.4202  0.1460
43152W        W86143  19.306   1.263  27.379 -0.2277 -0.0534 -0.4398
43153W        W86144  17.250  29.160  19.367 -0.0456  0.1760 -0.0357
43154W        W86145  28.584   5.237   6.272 -0.0218 -0.0005  0.0934
43155W        W86146   7.717  25.264  25.404 -0.0785 -0.0909  0.0456
43156W        W86147  29.104   7.573  21.728 -0.1159 -0.2402  0.1348
43157W        W86148  31.624   3.874  22.332  0.0880 -0.4210  0.0810
43158W        W86149   0.374  28.121  18.062 -0.0176  0.0789  0.0144
43159W        W86150   9.190  24.043  14.639 -0.0581 -0.0977  0.2421
43160W        W86151  34.410   1.569   5.612  0.3252  0.0628 -0.2122
43161W        W86152   4.334  29.500  23.304  0.0818  0.0823  0.0845
43162W        W86153  19.752  33.947   5.294 -0.3394 -0.1380 -0.1858
43163W        W86154   0.623  26.198  21.114 -0.0502 -0.1406  0.1603
43164W        W86155   4.572   7.181  19.759 -0.1522 -0.1936  0.2127
43165W        W86156  28.812  31.406  24.025 -0.0261 -0.2117 -0.2801
43166W        W86157  30.134   9.814   2.357  0.1605  0.5141 -0.3706
43167W        W86158  26.382  20.721  16.421 -0.0754  0.1143 -0.1026
43168W        W86159  15.281  24.604  21.140  0.2459 -0.4081 -0.1092
43169W        W86160  18.541  33.540  17.086  0.1116 -0.0567 -0.0143
43170W        W86161  30.870  31.087  19.749 -0.3357  0.1117  0.1652
43171W        W86162   5.066  31.090  20.303 -0.1259 -0.3524 -0.3211
43172W        W86163  33.226  22.230   1.874 -0.1297  0.0850  0.1174
43173W        W86164  28.781  30.558  28.246 -0.1285  0.0956 -0.3525
43174W        W86165  10.985  22.827   0.389 -0.1847 -0.0132 -0.1630
43175W        W86166  26.492  16.281  27.876  0.2382  0.0787 -0.0474
43176W        W86167  23.948  14.871  21.978  0.1134  0.0212  0.0116
43177W        W86168   8.079  20.422  17.178 -0.1342 -0.3230 -0.0558
43178W        W86169  13.010   9.204  22.999 -0.1630  0.0599  0.0565
43179W        W86170   3.582   4.771  28.151  0.3680  0.0753  0.0790
43180W        W86171  27.286  25.275  17.791  0.1654  0.0165 -0.0394
43181W        W86172  17.160   8.715   7.519  0.0339 -0.0066  0.1157
43182W        W86173   4.569  24.580   2.284  0.1744 -0.1916  0.0250
43183W        W86174   6.512  22.020   0.304  0.2573 -0.0485  0.1312
43184W        W86175  15.596  28.856   4.017 -0.1881 -0.2987  0.1250
43185W        W86176  11.016   2.153  26.757 -0.0217 -0.1283  0.1571
43186W        W86177   8.812  29.689  29.164 -0.0928  0.0268 -0.4116
43187W        W86178   0.743   6.935  16.018  0.0771 -0.0122  0.1312
43188W        W86179  30.829  28.870  18.957  0.0739 -0.3034 -0.2246
43189W        W86180  30.093  31.262  27.754 -0.4081  0.1579  0.0141
43190W        W86181  28.264  10.978   2.240 -0.2436 -0.4510  0.1614
43191W        W86182  20.710  34.669   1.136  0.0107 -0.2363 -0.0496
43192W        W86183  23.373  31.676  22.690  0.0575  0.0920  0.0185
43193W        W86184   3.304  23.750   2.328  0.0160  0.0216  0.1178
43194W        W86185   3.303  17.568   7.548  0.1709 -0.2228  0.1096
43195W        W86186  17.230  10.142  28.923  0.0326  0.2599  0.0665
43196W        W86187  21.339  13.566  17.389  0.2546  0.2041 -0.0743
43197W        W86188   3.252   0.459  25.742  0.2780  0.2015 -0.0215
43198W        W86189  26.104  20.470   2.115 -0.1150  0.2159  0.3340
43199W        W86190  28.981  34.686   3.925  0.2095  0.0051  0.2806
43200W        W86191  27.173  19.624   6.973 -0.1873  0.0824 -0.1035
43201W        W86192  22.724  14.359   7.724  0.1459 -0.0923 -0.1153
43202W        W86193  30.582  29.372  19.251 -0.0007 -0.0973 -0.4140
43203W        W86194  29.735  34.031  13.879 -0.0473  0.1968 -0.0929
43204W        W86195  13.044   7.764  27.151  0.3521  0.1094 -0.0072
43205W        W86196  32.361  22.639  27.219  0.0969 -0.1617  0.0248
43206W        W86197  12.933  20.575   1.755  0.2328  0.1246  0.1652
43207W        W86198  24.008  24.567  27.710 -0.0256  0.0996 -0.1864
43208W        W86199  24.424   8.990  26.352 -0.1069 -0.0312  0.0084
43209W        W86200   3.991  34.282   0.831 -0.2250 -0.3164  0.2139
43210W        W86201  31.589  12.887  16.800  0.0982  0.0613 -0.1426
43211W        W86202  30.988  32.773  20.041  0.0938 -0.0969  0.1944
43212W        W86203  34.164   6.115  28.614  0.0810 -0.0955 -0.0696
43213W        W86204  32.086  26.132   6.376  0.5607  0.0154  0.1882
43214W        W86205   7.026  30.585  16.316  0.0827 -0.1029  0.1241
43215W        W86206  29.259  24.258   4.561 -0.1171 -0.2120 -0.3785
43216W        W86207  13.069  24.143  25.386 -0.2027  0.0469 -0.1250
43217W        W86208  27.168   3.034  15.392  0.0663  0.1953 -0.0691
43218W        W86209   1.547  27.414  18.710  0.1580 -0.0903  0.0371
43219W        W86210  32.348  25.517  26.811  0.2383 -0.1289 -0.1598
43220W        W86211  28.995   0.887   1.383  0.2707  0.1250  0.1076
43221W        W86212  15.737   3.302  19.566 -0.1094 -0.2017 -0.1714
43222W        W86213  17.858  21.921   0.729 -0.1350  0.3786  0.0211
43223W        W86214  34.533  22.549  17.285 -0.0001  0.0487  0.0900
43224W        W86215  32.083   1.567  14.070  0.1164  0.2116 -0.1508
43225W        W86216   4.278  25.703  23.510 -0.0539 -0.0866  0.1126
43226W        W86217  22.369  32.050  23.760  0.0395  0.0940 -0.0533
43227W        W86218  10.130  22.486   2.149  0.3295  0.0293  0.2211
43228W        W86219   5.085  12.541  25.710 -0.0154 -0.0017  0.0895
43229W        W86220  27.717  32.992  28.792 -0.1061  0.1248 -0.0787
43230W        W86221  26.968  21.540   5.282  0.1192  0.0069 -0.1684
43231W        W86222  24.897  28.792  24.075 -0.1974 -0.2629  0.0300
43232W        W86223  12.900  27.553   6.863 -0.1153 -0.0027  0.1360
43233W        W86224  14.304  28.729  14.652  0.2002  0.1283 -0.2037
43234W        W86225   4.353   8.550  17.497  0.0974  0.2186  0.1356
43235W        W86226   5.277  16.418  23.011  0.0465 -0.1840  0.1368
43236W        W86227   0.760  12.944   2.576 -0.0991 -0.3267  0.1353
43237W        W86228  12.373  12.587   5.321  0.1999 -0.0609  0.2681
43238W        W86229   6.379   3.440  26.617 -0.3634 -0.2305  0.2134
43239W        W86230  23.829  32.533  29.070  0.3459 -0.2894 -0.0838
43240W        W86231   0.683  13.519  28.039 -0.0932  0.2196 -0.0025
43241W        W86232  33.807  13.355  26.215 -0.1559  0.3732 -0.2694
43242W        W86233   7.383  26.544  22.094 -0.1429  0.2935 -0.1433
43243W        W86234  27.409   8.935  16.528 -0.2429  0.0629  0.0664
43244W        W86235   3.071  34.417  24.406 -0.2151 -0.0555 -0.1747
43245W        W86236  31.111   8.400  15.443  0.0686  0.0765  0.2654
43246W        W86237  25.398  12.001  27.460 -0.0565 -0.0898  0.1829
43247W        W86238   7.900   9.729   0.714  0.0987  0.2646  0.0595
43248W        W86239   8.828  29.811   3.802 -0.0478  0.0537  0.1643
43249W        W86240  28.922  26.447  18.328  0.0487 -0.3457 -0.0671
43250W        W86241   8.445  21.568   2.548 -0.0782  0.2515 -0.0275
43251W        W86242  25.238  31.104  13.138  0.2389  0.1898 -0.1715
43252W        W86243   2.825   1.493   3.204  0.1000 -0.0902 -0.3905
43253W        W86244  10.560  33.069  26.180  0.0458  0.0251 -0.1461
43254W        W86245  25.751  23.279   2.505  0.3841 -0.0228  0.0508
43255W        W86246   1.224  33.393  24.767 -0.2164 -0.3396  0.1412
43256W        W86247  20.355  12.013   6.405  0.0599  0.2515  0.1645
43257W        W86248  11.234  14.765  25.820 -0.0708  0.1759 -0.1552
43258W        W86249  28.004   8.678  28.831 -0.0892  0.0820 -0.2304
43259W        W86250  30.555  32.144   8.652 -0.1832 -0.0346  0.0973
43260W        W86251   7.852  20.943  28.631 -0.2725  0.2933 -0.3019
43261W        W86252  17.638  16.605   4.436 -0.1288 -0.1417  0.1088
43262W        W86253   0.210  18.646  19.126  0.1440 -0.1071  0.0690
43263W        W86254   6.149  10.759  19.543  0.0388  0.0240  0.1552
43264W        W86255   2.918  24.031  23.138 -0.1529 -0.2316  0.2632
43265W        W86256  25.350  32.485  13.192 -0.0852 -0.1213  0.1221
43266W        W86257   0.999  29.704  25.902 -0.3024  0.0370 -0.0590
43267W        W86258  28.164  21.841   8.799 -0.0637  0.0327 -0.1465
43268W        W86259   7.001   9.891  22.616 -0.3024  0.0744  0.0607
43269W        W86260   6.910  19.085   1.131  0.2562  0.2714 -0.1357
43270W        W86261  23.160  18.479  18.820 -0.3481  0.0919 -0.2366
43271W        W86262   9.259  34.335  27.999  0.0254 -0.1902 -0.2581
43272W        W86263   6.060  28.686  18.900 -0.0180 -0.0259  0.4021
43273W        W86264  24.363  23.530   8.286  0.0925  0.0978  0.0549
43274W        W86265  13.061  31.355   7.786 -0.0097 -0.1846 -0.1291
43275W        W86266   4.769  30.809  26.113 -0.0915  0.1357  0.2040
43276W        W86267  26.280  26.032   7.287  0.0950 -0.1400 -0.0547
43277W        W86268  27.234  20.252  15.460  0.0957 -0.1904 -0.1415
43278W        W86269  33.804   0.775  26.087 -0.0461  0.1433 -0.0436
43279W        W86270   7.625   4.690   3.792 -0.1201 -0.0690 -0.1533
43280W        W86271   6.634   2.309  10.444 -0.1603  0.2867  0.1405
43281W        W86272   6.334   2.219   3.429 -0.1237  0.3318  0.2014
43282W        W86273  32.519   5.997  16.219 -0.3071  0.1828  0.2568
43283W        W86274  24.329  33.447   3.230 -0.1364 -0.0365  0.1003
43284W        W86275  19.908   5.498  18.567  0.2231  0.1750  0.2656
43285W        W86276  27.146  25.720   9.468 -0.0342 -0.2350 -0.2233
43286W        W86277  22.123  16.832   3.714  0.3281 -0.0497 -0.0522
43287W        W86278  32.424  26.367  28.991 -0.2659  0.0072  0.1398
43288W        W86279  30.332   9.993  15.679  0.2482  0.1850 -0.1980
43289W        W86280   1.596  32.140   1.326  0.2644  0.0973 -0.1149
43290W        W86281  17.774   0.705  25.455  0.3204  0.0356 -0.3776
43291W        W86282  34.696   2.404   9.760  0.0730  0.1758  0.1496
43292W        W86283  20.840   5.987  28.762  0.0433  0.1475  0.0657
43293W        W86284  33.645  17.303  21.223 -0.0114  0.0534 -0.1131
43294W        W86285  13.760   1.298   2.701 -0.1878 -0.2749  0.2466
43295W        W86286  16.249   2.276   3.479 -0.3561 -0.0038 -0.1360
43296W        W86287  24.896  29.570  24.637 -0.2502  0.0364 -0.0805
43297W        W86288   1.839  16.603  28.139 -0.2369 -0.1749 -0.2480
43298W        W86289  33.251   6.242  16.406  0.0473 -0.1383 -0.2663
43299W        W86290   7.752   7.551  27.614  0.0962 -0.1156 -0.0915
43300W        W86291   5.200  19.123  25.637 -0.2722  0.1419  0.0791
43301W        W86292  22.111  23.177  15.022 -0.0971 -0.3121 -0.2608
43302W        W86293  21.557  25.790   7.672 -0.2019  0.2040 -0.0024
43303W        W86294  34.583  33.481   3.949  0.1111  0.0742 -0.0418
43304W        W86295  30.567  17.222  17.061 -0.0122 -0.0117 -0.1373
43305W        W86296   9.116  33.871   1.445 -0.0667 -0.0747  0.2511
43306W        W86297  31.098  19.016  16.011  0.0531 -0.1365 -0.2227
43307W        W86298  30.006  33.315  17.096  0.0283 -0.2205  0.3572
43308W        W86299  14.381  19.461   7.018  0.0564  0.2605 -0.1805
43309W        W86300  23.151  10.821  19.429 -0.0658 -0.0905 -0.2809
43310W        W86301  26.728   2.809  20.419  0.2804 -0.0032 -0.1084
43311W        W86302  34.591   5.894  20.207  0.0662 -0.1010 -0.1150
43312W        W86303   1.306  31.493  27.508  0.0653 -0.0380  0.2831
43313W        W86304   6.049   9.061  16.656  0.0175 -0.1111 -0.1031
43314W        W86305  30.025   3.443   7.205 -0.2441 -0.3052 -0.2818
43315W        W86306  34.663  30.572   9.769  0.0339  0.2961  0.0644
43316W        W86307   4.295  18.107   4.603  0.1979 -0.2538 -0.4375
43317W        W86308  26.479  29.214  23.895  0.1140  0.0704  0.1502
43318W        W86309  27.040   3.902   1.173 -0.1017 -0.1110  0.0774
43319W        W86310  14.106  19.208  23.421  0.3030  0.1098  0.2486
43320W        W86311   5.020  26.131  19.133  0.2174  0.0444 -0.0540
43321W        W86312  26.409  23.891  13.964 -0.1342 -0.0171 -0.1189
43322W        W86313  14.145   1.603  18.068 -0.0179  0.1346 -0.1864
43323W        W86314  26.644  18.970   4.720 -0.2570 -0.2562  0.0844
43324W        W86315  27.270  26.516   1.258  0.1314 -0.0980 -0.0187
43325W        W86316  31.538  30.998  24.975 -0.1263  0.0323 -0.1428
43326W        W86317  11.061  14.735  24.848  0.0944 -0.0968 -0.2403
43327W        W86318  32.820   4.694  15.181 -0.0141  0.0598  0.0763
43328W        W86319  34.580  23.420  16.339  0.0318 -0.0632 -0.0553
43329W        W86320  21.949  28.520  26.874  0.0794 -0.0850 -0.0805
43330W        W86321  16.253  15.335  25.130 -0.2418  0.0094 -0.2662
43331W        W86322  12.298  22.197   2.130 -0.2387  0.1386  0.1590
43332W        W86323  29.444   9.049   0.282 -0.1746  0.1743 -0.2338
43333W        W86324  13.905  26.405  27.822  0.0571 -0.5018 -0.4369
43334W        W86325   7.493  23.208  16.347 -0.0452  0.0063  0.1405
43335W        W86326  20.697  16.970   0.339  0.1574 -0.1635  0.0943
43336W        W86327   5.677   3.703  18.217 -0.1001 -0.0807  0.2796
43337W        W86328  29.907   4.719  20.516  0.4102  0.2921 -0.0286
43338W        W86329  33.149  33.020  24.981 -0.1516  0.0541  0.0810
43339W        W86330  31.321  33.812  15.842 -0.0648  0.3107 -0.0468
43340W        W86331  14.599  34.259  27.933 -0.2222  0.3365 -0.1665
43341W        W86332  28.814   0.138   8.147 -0.5217 -0.0392 -0.2591
43342W        W86333  29.364  24.809  14.956 -0.0874  0.1792  0.3719
43343W        W86334  21.469  21.201  16.031  0.1708 -0.1244 -0.1174
43344W        W86335  29.716   0.803  24.916 -0.1754 -0.0247 -0.0790
43345W        W86336  15.991   8.753  23.084 -0.0305  0.1639 -0.0743
43346W        W86337   2.403   7.723   0.873  0.1612 -0.1427  0.2095
43347W        W86338   4.543   0.258  22.413 -0.1056  0.1842  0.3314
43348W        W86339  30.577  33.005   6.671  0.0023 -0.3130  0.0223
43349W        W86340  29.255  15.237   0.316 -0.3162  0.2328 -0.0053
43350W        W86341  34.074  11.901  23.338 -0.2556  0.1450 -0.1329
43351W        W86342  21.823  18.318  22.164 -0.3540  0.0300  0.1225
43352W        W86343  30.740  16.167  29.133  0.2234  0.2083  0.0564
43353W        W86344   4.515   4.364   0.078  0.0215  0.0102 -0.2812
43354W        W86345  32.745  32.336  16.619 -0.1045 -0.0738 -0.1158
43355W        W86346   1.422  23.230  20.065 -0.3709 -0.0600  0.1340
43356W        W86347  28.883  29.914  27.332  0.0450  0.0210  0.2845
43357W        W86348   1.513   3.958   1.646 -0.3055 -0.1824 -0.0962
43358W        W86349  30.695  33.070  13.658 -0.0108  0.3177  0.4151
43359W        W86350  27.442  26.761   5.352  0.2000  0.3808 -0.5488
43360W        W86351  32.034  11.623  18.360 -0.0391 -0.3320 -0.2671
43361W        W86352  27.310  33.185   2.446 -0.1544 -0.0535 -0.4174
43362W        W86353   9.342  33.783  22.080 -0.1905 -0.2123 -0.3858
43363W        W86354  30.236  33.354  28.802 -0.3395  0.2123  0.1424
43364W        W86355   3.264  16.631  22.010  0.0473 -0.1369  0.0234
43365W        W86356  18.360  28.564   2.098  0.0483  0.2929 -0.1225
43366W        W86357  31.612  25.564   1.882 -0.1774 -0.3567  0.1620
43367W        W86358  10.310  24.466  27.265  0.0723 -0.0368  0.0145
43368W        W86359  31.082  32.786  23.121 -0.0394 -0.1426  0.1383
43369W        W86360  14.205   6.881  29.177 -0.0329  0.0678 -0.1977
43370W        W86361  21.657  27.771  17.335  0.2342  0.1983 -0.0349
43371W        W86362  31.007  24.488   8.485 -0.7097 -0.2442 -0.0886
43372W        W86363   1.501  33.280   3.852  0.0280 -0.1633  0.1533
43373W        W86364   8.592  26.396   9.971  0.2176 -0.2815  0.2531
43374W        W86365  16.772  25.827  17.801  0.1351 -0.4647  0.0015
43375W        W86366   5.475  15.130   0.848  0.1709  0.2456  0.0647
43376W        W86367  27.779   3.064  20.260 -0.2197 -0.0080 -0.1413
43377W        W86368   9.258  23.377  15.410 -0.1512  0.0902  0.0113
43378W        W86369  32.672   3.256  27.360 -0.0509 -0.0699 -0.0727
43379W        W86370  27.920   8.036  25.803  0.0947  0.2024 -0.2489
43380W        W86371  12.225   5.339  27.746  0.0435 -0.2328  0.0218
43381W        W86372   2.015  33.062   6.723  0.0625 -0.2306  0.1799
43382W        W86373  23.662  30.889  15.222 -0.2032  0.0665 -0.1893
43383W        W86374  10.538   7.469  21.605 -0.0389 -0.0894 -0.0800
43384W        W86375   7.010  18.702  28.002 -0.1417  0.0150  0.2914
43385W        W86376   0.290  23.084   5.803 -0.0843 -0.0701 -0.0945
43386W        W86377  29.615  24.272  26.700  0.3088 -0.0527  0.0408
43387W        W86378  14.010   0.844  16.871  0.0690 -0.4537 -0.4355
43388W        W86379  11.726   9.283   8.624  0.4468 -0.2215  0.2158
43389W        W86380  23.691  12.414  16.667  0.0257  0.1796  0.5810
43390W        W86381  18.606  19.025   4.256  0.1789 -0.2142 -0.0239
43391W        W86382  27.723   6.182  24.112 -0.2578 -0.1259  0.2714
43392W        W86383  30.992   9.247   6.353  0.0200  0.1662  0.0863
43393W        W86384   1.295  31.248   5.461 -0.3123 -0.3486  0.0623
43394W        W86385   3.355  25.747   3.792 -0.1565 -0.0144  0.1926
43395W        W86386   2.988   6.525   7.702 -0.1923  0.0509  0.1260
43396W        W86387  17.012  32.656  27.721  0.0906 -0.1785  0.3702
43397W        W86388  33.005  24.459   9.587 -0.1252 -0.1160 -0.2089
43398W        W86389   4.673   6.363  29.086 -0.0324  0.2011  0.0824
43399W        W86390  27.973  19.219  28.160 -0.0118 -0.0010 -0.0487
43400W        W86391   1.662  22.112  15.568 -0.0573  0.2539  0.0042
43401W        W86392  29.934  25.271  23.224  0.1632  0.1104 -0.1221
43402W        W86393  13.037   1.440  21.504  0.2020 -0.1215  0.1419
43403W        W86394   8.552   1.440  21.096 -0.1211 -0.0237  0.2845
43404W        W86395  12.420  24.957  26.104  0.0743  0.0257  0.0374
43405W        W86396  33.130  21.981   2.305 -0.0241 -0.2547 -0.3675
43406W        W86397  22.326  21.200  25.631 -0.1090  0.0938  0.0597
43407W        W86398  33.216  19.606   9.922 -0.2861  0.0946  0.2119
43408W        W86399  30.746  18.027  15.553  0.0283 -0.1048  0.1600
43409W        W86400  15.870  27.841   0.786  0.1189 -0.0905  0.1475
43410W        W86401  30.315  29.095   4.652 -0.2500  0.2235 -0.1859
43411W        W86402  29.589  23.708   7.579  0.1683  0.0782 -0.1307
43412W        W86403  16.871  20.166  23.316  0.0649 -0.0943 -0.0261
43413W        W86404   0.547  27.268   0.774 -0.1541  0.0196  0.1024
43414W        W86405  24.089  29.777  25.761  0.0308  0.1482  0.0056
43415W        W86406   0.980  27.475   6.156 -0.1322  0.0200 -0.3316
43416W        W86407  31.188  29.633   4.371 -0.2065  0.0848 -0.0450
43417W        W86408  15.673   3.941  23.949 -0.0073 -0.1624 -0.1733
43418W        W86409  17.591  27.639  14.411 -0.4151  0.0162  0.1173
43419W        W86410  30.722   0.866  29.056 -0.0430 -0.0321  0.3997
43420W        W86411  12.123  18.880  21.895  0.0138  0.1048  0.0595
43421W        W86412   5.907  19.041  23.938  0.1586 -0.1007 -0.0475
43422W        W86413  21.713   1.991   2.875 -0.3827  0.1013 -0.1328
43423W        W86414  19.543  20.536   3.533  0.0177 -0.0842 -0.0648
43424W        W86415  32.564  17.814   7.371 -0.0691 -0.2938  0.0710
43425W        W86416  34.145  27.668   1.906  0.1865  0.2229  0.0433
43426W        W86417  25.595  17.386   9.041 -0.0742  0.2392 -0.1217
43427W        W86418  28.658  21.411  14.364 -0.1204 -0.1498  0.1325
43428W        W86419  20.541   9.883  15.764  0.2436  0.0015 -0.1211
43429W        W86420  31.778  29.184   6.591  0.0384 -0.1114 -0.2108
43430W        W86421   3.367  26.239  15.722  0.2321 -0.0200 -0.0079
43431W        W86422   0.303  22.480   2.954 -0.2206  0.2368 -0.3354
43432W        W86423   5.765  29.771  21.400  0.0317  0.1500 -0.0732
43433W        W86424   1.565  32.279   2.314  0.3836  0.0133 -0.0243
43434W        W86425  23.364  17.168   5.079 -0.0928 -0.0792 -0.0256
43435W        W86426  33.613  10.720  27.069 -0.2463 -0.0384  0.0850
43436W        W86427  24.479  24.696  28.814  0.1929  0.0116  0.1246
43437W        W86428  32.869  31.454  20.617 -0.1827 -0.0130 -0.0315
43438W        W86429  15.354  22.779   1.713 -0.0929  0.2878 -0.0759
43439W        W86430  13.230   1.197  28.574  0.0433  0.4121  0.3700
43440W        W86431  31.352  16.481   7.341  0.0873 -0.1095 -0.0156
43441W        W86432  25.133   6.443   1.812 -0.2387 -0.3074  0.0677
43442W        W86433   3.954  25.156  16.233  0.0941  0.2403  0.0195
43443W        W86434  27.316  17.480  23.537 -0.2431  0.2569  0.0579
43444W        W86435   0.112   0.496  16.625 -0.1608 -0.1303  0.0804
43445W        W86436  30.157  30.566  23.183  0.0996  0.0682 -0.2616
43446W        W86437   1.823  19.681  28.754 -0.0175 -0.0911  0.0624
43447W        W86438  29.819   7.872  29.062 -0.0701 -0.0278  0.1622
43448W        W86439   4.974   8.731   4.063  0.1259  0.0260 -0.0212
43449W        W86440  34.129  13.830  28.264 -0.2541  0.3705 -0.3112
43450W        W86441   3.561  33.889   9.102 -0.3317 -0.1296 -0.4458
43451W        W86442  14.403  20.871  25.449  0.0670 -0.2184  0.2157
43452W        W86443  26.101  23.310   8.646 -0.1712 -0.1549  0.4114
43453W        W86444  34.307  33.927  26.948 -0.0239  0.1156  0.0497
43454W        W86445  29.109  30.378  21.005  0.2573 -0.0056 -0.0109
43455W        W86446  27.997  33.645  16.639 -0.0272  0.1677  0.5778
43456W        W86447   9.360  10.637  19.884 -0.1310  0.0189  0.2827
43457W        W86448  22.802  23.768  14.401  0.0544  0.4156 -0.3987
43458W        W86449  32.295  26.895  17.501  0.2334 -0.0830  0.1593
43459W        W86450   6.493  31.112  15.615  0.0287  0.0639  0.1456
43460W        W86451  31.230   2.833   2.820 -0.0233  0.2020  0.4580
43461W        W86452  27.604   1.868  21.523 -0.1375  0.2427  0.0920
43462W        W86453  33.386  24.619  17.984 -0.0048  0.0686 -0.1409
43463W        W86454   4.295  22.208  24.397 -0.4065  0.0186  0.0023
43464W        W86455  18.344  25.271  26.382 -0.1791  0.2370 -0.1831
43465W        W86456   5.232  19.873  28.155 -0.0712  0.0182 -0.0879
43466W        W86457  31.496   6.638  28.324  0.0511  0.3157  0.1128
43467W        W86458  29.493  27.432  18.338 -0.0530 -0.2283 -0.1777
43468W        W86459  27.870  21.084   8.855  0.1623  0.0605 -0.1347
43469W        W86460   2.516  17.973  21.175 -0.0132 -0.0343 -0.2428
43470W        W86461  33.582  20.482  25.139 -0.0580  0.1189  0.1938
43471W        W86462  20.279   0.207  24.694  0.1484  0.0892  0.0614
43472W        W86463   6.308  31.757   9.101 -0.0354  0.1376 -0.0491
43473W        W86464  19.299   0.036  21.186  0.1408 -0.1762 -0.1096
43474W        W86465  26.518  26.178   7.688 -0.1879 -0.0484 -0.1106
43475W        W86466  21.082  34.056   7.105  0.2374 -0.0047 -0.0322
43476W        W86467   8.074   8.340  20.095 -0.2503  0.0591  0.1436
43477W        W86468  10.938   1.688   4.289 -0.1733  0.2358 -0.5551
43478W        W86469   3.596  30.691  24.822  0.1278 -0.0758  0.0869
43479W        W86470  34.340  13.367  26.053  0.3831 -0.1828  0.1848
43480W        W86471   1.840  30.009   1.770 -0.1068 -0.1406  0.3189
43481W        W86472  27.027  28.456   6.020  0.1205 -0.1166  0.1324
43482W        W86473  27.861  32.353   7.356 -0.1138  0.0817  0.0732
43483W        W86474  33.859  31.966  27.353  0.0624 -0.3399 -0.2620
43484W        W86475  23.618  27.744  19.801  0.1360 -0.0864  0.0033
43485W        W86476   1.603   2.336  16.565  0.2496  0.0561 -0.0652
43486W        W86477  31.248  24.615   4.057  0.2869  0.1514 -0.0066
43487W        W86478  28.160   6.802  27.099  0.1612  0.0154 -0.0001
43488W        W86479  20.139  23.200  25.877 -0.0141  0.0890  0.0457
43489W        W86480  20.663   5.084  15.364  0.2881 -0.1768  0.0324
43490W        W86481   5.614   6.347   0.379  0.1844 -0.3800  0.2860
43491W        W86482  29.115  20.175   6.974  0.0539  0.0499 -0.1392
43492W        W86483  30.659  24.925  24.485  0.3122 -0.3156  0.0955
43493W        W86484   7.498   1.194   7.303  0.1695 -0.2182  0.0259
43494W        W86485  32.168  29.235   3.503  0.0348 -0.0121 -0.1322
43495W        W86486   2.945  12.431   4.821  0.1551 -0.0001  0.2677
43496W        W86487  31.170  13.424   0.168  0.1000  0.1551 -0.1155
43497W        W86488  25.974   5.410  17.547 -0.2006 -0.2736  0.0614
43498W        W86489   7.523  18.657   3.902  0.1148 -0.1041  0.3460
43499W        W86490  17.731  23.884  20.172  0.0600 -0.5029  0.0140
43500W        W86491  30.090   0.699  25.240 -0.1438  0.0528  0.2632
43501W        W86492  33.951  28.716  19.277  0.2317  0.3169  0.4041
43502W        W86493  31.665  27.665  25.710 -0.1154  0.0931 -0.1773
43503W        W86494  32.814  13.515  10.551 -0.0808 -0.3958 -0.1195
43504W        W86495  25.192  32.797  24.250  0.2243 -0.1155  0.0520
43505W        W86496  31.446   3.636   7.692 -0.0508 -0.0307 -0.0157
43506W        W86497  33.058  31.383  24.236 -0.0996  0.1944  0.0127
43507W        W86498  25.980  12.896   7.939 -0.1568 -0.0502  0.2450
43508W        W86499  20.306  32.954  17.632  0.2009 -0.0673  0.1528
43509W        W86500   1.723  18.890  23.902  0.0820  0.2203 -0.0381
43510W        W86501   0.835   9.886  24.765 -0.1138 -0.0611  0.0459
43511W        W86502  26.541  27.982  26.126 -0.1441  0.0556 -0.0013
43512W        W86503  31.037  30.914  21.676 -0.1623 -0.3960 -0.0489
43513W        W86504   9.654   2.886   8.950  0.0387 -0.3715  0.2591
43514W        W86505  18.903  29.986  26.335  0.2426 -0.0422 -0.0746
43515W        W86506  33.095   2.368  19.578  0.0449 -0.0920  0.2069
43516W        W86507  17.803   2.173   3.884 -0.0865  0.4413 -0.0849
43517W        W86508  18.515  19.108  14.470 -0.0598  0.0173  0.3440
43518W        W86509  26.186  15.701  23.701 -0.0367  0.1629  0.0552
43519W        W86510  18.992  32.839  27.245  0.0280  0.1042  0.0879
43520W        W86511  10.941  18.761  24.492  0.1032  0.0517 -0.2848
43521W        W86512   8.188  20.386  23.894 -0.0427 -0.0193  0.0047
43522W        W86513  29.349  21.711   2.751 -0.1128 -0.2553  0.3777
43523W        W86514  25.269  25.499   9.248 -0.2244 -0.2776 -0.0433
43524W        W86515  19.506  25.980  20.133  0.0022 -0.1162  0.0854
43525W        W86516  10.262  21.653   9.513 -0.0482  0.2399  0.2077
43526W        W86517  17.915  23.342  21.602  0.0269 -0.2130  0.1547
43527W        W86518   5.845  17.988   8.947  0.0525  0.5316  0.0000
43528W        W86519  34.004  29.461   4.217 -0.1686  0.0966 -0.0095
43529W        W86520   0.231  32.781   0.267  0.1605  0.1071  0.1267
43530W        W86521   5.235  31.234  28.240 -0.1572  0.1579 -0.2112
43531W        W86522  32.570  28.759   2.223  0.1403  0.0517  0.1418
43532W        W86523   2.409  11.805   0.956 -0.2636  0.2076 -0.1193
43533W        W86524  31.322   4.223  21.190 -0.0763 -0.1028 -0.2323
43534W        W86525  26.707  23.477   2.533 -0.2916 -0.1134  0.1429
43535W        W86526  28.857  30.462   5.512 -0.3779 -0.1513  0.0912
43536W        W86527   5.196   0.464  16.232  0.0030 -0.0205  0.0735
43537W        W86528  26.499  27.768   5.572  0.0539 -0.0690 -0.1139
43538W        W86529   2.169  17.613   8.727  0.0887 -0.0970 -0.1565
43539W        W86530   4.759   3.254   1.214 -0.1472  0.0828  0.1096
43540W        W86531   3.150  16.165  10.025 -0.0840 -0.1215  0.2290
43541W        W86532  24.807  11.283  10.217  0.0465 -0.2929 -0.2801
43542W        W86533  12.369  23.584  27.786 -0.2096  0.2072  0.0161
43543W        W86534  34.794  31.325  25.561  0.0762  0.1354 -0.1045
43544W        W86535  30.954  29.905   8.333 -0.0546 -0.3285 -0.4455
43545W        W86536  33.796  26.864  20.002  0.2904 -0.0301 -0.2074
43546W        W86537  13.655   2.715  15.326  0.1925  0.2527  0.1390
43547W        W86538  28.426  24.633   7.755 -0.1414 -0.0353  0.2918
43548W        W86539  17.509  25.546  19.979  0.0866 -0.4023 -0.2583
43549W        W86540  24.506  24.988   0.760 -0.0888 -0.1878 -0.1096
43550W        W86541  33.791   2.831  25.855  0.1424 -0.0505 -0.2721
43551W        W86542  13.938  21.628   1.179 -0.2471 -0.2626 -0.0174
43552W        W86543  20.399  20.701  20.558 -0.0233 -0.3811 -0.2868
43553W        W86544  26.400   4.714  25.498  0.0827  0.0010 -0.2040
43554W        W86545  31.828  29.461   2.109 -0.0147  0.0906  0.0172
43555W        W86546  34.242  22.691  18.686  0.2736 -0.1012  0.0053
43556W        W86547  13.680  30.470   8.320 -0.0633 -0.0221 -0.0803
43557W        W86548   0.502   2.007  29.074  0.0932  0.1173 -0.2054
43558W        W86549  21.738   2.532  22.340  0.3593 -0.1578  0.3590
43559W        W86550  28.197   4.662  19.487 -0.0407  0.0116  0.2604
43560W        W86551   7.967  22.375  20.031  0.1357 -0.0644 -0.1111
43561W        W86552  12.216   1.866  20.638 -0.0580  0.0190  0.2209
43562W        W86553  29.521   2.155   3.800 -0.1905 -0.0318  0.2903
43563W        W86554  34.076  26.918  18.538 -0.0025  0.0492  0.0664
43564W        W86555  31.969  29.775   1.777 -0.2889 -0.3520  0.0032
43565W        W86556  23.182   0.328  24.397  0.0429  0.0271 -0.5157
43566W        W86557   3.229  30.320  19.132  0.0977  0.0035  0.1574
43567W        W86558  31.624   7.242  19.535  0.3266 -0.0814 -0.1526
43568W        W86559   9.377  32.013   0.358 -0.1567 -0.1807  0.0253
43569W        W86560  27.521  18.416  25.207 -0.1131 -0.2689 -0.0683
43570W        W86561  19.956   0.674  27.133  0.3560 -0.0567 -0.3458
43571W        W86562  14.592  22.326  15.175  0.2210 -0.0186 -0.1255
43572W        W86563  11.197  32.325  15.593  0.3895 -0.1515  0.0953
43573W        W86564  11.647  28.959  16.024  0.0427 -0.1150 -0.0422
43574W        W86565  29.863  30.266   4.349  0.0095  0.0234 -0.1673
43575W        W86566  27.432  24.778  22.722 -0.2522  0.0697  0.0223
43576W        W86567   2.866  24.844  18.301  0.0780 -0.2192  0.1844
43577W        W86568  29.172  20.674  15.399  0.1942  0.1061  0.3830
43578W        W86569  29.411  11.004  28.905 -0.1334 -0.0545 -0.0029
43579W        W86570  20.518  23.765   2.573  0.2221  0.1254 -0.2884
43580W        W86571  23.828  12.875  20.179 -0.1752  0.0290  0.1800
43581W        W86572  26.641   1.714  14.848  0.0756 -0.1258 -0.3352
43582W        W86573  34.584  28.286   7.006  0.0579 -0.0136 -0.2474
43583W        W86574  33.018   2.957  20.313 -0.2475 -0.1320  0.4806
43584W        W86575  24.026  28.996  13.308  0.1341 -0.0658 -0.2678
43585W        W86576  31.871  32.728  19.070  0.1768 -0.0513 -0.0476
43586W        W86577   2.956  27.992  17.730  0.1404 -0.1516 -0.1390
43587W        W86578  19.674  29.077  21.413  0.0483 -0.1589  0.0914
43588W        W86579   7.942  31.645  19.224 -0.0658 -0.0262  0.0744
43589W        W86580  21.948   8.002  17.794 -0.1657  0.0622  0.1741
43590W        W86581   0.342   0.669  28.246 -0.0510  0.2749 -0.0713
43591W        W86582  32.496   1.527  14.541  0.1125 -0.0440  0.1113
43592W        W86583  19.300  10.533  18.502 -0.1748  0.3080  0.2807
43593W        W86584  25.486  34.713  18.974 -0.0494 -0.1338  0.0544
43594W        W86585   5.470  24.640  15.862  0.0221 -0.1770 -0.1388
43595W        W86586  23.226  29.607  16.962 -0.0791  0.0025  0.0044
43596W        W86587  33.518   5.491   2.616  0.0059  0.1090  0.2176
43597W        W86588  21.404  31.519  16.640 -0.0528 -0.0352  0.0908
43598W        W86589  33.751  21.676  15.786  0.0099  0.0988 -0.0134
43599W        W86590  30.403  32.476  18.309  0.2997  0.1008  0.1879
43600W        W86591  29.178  30.661  16.769 -0.2611 -0.1743  0.2213
43601W        W86592   3.497   5.728   2.122  0.0391  0.0870 -0.2274
43602W        W86593  32.906   8.062  26.065 -0.0344  0.0797  0.0242
43603W        W86594  31.030  29.747  19.302 -0.0321 -0.0697 -0.1434
43604W        W86595   1.215   4.475  28.456  0.0052 -0.0998 -0.2344
43605W        W86596  27.743   1.244  15.548 -0.1490 -0.1118 -0.2839
43606W        W86597  28.402  25.314  14.854 -0.0109  0.2450 -0.1083
43607W        W86598  26.748   0.150  16.184  0.1397 -0.1438 -0.0607
43608W        W86599  26.793  29.135  22.352 -0.1384 -0.2885 -0.1612
43609W        W86600  15.519   7.436  23.452 -0.0020  0.1039  0.3238
43610W        W86601  15.772   1.554   0.319 -0.1834 -0.0922 -0.1628
43611W        W86602   8.798  19.408   2.727 -0.1753  0.3364 -0.1133
43612W        W86603  34.735   8.587  21.187  0.1149 -0.1719 -0.2226
43613W        W86604  30.841  28.342  14.876  0.2138 -0.0645 -0.4057
43614W        W86605   5.919  22.341  14.220  0.2916 -0.1015 -0.1786
43615W        W86606   3.802  32.287  18.698 -0.4706  0.3772  0.1372
43616W        W86607  28.359   3.945   0.792  0.1974  0.2121 -0.1726
43617W        W86608  34.559  13.203  20.777 -0.1693 -0.1291 -0.1673
43618W        W86609   8.635  28.253  27.450  0.0781  0.2582 -0.0387
43619W        W86610  31.146   4.537  16.237 -0.0183  0.0608 -0.0799
43620W        W86611  30.866   6.573   2.272 -0.1456 -0.0074  0.1371
43621W        W86612  25.402  29.134   8.239  0.1194 -0.1203 -0.3184
43622W        W86613  24.464   3.893  18.249  0.4153  0.1748  0.0069
43623W        W86614  31.597   7.486  24.946 -0.1120  0.0538  0.0512
43624W        W86615  23.750  30.768  25.124 -0.0533  0.0813  0.3348
43625W        W86616  28.277  34.236  12.400  0.1668  0.1257  0.0832
43626W        W86617  19.973   7.957  14.365 -0.3975 -0.0418  0.1499
43627W        W86618  27.280  21.217  22.793  0.1137 -0.3367 -0.3524
43628W        W86619  29.555  20.505  18.239 -0.1660 -0.1738  0.1341
43629W        W86620  25.423  14.604   1.548  0.1146 -0.0032  0.3879
43630W        W86621  12.357  26.549  21.690  0.4110  0.4078  0.1470
43631W        W86622   8.429   0.345  16.661 -0.0282  0.2055  0.2480
43632W        W86623  22.822  29.555  14.148  0.0228  0.1822  0.1394
43633W        W86624  17.284  25.837   0.572  0.2675  0.0713 -0.4132
43634W        W86625  28.050   3.025  16.094  0.1584 -0.2433  0.0397
43635W        W86626   8.979  20.712  20.334 -0.0102  0.1521 -0.1030
43636W        W86627   3.329  27.862  14.193  0.0201 -0.3262  0.3213
43637W        W86628  32.089  29.387  16.436  0.0808 -0.2209  0.2474
43638W        W86629  24.734  31.454  13.837  0.0597  0.1876  0.0492
43639W        W86630  16.248   0.206   4.414  0.0525  0.0821 -0.2587
43640W        W86631  34.195  24.886   0.796 -0.1293  0.1018  0.1940
43641W        W86632  33.199  18.256  19.570 -0.0116 -0.2465  0.1800
43642W        W86633  23.994   0.461  14.017  0.2275 -0.3174  0.3385
43643W        W86634  30.346   0.695  26.174 -0.0689  0.1532 -0.1501
43644W        W86635  26.515  17.399  24.856  0.2282 -0.2015 -0.0105
43645W        W86636  15.077  29.122  23.080 -0.3423 -0.2027 -0.0712
43646W        W86637  31.784  20.299  20.423  0.2614  0.0597  0.0875
43647W        W86638  20.878   4.619  23.976  0.1168 -0.0191  0.1643
43648W        W86639  31.754  31.870  28.044 -0.2982 -0.2698 -0.1295
43649W        W86640  11.595  32.819  27.621  0.1174  0.1063  0.2675
43650W        W86641   3.950  27.691  26.951 -0.0424 -0.0230 -0.2670
43651W        W86642  26.052  29.341  14.375  0.2370 -0.1798 -0.0695
43652W        W86643  29.288  15.171  17.286 -0.0441 -0.1903 -0.1268
43653W        W86644  28.652  33.259   3.972  0.1047  0.2372 -0.4809
43654W        W86645  27.673  31.258  13.257  0.1123 -0.0052  0.0351
43655W        W86646  22.904   9.061  24.172  0.2666 -0.4026 -0.0808
43656W        W86647  33.290  23.198  16.159 -0.0445 -0.1333 -0.0860
43657W        W86648  31.385  29.306  14.999 -0.2838 -0.0310  0.2377
43658W        W86649   5.993  29.418  20.066  0.0687  0.0001  0.0764
43659W        W86650  31.225  22.847  27.965  0.0611 -0.2459 -0.2196
43660W        W86651   5.253   4.157  15.409 -0.0796  0.1267  0.0244
43661W        W86652  33.846  31.157  19.765 -0.0987  0.1474  0.1155
43662W        W86653  13.288  11.664  24.980 -0.0015 -0.0547 -0.0004
43663W        W86654  29.492   3.241  16.413  0.1857  0.0419 -0.2677
43664W        W86655  17.801  12.382  22.171 -0.0322  0.3858 -0.1844
43665W        W86656  23.143  28.314  18.422 -0.3526  0.0659  0.0493
43666W        W86657   9.596  31.306  16.906 -0.0428 -0.0429  0.0723
43667W        W86658  34.676   2.993  26.429 -0.0798 -0.3203 -0.0366
43668W        W86659  30.854  21.622  21.477 -0.3378  0.0406  0.0344
43669W        W86660   5.317  23.739   2.656 -0.3574 -0.0698 -0.0277
43670W        W86661  15.426  34.801  13.962 -0.1658 -0.1979 -0.0875
43671W        W86662   1.530  27.634  19.721  0.0634  0.3651 -0.2072
43672W        W86663  27.108  33.338  19.078 -0.0250  0.1745  0.0988
43673W        W86664  29.435  18.695  20.182  0.0166  0.1401  0.1744
43674W        W86665   4.226   0.767  14.365 -0.0412  0.0248  0.0399
43675W        W86666  20.608  16.220  14.536 -0.2442  0.1403  0.0160
43676W        W86667  28.988   2.473  18.539  0.0493 -0.0090  0.1821
43677W        W86668  14.952  32.574  18.893  0.0343 -0.0164  0.2567
43678W        W86669   8.825  27.567   3.721  0.0255 -0.2575 -0.4189
43679W        W86670   1.893  28.499  19.348  0.0084  0.3779  0.2789
43680W        W86671  21.790  23.170  26.165 -0.1387  0.1539 -0.1479
43681W        W86672  26.261  32.758  18.551 -0.0596  0.0922 -0.0039
43682W        W86673  30.413  23.610   4.565 -0.1921  0.2469 -0.0821
43683W        W86674  30.073  17.239  25.133 -0.0028  0.1570 -0.2318
43684W        W86675   0.685  24.658   2.473  0.0005 -0.2468 -0.0035
43685W        W86676  31.737  31.942  13.959  0.0553 -0.0004 -0.0607
43686W        W86677  24.376   9.757  20.789  0.2373  0.1887 -0.2725
43687W        W86678  31.397   5.794  24.864  0.2497  0.1745  0.0169
43688W        W86679  29.607   9.599  25.274 -0.1251  0.2048 -0.0008
43689W        W86680   2.323  11.474  21.755 -0.0532 -0.3365 -0.2919
43690W        W86681  28.298   3.038  20.272 -0.2929  0.0673  0.2670
43691W        W86682  31.973  14.137  20.657 -0.0997  0.1209 -0.2504
43692W        W86683  23.035  19.983  25.677  0.1786 -0.2726 -0.1152
43693W        W86684  24.409  34.561  20.533 -0.1415  0.1397  0.2187
43694W        W86685  30.854  26.179  18.566  0.2181  0.0896  0.1847
43695W        W86686   4.034  24.829  21.809 -0.0072  0.1184 -0.2710
43696W        W86687  20.607  30.330  20.104  0.0010  0.0803 -0.0535
43697W        W86688  30.621   9.502  21.454 -0.2166  0.0073 -0.1613
43698W        W86689  12.803  32.959  15.151  0.1392 -0.4370  0.2762
43699W        W86690  18.829   4.951  26.084  0.0490  0.0951 -0.0595
43700W        W86691   8.986   9.735  20.208  0.0089  0.0282  0.1815
43701W        W86692  33.801  23.981  17.497 -0.1112  0.0562  0.0761
43702W        W86693   4.517   1.423  17.083  0.0406 -0.2593  0.7200
43703W        W86694  24.810  30.819  25.036 -0.2709  0.0761 -0.1814
43704W        W86695  18.248  17.784  14.709 -0.2214  0.0825  0.0467
43705W        W86696   6.267  25.982  18.736 -0.1642 -0.4166  0.0685
43706W        W86697  13.889   1.127  28.024 -0.0510 -0.0818  0.0926
43707W        W86698   8.363  14.254  22.214 -0.0241  0.2155  0.0140
43708W        W86699  34.363   1.009  14.491 -0.0415 -0.0512  0.0753
43709W        W86700  32.986  21.771   1.841 -0.1918  0.1829 -0.1986
43710W        W86701  26.819  32.753  23.567  0.2493  0.2415  0.0302
43711W        W86702  16.572   6.750  26.194  0.0302 -0.1110 -0.0212
43712W        W86703  17.126  33.559  17.483  0.0026  0.1693 -0.0797
43713W        W86704   5.053  31.433  14.532 -0.0594 -0.1290  0.2507
43714W        W86705  33.828   1.281  28.608  0.0132 -0.3406 -0.2163
43715W        W86706  20.668  17.743  13.714 -0.0958 -0.0276  0.5458
43716W        W86707   4.190   3.970  24.926  0.1763 -0.3198  0.1002
43717W        W86708  26.775  28.558  16.003 -0.0397  0.1060  0.1950
43718W        W86709  31.830   3.926  19.630 -0.0410  0.0176 -0.0774
43719W        W86710  27.778   8.017  19.996 -0.3786  0.0110  0.0871
43720W        W86711  29.572  24.224  21.075  0.2000  0.1035 -0.1620
43721W        W86712  30.562  25.906  17.067  0.1973 -0.2349 -0.0125
43722W        W86713  26.092   1.634  24.932 -0.3307  0.2423  0.0431
43723W        W86714  15.350  32.856  27.469  0.1499 -0.2743 -0.0875
43724W        W86715  30.653  30.452  12.867 -0.0829  0.1341 -0.0698
43725W        W86716  27.303  32.229  14.635 -0.0523  0.1362  0.0675
43726W        W86717  21.861  28.358  19.366 -0.3314 -0.0392 -0.4242
43727W        W86718  26.922   8.508  19.781 -0.1661  0.1121  0.0772
43728W        W86719  28.607   0.075  16.212 -0.1826 -0.0904 -0.3352
43729W        W86720  19.674  23.389  25.844 -0.0857 -0.3919 -0.1093
43730W        W86721  34.281  28.504  22.752  0.2162  0.1077  0.0093
43731W        W86722  27.357  34.496   7.705  0.0652  0.1876 -0.0745
43732W        W86723   9.536  31.651  15.193 -0.1377  0.1163  0.4561
43733W        W86724  24.259  28.228  19.042 -0.1242 -0.1266  0.2199
43734W        W86725  17.140  12.734  13.102 -0.2167  0.1795  0.0545
43735W        W86726  25.638   8.655   1.283 -0.1159 -0.0708 -0.0504
43736W        W86727  26.712  21.965  18.485  0.2226  0.1175 -0.0812
43737W        W86728  13.619   2.136  24.736 -0.0272  0.0490 -0.0518
43738W        W86729   5.295  15.151  19.810  0.1257 -0.2627 -0.1670
43739W        W86730  22.920  31.871   2.728  0.2072  0.2974 -0.0995
43740W        W86731   0.341  33.142  14.546  0.2192 -0.0001 -0.2148
43741W        W86732  25.045   3.812  27.773  0.2800 -0.2702  0.4061
43742W        W86733  21.665  32.969  14.344  0.0465 -0.3136  0.1922
43743W        W86734  17.668  33.954  18.021 -0.2887 -0.0822 -0.0489
43744W        W86735  29.599  16.911  22.408 -0.2366  0.4934 -0.1420
43745W        W86736  31.263  30.373  20.484 -0.0748  0.3036  0.5649
43746W        W86737  23.885   0.909  22.331 -0.0597 -0.1134 -0.1361
43747W        W86738   2.048   0.394  17.592 -0.5907 -0.0670 -0.1262
43748W        W86739  33.474  11.447   5.139 -0.0051  0.3095  0.0754
43749W        W86740  26.385   8.594  26.835 -0.2779 -0.1375  0.1711
43750W        W86741  32.141   2.260  15.067 -0.2073  0.1484  0.1277
43751W        W86742  32.051   4.332  20.944 -0.0640 -0.1900  0.2258
43752W        W86743   3.598   2.645  25.032  0.1657 -0.0222 -0.1420
43753W        W86744  33.235  24.203  17.408 -0.1395 -0.0935  0.0633
43754W        W86745  32.337   3.703  19.611  0.0038  0.0942  0.0400
43755W        W86746  33.376   1.907  23.670  0.0528  0.0244 -0.1663
43756W        W86747  24.004  32.270  16.635 -0.2485  0.0548 -0.0250
43757W        W86748  32.003  27.851  19.248 -0.2630  0.1270 -0.4249
43758W        W86749   7.127  30.949  21.207  0.3035 -0.0287 -0.0861
43759W        W86750  27.118  31.105  19.466  0.3646  0.2666  0.2004
43760W        W86751  25.020   5.216  24.135 -0.2566 -0.1412  0.0776
43761W        W86752   0.338  29.434  20.230 -0.0356  0.1362  0.2502
43762W        W86753  24.703  11.523   0.234 -0.0340 -0.0744  0.0328
43763W        W86754   2.839   8.398  17.123  0.3837  0.1535 -0.2925
43764W        W86755   4.530  30.070  16.622  0.0845  0.3262  0.2579
43765W        W86756  33.754  34.590  16.575 -0.2917 -0.0746  0.0763
43766W        W86757  17.179  34.137  16.628  0.0464 -0.2369 -0.0310
43767W        W86758  27.143  30.478  18.663 -0.1642 -0.1397  0.3543
43768W        W86759   1.095   7.896  26.535  0.0258 -0.0443 -0.0534
43769W        W86760  32.852  34.637  20.385  0.0650 -0.1274  0.2463
43770W        W86761  21.294   6.296  21.250 -0.1637 -0.0596 -0.0159
43771W        W86762  19.683  29.977   1.189  0.1561 -0.2621  0.0278
43772W        W86763  20.205  30.290  22.886  0.0302 -0.2689 -0.1793
43773W        W86764   5.033  34.548  21.687 -0.2656  0.0739 -0.1571
43774W        W86765  20.372  34.214  20.852  0.2429  0.2055 -0.0635
43775W        W86766  12.307   6.755  15.171  0.3486 -0.1048 -0.1421
43776W        W86767  30.823   1.229  24.301  0.1280  0.0629 -0.1898
43777W        W86768  26.915  19.235  16.755  0.1193 -0.0822  0.1890
43778W        W86769  24.009  27.321  18.186 -0.0611  0.0896 -0.2258
43779W        W86770   5.051   9.770  22.736 -0.0729  0.2764 -0.0162
43780W        W86771  17.824  25.935  27.567 -0.0210 -0.0239 -0.1588
43781W        W86772  23.773  32.797  17.009 -0.1721 -0.1335  0.2374
43782W        W86773   8.219   2.824  22.572  0.1543 -0.3505 -0.2190
43783W        W86774  18.155   1.136  17.021  0.0033 -0.1403  0.2030
43784W        W86775   4.548  19.983  16.616 -0.1506  0.0090 -0.0475
43785W        W86776  18.272  30.170  26.510 -0.4774  0.0989 -0.1913
43786W        W86777  20.225  33.363   1.044 -0.0240 -0.0582  0.2874
43787W        W86778  20.937  32.345   1.016 -0.0376 -0.1134  0.0996
43788W        W86779   9.949   3.031  18.844 -0.1493 -0.0187 -0.0237
43789W        W86780   7.023  30.116  21.208  0.0070 -0.3543 -0.0892
43790W        W86781  16.154   6.980  14.440  0.3294 -0.0009  0.0496
43791W        W86782  24.465   2.555   1.191 -0.2083 -0.0698  0.1594
43792W        W86783  34.140  15.577  28.233  0.1994  0.4362 -0.1241
43793W        W86784  31.728  27.278  16.577  0.1228  0.1199  0.3124
43794W        W86785   1.805  18.404  22.697  0.0267 -0.3385  0.1225
43795W        W86786  13.581  19.424  18.532  0.4213 -0.0368  0.0878
43796W        W86787  11.480   4.472  15.537  0.3582  0.5194 -0.0250
43797W        W86788  26.244  25.880  13.632  0.0575  0.2215  0.0772
43798W        W86789  10.613   3.337  16.374 -0.3069  0.0126 -0.0113
43799W        W86790  26.334  21.053  21.696 -0.0804 -0.2941  0.1752
43800W        W86791  18.180  24.305  15.669  0.3038 -0.0310  0.0409
43801W        W86792  24.917  34.664  17.121  0.3980 -0.1124  0.0204
43802W        W86793   0.267  21.511  15.178 -0.1303 -0.1765 -0.2051
43803W        W86794  31.083  12.029  15.375  0.1962  0.1495 -0.0252
43804W        W86795  33.880  23.243  15.386 -0.3282  0.0593  0.2560
43805W        W86796   1.510   6.166  16.893 -0.1125  0.0095  0.1325
43806W        W86797  34.043  23.069  27.593 -0.0059 -0.0681  0.0652
43807W        W86798   1.204  24.184  24.704  0.2050 -0.1753 -0.2414
43808W        W86799   0.714   1.880  14.100 -0.0437  0.2088 -0.2349
43809W        W86800   8.279   4.116  27.843 -0.1269 -0.2601 -0.1641
43810W        W86801  27.865  12.424  25.867 -0.0751  0.0128  0.2636
43811W        W86802  17.469  32.038  19.996  0.0463 -0.2447 -0.3359
43812W        W86803  23.348  32.075  25.817 -0.0001 -0.0882  0.2700
43813W        W86804  29.473  34.752  24.672  0.0759 -0.0878  0.1572
43814W        W86805  22.815  21.140  18.617  0.2067 -0.1845  0.0190
43815W        W86806  27.066  30.747  16.010 -0.0301  0.0184  0.0972
43816W        W86807  25.467  11.124   2.011 -0.0386  0.0313 -0.1786
43817W        W86808  34.720   6.679  27.386  0.3987 -0.0292  0.1292
43818W        W86809  16.582  20.986  14.009  0.2333 -0.0532  0.1988
43819W        W86810  26.740  13.749  23.732  0.0556  0.1549 -0.0232
43820W        W86811   4.312  20.182  20.235 -0.3605  0.2648 -0.1049
43821W        W86812  24.747  26.520  18.958  0.2608 -0.0932 -0.2207
43822W        W86813   6.785  26.947  28.930  0.0269  0.0736 -0.1193
43823W        W86814  26.720   1.872  24.916 -0.0635 -0.1915 -0.1622
43824W        W86815  16.986  13.418  14.912 -0.0621 -0.0828 -0.0059
43825W        W86816  20.150  28.365  23.777 -0.2311 -0.1535 -0.0256
43826W        W86817  29.897  34.637  16.968 -0.1252 -0.2045 -0.1245
43827W        W86818  16.464  17.029  13.827 -0.1051  0.0877  0.0341
43828W        W86819   1.543  27.789  25.763  0.1003  0.2985  0.0494
43829W        W86820   4.981  12.637  23.060 -0.1411 -0.0412  0.3568
43830W        W86821  23.423  29.629  15.928 -0.1385  0.3348  0.1739
43831W        W86822  21.027  11.697  23.034 -0.0055 -0.1113  0.2250
43832W        W86823   1.478  31.614  21.283  0.2883  0.0607 -0.0007
43833W        W86824  31.478   6.500  24.770  0.1030 -0.1411  0.1259
43834W        W86825  23.872   4.883  17.442 -0.1588  0.0195 -0.2328
43835W        W86826  18.249  33.791  26.828 -0.1209 -0.3056 -0.0626
43836W        W86827   1.583  33.760  24.226  0.1252 -0.3876 -0.0787
43837W        W86828  28.615   0.352  13.827  0.1849  0.3179  0.2214
43838W        W86829  28.508  30.463  22.169 -0.1413  0.1588 -0.2616
43839W        W86830   6.537  33.445  18.101  0.1678  0.2647  0.1533
43840W        W86831  19.776  14.631   1.440  0.1471 -0.0312  0.0143
43841W        W86832  34.116   3.463  20.527 -0.0815  0.0490  0.0686
43842W        W86833  13.301  30.540  15.961  0.4457  0.0668 -0.1258
43843W        W86834  32.825  27.276  18.591 -0.1512  0.3018  0.0299
43844W        W86835  14.253  22.494  17.629  0.2459  0.1537 -0.1218
43845W        W86836  26.848  26.706  14.314  0.0124  0.0756  0.2045
43846W        W86837  15.875  30.661  14.355  0.1015  0.1402 -0.1580
43847W        W86838   8.649  28.196   6.679 -0.1915  0.3767 -0.1289
43848W        W86839  26.521   7.955  29.086 -0.0837 -0.3049  0.0711
43849W        W86840   5.570   5.029  27.692  0.0408  0.0649  0.1115
43850W        W86841  11.236   2.026  21.384  0.1019  0.0963  0.3770
43851W        W86842  22.897  23.512  23.726  0.0651  0.1534 -0.0411
43852W        W86843  23.489  29.903  22.185  0.0272  0.1302  0.1669
43853W        W86844  28.152  31.434  13.560  0.3556 -0.2390  0.1633
43854W        W86845  21.904   8.290  14.503 -0.1684 -0.2100  0.2521
43855W        W86846   0.124   3.171  14.992  0.1268  0.0450  0.0024
43856W        W86847  22.514   0.447  15.456  0.1842 -0.1922  0.0736
43857W        W86848  30.972  32.062  17.866  0.2427 -0.0579  0.2065
43858W        W86849   1.216  12.939  21.117  0.2144  0.2641  0.0174
43859W        W86850  32.447   6.515  19.890  0.1999 -0.2225  0.1318
43860W        W86851  25.801   8.524  21.561 -0.3771  0.2615  0.0648
43861W        W86852  26.014   1.773  23.123 -0.1090 -0.0802 -0.2108
43862W        W86853  30.370   3.399  22.159  0.2015 -0.0184  0.0261
43863W        W86854   8.784  23.293  18.201  0.1928 -0.0044  0.5097
43864W        W86855  25.458  11.647  22.798  0.0637 -0.2058 -0.0199
43865W        W86856  14.874  24.854  20.751  0.0768 -0.0527 -0.1732
43866W        W86857   1.404   1.966  18.696  0.0057 -0.0526 -0.1612
43867W        W86858   7.182  34.063  23.306  0.0528  0.3508  0.0582
43868W        W86859  27.053  19.221  22.321  0.0232  0.1740  0.1120
43869W        W86860  25.677   0.593  17.857  0.1347  0.1936 -0.4054
43870W        W86861  20.589   1.747  16.371 -0.0175  0.1737 -0.4500
43871W        W86862  27.858  25.177   7.049  0.3885  0.0193  0.1646
43872W        W86863  32.291  22.061  23.760  0.2321  0.0455  0.3294
43873W        W86864   2.101  31.332  22.089 -0.3044  0.2781 -0.1807
43874W        W86865  29.005  23.426  23.759  0.0792 -0.1915  0.1491
43875W        W86866  10.845   1.454   4.745  0.0463  0.1812 -0.0185
43876W        W86867  30.077  23.398  15.258  0.1089 -0.0560 -0.0849
43877W        W86868   2.239  26.790  16.369  0.2428  0.4216  0.2394
43878W        W86869  12.831  29.754  22.031 -0.0032 -0.0888 -0.2949
43879W        W86870  28.837   2.405  17.214 -0.0317 -0.0443 -0.4395
43880W        W86871  14.471   7.294  15.524  0.2217  0.0750 -0.0103
43881W        W86872  21.928  33.521  27.420 -0.0040 -0.1190  0.2546
43882W        W86873  33.532   1.280  21.076 -0.0275  0.1727 -0.2228
43883W        W86874  21.254  27.467  16.656  0.0540 -0.0458  0.1633
43884W        W86875  26.742  26.862   2.221  0.1935 -0.1050 -0.0658
43885W        W86876   6.180   1.725  27.594 -0.1270 -0.0598  0.1051
43886W        W86877  30.199   0.321  15.313 -0.1439  0.2253 -0.1909
43887W        W86878  34.473   6.913  15.143 -0.0851  0.1507  0.0055
43888W        W86879  20.445   2.469  21.578 -0.0513  0.4174  0.1264
43889W        W86880  18.183  30.734  22.132 -0.0291  0.0296 -0.2061
43890W        W86881  20.077  14.865  22.891 -0.2195  0.1073  0.1954
43891W        W86882   8.177  29.136  15.956  0.1298 -0.1043 -0.0920
43892W        W86883  24.613  32.591  14.296  0.0326 -0.1593  0.0258
43893W        W86884  33.723   1.072  27.529 -0.2611 -0.0607 -0.0844
43894W        W86885   5.385   9.623  19.565  0.0657 -0.0146  0.1331
43895W        W86886  24.540   9.540  19.982  0.1606 -0.1316  0.0555
43896W        W86887  19.600  32.536  24.166  0.2815 -0.0182  0.0193
43897W        W86888  19.620  30.264  25.877 -0.3808  0.4475 -0.0911
43898W        W86889  25.272  31.385  20.836  0.2086 -0.1556 -0.2989
43899W        W86890  29.324  30.181  19.982 -0.1294 -0.1160 -0.0060
43900W        W86891  33.619   3.619  27.431  0.1753 -0.1063 -0.0187
43901W        W86892   6.708  25.285  19.333 -0.1988  0.3759  0.1684
43902W        W86893   3.444  16.357  25.312  0.0435 -0.3005 -0.2117
43903W        W86894  27.680  23.894   1.636 -0.1744  0.0471 -0.0122
43904W        W86895  12.531  31.524  15.806 -0.0008 -0.0677  0.1006
43905W        W86896  15.440   2.299  18.782  0.1627 -0.2337  0.2487
43906W        W86897  26.623  25.694   0.982  0.0780 -0.0875 -0.3015
43907W        W86898   1.118  24.022  25.592 -0.1325 -0.1349 -0.1445
43908W        W86899  28.618  31.531  18.449  0.1376  0.2581  0.2840
43909W        W86900  27.108   2.721  18.943 -0.0975  0.1336  0.2455
43910W        W86901  26.884  22.365  17.026  0.1407  0.2026  0.1089
43911W        W86902  29.040   7.038  17.526 -0.0196 -0.1585 -0.0061
43912W        W86903  25.947  26.471  23.964 -0.0295 -0.0284  0.3070
43913W        W86904   4.647  10.393  21.600 -0.2226 -0.3028  0.1104
43914W        W86905   9.602   2.994  25.009  0.0621 -0.2251 -0.0786
43915W        W86906   0.666  33.928  19.246  0.3445 -0.0715 -0.2214
43916W        W86907  34.534  16.972  27.634  0.1257  0.0641  0.2405
43917W        W86908  28.000   5.762  19.252  0.1758 -0.2840  0.1097
43918W        W86909  21.833  26.776  23.473 -0.0492 -0.2762 -0.0894
43919W        W86910   4.787  21.815  28.160 -0.1961  0.4454 -0.0176
43920W        W86911  28.574  32.780  15.868 -0.0883  0.2726  0.0030
43921W        W86912  32.826  33.207  13.987 -0.0247  0.0108 -0.1729
43922W        W86913  31.379  25.422  20.067  0.2142 -0.1946 -0.1140
43923W        W86914  25.288   9.621  24.230 -0.1012  0.2817  0.0575
43924W        W86915  28.339  31.712   0.425  0.0723 -0.1482 -0.0751
43925W        W86916  32.357  30.000  19.163  0.0190 -0.1160 -0.0854
43926W        W86917  19.440  14.246  19.875 -0.0972 -0.1297  0.1960
43927W        W86918  27.567   3.839   1.306  0.0999 -0.0881  0.0131
43928W        W86919  18.874  23.619  22.640  0.2127 -0.0074  0.2152
43929W        W86920  33.889   1.469  19.061  0.0703 -0.0932  0.0720
43930W        W86921  16.277  24.605  27.321 -0.0920  0.3104 -0.1387
43931W        W86922  19.270   1.020  26.271  0.0387 -0.0807  0.2770
43932W        W86923  21.562  29.625  12.890  0.0823  0.0018  0.1805
43933W        W86924  27.431  21.158  21.637 -0.2391 -0.2325  0.1720
43934W        W86925  31.685  31.217  14.386  0.5742 -0.1349 -0.0250
43935W        W86926  30.285  21.417  23.921  0.1999  0.1826 -0.0174
43936W        W86927  32.501   4.339  27.101  0.1762 -0.1629 -0.0106
43937W        W86928  27.718   3.079  28.605  0.1703 -0.0381  0.0573
43938W        W86929  20.820  33.772  14.916 -0.1444  0.1211  0.1063
43939W        W86930  26.483  34.755  20.129 -0.0368  0.0926  0.0383
43940W        W86931  22.792  26.696  21.628 -0.5115  0.0094 -0.1803
43941W        W86932  33.648   6.198  21.152  0.0070 -0.0573  0.2918
43942W        W86933  32.613  27.225  16.635  0.2991  0.0114 -0.0636
43943W        W86934  34.002  13.508   2.845  0.2176  0.1336  0.4025
43944W        W86935  27.436  25.356   0.115 -0.1501  0.1064  0.4942
43945W        W86936  31.023  28.885  15.830 -0.0759 -0.0624  0.0315
43946W        W86937  33.498  10.039  19.299  0.0402  0.1313  0.2734
43947W        W86938  23.175  24.515  28.216  0.0519  0.1010  0.0988
43948W        W86939  34.602  13.050  19.672  0.2274 -0.3088  0.1162
43949W        W86940   3.546   6.616  18.769 -0.1610 -0.1242 -0.0057
43950W        W86941  20.425   1.774  15.854 -0.0601  0.0534  0.5991
43951W        W86942  23.290  24.614  14.204  0.1659  0.2084 -0.2194
43952W        W86943  12.348  10.468   0.250 -0.0492 -0.2265 -0.0030
43953W        W86944   3.673  31.479  21.277  0.0628 -0.0454  0.0867
43954W        W86945   6.632  11.045  23.482 -0.1276  0.0539  0.0142
43955W        W86946   5.457  25.930  22.194  0.1061  0.0963  0.0590
43956W        W86947   1.606   1.632  21.804  0.0330  0.1083  0.1988
43957W        W86948  20.530  13.092  25.397  0.2422 -0.0438  0.2830
43958W        W86949  19.787  32.938  17.850  0.0074 -0.1816  0.0938
43959W        W86950  33.012  17.943  21.633  0.1236 -0.0516 -0.0256
43960W        W86951   1.972   1.566  16.102  0.3981  0.0854 -0.1950
43961W        W86952  11.557  25.637  14.425 -0.0095 -0.0391  0.3076
43962W        W86953  18.294  27.229  15.738  0.0639  0.2483  0.4860
43963W        W86954  32.734  29.335  17.141 -0.1905  0.0367 -0.0048
43964W        W86955   1.555  26.103  21.007 -0.1794 -0.2447 -0.4575
43965W        W86956  32.648  34.418  24.902 -0.1204  0.1515  0.1305
43966W        W86957  25.451   2.156   0.973  0.1242  0.1696 -0.2156
43967W        W86958   0.988  10.427  16.340  0.1947 -0.0152  0.3324
43968W        W86959  23.714   0.082  16.239 -0.3827  0.0777  0.1019
43969W        W86960   5.529  22.033  19.754  0.4257 -0.1583 -0.2103
43970W        W86961  25.609   1.656  27.447 -0.1465  0.1626  0.6138
43971W        W86962  16.779  25.308  16.463 -0.1814  0.1296 -0.0127
43972W        W86963  32.456   3.232  18.535 -0.1968 -0.1397  0.1236
43973W        W86964   4.426  33.801  24.504 -0.3683 -0.2191 -0.1616
43974W        W86965   1.739   4.858  17.046  0.1089 -0.3982 -0.0412
43975W        W86966  27.406  20.727  25.213  0.1790 -0.1041 -0.3230
43976W        W86967  16.493  29.446  15.008 -0.1213  0.0430  0.1935
43977W        W86968  33.664   8.522  17.763 -0.1644 -0.3071  0.2632
43978W        W86969  33.519  33.071   0.677  0.0553 -0.2215  0.5170
43979W        W86970  34.135  30.268  16.700 -0.0895 -0.0380 -0.1069
43980W        W86971  29.316  23.211  24.378 -0.2152  0.0614  0.2764
43981W        W86972  30.390  14.314  15.903  0.0563  0.2901 -0.0864
43982W        W86973   0.921  24.594  22.582 -0.1297 -0.0132  0.0914
43983W        W86974  19.976  26.830  21.725 -0.1357 -0.0093 -0.0827
43984W        W86975  31.735   3.608  25.346  0.0241  0.2783  0.1976
43985W        W86976   4.419   2.201  26.317  0.3132  0.0893  0.2297
43986W        W86977  19.524  29.505   3.285  0.3310  0.2757 -0.2102
43987W        W86978  25.156  30.384  18.120 -0.0798 -0.0461  0.2300
43988W        W86979   0.270   3.054  20.290  0.0118 -0.3148  0.0314
43989W        W86980  13.672   3.183  26.483  0.1827 -0.2664 -0.0271
43990W        W86981   3.856  22.483  15.819 -0.2156  0.1341  0.0684
43991W        W86982  26.752  31.950  18.169  0.2100 -0.1425  0.0869
43992W        W86983  31.439   7.969  19.908 -0.1450 -0.0656  0.0404
43993W        W86984  32.869   5.852   2.671 -0.5070  0.0597  0.1136
43994W        W86985  20.786  20.908  25.998 -0.1611 -0.2830 -0.1104
43995W        W86986  33.206   1.931  20.228 -0.1801 -0.0557  0.5458
43996W        W86987   5.488  10.307  21.639  0.0304 -0.0340 -0.2161
43997W        W86988   1.526   7.200  18.035 -0.0879  0.0356 -0.0140
43998W        W86989  21.803  18.790  14.032 -0.2222  0.3054  0.0893
43999W        W86990   6.566   8.076  20.709  0.3146  0.1623  0.1320
44000W        W86991   4.530   0.936  15.737 -0.1362 -0.2803 -0.1349
44001W        W86992  27.356  31.759  19.401 -0.0669 -0.0003  0.1641
44002W        W86993  14.999   3.016  20.682 -0.1012  0.1292  0.1900
44003W        W86994  31.508   1.689  19.104  0.0733  0.1560  0.2646
44004W        W86995   8.832  33.799  21.638 -0.0448  0.1093 -0.2580
44005W        W86996   8.845  25.682  17.789 -0.4001 -0.0797  0.1624
44006W        W86997  30.912   4.339  19.614 -0.1191 -0.3866 -0.0477
44007W        W86998  10.722  31.879   0.275 -0.1910  0.1508 -0.2088
44008W        W86999  25.713   3.694  16.167 -0.1898  0.1466  0.1420
44009W        W87000  33.093  23.360  23.641  0.0037  0.1072  0.1483
44010W        W87001  31.002  22.450  17.963 -0.2902 -0.0138  0.0652
44011W        W87002  29.227  12.335  21.205  0.0541  0.1405 -0.1638
44012W        W87003  17.437   5.964  15.966 -0.0827  0.1525 -0.3510
44013W        W87004  32.576  34.549  14.505 -0.0018  0.0905  0.2216
44014W        W87005  18.116  22.974   7.357 -0.1060 -0.2677  0.1175
44015W        W87006  32.031  24.505  27.391 -0.1794 -0.2241  0.1048
44016W        W87007  18.722  32.196  22.850  0.2359 -0.1688 -0.0287
44017W        W87008   0.959  28.203  15.607 -0.1423  0.0236 -0.0019
44018W        W87009   1.558  13.933  18.402 -0.0518 -0.0883 -0.2149
44019W        W87010  22.244   6.923  26.364 -0.2213 -0.3466  0.1643
44020W        W87011   1.519  10.892   3.597  0.0557  0.0207  0.2114
44021W        W87012  24.252  32.801   3.803 -0.2998  0.0022 -0.0290
44022W        W87013  29.805  30.206  19.895 -0.0095 -0.2799  0.1827
44023W        W87014  20.834  21.618  22.087  0.0382  0.3108  0.2029
44024W        W87015   8.244   3.011  25.319 -0.0939  0.0053 -0.0156
44025W        W87016  25.115  23.738  20.170 -0.1484  0.0047 -0.0679
44026W        W87017  13.973   0.428  28.419 -0.0585  0.1434 -0.1876
44027W        W87018  17.970   4.723  13.917  0.1839 -0.1680 -0.2071
44028W        W87019  30.609  22.441  17.024  0.3084  0.0686  0.4137
44029W        W87020  13.255   9.860  21.412 -0.1272  0.0112  0.0424
44030W        W87021  18.010  20.510  17.580 -0.0100 -0.0661  0.1100
44031W        W87022  21.483  15.213  25.080 -0.2949  0.3049  0.0698
44032W        W87023  28.659  10.256  13.875  0.0415 -0.1841 -0.0532
44033W        W87024  29.587  21.357  18.904  0.0832  0.2866  0.0766
44034W        W87025  34.086  20.507   2.265  0.1564  0.2417 -0.1592
44035W        W87026  32.351  27.182  18.495 -0.0760  0.4301 -0.0525
44036W        W87027  30.885  28.118  14.430  0.0819 -0.0775  0.0884
44037W        W87028   1.039   2.510  17.523 -0.2228 -0.1812 -0.1073
44038W        W87029  26.342   7.123  16.705 -0.2824  0.0775 -0.3257
44039W        W87030  19.514  34.392   1.394  0.1718 -0.0633 -0.0183
44040W        W87031  28.451  22.845  28.946 -0.0622  0.1127  0.1364
44041W        W87032  30.591  11.122  16.173 -0.2316 -0.1218 -0.1882
44042W        W87033   1.153  25.705  15.248 -0.0364 -0.0012  0.1075
44043W        W87034  17.396   6.459   1.537 -0.2041 -0.0840  0.2428
44044W        W87035   5.484  26.405   0.401  0.1296  0.3449  0.0535
44045W        W87036  34.435   9.047  27.283  0.1807 -0.2294  0.1056
44046W        W87037  11.824  13.794  22.764  0.1989 -0.0807 -0.0594
44047W        W87038   1.858  28.144  14.491 -0.1423  0.1808 -0.2129
44048W        W87039  25.471  32.420  24.593 -0.0353  0.4291 -0.1098
44049W        W87040  25.808  24.905   1.430  0.0138  0.4568 -0.3648
44050W        W87041  28.988  30.169  18.482 -0.1748 -0.1113 -0.2060
44051W        W87042  30.570  34.585  16.091 -0.0454 -0.0591  0.1723
44052W        W87043   5.124  29.009  26.294  0.0545  0.2132 -0.0309
44053W        W87044  27.616  27.133   1.607 -0.1073 -0.2516  0.0579
44054W        W87045  10.601  23.259  16.004  0.0087 -0.0988  0.1549
44055W        W87046  22.296   4.036  28.848 -0.1719  0.2026 -0.2112
44056W        W87047  17.702  31.766  22.661  0.2234 -0.0005 -0.3624
44057W        W87048  26.695  12.459  24.867 -0.1267  0.1922  0.2145
44058W        W87049  24.147  30.099  24.316  0.1758 -0.0584  0.0736
44059W        W87050  20.153  21.315  22.941 -0.0942 -0.0228  0.0484
44060W        W87051  29.382   2.402  16.853  0.0523 -0.2352 -0.2135
44061W        W87052  33.805  31.314  22.358 -0.2645  0.0632  0.2206
44062W        W87053  29.365  31.204  18.246  0.1687  0.0002  0.1928
44063W        W87054  17.510  15.817  12.162  0.0439  0.0285  0.1147
44064W        W87055  26.017  21.647  28.514 -0.2549  0.2435 -0.1077
44065W        W87056  32.669   4.413  23.804 -0.2529 -0.1468  0.4300
44066W        W87057   0.712   6.182  20.205 -0.3221 -0.1228  0.3151
44067W        W87058  31.598  32.197   6.413 -0.1795  0.1753 -0.2736
44068W        W87059  28.132  29.999  12.472  0.1628  0.2349 -0.1716
44069W        W87060  21.208   7.756  19.574  0.0893  0.1378  0.0849
44070W        W87061  27.634   0.301   1.976  0.1721  0.0252  0.1415
44071W        W87062  20.048   5.468  20.052  0.1551  0.2809 -0.2867
44072W        W87063  17.015  28.948  25.989  0.1086 -0.1172  0.0698
44073W        W87064  31.524   4.942   0.342 -0.1751 -0.1850  0.3360
44074W        W87065   7.781   8.111  16.114 -0.0271 -0.0778  0.1667
44075W        W87066  20.331   0.960  19.434  0.0163  0.0219  0.1851
44076W        W87067  13.618  31.712  22.732 -0.1278 -0.3226  0.2306
44077W        W87068  26.718  13.488  18.361  0.0516 -0.1182 -0.0094
44078W        W87069  15.753  29.445  26.201 -0.1895  0.1943  0.1890
44079W        W87070  19.744  11.941  19.455  0.1251  0.1138 -0.1539
44080W        W87071   4.550  33.519  28.095  0.0779 -0.0855 -0.0375
44081W        W87072  24.926  28.399  14.414 -0.0848 -0.1043  0.3406
44082W        W87073   1.638  23.681  16.169 -0.1902 -0.3287  0.1649
44083W        W87074  32.845   1.510  17.033 -0.3038 -0.1437 -0.0814
44084W        W87075   0.081   9.649  16.539 -0.0954  0.0331  0.3104
44085W        W87076   3.314  31.711  14.357  0.1203  0.3055  0.2365
44086W        W87077  27.743   6.865   3.404 -0.0201  0.3976  0.3243
44087W        W87078  31.855  26.949  16.075 -0.0432  0.3523 -0.1659
44088W        W87079  27.893  30.226  22.206 -0.1587 -0.1154  0.0593
44089W        W87080   0.990   1.741  20.108 -0.0110  0.0842 -0.0950
44090W        W87081  18.181  31.761  19.840  0.1685  0.1547  0.0171
44091W        W87082  32.776   3.456   9.035  0.4195  0.1276  0.0390
44092W        W87083  15.295   5.578  21.239  0.2195  0.0789 -0.0021
44093W        W87084   1.319  25.670  20.875 -0.4950 -0.1089  0.0316
44094W        W87085   5.593  31.693  15.936  0.1458  0.1696 -0.2047
44095W        W87086  29.974  26.811  14.667  0.2091  0.3081  0.3525
44096W        W87087   2.011  25.253  15.016 -0.0073  0.0651  0.0117
44097W        W87088   0.961  30.766  24.299 -0.1959  0.0817  0.0860
44098W        W87089   2.647  33.347  19.115  0.2748  0.2325  0.1799
44099W        W87090  26.803  24.520  13.984  0.3196 -0.1373 -0.2012
44100W        W87091   1.591  32.666  13.672 -0.2667 -0.2674  0.0510
44101W        W87092  15.115  26.353  17.341 -0.1460 -0.3824  0.1622
44102W        W87093   9.681  14.002  28.414  0.0866  0.0776  0.1460
44103W        W87094  20.201  28.693   5.936 -0.1487  0.0299  0.1704
44104W        W87095   0.811  27.228  18.034  0.0810  0.1010  0.0869
44105W        W87096  31.111  31.826   2.346  0.0669  0.1399 -0.0732
44106W        W87097  23.331   2.532  15.373 -0.1366  0.2518 -0.0170
44107W        W87098  28.618  28.684   1.476  0.2073  0.0216 -0.1238
44108W        W87099   2.367  23.827  25.448 -0.2590 -0.0179 -0.1918
44109W        W87100  13.079  23.270  21.020 -0.1239  0.4528  0.1304
44110W        W87101  27.974   2.446  13.671 -0.1667 -0.0573 -0.2197
44111W        W87102  26.106  22.242  24.197  0.0022  0.2567 -0.0907
44112W        W87103  21.237   2.324  19.240 -0.0970 -0.0690  0.0096
44113W        W87104  21.012  34.702  19.258  0.0000  0.1732  0.0835
44114W        W87105   2.759  26.342  26.546  0.1325 -0.2461  0.1196
44115W        W87106  31.302  19.905  20.788 -0.1454  0.2132  0.1618
44116W        W87107  24.854   1.178   4.167 -0.1534  0.1345  0.0092
44117W        W87108  29.400  28.165  21.101 -0.2155 -0.1885 -0.4154
44118W        W87109  33.725  29.259  24.045  0.1052  0.4483  0.0741
44119W        W87110  32.877  23.924  14.998 -0.1387  0.2159  0.0439
44120W        W87111  32.423   6.638  28.544  0.1441 -0.0532  0.0888
44121W        W87112  32.055   6.913  14.116  0.0376 -0.1313  0.0684
44122W        W87113  19.658  26.093   0.304  0.1293 -0.0022  0.2795
44123W        W87114  25.963  33.031  19.806 -0.0141  0.2176 -0.3448
44124W        W87115  33.792   2.695  15.027 -0.0841 -0.1042  0.1260
44125W        W87116   3.093  26.871   2.888 -0.0979  0.0086 -0.4630
44126W        W87117  19.303  24.714  21.563  0.0967 -0.1853 -0.1902
44127W        W87118  28.471  31.359  15.728  0.2659  0.3570 -0.2350
44128W        W87119  24.004  11.205   5.953 -0.0392  0.0589  0.1298
44129W        W87120  25.670  25.025   7.498  0.2588 -0.1371 -0.2337
44130W        W87121   5.899  12.052  15.934  0.1367 -0.5103 -0.1260
44131W        W87122  32.434  25.304   9.919  0.2487 -0.2628 -0.1985
44132W        W87123  29.352  34.796  12.663  0.2750 -0.1041 -0.0098
44133W        W87124  33.361  24.251  18.476  0.2348 -0.2662 -0.0387
44134W        W87125  28.494   3.395  16.678 -0.1433  0.0793  0.0377
44135W        W87126  30.122  13.491  23.548 -0.2880  0.2572  0.1875
44136W        W87127   6.675  27.628  16.303  0.0609 -0.1304  0.4063
44137W        W87128  16.604  30.987  24.842  0.0765  0.0548 -0.0229
44138W        W87129  33.750  26.556  22.902  0.1700  0.0042  0.0476
44139W        W87130   0.980   4.402  17.186 -0.0219 -0.2635 -0.1540
44140W        W87131  21.138  32.834  26.888 -0.2954 -0.0879  0.2517
44141W        W87132  15.565  24.745   3.718  0.0456  0.2258 -0.0842
44142W        W87133  20.102  34.586  16.886  0.3241 -0.1237  0.1053
44143W        W87134  19.903   1.894  28.401  0.1618  0.2456 -0.0773
44144W        W87135   5.035  28.593  22.531 -0.1049 -0.1510  0.0694
44145W        W87136   5.424  28.245  23.943  0.0089  0.1310 -0.2129
44146W        W87137  32.692  18.671  18.465 -0.0717 -0.0908  0.1645
44147W        W87138  31.878  17.440  20.506 -0.0250 -0.1045 -0.0069
44148W        W87139   6.727  32.362   5.743  0.0730  0.0516 -0.0900
44149W        W87140  24.388  21.624  16.712 -0.2020 -0.0205  0.2765
44150W        W87141  28.970  26.926  18.769 -0.2059  0.0721  0.0336
44151W        W87142   0.884  30.547  20.291  0.1403 -0.1047  0.1836
44152W        W87143  14.266  34.404  24.889  0.1592 -0.3435 -0.3655
44153W        W87144  32.947  33.510  26.206 -0.1583  0.1360  0.0045
44154W        W87145  14.213   1.290   2.168  0.0759  0.0131  0.2475
44155W        W87146  23.592   4.194   0.936 -0.0924  0.0028 -0.0871
44156W        W87147   4.134  21.319  17.711 -0.1063 -0.2197 -0.1606
44157W        W87148  30.299   0.373  24.181 -0.0227 -0.0245  0.1050
44158W        W87149  24.471  27.604  20.144  0.1384 -0.1172 -0.0472
44159W        W87150  28.573  27.076  22.105  0.1767  0.1022 -0.0175
44160W        W87151  34.211   1.514  23.861  0.1055 -0.0050  0.0078
44161W        W87152   2.519  31.872   9.727 -0.1362 -0.0976 -0.2181
44162W        W87153  26.507   6.512   0.054 -0.1018  0.2823 -0.2364
44163W        W87154  24.809   0.434  23.140 -0.1770 -0.0917  0.3263
44164W        W87155  29.956  29.726  20.851 -0.2181 -0.2983  0.0090
44165W        W87156  11.939  29.923  24.926  0.3243 -0.0011 -0.0816
44166W        W87157   2.581   1.318  28.052 -0.0393  0.3523 -0.0001
44167W        W87158  24.435  25.210  16.104  0.1421 -0.1125 -0.0506
44168W        W87159  17.414   5.830  28.751 -0.0028 -0.2087  0.0148
44169W        W87160  29.141   9.383   5.726 -0.2934 -0.1173 -0.3048
44170W        W87161   0.972  25.248  26.921  0.0064  0.2089 -0.4784
44171W        W87162  10.104  18.522  22.522  0.1286  0.2230  0.1485
44172W        W87163  22.724  29.840   4.801 -0.0443  0.1521 -0.2174
44173W        W87164   6.982   1.873   4.229  0.0101  0.0323  0.3608
44174W        W87165  10.635  26.195  16.628 -0.1869 -0.2243  0.2636
44175W        W87166  33.241  21.836  19.187  0.2038  0.1309 -0.0143
44176W        W87167   7.907  26.059  18.303 -0.0735 -0.0635 -0.0283
44177W        W87168   5.182  30.907  20.757 -0.1373 -0.0452 -0.3172
44178W        W87169  25.987  34.662  15.585 -0.2113 -0.0065  0.0796
44179W        W87170  20.150  27.961  14.087 -0.0644  0.1759  0.2313
44180W        W87171  10.722   2.455  18.527  0.0711 -0.2089  0.3074
44181W        W87172  22.856  18.941  21.751 -0.0045  0.2608  0.1231
44182W        W87173  25.718  28.500  20.088  0.2098  0.0896 -0.0328
44183W        W87174  28.486   5.566  28.604 -0.0526  0.0914  0.0066
44184W        W87175  24.505   7.547  18.968 -0.0439  0.1996  0.1207
44185W        W87176  18.722  20.316  25.077 -0.2637 -0.0461  0.1474
44186W        W87177  15.030  13.595  26.950 -0.0635 -0.3205 -0.1682
44187W        W87178  25.078  18.790  19.837  0.0887 -0.1538 -0.1497
44188W        W87179  22.911  21.862  12.378 -0.0721 -0.2073 -0.2991
44189W        W87180  27.514  31.844  15.502  0.0214 -0.0593 -0.1606
44190W        W87181  31.014  25.611  28.875  0.0659 -0.0203 -0.1450
44191W        W87182  21.614   3.525   9.677 -0.3874 -0.2915 -0.3414
44192W        W87183  21.686  30.403  25.168 -0.2902 -0.0980 -0.0599
44193W        W87184   1.458   7.193   7.637  0.0227 -0.0348 -0.0625
44194W        W87185  20.610  27.793  14.069 -0.0106  0.3462  0.1569
44195W        W87186   6.235   2.981   5.645 -0.2215  0.0587  0.0612
44196W        W87187  12.478   2.998  10.739 -0.2417 -0.0135  0.0722
44197W        W87188   2.389   3.363  20.875  0.2849  0.0533  0.1008
44198W        W87189  30.740  22.111   9.204 -0.1035  0.2145 -0.0465
44199W        W87190   2.263  28.090   0.597 -0.0458  0.2087 -0.0128
44200W        W87191  18.464  21.202  15.946 -0.0197 -0.1444 -0.0514
44201W        W87192  27.099   4.286  15.591 -0.1272  0.0698  0.0708
44202W        W87193   7.887  30.664  22.096  0.0046  0.0116 -0.0290
44203W        W87194   4.119   3.264   1.886  0.1760 -0.3338 -0.0972
44204W        W87195  28.706  30.176  13.351 -0.1238 -0.1179  0.4464
44205W        W87196  33.089  32.947  17.798  0.0641 -0.3072  0.0813
44206W        W87197   0.461   5.702  24.304 -0.1764  0.0081 -0.0870
44207W        W87198   1.657  30.794  28.080  0.1632 -0.2836 -0.1006
44208W        W87199  34.321  31.244  17.963 -0.1362  0.3179  0.1580
44209W        W87200  30.202   9.623  23.585 -0.1586  0.1656  0.2891
44210W        W87201  16.628  32.305  20.545 -0.2376 -0.1525 -0.0714
44211W        W87202  32.831  24.876  23.977 -0.3572  0.1157  0.2131
44212W        W87203  18.138  12.751  12.762  0.2202 -0.2495  0.1505
44213W        W87204  24.340  10.048  25.722  0.1147  0.0250 -0.1703
44214W        W87205   8.489  30.513  14.482 -0.1159 -0.2004 -0.0887
44215W        W87206   4.609  30.841  20.184 -0.0427 -0.2122  0.0811
44216W        W87207   1.320  16.738  17.504  0.1421 -0.1853 -0.1163
44217W        W87208  13.358  14.398  26.106  0.1008 -0.4493  0.1847
44218W        W87209  29.034   4.871  18.045 -0.2345 -0.2415  0.4096
44219W        W87210   0.258   7.468   1.864  0.1260  0.1977  0.2929
44220W        W87211  29.570  17.622   2.282 -0.0041  0.2328 -0.2090
44221W        W87212   5.179  23.255  17.047 -0.2295 -0.0211 -0.0741
44222W        W87213   7.198  16.514  17.089 -0.0125 -0.1868  0.0491
44223W        W87214  34.394  23.596  26.508 -0.2707 -0.0509  0.2411
44224W        W87215   2.692  16.889   2.540 -0.0538 -0.0605  0.0850
44225W        W87216   4.169  19.379  23.615 -0.0584  0.0885 -0.1961
44226W        W87217  30.239  23.082  20.075 -0.1612  0.0235 -0.2870
44227W        W87218  27.218  34.381  18.457 -0.0479 -0.1354 -0.0384
44228W        W87219  28.878  15.506  17.348 -0.1635  0.0914  0.1515
44229W        W87220  23.776  34.634  19.026  0.1715  0.0658 -0.1126
44230W        W87221  12.176  33.406   4.641  0.0602  0.0116  0.3439
44231W        W87222  23.918  31.384  12.825 -0.2046 -0.2939 -0.0978
44232W        W87223   4.413  31.585  19.152 -0.2840 -0.1592 -0.2504
44233W        W87224  31.390  21.719  21.593  0.1381 -0.3450 -0.0640
44234W        W87225  30.000  10.799  19.420  0.1271  0.0851  0.0157
44235W        W87226   0.876  31.755  24.043  0.2750 -0.1627  0.1769
44236W        W87227   6.180  18.134  22.171 -0.1202  0.1349 -0.0571
44237W        W87228   0.321  26.946   0.059 -0.2999  0.2614  0.0921
44238W        W87229   9.349  31.299  15.516 -0.0024  0.1964  0.2740
44239W        W87230   5.809   3.546   0.515 -0.0489  0.0876 -0.0639
44240W        W87231  22.752   9.097  27.287 -0.0315  0.2063  0.0654
44241W        W87232  29.779   6.134  18.394 -0.0137  0.1076 -0.2906
44242W        W87233  11.353  28.488  16.046 -0.0994  0.0357 -0.1688
44243W        W87234  25.830  18.635  24.552 -0.1047 -0.0195 -0.1806
44244W        W87235  21.946  16.190  22.135  0.2922  0.1062  0.0059
44245W        W87236  17.095   3.159  17.107 -0.3434  0.0440 -0.1236
44246W        W87237  19.341  13.703  21.676  0.2382 -0.2812  0.1190
44247W        W87238   6.000  17.866  17.693 -0.3089  0.0378 -0.2182
44248W        W87239  30.713   1.097   2.704 -0.0280 -0.1262 -0.2338
44249W        W87240  26.735   5.587  16.907 -0.3204 -0.1404  0.2842
44250W        W87241  24.426  34.039   0.027 -0.0417 -0.2651  0.0229
44251W        W87242   0.396  29.669  19.031  0.0265  0.2330 -0.3806
44252W        W87243  32.157  33.527   7.377  0.1327  0.1870 -0.0605
44253W        W87244  26.308   5.927  15.530 -0.1653 -0.0078  0.1407
44254W        W87245  33.338  19.002   0.214 -0.1715  0.0094 -0.0229
44255W        W87246  30.942   5.346   0.975 -0.1064 -0.0626  0.0238
44256W        W87247  31.983  18.435  21.336  0.0004 -0.0158 -0.1683
44257W        W87248  27.732   3.061  14.698  0.1622 -0.0985  0.2573
44258W        W87249  30.706   7.789  22.759 -0.1494  0.2208  0.1740
44259W        W87250  24.393  10.656  24.323  0.1828  0.1068 -0.1368
44260W        W87251  30.202  25.582  14.150  0.1136  0.0115 -0.0010
44261W        W87252   6.676  17.354  26.283  0.0540  0.2098 -0.1195
44262W        W87253  34.269  19.390  10.291 -0.0489 -0.1569 -0.2212
44263W        W87254   1.485  29.632  18.314 -0.0149  0.0112  0.0266
44264W        W87255   5.482  29.485  14.124  0.0865 -0.1244 -0.1528
44265W        W87256  30.192  30.720  14.990 -0.4590 -0.0431 -0.0280
44266W        W87257   2.435   4.869  15.496  0.0783 -0.0680  0.2174
44267W        W87258   7.910   4.704   5.564  0.0404 -0.0113  0.2639
44268W        W87259  34.497  34.798  27.955 -0.0773 -0.1846 -0.1678
44269W        W87260  21.309   8.716  21.997  0.1611 -0.2098 -0.0058
44270W        W87261   9.469   1.708  22.154  0.1193 -0.0826  0.2221
44271W        W87262  31.550  32.919  17.120  0.0263 -0.2798  0.1780
44272W        W87263  23.039  24.604  23.349  0.0191  0.0578 -0.1465
44273W        W87264  32.269  28.203  22.197  0.0920  0.0429 -0.1655
44274W        W87265  29.556   5.024  24.159  0.2591 -0.1338  0.1527
44275W        W87266   2.261  22.554  27.521  0.0170 -0.2978  0.3395
44276W        W87267  25.809  28.695  14.700 -0.1750  0.0442 -0.2029
44277W        W87268   9.799   6.954  23.269  0.1520  0.1360  0.1071
44278W        W87269  30.910  24.950  14.425 -0.1301 -0.1930 -0.0743
44279W        W87270  29.576   4.058   0.518 -0.0273 -0.0304  0.1317
44280W        W87271  18.263   1.616  17.392 -0.2241 -0.1059 -0.2219
44281W        W87272  19.211  25.172  25.568 -0.1287 -0.2621  0.1024
44282W        W87273  30.174  15.285  17.824 -0.1397 -0.3003  0.0041
44283W        W87274  33.831   0.867  25.051  0.0496 -0.1548  0.0803
44284W        W87275  13.679  34.054  16.086 -0.0199  0.2278  0.4092
44285W        W87276  13.723  26.499  16.291  0.0930  0.0536  0.0763
44286W        W87277  34.322  31.473  14.473  0.0373  0.3123  0.1371
44287W        W87278  33.365   3.223   2.593 -0.1300 -0.2320 -0.1354
44288W        W87279  21.766   8.997  16.835  0.1234 -0.1101 -0.0120
44289W        W87280   3.680  31.924  23.647  0.0732 -0.0035 -0.0294
44290W        W87281   3.125   6.914   6.081 -0.2251 -0.0722  0.2767
44291W        W87282  23.551   0.673  21.569 -0.1042 -0.0886 -0.2190
44292W        W87283  32.572  17.305  21.078 -0.2863 -0.0496 -0.0923
44293W        W87284  26.843  20.710  25.831 -0.0622  0.2227 -0.1968
44294W        W87285  34.038  28.474  21.075 -0.1866  0.1196  0.1306
44295W        W87286  31.068  17.712  16.860  0.0133 -0.1019 -0.1516
44296W        W87287  13.380  23.060  19.617 -0.2002  0.0779  0.2106
44297W        W87288   8.487  26.001  18.697  0.2052  0.0426 -0.1180
44298W        W87289  29.128   4.924   3.761  0.1336  0.0244 -0.1521
44299W        W87290   1.199   1.462   9.582  0.0337  0.2071 -0.2030
44300W        W87291  29.160  26.029  19.167  0.0543 -0.1930  0.0600
44301W        W87292  11.674  34.247  22.486  0.0325 -0.1690  0.1742
44302W        W87293  28.203   1.225  27.765  0.0755  0.0928 -0.4273
44303W        W87294   3.491  12.482   8.794 -0.2421 -0.0012 -0.1688
44304W        W87295  19.625   5.226   2.414 -0.0984  0.3009  0.1996
44305W        W87296  31.157  24.437  20.585 -0.1928 -0.2709 -0.3904
44306W        W87297  24.274  29.706   5.108 -0.2973  0.3335 -0.0488
44307W        W87298  34.268  31.400  15.471  0.0929 -0.1863 -0.3496
44308W        W87299  28.951  21.724   0.158  0.4748  0.0832 -0.4184
44309W        W87300   1.061  21.847   0.309 -0.0950  0.2681  0.0763
44310W        W87301  22.447  27.164  24.208 -0.0803  0.0422  0.1053
44311W        W87302   0.863  22.780  15.549  0.0286 -0.0296 -0.0909
44312W        W87303  23.439  27.790   5.772  0.2977 -0.0068  0.3562
44313W        W87304  22.742  23.325   9.317  0.1428 -0.1717  0.2139
44314W        W87305  23.009   1.272  21.107  0.2793 -0.2426  0.1979
44315W        W87306  30.170  24.737  14.267  0.3906 -0.1972 -0.1895
44316W        W87307  29.082  14.646  22.352  0.2145 -0.2870  0.0871
44317W        W87308   2.860  22.936  19.435  0.1194 -0.4377 -0.1233
44318W        W87309   2.986   2.377  27.865 -0.2797  0.1533  0.2901
44319W        W87310  16.835  29.486  13.911  0.1343  0.2099 -0.2037
44320W        W87311  27.957   4.158  21.080  0.1996  0.0504  0.2327
44321W        W87312  29.670  25.878  23.306 -0.0898  0.2365 -0.2156
44322W        W87313  29.299  28.806  14.042 -0.1708  0.1717 -0.0796
44323W        W87314  10.523  14.240  26.342 -0.0141 -0.3432 -0.0332
44324W        W87315  26.242  28.539  14.174 -0.2073 -0.3015 -0.3212
44325W        W87316  27.239  23.404   8.721  0.1681  0.0949 -0.0312
44326W        W87317  27.632  33.266  23.828  0.5756  0.3639 -0.0548
44327W        W87318   4.256  26.097  14.686 -0.2107 -0.2403  0.0925
44328W        W87319  23.753   8.744  14.816  0.2618  0.1274  0.2271
44329W        W87320  34.328   1.716  13.871 -0.1049  0.0507 -0.0336
44330W        W87321  34.701  30.282  21.925  0.1045  0.1004  0.1140
44331W        W87322  26.982   7.010  19.651  0.0597 -0.1087  0.0897
44332W        W87323  20.920  16.160  24.873  0.1806 -0.0108 -0.0504
44333W        W87324  19.871  17.731  14.156 -0.1840 -0.0614  0.0830
44334W        W87325  26.268  27.673  18.473 -0.0652  0.2996  0.0275
44335W        W87326  17.075  32.908   2.333 -0.0501  0.3261  0.0067
44336W        W87327  30.125  24.607  14.832  0.0271  0.5351 -0.3068
44337W        W87328   6.731   6.931  24.654 -0.0771  0.0599  0.0877
44338W        W87329   9.456  30.047  22.083 -0.1588 -0.0530  0.5571
44339W        W87330  30.300   4.066  26.682  0.2890 -0.2927  0.3083
44340W        W87331  32.006  29.948  18.554 -0.0677  0.3320  0.1430
44341W        W87332   2.783   2.769  21.928  0.0304  0.3042 -0.0601
44342W        W87333  22.895   6.547   1.753  0.3123 -0.2030  0.0748
44343W        W87334  25.459  20.685  21.913 -0.1123  0.3187  0.0260
44344W        W87335  27.883  23.679  20.877  0.0563 -0.0256 -0.1783
44345W        W87336   3.923   3.041  19.381 -0.3204  0.2348 -0.2624
44346W        W87337  34.263  34.411  22.854  0.2247  0.0329 -0.1553
44347W        W87338  33.809   3.783  24.192  0.3028  0.0798 -0.2929
44348W        W87339   2.071  19.089  28.555 -0.1244 -0.1203 -0.0584
44349W        W87340  30.033  30.090  23.083  0.4266 -0.1561  0.1586
44350W        W87341   3.940  30.004  20.699 -0.1934  0.0511  0.1772
44351W        W87342  28.908  22.841   1.313  0.0235 -0.2452  0.0778
44352W        W87343  21.588   1.608  17.877 -0.0536  0.3254 -0.0331
44353W        W87344  12.976  21.059  14.131  0.0366 -0.0734 -0.2343
44354W        W87345  32.930   7.546   0.244 -0.2082  0.0662 -0.0144
44355W        W87346  16.006  24.180  20.557  0.0101 -0.2958 -0.3679
44356W        W87347  20.297   6.437  24.095  0.2197 -0.2209 -0.0519
44357W        W87348  24.131  28.143  14.970  0.0068  0.1959 -0.1892
44358W        W87349  11.388  27.802  27.663 -0.2430 -0.0496  0.0095
44359W        W87350   5.287  10.711   9.471 -0.3202 -0.1577 -0.1075
44360W        W87351  24.939   1.996  21.322  0.1184  0.1125 -0.2317
44361W        W87352  19.154  29.521  15.130  0.2722  0.1552 -0.1651
44362W        W87353  10.488  10.888  11.007 -0.1805  0.0292  0.0289
44363W        W87354   5.328   8.980  22.678  0.1252  0.0952 -0.0124
44364W        W87355  26.805  30.454   3.132 -0.2199 -0.1939 -0.0942
44365W        W87356   2.551  33.726  17.783  0.1988  0.0245 -0.0359
44366W        W87357  26.000  31.107   7.047  0.0715 -0.0132  0.2147
44367W        W87358  23.615  17.617  15.895  0.0871 -0.1070  0.0045
44368W        W87359  22.727  30.861  14.520  0.4429  0.0587  0.1254
44369W        W87360  26.538   6.623  27.449  0.0796  0.0577 -0.3672
44370W        W87361   5.088  31.769   6.301 -0.2491 -0.1324 -0.3448
44371W        W87362  23.894  29.893  27.179  0.0776 -0.1457  0.1604
44372W        W87363  16.594  29.646   2.316 -0.0426 -0.3478  0.0115
44373W        W87364   0.210  19.332   7.565 -0.0362 -0.0268  0.2971
44374W        W87365  34.395  22.641  26.347  0.0213  0.1342  0.1339
44375W        W87366  12.647   2.360  23.039 -0.1922 -0.0613  0.1496
44376W        W87367  19.585   0.516   0.928  0.1531  0.1543  0.3263
44377W        W87368   4.138  34.681  28.993 -0.1247 -0.1233 -0.0948
44378W        W87369   1.646  20.699  26.551 -0.0101 -0.0798  0.4148
44379W        W87370  18.670   8.787   1.077 -0.3644  0.0338  0.1696
44380W        W87371   8.698   4.674   0.568  0.2495 -0.2317 -0.2407
44381W        W87372  17.767  32.435  16.552  0.1162  0.2263 -0.1963
44382W        W87373  14.240  32.471  21.082  0.3139 -0.0316  0.2949
44383W        W87374   1.494   6.315   3.166 -0.2414 -0.1596  0.2099
44384W        W87375  31.119  19.476   2.798 -0.2556  0.1529  0.5035
44385W        W87376  10.465   6.849  10.525 -0.0823 -0.0094 -0.0920
44386W        W87377   2.200  34.565   8.245 -0.1408  0.2800  0.2244
44387W        W87378   8.449  18.438  21.807 -0.2275 -0.1007  0.0204
44388W        W87379  21.109   2.925  21.090 -0.0125  0.0290  0.2022
44389W        W87380  22.178  32.032  13.278 -0.1171 -0.2541 -0.2644
44390W        W87381   0.695  27.264   3.769 -0.0977 -0.0495  0.0935
44391W        W87382   3.981  26.711  17.979 -0.1274  0.0446  0.0111
44392W        W87383  33.440  28.677  13.500  0.0794 -0.2570 -0.0715
44393W        W87384   4.415   6.000   1.885  0.2154  0.1996 -0.0017
44394W        W87385  28.450  34.076  25.771 -0.1887  0.1502  0.1150
44395W        W87386  29.119  31.852  21.139 -0.1765 -0.3307 -0.1570
44396W        W87387   8.158  26.375   1.302 -0.1122 -0.2778  0.0701
44397W        W87388   5.056   3.845   1.082  0.0186 -0.0144 -0.0885
44398W        W87389  16.031   1.905  15.665  0.1169  0.3603  0.1455
44399W        W87390  23.052  26.502   1.999  0.0887  0.0374  0.0460
44400W        W87391  26.865   0.924  13.710 -0.0119 -0.0752 -0.0471
44401W        W87392  25.827  17.709  20.568 -0.1751 -0.3312 -0.0339
44402W        W87393  29.499   1.423   0.640  0.0025  0.0041  0.0851
44403W        W87394   3.498  24.434  27.346  0.3040 -0.3003  0.2528
44404W        W87395  25.881  31.017  15.435 -0.1389  0.1661 -0.0932
44405W        W87396  25.109   7.704   3.808  0.0092 -0.0617 -0.5297
44406W        W87397  34.257   2.948  23.916 -0.0498 -0.1504  0.0730
44407W        W87398  27.634  24.613  18.769 -0.2355  0.0828 -0.0497
44408W        W87399  10.747   1.538  21.226 -0.0773  0.1763  0.0583
44409W        W87400  19.120  22.549  17.967  0.0894 -0.0995  0.1577
44410W        W87401  29.742   1.306   7.978 -0.1540 -0.1404 -0.3804
44411W        W87402   8.003   8.795   0.386  0.0642  0.1776 -0.1168
44412W        W87403   4.928   8.323   5.091  0.2790 -0.0186 -0.1720
44413W        W87404   1.517  30.077   1.388 -0.0742 -0.1160  0.1558
44414W        W87405   7.802  31.633   9.395 -0.1146  0.0283  0.2949
44415W        W87406   0.492  30.365  17.295  0.1885  0.1979  0.2912
44416W        W87407   8.094  21.429   8.181 -0.3911  0.3535 -0.0806
44417W        W87408  28.822   4.758  17.177  0.2468 -0.2503 -0.1675
44418W        W87409   9.271  32.106  15.044 -0.0864  0.0977 -0.0199
44419W        W87410  29.876  31.580  14.447  0.2153 -0.1412 -0.1497
44420W        W87411  23.797   9.896  23.499  0.0384  0.3060  0.0670
44421W        W87412  24.048  16.019  16.572 -0.0207  0.0211  0.1305
44422W        W87413  31.208   0.959   2.862  0.2125  0.2356 -0.0326
44423W        W87414  31.652  20.367  21.433  0.0554 -0.3136 -0.0565
44424W        W87415   1.661  32.401   5.820 -0.0063  0.1699  0.1460
44425W        W87416  26.826  15.841  25.378 -0.2804 -0.0759  0.2628
44426W        W87417  18.942   4.143   1.369  0.0499 -0.3082  0.1615
44427W        W87418   3.440  28.646  22.023  0.2863 -0.2028  0.5910
44428W        W87419  27.722   5.701  21.979 -0.0417  0.0118 -0.2642
44429W        W87420   5.880  12.847   4.402 -0.0067  0.1577  0.3416
44430W        W87421  28.691  30.639  25.279  0.1366 -0.2294 -0.3794
44431W        W87422  33.679  16.982  10.577  0.0849  0.0198  0.0784
44432W        W87423  28.106  31.097  23.981 -0.0594 -0.1603 -0.0684
44433W        W87424  12.119  10.643  25.633  0.2904  0.0587  0.1232
44434W        W87425  34.543  10.185  27.104 -0.1727 -0.0050  0.3345
44435W        W87426  22.125  14.397   6.142  0.0549  0.0992  0.0620
44436W        W87427  34.271   9.554  22.999  0.4583  0.2060  0.0055
44437W        W87428  26.335  15.260   9.906 -0.1117 -0.0977 -0.2975
44438W        W87429  23.003  23.194  13.649  0.1455 -0.0125 -0.1349
44439W        W87430  22.797  24.593  15.812 -0.0436  0.0504  0.2370
44440W        W87431  20.190   4.334  24.540  0.0187  0.1284  0.2755
44441W        W87432   4.951  16.591  20.912  0.0834  0.0699 -0.2051
44442W        W87433   6.671  22.487  26.516  0.1818  0.2531 -0.0758
44443W        W87434  23.738  20.318   2.265  0.1561  0.1477  0.0366
44444W        W87435  11.704  34.661   0.991  0.1714  0.0286 -0.1017
44445W        W87436  27.943   0.535  25.536 -0.0019 -0.0714  0.0962
44446W        W87437  15.933   2.325  18.932  0.1254  0.0367 -0.1690
44447W        W87438  22.597  10.792  20.776  0.0021  0.0371 -0.0339
44448W        W87439  28.968  29.920  17.307 -0.1690 -0.0138 -0.0724
44449W        W87440  15.004  34.553  21.759  0.2539 -0.2822  0.3417
44450W        W87441   5.830  31.152   2.456  0.2127  0.3090  0.1303
44451W        W87442   1.919  22.518  24.432  0.1932 -0.0005  0.4875
44452W        W87443  32.885   3.874   1.691  0.0339  0.1519  0.2361
44453W        W87444  24.987  33.965  26.642 -0.2044 -0.1677  0.2020
44454W        W87445  30.205  15.259  24.955 -0.0315 -0.3740  0.4602
44455W        W87446  25.896  11.791   3.142 -0.0222  0.1832  0.1272
44456W        W87447   5.889  22.835  22.161  0.0283 -0.0248 -0.1408
44457W        W87448   1.142   3.945  16.992 -0.1500  0.1425  0.1504
44458W        W87449  32.213  25.382  27.829  0.2586 -0.3483 -0.2127
44459W        W87450  25.396  21.740   9.703  0.0469  0.2999 -0.0353
44460W        W87451   8.597  16.683  24.207 -0.2861 -0.1342  0.2576
44461W        W87452  32.848  12.806  22.579  0.1283  0.0698  0.1287
44462W        W87453  33.902   2.850  17.081 -0.0252 -0.0522  0.1221
44463W        W87454  28.253  32.639   4.983 -0.1587 -0.1017 -0.1056
44464W        W87455  29.281  33.408  16.856  0.3237  0.0356  0.0351
44465W        W87456   8.358  22.178  15.051  0.0537  0.1026  0.0415
44466W        W87457   9.491   6.744  26.932 -0.0166  0.0770  0.2142
44467W        W87458   9.888  31.558  24.540  0.3450 -0.2738 -0.0303
44468W        W87459  16.513  24.432  16.565  0.1589 -0.0569 -0.1285
44469W        W87460  34.605   1.198  27.900 -0.3948 -0.2618 -0.0140
44470W        W87461  28.064  14.370  15.568  0.3079 -0.2075 -0.2845
44471W        W87462  33.530  30.597  21.937  0.0406  0.1004 -0.0171
44472W        W87463   5.632  27.930   9.098 -0.0423  0.1293  0.1838
44473W        W87464  23.965  25.338  19.641 -0.2236 -0.0605  0.1033
44474W        W87465  10.771   7.134   4.784  0.0613  0.2037 -0.3876
44475W        W87466   6.287  23.478  25.950  0.0199 -0.3161  0.1884
44476W        W87467   5.970  34.215  27.812  0.1027 -0.0800  0.1604
44477W        W87468  22.369  23.707  15.154  0.1787  0.0875  0.0651
44478W        W87469  10.059   2.140  20.471 -0.2332 -0.1631 -0.0152
44479W        W87470   6.484  14.316  23.458  0.1626  0.1080  0.1955
44480W        W87471  26.969  32.621  22.873  0.0024 -0.2111 -0.2786
44481W        W87472  30.270   1.906  24.179  0.0458 -0.0267 -0.2973
44482W        W87473  21.578  28.589  25.177 -0.0794  0.2381  0.2528
44483W        W87474   2.132  31.197  15.970  0.0586  0.7447 -0.0790
44484W        W87475   2.926  25.970  16.512  0.0561 -0.0937  0.3623
44485W        W87476  34.792  24.142  14.625 -0.1732 -0.2287 -0.1656
44486W        W87477  30.328  21.258  28.280 -0.0280 -0.1108  0.1291
44487W        W87478   3.926  23.843  23.614 -0.0395 -0.2653  0.3624
44488W        W87479  10.640  30.146  20.641  0.0731  0.3006  0.0932
44489W        W87480  23.341  22.232  17.841  0.3365 -0.2687  0.2521
44490W        W87481  29.678  15.415  24.665 -0.2825 -0.0976 -0.0263
44491W        W87482  19.766  11.489   0.823  0.3049 -0.3277 -0.0964
44492W        W87483  32.535  28.771  16.455  0.1574  0.2206  0.2233
44493W        W87484  34.196   5.438  18.482 -0.0616  0.0206 -0.0108
44494W        W87485  34.556  10.438  26.233 -0.0261  0.3082  0.0552
44495W        W87486   1.964  26.779  17.559 -0.1037  0.2248 -0.1971
44496W        W87487   2.973   2.396  22.258  0.0588 -0.0512 -0.0785
44497W        W87488  32.739  14.265  11.020 -0.0154 -0.0950 -0.2433
44498W        W87489  33.733   7.086  24.698  0.2060  0.3772 -0.1809
44499W        W87490  34.109  30.777  12.945  0.2144  0.0546  0.2292
44500W        W87491   2.207  16.873  17.919 -0.1714  0.0093 -0.2945
44501W        W87492   0.731  21.537  19.897 -0.0123  0.0604 -0.4035
44502W        W87493  12.326   1.097  10.159  0.2605 -0.1609  0.1885
44503W        W87494   6.519  11.478   6.407 -0.1932 -0.2832 -0.0357
44504W        W87495   3.656  19.703  28.889  0.1559  0.4159  0.1226
44505W        W87496   1.920  34.241  13.816 -0.0124 -0.1011 -0.0413
44506W        W87497   2.049  30.035  28.564  0.1146 -0.1654  0.2007
44507W        W87498  32.078  28.098  20.099 -0.0442 -0.0828 -0.0955
44508W        W87499   4.621  26.010  20.244 -0.0209  0.2329  0.2441
44509W        W87500  24.273  19.775  24.696  0.1023 -0.2960  0.1124
44510W        W87501  30.345  16.927  22.977 -0.0966  0.1855 -0.4597
44511W        W87502  29.564  24.198   4.159  0.3085 -0.1092  0.2925
44512W        W87503  24.085  27.778  20.500 -0.0867 -0.1017  0.1157
44513W        W87504  25.598   1.911  16.746 -0.2394  0.1849  0.0796
44514W        W87505  20.893   1.296   7.814 -0.2323  0.0422  0.1296
44515W        W87506  31.472   3.643   8.268 -0.0788 -0.0666  0.1358
44516W        W87507   3.133   2.087  22.685  0.0869  0.1919 -0.1792
44517W        W87508  23.741  26.705  13.094 -0.0195  0.3179 -0.4452
44518W        W87509  28.964  17.575  21.855 -0.1385  0.1909  0.0040
44519W        W87510  29.178  30.286  27.451  0.2102  0.1007 -0.2945
44520W        W87511  17.737  28.799  24.656 -0.0837 -0.1055 -0.0294
44521W        W87512  31.675  14.084  19.906  0.1957 -0.0994 -0.0008
44522W        W87513  13.213  26.296  17.017 -0.1221 -0.0583  0.0778
44523W        W87514  28.299   2.372  15.494  0.0265  0.1378  0.2976
44524W        W87515  32.733  12.605   6.535  0.1937 -0.0719 -0.0737
44525W        W87516   4.837  27.940  22.921 -0.0243  0.6390  0.1649
44526W        W87517   3.424   0.806  10.195 -0.0095  0.0135  0.0331
44527W        W87518  27.742  29.050  14.596 -0.3267  0.0143 -0.2020
44528W        W87519  29.604  14.128  26.823 -0.0796 -0.3364 -0.1668
44529W        W87520  32.533  26.761  18.770 -0.0199 -0.1000 -0.1749
44530W        W87521  20.915   6.279  14.885 -0.2017 -0.0125  0.2607
44531W        W87522  12.381   0.405   0.327 -0.0033  0.0929  0.1872
44532W        W87523  28.900  27.211  20.086 -0.0977 -0.0620  0.1707
44533W        W87524  24.002  19.847  26.175  0.0384 -0.3916  0.0261
44534W        W87525  31.457   3.979   5.093  0.1037  0.1309  0.1311
44535W        W87526  25.728   2.599  27.485 -0.0145 -0.0393  0.1414
44536W        W87527  25.816   1.526   1.546 -0.0838  0.0830  0.1857
44537W        W87528  29.359   1.424  25.257  0.0064 -0.2597 -0.2985
44538W        W87529  30.040   2.878  23.450  0.0734 -0.1774 -0.2761
44539W        W87530  32.863  23.606  24.107  0.1796  0.2290 -0.0460
44540W        W87531   9.149  32.798  25.470 -0.1269 -0.0145  0.1638
44541W        W87532  26.091  27.083  21.489 -0.0293 -0.0076 -0.0278
44542W        W87533   4.134  26.856  14.614 -0.0480 -0.1639 -0.0445
44543W        W87534   0.624  27.908  20.200  0.1165  0.3701  0.1623
44544W        W87535  24.556  25.872   7.411 -0.0973 -0.0648 -0.4206
44545W        W87536   3.353   2.310   7.928 -0.1081 -0.2642 -0.4779
44546W        W87537  15.154  16.243  28.856  0.1764  0.1601  0.1943
44547W        W87538  21.375  23.983  21.518  0.1443  0.0806 -0.0487
44548W        W87539  30.303  25.866  18.051 -0.0678 -0.2167 -0.2557
44549W        W87540  30.550   8.065  16.800  0.1694  0.1762 -0.0902
44550W        W87541  34.341   8.673   1.844 -0.3023  0.2201  0.2256
44551W        W87542   8.881  16.642  15.363  0.0554 -0.2917 -0.0510
44552W        W87543  29.039   3.342   8.180 -0.1009 -0.2438 -0.1754
44553W        W87544  33.322  18.485  20.096  0.0410 -0.0252 -0.1290
44554W        W87545   4.921  29.249  28.297  0.1689  0.1038  0.2122
44555W        W87546  21.830  27.761  25.404 -0.2047 -0.0875 -0.2105
44556W        W87547   3.164  21.108  17.889  0.0849  0.3025 -0.0374
44557W        W87548  23.110  18.399  23.299  0.1593 -0.0991  0.4050
44558W        W87549  11.816   7.958   1.602 -0.1056 -0.1532 -0.0704
44559W        W87550  24.028  23.430   3.778  0.1478  0.1327 -0.2459
44560W        W87551   3.390   0.128  26.350  0.0882  0.1081  0.0646
44561W        W87552  23.143  21.745  15.167 -0.3473  0.1292 -0.0643
44562W        W87553  16.961  23.440  18.340  0.4266  0.2429  0.0398
44563W        W87554  31.477   3.453  14.486  0.1640 -0.1203  0.0364
44564W        W87555  33.813  25.887  15.398 -0.3078  0.1831 -0.0131
44565W        W87556   2.267  30.377   6.950  0.1838  0.2684 -0.1409
44566W        W87557  29.449  27.996  27.351  0.3141 -0.2194  0.0091
44567W        W87558  30.549  29.916   7.700 -0.2289  0.2086 -0.0579
44568W        W87559  29.950  31.826  16.175 -0.1476 -0.2351  0.1778
44569W        W87560  26.918   7.462  27.000  0.1605 -0.1623 -0.1474
44570W        W87561  32.498  25.842  18.809  0.1564 -0.2010  0.0449
44571W        W87562  17.742  34.245   2.783  0.1864  0.1479 -0.0328
44572W        W87563  19.244  20.488  20.473 -0.3535  0.0540 -0.0693
44573W        W87564   4.943  10.168  27.780  0.1501 -0.0077 -0.1041
44574W        W87565  25.236  21.851  18.938  0.0661  0.0881  0.1279
44575W        W87566  33.698  24.929  10.154  0.2349 -0.2153 -0.1705
44576W        W87567  21.476   4.913  14.331  0.1479 -0.1490 -0.0898
44577W        W87568  33.458   1.561  10.196 -0.1340 -0.1408 -0.2020
44578W        W87569  17.779   1.644   5.200  0.3906  0.3753 -0.2654
44579W        W87570  34.618   9.065   9.233  0.2572  0.0939 -0.0825
44580W        W87571  33.714  10.102  21.641 -0.1638 -0.0576 -0.2253
44581W        W87572  24.025  31.994  24.926 -0.0868  0.2073 -0.0427
44582W        W87573  25.585  32.847  28.635 -0.3254 -0.0796 -0.3299
44583W        W87574  30.753   1.717  24.360  0.3878  0.2154 -0.2603
44584W        W87575   4.388  21.600  20.355 -0.0685  0.1933  0.0949
44585W        W87576  20.821  19.902  20.463  0.0190  0.0225 -0.1983
44586W        W87577  13.621  32.782  25.151  0.4225  0.0477 -0.0651
44587W        W87578  10.314  25.002  22.457 -0.4206  0.0346  0.2214
44588W        W87579  26.976  18.409  24.559  0.5318  0.0101 -0.0122
44589W        W87580  14.577  24.914   0.115  0.0097  0.0989 -0.2783
44590W        W87581  27.624  26.119  13.718  0.0197  0.1685 -0.0427
44591W        W87582  27.147  23.905  25.935 -0.2174  0.0536 -0.0715
44592W        W87583  29.979  11.780  28.785  0.0172  0.0126 -0.1363
44593W        W87584  33.350  18.166  15.740 -0.3409  0.4579 -0.2870
44594W        W87585  15.731   6.225  20.373 -0.0603  0.0982  0.0654
44595W        W87586  24.618  12.929  28.261  0.1065 -0.1077  0.1484
44596W        W87587  34.462  29.521   3.708 -0.3577  0.0135  0.1433
44597W        W87588  34.061   9.707  19.268  0.0852 -0.0705 -0.2458
44598W        W87589  28.299  22.230  20.354  0.1475 -0.0741 -0.1410
44599W        W87590  26.577  29.601   4.189  0.3154 -0.2007 -0.0999
44600W        W87591  29.548  27.875  18.666  0.0008 -0.1718  0.1121
44601W        W87592  23.021  31.174   3.153 -0.0735  0.0718 -0.1741
44602W        W87593   6.778  32.979  16.440  0.0494  0.2375  0.1142
44603W        W87594   3.747  18.706  25.096 -0.2073  0.0086 -0.3524
44604W        W87595   8.528   4.412   7.656  0.1838 -0.2739 -0.2377
44605W        W87596  33.687   5.084  16.395 -0.1161  0.2016  0.2721
44606W        W87597  30.819  23.509  26.001  0.1035 -0.1581  0.0856
44607W        W87598   6.042  32.382  26.374 -0.1031  0.0159  0.0958
44608W        W87599   8.536  23.145   6.749  0.2429  0.2496 -0.0155
44609W        W87600   8.918  29.098   0.048 -0.2817 -0.0767  0.0530
44610W        W87601  28.010  25.703  16.556 -0.0986  0.1161 -0.0022
44611W        W87602   2.395  31.703  14.702 -0.0438  0.0691 -0.0786
44612W        W87603  32.491   5.208   5.077  0.1875  0.1193 -0.0320
44613W        W87604  29.978   3.904  19.366 -0.2079 -0.0237 -0.0792
44614W        W87605  11.950  26.832   8.898  0.1670 -0.0399  0.0754
44615W        W87606  22.947   9.832  19.677 -0.5776  0.1473 -0.1636
44616W        W87607  22.559  22.209   3.989 -0.0725  0.0035 -0.0421
44617W        W87608  19.676   3.983  17.172 -0.3015 -0.0868  0.3586
44618W        W87609   6.371   2.714   3.506  0.0888 -0.1495  0.2022
44619W        W87610   7.004   7.770  18.556  0.0883 -0.1460  0.0261
44620W        W87611   9.007   9.288  17.848 -0.5456 -0.3183 -0.1027
44621W        W87612  32.449   3.447   4.281  0.0178 -0.0780 -0.1624
44622W        W87613  27.527   1.802  13.028  0.1175  0.3270  0.4532
44623W        W87614  26.618   1.799  28.368  0.0312 -0.1160 -0.2626
44624W        W87615  12.653   3.465  28.452 -0.1195 -0.2006 -0.0505
44625W        W87616  20.709  28.014  20.067  0.0138 -0.0429  0.0364
44626W        W87617  24.653   8.662  14.122  0.2056  0.1204 -0.1110
44627W        W87618  22.274  34.604  21.416  0.3667  0.0109 -0.3042
44628W        W87619  10.146   2.857  26.905 -0.0212  0.0894 -0.5257
44629W        W87620  34.005  34.380   9.236 -0.2398  0.0980  0.1152
44630W        W87621  33.480  33.781  22.439  0.0372  0.0007  0.1999
44631W        W87622  31.629  27.651  17.983  0.2263  0.5419  0.1000
44632W        W87623   5.786  33.824  22.257  0.0964  0.1521  0.0705
44633W        W87624  22.694   9.496  26.233 -0.0641  0.2262  0.3180
44634W        W87625  23.240  24.141  27.938  0.0182 -0.3577 -0.0986
44635W        W87626   7.228  33.008  24.210 -0.0225  0.1482  0.0178
44636W        W87627  24.335   9.002  17.356  0.0067 -0.2426  0.1308
44637W        W87628  17.471   8.898  28.989  0.0130 -0.0266  0.0415
44638W        W87629  24.700  32.606  24.830  0.1636  0.1985  0.0952
44639W        W87630   0.182  31.778  18.348  0.0799  0.2162  0.0688
44640W        W87631   1.417  10.036  23.484  0.2168  0.1927 -0.0362
44641W        W87632   0.385  20.918   2.930 -0.1824  0.0475 -0.1159
44642W        W87633   2.909  25.056  17.061  0.0541 -0.2936  0.1172
44643W        W87634  27.523  16.201   2.633  0.3920  0.1514 -0.0088
44644W        W87635  11.657  26.913  18.643  0.2373 -0.0236  0.3690
44645W        W87636   9.707  27.785  20.597 -0.1491 -0.1031 -0.2005
44646W        W87637  28.697   8.252   0.831 -0.0207 -0.0016 -0.2597
44647W        W87638  21.347  30.359  21.322  0.0423 -0.0913 -0.1163
44648W        W87639   4.172  31.287  19.428 -0.0600  0.1717  0.2850
44649W        W87640   1.617  10.271   1.544 -0.0173 -0.0656  0.2771
44650W        W87641  28.814  27.256  21.085 -0.0944 -0.3881 -0.1394
44651W        W87642  30.475   0.343  14.739  0.1450  0.0352  0.2583
44652W        W87643   8.247  32.758  19.482 -0.2611 -0.2198 -0.5235
44653W        W87644  28.831   6.771   0.374 -0.0806 -0.0989  0.1499
44654W        W87645   5.882  31.262  13.646  0.0035 -0.0938 -0.2061
44655W        W87646  31.537  11.459  25.975  0.0955  0.2156 -0.5023
44656W        W87647  29.679   2.871  14.502  0.1069  0.1759 -0.1298
44657W        W87648   6.027   0.031  16.645 -0.2419  0.1128 -0.1246
44658W        W87649  33.533  26.816   7.471 -0.0716 -0.0121 -0.0776
44659W        W87650   2.899  32.034   7.943  0.5046 -0.1209 -0.0000
44660W        W87651  23.893  21.299  24.316 -0.3528 -0.1569  0.0058
44661W        W87652   1.606  23.504  17.421  0.0240 -0.2342  0.0117
44662W        W87653  28.096  32.460  22.218  0.1664 -0.4223  0.0836
44663W        W87654  20.077  22.329  27.642  0.1809  0.0372  0.3716
44664W        W87655  31.907  31.720  13.040  0.0488  0.1699  0.1081
44665W        W87656   5.649  18.514  18.401 -0.0866 -0.0436  0.0491
44666W        W87657  25.025  31.330   8.463 -0.1622  0.0927 -0.1691
44667W        W87658  13.969  22.161  25.402 -0.0478 -0.2821  0.1720
44668W        W87659  14.429   2.010  29.099 -0.2568 -0.1753 -0.0415
44669W        W87660  28.139  24.365   5.103  0.1388  0.1722 -0.1280
44670W        W87661   1.544   1.534   1.912 -0.0406  0.0251 -0.1597
44671W        W87662  15.166  24.525   0.862 -0.0464 -0.0430 -0.1486
44672W        W87663  21.206  34.400  28.680  0.2890 -0.2230  0.2765
44673W        W87664  22.470  13.164  24.172  0.3709  0.1587 -0.1537
44674W        W87665  31.161  27.475  20.421  0.1821 -0.1449 -0.3285
44675W        W87666  28.944  12.836   0.326  0.1483 -0.4008  0.1944
44676W        W87667  20.600  28.172  23.389  0.1322 -0.2837 -0.1288
44677W        W87668   5.165  30.345   6.302  0.0254  0.2212 -0.2965
44678W        W87669  21.719   2.316  19.150 -0.0186  0.0411 -0.1362
44679W        W87670   4.584  28.243  17.273 -0.2308  0.0763 -0.0902
44680W        W87671   1.570  23.337  15.119 -0.1069  0.0398 -0.0790
44681W        W87672   2.014   6.168  28.548 -0.0455 -0.2035  0.0514
44682W        W87673  12.125  23.896  18.606 -0.2281 -0.0337 -0.0795
44683W        W87674  12.670  28.763  19.812  0.2861 -0.0683  0.0087
44684W        W87675   2.834  16.845  17.256 -0.1809  0.1365  0.1378
44685W        W87676  28.372  12.358  25.970  0.2607 -0.0589  0.0448
44686W        W87677  34.730  28.482   5.939  0.0696 -0.0317  0.3458
44687W        W87678  26.295  34.393  20.402 -0.1989 -0.0769  0.0791
44688W        W87679  24.735   2.336  15.797 -0.1317 -0.2912 -0.0657
44689W        W87680  29.729   6.355  24.489  0.1116  0.0983 -0.3407
44690W        W87681  34.425  29.854  21.531 -0.1108  0.4013 -0.2122
44691W        W87682  23.857  22.284   5.250  0.2301 -0.3154 -0.0771
44692W        W87683  31.951  28.698  24.220 -0.3599  0.0190  0.0605
44693W        W87684  28.164  20.970  19.078 -0.0686 -0.0917  0.2180
44694W        W87685  32.350  21.452  23.820 -0.0041  0.0216 -0.0312
44695W        W87686  14.630   1.452   1.748 -0.0296 -0.0769 -0.2832
44696W        W87687   3.690  31.183   6.091  0.1061 -0.1636 -0.0233
44697W        W87688  34.180   0.692  15.622 -0.3443 -0.1580 -0.2273
44698W        W87689  20.558  14.033  23.594 -0.0780  0.0590  0.3172
44699W        W87690  22.564   3.553  24.089 -0.1356  0.2068 -0.1777
44700W        W87691  20.983   4.705  16.254 -0.1181 -0.0068 -0.0615
44701W        W87692  34.162  15.672  23.445 -0.1448 -0.1138  0.1067
44702W        W87693  29.001  34.398  25.018  0.3509  0.1670  0.0172
44703W        W87694  27.539  25.868  17.040 -0.1608  0.0424 -0.0453
44704W        W87695   3.875  15.890  29.178 -0.1328  0.2054 -0.2534
44705W        W87696  19.053   4.106  29.123  0.1290 -0.1565  0.0396
44706W        W87697  28.914  18.939   6.361  0.0796  0.1585 -0.2421
44707W        W87698  32.836   2.642  15.515 -0.1229 -0.0164 -0.0003
44708W        W87699  32.591  24.712   1.014 -0.1195 -0.1329 -0.3489
44709W        W87700   5.049  30.532   1.145 -0.2342  0.1980 -0.0279
44710W        W87701  18.399  23.126  17.478  0.1410  0.0787  0.2789
44711W        W87702   2.384   4.916   3.054 -0.3120 -0.0501  0.1963
44712W        W87703  21.292   9.971  16.697 -0.5003 -0.0329 -0.1563
44713W        W87704  20.916   4.106  14.314  0.1165  0.1175  0.1491
44714W        W87705  23.942  21.014  13.182 -0.1927  0.1664 -0.3308
44715W        W87706  20.150  17.874   4.368 -0.1880  0.3756 -0.0633
44716W        W87707  22.435   1.092  13.901  0.0201 -0.1528  0.1234
44717W        W87708  21.257   2.710  18.424  0.1196 -0.1862  0.0489
44718W        W87709   1.063   6.622   0.278 -0.2435 -0.2533 -0.0345
44719W        W87710  10.382   7.335  27.699  0.2902  0.0607  0.0859
44720W        W87711  27.584  24.293  23.969 -0.1047  0.0106  0.0186
44721W        W87712   1.414  28.516  16.572  0.0758  0.0361  0.0877
44722W        W87713   0.417   3.283  19.590 -0.1628  0.0111  0.0317
44723W        W87714  25.968  31.579  22.105 -0.1358 -0.1943  0.1034
44724W        W87715  24.448   0.276  24.577 -0.0116  0.3178 -0.0877
44725W        W87716   3.400   2.818  26.996  0.0591  0.1081 -0.2822
44726W        W87717  18.189   4.074  18.015  0.2516 -0.1185 -0.3100
44727W        W87718   4.656   2.971  18.647  0.0923 -0.3060 -0.4277
44728W        W87719   4.094  11.812  18.798  0.1998  0.3895 -0.0126
44729W        W87720  10.666  26.073  20.583 -0.0295 -0.2728  0.3065
44730W        W87721  21.149  11.994  20.681 -0.0818 -0.0705 -0.1220
44731W        W87722  18.808   8.195  22.853 -0.2709 -0.2788  0.2352
44732W        W87723  29.912  18.533  10.289 -0.0601 -0.2162 -0.0383
44733W        W87724  22.973   8.020  23.321  0.1537 -0.2260  0.1251
44734W        W87725  21.325  12.969  26.812  0.0144  0.1485  0.1239
44735W        W87726   8.758  22.058  26.063  0.2110  0.0154 -0.1384
44736W        W87727  14.020  10.339  24.615 -0.0256 -0.0354  0.0610
44737W        W87728  19.118  23.745  25.621 -0.0163 -0.1031 -0.2514
44738W        W87729  13.569  33.525   5.505  0.1452 -0.1503 -0.0094
44739W        W87730   1.115  27.670  17.914 -0.1383  0.0122 -0.1721
44740W        W87731  26.565   5.799  17.969  0.3831 -0.2477  0.2218
44741W        W87732  13.502   3.061  17.428 -0.3541 -0.4769  0.4100
44742W        W87733  27.871   6.848  17.571  0.2219 -0.1810  0.1609
44743W        W87734  21.863  14.267   4.779 -0.0926  0.0468 -0.1546
44744W        W87735   2.192  21.569  24.541  0.0863 -0.1767  0.1453
44745W        W87736  13.729  30.213   3.181 -0.0725 -0.1240  0.2676
44746W        W87737  21.971  32.546  13.786 -0.0812 -0.0134 -0.1703
44747W        W87738   3.407   5.191   8.610  0.2962 -0.1202  0.3181
44748W        W87739  31.604   2.788  21.527 -0.1845  0.2756  0.2243
44749W        W87740   5.855   6.835   0.880 -0.1948  0.0209 -0.1809
44750W        W87741   1.566  31.933  25.510 -0.3394 -0.0479  0.1500
44751W        W87742   3.671  27.706  15.258  0.1355  0.0943  0.0902
44752W        W87743  23.193  34.635   6.749  0.0279  0.0584  0.3416
44753W        W87744  32.136  29.513   0.707  0.0855  0.0406  0.2665
44754W        W87745  33.535   7.308  27.303 -0.2285  0.2464 -0.0749
44755W        W87746  30.960  22.143  19.674 -0.1180  0.1153 -0.1571
44756W        W87747  13.652  32.723  16.926 -0.1937 -0.0365  0.0108
44757W        W87748  14.013  32.052  19.091  0.3473 -0.0318  0.1614
44758W        W87749  27.375   3.182  14.058  0.1327  0.1158 -0.2507
44759W        W87750   4.661  31.144  16.047  0.2063 -0.2833 -0.2894
44760W        W87751  31.424   1.322  13.079  0.3273 -0.1541  0.3377
44761W        W87752  24.138  12.418   5.816  0.2092 -0.2229 -0.4681
44762W        W87753   0.890   4.699  15.399 -0.0050  0.1756  0.0974
44763W        W87754  18.307  22.739  24.209  0.1518 -0.2334  0.1706
44764W        W87755  33.473  24.261  15.236 -0.2441 -0.0716 -0.4348
44765W        W87756  25.601  15.603  25.002  0.0797  0.1158 -0.0756
44766W        W87757  23.707   4.829  17.955  0.0320 -0.0649  0.3663
44767W        W87758  30.004   3.244  23.121  0.1306 -0.0479 -0.1577
44768W        W87759   2.817  24.964  10.030 -0.1475  0.0108 -0.1913
44769W        W87760   7.058  26.077   6.200 -0.3483 -0.3845 -0.4253
44770W        W87761  30.120   3.555  28.185  0.1177 -0.2158 -0.4854
44771W        W87762  25.980   7.794   5.226  0.0368 -0.1381 -0.2137
44772W        W87763  34.558  21.346   7.986  0.0198 -0.0950  0.0646
44773W        W87764  14.618  30.378  19.844  0.0577 -0.0740  0.0162
44774W        W87765  27.184  30.096  14.388 -0.1301 -0.1105 -0.1299
44775W        W87766  27.057   6.649  24.930 -0.3203  0.2352 -0.0199
44776W        W87767  34.719  24.932  22.186 -0.3750 -0.4844  0.2281
44777W        W87768  32.207  26.795  25.666  0.1408  0.1444 -0.1730
44778W        W87769  24.129   8.457   5.118  0.1591 -0.3701  0.4377
44779W        W87770   6.510  30.676   3.067  0.0352  0.2861 -0.1087
44780W        W87771  25.554   6.654  16.156 -0.2307  0.0114  0.2267
44781W        W87772  21.478   9.817  19.736  0.3622  0.0953  0.1031
44782W        W87773  15.525  11.906  20.767  0.0319 -0.2000 -0.0618
44783W        W87774  33.467  13.840   8.609 -0.3223 -0.0075 -0.1001
44784W        W87775   9.525  12.218  28.829 -0.0097 -0.1556  0.0484
44785W        W87776  32.855  32.034  27.162  0.3653  0.0608 -0.3277
44786W        W87777  27.306   2.949   5.858 -0.3163 -0.2161  0.1811
44787W        W87778  32.768  32.812  21.548  0.0613  0.0117  0.0555
44788W        W87779  14.767  33.903   3.765  0.0656  0.0452  0.0037
44789W        W87780  26.653  22.393   3.466  0.1478  0.2283 -0.0771
44790W        W87781  29.455  27.200  24.734  0.0765 -0.3139  0.2378
44791W        W87782   9.647   2.130  21.259 -0.0739 -0.1848  0.3462
44792W        W87783  17.171   8.117  16.951  0.1242  0.3003  0.0577
44793W        W87784  22.375  34.521   0.796 -0.1481 -0.1442  0.0498
44794W        W87785  22.924   1.811  16.077  0.1277 -0.0773  0.0580
44795W        W87786  24.979  23.397  28.662 -0.1706 -0.2074 -0.0494
44796W        W87787  30.276  33.224  15.575  0.1986 -0.0502 -0.3891
44797W        W87788  26.742  23.646  18.113  0.1302 -0.0660 -0.1464
44798W        W87789  13.504  20.045   7.355 -0.2155 -0.0949 -0.1223
44799W        W87790  21.894   2.846   7.810 -0.2166 -0.1427 -0.2374
44800W        W87791  22.149  24.107   7.604 -0.3632 -0.2071  0.0453
44801W        W87792  21.637  18.401  23.616  0.1219  0.0822 -0.0106
44802W        W87793  28.134  23.492  19.622  0.1592  0.1323  0.0725
44803W        W87794  21.236   0.885   7.650  0.1146  0.0496  0.1119
44804W        W87795  34.419  11.671  17.683 -0.1702 -0.1007 -0.0197
44805W        W87796  32.727  31.358  22.905 -0.1361  0.2444 -0.3502
44806W        W87797   2.861  30.841  13.893 -0.0290 -0.1412 -0.0047
44807W        W87798  17.885  20.969  20.061 -0.0474  0.3840 -0.0376
44808W        W87799   5.145  21.528  16.472  0.0583 -0.4731 -0.1391
44809W        W87800   5.506  34.223  29.212  0.0126  0.0208  0.2810
44810W        W87801  25.474   1.587  26.857 -0.3149 -0.1264 -0.0893
44811W        W87802  26.423  34.268  15.725 -0.0369 -0.4201  0.2558
44812W        W87803  27.829  27.359  26.122 -0.0875 -0.0374 -0.4911
44813W        W87804   4.351  21.064  18.430 -0.2383 -0.2393 -0.1737
44814W        W87805  24.951  32.207  13.408  0.1529 -0.1223 -0.0950
44815W        W87806   7.647  30.473   2.941 -0.1748 -0.0764 -0.0261
44816W        W87807  31.209  22.254  18.439  0.0753  0.0444  0.0472
44817W        W87808   6.321   0.397   9.724  0.3021 -0.0843 -0.1141
44818W        W87809  30.544  32.420  24.875 -0.2836  0.2022  0.0070
44819W        W87810  34.436  24.462  16.005 -0.0205  0.0010 -0.1612
44820W        W87811   4.109  29.431  13.695 -0.1145  0.0732 -0.1579
44821W        W87812  20.203  22.459  24.266  0.0380  0.2887 -0.3069
44822W        W87813  29.061   6.311   6.459  0.1395  0.2081  0.1348
44823W        W87814  32.041  27.523  26.880 -0.2505  0.1953  0.0125
44824W        W87815   2.100  10.050   1.617  0.2465  0.3928  0.2565
44825W        W87816  16.371   6.453   4.337  0.2239  0.4958 -0.0987
44826W        W87817  33.864  32.854  28.896 -0.2049 -0.0319 -0.1299
44827W        W87818  20.520   0.134  23.196 -0.2618  0.0610  0.1625
44828W        W87819  17.323   4.934  10.647 -0.1867  0.0181 -0.1954
44829W        W87820  20.993  16.436   2.557  0.1904 -0.0037  0.0174
44830W        W87821   9.565  22.882  25.314  0.0608 -0.0482  0.5231
44831W        W87822   0.994  23.799  23.244  0.0904  0.2264 -0.0518
44832W        W87823   6.344  27.734  18.708 -0.2731  0.0666  0.1353
44833W        W87824  27.450  33.199  13.179  0.0979  0.2704 -0.0533
44834W        W87825   1.893   2.100   0.062 -0.2859 -0.0238 -0.0981
44835W        W87826  32.417  19.033  29.108  0.3443 -0.1504 -0.1587
44836W        W87827  30.298  13.292   3.064 -0.2974 -0.3078  0.2883
44837W        W87828  30.055  26.877   2.306  0.0053  0.0728 -0.0597
44838W        W87829  32.012  22.121   5.636 -0.0618  0.1208  0.4120
44839W        W87830  11.877   2.289   5.166  0.3551  0.0903 -0.1319
44840W        W87831   0.272   5.256   7.480  0.1165  0.2342 -0.0359
44841W        W87832  27.586   1.200  26.758  0.0105 -0.0341 -0.4137
44842W        W87833   4.477  21.951  10.912  0.2220 -0.0535 -0.1771
44843W        W87834   7.778  21.932  16.336  0.1501 -0.1380 -0.0928
44844W        W87835  12.411  34.236  23.609  0.3590 -0.1046 -0.1759
44845W        W87836   4.050  10.618   3.528 -0.0924  0.5139  0.0492
44846W        W87837  34.684   4.160  21.366  0.0392 -0.0424 -0.1929
44847W        W87838  26.380   1.725  18.997 -0.1648 -0.2496  0.0995
44848W        W87839   0.801  26.195  21.749 -0.0825 -0.0268 -0.5200
44849W        W87840  17.858  12.793  15.902  0.0460  0.0435  0.2482
44850W        W87841  31.013  19.875   3.189  0.2235  0.1635  0.3605
44851W        W87842   0.328  30.861  17.250  0.1010  0.1154  0.0777
44852W        W87843  26.254  27.060  23.186  0.0041 -0.2003  0.1229
44853W        W87844  24.980  26.929  27.376 -0.2575  0.0971  0.3066
44854W        W87845  20.250  11.525  24.994  0.2138  0.2319  0.0127
44855W        W87846  31.431  12.868  17.241  0.0529 -0.1159 -0.1535
44856W        W87847   1.457  31.036  21.110  0.2175  0.1367 -0.0368
44857W        W87848  22.177  29.947  24.388 -0.1475 -0.2244 -0.0234
44858W        W87849  19.716  31.760  26.035  0.2038 -0.1854  0.0313
44859W        W87850   0.247  14.292  23.577 -0.0541  0.2502  0.0434
44860W        W87851  11.438  31.064  23.207  0.1676 -0.0978 -0.3854
44861W        W87852   2.443  27.729  24.808 -0.2850 -0.1531  0.1952
44862W        W87853  21.971  15.741  19.912 -0.0213 -0.1529 -0.2173
44863W        W87854  32.507  30.321  20.161 -0.1825 -0.1193  0.3359
44864W        W87855   0.387  31.675  15.416  0.0983  0.0873 -0.1737
44865W        W87856  14.746   4.754   5.408  0.2235 -0.0655 -0.1310
44866W        W87857  32.850   4.203   5.115 -0.0660 -0.0093 -0.0965
44867W        W87858  27.585  30.915   3.423 -0.1005  0.1056  0.2680
44868W        W87859  26.513  29.947  21.869 -0.2227 -0.0227  0.1487
44869W        W87860  31.924   4.820   2.097  0.2958 -0.1028  0.2652
44870W        W87861   6.588  30.501   2.622 -0.0733 -0.2930 -0.0876
44871W        W87862   3.882  26.555  21.491 -0.0610  0.1453 -0.1054
44872W        W87863  30.885  22.664   9.536  0.0835  0.0935 -0.5155
44873W        W87864  25.846  12.361  16.317 -0.2101  0.1824 -0.1750
44874W        W87865  27.059  27.233  28.723  0.0073  0.1420  0.0485
44875W        W87866  29.613  21.560  16.425  0.0290  0.3014  0.1203
44876W        W87867  15.371  28.307  19.712  0.0358  0.0103  0.1323
44877W        W87868   1.642  11.538  16.212 -0.0891 -0.0485 -0.0144
44878W        W87869   1.266  31.243  20.157  0.5555  0.2631 -0.1420
44879W        W87870   3.832  28.635   7.029 -0.2641  0.0780 -0.1092
44880W        W87871  27.951  31.870   4.438 -0.0037 -0.0701  0.1112
44881W        W87872  19.587  23.905   7.318 -0.1329 -0.1955 -0.0354
44882W        W87873  28.575  29.493  15.547 -0.1158  0.2778  0.1508
44883W        W87874   4.651   9.766   0.333 -0.1342  0.0642 -0.1530
44884W        W87875  33.085   1.366   7.668  0.0630  0.1192  0.1718
44885W        W87876   3.978  27.977  21.624  0.3589  0.3385 -0.0827
44886W        W87877   7.793   2.334   6.102 -0.3449 -0.1082  0.1728
44887W        W87878   3.158  28.522   5.033 -0.1057 -0.1549 -0.0206
44888W        W87879   7.115  17.295  25.615 -0.3086  0.1650  0.1218
44889W        W87880   1.139   4.763  16.909  0.2126 -0.0480 -0.3257
44890W        W87881   8.623  34.422  28.954 -0.0905  0.1991 -0.0434
44891W        W87882   8.233  18.950  19.011  0.2212  0.4360 -0.0057
44892W        W87883  33.988   0.886  18.176 -0.1708  0.0119 -0.3003
44893W        W87884  23.672  33.930   2.405 -0.0728 -0.0204  0.1650
44894W        W87885  29.073  12.895   9.070 -0.2021  0.0669  0.0340
44895W        W87886   6.495   4.990   3.950  0.3554 -0.0541 -0.0624
44896W        W87887  23.767  30.371   4.304  0.1213  0.1854 -0.0562
44897W        W87888  30.545  27.091  20.924  0.0858 -0.0017 -0.1190
44898W        W87889   5.783  18.393  18.830  0.0682  0.2113  0.2390
44899W        W87890   3.299  26.180   5.343 -0.1468 -0.2080 -0.1529
44900W        W87891  15.538  31.415  21.815  0.2306  0.1164 -0.0628
44901W        W87892  12.642  29.886   2.201 -0.4837  0.1510 -0.0175
44902W        W87893   3.264   7.124  22.494 -0.4185  0.0243  0.2145
44903W        W87894  27.233  21.470  18.578 -0.3509  0.0263  0.1651
44904W        W87895   0.447  34.223  26.471  0.1257 -0.0353 -0.0684
44905W        W87896  20.821  27.808   7.313  0.0739 -0.2823  0.4088
44906W        W87897  33.673  13.001   2.606  0.1623  0.0759  0.0679
44907W        W87898  29.008  15.031  25.987 -0.1981 -0.0178 -0.2001
44908W        W87899  26.481  12.145  16.474 -0.2313 -0.0995  0.1503
44909W        W87900  25.357  17.271  19.830 -0.1455  0.1884  0.1781
44910W        W87901  32.071  26.343   9.171  0.0482 -0.0791  0.1768
44911W        W87902  27.052  22.093   8.664  0.1719 -0.1021 -0.1326
44912W        W87903  12.054   8.971   1.409  0.0750 -0.0584 -0.3254
44913W        W87904   3.899   9.081   0.282 -0.1266 -0.1668  0.2359
44914W        W87905   1.973  26.829  24.597 -0.1876 -0.3491 -0.0989
44915W        W87906  28.321  16.550  10.035 -0.1304 -0.2780 -0.1930
44916W        W87907  22.089   2.011   7.801 -0.1049  0.3070  0.1274
44917W        W87908   5.662  32.608  15.239 -0.1442  0.2031 -0.2039
44918W        W87909   4.137  28.215  21.092 -0.1442 -0.0759  0.1167
44919W        W87910  22.110  19.115  17.697  0.1373 -0.0026 -0.0666
44920W        W87911   5.437   7.927   0.211  0.0276 -0.4796  0.1780
44921W        W87912  28.286  31.186  15.281 -0.0109  0.0809 -0.1271
44922W        W87913  27.885  11.570   0.589 -0.1816  0.1044 -0.0526
44923W        W87914  30.056  29.394  15.067  0.1150 -0.2766  0.0444
44924W        W87915  21.240  19.873  24.647  0.0656  0.2594  0.0798
44925W        W87916  27.599  31.656   1.024  0.0273 -0.2605 -0.0158
44926W        W87917   3.272  32.843  29.097 -0.2299  0.0234 -0.2948
44927W        W87918   0.632  12.869  26.147  0.2268 -0.2461 -0.3840
44928W        W87919  14.478   9.551  18.079 -0.3229  0.1600  0.0018
44929W        W87920   4.032   4.297  19.107  0.2340  0.0425 -0.1131
44930W        W87921   3.973  26.726  17.489  0.0524  0.0092 -0.1692
44931W        W87922   4.709  31.930   3.665  0.2274 -0.0002 -0.0475
44932W        W87923  28.866  11.152  23.304 -0.0607 -0.0729  0.0361
44933W        W87924  26.148  28.312  25.034 -0.0437 -0.0934 -0.4290
44934W        W87925   1.080  29.699  23.197  0.0084 -0.0936 -0.0170
44935W        W87926   1.495  12.893  20.218 -0.3001  0.1225  0.1237
44936W        W87927  29.625  14.346  10.624 -0.1355 -0.0975  0.1226
44937W        W87928  33.430  16.565  26.048 -0.3686  0.0619 -0.1376
44938W        W87929  26.231  26.864   6.606 -0.1593  0.0589  0.0080
44939W        W87930  32.250   3.933   2.890  0.0433  0.1604 -0.2544
44940W        W87931  21.132  23.133  24.697  0.0945  0.0818 -0.2928
44941W        W87932  11.325  33.690   9.899  0.0659  0.1198 -0.0390
44942W        W87933  23.209   0.525   0.435 -0.2351  0.2434  0.0011
44943W        W87934  18.880  13.199  16.953  0.0407 -0.2138  0.1741
44944W        W87935  34.525  18.037  17.404 -0.3658  0.0450  0.0584
44945W        W87936  20.634   1.008  24.528  0.3509 -0.2484  0.1283
44946W        W87937  24.283  22.413  16.058  0.0840  0.1388 -0.2401
44947W        W87938  14.253  20.694   3.637  0.2013  0.0827 -0.0094
44948W        W87939  27.747  23.053   5.642  0.1063 -0.0400 -0.2268
44949W        W87940   4.484  30.674   6.323  0.0518 -0.1022 -0.0494
44950W        W87941   6.575  26.417  14.729  0.0880 -0.1912 -0.1097
44951W        W87942  29.700  10.591  28.822  0.0495 -0.0763  0.4244
44952W        W87943  15.142  20.224  18.050  0.3337 -0.2942 -0.3578
44953W        W87944   3.524   0.955   5.712 -0.1707 -0.0684  0.1444
44954W        W87945  26.082  15.927  20.791  0.2564  0.3659  0.3840
44955W        W87946  17.376  26.161  21.517 -0.3504 -0.3047 -0.1231
44956W        W87947  12.544   8.139  17.787 -0.0550  0.0344 -0.0680
44957W        W87948  25.276   0.262  27.757  0.2569  0.2115 -0.0857
44958W        W87949   2.200  32.550  21.499  0.3100  0.0326  0.1031
44959W        W87950  13.604  27.453   0.925  0.2957  0.1156  0.3048
44960W        W87951   1.491  28.816   5.605 -0.0228  0.2453 -0.1704
44961W        W87952  26.587   4.499   7.126  0.0621  0.0476 -0.1967
44962W        W87953  33.046   1.025   4.784 -0.3702  0.2252 -0.1005
44963W        W87954  31.596   2.158  25.794 -0.2542 -0.1898 -0.1161
44964W        W87955   4.165  10.447   7.837  0.2265  0.1846  0.0191
44965W        W87956  10.572  16.850   3.685  0.1809  0.0632  0.0289
44966W        W87957  21.057  22.674  15.319 -0.3085  0.0548  0.2003
44967W        W87958  30.599  17.896   7.255  0.2426  0.1773  0.2260
44968W        W87959  21.064  21.381   8.723 -0.1079 -0.3959  0.0210
44969W        W87960  25.938  29.730  26.574 -0.2254  0.0759 -0.0838
44970W        W87961  30.876   0.208  17.713  0.3058  0.0985 -0.2611
44971W        W87962   1.609  29.632   4.357 -0.0688 -0.2794  0.1682
44972W        W87963   0.079  27.834   3.980 -0.1336  0.1535  0.2418
44973W        W87964   3.071  31.090  28.416  0.0218  0.1017 -0.1535
44974W        W87965  28.594   9.812   6.509  0.0709 -0.2033  0.1062
44975W        W87966  27.762  13.131  23.121  0.0258  0.3978 -0.0793
44976W        W87967  34.495  12.580   8.854 -0.0831  0.2323 -0.1505
44977W        W87968  32.114  17.359   6.133  0.1855  0.1360  0.0456
44978W        W87969  31.196   4.910  27.704 -0.1902 -0.0232  0.1534
44979W        W87970  12.357  32.184  25.855  0.1237 -0.0473  0.0479
44980W        W87971  32.464   5.076  15.185 -0.1008  0.3337 -0.4340
44981W        W87972  10.056  27.680  20.148 -0.0024  0.1722  0.0866
44982W        W87973   9.993  26.440  29.105 -0.1918  0.2492 -0.2717
44983W        W87974  29.376  18.084  23.901  0.0264 -0.1281 -0.4408
44984W        W87975   1.966  16.824   4.824 -0.0055  0.1441  0.1721
44985W        W87976  19.112   0.610   2.890  0.1004 -0.2733  0.2592
44986W        W87977   1.756  27.847   2.479 -0.2390 -0.2797 -0.1879
44987W        W87978  22.762  11.457   8.632  0.1365 -0.0704 -0.0973
44988W        W87979  34.634  12.121  19.835 -0.1184  0.2268 -0.0535
44989W        W87980   8.538   3.473   1.610  0.0254 -0.1447 -0.0031
44990W        W87981  18.334  18.787  26.284 -0.2233 -0.4261 -0.3250
44991W        W87982   5.490  17.619  20.739 -0.2814 -0.0078  0.2045
44992W        W87983   6.076   6.448   3.226  0.4256  0.1057 -0.0582
44993W        W87984  15.780   5.375   3.407  0.1655  0.0806 -0.3694
44994W        W87985  22.419   4.351  20.023  0.0822  0.1168  0.1131
44995W        W87986  20.093  30.694  27.448  0.1480 -0.0352  0.3110
44996W        W87987   0.450  18.238   2.282 -0.1322  0.1032 -0.1239
44997W        W87988   6.249   5.360  23.636 -0.1840  0.0569 -0.0777
44998W        W87989  26.305   0.256  25.871 -0.0802  0.3115  0.2217
44999W        W87990   3.322  16.232   0.287  0.0247 -0.2379  0.0636
45000W        W87991   2.671  21.541  16.764 -0.2616  0.3233 -0.2010
45001W        W87992  17.067  33.031  26.150 -0.0774  0.0813  0.0043
45002W        W87993  34.602  24.952   7.787 -0.0790  0.2021  0.1389
45003W        W87994  21.756  34.561  21.233  0.1218  0.0846 -0.2119
45004W        W87995  26.008  25.346   2.704 -0.2392 -0.0273  0.2133
45005W        W87996  14.510  14.337  28.013  0.0377  0.0049  0.0770
45006W        W87997   0.603   0.508  16.370 -0.1484 -0.0279 -0.0167
45007W        W87998  30.585  26.476  21.682  0.1757 -0.0301 -0.2086
45008W        W87999  24.455  33.563  24.320  0.2489  0.2246 -0.2936
45009W        W88000  25.099  27.407  27.402 -0.1994  0.1086  0.0836
45010W        W88001  25.867   5.743  20.655 -0.0103 -0.3320  0.2916
45011W        W88002  23.159  33.300  16.594 -0.0188 -0.1025  0.1376
45012W        W88003  22.689   6.631  27.326  0.2140  0.2657 -0.0072
45013W        W88004  22.526   1.715  20.394 -0.0943  0.1993 -0.4028
45014W        W88005  27.794  33.535  20.315  0.1331 -0.0411  0.0696
45015W        W88006  12.706  31.347   6.170 -0.2213  0.0314  0.2380
45016W        W88007  11.080  20.655  15.292 -0.0483  0.1248  0.3481
45017W        W88008  22.676  24.470   1.234 -0.1061  0.2323 -0.1288
45018W        W88009  34.566  23.941  15.068  0.0532  0.1167 -0.1588
45019W        W88010  34.010  17.793  21.187 -0.1792  0.0807 -0.0403
45020W        W88011  25.371  33.145  27.278  0.1414  0.1066  0.0517
45021W        W88012   2.965  24.094  15.256 -0.0815  0.3110  0.0701
45022W        W88013   3.027  32.107   9.997  0.1385 -0.1814  0.1801
45023W        W88014  25.370  12.119   3.669 -0.3227 -0.2780 -0.1079
45024W        W88015  33.977   3.752  28.735 -0.0047  0.1301  0.2062
45025W        W88016  11.416  30.170   1.758  0.1770 -0.2968 -0.0059
45026W        W88017  17.842  20.075   1.616  0.1958 -0.2918 -0.0329
45027W        W88018   8.847  26.395  19.873 -0.1999  0.3219 -0.1620
45028W        W88019   3.450   6.065  10.208  0.0632 -0.0211 -0.2915
45029W        W88020   2.283  33.021  26.150  0.1907  0.3063  0.0618
45030W        W88021   4.285   5.453   8.251  0.3726 -0.2081 -0.3950
45031W        W88022   5.579   9.547  28.328  0.0652  0.2378 -0.0814
45032W        W88023  17.295  25.212  18.936  0.0868 -0.0682 -0.0911
45033W        W88024  29.169  29.218  18.905  0.2957 -0.2251 -0.0788
45034W        W88025  33.125  31.087   8.892 -0.0714 -0.0733  0.0553
45035W        W88026   6.629   4.025  16.055  0.4390  0.2589 -0.0807
45036W        W88027   9.737  33.530  26.499 -0.0179 -0.2568 -0.0364
45037W        W88028   1.125  27.572   7.912 -0.1316 -0.0959  0.2136
45038W        W88029  26.648  12.552  24.318  0.0545 -0.2749  0.0246
45039W        W88030  29.566   4.942  28.064  0.1770  0.0855 -0.1923
45040W        W88031  29.164  30.438  20.448  0.0660 -0.3207  0.1640
45041W        W88032   0.981  19.627   7.008  0.2245  0.1123 -0.2996
45042W        W88033  28.691  22.900  14.251 -0.2783  0.1209  0.1552
45043W        W88034  27.262  33.314  27.137 -0.3837 -0.0689  0.3967
45044W        W88035  15.819  24.515  23.741  0.1110  0.2183  0.1542
45045W        W88036  33.343  28.879  18.329 -0.4152  0.1847 -0.0010
45046W        W88037  30.327  24.569  13.844 -0.0506 -0.1035  0.0193
45047W        W88038  30.787  17.114   4.734  0.0701  0.1203  0.2620
45048W        W88039  28.392  12.591  19.156 -0.1592  0.0918  0.1032
45049W        W88040  16.818  24.284   4.545  0.2102  0.0623 -0.0483
45050W        W88041  28.511  11.896  26.646  0.0157  0.2139  0.0722
45051W        W88042  10.251   4.448   1.615  0.0092  0.0894  0.1369
45052W        W88043   2.087  24.443   2.221 -0.1933 -0.1700  0.1090
45053W        W88044  26.326  16.710  16.267 -0.1585  0.0318 -0.2088
45054W        W88045  26.287  31.307  22.421  0.0374  0.2325  0.0298
45055W        W88046  27.187   1.105  21.343 -0.0613 -0.1940 -0.0046
45056W        W88047  15.233  26.185   7.970  0.1431  0.0256  0.4462
45057W        W88048  12.211   3.979  27.091 -0.0351 -0.1977  0.3596
45058W        W88049  28.351  24.973  23.051  0.0566 -0.1930  0.0530
45059W        W88050   3.431   4.278   9.030 -0.2676  0.0100  0.0815
45060W        W88051  33.556  17.966   8.612 -0.0555 -0.2204  0.3307
45061W        W88052  33.924  25.549  19.003  0.0951  0.1122 -0.1174
45062W        W88053  26.109   2.537   1.736  0.3118 -0.2329 -0.3831
45063W        W88054  18.310  15.248  22.847  0.1241 -0.2392  0.0324
45064W        W88055   7.428  29.879   5.860 -0.0534  0.0467 -0.0471
45065W        W88056  28.225  29.231   5.507 -0.3304 -0.0712 -0.2609
45066W        W88057  14.853   4.856  28.245  0.2617 -0.0044 -0.4279
45067W        W88058   7.039  31.291  18.376 -0.0580 -0.0335  0.1715
45068W        W88059  29.756  22.960   2.011 -0.0327  0.0025  0.1823
45069W        W88060   0.537  24.312   4.115 -0.1447  0.3389  0.3653
45070W        W88061   0.904  26.397   4.285  0.1649 -0.0153  0.3092
45071W        W88062   1.334  24.702  20.380 -0.0179 -0.0126 -0.2165
45072W        W88063  24.288   8.718   9.042 -0.1653  0.0179 -0.2188
45073W        W88064  29.936  26.827   7.826 -0.3705  0.4662  0.2207
45074W        W88065  22.709   1.792   6.993 -0.0390 -0.1946 -0.1224
45075W        W88066  12.172   8.350  25.711 -0.1253  0.1168  0.0444
45076W        W88067  21.423  34.217   3.330 -0.4794  0.1450 -0.3154
45077W        W88068  29.854  34.439  24.482 -0.0498 -0.2401 -0.3012
45078W        W88069  15.431  26.454   0.755  0.1910  0.0793 -0.3387
45079W        W88070  32.269  17.740   1.560 -0.2221 -0.3469 -0.2168
45080W        W88071  21.252  30.948   1.338 -0.2679  0.1943  0.0324
45081W        W88072   4.276  33.204   8.369 -0.1634 -0.0912 -0.2836
45082W        W88073  21.531   8.663   7.134 -0.1200  0.2302 -0.0166
45083W        W88074  24.523  19.029  17.979 -0.1250 -0.3133 -0.2414
45084W        W88075  34.525  31.568   9.119  0.3918  0.1345 -0.1975
45085W        W88076  24.640  12.977   3.472 -0.3498 -0.1977  0.1215
45086W        W88077  32.522  29.678   8.087  0.0664 -0.0166 -0.4204
45087W        W88078  31.772  17.556  17.487  0.0581 -0.2333  0.0029
45088W        W88079  34.005  24.466  19.125 -0.0547  0.0109 -0.1736
45089W        W88080   3.266  34.199   5.100 -0.1985  0.3087  0.0823
45090W        W88081  22.393   4.477  25.146  0.2536  0.1503 -0.0276
45091W        W88082  19.188   1.907  29.083 -0.2291  0.2229 -0.0055
45092W        W88083  30.704  19.257  25.473 -0.5305 -0.3474  0.0679
45093W        W88084   3.227   6.271  24.217 -0.0207 -0.1453  0.1280
45094W        W88085  30.177   0.148  16.201  0.2577 -0.2068 -0.2152
45095W        W88086  20.294   0.753  28.365  0.0080  0.2513 -0.1875
45096W        W88087   0.031  18.077   0.527 -0.2818 -0.2547  0.0741
45097W        W88088  26.111   4.285  25.469 -0.1119  0.2396 -0.1456
45098W        W88089   5.558  33.567  19.425  0.1051  0.1428  0.1187
45099W        W88090   8.100   1.057  25.424 -0.0125  0.2539  0.1819
45100W        W88091  13.110  22.729  17.545  0.0623  0.0462 -0.0413
45101W        W88092  34.527   6.974   2.711 -0.2309  0.0890 -0.1164
45102W        W88093  32.404  14.251   9.290 -0.0690 -0.0273  0.0703
45103W        W88094  34.635  31.308   4.521 -0.1739 -0.2119 -0.1325
45104W        W88095   9.626   7.276  10.054 -0.0386  0.1059 -0.1368
45105W        W88096  34.749  33.832  22.335 -0.0203 -0.1731 -0.2760
45106W        W88097  21.133   1.317  16.958 -0.2404  0.2388 -0.0254
45107W        W88098  30.829  31.981   5.986  0.2095  0.2336  0.1437
45108W        W88099  11.201  16.032  25.636  0.0758 -0.0294  0.0816
45109W        W88100   2.302  13.465   1.420  0.0321  0.4126  0.1140
45110W        W88101  13.114  12.119   3.139 -0.0883  0.0205 -0.1892
45111W        W88102  28.325   0.733  17.436  0.1004 -0.4249 -0.0786
45112W        W88103   2.040   0.954  25.346  0.0012  0.0263  0.0837
45113W        W88104  24.871   1.104  28.235 -0.0381 -0.2448  0.1818
45114W        W88105  20.547  25.168   6.560  0.0147 -0.0804  0.1583
45115W        W88106  34.352  24.247  20.100  0.1573 -0.0450 -0.0661
45116W        W88107  27.280  32.034  19.872 -0.0420  0.0639  0.2348
45117W        W88108  24.784  24.306  22.546  0.0732 -0.2858  0.0593
45118W        W88109  25.771  23.264  16.488  0.1838 -0.0050  0.1669
45119W        W88110  10.390   9.816  25.538  0.2304  0.1659  0.0334
45120W        W88111  24.478  12.241   0.814  0.2260 -0.1908 -0.2906
45121W        W88112  31.997  23.509   6.967  0.3613 -0.0658 -0.1653
45122W        W88113   1.111  21.783  14.981  0.4287 -0.0528  0.0808
45123W        W88114  13.450   8.223   1.385  0.1712 -0.0813  0.2045
45124W        W88115   4.551  23.569  28.189  0.0403 -0.2243  0.0079
45125W        W88116  25.200   1.811   9.291  0.1315 -0.0410 -0.2972
45126W        W88117  27.436   7.807  15.699  0.0214 -0.1936 -0.0791
45127W        W88118  12.560   6.207  16.609 -0.3228  0.0264  0.2156
45128W        W88119  18.282  27.624   3.750 -0.1834 -0.0571 -0.0653
45129W        W88120  24.666  19.005  28.568  0.0697  0.0100 -0.1348
45130W        W88121  22.647  31.724  19.008  0.1080 -0.1341 -0.0476
45131W        W88122  31.876  25.907  24.872 -0.0674 -0.2446  0.3438
45132W        W88123  27.483  12.617  21.277 -0.1974  0.2970  0.3089
45133W        W88124   0.579  27.076  20.792 -0.1655  0.3020  0.2575
45134W        W88125  31.346  24.947  26.808 -0.0043  0.0642  0.0540
45135W        W88126   1.674  27.558   8.009  0.0991 -0.0347  0.0506
45136W        W88127  28.510  23.311  15.979 -0.0631 -0.0050 -0.0974
45137W        W88128   4.779   4.272  21.756  0.4471  0.0023 -0.4482
45138W        W88129  14.970   3.071  26.380  0.3532 -0.1770 -0.2219
45139W        W88130  21.647  10.086  28.408 -0.1662 -0.0619  0.0527
45140W        W88131  23.053  30.821  23.289 -0.0165  0.0519 -0.0585
45141W        W88132   2.134  23.105  26.334 -0.1900  0.0686 -0.0092
45142W        W88133   6.392  27.453  28.021 -0.0477 -0.0879  0.3258
45143W        W88134  15.826   0.213   2.490 -0.1773 -0.0279  0.3785
45144W        W88135   5.777  25.603  26.841 -0.2492  0.0974  0.1739
45145W        W88136  31.445  19.958  24.016  0.0279  0.1942  0.0148
45146W        W88137   1.748  27.558  23.417 -0.0454 -0.1501 -0.1374
45147W        W88138  29.530   3.763  16.422  0.2570  0.1987  0.0048
45148W        W88139  11.016  15.025  27.872 -0.0202  0.1224  0.1936
45149W        W88140   0.428   9.472  20.722  0.3561  0.3726 -0.1490
45150W        W88141  32.738   1.883  23.363 -0.0367 -0.1026  0.0771
45151W        W88142   1.352  32.031  25.937 -0.1178 -0.1730 -0.1398
45152W        W88143   4.136  24.544  22.361 -0.0666 -0.1711  0.1537
45153W        W88144  28.308  15.552  20.392  0.2833 -0.6302  0.0839
45154W        W88145  19.140  22.093  21.789 -0.0208  0.0236  0.2584
45155W        W88146  25.701  22.391  24.375 -0.1643 -0.2250 -0.1749
45156W        W88147   1.435  20.249  26.658  0.1116 -0.0467  0.0769
45157W        W88148  19.098  29.621  25.183 -0.1658 -0.4344 -0.1148
45158W        W88149  18.917  33.316   7.935  0.0949  0.2277  0.2501
45159W        W88150   2.260  27.673   6.234 -0.2498  0.0394  0.1534
45160W        W88151  31.817   0.038  27.851 -0.1661 -0.2570 -0.2363
45161W        W88152  14.772  33.441  15.587 -0.1517  0.2453  0.1925
45162W        W88153   1.070  22.302  24.285  0.0760  0.2815 -0.2137
45163W        W88154  26.787  26.070   2.655  0.2240 -0.0535  0.1010
45164W        W88155  26.439   2.472   6.845 -0.2716 -0.0350 -0.0834
45165W        W88156   4.965  25.966   9.451  0.5736 -0.2445  0.0934
45166W        W88157  28.951  21.860  28.032 -0.0085 -0.1355 -0.0167
45167W        W88158  29.056  34.233  20.293  0.0196  0.0134  0.1954
45168W        W88159  19.223  26.388  14.618  0.1353  0.1324 -0.0909
45169W        W88160  22.152  30.711   3.260 -0.1512 -0.2798  0.1683
45170W        W88161  33.075  25.716  23.694  0.0314  0.1391  0.0275
45171W        W88162  29.556  15.832  16.326 -0.3987 -0.1618 -0.0465
45172W        W88163  32.327  32.926  21.754 -0.1048 -0.0176 -0.0647
45173W        W88164   2.744  11.506  27.509 -0.1151 -0.1624  0.3105
45174W        W88165  31.847  29.234  15.220  0.2376 -0.0928 -0.2734
45175W        W88166  28.341   5.327   4.272 -0.3085 -0.1815 -0.0174
45176W        W88167   6.249  32.406  29.247  0.0916 -0.3024  0.2499
45177W        W88168  19.197  32.568  19.173 -0.1467 -0.2144  0.0762
45178W        W88169   5.014  29.599  13.983 -0.0957  0.0396 -0.2102
45179W        W88170   9.684   7.346  26.039 -0.1609 -0.0679 -0.1521
45180W        W88171  31.434  24.926   5.500 -0.0206  0.1063 -0.0948
45181W        W88172  27.251   3.055   7.722 -0.0953 -0.0953  0.0021
45182W        W88173  28.159  25.559  21.653 -0.1896 -0.0562  0.1263
45183W        W88174  19.975   1.660  24.089 -0.3017  0.3624 -0.3342
45184W        W88175  24.823   5.219   0.322 -0.2181 -0.1832 -0.1084
45185W        W88176  30.481  23.412   3.011 -0.4669  0.2249 -0.0056
45186W        W88177  33.885  22.749  23.535  0.1604 -0.1836  0.1091
45187W        W88178   8.434   1.253   1.908 -0.5025 -0.1953  0.1966
45188W        W88179  22.728  19.759  19.989  0.0959 -0.1047  0.1433
45189W        W88180  22.687   7.307  19.407 -0.2976  0.3789  0.0816
45190W        W88181   5.162  29.957  21.086 -0.0452  0.0341 -0.0751
45191W        W88182  17.527  23.962  20.944 -0.0133 -0.1592 -0.2992
45192W        W88183  33.324  30.864   4.255 -0.2636 -0.0950 -0.1918
45193W        W88184   8.234  27.635  10.026 -0.0464  0.0373  0.0203
45194W        W88185  34.719   4.109  14.818 -0.3529 -0.0069  0.0571
45195W        W88186  27.257   6.400   7.871  0.2570 -0.2952  0.0842
45196W        W88187  22.906  17.813  27.054  0.3096 -0.0251  0.2791
45197W        W88188  34.443   8.098   8.706 -0.1388  0.2073  0.1285
45198W        W88189  15.601   4.775   8.694 -0.0596  0.1199 -0.3496
45199W        W88190  22.361  13.208  27.154 -0.0856 -0.0647  0.2818
45200W        W88191  24.469  32.882   2.786  0.3077 -0.0002  0.3101
45201W        W88192  30.933   6.027  26.689 -0.0131  0.2568  0.0635
45202W        W88193  15.758  31.645   3.934 -0.0311  0.3703  0.1149
45203W        W88194   6.408  32.126  16.750  0.2496  0.0816  0.0841
45204W        W88195  30.518   5.972  25.430 -0.1342 -0.1755 -0.2921
45205W        W88196   2.298   1.487   3.244  0.2199 -0.5567 -0.3874
45206W        W88197  20.078  29.991   0.514 -0.1308 -0.1693  0.1299
45207W        W88198  17.538  26.388  25.509  0.0554 -0.1111 -0.2633
45208W        W88199  26.093   9.306  25.929 -0.2307  0.2031  0.2827
45209W        W88200  22.829   6.281   4.736 -0.3446 -0.2522  0.0293
45210W        W88201  30.748  15.323  28.295  0.0354  0.1216  0.0479
45211W        W88202  28.643  32.983  24.075  0.1325 -0.0695  0.0842
45212W        W88203   6.884   3.556   3.337  0.2351 -0.0976 -0.0559
45213W        W88204  12.860   6.817  24.035  0.0718  0.0205  0.0486
45214W        W88205   7.624  26.086   0.482 -0.1320  0.0167  0.1943
45215W        W88206  10.851   4.808  25.838  0.2515  0.1901 -0.2927
45216W        W88207  13.881  20.060   0.614 -0.1004  0.1813 -0.0918
45217W        W88208  29.032   2.092  29.092  0.2127 -0.0757  0.2346
45218W        W88209  11.122  15.918   0.871  0.2343 -0.1986 -0.2176
45219W        W88210   0.310   5.317  20.965 -0.0326 -0.2733  0.1581
45220W        W88211  24.428  13.139  28.669 -0.0057  0.1241  0.0074
45221W        W88212  31.326  18.376  15.156  0.0970  0.0861 -0.1650
45222W        W88213  26.551  27.138  16.233 -0.0122 -0.3652  0.0116
45223W        W88214  25.500   8.871   2.642 -0.0051 -0.0562  0.1645
45224W        W88215  12.867  12.987  18.306  0.2079 -0.3060  0.1124
45225W        W88216  30.618  27.852  22.433  0.2190 -0.0567  0.2748
45226W        W88217  19.899   1.964  27.901 -0.1480  0.4068  0.1027
45227W        W88218  17.658  34.592  24.358  0.2154  0.1412  0.1345
45228W        W88219  17.425   4.897  16.315  0.2840  0.0697 -0.0818
45229W        W88220  26.965  28.720  15.318  0.0122 -0.3943  0.0810
45230W        W88221  31.685  28.518  24.637  0.3145  0.1552  0.1158
45231W        W88222  34.291  27.383  16.916  0.1348 -0.2545  0.0649
45232W        W88223  34.061   9.085   5.163 -0.1392  0.3164  0.0869
45233W        W88224  26.896  33.948  14.725 -0.0040 -0.0323  0.0373
45234W        W88225   4.310   1.037   5.037  0.0199 -0.2435 -0.1871
45235W        W88226  22.489  32.123  26.046 -0.0299  0.0380  0.1797
45236W        W88227   1.075  32.191  18.186  0.1770  0.3170 -0.1229
45237W        W88228  30.795  30.346  18.603 -0.1735  0.0573 -0.0482
45238W        W88229   0.237  31.424  20.430  0.0261  0.2477  0.0434
45239W        W88230  29.589  16.066  17.280 -0.0834 -0.1951 -0.2660
45240W        W88231  17.207   0.030  21.776  0.2334 -0.1392 -0.0721
45241W        W88232  25.509   7.552  17.613 -0.1458 -0.1027  0.0308
45242W        W88233  24.734  32.076  17.743  0.1031  0.2841  0.1531
45243W        W88234   2.609  21.122  20.630 -0.1603 -0.1421 -0.2611
45244W        W88235  30.793  23.792   0.953 -0.1851  0.0238 -0.2615
45245W        W88236   1.962  26.683  20.223 -0.0065 -0.0279 -0.0516
45246W        W88237  32.763   6.417  16.388 -0.4363  0.1099  0.0917
45247W        W88238  29.850  30.184  15.825  0.2286 -0.1122 -0.1797
45248W        W88239   2.231  29.950  28.079 -0.3817  0.1060  0.1055
45249W        W88240  34.470  25.445  18.105  0.0973  0.0671 -0.3247
45250W        W88241   4.805   5.996  28.806 -0.1821 -0.0094 -0.0412
45251W        W88242  18.587  29.067  15.942  0.0931 -0.0943  0.1569
45252W        W88243  23.587  25.478   0.236 -0.1114  0.0505 -0.1867
45253W        W88244  24.579   2.915  21.771 -0.0370  0.0424 -0.1441
45254W        W88245   5.605   5.207  15.401 -0.0340 -0.0332 -0.1197
45255W        W88246   4.119  33.977  16.427 -0.1511 -0.0596  0.0623
45256W        W88247  21.750   1.669  22.440 -0.0305  0.1195 -0.1373
45257W        W88248  31.343   1.956  28.792 -0.1211 -0.3149 -0.0397
45258W        W88249  13.021   1.111  25.866 -0.0455  0.3629  0.3914
45259W        W88250  32.446  27.236  25.668 -0.0072 -0.3885  0.2701
45260W        W88251  33.863  33.651  14.976  0.2139 -0.0932  0.0845
45261W        W88252  15.891   1.694  22.989 -0.0307 -0.1455  0.1031
45262W        W88253  28.796  32.164  17.275 -0.2447 -0.0954 -0.0682
45263W        W88254  32.163  21.291  18.831 -0.0836 -0.1404  0.0316
45264W        W88255  31.507  23.209  15.070 -0.1941  0.2865 -0.0406
45265W        W88256  20.573  34.790  20.583 -0.0392  0.1289  0.0250
45266W        W88257  10.102  31.061  19.485  0.0612  0.0595 -0.3012
45267W        W88258   7.086  21.198  17.375 -0.1509 -0.3361 -0.2770
45268W        W88259  25.976  25.434  27.788  0.0476  0.0948  0.1550
45269W        W88260  25.183   8.026  14.003  0.1517  0.0784  0.1876
45270W        W88261  31.090  24.089  27.314  0.2498  0.1965 -0.0572
45271W        W88262  23.480  17.866  19.484  0.2896  0.2064  0.1502
45272W        W88263  28.743  18.882  15.427  0.2108  0.2067 -0.0115
45273W        W88264  25.538  11.141  19.014  0.3773  0.2625  0.0476
45274W        W88265   5.420  15.604  21.774 -0.2297  0.2389 -0.0532
45275W        W88266  11.769  30.351  20.897 -0.0433 -0.0475  0.0373
45276W        W88267  23.651  29.795  24.295  0.0651  0.0808  0.0409
45277W        W88268  29.529  30.547  25.707 -0.0250 -0.0267  0.0078
45278W        W88269  28.004  30.714  19.626 -0.2158 -0.1551 -0.2263
45279W        W88270  20.182  31.234  13.895  0.2190 -0.0488 -0.3762
45280W        W88271  28.714   3.208  25.862 -0.0930  0.3989 -0.2589
45281W        W88272   7.810  28.743  22.352 -0.0469  0.0195  0.0460
45282W        W88273   0.221  17.470  21.819  0.1969  0.0210  0.1469
45283W        W88274  22.965   0.829  21.463 -0.0440 -0.1203 -0.5413
45284W        W88275  21.821  33.308  19.461 -0.0767 -0.0071 -0.1439
45285W        W88276  29.185  33.222  21.437  0.1538 -0.2691 -0.1065
45286W        W88277  16.732   5.611  14.803  0.0494 -0.0425  0.0177
45287W        W88278   0.427  17.445  18.337  0.1476 -0.3362 -0.1822
45288W        W88279  14.247  14.095  20.010 -0.0069  0.0416  0.1873
45289W        W88280  22.425   2.555  16.504 -0.0915 -0.0784  0.0099
45290W        W88281  28.383  33.600  18.137 -0.2265 -0.2090  0.2196
45291W        W88282  22.012  16.874  23.863 -0.0125 -0.0369  0.0193
45292W        W88283  13.884  26.115  24.197  0.1467 -0.0289 -0.0594
45293W        W88284  33.664  12.264  17.819 -0.0952 -0.4597 -0.2947
45294W        W88285   8.415  27.374  14.540  0.0003 -0.1528 -0.2011
45295W        W88286   4.741  28.271  19.514 -0.0302  0.0738  0.2080
45296W        W88287   2.661  24.871  23.420 -0.2315 -0.1275 -0.3574
45297W        W88288  15.188   2.239  14.990  0.3098  0.0794 -0.0430
45298W        W88289  31.278  34.401  16.726  0.0030  0.0590  0.1475
45299W        W88290  29.560  31.916   4.733 -0.0833 -0.0619  0.1180
45300W        W88291   9.790   2.211  17.712 -0.1678 -0.2393 -0.0271
45301W        W88292   4.051  32.202  22.445  0.3788 -0.2546  0.0811
45302W        W88293  24.729  33.466  20.286  0.1902  0.0505  0.0438
45303W        W88294  33.666  24.500  14.288 -0.1703  0.4430 -0.1247
45304W        W88295  28.794  32.788  26.320 -0.0357 -0.1132  0.1904
45305W        W88296  21.076   3.014   0.981  0.2113  0.2454 -0.1757
45306W        W88297  29.828  33.118  16.650 -0.2466 -0.0756  0.2525
45307W        W88298  16.667   1.059  15.303  0.0525 -0.0713  0.0271
45308W        W88299  20.567   2.922  20.183 -0.1347  0.1909 -0.2419
45309W        W88300  30.242  27.990  21.386 -0.1535  0.0907 -0.0560
45310W        W88301  20.112  23.280  18.129  0.1687  0.5528  0.2341
45311W        W88302  20.354   3.953  20.402  0.3114  0.2005  0.1531
45312W        W88303  16.539   8.671   2.169  0.1535 -0.2579 -0.0282
45313W        W88304  25.444  23.970  18.012  0.0023 -0.0645 -0.2988
45314W        W88305  29.018   5.356  18.180  0.4344  0.2357 -0.0655
45315W        W88306  13.200   8.489  21.738  0.0744 -0.3059  0.1261
45316W        W88307  26.935  24.015  16.814  0.0227 -0.0524  0.0279
45317W        W88308   5.793  14.551  23.357  0.1302  0.1963  0.2092
45318W        W88309   8.408   0.237  23.083  0.0051  0.0710 -0.2475
45319W        W88310  30.620  29.739  19.669  0.2330 -0.2608  0.3790
45320W        W88311  23.249   0.884  16.591 -0.0499 -0.6058  0.0901
45321W        W88312   4.317  11.273  16.604 -0.2636 -0.1116  0.2517
45322W        W88313  33.009   2.261  22.391 -0.1228 -0.1298 -0.3563
45323W        W88314   5.186  29.284  18.408 -0.3196  0.2983 -0.1476
45324W        W88315  26.830  16.874  24.067 -0.1368  0.1081  0.0273
45325W        W88316  30.651  17.634  27.450  0.0944 -0.1380 -0.1184
45326W        W88317  34.792  29.679  13.111  0.1944 -0.3077 -0.2860
45327W        W88318  24.843  25.022  17.491 -0.4395  0.0668 -0.0640
45328W        W88319   6.349  34.003  16.061 -0.2186 -0.0247 -0.1375
45329W        W88320  13.878   1.334  26.673 -0.0569  0.0155  0.3770
45330W        W88321  30.682  16.176  17.618  0.0965 -0.3054  0.1470
45331W        W88322  10.806   7.340  17.210  0.0217  0.0153 -0.1459
45332W        W88323  20.538  25.613  19.279  0.0062 -0.1136 -0.1554
45333W        W88324  22.592  31.331  26.393 -0.0892 -0.3562  0.2140
45334W        W88325   4.645  30.544  14.542  0.1210  0.1563  0.1036
45335W        W88326  10.747  30.287   5.074  0.1273  0.1967  0.2150
45336W        W88327  30.231  16.458  19.591  0.0017  0.2516 -0.2950
45337W        W88328  30.119   2.116  15.123  0.0298  0.1248  0.1464
45338W        W88329   0.697  28.366  15.175 -0.0107 -0.0414 -0.0312
45339W        W88330   3.738  12.380  26.885  0.0605 -0.2244 -0.1622
45340W        W88331  24.081  31.209  19.587  0.2524 -0.1110 -0.0396
45341W        W88332   7.219  28.774  19.520  0.1040  0.1019  0.3426
45342W        W88333  32.873  12.463  26.414 -0.0718  0.0426  0.1957
45343W        W88334  27.612   5.026  27.487 -0.1234 -0.0961 -0.0648
45344W        W88335  21.827  22.205  26.762 -0.0292  0.0890 -0.0048
45345W        W88336  21.745  29.868  16.971 -0.1498  0.0634 -0.2216
45346W        W88337  21.631  28.208  26.383 -0.0704 -0.2523 -0.0637
45347W        W88338   3.827  32.448  14.878  0.1045  0.1196 -0.0337
45348W        W88339   4.989   1.545  20.086 -0.1082 -0.1011 -0.1100
45349W        W88340  29.767  14.812  16.512  0.2117 -0.2143 -0.0484
45350W        W88341  14.980  27.436  26.619  0.0409  0.0556  0.2210
45351W        W88342  17.720   4.529  15.321 -0.1629 -0.0530  0.0831
45352W        W88343   9.962  19.977  17.608  0.2058 -0.0603  0.0346
45353W        W88344  28.212   7.575  17.054  0.1311 -0.0165 -0.2009
45354W        W88345  33.701   3.555   9.013 -0.0997  0.2093  0.2059
45355W        W88346  26.977  34.138  13.698  0.0067 -0.0077  0.0159
45356W        W88347   0.344   7.369  26.902  0.2119 -0.0621  0.1410
45357W        W88348  29.865   1.384  20.289  0.2415  0.2188 -0.2551
45358W        W88349  12.444  31.101  17.644 -0.2117  0.3767  0.0965
45359W        W88350  10.766  31.983  22.589  0.4464 -0.0795  0.2124
45360W        W88351   2.357  27.236  16.251  0.0570 -0.1370 -0.2662
45361W        W88352   7.430   7.433  19.872  0.0471  0.0964 -0.1782
45362W        W88353  25.499   6.327  22.524  0.2355 -0.3536 -0.2007
45363W        W88354  24.829  14.600  14.869  0.1205 -0.3597  0.2596
45364W        W88355   5.755  23.973   5.149  0.0810 -0.1639  0.0601
45365W        W88356  27.893  19.684  23.000  0.3536 -0.1990 -0.1079
45366W        W88357  34.206   2.509  24.770 -0.0695  0.1357  0.1287
45367W        W88358  24.494  11.774  24.742  0.5451 -0.1629  0.0806
45368W        W88359  22.739  32.015  22.231 -0.2422  0.2913  0.0002
45369W        W88360  30.867  10.081  28.594  0.1541  0.3120  0.1299
45370W        W88361  34.286  30.164  15.802 -0.0094 -0.0785  0.0723
45371W        W88362  27.327  18.870  18.003  0.1983 -0.0177  0.0030
45372W        W88363  25.644  30.128  15.159  0.2117  0.0334  0.1950
45373W        W88364  24.383  10.057  15.758  0.1576  0.2336 -0.0204
45374W        W88365  18.919  27.334  24.613 -0.0252 -0.0390 -0.0509
45375W        W88366   0.501  30.274  20.041  0.0296 -0.1984  0.0916
45376W        W88367   0.169  32.877  18.456  0.0709 -0.0268 -0.0535
45377W        W88368  32.796  33.840  15.767  0.4698  0.1052 -0.1301
45378W        W88369  31.450   0.733  13.788 -0.1270 -0.2202  0.0410
45379W        W88370  31.932  31.406  19.513 -0.1879 -0.0603 -0.0191
45380W        W88371  32.522   0.558  22.556  0.2108 -0.0656  0.4822
45381W        W88372   0.845  34.478   2.163  0.1885 -0.2827  0.1724
45382W        W88373  22.440   7.765  16.346  0.2113  0.1662 -0.2143
45383W        W88374  30.820   3.341  17.779  0.0225 -0.0436 -0.3478
45384W        W88375  30.840  24.733  21.484  0.1217 -0.1901  0.1822
45385W        W88376   9.889  31.464  14.883  0.2639 -0.2189  0.0293
45386W        W88377  26.776  28.559  17.716  0.1800  0.1300  0.0556
45387W        W88378   3.732   2.196   1.939 -0.2101  0.0650  0.2035
45388W        W88379  25.450  14.121   1.039 -0.0346 -0.1408  0.1418
45389W        W88380   1.200  22.895  18.352  0.0056 -0.0365  0.2681
45390W        W88381  26.919   2.801   3.027 -0.0795  0.0703 -0.0117
45391W        W88382  26.017   0.073  14.649  0.1070 -0.1663  0.2564
45392W        W88383  13.434   0.898  27.616 -0.0815 -0.3327 -0.0388
45393W        W88384   2.106  27.738  14.339  0.1500  0.1320 -0.0135
45394W        W88385  17.732   4.574   4.997  0.1561 -0.1508  0.0828
45395W        W88386  30.216   4.796  22.241 -0.3275  0.2671  0.2322
45396W        W88387  21.135  24.540   1.633 -0.0135  0.0810  0.0213
45397W        W88388  28.045  29.113  19.317 -0.1791  0.2282 -0.0911
45398W        W88389  28.690   8.822  17.844  0.0303 -0.1064 -0.0580
45399W        W88390  27.439   6.403  15.047 -0.2566  0.0588  0.2009
45400W        W88391  10.317  33.961  22.068 -0.2163 -0.1199 -0.0647
45401W        W88392   1.884  33.357  25.460 -0.2943 -0.2598  0.0803
45402W        W88393  32.103  22.922  17.235 -0.2175 -0.1034 -0.0605
45403W        W88394  33.059  30.702  19.678 -0.1536 -0.1020 -0.1961
45404W        W88395  24.315  30.705   2.268  0.0228 -0.1949  0.1579
45405W        W88396   9.502   3.370  19.104  0.1372  0.0966  0.0930
45406W        W88397   5.511  20.116  15.241  0.0038  0.0334 -0.2719
45407W        W88398  34.715  27.081  19.602 -0.0076  0.0034 -0.1174
45408W        W88399   2.512   0.511  15.189 -0.0311 -0.0479  0.0733
45409W        W88400  33.862  28.695  17.609 -0.0390 -0.0248 -0.1872
45410W        W88401  22.927   8.596  26.550 -0.1146  0.1852  0.0144
45411W        W88402  28.655  28.763  22.191  0.0575 -0.2045  0.3542
45412W        W88403  24.824   7.998  18.147  0.1259  0.5169 -0.0390
45413W        W88404  30.029  29.335  29.183  0.2213 -0.3224  0.1543
45414W        W88405   3.532   5.343  20.447 -0.2733  0.0469 -0.3492
45415W        W88406  11.387  12.537  22.415  0.2317 -0.1714 -0.2302
45416W        W88407   7.631   8.394  15.713 -0.1798  0.1075  0.0398
45417W        W88408   9.096  32.432   2.529 -0.0602  0.0698  0.0556
45418W        W88409  21.449  11.741  18.989  0.0267 -0.0947  0.2031
45419W        W88410  33.010   8.145  16.482  0.4927 -0.1080 -0.2958
45420W        W88411  31.777  25.921  18.762  0.0481 -0.0747 -0.2972
45421W        W88412  22.906  34.785  15.056  0.1441  0.1469 -0.0277
45422W        W88413  32.041   7.998  15.074  0.0783  0.0501  0.0688
45423W        W88414  33.398  30.057  13.744  0.1847  0.1137  0.1420
45424W        W88415  26.325  18.224  14.994 -0.2005  0.3260  0.1189
45425W        W88416   5.178  11.205  14.921 -0.3465 -0.1560  0.1152
45426W        W88417  34.485   7.640   7.837  0.1088  0.4864  0.1076
45427W        W88418   0.450  20.983  16.815 -0.1126 -0.1729 -0.2843
45428W        W88419  21.422  11.051  21.327  0.0868 -0.0113 -0.3020
45429W        W88420   5.582  34.428  27.045  0.1273 -0.1320  0.1443
45430W        W88421  34.582  29.745  14.504 -0.0121  0.1884 -0.0088
45431W        W88422   4.024  33.749  20.317  0.2990  0.0484  0.1936
45432W        W88423   0.029  25.585  27.431 -0.2590  0.1338  0.4130
45433W        W88424  26.033  13.187  28.698 -0.0045  0.1731 -0.0758
45434W        W88425  29.211  25.760  21.243  0.3499  0.2934 -0.2160
45435W        W88426   0.858   7.294  22.697 -0.3507  0.1320 -0.1465
45436W        W88427   7.080  27.318  27.353 -0.0953  0.0885 -0.1262
45437W        W88428  14.935   1.328  28.825  0.0432 -0.0834 -0.2103
45438W        W88429  11.655  33.045  10.896 -0.1641 -0.0148 -0.0251
45439W        W88430  10.188  33.996  15.861 -0.0335  0.0816  0.0545
45440W        W88431   8.503   6.114  26.714 -0.0637 -0.2222  0.0208
45441W        W88432  18.017   7.424   1.196  0.0405  0.0498 -0.2347
45442W        W88433  13.367   0.713  16.654  0.0527 -0.0290 -0.1521
45443W        W88434  25.602  14.545  17.162  0.1864  0.2184 -0.1863
45444W        W88435  25.649  15.924  29.173 -0.1603 -0.0415 -0.0376
45445W        W88436  32.935   2.458  14.305  0.0696  0.0465 -0.1325
45446W        W88437  11.989  32.541   9.143 -0.0199  0.1364  0.0895
45447W        W88438  31.591  32.694  26.306 -0.0402 -0.3437 -0.2633
45448W        W88439  31.940  30.757   2.272 -0.1258 -0.2921  0.3188
45449W        W88440  28.378  10.838  23.230  0.1480  0.0244 -0.1395
45450W        W88441  12.260  30.613   0.096 -0.2653 -0.0147  0.1247
45451W        W88442   4.104   8.083  15.661  0.1190  0.3647 -0.2005
45452W        W88443   8.639  16.556  20.840 -0.0801  0.0437 -0.2122
45453W        W88444  29.063   6.126  21.574 -0.1289 -0.1082 -0.1078
45454W        W88445  31.239  19.802  15.014 -0.0834 -0.2057  0.0119
45455W        W88446  29.906   2.392  20.822  0.1027  0.2569 -0.0972
45456W        W88447  29.741  18.477  26.866  0.2654  0.2299 -0.0010
45457W        W88448  24.916  33.655  27.975 -0.1281  0.0807 -0.1956
45458W        W88449  20.644   9.137  22.204  0.0233 -0.1374  0.0303
45459W        W88450  23.060  12.292  25.848  0.0260 -0.0906 -0.0703
45460W        W88451  33.894  28.885  14.555  0.0100 -0.0915 -0.3049
45461W        W88452   7.923  25.198  26.138 -0.3996  0.0640  0.3481
45462W        W88453  29.557  25.483  24.936 -0.1786 -0.1309  0.0554
45463W        W88454  14.032   3.541  16.725  0.0850  0.2167  0.1221
45464W        W88455  26.394   4.754  18.888 -0.0632  0.1294 -0.1018
45465W        W88456   0.147   4.316  19.993 -0.1103  0.0491  0.1320
45466W        W88457  23.578  21.171  14.772 -0.0316  0.2012  0.1252
45467W        W88458  29.354  32.566  23.004 -0.2896 -0.1841  0.1712
45468W        W88459  33.577  31.693  13.995  0.0212 -0.2590 -0.3138
45469W        W88460  28.758   5.123   2.837 -0.1742 -0.0015  0.4042
45470W        W88461  18.220   9.606  10.464  0.0640 -0.1192  0.2341
45471W        W88462  16.498  24.530   0.424 -0.0664 -0.1358  0.1294
45472W        W88463   0.333  20.424  19.484  0.1227 -0.0655  0.0266
45473W        W88464   1.156   1.020  28.397  0.0476  0.2208  0.0431
45474W        W88465   1.729   1.498  26.196  0.0370 -0.0332  0.1923
45475W        W88466  15.944  32.498   6.312 -0.1484 -0.0336  0.1010
45476W        W88467  23.533  33.644  16.770 -0.0716 -0.3678 -0.1846
45477W        W88468  23.935  12.845  18.103 -0.0274 -0.0012  0.3498
45478W        W88469  26.978  20.365  21.175 -0.2110 -0.0308  0.5424
45479W        W88470  27.475  30.010   5.359  0.0358  0.0927 -0.1240
45480W        W88471  12.063  32.441  17.958  0.0417 -0.1129  0.2484
45481W        W88472   9.633  24.648  15.129  0.2183 -0.4478 -0.4194
45482W        W88473   0.854   3.576  14.938 -0.4028 -0.3159 -0.0179
45483W        W88474  25.794  11.014  17.924  0.2811 -0.2269  0.2312
45484W        W88475  23.269   5.858  23.160 -0.1160 -0.0957 -0.1317
45485W        W88476   6.365  17.686  15.196  0.2035 -0.0511 -0.2112
45486W        W88477  14.295  27.016  24.678  0.0751  0.0843 -0.1608
45487W        W88478  33.528  34.298  20.909  0.0120 -0.1596 -0.0733
45488W        W88479  30.932   5.584  14.537 -0.1323  0.1753  0.2971
45489W        W88480  19.941   0.150  17.309 -0.1735  0.0395 -0.0064
45490W        W88481   1.140  23.877  19.432 -0.0271  0.1604  0.0747
45491W        W88482  33.835  34.438  19.494 -0.0861 -0.1333 -0.0813
45492W        W88483  11.467  18.116  19.658 -0.1325  0.2650 -0.1359
45493W        W88484  34.643   4.534   9.677  0.1828  0.4222  0.4960
45494W        W88485  28.653  30.008  23.814 -0.1007 -0.0149  0.2437
45495W        W88486   9.679  30.876   1.959  0.1189 -0.2415 -0.1675
45496W        W88487   1.112  32.377  27.436  0.2608 -0.1866 -0.0425
45497W        W88488  26.576  32.094  15.918  0.1011 -0.1876 -0.0890
45498W        W88489   9.903  24.872  27.196 -0.0336 -0.0848  0.5787
45499W        W88490  31.160  31.801  19.979 -0.1167  0.2541 -0.0775
45500W        W88491  26.438   0.919  27.281  0.3408 -0.1618  0.4785
45501W        W88492  27.639   9.715  24.001  0.1177 -0.2247  0.0489
45502W        W88493  25.714   6.671  21.744  0.0925 -0.2281 -0.3389
45503W        W88494  23.129  17.976  24.652 -0.3387  0.2702 -0.1270
45504W        W88495  10.391  20.683  23.990  0.0167  0.0051 -0.1586
45505W        W88496   6.666  32.750  18.841 -0.1038 -0.0747 -0.1441
45506W        W88497   4.688  31.034  17.459  0.0387 -0.1919  0.2621
45507W        W88498  29.428   9.445  15.570  0.0383  0.0437 -0.2682
45508W        W88499  29.654  28.566  16.723  0.0047 -0.1163  0.2442
45509W        W88500  21.367  21.921  12.393  0.2234  0.0955  0.0583
45510W        W88501  31.880   5.921   0.801 -0.1797  0.1620 -0.1951
45511W        W88502  25.103  22.281  19.186 -0.2887  0.1706 -0.0270
45512W        W88503  28.974   5.531  14.779  0.2802 -0.3145 -0.0341
45513W        W88504  20.494  22.645  16.146  0.2179 -0.2386  0.1691
45514W        W88505   3.496  31.606   6.363  0.1939  0.5347 -0.3616
45515W        W88506  29.463  23.527  27.232 -0.0639 -0.0545 -0.3568
45516W        W88507  15.024   6.345  23.146 -0.1993 -0.0937 -0.1476
45517W        W88508   3.336   3.231   1.467 -0.1272 -0.1194  0.0549
45518W        W88509   1.007  21.459  18.906  0.1234  0.0321 -0.0861
45519W        W88510   3.005  24.445  14.853 -0.2882 -0.0165 -0.0903
45520W        W88511   6.903   5.032  17.435  0.0086 -0.1477 -0.1127
45521W        W88512  15.303  28.787   5.366 -0.4663  0.0489 -0.0076
45522W        W88513  29.552   7.765  15.366 -0.1375 -0.0843  0.0660
45523W        W88514   5.321  26.059  15.303 -0.2056  0.2169 -0.2415
45524W        W88515  34.323  10.097   1.723 -0.0829 -0.2638  0.4078
45525W        W88516  31.080  28.787  20.816  0.3250 -0.2720 -0.2717
45526W        W88517  20.705  31.891  29.240 -0.1009 -0.2892 -0.1233
45527W        W88518  24.811   4.990  14.394  0.0947 -0.2971  0.3729
45528W        W88519   6.528   2.783  15.293 -0.0101 -0.0710  0.0042
45529W        W88520  23.591   4.871  14.710 -0.0684  0.2221  0.0003
45530W        W88521  28.235   1.937  19.343  0.1258 -0.1359  0.2378
45531W        W88522   2.415  29.729  27.640 -0.0274  0.1219 -0.5331
45532W        W88523  26.306  12.018  24.044 -0.0887  0.1861 -0.2524
45533W        W88524  27.756  26.615  15.785  0.1680 -0.2789 -0.2896
45534W        W88525  33.568  25.949  24.578 -0.2362  0.2336 -0.0247
45535W        W88526  34.774   2.632  16.516 -0.0919 -0.0215  0.1739
45536W        W88527   3.066  28.859  23.396 -0.0457 -0.0574  0.0496
45537W        W88528   2.502   5.179  19.643 -0.0162  0.1546 -0.2109
45538W        W88529   3.852  34.625  17.735 -0.0339  0.0466 -0.0669
45539W        W88530  28.133  10.883  17.127 -0.0064  0.0271  0.3003
45540W        W88531  23.651  29.649  25.105  0.1274 -0.3562  0.0283
45541W        W88532  33.843  30.240  28.439 -0.0419  0.2571  0.1700
45542W        W88533  24.858  10.520  15.247  0.0908  0.0114  0.0555
45543W        W88534  17.618  24.871   2.199 -0.0879 -0.1299  0.0584
45544W        W88535   6.027   7.072  27.049 -0.0269 -0.1002  0.1036
45545W        W88536  29.468  25.800   3.650 -0.0260 -0.0452  0.3417
45546W        W88537  26.012   7.959   1.730 -0.2865  0.1682 -0.0231
45547W        W88538   2.777  30.486  14.242  0.1928 -0.0540  0.0526
45548W        W88539  21.058   3.998  13.831  0.3336 -0.1623 -0.0429
45549W        W88540   9.509  28.917   1.603  0.1491  0.2690 -0.0318
45550W        W88541  25.594   2.378   1.782 -0.3157 -0.0038 -0.4928
45551W        W88542   0.951  32.414   1.466 -0.2398 -0.0569  0.0574
45552W        W88543  31.355  33.589  22.983  0.1152 -0.3327 -0.1497
45553W        W88544   4.555  21.754  19.090 -0.1276 -0.1112  0.2838
45554W        W88545   1.335  18.824   3.848 -0.1827 -0.2617 -0.1439
45555W        W88546  32.826  16.588  26.112  0.0525  0.2034 -0.0408
45556W        W88547   3.663  27.269  15.015 -0.0630 -0.2614  0.1776
45557W        W88548   3.106  25.304  15.803  0.0198 -0.0263 -0.2737
45558W        W88549  22.804   6.794  19.479 -0.0096 -0.1444  0.2221
45559W        W88550   3.015  22.385  16.345  0.3438  0.0688  0.1704
45560W        W88551   0.796  11.878  27.007 -0.1581  0.2742  0.2879
45561W        W88552   6.969  34.469  25.640  0.1419  0.2298  0.3682
45562W        W88553  26.115  30.897  21.612  0.3815  0.2154  0.0719
45563W        W88554   4.002  18.903  19.263 -0.0134  0.1886  0.1173
45564W        W88555  33.733   6.256   0.453 -0.1557 -0.1765 -0.1745
45565W        W88556  26.382  25.923  16.098 -0.1513  0.2073 -0.1260
45566W        W88557  27.416  25.351  23.705  0.0261  0.1475 -0.0283
45567W        W88558   8.933  28.528  19.841 -0.1199 -0.2705 -0.1001
45568W        W88559  24.575  16.629   4.740  0.2265 -0.0755 -0.0061
45569W        W88560   4.862   3.223  15.776 -0.0007  0.1950 -0.1864
45570W        W88561  26.769   3.577   2.101 -0.2549  0.0720  0.2064
45571W        W88562  28.604  34.075  29.212 -0.2000 -0.1894 -0.6586
45572W        W88563  25.893  29.592   6.042  0.0427 -0.1158 -0.1272
45573W        W88564   1.209  22.810  17.824  0.1665 -0.2856  0.0621
45574W        W88565  24.516  11.579   1.995  0.1153  0.0992 -0.0145
45575W        W88566  11.117  33.898  18.913 -0.5052  0.0396 -0.0561
45576W        W88567  15.003  33.582  15.138  0.0847  0.0077  0.1433
45577W        W88568   7.931   0.261  23.180 -0.0725  0.1011  0.3309
45578W        W88569  25.202  23.497  19.730  0.1844  0.1181 -0.2281
45579W        W88570  32.397   5.987  18.357 -0.2057  0.2518  0.0079
45580W        W88571  26.697  28.788  14.413  0.0394  0.0149  0.3275
45581W        W88572  21.122  31.649  14.866  0.0921  0.1768  0.2190
45582W        W88573  20.678  27.246  25.632  0.2215  0.1283 -0.3250
45583W        W88574  25.500  34.674  24.838 -0.0441  0.2576 -0.2368
45584W        W88575  26.393   7.738  24.868 -0.0028  0.1886  0.5161
45585W        W88576   2.387   8.505  17.682 -0.1475  0.0005  0.0771
45586W        W88577  29.279   7.011  19.458 -0.1337  0.1441 -0.0670
45587W        W88578   1.482   8.650  21.780  0.1462 -0.0333 -0.1607
45588W        W88579   6.097  33.391   5.188 -0.2810  0.0221  0.1037
45589W        W88580   2.682  34.155  18.030 -0.1119 -0.2187  0.1132
45590W        W88581  23.152  15.037  24.506 -0.1480  0.1332 -0.2313
45591W        W88582  19.402  17.687  12.402  0.2603 -0.0944 -0.1718
45592W        W88583   6.896  25.016  25.940  0.2450  0.1963 -0.0924
45593W        W88584  10.973  31.607  22.159 -0.0848 -0.0491 -0.2887
45594W        W88585   4.033  32.652   4.317  0.2543  0.1368  0.0800
45595W        W88586  18.978  12.245  13.155  0.3325  0.3843 -0.0958
45596W        W88587  18.715  12.481  18.505 -0.2362  0.0338 -0.2969
45597W        W88588  22.315  24.485  21.077  0.0194  0.4034 -0.0481
45598W        W88589  31.623  28.267  28.944  0.1111  0.0050 -0.0836
45599W        W88590   8.720  30.631  28.734 -0.2080 -0.1438 -0.0145
45600W        W88591  34.093  26.119  24.800  0.3204 -0.0099  0.0565
45601W        W88592  24.350  34.658  12.835 -0.1773  0.0358 -0.0093
45602W        W88593  30.826   9.167  14.830  0.1382 -0.0865  0.0240
45603W        W88594   1.107   6.241  25.364  0.3822  0.1201 -0.0980
45604W        W88595  23.927  30.306   6.194 -0.1832  0.2136  0.0967
45605W        W88596  22.119  33.275  22.676 -0.1574  0.2236 -0.0847
45606W        W88597   4.030  17.385  23.406 -0.1838  0.1703  0.2367
45607W        W88598   9.781  17.627   7.040 -0.2080 -0.1764 -0.1692
45608W        W88599   2.029  33.924   8.975 -0.1153 -0.0118  0.3467
45609W        W88600  22.740  28.725  25.656 -0.2186 -0.0165 -0.2070
45610W        W88601   0.988   2.951   1.287  0.1853  0.2747  0.0218
45611W        W88602  21.670  17.118  14.539 -0.4951 -0.1180  0.2845
45612W        W88603  27.679  33.903  12.948 -0.1348 -0.1029  0.0581
45613W        W88604  25.658   3.585  18.051  0.0366  0.1755 -0.0398
45614W        W88605  26.847  24.438  19.343  0.0010  0.1246 -0.2809
45615W        W88606  24.733  28.724   1.377 -0.0541  0.1069 -0.0448
45616W        W88607  26.099   7.129  13.531  0.0378 -0.0242 -0.0278
45617W        W88608  33.022   0.617  14.635  0.2430 -0.5449  0.0395
45618W        W88609  31.625  22.491  18.556 -0.0777 -0.1838  0.0869
45619W        W88610  18.563   3.621  22.030  0.2481  0.2320  0.1097
45620W        W88611  27.512  18.975   3.825 -0.0605 -0.2023 -0.1600
45621W        W88612   0.889   1.973  21.315 -0.0338 -0.0365  0.0078
45622W        W88613  32.699  24.271  24.770 -0.1498 -0.1124  0.0285
45623W        W88614   2.235   6.054  18.685  0.0963  0.3686  0.1203
45624W        W88615  28.859  26.430  18.947  0.1002  0.0907 -0.0727
45625W        W88616  31.315   2.529  22.756 -0.2119 -0.0776 -0.2128
45626W        W88617  33.337  34.753  22.455 -0.0620 -0.1162  0.0887
45627W        W88618  11.318  33.405  16.587  0.1745  0.2358  0.0117
45628W        W88619  26.566  18.926  23.763  0.1023  0.0854  0.1733
45629W        W88620  29.494   1.735  20.077 -0.1302 -0.0808  0.0288
45630W        W88621  26.955   5.613  13.974  0.1712 -0.3059  0.0893
45631W        W88622  26.551   3.325   8.089  0.2507  0.0005  0.2185
45632W        W88623  24.652  21.516  27.673  0.0235 -0.2818 -0.0657
45633W        W88624  29.155   5.110  20.123 -0.1602 -0.0844  0.0265
45634W        W88625  11.162  31.245   4.228 -0.0301 -0.1026  0.0923
45635W        W88626  14.361  33.131  25.838  0.3115 -0.1491  0.2350
45636W        W88627  17.625  26.426   0.532 -0.2405 -0.1994 -0.0319
45637W        W88628  21.146  20.772  15.351  0.0747 -0.1491 -0.3333
45638W        W88629  29.937  30.835  22.748 -0.1400 -0.1272 -0.1788
45639W        W88630  23.458   4.849   0.234 -0.1883 -0.1462 -0.0230
45640W        W88631   6.503  13.270   2.469  0.1773 -0.1454 -0.0466
45641W        W88632  27.740   8.177  24.422  0.1013  0.2630  0.2477
45642W        W88633  27.217  29.415  21.642 -0.0751 -0.1246  0.1878
45643W        W88634  28.788  21.810   5.786  0.0381 -0.0332  0.0704
45644W        W88635  21.391   5.756   1.802  0.1512 -0.5130  0.0873
45645W        W88636  33.737  11.686   1.291 -0.2117 -0.2213 -0.1770
45646W        W88637  15.968  21.789  22.249 -0.1235  0.0370 -0.2940
45647W        W88638  26.931  32.979  15.180  0.1703 -0.0168 -0.2532
45648W        W88639  17.537  11.275   6.575 -0.1765  0.1822 -0.4451
45649W        W88640  33.889  26.581   1.850 -0.2661  0.0194  0.3060
45650W        W88641  34.189  31.821  18.846 -0.2595 -0.1914 -0.0383
45651W        W88642  20.937  28.132  27.111 -0.0914 -0.3565 -0.0297
45652W        W88643  27.056   2.200  18.045  0.0415 -0.2778  0.2151
45653W        W88644   1.837   7.355  25.085  0.1780  0.0378  0.2333
45654W        W88645   6.626   7.320  24.346 -0.1196 -0.2618  0.2189
45655W        W88646  26.015   1.233  20.666  0.1361 -0.1056 -0.0675
45656W        W88647  27.068  31.749  24.740  0.2504 -0.0023  0.3465
45657W        W88648  24.176  34.376  21.813  0.4262 -0.1307 -0.2041
45658W        W88649  34.083  28.770  18.221  0.4157  0.1673 -0.2601
45659W        W88650   5.763  27.376  15.233  0.0136  0.5523 -0.1476
45660W        W88651  26.975   2.613  28.592  0.1846 -0.0983  0.4618
45661W        W88652  30.914  21.727  26.503 -0.2134 -0.0173 -0.0748
45662W        W88653  21.553  17.495  26.320 -0.1668  0.0046 -0.1314
45663W        W88654  20.989  12.244  25.470 -0.1547 -0.1511  0.2124
45664W        W88655  30.195   7.498  16.855  0.0345 -0.1601  0.1458
45665W        W88656   1.300   2.480   2.980  0.0995 -0.1132 -0.2729
45666W        W88657   7.427   4.498   1.288 -0.1176  0.1020 -0.2910
45667W        W88658  23.633  34.575  27.793 -0.1392  0.1306  0.0938
45668W        W88659  30.773  32.769  21.829 -0.1838 -0.1812 -0.0435
45669W        W88660  26.851  22.464  26.440  0.1979 -0.1237 -0.0703
45670W        W88661  29.718   0.828   5.170  0.0858  0.0334  0.0796
45671W        W88662  31.426  23.639  27.725  0.0163 -0.1798 -0.0293
45672W        W88663   1.061   4.010  18.389  0.0463 -0.1577  0.3202
45673W        W88664  22.464   5.409  14.931 -0.0209 -0.0024  0.0356
45674W        W88665  20.150  20.081  28.662 -0.1831 -0.1406  0.2879
45675W        W88666  31.589  31.418  17.417  0.0483 -0.0563 -0.1021
45676W        W88667   3.733  12.972  19.531 -0.0056  0.1383 -0.0894
45677W        W88668  26.193  28.620  23.135  0.0602 -0.2355  0.1352
45678W        W88669   5.921  12.515  19.526 -0.1615 -0.2559 -0.4482
45679W        W88670  32.644  13.172  26.978  0.0016 -0.1765  0.3350
45680W        W88671  31.478  31.764  19.290  0.1769 -0.1504  0.1373
45681W        W88672  25.886  10.195   2.215 -0.1678  0.2329  0.2265
45682W        W88673  22.465  32.533  15.573  0.4602  0.0041  0.0123
45683W        W88674  22.162  32.593   6.112  0.0214 -0.0014 -0.2306
45684W        W88675  26.069  32.124  14.046 -0.3058 -0.1123  0.1356
45685W        W88676   4.417  30.700   1.173  0.1136 -0.1532 -0.1988
45686W        W88677  34.566  22.229  27.672  0.3031  0.1400 -0.2615
45687W        W88678  32.418  32.064  26.984 -0.1880 -0.0328  0.0726
45688W        W88679   9.922   9.091   0.496  0.0594  0.0672  0.0311
45689W        W88680  25.138   9.360  26.733 -0.2087 -0.0317  0.1777
45690W        W88681   5.305  23.530  23.864  0.1331  0.1464  0.1501
45691W        W88682  27.213   5.347  13.620 -0.2425  0.0963  0.4071
45692W        W88683  23.690  29.620  14.024  0.1865 -0.0639  0.1726
45693W        W88684  28.318  32.155  25.208 -0.0050 -0.0036 -0.0659
45694W        W88685  30.694  20.048  16.643  0.0752 -0.3878  0.0705
45695W        W88686   7.077  28.845   4.283 -0.1869  0.0537  0.0250
45696W        W88687  33.335  22.377  22.987  0.1235  0.0396 -0.2929
45697W        W88688  33.591  27.543  17.890  0.0741  0.0280  0.2265
45698W        W88689  30.864  15.559   8.014  0.1376 -0.1665  0.0441
45699W        W88690   3.104  25.987   1.687  0.1510 -0.0472 -0.1552
45700W        W88691  22.247   6.027   9.375 -0.0527 -0.1123 -0.0459
45701W        W88692  27.473   6.312  22.342  0.0536 -0.0784 -0.1064
45702W        W88693  33.428  25.103  23.189  0.1912 -0.0381 -0.1683
45703W        W88694  22.614  26.583  22.137 -0.0769 -0.1080  0.3849
45704W        W88695   0.790  10.012  28.547 -0.1260  0.0300  0.1484
45705W        W88696  33.926   0.294  15.201 -0.5346  0.2586 -0.5767
45706W        W88697  31.346  23.017  18.592 -0.2196 -0.1670  0.2502
45707W        W88698  24.434   3.922  24.436  0.2692 -0.0300  0.1892
45708W        W88699   9.419  28.272  25.036 -0.3862  0.1040 -0.2147
45709W        W88700   9.278   0.357   3.808 -0.0004 -0.1994  0.2018
45710W        W88701  23.620  22.910   0.680  0.0313 -0.2009 -0.2796
45711W        W88702  20.104   2.041  17.483  0.1386 -0.1168 -0.0073
45712W        W88703  34.184  15.004  17.899 -0.0041  0.4151 -0.1106
45713W        W88704  27.776  32.232   0.234 -0.0585 -0.2426  0.0322
45714W        W88705  12.061  17.860  27.392 -0.4124  0.2163  0.3262
45715W        W88706   4.251  20.299   3.754 -0.4408  0.0111 -0.0055
45716W        W88707  19.337   1.135  13.734  0.0723  0.4703 -0.1862
45717W        W88708  29.200   6.498  23.634  0.1216 -0.0074  0.0837
45718W        W88709   6.991  20.649  27.439  0.3237 -0.1213  0.0099
45719W        W88710  31.882   6.359   1.764  0.1989  0.0789 -0.2606
45720W        W88711  23.704   8.128  22.087 -0.2188 -0.0495 -0.0841
45721W        W88712  15.680  29.944  22.848  0.0767  0.1545 -0.3047
45722W        W88713  32.510  30.154  16.877 -0.2126 -0.0894  0.0758
45723W        W88714   9.490   8.366  22.249 -0.2831 -0.1520 -0.0553
45724W        W88715   1.439   0.088  24.306 -0.1273  0.2334  0.0351
45725W        W88716   4.578   5.408  20.437 -0.0919  0.3226  0.2457
45726W        W88717  29.679   1.251  13.646  0.1966 -0.4724  0.4186
45727W        W88718  20.263  30.314  13.396  0.2135 -0.3504  0.0507
45728W        W88719   3.612  18.341  18.048 -0.0845 -0.0170 -0.1961
45729W        W88720  30.380  16.983  28.693  0.2664  0.1540  0.1951
45730W        W88721  10.303   0.729  25.169  0.3026  0.0015 -0.0652
45731W        W88722  27.714  22.789  24.971 -0.3653  0.1179 -0.0024
45732W        W88723  32.688  28.866  16.975 -0.1846  0.3477 -0.0206
45733W        W88724  34.682  26.666  23.452  0.0049  0.0704  0.1336
45734W        W88725  34.133  26.744  15.095  0.1204  0.0736 -0.0987
45735W        W88726   9.071   2.745  21.400  0.0148 -0.0266  0.0361
45736W        W88727   7.251   0.944  23.125  0.3586 -0.0294  0.0220
45737W        W88728  31.104   2.957  16.839 -0.0356  0.1242  0.0310
45738W        W88729  22.132  10.930  17.168  0.1267  0.2100 -0.1203
45739W        W88730   4.459  33.038   5.106 -0.0754  0.0547  0.4321
45740W        W88731  24.538  17.301  26.515 -0.0873 -0.0128 -0.0420
45741W        W88732   1.180   0.241   0.184 -0.1354  0.1511 -0.0900
45742W        W88733  10.081   5.156  26.472  0.0863 -0.1050  0.1487
45743W        W88734  25.516   1.103   8.585 -0.3251 -0.2234 -0.2513
45744W        W88735  14.916  21.271   9.306 -0.4075  0.0036 -0.3962
45745W        W88736   3.795  12.495  29.010  0.1513 -0.0717 -0.1566
45746W        W88737   2.488   6.804  19.823  0.4319 -0.2918  0.3358
45747W        W88738  23.629  29.436  14.989  0.2087 -0.2144  0.1158
45748W        W88739  29.212   9.909  21.727  0.0390  0.0651  0.0575
45749W        W88740   7.399  32.063  14.494  0.0079  0.0348 -0.2629
45750W        W88741  23.367  30.038   7.824 -0.3097  0.1722  0.1139
45751W        W88742  11.729  24.783  20.286 -0.2810  0.1258 -0.0969
45752W        W88743  23.052  18.879   1.843 -0.1364 -0.0829  0.1598
45753W        W88744   3.478  26.816  17.601 -0.1472  0.1549 -0.0982
45754W        W88745  31.581  26.427  15.755  0.2033  0.2238  0.1010
45755W        W88746  10.740  12.069  25.878 -0.1627 -0.0058 -0.1713
45756W        W88747  28.449  32.548   2.233  0.0699 -0.1217  0.0508
45757W        W88748  18.950  28.862   7.747 -0.2274  0.1829  0.0442
45758W        W88749  33.187  26.003  15.984 -0.0287  0.0838 -0.1927
45759W        W88750   4.886   1.845  21.944 -0.0325  0.4627  0.2509
45760W        W88751  13.728  30.642  16.882 -0.3319  0.0259 -0.1779
45761W        W88752  21.163  26.261  17.849 -0.1042  0.1091 -0.2742
45762W        W88753  16.498  19.945  26.404  0.1393 -0.4189  0.2563
45763W        W88754  20.078  31.230  15.882 -0.0440 -0.0057  0.0470
45764W        W88755   6.462  13.241   7.130 -0.0187 -0.1950 -0.0368
45765W        W88756  34.133   3.411  24.060 -0.2533  0.4580 -0.2727
45766W        W88757  23.306  16.263  18.055 -0.1085 -0.0693 -0.0061
45767W        W88758  15.216   1.255  20.876 -0.3317  0.0426  0.0748
45768W        W88759  34.771  26.951  17.752 -0.1549  0.0201  0.2313
45769W        W88760   1.617  23.207  22.428 -0.1029  0.0905 -0.1395
45770W        W88761   2.485  24.717  22.161  0.1369  0.0583  0.0265
45771W        W88762  17.832  33.701   6.997  0.0757 -0.2052  0.1888
45772W        W88763  16.676  25.941   2.964 -0.0288 -0.2409 -0.2164
45773W        W88764   5.105  29.726  28.373 -0.1565  0.2254 -0.2254
45774W        W88765  34.668  30.810  16.281 -0.0256 -0.2799 -0.1517
45775W        W88766  34.799  34.527  20.882  0.2298 -0.1133  0.1373
45776W        W88767  12.612   5.803  27.776  0.1350 -0.2174 -0.1951
45777W        W88768   0.068  31.410  14.085 -0.2795 -0.1735 -0.0828
45778W        W88769   1.094  33.116  26.996  0.1911 -0.0892  0.0277
45779W        W88770  13.875   1.155  21.385  0.3002 -0.0624 -0.0393
45780W        W88771  22.756   0.289  19.451 -0.2966 -0.0609 -0.0258
45781W        W88772  33.774  14.339   1.284 -0.1554  0.0259 -0.2480
45782W        W88773  33.356  15.378   5.819 -0.0992  0.1215  0.1641
45783W        W88774   7.691  31.030   3.659  0.2628  0.1740 -0.3742
45784W        W88775  29.652  32.101  18.354 -0.0427  0.0200 -0.3873
45785W        W88776  27.381  27.682  28.729 -0.0515  0.0172 -0.2118
45786W        W88777  24.709  24.124  18.852 -0.0565 -0.2256 -0.3192
45787W        W88778  31.314   7.906  25.665 -0.0924 -0.0279 -0.0850
45788W        W88779  13.103  29.386   2.829  0.1809 -0.2546 -0.0246
45789W        W88780  30.547  11.801  19.224  0.0904 -0.2428  0.0619
45790W        W88781   0.234  26.827  14.785  0.0981 -0.3509  0.0096
45791W        W88782  14.866  12.186   6.308  0.4025 -0.1225 -0.2276
45792W        W88783  28.311   4.197   1.593 -0.1277 -0.0890 -0.1897
45793W        W88784  29.139  31.539  18.972 -0.0383 -0.0337 -0.1548
45794W        W88785  31.815  19.026  24.283  0.0378  0.1025 -0.4559
45795W        W88786  13.839  32.572  29.103 -0.0627  0.1972 -0.1385
45796W        W88787  27.392  34.136  23.458 -0.3753  0.1076  0.1976
45797W        W88788   2.819  34.213  28.369  0.0356 -0.1366 -0.0008
45798W        W88789   4.788  33.109  24.287 -0.1009  0.0781 -0.2980
45799W        W88790   1.027   5.955  16.823 -0.1430  0.0993 -0.2270
45800W        W88791  24.376  22.225  27.046  0.1011 -0.1405 -0.0512
45801W        W88792  26.253  23.472  13.697  0.0567 -0.1808 -0.0763
45802W        W88793  31.402  29.182  15.967  0.3899 -0.1332 -0.1155
45803W        W88794   4.118  19.442   0.702 -0.0575 -0.1913  0.1024
45804W        W88795  27.164   5.048  20.222  0.1761  0.1436 -0.3027
45805W        W88796  32.497   6.257  24.412 -0.1953  0.0611 -0.1267
45806W        W88797   6.361  23.633  15.847 -0.2256 -0.2741 -0.3630
45807W        W88798  14.833  34.174  20.911  0.1795  0.1539 -0.0833
45808W        W88799  28.131   3.116  18.345 -0.0625 -0.1542 -0.1173
45809W        W88800  26.585  32.948  12.608  0.0293 -0.1701 -0.2750
45810W        W88801  26.384   8.974  14.935 -0.1570  0.1607  0.0194
45811W        W88802   5.933  33.264   0.941  0.1042 -0.3113  0.2463
45812W        W88803   2.467  16.241   5.310 -0.1464 -0.1074  0.1355
45813W        W88804  23.505   8.368  24.781 -0.3513  0.0224 -0.0052
45814W        W88805  34.256   6.162  16.424 -0.0348  0.0124 -0.1666
45815W        W88806   5.995  28.351  27.990  0.2781 -0.0937 -0.4974
45816W        W88807  21.695  32.187  17.832 -0.1607  0.0311  0.2537
45817W        W88808  30.615   2.477  23.085  0.3092 -0.1823  0.0035
45818W        W88809   3.493  24.603  16.910 -0.0486 -0.1605  0.2209
45819W        W88810   5.817  16.625  11.729  0.0771  0.2566 -0.2063
45820W        W88811  23.338  34.788  20.038  0.0605 -0.1491  0.0470
45821W        W88812  21.030  27.336   7.230 -0.0800 -0.3624 -0.1927
45822W        W88813   6.217  19.910   2.859  0.0346  0.0698 -0.0390
45823W        W88814  26.247  24.379  18.458 -0.2698 -0.1325  0.2824
45824W        W88815   4.790  30.027   5.503  0.1793  0.0825  0.1085
45825W        W88816   9.730  16.080  27.144 -0.1585  0.1326 -0.1100
45826W        W88817   0.336  12.630   2.709  0.0812  0.1295 -0.1345
45827W        W88818   5.360  28.392  16.724 -0.1895 -0.3158  0.0161
45828W        W88819   9.441  17.422   5.234 -0.1240 -0.0549  0.0943
45829W        W88820   6.418  27.048  18.010 -0.1024 -0.0139 -0.1820
45830W        W88821  14.655  22.560   8.463  0.3428  0.0196  0.0191
45831W        W88822  19.011  27.491   4.850 -0.0124  0.1322 -0.0897
45832W        W88823  18.218  34.380  19.119  0.2448  0.0818 -0.1109
45833W        W88824  29.951   7.419  15.615 -0.1968 -0.1442 -0.1009
45834W        W88825  17.313  34.498  19.955 -0.1699  0.3585 -0.2343
45835W        W88826   4.321  33.287  15.806  0.0891 -0.2954 -0.4568
45836W        W88827   8.239  30.777   1.265 -0.2155  0.2392 -0.1252
45837W        W88828  13.150   1.073  17.273 -0.0285  0.0637 -0.2079
45838W        W88829  11.895  33.513  23.316  0.1017 -0.0510  0.2659
45839W        W88830  30.656   4.327  22.912 -0.1677 -0.0570 -0.0786
45840W        W88831   8.712  28.983   7.213  0.0982  0.1658  0.1061
45841W        W88832   1.878  27.749  15.574 -0.4694  0.1205  0.0772
45842W        W88833  14.287   7.001   4.373 -0.0818  0.0247  0.2153
45843W        W88834  32.602   0.853  24.177 -0.2357  0.0783  0.1934
45844W        W88835  16.914  25.730  24.092 -0.0605 -0.0135 -0.3014
45845W        W88836  32.578  14.883  20.734 -0.1378 -0.0954  0.3541
45846W        W88837   8.787  27.076  17.028 -0.0459  0.2299  0.1767
45847W        W88838  30.091  17.569  16.330 -0.2425 -0.0817  0.1067
45848W        W88839  15.405   7.822  28.472  0.1596 -0.0484  0.1056
45849W        W88840  19.565  18.856  26.191  0.3436  0.0765  0.0446
45850W        W88841  30.448  10.752  25.595  0.0223  0.1246  0.0355
45851W        W88842  24.408   6.701  14.293  0.1986  0.2517 -0.0308
45852W        W88843  18.561  11.769  25.371  0.0569  0.0560 -0.0119
45853W        W88844  19.095  10.180  26.641  0.4301  0.1031 -0.1929
45854W        W88845  19.518   0.821  20.308 -0.4244  0.0534  0.1342
45855W        W88846  27.520   6.037   6.930 -0.0468  0.2133 -0.2524
45856W        W88847   0.501   1.845   0.286 -0.3202 -0.0998 -0.0482
45857W        W88848  31.537   5.257  16.626  0.2457 -0.0596  0.0673
45858W        W88849  26.629  23.746  28.425  0.0233 -0.0843 -0.0773
45859W        W88850   2.203  11.312  19.735  0.0137 -0.1277  0.0002
45860W        W88851  24.985  34.722  19.028  0.1184 -0.3137 -0.4903
45861W        W88852  22.396   2.208  27.504  0.2139  0.3112  0.0027
45862W        W88853   7.844   5.376  28.101 -0.0709 -0.1939  0.0846
45863W        W88854   2.583  11.058  17.521  0.1443  0.2165  0.1422
45864W        W88855   1.542   9.493  24.805 -0.0282 -0.2731  0.1152
45865W        W88856  30.963  29.840   3.046 -0.0362 -0.0435 -0.3041
45866W        W88857  26.326  26.894  28.839 -0.2303  0.2342 -0.0352
45867W        W88858  15.113   2.623  19.678  0.0544 -0.2413 -0.1636
45868W        W88859  33.458   2.954  19.567 -0.0347 -0.1675 -0.3261
45869W        W88860   1.862   6.030  22.762 -0.1155 -0.2233 -0.0044
45870W        W88861  28.926  25.470  13.349  0.0414 -0.1087 -0.2909
45871W        W88862   3.446  10.660   2.545 -0.1500  0.0187 -0.1102
45872W        W88863  29.374  27.424   4.891  0.3583 -0.0521 -0.3067
45873W        W88864  31.727  20.609   2.857  0.0304 -0.1561  0.1876
45874W        W88865  30.036   6.013   4.560  0.0018  0.0048  0.2701
45875W        W88866   5.640  13.781  15.170 -0.0240 -0.0646 -0.1500
45876W        W88867  17.126   9.990  16.706 -0.0022 -0.0376 -0.0278
45877W        W88868   1.719   7.803   6.053 -0.1518 -0.1304 -0.0378
45878W        W88869  32.342   1.640  28.721  0.0288 -0.2323 -0.3818
45879W        W88870  29.099  30.112   4.535  0.0069  0.0572 -0.0212
45880W        W88871  30.295  25.320   5.088 -0.0684 -0.2102  0.0471
45881W        W88872  30.261  17.471  19.898 -0.2284 -0.0588  0.0244
45882W        W88873  33.743  19.142  14.505 -0.3022  0.0896 -0.3628
45883W        W88874  10.511  23.783   3.038 -0.2346  0.1637 -0.2231
45884W        W88875  28.819  18.348   5.428 -0.1330  0.3514 -0.0422
45885W        W88876  23.162  23.348   5.323  0.1060 -0.0980  0.0883
45886W        W88877  25.240   2.421  24.003  0.2069  0.0141  0.2646
45887W        W88878  11.935   8.879  17.996 -0.2148  0.1208 -0.2726
45888W        W88879  28.612  28.953  26.855  0.2076 -0.1120 -0.0831
45889W        W88880   3.220  11.342  24.570 -0.0440 -0.1491  0.0648
45890W        W88881  27.732   2.224  18.036 -0.0431 -0.0193  0.0088
45891W        W88882   2.995   2.901  19.994 -0.2181 -0.1950  0.0830
45892W        W88883  27.396   3.043   2.937  0.1855 -0.3098 -0.3826
45893W        W88884  14.563  16.328  28.038  0.0354  0.1610  0.1320
45894W        W88885   0.741  34.613  18.430 -0.2275 -0.0307  0.3302
45895W        W88886   3.816   5.808  18.352 -0.1995  0.1394  0.0994
45896W        W88887   1.437  33.456  17.953  0.0652  0.0843 -0.1004
45897W        W88888  31.186   1.994  23.576 -0.2015 -0.0283  0.0232
45898W        W88889  31.225   3.677  21.024 -0.2806  0.0009  0.0820
45899W        W88890  23.922   6.586   3.209 -0.0980 -0.1997 -0.0504
45900W        W88891   5.233   3.059  27.391 -0.0049  0.0220 -0.5261
45901W        W88892   1.960  30.569  26.253 -0.1654 -0.1768  0.1330
45902W        W88893  28.379  26.884  28.126  0.1394  0.0358 -0.0509
45903W        W88894  29.926  19.498  24.501 -0.4159 -0.3502 -0.0196
45904W        W88895  30.727   3.696  14.953 -0.1666 -0.2255  0.0499
45905W        W88896  26.847  24.940  14.309  0.1900  0.0977 -0.0102
45906W        W88897  30.002  29.719  23.515 -0.6892  0.1225 -0.1074
45907W        W88898  23.380   4.399  27.983 -0.0716  0.0427 -0.2662
45908W        W88899  12.254  25.164  24.097 -0.1306 -0.1634  0.3251
45909W        W88900  31.578  10.657  16.060 -0.1407  0.0082  0.2922
45910W        W88901  21.305  23.778   2.926  0.1449 -0.0957  0.3935
45911W        W88902   0.572  10.825   0.395 -0.0167 -0.0652  0.0072
45912W        W88903  17.507   7.478  25.294 -0.2286  0.2441 -0.4782
45913W        W88904  31.134  16.685   1.105  0.2617 -0.1390  0.1362
45914W        W88905  20.965  28.442   3.420 -0.1781 -0.2450 -0.0187
45915W        W88906   5.543   1.354  19.937 -0.0778 -0.0506  0.0631
45916W        W88907  32.377  15.844  23.162 -0.1033  0.2949 -0.2520
45917W        W88908  27.996  10.611  25.340 -0.0708  0.2990 -0.1639
45918W        W88909  16.119   3.831  17.632  0.3070 -0.0338  0.2227
45919W        W88910   0.504   1.232   0.957  0.2780 -0.2811 -0.0161
45920W        W88911   8.618   0.407  17.214 -0.2229 -0.1921 -0.0231
45921W        W88912   8.884  23.570  26.719 -0.1351 -0.1118  0.1434
45922W        W88913  28.810   0.958   6.119  0.1880 -0.5597 -0.4530
45923W        W88914  28.110  30.487  17.533 -0.1711 -0.0951 -0.0117
45924W        W88915  17.652   6.571  22.421 -0.3120  0.1636 -0.2183
45925W        W88916  26.180  20.225  14.457 -0.0416  0.2656  0.0580
45926W        W88917  31.298   0.608  26.580 -0.2198 -0.0306  0.1792
45927W        W88918  30.291  21.613   1.252 -0.1160  0.1079 -0.4243
45928W        W88919  30.322  12.447  24.378 -0.0745  0.1370 -0.0823
45929W        W88920  24.985  22.986   0.952 -0.0044 -0.1934  0.1191
45930W        W88921   0.931  24.611  29.242 -0.1774  0.0477 -0.3870
45931W        W88922  29.631   8.574  19.031 -0.0703 -0.1739 -0.1634
45932W        W88923   0.211  32.866  28.735  0.0272  0.1737  0.1928
45933W        W88924  31.905  30.486  14.724 -0.0830 -0.0606 -0.2387
45934W        W88925  19.630  12.504  14.019 -0.3046 -0.0252  0.1699
45935W        W88926  14.874  15.214   2.616 -0.2622 -0.0902 -0.1219
45936W        W88927   3.765   4.156   3.721  0.0652 -0.1678 -0.2741
45937W        W88928  31.069  18.384  19.372  0.0686  0.0961 -0.0036
45938W        W88929  32.081   6.666  23.075  0.1531 -0.0575 -0.1799
45939W        W88930  22.833  33.087   5.941  0.3804 -0.3704 -0.2008
45940W        W88931  13.653  32.992   3.902  0.0919  0.1578 -0.3505
45941W        W88932   8.767  24.322  17.408 -0.0900 -0.1867  0.0467
45942W        W88933   5.861   0.405   4.646  0.2291 -0.2426  0.1638
45943W        W88934   5.417  23.890  23.487 -0.0611  0.1023  0.0362
45944W        W88935  18.703   6.485   6.508 -0.0068  0.2723  0.1301
45945W        W88936  19.240  30.245  27.509  0.1156  0.3957 -0.0976
45946W        W88937  22.027  10.994   6.277  0.4950 -0.0726  0.1533
45947W        W88938   3.897   5.453   1.299 -0.3014 -0.2923 -0.0020
45948W        W88939  20.871  23.627   0.398 -0.0906  0.1518  0.1368
45949W        W88940  27.056   9.106  25.726  0.3605 -0.0328  0.0380
45950W        W88941   0.117   5.358  14.339 -0.0326 -0.0848  0.2401
45951W        W88942  28.993  34.391   1.752 -0.0253  0.1721 -0.1305
45952W        W88943  18.741  26.277   3.433  0.3388 -0.0696 -0.1586
45953W        W88944  31.960  31.770  16.588 -0.0642 -0.2118  0.1748
45954W        W88945  26.353  21.132  19.784  0.2696  0.0234 -0.1754
45955W        W88946  22.902  14.200  16.036 -0.2760 -0.2433 -0.1284
45956W        W88947   4.584   6.619  21.989 -0.0986  0.0578 -0.2401
45957W        W88948  17.632   3.959  28.308 -0.3173  0.2272  0.1628
45958W        W88949  34.417  19.310   0.817 -0.1478 -0.3027 -0.0391
45959W        W88950  29.444  23.846   8.022  0.0665  0.1343 -0.1151
45960W        W88951   4.488  21.969   7.453  0.2942  0.3190  0.0813
45961W        W88952  25.660  24.128  13.687 -0.0771 -0.1398  0.1170
45962W        W88953  31.368  27.278  17.678 -0.0424 -0.2078  0.1861
45963W        W88954   5.653  33.194  17.953 -0.2604  0.1375 -0.2028
45964W        W88955   4.849   1.228  17.415  0.1395  0.3150  0.4038
45965W        W88956  33.863  31.142  13.230 -0.0485 -0.0323 -0.0856
45966W        W88957   1.048   1.054  21.496  0.0832 -0.3915  0.0921
45967W        W88958  22.475  25.692   7.452 -0.1966  0.1377  0.0037
45968W        W88959  30.633   2.918  26.129  0.0406  0.0353  0.3375
45969W        W88960  16.123   7.985   1.588 -0.0103 -0.3334 -0.2219
45970W        W88961   0.477  30.173  16.741  0.0405  0.1156  0.4869
45971W        W88962  11.896  12.510  17.335  0.2328  0.1124  0.1256
45972W        W88963   1.367   7.199  14.771 -0.0170  0.1873  0.0689
45973W        W88964  28.044  12.909  19.396 -0.1328  0.1283 -0.1284
45974W        W88965  33.486  23.006  23.344 -0.1248  0.1896  0.1844
45975W        W88966   6.204  22.205   1.523  0.0113  0.0231 -0.0407
45976W        W88967  11.252   4.385  18.798  0.0844  0.1064 -0.1090
45977W        W88968   5.957  26.304   9.134 -0.3302 -0.0967  0.0102
45978W        W88969   7.708  10.824   7.683 -0.1886  0.3542  0.3220
45979W        W88970  32.032   1.891  18.390 -0.1428  0.1439 -0.0458
45980W        W88971  33.605  18.202   7.788  0.2927  0.0707  0.1750
45981W        W88972   6.450   1.966  15.711 -0.0347 -0.2151 -0.1728
45982W        W88973  13.063  25.516   1.158  0.0708  0.2123 -0.2749
45983W        W88974  22.594  32.513   5.362  0.2760 -0.1811  0.0539
45984W        W88975  28.693  10.644   1.580 -0.1388  0.3549  0.0277
45985W        W88976  20.440  30.684   2.981 -0.2609 -0.0528 -0.2298
45986W        W88977  15.908   1.683  14.677 -0.0684  0.0172 -0.3868
45987W        W88978  22.503  34.366  16.407 -0.2051 -0.4491  0.0503
45988W        W88979   0.161  32.151  16.819 -0.0586  0.0312  0.0193
45989W        W88980  20.299   6.886   1.458  0.1112  0.0173  0.3069
45990W        W88981  26.847   0.259  25.666  0.2999  0.0900  0.2748
45991W        W88982  33.194  12.421   8.315  0.1588  0.1291 -0.6210
45992W        W88983  11.994  31.862   3.857  0.1518  0.0563 -0.3205
45993W        W88984  23.414   0.215  14.951  0.0843 -0.0008 -0.1640
45994W        W88985   1.556  26.894  18.445  0.0805  0.2483 -0.3205
45995W        W88986  23.912  25.120  21.609  0.1264  0.0489  0.2553
45996W        W88987  12.302   2.190  27.109  0.1173 -0.1557  0.0466
45997W        W88988  30.644  29.560  23.267  0.1949  0.1488 -0.1319
45998W        W88989   8.424  28.830  27.412 -0.2960  0.0186 -0.0652
45999W        W88990  22.010  32.275   0.241 -0.0800  0.1121  0.0326
46000W        W88991  31.056   1.853   2.087  0.0195 -0.3539 -0.1311
46001W        W88992  31.144  20.720   1.134  0.2416 -0.2163  0.0572
46002W        W88993  30.963   6.687   0.733  0.1193  0.1232  0.0613
46003W        W88994  20.282  33.671  18.672 -0.1525 -0.0024  0.0399
46004W        W88995  24.810  32.145   0.565  0.0618 -0.3076 -0.0742
46005W        W88996  23.002   0.279   2.904 -0.0043  0.0699 -0.1370
46006W        W88997   2.616  32.758  10.269 -0.3152  0.0545  0.0983
46007W        W88998   6.493  29.404  17.867  0.2596  0.1506  0.0823
46008W        W88999   3.235   3.977   5.206  0.2467 -0.1753 -0.0314
46009W        W89000   9.410   2.114  22.487 -0.0245 -0.0246  0.0790
46010W        W89001  31.065  31.077   6.320  0.0360  0.0835  0.1446
46011W        W89002  17.997  29.051  27.361 -0.1983  0.0875  0.2804
46012W        W89003  26.946   3.649  25.853  0.0110  0.1561  0.1791
46013W        W89004  32.234   1.991  21.804 -0.0592  0.1254 -0.0475
46014W        W89005   1.989  34.178  27.072  0.0129 -0.0355 -0.1340
46015W        W89006  34.265  17.566   3.695 -0.1043 -0.0941 -0.1306
46016W        W89007  15.905  16.676   0.074 -0.0757 -0.2738 -0.0381
46017W        W89008  30.061  27.739   5.229 -0.3703 -0.0587  0.0543
46018W        W89009   5.522  22.650   4.618 -0.0301 -0.0549 -0.2154
46019W        W89010  28.280  10.353   6.969 -0.2082  0.0364  0.0332
46020W        W89011  23.447  29.155  22.662  0.2045  0.0962  0.3845
46021W        W89012  15.558  31.734  22.543 -0.2298 -0.4006  0.2423
46022W        W89013  26.128   1.728  13.288 -0.0922  0.0147  0.0284
46023W        W89014   5.580   0.742   3.325 -0.3350  0.1509  0.3074
46024W        W89015  30.869   7.408   1.477  0.3426 -0.0988  0.1505
46025W        W89016  27.361  27.507  19.763 -0.2455  0.2462 -0.0707
46026W        W89017  28.221   7.093   1.106  0.0569  0.0136  0.1526
46027W        W89018  29.750   3.309  14.210  0.1662 -0.3255 -0.0054
46028W        W89019   6.457  28.906  20.576  0.2979  0.0172 -0.1454
46029W        W89020  22.675   3.795   2.450 -0.0332  0.0464  0.1595
46030W        W89021  31.925   9.488  25.061  0.3653 -0.1099 -0.2405
46031W        W89022  26.842  19.923   5.687  0.1634  0.0474  0.1473
46032W        W89023   5.101   1.450   5.920 -0.0349 -0.2907  0.5716
46033W        W89024   0.181  15.708  17.597 -0.0468  0.2551 -0.1220
46034W        W89025   6.317   9.562   8.258 -0.0596  0.2707 -0.1043
46035W        W89026  23.057   8.481  26.048  0.1355 -0.1160  0.3144
46036W        W89027  14.456  11.542  22.240  0.1959 -0.3151 -0.0280
46037W        W89028  33.783   6.051   9.283 -0.0382  0.0630 -0.0443
46038W        W89029  34.322  16.487  19.918  0.5140  0.0457  0.2720
46039W        W89030  20.491  25.124   3.923 -0.3303  0.1073 -0.1401
46040W        W89031  28.090  14.276   5.555 -0.0117  0.1133 -0.2388
46041W        W89032  25.040  32.438  15.877 -0.0417  0.1663  0.1141
46042W        W89033  30.913  28.170  25.185 -0.4063 -0.2501  0.0497
46043W        W89034  30.409   1.680   9.036  0.1159 -0.3215 -0.2061
46044W        W89035   0.631  32.859  20.546 -0.2246 -0.0329  0.1332
46045W        W89036   3.175   8.599   0.621 -0.2694  0.1442  0.2781
46046W        W89037   0.719   2.328  22.575  0.0596 -0.3256  0.0604
46047W        W89038  33.883  28.422   4.975 -0.0082 -0.0581 -0.3135
46048W        W89039   9.034  31.438   4.255 -0.2846 -0.2905  0.3672
46049W        W89040  34.352  15.699   4.899  0.0293 -0.0206  0.1114
46050W        W89041  31.586  29.297   3.438  0.2351 -0.1183  0.0432
46051W        W89042  34.776  22.822   9.450  0.0155  0.0110  0.2661
46052W        W89043  31.769  27.598  14.479  0.2474  0.0284  0.0558
46053W        W89044   9.996  34.741   5.669  0.4339  0.1450  0.0297
46054W        W89045  27.612  23.988  15.660 -0.4382 -0.3465 -0.0748
46055W        W89046  33.765  31.420  24.421  0.1819  0.3173 -0.1666
46056W        W89047  34.179  25.872  18.244 -0.3914  0.1360  0.3028
46057W        W89048  33.768   5.117   7.585  0.3327  0.0740 -0.1093
46058W        W89049  26.078  32.405  26.318  0.0135  0.1776 -0.1440
46059W        W89050  14.219  13.306  22.625 -0.3478  0.0114  0.0195
46060W        W89051  19.478  16.778  22.995 -0.2303 -0.2100  0.2808
46061W        W89052  33.736   6.307  24.215  0.2254 -0.0312  0.0450
46062W        W89053  17.643  16.493  12.875  0.3261  0.0714  0.1365
46063W        W89054  28.702   1.354  25.383 -0.0119  0.0949 -0.0627
46064W        W89055  15.516  28.162  26.173  0.1360 -0.1142 -0.1899
46065W        W89056  12.392  31.225  26.166 -0.0842  0.1113  0.1473
46066W        W89057  25.310  24.760   5.551  0.0353  0.3992  0.0551
46067W        W89058   1.322  27.275  14.483 -0.1393 -0.2533 -0.2398
46068W        W89059   7.289   2.989  21.407  0.0283  0.2042  0.2202
46069W        W89060  19.321  18.248   1.571  0.1645 -0.2538 -0.0578
46070W        W89061  28.418  11.797   1.081  0.0243  0.1065  0.2908
46071W        W89062   2.988   0.270   3.009  0.2767  0.0510 -0.0467
46072W        W89063   2.336  10.868  19.480 -0.1636  0.1707  0.0381
46073W        W89064   3.282   5.377  15.624  0.3453 -0.1902  0.0616
46074W        W89065  34.162  33.642  27.882  0.0439 -0.1238  0.0099
46075W        W89066   0.306  32.444  15.820 -0.1372  0.1813 -0.0812
46076W        W89067   4.192  19.674  17.975  0.1077 -0.0112 -0.2378
46077W        W89068  28.043   5.929  27.443 -0.2744  0.0164  0.1043
46078W        W89069   7.098  15.053  22.962 -0.1611 -0.1602 -0.2133
46079W        W89070  26.390   9.788  22.622 -0.2629 -0.1620  0.2299
46080W        W89071  31.359   4.140  28.459 -0.1017 -0.2255 -0.1074
46081W        W89072  19.723  30.934  15.629 -0.2516 -0.0630 -0.2977
46082W        W89073   0.477   8.458  26.331  0.0665  0.2347  0.1942
46083W        W89074  23.570  29.538  23.118  0.2573 -0.2195  0.1888
46084W        W89075  20.533  31.256  21.839 -0.0303 -0.0782  0.4895
46085W        W89076  25.445   6.288  25.276 -0.1979  0.0324  0.2202
46086W        W89077  26.420  18.925   9.202  0.0521 -0.1014  0.2217
46087W        W89078  30.739  31.932   3.201 -0.1815 -0.0030  0.0675
46088W        W89079   0.339  23.965   1.019  0.1821 -0.0618 -0.2629
46089W        W89080  28.295   2.737  26.639 -0.0043  0.1590  0.5029
46090W        W89081   7.168   3.231  23.502 -0.2554  0.2806  0.0882
46091W        W89082  29.175  21.503  20.844  0.1396  0.0388  0.0453
46092W        W89083  21.390  23.981   7.466 -0.0618  0.0856 -0.1846
46093W        W89084   4.895   5.977   0.616 -0.2789  0.1271 -0.1413
46094W        W89085   2.853  27.502  20.321 -0.2337 -0.1054  0.3437
46095W        W89086  24.503  24.517  27.904  0.1152 -0.0708 -0.1211
46096W        W89087  23.162  20.900  22.129  0.1960  0.0377 -0.1812
46097W        W89088  33.961  12.123  28.195  0.1065 -0.2470 -0.1248
46098W        W89089  18.557  29.869  24.938 -0.0052  0.3378  0.0075
46099W        W89090  32.265  24.339   5.163  0.1775  0.0428 -0.0638
46100W        W89091  22.404   2.330   8.630  0.2866 -0.2643  0.0355
46101W        W89092  32.356   9.674   6.033  0.1815  0.3339  0.2276
46102W        W89093  34.477   8.791  23.766  0.0682 -0.0633 -0.2876
46103W        W89094  10.241  12.188   3.502  0.3044 -0.0148 -0.0652
46104W        W89095  20.132  31.316  17.225  0.2152  0.3375 -0.0188
46105W        W89096  11.322   2.057  25.849  0.2133 -0.2488  0.0014
46106W        W89097   6.237  20.534  25.338  0.1114 -0.2224 -0.3414
46107W        W89098  30.690  27.214   7.087  0.1193  0.1325  0.2783
46108W        W89099   4.609   4.245   4.312 -0.1300  0.1532  0.1830
46109W        W89100  25.043  20.470  19.440 -0.1199 -0.1292 -0.0911
46110W        W89101  24.368  25.501  19.917  0.0109 -0.0932  0.3219
46111W        W89102   5.316  24.804  20.153 -0.0726  0.0342 -0.0078
46112W        W89103  11.055  25.665   1.362  0.1143 -0.0023 -0.0391
46113W        W89104  31.030  30.394   8.535 -0.2429 -0.0094 -0.0308
46114W        W89105   2.757  11.818   6.761 -0.0203  0.3884  0.1949
46115W        W89106  10.274  27.610  15.292  0.0115  0.3088 -0.0514
46116W        W89107   0.292  34.626  17.808 -0.1037 -0.0261  0.1099
46117W        W89108  24.524  28.183  29.252 -0.3032  0.0896  0.1088
46118W        W89109  28.765  31.508  14.346  0.2528 -0.0849 -0.0918
46119W        W89110  32.345   2.257  24.303 -0.2672 -0.1374 -0.1568
46120W        W89111  31.723  34.730  21.393  0.1794  0.1227 -0.1155
46121W        W89112  29.771   6.156   8.496  0.1190 -0.0905  0.4077
46122W        W89113  29.725  11.870  25.002 -0.1363 -0.1431  0.0289
46123W        W89114  33.641   3.522   3.441 -0.1003  0.0336 -0.3757
46124W        W89115  31.295   5.766   2.941 -0.1063  0.1606  0.1177
46125W        W89116  30.152  33.585  23.688  0.0628 -0.2753  0.1568
46126W        W89117  24.710  31.784  28.844 -0.0293 -0.3853 -0.2131
46127W        W89118  34.775  10.776   0.336 -0.0198 -0.2117 -0.1354
46128W        W89119   1.765   4.713  23.439 -0.1157  0.2606 -0.0738
46129W        W89120  22.044  25.616   2.114  0.0663  0.2809  0.2291
46130W        W89121  30.468  23.819  15.142  0.2727 -0.2534  0.0784
46131W        W89122  11.725  27.439  14.488  0.1095 -0.1396 -0.0068
46132W        W89123  15.336   0.404  16.175  0.0036  0.1457  0.0225
46133W        W89124  31.131  13.211   1.354  0.0209 -0.3608 -0.1147
46134W        W89125  30.567  29.660  18.570 -0.1120  0.3530 -0.0094
46135W        W89126  28.786   4.276  21.785  0.0910  0.0635  0.5124
46136W        W89127  34.256  28.679   4.862 -0.0897  0.0914 -0.1906
46137W        W89128  30.527  29.477  17.313 -0.1583  0.1034 -0.2134
46138W        W89129  11.203  11.337   1.628  0.0679 -0.2202  0.2597
46139W        W89130  27.511   1.447  24.383  0.1019 -0.0563 -0.2042
46140W        W89131  33.605   8.017  15.114 -0.0548 -0.1257 -0.0242
46141W        W89132  15.024   5.995  18.668  0.0460 -0.0477 -0.0173
46142W        W89133   1.374  34.363  24.767  0.3483  0.1456  0.2238
46143W        W89134  23.130  26.797  15.019  0.1467  0.5152  0.0328
46144W        W89135  10.430  32.615  21.059  0.2341 -0.0213 -0.1699
46145W        W89136   2.497  12.362  21.416 -0.2007  0.2081  0.1171
46146W        W89137   5.859   4.578  16.656  0.1756  0.0679 -0.2619
46147W        W89138  26.261   7.848  20.222  0.2211  0.0117  0.0249
46148W        W89139  33.159  33.924  20.108  0.0239 -0.1713  0.2074
46149W        W89140  21.912   9.629  20.250 -0.1950 -0.2902 -0.2005
46150W        W89141   6.899   7.129  22.169  0.3188 -0.2059  0.0415
46151W        W89142  24.917  27.171   2.776 -0.1581 -0.1031  0.3044
46152W        W89143   2.171  15.674  15.798  0.2877 -0.0711  0.3473
46153W        W89144  28.911  13.734  23.326  0.4653  0.2641  0.0651
46154W        W89145   5.897  11.150  21.210 -0.0603 -0.1249 -0.0642
46155W        W89146   2.507   6.250  15.526  0.0784 -0.0675 -0.4436
46156W        W89147   0.028  33.713  24.129 -0.2652 -0.2615  0.3933
46157W        W89148   5.143  27.551  24.456 -0.1345 -0.1493  0.0980
46158W        W89149  20.132  30.110   0.057 -0.1731  0.1119 -0.4000
46159W        W89150   8.007   3.518  25.083  0.3518  0.1483  0.0347
46160W        W89151  30.445  23.604  19.754 -0.2084  0.0119  0.1975
46161W        W89152   2.067   0.317  16.543 -0.1085  0.3630  0.1490
46162W        W89153  33.594  27.091  18.139 -0.0997 -0.2639  0.1211
46163W        W89154  17.308   6.190  21.017 -0.3212 -0.0849 -0.3938
46164W        W89155   7.129  33.398  21.504 -0.0792 -0.4566 -0.0708
46165W        W89156  27.961  30.060  17.826  0.0930  0.0451  0.0039
46166W        W89157  34.010   4.246  25.939 -0.1361  0.3282  0.0075
46167W        W89158  19.055   0.903  29.239 -0.1377 -0.2828  0.2545
46168W        W89159   7.722   8.851  27.219  0.2237 -0.1509 -0.2977
46169W        W89160   5.656  12.023  17.332 -0.1666 -0.0344 -0.1493
46170W        W89161   1.834   6.261  27.036 -0.1164 -0.0003 -0.3402
46171W        W89162  13.193  28.509  20.816  0.0211 -0.2135  0.2535
46172W        W89163  33.744  14.454  23.493 -0.0020  0.0707  0.0925
46173W        W89164  12.716  30.618  23.926  0.0575 -0.0145  0.1901
46174W        W89165   8.484   5.339  18.764 -0.1372  0.0250  0.2627
46175W        W89166   0.150   2.823  24.384  0.2013 -0.0472  0.0213
46176W        W89167   8.371  14.428  16.608  0.1390 -0.2003 -0.0632
46177W        W89168   2.423  34.084  28.809 -0.0264  0.3237 -0.2539
46178W        W89169   5.912   2.147  26.038  0.0442 -0.3514  0.1670
46179W        W89170  11.801   5.870   0.770 -0.0011  0.1432  0.1000
46180W        W89171   4.366  33.109  14.276 -0.1764  0.1922 -0.0235
46181W        W89172  31.016  29.451  16.391 -0.1295  0.0301 -0.1004
46182W        W89173  21.069   4.887  17.914  0.0596  0.2314  0.3200
46183W        W89174  13.288  32.249  23.619 -0.0506  0.4034 -0.3328
46184W        W89175  19.943  33.871  27.268  0.3084 -0.0645 -0.4830
46185W        W89176   8.427  28.954  21.089  0.0505 -0.0815 -0.2448
46186W        W89177   5.766   6.982  18.664 -0.2014 -0.0885  0.0646
46187W        W89178  29.904   3.062  13.759 -0.0836 -0.0833  0.0313
46188W        W89179  21.691   0.422  18.450  0.1238  0.0640  0.2277
46189W        W89180  22.754   4.940  24.850  0.0643 -0.0001  0.0951
46190W        W89181  31.548   0.035  18.596  0.0328 -0.2216  0.1690
46191W        W89182   5.512   6.042   1.367 -0.3432  0.0766 -0.0368
46192W        W89183   9.834   2.446  16.659  0.0681 -0.0302  0.1740
46193W        W89184   6.447  19.962  23.239 -0.1100 -0.0353 -0.0008
46194W        W89185   2.385  32.972  21.690  0.1037 -0.1962  0.0138
46195W        W89186   9.627  12.728  19.266 -0.1739  0.2455 -0.0492
46196W        W89187  16.400  13.033  15.047  0.2020 -0.0252  0.0185
46197W        W89188  17.927   0.467  18.699 -0.1540 -0.3915  0.0608
46198W        W89189  26.090   0.239  17.093  0.1768 -0.1152  0.2870
46199W        W89190  12.709  17.418  21.552  0.2400 -0.4125 -0.2223
46200W        W89191  26.256  27.295  17.513 -0.2338  0.2801  0.3241
46201W        W89192   3.096   6.426  18.985  0.0887  0.4778  0.0611
46202W        W89193   0.892   3.550  16.204 -0.2212 -0.0362 -0.0785
46203W        W89194  10.331   1.853  16.358  0.1643  0.1724  0.1039
46204W        W89195  28.752  11.433  25.715  0.0449 -0.1308  0.3175
46205W        W89196  30.398  19.010  17.840 -0.1013 -0.0303 -0.1477
46206W        W89197  33.352   0.404  18.357  0.1642 -0.1753 -0.0838
46207W        W89198  18.781  34.799  28.263  0.0767  0.2332  0.1501
46208W        W89199  31.444  33.819  22.416  0.2393 -0.1792 -0.0009
46209W        W89200   7.454  10.575   3.352 -0.0752  0.1132 -0.0390
46210W        W89201  15.153  33.807  25.184 -0.0996 -0.0365 -0.2280
46211W        W89202  24.568   9.199  14.750  0.0447  0.0593  0.0474
46212W        W89203   8.841   7.858  20.892 -0.0101  0.0892  0.0918
46213W        W89204  33.240   3.634  18.142 -0.0007  0.3159  0.0791
46214W        W89205  33.352   3.679   0.713 -0.2406 -0.1022 -0.0794
46215W        W89206  32.932   0.101  18.340 -0.1986  0.2202 -0.1371
46216W        W89207  15.296   4.809  20.156 -0.0010 -0.1082  0.0780
46217W        W89208  29.667   1.654  23.182  0.1561  0.1432 -0.1324
46218W        W89209  11.013  33.810   2.075 -0.0125 -0.1657 -0.1485
46219W        W89210   9.713   1.751  26.180 -0.0059  0.1382 -0.2511
46220W        W89211  27.911  34.140  14.523  0.1274 -0.1329 -0.0418
46221W        W89212  32.383   7.719  14.820 -0.0938 -0.2152 -0.0465
46222W        W89213  31.547  33.990  21.124 -0.0824  0.1728 -0.0859
46223W        W89214  11.306  28.177   0.490 -0.1028  0.0264  0.1307
46224W        W89215  33.512   6.970  20.832  0.2064  0.0854  0.0236
46225W        W89216  27.427  32.020  14.113 -0.2511 -0.2076  0.2566
46226W        W89217  16.786   4.004  17.831  0.2048  0.0521  0.0908
46227W        W89218   2.797  31.043  18.519 -0.0159  0.2122  0.0609
46228W        W89219  31.666   5.587   1.549 -0.0274  0.0789 -0.0982
46229W        W89220  25.325   6.748   0.143  0.0739  0.0808  0.2042
46230W        W89221  29.258  17.148  24.536  0.2005  0.0785  0.2608
46231W        W89222  13.501   7.351  24.327 -0.0940 -0.3302  0.0067
46232W        W89223  31.302   5.561  17.564  0.1289  0.4766  0.0671
46233W        W89224  23.819   7.810  23.935  0.0327  0.0187  0.2765
46234W        W89225   9.507  28.724  18.472 -0.0281 -0.2601  0.0317
46235W        W89226   5.028   5.531  23.768  0.3118  0.1832  0.3719
46236W        W89227  29.791   7.390  29.236  0.0830 -0.0715  0.0522
46237W        W89228   6.850  26.587  14.371 -0.1242  0.5384 -0.1235
46238W        W89229  26.056  22.726   4.489  0.5652  0.2838  0.0870
46239W        W89230  26.589   1.773   3.277 -0.1590  0.1163 -0.0362
46240W        W89231   8.673   8.538   0.531 -0.0128  0.0500  0.0669
46241W        W89232  31.777  18.964   0.629  0.2583 -0.1664  0.1175
46242W        W89233  27.632  32.559  20.766  0.4114  0.0671 -0.6724
46243W        W89234   7.188   5.622  22.278 -0.5422 -0.2025  0.0202
46244W        W89235  24.950  31.510   4.176 -0.1075 -0.3192 -0.0406
46245W        W89236  33.526   8.787   1.769 -0.1849  0.0964 -0.3204
46246W        W89237   4.146  11.842  17.757 -0.0575 -0.0582  0.0643
46247W        W89238  30.593  32.526  17.808 -0.1685  0.0278 -0.5208
46248W        W89239   4.415  23.828  18.236  0.0728 -0.1974  0.3304
46249W        W89240  27.785  26.135  23.242 -0.0473  0.0909 -0.0124
46250W        W89241   7.681  10.726  21.087 -0.2044 -0.1392  0.1869
46251W        W89242  26.885  11.766  23.242 -0.1428 -0.0201 -0.0689
46252W        W89243  21.554  33.743  13.651 -0.2616  0.0690  0.2337
46253W        W89244  29.392  34.789  14.433 -0.2905  0.0081 -0.2271
46254W        W89245  28.426   4.570  14.111 -0.0868  0.1121 -0.1400
46255W        W89246  25.427  34.213  22.081  0.1214  0.2354 -0.0605
46256W        W89247  19.454   2.513  19.168  0.2005  0.1081 -0.3017
46257W        W89248  15.406   7.657  20.000 -0.2397  0.0082  0.0750
46258W        W89249  32.426  10.748  23.998  0.1412  0.0268  0.0611
46259W        W89250   9.855  33.945  18.279 -0.5224 -0.1453 -0.1147
46260W        W89251  11.992   7.982  16.905 -0.2287 -0.0473 -0.1060
46261W        W89252  11.040   7.802  16.407 -0.0935  0.2337  0.1229
46262W        W89253   5.573  18.969  20.369  0.1213 -0.0256  0.2157
46263W        W89254   4.629   3.549  25.843  0.0416  0.1136 -0.1817
46264W        W89255   6.004  30.732  24.011  0.4108 -0.1032  0.1204
46265W        W89256  29.926   3.301  22.345 -0.0741  0.1034  0.1256
46266W        W89257   7.073   5.597  21.107  0.2676  0.1411 -0.5387
46267W        W89258  26.672  31.021  16.217  0.5061  0.4428 -0.0183
46268W        W89259  20.419  19.277   0.110  0.1873  0.0939  0.0362
46269W        W89260  34.498  27.532  18.378  0.4270 -0.0482 -0.0634
46270W        W89261   5.266   5.829  17.298 -0.1825  0.3267  0.0772
46271W        W89262   7.280   8.737  16.562  0.0869  0.0646 -0.2216
46272W        W89263  27.547  28.775  20.995  0.3505 -0.0312  0.1359
46273W        W89264  29.612  34.095  18.066  0.0404 -0.0941  0.3476
46274W        W89265  11.338   7.290  19.096 -0.0957  0.1015 -0.0338
46275W        W89266  26.715   2.696  14.503  0.1712 -0.4137  0.0276
46276W        W89267  30.266  31.092  20.785 -0.0014  0.1876  0.2791
46277W        W89268  30.734   0.989  15.877 -0.1595  0.0064 -0.0353
46278W        W89269  34.061  23.204  25.938 -0.1359 -0.1495 -0.0676
46279W        W89270  12.314   7.609  16.357  0.0990  0.0651  0.1257
46280W        W89271  30.213  34.518   4.573 -0.0538 -0.0013  0.0577
46281W        W89272  32.067   9.318  18.969 -0.0128 -0.1513 -0.1673
46282W        W89273  34.418  29.406  22.063  0.2696 -0.3835 -0.1490
46283W        W89274  29.644   9.233  14.417 -0.1882  0.0707 -0.2109
46284W        W89275   5.276  10.649  15.663  0.0525 -0.0307  0.1612
46285W        W89276  31.642   3.525  22.705 -0.0198 -0.1018 -0.2396
46286W        W89277  26.338   5.168  13.977  0.2860 -0.0427 -0.2877
46287W        W89278  28.594  23.843  14.741  0.2583 -0.1510  0.2713
46288W        W89279  31.457   6.916  15.653 -0.0909  0.0744  0.2058
46289W        W89280  32.659   4.187  26.254  0.2062 -0.2119  0.0729
46290W        W89281  25.941   3.564  18.492  0.1934  0.2086 -0.1699
46291W        W89282  29.559  34.649  15.270  0.1883  0.2224 -0.1236
46292W        W89283   2.171   0.451   3.439  0.0986 -0.2104 -0.3031
46293W        W89284  24.206  15.403  14.875  0.0702  0.3372  0.1817
46294W        W89285  25.497  32.835  19.974  0.0404 -0.0209 -0.1432
46295W        W89286  15.702  33.478  23.553 -0.0731  0.1889  0.1531
46296W        W89287  29.745   3.567  25.956  0.0361 -0.1289  0.1338
46297W        W89288  31.928   0.693   3.901 -0.1049  0.2597  0.1013
46298W        W89289   5.205  33.818  18.686  0.2344  0.1594 -0.0208
46299W        W89290   1.310  28.615  20.258 -0.2526  0.3293 -0.0254
46300W        W89291  31.837   9.997   1.909 -0.2415  0.1410 -0.2132
46301W        W89292   1.954   4.059  24.960 -0.0466 -0.0061 -0.2655
46302W        W89293  30.998  11.583  19.042  0.1587 -0.0158 -0.3529
46303W        W89294  30.409  32.741  14.184 -0.0334 -0.1541  0.2554
46304W        W89295  25.524   2.749  21.275 -0.2586 -0.1818  0.1218
46305W        W89296   7.536   8.653  19.785  0.0561 -0.0290  0.0302
46306W        W89297  29.438  25.655  17.625 -0.1648 -0.2043  0.1042
46307W        W89298  23.534  23.443  28.906 -0.0102  0.1433 -0.1501
46308W        W89299   1.784   9.258  16.790  0.0372  0.0908 -0.0601
46309W        W89300   1.890  12.216  17.071 -0.1317 -0.0683 -0.2654
46310W        W89301   2.105   7.991  19.696 -0.2342 -0.1267  0.2590
46311W        W89302  34.285  13.269  22.851  0.0094 -0.0542  0.1819
46312W        W89303  20.632   1.414  22.736 -0.3266  0.2762 -0.1129
46313W        W89304   1.008  32.635   0.178  0.0126  0.0945 -0.0142
46314W        W89305   1.054   6.874  17.038 -0.0321 -0.0014 -0.0204
46315W        W89306   6.174  29.523  17.078 -0.2512 -0.0762  0.0623
46316W        W89307  17.729   0.260  17.273 -0.3273  0.1350  0.1704
46317W        W89308  28.520   8.156  27.884 -0.1280  0.0020  0.2635
46318W        W89309  27.812  10.569  14.834 -0.1157 -0.0061  0.0430
46319W        W89310   9.168   4.135   8.436 -0.0544 -0.1132 -0.2319
46320W        W89311  27.581   2.244  23.023 -0.0315  0.2241 -0.1324
46321W        W89312  10.509   3.506  22.094 -0.0179 -0.1088  0.3339
46322W        W89313   2.944  20.319  18.798  0.0791  0.0190  0.1127
46323W        W89314   5.714   9.232  20.433  0.5437  0.0467 -0.3033
46324W        W89315  28.491   2.557  28.018  0.1560 -0.1043 -0.1975
46325W        W89316   2.173   3.362  19.769 -0.1313 -0.1010  0.0581
46326W        W89317  32.547  32.897  19.758 -0.2262 -0.0910 -0.0216
46327W        W89318   7.329  34.517  17.331  0.0451 -0.0221  0.3167
46328W        W89319  19.476  27.027  21.895  0.0286 -0.1147 -0.1528
46329W        W89320  26.781  13.305  24.023 -0.0079  0.1294 -0.0055
46330W        W89321  28.295   8.847  16.049 -0.1026 -0.1801  0.0085
46331W        W89322  30.460  12.668  26.042 -0.0182  0.0952  0.0346
46332W        W89323   5.404  30.575  19.829 -0.0395 -0.0314  0.1988
46333W        W89324  27.436  28.843  17.517 -0.1204  0.0725  0.2721
46334W        W89325   0.069  32.697  24.869 -0.2759 -0.0396  0.2872
46335W        W89326  25.441  29.877  26.375  0.2098  0.0431  0.1292
46336W        W89327  14.309  31.424  21.015 -0.0077 -0.0027  0.0177
46337W        W89328  11.243   0.309  22.549  0.2570 -0.1787 -0.1156
46338W        W89329  22.329  32.057  18.639  0.1317  0.0194 -0.2666
46339W        W89330   7.114   8.437  17.074  0.1292  0.1776 -0.2996
46340W        W89331   8.594  10.482  17.309 -0.3001  0.0482 -0.1371
46341W        W89332  25.382   7.027  14.031  0.0845 -0.1341  0.2868
46342W        W89333  10.280   1.370  21.088 -0.0296  0.1479  0.1406
46343W        W89334  32.448   0.300  18.531  0.0645  0.0738 -0.2230
46344W        W89335   5.392   9.217   1.375  0.0230 -0.1638 -0.2481
46345W        W89336  20.125   1.476  21.416  0.0704  0.0045  0.1576
46346W        W89337  34.392   6.017  16.945 -0.0664 -0.1391 -0.1294
46347W        W89338   3.467   3.301   0.273  0.1153 -0.1703 -0.2599
46348W        W89339  30.665  28.545   6.068 -0.0795  0.0837  0.3210
46349W        W89340  24.367  18.401  13.445  0.1633 -0.0183 -0.0547
46350W        W89341  32.760  14.794  17.997 -0.2245  0.1103  0.1110
46351W        W89342  28.435  31.004   8.844  0.2882 -0.2168  0.1208
46352W        W89343  33.702  18.619  15.653 -0.1379  0.0671 -0.3716
46353W        W89344   0.662  32.886  23.843  0.0330 -0.0347  0.4376
46354W        W89345  23.860   4.644  23.235  0.0021  0.1081  0.1379
46355W        W89346   0.040  19.476  23.984 -0.0794  0.3199  0.3155
46356W        W89347  28.538  15.247  22.766 -0.2193 -0.1053  0.2087
46357W        W89348  28.462  28.478  13.568  0.0456 -0.2370  0.2809
46358W        W89349  13.679   8.315  23.849  0.2474  0.0081  0.2546
46359W        W89350  21.072   7.281  13.951  0.0878  0.3479 -0.1192
46360W        W89351  21.645   6.946  21.786 -0.0119 -0.1522 -0.1050
46361W        W89352  13.707  32.963  16.445  0.2606  0.0289  0.0472
46362W        W89353  11.649   7.489  18.643 -0.0914 -0.0406 -0.1238
46363W        W89354   2.088   7.237  16.403  0.2051 -0.2002 -0.3398
46364W        W89355  21.840   9.449  16.092 -0.0658 -0.2194  0.1927
46365W        W89356   2.781  11.496  23.578  0.0102 -0.1060  0.1845
46366W        W89357  28.755  33.426  26.593 -0.3499  0.0661  0.1552
46367W        W89358  25.526   8.727  21.178  0.0971  0.0848 -0.2360
46368W        W89359  10.158  27.645  15.781 -0.0307  0.2756  0.2200
46369W        W89360  32.937  34.403  16.030 -0.2399  0.6019  0.1009
46370W        W89361   9.125  32.372   0.659 -0.0077  0.1314 -0.1981
46371W        W89362   2.109  10.594  28.861  0.1530 -0.0705 -0.2851
46372W        W89363   0.899  11.832  20.607  0.1661 -0.3542 -0.2067
46373W        W89364  27.567  29.465  12.915  0.2487  0.0464 -0.0386
46374W        W89365   2.664  25.056   0.429  0.1721 -0.2220  0.1740
46375W        W89366  29.622  34.741  26.171  0.1348  0.2420 -0.1787
46376W        W89367  29.803   7.434  17.882 -0.0914 -0.0298 -0.1115
46377W        W89368   2.787  29.623  14.525  0.1295  0.0695 -0.1072
46378W        W89369  26.988  33.669  18.696 -0.1982 -0.2655 -0.1442
46379W        W89370  10.895  29.497  17.681  0.3552  0.2754 -0.0119
46380W        W89371   4.304  32.801  16.823 -0.2896 -0.5724  0.0534
46381W        W89372  34.156   9.232   3.360 -0.0603  0.2899 -0.0652
46382W        W89373   9.800   3.841   0.432  0.0757 -0.1904 -0.2025
46383W        W89374  12.810  30.326  22.397 -0.4528 -0.2889 -0.0200
46384W        W89375  20.530  29.879  22.808 -0.0285 -0.0016 -0.4564
46385W        W89376  29.376   7.714   5.513  0.2313  0.3850  0.3639
46386W        W89377   8.960   5.395  23.132 -0.0573  0.1850 -0.3136
46387W        W89378  31.595   4.266  23.484  0.1511 -0.1579  0.2349
46388W        W89379   4.346   9.733   0.782  0.1585 -0.1022 -0.0913
46389W        W89380   1.659   0.673  16.115  0.1003 -0.0159  0.0414
46390W        W89381   2.523  34.361  23.435 -0.2154  0.0651  0.0095
46391W        W89382  33.350   9.786  22.542  0.0848  0.1483  0.1155
46392W        W89383  10.921   5.867   4.569  0.3861  0.0427  0.0250
46393W        W89384   5.983  13.533  19.817  0.0731 -0.0332 -0.0492
46394W        W89385  32.789   4.913  17.876  0.4559 -0.3201 -0.0029
46395W        W89386  28.530  22.551   1.562  0.2344 -0.1916 -0.0965
46396W        W89387  32.941  15.019   2.052  0.0430  0.0982  0.0638
46397W        W89388   2.998  19.123   2.938  0.0858 -0.0839  0.0510
46398W        W89389  34.473  14.698  19.052  0.0979 -0.0796  0.1118
46399W        W89390   6.117  14.364  16.817 -0.2134 -0.0339  0.0192
46400W        W89391   9.112  20.120  14.442 -0.2791 -0.1153 -0.5303
46401W        W89392  16.315  25.431  17.256  0.1052  0.1836 -0.1656
46402W        W89393   9.098  31.378  23.990 -0.1428 -0.3422 -0.0207
46403W        W89394  33.894   0.241  14.188 -0.1340  0.3120 -0.2493
46404W        W89395  16.646  30.642  20.666 -0.2715 -0.0570  0.1137
46405W        W89396  21.682   5.830  19.375 -0.1094  0.0891  0.0371
46406W        W89397  32.041  10.170  24.484  0.1743  0.1260  0.2994
46407W        W89398  18.966  11.852  14.969  0.1850 -0.0907  0.2074
46408W        W89399   0.792   7.663  22.263  0.1622  0.1493 -0.1337
46409W        W89400  33.820   1.214  14.491 -0.0158 -0.0127 -0.1151
46410W        W89401  19.287  12.669   4.524  0.2243 -0.0888 -0.1432
46411W        W89402  22.930  11.758  15.759  0.0175  0.1945 -0.0097
46412W        W89403  10.441  29.266   8.202 -0.3141 -0.0123  0.1043
46413W        W89404   6.043   5.451  19.267 -0.0665 -0.1578  0.2290
46414W        W89405  30.259  23.537  25.916 -0.2099 -0.3486  0.0025
46415W        W89406  31.432  32.860   3.187  0.0165  0.2412  0.0977
46416W        W89407   5.334   4.006   7.214  0.0537 -0.1438  0.0672
46417W        W89408  32.302   0.462  16.017 -0.2630  0.1625 -0.3062
46418W        W89409  10.755  14.325  15.555  0.0219  0.1921 -0.3315
46419W        W89410   5.205  30.578  14.107 -0.1240  0.0159 -0.0524
46420W        W89411   8.999   9.770  18.322  0.3511  0.1000 -0.2298
46421W        W89412   5.640  24.240  23.193 -0.0185 -0.0943  0.0438
46422W        W89413   8.809  15.661  18.304  0.0703 -0.1401 -0.1692
46423W        W89414  33.095   4.890  17.354  0.2484  0.2327  0.1514
46424W        W89415  24.609  11.190  23.578  0.1742  0.2680 -0.2884
46425W        W89416  14.748  10.634  21.180  0.1076 -0.2622 -0.1759
46426W        W89417  27.142  33.558  14.439 -0.1302  0.0555  0.0397
46427W        W89418   4.738  31.880  20.128  0.2771 -0.0329 -0.0129
46428W        W89419   1.447  27.042   4.865 -0.3462 -0.1232  0.1820
46429W        W89420  28.252  27.805  19.903  0.4064  0.1134  0.5362
46430W        W89421  33.877   3.774  16.100  0.2250 -0.0036 -0.1551
46431W        W89422  13.875   3.441  19.628  0.0313  0.1330  0.1254
46432W        W89423  20.218  10.170  26.599 -0.0457 -0.0409  0.1424
46433W        W89424   6.450  14.054  15.959 -0.0853 -0.2115 -0.1098
46434W        W89425  34.102  34.089  29.165  0.1776 -0.0643  0.1319
46435W        W89426  26.429  18.396  24.584 -0.1328  0.3115  0.0276
46436W        W89427  34.233  11.891  27.802  0.0679 -0.1683  0.1596
46437W        W89428  31.981  32.698  27.480  0.2604 -0.1567  0.1827
46438W        W89429   7.710  24.809  18.959 -0.4118 -0.1404 -0.0590
46439W        W89430  27.993  28.751  19.781 -0.1907  0.1738  0.4601
46440W        W89431   5.570   8.447  18.314  0.1185 -0.1406  0.0186
46441W        W89432  24.798  32.104  23.386  0.2663 -0.1984 -0.1224
46442W        W89433   5.251   7.031  24.130  0.2251  0.0599  0.0227
46443W        W89434   8.286   4.580  17.139 -0.0607  0.0410  0.0827
46444W        W89435  22.438  21.475  26.914  0.2301  0.0692 -0.0192
46445W        W89436   1.338  31.200  18.383  0.0946  0.1111 -0.3664
46446W        W89437   3.792  29.484  18.461 -0.1170  0.3132  0.1741
46447W        W89438  34.478  34.594  18.915 -0.0646 -0.0020  0.0577
46448W        W89439   9.687   7.772  28.907 -0.1390 -0.2417  0.0498
46449W        W89440   3.229   6.137  17.675  0.1064  0.0874  0.1101
46450W        W89441  27.942   8.477  16.147 -0.0267 -0.1230  0.3003
46451W        W89442  25.417  22.279  20.913  0.2610  0.2609 -0.2288
46452W        W89443  22.085  21.388  14.809  0.2696  0.0708  0.1868
46453W        W89444  17.885  33.384  21.490  0.0687 -0.0777 -0.1497
46454W        W89445  25.992  19.430  16.275  0.1746 -0.1376  0.0709
46455W        W89446   5.321  28.817  14.801  0.0942 -0.3496 -0.2120
46456W        W89447  26.468  24.151  16.938  0.3965  0.0939 -0.1771
46457W        W89448  32.872   5.212  18.234 -0.1610 -0.0949 -0.3943
46458W        W89449   2.229  32.790  18.510  0.0966 -0.2618  0.1096
46459W        W89450   3.342  29.784  18.479  0.0205  0.0546 -0.2206
46460W        W89451  30.127   1.094  13.601  0.2174  0.0909  0.1744
46461W        W89452   8.631  32.397  14.974  0.0716  0.2524  0.0347
46462W        W89453   7.938  30.432  19.118  0.0435 -0.3551 -0.0065
46463W        W89454  30.905   0.757  17.588  0.0010 -0.0710 -0.3609
46464W        W89455  29.924   1.736   9.744 -0.1457  0.2082  0.1150
46465W        W89456  33.375  27.424  19.862  0.0771  0.1185  0.0433
46466W        W89457  20.865  15.339  20.173  0.0528  0.0232  0.3048
46467W        W89458  22.990   7.449  21.117  0.0427  0.1479 -0.1875
46468W        W89459   2.023  31.246  20.245  0.1137 -0.4441  0.1536
46469W        W89460  29.343  15.787  20.935  0.2371  0.2294  0.0138
46470W        W89461   1.212  24.926   0.128  0.2586 -0.0387 -0.1193
46471W        W89462   6.902  19.776   5.347 -0.1411  0.2792  0.1416
46472W        W89463  27.855   6.377  18.055 -0.0914  0.1407  0.0243
46473W        W89464  28.224   9.903  18.377  0.1313  0.0036  0.1494
46474W        W89465   6.984   3.940  28.496  0.0374  0.2753  0.0293
46475W        W89466   6.790  29.382  16.276  0.1255  0.3218  0.3711
46476W        W89467  12.842  15.030  21.297 -0.2188 -0.0866  0.0635
46477W        W89468   9.712   6.667  26.140  0.0500  0.1357  0.2712
46478W        W89469   4.754   8.762  17.057  0.0029  0.0782  0.1523
46479W        W89470  33.218  26.438  16.941  0.0123  0.3512 -0.2171
46480W        W89471  24.110  15.369  17.543  0.1212  0.1240 -0.2238
46481W        W89472   4.817  32.060  22.597 -0.0824 -0.2235  0.0060
46482W        W89473   0.116   7.516   0.571  0.2668 -0.0913 -0.3542
46483W        W89474   7.024  25.528  25.843  0.0785  0.1012 -0.1275
46484W        W89475   6.750  34.374  23.234  0.3661 -0.1354  0.0133
46485W        W89476  32.412  12.478   2.547 -0.0645 -0.1621 -0.1478
46486W        W89477  26.000   9.087  16.290 -0.2952 -0.1868 -0.1809
46487W        W89478  19.736  18.864  26.992 -0.0223 -0.4230 -0.1929
46488W        W89479  13.358   9.855  24.248 -0.0164 -0.1922  0.0203
46489W        W89480  29.678  25.627  17.006  0.0770  0.2281 -0.0299
46490W        W89481  34.760  10.105   2.587 -0.0971 -0.1324  0.0102
46491W        W89482  33.028   3.885  29.094 -0.1816 -0.4157  0.2510
46492W        W89483  23.029  19.873  29.055  0.2961  0.0148  0.0644
46493W        W89484  25.255   8.210  13.508  0.1860 -0.4849 -0.2418
46494W        W89485  26.086   2.978   4.034 -0.0295 -0.2904  0.1044
46495W        W89486  29.631  24.266  15.841 -0.1235 -0.2367 -0.2618
46496W        W89487  30.284  22.005  16.990  0.1678  0.0967  0.2569
46497W        W89488  20.801   7.538  16.363 -0.2405  0.0153  0.1736
46498W        W89489   1.699  12.081  20.019 -0.0217 -0.1411  0.0890
46499W        W89490  11.603  34.257  21.516 -0.1000  0.0591 -0.1399
46500W        W89491  12.044   1.415  28.510 -0.3789  0.3033  0.1711
46501W        W89492  27.021   8.438   1.359 -0.1254  0.0527  0.1011
46502W        W89493   7.730   3.538  15.568 -0.0656 -0.1943 -0.3219
46503W        W89494  34.022   5.889   4.239  0.2259 -0.1698  0.0674
46504W        W89495   3.164   0.561   5.207  0.0364 -0.1411  0.0366
46505W        W89496   6.672  26.368  22.711 -0.0494 -0.2052 -0.0241
46506W        W89497  27.795   7.581  27.104 -0.0735  0.1457 -0.1190
46507W        W89498   6.082  30.896  23.169 -0.1578  0.2776 -0.0813
46508W        W89499   7.444  30.695  14.694 -0.1740  0.0275  0.0190
46509W        W89500  14.329  33.761  16.669 -0.0659 -0.1972 -0.3706
46510W        W89501   2.388  12.476  17.074 -0.2393  0.1082  0.0177
46511W        W89502  20.722   5.633  24.570 -0.1700 -0.0363 -0.0122
46512W        W89503   0.283  30.580  13.620  0.1737  0.0241  0.2277
46513W        W89504  28.240  32.483  13.481 -0.3987  0.0217 -0.2338
46514W        W89505   6.730  21.468  25.116 -0.1265 -0.0385  0.1006
46515W        W89506  31.383  16.234  17.484 -0.0347 -0.3245 -0.1248
46516W        W89507  23.976   2.319  28.841 -0.0574 -0.1670 -0.1402
46517W        W89508  21.364  21.731  17.369  0.0182 -0.0052 -0.1445
46518W        W89509   1.339  15.188  18.064 -0.0098  0.0451  0.2813
46519W        W89510  27.784  16.991  27.865  0.0014  0.1819 -0.0819
46520W        W89511   6.003   9.133  21.471 -0.1963  0.1985 -0.1635
46521W        W89512   1.924  25.873  19.535 -0.1450  0.0381  0.2137
46522W        W89513  19.937  30.050  25.400  0.1370  0.2795  0.1870
46523W        W89514  29.842  30.912  17.344 -0.4721  0.0419  0.1532
46524W        W89515   1.734   5.669  19.487 -0.0426  0.0168  0.0157
46525W        W89516  19.560  31.100  23.676 -0.3635  0.2545  0.0524
46526W        W89517  20.247  26.068  22.155 -0.0101  0.2541  0.2252
46527W        W89518  28.425  16.125   3.796  0.5068  0.0283 -0.0484
46528W        W89519  23.363   3.581  20.792 -0.0569  0.1955  0.0092
46529W        W89520  30.512   2.078  25.640 -0.0417 -0.1306  0.1150
46530W        W89521  33.369  13.025  23.846 -0.1248  0.0408 -0.2052
46531W        W89522  24.147  13.229  19.417 -0.2182  0.1151  0.0912
46532W        W89523  25.980   8.801  22.880  0.0428  0.1745  0.4048
46533W        W89524  33.983  23.462  20.387 -0.3078  0.1778  0.3550
46534W        W89525  29.685  21.067   3.244 -0.2649  0.2067  0.0628
46535W        W89526  18.997   5.578  19.825 -0.0922 -0.1091 -0.2518
46536W        W89527   4.174  27.547  20.403 -0.1544  0.1242  0.4072
46537W        W89528  25.315  28.879  21.430  0.0052 -0.1132  0.0525
46538W        W89529  29.970  34.408  21.155 -0.0628 -0.4043  0.2695
46539W        W89530  31.506   2.478  17.576 -0.2128 -0.1872 -0.2934
46540W        W89531  33.000   3.571   0.299 -0.0047 -0.1894  0.0292
46541W        W89532  32.202  20.184  16.605  0.2653  0.0486  0.0771
46542W        W89533  24.400   8.714  26.850 -0.0242  0.2357 -0.1646
46543W        W89534  26.757  31.125  22.140 -0.0867 -0.0850  0.0081
46544W        W89535   7.951  23.722  16.906 -0.1210 -0.1659  0.2779
46545W        W89536  32.029  12.957  18.008  0.0414 -0.0454 -0.2118
46546W        W89537   4.076  27.801  23.234 -0.1270 -0.0868 -0.0593
46547W        W89538  34.409  18.882   8.484  0.1066 -0.1532 -0.0166
46548W        W89539  34.660  32.214  15.943  0.2216 -0.1220 -0.2049
46549W        W89540  19.134  32.056   5.983 -0.3056 -0.3920 -0.3173
46550W        W89541   7.129  33.168   7.376 -0.0148 -0.0129  0.0949
46551W        W89542  29.649  29.807   8.174 -0.0224 -0.2450  0.0265
46552W        W89543  21.800  19.145  16.702  0.3704  0.1658  0.1985
46553W        W89544  26.580   2.568  14.978 -0.0370  0.1768 -0.2701
46554W        W89545  29.485   9.323  18.288  0.0903 -0.1997  0.1518
46555W        W89546  25.573  14.142  21.907 -0.0480  0.1709 -0.5520
46556W        W89547  34.707  23.700  14.400  0.1465 -0.4578 -0.0176
46557W        W89548  24.656  11.136   1.739  0.2371 -0.2647 -0.1345
46558W        W89549  23.995   2.116  22.411 -0.1219 -0.1788 -0.2485
46559W        W89550   9.570   4.222  15.372  0.0866  0.3308 -0.2568
46560W        W89551   2.516  14.598  26.611 -0.2558 -0.1048  0.0475
46561W        W89552  25.436  23.349  20.170 -0.2522  0.0011 -0.3296
46562W        W89553  20.606  16.545  22.047  0.3705 -0.1650  0.0195
46563W        W89554  27.241  21.131  22.074 -0.0929  0.1685  0.0080
46564W        W89555   6.841  11.025  16.137 -0.0445 -0.1827 -0.0799
46565W        W89556   8.226  22.293  18.616 -0.0715  0.3284  0.2049
46566W        W89557  31.047   4.868   3.011  0.1193  0.2472  0.0825
46567W        W89558   8.505  24.621  22.956 -0.0816  0.1484 -0.2389
46568W        W89559  21.020   3.203   3.127 -0.0331  0.0819 -0.1345
46569W        W89560  33.822   2.756  16.490  0.1195  0.2996  0.0470
46570W        W89561  31.171   6.107   5.245 -0.1086  0.3655 -0.4015
46571W        W89562  21.773   2.070  14.619  0.0978 -0.1413  0.0848
46572W        W89563  26.483   3.609   1.094  0.0327  0.1081  0.2815
46573W        W89564   6.405   2.399  24.650  0.0744 -0.0683 -0.1872
46574W        W89565  32.757  14.387  22.153  0.0391 -0.2600 -0.0909
46575W        W89566  11.835   3.771   3.008  0.2486  0.2104  0.0261
46576W        W89567  29.456  14.812  26.064  0.0085 -0.0282  0.1600
46577W        W89568  22.129   4.416  18.494  0.0726 -0.1321  0.0708
46578W        W89569  32.127   3.286  20.183  0.0524 -0.2540 -0.1268
46579W        W89570   3.991   0.794   0.143 -0.0265  0.1608 -0.3761
46580W        W89571  30.867  10.744  19.332 -0.0277  0.0591  0.0509
46581W        W89572  14.958  31.642   3.538  0.4047  0.1083 -0.1948
46582W        W89573  12.198  30.701  17.813 -0.2719 -0.2130 -0.1894
46583W        W89574   3.436  25.111  23.841  0.1257  0.1395  0.1595
46584W        W89575  23.725  20.342  22.458  0.0310  0.0730  0.0544
46585W        W89576   5.737   8.906  26.182 -0.1701 -0.1121 -0.4438
46586W        W89577  28.730   2.319  15.874 -0.0349  0.1278  0.0691
46587W        W89578  32.734  14.448  24.259  0.1825  0.1214  0.0323
46588W        W89579  32.075   4.903  14.516  0.2949  0.1664  0.1098
46589W        W89580  31.170   1.150  17.351  0.3696  0.0384  0.1331
46590W        W89581   4.493  31.675  14.766  0.1933  0.0961 -0.3268
46591W        W89582  27.179  17.219  27.860 -0.3645 -0.1364 -0.3218
46592W        W89583  10.754   5.042  15.680  0.0181 -0.1681  0.0382
46593W        W89584  29.339   0.420   7.255  0.0253  0.1665 -0.1625
46594W        W89585  16.158  31.203  16.961 -0.1526 -0.1505  0.1743
46595W        W89586  14.603   1.891   4.923  0.3256  0.1260 -0.3263
46596W        W89587  31.113   4.475  24.528 -0.0226 -0.2044 -0.0482
46597W        W89588  27.149  27.731  21.476 -0.1457 -0.1345 -0.2271
46598W        W89589   6.508  25.824   5.469 -0.0523 -0.2383  0.0518
46599W        W89590  29.826  11.043  16.164 -0.2181  0.0048 -0.2765
46600W        W89591   7.719  28.532   5.433  0.2479 -0.1017  0.0341
46601W        W89592   7.566   6.869   6.637  0.1303 -0.0655  0.0552
46602W        W89593  11.593   2.339  10.795  0.1269 -0.0866  0.0128
46603W        W89594  23.066   4.019  15.988 -0.3169 -0.1758  0.0658
46604W        W89595  31.758  12.007  10.673  0.1663  0.0122  0.1400
46605W        W89596  23.739  16.483  14.930  0.0006  0.0519 -0.0156
46606W        W89597   5.709  30.963   4.586 -0.2620 -0.1891 -0.6231
46607W        W89598  33.903   2.332  17.274  0.3563  0.3027 -0.0518
46608W        W89599  33.626   3.469  21.584  0.1408  0.0973 -0.1063
46609W        W89600   5.103   6.481  21.933 -0.1725 -0.2847  0.2268
46610W        W89601   3.202  12.972   7.313  0.4696 -0.2419  0.0938
46611W        W89602  12.034   9.097  26.405 -0.1285 -0.1191 -0.1231
46612W        W89603  17.047  32.157  23.416 -0.0048 -0.1919  0.1537
46613W        W89604   3.499  27.103  15.952  0.1131  0.4478 -0.3549
46614W        W89605  28.686  25.680  15.090 -0.0997 -0.0526 -0.1894
46615W        W89606  33.840  13.070  21.117  0.0537  0.1822  0.1858
46616W        W89607  23.318  16.864  23.953  0.1229 -0.0911  0.0635
46617W        W89608   9.927   0.178   8.536 -0.0147  0.3375  0.2759
46618W        W89609  28.858  33.728   6.127 -0.1580  0.0796 -0.2871
46619W        W89610  33.795   2.399  20.348  0.3750  0.0371 -0.0830
46620W        W89611  12.844   6.112  17.990 -0.2877 -0.0007 -0.2622
46621W        W89612  31.445  15.264  18.309  0.0119 -0.0727 -0.1850
46622W        W89613  23.120  12.311   2.159  0.0976  0.2171  0.3071
46623W        W89614   4.455  32.455  21.382  0.0492 -0.2004  0.0908
46624W        W89615  26.823   3.134   2.366 -0.1143 -0.3255 -0.0018
46625W        W89616  28.322  19.506  21.624  0.1705 -0.2348 -0.0918
46626W        W89617  31.499   9.950   9.421  0.2879 -0.4267  0.1892
46627W        W89618  31.171  13.906  26.066 -0.0544 -0.0457 -0.2708
46628W        W89619  13.981   5.137  16.987  0.0104 -0.3362 -0.2017
46629W        W89620  27.574  34.618  24.374  0.2683 -0.1331  0.1899
46630W        W89621  30.251  28.696  27.657 -0.0220  0.2015 -0.3183
46631W        W89622   3.510   4.521  23.931  0.2537 -0.1540 -0.1611
46632W        W89623   2.038   1.500  15.598 -0.1972  0.0682 -0.0519
46633W        W89624  29.635  21.548  26.604 -0.0135 -0.0383 -0.0824
46634W        W89625  26.777   0.296  24.116 -0.0003  0.2721  0.2050
46635W        W89626  31.517  14.799  17.420  0.0025  0.0572 -0.2249
46636W        W89627   3.041  11.993  27.858  0.0256  0.3545  0.0724
46637W        W89628  32.410  18.795  19.424  0.2669 -0.2865  0.2093
46638W        W89629  27.484   4.350   6.720 -0.2233 -0.0003 -0.2064
46639W        W89630   3.427  14.201  17.467  0.1208 -0.1667 -0.1567
46640W        W89631   9.363   2.197  14.157 -0.0112  0.0308 -0.0090
46641W        W89632  28.818   9.065  24.327  0.0312  0.0578  0.1607
46642W        W89633  29.076  11.412  25.341  0.2060 -0.0578 -0.1522
46643W        W89634  12.284  32.760  28.755  0.1718 -0.2339  0.0969
46644W        W89635  32.911   6.159   4.915  0.1081  0.2151 -0.1962
46645W        W89636  23.890   0.053  21.193  0.2640 -0.4302  0.0313
46646W        W89637  24.756   8.479  13.642 -0.0213 -0.0011 -0.2728
46647W        W89638  10.627  28.253  15.189  0.0931 -0.3018 -0.2120
46648W        W89639  29.345  32.352   2.615  0.0605  0.1060 -0.2343
46649W        W89640  18.283   3.689   5.306  0.2746 -0.2650  0.0765
46650W        W89641   2.760  29.884  18.190 -0.3949 -0.1422  0.1420
46651W        W89642   1.129  12.288   0.028  0.2241 -0.2607 -0.0479
46652W        W89643   3.236  12.846  24.666  0.4948 -0.0466  0.2014
46653W        W89644  30.769  15.422  22.975 -0.1655  0.2445 -0.0797
46654W        W89645  13.595   4.790  19.508  0.1049 -0.1715  0.0433
46655W        W89646  32.360  13.760  18.537 -0.0512  0.1667  0.2690
46656W        W89647  24.125  31.345  21.583 -0.2234  0.4079 -0.1965
46657W        W89648   8.936   7.967  19.043  0.1516 -0.1101 -0.1738
46658W        W89649   2.544  30.125  25.387 -0.2469  0.0759  0.2235
46659W        W89650  33.832  19.169  17.479  0.1107 -0.3867  0.2085
46660W        W89651  31.443   6.303   0.830  0.1775  0.0531 -0.0676
46661W        W89652   1.808  29.420  16.906 -0.4797  0.3895 -0.4937
46662W        W89653  28.821  33.202  15.217  0.0092  0.1611 -0.2737
46663W        W89654  13.934   6.742  27.785 -0.0220 -0.1951 -0.0723
46664W        W89655  25.466  34.729  18.407  0.0639  0.2095 -0.0019
46665W        W89656  22.691   5.251  28.949 -0.2303  0.2689  0.0556
46666W        W89657   2.507   5.757  19.460  0.0935  0.1495  0.2239
46667W        W89658   7.257  31.603  15.263  0.0868  0.1383  0.4514
46668W        W89659  12.457  28.627  21.497 -0.2554  0.1171 -0.4578
46669W        W89660  14.844   0.156  18.183  0.3298  0.0269 -0.2566
46670W        W89661   1.331  12.604   3.194  0.0261 -0.0414 -0.0165
46671W        W89662  28.439   5.472  24.525  0.0148 -0.0144 -0.2720
46672W        W89663  10.533  31.753  18.917  0.0211  0.1121 -0.1991
46673W        W89664  13.018  18.223  21.817 -0.0049  0.0893  0.0781
46674W        W89665   0.705   5.385  21.495 -0.0836  0.1584 -0.1370
46675W        W89666   6.467   2.954   1.515 -0.0598  0.1524  0.1225
46676W        W89667  33.504   1.653   6.910  0.1076  0.2206  0.1433
46677W        W89668   3.320  11.136  18.093 -0.1785 -0.1211 -0.4437
46678W        W89669  32.107  27.292  19.968  0.0280 -0.1957 -0.2096
46679W        W89670  34.647   6.027  23.158 -0.5006  0.4825  0.1466
46680W        W89671  17.445   1.883  18.354 -0.1284 -0.5547 -0.2180
46681W        W89672  34.400  32.960  28.606 -0.3895 -0.0125 -0.0592
46682W        W89673   8.619   3.675   3.237  0.1312 -0.1267 -0.2108
46683W        W89674  30.322  23.907  18.290  0.0934 -0.0333 -0.0284
46684W        W89675  32.092  32.254  14.161  0.0429  0.2824 -0.0970
46685W        W89676  26.169   8.419  27.241  0.2744  0.0008 -0.1653
46686W        W89677  22.221  27.996  24.898 -0.3160  0.1291  0.3465
46687W        W89678  26.237  31.298   7.638 -0.1096 -0.1763 -0.2122
46688W        W89679   4.621  17.342  20.774  0.0634 -0.2150  0.2030
46689W        W89680   5.459  32.583   7.947 -0.0729 -0.0543  0.1119
46690W        W89681  19.364  10.817  28.392 -0.1179  0.2125  0.1608
46691W        W89682  33.332   4.637  25.384  0.0128  0.0228 -0.0744
46692W        W89683  33.266  34.720  15.244 -0.2430 -0.0181 -0.1312
46693W        W89684  28.804   4.651  18.964  0.0243 -0.0299  0.0149
46694W        W89685  20.494  16.011  24.562  0.0440 -0.0790  0.1970
46695W        W89686  25.709  32.751  27.191  0.1529 -0.0023  0.1677
46696W        W89687  34.532  27.858  16.078 -0.2544  0.0968  0.2119
46697W        W89688  30.988  33.403  16.634 -0.0440  0.1013  0.2331
46698W        W89689   0.677  18.282  16.555  0.0689  0.2301  0.1876
46699W        W89690  33.462  11.594   9.945  0.2318  0.0603 -0.2081
46700W        W89691  23.343  16.677  19.203 -0.0477 -0.1874 -0.0688
46701W        W89692  28.907  30.123  19.071 -0.2249  0.0124 -0.4546
46702W        W89693  31.754  30.829   8.928  0.1535 -0.0419  0.4244
46703W        W89694  31.499   3.895  15.675 -0.1094  0.3097 -0.1532
46704W        W89695  27.110   6.605  24.463 -0.0898  0.2739  0.0408
46705W        W89696   8.252  32.540  21.981  0.1325 -0.1966 -0.1453
46706W        W89697   9.071  27.192   6.001  0.0626  0.0162  0.2027
46707W        W89698  32.226  17.799  24.368  0.2623  0.1092 -0.0430
46708W        W89699  19.995  11.976  24.565 -0.1755  0.0337 -0.0469
46709W        W89700  20.014  32.294  24.658 -0.0859 -0.0619  0.0140
46710W        W89701   3.658  27.690   3.818 -0.0224  0.2114  0.1347
46711W        W89702  32.604  30.025  22.046  0.3197  0.2845  0.2636
46712W        W89703  22.140  11.123   0.544 -0.0450 -0.2574  0.2984
46713W        W89704   3.623  12.390   6.647 -0.1534  0.2596  0.1058
46714W        W89705  33.025   1.287  21.278 -0.3988 -0.0239 -0.0578
46715W        W89706   5.314   5.863   0.271 -0.2462 -0.0574  0.0327
46716W        W89707  31.682  14.405  23.702 -0.3522 -0.2320  0.2143
46717W        W89708  20.508  11.478  19.955  0.2591  0.1206 -0.4674
46718W        W89709  11.453  28.203   6.222 -0.2259  0.3549  0.3026
46719W        W89710   9.618  27.903  16.361  0.1536 -0.0394 -0.2005
46720W        W89711   8.294  24.189  18.847 -0.2244 -0.1552  0.0424
46721W        W89712  14.860   0.079  29.020 -0.1643  0.2061  0.0746
46722W        W89713   1.933   3.895  26.625  0.2348 -0.3423  0.1762
46723W        W89714  25.351  31.041  18.460  0.2694  0.3118  0.3809
46724W        W89715  16.583   3.347  14.638  0.0020  0.0128  0.2677
46725W        W89716  18.393   5.309   7.965  0.4727 -0.2314  0.0798
46726W        W89717   9.398  16.134   2.891 -0.0682  0.2741 -0.1585
46727W        W89718   6.816   6.688  28.780  0.0551  0.0435  0.1406
46728W        W89719   1.602   9.056  10.741 -0.0435 -0.2745  0.0492
46729W        W89720  20.821  31.127  19.442 -0.0586  0.0804 -0.1190
46730W        W89721  29.266  15.264  20.100 -0.1301  0.2851 -0.0166
46731W        W89722   0.335   5.980  16.227 -0.1892  0.0102 -0.1053
46732W        W89723  16.071  17.746   5.742 -0.0061 -0.1632  0.0652
46733W        W89724   0.599  15.061  18.817 -0.1133 -0.3496 -0.0018
46734W        W89725  16.247   4.083   2.734 -0.1699 -0.2429  0.2110
46735W        W89726  31.045   5.909   1.444 -0.1672  0.1950  0.1315
46736W        W89727  33.723   6.468   2.630  0.0044 -0.1714 -0.1120
46737W        W89728  18.546   0.068  17.235 -0.3820  0.0638 -0.0287
46738W        W89729   6.276  26.122  21.562 -0.1587 -0.2788  0.1365
46739W        W89730   3.658   3.092   1.799  0.2659 -0.2717 -0.1345
46740W        W89731  30.466   0.436  18.759 -0.3158 -0.3126  0.3191
46741W        W89732  11.925   4.758  27.996 -0.0116 -0.3227 -0.2057
46742W        W89733   7.932  10.880  28.360  0.0028  0.1353  0.1714
46743W        W89734   1.119   3.000  14.935  0.1120 -0.0837  0.1000
46744W        W89735   4.379  29.431  20.749  0.1609  0.2450 -0.1639
46745W        W89736  32.229   1.008  21.836  0.1651  0.0959  0.3336
46746W        W89737   2.448  32.888  29.152 -0.3250 -0.1069  0.0761
46747W        W89738   5.893  23.181  20.886  0.0545  0.3030  0.3182
46748W        W89739  24.137  26.134  28.640  0.1203  0.0339  0.3052
46749W        W89740  13.633  32.750   9.905  0.4310  0.0085  0.1494
46750W        W89741   8.924   6.428  15.750  0.1249  0.0951 -0.0018
46751W        W89742   0.746   1.790   4.786  0.2363 -0.0198 -0.0961
46752W        W89743  34.512   5.524  27.289  0.2920  0.2019 -0.0524
46753W        W89744   6.216   8.651   4.246  0.3242  0.0047 -0.0122
46754W        W89745   1.199   1.108  14.279  0.6329 -0.0592  0.4368
46755W        W89746  33.772  17.324  22.558 -0.1449  0.1871 -0.2588
46756W        W89747  30.065  32.887  18.949 -0.0301 -0.3937 -0.0284
46757W        W89748   4.672  13.659  16.077  0.1830 -0.0674  0.1376
46758W        W89749   0.128  14.014  17.584  0.1961 -0.0300 -0.0297
46759W        W89750   0.788  28.761   3.565  0.0968  0.0922 -0.2263
46760W        W89751  30.400  20.918  14.168  0.0086  0.2593  0.1397
46761W        W89752  23.655  26.577  19.935 -0.1724 -0.0262 -0.0222
46762W        W89753  17.013  17.297   3.230 -0.0372 -0.3162 -0.2431
46763W        W89754   1.379  12.809  21.567 -0.2543  0.2369 -0.0958
46764W        W89755   7.475   3.248  22.631 -0.0300  0.0533  0.0708
46765W        W89756   2.982  31.588  22.346  0.3276 -0.1565  0.1881
46766W        W89757  26.975  21.002  24.525 -0.0582  0.2067  0.4012
46767W        W89758  25.097  14.224  17.020  0.1733 -0.1414 -0.2002
46768W        W89759  19.502   2.668   0.749  0.1655 -0.1560  0.2167
46769W        W89760   7.552  26.652  17.227  0.1695  0.0485 -0.1244
46770W        W89761  25.157   3.269  24.683 -0.2292 -0.1728 -0.3263
46771W        W89762  26.353  29.640   6.913  0.1520 -0.1416 -0.1500
46772W        W89763  14.190  23.727   7.499  0.1843 -0.1401  0.0915
46773W        W89764  26.185  23.411  24.237  0.1715  0.3892 -0.0847
46774W        W89765  34.190  29.037  24.386  0.0474  0.1271 -0.3481
46775W        W89766  13.540  31.789   1.559  0.1027  0.0748 -0.0350
46776W        W89767   8.023  12.461   0.337  0.0155  0.0039  0.1516
46777W        W89768  21.576  33.399   3.895 -0.0612 -0.3777 -0.1856
46778W        W89769  11.825  20.720  22.553 -0.3050  0.0986  0.0182
46779W        W89770   4.320  24.420  19.315 -0.2454 -0.3970  0.0943
46780W        W89771   4.642  32.720   0.233 -0.0345 -0.2974 -0.0889
46781W        W89772  10.712  27.446  28.061  0.0221 -0.0423 -0.0720
46782W        W89773  31.766  34.196   5.479 -0.0486 -0.2396  0.2930
46783W        W89774  28.383   9.999   4.715  0.0136 -0.1045 -0.1282
46784W        W89775   1.750   9.895  23.134  0.1113  0.0938 -0.0613
46785W        W89776  33.838  24.208  14.671 -0.0113 -0.3762  0.0403
46786W        W89777  33.349  24.077  23.093  0.2212 -0.0958  0.2784
46787W        W89778  30.519  26.589  14.226 -0.3508  0.2735 -0.0599
46788W        W89779  16.801  13.071  28.772  0.0278  0.3795  0.0779
46789W        W89780  27.752   0.549  15.951  0.2263  0.0239 -0.4643
46790W        W89781  29.024   3.563   8.638  0.3050  0.0931  0.3043
46791W        W89782  32.455  22.740  28.239  0.0038 -0.2576 -0.2567
46792W        W89783   5.062  33.904   1.476 -0.0939  0.0369  0.2549
46793W        W89784   1.802  33.805   4.463  0.2245 -0.3313 -0.1422
46794W        W89785   2.192  21.718  16.630  0.3976 -0.4037  0.0724
46795W        W89786  23.868  26.039  29.192 -0.0982  0.1182  0.2113
46796W        W89787  26.257   4.074  14.420 -0.0402 -0.0425  0.2139
46797W        W89788  18.846   0.066  18.767 -0.0188  0.0286  0.4026
46798W        W89789   7.709  11.191   0.465  0.1815  0.0023 -0.1890
46799W        W89790  15.504   8.652  18.033 -0.0321  0.4116 -0.0518
46800W        W89791  11.041  32.557  14.465  0.1322 -0.1712  0.4363
46801W        W89792  12.152  27.018  17.967  0.1717 -0.2364 -0.0579
46802W        W89793   7.484   5.578  17.139  0.4061 -0.2122 -0.1033
46803W        W89794  31.859   3.999  25.641 -0.0419 -0.0253  0.1757
46804W        W89795  23.099  31.344  23.183  0.2435  0.1674 -0.2056
46805W        W89796  29.841  21.330  29.198 -0.1767 -0.2864 -0.2509
46806W        W89797   9.727  17.920  20.747 -0.2848 -0.2777 -0.1045
46807W        W89798  29.501   3.377  20.184 -0.1369 -0.1541 -0.1585
46808W        W89799   9.696  32.522   1.650 -0.3375 -0.1760 -0.5485
46809W        W89800   4.462   4.526  28.360 -0.0945  0.2770  0.2083
46810W        W89801  33.615  10.939   2.332 -0.0574 -0.1569  0.0332
46811W        W89802  33.767  16.679   0.399 -0.1799 -0.0157  0.0316
46812W        W89803   3.045   4.741  28.358  0.2232  0.1823 -0.2251
46813W        W89804   7.218   7.591   7.135 -0.2714  0.2112  0.1289
46814W        W89805   6.563   9.030   1.459 -0.2952  0.1286 -0.2679
46815W        W89806   1.999   2.123  16.203 -0.0766 -0.0847  0.0692
46816W        W89807  29.573  10.598  27.740 -0.1796 -0.2510  0.0783
46817W        W89808  11.993   3.963  28.535 -0.2936  0.1734  0.0451
46818W        W89809  22.326  11.158  14.271  0.0230 -0.0956 -0.1237
46819W        W89810  28.368   6.466  23.385  0.1434 -0.0847  0.3066
46820W        W89811  28.799  17.542  14.849  0.0905  0.0100  0.0750
46821W        W89812  31.112   0.020  20.555  0.0401  0.0198 -0.0338
46822W        W89813  27.535  21.208  19.897  0.0717 -0.0236 -0.2072
46823W        W89814  22.071  11.161  23.337  0.1355 -0.1942  0.0106
46824W        W89815   1.119  11.442  11.088 -0.1447 -0.0216  0.0463
46825W        W89816  30.742  10.241  23.296  0.3000 -0.0938  0.0907
46826W        W89817  24.279  26.789  18.926  0.0949 -0.0812 -0.0753
46827W        W89818  15.787   2.953  10.045 -0.1691  0.0088  0.1447
46828W        W89819   3.566   2.843  28.499 -0.0911  0.1534  0.0721
46829W        W89820   8.935   3.332  22.698  0.0452  0.2969  0.0163
46830W        W89821  32.608  15.278   4.154 -0.0090  0.1955 -0.1975
46831W        W89822  10.268   0.288   9.873 -0.0989 -0.1887 -0.1199
46832W        W89823  15.965  29.336  15.889  0.0059 -0.5159 -0.0168
46833W        W89824  33.659   4.376  16.661 -0.1101  0.1726  0.2557
46834W        W89825   0.037  26.538   1.970 -0.0633 -0.0765  0.2132
46835W        W89826   0.084   7.601   0.069 -0.2447 -0.0852 -0.2843
46836W        W89827   0.298  17.778  19.621  0.1448  0.0575 -0.1400
46837W        W89828  29.499  34.122  19.345 -0.1663 -0.1619  0.3997
46838W        W89829   1.191   0.552  26.675 -0.2621  0.2205  0.1405
46839W        W89830  18.304   4.988   0.519  0.1324  0.1266 -0.0705
46840W        W89831   1.724  22.552   6.055 -0.0544  0.1133 -0.0548
46841W        W89832   5.972   5.398   5.879 -0.2960  0.0629  0.0977
46842W        W89833   3.006  17.135  11.974  0.2156  0.1473 -0.0269
46843W        W89834  15.438  30.066  17.699  0.0766  0.1112  0.2481
46844W        W89835  29.902  18.351   0.822 -0.1086  0.1422  0.2108
46845W        W89836  20.638  24.774   0.356 -0.0551 -0.1949 -0.0051
46846W        W89837   3.479   9.017   4.465  0.1367  0.0128 -0.0746
46847W        W89838   0.660  23.938  21.787  0.0315  0.2012 -0.1065
46848W        W89839  33.599   2.084  16.148 -0.3246  0.0618 -0.0876
46849W        W89840   7.593  22.668  22.933  0.0509 -0.1351  0.2490
46850W        W89841   3.455  12.920  15.465 -0.2804 -0.2019 -0.0849
46851W        W89842   6.371   1.668  19.292  0.1376 -0.0843  0.1770
46852W        W89843  21.298   4.901   0.420 -0.0211  0.1765 -0.0448
46853W        W89844  21.449   2.437   7.552  0.1658  0.1288 -0.1189
46854W        W89845  13.901  29.489   7.955  0.0530  0.0743 -0.0236
46855W        W89846   2.384  31.657  27.930  0.0672  0.0235  0.1243
46856W        W89847  14.248   1.864  22.198 -0.1314 -0.4005 -0.0249
46857W        W89848  27.734  34.707   4.729  0.1770  0.0364 -0.4230
46858W        W89849  25.016  22.353  28.910  0.0575 -0.0069  0.0235
46859W        W89850   1.369  30.080  26.962  0.0809  0.2185  0.3761
46860W        W89851  12.539  27.289  26.145 -0.1293  0.0406 -0.3704
46861W        W89852  17.863  33.836   6.046 -0.1776 -0.0234  0.2838
46862W        W89853  33.612  11.213  26.225  0.2494  0.1003 -0.2044
46863W        W89854   7.534  29.610  16.976 -0.1283 -0.0099 -0.0950
46864W        W89855  29.700   8.658   4.092  0.3426 -0.2803  0.3110
46865W        W89856  31.632  29.369  14.245  0.3030 -0.2161 -0.3198
46866W        W89857   6.187  34.128  20.142 -0.0805  0.0250  0.0587
46867W        W89858  24.491   9.721  26.225  0.3936  0.2083 -0.0915
46868W        W89859  23.335   8.037  20.966  0.1395 -0.2298 -0.0514
46869W        W89860  33.791   1.107   7.672 -0.2073  0.1430 -0.0634
46870W        W89861  27.937   9.033  21.790  0.3312  0.2255  0.1269
46871W        W89862  25.393  13.195   5.753  0.1294  0.1283 -0.0100
46872W        W89863   5.485  30.234   4.364 -0.2977  0.2995  0.0649
46873W        W89864  31.832  28.591  20.566  0.0059 -0.0054  0.1056
46874W        W89865  16.549   5.746  29.208 -0.1907  0.0351  0.1126
46875W        W89866   5.312  30.951  27.776 -0.1507 -0.0211 -0.1321
46876W        W89867  12.814  15.399  19.787  0.0885  0.3616  0.0828
46877W        W89868  24.259  12.572  25.969 -0.2968 -0.0186  0.0270
46878W        W89869  25.264   5.489   0.028  0.2925 -0.2492 -0.0440
46879W        W89870  18.531  18.589   6.673  0.2854 -0.4013 -0.2553
46880W        W89871   4.731   6.400   3.859 -0.0211  0.1453  0.1350
46881W        W89872   7.528   4.776   2.260  0.0337  0.0406 -0.0069
46882W        W89873  34.100   9.256  28.563  0.0038  0.0979 -0.2731
46883W        W89874  26.889   9.973  23.552  0.1451  0.0253  0.0451
46884W        W89875   4.881  24.182   6.183 -0.1023  0.0210 -0.2657
46885W        W89876  27.522  20.817   0.662  0.2225 -0.1048 -0.1394
46886W        W89877   0.943   8.615  10.271 -0.1146 -0.0642 -0.1176
46887W        W89878  31.368   5.622   1.958 -0.0806  0.1475 -0.0653
46888W        W89879  13.078  25.613  26.134 -0.3523  0.3482  0.2644
46889W        W89880   7.835  34.257   9.855  0.0639  0.0568 -0.1490
46890W        W89881  32.054  12.525   2.057 -0.6256 -0.1447  0.1332
46891W        W89882  34.098   1.373  22.792 -0.2089  0.0485  0.1002
46892W        W89883   5.259   6.122  19.566  0.0199  0.0348 -0.1172
46893W        W89884  12.074   8.725  26.038  0.0597  0.0286  0.0346
46894W        W89885   0.259  31.574  26.565 -0.1458  0.2126  0.1358
46895W        W89886   4.884  24.829   4.619 -0.2750  0.1167 -0.1725
46896W        W89887  29.015   7.202   0.689  0.1528  0.0663  0.0827
46897W        W89888  10.698   0.124   0.113  0.0431  0.0168 -0.0362
46898W        W89889  16.582  29.212  14.536  0.1268  0.4893 -0.0839
46899W        W89890   4.205  32.984  28.704  0.1478  0.0318  0.2953
46900W        W89891  19.307  31.321  26.277 -0.1636  0.0608 -0.1254
46901W        W89892   2.014  20.234  25.180  0.2317  0.2574 -0.1023
46902W        W89893   3.970  13.417  19.407  0.4071 -0.3623 -0.3531
46903W        W89894   0.780   5.530  21.003  0.0715 -0.1562 -0.2443
46904W        W89895  31.908  31.742  14.376 -0.0947  0.2289  0.0727
46905W        W89896  24.602   6.424  17.897  0.0354 -0.0468  0.0737
46906W        W89897   9.655   4.495  16.429  0.2297 -0.1397 -0.0533
46907W        W89898   1.765   5.765  16.008  0.1554  0.0342 -0.0449
46908W        W89899  26.626  31.364  27.063 -0.0121  0.2645  0.0457
46909W        W89900  29.851  21.456  19.863 -0.0857  0.1986  0.4313
46910W        W89901   3.202   5.470  26.452  0.0221  0.2415  0.1821
46911W        W89902   6.297  13.475   1.454 -0.0370  0.0711 -0.3993
46912W        W89903  30.463  22.625  18.075 -0.1285 -0.2201  0.2520
46913W        W89904  24.171   1.240  27.273  0.1132  0.1555  0.3057
46914W        W89905  25.758   8.235   7.895 -0.3908  0.0101  0.2660
46915W        W89906  26.268   2.188   3.271  0.1108  0.0038  0.0741
46916W        W89907  29.511  27.126  14.664 -0.0910 -0.1791 -0.0729
46917W        W89908   4.511   5.317   5.928 -0.1401  0.3005  0.2022
46918W        W89909  34.724   6.326   1.277 -0.2017 -0.1117 -0.1540
46919W        W89910  23.926  30.809   4.575 -0.0667 -0.0862  0.2581
46920W        W89911  22.029  20.193  18.339  0.1138  0.2151  0.0690
46921W        W89912   5.859   3.993   3.923  0.4775 -0.0846  0.1602
46922W        W89913  23.883   9.507  26.852  0.0963 -0.1045  0.1903
46923W        W89914   4.384  28.631  19.318  0.2570 -0.1323  0.0168
46924W        W89915  22.036  25.909  25.470  0.1090  0.0679 -0.2807
46925W        W89916  34.313   6.257  22.577 -0.1632  0.5579 -0.0251
46926W        W89917   7.185  21.486   2.765 -0.1391 -0.0969  0.2652
46927W        W89918   2.716   1.165  10.024  0.0820 -0.0246 -0.1704
46928W        W89919  33.745  32.832  24.817  0.4424 -0.2889  0.0223
46929W        W89920   4.005  15.466  15.585  0.0517 -0.0344 -0.1633
46930W        W89921  33.256   3.746  24.139  0.0741  0.1300 -0.0614
46931W        W89922  23.531  34.021  24.398 -0.2759 -0.0043 -0.2075
46932W        W89923  22.890   3.777  25.571 -0.2389 -0.1824  0.1781
46933W        W89924  32.041   1.381  29.032  0.0749  0.3751  0.2200
46934W        W89925  18.971  30.742  27.505  0.0822  0.3036  0.2239
46935W        W89926  32.487   4.940   4.651  0.4005 -0.0362  0.0002
46936W        W89927  27.470   6.410   3.393 -0.1889  0.2490 -0.4015
46937W        W89928  12.351   4.416   2.198 -0.2079  0.1032 -0.0521
46938W        W89929  30.438   6.766  24.825 -0.1083 -0.0174 -0.3054
46939W        W89930  34.438   0.385  15.328  0.2715 -0.0252  0.1786
46940W        W89931   0.338   7.272   3.086 -0.1225  0.0069 -0.4787
46941W        W89932  31.285   1.271   6.968 -0.0073 -0.1973 -0.0349
46942W        W89933  29.627   8.014  14.011  0.0742 -0.3450 -0.0692
46943W        W89934  33.773  24.781   9.059 -0.0909 -0.2647 -0.0442
46944W        W89935   0.101  11.965  28.878  0.1377  0.1781  0.2992
46945W        W89936  12.202  13.025   4.514  0.2682 -0.3069  0.4426
46946W        W89937  24.203  17.887   3.460 -0.1687  0.0289 -0.1479
46947W        W89938  27.434  29.388   8.885 -0.2959 -0.1391 -0.3214
46948W        W89939  23.440   5.684   2.861 -0.4206  0.1546 -0.3650
46949W        W89940  15.280  34.480   5.247  0.0543 -0.0130  0.1424
46950W        W89941  20.170  34.551   6.758 -0.0358  0.0638  0.2263
46951W        W89942  31.470   2.055   4.034 -0.1611 -0.0693 -0.0466
46952W        W89943  23.623   7.408  12.344 -0.0575 -0.1755  0.1749
46953W        W89944   9.286   3.088  27.979 -0.0925 -0.0242  0.0422
46954W        W89945  31.910   3.483  17.066 -0.0072  0.1044  0.0650
46955W        W89946  34.066  22.685  28.681  0.0643 -0.1193 -0.1372
46956W        W89947  32.474  26.196   5.857 -0.1185 -0.1719 -0.0246
46957W        W89948  33.603  23.225   4.752  0.2329 -0.1827 -0.0803
46958W        W89949  29.237  32.792   1.432  0.0098  0.1114  0.2831
46959W        W89950  17.514   4.121   7.863  0.0831 -0.3315 -0.0893
46960W        W89951   8.483  28.914  22.067  0.3736 -0.0709 -0.0521
46961W        W89952   0.355  29.448  17.258  0.1033 -0.0011  0.2793
46962W        W89953  30.468  15.217  23.873 -0.2934  0.2304 -0.0649
46963W        W89954  26.899   1.163  14.859  0.0105  0.2972 -0.1306
46964W        W89955   9.829  31.592   7.842  0.0331 -0.2939  0.1292
46965W        W89956   3.233   8.657  10.084  0.0210 -0.1390  0.1515
46966W        W89957  15.514  16.234  15.171  0.0240  0.1256  0.1153
46967W        W89958  20.086   1.647   4.528 -0.4039 -0.0736 -0.1134
46968W        W89959   5.490  33.766   5.944 -0.0454  0.0059 -0.3548
46969W        W89960  32.454  10.938   3.981 -0.0003 -0.3277 -0.0134
46970W        W89961  16.042  10.444   4.710  0.1222  0.1101 -0.1473
46971W        W89962   3.846   0.375  25.667  0.2915  0.0102  0.0672
46972W        W89963   7.964   2.248  18.661 -0.0888  0.0091  0.0540
46973W        W89964  21.363   0.090  13.697 -0.2656  0.1816  0.0785
46974W        W89965   6.743  16.796   0.009  0.0830 -0.0367  0.0355
46975W        W89966   0.968  34.677  14.266  0.2000  0.2909  0.2460
46976W        W89967   5.612  32.946  25.812  0.2556 -0.2400 -0.1768
46977W        W89968  14.048   2.573  16.185  0.0219 -0.0549 -0.0588
46978W        W89969  30.040  20.425   3.937 -0.0058 -0.0558  0.0352
46979W        W89970  26.085   4.938  21.151 -0.4847  0.1674 -0.1206
46980W        W89971  16.476  27.848   1.000 -0.1099  0.1189  0.2676
46981W        W89972   9.070   9.564   9.773 -0.2864 -0.1553  0.1258
46982W        W89973  33.382   5.244  14.882 -0.3804 -0.2049 -0.4395
46983W        W89974   0.716   3.030  20.089 -0.4014  0.0423 -0.0209
46984W        W89975  30.626  17.061  21.937 -0.0476  0.1786 -0.0589
46985W        W89976  18.398   2.450  24.498  0.0610  0.1890 -0.3043
46986W        W89977  20.483  19.457  27.045  0.1040 -0.1483  0.3389
46987W        W89978  10.980  17.597  17.525  0.2169 -0.1704  0.1093
46988W        W89979   0.075  32.459   8.357 -0.3279  0.0223 -0.1382
46989W        W89980  23.421  31.482  25.947  0.0398  0.0565 -0.2160
46990W        W89981  18.499  31.763  21.169 -0.0624 -0.0250  0.1017
46991W        W89982  26.044  11.371   3.467  0.1925  0.0637  0.0292
46992W        W89983  25.541   6.141   8.866  0.0027 -0.0770 -0.0931
46993W        W89984   4.643  30.259   7.746  0.1089 -0.3812 -0.2480
46994W        W89985  21.496   6.865  15.942  0.0315 -0.1756  0.0143
46995W        W89986  22.334   9.728  29.063 -0.0103  0.2390  0.2684
46996W        W89987  27.601  31.007   8.180  0.2525 -0.0373  0.1668
46997W        W89988  28.028  10.439   4.091 -0.0625  0.1318 -0.1884
46998W        W89989  28.042   7.153  19.415  0.1846  0.1494  0.1221
46999W        W89990  33.358  12.010  22.750 -0.2145 -0.1328 -0.1834
47000W        W89991  24.355   0.928   3.994 -0.0123 -0.0306  0.2009
47001W        W89992  29.178  17.625  23.684 -0.2041 -0.0178 -0.0295
47002W        W89993   1.734  32.893  28.949  0.0533  0.0294  0.5846
47003W        W89994   2.638  25.043  16.561  0.2909 -0.3001  0.0800
47004W        W89995  25.319   8.921  27.976 -0.4242  0.0952 -0.0959
47005W        W89996  20.745  10.572  26.076 -0.2068  0.0230  0.0406
47006W        W89997  32.844  28.772  26.944 -0.1605 -0.0076 -0.1205
47007W        W89998  34.263  19.016   6.419  0.2577  0.1853 -0.0477
47008W        W89999   5.562  27.195   1.753  0.0678  0.0109  0.1865
47009W        W90000  28.370   3.402   8.928  0.3327 -0.0729 -0.2509
47010W        W90001  27.697  34.150  15.489  0.0963  0.0982  0.3279
47011W        W90002   7.409   8.904  17.063  0.1649 -0.0988 -0.0434
47012W        W90003   6.875   0.467  20.346  0.0805 -0.1290 -0.0128
47013W        W90004   3.475  30.085   2.453 -0.2575  0.2533  0.1962
47014W        W90005  30.579  16.308   7.848  0.2708  0.3841  0.1565
47015W        W90006   8.609  26.493   1.120  0.0709 -0.0704 -0.2313
47016W        W90007   1.674   2.410   3.798 -0.0955 -0.2146 -0.0735
47017W        W90008  27.527  17.811   2.132 -0.0551 -0.3552  0.0621
47018W        W90009  33.280  10.343  24.605  0.1961 -0.3096 -0.0598
47019W        W90010  27.674  29.631   6.249  0.1962 -0.2839  0.0986
47020W        W90011   9.768   2.986  10.999  0.0157 -0.0526  0.0917
47021W        W90012  16.758  16.412   4.972  0.2628 -0.2660  0.2643
47022W        W90013   3.947   2.322  10.382  0.1486  0.2399  0.0669
47023W        W90014   0.347  15.021  22.823 -0.1149 -0.4082 -0.2031
47024W        W90015  27.373  25.095  24.720  0.0137  0.1709 -0.1184
47025W        W90016  22.578   3.999  16.513 -0.0274 -0.0705  0.0947
47026W        W90017  30.362  31.990  29.115  0.2761 -0.0725  0.2265
47027W        W90018  32.884   5.095  18.726  0.2648  0.1534 -0.1799
47028W        W90019   2.918  17.097  15.926 -0.3915  0.0193  0.1706
47029W        W90020  10.265  29.611  21.294 -0.0881 -0.0581  0.2839
47030W        W90021   3.882  16.921   5.853 -0.5566  0.1654  0.0749
47031W        W90022  34.620  30.326  16.409 -0.0746  0.1186 -0.2763
47032W        W90023   3.644  31.293  21.780  0.2095 -0.0657 -0.1501
47033W        W90024   0.147  26.032  17.357  0.1675 -0.4540  0.0531
47034W        W90025  22.603  30.507  28.896 -0.2295  0.1512 -0.0649
47035W        W90026   3.101  25.870  29.198 -0.2161  0.2323  0.1337
47036W        W90027   3.025  13.649   2.806  0.1171  0.2218 -0.0631
47037W        W90028   1.532  27.618   6.964 -0.3416 -0.0436 -0.1491
47038W        W90029  33.645  11.177  24.592  0.0548 -0.1375  0.0530
47039W        W90030  10.610  30.621   4.743  0.0301  0.2290  0.1672
47040W        W90031   5.993  33.315  10.071 -0.1067 -0.0075  0.3937
47041W        W90032  18.724  33.503   5.743  0.1567  0.0384 -0.1742
47042W        W90033   0.991   3.744  27.243 -0.0799 -0.3326 -0.0563
47043W        W90034  29.535  12.131  20.387  0.1388 -0.3541  0.1485
47044W        W90035   0.720  22.654   9.940 -0.0996  0.1028  0.0349
47045W        W90036   0.487  21.388  26.098 -0.0569 -0.0568 -0.1168
47046W        W90037   5.204  32.804  29.059 -0.1563 -0.1059 -0.0316
47047W        W90038  15.105   0.393  26.900  0.2433  0.3953  0.3799
47048W        W90039   5.155   2.002  24.579  0.0209  0.0389  0.1129
47049W        W90040  26.906   6.867  15.255  0.1215 -0.2751 -0.1712
47050W        W90041  18.206  26.081  20.818  0.0202 -0.1725  0.0441
47051W        W90042  33.451  25.244  14.302  0.1187 -0.0744  0.0070
47052W        W90043   2.234   4.438  27.769  0.1310  0.0868 -0.0919
47053W        W90044  19.463   2.159   7.861  0.2471 -0.0590  0.1400
47054W        W90045  34.286   4.012  24.082  0.2274 -0.1735 -0.0369
47055W        W90046  22.266   8.326  20.165 -0.2471  0.0790 -0.0374
47056W        W90047  10.480  14.355  17.754  0.1232 -0.1850 -0.0477
47057W        W90048  31.583  11.725  22.415 -0.0264  0.1208 -0.1048
47058W        W90049  32.097  17.588  23.004 -0.3592  0.1296  0.1058
47059W        W90050  13.738   6.954   0.152 -0.0573 -0.0305  0.0995
47060W        W90051  10.420  11.287  25.707  0.0810 -0.3966 -0.0762
47061W        W90052  22.439  28.874  18.790  0.1573 -0.0778 -0.1606
47062W        W90053   3.662   0.925   4.174  0.0801  0.1840 -0.0029
47063W        W90054  17.092  12.456   4.131 -0.0330  0.2951  0.2774
47064W        W90055  30.731  34.238  26.319  0.1389 -0.1771  0.0073
47065W        W90056   2.998   2.792  22.880  0.3110 -0.1051  0.0924
47066W        W90057  22.993   6.219  19.313  0.2744 -0.3126  0.3735
47067W        W90058  10.001  13.959  22.065  0.0751 -0.0319  0.2094
47068W        W90059  31.803  31.226  21.737 -0.1437 -0.0572  0.0952
47069W        W90060   8.311  29.074  19.323 -0.4262 -0.1365  0.4030
47070W        W90061  25.913  11.800  22.884  0.4086 -0.1568 -0.0360
47071W        W90062  29.157  30.797  15.525 -0.0267 -0.2471  0.2267
47072W        W90063   0.886   8.713   1.106  0.5364 -0.2117 -0.1444
47073W        W90064   5.095   8.032  19.659  0.1321 -0.0105  0.1268
47074W        W90065  12.362  11.635  19.543 -0.2610  0.1397  0.0067
47075W        W90066  34.701  18.576   0.737  0.1816 -0.1972  0.0626
47076W        W90067  32.892   2.377   7.934 -0.1534 -0.1121 -0.1135
47077W        W90068   1.651  28.957  16.203  0.1177  0.3352  0.0417
47078W        W90069  16.862   5.115  22.643 -0.3122  0.0719  0.0646
47079W        W90070  25.884  13.819  25.535  0.0547  0.0888  0.2380
47080W        W90071  29.566  10.738  19.207 -0.0505  0.2176  0.2489
47081W        W90072  28.055   0.699   2.239 -0.1115 -0.2288  0.0236
47082W        W90073  30.166  34.110  14.164  0.0601  0.1401  0.1508
47083W        W90074   7.158  25.200  23.405 -0.1628  0.1649 -0.0928
47084W        W90075  14.665   5.804  28.740 -0.1521  0.0918 -0.0202
47085W        W90076  29.086  19.632  17.686  0.0005  0.0937  0.1008
47086W        W90077  29.862   9.261  28.129 -0.0860 -0.1566  0.1264
47087W        W90078   8.733  33.183  17.451 -0.1085  0.1671 -0.0406
47088W        W90079   2.294  33.787  15.027 -0.1492 -0.0540 -0.1652
47089W        W90080  12.087  33.981  18.038 -0.2564  0.2732 -0.1227
47090W        W90081   6.471   6.900  20.448 -0.2247 -0.0829 -0.4416
47091W        W90082  29.938   5.415  16.969  0.2084  0.1651 -0.4124
47092W        W90083   4.718  12.828   2.579  0.0594  0.1255  0.1753
47093W        W90084  25.538   9.918  16.920 -0.2486  0.0385 -0.0657
47094W        W90085  19.677   0.304  20.142  0.2082  0.2004 -0.0394
47095W        W90086  19.954   3.090  18.814 -0.3682 -0.3115 -0.4191
47096W        W90087  19.058  25.937   0.962  0.0574 -0.1151 -0.1442
47097W        W90088   1.724  21.448  19.927  0.3778 -0.0031 -0.0643
47098W        W90089  32.443   8.720  23.654 -0.0388  0.0303  0.0879
47099W        W90090   1.664  14.467  24.793  0.3772 -0.0821 -0.0085
47100W        W90091   4.099  23.787  20.708 -0.3641 -0.2847  0.1106
47101W        W90092  18.257  28.479   4.449  0.1325 -0.2551  0.2822
47102W        W90093  17.308  21.033   7.629 -0.0435  0.0582  0.0064
47103W        W90094  10.007   4.126  24.444  0.2417 -0.0438  0.1663
47104W        W90095   7.598   1.246  17.161  0.0418 -0.0540 -0.0343
47105W        W90096   1.592   2.519  22.603  0.1034  0.0782 -0.0051
47106W        W90097   3.956   2.478  20.472 -0.0857 -0.0055 -0.2156
47107W        W90098  31.310   2.049   0.629 -0.0723  0.0543 -0.4721
47108W        W90099  26.543  19.304  26.014 -0.1589  0.1740 -0.2087
47109W        W90100  27.595   6.615  18.972 -0.0504 -0.1351  0.1942
47110W        W90101   8.026  32.460  27.796 -0.1814  0.0618 -0.4118
47111W        W90102  34.462   9.932  16.926 -0.1306  0.0852 -0.0480
47112W        W90103  34.702  15.924  26.537  0.2589 -0.0032 -0.0438
47113W        W90104  29.886   3.276  27.879 -0.1477 -0.0071  0.0091
47114W        W90105  34.504   1.843  16.965 -0.2111 -0.1976  0.2967
47115W        W90106   2.486  13.303  25.151  0.3770  0.1874 -0.2145
47116W        W90107   2.616  20.911  25.697 -0.1482 -0.2268 -0.0716
47117W        W90108  32.636  23.549  22.073  0.1149  0.0161 -0.0171
47118W        W90109   5.799   4.236  15.412 -0.3282 -0.0414  0.0772
47119W        W90110  31.583  17.737  16.548 -0.3093  0.0167  0.2144
47120W        W90111  10.871  28.944   1.917 -0.1470 -0.4783 -0.1008
47121W        W90112   1.604   5.561   0.214  0.0301 -0.0555  0.4646
47122W        W90113   8.577  11.375  17.859  0.0180 -0.1475  0.0173
47123W        W90114  33.363   3.525  17.157  0.3405  0.1978 -0.1535
47124W        W90115   8.702  31.111  21.719 -0.1076 -0.0034 -0.0395
47125W        W90116  32.321  10.507  27.663  0.0529 -0.2961 -0.0725
47126W        W90117  16.601   1.668  18.595  0.1052  0.0268  0.0236
47127W        W90118   1.755  33.891  14.157  0.4233 -0.3621  0.1819
47128W        W90119  12.671   3.956  17.154 -0.2857  0.2053  0.2092
47129W        W90120   1.268  33.239  17.051  0.0142  0.2175 -0.1139
47130W        W90121  19.983  15.916  25.559 -0.1789 -0.1639  0.1086
47131W        W90122  20.150   8.306  16.653 -0.0729 -0.0083  0.1099
47132W        W90123   2.240   5.680  17.340 -0.0136 -0.2326  0.0952
47133W        W90124  18.557   9.804  16.058  0.1274  0.2388 -0.2497
47134W        W90125   5.781  15.377  25.877 -0.1950  0.2136 -0.1915
47135W        W90126  25.995  13.018  18.490 -0.1745  0.1544 -0.0419
47136W        W90127  33.377   2.189  22.840 -0.0690  0.0974 -0.3618
47137W        W90128  28.520   9.303  19.539 -0.4502 -0.0518  0.1395
47138W        W90129  33.573  19.249  29.059 -0.0066  0.0871 -0.0122
47139W        W90130  29.555  26.409  16.396  0.2086  0.1674  0.1388
47140W        W90131  29.057  34.527  22.087 -0.1186  0.2388  0.1917
47141W        W90132  17.748   9.328  16.029 -0.1253  0.0052  0.1154
47142W        W90133  31.229   1.297  25.018 -0.0019 -0.2874  0.0014
47143W        W90134  16.886  26.324   5.351  0.0724  0.0629  0.0510
47144W        W90135  27.955  30.055   0.143 -0.0643  0.1034  0.0019
47145W        W90136  28.603   2.163  18.691 -0.2246 -0.2674 -0.1275
47146W        W90137  27.465   6.027  22.731 -0.1788 -0.0696  0.0430
47147W        W90138  22.923   7.059  16.854 -0.1241 -0.2023 -0.1455
47148W        W90139  16.132   7.568  21.005 -0.0495 -0.3483 -0.0825
47149W        W90140   0.045   5.913  14.351 -0.0137 -0.0710 -0.0035
47150W        W90141  33.340  10.468  23.611 -0.1587 -0.0423  0.0502
47151W        W90142  18.243  19.498  13.024 -0.2577  0.2069  0.0015
47152W        W90143  13.922  10.945   0.619  0.0935  0.0681 -0.0100
47153W        W90144   2.932   7.115  21.658 -0.3036 -0.4794  0.1534
47154W        W90145   0.855  12.095   1.686 -0.3230  0.1332  0.1587
47155W        W90146   0.021   7.342  17.394 -0.0630  0.1007 -0.1276
47156W        W90147  29.905  12.315  15.844  0.2999  0.1414 -0.1119
47157W        W90148  29.913  10.157  26.268  0.1392 -0.0267 -0.0015
47158W        W90149  26.833   0.791  26.389 -0.1764  0.4718  0.0915
47159W        W90150  10.423   5.924  26.261 -0.0241  0.1089  0.2473
47160W        W90151  23.769  13.667   3.631  0.2657 -0.0419  0.1515
47161W        W90152  14.994  31.997  16.299  0.2074 -0.0144 -0.3135
47162W        W90153  11.958  17.984  20.542  0.1410  0.1893  0.0466
47163W        W90154  29.770   9.852  23.207  0.4559 -0.1169 -0.0467
47164W        W90155  30.820   5.171  26.032  0.0652  0.1128 -0.0603
47165W        W90156  12.857   3.762  20.996  0.1422 -0.1666 -0.0648
47166W        W90157  33.703   7.459  18.323  0.1071  0.3172 -0.0938
47167W        W90158   0.065   6.831  24.786  0.1679  0.1835  0.0108
47168W        W90159   9.863   4.809  20.534 -0.1731  0.0940 -0.2474
47169W        W90160  21.305  12.632  21.434 -0.0223 -0.1038 -0.0505
47170W        W90161   3.219   6.850  16.565 -0.0190  0.1934 -0.2093
47171W        W90162   1.967  34.409   1.872  0.0535  0.0497  0.0052
47172W        W90163  10.421  16.534  16.556  0.0636 -0.0023 -0.2870
47173W        W90164  30.009   3.025  14.939  0.2580  0.2481  0.1633
47174W        W90165   8.948  19.307  19.386  0.3597  0.0843 -0.1525
47175W        W90166  25.319   8.955  13.971  0.0217  0.0911 -0.1180
47176W        W90167  26.998  19.322  19.329 -0.1589 -0.1026 -0.2498
47177W        W90168   4.061   5.538  19.393 -0.1069 -0.2412 -0.2348
47178W        W90169  13.375   3.676   6.676 -0.1393 -0.2560  0.1472
47179W        W90170  30.124  28.013  24.837 -0.1889 -0.1378 -0.2781
47180W        W90171  30.761   3.777  15.467  0.1721 -0.4107 -0.0273
47181W        W90172  34.367  16.497  20.485 -0.1778  0.0438 -0.2399
47182W        W90173   9.003  25.549  20.060 -0.1190 -0.2799 -0.0731
47183W        W90174  30.091  32.708   3.668 -0.0693 -0.4075 -0.0946
47184W        W90175  34.185   8.670  17.388  0.3611  0.1415  0.0533
47185W        W90176  12.267  30.301  26.154 -0.1905 -0.0021  0.0165
47186W        W90177  30.095  17.908  26.199  0.1793 -0.0293  0.1024
47187W        W90178  10.246   1.241  23.369 -0.1692 -0.3411 -0.0367
47188W        W90179   2.632   8.009  23.218  0.0013 -0.1868  0.0441
47189W        W90180  22.531   1.856  25.581 -0.0834  0.0986  0.2100
47190W        W90181  29.641   5.013  17.897 -0.0582  0.1293  0.1508
47191W        W90182  33.059  19.439   1.169  0.0321  0.0159  0.3230
47192W        W90183  11.018  33.307  22.900 -0.3204  0.0397  0.0405
47193W        W90184   1.578   6.042  19.864 -0.1570  0.3006  0.0906
47194W        W90185  12.581  22.964  18.536 -0.0348 -0.3088 -0.2006
47195W        W90186  32.817   2.578  23.462  0.1908  0.0440  0.1964
47196W        W90187  17.865  34.612  16.940  0.1098  0.2569 -0.0666
47197W        W90188  30.649   3.143  19.615  0.0752  0.1044 -0.0099
47198W        W90189  28.746  10.399  19.413 -0.0430  0.0914 -0.0704
47199W        W90190  24.071   4.439   0.962 -0.0205  0.1122 -0.1137
47200W        W90191  33.584  18.473  16.170 -0.0204 -0.1024 -0.2051
47201W        W90192  19.783  16.338  16.003  0.0686 -0.2175 -0.0100
47202W        W90193   8.629  14.285  18.776 -0.0275 -0.2432  0.0841
47203W        W90194   5.207   4.744  24.588  0.1416 -0.0041  0.1655
47204W        W90195   7.253   7.575  22.249  0.3089 -0.1520 -0.0866
47205W        W90196   2.793   7.739  18.364  0.0210  0.0051 -0.0611
47206W        W90197   2.504  10.252  16.131  0.0758  0.0893  0.2431
47207W        W90198  32.392   1.766  16.593  0.0211  0.0290 -0.1002
47208W        W90199   0.377  34.299  24.447  0.1559 -0.1839  0.1069
47209W        W90200  27.190   1.418  14.448 -0.2300  0.1793  0.4824
47210W        W90201   6.360  26.010  15.082 -0.0627  0.1133  0.1757
47211W        W90202   2.667  24.903   6.263 -0.0879  0.0739 -0.1690
47212W        W90203  28.793  30.662  18.695  0.2205  0.0116 -0.1179
47213W        W90204   1.816   7.835  19.360  0.1663  0.0713 -0.0014
47214W        W90205   2.976  29.840  19.090  0.0474  0.0627  0.2561
47215W        W90206  18.314   0.217  28.584 -0.1679 -0.0033 -0.1707
47216W        W90207  18.857   1.484  22.052 -0.0973 -0.0800 -0.0907
47217W        W90208  20.129  32.858  23.885 -0.1389  0.1269  0.2883
47218W        W90209   2.443   3.918  24.428  0.0862 -0.1871  0.0924
47219W        W90210   7.311   0.617   9.441  0.0847 -0.3408  0.2484
47220W        W90211  23.683   0.376  13.526 -0.2109  0.0387 -0.2049
47221W        W90212  33.303  13.351  19.736  0.0444  0.4485  0.0955
47222W        W90213  25.074   9.022   2.335 -0.0713  0.0151  0.1163
47223W        W90214  25.961   9.680  17.789 -0.1016 -0.1420  0.1815
47224W        W90215  23.005   2.737  29.053  0.2037  0.2529  0.0602
47225W        W90216   3.378  21.186  27.354 -0.0517 -0.1324  0.0534
47226W        W90217  33.969  12.742  24.136  0.0624 -0.0993 -0.2582
47227W        W90218  28.106  33.781  15.541 -0.0989  0.2495  0.0524
47228W        W90219  29.150   0.457   1.666 -0.1259  0.3556  0.1009
47229W        W90220   3.590  11.499  15.981 -0.0041 -0.2124 -0.0896
47230W        W90221  15.455   1.988  22.734  0.2438 -0.1471  0.0610
47231W        W90222   1.576  18.402  18.649 -0.0970  0.0894 -0.4462
47232W        W90223  25.754   4.321  23.550 -0.1888 -0.2305 -0.2356
47233W        W90224  23.537  25.556  13.492 -0.1344 -0.1278  0.1415
47234W        W90225  34.208  23.454  19.462  0.1485 -0.1915 -0.1381
47235W        W90226  29.201  15.006  14.653  0.0290 -0.2611  0.2330
47236W        W90227   0.592  22.593  19.333  0.4684  0.0864 -0.2294
47237W        W90228  31.139  14.424  29.236 -0.1286  0.2591 -0.0050
47238W        W90229  34.509   6.398   5.234 -0.3479  0.1431 -0.1577
47239W        W90230  28.949  22.976  15.203  0.1197 -0.3912  0.1343
47240W        W90231   9.584  16.962  13.978  0.2570  0.0418  0.2082
47241W        W90232  32.494  24.697  14.634 -0.1778  0.0335  0.0536
47242W        W90233  28.611   5.384  21.414 -0.1848 -0.1957 -0.1173
47243W        W90234   1.555  30.652   3.183  0.0044 -0.1036 -0.1493
47244W        W90235   2.229   1.176  15.854  0.1586  0.0496  0.0556
47245W        W90236  25.254  32.445   0.698  0.2079 -0.1349 -0.0106
47246W        W90237  33.248  32.341  20.326 -0.0002  0.1862 -0.1491
47247W        W90238  34.325   4.025  23.198 -0.0165 -0.0284 -0.0775
47248W        W90239  26.822   6.250  24.790  0.1617  0.0582  0.0746
47249W        W90240  21.084   3.179  22.874  0.1142 -0.1872  0.2769
47250W        W90241  12.425  29.995  20.137 -0.0208  0.2392  0.0717
47251W        W90242   4.139   6.679  22.212  0.2035  0.0064  0.0617
47252W        W90243   0.593   3.463  20.403 -0.2295  0.2116  0.5239
47253W        W90244  25.735  26.494  16.054 -0.1012 -0.0912  0.3762
47254W        W90245  27.300  19.729  27.934 -0.2498  0.1499  0.1200
47255W        W90246  11.634  32.849  16.129 -0.4411  0.0370  0.0205
47256W        W90247  20.972  34.581  24.820  0.4222  0.0450 -0.1427
47257W        W90248   8.347  23.778  21.317  0.0599  0.0591 -0.2569
47258W        W90249  33.124   3.605  14.251  0.0555 -0.0497  0.1125
47259W        W90250   2.730  28.161  19.636  0.2120  0.0139  0.0625
47260W        W90251  28.719   2.433   8.746 -0.0367 -0.0886 -0.0474
47261W        W90252   4.008  14.027  18.838 -0.0552  0.1704 -0.1713
47262W        W90253   0.881  32.805  28.947 -0.2497  0.4518  0.1899
47263W        W90254  21.060   4.404  25.003  0.1250 -0.2594 -0.3179
47264W        W90255  28.183   1.911  16.473 -0.1230 -0.2382 -0.0538
47265W        W90256  28.734  33.700  14.331  0.0161  0.1962  0.0555
47266W        W90257  24.616   2.505  13.811 -0.0542 -0.1385 -0.0661
47267W        W90258  27.623  17.434  16.696 -0.0625 -0.0783 -0.4403
47268W        W90259   5.115   3.474  18.086  0.0023 -0.2578  0.0842
47269W        W90260   9.100   6.471  18.331 -0.0412  0.0778 -0.2265
47270W        W90261  20.213  12.773  25.690  0.0131  0.1949 -0.1367
47271W        W90262  17.561   6.583  28.217 -0.3234 -0.1963 -0.0721
47272W        W90263   1.459  14.568   0.910 -0.1315  0.1581 -0.1175
47273W        W90264   8.442  13.500  24.189  0.0184 -0.1749 -0.2000
47274W        W90265  28.596   8.396   9.800 -0.3018  0.1956 -0.2339
47275W        W90266  23.518   0.421  20.204  0.2129 -0.1717 -0.4195
47276W        W90267   6.122   3.977  18.145  0.1547  0.1251 -0.1755
47277W        W90268   3.405  32.211   9.275  0.0937  0.0568  0.2719
47278W        W90269   7.955  29.572  14.192 -0.0628 -0.0817 -0.0303
47279W        W90270  13.033  27.882  28.984 -0.1297 -0.0597  0.0579
47280W        W90271  30.698  12.815  18.546 -0.0057  0.5018 -0.3580
47281W        W90272   0.604  31.886  16.352  0.2628  0.1146 -0.2639
47282W        W90273  31.992   0.603  14.289 -0.0607  0.0011  0.2073
47283W        W90274  18.996  13.456  23.350 -0.0648 -0.0007  0.1684
47284W        W90275  15.571   2.899  18.267  0.1146 -0.2078  0.1405
47285W        W90276   0.224   9.941  16.920 -0.3650  0.1188  0.0361
47286W        W90277   5.983   6.287  16.337 -0.0626  0.1140  0.1692
47287W        W90278  21.258  11.288  24.284  0.1666  0.0110 -0.0419
47288W        W90279  28.052   3.942  18.341  0.3562 -0.2064  0.0140
47289W        W90280   0.105  13.846   3.853  0.0601 -0.0097 -0.2014
47290W        W90281  33.202  20.488  17.435 -0.0029 -0.0771 -0.1162
47291W        W90282  29.036  17.661  22.715 -0.0437 -0.0570  0.1572
47292W        W90283  14.315  15.349  20.845  0.6139 -0.1229 -0.0852
47293W        W90284  16.961   5.660  19.811  0.2364  0.1947  0.2145
47294W        W90285   6.336  13.359  19.423 -0.0261  0.1645 -0.0984
47295W        W90286  25.687   0.347  18.812  0.0445 -0.2170 -0.0870
47296W        W90287  12.329  28.192  21.975 -0.2195 -0.1586 -0.2759
47297W        W90288  13.386  33.506  27.365 -0.0953 -0.0460  0.0219
47298W        W90289  16.109   0.946  21.694  0.1717 -0.0177  0.1179
47299W        W90290   6.391   7.174  20.992  0.4509 -0.0391  0.2974
47300W        W90291   2.080   5.794   0.120 -0.2397 -0.0125  0.0789
47301W        W90292  30.708  14.573   1.210  0.0265 -0.1382  0.3245
47302W        W90293  33.242   0.294  17.007  0.0414 -0.0048  0.0056
47303W        W90294   4.611  23.069  22.241 -0.1919 -0.1519  0.2145
47304W        W90295  26.867  30.560  18.201 -0.4460  0.2302  0.0821
47305W        W90296  10.408   1.453  24.265 -0.2237  0.2498 -0.1212
47306W        W90297  26.224   4.142   2.273 -0.0181 -0.1449  0.1999
47307W        W90298  31.564  33.669   2.039 -0.0331  0.2202  0.0537
47308W        W90299  33.023   5.404  25.482  0.3052  0.0173 -0.1346
47309W        W90300   4.705  14.269  24.999 -0.1085 -0.2147  0.1261
47310W        W90301  19.583  33.226  24.340  0.0473 -0.0052 -0.2019
47311W        W90302   5.753  32.107  24.582  0.5393 -0.0539 -0.4637
47312W        W90303  28.100   9.428  27.778  0.0085 -0.1526 -0.1433
47313W        W90304   6.440  20.026   0.241  0.1376 -0.0928 -0.3747
47314W        W90305  13.219  23.715   4.752 -0.0034  0.2192 -0.1755
47315W        W90306  20.995   2.281  17.609  0.0070 -0.1027 -0.0529
47316W        W90307   6.777   2.827  22.123  0.0797  0.1524  0.2067
47317W        W90308   9.264  10.441   3.386  0.2145 -0.0443  0.1988
47318W        W90309  19.382  32.933  14.786 -0.1423 -0.1018 -0.1841
47319W        W90310   1.716  22.277  16.842  0.0802 -0.0702  0.0240
47320W        W90311   0.216   2.500  26.296  0.3289 -0.0949 -0.1462
47321W        W90312  32.666  22.099  27.183 -0.2552  0.0416  0.0025
47322W        W90313  23.842  11.269  26.457 -0.2601 -0.2065 -0.0735
47323W        W90314  22.140   2.268   1.655  0.3775 -0.0670 -0.0087
47324W        W90315   8.048  15.435   6.712  0.1189 -0.0179 -0.2113
47325W        W90316  32.078  14.201  17.715 -0.0813  0.0781 -0.0027
47326W        W90317  31.466   1.565  15.396 -0.0505  0.0644  0.1315
47327W        W90318  24.475   1.584   0.080 -0.0088  0.2125 -0.1243
47328W        W90319  11.186   5.917   3.068 -0.1483  0.3278  0.2476
47329W        W90320  30.017  13.624   0.874  0.3469 -0.1532 -0.0355
47330W        W90321   7.619   4.266  17.916 -0.3164  0.0056 -0.4134
47331W        W90322  30.050  18.873  19.065  0.1579  0.0638  0.0885
47332W        W90323  27.633   2.047  13.834 -0.1510  0.2695  0.2256
47333W        W90324  19.452  30.726  21.124 -0.1768 -0.2592 -0.1415
47334W        W90325   2.321  29.811  14.505 -0.1700  0.0189  0.1103
47335W        W90326  31.108   9.926  22.415 -0.0619  0.1311  0.0504
47336W        W90327  33.729   7.594  16.009 -0.1535  0.0400  0.0321
47337W        W90328   0.954   3.101  21.153  0.0453 -0.1231 -0.0027
47338W        W90329  15.494  16.560  25.753  0.2017  0.1083 -0.1424
47339W        W90330  24.929  30.629  14.282 -0.2290 -0.0510 -0.3195
47340W        W90331  30.474   7.274  18.591  0.3086  0.2858 -0.0706
47341W        W90332  25.674   6.519  16.685 -0.1369  0.0475  0.3633
47342W        W90333   4.423   6.079  18.960 -0.2051  0.2903  0.1146
47343W        W90334  10.017  19.568  23.667  0.2641 -0.2554  0.1881
47344W        W90335   4.386  11.385  18.016  0.1617  0.0320 -0.1048
47345W        W90336   1.280  13.166  15.455  0.1362  0.1529  0.3315
47346W        W90337  33.311   0.748  17.334  0.2059  0.0009 -0.3150
47347W        W90338   6.132  30.413  16.066 -0.1600 -0.1928  0.4007
47348W        W90339  18.437  14.034  24.768  0.1012  0.0862 -0.1810
47349W        W90340   2.209  22.439  17.688  0.0987 -0.2735  0.0624
47350W        W90341  23.773  22.177   7.547  0.1154 -0.1533 -0.0781
47351W        W90342  33.903  20.746  17.930 -0.0579  0.1658 -0.1214
47352W        W90343   6.539  31.938  23.731 -0.0126 -0.1083  0.0200
47353W        W90344  28.972   2.131   6.336  0.1762 -0.0257  0.0356
47354W        W90345   2.651  10.765  29.169  0.0686 -0.2553  0.0525
47355W        W90346   8.838   7.521  26.517  0.0108  0.1305 -0.3559
47356W        W90347  15.275   1.070  24.210  0.0596  0.1182  0.2707
47357W        W90348  33.428  13.501  24.591 -0.2813 -0.0376  0.1953
47358W        W90349   0.558   1.333  25.684  0.3224  0.2778 -0.0605
47359W        W90350  27.546  32.057  20.745  0.3722 -0.1775 -0.0200
47360W        W90351  28.999  10.330  22.877  0.0611 -0.1374  0.0860
47361W        W90352  21.482  10.274  16.269  0.2714 -0.2083 -0.3331
47362W        W90353  25.380   4.602   6.159  0.0834  0.0954 -0.1574
47363W        W90354   2.120   7.359  28.572  0.1182 -0.0702 -0.3625
47364W        W90355  16.029  27.346  29.208 -0.0277 -0.2159  0.1481
47365W        W90356  22.741  11.914  24.116  0.1902 -0.2549 -0.0200
47366W        W90357  27.911  27.757   7.449  0.2914  0.1650  0.0616
47367W        W90358  10.068  33.250  17.659 -0.0472 -0.0011 -0.2352
47368W        W90359  12.298   4.602  18.881  0.1770  0.0549  0.0135
47369W        W90360  29.701  16.392  29.225 -0.2958  0.1488 -0.0393
47370W        W90361  19.240   2.656  16.886  0.2986  0.3058 -0.1779
47371W        W90362   5.883   4.145  21.040 -0.2337 -0.1143  0.0474
47372W        W90363  31.073  25.481   1.536  0.3187  0.0105  0.0448
47373W        W90364  34.702  15.614  20.300 -0.0875 -0.0220 -0.0767
47374W        W90365   5.886  24.150  18.199 -0.0890 -0.0834 -0.3545
47375W        W90366  32.514   4.354  16.177 -0.0049  0.2136 -0.2833
47376W        W90367  23.753   8.081  17.037 -0.0863 -0.1067  0.5664
47377W        W90368  34.044  10.413  25.813 -0.4186 -0.0791 -0.0874
47378W        W90369   3.704   9.465  15.908  0.0610 -0.1130  0.0278
47379W        W90370  29.859  32.215  26.240  0.1783 -0.0397  0.2083
47380W        W90371  29.184   9.371  21.584 -0.2198  0.2752  0.2260
47381W        W90372  31.507  18.639  16.580  0.2312 -0.0771  0.0029
47382W        W90373  20.165   3.626   1.629 -0.0072 -0.2535  0.4075
47383W        W90374   8.591  13.703  20.384 -0.3938  0.0927  0.1158
47384W        W90375   5.840  11.233  23.155 -0.0501  0.1426 -0.1409
47385W        W90376  18.667  14.548  17.297  0.4036  0.1716 -0.0728
47386W        W90377  32.540   6.636  24.787  0.0272 -0.0648  0.3693
47387W        W90378  28.333  12.299  24.130  0.4120 -0.0965  0.1624
47388W        W90379  33.333  17.416  22.383 -0.0205 -0.1267 -0.0534
47389W        W90380  24.783   8.488  18.710  0.0492  0.0580  0.2207
47390W        W90381  27.589   0.060  23.934 -0.3052  0.1506  0.0257
47391W        W90382  28.990  33.252   1.546 -0.1758 -0.2319  0.3999
47392W        W90383  31.688  14.767  20.960  0.0037 -0.1188 -0.1778
47393W        W90384  11.488  32.991  24.959  0.0723  0.3024  0.1403
47394W        W90385  33.584   5.136  19.275  0.0316 -0.0095  0.2230
47395W        W90386   9.441  18.438   4.877 -0.3259  0.2139  0.1594
47396W        W90387  13.583   2.754  14.808  0.0528 -0.2223 -0.3980
47397W        W90388   3.513   3.673  28.027  0.0576 -0.0090  0.2696
47398W        W90389  30.329  25.283  15.487  0.3147  0.0651  0.0220
47399W        W90390   4.687   6.919  17.196  0.1296 -0.1418 -0.1756
47400W        W90391  22.841  32.149  17.316  0.1625  0.1748 -0.1150
47401W        W90392   3.872   6.764  20.119 -0.0828 -0.1285  0.0903
47402W        W90393   8.880   0.966   5.089 -0.0832  0.1090  0.0504
47403W        W90394  21.164  31.318  23.959 -0.2495  0.1163  0.3850
47404W        W90395   5.628  16.067  19.558 -0.0626  0.0956  0.0275
47405W        W90396  30.796  34.336  20.120  0.1965 -0.0956  0.1404
47406W        W90397  26.280   0.313  18.112 -0.1601 -0.0580  0.2218
47407W        W90398  28.323  27.379  20.830  0.4504  0.3220  0.1321
47408W        W90399  28.631   8.992  17.327  0.2952  0.0141 -0.0309
47409W        W90400  22.077  32.270  18.190 -0.0512  0.0088 -0.1464
47410W        W90401  34.076   7.832   1.097 -0.1475  0.1594  0.1577
47411W        W90402  28.783   0.500  25.610  0.0475  0.0559 -0.0300
47412W        W90403   5.309  14.623  24.348  0.1247 -0.1721 -0.1124
47413W        W90404   3.607  33.000   2.742  0.4417  0.3123 -0.1314
47414W        W90405  32.723  24.535   8.413  0.0863  0.3396 -0.1079
47415W        W90406   0.936  18.138   5.177  0.0108  0.3099 -0.0047
47416W        W90407  26.451   9.035  21.204  0.1245 -0.1144 -0.1777
47417W        W90408   5.408  27.579  26.810 -0.2032 -0.1758  0.0496
47418W        W90409   6.517  15.881  15.094  0.1125 -0.2320  0.0593
47419W        W90410   5.241   7.242  17.258 -0.0474 -0.1017  0.0040
47420W        W90411  20.780  12.891   1.707 -0.0877  0.0912 -0.0069
47421W        W90412  33.748  30.496   8.366  0.0570  0.0898  0.0797
47422W        W90413  33.063  26.562  26.236 -0.0574 -0.2879  0.0767
47423W        W90414   0.548  14.883  24.189 -0.0292 -0.3784 -0.1007
47424W        W90415   8.943  13.768  25.751 -0.1612  0.1664  0.3592
47425W        W90416  16.242  15.989  13.277 -0.0796 -0.0132  0.2566
47426W        W90417  31.689  13.489   5.453  0.0798 -0.1342 -0.4451
47427W        W90418   2.265   5.654  18.950 -0.0253 -0.1097  0.4453
47428W        W90419  20.169   0.931  26.295  0.0368  0.4024 -0.1496
47429W        W90420   7.441  30.413  23.501 -0.1295 -0.0197 -0.2791
47430W        W90421   2.640  32.166  18.175 -0.3152 -0.0722  0.0629
47431W        W90422  28.311  15.793  22.142 -0.3012  0.2069 -0.1533
47432W        W90423  19.556   4.683  16.436  0.1485  0.1300 -0.2510
47433W        W90424  23.083  34.219  24.469 -0.1443 -0.2295 -0.1879
47434W        W90425  23.926   4.295  27.989  0.0541  0.1421 -0.1861
47435W        W90426   2.286   9.235  23.381  0.3484 -0.1210 -0.1111
47436W        W90427  28.263  11.095  27.013 -0.2871 -0.0557 -0.1684
47437W        W90428  31.850  32.162  20.659  0.1610  0.0182 -0.0103
47438W        W90429   5.981   3.477  15.880  0.0953 -0.2397 -0.1118
47439W        W90430   0.233  23.246  21.303 -0.1522  0.1069  0.0102
47440W        W90431  25.557  11.658  14.836  0.2738  0.0533  0.3556
47441W        W90432  31.390   2.157  15.033 -0.2030 -0.2603 -0.1106
47442W        W90433   2.659   3.889  16.311 -0.1311  0.0196 -0.3913
47443W        W90434  34.713  18.814   2.981  0.1204  0.0843  0.0588
47444W        W90435   6.512  15.405  17.323  0.1392  0.0243 -0.2169
47445W        W90436   5.665   1.225  15.835 -0.1048 -0.1269 -0.0757
47446W        W90437  33.942  32.982  17.628  0.2525  0.4616 -0.2170
47447W        W90438  29.408   5.826  17.414  0.0526  0.0358  0.2443
47448W        W90439  12.516   9.030   1.062  0.1410 -0.3424 -0.0547
47449W        W90440  30.656  20.595   7.166 -0.0967  0.3573 -0.4230
47450W        W90441  26.970   8.775  18.821  0.1363 -0.3187  0.0420
47451W        W90442   3.279  12.042  25.794  0.1804  0.3255  0.2898
47452W        W90443  32.171   4.588  19.188  0.2536  0.0933 -0.0986
47453W        W90444  23.819   5.004  15.124  0.0920  0.3037 -0.0033
47454W        W90445  18.626   1.445  14.168  0.2046  0.1770  0.0929
47455W        W90446   7.902  19.221  16.124  0.0278 -0.2880  0.0865
47456W        W90447   1.082   2.444  16.612 -0.2657  0.1055 -0.1695
47457W        W90448  25.387  13.856  22.771  0.1482  0.1036  0.2668
47458W        W90449   8.225  28.679  20.731 -0.3676  0.1289  0.0104
47459W        W90450   4.878  29.374  17.980 -0.2714 -0.0264  0.0293
47460W        W90451   1.805  13.083  27.723 -0.0132  0.4039  0.1618
47461W        W90452  19.275   2.595   3.328 -0.1165 -0.0857  0.3317
47462W        W90453  28.365   8.935  19.292  0.2356  0.0161 -0.2540
47463W        W90454   4.886  13.001  20.306  0.0021 -0.1228 -0.0331
47464W        W90455  31.313  10.695  19.587 -0.1896 -0.0030  0.2531
47465W        W90456  33.273  32.824  22.746  0.2047  0.0446  0.0879
47466W        W90457  13.470   8.194  17.255  0.0612 -0.5248 -0.1493
47467W        W90458  12.492   5.414   1.829  0.3706  0.1325  0.0495
47468W        W90459  32.238   8.556  15.988  0.1019 -0.3411 -0.1326
47469W        W90460  16.294   6.176  22.577 -0.1042 -0.0406  0.1362
47470W        W90461  30.724  32.760   0.108 -0.0682 -0.0866  0.0867
47471W        W90462  16.643   1.983  20.845  0.1637 -0.0247  0.1309
47472W        W90463  31.913  21.734  23.799 -0.1113 -0.2397 -0.0665
47473W        W90464  29.732   9.061  20.103  0.0567  0.0745 -0.1929
47474W        W90465   4.596  33.690  14.809  0.0437  0.1639  0.1337
47475W        W90466  30.659   9.203  25.419 -0.0630  0.0565 -0.1171
47476W        W90467  29.712   9.714  20.911 -0.1802 -0.1249  0.1312
47477W        W90468   3.652  14.022   4.828  0.1126  0.0648 -0.4383
47478W        W90469   0.462   9.395   4.158  0.2778 -0.0505 -0.0308
47479W        W90470  26.781  34.627  13.028  0.0954 -0.2137  0.1573
47480W        W90471  12.617  20.160  17.120 -0.2533 -0.0458 -0.0381
47481W        W90472  31.443  27.361  14.823 -0.0183  0.3257 -0.2539
47482W        W90473   8.740   7.345  22.643  0.2158 -0.1009  0.1653
47483W        W90474  14.588  29.319  26.741 -0.0553  0.0866  0.1689
47484W        W90475  29.022  16.141  27.908  0.1423 -0.0203  0.2519
47485W        W90476  29.967  10.793  23.132 -0.0276 -0.1927  0.0173
47486W        W90477   0.875  28.089   4.805 -0.0370 -0.1902 -0.0170
47487W        W90478   0.355  23.787   1.468 -0.1598 -0.1338  0.1715
47488W        W90479  24.314  34.324  27.250  0.0817  0.2534 -0.0637
47489W        W90480  32.064   1.385   1.766  0.2690  0.0828 -0.0733
47490W        W90481  14.329  26.190  23.079  0.0886 -0.1381 -0.1278
47491W        W90482   6.590   5.808   3.964 -0.6718  0.1227 -0.2203
47492W        W90483  18.186  21.065  12.530 -0.0573 -0.1113  0.2367
47493W        W90484  27.980  19.509  19.008  0.1874  0.3607  0.1644
47494W        W90485  26.715   4.517   4.742 -0.0650 -0.0893 -0.0662
47495W        W90486  34.586   3.995  16.787 -0.1001  0.1855 -0.1443
47496W        W90487  23.078  29.710   6.662 -0.4091 -0.1204 -0.0888
47497W        W90488  25.545  28.285  14.642  0.4530 -0.1528  0.0899
47498W        W90489  23.388  32.955  20.819 -0.3499 -0.1520  0.3037
47499W        W90490  23.483  14.101  17.082 -0.1313 -0.0160 -0.1454
47500W        W90491  33.639  31.155  17.508 -0.0439 -0.0619  0.0138
47501W        W90492   1.190  25.123   5.107 -0.2717  0.0172  0.2176
47502W        W90493  31.807  22.482   7.848  0.1214 -0.3340 -0.1389
47503W        W90494   5.194  26.603  18.352 -0.0408 -0.0641  0.0214
47504W        W90495   9.189  32.381   4.603 -0.0385  0.0612 -0.1744
47505W        W90496  33.313   7.270  19.770  0.1560  0.2245 -0.0632
47506W        W90497   8.692   1.760   6.935  0.1274 -0.2224 -0.1317
47507W        W90498  10.259   6.460  17.626  0.2731  0.0878  0.2640
47508W        W90499   1.022  31.815   8.847  0.2554 -0.2022 -0.3612
47509W        W90500  32.194  15.185  23.990  0.1527  0.0185 -0.3076
47510W        W90501  18.646   8.125  18.950  0.2134 -0.3320 -0.0788
47511W        W90502  12.225  30.909   4.834  0.0104  0.0063  0.0785
47512W        W90503  22.966  24.104  23.644 -0.2888  0.2733 -0.0137
47513W        W90504  19.519   4.954   8.383 -0.1697  0.1008 -0.1084
47514W        W90505   2.525   0.798   7.564  0.0801  0.3134  0.3076
47515W        W90506  23.339  33.538   3.713 -0.0185  0.0676  0.0026
47516W        W90507   7.590   1.510  22.920  0.0208  0.1440 -0.0000
47517W        W90508  20.540   2.216  14.943  0.1704  0.0513 -0.0461
47518W        W90509   2.146   8.569  20.524  0.1448 -0.0736 -0.0728
47519W        W90510  32.761   1.836  20.954  0.2662 -0.0137  0.0873
47520W        W90511   8.137   7.263   1.201  0.0335 -0.3732 -0.0168
47521W        W90512  26.717  18.091  28.451 -0.2340  0.0925  0.3246
47522W        W90513  28.985  14.966  17.621  0.1257  0.1728  0.0067
47523W        W90514  34.513  13.365  21.301 -0.3117 -0.2807 -0.0964
47524W        W90515   6.680  34.103   2.644  0.1537 -0.1500  0.2530
47525W        W90516  30.178  22.928  23.898  0.0473  0.0480  0.0138
47526W        W90517  21.183  13.587  22.442 -0.0810 -0.1433 -0.1148
47527W        W90518   2.892  15.145   6.095  0.3812  0.2361 -0.0569
47528W        W90519  26.004  15.078  20.856  0.1301  0.2319  0.1184
47529W        W90520  19.343   3.882  24.801  0.1327  0.0422 -0.0746
47530W        W90521   0.552   3.505  24.949  0.0552 -0.1695  0.1763
47531W        W90522   3.717   6.949  29.153 -0.0464  0.0337 -0.0383
47532W        W90523  12.216  32.363   1.202  0.1354  0.2667  0.0485
47533W        W90524   1.853   6.743  20.277  0.1929  0.0930 -0.1245
47534W        W90525  30.803  24.840   2.652  0.1825 -0.2672  0.0711
47535W        W90526  33.255   9.956   3.734  0.1909 -0.0718  0.5151
47536W        W90527  32.942  16.667   7.178  0.3560 -0.2967  0.2026
47537W        W90528   9.742  33.929   6.088  0.0033 -0.1648  0.0402
47538W        W90529   1.459  12.305  17.745 -0.2099 -0.0430  0.0609
47539W        W90530   6.324  14.843  20.455  0.2244 -0.1503  0.1258
47540W        W90531  27.699   2.946   2.484 -0.0376  0.1081  0.0423
47541W        W90532  33.706   8.100  21.723  0.1426  0.0382 -0.1665
47542W        W90533  34.284   7.117  20.168 -0.2840 -0.0716 -0.2750
47543W        W90534  32.857  30.179   0.580 -0.0553 -0.0282 -0.0253
47544W        W90535  24.200   6.604  18.118 -0.1161  0.1511  0.2475
47545W        W90536  15.919  25.706  17.295 -0.0943 -0.4038  0.0036
47546W        W90537  29.323   7.485  29.202  0.2461  0.0870  0.1967
47547W        W90538  11.588  33.486  25.122 -0.2871 -0.2086  0.2998
47548W        W90539  24.001  19.031  17.829  0.0202 -0.0357 -0.0144
47549W        W90540  27.423  22.243   9.314  0.4009  0.1596 -0.3744
47550W        W90541   5.624   3.464  28.343  0.2703  0.1113  0.0775
47551W        W90542   0.770   6.560   9.967  0.1156 -0.1555  0.1418
47552W        W90543  10.511  33.480  15.657  0.0776  0.2404  0.0241
47553W        W90544  28.359  29.019  13.437 -0.1834 -0.1696 -0.1288
47554W        W90545  10.082   0.894  21.049 -0.2463 -0.2086  0.1371
47555W        W90546   0.954  32.550  23.306 -0.0156 -0.1891  0.3216
47556W        W90547  10.958  34.474   0.157  0.0077 -0.0902  0.2673
47557W        W90548  28.916   5.706  17.643 -0.0283 -0.2397 -0.0363
47558W        W90549  23.993  17.199   1.237  0.0488 -0.0338  0.2353
47559W        W90550   9.218   5.550   2.732 -0.0768  0.1167 -0.0210
47560W        W90551  23.849   8.876   0.031  0.1087 -0.0046 -0.1858
47561W        W90552  34.678  29.887  15.984  0.0806 -0.2613  0.1151
47562W        W90553  16.582  10.277  14.928  0.0341  0.2452  0.4308
47563W        W90554  23.372  10.201  27.521 -0.1640 -0.3434 -0.3152
47564W        W90555  34.326   2.520  22.925  0.0555  0.2737  0.0981
47565W        W90556   9.153  13.834   3.251  0.1768 -0.3527 -0.1040
47566W        W90557  16.380   7.214   1.593  0.3416  0.1273 -0.1997
47567W        W90558  20.564   4.760  16.058 -0.4429  0.1106 -0.3470
47568W        W90559   9.000  10.060  20.622  0.0749 -0.1378  0.0308
47569W        W90560   9.236   7.218   7.412 -0.0489  0.3643 -0.1662
47570W        W90561  28.213   2.495   3.112  0.0737  0.2001 -0.1005
47571W        W90562   3.040   9.402  21.116  0.0131  0.0775 -0.2607
47572W        W90563  31.384   8.935   9.255  0.0512  0.2685  0.2423
47573W        W90564   3.513  18.191   0.586  0.0356  0.2035 -0.1527
47574W        W90565  24.479  33.144  22.020  0.0594 -0.1790  0.0077
47575W        W90566  33.429  34.285  16.157  0.1524  0.2047  0.0678
47576W        W90567  16.824   3.118   6.502  0.0236 -0.0283  0.0914
47577W        W90568  10.550  34.542  14.905  0.1845  0.1136 -0.0563
47578W        W90569  31.560   1.548  21.883 -0.2183 -0.0669 -0.1784
47579W        W90570  22.450   7.700  19.010  0.1268  0.0425 -0.1353
47580W        W90571  12.647  12.510  14.690  0.1152  0.0711 -0.0136
47581W        W90572   2.353  31.293   6.876  0.0816  0.1926  0.4124
47582W        W90573   7.654  30.987   0.389  0.1203  0.1961 -0.1225
47583W        W90574  33.458  33.109   4.175 -0.2155 -0.4050  0.0253
47584W        W90575  11.300  31.621   2.739 -0.1878  0.2350  0.1107
47585W        W90576   5.226   1.084  16.571 -0.1499  0.1170  0.0990
47586W        W90577   8.255  12.541  15.335 -0.0380  0.3121 -0.0195
47587W        W90578  33.870  17.810  16.766  0.2384 -0.1614 -0.0450
47588W        W90579   2.095   4.611   2.855  0.2746  0.2425 -0.1849
47589W        W90580  30.750   0.747   2.360  0.0675  0.1535 -0.0724
47590W        W90581   1.480  27.955  23.659  0.0472  0.1256 -0.1886
47591W        W90582  25.410  13.277  13.731  0.3497 -0.0587 -0.3768
47592W        W90583   8.095  24.004   6.947  0.1021 -0.1992  0.0867
47593W        W90584   9.937   6.356  28.249  0.1492 -0.3229 -0.0274
47594W        W90585   4.085   8.972   3.857  0.0629  0.1220 -0.4414
47595W        W90586  10.942   6.375  23.548 -0.1302  0.0423  0.0981
47596W        W90587   1.586  31.221  14.289  0.0638  0.0926  0.1751
47597W        W90588   6.308   3.284  25.143 -0.0540  0.0800  0.1487
47598W        W90589   1.923   7.293   7.994  0.2131 -0.0431 -0.3933
47599W        W90590   6.036   0.472  19.686  0.0340 -0.1777  0.1364
47600W        W90591  10.461   6.246  16.705  0.0563 -0.1035  0.1854
47601W        W90592   0.254   0.919  14.343  0.0577  0.4640 -0.0072
47602W        W90593  33.668  27.705  22.711 -0.0128 -0.0286  0.1740
47603W        W90594  28.236  17.944  18.893  0.0604 -0.2950  0.3606
47604W        W90595  26.130   7.834  14.182  0.2045 -0.0660 -0.3731
47605W        W90596  31.045   8.821  17.516 -0.0790  0.1061 -0.1280
47606W        W90597   5.090   5.537   0.840 -0.1350 -0.2072  0.0499
47607W        W90598  22.843  15.817  15.428  0.0429 -0.0698  0.0582
47608W        W90599  34.076   4.648  19.707 -0.1802 -0.2070  0.0288
47609W        W90600  34.227  32.454  28.930 -0.1381 -0.0893  0.1834
47610W        W90601   3.959   7.032  21.091 -0.0498 -0.1306 -0.1532
47611W        W90602   9.011  26.983  15.066 -0.3408  0.2125  0.1485
47612W        W90603   4.198  30.352  21.920 -0.3130  0.0464  0.0611
47613W        W90604   9.455   7.520   8.315  0.0306  0.1245 -0.1348
47614W        W90605  33.160  18.743  23.616 -0.1442 -0.1154 -0.0323
47615W        W90606  17.989  13.134   6.578 -0.2427  0.0520 -0.0139
47616W        W90607  25.214   4.513  14.994 -0.1805  0.0653  0.4033
47617W        W90608  30.852   8.646  18.742  0.1860  0.3626  0.0364
47618W        W90609  29.632   9.224  29.104  0.3156 -0.2297  0.1629
47619W        W90610   4.872   1.687  16.099 -0.1313 -0.1925  0.4591
47620W        W90611   9.312  32.481   7.498  0.2897 -0.1081  0.0041
47621W        W90612   7.249   3.302  25.897  0.0461 -0.0819  0.5450
47622W        W90613   6.945   5.400  24.491  0.1709  0.0929 -0.1449
47623W        W90614  28.199   3.623  21.793  0.2287  0.2044  0.3091
47624W        W90615   1.299   4.582   2.230  0.2244 -0.2208 -0.0920
47625W        W90616  26.359  12.547  18.212  0.4318  0.0370  0.2270
47626W        W90617  10.564  34.234  21.277 -0.1594  0.0059  0.1263
47627W        W90618   2.145   7.355  21.583 -0.0961  0.3631  0.2011
47628W        W90619  27.703   9.765  27.151 -0.4735  0.0781  0.1932
47629W        W90620  31.248  15.596  17.740  0.0343  0.0329  0.1023
47630W        W90621  26.809   3.145  17.540 -0.2857 -0.0876  0.0350
47631W        W90622  26.188  25.454  16.421  0.0337 -0.2165  0.1648
47632W        W90623   1.405   1.075   9.830 -0.1441  0.1242 -0.1278
47633W        W90624  31.751   9.990  21.552 -0.1687  0.0063  0.3088
47634W        W90625   1.045   9.702  10.678  0.2401  0.1495 -0.0118
47635W        W90626  19.854  22.947  21.940  0.2116  0.0883 -0.1277
47636W        W90627  24.687   3.810  18.703  0.3679  0.2905 -0.0306
47637W        W90628  34.002  13.611   9.118 -0.0104  0.3113  0.1000
47638W        W90629  33.102  29.596   4.252 -0.3011 -0.2758  0.4439
47639W        W90630  16.564  10.027  25.236  0.2266  0.2454 -0.3634
47640W        W90631   5.482  19.022   9.744  0.0409  0.0743 -0.3297
47641W        W90632  27.547  20.447  26.529 -0.0571 -0.1544 -0.0892
47642W        W90633   3.239   6.864  28.144 -0.2618 -0.1976  0.0360
47643W        W90634  11.281  15.044  23.253  0.0029 -0.2519 -0.1905
47644W        W90635  14.320  33.787  18.860 -0.3286  0.0216 -0.1479
47645W        W90636   4.156  16.395   4.134 -0.3225 -0.1731  0.2574
47646W        W90637  32.110   6.959   5.908  0.0431  0.0558  0.2220
47647W        W90638  11.599   4.075   9.644 -0.1581  0.0036  0.1272
47648W        W90639  23.306  30.634   5.490 -0.0075  0.0704 -0.2282
47649W        W90640   3.122  21.324  16.816  0.1091 -0.1376  0.2272
47650W        W90641  31.685  14.825  19.006  0.1666  0.2263 -0.1255
47651W        W90642   1.584   2.125  17.855  0.1940 -0.0938  0.0597
47652W        W90643   1.615  18.034  21.415 -0.1708  0.2190  0.0253
47653W        W90644  24.086  11.967  25.731 -0.0339  0.2052 -0.2866
47654W        W90645  11.470  30.652   6.760 -0.3549 -0.0652 -0.2631
47655W        W90646   1.353   8.320  17.906 -0.1599  0.1479  0.0289
47656W        W90647  26.808  14.179  18.980  0.2199  0.1240  0.2827
47657W        W90648  16.754  10.947  17.545  0.0510 -0.0973 -0.1318
47658W        W90649  31.497   6.165  27.818 -0.0132 -0.0713  0.0417
47659W        W90650  11.431  18.677  18.968 -0.0496 -0.3871  0.2735
47660W        W90651  17.211  22.019  17.143  0.0141 -0.2538  0.0901
47661W        W90652  33.420  12.729  17.936  0.0185 -0.0884 -0.1465
47662W        W90653   2.629  18.656   4.388 -0.0362 -0.2470  0.1199
47663W        W90654   3.404  28.100   8.972 -0.0543 -0.2677 -0.1470
47664W        W90655  12.758   0.541  19.574  0.2319  0.0768  0.1472
47665W        W90656   0.459  17.171  25.620 -0.1670  0.1547 -0.0747
47666W        W90657   1.792   0.376  24.113 -0.2694  0.1221 -0.1489
47667W        W90658   9.621   5.427   1.995  0.0023  0.0994 -0.1719
47668W        W90659  19.613  19.345  12.151 -0.2075 -0.1003 -0.1461
47669W        W90660  29.353  28.364  18.482 -0.0590 -0.1084 -0.3022
47670W        W90661   1.574  14.193   9.890 -0.1546  0.1006 -0.2199
47671W        W90662  30.848  22.745   7.650  0.0871 -0.0064  0.1579
47672W        W90663  12.108   8.685  18.588 -0.0533 -0.4645  0.1184
47673W        W90664   4.626  10.550  19.679  0.1536 -0.0962 -0.1375
47674W        W90665   1.972   4.538  19.324  0.1095 -0.2910 -0.1325
47675W        W90666  24.849  14.901  22.256  0.2506 -0.0535  0.0086
47676W        W90667   6.303  32.997  19.156 -0.0635  0.1373 -0.2215
47677W        W90668  26.930  26.098  29.008  0.1820  0.0942 -0.0046
47678W        W90669   0.332   4.039  18.596  0.0218 -0.2420 -0.1152
47679W        W90670   5.816  14.056   5.277  0.0266 -0.1685  0.0774
47680W        W90671  33.418  19.035   7.182  0.1174 -0.2780  0.0210
47681W        W90672   1.421  33.945  20.912 -0.0846  0.2152 -0.0130
47682W        W90673   4.675   8.088   3.354  0.1075 -0.0031 -0.2286
47683W        W90674   8.469   7.085  21.385 -0.0797 -0.1999 -0.0694
47684W        W90675  24.133   4.636   8.518  0.0283 -0.2476  0.2162
47685W        W90676  17.990   0.298  19.548  0.1664 -0.1314  0.0518
47686W        W90677  28.158   1.030  17.754 -0.2865 -0.1817 -0.4030
47687W        W90678   2.442   4.967  23.899 -0.0540 -0.2077  0.0714
47688W        W90679  29.423   6.958  14.286  0.1898 -0.0126  0.1907
47689W        W90680  26.440   6.916  25.329  0.0855 -0.5131  0.0754
47690W        W90681  11.461  24.028  14.804 -0.1346 -0.0304 -0.0091
47691W        W90682  25.659   4.179  24.581 -0.1424  0.0157  0.0636
47692W        W90683   0.323  29.970  24.094 -0.0461  0.0522  0.0916
47693W        W90684   2.945   9.770  24.665  0.0823  0.1254  0.2225
47694W        W90685   3.072   5.741   6.459  0.3293  0.0868 -0.2212
47695W        W90686  24.255  18.718   7.010  0.2124 -0.0709 -0.0084
47696W        W90687   5.491   0.178   5.964  0.0426 -0.1112  0.0625
47697W        W90688  14.478  32.551  15.829 -0.0550  0.0855  0.1466
47698W        W90689  31.136  18.995   8.923  0.0172 -0.2253  0.0451
47699W        W90690  11.108  22.037  22.832 -0.0479  0.3970 -0.0312
47700W        W90691  26.270  11.936   7.860 -0.2037  0.0052  0.0535
47701W        W90692  31.215   8.354  14.742  0.1287  0.2792 -0.2754
47702W        W90693  24.726  22.581  16.181 -0.0450 -0.0432 -0.0727
47703W        W90694  13.542  30.453  14.489  0.0786 -0.2672  0.4802
47704W        W90695  13.764  18.372  29.152  0.1561  0.0430  0.1613
47705W        W90696   7.666   7.454   5.641  0.2040 -0.1073 -0.0189
47706W        W90697  30.490   9.136  20.519 -0.2804  0.2441 -0.1476
47707W        W90698  20.976   9.894  26.077  0.0448 -0.1439  0.0321
47708W        W90699  11.036   6.559  20.478  0.1859 -0.2300  0.1435
47709W        W90700  22.814  10.601  23.781  0.0331 -0.2956 -0.0222
47710W        W90701  30.456  34.207  20.900 -0.4446 -0.0004  0.0959
47711W        W90702   9.240  14.545  16.805 -0.0901  0.0414  0.0468
47712W        W90703   0.591   5.974  22.893 -0.1559  0.1029 -0.2283
47713W        W90704   0.379   7.162   5.296  0.2007 -0.0870  0.2858
47714W        W90705   5.478  18.660  25.718 -0.1583  0.0542  0.1734
47715W        W90706  27.820  11.621  22.728  0.2322  0.5742 -0.0358
47716W        W90707  24.741  34.077  21.716  0.2224 -0.2538 -0.0230
47717W        W90708  13.616  34.769   0.815 -0.1123 -0.1058  0.2392
47718W        W90709   9.492  24.511  23.940 -0.2178 -0.2124 -0.1210
47719W        W90710  27.113  14.020   9.513  0.0190 -0.0802 -0.1903
47720W        W90711  20.459  13.021  27.904 -0.0454  0.2280  0.0755
47721W        W90712  26.605  26.652  28.529  0.0575  0.0313  0.0338
47722W        W90713  29.830  18.180  27.888  0.1432  0.2998  0.1293
47723W        W90714  27.641   2.170  19.599 -0.2188 -0.1293  0.0749
47724W        W90715   8.918   8.612  17.281  0.4654 -0.1035 -0.0119
47725W        W90716  24.087   6.511   4.032 -0.2256 -0.0045 -0.2158
47726W        W90717   1.054  14.392  24.003 -0.4160 -0.0813  0.3729
47727W        W90718   3.676  30.763  23.763 -0.1503  0.1500 -0.0007
47728W        W90719  23.008  28.948   1.542 -0.0818 -0.3098 -0.2489
47729W        W90720   2.524   0.427   2.328 -0.0406 -0.2955 -0.1955
47730W        W90721  22.151  10.533   1.474  0.2975 -0.0727  0.1855
47731W        W90722  27.880   7.904  21.058 -0.0792 -0.2814  0.1022
47732W        W90723   3.487   2.481   0.081 -0.1478  0.1080 -0.1361
47733W        W90724   2.130   8.974  23.823 -0.0303 -0.0217  0.0398
47734W        W90725  16.759  11.201  29.173 -0.2482 -0.0196 -0.2029
47735W        W90726   4.855  24.465  24.083  0.0778  0.1159 -0.2569
47736W        W90727   1.254  25.978   0.929 -0.0692  0.1839  0.2102
47737W        W90728  16.745   9.026   0.686  0.0553 -0.0397  0.1383
47738W        W90729  30.386  24.889  13.415 -0.3547  0.2511 -0.1333
47739W        W90730   2.225   6.745  10.408  0.0159  0.2779 -0.1906
47740W        W90731  14.182   2.881   6.789 -0.1784  0.1490  0.1409
47741W        W90732  24.527  28.022   3.405  0.0579 -0.2484 -0.3448
47742W        W90733   3.522  11.525  10.694 -0.0760  0.1244 -0.0034
47743W        W90734  25.799   2.867   8.405 -0.0261 -0.1309 -0.2890
47744W        W90735  20.566  34.214   6.418 -0.1373  0.3023 -0.0832
47745W        W90736  27.391   8.687  16.076 -0.1151 -0.0689  0.1211
47746W        W90737  19.613   1.059   1.545 -0.2789  0.0402  0.1849
47747W        W90738   2.468  33.399   4.161  0.1153 -0.3389 -0.2263
47748W        W90739   1.387   9.711  16.075 -0.0642 -0.2077  0.0819
47749W        W90740   2.591  10.173   1.565 -0.0080 -0.0013  0.1911
47750W        W90741   4.466  13.313   0.719  0.0292 -0.0967  0.2615
47751W        W90742   6.621   6.732   6.621 -0.1884 -0.0034 -0.1752
47752W        W90743  22.337  22.332   0.348  0.0688  0.2354 -0.1178
47753W        W90744   0.704   3.921  21.861 -0.0659  0.0654  0.0701
47754W        W90745   3.795   4.439   3.300 -0.0908  0.1669 -0.0086
47755W        W90746  23.505  32.535  25.598 -0.3216 -0.2670 -0.2812
47756W        W90747  23.238   5.652   3.559 -0.1485 -0.3629 -0.0457
47757W        W90748   9.050  15.275  28.441 -0.0124  0.0900  0.0678
47758W        W90749  31.868  17.822   8.587  0.1717 -0.3352  0.0880
47759W        W90750  30.335   1.867   0.515 -0.1700  0.2743 -0.0221
47760W        W90751  26.664  14.376   9.721  0.1085 -0.2585  0.1246
47761W        W90752  30.171   5.948   1.857  0.1646 -0.0856 -0.3177
47762W        W90753  13.547   9.071  26.389  0.2743  0.0732 -0.1022
47763W        W90754  34.513  21.962  16.646 -0.2617  0.0597 -0.1822
47764W        W90755  31.447  22.740   0.807  0.0801  0.2670  0.0885
47765W        W90756  29.523   9.591  14.721 -0.2782  0.0230 -0.2323
47766W        W90757  27.185  19.845  20.421  0.0372 -0.2424 -0.1195
47767W        W90758   7.948  17.794   0.205 -0.1612 -0.0027  0.0622
47768W        W90759  34.173  10.297  18.048  0.0027  0.0061  0.0156
47769W        W90760   8.159   9.905  11.421  0.2854 -0.2843  0.1346
47770W        W90761   5.440   2.445   3.087  0.0879  0.0142 -0.1494
47771W        W90762   1.348   7.760  20.528  0.0177  0.0103 -0.2546
47772W        W90763  29.910   4.272   5.173 -0.1199 -0.0948 -0.0469
47773W        W90764   2.053  11.970   9.065  0.1418 -0.1723  0.0098
47774W        W90765  29.244  33.501  17.813 -0.0664  0.2244 -0.0003
47775W        W90766  30.137   8.438  29.011  0.1036  0.0152  0.2732
47776W        W90767   1.509   4.221  24.424  0.1563  0.1947 -0.0183
47777W        W90768  24.739  30.709  26.643  0.4318 -0.1093 -0.0219
47778W        W90769   1.783   0.027  21.729  0.1581  0.1982 -0.4988
47779W        W90770   5.169   3.837  14.774  0.0372 -0.1581  0.1049
47780W        W90771  16.989  31.903  28.277 -0.2456 -0.0309 -0.1263
47781W        W90772   2.463  11.760  10.805  0.0264  0.0755 -0.0103
47782W        W90773  18.237   0.494  13.544 -0.0774 -0.1536 -0.0947
47783W        W90774  29.185   9.030  29.102  0.0421 -0.0143 -0.1297
47784W        W90775   8.190  13.186  15.975 -0.1767  0.0890 -0.3097
47785W        W90776   6.188  31.006  27.360  0.2191 -0.0395  0.0781
47786W        W90777  28.426   9.458   3.335 -0.4368  0.2938 -0.0813
47787W        W90778  21.336  28.309  25.523  0.1499 -0.2042  0.0637
47788W        W90779  22.821   8.175   3.843  0.2773  0.2147  0.1001
47789W        W90780  20.228  32.651  21.552  0.0571 -0.0648  0.1206
47790W        W90781  22.468   9.050   2.400  0.1083  0.0339  0.2888
47791W        W90782   4.077  33.330   0.244 -0.1592  0.1304 -0.2661
47792W        W90783  21.042  34.475  28.067  0.2176 -0.3100 -0.2707
47793W        W90784   2.746   5.027  10.108 -0.0120 -0.1756 -0.1219
47794W        W90785  29.104   5.868   8.985  0.4073 -0.0108  0.1416
47795W        W90786  30.841  23.920   6.896 -0.0802  0.0417 -0.1165
47796W        W90787  24.100   8.230  14.898 -0.0272 -0.0441 -0.1949
47797W        W90788  18.740   3.223  24.026  0.1999 -0.0546 -0.0339
47798W        W90789   8.614  16.681  15.884 -0.2276 -0.0248  0.1040
47799W        W90790   3.904   3.041  24.979 -0.1309 -0.1026 -0.2026
47800W        W90791  29.269  21.986  25.428  0.2621 -0.2868 -0.3658
47801W        W90792   4.362   6.988  25.955 -0.2875 -0.2283  0.2018
47802W        W90793   8.544  25.987   1.123 -0.4273  0.0744  0.1108
47803W        W90794   6.865   8.798  24.516 -0.0666  0.0329  0.1471
47804W        W90795  10.289   1.973  27.185  0.1714 -0.0843  0.0484
47805W        W90796  33.296  22.953  20.093 -0.2621  0.2848 -0.1913
47806W        W90797  26.115   1.121  22.568 -0.3015  0.3411 -0.1091
47807W        W90798   2.891  33.115  21.033 -0.0691  0.1877 -0.4099
47808W        W90799  23.518  14.090   3.127  0.0952  0.0223 -0.0627
47809W        W90800   0.036  23.934  25.627  0.0412  0.3191 -0.1373
47810W        W90801  14.969   0.538   7.771 -0.2433 -0.0459 -0.0960
47811W        W90802  18.030  13.496  23.506  0.3696 -0.3502  0.0595
47812W        W90803  26.000  30.613   5.942  0.0312 -0.1205  0.0643
47813W        W90804   3.501   7.143  15.463  0.1043  0.3466  0.0572
47814W        W90805  28.365   2.410  27.060  0.0861  0.0984 -0.2130
47815W        W90806  10.659   2.827  20.850  0.1500  0.0575 -0.2703
47816W        W90807  25.776  33.803  22.127  0.0827  0.0539  0.0810
47817W        W90808   0.990  30.536  26.028 -0.2461  0.3439  0.2139
47818W        W90809  10.687   3.837   6.033  0.1138 -0.0358 -0.1758
47819W        W90810   2.162  12.341  19.835 -0.0379  0.0260 -0.0117
47820W        W90811   8.898  11.876   8.214 -0.1311 -0.2022 -0.1326
47821W        W90812   9.694  11.236  20.544  0.5285  0.1267 -0.1403
47822W        W90813  12.770  25.403   6.937  0.1771 -0.0272 -0.0159
47823W        W90814   3.457  13.498  15.347 -0.0404  0.3175  0.0112
47824W        W90815  28.838  23.470  24.574 -0.1161 -0.1441 -0.1205
47825W        W90816  21.938  11.648   5.349 -0.0538 -0.2324 -0.0791
47826W        W90817  26.692   8.295  16.230 -0.2016 -0.0884 -0.1098
47827W        W90818  16.977  11.551  19.712  0.1571 -0.0402  0.1217
47828W        W90819  20.486   1.156   1.402  0.0685  0.1829 -0.2876
47829W        W90820  15.133   5.953  16.243  0.1059  0.3444  0.3469
47830W        W90821   9.303   4.252  27.714  0.3342 -0.1238  0.1177
47831W        W90822  17.253  31.663  13.115 -0.0741 -0.2349  0.0883
47832W        W90823  33.596   0.510   4.891 -0.1732  0.1892 -0.1300
47833W        W90824  26.405  14.512  25.634  0.1847  0.4234  0.3253
47834W        W90825  32.204   9.306  15.744  0.0022 -0.1584  0.1915
47835W        W90826   6.636   0.180   0.934 -0.0999 -0.1663 -0.2263
47836W        W90827  31.562   7.755   7.516  0.1170  0.1573 -0.1662
47837W        W90828  30.259  26.945   4.154 -0.1782  0.4826  0.0336
47838W        W90829   1.162  34.198   3.492  0.0632 -0.1301  0.0069
47839W        W90830   5.276   7.715  10.719 -0.1082  0.0715 -0.2136
47840W        W90831   6.389  15.293   6.066  0.1532 -0.0496 -0.2583
47841W        W90832   0.852  29.360  20.963  0.0757  0.2212 -0.0170
47842W        W90833  34.512  14.433  16.438  0.1439 -0.3636  0.0741
47843W        W90834   5.834  26.262   4.663  0.0337  0.1565 -0.0702
47844W        W90835  26.997  34.663   6.788  0.1822 -0.0935 -0.0429
47845W        W90836  33.724   4.584  21.395  0.1475  0.1069  0.0793
47846W        W90837  32.639  16.420  17.588  0.2908  0.2081 -0.0919
47847W        W90838  34.250  13.794  27.292  0.1830 -0.0487 -0.0860
47848W        W90839   1.168   1.818  14.438 -0.0636 -0.0562 -0.0964
47849W        W90840   0.309   9.814  23.362 -0.2134  0.0249 -0.1504
47850W        W90841  18.441  13.946   5.439  0.0024 -0.3715  0.0596
47851W        W90842   3.551  25.262  21.061 -0.0146 -0.2405  0.0624
47852W        W90843   1.764  19.521   4.988 -0.1091  0.0875 -0.0938
47853W        W90844  17.017  29.181  14.330  0.0533 -0.1802 -0.0396
47854W        W90845   5.330  16.035  16.974 -0.3109  0.0205 -0.0329
47855W        W90846   5.941  26.766   8.995  0.0371 -0.0016 -0.1348
47856W        W90847  28.803  29.766  26.415 -0.1479 -0.0581 -0.0847
47857W        W90848  34.205   4.754  24.540  0.2033 -0.2581 -0.5456
47858W        W90849   6.412   3.750  26.226 -0.0434  0.2467 -0.0989
47859W        W90850  29.815  15.709  29.037 -0.1967  0.2079  0.0646
47860W        W90851  21.581   9.480  20.703 -0.3682  0.0264  0.2267
47861W        W90852   5.915   2.827  20.682  0.0211  0.0413  0.0276
47862W        W90853  10.038  19.278  23.312 -0.1289 -0.2294  0.0894
47863W        W90854   1.443  16.274   9.520 -0.1824 -0.0734  0.0820
47864W        W90855  23.692   6.571  21.846 -0.1202 -0.1377 -0.0820
47865W        W90856   5.123  13.953   4.000  0.0376  0.0441 -0.1696
47866W        W90857   3.586  25.471   2.178 -0.2353  0.4222  0.3100
47867W        W90858   0.453  16.157   7.472 -0.0996 -0.0667  0.0152
47868W        W90859  18.679  13.064  26.977  0.1788 -0.3235 -0.0350
47869W        W90860  27.360  34.532  17.477  0.1068  0.1180  0.0909
47870W        W90861   4.711  20.954   7.578  0.2466 -0.2994 -0.0727
47871W        W90862  12.206   4.899  16.781  0.0670 -0.2015  0.2188
47872W        W90863  11.062  26.633   9.220  0.0098 -0.3424 -0.1372
47873W        W90864   0.780   7.294   0.971 -0.0461 -0.1630 -0.3259
47874W        W90865  23.628   1.345  22.541  0.0743 -0.1569  0.2661
47875W        W90866   5.683  33.010   7.701  0.1966  0.0192  0.1281
47876W        W90867   3.864   5.783  27.265  0.2252  0.2028 -0.0896
47877W        W90868   7.486  20.170  17.960  0.2952 -0.1721 -0.0951
47878W        W90869  34.744   4.812   5.195  0.1974  0.0195 -0.1410
47879W        W90870  10.086   8.083   0.746 -0.0227 -0.0077  0.1097
47880W        W90871   2.480  18.059  23.442 -0.2336 -0.1576 -0.2387
47881W        W90872  30.053   3.795  14.336  0.0616  0.0176 -0.0343
47882W        W90873   0.344   8.045   0.625  0.2893  0.0111 -0.2777
47883W        W90874  16.509  27.077   1.171  0.1268 -0.1169 -0.1324
47884W        W90875  11.967   4.697  26.599  0.0281 -0.2280  0.1407
47885W        W90876   5.173  29.731  26.618  0.1781 -0.2111 -0.2375
47886W        W90877   1.477  11.436  18.248 -0.1228 -0.1700 -0.2071
47887W        W90878  27.707   7.882  29.076 -0.0770 -0.0145  0.0099
47888W        W90879  24.889  11.806   2.331 -0.0717  0.0438  0.0824
47889W        W90880   8.559   1.523  26.695  0.0874  0.2044 -0.0521
47890W        W90881  22.410  33.443  26.282  0.3529 -0.0085 -0.1221
47891W        W90882   7.178  20.137  21.198 -0.0804 -0.4755  0.2261
47892W        W90883  12.578   2.758   5.105 -0.2792  0.0640  0.0161
47893W        W90884  33.938  28.797   6.943  0.1092 -0.0478  0.0737
47894W        W90885   1.382  26.488   7.077  0.1649 -0.1307  0.1232
47895W        W90886  16.696   5.882   1.664  0.1075 -0.3923  0.2251
47896W        W90887   7.579  25.225  19.912 -0.4122  0.1700  0.0059
47897W        W90888  19.274   9.987   4.075 -0.0933 -0.0700 -0.2359
47898W        W90889  29.746  23.506   1.902 -0.2651 -0.1174 -0.1081
47899W        W90890   8.783  29.160  10.494 -0.1590 -0.0579  0.3674
47900W        W90891  33.622  31.614  14.831  0.1174  0.3161  0.2021
47901W        W90892  21.444   8.521  24.192 -0.2427 -0.0384  0.2428
47902W        W90893   4.694  19.045  18.380  0.1367 -0.2257 -0.1428
47903W        W90894  29.739  14.710  25.462  0.3166  0.0217 -0.0180
47904W        W90895   4.450  10.076  24.545 -0.1554  0.0301 -0.2050
47905W        W90896  28.603   4.872   8.904  0.0811  0.0226 -0.1448
47906W        W90897  33.918  29.737  24.872  0.0319  0.0783  0.1444
47907W        W90898   7.013  34.151  18.542  0.0597 -0.0666 -0.2169
47908W        W90899  30.389   9.097   1.263 -0.6277 -0.0897 -0.4079
47909W        W90900  26.669   2.011  16.160 -0.2496  0.5021  0.0126
47910W        W90901  24.588  30.925   4.661  0.0014  0.1293  0.0201
47911W        W90902   8.964  24.093  26.723 -0.1520  0.1716  0.0930
47912W        W90903   3.387  19.940   2.249  0.2195 -0.0595 -0.2546
47913W        W90904   7.739   7.410   7.903  0.1032  0.1094  0.0800
47914W        W90905   8.796   0.221   3.882 -0.0895  0.4322 -0.3733
47915W        W90906   4.259  32.537  28.533  0.1989  0.0132 -0.1011
47916W        W90907  33.322  29.703  20.652  0.0444 -0.0334 -0.1352
47917W        W90908   8.218   6.107  27.573  0.0447  0.1129 -0.1273
47918W        W90909   5.764  32.431  28.560  0.0499 -0.0468 -0.1603
47919W        W90910   2.754  12.845   9.617  0.2645  0.0361 -0.1329
47920W        W90911   8.584   9.030   4.989  0.0306 -0.2634 -0.2493
47921W        W90912  32.355   6.195  22.505  0.4177  0.1068  0.0405
47922W        W90913   8.765  11.861  15.943  0.0145 -0.0632  0.1494
47923W        W90914  21.050  14.628  16.844  0.0707  0.4747 -0.1364
47924W        W90915   9.824   3.271  22.662 -0.0384 -0.1483  0.0352
47925W        W90916   6.949   6.348  24.528  0.0123  0.1910 -0.2327
47926W        W90917   2.477   2.287   2.725 -0.0168  0.1080  0.1097
47927W        W90918  11.159   8.032  25.720  0.2313  0.0806 -0.2892
47928W        W90919  32.983  23.027  27.181  0.0148  0.2852 -0.1348
47929W        W90920  27.186   5.983   7.349 -0.0009 -0.0732  0.0969
47930W        W90921  28.088   5.166  14.656  0.1921 -0.3210 -0.3617
47931W        W90922  12.057  19.452  16.160 -0.2127  0.2079  0.3074
47932W        W90923  31.868   3.530   8.860 -0.1103  0.0665  0.0564
47933W        W90924  24.690  13.788  21.697 -0.1594 -0.2409  0.0759
47934W        W90925  22.279  14.309  23.315 -0.0115  0.0142 -0.3303
47935W        W90926   7.849  22.515  21.278 -0.0528 -0.2892 -0.1241
47936W        W90927  32.826   8.719   7.972  0.1420 -0.1663 -0.0686
47937W        W90928  21.309  26.817  28.226  0.0977 -0.1099 -0.1863
47938W        W90929   0.197  21.833  25.998 -0.1631 -0.1690 -0.4902
47939W        W90930   7.947  32.431  16.179 -0.2613 -0.0394 -0.1495
47940W        W90931   0.266   9.481  18.152 -0.0460  0.1787 -0.0512
47941W        W90932   3.804  13.066  18.119 -0.1773 -0.2029  0.1891
47942W        W90933  24.270  14.841   1.203  0.0641  0.0486 -0.0316
47943W        W90934  25.285  12.755  27.609 -0.1071  0.1980  0.1872
47944W        W90935  29.157   8.681  17.966  0.1843  0.1770 -0.2499
47945W        W90936   0.754  26.188   2.227  0.0024 -0.1777  0.4523
47946W        W90937  22.200  13.589   6.499 -0.1644  0.1321  0.0603
47947W        W90938   7.714  34.114  25.004 -0.1560  0.1312 -0.2465
47948W        W90939   2.765  11.909  15.813  0.0988  0.2941  0.1098
47949W        W90940  32.795  17.957   6.720 -0.0050 -0.2139 -0.1267
47950W        W90941  30.258  30.266  13.168 -0.1579  0.0639 -0.1765
47951W        W90942  30.446  13.896   5.099 -0.0545  0.1181 -0.1977
47952W        W90943  30.180  31.119   6.299 -0.0781 -0.0953 -0.1836
47953W        W90944   0.957  13.100  16.259 -0.1619  0.1953  0.0614
47954W        W90945   7.819   7.215  15.838  0.0540 -0.0010 -0.2342
47955W        W90946  32.557   9.487   7.461 -0.2840  0.4847 -0.3465
47956W        W90947  10.684  11.925  22.667  0.1015 -0.0663 -0.0504
47957W        W90948   7.999  22.800  28.679 -0.1170 -0.0385  0.0078
47958W        W90949  28.061  11.224  20.001  0.0720  0.1246 -0.0770
47959W        W90950  25.689   2.377   8.618 -0.0739  0.0023  0.4392
47960W        W90951   0.692  16.750  26.914 -0.0436  0.1005 -0.3860
47961W        W90952  22.069   9.491  21.987  0.0239  0.1393  0.1928
47962W        W90953  13.541  17.045   6.934  0.0338 -0.2650  0.2963
47963W        W90954  29.166  33.445  26.881 -0.2351 -0.2592  0.0856
47964W        W90955   5.430   9.775  29.133  0.2139 -0.1174  0.0285
47965W        W90956   8.106   4.367  26.165  0.2646  0.0108  0.0195
47966W        W90957  28.105  17.650   9.163 -0.1119  0.0839  0.0029
47967W        W90958  10.530  15.242   1.150  0.2405  0.0498 -0.0459
47968W        W90959  21.613  11.331  23.030  0.1508 -0.2891 -0.0060
47969W        W90960  14.459  30.587   4.829  0.2029  0.0843 -0.1114
47970W        W90961   4.627  13.192   1.674  0.1926  0.0098 -0.1264
47971W        W90962  16.796  10.101  16.355  0.0033 -0.2291  0.0382
47972W        W90963   2.047  11.570   5.481  0.1306  0.0650 -0.0617
47973W        W90964   6.960  15.306   9.348 -0.2706 -0.1137  0.0116
47974W        W90965   2.277  31.464  18.644 -0.0457 -0.0190 -0.2408
47975W        W90966  28.238   0.798  15.870 -0.1344  0.0311 -0.3560
47976W        W90967  19.676  25.014  20.353  0.1317 -0.1817  0.0745
47977W        W90968  30.556   9.708  27.426 -0.1402 -0.1354  0.0458
47978W        W90969  26.960   9.506  25.389  0.1184 -0.2272 -0.2598
47979W        W90970   7.149  15.831  18.018 -0.0538  0.2162 -0.1737
47980W        W90971  10.126  28.391  24.878 -0.1423 -0.1247 -0.1075
47981W        W90972  28.478   4.657   5.624  0.0172 -0.0978 -0.0388
47982W        W90973  13.654   7.067   6.732  0.0535  0.1434  0.2823
47983W        W90974  26.126  27.605  16.413  0.2186  0.3619  0.1432
47984W        W90975   4.889   9.259  16.152 -0.1067  0.1207 -0.0037
47985W        W90976  26.203   6.925  23.080  0.3171  0.0055 -0.0483
47986W        W90977   5.088  21.816  19.129 -0.2295 -0.0857  0.0642
47987W        W90978  30.965  15.118  22.612 -0.1444 -0.2228  0.0905
47988W        W90979   5.135  34.735  18.184  0.1170  0.1367  0.1457
47989W        W90980  31.203  28.289  17.116  0.0742 -0.2085 -0.3950
47990W        W90981   9.176  15.030  17.976 -0.1357 -0.2534 -0.0679
47991W        W90982  34.542   1.756  23.536  0.1283  0.1053 -0.1382
47992W        W90983   2.589  17.398  19.859  0.0691 -0.3783  0.1866
47993W        W90984   9.427   9.681  25.707 -0.1477 -0.0189 -0.1208
47994W        W90985   1.247   0.846  17.703 -0.1904 -0.0471  0.0120
47995W        W90986  10.400  13.722  18.278 -0.3224  0.0317 -0.0861
47996W        W90987  15.100   4.934  26.263 -0.2711 -0.1495 -0.1494
47997W        W90988  22.377  12.529   1.698 -0.2435  0.1532  0.1845
47998W        W90989   4.888   1.517  18.297 -0.1098  0.1634 -0.0356
47999W        W90990  26.002  11.311  24.541  0.0111  0.0978  0.2039
48000W        W90991  30.571  10.550   0.429 -0.0295 -0.1573  0.1970
48001W        W90992  33.353  18.110  25.831  0.1994 -0.1884  0.2469
48002W        W90993  30.848  23.293  13.548  0.1912 -0.2751 -0.1119
48003W        W90994   3.495   7.328   6.018  0.1190  0.0736 -0.1563
48004W        W90995  13.850  32.098  15.207 -0.0898 -0.0126  0.1549
48005W        W90996   6.839  19.062  17.848 -0.1146  0.1133  0.1638
48006W        W90997  34.151   2.215  26.934  0.0496 -0.1229  0.0680
48007W        W90998  27.138   0.281  16.995 -0.1809 -0.1163  0.1123
48008W        W90999   4.545  32.494  27.076 -0.1120 -0.0237  0.2545
48009W        W91000  31.266  33.104  17.437  0.2540  0.0092 -0.0095
48010W        W91001  33.363  12.209  20.699 -0.3127  0.0673  0.0528
48011W        W91002  29.080  28.682  18.158  0.0016  0.0488  0.2072
48012W        W91003  34.120   8.246  20.003 -0.2189 -0.0236  0.1450
48013W        W91004  32.184  27.920  25.329 -0.1623  0.0298 -0.0360
48014W        W91005   1.622  11.986  22.226  0.0699 -0.1308  0.2312
48015W        W91006   2.245  20.093   7.856 -0.2853  0.2136 -0.1538
48016W        W91007  28.407  14.556  18.242 -0.0096  0.5321 -0.0779
48017W        W91008  34.172  25.453   3.540 -0.0514 -0.0686 -0.1734
48018W        W91009  33.709   5.726  20.925  0.1320  0.1010  0.0363
48019W        W91010  26.017  10.948  14.584 -0.1521  0.1172 -0.1127
48020W        W91011   0.534   5.234  21.984 -0.0517  0.1411 -0.1376
48021W        W91012  25.866  31.058  14.298  0.0024  0.0132  0.2219
48022W        W91013  33.589  30.653  21.093  0.0746  0.1259 -0.1356
48023W        W91014  34.681  13.654  20.070 -0.1560  0.3155  0.1964
48024W        W91015  23.654  15.496  25.897  0.2300 -0.0457 -0.0936
48025W        W91016  33.065   5.032  21.079  0.0210 -0.0878  0.0857
48026W        W91017   5.594  10.587  17.652 -0.0092  0.0276  0.0061
48027W        W91018  34.584   2.718  14.638  0.1911 -0.3191  0.2394
48028W        W91019   4.155   7.318  24.280 -0.0732 -0.1331  0.1304
48029W        W91020  23.978  20.169  17.429 -0.0254  0.1677 -0.0002
48030W        W91021  28.656  15.790   5.585  0.0091 -0.3591 -0.2606
48031W        W91022  34.196  24.697  19.928 -0.4965 -0.1436  0.0748
48032W        W91023  32.377  21.533  25.123  0.0642 -0.0131 -0.0601
48033W        W91024  31.459   9.073  27.897 -0.1046  0.1783  0.3117
48034W        W91025  22.885   3.950  22.512 -0.5582 -0.0336 -0.5161
48035W        W91026  20.494   2.578  13.623 -0.0500  0.1506 -0.1697
48036W        W91027   4.770   8.225  25.343 -0.2027  0.1666 -0.0893
48037W        W91028   1.488   9.652  23.765 -0.1124 -0.2676 -0.2885
48038W        W91029  16.829  34.476  16.549 -0.0197  0.1215 -0.1726
48039W        W91030  32.282  28.758  15.610 -0.0209  0.0248 -0.1210
48040W        W91031   1.035   6.683  19.469 -0.2669  0.1408  0.0403
48041W        W91032   2.476  10.596  21.158 -0.1307 -0.3805  0.0566
48042W        W91033  32.205  22.197  17.962 -0.0767  0.1111  0.1525
48043W        W91034  29.952  32.064   0.894  0.0805  0.1450 -0.2037
48044W        W91035  13.486   1.669   2.257  0.0475 -0.1244 -0.1462
48045W        W91036  30.207  33.232   5.378 -0.2010 -0.1432  0.0672
48046W        W91037  23.678   6.815   4.214  0.0752  0.1418  0.2202
48047W        W91038   7.080  13.954  26.837 -0.1151 -0.0663 -0.0763
48048W        W91039  28.260   0.817  16.426  0.0298  0.0502  0.0543
48049W        W91040  27.484   0.406  26.471 -0.1601  0.1591 -0.0398
48050W        W91041  32.046  11.059   1.118  0.1655  0.3221  0.3336
48051W        W91042  25.550  20.467   7.221  0.1248 -0.0980  0.2285
48052W        W91043   6.634  16.036  28.210 -0.1359 -0.1436 -0.0687
48053W        W91044  32.530  10.300  22.179 -0.1044 -0.0441  0.2578
48054W        W91045  16.647   7.048  18.481 -0.0199 -0.0718  0.0259
48055W        W91046   6.495   2.957  11.078  0.3023 -0.2019  0.0158
48056W        W91047  31.484  11.428  20.159 -0.2932 -0.1554  0.1029
48057W        W91048  15.102   7.250  18.086  0.1235  0.0884 -0.1261
48058W        W91049  32.208  31.998  29.019 -0.5028 -0.1346 -0.0685
48059W        W91050  34.524  20.091  24.552  0.3147 -0.1445 -0.3330
48060W        W91051   5.146   8.965  24.707 -0.2183 -0.0747 -0.2685
48061W        W91052   2.223  18.179  16.054  0.2751 -0.3217 -0.0225
48062W        W91053   0.646  14.482  27.766  0.0518 -0.1318  0.1950
48063W        W91054  27.955   1.286   4.652 -0.1042 -0.0167 -0.3380
48064W        W91055  32.411   5.252  17.899  0.1118  0.0832 -0.2570
48065W        W91056  26.403  29.394  20.641  0.2647  0.1739 -0.1436
48066W        W91057   0.116   9.917  16.118 -0.1494  0.1378 -0.1712
48067W        W91058  31.904   9.135  16.786 -0.2439 -0.2320  0.2803
48068W        W91059   1.069  31.456  29.113 -0.0493 -0.2400 -0.1272
48069W        W91060   9.459   7.351   1.925 -0.1778 -0.1847  0.1859
48070W        W91061  27.560  13.690  20.567  0.0165 -0.0001  0.1336
48071W        W91062   1.957  17.516  28.759 -0.2025 -0.0509 -0.0800
48072W        W91063   9.478  14.005  15.365  0.0613 -0.0529  0.0405
48073W        W91064  27.854   8.108  15.570  0.0294  0.2186  0.1792
48074W        W91065  20.484   8.681  13.853 -0.1724  0.3178 -0.1026
48075W        W91066   1.956  32.752  19.132 -0.0515 -0.0466 -0.1926
48076W        W91067  31.338   2.525  24.594  0.1090 -0.1258 -0.0616
48077W        W91068  33.028   6.882  24.690  0.2860 -0.0288  0.0649
48078W        W91069  26.759   7.739  17.906 -0.3256 -0.2026 -0.0664
48079W        W91070   6.502  14.070  15.395  0.2722 -0.1986 -0.0467
48080W        W91071   2.409  31.590  25.255 -0.1785 -0.0117 -0.0633
48081W        W91072  30.558   3.794  18.834  0.0942  0.1192 -0.1030
48082W        W91073  27.166   7.891  21.362 -0.0417 -0.1542  0.0215
48083W        W91074  30.773  28.704  25.334 -0.0543 -0.0567  0.1001
48084W        W91075  19.153  13.138   1.836  0.1274  0.4015  0.0319
48085W        W91076  29.109  33.829  24.462 -0.0117 -0.0423 -0.0690
48086W        W91077  26.161   1.111  21.700 -0.0930 -0.0218 -0.0096
48087W        W91078  15.091   4.851   3.249  0.1812  0.0998 -0.2054
48088W        W91079  13.619  34.713  28.498  0.0933  0.2075  0.0340
48089W        W91080  21.332   9.390  26.938  0.1511  0.2481 -0.4800
48090W        W91081  29.249  10.028  19.710  0.0975  0.2134  0.1333
48091W        W91082  29.275  11.977  23.135 -0.0878  0.0729 -0.1611
48092W        W91083   2.671  10.224  16.993 -0.3152 -0.0417  0.4034
48093W        W91084   5.467  20.427  19.985  0.0494  0.0153  0.2253
48094W        W91085  23.150   2.664  20.709 -0.0372 -0.1448 -0.3173
48095W        W91086   2.834   4.384  14.556  0.0701  0.2380 -0.0802
48096W        W91087  27.890   8.665  15.494  0.0935  0.0582  0.1328
48097W        W91088  33.833   5.791  21.429 -0.0342 -0.0412 -0.0496
48098W        W91089   2.631  32.144  14.905 -0.1862  0.1211 -0.4733
48099W        W91090  29.765   9.961  19.565 -0.1467  0.0584 -0.2143
48100W        W91091  22.521   6.713  22.295  0.0488 -0.0012 -0.0439
48101W        W91092  27.748  21.334  16.050  0.2227  0.3651 -0.0159
48102W        W91093   6.093  21.659  16.304 -0.0148  0.1058  0.2504
48103W        W91094  15.289   2.149  15.954  0.0909  0.0774  0.1296
48104W        W91095  27.015  11.006  19.054 -0.2464 -0.4101 -0.1231
48105W        W91096  26.227  10.003  24.444 -0.1258 -0.3305  0.0016
48106W        W91097  27.512  14.613  25.278  0.3066  0.0715  0.0813
48107W        W91098   5.506  13.204  18.137 -0.4291 -0.0336  0.0934
48108W        W91099  13.024   0.841  16.197 -0.0076 -0.3288  0.0561
48109W        W91100  13.991   4.978  19.182 -0.1060  0.1036 -0.0800
48110W        W91101  21.876  31.520  13.940 -0.1936 -0.1057  0.1110
48111W        W91102  27.287   4.204  19.754  0.0457  0.0808  0.3079
48112W        W91103  28.138  15.940  24.900  0.0466 -0.0363 -0.0012
48113W        W91104  27.314   9.552  18.999  0.1341 -0.0850 -0.1836
48114W        W91105  18.402  29.710  26.323 -0.0531  0.2730  0.1482
48115W        W91106   4.422   7.929  18.541  0.2241 -0.2585 -0.0093
48116W        W91107  29.612  10.779  16.584 -0.2329  0.0048  0.3716
48117W        W91108  26.617   9.835  25.188 -0.2473 -0.0797 -0.0470
48118W        W91109   3.559   4.521  17.104 -0.0854  0.0112  0.3375
48119W        W91110  10.035  32.896  16.012  0.3252 -0.0575 -0.3873
48120W        W91111  29.635  11.455  18.219  0.0574 -0.0944  0.0746
48121W        W91112  33.997  33.342  23.098  0.1584  0.2164 -0.2315
48122W        W91113  24.153   6.040  21.082 -0.1276  0.1587  0.0247
48123W        W91114  16.810  33.762  21.988 -0.0434  0.3491  0.0596
48124W        W91115  20.633  33.561  21.466 -0.2345  0.0486  0.1256
48125W        W91116   7.450   7.419  22.770  0.1747  0.1164 -0.3023
48126W        W91117  26.163   5.291  16.944  0.2265  0.0605 -0.0140
48127W        W91118  22.607  10.093  14.472 -0.1747 -0.2336 -0.3332
48128W        W91119  31.409  28.470   3.338 -0.1662  0.2303  0.0614
48129W        W91120  29.843   1.973   1.946  0.2304  0.0630  0.1376
48130W        W91121  29.330  11.037  25.643 -0.0180  0.0361 -0.2124
48131W        W91122  30.585   5.450  18.381 -0.3679 -0.1641  0.3272
48132W        W91123  14.479  21.814  15.641  0.0360 -0.3112 -0.1191
48133W        W91124   0.149  30.263  18.892 -0.2342  0.0539 -0.2216
48134W        W91125  22.835   6.511  21.443 -0.0272  0.1501  0.1925
48135W        W91126  22.294   9.185  15.953 -0.2297 -0.2158 -0.1590
48136W        W91127   3.568  20.425   5.544 -0.0188  0.0783 -0.0303
48137W        W91128   2.890  28.247  21.382  0.2632  0.0952 -0.4258
48138W        W91129  21.776   8.782  28.980  0.1645  0.2297 -0.0015
48139W        W91130  23.567   7.670  13.548  0.0795 -0.2404 -0.0114
48140W        W91131  17.636  10.864  14.386 -0.1932  0.2666  0.2514
48141W        W91132   8.359   7.729  26.714  0.0107 -0.2588  0.2173
48142W        W91133  16.059  12.310  19.191  0.1596  0.4629  0.0069
48143W        W91134   2.635   2.325  24.713 -0.1721  0.0389 -0.0456
48144W        W91135  27.980  11.890  25.550  0.0083  0.0070  0.1862
48145W        W91136  22.355  10.333  27.942  0.1695 -0.2905 -0.0317
48146W        W91137  34.154  12.140  17.576 -0.1854 -0.1601  0.3102
48147W        W91138   9.387   8.916  19.085 -0.1604  0.2088  0.2367
48148W        W91139   7.751   3.135  20.736 -0.0833 -0.0104  0.1992
48149W        W91140  27.065   1.427   1.084  0.2015 -0.4038  0.1647
48150W        W91141   2.253   9.182  17.078 -0.1763  0.0787  0.0448
48151W        W91142   6.144  13.064  14.632  0.1736 -0.2040 -0.0097
48152W        W91143  13.144  14.003   5.489 -0.0812 -0.0732 -0.0674
48153W        W91144  10.237  32.281  15.379 -0.0377  0.0354 -0.1116
48154W        W91145  33.352   8.253   1.187 -0.2072  0.2564 -0.3026
48155W        W91146   6.041  19.793  20.427  0.3500 -0.2001  0.0310
48156W        W91147  30.306   6.174  14.944 -0.0108  0.0803  0.0150
48157W        W91148   9.544   5.953  11.013  0.0370 -0.2516 -0.1192
48158W        W91149  22.249  11.523  15.218 -0.0665  0.0098 -0.2171
48159W        W91150   0.975  11.033  27.884  0.2911 -0.1757 -0.2997
48160W        W91151   5.188   8.060  26.682 -0.1204 -0.2357  0.0719
48161W        W91152   9.535   5.423  15.199  0.0505 -0.2635 -0.0138
48162W        W91153   5.184  10.708  16.246  0.0633 -0.0578  0.0223
48163W        W91154  25.145  33.253   8.280  0.0832  0.3097  0.4029
48164W        W91155   1.100  17.476  20.738  0.1765  0.0213  0.1178
48165W        W91156  30.594  29.078  16.352 -0.1523  0.0565 -0.0144
48166W        W91157  23.183  30.235  21.719  0.0868  0.2944  0.2834
48167W        W91158  32.879  32.741  23.780  0.1652 -0.2607  0.2031
48168W        W91159   0.607   4.701  20.092  0.0199  0.1663  0.0574
48169W        W91160  26.521  14.332  16.179 -0.2062 -0.1238 -0.0841
48170W        W91161  26.304   0.639  26.184 -0.1697  0.0462  0.0082
48171W        W91162  16.747  15.197  25.442 -0.1019  0.1817 -0.0170
48172W        W91163  15.415   6.004   8.443 -0.3523  0.1333 -0.0690
48173W        W91164  32.763  32.487  19.059  0.1317 -0.1497  0.0298
48174W        W91165   7.008  19.010  18.318 -0.2609 -0.0677  0.1077
48175W        W91166  18.203  11.919  24.976  0.2473  0.0917  0.2978
48176W        W91167   3.156   8.867  19.804  0.0378  0.0500  0.3055
48177W        W91168  13.358  21.789  13.785  0.1275 -0.2408 -0.0656
48178W        W91169  16.886   7.467  18.136 -0.2618 -0.2386 -0.1005
48179W        W91170  24.030   8.802  20.993 -0.0466 -0.4844  0.0709
48180W        W91171  25.913   0.939  18.199  0.2204  0.0561 -0.0307
48181W        W91172  34.547   5.021  22.080  0.1528  0.1017 -0.3003
48182W        W91173   3.833  29.939  21.389 -0.0646  0.0084 -0.0753
48183W        W91174  32.892   0.558  18.479 -0.1669  0.3495 -0.2193
48184W        W91175  11.812  34.226  19.275 -0.2849  0.1128  0.0872
48185W        W91176   0.458  27.223  14.596 -0.1889 -0.1677 -0.1868
48186W        W91177  23.751  33.567  13.516 -0.2202 -0.0484  0.0360
48187W        W91178  33.586   8.551  25.009 -0.1616 -0.1588 -0.1349
48188W        W91179  19.076  22.522  15.906 -0.3270 -0.0839  0.0110
48189W        W91180  24.873   9.005  13.856  0.0133  0.0035 -0.0703
48190W        W91181   3.982  25.614  20.976 -0.3272  0.1865 -0.0256
48191W        W91182  14.115   4.255  17.173 -0.1089  0.3363 -0.1691
48192W        W91183  27.607  24.373   1.845 -0.2860 -0.0359 -0.0639
48193W        W91184  20.620  18.649  26.020  0.1959  0.1510 -0.0132
48194W        W91185  31.028  13.182  24.649 -0.0151 -0.1819  0.1575
48195W        W91186   1.833   5.106  28.147  0.0320 -0.1932 -0.0634
48196W        W91187  16.207   4.335  17.425  0.0453 -0.2127 -0.4091
48197W        W91188  28.610  11.017  15.476  0.0506 -0.2141 -0.0457
48198W        W91189  29.195  10.401  20.013 -0.1292  0.4773  0.3404
48199W        W91190  31.599   6.312   7.838  0.2949 -0.0964 -0.0726
48200W        W91191  21.094   6.437  23.098  0.1045  0.1451 -0.0817
48201W        W91192  32.630  31.755  20.972  0.1188  0.1210  0.0165
48202W        W91193  28.712  11.564  27.539 -0.1404 -0.0970 -0.1043
48203W        W91194  29.080  18.912  23.198  0.0217  0.0085 -0.0892
48204W        W91195  23.555   8.802  27.838 -0.1275  0.2111  0.0713
48205W        W91196  26.995  14.421  19.523 -0.2775 -0.0321 -0.1350
48206W        W91197  25.273  24.724  23.492 -0.2055  0.2472  0.0559
48207W        W91198  18.449  10.672  26.795  0.0071 -0.0148  0.0453
48208W        W91199  28.807  15.588  18.220 -0.0603 -0.0870  0.0993
48209W        W91200  16.137  16.037  14.661 -0.0079  0.1698  0.0371
48210W        W91201  20.970  21.074  27.761  0.0480  0.3077  0.1524
48211W        W91202  15.067  13.377   2.411 -0.0995  0.1174  0.0423
48212W        W91203   4.344   8.877   1.902  0.1860 -0.2391  0.0066
48213W        W91204  16.209  13.376   5.733  0.1123 -0.1147  0.2322
48214W        W91205   4.174  33.460  21.213  0.0742  0.1046  0.1581
48215W        W91206   7.486  32.862  14.949  0.2673 -0.1084  0.4793
48216W        W91207   6.732   2.318   6.787 -0.0544 -0.0220 -0.0933
48217W        W91208   8.939  10.966  10.002  0.1556 -0.1034  0.0364
48218W        W91209   9.700  19.009  17.928  0.2564  0.1465 -0.0056
48219W        W91210  26.312  30.762  28.091 -0.0010  0.1297 -0.1739
48220W        W91211  28.977   4.873  16.669  0.0209  0.0380 -0.1386
48221W        W91212  29.534  26.795  14.993  0.0536  0.0068  0.1286
48222W        W91213  30.492  23.426  15.695  0.5560 -0.0443  0.0871
48223W        W91214  30.259  16.957  27.328 -0.5338 -0.2154 -0.1260
48224W        W91215   2.991  31.271  17.803 -0.0173  0.0347 -0.0891
48225W        W91216  28.535   6.577  28.467 -0.2051 -0.1500  0.0791
48226W        W91217  28.114  22.968  19.805 -0.1594  0.2012  0.3170
48227W        W91218  33.039  30.582  20.208 -0.0444  0.0264 -0.3313
48228W        W91219  27.068   5.259  17.068 -0.1383 -0.1566  0.0779
48229W        W91220  31.079   8.990  19.863 -0.0376 -0.2729 -0.0472
48230W        W91221  28.182   3.210   3.301  0.0650  0.0955  0.1181
48231W        W91222  20.974   1.143   3.795 -0.4906 -0.2978  0.1652
48232W        W91223  31.336   3.489  17.699 -0.2060  0.1595 -0.1821
48233W        W91224  13.949  18.514   0.352 -0.1586 -0.5733  0.1187
48234W        W91225  33.489  31.340  22.709  0.0267  0.0547 -0.1209
48235W        W91226   0.365   5.933  26.019  0.0843 -0.0646 -0.2780
48236W        W91227  28.366  23.051  17.879  0.2917  0.0915  0.2485
48237W        W91228  31.844  21.720  18.697  0.1746  0.2610 -0.0333
48238W        W91229  19.728  10.693  14.955 -0.2569  0.2117  0.2940
48239W        W91230  33.608   7.974  18.332  0.0022 -0.0310 -0.0670
48240W        W91231   6.877  11.920  15.807  0.1435 -0.0981 -0.2072
48241W        W91232  11.257  13.363  29.030  0.1395 -0.0295  0.2743
48242W        W91233  27.827   5.588  22.796 -0.2611 -0.0585  0.1817
48243W        W91234  15.239   0.426  28.269  0.3019 -0.1655  0.2393
48244W        W91235  33.981  11.320  19.678 -0.1053 -0.1489  0.1469
48245W        W91236  26.701   5.273  20.213 -0.0534  0.2787  0.1690
48246W        W91237   2.426   8.313  15.349 -0.1550  0.3077  0.0038
48247W        W91238  21.552  10.635  24.546  0.0620  0.1068 -0.0545
48248W        W91239  10.198   5.329   0.179  0.0604  0.0769 -0.1423
48249W        W91240   0.625  23.410   9.220 -0.0219  0.5018  0.1286
48250W        W91241  27.060  10.585  24.604 -0.3271  0.1500 -0.1960
48251W        W91242  26.235  24.634  25.281  0.2912 -0.1265 -0.2465
48252W        W91243  29.581   6.840   3.766  0.1971  0.0238  0.2125
48253W        W91244  23.474   6.036  16.794 -0.0425  0.0729 -0.1887
48254W        W91245  25.320   8.615  26.303 -0.0189  0.0764 -0.1546
48255W        W91246   6.639  18.810  27.685  0.4426  0.2587  0.0554
48256W        W91247   5.531  13.476  25.720 -0.0451  0.2315  0.1146
48257W        W91248  10.439  33.750  19.999  0.2069  0.1370 -0.0452
48258W        W91249   2.603   1.915  19.793  0.0127  0.0627 -0.2383
48259W        W91250   3.500  20.689  25.087 -0.1923 -0.1979 -0.0560
48260W        W91251  33.555   2.415  16.852  0.2295 -0.0057  0.1221
48261W        W91252  31.507  13.156  21.857 -0.1644  0.0571  0.1391
48262W        W91253  10.469  13.825  23.178 -0.0191  0.1247 -0.2965
48263W        W91254   0.326  13.118  24.842  0.1040 -0.1380 -0.1020
48264W        W91255  30.354  11.711  24.997 -0.0042 -0.0012  0.0987
48265W        W91256   0.298   6.432  15.259 -0.1184 -0.1313  0.1696
48266W        W91257  19.757   0.080  20.958  0.0319  0.5279 -0.0442
48267W        W91258   6.548  16.047  25.026 -0.1520  0.1432  0.2406
48268W        W91259   1.107   2.847  20.732  0.0153 -0.1992  0.2099
48269W        W91260  28.155   6.020  25.113 -0.2175 -0.0414 -0.1122
48270W        W91261  32.697  34.176   1.852  0.0703 -0.2641  0.1474
48271W        W91262   8.125  15.033  17.919 -0.1098 -0.0588  0.3100
48272W        W91263  13.481  13.633  19.795  0.0577  0.5859 -0.0069
48273W        W91264  20.027  12.652  18.312 -0.0128 -0.1500  0.3147
48274W        W91265   2.863  13.747  16.598 -0.1852  0.3774 -0.0650
48275W        W91266  28.278   3.987  14.723 -0.1419 -0.0326  0.3625
48276W        W91267  27.489   9.409  27.656 -0.0054  0.1851 -0.0695
48277W        W91268   5.846   6.231  22.476 -0.3746  0.1861  0.0912
48278W        W91269   4.118  11.562   0.778  0.0158 -0.0198 -0.3555
48279W        W91270  16.906   4.041  26.398  0.0256  0.0096  0.0533
48280W        W91271   7.711  27.163  21.177 -0.0595 -0.0884  0.2146
48281W        W91272  16.253   3.214  25.862  0.2303 -0.1301 -0.1795
48282W        W91273  26.327   7.211   0.987 -0.0402 -0.2448 -0.2230
48283W        W91274   8.440   0.835  16.916 -0.1118  0.1858  0.1090
48284W        W91275   1.086  31.639  19.394  0.2766 -0.1142  0.0446
48285W        W91276  25.049  13.940  20.425  0.4823  0.2766  0.2912
48286W        W91277  10.126  16.102  19.196 -0.0168  0.0489 -0.2460
48287W        W91278  32.258   9.552  23.252 -0.1764 -0.2029 -0.1966
48288W        W91279  24.673   7.268   2.472 -0.3330  0.2139 -0.0622
48289W        W91280  33.423   4.113   1.545  0.1525  0.2832 -0.0755
48290W        W91281  26.323  30.925  13.007  0.0951 -0.2043 -0.0444
48291W        W91282  24.359   5.093  28.415 -0.1057  0.2446 -0.1026
48292W        W91283  27.628  11.722  14.954  0.0947  0.0915  0.1594
48293W        W91284  31.651   6.419  21.621  0.0680  0.0310  0.3148
48294W        W91285  10.062   7.294  19.247  0.3900 -0.1390 -0.0426
48295W        W91286  12.477  17.489  18.380 -0.0729 -0.0506 -0.0566
48296W        W91287  25.794   5.827  20.077  0.2732 -0.3717  0.0525
48297W        W91288   5.948   1.610  26.729  0.1312 -0.1433 -0.0480
48298W        W91289   1.715   8.909  15.995 -0.0832  0.0362  0.0993
48299W        W91290   4.474   8.652  14.944 -0.0698  0.0751 -0.1262
48300W        W91291  26.842  27.615  18.802 -0.0113  0.1113  0.5993
48301W        W91292   3.058   1.293  21.917 -0.1338  0.0751 -0.0651
48302W        W91293   1.839   3.836   2.967 -0.4074  0.1317  0.2012
48303W        W91294  19.085   1.493  17.379  0.6394 -0.0223  0.0969
48304W        W91295  32.008  12.792  27.495 -0.4492  0.0072  0.0724
48305W        W91296  26.470  24.657  15.153 -0.3628 -0.0796  0.1908
48306W        W91297  30.730   7.196  22.753  0.2468 -0.2508  0.0803
48307W        W91298  27.449   9.206  16.077  0.1197 -0.1595  0.0799
48308W        W91299  33.552   3.766   1.151  0.0086 -0.1843 -0.2384
48309W        W91300   4.204  13.981  27.208 -0.6767  0.1014  0.0669
48310W        W91301   7.749  20.161  18.396  0.0600  0.2142 -0.2280
48311W        W91302   9.352  14.343   8.201  0.1140  0.0204 -0.0739
48312W        W91303   7.311   6.723  24.063 -0.0128  0.1903  0.3805
48313W        W91304   4.028  20.004  21.697 -0.0271 -0.0475  0.2224
48314W        W91305  11.371   9.941  21.476  0.0951 -0.4849 -0.2591
48315W        W91306  32.590  32.239   5.126  0.3575 -0.4002  0.1790
48316W        W91307  24.584  32.380  13.669  0.0980 -0.2887 -0.2096
48317W        W91308  34.197  30.665  16.047 -0.0269 -0.1015 -0.3750
48318W        W91309  15.194   0.647  20.518 -0.3219 -0.0098  0.0168
48319W        W91310  33.299   3.812   5.287 -0.2992 -0.0856  0.0975
48320W        W91311  13.799   4.867   3.752  0.0691 -0.0904 -0.0686
48321W        W91312  21.665   6.142  22.092  0.1618  0.1803  0.1407
48322W        W91313   3.562  19.319  22.117 -0.1501  0.2082 -0.0195
48323W        W91314  13.387  25.037  27.563 -0.0214  0.0884  0.2190
48324W        W91315  23.338   8.355  23.349 -0.3328 -0.0769  0.1450
48325W        W91316   6.055   1.142  15.428 -0.2274 -0.3071  0.0793
48326W        W91317  24.852   0.940  24.912 -0.0013  0.1149  0.1551
48327W        W91318  26.111  12.372  24.311  0.0560  0.0003  0.1639
48328W        W91319  23.283   8.736  27.350 -0.2398  0.0833 -0.0626
48329W        W91320   0.599  18.822  16.722 -0.0847 -0.0534  0.3644
48330W        W91321  29.111  33.915  20.771 -0.0214 -0.1393 -0.1154
48331W        W91322  27.968   4.277  24.596 -0.0868 -0.0250 -0.3495
48332W        W91323  30.981  23.205  17.500  0.0046 -0.3609  0.1552
48333W        W91324  30.506  11.751  15.165  0.0544 -0.1338 -0.0512
48334W        W91325  15.756  15.481  13.630  0.2842 -0.2174  0.3075
48335W        W91326  29.028   3.823  17.335 -0.1332  0.3024  0.1527
48336W        W91327  28.616  26.423   0.889 -0.1791  0.1630  0.3744
48337W        W91328  10.704  29.272  21.425  0.1474 -0.1162 -0.1023
48338W        W91329   9.997  30.419  22.158  0.0725 -0.0714 -0.1738
48339W        W91330  13.496   0.384  23.645  0.0772 -0.0287  0.0463
48340W        W91331   3.093  13.777  10.036  0.3679 -0.0848 -0.1897
48341W        W91332   9.046   7.239  25.756 -0.2630  0.2474 -0.2149
48342W        W91333   1.537   3.940  21.388  0.0520 -0.0944  0.0069
48343W        W91334  30.971  18.761  23.031 -0.3648  0.0303 -0.2771
48344W        W91335  19.698   6.141   4.728  0.1526  0.1919 -0.2064
48345W        W91336  10.078   7.941  17.950  0.0987  0.0579 -0.1696
48346W        W91337  22.460   5.472   7.060  0.3595 -0.0771  0.0093
48347W        W91338  34.240   4.274  21.620  0.3353  0.1277  0.1000
48348W        W91339  32.829  22.925   2.237 -0.3674 -0.3200 -0.2465
48349W        W91340  11.118  11.006  22.278  0.0944  0.0100  0.2740
48350W        W91341  22.537   6.825  14.581  0.0208  0.2246 -0.2862
48351W        W91342  24.406  28.528   1.897  0.0471 -0.0571  0.1859
48352W        W91343  21.195  11.551  19.725  0.3125  0.0456 -0.4508
48353W        W91344  29.715  19.629  19.300  0.0560  0.0501  0.1954
48354W        W91345  29.188  22.736  16.954 -0.0607 -0.0047  0.0185
48355W        W91346  30.868   2.105  16.842 -0.0860 -0.1376 -0.0254
48356W        W91347  33.272   2.183  13.749 -0.1367 -0.2525 -0.2231
48357W        W91348  21.000   8.755  25.056 -0.3258 -0.1023 -0.3460
48358W        W91349  23.718   2.726  17.107  0.2475  0.2736 -0.0485
48359W        W91350  29.810   7.868  15.806  0.0841 -0.0969  0.1645
48360W        W91351  21.187  24.163  16.951  0.4562 -0.0912  0.0016
48361W        W91352  20.382   7.340   0.653 -0.2461 -0.2622 -0.1882
48362W        W91353   7.145  10.938   1.398  0.1315  0.0756 -0.2888
48363W        W91354  10.922   2.614  24.055 -0.1801  0.1430 -0.0354
48364W        W91355   4.795  17.530  18.458  0.1727 -0.4232  0.0019
48365W        W91356   8.373  15.921   1.427 -0.1224 -0.2908  0.0254
48366W        W91357  26.147  15.725  17.198  0.0154 -0.2082 -0.0674
48367W        W91358   4.260  18.248  20.544  0.0844 -0.1287 -0.0374
48368W        W91359  27.574   8.709  21.105  0.0113  0.0605  0.1602
48369W        W91360  25.385   5.306  14.861 -0.0244  0.1460  0.0417
48370W        W91361   5.054  13.852  17.618 -0.0347 -0.0840  0.2267
48371W        W91362   5.574  16.409  15.855  0.1446  0.0620  0.3224
48372W        W91363  19.736  20.099   3.764 -0.2551  0.1218 -0.0684
48373W        W91364   7.593   2.429  21.122 -0.1040 -0.0303 -0.2039
48374W        W91365  28.183  20.596  15.458  0.0112  0.0486  0.0508
48375W        W91366  21.510   4.602  15.931 -0.0022 -0.0502  0.1455
48376W        W91367  24.923  17.553  24.369  0.0264 -0.0799  0.2213
48377W        W91368  32.676   9.275  17.712 -0.1452 -0.3267 -0.4754
48378W        W91369  23.177  26.984  13.873 -0.2182 -0.0069 -0.0955
48379W        W91370  28.019   8.935  26.822 -0.0238  0.2896 -0.5762
48380W        W91371  27.514  18.535  26.584 -0.2674 -0.1207  0.5070
48381W        W91372  24.836  32.786  13.826 -0.1212 -0.2738 -0.2985
48382W        W91373   7.269  10.990  15.220 -0.1969 -0.0778 -0.1839
48383W        W91374   2.630  33.639  27.017 -0.0313 -0.1135 -0.2447
48384W        W91375   9.980   6.037   5.501  0.2710  0.1350  0.2721
48385W        W91376   2.571  19.298   3.808  0.0173  0.1381  0.1269
48386W        W91377  11.725  19.076  22.238  0.0970  0.0435 -0.1167
48387W        W91378  20.413  18.501  28.500 -0.1039 -0.1051  0.1415
48388W        W91379   3.622  20.450  23.796 -0.2077  0.0964 -0.0784
48389W        W91380  24.787   5.281  23.087 -0.1036  0.1865 -0.2278
48390W        W91381  28.493  34.555   4.336 -0.0293  0.3317 -0.0493
48391W        W91382  27.149  21.178  28.391  0.0937 -0.1754  0.1498
48392W        W91383  32.433   9.812  28.765 -0.0916  0.3113 -0.1309
48393W        W91384   3.102  15.807  18.004  0.1116 -0.2378 -0.0032
48394W        W91385  18.362   0.521  22.891  0.1989 -0.0734 -0.1155
48395W        W91386  32.330   9.247   1.794  0.0443 -0.1981 -0.0352
48396W        W91387   8.144  26.697  25.538 -0.2010 -0.2238 -0.0112
48397W        W91388   3.055   0.886  14.446  0.2326  0.1107  0.1638
48398W        W91389  24.117   1.256  23.692 -0.2312  0.0939 -0.1424
48399W        W91390  34.064  29.969   4.674  0.0736  0.2277  0.1261
48400W        W91391  25.720  23.750  22.990  0.2957  0.4391  0.1810
48401W        W91392   0.820  21.036  27.327  0.0527 -0.1130  0.2859
48402W        W91393  12.969  14.516  16.987 -0.1130 -0.2210 -0.2049
48403W        W91394  34.521  25.944  17.828 -0.1679  0.0244  0.0435
48404W        W91395   8.361  22.374   0.839  0.0509 -0.2381  0.3253
48405W        W91396   7.336   2.640  20.395  0.0880  0.0399  0.2186
48406W        W91397  13.612  31.469  19.402 -0.1358 -0.3106 -0.1055
48407W        W91398   9.231  15.571  15.537 -0.2062  0.2299  0.1324
48408W        W91399  15.856  11.979  17.333 -0.1992 -0.3972  0.3175
48409W        W91400  33.107  24.527  27.084 -0.2346 -0.0060  0.1507
48410W        W91401  25.167  10.506  14.553 -0.0362 -0.2602 -0.0471
48411W        W91402   3.957  18.116  20.980 -0.1301  0.0854 -0.4411
48412W        W91403  17.776   7.223  25.664 -0.4584 -0.0688 -0.0884
48413W        W91404   3.620  11.986  25.023  0.1269  0.2558  0.0975
48414W        W91405  20.312   5.774   2.105 -0.2474 -0.1899 -0.0172
48415W        W91406   0.438  31.985  26.400 -0.1828 -0.1309 -0.1358
48416W        W91407   9.365   7.007  22.950 -0.0747  0.0689  0.2167
48417W        W91408   7.673  22.882  27.735 -0.2676  0.0184  0.0226
48418W        W91409  28.824   5.370   1.478 -0.0349  0.2691  0.0142
48419W        W91410  22.198   8.681  14.616 -0.3041 -0.0389 -0.0126
48420W        W91411   9.238   6.229  15.256  0.0699 -0.2207  0.0479
48421W        W91412   3.856  25.490  15.525  0.1067  0.0637  0.2054
48422W        W91413  32.657  15.920  17.646  0.0306  0.0408  0.0317
48423W        W91414   2.977  32.439   6.940  0.0750 -0.1946 -0.4897
48424W        W91415   9.425   8.932  16.561  0.0629 -0.0913  0.1104
48425W        W91416  12.055   8.883   7.304  0.0632  0.0532  0.2006
48426W        W91417  24.866  11.354  16.121 -0.2356 -0.0552  0.4236
48427W        W91418   1.267  34.555   2.596 -0.4401  0.1326 -0.0742
48428W        W91419  34.097  30.239  27.415 -0.0849 -0.1851  0.1508
48429W        W91420  16.563  12.203  28.265 -0.0471  0.0047 -0.2693
48430W        W91421  27.843  33.842  13.980 -0.1401 -0.0347  0.0480
48431W        W91422  28.165  20.214  24.219  0.2588 -0.1515  0.0362
48432W        W91423  31.317  32.994  20.339  0.1080 -0.2246 -0.2254
48433W        W91424  29.986  20.663   1.132  0.2072 -0.0027  0.1871
48434W        W91425  31.567   5.114  22.065  0.0847 -0.0158  0.2095
48435W        W91426  23.707  12.426  24.569 -0.1169 -0.0233  0.0379
48436W        W91427  19.462  10.937  17.009 -0.1588 -0.0267 -0.0379
48437W        W91428  29.316  18.193  18.558 -0.1142  0.0978 -0.0526
48438W        W91429  32.982   3.379   4.244  0.1958  0.0794 -0.2182
48439W        W91430   7.213   3.766  18.881  0.2230 -0.2329  0.0052
48440W        W91431  24.382   5.787  22.119 -0.1131 -0.0875 -0.3025
48441W        W91432   6.983   5.222   2.704 -0.2269  0.0129 -0.0375
48442W        W91433  34.477  26.964  24.258  0.0311  0.0465 -0.0208
48443W        W91434  22.449   0.782  22.235  0.0668  0.1830 -0.0473
48444W        W91435  23.875   2.401  16.383 -0.0182  0.0450  0.2030
48445W        W91436  24.597   5.346   3.533 -0.2091  0.0124  0.1870
48446W        W91437  20.186   0.682  23.826 -0.1802  0.1458 -0.0091
48447W        W91438   9.509  16.710  28.000 -0.0482 -0.3451  0.0225
48448W        W91439   9.039  27.013   5.480  0.0888  0.1770  0.4889
48449W        W91440  31.406  20.395  18.548 -0.0387  0.2681  0.0632
48450W        W91441   0.722   7.418  20.851  0.1899  0.0235 -0.0305
48451W        W91442  28.267  13.330  27.898 -0.1251  0.2094 -0.2472
48452W        W91443   7.966  13.706  25.124  0.0716 -0.1133 -0.2200
48453W        W91444  20.545  13.916  18.930 -0.0066  0.3045  0.2282
48454W        W91445   1.633  10.035  20.892 -0.1481  0.1913 -0.0729
48455W        W91446   8.743  20.823   4.204  0.0432  0.2252 -0.1255
48456W        W91447   6.391   7.945   9.821 -0.0467  0.1196 -0.4169
48457W        W91448  18.416  33.340  21.482  0.2801 -0.4441 -0.2988
48458W        W91449  30.863   5.979  14.110  0.0881  0.0176 -0.0470
48459W        W91450   8.765  12.903  18.676  0.2091  0.0748 -0.0090
48460W        W91451  28.328  10.052  23.440  0.0298  0.0985 -0.1976
48461W        W91452  31.653  21.161  27.075 -0.1758 -0.2607  0.1610
48462W        W91453  27.913  11.796  17.084 -0.1324  0.1845  0.0106
48463W        W91454  10.659  34.461   7.185  0.4549 -0.2087 -0.3305
48464W        W91455  10.253   0.161  20.640  0.2688 -0.1639 -0.1606
48465W        W91456   0.538  10.844  24.491 -0.0312 -0.1546  0.2362
48466W        W91457  26.100   1.804  19.407 -0.1641 -0.1277  0.2416
48467W        W91458  10.564  12.584  27.642  0.5290  0.2089 -0.1935
48468W        W91459  27.249   9.291   1.221 -0.0330 -0.1650  0.3078
48469W        W91460  34.026   2.814  14.099  0.0486  0.1577  0.0362
48470W        W91461  32.419  12.430  21.672 -0.1825 -0.0933 -0.2493
48471W        W91462  11.551   8.024  29.026  0.1785  0.0471 -0.1785
48472W        W91463   5.286   1.901  20.782  0.1877  0.0074  0.0003
48473W        W91464  28.093  25.468  25.991  0.0173 -0.1014 -0.0319
48474W        W91465  29.843   8.581  18.574 -0.0298 -0.1238  0.0613
48475W        W91466  22.805   7.512  20.231 -0.1080  0.4243 -0.3476
48476W        W91467  32.219  11.537  16.512  0.6159 -0.4269  0.1880
48477W        W91468  13.273  25.980  19.913 -0.1060 -0.1995 -0.3003
48478W        W91469  29.430  30.537  14.089 -0.0519 -0.0955 -0.1375
48479W        W91470   9.442   8.623  29.106 -0.2216  0.1106  0.2031
48480W        W91471  23.332  19.646  28.706  0.0617  0.1084  0.1908
48481W        W91472  33.140   7.887   8.529 -0.0966 -0.1813 -0.0827
48482W        W91473  34.702   4.068   0.208 -0.2815  0.2668 -0.3269
48483W        W91474  13.071  12.541   1.620  0.2916  0.1130  0.1038
48484W        W91475   9.235  24.031  15.216 -0.1311  0.0576  0.1932
48485W        W91476  27.884  12.237   5.828 -0.2058  0.4100 -0.0048
48486W        W91477  31.121  11.597  17.046  0.0347 -0.0420 -0.0770
48487W        W91478  32.580  11.784   5.812 -0.2358  0.1107  0.1059
48488W        W91479  20.732   1.509   2.496 -0.0557 -0.2535 -0.0718
48489W        W91480  23.698   2.370  15.063 -0.0189  0.1311 -0.0210
48490W        W91481  34.633  11.965  22.512 -0.0610  0.0896 -0.0520
48491W        W91482  31.732   4.235  16.424 -0.2620  0.4957 -0.0448
48492W        W91483  10.385   2.021  27.694 -0.1277  0.0913  0.0231
48493W        W91484  22.687   6.597   2.663  0.2954 -0.2978  0.2771
48494W        W91485   4.652  11.121  23.458  0.3386  0.0981  0.0310
48495W        W91486  19.681   4.475  17.321 -0.1104 -0.3169 -0.2397
48496W        W91487  24.428  10.696  23.716 -0.1322 -0.0845 -0.0289
48497W        W91488  25.291  11.283  26.830 -0.1066  0.1006 -0.0952
48498W        W91489   6.382   4.991   3.420 -0.3493  0.1887 -0.2627
48499W        W91490  24.896  19.102  14.852 -0.1145 -0.2169  0.1180
48500W        W91491   0.885   3.146  17.139 -0.0948 -0.0511  0.0696
48501W        W91492   1.687   4.977   8.339 -0.3703 -0.1931  0.0206
48502W        W91493   1.066  33.456  13.786  0.1266  0.0700 -0.0068
48503W        W91494  29.245  32.942  20.635  0.2010 -0.0049  0.0853
48504W        W91495   3.009   8.893  16.294  0.3864 -0.1068 -0.2360
48505W        W91496   9.061  23.612  28.289 -0.0215 -0.1098 -0.0864
48506W        W91497  34.640   9.971  26.332 -0.2510 -0.2841 -0.3059
48507W        W91498  25.529  19.604  17.387 -0.1602 -0.2165  0.1106
48508W        W91499  31.678  15.684  21.430  0.3955 -0.3158 -0.0530
48509W        W91500   4.780  16.527  16.992 -0.0590 -0.2044 -0.4656
48510W        W91501   5.483  20.667  24.631  0.3417 -0.0087 -0.0138
48511W        W91502  28.307   4.696   3.525 -0.1420 -0.0186  0.2109
48512W        W91503  30.694  12.409  28.971  0.2570 -0.1383 -0.3511
48513W        W91504   3.955   4.263   2.831  0.1409 -0.1926  0.0455
48514W        W91505  29.009  26.651  14.304 -0.0034 -0.0318 -0.0369
48515W        W91506   0.762  15.441  28.540  0.1548  0.0888 -0.0624
48516W        W91507  17.699   9.139   3.758 -0.0063 -0.0864  0.0692
48517W        W91508   1.578  32.112  19.942  0.1345  0.1600 -0.1970
48518W        W91509   7.001   7.267   3.787  0.0312 -0.0252  0.3283
48519W        W91510  13.648   6.978   1.482 -0.1209  0.1853 -0.1637
48520W        W91511  30.874   4.164  21.350  0.1421 -0.0486 -0.1270
48521W        W91512  31.957   2.293   7.372 -0.0272  0.2507 -0.0514
48522W        W91513  32.477  18.986  16.359 -0.1746  0.1566  0.0939
48523W        W91514  25.502  18.096   7.927 -0.0995 -0.3898 -0.4460
48524W        W91515  25.330  23.565   9.175 -0.0504 -0.0890 -0.0369
48525W        W91516  30.047  32.481  27.480 -0.1771  0.1270  0.0597
48526W        W91517  28.644  19.800  28.778 -0.0511  0.0105 -0.0260
48527W        W91518  28.424   9.696  22.706 -0.0315 -0.1697 -0.0280
48528W        W91519  11.261  19.615  26.989  0.1922  0.4076  0.0359
48529W        W91520  32.701   1.531  18.977 -0.1522  0.1098  0.0290
48530W        W91521  14.692   9.265  18.451  0.0079 -0.0362  0.1692
48531W        W91522  31.740   7.311   6.753 -0.0064 -0.0654  0.0567
48532W        W91523   0.501   2.169  21.077 -0.1407  0.0996 -0.2347
48533W        W91524  34.354   2.832   3.220 -0.0213  0.3111 -0.0367
48534W        W91525  23.686   7.104  27.996  0.0769  0.0640 -0.1724
48535W        W91526  28.519   0.433   3.720  0.1446  0.2842 -0.0148
48536W        W91527   0.154   6.165  21.072  0.1271  0.2508 -0.1601
48537W        W91528  13.910  13.858   4.550 -0.1694 -0.0897 -0.1470
48538W        W91529   3.132  29.821  28.456 -0.2343  0.0500  0.1005
48539W        W91530  12.271   4.259  28.171  0.2362 -0.3410  0.0129
48540W        W91531  20.812   1.130   2.105 -0.2377 -0.0112  0.2319
48541W        W91532  30.681  26.898  22.707 -0.1754 -0.0505  0.1617
48542W        W91533  16.497   9.160  28.774 -0.0321  0.2434  0.0899
48543W        W91534  32.277   7.215  23.152 -0.3833  0.0930 -0.1016
48544W        W91535   0.870   7.346  16.786  0.0118  0.3716 -0.3907
48545W        W91536  28.556   9.526  16.779  0.0769 -0.0667  0.0012
48546W        W91537   4.753   1.810   1.642  0.1292  0.3388 -0.0129
48547W        W91538  30.132   1.029  28.014 -0.0052  0.0085  0.1681
48548W        W91539  26.595  18.379  22.322 -0.0354  0.0495  0.1570
48549W        W91540   8.324   1.532  20.650 -0.1052 -0.0586 -0.4882
48550W        W91541   3.646  11.086   2.343  0.0388  0.0707 -0.0453
48551W        W91542  10.909  33.463  25.892 -0.0160  0.2009 -0.1809
48552W        W91543  31.820   8.917   4.483  0.0898  0.0600 -0.2517
48553W        W91544  21.256   2.664  20.727 -0.0143 -0.0260  0.0658
48554W        W91545  11.988   9.342  25.082 -0.0690  0.2225 -0.1645
48555W        W91546  33.192  20.064  25.327  0.0375  0.2132  0.1983
48556W        W91547  27.853  28.161  26.710 -0.3655  0.0012 -0.0902
48557W        W91548  32.093  14.492  19.687  0.1610 -0.2442  0.2425
48558W        W91549   3.263   9.852  16.313 -0.0446  0.0986 -0.0923
48559W        W91550  30.809  17.157  16.542 -0.2683 -0.3276 -0.2925
48560W        W91551  26.191   5.562   1.471  0.1109  0.2583  0.5137
48561W        W91552  10.473  12.843  16.621  0.1920 -0.0786  0.1692
48562W        W91553   3.410  30.743  21.452 -0.1897 -0.4276 -0.0307
48563W        W91554   2.081  14.756  23.241  0.1127  0.0239 -0.0635
48564W        W91555   4.203  25.692  21.494  0.0577  0.0473 -0.1527
48565W        W91556  27.497  20.256  14.980  0.0089  0.0876  0.0817
48566W        W91557  31.829   0.532   7.894  0.1737  0.1790 -0.0616
48567W        W91558   3.614  31.783  20.835 -0.2282 -0.2849  0.0769
48568W        W91559  34.650  17.083  21.163 -0.0681 -0.0864  0.0666
48569W        W91560  24.582   9.623  27.703  0.0290  0.0319  0.0276
48570W        W91561   3.597  20.918  18.649  0.0246 -0.0433 -0.0430
48571W        W91562   2.041  16.641  11.112 -0.1142  0.1807 -0.0521
48572W        W91563   1.044  28.398   2.751  0.1117  0.4763  0.1800
48573W        W91564  29.443   5.769   1.886  0.0055  0.2760 -0.0669
48574W        W91565  34.169  12.753  22.747  0.3387  0.2244 -0.0580
48575W        W91566  14.919   4.601  26.876  0.0948 -0.0956  0.0262
48576W        W91567   4.363   5.867  18.471 -0.2314 -0.1961  0.0201
48577W        W91568  34.426  24.577  21.960 -0.0331  0.0540 -0.1260
48578W        W91569  22.443   9.324  23.833 -0.3983 -0.0933  0.0880
48579W        W91570  10.762  13.147  17.000 -0.1310 -0.5254 -0.1603
48580W        W91571  33.000   4.128   4.499 -0.0833  0.1153 -0.2572
48581W        W91572  29.354  27.742  15.755 -0.0947 -0.1797 -0.2724
48582W        W91573   1.906   6.704  26.770 -0.1504  0.1022  0.0591
48583W        W91574  15.624  25.154  14.051  0.0845  0.2261  0.4927
48584W        W91575  34.480   6.129   4.649 -0.2281  0.0498 -0.0893
48585W        W91576  20.689  12.453  15.890 -0.0452 -0.2513  0.0253
48586W        W91577  22.118  13.720  21.892 -0.1592 -0.1670  0.1069
48587W        W91578  34.726  16.645  24.956 -0.0078  0.0084  0.1468
48588W        W91579  33.142  17.498  22.861 -0.2967 -0.0449  0.2705
48589W        W91580  30.197  10.588  24.569  0.4156  0.2146 -0.1086
48590W        W91581  24.490   1.883  15.945 -0.1930 -0.0523 -0.5049
48591W        W91582  12.168   6.120  28.857 -0.1098  0.1842  0.0833
48592W        W91583  29.886   6.262  27.693 -0.1467  0.0515 -0.0908
48593W        W91584   1.033   6.329  17.979 -0.0444  0.0970 -0.4637
48594W        W91585   4.600  33.227   2.518 -0.1548 -0.0611 -0.1165
48595W        W91586  26.214  14.867  26.541  0.3387 -0.2892  0.1184
48596W        W91587  33.817   4.480  24.975 -0.1005 -0.2221 -0.2075
48597W        W91588  23.912  13.425  28.552 -0.1818  0.2727  0.1240
48598W        W91589  22.916  27.729   1.037  0.0973 -0.4461  0.1753
48599W        W91590  21.900   9.419  15.497 -0.4408 -0.1918  0.1161
48600W        W91591   1.364   1.996   3.082  0.2666  0.1912  0.1468
48601W        W91592  11.999  11.658  21.124  0.1152  0.6088 -0.1572
48602W        W91593  14.104   8.288   4.610  0.0822 -0.2304  0.2523
48603W        W91594  27.572   1.332   7.666  0.0347  0.3914  0.0249
48604W        W91595  33.930  13.542  14.961 -0.2076 -0.5373  0.0370
48605W        W91596  11.883   5.429  22.872  0.0591 -0.0709 -0.0913
48606W        W91597  30.257  20.385   1.603 -0.2367  0.0279 -0.2714
48607W        W91598   1.885  13.694   2.386  0.1760  0.0219 -0.0128
48608W        W91599   1.300  18.335  20.561  0.1832 -0.0500  0.0137
48609W        W91600   0.206   6.233  25.612  0.0661  0.1213  0.1636
48610W        W91601   5.838   3.297  19.078 -0.0340  0.1206 -0.3677
48611W        W91602  26.027   3.845  13.527  0.0527 -0.2180 -0.2620
48612W        W91603  34.043  13.716   9.805 -0.1690 -0.0490  0.0080
48613W        W91604  18.650  15.536  22.576 -0.0593  0.2374 -0.0501
48614W        W91605   7.555  20.439  20.702 -0.4816  0.0571  0.0057
48615W        W91606   1.364   1.118  21.934 -0.1465 -0.0743 -0.0122
48616W        W91607  31.504   3.935  17.953  0.0689  0.3832 -0.2095
48617W        W91608  25.159   6.802  16.490  0.0849  0.0315 -0.1997
48618W        W91609  28.848   9.170  25.585 -0.2352  0.1958  0.1607
48619W        W91610  28.483   5.060  22.524  0.0704  0.0907  0.1582
48620W        W91611  29.786  12.955  19.562  0.1932 -0.1388  0.0238
48621W        W91612  29.849   2.347  15.940 -0.0337 -0.2698  0.1757
48622W        W91613  21.629   0.781  20.293  0.4183  0.1450  0.1530
48623W        W91614  20.414  13.422   6.738 -0.0948 -0.2670 -0.0775
48624W        W91615  30.302  14.603  16.528 -0.1031  0.0400  0.2868
48625W        W91616  11.152   8.276  17.339  0.2207 -0.0105  0.1198
48626W        W91617  19.001  34.510  24.567 -0.0911  0.1050  0.2401
48627W        W91618   9.156   8.753  22.257  0.2565 -0.1981  0.0649
48628W        W91619  33.864   7.573  17.818  0.1032  0.1209  0.2517
48629W        W91620   7.507  32.593  27.979  0.1260 -0.1308 -0.0371
48630W        W91621  21.225   2.910   2.695  0.1880 -0.1017  0.0104
48631W        W91622  32.833  29.387  14.571  0.0126  0.2530  0.1748
48632W        W91623  25.543  18.564   3.690 -0.4085  0.3509 -0.2064
48633W        W91624   4.090  32.035   9.289 -0.2002  0.2742 -0.0725
48634W        W91625  17.681   9.667   0.100 -0.0125  0.1918 -0.0548
48635W        W91626  30.952  26.209  16.308  0.0853 -0.0257 -0.0824
48636W        W91627  27.787   9.271  22.227  0.0851  0.0219  0.0019
48637W        W91628  22.930   4.579   5.736  0.1470 -0.0079  0.1419
48638W        W91629  29.216  16.412  22.242 -0.0320 -0.1565 -0.3080
48639W        W91630  34.478  10.669  24.543 -0.0320 -0.1147  0.4151
48640W        W91631  32.264  16.101  26.641  0.0817 -0.3162  0.0165
48641W        W91632  26.727   3.903   8.678  0.1730 -0.0696 -0.3425
48642W        W91633  15.883  26.782  17.748  0.0758  0.1310 -0.1525
48643W        W91634   2.856   4.495   5.205 -0.0369 -0.1113 -0.0446
48644W        W91635   3.557  11.407  15.279 -0.0013 -0.0865 -0.2152
48645W        W91636  30.446  10.953  23.254 -0.0809 -0.0917  0.1401
48646W        W91637   4.164   9.648  16.312  0.1757 -0.0636 -0.3421
48647W        W91638   2.940  31.586   8.793  0.1194  0.0108  0.2427
48648W        W91639   5.733  27.734   0.834  0.0015 -0.1374 -0.0112
48649W        W91640   6.322  23.858   5.650 -0.1057  0.2219 -0.3139
48650W        W91641   3.656   7.480  29.011 -0.0351 -0.1779  0.0051
48651W        W91642  16.707   8.206   2.395  0.0581  0.4031 -0.1842
48652W        W91643  32.341   4.211  17.223  0.0341 -0.2291  0.2752
48653W        W91644  27.362   8.105   5.561  0.0754 -0.0929 -0.3690
48654W        W91645  14.514   6.274  19.949  0.2720  0.0468 -0.1025
48655W        W91646  33.669   8.821  24.014  0.3479 -0.1848  0.3132
48656W        W91647  17.021  30.766  15.088  0.1233 -0.1759  0.1036
48657W        W91648   4.062   9.736  21.158  0.1727 -0.0148 -0.4813
48658W        W91649  33.629   1.008  19.176 -0.0558  0.0823 -0.5409
48659W        W91650  26.327  15.529  25.499 -0.2519  0.0187 -0.1223
48660W        W91651  29.949   7.648   9.221 -0.1753  0.2566  0.0415
48661W        W91652   6.436  13.987   5.269  0.2573  0.1118  0.3167
48662W        W91653  12.047   8.770  28.461 -0.0230 -0.2842  0.1428
48663W        W91654  12.087  12.669  24.361  0.2342 -0.1805 -0.2929
48664W        W91655   0.003  33.548   4.601 -0.1600 -0.1283 -0.2157
48665W        W91656   4.665  13.963   9.418 -0.1934 -0.4120  0.0549
48666W        W91657  13.605   7.557  25.387  0.2184  0.0036 -0.0850
48667W        W91658  18.427  12.359   4.981 -0.1870  0.0522 -0.0521
48668W        W91659   0.730  33.570   0.055  0.2617 -0.1120  0.2307
48669W        W91660  18.339   3.328   0.680 -0.1025 -0.0260 -0.0864
48670W        W91661  21.121  33.558   0.515  0.3123 -0.1070  0.0950
48671W        W91662  24.013  11.044  24.898 -0.3667 -0.1177  0.1007
48672W        W91663  34.349  29.619  17.848 -0.0733  0.1101 -0.0342
48673W        W91664  25.047  31.905   4.631  0.0453 -0.0636  0.0313
48674W        W91665   5.544  14.358   6.845  0.1285 -0.2997  0.2221
48675W        W91666  32.868   1.078   8.065  0.3513  0.3097 -0.1284
48676W        W91667   2.766   9.190   1.461  0.2027  0.0681 -0.0357
48677W        W91668  12.095   9.289   1.016 -0.2117 -0.0220 -0.0757
48678W        W91669  24.444  16.135  18.227 -0.1858 -0.2491  0.0381
48679W        W91670  18.830  18.981  22.135  0.0669  0.0743 -0.1856
48680W        W91671  27.919  20.385  27.493 -0.3498 -0.0826 -0.1828
48681W        W91672  10.759  12.054  19.306 -0.1249  0.1020  0.2615
48682W        W91673  16.020  26.493   9.753  0.0091  0.1456  0.0718
48683W        W91674  27.166  24.071   8.109  0.0275  0.0917  0.1852
48684W        W91675  15.365   3.951  25.336  0.0924 -0.1657 -0.1219
48685W        W91676   8.571  11.185  27.790  0.0945 -0.1759  0.0269
48686W        W91677   4.741   7.129   7.603  0.0559 -0.1176 -0.0190
48687W        W91678  30.553   8.805   2.994  0.1240 -0.0552 -0.2253
48688W        W91679   9.313   3.808  29.178  0.1774  0.1025 -0.2093
48689W        W91680   6.877   3.250   1.634 -0.1986  0.1810  0.2281
48690W        W91681  17.390  33.100  19.931  0.0702 -0.1386 -0.4438
48691W        W91682  30.272  19.770  23.362  0.2158  0.0817 -0.1297
48692W        W91683  28.754   4.509  20.779 -0.0003 -0.0740 -0.0400
48693W        W91684  24.806  10.281  21.454  0.0327  0.1200  0.0979
48694W        W91685   1.484   8.735   4.862 -0.0046  0.0735 -0.1049
48695W        W91686  28.525  10.622  14.262  0.0149 -0.2118  0.1868
48696W        W91687  33.054  33.779   8.862 -0.0394 -0.1392 -0.1017
48697W        W91688  22.979   0.830   0.813 -0.1233  0.0364 -0.0126
48698W        W91689  28.556  11.735  27.964 -0.1073  0.1416 -0.0915
48699W        W91690  34.731  21.388   5.474  0.0440 -0.2861 -0.2870
48700W        W91691  29.973   8.734   2.752 -0.1663 -0.2164  0.1123
48701W        W91692  33.398  28.178  27.557  0.0131 -0.1863 -0.0089
48702W        W91693  20.361   7.416  21.821 -0.0512 -0.1504 -0.1067
48703W        W91694   8.445  32.819  23.333 -0.2227  0.0467 -0.1629
48704W        W91695   9.384  33.388  27.329  0.1142 -0.2610  0.4946
48705W        W91696  32.101   6.999   7.291 -0.0493  0.2267  0.1943
48706W        W91697  28.268   5.900   5.528  0.0593 -0.0507  0.0721
48707W        W91698   7.293  34.226  28.062 -0.0390 -0.0401 -0.1073
48708W        W91699  32.721   9.771  25.334 -0.0017  0.2066  0.3431
48709W        W91700  22.035  33.675   3.884  0.0595 -0.1348  0.1238
48710W        W91701  10.611  22.290  28.655 -0.0676 -0.3092  0.2273
48711W        W91702  16.085  29.605  20.577  0.4394  0.1139  0.0990
48712W        W91703   0.516  28.852  21.563  0.2516 -0.2429 -0.0481
48713W        W91704  30.924  21.115  18.475  0.1027 -0.2688 -0.3128
48714W        W91705  19.076   5.481  25.838  0.0007 -0.1450 -0.0392
48715W        W91706   0.796   8.018   9.457  0.0869 -0.1902  0.0884
48716W        W91707  29.199   3.565  28.524  0.1352 -0.3817 -0.2588
48717W        W91708   3.072  13.754  28.989 -0.2334  0.0436 -0.0191
48718W        W91709   3.663  29.203  22.514  0.1346 -0.0376  0.0084
48719W        W91710   0.480  18.009   7.637  0.0160 -0.1635 -0.0783
48720W        W91711  27.892  11.208  19.508 -0.0076 -0.2549  0.0575
48721W        W91712  28.542  30.700  28.945  0.0804  0.1400  0.3382
48722W        W91713  19.676  12.919  19.364 -0.2747 -0.1451 -0.0400
48723W        W91714   2.231   8.704  24.369 -0.0398 -0.2653 -0.1422
48724W        W91715  33.987  20.766  27.723 -0.2940  0.0649  0.2970
48725W        W91716   5.425   7.301  17.783  0.1064  0.1056 -0.1638
48726W        W91717  34.249  22.594   0.029  0.0435 -0.1262  0.0619
48727W        W91718  33.020  27.114  24.352  0.2319 -0.0665  0.1231
48728W        W91719  11.325  14.391  11.045 -0.1569 -0.1364  0.0478
48729W        W91720  27.990  16.224  18.826 -0.0924 -0.0563  0.1561
48730W        W91721  31.211  16.435  18.834 -0.2622  0.1128 -0.1311
48731W        W91722   1.294  14.805  24.810  0.3564  0.2019  0.1264
48732W        W91723  11.654  23.484  19.158 -0.3636 -0.2031  0.0108
48733W        W91724  29.662  16.217  26.077 -0.0404 -0.2031 -0.3454
48734W        W91725  12.317  11.515   6.165  0.2833 -0.0770 -0.0550
48735W        W91726  26.420   0.421  20.534  0.1989  0.0719  0.0523
48736W        W91727   6.679  15.490   0.568  0.0083 -0.1012 -0.0603
48737W        W91728   2.992  33.469  22.848  0.0368 -0.2825  0.0264
48738W        W91729   2.461  19.986  26.912  0.2755 -0.1910  0.1105
48739W        W91730  34.535   5.709  18.213  0.0734  0.2047 -0.2666
48740W        W91731  16.454  32.658   0.190  0.0598  0.1416  0.0604
48741W        W91732  19.545  13.041   0.461 -0.0958 -0.1119  0.2891
48742W        W91733   7.439   3.219   0.892  0.2177  0.1971  0.3761
48743W        W91734   2.271  10.786   4.287  0.1394  0.0220 -0.3504
48744W        W91735  25.966  17.742   6.795 -0.0060  0.1129  0.1422
48745W        W91736  24.801  13.253   8.464  0.0017 -0.0475  0.1146
48746W        W91737   5.977  31.117  26.864 -0.0008  0.1752  0.3862
48747W        W91738  14.939  15.296  25.467  0.1554  0.1016  0.1745
48748W        W91739  32.563  19.803  21.537  0.1536  0.1502  0.4882
48749W        W91740  33.175  31.193   0.620 -0.1032 -0.0218  0.2813
48750W        W91741  24.855  28.162  24.870  0.1839  0.3586 -0.3283
48751W        W91742   3.166  34.641  28.443  0.4396  0.2272  0.3956
48752W        W91743  32.653  32.542  22.488 -0.0207  0.0805  0.0118
48753W        W91744   8.191  11.654  21.461 -0.2061  0.2172 -0.2319
48754W        W91745  22.281   1.485  26.778 -0.2300  0.0702 -0.3216
48755W        W91746  31.793  33.792   0.514  0.0224 -0.3473 -0.0107
48756W        W91747  29.231  14.732   5.657 -0.2267 -0.1122 -0.4288
48757W        W91748   0.805  15.831  18.453  0.3777  0.2028  0.1410
48758W        W91749  28.483  18.263  16.597 -0.3344 -0.0352  0.1303
48759W        W91750   9.662  13.774   5.387  0.4447  0.0162  0.0074
48760W        W91751   9.520   7.976  26.508  0.0570 -0.0049 -0.0489
48761W        W91752   4.396  28.167  16.805 -0.2182  0.1415  0.1065
48762W        W91753  27.364   3.394  27.262 -0.2142  0.3320 -0.1840
48763W        W91754  29.438   3.595  27.751 -0.1181 -0.1253 -0.4608
48764W        W91755  32.755  31.421  21.901  0.3205 -0.1609  0.3161
48765W        W91756   6.597  14.614  15.545  0.2428  0.1540  0.0141
48766W        W91757   7.699  23.003  25.363  0.0904 -0.0364 -0.2266
48767W        W91758  28.596  15.152  20.810  0.3428 -0.1029  0.3363
48768W        W91759  20.982   5.647  25.437 -0.3135 -0.0960  0.0337
48769W        W91760  31.127   4.527   6.198  0.1258 -0.2660  0.1725
48770W        W91761  17.526  15.801  15.712 -0.2336 -0.1713 -0.1638
48771W        W91762   7.320   9.660  16.109  0.0288 -0.0905  0.1621
48772W        W91763  25.275  22.517   1.151  0.2406 -0.1953 -0.1300
48773W        W91764  31.642  20.512   7.122  0.1698  0.0807 -0.0852
48774W        W91765  32.638  12.420   2.963  0.1043 -0.3408 -0.0154
48775W        W91766  11.970   0.422  26.537  0.2957  0.1138  0.1600
48776W        W91767   4.230   6.929  18.800  0.0158  0.3919  0.1845
48777W        W91768   1.989  10.997  22.319 -0.4015  0.0172  0.0782
48778W        W91769  33.717  15.033  10.226  0.0378  0.1269  0.3128
48779W        W91770  21.931   7.151   3.543  0.1713  0.1821 -0.0259
48780W        W91771  27.200  33.753   9.388 -0.1024 -0.0448  0.1082
48781W        W91772  11.013   2.018   5.476 -0.0493  0.0422  0.0257
48782W        W91773  13.440  17.043  21.071 -0.0814 -0.0344  0.1309
48783W        W91774   9.930  13.689   6.885  0.2437 -0.1576  0.0875
48784W        W91775  33.848  16.699   7.944 -0.0395  0.0440  0.2643
48785W        W91776  17.294  17.414  13.110  0.3863  0.1419  0.1979
48786W        W91777   3.544  23.261   0.302  0.0595 -0.0499  0.0424
48787W        W91778  30.951  11.904  10.687  0.2053 -0.1110 -0.2078
48788W        W91779  17.576  18.199  26.222  0.0857  0.0931 -0.3821
48789W        W91780  15.126  10.502  20.859  0.0733  0.0456  0.0006
48790W        W91781   3.083  18.647   4.618 -0.2549  0.0666  0.2423
48791W        W91782  11.075  22.261  28.967  0.1270  0.0298  0.0893
48792W        W91783  23.909  25.624   5.724 -0.2085 -0.1260 -0.1081
48793W        W91784  33.265  22.776   4.716  0.1569 -0.0570 -0.1993
48794W        W91785  26.822  23.200  13.649 -0.2945 -0.2294  0.3143
48795W        W91786   3.150  23.000  22.840  0.0832 -0.2856  0.0557
48796W        W91787  28.418  17.049  22.793 -0.0313 -0.1217 -0.2365
48797W        W91788  10.632  13.193   0.672 -0.0158 -0.1183  0.1405
48798W        W91789   7.531  12.531  25.190  0.1289 -0.0021  0.2268
48799W        W91790   5.997   2.557   9.021  0.1573  0.1652  0.0941
48800W        W91791   2.058   8.242   5.301  0.0681  0.1545 -0.2212
48801W        W91792  15.018  31.128   8.960  0.0350 -0.1192  0.1213
48802W        W91793   2.351   7.322  18.773  0.0761 -0.1353  0.1196
48803W        W91794  22.188  25.610  24.523 -0.1742 -0.0736 -0.1463
48804W        W91795  30.325  31.064  15.718 -0.3479 -0.1075 -0.0146
48805W        W91796  11.789   6.326   0.604  0.4028 -0.1358 -0.0125
48806W        W91797  33.002  25.094  28.429 -0.1874  0.1166  0.2433
48807W        W91798  30.996   8.204  20.069  0.1753  0.1164  0.1536
48808W        W91799  30.511   4.018  19.390  0.2925  0.3004 -0.1072
48809W        W91800  30.746  18.426   7.252  0.0792 -0.2938 -0.1616
48810W        W91801  32.299  12.353  16.500  0.1294  0.1818  0.0055
48811W        W91802   1.800   4.479   8.330  0.1097  0.0264  0.2476
48812W        W91803  30.919  10.526  14.959  0.0019 -0.0281  0.2372
48813W        W91804   7.491  23.316  23.738  0.2705  0.3515  0.1414
48814W        W91805   5.507  19.564  24.563  0.1579 -0.3322 -0.4208
48815W        W91806  24.019  19.079  14.422  0.0880  0.0860  0.3387
48816W        W91807  24.467  26.179  28.247  0.0270 -0.0751 -0.0301
48817W        W91808   5.994  13.161  21.274 -0.3072  0.0847 -0.0269
48818W        W91809  14.511  32.191  25.005 -0.0813  0.0456 -0.2767
48819W        W91810   8.680  21.433   9.679  0.0888  0.0792  0.1154
48820W        W91811  30.748  13.646  27.938  0.0164  0.0696 -0.3272
48821W        W91812  27.161  18.109  25.017 -0.0143 -0.0799 -0.0480
48822W        W91813  29.631  28.731  13.686 -0.0711  0.1228 -0.0770
48823W        W91814   4.098  14.644  17.622 -0.2671 -0.0003 -0.0627
48824W        W91815  29.370   6.154   0.559  0.0151  0.2578 -0.1192
48825W        W91816   5.692   7.685   3.559  0.3004 -0.1656  0.1777
48826W        W91817  27.963  25.958  14.389  0.5081  0.0421  0.0816
48827W        W91818   3.905   3.980  17.841 -0.0256  0.0339  0.2145
48828W        W91819  25.557  34.745  15.300 -0.0294  0.1873 -0.1445
48829W        W91820  24.403   8.796  25.854 -0.1332 -0.0370  0.0782
48830W        W91821   9.108   9.000   1.117  0.1698  0.0029  0.1758
48831W        W91822  32.793   5.781  28.297 -0.2929 -0.2309 -0.0767
48832W        W91823  31.753   0.928   6.120 -0.1217 -0.0197  0.0483
48833W        W91824   2.826  12.314  27.061 -0.3164 -0.1200  0.2648
48834W        W91825  29.281   0.747   0.921  0.0145 -0.0050  0.0646
48835W        W91826  14.556  10.799  19.646  0.1255  0.2343 -0.2469
48836W        W91827  13.717   8.441  25.254  0.1516  0.3201 -0.0909
48837W        W91828  30.695  12.704   8.528  0.2006  0.1536  0.0269
48838W        W91829  32.236  21.559  20.414  0.0355  0.0507  0.2362
48839W        W91830   6.544  30.753  23.009  0.0690 -0.4057 -0.0287
48840W        W91831  32.791  31.370  17.109 -0.1202 -0.2414  0.0240
48841W        W91832  20.661  10.918  24.138  0.1262 -0.0858  0.0153
48842W        W91833  30.041  28.274   5.261 -0.2428  0.0681  0.2270
48843W        W91834  32.867  15.990   4.056  0.1822  0.3165  0.0505
48844W        W91835   9.461  29.080   4.052  0.1707  0.1430  0.0844
48845W        W91836   7.969  25.993  24.883 -0.0782  0.1203  0.1856
48846W        W91837  25.066  25.586   5.537 -0.2368  0.1796  0.1485
48847W        W91838  23.122   3.136  20.449 -0.1373 -0.2760 -0.0454
48848W        W91839  32.109  10.598   7.828 -0.0286 -0.0499  0.4941
48849W        W91840  33.950   8.445   6.035 -0.1542 -0.2249  0.2391
48850W        W91841  31.889   4.439  15.515  0.2391  0.1235 -0.1934
48851W        W91842  21.661  34.616  15.744 -0.0032 -0.4384 -0.1525
48852W        W91843  25.084  12.208  14.119 -0.0611  0.4427  0.3619
48853W        W91844  29.064  27.472  27.865  0.1168  0.2911  0.0845
48854W        W91845  29.443  27.267  21.819 -0.0887 -0.2223 -0.0293
48855W        W91846   8.346  15.150   2.535  0.1301  0.4440  0.0230
48856W        W91847   2.369  25.190  22.089 -0.0003  0.2831 -0.0086
48857W        W91848  19.045  33.027  19.294 -0.2655  0.2808 -0.2956
48858W        W91849  16.983   0.892   8.768 -0.3865 -0.0251  0.2260
48859W        W91850   8.883  17.113   1.642  0.0141  0.0220  0.2118
48860W        W91851  28.250  20.455  25.891  0.0621 -0.0903  0.0428
48861W        W91852  29.185   4.127   1.863 -0.0936 -0.2469  0.1375
48862W        W91853  26.855  32.149   1.318  0.0001  0.0012  0.0507
48863W        W91854  10.672   4.909  10.750  0.1144  0.1204 -0.3719
48864W        W91855  32.779  17.590   7.738 -0.1128 -0.1313 -0.0123
48865W        W91856  28.514  13.000   1.814 -0.1334 -0.0027 -0.3571
48866W        W91857  27.606  32.632   8.843 -0.1701 -0.0599 -0.0414
48867W        W91858   6.632   5.689   7.605 -0.3092 -0.5326  0.1504
48868W        W91859   8.945   7.684  23.675 -0.2329  0.1028 -0.1121
48869W        W91860  32.215  30.168   8.283 -0.2449 -0.0000  0.0860
48870W        W91861   5.423   7.480  20.512  0.2895 -0.1630 -0.0796
48871W        W91862  11.452   3.931  10.050 -0.0243  0.1332 -0.1052
48872W        W91863   1.595  17.818  25.357 -0.2412 -0.0368  0.2500
48873W        W91864   9.634  10.626   5.000 -0.3122  0.1226  0.2163
48874W        W91865   3.294   6.387   8.563  0.3890 -0.0428  0.1715
48875W        W91866  33.207  32.046  26.806 -0.2474  0.0416  0.1366
48876W        W91867   7.682   6.828  27.865  0.2332  0.1974 -0.2445
48877W        W91868  34.238  10.786  27.176  0.2295  0.0084  0.2861
48878W        W91869   1.439   5.219  14.286 -0.0299  0.0154  0.0135
48879W        W91870  32.300  24.599  24.851 -0.2045  0.0200 -0.2136
48880W        W91871  12.782   2.834  27.564 -0.0995  0.0054 -0.0441
48881W        W91872   7.659  12.938  14.828  0.1810 -0.0140  0.1226
48882W        W91873   3.363  28.863   4.508 -0.0303  0.1471 -0.3085
48883W        W91874   6.293   2.909   8.884  0.2128 -0.1113 -0.2154
48884W        W91875  24.797  12.120  24.459  0.1191 -0.1256 -0.3925
48885W        W91876  29.346  33.894  27.086  0.2144  0.1839 -0.3289
48886W        W91877   3.272   6.835   3.869  0.1475 -0.0962  0.0547
48887W        W91878   6.189   3.868  16.186  0.0170  0.1139  0.0244
48888W        W91879   1.542   4.372   4.295 -0.3124  0.1474 -0.2691
48889W        W91880  19.082  11.185  23.298  0.0716  0.0521 -0.1204
48890W        W91881  24.774   8.843  28.941  0.0319 -0.1876 -0.1351
48891W        W91882  29.260   6.574  17.906 -0.1273  0.1380  0.1738
48892W        W91883  17.692  31.147   8.788 -0.1157  0.1097  0.0983
48893W        W91884  25.977  11.779  26.739 -0.0246  0.0958 -0.1044
48894W        W91885  25.245   3.612   2.005 -0.2856 -0.1903  0.2978
48895W        W91886  23.314   9.998  20.396 -0.1847  0.1134 -0.0021
48896W        W91887   9.197  13.446  20.131 -0.0304 -0.0657  0.2635
48897W        W91888   4.237   0.094   3.136 -0.2200  0.1926  0.1662
48898W        W91889  26.148  24.188  25.516  0.0091  0.0001  0.1521
48899W        W91890  24.728   4.856  23.889 -0.0594  0.0995  0.0458
48900W        W91891  27.608   2.034  15.648 -0.0215  0.1352 -0.0642
48901W        W91892  24.323  33.324  22.517  0.0486  0.1519  0.1561
48902W        W91893  21.348   5.757  23.781  0.2480  0.2703 -0.0727
48903W        W91894   9.544   9.459  17.132 -0.2422  0.1093  0.2921
48904W        W91895   0.369  34.662  22.980 -0.3341  0.1812  0.1816
48905W        W91896   8.835  12.294  18.009 -0.1949 -0.0027  0.0385
48906W        W91897  17.500  10.800  17.040 -0.0863  0.3117 -0.0362
48907W        W91898  30.662  19.560  19.117 -0.2092  0.1182  0.0222
48908W        W91899  11.396  26.205  17.053 -0.2017  0.2393  0.2150
48909W        W91900  27.591   2.900  27.971  0.1184 -0.1620 -0.2484
48910W        W91901  26.115  33.996  18.689 -0.3494  0.0177  0.1681
48911W        W91902  34.256  12.222  20.661  0.0786 -0.0592  0.0506
48912W        W91903   1.753  20.854  27.850 -0.0975  0.2234 -0.2148
48913W        W91904  30.943  19.947  15.369  0.1725 -0.1012  0.1530
48914W        W91905  19.393  11.770  18.623 -0.0780  0.0680 -0.1961
48915W        W91906  30.704   6.111  18.248 -0.1447  0.1417 -0.1770
48916W        W91907  17.466   1.912  23.622  0.0450 -0.1265  0.0808
48917W        W91908  23.876  17.845  16.228  0.0444 -0.0595  0.0031
48918W        W91909   3.903  18.559  15.855  0.0206 -0.0502  0.0140
48919W        W91910  19.255   4.552  16.868  0.0932 -0.1199 -0.1256
48920W        W91911  10.844  14.805  21.178  0.1350  0.1078 -0.0737
48921W        W91912   7.410   2.508  14.956  0.1349  0.3125 -0.1912
48922W        W91913  29.062   4.448  23.702  0.2167  0.1517 -0.1680
48923W        W91914   2.798  18.190  17.888  0.0820  0.1083 -0.1951
48924W        W91915   1.285   3.606  15.912  0.2304  0.1199 -0.0052
48925W        W91916  33.222   7.588  27.616  0.2762  0.4166 -0.2774
48926W        W91917  32.937  21.349  19.446  0.2607 -0.4739  0.1433
48927W        W91918   6.701  10.667  18.325 -0.0130 -0.1674  0.1298
48928W        W91919   1.979  15.072  19.522  0.0800  0.0757  0.1664
48929W        W91920   1.811  21.769  25.638  0.0900  0.0790  0.0203
48930W        W91921   3.325  12.247  17.640  0.0171  0.1544  0.0653
48931W        W91922   0.882  31.757  15.090  0.1081  0.1097  0.0393
48932W        W91923  27.864   4.933  19.204  0.0625 -0.2280  0.1740
48933W        W91924   3.052  20.515  22.286  0.0843  0.3480  0.1010
48934W        W91925  28.033  25.960  22.869 -0.1942 -0.1141 -0.0375
48935W        W91926   6.663  10.767  17.063  0.1860  0.0777 -0.0948
48936W        W91927  31.314  28.868  18.453  0.0088  0.1030  0.1914
48937W        W91928   5.451  19.514  27.066  0.0238  0.0249  0.0554
48938W        W91929  29.616  14.453  21.126 -0.1971  0.0583  0.4347
48939W        W91930   8.796  26.593  22.232  0.1726  0.1048  0.1054
48940W        W91931  21.156  13.435  20.725 -0.1013 -0.2079  0.0725
48941W        W91932  29.323  18.710  28.092  0.1907  0.0393 -0.0964
48942W        W91933  11.562   9.485  28.888  0.0082  0.0825  0.2171
48943W        W91934   6.772   3.184  21.644  0.0689  0.0015 -0.0025
48944W        W91935   5.072  12.325  17.820  0.4270  0.2198  0.2220
48945W        W91936  30.030  10.918  15.219  0.0160  0.1303 -0.1429
48946W        W91937   9.472   6.181  17.316 -0.0061 -0.1348  0.0270
48947W        W91938   0.108  34.619  26.912 -0.1314 -0.0616 -0.1300
48948W        W91939  34.383  15.687  19.240 -0.0588 -0.1361 -0.1604
48949W        W91940  30.772  20.600  23.535 -0.0757  0.0406  0.4053
48950W        W91941   4.127  21.718  22.581  0.1359  0.0262  0.2561
48951W        W91942   3.165  22.573   4.413 -0.0211  0.0597  0.1134
48952W        W91943  31.068   4.910  25.228 -0.1835  0.0459 -0.4087
48953W        W91944  22.737  11.695  22.674 -0.2062 -0.1867 -0.1971
48954W        W91945  22.509  16.156  13.872  0.2007  0.0175 -0.0936
48955W        W91946   8.925  13.766  25.230  0.1698  0.3876 -0.2270
48956W        W91947  28.665  14.792   8.840 -0.2910 -0.2272 -0.1645
48957W        W91948   6.786  14.350  28.066 -0.2226 -0.1389  0.2672
48958W        W91949   0.779  23.839  13.857  0.0215  0.1501 -0.1386
48959W        W91950  27.134   5.628  18.080 -0.0260  0.0251 -0.2062
48960W        W91951  24.784  25.513  23.142 -0.0520 -0.1107  0.1850
48961W        W91952  31.489  22.813  22.320 -0.1960  0.1632 -0.0437
48962W        W91953  24.757  34.419  14.185 -0.3023 -0.1955 -0.0372
48963W        W91954  28.398  10.059  16.705 -0.2729 -0.3080  0.2616
48964W        W91955   4.009  14.951  20.479 -0.2284  0.0304  0.0225
48965W        W91956  12.274  21.057   7.827  0.1089 -0.1831  0.0286
48966W        W91957  31.421  10.347  22.350  0.0590  0.0651  0.0067
48967W        W91958  28.540   1.526  15.662 -0.0508  0.1047  0.1392
48968W        W91959   3.385  15.357  16.750  0.0513  0.1731 -0.0839
48969W        W91960   3.941  10.344  16.991 -0.0159  0.1068 -0.2865
48970W        W91961  34.594  27.972  20.555  0.2775  0.2148  0.3866
48971W        W91962  28.193   7.938  15.867  0.0884 -0.0272  0.1752
48972W        W91963  27.593  18.715  18.766 -0.1816  0.0727  0.2217
48973W        W91964  11.057  16.482   5.442  0.1937  0.1477  0.0264
48974W        W91965   3.608  16.781  18.840 -0.2101  0.1324  0.5060
48975W        W91966  28.051  31.082  15.695 -0.0049  0.0027 -0.0543
48976W        W91967   8.761  11.224  19.928  0.4538  0.1740  0.4203
48977W        W91968  23.006   0.937  20.534  0.0409 -0.2992  0.0518
48978W        W91969   6.805  24.022  16.382 -0.1164  0.3134  0.0388
48979W        W91970   4.656  10.470  17.744  0.0033  0.0956 -0.3771
48980W        W91971   0.560  14.492  28.627 -0.0722 -0.0106 -0.0719
48981W        W91972   2.782  21.991   8.200  0.0044  0.1375  0.0103
48982W        W91973   6.626  13.995  23.802 -0.0166 -0.0594  0.0439
48983W        W91974  21.493   9.631   3.369  0.1402  0.3591 -0.1464
48984W        W91975   6.072  14.695  27.125  0.1080 -0.0895  0.1525
48985W        W91976   2.697  18.633  17.747  0.1078  0.2144  0.0725
48986W        W91977   4.799   7.161  16.349  0.2800 -0.1823  0.0765
48987W        W91978  17.198  13.929  16.953  0.0938 -0.0761 -0.1447
48988W        W91979  16.680  22.807  19.953  0.1109  0.2815 -0.3401
48989W        W91980   4.044  20.129  25.035 -0.1061  0.1054 -0.2159
48990W        W91981   4.957  16.030  21.736 -0.1748 -0.1258 -0.0097
48991W        W91982  28.927  18.778  22.399 -0.1862  0.0165  0.0669
48992W        W91983  25.007   5.801  22.935  0.1686 -0.0703 -0.2406
48993W        W91984  14.511  33.407   7.869  0.2232  0.1770 -0.0450
48994W        W91985  25.763  16.473  17.967 -0.0408  0.0216  0.0135
48995W        W91986  30.998  13.381   0.652  0.0522  0.2055  0.0364
48996W        W91987   5.225  11.182   0.970 -0.0385 -0.0767 -0.1452
48997W        W91988   9.842  15.142  18.984  0.1927  0.0173 -0.0462
48998W        W91989  10.364  16.089  23.122 -0.1963 -0.1660  0.1247
48999W        W91990   1.368   8.973   0.132  0.2524  0.1563 -0.0228
49000W        W91991   4.921   9.918  23.919 -0.0987 -0.2643 -0.0330
49001W        W91992   0.451   3.167  26.593 -0.0046 -0.1799 -0.1409
49002W        W91993  22.754  17.568  15.394  0.0727  0.0605  0.0289
49003W        W91994  27.652   3.300  13.234  0.0050  0.0137  0.2232
49004W        W91995  10.302  19.552   5.027 -0.1865  0.0422 -0.0094
49005W        W91996   5.556  19.984  21.732  0.0782  0.0304 -0.2138
49006W        W91997  16.049   6.175  14.434 -0.0605  0.2891  0.0395
49007W        W91998  22.168  10.109  21.874 -0.0927 -0.0730 -0.1288
49008W        W91999  21.549  25.027  18.049 -0.0691 -0.0829 -0.1663
49009W        W92000  17.611  28.824  20.035 -0.1091 -0.3505 -0.2057
49010W        W92001   0.016  11.019  20.027 -0.1506  0.0914 -0.2109
49011W        W92002  29.588   8.465  27.785 -0.0599  0.1484  0.1745
49012W        W92003  18.970  20.066  14.177 -0.1887  0.1870 -0.1942
49013W        W92004  33.453  18.288  23.679  0.0629  0.0024 -0.1711
49014W        W92005  33.259  20.222  21.449  0.0095 -0.0194  0.0202
49015W        W92006  25.369  33.336  27.777  0.2549  0.0910 -0.1332
49016W        W92007  19.042   4.485  18.513  0.0067 -0.3756 -0.1264
49017W        W92008  32.867   6.715  22.498  0.2342  0.0053 -0.0650
49018W        W92009  19.356   9.799  20.939  0.3465 -0.3064 -0.0259
49019W        W92010   7.664  17.537  22.141 -0.2896  0.0502  0.0121
49020W        W92011  24.965  11.967  23.517 -0.1160  0.2593  0.1686
49021W        W92012   2.993  19.206  16.239 -0.0524 -0.0689 -0.1626
49022W        W92013   3.720  12.893  17.591 -0.0543 -0.1563  0.0364
49023W        W92014   4.809  34.040  16.025 -0.2845 -0.4646  0.0315
49024W        W92015  19.628   2.249  17.624 -0.0063  0.2657  0.0983
49025W        W92016  28.581   9.637  18.609  0.0174  0.1082 -0.2596
49026W        W92017  26.949   2.621  21.883 -0.0063  0.2207  0.0364
49027W        W92018  28.719  31.367  23.239  0.0868  0.1418 -0.2224
49028W        W92019  27.674  14.203  17.605 -0.2366 -0.0935 -0.3141
49029W        W92020  16.176   6.343  16.269  0.4177 -0.3060 -0.0681
49030W        W92021   5.295  13.390  15.193 -0.1397  0.0569  0.0575
49031W        W92022   3.040   8.672  28.649 -0.1841  0.1150 -0.3406
49032W        W92023  23.407   9.841  14.358  0.2145  0.0205  0.1098
49033W        W92024   0.382  33.282  22.912  0.0302  0.0529  0.0999
49034W        W92025  14.550   0.845  19.172  0.1079 -0.0067 -0.1242
49035W        W92026   6.168   4.535   3.588  0.1042  0.2267 -0.1937
49036W        W92027  12.559  20.161   2.197  0.1522  0.1587  0.2371
49037W        W92028  22.199   1.426  15.068 -0.3586 -0.0648 -0.1624
49038W        W92029  30.968  12.100   0.282 -0.0919  0.1084 -0.0432
49039W        W92030   1.470   3.179  18.008  0.0934 -0.0822  0.0797
49040W        W92031  21.431  31.370   2.889  0.0585 -0.0072  0.0518
49041W        W92032  22.447   8.473  20.605  0.3210 -0.0281  0.2730
49042W        W92033  33.328  28.148  28.220  0.0487 -0.1712 -0.0739
49043W        W92034   3.946  26.366  16.209 -0.0239  0.1220 -0.0066
49044W        W92035  18.714   7.844  21.850 -0.0054 -0.2363  0.0721
49045W        W92036  24.033   8.530  17.417  0.0640 -0.1085  0.0352
49046W        W92037   7.470   5.381  29.192 -0.2724  0.1493 -0.0045
49047W        W92038  24.951   9.203  16.918  0.3395 -0.1160  0.1996
49048W        W92039  22.097  24.244  14.043  0.0082 -0.2648 -0.0053
49049W        W92040   5.065   5.870  22.699  0.0768  0.2281  0.2583
49050W        W92041  24.676  10.723  14.132  0.1389 -0.0989  0.1499
49051W        W92042  16.833   1.916  22.641 -0.0457  0.3491  0.0876
49052W        W92043  25.864   7.501   1.502  0.3007  0.3456 -0.0767
49053W        W92044   6.242   2.829  25.384 -0.0384 -0.1799 -0.0801
49054W        W92045   0.547  12.800  21.820 -0.1087 -0.0794  0.0008
49055W        W92046   5.126  12.724  20.806 -0.2194  0.1273  0.1127
49056W        W92047  29.970  12.100  17.761  0.0471  0.1181  0.0015
49057W        W92048  31.081   9.509  23.371 -0.1257  0.2962  0.1325
49058W        W92049  26.527  23.979  17.677 -0.0160  0.1173  0.0181
49059W        W92050  24.011  21.331  15.743  0.0637  0.2206  0.1131
49060W        W92051  27.287  27.657  16.837  0.0729 -0.2054 -0.1753
49061W        W92052   7.116  27.192  17.288 -0.2562 -0.1355  0.1409
49062W        W92053  32.492   5.550  23.008 -0.2471 -0.2608 -0.1435
49063W        W92054  23.425  11.552  26.989 -0.2296 -0.5623  0.0962
49064W        W92055  32.597   0.920  16.328 -0.2044  0.0260  0.1296
49065W        W92056  25.156  10.103  17.199  0.1363  0.3457 -0.0611
49066W        W92057  31.011   1.855  22.912 -0.0548  0.2398 -0.0799
49067W        W92058  28.881  28.207  13.370 -0.3741 -0.1098 -0.0190
49068W        W92059  23.444  19.123  15.354 -0.2473  0.3019  0.1114
49069W        W92060  30.024  34.608  25.854  0.0266  0.0055 -0.1180
49070W        W92061   4.808  31.393  15.532  0.1830  0.2933  0.2246
49071W        W92062  33.828  23.194   5.547  0.0263  0.1814  0.1040
49072W        W92063   0.090   0.924  20.360  0.1620 -0.0376  0.0559
49073W        W92064  33.545  25.740  25.952  0.1358  0.3819  0.3441
49074W        W92065  24.319   2.090  29.252  0.0199  0.0720  0.0546
49075W        W92066   9.587  28.308  28.436  0.2097 -0.1766 -0.3046
49076W        W92067   6.082  10.000  21.902 -0.0888  0.1156 -0.0471
49077W        W92068  33.223   9.265  17.768 -0.1987 -0.0984 -0.1907
49078W        W92069  30.699  10.525  25.034  0.0222 -0.1341  0.0280
49079W        W92070  30.990   9.473   5.279 -0.2815 -0.0254  0.0863
49080W        W92071  32.357  27.564  13.930 -0.1919 -0.2282  0.0137
49081W        W92072  34.216   5.673  21.050 -0.2052  0.1153 -0.0619
49082W        W92073  28.565   5.893  15.829 -0.2078  0.1854 -0.0764
49083W        W92074   1.254   9.563  26.566  0.0456 -0.0492  0.0795
49084W        W92075  14.414   0.437  24.487  0.3131  0.0279 -0.3006
49085W        W92076  32.621  21.253  20.240 -0.0668 -0.0260  0.0708
49086W        W92077  25.620  16.297  28.351  0.0799  0.0608  0.0553
49087W        W92078  26.195  14.101  19.712 -0.1048  0.0615  0.0089
49088W        W92079   2.760   5.405  23.833 -0.2859 -0.1248 -0.0779
49089W        W92080  15.416  12.461  14.390  0.2803 -0.1574  0.2055
49090W        W92081   0.843  19.288  16.611  0.1875 -0.0907  0.0802
49091W        W92082  33.690  12.852  23.097  0.1495  0.0977 -0.1987
49092W        W92083   0.914  22.330  15.737 -0.3445  0.0002  0.0369
49093W        W92084  21.962  19.074  18.473 -0.1287  0.0269  0.1182
49094W        W92085  23.136  31.343   2.668 -0.0729  0.1044  0.0269
49095W        W92086  29.738  14.790  24.313 -0.1695  0.1222 -0.2310
49096W        W92087   0.721  17.773  28.939  0.0975  0.0970 -0.3738
49097W        W92088  30.189  23.036  13.886  0.0038 -0.0154  0.2028
49098W        W92089  24.630  22.305  25.443 -0.1356  0.4232 -0.0064
49099W        W92090  23.683   8.631  24.252  0.2527  0.1733  0.1019
49100W        W92091   2.192  34.527  26.600  0.1147 -0.1058  0.0645
49101W        W92092   1.828  31.947  26.871  0.1768  0.1931  0.2490
49102W        W92093  14.287  14.749  12.794  0.2836 -0.0791 -0.0790
49103W        W92094  33.893  26.997  19.570  0.0316  0.1868  0.1602
49104W        W92095  31.132  10.552  24.272  0.0888 -0.2965  0.1169
49105W        W92096  24.271  13.736  16.780  0.2196 -0.0612 -0.0762
49106W        W92097   4.799  10.601  22.987 -0.2198  0.2660 -0.3721
49107W        W92098   7.857   2.774  17.375 -0.0076 -0.3865 -0.1746
49108W        W92099  26.674  31.474  14.717  0.2053  0.1065 -0.0744
49109W        W92100  15.578  10.480  21.398 -0.2433  0.2333  0.1400
49110W        W92101  34.531  31.052   0.236 -0.0954  0.0280 -0.0862
49111W        W92102  16.618  12.983  18.830 -0.1147 -0.0485 -0.0758
49112W        W92103  23.192  15.352  25.981 -0.4667  0.0663  0.0502
49113W        W92104  33.926  25.951  26.930 -0.2028  0.2545  0.2909
49114W        W92105  33.146   5.105  28.562  0.0274 -0.1278 -0.0044
49115W        W92106  34.724   4.567  27.367 -0.2235 -0.0567 -0.2120
49116W        W92107  28.764   7.260  23.652 -0.1895  0.0828  0.3478
49117W        W92108  18.934   3.227  24.484  0.2238  0.1005 -0.2510
49118W        W92109   5.569  11.307   0.570 -0.1392  0.1814  0.0342
49119W        W92110  24.455  16.806  19.068  0.1003 -0.0351 -0.0447
49120W        W92111  33.782   5.855   1.340  0.2417  0.0111 -0.0594
49121W        W92112  29.137   7.702   3.420  0.0544  0.1551 -0.0361
49122W        W92113  28.223  10.001  16.189  0.1122  0.0365 -0.0970
49123W        W92114  11.301  13.822  22.422  0.2370  0.2157  0.0544
49124W        W92115   7.740  15.756  17.405  0.1627  0.1335  0.0309
49125W        W92116  18.067   8.869  16.864  0.0712 -0.0345 -0.1952
49126W        W92117   1.322   1.184   6.102 -0.1657 -0.1608  0.0599
49127W        W92118  14.620   3.593  17.935 -0.3051 -0.0711  0.3517
49128W        W92119  24.962   3.808  20.045  0.0547  0.1671 -0.1803
49129W        W92120  33.323  30.118  18.856 -0.1261 -0.0871 -0.1181
49130W        W92121  28.519  13.109  24.853 -0.0514 -0.3040 -0.4190
49131W        W92122  18.411  25.026  13.683 -0.0218  0.0906  0.2039
49132W        W92123  23.474  28.186  25.611  0.1890  0.1448 -0.1199
49133W        W92124  13.894  10.851  16.374  0.0302  0.3939  0.1346
49134W        W92125  29.226  13.625   1.498 -0.0811 -0.1785 -0.0284
49135W        W92126   3.341  13.083  22.996 -0.2072  0.3064  0.0336
49136W        W92127  23.633  21.530  25.286 -0.0067 -0.0158 -0.0265
49137W        W92128   1.242   3.136  18.455  0.2000 -0.1557  0.0545
49138W        W92129  30.400  26.066  14.155 -0.1507  0.3855 -0.0985
49139W        W92130  22.377  22.900  23.254 -0.0651  0.1333  0.0268
49140W        W92131   0.393   7.141  22.924 -0.1010  0.4115 -0.0360
49141W        W92132  25.567  11.428  19.403 -0.0487 -0.2508 -0.2609
49142W        W92133  28.537  19.782  15.416 -0.0611 -0.0299  0.0055
49143W        W92134  10.277   7.403  19.675  0.2380  0.1343  0.1354
49144W        W92135  28.440  12.881   2.612 -0.0947  0.4179  0.0575
49145W        W92136  32.324   7.657  18.345  0.2141  0.2230  0.1209
49146W        W92137  33.980  11.491  23.655 -0.2732  0.1544 -0.0544
49147W        W92138  26.975   9.839   8.458 -0.0708 -0.2416  0.2465
49148W        W92139  28.975  33.778  17.454  0.0690  0.1282 -0.5768
49149W        W92140   0.943  19.770  19.676 -0.2510  0.0894  0.1767
49150W        W92141  24.607   4.114  17.505 -0.0431 -0.1865  0.0696
49151W        W92142  25.449  19.838  23.902  0.0741  0.1846  0.1177
49152W        W92143   5.717   9.824  16.825 -0.1797 -0.4033 -0.2094
49153W        W92144  25.596  22.894  23.965 -0.4315 -0.1055  0.0962
49154W        W92145  31.845   6.044  14.701  0.1695 -0.1692 -0.3450
49155W        W92146  18.478   9.116  16.638 -0.0972  0.2099  0.1719
49156W        W92147   6.635  30.595  19.581 -0.0720 -0.0163  0.0025
49157W        W92148   4.873  11.249  19.897  0.2541  0.0267  0.2491
49158W        W92149  11.753  17.977   6.501 -0.0073  0.0969 -0.3991
49159W        W92150  22.460  10.978  20.199 -0.0497  0.2971 -0.0440
49160W        W92151  26.377  20.195  13.502  0.2390  0.0438 -0.2216
49161W        W92152  32.278   9.108  10.359 -0.1741 -0.2609 -0.1434
49162W        W92153  32.225   2.556  19.150 -0.2462 -0.0608 -0.0940
49163W        W92154  28.887  28.035   4.603  0.0378 -0.0271  0.0355
49164W        W92155  15.485   1.641   9.824  0.1363  0.2022  0.1028
49165W        W92156  31.408  31.188  28.284 -0.1503 -0.1962 -0.3467
49166W        W92157  30.978  10.637  14.416 -0.2309  0.0626 -0.0028
49167W        W92158   6.553  20.798  19.210 -0.0318  0.3358  0.3909
49168W        W92159   9.698  16.986   0.794  0.2695  0.3189 -0.0440
49169W        W92160  33.804  32.925  21.396  0.1620 -0.3848 -0.0228
49170W        W92161  12.724  13.313  24.665  0.1759  0.1147  0.2606
49171W        W92162  32.605  32.117  15.469 -0.3889  0.4022 -0.1490
49172W        W92163  21.078   8.723  19.684  0.1475  0.2116  0.2447
49173W        W92164  33.193  26.538  22.704  0.2745  0.1721 -0.1915
49174W        W92165  14.856   3.779  24.542  0.1947  0.0420 -0.3426
49175W        W92166   8.703   3.976  16.460  0.0204  0.1683 -0.1118
49176W        W92167  33.085  15.385  23.699 -0.1928 -0.0392 -0.0300
49177W        W92168  31.863   7.960   1.417  0.0739  0.0176 -0.1863
49178W        W92169  17.724  12.228  23.824  0.3621  0.2284  0.0357
49179W        W92170  30.576  12.171  14.877 -0.2236  0.4331  0.3022
49180W        W92171  33.627  21.399  16.729 -0.0587  0.0706 -0.0752
49181W        W92172  33.556  31.218  28.036 -0.0204  0.1614 -0.2614
49182W        W92173   7.136   9.587   2.084  0.0602 -0.0625  0.0532
49183W        W92174   5.010  29.502  24.129  0.0236 -0.1264 -0.0554
49184W        W92175   1.011   7.616  18.416  0.2033 -0.0564  0.2095
49185W        W92176   1.499  29.264  19.490  0.0022  0.0978  0.1063
49186W        W92177  28.384  10.826  24.521  0.1640 -0.1876 -0.3427
49187W        W92178  21.496   9.990   1.343 -0.1408  0.0511  0.0274
49188W        W92179  20.956  22.168  19.336 -0.2788  0.0203  0.4338
49189W        W92180  12.137   2.815   1.577 -0.0634  0.2302  0.3064
49190W        W92181  11.918  22.522  15.544  0.0482  0.0576 -0.0763
49191W        W92182  33.410  11.496  22.926  0.0872 -0.0875 -0.1606
49192W        W92183  33.398  17.024  22.812  0.0395 -0.1400  0.1630
49193W        W92184  29.721  22.134  23.322  0.1839  0.2644 -0.1814
49194W        W92185  20.371   6.650  19.821 -0.0073 -0.0602  0.0250
49195W        W92186   5.364  18.488  19.371  0.2588  0.0126 -0.1435
49196W        W92187   5.359   2.825  22.754  0.0406  0.4660  0.1842
49197W        W92188   7.532   5.651   3.272 -0.1499 -0.3132 -0.0094
49198W        W92189  16.104   6.481  15.741  0.0243 -0.2209  0.1361
49199W        W92190   8.962  20.675   1.544  0.0712 -0.2205  0.2598
49200W        W92191   4.019   2.137  17.435  0.0080 -0.0770 -0.0064
49201W        W92192  33.876   7.418  14.739  0.0210 -0.0891 -0.0417
49202W        W92193   2.707  14.534  19.127  0.1547 -0.1678  0.2677
49203W        W92194  24.240   6.180   1.656  0.0592  0.1909  0.1695
49204W        W92195   7.636  13.481  19.453  0.2284  0.0745  0.1558
49205W        W92196  27.633   3.100  18.673 -0.1415  0.1018  0.0674
49206W        W92197  17.719  28.721  17.250 -0.0727  0.2184 -0.1720
49207W        W92198   7.809   5.846  15.592  0.0286  0.0726 -0.0457
49208W        W92199   6.086  12.022  16.874  0.1583  0.0120  0.0977
49209W        W92200  30.285  11.505  23.274  0.1027 -0.0379 -0.3084
49210W        W92201   1.652  31.160  17.170 -0.2959 -0.1592  0.0909
49211W        W92202   6.514   7.465   8.392  0.0287 -0.0545  0.0502
49212W        W92203   4.165   8.058  17.668  0.1280 -0.0266  0.0663
49213W        W92204   3.423  25.788  24.294  0.2638  0.0242 -0.1966
49214W        W92205  13.104   0.219  18.155 -0.0804  0.2117 -0.0151
49215W        W92206  32.895  14.353  19.361 -0.3019 -0.0760  0.2229
49216W        W92207  31.802  17.828  24.592  0.1471 -0.2292 -0.2002
49217W        W92208  28.112  17.820  20.623 -0.0609  0.2087  0.2440
49218W        W92209  34.562   2.666  22.502  0.0332  0.4362  0.0969
49219W        W92210   0.631  33.374  23.947  0.1261 -0.2455  0.3183
49220W        W92211  29.850   4.782  23.661  0.0643 -0.0718 -0.2367
49221W        W92212  32.636  11.849  26.456  0.0695  0.0138  0.3101
49222W        W92213  30.558   6.738   5.030 -0.1329 -0.2232 -0.0586
49223W        W92214   7.505   3.400   2.553  0.1007 -0.0905 -0.3206
49224W        W92215  34.450  11.609  25.351 -0.1689  0.0882 -0.2787
49225W        W92216  26.982  15.260  26.092  0.5359 -0.3356  0.0083
49226W        W92217   2.436   9.872  19.226  0.0579  0.0825 -0.1100
49227W        W92218   6.962  13.411  18.336 -0.3396 -0.0990 -0.4265
49228W        W92219  32.550  20.760   7.454  0.2854  0.1147  0.0839
49229W        W92220  23.475  25.282  24.414 -0.2619 -0.1722 -0.2279
49230W        W92221  11.326  11.844  15.405 -0.0426  0.0253  0.0692
49231W        W92222  33.957  12.934   5.199 -0.0558  0.2021  0.0956
49232W        W92223  33.883   4.676  28.262  0.0558 -0.2628 -0.2347
49233W        W92224  28.653   3.764  18.968  0.1319  0.0822  0.2915
49234W        W92225   2.477  16.750   1.865  0.1312 -0.0326  0.5897
49235W        W92226  13.937   6.853  19.466  0.0760 -0.0532  0.0067
49236W        W92227  17.869  34.341   8.726 -0.1159  0.1648 -0.3775
49237W        W92228  11.393  14.172  21.206  0.1443 -0.1859  0.1844
49238W        W92229  33.238  10.452  27.101 -0.0824  0.0784  0.2749
49239W        W92230  17.288   7.132  21.715  0.0929 -0.2386 -0.1276
49240W        W92231  19.422  13.147  17.581  0.0951  0.1630 -0.2475
49241W        W92232   4.340   8.651  27.233  0.3680 -0.3264 -0.1056
49242W        W92233  29.378  21.075   6.647  0.2126 -0.2904 -0.3405
49243W        W92234   7.934   6.412  16.819  0.0359  0.2698 -0.0382
49244W        W92235  25.944   9.154  20.515 -0.1306 -0.2221 -0.0038
49245W        W92236   3.332   8.196  24.000 -0.0960  0.0391 -0.0203
49246W        W92237  32.505  20.375  23.658  0.1556 -0.2641  0.1294
49247W        W92238  13.364  11.281  15.714 -0.1004  0.0163 -0.2404
49248W        W92239   3.893  16.217  19.288  0.0777 -0.0694  0.0506
49249W        W92240   6.812  13.920  16.415  0.0024 -0.2343  0.2429
49250W        W92241   0.434  11.682  25.978  0.1939  0.0245  0.1629
49251W        W92242   2.813   3.628  21.736 -0.1488  0.0443  0.2101
49252W        W92243  23.157  12.605  15.899  0.0217  0.0699 -0.0815
49253W        W92244   4.223  22.633  19.232  0.0146 -0.1851  0.0360
49254W        W92245  33.608  13.771  27.723  0.3007  0.0268 -0.1699
49255W        W92246   6.108   8.666  24.761  0.0938  0.0546  0.1967
49256W        W92247  31.327   1.816   9.880  0.0104 -0.1419  0.1258
49257W        W92248  32.502  12.193  18.942  0.0308  0.1403 -0.1093
49258W        W92249  23.382  11.676  21.560 -0.1169  0.1085  0.1310
49259W        W92250  30.777  16.312  16.584  0.1331  0.1058  0.4245
49260W        W92251   9.165  34.682   3.979  0.0640  0.0983  0.1052
49261W        W92252  14.090   2.307  26.174 -0.1766  0.3200 -0.1306
49262W        W92253  23.035  33.868   3.697  0.2000  0.0440 -0.1537
49263W        W92254   7.635  19.226  24.109 -0.2576 -0.0970  0.0480
49264W        W92255   9.297  10.559  24.096 -0.1181  0.1780  0.0527
49265W        W92256   4.649   6.780  15.544 -0.0808  0.5603 -0.0910
49266W        W92257   8.544   0.502   5.950  0.0544 -0.1371  0.0522
49267W        W92258  21.646   4.468  27.144 -0.1405 -0.0987  0.3417
49268W        W92259  33.546   1.499  19.975 -0.1319  0.0621  0.2811
49269W        W92260   8.860  11.054  14.799  0.2225 -0.2075  0.1343
49270W        W92261  13.758  12.331  19.450 -0.3872 -0.0403 -0.1817
49271W        W92262  14.835  23.856  26.699  0.1574  0.1056  0.1923
49272W        W92263   4.022  20.746  16.401 -0.1011 -0.1256  0.1013
49273W        W92264  26.376   1.766  15.310  0.2276 -0.3312 -0.0478
49274W        W92265  21.194   1.339  17.986  0.0791  0.0908 -0.1604
49275W        W92266  28.367  17.878  20.170  0.2247  0.0077  0.2724
49276W        W92267   2.926  19.496  23.769  0.3733  0.1483  0.2027
49277W        W92268  24.481  14.565  15.228  0.2477 -0.0142  0.0511
49278W        W92269  10.048  31.931   2.867 -0.0231 -0.0331  0.4329
49279W        W92270   5.448  18.925  21.312 -0.2075  0.0096  0.1542
49280W        W92271  18.947   6.469  26.377 -0.0770  0.3516  0.0513
49281W        W92272   8.165  23.963  26.631 -0.1283 -0.3078 -0.0131
49282W        W92273   6.013  27.282  20.866  0.3594  0.1415  0.0716
49283W        W92274   7.239   9.729  24.847 -0.2384  0.3464  0.0014
49284W        W92275  26.676  16.930  24.912  0.3083  0.2324  0.1676
49285W        W92276   6.031  14.060  23.592 -0.0859 -0.1404  0.1468
49286W        W92277  32.789   4.700  18.337  0.1098 -0.0995 -0.1570
49287W        W92278  27.457   0.085  24.748  0.2247 -0.3078  0.4585
49288W        W92279   4.400  16.607  17.586  0.3599 -0.0845 -0.3291
49289W        W92280  24.046   8.305  21.253 -0.1489 -0.1002  0.2296
49290W        W92281   0.161   3.839   2.944 -0.1412  0.0016  0.0365
49291W        W92282  29.723  32.949  17.113 -0.2214  0.1380  0.0884
49292W        W92283  34.791  14.421  28.904 -0.2860  0.2050 -0.0277
49293W        W92284  34.344   3.974  25.633  0.1615  0.1254  0.2625
49294W        W92285  21.431  30.688   1.730  0.1390 -0.1342  0.2299
49295W        W92286   6.147   9.019  24.383  0.2209  0.0521 -0.0362
49296W        W92287   0.202   2.174  15.390  0.0618 -0.2692 -0.3904
49297W        W92288  21.597  29.722  17.523  0.1015 -0.0218  0.2875
49298W        W92289  22.839   7.875  22.870 -0.0505 -0.1108 -0.0081
49299W        W92290  23.208  19.289  21.594 -0.1526 -0.0661  0.1083
49300W        W92291   2.016  11.642  16.924 -0.3262 -0.0045  0.0411
49301W        W92292  18.428  12.035  26.989 -0.1188  0.0593  0.2184
49302W        W92293   4.442  14.581  19.572  0.0690  0.2352 -0.1530
49303W        W92294  34.185   5.685  17.357 -0.1120  0.2051  0.0258
49304W        W92295   0.264   3.362  20.928  0.3909 -0.0717 -0.0700
49305W        W92296   3.899  19.121  20.982  0.3861  0.1495 -0.0376
49306W        W92297  22.258  15.777  25.540  0.0778 -0.1276 -0.1001
49307W        W92298  23.831  10.236  17.720 -0.2151  0.5130  0.1608
49308W        W92299  10.350  25.048  17.926 -0.0037 -0.0715  0.0036
49309W        W92300  27.946  20.501  19.080  0.1042 -0.1437 -0.0833
49310W        W92301  16.880  12.331  14.023  0.2032  0.0528 -0.0245
49311W        W92302   2.570  16.348  20.316 -0.5003  0.2290  0.1657
49312W        W92303  28.861   0.814  18.404  0.2542 -0.3603  0.0970
49313W        W92304  34.756  21.061  23.791  0.1535  0.3002  0.1319
49314W        W92305   9.572  29.978  19.542  0.1675 -0.0725 -0.1148
49315W        W92306   6.191   2.292  15.278 -0.0475 -0.2406  0.4280
49316W        W92307   9.843  22.862  19.447 -0.0668  0.0489  0.2305
49317W        W92308  12.724  32.990  16.132 -0.3450  0.0421 -0.3271
49318W        W92309  20.901  18.979  20.820 -0.0774 -0.1462  0.1729
49319W        W92310  11.789   6.896   5.199 -0.0703  0.0546  0.0808
49320W        W92311  34.386  30.949  22.960  0.0667 -0.5901 -0.4188
49321W        W92312   1.179  18.178  15.649  0.0033  0.0634 -0.0107
49322W        W92313  33.171  12.134   2.172  0.0860 -0.0744  0.2990
49323W        W92314  33.990   5.311  20.790 -0.0897 -0.1000 -0.0122
49324W        W92315  20.511   8.051  21.089 -0.2376 -0.1202 -0.1212
49325W        W92316   3.205  13.543  17.145  0.1038  0.2470  0.0375
49326W        W92317   2.119  15.591  28.840 -0.0842 -0.0946 -0.1234
49327W        W92318   1.506   8.019  17.359 -0.1584  0.0092 -0.0880
49328W        W92319  26.233   9.737   1.192  0.3343 -0.0773  0.1509
49329W        W92320   1.210   8.541  23.159  0.1458  0.0278  0.1198
49330W        W92321   1.467   3.949  20.346  0.0829 -0.0435 -0.0543
49331W        W92322  20.257  24.191  17.985  0.1928 -0.0935  0.1421
49332W        W92323   1.356  17.945   7.189 -0.2445 -0.2214 -0.0779
49333W        W92324  19.672  10.133  24.166 -0.0887 -0.1207 -0.2587
49334W        W92325  25.890  10.334  25.795  0.0809  0.1598  0.3277
49335W        W92326   3.291   1.128   9.073  0.0448  0.3072 -0.3231
49336W        W92327  24.148   8.914  15.586 -0.2508 -0.4117 -0.0437
49337W        W92328   5.184  13.784  22.500  0.3057  0.2660  0.2474
49338W        W92329  31.343  26.781  28.362  0.1108  0.2875  0.3712
49339W        W92330   3.344  20.725   2.106  0.3903  0.0508  0.0152
49340W        W92331  31.337  21.553  20.805 -0.0970  0.1064 -0.3070
49341W        W92332   9.891  17.594  20.406  0.0022 -0.1767 -0.2710
49342W        W92333  31.325   2.699  28.513  0.0979 -0.1109  0.1922
49343W        W92334  33.259  21.233  18.077 -0.0023  0.0264  0.3094
49344W        W92335  30.449   9.385  17.808 -0.2883 -0.1161  0.0615
49345W        W92336  32.846  10.705  16.362 -0.3563 -0.2032  0.1190
49346W        W92337   0.748  16.062   7.898 -0.0318 -0.1087 -0.4346
49347W        W92338   5.677  34.602  16.301 -0.0220  0.1228  0.4402
49348W        W92339  12.847  15.095   7.794  0.1767 -0.0496 -0.2058
49349W        W92340  27.450   7.754  19.681  0.0475 -0.3975 -0.2024
49350W        W92341  31.232  10.423  17.715 -0.3263  0.0935 -0.1120
49351W        W92342  14.671   3.994  27.125 -0.1572  0.0617  0.0961
49352W        W92343   4.056  19.386   3.325  0.1555 -0.0010 -0.0620
49353W        W92344  12.482  12.316  28.158 -0.0846  0.4686 -0.0766
49354W        W92345   0.225   6.810  19.009 -0.2351  0.4023  0.2033
49355W        W92346  21.002   5.610  19.990  0.1858  0.1941 -0.1508
49356W        W92347  23.485  14.615  22.906  0.2254 -0.0828 -0.0251
49357W        W92348  20.578  32.146  24.851  0.0367  0.1227 -0.0703
49358W        W92349  14.173  18.457   5.789 -0.0980  0.1639  0.3754
49359W        W92350  26.503   7.230  19.375 -0.4315 -0.3051  0.0274
49360W        W92351  10.270   6.695   3.854 -0.1018  0.1568  0.2433
49361W        W92352  14.500  31.789  19.025 -0.1748 -0.0194  0.0387
49362W        W92353  28.657  13.047  16.517  0.1535 -0.0013 -0.2173
49363W        W92354   6.483  12.361  20.416 -0.1298  0.0293 -0.0684
49364W        W92355  17.690  12.362   8.681 -0.0532 -0.0923 -0.0946
49365W        W92356  13.121   4.464  25.001 -0.0928 -0.3465 -0.2234
49366W        W92357  15.647  14.890  12.610 -0.2558  0.0549  0.2339
49367W        W92358  22.323  14.735  29.136  0.2676 -0.3187 -0.1481
49368W        W92359   5.273  16.377  17.851 -0.0306 -0.0379 -0.0022
49369W        W92360  26.146  32.705  15.223  0.2243 -0.0734  0.1953
49370W        W92361  31.852  19.050  20.185 -0.0691  0.0661  0.1238
49371W        W92362   2.493  10.145  18.679  0.1409  0.1160  0.0388
49372W        W92363   2.003  20.352   6.977  0.1051  0.0093 -0.3050
49373W        W92364  34.538   1.312  27.399 -0.3652  0.1419 -0.1323
49374W        W92365  31.358  11.088   5.937  0.0457  0.0093 -0.1989
49375W        W92366  32.967  16.323  21.679  0.2014 -0.1124 -0.3690
49376W        W92367  21.618  21.709  26.628 -0.2134  0.0160 -0.2932
49377W        W92368   3.981  14.712  18.240 -0.0539  0.3410  0.0464
49378W        W92369  27.447   9.696  23.503  0.3666 -0.1282  0.2252
49379W        W92370  23.211  32.874   1.495 -0.0861 -0.0603  0.1722
49380W        W92371  30.206   3.414  13.514  0.0717  0.2064  0.0990
49381W        W92372  26.695  15.283  16.531 -0.3863  0.2515 -0.1103
49382W        W92373   0.965  16.361  21.421  0.0618  0.2857 -0.0397
49383W        W92374  24.236   4.362  26.319  0.0650 -0.3169  0.1387
49384W        W92375  29.097  13.143  21.392 -0.1474 -0.1745  0.1770
49385W        W92376  21.054  19.832   7.129  0.2055 -0.1756 -0.0242
49386W        W92377  30.050   7.992  20.157 -0.1876 -0.0340 -0.1754
49387W        W92378  26.361  23.472  22.500 -0.1454 -0.5155 -0.1725
49388W        W92379  31.545  18.368  21.872  0.2369  0.2834 -0.0733
49389W        W92380  30.848   9.036  18.386 -0.3696  0.3345  0.1291
49390W        W92381  22.605  18.627  25.461 -0.0606  0.2124 -0.0636
49391W        W92382  34.083  27.537   2.416 -0.0449  0.0574 -0.1193
49392W        W92383   3.217  20.055  26.228 -0.0802 -0.1037  0.1378
49393W        W92384  27.203   0.177  26.079  0.0486 -0.0187 -0.0072
49394W        W92385  27.449  19.036   0.798 -0.0821  0.2627 -0.1813
49395W        W92386  27.729  23.786  23.114  0.0312  0.1655  0.0295
49396W        W92387  19.075  31.914  17.964 -0.1598  0.1417  0.1627
49397W        W92388   1.451   5.053  17.403  0.3241  0.0474  0.3627
49398W        W92389  26.555   9.542  26.048  0.0279 -0.0355 -0.0504
49399W        W92390  12.549  15.688  19.367  0.0661  0.0253 -0.0517
49400W        W92391   7.178   3.660   9.574 -0.2406  0.4338 -0.4073
49401W        W92392  33.244  27.321  22.142 -0.1027 -0.1250 -0.2003
49402W        W92393   2.368  19.511  27.182 -0.1324 -0.0590  0.2291
49403W        W92394  28.594  31.002  13.565 -0.1876  0.3823  0.2877
49404W        W92395  24.673  16.988  21.108 -0.1250 -0.1962  0.0542
49405W        W92396  29.247  31.494  24.147 -0.2992  0.1969 -0.3290
49406W        W92397  21.345   8.077  24.806  0.0475  0.1496 -0.0568
49407W        W92398  28.904  26.257   5.513  0.0393  0.1119 -0.0559
49408W        W92399  25.610  22.819   0.978 -0.1580  0.0986  0.1169
49409W        W92400  26.626  13.648   5.483 -0.2378 -0.1609 -0.3112
49410W        W92401  11.878  20.386  19.181 -0.6019  0.2139 -0.3613
49411W        W92402   5.288   8.978  16.910  0.0673  0.0399 -0.0650
49412W        W92403   1.813  17.355  20.087  0.1166 -0.1050 -0.5106
49413W        W92404  24.571  24.738   3.338  0.3426  0.0583  0.1418
49414W        W92405  11.338   7.843  18.419 -0.0455  0.1161  0.2709
49415W        W92406  23.934  16.819  27.932 -0.2606 -0.0576 -0.2755
49416W        W92407  33.302  15.236  25.265 -0.1835  0.0947  0.3910
49417W        W92408  29.922  29.248   6.287 -0.1650 -0.1508 -0.0658
49418W        W92409  23.480  34.679  28.283  0.5267 -0.3902 -0.0100
49419W        W92410  34.133  32.867  24.368  0.3016 -0.0337  0.0928
49420W        W92411   0.039  19.208  22.211  0.1926  0.1104 -0.2280
49421W        W92412  13.770  19.197  14.823  0.1263  0.1850 -0.0434
49422W        W92413  20.265   8.556  19.210 -0.0548  0.2464  0.0141
49423W        W92414   5.756  34.775   4.250 -0.0685  0.0248  0.0584
49424W        W92415  32.214   5.358   5.557 -0.1567  0.2369  0.1769
49425W        W92416  26.609   5.723   3.004 -0.0302  0.2391 -0.1350
49426W        W92417   0.495   8.596  19.516  0.1113  0.2103 -0.0261
49427W        W92418  33.126   5.236   8.385  0.1350  0.4048 -0.3336
49428W        W92419  21.881   5.279   3.574 -0.1944 -0.0596 -0.0157
49429W        W92420  34.742  32.130   3.964 -0.0428  0.0184 -0.1745
49430W        W92421   4.265  21.787   5.384  0.2813 -0.4684 -0.0362
49431W        W92422  14.024  32.646  18.341 -0.3043  0.3541 -0.0422
49432W        W92423  17.154   3.618  24.283 -0.1474 -0.0978 -0.1635
49433W        W92424   7.355  12.541  17.845  0.3530  0.1363  0.3895
49434W        W92425  29.779  21.259  17.626  0.0979 -0.0686 -0.0878
49435W        W92426  20.861  20.843  15.753 -0.2146  0.1724  0.2767
49436W        W92427   2.262  16.569  28.445 -0.1633 -0.0797 -0.1743
49437W        W92428   5.232  23.936   1.426  0.0088  0.2758  0.1697
49438W        W92429  28.009  14.800  23.655 -0.0349 -0.2783 -0.4291
49439W        W92430  13.876  11.203  27.649  0.3739  0.3498 -0.2274
49440W        W92431  13.715   3.275   5.350 -0.1459  0.0378 -0.1453
49441W        W92432   9.442   7.301  20.674  0.0239 -0.4336 -0.0383
49442W        W92433   5.560  14.323  29.187 -0.0086  0.3631  0.4068
49443W        W92434   7.487  19.698  24.749 -0.3227 -0.5956  0.3717
49444W        W92435  19.008  12.303  18.072  0.1134 -0.2737  0.1417
49445W        W92436  12.843  18.658  15.649  0.0400 -0.1206  0.3679
49446W        W92437   6.060  32.879  18.688 -0.1919  0.1661  0.0983
49447W        W92438  32.343  28.737  17.366 -0.0632 -0.0752  0.0013
49448W        W92439  10.117  13.159  23.729 -0.2332  0.2747  0.3527
49449W        W92440   5.468  21.861  25.732 -0.1901  0.1075  0.1094
49450W        W92441  28.449  18.201  20.692  0.0324 -0.0808  0.2181
49451W        W92442  28.536  16.079   4.231  0.5582 -0.1849  0.0181
49452W        W92443   3.579  25.336   1.264  0.0527  0.0534 -0.0566
49453W        W92444  31.644  16.029  29.085 -0.0278  0.0428  0.2486
49454W        W92445  28.744   6.629  16.318 -0.0353 -0.1138  0.0562
49455W        W92446   2.109  15.230  17.287  0.1903 -0.0128  0.2993
49456W        W92447   7.223  23.783  16.427 -0.1808 -0.0079 -0.2226
49457W        W92448  30.225  26.134  21.414 -0.0506  0.0192  0.1198
49458W        W92449  28.213   8.669  21.139 -0.2954  0.2461 -0.1060
49459W        W92450  32.205   6.578  21.516 -0.0046  0.2849 -0.2563
49460W        W92451  32.164  14.747  25.483  0.0933  0.0534  0.0080
49461W        W92452  25.421   5.070  26.867  0.0785  0.0347  0.0433
49462W        W92453   4.303  15.064  17.941 -0.0950  0.0296  0.0383
49463W        W92454  29.545  20.185  20.271 -0.1598  0.1075 -0.0626
49464W        W92455  29.557  16.213   2.269  0.2050 -0.0018  0.0787
49465W        W92456   2.052  10.054  25.605  0.0389 -0.0428 -0.0185
49466W        W92457  10.195  11.669  15.697  0.0433  0.2026  0.1815
49467W        W92458   0.315  10.558  29.236  0.1659 -0.1584 -0.2077
49468W        W92459  27.410   8.738   6.528  0.0998  0.0886  0.0601
49469W        W92460  31.067  10.309   7.653  0.0593 -0.2847 -0.0612
49470W        W92461  33.088  11.016  17.477  0.0013  0.1300 -0.0763
49471W        W92462  29.633  20.948  18.408  0.0084 -0.1974  0.1170
49472W        W92463  26.969  21.198  14.882 -0.0333 -0.1093  0.1559
49473W        W92464   0.424   8.990  15.818 -0.0276 -0.1033  0.2172
49474W        W92465   0.147  30.543   7.290 -0.0625 -0.0402 -0.1642
49475W        W92466  25.102  18.114  14.536 -0.0442 -0.0713 -0.3446
49476W        W92467  30.492  27.463   5.285  0.1000 -0.0529  0.1676
49477W        W92468   3.252  15.560  23.629 -0.1997  0.0651 -0.0618
49478W        W92469  31.935  11.143  18.246  0.0434 -0.0236 -0.2458
49479W        W92470  33.080  11.199  25.925 -0.3208  0.1283  0.1216
49480W        W92471   4.926  34.555   6.646 -0.2821 -0.1119 -0.0247
49481W        W92472   7.814   4.843   0.091  0.0326  0.1039 -0.0948
49482W        W92473   2.648   3.483  22.172  0.0776 -0.0323  0.0590
49483W        W92474  19.688   7.753   8.322  0.0185 -0.2892  0.2815
49484W        W92475   6.077  13.174   0.446 -0.2572 -0.0722 -0.0186
49485W        W92476  13.364  30.504   3.379  0.2190  0.3090 -0.1305
49486W        W92477  28.229   0.083  20.401 -0.5423  0.1065  0.2865
49487W        W92478  13.367   9.775  26.750 -0.2509  0.2939  0.1890
49488W        W92479  27.478  28.024  17.315  0.1415  0.2353 -0.0138
49489W        W92480  12.211  19.426  21.835  0.0393  0.1235 -0.1728
49490W        W92481   6.975  11.942   1.921  0.2265 -0.1570 -0.2478
49491W        W92482  26.296   1.294  28.357  0.1085  0.0629  0.1646
49492W        W92483  17.221  22.057   0.889 -0.2499 -0.0809 -0.0898
49493W        W92484  28.680  27.038  28.468  0.0454 -0.1015  0.0432
49494W        W92485  30.411  25.329  23.167 -0.0202 -0.0640 -0.0947
49495W        W92486   7.699  17.965  28.977 -0.0336 -0.0492 -0.1951
49496W        W92487   1.996  22.366  25.606 -0.0814 -0.1667  0.1747
49497W        W92488   3.772  22.956   7.902 -0.3395 -0.0456  0.0777
49498W        W92489  30.882  29.555  24.955 -0.0484 -0.1748 -0.4538
49499W        W92490  30.940  14.671  18.793 -0.3055  0.2852  0.1022
49500W        W92491   9.273  29.907  17.010 -0.2714 -0.1489  0.0327
49501W        W92492  15.980   6.127  18.569  0.0281 -0.0841 -0.0490
49502W        W92493  18.458  20.702  25.084 -0.0882  0.1435  0.1663
49503W        W92494   5.517  14.044  24.951 -0.1850  0.1062 -0.0632
49504W        W92495  26.207  18.095  18.614  0.0492  0.2357  0.2283
49505W        W92496  22.346   5.223   2.414 -0.0243 -0.1688 -0.3852
49506W        W92497   3.747  10.313  21.656  0.0970 -0.2483 -0.1944
49507W        W92498  14.048  16.389  23.027 -0.1826 -0.0735 -0.1454
49508W        W92499   6.035  30.197  18.432 -0.1452  0.0463  0.0186
49509W        W92500   1.665  28.810  15.093 -0.0959  0.2967 -0.0130
49510W        W92501  25.551  23.247   6.390 -0.1063 -0.3351 -0.0386
49511W        W92502  19.222  15.454  18.354 -0.1194  0.0101  0.3083
49512W        W92503   2.731  15.759  26.920 -0.1304  0.1611 -0.1392
49513W        W92504  27.499   3.854  27.550  0.1918  0.2417  0.1353
49514W        W92505   2.653  17.698  20.730  0.1974  0.0435 -0.0747
49515W        W92506  21.074  13.630  21.792  0.1485  0.0894 -0.0181
49516W        W92507   6.210  24.433   4.242  0.0626  0.0541  0.2468
49517W        W92508   3.026  18.187  24.122 -0.1982 -0.2372  0.0403
49518W        W92509   3.327  10.250  25.211  0.2781  0.3199  0.2117
49519W        W92510   2.713  26.032  18.750  0.0193 -0.4912  0.0440
49520W        W92511  24.992   9.841  22.633  0.0477 -0.1443  0.1214
49521W        W92512  10.727   9.845   6.688  0.0540  0.2495  0.0405
49522W        W92513   1.277   0.403  20.417 -0.2146 -0.2145  0.1328
49523W        W92514  20.637   9.820  23.943 -0.0264  0.0909  0.0559
49524W        W92515   8.943  12.256  16.823  0.0155 -0.0838 -0.4336
49525W        W92516  14.119  21.050  18.517  0.1346 -0.0210  0.0408
49526W        W92517   4.925  11.032  16.000 -0.0477 -0.3924 -0.2636
49527W        W92518   7.811  13.123  27.207  0.0530 -0.2330 -0.0210
49528W        W92519  19.988   6.414  19.167 -0.1380  0.0546 -0.2336
49529W        W92520   7.901   6.340  21.024 -0.1074  0.1003 -0.3400
49530W        W92521   6.874  16.793  23.843  0.4032 -0.1574 -0.0116
49531W        W92522  10.982  20.683  22.255 -0.1211  0.1846 -0.1556
49532W        W92523   1.469   0.533   9.492 -0.2529 -0.0311 -0.3931
49533W        W92524  16.348  31.276  22.708 -0.1858 -0.2642 -0.0147
49534W        W92525  18.452  16.518  14.001 -0.0148 -0.0332 -0.0882
49535W        W92526  32.217  11.051  26.479  0.0140  0.2010  0.1551
49536W        W92527  32.668   4.358   8.553 -0.0264  0.0070  0.1398
49537W        W92528   4.654  12.398  16.970  0.1545  0.4072  0.2013
49538W        W92529  18.234  24.215  21.708 -0.3041  0.0255 -0.0313
49539W        W92530   4.752  11.013  16.442 -0.0035  0.0249 -0.0207
49540W        W92531   9.686   6.857  22.569 -0.0658 -0.0326  0.0264
49541W        W92532  33.617   6.401  18.379 -0.2270 -0.1424 -0.1476
49542W        W92533  26.978  13.238  21.751 -0.1276 -0.3324 -0.2270
49543W        W92534   2.057   8.762  23.363 -0.2321 -0.1074  0.3405
49544W        W92535  33.669  22.712  22.968 -0.0458  0.0434  0.6788
49545W        W92536  25.003  33.960  17.972  0.3883 -0.1777  0.1899
49546W        W92537  22.376   9.394  15.045  0.1503  0.1502  0.3659
49547W        W92538  34.588  11.757  21.703  0.4228  0.1324 -0.0282
49548W        W92539  33.388  17.382  27.512  0.2089 -0.3449  0.2446
49549W        W92540  17.982  12.950  17.051  0.0968 -0.0893 -0.3534
49550W        W92541  30.473  28.601  18.525 -0.0715  0.1121  0.1512
49551W        W92542  33.021   3.254  17.856  0.1232 -0.0921  0.0279
49552W        W92543  22.545  28.387  16.757  0.1720 -0.0119 -0.1886
49553W        W92544  26.322   6.217  14.133  0.0735 -0.0510 -0.0241
49554W        W92545   9.975   5.628  25.256  0.5001  0.0590 -0.0686
49555W        W92546   9.344   6.838  27.877 -0.0858  0.0368 -0.0194
49556W        W92547   0.945  18.916  24.536  0.2101 -0.1895 -0.1922
49557W        W92548   5.184  24.996  17.585 -0.0788  0.0373 -0.0055
49558W        W92549  26.828  22.002   1.623 -0.1304  0.0483 -0.1741
49559W        W92550  28.925  10.521   3.780 -0.0311  0.0563 -0.2618
49560W        W92551   8.944  18.694   2.079  0.1304  0.1155  0.0627
49561W        W92552  33.059   8.747   3.145 -0.0116 -0.1099 -0.2742
49562W        W92553  34.166  30.608  25.800  0.0819  0.3213 -0.0876
49563W        W92554  24.932  11.876   4.233  0.0090  0.2230  0.0463
49564W        W92555   0.246   2.321   3.187 -0.3796  0.0105 -0.1287
49565W        W92556  24.082   3.630  23.662 -0.1398 -0.1718  0.2288
49566W        W92557   5.440   3.290  24.882 -0.3462  0.2550 -0.1225
49567W        W92558   3.337  10.720   6.846 -0.0303 -0.1252  0.1433
49568W        W92559  31.357  12.621  16.012  0.0532  0.0259 -0.1392
49569W        W92560  23.436  11.962  17.725  0.1814 -0.3443 -0.3642
49570W        W92561  34.208  16.685  21.945 -0.0975  0.2676  0.0394
49571W        W92562  30.764  27.550  15.858  0.1609  0.1751 -0.3229
49572W        W92563  10.841  23.497  17.028  0.0676 -0.2721  0.1264
49573W        W92564   6.571   3.559   7.207  0.0329  0.1600  0.0677
49574W        W92565  24.803   0.783   3.819  0.2030 -0.0845 -0.0813
49575W        W92566   9.122  16.568   1.690  0.2043  0.1012 -0.2249
49576W        W92567  24.741  18.292  28.879 -0.0531  0.0011  0.2788
49577W        W92568   5.622   5.885   5.075 -0.1438 -0.3639 -0.0253
49578W        W92569   0.923  12.387  25.825 -0.0373  0.0858  0.2262
49579W        W92570   6.653  22.888  15.869  0.3481  0.1063 -0.1237
49580W        W92571   2.136  10.473  22.323 -0.0937 -0.1412 -0.2521
49581W        W92572  29.033   1.624  28.129 -0.1096  0.3251  0.0090
49582W        W92573  29.833  30.977   2.142 -0.1822  0.0926  0.1656
49583W        W92574  27.744   8.311  23.106  0.0060 -0.2345  0.1584
49584W        W92575   5.055  31.894   5.387  0.3509 -0.3204  0.1928
49585W        W92576   9.380   4.743  27.464 -0.2097 -0.2009 -0.1887
49586W        W92577  33.242  14.532   0.674  0.2570  0.1647  0.1628
49587W        W92578  33.301   2.970  28.731  0.0651  0.0124 -0.1586
49588W        W92579  30.517  16.684   4.406 -0.0768  0.0129  0.2467
49589W        W92580   0.788   9.250   6.082 -0.0880  0.2656 -0.2241
49590W        W92581   3.504  15.034  23.073 -0.4101 -0.0884 -0.1383
49591W        W92582  23.172  19.204   8.172  0.0330  0.2424 -0.0468
49592W        W92583  32.716   4.888   8.298 -0.2899  0.1485 -0.1536
49593W        W92584   0.796  20.982  22.716  0.1933 -0.1713 -0.1229
49594W        W92585  18.190  15.097   2.514  0.1677  0.0428  0.1886
49595W        W92586  29.661   2.307   7.319  0.1280 -0.2950  0.2422
49596W        W92587  15.106   8.679   1.171  0.1411  0.1966 -0.1309
49597W        W92588  32.287  18.135  16.905 -0.3473 -0.1746 -0.0244
49598W        W92589  25.226   8.617   0.502 -0.1191  0.0187  0.0420
49599W        W92590  18.855  12.482  29.074 -0.1406 -0.1930 -0.0342
49600W        W92591  11.321  25.730   4.628  0.0265  0.2662  0.2252
49601W        W92592   0.467   9.213   7.363  0.1400 -0.0861 -0.0375
49602W        W92593   6.464   0.481  14.880  0.1020  0.0861  0.0657
49603W        W92594  29.840   4.861   4.367 -0.0273  0.2173  0.1145
49604W        W92595   5.276  24.582  24.371  0.0193 -0.3125 -0.1951
49605W        W92596   7.300  21.963   4.014 -0.0510 -0.1678 -0.0770
49606W        W92597  27.889   1.818  25.656  0.0612  0.2486  0.2796
49607W        W92598  27.954  31.747  20.804  0.1041  0.1715 -0.2329
49608W        W92599   9.416  11.314   3.279  0.2773 -0.1473  0.1306
49609W        W92600   6.190   3.926   3.457 -0.2073 -0.2400  0.0460
49610W        W92601  27.490   2.952  15.840 -0.0502  0.0032 -0.3158
49611W        W92602  27.673   0.600  19.992  0.1650  0.0370  0.1127
49612W        W92603  10.068  15.158   4.891  0.6539 -0.2289  0.1132
49613W        W92604  25.058   6.386  22.858  0.1400  0.0992  0.1734
49614W        W92605   4.044  16.533   1.847 -0.1780  0.0436  0.3570
49615W        W92606  14.362  17.725  15.862 -0.1343  0.0474 -0.1873
49616W        W92607  20.893  11.447   4.269 -0.2954 -0.1578 -0.0139
49617W        W92608  19.335   9.365   1.171  0.0333 -0.2890  0.0657
49618W        W92609   3.894  19.750  17.567 -0.1670 -0.1437 -0.0102
49619W        W92610  14.961  33.380   7.269  0.1318 -0.0073  0.1076
49620W        W92611  27.265   8.505  22.142 -0.1177  0.1672 -0.1035
49621W        W92612  32.023  20.376  28.508 -0.1228 -0.1465  0.2087
49622W        W92613   4.504  17.235  23.813 -0.1409 -0.0441  0.0422
49623W        W92614  24.647  14.290   0.367  0.0793  0.1082  0.0284
49624W        W92615  24.843  26.189  25.788  0.1235  0.0689  0.1809
49625W        W92616   2.504   3.079  17.114  0.1026 -0.0762  0.0216
49626W        W92617  25.010  30.241  18.670 -0.0592  0.3682 -0.0010
49627W        W92618  11.874   6.324   8.580 -0.1230  0.1372 -0.2013
49628W        W92619   2.410  30.238   2.311  0.0055  0.1587 -0.1713
49629W        W92620   8.719  17.149   2.205 -0.0660  0.0733  0.1961
49630W        W92621   4.343  14.211  28.900  0.3655 -0.0190  0.1534
49631W        W92622  24.457  13.110  14.391  0.1000 -0.0223 -0.0631
49632W        W92623  27.919   9.518   2.459  0.5464  0.0654 -0.0404
49633W        W92624  20.466  25.860  25.907 -0.0572 -0.4688  0.0742
49634W        W92625   2.512  24.817   3.549  0.1841 -0.1177 -0.0272
49635W        W92626  27.803   8.882  16.808 -0.0481 -0.1768  0.0088
49636W        W92627  31.993   4.229   1.542 -0.0995 -0.2088 -0.0854
49637W        W92628  12.969  27.949  24.419 -0.0220  0.0940 -0.1590
49638W        W92629   5.003   8.022   7.966  0.1745 -0.0086  0.0414
49639W        W92630  27.579  11.264  16.048 -0.1466 -0.3159 -0.3930
49640W        W92631   0.375  13.735  16.553  0.2133 -0.0510  0.0244
49641W        W92632   5.778  27.688  20.178  0.0199 -0.2538  0.2785
49642W        W92633  33.656   2.828  26.313 -0.0264 -0.3710 -0.0721
49643W        W92634  30.926   3.802  24.604 -0.0781  0.2361 -0.4086
49644W        W92635  11.012  15.704  23.790  0.0403 -0.1341 -0.1486
49645W        W92636   1.564   6.263  11.011  0.3329 -0.1120 -0.1261
49646W        W92637   2.196  16.546   7.396 -0.1200 -0.1616 -0.2656
49647W        W92638  21.632  21.872  14.059 -0.0070  0.0160 -0.0517
49648W        W92639  30.339  11.030   8.656  0.0716 -0.1634 -0.2462
49649W        W92640  29.753  10.112   5.804 -0.3118 -0.1692 -0.2121
49650W        W92641  31.913  13.170   2.976  0.1855 -0.1011  0.3288
49651W        W92642  34.722  18.102   8.305 -0.1160 -0.2511 -0.1600
49652W        W92643   9.153   2.272  26.937  0.1382  0.5221 -0.0247
49653W        W92644   4.607   7.146  18.055  0.0193  0.0517  0.0956
49654W        W92645  21.781   0.971   9.324 -0.2241  0.0530  0.2262
49655W        W92646  33.582  10.406  19.646  0.0397 -0.2666 -0.0296
49656W        W92647   5.090   4.603   7.201  0.0980  0.1997 -0.0045
49657W        W92648  28.942  17.626  28.798  0.2674 -0.1233 -0.1655
49658W        W92649  26.131   7.075  26.580 -0.0814 -0.0417 -0.0130
49659W        W92650  28.962  32.805  24.547  0.0302  0.0440  0.0438
49660W        W92651  15.000   7.334  21.996 -0.0985 -0.0366 -0.1122
49661W        W92652  33.446   3.785  24.599 -0.0653  0.0042 -0.1938
49662W        W92653  32.074  25.657  25.297 -0.1329 -0.1408  0.2050
49663W        W92654  32.014  15.947   1.571  0.0080  0.1166 -0.1784
49664W        W92655   3.091  23.381  23.573  0.0745 -0.1522 -0.2174
49665W        W92656  29.185  32.157   6.809  0.1043 -0.0193 -0.0391
49666W        W92657  19.917   8.526   8.926  0.1783  0.0795  0.1931
49667W        W92658  22.766  18.633  20.761 -0.1258 -0.0791  0.0852
49668W        W92659   0.513  11.355  16.851  0.0021  0.1089  0.0783
49669W        W92660   0.015   8.676   9.550 -0.1273  0.3002 -0.1800
49670W        W92661   8.339  22.254  23.479  0.2098  0.1942  0.0419
49671W        W92662  32.194  15.065   5.024  0.0354  0.0760 -0.0205
49672W        W92663  30.192   9.254  26.126  0.4415 -0.0348  0.1245
49673W        W92664   5.270   7.012  16.296 -0.1732  0.0110  0.1580
49674W        W92665   2.966  10.465  19.422 -0.0410 -0.2046 -0.1680
49675W        W92666  21.563  20.894  19.032  0.0708 -0.3466  0.1156
49676W        W92667  19.785  19.178  25.870  0.0878 -0.1827  0.3856
49677W        W92668  33.702   4.129   6.602  0.2247 -0.1498  0.1206
49678W        W92669  12.295  25.225   8.268  0.0116  0.1974 -0.1610
49679W        W92670  25.093  34.582  20.896 -0.2056 -0.0917  0.1609
49680W        W92671  18.837   1.363  27.602  0.1247 -0.1068  0.2153
49681W        W92672   5.117  10.232   9.543  0.0140 -0.1199 -0.0592
49682W        W92673  30.933  14.564  24.945 -0.1205  0.0563 -0.0185
49683W        W92674   4.874  21.314   1.177 -0.0724  0.1351 -0.1994
49684W        W92675  29.889  22.657  25.661 -0.1272  0.2745  0.1386
49685W        W92676  21.438   7.568   0.421 -0.0256 -0.2251  0.2702
49686W        W92677  30.522  26.686  25.073  0.1114 -0.3974  0.0627
49687W        W92678  30.081   7.660   7.416 -0.0021 -0.0592 -0.2975
49688W        W92679  28.959   4.348   7.848 -0.1353 -0.0136 -0.1189
49689W        W92680  11.746   0.537   5.259 -0.0251 -0.1856  0.1648
49690W        W92681  11.650  17.836   0.526 -0.1410  0.2450  0.0045
49691W        W92682  25.858   5.190  21.607 -0.0738  0.2702  0.0936
49692W        W92683  32.455   2.842  17.305  0.0669  0.0944  0.0401
49693W        W92684  27.951  33.424  25.478 -0.0567  0.1186  0.0228
49694W        W92685   9.243   9.217  27.468 -0.0698 -0.0304 -0.1350
49695W        W92686  26.657  15.700   8.293  0.1435  0.0652  0.3330
49696W        W92687   4.383  25.820   8.802 -0.2799  0.2720 -0.0192
49697W        W92688  24.690   4.745   4.343  0.5752 -0.1944  0.2060
49698W        W92689  25.522  11.902   5.606 -0.0554  0.0182  0.2095
49699W        W92690  33.014   6.669   8.132  0.0184  0.1652  0.2515
49700W        W92691   3.156   9.725   2.583  0.2370  0.2959 -0.3157
49701W        W92692  34.065  12.623  17.261 -0.1608  0.1151 -0.2384
49702W        W92693   5.957   5.647   1.662 -0.1132 -0.0351  0.2794
49703W        W92694  30.066   7.056   1.903 -0.0649  0.2081 -0.3486
49704W        W92695   0.780   8.123  10.248  0.0129  0.2297 -0.0297
49705W        W92696  24.299   8.765   7.754  0.0190 -0.2991  0.1282
49706W        W92697   6.132  12.392   6.096 -0.3772 -0.1758  0.1280
49707W        W92698  23.760  18.973  28.410  0.0563 -0.1429 -0.2687
49708W        W92699   7.810  14.560  19.117 -0.0128 -0.1523 -0.1425
49709W        W92700  32.484  33.376  19.539 -0.0529  0.1473  0.2877
49710W        W92701  24.920   8.664   0.090  0.1417  0.2850 -0.5968
49711W        W92702   4.405   3.917   0.676 -0.1626  0.0059 -0.2531
49712W        W92703  13.491   5.084  12.140  0.0179  0.3999  0.0477
49713W        W92704   3.866  24.832  19.779  0.0731  0.2082  0.0933
49714W        W92705   2.063   5.234  24.712  0.1614  0.2607 -0.4367
49715W        W92706  30.981  12.661   9.587  0.0366  0.3344 -0.2261
49716W        W92707  23.052   2.496   2.298 -0.1582  0.3693  0.2267
49717W        W92708   4.097   8.121   9.908  0.0931 -0.1323 -0.1377
49718W        W92709   6.303   7.928  20.331 -0.2767 -0.2703  0.2196
49719W        W92710   9.907   4.992   3.927 -0.0067 -0.1420  0.1336
49720W        W92711  25.478  27.647  21.014 -0.1164 -0.0436 -0.2516
49721W        W92712  22.499   7.108  27.342 -0.0535  0.1759  0.0701
49722W        W92713   5.090  26.467  17.664 -0.3036  0.0425 -0.0069
49723W        W92714  30.613  27.390  21.889  0.0916  0.2392  0.0261
49724W        W92715  17.522  11.610  14.542 -0.0801 -0.1167  0.1117
49725W        W92716  15.667   0.156  27.422  0.0399  0.2436  0.1570
49726W        W92717  33.339   5.553   4.868 -0.1357 -0.0930 -0.0206
49727W        W92718   8.939   7.867  19.615 -0.2459 -0.1064 -0.1134
49728W        W92719  23.184   2.889  25.927 -0.2691  0.1381 -0.1668
49729W        W92720   0.137   0.646   7.088  0.1197  0.2962 -0.0879
49730W        W92721  27.764   5.003  17.752  0.0340 -0.1310  0.2668
49731W        W92722  30.517   6.714  18.093  0.0491 -0.2097 -0.1860
49732W        W92723  26.651  10.308   8.711  0.1922 -0.0197 -0.0813
49733W        W92724  34.779   6.254  16.507  0.3069  0.4162 -0.0138
49734W        W92725  21.217   9.294  19.048  0.2838 -0.1333 -0.0137
49735W        W92726  19.822  18.379  28.365  0.0257  0.3581  0.1404
49736W        W92727  24.141   2.118   1.552 -0.1728  0.0875  0.0952
49737W        W92728   1.495  27.756  14.501 -0.0976 -0.1993  0.0207
49738W        W92729   8.233   3.869  16.470 -0.1638 -0.0500  0.0076
49739W        W92730  10.114  28.698   0.855 -0.2827  0.1395 -0.0327
49740W        W92731  20.619  11.389  27.522 -0.1353  0.0672 -0.0682
49741W        W92732   4.775  24.183  21.699  0.2548 -0.1919  0.0876
49742W        W92733   0.800   0.377  23.852  0.3930  0.0259  0.0754
49743W        W92734   4.640   8.726  18.994 -0.0150  0.1082  0.1569
49744W        W92735  19.883  34.063  25.982  0.3420  0.0976 -0.1143
49745W        W92736   8.377   9.640  10.310 -0.0169 -0.0513 -0.0190
49746W        W92737  24.001   1.592   5.186 -0.2538  0.0078  0.0117
49747W        W92738  32.364  25.189  29.024  0.0898 -0.1022  0.1742
49748W        W92739   7.615  16.342  11.453  0.0369  0.3304  0.0931
49749W        W92740  33.559  28.170  29.176 -0.2530 -0.2553  0.1166
49750W        W92741   8.580  14.775  18.811  0.0053  0.0944  0.0153
49751W        W92742   0.766  32.431  26.511  0.1387 -0.2390  0.0491
49752W        W92743  26.154  32.235  17.512  0.3254  0.0671  0.0931
49753W        W92744  23.806   4.094  23.556 -0.1016  0.1533 -0.0375
49754W        W92745  29.712  22.995   1.261 -0.0072 -0.3743  0.2883
49755W        W92746  22.376  14.254  16.013 -0.0038 -0.0362 -0.0700
49756W        W92747   2.175   5.289  15.759 -0.1348  0.2024 -0.1164
49757W        W92748  24.731  20.584   9.507  0.0321 -0.0005  0.1857
49758W        W92749  34.714   7.158  22.619 -0.2123 -0.1164 -0.1517
49759W        W92750  31.832   3.857   6.379 -0.2371 -0.1344  0.0812
49760W        W92751  21.166  18.445   5.384  0.0207 -0.1653  0.4044
49761W        W92752   4.682   8.084   5.747  0.1186  0.2416 -0.2377
49762W        W92753   1.027  31.298  21.477 -0.3931  0.1709 -0.1174
49763W        W92754  31.784  27.817  26.519  0.1797  0.0460  0.0195
49764W        W92755  29.882  10.686   4.070 -0.2301 -0.1486 -0.0116
49765W        W92756   6.409  17.698   6.321 -0.1998  0.0389 -0.0261
49766W        W92757  29.121   8.186  21.952  0.1910  0.1700 -0.1673
49767W        W92758  31.736   8.833   5.070 -0.1252  0.0269  0.0321
49768W        W92759  24.556   6.741  22.089  0.1453 -0.2079 -0.3472
49769W        W92760   4.129   6.963  10.125 -0.2052  0.0436  0.1572
49770W        W92761   1.530  33.236  19.613 -0.1048  0.0424  0.2600
49771W        W92762  30.532  27.965  26.536  0.1428 -0.0958 -0.0481
49772W        W92763   1.751  15.833  20.541 -0.3353 -0.0525 -0.2708
49773W        W92764   8.182   6.287   2.732  0.1146  0.2951  0.1089
49774W        W92765  31.456  15.757   2.551 -0.1566  0.0089 -0.2351
49775W        W92766   3.292   8.072   8.669 -0.0940  0.0293 -0.2862
49776W        W92767  34.635  15.979  28.859 -0.1728  0.0400  0.0107
49777W        W92768   9.454  11.697  29.115 -0.1700  0.3143  0.1434
49778W        W92769   2.872   9.378  26.131 -0.1947  0.0356  0.1468
49779W        W92770  21.965  13.205   5.699  0.0571  0.1240  0.0499
49780W        W92771   3.245  25.046  24.796 -0.3542 -0.1356  0.2813
49781W        W92772  18.750  11.243   0.880  0.3111  0.1524 -0.1354
49782W        W92773  25.768   7.861   8.404 -0.0598  0.2498  0.3837
49783W        W92774   2.142   2.128   0.501 -0.1440 -0.2402  0.1527
49784W        W92775  32.574   0.133  28.322 -0.3516 -0.1778 -0.0829
49785W        W92776  24.307   8.444  27.633 -0.1235  0.0057  0.1157
49786W        W92777   0.316  12.148   2.176 -0.1084  0.0167 -0.2743
49787W        W92778  24.537  25.007  27.744 -0.0753  0.1339 -0.0499
49788W        W92779  27.949  10.117   5.686  0.2258  0.2377 -0.0161
49789W        W92780   4.893  15.000  18.536 -0.0547 -0.0423 -0.4464
49790W        W92781  34.368   6.873  18.027 -0.0226 -0.0188 -0.2869
49791W        W92782  30.607  17.822   2.094  0.0515 -0.0500 -0.2364
49792W        W92783   7.977  24.039   2.320  0.1869 -0.1226  0.0618
49793W        W92784  20.523  13.189  29.136  0.3959  0.3466  0.3260
49794W        W92785   1.261  21.106  23.512  0.0444 -0.1247 -0.0802
49795W        W92786   4.970  16.290   6.211 -0.0916 -0.1423 -0.2397
49796W        W92787  28.896  23.294   1.666 -0.0005  0.3495  0.4099
49797W        W92788  15.655   5.507   2.834 -0.0039  0.4263 -0.0691
49798W        W92789   0.360  34.073  16.532 -0.1501 -0.1622 -0.0508
49799W        W92790   5.765  13.493   0.159 -0.1130  0.1224 -0.0035
49800W        W92791   5.566   0.366  25.857  0.0644  0.1349  0.0250
49801W        W92792  26.722  17.338   0.144  0.0507  0.4035 -0.1767
49802W        W92793  28.776  20.086   0.426  0.0799 -0.1152  0.1046
49803W        W92794   7.285   1.547  23.987  0.1825  0.2542 -0.2483
49804W        W92795  18.719   9.617  18.961  0.0840 -0.1097 -0.6451
49805W        W92796   3.279   8.000   0.960 -0.0102  0.1408  0.3045
49806W        W92797  30.431  26.117   4.490 -0.1190 -0.3079 -0.2719
49807W        W92798   8.298  22.368  20.436 -0.2902  0.1164  0.1739
49808W        W92799  32.649  15.798  20.958  0.2476 -0.0449 -0.1953
49809W        W92800  33.100   6.775   6.270 -0.1012 -0.1536 -0.0722
49810W        W92801  10.566  13.413  10.530  0.4333 -0.0684  0.0004
49811W        W92802  27.837  34.626  28.907 -0.0985 -0.0212 -0.1933
49812W        W92803  18.320  29.825   1.541 -0.1467 -0.1120  0.2520
49813W        W92804  26.988  31.789   6.114  0.2136 -0.1516 -0.1864
49814W        W92805   2.466  15.224  11.379 -0.1133  0.1555  0.0363
49815W        W92806  31.880  15.886   8.544 -0.1289  0.3775  0.0577
49816W        W92807   8.361  18.184  20.536 -0.1472  0.1513 -0.2923
49817W        W92808   1.274  23.725  19.920  0.0228 -0.1760 -0.1040
49818W        W92809  32.212  17.933  17.392 -0.1354 -0.0749 -0.1108
49819W        W92810   4.192   8.983  19.244 -0.0054 -0.0723 -0.2104
49820W        W92811  32.078  15.709   2.271  0.0336  0.1814  0.0969
49821W        W92812  27.881  19.154  26.495  0.1186 -0.3013 -0.1846
49822W        W92813  13.406   5.454   2.436  0.1649  0.1857  0.2929
49823W        W92814  18.350   1.665  20.270 -0.2603  0.0296  0.1761
49824W        W92815   8.086  16.977  15.668 -0.2858  0.0416  0.1961
49825W        W92816   8.017  11.986  16.772  0.0758  0.1202  0.1068
49826W        W92817  29.342  25.055  23.194  0.1217  0.1595  0.1416
49827W        W92818   9.136  10.730  23.376 -0.1987  0.2774  0.1650
49828W        W92819   8.027  25.866  22.360  0.1734 -0.0812  0.0877
49829W        W92820  34.737   7.648  15.804  0.4101  0.1080 -0.2924
49830W        W92821  34.789  24.338  13.733 -0.0051  0.2667  0.2259
49831W        W92822   0.594  30.073  29.002  0.0544  0.2514 -0.0513
49832W        W92823  12.428   3.201   1.289  0.4417 -0.0190  0.0625
49833W        W92824   3.280  21.780  15.679  0.1190 -0.2498 -0.3329
49834W        W92825  12.474  22.296  15.096 -0.2338  0.0472  0.2272
49835W        W92826   6.300   0.007  19.641  0.1158 -0.1291  0.1145
49836W        W92827  29.002  13.476  17.294 -0.3006  0.1125  0.0692
49837W        W92828  30.770  18.478  15.343  0.1402 -0.1324 -0.0067
49838W        W92829   0.673  12.475  15.821 -0.0003  0.0258  0.0600
49839W        W92830  11.841  34.096  15.826  0.0857  0.2766 -0.1188
49840W        W92831  25.847  22.305  13.632 -0.0364 -0.1696 -0.0410
49841W        W92832  22.633  20.979  14.510  0.0416 -0.2511 -0.1444
49842W        W92833   0.153   9.055  19.463 -0.1800  0.0597  0.0637
49843W        W92834  12.565  21.276   0.218  0.2972  0.1516  0.0693
49844W        W92835  13.155  32.303   7.728  0.1082  0.0338  0.1385
49845W        W92836  11.333  18.207  23.797 -0.0506  0.0405 -0.1623
49846W        W92837  32.505  25.117  23.171  0.4046 -0.2072  0.0089
49847W        W92838   5.031  29.388  21.371 -0.2593  0.3649 -0.1957
49848W        W92839  34.017  25.702  22.384  0.1373  0.4604 -0.1041
49849W        W92840  27.273  18.685  26.962  0.0375 -0.0979  0.0111
49850W        W92841   1.796  11.669  25.379  0.0400 -0.1529  0.0481
49851W        W92842   2.018  25.476  23.996  0.0305  0.2023 -0.0168
49852W        W92843   5.399  18.606  26.221  0.2341  0.2716  0.1213
49853W        W92844   0.399  20.964  23.016 -0.0690  0.1656 -0.0579
49854W        W92845  19.348  13.801  23.021 -0.0108 -0.0908  0.1663
49855W        W92846  27.132   3.428   2.593 -0.1103  0.0533 -0.0739
49856W        W92847  33.257  13.948  21.074  0.1179  0.0267 -0.2248
49857W        W92848  34.140   3.140  16.279 -0.0184 -0.1630 -0.0771
49858W        W92849   0.985  20.617  28.165 -0.0297  0.1085 -0.0513
49859W        W92850   1.529  14.602  17.962  0.1679 -0.2003 -0.0151
49860W        W92851  21.295   1.526  14.003 -0.0382  0.0905  0.0939
49861W        W92852  33.556  14.136  17.342  0.3519  0.0928 -0.2225
49862W        W92853   2.636   4.917  18.620  0.1746  0.2947  0.0142
49863W        W92854  33.093   7.707  19.576  0.0126  0.2553 -0.3947
49864W        W92855   0.624  22.441   3.426  0.2465 -0.3811  0.1165
49865W        W92856  34.395  20.270  25.811  0.2238 -0.0466  0.0309
49866W        W92857  29.429  22.708  24.239 -0.1072  0.1240 -0.2201
49867W        W92858  23.004   8.312  25.485 -0.3417  0.0434 -0.1538
49868W        W92859  25.372  20.708  16.610 -0.1841 -0.3463 -0.2003
49869W        W92860   1.986  34.715  25.843 -0.0241 -0.2117  0.4215
49870W        W92861   6.745  19.596  24.191  0.1452 -0.0939 -0.0127
49871W        W92862  26.075  24.602  28.773  0.1156 -0.3158 -0.0786
49872W        W92863   5.414  25.824  17.096 -0.1340 -0.1137 -0.0436
49873W        W92864  28.550   2.461   5.072 -0.2217 -0.1642 -0.1925
49874W        W92865  33.686   1.516  16.771 -0.0307 -0.2021 -0.2052
49875W        W92866  26.899  22.230  28.702 -0.0093  0.1581 -0.3397
49876W        W92867   3.022   7.855  17.324 -0.0407  0.0311  0.1536
49877W        W92868  24.558  33.953  14.365  0.0457 -0.2753  0.2210
49878W        W92869   3.036  23.776  17.830  0.1070  0.0993 -0.3626
49879W        W92870  27.430  19.319  16.954 -0.1888  0.1611 -0.2387
49880W        W92871  21.801  13.055  14.541 -0.2053 -0.0796  0.0209
49881W        W92872  23.112  29.720  28.120  0.0246 -0.2856  0.3769
49882W        W92873   8.802  31.572  28.072 -0.2406  0.1634 -0.2079
49883W        W92874   9.325  12.489  17.578  0.0318  0.2163 -0.1186
49884W        W92875   0.246  10.002  24.204 -0.2802  0.1982  0.4936
49885W        W92876  30.931  21.207  15.140  0.0836 -0.2289  0.2614
49886W        W92877   5.682  32.464  15.706 -0.0394 -0.0209  0.1161
49887W        W92878  32.561   0.085   1.213  0.0322 -0.0798 -0.1267
49888W        W92879   1.702   8.473  25.882 -0.1426  0.0742  0.1146
49889W        W92880  25.733   9.885  20.793 -0.1428 -0.1302 -0.0590
49890W        W92881  20.027  28.618  17.438 -0.2372  0.1479  0.2521
49891W        W92882  33.550  14.711  25.265  0.2327  0.2696  0.1414
49892W        W92883  22.577  18.744   1.222 -0.1735 -0.3409 -0.0453
49893W        W92884   4.567   7.220   1.339 -0.0653 -0.0579  0.0552
49894W        W92885   3.123  33.840  14.550  0.1914 -0.0421 -0.2650
49895W        W92886  30.527   8.527  15.849  0.1755 -0.0665  0.0705
49896W        W92887  16.800  11.893  26.109 -0.0316  0.1839  0.0553
49897W        W92888  34.647  11.943  23.321 -0.0710  0.0192 -0.0384
49898W        W92889  28.394  21.708  24.910  0.1672  0.2053 -0.0885
49899W        W92890  34.138  11.969  25.201  0.0583 -0.2306 -0.1151
49900W        W92891   6.777   6.208  20.869 -0.0104  0.0364 -0.1361
49901W        W92892   5.842  11.259  16.573  0.0045  0.2683  0.0804
49902W        W92893  16.744  22.929   6.468 -0.1851 -0.2280  0.0323
49903W        W92894   0.586  28.901   4.290  0.1627  0.0878 -0.2437
49904W        W92895  24.072  13.348  14.684 -0.4994 -0.0245 -0.0992
49905W        W92896  23.654  24.971   6.508  0.1261 -0.0172  0.0352
49906W        W92897   4.176  29.582  26.606  0.0465 -0.2183 -0.0273
49907W        W92898  17.332   0.226  24.532  0.2207  0.0527  0.0832
49908W        W92899  30.529  15.482  27.439  0.1294  0.3291  0.2396
49909W        W92900   6.347  18.016  19.504 -0.1768  0.2599  0.0147
49910W        W92901   8.864  28.162  20.803 -0.1414 -0.1825 -0.1293
49911W        W92902  31.825   8.957  19.259 -0.0347 -0.0623  0.3386
49912W        W92903   1.106  25.873  17.111  0.0772 -0.0515 -0.0288
49913W        W92904  34.206  14.277  19.241 -0.0833 -0.1595  0.2743
49914W        W92905  28.378   5.950  26.414 -0.0296 -0.2383 -0.0372
49915W        W92906  23.509   0.631  22.988  0.2329 -0.0582  0.1685
49916W        W92907  29.289  12.950  22.225  0.0875  0.2146 -0.0493
49917W        W92908  14.296  20.979  28.107 -0.1172 -0.3912 -0.1175
49918W        W92909  32.204  14.619  18.210 -0.0158  0.0729 -0.0726
49919W        W92910  28.376   8.862  28.120  0.2255  0.3085 -0.1602
49920W        W92911  31.982  31.232  16.098 -0.2102  0.1981  0.0572
49921W        W92912  11.770  28.336  14.887 -0.4176  0.3776  0.2953
49922W        W92913  30.210  33.854  19.836 -0.1243 -0.2439 -0.0507
49923W        W92914  28.871  20.481  27.686  0.2622  0.1853 -0.0231
49924W        W92915  30.976   4.630  20.146  0.0375 -0.2839 -0.0927
49925W        W92916   5.881  21.191  16.881 -0.1394 -0.3102  0.0146
49926W        W92917   1.581   2.823  16.737  0.2375 -0.3038 -0.2933
49927W        W92918   6.324  15.627  25.646 -0.0674 -0.0285 -0.1470
49928W        W92919  21.599  31.430  20.615  0.2191  0.0592 -0.0101
49929W        W92920   9.627  17.746   3.204 -0.1904 -0.2114 -0.0603
49930W        W92921  23.857  16.809  17.431 -0.1315  0.2828  0.0603
49931W        W92922  28.376  22.745  16.143 -0.0975 -0.0670 -0.1757
49932W        W92923  21.133   5.846  21.363 -0.0645 -0.3480  0.0675
49933W        W92924   4.570  31.200  25.111 -0.0577  0.0801 -0.0174
49934W        W92925  18.813  23.239  16.037 -0.0147  0.1431 -0.2176
49935W        W92926  14.625   9.245  27.560 -0.2041  0.0534 -0.0454
49936W        W92927   9.113   3.365  18.608 -0.0246  0.0862  0.2158
49937W        W92928  31.644  25.168  22.947  0.0109  0.0837  0.1314
49938W        W92929  21.957  32.183   7.592  0.0648 -0.0152 -0.3396
49939W        W92930   3.731  31.524  25.718 -0.1330  0.3367 -0.2121
49940W        W92931  20.351  18.021  16.189 -0.3355 -0.3526 -0.0244
49941W        W92932  30.943  10.150  22.020  0.0633 -0.1010  0.1067
49942W        W92933   4.889  33.543  18.334  0.0585 -0.1189  0.0368
49943W        W92934  32.213   5.194   0.669 -0.1420  0.0085  0.1456
49944W        W92935  29.647  24.500  22.229  0.1487  0.0481  0.1227
49945W        W92936  23.588   0.963  20.357 -0.0773  0.3418 -0.1676
49946W        W92937   1.080  20.272  25.649  0.1079  0.0026  0.0785
49947W        W92938  27.765  24.187  14.163  0.2279 -0.0911 -0.1814
49948W        W92939  15.403  29.574  27.703 -0.0936 -0.0926  0.0667
49949W        W92940   1.172  12.923  16.776  0.1634 -0.2874  0.4041
49950W        W92941  20.394  14.161  14.233 -0.2991  0.1684 -0.2478
49951W        W92942  16.390   4.083  23.580  0.0404  0.0142 -0.1442
49952W        W92943   0.063  21.367  25.797 -0.3061 -0.4300 -0.1593
49953W        W92944   8.649  16.760   2.589 -0.0653  0.0712  0.0984
49954W        W92945  32.936  14.347  20.797 -0.2651 -0.1237  0.1475
49955W        W92946   1.802   2.700  24.935  0.1085 -0.0249  0.0225
49956W        W92947  34.130  10.018  22.869  0.1543 -0.1344 -0.0623
49957W        W92948  13.449  15.324  14.775  0.1059 -0.1173 -0.0996
49958W        W92949  28.283   4.294  20.765 -0.1546  0.0371 -0.0602
49959W        W92950  33.182  16.379  22.149  0.0195 -0.0929 -0.2269
49960W        W92951   6.259  13.417  25.374 -0.0282 -0.2422 -0.0573
49961W        W92952   6.893  22.955  16.248 -0.1735  0.2420 -0.0358
49962W        W92953  10.369  10.233   1.665 -0.3604 -0.0070  0.1223
49963W        W92954   7.440  13.092  15.320  0.0931 -0.1170  0.1951
49964W        W92955   2.048  31.902  25.493 -0.0818  0.1194 -0.0219
49965W        W92956  32.697   7.777  19.995  0.0498 -0.2817 -0.0346
49966W        W92957  27.041   7.186  24.260 -0.1167  0.3078 -0.0391
49967W        W92958   1.204  21.415   5.419  0.0530 -0.1963  0.0728
49968W        W92959  32.569  17.656  19.484 -0.0704  0.0326 -0.1107
49969W        W92960  21.101   2.647  27.502  0.0459 -0.0352 -0.1750
49970W        W92961   5.379  20.131  29.090 -0.0227  0.1293  0.0782
49971W        W92962  25.000  18.865  21.984  0.1083 -0.0056 -0.0051
49972W        W92963   1.604  15.529  19.038 -0.1779  0.2878 -0.0268
49973W        W92964  31.224  12.751  16.461 -0.0662  0.1980 -0.1860
49974W        W92965  30.869   6.930  20.963  0.0573 -0.0310  0.0102
49975W        W92966  11.426  15.842  15.977  0.0480 -0.0768 -0.1708
49976W        W92967   7.732  29.002   1.291 -0.1528 -0.1025  0.2814
49977W        W92968  20.777  27.348  28.738 -0.1535  0.3498  0.0006
49978W        W92969   5.160  11.150  17.790 -0.1881  0.2419 -0.1736
49979W        W92970  29.396  11.361  28.548 -0.0709 -0.0860 -0.3231
49980W        W92971   5.267  21.719  21.691  0.2359 -0.1010  0.3050
49981W        W92972  29.063  19.575  22.558  0.0682  0.0881  0.1150
49982W        W92973  26.885  15.419  22.174  0.6875  0.0617  0.1442
49983W        W92974   0.956  22.748  16.434  0.0916 -0.1040  0.2908
49984W        W92975  14.510  31.589  23.906  0.1441  0.2140 -0.3362
49985W        W92976  23.797  23.622  24.863  0.2508 -0.0443  0.0751
49986W        W92977  30.846  17.912  20.135 -0.1992 -0.0605 -0.2906
49987W        W92978  21.949  13.416  14.934 -0.1769 -0.2063 -0.0275
49988W        W92979   0.478   8.490  25.345  0.1156 -0.1310  0.1136
49989W        W92980  19.484  15.085   3.947  0.1675 -0.3150 -0.1218
49990W        W92981  28.223  16.584  28.717  0.0733  0.0933 -0.1779
49991W        W92982  23.934  11.335  18.590 -0.0286 -0.3614  0.3734
49992W        W92983  27.492   2.181  17.565  0.4190  0.1800  0.0867
49993W        W92984   1.306  15.261   1.519 -0.3557 -0.0577  0.0784
49994W        W92985  11.838  16.992  16.059  0.0274  0.0441  0.0135
49995W        W92986  15.019  12.129  23.715 -0.2046 -0.0220 -0.0376
49996W        W92987   8.985   6.740  25.854 -0.1450 -0.0272 -0.6262
49997W        W92988   3.251  29.916  15.263 -0.0805  0.1157 -0.1197
49998W        W92989  26.608   1.666   5.258  0.2255  0.2145 -0.0092
49999W        W92990  13.777  16.255  25.874  0.0368 -0.2878 -0.0475
50000W        W92991  34.191  25.962  20.994 -0.2040  0.0910  0.2721
50001W        W92992  30.776  14.106  15.219 -0.3173  0.0503 -0.0007
50002W        W92993  30.332  18.947  26.219 -0.0213 -0.1150 -0.2858
50003W        W92994  32.034  16.949  19.694  0.1200  0.1706  0.0244
50004W        W92995  27.301   1.401  15.245  0.1804 -0.0564  0.1212
50005W        W92996  29.744  17.951   1.074  0.3861 -0.1313  0.1477
50006W        W92997   8.175   5.773   0.600  0.1438 -0.3008 -0.0432
50007W        W92998  10.617  15.540  21.554 -0.3430 -0.1110  0.0395
50008W        W92999  19.419   7.980  15.728 -0.2233 -0.1029  0.1701
50009W        W93000  14.879  20.070  14.772 -0.0815  0.0032 -0.0530
50010W        W93001  25.474  10.452  17.299  0.2035  0.0069 -0.4994
50011W        W93002   1.251   9.869   1.472  0.0339  0.1346  0.3081
50012W        W93003  33.247  12.145  25.162  0.2275 -0.0819 -0.3211
50013W        W93004  29.783  14.238  23.757 -0.4119 -0.2531  0.0699
50014W        W93005   7.945   3.084  27.406  0.1220  0.2548 -0.1962
50015W        W93006  21.294   9.203  24.288 -0.0727  0.0277  0.2495
50016W        W93007  28.766  12.156  18.384  0.1661  0.0564 -0.2146
50017W        W93008   0.084   1.781  18.413  0.0206  0.4215 -0.3063
50018W        W93009   4.661  13.471  26.610 -0.0381  0.4425  0.3426
50019W        W93010  23.524  31.505  20.171  0.4863 -0.1028  0.2102
50020W        W93011  29.804  11.886  14.495  0.0717  0.3886 -0.2462
50021W        W93012  19.366  14.166  14.326  0.0261 -0.0625  0.0733
50022W        W93013  20.481  10.738   0.834 -0.0295 -0.2980 -0.0588
50023W        W93014   1.522   1.946  26.230 -0.0877  0.0914  0.2453
50024W        W93015   4.276  15.479   0.701  0.1680 -0.0495 -0.0710
50025W        W93016   0.588  19.101  25.335  0.3633 -0.1768  0.0730
50026W        W93017  21.378  33.223  23.726 -0.1175  0.0546  0.1778
50027W        W93018   8.960  20.834  19.344  0.2342  0.2553  0.1181
50028W        W93019  33.932  25.984  27.944  0.0625  0.5793 -0.2050
50029W        W93020   8.361   1.455   5.505 -0.5290 -0.0190  0.0368
50030W        W93021  30.384  12.482  20.837 -0.0868 -0.0308  0.1889
50031W        W93022   4.689  11.911  20.523 -0.2643 -0.2921 -0.2982
50032W        W93023  30.023  18.207  22.660  0.1034 -0.2724  0.0761
50033W        W93024  34.306  21.985  15.501  0.0848 -0.1363  0.1907
50034W        W93025  20.712   5.237  17.549  0.0451 -0.0106  0.0648
50035W        W93026   5.324   3.669  15.562 -0.2235  0.0487  0.0465
50036W        W93027  17.570  21.661   0.106 -0.1127  0.0438  0.0650
50037W        W93028  28.912  25.634  24.061 -0.0066 -0.2018  0.1505
50038W        W93029  20.201  14.016  25.152 -0.1491  0.2829 -0.0177
50039W        W93030  30.239  21.695  25.377 -0.3353  0.0409  0.0598
50040W        W93031   0.523  15.490  22.723 -0.1551  0.3583 -0.4432
50041W        W93032  22.405   0.845  15.750  0.3255  0.3587  0.1101
50042W        W93033  28.842  17.199   5.338 -0.1512 -0.2220  0.0572
50043W        W93034  24.047  16.835  16.079  0.1635  0.0894 -0.2601
50044W        W93035  32.389  22.123  24.564  0.2458 -0.1039 -0.1610
50045W        W93036   4.347   8.435  18.003  0.0429 -0.0124  0.3820
50046W        W93037  28.460  11.972  19.358 -0.0776 -0.0659 -0.3112
50047W        W93038  32.712  15.027  23.445  0.1914  0.3009 -0.3022
50048W        W93039  26.024  22.466   6.086 -0.0347 -0.5724  0.0103
50049W        W93040   2.724  25.026   2.593  0.1476  0.0296  0.1152
50050W        W93041   8.640  25.362  23.313 -0.1737  0.1398  0.0336
50051W        W93042  17.780   6.036  15.230 -0.0494 -0.2304  0.2291
50052W        W93043  31.080  27.670  26.044  0.1747 -0.2115 -0.0048
50053W        W93044  13.977  27.505  17.046  0.0058  0.3201 -0.1799
50054W        W93045  22.882  25.898  18.775  0.1275  0.0008  0.1241
50055W        W93046  25.746  15.682  20.191 -0.0986  0.3042  0.0749
50056W        W93047  26.211  21.122  13.841 -0.1179 -0.3615  0.1360
50057W        W93048  30.385  30.075  16.287 -0.2601 -0.0540  0.1231
50058W        W93049  15.748  18.840  15.388  0.0807  0.0383 -0.0426
50059W        W93050   5.847   5.735  17.154 -0.0416  0.4269  0.0353
50060W        W93051  33.617  18.224  16.831 -0.0726 -0.3666  0.2747
50061W        W93052  28.224  26.303  20.343  0.1528  0.0512  0.2075
50062W        W93053   4.162  31.543   9.000 -0.3150  0.0180  0.2031
50063W        W93054  15.593   1.545  17.536  0.2777 -0.1346 -0.0393
50064W        W93055  25.112  24.368  18.593  0.1406  0.1063  0.1405
50065W        W93056   1.905   0.492   3.030 -0.0405  0.1301  0.1747
50066W        W93057   3.146  16.324  28.579  0.2712  0.0702 -0.3527
50067W        W93058  15.233   8.163   8.848  0.1044  0.0479  0.2937
50068W        W93059  20.721  26.154  22.314 -0.1208 -0.0497  0.2070
50069W        W93060  29.597  14.211  25.363  0.1170  0.1373 -0.2004
50070W        W93061  29.397  16.333  20.568 -0.3409  0.3626 -0.2070
50071W        W93062  28.819  10.579  20.845 -0.0225 -0.0308  0.0667
50072W        W93063  24.585  18.145  17.955  0.1660 -0.0167 -0.0183
50073W        W93064   0.023  16.338  18.252 -0.0799 -0.1788  0.0840
50074W        W93065   6.104  10.255  19.550  0.0786 -0.1176 -0.3410
50075W        W93066  32.143  23.171  19.007  0.2200 -0.0955  0.1866
50076W        W93067  27.232  34.079  22.281  0.2265 -0.2520  0.0021
50077W        W93068   0.675  13.794  19.137 -0.3366 -0.0057  0.0927
50078W        W93069   3.349  24.652  26.341 -0.1456  0.0433  0.2293
50079W        W93070  22.989   8.885   1.529  0.0761  0.0195  0.0780
50080W        W93071  10.525  19.868   1.310 -0.0990  0.0196 -0.2048
50081W        W93072   3.868  15.646  21.566  0.0553  0.1795  0.0322
50082W        W93073  24.100  33.807  18.396  0.3037  0.2305 -0.2998
50083W        W93074   4.799  18.565  23.882 -0.5469 -0.1040  0.0018
50084W        W93075  30.020  25.515  17.581 -0.1868  0.1031 -0.4015
50085W        W93076  15.410  22.882  18.336  0.0152 -0.2761  0.2089
50086W        W93077   8.569  13.090  14.588 -0.0570  0.2345 -0.0005
50087W        W93078   3.484  15.404  17.649  0.2622 -0.1887  0.2378
50088W        W93079   5.899  21.761   7.419 -0.0120 -0.1057  0.4842
50089W        W93080  10.253   7.676  18.777  0.0321 -0.0647 -0.0459
50090W        W93081  28.842  18.986  18.165 -0.1317  0.1481  0.4204
50091W        W93082   2.137  10.972  18.497  0.1602  0.3356  0.2843
50092W        W93083  25.171  15.892  24.770 -0.1974 -0.1056  0.0459
50093W        W93084  22.146  24.843  25.281 -0.3764 -0.0883 -0.1357
50094W        W93085  13.197   8.489   5.226 -0.3685 -0.1206 -0.1576
50095W        W93086  34.719   5.713  18.879 -0.0215 -0.0057  0.2928
50096W        W93087  25.453  18.353  16.871  0.0787 -0.1194 -0.1827
50097W        W93088  33.340  27.638  21.718  0.0385 -0.1770 -0.1595
50098W        W93089   3.511  14.817  18.272  0.1881  0.1787  0.0633
50099W        W93090  32.682  26.764  27.486 -0.1184 -0.0802 -0.1883
50100W        W93091  19.457   8.642  15.311 -0.0070 -0.0335  0.1042
50101W        W93092  26.253   8.067  15.290 -0.4812  0.1324  0.1341
50102W        W93093  22.933  26.771  23.406  0.1311 -0.2534 -0.3792
50103W        W93094  25.820   6.379  14.215  0.0514 -0.0225 -0.4517
50104W        W93095  26.499  32.997   0.213  0.0364  0.1494 -0.0407
50105W        W93096   0.984   7.007   5.440 -0.1833 -0.3547  0.2183
50106W        W93097  21.534   1.959  14.164 -0.3048  0.2021 -0.0362
50107W        W93098   5.641  21.409  16.145 -0.0027 -0.2029 -0.1758
50108W        W93099  18.314   9.916  23.257 -0.2380  0.1339  0.0798
50109W        W93100  22.750  12.918   4.853  0.0417  0.1368  0.0036
50110W        W93101   1.146  32.397  19.946  0.4041 -0.0172 -0.1303
50111W        W93102  11.813   9.156  25.975  0.0970  0.1970  0.2879
50112W        W93103   5.588  10.889  24.816  0.0277 -0.0395  0.1107
50113W        W93104  27.018  15.891   1.492  0.5342 -0.0510  0.1161
50114W        W93105  31.238  27.066  22.233 -0.0776  0.0442 -0.3610
50115W        W93106  29.110  14.763  21.532  0.0961 -0.0037  0.2158
50116W        W93107  31.790  28.383  23.745 -0.0612 -0.0003 -0.4195
50117W        W93108   2.926  20.444   5.438 -0.0473 -0.0454  0.0776
50118W        W93109  33.055  12.600   5.486  0.5770  0.1796 -0.0436
50119W        W93110   7.008  14.347  15.442  0.3229  0.0174 -0.5203
50120W        W93111  28.464  13.555  20.785 -0.1754 -0.0927  0.0001
50121W        W93112  30.476  22.876  15.736  0.0706  0.2702 -0.1095
50122W        W93113   5.323  31.050  14.363 -0.0572 -0.2366 -0.1244
50123W        W93114  12.915  32.640  23.545 -0.0213 -0.3460 -0.3223
50124W        W93115   0.439  28.860  24.134  0.0878  0.1986  0.1600
50125W        W93116  18.882   1.512  16.051  0.2244  0.0522 -0.1013
50126W        W93117  32.518  27.839  16.921 -0.1393  0.2290  0.0164
50127W        W93118  10.644  13.177  22.245  0.3479 -0.4617  0.1280
50128W        W93119  21.393  19.920  14.103 -0.1256  0.1810 -0.0362
50129W        W93120   4.088   5.876  23.495  0.2329 -0.1327 -0.2428
50130W        W93121  21.646  13.669  23.745 -0.2816 -0.0956  0.0245
50131W        W93122  29.120  15.772  18.632 -0.2758  0.1788  0.2965
50132W        W93123  22.509   9.410  20.096 -0.0592  0.0677 -0.2298
50133W        W93124  12.337  24.524  16.107 -0.2449 -0.0179  0.2209
50134W        W93125  32.272  25.327  21.988 -0.1122  0.0277  0.1493
50135W        W93126   4.652  21.964  17.370  0.3096  0.0108  0.1600
50136W        W93127  28.625  21.752  28.763  0.0811 -0.5932  0.1343
50137W        W93128   6.014  21.970  22.699  0.1093  0.0743  0.1271
50138W        W93129  31.638  21.601  17.977  0.1198  0.0672  0.0221
50139W        W93130   4.108  17.426  20.364  0.0410 -0.1399  0.0728
50140W        W93131   3.361  31.856  17.108  0.1885  0.1043  0.1817
50141W        W93132  17.839   8.897  17.901  0.1079  0.0781  0.1204
50142W        W93133   5.934  27.590  22.785  0.1618 -0.2055  0.0663
50143W        W93134   3.926  17.647  19.937 -0.3083  0.0263 -0.0239
50144W        W93135   3.583  30.015  27.620 -0.1010  0.2507 -0.0254
50145W        W93136  26.215   0.748  15.044 -0.4217 -0.1548  0.5268
50146W        W93137  10.517  12.665  10.445  0.3903  0.0996  0.0624
50147W        W93138  26.032  22.589   1.805 -0.1348 -0.1793 -0.0144
50148W        W93139  30.336  11.842  15.945 -0.1018  0.3087  0.0142
50149W        W93140  25.117  17.076  20.260 -0.1514 -0.2314 -0.1364
50150W        W93141  32.192   6.796  25.601  0.3629  0.0033  0.2696
50151W        W93142  23.770  21.378  26.356  0.0891  0.2690 -0.0121
50152W        W93143  32.137  28.988  16.128 -0.1837  0.0639 -0.1636
50153W        W93144  20.507  31.468  19.410 -0.1279  0.2938  0.0413
50154W        W93145   8.019  16.892  19.704  0.0555 -0.1174 -0.3017
50155W        W93146  21.385  14.081  23.989 -0.1901 -0.0371 -0.3747
50156W        W93147  28.895  18.567   8.114  0.0441  0.0176 -0.1089
50157W        W93148   3.937  18.594  22.359 -0.1420  0.1493  0.2439
50158W        W93149   1.078  28.849  16.278  0.0431  0.1337  0.0542
50159W        W93150  31.710  34.482  25.787  0.1554 -0.1406  0.2242
50160W        W93151   3.978   9.301  28.442 -0.0353 -0.0357 -0.0138
50161W        W93152  21.203  22.465   5.098  0.0683  0.0025  0.2418
50162W        W93153  19.645  23.606  18.069 -0.0164  0.5047 -0.3310
50163W        W93154   6.923  10.782   0.376 -0.0521 -0.1937 -0.0695
50164W        W93155  18.233  21.556  18.076  0.0085  0.1056  0.0382
50165W        W93156   8.438  13.276  19.364 -0.2674  0.0167  0.3265
50166W        W93157  27.609  23.370  20.509 -0.1711 -0.0602  0.0808
50167W        W93158  28.180   5.416  18.142 -0.0576 -0.2426  0.1277
50168W        W93159  31.532  20.300  28.238 -0.1842  0.0557 -0.0641
50169W        W93160   9.794  18.837  27.946  0.0083  0.1256 -0.0804
50170W        W93161  30.310  15.843  18.992 -0.0801 -0.0309 -0.0721
50171W        W93162   5.459  20.496   4.368 -0.2868 -0.0044  0.1261
50172W        W93163  19.999  29.043  21.828 -0.2121  0.2766 -0.0979
50173W        W93164  30.963   3.995  17.041 -0.0506  0.0676 -0.0171
50174W        W93165  24.807   4.214  18.345  0.3748  0.0650 -0.1954
50175W        W93166  27.134  23.589  14.387  0.0899 -0.1036  0.3143
50176W        W93167  34.194  10.005  27.463 -0.2102  0.0695 -0.1923
50177W        W93168  32.302  17.221  24.436  0.1421 -0.0819 -0.0090
50178W        W93169  30.390  34.161  19.006 -0.0678 -0.0468 -0.1147
50179W        W93170  32.376  14.591  17.734  0.2602 -0.3096  0.0215
50180W        W93171  19.231  11.562   1.720  0.1568  0.1074 -0.2019
50181W        W93172  17.645   8.858  24.729 -0.0396  0.1521 -0.4628
50182W        W93173  27.989  25.649  15.783 -0.1145 -0.0100 -0.2933
50183W        W93174  32.204  12.878  21.845 -0.1031 -0.4302  0.0117
50184W        W93175  34.412   9.000  16.048  0.1014 -0.0163  0.0688
50185W        W93176  30.158  15.418  22.810  0.0415  0.2876 -0.3132
50186W        W93177  11.947   7.608  19.081  0.1625  0.0622  0.3061
50187W        W93178  25.714  26.738  25.955  0.0067  0.0154  0.2203
50188W        W93179   1.601  16.025  25.206  0.2270  0.2540  0.1025
50189W        W93180   4.940  15.042  27.574  0.1323 -0.1691  0.2995
50190W        W93181   1.475  26.423  26.641  0.1727  0.0311  0.0327
50191W        W93182  23.167   8.728  17.661  0.2586  0.1739 -0.0014
50192W        W93183   0.143  21.187  17.152  0.1974 -0.0949  0.0295
50193W        W93184  10.935  18.790  16.464  0.0181 -0.3672 -0.0917
50194W        W93185   1.009   1.420  16.383  0.1826  0.2891  0.0749
50195W        W93186  33.726  21.600   8.529  0.1163  0.1151 -0.0698
50196W        W93187  26.876  14.273  14.326  0.1249 -0.0706 -0.0769
50197W        W93188  33.843   9.220  18.067 -0.0846  0.0198 -0.1067
50198W        W93189  10.910  20.823  23.139 -0.0642  0.0352 -0.0934
50199W        W93190  26.732   8.231  17.612  0.1600  0.2093 -0.1234
50200W        W93191   8.820   1.430  25.843 -0.1399  0.2919  0.2047
50201W        W93192  25.155  28.658  18.768 -0.2157 -0.1088 -0.0323
50202W        W93193   3.203  22.837   3.659 -0.0339  0.1399  0.2483
50203W        W93194  21.292  13.698   0.152 -0.0704 -0.1362 -0.0000
50204W        W93195  32.569  11.002  15.207  0.3853 -0.1604 -0.0099
50205W        W93196  29.465  14.935  20.484  0.3240  0.1751 -0.0229
50206W        W93197  29.455   9.045  22.049 -0.1398 -0.2566  0.1418
50207W        W93198  20.024  11.343  27.494  0.0861 -0.2111 -0.1678
50208W        W93199  24.892  17.965  25.217  0.3167 -0.0684 -0.1660
50209W        W93200  26.602   9.972  15.838  0.2871 -0.0865  0.0360
50210W        W93201  28.460  11.168  24.828 -0.1177  0.5644  0.2083
50211W        W93202  31.659  29.823  25.672  0.0438 -0.2864 -0.1389
50212W        W93203  28.990  16.758   5.047 -0.1417 -0.0004  0.3248
50213W        W93204   3.244  12.544  22.924  0.2027  0.2236 -0.0083
50214W        W93205  13.990   5.635  18.366  0.0236 -0.0915 -0.1007
50215W        W93206  26.657  14.198  23.978 -0.0677  0.0882  0.0216
50216W        W93207  28.775  19.382  17.074  0.2505 -0.0141  0.0019
50217W        W93208  24.698  15.776   0.564 -0.1514 -0.0571  0.1790
50218W        W93209  26.207   2.493  13.563  0.1924 -0.3341 -0.0323
50219W        W93210   6.779   0.474  17.869  0.2699 -0.0430 -0.0984
50220W        W93211   1.904  21.705   1.540  0.1733 -0.1236 -0.2138
50221W        W93212   0.996  28.500  19.543  0.0607  0.2147 -0.1735
50222W        W93213  33.516  31.704  16.550  0.1603  0.2696  0.1568
50223W        W93214  27.290  24.957  25.605 -0.0189  0.1636  0.1145
50224W        W93215   8.937  10.874  20.262 -0.2165  0.1878 -0.1233
50225W        W93216   2.079  17.740  20.847 -0.1132 -0.0474 -0.2191
50226W        W93217  31.319  24.631   2.940  0.1714 -0.1499  0.4792
50227W        W93218   0.486   9.676  19.646 -0.2857 -0.1495  0.2674
50228W        W93219  26.383  21.571  26.834 -0.1746  0.2212  0.0825
50229W        W93220  11.748  21.389  29.217  0.0826  0.2876  0.3070
50230W        W93221   1.805  26.114  28.258  0.3736  0.0892 -0.0005
50231W        W93222   5.528  27.005  20.776  0.1753  0.0760  0.1097
50232W        W93223  27.093  13.317  18.574  0.0330 -0.5652  0.0252
50233W        W93224  29.557  18.550  25.852  0.0379 -0.1381  0.1631
50234W        W93225   3.389  15.729  20.675  0.0456 -0.0976 -0.0357
50235W        W93226  27.968  12.048  22.499  0.1162 -0.1809  0.0806
50236W        W93227   8.758   6.663  27.421 -0.1328 -0.1846  0.0716
50237W        W93228   7.339  22.794   0.036  0.1838  0.1093 -0.1219
50238W        W93229  25.973  23.943  15.689  0.1985 -0.0036 -0.0979
50239W        W93230   2.386  10.292  24.618  0.0862  0.2098  0.0700
50240W        W93231  20.628  23.917  15.609 -0.0600 -0.0585 -0.0696
50241W        W93232   9.522  21.094  24.075  0.1121  0.2058 -0.2929
50242W        W93233  28.479  23.238  19.341 -0.0091 -0.2944 -0.0969
50243W        W93234  19.167  14.701  26.804 -0.0539 -0.1013  0.1572
50244W        W93235   0.287  32.531  26.568  0.0441 -0.0427 -0.3688
50245W        W93236  32.161   6.031  22.968 -0.0643 -0.2144  0.0589
50246W        W93237   0.398  34.663   2.615  0.1531 -0.2140 -0.1037
50247W        W93238  34.053   3.198   9.107 -0.2278 -0.0931 -0.2935
50248W        W93239  25.979  28.014  24.572  0.1623 -0.0855  0.3254
50249W        W93240  31.293  17.572  20.374  0.0993  0.1979 -0.0897
50250W        W93241   3.211  14.938   2.364 -0.0429  0.0538  0.3211
50251W        W93242  19.845  33.979  23.213 -0.3691  0.2190 -0.1235
50252W        W93243  23.526  18.892   2.042  0.0692  0.0411 -0.1069
50253W        W93244  32.912  29.372  25.217  0.2593  0.1736 -0.3929
50254W        W93245   1.713   5.403  25.827 -0.2165  0.0031  0.1042
50255W        W93246   1.783  32.901  21.925 -0.2190 -0.0576  0.1455
50256W        W93247   6.349  24.726  19.172  0.0818  0.1789  0.1079
50257W        W93248   1.060   8.300  18.279 -0.3013 -0.0530  0.0771
50258W        W93249  23.190   2.447  28.589  0.2002 -0.0680  0.1503
50259W        W93250  24.596  16.026  23.235  0.2102 -0.1212 -0.1312
50260W        W93251  21.057  14.933   0.302 -0.5982 -0.1543  0.1500
50261W        W93252   8.282   9.795  18.508 -0.1238 -0.2554 -0.0269
50262W        W93253   3.620  30.267  17.728  0.2066 -0.2408 -0.2931
50263W        W93254   6.846  26.577   6.115 -0.1024  0.1012  0.0469
50264W        W93255   0.795  24.225   3.213 -0.1255  0.0018 -0.3777
50265W        W93256   9.735   9.766   2.571 -0.1195 -0.2301 -0.0350
50266W        W93257  13.706  15.686  16.443 -0.0447 -0.1416 -0.0149
50267W        W93258  30.508  13.922   6.256 -0.1837  0.2951  0.0697
50268W        W93259   1.201  14.670  27.238  0.0290 -0.0070 -0.1611
50269W        W93260  29.680   1.840   4.610 -0.0136 -0.1066 -0.1706
50270W        W93261  19.795   1.613  20.622 -0.0140  0.0295 -0.1824
50271W        W93262  13.614  15.400  15.938  0.1317 -0.0322  0.1557
50272W        W93263   1.203  14.333  16.323  0.2967  0.1782 -0.0464
50273W        W93264  28.913  28.770  19.088 -0.1871 -0.1520  0.5623
50274W        W93265  34.749  26.134   3.379  0.2089  0.0248 -0.3904
50275W        W93266  13.290  27.405   5.241  0.2147 -0.0192  0.0319
50276W        W93267  28.555  12.081   2.024 -0.1559  0.0805  0.2789
50277W        W93268  31.941   3.517  18.637 -0.0723  0.0626  0.1771
50278W        W93269  14.332   8.312  29.103 -0.4040 -0.1846  0.1267
50279W        W93270  20.441  18.666   7.906 -0.0695 -0.1107  0.2501
50280W        W93271   3.312  20.133  22.058 -0.0657 -0.0627 -0.2995
50281W        W93272  34.149  11.113   5.848 -0.0320 -0.2065  0.2274
50282W        W93273  31.356  25.731  22.826 -0.2204  0.4235 -0.2429
50283W        W93274   3.882  20.343  15.209 -0.3238 -0.1749  0.0764
50284W        W93275  11.054  19.656  22.407 -0.4847  0.0009  0.0246
50285W        W93276   4.237  15.166  17.458  0.4824 -0.0528 -0.0265
50286W        W93277  33.718  16.001  26.545  0.2467 -0.1104 -0.0146
50287W        W93278  30.273  32.085  27.336  0.1208 -0.0659 -0.0297
50288W        W93279  29.541  16.327  24.405 -0.0098 -0.2451  0.2609
50289W        W93280  13.808  15.873  23.876 -0.1431  0.0014  0.1116
50290W        W93281  29.968   6.321  26.364 -0.0275 -0.0128  0.2808
50291W        W93282  31.839  13.035  21.467 -0.2032  0.1645 -0.2087
50292W        W93283  32.343   8.151  18.523  0.1319 -0.1676 -0.0974
50293W        W93284  31.804   7.829   9.042  0.0639  0.0954  0.1399
50294W        W93285  31.239  34.397  26.540  0.0200  0.2422  0.0706
50295W        W93286  28.538  20.486  24.014  0.1027 -0.0465  0.0078
50296W        W93287  25.890  22.491  15.579 -0.1200 -0.0042 -0.1752
50297W        W93288  34.083  18.097   4.439 -0.1374 -0.3832  0.0071
50298W        W93289   7.765  23.353  28.176  0.0336  0.0885  0.1887
50299W        W93290  28.831   2.399  14.296 -0.3208  0.2915 -0.1854
50300W        W93291   2.086   9.378   1.645 -0.0982 -0.2445  0.2321
50301W        W93292   8.776  23.560  18.639 -0.0692  0.1747 -0.0078
50302W        W93293   0.664   7.783   3.616  0.1637 -0.0104 -0.1570
50303W        W93294  30.086   7.680  21.731 -0.0186  0.2706  0.1160
50304W        W93295  19.274  10.027   6.213  0.0463  0.1169 -0.2772
50305W        W93296  19.366  34.750   8.922  0.0930 -0.2535  0.0153
50306W        W93297  13.569  12.213  22.192  0.3085 -0.0494  0.3543
50307W        W93298   2.088  11.445   9.057  0.2045  0.0163  0.2978
50308W        W93299  10.457  16.892  14.511 -0.0812 -0.1282 -0.2369
50309W        W93300  27.935   9.651  22.555  0.2277 -0.1086  0.0889
50310W        W93301  33.400   8.618  25.496 -0.2335  0.0713  0.0653
50311W        W93302  34.646  24.797   1.072  0.2040  0.2630  0.1320
50312W        W93303  20.812   9.307  24.596 -0.3518 -0.0015  0.1715
50313W        W93304  22.735  20.821  13.121  0.0680 -0.3650  0.0889
50314W        W93305  24.484  14.682  13.580  0.1159  0.4261  0.0573
50315W        W93306  21.684   5.656  24.400 -0.0874  0.0813 -0.0792
50316W        W93307  24.023  16.677   5.700  0.2963 -0.1220 -0.0709
50317W        W93308  33.230  17.138  18.930 -0.1516 -0.2233 -0.0315
50318W        W93309  29.363  20.723   4.801  0.2130 -0.1447  0.0341
50319W        W93310  18.471  14.621   4.928 -0.0417 -0.0567  0.0210
50320W        W93311  22.561  20.992  20.374  0.0086 -0.0431 -0.0381
50321W        W93312  24.584  17.285  14.938 -0.1127  0.1108  0.2038
50322W        W93313   9.133   5.733   4.947  0.1350  0.1950 -0.0146
50323W        W93314   9.721   9.089  25.862  0.1262  0.0182 -0.5384
50324W        W93315  28.575   5.542  18.406  0.1767 -0.1268  0.1344
50325W        W93316  29.909   4.620   1.770 -0.0844  0.0492  0.0495
50326W        W93317  28.462  33.535  19.663  0.0611  0.1313  0.1864
50327W        W93318  34.310  10.886   9.515 -0.3003 -0.1456 -0.1372
50328W        W93319   1.481   8.280  19.126 -0.1761  0.1602  0.1217
50329W        W93320  26.774   9.577   0.823 -0.0839  0.3650  0.1033
50330W        W93321  12.566   8.812   8.953  0.1019 -0.2763 -0.1202
50331W        W93322  11.313  20.309  17.250  0.0969  0.0869  0.0469
50332W        W93323  14.722  29.479  16.475 -0.2095 -0.0782 -0.2591
50333W        W93324   3.359   9.293  24.926 -0.0463 -0.1150 -0.1105
50334W        W93325  15.200  28.119   0.892 -0.1310 -0.1109 -0.1625
50335W        W93326   5.579   7.706  25.852 -0.2351 -0.3284 -0.1346
50336W        W93327  20.327   4.398  19.139  0.2951  0.0418  0.1238
50337W        W93328  28.968  14.486   1.683  0.0208 -0.3261 -0.0465
50338W        W93329   2.737  30.672  16.631 -0.0392  0.0890  0.2074
50339W        W93330  30.437  15.037  19.506 -0.1383  0.2215  0.4777
50340W        W93331  27.885  16.122  28.798 -0.1392 -0.1507  0.0677
50341W        W93332  34.025  12.954   5.762  0.2148  0.0501  0.0821
50342W        W93333  34.785   9.004   0.653 -0.2945 -0.0121  0.0937
50343W        W93334   5.803  11.631  21.996 -0.0931 -0.0813 -0.0605
50344W        W93335   0.064  23.235  15.545 -0.3102  0.2297 -0.0004
50345W        W93336  24.964   2.750  21.477  0.0515  0.2996  0.3122
50346W        W93337  12.243   2.117   6.557  0.0841 -0.0665 -0.0830
50347W        W93338  30.601  14.858  10.257  0.3624  0.0107 -0.0373
50348W        W93339  17.942  27.828   9.801 -0.0440 -0.2207 -0.2112
50349W        W93340  18.889  18.455  22.199 -0.0049 -0.1181 -0.1059
50350W        W93341  15.754  16.626  12.718 -0.1155  0.2042  0.2089
50351W        W93342  12.449  17.360   4.380  0.1928 -0.1402 -0.3019
50352W        W93343  32.277  19.517  23.264  0.3065  0.1146  0.4399
50353W        W93344   6.446  23.191   8.799  0.0719  0.2988 -0.1813
50354W        W93345  23.459   5.432  20.167 -0.3143 -0.2168 -0.0371
50355W        W93346  26.407  22.040  13.714 -0.0262  0.2159 -0.1025
50356W        W93347  20.457  10.744  13.524  0.0520  0.4572 -0.0048
50357W        W93348  21.839  11.039  20.259 -0.0743 -0.0891 -0.2754
50358W        W93349   2.630  12.162  25.151  0.1605  0.3237  0.0075
50359W        W93350  28.009  14.130  23.511  0.0715 -0.0965  0.0310
50360W        W93351   8.303  15.938  18.275  0.2150 -0.1122 -0.3214
50361W        W93352  28.615  19.903  17.944 -0.0453  0.0304 -0.0926
50362W        W93353  10.275   7.547  15.673  0.0887  0.0699 -0.2681
50363W        W93354   3.947   7.389  28.593 -0.0983 -0.0054 -0.2801
50364W        W93355   4.727  13.980  17.329 -0.2420 -0.0995  0.0289
50365W        W93356  23.641  10.186  19.600 -0.0708 -0.1790 -0.2620
50366W        W93357   2.036   2.802  15.702  0.0251  0.0046 -0.1591
50367W        W93358  28.432  12.196  24.587  0.2826  0.2828  0.0498
50368W        W93359  30.505   4.320  18.879  0.0240 -0.0175  0.2165
50369W        W93360   5.596  10.057   7.792 -0.0900 -0.2825 -0.2960
50370W        W93361   4.497  22.081  26.320  0.1738  0.0170 -0.1857
50371W        W93362  33.725  22.160  18.026 -0.1337 -0.0620 -0.1581
50372W        W93363   8.649  11.276  18.603 -0.2145 -0.1612  0.1054
50373W        W93364  33.604  11.364   2.617  0.0588  0.0509 -0.0780
50374W        W93365  25.829  10.317   5.457 -0.1709 -0.2289 -0.2267
50375W        W93366  31.948  11.873  22.112  0.1388  0.0978  0.1326
50376W        W93367   5.518  11.322  19.060  0.0308  0.1232  0.0396
50377W        W93368  29.337  22.357  27.641 -0.1745  0.3912 -0.1393
50378W        W93369  11.784   1.279   7.217 -0.1112 -0.1940  0.1259
50379W        W93370  33.594  31.599  29.066 -0.2336  0.3403  0.3056
50380W        W93371   1.369  13.960  17.759 -0.1988 -0.0445  0.0401
50381W        W93372  12.303  19.355  20.900  0.2184  0.3516 -0.1502
50382W        W93373  28.484  22.809  16.696  0.0193 -0.1196  0.1438
50383W        W93374  20.569  31.594  13.686 -0.3810  0.2276  0.2479
50384W        W93375  30.959  14.942  21.985 -0.1322 -0.0753  0.2293
50385W        W93376  23.209  24.350  17.907  0.0207 -0.1188  0.3630
50386W        W93377   9.527   2.418   3.190 -0.0938  0.3339  0.0530
50387W        W93378  11.707   6.127  29.070  0.2146  0.0084  0.4704
50388W        W93379   0.624   2.800  22.866 -0.3490  0.2733 -0.1066
50389W        W93380  31.900  20.941  15.126 -0.3750 -0.2270  0.1606
50390W        W93381  32.280  31.946  13.371 -0.1318  0.1079  0.0836
50391W        W93382  30.254  11.981  23.289 -0.1986  0.0375 -0.0578
50392W        W93383  10.761  28.227   8.131  0.2594 -0.2192 -0.0334
50393W        W93384  32.238  15.417  20.142 -0.2421 -0.2371  0.2607
50394W        W93385  33.179  34.528  24.927  0.0826  0.1416 -0.2026
50395W        W93386  25.825  16.837  26.610 -0.4611  0.0901  0.1855
50396W        W93387   0.690  15.289  26.001 -0.3946 -0.0633  0.1282
50397W        W93388  33.594  16.432  16.530 -0.0443 -0.1600 -0.0726
50398W        W93389  17.381  33.300  24.257  0.1139  0.1992 -0.3871
50399W        W93390   1.940  21.052  17.054  0.0623  0.1380 -0.1458
50400W        W93391  34.381  24.439   0.237  0.1134  0.0817  0.0920
50401W        W93392  29.885   7.257   8.395 -0.4281  0.1926 -0.3549
50402W        W93393   2.388  26.579   1.433  0.1727 -0.2618 -0.0091
50403W        W93394  31.192  16.422   4.324 -0.0876 -0.0797 -0.0681
50404W        W93395   8.371  25.624   7.611  0.2932  0.0442 -0.2063
50405W        W93396  26.370  19.758  27.627 -0.2980  0.0727 -0.2541
50406W        W93397  12.414  28.739  20.263 -0.0061  0.0771 -0.1178
50407W        W93398   7.823  10.030  27.998 -0.1306 -0.2768 -0.2821
50408W        W93399  11.552  28.049  20.295  0.0370 -0.0557  0.0004
50409W        W93400  22.698  24.388  19.245  0.0656 -0.1189  0.0970
50410W        W93401   5.662   9.465   1.729 -0.1091 -0.2202  0.0724
50411W        W93402   4.442   9.086  28.504 -0.0498 -0.3609 -0.3670
50412W        W93403  16.258  22.573  21.840 -0.3231 -0.0569  0.0260
50413W        W93404   3.109  18.979  16.740  0.1187  0.0313 -0.1520
50414W        W93405   2.362  17.319  24.150 -0.2178 -0.3063  0.1606
50415W        W93406  34.155  25.963  15.801 -0.0903  0.0034 -0.0083
50416W        W93407   8.556  19.092  26.905  0.3008  0.3190  0.1281
50417W        W93408   3.576  20.225  24.851  0.1069 -0.3035 -0.1501
50418W        W93409  25.088   1.720  26.071 -0.1979 -0.1005  0.0636
50419W        W93410   4.866  21.032  18.431 -0.0939 -0.3099 -0.0196
50420W        W93411  27.216  16.167  27.869 -0.0222  0.2250  0.0684
50421W        W93412  20.876  22.202   0.587 -0.1689 -0.1476 -0.3855
50422W        W93413  29.296  21.024   9.240  0.1131 -0.0601 -0.1476
50423W        W93414   7.112  25.950  21.075 -0.2334  0.2033  0.0270
50424W        W93415  33.101  22.101  23.422 -0.2653  0.3114 -0.0894
50425W        W93416  13.078   8.480  20.009 -0.0596 -0.1766 -0.1868
50426W        W93417   6.221   8.863  21.008  0.1140 -0.3434  0.0355
50427W        W93418  26.271  12.187  22.051 -0.1561  0.3906 -0.0202
50428W        W93419  25.979   3.772  14.176  0.0182  0.0247 -0.3397
50429W        W93420   3.130  13.476  19.900  0.0454 -0.1607 -0.0280
50430W        W93421  12.891  21.473   1.102  0.2331 -0.1319 -0.0330
50431W        W93422  24.333  10.059  14.543  0.1343  0.1601 -0.0041
50432W        W93423   7.126  23.969  18.058  0.1922  0.4670 -0.1309
50433W        W93424  25.300   8.971   4.471 -0.1258 -0.1051  0.3779
50434W        W93425   1.856   4.703  20.182  0.2937  0.3316  0.3451
50435W        W93426   6.550  17.906  20.355 -0.1734  0.3026  0.1418
50436W        W93427  23.268  17.427  18.495 -0.0880  0.1698 -0.1058
50437W        W93428   6.419  19.710  21.732 -0.2271 -0.1374 -0.1386
50438W        W93429  31.708  24.533   5.536  0.1998  0.0611 -0.1446
50439W        W93430  19.568  20.787   1.842  0.2674  0.3149 -0.2424
50440W        W93431  25.311  11.309  21.650 -0.2506 -0.1799 -0.0975
50441W        W93432  27.317  24.648  20.112  0.1228  0.0555 -0.2012
50442W        W93433  29.553  31.127  16.857 -0.2610  0.0512  0.3499
50443W        W93434  22.830  10.989  14.308  0.2533  0.1306  0.0824
50444W        W93435  29.573   7.227   7.501  0.2397  0.1895 -0.0848
50445W        W93436   8.166  10.313  17.227  0.2509  0.1052 -0.0384
50446W        W93437  28.181  15.647  26.037  0.3289  0.0532 -0.0564
50447W        W93438   8.869  25.785  28.327 -0.1455  0.1947  0.0568
50448W        W93439   1.797   2.363   0.962  0.2141 -0.2543  0.2107
50449W        W93440  28.831   3.651  14.024 -0.2657  0.0016  0.3965
50450W        W93441   9.006  21.197   3.301 -0.2322  0.0941 -0.0290
50451W        W93442   9.880  26.989  23.440  0.1211 -0.2135 -0.2512
50452W        W93443  19.366   9.088  16.655  0.0312 -0.2600 -0.2932
50453W        W93444  25.437   7.451  24.451 -0.0282  0.2208  0.0670
50454W        W93445  24.406  17.801  24.339  0.3202 -0.1534 -0.2758
50455W        W93446  24.361  26.961  22.375  0.1253 -0.1713  0.1076
50456W        W93447   6.028   6.841  18.268 -0.2219  0.0021 -0.1010
50457W        W93448  29.972  28.402  14.579  0.1964 -0.0302 -0.2031
50458W        W93449  15.946  12.823  12.905 -0.1134  0.0798 -0.2286
50459W        W93450   3.584   6.813  22.233  0.3042 -0.2752  0.1111
50460W        W93451  30.515  28.156  22.811  0.2362  0.0714 -0.1547
50461W        W93452   6.781   1.046   6.786 -0.2027  0.0506  0.3188
50462W        W93453  31.899  19.017  17.308  0.0570  0.5464  0.0798
50463W        W93454  31.725  21.212  26.284 -0.2400  0.0698 -0.2033
50464W        W93455   8.442  15.152  26.897 -0.1082 -0.3195 -0.2207
50465W        W93456  29.708  19.683  15.953 -0.0583  0.0106 -0.2937
50466W        W93457   8.479  27.958  25.011 -0.0114  0.1806 -0.0936
50467W        W93458  22.215  14.338   5.681  0.0588 -0.0605 -0.0564
50468W        W93459  30.158  21.254  20.371  0.1906  0.1605 -0.1953
50469W        W93460  20.372  19.802   2.933  0.0719 -0.1779  0.3087
50470W        W93461   5.199   7.263  18.620 -0.0048 -0.0616 -0.0281
50471W        W93462  34.664  22.922  14.984 -0.1491  0.1605 -0.0553
50472W        W93463  12.191  16.944  26.874  0.1116 -0.1425  0.1696
50473W        W93464  11.537  15.442  21.964 -0.2063 -0.1806 -0.1460
50474W        W93465  24.346  20.437  17.109  0.1896  0.2059 -0.0864
50475W        W93466   5.343   8.493  21.760 -0.1872  0.2825 -0.2735
50476W        W93467  27.765   4.191  16.316  0.0251  0.1978 -0.0735
50477W        W93468  26.838  18.513   0.999 -0.1684  0.0113  0.1594
50478W        W93469  32.201  15.024  16.024  0.1595 -0.0029  0.0657
50479W        W93470   5.850  10.302  27.551 -0.3685 -0.0394  0.1502
50480W        W93471  26.314  13.724   3.217  0.0293  0.1143  0.4366
50481W        W93472   7.369  27.367  24.163  0.1324  0.0234  0.0861
50482W        W93473   4.114   1.851  11.124  0.0472  0.0916 -0.0998
50483W        W93474   4.876  14.499  17.594 -0.1966 -0.0409 -0.0210
50484W        W93475  20.482  28.746   7.932  0.0297 -0.0623  0.4367
50485W        W93476   6.805  15.604  21.806 -0.2669 -0.0042 -0.1068
50486W        W93477   6.547  21.025  25.120  0.2015  0.2191  0.1157
50487W        W93478  15.188  24.751   8.127 -0.1890  0.0355  0.1417
50488W        W93479  25.719   0.005  20.153  0.0217  0.0642 -0.1878
50489W        W93480   7.105  14.073  24.101 -0.1256 -0.4501 -0.2271
50490W        W93481  21.580   7.730   9.528 -0.0971 -0.3225  0.0503
50491W        W93482  32.093  25.238   2.919 -0.2229  0.0817 -0.0859
50492W        W93483  33.208  34.510   4.190  0.1738  0.2175  0.0020
50493W        W93484  28.230  16.015   7.743  0.0823 -0.4408  0.2082
50494W        W93485   0.721  30.096   7.668  0.1661  0.2970 -0.2274
50495W        W93486  24.274   3.809  13.729  0.0238  0.0316 -0.1660
50496W        W93487  15.155  22.207   2.232 -0.0923 -0.0208  0.1490
50497W        W93488  28.196   6.635  19.340 -0.0249  0.1666 -0.1780
50498W        W93489  24.739  23.417  20.066  0.0908  0.1991  0.4189
50499W        W93490  19.306  17.546  26.325 -0.0577 -0.0200  0.4385
50500W        W93491  27.551  21.099   7.907 -0.1225  0.0960  0.0499
50501W        W93492   3.289  15.378  18.196  0.1307  0.2517  0.1182
50502W        W93493   2.224   9.834  10.605  0.0233  0.1147 -0.0889
50503W        W93494  14.511  10.549  24.694  0.0501  0.1565  0.1367
50504W        W93495  32.511  23.428   3.838 -0.3438 -0.0475  0.2483
50505W        W93496  19.217   2.497   7.626 -0.0702 -0.0399  0.1579
50506W        W93497   3.356  11.280   1.107 -0.0932  0.4400  0.0518
50507W        W93498  23.041  18.548  26.431  0.2092 -0.2751 -0.3731
50508W        W93499  17.820  16.494  27.220 -0.1415 -0.0759 -0.0933
50509W        W93500   3.317  13.761   4.498 -0.1928 -0.1938 -0.1145
50510W        W93501   1.154  24.247  23.820  0.2471 -0.4322 -0.1514
50511W        W93502  11.459  31.345  15.258  0.1410 -0.0386 -0.0892
50512W        W93503  10.488   0.552  19.013 -0.1415 -0.2040  0.2132
50513W        W93504   3.420   3.096   0.729  0.1722  0.0762  0.2722
50514W        W93505  32.450   8.110   3.705 -0.4120 -0.0570  0.1297
50515W        W93506  27.028  20.170  22.290  0.1040 -0.0601  0.1374
50516W        W93507   4.191  23.253  10.597 -0.1938 -0.1618 -0.1681
50517W        W93508  25.075  19.515   8.185 -0.0539  0.0962  0.1119
50518W        W93509   4.000  13.166   0.869 -0.0016  0.0812 -0.2447
50519W        W93510  12.935  25.073   1.374 -0.2118  0.0514 -0.0948
50520W        W93511  34.387  11.565  16.017  0.2642 -0.0641  0.1133
50521W        W93512  10.850   8.178  16.938  0.0941  0.0281  0.3183
50522W        W93513   0.270  19.699   1.357 -0.0051  0.2174  0.2276
50523W        W93514   6.852  31.581  17.805  0.1571 -0.2260  0.2232
50524W        W93515  20.046  14.231   0.133 -0.0867 -0.0418 -0.2600
50525W        W93516  26.477   2.172  26.345 -0.0618 -0.0660  0.0232
50526W        W93517  27.329  11.480  28.561  0.3026 -0.0090  0.1167
50527W        W93518  30.824   5.247   5.363  0.2182 -0.0820 -0.0810
50528W        W93519   2.322  31.868  25.956  0.0851 -0.1200  0.1858
50529W        W93520  13.098   9.715   8.479 -0.0529 -0.4647  0.2916
50530W        W93521   2.858  11.300  21.608  0.0032  0.0240 -0.3181
50531W        W93522  25.754  15.269   3.325 -0.0575  0.1909  0.0198
50532W        W93523  32.579  27.451  17.615 -0.0968  0.1072 -0.0591
50533W        W93524  24.822  15.282  15.248  0.3329 -0.3201  0.0454
50534W        W93525  14.877   8.719   7.239  0.1387  0.2337  0.0420
50535W        W93526  11.173  28.434  21.804  0.0140 -0.2369 -0.0506
50536W        W93527  34.239  25.437  27.323  0.0898  0.0542  0.0502
50537W        W93528   9.219   0.508  20.676  0.0562 -0.1679 -0.1028
50538W        W93529  27.208  15.259  24.631 -0.0511 -0.0994  0.2788
50539W        W93530  14.482  27.925   0.375  0.2032  0.0066 -0.2431
50540W        W93531  34.049  23.775  27.321 -0.1311 -0.2943  0.0619
50541W        W93532  30.475   5.682   6.518 -0.0868 -0.2897  0.1659
50542W        W93533  22.773  15.423  22.601  0.2152  0.1539  0.1277
50543W        W93534  32.972  19.706  25.002 -0.0011 -0.2446 -0.2739
50544W        W93535  34.045  27.701   7.431 -0.1590  0.2260  0.0264
50545W        W93536  26.318   6.645  28.827  0.3383  0.2858 -0.3149
50546W        W93537  22.336  22.754  22.721 -0.1951  0.0659 -0.1395
50547W        W93538  34.350  16.753  24.271  0.1075 -0.0283 -0.0855
50548W        W93539  26.682   5.071  27.738  0.0366  0.1397  0.0954
50549W        W93540   5.674  31.865  25.549 -0.1551 -0.1791  0.1257
50550W        W93541  30.956  13.458   2.976 -0.0122  0.0145  0.0317
50551W        W93542  10.371  32.157  14.946 -0.0937 -0.0260  0.0502
50552W        W93543  12.490  14.410   7.196  0.2874 -0.0041 -0.0376
50553W        W93544  34.641  20.275  16.336 -0.0997 -0.0111  0.2084
50554W        W93545   9.820  28.364  24.220 -0.0674  0.1101 -0.0441
50555W        W93546   2.521  34.704   6.946 -0.2853 -0.0415  0.3197
50556W        W93547   8.273   4.776   9.946  0.0396 -0.0312  0.0423
50557W        W93548   0.182  12.325  25.792 -0.1208 -0.0504  0.3269
50558W        W93549   4.573  12.685   1.681 -0.1165  0.1798  0.2868
50559W        W93550  28.127   1.391  25.492 -0.1138 -0.2356  0.3072
50560W        W93551  25.037  15.364  16.366 -0.1290 -0.2146  0.0581
50561W        W93552   1.937   1.578   0.528  0.3697  0.0503  0.3008
50562W        W93553  31.222  24.770  18.205 -0.1401 -0.1551  0.0106
50563W        W93554  19.511  22.033  19.614  0.1226 -0.2529  0.4304
50564W        W93555   1.697  25.811   7.556 -0.1700 -0.1827 -0.4403
50565W        W93556  32.305  23.233   9.212 -0.1604 -0.1579 -0.0876
50566W        W93557  20.430  24.614   8.856  0.1120  0.3150  0.0087
50567W        W93558  13.426  17.499  22.871  0.1297  0.1040 -0.0956
50568W        W93559  27.786  22.750  22.057  0.0963 -0.0529 -0.0829
50569W        W93560   2.823   6.816  18.205 -0.4704 -0.0207  0.0332
50570W        W93561  31.023  23.917  10.247 -0.1821  0.0268 -0.1452
50571W        W93562  27.329  23.607  15.407  0.1485  0.1218 -0.2446
50572W        W93563   1.126  25.381  28.737 -0.1611  0.1062  0.1312
50573W        W93564  12.738  31.727  18.638 -0.1951  0.1331  0.5301
50574W        W93565   0.309  19.153   0.169  0.3622 -0.1920 -0.0981
50575W        W93566  32.464   9.414  26.125  0.0102  0.3055  0.1823
50576W        W93567  34.474  28.727  29.066  0.0769 -0.1712 -0.1202
50577W        W93568  13.360  24.346   5.741 -0.0901  0.2065 -0.1699
50578W        W93569  27.014  16.653  17.891  0.1926 -0.1296 -0.0348
50579W        W93570   2.175   1.862   1.492  0.1535  0.2385  0.2220
50580W        W93571   6.871  32.365   8.961 -0.0524  0.1179 -0.0111
50581W        W93572  27.304  24.049  28.724 -0.2060 -0.0776 -0.0912
50582W        W93573   0.895   7.307  25.622 -0.2785 -0.4466  0.1442
50583W        W93574  34.015  16.394  10.678 -0.2122 -0.1346  0.0298
50584W        W93575   0.995  18.305  16.957 -0.2309  0.0700 -0.1368
50585W        W93576  17.295  30.193   0.733 -0.0679 -0.3733 -0.0500
50586W        W93577  21.226  34.170  18.388  0.1118  0.1291 -0.0294
50587W        W93578   0.112  13.709   7.109 -0.2136  0.0118 -0.2212
50588W        W93579  26.900  13.331   9.487  0.1708  0.0738  0.3146
50589W        W93580  29.972  24.363  29.000  0.2678  0.1178 -0.2260
50590W        W93581   8.742  33.728   5.265 -0.1844 -0.1398  0.1487
50591W        W93582  30.153   5.878   0.234 -0.0684 -0.0347 -0.0186
50592W        W93583   3.237  23.182   6.266 -0.0387 -0.0375 -0.3125
50593W        W93584   6.632  25.528   9.033  0.0111  0.5296 -0.1041
50594W        W93585  22.737  20.957  21.120  0.2870 -0.1463  0.1754
50595W        W93586   3.148  19.113  20.101  0.4639 -0.2476 -0.3158
50596W        W93587   9.747  24.261  24.249  0.2142  0.1820  0.0348
50597W        W93588   4.386  19.703  23.220 -0.0421  0.0640 -0.0906
50598W        W93589  14.646  27.581   7.417 -0.5560  0.0075 -0.1641
50599W        W93590   3.491  16.836  25.573  0.2066 -0.2009  0.0876
50600W        W93591   7.187  14.048   5.725  0.0657 -0.1011  0.3792
50601W        W93592   6.650  23.805   6.782  0.2644  0.0150 -0.0560
50602W        W93593  19.906  22.035  14.257 -0.0293  0.2008 -0.0101
50603W        W93594  33.651  12.033  26.320  0.0600 -0.0612 -0.1812
50604W        W93595   5.518  14.659  18.365 -0.1597 -0.1399  0.2253
50605W        W93596  25.201   8.437  18.149 -0.2407  0.5050 -0.3321
50606W        W93597  34.440  16.766  25.338  0.1976 -0.1050 -0.0593
50607W        W93598   8.494   5.519  14.444  0.1501  0.2757  0.0183
50608W        W93599  16.093  27.735  20.004  0.0144  0.0644  0.1503
50609W        W93600   3.267   8.051  22.045  0.0943 -0.2755  0.2991
50610W        W93601   6.146  30.068  19.239  0.1847 -0.1420  0.1034
50611W        W93602   0.876   7.317   3.927  0.5031 -0.0053  0.1070
50612W        W93603  30.967  16.720   0.004  0.1396  0.0322  0.1613
50613W        W93604   7.159   7.480   4.380  0.0429 -0.2164  0.3254
50614W        W93605  24.250  11.244   1.142 -0.5121 -0.1201  0.1141
50615W        W93606  10.736  12.785   0.090 -0.3866  0.1808  0.0998
50616W        W93607  23.047   0.419   8.468  0.1975 -0.1441 -0.0759
50617W        W93608  34.493  25.394   6.958 -0.0618  0.3564  0.0934
50618W        W93609   1.043  19.011   2.657  0.0465  0.0920 -0.1162
50619W        W93610   9.552  16.514  21.295 -0.0747  0.2649  0.0955
50620W        W93611  28.896  26.786   1.502 -0.0019 -0.2393 -0.1366
50621W        W93612  31.074  19.338   1.518 -0.2007 -0.0731  0.2787
50622W        W93613   5.095  10.942  10.173  0.0110  0.0457  0.0365
50623W        W93614  33.272  15.525   9.000 -0.1105  0.4432 -0.0509
50624W        W93615   4.628  22.874   1.836  0.2692 -0.2295 -0.1510
50625W        W93616  32.097   8.601   6.864 -0.2428 -0.0585 -0.1619
50626W        W93617  13.227  23.204  25.754 -0.0961  0.0673 -0.0520
50627W        W93618   6.142  34.268   5.736  0.0536 -0.3197 -0.4279
50628W        W93619  31.780  20.585  19.863  0.4690 -0.1943  0.0600
50629W        W93620  12.852  26.999  14.505  0.1420 -0.0909 -0.0507
50630W        W93621   8.933  22.785  17.987  0.2719 -0.1234 -0.1117
50631W        W93622  18.248   1.914   1.336  0.0218  0.1348  0.2032
50632W        W93623   2.546  11.321   1.062  0.2212 -0.1128 -0.0058
50633W        W93624   0.739  20.910  14.953  0.2422  0.2239 -0.2277
50634W        W93625   4.844   7.877   4.953  0.1155 -0.0781  0.1553
50635W        W93626  30.245  10.027  14.572  0.0348  0.1703 -0.2160
50636W        W93627   1.763  29.728  14.128  0.3834  0.0101 -0.2802
50637W        W93628  18.081  27.424   0.029 -0.1706  0.4306  0.1563
50638W        W93629   4.130   7.178   1.019 -0.1655 -0.0779  0.0755
50639W        W93630   8.805  34.062  16.440  0.0652 -0.2821  0.1993
50640W        W93631  16.803   1.198  28.142  0.3612  0.1293 -0.1395
50641W        W93632  23.680   4.723  27.038 -0.2323 -0.2804  0.0400
50642W        W93633  31.501   7.935  16.224  0.4155 -0.0390 -0.4937
50643W        W93634   7.554  11.993   3.601 -0.2324  0.0995 -0.3199
50644W        W93635  23.910  17.857  19.916 -0.1085 -0.0034 -0.0897
50645W        W93636  32.038  25.117   8.803 -0.0095  0.2441 -0.0903
50646W        W93637   0.252  19.234   3.450  0.2513 -0.0130 -0.1080
50647W        W93638  32.665  14.698  25.342 -0.1614  0.0011 -0.2792
50648W        W93639   1.838   3.179  28.469 -0.1163 -0.1096  0.2185
50649W        W93640   3.565  12.280  28.183  0.2421 -0.0452  0.0958
50650W        W93641   4.150   2.018  24.607 -0.0307  0.0098 -0.0379
50651W        W93642  33.468  21.332  21.483  0.0197 -0.1228  0.0503
50652W        W93643   1.904  21.938  22.187 -0.1303  0.0605  0.2960
50653W        W93644  26.710  12.363  18.498  0.1840  0.2566  0.0013
50654W        W93645  10.352  22.211  24.219 -0.0038 -0.0757  0.0027
50655W        W93646   6.307  23.062  24.651 -0.1435 -0.0517  0.1336
50656W        W93647   0.232  17.550  24.544 -0.1274  0.2148 -0.0838
50657W        W93648  23.141  20.177   5.937  0.2048  0.2785 -0.2544
50658W        W93649   3.184  23.372   9.222 -0.1508  0.1525 -0.0168
50659W        W93650  13.937  10.422   7.574  0.2365 -0.1527  0.0330
50660W        W93651  34.189  30.608  27.919 -0.0108 -0.0315 -0.0569
50661W        W93652  28.184  30.694  24.366  0.3478  0.0868  0.1238
50662W        W93653   3.779  10.615  26.465  0.2787  0.1613  0.1337
50663W        W93654   5.870  29.268  24.483  0.3463  0.1554 -0.0058
50664W        W93655   9.375  27.375  20.534 -0.4216 -0.1076 -0.3038
50665W        W93656  29.725  17.869   5.304 -0.1044 -0.4399  0.2665
50666W        W93657  25.680  33.255   6.386 -0.2367  0.0599 -0.4117
50667W        W93658  22.384  11.290   9.064  0.1273 -0.0360  0.0265
50668W        W93659   0.376   8.747   4.384  0.1795 -0.1319  0.1820
50669W        W93660  34.012  13.114  17.052  0.0319  0.1253  0.1785
50670W        W93661  33.671  22.517   1.844  0.0702  0.0261 -0.3453
50671W        W93662  32.592  26.751   6.603 -0.1789  0.0868 -0.2795
50672W        W93663  10.109   7.589   0.966  0.1069 -0.1700  0.0478
50673W        W93664  24.032   4.830  28.699  0.2332 -0.0961 -0.1739
50674W        W93665  16.886  25.252   3.629 -0.1350 -0.0687 -0.4724
50675W        W93666   2.994  10.537  22.703  0.0108 -0.1688  0.0113
50676W        W93667  20.665  33.718   2.577  0.3133  0.0396 -0.1872
50677W        W93668  31.980  10.881   8.527  0.3558 -0.0437  0.0234
50678W        W93669  23.126   6.406   6.575 -0.2449 -0.1253 -0.1250
50679W        W93670  21.956  17.676  28.077 -0.0155  0.1138 -0.1958
50680W        W93671  23.846   5.813  23.847 -0.1079  0.1807 -0.0984
50681W        W93672  29.772  32.799  14.391  0.3257 -0.2970  0.1516
50682W        W93673  16.530  12.778  15.543 -0.2108  0.0471  0.1273
50683W        W93674   4.199   8.003  23.697 -0.0704 -0.0251 -0.1562
50684W        W93675   0.421  33.763   3.688  0.1172  0.3456 -0.1012
50685W        W93676   2.622   1.799  28.839  0.2726  0.2729 -0.3555
50686W        W93677  22.443  28.747  12.597  0.1422 -0.1708 -0.1278
50687W        W93678  25.081  20.990  22.729  0.2899 -0.3377  0.3427
50688W        W93679  33.121  19.327   3.369  0.0876  0.1830 -0.0048
50689W        W93680   3.212  15.761   6.858  0.0296 -0.2941 -0.2588
50690W        W93681   2.986   8.008  11.291 -0.0698 -0.1872 -0.0484
50691W        W93682  18.105   5.604   6.698 -0.0202 -0.1745  0.0866
50692W        W93683   3.016   1.477  29.014 -0.2320 -0.1844 -0.0360
50693W        W93684   3.059  13.872  24.714 -0.0889 -0.1412  0.4626
50694W        W93685   0.605  27.266  29.002  0.1245 -0.4195  0.0699
50695W        W93686  30.559   3.931   7.402  0.3674  0.3917 -0.0574
50696W        W93687  14.762  25.887  26.019  0.1792 -0.4080  0.3747
50697W        W93688  32.066  23.637  20.357 -0.1074 -0.0959 -0.2851
50698W        W93689  16.536  34.701  28.098 -0.3387 -0.2487  0.3248
50699W        W93690   3.729  20.377  25.372  0.4741 -0.0828 -0.0373
50700W        W93691  30.720   8.306  21.665  0.0548 -0.0964 -0.1210
50701W        W93692  24.109   5.570   0.642 -0.0992 -0.0969  0.0369
50702W        W93693  31.142   5.617  23.704  0.0672 -0.3656  0.1767
50703W        W93694   4.674  10.592  24.663  0.3504 -0.0504  0.0028
50704W        W93695   9.953  10.584   6.517  0.1350 -0.1031  0.0426
50705W        W93696  33.626  16.873  16.292  0.1428 -0.1601 -0.1713
50706W        W93697  33.651  27.863   5.673 -0.1576  0.0926 -0.0298
50707W        W93698  16.213  11.026  16.489  0.0418 -0.1371  0.0151
50708W        W93699  12.005  10.297  26.154 -0.2892 -0.1932 -0.0502
50709W        W93700  19.323   6.732   8.320  0.0921 -0.2438 -0.1832
50710W        W93701  19.608  14.303   3.294  0.0319  0.1269  0.1725
50711W        W93702   0.093  30.253  14.866 -0.2311  0.3316 -0.0812
50712W        W93703   9.102  21.503  16.819  0.2566  0.2059  0.2710
50713W        W93704   7.209   7.798  25.508 -0.1196 -0.0185 -0.1599
50714W        W93705  29.923  16.350  15.097 -0.0222 -0.2759 -0.0734
50715W        W93706  11.997  11.754   0.475  0.0333  0.0882  0.1640
50716W        W93707  11.598   2.838   8.489  0.0006 -0.4072  0.1668
50717W        W93708   4.689   8.014  18.990 -0.2522 -0.0688 -0.0828
50718W        W93709  30.945  10.850   2.042  0.1328  0.4926  0.0285
50719W        W93710  32.670   8.504   5.243 -0.1813  0.2481  0.0513
50720W        W93711   6.081  16.624   5.461  0.1580  0.1087  0.0764
50721W        W93712  12.215  34.588   7.979  0.0048 -0.3929 -0.1740
50722W        W93713   1.635  23.220  10.619 -0.3173 -0.2225  0.0147
50723W        W93714   7.349  23.889   7.225  0.1441 -0.0065 -0.3248
50724W        W93715  20.048  20.505   3.623 -0.2990 -0.1021  0.0389
50725W        W93716  14.823  21.140  27.450 -0.2851  0.3374 -0.0547
50726W        W93717  13.542  17.296  26.142 -0.1865  0.0207  0.0299
50727W        W93718  10.466   6.396   0.140 -0.1493 -0.1016  0.0614
50728W        W93719   4.533  16.752   4.248  0.1499  0.0623  0.1480
50729W        W93720  33.680   6.998  21.746 -0.1183  0.0567 -0.0845
50730W        W93721   7.739   9.828  18.348  0.3559  0.3170 -0.1003
50731W        W93722  30.835  23.802  28.500 -0.1743  0.1533  0.0215
50732W        W93723  27.285  22.186  22.955  0.1458  0.1939  0.0328
50733W        W93724  17.006   2.606  14.785 -0.2154  0.0666  0.0500
50734W        W93725   6.083  22.158  16.208  0.1201 -0.3259 -0.0193
50735W        W93726  21.755   5.174  28.019 -0.0588  0.0740  0.0249
50736W        W93727  18.774  17.500  25.575 -0.0669  0.2056  0.1714
50737W        W93728   2.973  32.113  19.210  0.0808  0.1424 -0.0059
50738W        W93729  21.676   8.964  24.095  0.1843  0.2332  0.1794
50739W        W93730  28.134  17.885  17.984 -0.1112  0.2597 -0.0366
50740W        W93731  33.431  12.589  24.909 -0.2491  0.2229 -0.3090
50741W        W93732  23.514  30.961  15.907  0.1266  0.0020  0.2639
50742W        W93733   5.735  13.773  16.808  0.0063  0.0875  0.2967
50743W        W93734   3.335  12.307  20.907  0.1163 -0.0943  0.0784
50744W        W93735  20.544  21.431  12.903 -0.0523 -0.3616  0.0822
50745W        W93736  19.677  29.895  18.590  0.0127 -0.2080  0.3108
50746W        W93737  31.088  17.182  16.122 -0.0463 -0.2232  0.0505
50747W        W93738  13.048  19.298  18.888  0.0648  0.2002  0.0077
50748W        W93739  23.531  33.096  24.734 -0.0526  0.1402 -0.2195
50749W        W93740   2.884   9.446   0.942  0.2795  0.0326 -0.1856
50750W        W93741  21.521  20.243  19.281  0.0579  0.1354  0.2823
50751W        W93742  24.650  22.265  27.834  0.4479  0.0568 -0.2585
50752W        W93743   3.931  28.404  10.261  0.1444 -0.0638 -0.0363
50753W        W93744   8.052   2.259  20.259 -0.0049  0.0260 -0.0549
50754W        W93745  33.731   5.673  14.637 -0.0516 -0.0161 -0.2009
50755W        W93746  23.339   7.210  18.949  0.1920  0.0412 -0.0051
50756W        W93747   4.286  28.509  15.905  0.1552 -0.1881  0.0205
50757W        W93748  30.307   1.229  21.803  0.0372  0.4136  0.0305
50758W        W93749  19.920  22.750  13.893  0.0398  0.3156 -0.2625
50759W        W93750  34.643  26.882  21.116  0.0654 -0.2686 -0.1513
50760W        W93751  32.096   5.271   1.393  0.0072  0.1454 -0.2520
50761W        W93752  31.506  15.692  23.866  0.0146  0.0174  0.1834
50762W        W93753  30.074  34.375  18.139  0.2812  0.1169  0.1892
50763W        W93754   5.247  26.741  25.712  0.3634  0.3870 -0.1192
50764W        W93755   9.356  16.155  23.342  0.2970 -0.1004 -0.2202
50765W        W93756  26.508   8.029   6.824  0.3064 -0.0984  0.0416
50766W        W93757   2.403  17.877  22.133 -0.4612  0.0673 -0.0296
50767W        W93758   1.394  27.764  18.385 -0.2898 -0.0253  0.3034
50768W        W93759  15.613   4.713  15.395 -0.0560 -0.2043 -0.1721
50769W        W93760   4.482  30.632  18.994 -0.0134  0.3337  0.1860
50770W        W93761  24.141  30.205  23.362 -0.4131  0.2853  0.0377
50771W        W93762  32.333  20.710  26.267  0.0157 -0.2451  0.0741
50772W        W93763  13.608   5.384  17.707  0.1090 -0.0783  0.1155
50773W        W93764   4.066  15.344  16.806  0.1123 -0.0309 -0.0664
50774W        W93765  15.139  21.590  16.783  0.0804  0.0612 -0.1302
50775W        W93766  25.137   8.794  18.569  0.1377  0.0159  0.0405
50776W        W93767   4.865  22.165  22.311 -0.1015  0.0036 -0.2153
50777W        W93768  22.027   4.856  15.729  0.0760 -0.0333 -0.0861
50778W        W93769  32.526   3.253  24.168 -0.2781 -0.1303  0.7962
50779W        W93770  31.519   7.209   0.831  0.1550  0.0432 -0.4105
50780W        W93771  27.502  24.027  17.663 -0.1072  0.1435 -0.5306
50781W        W93772   6.340   7.061   1.471 -0.0028 -0.0454 -0.0837
50782W        W93773  33.545  33.226  21.702 -0.2342 -0.0218  0.0819
50783W        W93774  28.849  21.843   2.591 -0.1071 -0.0150  0.4738
50784W        W93775   4.225  34.800   0.827 -0.2350 -0.0321 -0.1640
50785W        W93776   8.684  31.305  25.307 -0.1948 -0.0059 -0.1694
50786W        W93777   7.427  27.186  18.056 -0.4328  0.1501 -0.0398
50787W        W93778   3.874  19.284  16.546  0.0162  0.2295 -0.0961
50788W        W93779  21.673  28.410  14.864 -0.1541 -0.1524 -0.0381
50789W        W93780  31.445  18.348  18.012 -0.4105  0.2686  0.2090
50790W        W93781   5.432  33.583  21.980 -0.2745  0.3650 -0.2220
50791W        W93782  23.053  32.113  21.872 -0.3182 -0.1150 -0.0488
50792W        W93783   3.368  18.884   0.033  0.0396 -0.2465  0.0546
50793W        W93784   4.133  12.177  18.097  0.4145 -0.3289 -0.0731
50794W        W93785   2.080  26.169  18.550 -0.1073 -0.1331 -0.1643
50795W        W93786  18.636  21.073  17.972 -0.1146 -0.2060  0.2125
50796W        W93787  30.581  10.617  20.544 -0.0029 -0.1534 -0.0068
50797W        W93788  26.863  28.140  20.515 -0.2472 -0.0472  0.0328
50798W        W93789  24.541  13.377  19.650  0.0669 -0.0022 -0.1491
50799W        W93790  28.001  21.018  23.795  0.0713 -0.0234 -0.0444
50800W        W93791  29.341  15.604  27.356  0.1950  0.2714 -0.0286
50801W        W93792   4.026  29.751   3.993 -0.1723  0.1363 -0.0290
50802W        W93793   2.244  29.901  16.467 -0.3394 -0.3307  0.0608
50803W        W93794   5.395  21.435  27.169 -0.0472 -0.1270 -0.2694
50804W        W93795  32.980  25.666  14.988 -0.2082 -0.1002 -0.0016
50805W        W93796  24.431  18.045  20.843 -0.1342  0.2565 -0.0008
50806W        W93797  30.577  23.866  27.326 -0.1487  0.0756  0.0437
50807W        W93798  33.496  31.936  18.693 -0.0906  0.2710  0.0327
50808W        W93799  25.951  20.697  18.734 -0.3463 -0.0922  0.2741
50809W        W93800  26.421  26.088  17.223  0.2168 -0.2948  0.1759
50810W        W93801  21.604  11.617  24.721  0.1641 -0.1659  0.0217
50811W        W93802   4.726  24.961  19.001 -0.2376  0.2582  0.1609
50812W        W93803  31.596  14.162  18.606  0.1363 -0.1277 -0.1704
50813W        W93804  29.119  16.108  24.339 -0.1316 -0.0608 -0.1566
50814W        W93805   8.860   1.656  23.294 -0.2725  0.1666  0.0302
50815W        W93806  33.065   3.134  14.122  0.3441 -0.0561 -0.1794
50816W        W93807   1.844  19.750  20.819  0.3212  0.2830 -0.0192
50817W        W93808   8.070  20.775  19.337 -0.0312 -0.1987  0.2488
50818W        W93809  27.446  12.368  15.903 -0.2859  0.0246 -0.3011
50819W        W93810  27.985  11.851  14.614 -0.2127 -0.0573 -0.0335
50820W        W93811  24.182  26.817  15.977 -0.1570  0.0669  0.3978
50821W        W93812  30.200   1.555  25.937  0.2477  0.0413  0.0519
50822W        W93813  28.508   4.829  27.379 -0.0998 -0.1042  0.1399
50823W        W93814  14.587   2.446  24.636  0.4832 -0.0417 -0.3609
50824W        W93815  21.109  17.573  23.912 -0.0694 -0.0007  0.1448
50825W        W93816  33.566  24.576  28.057  0.2234  0.0364 -0.1849
50826W        W93817  23.382  26.868  19.551 -0.0517  0.2858 -0.1100
50827W        W93818  32.323  13.310  26.525  0.0687  0.0163 -0.0562
50828W        W93819  28.226  16.786  15.851  0.2529 -0.0234  0.0520
50829W        W93820  30.484  23.239  17.462  0.2811  0.0857  0.3013
50830W        W93821  10.474  15.097  21.265 -0.1494 -0.1670  0.1408
50831W        W93822  20.914  34.015  17.535  0.0108  0.3386  0.0504
50832W        W93823  32.457  23.263  15.621  0.0010 -0.0527 -0.2397
50833W        W93824  16.089  10.549  18.499 -0.0319 -0.0468 -0.0752
50834W        W93825   1.277  19.974   2.374 -0.0757  0.0429  0.1202
50835W        W93826  15.062  14.423   5.333 -0.2493  0.1820  0.0916
50836W        W93827  33.095  28.349  26.783 -0.2520 -0.2287  0.2332
50837W        W93828   5.099  28.006   6.261  0.2051  0.1868  0.0831
50838W        W93829  24.713  33.232  13.642 -0.2040 -0.1825  0.3895
50839W        W93830   5.539  28.655  27.641 -0.1879  0.1664 -0.2537
50840W        W93831   3.600  18.148  26.838 -0.3063  0.2487 -0.2070
50841W        W93832   5.741   7.946  19.062  0.1232  0.0581 -0.1502
50842W        W93833  26.933   0.962  15.320  0.1281  0.2546  0.1813
50843W        W93834  27.811  28.313   2.317  0.0634  0.0702 -0.2164
50844W        W93835   3.573  17.167  21.095  0.0766 -0.5897  0.2300
50845W        W93836  33.130  31.735  22.085  0.0738 -0.1057  0.1075
50846W        W93837  26.576  26.893  17.483 -0.0471  0.2742  0.2727
50847W        W93838  24.194  19.935  18.941  0.2466 -0.1888 -0.0464
50848W        W93839  24.617  28.007  21.838  0.2332  0.1581 -0.1658
50849W        W93840  31.925   7.905  16.613 -0.2720  0.1560 -0.1533
50850W        W93841  33.903  26.566  24.670 -0.1358 -0.3045 -0.1332
50851W        W93842  34.245  25.870  14.677 -0.1690  0.1565  0.0250
50852W        W93843   7.017  25.342  20.759  0.1590 -0.2412  0.0141
50853W        W93844  23.795   2.221  17.258  0.3633  0.1924  0.2349
50854W        W93845  27.373   6.417  17.758 -0.0483 -0.1675  0.1065
50855W        W93846  16.465  10.720  20.658 -0.2526 -0.0833 -0.1014
50856W        W93847  31.827   3.053  26.661 -0.1509  0.1192 -0.1945
50857W        W93848  27.828   3.283  21.687  0.0345 -0.1150  0.2391
50858W        W93849  19.590  14.654  15.752  0.1449  0.0851 -0.0688
50859W        W93850  28.647  13.367  28.888 -0.1067 -0.1585 -0.0299
50860W        W93851  15.034  13.160  28.015  0.4312  0.1597 -0.1787
50861W        W93852  33.387  26.989  26.369 -0.0857  0.1096 -0.0409
50862W        W93853   8.755   3.584  28.994  0.1716  0.0041 -0.0924
50863W        W93854  31.490  19.229  15.727 -0.2790  0.1629 -0.0687
50864W        W93855  18.709   6.454  21.240 -0.4159  0.2471  0.1818
50865W        W93856  19.412  21.875  12.735 -0.0377  0.2851  0.0419
50866W        W93857  28.622  16.368  17.674 -0.1834 -0.0944  0.0211
50867W        W93858   3.598  16.898  21.728  0.1642  0.2034 -0.1844
50868W        W93859   4.568  12.604   2.165  0.0686 -0.3003 -0.3126
50869W        W93860  26.405  29.512   1.675 -0.0914 -0.1021 -0.1755
50870W        W93861  30.158  31.880   7.664 -0.0574  0.2239 -0.1260
50871W        W93862   7.922   9.682  16.259  0.0514 -0.0200 -0.1268
50872W        W93863   9.921  13.150   2.258 -0.0221  0.0330  0.0951
50873W        W93864  26.018  34.243  13.992 -0.0866 -0.1797  0.1412
50874W        W93865  30.089   9.392  27.428  0.0397 -0.0047 -0.1212
50875W        W93866  10.726   4.530   7.404  0.1037  0.0453 -0.0212
50876W        W93867   4.713   5.221  21.421 -0.0286 -0.0189  0.0656
50877W        W93868   4.247  20.758  21.386  0.0108 -0.2521 -0.2092
50878W        W93869   3.732  15.113  21.040 -0.1285 -0.0864 -0.0937
50879W        W93870   4.048   7.403  18.835  0.1037  0.1398 -0.1871
50880W        W93871  33.492  24.268   1.077 -0.0543 -0.1174 -0.3526
50881W        W93872  10.745  11.814  16.211 -0.1608  0.3419 -0.1752
50882W        W93873  33.397  27.304  22.893 -0.0811 -0.4152  0.0329
50883W        W93874   0.118  14.182  20.295 -0.1816 -0.0139  0.0127
50884W        W93875  20.887   7.585  18.789 -0.1876  0.1041  0.0455
50885W        W93876   0.238   8.552  17.111 -0.2977 -0.1503 -0.1494
50886W        W93877  26.614   8.243  20.180 -0.1372 -0.2200 -0.3472
50887W        W93878  29.495  27.565  28.797  0.0542  0.1588 -0.5170
50888W        W93879   7.847  22.855  24.414  0.3467 -0.0353 -0.0712
50889W        W93880  23.883   1.285  12.976 -0.0404  0.0620 -0.0869
50890W        W93881   4.235  25.800  15.583  0.4077 -0.0244 -0.4818
50891W        W93882  33.629  19.398  18.143  0.1661  0.1208  0.1365
50892W        W93883   5.447  18.472  20.448 -0.3546 -0.0943 -0.2167
50893W        W93884  33.234  30.545   8.301 -0.2327 -0.1223  0.1407
50894W        W93885   6.959  25.321  16.516 -0.0612 -0.2287 -0.3376
50895W        W93886  18.920  29.558  28.505  0.0790  0.2086 -0.0626
50896W        W93887  33.911  26.817  15.585 -0.2678  0.0874  0.1065
50897W        W93888  21.126  34.633  20.773  0.2810 -0.3626  0.0192
50898W        W93889   1.801  21.694  28.757 -0.0840  0.0233  0.1406
50899W        W93890   5.710  27.120  21.740 -0.1353  0.0502 -0.0981
50900W        W93891  30.944  18.414  22.042  0.0176 -0.1135 -0.0954
50901W        W93892  12.414   7.949  21.114  0.0602 -0.0416  0.1986
50902W        W93893   2.802   1.284  17.242 -0.0670 -0.1018  0.1303
50903W        W93894   2.118  24.471  21.415 -0.0931 -0.2567  0.1624
50904W        W93895  26.350  15.602  16.360  0.0274  0.0407 -0.1377
50905W        W93896  33.463  18.706  21.054  0.0960  0.1116 -0.0761
50906W        W93897   1.558  28.788  20.802  0.0855 -0.3182  0.0153
50907W        W93898  32.719   7.363  20.272 -0.0412  0.1542 -0.1021
50908W        W93899  10.388  30.203  18.017 -0.1793 -0.1458 -0.2550
50909W        W93900  14.679  27.122  19.260 -0.1763  0.0705  0.1676
50910W        W93901  23.933  21.972  13.544 -0.0132  0.0770 -0.2021
50911W        W93902  25.248  20.968  27.326 -0.0062  0.0455  0.1471
50912W        W93903   7.877   7.015  17.684  0.3013  0.3510  0.0688
50913W        W93904  12.919  30.017  16.755  0.3190  0.2951 -0.0679
50914W        W93905   0.436  31.748  21.892 -0.1977 -0.1818 -0.0145
50915W        W93906  33.385  25.354   3.596 -0.4532  0.1270  0.0872
50916W        W93907   3.492  27.816  18.445 -0.0111 -0.0244 -0.1290
50917W        W93908   0.196  19.387  17.876  0.0667  0.2148  0.1220
50918W        W93909  27.252  15.879  16.011 -0.2627 -0.0083 -0.1060
50919W        W93910  32.748  18.316   3.951  0.0933  0.3519  0.0172
50920W        W93911  33.624  28.776   0.666 -0.0012  0.0040  0.1127
50921W        W93912  31.602  34.532  14.068  0.1822  0.1455 -0.2981
50922W        W93913  31.441   8.270  18.163  0.2190  0.0225  0.1120
50923W        W93914   2.788  14.302  22.994 -0.0202  0.1299  0.0775
50924W        W93915  24.239  34.191  17.901 -0.0589  0.2951  0.0521
50925W        W93916  32.326   8.810   1.578  0.2528 -0.2972  0.3928
50926W        W93917   9.552  28.805  23.017 -0.0698 -0.1253 -0.2794
50927W        W93918   3.220  22.938   9.709  0.0815  0.1148  0.2400
50928W        W93919   9.833  26.976  16.357  0.2457  0.2009 -0.1177
50929W        W93920  27.315  25.838  22.684 -0.1465 -0.1421  0.0131
50930W        W93921   0.752   6.801   2.377 -0.0827  0.1829 -0.2494
50931W        W93922   2.373  16.071  16.178 -0.1877  0.2503  0.0766
50932W        W93923  32.660   8.651  20.662 -0.0560 -0.1003  0.0214
50933W        W93924  28.476  14.354  17.711 -0.0376  0.2772 -0.0185
50934W        W93925  33.607  14.776   0.432 -0.2870 -0.0979 -0.0206
50935W        W93926   3.696  15.849  22.454 -0.0040  0.1971  0.0230
50936W        W93927  27.754   9.961  19.849  0.0406 -0.1141  0.2061
50937W        W93928   0.781  20.343   0.092  0.1513 -0.2972  0.1895
50938W        W93929  18.645  12.548  20.678  0.1832  0.1507 -0.1347
50939W        W93930   9.584  18.742  20.042 -0.0874  0.0846  0.0262
50940W        W93931  24.276  28.552  20.693 -0.0231 -0.4460  0.0048
50941W        W93932  21.023  10.842  13.843  0.1817 -0.0185 -0.0220
50942W        W93933  28.949   0.331  24.558 -0.0683  0.2051  0.1382
50943W        W93934  27.740  22.816  17.304  0.1774 -0.0615  0.0242
50944W        W93935   1.746  18.881  28.869 -0.0507 -0.1333  0.2200
50945W        W93936   0.622  19.575   8.422  0.1246  0.0834 -0.0531
50946W        W93937  32.853  23.322  15.973  0.3690 -0.2374  0.1937
50947W        W93938  13.399  27.129  22.421  0.0062  0.0177 -0.0982
50948W        W93939   0.237  19.639  24.418  0.2084  0.0082  0.0976
50949W        W93940  15.269  20.370  29.013 -0.1058  0.0836 -0.1723
50950W        W93941  17.638  27.430  22.625 -0.1459  0.1608 -0.1990
50951W        W93942   0.305  22.948  22.675  0.2057 -0.2253  0.2316
50952W        W93943   7.324  14.845  14.737 -0.1286  0.0484 -0.2650
50953W        W93944  27.204   1.822  14.004 -0.1171 -0.1853 -0.0969
50954W        W93945  22.281   8.112  15.521  0.1614  0.0740 -0.1183
50955W        W93946  21.810   7.305  24.210 -0.2077  0.2528 -0.3399
50956W        W93947  23.783  21.828  19.704 -0.0068 -0.1873  0.0017
50957W        W93948  28.709  18.721  25.930  0.2062  0.0611 -0.1358
50958W        W93949  11.596  13.310  15.875 -0.2574 -0.1758 -0.2365
50959W        W93950  28.315   4.299  26.997  0.0252  0.1070 -0.1674
50960W        W93951  23.299   8.019  15.425 -0.0167 -0.1153  0.0960
50961W        W93952  31.881  26.690  24.295  0.1482  0.1027 -0.0504
50962W        W93953   2.558  30.529   3.960  0.1640 -0.1837  0.0772
50963W        W93954   1.486   3.778  27.399  0.2946  0.0364 -0.0950
50964W        W93955   2.807   9.398   5.235 -0.0037 -0.3519  0.0492
50965W        W93956  24.148  24.037  14.544 -0.0214 -0.0429 -0.2329
50966W        W93957  25.519  28.746  24.041 -0.2932  0.1679 -0.2372
50967W        W93958   2.241  21.264  26.872 -0.0823 -0.0416  0.1532
50968W        W93959  10.220  19.932  19.512  0.1339 -0.0708 -0.1192
50969W        W93960  29.187  28.600  13.593 -0.0136 -0.0774 -0.3378
50970W        W93961  26.054  23.160   1.832 -0.1428 -0.1738  0.0600
50971W        W93962   7.601  15.104   0.115 -0.1191 -0.0053  0.2647
50972W        W93963  30.712  13.428   1.551 -0.0853  0.2033 -0.2588
50973W        W93964  20.930  21.873  24.080 -0.0648  0.0313 -0.1046
50974W        W93965  19.198  11.136  17.429 -0.0888  0.0390  0.0443
50975W        W93966  28.477  25.898  27.784  0.0945 -0.2773  0.2708
50976W        W93967  21.351  32.806  18.430 -0.1301  0.0078 -0.0745
50977W        W93968   6.525  22.368  21.547  0.4537  0.0653  0.1777
50978W        W93969   8.966  32.468  27.701  0.1730  0.0755  0.0109
50979W        W93970   7.069  20.082  26.685 -0.1178  0.1146  0.2102
50980W        W93971   7.292   6.225  24.969 -0.2812 -0.0207 -0.0370
50981W        W93972  27.404  26.032  15.123  0.0393 -0.1321  0.1275
50982W        W93973  31.958  23.374  21.051  0.0871 -0.1823 -0.3519
50983W        W93974  32.929  13.439  25.534 -0.1621 -0.0340 -0.2332
50984W        W93975  30.478  30.270  17.716  0.1797  0.0374  0.1088
50985W        W93976  30.924  16.513  28.424  0.1540 -0.0040  0.3165
50986W        W93977  28.478  22.333   6.008  0.2033  0.0528  0.1091
50987W        W93978  33.478  21.559  16.253  0.4489 -0.1164  0.0072
50988W        W93979  30.050  14.182  22.273  0.1242 -0.1167  0.1927
50989W        W93980   8.408  21.151  26.780 -0.0841 -0.2183 -0.1547
50990W        W93981  24.568  26.604  20.634 -0.1598  0.0093  0.0308
50991W        W93982   1.905  34.540  14.720 -0.0861  0.0487 -0.1385
50992W        W93983   6.829   6.646  29.263 -0.1669 -0.1204 -0.0745
50993W        W93984   3.338   5.885   2.596  0.2563  0.3771 -0.0194
50994W        W93985   6.019  21.179  18.186  0.2926  0.1074  0.1466
50995W        W93986  33.127   4.913   8.033 -0.0438 -0.0186 -0.0533
50996W        W93987  33.930  23.912  16.496 -0.2837  0.0925 -0.0311
50997W        W93988  20.961  14.029  18.193 -0.2382  0.0062 -0.2587
50998W        W93989  34.203  18.376  17.495  0.2832 -0.1834 -0.1940
50999W        W93990  29.039  14.578  17.281  0.2585  0.0506  0.0026
51000W        W93991   6.930  22.861  27.647  0.0278  0.2814  0.0589
51001W        W93992  18.649  22.695  20.404 -0.0383 -0.2306  0.0039
51002W        W93993  30.364  17.643   1.608 -0.2746  0.2320 -0.1174
51003W        W93994   0.749  33.820   1.525 -0.2296 -0.3578  0.2226
51004W        W93995  25.738  32.138  18.689  0.1891 -0.1989 -0.0544
51005W        W93996   8.029  23.447  21.517 -0.1774 -0.3175  0.0819
51006W        W93997  32.181  27.679  20.388  0.2359  0.1131  0.0488
51007W        W93998  31.520  19.232  18.587  0.0167 -0.1266 -0.0126
51008W        W93999  22.433  11.723  27.184  0.0831 -0.0192 -0.0558
51009W        W94000  32.410  26.954  15.238  0.2382  0.0672 -0.4228
51010W        W94001   6.383  18.431  25.248 -0.1500 -0.1170 -0.1946
51011W        W94002   3.495  14.520  16.366 -0.1088 -0.0655 -0.4275
51012W        W94003  24.747  25.088  17.957  0.0463 -0.1209  0.0175
51013W        W94004  31.725  23.023   4.311  0.1104 -0.0442 -0.0649
51014W        W94005  34.025  15.304  21.996  0.2593 -0.2775  0.0495
51015W        W94006  33.681  27.024  16.212 -0.0112 -0.0782 -0.2609
51016W        W94007   1.621  15.591  18.149 -0.1031 -0.3281 -0.0763
51017W        W94008  29.241  14.199  19.374  0.2628  0.2160  0.2754
51018W        W94009  31.053  14.517   5.552  0.1991  0.1905 -0.0482
51019W        W94010   0.020  30.225  14.370 -0.0196 -0.2813 -0.0545
51020W        W94011   0.283  24.180  19.907 -0.1011 -0.0496 -0.1231
51021W        W94012  25.319  25.501   1.108  0.0480  0.1406 -0.2650
51022W        W94013   1.499  21.651  21.131  0.3843  0.0247 -0.0990
51023W        W94014   0.779  13.408  18.320  0.2675  0.2175  0.2233
51024W        W94015   6.253  13.496  17.031 -0.2900 -0.0775 -0.0834
51025W        W94016   4.864   8.702  15.324 -0.0910  0.2883  0.1008
51026W        W94017   5.585  20.668  21.541  0.1727 -0.0805  0.1697
51027W        W94018  32.992  34.083  26.797 -0.2848 -0.1952  0.0047
51028W        W94019  25.316  22.039  22.094 -0.3585  0.1425 -0.1074
51029W        W94020  21.536  20.554  14.812  0.0930  0.1923 -0.0479
51030W        W94021  28.594  26.622  23.524 -0.0207  0.2775  0.1607
51031W        W94022  23.384  14.700  24.876  0.0283 -0.3804  0.0511
51032W        W94023  26.972   3.226  19.635  0.0360  0.2815 -0.2395
51033W        W94024  34.552   3.368  26.122  0.1412  0.0117  0.1104
51034W        W94025  13.281  22.019  19.689 -0.2216  0.0872 -0.1927
51035W        W94026  25.254   2.361  17.446  0.1741 -0.0430 -0.1449
51036W        W94027  33.156   3.307  27.806 -0.3365  0.0954 -0.1643
51037W        W94028   8.092   2.069  21.242 -0.1259 -0.1151  0.0167
51038W        W94029  32.547  11.869  17.693 -0.0099 -0.2431  0.1112
51039W        W94030  10.534  30.192  19.844  0.0411  0.3310  0.1296
51040W        W94031  23.718  28.960  16.606 -0.0758  0.0332  0.2329
51041W        W94032  12.089  30.036  17.106  0.3471  0.1580  0.0029
51042W        W94033   1.742   0.956  24.367  0.3071  0.4551 -0.0243
51043W        W94034  29.506  17.283  19.294 -0.0804  0.1113 -0.0741
51044W        W94035   6.042   2.396  21.967  0.2283  0.1624 -0.0711
51045W        W94036  14.366   3.047  25.086 -0.3449  0.0537 -0.0742
51046W        W94037   6.807  28.098  23.973  0.0143 -0.0459  0.2428
51047W        W94038  32.105  21.772  24.345  0.0817  0.0522  0.0360
51048W        W94039  19.950  15.721  15.853  0.0087  0.1105  0.0139
51049W        W94040   5.536  22.048  23.997 -0.1724  0.0924  0.0186
51050W        W94041  34.703  18.671  18.726  0.3576 -0.0341 -0.2295
51051W        W94042  29.258  27.406  25.413  0.1119 -0.2773 -0.0718
51052W        W94043  32.707  27.443  28.486  0.1706 -0.1374 -0.1049
51053W        W94044  31.555   5.673  27.914 -0.0550  0.1610 -0.1139
51054W        W94045   4.011   9.096  21.328  0.3286 -0.0610  0.0482
51055W        W94046  28.066  33.638  22.208 -0.1969  0.2257  0.0320
51056W        W94047  23.005  23.971  24.776  0.3158 -0.0292  0.3845
51057W        W94048   4.577  24.612   1.096 -0.1693  0.2698 -0.0710
51058W        W94049  23.404  21.335  16.770 -0.1452  0.1421  0.1350
51059W        W94050   4.644   5.383  26.404  0.1514 -0.0636  0.0894
51060W        W94051  27.674  28.812  18.886  0.2754  0.0719 -0.1150
51061W        W94052  27.799  20.860  16.169  0.0238  0.0554 -0.0506
51062W        W94053  22.569  25.504   9.094  0.2321  0.3887  0.0901
51063W        W94054   5.509  12.035   0.040 -0.1489 -0.1661 -0.1566
51064W        W94055  15.106  11.349  21.274 -0.1337  0.1408  0.2469
51065W        W94056  30.153  12.008  19.055  0.0123  0.0159  0.0178
51066W        W94057  13.795  30.089  14.325 -0.0015  0.1938  0.1815
51067W        W94058  29.517  16.713  15.163 -0.1508  0.3635  0.0160
51068W        W94059  32.125  19.401  24.288  0.0506 -0.1885  0.2599
51069W        W94060   1.497  22.720   0.397 -0.0145 -0.0930  0.0771
51070W        W94061  14.059   9.459  20.991 -0.0959 -0.1082 -0.5019
51071W        W94062  27.484  22.556  25.389  0.0166  0.1332  0.0066
51072W        W94063  23.259  16.587   1.995 -0.0021 -0.1265 -0.1308
51073W        W94064  11.079  17.909  21.881  0.2765 -0.0554 -0.0680
51074W        W94065  29.384  22.581  17.387  0.0335 -0.0427 -0.1797
51075W        W94066  31.053   5.038  15.193  0.2362 -0.1133 -0.1417
51076W        W94067  33.852  20.591  14.805  0.1753 -0.0575  0.1524
51077W        W94068   6.871  15.809  15.934  0.1668 -0.0455 -0.3369
51078W        W94069  19.635  21.802  18.783 -0.1169  0.0277  0.1075
51079W        W94070  23.334  17.283  14.274  0.3355 -0.2538  0.0199
51080W        W94071  26.047  22.512   7.490 -0.3015 -0.0115 -0.0617
51081W        W94072   1.346  13.276   1.721 -0.0532  0.0225 -0.0910
51082W        W94073  21.944  33.703   5.718  0.1208  0.0766  0.2026
51083W        W94074  14.950  17.614  13.576 -0.1614 -0.0031 -0.0895
51084W        W94075  31.607  24.372  22.275  0.0819  0.0280  0.2772
51085W        W94076  30.463   5.416  19.907  0.0331 -0.0760 -0.0954
51086W        W94077   9.566  21.050   4.070  0.1546 -0.0923 -0.0218
51087W        W94078  23.281   9.731  16.411 -0.1125  0.3417  0.0668
51088W        W94079   3.267   7.344  21.231  0.0078 -0.3985 -0.1190
51089W        W94080   0.832  17.214  21.136 -0.3525  0.1520 -0.2214
51090W        W94081  24.390  18.302   1.746  0.2302  0.1458 -0.1159
51091W        W94082  13.184  10.675  18.738 -0.0010  0.0842  0.0292
51092W        W94083   2.224  18.098   1.711  0.0490 -0.0991 -0.2178
51093W        W94084   3.686  15.813  23.568 -0.0342  0.0125 -0.0671
51094W        W94085   0.106  25.663  17.049  0.0036 -0.5209 -0.1555
51095W        W94086  25.303  15.213  16.842  0.0074 -0.0756  0.4047
51096W        W94087  28.933  22.367  19.414 -0.0336 -0.0535 -0.1483
51097W        W94088  28.182  19.818  19.350 -0.1757 -0.1940 -0.2992
51098W        W94089  15.997  27.006   1.188 -0.0620 -0.0283 -0.3292
51099W        W94090  24.005  26.798  16.881 -0.0021  0.2726  0.1482
51100W        W94091   1.203  34.542   1.479  0.0284 -0.1647  0.2229
51101W        W94092  24.809  23.272  15.436 -0.0139 -0.0389  0.0563
51102W        W94093   0.479  27.308  17.137  0.3349 -0.0725  0.0773
51103W        W94094  31.192  11.649  22.803  0.2950 -0.1043 -0.0856
51104W        W94095  31.313  32.292  28.671 -0.1103 -0.2034 -0.3324
51105W        W94096  31.263  34.727  22.692  0.2571 -0.0425  0.0021
51106W        W94097  21.314   3.629  21.904  0.1243 -0.2049  0.2229
51107W        W94098   6.672  22.548  10.011 -0.1038 -0.1712  0.0332
51108W        W94099  26.599  28.941  17.242 -0.2780  0.1976 -0.0019
51109W        W94100  26.812  23.212  22.276  0.1951  0.1473  0.3518
51110W        W94101   0.167  28.606  16.257 -0.1153  0.2564  0.0261
51111W        W94102  24.973  19.191  24.686 -0.0692 -0.0212  0.3241
51112W        W94103  10.224  22.047  17.661 -0.1206 -0.1738 -0.0676
51113W        W94104  30.544   3.083  18.289  0.0203  0.1337 -0.0527
51114W        W94105  23.673   9.743  27.266 -0.0925 -0.2228 -0.2414
51115W        W94106   9.855  22.212  15.521 -0.2694  0.1960 -0.1154
51116W        W94107  14.932  28.435   5.172 -0.0047  0.1871  0.1952
51117W        W94108  28.513  20.906  22.220 -0.3321 -0.3140 -0.4714
51118W        W94109   6.630  13.306  24.526 -0.2245  0.0206  0.0742
51119W        W94110   1.566  34.656  18.488 -0.2532  0.0871 -0.3334
51120W        W94111  17.298   9.659  17.938  0.4054 -0.0118  0.0731
51121W        W94112  13.662  23.387   2.465 -0.4622 -0.1645 -0.0595
51122W        W94113  16.994  18.458  24.239 -0.1636  0.1511 -0.0624
51123W        W94114  27.859  25.366  17.680  0.2746 -0.1792  0.0530
51124W        W94115  29.312  22.369  23.387 -0.0016  0.1400 -0.2028
51125W        W94116  29.283   5.478  24.340  0.2607  0.0113 -0.0228
51126W        W94117  33.789   0.729  23.855  0.1911 -0.0430  0.0375
51127W        W94118  28.899  20.928  28.090 -0.0381 -0.2381  0.1181
51128W        W94119  17.064  13.184  15.470 -0.1061  0.0353  0.1925
51129W        W94120  34.343  22.094  17.089 -0.2820  0.1385 -0.0942
51130W        W94121   2.444  23.824  22.143 -0.0662  0.0618 -0.2329
51131W        W94122   4.086  13.716  28.940 -0.0506 -0.3668 -0.1151
51132W        W94123  22.878  25.249   5.616  0.0578 -0.0265 -0.2540
51133W        W94124  17.739  13.649  17.535  0.0946  0.1910 -0.1580
51134W        W94125  33.751  25.913  21.292 -0.0265 -0.0909  0.2269
51135W        W94126  30.228  33.012  16.409 -0.2870 -0.0093 -0.1231
51136W        W94127   2.956   1.865  25.128  0.2436 -0.0673  0.2772
51137W        W94128  27.472  25.485  17.376  0.3150 -0.2514  0.1081
51138W        W94129  30.088  29.821  15.394  0.1310 -0.1899  0.0093
51139W        W94130   9.732  29.351  14.908  0.2752  0.2510 -0.2107
51140W        W94131  34.727   0.562  14.426 -0.1713 -0.0502  0.0369
51141W        W94132  23.930  27.849  14.143 -0.3280 -0.0022  0.1428
51142W        W94133   1.393   9.928  18.885  0.0739  0.1297 -0.3011
51143W        W94134  24.880   8.129   8.034  0.1022 -0.0311 -0.2045
51144W        W94135   5.131  25.105   0.296  0.1963 -0.0629  0.0863
51145W        W94136  31.270  19.058   6.873  0.0910 -0.2123 -0.1272
51146W        W94137  26.337  31.559  12.173 -0.1909 -0.2994 -0.2166
51147W        W94138   0.388  23.853  22.891  0.1535 -0.2764  0.0881
51148W        W94139  28.002  34.487  25.825  0.2667 -0.1817 -0.2697
51149W        W94140  10.593  31.651  17.978 -0.2037  0.0782  0.0245
51150W        W94141  22.413  10.766  13.912  0.0156 -0.2532  0.1159
51151W        W94142   1.103  18.246  21.411  0.2090 -0.0397 -0.2454
51152W        W94143  23.837  10.708  16.950 -0.3342 -0.0228 -0.2469
51153W        W94144  31.926  18.295  10.535 -0.1270 -0.1065 -0.0218
51154W        W94145  10.066  10.539  18.283  0.0980 -0.1072 -0.0497
51155W        W94146  22.428  31.505  16.470  0.0187 -0.1727 -0.2588
51156W        W94147   0.332  10.436  19.818 -0.4840  0.0647 -0.0691
51157W        W94148   4.861  18.552   3.460 -0.0339 -0.0776  0.1068
51158W        W94149  23.241  18.209  27.226 -0.1019 -0.1847  0.1849
51159W        W94150  24.485  17.328   1.883 -0.0665 -0.2710 -0.0880
51160W        W94151  29.862  31.220  21.041  0.0771 -0.0320  0.0023
51161W        W94152   9.864  19.330  16.414 -0.1286  0.3422  0.1303
51162W        W94153   2.989  13.300  16.686 -0.1472  0.0980 -0.0396
51163W        W94154  24.070  12.547  16.355  0.3605 -0.1487 -0.0647
51164W        W94155   7.819  31.555  23.535 -0.0652 -0.0359  0.0424
51165W        W94156   7.644  16.576  19.583  0.0036 -0.0566  0.2670
51166W        W94157  29.983   5.101  27.447  0.1547  0.1727  0.0910
51167W        W94158   1.057   5.220  23.267 -0.0574  0.1888 -0.3018
51168W        W94159  25.653  33.847  18.589 -0.1466  0.2645  0.1236
51169W        W94160  23.588  15.105  24.090 -0.4038  0.1338 -0.1478
51170W        W94161  30.865  11.021  18.858  0.1521 -0.2869  0.2542
51171W        W94162  29.290  28.135  28.241 -0.2541  0.2630  0.0770
51172W        W94163   4.795  17.244  20.036  0.1117 -0.0556  0.2701
51173W        W94164   4.111  31.536  23.648 -0.0491 -0.1181 -0.0407
51174W        W94165  32.021  26.111  24.201 -0.2797  0.2569  0.0504
51175W        W94166  12.180  12.396   0.404  0.0408  0.1205  0.0374
51176W        W94167  21.160  28.703  24.612 -0.4078  0.1045 -0.1926
51177W        W94168   2.054  31.903  19.832 -0.2608  0.0511  0.1462
51178W        W94169  26.200  13.579  14.540  0.2288  0.0318  0.1012
51179W        W94170  25.568  27.287   0.521 -0.0098 -0.0986  0.2585
51180W        W94171  19.500  22.588   6.429  0.1682 -0.0706 -0.1883
51181W        W94172  16.489  31.268  14.898  0.1370  0.2067 -0.1628
51182W        W94173  31.501  33.492  16.238  0.1057 -0.0264  0.2165
51183W        W94174  24.289  19.325  19.387  0.0678  0.0961  0.0392
51184W        W94175   9.665   0.565   9.312 -0.0096 -0.0538 -0.0610
51185W        W94176  32.064  23.586  28.828 -0.0138  0.1299 -0.1223
51186W        W94177  30.959  10.773  27.838  0.0198  0.3703  0.0904
51187W        W94178  28.179  17.995  25.816  0.0370 -0.3030  0.1106
51188W        W94179  20.720  19.739   8.790 -0.0943  0.1661  0.2215
51189W        W94180  22.307  12.748  29.196  0.3407 -0.0848 -0.5471
51190W        W94181   5.653  11.426   8.881 -0.1206 -0.0784 -0.0882
51191W        W94182  12.344  10.583  26.877  0.2272  0.0891 -0.1234
51192W        W94183  32.620  12.176   2.129  0.0272 -0.1805  0.3287
51193W        W94184   4.440  22.022  18.706  0.1102 -0.2588 -0.1385
51194W        W94185  10.195  12.471  11.261  0.0173 -0.1501 -0.0128
51195W        W94186  33.849   8.897  16.006 -0.2775  0.2950 -0.0568
51196W        W94187   9.974  27.441  16.306  0.1655  0.3117 -0.2131
51197W        W94188  19.508  11.832   9.173  0.0602  0.1182 -0.1148
51198W        W94189  33.893  16.028  23.150 -0.0865  0.3321 -0.2580
51199W        W94190  27.775  16.172   4.893  0.3542 -0.2182 -0.3359
51200W        W94191   9.504  28.990  19.167 -0.1127  0.1305 -0.1067
51201W        W94192  31.405   7.420  18.720  0.1241 -0.0978  0.2098
51202W        W94193   1.152  19.372  20.737  0.0905  0.2613 -0.0610
51203W        W94194  20.365  31.071  19.157  0.1970  0.3706  0.0664
51204W        W94195   1.083   7.096  18.323  0.0380  0.3356  0.2311
51205W        W94196  30.037  27.003   3.202  0.0601 -0.0577 -0.0591
51206W        W94197  14.793  16.112   3.743 -0.0533  0.1393  0.0662
51207W        W94198  31.670   0.991  26.656 -0.1561  0.1921  0.1986
51208W        W94199  18.640  21.139  25.339 -0.0929 -0.0697  0.4125
51209W        W94200  10.429  26.609  26.511 -0.1208 -0.2511  0.0382
51210W        W94201  26.716  15.934  20.587 -0.3404 -0.0501  0.1138
51211W        W94202  27.002  17.652  20.156 -0.0709  0.1404 -0.1614
51212W        W94203  32.316  25.389   5.150 -0.1682 -0.4963 -0.0285
51213W        W94204  30.083  15.046   9.037  0.1405  0.1369 -0.0281
51214W        W94205  12.669  20.542   1.341  0.0772 -0.2475  0.0229
51215W        W94206  21.066  22.332  12.536  0.1086  0.1459 -0.1220
51216W        W94207  25.507  22.052  19.356  0.1565  0.4067  0.1418
51217W        W94208  24.553  31.187  24.882 -0.0120  0.1443 -0.3860
51218W        W94209  23.908  23.560  20.084 -0.0250  0.2717  0.1681
51219W        W94210   0.964  13.666  21.929  0.1087 -0.0651 -0.0773
51220W        W94211   4.879   1.536  26.982 -0.2250 -0.1401  0.0026
51221W        W94212  30.928  21.495   0.614  0.1485 -0.2323  0.1657
51222W        W94213  21.511  28.475  23.827 -0.4386  0.0102 -0.3895
51223W        W94214  32.840  30.298  23.195  0.1626 -0.2482 -0.0191
51224W        W94215  33.483  31.328   8.096  0.0179 -0.1438 -0.1719
51225W        W94216  28.978  20.588  10.133 -0.1265  0.3406 -0.2513
51226W        W94217  33.037  11.566  21.578 -0.3592  0.3139  0.0313
51227W        W94218  29.530  20.356  20.883 -0.1607 -0.0243 -0.4097
51228W        W94219   2.464   2.283  27.077  0.1040 -0.0859  0.2473
51229W        W94220  27.520  16.058  20.887  0.1425  0.1014  0.0400
51230W        W94221  31.487  34.059   0.139 -0.5063 -0.3062  0.1255
51231W        W94222   2.377  19.821  26.404 -0.1364  0.0967 -0.0818
51232W        W94223  17.083  29.953  21.392  0.1833 -0.5348  0.1708
51233W        W94224   1.136  24.730  19.911 -0.1844 -0.0774 -0.2733
51234W        W94225  33.705  14.132  28.695 -0.2061 -0.0005 -0.0678
51235W        W94226  12.077  24.653  16.974 -0.2667 -0.0453 -0.0369
51236W        W94227   9.610   8.104   0.537  0.3974 -0.2359  0.0955
51237W        W94228   4.492  20.448   0.841  0.1271 -0.0749 -0.1297
51238W        W94229  28.459  20.234  27.497  0.1524 -0.2171  0.2257
51239W        W94230   7.837  10.976  20.678 -0.0172 -0.2953 -0.3997
51240W        W94231   9.785  16.930  15.781 -0.0040  0.2846 -0.0004
51241W        W94232  19.072  18.509   1.139 -0.1365 -0.1425  0.0376
51242W        W94233  32.876  11.703   4.403 -0.3601 -0.2160 -0.2058
51243W        W94234   4.175  28.485  17.525 -0.0157  0.0561 -0.1174
51244W        W94235  34.641  14.068  20.760  0.0590  0.2935  0.1650
51245W        W94236  31.163  20.329  21.496  0.2328 -0.1154  0.1180
51246W        W94237   9.352  18.224  10.949 -0.0700 -0.0668  0.0756
51247W        W94238  34.708  28.066  22.986 -0.1007  0.3900  0.1364
51248W        W94239  10.425  19.645  21.731  0.2806 -0.0137 -0.0313
51249W        W94240   9.039  18.505  18.527 -0.1034 -0.0824  0.2499
51250W        W94241  32.028  11.806  20.633  0.0982 -0.1698  0.0403
51251W        W94242  27.680   5.961  15.252 -0.1379 -0.0914  0.2272
51252W        W94243   8.586  31.903  15.575 -0.2789  0.3175 -0.0347
51253W        W94244  18.106  16.867  27.093 -0.1148 -0.3228 -0.1716
51254W        W94245  21.822   0.136  19.863 -0.2308 -0.1304  0.2034
51255W        W94246   9.290   4.793   1.087 -0.0313 -0.0826 -0.0094
51256W        W94247   8.223  34.633  19.167 -0.1659  0.3091 -0.0911
51257W        W94248   6.409  22.456  15.929 -0.0801  0.4836  0.3636
51258W        W94249  24.549  17.526  23.940  0.1287 -0.1777 -0.1180
51259W        W94250  15.499  26.742   3.143  0.1354  0.0097  0.3676
51260W        W94251  32.998   5.366  15.262  0.1645  0.1128  0.0205
51261W        W94252   4.075  12.424  23.542 -0.1064  0.3235 -0.2602
51262W        W94253  25.410  13.322   0.512 -0.0624 -0.0271 -0.3563
51263W        W94254  25.795  25.158  23.512  0.2493  0.0994  0.0936
51264W        W94255  29.124  14.497  26.164  0.3094 -0.2276 -0.0725
51265W        W94256   1.271  17.219  24.504  0.3139  0.0656  0.2638
51266W        W94257   6.043  33.764  19.220  0.1897 -0.0405 -0.0338
51267W        W94258  11.791   9.030  11.369 -0.0783  0.0381 -0.1168
51268W        W94259  24.762  24.192  27.659 -0.1611 -0.0971 -0.0490
51269W        W94260  34.266   3.386  19.973  0.1349 -0.3532  0.2564
51270W        W94261   0.431   0.746   1.541 -0.2409 -0.2808  0.0777
51271W        W94262  18.275  13.948  16.679  0.2202 -0.2869  0.1667
51272W        W94263  18.759  12.803  22.532 -0.1144  0.1925  0.2277
51273W        W94264  13.219  32.789  22.736 -0.0035 -0.0688 -0.0709
51274W        W94265   0.721  11.170  20.615 -0.3785  0.0665 -0.3973
51275W        W94266  34.519  19.478  15.839  0.0659 -0.1872 -0.1030
51276W        W94267  30.274  32.071  25.213 -0.0522 -0.1919  0.1828
51277W        W94268  17.537  14.302  23.500 -0.3626 -0.0812 -0.0581
51278W        W94269  29.677   9.294  21.300  0.0971  0.0246  0.0108
51279W        W94270  24.957  24.422  14.213 -0.1792 -0.1685 -0.2256
51280W        W94271  26.365  20.664  25.347  0.2410  0.2635  0.2474
51281W        W94272  18.234  24.962   6.384  0.3593  0.1066 -0.0962
51282W        W94273  24.969  24.035  28.069  0.2518  0.0500  0.2536
51283W        W94274   0.317  19.578  29.128 -0.0391 -0.2006  0.0809
51284W        W94275  31.662   9.832  24.334  0.1178  0.3853 -0.2805
51285W        W94276   1.209  24.517   6.859 -0.0066 -0.0603 -0.0946
51286W        W94277  16.621  17.384   0.789  0.0003 -0.2260  0.5103
51287W        W94278   1.261  21.902   7.255 -0.2662 -0.2388 -0.1321
51288W        W94279  21.874  24.020  21.698  0.1376 -0.2327 -0.1309
51289W        W94280  27.357  26.972  14.920 -0.2981  0.1950 -0.1974
51290W        W94281   6.615  16.535  24.778 -0.3647  0.2024  0.0833
51291W        W94282  12.792  13.351  23.912 -0.0822 -0.3611 -0.1700
51292W        W94283  13.610  29.768  27.860 -0.1921 -0.0853 -0.1140
51293W        W94284  31.290  19.657  18.277  0.1607  0.3900  0.1303
51294W        W94285   4.160  18.953   6.928 -0.1461 -0.1653  0.2517
51295W        W94286  26.830  17.933   5.371  0.2477 -0.1485 -0.2182
51296W        W94287  26.068   5.446   4.886 -0.1118  0.0444  0.2804
51297W        W94288  33.716   9.729  26.556  0.2453 -0.0582  0.2983
51298W        W94289  29.938  27.475  17.882  0.2261 -0.2341  0.2012
51299W        W94290   9.546  18.081  14.842 -0.2779  0.0925 -0.1728
51300W        W94291  28.463   8.390  26.029  0.2101  0.1293  0.1676
51301W        W94292  31.675  17.907   8.054 -0.1312 -0.1948 -0.3116
51302W        W94293   0.719  13.342  18.817 -0.2308  0.1852  0.0381
51303W        W94294   4.696  20.489  15.856 -0.0952 -0.4455  0.1536
51304W        W94295  28.496  25.392  22.718  0.0222 -0.3530 -0.0561
51305W        W94296   2.355  34.336   5.443 -0.2892 -0.2464 -0.1103
51306W        W94297   9.955  30.451  15.631 -0.1102 -0.1161 -0.1593
51307W        W94298  19.707  27.194   7.695 -0.0352  0.1919 -0.0553
51308W        W94299  29.727  10.015  25.550  0.4514 -0.1158  0.2158
51309W        W94300  31.849  22.775  27.264 -0.0695  0.2979  0.0396
51310W        W94301  32.983  13.643   1.933 -0.2214 -0.1979  0.1496
51311W        W94302  19.316  29.614  15.571 -0.1472  0.2775 -0.0466
51312W        W94303  19.734  24.687  22.471 -0.3194  0.1205  0.0463
51313W        W94304  30.900   3.865   1.093  0.2367  0.4470 -0.0861
51314W        W94305  28.609  23.144   0.212 -0.0906 -0.0701 -0.1410
51315W        W94306  25.809  10.994  15.098  0.1960  0.0140 -0.4138
51316W        W94307  11.393   0.024   1.956 -0.0355  0.0306 -0.1700
51317W        W94308   2.824  15.341  24.202  0.1890  0.0473  0.4545
51318W        W94309  28.356  21.111  28.957 -0.2535 -0.1069 -0.1357
51319W        W94310  18.931   6.989  18.169  0.4704  0.1688 -0.0272
51320W        W94311   8.264   8.440   8.992 -0.2568  0.0480  0.0923
51321W        W94312   9.137  11.196  26.884 -0.1807  0.0955 -0.0461
51322W        W94313  27.474   8.117   4.504  0.0105  0.1861  0.0922
51323W        W94314  23.105  26.195  23.991 -0.1112  0.2386 -0.4081
51324W        W94315  29.189  15.682   3.019  0.0449 -0.3203 -0.0065
51325W        W94316  32.190  20.563  13.775  0.1188 -0.1400  0.0134
51326W        W94317   1.791  22.683  19.285  0.2473  0.0651  0.1180
51327W        W94318  34.586  29.133   1.488 -0.0064 -0.0697 -0.0266
51328W        W94319   2.130  18.032  15.579  0.3826 -0.0392 -0.0873
51329W        W94320   7.033  29.692  28.938 -0.0569 -0.0985  0.0031
51330W        W94321  19.438  23.891  21.185  0.1736  0.0152 -0.0125
51331W        W94322  34.777  19.479  20.889  0.1575  0.0131 -0.1873
51332W        W94323  34.800  12.942  11.428  0.2160  0.1516 -0.3914
51333W        W94324  24.309  34.467  17.128  0.2181  0.0514  0.4000
51334W        W94325   3.548  12.571   0.207  0.0641 -0.2027 -0.2523
51335W        W94326  29.088   4.985   2.337 -0.1253 -0.2079 -0.2255
51336W        W94327   3.834  19.388   3.820  0.0176 -0.0613 -0.1685
51337W        W94328   3.606   0.092  14.012  0.3053 -0.1931  0.1331
51338W        W94329   0.645   1.830  26.383  0.4309 -0.1063 -0.0015
51339W        W94330   2.889  12.479  20.359  0.1178  0.0057  0.1338
51340W        W94331   0.699  17.009   2.682  0.1831 -0.3657  0.0137
51341W        W94332  27.406   9.093  24.728 -0.0824 -0.1130  0.0972
51342W        W94333   4.935  14.029  16.294  0.0394  0.3699  0.1771
51343W        W94334   7.712   9.510   5.962  0.4201  0.1328 -0.2392
51344W        W94335  34.054  27.804  17.873 -0.0511  0.2128 -0.3293
51345W        W94336  34.357  19.816  21.874 -0.1359 -0.0898 -0.2188
51346W        W94337  25.374   7.947  19.079  0.0368  0.0587 -0.0831
51347W        W94338  24.838  22.464   4.920  0.2632  0.1142 -0.1153
51348W        W94339   0.523  22.183  16.000  0.1138 -0.1200  0.0033
51349W        W94340  33.971  19.729  26.848  0.0354 -0.0260 -0.1595
51350W        W94341   3.742  28.165  24.569 -0.2664  0.0069 -0.1731
51351W        W94342  34.184  14.258  23.222 -0.0812 -0.0342 -0.0753
51352W        W94343  23.325  25.964  25.116 -0.1015  0.0495 -0.0119
51353W        W94344  23.420  20.820  24.019 -0.0405 -0.0409  0.0147
51354W        W94345   4.143  10.401  28.828 -0.1087  0.0277 -0.2867
51355W        W94346  24.776   9.722  26.691 -0.3252  0.0073 -0.0143
51356W        W94347  27.820  15.045  16.127 -0.1529  0.1480 -0.1510
51357W        W94348  19.588   6.892  21.173  0.2544 -0.4453 -0.1781
51358W        W94349  17.300  15.657   0.091 -0.3102 -0.2233 -0.1560
51359W        W94350   1.744  28.952  19.084  0.3985 -0.2786 -0.0788
51360W        W94351  32.893  18.117  22.145  0.1614 -0.0053  0.1698
51361W        W94352  27.741  20.203   9.535  0.0281 -0.2073 -0.1217
51362W        W94353  27.351  27.658  15.830 -0.3764 -0.2238 -0.0264
51363W        W94354  29.519  17.298   7.555  0.1516  0.0673 -0.2084
51364W        W94355   5.195   8.548  19.724 -0.1008  0.1870 -0.1880
51365W        W94356   2.126  28.711  15.341  0.0139 -0.3455 -0.1222
51366W        W94357  27.241  13.321  25.917  0.2387 -0.2127 -0.3610
51367W        W94358  25.095   8.882  21.265 -0.3517  0.2860  0.0397
51368W        W94359   0.191  14.331  18.401  0.2866  0.0871  0.1447
51369W        W94360  27.159  19.798  13.859 -0.0229  0.1234  0.2567
51370W        W94361   7.940  23.483  10.332  0.0555 -0.1713 -0.0081
51371W        W94362  22.802   3.608  21.570  0.1527 -0.2195  0.2730
51372W        W94363  28.602  26.925  19.799 -0.1256 -0.0476 -0.1837
51373W        W94364  28.692  10.143  21.511 -0.2027 -0.2016  0.0270
51374W        W94365  30.973  12.569  14.806  0.1185  0.0456  0.0643
51375W        W94366  27.831  24.862  22.990  0.0046  0.0833  0.0216
51376W        W94367  11.378  29.296  21.716 -0.1912 -0.0986  0.0684
51377W        W94368  27.243  26.579  24.529 -0.1886  0.0388 -0.2630
51378W        W94369  33.703  12.021   3.581 -0.0111 -0.1849 -0.1321
51379W        W94370  30.150  29.352  13.134  0.1927  0.0618  0.2686
51380W        W94371   6.877   1.368  18.313  0.0688 -0.1108 -0.3076
51381W        W94372  27.474   6.240  26.565  0.0314  0.1853 -0.0487
51382W        W94373  26.874   8.167  22.242 -0.2675  0.1608  0.1619
51383W        W94374  26.290  14.062  15.158  0.1333 -0.3787 -0.1978
51384W        W94375  11.474  30.669  23.521 -0.0087  0.1524 -0.1531
51385W        W94376  16.332  23.789  20.257  0.3063 -0.0266  0.0830
51386W        W94377  28.195  11.109  17.937  0.0082 -0.0551  0.3154
51387W        W94378   5.178  14.856  21.939 -0.1371 -0.1062  0.0138
51388W        W94379   2.092   6.421  25.381  0.0899  0.0349  0.0751
51389W        W94380  25.450   2.752  15.416 -0.0993  0.0606 -0.2747
51390W        W94381  16.696   5.427  20.207  0.1132  0.0369 -0.2653
51391W        W94382   4.612  23.110  24.400 -0.0368 -0.0755  0.0899
51392W        W94383   6.784  20.180  18.656 -0.3625 -0.1028 -0.0867
51393W        W94384   4.922  20.129  16.220 -0.1089  0.1159  0.0130
51394W        W94385  28.516   7.690  26.458  0.0805  0.2570  0.2916
51395W        W94386  19.522  23.420  19.819  0.2575  0.0660 -0.2459
51396W        W94387  25.446   4.610   9.033 -0.2312 -0.0919  0.1687
51397W        W94388  29.813  29.038  16.920  0.3598 -0.2464  0.2634
51398W        W94389   1.274  16.235  16.429 -0.1465  0.0877  0.1563
51399W        W94390  12.767  28.897  24.742  0.0018  0.0760 -0.2160
51400W        W94391   5.346  21.472   1.375 -0.0984 -0.1902  0.0741
51401W        W94392  32.296  22.678  18.556  0.1052 -0.0227  0.0516
51402W        W94393  23.821   3.664   3.245 -0.2248  0.0701 -0.1445
51403W        W94394   1.601  21.791  26.702  0.0841  0.0664 -0.1420
51404W        W94395   1.489  17.049  26.494  0.2986 -0.0722  0.1707
51405W        W94396   7.399  13.161  10.295  0.2112  0.1895  0.2139
51406W        W94397  32.178  18.889  28.659 -0.1980 -0.1608 -0.0426
51407W        W94398  20.735  24.120   5.843  0.0909  0.1020 -0.1244
51408W        W94399   7.907   7.886   2.034  0.0038  0.0730 -0.0831
51409W        W94400   5.099  24.503  18.276  0.0178  0.0236 -0.0350
51410W        W94401  13.617  23.394  27.902 -0.0219  0.1883 -0.0019
51411W        W94402  15.844  33.798   5.564  0.1826  0.1147 -0.0221
51412W        W94403  33.064  18.996  25.707 -0.1149 -0.1379 -0.2315
51413W        W94404  27.358  17.879  18.478 -0.2074  0.0666 -0.0068
51414W        W94405   6.097  26.362   2.477  0.4248  0.2859 -0.0010
51415W        W94406  34.209  13.999  24.053  0.0293  0.0238 -0.0995
51416W        W94407   1.201  32.894  20.739 -0.0295 -0.1346  0.2817
51417W        W94408  33.800  25.676   8.469  0.0914 -0.0586 -0.0741
51418W        W94409   9.767   1.076  23.473 -0.2105  0.0601  0.2304
51419W        W94410   3.462  27.403  23.127  0.1732 -0.0910  0.0762
51420W        W94411  32.486  23.826  16.536 -0.1223  0.2599 -0.2773
51421W        W94412  21.160  16.441  28.793  0.0445 -0.2615  0.1079
51422W        W94413   7.191  12.341  28.917  0.1363 -0.1022 -0.3621
51423W        W94414  16.614  20.089   4.087  0.0611 -0.4170 -0.0432
51424W        W94415  25.509  27.413  17.254 -0.1197  0.2066 -0.1711
51425W        W94416  33.814   7.263  20.051 -0.0717  0.0676 -0.1676
51426W        W94417  11.467   3.149   7.511 -0.0682 -0.1345 -0.0523
51427W        W94418  33.304  30.031  15.553  0.1081 -0.1799 -0.0463
51428W        W94419  33.518  17.912   1.937 -0.0268 -0.3525  0.2352
51429W        W94420   9.320  11.903  25.596 -0.1511 -0.0634 -0.0273
51430W        W94421  34.445  29.582  19.708 -0.1766  0.4684  0.0967
51431W        W94422   3.763   9.205   8.168 -0.1281  0.1504 -0.0607
51432W        W94423   1.251   9.825  28.341 -0.0503  0.2106 -0.2901
51433W        W94424  10.298  15.965   5.293  0.0435 -0.1302 -0.1157
51434W        W94425  28.689  21.172   4.091 -0.2407  0.0811 -0.0610
51435W        W94426   7.234  32.830  23.439 -0.3339  0.0374 -0.2441
51436W        W94427  18.935   0.919   5.321  0.1134  0.0973  0.0553
51437W        W94428  11.008  19.251  14.420 -0.0833 -0.0478 -0.0951
51438W        W94429  26.450  26.715  27.481  0.0623 -0.1583  0.1365
51439W        W94430  24.949  15.377   1.537 -0.2592  0.2287  0.1450
51440W        W94431   4.583  12.083  19.497 -0.1479 -0.0337  0.0353
51441W        W94432  33.998  20.066   4.942 -0.1497 -0.1063  0.0975
51442W        W94433   6.465   4.421  23.452 -0.1595  0.1874  0.1190
51443W        W94434  13.111  30.293  26.416 -0.1609 -0.1297 -0.0470
51444W        W94435  29.874  29.783   0.974 -0.4821 -0.0856  0.2239
51445W        W94436  24.104  26.486  23.656  0.0813 -0.2811 -0.0098
51446W        W94437  26.742  17.506  16.566 -0.2472  0.1469  0.0607
51447W        W94438  26.444  28.617  13.750 -0.0649  0.0870 -0.2718
51448W        W94439  11.651   6.912  24.499  0.1859  0.1633 -0.1200
51449W        W94440  33.461  25.337   7.291 -0.1084 -0.1058  0.0184
51450W        W94441  28.178  17.266   5.985 -0.3428 -0.0781  0.1076
51451W        W94442   6.681  25.642  15.685  0.2015  0.0328 -0.0617
51452W        W94443   1.321  15.674  20.294  0.1883 -0.1589 -0.1268
51453W        W94444  14.913   8.847   3.840 -0.1198 -0.0271  0.0472
51454W        W94445   0.756  31.345  10.067 -0.0427 -0.1686  0.2098
51455W        W94446   1.066  17.314  18.352  0.1385  0.1696 -0.0803
51456W        W94447  30.432  28.749  17.478  0.1362  0.0212  0.0028
51457W        W94448  31.698  23.132  24.941 -0.1725 -0.0745 -0.2168
51458W        W94449  27.405  16.183   0.818  0.0699  0.0597  0.0233
51459W        W94450   5.551  25.168   5.755 -0.1653  0.0856 -0.0384
51460W        W94451  18.113   3.266  20.852 -0.1941  0.2407 -0.0729
51461W        W94452  12.709  15.943   1.145  0.2996  0.2307  0.1701
51462W        W94453   0.280  15.911   7.972 -0.0759  0.0094  0.1816
51463W        W94454  30.339  20.573  21.800 -0.0004 -0.0094 -0.0725
51464W        W94455   6.585  28.034  20.073  0.0024 -0.0550  0.2680
51465W        W94456   8.539  22.723  23.660  0.0660 -0.1473  0.1942
51466W        W94457  11.961  18.365  14.441  0.0417 -0.2108  0.1848
51467W        W94458  32.612   1.864   5.782 -0.1483  0.0748  0.1730
51468W        W94459  32.628  11.177   5.093 -0.0267 -0.3450 -0.3556
51469W        W94460  22.780  12.635   8.437  0.0534  0.0421  0.0646
51470W        W94461  18.903  25.974   9.638  0.0458  0.2409 -0.0549
51471W        W94462  29.262  10.316  26.957 -0.3132  0.2257 -0.2697
51472W        W94463  21.011  29.690   1.275 -0.1601  0.4615 -0.0553
51473W        W94464  34.775  14.574  20.616 -0.3602  0.0866  0.1702
51474W        W94465   4.284  18.721  11.062  0.0786  0.1864  0.2139
51475W        W94466   0.322  30.046   2.258  0.0111  0.2564 -0.0171
51476W        W94467  31.666  26.309  25.899  0.1689  0.0312 -0.0661
51477W        W94468  15.271  28.359  19.026 -0.0442 -0.0126  0.1381
51478W        W94469  32.860  25.738  28.274 -0.1296  0.4080  0.2739
51479W        W94470  18.629  23.871  29.092 -0.0549 -0.0849  0.1619
51480W        W94471  33.256  22.706  28.680 -0.1229  0.0473  0.0726
51481W        W94472  30.028  16.664   5.610 -0.2681  0.2130  0.1525
51482W        W94473  23.019  14.361  21.432 -0.0462  0.3791 -0.3522
51483W        W94474   3.373  33.933  19.241 -0.1686 -0.1669 -0.0212
51484W        W94475  10.226   3.831  22.861 -0.1083  0.3101  0.0620
51485W        W94476  30.456  26.938  23.529  0.1526 -0.0008 -0.1339
51486W        W94477  27.825  15.407   6.989  0.0344 -0.2990 -0.0851
51487W        W94478   7.820  28.151  16.957  0.1913 -0.2182 -0.0887
51488W        W94479   2.653  10.640  18.355  0.0162 -0.3344  0.0498
51489W        W94480  13.589  14.859  14.119  0.3021 -0.0052  0.1168
51490W        W94481  14.174  30.468  14.545  0.0095 -0.3267  0.1089
51491W        W94482  33.719  16.369  25.635  0.2137 -0.3527 -0.2260
51492W        W94483  17.951  18.179   1.084  0.0691  0.1091 -0.1440
51493W        W94484  13.554  30.681  27.583 -0.1268 -0.0368  0.0650
51494W        W94485  20.793  12.311   0.215 -0.1142 -0.0670 -0.0190
51495W        W94486   5.745  26.594  17.462  0.5118  0.1750 -0.0217
51496W        W94487   2.521  20.848  19.389  0.1631  0.1375  0.0677
51497W        W94488  28.488  32.377  23.409 -0.0148 -0.2046 -0.1015
51498W        W94489  25.169  26.160  25.371  0.0845 -0.3172 -0.0705
51499W        W94490  33.261  19.862  23.907 -0.0104  0.2162 -0.4032
51500W        W94491  25.119  10.403  27.140  0.1561 -0.1163  0.1635
51501W        W94492  32.771   7.909  24.796 -0.0109  0.0715  0.1875
51502W        W94493  10.162  16.247  28.510  0.3800 -0.0333 -0.0283
51503W        W94494   5.881  17.089  21.965  0.2812  0.1416 -0.0613
51504W        W94495   2.643  21.352   7.595  0.0656  0.0746 -0.0864
51505W        W94496  11.008  20.587  18.556  0.2696 -0.0876 -0.2170
51506W        W94497  11.491  22.536   4.532  0.3231 -0.1456  0.1971
51507W        W94498   0.371  10.467  26.856  0.1569  0.1822 -0.0676
51508W        W94499  33.513  16.828  22.251  0.1388 -0.0382 -0.0220
51509W        W94500  11.082   9.447   2.031  0.0853  0.1634 -0.0291
51510W        W94501  13.563  23.397  27.315  0.1461 -0.0987 -0.0684
51511W        W94502  25.092  17.871   4.491  0.0883  0.3092 -0.0377
51512W        W94503  22.131  10.329   6.487 -0.2603 -0.2039  0.0496
51513W        W94504   1.778  11.472   0.570 -0.3444  0.0587  0.0463
51514W        W94505   4.139   7.928  16.307  0.0050  0.1922 -0.1830
51515W        W94506  28.166  34.693  28.541  0.2141 -0.3104  0.0314
51516W        W94507  34.619  14.160  22.440 -0.3053 -0.0799 -0.2738
51517W        W94508  31.379  17.701   6.882  0.2700  0.0010  0.0706
51518W        W94509  21.359  30.990  29.104 -0.1978 -0.2137 -0.3918
51519W        W94510  16.600  33.639  22.535 -0.2075 -0.1646  0.1486
51520W        W94511  11.340  10.008  22.886  0.0551  0.0227  0.1852
51521W        W94512  18.792  17.381  24.798  0.0402 -0.3247 -0.1733
51522W        W94513  19.680  19.382   6.806  0.2332 -0.3544 -0.2263
51523W        W94514   1.901  21.623  21.766 -0.0985 -0.3217 -0.0588
51524W        W94515   1.718  15.131  22.395  0.4260 -0.0948  0.1241
51525W        W94516   1.612  27.403  17.736 -0.1718 -0.2039 -0.2574
51526W        W94517   2.707   1.316  28.634  0.1439 -0.0123 -0.1239
51527W        W94518  29.383  13.557  27.116  0.0187  0.1907  0.0308
51528W        W94519   8.150  31.116   5.195 -0.3245 -0.1020 -0.1892
51529W        W94520  18.849  24.030  17.213  0.0185 -0.0161 -0.3849
51530W        W94521   2.641  26.537  19.227 -0.2163 -0.0009  0.0121
51531W        W94522   8.384   0.307  15.387  0.1844  0.1541 -0.0454
51532W        W94523   0.774  27.902   3.431  0.0181 -0.0785 -0.0463
51533W        W94524  28.862  29.078   2.338 -0.0722  0.0550  0.1336
51534W        W94525  34.557   3.120  24.248 -0.0714  0.0092  0.1268
51535W        W94526   9.305  11.028  17.782 -0.1912 -0.1422  0.0899
51536W        W94527  33.828  31.062   9.157 -0.1291 -0.1065  0.0077
51537W        W94528  31.639  11.761   6.571  0.0407 -0.0431  0.0348
51538W        W94529   9.331   4.076  19.634  0.1118 -0.2028  0.2752
51539W        W94530   8.393  14.281   4.280 -0.2549 -0.3204  0.0160
51540W        W94531   7.428  28.512   5.800 -0.2404  0.1101  0.1377
51541W        W94532  31.759  17.158  21.504  0.0457  0.1641 -0.1564
51542W        W94533  11.534  18.197   2.906  0.3286  0.0400  0.0005
51543W        W94534  12.589  16.369   2.884  0.0950  0.0143 -0.0043
51544W        W94535  23.698  25.205   5.078 -0.4518  0.2871 -0.3358
51545W        W94536   0.888   6.162   0.036 -0.2089 -0.1338  0.0456
51546W        W94537   0.406  34.112  20.289  0.0367  0.1418 -0.4195
51547W        W94538  33.270  23.990  22.618 -0.0754  0.0163  0.1976
51548W        W94539  19.541  24.866  29.198 -0.0011  0.1181  0.0253
51549W        W94540  10.184  28.165  20.870  0.1431 -0.0399 -0.0157
51550W        W94541  12.289  19.805   0.457  0.0360 -0.0173  0.0322
51551W        W94542   0.816   0.882   5.760  0.1859 -0.1009 -0.3345
51552W        W94543   4.191  11.421   6.393 -0.0764 -0.1175  0.0829
51553W        W94544   4.678   1.444  25.701 -0.2985 -0.0875 -0.3929
51554W        W94545  34.438   1.462   2.366 -0.0446 -0.3184 -0.1551
51555W        W94546  20.920  32.540  24.767  0.1714 -0.0274 -0.2634
51556W        W94547  22.709   7.954   4.313 -0.1912 -0.2875 -0.0328
51557W        W94548   0.380   9.601   1.524  0.0201 -0.4105  0.1064
51558W        W94549  33.855  21.370   0.007  0.2827  0.1868 -0.1969
51559W        W94550   2.089  31.926  20.805  0.1204  0.0937  0.1501
51560W        W94551  11.604   6.191  26.158  0.1433  0.0035 -0.1472
51561W        W94552   4.134  26.423  24.882 -0.0945 -0.0288  0.1508
51562W        W94553   2.493  25.868  28.331 -0.3190  0.4746  0.3207
51563W        W94554  19.574  26.753   6.859 -0.0067 -0.2083  0.3331
51564W        W94555  31.423  28.468  26.087 -0.3028  0.0216 -0.0478
51565W        W94556  28.597  30.491  17.405 -0.0845 -0.0631  0.0551
51566W        W94557  20.736  25.887   7.194 -0.0703  0.3142 -0.0588
51567W        W94558  22.528  23.214   6.067 -0.0908 -0.0742  0.1831
51568W        W94559  20.253  27.221   6.690 -0.1473  0.1158 -0.0873
51569W        W94560  23.569  16.204  27.943  0.0232  0.0381 -0.0871
51570W        W94561   7.960  22.342  24.573  0.0815  0.2311 -0.1406
51571W        W94562   2.386  14.946  28.039  0.2235 -0.1804  0.1275
51572W        W94563  23.426  26.822  24.228  0.3660  0.0348  0.2845
51573W        W94564  17.048  11.198  15.122  0.0816  0.1954  0.2865
51574W        W94565  29.593  20.403  24.864  0.1845  0.2207  0.1846
51575W        W94566  11.558   9.929  25.997 -0.0756 -0.2520  0.1389
51576W        W94567   3.200  31.057   0.096 -0.0279  0.1098  0.1214
51577W        W94568   3.803  28.754  18.477  0.2809  0.0184  0.1633
51578W        W94569  27.602  29.552  17.476  0.3061 -0.0737 -0.0424
51579W        W94570   4.467  33.903  26.082  0.1198 -0.0027 -0.0036
51580W        W94571   2.366  26.061   6.905  0.0520 -0.1848  0.1848
51581W        W94572  29.840  15.047   8.236 -0.2750 -0.0014  0.0067
51582W        W94573   2.927  13.565   4.082 -0.2301 -0.0145  0.0400
51583W        W94574  28.708  19.151   5.333  0.0098 -0.0510  0.0954
51584W        W94575   2.290  22.095   1.230  0.0699 -0.3712 -0.4289
51585W        W94576  31.123  20.335   9.856  0.2894 -0.1360  0.2404
51586W        W94577  18.369   7.607  22.252 -0.3283  0.0639  0.1980
51587W        W94578   8.211  33.342  27.674  0.1676  0.3896 -0.0195
51588W        W94579  27.949  12.587   3.578 -0.1783 -0.0996  0.0778
51589W        W94580   4.748  16.282  19.982 -0.3738 -0.3646  0.2527
51590W        W94581   6.401  34.369  20.621 -0.2300 -0.1051  0.2525
51591W        W94582  25.884  26.756  22.766 -0.4073  0.1098  0.1985
51592W        W94583   1.691  13.275   2.664  0.0422  0.3019 -0.0921
51593W        W94584   6.815   5.392  28.915  0.1680  0.0417 -0.0955
51594W        W94585  33.760  18.771   9.706  0.3271 -0.0079  0.3413
51595W        W94586   4.720  18.864  24.287  0.0553 -0.2135 -0.2018
51596W        W94587   8.844  11.299   6.299  0.1226  0.0875 -0.1648
51597W        W94588  33.750  27.621  17.455 -0.2187 -0.1440  0.0641
51598W        W94589  20.658  21.808   0.395  0.2103  0.0500 -0.2542
51599W        W94590   3.619   2.861  20.716 -0.0916  0.1291  0.5475
51600W        W94591  28.947   7.059   4.872 -0.1643  0.0768  0.0032
51601W        W94592  10.297  22.735  18.848 -0.0562  0.0743  0.1177
51602W        W94593   9.165  31.762   5.779  0.1979  0.1202  0.0626
51603W        W94594  26.912  12.121  27.865 -0.1836  0.2181 -0.3884
51604W        W94595   4.577  14.133  20.642  0.1590  0.4048  0.1663
51605W        W94596  24.403  23.858   8.667 -0.0182  0.3665 -0.0989
51606W        W94597  34.272  24.133   0.600 -0.0691 -0.1333 -0.2792
51607W        W94598  16.976  16.559   7.242  0.1356 -0.0784  0.0326
51608W        W94599  30.918  13.925  23.278 -0.1513  0.4373  0.0732
51609W        W94600   2.930   2.003   6.164 -0.2116  0.1890 -0.2109
51610W        W94601  12.866  27.286  23.228 -0.0237  0.0674  0.0900
51611W        W94602  10.408   4.111  20.882  0.1058 -0.3221  0.2714
51612W        W94603  34.657   8.995  11.967 -0.3021 -0.1564  0.3305
51613W        W94604  22.500  14.668  14.368 -0.1477  0.1663 -0.0779
51614W        W94605   1.454  23.442   3.885  0.2172  0.2620  0.0112
51615W        W94606   1.439   1.322  29.005  0.0849 -0.2715  0.1995
51616W        W94607   5.254   8.505  24.592 -0.3235 -0.0766 -0.3674
51617W        W94608   0.931  20.245   1.372 -0.1616 -0.3445 -0.2657
51618W        W94609  25.662  23.020  22.928  0.3910 -0.1728  0.1403
51619W        W94610   2.120  10.060  28.727  0.2610 -0.0979  0.2605
51620W        W94611  17.729  17.320   1.253  0.0532  0.2042  0.2139
51621W        W94612  17.627  16.585  13.378  0.0708 -0.1433 -0.0105
51622W        W94613   9.904  17.698   2.190  0.2088 -0.2660 -0.0776
51623W        W94614   1.417   7.361  24.727 -0.0610  0.1900  0.0086
51624W        W94615  25.402  26.212   7.984  0.4042 -0.1174  0.0425
51625W        W94616   5.818   4.116   6.173 -0.0687 -0.1870  0.0554
51626W        W94617  15.113   4.902  16.510 -0.2619  0.1778 -0.0619
51627W        W94618  23.117  13.568   3.826  0.0059 -0.0338  0.0592
51628W        W94619  13.745  14.241   8.413 -0.4276  0.0160  0.0366
51629W        W94620  31.741  14.747   4.042  0.1504 -0.2015  0.2091
51630W        W94621  16.890  31.656  15.030  0.0396 -0.1814  0.1497
51631W        W94622   4.845  26.659  15.576  0.0365  0.4264  0.1586
51632W        W94623  34.778  18.465  21.685  0.1133 -0.3221  0.2685
51633W        W94624  34.558   3.140   5.002  0.0202  0.1356 -0.0689
51634W        W94625  23.637  12.585  21.543  0.1090  0.1892  0.1511
51635W        W94626  21.270   2.390   4.943  0.0892  0.1392  0.0830
51636W        W94627   9.241  21.189  27.815  0.0362  0.2118 -0.2516
51637W        W94628  22.604   8.643   1.733  0.0273  0.1722 -0.2872
51638W        W94629  29.195   5.195   5.028  0.3028 -0.0390 -0.0637
51639W        W94630  32.951  25.705   7.408 -0.1179  0.0209 -0.1094
51640W        W94631  22.179   4.825  13.673  0.2145  0.2829  0.1632
51641W        W94632  18.604  20.270  22.867  0.0902 -0.0240 -0.1083
51642W        W94633   2.544   8.310  16.375  0.1079 -0.3155  0.0628
51643W        W94634   1.393  18.146   0.055  0.0428  0.1708 -0.1793
51644W        W94635  27.511  15.943  24.948  0.1432  0.1006 -0.1250
51645W        W94636   9.077  29.421  10.167 -0.1600  0.0030  0.1698
51646W        W94637  11.528  28.251  24.793  0.2055 -0.1462 -0.0114
51647W        W94638   3.261  18.147  18.391 -0.1135 -0.1310 -0.3709
51648W        W94639  10.782  15.280   8.984 -0.0755  0.1280 -0.1885
51649W        W94640  33.690   4.804   1.831 -0.0197 -0.1570 -0.0057
51650W        W94641  10.572   3.178   7.758 -0.1504  0.1426 -0.0493
51651W        W94642   0.107   8.886   7.191 -0.0905  0.1910  0.0351
51652W        W94643  15.408  15.540   9.231 -0.0266 -0.1945  0.0828
51653W        W94644  24.414  11.007   7.057  0.0608  0.1109  0.3484
51654W        W94645  26.050  31.178   5.760  0.1004 -0.1672  0.3611
51655W        W94646   6.832  17.575   5.390 -0.0530  0.0378  0.0527
51656W        W94647  32.160  16.513   2.562 -0.0935 -0.0395 -0.0380
51657W        W94648   0.375  29.562   7.141  0.1856 -0.1440 -0.0059
51658W        W94649   5.235  26.345  22.270  0.1491  0.2320 -0.0335
51659W        W94650  12.694  20.405  14.344 -0.1891  0.0319  0.0123
51660W        W94651   1.253  16.490  19.834  0.1531  0.0650 -0.2567
51661W        W94652   5.404  27.782   1.576 -0.1081 -0.4184  0.1630
51662W        W94653  26.600  34.702  24.825 -0.0026 -0.0222 -0.1574
51663W        W94654   3.341  32.639  24.514 -0.0707  0.0836  0.0823
51664W        W94655  22.830  13.697  23.930  0.2029  0.0416  0.2152
51665W        W94656   9.714  11.984  19.895  0.2191  0.1159 -0.0578
51666W        W94657  16.767  30.956  23.661  0.1734  0.0479 -0.0062
51667W        W94658  33.073  20.673  24.584 -0.1468 -0.0384  0.2659
51668W        W94659  34.214  19.466  25.019  0.1152  0.0161 -0.1915
51669W        W94660  21.288   0.096  19.888 -0.3494  0.0349  0.0981
51670W        W94661  30.288  21.164  14.875 -0.1721  0.0118  0.0026
51671W        W94662  32.108   3.333  25.539 -0.1400  0.0959 -0.2201
51672W        W94663  10.173   2.940  28.746 -0.1081 -0.0619  0.1355
51673W        W94664  18.950  24.462  17.587  0.0916  0.0754 -0.1346
51674W        W94665   5.690  30.124  16.133  0.0774  0.0646 -0.0358
51675W        W94666  24.960  31.607  14.242 -0.1138 -0.0430 -0.0181
51676W        W94667  32.568  25.706  21.876  0.1500  0.1275  0.3167
51677W        W94668   2.792  27.311  23.168 -0.2686  0.0166  0.0475
51678W        W94669  33.762  13.787  10.645  0.0559 -0.1784 -0.0196
51679W        W94670  11.285  19.438  21.319 -0.0938  0.1711  0.2529
51680W        W94671  32.091  21.696  26.801 -0.2037 -0.3065 -0.3756
51681W        W94672  33.444  28.792  26.918  0.1723 -0.0868  0.2029
51682W        W94673  32.846  22.921  20.871 -0.1156  0.0299 -0.1367
51683W        W94674  26.008   1.291  14.230  0.0087  0.0280 -0.1696
51684W        W94675  23.218  27.189  23.217  0.2926  0.0932  0.2475
51685W        W94676   4.144  31.986  20.153  0.0284 -0.3991  0.2191
51686W        W94677  31.511  14.819  15.072  0.1640  0.2691 -0.0897
51687W        W94678   6.150  23.622  17.366 -0.2519 -0.4227 -0.0072
51688W        W94679   2.507  23.622  18.680  0.1357  0.1136 -0.2358
51689W        W94680   1.333   1.316  14.764 -0.1158 -0.0792  0.0130
51690W        W94681  21.575  20.641   0.110 -0.2516  0.2547  0.2297
51691W        W94682   5.745  33.895  20.174  0.0435 -0.0389 -0.3091
51692W        W94683  23.776  30.361  17.069 -0.0017 -0.0671 -0.0774
51693W        W94684  33.788  29.379  14.391 -0.0791 -0.1061 -0.0073
51694W        W94685  17.144   2.359  28.706 -0.2852  0.0517  0.0226
51695W        W94686  29.298   0.672  18.469  0.0104 -0.1815 -0.2480
51696W        W94687  24.334  20.817   7.218  0.2206 -0.1860 -0.0013
51697W        W94688   5.264  20.659  21.083 -0.0045  0.2066 -0.2121
51698W        W94689  22.580   1.144  20.714 -0.1917  0.0767 -0.0186
51699W        W94690  27.318  13.507  14.128  0.0796 -0.1002 -0.2097
51700W        W94691   7.695  14.829  17.703  0.0042 -0.0419  0.2775
51701W        W94692   3.139   9.632  23.049  0.3234  0.2168  0.2825
51702W        W94693  24.137   5.490  24.190 -0.0868  0.1881 -0.1991
51703W        W94694  29.248  19.875  24.194 -0.1850 -0.0401 -0.1759
51704W        W94695  29.752  21.828  16.987 -0.0744  0.2237  0.4042
51705W        W94696  27.075  25.021  20.629 -0.0544  0.0461  0.1011
51706W        W94697   9.251  34.336  16.309 -0.0350  0.0555 -0.4500
51707W        W94698  31.570  21.469   0.772 -0.2317  0.2704  0.3271
51708W        W94699   2.596  21.538  21.221 -0.1770 -0.0780 -0.1807
51709W        W94700   0.268  27.882  13.925 -0.0571  0.1530 -0.0825
51710W        W94701  32.739  23.181  15.208 -0.0512 -0.0259  0.0872
51711W        W94702  25.548   4.143  14.126  0.5691  0.1602 -0.0316
51712W        W94703  34.007  15.197  24.813 -0.0201 -0.1616 -0.2083
51713W        W94704   0.534  17.687  26.859  0.0788 -0.1617 -0.0609
51714W        W94705  23.128  22.449  21.483 -0.0504 -0.1885  0.0028
51715W        W94706  22.391  16.506  22.329 -0.1465 -0.0991  0.0100
51716W        W94707  29.385   6.379  27.976 -0.0009  0.1531 -0.0793
51717W        W94708  18.918  25.652  14.189  0.1315  0.3915  0.1594
51718W        W94709  17.235  13.440  17.445 -0.0621 -0.0440 -0.0444
51719W        W94710  17.811  20.740   4.094  0.2357  0.2183 -0.1142
51720W        W94711  24.568  28.329  21.103  0.0464 -0.2709 -0.1923
51721W        W94712   4.151  21.487   1.694 -0.3605 -0.1949  0.1899
51722W        W94713  15.200  18.619  15.146 -0.2794 -0.2104  0.4422
51723W        W94714   3.295  14.770   5.178  0.0932  0.0278  0.1917
51724W        W94715  34.129   0.793   1.307  0.1360 -0.2138  0.0742
51725W        W94716  28.508  25.540  16.634  0.1664  0.0921  0.0937
51726W        W94717  26.954   9.102  28.596 -0.0920  0.0656 -0.0705
51727W        W94718  26.863  22.305  15.625 -0.2563 -0.0491 -0.0094
51728W        W94719  30.333  26.827  13.393  0.0455  0.0790 -0.0088
51729W        W94720  19.261   3.345  13.276  0.3904 -0.1230 -0.2015
51730W        W94721   0.314  29.574  15.796 -0.0629 -0.0986  0.1327
51731W        W94722  30.106  18.616  17.671 -0.0239  0.3117 -0.1577
51732W        W94723  30.869  29.911  14.247 -0.2694  0.0411  0.2675
51733W        W94724  31.774   0.902  14.700 -0.0789 -0.0057  0.3135
51734W        W94725  30.651  28.663  19.892 -0.0378 -0.2500  0.0195
51735W        W94726   6.156   2.559  28.270 -0.1929  0.0156 -0.1120
51736W        W94727   5.557   5.371  20.149  0.2278  0.1413 -0.0248
51737W        W94728   9.453   1.707  28.232 -0.0765 -0.1168 -0.0114
51738W        W94729   3.913  12.468  21.542  0.4747 -0.2379  0.0757
51739W        W94730  15.843  10.062  25.328  0.1172  0.1618 -0.2489
51740W        W94731   3.869  32.476  19.681 -0.1348  0.4035 -0.0761
51741W        W94732   4.560  22.572  22.320 -0.1141  0.0606  0.1512
51742W        W94733  33.883  27.408  20.051  0.4498  0.0342  0.2214
51743W        W94734  26.714  23.109  20.632  0.2678  0.1585 -0.3058
51744W        W94735  13.974  33.046  18.603  0.0987  0.2128 -0.0706
51745W        W94736   4.338  18.190  28.239  0.1542 -0.3319  0.0852
51746W        W94737  12.638   4.164   2.823 -0.0655  0.1531 -0.2171
51747W        W94738  17.210  28.643  20.375 -0.1681  0.2167  0.4091
51748W        W94739   7.914  22.860  17.173 -0.0710  0.0895  0.2279
51749W        W94740   9.067   3.716  23.572 -0.0596 -0.1778  0.0931
51750W        W94741  33.576   2.946  24.558 -0.0071 -0.1625  0.2260
51751W        W94742  27.958   7.603  18.649  0.1589 -0.3412  0.0163
51752W        W94743  33.921   0.942  15.987  0.1680 -0.0652  0.1720
51753W        W94744   0.869  32.633  21.937  0.3308  0.0660  0.3480
51754W        W94745  11.488  22.254  16.504  0.3275  0.0365  0.1440
51755W        W94746  33.185   3.708  23.045 -0.3619  0.1418  0.1737
51756W        W94747   4.466   7.331  19.121  0.3110 -0.1973  0.1518
51757W        W94748  23.410  16.329  14.235  0.1717  0.2115  0.1487
51758W        W94749  21.803  25.548  18.221 -0.0731 -0.1740  0.2160
51759W        W94750   4.858  23.631  18.428 -0.1810  0.1162 -0.0042
51760W        W94751   7.364  31.635  18.495  0.0776 -0.0319 -0.1525
51761W        W94752  27.568  17.943  16.541 -0.0090  0.0669  0.2480
51762W        W94753  29.627  20.267  16.598  0.0565  0.1004  0.1531
51763W        W94754  34.619  12.803  18.749 -0.0568 -0.0308  0.3061
51764W        W94755   2.257  33.814  23.442 -0.0056 -0.2248 -0.2259
51765W        W94756  20.950  17.252   4.512 -0.0587  0.0096  0.1765
51766W        W94757  12.434   0.941  16.459  0.1874 -0.1318 -0.2320
51767W        W94758  25.532   0.457  20.015 -0.0658  0.0669 -0.0565
51768W        W94759  26.819  25.159  18.435 -0.0792  0.1259 -0.0158
51769W        W94760  30.419  20.267  27.675  0.1882  0.0810 -0.1363
51770W        W94761  21.783  32.876  18.698 -0.1733 -0.0232  0.4002
51771W        W94762  30.630  30.463  28.142  0.0612 -0.0422 -0.3305
51772W        W94763  32.494  25.104   3.591  0.0243 -0.0820 -0.0735
51773W        W94764  34.599  19.213  20.298  0.4008  0.3531  0.1151
51774W        W94765  27.081  14.443  20.068  0.0637 -0.0303  0.1235
51775W        W94766  11.740  29.515  26.200  0.1483 -0.4462  0.0667
51776W        W94767  18.581  28.138  27.814  0.2354  0.1554 -0.2464
51777W        W94768   9.421  26.936  27.215  0.0202  0.3518  0.3007
51778W        W94769  25.935  23.962  15.100 -0.1039  0.2552 -0.2390
51779W        W94770  30.942   1.445  23.470  0.3754  0.0035  0.2261
51780W        W94771   9.886  20.077  14.923 -0.0293 -0.2400  0.0403
51781W        W94772  14.291   3.678  16.276  0.0952 -0.2714 -0.1404
51782W        W94773   4.482  25.659   0.656  0.0865 -0.3577  0.0842
51783W        W94774  30.255  28.142  16.246  0.0625 -0.0140  0.0890
51784W        W94775  20.392  20.386  28.961 -0.1071 -0.0270 -0.3390
51785W        W94776   1.445   8.698  20.455 -0.1251 -0.0233  0.3360
51786W        W94777  34.650  33.409   0.181  0.0248  0.2662 -0.2329
51787W        W94778   0.267  29.000   9.168 -0.0187 -0.0963 -0.0666
51788W        W94779  19.846  30.029  14.550  0.2483  0.2914 -0.3081
51789W        W94780  31.759   9.170  28.298 -0.1428 -0.0112  0.0833
51790W        W94781  33.744  29.309  24.538 -0.0818  0.0772 -0.1068
51791W        W94782   1.039  18.238  18.608 -0.2271  0.1491  0.2056
51792W        W94783  12.596  23.920  21.576  0.1629 -0.0476 -0.1300
51793W        W94784   7.706  15.208  15.176 -0.0103 -0.2123  0.0881
51794W        W94785  10.019  27.095  18.499 -0.2211 -0.1008 -0.1867
51795W        W94786  26.825  18.993  28.757 -0.1168 -0.2980  0.0373
51796W        W94787  34.757  29.881  26.874  0.1412 -0.3162 -0.0699
51797W        W94788   9.023  31.050  26.838 -0.1470  0.0264 -0.4463
51798W        W94789   0.119  29.273  18.883  0.2305 -0.0054  0.1661
51799W        W94790  15.190  26.971   2.389  0.0421 -0.0831  0.1669
51800W        W94791  27.918  25.136  14.155  0.0550  0.2542  0.0596
51801W        W94792  30.428   6.343  22.626  0.1383  0.1564 -0.1439
51802W        W94793   1.891  13.937  22.118 -0.3783  0.2426 -0.2139
51803W        W94794  34.541  32.197  17.956  0.2432 -0.2733  0.1224
51804W        W94795   2.475   7.124  19.256 -0.1390  0.0195  0.3310
51805W        W94796  32.367  20.208  18.868 -0.0615  0.0439  0.0970
51806W        W94797  31.319   6.320  17.076 -0.1301  0.1591  0.0385
51807W        W94798   8.134  33.506  18.680 -0.2501  0.2230 -0.0607
51808W        W94799  28.402  26.063  19.717  0.1394  0.1566  0.1886
51809W        W94800  32.234   3.740  23.403  0.0167  0.3082  0.1417
51810W        W94801  27.773  23.289  22.977 -0.0624 -0.0873  0.0004
51811W        W94802  31.409   9.948  21.971  0.1997  0.3047 -0.2999
51812W        W94803  13.824  21.223   4.816 -0.2254 -0.1048  0.2131
51813W        W94804  26.105  11.296  14.202  0.0608 -0.0302  0.1441
51814W        W94805  29.446  29.688  20.857  0.0860 -0.4336  0.0267
51815W        W94806  33.838  18.706  17.496 -0.0115 -0.0249 -0.0057
51816W        W94807  26.885  19.494  25.506 -0.0657  0.1148  0.1126
51817W        W94808  25.097  31.013  14.656 -0.0268  0.1081 -0.1703
51818W        W94809   0.348  14.885  23.447  0.2624  0.1038 -0.2650
51819W        W94810  13.723  29.064   1.947 -0.2085 -0.0359  0.0620
51820W        W94811   1.855  19.874  14.592 -0.3821 -0.2277 -0.0428
51821W        W94812   0.896  32.454  20.480 -0.2547 -0.2055 -0.1358
51822W        W94813  28.022  19.217  15.164  0.3048  0.3150 -0.0597
51823W        W94814  12.475   4.209  20.251 -0.0122 -0.3188 -0.1636
51824W        W94815   3.892  24.698  27.610  0.1131  0.2363  0.1950
51825W        W94816   3.331  11.377  22.307 -0.1459  0.1365  0.4396
51826W        W94817  28.981  19.088   2.957 -0.0719  0.1629  0.0934
51827W        W94818  28.376  23.650  20.599  0.1934  0.4340  0.4001
51828W        W94819  22.048  20.388  16.979  0.1446 -0.0377  0.3307
51829W        W94820  31.892  29.459  18.407  0.2058 -0.0995  0.2653
51830W        W94821   1.329  12.633  23.885  0.2078  0.0860 -0.1687
51831W        W94822   8.409  14.567  24.779  0.2175 -0.2868  0.1100
51832W        W94823   8.994   2.390  26.319 -0.0236 -0.0936 -0.0095
51833W        W94824   1.450  18.616  15.617  0.1616 -0.4250 -0.1862
51834W        W94825   5.991  10.812  29.190  0.1744  0.0113  0.3035
51835W        W94826  28.747  18.224  27.758 -0.0862 -0.4043 -0.2176
51836W        W94827  33.729  15.364   8.300  0.1102 -0.0360  0.0130
51837W        W94828   7.075  10.643  21.548  0.1749 -0.0696  0.3536
51838W        W94829  26.626  20.340  22.571  0.2850  0.1221 -0.2813
51839W        W94830   2.769  21.806  15.956 -0.2623 -0.2942  0.2281
51840W        W94831  27.867  13.457  22.720 -0.0659  0.0616 -0.6465
51841W        W94832  30.131  23.506  21.759  0.0946 -0.3196 -0.2433
51842W        W94833  22.901  27.756  19.030  0.1746  0.2371  0.0418
51843W        W94834  14.271  25.201  20.911 -0.2587 -0.0397  0.1310
51844W        W94835  27.317  30.575  20.042 -0.0997 -0.0054  0.2081
51845W        W94836   1.925  30.520  19.045  0.2230 -0.1360  0.1158
51846W        W94837   0.303  11.939  23.747 -0.2669  0.2589 -0.0425
51847W        W94838  12.146   0.221  18.087  0.2098 -0.1407 -0.0202
51848W        W94839  32.228  23.947  19.811  0.2319  0.0257  0.1594
51849W        W94840  34.622  20.425  22.789 -0.1176 -0.1277 -0.3192
51850W        W94841  23.331  22.405  27.211  0.1702  0.0629  0.1297
51851W        W94842  26.281   8.581  28.344 -0.0262 -0.1653  0.0718
51852W        W94843  34.779  29.367  29.227  0.3545 -0.0810 -0.1142
51853W        W94844  32.636  19.635  14.697  0.0381 -0.0494 -0.0972
51854W        W94845  29.636   8.278  15.518 -0.2184  0.2476 -0.2550
51855W        W94846  13.321  21.484  13.378 -0.2041 -0.2088  0.0203
51856W        W94847   9.822  25.061  16.056  0.3284  0.0534  0.3016
51857W        W94848  31.275  23.952  24.301 -0.3746  0.0248 -0.1122
51858W        W94849  25.421  22.301  24.808  0.1619  0.0245 -0.1486
51859W        W94850  22.937   6.606  18.413  0.2337 -0.0187 -0.0938
51860W        W94851   5.687  19.135  18.634 -0.3991 -0.2178 -0.2644
51861W        W94852  26.602   4.505  24.318 -0.0822 -0.1177  0.2313
51862W        W94853  32.240  18.389  19.665  0.2247  0.2352 -0.2376
51863W        W94854   6.954  15.746  26.576  0.2424  0.2633  0.0189
51864W        W94855  20.553  14.790  15.270  0.2650 -0.1649  0.1206
51865W        W94856  29.436  28.853  22.509 -0.1910  0.2263 -0.2038
51866W        W94857   1.235   8.979   6.903 -0.0200 -0.1154 -0.2872
51867W        W94858   0.568  32.176  21.000 -0.1066 -0.1151  0.3995
51868W        W94859  29.835  11.647  21.041 -0.2333  0.0452  0.1767
51869W        W94860  29.389  24.531  28.248 -0.2060 -0.0237 -0.0155
51870W        W94861  33.191  20.658  27.337  0.0024 -0.0180  0.3008
51871W        W94862  13.924   5.005  15.988 -0.2285 -0.2273 -0.0520
51872W        W94863   0.080  15.395  21.293  0.0413  0.2719  0.3044
51873W        W94864  32.515  17.512  24.869  0.2082  0.1785  0.1990
51874W        W94865  28.845   3.262  19.084 -0.4058 -0.1493 -0.2241
51875W        W94866  25.690  24.269   3.111  0.1213 -0.0835  0.1247
51876W        W94867  33.176   3.429  16.648 -0.0607 -0.2714 -0.1416
51877W        W94868  27.832  31.984  25.259 -0.1268  0.1612 -0.1587
51878W        W94869  16.254  13.658  19.626 -0.1815 -0.2643  0.1335
51879W        W94870  16.544  10.551  25.303  0.0983 -0.2270  0.1783
51880W        W94871   4.669   9.506   2.816 -0.1392  0.3395 -0.0354
51881W        W94872  27.291  20.229  15.924  0.0996  0.1096 -0.0441
51882W        W94873  20.270  33.281  24.926 -0.0815 -0.1495  0.3173
51883W        W94874  13.044  25.704  19.006 -0.0213  0.0908 -0.0271
51884W        W94875   1.351  21.893  16.863 -0.0381  0.1163 -0.0465
51885W        W94876  12.699  17.199  24.002  0.1420 -0.2774 -0.0736
51886W        W94877  30.971   1.748  22.365 -0.1915 -0.3404 -0.4512
51887W        W94878  27.156  16.646  16.352  0.0784  0.0914  0.0269
51888W        W94879   4.966   7.026  15.253  0.1232  0.2351  0.0533
51889W        W94880  33.939  26.230  23.224  0.4540  0.0496  0.0676
51890W        W94881  31.707  26.844  19.489 -0.1516 -0.1030  0.1986
51891W        W94882   1.482  18.347  21.021 -0.4625 -0.2194  0.0601
51892W        W94883  24.604  25.318  25.688  0.0920  0.0864 -0.0411
51893W        W94884  32.839  29.351  20.063  0.0805  0.0537 -0.1115
51894W        W94885  34.293  27.793   1.492 -0.3452 -0.1292 -0.2235
51895W        W94886   2.517  17.672  15.368 -0.3592 -0.0281 -0.1575
51896W        W94887  24.942  20.996  20.734 -0.0453 -0.1728 -0.1836
51897W        W94888  26.676  18.897  19.263 -0.2881  0.0525  0.1729
51898W        W94889   2.366  10.180  25.978  0.0104 -0.1684  0.1237
51899W        W94890  26.884  25.190  23.805 -0.1180  0.1722 -0.0554
51900W        W94891   4.208   2.057   5.539  0.2258  0.4108 -0.0130
51901W        W94892  13.279  27.405  27.882  0.0260 -0.2092  0.0754
51902W        W94893  24.886  24.407  23.589  0.2472 -0.0238 -0.1609
51903W        W94894   0.797  11.536  25.651  0.0672 -0.2197  0.2053
51904W        W94895  12.546  22.950  17.392 -0.3942  0.1057  0.1878
51905W        W94896  20.665  28.988  14.731 -0.0568 -0.2346  0.0981
51906W        W94897   2.456  26.525  20.195  0.1913  0.2697 -0.4523
51907W        W94898  32.222  25.637  20.525 -0.2973 -0.1169  0.0559
51908W        W94899  26.312   9.510   0.617 -0.2375  0.0262 -0.1312
51909W        W94900  22.488  33.188  14.117  0.2753 -0.1076  0.3922
51910W        W94901  15.763  22.436  21.413  0.2394 -0.1738  0.1704
51911W        W94902   3.871  26.922   3.575 -0.0985 -0.0996 -0.1965
51912W        W94903  32.279   9.157  22.800  0.1508  0.1367 -0.1454
51913W        W94904   5.363  23.225  20.415  0.2602 -0.0491 -0.3129
51914W        W94905  24.415  30.969  17.445  0.1284  0.0750  0.1101
51915W        W94906   8.129  18.303  20.057  0.2365 -0.0043 -0.4048
51916W        W94907  29.107  25.434   3.424  0.0766  0.2174  0.2018
51917W        W94908   0.844   1.642  18.078  0.0813  0.1709 -0.3029
51918W        W94909  28.790  27.005  14.021  0.0465  0.1533  0.2344
51919W        W94910  11.306  17.397  22.492 -0.1510 -0.0198  0.3284
51920W        W94911   1.552  14.573  26.026  0.2179  0.0951  0.1792
51921W        W94912   1.732   9.169  25.470 -0.1378 -0.1278 -0.1319
51922W        W94913  14.874   9.851  18.570  0.1259  0.1109  0.4616
51923W        W94914  23.662  22.658   9.311  0.0634 -0.0329 -0.3755
51924W        W94915  16.083  30.760  16.287 -0.2255  0.0491  0.1368
51925W        W94916  33.411  20.348  26.464 -0.0014 -0.0899 -0.0327
51926W        W94917  18.607  16.584  12.376  0.0121  0.0033 -0.3021
51927W        W94918  33.686  19.070   4.729  0.0504  0.0406 -0.0153
51928W        W94919   3.854  13.855   1.887  0.1683  0.0301  0.1535
51929W        W94920  29.986   5.137  21.965 -0.0512 -0.0162 -0.0248
51930W        W94921  12.255  21.067  25.431  0.1606  0.3234  0.0013
51931W        W94922  11.980   9.680  16.044  0.2197 -0.0012  0.0868
51932W        W94923  29.334  27.645   8.521  0.0796  0.0303  0.1368
51933W        W94924  20.911  30.289  18.529  0.1170  0.1939 -0.0275
51934W        W94925  31.623  27.959  21.271  0.4106 -0.0072 -0.1687
51935W        W94926  24.878  27.164  25.580 -0.0584 -0.0027 -0.2332
51936W        W94927  14.477  11.945  17.888 -0.4376  0.0228 -0.0396
51937W        W94928  12.819  31.295  22.157  0.1982 -0.0490 -0.2316
51938W        W94929  17.777  33.671  19.993  0.1418  0.1536 -0.0014
51939W        W94930  16.303  11.440  22.310  0.5652  0.1734  0.1780
51940W        W94931  30.150  28.751  14.215  0.1803 -0.2374  0.2322
51941W        W94932   4.804   8.177  24.795  0.1298 -0.0629  0.1335
51942W        W94933   9.998  32.955  18.760  0.0070 -0.0785  0.0552
51943W        W94934  26.703  33.501  20.044  0.1544 -0.1442 -0.1648
51944W        W94935  25.801  10.810  25.872 -0.0750 -0.1666  0.1337
51945W        W94936   6.722   3.565  25.284 -0.0695  0.0870 -0.1646
51946W        W94937  25.276  20.574   6.825  0.1425 -0.0303  0.0084
51947W        W94938  26.223  31.430  18.838  0.1853 -0.1939 -0.0530
51948W        W94939  28.367  20.475  24.652  0.3224 -0.1659  0.0910
51949W        W94940  27.540  29.970  19.412 -0.1896 -0.1630  0.1830
51950W        W94941  23.900  27.089  15.611  0.0112 -0.0675  0.0386
51951W        W94942  25.681  32.740   1.301  0.2674 -0.1308  0.1718
51952W        W94943  16.901  29.849  20.314 -0.1492  0.1494  0.0192
51953W        W94944  12.925  29.895   8.111 -0.1387 -0.2691  0.1240
51954W        W94945  28.295  13.977  26.314 -0.1793 -0.0636 -0.1054
51955W        W94946  24.362  31.970  15.868 -0.1335 -0.2167 -0.1375
51956W        W94947  29.997  17.889  19.368 -0.1516  0.1374 -0.2951
51957W        W94948   9.555   1.844  17.342 -0.2048  0.2749 -0.1179
51958W        W94949  24.481  14.989  15.725 -0.0250  0.1996 -0.2311
51959W        W94950   5.608   2.630  21.921  0.1605 -0.1552  0.1287
51960W        W94951   8.118  19.135   2.467  0.0517  0.0970  0.2058
51961W        W94952   8.244  14.764  22.197 -0.2797  0.0972  0.2091
51962W        W94953  26.375  20.943   2.330 -0.0418  0.2944  0.1616
51963W        W94954  22.862  24.935  13.156 -0.1084 -0.2498  0.2556
51964W        W94955  19.094  34.160  13.772  0.0517  0.0998 -0.1292
51965W        W94956  33.559  17.595  20.411 -0.0142  0.0011  0.2909
51966W        W94957  21.584  21.748   1.531  0.0928 -0.1896 -0.0541
51967W        W94958  29.706  12.528   4.659 -0.0561 -0.1292  0.2438
51968W        W94959  24.645  16.074  15.096  0.1465  0.0031 -0.0594
51969W        W94960  21.346  22.272  18.953 -0.2014 -0.0973 -0.0544
51970W        W94961  34.024  27.239  17.757  0.0836 -0.5366 -0.0958
51971W        W94962  20.773   1.862  18.147  0.0356  0.0693  0.0545
51972W        W94963  33.872  24.674  26.205 -0.0108  0.2108  0.0050
51973W        W94964  32.025   7.328  24.809 -0.0826 -0.2887 -0.1861
51974W        W94965  31.496  30.204   4.379 -0.1873 -0.2930 -0.0946
51975W        W94966  24.225  15.806  24.488 -0.3692 -0.0019 -0.1152
51976W        W94967  32.078  25.770  25.820  0.1785 -0.0012  0.0457
51977W        W94968  25.802  26.910  15.708 -0.1502 -0.1229 -0.0527
51978W        W94969  26.264   1.980  15.775 -0.1391 -0.1178  0.0201
51979W        W94970  32.718  11.774  14.787  0.0915 -0.0044  0.2915
51980W        W94971   4.256  28.804  18.595  0.0218  0.0406 -0.2969
51981W        W94972  11.765  30.945   3.475  0.0854 -0.1484 -0.5128
51982W        W94973  13.842  10.369  16.139  0.0639 -0.1586 -0.0030
51983W        W94974  33.458  29.124  13.104  0.1881  0.0017 -0.0804
51984W        W94975  23.996  12.404  29.190  0.0002 -0.3353  0.0150
51985W        W94976   0.643   2.788   3.962 -0.2296 -0.2863 -0.2051
51986W        W94977   4.639   0.141  26.822 -0.1326  0.0661 -0.2501
51987W        W94978  18.115  18.082  25.410 -0.2082  0.5053 -0.2033
51988W        W94979  20.078  25.412  18.644  0.1100 -0.0306 -0.2695
51989W        W94980   5.755  19.495  16.051 -0.0188 -0.1207  0.3840
51990W        W94981   0.866   1.237  27.851 -0.4071  0.0357 -0.0061
51991W        W94982  21.996  23.921   4.905  0.0106 -0.1839  0.1289
51992W        W94983  20.961  25.864   5.432 -0.1942  0.1065 -0.0665
51993W        W94984  26.764  29.826   2.587 -0.2725  0.0853  0.1313
51994W        W94985  28.282   0.393  21.396 -0.0331 -0.3595 -0.0648
51995W        W94986  16.507  24.882  16.241  0.1539 -0.3619 -0.0894
51996W        W94987   6.143  27.884  19.855 -0.2987  0.3054 -0.1824
51997W        W94988  26.333  23.052  13.427  0.2413  0.0560 -0.0236
51998W        W94989  32.560  33.846  19.879  0.0018  0.2353  0.0403
51999W        W94990  29.549  16.847  26.122 -0.0126  0.0495 -0.2046
52000W        W94991  23.417   3.850  25.674 -0.0004  0.0032  0.0298
52001W        W94992   0.142  27.781  26.703  0.1609  0.1330  0.0067
52002W        W94993   4.471  11.194  22.639  0.0220 -0.1028  0.1914
52003W        W94994   3.439  18.111  27.325 -0.1459  0.0011  0.0865
52004W        W94995   6.018  26.536  16.974  0.0761  0.1620 -0.0591
52005W        W94996  34.073  27.119  14.146  0.1215  0.0126  0.2526
52006W        W94997  26.008   9.429  22.385 -0.0288  0.3915 -0.0165
52007W        W94998   2.088   5.793  19.802 -0.0785 -0.1697  0.2481
52008W        W94999   9.768   0.358   5.586 -0.5360 -0.0301 -0.0097
52009W        W95000  33.959  24.691  13.881  0.2268 -0.0696  0.1373
52010W        W95001  31.499  19.402  17.373 -0.0647 -0.1652  0.3495
52011W        W95002   1.785  14.954  21.966 -0.0478  0.0296 -0.0990
52012W        W95003  30.940   9.306  17.747  0.1437 -0.3789  0.4709
52013W        W95004  25.995  17.669  16.048  0.0795 -0.0588  0.1758
52014W        W95005  31.336   7.059  14.995 -0.0148  0.1943 -0.0338
52015W        W95006   7.968  25.844  14.612 -0.2357  0.0424 -0.2072
52016W        W95007  11.775  30.370  18.019 -0.1575 -0.0988  0.1570
52017W        W95008   4.295  25.491  24.006  0.0784  0.1815  0.2163
52018W        W95009  17.893  27.702  21.493 -0.1363 -0.3012  0.4058
52019W        W95010   0.064  29.505  16.329 -0.4334  0.2301  0.0598
52020W        W95011   5.946  25.993  16.008  0.0936 -0.0881  0.2167
52021W        W95012   1.007  13.745  18.736 -0.0168  0.1548 -0.0044
52022W        W95013  34.517  16.109  15.155 -0.1144  0.0776  0.2020
52023W        W95014  27.771  25.187   1.156  0.0246  0.0633  0.0341
52024W        W95015  24.686   8.887  23.483 -0.0720  0.1948 -0.1118
52025W        W95016   1.511  12.059   2.413 -0.1299 -0.1201 -0.1252
52026W        W95017  19.118  13.187  14.664  0.0248 -0.1200 -0.1931
52027W        W95018   5.778  15.006  27.961  0.1407  0.1090 -0.1915
52028W        W95019  25.716   1.207  24.296 -0.1866 -0.2304 -0.3314
52029W        W95020  10.652   4.374  23.209  0.3099  0.2280 -0.1031
52030W        W95021   8.878  32.354  15.358  0.0356  0.2770 -0.0688
52031W        W95022  18.134   1.967  20.919  0.4670  0.4416 -0.0109
52032W        W95023  30.963  10.005  15.612  0.1931 -0.1064 -0.3873
52033W        W95024  31.851  26.232  26.413 -0.0133  0.3485  0.2576
52034W        W95025  26.326  17.411   0.488  0.2156  0.0809 -0.3669
52035W        W95026  12.638  19.360  19.700 -0.3904  0.0289  0.1617
52036W        W95027  31.728   1.992  19.504 -0.0866 -0.0745  0.2969
52037W        W95028  27.024  27.257  22.703  0.2828  0.0242  0.4038
52038W        W95029   4.833  34.113  18.470  0.1334  0.1279  0.0014
52039W        W95030  34.593  17.774  20.099  0.2441  0.0408  0.0982
52040W        W95031  31.445  33.078  14.251  0.1332  0.0679  0.1934
52041W        W95032  21.955  30.490  14.960 -0.3728  0.2174 -0.1803
52042W        W95033  31.016  16.977  19.585 -0.1209  0.1602  0.1341
52043W        W95034  11.044   9.992  28.903  0.1559 -0.0955 -0.4939
52044W        W95035   0.002  28.971   0.300 -0.1329  0.4350  0.0109
52045W        W95036   6.908   0.350  15.830 -0.0767  0.0769  0.1879
52046W        W95037  18.144  30.635  25.115 -0.0633  0.4242  0.2310
52047W        W95038  24.800   1.894  14.581 -0.0626 -0.0766  0.2714
52048W        W95039  23.220  22.499  24.672 -0.0503  0.5252  0.0743
52049W        W95040  20.819  33.226  17.972 -0.1427  0.1838 -0.0978
52050W        W95041  30.125  28.939  15.220 -0.3051 -0.1403  0.1754
52051W        W95042  29.394  32.036  13.297  0.2554 -0.2798  0.0836
52052W        W95043  32.181  16.728  27.138  0.4078  0.0148 -0.0014
52053W        W95044   1.691  17.776   4.473 -0.2602 -0.0498 -0.0899
52054W        W95045  23.420  16.162  19.412  0.1452 -0.0167  0.0746
52055W        W95046   6.643  11.517  19.851  0.1401 -0.4776 -0.0776
52056W        W95047   7.299  18.633  20.237 -0.0431 -0.1592 -0.0802
52057W        W95048  27.726  25.667  27.392  0.1514 -0.0741 -0.2278
52058W        W95049  27.781   7.345   3.634 -0.0710  0.0375 -0.0968
52059W        W95050  11.842  22.486  27.780 -0.2651  0.2955 -0.3336
52060W        W95051   1.126  23.186  22.288 -0.0257 -0.3442 -0.1280
52061W        W95052   1.543   5.071  24.704 -0.0191  0.2369  0.2171
52062W        W95053  28.980  21.909   6.328 -0.3508  0.3826 -0.3605
52063W        W95054   4.654   8.323  23.827 -0.1824 -0.0098  0.0962
52064W        W95055   2.097  21.261  16.163  0.0268 -0.1132  0.0015
52065W        W95056  29.354  24.077  14.194 -0.0613 -0.1863  0.0974
52066W        W95057   9.332  19.639  18.544  0.1815  0.0880  0.2741
52067W        W95058  12.317  23.577   2.298 -0.3089 -0.1941 -0.1161
52068W        W95059  33.896  10.971  20.114  0.1395 -0.0103 -0.0424
52069W        W95060   5.331  34.243  24.723  0.1196  0.1662 -0.3705
52070W        W95061   6.676  20.000  21.222 -0.0952  0.1194 -0.3226
52071W        W95062  33.037  18.800  24.415  0.1649 -0.3082  0.3601
52072W        W95063  33.788  17.426  27.228 -0.1829 -0.2235  0.2520
52073W        W95064   0.925  29.257  15.408  0.3757  0.0734 -0.1301
52074W        W95065  20.567  25.674  22.531 -0.1485  0.2001  0.4529
52075W        W95066   6.003  29.471  20.960 -0.2144  0.2115 -0.0047
52076W        W95067  19.320  30.233   1.391 -0.0928 -0.2149 -0.3102
52077W        W95068  15.340  15.735  22.979 -0.0664  0.1282 -0.0369
52078W        W95069  19.723  31.171   4.681 -0.0353 -0.2733  0.2580
52079W        W95070  26.638  27.613  26.749  0.3536 -0.1091  0.2244
52080W        W95071  23.422   1.879   3.004 -0.3042  0.1824 -0.1932
52081W        W95072  30.271  18.210  24.252  0.1836  0.0309 -0.3954
52082W        W95073  23.895   0.331  23.113  0.1224  0.0757 -0.2376
52083W        W95074  33.817  23.401  23.242 -0.1525  0.0801  0.0138
52084W        W95075   7.891  10.395  29.074 -0.0785  0.1514  0.2951
52085W        W95076  24.713  27.750  20.973 -0.0346 -0.0893  0.1505
52086W        W95077   1.072  33.862  24.931  0.3842  0.1296 -0.0383
52087W        W95078  29.886  21.588   1.956  0.1522  0.1523 -0.1434
52088W        W95079  23.253  34.526  25.274  0.0015 -0.2718 -0.0010
52089W        W95080  34.559  22.785  19.019  0.0244  0.0292 -0.2164
52090W        W95081   4.427  25.530  19.501 -0.1693  0.0349  0.3280
52091W        W95082   1.878  16.673  23.260 -0.0377  0.1185  0.1012
52092W        W95083  31.472  27.283  16.140  0.0987  0.1394  0.2496
52093W        W95084  28.028  19.286   6.015  0.1380 -0.0548  0.1100
52094W        W95085   3.038  14.570  26.527  0.0610  0.0747 -0.3141
52095W        W95086  29.176  31.565  25.735 -0.0641 -0.2415  0.0198
52096W        W95087  33.273  27.559  18.356 -0.1212  0.1935  0.2536
52097W        W95088   1.183   5.669   1.722  0.2586 -0.1690  0.0367
52098W        W95089  31.699  25.179  15.150 -0.0387 -0.1889 -0.2375
52099W        W95090  33.428  27.704  16.724 -0.0428  0.0351  0.0801
52100W        W95091   4.887   0.997  23.829 -0.2957 -0.0520 -0.1091
52101W        W95092  28.884  33.947  25.608 -0.0829  0.2639  0.2482
52102W        W95093  30.550  14.251  19.045  0.1666 -0.3753  0.1934
52103W        W95094   4.468  23.481   5.507 -0.0318  0.0791  0.5857
52104W        W95095  33.751  10.735  23.929 -0.0631  0.2768 -0.0791
52105W        W95096  25.156  23.239  16.537  0.2699 -0.1307 -0.0074
52106W        W95097   7.630  28.915  23.176  0.0943  0.1062 -0.2970
52107W        W95098  31.354  29.807   2.285  0.1576 -0.1023 -0.1143
52108W        W95099   5.483  11.441  23.447  0.0946 -0.0842  0.1899
52109W        W95100   8.026  15.695  20.143 -0.3589 -0.1272 -0.4742
52110W        W95101  21.917  23.261  14.024 -0.1742 -0.0408  0.2408
52111W        W95102   4.562  28.041   3.520 -0.1042  0.1668 -0.2138
52112W        W95103   7.891  23.447   1.989  0.1013  0.2301 -0.1702
52113W        W95104  28.991  23.622  27.214 -0.1625 -0.1927  0.1086
52114W        W95105   0.628  13.896  24.675 -0.0423 -0.0937  0.0818
52115W        W95106  31.311  17.919  25.470 -0.1032  0.2545  0.0888
52116W        W95107   3.607  10.170  27.404 -0.1743 -0.1156 -0.2175
52117W        W95108  30.807  20.099  26.058 -0.1728 -0.3569  0.3174
52118W        W95109   5.429   0.773  28.102  0.0730 -0.0890 -0.3727
52119W        W95110  19.354  20.894  14.943  0.1723 -0.1772  0.1906
52120W        W95111  24.583  16.534  17.899 -0.0812  0.1390  0.1726
52121W        W95112  23.911  11.507  15.832 -0.2348 -0.1694 -0.1965
52122W        W95113  25.155  15.843  15.000 -0.0304  0.0831 -0.0784
52123W        W95114  24.335  26.097  26.985 -0.0490  0.2400  0.0019
52124W        W95115   3.628  27.248  15.482  0.1137  0.0794 -0.3429
52125W        W95116  11.879  14.811  15.035 -0.3167  0.0179 -0.0080
52126W        W95117   0.229   4.170  18.046  0.1257  0.0342  0.0782
52127W        W95118  17.155  14.369  14.466  0.1905 -0.0085  0.1001
52128W        W95119  13.234  23.632  14.894 -0.2061 -0.2383 -0.1198
52129W        W95120   2.355  34.774   3.557  0.0125 -0.2351 -0.2111
52130W        W95121  32.665  33.557  17.231  0.0739 -0.0038  0.2203
52131W        W95122   9.528  17.332   6.671  0.2246  0.2036 -0.0839
52132W        W95123  27.886  31.926  15.198 -0.0556 -0.0335 -0.2532
52133W        W95124   2.412  17.839  24.334 -0.0656 -0.4432  0.0497
52134W        W95125   8.114   9.258  20.690  0.1405  0.0414 -0.0375
52135W        W95126   2.074  30.435   8.725  0.2080 -0.1615  0.1966
52136W        W95127   9.170   5.222  27.286 -0.2604 -0.3457  0.2038
52137W        W95128   7.306  32.351   9.225  0.3973  0.2810  0.1360
52138W        W95129  28.775  33.463  17.103 -0.0401 -0.2745 -0.2940
52139W        W95130  31.853  24.691   8.614 -0.3766 -0.0163 -0.1603
52140W        W95131  28.893  22.887  22.389 -0.2060 -0.0567 -0.0679
52141W        W95132   5.880   9.895  19.328  0.2779 -0.2102 -0.1105
52142W        W95133  10.547  33.823   1.899 -0.0460 -0.3116 -0.3027
52143W        W95134  25.315   7.233  15.255  0.4275 -0.0020  0.2874
52144W        W95135  11.886  32.876   0.028  0.2310  0.1610  0.1687
52145W        W95136  13.975  22.161  24.829 -0.0932  0.2104  0.1059
52146W        W95137   8.960  20.040   2.355 -0.2221 -0.1970 -0.2604
52147W        W95138  30.817  10.639  22.952 -0.4020  0.0151  0.1930
52148W        W95139  30.378  22.510  18.528  0.2307 -0.2965 -0.3101
52149W        W95140   5.027  10.682   3.345  0.2392 -0.0367  0.1267
52150W        W95141  12.355  20.796  13.459  0.1223 -0.0436 -0.3861
52151W        W95142   7.369  11.698  19.378 -0.2238 -0.3525  0.0778
52152W        W95143   5.508  26.212  16.823 -0.0148  0.1220  0.0627
52153W        W95144   0.051  14.024  22.946  0.2963  0.0633  0.1507
52154W        W95145   6.514  13.872  25.323 -0.0229 -0.2059 -0.2272
52155W        W95146  21.288  18.202  19.177 -0.0427 -0.2187 -0.1852
52156W        W95147   8.052  11.433   0.810  0.0468 -0.0733  0.2605
52157W        W95148  29.172  16.784  25.497  0.1476  0.2020  0.0212
52158W        W95149  18.213  32.194   0.161  0.1975 -0.0570 -0.1647
52159W        W95150   7.857   5.424   4.922 -0.0468  0.1573 -0.1222
52160W        W95151   6.570  21.038   1.420  0.1652  0.0639  0.2936
52161W        W95152  29.125  23.370  15.462  0.5121 -0.4126 -0.0500
52162W        W95153  27.251  15.505   7.278  0.1235  0.0808  0.2555
52163W        W95154   3.054   7.295   4.494 -0.0364  0.0730  0.0422
52164W        W95155   6.571  29.258  28.531  0.1505  0.1215 -0.1388
52165W        W95156   0.106  22.608  20.128  0.2534 -0.0629 -0.1407
52166W        W95157  29.898  10.335  17.095 -0.4112  0.0694  0.0796
52167W        W95158   6.476  24.636  15.183  0.0491  0.1713 -0.1140
52168W        W95159  14.818  26.701  15.015 -0.1036 -0.1959 -0.1512
52169W        W95160  30.896  24.754  26.664 -0.1526 -0.0805 -0.2603
52170W        W95161   3.645  21.500   3.191 -0.4646 -0.0183 -0.2551
52171W        W95162   0.910   2.251  18.563 -0.0104  0.2602 -0.6666
52172W        W95163  25.548  11.134  24.470 -0.1439 -0.0300  0.0046
52173W        W95164   1.529  23.940   0.005 -0.2344 -0.2126 -0.0678
52174W        W95165  24.447  29.554  23.690 -0.2013 -0.0204 -0.2975
52175W        W95166   4.711  33.178  19.574  0.1612  0.0379  0.2759
52176W        W95167   8.142  10.732   8.608  0.1562  0.1361 -0.1290
52177W        W95168  16.088  26.700  15.434 -0.0288  0.4877  0.1481
52178W        W95169   9.820  27.253  20.063 -0.1707  0.0985  0.1307
52179W        W95170   5.610  27.887  16.926  0.1735  0.2622  0.0700
52180W        W95171  28.704  28.244  16.072  0.1403  0.1750 -0.1552
52181W        W95172   7.082  20.593  21.002  0.0831 -0.2874 -0.4450
52182W        W95173  12.318  19.888   3.726  0.0984 -0.0279 -0.0426
52183W        W95174  25.458   8.677  28.465  0.0917  0.2445 -0.0687
52184W        W95175  17.501  22.390  18.476 -0.0488 -0.3192 -0.0642
52185W        W95176   8.669  20.742  20.953  0.1377  0.3303  0.0116
52186W        W95177   8.943  21.115   5.647  0.0779  0.0392  0.2608
52187W        W95178   1.056  26.633   0.328  0.0345  0.0762  0.0107
52188W        W95179   2.695  31.114   5.638  0.2204 -0.2231 -0.4573
52189W        W95180  31.593  26.391   7.708  0.2544 -0.0593  0.3262
52190W        W95181  33.928  25.333   1.686  0.0070 -0.1200  0.0266
52191W        W95182  16.264  23.582  21.334  0.0907 -0.0275 -0.0252
52192W        W95183  25.957   0.076  28.396  0.0772  0.0153 -0.0725
52193W        W95184  11.498  25.667   5.089 -0.1981  0.2322  0.0441
52194W        W95185   6.119   4.070  25.817 -0.0226  0.4673  0.2480
52195W        W95186   4.481   4.546  16.300  0.0022  0.0815 -0.1505
52196W        W95187  33.548  21.350   6.857 -0.1182  0.0471  0.1431
52197W        W95188  22.822  31.578  17.244  0.0167  0.2231  0.3886
52198W        W95189  32.956  26.456  28.908 -0.1478 -0.1982 -0.2674
52199W        W95190  17.177  21.440  16.572  0.1442 -0.2206 -0.3116
52200W        W95191  26.417  17.545  15.772  0.1709 -0.0302 -0.0126
52201W        W95192  30.421  31.103   0.734 -0.2067 -0.3478 -0.0667
52202W        W95193   4.853  15.447  27.898  0.1701  0.0080 -0.1224
52203W        W95194  29.021  21.075  24.895  0.0371  0.1466 -0.0516
52204W        W95195  33.320  21.893  15.806  0.2093  0.1507 -0.3637
52205W        W95196  24.043   0.012  17.612 -0.3224 -0.0593 -0.2255
52206W        W95197   4.829  30.484  16.903  0.0504 -0.1424  0.2658
52207W        W95198   5.944  18.571  28.542 -0.1420 -0.0735  0.0944
52208W        W95199   8.326  29.179  25.817  0.2721  0.3043 -0.0612
52209W        W95200  15.290  24.530   3.383  0.1210 -0.4001 -0.0266
52210W        W95201  25.610  18.724   1.238  0.0182  0.0348  0.0219
52211W        W95202   1.648  15.147   9.162 -0.1472 -0.1873  0.5288
52212W        W95203   0.225  31.133  24.707  0.0809 -0.1190 -0.0549
52213W        W95204  12.956  33.822  15.655 -0.1158 -0.0699 -0.2382
52214W        W95205  27.106  24.533  25.795 -0.0158  0.3065  0.3290
52215W        W95206   2.454  24.434   0.722  0.4260 -0.1377  0.1770
52216W        W95207   2.464  15.960   6.320  0.2134 -0.0492 -0.0539
52217W        W95208  22.972   0.722  16.976 -0.0987  0.1165 -0.0162
52218W        W95209  10.141  19.890  14.481 -0.5657 -0.0264 -0.3492
52219W        W95210  33.287  11.406  19.074  0.0432 -0.1689 -0.0657
52220W        W95211  29.330  33.891  14.766 -0.0339 -0.2631 -0.3346
52221W        W95212  31.534  29.826  16.011 -0.2795 -0.1319 -0.2698
52222W        W95213  19.999   1.349  16.984 -0.3772 -0.2327  0.1592
52223W        W95214  22.180  24.483  18.934 -0.1096  0.2900 -0.2115
52224W        W95215  23.202  31.695  19.775  0.0471 -0.1001  0.3788
52225W        W95216  26.799  15.707  19.638 -0.1572 -0.0962  0.0357
52226W        W95217  34.570  16.633  16.887 -0.0067  0.3229 -0.1231
52227W        W95218   1.603  23.457  21.910  0.0621 -0.3699 -0.1423
52228W        W95219  15.883  25.237   8.538 -0.2796 -0.0680  0.1713
52229W        W95220  28.558  22.574  22.951  0.1789 -0.1099  0.1496
52230W        W95221  32.851  24.308  18.749 -0.1226  0.2920 -0.2747
52231W        W95222  16.646  18.940   3.589  0.1637 -0.1601  0.0061
52232W        W95223  32.296  27.143   8.095 -0.0788 -0.1384  0.1776
52233W        W95224   2.669  14.185   5.036 -0.0409  0.0494 -0.2694
52234W        W95225   1.819  15.597  25.277  0.1140 -0.3043  0.0502
52235W        W95226  11.649  11.247  24.348  0.2127 -0.1958  0.0707
52236W        W95227  34.004   6.469  25.315 -0.0304  0.0802 -0.2983
52237W        W95228  23.870  18.896  26.090  0.2362  0.2954 -0.1043
52238W        W95229  27.519  30.735  19.490 -0.0031 -0.2360  0.2597
52239W        W95230  31.893  24.997  14.114  0.1324  0.2393  0.2298
52240W        W95231  31.731  24.008  28.834 -0.1651 -0.0428 -0.1658
52241W        W95232   2.928   7.729  25.330  0.1360 -0.1908 -0.0148
52242W        W95233   7.265   3.974  20.741  0.0503 -0.0033 -0.2964
52243W        W95234   0.575  21.192  15.427  0.1824  0.0198 -0.4792
52244W        W95235  24.557  28.762  27.555  0.1295  0.0772 -0.0648
52245W        W95236  14.369  32.263  27.268 -0.3835 -0.3344 -0.0040
52246W        W95237   6.616  27.394   3.254  0.0570  0.1313 -0.1153
52247W        W95238  21.972  14.615  27.796 -0.3125 -0.1030 -0.3273
52248W        W95239  30.793  17.781  20.952  0.0977 -0.1007 -0.2446
52249W        W95240  28.380  14.585   0.714  0.1273  0.0232 -0.2318
52250W        W95241   4.293  15.102   6.193  0.0906 -0.0622 -0.0343
52251W        W95242  31.317  21.908  19.458 -0.1935  0.1258  0.4858
52252W        W95243  31.642   1.082  15.941 -0.0811  0.1871  0.1316
52253W        W95244  22.575  29.392   4.575  0.1181  0.0843 -0.3362
52254W        W95245  15.420  20.116  13.151 -0.2816 -0.1198  0.0235
52255W        W95246  29.733   1.655  27.447  0.1872 -0.1042 -0.3664
52256W        W95247  10.085  14.045  26.207 -0.1743  0.0699 -0.0962
52257W        W95248  32.257   4.419  15.173 -0.1298  0.0396 -0.0875
52258W        W95249   5.140  27.277   0.542  0.1578 -0.0934 -0.0480
52259W        W95250  25.731  25.669   0.824  0.1964 -0.2791  0.1104
52260W        W95251   2.224  17.295  20.621  0.1432  0.0733  0.0363
52261W        W95252  20.534  27.537   8.090  0.0781  0.1962 -0.1035
52262W        W95253   7.269  27.369  21.255  0.1372 -0.2073 -0.2017
52263W        W95254   0.439  28.388   6.952  0.0674  0.0353 -0.1430
52264W        W95255   3.752  13.573   0.890  0.4219  0.0526  0.1310
52265W        W95256  18.083  10.530  15.734  0.0924 -0.1232  0.0191
52266W        W95257   3.166  28.296  22.386 -0.0341 -0.2336  0.2476
52267W        W95258   7.796   6.330  27.728  0.2384  0.3453  0.1666
52268W        W95259  21.640  30.364  16.223 -0.0724 -0.1820 -0.1980
52269W        W95260   1.421  16.528  19.400  0.0555  0.0801  0.0026
52270W        W95261  19.106  19.755  16.457  0.2519 -0.0649 -0.1640
52271W        W95262  32.630   8.371   7.540 -0.1462 -0.0784  0.0658
52272W        W95263   1.066  32.187  16.911 -0.1545  0.1619 -0.0831
52273W        W95264  33.383  17.086  20.269  0.1163 -0.2321 -0.0786
52274W        W95265  17.227   5.872   1.637  0.2487 -0.0035  0.2817
52275W        W95266   5.763  23.677  18.256 -0.1021 -0.3636  0.2742
52276W        W95267  29.147  17.728  26.643 -0.1928 -0.0869  0.2203
52277W        W95268   1.272  26.911  22.822  0.3038 -0.0224 -0.1369
52278W        W95269  12.236  11.223  19.813  0.2701 -0.2153  0.1282
52279W        W95270  10.302  12.593   2.691 -0.1615 -0.1172  0.1919
52280W        W95271   1.207  24.783   1.630  0.0497  0.2157  0.1028
52281W        W95272  10.574  11.394  19.049 -0.0290  0.0560  0.1370
52282W        W95273  28.346  11.645   9.711 -0.0644 -0.1853  0.2193
52283W        W95274  29.951  31.316  24.950 -0.1839 -0.0400  0.2183
52284W        W95275  20.100  19.986  22.221 -0.1140 -0.1126 -0.1659
52285W        W95276   5.211  27.404  26.345 -0.1426  0.0959 -0.0511
52286W        W95277  12.323  15.344   0.786  0.3492 -0.2376  0.1245
52287W        W95278  32.669  34.283  17.950 -0.0736 -0.1955  0.0211
52288W        W95279  32.086  29.125  17.863  0.0616 -0.2749  0.1676
52289W        W95280  30.034   7.434  21.015 -0.0289  0.2382 -0.0882
52290W        W95281  18.576  29.164  23.040  0.0112  0.1696 -0.1172
52291W        W95282  19.267  22.748   7.585  0.0246  0.2052  0.0158
52292W        W95283  17.667  29.972  21.640  0.0174 -0.5157 -0.2327
52293W        W95284  12.612   4.590  19.252 -0.1195 -0.2020  0.2389
52294W        W95285   1.233   1.597  22.130 -0.1142 -0.0369  0.0833
52295W        W95286  11.813  21.201  15.673  0.1518 -0.0340 -0.0302
52296W        W95287   6.954   8.486  23.547 -0.0302  0.1390  0.0721
52297W        W95288  33.659  25.288   9.780  0.0122 -0.1733  0.1283
52298W        W95289  17.401   9.804  18.788  0.2164  0.0927 -0.1393
52299W        W95290  34.009  13.216   8.132 -0.0823  0.0422  0.2965
52300W        W95291  22.655  22.806   2.294 -0.2885 -0.0552 -0.0566
52301W        W95292   7.488  17.486   5.439  0.1270 -0.0857  0.3200
52302W        W95293  33.788   3.476  15.196  0.2271  0.2566 -0.0280
52303W        W95294   2.092  25.706  24.706 -0.1712  0.0704  0.1252
52304W        W95295   2.575   3.081   7.283  0.1862 -0.4867  0.1317
52305W        W95296  34.745  11.422  18.068 -0.2969  0.0256 -0.2457
52306W        W95297  24.878  16.799  20.638  0.0864 -0.0676  0.1796
52307W        W95298   6.451   4.609   0.987 -0.0334 -0.2997 -0.3485
52308W        W95299   3.450  18.291  20.516  0.0623 -0.1255 -0.0436
52309W        W95300  32.676  22.338  15.465 -0.2635 -0.1627  0.0623
52310W        W95301   3.500  23.283  15.092  0.0521 -0.0458 -0.0615
52311W        W95302  24.832  14.309  19.362 -0.3240 -0.2506  0.0265
52312W        W95303  29.856  21.493  15.649 -0.1023 -0.0298  0.0206
52313W        W95304  26.536  30.022   8.286  0.2342  0.2231  0.1673
52314W        W95305  27.097  32.991   0.991 -0.2476  0.0440 -0.1166
52315W        W95306  30.855  17.625   3.496  0.0242  0.0526  0.0563
52316W        W95307  27.802   7.329  17.847 -0.1122 -0.0805  0.1208
52317W        W95308   4.558   8.427  20.277  0.0848 -0.1260  0.0181
52318W        W95309  32.932  19.075  23.387  0.3820  0.2947 -0.0127
52319W        W95310   9.400  27.760   9.185  0.0064  0.1216  0.0717
52320W        W95311  29.138  28.103  26.809 -0.0898 -0.2767  0.1878
52321W        W95312   5.987  25.762   1.293  0.0461 -0.0449  0.2113
52322W        W95313   4.948  15.587  22.588 -0.0079 -0.4439  0.3002
52323W        W95314  27.829  10.663  24.053 -0.0161  0.1654 -0.1648
52324W        W95315  10.940  25.672   4.944  0.1312  0.1184  0.1545
52325W        W95316  28.251  13.062  16.188  0.0909  0.2524 -0.0230
52326W        W95317  23.623  19.150  24.340 -0.3954 -0.1474  0.1235
52327W        W95318  31.313  19.542  26.282  0.1888 -0.1742  0.0894
52328W        W95319  31.382  17.834  15.102 -0.2588 -0.1800 -0.2298
52329W        W95320  16.631   2.536  27.227 -0.0474 -0.1046  0.1560
52330W        W95321  28.136  20.240   1.217  0.2087 -0.2363 -0.2377
52331W        W95322   2.141  29.142   0.736 -0.1449  0.1979 -0.0079
52332W        W95323  30.877  19.464  15.119 -0.0931  0.0723 -0.6403
52333W        W95324   0.326  15.353   8.307  0.1164  0.1306  0.3008
52334W        W95325  31.127  23.305  28.554  0.0528  0.1032  0.0038
52335W        W95326  24.396  16.928  20.646 -0.0314 -0.0902  0.0494
52336W        W95327  31.071  22.709  23.723  0.0637  0.2151 -0.0381
52337W        W95328  17.952  25.903  14.775 -0.2219  0.0536  0.0990
52338W        W95329   9.064  26.186  14.352 -0.0213  0.0532  0.2309
52339W        W95330   8.184  30.067  24.463  0.2268  0.0603  0.0270
52340W        W95331  12.712   6.562  22.694  0.0602 -0.1311 -0.1144
52341W        W95332   9.038   0.601   3.390  0.2796 -0.2969  0.0428
52342W        W95333   3.191  15.274  10.274 -0.1879  0.0201 -0.0135
52343W        W95334   3.052  16.142  22.279  0.1710 -0.1622 -0.0601
52344W        W95335   5.176  10.994  27.227  0.0132 -0.2313 -0.1024
52345W        W95336  27.024  25.223  26.262 -0.4555 -0.1557 -0.2731
52346W        W95337  21.707  14.279   8.621 -0.0492  0.1679  0.0312
52347W        W95338   1.527  28.328  21.918  0.1112 -0.4754  0.0037
52348W        W95339  15.841  29.394   2.191  0.1333  0.1713  0.3668
52349W        W95340   1.905  14.160  27.956  0.2336  0.2564  0.1718
52350W        W95341  13.240  22.247   9.775 -0.1684  0.1745  0.2984
52351W        W95342   1.607  28.059  20.104  0.0096  0.2760  0.0351
52352W        W95343   0.069   2.590  13.806 -0.2778 -0.0218  0.1449
52353W        W95344   1.134  22.821  26.466  0.2183  0.1171 -0.0426
52354W        W95345   0.012  29.122   3.656 -0.0097 -0.2999 -0.1362
52355W        W95346   4.071  28.832   3.405 -0.1631 -0.2185  0.0928
52356W        W95347  29.439  14.815   5.218 -0.0037 -0.0027  0.0867
52357W        W95348  32.476  18.634   5.710 -0.0576 -0.1525 -0.1954
52358W        W95349   8.833  11.057  24.996  0.0877 -0.1295 -0.1311
52359W        W95350  26.131  20.594   3.683  0.1032 -0.0084 -0.0071
52360W        W95351   3.196  31.559  28.631  0.0304 -0.1514 -0.2233
52361W        W95352   1.547  26.116   1.504 -0.3745  0.1506 -0.0301
52362W        W95353  31.298  13.150   5.498  0.2984 -0.4272 -0.1741
52363W        W95354  11.618  22.999   0.491 -0.0446  0.1608  0.0758
52364W        W95355  28.311  23.552   6.774 -0.1391  0.0864 -0.1547
52365W        W95356   4.150  15.593  22.617  0.3805  0.3527 -0.3709
52366W        W95357  25.576   3.264  16.411  0.0822 -0.3812  0.1562
52367W        W95358   1.343  10.175  27.131 -0.0714 -0.1967 -0.1535
52368W        W95359   0.387   2.932  23.890 -0.2383  0.0553 -0.2071
52369W        W95360   2.305  23.239   4.605 -0.0326 -0.0530 -0.0982
52370W        W95361   3.703  14.466   0.822  0.0376  0.0084  0.0970
52371W        W95362  24.961  26.005   0.036 -0.0852  0.0008  0.0010
52372W        W95363  16.836   0.214  28.655 -0.0738  0.0117  0.3432
52373W        W95364  21.543   4.118  23.856  0.0748 -0.0917 -0.0642
52374W        W95365   3.946  26.041   8.745 -0.0163 -0.3286 -0.2049
52375W        W95366   4.837  23.012   9.543 -0.1273  0.1116 -0.1683
52376W        W95367  13.964  28.377  15.038 -0.0778  0.1801  0.0463
52377W        W95368  22.311  29.972   3.837  0.2240 -0.0059  0.2567
52378W        W95369  15.538  20.372   9.483  0.2361  0.2389  0.2153
52379W        W95370  28.272  24.806   7.298  0.3700  0.1512 -0.2016
52380W        W95371   0.158  31.535  13.270  0.3065  0.2482  0.0476
52381W        W95372  34.450  34.680   9.196 -0.2905  0.2559 -0.0284
52382W        W95373   3.517  28.516  26.967  0.1107  0.0590 -0.0085
52383W        W95374  34.134  23.787  19.867 -0.1444  0.0356 -0.2107
52384W        W95375   4.435   9.490  23.555  0.3278 -0.0135 -0.0069
52385W        W95376   1.362  30.137   2.493 -0.0936  0.0252  0.4593
52386W        W95377   6.187  16.488  19.012  0.2319 -0.1501 -0.1629
52387W        W95378   0.679  11.465   7.449  0.1535 -0.0101 -0.1707
52388W        W95379  18.970  33.369  21.954 -0.0589  0.1141  0.0507
52389W        W95380   1.524  28.743  22.210 -0.2003 -0.3338  0.0986
52390W        W95381  32.088  34.145  25.968 -0.0510 -0.2362 -0.1330
52391W        W95382  28.566  20.350  19.310  0.1972  0.0673  0.0306
52392W        W95383  10.214  19.283  20.644  0.1730  0.1894 -0.0847
52393W        W95384   6.465  29.137  25.213  0.0862  0.2382 -0.0430
52394W        W95385   4.486  18.103  14.982 -0.1779 -0.1136 -0.2963
52395W        W95386  33.691   5.745   0.636  0.2758  0.3193  0.1695
52396W        W95387  31.121  22.517  21.999  0.1493 -0.1951 -0.3446
52397W        W95388  31.038  31.486   0.829  0.0379  0.1609 -0.2694
52398W        W95389  32.406  18.734  26.743 -0.1839 -0.0971 -0.0514
52399W        W95390  12.537  33.694  24.760 -0.2227  0.0636  0.0712
52400W        W95391  20.104  27.434  26.047 -0.1427 -0.1677 -0.0619
52401W        W95392  31.909  19.570  28.436 -0.2243 -0.0182 -0.3151
52402W        W95393  10.327  14.903   3.717  0.2438 -0.3344  0.2211
52403W        W95394  27.349  33.426  24.294  0.1486 -0.0529  0.4626
52404W        W95395   2.367   0.191  17.940  0.1433  0.2331  0.0411
52405W        W95396   8.619  18.514  29.018  0.1401 -0.2029  0.0941
52406W        W95397  11.746  12.686  17.761  0.2447  0.0290 -0.0287
52407W        W95398   5.740  33.049   5.056 -0.0817  0.3615  0.3187
52408W        W95399   9.516  23.973  29.004  0.0285  0.1116  0.0286
52409W        W95400   6.080  34.629  24.206 -0.3304 -0.0213 -0.3286
52410W        W95401   9.235   2.239  17.389 -0.3420  0.1791  0.0620
52411W        W95402   1.348   4.481  29.134  0.1632  0.0247  0.2540
52412W        W95403  28.923  12.040  22.812  0.2688 -0.0267  0.3943
52413W        W95404  22.932  28.438   4.672  0.0103 -0.0959  0.0846
52414W        W95405  24.124  12.771  24.429 -0.0192 -0.4472  0.2485
52415W        W95406  15.708  28.705  18.291 -0.3015 -0.0431 -0.1878
52416W        W95407   3.532  14.540  16.951 -0.1583 -0.1349 -0.0250
52417W        W95408  17.172  27.847  17.203 -0.1804  0.1891 -0.0888
52418W        W95409  25.883  18.398  26.191 -0.1427 -0.1611 -0.1615
52419W        W95410  11.826   3.238   6.045 -0.3280 -0.3532 -0.1568
52420W        W95411   1.125  24.093  27.633  0.1122  0.1067  0.0609
52421W        W95412  26.753  22.911   3.301 -0.2046  0.2809  0.0242
52422W        W95413  17.626   2.826  23.086 -0.2183  0.0977 -0.2628
52423W        W95414   9.082  13.888   0.893  0.0981 -0.0594 -0.2853
52424W        W95415   8.249  32.043  15.890 -0.2735 -0.0809 -0.2440
52425W        W95416   5.107  10.862   5.401  0.1584 -0.0160  0.2093
52426W        W95417  10.337  16.460   7.582  0.1616 -0.1002  0.0310
52427W        W95418  33.969   9.757   8.908 -0.0064  0.1604  0.2677
52428W        W95419   5.882  20.823   8.847  0.0990 -0.0111  0.0813
52429W        W95420   0.223   2.700  23.449 -0.0492 -0.1833 -0.1057
52430W        W95421  27.024  21.373   4.074  0.0928 -0.0200  0.0526
52431W        W95422  32.448  15.405  29.069 -0.1694 -0.0932 -0.1553
52432W        W95423   7.894  18.479  20.486  0.2683 -0.2391  0.0593
52433W        W95424  34.351  15.209   4.619  0.2805  0.3698  0.1577
52434W        W95425  32.355  13.345   8.764 -0.0976  0.1197 -0.0594
52435W        W95426   2.761  14.873  17.828 -0.1328  0.0467  0.3086
52436W        W95427   1.041  19.347   4.613  0.0888 -0.0894 -0.0002
52437W        W95428  14.673   9.666  17.617  0.1130  0.0847 -0.4708
52438W        W95429  23.141  15.480   8.366 -0.3235  0.1002 -0.0061
52439W        W95430  11.147  18.230  27.351  0.0170 -0.0953  0.1619
52440W        W95431  18.761  25.792   8.391  0.0580 -0.3635 -0.2066
52441W        W95432  30.446  33.045   0.435 -0.1801 -0.1804 -0.0297
52442W        W95433  22.423  34.307  19.240 -0.3479 -0.0721  0.1391
52443W        W95434  18.170   5.484   4.896  0.1722 -0.0566 -0.2697
52444W        W95435   0.478   9.214   4.646 -0.3988 -0.2423 -0.0151
52445W        W95436  31.078  19.278  17.793 -0.1690  0.0253  0.0950
52446W        W95437  17.474  23.766  13.574 -0.1040 -0.2063  0.3256
52447W        W95438  33.333  18.136  21.990  0.0265 -0.0911 -0.0887
52448W        W95439  11.257  19.870  17.848  0.2195  0.0714  0.1925
52449W        W95440  10.138  23.118  16.202  0.1026  0.0630  0.1607
52450W        W95441  29.514  11.848  27.288 -0.0866  0.0270  0.0594
52451W        W95442   6.826  11.261   1.211 -0.2082  0.2349  0.0169
52452W        W95443   3.533   1.972   5.555 -0.4048 -0.1190 -0.2571
52453W        W95444  31.589  30.074   1.873 -0.0885  0.0024  0.1979
52454W        W95445  27.054  18.076  27.144  0.2094 -0.2354  0.1507
52455W        W95446  16.885  10.777  22.435  0.0568  0.1222 -0.0638
52456W        W95447   3.755  26.855   1.493  0.1926 -0.2202  0.0652
52457W        W95448  30.623  15.597  25.189  0.0626 -0.0384 -0.0743
52458W        W95449  11.448  26.604   7.422 -0.1711 -0.0270 -0.0894
52459W        W95450  14.887  33.542  22.309  0.1313  0.2829  0.2622
52460W        W95451   7.287  10.170   5.272 -0.1208 -0.2296  0.0905
52461W        W95452   0.319   5.367  18.897 -0.1379  0.1289 -0.3453
52462W        W95453   8.173  30.710   0.236 -0.0786  0.2062  0.0844
52463W        W95454   6.966  14.153  19.914  0.0665  0.0562 -0.0724
52464W        W95455   0.350  13.962   5.517 -0.3418 -0.0244 -0.1129
52465W        W95456  31.157  17.449   9.681 -0.2636  0.0044  0.3328
52466W        W95457  23.978  32.375  18.222 -0.2290 -0.1635 -0.0530
52467W        W95458  21.611  24.555   0.849 -0.0172  0.0506  0.0522
52468W        W95459  27.454  11.516   2.818 -0.1941  0.2609 -0.0672
52469W        W95460   5.759  26.892  24.857  0.1214  0.1919  0.0381
52470W        W95461   2.202  25.090  15.686  0.1182 -0.3395  0.0140
52471W        W95462   0.317  26.144  27.283  0.0166  0.1331 -0.0836
52472W        W95463  14.648  26.052   2.535 -0.1005 -0.1665 -0.4656
52473W        W95464  19.566  14.393   0.403 -0.4420  0.0536  0.0350
52474W        W95465   6.829  33.036  13.768  0.2495 -0.0292 -0.0105
52475W        W95466   6.525  16.524   4.711 -0.0632 -0.3515  0.0271
52476W        W95467   2.546  30.183  16.754  0.1451 -0.1765 -0.0159
52477W        W95468  33.334  10.315   0.094  0.0206  0.0386 -0.1474
52478W        W95469  31.779   7.384  23.166 -0.0793 -0.0239  0.6063
52479W        W95470  32.897  26.711  17.211 -0.2825  0.0238 -0.3118
52480W        W95471   2.263  34.342  15.494 -0.3054  0.0327  0.1609
52481W        W95472  30.753  25.974   0.564 -0.2012  0.1094 -0.1184
52482W        W95473  25.741   3.291  23.234  0.1416  0.1560  0.0464
52483W        W95474  25.670  33.689   6.155  0.1052 -0.0924  0.1123
52484W        W95475   0.527  15.920   8.392 -0.0711 -0.0477  0.3649
52485W        W95476  18.849  33.038  22.899 -0.3398 -0.1063 -0.1321
52486W        W95477  32.254   4.272  20.268 -0.1411  0.2464 -0.1872
52487W        W95478  25.967  23.180  20.039  0.2162  0.0672 -0.1162
52488W        W95479  33.953  11.315  29.141 -0.0639  0.0355  0.2139
52489W        W95480   8.084  30.722   3.293  0.2092  0.2472 -0.0707
52490W        W95481   8.257  12.913   7.554 -0.1316 -0.1944  0.0567
52491W        W95482  24.827  21.952   7.803 -0.0877 -0.2671 -0.4039
52492W        W95483  33.321  13.863  20.011  0.2669  0.2570 -0.2594
52493W        W95484  32.708  28.764   7.965 -0.0503 -0.0038  0.3057
52494W        W95485  27.695  18.805  28.035 -0.0133  0.2803  0.1145
52495W        W95486  34.699  30.076  19.821  0.2810 -0.0414  0.1699
52496W        W95487  33.380  15.763   2.919 -0.2829 -0.1728 -0.1325
52497W        W95488  31.163  21.884  16.261 -0.2583 -0.1453  0.2150
52498W        W95489   7.967  15.011  20.098 -0.0187  0.1307 -0.2741
52499W        W95490  18.067  12.696   8.323 -0.2312  0.4221 -0.1085
52500W        W95491   5.696  11.382   3.390 -0.3207  0.1185 -0.2026
52501W        W95492  33.178  13.637  21.567  0.2146  0.0378  0.0300
52502W        W95493   3.738  25.149  20.200 -0.1712  0.2251 -0.0877
52503W        W95494   3.615  23.669  21.082  0.0363 -0.0124 -0.0035
52504W        W95495  14.199  30.410  26.160  0.0435  0.1790  0.0115
52505W        W95496   8.543  24.416  26.761 -0.2243 -0.3609 -0.1965
52506W        W95497  25.489   0.476   1.950 -0.0216 -0.1593 -0.0092
52507W        W95498   0.159  26.877  17.283  0.0927 -0.1480  0.0659
52508W        W95499  10.890   2.108  27.298 -0.0732  0.1854 -0.0159
52509W        W95500   4.393  18.960  20.955  0.0665  0.2101 -0.1635
52510W        W95501   2.326   4.044   0.831  0.2653 -0.0159 -0.2330
52511W        W95502  34.181  19.354   3.668 -0.0972 -0.1667  0.0547
52512W        W95503  21.257  22.068  12.908  0.1163 -0.4627  0.3026
52513W        W95504   5.487  26.478  24.123 -0.3747 -0.0501  0.0199
52514W        W95505  13.559  23.690  17.996  0.1582  0.3291 -0.1757
52515W        W95506  24.164  19.455  21.267 -0.1508  0.1767  0.1429
52516W        W95507   7.944  20.219  27.228  0.0912  0.0501  0.0065
52517W        W95508   1.887   9.975   9.657  0.1265 -0.0781 -0.1333
52518W        W95509   9.848  34.236   2.867 -0.1170  0.0615 -0.1861
52519W        W95510  16.643  19.543  27.992  0.0738 -0.2916  0.1270
52520W        W95511  13.011  10.840  22.625 -0.0781 -0.0933  0.3680
52521W        W95512   2.376  26.765  14.513  0.2235  0.0539 -0.0421
52522W        W95513   1.782   7.648  19.915  0.0125 -0.1362 -0.4714
52523W        W95514  12.369  19.787  25.828 -0.3819  0.1940  0.2967
52524W        W95515  10.606  21.985  19.935  0.1746  0.1408  0.2951
52525W        W95516  19.855  28.901  27.083  0.0514 -0.0962 -0.0646
52526W        W95517   5.111  22.538  10.389 -0.2358 -0.0378 -0.2266
52527W        W95518  31.635   2.563  13.664  0.2621 -0.2152  0.3978
52528W        W95519  14.279  23.205  17.658  0.0847  0.4871  0.3572
52529W        W95520  19.520  23.724  14.725 -0.0746 -0.0366 -0.1848
52530W        W95521   4.020   9.442   7.434 -0.0167 -0.0379  0.2440
52531W        W95522  18.316  23.114  16.881 -0.2044 -0.2120 -0.0020
52532W        W95523  19.032  29.417  17.530  0.2215  0.1974 -0.2637
52533W        W95524  15.735  29.118  18.684  0.1480 -0.1622  0.0017
52534W        W95525  10.598   6.777  29.120 -0.1216  0.3284 -0.2430
52535W        W95526  31.263   3.077   0.080 -0.0546  0.0831  0.0361
52536W        W95527  24.617  13.846   5.768 -0.4595  0.1199  0.1192
52537W        W95528   2.598   1.027  25.117  0.2917  0.0050 -0.0508
52538W        W95529   4.949  15.262  25.079  0.0498  0.1074 -0.0886
52539W        W95530  21.233  22.241   7.297 -0.1302 -0.3134  0.2255
52540W        W95531  25.881  23.476   0.590 -0.1959 -0.1663  0.0008
52541W        W95532   8.734  26.125  26.021  0.0261  0.2759 -0.0667
52542W        W95533  27.127   4.724  15.774 -0.1674 -0.1576  0.2550
52543W        W95534  25.395  14.949   4.336 -0.3621 -0.1859  0.2334
52544W        W95535   8.995  33.107  24.243 -0.0352  0.2485 -0.0599
52545W        W95536   3.062  25.388  22.620 -0.0666 -0.0783  0.1275
52546W        W95537   2.260  26.956  23.866 -0.1863 -0.1553 -0.1992
52547W        W95538   2.796  14.578  27.933  0.1520 -0.1592  0.4589
52548W        W95539  34.779  20.763  14.667 -0.0913 -0.0101 -0.1999
52549W        W95540   9.267  21.383  19.837 -0.0551 -0.2018  0.0733
52550W        W95541   5.312  10.286   1.989 -0.1344 -0.1217  0.1870
52551W        W95542  23.926  17.357   2.132  0.0061 -0.0260  0.1958
52552W        W95543   3.988  21.142   3.224  0.2782  0.3325  0.1557
52553W        W95544  29.799  29.024  16.394  0.0548 -0.2746  0.3623
52554W        W95545  16.980  10.177   3.228  0.1145  0.0038  0.0101
52555W        W95546  25.533  31.263   5.827 -0.1644 -0.0466 -0.2456
52556W        W95547  32.137  22.482   1.382 -0.1600  0.0078  0.0765
52557W        W95548  15.689  24.265  22.527 -0.5002  0.0266  0.1219
52558W        W95549   8.901  15.325  26.899  0.0907  0.3567 -0.3221
52559W        W95550   2.920  12.403  25.582 -0.1384  0.0275  0.1214
52560W        W95551   7.016  11.577  25.059  0.0872  0.2369 -0.1167
52561W        W95552   6.564  19.753  28.775 -0.2739  0.2416  0.0962
52562W        W95553  11.983  28.130  25.516  0.0268 -0.3271  0.2248
52563W        W95554   7.929  19.579  25.468  0.1147  0.0395 -0.1631
52564W        W95555   6.153  23.593   0.651 -0.0735  0.2071 -0.0594
52565W        W95556  31.937  21.490  29.126 -0.1240  0.0331 -0.0235
52566W        W95557  33.796  14.080  18.657 -0.0530  0.3071 -0.2118
52567W        W95558   4.258  14.941  16.598  0.1645  0.0337 -0.2251
52568W        W95559   2.039  27.460  27.052 -0.1872 -0.1721 -0.2778
52569W        W95560   4.473  30.713  21.105  0.1816  0.2034 -0.0723
52570W        W95561   0.732  15.401  28.988 -0.1889 -0.0131 -0.1883
52571W        W95562   8.740  18.512  19.008  0.3247  0.1377 -0.0655
52572W        W95563  27.442   5.802   1.501  0.0547  0.0792 -0.3173
52573W        W95564   9.553  27.580  29.217  0.0394  0.2716 -0.2156
52574W        W95565  34.090  34.038   7.757 -0.0159 -0.0318  0.3124
52575W        W95566  22.191  12.161  21.522  0.0366  0.0545  0.1681
52576W        W95567   8.178  12.627  28.416 -0.2001  0.1748 -0.4417
52577W        W95568  31.238  22.842  14.088  0.3540  0.0204 -0.1085
52578W        W95569   4.147   3.608  10.884  0.3941 -0.3930  0.0736
52579W        W95570  10.355   6.410   8.479  0.0022 -0.0485  0.1740
52580W        W95571  19.542  21.058  24.057 -0.0618  0.0495 -0.1171
52581W        W95572  26.390  19.199  18.690  0.2326  0.2513 -0.0130
52582W        W95573   8.743  34.125   6.525  0.2069 -0.0318 -0.1209
52583W        W95574   0.499   3.388   7.070 -0.2323  0.1056 -0.1078
52584W        W95575  27.801  13.773   3.183 -0.0896  0.0110 -0.0280
52585W        W95576  21.897   0.981  27.036 -0.0800  0.0617 -0.0630
52586W        W95577  34.397  34.156  13.579  0.0499  0.2952  0.1698
52587W        W95578  25.772  28.630   7.103  0.0081 -0.0203 -0.3382
52588W        W95579  26.757  30.850  27.284 -0.1214  0.0479 -0.3892
52589W        W95580   3.960   7.628  16.800  0.1916  0.2192 -0.0758
52590W        W95581   9.525  22.293  23.237 -0.0842 -0.1570 -0.2852
52591W        W95582   1.879   9.152  11.149  0.2644 -0.0996  0.0753
52592W        W95583   4.087  30.253  22.533 -0.0824 -0.1109 -0.1141
52593W        W95584  25.665  31.335  13.971 -0.0557  0.3423  0.2861
52594W        W95585  27.185   8.826  20.142  0.0556 -0.1407 -0.3445
52595W        W95586  30.199   7.818  14.782  0.1388  0.1814 -0.2749
52596W        W95587  11.708  13.295  18.646  0.0084 -0.0871 -0.1206
52597W        W95588   3.519  26.010  26.714 -0.0338  0.1722  0.1573
52598W        W95589   3.509  17.033  17.756  0.1538 -0.0796  0.2553
52599W        W95590   3.263   0.389  22.466 -0.0739  0.1937 -0.1378
52600W        W95591   1.024   1.621  28.381 -0.0664 -0.1958 -0.0431
52601W        W95592   6.190  27.079  16.882  0.1397  0.2123 -0.1036
52602W        W95593   1.632   5.601  19.991  0.0332  0.0382  0.4428
52603W        W95594  34.197  23.708  15.431 -0.0462 -0.1493 -0.0232
52604W        W95595   1.239  22.317  17.183  0.1862 -0.0425  0.1589
52605W        W95596  29.844  34.035  12.816 -0.0363  0.1861  0.0870
52606W        W95597  30.100  30.213  20.892  0.0036  0.2171 -0.0133
52607W        W95598  28.172   1.780  16.980 -0.0209 -0.2291  0.0596
52608W        W95599   7.582  23.525  17.596  0.3381 -0.1265  0.2237
52609W        W95600   3.360  32.943  25.314  0.0899 -0.0884  0.0361
52610W        W95601  28.474  24.706  18.963  0.1850 -0.1575  0.0536
52611W        W95602  23.031   2.585  23.858 -0.3065  0.3357  0.3390
52612W        W95603  17.194  26.540  16.257  0.4724 -0.0191 -0.0085
52613W        W95604   4.265   2.766  14.836 -0.0189  0.2160  0.0871
52614W        W95605   3.290   0.059  19.497  0.0312  0.0186 -0.2198
52615W        W95606  15.651  21.068  13.639  0.2185 -0.0171  0.0117
52616W        W95607   4.634   8.304  21.321 -0.0400 -0.1596 -0.2136
52617W        W95608  21.101  30.245   3.777 -0.1755  0.1642  0.1652
52618W        W95609  22.856  32.624  17.400  0.0273 -0.2572 -0.3217
52619W        W95610  31.608  27.653  17.450  0.1184  0.2286  0.5054
52620W        W95611  23.900   2.439  25.884  0.2319  0.5049 -0.3628
52621W        W95612  29.953  21.214  23.109  0.1923 -0.1063 -0.1071
52622W        W95613  28.868   1.988  13.309  0.1504  0.2583  0.2657
52623W        W95614  24.222  23.672  26.484 -0.3014 -0.0695 -0.0212
52624W        W95615  11.436  26.704  15.759 -0.1113 -0.0834  0.0978
52625W        W95616   9.209   7.954   4.131 -0.0635 -0.1098  0.0815
52626W        W95617   9.615  15.922   0.999 -0.0395  0.0356 -0.1714
52627W        W95618  30.111  29.740  14.504 -0.1180  0.1700 -0.1635
52628W        W95619   3.832   0.895  25.395 -0.2501 -0.0025  0.1966
52629W        W95620  25.145  25.474  16.647  0.1253  0.1347 -0.1325
52630W        W95621  24.778   0.144  16.030 -0.2130  0.1784 -0.1205
52631W        W95622  30.801  29.583  12.366  0.1113 -0.0373  0.3542
52632W        W95623   9.637   4.946  22.776 -0.1656  0.2739 -0.0068
52633W        W95624  26.392  31.365  25.096  0.0851 -0.0022 -0.3939
52634W        W95625  20.888  29.490  14.069 -0.4386 -0.1982  0.2182
52635W        W95626  26.568  21.340  15.129 -0.3084  0.1371  0.1612
52636W        W95627  25.668  31.045  22.976  0.2777  0.0235  0.1080
52637W        W95628  28.310  22.072  14.696 -0.0108 -0.1606  0.0191
52638W        W95629  30.300  25.766   4.115  0.0712 -0.2379 -0.1512
52639W        W95630  27.202   2.130  23.533  0.0451 -0.2038  0.2534
52640W        W95631  25.489  24.249  23.195 -0.0281  0.0428  0.2085
52641W        W95632  28.770  28.975   0.120  0.2389 -0.3255 -0.3564
52642W        W95633  11.543   0.843  16.673 -0.0822  0.0138 -0.1640
52643W        W95634   5.750  28.153  21.030  0.1238  0.2813  0.2202
52644W        W95635  32.137  31.423  13.442 -0.2164  0.1217 -0.1689
52645W        W95636   2.518  30.470  20.841 -0.1110  0.0298  0.3071
52646W        W95637  28.784  29.393  23.042  0.1119  0.3324 -0.0779
52647W        W95638  12.937  26.972  16.197 -0.2220 -0.1569  0.1235
52648W        W95639   1.788  34.704  17.391 -0.1202 -0.1034 -0.0760
52649W        W95640  30.929   0.581  23.703  0.0251  0.1117  0.0481
52650W        W95641  31.249  25.290  22.628 -0.2367 -0.1670 -0.1560
52651W        W95642  33.013  18.150  16.507  0.0397 -0.0532 -0.3191
52652W        W95643  29.674  31.934  14.984 -0.0530 -0.0547 -0.1333
52653W        W95644   4.038   7.736   4.405  0.1025 -0.0188  0.1111
52654W        W95645  32.598  32.262  26.619 -0.0139 -0.3097 -0.0074
52655W        W95646  31.752  30.744  26.048 -0.0915  0.0537  0.1796
52656W        W95647  30.932  26.823   4.582  0.2423 -0.0991  0.1497
52657W        W95648   7.330  19.845   2.593 -0.1276 -0.0668  0.4276
52658W        W95649  31.148  32.456  14.902  0.2709  0.0014  0.0981
52659W        W95650   3.277  20.785  20.197 -0.1009  0.2446 -0.1452
52660W        W95651   5.638  31.173  23.056  0.0702  0.0485  0.0539
52661W        W95652  31.648  25.381  22.368 -0.1984  0.2811 -0.2689
52662W        W95653  14.026  25.207  22.589 -0.3542  0.3412 -0.2867
52663W        W95654   3.137  13.827   3.682  0.0953  0.0729 -0.2732
52664W        W95655   4.852  19.003  15.143  0.2416 -0.0981 -0.1537
52665W        W95656  25.928  31.682  13.406  0.0226 -0.1191 -0.2341
52666W        W95657  33.033  12.953  25.235 -0.0227 -0.1408 -0.0408
52667W        W95658  10.231   2.703  15.315  0.1631  0.0742  0.0456
52668W        W95659  31.377   3.484   2.789 -0.0800 -0.3442  0.0590
52669W        W95660  19.932  14.269  16.008  0.0281 -0.0723  0.1081
52670W        W95661  14.924  29.614  19.349 -0.3141 -0.1074 -0.0969
52671W        W95662  24.106  18.441  18.552 -0.0147  0.3136  0.2282
52672W        W95663  30.784  24.094  19.935  0.0740 -0.4769 -0.3945
52673W        W95664   1.161  25.857  28.774 -0.0591 -0.1700 -0.0130
52674W        W95665  28.092   1.160  17.231 -0.2656 -0.0576  0.5043
52675W        W95666   8.397   2.798  19.384 -0.0532 -0.0427  0.4355
52676W        W95667  19.568  28.088   0.992  0.0168  0.4684  0.2394
52677W        W95668  15.357   1.083  29.069 -0.0471  0.3142 -0.1827
52678W        W95669   7.609   0.033  15.036 -0.0515 -0.3526  0.0192
52679W        W95670  33.137  25.235  14.796 -0.0781 -0.2284  0.2763
52680W        W95671   8.031  30.440  20.620 -0.2966 -0.0724 -0.0309
52681W        W95672  32.472  23.166  18.628  0.0225 -0.0614 -0.0764
52682W        W95673  24.766   1.168  24.405 -0.1053  0.0029  0.0308
52683W        W95674   2.498  23.531   6.866  0.0609 -0.1176  0.1118
52684W        W95675   4.526  13.874   0.736 -0.1546  0.5981 -0.2258
52685W        W95676   1.849   1.716  18.897  0.2667 -0.1151  0.0359
52686W        W95677   1.663  29.737  20.885  0.5387  0.3426  0.0925
52687W        W95678  22.326   0.349  21.408 -0.0234  0.1385 -0.4922
52688W        W95679   0.014   8.548   0.170 -0.3151  0.1961 -0.2341
52689W        W95680  33.876  25.676  23.184 -0.0801 -0.0079 -0.1041
52690W        W95681   1.994   6.444  16.786 -0.0881  0.1214  0.0843
52691W        W95682  16.390   4.130   0.609 -0.3055  0.2377  0.1719
52692W        W95683  31.219   1.093  13.509 -0.0258  0.2020 -0.0418
52693W        W95684   1.411  13.906  23.005 -0.2128  0.0222  0.0252
52694W        W95685  11.433  25.392  15.525 -0.1090  0.1677  0.0130
52695W        W95686  26.362  15.679  23.214  0.0613  0.0739  0.0729
52696W        W95687   8.360  28.672  22.510 -0.0951  0.2004  0.0935
52697W        W95688  30.187  33.152   2.266 -0.1314  0.0752 -0.0960
52698W        W95689  19.524  32.596  20.992 -0.0499 -0.4461 -0.0081
52699W        W95690  32.647  30.745  19.388  0.0812 -0.1425 -0.0358
52700W        W95691  26.183  32.153  21.904  0.0182  0.1653  0.2101
52701W        W95692   1.759  30.484  22.310 -0.0352 -0.1878  0.0559
52702W        W95693   4.517  29.059  16.705 -0.0541  0.0188  0.0276
52703W        W95694  29.463  24.972  14.471  0.1176  0.0860  0.3066
52704W        W95695   2.977   0.977  23.371 -0.2785 -0.3230 -0.0023
52705W        W95696  27.057  12.772   3.715 -0.5147  0.1853  0.1469
52706W        W95697  33.458  21.696  17.054 -0.0715  0.0630 -0.1595
52707W        W95698  27.280  24.586  19.101 -0.1968  0.2881  0.0644
52708W        W95699  28.686  25.076  25.835 -0.0388  0.1515 -0.0512
52709W        W95700  24.192  27.804  15.368 -0.2061 -0.0822  0.0982
52710W        W95701   9.138  22.121  23.645 -0.0944  0.0107 -0.4086
52711W        W95702   8.639   9.405  28.408  0.1019 -0.2225  0.1172
52712W        W95703  33.434   5.694  15.362  0.1738 -0.0566 -0.1942
52713W        W95704  27.860  21.638  25.406 -0.0907 -0.3879  0.0016
52714W        W95705  27.496   2.445  21.804 -0.2825  0.0491  0.3338
52715W        W95706   2.072  25.307  17.302 -0.1746 -0.0862 -0.0047
52716W        W95707  25.160   1.943  14.264  0.1657  0.0138 -0.1105
52717W        W95708   1.830  12.996  16.518 -0.0603 -0.1071 -0.1730
52718W        W95709  25.646  22.002  28.320  0.1444  0.0943 -0.0505
52719W        W95710  22.213  26.500  15.629  0.2757 -0.0820 -0.0085
52720W        W95711  23.190  30.142  18.795 -0.0693 -0.1254 -0.0022
52721W        W95712  33.763  32.772  15.130  0.0383  0.0419 -0.1144
52722W        W95713   6.041  22.230  15.699  0.2211 -0.2519 -0.1439
52723W        W95714   6.129  25.469  16.859  0.0542 -0.1097 -0.0145
52724W        W95715  32.468  20.798  20.516 -0.2870 -0.0565 -0.0457
52725W        W95716   1.102   9.571  23.494  0.0826 -0.2775  0.3612
52726W        W95717  27.505  27.112  25.174  0.0518 -0.0228 -0.0547
52727W        W95718   3.407   1.971  26.332 -0.0928 -0.3721  0.1030
52728W        W95719  34.297  19.951  20.077  0.0096 -0.0574  0.0473
52729W        W95720   8.351  26.804  17.253 -0.0134 -0.2136  0.2027
52730W        W95721   4.480  12.314  21.273  0.0079  0.4862  0.2768
52731W        W95722   3.045  30.566  21.759 -0.1449  0.1860  0.0677
52732W        W95723   3.243  32.109  13.732  0.0125 -0.3069 -0.0959
52733W        W95724  26.556  32.155  16.749 -0.1544 -0.1069 -0.1576
52734W        W95725  28.980   8.275  18.694 -0.1846  0.1094 -0.1782
52735W        W95726  19.563  28.262  20.657 -0.1102 -0.0557 -0.1656
52736W        W95727  22.363  13.785  17.531 -0.1139  0.0055 -0.1217
52737W        W95728   9.512  28.847  17.600  0.1291  0.1578 -0.2717
52738W        W95729   8.170  17.480  26.373  0.2628  0.0557 -0.0071
52739W        W95730   8.778  32.677   2.902  0.2151 -0.1108 -0.1983
52740W        W95731   7.287  27.505  16.212  0.1215 -0.1315 -0.2745
52741W        W95732  17.834  14.660  23.334  0.1947 -0.1840 -0.1235
52742W        W95733  23.836   1.126  14.687  0.2509  0.0389  0.1280
52743W        W95734   7.573  34.629  28.156  0.0623  0.0033  0.2408
52744W        W95735  31.859  26.103   2.658  0.2446 -0.3828  0.0734
52745W        W95736   2.315  26.270  23.390  0.0771  0.0192 -0.2459
52746W        W95737  24.221  27.476  16.099 -0.1094 -0.0666 -0.1420
52747W        W95738  30.366  28.226  12.325 -0.0343  0.2822 -0.3209
52748W        W95739   1.616  19.473  24.606 -0.1709 -0.2115  0.2776
52749W        W95740  22.368  33.294  14.602 -0.1120  0.3282 -0.2165
52750W        W95741  30.281   8.208  27.200  0.2823 -0.0631  0.1769
52751W        W95742  29.011   1.243  23.505  0.0807 -0.0952 -0.2780
52752W        W95743  10.570  20.907  25.914 -0.0519 -0.0036  0.3091
52753W        W95744  25.650  26.469  28.757 -0.0467  0.0635  0.1358
52754W        W95745   2.153  26.582  22.155 -0.1033 -0.1500 -0.2711
52755W        W95746  28.715  18.408  13.936 -0.0288 -0.2243  0.0536
52756W        W95747   3.523  18.485  16.281 -0.0736  0.2734 -0.1901
52757W        W95748   3.201  26.886  24.183  0.0366  0.2588 -0.0146
52758W        W95749  25.628  28.175  20.884  0.3087  0.1399 -0.2277
52759W        W95750  18.303   0.284  18.119  0.1891 -0.1192 -0.0055
52760W        W95751  23.093  27.672  28.259  0.2067  0.1945  0.0169
52761W        W95752   2.261  28.497  25.475 -0.0027 -0.0117  0.0103
52762W        W95753  28.529   3.573  27.918 -0.2016  0.1474 -0.0408
52763W        W95754   6.843  31.907  16.658  0.2676  0.1194  0.1389
52764W        W95755  26.007   9.081  24.950 -0.0421 -0.0999  0.3872
52765W        W95756   1.797  26.555  18.699  0.0200  0.3087  0.2317
52766W        W95757  23.984  22.178  12.654  0.0375 -0.1337  0.0742
52767W        W95758  31.218  16.790  16.384 -0.0378  0.1520  0.2300
52768W        W95759  11.349  31.262  20.862 -0.0006  0.0557 -0.4360
52769W        W95760  33.498   9.430  21.390 -0.2069  0.2227 -0.0353
52770W        W95761   8.333  10.838  20.939  0.4217 -0.1927 -0.1489
52771W        W95762   7.566   1.265  15.413  0.0972 -0.1248  0.2957
52772W        W95763   8.742  13.742  17.195 -0.0483  0.2544  0.1494
52773W        W95764  22.422  32.712  16.524 -0.2924  0.0828 -0.3335
52774W        W95765  28.908  23.732  20.880  0.0142  0.0349  0.0110
52775W        W95766  12.035  20.587  25.766  0.0123  0.0998 -0.0140
52776W        W95767  28.586  30.147  21.694 -0.3002 -0.3271  0.0942
52777W        W95768  26.400  16.942   2.225  0.1215 -0.0651 -0.0057
52778W        W95769  16.340   6.442   6.687 -0.4741 -0.0288  0.0441
52779W        W95770  30.660  10.429  24.457 -0.0914 -0.2011 -0.3143
52780W        W95771  16.139  24.741  28.662 -0.1727  0.0154 -0.3322
52781W        W95772   4.348  24.935   1.877  0.2579 -0.1117 -0.0270
52782W        W95773  14.012   4.089  21.156  0.1049  0.1355  0.1155
52783W        W95774  33.898  28.546   2.473  0.0931 -0.0677 -0.4783
52784W        W95775  24.245   6.579  21.121  0.2171 -0.2562  0.0970
52785W        W95776   3.305  16.125   2.880 -0.2161  0.0598 -0.1630
52786W        W95777  27.148  23.294  18.903  0.1045  0.0985 -0.2232
52787W        W95778  31.510  31.323  26.246 -0.2354 -0.1668  0.1242
52788W        W95779  19.250  28.528  19.799  0.1119 -0.0348  0.1944
52789W        W95780  14.046  30.396  21.445 -0.1239 -0.5333  0.0493
52790W        W95781  28.290  21.209  27.491  0.1573  0.0796  0.1136
52791W        W95782   0.685  26.754  15.119  0.0902  0.1287 -0.1956
52792W        W95783  27.125  19.327  22.809  0.0109 -0.1177  0.3500
52793W        W95784  33.217   4.784  15.494 -0.1017 -0.2108 -0.0548
52794W        W95785  15.112  34.795  23.725  0.0117  0.2600  0.0840
52795W        W95786  32.661  28.130   0.925 -0.2550  0.1800  0.0732
52796W        W95787  23.154  13.108  20.953  0.1882  0.1459 -0.2295
52797W        W95788  33.577  20.143  16.025 -0.1149  0.0582 -0.2035
52798W        W95789   6.531  29.421  19.753 -0.1070  0.0449 -0.2556
52799W        W95790   3.220  20.562  17.695 -0.0254 -0.1429 -0.0505
52800W        W95791   1.279  12.948   0.473 -0.0445 -0.1062 -0.0835
52801W        W95792  25.575  30.868  16.521  0.0428  0.2286  0.1587
52802W        W95793   0.013  22.514  14.697 -0.3304 -0.2858  0.1776
52803W        W95794  10.261  20.488   2.937  0.0569  0.0625  0.0262
52804W        W95795  21.196  17.873  17.762  0.2469  0.1575  0.1638
52805W        W95796   0.654  27.824  14.290  0.2296 -0.0903 -0.0315
52806W        W95797  31.089  31.232  17.288  0.0590 -0.1691 -0.0286
52807W        W95798  20.126  21.592  13.007  0.0369  0.1353 -0.2280
52808W        W95799   2.688  23.437  19.467  0.2349 -0.1782  0.2449
52809W        W95800  27.699  24.196  28.948 -0.2095  0.3264  0.1269
52810W        W95801   8.326   2.862  15.021 -0.1152 -0.3452 -0.2343
52811W        W95802  18.963   9.506  27.655 -0.3472 -0.2036  0.5077
52812W        W95803   1.179  17.208  17.101  0.0489 -0.1485  0.2091
52813W        W95804  25.923  12.809  15.030 -0.0687  0.0982 -0.2190
52814W        W95805   1.121  15.744  19.181 -0.1906 -0.1939  0.0136
52815W        W95806   3.614  33.412  25.315  0.0501 -0.0607  0.3118
52816W        W95807  28.320  26.306  20.860  0.2149 -0.1303 -0.0434
52817W        W95808  32.840   2.185  20.503  0.3034  0.1021 -0.1432
52818W        W95809   0.322  30.795  18.181 -0.0663 -0.1139  0.0534
52819W        W95810  26.225  31.218  13.385 -0.2604  0.0106 -0.2189
52820W        W95811  28.828  24.965  27.626  0.0695  0.0172 -0.1989
52821W        W95812  33.370  25.990  14.023 -0.0622 -0.1428 -0.1532
52822W        W95813  27.146  24.574  21.904  0.0989  0.0103 -0.5815
52823W        W95814   1.723  26.622  28.969  0.1683  0.3935 -0.1268
52824W        W95815  24.049   4.155  27.552  0.3679 -0.1016  0.2758
52825W        W95816   0.488  24.530  16.750  0.0850 -0.1468  0.3270
52826W        W95817  26.112  25.425  22.602  0.0446  0.1353  0.1927
52827W        W95818  33.219  10.961  23.761 -0.0879  0.0238 -0.0853
52828W        W95819   3.156  31.966  20.567 -0.1354 -0.2032 -0.2885
52829W        W95820   5.315  23.712  15.593  0.0255 -0.1556  0.1677
52830W        W95821   3.237  26.009  18.817 -0.0144 -0.1759  0.2782
52831W        W95822  25.251  22.828  28.284  0.1277  0.1305 -0.1085
52832W        W95823  26.672  11.805  25.449  0.1533  0.2612  0.0317
52833W        W95824   9.768  22.871  16.433  0.2921 -0.0689 -0.0900
52834W        W95825   0.955  17.208  19.921 -0.0968  0.0452 -0.0572
52835W        W95826  11.250  12.956  17.778  0.0015  0.0183 -0.1263
52836W        W95827   2.238   8.333  23.181  0.1229  0.0386  0.1284
52837W        W95828   6.485  29.857  15.552  0.2785 -0.2521 -0.3750
52838W        W95829   5.668  12.123  28.787  0.1792  0.1304  0.0140
52839W        W95830   1.542  22.766  17.150 -0.0344  0.0594 -0.2271
52840W        W95831  18.672   0.205  28.974 -0.0399  0.0206 -0.0861
52841W        W95832   7.701  20.989  26.753 -0.0123  0.1071  0.0084
52842W        W95833   8.757   2.110  22.437  0.0960 -0.0492 -0.1076
52843W        W95834   1.343  33.232  21.236  0.0807 -0.1759 -0.1299
52844W        W95835   6.932  28.460  24.495 -0.0308  0.1332 -0.0393
52845W        W95836  12.988  27.753  17.997 -0.0251 -0.2677  0.0776
52846W        W95837   2.041  32.593  20.110 -0.0430  0.3115 -0.1397
52847W        W95838  21.564  32.698  17.578 -0.0614  0.3494  0.1424
52848W        W95839   7.922  27.547  29.149 -0.0947  0.0751  0.0135
52849W        W95840   1.056  32.389  16.448 -0.2719 -0.1823  0.3752
52850W        W95841   4.622  26.781  19.916 -0.3544 -0.2295 -0.2376
52851W        W95842  23.290  10.149  17.345  0.0077 -0.0682 -0.3414
52852W        W95843  28.446  24.305   7.373  0.2684  0.1674 -0.0911
52853W        W95844  30.923  20.024  28.836 -0.2831  0.1398  0.0547
52854W        W95845   6.752   3.423  16.218 -0.2007  0.0838  0.0361
52855W        W95846  23.253  17.148  18.014 -0.0851 -0.0736  0.0534
52856W        W95847  13.287  20.193  22.176 -0.0357 -0.0344  0.1089
52857W        W95848  11.794  23.645   4.191 -0.0653  0.1075  0.1901
52858W        W95849  14.670  33.208   1.631 -0.1221 -0.1669 -0.1431
52859W        W95850  24.853  19.323  26.909  0.1788  0.0501  0.2341
52860W        W95851  22.687  17.001  17.805 -0.1643 -0.0677 -0.0833
52861W        W95852   1.695  24.420  28.915  0.0578  0.0437 -0.1459
52862W        W95853   7.865  14.369  19.840  0.0746 -0.1385  0.2358
52863W        W95854   1.054  34.678  15.179 -0.0767 -0.1079 -0.0637
52864W        W95855   8.488  25.264  22.882 -0.1114  0.2200  0.2505
52865W        W95856  22.969  14.983  15.824  0.1161  0.0115  0.2399
52866W        W95857  25.272  27.262  22.071  0.1787  0.1470 -0.0067
52867W        W95858   7.214  23.133  18.505 -0.0946 -0.5001 -0.0056
52868W        W95859   2.763  28.167  15.860  0.2837 -0.1383 -0.0477
52869W        W95860  31.579  33.680  12.894  0.0077  0.0858 -0.2337
52870W        W95861   5.726   0.773  25.668  0.1741  0.0165  0.1597
52871W        W95862  23.129  20.156  16.807 -0.1111 -0.2761  0.0201
52872W        W95863  32.080  29.017  25.344 -0.0597  0.2640 -0.0332
52873W        W95864  19.194  21.908  20.015  0.3298  0.3781  0.1821
52874W        W95865  31.803   4.959   0.811 -0.0265  0.2521  0.0591
52875W        W95866  33.973  24.843  27.007 -0.1971  0.0835 -0.1334
52876W        W95867  33.492   5.242  20.709 -0.0642  0.2843 -0.3410
52877W        W95868  23.832  18.607   6.779  0.1184 -0.1550 -0.2333
52878W        W95869  25.476  30.511   1.142  0.1161  0.1226 -0.1409
52879W        W95870   5.857  27.081   7.636 -0.0362  0.3237  0.0235
52880W        W95871   5.642   4.863  21.869 -0.0856 -0.0904 -0.1788
52881W        W95872  33.109   8.944  27.752  0.0349  0.0144  0.0347
52882W        W95873   1.953  15.466   0.620  0.4320  0.3277 -0.0482
52883W        W95874   6.431  23.526  14.570  0.2899  0.0479  0.0576
52884W        W95875  28.443  27.584   5.737  0.1488  0.1091 -0.3625
52885W        W95876  28.104  26.285  13.685  0.0763  0.0154  0.1171
52886W        W95877  26.324  21.602  14.595  0.2287 -0.1118  0.4224
52887W        W95878   2.564  34.125  19.781  0.0320 -0.2257 -0.0657
52888W        W95879  14.428  20.509  27.338 -0.0097  0.1429 -0.2995
52889W        W95880  22.399  34.689  18.231  0.1042  0.1371  0.0878
52890W        W95881  28.560  26.123   3.651 -0.3510 -0.3074  0.0935
52891W        W95882   5.910  10.648   9.516  0.1229  0.2621 -0.3169
52892W        W95883  23.234  31.853  18.054 -0.1245 -0.0336 -0.1620
52893W        W95884  30.849  29.193   5.382  0.0740 -0.1378 -0.0098
52894W        W95885  17.115  31.699  22.515  0.1189  0.1979  0.1551
52895W        W95886  17.669  30.677  20.925 -0.0058 -0.1333 -0.0726
52896W        W95887   4.470   5.699  25.853 -0.2772 -0.1905 -0.0240
52897W        W95888  22.082   6.547  28.267 -0.0598  0.0924 -0.0742
52898W        W95889  33.663  15.332   1.602  0.1662  0.0873 -0.0773
52899W        W95890   1.327  25.385  22.758  0.1525  0.3059  0.1772
52900W        W95891  29.257   6.515  14.669 -0.2669 -0.0457  0.2733
52901W        W95892  21.109  20.920   2.834 -0.1523  0.2113  0.1261
52902W        W95893   4.079  23.063  16.481 -0.3094 -0.2743  0.2547
52903W        W95894   3.233  34.226  18.794  0.0659 -0.2606 -0.4697
52904W        W95895  20.431  21.312  27.253 -0.0513  0.0399 -0.1209
52905W        W95896  23.037  26.908  22.744 -0.1706 -0.1224  0.2985
52906W        W95897  26.187  25.280  13.866  0.0448 -0.2678 -0.1067
52907W        W95898  26.566  29.304  21.126 -0.2742 -0.1431  0.1995
52908W        W95899  12.893  24.208  16.894  0.0969 -0.1769  0.1462
52909W        W95900  26.985  20.830  21.040  0.2368  0.2253  0.0613
52910W        W95901  34.232  23.115  17.694  0.2023 -0.0147 -0.1145
52911W        W95902   3.763  16.828  15.794  0.1832 -0.0570 -0.0547
52912W        W95903  29.115  18.129  21.173  0.0605 -0.0912 -0.0732
52913W        W95904  26.174  26.839  28.247 -0.1687 -0.0509  0.0060
52914W        W95905  31.615  29.068  25.407 -0.0440  0.2640  0.0687
52915W        W95906   7.910  25.444  22.935 -0.0927 -0.2965 -0.0173
52916W        W95907  18.689  33.358  20.482 -0.1026 -0.2744  0.4449
52917W        W95908   7.958  19.800  15.538 -0.0059  0.3309 -0.2312
52918W        W95909   4.008  33.023  23.609 -0.0948 -0.1004 -0.2457
52919W        W95910  32.026  33.587  25.371  0.1459 -0.0012 -0.0500
52920W        W95911  29.612  31.092  24.081 -0.1665 -0.0347  0.0181
52921W        W95912   8.761  17.855  19.240 -0.0661 -0.1516  0.0385
52922W        W95913   4.149  30.885  24.497  0.0926  0.1358  0.1495
52923W        W95914  30.799  24.252  21.035 -0.0175  0.0991  0.2974
52924W        W95915  24.596   1.889  21.886 -0.0616 -0.0282 -0.2834
52925W        W95916  25.001  34.766  25.684 -0.0613 -0.2541 -0.0626
52926W        W95917  26.835   1.733  28.819 -0.0997  0.0841 -0.4599
52927W        W95918   6.478  18.506  23.904  0.1722  0.3204 -0.0996
52928W        W95919   1.090  34.008  23.240 -0.3764  0.2230  0.1998
52929W        W95920  24.196  30.145  24.865  0.0930 -0.0354 -0.0219
52930W        W95921  29.595  24.341  15.193  0.2024 -0.0942  0.1086
52931W        W95922  19.380  27.707  13.399  0.2247 -0.2828  0.2265
52932W        W95923  28.144  14.820  14.379  0.2606 -0.2381  0.0705
52933W        W95924   0.361  16.021  20.601  0.0514  0.2014  0.1290
52934W        W95925  33.524  10.893  17.620 -0.1059 -0.0014  0.0193
52935W        W95926  27.998  27.270  17.370 -0.0641  0.0072 -0.0309
52936W        W95927  30.958  30.940  18.704 -0.0456  0.0291 -0.1724
52937W        W95928  14.176  23.377  22.099  0.1003 -0.1644 -0.0419
52938W        W95929  31.328  30.925  29.201  0.0908  0.1731 -0.1490
52939W        W95930   2.858  21.442  23.913  0.2655  0.2382 -0.0343
52940W        W95931  11.213  16.259  16.394  0.0536  0.2789  0.3701
52941W        W95932  12.296  28.963  24.917 -0.1349  0.0227 -0.3306
52942W        W95933   4.839   6.874  18.520 -0.4416 -0.0389  0.1156
52943W        W95934  27.566  24.281  13.631 -0.2147 -0.3387 -0.0794
52944W        W95935  34.030  24.805  21.715 -0.3465 -0.0486 -0.0483
52945W        W95936  18.978   7.776  15.509 -0.1331 -0.0258  0.2822
52946W        W95937   3.061  21.572  25.134  0.2471  0.0252 -0.1099
52947W        W95938  20.660  20.138   0.037 -0.2292 -0.1561  0.0206
52948W        W95939   0.707   2.757   2.990 -0.0985  0.3385 -0.1891
52949W        W95940   0.664  16.271   1.215  0.1754  0.0298  0.1116
52950W        W95941  32.255  32.935  20.491 -0.2162 -0.1502  0.2080
52951W        W95942  33.729  33.826  18.708  0.2108 -0.0392 -0.0964
52952W        W95943   9.936  27.060  27.013  0.1109  0.0583 -0.0097
52953W        W95944  14.878  25.544  21.432 -0.1864 -0.4149  0.3634
52954W        W95945  31.132   7.420  19.573 -0.2917 -0.1246  0.1351
52955W        W95946  19.279  31.212   0.152  0.1735 -0.1409  0.0370
52956W        W95947  34.377   4.857  15.723 -0.1259  0.0086 -0.3351
52957W        W95948   1.484  22.490  18.142  0.1146  0.1111 -0.0416
52958W        W95949  34.633  17.950   0.962  0.1023  0.2428  0.1358
52959W        W95950  14.779   7.311  17.677 -0.1179 -0.0470  0.3844
52960W        W95951  12.999  26.436  18.370 -0.4114 -0.1329 -0.0615
52961W        W95952   8.135  28.494  19.292 -0.1597  0.2536 -0.0447
52962W        W95953  29.404  24.740  16.527 -0.1464 -0.1640  0.1150
52963W        W95954   6.797  21.998  15.634 -0.0636  0.1899  0.2318
52964W        W95955  15.057   9.223  16.073  0.0966 -0.1403  0.0361
52965W        W95956  15.042  33.716  16.289 -0.1013  0.2838 -0.2862
52966W        W95957  13.203   0.679  15.222 -0.1016  0.2813  0.1480
52967W        W95958  26.029  23.175  21.353 -0.3027 -0.2958  0.2909
52968W        W95959   1.007   4.764  22.441  0.3198  0.1048  0.2398
52969W        W95960   3.963  28.907  19.008 -0.1875  0.0012  0.1828
52970W        W95961  32.201  29.072  25.952  0.1115 -0.1450  0.0553
52971W        W95962  24.448  12.471  22.261  0.1741 -0.2143 -0.0501
52972W        W95963  15.862  27.478  24.424 -0.2303  0.0313  0.0657
52973W        W95964   7.154  33.162  15.886 -0.4237 -0.0380  0.0301
52974W        W95965  29.626  33.655  24.268  0.0337  0.0985  0.1867
52975W        W95966   5.126  27.488  16.275  0.2471  0.2848 -0.0663
52976W        W95967  18.836  14.281  26.871 -0.0769  0.1153 -0.0716
52977W        W95968  31.665  31.009   0.771 -0.1360  0.1386  0.2860
52978W        W95969  34.572  13.271  17.865 -0.0298 -0.5185 -0.1732
52979W        W95970   3.943  13.936  25.290 -0.1193  0.0779 -0.1427
52980W        W95971  14.134  27.538  17.749  0.0742 -0.0210 -0.1840
52981W        W95972  33.951  18.014  20.743 -0.1654 -0.1814 -0.0085
52982W        W95973  27.577  26.970  18.550  0.2397 -0.2440 -0.1890
52983W        W95974  15.369  24.665  23.332 -0.0261  0.3767  0.2339
52984W        W95975  23.865  19.819  27.132 -0.1660 -0.0042  0.2744
52985W        W95976   7.916  33.027  15.896  0.0507  0.2314  0.1490
52986W        W95977  19.577  25.006  13.175  0.0032  0.0654  0.1736
52987W        W95978  32.348  21.710  27.310  0.0719  0.4470  0.2887
52988W        W95979  27.984   4.578  23.255  0.2984  0.1017 -0.1174
52989W        W95980   0.182  13.298  20.159 -0.1023 -0.0062 -0.1558
52990W        W95981  33.462  11.775  21.654 -0.3258  0.2852 -0.0781
52991W        W95982   0.506  23.471  16.294  0.0293 -0.0483 -0.1631
52992W        W95983  22.427  24.991  27.654  0.0024 -0.2999  0.0828
52993W        W95984   6.858  15.075  20.688 -0.0192 -0.0572  0.0676
52994W        W95985  13.931  31.313  15.578 -0.0682 -0.3945 -0.1476
52995W        W95986  28.600  13.631  15.941 -0.0062  0.0426  0.2865
52996W        W95987   5.267  26.993  26.751 -0.0144 -0.0839 -0.0667
52997W        W95988  29.405  31.590  16.814 -0.0607 -0.0925 -0.0077
52998W        W95989   6.293  18.893  26.073  0.0916 -0.3186  0.3151
52999W        W95990   9.099  27.567  15.242  0.0750 -0.1664  0.3068
53000W        W95991   1.694  28.873  20.292  0.1972  0.0927  0.1269
53001W        W95992   7.040   0.833  18.013  0.0063 -0.2407 -0.1048
53002W        W95993  26.978  16.674  25.786  0.4095 -0.0019  0.0574
53003W        W95994  32.071  28.222  17.411 -0.1966 -0.0450 -0.2408
53004W        W95995   0.062  17.762   2.609  0.0838  0.1228 -0.0994
53005W        W95996   1.267   5.141  25.121  0.0589  0.0633  0.0841
53006W        W95997  17.027  10.183  21.246  0.1464 -0.2355 -0.0424
53007W        W95998   4.488  22.037  19.641  0.2129  0.4292  0.2169
53008W        W95999  25.402  30.437  13.772  0.0952 -0.3547  0.0098
53009W        W96000  17.916  10.272  18.814 -0.0259 -0.3113  0.2124
53010W        W96001   5.210  16.375  26.327  0.0429  0.1870  0.3071
53011W        W96002  22.799  34.301  23.577 -0.1017 -0.1131 -0.1918
53012W        W96003  22.348  20.756  15.545 -0.0623  0.0886  0.2793
53013W        W96004   9.237   0.702  25.420  0.0618 -0.1853  0.0489
53014W        W96005   4.735  21.400  25.206 -0.2037  0.1008  0.2869
53015W        W96006  10.357   4.984  22.835  0.1595  0.1604  0.2274
53016W        W96007  23.948  13.488  19.791 -0.0399  0.1361 -0.3622
53017W        W96008   3.920  21.339  19.726  0.0871 -0.0029  0.1184
53018W        W96009  31.394  29.757  16.799  0.0668 -0.0036 -0.2391
53019W        W96010  29.352  28.599  24.749 -0.2256 -0.2061  0.0664
53020W        W96011  15.841  24.753  24.998  0.1915 -0.0950  0.2473
53021W        W96012  16.745  18.756  12.913  0.0468 -0.1266  0.0074
53022W        W96013  28.314  32.868  22.453  0.1318 -0.0251  0.0734
53023W        W96014   7.235   5.515  22.735 -0.0908 -0.0639 -0.0393
53024W        W96015  29.897   4.189  16.638 -0.1327  0.0432 -0.0016
53025W        W96016  32.312  14.887  21.666  0.3438  0.2311 -0.1602
53026W        W96017  31.905  21.907  17.671 -0.1063 -0.2054  0.2070
53027W        W96018   2.102  10.884  17.538 -0.0501  0.0424 -0.3149
53028W        W96019  31.448  23.087   0.394  0.0613 -0.0266 -0.0067
53029W        W96020  15.781  14.928  12.091  0.2345 -0.1234  0.0556
53030W        W96021   1.711  15.905   8.700  0.0171 -0.1332  0.0941
53031W        W96022   4.119  26.762   3.154  0.2656  0.1780  0.2269
53032W        W96023  30.628  22.373  14.547  0.0628 -0.0383 -0.1325
53033W        W96024  28.321  33.878   8.429 -0.0230  0.0288 -0.2184
53034W        W96025  28.795  22.494  22.067  0.3034 -0.0757 -0.2488
53035W        W96026  24.402  22.221  13.006  0.2177 -0.1436 -0.0893
53036W        W96027   2.134   8.389  18.090 -0.2641  0.1028  0.1551
53037W        W96028   0.735  13.262  21.978 -0.0173  0.0489 -0.0476
53038W        W96029  22.995  14.210   4.899 -0.1597 -0.2035 -0.1586
53039W        W96030   8.940  11.056  22.435  0.2320 -0.0624 -0.1213
53040W        W96031  19.356  30.101  14.348  0.0114 -0.0235  0.1432
53041W        W96032  24.542  17.465  16.380 -0.1110  0.1714  0.0004
53042W        W96033  10.717  15.226  26.544  0.0171  0.4389  0.3118
53043W        W96034  22.468  21.426  19.149  0.1752 -0.2455 -0.1251
53044W        W96035   3.652  30.123  20.290  0.1274 -0.3116  0.0544
53045W        W96036  17.677   2.011  21.880 -0.2218 -0.2846 -0.1888
53046W        W96037   4.853   2.004   1.213 -0.0374  0.2649  0.1993
53047W        W96038  33.077  25.355  15.621  0.2278  0.0622  0.0302
53048W        W96039  11.694   6.781  19.830 -0.3823 -0.0952 -0.0638
53049W        W96040  22.595  32.333  25.279 -0.0875  0.2916 -0.1813
53050W        W96041  21.889  21.533   0.524 -0.1179  0.0194 -0.0875
53051W        W96042  26.508   1.946  27.211  0.0535  0.1901 -0.0024
53052W        W96043  34.493  30.328  24.508  0.1330  0.3234  0.0468
53053W        W96044  26.236  34.245   3.605 -0.0130 -0.0096  0.1470
53054W        W96045  19.304  25.739  21.588  0.1680 -0.0108  0.3219
53055W        W96046  22.259  30.075  15.026 -0.2101 -0.2155  0.1634
53056W        W96047  30.455  22.655   3.563  0.0645  0.1810 -0.0184
53057W        W96048  26.007  20.874   0.975  0.0059 -0.0556  0.3274
53058W        W96049  19.215  27.949  18.802  0.0899  0.0599  0.3034
53059W        W96050  27.073  16.953  23.113  0.0756 -0.0614  0.0382
53060W        W96051  27.201  33.933  16.678  0.2321  0.0275 -0.2390
53061W        W96052   3.824  19.263  18.282 -0.1941  0.0644  0.2825
53062W        W96053  30.242   5.839  18.331  0.0317 -0.1841  0.2396
53063W        W96054   7.940  15.747  28.577 -0.0935  0.0930  0.0592
53064W        W96055  31.039   3.794   2.954 -0.0481 -0.1251 -0.3760
53065W        W96056  13.520  18.662  26.082  0.2753  0.1039  0.0101
53066W        W96057   0.190   4.701   0.594  0.0804  0.0142  0.4740
53067W        W96058  29.907  23.183  25.976  0.1098 -0.1184  0.2439
53068W        W96059   0.070  27.325  16.895 -0.0479  0.0266  0.1432
53069W        W96060  18.382  22.787   1.053 -0.1072 -0.0170 -0.0523
53070W        W96061   0.622  28.910   0.318 -0.1008  0.0464 -0.1418
53071W        W96062   4.758  24.694   5.079  0.2247  0.1006 -0.0233
53072W        W96063  25.216  30.130  21.437  0.0307 -0.0935 -0.1549
53073W        W96064   1.445   7.141   6.193  0.0305 -0.4131 -0.1994
53074W        W96065  25.249   7.490  19.325  0.1722  0.1525  0.0872
53075W        W96066   1.761  30.641  17.027 -0.0378 -0.3141  0.0551
53076W        W96067  30.276   5.546  26.227  0.0906 -0.0930 -0.2180
53077W        W96068   9.331  20.689  24.416 -0.1727 -0.1845  0.2206
53078W        W96069  18.202  29.324  26.694  0.0750 -0.2113 -0.0628
53079W        W96070  19.457   4.007   0.591 -0.0130  0.0594  0.0692
53080W        W96071  32.603  14.509  21.655  0.0527  0.1027 -0.2686
53081W        W96072  34.338  19.012  18.698  0.4988  0.1838  0.1932
53082W        W96073  28.331  30.347   0.009 -0.2102 -0.2847 -0.3541
53083W        W96074  27.257  14.594  20.486 -0.0014  0.1752  0.1289
53084W        W96075  32.923   0.069  22.649  0.0922 -0.0860  0.1460
53085W        W96076   3.035   3.709  16.578  0.0100 -0.5305  0.0731
53086W        W96077  13.495  31.352  26.795 -0.2024 -0.2478 -0.0525
53087W        W96078   3.201  31.544   2.136  0.1369 -0.0595 -0.1123
53088W        W96079   1.766  25.157   2.961  0.0357 -0.0044  0.2071
53089W        W96080  13.148  13.090  25.438  0.2599  0.2408  0.0886
53090W        W96081  28.554  31.912   2.375  0.1302 -0.0626 -0.0587
53091W        W96082  31.438   0.097   6.659  0.1715 -0.0145  0.2232
53092W        W96083   8.303  23.396  26.496  0.3744  0.2863  0.2032
53093W        W96084  26.031   4.836  25.005  0.2243 -0.3188 -0.1313
53094W        W96085  13.493  24.284  21.561  0.1880 -0.0382  0.2441
53095W        W96086  34.253  24.351  16.643  0.0881  0.2789  0.4762
53096W        W96087   2.281  31.274  24.804 -0.0654 -0.1234 -0.3414
53097W        W96088   1.641  26.041  23.418  0.0957 -0.0365 -0.0256
53098W        W96089   7.879  19.322  20.080  0.1199  0.0690 -0.1719
53099W        W96090  28.298  18.825   7.167  0.1003 -0.1419  0.1886
53100W        W96091  29.565  30.776   3.439  0.0329  0.3344 -0.0580
53101W        W96092  25.548   1.568  27.997  0.0595  0.0583 -0.2249
53102W        W96093  32.341   1.130  16.699 -0.1224 -0.0792 -0.1948
53103W        W96094   6.781  34.105  22.382 -0.1957  0.0136  0.5330
53104W        W96095  28.321   8.978  15.539  0.3865  0.0621  0.1040
53105W        W96096  25.325   3.473  23.465  0.0646  0.1425  0.3063
53106W        W96097  32.653  33.269  21.885  0.1524  0.0700  0.4128
53107W        W96098  12.952  15.534   3.123  0.1611  0.2165  0.4462
53108W        W96099   0.899  24.867  27.237 -0.0888 -0.2816  0.2592
53109W        W96100  31.198   4.528   4.827  0.1487  0.0869 -0.2592
53110W        W96101  29.337  18.562  24.421  0.1824 -0.0897  0.2451
53111W        W96102  32.270  31.094  13.824  0.1074 -0.1101 -0.1579
53112W        W96103  11.734  11.859  19.356  0.0829 -0.0683 -0.1052
53113W        W96104  28.440  34.045   4.326 -0.1067  0.0265 -0.0728
53114W        W96105  34.539  14.607  28.549  0.5684  0.0255  0.2241
53115W        W96106   7.233  29.652  26.535 -0.2463 -0.3236  0.3056
53116W        W96107  30.236  26.811   5.577  0.0635 -0.0372 -0.1100
53117W        W96108  17.038  16.101   8.497 -0.0320 -0.1281 -0.2606
53118W        W96109  34.420   6.014  20.665 -0.0688 -0.0393  0.0561
53119W        W96110   7.622  29.384  21.410 -0.2568  0.0619  0.0488
53120W        W96111   5.040  22.749  24.015 -0.0686 -0.0624 -0.0720
53121W        W96112  30.468  34.197  16.452 -0.1203  0.0102 -0.0827
53122W        W96113  27.475  33.264  14.652  0.1051  0.2947  0.0776
53123W        W96114  24.424  25.838   0.409  0.0293  0.1595  0.2449
53124W        W96115   4.580  33.255  22.013  0.0091 -0.0541 -0.0103
53125W        W96116  33.459  14.212  15.411  0.2947  0.2605  0.0272
53126W        W96117  34.389  12.044   2.890 -0.1251 -0.1043 -0.0945
53127W        W96118  24.112  22.652   3.467  0.3245  0.0356 -0.0223
53128W        W96119   9.623  15.454  21.981 -0.0390 -0.3011 -0.3512
53129W        W96120   7.041  33.963   1.403 -0.1562  0.0376 -0.1125
53130W        W96121  24.437   2.479   0.431  0.0149  0.2176  0.1359
53131W        W96122   0.981  17.376  29.205 -0.0761  0.0039  0.0272
53132W        W96123  13.302  22.661   2.456 -0.1181 -0.0257 -0.0504
53133W        W96124   3.738  23.120  18.579 -0.1737  0.0582  0.0207
53134W        W96125   1.442   0.614  27.746 -0.2705 -0.0928 -0.0808
53135W        W96126  20.989  14.286   7.560  0.3835  0.1098 -0.0938
53136W        W96127  28.531  31.823  23.326  0.1450  0.2015 -0.1845
53137W        W96128  17.979  19.878   8.702 -0.1656  0.1155 -0.1727
53138W        W96129   4.627   7.925  27.619  0.1643  0.0881 -0.0675
53139W        W96130  31.319  19.614   0.280 -0.2306  0.2270 -0.0865
53140W        W96131   8.417  34.338  19.761 -0.0405 -0.0248  0.0970
53141W        W96132  25.623  14.486   3.443 -0.1459  0.3583 -0.4247
53142W        W96133  23.882  23.316  15.710 -0.1294 -0.4164 -0.1166
53143W        W96134  14.909  21.968  15.891 -0.0213  0.1288  0.0967
53144W        W96135  26.811   3.171   0.497 -0.2543 -0.0356  0.4008
53145W        W96136  31.559  32.382  25.328 -0.0039 -0.1343 -0.0200
53146W        W96137  14.807  19.154   2.270 -0.0400  0.4143  0.0379
53147W        W96138   7.549  19.227  26.685 -0.1939  0.0747 -0.2525
53148W        W96139   4.120  29.432  16.575  0.0790  0.0342 -0.1387
53149W        W96140  15.091  26.943  23.648 -0.3257  0.2309  0.2704
53150W        W96141   1.905  31.896  18.657  0.0239 -0.2095 -0.3360
53151W        W96142  31.297   8.449  23.707  0.3582 -0.0473 -0.2310
53152W        W96143   8.020   0.597  20.070 -0.3874 -0.0544  0.2523
53153W        W96144   4.744   4.763  27.576  0.0566  0.1284  0.1560
53154W        W96145  30.930  21.907  28.073 -0.3460  0.0529 -0.1361
53155W        W96146  13.921   7.512  25.001 -0.2298 -0.2038 -0.0278
53156W        W96147  33.961  33.444  26.715 -0.0312 -0.0058 -0.0320
53157W        W96148  31.695   0.218  20.061 -0.1637 -0.0009 -0.3450
53158W        W96149  34.031  21.122   1.620  0.1786  0.1817 -0.0148
53159W        W96150  33.927   3.305  26.066  0.0887  0.0308 -0.4123
53160W        W96151   0.268  29.332   6.167  0.1046  0.0860 -0.1573
53161W        W96152  25.800  33.113  27.612 -0.0135 -0.2964 -0.2033
53162W        W96153  23.183   2.607  19.806  0.2607  0.2040 -0.4380
53163W        W96154  19.444   4.907  21.478  0.1694 -0.1793 -0.1158
53164W        W96155   9.370  20.169  24.013  0.0121 -0.0485  0.1883
53165W        W96156  29.392  18.989  25.733 -0.0533  0.1441  0.1686
53166W        W96157   2.937  30.810  19.046  0.0723  0.1978  0.1291
53167W        W96158   3.192   3.112  17.892 -0.1475  0.2260 -0.0703
53168W        W96159   1.958  33.369  27.738 -0.2109  0.0313 -0.5315
53169W        W96160  21.785  32.355  19.088 -0.1006 -0.3327  0.3830
53170W        W96161  33.598  29.658   5.137  0.2257 -0.1751  0.1902
53171W        W96162  29.238   4.179  19.854 -0.1079 -0.3027 -0.1051
53172W        W96163   9.206  28.688  16.217  0.0934  0.2671  0.1909
53173W        W96164   3.469  32.375   0.022  0.2041  0.1759 -0.0544
53174W        W96165  32.927  15.177  18.788 -0.3530 -0.0143  0.2664
53175W        W96166  32.529  22.129  22.387 -0.1731 -0.1238  0.2143
53176W        W96167  30.157   4.823  18.074 -0.1462  0.0131  0.0514
53177W        W96168  19.978  18.852  14.362  0.0244  0.3080  0.1135
53178W        W96169  26.403   2.695  20.866 -0.1607 -0.1436 -0.0459
53179W        W96170  25.145  25.753  26.074 -0.0265 -0.0067  0.2547
53180W        W96171  32.718   8.948  28.413  0.0361  0.0734 -0.3486
53181W        W96172  31.862  34.675   6.304 -0.0266  0.1970  0.2285
53182W        W96173  28.104   0.815   1.727  0.0424 -0.1200 -0.1894
53183W        W96174   8.915  12.191  23.249  0.0211  0.3934 -0.0322
53184W        W96175   6.456  12.089   3.780 -0.0639 -0.0377 -0.0153
53185W        W96176  22.266   2.981   6.885  0.2309  0.4050  0.1556
53186W        W96177  24.009  20.558  27.829  0.1958 -0.2213  0.0656
53187W        W96178  26.297  18.164   5.532 -0.0931  0.0007  0.1695
53188W        W96179  23.762   8.623  13.902 -0.0511 -0.0357  0.1601
53189W        W96180  10.456   1.805   4.471 -0.1736 -0.1317  0.1635
53190W        W96181  29.810  13.820  23.120  0.0137  0.1146  0.0021
53191W        W96182   1.031  10.883  26.144  0.2564  0.0301 -0.1324
53192W        W96183  21.818  16.671  15.813 -0.1504  0.0363 -0.2668
53193W        W96184  30.230   3.498   0.626 -0.3272 -0.1398 -0.0390
53194W        W96185   5.029  18.034  26.300  0.0247  0.2192 -0.0266
53195W        W96186  17.837  29.260  16.819  0.2711 -0.1322 -0.1251
53196W        W96187  34.772  28.095  26.202  0.0438  0.2565 -0.1192
53197W        W96188  15.404  29.019  16.156 -0.2342 -0.2425  0.1028
53198W        W96189   0.282  32.950  15.550  0.0073 -0.0380 -0.5213
53199W        W96190  33.149  32.755  23.288  0.1931  0.1801  0.1998
53200W        W96191  10.376  23.091  25.322  0.1217 -0.0671  0.2411
53201W        W96192  30.838  25.560   6.792  0.0674  0.2134 -0.2137
53202W        W96193  32.715  20.315  19.717  0.2288  0.1897 -0.0730
53203W        W96194   3.557  30.909   0.629 -0.3277 -0.0835 -0.1612
53204W        W96195  24.879  13.671  25.312 -0.4265  0.3830 -0.0375
53205W        W96196  24.768   2.166  13.328  0.1283  0.1360 -0.2115
53206W        W96197   3.921  29.088  24.403 -0.0685 -0.2551 -0.1023
53207W        W96198  21.271   7.423  17.801  0.1744 -0.2890 -0.0523
53208W        W96199   3.237  26.290  17.858  0.1101 -0.0249  0.1374
53209W        W96200  32.612  31.394  13.466 -0.2259 -0.2398  0.0245
53210W        W96201   0.124  27.499  14.899  0.2891  0.1010  0.3014
53211W        W96202  32.763   1.558  27.768  0.1124 -0.1221  0.0530
53212W        W96203  21.369  31.381  23.047 -0.0314  0.1201  0.0050
53213W        W96204   0.202  31.044  22.155 -0.1304 -0.1517  0.0833
53214W        W96205   5.677  13.302  21.743  0.0422 -0.0232 -0.0527
53215W        W96206   1.279   5.020  16.344  0.1337 -0.0746  0.0493
53216W        W96207  28.597  21.348  16.352 -0.1281 -0.2441  0.0477
53217W        W96208   5.074  25.897   0.813  0.0689  0.0291  0.0746
53218W        W96209  30.960  23.198  15.735 -0.1091 -0.1009 -0.1090
53219W        W96210   2.712  33.543   8.462  0.0014  0.2340  0.1083
53220W        W96211  31.138  12.611  22.057 -0.0067 -0.2607  0.1914
53221W        W96212   9.628  20.333  18.019 -0.0129  0.2165  0.0159
53222W        W96213   0.562  23.387   1.328  0.1117  0.0547 -0.4355
53223W        W96214  27.992  32.770   4.501  0.0682  0.1152  0.3660
53224W        W96215  18.747   4.792  18.236 -0.0676  0.0714 -0.3277
53225W        W96216   5.814  32.217  20.518 -0.2041  0.4286  0.0151
53226W        W96217   6.665  11.837   5.487  0.0874  0.3234  0.0167
53227W        W96218   2.005   1.277  18.491  0.2015 -0.1121  0.1306
53228W        W96219   3.871  29.063   6.693 -0.1256 -0.0180 -0.1475
53229W        W96220   1.774  26.845  21.898 -0.1089 -0.1826 -0.0764
53230W        W96221  27.281  17.984   6.957 -0.1623 -0.4101  0.2637
53231W        W96222  30.480  27.334  28.202  0.2648  0.0556  0.1401
53232W        W96223   5.005  31.510  17.854  0.2956 -0.1360  0.0729
53233W        W96224  32.684  24.343  16.425 -0.0105  0.0608 -0.0383
53234W        W96225   1.903  16.670   1.892  0.0146 -0.0606  0.1490
53235W        W96226  25.850   3.948  19.699 -0.0331  0.0566  0.3129
53236W        W96227   1.733  28.789   0.347 -0.1486  0.0193  0.1294
53237W        W96228  19.511   2.944   1.385  0.2030 -0.2187  0.0529
53238W        W96229   4.431  23.379  16.726 -0.1888 -0.0486 -0.0866
53239W        W96230   6.576  16.192  23.947 -0.0074 -0.0013  0.0928
53240W        W96231   6.218   1.784  24.176 -0.0318 -0.3139 -0.0284
53241W        W96232  15.302  16.118  13.798 -0.2240  0.0892  0.0407
53242W        W96233  27.323   5.722   8.860  0.1116 -0.1772  0.0194
53243W        W96234   1.593   6.529  16.385 -0.2790  0.0868  0.1696
53244W        W96235   0.572   2.158  24.224 -0.0560  0.0519 -0.0631
53245W        W96236  16.951  30.334  14.288 -0.4585  0.2299 -0.2228
53246W        W96237  23.168  25.707  22.437 -0.0983  0.1133 -0.1062
53247W        W96238  27.076  16.431  15.492  0.1314 -0.1741  0.3399
53248W        W96239  28.067  27.042   9.073 -0.0265 -0.0871  0.0802
53249W        W96240  10.605  19.466  17.063  0.0808  0.1188  0.1997
53250W        W96241  29.143   0.871   5.234 -0.2379 -0.3941  0.0245
53251W        W96242  30.220   8.037   5.364  0.0565  0.2052 -0.3264
53252W        W96243   4.164  26.723  16.477  0.1574 -0.4175 -0.1083
53253W        W96244   1.125  28.541  21.057  0.0647 -0.2422 -0.0578
53254W        W96245   4.740  25.347  15.518 -0.0853  0.2358 -0.1299
53255W        W96246   0.300  21.959  24.409 -0.2849 -0.1711  0.0789
53256W        W96247  25.391   8.086  28.675 -0.1436 -0.2257  0.0576
53257W        W96248  14.787   5.592   3.372 -0.1337  0.0601 -0.2202
53258W        W96249  28.632  18.763   2.894  0.1498 -0.1303 -0.2354
53259W        W96250  27.746  30.230  13.407  0.0401  0.0561  0.0619
53260W        W96251  27.059   4.526  15.100 -0.2552 -0.0323  0.0699
53261W        W96252   7.538  18.591  17.409 -0.0169 -0.3699  0.2784
53262W        W96253  33.422  26.214  25.882 -0.0615 -0.0483  0.0946
53263W        W96254  21.303  34.026  26.168  0.0310 -0.0939 -0.0308
53264W        W96255  30.820  32.122   2.698 -0.1963  0.1045  0.1203
53265W        W96256  15.412  20.017  28.565 -0.1362 -0.0654  0.0142
53266W        W96257  31.803   8.783  22.049 -0.0601 -0.0705 -0.2657
53267W        W96258  31.995  18.598   2.753  0.0954  0.1061 -0.0774
53268W        W96259  17.057  27.033  26.208  0.0603 -0.4808  0.0908
53269W        W96260  17.522  10.183  15.786  0.1497  0.0146 -0.0117
53270W        W96261   4.832  14.715   0.382  0.1134 -0.2942 -0.0975
53271W        W96262  32.743   3.947   2.559  0.1506  0.0693 -0.1131
53272W        W96263  27.936  23.427  17.777  0.0804 -0.1922 -0.1244
53273W        W96264   2.531  21.832  23.956 -0.1575  0.0127 -0.2147
53274W        W96265  14.898  24.715   2.472  0.1104  0.1081  0.3997
53275W        W96266   9.794  21.038  15.779 -0.4530 -0.0516  0.0360
53276W        W96267   2.467   9.116  25.706 -0.4329  0.2228  0.0292
53277W        W96268  15.807  31.119   5.477 -0.2178 -0.3419 -0.1220
53278W        W96269  30.483  31.128   0.097 -0.0263 -0.0898  0.0086
53279W        W96270  29.158  28.388  20.137  0.1382  0.0823 -0.1595
53280W        W96271   6.221  32.457   8.337  0.1489  0.0429  0.1422
53281W        W96272  12.688   2.255  29.182  0.1190  0.0967 -0.1938
53282W        W96273  19.078  20.577  16.078  0.1685 -0.0636 -0.2811
53283W        W96274  22.458   4.900   5.954 -0.0553  0.0455  0.0503
53284W        W96275  25.838  25.072  28.622  0.1850  0.3030  0.0282
53285W        W96276   6.922  14.522   8.255 -0.2382 -0.1162 -0.0973
53286W        W96277  34.659  21.781   7.365  0.0614 -0.2324  0.5317
53287W        W96278  33.266  28.689   8.046 -0.0071 -0.0437  0.1414
53288W        W96279   3.059  16.076  27.585  0.4702  0.3118  0.2351
53289W        W96280  31.707  16.593  18.743 -0.1237 -0.0998 -0.1046
53290W        W96281  10.161  27.371  25.003  0.1591  0.2789  0.1695
53291W        W96282  27.370  16.938  28.787 -0.1680 -0.0207 -0.0993
53292W        W96283  27.425  27.882  26.818  0.0376 -0.0542 -0.4183
53293W        W96284   2.241   1.514  26.777  0.1606  0.0503  0.0368
53294W        W96285  30.592  31.404  26.531  0.3315 -0.2054  0.1373
53295W        W96286  13.648  24.298   8.728  0.2424  0.1419 -0.0622
53296W        W96287  34.461   1.764  21.541  0.2568  0.1710 -0.2197
53297W        W96288  34.617  27.943   6.596  0.0532  0.0914  0.1001
53298W        W96289  20.114  22.737   8.022  0.0733 -0.0561 -0.0538
53299W        W96290   5.590  29.409  15.553 -0.2758  0.0929 -0.1215
53300W        W96291  33.804  19.470  20.861  0.0721 -0.2109 -0.0833
53301W        W96292   3.762   6.494   7.834 -0.1540 -0.1467  0.1354
53302W        W96293   4.318  24.462  19.805  0.1500  0.3502  0.1461
53303W        W96294  22.469  30.890   2.041  0.2213 -0.0220  0.3004
53304W        W96295   1.150  26.506  24.894 -0.1218 -0.0873  0.0874
53305W        W96296  34.501   6.592  16.793  0.0816  0.1087  0.2112
53306W        W96297   8.425   3.238  22.876  0.0875 -0.2702  0.3545
53307W        W96298   4.136  15.836  24.891  0.1648 -0.1344 -0.1477
53308W        W96299  20.305  31.199   7.397 -0.1467 -0.2610  0.0913
53309W        W96300   2.499  26.326  14.188 -0.0910 -0.0505 -0.1696
53310W        W96301  21.543  14.872   2.658  0.2246 -0.1199  0.1967
53311W        W96302  26.128   6.958   3.990  0.0602 -0.3242 -0.0215
53312W        W96303  12.976  25.779  24.132  0.3236  0.0643 -0.4630
53313W        W96304   1.835  31.230  18.631 -0.2420 -0.0303 -0.0083
53314W        W96305  10.149  13.962   7.199  0.2281  0.0135 -0.4369
53315W        W96306  32.480  23.997  14.671  0.0046  0.0582  0.0953
53316W        W96307  31.692  24.896  23.368 -0.1209 -0.0883  0.3150
53317W        W96308  31.652   4.256  24.315  0.0558  0.2718 -0.5150
53318W        W96309  30.410  27.981  21.936 -0.0257  0.2826 -0.2605
53319W        W96310   0.866   0.258  21.322  0.1665 -0.2972 -0.0146
53320W        W96311   8.630  23.135  21.912  0.0471  0.0648  0.2779
53321W        W96312  29.164  26.151   1.613  0.2955 -0.0818 -0.0581
53322W        W96313   4.861  18.690  28.630  0.1340  0.1647  0.0818
53323W        W96314   1.695  28.184  24.343 -0.2043 -0.1845  0.1891
53324W        W96315   2.661   2.027   4.297  0.0139 -0.1020  0.1864
53325W        W96316  34.001   0.289  19.818 -0.0366  0.0455 -0.1671
53326W        W96317   4.240  25.912   3.888 -0.3046  0.0654 -0.3109
53327W        W96318  17.969  22.812  20.194 -0.0454 -0.3104 -0.3168
53328W        W96319  27.925  14.794  27.607 -0.0041  0.2397  0.1328
53329W        W96320   9.851  10.667  20.233 -0.0633 -0.0491  0.1279
53330W        W96321   5.131   5.632  22.274  0.2279 -0.0599 -0.1139
53331W        W96322   0.633  14.779  26.066  0.3655  0.1632 -0.0668
53332W        W96323   3.156  18.031   1.982 -0.2683  0.3218  0.4838
53333W        W96324   9.933  18.135   2.966 -0.3029 -0.3591  0.1763
53334W        W96325  10.987   6.606   3.236 -0.1069  0.1452  0.2903
53335W        W96326   6.909  22.323   0.141  0.3204  0.0640  0.1683
53336W        W96327  10.273  11.374  14.760  0.1124  0.1594  0.1821
53337W        W96328   8.372  33.331  28.194  0.0197  0.2014 -0.0840
53338W        W96329  18.489  11.298  23.033  0.1703 -0.3887 -0.2386
53339W        W96330  24.790  30.211  14.417 -0.2223 -0.0755 -0.1159
53340W        W96331   2.086  20.159  10.283  0.2840  0.0950 -0.1429
53341W        W96332  24.567  28.314  27.793 -0.0067 -0.2319 -0.0607
53342W        W96333  23.703  12.664  14.025  0.1907  0.1644  0.0648
53343W        W96334  18.269  30.358  19.796 -0.1042 -0.2899  0.0229
53344W        W96335   7.369  32.469  17.931 -0.0764  0.3985 -0.0467
53345W        W96336   4.197   1.396   3.265 -0.0324  0.0516  0.0197
53346W        W96337  26.893   1.518   2.852  0.3021 -0.2340 -0.1006
53347W        W96338  33.722  33.058   3.729  0.1119  0.1425  0.1575
53348W        W96339  25.831  28.446   0.110  0.1105 -0.2790  0.3742
53349W        W96340  18.190  18.064  28.996 -0.2518 -0.2880 -0.1045
53350W        W96341  29.721  19.647   4.365 -0.0004  0.2130  0.1412
53351W        W96342  28.676  27.574  15.375 -0.1205 -0.0914  0.1121
53352W        W96343  34.426  29.481   5.635  0.0088  0.0672  0.3973
53353W        W96344  31.784  33.778   6.991  0.0581  0.2677 -0.0290
53354W        W96345  29.420  23.236  25.869  0.3723 -0.0780 -0.2205
53355W        W96346  27.144  31.168  27.854  0.1017 -0.1148 -0.0836
53356W        W96347   7.678  24.867   6.219 -0.1463 -0.1649  0.0898
53357W        W96348  13.256  19.341  18.103  0.4806 -0.0934 -0.0477
53358W        W96349   5.580   4.223  19.544  0.3281 -0.0608 -0.0625
53359W        W96350  10.219  19.812   5.430 -0.2553 -0.0613  0.4832
53360W        W96351  27.050  20.796   1.691 -0.0340 -0.2934 -0.1254
53361W        W96352   0.053  26.188  26.784 -0.1385  0.1166 -0.1260
53362W        W96353   0.605  27.853  14.938  0.0183 -0.0999  0.0243
53363W        W96354   1.564  29.684  17.305 -0.0898 -0.2507 -0.3029
53364W        W96355  26.996  32.722   4.265 -0.0834 -0.1147  0.0332
53365W        W96356  12.757  11.396   3.808  0.0606 -0.1065  0.3386
53366W        W96357  24.197   0.912  26.167 -0.1236  0.1123 -0.2142
53367W        W96358  29.776  26.201   7.397  0.1012 -0.4269 -0.2034
53368W        W96359   2.455  22.151  21.961  0.0921  0.3288 -0.1479
53369W        W96360  24.665   2.978  20.233  0.0630 -0.2286  0.0147
53370W        W96361   9.766  28.887  18.081 -0.1041  0.1686  0.2095
53371W        W96362  26.933  20.760   3.665  0.0585 -0.1761 -0.1188
53372W        W96363   5.999  25.779  10.662 -0.2421 -0.3483 -0.1024
53373W        W96364   7.362  21.580  19.709  0.3440  0.1854 -0.1766
53374W        W96365   3.225  32.646  28.605  0.4963  0.2091 -0.0088
53375W        W96366  23.371  14.366  18.374  0.0417  0.0617 -0.1173
53376W        W96367  26.040   3.708  25.471 -0.1608  0.1038 -0.0615
53377W        W96368  34.022   5.448   5.301  0.1306 -0.2090 -0.0806
53378W        W96369   2.428  17.857  19.654 -0.0572 -0.2729 -0.2068
53379W        W96370   8.097  19.193  25.696 -0.0441 -0.4714 -0.0309
53380W        W96371  33.544  25.599  15.736  0.0269 -0.2769  0.0329
53381W        W96372   0.734  19.170  27.908 -0.3308 -0.1436 -0.1723
53382W        W96373   4.769  24.750   6.099 -0.1703  0.1372 -0.0749
53383W        W96374   6.153  19.132   6.237 -0.1851 -0.3001 -0.3365
53384W        W96375  33.231  20.176  20.869 -0.2808 -0.0336  0.2527
53385W        W96376  32.502  29.591  27.364  0.1302  0.2332 -0.1623
53386W        W96377   3.613  21.965   1.389 -0.1181 -0.1201 -0.1049
53387W        W96378   4.857  21.071   3.876  0.0831 -0.1232 -0.1866
53388W        W96379  11.835  14.405   6.620 -0.0987  0.0148 -0.0390
53389W        W96380   1.287  18.394  23.790  0.1572  0.0480 -0.0145
53390W        W96381  18.847  26.752  18.119  0.0325  0.0430  0.1564
53391W        W96382  17.502   6.558   8.115  0.1543 -0.0140 -0.2684
53392W        W96383   1.499  13.806   4.464 -0.2068 -0.2908 -0.0592
53393W        W96384  30.265   1.533   2.456 -0.1991 -0.0165 -0.0844
53394W        W96385  10.063   7.631   3.317 -0.1783  0.1020 -0.2021
53395W        W96386   8.968  26.929  21.263  0.1133  0.0932  0.0867
53396W        W96387   2.187  32.896  20.539 -0.1136 -0.1198  0.2512
53397W        W96388  33.322  19.130   1.642  0.1053 -0.0196 -0.0144
53398W        W96389  24.439  12.059   4.243  0.1264  0.1329 -0.2430
53399W        W96390  18.032  17.173   0.833  0.0503  0.1484  0.0132
53400W        W96391   9.315  28.195  21.799 -0.3022 -0.1391 -0.2766
53401W        W96392  26.971  24.220  19.858  0.1403  0.0462  0.0026
53402W        W96393  29.260   0.200  15.652  0.3513 -0.1521 -0.0648
53403W        W96394  17.601  22.659   2.353 -0.0115 -0.1494 -0.0199
53404W        W96395  23.323  18.675  26.029  0.2109  0.1196 -0.5078
53405W        W96396  17.393  20.325  16.437  0.4019  0.0312  0.0852
53406W        W96397  32.379  34.530  17.553 -0.4103  0.3046  0.1478
53407W        W96398   5.804  25.262  21.685 -0.1372  0.2637  0.1627
53408W        W96399  22.328  26.248   7.429  0.1379  0.0317  0.2767
53409W        W96400  30.175  21.440   5.103  0.2429  0.1036  0.2908
53410W        W96401  16.822   9.545  28.701 -0.0217 -0.0974 -0.1852
53411W        W96402   2.845  22.621  22.902 -0.0500  0.0929 -0.1015
53412W        W96403  27.379  26.736   2.395  0.2960 -0.1520  0.0923
53413W        W96404  30.593   2.422  28.147 -0.2769 -0.1918 -0.2602
53414W        W96405  23.868  33.013  22.618 -0.0743  0.1373  0.0068
53415W        W96406  17.433  28.736  28.097  0.0040  0.0360  0.4272
53416W        W96407   4.788  24.413   6.596  0.0412  0.1342 -0.0363
53417W        W96408  19.711   6.305  20.548 -0.1052 -0.1206 -0.0085
53418W        W96409   8.313  32.718  26.466 -0.2961  0.0797 -0.0869
53419W        W96410   7.167  32.701  25.585 -0.1271  0.0643 -0.5547
53420W        W96411  34.130  26.324  19.403 -0.0508  0.1136 -0.3075
53421W        W96412   0.009  16.566  25.668  0.0255  0.3016 -0.0932
53422W        W96413   4.644  20.507  28.561  0.0776 -0.0133 -0.2104
53423W        W96414   7.272  27.972   9.878  0.1829  0.1036 -0.1117
53424W        W96415  23.577  20.000  15.487 -0.2223  0.4382  0.1557
53425W        W96416  15.025  19.776  13.385 -0.1279  0.1549 -0.4876
53426W        W96417  31.266  23.298  26.177  0.0377  0.2340 -0.0467
53427W        W96418  26.352   8.286  25.092  0.0456 -0.1163 -0.1232
53428W        W96419  26.068  33.951  25.362 -0.0960 -0.2003  0.1498
53429W        W96420   5.065  31.405   2.726  0.1021 -0.0247  0.2881
53430W        W96421  34.769  20.057   3.410  0.0160 -0.0076  0.0171
53431W        W96422  32.531  34.085  26.645  0.3414 -0.0679  0.3231
53432W        W96423   2.643  20.371  29.173  0.2083 -0.2934  0.3992
53433W        W96424  20.796  24.234   1.110  0.2471 -0.0974 -0.1920
53434W        W96425  15.671   9.347  23.371  0.3682 -0.3976 -0.2724
53435W        W96426  30.975  15.996  25.159  0.0424  0.1235  0.0075
53436W        W96427  28.157  23.398   5.266 -0.1578  0.0134 -0.2845
53437W        W96428  26.635  31.961  21.731 -0.0231 -0.0951  0.1642
53438W        W96429  30.123  24.784  25.494 -0.0322  0.0203  0.1112
53439W        W96430  27.010   8.245  28.461 -0.4016  0.2360 -0.0889
53440W        W96431  21.773  33.207  27.006  0.1345  0.1624 -0.1344
53441W        W96432   2.003  33.436   0.212 -0.0281 -0.1330 -0.2643
53442W        W96433  30.403   0.283   0.456 -0.1900 -0.2311 -0.0611
53443W        W96434  34.297  14.105  18.395 -0.4177  0.0423  0.1685
53444W        W96435   7.743  20.112  24.951 -0.2132  0.1705 -0.1710
53445W        W96436   1.499  33.523  15.563  0.1832  0.0928 -0.0210
53446W        W96437  10.258  18.949  26.638  0.0472  0.0266  0.0760
53447W        W96438   6.378  19.742  17.977  0.2221 -0.0968 -0.1208
53448W        W96439   7.361  31.441   1.247 -0.1532 -0.0161  0.0016
53449W        W96440  11.058  14.201  14.935 -0.3391 -0.2826 -0.3183
53450W        W96441  22.540  13.468   6.905 -0.1636  0.0804 -0.4996
53451W        W96442  27.154  23.743  17.859 -0.2295 -0.1682 -0.1419
53452W        W96443   3.702  31.806   3.589  0.1456  0.1841  0.2744
53453W        W96444   3.032   5.974   3.046  0.0048 -0.2851 -0.2280
53454W        W96445  30.560  23.187  28.290 -0.1800 -0.1943  0.0747
53455W        W96446  32.526  17.938  27.766 -0.1216 -0.1252  0.2676
53456W        W96447   2.523  22.674   3.809 -0.1233 -0.4740  0.1067
53457W        W96448  19.694  21.512   8.955  0.2429 -0.1537 -0.3036
53458W        W96449  11.028  28.391   2.538 -0.1179  0.1200 -0.0728
53459W        W96450  29.030  19.660  24.545 -0.0816  0.2561 -0.0251
53460W        W96451   3.214  32.445   1.093 -0.1808  0.2363  0.0951
53461W        W96452  28.439  25.845  17.078  0.2624 -0.1672 -0.2027
53462W        W96453   9.960  27.424  27.470 -0.2457 -0.2709  0.3970
53463W        W96454  16.647  23.661  13.602 -0.1215 -0.2969  0.0470
53464W        W96455   3.531  28.738  22.489  0.1249 -0.1551  0.0000
53465W        W96456   0.590  16.594  17.570 -0.0466 -0.0498 -0.0786
53466W        W96457   7.910  18.875   1.746  0.3270 -0.2164  0.0936
53467W        W96458  20.827  23.401  20.036  0.0394  0.2926  0.0215
53468W        W96459   6.704  26.341  21.990  0.6786  0.1669 -0.0998
53469W        W96460   4.203  19.680  10.562 -0.2034  0.0562  0.2027
53470W        W96461  27.908  24.464   4.407 -0.1260  0.0398 -0.2559
53471W        W96462  26.979  25.228   6.603 -0.0861 -0.0868 -0.1414
53472W        W96463  10.746  24.922  21.146 -0.2649  0.0174 -0.3124
53473W        W96464  27.901   6.175   3.315 -0.0314  0.0151  0.3173
53474W        W96465   6.094  33.705  18.581 -0.1766 -0.2407  0.0698
53475W        W96466   4.603  18.551   2.542  0.0752 -0.0609 -0.1670
53476W        W96467   1.456  20.444   4.729  0.1668  0.0164 -0.1552
53477W        W96468   1.145  19.981   0.282  0.0930  0.1398  0.0122
53478W        W96469  10.839  16.243   4.909  0.0579  0.2214  0.1130
53479W        W96470  30.954  19.465   4.219 -0.1175 -0.0314  0.0547
53480W        W96471   4.042  11.126  22.893  0.1364  0.1668 -0.2017
53481W        W96472  23.120  26.276   0.840  0.1862  0.0604 -0.1151
53482W        W96473  19.817  23.612  15.363 -0.1690 -0.1763 -0.3638
53483W        W96474  26.236  16.895  14.979 -0.1596  0.1706 -0.1219
53484W        W96475   1.566   7.342  15.664 -0.0467 -0.4401 -0.1034
53485W        W96476   4.853  25.774  25.292 -0.4516  0.0172 -0.2228
53486W        W96477  22.286  21.211  21.789  0.0502 -0.2343 -0.1208
53487W        W96478  34.589   0.228  24.123 -0.1273 -0.1458 -0.0362
53488W        W96479   8.256  21.356  23.110  0.0406 -0.3939  0.1480
53489W        W96480  14.692  29.617  18.886  0.1503 -0.0667 -0.3378
53490W        W96481  32.395  16.514  16.638  0.0550  0.2951 -0.0612
53491W        W96482  26.731  11.365  22.485  0.2011 -0.0557 -0.0565
53492W        W96483  10.437  19.905  15.459 -0.2011  0.3180 -0.1110
53493W        W96484   0.374  13.843   8.059 -0.1362  0.0528 -0.2386
53494W        W96485  17.501   2.598   2.895 -0.3089 -0.1783  0.1936
53495W        W96486  18.929  18.541  22.763 -0.0556 -0.0997  0.1269
53496W        W96487   1.542  18.585  23.126 -0.1830  0.2788  0.0065
53497W        W96488  33.539  21.359   0.641 -0.0933 -0.1152  0.0965
53498W        W96489   4.171   2.089  20.774 -0.0755 -0.2884 -0.2031
53499W        W96490   5.451  25.199  28.012  0.3924 -0.3159  0.0720
53500W        W96491  28.493  21.324  18.061 -0.0467 -0.3324  0.1726
53501W        W96492  26.936  20.706  17.199 -0.1508  0.1335 -0.2647
53502W        W96493   1.948  29.305  23.317 -0.3436  0.1547  0.3468
53503W        W96494   2.701  15.244  25.119 -0.1085  0.0094 -0.2397
53504W        W96495   1.531  30.802  24.580  0.3283  0.0053  0.1252
53505W        W96496  19.430  22.484   8.585 -0.0685 -0.1359 -0.0700
53506W        W96497  28.734  22.311  14.770 -0.2618 -0.0567  0.0070
53507W        W96498  30.606  24.154  28.277  0.1686 -0.1167 -0.3231
53508W        W96499  30.462   7.938  26.073 -0.0592 -0.3078  0.1024
53509W        W96500   8.456  13.629  16.230  0.1832 -0.0375  0.1775
53510W        W96501   4.013   4.987   1.145 -0.2971 -0.0572 -0.1338
53511W        W96502  18.067  29.554  27.541  0.2391  0.1591 -0.2839
53512W        W96503   2.399  22.877  17.062 -0.0293  0.0931  0.0552
53513W        W96504   0.995   3.903  17.476 -0.0625  0.0273 -0.2972
53514W        W96505  22.439  18.760  17.746 -0.2131  0.2824 -0.0403
53515W        W96506   0.465  26.773  28.085 -0.0775  0.2297 -0.2907
53516W        W96507  17.694  27.367  13.595 -0.0745 -0.2542 -0.2600
53517W        W96508   3.242  10.603  18.368  0.0229 -0.0993 -0.2380
53518W        W96509  32.073  33.157  14.527  0.0021 -0.1451  0.0270
53519W        W96510  30.130   0.541  13.740 -0.0620 -0.0930  0.2886
53520W        W96511   4.562   9.249  15.578 -0.0162  0.0592 -0.1260
53521W        W96512  34.697   9.076  25.612 -0.4210  0.2129 -0.0143
53522W        W96513  29.856   3.829  23.427  0.1061  0.3085  0.2053
53523W        W96514  14.294  20.935  24.342 -0.0520  0.3946  0.1726
53524W        W96515  13.714   0.448  15.171 -0.0120 -0.1760 -0.1131
53525W        W96516  30.600   9.639  27.880 -0.1944 -0.3945 -0.1129
53526W        W96517   0.453  31.089  17.652  0.3097 -0.0311  0.0217
53527W        W96518   0.071   3.253   8.290 -0.0696  0.4184 -0.0085
53528W        W96519  26.458   5.325  18.614 -0.2417 -0.1925  0.2990
53529W        W96520  14.032  14.042  15.142 -0.3774 -0.1084  0.1043
53530W        W96521  32.501   0.909  25.468 -0.4920 -0.2318  0.1753
53531W        W96522  30.090  33.827   2.322 -0.1520 -0.4492 -0.0778
53532W        W96523   1.816  29.464  19.119 -0.1262  0.1804 -0.1603
53533W        W96524   3.555  28.786  23.321  0.3615 -0.2216 -0.1996
53534W        W96525  10.253  31.215  28.534  0.1815  0.1698 -0.4228
53535W        W96526  17.845  29.972  18.817 -0.0965  0.1537 -0.1207
53536W        W96527  19.565  32.107  15.892 -0.2077  0.2330  0.0615
53537W        W96528  14.906  22.271  20.004  0.1208 -0.0891 -0.1872
53538W        W96529  10.438  13.907   6.135  0.0034 -0.0518 -0.1008
53539W        W96530  28.920  25.954  21.563 -0.1216 -0.2206 -0.1778
53540W        W96531  32.700  29.000  27.621  0.0193  0.0020  0.1502
53541W        W96532  23.648   0.298  18.843  0.0775  0.0163 -0.2661
53542W        W96533  13.288  34.499  20.611 -0.1726  0.1017  0.2741
53543W        W96534  20.922  30.638  26.883  0.2024  0.2726  0.1409
53544W        W96535  32.787   9.277  28.041  0.1709 -0.0528 -0.0043
53545W        W96536   3.788  10.849  25.620 -0.1685  0.1416 -0.0724
53546W        W96537  27.563   1.399  14.842  0.1808 -0.2824  0.2631
53547W        W96538  13.696  29.928  18.526  0.1056 -0.1882 -0.0371
53548W        W96539  32.853  23.882  14.326  0.0197  0.4955 -0.3042
53549W        W96540  30.313  10.477  17.642 -0.1075 -0.0395  0.0248
53550W        W96541   5.550  24.250  14.369 -0.0603 -0.3463 -0.1267
53551W        W96542  34.671  29.707   0.760  0.0920 -0.3500  0.1186
53552W        W96543  25.413   8.744  14.464  0.2781 -0.0507  0.0646
53553W        W96544  20.759  30.866  21.471  0.1897  0.1966  0.2190
53554W        W96545   5.659   1.849  26.378 -0.0856  0.0986  0.3249
53555W        W96546  22.294   0.523  17.263 -0.1966 -0.0760 -0.0506
53556W        W96547  32.916  28.477  24.464 -0.0737 -0.6149  0.0186
53557W        W96548   0.244  28.987  23.636 -0.0217  0.0025  0.2512
53558W        W96549   6.496  31.823  25.117 -0.2694 -0.3242 -0.0534
53559W        W96550  33.393   3.527  26.954  0.3965  0.0632  0.2482
53560W        W96551  22.418  28.442  25.207 -0.0942 -0.1549 -0.0988
53561W        W96552  29.727  17.216  24.267  0.0208  0.0355 -0.0893
53562W        W96553  25.432  17.152  16.669  0.0911  0.2979  0.3368
53563W        W96554  24.406  23.061  17.925  0.1775 -0.0043  0.3063
53564W        W96555  25.531  32.114  14.800  0.0779  0.2924 -0.1451
53565W        W96556   5.592  14.522  18.865 -0.0360 -0.0498 -0.0372
53566W        W96557  10.251  25.541  21.322 -0.1011 -0.0006  0.0868
53567W        W96558  31.694  32.996   6.723 -0.1761 -0.5099  0.0346
53568W        W96559  19.425  29.108  15.981 -0.3135  0.2416 -0.0660
53569W        W96560  29.501  24.378  19.229  0.1509  0.1536  0.0366
53570W        W96561  15.161  10.163  15.258 -0.3627  0.0528 -0.1697
53571W        W96562   3.532   1.816  20.619  0.1160  0.1271 -0.0814
53572W        W96563   2.986  30.342  15.291  0.3237 -0.0630  0.0057
53573W        W96564  25.207   3.237   5.791 -0.0627  0.1619 -0.1060
53574W        W96565   1.851  24.994  26.841 -0.3335  0.1506 -0.2102
53575W        W96566   1.261   2.508   1.381  0.2402  0.1354 -0.0467
53576W        W96567  25.780  22.174  22.666  0.0640  0.0035 -0.0930
53577W        W96568   3.454  17.849   2.884 -0.2504 -0.0224  0.1413
53578W        W96569  21.428   7.249  27.437 -0.0761 -0.0436  0.3397
53579W        W96570   1.647   3.565  22.744  0.1569 -0.3913  0.2087
53580W        W96571  13.395  24.869  24.154 -0.1834 -0.0095 -0.1221
53581W        W96572  29.657   0.854  24.405 -0.2544 -0.1574  0.3508
53582W        W96573  31.427  20.638  16.370  0.0231  0.1281 -0.1084
53583W        W96574   3.399  31.235  22.443 -0.1105  0.0781  0.1726
53584W        W96575   4.279  30.205  20.982  0.4144 -0.3149 -0.2225
53585W        W96576  26.794  30.237  24.705  0.0385 -0.0989  0.0544
53586W        W96577  29.118   9.297  23.274 -0.4669 -0.1307 -0.3270
53587W        W96578   0.569  30.454   4.099 -0.7023 -0.3086 -0.1624
53588W        W96579  33.179  34.365  23.751 -0.2012  0.1110 -0.2318
53589W        W96580  23.142   2.263  29.148 -0.2131  0.1188  0.0204
53590W        W96581   5.665  33.255  24.064  0.0460  0.0681 -0.0241
53591W        W96582  32.076  31.887  18.026  0.3021 -0.2262  0.2350
53592W        W96583  31.891  10.768  26.677  0.2245 -0.1010  0.0915
53593W        W96584  17.433  32.298  18.306  0.1687 -0.0151 -0.1692
53594W        W96585  30.084   7.785  18.782  0.3473 -0.1544  0.1817
53595W        W96586   5.753   5.086  28.228 -0.1363  0.0183 -0.3318
53596W        W96587   4.130  28.770   4.849 -0.0750  0.1947  0.2054
53597W        W96588  33.767  34.695  22.176 -0.1311 -0.2836  0.2912
53598W        W96589  31.907  11.440  28.808 -0.1253 -0.0551  0.0991
53599W        W96590   1.819  29.104  24.756 -0.2341 -0.1748 -0.2711
53600W        W96591  25.698  25.094  16.061  0.0009 -0.0164  0.1640
53601W        W96592  32.815  34.141  20.972 -0.0648 -0.1939 -0.0650
53602W        W96593   3.634   8.745  24.804 -0.4110  0.3374 -0.0293
53603W        W96594  26.499   5.358  28.114  0.2956 -0.2494 -0.0646
53604W        W96595  30.866  32.207   3.728  0.0351 -0.3075 -0.1643
53605W        W96596  34.300  16.024  17.060  0.1763  0.1189 -0.3190
53606W        W96597  25.179   7.007  19.446  0.2432 -0.2308  0.3490
53607W        W96598  25.347  29.924  23.081 -0.0912  0.1623  0.3526
53608W        W96599  22.048   8.971  23.768 -0.1491  0.6286 -0.1585
53609W        W96600  28.290  10.784   7.212 -0.2998 -0.0742 -0.1282
53610W        W96601   9.970  13.998   2.873  0.2101  0.5263  0.1413
53611W        W96602   3.944  21.876  18.487  0.1153  0.1339  0.0925
53612W        W96603  21.127  31.627  23.571 -0.1956 -0.0682 -0.0729
53613W        W96604  28.400   2.712  15.935 -0.0269 -0.1314 -0.1529
53614W        W96605   4.410  34.394  23.828 -0.1336 -0.1716 -0.1927
53615W        W96606   4.252   0.691  21.619 -0.0309  0.0328  0.0969
53616W        W96607  31.569  19.501  19.470  0.1768  0.2789 -0.0056
53617W        W96608  30.667  25.367  16.664  0.2265 -0.0559  0.0992
53618W        W96609  23.568  27.330  13.855 -0.1911 -0.2482 -0.1558
53619W        W96610   5.677  27.909  21.538 -0.0517  0.2374 -0.0672
53620W        W96611  11.481  23.383  26.917  0.0431  0.0124  0.1132
53621W        W96612  34.216  30.148  25.068  0.2643 -0.2553 -0.2107
53622W        W96613  34.192  10.275  24.303  0.0872  0.2351  0.0250
53623W        W96614  31.071   2.747  14.087  0.1168  0.0904 -0.0457
53624W        W96615  19.239   5.654  19.401 -0.2706  0.0006 -0.2189
53625W        W96616  23.327   4.490  20.901  0.1282  0.0816  0.1279
53626W        W96617  20.214  27.199  20.656  0.1942 -0.0183  0.3899
53627W        W96618  26.742  14.694  21.248  0.1644  0.2389 -0.0807
53628W        W96619   2.495  30.916  15.696  0.0592 -0.0614  0.1039
53629W        W96620   3.905   0.921  16.605 -0.0827 -0.1712  0.2815
53630W        W96621  13.118   3.861  19.269 -0.2860  0.2689 -0.0817
53631W        W96622  33.988   7.045  20.785  0.0335 -0.4695  0.0553
53632W        W96623   7.233  23.985  17.503 -0.0228  0.0419  0.1217
53633W        W96624  23.381  10.746  15.664 -0.0031 -0.0223  0.0940
53634W        W96625   9.713  28.084   5.788 -0.0648  0.0055  0.3120
53635W        W96626   3.017  27.846   2.310  0.1212  0.0148 -0.1834
53636W        W96627  32.038  32.930  13.443  0.1708 -0.1042  0.2187
53637W        W96628  20.021  23.809  14.819  0.1294  0.2824 -0.4811
53638W        W96629  29.308  26.953  16.788  0.1260 -0.0774 -0.0628
53639W        W96630  13.557  15.896  14.268 -0.2051  0.0899 -0.2874
53640W        W96631   7.187  25.808  16.635  0.3242 -0.4446  0.2015
53641W        W96632  29.421  18.664  22.533 -0.1811  0.2904  0.4762
53642W        W96633  16.677  13.204  25.771  0.0871 -0.0408 -0.2174
53643W        W96634  23.501  29.598  17.866  0.0970  0.4458  0.1137
53644W        W96635   0.353  27.389  25.836  0.1287  0.1218  0.0287
53645W        W96636   1.875   0.311  26.843  0.1175 -0.0203  0.1812
53646W        W96637   2.191   3.065  21.355  0.1162  0.4134  0.2436
53647W        W96638  25.310   4.414   0.646 -0.2304  0.3087 -0.2447
53648W        W96639  32.945  13.576  24.639  0.1844 -0.0227  0.1842
53649W        W96640  32.574  21.400   1.013 -0.3359 -0.0492  0.1295
53650W        W96641   9.022  11.493  18.940 -0.2593 -0.1655  0.0018
53651W        W96642   1.356   9.205  16.343 -0.0857  0.1550 -0.3310
53652W        W96643  34.232  29.184   1.043  0.2805 -0.2690  0.2294
53653W        W96644  33.078  27.864   4.578  0.3433 -0.0090  0.0760
53654W        W96645  23.514  21.970  14.439  0.1909  0.0741  0.1837
53655W        W96646   0.493   5.962  17.096  0.1864 -0.2060  0.0351
53656W        W96647   3.510   0.224   5.128 -0.1135  0.1048  0.3349
53657W        W96648   7.629  16.437  25.360 -0.2245  0.2602  0.2412
53658W        W96649   8.913  32.857  15.196 -0.1620 -0.0997 -0.0389
53659W        W96650  24.692  13.287  21.773 -0.1868  0.1793  0.0871
53660W        W96651  25.396  23.615  20.735  0.2689  0.3850  0.2175
53661W        W96652   9.846   4.423   0.992 -0.2520 -0.0937 -0.0322
53662W        W96653  29.264  31.160  13.495 -0.2865 -0.0894 -0.2065
53663W        W96654  13.576  31.356   6.953  0.0931  0.0140 -0.0944
53664W        W96655  23.020  31.105  23.755  0.2462  0.0996  0.3843
53665W        W96656  25.845  23.894  17.091  0.3246  0.2206 -0.0052
53666W        W96657  11.874  32.822  22.547 -0.0127  0.2458 -0.0513
53667W        W96658  21.862  22.957  23.037  0.1505 -0.1359  0.0691
53668W        W96659  33.527  33.863  17.895 -0.2055  0.2719 -0.0631
53669W        W96660  27.662  29.945  12.804  0.1730  0.0809  0.0015
53670W        W96661  24.094  29.474  19.257 -0.2139 -0.1641  0.4074
53671W        W96662   4.374  29.527  25.759  0.0824  0.0139 -0.0338
53672W        W96663  26.265   7.114   4.412  0.0002  0.1916  0.1772
53673W        W96664  24.996   3.524  25.141  0.2331  0.2591 -0.2048
53674W        W96665  26.825  28.490  18.217 -0.1595 -0.2203 -0.2731
53675W        W96666  23.227   2.303  18.511 -0.1847 -0.1302 -0.0605
53676W        W96667   9.983  33.940   8.837  0.2031  0.1620  0.0725
53677W        W96668  34.547   4.639  23.794  0.1078  0.0808  0.3452
53678W        W96669   2.045  34.050  22.083  0.1070  0.0984  0.2710
53679W        W96670   4.972   5.261  27.766 -0.1735  0.0019 -0.3058
53680W        W96671  26.139   0.364  15.414  0.2359 -0.1706  0.1807
53681W        W96672  32.589  22.589  18.114 -0.1615 -0.1362  0.0255
53682W        W96673   2.392  27.544  20.152  0.1257 -0.0304 -0.2559
53683W        W96674  25.235  28.190  18.517  0.1230 -0.3622  0.2769
53684W        W96675  33.312  10.390  17.485 -0.0134 -0.0130  0.2546
53685W        W96676  28.368   2.277  13.992 -0.1856  0.0159 -0.0181
53686W        W96677  31.757  30.921  13.902 -0.2631  0.0956  0.1305
53687W        W96678  11.833  31.747  17.950  0.0693 -0.4175  0.1679
53688W        W96679  17.875  25.488  16.532  0.0520  0.0221  0.1181
53689W        W96680  32.771   6.245  18.521  0.0386  0.3336  0.0698
53690W        W96681   8.580  20.260  26.050 -0.0668  0.1867 -0.2973
53691W        W96682  31.756   3.356  15.667 -0.1968  0.3581  0.0786
53692W        W96683  29.294  25.196  20.964 -0.3054 -0.1320 -0.1588
53693W        W96684  12.404   5.466  23.056  0.1934  0.1015 -0.0983
53694W        W96685  29.108  28.635  22.237  0.1037  0.1117 -0.0606
53695W        W96686  22.372  14.006  24.594 -0.0846  0.1274  0.1930
53696W        W96687  24.396  31.617  28.058 -0.3307  0.5983 -0.0678
53697W        W96688  24.496  33.765  19.301 -0.2725 -0.1650  0.1498
53698W        W96689  14.512  31.927  22.395 -0.0273 -0.2754 -0.0375
53699W        W96690  33.265  32.249  15.399 -0.0725 -0.3562 -0.1606
53700W        W96691  29.352  21.917  21.154  0.1134 -0.0448 -0.1403
53701W        W96692   1.671  20.826  20.645 -0.3298 -0.2711 -0.1934
53702W        W96693  22.289  22.872  25.367  0.0566 -0.1281  0.0613
53703W        W96694  20.737  27.535   2.937 -0.2214  0.1653  0.0435
53704W        W96695  24.254   4.571  28.321  0.2339 -0.1436 -0.2666
53705W        W96696  19.496  24.139  20.760 -0.0157  0.2276 -0.1560
53706W        W96697  25.867   3.941  16.562  0.1459  0.0677 -0.1126
53707W        W96698   0.877  26.479  28.131  0.0335 -0.0534 -0.2116
53708W        W96699  27.475  25.956  14.573  0.0124  0.3325 -0.0320
53709W        W96700  16.538  22.952  20.661 -0.1007  0.2559 -0.1439
53710W        W96701   1.545  13.482  27.933 -0.0463 -0.0581  0.0125
53711W        W96702   8.655   1.021  26.094 -0.1931  0.2382  0.2706
53712W        W96703  11.211  33.853  21.703 -0.0798  0.0573  0.0754
53713W        W96704  10.186   5.013  15.653 -0.1508  0.1644 -0.0518
53714W        W96705  32.136   2.534  15.843 -0.0853  0.1277 -0.2315
53715W        W96706  23.404   7.092  23.706 -0.0880 -0.0091 -0.0364
53716W        W96707   0.802  25.715   4.054 -0.3807 -0.1926 -0.3994
53717W        W96708  31.649   9.357  24.610  0.0696  0.0768  0.4356
53718W        W96709  23.903   0.817  19.470  0.0475  0.0161 -0.3322
53719W        W96710  30.001   1.015  21.406  0.1592 -0.2966  0.1104
53720W        W96711  25.038   4.659  17.507  0.1267  0.3005  0.0249
53721W        W96712   0.133  21.020  15.193 -0.4108 -0.1530 -0.0658
53722W        W96713  33.508  25.438  19.807 -0.1861 -0.0038 -0.1340
53723W        W96714  31.292  30.039  16.385 -0.0576  0.1605 -0.1158
53724W        W96715  24.170  24.291  26.610 -0.1177  0.1743 -0.4068
53725W        W96716   2.202  33.086  18.012  0.0724  0.3200  0.0331
53726W        W96717   1.744   0.564  14.623 -0.0790  0.0819 -0.1527
53727W        W96718   6.645  31.922  18.845 -0.1475 -0.0807  0.1459
53728W        W96719  11.772   7.470   0.551 -0.0215  0.0269 -0.1441
53729W        W96720  29.746  17.386   9.110 -0.1464  0.0174  0.0648
53730W        W96721  31.302  17.873  17.758 -0.0389  0.0460 -0.2589
53731W        W96722  34.319  33.814  16.260  0.0305  0.0490 -0.1562
53732W        W96723   7.639   2.056  28.516 -0.0972 -0.0122  0.2637
53733W        W96724   5.942  27.202  19.204  0.0570  0.0207  0.0086
53734W        W96725  27.412   6.986  18.557 -0.2378 -0.2434  0.2017
53735W        W96726   6.385   1.419  18.239 -0.0407 -0.3403 -0.2922
53736W        W96727   1.598  24.368   1.357  0.0526  0.2588  0.0420
53737W        W96728  18.151   3.088  22.525 -0.1217 -0.3712 -0.2511
53738W        W96729   8.029   1.907  17.365  0.0824 -0.0500  0.1628
53739W        W96730  31.629  18.552  26.642 -0.0777  0.0413  0.1751
53740W        W96731  14.814   4.970  16.088  0.3502  0.2953 -0.2642
53741W        W96732   5.080  16.000  20.947 -0.0236  0.3726  0.1310
53742W        W96733  29.084  18.005  13.845  0.2172 -0.1184  0.1534
53743W        W96734   9.796  18.806  19.610 -0.2047  0.2657 -0.3151
53744W        W96735  29.395  22.440  25.640  0.1985 -0.0648  0.0196
53745W        W96736   4.480  25.137  16.155 -0.0355  0.3600 -0.2203
53746W        W96737  22.498   6.143  24.605 -0.2593  0.1778  0.0388
53747W        W96738   1.151  32.669  18.288  0.1134  0.1997  0.1721
53748W        W96739  31.515  10.665  16.710  0.1538 -0.1449 -0.0411
53749W        W96740  26.972   6.001  28.593 -0.1223 -0.2119  0.0082
53750W        W96741   8.127   7.397  18.889  0.2191 -0.1496  0.0963
53751W        W96742   5.636   3.844  27.254 -0.2598 -0.1944  0.2162
53752W        W96743  29.428  14.989  22.111  0.0646  0.0113  0.1104
53753W        W96744  25.996  12.020  18.850 -0.0477  0.2215  0.1738
53754W        W96745   3.399  13.689  11.858  0.0828  0.0021 -0.0623
53755W        W96746  22.858   1.682   1.211 -0.0663 -0.0160 -0.1764
53756W        W96747  33.485  29.563  17.737 -0.0032  0.0176  0.2274
53757W        W96748  32.176  31.347  27.270 -0.1660 -0.1918  0.1215
53758W        W96749  27.907  15.895  16.555  0.0556  0.1875  0.1072
53759W        W96750   5.875   0.396   3.940 -0.0587 -0.0543  0.2824
53760W        W96751   0.906   9.239  18.361 -0.0808 -0.0809 -0.3027
53761W        W96752  24.511   6.831  26.458 -0.1324  0.0206 -0.0354
53762W        W96753  11.904  28.138  19.976 -0.0416 -0.3824 -0.2151
53763W        W96754  34.701   1.388  15.784  0.1428  0.3174 -0.1143
53764W        W96755   5.945  18.060  29.154  0.0072 -0.1087 -0.1378
53765W        W96756  23.175  24.776   0.103  0.1843 -0.0093 -0.0927
53766W        W96757  34.580  32.508  14.213  0.3038  0.0706 -0.0797
53767W        W96758  16.136   1.811  22.499  0.1342  0.0928  0.0595
53768W        W96759  28.085  30.799  26.835  0.1219  0.0107 -0.1553
53769W        W96760  30.534  32.865   2.024 -0.0163  0.1182  0.3541
53770W        W96761  31.839  30.415  17.216 -0.1612 -0.1269  0.1204
53771W        W96762  24.324  14.941  22.379 -0.0132  0.5206 -0.0582
53772W        W96763  34.157  27.226   2.856 -0.3380 -0.0419 -0.1589
53773W        W96764  34.246   7.922  21.066 -0.2691  0.1539 -0.0787
53774W        W96765  14.612  30.255  13.303 -0.0488 -0.3355  0.1907
53775W        W96766   5.629   5.373  22.093 -0.2705  0.0429  0.2659
53776W        W96767  24.762  14.033  29.156 -0.1345 -0.0044  0.0879
53777W        W96768  25.857   1.903  28.876 -0.0034 -0.2461 -0.0442
53778W        W96769  14.697  34.486  16.939  0.5198 -0.1890  0.2892
53779W        W96770  26.552  28.949  17.963 -0.0189  0.1903  0.1695
53780W        W96771  20.709   1.672   3.015 -0.2689  0.0289  0.2470
53781W        W96772  33.066  23.892  18.699  0.0483  0.1091 -0.0309
53782W        W96773  20.722   5.923  27.401 -0.1982  0.0844  0.1587
53783W        W96774  32.917  27.903  21.454  0.1014  0.2591  0.2383
53784W        W96775   7.905  29.722  14.688  0.0261 -0.1212  0.0954
53785W        W96776  25.846  20.025  26.378  0.1615  0.1828  0.1733
53786W        W96777  31.078  16.063  17.056  0.1192 -0.0191 -0.0965
53787W        W96778  26.190  25.861  16.872  0.0693 -0.1550 -0.1043
53788W        W96779  22.274  18.088  24.631  0.0310 -0.1358  0.1895
53789W        W96780  29.004  19.685  20.758  0.2503 -0.0102 -0.2701
53790W        W96781   1.575  23.152  26.773 -0.0732  0.0924  0.0314
53791W        W96782   0.498   2.184   3.587 -0.0248  0.2408  0.2724
53792W        W96783   0.160  28.540   0.429  0.1430 -0.0231 -0.2005
53793W        W96784   3.152   7.345  20.339 -0.0292 -0.1317  0.0073
53794W        W96785   6.214   0.464  15.286 -0.0782  0.0849 -0.3404
53795W        W96786  22.911  28.417  15.293 -0.0825  0.2906  0.1302
53796W        W96787  34.067  32.398  14.957  0.1167 -0.1279  0.0029
53797W        W96788  31.343   0.506  25.406  0.0346  0.3266 -0.1491
53798W        W96789  23.868  27.403   4.203 -0.1746 -0.0947  0.0786
53799W        W96790  33.709  27.379   8.254  0.0676 -0.1139 -0.3069
53800W        W96791  28.505   5.434  14.248 -0.5015 -0.2464 -0.1799
53801W        W96792   8.931   0.047  15.892 -0.1847  0.3814 -0.1569
53802W        W96793  14.851   1.103  21.361 -0.3804  0.1866  0.2161
53803W        W96794   4.138  27.684  27.862  0.2751  0.0974  0.1504
53804W        W96795  17.505   2.364  18.259  0.0022 -0.0666 -0.0562
53805W        W96796   2.591  30.000  13.961 -0.1342  0.0949 -0.2619
53806W        W96797  32.318  20.040  14.537  0.1272 -0.1281  0.4286
53807W        W96798  24.387  18.681  21.393  0.0584 -0.1729  0.0313
53808W        W96799   9.161  34.314  21.296 -0.2777 -0.2582  0.1261
53809W        W96800  31.010  27.766  14.125  0.2444  0.0318 -0.1223
53810W        W96801  32.948  26.286  15.642  0.0979  0.0307  0.1155
53811W        W96802  34.152   0.036  26.333 -0.0132  0.0001 -0.0672
53812W        W96803  21.535  19.574  17.667 -0.1579 -0.0220  0.0213
53813W        W96804   9.644  28.956   2.895  0.1378  0.0141 -0.3160
53814W        W96805  17.096   1.733  20.755  0.0491 -0.0610 -0.2002
53815W        W96806   9.487  26.680  17.853 -0.1679  0.0366  0.1096
53816W        W96807  19.658  27.360  26.377 -0.1446  0.2943  0.4121
53817W        W96808  29.192   1.506  15.635  0.0109  0.0922  0.0956
53818W        W96809  28.252   6.970  17.177 -0.5969  0.0978 -0.0923
53819W        W96810   6.303  32.263  18.684 -0.1711  0.2050  0.1289
53820W        W96811  15.267  10.959  20.979 -0.3372  0.1003  0.1838
53821W        W96812   6.708  16.814  15.728 -0.2743 -0.0931 -0.0964
53822W        W96813   0.364   5.664  17.501  0.1142 -0.2494  0.2241
53823W        W96814   6.086  14.924  28.457 -0.1808 -0.1067  0.0556
53824W        W96815  20.307  14.346  16.415 -0.1739  0.0605  0.3575
53825W        W96816  27.983  24.523  18.263  0.1823 -0.2093  0.0628
53826W        W96817  25.144  34.205  13.072 -0.0848  0.3330  0.3747
53827W        W96818  21.745  26.060   2.857  0.1178  0.0392 -0.2508
53828W        W96819   0.750  21.838  23.528  0.0349 -0.0528  0.1423
53829W        W96820   5.375  28.153  16.251 -0.3412  0.1028  0.2450
53830W        W96821  11.638  25.614  21.818  0.1319 -0.0042  0.1011
53831W        W96822  34.183  27.742   6.432 -0.1405 -0.0022  0.0131
53832W        W96823  22.731  20.799  19.856  0.1880 -0.1425 -0.0466
53833W        W96824  30.724   6.199  21.580 -0.3877 -0.3119  0.3009
53834W        W96825   2.681  25.649  23.812  0.1222 -0.1616  0.0311
53835W        W96826   9.706  29.954  15.791  0.3429  0.2378 -0.1242
53836W        W96827   6.739   5.460  24.992 -0.1490  0.0719  0.1913
53837W        W96828  14.419  28.266   5.167  0.0115  0.1032  0.0309
53838W        W96829  11.513   6.653  18.417 -0.1024 -0.0200  0.0633
53839W        W96830  30.129  22.106  27.639  0.0262 -0.2179  0.2137
53840W        W96831  12.754  34.101  24.403  0.1008 -0.3185 -0.0407
53841W        W96832  28.692  19.247  20.656 -0.0076  0.1147 -0.0878
53842W        W96833  29.946   2.893  22.751 -0.0655  0.0559  0.2092
53843W        W96834   1.505  26.171  19.461 -0.0662 -0.1436 -0.0010
53844W        W96835  31.985  25.929  29.244  0.0386 -0.1224  0.1616
53845W        W96836  27.712   9.692  18.252 -0.0271 -0.3404 -0.1182
53846W        W96837  22.985  19.967  28.555 -0.0604 -0.1815 -0.2754
53847W        W96838  21.492   0.425   1.585 -0.1826 -0.1722  0.4136
53848W        W96839  31.809  27.988   3.438 -0.2711  0.1685  0.1284
53849W        W96840  16.160  21.293   1.437  0.1659 -0.1516 -0.1455
53850W        W96841  16.690  30.971  22.607  0.0032  0.2737 -0.3005
53851W        W96842   3.345   1.573  17.463  0.2129 -0.0652 -0.1285
53852W        W96843  29.321  13.633  23.088  0.3562 -0.1561  0.1880
53853W        W96844  30.119  11.226  19.626  0.1595 -0.0422  0.0329
53854W        W96845   9.448  21.359  13.858  0.0920  0.0205  0.1130
53855W        W96846  26.554  18.878  16.714 -0.1979 -0.1034  0.1540
53856W        W96847  27.409  27.979  22.794 -0.0483 -0.3841 -0.3744
53857W        W96848  26.758  30.789   8.804 -0.2275 -0.2150  0.0112
53858W        W96849   7.724  27.157  15.288 -0.1124  0.0229 -0.1408
53859W        W96850  32.833   4.815  25.303  0.3505  0.1170  0.2689
53860W        W96851   9.368  26.521  18.290 -0.0047 -0.0778 -0.0496
53861W        W96852  30.846  24.459  28.034 -0.3197  0.0927  0.1684
53862W        W96853  24.137  32.875   4.269 -0.1423 -0.0187  0.2037
53863W        W96854  16.396   0.172  21.243  0.1882 -0.2584  0.0620
53864W        W96855   8.397  13.461  14.978  0.3596  0.1044  0.0320
53865W        W96856   4.332  32.198  25.190 -0.0253  0.1907 -0.3795
53866W        W96857  32.107   4.442  14.665  0.1460 -0.0004  0.0434
53867W        W96858   9.180  21.897  19.844  0.1178 -0.2545 -0.0349
53868W        W96859   2.084  19.863   5.236  0.1646  0.1905 -0.0924
53869W        W96860  10.133  24.065  13.975 -0.0810 -0.4100 -0.1052
53870W        W96861   3.959  29.085  14.599  0.2055 -0.0021  0.0955
53871W        W96862   1.137   2.227   6.398 -0.0993 -0.1182 -0.1711
53872W        W96863   9.808  21.188   2.741  0.0414 -0.1957  0.1395
53873W        W96864  21.054   7.493  15.324  0.1232 -0.2098  0.0414
53874W        W96865  27.889   4.903   1.741 -0.0370  0.0243  0.3996
53875W        W96866   6.052  16.514  28.855 -0.0030  0.0053 -0.2982
53876W        W96867  27.890   5.126  16.211 -0.1394 -0.3387 -0.0608
53877W        W96868   7.329   4.171  25.594 -0.0418 -0.0611 -0.1258
53878W        W96869  29.174  19.219  23.629  0.2751  0.1064 -0.4193
53879W        W96870   2.999  32.399  20.350  0.0265 -0.1972 -0.1589
53880W        W96871   8.147  27.526  20.525 -0.3310 -0.2977  0.1740
53881W        W96872   1.320   6.702  25.215  0.1297  0.0476  0.1442
53882W        W96873  29.431  32.564  18.703  0.2501  0.3201  0.1288
53883W        W96874  17.945  34.706  25.645  0.1738  0.1052 -0.0060
53884W        W96875   3.198  22.747  23.245 -0.1747  0.1947 -0.3045
53885W        W96876   0.286  18.348  20.296  0.1205  0.1809  0.1141
53886W        W96877   8.873  33.660  19.210 -0.0074 -0.1086 -0.0187
53887W        W96878   2.956  22.236  26.786 -0.2851 -0.2850 -0.0950
53888W        W96879  17.412   4.810  25.170 -0.1796  0.0038  0.3013
53889W        W96880  10.115  23.008  26.951  0.0328 -0.2212 -0.0833
53890W        W96881  27.597   0.846   2.014 -0.1158  0.2370  0.0506
53891W        W96882  16.774  33.799  16.750  0.1382  0.3204  0.1352
53892W        W96883  12.570  12.676  18.128  0.1937 -0.0068  0.1548
53893W        W96884  34.213  34.458  21.416  0.2195 -0.0125  0.3885
53894W        W96885   5.106  19.847  16.605 -0.1590 -0.1126  0.0888
53895W        W96886  28.002  11.385  14.268 -0.0710  0.0389 -0.0403
53896W        W96887   6.269  19.873  24.104 -0.2656 -0.1782  0.0984
53897W        W96888  26.217   9.508  25.134  0.0453 -0.0780 -0.1424
53898W        W96889   1.030  10.017  18.497 -0.0702  0.1492 -0.0065
53899W        W96890  26.030  26.608  14.751  0.1921 -0.2094 -0.1958
53900W        W96891  33.477  30.694  14.340  0.1341  0.0253 -0.0829
53901W        W96892  26.472   9.305  16.406 -0.2184  0.2070  0.0616
53902W        W96893  24.114   7.665  17.442 -0.4708 -0.2233  0.0302
53903W        W96894   3.402   3.434  24.447  0.1499 -0.2022 -0.1402
53904W        W96895  26.000   7.616  24.536 -0.0842  0.0436  0.2407
53905W        W96896   4.332  20.398  18.687 -0.0685 -0.0800 -0.0128
53906W        W96897   4.743   2.269  16.085  0.0592 -0.1275  0.2816
53907W        W96898  18.889  24.014  20.918  0.0453  0.2021 -0.0260
53908W        W96899  30.873  28.848  16.842 -0.1576 -0.3318 -0.2117
53909W        W96900  25.701  33.318  18.569 -0.0427 -0.0567  0.2028
53910W        W96901  15.228   9.630  22.101  0.2536 -0.2545  0.0033
53911W        W96902  28.279   7.486  17.641  0.0857  0.0594 -0.0895
53912W        W96903   9.751  29.992  25.917 -0.0667  0.0697  0.0132
53913W        W96904  33.351   0.586  16.092  0.0643  0.0041  0.2404
53914W        W96905  25.813  10.132  15.436  0.0967  0.2297 -0.0334
53915W        W96906  12.797  25.978  25.905 -0.1123  0.2196 -0.1601
53916W        W96907  32.895  32.287  15.094  0.2838 -0.2933  0.2690
53917W        W96908  33.346  33.355   2.040  0.1805  0.0221 -0.2047
53918W        W96909   5.543  24.985  22.194 -0.1982 -0.2070  0.0062
53919W        W96910  13.410  34.163  22.181  0.0498  0.3005 -0.0669
53920W        W96911  19.839  19.464   5.750  0.1302 -0.2377 -0.1428
53921W        W96912  15.985  28.086   1.710  0.2981 -0.1975  0.0593
53922W        W96913  13.973  23.677  25.395  0.0634 -0.0537 -0.0170
53923W        W96914  34.276   9.323  17.814  0.2106 -0.0640 -0.1362
53924W        W96915   4.450  13.023  26.373  0.0227 -0.1421  0.0381
53925W        W96916  23.203  34.759  16.053 -0.0200 -0.2731 -0.1702
53926W        W96917  10.771  20.621   2.952  0.1978 -0.0971  0.1264
53927W        W96918  28.947  20.429  21.378  0.0220  0.1590 -0.0829
53928W        W96919  21.647   8.914   6.295 -0.0582 -0.0955  0.0061
53929W        W96920  30.383   6.632  19.666 -0.3361 -0.3909  0.0426
53930W        W96921   2.139  28.224  20.811  0.1131 -0.0202  0.1476
53931W        W96922  32.638  28.282  15.647  0.2879 -0.1477 -0.0677
53932W        W96923  29.985  18.036  20.497  0.2684  0.0569  0.2297
53933W        W96924  23.329  22.134   6.477  0.1241  0.1168  0.0160
53934W        W96925  29.697  23.248  21.944 -0.0613  0.4347  0.0154
53935W        W96926  25.141  24.565  21.297  0.3544 -0.0509 -0.0164
53936W        W96927   1.943   0.238   0.717 -0.1566  0.2628 -0.0630
53937W        W96928   0.539  24.536   8.152 -0.0490 -0.1540 -0.1389
53938W        W96929   6.381   1.403  16.303 -0.0131 -0.1103  0.3912
53939W        W96930  31.904  19.799  16.726 -0.1498 -0.0708  0.2832
53940W        W96931  25.932  28.112  26.813  0.0234 -0.1107  0.0162
53941W        W96932  33.543  17.249  21.980  0.0492 -0.3394 -0.1485
53942W        W96933  32.823   1.141  14.538 -0.1806  0.1105  0.2175
53943W        W96934  29.348  23.870  26.247 -0.0886 -0.0899 -0.0192
53944W        W96935  20.411  26.805  15.803 -0.1344 -0.0211 -0.1643
53945W        W96936   0.286  32.940  18.945 -0.1652 -0.0280  0.0042
53946W        W96937  19.820  25.701  18.219  0.2587 -0.2000 -0.0293
53947W        W96938  13.428   2.679   2.993 -0.0716  0.1328  0.2111
53948W        W96939  34.106   5.324  23.099 -0.0053  0.0838  0.0531
53949W        W96940  12.108  28.122   0.884 -0.2528  0.5117 -0.1887
53950W        W96941   4.738   3.932   0.269 -0.0702  0.0524 -0.2373
53951W        W96942  29.667  23.072  27.276 -0.0341  0.1239 -0.2031
53952W        W96943  31.432  28.632  15.451  0.0639 -0.1755 -0.2343
53953W        W96944  19.896  20.894  15.895  0.1310  0.2233  0.0611
53954W        W96945  30.740  25.270   3.417  0.1075 -0.1645  0.5258
53955W        W96946  33.937  24.657   5.533 -0.0356 -0.0209  0.0992
53956W        W96947  14.453  26.003  15.105 -0.0932 -0.0260 -0.1721
53957W        W96948  21.553   3.201   2.319  0.0831 -0.1894  0.1170
53958W        W96949  32.298   5.176  23.387 -0.1326  0.2444 -0.2683
53959W        W96950  32.726   3.295  21.887  0.0104 -0.2956  0.1888
53960W        W96951   3.717   4.209  25.370  0.0060 -0.0972  0.1533
53961W        W96952  29.587  24.989  28.503  0.0133  0.3025 -0.2357
53962W        W96953   9.074  34.789  14.624  0.0532  0.1292  0.0279
53963W        W96954  21.551  11.029  22.107 -0.3014 -0.1833  0.3028
53964W        W96955  10.070   4.688  26.240  0.0612 -0.2695 -0.0773
53965W        W96956  20.731  12.331   5.483  0.1886 -0.1777  0.2393
53966W        W96957  18.199  29.370  16.419  0.3130 -0.3232 -0.2887
53967W        W96958   5.729  31.974  15.521  0.2006 -0.1381  0.1944
53968W        W96959  20.566   9.427   5.374 -0.0234  0.1860  0.1083
53969W        W96960  26.190  14.323  26.832  0.0636  0.0854  0.1423
53970W        W96961  20.204   6.694  13.736  0.2093  0.1277 -0.0453
53971W        W96962  22.892  18.481  24.528  0.3526 -0.0828 -0.0922
53972W        W96963  12.723  24.411   2.594 -0.1537 -0.0026  0.1124
53973W        W96964  21.304  12.822  15.253  0.4050 -0.2544 -0.0147
53974W        W96965  13.768   0.915   1.674  0.0230 -0.1087 -0.0540
53975W        W96966   3.496   8.066   0.472 -0.0323  0.0375  0.1729
53976W        W96967   8.801  32.203  24.404 -0.1217  0.0697 -0.0132
53977W        W96968   9.911  12.798  21.668 -0.1508 -0.1041 -0.0466
53978W        W96969  26.681  27.372  17.327 -0.4279 -0.0100  0.3500
53979W        W96970   3.324  25.740  15.578  0.3319 -0.0248 -0.3101
53980W        W96971   2.817  26.438   3.148 -0.0252 -0.0701  0.0821
53981W        W96972  12.358  30.293  23.788 -0.2175  0.1275 -0.0925
53982W        W96973   5.906  31.517  18.418 -0.0974 -0.1006 -0.0747
53983W        W96974   7.060   2.060  22.760  0.0164  0.5129 -0.1202
53984W        W96975   6.446   1.901  20.034 -0.0761  0.2102 -0.2188
53985W        W96976   9.910   8.519  20.499 -0.0355  0.3491 -0.2107
53986W        W96977   6.278  24.000  25.876 -0.1836  0.1063 -0.1589
53987W        W96978  27.798  30.958  26.452  0.1127 -0.2767 -0.0640
53988W        W96979  24.723   2.911  21.101 -0.2229 -0.0795 -0.0985
53989W        W96980  30.174  10.966  14.689 -0.1192  0.1112  0.2145
53990W        W96981  14.808  25.427  23.145  0.2071 -0.0092 -0.2148
53991W        W96982   3.777  24.218  22.623 -0.0004  0.4134 -0.2326
53992W        W96983  29.514   6.182  23.915 -0.0995 -0.3600 -0.0298
53993W        W96984   3.495  25.344   4.157 -0.1039  0.0657  0.2468
53994W        W96985  33.966  30.971  19.141 -0.1208 -0.1714 -0.1086
53995W        W96986   5.262  17.758  25.044 -0.0935  0.5444 -0.1857
53996W        W96987   6.442  21.720  27.002  0.0451  0.2451  0.1854
53997W        W96988  29.302   5.107   2.770 -0.0787 -0.5500 -0.0208
53998W        W96989  26.490  10.874  25.312 -0.1464 -0.0100 -0.1122
53999W        W96990  30.259  30.802  22.208 -0.0628  0.0404 -0.1943
54000W        W96991  12.996  34.538  18.131 -0.1122 -0.0198  0.4743
54001W        W96992  34.222   3.185   1.956  0.1020 -0.2856  0.0264
54002W        W96993  27.892  26.143  16.017  0.1427  0.0296 -0.2117
54003W        W96994  12.622   5.268  20.889 -0.0992 -0.5410  0.1982
54004W        W96995   3.680  22.007  22.726 -0.1595 -0.0326  0.1795
54005W        W96996  30.234  29.836  29.213  0.1712 -0.1833  0.0065
54006W        W96997  27.894   8.522  23.552  0.3507  0.7004  0.3288
54007W        W96998   3.053  26.616  20.350  0.0121  0.1530 -0.1353
54008W        W96999  30.483  29.230  14.915 -0.4677 -0.0657 -0.1696
54009W        W97000  28.488   1.603  27.981 -0.0281  0.0500 -0.2070
54010W        W97001  23.139   7.667   1.340 -0.2709 -0.2400  0.0746
54011W        W97002  24.634  26.364  17.030 -0.0282  0.0653 -0.0219
54012W        W97003   8.895   0.938   6.100  0.0673  0.2669  0.1349
54013W        W97004   2.748  21.618   3.163  0.0388  0.1160 -0.1218
54014W        W97005  28.676  30.769  17.838 -0.1326  0.1020  0.2527
54015W        W97006   3.522  32.237  18.076 -0.3170 -0.0550  0.1301
54016W        W97007   1.628  29.635  26.228 -0.0019  0.0344 -0.0460
54017W        W97008  23.283  28.601  24.214  0.0226 -0.0532 -0.2074
54018W        W97009  10.367   2.234   2.110  0.0416 -0.0983 -0.2907
54019W        W97010   2.489   2.066  18.331  0.2060 -0.1246 -0.3644
54020W        W97011  30.540   2.514   2.389 -0.2848 -0.0566  0.0820
54021W        W97012  31.048   8.904   1.934  0.0738  0.1687  0.2537
54022W        W97013  29.692   4.840  22.283 -0.0306 -0.0068 -0.0222
54023W        W97014   9.662  22.867  27.119 -0.2970 -0.0259 -0.0130
54024W        W97015   6.559  19.990   3.225  0.3240 -0.1913 -0.2785
54025W        W97016  34.785   7.847  18.127 -0.2026 -0.2967 -0.0048
54026W        W97017   7.146  18.428   5.345  0.2089 -0.1019 -0.1359
54027W        W97018   7.487  26.853  26.102  0.2299 -0.1025  0.0396
54028W        W97019   6.218  27.386   0.954 -0.2298  0.2043  0.1952
54029W        W97020  28.797   7.438  17.889 -0.4720 -0.3368 -0.0215
54030W        W97021  24.822  26.743   1.200 -0.0954  0.0838  0.2377
54031W        W97022   9.041  26.112  18.040 -0.0577 -0.3126  0.2529
54032W        W97023  26.258  28.136   5.416 -0.0864 -0.4905  0.0554
54033W        W97024  31.852  19.281   9.425  0.0331  0.1339  0.2687
54034W        W97025  13.430  20.481   1.858 -0.2106  0.2209  0.0416
54035W        W97026  15.727  15.813   3.836  0.1537 -0.0092  0.1994
54036W        W97027  30.915  33.520   4.853  0.0151 -0.2238  0.0002
54037W        W97028   3.602  27.506  16.212 -0.1129  0.1841  0.0985
54038W        W97029   2.186  19.383  24.603 -0.0366 -0.4688  0.0010
54039W        W97030  28.655   6.271   5.492 -0.2017  0.1154 -0.1789
54040W        W97031  21.028  30.868   7.104  0.0844 -0.0598 -0.1304
54041W        W97032  16.045   8.671  27.545  0.4097 -0.2658  0.0693
54042W        W97033  34.345  25.281  25.454 -0.0498  0.0335  0.1051
54043W        W97034   1.707   4.166  18.471  0.1993 -0.1201 -0.0041
54044W        W97035  10.805   7.699  16.862  0.0678 -0.1590 -0.2978
54045W        W97036  12.148  29.751  19.105  0.1421  0.0349  0.1027
54046W        W97037  29.398   2.395  25.487  0.0564  0.1660  0.3209
54047W        W97038  13.173   7.046  17.889  0.0733  0.0001  0.1405
54048W        W97039  20.016  10.280  14.053 -0.2076  0.0895  0.0814
54049W        W97040  27.428   3.505  14.429 -0.1837 -0.0453 -0.0881
54050W        W97041  33.463  26.826  17.080  0.3089 -0.0467 -0.0374
54051W        W97042  28.730  34.079  24.680 -0.2858  0.2506  0.1298
54052W        W97043   4.092  15.444  26.769  0.0183 -0.0171 -0.1336
54053W        W97044   7.054  26.195  20.140 -0.4414  0.1709  0.2982
54054W        W97045   9.705   2.184   5.402  0.0228 -0.0081  0.0336
54055W        W97046  30.713  26.968  18.303  0.0133 -0.1512 -0.1023
54056W        W97047  24.303   2.574  19.168 -0.0483  0.0750  0.0947
54057W        W97048  27.657   7.919  27.785  0.2363 -0.1475 -0.0232
54058W        W97049   7.258   8.446   2.930  0.1358  0.1020 -0.0212
54059W        W97050   3.411  28.830   2.001  0.0162 -0.0707 -0.4225
54060W        W97051  28.995  10.448   8.442 -0.3054  0.0668 -0.0434
54061W        W97052  28.111  34.519   1.313 -0.1303  0.0932 -0.0615
54062W        W97053  31.333  15.016  15.530  0.0588 -0.0921 -0.2184
54063W        W97054   8.225  29.824  25.004  0.1391  0.1194  0.0028
54064W        W97055   0.208  30.966  23.015  0.2736  0.1798  0.1121
54065W        W97056   5.828   5.624  23.384  0.1637 -0.1819  0.4222
54066W        W97057  24.083   3.640  16.092  0.1627 -0.0417  0.0884
54067W        W97058  15.831  33.006  19.035 -0.2064 -0.0332  0.1461
54068W        W97059   5.885   8.476  25.444 -0.2535  0.0081 -0.0842
54069W        W97060  29.650   4.004  28.620  0.0510 -0.0362 -0.0982
54070W        W97061   8.252  30.188   0.201 -0.1716  0.0724  0.1472
54071W        W97062  31.631  32.578  29.075 -0.1916  0.2650  0.3604
54072W        W97063  25.017  29.039  24.799  0.2094 -0.3157  0.3727
54073W        W97064   1.613  11.504  22.473 -0.1336 -0.0658 -0.0172
54074W        W97065  33.479  21.814   0.963 -0.0569  0.0185 -0.2071
54075W        W97066   8.824  33.871  14.846  0.1172 -0.0641  0.2282
54076W        W97067  34.211  34.326   5.705  0.0137  0.1417 -0.2075
54077W        W97068  25.659  27.840  25.524  0.1336  0.3785 -0.2321
54078W        W97069  30.488  25.573  25.183  0.3492 -0.2094  0.0551
54079W        W97070  33.878  31.091  20.282 -0.0122  0.2501 -0.0823
54080W        W97071   2.942   8.163   1.559 -0.0067 -0.1992 -0.0781
54081W        W97072  16.278  33.587   8.203  0.0880  0.2661 -0.2480
54082W        W97073  24.509  29.431  14.550  0.0095 -0.1164 -0.3325
54083W        W97074  25.159   6.494  24.920  0.0553  0.0158 -0.1161
54084W        W97075   2.119   3.979  18.046 -0.0708 -0.2013 -0.0630
54085W        W97076  10.213   2.347  24.343  0.1403  0.1050 -0.1230
54086W        W97077  22.001  26.094  14.290  0.2445 -0.2533  0.0306
54087W        W97078   2.690   4.557  18.278 -0.0387 -0.3902  0.0884
54088W        W97079  28.480   1.448  24.410  0.0572  0.1408 -0.1877
54089W        W97080  25.959  30.891  14.762 -0.1092 -0.0166 -0.0986
54090W        W97081  30.384  13.132  10.650 -0.3198  0.0716  0.2087
54091W        W97082  17.508  34.296   1.461  0.0381 -0.0777 -0.2515
54092W        W97083  29.363  12.227   3.445  0.1939 -0.1810 -0.0546
54093W        W97084   5.267  17.149  18.830  0.0804  0.0052  0.0510
54094W        W97085  15.056  15.893  22.380 -0.1280  0.2951 -0.2856
54095W        W97086   1.681  30.445   9.639  0.3946 -0.1229 -0.1542
54096W        W97087   6.671  16.123  26.142 -0.1168  0.2434 -0.1296
54097W        W97088  28.925  29.914  23.442 -0.1380  0.1714  0.2499
54098W        W97089  34.110  27.719  20.352 -0.1084  0.2998 -0.0264
54099W        W97090  32.896   6.533  17.609  0.1111  0.4044  0.0232
54100W        W97091   6.192  27.185  18.659 -0.1794 -0.2295  0.0283
54101W        W97092  26.155  24.005  13.509  0.1102  0.3615  0.0567
54102W        W97093   8.354   6.396  19.893  0.0718 -0.1338  0.3895
54103W        W97094  30.009   6.959  25.192 -0.1004  0.4053  0.0894
54104W        W97095  20.546  31.711   3.530  0.1074 -0.1509 -0.1292
54105W        W97096  11.350  16.096   4.777  0.2328  0.3698  0.0830
54106W        W97097  33.113  13.353  27.126 -0.1319 -0.1533  0.0322
54107W        W97098   3.284   5.585  18.447 -0.0349 -0.0023 -0.0669
54108W        W97099   8.348   6.762   6.320 -0.0972 -0.0935  0.0460
54109W        W97100   3.008  30.835  24.311  0.2382  0.1395  0.1981
54110W        W97101   0.902   9.415  29.260 -0.1180 -0.2938  0.0911
54111W        W97102  14.059  29.057  17.038 -0.0262 -0.0526 -0.0401
54112W        W97103   4.996  32.951   0.523  0.2112  0.2882 -0.0164
54113W        W97104   9.217  21.237   5.251 -0.0769 -0.1626 -0.1441
54114W        W97105  19.816  29.242  24.113  0.3062 -0.2175  0.5221
54115W        W97106   1.402  27.424  28.473 -0.0192  0.0172  0.1748
54116W        W97107   3.186  28.374  15.595 -0.0271 -0.1925 -0.0197
54117W        W97108  22.762  23.811  22.215 -0.0284  0.0486 -0.1701
54118W        W97109  32.258  21.403  10.735 -0.1695  0.0335  0.1304
54119W        W97110  16.730   0.067  17.401 -0.1595 -0.0691 -0.0428
54120W        W97111   2.756  27.870   0.766  0.0335  0.2595  0.0323
54121W        W97112   4.149  24.046   6.747  0.0265 -0.3043 -0.0687
54122W        W97113  24.616  12.889  23.404 -0.3316 -0.1492 -0.1407
54123W        W97114  25.778  16.372  27.645 -0.1144 -0.4421  0.1217
54124W        W97115   5.015  33.706  16.890  0.0404 -0.3036 -0.1347
54125W        W97116   4.248  31.943  16.994 -0.3586  0.1425  0.2860
54126W        W97117   2.102   7.253  22.774  0.0387  0.2183 -0.2875
54127W        W97118   4.277  33.788   7.599  0.0021  0.3306  0.1246
54128W        W97119   7.909  28.313   2.218  0.0184 -0.0564  0.0556
54129W        W97120  30.517  28.793  20.803 -0.1898  0.4924  0.0709
54130W        W97121   1.923  27.438  21.171 -0.2470  0.3800  0.1164
54131W        W97122   1.183   6.831  15.139 -0.1788 -0.2534 -0.2018
54132W        W97123  28.441  31.848   3.551 -0.1698  0.3523 -0.1412
54133W        W97124  24.738  33.756   2.421  0.0528 -0.2124 -0.0789
54134W        W97125  32.815   2.750  28.763 -0.3915 -0.2421 -0.0433
54135W        W97126  33.290  28.581  14.152  0.0928  0.0176 -0.2068
54136W        W97127  13.239  34.482  18.567  0.1492 -0.1528  0.0994
54137W        W97128  29.696   9.504  27.727  0.0194 -0.0573 -0.2873
54138W        W97129  21.852   1.082   3.296  0.1582  0.1007 -0.3470
54139W        W97130  16.858  29.422   1.355  0.0617 -0.0969 -0.0589
54140W        W97131   0.959   2.561  19.882  0.0348 -0.0193  0.1189
54141W        W97132   3.345  23.588   2.829  0.1950  0.0081  0.2620
54142W        W97133  27.268  24.914  23.599  0.0582 -0.0056 -0.0007
54143W        W97134  27.477  30.339  19.027 -0.1873 -0.0948  0.0551
54144W        W97135   9.743  23.995  15.314  0.2375 -0.0268 -0.0431
54145W        W97136  25.076  22.043  27.609  0.2365  0.4235 -0.1205
54146W        W97137  23.211  29.290  16.598  0.0183  0.0137  0.0859
54147W        W97138  26.036  20.532  26.281  0.1047 -0.0150 -0.0784
54148W        W97139   7.266  16.583  26.009  0.0758 -0.3244 -0.2196
54149W        W97140  16.182  17.783  14.964 -0.0099 -0.3713  0.0703
54150W        W97141  17.516  28.827   1.298 -0.3011  0.0760 -0.3519
54151W        W97142  31.526  30.650  15.604  0.0316 -0.2701 -0.0940
54152W        W97143   4.875  23.083  23.556 -0.3133  0.1600 -0.0327
54153W        W97144   7.750  30.479   0.421  0.0385 -0.0497  0.1917
54154W        W97145   2.149  27.717  20.818  0.0081  0.1288 -0.0161
54155W        W97146  31.093  33.483  28.560  0.1438 -0.0645 -0.0655
54156W        W97147  32.113  33.060  27.141  0.1250 -0.1376  0.1587
54157W        W97148   9.769  32.416  19.736  0.0540  0.0731  0.3499
54158W        W97149  23.310  23.749   6.101 -0.0005 -0.0622 -0.0942
54159W        W97150  27.490  18.876   9.633 -0.1275 -0.0661  0.2394
54160W        W97151  29.584  26.913  16.365 -0.1340  0.0463 -0.1839
54161W        W97152  31.327  25.703  18.041  0.0418 -0.1123  0.3907
54162W        W97153   9.744  27.419  17.539 -0.0545  0.0786  0.0211
54163W        W97154   0.602  21.652   2.191  0.0103  0.0503  0.0601
54164W        W97155  33.949  33.319  28.665  0.1274  0.2206  0.2154
54165W        W97156   1.717   4.863  25.138  0.1039 -0.0972 -0.1669
54166W        W97157   4.688  34.697   1.795 -0.1430  0.0150  0.1075
54167W        W97158   2.893  26.839   1.161 -0.0615  0.1693  0.0588
54168W        W97159  33.391  29.116   7.375  0.0050 -0.1204 -0.0024
54169W        W97160  25.390  33.981  23.164 -0.1569  0.0756 -0.1117
54170W        W97161  23.121   5.073  14.662  0.0897 -0.0795 -0.0053
54171W        W97162  23.803  33.348  18.229  0.2374  0.0101  0.1382
54172W        W97163  10.552  32.082  27.862  0.1710  0.0254 -0.1919
54173W        W97164  29.992   7.048  26.173  0.3825 -0.2892 -0.0985
54174W        W97165   5.845   6.932  25.482 -0.0468 -0.1540  0.1889
54175W        W97166  25.505   7.316  23.677  0.2337  0.1915  0.4085
54176W        W97167  17.131  24.342  23.087  0.0405 -0.0527 -0.1374
54177W        W97168  15.023   0.824  17.304  0.2235  0.1562 -0.0928
54178W        W97169   1.393  29.328  25.739 -0.1392  0.2482  0.0000
54179W        W97170  20.877  15.445  17.814  0.1947 -0.0394  0.2856
54180W        W97171  33.708  27.558   2.036 -0.0280 -0.4722 -0.1231
54181W        W97172  27.935  17.587  17.662  0.1578  0.2588  0.0838
54182W        W97173  34.463  25.066  21.061 -0.0052  0.0964 -0.1387
54183W        W97174  11.791   1.599  16.681 -0.2788  0.0021 -0.0957
54184W        W97175  23.202  27.754  23.087 -0.0150  0.2387 -0.0638
54185W        W97176   2.370   1.526  24.025 -0.1070  0.0707  0.0185
54186W        W97177   3.709   3.183  23.968 -0.0458 -0.0759  0.5224
54187W        W97178   5.839  30.175  17.037 -0.2506  0.1246 -0.2409
54188W        W97179   1.689  27.237  16.852 -0.1445 -0.1074  0.0386
54189W        W97180  27.751   4.905  25.310 -0.1548 -0.0649  0.2618
54190W        W97181  27.795   5.379  18.437  0.2226  0.2924 -0.1744
54191W        W97182   3.434  20.447  18.669 -0.0496  0.0261 -0.2588
54192W        W97183   1.824  23.494  25.414 -0.1707 -0.2625 -0.3661
54193W        W97184   8.232   4.872   5.252  0.2247  0.1108  0.1119
54194W        W97185  32.078  25.337  23.207 -0.1372  0.0013  0.2610
54195W        W97186  14.599  33.194  17.339  0.1467  0.3371 -0.0772
54196W        W97187   5.004  11.484  23.291 -0.1415 -0.1450  0.1182
54197W        W97188  31.711   6.869  27.469 -0.1252  0.0781  0.2180
54198W        W97189   4.726  16.794  16.133 -0.1960  0.0095 -0.1270
54199W        W97190   2.753   6.333   0.505 -0.0876  0.1664 -0.1603
54200W        W97191  28.370  32.515  20.870  0.1260  0.0829 -0.1639
54201W        W97192   9.237  22.312  28.511  0.0294  0.0664 -0.1064
54202W        W97193  13.788  16.452  28.688 -0.1621 -0.0089  0.2837
54203W        W97194  12.128  32.719  24.420  0.2040 -0.1654 -0.0219
54204W        W97195  32.319   2.464   1.036 -0.0132 -0.2131 -0.0044
54205W        W97196  13.470  25.754  26.530 -0.0461  0.2080  0.0643
54206W        W97197   2.631  24.665   1.334 -0.0268  0.0698 -0.0718
54207W        W97198  12.124  24.920   5.734 -0.3698  0.3052 -0.0065
54208W        W97199  33.305  25.639  24.957 -0.1689  0.1283 -0.1336
54209W        W97200  28.300  25.441  26.752 -0.1494  0.1291 -0.0091
54210W        W97201   1.884   5.210  22.154 -0.0661 -0.0256 -0.1600
54211W        W97202  33.992   0.343  21.472  0.1892 -0.2789  0.1897
54212W        W97203  24.582  25.946  27.462 -0.0936  0.1612  0.1821
54213W        W97204  27.988  24.698   3.579 -0.3119  0.1291 -0.1380
54214W        W97205   9.059  24.219   8.976  0.2855 -0.0475  0.0547
54215W        W97206  29.134  27.329   3.925  0.0551  0.3873  0.1279
54216W        W97207   5.202  33.592  10.886 -0.2228 -0.5431 -0.4135
54217W        W97208  28.802   4.799   0.533  0.0416  0.0604  0.1284
54218W        W97209  17.846   8.055   2.334 -0.0293 -0.0107  0.0649
54219W        W97210  12.031   8.074  23.382  0.1225 -0.3970  0.1038
54220W        W97211  22.987   4.486  15.768  0.0844 -0.0437  0.0315
54221W        W97212   5.305  11.645   3.472 -0.0777  0.0485 -0.0107
54222W        W97213  32.573  21.960  24.959 -0.0926  0.0104  0.0289
54223W        W97214  26.448  22.529  21.592  0.0720  0.0958 -0.1362
54224W        W97215  23.402  27.640   7.982  0.4631  0.0953  0.1602
54225W        W97216   1.844  31.625  29.263 -0.0614 -0.0300 -0.0445
54226W        W97217   0.290  25.752  26.867 -0.0469  0.1977  0.1972
54227W        W97218  34.512   1.192   3.823 -0.1158  0.0756 -0.1608
54228W        W97219  26.244  11.551   7.527  0.0268  0.1084  0.0355
54229W        W97220  25.501  26.144  14.117 -0.4210  0.0394 -0.4058
54230W        W97221   4.033  32.749   5.288 -0.2384 -0.1123 -0.1814
54231W        W97222  16.254   3.860   4.541 -0.0089 -0.1063 -0.4314
54232W        W97223   4.065  16.432   5.770  0.0448 -0.1882  0.2003
54233W        W97224  25.647   7.719   5.581 -0.0601  0.0508  0.4710
54234W        W97225  15.504  27.821   7.095  0.1156  0.1015 -0.0890
54235W        W97226   5.165  32.731  25.542 -0.2172 -0.0482  0.0384
54236W        W97227  23.386   0.794  24.537  0.0976 -0.1910 -0.2951
54237W        W97228   4.787   5.054  24.500 -0.2888 -0.0490 -0.3905
54238W        W97229  23.294  14.201  24.014  0.2074 -0.1782 -0.0046
54239W        W97230  27.358  34.539   2.202  0.0339 -0.1911 -0.3027
54240W        W97231   3.210  17.761   2.378 -0.0953 -0.1674  0.4095
54241W        W97232  16.440  28.508  28.987 -0.2613  0.0071 -0.1207
54242W        W97233  32.138  30.348  13.252  0.1264  0.2300  0.1066
54243W        W97234   6.750   5.419   1.957  0.0452 -0.0697  0.0076
54244W        W97235  26.183   3.170  19.180  0.2186  0.1197  0.0673
54245W        W97236  17.466   3.443   6.403 -0.0719 -0.0863  0.3834
54246W        W97237   0.124  20.757  26.664  0.3545 -0.1737 -0.0382
54247W        W97238   8.998  32.407   1.975 -0.1873  0.2341  0.1035
54248W        W97239  16.854  28.093   4.710 -0.0503 -0.1940 -0.1984
54249W        W97240  10.890  29.205  20.439  0.0729 -0.0464 -0.1539
54250W        W97241   1.461  32.568  19.585  0.6326  0.0862 -0.2561
54251W        W97242   8.906  12.811  18.113 -0.0973 -0.0510 -0.4717
54252W        W97243  29.313   0.630   2.652  0.1474  0.3071  0.0195
54253W        W97244  34.262  26.647   9.331 -0.2857 -0.0937 -0.1804
54254W        W97245   1.277   3.473   4.587 -0.1562  0.0069  0.0314
54255W        W97246  30.221   4.339  26.134  0.0747 -0.0816 -0.0388
54256W        W97247   7.432   9.746  22.801  0.0868  0.1356 -0.2381
54257W        W97248   8.123   3.593   0.415  0.4749  0.3089 -0.1654
54258W        W97249  31.840  11.601   7.971 -0.0111  0.0361  0.0469
54259W        W97250  24.471  27.252  21.752  0.2402 -0.0954 -0.0118
54260W        W97251   6.196  29.020  14.918 -0.2404 -0.0946 -0.1207
54261W        W97252  28.992  28.975  14.675 -0.0991  0.2485 -0.4768
54262W        W97253  33.986   0.044  26.971 -0.0832  0.3682 -0.0984
54263W        W97254  26.689  33.180   2.545  0.3021  0.1117  0.0602
54264W        W97255  24.088  15.399  14.242 -0.1572  0.0873 -0.1741
54265W        W97256  27.337   0.877   7.502  0.1057 -0.0309  0.3260
54266W        W97257   9.357  12.131  15.837 -0.0380  0.3826  0.0745
54267W        W97258  26.254   6.224  19.201 -0.2183 -0.3095 -0.1617
54268W        W97259  23.106  15.258   3.229 -0.0032  0.0123 -0.5183
54269W        W97260  33.695  33.606  14.496 -0.0651 -0.1542 -0.4330
54270W        W97261  28.731  10.438  24.373  0.1024 -0.2872  0.0437
54271W        W97262  14.367  26.445  17.627 -0.4755  0.1425  0.1437
54272W        W97263  29.370  12.310  23.946  0.1558 -0.1558 -0.1142
54273W        W97264  29.754  27.157   4.622 -0.1188 -0.2743  0.1485
54274W        W97265  21.733  33.924   3.110 -0.1703  0.2161  0.1002
54275W        W97266  21.172  12.852  21.918 -0.1111 -0.0003 -0.0927
54276W        W97267  29.662   8.181   8.645  0.0320 -0.0855 -0.1268
54277W        W97268   1.208   3.334  26.013 -0.0213  0.0057  0.0816
54278W        W97269   2.923   1.557  15.311 -0.1424  0.3428  0.0128
54279W        W97270   0.379  23.406  22.610  0.0998  0.3844 -0.1870
54280W        W97271  32.579  30.129  26.895 -0.4280  0.1965 -0.1354
54281W        W97272  10.586  29.049  17.745  0.2164 -0.2415 -0.2214
54282W        W97273   3.702  26.779  21.046 -0.0723 -0.0780 -0.0072
54283W        W97274   3.954  13.946   2.935  0.0985  0.1039  0.3285
54284W        W97275  32.704  17.938  27.309 -0.2022 -0.0446  0.4961
54285W        W97276   4.439   0.273   6.188  0.0937 -0.2848  0.1044
54286W        W97277  25.496  31.734  24.123  0.0638 -0.0309  0.1794
54287W        W97278   0.683   1.488  23.328 -0.0362  0.3131 -0.0450
54288W        W97279   7.666  22.358  19.007 -0.1500 -0.1328  0.1802
54289W        W97280  30.530  15.540   1.314 -0.0924  0.2747  0.0333
54290W        W97281  15.490  34.664   2.294  0.0290  0.0603  0.0357
54291W        W97282  34.614  33.709  25.000  0.0967  0.2721  0.4112
54292W        W97283  32.603  17.564  19.963 -0.1765  0.0376  0.0043
54293W        W97284  23.403  26.761  22.426 -0.0731  0.1324  0.0339
54294W        W97285  21.305   3.547  23.210  0.2842  0.0130 -0.1180
54295W        W97286  31.722   0.460  15.239  0.0541  0.0995  0.2926
54296W        W97287  12.603   5.139  28.799  0.2362 -0.1372  0.1614
54297W        W97288   6.959  24.528   7.407  0.0070  0.0567 -0.0587
54298W        W97289   1.974  26.431   1.686 -0.0998  0.2108  0.0352
54299W        W97290  28.730  24.826  22.653  0.1916 -0.0676  0.0129
54300W        W97291  22.881   6.253  27.689 -0.0779  0.0518  0.1848
54301W        W97292   1.170  28.032  24.321  0.2510  0.1113 -0.2131
54302W        W97293  18.519  26.992   2.199  0.1535 -0.0852  0.0956
54303W        W97294  29.622  31.409   0.293  0.1092  0.2766 -0.1206
54304W        W97295   1.094  31.754   4.628  0.1579 -0.0463  0.0034
54305W        W97296   1.235   2.292  16.119 -0.0125 -0.0760  0.0122
54306W        W97297  27.947   0.493   5.304  0.2175 -0.0248 -0.0526
54307W        W97298  19.165  30.153   5.474  0.1629  0.0060  0.3003
54308W        W97299  28.835  18.203  18.614 -0.0745  0.1815  0.0793
54309W        W97300  28.504   7.065  26.125  0.2078  0.1309  0.2509
54310W        W97301  28.495  25.049  19.314  0.1963 -0.0444 -0.1805
54311W        W97302  17.650  28.826   8.684  0.5040 -0.0919  0.0402
54312W        W97303  18.367  14.581  23.609 -0.0341 -0.1041  0.1259
54313W        W97304   0.273  16.187  27.305  0.1387 -0.1628 -0.0101
54314W        W97305  28.581  12.380  28.914 -0.2150 -0.0212  0.0072
54315W        W97306  28.702  34.217   4.663 -0.0344  0.1492 -0.0561
54316W        W97307   5.331   4.618   3.986 -0.2541  0.0550  0.2430
54317W        W97308  24.261  32.854   6.028  0.2462 -0.0959 -0.1855
54318W        W97309  32.496   0.817   5.671  0.2442 -0.0997 -0.0175
54319W        W97310  33.958  25.081  10.637  0.0230 -0.2366  0.1225
54320W        W97311  31.127  19.726  19.898 -0.3958  0.3979  0.0474
54321W        W97312   6.427  31.581  15.084  0.1767 -0.1779  0.2940
54322W        W97313  25.350  30.505  21.071 -0.2104 -0.2530 -0.3731
54323W        W97314  25.645  15.571   4.286 -0.2465 -0.4323  0.4787
54324W        W97315  29.120  30.772  23.002  0.0673  0.0537 -0.2207
54325W        W97316  29.064  26.424  16.112  0.4995 -0.1311 -0.0158
54326W        W97317   9.672  18.459   8.106  0.1462 -0.1680  0.0816
54327W        W97318   3.264  10.554  16.428 -0.1442  0.0057  0.5861
54328W        W97319  30.443   4.980  18.468 -0.3089 -0.0627 -0.2995
54329W        W97320  12.989   7.824  29.121  0.1734 -0.0535 -0.0383
54330W        W97321   6.932  10.752  19.692  0.0886  0.1573  0.0599
54331W        W97322  32.770  30.966  25.188  0.1006  0.0152  0.3670
54332W        W97323   6.194  17.330  24.682 -0.2415 -0.2321  0.1572
54333W        W97324   1.629   2.754   5.121  0.2407  0.1102  0.0641
54334W        W97325  18.566  28.033  23.103 -0.2704  0.2174  0.0464
54335W        W97326  13.486  33.507  20.750 -0.1174 -0.2774  0.1031
54336W        W97327  34.573  31.768   1.391 -0.2565  0.2489  0.4299
54337W        W97328   3.566  27.203   8.124  0.0310  0.1637  0.1235
54338W        W97329  26.432  20.328  23.992 -0.0010 -0.0115 -0.3730
54339W        W97330  10.089  26.039   8.112  0.1306 -0.0339  0.0285
54340W        W97331  34.105  22.153  17.554 -0.3218  0.3636  0.1733
54341W        W97332   2.982   1.245  27.311 -0.0424 -0.2838 -0.3435
54342W        W97333   6.187  32.676   2.056 -0.1006 -0.2581  0.0662
54343W        W97334   1.270   0.807  29.258  0.2751 -0.0691  0.1079
54344W        W97335   9.948  18.918  16.143  0.1208  0.0676 -0.2357
54345W        W97336  27.610  10.438  27.365 -0.1181 -0.1562 -0.2903
54346W        W97337  24.317  28.394  27.241 -0.3489 -0.0461 -0.1232
54347W        W97338  29.090   9.541  16.821  0.0742  0.1256  0.1991
54348W        W97339  27.101   7.296   0.899 -0.0903 -0.2043  0.1280
54349W        W97340  32.262  29.867  29.216  0.1487 -0.0246  0.1189
54350W        W97341  17.264   5.642   9.095 -0.3176  0.1170 -0.2924
54351W        W97342  28.361  18.934   5.092  0.1296  0.1368 -0.0731
54352W        W97343  32.811   3.890  25.363 -0.3500 -0.0576 -0.0338
54353W        W97344  29.460   4.342  15.083 -0.0484 -0.1100 -0.1338
54354W        W97345  25.634  23.559  27.834 -0.0092  0.3906 -0.0199
54355W        W97346  28.315  14.387  21.402 -0.0917  0.1265 -0.1174
54356W        W97347   3.252  32.060  24.407 -0.1358 -0.0249 -0.3065
54357W        W97348  19.675  23.803  28.510  0.0638 -0.0596 -0.0481
54358W        W97349  20.454   0.330   7.300 -0.2763 -0.0538  0.1152
54359W        W97350  34.771  32.265  23.254  0.1085 -0.0247  0.0212
54360W        W97351  22.502  13.106  28.507  0.0478 -0.3961  0.1141
54361W        W97352   1.752   9.625  18.588 -0.1014 -0.2017 -0.2225
54362W        W97353  20.987   8.106  13.381  0.1984  0.1235 -0.3486
54363W        W97354   0.116  24.662  23.953 -0.0697  0.0516 -0.1358
54364W        W97355  34.244   2.798  29.091 -0.1178  0.3076 -0.0458
54365W        W97356   7.750   2.740  18.132 -0.0268 -0.0993  0.0661
54366W        W97357  18.421  24.178  25.417  0.2292  0.0428  0.1339
54367W        W97358  19.783   1.819   8.684 -0.0615 -0.0417 -0.2192
54368W        W97359   9.356  19.679  19.221 -0.0182 -0.2857 -0.0275
54369W        W97360   0.506  31.537  17.427 -0.1279 -0.1190 -0.0763
54370W        W97361  30.324   1.345  23.974 -0.0014 -0.1595 -0.1288
54371W        W97362   8.811  18.875   8.422  0.0482  0.1582  0.1557
54372W        W97363  32.179   8.418  20.249 -0.1044  0.2557 -0.0623
54373W        W97364  27.764  31.706  18.193 -0.1488 -0.3140  0.0411
54374W        W97365   2.044   4.355  24.566 -0.2793  0.2403  0.0252
54375W        W97366  28.267   7.339  15.132 -0.0974 -0.3559  0.2105
54376W        W97367  10.161  26.936   1.123  0.0689 -0.5228  0.1018
54377W        W97368  27.580   8.528  18.207 -0.5373 -0.0899  0.2626
54378W        W97369   9.632   0.294  26.820  0.1760 -0.3035  0.1122
54379W        W97370   2.674  32.505   0.123 -0.0719 -0.0678 -0.2055
54380W        W97371  14.477  12.437  24.887  0.0668 -0.0700  0.0368
54381W        W97372  32.782  21.103  24.743 -0.2523  0.3706 -0.1017
54382W        W97373  13.384  23.525  21.545  0.1386 -0.2583  0.1868
54383W        W97374  18.579  18.748  22.475  0.2443  0.1344  0.2461
54384W        W97375  11.064  34.575   7.938 -0.2968 -0.1689 -0.3773
54385W        W97376  28.387  11.856  24.239  0.1605 -0.2283 -0.1628
54386W        W97377  12.901  18.340  13.853 -0.0986  0.1390  0.1459
54387W        W97378  24.031   7.857  20.476  0.2278 -0.1906  0.1136
54388W        W97379   3.841  21.963   2.936  0.0782  0.0504  0.0647
54389W        W97380   2.718  25.599  17.164  0.0710 -0.1861  0.1066
54390W        W97381  30.551  21.970  24.034 -0.1948  0.2393  0.0391
54391W        W97382  27.478  12.339  13.950  0.3145 -0.0286 -0.1260
54392W        W97383  19.846  30.612   3.933  0.3575  0.0090  0.1678
54393W        W97384  17.320  34.146  17.588 -0.1120 -0.3401  0.0575
54394W        W97385   6.349   6.369   1.182  0.1176 -0.2210  0.2923
54395W        W97386  19.999   3.002   2.988 -0.0182  0.1835  0.3108
54396W        W97387   1.492  29.647  26.739 -0.3301 -0.3809 -0.2667
54397W        W97388  22.729  23.395  13.263 -0.0618  0.0780  0.0394
54398W        W97389  25.379   4.047  22.782 -0.2580  0.1062 -0.2750
54399W        W97390   8.862  29.097  23.291 -0.1761  0.0245  0.3466
54400W        W97391  16.392   3.248  18.466 -0.2124  0.0866  0.1159
54401W        W97392   0.841  16.095  22.718 -0.0508 -0.2694  0.3169
54402W        W97393  30.100  34.709   8.281  0.0792  0.3336 -0.3259
54403W        W97394   7.658  12.980   4.457 -0.0913  0.1719  0.3725
54404W        W97395  32.144   4.750  21.208 -0.2374  0.0543  0.0151
54405W        W97396  23.851  30.374  19.213  0.0018  0.4701 -0.0369
54406W        W97397   9.471   3.933  23.406  0.3492  0.2134 -0.1690
54407W        W97398  23.897  16.620  25.089 -0.1160  0.2774 -0.2333
54408W        W97399  32.867  29.483   8.419  0.0865 -0.1240  0.0718
54409W        W97400   7.800  24.502  18.065  0.2484  0.0275 -0.1036
54410W        W97401   5.568  26.990   4.276  0.0187  0.0407 -0.1066
54411W        W97402  26.681   8.168  15.534  0.0407  0.2024 -0.3164
54412W        W97403  25.655  16.127  13.842  0.5663 -0.3284  0.0012
54413W        W97404   8.669  26.144  19.442  0.1692 -0.0955  0.3247
54414W        W97405   9.138   3.203  22.264 -0.1823 -0.4882 -0.0769
54415W        W97406  17.719  23.971  24.984 -0.0369  0.0556  0.2333
54416W        W97407   6.234  33.577   2.002  0.2930  0.0007 -0.0565
54417W        W97408  33.099   0.098   3.214 -0.2474  0.3746 -0.0812
54418W        W97409  28.778  25.602   9.082  0.1119 -0.1917  0.0395
54419W        W97410   8.788   1.438  10.632  0.2235 -0.0872 -0.0193
54420W        W97411  31.238  26.164   0.495  0.1748  0.1212 -0.1689
54421W        W97412  26.251  26.720  21.167  0.0709  0.0617  0.1685
54422W        W97413  34.076   7.484  10.187  0.2601  0.0175 -0.1357
54423W        W97414  31.364   6.707   8.735  0.0914  0.0410  0.0420
54424W        W97415   8.023  16.502  22.802  0.1721 -0.1875  0.3172
54425W        W97416  22.960  10.340   7.680 -0.0308 -0.1868 -0.0232
54426W        W97417  14.718   5.171  22.508 -0.0860 -0.1927 -0.0414
54427W        W97418  26.391  33.520  21.485  0.2456  0.0708  0.0720
54428W        W97419   1.022   8.848   5.827  0.0777 -0.2039 -0.1356
54429W        W97420   3.924   5.316   9.937 -0.0942  0.0109  0.2653
54430W        W97421   3.198  26.793  23.675  0.1024 -0.1852 -0.0828
54431W        W97422   3.400   0.911   7.161 -0.0519  0.1055  0.1467
54432W        W97423   1.543   2.992  20.819 -0.0125 -0.2956  0.2612
54433W        W97424  28.682   5.184  16.941  0.1598  0.1704 -0.2145
54434W        W97425  34.485   3.209  22.543 -0.0073  0.2020 -0.0529
54435W        W97426  27.518  30.841  23.406 -0.1142  0.0127  0.2409
54436W        W97427  16.390  29.990  14.995 -0.0040  0.1015 -0.0504
54437W        W97428   2.763  34.193  24.011  0.0272 -0.0782 -0.4273
54438W        W97429   2.248  34.446  17.810 -0.0786 -0.0624  0.0637
54439W        W97430  25.289  23.245  14.596 -0.1915  0.2988 -0.1381
54440W        W97431   1.091  34.002  15.831 -0.1792  0.0454 -0.0800
54441W        W97432   0.594  22.022  23.075  0.0930 -0.1504  0.0178
54442W        W97433  33.305  27.494  25.378 -0.0134  0.2257 -0.1255
54443W        W97434  25.801  14.153  20.849 -0.0005  0.1817  0.2522
54444W        W97435   4.045   2.971  11.532  0.2037 -0.2741  0.0098
54445W        W97436  34.031   6.695   1.491  0.1599  0.0360  0.1655
54446W        W97437  22.312   1.645  22.407  0.1284 -0.2248  0.1628
54447W        W97438  25.641   0.548  16.944  0.2520  0.0311  0.0158
54448W        W97439  18.980  32.395  24.702 -0.1010 -0.2572 -0.0067
54449W        W97440   8.186   3.602  23.677  0.2463 -0.3052 -0.0534
54450W        W97441  30.369   2.492  22.620  0.0921  0.0306  0.0235
54451W        W97442  10.829   5.722  19.512  0.1727  0.3407  0.2364
54452W        W97443   8.673  24.798  18.686  0.0735  0.3858  0.0445
54453W        W97444   4.502  31.694   6.342  0.1201 -0.0751  0.1389
54454W        W97445  23.752   5.803  21.382  0.3214 -0.0443 -0.1041
54455W        W97446  27.904   2.621  14.715 -0.1132  0.0258  0.0453
54456W        W97447  12.979   2.473  20.677 -0.0062 -0.2695  0.0518
54457W        W97448  23.248  20.452  17.967 -0.2439  0.0808 -0.1807
54458W        W97449   4.929   0.514   8.490 -0.1506  0.0948 -0.1238
54459W        W97450  25.575  21.699   5.966 -0.0149 -0.1535  0.1361
54460W        W97451  29.897  18.532  15.879 -0.1688 -0.1949  0.2111
54461W        W97452  23.428  21.927  18.353  0.0874  0.0909 -0.1963
54462W        W97453   3.849   7.948  20.742  0.3030  0.2828  0.0066
54463W        W97454   4.275  27.634  16.160 -0.1275  0.2232  0.1279
54464W        W97455  33.413  13.665  19.386 -0.0332  0.0276 -0.3139
54465W        W97456  10.358  22.871  15.805  0.3240  0.0249 -0.1306
54466W        W97457  22.125  28.899  26.461 -0.2091  0.3494  0.1277
54467W        W97458  27.041   9.639   4.692  0.1136  0.0361 -0.0516
54468W        W97459  12.282  34.036  17.130 -0.2110  0.0472 -0.1351
54469W        W97460  30.450   3.506  14.516  0.2869 -0.2563 -0.0275
54470W        W97461   7.934  17.761  24.549  0.0634 -0.0646  0.1806
54471W        W97462  25.401   5.268  15.638  0.0455 -0.1402 -0.1498
54472W        W97463   6.326  10.597  15.030 -0.1392 -0.0874  0.0546
54473W        W97464  18.137  11.643  16.945 -0.0770  0.0872  0.0155
54474W        W97465  20.734  23.625  20.515  0.0765  0.1946 -0.0784
54475W        W97466  23.199  32.646  18.575  0.0529  0.3705 -0.0717
54476W        W97467  10.151  31.238  27.146 -0.3494 -0.7649  0.2721
54477W        W97468  29.673   6.816  14.689  0.1705 -0.0348 -0.1074
54478W        W97469  24.089   0.076  18.651 -0.1462  0.2180  0.0527
54479W        W97470  13.613  31.385  16.018 -0.0303 -0.0873  0.3858
54480W        W97471  26.060  27.279  15.527  0.1643 -0.2706  0.0096
54481W        W97472   6.376   8.011  28.110  0.0535 -0.0863  0.0722
54482W        W97473  27.826  24.414  17.648 -0.0825 -0.0764 -0.3734
54483W        W97474  30.943   3.532  18.378 -0.0971  0.1515 -0.2848
54484W        W97475  30.953  23.503  22.271 -0.2866  0.1448 -0.0291
54485W        W97476   2.234  32.490  17.447  0.0114  0.0648 -0.0417
54486W        W97477   6.319   5.852  17.294  0.4080  0.0728 -0.1714
54487W        W97478  27.320  10.043  27.783 -0.0740  0.1486  0.0513
54488W        W97479  34.732  29.170  17.430 -0.3064  0.0003  0.0449
54489W        W97480  28.346  30.249  14.659  0.0982 -0.1167  0.1595
54490W        W97481  10.264  33.143   2.499 -0.2062 -0.0423  0.1007
54491W        W97482  33.330  27.317  17.056 -0.2120  0.2671 -0.0703
54492W        W97483  10.449  26.510  14.200  0.3698  0.2608 -0.1143
54493W        W97484   8.927  20.384  21.281 -0.0448  0.0754 -0.5087
54494W        W97485   2.997  33.921  24.751 -0.0916 -0.5306 -0.1335
54495W        W97486  34.415   7.178  29.223  0.1277  0.0301  0.0072
54496W        W97487  33.932  33.505  22.593  0.1278  0.0900 -0.2405
54497W        W97488  31.109  33.404  14.878  0.3249  0.0644  0.2138
54498W        W97489  34.108   7.664  25.427 -0.1188 -0.0688 -0.1826
54499W        W97490  24.981   3.387  26.171 -0.0114 -0.1185  0.3663
54500W        W97491  33.363   7.888  16.711 -0.3611 -0.1752  0.2692
54501W        W97492  16.733  24.244  13.814  0.2746 -0.0590 -0.2400
54502W        W97493  29.097  10.198  15.522 -0.0605 -0.1919  0.5612
54503W        W97494   1.059   8.239  15.411 -0.1818 -0.4213  0.1299
54504W        W97495  29.571  34.142  24.183 -0.1744  0.0350 -0.2994
54505W        W97496   9.078   9.685  23.001  0.1437  0.2141 -0.0187
54506W        W97497  33.116  29.686  13.600 -0.0604 -0.0262 -0.0451
54507W        W97498  21.773  34.156  17.226  0.0546  0.0060 -0.0154
54508W        W97499   3.803   0.640  13.975 -0.0331  0.2923 -0.0490
54509W        W97500  29.488  28.040  16.680  0.1250  0.2264  0.1736
54510W        W97501  16.764   2.048  27.493  0.0247 -0.4121  0.0777
54511W        W97502  32.953  34.679  26.021  0.0845 -0.0444 -0.3241
54512W        W97503  32.459  31.146  16.879  0.2361 -0.0115 -0.0203
54513W        W97504   9.816  19.746  18.584 -0.2505  0.0886  0.5062
54514W        W97505   1.435  34.108  18.991  0.0472 -0.1285 -0.2174
54515W        W97506   1.234   7.308  27.835 -0.0710  0.1662  0.2692
54516W        W97507   6.592  28.061  16.052 -0.3016  0.1010 -0.0261
54517W        W97508  31.852   2.191  18.998 -0.1097  0.2817  0.2655
54518W        W97509   5.681   2.235  19.085  0.1279  0.2356 -0.0632
54519W        W97510  11.531  30.100  22.796 -0.1384  0.1096  0.3280
54520W        W97511   0.047   8.008  20.399 -0.1092 -0.3410 -0.0901
54521W        W97512   6.844  25.699  23.616 -0.0493 -0.0285  0.0553
54522W        W97513   4.177   7.840  20.089 -0.1544 -0.1112 -0.0065
54523W        W97514  34.308  13.822  21.056  0.0360 -0.2324 -0.3535
54524W        W97515   7.556  31.187   4.256 -0.1745 -0.1120  0.2495
54525W        W97516   4.260   5.534  28.402 -0.2528 -0.1044  0.1978
54526W        W97517  33.691  29.070  19.469 -0.1579 -0.1498  0.0304
54527W        W97518  13.143  28.402  20.234  0.1666  0.1327 -0.1566
54528W        W97519   5.745  27.936  22.465  0.0598 -0.2780  0.0790
54529W        W97520  10.859  34.788  17.028  0.2081  0.0462  0.0819
54530W        W97521  26.165  32.475  23.312  0.1786  0.1979  0.1058
54531W        W97522  30.777   9.944  17.059  0.0312  0.3641 -0.0675
54532W        W97523  10.565   1.998   2.894 -0.0370 -0.0761 -0.3739
54533W        W97524   4.001   0.616  21.114  0.0953 -0.2844 -0.0140
54534W        W97525   3.739  24.627  29.181 -0.1989  0.2532  0.3587
54535W        W97526  27.667  29.876  13.733 -0.5338 -0.4114 -0.3168
54536W        W97527  33.827   1.792  17.505  0.2375  0.1077  0.0614
54537W        W97528   5.253  25.879  29.001  0.0568 -0.2070  0.0482
54538W        W97529   9.018  32.930  16.574 -0.1951 -0.0990  0.2993
54539W        W97530  27.870   0.376  12.892  0.0389  0.2163 -0.0430
54540W        W97531   6.501  34.441  22.682  0.6322  0.1307  0.1253
54541W        W97532   4.974   7.467  26.029 -0.1199 -0.0952 -0.2272
54542W        W97533  34.617   4.650  20.657 -0.0639  0.0778  0.1201
54543W        W97534  28.847  33.700  12.710  0.1514 -0.3541 -0.2698
54544W        W97535  22.209   4.040  27.883  0.0337  0.0733  0.0915
54545W        W97536  11.313  30.373   2.238 -0.0289  0.1932 -0.2687
54546W        W97537   1.127  33.533  15.967 -0.1229  0.2501 -0.2218
54547W        W97538  23.817  18.334  15.951  0.3719 -0.0407  0.2251
54548W        W97539  33.187  28.649  20.716  0.3724  0.0005  0.0107
54549W        W97540  27.161   2.204  23.999  0.2544  0.3854  0.1793
54550W        W97541  29.852  25.375  16.386 -0.2111 -0.0000  0.1883
54551W        W97542  28.131  28.240  22.114 -0.2517 -0.2086 -0.3026
54552W        W97543  32.716  33.406  16.790 -0.5620  0.0844  0.4350
54553W        W97544  33.274   7.149   2.168 -0.4085  0.2732  0.3222
54554W        W97545  13.726  31.912  17.670 -0.1177  0.1225 -0.0141
54555W        W97546  19.303   1.794   7.563  0.0431 -0.1818 -0.1485
54556W        W97547   4.530  30.767  14.952 -0.3234  0.0673 -0.0158
54557W        W97548  28.348  33.939  26.953  0.1842 -0.3799  0.1271
54558W        W97549  11.812  13.681   3.678 -0.0293 -0.0279  0.2801
54559W        W97550  19.095  13.696  28.621 -0.0572 -0.1424 -0.2112
54560W        W97551  29.449  21.124  14.540  0.3651 -0.1108 -0.1111
54561W        W97552  16.720  10.098  28.864  0.2639  0.1738 -0.1407
54562W        W97553   8.609   5.657   0.775  0.2137  0.1457  0.0551
54563W        W97554  12.250   9.842   2.987  0.0005  0.0995 -0.1178
54564W        W97555  10.638  22.424  23.304  0.0441  0.1125  0.4426
54565W        W97556  15.865  33.608  20.445 -0.0160 -0.2963  0.0706
54566W        W97557  23.484  21.317  20.467 -0.2129 -0.0855  0.0054
54567W        W97558   7.256  29.148  22.260  0.1534  0.1542  0.0169
54568W        W97559   5.923  29.478  17.979 -0.1204 -0.1045  0.1924
54569W        W97560  33.295   8.810  17.515  0.1160  0.2133 -0.0894
54570W        W97561   0.719   0.026  24.325 -0.2164 -0.1723  0.2206
54571W        W97562  31.689   2.846  28.183  0.0775  0.0565 -0.0572
54572W        W97563   7.517   2.736  16.073  0.0443  0.0864  0.2051
54573W        W97564  34.273   4.114  17.160 -0.0173 -0.2326  0.2670
54574W        W97565   0.565   4.728  22.179  0.0180  0.0212  0.0699
54575W        W97566   6.974  21.800  20.188  0.1032  0.0459 -0.2100
54576W        W97567  25.730   8.122   1.327 -0.1634  0.1553 -0.0163
54577W        W97568   6.818  30.801  24.246 -0.3103  0.3490 -0.0996
54578W        W97569  33.034  30.933  21.864  0.0356  0.0593  0.0181
54579W        W97570  29.860  17.576  21.404 -0.1610  0.0966  0.0619
54580W        W97571   3.612  32.436  27.702 -0.2509 -0.0638 -0.2756
54581W        W97572   3.463  22.153   5.258  0.2332  0.1970  0.3211
54582W        W97573  10.951   2.497  15.053  0.0781 -0.0199 -0.0008
54583W        W97574  22.473  33.659  14.276 -0.0308 -0.2945 -0.0070
54584W        W97575  34.730   9.124  29.228 -0.0008  0.0441 -0.0227
54585W        W97576  13.559  24.316  26.575 -0.3138  0.1259 -0.0327
54586W        W97577  27.943  21.014  15.693 -0.3225  0.0820  0.0501
54587W        W97578  34.579   1.486  21.125  0.1034 -0.0779  0.1959
54588W        W97579  27.059   1.838  20.164 -0.2224 -0.3141 -0.3165
54589W        W97580  31.483  24.752  15.256  0.1115 -0.2221 -0.2723
54590W        W97581   1.733   1.129  23.514 -0.3120 -0.0388  0.0080
54591W        W97582  31.782  28.569  17.124 -0.0094  0.1328 -0.2363
54592W        W97583  26.926  23.960  20.821 -0.0035  0.3018 -0.0497
54593W        W97584   0.370  32.075  19.126 -0.0047  0.0923 -0.2054
54594W        W97585  26.586   0.402  25.030  0.0421 -0.1128  0.1402
54595W        W97586  23.379   9.959  18.903  0.0020  0.3749  0.5228
54596W        W97587  29.317  33.224  16.417  0.1063 -0.2044 -0.1299
54597W        W97588  13.831  15.225  27.190  0.2341 -0.1120 -0.1564
54598W        W97589  17.187  11.283  25.690 -0.4294 -0.0066 -0.2069
54599W        W97590  32.436   8.871  27.273  0.0390 -0.1334 -0.1648
54600W        W97591   3.016  20.785  16.549  0.3523  0.0308 -0.0134
54601W        W97592  21.501  33.069  19.844 -0.0947 -0.1318 -0.3202
54602W        W97593   6.286  30.252  19.686  0.0706 -0.2565 -0.2411
54603W        W97594  15.286  28.752  22.763 -0.3818  0.1058  0.0786
54604W        W97595  25.790  29.740  23.372  0.2148 -0.0195  0.1576
54605W        W97596  17.638  29.859  25.162  0.2210  0.2375  0.1194
54606W        W97597  31.890  30.598  27.978  0.1716 -0.0937  0.1240
54607W        W97598  30.122  26.593  21.639  0.3287 -0.0338 -0.2377
54608W        W97599  30.617   6.831  17.633 -0.1428 -0.1620 -0.3094
54609W        W97600   1.934   3.895  17.524  0.2096 -0.0427 -0.0252
54610W        W97601  33.542  16.347  22.611  0.1279 -0.1795 -0.1723
54611W        W97602   0.836  11.180  19.348 -0.0758 -0.1906  0.2040
54612W        W97603   1.467   8.145  23.557 -0.0634  0.0969  0.0059
54613W        W97604  20.663  24.679   6.612  0.1347 -0.1414  0.1226
54614W        W97605  31.051   3.758  27.368 -0.2124  0.2340  0.1556
54615W        W97606  16.545  32.164  19.977 -0.1903  0.0063 -0.0097
54616W        W97607  29.872   7.319   4.845  0.0138  0.0408  0.3609
54617W        W97608   6.245  29.604  19.167  0.1533  0.1236  0.3186
54618W        W97609  15.960  22.600  17.706  0.0763 -0.0757 -0.0861
54619W        W97610  13.545   2.436  15.728  0.1131 -0.0893 -0.1392
54620W        W97611  28.476  17.642  18.494 -0.3644 -0.3155  0.0808
54621W        W97612  12.055  34.129  16.627 -0.0860  0.3918 -0.0293
54622W        W97613   7.655   2.944  15.014  0.1034 -0.0771 -0.1266
54623W        W97614  26.777   2.188  26.835 -0.1332  0.3609  0.1458
54624W        W97615   0.907   1.324  25.086 -0.3694 -0.1406  0.0029
54625W        W97616  34.165  22.997  14.872  0.0671  0.0353  0.0112
54626W        W97617   0.823  32.829  14.834  0.2270  0.0973 -0.0214
54627W        W97618   2.838   4.291  16.530 -0.0861 -0.1134  0.0312
54628W        W97619  28.399  34.474  19.457 -0.0462 -0.0992 -0.1880
54629W        W97620  31.942   8.806  16.376  0.1349  0.0402 -0.1779
54630W        W97621  29.841   0.843   6.644  0.1824 -0.0743  0.1171
54631W        W97622   1.451   9.171  18.082  0.1297 -0.0116  0.0164
54632W        W97623  24.879   0.701  14.942 -0.3564 -0.2218 -0.1270
54633W        W97624   5.455  12.824  23.013  0.1010  0.0770  0.1393
54634W        W97625  31.756  29.962  16.484  0.1858  0.2311 -0.0013
54635W        W97626   1.277  21.670  20.117 -0.1044 -0.0736  0.2295
54636W        W97627  25.990  31.674  20.198 -0.0297 -0.4060  0.1428
54637W        W97628  31.395   9.665  25.667  0.2201  0.1079 -0.0411
54638W        W97629  27.268   4.821  17.517 -0.0802  0.0378 -0.0041
54639W        W97630  27.146  22.361  21.366 -0.2256 -0.1615  0.1118
54640W        W97631   3.170  28.379  14.432 -0.0544 -0.0973 -0.0134
54641W        W97632  30.631   4.923  14.813  0.2102  0.3163 -0.0310
54642W        W97633  29.365  30.699  13.240  0.0104  0.1076  0.0470
54643W        W97634  32.507  18.741  17.490  0.1441 -0.2454 -0.1864
54644W        W97635  25.897  25.877  21.578 -0.0972 -0.3249 -0.2055
54645W        W97636   1.852  20.157  17.229 -0.1208  0.2569 -0.0936
54646W        W97637  32.873   0.766  14.068 -0.1091  0.2401  0.2755
54647W        W97638   3.526  11.381  21.035  0.1636 -0.2346  0.0269
54648W        W97639   1.328  29.323  21.544  0.0301 -0.1001 -0.1687
54649W        W97640  28.384   5.133  24.892  0.1030 -0.0575  0.2039
54650W        W97641   5.546  31.473  22.280  0.2191 -0.0578 -0.0533
54651W        W97642  26.806   5.823  20.508 -0.1227 -0.0100  0.3790
54652W        W97643  23.808   1.859  19.313  0.1653  0.2690  0.1356
54653W        W97644  14.476  27.724  15.302 -0.0404  0.0356 -0.2231
54654W        W97645   1.768  31.946  25.038  0.1844 -0.0860 -0.1308
54655W        W97646  29.331   9.143  14.840  0.0620 -0.0255  0.1489
54656W        W97647  11.888   7.613  25.455  0.0961  0.0208 -0.0319
54657W        W97648   6.806  32.192  20.134 -0.0585 -0.0354 -0.3592
54658W        W97649  18.063   4.174  17.008 -0.0199  0.0197 -0.0522
54659W        W97650  29.866  32.479  12.435  0.0600  0.2385  0.0368
54660W        W97651  34.063  21.524  14.912 -0.1842 -0.0063 -0.0996
54661W        W97652   1.119   4.778  28.844 -0.0590 -0.1302 -0.2744
54662W        W97653  28.854  33.758  21.218  0.1491 -0.1362 -0.3411
54663W        W97654  23.372   2.740   1.219 -0.2496 -0.0649  0.2387
54664W        W97655  28.676   2.136  26.811  0.1203 -0.2548  0.0773
54665W        W97656   1.479   8.244  21.200  0.0678 -0.3249 -0.1249
54666W        W97657  27.883  10.747  19.137  0.3308 -0.4207 -0.1264
54667W        W97658   2.536  27.451  13.980  0.0166 -0.0518  0.2614
54668W        W97659  21.419  30.243   0.894 -0.1277  0.2414  0.2062
54669W        W97660  20.751   2.720  20.642 -0.0629 -0.1373 -0.1128
54670W        W97661   3.351  19.070   9.152 -0.0439  0.2398 -0.0969
54671W        W97662   8.387  17.335   4.572  0.0738  0.0522 -0.2922
54672W        W97663   5.097  30.461  17.808  0.0058  0.1449 -0.0848
54673W        W97664  24.623  16.261  25.961 -0.0890 -0.2687 -0.2464
54674W        W97665  32.788   9.198   0.053  0.0707 -0.1785  0.0637
54675W        W97666  25.611  32.606  21.475 -0.3754  0.2013 -0.0762
54676W        W97667  21.202  21.266  17.468  0.0684 -0.1037  0.0905
54677W        W97668   5.743  32.914  21.710  0.3569  0.1638  0.2964
54678W        W97669   0.582  34.695  15.290 -0.2954  0.3653  0.0515
54679W        W97670   3.927   5.853   8.069  0.0063 -0.0700  0.0449
54680W        W97671  23.564  29.066  25.516 -0.1884  0.2974 -0.4044
54681W        W97672   5.074   2.067  23.055  0.1072  0.0131  0.0920
54682W        W97673  25.175  20.391  26.027 -0.1570  0.0617  0.3323
54683W        W97674  14.039  32.065  25.140 -0.0086 -0.2636  0.0657
54684W        W97675  29.706   0.023  27.975 -0.0493  0.0488 -0.1428
54685W        W97676  12.067   7.449  27.818  0.3759 -0.0113 -0.1014
54686W        W97677  33.101  11.839   7.898 -0.2651  0.2916 -0.2299
54687W        W97678   0.914  27.049  24.249 -0.3148 -0.2863 -0.1683
54688W        W97679  34.524  13.473  15.780 -0.2936  0.1520 -0.0225
54689W        W97680   5.246   1.379  21.876 -0.0754 -0.1363 -0.0764
54690W        W97681  27.759   3.126   4.508  0.5027 -0.0357 -0.0008
54691W        W97682   5.992  34.543  20.356 -0.0454 -0.1018 -0.2709
54692W        W97683   9.161   1.329  25.032 -0.0973 -0.3853  0.2026
54693W        W97684  34.528  11.933  23.817 -0.0924 -0.1404  0.1012
54694W        W97685  29.076  34.742  20.311 -0.0310  0.0377  0.0371
54695W        W97686   8.352   1.178  16.108  0.0097 -0.2597 -0.1671
54696W        W97687   8.300   6.908  20.147 -0.2790 -0.0790  0.0391
54697W        W97688   4.564  26.176  23.413  0.0637 -0.0655 -0.1145
54698W        W97689   4.262   1.210  16.673 -0.5057  0.2161 -0.1212
54699W        W97690  29.697   6.826  28.636  0.4018 -0.2947  0.1247
54700W        W97691   5.734   2.805  16.569 -0.0469  0.0969 -0.2736
54701W        W97692  34.610   3.049   9.261  0.0229  0.1297 -0.4710
54702W        W97693  33.937  29.692  17.585  0.1829 -0.2962 -0.0845
54703W        W97694   4.376  18.543  16.065 -0.0178  0.2507  0.0862
54704W        W97695  15.670  24.354  20.984 -0.2596 -0.2319 -0.0473
54705W        W97696   3.479  33.978   3.786  0.0774 -0.0777  0.2200
54706W        W97697  23.119   5.934  26.141 -0.0783 -0.2072 -0.0344
54707W        W97698  27.663  23.456  25.643  0.2486  0.0947  0.3347
54708W        W97699  26.022   9.405  27.029 -0.1017 -0.0647  0.0283
54709W        W97700   1.719  19.176  17.025  0.2739 -0.0685  0.1767
54710W        W97701  29.855  25.980  18.500  0.1629  0.1661  0.1473
54711W        W97702  22.509  11.906  18.123  0.1472  0.0508  0.1029
54712W        W97703   8.421   5.830   1.724  0.1409  0.1830  0.1766
54713W        W97704  14.952   5.222   0.992  0.0384 -0.2378 -0.0294
54714W        W97705  25.268  14.984  27.429  0.2527 -0.2691 -0.2234
54715W        W97706  25.541  24.317   0.064  0.2873  0.2218 -0.2765
54716W        W97707   8.338  23.360  15.621 -0.0505  0.1124  0.0790
54717W        W97708  32.058   5.225   2.413 -0.1715 -0.1425 -0.2255
54718W        W97709  19.924  29.556  27.855 -0.3550 -0.1828 -0.2781
54719W        W97710  29.251   7.526  19.637  0.3609 -0.2364  0.3093
54720W        W97711   0.104  29.180  15.103 -0.0457  0.1674 -0.1377
54721W        W97712  18.439   6.137   4.097  0.2085  0.1385  0.3869
54722W        W97713  25.149  14.734  20.450 -0.1086  0.1613 -0.2127
54723W        W97714  13.160   1.737  17.912 -0.1577 -0.1872 -0.1030
54724W        W97715   1.425  22.566  24.151  0.2581 -0.1939 -0.1565
54725W        W97716  25.415   7.468   9.232  0.0081 -0.2244 -0.1030
54726W        W97717   7.359   3.309  15.839 -0.2189  0.0800 -0.1914
54727W        W97718   0.280  30.897  25.584 -0.1232 -0.0834 -0.0543
54728W        W97719  15.467  15.991  29.162  0.1819 -0.0624 -0.0544
54729W        W97720   3.994  26.320  18.968 -0.0964  0.1383 -0.0010
54730W        W97721  34.037  30.519  14.581  0.1395  0.2282  0.2902
54731W        W97722   4.246  33.197  16.464  0.2243 -0.3866  0.1287
54732W        W97723  28.250   7.204  20.944 -0.0375  0.0289  0.1514
54733W        W97724   0.086  26.909   5.777  0.0346 -0.5200  0.0816
54734W        W97725   3.693   4.939  23.078  0.2093  0.1666 -0.3657
54735W        W97726  16.308  34.736  21.699  0.0524  0.2030  0.0170
54736W        W97727  11.829   4.601  23.840 -0.0469  0.3839  0.0419
54737W        W97728   0.400  28.056  18.924  0.0044 -0.1410 -0.0723
54738W        W97729  27.572  26.532  16.257  0.0159 -0.1549 -0.0197
54739W        W97730  17.136  34.474  28.901  0.0735  0.0064  0.0246
54740W        W97731  26.659  22.331  22.327  0.0588  0.3383 -0.2817
54741W        W97732  22.534   9.004  14.397  0.1185  0.0685  0.0331
54742W        W97733  30.704  33.009  18.201  0.0850  0.0193 -0.1666
54743W        W97734   1.556   0.826  19.233 -0.0087  0.0014  0.0297
54744W        W97735   9.402   5.071   3.800 -0.2340 -0.1900  0.0681
54745W        W97736  29.042  29.600  20.013  0.1971  0.5732  0.1962
54746W        W97737  11.311   0.185  23.312 -0.1564  0.1367 -0.0430
54747W        W97738  24.119  20.930  22.296 -0.0834  0.1556 -0.2400
54748W        W97739  26.001   8.741   6.281  0.2124  0.0308 -0.2954
54749W        W97740  21.726  22.391  18.084 -0.2634  0.0532 -0.1917
54750W        W97741  12.656   2.131  24.978 -0.1860 -0.1325 -0.0713
54751W        W97742  32.872   8.354   0.248 -0.3641 -0.1533 -0.0192
54752W        W97743  27.222  21.472  15.238  0.0711  0.0212 -0.1665
54753W        W97744   7.590  31.449  28.186  0.3089 -0.2109 -0.0464
54754W        W97745   5.702  16.926  24.513 -0.4153 -0.0480 -0.2486
54755W        W97746  33.641  29.935  28.014  0.0217 -0.0477 -0.0318
54756W        W97747  13.990  23.709   5.145  0.0422 -0.0236 -0.4445
54757W        W97748  16.981  25.275  14.385 -0.0079 -0.0746 -0.2545
54758W        W97749  31.992  12.755  28.007  0.1296 -0.0371 -0.0574
54759W        W97750  34.723   4.595  23.330 -0.1560 -0.1263 -0.1572
54760W        W97751  26.905   1.597  26.995  0.0036 -0.1157 -0.0151
54761W        W97752  29.325  11.002  24.719  0.2328 -0.0597 -0.3188
54762W        W97753  27.851  14.118   0.482  0.4461 -0.1059 -0.2122
54763W        W97754  11.468  12.486  25.222 -0.2813  0.0658 -0.1111
54764W        W97755   0.274  23.964  26.551  0.0485  0.1735 -0.1492
54765W        W97756  27.460  27.099  16.750  0.3441 -0.1201 -0.1069
54766W        W97757  28.707   3.836  21.925  0.2813  0.0715 -0.2415
54767W        W97758  24.176  33.516  26.382 -0.0580  0.1901 -0.0012
54768W        W97759  25.520  29.794  18.671 -0.1385  0.0374  0.0431
54769W        W97760  14.425  27.191  18.717 -0.1701 -0.4193  0.2428
54770W        W97761  32.842  16.632  20.326 -0.0650  0.2007  0.0446
54771W        W97762  16.367   1.818  22.930  0.1242 -0.3709 -0.0487
54772W        W97763  10.987   1.505  25.118 -0.1596  0.3217  0.0898
54773W        W97764   7.408  26.421  23.888 -0.2899 -0.0046 -0.0550
54774W        W97765  31.307   6.372  29.106 -0.3494  0.1765 -0.0073
54775W        W97766  26.576   9.030  14.433  0.1020 -0.2254  0.2293
54776W        W97767  28.091  23.178  20.695 -0.1014  0.1485 -0.1986
54777W        W97768  32.931  32.517  26.889  0.2381 -0.2791  0.2056
54778W        W97769  34.302  26.765  14.490 -0.0537 -0.1932  0.2533
54779W        W97770   2.572   4.975  21.656 -0.1142 -0.2531  0.1155
54780W        W97771  27.714   4.205  27.290 -0.0716  0.0060  0.2793
54781W        W97772   1.107  23.707   5.625 -0.3016  0.1242 -0.0564
54782W        W97773  18.403  26.262   0.543  0.1542 -0.1844 -0.3843
54783W        W97774  30.657  31.116  26.010 -0.1126  0.0323 -0.2273
54784W        W97775   6.929   1.633   8.987 -0.0446 -0.2674  0.0065
54785W        W97776  26.138  16.032   0.481 -0.0846 -0.0579 -0.1104
54786W        W97777  32.059  27.939  16.436  0.2858  0.0934  0.1652
54787W        W97778  15.094  33.329  15.929  0.1708  0.2055  0.1569
54788W        W97779  11.215   1.262  27.652  0.0581  0.3196  0.2008
54789W        W97780  20.956  22.913   1.892 -0.2944  0.0757 -0.2391
54790W        W97781  34.066   8.697  27.322 -0.1018  0.0432  0.0613
54791W        W97782  32.382   3.643  19.024  0.0660 -0.0823 -0.1871
54792W        W97783   0.563  31.858  19.625  0.3419 -0.0167 -0.2025
54793W        W97784  31.638  16.425  17.026 -0.0447 -0.4364 -0.0343
54794W        W97785   8.427   8.569  23.951 -0.1739 -0.2242  0.2237
54795W        W97786  27.513  33.548   6.524  0.2088  0.1256 -0.1002
54796W        W97787   2.373  30.531   3.225 -0.2609  0.1095 -0.2374
54797W        W97788  18.446  10.576  19.588 -0.2369 -0.1823 -0.0677
54798W        W97789  25.547  10.274   0.468  0.1079  0.0170  0.2005
54799W        W97790  29.429  31.754  16.314 -0.0323 -0.3262 -0.2106
54800W        W97791  13.526   6.888  28.561  0.2544  0.0913 -0.2552
54801W        W97792   6.219  34.387  25.948  0.1207  0.0780 -0.0122
54802W        W97793  31.895  32.165   3.963 -0.1150  0.0651 -0.2486
54803W        W97794   6.647  24.029  15.839  0.0749  0.1129 -0.0570
54804W        W97795  32.777  26.080  15.188 -0.2689 -0.0044 -0.0492
54805W        W97796  27.571  21.535  20.840  0.0779 -0.1388 -0.2897
54806W        W97797  14.411   8.330   3.955 -0.0299 -0.1373  0.3805
54807W        W97798  31.398   9.635  14.263 -0.0638 -0.0249  0.2231
54808W        W97799  14.497   1.370  22.145 -0.0613 -0.0737 -0.0589
54809W        W97800  15.983  24.548   1.195 -0.1055  0.1619 -0.3131
54810W        W97801   8.706   6.614   8.014 -0.1984  0.0616 -0.1833
54811W        W97802   5.270  30.379  21.336  0.2441 -0.1335  0.1733
54812W        W97803   6.581   2.164  11.019  0.2363 -0.1263  0.1647
54813W        W97804   4.455  25.650   0.115 -0.1706  0.0605 -0.0033
54814W        W97805   4.481  27.490  23.107  0.0323  0.1138  0.0560
54815W        W97806   2.210  28.829  23.070  0.0944  0.0803 -0.0254
54816W        W97807  32.989  23.746   7.993  0.1543  0.0431 -0.1561
54817W        W97808   9.225  27.766  25.305 -0.0770  0.1426  0.0428
54818W        W97809   1.430   1.829   9.133  0.3526  0.0927  0.1366
54819W        W97810  23.758  34.686  12.830 -0.1553 -0.3575 -0.0306
54820W        W97811  20.608   2.636  25.840 -0.1886 -0.0119 -0.1999
54821W        W97812  23.204  20.069   7.112 -0.2581 -0.2870 -0.0702
54822W        W97813  32.166  29.011   5.253 -0.0039 -0.1251 -0.2004
54823W        W97814  31.493  22.809  18.091  0.1204 -0.0778  0.1375
54824W        W97815   7.703   3.157   3.311  0.0359 -0.0113  0.0512
54825W        W97816  17.043  13.737   7.596  0.0024  0.4038 -0.1290
54826W        W97817  26.726   3.410  13.630 -0.0240  0.2792  0.0718
54827W        W97818  21.263   4.593   5.612 -0.0912 -0.1071 -0.3782
54828W        W97819   9.744  19.374  24.660 -0.2431  0.0966 -0.1109
54829W        W97820  25.606  26.120  26.669 -0.1353  0.0455  0.2946
54830W        W97821   5.449  32.388  24.247 -0.1995  0.0072 -0.3377
54831W        W97822  33.994  22.374   7.086  0.1370  0.1930 -0.3162
54832W        W97823  26.061  15.753   2.907 -0.2836  0.0502 -0.1717
54833W        W97824   1.957   2.631   2.490  0.1040 -0.1205  0.3017
54834W        W97825  25.601  12.229  16.860  0.1086  0.0233  0.1092
54835W        W97826   5.213  31.522  19.794  0.2198  0.1317  0.0657
54836W        W97827  33.306  33.883   4.312 -0.4177 -0.0676  0.1873
54837W        W97828  27.696   0.504   7.338 -0.0176 -0.0677  0.1742
54838W        W97829  26.539  14.803  29.166 -0.0355 -0.2108 -0.3382
54839W        W97830  29.581  15.752  18.393 -0.2360 -0.0126  0.2482
54840W        W97831  23.205  26.670  19.124  0.0580  0.1944  0.0199
54841W        W97832   0.382   5.205  16.023 -0.0290 -0.1328  0.0109
54842W        W97833   3.242  27.922  27.790  0.2943  0.0623 -0.5861
54843W        W97834  32.748   3.747   7.550 -0.2735 -0.2004 -0.0292
54844W        W97835  27.175   3.820  15.855 -0.0575 -0.1737  0.1716
54845W        W97836   0.508  15.176   3.909 -0.0312  0.3254 -0.3408
54846W        W97837   1.850  25.673   1.545 -0.2688  0.1403  0.1736
54847W        W97838  34.340  19.497  28.159 -0.0540  0.3838 -0.0594
54848W        W97839  21.978  30.665  17.578  0.2086  0.2362 -0.0241
54849W        W97840   0.993  28.793   3.068  0.2000  0.1264  0.1861
54850W        W97841  23.080   6.325  16.964 -0.0236 -0.1624  0.0800
54851W        W97842  24.564   2.464   5.812 -0.0362  0.1216 -0.0443
54852W        W97843  30.878  26.992  21.804 -0.0948  0.1928 -0.0390
54853W        W97844  27.727  27.038   5.008 -0.1444 -0.1169 -0.0717
54854W        W97845  33.275   1.653  17.547  0.1586  0.3479  0.0009
54855W        W97846  25.391  18.596  21.834  0.1525 -0.0861 -0.2140
54856W        W97847   2.000   5.228   7.217  0.0979 -0.6638  0.0184
54857W        W97848  11.779  34.548  27.470  0.0112 -0.1925 -0.0207
54858W        W97849  32.130   6.431  14.931  0.0238 -0.0516 -0.2373
54859W        W97850   0.291  27.331  19.236 -0.1763  0.0803 -0.3743
54860W        W97851   0.708   2.099  16.782  0.2281 -0.2767  0.2006
54861W        W97852  26.698   3.668  20.460  0.0301 -0.1333 -0.2024
54862W        W97853  29.414   3.295   7.025  0.1326 -0.1995 -0.2130
54863W        W97854  25.721  22.441   0.431 -0.0543  0.1492 -0.0853
54864W        W97855  26.007  21.803  25.701 -0.1830  0.1292 -0.1184
54865W        W97856  30.220   8.752  18.851  0.2402 -0.2239  0.1222
54866W        W97857  23.440  24.213  16.499 -0.3053 -0.0116 -0.2630
54867W        W97858   0.447  13.413   4.348 -0.0575 -0.3373 -0.1109
54868W        W97859  10.639   1.392  28.542  0.0555 -0.0868 -0.1699
54869W        W97860   0.341  21.402  19.149 -0.1414  0.0408 -0.1991
54870W        W97861   3.401   5.927   4.942  0.0331 -0.0137 -0.2308
54871W        W97862  23.402   7.273  12.745 -0.0743 -0.0151  0.2912
54872W        W97863  26.416  18.688  23.298  0.3210 -0.1717  0.1682
54873W        W97864   5.196  25.244   2.222  0.0019 -0.0298 -0.0737
54874W        W97865  33.353  34.538   0.139  0.2407 -0.3706 -0.0697
54875W        W97866  28.953  29.270  21.680 -0.1724  0.0866  0.2321
54876W        W97867  28.991  30.941   0.451 -0.2117  0.2766 -0.2968
54877W        W97868   8.181   9.650   0.075 -0.1254  0.1623 -0.2900
54878W        W97869  14.155  31.329  19.671 -0.2340  0.3929  0.2978
54879W        W97870   5.318   7.429  23.806  0.3200 -0.0851  0.2218
54880W        W97871  34.094  22.726   5.557 -0.0608 -0.2540 -0.1435
54881W        W97872  31.243  32.113  13.986  0.1663 -0.0591 -0.3673
54882W        W97873   7.671  30.438  16.237  0.4385 -0.4607  0.1498
54883W        W97874  29.473  19.941  18.513 -0.1635  0.2592 -0.0158
54884W        W97875  30.675  17.775   6.402  0.0775  0.2527  0.2326
54885W        W97876  30.160  34.255  22.940  0.2513 -0.1220  0.1768
54886W        W97877  31.891  10.944   0.305  0.1083  0.1954  0.0841
54887W        W97878  11.645  27.473  16.778 -0.2609 -0.0358 -0.0441
54888W        W97879   2.321  18.492  19.490 -0.0674 -0.2831 -0.2354
54889W        W97880   6.016   8.389  19.208 -0.0283 -0.0795  0.2956
54890W        W97881  15.307   9.121   2.035  0.1138  0.0042 -0.0952
54891W        W97882  29.256   0.063  25.779  0.2142 -0.1445 -0.1049
54892W        W97883  30.007   2.702  19.049 -0.3075 -0.0473 -0.1865
54893W        W97884  33.902  27.954   3.872 -0.1225 -0.0060  0.1335
54894W        W97885   7.182   4.731   0.300  0.0152 -0.3652  0.0008
54895W        W97886  23.897  25.912  17.269 -0.2599 -0.0548 -0.0570
54896W        W97887   2.567  19.935  15.336 -0.3704 -0.1852 -0.1216
54897W        W97888  12.208   2.424  10.142 -0.2098  0.1681  0.0837
54898W        W97889   9.514  10.467   0.254 -0.0890  0.2348  0.2261
54899W        W97890   6.576  32.707  14.642 -0.1035  0.1737  0.1581
54900W        W97891   8.237  27.046  24.554 -0.1190 -0.3165  0.0640
54901W        W97892  30.766   4.009   4.734  0.1512 -0.3808  0.1624
54902W        W97893  28.393  11.280  21.223 -0.0083  0.1318  0.0392
54903W        W97894   0.838   9.754   5.551 -0.0484  0.2292  0.0226
54904W        W97895  25.747  34.489  24.325  0.0614  0.1895 -0.0726
54905W        W97896  17.381  24.762  20.439  0.0132 -0.1473  0.1997
54906W        W97897   3.183  29.449  25.296 -0.2569 -0.1472  0.2397
54907W        W97898   4.765   5.438  28.196  0.0130 -0.4583  0.0418
54908W        W97899   8.785  28.247  16.219  0.1846 -0.2668  0.0921
54909W        W97900   7.014  22.025   1.095  0.0019 -0.1579 -0.1764
54910W        W97901  18.451  18.547  22.933 -0.0343 -0.1555  0.0731
54911W        W97902   8.697   3.618   9.546 -0.2932 -0.0610 -0.0370
54912W        W97903   8.918  26.757  23.145 -0.1856  0.0738  0.2896
54913W        W97904  12.721  32.953  22.276  0.1243 -0.0073 -0.0200
54914W        W97905  21.187  27.687  17.116 -0.1290  0.0979 -0.5435
54915W        W97906  16.877   5.419  20.704  0.3279  0.0291 -0.2434
54916W        W97907  26.784  30.486  26.872  0.1854  0.2153  0.0224
54917W        W97908  31.471  26.235  21.406 -0.1743 -0.0259  0.1051
54918W        W97909  24.486  33.909   4.587 -0.0709  0.4352 -0.1110
54919W        W97910  21.718   6.988   5.539 -0.0638  0.1025 -0.2960
54920W        W97911  14.898  13.401   5.051  0.2478  0.2305 -0.1024
54921W        W97912   6.176  34.530  21.834 -0.1644 -0.0600  0.0383
54922W        W97913   2.866  24.411  15.843 -0.1243 -0.1042 -0.0380
54923W        W97914   5.833  13.263  20.245  0.2864  0.1281 -0.0099
54924W        W97915   3.625  24.177  23.293 -0.2609  0.0204  0.0466
54925W        W97916  34.398  31.957  19.695 -0.0195  0.1698  0.0803
54926W        W97917   3.490   1.976  11.191  0.1078 -0.1370 -0.0219
54927W        W97918   0.003  26.908   7.688  0.0632  0.0407 -0.0645
54928W        W97919  20.082  25.611  25.009  0.1127  0.2416  0.1457
54929W        W97920  32.894  15.875   0.463  0.0509 -0.0418 -0.0181
54930W        W97921  20.623  22.670  20.260  0.1330  0.4048  0.1666
54931W        W97922  25.684  31.281  23.954  0.0357 -0.4022 -0.2666
54932W        W97923  26.651   7.811  23.179  0.0265 -0.1397  0.0422
54933W        W97924   6.373   7.053   6.860  0.1285 -0.4454 -0.0061
54934W        W97925   6.738   8.992  11.330  0.0303  0.1720 -0.0504
54935W        W97926   5.517  21.238   9.192 -0.3696 -0.1941 -0.0091
54936W        W97927  18.877  32.523   6.742 -0.1517  0.0950  0.1007
54937W        W97928   5.483   4.171  14.989 -0.1745 -0.1357 -0.0682
54938W        W97929  31.035   1.996   5.192 -0.0573 -0.2342  0.0833
54939W        W97930  28.785  25.179   4.860 -0.0855  0.2298  0.0895
54940W        W97931  20.563   3.454  27.611  0.0111  0.0358 -0.2230
54941ION     NA97932  33.942   5.043   0.868 -0.1006 -0.6833 -0.2606
54942ION     NA97933  21.349   5.708  26.740  0.0109  0.1060  0.4413
54943ION     NA97934  25.892  13.893   0.257  0.1253 -0.0018  0.2701
54944ION     NA97935  30.284   9.824  18.372  0.0059  0.1379  0.7495
54945ION     NA97936   7.592  20.724   5.074  0.2680 -0.6758  0.6370
54946ION     NA97937  26.233  31.467   6.097  0.7522 -0.4118  0.0200
54947ION     NA97938  31.292  24.487   5.624 -0.1931  0.1605  0.0005
54948ION     NA97939  27.339  16.458  14.703  0.2581 -0.0531  0.2093
54949ION     NA97940  28.112  25.558  22.785  0.3721 -0.4738 -0.3347
54950ION     NA97941  29.464  16.829  28.686 -0.2795  0.1945 -0.9291
54951ION     NA97942  10.774   4.940   7.204 -0.5275 -0.4617 -0.3695
54952ION     NA97943  17.493  18.698   5.118 -0.2271  0.2146 -0.2578
54953ION     NA97944  15.021  20.689  13.118  0.0330 -0.0338  0.1479
54954ION     NA97945  11.676   2.817  10.712 -0.6829  0.0028 -0.2403
54955ION     NA97946  20.575  14.366   2.630 -0.3705 -0.2347  0.2382
54956ION     NA97947  16.101   0.822   8.210 -0.3829  0.1376 -0.7131
54957ION     NA97948  23.384  17.774   5.629 -0.4497  0.2488  0.0291
54958ION     NA97949   5.015  33.054  23.497  0.1364 -0.1592  0.1785
54959ION     NA97950   9.046   0.913  26.282  0.2884  0.1713 -0.4342
54960ION     NA97951  11.291  23.322  10.275 -0.3294  0.2133  0.3226
54961ION     NA97952  11.279  32.755   8.289  0.4685  0.2909 -0.1991
54962ION     NA97953  26.281  17.477   9.512 -0.2242  0.0922  0.0094
54963ION     NA97954   2.596  34.635   4.413  0.2289 -0.0185 -0.5203
54964ION     NA97955  24.697  24.963   9.618 -0.3301 -0.1614 -0.4797
54965ION     NA97956   8.499  25.584  24.928 -0.0887  0.4757  0.1292
54966ION     NA97957  21.389   7.169  24.826 -0.6540  0.0962  0.2883
54967ION     NA97958  13.111  13.876   3.772  0.4404  0.5113 -0.1698
54968ION     NA97959  28.969   6.002   9.918  0.3494  0.1604  0.0577
54969ION     NA97960  26.713   3.790   9.613  0.7213  0.0780 -0.3986
54970ION     NA97961   1.377  34.542  26.692  0.0869  0.1218  0.5190
54971ION     NA97962  14.631  33.757  25.888  0.2040 -0.0688 -0.3531
54972ION     NA97963  14.118  13.053   8.875  0.3190  0.1240  0.2035
54973ION     NA97964  20.944  17.688   8.626  0.0880 -0.2490  0.4588
54974ION     NA97965  11.671  32.729   3.153 -0.5583  0.0107 -0.1735
54975ION     NA97966  11.764  17.041  26.869 -0.0778 -0.5559  0.0950
54976ION     NA97967  28.699   7.184   6.671  0.6093  0.0165  0.1511
54977ION     NA97968  20.256  14.749   7.903 -0.2775  0.4198 -0.5253
54978ION     NA97969  18.272  24.180  21.258 -0.1643 -0.0976  0.0991
54979ION     NA97970   0.357  21.365  25.250  0.5136  0.1455  0.2819
54980ION     NA97971   0.802  16.316   3.042  0.1830 -0.0635 -0.4669
54981ION     NA97972   3.846  12.375  23.885  0.2319  0.3579 -0.3213
54982ION     NA97973  22.864  10.288   2.430  0.1013 -0.5395  0.4049
54983ION     NA97974  28.298   5.529   9.658 -0.6795  0.2678 -0.5704
54984ION     NA97975   9.412  34.526  14.607  0.0273 -0.5659 -0.6379
54985ION     NA97976   7.997  21.181  10.234 -0.1258 -0.2767  0.0118
54986ION     NA97977  22.750   2.281   4.559 -0.0432 -0.0686  0.3915
54987ION     NA97978   3.098  10.165  25.563 -0.0179  0.5120  0.3662
54988ION     NA97979   0.997  28.926   7.330  0.3661 -0.0447 -0.3813
54989ION     NA97980  17.325   7.557  21.765 -0.1201  0.2362  0.0935
54990ION     NA97981  23.389  18.862   4.114  0.2104 -0.2125 -0.3650
54991ION     NA97982  10.153   2.280  14.599 -0.2038 -0.0694 -0.9806
54992ION     NA97983  18.019   1.278   2.489 -0.2864  0.0260 -0.7157
54993ION     NA97984   4.462   0.294  10.260 -0.5596 -0.3139  0.1840
54994ION     NA97985   1.103  33.401   4.527 -0.0060 -0.1402 -0.5130
54995ION     NA97986  30.757  15.189   7.276 -0.2523  0.3499 -0.6985
54996ION     NA97987  21.164  28.140   5.642  0.1783  0.1095 -0.0648
54997ION     NA97988  34.213  27.813  28.919 -0.3487 -0.0138 -0.2362
54998ION     NA97989  34.380  10.662  15.304  0.4414  0.0946 -0.0343
54999ION     NA97990  15.627  21.880   7.341  0.2500 -0.0755 -0.4000
55000ION     NA97991  22.942   9.570   7.547  0.1612  0.8170 -0.3176
55001ION     NA97992   5.347  32.996  15.049 -0.0476 -0.3350 -0.4527
55002ION     NA97993   8.585  26.238   5.899  0.0885  0.1642  0.4197
55003ION     NA97994   3.740  24.793  20.544 -0.0536  0.1127  0.2422
55004ION     NA97995  30.670   0.099   9.352 -0.6040 -0.3007 -0.7610
55005ION     NA97996  33.972   0.555  22.021 -0.0051 -0.8470 -0.4824
55006ION     NA97997  17.475  27.842   5.168 -0.6708  0.2482  0.5313
55007ION     NA97998  33.364  29.596   0.431  0.6250  0.2741  0.4055
55008ION     NA97999  15.971  26.246   6.878  0.0217  0.0380  0.3832
55009ION     NA98000  13.636  31.369  27.478  0.2458  0.2391  0.0300
55010ION     NA98001  31.276  19.027   1.262 -0.2184  0.0779 -0.0968
55011ION     NA98002   0.669  12.397   9.057  0.3508 -0.2870  0.2222
55012ION     NA98003   4.953  24.520   8.914  0.6327 -0.2930  0.8033
55013ION     NA98004   9.812  19.324   1.601  0.0182  0.1336  0.0024
55014ION     NA98005  20.877  29.952  28.476  0.5087 -0.1545  0.2940
55015ION     NA98006   0.544  12.761  11.176  0.1064  0.0420  0.4617
55016ION     NA98007  28.996  32.048   6.426 -0.3360 -0.4784 -0.0524
55017ION     NA98008  29.372  31.904  25.568 -0.1707  0.5024 -0.1285
55018ION     NA98009  15.459  31.776   4.200 -0.1016  0.3304  0.3704
55019ION     NA98010  20.200  29.254   6.469  0.1566  0.1776 -0.0165
55020ION     NA98011  26.371  33.729  17.056  0.5822  0.1405 -0.0012
55021ION     NA98012  27.132  19.982  27.546 -0.6111 -0.3796  0.0369
55022ION     NA98013   6.988   0.911   9.222  0.3391 -0.0000 -0.2276
55023ION     NA98014  19.300   8.142  13.633 -0.0737  0.0181  0.3264
55024ION     NA98015  32.779  18.112   3.131 -0.6076 -0.1534 -0.2982
55025ION     NA98016  29.372  27.834  29.188 -0.2587  0.1614 -0.2109
55026ION     NA98017   6.983  16.484  20.430 -0.3638  0.0243  0.1110
55027ION     NA98018  33.917  28.240  24.773 -0.0579  0.3283 -0.0396
55028ION     NA98019  16.056  13.147  21.028  0.1499 -0.0543 -0.1503
55029ION     NA98020  19.628  13.081   2.097 -0.1473 -0.2762 -0.2080
55030ION     NA98021  23.958  17.129   0.781 -0.4491 -0.0027 -0.4455
55031ION     NA98022   7.962  32.996   9.306 -0.1367 -0.0121  0.3914
55032ION     NA98023   7.100  33.659  23.427 -0.1872 -0.1679  0.2393
55033ION     NA98024  10.481  32.287   2.719 -0.0971  0.2248  0.1588
55034ION     NA98025  11.000   0.273  10.310  0.1921  0.5998 -0.4524
55035ION     NA98026   7.911   4.971  21.165  0.0750 -0.0962  0.3620
55036ION     NA98027  32.150  33.984   7.047 -0.0844 -0.1835  0.8222
55037ION     NA98028  18.945  26.548  21.831  0.3728 -0.1641 -1.0521
55038ION     NA98029  27.386  14.266  10.486  0.0354 -0.3892 -0.1525
55039ION     NA98030  23.570  24.049  16.968 -0.0452  0.1034  0.8086
55040ION     NA98031  20.015  11.722   4.885  0.4511  0.0983 -0.0272
55041ION     NA98032  22.674   1.925   6.565 -0.3178 -0.2352  0.1545
55042ION     NA98033  28.810  19.896  14.312 -0.7329 -0.1813 -0.4580
55043ION     NA98034  20.893  11.242  26.703 -0.4464  0.5333  0.3098
55044ION     NA98035  17.174  15.068  26.937  0.4859 -0.5115  0.5376
55045ION     NA98036  29.065  34.209  29.203 -0.3286 -0.5883 -0.4161
55046ION     NA98037   9.129  21.649   3.377 -0.1012 -0.1279  0.3901
55047ION     NA98038   8.027  16.355  10.391  0.1911 -0.0004 -0.4368
55048ION     NA98039  26.027  26.168   2.757  0.0071  0.7029 -0.1324
55049ION     NA98040  23.218   9.499  25.478  0.0915  0.1591 -0.6025
55050ION     NA98041  32.102  25.541  29.084 -0.1183  0.2175  0.2670
55051ION     NA98042  22.450  17.709   6.105  0.6434 -0.1478 -0.2223
55052ION     NA98043  21.423  29.471  13.301 -0.1836 -0.0310 -0.7264
55053ION     NA98044  11.076  21.229  26.137  0.8865 -0.1641 -0.1430
55054ION     NA98045  25.099  25.398   3.520 -0.1631 -0.0195  0.0568
55055ION     NA98046   8.813  13.469   5.629 -0.1007 -0.0666 -0.0527
55056ION     NA98047  17.963   3.164   9.922  0.1545  0.9836 -0.3179
55057ION     NA98048  32.306   2.595  25.413 -0.0138  0.1788  0.0477
55058ION     NA98049  19.244  16.649  28.603 -0.5463  0.0619 -0.4167
55059ION     NA98050  19.928  33.533   1.294  0.1352  0.5384 -0.2476
55060ION     NA98051   6.968   5.590  15.122 -0.0765  0.5524  0.2726
55061ION     NA98052  32.208  24.910  24.187  0.4191 -0.2114 -0.0347
55062ION     NA98053   1.664  10.906  17.672  0.2788  0.5459 -0.1761
55063ION     NA98054  11.732  23.633  22.988  0.2239  0.0466 -0.4589
55064ION     NA98055   1.790   4.911   5.020 -0.2960  0.1746  0.4427
55065ION     NA98056   9.812  19.545  14.448  0.0202 -0.2128  0.1313
55066ION     NA98057  30.608  22.840   4.578  0.2897 -0.0628  0.1188
55067ION     NA98058  10.460  13.025  10.672  0.2845 -0.4063  0.6922
55068ION     NA98059  34.404  27.050  17.871  0.4185  0.1392  0.2587
55069ION     NA98060  17.168  22.911   9.517  0.0278 -0.3256 -0.5770
55070ION     NA98061  33.797  26.497   0.960  0.2223  0.2433 -0.1408
55071ION     NA98062  12.677  32.505  27.583  0.1516 -0.3524 -0.2082
55072ION     NA98063  27.132  13.540   8.860 -0.1844  0.5228  0.0940
55073ION     NA98064  31.856  12.947  11.595  0.0333 -0.1314  0.3341
55074ION     NA98065  10.772  29.962   7.788  0.7039  0.2631  0.3382
55075ION     NA98066  23.778  25.544   5.362  0.3545 -0.1483  0.1121
55076ION     NA98067   6.208  21.827   8.256 -0.4897 -0.0744 -0.2121
55077ION     NA98068  31.213   3.491   4.050  0.1530  0.0348  0.3883
55078ION     NA98069  14.691  28.610   2.520  0.1437  0.1710  0.1850
55079ION     NA98070  17.129   2.127   3.571 -0.0838 -0.1767 -0.2456
55080ION     NA98071   5.652  29.711   3.589 -0.0886  0.1462  0.4169
55081ION     NA98072  33.883  29.315   2.509  0.0001 -0.1173  0.2649
55082ION     NA98073  11.696  32.387   6.607  0.1036 -0.1509 -0.0425
55083ION     NA98074   7.109  31.033   5.488 -0.1846 -1.0660 -0.0807
55084ION     NA98075  16.532  19.679   3.951 -0.1306 -0.1575  0.1554
55085ION     NA98076  14.887  31.228   2.877 -0.0545  0.1204  0.1857
55086ION     NA98077   1.472   4.536   5.524  0.1815  0.3816 -0.3368
55087ION     NA98078  33.933   6.806   9.509  0.1366  0.0735 -0.4828
55088ION     NA98079   8.377   1.563  10.732 -0.4672 -0.4497 -0.5728
55089ION     NA98080  26.593  14.788  10.519  0.1244 -0.1298 -0.3892
55090ION     NA98081   7.018  15.628  10.718  0.0971 -0.0266  0.0909
55091ION     NA98082  26.129  13.814   3.604  0.3071  0.2725 -0.3089
55092ION     NA98083   9.828   7.213  11.023  0.1635  0.0995 -0.6727
55093ION     NA98084  32.643  23.719  29.228  0.1113  0.4318  0.2818
55094ION     NA98085  32.145   7.974   5.802  0.0577  0.5559  0.5111
55095ION     NA98086  28.138  14.020  10.676  0.0090 -0.3055  0.2330
55096ION     NA98087  27.056  27.462  27.403 -0.0473 -0.0319  0.5041
55097ION     NA98088  16.977  30.755   7.202 -0.3034  0.1610  0.1292
55098ION     NA98089   7.597  11.746  26.051 -0.4056 -0.1781 -0.2757
55099ION     NA98090   9.854  15.544  10.103 -0.1722 -0.1111 -0.2234
55100ION     NA98091   0.241  11.533   5.291 -0.7040  0.4036  0.4745
55101ION     NA98092  23.805  13.202   3.875 -0.2373 -0.0735 -0.4058
55102ION     NA98093  31.183   7.501  25.583  0.5979 -0.5226  0.0942
55103ION     NA98094  13.897  26.677  28.169 -0.5681 -0.5920  0.0868
55104ION     NA98095  30.136  27.321   5.392  0.0604 -0.4854 -0.3576
55105ION     NA98096   8.617   6.281   9.736 -0.3814  0.3076  0.0751
55106ION     NA98097  27.161  26.576   6.517  0.3881  0.1573  0.0693
55107ION     NA98098  28.183   7.719   4.563  0.6330 -0.3276 -0.1190
55108ION     NA98099  13.620  23.657   1.469 -0.1827  0.1282  0.0558
55109ION     NA98100  23.484  29.391   2.085 -0.0764  0.6939  0.0228
55110ION     NA98101   0.671   9.819  11.493  0.1682 -0.4309 -0.7009
55111ION     NA98102   0.909  22.020  10.224 -0.2981 -0.2817  0.0860
55112ION     NA98103  25.438  25.110  17.299 -0.0210 -0.1777 -0.2703
55113ION     NA98104  34.272   5.059  19.892  0.1765 -0.0652 -0.1495
55114ION     NA98105  15.463  11.751   7.629  0.3640  0.2193 -0.5026
55115ION     NA98106  25.641   5.676   1.420 -0.3502  0.4186  0.2522
55116ION     NA98107  33.467  13.656  25.418 -0.2572 -0.5377 -0.1353
55117ION     NA98108  31.671   1.779   9.561  0.1258  0.4307  0.0020
55118ION     NA98109  10.462  21.087   9.469  0.4923  0.0404  0.3227
55119ION     NA98110  21.465  15.027   0.477  0.1085 -0.2472  0.1840
55120ION     NA98111  21.402  24.951   9.000 -0.0982 -0.3370 -0.0514
55121ION     NA98112   6.101   9.690   3.602 -0.4229  0.2581  0.1527
55122ION     NA98113  15.298   0.424  27.285  0.4168 -0.1375 -0.0210
55123ION     NA98114  21.116  10.941   9.677  0.4717  0.3444  0.4725
55124ION     NA98115  24.817  26.141  21.469  0.3188 -0.1704 -0.6685
55125ION     NA98116   3.122  13.107   3.393  0.1517 -0.4590  0.4656
55126ION     NA98117   4.710  28.689   1.985 -0.2816  0.2904 -0.1440
55127ION     NA98118   2.444  34.307  26.251 -0.1256  0.4738 -0.3134
55128ION     NA98119  25.739  28.467  26.898 -0.1173 -0.2283  0.4666
55129ION     NA98120  21.910  18.304   2.267 -0.3280 -0.1609  0.0331
55130ION     NA98121  34.532  32.380  24.855 -0.5884  0.3836  0.1717
55131ION     NA98122   1.818  32.446   2.962 -0.3425 -0.1386  0.5747
55132ION     NA98123  27.979  34.688  20.728  0.0684 -0.0145  0.3377
55133ION     NA98124   6.559  19.230  27.734  0.1452  0.5188  0.2044
55134ION     NA98125  21.552  13.183   7.683 -0.2139  0.3784 -0.0685
55135ION     NA98126   2.678  25.823  29.208  0.3570 -0.5028 -0.4754
55136ION     NA98127   8.551   0.524  10.855  0.0454  0.4054  0.1829
55137ION     NA98128   6.184  16.646  21.378  0.3498  0.3307  0.3675
55138ION     NA98129  12.169  27.506   2.620 -0.0701  0.3884  0.0911
55139ION     NA98130   5.167  21.775  14.495 -0.2661  0.3687  0.2408
55140ION     NA98131  24.678  27.090  13.299  0.5317 -0.0893 -0.3096
55141ION     NA98132  12.159   0.600  10.773 -0.1483 -0.0682  0.4843
55142ION     NA98133  24.593  15.393   0.781 -0.0150 -0.1915  0.0687
55143ION     NA98134  17.385  19.409   8.617 -0.3529  0.4050 -0.1816
55144ION     NA98135  18.371   7.943  26.433 -0.1393 -0.2078  0.2096
55145ION     NA98136   6.333   2.796  24.453  0.8851  0.4971 -0.6897
55146ION     NA98137  15.920  33.308   9.778 -0.3944  0.3865  0.5224
55147ION     NA98138  11.954  21.215   8.645 -0.3881 -0.1409 -0.4097
55148ION     NA98139  17.761   6.989   6.171  0.0862  0.2387 -0.0320
55149ION     NA98140  21.275  33.293   0.194  0.0981 -0.0422  0.4888
55150ION     NA98141  34.244  10.642   4.320  0.3988  0.6034 -0.3586
55151ION     NA98142  26.331   8.301   9.041 -0.3627  0.4456  0.1502
55152ION     NA98143  16.780  19.090   7.765  0.5574 -0.1047  0.1187
55153ION     NA98144  17.845   1.553  10.176 -0.5699 -0.7513  0.1967
55154ION     NA98145  11.385  11.741  10.595  0.4002  0.0613 -0.4928
55155ION     NA98146  33.677  22.441  24.896 -0.4553 -0.4648 -0.1826
55156ION     NA98147  34.368   8.294  27.149  0.5183  0.1361  0.1400
55157ION     NA98148  30.041  18.661   6.671 -0.2204 -0.3115 -0.1774
55158ION     NA98149   1.574  26.832   9.585  0.3471 -1.0233 -0.2589
55159ION     NA98150  19.838  30.080   7.922 -0.0742 -0.0395  0.2993
55160ION     NA98151  34.229  30.510   8.905  0.3614  0.2475 -0.1197
55161ION     NA98152   5.034  24.696   6.805  0.0195  0.1393  0.4985
55162ION     NA98153  27.339  26.054   9.295 -0.3364  0.1396  0.2783
55163ION     NA98154  12.785  30.090  26.647 -0.0545 -0.0067  0.5393
55164ION     NA98155   4.876  24.156  28.712 -0.3710  0.3408 -0.8342
55165ION     NA98156  28.431  14.803  10.741 -0.1776 -0.6304  0.3556
55166ION     NA98157  26.906  13.677  14.104 -0.3367 -0.2365 -0.0634
55167ION     NA98158   5.434  14.021  16.051  0.4132  0.3838 -0.2130
55168ION     NA98159  27.797  16.886  28.990  0.1406 -0.5831  0.0110
55169ION     NA98160  28.039  16.083  26.379  0.3462 -0.7393  0.4869
55170ION     NA98161  33.070  30.140   0.953  0.1606 -0.1026  0.0778
55171ION     NA98162  22.906  28.217   7.355 -0.2508  0.1259  0.1403
55172ION     NA98163  32.804  34.489   8.929  0.5245  0.2652 -0.1981
55173ION     NA98164  29.569  13.406  24.687  0.2741 -0.2830 -0.1232
55174ION     NA98165  17.360  16.370   8.333 -0.4012 -0.4257  0.3047
55175ION     NA98166  31.955   3.499   1.254 -0.1852 -0.2140 -0.1419
55176ION     NA98167  15.646   6.508   6.087  0.1834 -0.3097  0.8143
55177ION     NA98168  11.575  27.750   9.769 -0.1164 -0.3880  0.2800
55178ION     NA98169  21.340   6.940   7.423  0.2577  0.1948  0.3364
55179ION     NA98170   3.053  21.210   4.255 -0.5066  0.9237  0.3879
55180ION     NA98171  29.750  29.029  24.554  0.2890  0.1072 -0.1045
55181ION     NA98172  22.581  15.814   0.541 -0.1657 -0.5158 -0.4322
55182ION     NA98173  18.819  13.165  27.368 -0.0483 -0.0395  0.8907
55183ION     NA98174   3.478  20.005  10.075  0.1110  0.7999 -0.2308
55184ION     NA98175  10.335   0.513   4.989  0.5283  0.1541  0.0916
55185ION     NA98176  12.242  23.496  28.176  0.7516  0.4561  0.1105
55186ION     NA98177  30.927  15.065  27.982 -0.1284 -0.1000  0.1689
55187ION     NA98178  18.802  27.022   2.482  0.0779 -0.0987 -0.0687
55188ION     NA98179   1.682   2.549   8.560  0.4777 -0.2631  0.6966
55189ION     NA98180  14.835   6.586  22.051  0.1625  0.0478  0.0403
55190ION     NA98181  33.132   8.542  15.006 -0.1156  0.0312  0.0810
55191ION     NA98182  30.116   1.399  27.275  0.6500 -0.3483  0.6238
55192ION     NA98183  19.564  17.168  22.886 -0.1556  0.3479 -0.3597
55193ION     NA98184   5.435   8.195   6.326 -0.1735 -0.2231 -0.1727
55194ION     NA98185   6.709   6.244   3.805  0.0550 -0.0124  0.2954
55195ION     NA98186   5.448  21.409  10.240 -0.4805 -0.2109 -0.0389
55196ION     NA98187  24.942  16.501  22.270  0.0137 -0.9735  0.2945
55197ION     NA98188   1.520  16.117   8.360  0.0065  0.0537  0.3791
55198ION     NA98189   0.931  19.478  28.106 -0.3003  0.2104 -0.0020
55199ION     NA98190  13.931   3.856   6.290 -0.0257  0.1817 -0.4356
55200ION     NA98191  26.620  29.149   8.673  0.0504 -0.5738  0.2817
55201ION     NA98192  10.155   5.450  24.777  0.2761  0.4054 -0.0404
55202ION     NA98193  27.337   8.813  25.849 -0.0384  0.1887  0.0879
55203ION     NA98194  22.607  29.898   0.619 -0.1450  0.3396 -0.3010
55204ION     NA98195   6.756   7.510   4.329  0.7497  0.1209  0.0048
55205ION     NA98196  16.693  17.604   8.926  0.2213  0.1152  0.1696
55206ION     NA98197  20.485  27.323  27.971 -0.0972 -0.4767 -0.5335
55207ION     NA98198  13.995  24.962  25.968  0.0469  0.4599  0.1658
55208ION     NA98199   7.869   5.419   5.591 -0.0656  0.3758 -0.3335
55209ION     NA98200  27.336  18.216  22.433 -0.1862  0.5449  0.0552
55210ION     NA98201  20.799  11.818   9.084  0.8363 -0.0090  0.2174
55211ION     NA98202   7.937  12.305  15.136 -0.0288  0.3652  0.1254
55212ION     NA98203  27.874  17.187  19.435  0.4078  0.3248 -0.2073
55213ION     NA98204  18.718  33.047   1.700  0.1057  0.3254 -0.5820
55214ION     NA98205  14.419  10.889   6.376 -0.3681 -0.4969  0.0540
55215ION     NA98206   2.672  24.099   8.970  0.6689  0.7934 -0.0634
55216ION     NA98207   8.501  28.834  23.338 -0.1909 -0.4670  0.5885
55217ION     NA98208  21.488  14.217   9.381 -0.2689  0.1499  0.1772
55218ION     NA98209   2.289   9.991   2.807 -0.1336 -0.1992  0.0082
55219ION     NA98210  32.248  30.657  26.203 -0.1529 -0.6057 -0.2162
55220ION     NA98211  16.785   8.679   3.595  0.1818 -0.0655 -0.1686
55221ION     NA98212  21.214  15.852   6.741 -0.1307 -0.1371  0.0366
55222ION     NA98213  12.125  28.612  27.872  0.1708 -0.2187 -0.0450
55223ION     NA98214  21.312   6.402   6.321 -0.2079  0.4635 -0.4060
55224ION     NA98215   8.676  32.410  22.143 -0.2248 -1.1124  0.1751
55225ION     NA98216  15.888  18.714   0.641 -0.4036  0.1983  0.1680
55226ION     NA98217   6.803   8.813  10.530  0.3548 -0.7532 -0.0298
55227ION     NA98218  31.600  16.460  29.015 -0.9141  0.1722  0.4269
55228ION     NA98219   3.942  16.655  28.902  0.5233 -0.0005  0.5845
55229ION     NA98220  16.499   1.989   4.994  0.3402  0.0220  0.2231
55230ION     NA98221   8.712   9.682   9.970  0.7713  0.2867 -0.1883
55231ION     NA98222  15.854  32.340   7.608  0.0981 -0.2809 -0.0293
55232ION     NA98223   1.131  25.730   6.115 -0.4473  0.4014  0.4086
55233ION     NA98224  10.959   7.205  24.350  0.2162 -0.2736 -0.1262
55234ION     NA98225  28.795  11.297   5.105  0.0308 -0.0609 -0.2261
55235ION     NA98226  11.526   0.763   5.626 -0.0080  0.0028  0.3817
55236ION     NA98227  22.147  32.180   2.292 -0.2955 -0.2403 -0.2496
55237ION     NA98228  25.998   8.237   8.274 -0.0459 -0.0134 -0.4011
55238ION     NA98229   7.411  25.723   4.754  0.1635  0.3290 -0.3188
55239ION     NA98230   4.537   4.748   9.852 -0.2959 -0.6362  0.3264
55240ION     NA98231  21.512  12.152   0.071  0.0165 -0.1029  0.6597
55241ION     NA98232  20.274  18.447   1.801 -0.0102 -0.2962  0.4472
55242ION     NA98233  18.822   0.109   9.402 -0.2677 -0.5281 -0.2247
55243ION     NA98234  19.001  23.763   8.936  0.0974  0.4286 -0.1752
55244ION     NA98235  32.183  12.488   0.186 -0.1148 -0.0066 -0.5864
55245ION     NA98236  28.617   0.006   3.761 -0.1512 -0.2536 -0.1666
55246ION     NA98237   2.776  26.924   0.150  0.2356  0.2869 -0.0632
55247ION     NA98238  20.820  23.637  20.932  0.1946  0.0807 -0.6518
55248ION     NA98239  26.174   1.097  12.771 -0.1663 -0.0644 -0.0267
55249ION     NA98240  24.157   1.876   8.601 -0.8383 -0.2796 -0.5054
55250ION     NA98241  14.567  34.758   0.096  0.0566  0.5859 -0.7690
55251ION     NA98242   6.094  11.358   8.737  0.0709 -0.1921 -0.1287
55252ION     NA98243  17.734  18.634   0.956  0.1460  0.2530  0.1890
55253ION     NA98244   5.834  34.612   9.867  0.6211 -0.1036 -0.3384
55254ION     NA98245  29.110  10.529   3.234 -0.1504 -0.3077  0.0142
55255ION     NA98246  16.859   8.157   9.536 -0.5181 -0.0809  0.2214
55256ION     NA98247  22.659   7.943   0.149 -0.1079 -0.4793 -0.3237
55257ION     NA98248   5.045   1.475   1.919 -0.4216 -0.1530  0.2046
55258ION     NA98249  17.419  15.797  25.108 -0.2744 -0.2241 -0.2140
55259ION     NA98250  25.884  21.581   8.572  0.0310 -0.1080 -0.2194
55260ION     NA98251   0.411  19.764   0.841  0.1565 -0.2054 -0.1828
55261ION     NA98252  15.761  20.366  21.811  0.2685 -0.3524  0.5822
55262ION     NA98253  20.876  32.741   8.980  0.5003  0.2118  0.8548
55263ION     NA98254  11.308  33.246  24.043 -0.0311 -0.6792 -0.2344
55264ION     NA98255  20.574   0.144  25.007  0.1859 -0.2948  0.2013
55265ION     NA98256  22.056  16.225   5.938  0.0883  0.3339  0.1768
55266ION     NA98257   6.203  14.870   3.512  0.2566 -0.1231  0.7481
55267ION     NA98258   9.365  16.822   6.630 -0.1503  0.4532  0.4251
55268ION     NA98259  17.930  13.450   4.175 -0.6644  0.3149  0.1683
55269ION     NA98260   6.621  21.155  10.528 -0.0493  0.5543  0.2765
55270ION     NA98261  33.862  21.622   4.323 -0.6379  0.1117  0.6529
55271ION     NA98262   4.121  18.935  18.352  0.2826 -0.0926 -0.5267
55272ION     NA98263  19.465   3.488   6.928 -0.3571  0.6682  0.1591
55273ION     NA98264  32.125  32.320  28.741  0.0701  0.1130  0.0704
55274ION     NA98265  24.612  12.836   0.533 -0.1282 -0.6296  0.4989
55275ION     NA98266   7.205   5.722  10.848 -0.2578  0.3311 -0.4202
55276ION     NA98267  26.531  24.727  27.053  0.0634 -0.6618 -0.4990
55277ION     NA98268  15.009   8.903   6.281  0.3160  0.2328  0.1222
55278ION     NA98269  11.283  11.032  21.322 -0.2994  0.2272 -0.2607
55279ION     NA98270  33.404   2.937  10.279  0.1159  0.1072 -0.3850
55280ION     NA98271  18.100  13.304   1.133  0.0501  0.0157  0.0007
55281ION     NA98272  29.146  17.140   1.497  0.1601  0.0316 -0.8937
55282ION     NA98273  27.942  32.377   1.001 -0.5683 -0.0094  0.1934
55283ION     NA98274  31.115  28.158   8.909  0.4158 -0.3579 -0.1120
55284ION     NA98275  22.607  23.428   8.875 -0.0727 -0.0216  0.3533
55285ION     NA98276  31.290  25.418  15.996  0.5633  0.1069  0.4294
55286ION     NA98277  29.655  32.951   1.643  0.4844 -0.2577  0.1572
55287ION     NA98278  26.503  26.213   9.190 -0.3813 -0.2734  0.5425
55288ION     NA98279  25.326  24.544   2.518 -0.2681 -0.0556 -0.4773
55289ION     NA98280  27.230  12.186  10.242  0.6953 -0.9037  0.0650
55290ION     NA98281  12.513  11.912  23.156  0.4039  0.1590  0.2436
55291ION     NA98282   6.966  34.551  29.246  0.0273 -0.0959 -1.3144
55292ION     NA98283  26.594  11.046   5.204 -0.0404 -0.5753 -0.2821
55293ION     NA98284   2.415   4.729   4.437 -0.0168  0.5202  0.4620
55294ION     NA98285  32.822  20.587   1.528 -0.0703 -0.2834 -0.2419
55295ION     NA98286   3.717   0.199   5.822  0.4291 -0.5184  0.0657
55296ION     NA98287   7.828  23.723   8.044  0.1474 -0.0170  0.4995
55297ION     NA98288  15.459  18.315   2.504  0.1993  0.3459 -0.0097
55298ION     NA98289  19.174   8.472   9.161  0.1209  0.4480  0.0587
55299ION     NA98290  14.959  26.038   9.751 -0.0601  0.1792  0.1252
55300ION     NA98291  33.843  33.584   9.418  0.4218 -0.1039  0.1998
55301ION     NA98292   5.517  12.044  28.367  0.4710  0.0957 -0.2058
55302ION     NA98293  11.018  31.224  20.064 -0.1887  0.2964 -0.3182
55303ION     NA98294  20.386  26.476  28.591 -0.9941  0.4937  0.0347
55304ION     NA98295  24.491  16.868   8.373 -0.2257  0.4060 -0.4309
55305ION     NA98296  10.263  31.470  28.156 -0.3769  0.0730  0.2711
55306ION     NA98297   4.142  29.770   9.490 -0.3052  0.1639  0.2353
55307ION     NA98298  18.134  10.988   9.396 -0.3482  0.2513 -0.1475
55308ION     NA98299  10.618  28.347  19.816  0.0433  0.0186 -0.2494
55309ION     NA98300  10.617  29.914   9.118  0.2423 -0.2123 -0.1124
55310ION     NA98301  15.057  31.225  28.521 -0.2309 -0.0691 -0.6226
55311ION     NA98302   3.819   9.206   6.285  0.3207 -0.6062 -0.3065
55312ION     NA98303   2.769  18.613   8.497 -0.0715 -0.2363 -0.1404
55313ION     NA98304  19.270   5.081  27.475 -0.2649  0.2761  0.2249
55314ION     NA98305   0.388  23.054  14.231  0.1362 -0.4649  0.2432
55315ION     NA98306  25.833  28.161   3.815  0.8218 -0.0166  0.0655
55316ION     NA98307  24.643   4.812   7.791 -0.0870 -0.1750  0.5653
55317ION     NA98308  30.252  32.013   4.076  0.3259 -0.2780  0.0931
55318ION     NA98309   2.524   4.098  10.945  0.4859 -0.1475  0.2986
55319ION     NA98310   0.088  27.411   0.921  0.1713 -0.2721 -0.4827
55320ION     NA98311   5.111  28.346   9.403 -0.1654  0.2324 -0.1458
55321ION     NA98312  22.173  13.682   5.732  0.2035  0.0435  0.3739
55322ION     NA98313  18.945   6.359  28.266 -0.4756  0.0239 -0.1986
55323ION     NA98314  14.907  20.500  27.882 -0.0507 -0.0329  0.2688
55324ION     NA98315  23.495  18.952  13.774 -0.0873 -0.2022  0.1376
55325ION     NA98316  28.455  30.930  14.973  0.1306  0.2038  0.1112
55326ION     NA98317   0.773  11.711   7.739  0.0775  0.5020  0.1163
55327ION     NA98318   0.556   1.888  22.550 -0.1535 -0.2490  0.1675
55328ION     NA98319  31.977   2.302  13.656  0.0441  0.0774  0.3249
55329ION     NA98320  34.103   3.714   4.741  0.3219  0.4022  0.0457
55330ION     NA98321  22.654   7.289   3.667 -0.0571  0.2464  0.1346
55331ION     NA98322  18.026  21.747   7.958  0.5462  0.1372  0.4647
55332ION     NA98323   5.472  13.423  11.383 -0.0659  0.4073 -0.3213
55333ION     NA98324   4.056  15.861  11.877 -0.1001  0.1802 -0.4029
55334ION     NA98325  29.256   9.693   5.470  0.0202 -0.0080 -0.0938
55335ION     NA98326  24.867  16.893   5.439 -0.2097 -0.2530  0.1275
55336ION     NA98327  24.375   4.187   8.763  0.2095 -0.2515 -0.0216
55337ION     NA98328  21.049  34.661   9.602 -0.0026  0.4579  0.2353
55338ION     NA98329  17.436  28.094  25.157  0.0941  0.0819  0.1318
55339ION     NA98330  28.808  19.749  24.152  0.1536  0.4727  0.1383
55340ION     NA98331  16.668   9.065   5.347 -0.1350 -0.5330  0.2461
55341ION     NA98332  28.151   4.234   2.976 -0.7300 -0.1181  0.1934
55342ION     NA98333  15.275   5.381   7.056  0.4123 -0.4175 -0.1090
55343ION     NA98334   1.268  22.073   9.054 -0.3131 -0.0323 -0.1934
55344ION     NA98335   3.280   6.840  10.623  0.2258  0.0838 -0.5205
55345ION     NA98336  20.509  15.642   9.324  0.0446  0.2285 -0.0278
55346ION     NA98337  15.237   8.764   2.270  0.5428 -0.2294  0.1415
55347ION     NA98338  11.356   8.083   6.628  0.0641  0.5971  0.2881
55348ION     NA98339   0.353  16.626   1.369 -0.4490 -0.3582 -0.5687
55349ION     NA98340  19.726  11.081  13.675 -0.1647 -0.0437 -0.0148
55350ION     NA98341   6.493  10.730  10.965 -0.2541  0.0617 -0.2190
55351ION     NA98342   5.032   3.450  25.695 -0.0566  0.2121  0.4283
55352ION     NA98343  31.513  27.594   7.372 -0.0648 -0.0367  0.3356
55353ION     NA98344   3.529  26.975   5.311  0.3848  0.2985  0.3035
55354ION     NA98345   7.056   2.879  19.218 -0.0116 -0.2334 -0.3319
55355ION     NA98346  28.939   8.913  10.050  0.4878 -0.5933  0.0671
55356ION     NA98347  25.548  23.073   8.647  0.5193 -0.0681 -0.0580
55357ION     NA98348  18.313  28.271  20.942 -0.0549 -0.0537  0.5233
55358ION     NA98349  19.796  20.853   6.620 -0.4202  0.1350 -0.4167
55359ION     NA98350   8.528  33.938   5.617 -0.0202 -0.0284  0.3033
55360ION     NA98351  19.389  11.543   3.460  0.1785  0.2053  0.5320
55361ION     NA98352  15.864  27.790  24.738 -0.0440  0.0817 -0.2128
55362ION     NA98353   3.072  22.640  10.490  0.3983 -0.4105 -0.0640
55363ION     NA98354  25.839  22.097  16.209 -0.1733  0.0719 -0.0845
55364ION     NA98355  22.644  33.847  23.347  0.1986  1.0201 -0.4944
55365ION     NA98356  15.748  33.742   9.957 -0.4569 -0.0868  0.1919
55366ION     NA98357  10.617  12.389   9.319  0.1618  0.2007  0.2260
55367ION     NA98358  27.023  23.767  28.594  0.1220  0.8083 -0.1768
55368ION     NA98359   1.154   3.682  10.178 -0.0114 -0.3562 -0.5001
55369ION     NA98360  34.712   3.355  26.591  0.0139 -0.0488  0.0905
55370ION     NA98361  17.628  14.160  21.563 -0.3099 -0.0797 -0.2203
55371ION     NA98362  31.753  20.017  28.493  0.0806 -0.3193  0.2722
55372ION     NA98363  24.085   6.179  13.675 -0.3705 -0.0758  0.1364
55373ION     NA98364  20.067  31.447   0.510 -0.5909  0.1974  0.4679
55374ION     NA98365  12.596  34.403   6.315  0.0999 -0.4184 -0.1120
55375ION     NA98366  19.787  23.842  27.706 -0.6170 -0.2862 -0.0333
55376ION     NA98367  31.253  24.768   9.776 -0.3430 -0.3365  0.0045
55377ION     NA98368  26.281  16.175   2.120 -0.5446 -0.5349  0.3439
55378ION     NA98369  22.538   7.981   7.097  0.0512 -0.0316  0.2404
55379ION     NA98370  18.633   3.767   4.417 -0.2976  0.1973  0.6259
55380ION     NA98371  23.130   0.872   1.681  0.5067 -0.2341  0.6319
55381ION     NA98372  21.696  12.162  26.859 -0.5728  0.0651  0.0584
55382ION     NA98373  32.963  17.295  10.673 -0.4750 -0.2266  0.4605
55383ION     NA98374  24.716  34.488   8.980 -0.2481  0.2014 -0.3757
55384ION     NA98375  27.669   7.950   0.999 -0.0369  0.4588 -0.7138
55385ION     NA98376  34.773  23.557  25.826 -0.5688 -0.0415  0.3302
55386ION     NA98377  19.986  20.553  27.112 -0.2281 -0.0748 -0.4169
55387ION     NA98378  32.447  11.839  10.535 -0.5213  0.6132 -0.3170
55388ION     NA98379  28.139  10.741   6.783 -0.1970  0.3183  0.4084
55389ION     NA98380  28.695  18.698   5.207  0.2052 -0.3987 -0.2362
55390ION     NA98381  16.949  13.505   8.477  0.0992 -0.5325  0.2428
55391ION     NA98382  10.872  28.974  10.385  0.3510  0.2693 -0.1391
55392ION     NA98383  16.640  20.071  28.590 -0.1408  0.1835  0.4208
55393ION     NA98384   2.389   8.815   2.247  0.1993  0.1669  0.4570
55394ION     NA98385  27.974  24.026   6.691  0.2502 -0.8523 -0.7868
55395ION     NA98386  23.124  34.176  14.802  0.3376 -0.5349 -0.3317
55396ION     NA98387   5.003  16.138   3.508  0.2095  0.7007 -0.4883
55397ION     NA98388  19.479  16.982  24.024  0.3352 -0.2448 -0.0391
55398ION     NA98389  10.050  14.221   3.224 -0.2899  0.2549 -0.2445
55399ION     NA98390  11.933  19.237   9.232 -0.0732 -0.2377 -0.0165
55400ION     NA98391  26.214  26.214   7.969  0.3329 -0.0808  0.5321
55401ION     NA98392  19.781   8.478  24.608  0.5061 -0.3666  0.1876
55402ION     NA98393  15.726  16.555   8.504  0.6321  0.6004  0.3918
55403ION     NA98394  15.936   6.922  27.682 -0.3150 -0.0872  0.3542
55404ION     NA98395   1.726  20.018   8.397 -0.2160 -0.0340  0.0066
55405ION     NA98396  15.752  15.876  25.671 -0.2394 -0.1801 -0.2250
55406ION     NA98397  15.630  18.644   8.950 -0.1145  0.4808 -0.3286
55407ION     NA98398  30.162   8.829  15.727  0.3288  0.4448 -0.1820
55408ION     NA98399   1.227   7.700   8.002  0.1757 -0.1687 -0.4814
55409ION     NA98400  15.017  23.812   9.883  0.2727 -0.1077 -0.0915
55410ION     NA98401  19.373  14.448   2.971  0.5030 -0.2964  0.3783
55411ION     NA98402  16.169   0.006  10.284 -0.0704  0.0508  0.1857
55412ION     NA98403  30.570   7.753  15.966 -0.1996  0.0402 -0.0152
55413ION     NA98404  17.274  18.199  26.874  0.0225 -0.4011  0.5180
55414ION     NA98405   0.353  19.468  10.558 -0.0103 -0.6363 -0.5556
55415ION     NA98406  17.746  18.007  23.688  0.2186  0.2250 -0.2992
55416ION     NA98407   1.046  22.882   5.485 -0.0314 -0.4350  0.1832
55417ION     NA98408  11.124  11.888   3.426 -0.0666 -0.1315  0.5984
55418ION     NA98409   7.115  14.109  10.968  0.2421  0.2820 -0.2009
55419ION     NA98410  12.358   6.399  11.263 -0.1097 -0.1309 -0.3913
55420ION     NA98411  26.845  29.458   1.803 -0.7438  0.1264 -0.1134
55421ION     NA98412   8.834  34.273   6.003 -0.1137 -0.0043 -0.1529
55422ION     NA98413  20.194  22.217   3.309 -0.2610  0.2703 -0.1663
55423ION     NA98414  27.496  27.175   7.062  0.3154  0.3099 -0.3430
55424ION     NA98415   4.064  16.622  10.291 -0.0232 -0.3835 -0.1529
55425ION     NA98416  17.815   5.849  28.820  0.6387 -0.2885 -0.2281
55426ION     NA98417  32.068  17.819   0.499  0.0726 -0.5504 -0.1494
55427ION     NA98418  27.996   5.957   5.950 -0.3951 -0.1054  0.3392
55428ION     NA98419   1.303  23.155  21.782  0.5857  0.7657  0.1662
55429ION     NA98420  21.981   1.403   0.580  0.0446 -0.0013  0.0607
55430ION     NA98421   8.277   5.491  10.079  0.1147 -0.4431 -0.3966
55431ION     NA98422  31.574   0.690   8.860  0.3967 -0.6174  0.0884
55432ION     NA98423  14.833  28.741  26.280 -0.0486 -0.3318 -0.4123
55433ION     NA98424   8.109  26.853   7.544  0.6874  0.0453 -0.5079
55434ION     NA98425  24.741   4.506   3.288 -0.4312  0.4346 -0.1125
55435ION     NA98426  24.073  10.326   6.658  0.0084  0.4879 -0.8153
55436ION     NA98427  12.273   0.025  10.911 -0.3989 -0.0314  0.2581
55437ION     NA98428  15.183  13.602   1.670 -0.5058  0.2295  0.3858
55438ION     NA98429   9.783  22.974  25.705 -0.2350  0.3356  0.1491
55439ION     NA98430  17.791  15.273  24.906 -0.6549 -0.1875 -0.0126
55440ION     NA98431  16.251  21.287   8.699  0.2339 -0.1046  1.0775
55441ION     NA98432  30.792  32.858  21.414 -0.3170 -0.0096 -0.3874
55442ION     NA98433  29.480  30.266  19.579 -0.2544  0.4279 -0.1068
55443ION     NA98434   1.984  26.104   0.820 -1.0209 -0.2572  0.2565
55444ION     NA98435   3.226   4.330   7.094  0.1581  0.5658 -0.0205
55445ION     NA98436  27.549  10.701   6.989 -0.2516 -0.1729  0.0928
55446ION     NA98437  19.155  21.330   6.970  0.5929  0.3768  0.4695
55447ION     NA98438   0.256  30.895   8.871  0.3099  0.1642  0.2253
55448ION     NA98439   1.736   2.755  25.350  0.6433 -0.2487  0.3602
55449ION     NA98440   3.101  32.197  23.080  0.4612 -0.3584  0.0102
55450ION     NA98441   2.161  10.539   4.703  0.5594 -0.1507  0.1564
55451ION     NA98442  14.673  10.394   8.210  0.1407 -0.2315 -0.4378
55452ION     NA98443  22.010   7.765   9.558 -0.2414 -0.6434  0.3525
55453ION     NA98444   1.272  17.777  11.009 -0.1632  0.1536  0.5635
55454ION     NA98445   0.963  32.814  26.581  0.0232  0.0522 -0.3062
55455ION     NA98446   9.491   5.426   2.445 -0.3284  0.1566  0.1134
55456ION     NA98447  33.183  29.144   1.451  0.6218 -0.0307  0.1052
55457ION     NA98448  12.915  21.035  28.770  0.1880 -0.0700  0.6895
55458ION     NA98449  31.285  14.033   4.024  0.0588  0.1560 -0.8014
55459ION     NA98450   8.439  33.083  10.432 -0.0990  0.0604  0.0610
55460ION     NA98451  11.051  31.841  10.825 -0.2419 -0.2658 -0.3412
55461ION     NA98452   0.088   4.954   2.018 -0.0604 -0.6048  0.2154
55462ION     NA98453  21.098  17.645   4.575  0.3440 -0.2839  0.0290
55463ION     NA98454  29.209  30.984  21.731  0.0588 -0.0690  0.5282
55464ION     NA98455   4.420  22.012  10.493 -0.2396 -0.0124  0.1423
55465ION     NA98456  13.528  32.785  28.045 -0.3946  0.0130 -0.0835
55466ION     NA98457  33.443   5.869  26.105 -0.2655 -0.8654  0.3684
55467ION     NA98458  26.181   5.814  14.013 -0.3523 -0.2034 -0.5785
55468ION     NA98459  28.052   9.466   7.913  0.2776  0.2293  0.2889
55469ION     NA98460  27.825   7.025  28.033  0.6315  0.0276  0.6074
55470ION     NA98461  33.707  33.646  28.758  0.4163  0.3657  0.1782
55471ION     NA98462  10.289   8.224  15.307  0.1415 -0.2034 -0.2053
55472ION     NA98463  31.026  33.034   1.385 -0.0963 -0.2997  0.5171
55473ION     NA98464  29.767  26.729   3.295 -0.4713 -0.0399  0.1573
55474ION     NA98465   7.312   2.013  21.198 -0.2554  0.0678  0.3314
55475ION     NA98466  19.488   3.850   8.145 -0.6958  0.3570 -0.3165
55476ION     NA98467  26.533  31.753  18.867 -0.0690  0.2943  0.1942
55477ION     NA98468  29.523   1.333   8.950  0.1634 -0.5752 -0.3649
55478ION     NA98469   3.842  10.684   7.631  0.5331  0.5968 -0.7917
55479ION     NA98470   2.933  14.226  11.068  0.0132 -0.0190 -0.0755
55480ION     NA98471  32.898  26.134   7.509 -0.1182  0.1648  0.1267
55481W        W98472   0.270  15.126   5.153  0.0316  0.1287  0.0588
55482W        W98473  25.225  32.517   1.550 -0.3574 -0.0345  0.0581
55483W        W98474  26.267  11.352  26.854 -0.1604 -0.3360 -0.4220
55484W        W98475  12.640  14.024  19.803 -0.2399  0.0700  0.1768
55485W        W98476  12.438   0.659  15.379  0.1839 -0.2752  0.1909
55486W        W98477   7.006   2.326   8.868 -0.3965 -0.1240  0.2005
55487W        W98478   9.829  21.399  23.404  0.2047 -0.1396 -0.0352
55488W        W98479   0.032  27.191  24.635 -0.2430 -0.2256  0.1575
55489W        W98480  32.705  17.155  10.362 -0.1108  0.1850 -0.0087
55490W        W98481  30.935  32.863   8.818  0.3900  0.1335  0.0043
55491W        W98482  19.169  19.024   2.889 -0.0322 -0.2133  0.0286
55492W        W98483  17.198  14.254  28.979  0.0912 -0.2002  0.0579
55493W        W98484  30.467   3.814  25.518 -0.1177  0.3472  0.3220
55494W        W98485  14.926   0.240  24.600  0.1175 -0.2743  0.1783
55495W        W98486  31.756  29.396   4.258  0.2093 -0.3034 -0.1236
55496W        W98487   7.797   6.746  21.465 -0.2000  0.4138  0.1443
55497W        W98488  26.659  14.131   1.964 -0.0849  0.1695 -0.2795
55498W        W98489  33.935   6.618   0.140 -0.1389  0.1334 -0.1145
55499W        W98490  29.691  31.773  21.645  0.1113 -0.0269 -0.0652
55500W        W98491   6.315  30.917   6.947 -0.0967 -0.2180 -0.1921
55501W        W98492   8.331  16.126   9.719 -0.0217  0.0193 -0.1786
55502W        W98493  28.620  16.399   7.835  0.0070  0.0822 -0.0787
55503W        W98494  30.476   1.343   5.765  0.3895 -0.2213 -0.1749
55504W        W98495  16.262   2.787   5.860 -0.0532 -0.0691  0.2032
55505W        W98496  13.581  33.140   2.515  0.1336  0.0552  0.1496
55506W        W98497   7.721  26.251  26.341 -0.0457  0.1224  0.0708
55507W        W98498   6.397  34.170   3.417  0.5058  0.1749  0.1059
55508W        W98499  15.341   8.399   3.751 -0.2590 -0.5726 -0.1908
55509W        W98500  34.734   7.907   9.122  0.2094  0.1886 -0.1541
55510W        W98501   0.856   3.925   5.848 -0.3670  0.2129  0.1218
55511W        W98502  24.958  24.667   4.349 -0.0449  0.5524  0.0633
55512W        W98503  33.990   7.581  23.376  0.2932 -0.1095  0.0615
55513W        W98504  27.686  29.188   5.568 -0.0519  0.1072  0.1289
55514W        W98505   0.164   0.339  19.111 -0.1726 -0.4276  0.1612
55515W        W98506  27.972   6.495  19.874  0.1444  0.1802 -0.0517
55516W        W98507  23.254  29.230   5.364 -0.1647  0.0393 -0.1497
55517W        W98508  27.571   0.477   4.484  0.0739 -0.1969 -0.0673
55518W        W98509   1.581  34.491  22.626  0.2128  0.2201 -0.0701
55519W        W98510  34.278  21.487   6.401  0.1713 -0.0765 -0.1053
55520W        W98511  33.921  10.771  26.256 -0.1191  0.2684 -0.1194
55521W        W98512   9.719  32.062  27.625 -0.2267  0.1687 -0.0556
55522W        W98513  16.551  11.064   7.466  0.2729  0.0714  0.0085
55523W        W98514  27.794  22.493   3.530 -0.2778 -0.1692  0.2128
55524W        W98515   7.516   2.777   4.286 -0.0589  0.1996  0.4227
55525W        W98516  10.193   7.283  16.098 -0.0653 -0.2165 -0.2599
55526W        W98517  26.054   2.451  23.555 -0.3717  0.0517 -0.0689
55527W        W98518   0.601  26.332   1.314  0.0335  0.0261  0.2832
55528W        W98519  26.168  25.992   6.676  0.0075  0.0083  0.0182
55529W        W98520   5.772  33.398   5.581 -0.0106 -0.1806 -0.4196
55530W        W98521   1.170   7.688   9.260 -0.0982 -0.0540  0.1898
55531W        W98522  32.745   2.996   8.785 -0.0539  0.2780  0.1149
55532W        W98523  30.801  23.425   7.805 -0.2083 -0.2128  0.3059
55533W        W98524   1.411  21.733   6.422 -0.1029  0.1888 -0.0673
55534W        W98525  13.673   2.651   5.934  0.0498 -0.0699 -0.0829
55535W        W98526  10.075   8.012   7.903 -0.0108  0.2068  0.2030
55536W        W98527   8.249   2.599   6.262 -0.2404  0.1733 -0.0236
55537W        W98528  30.286  32.594   4.677 -0.6711 -0.1008 -0.0225
55538W        W98529  23.256   6.959  20.997 -0.0426 -0.0798 -0.0751
55539W        W98530   8.164  12.093  21.249 -0.0191 -0.0572  0.1214
55540W        W98531   6.872  29.685   3.336 -0.2028 -0.0202  0.0456
55541W        W98532  25.746  18.330  21.732  0.0605 -0.1249  0.0064
55542W        W98533  27.737   0.909   5.855 -0.1393  0.1688 -0.1391
55543W        W98534  23.784   8.482  27.469 -0.0824  0.1403 -0.1426
55544W        W98535   0.067  29.564   6.579 -0.4618 -0.3680  0.1095
55545W        W98536  15.010   6.082   1.779  0.0722  0.0172  0.0704
55546W        W98537  34.279   7.050   9.375 -0.0063 -0.3787  0.3361
55547W        W98538  24.091   6.044  20.183 -0.0894 -0.3028  0.1115
55548W        W98539  20.383   7.190   7.293  0.0740 -0.0817 -0.3647
55549W        W98540  22.964  23.959   3.125 -0.2021  0.0314 -0.4215
55550W        W98541   9.362  12.054   6.671  0.2466 -0.0810 -0.0000
55551W        W98542  27.286  32.347   6.093  0.2085 -0.0888  0.3600
55552W        W98543  10.154  22.002   2.044  0.1972  0.3694  0.1090
55553W        W98544  34.565   7.817   6.353 -0.1437 -0.0303 -0.1535
55554W        W98545  18.033  15.535  28.554 -0.0883 -0.0819  0.0313
55555W        W98546   4.274   5.816   1.418  0.2103 -0.3200  0.1169
55556W        W98547  28.244  32.200  15.044 -0.0760 -0.2162 -0.0832
55557W        W98548   8.095   2.447   7.162 -0.1682  0.0052 -0.4303
55558W        W98549   1.024  27.799  22.285 -0.3015 -0.0017  0.1420
55559W        W98550   0.999  14.250  26.753  0.2027 -0.0339 -0.1137
55560W        W98551  25.047  18.181  23.625 -0.0718  0.0492 -0.2321
55561W        W98552  29.927  19.956   6.657 -0.0588 -0.0472 -0.2865
55562W        W98553  22.047  11.793  28.352  0.0175  0.2087 -0.5971
55563W        W98554  31.322   3.140  28.024  0.1584 -0.0748 -0.1945
55564W        W98555   6.796  27.369   9.247  0.0527 -0.1631 -0.4022
55565W        W98556  33.024  14.723  28.333 -0.1671 -0.2428  0.0936
55566W        W98557   9.162   2.354   3.516  0.1474  0.0462 -0.0359
55567W        W98558   2.667  24.893  20.203 -0.0660 -0.1486 -0.0190
55568W        W98559  24.820   6.961   1.192 -0.1559 -0.0826 -0.1645
55569W        W98560  34.273  14.473   7.338  0.0113  0.0823  0.2925
55570W        W98561   3.417  13.667  25.663 -0.2052  0.0544  0.1785
55571W        W98562  23.545  27.734  26.089 -0.1220  0.0765  0.1703
55572W        W98563   5.980   3.515  21.245  0.1644  0.3251  0.0602
55573W        W98564   5.819   8.645  24.211  0.0265  0.1714 -0.1087
55574W        W98565  31.359   3.961  24.684  0.2539 -0.0202 -0.1388
55575W        W98566  26.638  29.968   0.884 -0.0006 -0.2670  0.1033
55576W        W98567  10.561   4.417  17.381  0.0068  0.2065  0.2182
55577W        W98568   5.593  34.695   3.778 -0.0418 -0.1891 -0.1213
55578W        W98569  14.036   4.046   5.898  0.3855 -0.3133 -0.0151
55579W        W98570  33.900  34.379   7.044  0.1170 -0.2015  0.1286
55580W        W98571  22.981   9.783   7.038 -0.2611  0.1351  0.2189
55581W        W98572  29.488  27.011  13.547 -0.1217  0.0202  0.1965
55582W        W98573  34.024  22.386  18.315 -0.1016 -0.4463 -0.0339
55583W        W98574  10.359  24.243  10.058  0.4017  0.0154  0.1205
55584W        W98575   1.695  33.210  17.606  0.0520 -0.0890  0.0631
55585W        W98576  25.146  11.865   9.597 -0.1452  0.1113 -0.0805
55586W        W98577  22.450   9.969  21.496  0.2093 -0.0421 -0.1626
55587W        W98578  25.526   8.182   5.905  0.0584  0.1166 -0.0457
55588W        W98579   8.670  29.063  11.011 -0.1018 -0.1967 -0.1983
55589W        W98580   5.830   3.550  19.561 -0.2695  0.0200 -0.1108
55590W        W98581   5.862  25.570  24.422  0.0917 -0.0741  0.1613
55591W        W98582  27.831  10.154  26.227 -0.1216 -0.2523 -0.2645
55592W        W98583   3.763  17.125  16.181  0.0919  0.1584 -0.0228
55593W        W98584  25.444   7.462   8.550  0.1450  0.0151  0.2698
55594W        W98585   9.898  14.463   9.856 -0.1711 -0.2618 -0.1191
55595W        W98586   4.337  26.071  23.872  0.0446 -0.3296  0.1894
55596W        W98587  18.652  11.379  24.325 -0.1547  0.0335 -0.1908
55597W        W98588  11.220  15.447  24.206  0.3481  0.0329 -0.1043
55598W        W98589  31.333   4.435  18.869 -0.1820 -0.1255  0.1982
55599W        W98590   4.383  21.552  28.284  0.2766  0.0705  0.0648
55600W        W98591  27.177  23.814  19.637 -0.3851  0.1037 -0.0698
55601W        W98592   1.304   4.671   0.706 -0.1872 -0.0570 -0.0835
55602W        W98593  20.479   7.066  21.394 -0.2481 -0.2561 -0.0386
55603W        W98594  13.013   8.893   4.797 -0.4634  0.0368  0.0304
55604W        W98595   9.105  20.316  26.133  0.2376 -0.1538 -0.1856
55605W        W98596  23.872  14.166  27.913 -0.1185  0.0150  0.1768
55606W        W98597  17.351   5.577   5.032 -0.2061  0.0185  0.1107
55607W        W98598  32.632   9.725  16.814 -0.1223 -0.0476  0.3520
55608W        W98599  26.330  32.149   3.002  0.2928  0.1423 -0.0100
55609W        W98600  31.976   2.105   0.189  0.2945  0.2314 -0.1145
55610W        W98601   1.283   6.018  21.093  0.3135  0.1504 -0.2233
55611W        W98602   7.555  24.764  18.404  0.1111 -0.2678  0.1417
55612W        W98603  11.082   4.374  22.354 -0.1598  0.0334 -0.1426
55613W        W98604  27.341  15.254   4.001 -0.1639 -0.2669 -0.1136
55614W        W98605  10.068  33.818   7.656 -0.0393  0.0349  0.0590
55615W        W98606  20.202   3.082   5.595  0.0490  0.2057 -0.1612
55616W        W98607   9.785  10.513   7.040  0.0926  0.1148  0.0274
55617W        W98608   5.956  30.002   9.497  0.1736 -0.0689  0.1740
55618W        W98609  12.356  13.088   9.422  0.2823 -0.0074  0.3974
55619W        W98610   4.335  13.026   2.925 -0.2617  0.0014 -0.0809
55620W        W98611   6.302   0.327  10.801 -0.0724 -0.0394 -0.2824
55621W        W98612  31.975   5.857  28.721  0.2747  0.0849  0.0853
55622W        W98613   1.748   4.189  27.199 -0.3097 -0.0240  0.0700
55623W        W98614  13.358  25.195  19.433 -0.2547  0.0542 -0.2902
55624W        W98615   5.977  13.251   1.733  0.0309  0.0841  0.1475
55625W        W98616   7.502   3.246  24.358 -0.2179 -0.2737 -0.0649
55626W        W98617  28.891  34.252   2.939  0.1769  0.2526 -0.1264
55627W        W98618  23.181  13.227   7.553 -0.2437 -0.0514 -0.0402
55628W        W98619   5.928  26.388  18.835 -0.0901  0.0857  0.1654
55629W        W98620  14.346   1.733  27.429  0.2771  0.1649  0.0043
55630W        W98621  24.694   5.600   8.719  0.0531 -0.0426  0.1405
55631W        W98622  25.198  16.903  24.848  0.0702  0.2010 -0.2926
55632W        W98623  33.855  29.021   3.237  0.0957 -0.0263  0.4401
55633W        W98624   4.478   8.705  28.043  0.1444 -0.2257  0.0563
55634W        W98625  22.084  18.737  22.434 -0.4200 -0.0771  0.2610
55635W        W98626  11.867   0.129   1.393 -0.2717 -0.0766 -0.0534
55636W        W98627  34.596   2.380   3.294  0.1279 -0.0534  0.0151
55637W        W98628  19.860  32.028   4.469 -0.1010 -0.1460  0.1176
55638W        W98629  21.935  29.587   9.565  0.2065  0.0267 -0.2556
55639W        W98630   3.023  29.231  17.622 -0.0941  0.3085  0.0774
55640W        W98631  11.137  31.801  19.657 -0.1682 -0.0222  0.2313
55641W        W98632   6.828   9.418  28.273 -0.2360  0.0191 -0.3088
55642W        W98633  34.800  21.734   5.833 -0.0481 -0.0334  0.3496
55643W        W98634  33.052  21.070  22.491 -0.0305 -0.2256  0.2792
55644W        W98635   0.801  11.559   4.560 -0.0643  0.1562  0.0704
55645W        W98636  27.358   2.250  20.074 -0.0042  0.0690 -0.0487
55646W        W98637  14.767   3.879  20.683 -0.0079 -0.2348  0.3281
55647W        W98638  24.940  17.532  27.481 -0.1272  0.0391 -0.0103
55648W        W98639  28.244   4.190   5.399  0.1036 -0.0160 -0.2510
55649W        W98640   9.902  10.825  26.399 -0.4877  0.2949 -0.1777
55650W        W98641  12.444  29.154  23.827 -0.0805  0.2344  0.1938
55651W        W98642  25.841   7.234   8.533 -0.1452  0.0663 -0.0995
55652W        W98643  12.997  17.773  20.945 -0.0453  0.1429 -0.0468
55653W        W98644   6.727  25.055  24.247  0.4736 -0.4199  0.3767
55654W        W98645  19.839  21.949  29.238  0.1394 -0.2328 -0.0732
55655W        W98646  18.910  29.576  19.712  0.1109  0.0379 -0.2575
55656W        W98647  32.547  11.133  19.378 -0.1440 -0.1613  0.4371
55657W        W98648   5.617   4.917   8.840  0.1806  0.0352  0.0654
55658W        W98649  12.338  31.220   8.793  0.3785 -0.0286 -0.3773
55659W        W98650  34.358  28.921  12.780  0.1446  0.3847 -0.0049
55660W        W98651   2.464  28.402   0.033  0.0507 -0.0883  0.3725
55661W        W98652  31.919   4.720   3.711 -0.4269 -0.0431 -0.2202
55662W        W98653  28.707  14.018  18.089  0.2242  0.3254  0.3754
55663W        W98654  25.367  23.725  17.303  0.1756 -0.1412  0.1302
55664W        W98655  10.014  15.568  23.605 -0.2427  0.1822 -0.0933
55665W        W98656  24.407   1.564  26.529  0.1102  0.1380 -0.2220
55666W        W98657  22.740   0.821   8.241  0.0596 -0.2015  0.0420
55667W        W98658  29.271  13.025  18.867 -0.1496  0.3156 -0.0229
55668W        W98659  19.741  29.922  28.384 -0.2485  0.0699 -0.1677
55669W        W98660  23.474  14.244  28.640 -0.1517  0.0817  0.2572
55670W        W98661   9.127  20.011  20.355  0.0412  0.1671  0.0962
55671W        W98662  12.773  10.009   8.742 -0.0119  0.3220 -0.1299
55672W        W98663  17.969   5.377   5.412 -0.4517 -0.4465 -0.3023
55673W        W98664   4.189  30.576   0.039 -0.3010 -0.0568 -0.0352
55674W        W98665   8.475  12.574   7.969 -0.0564  0.1578  0.0184
55675W        W98666   3.345  31.395   4.499  0.1591  0.1843 -0.0494
55676W        W98667  28.016  31.669   7.589 -0.1651 -0.3601  0.0391
55677W        W98668  24.573   3.221  26.426 -0.0119  0.1881  0.2617
55678W        W98669  13.604  19.064  27.396 -0.4746 -0.1101  0.0907
55679W        W98670  10.288   8.558  16.382 -0.2803 -0.0438  0.1787
55680W        W98671  11.442   4.708   1.854  0.1973  0.1225 -0.0601
55681W        W98672   3.158   3.431  10.166  0.0064 -0.0173 -0.1062
55682W        W98673  27.978  30.776  29.013 -0.1100 -0.0031 -0.0184
55683W        W98674   1.588  11.471  10.697 -0.0409 -0.4617 -0.0748
55684W        W98675  24.844  23.148   3.203 -0.0653 -0.2851  0.0631
55685W        W98676  33.402  18.019  18.192  0.2549  0.3180  0.1514
55686W        W98677   7.045  12.897   9.574  0.0943  0.1105  0.0025
55687W        W98678  24.796  33.649   9.359  0.0244  0.1653 -0.0727
55688W        W98679  19.189  23.187  19.241 -0.0530 -0.0121 -0.2143
55689W        W98680   7.893   5.157  28.983  0.1261  0.0656 -0.0171
55690W        W98681   7.287   2.270   5.955  0.0367 -0.2918  0.2714
55691W        W98682   3.265  30.841  19.933 -0.1177 -0.0995 -0.2115
55692W        W98683  24.187  10.683   2.016 -0.0913  0.0878  0.2032
55693W        W98684  13.726   9.786   6.414 -0.3277  0.0503 -0.0680
55694W        W98685  10.261  12.315   1.780  0.0908  0.0076 -0.1196
55695W        W98686  11.618  30.970   8.156  0.3199 -0.0179  0.0982
55696W        W98687  16.723   3.897  27.785  0.0205  0.0138  0.6324
55697W        W98688  24.405  33.257  28.331  0.0580  0.3816 -0.1409
55698W        W98689  10.963  12.839   1.939  0.0519  0.2111  0.0518
55699W        W98690  30.886   6.269   6.795  0.0604  0.1382 -0.2652
55700W        W98691  15.864  28.082   2.235  0.0671  0.3296  0.0772
55701W        W98692  10.199  13.290  18.312  0.0023  0.1801  0.0233
55702W        W98693  25.889  32.214  19.610 -0.0243 -0.1459 -0.0195
55703W        W98694  32.115  13.764  26.589 -0.0194  0.2529 -0.0561
55704W        W98695  18.852  31.552  16.365 -0.0162  0.3710  0.3485
55705W        W98696  24.547   8.683   5.197  0.0790 -0.2756  0.0674
55706W        W98697  15.569   3.948   3.565  0.2304 -0.1305  0.0269
55707W        W98698  28.950  29.521  20.555 -0.0936 -0.0658  0.0807
55708W        W98699  32.516   3.935  24.945  0.1441  0.1133 -0.0444
55709W        W98700  31.212   7.356  26.357  0.0058 -0.0334  0.0073
55710W        W98701   9.686  16.999   1.348  0.1401 -0.0213 -0.0460
55711W        W98702  12.746  30.384   8.109 -0.0821  0.1680  0.1546
55712W        W98703  26.835  32.122  25.094 -0.2126  0.1771 -0.0416
55713W        W98704  20.691   1.853   8.989  0.1089 -0.0222 -0.0019
55714W        W98705   5.748   7.293   6.081 -0.2186 -0.0408  0.1175
55715W        W98706   6.601   1.483   6.013  0.0172 -0.0901  0.0565
55716W        W98707  34.270   0.019  22.498 -0.2185 -0.2988  0.0118
55717W        W98708  30.745   1.863   6.411 -0.1830  0.1372 -0.1110
55718W        W98709  33.993  29.491  29.089  0.0178 -0.0781 -0.1645
55719W        W98710  29.462  25.931  21.623  0.1519 -0.1735  0.3519
55720W        W98711   4.695  30.464   8.681 -0.2509  0.1733  0.0529
55721W        W98712   0.459   7.130  25.489 -0.0097  0.3171  0.0680
55722W        W98713   2.085  10.658  16.934  0.0519  0.0294 -0.0656
55723W        W98714   1.160   0.521  25.632  0.0069 -0.3450  0.0260
55724W        W98715   6.533   1.043   3.770  0.1672  0.0481  0.0475
55725W        W98716  32.077  19.193   2.798  0.0788 -0.2576 -0.0508
55726W        W98717  30.294   1.691  19.981 -0.0394 -0.1384 -0.1734
55727W        W98718  16.893  31.147   8.036 -0.2343  0.0214 -0.2415
55728W        W98719   1.971   3.369  15.831  0.1753  0.1133  0.0899
55729W        W98720   2.542  27.534  24.359 -0.2964 -0.3490  0.2814
55730W        W98721  21.923  26.669  25.516  0.1582  0.4006  0.0763
55731W        W98722   3.095  31.562   6.683 -0.1836 -0.1865  0.4500
55732W        W98723  31.927   8.693   3.298  0.3232 -0.2471 -0.0677
55733W        W98724   1.963  32.371   9.328 -0.0500  0.1644  0.2238
55734W        W98725  32.108  14.494   1.677  0.2379  0.1207 -0.2087
55735W        W98726   3.969  15.639   6.867 -0.2475  0.0397  0.1426
55736W        W98727  24.957   6.379   4.225 -0.2157  0.2687 -0.2475
55737W        W98728   5.411   4.204  27.043 -0.0846  0.2671  0.1871
55738W        W98729   2.677  15.010   6.602 -0.1564  0.2324 -0.0168
55739W        W98730   0.398  15.266  19.238 -0.1443  0.0823 -0.2722
55740W        W98731   0.217   6.283   6.569 -0.3806 -0.1149  0.0193
55741W        W98732  19.341  16.090   2.272 -0.0362  0.0335  0.0386
55742W        W98733  24.717   0.358  25.484  0.1559 -0.0169 -0.0946
55743W        W98734   1.948   0.318  23.055 -0.1304 -0.2073 -0.3010
55744W        W98735   3.338   9.357  26.668  0.2456 -0.0524 -0.2324
55745W        W98736   3.576  29.132   3.240  0.3908 -0.0128  0.3398
55746W        W98737  34.397   2.575   5.802 -0.1813 -0.0582  0.3644
55747W        W98738  18.592  13.898  24.277 -0.1678 -0.0962  0.0770
55748W        W98739  11.351  33.272  10.252  0.0310 -0.3492 -0.1509
55749W        W98740   4.306  33.955  10.441 -0.0424 -0.1136 -0.1601
55750W        W98741   0.976  12.298  17.640  0.0642  0.4031 -0.4466
55751W        W98742   6.614  27.421   7.415  0.0403  0.0761  0.1943
55752W        W98743   2.542   1.190   2.855 -0.0275  0.0600 -0.1423
55753W        W98744  26.693  29.518  14.992 -0.0566 -0.3886  0.1924
55754W        W98745  10.341  30.722   0.771 -0.0654 -0.2009  0.0973
55755W        W98746  17.459  25.593  27.834  0.1109 -0.1360  0.1653
55756W        W98747   9.418  32.648   2.825  0.1073 -0.0471 -0.1939
55757W        W98748   1.275   8.583  24.292 -0.0618  0.1332 -0.0138
55758W        W98749   6.067  32.811  27.642  0.2193 -0.0932  0.2515
55759W        W98750  20.921   7.963   6.248 -0.0957  0.0683  0.0037
55760W        W98751   7.952   6.044  10.029  0.1214 -0.1510 -0.3871
55761W        W98752   8.100   4.406  29.175  0.2539 -0.2028 -0.2409
55762W        W98753   4.405   7.549   1.823 -0.3603  0.0051 -0.0070
55763W        W98754   9.406  12.099  10.549 -0.0979  0.5246  0.0265
55764W        W98755  13.575   2.719   6.855  0.2455 -0.0720 -0.1754
55765W        W98756  16.065  27.506   1.747 -0.1581  0.0246 -0.0187
55766W        W98757  27.312  11.708   3.394 -0.3163 -0.0515 -0.1621
55767W        W98758   5.381  21.486  15.072 -0.0506 -0.4856 -0.2390
55768W        W98759  34.718  28.521  25.080  0.1505  0.2100 -0.0151
55769W        W98760  31.724  29.108   0.988 -0.0036 -0.5806  0.1915
55770W        W98761  29.045   2.626  25.097 -0.0573 -0.1485  0.2829
55771W        W98762   5.843  11.600  10.644 -0.0432  0.0140  0.0862
55772W        W98763  26.696   0.910   8.931 -0.0929  0.1040  0.0993
55773W        W98764   9.042  29.402   7.364  0.0157 -0.2682  0.1870
55774W        W98765   0.629  11.417   9.191 -0.1333 -0.0483  0.2698
55775W        W98766   8.281   9.448   9.873  0.3264  0.1761  0.1279
55776W        W98767  20.963   9.378  22.577 -0.2829  0.5319  0.4664
55777W        W98768  10.553  10.088   9.906  0.1479 -0.2343 -0.0223
55778W        W98769  33.778  10.737  28.340 -0.2447 -0.0093  0.0878
55779W        W98770   7.955   2.322   5.243 -0.3862 -0.0144 -0.0488
55780W        W98771  18.710  14.435  24.920  0.0760 -0.0077 -0.0623
55781W        W98772   1.859  22.327  16.016  0.1283  0.3950 -0.1652
55782W        W98773  32.396   6.212   9.662  0.0505  0.0579 -0.0535
55783W        W98774   7.911  31.351   5.790 -0.1332  0.0145  0.1846
55784W        W98775  29.281   6.610   4.750  0.2454 -0.0899 -0.1972
55785W        W98776  23.779  23.882  26.688  0.2378 -0.1392 -0.3360
55786W        W98777   9.743  12.798   3.899  0.1168 -0.1227  0.1794
55787W        W98778  31.594   0.719  24.288  0.2890 -0.1420  0.2550
55788W        W98779  28.923   5.167   7.247  0.1322 -0.0573  0.1571
55789W        W98780  30.791   2.274   2.028 -0.0232 -0.2100 -0.2480
55790W        W98781  25.383  33.867   8.504  0.0246 -0.1531 -0.1843
55791W        W98782  32.465   2.778   1.415  0.1708 -0.1371 -0.3268
55792W        W98783  25.206  11.843   6.407 -0.1143  0.2175 -0.0183
55793W        W98784  10.922  28.754   9.579 -0.1669  0.1891  0.0331
55794W        W98785  23.342  11.298  25.435  0.0071  0.1361 -0.2909
55795W        W98786   0.679   0.846   7.310 -0.0086  0.0340  0.3700
55796W        W98787  17.013   4.647  24.924  0.0441 -0.0304  0.1213
55797W        W98788  17.078   0.405  24.900 -0.1002  0.0293 -0.0418
55798W        W98789  13.389  26.727   0.188 -0.2010 -0.1439  0.0301
55799W        W98790   1.172   8.341   9.433  0.2560  0.0602 -0.1659
55800W        W98791   1.331   5.928  18.027  0.1567 -0.0134 -0.1491
55801W        W98792   7.010  32.806   3.846  0.2533  0.0918 -0.2175
55802W        W98793  30.122   3.701  16.211 -0.1641 -0.1326  0.1194
55803W        W98794   7.889  11.329   6.116 -0.1210  0.1031 -0.2690
55804W        W98795   0.996  25.891  21.341 -0.2870  0.0977  0.3751
55805W        W98796   0.403  30.892   7.589 -0.0660 -0.0440  0.1246
55806W        W98797   7.195   1.027   1.886 -0.0574  0.0057  0.2807
55807W        W98798  12.685  14.668  23.510 -0.2370  0.1119 -0.0908
55808W        W98799   1.550  33.594  25.132 -0.0655 -0.1562 -0.1785
55809W        W98800  19.929  31.919   7.217  0.1516  0.0278 -0.3165
55810W        W98801  30.044   5.023   2.444  0.2568 -0.0282 -0.0407
55811W        W98802  17.444  10.301  26.524 -0.2474 -0.0776  0.2336
55812W        W98803   9.136  13.407   1.792  0.1408 -0.1522 -0.3834
55813W        W98804  32.250   8.325   1.464 -0.1254 -0.1800  0.3234
55814W        W98805  19.817   3.272   5.840 -0.0105 -0.0503  0.2806
55815W        W98806  20.746   8.245  15.315  0.2931  0.1010  0.1621
55816W        W98807  24.765  30.984   0.820 -0.1018 -0.1085 -0.0802
55817W        W98808   4.919   3.479   2.889  0.2112  0.0455  0.1647
55818W        W98809   3.638   8.819  27.852  0.0230  0.2880  0.3110
55819W        W98810  17.680   5.918  26.229  0.0604  0.1351 -0.1168
55820W        W98811   8.709  22.589   0.570 -0.2858 -0.0472  0.1973
55821W        W98812  16.599  17.537  12.115  0.2521  0.1129 -0.2359
55822W        W98813  15.045  12.916   6.416  0.0347 -0.0053  0.1064
55823W        W98814   4.808  15.716   3.678 -0.1714 -0.1021  0.1470
55824W        W98815   1.780  18.563  19.229  0.0752 -0.0720 -0.3360
55825W        W98816   4.680  34.007   5.365 -0.1747 -0.2394 -0.0984
55826W        W98817  31.108  31.287   2.413 -0.0755 -0.7339 -0.2370
55827W        W98818  32.995   2.987  24.898  0.0429  0.0905  0.0980
55828W        W98819  25.386  13.402   2.123 -0.3627  0.2698 -0.2024
55829W        W98820  16.183   6.208   3.282  0.0252 -0.1749 -0.1782
55830W        W98821   0.783  28.671  22.091  0.0523 -0.1649 -0.3255
55831W        W98822   4.444  32.574   1.086 -0.1008  0.1395 -0.1949
55832W        W98823  20.009  21.062  25.944  0.2617 -0.1293  0.1808
55833W        W98824   6.306  24.674  26.108 -0.0161 -0.1251  0.0484
55834W        W98825  25.058  32.242  19.241 -0.2989  0.1577  0.0876
55835W        W98826  23.846   2.127   2.766  0.1639 -0.1679 -0.4179
55836W        W98827  32.590  21.208  14.893 -0.0853 -0.0747  0.1324
55837W        W98828   4.309  19.138  24.474 -0.2084  0.0107 -0.1394
55838W        W98829  20.514  21.818  21.740  0.0564 -0.0733 -0.2709
55839W        W98830  34.076  32.380   9.409  0.0666  0.3748  0.2755
55840W        W98831  20.486  14.198  12.706  0.0879 -0.1238  0.0398
55841W        W98832   3.156   4.378   8.609  0.0766  0.2313  0.2221
55842W        W98833   5.124  26.245  27.657  0.2131 -0.1756  0.2455
55843W        W98834  34.672   6.550   4.361 -0.1732  0.4364 -0.3651
55844W        W98835  13.848   4.089   4.912 -0.0020  0.2691  0.1056
55845W        W98836   7.142  12.141   6.281  0.0976 -0.1384 -0.1667
55846W        W98837   2.348  12.121  24.695 -0.3701  0.0710  0.0026
55847W        W98838   6.304   9.622   9.999  0.4497 -0.0897  0.0020
55848W        W98839   3.625   2.390   3.538 -0.5854 -0.0152  0.0302
55849W        W98840  28.372  13.640   6.622  0.1131  0.0832  0.0010
55850W        W98841  31.464  12.520  23.992  0.0737  0.0095 -0.0355
55851W        W98842  12.081   5.790   7.312 -0.0944  0.0574  0.0986
55852W        W98843   9.294  11.078   7.839 -0.3498 -0.2044 -0.0817
55853W        W98844  18.287   7.574  27.784  0.0715  0.0738 -0.0908
55854W        W98845   5.792   8.500   6.289  0.1139  0.1521  0.0951
55855W        W98846  31.462   0.360  16.377  0.0142 -0.1875 -0.1165
55856W        W98847   4.054   0.408   0.496 -0.3539  0.1928 -0.0177
55857W        W98848   0.590  26.375   6.030 -0.2605 -0.3073  0.1502
55858W        W98849  11.543  33.478   5.436  0.0018 -0.1039 -0.0033
55859W        W98850  13.504  26.395  19.636  0.3168 -0.1560 -0.0171
55860W        W98851   6.295   7.047   5.460  0.4225  0.1507 -0.0160
55861W        W98852  20.302  31.677  14.149  0.0262 -0.1011  0.1796
55862W        W98853  27.225   0.236  17.588  0.1099  0.0901 -0.0797
55863W        W98854  29.236  12.206  27.419 -0.3076  0.3986  0.2005
55864W        W98855  29.914  12.305  28.446 -0.0000  0.1306  0.0468
55865W        W98856  21.618  24.041   4.124  0.3616 -0.1318  0.1408
55866W        W98857   7.536  23.090  10.789 -0.1754  0.1833 -0.1087
55867W        W98858  26.967  13.219  27.934 -0.0425 -0.0770 -0.0933
55868W        W98859  16.873  13.154  26.628 -0.2241  0.0067  0.1793
55869W        W98860  29.692  28.794   4.863 -0.3772  0.1033 -0.0272
55870W        W98861   5.438  15.447  24.344 -0.1209  0.2971 -0.0568
55871W        W98862   1.809  10.068  22.352 -0.0466  0.0708 -0.1191
55872W        W98863   2.032  12.565  22.233  0.2739  0.2044  0.2529
55873W        W98864   1.551   2.684  29.208 -0.1746 -0.0755  0.2050
55874W        W98865  32.158  33.771   8.490 -0.3723  0.1302  0.1509
55875W        W98866   7.732  31.095   7.954 -0.0291  0.2952  0.0195
55876W        W98867   2.511  16.091   2.735 -0.0686 -0.2569  0.0829
55877W        W98868   0.904   5.760   8.771 -0.4088  0.0300 -0.1774
55878W        W98869  12.703  16.122  26.924  0.2221  0.0961  0.2122
55879W        W98870  31.993  13.627  16.404  0.2352  0.0763 -0.0858
55880W        W98871  23.748   9.587  28.210 -0.0499 -0.0408  0.1563
55881W        W98872  31.963  18.412   2.026  0.1238  0.2657  0.3234
55882W        W98873  19.740  30.798   0.801  0.2280 -0.0834  0.6026
55883W        W98874   2.302  33.065   6.312 -0.0666  0.1827 -0.1006
55884W        W98875   4.036  28.140  16.057  0.0802  0.0646  0.1352
55885W        W98876  17.080  26.905   7.516  0.0696  0.2878  0.0838
55886W        W98877   3.651  32.721   1.190  0.2054 -0.2109  0.1360
55887W        W98878   4.596   0.074   8.544 -0.0615  0.0807  0.4610
55888W        W98879  32.240  25.310   6.804  0.1884 -0.0514 -0.1844
55889W        W98880  15.820   5.106  11.419  0.0841 -0.1754  0.2431
55890W        W98881  29.005   2.634   8.052 -0.4410 -0.1578 -0.2114
55891W        W98882  31.531   4.662   5.851 -0.0617 -0.0447  0.3367
55892W        W98883  31.215   0.405   8.807  0.1250  0.1821  0.0667
55893W        W98884  19.564  27.057   5.993 -0.0680 -0.0516  0.0744
55894W        W98885  34.451  28.131  21.003  0.2752 -0.3245  0.0800
55895W        W98886   0.526  21.486  10.659  0.1529  0.1205 -0.0405
55896W        W98887   5.024  18.949  20.365 -0.1685 -0.1217 -0.5557
55897W        W98888   4.568  27.766   4.018  0.0821  0.3177 -0.1197
55898W        W98889  28.656  30.536   4.944  0.2323  0.0563  0.0208
55899W        W98890   4.053  27.978   4.247 -0.1528  0.4083  0.2480
55900W        W98891  28.506  33.568  16.332  0.0320 -0.0204  0.1032
55901W        W98892   6.017  14.743  25.271  0.2843 -0.0219  0.0769
55902W        W98893   2.472  27.006  27.255 -0.1316 -0.3871 -0.1030
55903W        W98894  34.759  14.477  10.555  0.1145 -0.0363 -0.2314
55904W        W98895  27.243   5.002   4.230  0.2804 -0.1610 -0.0146
55905W        W98896  30.492  31.816  23.702  0.3189  0.0068 -0.1162
55906W        W98897   7.095   2.040   0.054 -0.0438 -0.0888  0.1399
55907W        W98898  27.190  31.808   1.321 -0.3360 -0.0491  0.0759
55908W        W98899  30.121  29.671   6.332  0.3817  0.0684 -0.2388
55909W        W98900   8.181  12.685  22.626 -0.2706  0.1473 -0.0196
55910W        W98901   5.001   7.804  25.158 -0.0634  0.1202 -0.1938
55911W        W98902  11.011  32.892   9.248  0.0270 -0.0040 -0.1257
55912W        W98903  21.890  22.024   4.830 -0.1800  0.0029  0.2481
55913W        W98904  30.263  11.852   5.901  0.0352  0.0920  0.0626
55914W        W98905  22.061  11.895  22.333 -0.1556 -0.0047 -0.0107
55915W        W98906  28.235  10.564   6.368 -0.1377 -0.0340 -0.0287
55916W        W98907  13.948   5.894   5.413  0.2597  0.0901  0.2172
55917W        W98908   4.019   7.013  27.817 -0.0737 -0.1606  0.2030
55918W        W98909  31.759   1.531   9.182  0.0879 -0.3245 -0.0970
55919W        W98910  31.329  16.842   6.078 -0.1446  0.1031 -0.1375
55920W        W98911  18.060  28.195  19.033  0.0541  0.1303 -0.1863
55921W        W98912  33.186  27.239   5.716 -0.1321  0.1771  0.0525
55922W        W98913  24.198   1.147  24.253 -0.2014 -0.0607 -0.0167
55923W        W98914  21.711  23.758   6.277  0.1602  0.0750 -0.0154
55924W        W98915  29.266   7.168  28.516 -0.1123  0.2744  0.2846
55925W        W98916  10.988   8.503   1.383 -0.0847  0.0025 -0.0639
55926W        W98917  31.166  28.153  19.562  0.1335 -0.0512  0.0077
55927W        W98918   7.606  18.093   5.425 -0.2111 -0.1202  0.1318
55928W        W98919   6.990   7.441   8.138  0.0964 -0.3662  0.0449
55929W        W98920  11.455  34.577   3.524  0.0926 -0.2214  0.0713
55930W        W98921  31.081   6.381   1.616  0.0986 -0.0989  0.1294
55931W        W98922   5.576   1.478   6.687  0.3129 -0.1298  0.1773
55932W        W98923   6.522  16.915  27.813  0.1847  0.0348 -0.0756
55933W        W98924  31.124   4.269  25.960  0.1866 -0.0170  0.3150
55934W        W98925  22.976   7.450  24.799  0.1616  0.0553  0.0481
55935W        W98926  33.163   2.875   2.280  0.1173  0.0765  0.0092
55936W        W98927  33.239  29.976   1.323  0.0520 -0.1070 -0.0929
55937W        W98928  29.800   2.514   2.055 -0.1080 -0.0279  0.4728
55938W        W98929  28.879  11.995   0.938 -0.3373 -0.3718  0.0011
55939W        W98930   1.193   5.266   9.608  0.0111  0.1219  0.1830
55940W        W98931  33.923   6.605  22.621  0.2039 -0.0545 -0.4561
55941W        W98932   5.353  22.120  20.794  0.2676 -0.3110  0.3531
55942W        W98933  16.727   6.225  26.374 -0.0145 -0.0964 -0.1847
55943W        W98934   7.162  24.290   8.920 -0.1842 -0.1175  0.0367
55944W        W98935   2.654   0.264  18.524  0.0759 -0.1057 -0.0139
55945W        W98936  30.883  24.149  24.537  0.0363 -0.0415  0.1283
55946W        W98937   6.314  24.251  27.523  0.0964  0.1867 -0.1277
55947W        W98938  28.995   2.599   6.535  0.0963  0.1148 -0.1135
55948W        W98939   3.939   9.618  11.479  0.1248 -0.0662  0.0557
55949W        W98940  31.976   2.561   2.637  0.1667 -0.1826  0.0287
55950W        W98941  33.528  32.362  10.032 -0.2615  0.1627  0.0887
55951W        W98942   8.244  13.812   9.883  0.0452  0.1265 -0.1564
55952W        W98943  23.700   4.770   3.508 -0.1043 -0.1357  0.2254
55953W        W98944   6.523  16.479  16.050  0.1543 -0.2473  0.0621
55954W        W98945   4.660  33.269   4.069 -0.0045 -0.0497 -0.0479
55955W        W98946  33.811  29.507   2.100  0.2251  0.0569 -0.1578
55956W        W98947  25.216  34.619   8.658 -0.0899 -0.1580 -0.1529
55957W        W98948   0.122  25.392  21.019 -0.1733 -0.3199 -0.2256
55958W        W98949  26.788  24.814   2.918  0.2202  0.0740 -0.1879
55959W        W98950  11.479  20.458   9.061  0.2574  0.0191  0.2064
55960W        W98951   3.646  14.080  12.104 -0.2066 -0.2878  0.1271
55961W        W98952  10.225   9.548  24.723  0.2210  0.4107  0.1861
55962W        W98953   4.960   7.919   8.464  0.0274  0.2021  0.0957
55963W        W98954  30.984   6.341   4.845  0.1081  0.5298  0.0153
55964W        W98955  30.661  18.653   4.227  0.0526 -0.0725  0.1669
55965W        W98956  14.480  31.001   9.544 -0.0964 -0.2256 -0.0570
55966W        W98957  20.519   6.542   6.665  0.0384 -0.3171 -0.4115
55967W        W98958  23.791   0.783   8.223 -0.2871  0.0661  0.2822
55968W        W98959   8.356   5.950   2.215  0.0718 -0.1487  0.0718
55969W        W98960  29.350  32.214   1.530 -0.0548 -0.1218 -0.0303
55970W        W98961   7.242   3.046  10.275  0.2505  0.0008  0.0060
55971W        W98962   0.615  31.443   1.463  0.0664  0.0809  0.2066
55972W        W98963  31.942  31.949  19.117 -0.3391 -0.1431  0.0009
55973W        W98964  10.126  32.825   5.279  0.2875  0.1242  0.1338
55974W        W98965  28.484   1.224   6.536 -0.0402  0.2066 -0.3391
55975W        W98966   2.439   8.890  26.476 -0.0592  0.2332  0.0958
55976W        W98967  16.978  21.080  27.469 -0.0316 -0.0078 -0.2128
55977W        W98968  24.081   3.425   6.144  0.1576  0.0483  0.0400
55978W        W98969  29.671   6.056   5.585  0.0149 -0.0629  0.0667
55979W        W98970  33.458  12.230  25.762 -0.3166  0.3674 -0.0328
55980W        W98971  25.839  21.542   8.977 -0.0152 -0.1399  0.1413
55981W        W98972   1.043   1.890   9.451 -0.2191  0.0148  0.2220
55982W        W98973  26.279  26.516  25.223 -0.0425  0.0467 -0.2702
55983W        W98974  15.446   0.969  16.872 -0.3500 -0.0548  0.1481
55984W        W98975   2.010  28.852  23.565 -0.1103  0.3840  0.2239
55985W        W98976  26.901  10.635   0.938 -0.0636 -0.0969  0.2976
55986W        W98977   2.509   0.877   8.888 -0.1256  0.1832  0.0628
55987W        W98978  20.434  17.426  23.076 -0.1619  0.0932 -0.3081
55988W        W98979   5.075   0.597   6.695 -0.2773  0.1015 -0.1192
55989W        W98980  31.408  34.390  20.779  0.2143  0.2156  0.0747
55990W        W98981   6.409   1.779  10.421 -0.0003 -0.2162 -0.2523
55991W        W98982   8.434  25.604  19.604  0.4041 -0.2366  0.0875
55992W        W98983  25.751   8.433  20.805 -0.1218 -0.0856  0.0444
55993W        W98984   5.897   1.414   1.725 -0.2982  0.2027 -0.0140
55994W        W98985  18.710  34.161   8.725  0.4428 -0.3600  0.1720
55995W        W98986  10.432  14.217  16.302 -0.1563  0.4554 -0.3277
55996W        W98987   0.102  14.466   3.317  0.0349 -0.0835 -0.0269
55997W        W98988   3.026  14.255  10.179 -0.2205 -0.3654  0.2711
55998W        W98989  21.923  26.865  20.189 -0.1921 -0.3915 -0.1235
55999W        W98990  30.013  19.814   0.884 -0.0354  0.2540  0.2340
56000W        W98991   8.939  30.404   7.659  0.0851  0.0062  0.1860
56001W        W98992  30.004  19.321   1.736  0.0050 -0.0953  0.1207
56002W        W98993  15.330  14.973   1.464  0.2067 -0.1661 -0.1254
56003W        W98994   6.589   4.786  23.808  0.0065 -0.1917 -0.3115
56004W        W98995  14.265   0.280   4.800 -0.1833 -0.1913  0.0453
56005W        W98996   3.316  14.571  25.502  0.0644  0.1436 -0.0540
56006W        W98997   2.365  13.085  11.187  0.0392  0.1083 -0.1145
56007W        W98998  31.296  28.801  25.095  0.1809 -0.1069 -0.0789
56008W        W98999   3.618   0.432   2.040 -0.2949  0.1726 -0.0389
56009W        W99000  17.655  12.515  23.109  0.3234  0.2275  0.2202
56010W        W99001  32.038   2.877   1.189 -0.3360  0.0268 -0.1791
56011W        W99002  30.920  32.374   7.767  0.0173  0.3717  0.0939
56012W        W99003   4.600   0.689   8.924 -0.0256 -0.0338  0.0622
56013W        W99004   1.673  29.811   2.211 -0.1488 -0.1323 -0.0179
56014W        W99005   7.984  27.652  28.680 -0.1285 -0.0149  0.0977
56015W        W99006   5.491  34.535   3.197  0.1692  0.2847 -0.0827
56016W        W99007  20.120  23.130  24.999 -0.1769  0.0118  0.3667
56017W        W99008   1.563  31.985   7.460 -0.0706 -0.1163 -0.0043
56018W        W99009   7.411  26.530   2.017  0.0667  0.1155 -0.0468
56019W        W99010   8.829  13.610  10.228  0.1252  0.1361  0.0765
56020W        W99011  13.486  30.561  25.265  0.1457  0.1072 -0.2694
56021W        W99012  12.336  24.143   4.608 -0.3377  0.0264 -0.1772
56022W        W99013  10.043  13.653   1.821 -0.0138 -0.3338 -0.1868
56023W        W99014  21.956  16.416  19.981  0.3498 -0.2265 -0.1616
56024W        W99015   3.674  12.635   1.068 -0.1951  0.3013  0.1448
56025W        W99016   6.774  21.960  16.689 -0.2402  0.2293  0.3337
56026W        W99017   5.593  11.357  10.989  0.2088  0.1225  0.2204
56027W        W99018  30.912   7.973   3.840 -0.1202  0.1532 -0.2746
56028W        W99019  28.585  30.006   5.830 -0.1529 -0.1260  0.0745
56029W        W99020   0.284  28.771   2.763 -0.0263  0.0213 -0.1972
56030W        W99021   3.322   3.607   4.372 -0.0632 -0.0649 -0.3208
56031W        W99022   6.960  33.903   1.901 -0.1043 -0.1276  0.1135
56032W        W99023  34.418   1.373  21.817  0.0506  0.1514  0.1818
56033W        W99024   9.938   9.874   3.807 -0.1237 -0.0886  0.2685
56034W        W99025  10.881  12.994  23.533 -0.0687 -0.0092 -0.2269
56035W        W99026  17.395  19.059  26.465 -0.1681  0.0447 -0.1835
56036W        W99027  30.141   4.653  18.753 -0.2329  0.1515  0.1272
56037W        W99028  25.830   4.660   4.345 -0.0655  0.1397  0.0429
56038W        W99029  14.530   8.205   2.572  0.4548 -0.0257  0.2057
56039W        W99030  30.207  25.783   0.650  0.2375  0.0540 -0.0848
56040W        W99031   2.679   3.911   2.562 -0.0884  0.0743  0.1828
56041W        W99032  34.799  33.311  28.513  0.1775 -0.0839 -0.0694
56042W        W99033  12.013  21.829   3.278 -0.0383  0.1740 -0.1343
56043W        W99034   6.270  11.452   9.846 -0.0361 -0.1825  0.2451
56044W        W99035   5.779  32.514   6.220 -0.0777 -0.2184  0.4131
56045W        W99036   1.750   0.999   4.621  0.1423  0.0384 -0.1793
56046W        W99037  34.752  34.070  26.685 -0.1739 -0.2909 -0.0236
56047W        W99038  30.652   9.901   5.544  0.4035  0.0228  0.0190
56048W        W99039  12.651   4.324  25.012  0.1985 -0.0160  0.1816
56049W        W99040   6.359  13.562   0.122 -0.0432  0.0372  0.1764
56050W        W99041  26.215  10.094   3.777 -0.1633 -0.3977  0.0783
56051W        W99042  29.579  32.949   7.583 -0.0342  0.0404 -0.0996
56052W        W99043   2.418  30.851   1.472 -0.1359  0.0557  0.0915
56053W        W99044  24.579  18.864   9.853 -0.1519  0.2985 -0.2641
56054W        W99045   7.828  10.041  22.963  0.1566 -0.0914  0.1118
56055W        W99046  30.151  25.869   6.659 -0.1271  0.1163 -0.1029
56056W        W99047  27.686  28.687  26.522 -0.0689 -0.0098 -0.1020
56057W        W99048  24.794  18.474   2.514  0.3012  0.2812 -0.0904
56058W        W99049  32.968   7.358   4.339 -0.0830 -0.2517  0.2624
56059W        W99050   8.693   4.206   9.418 -0.0902 -0.2030  0.3217
56060W        W99051  27.113  16.247   4.145  0.2474 -0.2285  0.1437
56061W        W99052   1.599   5.620   7.116  0.1219 -0.1126  0.0270
56062W        W99053  29.013  15.970   0.339 -0.2747 -0.1519 -0.0150
56063W        W99054   3.517  20.094   0.976  0.1385 -0.0082  0.4539
56064W        W99055   3.210   1.801   7.070  0.0025  0.1883 -0.1581
56065W        W99056   8.583  31.302   8.340 -0.0028  0.0237 -0.1284
56066W        W99057   3.132  32.752   4.280  0.1287  0.0884 -0.0544
56067W        W99058  33.078  17.196  11.238  0.2742 -0.1766  0.3058
56068W        W99059  33.258   9.138   6.223  0.1972  0.2829 -0.2012
56069W        W99060  12.703  28.176   1.592 -0.1877  0.0583  0.1726
56070W        W99061   5.966   1.733  23.391 -0.1593 -0.1622  0.1210
56071W        W99062  25.640   0.451   0.069 -0.0482 -0.0586 -0.1383
56072W        W99063  25.307  31.248  23.229 -0.0597 -0.0673 -0.1314
56073W        W99064  21.882   8.037   6.413 -0.0465  0.1045  0.1697
56074W        W99065   1.451  31.984  27.469 -0.0849 -0.0251  0.0099
56075W        W99066  26.017  30.377   5.241  0.1465  0.0351  0.0230
56076W        W99067  28.095  11.596   4.712  0.2023  0.0720  0.0185
56077W        W99068  25.891  33.905   8.430 -0.1457  0.0652  0.2263
56078W        W99069  13.440  11.518   6.271 -0.1088  0.2036  0.0370
56079W        W99070  32.011  31.298   5.960  0.0002  0.0081  0.0602
56080W        W99071   8.218  18.536   6.589 -0.1943  0.0981 -0.0190
56081W        W99072  13.078   5.655   3.196  0.1468 -0.0800  0.2753
56082W        W99073   8.192  10.446  23.076 -0.3002 -0.0146  0.2962
56083W        W99074   6.802  31.836   4.837  0.1972  0.2471 -0.0524
56084W        W99075   6.365  10.515  10.152 -0.1081  0.0827 -0.0816
56085W        W99076   1.664  27.445   2.187  0.1536  0.0066  0.1974
56086W        W99077   4.285   3.537  15.597  0.0793 -0.0858  0.3209
56087W        W99078  32.862  25.449   3.325 -0.4010  0.1964 -0.2937
56088W        W99079   4.420  31.101  19.026 -0.1626 -0.1499  0.0420
56089W        W99080  15.027   8.394   0.329  0.0497 -0.1201  0.0771
56090W        W99081  29.775   5.332   1.105  0.2798 -0.1320  0.3773
56091W        W99082  30.860  26.654   5.045  0.0431 -0.1028 -0.0419
56092W        W99083  19.245  34.591  26.845  0.1248  0.2716  0.0793
56093W        W99084   5.826   4.050   4.887 -0.3260 -0.3038  0.2316
56094W        W99085  19.179  21.456   8.853  0.0052  0.1325  0.1145
56095W        W99086  27.655  17.419  28.102  0.0257  0.0374 -0.3230
56096W        W99087   2.171  22.928  28.992 -0.1035  0.1020 -0.0393
56097W        W99088  26.718  27.092  29.096  0.0450  0.0217 -0.1090
56098W        W99089  29.768   2.900  28.327 -0.2011  0.1034 -0.1002
56099W        W99090   7.266  31.261   8.045  0.1950 -0.3254  0.2776
56100W        W99091  11.341  23.374   9.876 -0.2366 -0.0266 -0.1888
56101W        W99092   9.274   0.974   8.176  0.2321 -0.0025  0.2192
56102W        W99093   1.626  23.061   8.497 -0.0367  0.1971 -0.1591
56103W        W99094   0.867  10.354  11.725  0.1541  0.0845 -0.3093
56104W        W99095   9.011  22.552  28.858 -0.1152  0.1623 -0.1599
56105W        W99096   0.676   1.085  18.576  0.0950  0.0873  0.0049
56106W        W99097   2.153   5.248   2.075  0.2941 -0.3042 -0.0023
56107W        W99098  29.007   0.345  26.560 -0.0971  0.1245  0.3123
56108W        W99099  31.121   5.348   7.915 -0.0827 -0.3246  0.0565
56109W        W99100  29.344  10.514   5.172 -0.1930  0.0412  0.0030
56110W        W99101   2.533   4.276   0.430  0.1063  0.0680  0.0959
56111W        W99102  33.444  16.883   6.076 -0.4994 -0.1895  0.1109
56112W        W99103  32.085  27.551   6.771 -0.1477  0.1065  0.4819
56113W        W99104  34.076  23.100   3.218 -0.0576  0.1609 -0.1490
56114W        W99105  26.984   5.688   1.676 -0.0657 -0.0997 -0.5446
56115W        W99106  21.988  22.173   9.314 -0.0390 -0.0519 -0.2345
56116W        W99107  12.481   2.270   9.151  0.0477 -0.0307  0.2226
56117W        W99108   8.869  13.791   6.374 -0.1805  0.2623 -0.2771
56118W        W99109  22.811  32.711   8.949  0.0409  0.0754  0.0212
56119W        W99110  30.297  13.174   6.778 -0.1498 -0.3141  0.0934
56120W        W99111  12.667  26.799   3.854  0.1569  0.0654  0.0987
56121W        W99112   4.187  11.844   1.826  0.0416  0.0807  0.1130
56122W        W99113  17.106   8.056   6.285  0.1089 -0.3930  0.0882
56123W        W99114  17.377  33.929   5.895 -0.4982  0.0473  0.1162
56124W        W99115  25.937   6.145   6.831  0.3144  0.1328 -0.1783
56125W        W99116   5.397  29.155   8.552  0.1139 -0.4462  0.0658
56126W        W99117  16.658  30.832   0.239  0.0988 -0.1403 -0.0524
56127W        W99118  15.106   1.423   3.023  0.1161 -0.0829 -0.2049
56128W        W99119   0.876  15.091   8.167 -0.4857  0.1105  0.2021
56129W        W99120  27.670  32.814   7.602  0.0242 -0.1207 -0.2357
56130W        W99121  12.418  19.955   4.619 -0.1080  0.1912 -0.0919
56131W        W99122   2.247  29.281   5.311  0.3318 -0.0248 -0.4272
56132W        W99123  26.454  14.701   2.432 -0.1134  0.0565 -0.4414
56133W        W99124   4.005  12.026   6.835  0.0601  0.0510  0.1556
56134W        W99125  24.987   9.279  19.468  0.1294 -0.4396  0.0587
56135W        W99126   5.706   3.986   7.769 -0.0491  0.0722 -0.1107
56136W        W99127  11.397   0.185  10.499 -0.0278  0.0672  0.0069
56137W        W99128  13.924  13.337  26.785  0.3744 -0.1467  0.0503
56138W        W99129   9.353  18.189  25.732 -0.1317 -0.3889  0.2741
56139W        W99130  24.043   2.855   3.127  0.1922 -0.2234  0.0721
56140W        W99131  29.804   1.201   1.526 -0.1603  0.2998 -0.1241
56141W        W99132   3.350  10.429   7.277 -0.1115 -0.1833  0.0765
56142W        W99133  29.586  22.621   6.557  0.1162  0.2640 -0.1937
56143W        W99134   0.644  13.961   7.308  0.3682 -0.0108 -0.2271
56144W        W99135  34.758  22.961  14.504  0.2455 -0.1698  0.4311
56145W        W99136  29.165   1.738   3.899 -0.1315 -0.0335  0.0752
56146W        W99137  27.413  33.457   8.213 -0.1814  0.2629  0.2546
56147W        W99138  34.205   6.542   6.085  0.0193 -0.1333  0.0312
56148W        W99139  25.734   0.785   3.883 -0.0049 -0.1545  0.1179
56149W        W99140  11.633  11.515  26.576 -0.0367 -0.1140  0.0281
56150W        W99141   3.181  25.792  16.083 -0.2948 -0.2398  0.0785
56151W        W99142   5.371  10.137   0.995 -0.4659 -0.0923 -0.2513
56152W        W99143   8.704  31.211   2.605  0.0611 -0.4928  0.0589
56153W        W99144   0.657  12.735  26.670 -0.0034  0.1542 -0.1295
56154W        W99145  24.690  17.379   5.144 -0.1410  0.2766 -0.0821
56155W        W99146  10.396  23.113  27.433  0.1099  0.0022  0.1790
56156W        W99147   8.264  31.603   8.634  0.1085 -0.0596  0.1872
56157W        W99148   8.842  20.055   8.297 -0.2717 -0.1010  0.0450
56158W        W99149  16.195   7.518   7.122 -0.0252 -0.0826  0.1367
56159W        W99150  27.938   6.719   9.961  0.2068  0.4778  0.1687
56160W        W99151  16.474  29.635  24.872 -0.0007 -0.3867  0.1060
56161W        W99152  29.748  10.701   7.459 -0.1487 -0.1096  0.0525
56162W        W99153  10.085   1.805   9.729 -0.2743  0.0004  0.3364
56163W        W99154   0.994  10.234   9.880  0.4006 -0.0944 -0.1766
56164W        W99155  10.754   8.464   7.234 -0.1575  0.3150 -0.0452
56165W        W99156  32.131  33.288   3.982  0.2080  0.4358  0.0268
56166W        W99157   2.600   5.035   4.627  0.1594  0.2334  0.0530
56167W        W99158   4.219   3.862   8.803  0.3452 -0.2476  0.1659
56168W        W99159   4.296   1.823  25.463 -0.2357  0.1457 -0.0233
56169W        W99160  28.845   5.171   4.204 -0.0888  0.1495 -0.3764
56170W        W99161  13.670   9.487  24.049 -0.2024  0.0579 -0.1504
56171W        W99162  29.047   6.315   4.104 -0.1013  0.0436  0.0282
56172W        W99163   1.402  12.823  16.230 -0.0677  0.2499 -0.0805
56173W        W99164  17.856  19.811  28.460  0.0642  0.0770 -0.0068
56174W        W99165   7.549   2.306  23.536 -0.4376 -0.0186 -0.1104
56175W        W99166  31.282   3.378   5.316 -0.5435  0.1137 -0.0396
56176W        W99167  16.268  28.608   1.265  0.1660  0.1760 -0.0149
56177W        W99168  10.479   3.807  14.866 -0.0498 -0.4669  0.2328
56178W        W99169   2.508   3.249   4.798 -0.1204 -0.2411 -0.1247
56179W        W99170  32.859  27.312   0.376  0.2582 -0.2513 -0.1836
56180W        W99171   8.583   5.810  27.384 -0.0607 -0.1747  0.0303
56181W        W99172  30.993  28.927   4.009  0.3307 -0.1704 -0.0333
56182W        W99173  28.328  29.618  25.365 -0.3365 -0.0900  0.1506
56183W        W99174   0.651   6.577   7.528  0.1215 -0.1329  0.1545
56184W        W99175   7.013  31.943   4.373 -0.2042 -0.2755  0.3459
56185W        W99176   8.469   3.076  27.918 -0.1075  0.1660  0.0427
56186W        W99177  28.036   2.845   7.003 -0.1937 -0.1285 -0.1772
56187W        W99178   9.420  19.658   6.865  0.2162 -0.0432 -0.1178
56188W        W99179  17.660  33.584  20.582 -0.2099 -0.1546 -0.0343
56189W        W99180   8.265  27.488   2.725  0.0612 -0.3036  0.1385
56190W        W99181   3.077   1.088  25.546 -0.2997  0.1721 -0.1916
56191W        W99182  33.075  31.486  28.722 -0.0119 -0.1627  0.3890
56192W        W99183  12.927   3.301  23.600 -0.3149 -0.2703  0.0588
56193W        W99184   4.022  12.301   5.515  0.0155  0.1127 -0.3589
56194W        W99185  24.467  30.124   5.771  0.2348 -0.2774 -0.0062
56195W        W99186   6.062  22.273   0.348  0.0778  0.4739  0.0237
56196W        W99187  28.293  33.334  27.510 -0.0948 -0.4811 -0.1062
56197W        W99188   6.081  12.599  20.253  0.4277 -0.1598  0.2398
56198W        W99189  11.869   0.888  28.278  0.0349 -0.1493 -0.1785
56199W        W99190  34.587  13.732   5.123 -0.1358  0.1829 -0.1049
56200W        W99191   3.623  26.020   1.586  0.2667 -0.1730 -0.0382
56201W        W99192  28.689  28.627  28.931  0.0581  0.3924 -0.0654
56202W        W99193  29.135   1.643   6.103 -0.2596 -0.1131 -0.3642
56203W        W99194   3.161   6.527   9.347  0.0917  0.4634 -0.1948
56204W        W99195  21.146  22.319  28.911  0.0100 -0.0384 -0.0789
56205W        W99196  31.630   9.483   9.588  0.0032  0.0140  0.1336
56206W        W99197   2.581   5.567   6.155  0.3001  0.0801  0.2450
56207W        W99198  26.400   5.279   5.993  0.3055 -0.0183  0.2330
56208W        W99199   2.384   2.722   8.906  0.0514  0.0539 -0.1069
56209W        W99200   5.320  33.881   7.490  0.0504 -0.0935  0.1269
56210W        W99201  31.362  18.365   3.947 -0.1244  0.0898  0.2065
56211W        W99202  17.037  33.134  28.995  0.0995 -0.1810 -0.2407
56212W        W99203   5.473   0.624   6.312 -0.0880  0.0323  0.2325
56213W        W99204   6.209  25.889  22.064 -0.0102 -0.1509 -0.2581
56214W        W99205   1.579  16.220  24.699  0.0283  0.2100 -0.1942
56215W        W99206   9.365  11.032  27.419  0.0455 -0.3346 -0.0976
56216W        W99207  25.017   4.903  27.198  0.1031  0.0035 -0.0504
56217W        W99208   3.788   5.938   9.204  0.0991  0.0998 -0.0292
56218W        W99209  32.890  11.860  22.638  0.2458 -0.2792 -0.0768
56219W        W99210  21.909   7.693   3.785 -0.1826 -0.0913  0.0883
56220W        W99211  11.929  14.671  18.425  0.0165 -0.1556 -0.1106
56221W        W99212  11.274   0.923   8.999  0.0672  0.2034  0.1322
56222W        W99213  30.139   5.835   7.017 -0.2077  0.1913  0.1052
56223W        W99214  10.895  33.559  27.361 -0.1537  0.1263 -0.3142
56224W        W99215   6.882   5.273   4.031 -0.2719 -0.2579 -0.3786
56225W        W99216   1.975  22.759   3.849 -0.0576  0.0943  0.1747
56226W        W99217   1.796   5.780  26.917  0.2789 -0.1462  0.2570
56227W        W99218   3.652   7.813   9.513  0.0936 -0.0764 -0.1604
56228W        W99219  12.246   0.054   5.408 -0.4037 -0.1004  0.0099
56229W        W99220  27.627  10.645   1.041 -0.2302 -0.0111  0.3211
56230W        W99221  29.121   6.169  17.641  0.1893  0.1081 -0.1678
56231W        W99222  24.536  12.626  26.914 -0.0085 -0.2803  0.1476
56232W        W99223  29.197   2.992  23.237 -0.2484 -0.2774  0.1732
56233W        W99224   5.949   4.264   0.081 -0.1273 -0.0698 -0.0652
56234W        W99225   9.264  11.315   1.892  0.2040 -0.0063  0.3382
56235W        W99226   4.158  17.801  23.171  0.0539  0.0039  0.2825
56236W        W99227  22.456  25.288   7.799 -0.3427 -0.2967  0.2867
56237W        W99228   4.147  16.278  29.086 -0.3389  0.1085 -0.1454
56238W        W99229   1.544  16.353   0.267  0.1533 -0.1287 -0.0708
56239W        W99230  26.491  13.060  21.950  0.0571 -0.2324  0.1091
56240W        W99231  28.895  33.931   3.365  0.0089  0.2261 -0.0552
56241W        W99232  26.814   9.169   4.334  0.0087 -0.1395 -0.2403
56242W        W99233  11.075   6.169   3.869  0.0582  0.0868 -0.0320
56243W        W99234   7.454   1.410   8.526 -0.3679  0.2347 -0.0961
56244W        W99235  11.873   3.908  26.392 -0.1553  0.2986  0.1724
56245W        W99236  25.608  22.837   4.902  0.3500 -0.0443 -0.3924
56246W        W99237   3.465  29.618   8.648  0.0330 -0.0725 -0.0210
56247W        W99238   4.992  28.827  16.803 -0.2551 -0.1018  0.2152
56248W        W99239  33.262   6.498   5.855  0.1344  0.0995  0.3573
56249W        W99240  24.534  33.086  24.821  0.1927  0.4283  0.0256
56250W        W99241  21.787   0.826   1.779  0.0547  0.1267 -0.0590
56251W        W99242  11.667  28.704   6.315  0.0999 -0.2263  0.0910
56252W        W99243  16.450   3.514   8.745 -0.0301 -0.0509 -0.0267
56253W        W99244  28.591  16.111   0.548  0.2707 -0.1904  0.0676
56254W        W99245  23.781   8.192  22.605  0.1946 -0.2679 -0.2163
56255W        W99246  32.975  22.205  28.155  0.1910  0.0779  0.1787
56256W        W99247  27.998  20.727   1.330 -0.0956 -0.2254  0.0512
56257W        W99248   1.662  20.780   2.170 -0.2254  0.1179  0.4446
56258W        W99249  29.222  12.089   8.544  0.0381  0.1087 -0.1076
56259W        W99250   6.871  34.387   4.090 -0.0214  0.0679 -0.1400
56260W        W99251  32.990  19.491   6.021  0.1443 -0.1442  0.0003
56261W        W99252   1.765  11.946  10.049  0.0579  0.0854 -0.0027
56262W        W99253  10.898  10.824  28.563  0.2075 -0.2650  0.4816
56263W        W99254  33.615  10.157   8.778 -0.1789 -0.0108  0.0314
56264W        W99255   5.440   6.222   8.240 -0.1862  0.2362  0.1663
56265W        W99256  32.760  33.862  23.585 -0.0095  0.1541  0.0422
56266W        W99257   1.920  20.154   5.873 -0.2155 -0.1403  0.0987
56267W        W99258  27.493   8.748  23.766 -0.2671 -0.1696 -0.3512
56268W        W99259  25.195  17.654   6.912  0.0365 -0.0672 -0.0134
56269W        W99260  12.297   9.787   6.277 -0.1677 -0.2294 -0.1994
56270W        W99261  26.800   9.054   5.957 -0.2479 -0.0972  0.1023
56271W        W99262  34.301   4.577  25.012  0.0443  0.1794 -0.3470
56272W        W99263  14.983   1.424  16.102  0.3390 -0.2718  0.1822
56273W        W99264  28.476  31.840   1.425 -0.0089 -0.0482  0.3087
56274W        W99265  23.735  24.537  16.249  0.0690 -0.1418  0.1158
56275W        W99266  26.350  16.798   1.189 -0.2777  0.2144  0.1394
56276W        W99267  30.607   2.259   6.075 -0.0892  0.2719 -0.1127
56277W        W99268  32.842   8.080   1.023 -0.0570 -0.0376 -0.0316
56278W        W99269   3.578   3.987   4.851  0.1198  0.2354 -0.0955
56279W        W99270  22.835  26.154  26.852  0.2541 -0.0210 -0.2276
56280W        W99271  34.777   0.852  27.438  0.0060  0.3973  0.2513
56281W        W99272  28.795  15.956  25.177 -0.0307  0.0561  0.0109
56282W        W99273   0.087  33.333   8.677  0.1499 -0.1623 -0.1334
56283W        W99274   8.725   9.837   0.108  0.1112  0.0425  0.2671
56284W        W99275  22.670  20.153   8.367  0.2243 -0.1351 -0.2187
56285W        W99276  13.860   0.191  11.048 -0.0981 -0.2889 -0.3930
56286W        W99277   5.326  30.867   6.134  0.0794 -0.2108 -0.1246
56287W        W99278   6.649  23.048  28.829  0.0707 -0.0039 -0.3652
56288W        W99279  10.690  32.041   2.171  0.1431 -0.1322 -0.0530
56289W        W99280   1.304  17.172   5.031 -0.1075 -0.0312  0.1544
56290W        W99281   6.847  17.582   9.017  0.0489  0.2008  0.0807
56291W        W99282   4.324  12.632   5.343  0.0764 -0.0256  0.0153
56292W        W99283   6.441  13.162  23.106  0.2738 -0.0474 -0.1162
56293W        W99284  32.725  24.994   4.718  0.1378 -0.0570  0.0937
56294W        W99285  34.134  21.866  26.297 -0.0245 -0.1524 -0.0664
56295W        W99286   7.789  26.046   9.457 -0.1575  0.2543  0.1070
56296W        W99287  11.674  33.527   4.618 -0.1330 -0.0717 -0.0959
56297W        W99288  12.351  33.198   3.657  0.2307 -0.6810  0.1387
56298W        W99289  34.556   5.913   8.591 -0.3187  0.2702 -0.1216
56299W        W99290  11.052   6.250   7.975  0.2509 -0.0924  0.1766
56300W        W99291  10.477  29.099   0.748 -0.0981  0.1275 -0.0730
56301W        W99292   0.849   6.263  27.436  0.3208  0.1105  0.0144
56302W        W99293  11.559  33.498  10.668 -0.0469 -0.0264  0.0937
56303W        W99294   1.587  25.629  10.376 -0.2276 -0.0142 -0.0381
56304W        W99295   0.537   7.835   7.664  0.1033  0.2031 -0.0321
56305W        W99296  34.413   1.770   3.740  0.1076 -0.4767  0.2922
56306W        W99297  25.808   6.235  28.179 -0.3850  0.1334 -0.1522
56307W        W99298  16.641   5.727  23.229 -0.2546  0.5865 -0.0434
56308W        W99299  18.932   8.971  25.097  0.2568 -0.1162 -0.0238
56309W        W99300  25.334  29.755  23.742  0.1621 -0.1393 -0.1171
56310W        W99301  17.564  15.299   7.660 -0.4015  0.0125 -0.1862
56311W        W99302  27.069  14.284  15.400 -0.3260 -0.0654 -0.0316
56312W        W99303   1.606  31.718  19.590 -0.0950  0.0863 -0.1056
56313W        W99304  16.634  34.719   4.528  0.1952 -0.0187 -0.0122
56314W        W99305  34.532  30.174  29.215  0.1774 -0.0980 -0.1983
56315W        W99306  26.105  27.859   7.602  0.0165 -0.2267  0.0515
56316W        W99307   5.527  31.223   2.902  0.3001  0.4023 -0.3033
56317W        W99308  30.781   4.242  27.282 -0.2173  0.2760  0.1459
56318W        W99309  28.580  29.529   8.256 -0.1444 -0.0891  0.2863
56319W        W99310  25.866   3.911   7.375 -0.3030  0.0610  0.0469
56320W        W99311   0.524   1.508   6.922  0.1487 -0.1972  0.0556
56321W        W99312   3.527   8.014   8.201 -0.0545 -0.1139  0.1756
56322W        W99313   8.721  11.386   2.058  0.1086  0.1215 -0.0258
56323W        W99314  33.049  11.296   9.895  0.0046 -0.0381 -0.1428
56324W        W99315  20.318   6.118   6.958 -0.2834 -0.2837 -0.0546
56325W        W99316  31.162  29.118   4.494  0.2429 -0.1121  0.3843
56326W        W99317  16.970   4.730   9.888 -0.1860 -0.1091  0.2204
56327W        W99318   6.773  24.757  26.322  0.1868 -0.0769  0.1220
56328W        W99319  23.421   9.698  25.820 -0.0538  0.1810  0.0273
56329W        W99320  16.517   9.388   5.063 -0.0433 -0.1682 -0.6391
56330W        W99321   1.511  30.478   5.641 -0.0956 -0.2610  0.1722
56331W        W99322  23.179   0.430   7.404  0.0431 -0.2565  0.2031
56332W        W99323   5.289  28.073  26.392  0.1472  0.1466  0.1973
56333W        W99324  11.364  14.209  10.610 -0.2460 -0.0883 -0.0545
56334W        W99325  29.379  31.739   5.982  0.1372 -0.3178 -0.0886
56335W        W99326   9.482  18.079   9.996 -0.1807 -0.3002  0.1209
56336W        W99327   9.895  22.120   6.961  0.1224 -0.0256 -0.1196
56337W        W99328  23.863   7.788   3.030  0.1087 -0.1199  0.2868
56338W        W99329  29.379   0.445  26.871 -0.0139 -0.0260 -0.1760
56339W        W99330  15.150   0.690   8.797  0.4553 -0.1038 -0.1064
56340W        W99331   1.394   6.120   0.866 -0.0553  0.1213  0.3801
56341W        W99332  10.353   5.533   8.062 -0.0358 -0.0978  0.1410
56342W        W99333   0.139   7.989  28.050  0.0115  0.1397 -0.0318
56343W        W99334  34.356   9.170  26.787  0.0071  0.2266  0.2877
56344W        W99335  11.617   5.461   2.627 -0.2143 -0.1716  0.2345
56345W        W99336  31.661   6.599   7.392 -0.0517  0.1149  0.1640
56346W        W99337   3.729  31.403  27.994 -0.2445 -0.1444  0.3249
56347W        W99338  25.884  33.425   2.044 -0.1108  0.0927 -0.3477
56348W        W99339   9.208  30.183  23.331 -0.1309 -0.0086  0.0104
56349W        W99340   2.233  22.140   8.203  0.4609  0.0677 -0.0901
56350W        W99341   0.322  26.508   3.570 -0.1274  0.1675 -0.1134
56351W        W99342   3.839   0.838  22.525  0.1103 -0.2311  0.1367
56352W        W99343   9.692  34.625   7.255 -0.0154  0.2598 -0.1876
56353W        W99344  20.931  15.097   2.580  0.1879 -0.1174  0.1376
56354W        W99345  19.561   7.058   0.217 -0.5180  0.1034 -0.4505
56355W        W99346   1.602   5.919  28.351 -0.0488 -0.0824  0.6927
56356W        W99347  14.616  26.379   1.573  0.1295 -0.0333 -0.1997
56357W        W99348  10.425  29.967   3.684 -0.0552  0.4441  0.2834
56358W        W99349  11.396   2.980  22.437  0.1724 -0.1486 -0.2268
56359W        W99350  22.791   0.472   6.118  0.1380  0.1539 -0.0696
56360W        W99351  14.961  13.944  29.060  0.1631 -0.1935  0.2727
56361W        W99352   8.363  29.592  22.635 -0.1185 -0.0768  0.2276
56362W        W99353   9.985  19.354   0.022  0.1273  0.2071 -0.0602
56363W        W99354  23.387  21.094   0.381  0.1545  0.1090  0.0346
56364W        W99355  22.458  31.761   5.452 -0.0395  0.1305  0.3259
56365W        W99356  28.445  33.863  22.662  0.0076 -0.1829 -0.2780
56366W        W99357  29.492   7.743   6.021  0.0836 -0.0106  0.1399
56367W        W99358   1.837  15.593   5.628  0.1049  0.1720  0.0745
56368W        W99359   8.528   0.567  10.398  0.0122 -0.1098 -0.1497
56369W        W99360  18.829   4.606   2.175  0.2647  0.0049  0.0936
56370W        W99361   7.522  28.255   9.526 -0.0358  0.2559 -0.0756
56371W        W99362  15.316  33.907   7.871  0.0181 -0.1725  0.0825
56372W        W99363   3.186   0.649  10.590  0.1672  0.1696 -0.1382
56373W        W99364   8.866   1.997   6.136 -0.1421 -0.0880  0.2652
56374W        W99365  22.158  33.679  26.665 -0.2096  0.1252  0.0327
56375W        W99366   6.478  33.420   9.941 -0.3310 -0.0647 -0.4491
56376W        W99367   6.530  31.666   7.300 -0.0465 -0.2849  0.2115
56377W        W99368  33.051  11.926   7.398 -0.1941  0.3339  0.0277
56378W        W99369  28.950   4.660   4.163 -0.2878 -0.1652 -0.3498
56379W        W99370  21.252   3.639   6.103 -0.3441  0.0851 -0.1839
56380W        W99371  19.194   9.628   7.640 -0.0243  0.0440 -0.0267
56381W        W99372   0.715  13.286   6.382 -0.1174 -0.1233 -0.1889
56382W        W99373  34.147  22.350   4.414  0.1127  0.0327  0.1122
56383W        W99374  15.669  23.095   5.800 -0.2376 -0.1712 -0.0306
56384W        W99375   3.542  32.402   2.133  0.3603 -0.0101  0.1260
56385W        W99376  27.818  33.311   7.922  0.1152  0.4030  0.0064
56386W        W99377  27.678  24.606  26.471 -0.2460  0.0351  0.0237
56387W        W99378  17.123  29.432  27.038 -0.3883  0.2582 -0.0023
56388W        W99379  22.107   9.601   9.213  0.4463  0.3066  0.0379
56389W        W99380  29.721  32.310  22.799 -0.1536  0.0418 -0.0772
56390W        W99381  31.994  29.073   5.713 -0.3031 -0.2071 -0.2369
56391W        W99382   6.166  31.323   0.654  0.0504  0.1483 -0.2689
56392W        W99383   2.196  34.672  24.835 -0.1153  0.1308  0.1065
56393W        W99384   6.757  32.132   3.244  0.0483 -0.3662 -0.0181
56394W        W99385   4.030  27.614   9.499  0.0924  0.0802 -0.2301
56395W        W99386  20.686  26.938   6.546 -0.0116  0.1389  0.0246
56396W        W99387  33.310   3.745  10.587  0.0847  0.2314  0.3835
56397W        W99388  17.481  26.486   6.014  0.1632  0.0340 -0.0068
56398W        W99389   7.147  21.904  18.308  0.0422  0.2839  0.0959
56399W        W99390  27.348  14.868  23.247  0.0042  0.0098  0.3153
56400W        W99391   2.982   3.364  27.432 -0.0429  0.0443  0.1699
56401W        W99392   9.134  21.239   4.194 -0.0333  0.3883  0.1116
56402W        W99393   0.083   3.815  27.845  0.1882 -0.0146 -0.1317
56403W        W99394  10.478   5.408   0.713  0.1597 -0.2486 -0.2480
56404W        W99395  29.947   0.495  27.897  0.4405  0.1905 -0.0125
56405W        W99396   9.555   5.687   3.043 -0.0287 -0.0021 -0.1029
56406W        W99397   6.635  31.802   4.095 -0.4905 -0.1614  0.1362
56407W        W99398  16.410  34.209  18.377 -0.1033  0.0142 -0.2543
56408W        W99399   3.869  12.113   3.387  0.0627 -0.3300  0.0559
56409W        W99400  18.155  10.226  26.861  0.0630 -0.1343 -0.0330
56410W        W99401   5.024  30.179  26.845  0.0439 -0.0554 -0.0794
56411W        W99402  18.669   8.333   5.454  0.4646  0.0321  0.0940
56412W        W99403   9.189  12.305  23.732 -0.0021  0.3837  0.2743
56413W        W99404   9.536   3.822   5.093  0.3020 -0.0665 -0.3014
56414W        W99405  30.757   8.117  22.270 -0.1765  0.0513  0.1630
56415W        W99406   2.642  14.642   1.193 -0.0067  0.1950 -0.0168
56416W        W99407   0.955  19.882  10.239 -0.2180 -0.0934 -0.0898
56417W        W99408  32.072   4.876  28.702 -0.4045  0.0903  0.0137
56418W        W99409  12.077   8.622   3.727 -0.0362 -0.4714 -0.0347
56419W        W99410  24.534  26.948   3.140  0.1020  0.2316 -0.0052
56420W        W99411  31.449   8.577   7.610 -0.2240  0.1080 -0.1367
56421W        W99412   2.489   6.268  24.478 -0.1591  0.0398  0.3915
56422W        W99413  24.398  29.672   8.597 -0.0353 -0.2033  0.1526
56423W        W99414  27.754  29.022   7.870  0.2418 -0.2104 -0.0484
56424W        W99415  12.317  12.039  23.807 -0.1528 -0.0448 -0.1048
56425W        W99416  26.560  19.783   1.475 -0.0266 -0.2426 -0.0498
56426W        W99417  22.959  26.674   5.530 -0.0033  0.0209 -0.2440
56427W        W99418  16.989  32.818   8.803 -0.1447 -0.3962  0.1053
56428W        W99419  25.944  34.493   4.494  0.0909 -0.0284  0.2099
56429W        W99420   9.850  34.790   1.380 -0.1613  0.3368 -0.1006
56430W        W99421  19.375  20.126  23.550  0.2420  0.1152  0.2276
56431W        W99422  29.286  15.173  10.253  0.1203  0.0549  0.1970
56432W        W99423   5.669  26.278   3.231  0.0862 -0.1903  0.1135
56433W        W99424   8.948   1.803   5.382 -0.0635 -0.1115 -0.1091
56434W        W99425   4.876  33.149   7.147 -0.1996  0.1243 -0.0857
56435W        W99426  14.619  26.366   3.991 -0.1770  0.2818  0.2014
56436W        W99427  19.765   7.602   1.154 -0.3739  0.0496 -0.2003
56437W        W99428   8.281   8.969   6.284 -0.0199  0.0070  0.4688
56438W        W99429  15.955   2.519  28.517  0.2494 -0.2201 -0.2134
56439W        W99430   3.449   0.171   4.143  0.2074  0.1086  0.1041
56440W        W99431  27.583   3.426   8.427  0.3201  0.2617 -0.5521
56441W        W99432  25.746   9.787   4.442  0.0002  0.0539  0.1541
56442W        W99433   5.030  31.358   5.269 -0.0360  0.2550 -0.3749
56443W        W99434  32.211  11.075   5.581  0.0577 -0.2300 -0.2479
56444W        W99435  10.985  20.509   9.219 -0.2505 -0.2247  0.0936
56445W        W99436  12.972  31.257   1.890 -0.0785 -0.0173  0.0184
56446W        W99437   1.718  22.317   4.191  0.1624  0.3645  0.3384
56447W        W99438   5.572  30.757   7.571  0.2932  0.3715  0.0048
56448W        W99439  32.641  22.023   2.594 -0.4763  0.1767  0.0358
56449W        W99440  24.801  33.637   3.888  0.1491 -0.3056  0.3659
56450W        W99441   1.174   1.572   7.734 -0.0446  0.0159  0.4174
56451W        W99442   5.740  10.288  25.492  0.1911 -0.1222 -0.1086
56452W        W99443  31.421  10.693   1.933 -0.2459  0.0892 -0.2281
56453W        W99444  27.882   2.405   7.350 -0.0984 -0.1865  0.1672
56454W        W99445  34.109   7.741   5.488  0.0854 -0.0417  0.0677
56455W        W99446   7.379   7.892  28.837 -0.0251  0.0938  0.0337
56456W        W99447  33.351  11.443   1.176 -0.1588 -0.2776 -0.2243
56457W        W99448  10.483   6.937   2.976  0.1714  0.0590 -0.1164
56458W        W99449   4.678  32.672   4.809  0.0286  0.0351 -0.0818
56459W        W99450  11.309  29.658   5.215 -0.0089 -0.0123  0.2127
56460W        W99451   7.245  17.399  20.914  0.0403 -0.3135  0.1047
56461W        W99452  34.053  33.699   5.478 -0.1754 -0.1221 -0.3875
56462W        W99453   2.861  10.431   4.221  0.3708 -0.3395  0.0727
56463W        W99454   3.014   4.182   4.822 -0.0395  0.2081 -0.1417
56464W        W99455   0.169  11.025   7.744 -0.0570 -0.1645  0.0586
56465W        W99456  18.498   1.800   7.528  0.1059  0.0304 -0.1169
56466W        W99457   6.353  14.352  10.833  0.2200  0.4250 -0.3513
56467W        W99458  32.631  12.250   0.905  0.0163  0.0963  0.0951
56468W        W99459  28.160  32.093   5.490 -0.1285 -0.0764 -0.0584
56469W        W99460  32.133   1.879   4.344  0.3929 -0.2516  0.0122
56470W        W99461  14.808  31.515   9.356  0.0863  0.0650  0.0144
56471W        W99462  25.643   4.132   6.074  0.3344  0.4380 -0.1080
56472W        W99463  34.155  33.706  28.879 -0.0263 -0.0874  0.0792
56473W        W99464   3.851   2.057  24.187  0.1002  0.1499 -0.4828
56474W        W99465  24.395  29.732   2.356 -0.1771 -0.0084 -0.0329
56475W        W99466  10.128  26.424   3.265 -0.1027 -0.0774 -0.0481
56476W        W99467   1.205  17.815  29.003 -0.0316 -0.1091 -0.1228
56477W        W99468   1.930  14.742   8.837  0.2351 -0.1279 -0.2763
56478W        W99469   1.396   2.701   8.916 -0.0993  0.1640  0.1836
56479W        W99470  12.879   8.073   5.349 -0.0183  0.0483 -0.1008
56480W        W99471  33.138  34.333  25.717  0.0785  0.1764 -0.0035
56481W        W99472   2.865  32.126   0.905 -0.0499 -0.0135 -0.1325
56482W        W99473  34.784   9.372   4.488  0.0148 -0.1898  0.2247
56483W        W99474  26.006  32.521   5.187 -0.0157 -0.0069  0.0543
56484W        W99475  22.781  34.357   1.012 -0.3866  0.1439 -0.4063
56485W        W99476  25.444  20.306  25.496  0.0339  0.1315 -0.1425
56486W        W99477  33.488  16.283  24.562  0.2257 -0.0607 -0.0785
56487W        W99478   2.152   3.615   6.038 -0.2605 -0.4167  0.0368
56488W        W99479  26.477   6.855   2.608  0.0942  0.2255 -0.1167
56489W        W99480  34.627   3.632   2.032 -0.2370 -0.2732 -0.1844
56490W        W99481   3.861  32.355   9.566  0.1406  0.0086 -0.0583
56491W        W99482  13.149  27.256   1.007  0.2640  0.2604  0.1163
56492W        W99483   6.880  10.364  27.612 -0.0932  0.3518 -0.1440
56493W        W99484   1.905   8.755   9.860  0.1050  0.0665 -0.2021
56494W        W99485   5.499  11.899   7.497 -0.0243  0.0527  0.0584
56495W        W99486   6.047  10.218  24.829 -0.1143 -0.1247  0.0354
56496W        W99487  24.741  29.890   4.922  0.0217 -0.0170  0.0710
56497W        W99488   0.412   4.238   0.451  0.1257  0.1742 -0.0396
56498W        W99489  12.044   8.658   2.095  0.0817  0.0282  0.3940
56499W        W99490  17.565  28.293  20.960  0.1186  0.2339  0.1314
56500W        W99491   1.616  18.721   4.304  0.1681  0.4083  0.0113
56501W        W99492   1.606  34.401   8.597 -0.3686  0.1774 -0.2739
56502W        W99493  26.968   2.691   2.086  0.2446  0.0797 -0.2521
56503W        W99494  29.504  16.413   3.397  0.1005  0.0159 -0.0949
56504W        W99495  20.885  19.777   6.662 -0.0189  0.0418 -0.0658
56505W        W99496  27.095   5.676  21.369 -0.0865 -0.0077 -0.0576
56506W        W99497   7.032   2.115   8.298 -0.1861 -0.0540 -0.0888
56507W        W99498  23.757  21.522  26.844  0.0731  0.1699  0.0315
56508W        W99499  29.264  18.080   8.914 -0.0637 -0.2838  0.0496
56509W        W99500   5.195  21.089   7.753 -0.0631  0.3002  0.0476
56510W        W99501  34.314   8.403  10.314 -0.1269 -0.1256  0.2957
56511W        W99502   0.045   6.021   7.007  0.2973 -0.3516  0.0106
56512W        W99503   5.807   9.894   4.686  0.2108 -0.0753 -0.2171
56513W        W99504  34.075  12.495   4.905  0.0732  0.2312  0.2055
56514W        W99505  33.432  24.610   6.510  0.2157 -0.0684 -0.1276
56515W        W99506   4.307  32.328  10.149  0.0532  0.1587 -0.0617
56516W        W99507   5.520  30.046   7.143  0.1782  0.0703 -0.2699
56517W        W99508   0.162   4.913  16.863 -0.2049 -0.1040  0.3804
56518W        W99509  10.348  18.056  19.859 -0.1139  0.2823 -0.4087
56519W        W99510  33.113  34.201   6.634 -0.0875  0.3074  0.0741
56520W        W99511  19.767  32.507  27.924 -0.2696 -0.0257  0.0600
56521W        W99512  15.431  15.390  25.214  0.2573 -0.1358  0.0043
56522W        W99513  33.500  10.352  28.545 -0.0426  0.1188 -0.1974
56523W        W99514  22.965   4.081   2.232 -0.2086 -0.0544  0.2889
56524W        W99515  21.344   4.139   6.093 -0.4795  0.0814 -0.0056
56525W        W99516  34.161  31.131   6.436  0.1435  0.0327 -0.0492
56526W        W99517  13.675   2.975  28.544 -0.0051 -0.0961  0.1638
56527W        W99518   1.977  34.702   9.600  0.2453  0.0447  0.3135
56528W        W99519   7.238   6.565   1.354  0.3294  0.0879  0.0606
56529W        W99520  28.088  26.009   8.065  0.0448  0.1373  0.1538
56530W        W99521  29.910  13.092  11.038 -0.2156  0.2201 -0.1852
56531W        W99522   3.464  14.938   0.069 -0.0377  0.0248 -0.1427
56532W        W99523   4.217   7.386  21.416 -0.1934  0.0562  0.0010
56533W        W99524   6.187  25.995   7.885  0.0296  0.2319  0.1355
56534W        W99525  34.557   7.045  21.233 -0.2905 -0.2249  0.0215
56535W        W99526  29.070   5.555   2.858  0.1315  0.1940 -0.1640
56536W        W99527  32.429   9.561  10.867  0.2366 -0.1064 -0.0697
56537W        W99528   3.210  17.547   8.864  0.0680 -0.0124  0.3426
56538W        W99529  24.066   2.385   7.826  0.1445 -0.1286 -0.0687
56539W        W99530  26.801  23.007   6.083  0.1415  0.0418  0.5776
56540W        W99531  32.291   7.908   8.867 -0.0446  0.0254  0.0586
56541W        W99532  22.330  29.499  27.139  0.4204 -0.0354  0.0277
56542W        W99533   3.853  11.002   1.827  0.1249 -0.4542 -0.2086
56543W        W99534  29.320  10.469  17.489 -0.1154  0.0197  0.3615
56544W        W99535  10.615  27.850  27.737 -0.1322  0.4286 -0.0105
56545W        W99536   8.786  18.422   7.631 -0.3291  0.3590  0.1835
56546W        W99537   2.861  33.967  19.364 -0.1479 -0.4050  0.1051
56547W        W99538   6.306  30.739   1.441 -0.3684 -0.0350  0.0162
56548W        W99539   4.829  26.905  26.968 -0.1395  0.1574 -0.1024
56549W        W99540  17.328  23.683   5.565 -0.0727  0.0290  0.0656
56550W        W99541  21.864  20.089   0.022 -0.1083 -0.0199  0.4387
56551W        W99542  24.285  13.196  23.629 -0.0305  0.1365  0.1071
56552W        W99543  26.623  11.316   4.753 -0.2333 -0.0935 -0.1001
56553W        W99544   3.891  17.692   4.793 -0.1974 -0.2559 -0.2428
56554W        W99545   4.796  32.901   6.088 -0.0187  0.0672 -0.4573
56555W        W99546   2.743   3.617   7.555  0.1735  0.0841  0.0867
56556W        W99547  10.659  23.287   6.893 -0.0826  0.2375  0.4920
56557W        W99548  31.169  13.586   5.696 -0.1362 -0.0404  0.0300
56558W        W99549  27.859  16.114   8.442  0.1908  0.2509  0.2602
56559W        W99550   0.408  25.185   6.771  0.3536  0.2499  0.0863
56560W        W99551  27.299  15.134  17.142  0.2546  0.2013 -0.0816
56561W        W99552  30.131  11.063   6.814 -0.0844 -0.0565 -0.0778
56562W        W99553   6.920   8.896   9.658 -0.1732  0.1535 -0.2121
56563W        W99554  27.628   5.389   9.265  0.2211  0.1009 -0.1696
56564W        W99555  28.848   2.273   7.571 -0.2355  0.0530 -0.0380
56565W        W99556  31.201  34.033   1.891  0.0657  0.1586 -0.4629
56566W        W99557   0.689  34.139   5.339 -0.1259  0.1600  0.1838
56567W        W99558  12.123   1.591   9.677 -0.1123  0.3503 -0.0184
56568W        W99559  34.409   5.418   8.668  0.1701 -0.0574 -0.0943
56569W        W99560   6.354  22.878   3.880  0.0231  0.0938  0.3563
56570W        W99561  17.439  10.354   4.429  0.0040  0.2340  0.0198
56571W        W99562  15.038   8.450   6.789  0.4718 -0.1733 -0.2278
56572W        W99563  33.387  28.816   6.886  0.2107  0.0598 -0.1012
56573W        W99564   1.801   2.545   0.383 -0.4659  0.2453 -0.2196
56574W        W99565  31.524   4.619   7.740  0.2166  0.0223  0.0938
56575W        W99566  30.551   9.676   6.036  0.3530  0.0570  0.3248
56576W        W99567  29.687  12.204  25.521 -0.0584 -0.0953  0.0288
56577W        W99568   7.551  16.639   3.758  0.1429 -0.3159 -0.0697
56578W        W99569  30.131  21.110   8.681 -0.2428  0.0679 -0.2138
56579W        W99570   6.987  32.857   7.868 -0.1854 -0.0666 -0.1573
56580W        W99571  10.843   4.464  19.659 -0.0406 -0.2699  0.2743
56581W        W99572   8.578  28.725   6.750 -0.0041 -0.0452 -0.2249
56582W        W99573  26.457   7.977   6.183  0.2266  0.1531 -0.0888
56583W        W99574  32.579   9.880   7.718  0.0425  0.0417 -0.2827
56584W        W99575  33.063   3.564   1.189  0.0556  0.1902  0.1233
56585W        W99576  29.239  23.324  23.168 -0.1255 -0.1825 -0.2073
56586W        W99577  31.980   2.936   2.233 -0.0255  0.1054 -0.1825
56587W        W99578   2.239  28.128   9.628 -0.1397 -0.0791 -0.2128
56588W        W99579  17.735   7.023   0.143  0.3824 -0.2006  0.1348
56589W        W99580   2.149  28.318  27.331  0.2191 -0.2674  0.2684
56590W        W99581  33.434   4.902  28.937 -0.6039 -0.1861 -0.0974
56591W        W99582  29.732   6.801  27.443  0.1743 -0.0157 -0.0309
56592W        W99583  23.798   2.919  28.769  0.0753 -0.0894 -0.0259
56593W        W99584   5.856  17.880   9.515 -0.0378  0.2230 -0.0038
56594W        W99585  31.210   4.823  23.365  0.0188 -0.0156  0.0013
56595W        W99586   8.439   2.896   5.948 -0.2662  0.0706 -0.0458
56596W        W99587  12.615  16.244   5.797 -0.1336  0.1394  0.1539
56597W        W99588  20.054   3.194   6.245 -0.0041 -0.0054  0.0154
56598W        W99589  10.894  16.844  28.255 -0.0980  0.0516  0.0421
56599W        W99590  28.308  34.553   4.862  0.1799  0.2039  0.0301
56600W        W99591   5.231  24.766   9.907  0.4242  0.1480  0.2044
56601W        W99592  23.243  23.123  19.852 -0.2265  0.2615  0.0368
56602W        W99593  12.240  27.692  25.484 -0.0543 -0.1191 -0.1825
56603W        W99594  19.357   6.701  26.913 -0.0384  0.0613 -0.1514
56604W        W99595   7.236   7.826  11.038  0.2745 -0.1672 -0.0687
56605W        W99596   4.113  33.671  22.297  0.0543  0.0417 -0.2179
56606W        W99597   2.378  11.006  22.992 -0.0878 -0.3415  0.1112
56607W        W99598   0.005  10.858   4.785 -0.1424  0.2144  0.1272
56608W        W99599  25.839   1.511  28.455  0.4013  0.2209 -0.2324
56609W        W99600   9.196  17.981  24.288  0.1676 -0.0658 -0.0083
56610W        W99601  28.991   2.205   9.529 -0.0624 -0.1381 -0.2946
56611W        W99602  29.184  31.460   2.986  0.0021 -0.0954 -0.0130
56612W        W99603  31.503   1.643   2.502 -0.4240 -0.3529  0.0207
56613W        W99604   9.570  20.500   7.240  0.3090  0.0565  0.2437
56614W        W99605   8.434  28.704  21.524  0.1184  0.3681  0.1228
56615W        W99606  26.167   5.237  23.449 -0.2325  0.1861 -0.0737
56616W        W99607   3.263   6.286  27.875  0.2814 -0.0417  0.1999
56617W        W99608  29.468  12.010   3.943  0.1809 -0.1038  0.0017
56618W        W99609  32.089  26.566   0.061 -0.0841 -0.0789 -0.2516
56619W        W99610   8.332  13.640  22.144  0.2242  0.3046  0.0487
56620W        W99611   0.605   8.490   5.269 -0.1274  0.0197 -0.0087
56621W        W99612  11.235  14.636   1.515  0.0293 -0.1078  0.0850
56622W        W99613  20.345  25.584   0.574 -0.1072 -0.0410 -0.0945
56623W        W99614  33.982   1.830   6.971  0.0886 -0.0189 -0.2754
56624W        W99615  32.150  16.594  18.393  0.3206 -0.0221 -0.0588
56625W        W99616  20.846  27.758  18.201  0.1350 -0.1216  0.1678
56626W        W99617   6.704  33.087   0.717  0.1822 -0.0238 -0.1299
56627W        W99618   2.498  17.502   0.773 -0.0363 -0.2690 -0.2215
56628W        W99619  13.440   4.558  25.937 -0.2182  0.3703  0.0109
56629W        W99620   0.865   7.592   9.868  0.1066  0.1667 -0.1228
56630W        W99621   3.664  34.691  26.832 -0.0527 -0.1167 -0.0872
56631W        W99622  20.658   9.643   6.380  0.0323  0.1966  0.2115
56632W        W99623  31.264  28.408  23.412  0.2114 -0.3006  0.5364
56633W        W99624  15.551   3.837  20.582  0.3081  0.0049  0.0013
56634W        W99625  25.792  16.310   7.863  0.3295 -0.0050  0.0516
56635W        W99626  29.874  34.630  22.892 -0.1028 -0.0685  0.1790
56636W        W99627  12.016  24.359  20.699  0.0454  0.3785 -0.2608
56637W        W99628   0.818  10.090  10.447 -0.1422  0.0163  0.2308
56638W        W99629  30.534   5.833   7.343  0.0418 -0.0894  0.1061
56639W        W99630   7.053   7.596   9.203 -0.0897 -0.5530 -0.0502
56640W        W99631   6.260  18.021   1.860  0.0074  0.0259 -0.0703
56641W        W99632  21.003   9.684  19.729  0.0634 -0.0543 -0.1044
56642W        W99633   9.984  12.205  21.964 -0.1625 -0.0432 -0.4579
56643W        W99634  33.833  25.799   1.474  0.2681 -0.2569  0.0501
56644W        W99635  28.569  29.936   4.377  0.1720 -0.0206 -0.0349
56645W        W99636   6.816  11.506  27.696 -0.1539 -0.0106 -0.0056
56646W        W99637   2.675  13.896   8.349 -0.2763  0.1058  0.1042
56647W        W99638  22.571  14.642  27.111 -0.2220 -0.0761  0.0012
56648W        W99639  32.442  11.648   2.093  0.0174  0.1090  0.3719
56649W        W99640  28.231   5.589  27.859 -0.0409  0.3737  0.3782
56650W        W99641  33.601   4.951  23.274 -0.3102  0.2013  0.1824
56651W        W99642  34.094  34.408   8.426 -0.1258 -0.0749  0.0821
56652W        W99643  21.357   7.264  23.378 -0.3048  0.1658 -0.3174
56653W        W99644   9.721   7.070   8.271  0.2200 -0.3216 -0.0230
56654W        W99645   0.218   1.922  27.279  0.1829  0.3063 -0.1484
56655W        W99646  34.462  21.072   9.605  0.2199  0.3135  0.0088
56656W        W99647  19.155   2.138  27.908 -0.3286  0.0848 -0.0226
56657W        W99648   7.730  26.414   4.053 -0.2336 -0.2571 -0.1461
56658W        W99649  26.218  33.943  16.517 -0.1881 -0.0350  0.3257
56659W        W99650  26.117   6.553  19.709  0.4033 -0.3523 -0.0232
56660W        W99651  27.601  27.787  15.226  0.2151 -0.1458 -0.0392
56661W        W99652   5.400  13.767  29.065  0.1817 -0.0720  0.1435
56662W        W99653  30.503  19.454  22.469  0.2157  0.1581 -0.1365
56663W        W99654  15.014  16.516   6.910  0.0726  0.0432 -0.0591
56664W        W99655  23.101   9.885  27.249 -0.0556 -0.2271 -0.0821
56665W        W99656   7.834   5.006   4.086 -0.0321 -0.0023  0.2271
56666W        W99657   5.661  24.528  22.454 -0.1210  0.0732 -0.1306
56667W        W99658  26.214   3.340   4.399  0.2305  0.0037 -0.0569
56668W        W99659  22.352   9.097   7.339 -0.2920 -0.2608 -0.0640
56669W        W99660  10.553   7.372  26.123 -0.0637  0.0644 -0.1808
56670W        W99661   3.582   9.898  11.160  0.1412 -0.0567 -0.2217
56671W        W99662  32.874  24.004  18.228 -0.0445  0.1489  0.5366
56672W        W99663  27.033   5.738   3.974 -0.0016  0.2553  0.3465
56673W        W99664   7.510   7.571   4.780 -0.2501 -0.1064 -0.0635
56674W        W99665   0.065  16.639  17.733 -0.1364 -0.2781 -0.3115
56675W        W99666   0.465  29.503  15.261 -0.2782  0.0281 -0.1567
56676W        W99667  23.426   0.448   1.651 -0.0388 -0.2783  0.0081
56677W        W99668  28.596  31.018  21.752  0.1468 -0.1246 -0.1485
56678W        W99669  33.626  33.681  22.964 -0.3116  0.0027 -0.0871
56679W        W99670  10.080  34.245  18.671  0.1860  0.0977 -0.2428
56680W        W99671   9.754   3.110   1.258 -0.0978  0.0694  0.1658
56681W        W99672   2.843  11.689  18.965  0.0305  0.3425 -0.3161
56682W        W99673  20.729  28.269   7.135 -0.0351  0.1261 -0.1221
56683W        W99674  29.811  12.497  26.642  0.1389 -0.1923  0.1334
56684W        W99675  11.379   7.521  27.697 -0.0818 -0.2239  0.1975
56685W        W99676  32.729   2.561  28.018  0.1903  0.0554 -0.0564
56686W        W99677   2.345  34.436   9.254 -0.0237  0.0243 -0.0121
56687W        W99678  30.455   3.734  17.436  0.0495 -0.4985  0.0357
56688W        W99679  33.875  11.909   0.408  0.3058  0.1148  0.0730
56689W        W99680   5.763  14.171   1.943  0.2840 -0.2741  0.0864
56690W        W99681  24.471   2.438   1.707 -0.1182 -0.0714 -0.2182
56691W        W99682   1.769   1.271   6.398 -0.2667  0.2164  0.0930
56692W        W99683  29.285  12.617  21.640 -0.0899  0.0536 -0.0473
56693W        W99684   3.206  27.133   9.271 -0.0067  0.0745  0.0371
56694W        W99685   3.116   5.325   1.963  0.0768  0.1028 -0.0736
56695W        W99686   3.152  14.454  28.375 -0.0978  0.1673  0.0850
56696W        W99687   3.188   7.357  23.413  0.0903 -0.1130 -0.0612
56697W        W99688  32.410  34.434  26.270  0.0757  0.2685  0.1140
56698W        W99689  22.322   5.484   0.610  0.0877 -0.0973  0.1253
56699W        W99690  26.362  10.050   1.603  0.2370 -0.1323  0.2833
56700W        W99691  10.565  33.150  21.354 -0.0554  0.2015  0.0252
56701W        W99692  30.079  17.172  22.584 -0.0935  0.3120 -0.0070
56702W        W99693  30.580  32.153  19.396 -0.2243 -0.2166 -0.3023
56703W        W99694  17.156  13.691  27.661 -0.0515  0.1336  0.1726
56704W        W99695   4.681   4.319   8.453  0.0737  0.2857 -0.0517
56705W        W99696  26.016  15.498  19.832 -0.3088 -0.0002 -0.1307
56706W        W99697  23.180   7.855   4.046 -0.0557  0.2892  0.0729
56707W        W99698  26.079  11.145  23.616  0.3009  0.1989 -0.2876
56708W        W99699   1.717  16.160   6.396 -0.1062  0.2931  0.0292
56709W        W99700  30.923  11.734   7.826 -0.1539  0.0372  0.0058
56710W        W99701   5.378  30.107  25.357  0.2655 -0.1168  0.1659
56711W        W99702  14.842  31.611   7.359  0.1002 -0.1530  0.0065
56712W        W99703  23.250  24.345  16.959  0.0105 -0.0978 -0.0498
56713W        W99704   8.136  34.169   0.677  0.0536  0.2238  0.0377
56714W        W99705  24.139  29.428   0.304 -0.1493 -0.2488  0.1033
56715W        W99706  25.821  15.307   8.796 -0.1921 -0.1784  0.2617
56716W        W99707   2.527   9.115   2.563 -0.0463 -0.5027  0.3698
56717W        W99708  32.735  34.000  28.114 -0.0926 -0.0690 -0.1236
56718W        W99709   5.136  10.072  21.931  0.2756 -0.2909 -0.1587
56719W        W99710  16.919  12.494  18.450 -0.4353  0.1948  0.0985
56720W        W99711  33.704   9.008   8.202 -0.2233 -0.1171  0.0489
56721W        W99712  29.252   6.648   9.542  0.0040  0.0201 -0.3021
56722W        W99713   4.622  32.985   6.670 -0.0164 -0.0099  0.1848
56723W        W99714  13.517  11.645  26.493  0.1029 -0.0982 -0.0720
56724W        W99715   3.132  11.139   7.986 -0.1145 -0.1642 -0.0296
56725W        W99716  11.649   7.398  28.102  0.0061  0.1934 -0.0687
56726W        W99717  34.225  19.904  25.443 -0.2814 -0.0689 -0.2210
56727W        W99718  18.328  12.524   7.500  0.0788  0.1305 -0.0923
56728W        W99719  12.410  18.066  14.248  0.1599  0.0799 -0.0391
56729W        W99720  28.779  21.887  16.989  0.1647  0.0091 -0.2615
56730W        W99721   0.556   3.614   2.614 -0.0540 -0.1046 -0.0499
56731W        W99722   3.479  29.200   5.844  0.0536  0.0259  0.1478
56732W        W99723  14.185   1.321   6.076 -0.1002  0.2787 -0.2673
56733W        W99724  17.328  10.160   0.747 -0.0654  0.0871 -0.3238
56734W        W99725  16.245  24.481   7.255  0.0196 -0.1817 -0.0594
56735W        W99726  22.697  31.739   8.801  0.1409 -0.0361  0.2356
56736W        W99727   6.144  34.017  22.562 -0.1062 -0.0632 -0.0310
56737W        W99728   5.332   0.407  25.394  0.1872  0.0631 -0.3400
56738W        W99729  22.548  10.863   2.148  0.2044 -0.0109  0.0587
56739W        W99730  34.618  33.248   2.643  0.0591 -0.0508  0.2679
56740W        W99731  23.469  26.331   4.008  0.3567 -0.3130  0.2037
56741W        W99732  33.318  22.648  14.772  0.1691 -0.3596  0.3323
56742W        W99733  29.985  17.248  10.447  0.2071 -0.1659  0.0420
56743W        W99734   2.128   5.261   3.746 -0.4356 -0.1300  0.4152
56744W        W99735   0.912  14.251   5.939 -0.4491  0.0353 -0.2213
56745W        W99736   5.362  33.257   9.399  0.1520 -0.0642  0.0860
56746W        W99737   6.379  34.593  24.650 -0.2862  0.2112 -0.3455
56747W        W99738   3.874  19.319  20.454  0.2970  0.1180 -0.1773
56748W        W99739  31.727  10.483  25.379  0.2859 -0.2213  0.1594
56749W        W99740  23.591   4.989  27.495  0.2739 -0.3395 -0.1749
56750W        W99741  32.448  29.292   7.174 -0.1656 -0.0404  0.0745
56751W        W99742   7.859  34.277   3.557  0.0023 -0.0197  0.0914
56752W        W99743  10.829  33.270  20.774  0.1049 -0.0384  0.0805
56753W        W99744   0.498   1.527   9.671  0.1211 -0.0316 -0.1502
56754W        W99745   3.816  19.392  27.968  0.3491 -0.1290 -0.0706
56755W        W99746  30.447   8.784  14.911  0.2496  0.0442  0.0603
56756W        W99747  29.808   3.668  27.476 -0.1927 -0.1673 -0.1934
56757W        W99748   7.829  13.255  28.484 -0.0491 -0.0199 -0.2201
56758W        W99749   4.022   3.760   6.298 -0.1027 -0.0088  0.3089
56759W        W99750  30.494   4.772  25.965  0.2050 -0.0243  0.0937
56760W        W99751  26.262  17.228  16.674 -0.2423 -0.0788 -0.0563
56761W        W99752  31.946   3.000  23.529  0.0057  0.0381  0.1081
56762W        W99753  31.638  31.554   0.104  0.1698 -0.0222 -0.0367
56763W        W99754   2.445  15.474   0.891  0.1385  0.0834  0.1772
56764W        W99755  33.650   1.460   5.936 -0.1043 -0.0663  0.0589
56765W        W99756   6.586  22.729  23.131  0.2012  0.2855  0.2222
56766W        W99757  30.418   2.659   5.236 -0.0438 -0.0708 -0.1107
56767W        W99758   8.259  21.256   1.729  0.0817 -0.1403  0.1386
56768W        W99759  13.737   5.711   3.911  0.2056 -0.3306  0.0767
56769W        W99760  24.494   7.211  14.283 -0.0514  0.0101 -0.0585
56770W        W99761   8.031  10.798  23.438 -0.1906 -0.1702 -0.0656
56771W        W99762  13.891  18.213   8.195  0.3629 -0.0244  0.2914
56772W        W99763   0.659  25.520   4.471  0.0199  0.0281  0.2042
56773W        W99764  22.524  10.552  29.226  0.1084  0.2108  0.0854
56774W        W99765   6.933  19.770  25.858  0.0408  0.0374  0.0674
56775W        W99766  33.967   1.376  10.027  0.4548  0.1936  0.1431
56776W        W99767  32.869  26.323  25.208  0.1536 -0.1654 -0.2651
56777W        W99768  34.668  26.893  25.035 -0.4043 -0.0044 -0.2042
56778W        W99769   3.532  12.413   5.496 -0.0738  0.0381 -0.5183
56779W        W99770  29.013   3.752  15.739 -0.2119 -0.1837  0.0403
56780W        W99771  32.723   3.041   2.461  0.0339 -0.1097  0.2743
56781W        W99772   5.506   9.575  10.339 -0.2615 -0.3449  0.0104
56782W        W99773  34.374  34.125  24.765  0.1899 -0.1990  0.4079
56783W        W99774   5.274   5.009  22.203 -0.0087 -0.0615  0.0415
56784W        W99775  18.320   8.176  24.268  0.1937  0.3797  0.1824
56785W        W99776   1.576   8.061   9.490  0.2004 -0.0382  0.3679
56786W        W99777  25.949  25.456  29.087 -0.2521 -0.0668  0.0359
56787W        W99778   6.259  33.267  19.556 -0.0979  0.1718 -0.1739
56788W        W99779  16.971  14.467   2.146 -0.1782 -0.0027  0.2477
56789W        W99780  27.848  33.304  27.856 -0.2108  0.0685 -0.3016
56790W        W99781   4.032   3.945  22.292 -0.0674  0.1027  0.0610
56791W        W99782  11.336  32.366   4.130  0.0927  0.0248  0.1019
56792W        W99783  23.702  28.561  23.484 -0.1751  0.1645  0.1031
56793W        W99784  22.198   9.146   6.836  0.2052  0.0555  0.1407
56794W        W99785  21.939   6.697  22.980  0.1102  0.0207  0.3920
56795W        W99786   3.272   7.567  11.387  0.2297 -0.1152  0.0128
56796W        W99787  22.972  11.910  28.375  0.0271  0.0546  0.2755
56797W        W99788   8.160  28.712   9.159  0.3567 -0.2923 -0.2804
56798W        W99789  26.085   6.585   1.973 -0.0516 -0.0967  0.0060
56799W        W99790  31.366   7.896  26.266 -0.0285  0.0233  0.1084
56800W        W99791   4.379  15.546   9.874 -0.0034 -0.0412 -0.0081
56801W        W99792  17.134   3.669  22.481  0.1850 -0.0521 -0.0636
56802W        W99793   1.248   6.696  28.667 -0.2030  0.2109 -0.1514
56803W        W99794  30.487  31.884   3.730 -0.1735  0.4573 -0.1620
56804W        W99795   7.480  28.523  16.088  0.2437  0.1464 -0.0525
56805W        W99796   3.052  11.404  25.081  0.0429 -0.1771 -0.2002
56806W        W99797  19.521   1.140  26.788 -0.0594  0.1754  0.1119
56807W        W99798   6.250  28.160  26.012 -0.1066 -0.2077  0.2465
56808W        W99799   2.555  32.172   0.457 -0.0665  0.0987 -0.3501
56809W        W99800  27.632   1.165  19.078 -0.2866 -0.3484  0.0472
56810W        W99801  29.437  21.242  15.024  0.1484  0.0228 -0.0711
56811W        W99802   9.861   3.046  29.133 -0.1058  0.0334  0.1659
56812W        W99803  30.759  12.891  10.410  0.0922  0.0946 -0.1821
56813W        W99804   2.477  21.970   8.653 -0.0616 -0.2594  0.0256
56814W        W99805  23.971   9.709   6.096 -0.0798  0.1456  0.1491
56815W        W99806   8.306   3.226   3.443 -0.0510  0.2243 -0.2031
56816W        W99807  15.389   5.441  18.230  0.1377  0.2587  0.3594
56817W        W99808  32.643  30.427   7.437  0.0315 -0.4118  0.3023
56818W        W99809  19.175   9.867   5.358  0.3035  0.1795 -0.3312
56819W        W99810   6.124   2.722  25.841 -0.1339 -0.0512  0.0282
56820W        W99811   6.169  33.320   6.394 -0.0453  0.0538 -0.0025
56821W        W99812  31.035  20.732   4.660 -0.0050  0.2173  0.0674
56822W        W99813   6.466  19.675  19.515 -0.1301 -0.0389 -0.1768
56823W        W99814  11.913  30.371   6.919 -0.0927 -0.1330  0.1548
56824W        W99815  25.413   4.143   2.810  0.2047  0.0809  0.1053
56825W        W99816  33.643  22.019   9.940  0.1301  0.1375 -0.0634
56826W        W99817  14.690  31.152   6.893 -0.0404  0.2878  0.2279
56827W        W99818  30.511   5.771  15.287  0.2460 -0.0984  0.1396
56828W        W99819   4.442   5.988   8.200 -0.0775 -0.0794 -0.3373
56829W        W99820  24.921   4.213  16.977 -0.2259  0.0084  0.0792
56830W        W99821   3.545  17.530  18.491 -0.0536 -0.2058  0.1851
56831W        W99822   8.088   6.275   6.033  0.0715 -0.0838 -0.1241
56832W        W99823   7.185   7.060  28.956  0.2510  0.0262  0.2136
56833W        W99824   4.374   0.767  10.162  0.0687 -0.1018 -0.1625
56834W        W99825  26.712  34.403  21.674 -0.2293 -0.0608  0.2515
56835W        W99826  13.767  10.729  24.168 -0.2661 -0.2311  0.0413
56836W        W99827  26.148   9.036   7.373  0.1246  0.4541  0.0210
56837W        W99828  21.763   1.351  20.524 -0.1833 -0.1486 -0.1760
56838W        W99829  27.343   6.718  21.338  0.0051 -0.0330  0.2118
56839W        W99830   0.910   7.653   7.161  0.0947  0.1338  0.1843
56840W        W99831  13.541  14.803  21.909 -0.1262 -0.0143  0.1792
56841W        W99832  32.314   5.424  24.289  0.1971  0.2008 -0.0824
56842W        W99833  20.037   2.199  24.142 -0.1375 -0.0899 -0.2874
56843W        W99834  30.984  18.763   5.565 -0.1012  0.1283  0.0119
56844W        W99835  13.509   5.597   6.886  0.1132 -0.2395  0.0574
56845W        W99836   1.454  28.824   8.760  0.0433 -0.2899 -0.1353
56846W        W99837  10.911   7.618  28.537  0.0572 -0.1388  0.2686
56847W        W99838   1.730  31.549  23.082  0.0866  0.2448  0.0558
56848W        W99839  24.188  24.098   0.276  0.3672  0.1845 -0.1109
56849W        W99840   3.619   3.317  17.109  0.0650 -0.0359 -0.0165
56850W        W99841  26.072   8.907   3.855  0.1355 -0.0189 -0.2347
56851W        W99842  21.461  34.539   3.752  0.0193  0.0514 -0.0955
56852W        W99843  11.648  26.080  20.860 -0.2174 -0.2576  0.0035
56853W        W99844  18.606  19.762   2.748 -0.0113  0.0948 -0.0218
56854W        W99845  31.601  12.434  28.999 -0.0575 -0.0509 -0.0947
56855W        W99846  16.706   7.910  27.525 -0.1501 -0.2577 -0.1600
56856W        W99847  30.697  12.105   8.778  0.1014  0.2658 -0.1219
56857W        W99848  11.018  31.263  27.889  0.0875 -0.0369  0.1223
56858W        W99849  28.689   3.877   3.821  0.3403 -0.0869 -0.1145
56859W        W99850  20.130  33.653  23.510 -0.1314  0.1958  0.4400
56860W        W99851  28.824  28.991  17.825  0.0528  0.0197  0.0388
56861W        W99852  33.194  11.933  23.633 -0.2028 -0.1082 -0.4001
56862W        W99853  25.234  17.457  29.225 -0.0945  0.0851  0.1201
56863W        W99854  32.584  11.904   9.351  0.0265  0.0136 -0.1465
56864W        W99855  32.359  29.454   5.492  0.0037  0.1891 -0.1003
56865W        W99856  24.072   0.576   6.585 -0.3875  0.0250 -0.1438
56866W        W99857   1.818   7.712   9.176  0.2684  0.1337 -0.3545
56867W        W99858  33.976   2.993  17.803 -0.0663 -0.1611 -0.0070
56868W        W99859   0.918   5.013  27.804 -0.0726 -0.0658  0.1662
56869W        W99860   5.383  28.576   5.055 -0.0111 -0.1572  0.0122
56870W        W99861  34.253  28.120  27.406 -0.1038 -0.1716  0.1742
56871W        W99862   5.833   9.980   3.812  0.2544  0.1786 -0.3756
56872W        W99863  31.988   3.483   8.363  0.0261  0.1058  0.0766
56873W        W99864  32.810   8.073  24.211 -0.3600 -0.2673 -0.0173
56874W        W99865  26.136   7.908   8.053 -0.0174  0.3415  0.2094
56875W        W99866  28.757  28.489  26.902 -0.0386  0.0093 -0.1529
56876W        W99867  32.274  27.667  26.392  0.2389 -0.1161 -0.2041
56877W        W99868  23.331  32.208   5.631  0.0080  0.4295  0.3854
56878W        W99869   5.599   9.410   2.697 -0.1182 -0.1965  0.2279
56879W        W99870  11.456  20.347  15.380 -0.0890 -0.1760 -0.5491
56880W        W99871  22.418  32.853   3.642  0.0590 -0.0210  0.1887
56881W        W99872   7.402   1.051   3.951 -0.2058  0.1244 -0.1633
56882W        W99873   3.725  27.282  27.209 -0.0508  0.0810  0.2335
56883W        W99874   0.673  10.694   3.206 -0.0835  0.3022  0.0320
56884W        W99875   6.556   3.080   4.691 -0.1089 -0.2784  0.0591
56885W        W99876  13.725  34.429  20.854 -0.2450 -0.1369 -0.2645
56886W        W99877   2.660   9.831  23.860 -0.0289  0.0050  0.1668
56887W        W99878  10.913  15.900  29.227  0.1756 -0.1328  0.2966
56888W        W99879   1.906   0.973   8.151 -0.1243 -0.0738  0.1367
56889W        W99880   3.496  24.299  28.062  0.0685 -0.0432 -0.1084
56890W        W99881  21.544   7.715  23.999 -0.0364 -0.2247  0.0934
56891W        W99882  21.850  25.620   4.276  0.2450  0.2770 -0.1151
56892W        W99883   6.702  10.879   3.867  0.0764 -0.0434 -0.0802
56893W        W99884   7.909  26.657   7.177 -0.0622  0.0062  0.1758
56894W        W99885  13.786  12.516  28.550 -0.2673 -0.1559  0.0858
56895W        W99886  33.897  19.084   0.729 -0.0460 -0.0745 -0.1343
56896W        W99887   5.597  32.368  22.773  0.2842 -0.1233  0.0154
56897W        W99888  25.722  33.855  28.151 -0.0843 -0.1128 -0.1415
56898W        W99889  22.129   7.276  14.192  0.1956  0.0997  0.3494
56899W        W99890  29.015  30.553  26.495 -0.0579 -0.1698  0.2894
56900W        W99891   3.740   7.002  26.842 -0.0708  0.0642  0.1132
56901W        W99892  22.800  31.045   7.073  0.0847 -0.2291 -0.0769
56902W        W99893   0.572  32.549  28.542  0.3593  0.0146  0.2848
56903W        W99894   8.324   2.716   4.538 -0.0991  0.1227 -0.0893
56904W        W99895   0.164   9.982   5.729  0.2248  0.0089  0.1900
56905W        W99896  14.957  27.930   7.015  0.0797 -0.1687  0.1170
56906W        W99897   3.069  22.631   8.456 -0.1174 -0.3285 -0.1126
56907W        W99898  10.964  17.166   0.743 -0.1005  0.0867 -0.0939
56908W        W99899  34.065   5.662  29.205 -0.1099 -0.2566 -0.2569
56909W        W99900   0.869   6.927  20.576  0.0662 -0.1024 -0.0607
56910W        W99901  33.381  32.580   5.079  0.0142  0.1213  0.1520
56911W        W99902  11.989   7.116  24.127  0.2798 -0.3406  0.0655
56912W        W99903   1.321   0.734   1.600 -0.3241 -0.0485  0.0989
56913W        W99904  25.900   7.477   2.006  0.4044  0.3071  0.1111
56914W        W99905   4.542  33.750   1.702 -0.2846 -0.2337  0.0436
56915W        W99906  33.276   6.368   1.358 -0.0574 -0.0411 -0.0788
56916W        W99907   1.303  34.367  26.306  0.1337  0.1164 -0.0888
56917W        W99908  14.747  15.806  25.519 -0.2686 -0.0637 -0.0494
56918W        W99909  23.988  26.051   2.099 -0.0843 -0.1583  0.3582
56919W        W99910  33.176  17.995  23.002 -0.0011 -0.0833  0.0975
56920W        W99911  31.090  13.917  22.851 -0.2208 -0.1149 -0.0247
56921W        W99912  26.694   7.491   0.084  0.1103 -0.3008 -0.2055
56922W        W99913  28.381  34.578  29.087 -0.0097 -0.1811  0.0924
56923W        W99914  14.770  10.827  25.844  0.2697 -0.0951  0.0858
56924W        W99915  15.036   6.681  17.899  0.1553  0.1288  0.3242
56925W        W99916   6.605   0.639   8.903 -0.1406 -0.1715  0.0792
56926W        W99917  18.835  17.851  13.951  0.0743  0.3608  0.1558
56927W        W99918   2.462  15.842  28.503  0.0488  0.0611 -0.0666
56928W        W99919   4.516  28.937  20.642  0.1049 -0.0882 -0.2434
56929W        W99920  18.839  34.172   4.218  0.0484  0.0716 -0.0361
56930W        W99921  16.808  14.414   6.357 -0.2662 -0.0629 -0.2973
56931W        W99922  29.795  29.034   7.724 -0.3254 -0.1679  0.0193
56932W        W99923   1.567   0.823  26.879  0.1208 -0.2632  0.0938
56933W        W99924  13.534   2.611   1.814  0.2662  0.0803 -0.0401
56934W        W99925  16.910  28.566   3.311  0.1018 -0.0679 -0.2927
56935W        W99926  31.421  11.723   5.741 -0.0887  0.1942  0.0017
56936W        W99927  32.835   4.081   9.980 -0.2819 -0.1593 -0.0271
56937W        W99928   0.609   6.591   6.607 -0.0864  0.0344 -0.2846
56938W        W99929   2.844  33.697   7.578 -0.2336  0.0305  0.1980
56939W        W99930  29.350   6.286   5.950  0.0260  0.1031 -0.4476
56940W        W99931  16.351   6.476   2.278 -0.1979  0.4587 -0.1408
56941W        W99932  31.871  28.986   3.802 -0.0045 -0.0906 -0.3479
56942W        W99933  31.155   1.827  20.336  0.0551 -0.1137 -0.2761
56943W        W99934   9.821  26.507  23.324  0.0718  0.1751  0.1202
56944W        W99935  28.931   9.099   0.334 -0.2055  0.1533  0.1155
56945W        W99936  34.211  21.467   7.522 -0.1746 -0.2237 -0.1331
56946W        W99937   7.924  12.471  26.152 -0.1421  0.1856  0.2201
56947W        W99938  24.051  25.897   5.302  0.0092 -0.1417  0.1740
56948W        W99939  18.002  34.627  24.850 -0.2669 -0.2777 -0.1430
56949W        W99940   4.054   0.177   4.445 -0.0981  0.1526  0.3828
56950W        W99941  27.027   4.252  27.232 -0.2775 -0.1950 -0.1561
56951W        W99942  10.824   4.375  27.713 -0.1980 -0.2460  0.1101
56952W        W99943  19.866  11.539  28.027 -0.0992 -0.0937 -0.0300
56953W        W99944  13.165   1.630   1.587 -0.1134  0.2626 -0.1766
56954W        W99945   7.821   7.884   3.066 -0.3410 -0.0395  0.0084
56955W        W99946   1.271  28.015   6.980  0.1122  0.1000 -0.2812
56956W        W99947   6.521  32.370   7.914 -0.1142 -0.2577  0.2239
56957W        W99948   1.615  17.094   7.395 -0.1566 -0.4348  0.2044
56958W        W99949  10.677  34.044  20.695 -0.0300  0.0636  0.2163
56959W        W99950   9.368  34.717   3.483 -0.1987  0.0716  0.2390
56960W        W99951  10.502   4.618   8.006  0.0827 -0.0354  0.1363
56961W        W99952  27.719  15.626  25.710  0.1418  0.0260 -0.0698
56962W        W99953  30.754   3.803   6.981 -0.1184 -0.0771  0.0911
56963W        W99954   3.326   8.182   5.885  0.4997  0.0561  0.2819
56964W        W99955   9.261   8.122   1.013 -0.3238 -0.4309  0.2101
56965W        W99956  31.155  16.824   1.958  0.0911  0.0068  0.1452
56966W        W99957  24.646   9.418  18.762  0.4884 -0.0243  0.0192
56967W        W99958  26.010  24.345  21.765  0.0383 -0.4264  0.2375
56968W        W99959  14.243   3.562   6.200 -0.2296 -0.1815 -0.0360
56969W        W99960   5.207   3.967   7.699  0.2124 -0.0934 -0.0615
56970W        W99961  31.994   2.349  25.623  0.0825 -0.0428  0.0240
56971W        W99962  31.600  12.386  27.998  0.0445  0.0354  0.0622
56972W        W99963  29.018   3.969   4.749 -0.0377  0.1461  0.2061
56973W        W99964  15.584  21.317  24.796 -0.0587  0.0289 -0.0901
56974W        W99965   8.287  32.923   4.354  0.0047 -0.1233 -0.0002
56975W        W99966   1.813  28.948  21.853  0.1822 -0.2039  0.2216
56976W        W99967  11.996   1.211   7.704 -0.0766 -0.1458 -0.2866
56977W        W99968   0.165   8.103   6.757 -0.0188  0.3313 -0.1881
56978W        W99969  12.968  34.235   6.610  0.2464  0.0478  0.0052
56979W        W99970  27.823  27.462  19.952 -0.1586  0.1362  0.2329
56980W        W99971  13.467  31.493   2.560 -0.2406 -0.0087  0.1378
56981W        W99972  28.676   5.070   3.671  0.0809 -0.1888  0.0756
56982W        W99973  17.505   1.901   3.513 -0.1137  0.0571  0.0477
56983W        W99974   9.024  17.372   4.516 -0.2044 -0.2738 -0.1628
56984W        W99975  10.816   2.027  21.076  0.2106 -0.1140 -0.2001
56985W        W99976  24.729   5.083  26.730  0.0723  0.0815 -0.0865
56986W        W99977   0.941   1.190  22.905 -0.1332 -0.2021  0.0662
56987W        W99978  15.182   9.309   6.078  0.1735 -0.0935 -0.0494
56988W        W99979  27.097  17.315  16.973  0.0156 -0.2033 -0.1456
56989W        W99980   6.273  31.891   2.489 -0.0409 -0.2325  0.1007
56990W        W99981  28.710  12.654   4.800 -0.1733 -0.1321 -0.0530
56991W        W99982  13.767  14.245   9.308 -0.0130 -0.1187 -0.0656
56992W        W99983   2.748   7.587  23.439 -0.1284 -0.0960  0.0110
56993W        W99984  10.617  24.674   6.819 -0.1822 -0.1351  0.2110
56994W        W99985  33.812  19.717  24.842  0.4131 -0.0645  0.1693
56995W        W99986   4.388  15.102   5.645 -0.2736 -0.0184 -0.1203
56996W        W99987  15.452  11.417   2.189 -0.0402  0.0698 -0.0435
56997W        W99988  18.310  15.448  12.836 -0.3713  0.0304 -0.2269
56998W        W99989  33.668   0.193  18.762  0.1637  0.2017 -0.1933
56999W        W99990  13.682   7.295  10.033  0.3558 -0.1024 -0.2531
57000W        W99991   9.077   4.144   9.045  0.1327 -0.0080  0.1436
57001W        W99992   6.257  14.372   4.965 -0.0250 -0.3372 -0.1181
57002W        W99993  33.426  34.082  28.523  0.1602 -0.0259 -0.4097
57003W        W99994  19.970  29.433   3.504  0.4394  0.0877 -0.0486
57004W        W99995   2.285   1.769  27.964  0.0058  0.3391  0.0594
57005W        W99996   2.467   9.652  25.944  0.0502  0.3825  0.0618
57006W        W99997   1.387   1.927  10.484  0.1346 -0.0411  0.1258
57007W        W99998  15.194  26.597   2.737 -0.0842 -0.1619 -0.1455
57008W        W99999  11.811  28.076   0.376  0.1130  0.0995  0.0263
57009W        W    0  24.695   3.694   4.907 -0.1150 -0.3760 -0.2976
57010W        W    1   6.984   9.074  22.279  0.2484 -0.1294 -0.1473
57011W        W    2  34.502   8.410  25.041 -0.2968 -0.1518 -0.0000
57012W        W    3   2.736  11.774  21.732 -0.1543  0.3412 -0.1103
57013W        W    4  29.996   6.671   8.463  0.0073 -0.0327  0.1526
57014W        W    5  17.875  32.095   0.971 -0.1173  0.2854  0.0298
57015W        W    6  15.059   8.043  27.358  0.0106  0.1734  0.2106
57016W        W    7  15.458  31.081   2.497 -0.4346  0.1216 -0.0729
57017W        W    8  14.334   4.362   3.357 -0.1200 -0.0617  0.1672
57018W        W    9   8.799  34.724   1.899  0.0191 -0.0681  0.3505
57019W        W   10   8.545  31.234   9.199 -0.3785  0.2263 -0.2220
57020W        W   11  12.835  34.097  28.882 -0.0188 -0.0353  0.1086
57021W        W   12  26.948   9.082   8.805  0.2343 -0.2545  0.2345
57022W        W   13  23.342   5.202   1.325  0.0260  0.0669  0.0677
57023W        W   14  33.240  10.669   3.562 -0.1217 -0.0067  0.2770
57024W        W   15  29.874   0.771   5.946  0.4932  0.1609  0.1413
57025W        W   16  31.510  20.958   9.975  0.0806  0.0296 -0.0208
57026W        W   17  15.239   7.762   1.190  0.1733 -0.2037  0.0853
57027W        W   18  14.033   3.795   5.357 -0.1217  0.0223  0.2351
57028W        W   19  24.664  24.289   2.455 -0.1553 -0.0431 -0.1127
57029W        W   20  21.645   3.410  19.721  0.0725 -0.0108  0.1434
57030W        W   21  30.468  23.694  28.209  0.3734  0.1955  0.0232
57031W        W   22  12.350   5.680  15.100 -0.1222  0.3084 -0.4274
57032W        W   23   6.966   5.498   5.175  0.0998  0.1162 -0.2002
57033W        W   24  11.313  16.050  26.226  0.1261 -0.2229  0.0652
57034W        W   25   2.611  23.370  28.676  0.2707 -0.1718 -0.1664
57035W        W   26  27.951  25.769  26.945 -0.2466  0.0774  0.0875
57036W        W   27  16.957   1.851   2.894 -0.0119  0.2630  0.1883
57037W        W   28  33.877  32.280   6.533 -0.1808 -0.0940  0.0442
57038W        W   29  26.877  30.801   6.604 -0.1364 -0.2497  0.0109
57039W        W   30   3.525  10.177  29.016 -0.1562  0.0131 -0.0487
57040W        W   31  16.614  33.955  28.620 -0.0356 -0.1035 -0.1124
57041W        W   32   2.119   1.256  25.958  0.1894 -0.0124 -0.0214
57042W        W   33  25.810   9.180  15.413  0.1330 -0.3663  0.1989
57043W        W   34   5.069  10.417   9.997  0.0627  0.0405  0.0049
57044W        W   35   9.474  10.399  23.039 -0.1287 -0.0034  0.3030
57045W        W   36  27.543  12.750  21.859  0.2293 -0.1019 -0.0389
57046W        W   37   8.562   1.778   4.562  0.0257  0.1986  0.0375
57047W        W   38   5.761   3.355  29.235  0.0692 -0.0826 -0.2684
57048W        W   39   9.943   4.540   4.657  0.1385 -0.0771 -0.1757
57049W        W   40  31.322  14.029   6.849  0.3760  0.0732 -0.1535
57050W        W   41   4.517  32.087   4.105  0.2927  0.2534 -0.0195
57051W        W   42  10.025  11.242   7.678  0.0458 -0.2126  0.0056
57052W        W   43   6.844  16.221  26.608  0.3130 -0.2809 -0.2016
57053W        W   44  23.639   3.874   8.209  0.1683 -0.1004  0.4047
57054W        W   45   1.722  32.279  10.058 -0.0049  0.2509  0.1392
57055W        W   46  23.405  13.776   5.815 -0.3240 -0.2794  0.1496
57056W        W   47   1.148   4.251  16.555 -0.2478 -0.0968 -0.0554
57057W        W   48   0.286  17.337  24.971 -0.1238  0.0535 -0.0021
57058W        W   49  23.390   1.211  26.200 -0.1314  0.1408 -0.2622
57059W        W   50   5.959   6.666  10.114 -0.3054 -0.0301  0.1499
57060W        W   51  26.659  11.841   9.594  0.0940 -0.0889 -0.0618
57061W        W   52  28.185  17.823  15.157 -0.0631  0.0331  0.1725
57062W        W   53   3.751   7.339   0.725 -0.1105  0.0921 -0.2555
57063W        W   54  12.332   0.643  26.137  0.1407 -0.2462  0.1307
57064W        W   55  20.199  12.685  23.499 -0.1906 -0.0749  0.0182
57065W        W   56  32.335  34.535   8.925  0.0526 -0.3624 -0.1062
57066W        W   57   3.322   9.794   9.701  0.1444  0.1990 -0.3818
57067W        W   58   3.524   0.562   3.832  0.0712  0.1309 -0.1420
57068W        W   59   4.653  32.025  26.851 -0.1028 -0.2116  0.1577
57069W        W   60   0.518  23.719   3.087  0.2121  0.1587 -0.1027
57070W        W   61  28.246   8.885  16.566 -0.3160 -0.1467 -0.1335
57071W        W   62  23.493   9.239  26.860 -0.0401  0.0350 -0.0133
57072W        W   63   9.732   4.068  27.698 -0.1183  0.2511  0.0285
57073W        W   64  18.207  32.705   0.254  0.2430 -0.1946 -0.2325
57074W        W   65   9.765   8.316   1.128 -0.1392 -0.3069 -0.2377
57075W        W   66  21.301   4.637  27.549  0.3241 -0.1724 -0.1831
57076W        W   67  10.302  32.984   5.753 -0.2859  0.1569  0.1052
57077W        W   68   0.313   4.936  22.952  0.1688  0.1790 -0.3555
57078W        W   69   6.753  34.660   1.404  0.0276  0.1381  0.1542
57079W        W   70  20.217   0.475   0.174 -0.0672  0.1806 -0.0685
57080W        W   71   6.895  29.982  18.896 -0.3129  0.0129 -0.0214
57081W        W   72  31.971  22.665  18.105 -0.2478  0.0328  0.1169
57082W        W   73  24.064  33.939   0.391 -0.0930 -0.1340 -0.1654
57083W        W   74  27.351  29.000  23.960 -0.1910 -0.0511  0.3397
57084W        W   75  27.029  29.388   1.424  0.2103  0.0270 -0.1505
57085W        W   76   0.382  25.273  27.694 -0.1681 -0.1434 -0.0962
57086W        W   77  24.960  13.278   1.910  0.0793 -0.4143  0.1102
57087W        W   78   2.233   6.630  28.719 -0.1634  0.5379 -0.4182
57088W        W   79   2.080  19.416   4.488  0.2276 -0.2238  0.1143
57089W        W   80   4.835  28.555   4.254 -0.0301 -0.1525  0.0920
57090W        W   81   8.903   5.680  10.543 -0.0151 -0.3943 -0.0703
57091W        W   82  33.254  33.690   5.345  0.1036  0.1361 -0.1320
57092W        W   83   2.925   0.194   6.095 -0.0202 -0.1127 -0.0053
57093W        W   84  31.396   3.381  10.208 -0.0481  0.0724  0.0188
57094W        W   85   7.205  12.946   3.759 -0.3970  0.1766 -0.0943
57095W        W   86  27.307   1.941  29.052 -0.0009 -0.5070  0.1335
57096W        W   87  27.343  32.765  26.649  0.1992 -0.0750 -0.0047
57097W        W   88  13.200   4.467   7.510 -0.1031 -0.1907  0.0354
57098W        W   89  24.809   5.062   3.945 -0.4242  0.0907 -0.0163
57099W        W   90  17.159   4.184   8.838  0.1342 -0.0019 -0.1396
57100W        W   91  13.321  32.998   7.684 -0.1338  0.2942  0.1661
57101W        W   92  12.475   3.559   6.364  0.1236  0.4182 -0.3865
57102W        W   93  21.605  23.070   4.138 -0.0436 -0.0200  0.1631
57103W        W   94   0.329  30.296   9.821  0.0220 -0.1869  0.0788
57104W        W   95  19.056   2.346  27.386  0.2401  0.0314 -0.0722
57105W        W   96   2.306  32.082  10.543 -0.1997  0.0642  0.1444
57106W        W   97  23.234  19.779   1.934  0.2017 -0.1536 -0.0281
57107W        W   98  17.493   5.406   3.571 -0.0857  0.2503 -0.2255
57108W        W   99  11.119  31.626   8.953 -0.2316 -0.0415  0.1227
57109W        W  100  13.339   0.802   5.017  0.3068 -0.2950 -0.1369
57110W        W  101  15.340  12.403   0.060 -0.0175 -0.1267  0.1737
57111W        W  102  27.732  15.047   6.243  0.1178  0.0224 -0.0738
57112W        W  103   2.332  10.654   5.778 -0.0089  0.0449 -0.0863
57113W        W  104  27.168   2.791   2.517 -0.0285 -0.1984 -0.1830
57114W        W  105  13.198   5.566   7.414 -0.1515  0.0825  0.0417
57115W        W  106  24.237  11.030   5.108 -0.2606  0.0127 -0.2380
57116W        W  107  32.830  14.978  21.642 -0.0729  0.2281  0.2026
57117W        W  108  27.253  22.262  19.199  0.3546 -0.1025 -0.1657
57118W        W  109  15.210   7.968   6.539 -0.3387 -0.3443  0.0470
57119W        W  110  22.146  23.660   0.534  0.0545  0.0021 -0.0725
57120W        W  111  31.871   4.828  18.319 -0.0534 -0.1753  0.0479
57121W        W  112   3.370   8.375   3.842  0.1573  0.3064 -0.1653
57122W        W  113  26.445   6.574   3.874  0.2719 -0.0445 -0.3044
57123W        W  114  32.028   8.972   6.453  0.3828 -0.2016 -0.1660
57124W        W  115  26.194  15.126   9.418  0.1220  0.0953  0.0200
57125W        W  116   1.475   1.122   3.616  0.0632  0.4350 -0.2959
57126W        W  117   8.223   8.348   0.371 -0.0484 -0.5474  0.0551
57127W        W  118  23.049  18.600   4.745  0.1658  0.1353  0.0698
57128W        W  119   5.448   0.923  24.663  0.1010  0.2468 -0.0960
57129W        W  120  16.537   9.421  22.647  0.0134 -0.1067  0.2355
57130W        W  121  17.016  34.024  27.502  0.0366 -0.0155 -0.2706
57131W        W  122   1.621  14.744   6.831 -0.0826  0.0513  0.2885
57132W        W  123  32.377  10.295  25.277 -0.0424  0.0790  0.2358
57133W        W  124  29.549  16.113  28.722  0.1784 -0.1080 -0.0588
57134W        W  125   2.632  12.266   9.684 -0.2127  0.2767  0.0516
57135W        W  126  18.848   6.393  14.690 -0.1164 -0.0219  0.2413
57136W        W  127   3.728  30.472   8.552 -0.1121 -0.0709 -0.0059
57137W        W  128  23.334   1.932   3.464  0.0034  0.4316  0.1836
57138W        W  129  24.806  15.683   7.802 -0.1054  0.0579  0.0039
57139W        W  130  23.791  28.731  26.453 -0.0754  0.4533 -0.0026
57140W        W  131  34.563  17.306   7.633 -0.0603 -0.1489  0.4023
57141W        W  132  17.325  14.271  26.439 -0.2092  0.4228 -0.0411
57142W        W  133  27.089  20.993   8.091  0.0258  0.2416 -0.2033
57143W        W  134   4.673  10.117   9.325 -0.1083 -0.1301 -0.3382
57144W        W  135  29.762   6.687   3.269 -0.0760  0.3085 -0.0085
57145W        W  136  26.352   6.641  26.874 -0.0356 -0.2836  0.0854
57146W        W  137   3.021   9.780  25.819  0.0867 -0.0062  0.1699
57147W        W  138  11.602  29.650   7.948 -0.2934  0.1546  0.0199
57148W        W  139  10.155  15.421   5.325 -0.5120 -0.0349 -0.2102
57149W        W  140   6.100  16.514   6.001  0.2514 -0.0256  0.0960
57150W        W  141  12.634   5.574  29.003 -0.0494 -0.4616 -0.1445
57151W        W  142  21.426  10.135  17.175 -0.1424  0.0149  0.0019
57152W        W  143   3.477  12.542   1.518 -0.0114  0.1658 -0.1142
57153W        W  144   0.969   4.304   4.039 -0.0119  0.2483 -0.0841
57154W        W  145   5.778   3.897   0.955  0.1570 -0.0835 -0.2866
57155W        W  146   1.671  20.608  23.833 -0.4585 -0.1786 -0.0711
57156W        W  147  29.547   3.975  20.950  0.1162  0.0859  0.0820
57157W        W  148   7.711  30.239  28.027 -0.2051 -0.2155 -0.0550
57158W        W  149  14.099  22.939   9.185  0.2523  0.0847  0.2383
57159W        W  150  10.397  34.798   3.142 -0.1276 -0.0569 -0.0132
57160W        W  151  33.524  20.942   1.713  0.2003 -0.0705 -0.2219
57161W        W  152  25.108  32.686   6.385 -0.2337  0.0269 -0.1379
57162W        W  153  34.716  15.656   8.259  0.1196 -0.0084 -0.2254
57163W        W  154  25.865   8.969  28.458 -0.1589 -0.0172 -0.0020
57164W        W  155   9.331  17.100  26.002 -0.0088 -0.1379 -0.1881
57165W        W  156  24.591  10.502  10.317 -0.1273 -0.3262  0.0617
57166W        W  157   2.845  14.071   2.541 -0.1503 -0.1154 -0.0193
57167W        W  158  33.972   4.332   8.162  0.0334 -0.2820  0.0906
57168W        W  159  20.146  33.816   1.895  0.0184  0.2080  0.4736
57169W        W  160  16.867   9.258   4.367 -0.0194 -0.2936 -0.0883
57170W        W  161   0.657  14.587  17.240  0.0696  0.3885  0.1902
57171W        W  162   7.841  15.742   7.068 -0.3570  0.0083  0.0257
57172W        W  163   7.396   0.728   8.294 -0.0261 -0.0385 -0.0294
57173W        W  164   9.119  34.052  27.077 -0.3450  0.0957  0.1566
57174W        W  165  27.576   4.845   8.300  0.1095 -0.1002 -0.2231
57175W        W  166  34.085   8.806  14.514  0.1444 -0.0807 -0.1651
57176W        W  167  16.128  12.000  28.289  0.0593 -0.0578  0.2899
57177W        W  168  31.101  13.278  11.794  0.1034  0.1202  0.1276
57178W        W  169  16.950  34.270   8.053 -0.1048 -0.0069  0.0305
57179W        W  170  28.488  33.062   3.197 -0.0346 -0.0510 -0.1454
57180W        W  171   9.610  31.059   6.108 -0.0640  0.1127  0.1657
57181W        W  172  10.315  13.874  21.094  0.3368  0.0352  0.0532
57182W        W  173  15.730  19.930  19.866  0.0289 -0.0334  0.0832
57183W        W  174  12.540   2.818   2.463 -0.0846 -0.2288  0.0311
57184W        W  175   2.661  13.507  11.211  0.1202  0.3471 -0.1339
57185W        W  176  32.343  31.964  18.789 -0.1207 -0.3590 -0.1725
57186W        W  177  27.934   5.348   8.465  0.1414  0.2845  0.1054
57187W        W  178   7.850  33.940   7.095 -0.0188 -0.0191  0.2434
57188W        W  179   0.427   9.059  26.570  0.3640 -0.0595 -0.1228
57189W        W  180   5.694   8.626   4.583 -0.0237 -0.1497 -0.0742
57190W        W  181   4.886  25.689  19.325 -0.2230 -0.0094 -0.1394
57191W        W  182  30.898  10.675   1.463  0.0390 -0.0893 -0.0939
57192W        W  183   1.811  25.702   3.962  0.1305 -0.0337  0.3316
57193W        W  184   6.051   0.589   0.896  0.0458 -0.2078  0.1755
57194W        W  185  28.715  11.491  21.610 -0.2913 -0.1081 -0.2061
57195W        W  186   0.061   1.555   9.477  0.2075  0.2211  0.1224
57196W        W  187  34.008   1.665   2.247  0.0776  0.0424 -0.2132
57197W        W  188   4.871   2.801   9.694 -0.0532  0.0528  0.0510
57198W        W  189  32.984   3.230   1.903 -0.0550 -0.0538  0.0671
57199W        W  190   3.418   9.878  10.258  0.3580 -0.2366 -0.1301
57200W        W  191   6.724   3.737  21.692  0.1567  0.1022 -0.1120
57201W        W  192   6.607   7.354   7.827 -0.2605 -0.1287 -0.1845
57202W        W  193  28.847   4.933  22.041  0.1542  0.0924  0.0591
57203W        W  194  18.833   1.150  26.450 -0.1761  0.0721 -0.2476
57204W        W  195   5.317  19.227   0.348 -0.0255  0.1205 -0.1575
57205W        W  196  27.717   5.517  28.906 -0.0606 -0.0425  0.1821
57206W        W  197  24.185   7.980   4.102  0.3371 -0.0498  0.1223
57207W        W  198  30.729   1.463  15.679 -0.0054 -0.0526 -0.0198
57208W        W  199   3.539  30.256  28.708  0.1841  0.0192  0.2526
57209W        W  200  19.150   8.426  15.686 -0.1058 -0.1692 -0.4071
57210W        W  201   0.567   2.769   1.432 -0.0698 -0.1761  0.2343
57211W        W  202   1.436  30.106  24.907 -0.0218  0.1701 -0.0397
57212W        W  203  27.462   3.475   4.269 -0.2114  0.1892 -0.2108
57213W        W  204  30.215  32.975   6.254  0.3074  0.0348  0.0145
57214W        W  205  18.828  23.512   8.613 -0.0506 -0.2062 -0.0069
57215W        W  206   2.279   5.670   5.389  0.0437 -0.1703  0.0613
57216W        W  207   4.474   5.048   8.537 -0.2757  0.1385  0.1934
57217W        W  208  18.590  32.851  17.937  0.0810  0.1336 -0.1120
57218W        W  209  33.800  13.725   5.386  0.0695 -0.2565 -0.1947
57219W        W  210  21.694   4.838   2.045  0.2491  0.1234  0.0141
57220W        W  211  30.538  29.838   6.077  0.1346 -0.1316  0.1231
57221W        W  212  31.584   4.867   9.554  0.0299 -0.3546 -0.1544
57222W        W  213   8.212  19.013  10.971 -0.0396 -0.2204 -0.0018
57223W        W  214  13.027   9.634   3.478  0.0812  0.1016  0.1918
57224W        W  215   6.549  18.790  11.406  0.1393 -0.1126 -0.1555
57225W        W  216   8.138   9.882  23.885  0.1395 -0.0924  0.2000
57226W        W  217   5.794   5.793  27.477 -0.2101  0.1203 -0.0096
57227W        W  218  12.271  34.738  28.830 -0.0861  0.1725 -0.1117
57228W        W  219  28.897   1.175  24.628 -0.0438 -0.0196 -0.0855
57229W        W  220   5.512  25.320  14.382 -0.1755 -0.1123 -0.1793
57230W        W  221  33.729  11.177   8.674 -0.0194 -0.1392  0.1913
57231W        W  222   9.811   4.441  28.610 -0.1566 -0.2120  0.0580
57232W        W  223  33.180   9.229   7.461 -0.2967  0.2475  0.0958
57233W        W  224  15.237  34.676   9.782 -0.3344 -0.2135 -0.0056
57234W        W  225   1.306  31.564  15.318  0.0951  0.0472 -0.0907
57235W        W  226  33.377   7.121  20.219  0.1805  0.1041  0.0214
57236W        W  227  27.630  29.190  25.653 -0.0556  0.3275 -0.0933
57237W        W  228  33.133   2.815  26.277 -0.5336 -0.1080 -0.0121
57238W        W  229  32.963   6.628   7.665  0.2269 -0.0199 -0.1089
57239W        W  230  18.276  22.960   6.838  0.0243 -0.3253  0.0383
57240W        W  231  10.374  12.888   4.025  0.1437  0.1326  0.2079
57241W        W  232   5.267  10.724  26.484  0.1717 -0.0652 -0.2296
57242W        W  233  16.921   4.083   6.906  0.3418  0.1360 -0.0738
57243W        W  234  33.230   8.716   2.264  0.0746 -0.0366 -0.2125
57244W        W  235   0.708  12.371   2.524  0.3809  0.0033 -0.0438
57245W        W  236   4.727  31.073   5.572  0.1657 -0.0492  0.3746
57246W        W  237   5.521   6.327  25.486 -0.2489 -0.0556 -0.0958
57247W        W  238  32.690   6.927  23.111 -0.1456 -0.2123  0.1182
57248W        W  239   1.454  34.462   6.419  0.1761 -0.0142  0.0804
57249W        W  240  25.527   0.213   5.332  0.0074  0.1479 -0.2267
57250W        W  241  21.528  11.132  24.750 -0.0462  0.3530  0.0141
57251W        W  242  28.635   2.481   3.485  0.1945  0.0333 -0.1006
57252W        W  243  10.847  15.157   3.434  0.1543  0.2425  0.0997
57253W        W  244   5.239  28.207   8.985 -0.3897 -0.0269 -0.2093
57254W        W  245   3.903   1.217   6.660  0.0851 -0.0097 -0.0568
57255W        W  246   6.661   0.375   7.921  0.2681 -0.1073 -0.2153
57256W        W  247  33.102   5.900   6.328  0.2051  0.2991 -0.0258
57257W        W  248   8.719   7.318   1.987 -0.3404  0.0211 -0.0740
57258W        W  249  11.330   2.116  11.182  0.1478 -0.3047  0.0049
57259W        W  250   5.776  29.335   6.530 -0.3969  0.2026 -0.1329
57260W        W  251   8.563  33.242  26.261  0.1720 -0.2011 -0.3160
57261W        W  252  13.231  31.860  28.836  0.0501  0.0724  0.0272
57262W        W  253   2.828   3.325   6.582  0.0170  0.4236  0.3768
57263W        W  254   0.608   4.737  10.145  0.1352 -0.2880  0.3246
57264W        W  255  19.139  26.120  22.851 -0.0209 -0.0251 -0.0106
57265W        W  256   4.750  33.753  29.178  0.0726  0.3368  0.4284
57266W        W  257  31.836   9.156   0.209  0.1254  0.1121 -0.0404
57267W        W  258  11.103  28.360  10.056 -0.0063 -0.1705 -0.2264
57268W        W  259   4.939  17.413   3.222 -0.0609  0.0603  0.3907
57269W        W  260   3.741  16.460  20.481 -0.0974  0.1828  0.0516
57270W        W  261   4.286   5.189   6.498 -0.1486  0.0847  0.1989
57271W        W  262  34.692  18.601  23.774  0.1560 -0.2877 -0.1519
57272W        W  263   6.834   4.736  23.377 -0.1034 -0.0175  0.2932
57273W        W  264   2.438  19.129   4.269  0.1221 -0.0689  0.2638
57274W        W  265  31.778   4.732  28.054 -0.3995 -0.1514  0.2808
57275W        W  266  34.780  14.391   1.157 -0.0571 -0.0579  0.2233
57276W        W  267   3.652   1.815   0.708 -0.2960 -0.0477  0.0320
57277W        W  268   0.930   5.565   6.496 -0.1427  0.1264  0.0129
57278W        W  269  23.340  32.955  26.573  0.0548 -0.1579  0.0471
57279W        W  270  16.799   7.376  25.687 -0.0149  0.1263 -0.1962
57280W        W  271  31.800  33.442  14.137 -0.1268  0.1120  0.2055
57281W        W  272   9.898   6.863  27.966  0.1617 -0.1857  0.3520
57282W        W  273   8.179  21.491   9.464  0.0149  0.0416 -0.1543
57283W        W  274   2.137  16.175  28.090  0.0013 -0.1516 -0.4008
57284W        W  275  17.107  17.177   0.631 -0.0661  0.4345 -0.3328
57285W        W  276   9.880  33.982   3.920  0.0842 -0.0818 -0.0675
57286W        W  277   4.913  25.982   3.274 -0.0412  0.0375  0.2056
57287W        W  278  14.099   2.074  23.633  0.0275 -0.1158  0.0701
57288W        W  279  17.122   1.328   7.863  0.1533  0.1986 -0.2203
57289W        W  280  11.392   0.108   6.993 -0.0403 -0.0076 -0.2148
57290W        W  281   8.464  33.484   7.106  0.0083 -0.0243 -0.0176
57291W        W  282   6.390  14.573   8.348 -0.3380  0.0203  0.0626
57292W        W  283   1.827  34.794   4.265  0.0730  0.0470 -0.1077
57293W        W  284  15.654  20.287   5.795 -0.4706 -0.0497 -0.0533
57294W        W  285  12.658  18.337   6.002  0.0027 -0.0402  0.0031
57295W        W  286   1.797   4.056   3.561 -0.0773  0.1030 -0.2279
57296W        W  287  25.473  19.290  27.767  0.1778 -0.0009 -0.0880
57297W        W  288   1.303  10.625  27.302  0.0888  0.0733  0.1114
57298W        W  289  27.208   2.501   1.326 -0.0529 -0.0806 -0.2238
57299W        W  290  15.709  13.130   5.402  0.0844 -0.0358  0.0483
57300W        W  291  11.414   0.574  17.657  0.1219  0.0105 -0.1300
57301W        W  292  30.637  11.712   7.326  0.2979  0.1358 -0.1539
57302W        W  293   3.643  15.152  10.590 -0.2008 -0.0893  0.0285
57303W        W  294  18.195  33.538   8.575  0.1155  0.0904 -0.0422
57304W        W  295   2.785  10.211   3.607 -0.2685 -0.2429  0.2601
57305W        W  296  24.663  11.924  28.028 -0.1564  0.0462  0.0744
57306W        W  297   5.805   6.352   7.587  0.0687 -0.6780  0.3904
57307W        W  298   9.228   6.922  25.350 -0.1591  0.1017 -0.1976
57308W        W  299   1.329   4.470   7.534  0.1779 -0.0167 -0.0761
57309W        W  300  27.786  19.638   2.538  0.2171  0.2072  0.0808
57310W        W  301  26.085  21.179  28.328 -0.0314  0.3721 -0.0464
57311W        W  302  16.942  33.532   3.011  0.0852 -0.0776 -0.3132
57312W        W  303  34.398  15.995  27.927 -0.0198 -0.0833 -0.2203
57313W        W  304  32.255   0.094   8.556 -0.1613 -0.0831  0.0156
57314W        W  305   9.796  18.941   8.188 -0.1631  0.0697 -0.1006
57315W        W  306   7.764   1.348  28.018 -0.3599  0.0155 -0.0937
57316W        W  307   8.922   6.185   6.120  0.3345  0.0079 -0.1666
57317W        W  308   6.493  26.956   1.216 -0.1915 -0.0689 -0.0894
57318W        W  309  17.986   3.782   6.661 -0.0074 -0.0182  0.3404
57319W        W  310   5.056  14.368   2.040  0.0247 -0.1174 -0.0502
57320W        W  311  16.635  23.124  19.513  0.0025  0.0916 -0.3057
57321W        W  312   7.218  30.178   3.090 -0.0094  0.1444  0.2360
57322W        W  313   7.130  13.782   6.680  0.2416  0.3369  0.3047
57323W        W  314  13.940  15.635   7.474  0.0921 -0.4120 -0.1049
57324W        W  315  29.232  23.384  13.209 -0.0469 -0.0783  0.2372
57325W        W  316  14.639   3.977  19.753  0.1986 -0.3235  0.0574
57326W        W  317  25.998  23.793   5.133  0.4907 -0.3478  0.1548
57327W        W  318  34.166  32.985   4.804 -0.5143  0.1344 -0.0299
57328W        W  319  19.547  24.659   8.200  0.0630  0.1035  0.3342
57329W        W  320  25.626  15.607   7.115 -0.0728  0.1638  0.1693
57330W        W  321   8.560   7.825  27.680 -0.0114  0.0904  0.0815
57331W        W  322  27.032   1.191  27.862  0.0170 -0.0596 -0.2639
57332W        W  323   8.663   6.960   4.282  0.0241 -0.1088  0.0036
57333W        W  324   0.585  29.477   5.280  0.0160  0.1460  0.1230
57334W        W  325  32.275   6.154   8.431  0.0730  0.0058  0.2621
57335W        W  326   1.650  17.270   7.903  0.1848 -0.2165 -0.1886
57336W        W  327  30.006  12.027   0.525 -0.2995 -0.0040  0.0192
57337W        W  328  30.580   5.893  28.059  0.0818  0.1506 -0.1458
57338W        W  329  24.162  29.945   7.065  0.1794  0.0741 -0.3208
57339W        W  330   5.037   5.188   4.726  0.0754 -0.1313  0.0021
57340W        W  331   3.027   7.054   9.449  0.0638 -0.1705 -0.0135
57341W        W  332   6.116  20.952   1.276 -0.1606  0.0831 -0.0654
57342W        W  333   7.919   3.634   3.362 -0.1439  0.0129  0.0970
57343W        W  334  26.034  13.148   8.445  0.2126 -0.0613 -0.0821
57344W        W  335   8.656  29.394   2.473  0.0432 -0.0349  0.0453
57345W        W  336  21.877  23.010  24.835  0.1411  0.1093 -0.0947
57346W        W  337   1.158  15.686  27.520 -0.1054  0.0011 -0.0963
57347W        W  338  34.512  27.411   4.237  0.1266 -0.0238  0.3922
57348W        W  339  32.390   4.018   9.693  0.1232 -0.2295  0.1091
57349W        W  340  30.056  34.064  28.471  0.0135  0.0727 -0.2044
57350W        W  341  28.030  12.491   6.504 -0.2133 -0.2385  0.0629
57351W        W  342  20.280  28.163   6.008  0.0157  0.0018 -0.1909
57352W        W  343   3.940   8.300   6.446 -0.0717  0.1935  0.3010
57353W        W  344   5.408   3.069  21.961 -0.0696 -0.1128 -0.0374
57354W        W  345  21.426   9.693   2.796 -0.0458 -0.0548  0.2695
57355W        W  346  14.539  10.957  22.549  0.0416  0.1219  0.0917
57356W        W  347   5.222   3.986   9.979  0.1668  0.0991  0.1772
57357W        W  348  14.845   4.966   9.152 -0.0998  0.0584 -0.0490
57358W        W  349   1.035   3.366   8.145  0.0059  0.1623 -0.1556
57359W        W  350  27.581  23.947   6.558 -0.4834 -0.1334 -0.2754
57360W        W  351  23.170   1.302  13.664 -0.2068 -0.2788 -0.1635
57361W        W  352  10.605   5.396   5.449 -0.1437 -0.4557 -0.2030
57362W        W  353  25.823   3.244   3.659  0.0612 -0.1482 -0.0445
57363W        W  354  10.138  32.534   9.803  0.3221  0.6218  0.4315
57364W        W  355   2.963  32.597   8.158  0.0274  0.2053  0.0323
57365W        W  356   5.857  17.937  23.719  0.2378  0.0062 -0.0187
57366W        W  357   3.077  29.280   8.525  0.0599  0.0567  0.0754
57367W        W  358  34.100   4.286  18.047 -0.2507 -0.2078  0.0678
57368W        W  359  25.477   4.213   7.454 -0.0780 -0.1170 -0.1155
57369W        W  360  33.171  14.192  10.177  0.0067  0.0362  0.1359
57370W        W  361  30.856   4.531   8.247  0.0589  0.1069 -0.0459
57371W        W  362  13.033  17.839  13.683 -0.1120 -0.0928 -0.3521
57372W        W  363   1.014   0.146  10.258 -0.1091 -0.0255  0.0746
57373W        W  364  29.492  15.413   8.975 -0.0371  0.1872 -0.4137
57374W        W  365  21.018  32.160   3.979  0.0003 -0.1327  0.0593
57375W        W  366  34.607  25.324   3.894  0.2120 -0.1359  0.1612
57376W        W  367   1.318  13.438  11.989  0.3275  0.0685 -0.0165
57377W        W  368  19.995   0.006   3.706 -0.0222  0.2521 -0.1104
57378W        W  369   2.383   4.307   8.917 -0.0539  0.1710  0.2234
57379W        W  370   2.738   8.253   3.130  0.0574 -0.1207  0.0391
57380W        W  371  20.186  24.279   4.282 -0.3547  0.2271 -0.0193
57381W        W  372  21.558  13.228   5.368  0.1997  0.1854  0.2205
57382W        W  373  13.916  28.297   2.526 -0.1376 -0.1527 -0.0973
57383W        W  374  30.814   6.020  22.040  0.1002 -0.0649 -0.1886
57384W        W  375   1.352   5.402   3.870  0.0133 -0.2057  0.1555
57385W        W  376  34.026   9.939   5.006  0.1449 -0.2349 -0.2321
57386W        W  377   3.504   1.692   1.258  0.4324  0.0645  0.0033
57387W        W  378  32.114  33.980   1.275 -0.0680 -0.0724 -0.2473
57388W        W  379   7.859  11.679   4.794  0.1152 -0.0749  0.1749
57389W        W  380  22.531  34.105   2.036  0.0134  0.1621 -0.1508
57390W        W  381   8.994   0.097   3.126  0.2440 -0.1815  0.0950
57391W        W  382  17.853  21.455   7.259 -0.0806 -0.1918 -0.0367
57392W        W  383  23.836   9.879  27.714  0.2815 -0.2435 -0.0896
57393W        W  384  16.695  17.111   6.123  0.1391  0.3102  0.1521
57394W        W  385   3.233   9.380  10.063  0.3065  0.1696  0.1061
57395W        W  386  20.222  12.418   5.562 -0.2332  0.0047 -0.1418
57396W        W  387  10.671  11.475   5.648  0.1108  0.0775  0.0914
57397W        W  388   5.974   0.756   4.282  0.1594  0.0202  0.3887
57398W        W  389  14.359  28.690   9.701 -0.1693 -0.1993  0.1712
57399W        W  390   6.625   2.078   4.845 -0.1366 -0.0867 -0.1313
57400W        W  391   4.597  28.088  28.536 -0.0333 -0.1015 -0.2933
57401W        W  392  23.981  30.510   1.910  0.0861 -0.0304  0.2030
57402W        W  393  26.810  32.590  14.764 -0.1793  0.2157  0.2241
57403W        W  394  25.821  31.415   3.018  0.1630 -0.2776  0.1271
57404W        W  395  28.002  29.185  24.663  0.2156  0.2554  0.3365
57405W        W  396   8.752  22.743  10.079 -0.0179  0.0177  0.0207
57406W        W  397   1.380   1.560  25.910 -0.0760 -0.0327  0.0017
57407W        W  398  24.353  23.311   0.855 -0.3420  0.1060 -0.0682
57408W        W  399  33.739   5.691   6.210 -0.2448 -0.2198 -0.0939
57409W        W  400  14.329  32.152   1.051  0.0415 -0.0575 -0.0257
57410W        W  401   6.272   6.333  23.280 -0.0427 -0.0476  0.2183
57411W        W  402   4.876  10.904  27.670 -0.1238 -0.1634  0.0591
57412W        W  403   2.848   2.803   9.537  0.0008  0.3068 -0.1269
57413W        W  404  24.515   1.459   5.031  0.0180 -0.0787  0.2017
57414W        W  405   1.886  24.806   2.568  0.1358  0.1619  0.0595
57415W        W  406  31.621  13.383   8.318  0.2833 -0.2217 -0.2094
57416W        W  407   4.405   6.558  23.331  0.1708 -0.2103  0.4528
57417W        W  408   8.600  15.348  21.689 -0.3803 -0.0084  0.0166
57418W        W  409   5.539  23.965   9.509 -0.0203  0.2488 -0.0759
57419W        W  410  14.009   2.164   8.175 -0.4103 -0.0700  0.0506
57420W        W  411   6.690  25.302   9.578 -0.1956  0.2357 -0.0491
57421W        W  412   5.117  19.989   8.104  0.1939  0.0398  0.2372
57422W        W  413   6.920  15.745   1.559  0.0835  0.1409 -0.5198
57423W        W  414   0.597   4.398   5.858  0.1852 -0.1141  0.3121
57424W        W  415   6.180  26.901   5.397  0.0760  0.0670 -0.3461
57425W        W  416  15.844  31.292   2.099  0.2187  0.2139  0.4053
57426W        W  417   1.112   2.372  23.455 -0.1498 -0.1268 -0.0655
57427W        W  418  12.747   0.608   4.142  0.1198  0.0627 -0.1515
57428W        W  419  32.462   5.370  26.511 -0.1378 -0.1715  0.0488
57429W        W  420   4.857  10.872   9.697  0.1642  0.1138  0.0448
57430W        W  421  19.402   5.244  17.534 -0.0632  0.3248  0.0674
57431W        W  422  34.283  12.216  11.090 -0.2042 -0.0485 -0.0011
57432W        W  423  28.400   5.808   6.784  0.0694  0.3852  0.2971
57433W        W  424   1.652  13.151   6.149 -0.2950 -0.0350 -0.0517
57434W        W  425  28.145   4.260   8.613 -0.2589  0.0058  0.3062
57435W        W  426   8.756   0.766   9.022  0.1181 -0.0438 -0.0866
57436W        W  427  11.873   7.007   6.990 -0.2165 -0.0822 -0.0505
57437W        W  428   2.030  33.195   3.139  0.0226 -0.1163 -0.0458
57438W        W  429  24.540  13.688   0.304 -0.0286  0.0749 -0.0935
57439W        W  430   3.835  13.639   7.954 -0.0336 -0.3538 -0.1203
57440W        W  431   6.123  26.000   2.130  0.2687 -0.1489  0.2255
57441W        W  432  10.561  16.697   6.945  0.2479  0.1556  0.0790
57442W        W  433   7.558  31.257   8.420 -0.1853  0.1927  0.0575
57443W        W  434   2.992   2.778   6.019 -0.0103  0.2127 -0.1449
57444W        W  435  29.701   2.746  27.118 -0.0631  0.1648  0.0008
57445W        W  436  26.593   3.934   3.461 -0.1126  0.1104 -0.0255
57446W        W  437   8.294  28.510   7.062 -0.0552 -0.1905  0.0240
57447W        W  438  14.311  30.528   3.803 -0.0823 -0.0199 -0.2666
57448W        W  439   4.288  12.486  10.247 -0.0319 -0.0193  0.1845
57449W        W  440  21.794  19.816   3.882  0.0540 -0.2470 -0.2872
57450W        W  441  13.569   8.251   6.164  0.1379 -0.1346 -0.2235
57451W        W  442   4.198  33.004   8.821 -0.1317 -0.3695 -0.0172
57452W        W  443  16.013  28.922   7.438  0.0987 -0.0672 -0.2640
57453W        W  444  25.323  12.671   2.204 -0.2172  0.1031 -0.1032
57454W        W  445   7.188  23.049   4.865 -0.3390 -0.1534  0.0241
57455W        W  446  30.353  33.875  27.971  0.3061 -0.0931 -0.3668
57456W        W  447  21.737   3.957  27.269 -0.0024 -0.3647 -0.0983
57457W        W  448  15.067  10.106  26.438 -0.0214  0.0203  0.0762
57458W        W  449  20.213  21.123  15.158  0.2481  0.3433 -0.2878
57459W        W  450   0.711  33.499   1.977 -0.1333 -0.1144  0.0586
57460W        W  451  30.547  32.806   1.364 -0.0881 -0.2954 -0.2016
57461W        W  452   6.890   2.802  10.013  0.0668  0.3289 -0.0866
57462W        W  453  29.056  21.801   1.568  0.0790 -0.0624  0.3295
57463W        W  454   5.086   8.028  23.446  0.1118 -0.0605 -0.2482
57464W        W  455   0.288  13.445   4.844  0.0587 -0.1653 -0.1342
57465W        W  456   4.322  24.480   8.643  0.2570  0.1645  0.0756
57466W        W  457  14.529   6.477  18.288 -0.0329 -0.0121  0.0325
57467W        W  458  28.711  10.556   7.064  0.0256 -0.0446  0.1171
57468W        W  459   4.402  30.354   9.091 -0.0475 -0.1824 -0.0602
57469W        W  460  19.964  11.416   6.486 -0.0494 -0.1402 -0.2336
57470W        W  461  25.693  12.348   0.479 -0.1106 -0.0181  0.1168
57471W        W  462  30.514  17.052   0.855 -0.1662  0.0256  0.1383
57472W        W  463  23.478  34.561  28.930 -0.0121 -0.2744 -0.0274
57473W        W  464  12.682  15.915   7.515 -0.2736 -0.1875  0.2295
57474W        W  465   6.726  26.061  29.179 -0.0189  0.0703  0.1220
57475W        W  466  29.800  17.087  27.464  0.1141  0.1212 -0.3762
57476W        W  467  12.229  21.512   2.955 -0.1776  0.4251  0.1960
57477W        W  468   8.346  11.237   8.540 -0.1745  0.2030  0.2002
57478W        W  469  19.132  13.304  27.084 -0.1193  0.2964 -0.0222
57479W        W  470  22.003  29.953   1.179 -0.0155 -0.0557 -0.0147
57480W        W  471   7.581   6.585  28.682 -0.2949  0.1076  0.0037
57481W        W  472  28.580  32.255   5.733 -0.2693 -0.1124  0.4130
57482W        W  473   0.028  10.383  25.739 -0.4591  0.1358  0.3488
57483W        W  474   8.500  28.011   6.193  0.1907  0.0409  0.1382
57484W        W  475  20.473   3.934   1.357 -0.0620 -0.0662  0.0586
57485W        W  476  28.150   1.790   6.570  0.3381  0.0855  0.2534
57486W        W  477   8.712   4.551  23.657  0.2314 -0.3235  0.0652
57487W        W  478   2.737   5.553  19.914  0.0280  0.1600  0.0894
57488W        W  479  11.084  17.352  24.766  0.0566 -0.3795 -0.1488
57489W        W  480   1.704   8.578   8.645  0.3324 -0.1523 -0.0569
57490W        W  481  26.319   2.248   8.125 -0.1500 -0.0060 -0.1360
57491W        W  482   7.019  23.887   4.615  0.1848 -0.1609 -0.2701
57492W        W  483   2.350   1.228   7.566 -0.2234 -0.1770  0.0935
57493W        W  484   2.394  25.367   6.627  0.0454  0.0501 -0.0174
57494W        W  485  32.724  34.614  27.361 -0.2549  0.2763 -0.2749
57495W        W  486  26.000  13.833  26.062 -0.2357  0.0802  0.0480
57496W        W  487   6.171   9.102  10.145  0.0468  0.1230  0.1055
57497W        W  488  23.622  12.866  22.305 -0.2328 -0.1677  0.0810
57498W        W  489   2.892   8.443  25.870 -0.2181  0.0255 -0.1901
57499W        W  490  11.948   9.156   1.925  0.0493 -0.1543 -0.0305
57500W        W  491  11.799   1.179   5.494  0.1114 -0.0923  0.1977
57501W        W  492  31.163   5.328   8.716  0.0584  0.1147 -0.2678
57502W        W  493  22.841  27.568   2.846 -0.0759 -0.3111 -0.1136
57503W        W  494   9.565   2.100   1.624  0.0854 -0.2216 -0.1165
57504W        W  495  31.611  12.951  10.133 -0.1314  0.0420 -0.1890
57505W        W  496  26.941   5.676   5.636 -0.0535 -0.2068 -0.0327
57506W        W  497  34.382  26.291   7.449  0.0038 -0.1954 -0.2098
57507W        W  498  31.119  30.522   4.367  0.2165  0.2080  0.0095
57508W        W  499   1.799   1.561   8.930  0.0154 -0.1513  0.2381
57509W        W  500  30.873   2.201   5.632  0.1727  0.0662  0.0988
57510W        W  501  25.771   3.491   3.231  0.0757  0.1505 -0.0408
57511W        W  502  20.454   8.718   8.173  0.1506 -0.1694 -0.1027
57512W        W  503   1.869   3.014   8.286  0.0742  0.5344 -0.1556
57513W        W  504   2.725   6.963  10.171  0.3127 -0.3164  0.1215
57514W        W  505  10.101  31.562   0.026  0.0135  0.0744 -0.1284
57515W        W  506  27.232   3.824   2.247  0.0946 -0.1000 -0.0624
57516W        W  507   9.785   3.792   8.301 -0.2054  0.0281 -0.1140
57517W        W  508  15.596  34.029   6.289 -0.1113  0.1017 -0.1815
57518W        W  509   5.614   5.354   8.661  0.3250 -0.0236 -0.0311
57519W        W  510   0.319  25.849   4.804  0.1007  0.2611  0.0547
57520W        W  511  31.062   6.025  19.624 -0.3661  0.0137  0.0605
57521W        W  512  25.702  10.600   8.385 -0.2784  0.4330 -0.1868
57522W        W  513  12.719  31.359   7.374 -0.0671 -0.0714  0.1367
57523W        W  514  29.234   0.209   2.984  0.1552 -0.0541  0.0661
57524W        W  515  34.206   8.910  25.783 -0.2546 -0.1692  0.0181
57525W        W  516   8.858   7.718   2.301  0.0392 -0.2155  0.1029
57526W        W  517   5.264  11.932  27.753  0.2899 -0.1928 -0.1954
57527W        W  518   7.961   6.765  22.243  0.0133  0.0167 -0.2793
57528W        W  519  22.607  14.744   1.339 -0.3627 -0.2911 -0.0336
57529W        W  520   9.397  31.558   7.129  0.2546  0.2419  0.2173
57530W        W  521  24.499   8.536   5.713  0.1130  0.0993  0.0603
57531W        W  522  30.649  34.728   0.736 -0.3890  0.1128 -0.1627
57532W        W  523  28.938   4.011  20.830 -0.0324 -0.0014 -0.1101
57533W        W  524   2.425   7.937  11.098  0.2328 -0.1153 -0.0933
57534W        W  525   6.386  18.512  24.690 -0.0657  0.0812 -0.1997
57535W        W  526  10.001   4.525   9.660 -0.2679 -0.1277  0.4979
57536W        W  527  11.693   6.428   2.610 -0.1520  0.3764 -0.3394
57537W        W  528   5.338  28.419   8.176 -0.0025 -0.0093  0.2653
57538W        W  529  17.004  34.494   0.111 -0.1453  0.1486 -0.1078
57539W        W  530  18.250  28.461   5.339 -0.0259  0.0301 -0.0375
57540W        W  531   2.320   6.254   1.316  0.0942  0.1934 -0.0337
57541W        W  532   6.639   7.437   3.496 -0.1973 -0.0731 -0.0129
57542W        W  533  30.906   8.762  23.904 -0.0473 -0.0436 -0.0395
57543W        W  534   2.313  33.669   6.516  0.0289 -0.3277 -0.2016
57544W        W  535   9.605   1.596  27.815  0.0107  0.2320 -0.1494
57545W        W  536   8.496  23.003   3.165 -0.0311  0.1619  0.2294
57546W        W  537   2.450   8.131  10.622 -0.2490 -0.2409 -0.1548
57547W        W  538  25.000   8.566   1.998  0.1663 -0.0123 -0.3004
57548W        W  539  18.742  13.223   9.420  0.2215 -0.2812 -0.3918
57549W        W  540  32.910   6.190   0.882  0.0359  0.3863  0.1270
57550W        W  541  26.336   1.282   8.976 -0.1653 -0.0079 -0.0993
57551W        W  542  29.156  25.954   8.981 -0.2946  0.0308  0.3018
57552W        W  543   8.471  27.326  17.969  0.3567  0.0927  0.2181
57553W        W  544  12.300  27.735   4.685  0.2913  0.0043  0.0995
57554W        W  545  32.309   7.563  28.708  0.1775 -0.2293 -0.0350
57555W        W  546  10.265  11.210  17.548  0.0027  0.1767 -0.0901
57556W        W  547  33.876   3.164  23.556  0.1804 -0.0374  0.0341
57557W        W  548   0.439  15.086   6.213  0.1888 -0.0251 -0.0002
57558W        W  549  34.721   8.133   5.986 -0.3667  0.3562 -0.2547
57559W        W  550  30.389   7.030  24.393 -0.0504  0.0373  0.0336
57560W        W  551  28.633  22.451   3.978  0.1071  0.2628  0.0635
57561W        W  552   3.202  34.390   3.418  0.2235 -0.4165 -0.3590
57562W        W  553   6.716   9.083  21.079 -0.0002  0.0746 -0.0110
57563W        W  554  10.839  23.685   2.151 -0.4113 -0.3177  0.0528
57564W        W  555  17.489  14.673   8.434 -0.1183  0.0797  0.1201
57565W        W  556  16.214  23.608   1.987  0.0045 -0.2262 -0.0046
57566W        W  557  33.911   8.436   1.793 -0.1631 -0.0724 -0.1227
57567W        W  558   8.779   8.264   6.751 -0.0848  0.2730 -0.0425
57568W        W  559   1.166  30.682   7.527 -0.2130  0.2596  0.0574
57569W        W  560  17.130  18.100   6.625  0.1315  0.2161 -0.0176
57570W        W  561   3.643  14.490   4.110 -0.0639 -0.0335 -0.0547
57571W        W  562   7.333   5.137  20.077 -0.0148 -0.0910 -0.1209
57572W        W  563  15.443  18.469  25.743  0.1724  0.2061  0.0365
57573W        W  564   3.924  14.626   9.752 -0.1234 -0.1045  0.1648
57574W        W  565  23.523  11.979   4.601 -0.0011  0.1183  0.0755
57575W        W  566  33.063   8.846   4.481 -0.1325 -0.0209 -0.1005
57576W        W  567   2.190  18.473   5.914 -0.2446  0.1785 -0.1202
57577W        W  568   3.207  32.180   3.557 -0.0196 -0.0605 -0.3480
57578W        W  569  30.676  34.254   5.781 -0.0842 -0.0729 -0.0374
57579W        W  570   4.965   6.081   8.331  0.3521  0.2284 -0.1416
57580W        W  571   2.757   3.957  27.156  0.0847 -0.1186 -0.0415
57581W        W  572  26.763   9.314   1.298  0.0637 -0.0043  0.1559
57582W        W  573  10.225  28.910   3.693 -0.0794  0.2339 -0.0012
57583W        W  574   3.059  30.277   8.107  0.0075  0.1990  0.1096
57584W        W  575   6.600  32.926   6.623 -0.2239 -0.1215  0.2404
57585W        W  576  31.668  18.382   4.519  0.1285 -0.2076 -0.1399
57586W        W  577   7.156  15.808  10.317 -0.0031 -0.0980 -0.1224
57587W        W  578  25.357  29.921   4.046  0.0102  0.0362  0.3115
57588W        W  579  29.355   3.543   7.877 -0.0282  0.0413 -0.0715
57589W        W  580   1.750   6.620   2.224 -0.1783 -0.1242 -0.0697
57590W        W  581   6.261  28.964   2.856  0.2891 -0.0097 -0.0641
57591W        W  582  23.706  28.098   0.237 -0.1971 -0.1372 -0.2363
57592W        W  583  27.844   5.671   8.866  0.0583 -0.0975  0.0257
57593W        W  584  31.062  15.217   2.886 -0.2545 -0.3956 -0.0570
57594W        W  585   6.208   5.155  22.564 -0.2534 -0.0423  0.1721
57595W        W  586   5.358  10.379  11.361 -0.2638 -0.1051 -0.2436
57596W        W  587  32.160   1.630  27.732 -0.4474 -0.2363  0.1298
57597W        W  588   2.649  13.560   0.918  0.0559 -0.2051 -0.0235
57598W        W  589  12.720   7.872   2.264  0.4357 -0.2651 -0.0596
57599W        W  590  22.382   2.764   7.707 -0.1199  0.3085  0.1461
57600W        W  591   9.875  29.070  10.686  0.0144  0.0748  0.2439
57601W        W  592   4.634  15.310  10.838 -0.2542  0.3170  0.0632
57602W        W  593  10.029   9.271   6.410  0.3640  0.2465  0.0445
57603W        W  594  19.033  16.665   5.697 -0.1703  0.1413 -0.1018
57604W        W  595   4.834  23.841   1.795  0.0173 -0.2825  0.1346
57605W        W  596  33.670   8.552   6.946  0.0221  0.1832 -0.1079
57606W        W  597  20.425  30.211   6.113  0.0529 -0.2882  0.1104
57607W        W  598  27.539  13.157  25.022 -0.0749 -0.1193 -0.0937
57608W        W  599   0.159  18.323  10.386  0.3802 -0.2932  0.1385
57609W        W  600  10.625   3.937  28.030  0.2804 -0.1033 -0.2913
57610W        W  601   8.269   8.409  25.444 -0.1220  0.0057 -0.1562
57611W        W  602  11.030   6.272  20.117  0.2358  0.1639 -0.3818
57612W        W  603   8.950  29.243   6.041  0.0642  0.2710  0.0949
57613W        W  604  21.661  11.926   7.533  0.1179  0.2001 -0.1051
57614W        W  605  13.339  21.267  20.628 -0.2832  0.2414  0.2888
57615W        W  606  20.965  28.496   5.602 -0.0478  0.1712 -0.0917
57616W        W  607  14.480   4.754  10.024 -0.1751  0.3601 -0.1233
57617W        W  608   0.005  11.648  24.123 -0.0965 -0.1869  0.1038
57618W        W  609   8.704  31.008   6.968  0.1516  0.0184 -0.0966
57619W        W  610  19.757  30.914   3.048 -0.1191  0.1039 -0.2156
57620W        W  611  10.091  18.492   7.022  0.5476 -0.0530  0.3112
57621W        W  612  13.485  10.919  25.027 -0.1987  0.0135 -0.2752
57622W        W  613  27.601   3.920  25.242 -0.0572  0.0172 -0.2786
57623W        W  614   4.799   0.691  24.592  0.1354  0.0591 -0.3605
57624W        W  615  10.558  26.571   6.378  0.0405 -0.2023  0.0807
57625W        W  616   7.895   0.790   8.317 -0.3651  0.1694 -0.1525
57626W        W  617  34.718  11.112   5.702 -0.2791  0.1692 -0.1566
57627W        W  618   8.468  10.853  25.290 -0.0940  0.2399  0.1024
57628W        W  619  26.403   9.358   7.128 -0.1298  0.0230  0.0689
57629W        W  620   0.983  34.058  10.278 -0.1226 -0.0302 -0.1064
57630W        W  621  18.853  33.643   7.502 -0.2156  0.2345  0.0939
57631W        W  622  26.417  30.150   7.010 -0.1480 -0.0093 -0.0411
57632W        W  623  29.024   8.592   7.282 -0.2402  0.0692  0.2067
57633W        W  624  13.811  12.648   5.752  0.3271 -0.0693 -0.3599
57634W        W  625   3.308  12.299   1.143 -0.2172 -0.1401  0.0881
57635W        W  626  34.193   6.263   5.593  0.2301 -0.1513 -0.0762
57636W        W  627   3.370  10.829   7.666 -0.0569  0.0120 -0.1251
57637W        W  628  29.790   8.942   7.202 -0.0205  0.0137 -0.0738
57638W        W  629  27.657   8.268  23.941  0.0870 -0.0153 -0.1622
57639W        W  630  10.750   2.748   4.932  0.2980  0.0520  0.4737
57640W        W  631  30.567  11.154   2.340  0.1402  0.1640 -0.0001
57641W        W  632  27.590   6.705  26.839 -0.2376 -0.2025  0.1577
57642W        W  633   8.629  19.940   1.226  0.1561  0.0305  0.0733
57643W        W  634  14.609  24.149   3.878 -0.2440 -0.2766  0.0472
57644W        W  635  13.081   5.640   5.799  0.2055  0.0826  0.4030
57645W        W  636  28.216  20.476   2.188  0.5856  0.0895 -0.2390
57646W        W  637  22.651  11.887   4.961 -0.1071 -0.0083 -0.0528
57647W        W  638  29.414   5.582   4.146  0.3480  0.1075 -0.4173
57648W        W  639  33.269  13.319  25.956  0.0308 -0.2853  0.1546
57649W        W  640  18.360  34.513   8.784  0.1259  0.0820  0.1821
57650W        W  641   9.349  17.006   9.246 -0.1224  0.1214  0.2581
57651W        W  642  33.758   1.335  25.208 -0.0012  0.0350 -0.2631
57652W        W  643   1.924  20.175   0.233 -0.1718  0.1135 -0.3636
57653W        W  644   3.683  32.451   8.418  0.3267  0.1709  0.1798
57654W        W  645  16.928  17.423   1.990  0.0664 -0.0229  0.1433
57655W        W  646   6.997   9.853   8.681  0.0243 -0.0747 -0.0444
57656W        W  647  11.620  34.452   7.306  0.0970 -0.1598 -0.2636
57657W        W  648  17.995   2.482   5.975  0.0657 -0.0434  0.5537
57658W        W  649   8.265  14.322   6.259  0.3059  0.1843  0.1238
57659W        W  650  28.468  15.392  24.147 -0.1068  0.0819  0.1065
57660W        W  651  24.125  25.942   6.598 -0.2604 -0.3328  0.2102
57661W        W  652   7.882  14.290  22.975 -0.1252  0.0847  0.0624
57662W        W  653   5.731   6.657   3.827 -0.1808 -0.0747  0.1189
57663W        W  654   1.577  34.607   1.085  0.0675  0.3107 -0.1464
57664W        W  655  32.794  33.818   5.571 -0.1692  0.2181  0.0937
57665W        W  656   7.632  34.270   8.243  0.1504  0.1048 -0.2099
57666W        W  657  10.764  18.507   3.272 -0.2095 -0.3212  0.1652
57667W        W  658  30.594  15.318   2.263  0.1695  0.1353 -0.4271
57668W        W  659  34.378  16.043   8.446 -0.0168 -0.3393 -0.0307
57669W        W  660  29.215   9.111   8.733 -0.1754  0.0515 -0.0592
57670W        W  661  27.721  30.619  27.126 -0.0974  0.3815 -0.0407
57671W        W  662   0.444   4.196   7.230  0.1759  0.1317  0.0346
57672W        W  663   3.232  28.195   7.320  0.0307  0.0567 -0.4387
57673W        W  664  15.080  30.591   8.815 -0.1588  0.2040  0.1185
57674W        W  665   5.930   6.003  28.002  0.0767 -0.4727 -0.0782
57675W        W  666  26.818  25.842  25.541 -0.1253 -0.3927  0.0115
57676W        W  667   7.033  11.977  21.971 -0.1240  0.2652  0.1574
57677W        W  668   0.631  34.424  25.741 -0.1473  0.0691  0.3178
57678W        W  669   0.495  13.333   7.264 -0.0196  0.2057  0.2259
57679W        W  670  30.866  19.573  28.652  0.0154  0.0622  0.1288
57680W        W  671   6.232   4.553   9.664 -0.3138 -0.1037 -0.0195
57681W        W  672  27.300  21.527  28.056  0.0931 -0.2303 -0.2086
57682W        W  673  29.870  18.039   8.363 -0.0630 -0.1040  0.0093
57683W        W  674   4.349  12.656  25.699  0.0569 -0.3450 -0.2371
57684W        W  675  13.313   1.344  10.014  0.2521  0.0795 -0.1816
57685W        W  676  23.444  15.477   4.206 -0.0556  0.0803 -0.0780
57686W        W  677   3.806  24.583   6.625  0.1181 -0.1804 -0.2281
57687W        W  678   8.699   1.341  22.365 -0.1614 -0.2919  0.2247
57688W        W  679   3.520   7.489   6.533 -0.0648 -0.1174 -0.1986
57689W        W  680  18.138  17.971  23.898  0.2802 -0.0996  0.2038
57690W        W  681  25.165   1.845   5.310  0.0240 -0.2513  0.5277
57691W        W  682  32.294  14.156   1.161  0.0605  0.0341  0.2187
57692W        W  683   4.771  11.923   8.678 -0.0205  0.2850  0.0812
57693W        W  684   4.708   2.747   5.362 -0.2447 -0.0255 -0.0579
57694W        W  685  32.275  10.253   9.912  0.0704 -0.3631  0.0962
57695W        W  686  27.481   6.310   9.810  0.2954 -0.1156 -0.1260
57696W        W  687   1.958  12.440   3.235  0.2419  0.1670 -0.0577
57697W        W  688   5.191   5.892   8.746  0.1499 -0.1704  0.1665
57698W        W  689   5.109  10.172   0.245  0.0822 -0.0890 -0.0759
57699W        W  690  20.522   3.489  26.071  0.0058 -0.0332  0.3238
57700W        W  691  33.508  12.942   5.606  0.1195  0.0657  0.2258
57701W        W  692  29.646   2.793  20.741  0.2474  0.0683 -0.2871
57702W        W  693  30.927  25.306  19.479  0.0763 -0.3654  0.2989
57703W        W  694  33.566  13.968  24.353  0.0562  0.0348 -0.0908
57704W        W  695   9.415  32.013  19.913  0.1430 -0.0400 -0.0977
57705W        W  696  30.532  10.081   2.093  0.0386 -0.2075 -0.1789
57706W        W  697  23.213   9.407   7.275  0.1127 -0.2135  0.2982
57707W        W  698  23.778  11.940   1.307  0.0632  0.4058 -0.1051
57708W        W  699  26.005  14.612  27.251 -0.1570 -0.0443  0.3449
57709W        W  700   1.756   0.870  21.291 -0.2994  0.0626  0.5014
57710W        W  701  28.679   9.018  26.049  0.0728  0.0196  0.0683
57711W        W  702   3.992  11.230  25.006  0.0368  0.0099  0.1579
57712W        W  703  12.004   4.831  20.485  0.1417  0.1136  0.0721
57713W        W  704  27.964  16.156   9.537 -0.1767 -0.0543  0.4439
57714W        W  705  33.636  32.422  19.030 -0.0914 -0.1399 -0.0539
57715W        W  706  19.090  17.815   7.684  0.2474  0.2517 -0.0536
57716W        W  707  31.479  11.988  23.734  0.0897  0.0440 -0.3510
57717W        W  708  15.991  19.853  26.662  0.1731 -0.0825  0.1528
57718W        W  709  14.678  11.227   1.063  0.4202  0.1417  0.0343
57719W        W  710   1.935  14.538  25.695  0.1786  0.2278  0.3638
57720W        W  711   1.901  11.142  20.196 -0.0142 -0.1508  0.0062
57721W        W  712   2.865  17.311   8.555  0.1165  0.1942  0.1174
57722W        W  713  29.472  21.659   4.012  0.0184 -0.0689 -0.0864
57723W        W  714   8.567   7.674  10.983  0.2447 -0.1304 -0.1618
57724W        W  715   8.065  32.423  25.620  0.2028  0.0292 -0.0772
57725W        W  716  25.504  10.455  22.123 -0.1263  0.1531  0.2033
57726W        W  717  29.682   1.015  19.315 -0.1110  0.0449  0.2852
57727W        W  718   4.301  18.216   6.310  0.0340  0.1151  0.0439
57728W        W  719  29.396  12.633  16.708 -0.0824  0.0111  0.2056
57729W        W  720  22.970   9.298   8.820 -0.2643 -0.0378  0.3572
57730W        W  721   6.609  10.056  19.532 -0.0968  0.1432  0.0160
57731W        W  722  13.988   9.941   0.544 -0.1152 -0.0826 -0.0291
57732W        W  723  33.640  12.212   1.390  0.1962 -0.0325 -0.0247
57733W        W  724   6.632  12.229  11.699  0.0591  0.1643  0.1582
57734W        W  725  18.704  33.887   0.613  0.2028 -0.3728  0.2278
57735W        W  726  31.648   4.590   1.644  0.1352  0.4112  0.1284
57736W        W  727  10.385  13.646   2.716  0.0981 -0.0165  0.2573
57737W        W  728   7.875  34.475  28.557  0.2259  0.0348  0.1580
57738W        W  729   9.399   8.028   6.286  0.2898 -0.2083 -0.0275
57739W        W  730   7.115  24.735   8.650 -0.1530  0.2349 -0.0879
57740W        W  731   3.741  14.388  24.273 -0.0679  0.0650  0.0304
57741W        W  732   3.599  12.114   0.310 -0.1642  0.0377  0.4416
57742W        W  733  21.523   6.498   4.882  0.0015 -0.2108 -0.3029
57743W        W  734  33.538  19.240   9.733  0.2700 -0.1252  0.0196
57744W        W  735   1.901  17.632  15.764  0.2961 -0.0888  0.2334
57745W        W  736   2.317  22.735  25.702  0.0477 -0.0452  0.0870
57746W        W  737  26.470   8.523   3.632  0.3010 -0.0135  0.0446
57747W        W  738  25.301  14.397  20.726 -0.1151  0.0264  0.0781
57748W        W  739   4.856   1.127  28.015 -0.1305  0.1004 -0.1168
57749W        W  740  23.550  12.846  17.772 -0.3134  0.1766 -0.0113
57750W        W  741  33.055  19.848  26.511  0.2371 -0.1366 -0.2665
57751W        W  742  16.173   5.039   7.186  0.1541 -0.1059  0.2092
57752W        W  743  28.709  31.560   2.689 -0.1309 -0.0581 -0.1406
57753W        W  744  12.693   2.125  20.628  0.1057  0.1096 -0.0379
57754W        W  745  30.407  12.264  28.280  0.4616 -0.6186  0.1405
57755W        W  746  22.458   0.772   0.814 -0.0256 -0.0010  0.1715
57756W        W  747  34.355  11.913   9.512  0.0811 -0.3816  0.0308
57757W        W  748  14.220  34.168   7.625 -0.0379 -0.1190 -0.1753
57758W        W  749   3.199  32.922   0.853 -0.1317 -0.1718  0.2178
57759W        W  750  19.099  29.073  25.957 -0.3334  0.0374 -0.1014
57760W        W  751  27.944  14.565   4.626 -0.0483  0.1678  0.0120
57761W        W  752   3.586  14.332  19.735  0.3682  0.1416 -0.2636
57762W        W  753  30.582  29.754  17.769  0.0817 -0.1580 -0.0359
57763W        W  754  31.647  13.893  21.022 -0.2574  0.0032  0.1878
57764W        W  755   8.404  12.983  15.249 -0.0243 -0.1860  0.3439
57765W        W  756  11.329  15.838   8.840 -0.1876  0.0680  0.0979
57766W        W  757   1.223   1.738   2.641  0.1194  0.1228 -0.0249
57767W        W  758   4.936  33.543   1.959  0.0580  0.2179  0.1477
57768W        W  759  21.377   7.660   2.578  0.3451  0.4405 -0.1087
57769W        W  760  27.290  29.386   0.557 -0.0400  0.0213  0.0795
57770W        W  761   9.320   5.159  25.805 -0.3496  0.1022 -0.1662
57771W        W  762   5.962  29.899   4.909  0.4081  0.1925  0.1494
57772W        W  763   0.978   2.879  24.628  0.3862  0.1448  0.1717
57773W        W  764   7.051  16.917   7.909  0.0489 -0.2012  0.2592
57774W        W  765  27.908   6.366  27.845  0.0891 -0.1961  0.3493
57775W        W  766  23.807   3.817   6.366  0.0400  0.2904  0.0004
57776W        W  767  34.706  17.671  15.625 -0.0882  0.1343 -0.0811
57777W        W  768   3.933   0.991  26.402  0.0631  0.4455 -0.1242
57778W        W  769  25.786   9.361   0.411  0.3284  0.0401 -0.0282
57779W        W  770  21.493   4.543   2.369 -0.1518  0.2782  0.0194
57780W        W  771  32.837   3.338   3.436  0.0938 -0.0455 -0.3059
57781W        W  772  14.744   5.164   0.222 -0.3478  0.0342  0.1132
57782W        W  773   7.446   8.896   9.752  0.4343 -0.2855  0.1316
57783W        W  774  12.148  32.473  28.383  0.2164  0.1035 -0.1836
57784W        W  775  30.051  32.257  20.901 -0.3382 -0.0069  0.0396
57785W        W  776   3.996  17.843  27.691  0.2196  0.0114  0.3121
57786W        W  777  11.629   4.282  20.076  0.1741  0.0430 -0.4639
57787W        W  778   1.024   3.267  10.084 -0.1192 -0.1116 -0.3019
57788W        W  779   7.596  12.836  25.813 -0.1529  0.0940  0.2412
57789W        W  780  11.117   2.384   1.319  0.0186 -0.1322 -0.2289
57790W        W  781   0.672  30.191  22.313 -0.1025  0.0699 -0.4070
57791W        W  782  27.438   3.512   5.061 -0.2617  0.1584 -0.3584
57792W        W  783   6.268   6.036   1.641 -0.3830 -0.0441 -0.1118
57793W        W  784   8.277   5.137   4.814  0.1133  0.2872 -0.1991
57794W        W  785  20.116   6.819   8.060 -0.3096 -0.2028  0.0841
57795W        W  786   3.874   7.056   5.377 -0.3395 -0.1590  0.0181
57796W        W  787  23.246   6.568   8.854  0.1980 -0.1033 -0.0854
57797W        W  788   4.346  25.403  10.594  0.0591 -0.0093  0.1172
57798W        W  789   3.987   2.347   3.046  0.1625  0.0664 -0.0257
57799W        W  790   5.490   1.937   7.022  0.0650 -0.2695  0.0225
57800W        W  791   2.912   8.334   2.661  0.1028 -0.0167  0.2514
57801W        W  792  12.049  29.911   5.437 -0.0607  0.0734 -0.0298
57802W        W  793  31.708  14.157   9.433  0.0823 -0.0342  0.2865
57803W        W  794   9.823  31.169  28.794 -0.0509 -0.3476 -0.3054
57804W        W  795  27.038   3.210  16.694  0.0856 -0.1908  0.0329
57805W        W  796  15.507   9.717   3.567 -0.4257 -0.0126  0.2244
57806W        W  797  24.587  20.268  13.390  0.0996  0.0730 -0.1399
57807W        W  798   7.774  15.134   7.739  0.2741 -0.1290  0.1247
57808W        W  799  29.500  11.221   6.867  0.0198 -0.0692  0.1760
57809W        W  800  11.518   7.754   9.198  0.2708  0.0080  0.1101
57810W        W  801  33.466  22.317  21.052 -0.2549 -0.3007 -0.1559
57811W        W  802   2.181   1.787   4.059  0.0263  0.1586  0.0574
57812W        W  803  14.112  12.079  28.283 -0.1804  0.3792  0.1617
57813W        W  804   9.336   4.974   9.091  0.1453 -0.1287 -0.0804
57814W        W  805  28.626   7.360   1.104  0.3004 -0.1350  0.2152
57815W        W  806  33.334  21.294   6.278  0.0271 -0.0285  0.3326
57816W        W  807  14.872   2.585  15.791 -0.0012  0.3051 -0.0963
57817W        W  808   7.370  13.868  20.762  0.1168 -0.1460  0.3936
57818W        W  809   5.800   8.244  24.518 -0.1047 -0.1502  0.0261
57819W        W  810  20.865   2.132   4.987  0.2279 -0.1547 -0.2566
57820W        W  811  25.227  26.906   5.737  0.0052  0.0657 -0.0465
57821W        W  812  30.329  14.422  10.159  0.1922 -0.0451  0.0841
57822W        W  813  16.509  31.579  27.256 -0.0815 -0.1078  0.2520
57823W        W  814  12.310  16.281   3.409  0.0582 -0.0783 -0.3626
57824W        W  815  10.095  28.910  24.917 -0.0581  0.2613 -0.0495
57825W        W  816   1.622  30.039  19.154 -0.0621 -0.3543  0.1451
57826W        W  817  33.858  18.568  28.080 -0.2936  0.0952 -0.3863
57827W        W  818  31.996  11.039  19.355  0.0247 -0.3173 -0.5028
57828W        W  819  34.293  13.088   7.523 -0.5137 -0.0934 -0.0343
57829W        W  820  10.894  10.983   5.580 -0.2156 -0.3390  0.2909
57830W        W  821   3.070   4.236   9.525  0.0901 -0.0590  0.0605
57831W        W  822  11.686  10.955  24.002  0.3179 -0.0926  0.2012
57832W        W  823   7.997  11.708   9.620 -0.1659 -0.2487 -0.1595
57833W        W  824  28.869  10.550   9.963 -0.0526 -0.0484  0.2946
57834W        W  825  33.081   6.511   8.599 -0.1380  0.1106  0.1720
57835W        W  826  31.344   7.559   7.048  0.3482  0.0768 -0.2084
57836W        W  827  28.351  12.283   6.179 -0.1084 -0.0549 -0.1861
57837W        W  828   9.558   0.383  22.108 -0.0883 -0.1483 -0.2490
57838W        W  829  33.071  14.290  18.729 -0.0180  0.2411 -0.0963
57839W        W  830  31.565   5.796  18.448  0.1068  0.1136 -0.0012
57840W        W  831  32.656  30.709   0.402  0.1712 -0.2873 -0.1976
57841W        W  832  26.214   5.168   1.142 -0.0375  0.3466 -0.1474
57842W        W  833  26.243  12.163  14.527 -0.1763 -0.0507 -0.0519
57843W        W  834  30.200   7.981   9.514  0.0267 -0.1246  0.3404
57844W        W  835  23.584   4.826   7.039  0.2611 -0.3502 -0.4333
57845W        W  836   9.710   3.780   4.572  0.1207 -0.2202 -0.0922
57846W        W  837  22.540  26.491  28.387 -0.0354 -0.1152  0.2316
57847W        W  838  24.843   7.267   7.797 -0.2162 -0.0155  0.0912
57848W        W  839   7.310  15.391  26.738  0.1454  0.0753  0.1424
57849W        W  840  26.006  13.669  28.052 -0.1543  0.1971 -0.0335
57850W        W  841  24.943   5.513  26.367  0.2676  0.0053 -0.0030
57851W        W  842   8.519  17.268   2.742 -0.0136 -0.0891 -0.2625
57852W        W  843  34.552  26.220  26.355 -0.3138 -0.0095 -0.1634
57853W        W  844   0.361   5.164  26.396  0.0576  0.2343 -0.0052
57854W        W  845  24.082  34.291  18.623 -0.0664 -0.0451  0.1287
57855W        W  846  25.420   0.308   3.450 -0.1109  0.0601 -0.2600
57856W        W  847  32.024  12.857   6.980 -0.0646 -0.0539 -0.2904
57857W        W  848   1.445  24.964  22.462 -0.4525  0.0208  0.1281
57858W        W  849  25.172   4.523  18.077 -0.1863 -0.1307 -0.0333
57859W        W  850   5.357   9.775   3.911  0.3363  0.1345  0.3271
57860W        W  851  13.098  15.434  21.046  0.1934  0.0868  0.0573
57861W        W  852   1.450   1.765   4.261 -0.1532  0.1507  0.3274
57862W        W  853   3.692  20.367   2.058  0.2251 -0.0096 -0.2560
57863W        W  854  25.230  12.728  19.903 -0.0423  0.3653  0.0712
57864W        W  855  12.042  21.932  28.350 -0.0375  0.0187 -0.1060
57865W        W  856  28.129  11.183  10.389 -0.0569  0.1255 -0.4651
57866W        W  857   1.759  22.218  15.089  0.1050  0.0244  0.2469
57867W        W  858  27.452  19.128  19.141 -0.1063  0.0430  0.0133
57868W        W  859  20.454  11.223   2.154  0.0705 -0.2412  0.2403
57869W        W  860  32.834  24.252   0.439 -0.1963 -0.5202  0.0545
57870W        W  861  28.188   3.515   6.649  0.1704 -0.2660 -0.1536
57871W        W  862  27.422  34.091   5.307 -0.1611  0.0509 -0.2134
57872W        W  863   0.079   8.904   2.074  0.0303  0.4066 -0.2175
57873W        W  864   4.120  22.570  29.137  0.2559  0.1501 -0.0894
57874W        W  865  34.368   4.506   1.476 -0.1494 -0.3140 -0.0558
57875W        W  866   2.068  16.161   5.562 -0.0753  0.0449  0.0420
57876W        W  867  17.717  24.995  27.007 -0.4727 -0.1282 -0.0807
57877W        W  868  23.906   1.925  18.651  0.0263  0.1741 -0.0396
57878W        W  869  28.588  23.745   7.521 -0.2601 -0.0940  0.1904
57879W        W  870  14.676   9.340  22.798  0.2141 -0.1255  0.1749
57880W        W  871  31.756  21.450  19.462  0.1423 -0.0642 -0.0708
57881W        W  872  16.428  13.851   9.118 -0.3365 -0.4621  0.2352
57882W        W  873  33.103   1.880   7.687 -0.1550  0.2251 -0.2475
57883W        W  874  22.355   5.061   4.903 -0.0869  0.1211 -0.1569
57884W        W  875   7.180  17.786  28.537  0.1189  0.0213 -0.0050
57885W        W  876  29.837   4.417   4.036 -0.5150 -0.0587  0.0313
57886W        W  877  33.210   1.362  16.660  0.1559  0.1865 -0.2414
57887W        W  878  14.975   1.542  23.387  0.2811  0.2821 -0.0796
57888W        W  879  25.790  30.571  14.056  0.0518 -0.1403 -0.0713
57889W        W  880   5.939  26.310  15.402 -0.1712  0.1076  0.0442
57890W        W  881  31.127  15.432   6.042 -0.0311 -0.4261  0.3759
57891W        W  882  15.955   4.506  27.584 -0.1460 -0.0639 -0.0847
57892W        W  883  32.320  26.500  21.689  0.1274  0.0469  0.0270
57893W        W  884  11.027  22.941  16.715  0.0114  0.4576 -0.1508
57894W        W  885  31.756   2.932  19.839  0.2739 -0.1899 -0.1571
57895W        W  886  21.104  10.931  25.405 -0.0182 -0.2049  0.1194
57896W        W  887   8.449  24.760  29.151 -0.1470 -0.0200 -0.0055
57897W        W  888   7.829   3.188   4.304 -0.0035 -0.4277 -0.1519
57898W        W  889  29.802   2.838  27.609 -0.2243 -0.1926 -0.3357
57899W        W  890  23.058   3.166  28.240 -0.0603 -0.5048 -0.0606
57900W        W  891  27.483  21.992  14.797  0.3720  0.0396  0.2328
57901W        W  892  32.166  28.972   0.739 -0.1802  0.0943 -0.0089
57902W        W  893   8.204  16.008   5.408  0.0743  0.4973 -0.0239
57903W        W  894  28.245   6.674  21.176  0.2133  0.2747  0.0110
57904W        W  895   1.503  34.658   6.928 -0.0732 -0.0906  0.2856
57905W        W  896  11.500  10.311  21.944  0.1954 -0.1995 -0.0069
57906W        W  897   0.327  11.088   5.311  0.2580  0.0975 -0.0471
57907W        W  898  34.470  27.180   5.900  0.0184 -0.1628 -0.3468
57908W        W  899  12.815  15.516   8.469 -0.0513  0.0607 -0.3604
57909W        W  900   5.700  16.678   1.421  0.0789 -0.2712  0.1637
57910W        W  901  22.298  17.263  21.142 -0.0913  0.1780 -0.0008
57911W        W  902  24.281   7.927  23.969 -0.3301 -0.2290 -0.0750
57912W        W  903  32.328  34.512   3.862 -0.1671 -0.0465  0.3340
57913W        W  904  27.667   7.270   0.527 -0.2494 -0.1972 -0.2689
57914W        W  905  11.242  13.007  27.378  0.2076 -0.0081 -0.0372
57915W        W  906   4.228  33.492   8.746 -0.0477 -0.4473 -0.2635
57916W        W  907  28.282   3.073  17.512 -0.1654  0.1975  0.0523
57917W        W  908  31.333   0.720  18.731  0.1682 -0.0481 -0.1063
57918W        W  909   7.914   5.314   1.179  0.0481 -0.1836  0.0235
57919W        W  910  30.802  11.448  10.531  0.3735  0.0352  0.1485
57920W        W  911  17.126  20.778   7.180 -0.0483  0.1718 -0.0366
57921W        W  912   7.687   0.218  21.492 -0.0419  0.2294 -0.1434
57922W        W  913  26.849  15.102  21.645 -0.0506 -0.1056  0.0059
57923W        W  914   7.466   8.844   7.064  0.1322 -0.2903  0.0748
57924W        W  915  31.782   3.927   4.732  0.0825 -0.0773 -0.3268
57925W        W  916   2.260  25.731   3.359  0.2150 -0.1147  0.0557
57926W        W  917   0.884   6.838   3.827  0.1733  0.0054 -0.1816
57927W        W  918   7.078  12.515   7.605  0.0248  0.2787 -0.1707
57928W        W  919  25.155  18.409  20.756 -0.3067  0.1885 -0.3638
57929W        W  920   6.290  19.980  18.958  0.3682 -0.0713 -0.1724
57930W        W  921   9.692  22.051   2.318  0.0829 -0.1244 -0.0783
57931W        W  922  32.672  14.418   6.288  0.0362 -0.1048  0.2318
57932W        W  923   2.837  33.508   0.467  0.0844  0.2448  0.1149
57933W        W  924   0.006  17.508  10.469 -0.0884 -0.0441 -0.1728
57934W        W  925  12.450  19.734  17.399  0.0799  0.2719 -0.1969
57935W        W  926  33.496   8.137   1.658 -0.0689  0.2076  0.2013
57936W        W  927  16.212   5.035   8.140 -0.0264  0.0829  0.0259
57937W        W  928  17.747   4.057  22.255  0.1083  0.0971 -0.1710
57938W        W  929   6.980   1.292   4.280  0.0683 -0.2225 -0.0193
57939W        W  930  31.521   5.792   4.268 -0.0408  0.0790 -0.2998
57940W        W  931   9.372  14.518  26.309  0.0248 -0.2161 -0.1694
57941W        W  932   7.265   2.967  24.718 -0.3423 -0.1509  0.0727
57942W        W  933  29.178  32.209  13.763  0.2329  0.1315  0.1521
57943W        W  934  30.662  11.909  22.597 -0.2634  0.0454 -0.2138
57944W        W  935  15.035  28.769  27.858 -0.2370  0.0623  0.0749
57945W        W  936  23.666   7.647   0.876  0.2494 -0.1698  0.1280
57946W        W  937  10.571  14.941  18.454 -0.0781  0.1833  0.1401
57947W        W  938  10.234  10.142  20.763  0.0597  0.1266  0.1421
57948W        W  939  22.670   1.411   8.364  0.2356 -0.2694  0.0324
57949W        W  940   2.620   7.644  10.603 -0.2946  0.2840 -0.2393
57950W        W  941  12.582  20.945   5.050 -0.0824  0.1341 -0.4505
57951W        W  942  27.573  28.838  24.959  0.0744 -0.0863 -0.0897
57952W        W  943   6.384   4.584  25.619 -0.3709  0.1159  0.0032
57953W        W  944  32.895  27.408  25.638  0.0207 -0.0585 -0.3090
57954W        W  945  13.374   6.606  25.826  0.0012  0.3819 -0.0127
57955W        W  946  31.091   5.996  17.472  0.1270  0.0163  0.0665
57956W        W  947  27.008   7.970   8.285  0.2535  0.0704 -0.1918
57957W        W  948   5.122  12.126  20.603  0.2879 -0.0452  0.2409
57958W        W  949  34.688   6.489  25.235 -0.5788  0.0659  0.1489
57959W        W  950   5.954   2.278  15.894  0.0401 -0.0804  0.1597
57960W        W  951  20.855  13.829   9.313  0.0736  0.2003  0.1389
57961W        W  952  14.454   7.403  10.371  0.4291  0.1912 -0.1270
57962W        W  953   2.438  16.742  18.640 -0.2513 -0.2214  0.2014
57963W        W  954   8.363  24.274  22.545  0.0864 -0.1318 -0.0582
57964W        W  955  27.292   3.719   9.885  0.1265  0.1193  0.0006
57965W        W  956   6.848  10.595  23.705  0.2968  0.2623  0.1598
57966W        W  957   6.563  26.548  21.071 -0.1601 -0.1083 -0.2856
57967W        W  958  12.837  15.469  16.130 -0.0821 -0.2442  0.2251
57968W        W  959  28.404   2.206  13.500 -0.1796  0.0719  0.0845
57969W        W  960   1.989  23.204   5.904  0.1551 -0.1824  0.0968
57970W        W  961  20.089   7.834  22.111  0.1770 -0.0625 -0.2676
57971W        W  962  10.276   5.076   5.887  0.0071  0.2345 -0.3391
57972W        W  963   9.733   8.029   2.063  0.0692  0.1833 -0.0394
57973W        W  964   8.207   7.490  20.108  0.0361 -0.0973  0.1526
57974W        W  965   7.060   4.375   5.410  0.0819  0.0309 -0.1439
57975W        W  966  24.910   0.933  16.427 -0.2116  0.0757 -0.0036
57976W        W  967  32.982  15.213   8.693 -0.1724 -0.0714 -0.1395
57977W        W  968  18.961   6.922   1.279  0.1736 -0.3707  0.0124
57978W        W  969  25.116   9.608  22.213  0.0736 -0.1873  0.2422
57979W        W  970   4.077  32.083   8.245 -0.0389  0.2805  0.1155
57980W        W  971   2.895  33.839   1.229 -0.2362  0.0438  0.2855
57981W        W  972   8.166  24.747  18.308 -0.0874 -0.0333 -0.1242
57982W        W  973   2.158  29.344   3.723 -0.1162  0.2594  0.0608
57983W        W  974  25.993  32.956   2.133 -0.0089  0.2156  0.1101
57984W        W  975  25.585  19.820  23.067 -0.2645  0.1246 -0.2238
57985W        W  976  23.073  11.438  28.337 -0.0416  0.0293 -0.1312
57986W        W  977  31.412  11.022  18.275  0.3668 -0.1818 -0.2613
57987W        W  978  10.554  34.303  29.155  0.0832 -0.0701  0.0004
57988W        W  979  12.560  12.199   5.613 -0.2000  0.1900  0.3374
57989W        W  980   4.286   5.021   7.964 -0.0363 -0.0373  0.3507
57990W        W  981   3.584  28.810   4.984  0.1107 -0.1013 -0.0094
57991W        W  982  34.231   7.847   9.430  0.1641  0.1060  0.3213
57992W        W  983   0.615   0.994   4.481  0.0924 -0.1323 -0.1048
57993W        W  984  33.636   8.169  19.774  0.0664  0.1101 -0.1445
57994W        W  985   7.289  14.706   2.444 -0.1721 -0.1355  0.2590
57995W        W  986   2.064   3.373  18.931  0.1447  0.0108 -0.2195
57996W        W  987  34.565  14.935  26.677 -0.1148 -0.3561  0.0381
57997W        W  988   1.104   7.704   7.599 -0.0531  0.0131  0.1486
57998W        W  989   2.496   5.343   3.292  0.2268 -0.0945 -0.2201
57999W        W  990  19.709   9.196  19.871  0.0681 -0.3047  0.1507
58000W        W  991   5.453   2.308   3.966  0.1005 -0.2207 -0.1732
58001W        W  992  10.849   7.279   3.694 -0.0801 -0.1343 -0.0659
58002W        W  993  32.384   3.646   6.093 -0.2256 -0.1187  0.1383
58003W        W  994  23.118   0.599  28.112 -0.1275  0.0878  0.1976
58004W        W  995   4.579  11.715   0.535 -0.1320  0.3163  0.0667
58005W        W  996  33.382  11.698  18.161  0.0616  0.1199  0.0667
58006W        W  997  18.468   7.115   1.517  0.3228  0.2117 -0.1872
58007W        W  998   3.011  33.790   8.778  0.1894 -0.3459  0.2014
58008W        W  999  19.122  28.993  17.299 -0.1405  0.1155 -0.0512
58009W        W 1000  27.186  14.847   5.237  0.1727 -0.0083  0.0825
58010W        W 1001   7.439  21.972   7.693  0.0252  0.1342  0.0857
58011W        W 1002   1.845   3.212  23.065 -0.0424  0.2282 -0.2093
58012W        W 1003  33.643  33.050   1.690  0.0121  0.1111  0.2407
58013W        W 1004  29.658   4.567   6.390  0.1189 -0.2063 -0.1854
58014W        W 1005  28.343   1.844   8.098  0.0034  0.1247  0.0690
58015W        W 1006  15.938  17.254   8.322 -0.2581 -0.0040 -0.0115
58016W        W 1007  30.595  11.201  21.809  0.3322  0.1174 -0.1357
58017W        W 1008  26.153   4.184   0.124  0.0669 -0.0681  0.0309
58018W        W 1009  27.412  19.141  27.680  0.0049 -0.0188  0.2057
58019W        W 1010   4.596  17.946   4.965  0.0346  0.2844  0.1311
58020W        W 1011   8.889  14.229  25.405  0.4969 -0.1309 -0.2675
58021W        W 1012   6.510  22.037  23.650 -0.0320 -0.0934  0.0868
58022W        W 1013   5.017  31.522  29.198 -0.1756 -0.1373 -0.1325
58023W        W 1014   8.739   4.186  15.947  0.0702 -0.0995 -0.2074
58024W        W 1015   5.237  13.777   3.491 -0.0430  0.0641 -0.0853
58025W        W 1016  10.280   6.209  27.545 -0.0237 -0.2524 -0.0246
58026W        W 1017   3.175  14.616   9.547  0.2144 -0.0098  0.0464
58027W        W 1018   1.012  17.904  21.716  0.0508  0.1334 -0.2159
58028W        W 1019  10.351   7.837  27.675  0.2190  0.0858  0.3765
58029W        W 1020  15.062  12.990   7.543  0.1601 -0.0341 -0.0203
58030W        W 1021  29.617  31.584  18.541  0.0153  0.0433 -0.0445
58031W        W 1022  25.653  10.096   3.572 -0.1866 -0.4017 -0.1333
58032W        W 1023   5.469  15.879  28.491  0.1518 -0.0777  0.0290
58033W        W 1024   9.107  14.414   5.893  0.3475 -0.0470 -0.3053
58034W        W 1025   7.612  26.798  25.431  0.0127  0.4988 -0.1499
58035W        W 1026   1.702  15.230   6.635 -0.3388  0.3614 -0.1770
58036W        W 1027  12.186   3.882  24.383  0.0513 -0.1388 -0.1730
58037W        W 1028  10.600  31.155  17.934  0.0221  0.0188 -0.4325
58038W        W 1029   6.240  13.712  10.230  0.1531 -0.1105 -0.1046
58039W        W 1030   1.867  32.310  10.534  0.0816 -0.1793 -0.0970
58040W        W 1031  28.782  16.154   1.617 -0.1084  0.0711  0.0877
58041W        W 1032  34.693  13.669  24.019  0.4162  0.4412  0.2290
58042W        W 1033   5.006  26.544   5.932  0.2875 -0.1053  0.0419
58043W        W 1034  29.540  13.125  16.203  0.1606 -0.0560  0.0771
58044W        W 1035  26.469  10.019   2.953 -0.1569  0.2731  0.3135
58045W        W 1036  26.505   8.257   4.426  0.2233 -0.4131 -0.0124
58046W        W 1037  12.937  15.274   5.919 -0.2149 -0.0209  0.0799
58047W        W 1038   9.558  29.055  23.941  0.0822  0.4970 -0.0405
58048W        W 1039  32.469  18.264   7.194 -0.1939  0.2849 -0.1361
58049W        W 1040  26.038  10.016   3.299 -0.0596 -0.1979  0.0732
58050W        W 1041  21.903  12.284  28.639 -0.1888 -0.4844 -0.0381
58051W        W 1042  20.140   0.051   0.494  0.1089 -0.1455 -0.3791
58052W        W 1043  15.958  15.894  28.906 -0.0762 -0.0937  0.2762
58053W        W 1044   4.841   7.732  11.686  0.2486  0.2284 -0.0319
58054W        W 1045   6.080   4.823   1.195 -0.0713 -0.0247  0.0852
58055W        W 1046  33.784  17.143  28.698 -0.0474  0.2492  0.0018
58056W        W 1047  17.391   6.791   4.425  0.0434  0.3534  0.4910
58057W        W 1048   7.862  14.766   3.979 -0.0899  0.0570  0.3068
58058W        W 1049  22.004   4.312   4.934  0.3150  0.2505  0.1873
58059W        W 1050   3.561   2.627  21.248  0.0875  0.1724  0.1077
58060W        W 1051   2.794  10.922  17.948  0.2559 -0.1679  0.2940
58061W        W 1052  13.977  22.410  21.471 -0.0060  0.1433 -0.0197
58062W        W 1053   3.684  34.560   7.387 -0.2846  0.2611  0.0196
58063W        W 1054   1.941   6.748   8.067  0.0248 -0.1117 -0.1321
58064W        W 1055  34.241  31.219  16.834 -0.3979  0.2628  0.0425
58065W        W 1056   1.738  22.199   2.230  0.0060 -0.0467  0.4078
58066W        W 1057  18.726   2.173   2.447 -0.1014  0.1068 -0.1079
58067W        W 1058   2.889   4.163  19.564 -0.2291 -0.2293 -0.2166
58068W        W 1059   1.606   5.690  24.963  0.0863  0.2715 -0.4264
58069W        W 1060  11.591   6.021  24.041 -0.2085 -0.0950 -0.2967
58070W        W 1061  13.534   6.674  26.330 -0.1423  0.0797  0.0061
58071W        W 1062  27.240  12.233  14.449  0.0113 -0.1666 -0.1982
58072W        W 1063   3.900   8.768  20.161 -0.1077  0.1557 -0.0103
58073W        W 1064   6.195  18.869  26.989  0.1589 -0.3544  0.1007
58074W        W 1065  31.796   1.617  21.020 -0.2796 -0.1852  0.0379
58075W        W 1066   3.785  11.522   2.035 -0.0179 -0.0155 -0.0719
58076W        W 1067  26.597   8.197   0.296  0.0716 -0.0461 -0.1730
58077W        W 1068  28.160   0.808  15.034  0.0516 -0.0275 -0.2398
58078W        W 1069   7.090  15.127   6.969  0.0175 -0.1164 -0.1256
58079W        W 1070   7.421   3.092  28.938  0.1834  0.0583  0.0460
58080W        W 1071   8.796  26.445   5.532  0.3091  0.2304  0.1817
58081W        W 1072   2.192  11.489  10.452 -0.0667  0.1308 -0.2286
58082W        W 1073   2.609  20.756  18.913 -0.2559 -0.1217 -0.0864
58083W        W 1074  22.440   4.300  21.899  0.0346  0.2622 -0.0153
58084W        W 1075   4.451   1.744   5.168 -0.1469  0.2284 -0.2637
58085W        W 1076  15.814  30.731  27.581  0.2553 -0.0968 -0.1194
58086W        W 1077  21.997   6.829  13.866 -0.2390 -0.1229 -0.0710
58087W        W 1078  33.324  16.485  27.967  0.0490  0.1405  0.1385
58088W        W 1079   8.460   5.564  24.087 -0.0968 -0.1582  0.1922
58089W        W 1080   3.817  14.299  24.765 -0.1636  0.2565  0.0217
58090W        W 1081   4.207   8.267  24.150  0.1564  0.0838 -0.0004
58091W        W 1082   2.799   6.772  10.607 -0.2064 -0.1989  0.0672
58092W        W 1083  23.010  32.729  26.321 -0.0175  0.5439 -0.0327
58093W        W 1084  15.600  34.080   3.190 -0.0340 -0.0438  0.0364
58094W        W 1085  31.339  23.413   8.087  0.0820 -0.1716  0.1302
58095W        W 1086  21.943  27.323  19.256 -0.1767  0.0252  0.1108
58096W        W 1087  10.680   0.188  11.119  0.0102  0.0237  0.0998
58097W        W 1088   0.516  11.687   2.022 -0.2328 -0.0133 -0.1047
58098W        W 1089   8.610   6.339  29.054 -0.1594 -0.2031  0.1785
58099W        W 1090  30.208  10.580   1.184  0.0197  0.2348 -0.3059
58100W        W 1091  10.467  20.932   6.757  0.2127 -0.4279  0.0491
58101W        W 1092  13.366   9.752   7.009  0.2417  0.4964 -0.3526
58102W        W 1093   0.198  18.047  24.558  0.0364 -0.0889 -0.1652
58103W        W 1094  22.694  15.668  22.148  0.0455 -0.0559  0.2900
58104W        W 1095  15.459  16.363   7.067  0.0898  0.1089 -0.3574
58105W        W 1096  13.802  34.581   4.450 -0.1243  0.3495  0.0001
58106W        W 1097   8.777   7.988   6.298  0.1118 -0.0143 -0.0528
58107W        W 1098  19.599   7.876   0.558  0.0528  0.1182 -0.0986
58108W        W 1099  27.270  30.502   7.234  0.2630  0.1148 -0.0214
58109W        W 1100  20.401  29.589  27.327  0.1099 -0.0167 -0.0847
58110W        W 1101  30.496   5.240  15.222 -0.2423 -0.1230 -0.1938
58111W        W 1102  28.962   9.506   8.947  0.0320  0.0057 -0.1378
58112W        W 1103   6.086   8.254  24.071  0.1507  0.0045 -0.1613
58113W        W 1104  11.495  27.660   0.382 -0.2726  0.2509  0.0129
58114W        W 1105  33.730   6.841  25.575 -0.0604 -0.1655 -0.0808
58115W        W 1106   5.749   0.946   1.866 -0.2226 -0.1728  0.2208
58116W        W 1107   2.976  10.441   1.768 -0.1465 -0.1944 -0.4182
58117W        W 1108  21.047  33.721   6.702 -0.1401 -0.0483 -0.0317
58118W        W 1109   7.407  28.060  10.393 -0.0008  0.2277  0.3658
58119W        W 1110  15.073  11.596  24.574 -0.1204 -0.0830  0.2001
58120W        W 1111  31.317  18.684  25.657  0.0333  0.1126 -0.2344
58121W        W 1112   2.987  20.054  28.350 -0.1632  0.1130 -0.4844
58122W        W 1113  32.657  19.838   4.406 -0.0227  0.1047 -0.2686
58123W        W 1114  18.042  24.367  25.043  0.0349  0.0691 -0.1598
58124W        W 1115  10.219  14.886   4.222 -0.0282  0.1625 -0.0109
58125W        W 1116  19.366  15.609  16.595  0.0512  0.2664  0.1666
58126W        W 1117  27.984  32.675   8.002  0.0349  0.0320 -0.4115
58127W        W 1118   0.310  12.440  24.075  0.1140 -0.0380 -0.0840
58128W        W 1119  10.495  27.831  21.150 -0.0901  0.1232 -0.0536
58129W        W 1120   8.654  21.733  19.292  0.0897  0.0160 -0.0475
58130W        W 1121  27.343   8.826   0.011 -0.0159  0.0812 -0.5334
58131W        W 1122  26.084   7.492  20.595  0.0694  0.3366 -0.3920
58132W        W 1123  13.553  34.511   0.057 -0.1805  0.1000 -0.0497
58133W        W 1124  19.045   3.898  20.859  0.0413  0.0477 -0.1331
58134W        W 1125   1.805  14.505   7.326 -0.1751  0.1081 -0.1532
58135W        W 1126  32.021  18.400   7.023  0.3451 -0.0661 -0.0748
58136W        W 1127   2.529  18.077   3.121 -0.0426 -0.2818  0.1902
58137W        W 1128  10.257   8.195   7.000 -0.1766  0.3843  0.0410
58138W        W 1129   8.890   5.530  21.569 -0.2648  0.0347 -0.2324
58139W        W 1130   9.186  12.445   6.945 -0.2009 -0.1463  0.2083
58140W        W 1131   5.239  21.131  24.028 -0.1626  0.0228  0.2569
58141W        W 1132  31.394  33.602   2.909 -0.1479 -0.3559  0.1475
58142W        W 1133  22.779  17.116  20.241 -0.0849 -0.1490 -0.0386
58143W        W 1134   3.181  32.914  27.021 -0.2559  0.4020  0.1129
58144W        W 1135  16.269  31.117   5.672 -0.0621 -0.0599  0.1101
58145W        W 1136  14.945   4.271  27.624 -0.1448 -0.2288 -0.1339
58146W        W 1137   8.661   7.779   5.818 -0.2703  0.0397  0.0524
58147W        W 1138  10.177   7.652  20.139 -0.1088  0.2966 -0.0375
58148W        W 1139  17.331  24.435  20.961  0.1154 -0.0417  0.1896
58149W        W 1140  23.892  20.837  23.647  0.1429  0.0332 -0.1120
58150W        W 1141   0.603   4.714   9.151 -0.3795  0.1321  0.0256
58151W        W 1142   0.760   5.314  27.351  0.2040 -0.1442 -0.1052
58152W        W 1143  15.202  22.853   9.122 -0.4004  0.0111  0.1765
58153W        W 1144  10.912  14.063   1.902  0.0740 -0.1405  0.1460
58154W        W 1145   9.041   4.508   4.473  0.0395  0.2345 -0.1476
58155W        W 1146  10.237  16.264   7.120 -0.1712 -0.1505 -0.0788
58156W        W 1147  24.903  11.281   4.524 -0.0654 -0.1561  0.0821
58157W        W 1148  13.769  20.328  22.056 -0.0662  0.1709 -0.0106
58158W        W 1149   5.432  21.999   4.680  0.0170  0.1360 -0.0684
58159W        W 1150   7.128  25.098   5.260 -0.2838  0.1371  0.0518
58160W        W 1151  17.557  13.689  21.702  0.1711  0.2355  0.2132
58161W        W 1152  10.996   5.919  11.155 -0.1915  0.1015 -0.2047
58162W        W 1153  13.689   2.124   5.117  0.4079 -0.2150 -0.2304
58163W        W 1154  19.307  12.384  21.723  0.0794  0.1420 -0.3034
58164W        W 1155   5.959  12.042   5.745 -0.2454 -0.2074 -0.0209
58165W        W 1156  26.878  13.992   3.892 -0.2329 -0.0250  0.1271
58166W        W 1157  11.212  11.557  27.316 -0.2478 -0.0030  0.0808
58167W        W 1158   5.536  12.310  18.443 -0.1904  0.3419 -0.0577
58168W        W 1159  28.850  15.115   7.259 -0.2509  0.1442 -0.0508
58169W        W 1160  33.129   9.989  28.701 -0.0824 -0.4079  0.0032
58170W        W 1161  32.480  10.433   3.943  0.1542  0.0725  0.1699
58171W        W 1162   0.771   2.452  10.083 -0.0986  0.0034 -0.0643
58172W        W 1163  23.176  22.993  25.970 -0.3968  0.1050 -0.0815
58173W        W 1164  27.110  25.605  17.020 -0.0272  0.3837  0.1917
58174W        W 1165   6.899  16.047   6.192 -0.0087  0.5051 -0.1627
58175W        W 1166  18.536   2.286  14.396 -0.1607 -0.0559  0.0018
58176W        W 1167   3.394   8.325  25.051  0.1436 -0.1688  0.1228
58177W        W 1168  17.038  30.377   1.100 -0.1512  0.2347  0.3425
58178W        W 1169  11.261  14.443  26.765 -0.0706 -0.0212 -0.1079
58179W        W 1170  26.419   4.459   2.635  0.2251 -0.2907 -0.1667
58180W        W 1171  11.456  17.795   1.964  0.0702  0.1873  0.0887
58181W        W 1172  13.804  15.810  22.198  0.0435 -0.3477  0.0460
58182W        W 1173  28.326  16.592  10.549  0.0132  0.2325 -0.1035
58183W        W 1174  13.931  10.642   1.585 -0.1621 -0.0571 -0.1939
58184W        W 1175   4.543  32.298   8.182 -0.1256 -0.0818  0.0040
58185W        W 1176   5.324   8.005   9.604 -0.0242  0.3059  0.4135
58186W        W 1177  10.215   5.595   5.723  0.1033  0.2617  0.2508
58187W        W 1178  26.618   0.349  23.094 -0.1245 -0.1918 -0.3028
58188W        W 1179  16.457  10.247   8.071 -0.0686 -0.0279 -0.3489
58189W        W 1180  28.315   2.752   6.084  0.2221 -0.5403 -0.2141
58190W        W 1181   4.063  19.967   1.726 -0.0340  0.1074  0.2823
58191W        W 1182  18.595  33.811  20.253 -0.0913 -0.0395 -0.0001
58192W        W 1183   3.367  23.761  17.459 -0.3785 -0.1977 -0.1089
58193W        W 1184  27.862   4.350  28.337  0.1815 -0.0126  0.0639
58194W        W 1185  19.125  13.989  21.300  0.2520  0.2044 -0.0419
58195W        W 1186   0.893  30.305   8.199  0.0243 -0.1186  0.0859
58196W        W 1187   3.132  19.083  10.995  0.2243 -0.0816 -0.1903
58197W        W 1188   5.486   3.591   2.754 -0.0950  0.1314 -0.0629
58198W        W 1189  12.732  18.792   3.100 -0.0386 -0.0314 -0.1379
58199W        W 1190  23.980  31.106   1.046  0.0875  0.1980  0.1007
58200W        W 1191   4.515  19.210   6.723  0.1812  0.2511 -0.0523
58201W        W 1192  29.303  20.382   2.508  0.0596 -0.2049 -0.2496
58202W        W 1193   3.529  18.735   1.828  0.1042  0.0637 -0.2016
58203W        W 1194   5.291   7.782   4.736 -0.2378  0.2849  0.1762
58204W        W 1195   8.842   9.525   2.694 -0.2180 -0.2171 -0.0258
58205W        W 1196  16.189  11.106  26.326  0.0891 -0.3092 -0.0345
58206W        W 1197  30.125  14.783  28.041 -0.0105 -0.0834 -0.0640
58207W        W 1198  10.038   6.043  26.679 -0.0042  0.1564 -0.2677
58208W        W 1199  25.968  12.483   9.238  0.4212 -0.0352  0.0032
58209W        W 1200   0.458  11.292   4.828  0.1588  0.2154 -0.0519
58210W        W 1201  20.447  17.914   7.042  0.0543  0.0137 -0.2019
58211W        W 1202  20.127  31.111  25.872 -0.1056 -0.0483  0.2150
58212W        W 1203   7.045   5.547   6.688  0.1470 -0.0570 -0.1390
58213W        W 1204   5.284  32.107  21.702  0.0933 -0.0790  0.0400
58214W        W 1205   5.023  12.793   8.633  0.0478 -0.4335  0.1600
58215W        W 1206   6.280  16.923   5.826 -0.0834  0.2651  0.1528
58216W        W 1207   7.543  12.666  26.393  0.0250  0.2571  0.1100
58217W        W 1208   5.914  10.696   8.199  0.2473  0.1386  0.0198
58218W        W 1209  10.699  34.276  28.149  0.0750 -0.1340 -0.1495
58219W        W 1210  28.047  18.179   7.704  0.1688 -0.0370 -0.0461
58220W        W 1211  33.530   5.812   7.229 -0.0131  0.1684  0.0321
58221W        W 1212  18.631   7.125  26.420 -0.3266  0.2126  0.0664
58222W        W 1213  12.287   9.479   4.027 -0.3180  0.0587  0.0553
58223W        W 1214  21.608  12.007   3.793  0.0680 -0.2772 -0.0666
58224W        W 1215  27.577   7.261   0.013 -0.0785  0.1658 -0.0855
58225W        W 1216  26.986  17.228   9.878  0.2374  0.3201 -0.1497
58226W        W 1217   6.921  15.570   6.734 -0.2191 -0.2749  0.2809
58227W        W 1218  24.844  13.094  20.034  0.0341 -0.0576  0.1249
58228W        W 1219  31.955   7.516  21.348 -0.0549  0.1163  0.0478
58229W        W 1220  33.648  34.124   5.700 -0.2274  0.3054 -0.1697
58230W        W 1221  34.048  11.100  21.373 -0.1257 -0.0559  0.2678
58231W        W 1222  23.980   2.398  23.419 -0.1680  0.3947  0.1020
58232W        W 1223   1.709   5.828   3.281 -0.1282  0.2645 -0.2273
58233W        W 1224  27.595  18.125   8.430 -0.3872  0.0882  0.0544
58234W        W 1225   2.908  13.063  11.926 -0.1283 -0.0079  0.1147
58235W        W 1226  10.471  11.500   7.465  0.2294  0.1063 -0.1311
58236W        W 1227  12.478  24.492   5.060 -0.0645 -0.0532 -0.2422
58237W        W 1228  32.378  33.029   1.587 -0.0807 -0.3648  0.0822
58238W        W 1229  24.934   3.189   2.944 -0.1129 -0.1055 -0.0484
58239W        W 1230   3.120   1.200  19.879  0.0418  0.3689 -0.1106
58240W        W 1231   5.132   5.848   5.305 -0.1153  0.0591  0.0361
58241W        W 1232   6.862   7.183   0.182  0.4371  0.1787  0.0798
58242W        W 1233   0.478   4.247   3.363 -0.0005 -0.2188 -0.0170
58243W        W 1234  30.121   5.690   3.915 -0.2147  0.2223 -0.1331
58244W        W 1235   6.457   9.474   0.198  0.1161 -0.0369 -0.0770
58245W        W 1236   3.827   6.616  21.757 -0.3988  0.1847  0.0717
58246W        W 1237  24.648  17.806   9.134  0.1525  0.0783 -0.4260
58247W        W 1238   8.072  28.629  10.926 -0.1654  0.1437 -0.0513
58248W        W 1239  16.739   3.495   8.250 -0.0027 -0.2820  0.0788
58249W        W 1240  31.121  12.977   8.604  0.1678 -0.1046  0.1289
58250W        W 1241  11.494  23.253   0.919  0.0692 -0.0122 -0.3722
58251W        W 1242   5.600   3.393  24.193 -0.2362  0.0991 -0.0284
58252W        W 1243  21.029  20.610   4.506 -0.2274 -0.0814 -0.4768
58253W        W 1244  12.223   0.970   5.180  0.0935 -0.0372 -0.1644
58254W        W 1245   5.378  15.716   1.025 -0.1318 -0.3338 -0.1137
58255W        W 1246  32.904   6.860  25.202  0.1630  0.0645 -0.3374
58256W        W 1247  28.681  26.094   4.597 -0.0370 -0.2389  0.2654
58257W        W 1248  26.218  19.842  17.960 -0.1566  0.1152  0.1191
58258W        W 1249  12.384   0.316   6.443 -0.1288  0.0524  0.3658
58259W        W 1250   8.250  16.649   8.177  0.0427  0.3031 -0.0264
58260W        W 1251   5.594  11.465   1.134  0.1388 -0.2797  0.0154
58261W        W 1252   0.853   5.576  22.596 -0.1267 -0.1634  0.1505
58262W        W 1253   7.705   7.700  16.450 -0.1421 -0.2080 -0.0742
58263W        W 1254  34.328  22.227  27.193 -0.2979 -0.1257  0.2481
58264W        W 1255   1.949   7.795   8.183 -0.2625 -0.2927  0.2423
58265W        W 1256  15.018  24.195   2.387 -0.1211 -0.3674 -0.1002
58266W        W 1257  29.638   4.088   7.079 -0.3716 -0.1607 -0.1669
58267W        W 1258   4.748  13.310   2.804 -0.2398 -0.3021  0.2031
58268W        W 1259   5.153  11.133   9.123  0.1174  0.1502 -0.0108
58269W        W 1260   0.962   4.402  24.440 -0.1015  0.1716  0.0223
58270W        W 1261   1.019  15.263   6.410 -0.2520  0.0021 -0.0605
58271W        W 1262  12.658  15.391  21.882 -0.0397 -0.2363 -0.4151
58272W        W 1263  32.942   5.153   4.766 -0.1437 -0.0494 -0.0745
58273W        W 1264   1.246   7.402   1.726  0.0149 -0.0240 -0.0450
58274W        W 1265  26.688  29.949   3.763 -0.0233 -0.0717 -0.1490
58275W        W 1266  27.917   3.809  28.322  0.1705 -0.2438 -0.1249
58276W        W 1267  24.721   0.707   4.314  0.0596 -0.2452 -0.0646
58277W        W 1268   8.573  16.326   0.554 -0.2412 -0.0539  0.0555
58278W        W 1269  30.193   5.952   5.639 -0.1738  0.3335 -0.3036
58279W        W 1270  26.576  11.212  26.233  0.0852 -0.1506 -0.2252
58280W        W 1271  23.999   7.124   7.218  0.0709 -0.0857 -0.1939
58281W        W 1272   1.321  13.868  27.048  0.3273 -0.1935 -0.2574
58282W        W 1273  29.635   9.129   5.646 -0.0999  0.0447  0.1850
58283W        W 1274  28.285  29.051   1.659  0.1122  0.2286 -0.1172
58284W        W 1275   7.932  13.380  27.709  0.0053 -0.0172  0.0812
58285W        W 1276  30.841   8.693   5.132  0.0873  0.0813  0.0209
58286W        W 1277  27.164   4.952   0.930  0.0014  0.3253 -0.1509
58287W        W 1278  27.152   2.697  20.190 -0.0070  0.1375  0.0630
58288W        W 1279  33.229  15.048  10.456 -0.0306 -0.0543  0.0119
58289W        W 1280  22.350  12.175  28.469 -0.2578  0.1201  0.3130
58290W        W 1281  31.278  13.469   7.544 -0.1701 -0.1857 -0.3541
58291W        W 1282   2.197  20.639   7.901  0.0275  0.2096  0.1847
58292W        W 1283   5.834   9.360   0.919  0.0897 -0.0114  0.0652
58293W        W 1284   6.247   2.574  11.347 -0.0143  0.0630  0.1626
58294W        W 1285  13.430  10.671   1.230  0.1072 -0.1387  0.1510
58295W        W 1286   6.234  10.527  25.415 -0.0020 -0.4401  0.1548
58296W        W 1287  25.378  11.942   7.476  0.1057 -0.0807 -0.1659
58297W        W 1288  10.187  11.150  26.178 -0.0644  0.1819 -0.2964
58298W        W 1289  30.982   8.752  24.545 -0.2208  0.0343  0.4092
58299W        W 1290  33.043  24.107   8.638  0.1185 -0.0649  0.1800
58300W        W 1291  12.156   8.858  24.760  0.2397  0.3212  0.2049
58301W        W 1292   6.621  25.250  28.834 -0.4446  0.3186 -0.2490
58302W        W 1293  17.031   6.074  18.522  0.1383 -0.1844 -0.0499
58303W        W 1294  16.634  12.285   7.464 -0.0538  0.0375  0.0938
58304W        W 1295   5.382   1.512   7.647 -0.1131 -0.0631 -0.0650
58305W        W 1296  31.395  11.109   8.336  0.0005  0.1000 -0.0330
58306W        W 1297   4.280   9.354  10.221  0.0502 -0.0318 -0.1149
58307W        W 1298   7.241   5.970   5.363  0.0345 -0.0171  0.0454
58308W        W 1299  13.391   8.393  23.444 -0.1143 -0.0626 -0.3123
58309W        W 1300  29.380  15.291   5.149 -0.1677 -0.1814  0.2592
58310W        W 1301   4.839  30.803   2.484  0.0617 -0.2603  0.1389
58311W        W 1302  10.618  19.681   4.589 -0.3631 -0.1049  0.1290
58312W        W 1303   1.569  10.487   9.912 -0.0943 -0.1357 -0.0184
58313W        W 1304   2.121   5.621  25.540  0.0129  0.0364  0.3175
58314W        W 1305   9.756  13.040  10.480 -0.0351  0.3012 -0.2411
58315W        W 1306  34.511  14.743   8.295 -0.0954 -0.0084 -0.2464
58316W        W 1307  15.133   1.689   6.420  0.0398  0.0584 -0.0134
58317W        W 1308   5.038   5.119   4.194  0.0424  0.0024  0.3488
58318W        W 1309  32.831  31.031  28.775  0.1734 -0.1152 -0.1408
58319W        W 1310   1.229  22.939   2.875  0.2267  0.1677 -0.0258
58320W        W 1311  34.532  12.894  10.008  0.2118  0.0849 -0.2346
58321W        W 1312  30.241   9.129  25.643 -0.2428 -0.0547 -0.1581
58322W        W 1313   6.548  34.424  25.151 -0.1779  0.0300  0.1577
58323W        W 1314  29.455   5.407   6.581 -0.0950  0.0209 -0.0209
58324W        W 1315  17.948  18.815  28.494  0.0130 -0.3402 -0.0306
58325W        W 1316   1.744   7.911  27.487  0.0447  0.2833  0.1407
58326W        W 1317  10.164  10.112  28.064 -0.1640 -0.0374  0.2793
58327W        W 1318   5.495  13.195  27.591  0.1835  0.2315 -0.1885
58328W        W 1319   2.659  33.312  20.001 -0.0221  0.0208 -0.3604
58329W        W 1320  25.755   7.219   4.200  0.1443  0.0462 -0.1000
58330W        W 1321   7.341  21.845  26.872 -0.1751 -0.0580  0.4785
58331W        W 1322  27.808  15.601  14.928  0.2868  0.2120 -0.2362
58332W        W 1323   4.553   6.785   7.920 -0.2081  0.3400 -0.1761
58333W        W 1324  17.086   0.207   9.864  0.0852 -0.2940  0.1893
58334W        W 1325   8.422  29.922   8.514  0.1719 -0.0052 -0.0889
58335W        W 1326  16.876  18.445  26.912 -0.1691 -0.2720  0.0448
58336W        W 1327  34.020   5.005   6.836  0.0611 -0.0817  0.4354
58337W        W 1328  24.745   0.959   2.032  0.0882 -0.0215  0.2120
58338W        W 1329  24.219  34.424  25.178 -0.0426  0.3431  0.0191
58339W        W 1330   1.178  13.642  16.254 -0.0482 -0.1306  0.2008
58340W        W 1331  20.692   1.042   3.278 -0.0614 -0.1156 -0.1087
58341W        W 1332   9.405  13.576   7.515 -0.1127  0.1222  0.2774
58342W        W 1333  17.976  11.130  27.731 -0.0613  0.2974 -0.1833
58343W        W 1334  10.891   1.954   0.436 -0.0593  0.1311  0.1700
58344W        W 1335  31.944   6.511   9.558 -0.3017  0.0344  0.0443
58345W        W 1336   4.672  12.381   4.463 -0.0204  0.4352  0.0841
58346W        W 1337  10.343   1.926  10.191 -0.0680 -0.2791 -0.1352
58347W        W 1338  30.081  29.360  26.805  0.1335  0.2639  0.0553
58348W        W 1339   2.662   6.053  10.378  0.0314  0.0074 -0.2954
58349W        W 1340  34.012  30.921   0.360  0.1644 -0.1747 -0.0811
58350W        W 1341  14.491  13.620  22.293  0.0188 -0.1373 -0.1579
58351W        W 1342   6.823  10.791  10.268  0.0714  0.1093 -0.4969
58352W        W 1343  10.786   5.117  24.741  0.4800 -0.1229  0.2524
58353W        W 1344   6.271  12.874   0.879  0.1578 -0.2443  0.0716
58354W        W 1345  15.451  23.857  15.799  0.1435 -0.1114 -0.0739
58355W        W 1346   0.069   9.839   4.079  0.0169  0.0450  0.0268
58356W        W 1347  29.733   5.028  28.826  0.1979  0.3487  0.4618
58357W        W 1348  32.162  20.541   8.028  0.0829  0.1614 -0.1056
58358W        W 1349   4.252   0.868   7.847 -0.0579 -0.2759 -0.1033
58359W        W 1350  32.465  12.210  11.863 -0.2852  0.0704  0.1563
58360W        W 1351   8.454   7.820  24.742 -0.0299  0.1030  0.1401
58361W        W 1352  19.282   7.374   9.493  0.3388 -0.0644 -0.0636
58362W        W 1353  32.600  30.033   6.112 -0.0826 -0.1342  0.1515
58363W        W 1354  34.324  10.473   0.406 -0.1186  0.0498 -0.2849
58364W        W 1355  24.508  26.551   8.192 -0.1735  0.0243  0.0137
58365W        W 1356  25.442  25.959  28.626 -0.2503  0.3565 -0.0799
58366W        W 1357   5.896  30.334   9.026 -0.2245  0.0655  0.3888
58367W        W 1358  28.909  10.971  29.027  0.0611 -0.2444 -0.1300
58368W        W 1359  28.486   3.828   1.271 -0.3301 -0.1129 -0.1707
58369W        W 1360  13.268  14.420   6.281 -0.0602 -0.1395  0.0982
58370W        W 1361  16.483  26.442   5.735 -0.0053  0.2562 -0.0762
58371W        W 1362  12.250   2.353   1.785 -0.0435  0.0054 -0.1983
58372W        W 1363  10.939   3.216  20.733 -0.0652 -0.1644  0.0156
58373W        W 1364   0.658  12.731   9.893 -0.1341 -0.2095  0.1144
58374W        W 1365  11.804   4.184  26.851 -0.0385  0.1637 -0.3443
58375W        W 1366  32.852  16.838   0.096 -0.2067  0.1587 -0.0428
58376W        W 1367  10.433  19.643  26.084  0.0428  0.1034  0.0878
58377W        W 1368  31.051  32.572  25.847 -0.0640  0.0377 -0.0114
58378W        W 1369  14.733  13.325   7.090  0.0632  0.0385 -0.1736
58379W        W 1370  32.549  10.843  22.687 -0.0531 -0.2817  0.0594
58380W        W 1371   5.381   5.118   6.345 -0.2959 -0.1787 -0.0362
58381W        W 1372  17.206   0.634   5.497  0.1641 -0.0210 -0.1881
58382W        W 1373   7.624  27.907  28.451 -0.0905 -0.0304 -0.1928
58383W        W 1374  23.877  28.729   5.046 -0.2185  0.3852 -0.0887
58384W        W 1375  30.849  15.494   6.495  0.0278  0.1616 -0.2807
58385W        W 1376  13.038   2.770  27.137 -0.2833 -0.1050  0.1604
58386W        W 1377  32.296   2.587  24.860 -0.0450 -0.1136 -0.1285
58387W        W 1378   8.271   1.519  10.029  0.1431  0.2004 -0.1051
58388W        W 1379  31.780   8.051   0.130  0.1425  0.0023  0.0268
58389W        W 1380  15.036   1.854   6.938  0.2815 -0.2628 -0.2426
58390W        W 1381  13.327   9.494   8.061  0.1287 -0.0232  0.2999
58391W        W 1382   5.226  30.230   2.832 -0.0134 -0.0920 -0.0760
58392W        W 1383   1.953  17.346   2.359 -0.2101  0.2656 -0.2053
58393W        W 1384  10.430  31.214   0.943  0.2032 -0.1442  0.0193
58394W        W 1385   2.839  16.188   9.063 -0.1267  0.2198 -0.1105
58395W        W 1386   2.265   1.764   7.499 -0.0900  0.1531  0.2510
58396W        W 1387   7.640  18.187  20.120  0.1468 -0.2812  0.0890
58397W        W 1388  29.707  21.023   4.144  0.1523 -0.1608 -0.2913
58398W        W 1389  25.237   9.320  10.542  0.3309  0.1815  0.1279
58399W        W 1390  33.076  11.202  28.512  0.0213  0.3629 -0.1497
58400W        W 1391   3.042  18.394  17.344 -0.0097  0.1892 -0.1745
58401W        W 1392  19.811  11.432   3.383 -0.0286  0.1635  0.4067
58402W        W 1393   8.660  15.359  26.474  0.1963  0.1414 -0.1790
58403W        W 1394  15.032  29.449   4.239  0.1288 -0.0894  0.2489
58404W        W 1395   4.793  12.033   6.147  0.1080 -0.0211  0.0666
58405W        W 1396  14.690  32.311   8.166 -0.0129  0.0360  0.0623
58406W        W 1397  23.890  30.837   6.267  0.2681  0.0386  0.0478
58407W        W 1398  28.917  34.106  28.743 -0.1843 -0.2859 -0.1787
58408W        W 1399  19.648   6.241   2.607 -0.1805  0.1253 -0.2167
58409W        W 1400   6.900  22.318   3.329 -0.0600  0.0888  0.3488
58410W        W 1401   0.244  24.731   1.635 -0.0850 -0.1386 -0.0603
58411W        W 1402  11.739  10.042  25.052  0.1052 -0.1743  0.0213
58412W        W 1403  11.210   5.814  21.473 -0.1702  0.1836  0.2024
58413W        W 1404   0.217  11.647  11.360  0.0557 -0.0937 -0.3666
58414W        W 1405  24.210  12.825  28.975 -0.3957  0.0464  0.3110
58415W        W 1406   6.393  16.595  28.279  0.2405 -0.0655  0.2115
58416W        W 1407   3.459  10.792   0.932  0.1362 -0.0251 -0.3386
58417W        W 1408  12.938   8.193   8.318 -0.0773 -0.0012 -0.1490
58418W        W 1409   3.955   3.580   1.492  0.0010 -0.1932 -0.0446
58419W        W 1410   6.482   6.288  21.781 -0.1152  0.0673  0.0595
58420W        W 1411  16.285  34.745   6.705 -0.1215 -0.1094 -0.3262
58421W        W 1412  22.207  18.187   8.759 -0.0824  0.1918  0.2143
58422W        W 1413  18.651   7.010   5.061 -0.0619 -0.2707 -0.0813
58423W        W 1414  16.744   8.420   3.978  0.3331  0.1873 -0.3793
58424W        W 1415  10.644  13.131   3.680 -0.0473  0.1479  0.0909
58425W        W 1416  31.099   4.406   7.746 -0.0123  0.5811 -0.0432
58426W        W 1417  13.894   0.007  24.728 -0.2402  0.2680  0.1212
58427W        W 1418   0.989   0.713  18.794 -0.1269  0.2452 -0.0068
58428W        W 1419  10.646  11.911  18.117  0.2800  0.0506  0.2562
58429W        W 1420   2.070  27.831   5.626  0.1718 -0.0312 -0.0970
58430W        W 1421  27.562  18.647   4.655 -0.2564 -0.1646 -0.1331
58431W        W 1422  17.567  24.889   8.093 -0.0861  0.0161 -0.0142
58432W        W 1423  29.761  13.770  16.410 -0.0454 -0.0560 -0.0238
58433W        W 1424   0.781   4.767   1.753 -0.0482 -0.4271 -0.3790
58434W        W 1425  10.140  19.176  28.733  0.1387  0.0818 -0.2948
58435W        W 1426   6.164  31.618  20.043  0.1690 -0.1823  0.0560
58436W        W 1427  16.746  34.094  27.098 -0.0473  0.0014 -0.2549
58437W        W 1428  21.255  30.354   1.350 -0.1807 -0.1522  0.0671
58438W        W 1429  25.404   0.719   3.095 -0.3882 -0.0788 -0.2355
58439W        W 1430  11.285   7.609   3.845  0.0482 -0.0869  0.0945
58440W        W 1431  32.410   9.602   2.657 -0.0142  0.2199  0.0156
58441W        W 1432   1.628  28.036   4.245  0.1486 -0.1719 -0.2302
58442W        W 1433   0.699  19.625  24.278  0.1706  0.0226  0.0720
58443W        W 1434   6.666  12.227   6.283  0.0208 -0.2103 -0.0974
58444W        W 1435  32.331  14.698   5.887 -0.4263 -0.0004 -0.1164
58445W        W 1436  21.204  16.058  28.469  0.2411 -0.1432 -0.2582
58446W        W 1437  20.914  24.748   4.616  0.3586  0.0247  0.0749
58447W        W 1438  33.297  11.093   9.038 -0.1865  0.1268  0.0757
58448W        W 1439   5.148  16.867  15.812  0.0845  0.0483 -0.1883
58449W        W 1440  32.128   8.739  27.678  0.2200 -0.0677  0.1983
58450W        W 1441   6.632   4.801  28.582 -0.1985  0.0418 -0.1519
58451W        W 1442   8.133  31.029  18.452 -0.0230 -0.1260  0.0360
58452W        W 1443   8.279   5.241   7.960  0.1037 -0.2007 -0.0080
58453W        W 1444   4.899  19.934   0.013  0.0534 -0.1602  0.1816
58454W        W 1445  27.470   5.528  28.387 -0.1613 -0.0900  0.1350
58455W        W 1446   0.267  23.213  20.798  0.3090  0.3633 -0.1169
58456W        W 1447   1.902   3.313  26.455  0.1185 -0.2668  0.3964
58457W        W 1448  28.642   7.178   2.410  0.0475 -0.0528  0.0791
58458W        W 1449   4.258  21.918   2.635  0.5093 -0.0959  0.1473
58459W        W 1450   8.765  12.448  25.504  0.2571 -0.2675 -0.1796
58460W        W 1451   5.062   0.653   1.196 -0.0722 -0.0919 -0.0351
58461W        W 1452   0.563  12.049   8.017 -0.1680  0.0947  0.0680
58462W        W 1453   3.825  11.969  16.003  0.0950  0.3077  0.0868
58463W        W 1454   5.633  33.419   7.346 -0.0098  0.0045 -0.1402
58464W        W 1455  24.157   4.284   1.475  0.1529  0.2673 -0.0695
58465W        W 1456  13.783  21.273  15.438 -0.1462 -0.3980  0.1812
58466W        W 1457   1.257  18.788  11.009  0.4226  0.0383  0.2004
58467W        W 1458   6.961   0.884  10.831 -0.3036 -0.0389  0.1578
58468W        W 1459  27.176  26.201   6.788 -0.2811 -0.1164 -0.0372
58469W        W 1460  15.928   2.441   4.276  0.0277  0.2910 -0.1135
58470W        W 1461   1.716  11.665  11.752  0.2891  0.1000  0.0529
58471W        W 1462   4.959  10.048   1.342  0.0579 -0.2185 -0.1540
58472W        W 1463   8.162   2.379   3.229  0.0532 -0.1312  0.1397
58473W        W 1464  34.021   8.013  29.159 -0.2879 -0.4163  0.0227
58474W        W 1465  33.819   0.290   1.966  0.2360  0.0972  0.1673
58475W        W 1466   3.925  34.713  16.823 -0.0456  0.0609  0.1555
58476W        W 1467  11.483  27.505   6.964  0.0008  0.1208  0.0948
58477W        W 1468  24.783  13.376   7.427  0.1301 -0.5594 -0.0127
58478W        W 1469  26.359  14.774  27.867  0.2400  0.0379  0.1843
58479W        W 1470   9.173  31.868   4.577 -0.1589  0.3080  0.1946
58480W        W 1471  23.727   8.697   7.192 -0.1612  0.0149 -0.0255
58481W        W 1472  13.746  12.225   8.774  0.3371  0.2535  0.0518
58482W        W 1473  18.295   4.174  21.092  0.3053  0.0286  0.0844
58483W        W 1474   8.831  33.181   2.990  0.1149 -0.1391  0.1642
58484W        W 1475   5.921  29.958   2.842 -0.0303  0.1417 -0.0076
58485W        W 1476  34.113  18.231   2.353 -0.1910 -0.2299  0.0196
58486W        W 1477  28.402  10.073  25.814  0.0161 -0.1027 -0.0688
58487W        W 1478  10.523  22.825   9.379 -0.1849 -0.0276 -0.0472
58488W        W 1479  13.295  27.373   6.666  0.1268 -0.2721  0.0664
58489W        W 1480  31.161  13.521   9.061  0.0427 -0.2832  0.0220
58490W        W 1481  30.448  13.847   7.177  0.2929  0.2504 -0.0771
58491W        W 1482  24.487  17.588  20.085  0.0235  0.1026 -0.2710
58492W        W 1483   9.580  28.425   0.703 -0.1070  0.1064 -0.0558
58493W        W 1484  17.237  22.611   7.160  0.1014 -0.1208 -0.3829
58494W        W 1485  18.929  27.880   7.168 -0.0698 -0.0767  0.1338
58495W        W 1486  16.038   4.339   4.623 -0.3832 -0.0976 -0.1182
58496W        W 1487  25.773   3.789   2.785  0.4386  0.2030 -0.1072
58497W        W 1488  34.100   5.308   5.814 -0.0643 -0.0412  0.2421
58498W        W 1489   9.709   0.852  10.638  0.1191 -0.0869 -0.0731
58499W        W 1490  30.073  33.383   3.043 -0.2389 -0.0631 -0.0778
58500W        W 1491  11.896  14.938   8.315  0.1837  0.0944  0.3025
58501W        W 1492   4.373   8.347   1.970 -0.2269  0.1860 -0.0679
58502W        W 1493  33.524  34.272  22.414 -0.0050 -0.1073 -0.1270
58503W        W 1494  34.780  23.915  26.118  0.0856  0.0231 -0.2395
58504W        W 1495   3.440  17.574   9.843 -0.0585 -0.1746  0.1427
58505W        W 1496   2.785  13.407   1.665 -0.1453 -0.1816  0.2608
58506W        W 1497   8.001   2.798   3.556  0.0475 -0.1077 -0.0579
58507W        W 1498  32.314  32.887   2.729 -0.1712  0.2185  0.0203
58508W        W 1499  34.422  16.686   4.189  0.3540 -0.2843 -0.1528
58509W        W 1500  33.716   4.599   2.312  0.0165  0.1524 -0.4508
58510W        W 1501   0.783   1.636   8.510  0.0525 -0.1694 -0.2347
58511W        W 1502   8.878   4.983   8.333 -0.1786  0.1446  0.0494
58512W        W 1503   2.159  15.177  11.992  0.1038 -0.1109 -0.1203
58513W        W 1504  13.373   9.264  25.542 -0.0237 -0.0498  0.2089
58514W        W 1505   4.691  22.390   8.756 -0.0930  0.2194 -0.1741
58515W        W 1506   9.352  11.974   2.925  0.0229  0.0685 -0.0426
58516W        W 1507  28.030   9.514   9.383  0.2626  0.0349  0.0333
58517W        W 1508   0.638  31.172  23.922  0.0967  0.2173 -0.0513
58518W        W 1509  18.662  26.862   4.701  0.1617  0.1291  0.2512
58519W        W 1510  14.154   5.262   6.204  0.0197 -0.0197 -0.1129
58520W        W 1511   2.236   9.044   8.833 -0.0568  0.0195 -0.2521
58521W        W 1512  10.591  34.495  11.311 -0.0644 -0.0053 -0.0778
58522W        W 1513  34.412   4.841  27.974  0.2813 -0.1262 -0.1388
58523W        W 1514  29.474   4.876   9.116 -0.0944 -0.1690  0.1126
58524W        W 1515   9.782   5.582   0.049 -0.0585 -0.2275  0.1058
58525W        W 1516   0.725   5.675   1.380  0.3325  0.0143 -0.3393
58526W        W 1517   4.797  28.766   1.531  0.1363  0.1352 -0.1054
58527W        W 1518   4.497  13.913  10.625 -0.1403 -0.1494 -0.2355
58528W        W 1519  11.145  12.855   1.449 -0.0525  0.2964 -0.3724
58529W        W 1520  17.539   5.323   4.515  0.0323  0.2572  0.1606
58530W        W 1521   2.179   1.362   3.786 -0.0190  0.2691  0.3029
58531W        W 1522   4.050   2.082   6.307  0.1988  0.2631  0.0725
58532W        W 1523   1.207  20.105   0.920  0.1861  0.2514 -0.2502
58533W        W 1524   9.276  20.564   9.080  0.1492  0.0240  0.1895
58534W        W 1525  10.330  17.723   2.875 -0.3139 -0.3676  0.3076
58535W        W 1526  15.620   3.968  26.312 -0.0749  0.1796  0.1373
58536W        W 1527  19.457  25.234   2.417  0.0260  0.2161 -0.1874
58537W        W 1528   6.318   7.972   0.948 -0.0117 -0.1250  0.1609
58538W        W 1529   8.655   0.122  10.716 -0.1446  0.4435  0.0905
58539W        W 1530   1.672  34.797  19.438 -0.1873 -0.0787 -0.0744
58540W        W 1531  31.398  14.642   7.102 -0.0348 -0.1951 -0.0056
58541W        W 1532  25.022   8.454  27.336 -0.1670 -0.3175  0.0108
58542W        W 1533   8.776  29.194   1.221  0.0263 -0.0091  0.0308
58543W        W 1534  32.367   3.385   6.826 -0.3469  0.2749 -0.0578
58544W        W 1535   6.317  14.172   8.667  0.0065 -0.0909  0.0482
58545W        W 1536  33.735  27.747   6.165  0.1598  0.3811 -0.0885
58546W        W 1537   5.674  11.224   7.001  0.1449 -0.0901 -0.2449
58547W        W 1538   6.483  29.473  25.985  0.0748  0.1029  0.0008
58548W        W 1539   6.934   0.201   6.550 -0.2891  0.0623 -0.1438
58549W        W 1540   5.214  16.614   0.844  0.3457 -0.1525  0.2495
58550W        W 1541  10.702   4.911   5.506  0.2430  0.5869 -0.0053
58551W        W 1542  33.742  33.750   6.194 -0.2209  0.2528 -0.0340
58552W        W 1543  28.938   4.317   9.848  0.3581 -0.4260  0.1646
58553W        W 1544  33.545   8.664   5.481  0.0034 -0.0373 -0.2830
58554W        W 1545  33.668  12.353  10.513  0.1922  0.1593 -0.2358
58555W        W 1546  13.656  31.232   0.281  0.0175  0.0142  0.1205
58556W        W 1547  32.756  18.223   9.470 -0.2922 -0.0384  0.0874
58557W        W 1548   2.682   0.779   8.463  0.0325  0.0851  0.1094
58558W        W 1549   6.070  30.398   8.025 -0.0062 -0.0591  0.0144
58559W        W 1550  14.870   5.371  26.019  0.3328 -0.0942 -0.0560
58560W        W 1551  29.872  16.745   4.878 -0.0827 -0.2599  0.0309
58561W        W 1552   6.187  21.169  10.689  0.1429  0.0333 -0.0811
58562W        W 1553  20.117  30.669  27.994  0.4824 -0.0369 -0.3038
58563W        W 1554   3.137  13.065   9.903 -0.0577 -0.0139  0.3372
58564W        W 1555  23.009   3.510  24.435  0.2379  0.3104 -0.2646
58565W        W 1556  23.579   6.880   8.639 -0.0391 -0.3816 -0.0066
58566W        W 1557  18.721   5.868   3.661  0.2550  0.0130 -0.0039
58567W        W 1558   8.412   5.465   3.876  0.0547  0.0943 -0.3524
58568W        W 1559  13.655  33.474   7.743 -0.1937  0.3450 -0.3852
58569W        W 1560   3.144  20.598   7.795  0.4258 -0.0140 -0.1457
58570W        W 1561   6.601   9.051   3.454 -0.2218 -0.1515 -0.1711
58571W        W 1562  25.825  20.592   8.110  0.2501 -0.1054 -0.3992
58572W        W 1563   3.839  10.815   9.092  0.4797  0.1787  0.3727
58573W        W 1564  25.952  20.288   6.760 -0.1829 -0.3735 -0.0622
58574W        W 1565  28.215  18.908   3.138  0.1676  0.1488 -0.0574
58575W        W 1566  32.856   5.949   8.253 -0.2446  0.0235 -0.1934
58576W        W 1567  18.331  18.529  25.631  0.0898 -0.1007 -0.2721
58577W        W 1568   9.855  22.252   8.623 -0.0390  0.2321 -0.0347
58578W        W 1569   7.630  13.418   0.121  0.1116 -0.0555  0.0361
58579W        W 1570  26.655  34.456  16.111  0.0488 -0.0516  0.1247
58580W        W 1571  18.468  11.886   3.372  0.0322 -0.1593  0.2720
58581W        W 1572   5.385  14.111   2.728 -0.1480  0.2270 -0.1584
58582W        W 1573  21.962   2.303   2.592  0.0647  0.0813 -0.1210
58583W        W 1574  27.785  31.547   4.811 -0.0542  0.1482 -0.1438
58584W        W 1575   9.410   2.688   0.919  0.1506 -0.0915  0.0434
58585W        W 1576  25.131   8.497  28.840 -0.1695 -0.0236  0.2530
58586W        W 1577   7.851  14.383   2.602 -0.2604  0.0093  0.0929
58587W        W 1578  17.985  14.503  22.278 -0.0732 -0.1046 -0.3089
58588W        W 1579   0.035  13.470   9.643 -0.0791 -0.1881  0.0192
58589W        W 1580   1.446   3.349  10.850  0.3562 -0.0701 -0.0496
58590W        W 1581  33.947   8.898   4.653 -0.2233  0.2048 -0.0040
58591W        W 1582  31.797  12.516  10.359  0.1353  0.0502  0.0345
58592W        W 1583   9.012  20.248   8.721  0.1074  0.1605  0.1101
58593W        W 1584  21.556  33.959   9.191 -0.1529 -0.1443  0.2819
58594W        W 1585  30.692   9.744   7.973 -0.1611  0.3807 -0.1429
58595W        W 1586  10.319   0.439  23.697 -0.0425  0.1203 -0.0174
58596W        W 1587  14.379  10.715   1.821  0.1719 -0.1025  0.2121
58597W        W 1588  25.199  11.484   5.395 -0.0354  0.2556  0.1538
58598W        W 1589  30.688   8.618   6.006  0.0035 -0.1281  0.1249
58599W        W 1590  30.709  19.228   1.082  0.1115  0.0153  0.0450
58600W        W 1591  34.288   7.233   2.299  0.1711  0.2407  0.1926
58601W        W 1592   2.094  10.759   8.092  0.1164 -0.2346 -0.1133
58602W        W 1593   8.185   7.336  21.023 -0.0662  0.1310  0.4472
58603W        W 1594  13.546  32.900   8.437  0.1168 -0.0415 -0.0200
58604W        W 1595  11.023   2.625   4.565 -0.0267 -0.1240  0.1298
58605W        W 1596   1.237  16.619  11.621 -0.2761 -0.3226  0.3706
58606W        W 1597   4.259  16.847   2.704  0.1438  0.1413  0.2508
58607W        W 1598  23.252  24.734  21.135 -0.1006 -0.0006 -0.0063
58608W        W 1599  24.605  27.742  27.652 -0.1108  0.2681 -0.1167
58609W        W 1600  34.112  22.836  19.519 -0.0367  0.0067  0.0346
58610W        W 1601  24.296  23.502  27.812 -0.0950 -0.0893 -0.0089
58611W        W 1602  29.061  14.563   0.708  0.0859  0.0923 -0.1506
58612W        W 1603  10.343   8.063   6.506 -0.1116 -0.0360 -0.0718
58613W        W 1604   7.360  16.410   6.443 -0.1777 -0.0656  0.3550
58614W        W 1605   3.366   9.575   7.332 -0.2469 -0.0626  0.2418
58615W        W 1606  29.783  12.544   6.204 -0.2156  0.1385 -0.3396
58616W        W 1607  20.911  12.555   1.184  0.1427  0.0679  0.2307
58617W        W 1608  32.614  12.569  10.956 -0.0215  0.0284  0.1097
58618W        W 1609   7.823  13.989  10.614  0.2357 -0.2220 -0.1242
58619W        W 1610  29.119   8.919   8.281  0.1730 -0.0611  0.0109
58620W        W 1611   1.306   0.904  26.007  0.0465  0.1905  0.0100
58621W        W 1612   2.499  10.818  11.235  0.1043  0.1110  0.2227
58622W        W 1613   0.779  14.452   6.780  0.0252  0.0694 -0.0595
58623W        W 1614  19.616  11.460   5.059 -0.1979 -0.1292 -0.0543
58624W        W 1615  12.953  34.449  10.011  0.1681 -0.0036  0.1223
58625W        W 1616  29.322  13.511  26.314  0.3135 -0.0514 -0.0172
58626W        W 1617  24.487   9.995   1.446  0.0296 -0.1238  0.1409
58627W        W 1618   0.742  15.194   5.149  0.0141 -0.4445 -0.2925
58628W        W 1619   4.280   2.514   5.606  0.0896  0.3048  0.0300
58629W        W 1620  25.024   6.827   5.100 -0.2281 -0.0086 -0.1264
58630W        W 1621  16.470  12.964  17.811  0.2104 -0.1435  0.0032
58631W        W 1622  22.701   7.943   8.078 -0.1035  0.1234 -0.0386
58632W        W 1623  30.090  18.035   2.155 -0.0248 -0.1621 -0.0172
58633W        W 1624   6.083   7.065   3.781  0.0857 -0.0589  0.0296
58634W        W 1625  34.444  13.649   8.378  0.0842  0.0041 -0.0693
58635W        W 1626   4.040   9.641  24.394 -0.3767 -0.2928 -0.1025
58636W        W 1627   3.257  30.914   4.324  0.0590  0.0924  0.0472
58637W        W 1628  28.760  22.740   3.517 -0.2499  0.2511 -0.1399
58638W        W 1629   3.289  11.778   1.171  0.0265  0.0361 -0.3563
58639W        W 1630   1.727   6.290  28.007  0.2078 -0.1138  0.0790
58640W        W 1631  20.700  11.656   0.739  0.0101 -0.2199  0.1664
58641W        W 1632  31.180  12.491   2.065 -0.0726 -0.0752 -0.0503
58642W        W 1633  29.254   2.363  23.814  0.1871  0.0612 -0.1005
58643W        W 1634  12.984  32.119   8.795 -0.2542  0.1376 -0.4051
58644W        W 1635   5.180  32.441   7.084  0.1133  0.0066  0.2073
58645W        W 1636  33.063  15.748   3.320  0.3251  0.0269  0.2605
58646W        W 1637  24.426  12.101  25.279  0.1551 -0.1293  0.3792
58647W        W 1638   7.373  15.948   8.789  0.3334 -0.3203 -0.2318
58648W        W 1639  28.621   3.558   0.820  0.2266 -0.0892  0.2893
58649W        W 1640   8.813  26.528  10.729 -0.1763  0.0979  0.0692
58650W        W 1641  31.066  13.787   4.871 -0.1782 -0.1458  0.0910
58651W        W 1642  33.883   8.606   0.491 -0.2176  0.3017  0.2909
58652W        W 1643   1.131   4.612   6.599 -0.2162  0.3025  0.1915
58653W        W 1644   8.669  23.811   4.884 -0.1822  0.0249  0.0398
58654W        W 1645   5.742   3.325   9.567 -0.0028  0.0193  0.0027
58655W        W 1646   0.201  27.199   4.315 -0.1349 -0.2668  0.1662
58656W        W 1647   3.244  15.353   7.291  0.2563  0.2320  0.2757
58657W        W 1648  33.145   2.903   2.929  0.0278 -0.1415 -0.3877
58658W        W 1649  10.646   1.947   8.437  0.2931 -0.1533  0.0933
58659W        W 1650  15.576  33.940   6.814 -0.0832  0.0167  0.0141
58660W        W 1651   3.854  10.779   4.324 -0.0313 -0.1041 -0.2115
58661W        W 1652  28.132  25.621   4.229  0.1198  0.2241 -0.2920
58662W        W 1653   2.663  15.036   1.624  0.1691  0.1018  0.1934
58663W        W 1654  12.904   3.461  25.281 -0.0145 -0.0014 -0.0728
58664W        W 1655  28.400   6.935  10.064  0.0787 -0.1313  0.0153
58665W        W 1656   4.383  25.894   1.524  0.2244 -0.0287 -0.0032
58666W        W 1657  32.860  30.929   7.340 -0.0513 -0.2127 -0.1213
58667W        W 1658  33.372  14.681  10.123  0.2515 -0.2253 -0.1288
58668W        W 1659  11.916  28.639   8.129  0.1525  0.1925 -0.1862
58669W        W 1660   6.018   6.445  25.610 -0.3963 -0.2326  0.0515
58670W        W 1661  21.722  12.159  14.454 -0.2351  0.1348  0.2460
58671W        W 1662  31.225  31.544   4.276  0.3550  0.1162 -0.2100
58672W        W 1663  25.916  15.490   2.412 -0.1482 -0.0621 -0.0662
58673W        W 1664  28.647  29.985   6.437 -0.1994 -0.1184  0.0879
58674W        W 1665  30.997  12.670  26.770 -0.1009  0.3799  0.0865
58675W        W 1666  11.323  20.043   8.042 -0.2303 -0.1951  0.1522
58676W        W 1667   1.513  17.289   0.831 -0.1099  0.3066 -0.0125
58677W        W 1668  13.153  30.669   8.450  0.2207  0.4849 -0.2519
58678W        W 1669  28.044   6.896   7.452 -0.1506 -0.1968  0.0408
58679W        W 1670  12.167  32.773   0.456 -0.0737  0.1974 -0.0115
58680W        W 1671  15.270  13.246   1.386  0.0963 -0.0893  0.0378
58681W        W 1672  19.443  13.734  25.307  0.2482  0.4019 -0.0529
58682W        W 1673   1.826   3.965   8.332 -0.1385  0.0290  0.2545
58683W        W 1674  31.500  18.143   7.171 -0.0926  0.1149  0.0883
58684W        W 1675  31.971  28.345   4.664  0.3101 -0.3556  0.1463
58685W        W 1676  30.111   7.068   5.183 -0.2283  0.0247 -0.3639
58686W        W 1677   8.410   3.202   8.198 -0.1602 -0.2520  0.4505
58687W        W 1678   6.720  11.892   4.154 -0.3200 -0.3031 -0.2080
58688W        W 1679  19.294  25.226   7.476 -0.1344 -0.0818  0.2667
58689W        W 1680  30.379   6.124   9.350 -0.1180 -0.3012  0.3007
58690W        W 1681  33.208   4.648   1.021 -0.0231 -0.1512  0.0706
58691W        W 1682  12.005   2.279  21.556 -0.3482  0.1235  0.1061
58692W        W 1683  31.909   8.117   9.976  0.0929  0.0950 -0.1230
58693W        W 1684  27.216  20.070   5.377 -0.2325  0.1164  0.1378
58694W        W 1685  17.416  14.272   2.887  0.1636 -0.3062  0.0579
58695W        W 1686  25.615  25.380   2.072 -0.0371 -0.0516  0.0999
58696W        W 1687  15.547   8.690   9.113 -0.1889  0.1202  0.0074
58697W        W 1688  32.267  13.990   9.726  0.0280 -0.0609 -0.1187
58698W        W 1689  27.610  14.506   1.362  0.1903 -0.1103  0.0780
58699W        W 1690  11.690  21.611  27.631  0.0717 -0.1690 -0.0985
58700W        W 1691  25.549  21.107   9.200  0.0091 -0.2016  0.4602
58701W        W 1692   9.317   9.694   0.580  0.0923 -0.2352 -0.0445
58702W        W 1693  13.955  16.265  24.941 -0.0987  0.4004  0.0759
58703W        W 1694  22.888   6.887  25.559  0.1481 -0.0905 -0.0327
58704W        W 1695   9.755  16.097   8.116  0.2043 -0.0278  0.2884
58705W        W 1696  31.212   3.283   3.662 -0.1193  0.1082  0.0218
58706W        W 1697   1.558   7.548  17.156 -0.2963 -0.2853  0.0464
58707W        W 1698  26.664  22.587   4.386 -0.0382 -0.1774  0.1587
58708W        W 1699  32.555   4.576   6.445 -0.2674 -0.0976 -0.0821
58709W        W 1700  14.831  24.688   1.967  0.2889  0.1189 -0.0122
58710W        W 1701   1.925  13.974   7.492  0.1565 -0.0983 -0.1426
58711W        W 1702   8.075   9.035  29.187  0.3997  0.2320 -0.1158
58712W        W 1703  33.889  11.470   6.074 -0.0957 -0.2149  0.1370
58713W        W 1704  23.359  15.012   6.176 -0.1415 -0.0313 -0.1747
58714W        W 1705   4.809   4.232   4.796 -0.3971  0.0040  0.1933
58715W        W 1706  12.205   3.925   8.933 -0.0081  0.1179  0.1962
58716W        W 1707   5.241   0.626  28.549 -0.0340 -0.1207 -0.0791
58717W        W 1708  32.930   7.524   4.892 -0.1532 -0.1351  0.3778
58718W        W 1709   8.553  31.381   1.875  0.2924  0.0480 -0.0539
58719W        W 1710  31.090  10.499   4.893  0.3374  0.2785  0.2395
58720W        W 1711  10.137  13.503   5.351  0.0696  0.1857  0.1164
58721W        W 1712  15.142   6.649   7.341  0.1324  0.1710  0.1591
58722W        W 1713   5.182   3.201   7.919  0.0642 -0.0967  0.3289
58723W        W 1714  15.293  26.486  26.599 -0.3173  0.0760 -0.1323
58724W        W 1715   1.169  20.578  15.294  0.0580  0.0639 -0.1132
58725W        W 1716   8.705   1.468  10.172  0.2292 -0.1201  0.2794
58726W        W 1717   4.353   9.609   4.591  0.3870  0.0190 -0.0957
58727W        W 1718  29.940   8.761   7.628  0.0016  0.2591  0.1613
58728W        W 1719  14.654  15.677  21.842 -0.0351  0.1021  0.0740
58729W        W 1720   1.927   9.059   0.986 -0.0069  0.2262 -0.0885
58730W        W 1721   6.911  34.365  20.271 -0.1494  0.1734  0.0376
58731W        W 1722   3.978  31.668   6.287 -0.0343  0.1537 -0.1645
58732W        W 1723  28.653  12.341   1.195 -0.0330 -0.0015  0.1159
58733W        W 1724   2.985  20.795  19.779 -0.1232  0.0672  0.0534
58734W        W 1725  14.674   3.896  21.730  0.0273  0.3567  0.0548
58735W        W 1726   2.840  21.185  11.512  0.3928  0.3655  0.0926
58736W        W 1727  31.707   8.402  20.143  0.2627  0.0805 -0.0659
58737W        W 1728  11.718  14.332   9.611  0.0634 -0.0321 -0.2761
58738W        W 1729  12.836  18.319   8.180  0.1838  0.1567  0.0178
58739W        W 1730  10.604  34.634   8.722  0.5296 -0.0380 -0.0313
58740W        W 1731  25.696  12.111   1.568  0.0796  0.3810 -0.1933
58741W        W 1732  10.218   3.697   6.380  0.1388 -0.2468  0.1969
58742W        W 1733  28.857  12.658   6.344 -0.0866 -0.1542  0.1449
58743W        W 1734  26.077  16.102   0.000 -0.0137 -0.0493  0.0382
58744W        W 1735  14.121  21.751   0.745  0.1224 -0.1269  0.1917
58745W        W 1736  12.703  10.061   2.957 -0.1005 -0.6653 -0.1341
58746W        W 1737   2.947   7.442   5.983 -0.1279  0.3012  0.0428
58747W        W 1738  28.050  11.509  24.106  0.2009  0.1823 -0.0919
58748W        W 1739  18.612  29.419   6.114  0.1286 -0.2196 -0.1465
58749W        W 1740  30.135   5.346   9.649 -0.2705 -0.2283 -0.0428
58750W        W 1741   3.501  33.919   4.747  0.0632  0.1839  0.2234
58751W        W 1742   0.718   4.982   9.615 -0.0456 -0.0349  0.1425
58752W        W 1743   0.365  21.493   0.174 -0.2434 -0.0589 -0.0063
58753W        W 1744  11.528  12.139  28.118 -0.3148  0.2261 -0.3849
58754W        W 1745   6.617  29.019   6.469 -0.0226  0.0215 -0.7101
58755W        W 1746  32.692  28.772   5.087  0.0694  0.0036 -0.1130
58756W        W 1747  21.686  22.074  25.359 -0.1997 -0.0991  0.0164
58757W        W 1748  21.950  11.043   9.231  0.1574  0.4094 -0.0664
58758W        W 1749   5.850   6.174  10.761  0.0779 -0.0214 -0.0534
58759W        W 1750   7.434  18.985   6.376 -0.0516  0.0585 -0.1436
58760W        W 1751   3.893  12.178  10.344  0.1989  0.3055  0.1287
58761W        W 1752  29.067  15.051   8.483 -0.5351  0.1949 -0.1671
58762W        W 1753   5.438  14.231   3.698  0.0335  0.0819  0.2060
58763W        W 1754   4.258  17.219   4.049 -0.1907 -0.1791 -0.0682
58764W        W 1755  34.431  29.944   3.078 -0.0881 -0.1280 -0.1622
58765W        W 1756   4.098  11.533   9.961 -0.1155  0.1193  0.3919
58766W        W 1757   2.435   2.409   0.772 -0.0496  0.1559  0.1120
58767W        W 1758   4.121  32.805  19.363  0.3319 -0.0334 -0.0775
58768W        W 1759  32.477  28.224  28.739  0.2642  0.4581 -0.0463
58769W        W 1760  19.590   0.362   2.359  0.0005  0.0395  0.1389
58770W        W 1761   5.294  12.494  15.417  0.1042 -0.3069  0.1357
58771W        W 1762  29.147  13.392   8.219 -0.1628 -0.0543  0.0118
58772W        W 1763   2.878   7.388   7.098  0.4649  0.0069 -0.1718
58773W        W 1764   1.848  27.032   8.157  0.3389  0.1125 -0.3295
58774W        W 1765  31.029  19.007  27.842  0.3703  0.0140 -0.1731
58775W        W 1766  12.113  10.789   1.732  0.2111  0.0092 -0.1844
58776W        W 1767  26.186  12.036   6.181 -0.0793 -0.1040 -0.2720
58777W        W 1768  33.073  31.242   1.096 -0.0107 -0.2492 -0.1834
58778W        W 1769  10.620   0.809   4.098 -0.1745  0.1206 -0.3286
58779W        W 1770  32.509   5.207   9.492 -0.0634 -0.1036  0.1412
58780W        W 1771  17.524   9.687  25.234 -0.3310 -0.0240 -0.1643
58781W        W 1772  18.125  20.365  17.063 -0.1407  0.2389  0.0415
58782W        W 1773  31.375  12.289   4.287 -0.3294  0.2386  0.4161
58783W        W 1774  32.633  15.201   5.570  0.1138 -0.1395  0.1445
58784W        W 1775   1.783   0.618   4.933  0.2473  0.1037 -0.0042
58785W        W 1776  27.907  14.691   7.747 -0.0210 -0.2390 -0.0691
58786W        W 1777  26.671  20.950   6.360  0.2646 -0.1531  0.0095
58787W        W 1778  12.688   3.605   5.518  0.1324  0.0173  0.1964
58788W        W 1779   6.313   8.199  22.527  0.0555 -0.1897  0.2115
58789W        W 1780  14.306   0.934   4.685  0.1410  0.0334 -0.1421
58790W        W 1781  24.343  31.299   4.961 -0.0277  0.0085 -0.5344
58791W        W 1782  31.406  10.293  27.840  0.1752 -0.0566 -0.1448
58792W        W 1783   5.695  18.387   5.489 -0.0186  0.0824  0.3600
58793W        W 1784  10.068   1.907   9.103 -0.0094  0.1366 -0.4042
58794W        W 1785  25.079  34.668  28.904 -0.1119  0.1754 -0.0903
58795W        W 1786  34.701   4.272  10.620 -0.0018 -0.1921  0.1623
58796W        W 1787   7.324  27.146   5.410 -0.0565 -0.1170 -0.2623
58797W        W 1788  16.071   0.054  10.764  0.1628  0.4004 -0.0448
58798W        W 1789  18.758  33.041   1.226 -0.3829  0.4690  0.0769
58799W        W 1790   2.829  27.020   3.803 -0.0060  0.0761  0.0241
58800W        W 1791  31.738   7.175   4.832 -0.3789  0.2392  0.1137
58801W        W 1792  31.984  31.415  27.735 -0.3145  0.0044  0.3101
58802W        W 1793   5.208   0.974   7.655 -0.3619  0.0787 -0.2061
58803W        W 1794  24.267  28.704   6.637  0.0631  0.0336  0.0138
58804W        W 1795  25.803  28.091   3.397 -0.2027  0.3969  0.0933
58805W        W 1796  32.126  11.229   8.891  0.0841 -0.0419  0.0161
58806W        W 1797  24.696  29.223  26.878  0.0008  0.1882 -0.1448
58807W        W 1798  13.267   6.638   1.487 -0.0690 -0.1225  0.0838
58808W        W 1799  17.426  34.321   9.394 -0.2569  0.0709 -0.0843
58809W        W 1800  25.201  18.070   3.667  0.1316 -0.1443 -0.0037
58810W        W 1801  33.729  13.808  21.581 -0.2175 -0.0339  0.1856
58811W        W 1802  15.582  14.736  23.718  0.2154 -0.0854  0.0219
58812W        W 1803  30.999   1.440   5.985  0.1304  0.1765 -0.2152
58813W        W 1804  24.629  12.730  28.743 -0.0616  0.1119  0.1590
58814W        W 1805  30.216  18.204   5.923  0.0511  0.1662 -0.2554
58815W        W 1806  20.679  25.319   7.166 -0.0687  0.0107 -0.3859
58816W        W 1807  33.884  13.992  23.572 -0.0445  0.0376 -0.1151
58817W        W 1808  33.891  27.049   8.956 -0.1617  0.1946 -0.3977
58818W        W 1809   3.037  10.913   7.285 -0.0318  0.1338  0.0131
58819W        W 1810   2.968  27.343  28.596  0.0257 -0.3737 -0.1077
58820W        W 1811   1.073  14.843  17.062 -0.0012 -0.1286 -0.0691
58821W        W 1812  34.333  13.615  20.493 -0.3349  0.1899  0.1032
58822W        W 1813   6.345  10.118   8.028  0.0509  0.2208  0.1837
58823W        W 1814  23.416  10.239   8.473  0.2512 -0.1693  0.0122
58824W        W 1815  26.409  19.868   0.950 -0.1105  0.2979  0.1419
58825W        W 1816  28.361   4.152  29.070 -0.1633  0.0008  0.1190
58826W        W 1817  16.998  16.232  15.235  0.2819 -0.1013  0.1300
58827W        W 1818   5.086  20.735  21.819 -0.1048  0.0750  0.1230
58828W        W 1819   2.613  16.414   4.056  0.1694  0.1464  0.0425
58829W        W 1820   1.815  12.359   0.741  0.2142  0.0039 -0.0215
58830W        W 1821   7.886  12.515   4.321 -0.1073 -0.2140  0.1165
58831W        W 1822   9.247  22.735  26.191  0.0187 -0.3465  0.0327
58832W        W 1823  11.016   1.779  11.024 -0.3287  0.1372  0.1408
58833W        W 1824   6.700   5.263  10.304 -0.0060  0.1022 -0.1043
58834W        W 1825  33.814  14.375  18.227 -0.1176  0.1605  0.2132
58835W        W 1826   4.339  29.665  10.056 -0.1547 -0.0594  0.0129
58836W        W 1827   7.620   1.273  20.379 -0.2074  0.0370 -0.2424
58837W        W 1828  16.291  11.676   3.568 -0.1484  0.0149  0.2005
58838W        W 1829  12.404   2.569  20.774  0.0420  0.3530  0.1849
58839W        W 1830  30.891  12.572   6.801  0.2829 -0.2445  0.0641
58840W        W 1831   2.066  18.007   5.765 -0.0027 -0.0898 -0.0256
58841W        W 1832  34.760  24.307  25.275 -0.0579 -0.3118  0.1107
58842W        W 1833   3.673  11.956   5.294 -0.1462  0.4474 -0.2011
58843W        W 1834   0.021  14.470  26.696  0.0122 -0.0771  0.1303
58844W        W 1835   8.841   6.777  17.065  0.4101  0.3381  0.1849
58845W        W 1836  18.913  23.133  20.678  0.0664 -0.1930  0.2038
58846W        W 1837  13.763   0.530  26.062  0.0227  0.5017  0.0107
58847W        W 1838  31.314  13.163  26.861 -0.0681  0.0610  0.3132
58848W        W 1839   9.786  14.979   3.050 -0.0581 -0.4129 -0.0389
58849W        W 1840   3.214   1.136   0.502  0.2450  0.0543  0.4288
58850W        W 1841  31.733  22.871  26.126  0.0410  0.2395  0.4214
58851W        W 1842   0.817  12.399  11.761  0.1423 -0.0187 -0.3807
58852W        W 1843  33.071  17.396  28.621 -0.0455 -0.2134  0.1018
58853W        W 1844  32.145   1.149  14.469 -0.2623  0.2393  0.2189
58854W        W 1845  22.387   2.513  22.796 -0.0270  0.0377 -0.2206
58855W        W 1846  14.779  26.122  20.469  0.1945 -0.1342 -0.0167
58856W        W 1847   4.604  34.027   7.140 -0.0305 -0.2866  0.1896
58857W        W 1848   8.990  17.484   0.766  0.1544 -0.3053  0.3674
58858W        W 1849   6.475   8.295  10.165  0.1636  0.0149 -0.0506
58859W        W 1850  21.701  14.194  25.232  0.2567 -0.2443  0.0089
58860W        W 1851   4.628  14.431  18.708 -0.0872  0.1739 -0.3828
58861W        W 1852   9.826   9.041   5.368  0.2037 -0.1215  0.0085
58862W        W 1853  20.230  13.984  22.113 -0.3301 -0.0195  0.0462
58863W        W 1854  29.281  10.352  21.961 -0.4708 -0.0110 -0.0692
58864W        W 1855   4.914  14.471  29.175  0.1172 -0.0204  0.2292
58865W        W 1856   1.973  14.778   5.040  0.1557 -0.0277  0.2003
58866W        W 1857   2.863   7.715   0.039  0.1677  0.1455  0.1860
58867W        W 1858  19.211  12.407   5.677 -0.0927  0.1341  0.2357
58868W        W 1859   4.287  11.438   8.682  0.2741  0.1137 -0.1605
58869W        W 1860  34.021  11.918   7.778  0.1183  0.4173  0.0893
58870W        W 1861   5.457  32.118   8.715 -0.1267 -0.1050 -0.0071
58871W        W 1862  29.935  17.471   6.148  0.0840  0.1504  0.1196
58872W        W 1863  27.068  11.287   3.084  0.0530  0.2647 -0.1708
58873W        W 1864   1.792  13.538   7.821  0.1224  0.0703  0.1450
58874W        W 1865   3.081  21.614  21.253  0.0422  0.4018  0.0238
58875W        W 1866  21.613  11.985   2.875  0.0224 -0.1204  0.0159
58876W        W 1867   4.792   2.491  27.718 -0.2099  0.1258  0.4243
58877W        W 1868  18.005   7.778  23.429 -0.1744  0.2956 -0.1810
58878W        W 1869  30.625  25.028  28.714  0.3380 -0.4285 -0.0631
58879W        W 1870  24.482   0.332   3.186 -0.0010 -0.0557 -0.0390
58880W        W 1871  27.153   8.206  17.914  0.1488 -0.0351  0.3459
58881W        W 1872   6.234  21.174  20.403 -0.1958  0.4080  0.0755
58882W        W 1873   0.456  19.074  26.195 -0.0277 -0.0026 -0.1550
58883W        W 1874  15.537  29.598   0.602  0.0267  0.0955 -0.3605
58884W        W 1875  30.762  24.432   4.227  0.0566  0.2832 -0.0897
58885W        W 1876   7.466  16.516   4.631  0.0992 -0.0228  0.1132
58886W        W 1877   1.161  16.026   5.100  0.0657  0.0260  0.0800
58887W        W 1878  27.260  26.573   3.364  0.1453 -0.2467  0.0668
58888W        W 1879   9.169  15.773   5.325 -0.0209  0.2431 -0.1832
58889W        W 1880  16.640   5.895  27.521 -0.2007  0.1441 -0.0492
58890W        W 1881  21.336   2.511   3.597  0.2051  0.0204  0.1065
58891W        W 1882  24.532  20.981  22.703  0.2334 -0.0868  0.0935
58892W        W 1883  11.853  25.043   1.276  0.1243 -0.0236  0.1304
58893W        W 1884   2.469  21.615   4.586  0.1460 -0.0901  0.1006
58894W        W 1885  28.748   9.854   4.185 -0.0615  0.0979 -0.1691
58895W        W 1886   8.181  32.279  14.666 -0.0399 -0.0466 -0.3035
58896W        W 1887  17.644  28.539   5.736  0.0979  0.2120  0.0879
58897W        W 1888   8.440   7.870   4.824  0.2047 -0.0861 -0.1429
58898W        W 1889  34.067  17.066  16.012  0.1564 -0.3241 -0.2454
58899W        W 1890  14.757   5.918  28.261  0.2280 -0.2320  0.0368
58900W        W 1891   7.524   1.008   5.247  0.0227 -0.1538  0.0683
58901W        W 1892   9.784  16.180  14.949  0.0113 -0.0109  0.1528
58902W        W 1893  24.894  26.783  15.996 -0.1473 -0.1649  0.0774
58903W        W 1894  32.428  20.604   5.478  0.1953  0.1934  0.0564
58904W        W 1895  28.791  33.250   6.089  0.1044  0.0299 -0.0612
58905W        W 1896  19.032  11.496   6.168 -0.2999  0.0065  0.0569
58906W        W 1897  26.449  20.861   8.859  0.0600 -0.3641 -0.0162
58907W        W 1898  25.198  22.761  14.237  0.2423  0.3736  0.0447
58908W        W 1899  34.592  10.888   8.120 -0.1098 -0.1532 -0.0929
58909W        W 1900   7.710  23.033  18.479  0.0658  0.2391  0.2274
58910W        W 1901  17.215  11.577  21.145  0.1535 -0.2124 -0.0793
58911W        W 1902  28.630   5.167  17.924  0.1156  0.2158 -0.0700
58912W        W 1903  31.548   2.937   1.883 -0.0488 -0.1022  0.1022
58913W        W 1904   3.592  10.254   0.849  0.0459  0.0213 -0.1067
58914W        W 1905  11.988  27.045  20.125  0.0540 -0.2535  0.0779
58915W        W 1906   1.743   5.949  25.890  0.0219 -0.2537 -0.1426
58916W        W 1907   1.743  19.945  24.568  0.0155 -0.1940 -0.0004
58917W        W 1908  17.481  14.238   8.999  0.2945  0.1578 -0.1112
58918W        W 1909  16.887  23.849  15.394  0.0496  0.6085  0.0849
58919W        W 1910  20.813   5.746   7.627 -0.0289 -0.0436  0.0992
58920W        W 1911   3.308  22.841   0.586  0.0029 -0.1870  0.2050
58921W        W 1912  26.546   7.791  17.409 -0.0303  0.0106 -0.3031
58922W        W 1913   9.652  20.434   3.022  0.0562  0.0161 -0.3129
58923W        W 1914  33.711  16.003  22.252 -0.4798 -0.0545 -0.2578
58924W        W 1915  18.755  22.229  18.948 -0.1580  0.0621 -0.1797
58925W        W 1916  31.214  10.273  16.916  0.1804  0.1336 -0.0179
58926W        W 1917   3.274  10.047   4.478 -0.3598 -0.0149  0.4091
58927W        W 1918  13.763  23.539  21.829 -0.2275  0.2591 -0.1344
58928W        W 1919   6.544  28.447   9.266  0.1462 -0.0151  0.4036
58929W        W 1920   5.456  14.822  26.125  0.1544  0.1219 -0.2039
58930W        W 1921  20.387  24.538   5.553 -0.0360  0.1897 -0.0619
58931W        W 1922  15.133  27.040  27.512  0.0796 -0.1399  0.2665
58932W        W 1923  29.010  29.789  13.089 -0.0411 -0.3655 -0.0140
58933W        W 1924   3.735  26.646  15.805  0.1536  0.3848  0.2725
58934W        W 1925  10.575  16.620   5.127  0.0296  0.0750 -0.1228
58935W        W 1926  30.090  29.908   3.548 -0.0411 -0.1217  0.0603
58936W        W 1927  25.105  34.197   3.074  0.1299 -0.2449 -0.0450
58937W        W 1928  18.550  19.821  26.772 -0.2670  0.0640 -0.0258
58938W        W 1929  30.492  24.392   3.366 -0.0411  0.1866 -0.3186
58939W        W 1930  15.774  32.155   2.534 -0.3154  0.2807 -0.0147
58940W        W 1931  20.378  10.079   6.445 -0.1187  0.1575  0.0591
58941W        W 1932   6.004   7.494  21.241  0.0886 -0.0328  0.0216
58942W        W 1933  32.980  10.771   9.903 -0.0518 -0.3358  0.3060
58943W        W 1934  26.406  20.336  27.082  0.1932 -0.0668 -0.0328
58944W        W 1935  34.474  17.700   0.572 -0.2990 -0.0443 -0.0208
58945W        W 1936  15.041   8.758   0.026  0.2220  0.0905 -0.0624
58946W        W 1937  33.733   4.283  14.399  0.0216  0.2500 -0.1427
58947W        W 1938   0.961   9.851   6.030 -0.2320  0.0016  0.0240
58948W        W 1939  11.248  12.776  28.284 -0.1560 -0.1451  0.1259
58949W        W 1940  16.802  10.382  16.825 -0.0095  0.2404 -0.0504
58950W        W 1941   4.241   9.963  17.843  0.0594 -0.1676 -0.2689
58951W        W 1942   1.552  14.065   6.589  0.0608  0.2329  0.0509
58952W        W 1943  24.511  12.079   1.999 -0.0277  0.4196  0.0459
58953W        W 1944   6.000   3.609  25.686  0.1375  0.2072  0.1346
58954W        W 1945  33.920  10.929  24.907 -0.0534  0.1723  0.0916
58955W        W 1946   8.296  21.119   4.358 -0.0623 -0.4814  0.1233
58956W        W 1947  11.372  29.797  10.534  0.2219  0.3367  0.0919
58957W        W 1948  31.511  18.605   2.721  0.1411  0.1558 -0.0177
58958W        W 1949  11.501  22.638  25.440 -0.0450  0.3302 -0.1497
58959W        W 1950   4.897  15.566   8.628 -0.0554  0.2190 -0.0959
58960W        W 1951   5.549  15.016  17.950  0.0072  0.0345  0.2575
58961W        W 1952   3.514   3.519  27.550 -0.0111  0.1248  0.0980
58962W        W 1953  10.080  24.425   7.525  0.0015 -0.0505 -0.3391
58963W        W 1954   8.118   0.536   5.690  0.1311  0.0215  0.2173
58964W        W 1955   0.735  31.924   0.139 -0.1551 -0.2102 -0.2126
58965W        W 1956  24.315  15.464   7.931 -0.0855 -0.2663  0.2565
58966W        W 1957   0.062  12.036  17.098 -0.0307 -0.1702  0.1420
58967W        W 1958  25.590  23.557   5.433  0.4542 -0.1051 -0.1092
58968W        W 1959   7.885  13.486  10.089  0.1794 -0.1551  0.0783
58969W        W 1960   7.989   8.220   7.499  0.2507  0.2602 -0.0833
58970W        W 1961  28.019   6.509   8.229 -0.2485  0.1196 -0.0832
58971W        W 1962  10.982   8.915  16.577  0.0803  0.0405 -0.2047
58972W        W 1963  31.318   2.606   4.071 -0.2028  0.2427 -0.0409
58973W        W 1964   3.706  14.186  22.445  0.1275 -0.2768  0.1121
58974W        W 1965   1.745  18.836   2.484  0.3180  0.1040 -0.0594
58975W        W 1966  27.773  12.833  16.940 -0.0010  0.0790  0.0916
58976W        W 1967   7.394   1.813   1.624 -0.2388  0.2882 -0.0427
58977W        W 1968  20.514   4.939   2.297 -0.1901  0.2134 -0.1143
58978W        W 1969  19.318  34.379   5.009 -0.1305  0.2781  0.0505
58979W        W 1970  33.994  20.719  24.950  0.0350 -0.0542  0.1387
58980W        W 1971   9.629   6.482  19.245  0.0690 -0.0937  0.3407
58981W        W 1972  19.777  14.884  25.309 -0.3557  0.2801  0.1706
58982W        W 1973  29.761   5.017   0.057  0.1029 -0.1513 -0.0390
58983W        W 1974  21.017   4.531  26.419  0.2456 -0.3573  0.1097
58984W        W 1975   3.991  22.565   3.347 -0.2430 -0.0042  0.0795
58985W        W 1976   3.827  16.631   0.920  0.2725 -0.0295  0.1107
58986W        W 1977   5.483  23.382   5.203  0.1391  0.3542  0.0945
58987W        W 1978   8.493  22.275   6.568  0.1782  0.2448  0.1651
58988W        W 1979   1.099   0.264  27.895  0.0766 -0.1788  0.0671
58989W        W 1980  29.891  15.073   5.828 -0.0489 -0.3703  0.1236
58990W        W 1981   2.224  14.041  24.440 -0.1710  0.0310  0.1430
58991W        W 1982  18.931  13.342   4.815  0.1693 -0.1721 -0.3503
58992W        W 1983  10.307  30.240   9.165 -0.3554 -0.0235  0.3848
58993W        W 1984  11.031  15.664  16.236  0.3620  0.0427 -0.1277
58994W        W 1985   1.197   2.998   2.847 -0.0540 -0.0498 -0.0892
58995W        W 1986  16.027   2.579   5.475 -0.3152 -0.2186 -0.1469
58996W        W 1987   9.750  11.910   5.760 -0.2168 -0.1236 -0.0053
58997W        W 1988   3.607  34.317   6.936 -0.0683 -0.0947 -0.2036
58998W        W 1989  28.441   7.915   7.333  0.1697  0.2548  0.0948
58999W        W 1990   2.634   3.925  10.312  0.0733 -0.1056  0.3157
59000W        W 1991  34.086  12.339   8.223  0.0974  0.1637  0.3834
59001W        W 1992  13.273   7.180  19.050  0.0839 -0.2658 -0.0931
59002W        W 1993  24.457  30.791   0.311 -0.0461 -0.2020  0.0081
59003W        W 1994   9.689   7.611   2.954 -0.3432  0.0511  0.0507
59004W        W 1995  13.403  19.636  25.855 -0.3139 -0.1512  0.0013
59005W        W 1996   5.607  15.106   1.900  0.1185 -0.1891  0.0710
59006W        W 1997  14.040  20.321  19.445 -0.2376 -0.2307 -0.2637
59007W        W 1998  29.823   5.744  18.028  0.0045 -0.3067  0.0172
59008W        W 1999   5.803  34.030  21.756 -0.1129 -0.2017 -0.2519
59009W        W 2000   8.036   5.186   2.137  0.1078  0.2419  0.0070
59010W        W 2001   7.854  23.623   6.535 -0.2545  0.0611 -0.0707
59011W        W 2002   0.521   7.901   0.152 -0.0595  0.1575  0.0999
59012W        W 2003   0.047   1.408   3.502  0.0419  0.1842  0.0941
59013W        W 2004   2.690   4.972   1.781  0.0841 -0.3203  0.1866
59014W        W 2005  23.029   3.041  14.689 -0.2139  0.3468 -0.2269
59015W        W 2006  21.977  16.960  18.341 -0.1669  0.0307  0.1526
59016W        W 2007  11.764  17.308   5.727 -0.0950 -0.2116  0.3102
59017W        W 2008  30.471   8.363   9.109  0.0398 -0.1856  0.2446
59018W        W 2009  26.919  11.029  27.029  0.0634  0.3173  0.0187
59019W        W 2010   6.509  14.950  27.170  0.2885 -0.2037  0.0205
59020W        W 2011   0.625  22.332  23.407  0.1600 -0.1411  0.0308
59021W        W 2012   2.947   2.651  19.552 -0.0663  0.2100 -0.2207
59022W        W 2013   0.730   3.830   4.984  0.0658 -0.0090  0.2701
59023W        W 2014  15.836  17.739   0.051  0.0229  0.2869  0.0571
59024W        W 2015  19.863  11.413  18.577  0.1091  0.1621  0.0579
59025W        W 2016  24.914  12.370   6.390  0.0645 -0.3387 -0.1355
59026W        W 2017   0.085   6.360  23.500 -0.0843  0.3303 -0.0508
59027W        W 2018   7.224   9.455  17.025  0.0398  0.2017  0.2636
59028W        W 2019   6.772  10.121  23.944 -0.2976  0.1996 -0.0967
59029W        W 2020  22.587   6.387  19.659  0.0308  0.1657 -0.4179
59030W        W 2021   4.010   1.906   2.861  0.1169  0.1347  0.0060
59031W        W 2022  15.269  12.716  28.874  0.1996 -0.2777  0.0755
59032W        W 2023  33.736  17.072  23.719 -0.1225 -0.0665  0.0067
59033W        W 2024  18.301  11.049   5.930  0.1397 -0.1021 -0.2500
59034W        W 2025   5.306  27.838  24.884 -0.1898 -0.1846 -0.0855
59035W        W 2026  32.212   5.740   0.371 -0.0670  0.0071  0.1564
59036W        W 2027  22.746  20.554  15.844 -0.0597 -0.0116 -0.2584
59037W        W 2028  12.551  17.343  24.504  0.1242 -0.0445  0.1720
59038W        W 2029  31.916   8.492   3.822 -0.0289 -0.0316  0.1481
59039W        W 2030  17.763   5.441   0.453 -0.0861  0.2232 -0.2556
59040W        W 2031  15.375  16.114  23.720 -0.0324  0.3686 -0.2713
59041W        W 2032   5.272  26.348   3.959 -0.0707  0.2755 -0.1452
59042W        W 2033  17.827  11.553  29.174 -0.0007  0.1912 -0.2420
59043W        W 2034  11.689   0.572  27.951  0.1985 -0.0226  0.3128
59044W        W 2035   0.992  17.414  17.793  0.2077  0.2253 -0.1240
59045W        W 2036   5.445  21.282  22.933 -0.0476  0.2361 -0.3112
59046W        W 2037  13.888  12.389  24.599  0.0923 -0.3763  0.0503
59047W        W 2038   1.402  19.608   8.207 -0.0499  0.2428  0.0138
59048W        W 2039   0.456  16.857   4.624 -0.0017  0.0123  0.0018
59049W        W 2040  30.890  23.903  20.580 -0.0066 -0.0505  0.0078
59050W        W 2041  34.413  27.363   6.589  0.4102 -0.0064  0.0521
59051W        W 2042  34.398  18.596   6.101  0.2322  0.0505 -0.0734
59052W        W 2043   8.736   7.338  17.861 -0.0135 -0.0930 -0.1501
59053W        W 2044  33.279  11.004  14.902  0.0591  0.0692 -0.0634
59054W        W 2045  17.676  11.756  23.529  0.2054 -0.1395  0.1670
59055W        W 2046   5.812  14.785   9.069  0.1132  0.1178 -0.0515
59056W        W 2047  16.136   6.905  16.638  0.1128 -0.1787 -0.1608
59057W        W 2048   4.436   0.721   5.965 -0.0853  0.1132 -0.1945
59058W        W 2049  18.067  28.243  24.646 -0.1125  0.1063 -0.0176
59059W        W 2050   4.046   4.125  22.774 -0.0519 -0.0348  0.1303
59060W        W 2051  30.568  18.824  10.705 -0.0010 -0.1074 -0.3868
59061W        W 2052   8.872  19.517  25.091 -0.2788  0.3397  0.0212
59062W        W 2053  12.702  14.834   6.166 -0.0783 -0.1210  0.2174
59063W        W 2054  13.770  24.335   0.405 -0.1926 -0.1901  0.2519
59064W        W 2055  34.234   1.139  25.245  0.2715  0.1178 -0.1456
59065W        W 2056  31.396  18.503   3.256 -0.2643 -0.0239  0.0079
59066W        W 2057  12.172  16.751  28.631  0.0627 -0.3886  0.0919
59067W        W 2058  31.766  18.444   0.714 -0.1321 -0.0241 -0.0210
59068W        W 2059  23.172   6.646   8.058 -0.0993 -0.0546 -0.1606
59069W        W 2060   6.607  18.309  15.490 -0.1993 -0.0084  0.0255
59070W        W 2061  15.547  19.577   3.098 -0.0265 -0.1930  0.3012
59071W        W 2062   3.083  18.151   4.201  0.1125 -0.0431 -0.2104
59072W        W 2063  31.267  10.635  10.719  0.1769 -0.1501 -0.0334
59073W        W 2064  32.999  13.362   2.718  0.2684  0.1559 -0.0007
59074W        W 2065  31.627  15.526   6.096  0.0945  0.0415  0.1723
59075W        W 2066  29.021   5.221  28.868 -0.0197  0.0877 -0.1122
59076W        W 2067  29.053   4.632   8.800 -0.0802  0.1856 -0.2018
59077W        W 2068   7.291   5.615  28.753  0.2467 -0.2550 -0.0421
59078W        W 2069   6.042  25.872   4.332 -0.1229  0.0119 -0.4810
59079W        W 2070   6.288  10.991  10.058 -0.0504  0.0598  0.3447
59080W        W 2071  33.423  18.573   6.089  0.0211 -0.3151 -0.4074
59081W        W 2072   5.130   9.426   5.687  0.0087  0.0428 -0.3794
59082W        W 2073   3.858  26.603   2.738  0.1336  0.1685 -0.0318
59083W        W 2074  20.301   5.493   4.299  0.0425 -0.0285 -0.3184
59084W        W 2075  27.116  14.445   5.861 -0.0983 -0.0775 -0.0195
59085W        W 2076  32.658  10.943  20.807 -0.0091 -0.0176 -0.3701
59086W        W 2077  32.839   8.955  23.834 -0.0503 -0.1139 -0.1022
59087W        W 2078   5.663  17.400   1.586 -0.1598  0.0652 -0.2303
59088W        W 2079   0.227   9.359   6.304  0.0619  0.0756 -0.1135
59089W        W 2080  21.596  23.074   7.735 -0.2888  0.3735  0.1641
59090W        W 2081   0.961   8.540   2.613  0.1071 -0.2086 -0.0421
59091W        W 2082   8.904  23.637  20.546 -0.1577 -0.0036 -0.0142
59092W        W 2083  18.711  13.701  18.949 -0.2436  0.1069 -0.2522
59093W        W 2084  15.077   9.405  10.326  0.0313 -0.1111 -0.1348
59094W        W 2085  31.601   9.781   6.099  0.1087 -0.1245 -0.0042
59095W        W 2086   7.958  10.498  27.092  0.0883 -0.4153 -0.0664
59096W        W 2087   6.509  11.175  11.246  0.1026  0.0127  0.1093
59097W        W 2088  17.656  29.195   0.128 -0.1715 -0.1643  0.2171
59098W        W 2089  12.099  34.677  10.111 -0.2713 -0.2722  0.0914
59099W        W 2090  12.596  10.428   5.452  0.1390 -0.0185 -0.2743
59100W        W 2091   2.311  20.752  18.397  0.0505  0.2345  0.0195
59101W        W 2092   2.886  21.768  15.187 -0.3309 -0.5286  0.0001
59102W        W 2093   1.394  16.044  18.263  0.0430  0.4540 -0.1862
59103W        W 2094   9.851   4.971   7.641 -0.1449  0.0685  0.1380
59104W        W 2095   3.502  21.008  19.824  0.1402  0.0662 -0.4173
59105W        W 2096  34.643  12.836  27.447 -0.0780  0.3773 -0.1359
59106W        W 2097  11.725   7.234  15.765  0.0689 -0.2862  0.0361
59107W        W 2098   1.571  22.953   5.773  0.0991  0.2150 -0.1199
59108W        W 2099  25.150  13.079  10.150  0.0282 -0.1991 -0.1318
59109W        W 2100   2.508  16.391   9.384 -0.2373 -0.1876  0.0711
59110W        W 2101  13.340   7.980  10.699 -0.3529  0.1434 -0.0497
59111W        W 2102  27.987  26.260  25.607 -0.4042 -0.3683  0.2883
59112W        W 2103   4.570  21.722  24.039  0.0793  0.5271  0.4355
59113W        W 2104  30.195   1.663  22.895  0.0615  0.0260  0.5284
59114W        W 2105  34.072  12.003  10.649  0.1873 -0.0833 -0.0737
59115W        W 2106   0.676   5.092   8.394 -0.3645  0.0339 -0.2047
59116W        W 2107   8.241   7.245  19.345  0.0195 -0.0362  0.1090
59117W        W 2108   1.851  17.265  24.199  0.1184  0.0690  0.2295
59118W        W 2109  10.968   3.147  22.362 -0.1435  0.3701 -0.2862
59119W        W 2110   3.583   6.661   4.448 -0.0787 -0.2344  0.2791
59120W        W 2111   5.490  20.390  24.048 -0.1404  0.1529 -0.1548
59121W        W 2112  11.445   4.072  28.688  0.0948  0.1846  0.0445
59122W        W 2113   6.229  10.224  26.776  0.1070 -0.2179 -0.0251
59123W        W 2114  32.736   6.885   4.309  0.2084  0.4844  0.0277
59124W        W 2115  31.975  10.604  22.013 -0.2428 -0.0739 -0.2558
59125W        W 2116  31.972  24.770   2.992  0.1770  0.3450  0.2542
59126W        W 2117  30.313  32.285   3.330  0.2174  0.0780 -0.1984
59127W        W 2118  34.541   3.806   3.225  0.0764  0.0708 -0.0511
59128W        W 2119   5.085   7.949  21.195  0.0525 -0.2214 -0.2752
59129W        W 2120  27.532   5.853  13.371  0.1652  0.1160  0.2991
59130W        W 2121  15.704  17.201  20.852  0.0881  0.1836  0.1692
59131W        W 2122  14.458  27.321  26.372 -0.3159  0.0949  0.0708
59132W        W 2123   4.184  13.531   0.192  0.1491 -0.1629  0.1325
59133W        W 2124  19.974  18.409   8.672  0.3547  0.1151 -0.0908
59134W        W 2125  32.089   8.082   0.615  0.2776 -0.3069 -0.3739
59135W        W 2126   2.943  11.353   6.999 -0.0017 -0.0550  0.1247
59136W        W 2127   9.608  15.344  27.533 -0.0821  0.2160 -0.0475
59137W        W 2128  13.303  10.718   2.159  0.2489  0.2098  0.2382
59138W        W 2129  32.888  20.362  26.383 -0.0115  0.0735  0.2735
59139W        W 2130  23.121  33.740  25.722 -0.1129  0.2231  0.2674
59140W        W 2131   4.735  15.142   2.073  0.0300 -0.0375  0.0626
59141W        W 2132  33.750  18.717  22.373  0.3003  0.1052 -0.1043
59142W        W 2133   3.282  30.204   4.791  0.1643  0.0800  0.1420
59143W        W 2134   5.181  11.783  16.489 -0.0668  0.1635 -0.0345
59144W        W 2135   5.866   8.866   6.625  0.0916  0.2874  0.0027
59145W        W 2136  23.334   0.237  25.315  0.0946  0.2163  0.2306
59146W        W 2137   3.166  12.134   6.830  0.0932  0.1390  0.1573
59147W        W 2138  25.983  20.914  22.455  0.3236  0.1701  0.1482
59148W        W 2139   1.607  12.902   4.569 -0.1553  0.5349 -0.1413
59149W        W 2140  17.177   5.353  25.385  0.1577  0.1908 -0.2013
59150W        W 2141  15.514  21.751   3.456  0.0687 -0.1078 -0.2225
59151W        W 2142   2.890  15.943  11.034  0.0796 -0.0791 -0.2106
59152W        W 2143   0.972  13.724  17.399 -0.0284 -0.2616 -0.0701
59153W        W 2144   8.425  20.876  20.195 -0.0412  0.3277 -0.2393
59154W        W 2145  28.941  19.778  25.384  0.3222  0.0885 -0.2859
59155W        W 2146  31.694  13.589   7.851  0.3656  0.0769  0.0513
59156W        W 2147  30.976  33.717  14.509 -0.1623  0.0217 -0.0617
59157W        W 2148   0.710  14.918  27.530  0.0390 -0.0098 -0.3806
59158W        W 2149  25.817  33.609  29.001  0.1475 -0.1517 -0.2160
59159W        W 2150   7.156  22.704  24.568  0.1290 -0.3389 -0.1316
59160W        W 2151   7.163  17.804   8.106 -0.0874  0.2390  0.0980
59161W        W 2152   5.729  20.442   4.755 -0.1308  0.1617  0.1535
59162W        W 2153  33.478  30.858  25.857  0.0694 -0.0375 -0.3472
59163W        W 2154   6.788  34.389  28.517  0.1814 -0.0335 -0.1024
59164W        W 2155   6.758   8.258   8.834 -0.3099  0.1891  0.1378
59165W        W 2156  33.224  17.647  19.014  0.0277  0.0690 -0.1212
59166W        W 2157  23.990  12.238   6.867 -0.0496  0.0380  0.0332
59167W        W 2158   0.940   8.278  26.260 -0.2314 -0.0383  0.0467
59168W        W 2159  10.250  20.048  22.150  0.1305  0.1607  0.2849
59169W        W 2160  28.951  19.842  26.825 -0.0390  0.1849  0.0241
59170W        W 2161  29.528   5.026   8.046  0.1730  0.2705  0.0572
59171W        W 2162   3.568  17.483  16.993 -0.1078 -0.2507  0.1664
59172W        W 2163  11.098   8.151   9.328  0.1638  0.0144  0.0532
59173W        W 2164   3.196   6.342   6.411 -0.2861 -0.1492 -0.0405
59174W        W 2165  27.694   8.306   4.089 -0.0207 -0.0864  0.0795
59175W        W 2166  18.043  17.717  28.517  0.3409  0.1926 -0.0501
59176W        W 2167   3.857   0.325  22.403 -0.1772 -0.1511 -0.1282
59177W        W 2168  14.040   4.699  17.358 -0.0822  0.3356  0.1191
59178W        W 2169  29.567  19.535   3.899 -0.4071 -0.0412 -0.0143
59179W        W 2170  11.316  21.193  15.915 -0.1090  0.1195  0.1328
59180W        W 2171   3.928   2.387   8.613 -0.0617 -0.2028 -0.1944
59181W        W 2172  29.501  16.269  17.731  0.0314  0.1263 -0.0413
59182W        W 2173  17.239  27.489   5.330  0.0521  0.2529 -0.1633
59183W        W 2174  18.592  29.256   7.706  0.3075 -0.1044  0.1362
59184W        W 2175   3.322  16.162   4.448 -0.0562 -0.1845 -0.0422
59185W        W 2176  27.154  18.293   2.936 -0.0997 -0.0884  0.2675
59186W        W 2177   2.289  31.104  10.023  0.0630  0.1441 -0.1282
59187W        W 2178  27.268  17.305   8.343 -0.1897  0.1746  0.1205
59188W        W 2179  12.029  10.051  28.129  0.1201  0.2754  0.0500
59189W        W 2180   2.332  16.278   1.720  0.1107  0.4154 -0.0096
59190W        W 2181  10.432  17.641  26.180 -0.2925 -0.0049 -0.2987
59191W        W 2182  33.058  31.662   1.385 -0.2900 -0.4109 -0.5770
59192W        W 2183   8.237  15.458   9.104  0.0823 -0.0325 -0.0781
59193W        W 2184  31.322  24.107  20.206 -0.0789 -0.1064  0.0648
59194W        W 2185  32.614  31.126  27.424 -0.0895  0.0116  0.1736
59195W        W 2186  19.566  10.452  13.988  0.2773 -0.0276 -0.0387
59196W        W 2187  26.246  12.408   3.076  0.0664 -0.1637 -0.1586
59197W        W 2188  25.345  24.909   8.003  0.1762  0.1359 -0.1119
59198W        W 2189  29.836  15.099  22.419  0.1409  0.0685 -0.4415
59199W        W 2190   2.178  32.101  17.121 -0.0283  0.2883  0.0437
59200W        W 2191   6.130  28.558   4.349  0.0765  0.1810  0.1002
59201W        W 2192  26.427  24.683   1.535  0.2599 -0.1490 -0.0533
59202W        W 2193  17.243  16.114   7.076  0.0068  0.2464 -0.1007
59203W        W 2194  34.591   2.007   6.574 -0.0902  0.2504  0.0462
59204W        W 2195  32.862   8.991   9.735 -0.2490  0.4285  0.2459
59205W        W 2196   1.293  15.925  11.790  0.0430  0.2483 -0.1197
59206W        W 2197  29.030  12.417   8.974  0.0364  0.1872 -0.2812
59207W        W 2198  28.736  27.697  20.765 -0.1163  0.1408 -0.2297
59208W        W 2199  11.519  14.663  25.346 -0.1300 -0.0920  0.0673
59209W        W 2200   7.143  13.689  25.938  0.1999 -0.2769  0.0654
59210W        W 2201  16.071  27.071   0.378  0.1317 -0.1110  0.0495
59211W        W 2202  19.460   2.215   7.292 -0.0531  0.0002 -0.1783
59212W        W 2203  10.587  12.727   6.497  0.2874 -0.0825  0.1685
59213W        W 2204  14.713  10.141   1.825 -0.0959 -0.0697 -0.0004
59214W        W 2205  19.128  14.067   8.438 -0.2126 -0.0561  0.3708
59215W        W 2206  26.404   1.647   2.609 -0.3342  0.1286 -0.0155
59216W        W 2207   1.488  12.187   8.121 -0.3845  0.1978  0.2313
59217W        W 2208  28.620   6.417  22.970  0.2485  0.0239 -0.0333
59218W        W 2209  32.674  12.855  25.682 -0.0919 -0.0760  0.0778
59219W        W 2210   2.419   8.575   9.456  0.0165 -0.1676  0.2258
59220W        W 2211   4.070  22.734  24.342  0.1742 -0.2912  0.3938
59221W        W 2212   4.519   9.783  20.194  0.1217 -0.3292  0.0891
59222W        W 2213  29.494  19.441   7.309  0.1479 -0.0970  0.0947
59223W        W 2214  27.018   4.994  26.501 -0.1157  0.2948  0.0338
59224W        W 2215  24.619  17.528  25.298  0.1203  0.0615  0.1845
59225W        W 2216   1.355   2.919   3.812  0.3134  0.2359  0.1321
59226W        W 2217   3.791  15.091  11.477  0.2330 -0.0504 -0.1289
59227W        W 2218   2.227  17.235   3.939  0.0714 -0.1825 -0.1153
59228W        W 2219  14.547  10.587   8.570 -0.3052 -0.0145 -0.1914
59229W        W 2220  29.351  18.519   3.766  0.1497  0.1070 -0.2868
59230W        W 2221  10.795   4.028   7.533 -0.0442  0.0268 -0.0981
59231W        W 2222   8.788  11.709  25.732 -0.0359 -0.2306  0.2832
59232W        W 2223  28.104   1.094   0.416  0.1934  0.0314 -0.2662
59233W        W 2224  29.242  11.565   8.077  0.1894 -0.0129  0.1953
59234W        W 2225   2.559  15.701   0.418  0.0131  0.0720 -0.2414
59235W        W 2226  32.876  30.225   5.517  0.2529  0.2430 -0.1018
59236W        W 2227   2.094   2.556   8.459  0.1043 -0.4662 -0.0240
59237W        W 2228   1.426  11.163   4.729 -0.1700  0.5635  0.1613
59238W        W 2229   8.543  16.693   3.974  0.1446 -0.1035 -0.3000
59239W        W 2230  15.579   0.371   0.608  0.2535  0.1630  0.2317
59240W        W 2231  24.070  18.394  15.458 -0.1618 -0.1794  0.1260
59241W        W 2232   8.749  18.487   3.666 -0.0800 -0.0852 -0.2010
59242W        W 2233  27.225  13.658  21.580 -0.5282 -0.1026 -0.2077
59243W        W 2234  29.461  30.431   1.448 -0.1362 -0.1341 -0.1304
59244W        W 2235   2.369  19.092   6.539 -0.0177 -0.2403  0.0001
59245W        W 2236  23.918  16.252   4.106  0.1314 -0.2020 -0.4218
59246W        W 2237   6.976  23.601   7.068 -0.2329  0.0689 -0.2016
59247W        W 2238   8.779   1.476   9.710  0.0732  0.0084  0.0961
59248W        W 2239  13.643   0.787   0.593  0.0312  0.0982  0.0277
59249W        W 2240   3.501   6.244  19.199  0.1125  0.1546  0.0603
59250W        W 2241  15.438   7.492  10.772 -0.0643 -0.0181  0.1924
59251W        W 2242   2.200  10.806  10.674  0.1355 -0.0261  0.1056
59252W        W 2243  14.442  22.042   4.406 -0.2938  0.1548 -0.0202
59253W        W 2244  33.320  20.878   5.231  0.1127  0.3110 -0.1478
59254W        W 2245   5.087  24.511   1.651  0.1501 -0.2092 -0.2677
59255W        W 2246   3.272  20.850   8.630 -0.2098  0.0014 -0.2431
59256W        W 2247  10.863   3.255   5.253 -0.2441 -0.0587 -0.0168
59257W        W 2248  25.558  18.284  25.762 -0.0250  0.0909  0.1949
59258W        W 2249   9.877   5.960  27.785 -0.3078  0.0140  0.1352
59259W        W 2250   8.989   8.643  20.500 -0.3025 -0.0423 -0.2052
59260W        W 2251  19.718   1.687  26.123 -0.0490  0.1571  0.1270
59261W        W 2252   8.357   3.630   3.698  0.1734  0.0782  0.1987
59262W        W 2253   1.208  16.446   6.377 -0.0401  0.3194 -0.2025
59263W        W 2254   3.829  12.034   8.238  0.1226  0.0924  0.0037
59264W        W 2255   0.943   9.151   2.693  0.1186  0.2461 -0.1872
59265W        W 2256   6.333   8.429  27.513 -0.2483 -0.0556  0.0137
59266W        W 2257   6.930   6.907   2.157 -0.0670  0.0136  0.3029
59267W        W 2258  17.529  17.961   2.685  0.2262 -0.0968 -0.1090
59268W        W 2259   9.264   9.258  18.346 -0.1736  0.0261  0.0799
59269W        W 2260  19.104  10.767  22.646 -0.3061 -0.2264  0.1804
59270W        W 2261  12.758  32.565   2.804 -0.0383 -0.2054  0.1267
59271W        W 2262   5.116  22.996  25.903 -0.0157  0.1631  0.1790
59272W        W 2263   0.814  14.591  24.883 -0.0047  0.1126  0.4229
59273W        W 2264   2.140  29.603   1.014 -0.5006 -0.1246 -0.2164
59274W        W 2265  13.107  16.236   9.164 -0.1034  0.1240  0.0905
59275W        W 2266  24.816  22.278   2.845  0.0328  0.2375 -0.2324
59276W        W 2267  32.960  11.329   9.382  0.2393 -0.0397  0.0083
59277W        W 2268   2.575  26.639   9.333  0.0871  0.3382 -0.2125
59278W        W 2269  32.995  11.167   4.461  0.1125 -0.0057  0.2166
59279W        W 2270   6.819   4.747  21.461  0.0411 -0.1164 -0.0825
59280W        W 2271   5.407  16.862   6.788 -0.2043 -0.1981 -0.0434
59281W        W 2272   1.724   6.058   4.628 -0.1003  0.0834 -0.1566
59282W        W 2273  10.728   8.456  28.459 -0.0320 -0.0558 -0.0794
59283W        W 2274  30.956  24.298   1.945  0.3012  0.0376 -0.0583
59284W        W 2275   1.467  18.585   2.105 -0.3447 -0.0660  0.1606
59285W        W 2276  14.736  29.200   7.550 -0.0470  0.0486 -0.0491
59286W        W 2277  26.321   2.335   0.148 -0.3630  0.1285  0.0610
59287W        W 2278  17.319   8.263   9.623 -0.2471  0.0905  0.3172
59288W        W 2279  29.069   8.501   9.975 -0.1101  0.0450  0.2954
59289W        W 2280   4.301  18.881   5.359 -0.0260 -0.0949 -0.0017
59290W        W 2281  31.265  10.726   9.050  0.3157 -0.0469 -0.3068
59291W        W 2282  27.703  12.806   3.950 -0.0438  0.1821 -0.4508
59292W        W 2283  27.105   6.772   9.165  0.3786 -0.1798 -0.0308
59293W        W 2284  24.496   1.274   7.042 -0.0879 -0.1619 -0.0253
59294W        W 2285  31.848  20.645  26.564  0.0419  0.0796 -0.1378
59295W        W 2286   9.422  10.737  11.393 -0.1561 -0.1877  0.0229
59296W        W 2287  27.766  17.410   0.271  0.3006 -0.1051 -0.3354
59297W        W 2288   3.064   3.272   3.528  0.0522 -0.0019 -0.0959
59298W        W 2289   6.666  32.557   3.005 -0.1934  0.0880 -0.2778
59299W        W 2290  34.530  15.800   6.236  0.2089 -0.0978 -0.3707
59300W        W 2291  24.731  15.587   5.397  0.0949  0.0337 -0.0462
59301W        W 2292   9.271  26.107   3.717 -0.2166  0.2121 -0.0142
59302W        W 2293  18.870   8.879  16.552 -0.2223  0.0851  0.2734
59303W        W 2294  17.725   7.449   7.822  0.2308  0.2908 -0.4780
59304W        W 2295  19.002   7.529  17.392  0.0088  0.0027  0.2911
59305W        W 2296  29.664   3.560   0.585 -0.3289  0.0246 -0.0518
59306W        W 2297   4.558  33.677   3.774 -0.2553  0.3226  0.2102
59307W        W 2298  25.494  30.591   2.724 -0.3210 -0.0189  0.1007
59308W        W 2299  20.447  30.962  28.310  0.3302 -0.0878 -0.1152
59309W        W 2300   4.950  28.356   8.495  0.0640 -0.1351  0.1803
59310W        W 2301  34.368  12.882   1.347 -0.3422 -0.1742 -0.0513
59311W        W 2302   6.950  17.900   1.110 -0.2622  0.1981  0.2236
59312W        W 2303   9.819  17.676  27.962  0.3377 -0.2464 -0.2539
59313W        W 2304  12.084  21.794  24.904 -0.0988  0.0993 -0.0451
59314W        W 2305  15.686  16.147   8.529  0.2349  0.0725 -0.3061
59315W        W 2306  28.882   2.794   1.896 -0.2254  0.1585 -0.0790
59316W        W 2307  22.516  18.328   6.545 -0.1177 -0.0065 -0.1023
59317W        W 2308  33.374   9.557   2.164  0.2990  0.0354 -0.1717
59318W        W 2309   9.491  14.808   3.446  0.0323 -0.1389  0.0532
59319W        W 2310   8.089   1.561  28.284  0.1108 -0.4171 -0.2960
59320W        W 2311   6.123  18.533   4.351 -0.4077  0.0841  0.0466
59321W        W 2312  14.612   8.253  11.496  0.1530  0.4434 -0.0228
59322W        W 2313   9.326  18.690   6.854  0.2658  0.0913 -0.0229
59323W        W 2314   3.098  17.187   1.357  0.0419 -0.3302 -0.0830
59324W        W 2315  13.175   0.248   9.460 -0.2446 -0.2923  0.0940
59325W        W 2316   3.755  24.234   7.133  0.1217  0.2247 -0.0882
59326W        W 2317  24.674  19.647   8.493  0.0031 -0.0411 -0.2300
59327W        W 2318   2.726  16.211  26.682  0.1038 -0.0255  0.2710
59328W        W 2319  28.579  21.665  19.175 -0.1297  0.3345 -0.0600
59329W        W 2320   0.474   7.363   7.136  0.0885 -0.1100  0.3481
59330W        W 2321   4.576  33.287  27.057  0.0422  0.0567 -0.0797
59331W        W 2322   5.011  23.592   7.604  0.1132  0.0148 -0.0097
59332W        W 2323  14.950  15.023  26.376  0.4181  0.2573 -0.3107
59333W        W 2324   1.412   7.939   0.627 -0.0480 -0.1644  0.1127
59334W        W 2325   6.621  14.782  26.545 -0.1966 -0.1879 -0.0340
59335W        W 2326   0.599   1.280   5.538 -0.2076  0.2633  0.1017
59336W        W 2327   6.438  23.459  28.216 -0.2056 -0.1827 -0.2509
59337W        W 2328  29.797  27.884  28.544  0.2658 -0.1266  0.1708
59338W        W 2329  11.332  29.099   6.474  0.0603 -0.3095 -0.0760
59339W        W 2330  12.070  13.397   5.715 -0.0244  0.3221  0.2773
59340W        W 2331  15.816  13.052  27.474 -0.0007  0.0229 -0.1286
59341W        W 2332   5.980  30.979   2.878 -0.0893 -0.1406  0.1372
59342W        W 2333  13.175  10.319   3.032 -0.0795 -0.1038 -0.0781
59343W        W 2334   5.135  12.549   6.262 -0.0144 -0.0756  0.1300
59344W        W 2335   1.541   2.468   9.716 -0.2009  0.0888 -0.1056
59345W        W 2336  19.495  19.889  21.965  0.4141  0.0640 -0.0694
59346W        W 2337  10.407  21.600  21.449 -0.0148  0.0140 -0.3130
59347W        W 2338   7.336  16.801  28.375 -0.1205  0.1270  0.4590
59348W        W 2339   1.549   1.412   4.717  0.0674  0.0058 -0.0160
59349W        W 2340   8.246   6.329   1.426 -0.1143 -0.1841 -0.0955
59350W        W 2341   1.280  15.238   9.534 -0.3232 -0.2854  0.2556
59351W        W 2342  33.713   9.606   6.984  0.1865  0.0233 -0.2321
59352W        W 2343   7.030   8.845  25.870  0.0022 -0.2523  0.3544
59353W        W 2344  31.427  11.314   7.858  0.1328 -0.0343  0.1336
59354W        W 2345  34.319  32.467   1.873  0.4606  0.0028 -0.1608
59355W        W 2346  30.811  13.214  20.580 -0.0818 -0.0606  0.0767
59356W        W 2347   4.595  10.100  11.333 -0.1143 -0.0491  0.0568
59357W        W 2348  14.727   6.402   4.434 -0.4820  0.0500 -0.0083
59358W        W 2349   3.674  21.249  26.921 -0.0321  0.1308 -0.0159
59359W        W 2350  34.257  14.730  15.342  0.0379 -0.0722  0.1743
59360W        W 2351   0.269  15.769  11.228 -0.0117  0.1068  0.2874
59361W        W 2352  11.675   1.829  24.716 -0.0122 -0.1605 -0.0251
59362W        W 2353  31.928  15.773  25.499  0.1374  0.0289  0.0086
59363W        W 2354  30.261  11.270   2.741  0.0632  0.3467 -0.0967
59364W        W 2355  15.609  18.778   2.548  0.1337  0.5398 -0.0874
59365W        W 2356  34.000  21.018  25.449 -0.2124 -0.2130 -0.0758
59366W        W 2357   6.076  14.780   7.453  0.2100 -0.1595 -0.0953
59367W        W 2358   1.783   8.575  29.223 -0.0300  0.0448  0.1373
59368W        W 2359   1.755   1.432  26.837 -0.1725 -0.3161  0.0479
59369W        W 2360   5.733  11.667   2.984 -0.3667 -0.1532 -0.2826
59370W        W 2361   0.989   0.340   3.727  0.2072 -0.3409 -0.2235
59371W        W 2362   4.519   9.939   8.813 -0.2419 -0.3104 -0.0359
59372W        W 2363  31.150   6.769   6.659  0.1147  0.0326  0.0594
59373W        W 2364  31.588  20.493   5.770 -0.1367 -0.1078 -0.1701
59374W        W 2365  24.319  34.693   3.054  0.1117  0.0285  0.0629
59375W        W 2366   3.954  33.638   6.466  0.4293  0.3856 -0.0474
59376W        W 2367  33.403  27.995   1.551  0.2321 -0.1240  0.0553
59377W        W 2368   0.341  19.536   3.036  0.0505  0.0947  0.0164
59378W        W 2369  24.804   1.609  28.363 -0.1787  0.1644 -0.2119
59379W        W 2370  33.028  22.824   1.018  0.1186 -0.6546 -0.0377
59380W        W 2371  18.115  15.763  26.656  0.0512  0.1309 -0.0790
59381W        W 2372   6.125  14.612  25.791 -0.0101  0.1884 -0.0753
59382W        W 2373  28.191   4.830  13.697  0.0317 -0.1566 -0.2016
59383W        W 2374  34.082  26.280  21.530 -0.1151  0.2374  0.1359
59384W        W 2375   4.054   9.897  22.014 -0.2025 -0.2438 -0.1167
59385W        W 2376  25.364   3.693   5.868 -0.1901  0.0309  0.3858
59386W        W 2377  29.419   9.326   7.904  0.1828 -0.1968 -0.5439
59387W        W 2378  10.735  12.387   0.395 -0.2457 -0.0454  0.1625
59388W        W 2379   4.445  10.436   7.423 -0.4286  0.1862 -0.0921
59389W        W 2380  11.936   5.508  10.097  0.1810 -0.0135  0.1010
59390W        W 2381  28.509   1.949   8.596 -0.0524 -0.1014  0.0674
59391W        W 2382  30.878  11.702   2.419  0.1275  0.3650  0.3365
59392W        W 2383  34.420   7.938   7.447  0.0088 -0.0717 -0.0477
59393W        W 2384  12.303  10.660   5.887 -0.2570 -0.0494  0.3123
59394W        W 2385  25.479   4.638   8.002 -0.0679 -0.0914  0.3522
59395W        W 2386  22.946  21.959   5.534 -0.2809 -0.0629  0.1545
59396W        W 2387   6.800  12.604  22.503  0.1673 -0.0885  0.0051
59397W        W 2388   7.600   0.540   5.440  0.0779  0.4554 -0.0441
59398W        W 2389  10.343  14.701   0.829  0.0569  0.0139  0.1095
59399W        W 2390   0.910  19.425   5.136 -0.2140  0.0814 -0.0748
59400W        W 2391  26.892  16.131   5.717 -0.2385  0.1592  0.5154
59401W        W 2392   2.124  14.834   1.591 -0.2146  0.0215 -0.1435
59402W        W 2393  34.261   8.884  10.260  0.0838  0.2114  0.0762
59403W        W 2394  32.148  18.286   7.933  0.1159 -0.2168 -0.0525
59404W        W 2395  12.810  21.501   6.695 -0.1281 -0.3723  0.0126
59405W        W 2396   8.491  20.189   8.607  0.1184 -0.0236 -0.0434
59406W        W 2397   9.566  14.839   8.058 -0.0883  0.1080  0.1050
59407W        W 2398   7.238  17.183  24.652  0.2077 -0.1179  0.1820
59408W        W 2399   6.900   8.713  25.318 -0.0820  0.4204 -0.0419
59409W        W 2400   3.327  19.772   1.781 -0.2916  0.1064 -0.4394
59410W        W 2401  17.681  23.608  24.268  0.3092  0.0492  0.2171
59411W        W 2402   0.445  20.632   9.741  0.3492  0.1009 -0.1538
59412W        W 2403   7.727  15.150  20.798 -0.5345  0.0132 -0.1499
59413W        W 2404  31.761  26.536   6.537 -0.1359 -0.0542  0.0517
59414W        W 2405  14.721  24.610  18.596 -0.1108  0.3027  0.0570
59415W        W 2406  33.287   6.201   8.139  0.1212 -0.0050 -0.0105
59416W        W 2407  12.990   5.875  20.408  0.0073 -0.3777  0.1551
59417W        W 2408  13.271   9.131   7.539 -0.0540 -0.3319 -0.1148
59418W        W 2409   6.464   4.326   8.362 -0.2112 -0.0384  0.4650
59419W        W 2410  18.459  24.859   6.855 -0.0142 -0.2750  0.2601
59420W        W 2411   4.240   9.323   3.553 -0.3956 -0.0371  0.1679
59421W        W 2412  30.938  26.005   8.719  0.1570 -0.0793 -0.3116
59422W        W 2413   8.956  22.179   6.855 -0.0847  0.1068 -0.0727
59423W        W 2414  30.676  12.083  11.677  0.3414  0.2167  0.4325
59424W        W 2415  33.768   3.271  25.530  0.0132 -0.0582  0.2940
59425W        W 2416  28.052  28.489   6.962 -0.2521 -0.4038  0.0014
59426W        W 2417  15.895   7.043   1.523  0.0451 -0.2930 -0.2904
59427W        W 2418  17.759  11.413  28.722  0.0017  0.2106 -0.1192
59428W        W 2419  10.369  16.041   5.825 -0.1171  0.2989  0.1476
59429W        W 2420  13.616  17.166  24.262 -0.4662 -0.1435 -0.1070
59430W        W 2421  22.460  10.922   1.588  0.4305  0.2111  0.0743
59431W        W 2422  32.260  26.107   4.371  0.0748 -0.1067 -0.0247
59432W        W 2423  30.574   2.790   7.372  0.1584 -0.1397  0.1553
59433W        W 2424  12.127  12.680  23.407  0.1885  0.0628 -0.1619
59434W        W 2425   5.496   1.966   3.150 -0.2771 -0.2872 -0.0688
59435W        W 2426  24.597   9.643  22.294 -0.0453  0.0538 -0.0270
59436W        W 2427  12.186   3.472  10.460  0.2805  0.0466  0.1131
59437W        W 2428  25.573   0.320   4.005  0.0066  0.0638 -0.1194
59438W        W 2429   2.050  13.651   3.551 -0.1730 -0.2702 -0.0994
59439W        W 2430  11.047  19.548  22.897  0.5297  0.1034  0.0135
59440W        W 2431  18.727  14.222  25.925  0.0346 -0.2124  0.0795
59441W        W 2432  33.135  11.580  10.318 -0.1309 -0.3031  0.0819
59442W        W 2433  11.200   9.624   3.509  0.1667  0.2650 -0.1205
59443W        W 2434   5.191  26.801   0.774  0.1342  0.0830  0.1076
59444W        W 2435  12.410  13.835   8.816 -0.3938  0.2697 -0.0227
59445W        W 2436  23.796  19.008   1.401  0.1336 -0.2764  0.1894
59446W        W 2437  12.856  22.886  19.047 -0.1184  0.0327  0.2165
59447W        W 2438   2.905  33.572   5.928  0.1186 -0.1228 -0.0852
59448W        W 2439   4.615   9.496   9.896  0.0312  0.1759  0.1186
59449W        W 2440  25.362  17.809   0.386 -0.1350  0.2522  0.2465
59450W        W 2441   0.556  33.323   3.280  0.0915 -0.0090 -0.1130
59451W        W 2442  26.838  13.844  24.234 -0.3992  0.0450 -0.1099
59452W        W 2443   6.077   6.388  24.668 -0.2402  0.2361  0.1405
59453W        W 2444  33.203  20.173   0.432  0.1244 -0.1039 -0.1536
59454W        W 2445  32.794   5.729  18.643  0.0904  0.0216 -0.0262
59455W        W 2446  14.368  27.967   7.608  0.0543 -0.3313  0.1204
59456W        W 2447   3.014  29.812   7.852  0.3599 -0.0143 -0.0635
59457W        W 2448  33.307  31.883   7.526 -0.3440 -0.2614 -0.0180
59458W        W 2449   1.819   7.098  10.607  0.0665  0.1881 -0.3513
59459W        W 2450  11.379  12.101  24.651  0.2970 -0.0222 -0.2602
59460W        W 2451  17.155  14.910   1.934  0.0064  0.0947  0.2528
59461W        W 2452   6.915  18.891   5.298 -0.0038  0.0942 -0.1894
59462W        W 2453  34.246  18.481   4.227 -0.1290 -0.0500 -0.0748
59463W        W 2454  34.609   4.097  25.139  0.0091  0.2134  0.0698
59464W        W 2455  26.046  15.986  27.875  0.0363  0.0015  0.5029
59465W        W 2456  25.318  16.470   7.979 -0.1820 -0.0416 -0.0469
59466W        W 2457   1.181  13.104   8.857 -0.0487  0.0361  0.1404
59467W        W 2458   0.929  32.516  27.905  0.3897 -0.0615  0.1869
59468W        W 2459   4.062  15.181  26.348 -0.2412  0.2477 -0.1652
59469W        W 2460   2.721  14.480  22.497 -0.0298  0.0765  0.1523
59470W        W 2461   0.728  14.595   9.977 -0.2288 -0.1221 -0.1087
59471W        W 2462  15.930   2.947   4.255 -0.1334  0.0831  0.1470
59472W        W 2463  24.539  11.310   9.737  0.1216 -0.3872 -0.1519
59473W        W 2464  11.914   4.280   8.118  0.1375  0.3560  0.0519
59474W        W 2465   6.705   6.764   8.680  0.2849 -0.2625 -0.2200
59475W        W 2466   1.204  20.332  10.430 -0.0906 -0.0314 -0.1283
59476W        W 2467  25.666  18.301   6.384 -0.0727 -0.1190  0.1043
59477W        W 2468   0.477  14.212  11.314  0.0384  0.3672  0.2077
59478W        W 2469  28.731  11.567  22.939  0.0305  0.1080  0.1470
59479W        W 2470  12.767  12.299  25.720  0.2274 -0.0230  0.3257
59480W        W 2471   2.265   1.079  17.135 -0.0858 -0.1291  0.0417
59481W        W 2472  21.616  20.499  26.927 -0.2033 -0.2382 -0.0116
59482W        W 2473   8.441   9.704   8.219  0.1097  0.2023 -0.0547
59483W        W 2474  11.524  14.428  26.222 -0.2591  0.0687  0.4648
59484W        W 2475  25.990  11.015   9.323  0.0946 -0.1534 -0.0954
59485W        W 2476  12.682  12.407   8.774 -0.3301 -0.0527 -0.0114
59486W        W 2477  27.300  17.645   3.747  0.0054  0.2714  0.0054
59487W        W 2478  12.719  31.096  28.759  0.1779  0.1993  0.0812
59488W        W 2479  23.551  11.731  26.535  0.1767  0.0466 -0.1057
59489W        W 2480  17.798   9.686  18.511 -0.1628 -0.1283 -0.0393
59490W        W 2481  11.830  21.205   4.834  0.1435  0.3235  0.0279
59491W        W 2482  12.205   7.549   7.910 -0.1287  0.1798 -0.1357
59492W        W 2483  14.172  14.438   6.312 -0.1695 -0.2238  0.1899
59493W        W 2484  15.072   7.539   6.392 -0.0217 -0.2395  0.3572
59494W        W 2485  31.002  31.522  14.826 -0.2112 -0.2426 -0.0225
59495W        W 2486  18.631  12.922  27.895  0.1872  0.0878 -0.1098
59496W        W 2487  14.816  17.553  15.717 -0.1590  0.0315 -0.0624
59497W        W 2488  26.482   5.147  26.511  0.0903 -0.5884 -0.1594
59498W        W 2489  15.119   6.649   0.007 -0.3357 -0.1165  0.0450
59499W        W 2490  20.164   4.849   8.433 -0.3380 -0.2358  0.0124
59500W        W 2491   4.376  23.039   6.502  0.0809  0.1670 -0.3488
59501W        W 2492   8.162  29.337   5.492 -0.0084  0.1269  0.1011
59502W        W 2493  12.136   8.107   7.019 -0.0792  0.1041  0.0345
59503W        W 2494  24.736   9.666  25.826  0.0501  0.0807 -0.1673
59504W        W 2495  26.398  13.027   6.901  0.1629 -0.3828  0.1629
59505W        W 2496   5.247  29.637  27.573  0.0779 -0.0577 -0.2650
59506W        W 2497  14.371   1.459  18.942  0.0344 -0.0226  0.0276
59507W        W 2498  30.211   1.457   9.464 -0.2792  0.0794  0.0972
59508W        W 2499   1.617  18.431   6.904 -0.1534 -0.0785 -0.0452
59509W        W 2500  19.117   9.684  24.706  0.1572  0.0884  0.2426
59510W        W 2501  14.014  14.422  27.413 -0.1534 -0.3847  0.0223
59511W        W 2502  25.423   3.196   8.247  0.1690  0.1293 -0.1667
59512W        W 2503   2.916  12.569  10.001 -0.0442 -0.0985  0.2378
59513W        W 2504  17.341  14.062   5.905  0.0578  0.0856  0.0185
59514W        W 2505   8.762   9.164  27.496 -0.2250 -0.0050  0.3853
59515W        W 2506  10.776   8.912   8.724 -0.2636 -0.2422 -0.0522
59516W        W 2507  31.895  33.375   4.878  0.0020 -0.2154 -0.0675
59517W        W 2508  13.565  19.504   1.099  0.0277 -0.1458 -0.0374
59518W        W 2509   8.981  25.525  26.943 -0.1762  0.1697 -0.3418
59519W        W 2510   1.821  20.816  28.595  0.1206 -0.0469 -0.1700
59520W        W 2511  33.692  27.855   6.706 -0.0978 -0.0779 -0.2670
59521W        W 2512  12.939  34.352   3.455  0.0412  0.1493 -0.0961
59522W        W 2513   6.663  21.823   6.602 -0.2021  0.1085 -0.0651
59523W        W 2514   1.536  21.227  28.900  0.0588  0.0390  0.0808
59524W        W 2515  11.342   2.721  11.026  0.1206 -0.1139  0.0433
59525W        W 2516   3.946   7.616  26.251 -0.2606 -0.1727 -0.1453
59526W        W 2517   3.187  31.619   7.850  0.2466  0.0728  0.0749
59527W        W 2518   5.844  12.066   6.353  0.0449 -0.1379  0.3136
59528W        W 2519   4.095  14.173  27.632  0.0884  0.0914  0.2117
59529W        W 2520  34.473   3.597   9.197 -0.2513  0.0921 -0.1186
59530W        W 2521  32.598   3.136   3.809 -0.1481 -0.1394  0.0185
59531W        W 2522   2.413   0.683  23.589  0.2063  0.0109 -0.0982
59532W        W 2523  28.912   4.734  22.707 -0.1815 -0.1440 -0.2607
59533W        W 2524   4.947   3.383  26.992  0.0653  0.4089 -0.0420
59534W        W 2525  23.422   2.582   6.219  0.2392 -0.0687 -0.0320
59535W        W 2526   0.411  16.777   3.662 -0.1599 -0.6115 -0.1243
59536W        W 2527   8.927  25.368   8.260  0.1366 -0.0252 -0.2689
59537W        W 2528  30.130  30.610   1.983  0.1000  0.0750 -0.0133
59538W        W 2529  34.786  12.949   2.965  0.1463  0.2583 -0.1993
59539W        W 2530  33.821   7.886   2.046 -0.0802  0.0825  0.0823
59540W        W 2531  28.121   7.871   4.176  0.0635  0.3132 -0.1591
59541W        W 2532   7.853  15.744   9.646  0.3388  0.1620  0.1559
59542W        W 2533  34.482   1.070   2.660 -0.1852  0.1573  0.0807
59543W        W 2534   2.300  32.622  23.163 -0.0448 -0.0103  0.0244
59544W        W 2535  12.271   5.522  25.765 -0.2714 -0.1113 -0.1131
59545W        W 2536  30.886   5.774   7.690 -0.0538 -0.0465 -0.0060
59546W        W 2537  20.611  28.588  28.789 -0.1498 -0.1199  0.2201
59547W        W 2538   0.434  15.878   9.806  0.0373  0.1382 -0.0007
59548W        W 2539   9.996  28.768  16.753  0.2800  0.0131  0.3044
59549W        W 2540  25.596  10.663  27.406  0.2170  0.1074  0.2081
59550W        W 2541  21.976   4.718  21.348  0.0834 -0.0289 -0.0101
59551W        W 2542  31.717   2.304   6.207  0.0706 -0.1132 -0.0490
59552W        W 2543  27.535  16.458   3.989 -0.2344 -0.3584 -0.2619
59553W        W 2544   5.432  10.860  21.277 -0.1128  0.3506 -0.0036
59554W        W 2545  11.378  16.346  17.912  0.2473 -0.0447 -0.1614
59555W        W 2546  23.243  10.227   0.947 -0.1426 -0.2568  0.0088
59556W        W 2547   2.489  34.603  23.861  0.2728 -0.1695  0.1376
59557W        W 2548  19.463  29.568  22.265  0.1600  0.0297 -0.1938
59558W        W 2549   8.092  17.358  28.307 -0.0173 -0.6100  0.1453
59559W        W 2550  30.081  28.858   1.148  0.0830  0.0466 -0.0172
59560W        W 2551   4.106  14.964   8.277  0.2946 -0.0848 -0.0424
59561W        W 2552   3.777  16.612   2.798  0.3053  0.1270 -0.1170
59562W        W 2553   1.236  14.082  23.561 -0.1302  0.0090  0.1774
59563W        W 2554   7.578  11.103   2.440  0.3077  0.1502  0.1818
59564W        W 2555   8.658   8.284   9.782 -0.1331 -0.0557  0.2278
59565W        W 2556  27.825   0.843   8.781  0.2952 -0.0578  0.0045
59566W        W 2557  32.525   4.580   9.475  0.1554  0.0376 -0.2057
59567W        W 2558  17.671  19.264  28.678 -0.3519 -0.1749  0.2797
59568W        W 2559  15.291  24.640  22.298 -0.3469  0.0471  0.0537
59569W        W 2560  10.062   0.427   1.175 -0.1137  0.0441 -0.3447
59570W        W 2561  15.437   1.589  23.568 -0.0119 -0.2986 -0.0535
59571W        W 2562   6.984   8.048  23.852  0.0343 -0.0829 -0.0909
59572W        W 2563  26.951  19.321   3.084  0.2052  0.2657 -0.1475
59573W        W 2564   2.131  20.637   0.001 -0.2743  0.1965 -0.0189
59574W        W 2565   6.992   9.885   5.509  0.3355  0.0277 -0.0021
59575W        W 2566  30.379   6.762  27.522 -0.0841 -0.0518  0.2308
59576W        W 2567   0.889  15.487   3.900  0.2518  0.2516 -0.1450
59577W        W 2568   1.385   1.238  18.041  0.2000  0.0130 -0.2130
59578W        W 2569   5.524  24.220   8.211  0.1248 -0.0236 -0.1250
59579W        W 2570   1.374  31.432  23.857 -0.1422  0.1124  0.0650
59580W        W 2571  32.422  27.226   3.856 -0.1490  0.0973 -0.0546
59581W        W 2572   0.917  16.342  29.164 -0.0401  0.1249 -0.1895
59582W        W 2573  12.573   6.763   7.550  0.3129  0.0503 -0.3830
59583W        W 2574  11.644  20.729   8.007  0.0640 -0.1562 -0.1044
59584W        W 2575  34.263  28.044  27.977  0.1051  0.1704  0.0327
59585W        W 2576  26.169  15.067   4.348  0.0226 -0.3207  0.1223
59586W        W 2577  29.662  13.622   6.161 -0.0597 -0.0385 -0.0542
59587W        W 2578  13.947  23.331   8.991 -0.0661  0.2848  0.0535
59588W        W 2579   0.712  20.787   6.754  0.1799  0.2076  0.4721
59589W        W 2580  30.118   9.506   5.154  0.1285  0.1328 -0.0989
59590W        W 2581   5.574  14.203  17.421 -0.1102 -0.0537  0.0365
59591W        W 2582   3.720   7.564   3.712  0.0324 -0.1065  0.0186
59592W        W 2583  32.563  15.827   8.008 -0.3019 -0.0827  0.2982
59593W        W 2584   5.364   8.521  27.751 -0.1124 -0.0217 -0.3013
59594W        W 2585   3.872  14.104   8.488  0.0514 -0.0404 -0.4886
59595W        W 2586   2.398  15.076   5.231 -0.0834 -0.1568 -0.1320
59596W        W 2587   7.633  11.070   8.104 -0.0481  0.0477 -0.1689
59597W        W 2588  10.260  14.135  24.870 -0.1411 -0.0753 -0.0639
59598W        W 2589   1.071   6.247  19.208 -0.0721  0.0347 -0.1544
59599W        W 2590  13.253   6.377   7.476 -0.3106 -0.2889  0.0112
59600W        W 2591  18.298  14.255   0.180 -0.3082  0.0871 -0.1561
59601W        W 2592  32.562  21.706  19.589 -0.0468 -0.0129 -0.1327
59602W        W 2593  30.402  29.998   4.429 -0.1103 -0.3171  0.0402
59603W        W 2594  26.196  29.138   6.128  0.0390 -0.1300  0.0002
59604W        W 2595  14.651   1.695   5.923 -0.3177 -0.2023  0.3172
59605W        W 2596  17.745   4.553  18.472 -0.0585  0.1059 -0.1828
59606W        W 2597   8.749  15.361   8.405 -0.2239 -0.0881  0.0356
59607W        W 2598   6.609   9.851   5.811  0.1563 -0.0138 -0.1824
59608W        W 2599   5.905   8.986  25.369 -0.4650  0.3123  0.0616
59609W        W 2600  17.549  20.185  12.898  0.0793 -0.0365 -0.0064
59610W        W 2601   3.799   5.525  25.069  0.0593 -0.0236  0.0601
59611W        W 2602  16.570   0.452  28.969  0.0824  0.0297  0.0659
59612W        W 2603  11.077  16.050   8.457  0.2289 -0.0418 -0.0817
59613W        W 2604  17.149  14.996  27.512 -0.1257 -0.1769  0.4261
59614W        W 2605  30.233   9.718   3.719  0.0077 -0.3559 -0.2773
59615W        W 2606  11.110   0.714   2.690  0.0284 -0.2608 -0.2389
59616W        W 2607   4.733  20.326   0.353 -0.1763 -0.0731  0.0132
59617W        W 2608   4.639  10.721  25.247  0.2302 -0.0391  0.1198
59618W        W 2609   1.613  13.989  28.309  0.2960 -0.1103 -0.3111
59619W        W 2610  17.931  18.473   5.784  0.2927  0.0025  0.2654
59620W        W 2611   1.569   7.345   3.308 -0.0937 -0.2252  0.3009
59621W        W 2612  30.256  11.480   4.407 -0.0964  0.1849 -0.1860
59622W        W 2613  31.534   7.875  23.142 -0.0649  0.2528 -0.1042
59623W        W 2614  28.511  15.602   7.512  0.0045 -0.0715 -0.2110
59624W        W 2615  12.549   9.332  10.010  0.0622  0.0035  0.0680
59625W        W 2616   7.835  27.178   9.959  0.0258 -0.1505 -0.1119
59626W        W 2617  26.269   7.212  14.384  0.0860  0.1241 -0.0777
59627W        W 2618  21.437  34.585  27.708  0.0129 -0.0864 -0.0684
59628W        W 2619   0.766   6.210  10.306  0.2406  0.0694  0.3656
59629W        W 2620   6.036   7.726  23.806 -0.1317  0.1427 -0.0261
59630W        W 2621   3.113  17.497  11.527 -0.2561  0.2671 -0.0461
59631W        W 2622  19.529  20.256   1.816  0.0292  0.0022  0.0156
59632W        W 2623  31.479   9.429   4.912 -0.0618 -0.1843  0.1115
59633W        W 2624   1.254  15.404   5.896 -0.0513 -0.2894 -0.0941
59634W        W 2625  32.115  16.605   5.000  0.0861 -0.0252  0.2397
59635W        W 2626   2.950  19.554  28.039 -0.0507 -0.0924 -0.1480
59636W        W 2627   9.235  16.186  29.040  0.2971  0.3766 -0.0488
59637W        W 2628   4.825   8.822   6.786  0.0615 -0.1040 -0.1791
59638W        W 2629  28.067  15.624   8.400 -0.1004 -0.1142 -0.0161
59639W        W 2630   6.587  19.029   5.875 -0.0278  0.0102  0.0238
59640W        W 2631  11.274  27.414  28.083 -0.2276  0.0037  0.0432
59641W        W 2632  31.528   5.970   5.567  0.0540  0.1256 -0.0079
59642W        W 2633   4.366   7.152  23.890  0.0420 -0.2158 -0.1286
59643W        W 2634  25.749   7.806   7.474 -0.0779  0.1950  0.0764
59644W        W 2635  19.687   7.111   1.962 -0.0842 -0.1665 -0.2330
59645W        W 2636   1.084  10.394   0.662 -0.0557 -0.0946 -0.1003
59646W        W 2637  31.992  14.727   9.089  0.4350  0.1077 -0.1316
59647W        W 2638  12.638  12.502   7.006 -0.0613 -0.0949 -0.2034
59648W        W 2639  32.784   2.585   8.369  0.1361  0.1244  0.0693
59649W        W 2640  30.781   7.015  23.220 -0.0113 -0.2487  0.5766
59650W        W 2641  29.507   5.943   6.713  0.0482  0.0608  0.1513
59651W        W 2642   0.497   3.757  28.353 -0.1559  0.1706 -0.4225
59652W        W 2643   9.757  19.418   3.724 -0.3302  0.2447  0.0739
59653W        W 2644  31.017  14.574   3.540 -0.2666  0.1224 -0.1047
59654W        W 2645  23.676  18.316   7.165 -0.3328 -0.3407 -0.3344
59655W        W 2646  29.506  17.256   8.678  0.2272  0.1685  0.0388
59656W        W 2647   0.579  34.610  25.250 -0.1305 -0.2085 -0.1596
59657W        W 2648   4.032  26.804  27.527  0.0664 -0.1211  0.1137
59658W        W 2649  26.035  12.032  23.333 -0.1250 -0.1537  0.0156
59659W        W 2650   3.164  16.889   8.395 -0.1259 -0.0091  0.2370
59660W        W 2651  26.709   0.878  22.899 -0.1013  0.1084 -0.1154
59661W        W 2652  34.318  15.708   5.816  0.0396  0.0248 -0.0044
59662W        W 2653  31.290   3.541  24.327  0.2778 -0.0315 -0.0600
59663W        W 2654   8.652   1.253   4.711  0.0677  0.1055 -0.2207
59664W        W 2655  12.747   8.837   2.560 -0.0662  0.1452  0.2309
59665W        W 2656  28.645  18.034  25.402  0.0788 -0.8074 -0.0143
59666W        W 2657   7.251  14.771   7.290 -0.2046 -0.1811 -0.0548
59667W        W 2658   2.223  13.962   8.445  0.0450  0.1845 -0.0168
59668W        W 2659   2.062  14.156  12.223  0.0040 -0.3389 -0.2067
59669W        W 2660   0.423  16.242   4.414 -0.0859 -0.0579  0.0691
59670W        W 2661  31.541  24.504   9.646  0.2129  0.0015 -0.4760
59671W        W 2662   4.902  13.986   8.938  0.0696  0.2881 -0.0929
59672W        W 2663  15.031   5.578   6.408 -0.1238 -0.3685 -0.1203
59673W        W 2664   1.053  16.432   9.043  0.1766  0.2618 -0.1440
59674W        W 2665   1.471  22.608  27.642  0.1739  0.0546 -0.1626
59675W        W 2666  27.251  10.874   7.798 -0.0265 -0.0642 -0.0065
59676W        W 2667  19.432   9.259   7.379 -0.0152  0.0098  0.1169
59677W        W 2668   0.862   3.940   8.951  0.3288 -0.3791  0.1471
59678W        W 2669   1.429  27.402  29.098 -0.4420  0.2517 -0.1540
59679W        W 2670  15.373  12.000   5.395 -0.1859 -0.0914 -0.0501
59680W        W 2671  10.689   4.191   3.299 -0.0231  0.0862 -0.2521
59681W        W 2672   1.015   8.365  21.318  0.3377 -0.3347 -0.2659
59682W        W 2673   1.921   3.455   5.567 -0.0919 -0.1465 -0.1254
59683W        W 2674  11.298  16.619   1.966  0.2688 -0.0942  0.0215
59684W        W 2675   8.855  28.600   7.661  0.2607 -0.3559  0.1202
59685W        W 2676  13.865  29.133  26.564 -0.2409  0.0501 -0.0714
59686W        W 2677  20.580   9.231  29.144 -0.2952  0.0187 -0.1144
59687W        W 2678  23.767   4.797   8.152  0.1881  0.0085 -0.1925
59688W        W 2679  12.401  22.361  28.625 -0.1421 -0.1344  0.2471
59689W        W 2680  14.061  27.644  23.157 -0.1233 -0.1943  0.3759
59690W        W 2681   3.211  14.291   7.616  0.0275  0.0159 -0.0133
59691W        W 2682  12.356   9.461  10.491  0.1759  0.0202 -0.0506
59692W        W 2683   0.546   7.362   8.305  0.1490 -0.0481 -0.1403
59693W        W 2684  19.858  29.433  28.406 -0.1120 -0.0870 -0.0068
59694W        W 2685  29.805  15.227  28.044 -0.2572  0.1952 -0.0914
59695W        W 2686   7.881  13.672   6.396  0.1663 -0.0306 -0.1118
59696W        W 2687   8.371  24.162  25.518 -0.3096  0.1957  0.0008
59697W        W 2688  26.008  10.259   6.744 -0.0741  0.1632 -0.1687
59698W        W 2689   9.826  14.873   4.527  0.2179  0.0315  0.2946
59699W        W 2690  28.427   1.022   7.344 -0.1181 -0.0356  0.3009
59700W        W 2691  10.333  13.935  27.865  0.2315  0.0802 -0.0376
59701W        W 2692  10.509   1.597   9.772  0.1865  0.3184 -0.0738
59702W        W 2693   2.853   6.833  16.991  0.0401  0.1640  0.2016
59703W        W 2694  14.696  11.683   3.283  0.1067 -0.3617 -0.3106
59704W        W 2695  17.768   1.624  18.664  0.0543 -0.1845  0.3006
59705W        W 2696   6.105  22.369  25.272 -0.0259  0.0492 -0.0787
59706W        W 2697   1.289  31.074   8.961  0.2046  0.1953  0.1486
59707W        W 2698   2.267   8.464  19.615 -0.0225  0.4360  0.2177
59708W        W 2699   5.452   3.602   7.471  0.1359 -0.5059 -0.1757
59709W        W 2700   6.494   5.561   1.538 -0.0120 -0.0072 -0.0169
59710W        W 2701  12.542  13.019   4.080  0.2834 -0.2082 -0.3752
59711W        W 2702  13.012   3.862  27.605  0.0173 -0.1436 -0.2030
59712W        W 2703   5.150  25.938  25.917 -0.1298 -0.2227  0.0697
59713W        W 2704  29.235   1.514  14.032 -0.1271  0.0160 -0.0278
59714W        W 2705  10.504  24.264   9.470  0.2449 -0.1629  0.1192
59715W        W 2706  15.723  10.794   1.888 -0.3077  0.0186  0.1511
59716W        W 2707  30.240  32.333  20.418 -0.0046  0.0073  0.0925
59717W        W 2708   4.853  15.867   7.786 -0.1338  0.0845 -0.0960
59718W        W 2709   6.669  29.232   3.029 -0.1404 -0.0100 -0.0414
59719W        W 2710   3.863  12.767  25.569 -0.0605  0.3985  0.0927
59720W        W 2711  10.877  32.167   5.367 -0.0255 -0.0615 -0.0527
59721W        W 2712  24.269  15.942   3.230  0.2035 -0.1844  0.0588
59722W        W 2713  13.757  20.989   5.563  0.0018 -0.2411  0.1830
59723W        W 2714  11.022  14.855  22.787  0.1940  0.0197 -0.3664
59724W        W 2715   3.823  15.701   7.600  0.1114 -0.0599 -0.1212
59725W        W 2716  10.186  16.376   2.908 -0.3086 -0.1214  0.2677
59726W        W 2717  10.825   0.679   3.624  0.0610  0.1533  0.0117
59727W        W 2718  11.028  23.427   5.963 -0.1306  0.0101 -0.2561
59728W        W 2719  30.589  19.924  10.878 -0.3307 -0.0347 -0.0905
59729W        W 2720   7.425  10.294   0.048 -0.2204 -0.4738  0.0438
59730W        W 2721  29.995  14.858   7.571  0.0764  0.1063 -0.2468
59731W        W 2722  31.654  12.319  11.958  0.0578  0.1937 -0.1972
59732W        W 2723  34.754  17.053  24.591 -0.1627  0.0469 -0.1907
59733W        W 2724   6.886  32.427   9.933  0.3626 -0.1471 -0.1364
59734W        W 2725  32.884  14.220   2.585 -0.0459 -0.1514  0.2399
59735W        W 2726  13.239  13.049   7.589 -0.1428  0.1608 -0.0098
59736W        W 2727  33.712   3.934  27.098  0.0920  0.2548 -0.3104
59737W        W 2728   0.544  28.985   3.116  0.2554 -0.1678 -0.2417
59738W        W 2729   4.499  31.038   2.191 -0.1415 -0.1434  0.1821
59739W        W 2730  31.246  13.282  10.267 -0.1471  0.3493  0.0155
59740W        W 2731  17.671  32.449   5.531  0.2464 -0.0514  0.0849
59741W        W 2732  32.738   9.094   1.528 -0.2341 -0.3161 -0.0841
59742W        W 2733   4.170   9.136  28.009 -0.7305  0.1584 -0.1259
59743W        W 2734  12.770  21.775  29.158 -0.0201  0.2147 -0.2793
59744W        W 2735   5.094  11.541   6.684  0.0686 -0.2124  0.2077
59745W        W 2736   9.083  18.256   3.922 -0.0202 -0.4473  0.1046
59746W        W 2737  34.367  13.183  11.195  0.0330  0.1445 -0.2649
59747W        W 2738   4.121  30.721   2.047 -0.0853  0.3424 -0.0343
59748W        W 2739   2.235  13.693  24.754  0.1265  0.1072  0.0251
59749W        W 2740  28.423  26.372   8.711  0.0205  0.0181 -0.0019
59750W        W 2741   2.295   4.310   2.454 -0.2271 -0.2568  0.0949
59751W        W 2742  33.292  16.133  16.880  0.0216  0.0298  0.1255
59752W        W 2743  22.030  15.527   7.541  0.0826  0.2221 -0.0418
59753W        W 2744  33.343  34.548  28.751 -0.1840  0.3037 -0.0064
59754W        W 2745   1.166  15.395  17.177  0.0378  0.1358 -0.1484
59755W        W 2746  33.388  14.985  10.946  0.0111  0.2160 -0.0584
59756W        W 2747  16.867   5.324   6.844  0.0491  0.2120  0.4435
59757W        W 2748  34.243  26.011   5.753 -0.0395 -0.0532 -0.2082
59758W        W 2749  26.803  18.666   9.036  0.0640 -0.5841  0.0208
59759W        W 2750  14.163   4.320  27.071 -0.0258 -0.2260 -0.1498
59760W        W 2751   0.121  18.728   6.227 -0.1605 -0.2341 -0.0076
59761W        W 2752  27.262  10.918   8.761 -0.1143  0.0398  0.1534
59762W        W 2753   6.292   5.074   5.321 -0.4241  0.3865  0.1064
59763W        W 2754   3.565  16.274   0.707  0.1651 -0.0188  0.0716
59764W        W 2755  30.704   7.137  28.626 -0.1929 -0.0438  0.2900
59765W        W 2756   3.233   8.357   3.325  0.1681 -0.0186  0.0529
59766W        W 2757  28.753  32.932  28.188  0.5875  0.1864  0.0347
59767W        W 2758   3.425  21.927   8.645  0.1027  0.2645  0.1593
59768W        W 2759  31.485  13.237   0.570  0.2183  0.0363  0.2591
59769W        W 2760  33.482  13.747   4.933 -0.2550  0.0582 -0.2603
59770W        W 2761   3.834  24.235   3.936  0.4297 -0.4070  0.1475
59771W        W 2762   7.025   1.418   6.471  0.1378  0.0443  0.1014
59772W        W 2763  29.267  32.420   2.035 -0.1544  0.1019 -0.3093
59773W        W 2764  13.462  10.647  10.668 -0.0804  0.0434  0.1821
59774W        W 2765  28.328   2.187   6.294 -0.0278  0.1094 -0.0718
59775W        W 2766   0.393  13.712  10.495  0.1877 -0.3522 -0.2117
59776W        W 2767  18.841  10.969   5.080 -0.1096 -0.2083  0.1141
59777W        W 2768  17.494   3.943  24.444  0.3145  0.1168  0.1790
59778W        W 2769  31.156   4.117   9.571 -0.1225 -0.0886 -0.0241
59779W        W 2770   1.358  23.171  16.253  0.2524 -0.2621 -0.0882
59780W        W 2771  12.968   8.671   7.474  0.0752 -0.0289  0.0795
59781W        W 2772   5.553  20.783   5.645 -0.0731  0.3222 -0.0174
59782W        W 2773  34.276  12.729  28.111 -0.0564 -0.2450 -0.1592
59783W        W 2774   1.662  19.726   2.745  0.0326  0.0576 -0.2469
59784W        W 2775  29.613  24.428   4.891 -0.2481  0.2073 -0.1874
59785W        W 2776  21.290  14.953   4.432 -0.0478  0.0477  0.0379
59786W        W 2777  19.265   4.613  26.204  0.0056  0.1740 -0.2645
59787W        W 2778   5.640  11.141  10.262 -0.1836 -0.0989 -0.0321
59788W        W 2779  28.328  14.319   7.450 -0.0718 -0.2430  0.1536
59789W        W 2780   0.719  20.508  25.275  0.1729  0.0142 -0.4633
59790W        W 2781   8.688   9.254  10.092 -0.0090  0.1055 -0.0262
59791W        W 2782   7.751  16.650  10.188  0.0459 -0.1992 -0.0477
59792W        W 2783  34.746   6.617   7.389 -0.0692  0.2624  0.1648
59793W        W 2784  20.939   7.235  24.916 -0.6400 -0.2891  0.1185
59794W        W 2785  10.610  14.838  10.515 -0.2214  0.2663  0.0694
59795W        W 2786  34.608   8.347   7.115  0.1919  0.0479 -0.0232
59796W        W 2787  23.257   2.312  22.027  0.1688 -0.2304 -0.0038
59797W        W 2788  16.241  21.981   3.796  0.3663  0.1761 -0.4493
59798W        W 2789  31.713  14.536  10.883  0.2446 -0.0472 -0.2249
59799W        W 2790  19.483   4.417  28.403  0.0691 -0.0065  0.1747
59800W        W 2791  27.282   6.829  14.875  0.0251 -0.1624  0.0831
59801W        W 2792  15.291  11.199   2.592 -0.0150  0.0154 -0.0994
59802W        W 2793  29.534   5.919  27.903 -0.1071  0.1100  0.0332
59803W        W 2794  17.199  18.145   3.113  0.0527  0.1959  0.1973
59804W        W 2795   9.042   0.029   4.875  0.0021  0.0629 -0.0516
59805W        W 2796  32.398   4.236   0.605  0.1880 -0.0882  0.1307
59806W        W 2797   9.153  13.224   0.341 -0.0197  0.0437  0.0394
59807W        W 2798  33.945  12.397   4.390  0.1210  0.4058 -0.3014
59808W        W 2799   6.751  14.475  20.717  0.1021 -0.0744 -0.3525
59809W        W 2800   9.302  16.458   5.868 -0.0297  0.2238 -0.1586
59810W        W 2801  21.780  12.998  15.613 -0.2198  0.0806  0.2207
59811W        W 2802  13.819  17.460  21.969 -0.0076 -0.1589  0.0687
59812W        W 2803  30.244  23.828  23.898 -0.0335  0.0165 -0.1082
59813W        W 2804   6.947  12.237   4.485  0.0348  0.2371  0.0825
59814W        W 2805  10.173   2.180   8.612  0.1257  0.0846 -0.2973
59815W        W 2806  26.439   8.446   7.263 -0.2923 -0.0408  0.2399
59816W        W 2807  18.307   6.480   5.493 -0.0835  0.0014  0.0289
59817W        W 2808   3.067   3.210  29.179  0.0018  0.0357 -0.1938
59818W        W 2809  10.982   6.123  21.873  0.2257  0.1200  0.0016
59819W        W 2810  26.731   6.865   3.214  0.2242 -0.2566  0.1529
59820W        W 2811   1.024   8.086   7.868 -0.0258 -0.3580  0.0162
59821W        W 2812  29.788  16.622  21.294 -0.0629  0.1956 -0.2026
59822W        W 2813  29.938   9.152   4.368  0.0218 -0.1175 -0.1696
59823W        W 2814  14.891   3.872   6.767  0.2709 -0.1079  0.0889
59824W        W 2815  29.756  12.973   7.398  0.0603  0.0321 -0.3854
59825W        W 2816  16.174  19.046   4.866  0.2148 -0.0767 -0.0761
59826W        W 2817  13.490   2.010   7.956 -0.0347  0.0858 -0.3550
59827W        W 2818  10.359  11.642   4.902 -0.0471 -0.1640 -0.1675
59828W        W 2819   4.543   2.387   4.531  0.2236  0.1875  0.3932
59829W        W 2820  11.101  33.950  23.570 -0.0691 -0.1577 -0.0839
59830W        W 2821  33.781  26.934   5.485  0.0297  0.0986 -0.0534
59831W        W 2822   6.142  16.339   2.497  0.1295 -0.0694 -0.0242
59832W        W 2823   1.686  14.251  22.662  0.1561 -0.0229 -0.0449
59833W        W 2824  16.393  23.336  24.833  0.1599  0.0152  0.3525
59834W        W 2825  27.380   9.676   7.195 -0.1783 -0.0169 -0.0315
59835W        W 2826   5.283  11.711  28.212  0.1099  0.0852  0.1740
59836W        W 2827   2.989  12.978  10.461 -0.0041  0.1521 -0.1598
59837W        W 2828   9.386   1.880   5.151  0.0581 -0.1377 -0.0525
59838W        W 2829   2.911  10.777   8.262 -0.1641  0.0523 -0.5349
59839W        W 2830  25.992   8.274   3.726 -0.0862  0.1570 -0.1010
59840W        W 2831  32.487  34.676   7.068  0.2420 -0.2068 -0.1362
59841W        W 2832   9.625  22.025  27.542 -0.2687 -0.0112 -0.1411
59842W        W 2833  34.060  15.698   8.074  0.0885  0.3003 -0.4526
59843W        W 2834  10.297   7.338   9.877 -0.0292 -0.0264 -0.1149
59844W        W 2835  17.890  21.492   2.076 -0.1795 -0.0072  0.0821
59845W        W 2836  32.574  15.546   6.283 -0.1015  0.1738 -0.0627
59846W        W 2837  14.587   6.938   0.309  0.2445  0.0747 -0.2026
59847W        W 2838   3.807   1.862  17.911  0.2308 -0.1952  0.0093
59848W        W 2839  33.823  33.384   2.860 -0.0878  0.2625 -0.3205
59849W        W 2840  14.938   8.943   4.362 -0.2511  0.2614  0.1315
59850W        W 2841   2.601  15.597   2.536  0.0788  0.1678 -0.3548
59851W        W 2842  23.651   4.447  27.564 -0.0424  0.0233 -0.0907
59852W        W 2843   9.928  34.206   9.742 -0.0069 -0.1641 -0.3477
59853W        W 2844  19.913  26.218  18.111  0.1774  0.2100 -0.1906
59854W        W 2845   5.495   0.544   7.595  0.0540  0.1541  0.3080
59855W        W 2846   7.269   1.556   9.893  0.2038 -0.0032  0.0699
59856W        W 2847   3.145  13.527  23.307 -0.0167  0.0210 -0.0302
59857W        W 2848   5.362  14.291   8.743 -0.1302  0.2070 -0.1034
59858W        W 2849  18.105  25.558  23.415 -0.1787  0.0710 -0.2249
59859W        W 2850  32.334  10.115   0.299  0.1419 -0.2108  0.0676
59860W        W 2851  28.861  14.859   2.434 -0.4120 -0.1410 -0.1081
59861W        W 2852  29.858  22.276   6.779 -0.3311  0.1288  0.2495
59862W        W 2853  34.573   5.567   5.148 -0.2074  0.2737  0.2466
59863W        W 2854  30.966  27.824   3.712  0.0421  0.0630  0.0830
59864W        W 2855   5.122  17.106  10.670  0.2392  0.0383 -0.0596
59865W        W 2856  33.313   1.890   3.659 -0.0861 -0.1233 -0.0045
59866W        W 2857  29.765   8.654  25.329  0.1192  0.0770 -0.0978
59867W        W 2858   1.598   9.646  22.668  0.0745 -0.0048 -0.0700
59868W        W 2859   1.492  24.239   7.993  0.1047  0.1204  0.2244
59869W        W 2860  32.715  10.474  10.280 -0.0772  0.0725  0.1687
59870W        W 2861   3.105  20.167   0.109  0.2205  0.0449 -0.3475
59871W        W 2862   4.730  17.573   6.785  0.2035 -0.1576  0.2504
59872W        W 2863  10.111  31.300   3.511 -0.0541 -0.1593 -0.1887
59873W        W 2864   9.400  18.066   8.341 -0.2993 -0.1253  0.0326
59874W        W 2865   7.886   4.753   1.245 -0.1302  0.0830 -0.5286
59875W        W 2866  13.882  22.310   8.501  0.2081  0.0830  0.1838
59876W        W 2867  29.221  14.798   9.865 -0.1274 -0.0814  0.1990
59877W        W 2868  10.641  31.526   5.146  0.0304 -0.3902  0.2079
59878W        W 2869  20.739   8.880   0.315  0.0066 -0.2720  0.0424
59879W        W 2870  34.138   3.890  26.769 -0.1908 -0.3576  0.1045
59880W        W 2871   8.466  15.079   4.728  0.0530 -0.2270 -0.0753
59881W        W 2872  18.787  16.160   2.931 -0.1484  0.1751 -0.0081
59882W        W 2873  11.582  16.189   1.853  0.1717  0.3515  0.3798
59883W        W 2874  18.206   5.342  26.676 -0.1765 -0.2259  0.1507
59884W        W 2875   2.189   8.601   8.510  0.1991  0.2737 -0.2519
59885W        W 2876  29.651  13.392   8.509  0.2536 -0.2955 -0.1786
59886W        W 2877  15.552  10.110  26.797 -0.2960 -0.0925 -0.2271
59887W        W 2878   3.688  20.100   8.472 -0.2027  0.1031  0.1263
59888W        W 2879  13.060  15.091   2.225  0.3862 -0.0622 -0.1749
59889W        W 2880   0.065   9.777   8.589 -0.0878 -0.3724 -0.0974
59890W        W 2881   5.303   2.478   9.867  0.0864 -0.4825 -0.0952
59891W        W 2882   8.584   2.598   9.129 -0.0177  0.0193  0.1537
59892W        W 2883  30.677  33.835   7.805  0.2472  0.0747 -0.0030
59893W        W 2884  30.515   6.439   5.866  0.1057  0.3338 -0.2761
59894W        W 2885  14.595   7.174   6.469  0.1947  0.0449  0.0502
59895W        W 2886  12.366   3.381   5.801 -0.0546  0.1870 -0.1437
59896W        W 2887   1.224   4.376   9.748 -0.1568 -0.1902  0.1658
59897W        W 2888   3.105   8.456  22.346 -0.0718 -0.3889 -0.0366
59898W        W 2889  13.411  20.563   7.300  0.0969  0.0969 -0.1379
59899W        W 2890  14.308  11.113  25.835 -0.1627 -0.1355 -0.0265
59900W        W 2891  14.360  13.948  28.717 -0.0707 -0.0846  0.1555
59901W        W 2892   6.558   4.879   7.255  0.1643 -0.2344 -0.3502
59902W        W 2893  17.508   6.826   8.562  0.1154 -0.1055  0.0102
59903W        W 2894   2.337  23.553  26.394 -0.1179 -0.4885  0.0950
59904W        W 2895  33.416   0.793   8.922  0.1963  0.1078 -0.0043
59905W        W 2896   5.270   8.388   4.276 -0.1612 -0.0577 -0.2016
59906W        W 2897   3.941   1.008  10.157  0.1115  0.2855  0.0956
59907W        W 2898   3.260  10.377   2.902 -0.0411  0.0960  0.0945
59908W        W 2899  11.935  11.506   8.768  0.0432 -0.1027  0.1364
59909W        W 2900   2.804  10.689   8.883  0.0400  0.1205  0.0640
59910W        W 2901   5.512   7.660   6.935  0.1109  0.0167  0.1443
59911W        W 2902  17.679   7.874   3.257  0.0483 -0.2906  0.1090
59912W        W 2903  31.049  16.675   4.755 -0.2810  0.1380  0.3990
59913W        W 2904  31.058  17.320   7.836 -0.0639 -0.1887 -0.1080
59914W        W 2905   3.008  30.671   2.613  0.0688  0.2428 -0.0895
59915W        W 2906  11.930  31.319   0.502 -0.0622  0.0816 -0.1233
59916W        W 2907   6.115  18.313   3.438  0.0065  0.2413  0.0868
59917W        W 2908  22.507  12.862   0.898 -0.1422 -0.0612  0.0791
59918W        W 2909  24.504  27.413   2.113 -0.1424 -0.1953  0.3104
59919W        W 2910   0.762  10.244  20.141  0.2204 -0.1451  0.1444
59920W        W 2911   4.579  34.258   1.339  0.2071  0.2753 -0.1185
59921W        W 2912  17.963  17.386   4.890  0.0387  0.0023 -0.2354
59922W        W 2913   1.237  26.561  21.967 -0.1123 -0.2126  0.0749
59923W        W 2914   9.435  14.998  15.810  0.2387 -0.1493 -0.0700
59924W        W 2915   0.065   5.149   3.408 -0.2583  0.2229 -0.1192
59925W        W 2916   7.869  13.777   4.799 -0.0377  0.0966 -0.2850
59926W        W 2917  25.628  15.673   1.640  0.1427  0.0003  0.0178
59927W        W 2918   9.408   5.058   2.244 -0.1781 -0.0758 -0.1541
59928W        W 2919  27.043   0.598  28.492  0.0379  0.2253 -0.0802
59929W        W 2920   6.427   0.797   8.402 -0.2963  0.2104  0.2947
59930W        W 2921  29.964  12.948  27.942 -0.2342 -0.1590 -0.0066
59931W        W 2922   1.783   8.664  10.978 -0.0970  0.2862  0.0084
59932W        W 2923  15.514   5.905  21.479  0.1773  0.0460 -0.0558
59933W        W 2924  30.415  15.973   4.366 -0.1758 -0.2321  0.3077
59934W        W 2925  32.709  13.882  28.419 -0.0447 -0.1725 -0.0834
59935W        W 2926  22.476  31.745  28.461  0.1664  0.1080 -0.0060
59936W        W 2927  34.189  17.311   2.110  0.0858  0.1404  0.0888
59937W        W 2928   3.024   8.849  23.627  0.0102 -0.1197 -0.4272
59938W        W 2929   9.414  15.015   9.603 -0.1277 -0.2326  0.1876
59939W        W 2930   0.684  32.530  24.211 -0.1787 -0.2199 -0.1164
59940W        W 2931  30.991  15.582   4.737  0.1288 -0.1249  0.2036
59941W        W 2932  11.035  17.290  20.644  0.3923 -0.1644  0.1350
59942W        W 2933   7.858   6.075   8.627 -0.0399 -0.2027 -0.0582
59943W        W 2934  12.842   5.852   6.343 -0.3049 -0.0926  0.1519
59944W        W 2935  34.526  23.559  29.240  0.0561  0.0128  0.1427
59945W        W 2936   4.932   6.539  25.413 -0.0198  0.0651  0.3909
59946W        W 2937   0.406  20.730  28.883  0.0471  0.1648 -0.1882
59947W        W 2938  30.812  29.171   4.834  0.2125 -0.1187 -0.0343
59948W        W 2939  31.727  10.428  24.022  0.1190  0.0405  0.1109
59949W        W 2940   9.102  34.492   9.533 -0.2325 -0.1331 -0.1118
59950W        W 2941  32.056  25.489  10.292 -0.1570  0.4849 -0.1499
59951W        W 2942  17.467   1.582   0.755 -0.1321 -0.2064 -0.0924
59952W        W 2943   0.347  34.170   7.367  0.0575  0.2298 -0.0458
59953W        W 2944   3.766  21.495  24.313  0.1792  0.1656 -0.0330
59954W        W 2945   3.365   8.342   7.656 -0.2567  0.1938 -0.2182
59955W        W 2946  12.047  19.833   5.274 -0.1101  0.1394 -0.0957
59956W        W 2947   6.944  15.341  11.423  0.2711  0.1261  0.2265
59957W        W 2948   0.264  12.029   7.152  0.1388  0.1928  0.0487
59958W        W 2949   5.038  13.501  11.297  0.0432  0.0346 -0.3962
59959W        W 2950  26.780  13.464   2.771 -0.0352  0.0509  0.0360
59960W        W 2951   4.878  14.873  22.939 -0.5402 -0.1324 -0.0526
59961W        W 2952  33.334  20.214  13.828 -0.3228 -0.1700  0.0360
59962W        W 2953  15.019  26.918  26.572 -0.0359 -0.2207 -0.1372
59963W        W 2954  31.372   9.958  10.280  0.2912  0.0219 -0.0534
59964W        W 2955  10.000   7.117   8.769  0.2141 -0.0672 -0.1908
59965W        W 2956  19.301  14.596   0.786 -0.1519 -0.1223 -0.1415
59966W        W 2957  29.336  19.614   3.463  0.0493  0.1828  0.0688
59967W        W 2958  27.078  23.500   9.241 -0.1395 -0.0275 -0.1929
59968W        W 2959  15.288   8.336  18.772 -0.0023 -0.2065 -0.0377
59969W        W 2960  20.642  12.887   4.764  0.3687 -0.1300  0.0408
59970W        W 2961  33.802  11.962  20.569  0.1583  0.1004 -0.5376
59971W        W 2962  30.338   5.880   3.467  0.1728 -0.1731  0.2191
59972W        W 2963  17.926  28.539   7.710  0.0288  0.1901  0.4907
59973W        W 2964  33.427  24.436   9.979  0.4508  0.1345  0.0133
59974W        W 2965  33.211  25.804   3.216 -0.0984 -0.2989  0.1206
59975W        W 2966   6.878   8.031  29.203  0.1148 -0.2742  0.2186
59976W        W 2967  13.666  17.816   6.790  0.5298 -0.3318 -0.3323
59977W        W 2968  33.618  32.682  20.502 -0.0508  0.0338 -0.1195
59978W        W 2969   8.312  14.869   8.243 -0.1336  0.1165 -0.0542
59979W        W 2970  31.583  26.798  23.031  0.1146  0.0930 -0.0011
59980W        W 2971  11.343  18.146  26.396 -0.2360  0.1772  0.1437
59981W        W 2972   6.569  18.521   1.817 -0.2371 -0.0268  0.0813
59982W        W 2973  14.812  32.942  16.112 -0.3509  0.4090 -0.0706
59983W        W 2974  25.474  31.639  21.272 -0.2373 -0.0340  0.2106
59984W        W 2975  21.516  11.526   6.564  0.0347  0.2647 -0.2014
59985W        W 2976   9.646  12.796   2.035  0.4096 -0.0828  0.3046
59986W        W 2977   0.464  16.722  11.205  0.0026 -0.1447  0.2193
59987W        W 2978  16.437   9.893   3.683  0.1257 -0.3056  0.0352
59988W        W 2979   7.112  13.793   9.208 -0.0996  0.0954  0.0245
59989W        W 2980  16.928  21.058   2.982 -0.3047 -0.0540 -0.1913
59990W        W 2981   7.594  19.629  28.066 -0.0742  0.2121 -0.0295
59991W        W 2982   4.285  17.610   9.675 -0.0003 -0.0266  0.2618
59992W        W 2983  14.162  11.994  27.372 -0.2892 -0.0851  0.1726
59993W        W 2984   1.434  31.215  26.994 -0.2783  0.2276 -0.1615
59994W        W 2985  11.936  22.809  23.263 -0.0554  0.0929  0.0376
59995W        W 2986  14.507   4.908  28.743 -0.0273  0.3654  0.3047
59996W        W 2987  12.373  28.487   5.445 -0.0051 -0.0587  0.3409
59997W        W 2988  28.432  13.181  19.184 -0.0665 -0.0103 -0.1322
59998W        W 2989   9.490  26.740  29.259  0.1837 -0.2915 -0.0830
59999W        W 2990  25.557  19.457  28.301  0.0171  0.0993  0.3809
60000W        W 2991  28.655  16.520   4.756 -0.3753  0.2811 -0.1266
60001W        W 2992  31.056   6.433  28.711  0.3457 -0.3010  0.1392
60002W        W 2993  28.588   6.494   1.181 -0.1499  0.1904 -0.2307
60003W        W 2994  33.927  15.795   7.592  0.0149 -0.2812  0.1624
60004W        W 2995   6.483   8.834   4.998 -0.0834  0.0769 -0.0698
60005W        W 2996   7.441   0.212   9.786  0.1910 -0.0812  0.3038
60006W        W 2997   6.908  20.833   0.661 -0.0289 -0.2184 -0.1388
60007W        W 2998   1.563  15.113   7.173 -0.0406  0.2131 -0.0202
60008W        W 2999  19.904  34.669  24.858  0.0560 -0.0218 -0.0906
60009W        W 3000  30.311  15.893   9.928  0.1540  0.2122  0.2079
60010W        W 3001  20.704  18.448  27.667 -0.0543  0.3474 -0.0130
60011W        W 3002   2.840  22.346  10.198  0.3442 -0.2847 -0.0584
60012W        W 3003  15.316  16.630  26.947  0.0397  0.2936  0.2118
60013W        W 3004  21.940  19.009  26.143  0.3432  0.1273  0.0630
60014W        W 3005  32.684   8.911   9.231  0.0881  0.2548  0.2294
60015W        W 3006   5.183  24.409   4.460  0.0303  0.0055 -0.0334
60016W        W 3007   0.159  24.624  17.744 -0.0599 -0.1696  0.1152
60017W        W 3008  30.237  15.554  24.178 -0.3748  0.1298 -0.3289
60018W        W 3009  21.771   2.672   2.260  0.1799 -0.2449  0.0341
60019W        W 3010  14.265   8.991   5.180 -0.0762 -0.0617 -0.1078
60020W        W 3011  32.598  29.536   2.917  0.0127  0.0352  0.1946
60021W        W 3012  19.879  11.138   2.382 -0.0992 -0.1014  0.1413
60022W        W 3013  12.695  32.632  24.066 -0.1865  0.0029 -0.0051
60023W        W 3014  11.227  25.699  17.331  0.0041 -0.2108 -0.2048
60024W        W 3015  32.299  26.512   8.047  0.0468  0.4894 -0.3441
60025W        W 3016   4.268  26.633   9.831 -0.0267 -0.0126  0.0215
60026W        W 3017   3.167  18.816   5.779  0.3821  0.2722 -0.0044
60027W        W 3018   6.810  24.805  19.415 -0.2236 -0.2291  0.0522
60028W        W 3019  31.440  27.756  19.346  0.0737  0.1615 -0.0885
60029W        W 3020  16.619  14.039   1.449  0.2733  0.4487 -0.1412
60030W        W 3021  22.636  19.374   0.198  0.2208 -0.0763  0.4262
60031W        W 3022  33.310   7.789   0.942  0.3069  0.1212 -0.3086
60032W        W 3023  33.504  15.676  26.285 -0.0580  0.2682 -0.2006
60033W        W 3024  29.136  28.041  19.726 -0.0495  0.0409  0.1219
60034W        W 3025   5.300   4.995   8.115  0.1924 -0.1294 -0.1181
60035W        W 3026  34.224   9.100  20.880 -0.1153  0.0295 -0.0694
60036W        W 3027   4.235   3.239   1.256  0.2961 -0.0185  0.4214
60037W        W 3028   0.102  16.470  28.741 -0.1029  0.5535 -0.0720
60038W        W 3029   6.291  19.996  28.138  0.2007 -0.1939 -0.0672
60039W        W 3030  10.023  24.556  23.662 -0.0457 -0.1673 -0.2431
60040W        W 3031   2.751  22.328   1.572 -0.0320 -0.0323 -0.3538
60041W        W 3032  21.796  20.193   7.506  0.0776 -0.0047 -0.0052
60042W        W 3033  11.667  27.372  26.445  0.0414 -0.0632 -0.0630
60043W        W 3034  12.744  25.558   2.952  0.0428 -0.0122  0.1925
60044W        W 3035  10.490  18.145  20.515 -0.1671  0.0652  0.0347
60045W        W 3036  33.324  24.594  26.156 -0.0292  0.0324 -0.3884
60046W        W 3037  30.037  19.817  16.918 -0.0062 -0.1967 -0.0369
60047W        W 3038   0.486  13.368  28.718 -0.1903 -0.0449 -0.0333
60048W        W 3039  31.179   7.714   2.925  0.0356 -0.0724  0.2335
60049W        W 3040  25.888  15.192  24.532  0.0180  0.0767 -0.0453
60050W        W 3041   6.006  17.031   9.512  0.1099  0.1522  0.1034
60051W        W 3042  34.263  19.589  24.484  0.1241  0.0389  0.0975
60052W        W 3043   6.047   6.203  27.416  0.1924 -0.1388 -0.1977
60053W        W 3044  27.098   1.198  25.564 -0.1947  0.1879  0.2439
60054W        W 3045   4.427   8.355  28.420  0.0162  0.2953  0.0095
60055W        W 3046  22.340   1.934   5.384  0.2664 -0.2176  0.1654
60056W        W 3047  15.236  13.922  22.649 -0.1164  0.0462  0.1396
60057W        W 3048   6.235  22.715  28.847 -0.2103  0.3214 -0.1070
60058W        W 3049  23.737  15.988  25.623  0.0808  0.2794 -0.1473
60059W        W 3050   7.135  30.524   7.415  0.1815  0.1707 -0.3020
60060W        W 3051  29.696  16.750   6.906  0.2191  0.0432 -0.0849
60061W        W 3052  24.383   6.325  15.644 -0.0224 -0.0052  0.0426
60062W        W 3053   8.904  31.009  28.397 -0.1361  0.3207 -0.0040
60063W        W 3054  16.729  12.462   6.394  0.1080 -0.1046 -0.1962
60064W        W 3055   8.484  33.744  19.858 -0.1547 -0.0434 -0.0255
60065W        W 3056   4.636   3.824   2.519 -0.2676  0.0073  0.0564
60066W        W 3057  33.184  12.566  10.343  0.0559 -0.0409  0.0493
60067W        W 3058  11.445  18.595   4.185  0.0583  0.1743 -0.2549
60068W        W 3059   3.568  17.259  11.346  0.1425  0.2116 -0.1517
60069W        W 3060  28.557   9.636  10.035 -0.1928 -0.2470  0.2253
60070W        W 3061  32.314   2.176   5.556  0.2149  0.1819  0.2428
60071W        W 3062  22.176  11.563  26.475 -0.1012  0.3066  0.0344
60072W        W 3063   5.957   5.439  27.809  0.4058 -0.3211 -0.2249
60073W        W 3064  10.586   3.982  26.701 -0.0851 -0.5549  0.0436
60074W        W 3065   5.361   8.918   2.688 -0.1987  0.1056  0.0298
60075W        W 3066  18.350  28.169   9.742  0.1083  0.0966  0.0830
60076W        W 3067  30.687   3.467  25.015  0.1212  0.1934  0.1490
60077W        W 3068  28.288   8.224   8.465  0.2101  0.0681  0.3437
60078W        W 3069   8.692  13.716   3.100  0.0422  0.1423 -0.1218
60079W        W 3070  33.037   9.303  19.303 -0.1753 -0.0260  0.1736
60080W        W 3071   1.110  26.009  23.576 -0.0177 -0.1416 -0.3130
60081W        W 3072   0.169  19.284  27.696 -0.0055 -0.0500  0.1322
60082W        W 3073  28.554  10.400  16.374 -0.1915  0.1868  0.0568
60083W        W 3074   3.140  11.716  16.365  0.2062  0.0811  0.4262
60084W        W 3075   8.724   1.646   4.083  0.2199 -0.0321 -0.0408
60085W        W 3076   2.684  20.704   8.797 -0.2294  0.1140 -0.2670
60086W        W 3077  33.119  12.461   3.963  0.0894 -0.3197 -0.2572
60087W        W 3078  29.882  19.690   9.409  0.0498 -0.0996  0.1335
60088W        W 3079  12.342  19.957   1.734 -0.0941  0.3554 -0.1528
60089W        W 3080  34.222  16.610   4.778  0.1449  0.0931 -0.0946
60090W        W 3081   4.336  20.293   7.096  0.0889  0.0567 -0.0349
60091W        W 3082   2.326  14.174  26.475  0.1395 -0.1474  0.1750
60092W        W 3083  12.008  19.661   9.297  0.1079 -0.1082  0.1361
60093W        W 3084   9.907   2.207  17.242  0.3147  0.0032  0.0301
60094W        W 3085  29.718   1.689   6.034 -0.0273  0.1441  0.2895
60095W        W 3086  26.837  21.580   7.236  0.2138  0.0413 -0.1444
60096W        W 3087  19.073  21.966  16.817  0.3137 -0.1892  0.0165
60097W        W 3088  10.672  13.084   7.226 -0.0256  0.0883  0.0595
60098W        W 3089  33.521  13.811   7.127  0.2275 -0.3731 -0.2610
60099W        W 3090  28.144  30.022   7.533  0.1738  0.1819 -0.0090
60100W        W 3091   7.034  27.782   0.918 -0.1265 -0.0476 -0.1626
60101W        W 3092  15.332   3.604   8.068 -0.1076 -0.0292  0.0585
60102W        W 3093  33.844  14.031   5.014  0.3455  0.0865  0.0635
60103W        W 3094  21.077   6.561  21.677 -0.2662 -0.0933 -0.0862
60104W        W 3095   3.077   4.579  28.848 -0.1901  0.1531  0.2074
60105W        W 3096  24.079  13.517   3.992  0.2324 -0.0293 -0.0561
60106W        W 3097  34.729  25.732   9.017  0.0538  0.0917  0.1685
60107W        W 3098   3.841  16.116   1.152 -0.2157  0.1632  0.1056
60108W        W 3099   8.419   4.371  16.386 -0.0197 -0.3104 -0.4691
60109W        W 3100   6.271  23.964   0.342  0.5072 -0.1111  0.2244
60110W        W 3101   4.206   1.012   3.560 -0.1503  0.0464 -0.2449
60111W        W 3102   9.498  13.863   7.069 -0.3145 -0.0187 -0.0528
60112W        W 3103  19.973  18.680  22.665  0.3274  0.1590  0.1319
60113W        W 3104  22.364  20.403  26.652 -0.0429 -0.0716  0.3263
60114W        W 3105  30.844  25.823  14.004  0.2872 -0.1453  0.2094
60115W        W 3106   5.990  23.523   5.289  0.4302 -0.1526 -0.0376
60116W        W 3107   5.798  20.306  25.473  0.3721 -0.1451  0.3192
60117W        W 3108   2.832  16.665   8.000  0.0114  0.1798 -0.0483
60118W        W 3109  33.606  19.816   9.606  0.0965  0.2349  0.4014
60119W        W 3110  32.221  14.189  26.843 -0.0194 -0.0012 -0.0973
60120W        W 3111  11.413  19.452  10.162  0.0073 -0.2158 -0.3140
60121W        W 3112   4.525   0.448   4.298  0.1244  0.0060  0.0092
60122W        W 3113  11.440  20.745   8.536  0.1346 -0.2642 -0.2041
60123W        W 3114  14.676  15.953   8.472 -0.0127  0.0404  0.2159
60124W        W 3115   6.417  11.768  23.644 -0.0058 -0.1814  0.0609
60125W        W 3116   0.894  24.929   9.480 -0.2194 -0.2507  0.0496
60126W        W 3117  19.760  27.300  26.866  0.2106 -0.1355 -0.1771
60127W        W 3118  22.752  13.912  14.924  0.1585 -0.1556 -0.0598
60128W        W 3119   6.996  10.088  26.634 -0.1923 -0.1071  0.0988
60129W        W 3120  25.321  15.760   5.914  0.1387  0.5384  0.0272
60130W        W 3121  33.906   4.580  18.387  0.1367 -0.0072  0.0750
60131W        W 3122  12.631  11.710   5.152 -0.2128  0.1822  0.0456
60132W        W 3123  11.338   5.565   8.907  0.3783  0.0887 -0.3379
60133W        W 3124  13.781  31.816   3.112 -0.0905  0.0344 -0.0683
60134W        W 3125   8.656  12.245  10.860 -0.4859 -0.1216 -0.2128
60135W        W 3126  34.691  16.673   6.425  0.1874 -0.2918 -0.1270
60136W        W 3127   1.375  17.168  21.977 -0.0169 -0.0199 -0.0872
60137W        W 3128  33.655  26.056   3.154 -0.1356 -0.0630 -0.0722
60138W        W 3129  33.974  11.585   8.749  0.1249  0.0060 -0.0554
60139W        W 3130  11.659  17.735   7.091 -0.3821 -0.1797  0.3578
60140W        W 3131   8.298  19.468   4.655  0.2097 -0.0049 -0.0284
60141W        W 3132  11.421  20.879   9.406  0.1574  0.3057 -0.1455
60142W        W 3133   6.323  10.348  22.958 -0.0205  0.0109 -0.0649
60143W        W 3134  13.367  26.135   6.506 -0.0161 -0.1734 -0.5504
60144W        W 3135   3.811  16.651   3.700  0.1747 -0.0594  0.1329
60145W        W 3136  27.614  16.019  17.407 -0.3071  0.3249  0.0793
60146W        W 3137  11.657  16.090   4.179  0.0815 -0.0517 -0.0096
60147W        W 3138  10.168   2.833  21.634 -0.0913 -0.1992  0.0921
60148W        W 3139  31.430  23.627   5.383  0.4365  0.1609  0.0377
60149W        W 3140   0.161  11.882   3.762 -0.2023  0.3194 -0.1070
60150W        W 3141   6.305  14.133  11.286 -0.1047  0.1878 -0.2330
60151W        W 3142  27.151   7.275   2.672 -0.0304 -0.0758 -0.1044
60152W        W 3143   0.527  15.000  10.154 -0.0465  0.0182 -0.0931
60153W        W 3144   4.292  15.837   4.257 -0.0822  0.0491  0.0901
60154W        W 3145   6.137   6.304   2.666  0.3226 -0.0419  0.0653
60155W        W 3146  11.410  19.048  15.415 -0.0565 -0.1023 -0.2179
60156W        W 3147  19.375  10.900  13.873 -0.0059 -0.3784  0.3264
60157W        W 3148   8.638   6.112   3.131  0.0569  0.1838 -0.0635
60158W        W 3149   4.083   7.546  23.774  0.0049  0.0123 -0.0947
60159W        W 3150  32.816  13.357   3.688  0.1147  0.1376 -0.0192
60160W        W 3151   2.019  31.451  28.290 -0.0217 -0.1458  0.0994
60161W        W 3152  28.158  11.463   4.253 -0.2658 -0.0445 -0.0114
60162W        W 3153  27.572   7.266  27.676 -0.1250 -0.0538  0.2576
60163W        W 3154  27.106  16.726   3.811  0.1342 -0.3527  0.0053
60164W        W 3155  11.529  17.638   9.101  0.0145  0.1722  0.1245
60165W        W 3156  28.110  15.703   6.178  0.0356  0.0101 -0.1372
60166W        W 3157  27.271  20.971   6.423 -0.1660 -0.0476  0.0672
60167W        W 3158   2.483  10.751   8.506  0.3068 -0.0612  0.0619
60168W        W 3159  13.314   7.973  22.045 -0.2554  0.0864 -0.1480
60169W        W 3160   5.363  32.144  25.835  0.1923  0.1762  0.0092
60170W        W 3161  19.324  16.366  12.908 -0.0313  0.0401  0.0252
60171W        W 3162  22.763  15.117   1.000  0.0943  0.1197 -0.1493
60172W        W 3163  34.545  25.833   2.886 -0.4148  0.1519 -0.2887
60173W        W 3164  19.073  14.243  28.778 -0.0101 -0.0726  0.2647
60174W        W 3165  28.205   6.236  23.911  0.2279  0.1097 -0.1758
60175W        W 3166  29.440  32.517  24.469 -0.0685 -0.0897 -0.0578
60176W        W 3167   5.045  25.907   1.380  0.0701  0.2220  0.2228
60177W        W 3168   2.412  10.520  20.720 -0.1584 -0.0018  0.3021
60178W        W 3169  28.871  16.035   8.393 -0.0681 -0.1373  0.2851
60179W        W 3170  20.535  32.204   4.305  0.2637 -0.4403 -0.2394
60180W        W 3171  15.333  27.592  21.578 -0.1808  0.6034  0.2049
60181W        W 3172  13.915  24.663  27.495  0.0585  0.2337  0.3693
60182W        W 3173  19.599  18.131   5.083  0.2475  0.0091 -0.0416
60183W        W 3174  26.593  20.496   1.696  0.0880 -0.0323  0.1198
60184W        W 3175   2.170  10.566   0.106 -0.1079 -0.0441 -0.3755
60185W        W 3176   2.679  22.241   4.646 -0.2156  0.3737  0.3550
60186W        W 3177   1.449  13.852  26.557  0.0318 -0.0482  0.0674
60187W        W 3178  20.865   3.798   2.490 -0.0046  0.0471  0.0288
60188W        W 3179   7.779  20.768  25.852  0.2328  0.3241  0.0712
60189W        W 3180   2.991  20.301   7.428  0.2402  0.1667 -0.2578
60190W        W 3181   3.617  10.959   5.979 -0.0371  0.1382 -0.0992
60191W        W 3182  17.397  13.198  26.392  0.0739  0.0465  0.0157
60192W        W 3183  33.104   6.074  26.408  0.1383  0.2659 -0.1802
60193W        W 3184  33.305   2.626  22.487  0.0143 -0.0981  0.0311
60194W        W 3185  31.329  17.442   3.788  0.1954 -0.1062  0.0470
60195W        W 3186   0.497   9.472   5.344 -0.4205  0.0166  0.3146
60196W        W 3187   8.151  18.716  29.180 -0.2344  0.1126 -0.0767
60197W        W 3188  10.071   3.288  27.382  0.2689 -0.0448  0.3005
60198W        W 3189   2.394   8.207   4.913  0.2283 -0.1644 -0.2547
60199W        W 3190  33.900   7.934  23.018 -0.0103 -0.2550 -0.1490
60200W        W 3191  10.114  30.261  17.595 -0.0855  0.1713  0.0197
60201W        W 3192  14.671  19.838  29.048 -0.2077  0.3770  0.1581
60202W        W 3193  32.943  27.149  20.070 -0.2660  0.0981  0.1704
60203W        W 3194  28.450  20.305   5.944  0.2733  0.1584  0.0176
60204W        W 3195   2.232  18.409   0.612 -0.3748 -0.0346 -0.1466
60205W        W 3196  30.425  19.486   8.026  0.0616 -0.2083 -0.0207
60206W        W 3197   0.559  11.619  28.687  0.0277 -0.1839 -0.0865
60207W        W 3198  28.592  15.473  28.378 -0.1407 -0.1763 -0.1797
60208W        W 3199   4.880  11.216   7.001 -0.0642 -0.0415  0.2481
60209W        W 3200   5.545   9.402   7.625  0.0804 -0.0922  0.1634
60210W        W 3201  16.657  24.418   1.806  0.1655  0.4657  0.1067
60211W        W 3202  18.986  27.245  17.003 -0.3184 -0.1037  0.1147
60212W        W 3203  27.470  20.624  20.937  0.0533 -0.0593 -0.0577
60213W        W 3204  10.292  20.125   0.230 -0.2214  0.0976 -0.1495
60214W        W 3205  27.352   9.932  26.397  0.2137 -0.5614  0.1573
60215W        W 3206   8.561  14.852  15.634  0.0451  0.2653  0.4296
60216W        W 3207  31.592  28.079  15.566  0.3598 -0.1314 -0.1155
60217W        W 3208  33.603  33.820  19.588 -0.2069  0.0368 -0.3571
60218W        W 3209   0.085  15.604  29.224 -0.3200 -0.1774 -0.1192
60219W        W 3210  34.243  10.710   2.556 -0.2436  0.0449 -0.3390
60220W        W 3211  19.260  25.566  14.985  0.2205 -0.2136 -0.1494
60221W        W 3212   0.014  19.334  25.960  0.2062 -0.0989  0.1712
60222W        W 3213  34.788  11.554   0.495  0.0578  0.3495  0.2433
60223W        W 3214   0.689  25.047   8.834  0.2679 -0.4344 -0.0198
60224W        W 3215  12.315  31.085   8.332 -0.2818  0.1452  0.2008
60225W        W 3216   9.285   7.066  23.476  0.2709  0.0200  0.1369
60226W        W 3217  31.520   1.372   7.391 -0.1678 -0.3186  0.2307
60227W        W 3218   1.829   4.459  23.944 -0.4627  0.3396 -0.0152
60228W        W 3219  27.515  27.653   4.429  0.0709  0.0564  0.2518
60229W        W 3220   7.543  16.156   0.448 -0.0521 -0.0795  0.0952
60230W        W 3221  22.624  12.152   8.678  0.1068 -0.0329  0.4023
60231W        W 3222  11.263  23.809  24.400  0.1366  0.1665 -0.2238
60232W        W 3223  31.770   8.996   8.898  0.1772  0.1066 -0.3463
60233W        W 3224  32.218  14.042   1.700 -0.1600  0.0157  0.1165
60234W        W 3225  10.839   8.041  18.414 -0.2319 -0.1350 -0.3210
60235W        W 3226  23.790  17.896  25.157  0.0243 -0.0307 -0.0958
60236W        W 3227   8.784   5.515  10.035 -0.0473  0.1489  0.3515
60237W        W 3228   9.102  20.519  28.717  0.2394 -0.1682 -0.0165
60238W        W 3229   1.309  22.766  26.944  0.4138 -0.1868 -0.1666
60239W        W 3230   5.731  14.786   7.019 -0.1307 -0.0844 -0.1459
60240W        W 3231   0.708  22.194   0.725  0.2026  0.1993  0.2351
60241W        W 3232  23.942   4.166  22.713  0.0225 -0.0652 -0.4558
60242W        W 3233  13.253  32.544   3.062  0.0993 -0.0045 -0.0939
60243W        W 3234  13.190  16.934  22.905 -0.0203 -0.3970 -0.3163
60244W        W 3235  11.761  11.031   6.829  0.0862  0.1157  0.0840
60245W        W 3236   1.451  10.646   8.855 -0.1796 -0.3507  0.1394
60246W        W 3237   9.536   4.847  23.869  0.1648  0.1490 -0.0329
60247W        W 3238   9.078  34.322  18.913  0.1201 -0.0598  0.2549
60248W        W 3239  10.579  21.341  26.171  0.1097  0.0053 -0.2228
60249W        W 3240  28.806  14.147   7.426  0.0542 -0.1675  0.1327
60250W        W 3241  18.630   7.248   9.063  0.0939  0.2804  0.0531
60251W        W 3242   8.225   9.536  21.310  0.1451 -0.0383 -0.0121
60252W        W 3243   8.980  33.033  21.201  0.1638 -0.0304  0.2064
60253W        W 3244  18.140   3.462  19.607  0.2121 -0.1361 -0.2959
60254W        W 3245  29.521   1.940  15.702  0.0369  0.1315  0.1046
60255W        W 3246  27.750  11.932   4.662  0.1790 -0.0299 -0.0659
60256W        W 3247  15.494   7.060   6.672 -0.4363  0.0490  0.1115
60257W        W 3248  32.586  10.280  21.498 -0.0885 -0.2362 -0.3985
60258W        W 3249   4.131  24.089   4.856  0.0535 -0.1151 -0.1091
60259W        W 3250   5.516   4.950   7.216  0.0894  0.0607  0.0795
60260W        W 3251  16.328  20.206   5.558  0.1322 -0.1549  0.2018
60261W        W 3252  10.232  10.759  25.170 -0.0700  0.1413 -0.2175
60262W        W 3253   1.363  22.113   7.664  0.1288  0.1073 -0.2342
60263W        W 3254  32.973  33.024   8.013 -0.0040  0.1937  0.2917
60264W        W 3255  12.989  10.049   7.823 -0.1068 -0.0085  0.4491
60265W        W 3256   8.259  25.652  23.248 -0.1629  0.3690 -0.1962
60266W        W 3257  34.690  22.621   8.872  0.3139  0.2140 -0.3384
60267W        W 3258  28.059  28.854  23.077  0.2643  0.1892  0.0012
60268W        W 3259   0.910  25.149  27.847  0.1224 -0.0490  0.3129
60269W        W 3260   6.052  21.020   4.628  0.0110  0.0037  0.1218
60270W        W 3261   5.853   7.987   2.717 -0.1797 -0.0169 -0.1539
60271W        W 3262  20.753  20.528  26.887  0.1264 -0.0658  0.1181
60272W        W 3263  28.707  22.504   7.013 -0.0502  0.0743 -0.1579
60273W        W 3264  26.847   3.297   1.012  0.2175  0.0103 -0.0623
60274W        W 3265   0.297   8.544   5.650  0.3331 -0.1714 -0.0617
60275W        W 3266  13.921   8.359   8.688  0.0060 -0.1646  0.0722
60276W        W 3267   3.957  14.999   0.902  0.1698 -0.1445  0.0347
60277W        W 3268   9.264  19.803   9.639  0.1204 -0.0119  0.0059
60278W        W 3269   9.304  21.616   8.796 -0.0726 -0.3703 -0.1356
60279W        W 3270  30.775  18.012  11.270  0.1386  0.0922 -0.2156
60280W        W 3271   7.675   9.770  28.389  0.3888 -0.2275 -0.0779
60281W        W 3272   2.097  15.306  10.519  0.0674  0.0286  0.1467
60282W        W 3273  15.398  10.981  10.355 -0.0149 -0.1049 -0.2854
60283W        W 3274  34.457  13.479  17.059 -0.0420  0.0375 -0.2567
60284W        W 3275  25.403  14.652   4.795  0.2556  0.1096 -0.1746
60285W        W 3276   7.638  21.522   4.722  0.1407  0.2146  0.1065
60286W        W 3277  29.680  12.758  25.809 -0.0268  0.2511  0.0414
60287W        W 3278  11.167  19.560  19.797  0.3574  0.2802  0.1222
60288W        W 3279   1.547  21.618  22.142  0.0595  0.0160  0.1792
60289W        W 3280   7.326  19.546   0.703 -0.0514 -0.4104 -0.0466
60290W        W 3281   8.952   5.273  26.867  0.0225 -0.0101  0.0195
60291W        W 3282  31.277  22.840   6.735  0.3795 -0.2060 -0.0693
60292W        W 3283  15.579  33.987  26.945 -0.3065  0.0832 -0.4204
60293W        W 3284  29.760  26.326   8.794 -0.0317  0.0430  0.3238
60294W        W 3285   1.933  21.035  21.024 -0.1364  0.2821  0.0161
60295W        W 3286  18.802  22.620  27.687  0.0246 -0.1720 -0.1386
60296W        W 3287  12.568   9.259   6.497  0.1141  0.1453 -0.1010
60297W        W 3288  19.081  19.739   1.174  0.1098 -0.0141 -0.1773
60298W        W 3289  34.320  10.574  26.685  0.1216 -0.3873  0.1345
60299W        W 3290   8.741  14.289   8.113 -0.1014  0.0041  0.0239
60300W        W 3291   9.222  26.312  21.594 -0.0250 -0.0105 -0.3754
60301W        W 3292  32.508  15.061  25.646 -0.0425  0.0306  0.2739
60302W        W 3293   8.524   9.895  24.155 -0.0393  0.2807 -0.0159
60303W        W 3294  10.333  26.747  23.595 -0.1143  0.0637  0.1786
60304W        W 3295  14.899  31.666  14.831 -0.3312 -0.0079 -0.2402
60305W        W 3296   5.700   6.339   9.185 -0.3516 -0.1369  0.0531
60306W        W 3297   0.869  27.417  21.692 -0.0092  0.1626 -0.0274
60307W        W 3298  17.754   1.505   1.172  0.0520  0.0765 -0.2029
60308W        W 3299   2.775  17.573   9.114  0.0687 -0.1083 -0.4470
60309W        W 3300   9.132  18.673  10.773 -0.1373  0.0581 -0.2446
60310W        W 3301  32.706  28.300   6.600 -0.1313 -0.2863  0.0592
60311W        W 3302   8.583   0.633   6.552  0.0013 -0.0418 -0.0988
60312W        W 3303   1.651  25.779  27.863  0.3077 -0.1105  0.1420
60313W        W 3304   2.443   2.355   4.726 -0.0768  0.1670  0.2139
60314W        W 3305  18.669  11.199   1.514 -0.0239 -0.1080  0.0483
60315W        W 3306   6.258  17.369  26.531  0.1625 -0.1316  0.1767
60316W        W 3307   3.405  19.873   8.897  0.0562  0.1542 -0.0875
60317W        W 3308  34.345  11.718   5.995 -0.0053  0.0155 -0.1216
60318W        W 3309   5.507  14.608  24.794  0.2286  0.2359 -0.2790
60319W        W 3310  29.903  15.307   1.102  0.2727 -0.1410  0.0706
60320W        W 3311  30.819   2.999  25.679  0.1130  0.0713  0.0108
60321W        W 3312  14.470  19.180   7.986  0.1412 -0.0619 -0.1831
60322W        W 3313   9.244  10.700  26.300  0.0725 -0.1916  0.0996
60323W        W 3314  28.595  11.161  25.279 -0.2293  0.2306  0.1670
60324W        W 3315  24.192   2.746  23.778 -0.0008  0.0375 -0.2093
60325W        W 3316   1.624  25.701   6.140  0.0676 -0.3061 -0.0365
60326W        W 3317  34.091  16.514  17.053 -0.1251 -0.3382  0.1576
60327W        W 3318   1.454  20.669   6.797 -0.0677  0.1510  0.1714
60328W        W 3319  11.196  30.924   7.740 -0.2348  0.0517 -0.1475
60329W        W 3320  14.317  12.002  29.250 -0.0163  0.1246 -0.1268
60330W        W 3321  21.950   1.581  21.197  0.1572  0.3001 -0.2458
60331W        W 3322  27.002  16.722   6.378  0.3752 -0.0431  0.0912
60332W        W 3323   3.353   0.440   6.022 -0.0907  0.0145  0.0773
60333W        W 3324  15.240  12.318   6.611 -0.1459 -0.0422 -0.0253
60334W        W 3325  24.845  15.006   8.998 -0.1092  0.2484 -0.0591
60335W        W 3326  34.510  10.507  27.602  0.0478  0.2262  0.0251
60336W        W 3327   9.370  11.135   6.549  0.1005 -0.2332  0.3046
60337W        W 3328  25.837  10.357  17.843 -0.0108 -0.1195  0.2811
60338W        W 3329  26.843  13.733   3.228  0.0673 -0.1591  0.4032
60339W        W 3330  30.054   9.080   8.720 -0.2131 -0.2432  0.1697
60340W        W 3331  29.235  13.309   5.889  0.2535 -0.1550  0.2548
60341W        W 3332   0.180  33.920  25.321 -0.1996  0.1904 -0.0366
60342W        W 3333   5.853  12.715  28.391  0.1777  0.1422  0.0721
60343W        W 3334  31.176  28.576   1.665 -0.4466  0.1243  0.0220
60344W        W 3335   4.624   3.362   4.395 -0.1164 -0.0451 -0.3022
60345W        W 3336   0.843  15.606   9.639  0.1573  0.0823  0.1138
60346W        W 3337   0.982  20.373   4.638  0.1562  0.1042 -0.1808
60347W        W 3338  29.575  26.119   9.219  0.0293  0.1637 -0.0499
60348W        W 3339  12.345  15.679  21.606  0.1947  0.2500 -0.0721
60349W        W 3340   0.840  11.446  11.533  0.0659  0.2138 -0.1659
60350W        W 3341   1.848   2.943   6.682  0.2186 -0.1970 -0.0960
60351W        W 3342   3.886   7.793   1.680  0.1421  0.0305 -0.4095
60352W        W 3343  31.433   6.299   2.190 -0.1866 -0.0507 -0.3240
60353W        W 3344  27.059  12.802  24.417 -0.3662 -0.0976  0.2135
60354W        W 3345  21.483  27.229  26.195  0.2787  0.1676  0.1848
60355W        W 3346  34.781  17.410   2.208  0.4897  0.0373  0.1163
60356W        W 3347  34.197  33.744   1.548  0.0001 -0.0450 -0.2695
60357W        W 3348  30.022  14.029   5.402  0.1061  0.1314 -0.1871
60358W        W 3349  24.332  15.079   3.260  0.0335  0.0107 -0.3352
60359W        W 3350  33.899  12.668   7.021  0.1418  0.2828 -0.1760
60360W        W 3351   6.511   4.737   7.740  0.0827 -0.1230  0.1523
60361W        W 3352  24.350   6.567  25.930 -0.1262 -0.1365  0.0076
60362W        W 3353  30.896  20.142   8.622  0.0503 -0.3111  0.0102
60363W        W 3354   1.179  22.997   7.162  0.0882 -0.2591  0.0106
60364W        W 3355   0.713  11.728  22.345 -0.2854  0.3996  0.0438
60365W        W 3356  32.050  25.840   9.284  0.2196  0.1672  0.1105
60366W        W 3357   7.222  20.495  19.782 -0.1339 -0.0198 -0.0025
60367W        W 3358   8.382   8.463   1.314 -0.1054 -0.2010  0.1479
60368W        W 3359   4.391  10.820  23.050  0.5506  0.0360  0.0066
60369W        W 3360  32.328   0.640  27.516 -0.3353  0.3294  0.2026
60370W        W 3361  14.246  26.808   2.290 -0.4362  0.1702 -0.1335
60371W        W 3362   9.310  20.449   2.423  0.0514  0.1948  0.1612
60372W        W 3363  31.705   1.097   2.153  0.0392  0.0446 -0.2442
60373W        W 3364  33.796  29.420   7.192 -0.0914  0.0308 -0.1509
60374W        W 3365   0.844  13.640   8.198  0.3791 -0.1644 -0.1610
60375W        W 3366  32.935  29.339  25.783  0.0988  0.1484  0.0703
60376W        W 3367  22.468  17.860  26.158  0.1179  0.0234 -0.0467
60377W        W 3368   5.405  13.501  11.804  0.0619  0.3558  0.2650
60378W        W 3369   9.097  22.172  17.647  0.0446  0.0329 -0.1564
60379W        W 3370  21.270  14.802  22.396 -0.1804 -0.0832  0.3420
60380W        W 3371  19.885   9.124   6.474 -0.0326 -0.1758  0.0827
60381W        W 3372  32.876   6.359  17.072  0.3246  0.2499  0.1203
60382W        W 3373  28.398  27.238   7.507 -0.0456  0.1442  0.2132
60383W        W 3374   7.621   6.460   5.699 -0.2313 -0.0578  0.1262
60384W        W 3375   3.578  31.384  25.215 -0.4606 -0.2288  0.1210
60385W        W 3376  34.649  25.942   7.731  0.0780 -0.1939 -0.2299
60386W        W 3377   5.400  16.815   6.261 -0.1076  0.1639  0.3210
60387W        W 3378  12.568  33.837   3.139 -0.0848  0.1526  0.1050
60388W        W 3379  12.882   8.415   8.960  0.1294 -0.1290 -0.0037
60389W        W 3380  13.557  29.580   5.348  0.1242  0.0189 -0.0715
60390W        W 3381   5.855  14.541  24.273 -0.2496 -0.1855 -0.0469
60391W        W 3382  33.823  12.839   4.624  0.1927 -0.3394 -0.2180
60392W        W 3383   4.386  17.596  27.013 -0.0072  0.0633  0.1879
60393W        W 3384  16.328  32.047   6.294  0.2155 -0.2743 -0.0944
60394W        W 3385  34.471   2.666  25.186  0.5132 -0.1605  0.0633
60395W        W 3386  17.313  33.092   8.031 -0.2703 -0.1141  0.0785
60396W        W 3387   6.415  26.479  28.198  0.0795  0.3194 -0.1741
60397W        W 3388  31.755  20.616   3.430  0.1940 -0.1576 -0.3620
60398W        W 3389  32.081   9.971   8.832 -0.2589 -0.3764 -0.0613
60399W        W 3390   7.176  29.438   5.831  0.1245 -0.0651 -0.4103
60400W        W 3391  13.006  16.740  28.124 -0.0117 -0.2346  0.0532
60401W        W 3392  25.882   9.752   2.414 -0.1028  0.4649 -0.1057
60402W        W 3393   4.574  11.182   9.361  0.0552  0.0015  0.0403
60403W        W 3394   5.734  22.368   7.749 -0.1135 -0.0828 -0.3593
60404W        W 3395  32.811  12.383  11.523  0.0027  0.3248 -0.0436
60405W        W 3396   6.471  13.801   0.925  0.2759 -0.2117 -0.0020
60406W        W 3397  31.954  19.633   9.094  0.1489 -0.0806 -0.1417
60407W        W 3398  10.927  20.046  25.193  0.2039 -0.1396 -0.0784
60408W        W 3399   3.715   0.899   3.444 -0.1464  0.3064 -0.2302
60409W        W 3400  25.581  21.334  24.841  0.1605 -0.1183 -0.1750
60410W        W 3401  16.361  17.610   8.217  0.0659 -0.0150  0.1711
60411W        W 3402  34.482  21.578  16.348 -0.1726 -0.1482 -0.0456
60412W        W 3403  26.912  25.408   7.188  0.1238 -0.0694 -0.0732
60413W        W 3404  33.837  10.973  10.913 -0.3358 -0.0335  0.1293
60414W        W 3405  30.012  23.291   2.747  0.3270 -0.1428  0.1910
60415W        W 3406  12.138  17.047   0.038 -0.0756 -0.1024 -0.4482
60416W        W 3407   8.567  22.785  28.968 -0.4155  0.2930 -0.0794
60417W        W 3408  29.647   0.030   6.592  0.1583  0.1014  0.1503
60418W        W 3409  28.383  15.563  17.267  0.0785 -0.1376 -0.0356
60419W        W 3410  20.861  21.693  21.423  0.4011  0.0652  0.0430
60420W        W 3411   7.041   3.531   5.811  0.0062 -0.2386 -0.2877
60421W        W 3412   7.976   4.311   8.723  0.0714 -0.0788 -0.1398
60422W        W 3413   5.138  18.113   4.978 -0.1312  0.1238 -0.0443
60423W        W 3414   5.947  10.166  21.448 -0.4464  0.0988 -0.1775
60424W        W 3415   7.584   2.126   7.114  0.0031 -0.1458 -0.3415
60425W        W 3416  31.320  12.116  10.949  0.0556 -0.1247 -0.0859
60426W        W 3417  30.009   8.233  25.208 -0.0797  0.2568  0.0231
60427W        W 3418  27.933   7.142  18.416 -0.0446 -0.0032 -0.1804
60428W        W 3419   4.811  29.990  24.463  0.3514  0.4278 -0.0455
60429W        W 3420  33.298  22.358   8.994 -0.1917 -0.0746  0.1780
60430W        W 3421   6.571  12.900   9.844 -0.1664  0.1534  0.0285
60431W        W 3422  12.066  14.031   9.434  0.0180  0.1580  0.2856
60432W        W 3423  19.641  26.344   4.333 -0.0862  0.1667 -0.2289
60433W        W 3424  13.131  12.445  14.080  0.4715  0.0052  0.0251
60434W        W 3425  23.301  15.775  29.063 -0.2786 -0.3394 -0.1221
60435W        W 3426  30.421  33.768  18.565  0.2126  0.1887 -0.0431
60436W        W 3427   2.107  18.130   8.760  0.3436 -0.1265 -0.1870
60437W        W 3428   6.374  12.574  28.351  0.0175  0.1436 -0.0183
60438W        W 3429   8.342  15.041  10.698 -0.0876 -0.0180 -0.2527
60439W        W 3430   9.943  11.119  28.429 -0.0587  0.3912 -0.3207
60440W        W 3431  14.626   6.546   5.232  0.3723 -0.4934  0.0956
60441W        W 3432  22.325  16.929  27.764  0.0826  0.1239  0.1052
60442W        W 3433   8.597  21.817   9.209  0.2780 -0.0210 -0.0912
60443W        W 3434  31.671  11.914   7.591 -0.1917  0.3807  0.2425
60444W        W 3435  14.732   9.311   9.308 -0.4233  0.0888  0.0350
60445W        W 3436  19.319  19.708   3.699 -0.1364  0.0943  0.2491
60446W        W 3437   8.798  29.627   2.913 -0.2011  0.3402 -0.0908
60447W        W 3438   7.640  15.332   3.648  0.0216  0.3045  0.1211
60448W        W 3439   9.531   6.289   1.519  0.0934 -0.2583  0.0906
60449W        W 3440  28.513   5.721   7.957  0.1190 -0.1065 -0.1650
60450W        W 3441   3.204  22.979  10.803  0.1655 -0.1044  0.1475
60451W        W 3442  19.030  11.833   0.048  0.1356 -0.3109 -0.2571
60452W        W 3443  29.909  13.935  10.755  0.1349  0.3688 -0.0384
60453W        W 3444  10.527  14.248   8.879 -0.1405  0.1741 -0.1311
60454W        W 3445  13.179  17.374   3.743 -0.1555  0.0218  0.4398
60455W        W 3446  31.671  21.266   8.964 -0.0989 -0.2155 -0.1563
60456W        W 3447   3.230  21.708   6.956  0.2599 -0.1580  0.0689
60457W        W 3448   3.426  12.931   8.549  0.1113 -0.2168  0.0910
60458W        W 3449   5.053   4.332   9.067  0.1330 -0.4457  0.0599
60459W        W 3450   4.955  14.543   4.948  0.3256  0.1158 -0.0525
60460W        W 3451  12.286  25.161   3.054 -0.2935  0.3136 -0.0909
60461W        W 3452  10.341  29.520  22.393 -0.1584 -0.1185  0.0799
60462W        W 3453   3.872  23.455   2.580  0.0766  0.0557 -0.0957
60463W        W 3454   1.962  21.804   7.799  0.0372  0.0652  0.2616
60464W        W 3455  33.908  21.873   9.524 -0.2689  0.2633 -0.1778
60465W        W 3456  21.183   3.104  23.460 -0.1005 -0.0009 -0.2848
60466W        W 3457   7.861  21.540   6.456  0.0237  0.0608 -0.0175
60467W        W 3458   5.182  12.176   4.816 -0.0828  0.0703  0.2026
60468W        W 3459  18.913   1.946   0.599 -0.3212  0.1118 -0.0682
60469W        W 3460  30.195   6.142  15.431  0.0197  0.4892 -0.0456
60470W        W 3461  32.110  28.201   8.359 -0.1120  0.3359  0.1304
60471W        W 3462  22.540  17.349   1.111 -0.1350  0.1628 -0.0864
60472W        W 3463  31.944  20.693   9.658 -0.3203  0.2824 -0.1293
60473W        W 3464  17.496  20.938   4.441  0.0717  0.2179  0.1115
60474W        W 3465   3.060   9.888   8.328 -0.0405  0.1430 -0.2697
60475W        W 3466  15.020  10.457   8.387  0.0885  0.0335  0.3460
60476W        W 3467  15.597   4.085   7.217 -0.2300 -0.1786 -0.1137
60477W        W 3468  20.288  17.853  28.962  0.1058  0.0994  0.0814
60478W        W 3469  28.439  19.472  21.105  0.0772 -0.1129 -0.1217
60479W        W 3470  14.319  26.194  27.346  0.0552 -0.0295 -0.0756
60480W        W 3471   5.817  14.821   6.559 -0.3602 -0.2073  0.0756
60481W        W 3472  33.735  16.947   6.893 -0.3415  0.0022  0.1654
60482W        W 3473  32.255  33.892  23.600  0.1625  0.0857 -0.4498
60483W        W 3474  16.918  15.041   4.387  0.3079  0.1418 -0.3158
60484W        W 3475  25.924  13.667   8.348 -0.1640 -0.1895 -0.2022
60485W        W 3476  29.981  13.675  15.510 -0.1282  0.2016 -0.0790
60486W        W 3477  28.853  21.832  21.151  0.0128  0.0135  0.1663
60487W        W 3478  30.193  10.345  20.707  0.1233 -0.0255 -0.1958
60488W        W 3479   1.649  15.012  23.397 -0.0611 -0.0818  0.0889
60489W        W 3480  11.663  14.145  25.346 -0.0257 -0.0729 -0.1182
60490W        W 3481  21.443  12.880   8.551  0.0265 -0.0655 -0.1558
60491W        W 3482   1.082  11.575  19.147  0.1835  0.0251  0.1474
60492W        W 3483  28.946  21.613  16.612 -0.2487 -0.0748 -0.0702
60493W        W 3484   3.655   9.056   6.664 -0.1471  0.3241 -0.2140
60494W        W 3485  11.823  26.395  18.623  0.0259  0.1243 -0.2271
60495W        W 3486  12.740  10.026   2.263  0.2121  0.0360  0.1453
60496W        W 3487  20.481  17.982  27.339  0.2564 -0.0968  0.4616
60497W        W 3488   0.728   0.327   7.225 -0.3215  0.0019  0.2974
60498W        W 3489  15.533  10.791   5.056  0.2404  0.1261  0.0457
60499W        W 3490  29.648  28.809  26.100 -0.1898  0.0982  0.1014
60500W        W 3491   5.575  30.207   6.631  0.0573 -0.0487  0.2422
60501W        W 3492  11.842  14.769   2.713 -0.1563 -0.0605 -0.0683
60502W        W 3493  32.576  18.595   0.532 -0.2329  0.0232 -0.0189
60503W        W 3494  32.389  18.789   7.154 -0.0565 -0.0711 -0.0957
60504W        W 3495  17.690   7.706  10.331 -0.1106  0.2642  0.3829
60505W        W 3496   7.616  18.200   3.187  0.2121 -0.1878 -0.0742
60506W        W 3497  22.611  27.199   0.877 -0.1926  0.0407 -0.2816
60507W        W 3498   2.275  14.751   3.011 -0.1169 -0.3984 -0.0505
60508W        W 3499   3.952   2.403   4.855  0.0762 -0.2482 -0.0095
60509W        W 3500   3.696   3.410   4.739 -0.0631  0.1968 -0.0342
60510W        W 3501   6.571  26.272  28.643 -0.2420 -0.1715 -0.0532
60511W        W 3502  22.725  23.160   5.602  0.2572 -0.3023  0.3360
60512W        W 3503  23.461  33.127   0.945 -0.4732 -0.1908  0.0558
60513W        W 3504  14.841  23.803   7.401 -0.0528  0.1272 -0.1534
60514W        W 3505   3.566  17.370  25.832 -0.1237  0.2225 -0.2444
60515W        W 3506   1.005  30.070  20.489  0.0086  0.0103  0.2468
60516W        W 3507  25.778  11.752   2.651 -0.2591 -0.0323 -0.2213
60517W        W 3508  34.140  13.993  22.251 -0.1692 -0.6091 -0.0478
60518W        W 3509  24.473  12.468   5.410 -0.3763 -0.0239  0.2326
60519W        W 3510   6.892   6.614   3.910 -0.1546 -0.2212  0.0161
60520W        W 3511   6.113   7.982   8.891  0.2942 -0.1050 -0.1154
60521W        W 3512   4.590   2.403   4.054  0.4174 -0.2153 -0.0008
60522W        W 3513  26.121  16.779  27.119 -0.2640  0.0776 -0.1836
60523W        W 3514  10.276   7.576  25.789  0.0670 -0.0426 -0.1856
60524W        W 3515  30.279  15.454   4.020  0.2844 -0.0686 -0.2560
60525W        W 3516  28.070  26.905  23.893  0.1360  0.1054  0.3989
60526W        W 3517   7.268  21.249  26.728  0.2551 -0.1813  0.1920
60527W        W 3518  12.734  10.814  10.316  0.2244  0.0294 -0.0679
60528W        W 3519  31.259  34.766  29.058 -0.1378 -0.0205  0.1373
60529W        W 3520   9.156  14.881  10.553 -0.1962  0.1899  0.0269
60530W        W 3521  32.450  28.145  27.284  0.3674  0.1411 -0.0209
60531W        W 3522   5.926   5.079   4.966 -0.0834 -0.1827  0.2870
60532W        W 3523  15.992  16.208   8.112 -0.3224 -0.1778 -0.0265
60533W        W 3524   0.722  10.087   9.323  0.0411  0.0767  0.2004
60534W        W 3525   5.736  22.310   5.476  0.2161 -0.1434 -0.0327
60535W        W 3526   2.343  22.521  10.921  0.0778  0.0239  0.0280
60536W        W 3527   0.259  16.095  29.063 -0.0341  0.2105 -0.0684
60537W        W 3528   8.890  20.163   9.239 -0.3454 -0.2108  0.2197
60538W        W 3529  15.307  20.801   2.419  0.1422  0.1287 -0.1626
60539W        W 3530   1.478  15.180  11.234 -0.2160  0.1104 -0.2641
60540W        W 3531   9.100  16.875  19.478  0.2526  0.0025 -0.1299
60541W        W 3532   0.838  16.606   3.926 -0.0510 -0.2783 -0.1584
60542W        W 3533   1.895  13.704  10.608  0.2455  0.0658 -0.3941
60543W        W 3534  22.439  13.248  21.754 -0.0332  0.0424 -0.1154
60544W        W 3535   1.853   8.090   3.577 -0.3831  0.0887  0.3786
60545W        W 3536   6.048  22.719   7.486  0.0492 -0.1506 -0.1369
60546W        W 3537   0.841  11.499  26.205  0.1710  0.0367 -0.1616
60547W        W 3538  24.897   7.697   4.323  0.0019  0.1590  0.3834
60548W        W 3539   2.086  26.333   6.494 -0.1268 -0.0081 -0.2794
60549W        W 3540   3.987   5.391   6.167 -0.0245 -0.0124 -0.1219
60550W        W 3541  11.988  16.355   9.615  0.1001  0.1560 -0.0443
60551W        W 3542  10.869  17.452  25.265 -0.2892  0.0121 -0.0952
60552W        W 3543  17.157  34.577   4.626  0.0146  0.1766 -0.0260
60553W        W 3544  33.129  18.660  27.997  0.1345  0.1684  0.2244
60554W        W 3545   6.323  20.768   7.275  0.0043 -0.1840  0.1053
60555W        W 3546   1.437  10.565   5.926 -0.0852 -0.0459  0.0717
60556W        W 3547   0.220   9.940   9.090 -0.0375  0.0279  0.0945
60557W        W 3548  22.307  21.459   8.083 -0.0459 -0.0539 -0.1282
60558W        W 3549  31.076  18.145   7.579 -0.0727  0.2176  0.0314
60559W        W 3550  32.567  22.261  20.409  0.0837 -0.0287  0.1484
60560W        W 3551  32.431  30.487   5.423 -0.1949  0.3992 -0.1782
60561W        W 3552  17.298  14.575   4.540 -0.3129  0.2407  0.0600
60562W        W 3553  18.352  15.603   7.377  0.0973  0.0166 -0.1739
60563W        W 3554  31.185  12.152   7.540  0.3068  0.1791  0.1741
60564W        W 3555  25.888  24.826   8.164  0.3538 -0.3488 -0.2012
60565W        W 3556  29.910   5.044   6.376  0.0439  0.0658  0.1597
60566W        W 3557   7.406  11.213   9.438  0.1937 -0.0362  0.0697
60567W        W 3558  31.367  13.817   5.284  0.1038 -0.0644 -0.0047
60568W        W 3559  18.979  26.379  23.613 -0.3186 -0.0084 -0.0080
60569W        W 3560  33.196   3.037   5.644  0.0604  0.1829 -0.0340
60570W        W 3561  28.904  28.642   6.952 -0.0523 -0.1020  0.1157
60571W        W 3562  26.436  28.233   2.843 -0.0644  0.4221  0.1236
60572W        W 3563  28.100  20.527   6.265 -0.1988  0.1672 -0.0549
60573W        W 3564  22.956  11.448   5.956  0.0732 -0.1349  0.0176
60574W        W 3565  33.429  13.224   0.731 -0.0102 -0.2196  0.1478
60575W        W 3566  10.189  22.361   5.657 -0.3355 -0.1364 -0.1887
60576W        W 3567   4.328  20.104  10.368  0.1383  0.3668  0.0472
60577W        W 3568   2.820  17.303   6.446 -0.2102 -0.2046 -0.0830
60578W        W 3569  26.213   8.039   4.859 -0.2596  0.0400  0.0419
60579W        W 3570  16.116   6.424  23.888 -0.4274  0.1294  0.1522
60580W        W 3571  11.719  13.218   6.500 -0.0302 -0.0944 -0.2884
60581W        W 3572  32.403   9.005   6.748 -0.0585  0.1626  0.1997
60582W        W 3573  26.477  20.925  10.018 -0.2198  0.2039 -0.2547
60583W        W 3574  13.616  31.241   2.969 -0.1385 -0.0228  0.0330
60584W        W 3575  11.436   5.088   0.584 -0.2947  0.2904 -0.1993
60585W        W 3576   8.469  17.502   5.542  0.0636  0.2090 -0.0092
60586W        W 3577   6.786  23.480   5.442 -0.1256  0.2175  0.2769
60587W        W 3578  15.435  21.189   5.903 -0.0056  0.2819  0.3101
60588W        W 3579  23.541   7.147   0.053  0.1670 -0.1087  0.0532
60589W        W 3580  21.253  18.110  28.066 -0.1549 -0.0025  0.1769
60590W        W 3581   2.417   3.000  16.448  0.0204  0.3180  0.0006
60591W        W 3582  17.748  19.312  27.536  0.0225  0.1441 -0.1724
60592W        W 3583  34.319  16.645   8.429 -0.1647 -0.2419 -0.3383
60593W        W 3584   3.612  17.239   5.120  0.0817 -0.0539 -0.0121
60594W        W 3585   0.963  34.535   5.501 -0.0942 -0.3771 -0.0084
60595W        W 3586  10.251  23.013  29.030  0.1919  0.2536 -0.1395
60596W        W 3587  25.687  25.499   5.317 -0.0090  0.0722 -0.1189
60597W        W 3588   5.348  13.340  10.829 -0.0915 -0.0732  0.0171
60598W        W 3589   9.409  19.213  25.927 -0.0383 -0.0481  0.0852
60599W        W 3590   3.608  29.498  28.323 -0.2505  0.1622 -0.0361
60600W        W 3591   2.950   8.882   8.194  0.1724  0.0603 -0.1503
60601W        W 3592   3.875  10.975   6.716 -0.1552 -0.0849 -0.0503
60602W        W 3593  10.949  19.745  26.571 -0.4219 -0.1598  0.0123
60603W        W 3594   0.227  15.691  27.495 -0.1184 -0.3427 -0.2839
60604W        W 3595   9.716   1.388  10.734  0.2702  0.1664 -0.1140
60605W        W 3596  12.596  10.032   7.161 -0.0059 -0.1906  0.0648
60606W        W 3597  25.583  15.073  26.656 -0.5098  0.0061  0.1767
60607W        W 3598  14.083  18.559   6.323 -0.2891 -0.1521 -0.0283
60608W        W 3599  32.994   7.678   2.898 -0.0831  0.0963 -0.0062
60609W        W 3600   3.504   6.591   5.432 -0.0286 -0.1647 -0.1468
60610W        W 3601   1.955   8.530   7.092 -0.0138 -0.3635  0.0581
60611W        W 3602   2.465   3.462   8.567 -0.1331  0.1000  0.2243
60612W        W 3603   9.452  30.316  10.060 -0.0405 -0.1171  0.0152
60613W        W 3604  17.039  27.782  20.803  0.0242 -0.2264 -0.0219
60614W        W 3605   2.068   1.550  10.813  0.0621 -0.0139 -0.1523
60615W        W 3606  15.290  13.230   3.716  0.0047 -0.4792 -0.1086
60616W        W 3607   4.339   1.797  10.579  0.2789  0.0302 -0.0513
60617W        W 3608   0.127  29.097   4.143 -0.0886  0.1640 -0.0903
60618W        W 3609   7.442   1.156   2.672 -0.1529  0.4788  0.1216
60619W        W 3610  24.541  19.465  24.263 -0.1886 -0.3062 -0.2495
60620W        W 3611  14.912  21.061  23.399 -0.0844 -0.2085 -0.1198
60621W        W 3612   3.576  17.374  10.470 -0.0149 -0.1000  0.2775
60622W        W 3613   5.818  25.637  10.183  0.2498 -0.0934  0.2378
60623W        W 3614  34.378  14.554  25.840  0.1883 -0.1796  0.1356
60624W        W 3615   5.450  17.824  10.896  0.0926  0.1266 -0.0667
60625W        W 3616  12.887   1.981   6.080 -0.0565 -0.3095 -0.2162
60626W        W 3617  29.696  22.199   2.944 -0.2006  0.0466 -0.1268
60627W        W 3618  27.889  16.720   6.609  0.0285  0.3326  0.2811
60628W        W 3619  30.665  24.600  22.816 -0.3212  0.1400 -0.0885
60629W        W 3620   2.930  13.807  19.561 -0.1254  0.0673 -0.0839
60630W        W 3621   0.555  25.323   3.708 -0.0829  0.2842  0.1442
60631W        W 3622  12.305   2.948   7.639  0.0054 -0.0826  0.0132
60632W        W 3623  13.699  27.505   4.888 -0.0901 -0.0378 -0.2098
60633W        W 3624  23.777   2.804  22.113  0.0766 -0.1884 -0.0176
60634W        W 3625  14.758  15.767  24.271 -0.0475 -0.0199 -0.1731
60635W        W 3626  26.956  10.472   5.800  0.0366  0.0774 -0.3255
60636W        W 3627   0.838   3.942   4.429 -0.2308  0.2174 -0.1334
60637W        W 3628   2.600   8.825  18.037  0.0133 -0.0180 -0.1683
60638W        W 3629  29.661  18.886   5.068  0.3036 -0.2522 -0.0149
60639W        W 3630  25.422  24.554  13.953 -0.2464  0.1087 -0.0884
60640W        W 3631  14.232  13.230   9.750  0.3466 -0.0506 -0.1472
60641W        W 3632   4.888  25.148   8.223 -0.2181  0.1743 -0.1318
60642W        W 3633  29.055  14.175   5.252  0.3659 -0.0687  0.1309
60643W        W 3634   0.717  16.065   8.846  0.0028 -0.4794  0.3449
60644W        W 3635  33.468  17.408   4.391  0.0224  0.1920 -0.0144
60645W        W 3636   0.096   5.386   2.001 -0.3246  0.0197  0.3794
60646W        W 3637   9.511  21.501  18.922 -0.0653  0.0455  0.1798
60647W        W 3638  20.738   4.616   4.293 -0.1680 -0.0649 -0.0311
60648W        W 3639  32.367  27.110  27.903 -0.0234  0.2873 -0.2662
60649W        W 3640  25.670  17.166  20.240  0.0438  0.2764 -0.0319
60650W        W 3641   4.104   5.705  11.584 -0.1241 -0.0480 -0.0318
60651W        W 3642   8.360  16.104   3.778  0.1098 -0.2916 -0.1195
60652W        W 3643  18.549   6.886  18.574 -0.0625 -0.1535  0.3707
60653W        W 3644  33.254  21.819  27.862  0.3288  0.0027  0.1473
60654W        W 3645   8.303  14.077  24.898 -0.0197  0.0209 -0.0163
60655W        W 3646   7.162   5.924   4.817 -0.3646 -0.3757  0.0463
60656W        W 3647  12.673   3.696  10.594  0.0326  0.4325 -0.0959
60657W        W 3648   6.496   7.863   4.295 -0.0617 -0.3087 -0.0144
60658W        W 3649   6.218  24.061   8.786 -0.2307 -0.2009  0.2582
60659W        W 3650  28.795  11.928   6.909 -0.0025  0.0382 -0.2813
60660W        W 3651   5.699  28.096   7.790  0.0813 -0.1142  0.1774
60661W        W 3652   4.128  10.582   9.903  0.1190 -0.3467 -0.0363
60662W        W 3653   4.755   8.682  11.399  0.3859 -0.0382  0.3289
60663W        W 3654  13.734  34.737  27.543  0.0295  0.0228  0.1694
60664W        W 3655  15.061   8.956  27.706  0.0677 -0.2333 -0.5041
60665W        W 3656  26.020  10.949   8.120  0.1489  0.3952 -0.1715
60666W        W 3657  27.660  11.580   8.288 -0.1915 -0.0732  0.1164
60667W        W 3658  27.647  17.438   6.194  0.1717  0.0041  0.1145
60668W        W 3659  29.062  19.299   3.799 -0.3233 -0.1853 -0.0603
60669W        W 3660   1.799   6.955  23.544 -0.1369  0.1981  0.1258
60670W        W 3661   0.751   9.809  10.020  0.3469 -0.0885 -0.1823
60671W        W 3662   1.986   9.570   4.298 -0.2408  0.1346  0.0468
60672W        W 3663  10.747  13.570   9.154 -0.0118  0.2673  0.0351
60673W        W 3664  30.780   9.992  22.805  0.0344  0.2990 -0.1253
60674W        W 3665  32.662  25.382   7.630 -0.1406 -0.2233  0.2958
60675W        W 3666   1.282  11.707   0.782  0.1207  0.4869  0.2099
60676W        W 3667   0.835  13.802  19.717  0.1594  0.0048  0.0014
60677W        W 3668  22.127  20.354  24.430 -0.0217  0.1473 -0.3139
60678W        W 3669   6.184  20.253  10.194 -0.3540 -0.0999  0.1058
60679W        W 3670   2.729  12.750   7.125 -0.1839  0.0542 -0.1464
60680W        W 3671   7.015  17.093  28.065  0.2863 -0.1287 -0.2972
60681W        W 3672  34.366  11.349  28.817  0.0874  0.1370 -0.3446
60682W        W 3673   2.892   7.107   3.582  0.0701  0.1405 -0.1161
60683W        W 3674   2.667  20.541   7.748 -0.0969 -0.2361  0.2067
60684W        W 3675   9.214  16.848  10.194 -0.1365 -0.0979  0.3031
60685W        W 3676   4.103  21.741  28.712  0.2627 -0.0299  0.2436
60686W        W 3677   8.968  26.088   3.267 -0.2392  0.0389 -0.0382
60687W        W 3678  13.679  18.300  23.478 -0.0582  0.1597  0.0968
60688W        W 3679   8.129   8.390  29.145  0.2214  0.0223  0.1446
60689W        W 3680   6.256  11.326   6.017  0.0043  0.1627 -0.2927
60690W        W 3681  18.519  19.702   3.287  0.2842 -0.0614  0.0307
60691W        W 3682  22.539  29.651  24.930  0.0316 -0.1054 -0.2484
60692W        W 3683   6.365  16.979   4.506  0.1549  0.0580  0.0901
60693W        W 3684  21.569  13.249   1.416  0.0403 -0.1537 -0.2159
60694W        W 3685   4.698  18.848   7.084  0.2981  0.0210 -0.1890
60695W        W 3686   9.569   3.531   7.329  0.2964 -0.0345  0.2741
60696W        W 3687  34.616  18.597   8.123 -0.0207 -0.4356  0.0767
60697W        W 3688   6.556  19.370  26.235 -0.1069 -0.2496  0.0459
60698W        W 3689  25.955  32.134   4.268 -0.0596  0.1103  0.2329
60699W        W 3690  11.417   7.058   1.537  0.3726 -0.0160  0.0751
60700W        W 3691  26.945  13.415   6.906  0.0473  0.2149 -0.2150
60701W        W 3692  31.729  34.440   6.736 -0.1277  0.1177  0.0401
60702W        W 3693  12.754  12.202   7.383  0.2795 -0.0195  0.0496
60703W        W 3694  10.047   7.464  10.755  0.0169  0.1699  0.2217
60704W        W 3695   4.100  18.194   1.036 -0.2823 -0.2608 -0.1297
60705W        W 3696   9.423  19.243   2.978  0.1811  0.1051  0.0612
60706W        W 3697  19.784  11.449   5.895 -0.2378 -0.0783 -0.1296
60707W        W 3698   9.598  20.452   4.244  0.1577  0.1041 -0.2018
60708W        W 3699   8.665   7.477  28.639  0.0544 -0.1717  0.0892
60709W        W 3700   3.910   8.565   2.299  0.1056 -0.1428  0.0563
60710W        W 3701   4.468  31.212   0.667 -0.1616  0.0427  0.0604
60711W        W 3702   6.963  14.172   3.039 -0.0977  0.0987 -0.1352
60712W        W 3703   7.108   4.069  10.366 -0.0590 -0.1117  0.1331
60713W        W 3704   5.806  19.956  10.513 -0.1091  0.0540 -0.0118
60714W        W 3705  33.617  12.703  20.738  0.0749  0.1898 -0.1300
60715W        W 3706  13.479  34.628   8.570  0.0198  0.1213 -0.0366
60716W        W 3707  27.410  11.131   4.775  0.2581 -0.0047 -0.0364
60717W        W 3708  30.948  33.014   4.398 -0.1637  0.1667 -0.1690
60718W        W 3709  27.831  20.133   6.365  0.0514 -0.1863  0.0205
60719W        W 3710   0.307  26.266   6.732 -0.1970  0.1696  0.0742
60720W        W 3711   9.517  19.493  10.595  0.2898  0.2063 -0.1271
60721W        W 3712  31.533  11.869  28.123  0.0095  0.0334 -0.0424
60722W        W 3713  16.386  11.330   7.091 -0.2969 -0.2369  0.0288
60723W        W 3714  33.919  29.491   5.601 -0.0735 -0.1076  0.2319
60724W        W 3715  34.740  30.416  20.570  0.0725  0.0491  0.2974
60725W        W 3716  31.465  25.145   7.908 -0.0359 -0.2113  0.3841
60726W        W 3717   5.257   1.093   2.067 -0.0615  0.0140 -0.0082
60727W        W 3718   3.071  13.627  10.573 -0.2467 -0.2804 -0.0786
60728W        W 3719  22.132  17.814   0.301  0.2291 -0.1332  0.0203
60729W        W 3720   5.621   7.056  16.971  0.0182 -0.3740 -0.2552
60730W        W 3721  32.038  14.426  21.697 -0.3080  0.0320 -0.1223
60731W        W 3722  30.791  29.478   7.983  0.2939  0.1986  0.4789
60732W        W 3723   7.823  12.464   7.353  0.1869  0.0270 -0.0235
60733W        W 3724   0.194   8.141  19.353  0.0534 -0.0219  0.0054
60734W        W 3725  20.957  18.458  20.327 -0.1325 -0.3705 -0.0818
60735W        W 3726   3.052  25.226   5.692  0.3855 -0.0378  0.0252
60736W        W 3727   3.709  27.441   6.866 -0.0025 -0.2192 -0.0296
60737W        W 3728   7.498  14.111   9.392 -0.0546 -0.0814  0.0216
60738W        W 3729  24.455  27.328   4.068 -0.3535 -0.3295  0.0001
60739W        W 3730   3.959  10.615   0.728 -0.2953 -0.1851 -0.1727
60740W        W 3731   3.782   7.085   8.007  0.1830 -0.2167  0.1546
60741W        W 3732  34.232   2.684  21.634  0.0529 -0.1270  0.2688
60742W        W 3733   6.165  16.209  10.427 -0.4421 -0.0544 -0.1072
60743W        W 3734  26.368   4.138   7.525 -0.0836 -0.0671 -0.2103
60744W        W 3735   9.312   9.112  29.212 -0.0863 -0.2944 -0.1043
60745W        W 3736  31.994  12.036   5.875  0.3549  0.1825 -0.0153
60746W        W 3737  29.943  15.570  10.708  0.0698  0.1836  0.1310
60747W        W 3738  25.909   2.200  27.257  0.2567 -0.2257 -0.2239
60748W        W 3739  32.121   3.596   9.828 -0.0330 -0.1394 -0.0421
60749W        W 3740  34.421   8.986   1.481  0.0371  0.5199  0.0281
60750W        W 3741   3.157  17.989   9.804 -0.1800 -0.2900 -0.1898
60751W        W 3742  30.698  31.522   4.838 -0.0489  0.1480  0.4023
60752W        W 3743  26.604   6.692   1.975 -0.3096 -0.0336 -0.1194
60753W        W 3744   7.702  17.736   5.799 -0.3237  0.0105  0.0832
60754W        W 3745  13.521  16.959   7.726  0.1893 -0.0520 -0.0503
60755W        W 3746   9.485  11.608  10.835 -0.0661 -0.0579  0.1825
60756W        W 3747  14.870  12.019  29.035  0.2280  0.0041 -0.2938
60757W        W 3748  19.023  24.585   2.500 -0.0659 -0.2541  0.1763
60758W        W 3749   4.395   5.470   7.766 -0.3042  0.0329  0.0336
60759W        W 3750  16.228   4.496  10.945  0.0367  0.0023  0.0496
60760W        W 3751  33.806  24.027   0.750  0.0012 -0.0784 -0.1529
60761W        W 3752  32.093   2.031   0.946  0.1165 -0.3510 -0.1454
60762W        W 3753  24.764  18.930   7.640  0.0299 -0.1426 -0.1231
60763W        W 3754   6.620   5.929   5.048 -0.0449  0.1349 -0.2727
60764W        W 3755   3.462  27.728   3.264  0.0565  0.1349  0.1150
60765W        W 3756   9.905   8.882  15.795 -0.0538  0.0551  0.0764
60766W        W 3757  21.485  29.162   5.205  0.0206 -0.1672 -0.0418
60767W        W 3758  20.215  21.998   2.306 -0.0299  0.2877 -0.2254
60768W        W 3759  29.394  23.127   1.566 -0.0890  0.0377  0.0258
60769W        W 3760   7.858   5.205   7.692 -0.1300 -0.1329 -0.1802
60770W        W 3761  29.208   5.963  25.100  0.0072  0.3639  0.1191
60771W        W 3762  31.562  25.737   2.954  0.0686 -0.0786 -0.1639
60772W        W 3763   7.483   5.143   0.410 -0.2718  0.0394 -0.1448
60773W        W 3764  18.584  11.516   9.951 -0.0748  0.3055 -0.2706
60774W        W 3765  30.519   7.733  27.946  0.2421 -0.1006  0.2639
60775W        W 3766  13.382  16.749  25.049  0.1602 -0.1065 -0.2167
60776W        W 3767   9.710  14.069  10.478 -0.1234  0.0838 -0.4922
60777W        W 3768   4.290  18.728  22.680  0.1764 -0.0774  0.2388
60778W        W 3769   2.537  22.133   0.022 -0.0719 -0.2032  0.4510
60779W        W 3770  10.224  20.830  27.044  0.2248 -0.1890 -0.1547
60780W        W 3771   0.614   9.307  10.795  0.2023 -0.0743 -0.1525
60781W        W 3772  34.433  12.800   5.368 -0.1882 -0.1777  0.1600
60782W        W 3773  27.519  16.591  10.267 -0.1458 -0.2048  0.1276
60783W        W 3774  14.610   2.705   7.025  0.2411  0.0910 -0.2118
60784W        W 3775  31.506  30.636   4.709  0.1452 -0.1698  0.3593
60785W        W 3776   1.446   6.561   4.649 -0.0992  0.0796 -0.0511
60786W        W 3777  28.056  17.947   4.073 -0.3707  0.0985 -0.0597
60787W        W 3778   3.586   3.606   5.228  0.2634 -0.0253 -0.2219
60788W        W 3779  12.077  18.106   9.502  0.2889 -0.2417  0.0456
60789W        W 3780   4.868  10.844  18.169 -0.1307 -0.1638  0.0442
60790W        W 3781  11.218  10.679  17.501 -0.0879 -0.0153 -0.2374
60791W        W 3782  10.673   7.941   9.168 -0.1287 -0.0050 -0.1725
60792W        W 3783  19.813   6.489  27.279 -0.0259 -0.0725  0.0883
60793W        W 3784  32.457  18.311   6.108  0.0889  0.0632  0.1745
60794W        W 3785   7.431  16.856   5.756  0.0674  0.1221 -0.1696
60795W        W 3786  21.517  10.986   6.456 -0.1935 -0.0064  0.3085
60796W        W 3787  12.251   6.741   7.975  0.2728  0.0262 -0.4531
60797W        W 3788  30.396  16.240   2.009 -0.0666 -0.1642 -0.2274
60798W        W 3789   3.726  23.698   4.780 -0.0783  0.1523  0.0341
60799W        W 3790  12.607  31.961   8.521  0.1126  0.0418 -0.3537
60800W        W 3791  30.317  25.407   6.957 -0.0717 -0.0800  0.0566
60801W        W 3792   8.747  15.595   7.750 -0.1147 -0.2479  0.0243
60802W        W 3793   5.917  33.542  26.740 -0.2520 -0.5525 -0.1336
60803W        W 3794  15.503   0.341   8.905  0.0616  0.0565 -0.0736
60804W        W 3795  27.584  11.846   6.206  0.2469  0.0375  0.0902
60805W        W 3796  26.836   6.369   6.423 -0.1627  0.1127 -0.1874
60806W        W 3797   1.529  17.446  29.026 -0.0896 -0.1335 -0.4853
60807W        W 3798   3.545   6.740   2.759 -0.0313  0.3004  0.0427
60808W        W 3799  32.605  18.282  26.337  0.2857  0.0612  0.0101
60809W        W 3800  14.712  15.297   0.116 -0.0307 -0.0167  0.1242
60810W        W 3801  15.798  28.326   9.655  0.1193 -0.0866  0.5447
60811W        W 3802   2.163  24.269   1.466 -0.0389  0.1481  0.0192
60812W        W 3803  20.061   6.006   7.954  0.1020  0.1791  0.2697
60813W        W 3804  20.000   1.806   1.089 -0.0285  0.0876 -0.1747
60814W        W 3805  12.585  14.036   7.623  0.1687  0.0256  0.4252
60815W        W 3806  21.746   4.689   0.638  0.2622 -0.1052  0.2907
60816W        W 3807  10.500   6.733   4.308 -0.1110 -0.2352 -0.0041
60817W        W 3808  13.876  11.301   9.099 -0.0138  0.0095  0.2277
60818W        W 3809  32.021   2.339   6.608  0.0835 -0.0855  0.1057
60819W        W 3810  23.293  30.960   2.332  0.0686  0.3844  0.1016
60820W        W 3811   8.748  10.052  10.200  0.0705 -0.2520  0.2485
60821W        W 3812   6.575  14.372   6.607  0.3904  0.0501 -0.1018
60822W        W 3813  34.267   6.246  10.677  0.2580  0.2585  0.0720
60823W        W 3814  15.407  10.138  23.410 -0.1325  0.3044  0.2225
60824W        W 3815  22.522  16.074   2.773  0.1067  0.0238 -0.3656
60825W        W 3816  15.875  12.597   3.276  0.0950 -0.1421  0.0738
60826W        W 3817  27.713  14.428   4.155  0.0774 -0.0401 -0.2054
60827W        W 3818  18.074  12.972   7.568  0.1827  0.1284  0.1410
60828W        W 3819  25.050  15.582   3.655  0.1286 -0.0320 -0.1646
60829W        W 3820   8.357   6.597   4.545  0.1329 -0.0998  0.2023
60830W        W 3821  22.474  16.445   3.530  0.1152 -0.0444  0.2047
60831W        W 3822  31.822  13.714  10.793 -0.1137 -0.1031 -0.0590
60832W        W 3823  17.452  26.790   0.975 -0.2642  0.0631 -0.0923
60833W        W 3824   3.474  18.262  25.593  0.0774 -0.1731  0.1439
60834W        W 3825  33.169  10.702   4.612 -0.1671 -0.0523  0.6286
60835W        W 3826  33.030  17.097   2.449 -0.0912 -0.0910 -0.2069
60836W        W 3827   0.704  27.217  28.228 -0.2812 -0.0930  0.1567
60837W        W 3828   2.799  22.692   8.885  0.2373  0.3271 -0.2665
60838W        W 3829  10.031   4.251  10.264  0.3527 -0.4578  0.1224
60839W        W 3830   5.847  10.268   2.577  0.0841 -0.1697 -0.1525
60840W        W 3831  15.594  26.060   6.223 -0.0646  0.1053 -0.1452
60841W        W 3832   9.143  14.783  24.095  0.1925 -0.1807  0.2223
60842W        W 3833  20.785   2.550  14.002  0.0143  0.0403  0.0293
60843W        W 3834  31.078  17.123  10.413  0.1155  0.0332 -0.0002
60844W        W 3835  30.359  11.416   8.973  0.0313 -0.0073  0.0339
60845W        W 3836   0.204  28.030  21.989 -0.1728 -0.3469 -0.1152
60846W        W 3837   1.489  14.945  28.012 -0.0462  0.0047 -0.0307
60847W        W 3838   6.281  16.799   2.392 -0.3018  0.1062 -0.2853
60848W        W 3839  19.726  19.919  28.153  0.1646  0.1950  0.0095
60849W        W 3840   6.235  14.657   8.852  0.0124  0.1695 -0.1949
60850W        W 3841  17.244  27.793  11.333 -0.2409  0.1439  0.1196
60851W        W 3842   6.531  19.428  10.588  0.1748 -0.0810  0.1930
60852W        W 3843  33.558  11.414  11.001  0.1809  0.1700 -0.2823
60853W        W 3844  14.295  21.635   3.893 -0.2992  0.0366  0.0843
60854W        W 3845   3.648  13.396   7.591 -0.2408 -0.0008 -0.3625
60855W        W 3846  29.770  10.483   8.884 -0.2324  0.1310  0.4391
60856W        W 3847  32.873  12.961   1.862 -0.1736 -0.0893  0.0678
60857W        W 3848  31.242  15.504  10.370  0.0921 -0.0390 -0.0430
60858W        W 3849   6.162  24.093   3.123 -0.2032 -0.1967  0.1023
60859W        W 3850   0.264  15.640   5.283  0.0281  0.1910  0.0927
60860W        W 3851   1.709  31.493   8.198  0.3921 -0.0498 -0.0388
60861W        W 3852  12.229  14.801  16.586 -0.0563  0.0803 -0.0823
60862W        W 3853  10.247  10.190   6.844  0.1334  0.2033 -0.0582
60863W        W 3854   6.372  19.575  24.498 -0.0719  0.0521  0.0995
60864W        W 3855   2.382  30.093  21.609 -0.0942  0.1978  0.2693
60865W        W 3856  11.685  16.267  22.663  0.4302  0.0114 -0.2749
60866W        W 3857   3.170  32.018  10.524 -0.0190  0.0034  0.0510
60867W        W 3858  31.688  10.348  26.380 -0.1479  0.2914  0.1781
60868W        W 3859  29.882  10.734   8.412 -0.0032 -0.1729  0.2394
60869W        W 3860  33.538  23.746  29.254  0.0797 -0.4976 -0.1372
60870W        W 3861  11.630  11.243  29.042 -0.2375 -0.0446 -0.0153
60871W        W 3862   9.587  15.842   8.545  0.0463 -0.1928 -0.2790
60872W        W 3863   6.256   8.995   8.284 -0.1684  0.1831 -0.2193
60873W        W 3864  33.114  11.732   5.322 -0.0253  0.1606  0.0004
60874W        W 3865  31.916   7.890  28.692 -0.1722  0.0199  0.0142
60875W        W 3866  16.410  21.514  24.569 -0.3794 -0.0416  0.1406
60876W        W 3867   1.771  14.769  29.246 -0.4192  0.0437 -0.1717
60877W        W 3868   7.520  33.481   8.429 -0.0141  0.0093 -0.0170
60878W        W 3869  31.507  33.426  24.606 -0.2601 -0.1311 -0.0462
60879W        W 3870  16.248  18.255  26.293 -0.1125  0.0277  0.0096
60880W        W 3871   7.197  13.246   1.763 -0.4223 -0.0557  0.0253
60881W        W 3872   1.350  34.471   9.008 -0.1884 -0.1216  0.1881
60882W        W 3873  13.230  10.254   8.642 -0.1519  0.2272 -0.2710
60883W        W 3874  30.590  25.086   4.695 -0.2614  0.1765  0.1717
60884W        W 3875   6.985   4.679  26.083  0.0987  0.0692 -0.0432
60885W        W 3876  21.546  15.778   2.851 -0.2770 -0.0840  0.1893
60886W        W 3877  32.226  10.993   3.235 -0.0144  0.0487  0.0159
60887W        W 3878  25.941   1.733  19.950 -0.2874 -0.0815 -0.0419
60888W        W 3879  10.429  29.966  24.316  0.0361  0.0229 -0.1376
60889W        W 3880   4.016  15.980  10.922 -0.0057  0.3040  0.2729
60890W        W 3881  10.260  21.489  23.719 -0.3744  0.1174  0.2133
60891W        W 3882  12.324  27.151   1.311  0.1605  0.1229  0.1331
60892W        W 3883  30.791  10.695   5.258  0.1775 -0.3799  0.0523
60893W        W 3884  31.475  19.084  26.417  0.1566  0.0150  0.0496
60894W        W 3885  31.433   9.971   2.560 -0.2073 -0.1565  0.1173
60895W        W 3886   4.028  11.088  10.212 -0.0438  0.1051  0.1330
60896W        W 3887   5.828  20.129  11.053 -0.1116  0.3530 -0.1599
60897W        W 3888  11.880  25.410   4.089  0.0961  0.0522  0.1233
60898W        W 3889   0.212  20.499   3.830 -0.2010  0.0908  0.0443
60899W        W 3890  32.980  17.185   5.865 -0.0287  0.2281 -0.2110
60900W        W 3891   7.111  11.541   4.048  0.0232  0.1752 -0.1583
60901W        W 3892   3.826  15.534   6.017  0.0584  0.2457  0.0326
60902W        W 3893  10.884  16.603  17.817 -0.0793 -0.2255 -0.1650
60903W        W 3894  21.689  28.879   4.813 -0.1679 -0.1784  0.0618
60904W        W 3895  19.636  21.762  25.812  0.3736  0.2323 -0.1294
60905W        W 3896  11.590  19.591   6.158  0.2115  0.3829  0.4047
60906W        W 3897   8.241  16.353  26.012  0.0059  0.1431  0.0041
60907W        W 3898  14.550   9.106   0.020 -0.1330 -0.1489  0.1909
60908W        W 3899  10.154  21.400  20.470 -0.1194 -0.5641 -0.1487
60909W        W 3900   2.079  13.206   1.792  0.1252 -0.1417 -0.1589
60910W        W 3901  31.454  33.207   4.719  0.3389  0.0619 -0.0052
60911W        W 3902  24.091   5.379   3.222 -0.2040 -0.1637  0.1556
60912W        W 3903  10.108  11.878   8.687  0.0028  0.1109  0.3054
60913W        W 3904  33.060   6.736  20.496  0.0612 -0.0173 -0.1827
60914W        W 3905   5.963  21.372   8.663 -0.3866  0.0955  0.0797
60915W        W 3906  27.872  14.695   0.690 -0.3060  0.3388 -0.2433
60916W        W 3907  16.102   9.100  23.443 -0.1040  0.1695 -0.1864
60917W        W 3908  33.559   7.477  10.086  0.0658 -0.0613  0.0166
60918W        W 3909   1.546  10.550   7.909  0.1457 -0.2036  0.0483
60919W        W 3910  17.960   2.114   5.354 -0.0773 -0.0977 -0.3675
60920W        W 3911   5.808  24.422   3.441 -0.0680  0.3082  0.2888
60921W        W 3912   5.932   8.783  27.373  0.0340 -0.2973 -0.1645
60922W        W 3913   6.407  20.418   6.757  0.4550  0.1061  0.2915
60923W        W 3914  33.147  10.365  10.650  0.0739 -0.0525 -0.0118
60924W        W 3915  27.742  22.840   5.178  0.1653 -0.2676 -0.0872
60925W        W 3916   9.693   1.724   6.941  0.2783  0.0682  0.0101
60926W        W 3917  14.837   6.614   9.715 -0.0009  0.0631 -0.1891
60927W        W 3918  33.484   2.360   0.394 -0.3926 -0.0604 -0.1811
60928W        W 3919  13.552  22.201   9.023 -0.1749 -0.0777  0.2091
60929W        W 3920  23.459   7.907  27.198  0.0788 -0.2789  0.0042
60930W        W 3921  32.281  15.627  10.356  0.1237 -0.0427  0.0326
60931W        W 3922  27.392  32.456   7.374  0.0094  0.2556 -0.0671
60932W        W 3923   0.322   8.772   7.796  0.1236  0.2023 -0.1307
60933W        W 3924  29.243   7.066   5.457  0.0142  0.2451 -0.0242
60934W        W 3925   9.637  17.162   7.943 -0.1834  0.2992 -0.3024
60935W        W 3926   4.115  28.860  21.684 -0.0842  0.2060 -0.0735
60936W        W 3927   8.230  12.220   9.531  0.0209 -0.1111  0.2496
60937W        W 3928   5.313  11.665  10.683  0.0282  0.0151 -0.1194
60938W        W 3929  12.560  12.397   7.883  0.1974  0.0710  0.0668
60939W        W 3930   6.757  13.918  11.103 -0.1109  0.0374 -0.0026
60940W        W 3931  25.234   6.552   6.123 -0.2409  0.0019  0.0911
60941W        W 3932  15.529  14.730  27.079 -0.1879 -0.1659 -0.1242
60942W        W 3933  23.107  13.855  24.346 -0.2621 -0.0160  0.0422
60943W        W 3934   5.184  24.216   6.852 -0.1068  0.0151  0.1113
60944W        W 3935   1.057  13.350  27.796  0.1335 -0.3822 -0.0417
60945W        W 3936   8.878  14.422   9.620 -0.1054 -0.0096  0.2461
60946W        W 3937   2.595  24.027  10.396  0.1370 -0.4459 -0.0085
60947W        W 3938  11.721  25.293   6.816 -0.2956 -0.0155  0.0378
60948W        W 3939  14.060  16.985   3.633  0.2121  0.0673  0.0661
60949W        W 3940  22.405  25.482  26.218  0.0910 -0.0593 -0.1862
60950W        W 3941   7.764  20.927   2.134  0.0459  0.1058  0.0559
60951W        W 3942  25.577  32.986   4.879 -0.0297  0.0730  0.0771
60952W        W 3943  19.987   3.105   8.908  0.0744  0.0773 -0.3389
60953W        W 3944   7.978   9.280  10.452 -0.0514  0.0412 -0.1398
60954W        W 3945   9.747  10.706  10.715 -0.2339  0.0491 -0.1714
60955W        W 3946  10.016  24.641   6.018 -0.0795 -0.2804  0.1872
60956W        W 3947  11.296  17.910   6.665  0.2098  0.0276  0.3179
60957W        W 3948  25.905   9.749   9.705 -0.0132 -0.3404 -0.0904
60958W        W 3949   7.393  21.071   4.424  0.1080 -0.1284 -0.0150
60959W        W 3950  11.535   2.496  19.853 -0.1525  0.2092  0.0164
60960W        W 3951  20.399  15.261   7.202  0.1421  0.1319  0.2051
60961W        W 3952  28.685  28.168  20.881  0.0417  0.2801  0.2578
60962W        W 3953   5.536   7.719   3.051  0.2958 -0.0755  0.1998
60963W        W 3954   4.499  10.553  28.518  0.0067 -0.0249  0.2708
60964W        W 3955   5.231  26.077  10.373  0.0048 -0.2442  0.2751
60965W        W 3956   9.030  33.693   4.293 -0.0364 -0.0736 -0.0385
60966W        W 3957  12.654   8.611  10.950  0.1818  0.0608 -0.1251
60967W        W 3958  29.072  15.546  26.923 -0.0749 -0.3415 -0.1518
60968W        W 3959  23.555  13.030   6.235 -0.3814  0.2930  0.0645
60969W        W 3960   0.198  13.930   3.340 -0.0344 -0.0009 -0.4090
60970W        W 3961  33.457   8.161   9.543 -0.1015 -0.0854  0.2580
60971W        W 3962   5.462  22.490   3.805  0.0980  0.0705  0.1638
60972W        W 3963  30.165  22.572   6.497 -0.0489  0.1486  0.2358
60973W        W 3964  20.103  17.921   6.620  0.0886 -0.0781 -0.0930
60974W        W 3965  14.695  10.092   8.552 -0.1709  0.1476  0.1206
60975W        W 3966   2.023   7.326   5.488 -0.0454  0.1385 -0.0076
60976W        W 3967   9.755  22.104   8.172  0.0525 -0.1316 -0.1049
60977W        W 3968  29.067  22.942   8.273  0.1033 -0.0946 -0.0209
60978W        W 3969   7.593   7.826  10.617  0.0643  0.1245 -0.0929
60979W        W 3970  32.750  26.091   1.173  0.2674 -0.0952 -0.0710
60980W        W 3971   6.389   1.344   8.684  0.0306  0.0452  0.1297
60981W        W 3972   3.353  30.253   9.477 -0.2263 -0.4142  0.2785
60982W        W 3973  18.639   2.187   1.492 -0.5807  0.0273  0.1187
60983W        W 3974  16.708  19.522  26.182 -0.1889  0.0293 -0.1869
60984W        W 3975   8.110  26.388   4.375 -0.3309 -0.0572 -0.1228
60985W        W 3976  34.341  19.680   4.612 -0.0095 -0.2227  0.1879
60986W        W 3977   0.332  26.457   9.341 -0.0767  0.0940 -0.3367
60987W        W 3978  11.467  23.824  29.202  0.0123  0.0049  0.1027
60988W        W 3979  12.403  17.262  22.338 -0.0687  0.1549  0.1140
60989W        W 3980   2.243  12.325  29.137  0.2259  0.3279 -0.0201
60990W        W 3981  33.850   8.439   8.153  0.0063  0.3357  0.0884
60991W        W 3982  27.444   2.588  25.544 -0.1191  0.1438  0.1313
60992W        W 3983  27.966  28.920   5.262  0.0588  0.1077  0.1646
60993W        W 3984  19.282  12.101   2.823 -0.2854  0.0869 -0.0381
60994W        W 3985  27.686  14.068   2.249 -0.1615 -0.2343  0.1845
60995W        W 3986  24.532  16.971   6.960  0.3061  0.2132  0.1714
60996W        W 3987  24.266   3.489  26.790  0.0291  0.1893 -0.0875
60997W        W 3988  23.160  18.885  23.179  0.0106 -0.1457  0.2642
60998W        W 3989  20.305  24.366   8.390  0.1337  0.2312 -0.0779
60999W        W 3990  32.138  13.627   2.925  0.1298  0.0964 -0.1187
61000W        W 3991   5.025  25.428  14.663  0.0125 -0.1736 -0.3161
61001W        W 3992   1.862  12.973  28.994  0.2793  0.0508 -0.1214
61002W        W 3993   1.174  15.211   8.749  0.0937  0.0776 -0.1018
61003W        W 3994   1.783  21.310   6.121 -0.4916 -0.1623 -0.3929
61004W        W 3995  32.524  22.398   9.379  0.1654  0.0187 -0.1391
61005W        W 3996   1.344  24.536   3.834  0.0089 -0.0455  0.0505
61006W        W 3997   3.115  20.233  10.825  0.0130 -0.0034  0.0668
61007W        W 3998  17.578  17.434   3.426  0.1042 -0.1329  0.1893
61008W        W 3999  27.623  22.142   8.846  0.0474  0.2077 -0.0320
61009W        W 4000  10.324  15.142   6.057 -0.0427 -0.0572 -0.0572
61010W        W 4001   7.408  24.424   3.959 -0.0973  0.0327  0.2171
61011W        W 4002  10.846  11.926   6.120 -0.2283  0.1863 -0.0442
61012W        W 4003   1.082  14.646  10.845  0.0872  0.0500 -0.1125
61013W        W 4004  25.871   9.562  10.551  0.2418 -0.0471 -0.2148
61014W        W 4005  27.644  25.431  12.737  0.1376 -0.1418  0.1243
61015W        W 4006   8.551  14.068   6.662 -0.0826 -0.0595  0.0285
61016W        W 4007  33.807  20.598  27.229 -0.4184 -0.1047  0.1416
61017W        W 4008   5.294  10.209   9.052 -0.0237  0.2141  0.2638
61018W        W 4009  21.325   7.725   8.398 -0.0780  0.4142  0.0047
61019W        W 4010  15.287  19.628   8.455 -0.0271  0.0058 -0.3795
61020W        W 4011   3.351   7.424   9.455  0.2194  0.0824 -0.0001
61021W        W 4012  30.755  33.311   5.251  0.0353 -0.0875 -0.0214
61022W        W 4013   5.940  22.369  22.400  0.0521  0.0891  0.2354
61023W        W 4014   0.172   6.908  10.781 -0.0261  0.0297 -0.3295
61024W        W 4015   0.469  22.849   6.669 -0.4533  0.0469  0.1918
61025W        W 4016   8.354  15.272  27.812  0.3725 -0.1753  0.3250
61026W        W 4017   9.545  11.551   7.683  0.0932  0.4720 -0.0515
61027W        W 4018  30.699  25.013   0.829 -0.1580 -0.1086 -0.0674
61028W        W 4019   4.317  10.931  28.732 -0.0553 -0.0628 -0.0275
61029W        W 4020  26.354  16.127   4.789  0.1496 -0.0975 -0.1769
61030W        W 4021  12.980  19.171   7.745  0.2748 -0.0628 -0.0749
61031W        W 4022   3.033   7.805  15.921  0.0854 -0.0759  0.1828
61032W        W 4023   4.689  21.192  19.230 -0.3090 -0.1161 -0.1667
61033W        W 4024   6.647   8.471   0.849 -0.2026  0.0653 -0.1494
61034W        W 4025  12.455  32.146  17.977 -0.1994 -0.1105  0.0960
61035W        W 4026  11.605  29.424  21.223  0.1382 -0.1594  0.0072
61036W        W 4027  11.892  11.794  23.519  0.1658  0.0320 -0.0013
61037W        W 4028   2.590  15.739   7.731 -0.2702 -0.2767  0.2189
61038W        W 4029  29.246  34.186  21.764 -0.0383  0.2819 -0.4229
61039W        W 4030  24.955  17.769   1.410  0.1198  0.3856  0.1315
61040W        W 4031  32.825   7.360  25.285 -0.1881  0.1370  0.1554
61041W        W 4032   0.798  21.030   8.817  0.1372  0.0060 -0.1064
61042W        W 4033   8.085  17.566   8.528  0.0989  0.1839 -0.3651
61043W        W 4034   5.393  17.263  15.744 -0.1278 -0.0965  0.2373
61044W        W 4035  28.164  20.543   7.587  0.2897  0.1186 -0.1639
61045W        W 4036   7.593   7.342   1.894  0.2434  0.0233  0.2227
61046W        W 4037  16.261  22.217   8.574  0.3725 -0.0214  0.0926
61047W        W 4038   2.701  17.851   9.542 -0.0525 -0.1451  0.0640
61048W        W 4039  25.561  24.446   1.578 -0.1120  0.2208 -0.1171
61049W        W 4040  14.020  19.012   7.881  0.0844  0.0361  0.1961
61050W        W 4041   4.212  17.996   9.936 -0.0966 -0.0019  0.4264
61051W        W 4042  15.602  25.436   9.560  0.1850 -0.0229 -0.2968
61052W        W 4043   6.048  20.783  26.350  0.0248  0.3823  0.0033
61053W        W 4044   5.165  13.720  27.997  0.1429  0.1523  0.0306
61054W        W 4045   2.777  20.941   6.764  0.0885 -0.1451 -0.0368
61055W        W 4046   0.796  33.470  21.415  0.1040  0.2236  0.1046
61056W        W 4047  24.950   4.581   3.956 -0.0595 -0.0218 -0.3669
61057W        W 4048   6.952  10.462   6.679  0.0568 -0.0106  0.0141
61058W        W 4049   6.280   7.736   7.995  0.0913  0.1996  0.0672
61059W        W 4050  27.787  24.173   4.807  0.2494  0.2171  0.1500
61060W        W 4051  28.136  13.391   8.387 -0.1321 -0.2033  0.0331
61061W        W 4052  34.172  12.067   2.063 -0.2765 -0.0004 -0.1696
61062W        W 4053  11.910  28.145   2.182  0.1694  0.5613  0.3664
61063W        W 4054  17.886   5.451  28.844 -0.0234  0.0110 -0.2038
61064W        W 4055   3.105   4.703   4.821  0.1381 -0.0326 -0.1932
61065W        W 4056  33.124  17.260   2.962  0.0544  0.0662 -0.0599
61066W        W 4057  33.199  21.927   1.434  0.4978  0.4780 -0.2335
61067W        W 4058   4.081  10.788  16.788 -0.0079  0.0357 -0.0375
61068W        W 4059  31.974  18.303  27.452 -0.0991 -0.1549 -0.0713
61069W        W 4060   6.541  30.297   1.768  0.1368  0.0346 -0.0993
61070W        W 4061   5.292   9.601  24.934 -0.0876  0.0464  0.0640
61071W        W 4062   1.174  26.888   9.809 -0.2557  0.3280  0.1012
61072W        W 4063   1.041  20.284   9.966  0.1182 -0.0224  0.1311
61073W        W 4064   8.331  20.392   1.764 -0.3118  0.3182  0.0741
61074W        W 4065  25.766  13.674   3.418  0.0414  0.0312 -0.0608
61075W        W 4066  32.550  20.243   2.165  0.1652 -0.2543 -0.0202
61076W        W 4067   1.640   3.452   6.046  0.0521 -0.0965  0.0786
61077W        W 4068   3.721   8.232   0.028  0.1226 -0.0706 -0.0089
61078W        W 4069  34.134   6.804  10.647  0.1668  0.0936  0.1806
61079W        W 4070  15.977   7.940  18.252 -0.2529  0.0118 -0.1891
61080W        W 4071  34.242  23.292  22.567 -0.0001 -0.1929 -0.1556
61081W        W 4072   8.440  24.662  26.306 -0.0752  0.1436 -0.2680
61082W        W 4073  32.342  16.320  27.877 -0.1047  0.0140 -0.0512
61083W        W 4074  32.941   9.492  22.560 -0.1903  0.0230  0.0350
61084W        W 4075  17.540  19.571   5.323 -0.2836 -0.3954 -0.0031
61085W        W 4076   9.451  24.280  26.595 -0.0519 -0.1368 -0.1490
61086W        W 4077  28.955   6.334   5.049 -0.0725  0.1223  0.1398
61087W        W 4078   7.584   9.745   6.856 -0.0037  0.0836 -0.3997
61088W        W 4079  21.959  28.618  27.414 -0.0462 -0.1260  0.1794
61089W        W 4080  33.084  25.723   8.507  0.1261  0.4337  0.0432
61090W        W 4081   0.984   0.203   5.145  0.0739 -0.0744 -0.1062
61091W        W 4082  20.258  22.721   4.109 -0.2042  0.0196 -0.3137
61092W        W 4083  26.945  14.184   8.167 -0.2191 -0.1825  0.0736
61093W        W 4084  22.659  26.647   3.024 -0.1526 -0.0376 -0.0858
61094W        W 4085  28.023  17.238   8.836 -0.3262 -0.0170  0.0884
61095W        W 4086   9.167   8.582  10.007 -0.2636  0.3507  0.2011
61096W        W 4087   5.204  28.115  22.568  0.1805  0.1680 -0.1812
61097W        W 4088   0.726  12.785   6.585 -0.1390 -0.1800 -0.0606
61098W        W 4089   7.789  26.839  24.610  0.2847 -0.0606 -0.1741
61099W        W 4090  18.884  27.283   0.790 -0.3055 -0.0242  0.0365
61100W        W 4091   2.440  22.337  22.856 -0.2029  0.2040 -0.4077
61101W        W 4092  13.179  19.492  27.818 -0.0452 -0.1963 -0.1670
61102W        W 4093  30.117  24.049   9.322 -0.2816 -0.1006 -0.0677
61103W        W 4094   7.344   9.700   8.142  0.1699 -0.2752 -0.2273
61104W        W 4095  28.452   3.268  19.378  0.0651 -0.3194  0.1927
61105W        W 4096  11.366  28.720  23.228  0.1061  0.3247 -0.0025
61106W        W 4097  13.984  20.951   1.824  0.2246 -0.0001  0.1788
61107W        W 4098  13.978   1.541   3.133  0.1366 -0.2894  0.0042
61108W        W 4099   4.543  11.435  28.315 -0.0177 -0.0002  0.1011
61109W        W 4100   1.739   0.833  21.818 -0.1511  0.0680 -0.0669
61110W        W 4101   2.623  30.049   7.174  0.0717  0.2147 -0.1865
61111W        W 4102  32.080  23.260  28.115  0.0611  0.0496  0.3413
61112W        W 4103   1.117  16.939   9.948  0.1729  0.3873  0.0274
61113W        W 4104  32.714  21.842  26.314  0.1278  0.0683 -0.2257
61114W        W 4105  25.176  20.107   1.071 -0.1386  0.0791 -0.2365
61115W        W 4106   8.954  22.421   6.339  0.0663 -0.2142 -0.3876
61116W        W 4107  27.426  27.685   5.837  0.2081  0.1886  0.2500
61117W        W 4108   2.456  11.810   9.401  0.1673  0.0265 -0.1931
61118W        W 4109   5.483  12.743   7.727  0.3333  0.1463  0.2095
61119W        W 4110  32.734  13.163   9.493 -0.0345  0.1705 -0.2922
61120W        W 4111  16.192  14.962  27.793 -0.0645  0.2287 -0.2509
61121W        W 4112  19.340  17.450  16.204 -0.0160 -0.1267  0.3175
61122W        W 4113  31.297  15.268  23.422 -0.3146 -0.0309  0.3532
61123W        W 4114  32.455  15.915  27.199  0.0495 -0.0812  0.2460
61124W        W 4115  28.004  21.368  27.987  0.1535 -0.0535  0.1368
61125W        W 4116   0.808  22.000  17.262 -0.1730  0.1609 -0.3338
61126W        W 4117  23.364  17.363  26.237  0.0220  0.0620  0.0100
61127W        W 4118  33.381  26.423   9.569 -0.1542 -0.2343 -0.1059
61128W        W 4119  24.463  13.937  27.285 -0.0182  0.0022 -0.2062
61129W        W 4120  30.784  15.456  29.081  0.0042 -0.2706 -0.2837
61130W        W 4121   0.222  15.272   2.306  0.0371 -0.2276  0.0522
61131W        W 4122  10.920  20.128  28.704  0.1398 -0.2962 -0.0657
61132W        W 4123  10.121  18.465   5.332  0.2541  0.0667 -0.3314
61133W        W 4124   7.856  34.430   6.042  0.3639 -0.2754  0.1953
61134W        W 4125  31.352  25.025  24.935  0.0094 -0.1913 -0.0283
61135W        W 4126   8.480  31.612   7.546 -0.1195  0.0893  0.1689
61136W        W 4127  30.283  30.652   0.005 -0.0406 -0.0815 -0.5008
61137W        W 4128  28.468  24.689   2.174 -0.2276  0.1931 -0.0519
61138W        W 4129   4.912  27.368   8.043  0.0891 -0.0976  0.2481
61139W        W 4130  27.526   8.358  25.596  0.2356  0.1145  0.1266
61140W        W 4131  25.869  15.654   0.308 -0.1038  0.1399  0.2542
61141W        W 4132   4.096  28.027  18.481  0.0359  0.0923 -0.4508
61142W        W 4133  30.227  19.319   5.702 -0.1178  0.1752  0.2860
61143W        W 4134   2.674  25.170   2.084  0.1514 -0.0499 -0.1576
61144W        W 4135   9.900  33.991  22.359  0.3128  0.1577 -0.1556
61145W        W 4136  33.309  28.005   7.045  0.1299  0.2970 -0.1559
61146W        W 4137  19.692  17.017   5.521  0.2947  0.0218 -0.0672
61147W        W 4138  23.451  25.842   5.562  0.0425 -0.0007  0.2398
61148W        W 4139   4.058  16.607   8.849  0.1262 -0.0978  0.0809
61149W        W 4140  13.583  20.971  27.598 -0.0382 -0.0568 -0.5479
61150W        W 4141  17.798  21.747  25.758 -0.0271  0.0923 -0.2284
61151W        W 4142  13.387  15.478   8.632 -0.0827  0.2033 -0.1182
61152W        W 4143   3.681  31.602  22.198 -0.0345  0.0974 -0.2180
61153W        W 4144  28.214  21.947  22.247  0.0374  0.3809 -0.1450
61154W        W 4145   4.389  15.867   5.110  0.2384  0.1992  0.1200
61155W        W 4146   7.092  18.344  22.177  0.2728  0.2394 -0.2247
61156W        W 4147  24.373  28.493   3.351  0.2258 -0.0515  0.0925
61157W        W 4148   8.442  25.542   1.366  0.2444 -0.3080 -0.0426
61158W        W 4149  28.901  28.968  22.642  0.1108 -0.0532  0.1496
61159W        W 4150  29.266  15.445   8.001  0.0391 -0.0386 -0.4425
61160W        W 4151  34.663  14.028   8.087 -0.1527 -0.0771  0.0534
61161W        W 4152   9.919   8.668  28.574  0.1903 -0.2435 -0.2256
61162W        W 4153  33.296  17.834  14.317  0.2300  0.0285  0.0018
61163W        W 4154   0.516   1.360   8.834 -0.0631  0.0105 -0.0366
61164W        W 4155  15.730  17.921   6.534  0.1835  0.4449  0.2709
61165W        W 4156  31.244  24.688  13.949  0.0022 -0.2343  0.0781
61166W        W 4157   8.460  24.685   7.880 -0.2506 -0.0264  0.0181
61167W        W 4158  30.523  23.059  22.984  0.0043 -0.3134 -0.1670
61168W        W 4159  25.446  31.945  16.983  0.1916  0.0226 -0.1802
61169W        W 4160   3.774  16.118  28.273 -0.0835 -0.1468 -0.5240
61170W        W 4161  34.786  26.245   4.596 -0.0908 -0.1081  0.0907
61171W        W 4162   3.836  21.969   3.472  0.1123 -0.2150 -0.0190
61172W        W 4163   9.731   1.061  28.580 -0.2790  0.1334 -0.1455
61173W        W 4164  33.162  21.013   2.651 -0.2705  0.0394 -0.3726
61174W        W 4165  29.345  26.629  28.087 -0.0650 -0.2149  0.1237
61175W        W 4166   8.660   7.165  16.768 -0.0979 -0.1885  0.0417
61176W        W 4167  31.539   5.040   8.066  0.0147  0.2525 -0.1181
61177W        W 4168  23.941  10.961  17.784 -0.1895 -0.0805  0.1761
61178W        W 4169  17.324  11.090  24.228 -0.1632  0.1153  0.0956
61179W        W 4170   1.330  24.924  25.507 -0.0888  0.1374  0.0853
61180W        W 4171  30.166  24.581   9.423  0.2265  0.2148 -0.2628
61181W        W 4172  11.024   9.999  10.876 -0.2786  0.0723 -0.1953
61182W        W 4173  26.746  19.378   2.560  0.0696  0.1007  0.1462
61183W        W 4174   2.318   6.448   2.456  0.4179  0.3531  0.1328
61184W        W 4175   1.242  32.336  21.643  0.0675  0.0157 -0.2209
61185W        W 4176  34.480  25.640  26.037 -0.3501 -0.1261 -0.0004
61186W        W 4177  19.140  20.298  25.516 -0.2251  0.1651 -0.1280
61187W        W 4178  11.231  31.381  10.239 -0.0669 -0.0922  0.1945
61188W        W 4179   3.143   9.824  26.281 -0.0217  0.3013 -0.2026
61189W        W 4180   7.492   8.403   7.412  0.1574  0.2893  0.0475
61190W        W 4181  29.729  24.015   6.557 -0.2978 -0.0473 -0.1800
61191W        W 4182   1.057   9.243   8.723  0.1272  0.2219  0.0419
61192W        W 4183  27.572  19.219   2.449 -0.0415 -0.2444 -0.0087
61193W        W 4184   8.282   7.979   9.711  0.0944  0.0383  0.0188
61194W        W 4185  23.914  19.072   5.759 -0.1577 -0.1548  0.0919
61195W        W 4186  34.060  10.232   8.486 -0.3084  0.3810  0.0767
61196W        W 4187  24.071  17.810   4.833 -0.0513 -0.2009 -0.1506
61197W        W 4188   2.788  14.226  24.407  0.0378  0.0799 -0.2896
61198W        W 4189  22.529  17.941  22.095  0.2198 -0.2681  0.0905
61199W        W 4190  34.158  21.992  23.390 -0.1964 -0.0008 -0.0495
61200W        W 4191  33.744  33.192   9.653  0.1611  0.0829 -0.1566
61201W        W 4192  33.964  22.432  10.051  0.1377 -0.2891  0.2961
61202W        W 4193   2.242   6.049   9.326 -0.1346 -0.0249 -0.1770
61203W        W 4194  31.698  12.504   5.860  0.4229  0.0155  0.0374
61204W        W 4195  34.351  14.295  11.908 -0.0190  0.2021 -0.1289
61205W        W 4196  31.090  16.154   9.832  0.0016  0.5089 -0.4665
61206W        W 4197   2.656  29.218   8.296 -0.3236  0.2218  0.4167
61207W        W 4198  28.217  26.491  24.719 -0.0985 -0.2368  0.0745
61208W        W 4199   5.017   4.454   2.555 -0.3020  0.0816  0.0045
61209W        W 4200  12.186  29.030  15.819 -0.3427 -0.0437  0.0541
61210W        W 4201  25.634  12.867   3.054 -0.3357  0.0401 -0.2172
61211W        W 4202  28.736  13.431   2.550 -0.0635  0.2199 -0.2337
61212W        W 4203  30.811  18.090  24.178  0.1554  0.3296 -0.0631
61213W        W 4204  17.275  15.839  27.168 -0.0505 -0.1847  0.0792
61214W        W 4205  34.791  21.479   3.342 -0.1266 -0.1344  0.1659
61215W        W 4206   0.135  11.308  27.695  0.4647 -0.1954 -0.1105
61216W        W 4207  12.677   3.618   3.554 -0.1120  0.2201  0.1788
61217W        W 4208   6.385  25.687   6.747 -0.1355  0.1051  0.0560
61218W        W 4209   3.665  16.924   9.970 -0.0649 -0.0398  0.0822
61219W        W 4210  13.645  15.075   6.515  0.1186 -0.1520 -0.0982
61220W        W 4211  32.782  18.851  22.329 -0.0308  0.1059  0.1574
61221W        W 4212  13.371  27.510  19.323  0.2736 -0.1515 -0.2504
61222W        W 4213   4.452  18.311   8.534 -0.4641  0.4221  0.2410
61223W        W 4214   8.949  25.008   8.747  0.4753 -0.1008  0.1688
61224W        W 4215  11.435  18.888  29.030  0.1236 -0.0228  0.1497
61225W        W 4216  12.095   0.442  24.334  0.4205 -0.0405  0.2040
61226W        W 4217   1.436  21.074   5.774  0.0638 -0.0950  0.0309
61227W        W 4218   1.839  29.409   7.940  0.2061 -0.1196  0.0958
61228W        W 4219   0.115  23.430  27.409  0.2181 -0.0005 -0.1780
61229W        W 4220  29.241  26.355   3.088 -0.3810 -0.0476 -0.2217
61230W        W 4221   2.939  24.652   4.731  0.0192  0.0623 -0.0532
61231W        W 4222  21.965  33.343  28.104 -0.1525  0.1113 -0.2681
61232W        W 4223   2.559  20.079   8.246  0.2911  0.1312 -0.0669
61233W        W 4224   5.442  22.044   7.447 -0.0270 -0.0969 -0.0771
61234W        W 4225  20.695  15.965  17.980  0.1137  0.3124 -0.0219
61235W        W 4226  10.250  12.461  21.075 -0.1214 -0.0517 -0.2385
61236W        W 4227   5.178   2.640  21.467  0.1082  0.1366  0.0688
61237W        W 4228   2.860   4.628  24.823  0.1420 -0.0247  0.1030
61238W        W 4229   2.556  21.596  18.965  0.0080  0.0508 -0.3796
61239W        W 4230   5.593  33.328  22.435 -0.1120  0.0578 -0.1343
61240W        W 4231  16.507   1.875   3.231 -0.0025  0.0473 -0.0735
61241W        W 4232  25.054  16.700   2.189 -0.2554  0.1469 -0.2419
61242W        W 4233  22.403  34.730   8.740 -0.0263  0.0370  0.0076
61243W        W 4234  34.772  14.982   5.533 -0.3592  0.4956  0.2327
61244W        W 4235   2.703  29.741   8.625  0.0423  0.1304 -0.1283
61245W        W 4236   7.649   9.580  19.865 -0.1545  0.1620 -0.2573
61246W        W 4237   1.841  24.040   0.927 -0.1296 -0.0750  0.3563
61247W        W 4238   7.494   2.564   5.072 -0.0113  0.0270  0.0399
61248W        W 4239  12.268  21.165  26.366 -0.3414 -0.0020 -0.0590
61249W        W 4240   9.849   7.104  21.036 -0.0808 -0.1633 -0.1625
61250W        W 4241  30.030  11.979  10.339  0.0745 -0.0775  0.2557
61251W        W 4242  32.866  17.219  26.226  0.0100 -0.3504  0.4749
61252W        W 4243  34.382  12.289   5.975 -0.0958 -0.0530 -0.2115
61253W        W 4244  25.504  26.067   3.139  0.0036 -0.1558 -0.0262
61254W        W 4245   5.683  21.505   2.910 -0.6013  0.1622  0.2949
61255W        W 4246  34.549  32.454   6.200 -0.0243 -0.0170 -0.1572
61256W        W 4247  29.073  14.706  28.871 -0.1168 -0.1084 -0.1812
61257W        W 4248  34.353  21.274   1.154  0.0457 -0.1194  0.0994
61258W        W 4249   6.146  24.553   9.535 -0.0249 -0.3085  0.2078
61259W        W 4250  28.564   0.566   2.065  0.1094  0.2713  0.1442
61260W        W 4251   3.514  30.371   3.717 -0.2004 -0.2546  0.0389
61261W        W 4252  22.687   3.989   8.243 -0.2278  0.3774 -0.3222
61262W        W 4253  33.463  33.486   1.074  0.1313 -0.0821  0.0720
61263W        W 4254   8.608  17.744  21.871 -0.1310 -0.0273 -0.1180
61264W        W 4255   2.626   5.912   8.238 -0.2179 -0.1340 -0.0484
61265W        W 4256   8.433  29.983   4.705 -0.2064 -0.2596  0.2856
61266W        W 4257  11.727  16.221  28.050 -0.1670  0.0857 -0.1287
61267W        W 4258   5.954  20.499   6.407  0.2703  0.0300 -0.0522
61268W        W 4259   4.984  30.785   6.495  0.0880 -0.1861  0.0469
61269W        W 4260  23.560   7.571  17.546 -0.0448  0.3080  0.2111
61270W        W 4261  23.494  30.464  23.188 -0.2961  0.0514 -0.2159
61271W        W 4262  19.083  31.371  28.993  0.0679  0.0999 -0.0088
61272W        W 4263   3.335  21.895   3.204 -0.1305 -0.0339 -0.1312
61273W        W 4264  19.873  25.609   4.774 -0.0380 -0.0379 -0.3757
61274W        W 4265  21.557  13.447   0.478  0.1263 -0.1312  0.0461
61275W        W 4266   5.147  27.054   8.467  0.1246  0.0343  0.0126
61276W        W 4267  31.600   5.053  23.132  0.0445  0.1685 -0.0253
61277W        W 4268  28.584  32.253  20.394 -0.1342  0.0139  0.1737
61278W        W 4269   9.472   1.907   2.223 -0.0376  0.1241 -0.0233
61279W        W 4270  20.045  23.156   7.132  0.3514  0.0133 -0.1457
61280W        W 4271  28.309   7.676  20.147  0.1157 -0.1117 -0.1965
61281W        W 4272   8.074  28.797   3.215 -0.1237  0.3764 -0.1672
61282W        W 4273  22.284  13.178   8.574 -0.1945  0.0850  0.0427
61283W        W 4274   8.304  24.236   0.071  0.0424 -0.0763  0.1980
61284W        W 4275  11.458  21.321   7.505  0.3059 -0.0916 -0.1031
61285W        W 4276   0.654  12.682   2.134  0.1783 -0.2828  0.1511
61286W        W 4277   1.677  20.766   6.266 -0.0318  0.1608 -0.3268
61287W        W 4278  34.207  14.676   8.776 -0.1293  0.0447 -0.1964
61288W        W 4279  22.115  10.935  19.746 -0.0484 -0.0562 -0.2652
61289W        W 4280   3.945  19.889   2.203 -0.2272 -0.1475 -0.0591
61290W        W 4281   2.477  26.323  27.575 -0.1482 -0.0842 -0.2348
61291W        W 4282  32.127  17.308   5.542  0.1507 -0.0908 -0.0196
61292W        W 4283  22.179  24.218   2.519 -0.3458  0.2281  0.0578
61293W        W 4284   6.419  28.517  27.292  0.1646 -0.0562 -0.0244
61294W        W 4285   5.857  22.777  26.448 -0.2678 -0.0740 -0.0423
61295W        W 4286  16.290  18.046   0.977  0.0309 -0.0400  0.2188
61296W        W 4287  11.012   8.380   5.968  0.2909  0.1126  0.1839
61297W        W 4288  31.026   7.739  28.780  0.0121  0.0910 -0.1648
61298W        W 4289  10.621   6.794  20.711 -0.0372  0.2415 -0.0595
61299W        W 4290   3.944  23.062  23.943  0.1868  0.0971  0.4718
61300W        W 4291  32.448  24.936   6.524 -0.0695 -0.0907 -0.0284
61301W        W 4292  20.065  12.225   0.943 -0.2805 -0.2376 -0.0889
61302W        W 4293   3.009   2.233  23.543 -0.1282  0.1089  0.2261
61303W        W 4294  21.831  14.835  22.286 -0.1739  0.1299  0.1982
61304W        W 4295  16.173  16.971   0.439 -0.2123  0.1532 -0.1406
61305W        W 4296  34.572   2.572  24.250  0.0425 -0.1068 -0.2421
61306W        W 4297   7.474  31.499   0.386 -0.0778 -0.3381  0.2405
61307W        W 4298   6.442   4.965   0.608  0.3245  0.4160 -0.1675
61308W        W 4299  22.208  29.817   6.335  0.0449  0.1329 -0.2080
61309W        W 4300  27.700  22.576   7.643  0.1450  0.0714  0.1149
61310W        W 4301   7.045   7.987  20.697  0.0204 -0.1770  0.0513
61311W        W 4302   0.274  15.167   8.824  0.0493  0.0093 -0.4337
61312W        W 4303  11.368  27.402  25.965 -0.2725 -0.0104 -0.0004
61313W        W 4304   2.488  11.371   7.164  0.2050  0.0170  0.3892
61314W        W 4305   9.680  13.391  25.016  0.2972 -0.0056 -0.1911
61315W        W 4306   5.176  20.798  23.599  0.1942  0.2055  0.1329
61316W        W 4307  16.733   3.353   1.307 -0.0753  0.0744  0.3783
61317W        W 4308   4.827  25.199  10.668 -0.2791 -0.1141  0.1523
61318W        W 4309  29.571   5.537   7.806 -0.1698  0.4070  0.1309
61319W        W 4310  29.449  31.166  18.794 -0.1598  0.2413  0.3151
61320W        W 4311   9.217  13.795   8.462 -0.2444 -0.1490  0.1110
61321W        W 4312  31.443  26.948  27.522 -0.1562 -0.1132 -0.0572
61322W        W 4313  19.898  12.369   0.496  0.1103  0.1809 -0.0861
61323W        W 4314  31.004  15.147   4.260 -0.0662  0.0587 -0.3311
61324W        W 4315   3.501  14.526   2.449 -0.4056  0.0312 -0.2274
61325W        W 4316  28.288  17.830   5.249  0.3925  0.1032 -0.0851
61326W        W 4317  14.975  12.764   5.880 -0.0608 -0.1732 -0.1338
61327W        W 4318  34.148  19.331  26.582  0.0238 -0.0426 -0.0177
61328W        W 4319  31.347  23.719  14.297 -0.0171 -0.3346 -0.1169
61329W        W 4320   9.141   6.412   2.481  0.0838 -0.0772 -0.3489
61330W        W 4321  23.447  26.860   5.245  0.3039  0.1964 -0.1788
61331W        W 4322   9.220   2.435   1.465 -0.2548  0.2463  0.0595
61332W        W 4323   5.260  21.145  28.638  0.1218  0.2854  0.1617
61333W        W 4324  11.359   6.262  15.885  0.1195 -0.0626  0.1144
61334W        W 4325  21.172  31.589   7.523  0.1201  0.2941 -0.0434
61335W        W 4326  29.098  22.443   5.332 -0.3619 -0.1503 -0.0975
61336W        W 4327  20.896  16.285  24.369 -0.2316  0.0462  0.0458
61337W        W 4328  12.070  33.987   3.150  0.0991  0.0037  0.1286
61338W        W 4329   4.695  30.495   7.255 -0.2718  0.3177 -0.1834
61339W        W 4330  28.482  15.226   8.489  0.0423 -0.2035  0.1584
61340W        W 4331   6.337  24.107  26.398  0.0832  0.3313 -0.0836
61341W        W 4332  25.979  25.249  25.511 -0.4176 -0.1703  0.2361
61342W        W 4333   1.431  25.908   0.025  0.0648  0.0624 -0.3739
61343W        W 4334  24.786   6.787  22.623  0.0348  0.1727  0.1130
61344W        W 4335  23.296  12.985   0.679  0.1372  0.0154  0.0732
61345W        W 4336  26.289  10.643   8.413  0.3094 -0.1989  0.0442
61346W        W 4337  24.400  18.668   9.429  0.0568 -0.1807 -0.0373
61347W        W 4338   2.133   0.040   1.734  0.1580 -0.0126 -0.0707
61348W        W 4339   1.436  21.678   5.896  0.1064  0.2801  0.0920
61349W        W 4340  11.799   5.482   3.294  0.0479  0.0999  0.0530
61350W        W 4341  30.632  25.455  24.685 -0.1425  0.2114 -0.0042
61351W        W 4342  31.496  20.499   9.472 -0.0221 -0.0277 -0.0476
61352W        W 4343  18.429   9.626  25.438  0.1270  0.1126  0.0274
61353W        W 4344  29.767   6.502   5.773  0.0290 -0.2635 -0.0041
61354W        W 4345  11.523  16.813   0.601 -0.0245  0.3813 -0.2680
61355W        W 4346   3.843  12.486   5.020  0.3966 -0.1515  0.0011
61356W        W 4347  24.530  26.500  23.502  0.3621  0.1452 -0.3332
61357W        W 4348  28.286  33.183  28.117  0.0343 -0.1988  0.1443
61358W        W 4349   8.626   3.415  25.764 -0.0844 -0.2065 -0.1846
61359W        W 4350   5.122  22.355   4.879 -0.1530  0.0805 -0.1468
61360W        W 4351   2.821  12.205   3.851  0.2299 -0.1716  0.0735
61361W        W 4352   9.780  11.790   5.148 -0.1437  0.1954  0.2174
61362W        W 4353  33.144   9.493   9.156  0.0594 -0.0889  0.1341
61363W        W 4354   5.169  33.084  10.742 -0.0670 -0.2143 -0.0982
61364W        W 4355  26.244  13.883   0.533 -0.1910  0.2712  0.3007
61365W        W 4356  34.263  23.021   0.374  0.2743 -0.0641  0.1000
61366W        W 4357   6.690  21.971   3.707 -0.3345 -0.1955  0.1118
61367W        W 4358  22.425  16.060   6.984  0.0571  0.0382  0.0767
61368W        W 4359   3.148  31.143  21.991  0.0878 -0.0604  0.2316
61369W        W 4360   0.329  20.322  21.182 -0.2637  0.0251 -0.2914
61370W        W 4361  25.253  14.378  28.930  0.4246 -0.0689  0.3488
61371W        W 4362  31.634  23.836   7.944  0.1865  0.0597  0.2498
61372W        W 4363  27.524  26.361  26.780  0.3974  0.1368 -0.3095
61373W        W 4364  29.214  27.189  26.828 -0.0263  0.0976  0.1902
61374W        W 4365   3.540  21.973  28.021 -0.1848 -0.1105 -0.5284
61375W        W 4366   3.738  18.168   4.790 -0.0072  0.1214  0.1432
61376W        W 4367  18.641  15.162   4.229  0.1063  0.1047  0.1295
61377W        W 4368  24.029  15.626   1.228 -0.1565  0.1770 -0.1390
61378W        W 4369  30.572  20.829   1.762 -0.1168 -0.1030 -0.1432
61379W        W 4370  33.856   9.716  22.293  0.1998  0.0150  0.1626
61380W        W 4371   2.900  33.152   4.019 -0.2153  0.1986  0.3574
61381W        W 4372  27.324  11.088  28.843 -0.2573  0.3591  0.0178
61382W        W 4373   5.819  16.919  29.092 -0.0653 -0.1891 -0.0799
61383W        W 4374   6.747   7.587  23.486 -0.0795  0.2590  0.0963
61384W        W 4375  34.138  12.259  24.214 -0.0427  0.3126  0.4452
61385W        W 4376  16.657   3.747  20.753  0.0362  0.0335  0.0900
61386W        W 4377  21.412  14.769  16.459 -0.1075 -0.1446  0.0712
61387W        W 4378  33.256  19.697   5.203  0.1464  0.2256  0.2597
61388W        W 4379  34.704  20.728   5.935  0.0333 -0.1053  0.1410
61389W        W 4380   6.163  21.135   2.674  0.2576 -0.1378 -0.3286
61390W        W 4381   4.268  13.588   1.112  0.1499 -0.3478 -0.0422
61391W        W 4382  31.240   6.078  20.516 -0.0479  0.1700  0.0680
61392W        W 4383  23.689  14.772  28.939 -0.2502  0.1660 -0.1183
61393W        W 4384   1.079  22.609   9.545  0.1448 -0.1045 -0.0650
61394W        W 4385  28.748  17.862   3.294 -0.3282  0.1440  0.1231
61395W        W 4386  27.532   9.007   8.082 -0.2861 -0.1374 -0.2579
61396W        W 4387   2.912  11.251  28.922 -0.0511 -0.4034  0.0982
61397W        W 4388  11.720  26.500   2.455  0.2476 -0.2306 -0.0593
61398W        W 4389  26.956  18.054  22.388  0.6031 -0.2318  0.2973
61399W        W 4390   2.537  23.364  15.749  0.2664  0.1152 -0.3572
61400W        W 4391  23.269   8.318   8.646 -0.3687 -0.0959  0.0308
61401W        W 4392   2.425  19.057   1.983 -0.2591 -0.0590 -0.2402
61402W        W 4393   2.838  28.723  20.377 -0.1064  0.1365  0.0331
61403W        W 4394   3.884   0.261  28.036 -0.0136 -0.2263 -0.0287
61404W        W 4395  24.561  15.466   4.013 -0.1286 -0.0316 -0.0588
61405W        W 4396  12.684  11.890   2.410  0.3341 -0.1006 -0.0199
61406W        W 4397  26.897  11.061   1.605 -0.1400 -0.2284  0.0323
61407W        W 4398  27.173   8.175  27.520  0.3570 -0.0752  0.1525
61408W        W 4399   0.925  13.082  21.541 -0.1274 -0.3995  0.1129
61409W        W 4400   6.220  12.063  28.867  0.3767 -0.0929  0.3115
61410W        W 4401  31.579  18.867   4.777  0.1613 -0.0240 -0.0486
61411W        W 4402   2.222  17.959  25.273 -0.0386  0.1941  0.1945
61412W        W 4403  23.476  32.350  21.576  0.0348  0.1452  0.0242
61413W        W 4404  31.944  13.348  28.797  0.1991 -0.3446 -0.1490
61414W        W 4405  13.541  20.873   4.613  0.0884  0.0357 -0.1576
61415W        W 4406   1.858  13.966   8.021 -0.0667 -0.4638  0.0343
61416W        W 4407  15.386  33.023  26.782  0.3577  0.0675 -0.1716
61417W        W 4408  33.129  11.035  20.178 -0.0266 -0.1908  0.2127
61418W        W 4409  23.868   7.555  25.929 -0.5285  0.0133 -0.1101
61419W        W 4410  33.937  30.715  21.537  0.0698 -0.5044  0.0169
61420W        W 4411   8.306  23.663  18.650  0.0206  0.1266 -0.1141
61421W        W 4412  33.977  28.725  23.980  0.1246 -0.0786 -0.1479
61422W        W 4413   4.183  15.189   2.265 -0.3232  0.2411  0.1691
61423W        W 4414  14.761  24.100   6.500  0.1806 -0.0117 -0.0763
61424W        W 4415   8.791  17.815  20.164 -0.2084 -0.0728  0.1547
61425W        W 4416   8.218  24.716  18.910 -0.3495  0.0830  0.1190
61426W        W 4417   3.534  19.132   1.389 -0.1754 -0.3631 -0.3055
61427W        W 4418   6.061  23.530  21.801  0.0621  0.0616  0.3301
61428W        W 4419  24.644   5.642   6.660 -0.0993 -0.2644  0.2849
61429W        W 4420  19.309  22.258   9.363 -0.0241  0.0070 -0.1857
61430W        W 4421  33.621   7.887  20.600 -0.0468 -0.2170  0.0780
61431W        W 4422  16.823  27.648   4.474 -0.1359 -0.5397 -0.2827
61432W        W 4423  21.160  17.832   3.475  0.0221  0.1572  0.1528
61433W        W 4424  25.011  29.456   4.935 -0.0378  0.4483  0.1725
61434W        W 4425  30.280  20.501   0.257 -0.2734 -0.4972 -0.3659
61435W        W 4426  31.681  28.257  15.097 -0.0789  0.0288  0.1516
61436W        W 4427  20.896   2.248   2.231 -0.1659  0.1479 -0.0190
61437W        W 4428  10.244  22.070   8.031  0.1494 -0.0471 -0.0651
61438W        W 4429  20.321  23.236  21.661 -0.0308 -0.2516  0.1470
61439W        W 4430   2.830  19.710  24.660  0.3336  0.2819 -0.1472
61440W        W 4431   0.642  10.364   0.312 -0.0717  0.1730 -0.0554
61441W        W 4432  23.448  19.150   8.610  0.2220 -0.0206 -0.0267
61442W        W 4433  31.251  22.216  26.019 -0.3367  0.2394  0.2081
61443W        W 4434  28.391  11.050   2.736 -0.0069  0.0350  0.3451
61444W        W 4435   6.805   9.711   8.062  0.1582 -0.2401 -0.1004
61445W        W 4436  24.329  14.669   3.825  0.1788  0.0033 -0.0690
61446W        W 4437   4.611  13.667  11.458  0.1515  0.0044  0.1228
61447W        W 4438  10.169  28.114  27.741 -0.1724  0.0066  0.0930
61448W        W 4439  14.831  12.912   1.332 -0.0401 -0.0404 -0.0319
61449W        W 4440  34.491  19.957  19.600 -0.1059  0.3106  0.0961
61450W        W 4441   7.339  33.038   5.491  0.1375 -0.0288 -0.1338
61451W        W 4442  22.121  13.484  22.821  0.1356 -0.2088 -0.0289
61452W        W 4443   0.682  15.685  10.181  0.1200 -0.2571 -0.3092
61453W        W 4444  15.475  16.738   1.740 -0.3054 -0.0616 -0.4967
61454W        W 4445   4.838  14.335   8.588 -0.0768  0.2159  0.0831
61455W        W 4446   9.266  25.885  23.168 -0.0446  0.1716 -0.0797
61456W        W 4447  30.773  34.749   3.539 -0.2757 -0.1884  0.2125
61457W        W 4448  30.950  24.329   5.952  0.0068 -0.1375  0.3440
61458W        W 4449  31.757  17.846  25.177 -0.2763 -0.0949  0.2919
61459W        W 4450  17.759  24.369  28.890 -0.2214  0.0680 -0.3410
61460W        W 4451   0.671  14.632  15.763 -0.1784 -0.2411 -0.1672
61461W        W 4452  13.210  19.153  21.126 -0.0709 -0.0086  0.0441
61462W        W 4453   9.542  25.016   4.382  0.0412 -0.0369 -0.0176
61463W        W 4454  25.465  14.424   4.334 -0.3501  0.0166  0.2278
61464W        W 4455  27.507  17.206   9.997  0.0261  0.1299 -0.3247
61465W        W 4456   7.518  14.943   8.666  0.1313 -0.0799 -0.2322
61466W        W 4457   7.500   9.858   5.577  0.1935 -0.1697  0.0813
61467W        W 4458   1.209  23.033   7.900  0.2699  0.2900  0.0181
61468W        W 4459  34.504  25.814   3.715  0.1750  0.0277  0.0471
61469W        W 4460  32.065  24.957  27.479 -0.0020  0.1852  0.2789
61470W        W 4461  28.509  17.707  19.558 -0.0321  0.1350  0.0215
61471W        W 4462  10.979  20.042   9.505  0.2878 -0.2753  0.2443
61472W        W 4463  27.955  23.466  21.714 -0.1861  0.2387  0.1393
61473W        W 4464  12.177  14.993   5.944  0.2875  0.2182 -0.0624
61474W        W 4465  29.719  14.409   7.419 -0.0055  0.1966  0.0195
61475W        W 4466   8.902  20.452  10.515 -0.3396  0.0603 -0.0796
61476W        W 4467   2.856  19.572   9.694  0.2497  0.3399 -0.2271
61477W        W 4468   2.803  11.629   9.712  0.2412 -0.0131  0.0642
61478W        W 4469  10.516  17.466   3.426 -0.1688  0.2275 -0.0318
61479W        W 4470  26.739  11.965  28.795  0.3339 -0.0725  0.0963
61480W        W 4471   3.629   9.429  11.147 -0.3249 -0.1099  0.1788
61481W        W 4472   9.887   6.724   3.170 -0.0032 -0.4111  0.0106
61482W        W 4473  27.117  17.912   5.823 -0.2322  0.2579 -0.1489
61483W        W 4474   4.155  23.805   2.689  0.2026 -0.1587  0.1071
61484W        W 4475   8.642  19.565   5.568  0.0478  0.3325 -0.0627
61485W        W 4476   3.548  15.752   8.649  0.4425 -0.1983  0.0212
61486W        W 4477  24.683  20.056  25.936 -0.0732 -0.0515  0.0757
61487W        W 4478  32.996  23.300  26.649  0.0712  0.0197 -0.1579
61488W        W 4479  22.760  15.927   7.325 -0.0096  0.3268  0.0253
61489W        W 4480   4.829  26.300   2.360  0.0849  0.0682  0.3978
61490W        W 4481   6.466  18.971   4.898  0.1539 -0.2498  0.0626
61491W        W 4482  31.462  22.741   5.946  0.3114  0.1433 -0.2897
61492W        W 4483   8.921  21.275   7.125  0.0481  0.1845 -0.3669
61493W        W 4484   5.264  27.179   9.339 -0.4153 -0.0961  0.0718
61494W        W 4485  28.070  12.068  26.747  0.2519 -0.2637 -0.0982
61495W        W 4486   2.907   9.177  10.438  0.1751 -0.0272 -0.2905
61496W        W 4487  14.130   9.938  23.692 -0.0849 -0.0995  0.1632
61497W        W 4488  34.196  17.839  10.506 -0.1267 -0.1610 -0.0687
61498W        W 4489  31.663  12.072  25.981  0.1960  0.0998 -0.0930
61499W        W 4490  29.128   7.218  27.559  0.2265  0.0354  0.0546
61500W        W 4491   5.196   8.250   8.835 -0.3180 -0.4029 -0.4570
61501W        W 4492  25.911   6.009   1.464 -0.1087  0.0906 -0.2390
61502W        W 4493   0.964  22.517   5.206  0.1101  0.2205  0.2302
61503W        W 4494   5.703   9.331   6.618 -0.3006  0.0103  0.1449
61504W        W 4495   7.417  22.215   8.698 -0.0276  0.1179  0.0250
61505W        W 4496  24.931   5.782   8.054 -0.0558  0.0960 -0.2000
61506W        W 4497  23.922  21.381   5.457 -0.2366 -0.1761  0.0003
61507W        W 4498   5.849  14.683   9.647  0.1025  0.1059 -0.2351
61508W        W 4499  34.159  10.272  21.858  0.0329 -0.0541 -0.2128
61509W        W 4500   1.404  22.649  26.016  0.0562  0.0766 -0.2175
61510W        W 4501   0.315  23.401   6.837 -0.1112  0.0500 -0.1884
61511W        W 4502  28.405   5.924  24.700 -0.0427  0.2392  0.2245
61512W        W 4503  14.634  25.979  28.903 -0.0488  0.0235  0.0790
61513W        W 4504  31.617  19.745  24.856 -0.0330 -0.2449 -0.3265
61514W        W 4505  30.750  14.691  21.140  0.4264  0.2375 -0.0565
61515W        W 4506  33.345  18.215   3.991  0.1674  0.1233 -0.0236
61516W        W 4507   0.837   2.569   0.592 -0.0897  0.0802  0.0775
61517W        W 4508   3.261  27.440   7.149 -0.2283  0.1951  0.2157
61518W        W 4509  12.712   6.226  25.258  0.1760 -0.0576 -0.0143
61519W        W 4510   9.506   4.091   3.628 -0.1118  0.1179  0.0089
61520W        W 4511  14.107  10.036  27.069 -0.2415  0.1555 -0.2749
61521W        W 4512  30.253  22.308   6.030 -0.4915  0.1214  0.1268
61522W        W 4513  21.708   7.979   2.385 -0.2053 -0.3497  0.0481
61523W        W 4514  10.663  21.675   8.704  0.2651  0.2278  0.0564
61524W        W 4515  30.957   5.687   4.195 -0.6790  0.0768  0.0036
61525W        W 4516   1.075  17.324   7.257  0.2300 -0.1176 -0.0284
61526W        W 4517  33.339  12.353  20.198 -0.0911  0.2960 -0.1503
61527W        W 4518   4.959  24.319   4.866  0.2007 -0.1034 -0.1611
61528W        W 4519  28.340  20.527  16.933  0.1063  0.3232 -0.2274
61529W        W 4520   6.382  27.468   6.346  0.0874  0.0349 -0.0479
61530W        W 4521   1.913  22.060   5.936  0.1844 -0.1283  0.0815
61531W        W 4522  29.140   4.724  28.109  0.0177 -0.2668  0.0491
61532W        W 4523   1.091   4.718   3.468  0.2291 -0.2586 -0.3800
61533W        W 4524   9.595  11.708   3.566  0.1044  0.0377 -0.1890
61534W        W 4525  25.249  28.428   4.510  0.3073  0.2831  0.1682
61535W        W 4526  31.491  12.812   6.149  0.0615  0.2990  0.0343
61536W        W 4527   4.579  10.867  21.563 -0.1840  0.0103 -0.0640
61537W        W 4528   3.753  33.547   7.336 -0.2145  0.1109  0.0570
61538W        W 4529   1.340  21.196   7.727 -0.1073 -0.0128  0.0317
61539W        W 4530   3.376  18.662  28.770  0.1312  0.1723  0.1761
61540W        W 4531  19.693   3.124  28.717 -0.0611 -0.1582 -0.1361
61541W        W 4532  33.241  19.478   8.057  0.1425  0.1563  0.1227
61542W        W 4533   1.561  29.090   8.336  0.2378  0.1302 -0.0180
61543W        W 4534  34.683  31.674  28.982 -0.1762 -0.4471  0.1694
61544W        W 4535   1.887   5.684   9.088  0.0440 -0.2583  0.0441
61545W        W 4536   1.523   1.698  23.925  0.2888 -0.1267  0.0667
61546W        W 4537   3.040  17.586   7.122  0.0530 -0.0397 -0.0366
61547W        W 4538  32.866  17.572   2.395 -0.0943 -0.1274  0.0363
61548W        W 4539  12.852   9.689   6.246  0.4024  0.0202 -0.0289
61549W        W 4540  11.261   7.737   7.452 -0.2361  0.1043 -0.2781
61550W        W 4541   7.864  28.575   2.679  0.1630 -0.3373  0.0730
61551W        W 4542   0.166   9.249  24.699  0.1938 -0.0058 -0.3216
61552W        W 4543  10.913  23.117  29.239  0.0343 -0.1548 -0.1082
61553W        W 4544  25.374  23.186   1.978 -0.0783 -0.0908  0.0062
61554W        W 4545   9.622  12.997  10.952  0.2028  0.1214  0.1576
61555W        W 4546   0.619  24.164  26.965 -0.2641 -0.0114  0.1041
61556W        W 4547   9.038   3.629  26.718  0.0820  0.1462  0.2270
61557W        W 4548   4.210  33.309   4.783  0.0474 -0.1820  0.0273
61558W        W 4549  33.550  17.802   7.363 -0.0123  0.1866  0.2609
61559W        W 4550  12.752  28.269   7.402  0.1367 -0.1856  0.0647
61560W        W 4551   9.534  28.532   4.294 -0.2586 -0.2065 -0.0523
61561W        W 4552  11.921  29.166   5.997  0.1210 -0.2083 -0.0527
61562W        W 4553   5.812  17.681  27.189  0.3167 -0.1303  0.1796
61563W        W 4554   9.454  26.567   2.276 -0.0116  0.0526 -0.2852
61564W        W 4555  19.606  19.759  26.676 -0.1497  0.5284 -0.2039
61565W        W 4556   6.157  20.177   5.447  0.2577 -0.0053 -0.1017
61566W        W 4557  30.058  11.454   8.017  0.1943 -0.1706  0.1720
61567W        W 4558   9.263  26.906   2.524 -0.4188  0.1920  0.1851
61568W        W 4559   1.454  13.070  26.622 -0.2033 -0.2429  0.1958
61569W        W 4560  22.216  23.483   4.766 -0.1098  0.1776  0.3143
61570W        W 4561  34.689   5.478  21.902  0.6584  0.0777  0.0680
61571W        W 4562  11.045  28.050   2.870  0.1446 -0.1815  0.2371
61572W        W 4563   8.817  12.565   1.303  0.1991 -0.0462  0.1628
61573W        W 4564  15.033  15.884  28.256 -0.1250 -0.0189 -0.1382
61574W        W 4565   0.758  19.181  18.529 -0.0325 -0.3301 -0.3603
61575W        W 4566   9.591  26.057   8.338 -0.0407  0.3999 -0.1559
61576W        W 4567  13.977   3.658   6.703  0.1620 -0.1387 -0.0168
61577W        W 4568   4.117   8.300   7.992 -0.0617 -0.0163  0.2210
61578W        W 4569  13.508  25.437  17.013  0.1303 -0.2348 -0.1327
61579W        W 4570   7.522  20.422   5.517 -0.3095 -0.1797 -0.1352
61580W        W 4571   1.893   5.484   4.639  0.1307  0.0501  0.2363
61581W        W 4572  16.810  23.939   0.926  0.4025  0.1646  0.2516
61582W        W 4573  23.970  24.541   4.878  0.0400  0.0668  0.1177
61583W        W 4574  26.370  23.838  10.005 -0.0678 -0.0928  0.0773
61584W        W 4575  32.615  32.071   6.883 -0.0604 -0.1866  0.1888
61585W        W 4576   0.827  24.629   9.041 -0.3918  0.2320 -0.1632
61586W        W 4577   6.233  21.788   0.671  0.1741  0.0722 -0.0680
61587W        W 4578   5.356  19.810  24.085  0.0311  0.0212 -0.0266
61588W        W 4579   2.133  17.902  11.581 -0.0378  0.1163  0.4185
61589W        W 4580  22.872  23.160   8.193 -0.0488 -0.0655  0.0940
61590W        W 4581  16.915  33.565   0.121 -0.3614 -0.1006 -0.1796
61591W        W 4582  14.980  32.603   9.986  0.3636  0.2239  0.1477
61592W        W 4583   4.015  19.461   7.160 -0.3187 -0.3386  0.0122
61593W        W 4584  31.085  24.226  26.800  0.0878 -0.1591 -0.2167
61594W        W 4585   3.382  12.936   4.034  0.1124  0.0496  0.2152
61595W        W 4586   1.063  16.692   6.769 -0.0271  0.4831 -0.2881
61596W        W 4587  32.527  19.469   7.146 -0.3914  0.0218 -0.0260
61597W        W 4588  23.723  33.065   5.188  0.0161 -0.1728 -0.1276
61598W        W 4589   8.314   8.012   3.195 -0.0570 -0.1468  0.2976
61599W        W 4590  14.042  25.062   9.756 -0.0899  0.0360 -0.2922
61600W        W 4591  18.269  10.445  21.799  0.1605 -0.1713  0.1948
61601W        W 4592  31.956  18.754  28.248 -0.0668  0.0586  0.0911
61602W        W 4593  23.014   3.426   2.356  0.0932  0.3657 -0.1836
61603W        W 4594   1.180  20.010  18.586 -0.1466 -0.0405  0.3740
61604W        W 4595  34.190  21.261  10.474  0.0406  0.0824 -0.2341
61605W        W 4596   6.107  22.653  10.006  0.2723  0.0629 -0.2845
61606W        W 4597   0.003  25.712  26.432  0.1816 -0.0668 -0.0392
61607W        W 4598  11.025  17.819   6.166 -0.0793  0.2246 -0.0995
61608W        W 4599  27.481  14.725   4.584  0.2523 -0.1593 -0.0578
61609W        W 4600   7.023  22.901  10.126 -0.0687 -0.0504 -0.2575
61610W        W 4601  16.869  25.223   6.916 -0.0494  0.0144  0.0855
61611W        W 4602  13.699  14.804   7.031  0.1701 -0.0373 -0.0502
61612W        W 4603  14.589  27.531   6.431 -0.1407  0.0518 -0.1809
61613W        W 4604  11.765  21.576   6.244  0.0461 -0.0193  0.1450
61614W        W 4605  13.253   7.308   7.977  0.0501  0.0164  0.0818
61615W        W 4606  30.134   8.759  20.161 -0.1658 -0.2920 -0.1389
61616W        W 4607   2.734  16.543  28.778 -0.0146  0.1492  0.3303
61617W        W 4608   6.405  16.744   6.351 -0.2061 -0.0803  0.0844
61618W        W 4609   2.898  20.848   4.111  0.0907 -0.1141 -0.4038
61619W        W 4610  16.403  25.673  23.380  0.0513  0.2895 -0.1195
61620W        W 4611   8.657  22.545  26.069  0.2566  0.1614  0.1396
61621W        W 4612   6.173  15.239   9.428  0.0847  0.4264  0.1309
61622W        W 4613  33.347  28.478  21.180 -0.0281  0.3715 -0.0982
61623W        W 4614  30.516  17.453   8.642 -0.4603  0.3111  0.0362
61624W        W 4615   3.577  14.625   5.616  0.0532  0.0640 -0.2514
61625W        W 4616   9.922  13.908  23.256 -0.2752 -0.3154 -0.2553
61626W        W 4617  20.980  20.812   7.010 -0.3658 -0.0618  0.0227
61627W        W 4618  31.781  15.724   8.073 -0.0800  0.0972 -0.1218
61628W        W 4619  33.798  31.933  19.633 -0.2708 -0.2352  0.2189
61629W        W 4620   3.565   9.638  19.965 -0.1862  0.0360 -0.0960
61630W        W 4621  29.094   8.716  22.135 -0.0004 -0.0662 -0.2102
61631W        W 4622  33.821  32.619   0.723  0.3259 -0.1278  0.4598
61632W        W 4623  33.065  17.876   8.618  0.2928 -0.0463  0.2337
61633W        W 4624   1.349  33.041  25.968 -0.2179  0.2407  0.1226
61634W        W 4625   6.332  14.763  28.854 -0.0669 -0.0244 -0.2094
61635W        W 4626  17.810  10.368   9.540  0.0273 -0.2339 -0.2082
61636W        W 4627  25.721  16.018   1.235 -0.1147 -0.1361 -0.1830
61637W        W 4628  19.333  12.945  26.664  0.2389 -0.1415 -0.2715
61638W        W 4629   9.589   7.130  24.210  0.1625 -0.3151  0.0919
61639W        W 4630  22.261   9.334   5.806 -0.2164  0.2005  0.2850
61640W        W 4631   7.338  31.841   9.222 -0.0188 -0.1212  0.2013
61641W        W 4632  25.533  12.563   4.584 -0.0623 -0.0473  0.0489
61642W        W 4633   6.745   3.095   3.682  0.2199 -0.0579  0.1282
61643W        W 4634  25.412  22.042   1.097 -0.0059  0.0379  0.0025
61644W        W 4635   6.253  19.534  28.189  0.0065  0.2199  0.0416
61645W        W 4636  30.037  12.369   2.265 -0.2932 -0.1048 -0.1983
61646W        W 4637  20.575  16.979  27.524  0.1605 -0.1668 -0.2064
61647W        W 4638  30.308  25.097   6.182  0.2205 -0.0235  0.0849
61648W        W 4639   9.589   3.942  25.309  0.0412  0.0463  0.0569
61649W        W 4640   3.267  16.557   6.419 -0.1929  0.1364 -0.1472
61650W        W 4641  14.846  28.640  19.767  0.0962  0.0980 -0.0653
61651W        W 4642  23.336  20.623   0.408 -0.6977  0.2861  0.3189
61652W        W 4643  33.242  27.764   7.510  0.1547  0.0745  0.0920
61653W        W 4644  33.110  13.650   5.907  0.3473 -0.0513 -0.0001
61654W        W 4645   0.195  22.174   0.884  0.0052  0.0519 -0.2208
61655W        W 4646  32.851  21.826  22.029  0.0512 -0.2165 -0.1687
61656W        W 4647  25.189  18.250   5.007  0.2494 -0.2018  0.0162
61657W        W 4648  23.987   3.124   0.887  0.1775  0.1471  0.4739
61658W        W 4649  10.005  17.369   5.608 -0.1077 -0.2920 -0.1848
61659W        W 4650   1.578  13.472   0.719 -0.1952 -0.0015  0.1241
61660W        W 4651  30.257  19.534   1.217 -0.1550 -0.1495  0.0054
61661W        W 4652  26.365  11.150   2.591  0.1192  0.1489 -0.0446
61662W        W 4653   2.389  31.997   9.302 -0.0460 -0.1507 -0.0931
61663W        W 4654  20.410  10.450   7.953  0.0719  0.0209  0.1433
61664W        W 4655  14.065  26.803   1.488  0.0612 -0.0780 -0.0310
61665W        W 4656  20.876  30.062  25.481 -0.0651 -0.0255  0.3999
61666W        W 4657   4.018  24.591   0.374  0.2743 -0.0157  0.0469
61667W        W 4658  28.202  22.529   4.873 -0.0344 -0.2266  0.0860
61668W        W 4659  16.055  15.497   3.524  0.1085  0.0600 -0.1770
61669W        W 4660   9.810  29.463  28.895 -0.1257  0.0948 -0.0954
61670W        W 4661  31.879   2.457   8.540  0.0540  0.0375 -0.1399
61671W        W 4662  17.841  11.914  28.810  0.2192  0.2951  0.1520
61672W        W 4663  10.496  18.366   5.591 -0.3511  0.2580  0.0926
61673W        W 4664   5.105  14.205  15.858 -0.1124  0.0754 -0.1758
61674W        W 4665  21.712  17.147  22.595  0.0092  0.1527  0.2748
61675W        W 4666  34.127  24.716  18.690 -0.2683  0.0817  0.2124
61676W        W 4667  20.903  17.343  26.761  0.0474 -0.1144  0.1241
61677W        W 4668  23.691  24.444  26.775 -0.0967 -0.2046 -0.2882
61678W        W 4669  15.618  13.415  23.143  0.2775  0.0323 -0.2831
61679W        W 4670   1.158   9.215   7.837  0.1257 -0.0684 -0.2408
61680W        W 4671  33.882  13.996   5.881  0.1206  0.0842 -0.1502
61681W        W 4672   2.767   0.186   5.261  0.2519  0.1018 -0.0016
61682W        W 4673  28.999   2.387   0.313 -0.0189  0.1279  0.1647
61683W        W 4674  11.089  20.280  10.360  0.2435  0.2185  0.2396
61684W        W 4675  24.562  18.463   0.587  0.1032  0.2932 -0.0111
61685W        W 4676   2.314  24.032   0.503 -0.0553  0.0469  0.1858
61686W        W 4677  14.094   5.754   6.576  0.2864  0.1482 -0.3557
61687W        W 4678  13.044  26.823   2.147  0.3300  0.4309  0.2605
61688W        W 4679  15.695  24.412   6.333  0.1177  0.0761  0.0169
61689W        W 4680  10.824   6.789   3.828  0.2203  0.0373 -0.2300
61690W        W 4681  10.001  14.050   3.665  0.1826  0.0804 -0.0157
61691W        W 4682   5.240   6.352   8.944 -0.0910  0.2410  0.0895
61692W        W 4683   4.195   1.812   0.936 -0.2083 -0.2377 -0.0202
61693W        W 4684  24.987  26.636   8.474  0.0728  0.0878 -0.0128
61694W        W 4685  29.944  28.815  18.586 -0.1119 -0.0079 -0.0909
61695W        W 4686  33.331  10.316  26.569 -0.1284  0.3202 -0.0074
61696W        W 4687   4.477  18.092   2.708 -0.2865  0.1947  0.0370
61697W        W 4688   4.378   3.538   0.295  0.4947 -0.0252 -0.2340
61698W        W 4689   2.204  29.483   8.283  0.0348 -0.1369  0.2876
61699W        W 4690   9.496  16.854   7.591  0.1528 -0.2067 -0.0421
61700W        W 4691   0.694  15.597   8.015  0.2966 -0.2285  0.1914
61701W        W 4692  22.571   2.062   4.194  0.2182  0.2879 -0.0878
61702W        W 4693   0.877   8.013   4.788 -0.0293 -0.2319 -0.1141
61703W        W 4694   5.499  29.479   9.157 -0.0311 -0.2442  0.0587
61704W        W 4695   1.244   9.103   2.325 -0.1154  0.0221 -0.4574
61705W        W 4696   5.429  27.497  23.414  0.1450 -0.0614 -0.0189
61706W        W 4697   6.967  24.538   1.719 -0.3627  0.0132 -0.0580
61707W        W 4698  26.705  17.260   6.788 -0.1010  0.1632 -0.0437
61708W        W 4699  25.051  32.276  28.323  0.0432  0.2215 -0.4370
61709W        W 4700   2.636  21.064  24.742  0.2121  0.1747 -0.0163
61710W        W 4701   3.800  17.537  10.906  0.1464 -0.0948  0.0017
61711W        W 4702  11.705  34.616   8.676  0.1042  0.1249 -0.2318
61712W        W 4703  10.190  23.618   8.618  0.0178 -0.1283 -0.0671
61713W        W 4704   0.299   4.856  20.829  0.2469  0.0562  0.1509
61714W        W 4705  21.633  11.153   8.342 -0.1727 -0.0334 -0.2953
61715W        W 4706  18.207   3.149  24.999  0.2130  0.0145  0.1390
61716W        W 4707  12.626  22.546   0.270 -0.1233  0.0798 -0.0379
61717W        W 4708   9.388  16.298   4.750 -0.1287 -0.2302 -0.0500
61718W        W 4709  34.750  11.686  22.892  0.4336  0.2037  0.0236
61719W        W 4710   8.211   2.649   7.639  0.3321 -0.3682 -0.2860
61720W        W 4711   3.775  16.368  10.100 -0.0032 -0.0713  0.1027
61721W        W 4712  33.332   0.085   4.983  0.0159 -0.1988  0.2431
61722W        W 4713   4.960  15.178  10.434  0.2073  0.1772  0.1479
61723W        W 4714   8.193  20.149   1.334 -0.2809 -0.2650 -0.0703
61724W        W 4715   5.949  25.237   6.058  0.0574 -0.0715  0.1246
61725W        W 4716   6.931  19.208   2.918  0.1846 -0.1983  0.0171
61726W        W 4717   4.343  18.756  10.537  0.2329 -0.0550  0.0769
61727W        W 4718   2.288  21.621   7.409 -0.0444 -0.1279 -0.0430
61728W        W 4719  34.166  17.429   8.855 -0.1074  0.2324  0.1575
61729W        W 4720  24.164  19.223   1.868 -0.0531  0.0126  0.1844
61730W        W 4721   8.023   7.896   7.037  0.3332  0.0284  0.0811
61731W        W 4722  26.358  30.218   6.024  0.3401  0.1259  0.1859
61732W        W 4723  29.326  16.322   4.238 -0.1630 -0.0239  0.1606
61733W        W 4724  19.518  23.082   6.244  0.2317  0.3422  0.0442
61734W        W 4725  28.405  10.957  28.257 -0.2253 -0.3656 -0.4843
61735W        W 4726  31.558   7.866  28.285  0.0669 -0.0002 -0.2689
61736W        W 4727   5.526  13.135   1.896  0.2138  0.1727  0.1679
61737W        W 4728  34.261  15.892  11.078  0.2418 -0.1216 -0.0992
61738W        W 4729  24.196  20.525   5.308  0.1372 -0.2226  0.2246
61739W        W 4730  14.559  21.938  23.416  0.0120  0.1732  0.0713
61740W        W 4731   9.429  28.943   4.555 -0.0895  0.0507 -0.2280
61741W        W 4732  22.251  20.052  21.138 -0.0194  0.0729 -0.2715
61742W        W 4733  12.627  19.400   4.548 -0.0655 -0.3844 -0.4607
61743W        W 4734  19.963  21.787   8.030 -0.1254 -0.3514  0.0236
61744W        W 4735  17.148   9.633   9.676  0.0159  0.2034 -0.1987
61745W        W 4736  21.758  19.683   5.510  0.0751 -0.0277 -0.0417
61746W        W 4737  32.008  28.540   6.977 -0.3047  0.1947  0.3807
61747W        W 4738  18.856  21.801   3.191 -0.2089  0.1385 -0.0095
61748W        W 4739  28.333  10.536   1.924  0.1616 -0.3279 -0.4343
61749W        W 4740  22.176   7.408   9.419 -0.2223  0.1000 -0.1441
61750W        W 4741  33.856   5.070   2.361 -0.0574  0.0438  0.1927
61751W        W 4742   9.423  25.119  26.935 -0.3244  0.0423 -0.0241
61752W        W 4743   3.119  26.878  21.728 -0.0049  0.0918 -0.2797
61753W        W 4744   1.873  34.480   5.313  0.2756 -0.2335 -0.1485
61754W        W 4745  30.416   8.349   3.724  0.0992 -0.0469  0.2208
61755W        W 4746  34.414  16.848   8.907  0.3253 -0.1283 -0.1851
61756W        W 4747   9.673  15.967  26.017  0.1120 -0.1085 -0.3251
61757W        W 4748  28.570  21.745   1.276 -0.1626 -0.0303 -0.0679
61758W        W 4749   5.864  17.838  10.583 -0.2027 -0.1456 -0.0895
61759W        W 4750  20.227  14.902  29.033  0.1433  0.1692  0.0288
61760W        W 4751   2.713  13.259   3.635 -0.0652  0.1501  0.1164
61761W        W 4752  26.901  28.230  22.633 -0.3188  0.0696 -0.2671
61762W        W 4753  26.427  22.286   1.448 -0.0393 -0.4166 -0.0765
61763W        W 4754  14.063   6.157  28.729 -0.0274  0.1919  0.0885
61764W        W 4755   4.268  27.697   8.596 -0.1628 -0.1060  0.1039
61765W        W 4756   3.695  24.018  21.500 -0.3910  0.3001 -0.0013
61766W        W 4757  33.628  10.186  10.447  0.0946  0.0975 -0.2027
61767W        W 4758   2.616  13.839   2.996 -0.1075 -0.2095 -0.0026
61768W        W 4759  27.275  27.463   8.663 -0.0080  0.3029 -0.0944
61769W        W 4760   6.726  31.213   6.962  0.1088 -0.0833  0.0498
61770W        W 4761  30.568  33.946   6.679  0.2712 -0.2085  0.0751
61771W        W 4762   2.438  25.446   2.484 -0.0941 -0.1668  0.0539
61772W        W 4763  33.817  22.598  10.505 -0.2458 -0.0038  0.2915
61773W        W 4764   7.254  15.779   7.638 -0.1189 -0.1633 -0.3208
61774W        W 4765  33.458   2.771   0.652  0.1230 -0.1027 -0.0141
61775W        W 4766  18.472  30.912   3.933  0.1903 -0.2792  0.1342
61776W        W 4767  15.114  22.163   9.659 -0.1121  0.0055 -0.1895
61777W        W 4768   9.649  34.460   5.872 -0.0254  0.0051  0.2570
61778W        W 4769  34.323  15.466  26.662  0.0575 -0.1713  0.0994
61779W        W 4770   1.838  11.068   9.104 -0.1508  0.0899 -0.0387
61780W        W 4771  27.385  15.701   0.410  0.1486 -0.3061 -0.0588
61781W        W 4772   2.335  33.762  25.542 -0.1771  0.2215  0.2187
61782W        W 4773  34.295  24.793  24.651 -0.0194  0.3444 -0.0507
61783W        W 4774   5.046   1.924  18.591  0.2202 -0.2199  0.1933
61784W        W 4775  12.599  17.414   4.888 -0.3390 -0.1433 -0.3433
61785W        W 4776   9.944  14.010   7.940 -0.0710  0.0261  0.2321
61786W        W 4777   8.284  19.734  21.600  0.0739  0.1629  0.2529
61787W        W 4778  15.063  25.248  28.581 -0.2285  0.0262  0.1524
61788W        W 4779  10.059  23.668   6.129 -0.0170 -0.0259 -0.0675
61789W        W 4780  13.060  18.362   0.772  0.2853  0.1905  0.0086
61790W        W 4781   4.356  21.022   3.891  0.1051  0.1005  0.1144
61791W        W 4782  33.214  18.734  10.331 -0.0893 -0.2853  0.1066
61792W        W 4783  11.168  14.783   6.737 -0.1033 -0.0856  0.0590
61793W        W 4784  23.717  22.345   3.127  0.2623 -0.4406 -0.0717
61794W        W 4785   5.160  30.462  25.054 -0.0322 -0.0940 -0.0227
61795W        W 4786   2.795  28.740   3.749 -0.2356 -0.0881  0.0040
61796W        W 4787  30.611  20.815   9.712 -0.2153 -0.1580 -0.3427
61797W        W 4788  23.029  24.020  10.050  0.1489 -0.0435  0.3946
61798W        W 4789  23.299  22.982   6.875 -0.0865  0.2483 -0.0708
61799W        W 4790  26.661  33.114  27.351 -0.3746  0.0408 -0.0136
61800W        W 4791  31.197  23.988   8.426 -0.4058 -0.1067  0.2012
61801W        W 4792   7.043  24.676   6.580  0.4547 -0.0082  0.2672
61802W        W 4793   7.650  28.490   1.344  0.1998 -0.2516 -0.1352
61803W        W 4794   7.852   9.285   2.595  0.1315 -0.1528 -0.0786
61804W        W 4795  12.614  20.207   5.591  0.2387  0.0930  0.2541
61805W        W 4796  26.442  11.768  27.709 -0.0777  0.0548  0.3246
61806W        W 4797   6.959  20.301   6.662 -0.0917 -0.0344  0.3838
61807W        W 4798  28.373  11.692   8.712  0.2334  0.3676  0.1231
61808W        W 4799  15.428   4.706   0.011 -0.2435 -0.1054 -0.1385
61809W        W 4800   2.479  12.503  26.703  0.0502 -0.2106  0.1841
61810W        W 4801  30.396  21.472   0.756 -0.0257  0.2521  0.0457
61811W        W 4802   0.236  19.888   4.867 -0.2992  0.0673 -0.3268
61812W        W 4803  10.131  15.510   6.696  0.0727 -0.2432  0.2995
61813W        W 4804   1.842   7.752  21.300  0.0867  0.0967  0.0384
61814W        W 4805  10.636  12.094   1.547 -0.0533 -0.1387 -0.0785
61815W        W 4806  10.463  17.480   9.988 -0.0073  0.2034 -0.0057
61816W        W 4807  12.274  27.843  28.929 -0.2328  0.0039 -0.2286
61817W        W 4808  12.933  17.555   7.418  0.0185  0.1629 -0.0934
61818W        W 4809  30.953  27.070   7.572  0.2096  0.1024 -0.2740
61819W        W 4810   4.231  16.071   9.725  0.0649 -0.1014  0.1707
61820W        W 4811   0.683  13.248   8.789 -0.2613  0.0004  0.0727
61821W        W 4812   2.945  17.891  24.590  0.1036 -0.0323 -0.3235
61822W        W 4813  14.538  15.578  27.517 -0.1722  0.1894  0.3499
61823W        W 4814  21.596  13.004   6.152  0.0455 -0.0588 -0.2478
61824W        W 4815   5.844  11.739  11.157  0.0551  0.0569  0.1003
61825W        W 4816  15.018  19.520   3.798 -0.0907 -0.0789  0.2668
61826W        W 4817   5.229  15.002   6.813  0.3411 -0.0403  0.0083
61827W        W 4818   6.042  29.255  28.665  0.1419 -0.3511 -0.1154
61828W        W 4819  33.582   7.680  22.012  0.0034  0.2855  0.3735
61829W        W 4820  12.215  24.664  14.384 -0.0131 -0.0806 -0.1676
61830W        W 4821   8.161   2.779  28.851  0.0989 -0.1151 -0.1079
61831W        W 4822  23.910  21.927  24.155 -0.2633 -0.0638  0.3441
61832W        W 4823   8.853  21.994   9.564  0.0583 -0.2796 -0.2147
61833W        W 4824   1.263  19.268   8.875 -0.2543  0.1127  0.2794
61834W        W 4825   5.062  20.745   4.217  0.1002 -0.2155 -0.0835
61835W        W 4826  16.677  28.982   5.450 -0.0843 -0.0150  0.1856
61836W        W 4827  17.780  18.006   5.696  0.0327  0.0305 -0.0407
61837W        W 4828  30.643  26.367   8.891  0.1056 -0.0786 -0.0595
61838W        W 4829   0.927  12.089   9.275  0.0380 -0.2965  0.1884
61839W        W 4830   5.684   7.619   8.927  0.1884  0.0878 -0.5572
61840W        W 4831   6.634   9.314   4.853 -0.1231 -0.1413 -0.2320
61841W        W 4832  30.993   2.238  18.537  0.1509 -0.0798 -0.2505
61842W        W 4833   9.838  26.873   2.093  0.0626  0.0452  0.1022
61843W        W 4834  11.993  20.752   2.558 -0.1243 -0.2418 -0.0851
61844W        W 4835  34.646  20.600   7.398  0.0652 -0.2661 -0.0283
61845W        W 4836  15.807  25.173   3.548 -0.1385 -0.2032  0.1151
61846W        W 4837  23.191   8.091   4.884  0.0575  0.1988 -0.4606
61847W        W 4838   4.454  13.405   6.737  0.0329  0.0935  0.3093
61848W        W 4839  27.972  19.089   1.713 -0.0833 -0.1110  0.0365
61849W        W 4840   2.130   2.793   5.021  0.2275  0.1603  0.1053
61850W        W 4841  24.744  28.917   7.428  0.2367 -0.0190 -0.0111
61851W        W 4842  33.209  20.583   9.400  0.2148  0.0458 -0.0809
61852W        W 4843  31.292  20.862   9.025 -0.0322 -0.1265 -0.0472
61853W        W 4844  25.199  18.647  25.778  0.0043  0.0231 -0.1861
61854W        W 4845  25.929  14.080   6.451  0.0190  0.1063  0.1431
61855W        W 4846   1.428  10.337  26.218  0.3155  0.2005 -0.3602
61856W        W 4847  24.616  29.241   2.687  0.0188  0.1656 -0.2786
61857W        W 4848  33.155  32.726   8.844 -0.3904  0.1526 -0.2466
61858W        W 4849  17.271   9.937   1.913  0.0463  0.0803  0.2525
61859W        W 4850   4.783  22.566   8.122  0.0278  0.3393 -0.1456
61860W        W 4851  26.273   4.067   6.074 -0.1289  0.1022  0.3989
61861W        W 4852  33.785   7.644  10.546  0.1085  0.1200  0.1959
61862W        W 4853   3.486  13.811   4.044 -0.0650  0.1062 -0.4121
61863W        W 4854   9.786  12.834  24.012  0.1082 -0.1634 -0.0494
61864W        W 4855   7.627   2.886   5.514 -0.3241 -0.1072  0.0464
61865W        W 4856  34.703  23.630   6.946  0.2004 -0.1214  0.1545
61866W        W 4857  33.858  11.873  11.856  0.0495  0.1794  0.0958
61867W        W 4858   0.216   6.950   2.688  0.0386  0.1361 -0.1147
61868W        W 4859  31.493   2.303   2.661 -0.1497  0.0566  0.1373
61869W        W 4860  18.452  17.211  13.031 -0.0755 -0.0003  0.2579
61870W        W 4861   3.194  13.850  10.989  0.0097  0.1458 -0.2648
61871W        W 4862  22.178  18.424  26.763  0.0744 -0.4299  0.0377
61872W        W 4863   0.151  15.440  11.704 -0.0908  0.2019  0.2358
61873W        W 4864   8.693  14.446   8.957 -0.4035 -0.0778 -0.2460
61874W        W 4865  12.612  28.587   6.990 -0.0225  0.1809 -0.0831
61875W        W 4866   9.445   9.890  23.540 -0.1867  0.0706 -0.1055
61876W        W 4867  28.831  19.315  26.858  0.1234  0.3128  0.0418
61877W        W 4868  13.558  17.507  21.207 -0.1044  0.2436 -0.2294
61878W        W 4869  17.968  20.698   6.842 -0.1774 -0.1584 -0.0080
61879W        W 4870  17.898  31.684   9.274 -0.1974 -0.0359 -0.0694
61880W        W 4871  32.773   8.747  29.162  0.0054  0.0926  0.1469
61881W        W 4872  23.355  19.640   7.358  0.1127  0.1697  0.0478
61882W        W 4873  10.127  22.151  27.625 -0.0705 -0.0073  0.0482
61883W        W 4874   3.108  18.563   9.140  0.0186  0.0168  0.0386
61884W        W 4875   6.707   3.303   9.055 -0.1147 -0.2353  0.0142
61885W        W 4876  32.755  16.469   7.630 -0.0779 -0.0361 -0.1239
61886W        W 4877   6.591  30.415   3.503  0.1948 -0.3217 -0.0507
61887W        W 4878   3.921  32.165  10.424  0.3972  0.1128  0.1917
61888W        W 4879   7.819   3.672  11.214  0.0616 -0.2918 -0.0671
61889W        W 4880   8.090  14.873   9.692  0.0729 -0.0426  0.2621
61890W        W 4881  10.634  15.715  27.165 -0.0615  0.0416 -0.0930
61891W        W 4882   4.795  17.570   9.587 -0.2433  0.2346 -0.0864
61892W        W 4883  31.405  12.385   9.186  0.2398 -0.3653 -0.2512
61893W        W 4884  29.531  21.840   5.399 -0.3637  0.1997 -0.1386
61894W        W 4885  28.300  14.079   0.765  0.0017 -0.1245  0.1723
61895W        W 4886  18.351  25.164  25.043 -0.1797  0.2459  0.4314
61896W        W 4887   5.223  22.278   4.224 -0.0669 -0.3638  0.2428
61897W        W 4888  32.196  25.828   8.403  0.0430 -0.2921 -0.1165
61898W        W 4889   3.850  13.682   8.852  0.1626 -0.1986 -0.1536
61899W        W 4890   3.466   6.460   6.851  0.0198  0.1920 -0.0516
61900W        W 4891  34.080  31.601   8.978  0.3706 -0.1365 -0.0944
61901W        W 4892  26.490  26.120   2.113  0.2544 -0.2936 -0.1812
61902W        W 4893  11.417  28.865   3.855 -0.0771  0.1578 -0.2201
61903W        W 4894   1.860  24.027   8.685  0.0480  0.0372  0.1896
61904W        W 4895  26.257  13.717   8.880  0.1501  0.0034 -0.4550
61905W        W 4896   9.290  22.395  27.609 -0.1041 -0.1177 -0.0549
61906W        W 4897  21.480  26.601  21.058 -0.2087  0.1299  0.3910
61907W        W 4898  30.726   1.893   1.349  0.3782  0.2282 -0.0640
61908W        W 4899  15.478   1.919   7.879  0.0485 -0.1189  0.2432
61909W        W 4900   3.857  26.926   4.497  0.2443 -0.2951  0.2165
61910W        W 4901  34.055  21.783   3.664  0.0231  0.0116 -0.0374
61911W        W 4902   1.898  13.186   1.253  0.0792 -0.3179  0.0268
61912W        W 4903  13.756   6.527   8.371  0.0803 -0.0601  0.1244
61913W        W 4904  33.988  25.343  29.059 -0.0376 -0.1999 -0.3130
61914W        W 4905   7.705  10.847  10.083 -0.3030 -0.0455 -0.2835
61915W        W 4906   4.953  18.121   7.663 -0.2669 -0.0666  0.1937
61916W        W 4907  26.344   8.575   9.384  0.2124  0.1505  0.0760
61917W        W 4908   7.933  24.641  25.398  0.0777 -0.0812 -0.2270
61918W        W 4909   1.908  34.308  29.139  0.1279  0.3093 -0.0885
61919W        W 4910  12.834  26.501   4.344 -0.2041  0.0031  0.0326
61920W        W 4911  20.319  31.873   8.007 -0.1110  0.1044  0.1020
61921W        W 4912   0.302  19.171   6.066  0.0779 -0.2381 -0.1086
61922W        W 4913   1.749  16.493  12.369 -0.0317 -0.1539 -0.1289
61923W        W 4914  26.193   4.808   7.094 -0.4428 -0.0570  0.2519
61924W        W 4915   4.380  28.168   5.176  0.0960  0.1072  0.0607
61925W        W 4916   7.924  15.293   8.212  0.4255  0.1348 -0.0085
61926W        W 4917  33.067  21.766   5.527  0.0634  0.1166 -0.0129
61927W        W 4918   6.081  26.836  21.201 -0.2910 -0.1585  0.1126
61928W        W 4919   4.234   8.826   8.081 -0.3580  0.1741 -0.3699
61929W        W 4920   9.167  27.590   8.708  0.1887 -0.0885 -0.0850
61930W        W 4921  17.231   1.912   7.039  0.0628  0.0928  0.2241
61931W        W 4922   2.118  13.455   9.255 -0.1018  0.0072  0.0046
61932W        W 4923  30.639  12.656  28.505 -0.1651 -0.1148  0.2831
61933W        W 4924   2.195  14.122  27.010  0.0485  0.0268 -0.0169
61934W        W 4925   3.964  32.155   4.236 -0.2237  0.1393  0.0753
61935W        W 4926  11.466  10.790  10.759 -0.0510  0.0709 -0.0938
61936W        W 4927  28.326  23.544   1.631  0.1611 -0.1435 -0.0266
61937W        W 4928  32.792  19.098   0.274  0.1811 -0.0717 -0.1132
61938W        W 4929  33.405  27.313   6.174  0.1456  0.0829 -0.1027
61939W        W 4930  20.495  15.067   4.997  0.1058 -0.0096  0.0852
61940W        W 4931  12.465  27.897   8.180  0.1243  0.1035  0.1045
61941W        W 4932  11.781  24.344   6.885 -0.0922  0.2933 -0.2951
61942W        W 4933   5.334  12.159  26.737 -0.1959 -0.2652  0.0200
61943W        W 4934   3.471   6.530   6.021  0.1465 -0.0251  0.0645
61944W        W 4935  26.077  13.936   5.363  0.1893 -0.1205 -0.1167
61945W        W 4936   5.132  33.407   7.621 -0.1039  0.0297 -0.1675
61946W        W 4937  10.042   8.314   9.677  0.0498  0.0781  0.3738
61947W        W 4938  30.413  20.634  15.743 -0.3418  0.1104  0.1184
61948W        W 4939  13.821   1.013   5.200 -0.1250 -0.3337 -0.0982
61949W        W 4940   6.123  26.873  25.224  0.1617  0.0620  0.1722
61950W        W 4941  19.116  31.830   2.033  0.0643  0.3029  0.1205
61951W        W 4942  15.583  21.704  24.460 -0.1025 -0.0839  0.0237
61952W        W 4943   6.153  18.228  10.748  0.3856  0.0273  0.1734
61953W        W 4944  10.551  14.542   4.121 -0.2539  0.0342 -0.2181
61954W        W 4945  31.726  12.983   4.992 -0.3158  0.0686 -0.2702
61955W        W 4946   2.013  24.990   5.549 -0.0060 -0.3399  0.4460
61956W        W 4947  10.078  14.662  27.184 -0.2020 -0.0413  0.1343
61957W        W 4948  30.922  11.041   6.322 -0.2688  0.0536  0.3496
61958W        W 4949  31.554  23.924   3.393 -0.0055  0.1169 -0.1706
61959W        W 4950  24.400  19.876   1.196 -0.2278  0.1208  0.0122
61960W        W 4951  26.864  13.358   7.928 -0.0240  0.2452 -0.0126
61961W        W 4952  33.751  20.846   6.883 -0.1016 -0.1795  0.0552
61962W        W 4953  28.760  12.197   7.377  0.0280 -0.1084  0.1802
61963W        W 4954  29.064  11.156  21.921 -0.1838  0.0816 -0.0460
61964W        W 4955  21.591  18.955  22.724  0.4105 -0.0787 -0.0519
61965W        W 4956  10.260  17.295   6.541 -0.0653  0.1185 -0.1186
61966W        W 4957   1.544  29.832   9.021  0.0996 -0.0868 -0.1940
61967W        W 4958   4.302  15.175  11.271 -0.3266  0.2315 -0.2340
61968W        W 4959   1.040   1.600  10.300 -0.0985 -0.2173  0.1688
61969W        W 4960  30.069  33.861   2.836  0.2454  0.1577  0.1015
61970W        W 4961   8.450  18.568  26.851 -0.0844 -0.2489 -0.0923
61971W        W 4962   8.097  22.076  27.453 -0.3693  0.3122 -0.2839
61972W        W 4963  27.349  22.006   4.121 -0.2794  0.0477  0.2438
61973W        W 4964  32.533  18.682   2.722  0.2022  0.3631 -0.0510
61974W        W 4965   1.784  31.412   1.925 -0.2094 -0.0165 -0.2344
61975W        W 4966   4.295  14.082   2.018 -0.0916  0.2076 -0.2380
61976W        W 4967   6.566  20.377  10.469 -0.1542  0.2030 -0.0939
61977W        W 4968   8.587  31.986   7.236 -0.3846  0.2700  0.0545
61978W        W 4969  17.490  22.819   9.153 -0.0521 -0.0826  0.0484
61979W        W 4970   5.870  29.777   7.551  0.3075  0.2901  0.0391
61980W        W 4971  10.150  28.591   9.953  0.1703  0.2630 -0.3010
61981W        W 4972   5.327  16.570   2.588  0.1114 -0.0196 -0.1291
61982W        W 4973   1.543  15.618   3.660 -0.2087 -0.2423 -0.2581
61983W        W 4974   6.628   5.265  21.235  0.3256  0.1187  0.1147
61984W        W 4975   5.840  12.603  25.084  0.1463  0.0365  0.0918
61985W        W 4976  24.774  20.515   1.772  0.0370 -0.2188 -0.2157
61986W        W 4977   1.449  18.015  24.059  0.2325 -0.1415 -0.3287
61987W        W 4978  17.816  28.036   5.280 -0.3604  0.0132  0.0631
61988W        W 4979  10.033  34.381  26.913 -0.1638  0.3992 -0.2533
61989W        W 4980   4.532  21.373   2.577  0.1598 -0.1089 -0.0694
61990W        W 4981  30.099  16.354   7.780 -0.1033  0.1767 -0.1053
61991W        W 4982  32.300  16.393   6.920  0.2926  0.0054 -0.0652
61992W        W 4983  27.786  22.755   4.680 -0.1409 -0.0185  0.3234
61993W        W 4984  11.894  20.612   5.618 -0.1564 -0.1160 -0.0546
61994W        W 4985  16.332   7.495   4.092 -0.1017 -0.0240  0.3136
61995W        W 4986  34.207  16.542   0.132 -0.2895 -0.1400  0.1134
61996W        W 4987   2.225  30.569  25.294  0.0724 -0.1451  0.1836
61997W        W 4988  26.359  18.525  26.041  0.1544 -0.0755 -0.0815
61998W        W 4989   1.700  18.267   4.622 -0.0033 -0.1985 -0.0080
61999W        W 4990  10.184  17.040   1.829  0.1429 -0.0877  0.0222
62000W        W 4991   0.814  30.178  28.322 -0.0354  0.0553  0.0198
62001W        W 4992   9.700  17.768   0.201  0.1015 -0.0635 -0.0147
62002W        W 4993   9.406   5.120  26.643  0.1078 -0.1670 -0.1323
62003W        W 4994   5.710  21.424  23.999  0.0954 -0.0991  0.1125
62004W        W 4995   5.232   9.911   5.591  0.1256 -0.0082  0.2438
62005W        W 4996  25.691  24.650   6.028  0.4030 -0.2449 -0.1689
62006W        W 4997  30.591  11.510   5.661 -0.0527 -0.0304 -0.1645
62007W        W 4998  22.943  21.662  21.307  0.0852  0.2927 -0.1096
62008W        W 4999   4.951  30.595  20.438 -0.3170  0.0938  0.3494
62009W        W 5000   2.498   1.340   9.633 -0.3007 -0.2277 -0.1749
62010W        W 5001  19.562  29.605  24.806 -0.0731  0.1394 -0.0913
62011W        W 5002   0.628  20.046   8.650  0.0026  0.0312 -0.1600
62012W        W 5003   0.966   9.752   9.568  0.2109 -0.0420  0.0214
62013W        W 5004   3.869  20.187   2.631 -0.1929  0.0033 -0.1510
62014W        W 5005   2.732   3.003   7.778 -0.1152  0.1487 -0.0151
62015W        W 5006   4.602   6.678  10.124  0.1507  0.0599 -0.5624
62016W        W 5007  28.409  17.072   2.636  0.3903  0.2064  0.1973
62017W        W 5008   2.922  15.165  11.145 -0.1958  0.0370 -0.2969
62018W        W 5009  26.272  22.678   3.095 -0.2734  0.1233  0.0696
62019W        W 5010  24.483   5.370  25.593  0.1064 -0.0706  0.1397
62020W        W 5011  30.421  10.751   4.917 -0.2025 -0.0066  0.1829
62021W        W 5012  29.378  24.367   6.492  0.2578  0.3339  0.0742
62022W        W 5013   1.979  21.598   6.492 -0.1661 -0.2672 -0.3518
62023W        W 5014   9.836  12.460  25.643  0.1935 -0.1073  0.1349
62024W        W 5015  12.892   1.655  26.653  0.3439  0.0968  0.2976
62025W        W 5016   9.102  13.477  26.676  0.0350 -0.0333 -0.0210
62026W        W 5017  32.386  16.521  26.413  0.2891  0.0261 -0.2453
62027W        W 5018  13.225  14.700  24.215  0.1231 -0.0837 -0.3928
62028W        W 5019  29.511  28.010   3.440 -0.0416 -0.3279 -0.0134
62029W        W 5020  25.539  18.557   0.722  0.1968 -0.1358 -0.1730
62030W        W 5021  34.570   2.140   4.650 -0.1842 -0.2012 -0.0729
62031W        W 5022  32.435  21.037   7.994 -0.0439  0.0627  0.0015
62032W        W 5023   8.066  17.314   6.300  0.0912 -0.1243  0.0086
62033W        W 5024  29.075  12.000   7.884 -0.3110  0.0669  0.0896
62034W        W 5025  14.386   9.865   2.151  0.3335 -0.0585  0.0710
62035W        W 5026  24.383  13.808   4.706 -0.2994  0.0504 -0.0806
62036W        W 5027   5.025  34.503   9.082  0.3909  0.0324 -0.1456
62037W        W 5028  31.683  22.206   8.220 -0.0801 -0.2317 -0.3036
62038W        W 5029  31.620  20.511  10.030  0.1242  0.1984 -0.0758
62039W        W 5030   9.959  19.721   4.067  0.0719  0.1952 -0.0498
62040W        W 5031  23.744  13.013   4.249  0.1132 -0.0768  0.0175
62041W        W 5032  23.316  23.271   1.787 -0.0968  0.0400  0.1190
62042W        W 5033  32.730  23.339   0.081 -0.2083  0.0099 -0.2090
62043W        W 5034  32.904  30.801   2.482 -0.3209  0.1335 -0.2304
62044W        W 5035  34.170  15.713   6.607 -0.1584  0.0592  0.1130
62045W        W 5036  11.265   6.495  10.060  0.1471  0.1345 -0.2270
62046W        W 5037  12.665   9.756  10.241 -0.3074 -0.2016  0.0787
62047W        W 5038  34.092  20.614   8.997  0.1429 -0.1689  0.1933
62048W        W 5039   3.863   1.817   5.862 -0.0062 -0.1430 -0.1591
62049W        W 5040   8.694   2.578  19.738 -0.1438  0.0423  0.1580
62050W        W 5041   3.025  10.559   2.254 -0.1914  0.0801  0.1652
62051W        W 5042  17.247  16.201   6.183 -0.1581 -0.2552 -0.1289
62052W        W 5043  33.146  15.263  26.405 -0.0384  0.3280  0.2311
62053W        W 5044  33.538  18.370  10.599  0.1883  0.2542 -0.0072
62054W        W 5045  12.324  11.630  18.554  0.0255  0.4078 -0.0321
62055W        W 5046  18.345  25.219   3.901  0.5138 -0.0779  0.1111
62056W        W 5047  23.022  12.279   5.663 -0.0101 -0.0086 -0.1081
62057W        W 5048   1.304  23.214   3.417  0.0225 -0.0414 -0.1457
62058W        W 5049   9.867  15.674   3.598  0.3914 -0.0745 -0.1388
62059W        W 5050  11.579  12.166   3.543  0.1658  0.3155  0.1972
62060W        W 5051   8.936  16.333  10.041 -0.2584  0.2343 -0.3064
62061W        W 5052  24.322  19.728  27.290 -0.2822  0.1220 -0.0449
62062W        W 5053  21.293   8.179   7.357 -0.1389  0.0787 -0.0272
62063W        W 5054   7.369  34.081  10.108 -0.2586  0.0349 -0.0187
62064W        W 5055   0.098  31.291   2.772 -0.1889  0.3797  0.0879
62065W        W 5056   0.970  28.387   1.819  0.0401  0.2885 -0.0657
62066W        W 5057   6.319  19.040  24.597  0.0466 -0.3046  0.0610
62067W        W 5058   1.923  21.564   5.715  0.0666  0.1318 -0.3278
62068W        W 5059   7.527  21.396  10.233 -0.0054 -0.0535 -0.1488
62069W        W 5060  28.348  14.634  11.117  0.1337  0.1169 -0.0455
62070W        W 5061  14.644  21.050   3.591  0.0294 -0.0347  0.1022
62071W        W 5062  16.426   7.796  28.723 -0.1100  0.1102 -0.2839
62072W        W 5063  31.473  16.021   0.375 -0.1444 -0.0163  0.3341
62073W        W 5064  11.434  18.269   3.776  0.0282  0.0019  0.2621
62074W        W 5065  26.394  30.457   0.891  0.1225 -0.0493 -0.1144
62075W        W 5066  15.434  15.616   6.965  0.1813 -0.1023  0.0343
62076W        W 5067  29.392  15.835   0.059 -0.3108 -0.0264 -0.1738
62077W        W 5068   1.874  16.032   9.475  0.0107  0.1184  0.0891
62078W        W 5069  32.883  21.045   5.440  0.0638 -0.1360 -0.1945
62079W        W 5070  11.200  28.793   4.265 -0.1939  0.0404  0.1449
62080W        W 5071   2.779   5.940   3.915  0.0016 -0.0975  0.0801
62081W        W 5072  32.716  18.823   4.114 -0.1650  0.0332 -0.2010
62082W        W 5073   7.294  20.488   6.012 -0.3021  0.1262  0.1751
62083W        W 5074   7.669  26.440  25.048 -0.0563  0.0459  0.0375
62084W        W 5075   4.219  12.776  23.049  0.0781 -0.1190 -0.0877
62085W        W 5076  18.695   4.138   9.383  0.1927 -0.0002  0.2283
62086W        W 5077   0.206   3.150  10.993  0.0674  0.0638  0.0462
62087W        W 5078  10.389  22.266  28.112 -0.0251  0.0704 -0.3991
62088W        W 5079  15.910   8.031   0.250  0.0592  0.0795  0.0374
62089W        W 5080  34.532  17.690  29.001  0.0783 -0.0058  0.2895
62090W        W 5081  34.746  19.058  10.623 -0.0980 -0.2175  0.2302
62091W        W 5082   2.754  23.614  24.129 -0.2113  0.2534  0.0193
62092W        W 5083   5.282   2.380   8.492  0.0609  0.1307  0.1336
62093W        W 5084  34.525  31.028   3.396 -0.1226 -0.4683 -0.1658
62094W        W 5085   8.924  25.062  26.204  0.1551  0.2640 -0.2896
62095W        W 5086   2.791  16.262   4.535 -0.1293  0.2411 -0.0508
62096W        W 5087  18.895  32.509   5.945 -0.3134  0.1509  0.1903
62097W        W 5088   2.077  13.180  10.692  0.1880  0.0472  0.0740
62098W        W 5089  18.520  17.851   2.937  0.0875 -0.0304 -0.1991
62099W        W 5090  14.671  14.184   9.310  0.1321 -0.1309 -0.1495
62100W        W 5091  31.436   8.057  24.181  0.1336  0.0377 -0.2358
62101W        W 5092  24.701  13.249   9.272  0.2466 -0.4155 -0.1693
62102W        W 5093  25.263  16.741   5.532  0.0050 -0.0206  0.0177
62103W        W 5094  29.258  12.774   5.351 -0.2943 -0.0818 -0.0639
62104W        W 5095   0.987   9.225   6.549  0.1729 -0.0881  0.0735
62105W        W 5096  30.019   9.161   3.058  0.2192 -0.3204  0.1663
62106W        W 5097  10.465  15.058   9.930 -0.1807  0.1787  0.0874
62107W        W 5098   4.663  24.989   5.404 -0.1032 -0.3263 -0.0176
62108W        W 5099  29.243  28.394   7.259 -0.4095  0.0138  0.1267
62109W        W 5100   8.039  24.407   2.798  0.1923 -0.1625 -0.1654
62110W        W 5101   8.685  28.112   4.615 -0.2489 -0.1414  0.0324
62111W        W 5102   1.174  29.671   9.985  0.0134 -0.1909 -0.0053
62112W        W 5103  30.812  18.604  27.678 -0.2877 -0.2287 -0.1169
62113W        W 5104  17.976  13.825   9.329  0.1310 -0.0746  0.1493
62114W        W 5105   5.598  17.557   8.663  0.2395  0.1674 -0.0706
62115W        W 5106  13.424  22.328   7.763  0.0748  0.0175 -0.0233
62116W        W 5107  13.287  18.955   3.935 -0.0032  0.3466 -0.0538
62117W        W 5108  21.237  15.004  24.082 -0.4128  0.1709  0.0597
62118W        W 5109   2.212  11.353   6.270 -0.4854 -0.0273  0.2712
62119W        W 5110   2.623  15.414   0.019 -0.2351  0.0449 -0.0359
62120W        W 5111  14.833   4.295   4.351 -0.0940 -0.2974  0.0220
62121W        W 5112  14.623  15.795   4.082 -0.2897 -0.0972 -0.1543
62122W        W 5113  33.847  16.824   9.588  0.3008  0.1375  0.1465
62123W        W 5114  33.283  22.499   1.462 -0.1252  0.3755 -0.0424
62124W        W 5115   0.696  17.277   5.174  0.0471 -0.4748  0.1106
62125W        W 5116   6.454   7.287   2.991  0.2288  0.0546  0.1686
62126W        W 5117  23.141  27.097  28.432 -0.0546  0.0624 -0.0784
62127W        W 5118  28.889  24.393   2.201  0.1866  0.2016 -0.2016
62128W        W 5119  22.366  16.780  24.778  0.2197 -0.2889 -0.2804
62129W        W 5120  31.867  29.274   1.642  0.1948 -0.0280  0.0028
62130W        W 5121  11.564  24.296   5.934 -0.0145 -0.1199 -0.1004
62131W        W 5122   3.325  16.420   3.258 -0.1110 -0.1552 -0.0669
62132W        W 5123  24.036  15.471  10.136  0.3726 -0.0594  0.4472
62133W        W 5124   0.642  22.899   2.579  0.0535  0.1944 -0.2311
62134W        W 5125  30.689  22.222   6.305  0.0471 -0.1546  0.1277
62135W        W 5126  26.080  24.290  16.561  0.0686 -0.2504 -0.1507
62136W        W 5127   7.570  19.112   4.091  0.0260  0.0762  0.1679
62137W        W 5128  31.167  12.913  10.691  0.0063 -0.0515  0.2331
62138W        W 5129  13.489  11.319   3.498 -0.1808 -0.2521 -0.0895
62139W        W 5130   2.084  32.960   9.380 -0.0110 -0.1452 -0.1259
62140W        W 5131  34.713  22.280   7.618 -0.1936 -0.0219  0.1953
62141W        W 5132   3.302  17.271  27.950 -0.3967 -0.0466  0.0619
62142W        W 5133  19.250  32.863  24.329  0.0156  0.1717 -0.0184
62143W        W 5134  33.979   0.956   0.840 -0.0842 -0.1216  0.1727
62144W        W 5135  17.845  19.313  26.473  0.3914  0.1802 -0.0552
62145W        W 5136  26.955  13.788  19.943 -0.4223 -0.3035 -0.1409
62146W        W 5137   0.037  22.170   4.124  0.2025  0.1267 -0.1086
62147W        W 5138   2.747  33.941  23.225 -0.1322  0.1558  0.1923
62148W        W 5139  26.641  11.029   1.173  0.0619  0.3149  0.1835
62149W        W 5140  34.114  16.843  28.000  0.2174  0.1318  0.0110
62150W        W 5141   2.556  11.269   1.613 -0.1560  0.2315 -0.2655
62151W        W 5142   1.720  30.274  21.155 -0.1980 -0.0676 -0.2822
62152W        W 5143   6.391  29.429   1.482  0.0126 -0.2059  0.0570
62153W        W 5144  34.789  17.704   7.461 -0.0074  0.1538 -0.1746
62154W        W 5145  34.161  18.949   4.508 -0.0261 -0.0472 -0.0785
62155W        W 5146  24.826  24.593  29.191  0.3446 -0.1489 -0.1610
62156W        W 5147  32.768   1.531   4.979  0.0498 -0.1664 -0.1110
62157W        W 5148   5.513  34.373   7.417  0.1733  0.2531  0.0576
62158W        W 5149  15.204  15.714   3.777  0.1270 -0.0171  0.2246
62159W        W 5150  22.908  15.386   7.952  0.1928  0.2730  0.2609
62160W        W 5151  29.724  22.470   8.279  0.0288  0.1262 -0.0434
62161W        W 5152  11.315  13.357  18.173 -0.0909 -0.1681 -0.1469
62162W        W 5153  27.426  12.951  29.025  0.1477 -0.0146 -0.1695
62163W        W 5154   8.307  16.992   3.233 -0.4991 -0.0584  0.0234
62164W        W 5155  28.271   8.990   1.053 -0.0635 -0.0387 -0.1095
62165W        W 5156  28.751   0.990  25.771 -0.0686 -0.0022  0.0958
62166W        W 5157  34.568  13.713   2.846 -0.2459 -0.1516  0.3473
62167W        W 5158  13.565  16.311   2.243 -0.0198  0.0113 -0.1437
62168W        W 5159   2.452  20.556  15.964 -0.0273  0.2482 -0.1122
62169W        W 5160   6.708  11.066  10.796  0.2348  0.0971 -0.1072
62170W        W 5161  32.896   5.558   3.505  0.1496 -0.0019  0.1970
62171W        W 5162  28.350  27.033   5.044 -0.0509 -0.0863 -0.0026
62172W        W 5163   3.182  25.224   2.069  0.1675 -0.0062 -0.1176
62173W        W 5164  31.684  18.792   7.031 -0.1075 -0.2152 -0.0149
62174W        W 5165   2.005  21.610  21.221 -0.2265 -0.0341  0.0570
62175W        W 5166  22.073  27.666  28.615 -0.0595  0.0081 -0.1055
62176W        W 5167   1.422  33.479   0.916  0.3235  0.1042 -0.0058
62177W        W 5168  25.312  11.121   3.672  0.4909 -0.1556  0.1771
62178W        W 5169   5.728  12.018  23.104  0.1315 -0.0599 -0.2317
62179W        W 5170   3.759  25.287   5.116  0.2394 -0.0505  0.0283
62180W        W 5171  23.409  18.431   0.876 -0.0179  0.2971 -0.0794
62181W        W 5172  25.391  22.681  20.581 -0.0495 -0.0133 -0.2486
62182W        W 5173   3.785  22.699   9.715  0.0730 -0.0635  0.0364
62183W        W 5174   4.113  28.904   0.642  0.0087  0.1551 -0.0188
62184W        W 5175   5.063  23.385  19.959 -0.2921  0.0275  0.1981
62185W        W 5176   9.308  29.492  18.972 -0.1609 -0.0267 -0.1701
62186W        W 5177   3.174   3.895   8.760  0.0577  0.1419 -0.1700
62187W        W 5178  11.215   6.766   0.154  0.3118 -0.0265 -0.5368
62188W        W 5179   5.024  27.792   7.346 -0.0965 -0.2382  0.2550
62189W        W 5180  23.987   9.122   9.843 -0.1113  0.0102  0.4982
62190W        W 5181  34.742   5.940   2.804 -0.0036 -0.0716 -0.1738
62191W        W 5182   9.786  28.175   1.087 -0.1043 -0.2222  0.3865
62192W        W 5183  28.784  16.735   0.969 -0.1006  0.0059 -0.1766
62193W        W 5184  30.157  17.374   5.689  0.2417 -0.0160 -0.1351
62194W        W 5185  11.750  24.096   1.577  0.3781  0.2274 -0.2463
62195W        W 5186  14.847  33.945   5.937 -0.0210  0.0020  0.0269
62196W        W 5187   5.219  16.296   0.086  0.4171  0.1005 -0.1812
62197W        W 5188   3.989  20.167   7.463 -0.2495 -0.1591  0.4160
62198W        W 5189   1.528  20.116   4.378 -0.3273  0.1241  0.8065
62199W        W 5190   4.872  22.303   7.415  0.0517 -0.0699  0.2149
62200W        W 5191   0.020  30.845  25.117  0.1484  0.0991 -0.1934
62201W        W 5192   2.810  19.697   1.791  0.1287  0.2962  0.0246
62202W        W 5193  10.510  10.261   8.584 -0.1403 -0.0935  0.0605
62203W        W 5194  27.177  26.171   0.649  0.0812 -0.4666  0.1399
62204W        W 5195  24.062  20.165   6.269 -0.1882  0.1330 -0.1472
62205W        W 5196   2.333  24.896   0.863  0.3020  0.0308  0.2013
62206W        W 5197  31.218  22.313   0.515  0.3273 -0.3413  0.0330
62207W        W 5198  14.125  13.154   5.508 -0.1306 -0.0503  0.3845
62208W        W 5199  30.493  22.686  20.401 -0.2305 -0.2846  0.0048
62209W        W 5200   3.343   2.596   6.693  0.0147 -0.2694  0.2845
62210W        W 5201  14.111   1.979   4.010 -0.1723  0.0265  0.2581
62211W        W 5202  28.191  22.225  24.198 -0.0062  0.0947  0.2181
62212W        W 5203   8.112  30.410   8.397 -0.0551 -0.0866 -0.0352
62213W        W 5204   7.870  21.947   0.587  0.0445  0.1535  0.1028
62214W        W 5205  30.442  29.239  24.164  0.0966 -0.3591  0.1527
62215W        W 5206  13.847  34.556   9.031  0.1680 -0.3057 -0.3391
62216W        W 5207  33.999  19.665  24.068 -0.1553  0.1374 -0.4643
62217W        W 5208   6.341   8.139   6.970 -0.3835  0.2065  0.0875
62218W        W 5209  17.568  21.890  20.340 -0.2328 -0.2036  0.2464
62219W        W 5210  22.990   8.628  29.036  0.0975  0.3026 -0.3415
62220W        W 5211  24.412  25.330   5.627 -0.4495  0.4596  0.0699
62221W        W 5212  30.060  23.735  16.858 -0.0441  0.0890  0.0782
62222W        W 5213  16.190  20.879  26.729 -0.1392  0.3078 -0.2551
62223W        W 5214  34.630  24.342  25.813 -0.1301 -0.0712 -0.1252
62224W        W 5215  29.518  27.859  22.243 -0.0789  0.2740  0.3789
62225W        W 5216  33.393  30.620   3.770 -0.0211 -0.1758 -0.2040
62226W        W 5217   6.932  24.319  20.863  0.2598  0.3952  0.0073
62227W        W 5218  34.181   3.278   6.319 -0.0348 -0.3659 -0.1686
62228W        W 5219   8.398  29.175   3.582  0.0910  0.1096  0.0564
62229W        W 5220  16.252  13.195  13.057 -0.0108 -0.0262 -0.0908
62230W        W 5221  19.936  20.454  17.667  0.1355  0.2728 -0.2089
62231W        W 5222   1.988  17.510   0.976 -0.0969 -0.0558 -0.0648
62232W        W 5223  16.738  14.529  24.778 -0.1034  0.1314 -0.1221
62233W        W 5224   2.541  10.049  18.182  0.1153  0.0962 -0.0638
62234W        W 5225  16.122  23.798  25.016  0.1341 -0.0907  0.1042
62235W        W 5226  10.293  30.580  26.742 -0.2686  0.0034  0.1044
62236W        W 5227   5.902  22.443  21.547  0.0050  0.0137 -0.1083
62237W        W 5228  28.492  17.880   6.138  0.0012  0.2739  0.0101
62238W        W 5229  18.792  19.856  27.882  0.1247 -0.1813 -0.1573
62239W        W 5230   3.675  13.125   2.580 -0.3908  0.1377 -0.0525
62240W        W 5231  15.527  26.659   8.032  0.1688  0.0740  0.1575
62241W        W 5232   5.514  33.212   4.608 -0.0814  0.0270 -0.0111
62242W        W 5233  14.799   8.013  25.357  0.2173 -0.0665  0.1590
62243W        W 5234  29.241  22.927  25.491 -0.0410  0.1693 -0.0192
62244W        W 5235  28.748  23.047  18.640 -0.1135  0.1104 -0.1857
62245W        W 5236  30.066  17.515  24.763  0.2074 -0.1363 -0.0766
62246W        W 5237  11.445  15.388  21.374  0.0602  0.2904  0.0643
62247W        W 5238   9.869  31.285  23.620  0.1574 -0.0245  0.0931
62248W        W 5239  34.781  24.341   3.999  0.2621 -0.1267  0.2609
62249W        W 5240   1.526  33.904  24.748  0.1055  0.4458  0.4492
62250W        W 5241   1.993   2.836   5.522 -0.2349  0.0154  0.1531
62251W        W 5242  27.478  17.823   0.440 -0.2027 -0.4942  0.2328
62252W        W 5243  33.157  27.843  27.907 -0.0848 -0.0607  0.2262
62253W        W 5244  10.550  31.492  25.992 -0.2086  0.0211  0.0487
62254W        W 5245   4.086  19.323  29.114 -0.0839  0.0906  0.0018
62255W        W 5246  11.168   6.274   6.140  0.0719 -0.1987 -0.0210
62256W        W 5247   2.341  25.196  25.337  0.1067 -0.3708 -0.0290
62257W        W 5248  10.402  30.201  26.220 -0.2107 -0.1347 -0.0169
62258W        W 5249   4.431   7.222  20.585 -0.0669 -0.2674  0.2833
62259W        W 5250   2.930  24.666   7.241  0.2129 -0.0066  0.0811
62260W        W 5251  15.516  12.647  27.313  0.3252 -0.0043 -0.0288
62261W        W 5252  31.795   4.409   1.052  0.1829 -0.1304  0.3530
62262W        W 5253  34.456  11.888  20.226  0.3432 -0.0380  0.0653
62263W        W 5254   6.682   8.600   7.051 -0.1040 -0.1152 -0.0327
62264W        W 5255   3.358  32.031  27.593 -0.0409 -0.0457  0.0519
62265W        W 5256   6.734  23.235   7.363  0.1308  0.1031  0.1346
62266W        W 5257   2.705  18.171   4.535  0.1521  0.1594 -0.1412
62267W        W 5258   4.193  27.613   2.850 -0.1516  0.0177 -0.0378
62268W        W 5259  12.931  20.785  23.436 -0.1762 -0.2084  0.0932
62269W        W 5260   5.345   5.884   9.708 -0.2185  0.0382 -0.0464
62270W        W 5261   9.761  20.928  28.941  0.1192  0.0589 -0.0907
62271W        W 5262   5.015  13.058  18.303 -0.1422 -0.0572 -0.2437
62272W        W 5263   2.956   9.993   2.131  0.2111 -0.0968 -0.1236
62273W        W 5264   5.101  23.448   8.347  0.1830 -0.2139 -0.1375
62274W        W 5265  25.396  20.874   1.874 -0.1094  0.1427 -0.1323
62275W        W 5266   9.889   8.577  27.246 -0.2390  0.0287 -0.0171
62276W        W 5267  15.007  29.410   5.049  0.0573 -0.0467 -0.0822
62277W        W 5268  32.261  22.423  21.173  0.1572  0.0709  0.2417
62278W        W 5269  33.407  23.129  26.864  0.0408  0.0668 -0.1255
62279W        W 5270  14.656  31.339   6.348  0.3026 -0.0078 -0.6617
62280W        W 5271   9.778   4.934   9.823  0.1108 -0.0382 -0.3035
62281W        W 5272  34.045  30.562   6.210  0.2772 -0.0547 -0.0467
62282W        W 5273   2.357  18.885   0.505  0.4118  0.0741 -0.1405
62283W        W 5274   6.542   8.831  25.715 -0.1983  0.3163 -0.1168
62284W        W 5275  13.356  11.254  26.084  0.1086  0.1328  0.2804
62285W        W 5276   7.838  13.278  11.647  0.0781  0.1835 -0.1166
62286W        W 5277  18.896   7.796   6.063  0.2841 -0.0185 -0.0182
62287W        W 5278   2.620  10.813  26.039 -0.4020 -0.0036 -0.0473
62288W        W 5279   8.744  32.870   7.090 -0.0695  0.0955 -0.1010
62289W        W 5280  22.540  19.551  15.584  0.3072  0.0680  0.0159
62290W        W 5281   8.849  31.476  28.582 -0.1937 -0.1456  0.0781
62291W        W 5282  16.869  25.765   5.987 -0.1107  0.0915 -0.2022
62292W        W 5283  29.605  33.742   4.607 -0.1008  0.1830  0.1838
62293W        W 5284  28.185  30.411   5.828  0.0449 -0.0084 -0.0912
62294W        W 5285  31.225  22.076   8.465 -0.0968 -0.3066  0.3154
62295W        W 5286  11.690  30.881  10.819  0.0784 -0.2555  0.1617
62296W        W 5287  33.869   9.739   2.499 -0.3332 -0.1235  0.2197
62297W        W 5288  32.488  21.829  21.304 -0.2787  0.0668 -0.0057
62298W        W 5289   1.295  24.219   5.628  0.0273 -0.0635  0.0996
62299W        W 5290   7.665  13.558   4.332  0.0889 -0.1398  0.0337
62300W        W 5291  32.038  17.784   5.252 -0.0870  0.0292 -0.0638
62301W        W 5292  20.432  22.395  26.777  0.0804 -0.1032  0.1163
62302W        W 5293   3.258   6.405   0.379  0.1899  0.4649  0.3358
62303W        W 5294   3.771  24.296   2.964  0.2513  0.2284 -0.1519
62304W        W 5295  13.514  14.161   9.859 -0.1239  0.3408 -0.2201
62305W        W 5296  30.069  24.157  15.068 -0.1869 -0.3317 -0.0974
62306W        W 5297   4.859  22.029  21.512  0.1426 -0.0651  0.0128
62307W        W 5298   7.284   8.970  11.113  0.3816 -0.0123  0.1784
62308W        W 5299   6.883  11.981  19.315 -0.2437 -0.1848 -0.2735
62309W        W 5300   2.709   6.347   5.633 -0.0943  0.1837  0.1706
62310W        W 5301  31.289  15.120  18.811  0.3119  0.2423  0.2234
62311W        W 5302  28.712  31.675   0.034  0.2522  0.1675 -0.7754
62312W        W 5303  28.467  22.811   2.335  0.1184 -0.2036  0.2790
62313W        W 5304  33.852  17.576   4.719  0.0122 -0.1405 -0.1196
62314W        W 5305  10.189  27.196   3.304 -0.1597 -0.2594  0.1485
62315W        W 5306  11.838  24.133  27.927 -0.1477 -0.3714 -0.2291
62316W        W 5307  28.209  34.538  25.367  0.1086  0.2206 -0.0326
62317W        W 5308  31.551  15.214  20.763 -0.2252  0.2061 -0.2704
62318W        W 5309  29.298  11.880  23.652 -0.2304  0.0435 -0.1825
62319W        W 5310  22.195   3.153  28.877  0.1878 -0.3547  0.1369
62320W        W 5311   2.917   9.728  10.127  0.3271  0.1225 -0.1899
62321W        W 5312  26.661  18.506  28.751 -0.1347 -0.2373  0.0197
62322W        W 5313  15.478  27.133  24.118  0.0879  0.3438 -0.1761
62323W        W 5314  31.595   7.440  18.208  0.0122 -0.4688 -0.1459
62324W        W 5315   1.399   8.948   3.858  0.0485  0.1638  0.1237
62325W        W 5316   7.236  30.154   8.191  0.0646 -0.1687 -0.1815
62326W        W 5317  16.230   5.331  28.193  0.1585  0.2947  0.0773
62327W        W 5318  34.017  24.857  28.122  0.0476 -0.0223  0.0652
62328W        W 5319  22.918  17.561  26.125 -0.0165  0.1256 -0.1400
62329W        W 5320  27.294  19.797  18.008 -0.2684  0.1196 -0.2959
62330W        W 5321  33.833  28.752  19.863  0.1079 -0.2583 -0.1069
62331W        W 5322  12.386   4.328   7.084 -0.3753  0.1731  0.0420
62332W        W 5323  17.728  14.909   2.262 -0.3189  0.1209  0.1725
62333W        W 5324  33.852  26.855  28.736 -0.0228 -0.2152 -0.2737
62334W        W 5325   0.336  34.665   1.847 -0.1183  0.1108  0.1617
62335W        W 5326   3.439  32.027  17.612  0.1261  0.1253  0.1264
62336W        W 5327  11.912  25.580  15.457  0.1033  0.0494 -0.1374
62337W        W 5328   0.778   4.423   2.228  0.3280  0.1059  0.0979
62338W        W 5329   9.493  34.191  28.551 -0.1382 -0.1779 -0.1280
62339W        W 5330  20.171  16.572  23.732  0.5115 -0.1531  0.2687
62340W        W 5331  24.931  25.250  22.236 -0.0228  0.0425 -0.1513
62341W        W 5332  31.685  25.776   8.393 -0.0852  0.0372 -0.0623
62342W        W 5333  32.755  29.230   1.361  0.0471 -0.1103  0.2617
62343W        W 5334  21.396  23.527   4.479  0.1184 -0.3261  0.2038
62344W        W 5335   8.143  30.597  28.654  0.0622 -0.1387 -0.2207
62345W        W 5336  33.018   6.421  26.939 -0.1989 -0.0752 -0.3624
62346W        W 5337   6.211   9.151   2.193 -0.2358  0.1061 -0.0549
62347W        W 5338  32.657  21.791   7.887  0.1331 -0.0730  0.0028
62348W        W 5339  27.332  29.413   7.084 -0.0777  0.3776 -0.0133
62349W        W 5340  23.876   2.940  29.234  0.3196  0.2180 -0.1385
62350W        W 5341   3.588  26.601   0.312  0.3740  0.1346  0.0809
62351W        W 5342   6.006  24.403   5.494 -0.3849 -0.0235 -0.2844
62352W        W 5343  11.351   9.375  10.105 -0.2171  0.1357  0.1929
62353W        W 5344   7.743  15.775  26.826 -0.4010 -0.0910 -0.0629
62354W        W 5345   0.119  30.762   1.053  0.1450  0.1009  0.0299
62355W        W 5346  33.279  25.003  25.745 -0.0742 -0.1438 -0.1524
62356W        W 5347   0.170  12.014   8.673 -0.3780 -0.3412 -0.2537
62357W        W 5348   1.241   2.802   0.917 -0.2999  0.2680  0.0305
62358W        W 5349  18.491  12.350   3.162  0.0315 -0.0382  0.0176
62359W        W 5350   8.058  32.559   9.340  0.2405  0.0770  0.1658
62360W        W 5351   2.578  13.941  11.919 -0.0112 -0.2192 -0.1075
62361W        W 5352  33.548  27.196   1.532  0.3917 -0.0806  0.1407
62362W        W 5353  27.444  25.769   5.377  0.1180 -0.1327  0.2529
62363W        W 5354  29.120  19.640   2.188 -0.0410 -0.0224 -0.1433
62364W        W 5355  28.727  16.799   7.591  0.0656  0.0577 -0.0197
62365W        W 5356  19.774  25.690   6.178  0.1268 -0.0235 -0.2944
62366W        W 5357   6.246   7.592  19.125 -0.1486 -0.0612 -0.1189
62367W        W 5358  29.796  32.083   1.970  0.0254  0.0283 -0.2082
62368W        W 5359   7.384  25.241  10.073  0.0850  0.1279 -0.0678
62369W        W 5360  34.124  26.842  18.062  0.2197  0.0501 -0.0447
62370W        W 5361   5.974  31.866  16.558  0.0836  0.1284 -0.1191
62371W        W 5362  29.395  28.405  15.273 -0.2948  0.1022  0.0338
62372W        W 5363  11.474  12.849   1.825 -0.1950 -0.3580 -0.0694
62373W        W 5364  12.668  33.660   8.973  0.2948 -0.0528 -0.4485
62374W        W 5365  29.470  18.446   3.132 -0.0711  0.0553 -0.1083
62375W        W 5366   5.516  24.619   3.902 -0.0600 -0.2194 -0.3561
62376W        W 5367   5.118  12.216   9.647 -0.3111 -0.4057  0.0827
62377W        W 5368  32.492  24.146  21.127 -0.1653 -0.1161 -0.0559
62378W        W 5369  30.332  21.487   2.210 -0.2355  0.0889 -0.1648
62379W        W 5370  34.616   2.002  28.468  0.0394  0.1020 -0.0046
62380W        W 5371  25.328  29.644  22.161 -0.0741 -0.3332 -0.0086
62381W        W 5372   1.201  15.392  28.780  0.1443 -0.1301  0.1180
62382W        W 5373   8.394  10.245   5.868  0.0359 -0.3206  0.2298
62383W        W 5374   7.372  19.446   5.192 -0.0053  0.2113 -0.0076
62384W        W 5375  29.594  30.613  27.257  0.1095 -0.1235  0.3623
62385W        W 5376  33.943  22.183  22.880  0.0662  0.1617 -0.0530
62386W        W 5377   0.087  17.975  21.751 -0.0978  0.0222  0.1458
62387W        W 5378   4.968  11.662  22.241  0.0584 -0.1452 -0.0119
62388W        W 5379  33.553  31.714   4.761  0.0190  0.0383 -0.2443
62389W        W 5380  28.333  15.027  28.344 -0.0601 -0.1241 -0.4253
62390W        W 5381   2.691  25.969   0.348 -0.4870 -0.0809 -0.0421
62391W        W 5382  19.119   0.501  28.970 -0.1596  0.0448 -0.0545
62392W        W 5383  12.576  25.174   5.667 -0.0416  0.0775  0.2451
62393W        W 5384   7.341  21.140   4.960 -0.2859  0.0223  0.1409
62394W        W 5385   5.039   4.389  25.032 -0.0718 -0.1427 -0.0516
62395W        W 5386  22.227  24.553  26.348 -0.1306  0.1152 -0.0571
62396W        W 5387  33.845  19.146  16.936 -0.0398  0.1748  0.1423
62397W        W 5388   6.371  20.721   2.848 -0.0734  0.1004  0.0190
62398W        W 5389  27.697  25.986  29.074 -0.3138 -0.3008  0.0404
62399W        W 5390  13.808  29.193  23.887  0.1943  0.2241  0.1622
62400W        W 5391   8.625  19.948  10.261 -0.0188 -0.1752 -0.0750
62401W        W 5392   3.988   9.082  27.376 -0.1106 -0.1642  0.1285
62402W        W 5393   4.161  17.919  26.741 -0.1206  0.1644  0.0372
62403W        W 5394   3.070  29.722   3.379  0.1246  0.2952  0.0263
62404W        W 5395  23.287  14.293   6.149 -0.5799  0.1789  0.3594
62405W        W 5396  10.217  17.470   0.427  0.1729 -0.1200  0.0957
62406W        W 5397  14.274  25.438  24.308  0.1318  0.2699 -0.1253
62407W        W 5398  19.023   9.557  28.131  0.1237  0.2769  0.1192
62408W        W 5399   6.930  14.536  23.187  0.1077 -0.0178 -0.2080
62409W        W 5400  31.525  18.800   0.162  0.2881 -0.0588  0.1416
62410W        W 5401  29.972  28.019  25.644  0.1455 -0.3820 -0.0758
62411W        W 5402   7.903   9.450  15.512  0.1067  0.0507  0.2767
62412W        W 5403   4.060  26.644   0.388 -0.2252  0.1638  0.1788
62413W        W 5404  29.620  28.993   2.749 -0.3050 -0.1707  0.1721
62414W        W 5405  18.782  30.097  18.444 -0.3465 -0.1278 -0.0091
62415W        W 5406  34.126  28.457   8.059 -0.4525  0.2527  0.0963
62416W        W 5407  22.805   2.495   4.140  0.2738  0.4324 -0.0141
62417W        W 5408  19.756  12.438  28.581 -0.1623 -0.0480 -0.1224
62418W        W 5409  20.170   9.605   9.370  0.1581 -0.1506  0.0059
62419W        W 5410  30.364  18.641  10.070 -0.0665 -0.2834  0.0731
62420W        W 5411  11.997  27.474  10.016  0.0079 -0.2672  0.1571
62421W        W 5412   2.022  22.593   7.654  0.1554 -0.1230 -0.2257
62422W        W 5413   6.337  12.624  11.427  0.2400 -0.2651  0.2230
62423W        W 5414  32.812   8.671   6.787 -0.3095  0.1887 -0.1317
62424W        W 5415  15.556  20.919  22.598 -0.0544 -0.0655  0.1340
62425W        W 5416   7.482  15.355   4.132  0.0719 -0.1511 -0.2084
62426W        W 5417  33.100  31.201   4.000  0.0353 -0.3676 -0.0639
62427W        W 5418  20.433  18.769   5.305  0.0351  0.2057  0.0699
62428W        W 5419  34.557  15.888   3.734  0.0814  0.2041 -0.3109
62429W        W 5420  34.580  18.974  22.637  0.1194  0.0370  0.0773
62430W        W 5421  10.298  15.709   0.772 -0.1087 -0.4097 -0.3495
62431W        W 5422   5.086  23.502  10.773 -0.1632 -0.1078  0.0809
62432W        W 5423   5.501  30.982  15.774  0.0164 -0.3448 -0.0652
62433W        W 5424   7.892  17.205   3.078 -0.2026  0.3841  0.1045
62434W        W 5425  24.296  24.324   1.511 -0.1113 -0.2750  0.3293
62435W        W 5426  30.314  18.279   4.740 -0.0634 -0.0054  0.3347
62436W        W 5427   8.076  21.351  28.228 -0.3234  0.1160 -0.1547
62437W        W 5428   9.078  23.872  16.509 -0.0291  0.2123  0.1017
62438W        W 5429   3.421  22.383  25.467 -0.0581  0.1872  0.0554
62439W        W 5430  33.883   7.426   9.415 -0.1215 -0.0401 -0.2055
62440W        W 5431  27.086  11.728   0.487 -0.2642 -0.1935 -0.2131
62441W        W 5432  19.190   9.228   8.699  0.0035  0.1852 -0.1680
62442W        W 5433  14.052  25.725   3.280 -0.0284  0.1338 -0.1589
62443W        W 5434   5.984  32.332  14.530 -0.0830  0.1215  0.3856
62444W        W 5435   5.080  11.074  21.840 -0.2035 -0.1698  0.0871
62445W        W 5436   6.192  20.053  28.664  0.0151 -0.1641 -0.1481
62446W        W 5437  22.281  11.173   5.297 -0.2645  0.0143 -0.1107
62447W        W 5438  29.357  20.798   5.755  0.0636  0.0311  0.1262
62448W        W 5439  10.776  23.444  24.451 -0.1859 -0.0385  0.2812
62449W        W 5440  12.901  29.984   1.209  0.2542 -0.2956 -0.0429
62450W        W 5441   7.698  17.344  25.404  0.0426  0.1894 -0.4275
62451W        W 5442  30.298  20.933   5.467  0.0089 -0.1188  0.0224
62452W        W 5443   6.370   0.014  18.848 -0.1692  0.1633 -0.0712
62453W        W 5444  10.639  16.303   8.476  0.0505 -0.1325  0.4970
62454W        W 5445   7.764  31.429  14.405 -0.0856 -0.1909 -0.0191
62455W        W 5446   4.044   5.099   3.597 -0.0146  0.0248 -0.0711
62456W        W 5447  31.623   6.037  10.502 -0.2424 -0.0188 -0.0588
62457W        W 5448  32.900  24.054  21.833 -0.1209 -0.1701 -0.2245
62458W        W 5449  33.783  24.676   9.648 -0.1875  0.3005 -0.1498
62459W        W 5450  27.928  15.063  23.245  0.0142 -0.1768 -0.2380
62460W        W 5451   3.097  18.815  27.110 -0.1337 -0.0214  0.1132
62461W        W 5452   4.611  33.366  21.504  0.0477 -0.2745  0.0052
62462W        W 5453  34.135  34.303  23.702 -0.1307 -0.0009  0.1623
62463W        W 5454  31.673  28.047  13.659  0.1862  0.2212  0.1592
62464W        W 5455  32.548  18.819   8.469  0.1125 -0.3574  0.1669
62465W        W 5456   0.054  24.826   6.101  0.0978  0.1491  0.0704
62466W        W 5457  32.202  28.630   2.965 -0.0953  0.1138 -0.2389
62467W        W 5458  32.499  32.921  25.734 -0.0189  0.2187 -0.0266
62468W        W 5459   0.314  21.814  20.125 -0.1141 -0.4616  0.0747
62469W        W 5460   3.768  21.873  26.271 -0.2948 -0.1861  0.1912
62470W        W 5461   7.865   2.222  10.529 -0.0958  0.0667 -0.2051
62471W        W 5462   0.684  20.519   4.274 -0.0544 -0.2284 -0.1308
62472W        W 5463   6.624  24.745   4.551  0.0752  0.2642  0.2507
62473W        W 5464   8.447  12.070   7.974 -0.1190  0.0907 -0.0911
62474W        W 5465   4.836  21.485   4.261  0.2351 -0.2861  0.1374
62475W        W 5466   6.118  28.515   5.777 -0.0444 -0.0686 -0.2673
62476W        W 5467   1.569  27.559   4.979  0.0402  0.0214  0.2093
62477W        W 5468   2.548  17.661  27.620  0.1971  0.3792  0.1254
62478W        W 5469  27.534  32.337   3.805  0.0938  0.0574  0.0038
62479W        W 5470   2.623  17.257   1.608 -0.2881  0.1330  0.4231
62480W        W 5471   3.452  26.477  24.398  0.3243  0.3160 -0.0393
62481W        W 5472  25.671  10.981   6.071  0.0269  0.0593 -0.2672
62482W        W 5473  10.393  19.203   4.597  0.2115 -0.3097 -0.3373
62483W        W 5474  23.403   8.711   8.147 -0.1598 -0.0203 -0.1135
62484W        W 5475   1.951  13.669  27.727 -0.3010  0.2631 -0.0323
62485W        W 5476  26.764  24.791  22.088 -0.3843  0.2937 -0.1460
62486W        W 5477  29.284  18.532  26.700  0.1142  0.0906 -0.1161
62487W        W 5478  16.204  26.295  20.597 -0.1576  0.4309 -0.1607
62488W        W 5479   2.825  27.143  21.234  0.0644  0.1606 -0.0232
62489W        W 5480  33.168  17.867   7.785 -0.1002  0.1978  0.2491
62490W        W 5481  22.087  19.067   8.692  0.2679  0.1534  0.0719
62491W        W 5482  27.960  22.090   4.969 -0.0219 -0.1244 -0.1360
62492W        W 5483  34.565  18.947  16.834 -0.0470 -0.0309 -0.0402
62493W        W 5484   8.441  28.340   7.894  0.1453  0.1305 -0.1017
62494W        W 5485  30.738  20.743  18.150  0.0775  0.0495  0.0793
62495W        W 5486  27.697  12.197  22.069  0.2813 -0.0870  0.1143
62496W        W 5487   9.202  14.983   6.906  0.1779  0.0975  0.0867
62497W        W 5488   0.868  19.046   9.742  0.1301 -0.0682  0.0973
62498W        W 5489  25.528  23.523   6.842 -0.1126 -0.2051  0.4957
62499W        W 5490   5.345   3.672  22.964  0.1133  0.2974  0.2341
62500W        W 5491  34.010  14.663   0.258  0.2609 -0.0361 -0.0926
62501W        W 5492   0.690  10.466   7.729  0.0550  0.0251  0.1552
62502W        W 5493  31.911  21.106   3.512 -0.1509  0.0580 -0.1537
62503W        W 5494  16.328  32.920   2.681  0.0006 -0.2772 -0.0585
62504W        W 5495  25.073   0.546   9.107  0.0817  0.1872  0.1797
62505W        W 5496  20.679  24.251   6.927 -0.0374  0.0892 -0.0723
62506W        W 5497  27.156  20.772   0.265  0.1401 -0.0980  0.0925
62507W        W 5498  32.120  17.951   2.131 -0.2326  0.1409 -0.1103
62508W        W 5499  24.045   8.303   5.611 -0.3121  0.2068  0.0222
62509W        W 5500   7.753  19.930   1.323  0.0167  0.0843  0.1881
62510W        W 5501  26.806  24.510  18.322  0.1750  0.1634  0.0209
62511W        W 5502   5.697   0.475  28.667 -0.0480 -0.0189  0.1536
62512W        W 5503  15.789  31.399  29.104 -0.0462 -0.0232 -0.0842
62513W        W 5504  26.280  21.039   6.103 -0.1628  0.1205  0.0394
62514W        W 5505   3.932  29.884  19.890  0.0914 -0.1744 -0.1208
62515W        W 5506  34.149  27.142   9.389  0.3189 -0.1610 -0.1435
62516W        W 5507   6.268  23.226   4.752  0.0027  0.3853  0.3172
62517W        W 5508  27.891  30.418  18.164 -0.0126  0.0283  0.3997
62518W        W 5509   0.432  30.616   5.576  0.0414  0.1945  0.0708
62519W        W 5510  30.068  25.775  24.079 -0.2520 -0.0638 -0.0979
62520W        W 5511   3.410  32.425   7.989  0.2260  0.1349  0.1316
62521W        W 5512   9.925  17.028  25.318  0.2966 -0.5224  0.0306
62522W        W 5513  26.911  15.052   3.918  0.1960  0.1351 -0.4096
62523W        W 5514   7.079   3.562   0.633  0.1787  0.0183  0.0125
62524W        W 5515  28.754  19.183  19.775  0.3916 -0.2858 -0.3351
62525W        W 5516   8.123  23.699   9.862 -0.2532 -0.0142  0.0600
62526W        W 5517   7.278   7.150   4.762  0.1137  0.2775 -0.2091
62527W        W 5518   2.417   4.427   1.240  0.0094  0.2013  0.0907
62528W        W 5519   6.785  18.246  27.834  0.0588  0.1526 -0.0272
62529W        W 5520  14.629  31.384  19.537  0.1444  0.3362  0.2519
62530W        W 5521  13.866  23.157  17.326  0.0203  0.1252  0.0685
62531W        W 5522   5.833  11.845   2.554 -0.1555  0.1435 -0.1805
62532W        W 5523  28.990  27.375  22.106  0.1320  0.0590  0.1123
62533W        W 5524  20.534  33.576   5.814 -0.0485  0.0927 -0.2265
62534W        W 5525   9.756  32.679  16.888  0.1091  0.0254  0.1727
62535W        W 5526   1.557  22.543  21.127 -0.0217 -0.2870  0.1586
62536W        W 5527   3.675   7.109   8.807 -0.0181 -0.1082  0.0367
62537W        W 5528   5.136  24.630  25.553  0.1456  0.0254  0.0325
62538W        W 5529  24.066   8.232   1.149  0.0955 -0.0923  0.2071
62539W        W 5530   7.370   9.318  28.233  0.0970 -0.0398  0.2161
62540W        W 5531   7.215  26.592  17.612  0.2779 -0.0425  0.0915
62541W        W 5532   5.784   0.421  22.532 -0.0045  0.1563 -0.1594
62542W        W 5533   1.660  14.404  23.449  0.1399  0.4244  0.0698
62543W        W 5534  27.402  30.064  26.752  0.0920  0.2526 -0.1458
62544W        W 5535   5.949  23.770   9.215  0.0677  0.1906 -0.1197
62545W        W 5536  27.068  20.237   4.072  0.3005 -0.1474  0.0046
62546W        W 5537  12.560  27.352  25.279  0.2741 -0.1654  0.0146
62547W        W 5538  11.272  33.575  26.619  0.0420 -0.0081 -0.0124
62548W        W 5539  31.955  14.481   5.701  0.0186  0.2913 -0.3413
62549W        W 5540  28.872  19.390  15.459 -0.3407  0.1999 -0.3371
62550W        W 5541  33.602   3.278   5.574  0.1248  0.4258  0.0687
62551W        W 5542  33.061  23.069   3.104 -0.0590  0.1286  0.1011
62552W        W 5543  28.187  15.333   8.935  0.1485 -0.0536 -0.3331
62553W        W 5544   2.562  22.723   5.375  0.0238 -0.1799  0.0010
62554W        W 5545  24.557  22.376  26.073  0.4625  0.5220 -0.0591
62555W        W 5546  29.857  16.203   1.189 -0.1108 -0.0245  0.0932
62556W        W 5547  23.620  17.606   1.187 -0.0916  0.2246 -0.2772
62557W        W 5548  27.816  11.738  27.652 -0.1008  0.0596  0.0752
62558W        W 5549  16.835   6.537   2.863 -0.0955  0.0392 -0.1648
62559W        W 5550  22.874  19.180  24.351  0.0295  0.2355 -0.0462
62560W        W 5551  24.540  19.790  19.718  0.2477  0.2734  0.1480
62561W        W 5552  25.079  20.337  24.926  0.1031  0.0031 -0.1797
62562W        W 5553  20.791  23.808   3.909  0.0702  0.0054 -0.3220
62563W        W 5554  25.086  19.934   8.535 -0.0418 -0.0527  0.0408
62564W        W 5555   0.955  19.191   0.876 -0.0777  0.2746 -0.0710
62565W        W 5556  34.756  20.215   8.619  0.0500  0.1731 -0.0525
62566W        W 5557  10.840  30.101  15.456 -0.0832 -0.2674  0.0096
62567W        W 5558  30.940   0.900   6.740  0.2515  0.0800 -0.0961
62568W        W 5559   6.637  18.820  26.488  0.1003 -0.1502 -0.0293
62569W        W 5560   6.536  17.640   1.006 -0.0994  0.0788  0.1336
62570W        W 5561   6.796   9.637  21.446 -0.0731  0.1873 -0.0339
62571W        W 5562  12.263  29.475  24.742  0.1098 -0.3860  0.1560
62572W        W 5563  18.401  22.000   3.099  0.1314  0.1384  0.3287
62573W        W 5564   0.494  34.579   9.058 -0.0353 -0.0360 -0.3486
62574W        W 5565  11.187  31.222   7.252  0.0629 -0.2760 -0.1378
62575W        W 5566  33.231  18.168   8.236  0.1349  0.2509 -0.2618
62576W        W 5567  26.188  21.266  27.817  0.0349  0.0444 -0.2914
62577W        W 5568   1.590   5.080  11.258  0.0083 -0.1642 -0.2826
62578W        W 5569   3.287  29.686   2.860 -0.0298  0.0037 -0.3694
62579W        W 5570  30.126   0.146   6.713  0.2636  0.1634  0.1910
62580W        W 5571   4.741  14.084   5.844  0.0896  0.0436  0.2086
62581W        W 5572   7.716  13.763   3.893 -0.0418  0.0632  0.4749
62582W        W 5573  18.573   9.060   8.815  0.3056 -0.0738  0.1037
62583W        W 5574  33.277   1.909   1.836 -0.1193  0.1572 -0.1143
62584W        W 5575  16.417  20.690   5.880 -0.1719  0.0968  0.3232
62585W        W 5576   7.085  32.938   6.502 -0.1614  0.1254  0.0212
62586W        W 5577  25.559  23.817   8.102  0.0740 -0.0086  0.1858
62587W        W 5578  30.368  20.907  20.951 -0.0498  0.3451  0.3717
62588W        W 5579  29.436  26.716   8.080 -0.1424  0.2370  0.0280
62589W        W 5580  11.738  29.770   6.928 -0.1264 -0.0906 -0.0396
62590W        W 5581   4.818  24.461   7.098  0.2192 -0.1116  0.1599
62591W        W 5582  23.825  22.669  25.782 -0.1583 -0.0327  0.3061
62592W        W 5583   3.309  34.454   9.060  0.1666  0.2684  0.0479
62593W        W 5584   3.917  16.164   6.826 -0.2536  0.0759  0.0663
62594W        W 5585   0.914  31.394   1.038  0.2461 -0.5825 -0.0095
62595W        W 5586   2.123   9.673   3.082  0.2472 -0.2486 -0.2150
62596W        W 5587  28.890  16.172  19.003 -0.2124  0.1918  0.0499
62597W        W 5588  24.556   8.743  24.527 -0.2676 -0.0188  0.1800
62598W        W 5589   2.983  25.803   4.972 -0.0586  0.1540 -0.0601
62599W        W 5590  32.041  19.334   5.757 -0.0871  0.1157 -0.1426
62600W        W 5591  22.515  29.679   1.538  0.1828  0.2270 -0.1522
62601W        W 5592  22.185   7.059   4.375 -0.5340 -0.0624  0.4090
62602W        W 5593  22.106  19.655   1.273 -0.1202 -0.0115 -0.0882
62603W        W 5594  24.219  23.178  27.115  0.2247 -0.2135  0.1238
62604W        W 5595  18.476  15.595  25.788  0.0670  0.5576  0.0265
62605W        W 5596  13.740  22.886  22.828  0.0997  0.4139 -0.1030
62606W        W 5597  26.449  31.624   7.050  0.1056 -0.0225 -0.0818
62607W        W 5598  13.090  33.906  21.411 -0.0188  0.1855 -0.0587
62608W        W 5599   6.961  24.817   2.152  0.0902 -0.1908  0.3821
62609W        W 5600   1.528  18.070  25.859 -0.3663  0.0486  0.0099
62610W        W 5601   4.090   9.601   9.539  0.1615  0.0162 -0.4079
62611W        W 5602   3.558  29.476   6.266  0.0786 -0.0010 -0.2599
62612W        W 5603  21.820   8.136   0.956 -0.0736 -0.1100 -0.0564
62613W        W 5604   1.577   4.666   3.370 -0.1153 -0.1576 -0.1933
62614W        W 5605   7.354   6.946  27.107 -0.0123 -0.2029 -0.2153
62615W        W 5606   1.705  29.201   2.894  0.3581 -0.1726  0.0825
62616W        W 5607  27.391  20.860   8.853  0.1542 -0.3419  0.1411
62617W        W 5608   7.373  21.246  28.784 -0.1053  0.0256  0.1084
62618W        W 5609   2.056  12.087  25.227 -0.0624  0.2907  0.3255
62619W        W 5610  32.073   2.597   6.067 -0.1020  0.2039 -0.0978
62620W        W 5611  26.894  21.498  23.336  0.1605 -0.1141 -0.1819
62621W        W 5612   7.581  23.277  21.774  0.4689 -0.0123 -0.0263
62622W        W 5613  26.214  23.005   7.549  0.1121  0.0005 -0.1966
62623W        W 5614  19.311  21.813  22.985  0.1516  0.2111  0.1227
62624W        W 5615  31.714  20.013   7.665 -0.1775  0.3874 -0.0761
62625W        W 5616  12.482  24.708  16.672 -0.1510  0.0820 -0.1585
62626W        W 5617   7.803  19.881   7.378 -0.0246  0.0345  0.2737
62627W        W 5618  11.548  11.524   6.798  0.1925 -0.2947 -0.2961
62628W        W 5619   4.762  30.328   5.988  0.0286  0.2343 -0.1210
62629W        W 5620   3.299  32.060   6.710 -0.0685  0.2719  0.1700
62630W        W 5621  27.312  14.776  27.421  0.1032 -0.2812  0.3059
62631W        W 5622   3.859  10.463   2.940  0.3756 -0.3452 -0.2080
62632W        W 5623   1.526   8.873  23.464  0.3488 -0.1941 -0.2182
62633W        W 5624   5.518  23.965   4.458  0.2481  0.0307  0.0130
62634W        W 5625  28.716   8.688   5.306 -0.1528  0.5562  0.3033
62635W        W 5626   2.240  16.107   3.145 -0.1229 -0.0324  0.0396
62636W        W 5627   3.861  17.972   9.538 -0.0158  0.0241 -0.0895
62637W        W 5628   5.607  23.560   0.703 -0.1298 -0.0516 -0.0702
62638W        W 5629  26.339  27.857   7.053 -0.0844  0.0388 -0.0910
62639W        W 5630  30.138  29.376  19.925  0.2089  0.4330 -0.3880
62640W        W 5631   4.534  16.839   3.276 -0.1231 -0.0166  0.0693
62641W        W 5632   0.730  20.424  10.320  0.2007  0.2990  0.0895
62642W        W 5633   4.043  30.154   4.401 -0.0167  0.1088 -0.1123
62643W        W 5634   4.124  25.893  28.981 -0.1197 -0.1286  0.0470
62644W        W 5635  30.293  15.724   1.881 -0.3568  0.2151 -0.1500
62645W        W 5636  30.984  28.377   7.396  0.1208 -0.0816 -0.0998
62646W        W 5637  28.176  26.922  14.922  0.0876  0.2043  0.0622
62647W        W 5638   0.923  24.893  20.804  0.1143  0.0057 -0.3501
62648W        W 5639  22.398  15.600  22.866  0.0667 -0.0256  0.2823
62649W        W 5640  24.821  10.424   9.873 -0.3074 -0.1830  0.1235
62650W        W 5641   5.254  23.320   6.459 -0.1903 -0.2386 -0.2328
62651W        W 5642   2.750  28.858   0.703 -0.1192 -0.4232 -0.1147
62652W        W 5643   1.467  12.471   0.430  0.1747 -0.1274 -0.2804
62653W        W 5644   6.524  16.993  26.776 -0.0295  0.1845  0.1641
62654W        W 5645   3.981  17.167  25.355 -0.0765  0.1281  0.0227
62655W        W 5646   4.248  12.718   5.795  0.1802 -0.1328 -0.0147
62656W        W 5647   2.842  15.934  19.209  0.1413 -0.0051  0.1039
62657W        W 5648   6.531  14.284   2.103 -0.1586  0.2809  0.1668
62658W        W 5649   8.228  32.116  28.994 -0.1191 -0.0866  0.1905
62659W        W 5650   2.361  14.968   8.998 -0.0021 -0.4173 -0.3084
62660W        W 5651   4.359  14.407  10.474 -0.3196 -0.1888  0.1671
62661W        W 5652   4.495  32.020   6.853 -0.1450  0.1653  0.0479
62662W        W 5653   5.367  31.944   7.498  0.0342 -0.1846 -0.1791
62663W        W 5654  25.858  21.044  21.142  0.2286 -0.1346  0.2697
62664W        W 5655   4.560  22.208   9.555  0.2432  0.1805  0.1403
62665W        W 5656  33.441  17.273   1.631  0.0862 -0.2218 -0.0469
62666W        W 5657   2.846  21.383   9.361 -0.0135  0.0676  0.2146
62667W        W 5658  10.936  12.415  10.512  0.4010  0.0051  0.0176
62668W        W 5659  10.280  28.336   8.224 -0.2763  0.4266 -0.0408
62669W        W 5660   0.161  30.610  24.487  0.1919  0.0697 -0.1123
62670W        W 5661   5.702  19.019   6.120 -0.0183 -0.1033 -0.1064
62671W        W 5662   4.895  23.215   7.247 -0.1386  0.0748  0.2377
62672W        W 5663  34.670  15.130   2.620  0.0656 -0.2239  0.1613
62673W        W 5664  23.367   2.537  25.187 -0.0123 -0.0632  0.4011
62674W        W 5665  15.970  16.187  26.544  0.2064  0.3994 -0.2664
62675W        W 5666   8.447  16.634   8.670 -0.0806 -0.2008  0.1938
62676W        W 5667   3.526  14.907   9.110  0.0577  0.0304  0.0611
62677W        W 5668   4.629  25.702  25.743  0.0255  0.0466 -0.1211
62678W        W 5669  33.954  22.446   8.304 -0.0467  0.0050 -0.2159
62679W        W 5670  14.408   0.268  10.223 -0.0975 -0.2248 -0.3401
62680W        W 5671  12.416  30.879   6.374 -0.0924 -0.1475 -0.2705
62681W        W 5672   4.650  24.414   3.339 -0.2341  0.0927  0.1533
62682W        W 5673   4.187  23.134   7.468 -0.1772  0.1659 -0.2338
62683W        W 5674  23.272  21.290   0.858  0.1035  0.0064 -0.2693
62684W        W 5675  32.285  16.017   8.851  0.0231 -0.0718 -0.2626
62685W        W 5676  14.885  23.331  28.967  0.0409 -0.0991 -0.0396
62686W        W 5677   3.592  18.161   4.006  0.1682  0.1856 -0.0163
62687W        W 5678  33.475  28.774   4.581 -0.0991 -0.2814 -0.0160
62688W        W 5679  18.237   0.393  29.104  0.0316 -0.2297  0.3994
62689W        W 5680  34.444   8.586   9.857 -0.0489 -0.1522  0.0729
62690W        W 5681  10.994  13.956   1.355 -0.1835  0.1908  0.2403
62691W        W 5682  31.397  32.093  23.905 -0.1139  0.2322 -0.0362
62692W        W 5683  27.049  23.167   9.615 -0.2429  0.3000 -0.2600
62693W        W 5684   8.994  17.612   7.990 -0.0533  0.0878  0.3679
62694W        W 5685   7.415  14.435   3.218  0.1551  0.1038 -0.1662
62695W        W 5686  26.975   4.654  26.859  0.0131  0.2671  0.1609
62696W        W 5687  33.868  22.905  27.145 -0.3348  0.0524  0.1313
62697W        W 5688  33.073  10.908  19.331 -0.0587  0.0984  0.1399
62698W        W 5689  11.223  25.104   3.548  0.1449 -0.2376  0.0795
62699W        W 5690   0.815  23.092   6.870 -0.2971 -0.2140  0.0324
62700W        W 5691   8.348  26.461   7.981 -0.2738 -0.1756 -0.1265
62701W        W 5692   5.962  13.166   4.859  0.1246 -0.0691  0.3411
62702W        W 5693  32.231  29.763   6.033  0.1903  0.0326 -0.4819
62703W        W 5694  18.760  22.917   5.348 -0.1105 -0.1187  0.2056
62704W        W 5695   4.532  11.012   7.795  0.2373 -0.0132  0.1812
62705W        W 5696  12.638   8.891   9.727 -0.1588  0.1666  0.1927
62706W        W 5697   3.677  34.271  25.923 -0.3721  0.0078 -0.1075
62707W        W 5698  29.857  18.569   3.684 -0.2579 -0.0426 -0.0249
62708W        W 5699  27.000  30.688  26.487 -0.0814 -0.0330  0.1551
62709W        W 5700   0.128  28.801   6.951 -0.0673  0.2234 -0.1427
62710W        W 5701  32.875   0.038  17.242  0.2207  0.1654 -0.1509
62711W        W 5702  26.531  11.974   7.441 -0.0788 -0.0077 -0.0972
62712W        W 5703  31.304  13.981   1.184 -0.2225 -0.0545 -0.0393
62713W        W 5704  21.752  13.649   5.574 -0.1437 -0.2077  0.1437
62714W        W 5705  11.827  31.249  28.188  0.0901  0.0279  0.1685
62715W        W 5706  23.520  29.487   2.595 -0.2011 -0.4362  0.2699
62716W        W 5707   6.851  31.033   2.389  0.3199  0.1187 -0.0149
62717W        W 5708  26.502  14.326   7.897 -0.1811 -0.1637 -0.0587
62718W        W 5709  21.408   8.719   5.869 -0.2847  0.0444 -0.2884
62719W        W 5710   8.652   9.293  10.723 -0.2237  0.0291 -0.3373
62720W        W 5711   6.605  30.131   6.850  0.0906  0.0392 -0.0094
62721W        W 5712   7.347  22.783  27.386  0.0661 -0.0042  0.2002
62722W        W 5713  24.766  10.777   7.429  0.2731 -0.1629 -0.2742
62723W        W 5714   4.681  23.508   8.640 -0.2705  0.2614  0.0233
62724W        W 5715   4.531  26.181  28.692  0.1893 -0.5092 -0.0782
62725W        W 5716  26.841  17.953   1.038 -0.1196 -0.0633 -0.2054
62726W        W 5717  24.493  14.294   4.408 -0.1871 -0.1384 -0.1771
62727W        W 5718  14.274  24.298  27.363  0.0311 -0.0149 -0.1017
62728W        W 5719   7.839  23.276  26.787  0.2709  0.0708  0.3674
62729W        W 5720  18.284  27.272   6.716  0.1105 -0.0533 -0.0689
62730W        W 5721  16.631  30.213   6.892 -0.1496  0.0858 -0.1565
62731W        W 5722  31.806  11.841   3.126  0.1995 -0.1761 -0.2475
62732W        W 5723  30.128  12.712  10.708  0.2411 -0.0866  0.1511
62733W        W 5724   9.539  26.876   9.982  0.1817  0.0510 -0.0152
62734W        W 5725   3.036  18.969   3.606 -0.0557  0.1714  0.0007
62735W        W 5726   1.295  19.717   9.180 -0.0401  0.0768  0.1440
62736W        W 5727  28.409  27.321  20.114 -0.0801 -0.0677 -0.1578
62737W        W 5728  33.303  19.208   2.900 -0.3026  0.2678  0.4119
62738W        W 5729   3.274   1.236   3.377  0.0687 -0.0176  0.0991
62739W        W 5730   5.689  15.630   9.905  0.2785 -0.2517 -0.1139
62740W        W 5731   5.406  17.342   4.752  0.1098 -0.1962  0.0973
62741W        W 5732   3.414  23.826   7.528 -0.0602  0.0056 -0.0144
62742W        W 5733   2.713  11.562  10.212 -0.0307 -0.4055 -0.3036
62743W        W 5734  29.876  15.507   4.953 -0.2262  0.0673 -0.1232
62744W        W 5735  12.534  29.666  18.792 -0.0534 -0.3085 -0.1245
62745W        W 5736   0.566  19.512  22.049  0.0059 -0.0380 -0.2854
62746W        W 5737   3.863  28.534   9.387  0.1124 -0.1130  0.2863
62747W        W 5738   4.491  34.326  27.520 -0.0919 -0.0450  0.4504
62748W        W 5739  10.644  30.730   6.356  0.0010 -0.0221 -0.0138
62749W        W 5740  27.946   6.795   4.921 -0.2549  0.0533 -0.0872
62750W        W 5741   8.042  24.756  22.855 -0.0554 -0.0911  0.1259
62751W        W 5742   4.742  22.902   2.729  0.1797 -0.4543 -0.0540
62752W        W 5743  10.235  16.362   4.290 -0.0861 -0.0266  0.0467
62753W        W 5744  25.978   9.662   7.534  0.2162 -0.0473  0.2590
62754W        W 5745  19.348   0.930  23.226 -0.2515  0.1234  0.0905
62755W        W 5746  28.145  33.789   7.018 -0.0189 -0.1587  0.2988
62756W        W 5747  30.261   0.958  29.202 -0.0645  0.1245  0.0696
62757W        W 5748  29.777  20.324   1.834 -0.0772  0.2629  0.1354
62758W        W 5749   6.460  19.839  27.394  0.0663  0.0114 -0.2348
62759W        W 5750   3.004  23.497  15.841  0.0380  0.0181 -0.0570
62760W        W 5751  17.899  18.427  23.886 -0.0538 -0.1400 -0.2437
62761W        W 5752   4.123   7.242   4.928 -0.3959  0.4426  0.0340
62762W        W 5753  32.245  14.302  25.697 -0.0270  0.0492  0.3237
62763W        W 5754  27.320  29.537  19.115  0.0455 -0.1545 -0.0126
62764W        W 5755   0.827  23.823   8.869 -0.1057  0.0684 -0.0971
62765W        W 5756  12.051  23.158   3.328  0.0186 -0.1280 -0.2648
62766W        W 5757   8.329  30.765   9.163 -0.1171 -0.0738 -0.1781
62767W        W 5758   7.074  33.057   8.380 -0.0531 -0.0168 -0.0096
62768W        W 5759  31.275   8.729   8.018 -0.1571 -0.1966  0.0155
62769W        W 5760   0.019  21.526  29.060 -0.2326 -0.5392 -0.1235
62770W        W 5761   8.788   6.783  18.013 -0.0302  0.1063 -0.1806
62771W        W 5762  30.426  17.227   8.005  0.0796  0.0717  0.0839
62772W        W 5763   1.504  23.677   3.333  0.1650 -0.0665 -0.1752
62773W        W 5764  10.940  33.842   2.576 -0.0068  0.1044 -0.1537
62774W        W 5765  12.697  19.748   1.371  0.0914  0.1299 -0.0106
62775W        W 5766   0.729  22.879  23.427 -0.0270 -0.0934 -0.0592
62776W        W 5767   6.541  23.473   4.131 -0.2573  0.4170  0.3149
62777W        W 5768   6.068  30.477   2.709  0.3408  0.0656  0.2774
62778W        W 5769  13.436  23.557  25.382 -0.2999  0.5228 -0.0749
62779W        W 5770   6.444  19.643   0.871 -0.0245 -0.0984 -0.1624
62780W        W 5771  24.963  33.328   2.069  0.1962  0.0181  0.0603
62781W        W 5772  33.567  22.519   7.916  0.1873  0.1057 -0.2574
62782W        W 5773  23.819  22.260   3.775 -0.1966 -0.2992 -0.0629
62783W        W 5774  13.434   7.889   0.130 -0.0216 -0.0348 -0.0244
62784W        W 5775  33.182  31.008  14.693 -0.0920 -0.0261 -0.0105
62785W        W 5776  32.935  13.892   3.668  0.0243 -0.0953  0.0919
62786W        W 5777  28.497  30.917   7.232  0.0111  0.0704  0.1488
62787W        W 5778   1.448  23.265   4.872  0.3599 -0.0452 -0.0953
62788W        W 5779  11.257  12.816   5.687  0.2046  0.0574 -0.2006
62789W        W 5780  11.472  16.750  27.501  0.0621 -0.2151 -0.0605
62790W        W 5781   8.263  25.509  18.376 -0.0270 -0.1836 -0.2303
62791W        W 5782  12.504  15.378   6.162  0.3481  0.1637  0.2679
62792W        W 5783   2.216   4.925  10.057  0.1099  0.3310 -0.0286
62793W        W 5784   9.704  20.043  27.385 -0.1464  0.1867  0.0167
62794W        W 5785  33.493  22.238   0.230 -0.1942  0.2327  0.1117
62795W        W 5786  17.312  26.212   6.398  0.1259  0.0085 -0.0575
62796W        W 5787  34.792  29.399   1.834 -0.2165 -0.1285 -0.0178
62797W        W 5788  11.561  17.991   5.008  0.0824  0.0712  0.2579
62798W        W 5789   8.261  17.655  25.482 -0.1723  0.1110 -0.0598
62799W        W 5790   1.792  23.178   3.045 -0.0476  0.1820 -0.2350
62800W        W 5791   3.646  13.628  29.063  0.2750 -0.0526  0.1959
62801W        W 5792  14.590  34.001   1.417 -0.0388 -0.2400  0.4925
62802W        W 5793  28.923  18.112   8.481 -0.2642  0.2825  0.1355
62803W        W 5794   2.958  14.626   8.418  0.1862  0.0181  0.0256
62804W        W 5795  31.211  23.626   6.567  0.0458  0.1261 -0.1797
62805W        W 5796  30.086  16.392   5.210 -0.1772  0.0142 -0.2612
62806W        W 5797   3.518  26.707   8.844  0.0449  0.2037  0.1134
62807W        W 5798  19.791  16.568   7.522 -0.3577  0.0856  0.0597
62808W        W 5799  34.131  23.102  23.012 -0.2544 -0.1477 -0.1495
62809W        W 5800  33.232  24.054   2.920  0.2124 -0.0699  0.1211
62810W        W 5801   5.312  31.075  18.683 -0.2793  0.0160 -0.3123
62811W        W 5802   5.087  32.557  27.836  0.0469  0.0998  0.0548
62812W        W 5803  23.212  29.182  21.803  0.1440 -0.2693  0.1594
62813W        W 5804  12.176  17.894   2.446 -0.0459  0.2894 -0.2028
62814W        W 5805   8.475  22.408   2.772  0.3895  0.1533  0.1404
62815W        W 5806   4.474  31.748   8.256  0.0302  0.2778 -0.0636
62816W        W 5807   5.704   1.435   0.398 -0.1558  0.0597 -0.0877
62817W        W 5808  31.233  17.906   5.268 -0.1049 -0.0965 -0.2879
62818W        W 5809  30.479  22.696   1.400 -0.2616  0.2691  0.1634
62819W        W 5810  20.925  19.496   3.631 -0.1104 -0.0440 -0.1670
62820W        W 5811  28.539  30.314   1.743  0.0123 -0.4840 -0.1967
62821W        W 5812  21.172  20.163   1.509 -0.1780  0.0640 -0.2269
62822W        W 5813   4.372  17.289  22.988 -0.0115 -0.0801 -0.2444
62823W        W 5814  30.985  27.419   5.824 -0.3878  0.3612  0.2893
62824W        W 5815  34.517  20.441   0.913  0.0494 -0.0025  0.4208
62825W        W 5816  26.283   7.852   1.254 -0.1200  0.2154  0.0900
62826W        W 5817   9.886  31.991  26.612  0.0490 -0.4242 -0.3512
62827W        W 5818   8.756  22.466   8.112  0.2368  0.0219  0.4829
62828W        W 5819  31.892  18.228  26.926 -0.0202 -0.0387 -0.0271
62829W        W 5820   0.435   3.311  17.428 -0.1446  0.0694  0.1171
62830W        W 5821   2.170  31.429   2.209  0.0218 -0.0301  0.1077
62831W        W 5822  25.310  19.493   8.667  0.0822  0.0337 -0.0536
62832W        W 5823  13.337  14.670  17.350  0.2970  0.0641 -0.2136
62833W        W 5824   3.530  20.304  11.102  0.2277  0.2568  0.1080
62834W        W 5825   2.073   5.762   7.085 -0.0748 -0.1519 -0.3887
62835W        W 5826   2.154   7.686  10.731  0.4051  0.1742 -0.1554
62836W        W 5827  22.745  13.528  19.618 -0.1775  0.1808  0.0386
62837W        W 5828   1.363  18.571   7.352  0.0698  0.2258  0.3085
62838W        W 5829   1.827  18.250  26.601 -0.1924  0.0558  0.0207
62839W        W 5830  33.917  29.907   3.017  0.1340  0.0033 -0.0503
62840W        W 5831  24.080  32.157   5.024 -0.1403  0.1485  0.1741
62841W        W 5832  17.849  28.512  22.794 -0.3495  0.1565  0.2478
62842W        W 5833  31.542  28.293   1.416 -0.0979 -0.0918 -0.1047
62843W        W 5834   0.089   3.127   3.808  0.0306 -0.1039  0.0977
62844W        W 5835  18.719  22.936   7.545 -0.2048  0.1272  0.4230
62845W        W 5836   6.924  24.666  28.004 -0.1703  0.1283 -0.1461
62846W        W 5837   0.836   2.520   7.369  0.1627 -0.1118  0.0409
62847W        W 5838  28.382  27.934   8.660  0.2081 -0.2155 -0.0010
62848W        W 5839  32.836  15.820  19.416  0.1687  0.2660  0.0257
62849W        W 5840   3.371   0.938  26.958  0.2640 -0.0951  0.1929
62850W        W 5841  12.249  24.373   8.423  0.1262  0.3763  0.0372
62851W        W 5842   2.890  20.908   9.442 -0.2677 -0.1629 -0.0217
62852W        W 5843  29.185   0.133   6.814 -0.0405 -0.3971  0.0179
62853W        W 5844   1.614  29.264   4.707  0.4702 -0.2316 -0.1228
62854W        W 5845  16.168  32.823  27.170 -0.0259  0.1524  0.1675
62855W        W 5846  25.434  31.313  15.546 -0.1006 -0.2239  0.4325
62856W        W 5847  32.253   5.367   4.508 -0.0378  0.0898 -0.0909
62857W        W 5848   4.657  18.414  10.388 -0.3675  0.0539  0.0385
62858W        W 5849  33.726  11.268   4.012  0.1253  0.2551  0.3603
62859W        W 5850   7.132  10.954   6.538  0.2324  0.2144 -0.2290
62860W        W 5851  18.805   3.249   8.725 -0.0200 -0.1417 -0.0177
62861W        W 5852  26.198   6.856   9.140 -0.0796 -0.3741  0.0607
62862W        W 5853  32.243  11.910  27.450  0.0988 -0.2538  0.1465
62863W        W 5854  33.780  25.642   9.452 -0.1916  0.0464  0.2139
62864W        W 5855  30.404  23.991   5.350  0.0830 -0.2329  0.1248
62865W        W 5856   5.474   2.304  27.607 -0.0735  0.0427  0.5128
62866W        W 5857  21.716  10.945   1.831  0.0294  0.1482 -0.2701
62867W        W 5858   8.861  27.316   0.428  0.0156  0.3333  0.0945
62868W        W 5859   4.489  17.608  25.632 -0.2429 -0.0013  0.1603
62869W        W 5860  34.521  30.784  24.291 -0.2527 -0.1309 -0.2508
62870W        W 5861   2.527  24.513   4.965  0.3530 -0.1964  0.1084
62871W        W 5862  11.008  20.775  24.950  0.1765  0.0378 -0.2238
62872W        W 5863   9.425  29.164   9.140  0.2228  0.2930  0.1010
62873W        W 5864  17.782  26.483   1.712 -0.2131  0.0804  0.0290
62874W        W 5865  12.783   3.995  21.888  0.0546 -0.0853 -0.1851
62875W        W 5866   6.996  14.638  25.044 -0.1011 -0.2243 -0.2699
62876W        W 5867  33.882   1.278   1.498  0.1338  0.2621 -0.0632
62877W        W 5868   4.277   0.914  16.213 -0.5758  0.2307 -0.3102
62878W        W 5869  21.642  12.866  17.370  0.0863 -0.1362  0.0783
62879W        W 5870  30.625   5.931   8.648  0.3380 -0.1457 -0.2986
62880W        W 5871  14.109   3.597   4.067  0.0502  0.1390  0.0446
62881W        W 5872  27.179  23.292   2.100 -0.1730  0.2057  0.1064
62882W        W 5873   1.531  15.580   0.889  0.0136  0.1489 -0.0484
62883W        W 5874  26.990  24.902   9.012 -0.0051  0.1443 -0.1762
62884W        W 5875   5.633  21.794  28.049  0.0874  0.1856 -0.2974
62885W        W 5876  30.834  25.792  26.937 -0.1961 -0.2502  0.3224
62886W        W 5877   2.793  11.697   1.320 -0.2880  0.0756 -0.0558
62887W        W 5878  25.805  33.724   7.084 -0.0149 -0.1051 -0.1771
62888W        W 5879  28.053  15.316  25.282 -0.0763  0.1083  0.2598
62889W        W 5880  30.362   3.968  16.561  0.1403 -0.2173  0.1222
62890W        W 5881  31.335   0.247   1.822  0.2194 -0.1662 -0.0301
62891W        W 5882   8.471  28.060  10.141  0.2627 -0.0738  0.0162
62892W        W 5883  34.657  28.351  18.672 -0.1852  0.5355 -0.0423
62893W        W 5884  26.535   6.272   6.065  0.1297 -0.1721  0.0888
62894W        W 5885   1.491  25.225   8.318  0.3159 -0.1950  0.0879
62895W        W 5886  29.409  10.045  26.588 -0.0144  0.0412 -0.0954
62896W        W 5887   8.920  21.588   7.572  0.2029  0.2048 -0.0937
62897W        W 5888  32.402   3.868  18.369  0.2072 -0.0172 -0.0779
62898W        W 5889  15.571  32.929  25.795 -0.1221 -0.0226 -0.0109
62899W        W 5890  19.336  18.091   6.474  0.0749 -0.1464  0.1974
62900W        W 5891   7.001  22.914   8.068 -0.0493  0.2759  0.1237
62901W        W 5892  33.730  21.391   7.705  0.1866 -0.2806  0.2020
62902W        W 5893  29.459  23.334   5.940  0.2077  0.1089  0.3288
62903W        W 5894   4.926  28.755   6.880 -0.0580 -0.1317  0.1860
62904W        W 5895  33.299  16.887  21.764  0.0491  0.3179  0.0134
62905W        W 5896  21.107  25.582   0.153 -0.1262  0.0600  0.0580
62906W        W 5897   9.947  15.775   8.906  0.2427  0.0617  0.0739
62907W        W 5898  16.116   1.044  23.793  0.1222  0.1973  0.3349
62908W        W 5899   6.738  32.572   0.692  0.0182  0.0365 -0.1668
62909W        W 5900  23.843  19.965  28.696  0.1977 -0.3182  0.0010
62910W        W 5901   8.469   6.308   6.449 -0.0653  0.2227  0.0163
62911W        W 5902  15.399  27.616   3.304 -0.0255  0.3749  0.0588
62912W        W 5903  30.891  29.231   3.045 -0.1891 -0.2115  0.2107
62913W        W 5904  10.407  21.180  16.770  0.0574 -0.1461  0.1368
62914W        W 5905  27.992   9.915   1.608  0.2926  0.0159  0.1036
62915W        W 5906  28.284   5.468   2.856  0.1388 -0.2428 -0.0486
62916W        W 5907   3.683   7.506   1.311  0.0246  0.2198  0.0106
62917W        W 5908  34.358   1.558   6.562  0.1359  0.1115  0.4595
62918W        W 5909   6.229  20.941  21.100 -0.5199  0.1323  0.0306
62919W        W 5910  11.052  25.112   5.019 -0.0893 -0.2865 -0.0595
62920W        W 5911  27.224  12.609  23.661 -0.0744 -0.1186  0.1382
62921W        W 5912  15.471  28.227  28.175 -0.1383  0.2878  0.0306
62922W        W 5913  28.757  28.669  17.423 -0.0769 -0.2525 -0.0269
62923W        W 5914   9.278  20.127   3.951  0.0299 -0.1954  0.1214
62924W        W 5915  15.424  22.952  23.679  0.3503 -0.0814 -0.2203
62925W        W 5916  16.462  27.384   9.716  0.0174 -0.2459  0.3035
62926W        W 5917  29.775  27.065   7.417 -0.1385 -0.2062  0.2354
62927W        W 5918   2.036   1.300  29.244 -0.3873 -0.0290  0.0889
62928W        W 5919   8.784  33.825   8.989 -0.0721 -0.0601  0.3192
62929W        W 5920   6.243  22.122   2.389 -0.0328 -0.0980  0.0201
62930W        W 5921   6.593  26.573   1.555  0.1372 -0.0291  0.2358
62931W        W 5922  32.532  28.270   4.809  0.1846 -0.0038 -0.1608
62932W        W 5923  22.881   2.960   4.259 -0.0829  0.2984 -0.2272
62933W        W 5924  13.707   5.913  19.164  0.0784 -0.0124 -0.2425
62934W        W 5925  10.955   9.843   7.821 -0.1463 -0.2858  0.0330
62935W        W 5926   5.797  31.034   6.256 -0.0922  0.2530 -0.0256
62936W        W 5927  15.281  24.738   6.090 -0.3175 -0.0072  0.3240
62937W        W 5928  32.591  21.172   4.443  0.1932  0.0584  0.1031
62938W        W 5929   9.076  30.381   5.384  0.2656 -0.1771  0.1441
62939W        W 5930   8.404  20.144   3.974 -0.0663 -0.2985  0.0271
62940W        W 5931  25.248  21.559   4.581 -0.0613 -0.0472 -0.0249
62941W        W 5932   2.922  24.481   0.989 -0.1673  0.1447  0.3166
62942W        W 5933  20.272  29.971   8.006  0.0009 -0.0161 -0.1146
62943W        W 5934   6.922  24.688  22.176  0.0601 -0.0762  0.1041
62944W        W 5935  28.819  21.736  16.050 -0.2865  0.0045 -0.2321
62945W        W 5936  24.794  32.641  16.859 -0.1629 -0.0823  0.1187
62946W        W 5937  29.095  15.587   3.736 -0.2732  0.0996 -0.1756
62947W        W 5938  27.807   1.603   1.083 -0.3217 -0.1584  0.2316
62948W        W 5939  18.109  28.355   6.876  0.5425  0.3607  0.3078
62949W        W 5940  25.255  22.542   9.192  0.1162 -0.2043 -0.0849
62950W        W 5941   0.912   4.339  20.434 -0.0083  0.0651  0.0868
62951W        W 5942  32.623  13.676  19.324 -0.0128  0.0772 -0.4613
62952W        W 5943   3.112  17.983   8.655  0.1347 -0.0789 -0.1060
62953W        W 5944   1.008  18.401   9.936  0.2247  0.3789 -0.0167
62954W        W 5945   5.782  18.731  10.068 -0.0084  0.1387 -0.1786
62955W        W 5946  24.230  29.361   5.476  0.1900  0.0201 -0.0121
62956W        W 5947  33.686  21.691  13.835 -0.2951  0.1360  0.1002
62957W        W 5948   0.829  12.416  10.679  0.2086 -0.0684  0.0729
62958W        W 5949  22.175  10.379   8.089 -0.2929 -0.0684  0.1252
62959W        W 5950  31.724  20.761  28.431  0.0111 -0.0931  0.0006
62960W        W 5951  31.025  17.628  11.302 -0.0167 -0.3416 -0.0636
62961W        W 5952   1.724  30.542  25.029 -0.0360  0.3731  0.1538
62962W        W 5953  10.967  18.831  28.900 -0.2488  0.3927  0.2273
62963W        W 5954  33.272  24.884   0.354  0.4174 -0.0222  0.0613
62964W        W 5955   5.951  19.764   3.378  0.1986  0.1104  0.1989
62965W        W 5956  32.766  15.431   7.898  0.0266  0.0891 -0.2629
62966W        W 5957   2.821  23.830  26.332 -0.0276  0.1363 -0.2723
62967W        W 5958   4.006   1.899   9.027 -0.0625 -0.2051 -0.1281
62968W        W 5959  31.580   3.456  24.860 -0.2115 -0.0138  0.2564
62969W        W 5960   4.540  21.549  14.984 -0.0389 -0.1559 -0.1883
62970W        W 5961   1.323  26.456   9.622  0.3188 -0.2020 -0.0837
62971W        W 5962  10.693  14.966  21.687 -0.1737 -0.0131 -0.0529
62972W        W 5963   6.871  33.795   9.977  0.1373 -0.0575 -0.1766
62973W        W 5964   2.091  15.277  23.161  0.1497 -0.5532  0.0347
62974W        W 5965  29.408  18.418  29.077 -0.2301  0.2997  0.1990
62975W        W 5966   2.311  21.381   0.066 -0.0531  0.1228  0.0092
62976W        W 5967  29.946  30.773  28.743 -0.0723  0.2403  0.3437
62977W        W 5968  32.302  14.921   7.917  0.0196 -0.2113 -0.1642
62978W        W 5969  14.703  33.673  26.623  0.1317  0.1435 -0.0077
62979W        W 5970  10.890  19.777   4.188  0.3025  0.1705  0.4798
62980W        W 5971   5.668  18.653  10.620  0.3067  0.0110 -0.1612
62981W        W 5972   7.359   0.576  24.849  0.3015  0.1202  0.0053
62982W        W 5973  10.023  23.871  27.632  0.0416  0.0273 -0.3322
62983W        W 5974  31.673  26.893   8.522  0.0604 -0.1195  0.1485
62984W        W 5975  29.217  14.389   6.348  0.1108  0.0629 -0.1076
62985W        W 5976  30.998  22.454   2.589  0.4494  0.4465  0.2359
62986W        W 5977   1.194  30.835  28.837 -0.0236  0.1387 -0.2407
62987W        W 5978   9.825   9.494  10.553  0.0108  0.0012  0.2425
62988W        W 5979   6.530   1.546   9.214 -0.2562 -0.0116 -0.0257
62989W        W 5980   5.036  19.617  11.548 -0.1359 -0.0371  0.0129
62990W        W 5981   6.390   4.082   3.935 -0.0382 -0.0248  0.1017
62991W        W 5982  31.215  15.855   0.827  0.1795  0.0395  0.2284
62992W        W 5983   1.857  18.675  23.495  0.0459 -0.0179  0.1038
62993W        W 5984  15.464  23.042  26.026  0.0114 -0.2459  0.3669
62994W        W 5985   0.393   0.141   6.886 -0.0624  0.1187 -0.1331
62995W        W 5986  31.630  22.603  17.174 -0.2140  0.2719 -0.1294
62996W        W 5987  20.484   6.357   8.412  0.1031  0.1229 -0.2408
62997W        W 5988  28.312  21.930   7.617 -0.0582 -0.0514  0.0054
62998W        W 5989   9.636  32.419  21.665 -0.3598  0.0063 -0.1584
62999W        W 5990  17.754  33.880   8.541 -0.2075 -0.2504 -0.1691
63000W        W 5991   0.577  15.533   4.815  0.3496  0.2751 -0.0127
63001W        W 5992  22.525  17.767   5.699  0.3477 -0.1191 -0.3583
63002W        W 5993  29.887  19.770   1.411  0.0211 -0.2874 -0.0492
63003W        W 5994  28.814   0.331  23.219 -0.1522 -0.0138  0.0854
63004W        W 5995   8.457  27.690   7.447 -0.0816 -0.0670 -0.1675
63005W        W 5996  31.771  14.164   7.927  0.0087  0.2773  0.1765
63006W        W 5997   3.681  20.988   4.738  0.4485  0.1114 -0.0865
63007W        W 5998  27.292  29.481   5.363  0.0746  0.0750  0.1466
63008W        W 5999  30.987  32.060   5.122 -0.0493  0.3084 -0.1491
63009W        W 6000  31.609  11.770  29.091 -0.0042  0.0683 -0.0370
63010W        W 6001   0.117   9.102   1.541  0.1427 -0.1202 -0.2124
63011W        W 6002   8.162  19.192   9.911  0.2923  0.4182 -0.0721
63012W        W 6003  22.280  25.988  27.775 -0.0205 -0.0263  0.0419
63013W        W 6004   6.389  15.764   0.818 -0.2195  0.3478 -0.0697
63014W        W 6005  33.181  15.760  26.715 -0.1923 -0.4869 -0.0068
63015W        W 6006  14.170   1.300  25.831  0.0386 -0.3475  0.0316
63016W        W 6007   4.424  28.234   8.484  0.0563  0.4360 -0.1316
63017W        W 6008   4.459  34.301   7.575  0.0432 -0.1721 -0.0637
63018W        W 6009  32.216  16.220   8.050 -0.1294  0.1399 -0.0555
63019W        W 6010   8.337   2.106   4.209  0.0327 -0.0226  0.2220
63020W        W 6011  12.393   9.972   9.125 -0.1469 -0.0364 -0.0859
63021W        W 6012   3.991  10.698   2.493 -0.1981  0.4039  0.0503
63022W        W 6013  23.871  10.504   6.323  0.1389 -0.0411 -0.0389
63023W        W 6014  27.416  26.374   4.035 -0.1664  0.1360  0.0161
63024W        W 6015  13.127  33.310  10.514  0.3649  0.2416 -0.1261
63025W        W 6016   4.422  17.442   0.160 -0.0736 -0.1787 -0.1380
63026W        W 6017  31.365   1.267   8.954 -0.0030  0.2161  0.0327
63027W        W 6018  10.613  24.282  24.732 -0.0250  0.1743  0.1656
63028W        W 6019   4.800  15.958  16.838 -0.0337  0.3200 -0.2275
63029W        W 6020   0.703  26.784   6.596 -0.0002 -0.0042  0.1934
63030W        W 6021   5.356  25.483  23.050  0.1818 -0.3674 -0.1558
63031W        W 6022   9.342  18.368   4.371 -0.0890 -0.3091  0.1375
63032W        W 6023   6.577  13.865   4.364 -0.2057  0.1307 -0.1774
63033W        W 6024   1.926  27.917   9.298  0.3295  0.0808  0.0243
63034W        W 6025   9.182  34.458   5.783 -0.1715  0.0215 -0.3521
63035W        W 6026  16.751   7.563   0.111 -0.0908  0.4652 -0.2674
63036W        W 6027   5.701  11.348   4.990  0.1014  0.1680  0.4003
63037W        W 6028  12.435  15.089  25.233  0.0838  0.0515 -0.0417
63038W        W 6029  10.321  28.554   2.560  0.2301  0.2121 -0.1902
63039W        W 6030  13.329  32.191   6.219 -0.2671  0.1625  0.1033
63040W        W 6031  13.543  23.915  27.204  0.1543 -0.0407  0.0590
63041W        W 6032  22.658  18.225  27.713 -0.1218  0.0350 -0.2346
63042W        W 6033   4.452  11.225   0.673 -0.0619 -0.3923  0.1654
63043W        W 6034   2.946  20.703  28.019  0.2592 -0.0843  0.2052
63044W        W 6035  18.235   7.217  20.425 -0.2145  0.5460 -0.2724
63045W        W 6036   1.822  12.381   6.676 -0.2291 -0.2451 -0.0834
63046W        W 6037  31.808   1.356   9.667  0.0269  0.1975 -0.1295
63047W        W 6038   9.949  22.163  17.277  0.2800 -0.1956 -0.3500
63048W        W 6039  31.984  27.838  28.866 -0.0051 -0.1831  0.1708
63049W        W 6040  34.102  33.400   7.237  0.1092  0.1774  0.1283
63050W        W 6041   7.328   4.800   1.787  0.1677  0.4413 -0.2374
63051W        W 6042   3.087  22.594   0.229  0.3877 -0.5702  0.2296
63052W        W 6043  22.223  21.879   3.934  0.3395 -0.1442  0.0719
63053W        W 6044  18.423  29.357   4.069 -0.0078  0.0303  0.3729
63054W        W 6045   1.192  13.542   6.613 -0.1168 -0.3333  0.2209
63055W        W 6046  17.832  17.552   1.867 -0.0485  0.0365  0.0308
63056W        W 6047  27.191  25.848   7.109  0.1686 -0.1965 -0.2243
63057W        W 6048   9.515  24.471  10.645 -0.0032  0.0086  0.2662
63058W        W 6049   2.653  18.008  27.914 -0.0531 -0.0743 -0.0250
63059W        W 6050  26.965  34.798   4.115 -0.0924 -0.2009  0.0069
63060W        W 6051   2.448  11.016   5.309 -0.2724 -0.3328  0.1501
63061W        W 6052  29.933  15.996   7.456  0.3554 -0.0120 -0.0746
63062W        W 6053  26.889  16.390  27.566  0.2388 -0.1275 -0.1147
63063W        W 6054  23.422  24.360  28.610 -0.0531 -0.1545 -0.0046
63064W        W 6055   8.486  17.651  10.481  0.0199  0.0517 -0.0217
63065W        W 6056   3.223  25.270   3.788  0.0523  0.0921  0.2380
63066W        W 6057   0.471   2.176   1.227 -0.0309 -0.1400  0.0958
63067W        W 6058   1.911  27.875   4.640  0.0235 -0.1775 -0.0160
63068W        W 6059  26.460   0.464   3.497 -0.1217  0.1681  0.1652
63069W        W 6060  34.410  11.117   5.324 -0.2283  0.2762  0.0608
63070W        W 6061   3.725  28.519   0.932  0.0214 -0.1983 -0.1191
63071W        W 6062  10.409  33.690   2.608  0.0074  0.1292  0.2694
63072W        W 6063  32.705  30.746   8.221 -0.0595  0.0543 -0.1209
63073W        W 6064  13.099  18.413   3.332 -0.0744 -0.0523  0.1647
63074W        W 6065   3.720  23.884   5.751  0.2167 -0.5743  0.0919
63075W        W 6066  32.863  25.446   8.100  0.2992 -0.0996  0.0378
63076W        W 6067  30.116  30.790  21.722  0.0278 -0.3636  0.3981
63077W        W 6068   0.062  12.710   5.147  0.0073 -0.0861 -0.1328
63078W        W 6069  21.038  28.583  18.896 -0.1180  0.0583 -0.5459
63079W        W 6070   2.415  32.150   3.992  0.1776  0.0822  0.0229
63080W        W 6071  14.221  22.626   8.738  0.0332  0.0011 -0.3643
63081W        W 6072  16.876  26.785  28.818  0.0492 -0.0014 -0.2269
63082W        W 6073  29.844  27.804  25.189 -0.1238  0.2379  0.4143
63083W        W 6074  26.870  29.380   9.385  0.0280  0.4135 -0.2031
63084W        W 6075  34.477  28.140  28.999 -0.0227  0.1964  0.2263
63085W        W 6076   4.254  31.263   5.416  0.3202 -0.0330 -0.0057
63086W        W 6077  34.530  12.462  22.597 -0.1871  0.1887  0.3674
63087W        W 6078  32.925  31.417   7.598  0.0639  0.2229 -0.0548
63088W        W 6079   0.907  28.147  28.107 -0.0800  0.0576  0.0931
63089W        W 6080   3.404  28.953  25.692 -0.2277  0.1642  0.0823
63090W        W 6081  17.915  21.858   4.089 -0.1398  0.1231 -0.1710
63091W        W 6082  24.418  19.200   9.489 -0.3646  0.1485 -0.0658
63092W        W 6083  18.637  23.652  25.527  0.0711  0.0552 -0.0446
63093W        W 6084  26.384  30.729   2.744  0.2379 -0.0475 -0.1489
63094W        W 6085   1.686   6.523   5.560  0.1172  0.3112 -0.0384
63095W        W 6086  11.319  17.783   4.560  0.2026  0.2172 -0.0532
63096W        W 6087   5.118  31.977   9.056  0.2372  0.2796 -0.1878
63097W        W 6088   7.205  22.192  22.846 -0.1154 -0.0773 -0.0190
63098W        W 6089   4.968  22.632   5.780  0.2672  0.0987  0.0420
63099W        W 6090   5.143   1.668  24.987  0.2289 -0.1203 -0.0851
63100W        W 6091  33.113  22.717   9.383  0.5251  0.0932  0.2653
63101W        W 6092  10.106  16.753   5.099 -0.0995 -0.1615  0.1556
63102W        W 6093  18.539  30.146   4.637  0.1168  0.4420  0.0716
63103W        W 6094  12.937  28.668  21.866  0.2198  0.1217 -0.0713
63104W        W 6095  10.564  19.351   9.679 -0.0326  0.1673 -0.2908
63105W        W 6096   9.832  10.114  29.258 -0.1172  0.0454 -0.1577
63106W        W 6097   7.222  10.481   7.619  0.0701  0.2139 -0.1771
63107W        W 6098  10.507  18.538  26.127 -0.1758 -0.2189 -0.3989
63108W        W 6099  26.205  15.228   3.511  0.0015 -0.2740 -0.0916
63109W        W 6100   3.243  25.341  10.345 -0.1217 -0.3964  0.2264
63110W        W 6101  11.385  24.202  10.240 -0.2251  0.2573  0.0760
63111W        W 6102  33.119   8.675  20.959  0.1932 -0.1852 -0.0520
63112W        W 6103   7.433  28.680   0.363 -0.2591  0.3768 -0.2551
63113W        W 6104  32.286  10.834  10.561 -0.0225  0.0900  0.1408
63114W        W 6105   7.023  30.074  26.344  0.2477  0.0122  0.1137
63115W        W 6106  32.311  15.891  11.280 -0.1306 -0.2218 -0.1360
63116W        W 6107  23.458  17.911   6.359 -0.1741 -0.0284 -0.1600
63117W        W 6108   2.087  15.175   9.862  0.0573  0.3299 -0.2328
63118W        W 6109  10.699  10.291  11.128  0.0964 -0.0066 -0.1112
63119W        W 6110   3.550  28.871   6.344  0.2141  0.0527  0.1757
63120W        W 6111   0.238  27.283  25.089  0.0936  0.3144 -0.4689
63121W        W 6112  13.587  15.152   6.012 -0.0960  0.1909  0.2239
63122W        W 6113   5.517  23.163  19.648  0.2703  0.0752 -0.0585
63123W        W 6114  22.487  28.791   3.608  0.0059  0.1459  0.0606
63124W        W 6115  29.575  32.820   3.535  0.0501 -0.1053  0.0568
63125W        W 6116  19.761  18.867   7.420  0.0760 -0.0364 -0.0350
63126W        W 6117  33.203  22.862   2.625  0.0228 -0.0053 -0.0552
63127W        W 6118  14.499  18.860  27.845 -0.0265 -0.1605  0.2055
63128W        W 6119  15.296  19.344   6.224  0.0924 -0.2993 -0.0346
63129W        W 6120   1.938  29.335   4.273  0.1085  0.1495 -0.0610
63130W        W 6121  17.944  21.231   3.246  0.1900 -0.3779 -0.0162
63131W        W 6122  28.060  26.620   7.058  0.0566  0.0444  0.0078
63132W        W 6123  11.505  11.789   5.673  0.1442  0.4130  0.0411
63133W        W 6124  13.275  11.760   3.572 -0.0252  0.0750 -0.0567
63134W        W 6125   3.367  27.455   7.690 -0.0631 -0.1991  0.0884
63135W        W 6126  14.698  15.105   6.829 -0.4033  0.1567  0.0101
63136W        W 6127  30.008  26.070   1.920 -0.4284 -0.1219 -0.0511
63137W        W 6128   5.541  19.506  25.070  0.1811  0.0253  0.1716
63138W        W 6129  30.311  34.662  26.264 -0.0897  0.0272 -0.1799
63139W        W 6130  28.709  33.306  27.802 -0.0371 -0.2168  0.0080
63140W        W 6131  23.497  18.081  28.793  0.2126 -0.2020 -0.0232
63141W        W 6132  12.550  28.179  25.022  0.0657  0.0860 -0.1194
63142W        W 6133   9.506  24.026   0.764  0.1265 -0.1447 -0.2488
63143W        W 6134  29.787  26.637   9.214  0.3441 -0.0411 -0.3053
63144W        W 6135  15.829  24.723   2.167  0.2367 -0.1733  0.0951
63145W        W 6136   1.728  14.256   4.438  0.0120 -0.1824  0.0232
63146W        W 6137   5.337  22.952   9.525  0.0167  0.1367 -0.3545
63147W        W 6138   4.293  22.587  20.524 -0.0274 -0.0381 -0.0203
63148W        W 6139  18.330  26.330  28.087 -0.3641  0.1978  0.1560
63149W        W 6140  29.770  24.114   0.743 -0.0319  0.2165 -0.0486
63150W        W 6141  25.366  16.640  22.359  0.0338  0.0128  0.0569
63151W        W 6142  34.106  27.296   5.537  0.1436 -0.2095 -0.3431
63152W        W 6143  23.007  30.896   9.265  0.0933  0.0197 -0.0790
63153W        W 6144  21.571   9.666   7.135  0.0845  0.1342  0.0579
63154W        W 6145   6.228  21.369   7.286 -0.2916 -0.1482 -0.0401
63155W        W 6146  12.569  25.623   8.197 -0.1844  0.1550  0.1354
63156W        W 6147   7.627  17.388   9.578  0.1734 -0.3393 -0.1002
63157W        W 6148   0.478  18.831   6.666  0.0366 -0.0046 -0.0979
63158W        W 6149   2.147  34.053  10.122 -0.0060 -0.2002 -0.1657
63159W        W 6150  33.837   5.586  27.951  0.1476  0.1124 -0.1513
63160W        W 6151  34.007   5.589  19.347  0.0516  0.1932  0.0380
63161W        W 6152  14.148  13.829   9.589 -0.0703  0.0670 -0.1460
63162W        W 6153  28.903  12.609  27.252  0.1073  0.1650 -0.1659
63163W        W 6154   5.726  28.314   7.172 -0.3030  0.0619 -0.0277
63164W        W 6155  17.801  21.962  22.530 -0.3063  0.0175  0.0362
63165W        W 6156  31.746  15.058   9.693 -0.0774  0.1814 -0.1000
63166W        W 6157   5.252  24.521   7.234 -0.1513 -0.1614  0.0223
63167W        W 6158  33.030  18.692  28.561 -0.3019 -0.1076 -0.0440
63168W        W 6159  10.980  24.435   7.073 -0.3007  0.1814 -0.0470
63169W        W 6160   3.150  27.096  22.841  0.0928 -0.1761 -0.0683
63170W        W 6161   7.361   8.083  10.149 -0.0558 -0.0584 -0.0454
63171W        W 6162  24.779  14.742   4.775  0.1261  0.1532 -0.2136
63172W        W 6163  16.292  31.336  26.812  0.0086 -0.3481  0.1779
63173W        W 6164  34.797  14.542   9.401  0.0240 -0.4087  0.1052
63174W        W 6165  11.218  31.429  28.306  0.0059  0.2328  0.0276
63175W        W 6166   3.333  16.062  19.323 -0.2618 -0.1203  0.1586
63176W        W 6167  27.351  21.661   0.992 -0.1599 -0.0335  0.2029
63177W        W 6168  24.247  13.440   3.140  0.0712  0.0354  0.0678
63178W        W 6169   7.583  31.191   0.827  0.0187 -0.1055 -0.1932
63179W        W 6170   4.740  23.922   0.693  0.1483 -0.0137 -0.3595
63180W        W 6171   5.533  15.555  14.878 -0.0399 -0.1008 -0.0276
63181W        W 6172  11.552  19.090  13.780 -0.0453 -0.0739 -0.2517
63182W        W 6173   4.264  13.876  27.995 -0.1591 -0.0344  0.0537
63183W        W 6174   7.242  21.078   8.245  0.1978 -0.0599  0.0360
63184W        W 6175   6.614  34.167  19.816 -0.5745 -0.1951 -0.1122
63185W        W 6176  30.399  34.154  20.334  0.2224 -0.0449 -0.1878
63186W        W 6177  33.658   1.810   3.273 -0.0307 -0.0180 -0.0227
63187W        W 6178   5.846   1.678   9.639 -0.1119  0.0446 -0.0617
63188W        W 6179   8.289  30.400  24.835 -0.0735 -0.1124  0.1572
63189W        W 6180  33.306  22.995   3.931 -0.2910 -0.1867  0.0071
63190W        W 6181   2.237  26.326   7.707 -0.1328 -0.2100 -0.1081
63191W        W 6182   8.708  27.192  23.543  0.2378  0.1934  0.0243
63192W        W 6183   6.784  32.152   7.049 -0.1491  0.0241 -0.1455
63193W        W 6184  13.798  20.114  25.835 -0.0550 -0.0764 -0.2605
63194W        W 6185  22.543  22.200   1.352 -0.0416  0.0102 -0.1055
63195W        W 6186   0.879  19.825  28.352 -0.4809 -0.3246 -0.1740
63196W        W 6187  28.472  31.024  26.486 -0.3602  0.1950 -0.1115
63197W        W 6188  30.246  16.535   1.585  0.1661  0.2489 -0.1283
63198W        W 6189   3.102  23.646   6.592  0.1459 -0.0672  0.0741
63199W        W 6190  32.183  15.255  28.672 -0.1008  0.2627 -0.0335
63200W        W 6191  31.858  11.551  28.326 -0.0937 -0.0277 -0.1462
63201W        W 6192   6.224   5.957   3.065 -0.1390 -0.0037  0.0803
63202W        W 6193  25.445  14.789   6.606 -0.0357 -0.1285  0.3596
63203W        W 6194  26.145  18.614   3.832 -0.1600  0.0557 -0.0955
63204W        W 6195   7.200  27.634  28.376 -0.1131  0.1300 -0.1142
63205W        W 6196  11.915  17.291  24.200 -0.1081  0.1006  0.0774
63206W        W 6197   3.610  15.821   9.189  0.1148 -0.2565  0.1434
63207W        W 6198   7.468  24.861   9.007 -0.1453  0.0196 -0.3111
63208W        W 6199   7.667  28.020   7.612 -0.3963  0.1680 -0.3523
63209W        W 6200  13.039  24.486   4.986 -0.1734 -0.0163  0.3243
63210W        W 6201  14.286   2.335  10.947 -0.3109 -0.3465 -0.0813
63211W        W 6202  26.414  19.214   2.875 -0.0772  0.0029 -0.0300
63212W        W 6203  32.396  23.544   8.727  0.1258 -0.2565  0.0742
63213W        W 6204  33.771  25.749   2.091  0.3095  0.1592  0.0252
63214W        W 6205  13.139  20.717   4.385 -0.1019  0.3579  0.1857
63215W        W 6206  13.811  22.141   5.179  0.0945 -0.0392  0.2996
63216W        W 6207  18.677  23.185  13.239  0.3488 -0.3012 -0.1498
63217W        W 6208   2.596  21.124  28.025 -0.0418  0.0627 -0.1442
63218W        W 6209   9.847   1.286   9.911  0.0850 -0.0692 -0.1401
63219W        W 6210   3.325  19.674   6.365 -0.3303  0.0831 -0.0474
63220W        W 6211   0.145  26.097   2.797  0.0967  0.0795  0.2005
63221W        W 6212   1.826  25.128   9.946 -0.3970 -0.0179 -0.2629
63222W        W 6213  33.419  23.310   7.254  0.1108 -0.0906  0.0824
63223W        W 6214  13.034  10.473  28.926  0.1683 -0.2828  0.0331
63224W        W 6215  10.628  28.196   6.779  0.2718 -0.1154 -0.1204
63225W        W 6216  11.152  16.254   3.163  0.1962 -0.0448 -0.2543
63226W        W 6217   6.338  18.673   6.211  0.2250  0.0049 -0.1344
63227W        W 6218   5.499  24.961   4.652 -0.1135  0.1141 -0.1141
63228W        W 6219  32.054  11.152  10.295  0.2210  0.1809  0.1174
63229W        W 6220   3.662  19.764   3.404  0.0060  0.2613  0.0065
63230W        W 6221   3.132  27.392   2.022 -0.1037 -0.0475 -0.1924
63231W        W 6222  30.319  28.276   6.321 -0.0731  0.2157 -0.1733
63232W        W 6223   5.238  20.323  24.853 -0.1494 -0.3031 -0.3654
63233W        W 6224  11.326  31.642   6.964 -0.1311 -0.2009 -0.0404
63234W        W 6225  34.735  24.976   6.613  0.0916  0.0048  0.2406
63235W        W 6226   2.589   9.565   6.718  0.0437 -0.3270 -0.1491
63236W        W 6227  32.497  19.018  10.447  0.1287 -0.0648  0.2115
63237W        W 6228   3.332  17.254  28.978 -0.0298  0.3517 -0.1276
63238W        W 6229   7.337  15.366  10.645 -0.0920 -0.2133  0.2645
63239W        W 6230   8.997  32.855   7.485  0.0516 -0.0785  0.0551
63240W        W 6231  13.808  29.964   9.291  0.3304 -0.0783  0.5109
63241W        W 6232  11.239  31.126   2.781 -0.2697  0.1964 -0.0399
63242W        W 6233   6.876  30.404   5.694 -0.1162 -0.2139 -0.0829
63243W        W 6234   0.144  30.597   5.101  0.2111 -0.0093 -0.1452
63244W        W 6235  22.598  27.156  27.675  0.1928 -0.2000 -0.0517
63245W        W 6236   2.862  27.007   4.886  0.3940 -0.1051  0.1783
63246W        W 6237  33.859  15.969   8.569 -0.1124  0.0699  0.1863
63247W        W 6238  28.965  17.488   3.096 -0.1106 -0.2090 -0.1488
63248W        W 6239   6.780  25.811  20.536  0.1354 -0.2865 -0.1036
63249W        W 6240  11.841   8.122  26.772  0.0250 -0.0981  0.1505
63250W        W 6241  13.459  32.973   9.011 -0.2008  0.0542 -0.2128
63251W        W 6242  32.301  24.592   3.529  0.0291  0.0618 -0.0747
63252W        W 6243   7.320  12.028   4.153  0.1472  0.1479  0.1121
63253W        W 6244  34.113   1.077  24.071 -0.2637  0.1387  0.1078
63254W        W 6245  24.837  18.858   9.330  0.0528 -0.1651 -0.0735
63255W        W 6246  32.645  26.254  27.645 -0.0616  0.0419  0.1244
63256W        W 6247  32.781  18.055  25.777 -0.2538  0.0870 -0.1399
63257W        W 6248   6.152  11.512  20.008  0.1359  0.1517 -0.1485
63258W        W 6249  25.121   8.528   2.523  0.0502  0.0985  0.1500
63259W        W 6250  31.996  19.920   2.262 -0.1252  0.2119  0.0336
63260W        W 6251  29.602   4.273   8.541 -0.1103  0.3492 -0.1747
63261W        W 6252   3.825  34.167  21.278 -0.1733 -0.0410 -0.1511
63262W        W 6253  31.290  32.560   6.758  0.2363  0.1633  0.2506
63263W        W 6254   4.624  23.498  29.078 -0.1144  0.0771 -0.2166
63264W        W 6255  30.364  33.734   0.988  0.0549  0.1423 -0.1413
63265W        W 6256  30.161  24.719  29.239 -0.0675  0.1992 -0.3581
63266W        W 6257  10.010  26.899   7.039 -0.1211 -0.1920 -0.1131
63267W        W 6258   8.905  23.636  21.510 -0.1102  0.1383  0.1440
63268W        W 6259  13.521  13.794  22.700  0.3717  0.1228  0.1167
63269W        W 6260   9.918   9.265  16.823  0.3573  0.2630 -0.0622
63270W        W 6261  26.958   7.198   9.395  0.0968 -0.2023 -0.1089
63271W        W 6262   2.417  30.888   8.666  0.1795  0.1764  0.1794
63272W        W 6263  17.827   8.372  24.013  0.2357 -0.0610  0.0079
63273W        W 6264   3.183  31.007   2.022 -0.1089 -0.1000 -0.1426
63274W        W 6265  32.877  15.441   0.258  0.0487  0.0163 -0.0394
63275W        W 6266  10.053  26.716  19.354 -0.0690 -0.1268  0.2761
63276W        W 6267  21.826  21.218   8.582  0.0353 -0.2861  0.3626
63277W        W 6268  34.598  23.431  24.767  0.0799  0.1881  0.1811
63278W        W 6269  24.154  17.625  24.971  0.2365  0.0661 -0.1759
63279W        W 6270  13.146  31.363  27.387  0.0086 -0.1485  0.1815
63280W        W 6271  11.884   1.181   1.786 -0.2558 -0.2440 -0.2533
63281W        W 6272   1.608   6.688  17.511 -0.1009 -0.2041 -0.3321
63282W        W 6273   6.535   8.170  28.697 -0.2976 -0.0906 -0.0783
63283W        W 6274  12.314  12.788   9.024  0.2121 -0.2582 -0.2917
63284W        W 6275   4.789  33.991  25.725 -0.0019  0.0262  0.0215
63285W        W 6276  27.912  10.902  23.358  0.1551 -0.0630  0.2053
63286W        W 6277  10.440  18.491   4.541 -0.0196  0.3251 -0.1445
63287W        W 6278  32.709  17.637  10.052  0.0080 -0.0852  0.0579
63288W        W 6279   6.606  33.415  16.739  0.0671  0.3242  0.1693
63289W        W 6280  27.019  10.801  25.432  0.0745 -0.0135 -0.0356
63290W        W 6281  11.867  12.294  16.151 -0.1720  0.0137 -0.0965
63291W        W 6282   0.175  20.544  25.195  0.0272 -0.0738 -0.1359
63292W        W 6283  14.918  27.484   1.119 -0.2081 -0.2112 -0.0304
63293W        W 6284   5.999  30.331   1.244 -0.1319  0.1726  0.1883
63294W        W 6285   5.993  20.917   3.132  0.0593  0.1248  0.0353
63295W        W 6286  21.474  18.367  28.444  0.0000  0.3664 -0.0728
63296W        W 6287  30.214   4.656   7.266 -0.0121  0.0034 -0.0988
63297W        W 6288   0.049  25.630   8.058 -0.2348 -0.0878  0.4832
63298W        W 6289  15.681  17.636  13.715  0.1448  0.2361  0.1493
63299W        W 6290   3.513   0.515  20.321 -0.2643  0.1147 -0.1164
63300W        W 6291   1.291  26.185   0.478  0.1001  0.1404 -0.3770
63301W        W 6292  24.382  27.073   4.971  0.2149 -0.0696  0.2446
63302W        W 6293  26.447  30.059   5.426  0.1502 -0.1326  0.3590
63303W        W 6294  27.629   1.140  28.078 -0.3345  0.0222  0.0766
63304W        W 6295   4.292   3.594  20.987  0.3731 -0.2421  0.1748
63305W        W 6296  27.893  20.353  20.960 -0.1568  0.0735  0.1237
63306W        W 6297  24.436   6.606   3.007 -0.0998  0.1571 -0.1910
63307W        W 6298   2.902  16.243   6.318  0.0543  0.1088 -0.2150
63308W        W 6299   3.903  32.041  29.212 -0.1889  0.0237  0.3003
63309W        W 6300   9.702   4.691  26.606  0.1526 -0.2798 -0.3142
63310W        W 6301  26.827  33.823  22.202  0.0287 -0.2243  0.0680
63311W        W 6302   3.552   8.957   3.897 -0.0020 -0.0683 -0.1879
63312W        W 6303  14.366   6.567  17.843 -0.0408  0.1270 -0.3683
63313W        W 6304  17.098  21.291  27.882 -0.2015 -0.0172 -0.1596
63314W        W 6305   4.048  27.015  23.770 -0.2967 -0.2323 -0.1757
63315W        W 6306  31.368  26.679  26.059  0.1789 -0.0439 -0.3439
63316W        W 6307  32.447  20.887  15.342 -0.0588 -0.2259 -0.1121
63317W        W 6308   8.910   3.153   2.639  0.0281  0.0804  0.0602
63318W        W 6309   5.071  31.242   1.770 -0.0205 -0.3325  0.0712
63319W        W 6310  10.912  30.190  26.232  0.2904  0.3178 -0.3412
63320W        W 6311   1.338   3.208   1.056 -0.1205 -0.2110 -0.3014
63321W        W 6312   5.885  18.809   4.713 -0.3926 -0.2842 -0.1497
63322W        W 6313   8.654  30.819   7.952  0.4126 -0.0858  0.2540
63323W        W 6314  20.377  22.819   7.533 -0.0786 -0.1911 -0.1751
63324W        W 6315  34.218  28.679  27.576 -0.2631 -0.1253  0.1117
63325W        W 6316   4.628  29.121  27.012 -0.3492 -0.2555  0.0657
63326W        W 6317   7.526  23.571  27.698  0.0376  0.0839 -0.0629
63327W        W 6318   4.945  34.174   0.991  0.2835 -0.0496  0.1804
63328W        W 6319   0.327  26.054  25.415  0.0806  0.0077  0.2258
63329W        W 6320  10.720   7.172   5.445 -0.0028 -0.0771  0.0105
63330W        W 6321   9.380   7.073   1.284  0.2067  0.0724  0.1518
63331W        W 6322  32.555  18.795  28.324 -0.0122 -0.0523 -0.1695
63332W        W 6323  20.124  32.928  29.195  0.2338 -0.2660 -0.0459
63333W        W 6324  33.243  20.974   7.013 -0.2953  0.0265 -0.0521
63334W        W 6325  12.134  25.685  17.678  0.0757 -0.3984  0.1054
63335W        W 6326  30.431  33.880   1.416  0.3568 -0.0707 -0.1557
63336W        W 6327   7.763   8.685  19.292 -0.3091 -0.0933  0.1141
63337W        W 6328  19.905  14.206  20.690 -0.1142 -0.0533 -0.1684
63338W        W 6329  31.841  20.748  24.439 -0.0822 -0.1766  0.2851
63339W        W 6330  17.409  31.811  10.135 -0.1031 -0.0497  0.0764
63340W        W 6331  10.389   4.658  27.281 -0.0991 -0.1379  0.0916
63341W        W 6332  16.550  23.477  20.642 -0.0320  0.0834 -0.0133
63342W        W 6333   1.267  34.103   7.750  0.0029 -0.1134  0.0481
63343W        W 6334  15.772  20.962  27.185 -0.3247  0.1907  0.2756
63344W        W 6335  21.157  12.279   7.388  0.0580  0.0468 -0.1623
63345W        W 6336  22.717  30.903  17.833  0.1215  0.6299 -0.3666
63346W        W 6337  14.645  15.831   5.047 -0.1285  0.3550  0.1363
63347W        W 6338  33.233  31.665   4.173  0.1222  0.1335  0.2973
63348W        W 6339  11.284  25.872  19.836  0.0796 -0.1782 -0.0948
63349W        W 6340  14.288  26.092   7.521  0.0276  0.0005 -0.0200
63350W        W 6341  25.438  19.898   9.386 -0.1001 -0.3117 -0.2319
63351W        W 6342   1.408  24.460  21.507  0.2616  0.0938 -0.0090
63352W        W 6343  25.076   3.855  20.543  0.1414 -0.2224  0.1070
63353W        W 6344  29.291   4.067  26.851 -0.1795 -0.0244  0.0162
63354W        W 6345  33.878   2.869   7.860 -0.0731 -0.0241 -0.0683
63355W        W 6346  23.990   2.365   5.238  0.2394 -0.1044 -0.1364
63356W        W 6347   2.339  29.264  23.637 -0.0136  0.0205 -0.1456
63357W        W 6348   4.017  32.509   2.476 -0.0506 -0.0865 -0.1016
63358W        W 6349  19.224   5.449  28.161  0.0958  0.2227 -0.0745
63359W        W 6350   9.683  22.017  22.337  0.0955 -0.2991  0.0593
63360W        W 6351   3.060  34.570   3.869 -0.0755 -0.1001  0.1379
63361W        W 6352  32.433  31.215  25.689  0.0416 -0.1660  0.1489
63362W        W 6353   0.292  20.965  24.692  0.3963  0.1148  0.0234
63363W        W 6354   4.602  32.524   6.943  0.1567  0.0390 -0.0435
63364W        W 6355   7.021  19.902   9.760 -0.0341  0.1571  0.1702
63365W        W 6356  28.883  19.705  15.039 -0.1967  0.1124  0.0982
63366W        W 6357  10.631  14.293   6.419  0.2430  0.1223  0.0442
63367W        W 6358   5.222   6.695  26.894  0.4488 -0.1241 -0.0321
63368W        W 6359   2.721  33.392   7.209 -0.1937 -0.3827 -0.0565
63369W        W 6360  28.081  16.650  24.939 -0.0158 -0.0104  0.1350
63370W        W 6361   6.793   2.192  23.908  0.0298 -0.1044 -0.1166
63371W        W 6362  25.350  12.650  10.001  0.1807 -0.3542 -0.1975
63372W        W 6363  23.764  18.884   4.343 -0.1648  0.1729  0.2425
63373W        W 6364   1.086  30.362   6.043  0.1194  0.0669  0.1760
63374W        W 6365  26.940   1.692   6.855  0.1518  0.0612 -0.0742
63375W        W 6366  29.140  14.682  26.982 -0.0197 -0.1279  0.1630
63376W        W 6367  33.334   5.363   9.809 -0.1866 -0.1122  0.1221
63377W        W 6368   2.980  34.291  21.482 -0.0114  0.0268 -0.0755
63378W        W 6369   5.826  13.530  27.701 -0.0300 -0.0306 -0.2548
63379W        W 6370  24.606   2.029   8.623 -0.1473  0.1364  0.0185
63380W        W 6371  10.026  32.417  23.693 -0.1063  0.0812 -0.2085
63381W        W 6372  31.825  21.512   6.933  0.0471  0.0306  0.0438
63382W        W 6373  15.016  22.311  24.833 -0.1140  0.2018  0.1496
63383W        W 6374  32.156  32.436   2.516 -0.2593 -0.2590 -0.0879
63384W        W 6375   1.874  27.075  16.408 -0.0026  0.1151  0.3696
63385W        W 6376   4.420  13.484  23.721  0.1984 -0.1307 -0.1828
63386W        W 6377   1.288  27.134  23.734 -0.2830 -0.2644  0.3084
63387W        W 6378   0.568  30.084   2.740 -0.0352 -0.1639  0.0252
63388W        W 6379  18.165   0.537   6.278  0.0565  0.0908  0.0708
63389W        W 6380  31.509  31.959  18.825  0.1344  0.4252 -0.1859
63390W        W 6381  10.442  28.335  29.045  0.1063  0.1259 -0.0544
63391W        W 6382  11.724  11.197  10.128  0.0696  0.1452  0.2458
63392W        W 6383   0.353  16.375   7.878  0.1654 -0.0775  0.1806
63393W        W 6384  17.859   1.670  23.947  0.0568  0.1019 -0.0397
63394W        W 6385   3.845  26.883  28.158  0.0887 -0.1215 -0.1189
63395W        W 6386  29.073   4.397  26.471 -0.3183 -0.0159 -0.1715
63396W        W 6387   4.141  20.394   5.185 -0.1063  0.0833  0.0890
63397W        W 6388   4.211  25.693  17.426 -0.1436  0.3790  0.0369
63398W        W 6389  33.248   2.361  23.372 -0.0471 -0.3674 -0.0659
63399W        W 6390   2.346  24.069   1.073 -0.1814  0.0524  0.0521
63400W        W 6391  12.017  23.271  28.446  0.0521 -0.0917 -0.1378
63401W        W 6392  10.969  23.598  28.444  0.0202  0.1700  0.0100
63402W        W 6393   6.820  22.171   5.884 -0.0032 -0.1784  0.1754
63403W        W 6394  16.895   8.795   8.030 -0.0409 -0.1348  0.0238
63404W        W 6395  10.524  22.196   4.430  0.1363 -0.1246 -0.1678
63405W        W 6396   4.561   7.607  23.903  0.2078  0.0406  0.0266
63406W        W 6397  33.411  10.686   7.280  0.1446 -0.0445 -0.0877
63407W        W 6398  21.449  30.603   7.029 -0.0592  0.1102  0.0154
63408W        W 6399   6.861  19.273   6.681  0.1126 -0.1599  0.2504
63409W        W 6400  27.713  26.651  19.722  0.0631 -0.0011 -0.2592
63410W        W 6401  32.849  27.290  26.593 -0.2194  0.0069 -0.2249
63411W        W 6402  19.492  31.665   4.402  0.3386 -0.0869  0.1570
63412W        W 6403   5.892  29.874   0.975 -0.2636 -0.1834 -0.0689
63413W        W 6404  11.812   2.839   7.583  0.0027 -0.0418  0.0490
63414W        W 6405  29.930  17.357   1.678 -0.0745 -0.1083 -0.2090
63415W        W 6406  14.970  32.323   3.746  0.1484 -0.2298 -0.0144
63416W        W 6407   3.139  29.145   6.269  0.0685  0.0180  0.1023
63417W        W 6408  10.779   3.480  24.695  0.0526 -0.0614  0.2362
63418W        W 6409   2.984   3.162  15.797  0.1846  0.0236  0.2419
63419W        W 6410  33.413  34.317   1.495  0.1374 -0.0242 -0.1619
63420W        W 6411  18.711  22.430   3.250  0.2371  0.1927 -0.2576
63421W        W 6412  34.565  18.099  24.821 -0.0520 -0.0216  0.0032
63422W        W 6413   4.943  26.672  27.463  0.0060 -0.0605  0.1417
63423W        W 6414   4.310  25.244  15.360 -0.0283 -0.3762  0.3898
63424W        W 6415  22.987  14.346   1.919 -0.1252  0.1371  0.1661
63425W        W 6416  12.020  23.051   8.767  0.1184 -0.2732  0.1411
63426W        W 6417   9.960  21.430  24.223 -0.0352 -0.0201  0.1355
63427W        W 6418  29.571  28.255  19.860  0.1360 -0.0218 -0.0819
63428W        W 6419  26.164  18.831   6.969 -0.4263 -0.1753 -0.0296
63429W        W 6420  26.471  21.891   5.283  0.1808  0.0457  0.1076
63430W        W 6421   5.967   4.404  28.144  0.1630  0.0557  0.7210
63431W        W 6422  10.353  24.260  18.338  0.0656  0.2594 -0.3174
63432W        W 6423   3.291  23.096  25.928  0.2297 -0.3013  0.2890
63433W        W 6424  14.302  25.433   5.614 -0.1606  0.0884  0.1206
63434W        W 6425   0.576  11.931   8.988  0.0919 -0.3388  0.2468
63435W        W 6426   6.131  31.680  16.103  0.1924  0.0745 -0.1444
63436W        W 6427  19.545   4.375   9.501  0.0988 -0.3251  0.3412
63437W        W 6428  21.784   5.705   5.059  0.3115 -0.0940 -0.0554
63438W        W 6429   0.680  13.781  27.105 -0.0086  0.1493  0.0256
63439W        W 6430   3.904  29.789   6.043  0.0878 -0.3603 -0.2235
63440W        W 6431  23.452  34.088   8.367  0.1349  0.0116  0.1968
63441W        W 6432   4.175  12.698  21.090 -0.1685 -0.0791  0.2251
63442W        W 6433   0.970   7.182  27.288  0.0778 -0.2346  0.2263
63443W        W 6434  30.653  21.589  13.444 -0.0208  0.1388  0.3507
63444W        W 6435  33.028   8.133   2.079 -0.1389  0.2110  0.0862
63445W        W 6436  33.896  31.113  27.298  0.0141  0.1204  0.0338
63446W        W 6437   0.288   1.155   9.277  0.1359 -0.1404  0.0403
63447W        W 6438  20.054  21.434  26.838  0.1877 -0.1985 -0.1476
63448W        W 6439  31.044  34.792  23.810  0.1085  0.3108  0.2689
63449W        W 6440  13.605   7.902   3.334  0.2377 -0.2996 -0.0501
63450W        W 6441  12.010  18.607  17.751  0.0686 -0.0501 -0.2890
63451W        W 6442   3.106  26.148  23.996 -0.0508 -0.1204  0.1568
63452W        W 6443   3.685   3.527  17.906  0.2022  0.0313  0.0066
63453W        W 6444  12.545  21.860  28.733  0.3128  0.3075  0.3038
63454W        W 6445  10.217  26.030  24.574  0.0390  0.1181 -0.3669
63455W        W 6446   5.407   3.408  20.025 -0.0276  0.1281  0.2137
63456W        W 6447  23.028  33.877   0.608  0.1796 -0.0308  0.1692
63457W        W 6448   3.317  31.921  21.329 -0.0600  0.1681 -0.2850
63458W        W 6449   2.106  33.858  29.176  0.1560 -0.2630  0.2988
63459W        W 6450   0.541  12.386   0.208 -0.0176 -0.0638 -0.0154
63460W        W 6451  33.979  22.265  27.797 -0.0555 -0.1987 -0.0342
63461W        W 6452  27.907   6.136  24.660  0.0509  0.0373 -0.1356
63462W        W 6453  31.861   1.589   8.609 -0.0163 -0.0084  0.1678
63463W        W 6454  11.198   7.498   3.385 -0.1039 -0.2129 -0.0671
63464W        W 6455  11.604  20.240   0.684 -0.1909  0.1500 -0.0570
63465W        W 6456   1.349  12.924  23.032 -0.1886  0.0157 -0.1152
63466W        W 6457  28.880  23.533  14.057 -0.2465 -0.2184 -0.2253
63467W        W 6458  29.545  25.476  28.950 -0.2532  0.0169  0.2679
63468W        W 6459   1.807  13.013   0.703  0.0326 -0.1056  0.2121
63469W        W 6460  17.200  21.579   3.086  0.3273 -0.0881 -0.0550
63470W        W 6461  21.418   5.799  19.824 -0.1410  0.1394 -0.1902
63471W        W 6462   5.146  15.091   4.968 -0.0870 -0.0046  0.2823
63472W        W 6463   8.473  18.091   0.069 -0.0103 -0.1493 -0.4043
63473W        W 6464  27.513  14.386  23.510  0.0313  0.0488  0.1616
63474W        W 6465  29.186  23.555  10.151  0.1876  0.3487 -0.1636
63475W        W 6466   2.170  32.264  22.858  0.0816  0.0953 -0.1186
63476W        W 6467  10.496  32.596  14.445 -0.2381  0.0102  0.0492
63477W        W 6468  34.563  26.631   3.454  0.0864 -0.2729  0.1779
63478W        W 6469  12.911  29.397   1.899 -0.0616  0.0523  0.1698
63479W        W 6470   0.066   5.373   4.145  0.1401  0.2832  0.0495
63480W        W 6471  31.271  30.468   7.720  0.0491  0.1592  0.0977
63481W        W 6472  29.908  28.312   1.615  0.2182 -0.1781 -0.0792
63482W        W 6473   3.103  24.071   3.603  0.1287  0.0125 -0.1013
63483W        W 6474   1.359  28.245   5.121 -0.3978 -0.0620 -0.0962
63484W        W 6475  17.629  28.391  20.357  0.0628 -0.1491  0.0394
63485W        W 6476   1.219   9.360   0.447 -0.1424 -0.0374 -0.2364
63486W        W 6477   5.846  23.188  18.132 -0.1459  0.1635 -0.0476
63487W        W 6478   2.283  21.460  17.993  0.0890 -0.3434 -0.1203
63488W        W 6479  21.195  29.030   4.246 -0.5191 -0.0000 -0.2510
63489W        W 6480  17.782  25.068   5.907 -0.0390  0.3132 -0.1257
63490W        W 6481   7.097   5.169  18.281  0.0042  0.2377 -0.2381
63491W        W 6482  24.732  26.752  26.260 -0.2503 -0.0314  0.0873
63492W        W 6483  26.781  31.060  25.170  0.0659 -0.1457 -0.2402
63493W        W 6484  33.337  24.193  24.639 -0.0034 -0.0959  0.0769
63494W        W 6485  32.876   6.331  28.428 -0.1371  0.0363 -0.0110
63495W        W 6486   8.354  27.112  26.445 -0.0631  0.1318  0.0561
63496W        W 6487  28.990   6.874  24.448 -0.0967  0.1236  0.0558
63497W        W 6488   2.797  27.363  25.075  0.0769 -0.0096 -0.3416
63498W        W 6489   2.717  27.889   3.020  0.0904  0.0579  0.1292
63499W        W 6490  34.377  31.208   9.494 -0.0232  0.0469  0.1020
63500W        W 6491  32.310   3.642   7.913  0.0748  0.0543  0.2335
63501W        W 6492  28.911  26.730  25.013  0.0799  0.1651  0.0668
63502W        W 6493   2.912  24.248   9.770 -0.0434  0.0839  0.1503
63503W        W 6494  34.218  26.085   9.822  0.1704 -0.1916  0.1632
63504W        W 6495  30.058  32.473   4.162  0.1728 -0.0793  0.0266
63505W        W 6496  22.376  30.611  20.403  0.0629  0.0827 -0.0671
63506W        W 6497   7.659  25.088  21.551  0.0648  0.1897 -0.0291
63507W        W 6498  25.958  24.804   2.955 -0.0472  0.1976 -0.1718
63508W        W 6499  21.772  30.539  28.738  0.2634 -0.3398  0.0246
63509W        W 6500  29.886  20.803   6.768 -0.1081 -0.2431 -0.1818
63510W        W 6501   7.727  17.599   9.042 -0.2533 -0.1430 -0.0778
63511W        W 6502  34.709  29.609  20.122 -0.1674  0.1504 -0.1461
63512W        W 6503  28.528   2.468  25.142  0.1458 -0.0281  0.0038
63513W        W 6504  26.433  29.206   5.492  0.0385 -0.0474 -0.0510
63514W        W 6505  33.249  24.344   6.053 -0.1504  0.2792 -0.1622
63515W        W 6506  33.892  19.206   2.100 -0.2828 -0.0469  0.0110
63516W        W 6507  23.534  13.801  28.362 -0.1396 -0.1342 -0.0364
63517W        W 6508  27.826  21.942   9.271  0.1074  0.3008  0.1202
63518W        W 6509  24.175  20.610  26.994  0.0669 -0.0918  0.0052
63519W        W 6510   4.344  29.003  17.199  0.1634  0.0473  0.2971
63520W        W 6511  31.784   1.898  15.222 -0.1136  0.0140 -0.0324
63521W        W 6512  25.334   3.110   0.599 -0.2183 -0.0079  0.0627
63522W        W 6513  31.830  13.105   3.821  0.0663 -0.0596  0.1554
63523W        W 6514  20.264  10.202  29.144 -0.3448  0.4454  0.3366
63524W        W 6515  10.190  20.414  15.012  0.1807  0.1647 -0.0629
63525W        W 6516  33.205  33.903   1.065  0.0954 -0.0905 -0.0634
63526W        W 6517  28.741  14.763  23.334 -0.0653  0.2479  0.0378
63527W        W 6518  31.187  25.244   5.788 -0.0127  0.1192  0.1331
63528W        W 6519  30.389   0.687  28.730  0.2786  0.2901 -0.1943
63529W        W 6520   1.219   2.366  18.925 -0.0100  0.0184 -0.0601
63530W        W 6521  22.984  19.107  20.175 -0.0044 -0.1137  0.2884
63531W        W 6522   7.522  12.073   2.405  0.1620 -0.0362 -0.0908
63532W        W 6523  24.366  33.602   8.578  0.3835 -0.3911 -0.3960
63533W        W 6524  11.418   0.577  10.179 -0.3405 -0.3513 -0.0899
63534W        W 6525  32.552  26.408   7.605 -0.0402  0.0058 -0.4474
63535W        W 6526  28.660  33.914   8.003 -0.0584  0.0524  0.2174
63536W        W 6527  31.382  26.379  25.494  0.2595 -0.1768 -0.3473
63537W        W 6528  32.694   6.211   9.290 -0.0570 -0.0178 -0.2419
63538W        W 6529   4.851  18.016   9.780 -0.1190 -0.2057 -0.0646
63539W        W 6530   5.714   7.754   7.392 -0.1153  0.1566 -0.2201
63540W        W 6531   0.414  24.816   9.239  0.0348 -0.1281  0.0436
63541W        W 6532  30.911  29.198  12.670  0.2008 -0.1196  0.0676
63542W        W 6533  32.521  27.368   8.499 -0.0427  0.1886  0.1190
63543W        W 6534   0.522  34.185   6.896  0.1176 -0.1190  0.5031
63544W        W 6535   4.353  32.886   2.304  0.0044  0.1483  0.0644
63545W        W 6536  28.603  17.873   2.288 -0.0847 -0.0778 -0.0477
63546W        W 6537  12.120   2.440   6.028 -0.0318 -0.3445 -0.2052
63547W        W 6538  27.897  28.013   6.961  0.0133  0.0380 -0.0550
63548W        W 6539  31.944  21.367  13.826  0.0038  0.0472 -0.2352
63549W        W 6540   0.906  15.924  11.436  0.2311 -0.1824  0.1521
63550W        W 6541  32.108  34.734  19.720  0.4171  0.4039  0.0396
63551W        W 6542  29.338  27.173   8.767  0.1541 -0.0441 -0.4126
63552W        W 6543   4.504  28.105   7.983  0.3722  0.2245 -0.2797
63553W        W 6544   8.787   0.844  22.317  0.0798 -0.0221  0.0108
63554W        W 6545   3.966  21.403   3.924  0.1572  0.2576  0.1778
63555W        W 6546   9.170   2.689  24.218 -0.0358 -0.2661 -0.0533
63556W        W 6547   7.629  16.364  24.232  0.1776  0.2482 -0.0839
63557W        W 6548  17.088   3.776   1.407  0.2264 -0.1168  0.3825
63558W        W 6549   7.138   6.416  17.389  0.0213 -0.0383  0.0899
63559W        W 6550   6.487  17.767   4.006 -0.0352  0.1067  0.0395
63560W        W 6551  24.434  27.121  16.765  0.0122  0.0021  0.0364
63561W        W 6552   2.885   5.310  10.772  0.0512  0.1605  0.2275
63562W        W 6553   1.902   7.090   8.524 -0.3501 -0.2454  0.1233
63563W        W 6554  27.618   2.231  25.854  0.0135 -0.1161 -0.3212
63564W        W 6555  10.142  27.800   5.877  0.2529 -0.1243  0.1465
63565W        W 6556  12.890  22.870   2.194 -0.0775  0.2297  0.2424
63566W        W 6557  11.392   5.861   2.488  0.0955 -0.0484 -0.1632
63567W        W 6558   1.689  25.797   1.078 -0.1972 -0.1471  0.3307
63568W        W 6559   1.288  32.120  28.082  0.0017 -0.2790  0.1326
63569W        W 6560   5.154  17.599   9.920 -0.0048  0.0104  0.3257
63570W        W 6561   7.182  10.780  24.797 -0.1764  0.2324 -0.2898
63571W        W 6562   6.879  24.733  28.628 -0.1962  0.0475 -0.0179
63572W        W 6563   5.703  30.796  23.468  0.0489  0.1311 -0.1649
63573W        W 6564  30.048   8.157   6.623  0.2613 -0.1778 -0.1992
63574W        W 6565  13.297  18.785   3.037 -0.3226 -0.3684 -0.0021
63575W        W 6566  24.786  23.342  27.109  0.1306 -0.1287  0.1241
63576W        W 6567  29.886   3.048  29.149 -0.1084 -0.2027 -0.0898
63577W        W 6568   8.058  12.453  27.250  0.2346  0.2585 -0.1534
63578W        W 6569  27.714  26.360   8.427 -0.0364  0.0249  0.2688
63579W        W 6570   4.620  17.625  22.692 -0.0042 -0.3946  0.0161
63580W        W 6571  11.823  11.690   9.816  0.2691  0.0600  0.1222
63581W        W 6572  23.298  17.983  16.238 -0.0696 -0.1963 -0.5817
63582W        W 6573  20.721  23.223  23.967 -0.2472  0.2348  0.0948
63583W        W 6574  25.580  22.737  13.918  0.1310  0.0112  0.1494
63584W        W 6575   6.647  30.189   7.308  0.0585 -0.3457  0.2508
63585W        W 6576   8.402   9.184  25.038  0.2757  0.2532 -0.1315
63586W        W 6577  25.248   4.500  23.527 -0.4154  0.0916  0.1141
63587W        W 6578  28.624  30.838   1.670  0.0449 -0.1985  0.2016
63588W        W 6579  26.638   2.152   3.652 -0.0998  0.1315  0.0609
63589W        W 6580  28.650   9.321   6.439 -0.1950  0.1055 -0.1057
63590W        W 6581  16.460  17.354  23.815 -0.1779  0.0527  0.1286
63591W        W 6582  12.093  26.488   0.654  0.2110 -0.1123  0.0152
63592W        W 6583   3.730  20.884  16.058 -0.0986 -0.1717  0.0886
63593W        W 6584   1.263  25.653  20.358 -0.0725  0.0061 -0.1765
63594W        W 6585  23.225  21.360  26.035  0.2487  0.1448  0.1493
63595W        W 6586  16.843   8.364   5.944 -0.3111  0.0829  0.3240
63596W        W 6587  27.125   1.729  14.909 -0.1788 -0.0655  0.0618
63597W        W 6588   4.218  20.078   6.591 -0.1396  0.1412  0.1233
63598W        W 6589  30.658  26.605   3.866 -0.1742  0.2026  0.3368
63599W        W 6590  11.011   5.328   8.585 -0.1834 -0.2640  0.1273
63600W        W 6591   5.260  28.250   4.717  0.1256  0.1514 -0.0274
63601W        W 6592  34.069  20.178   0.546 -0.0822  0.2598  0.1701
63602W        W 6593  28.793  26.808   5.166 -0.0565  0.0750 -0.0071
63603W        W 6594   2.784  28.893  22.988 -0.1436 -0.2209  0.0094
63604W        W 6595  33.562  18.617  29.224 -0.3126  0.2405 -0.0328
63605W        W 6596  25.889  27.257  22.654  0.0482  0.0425 -0.0986
63606W        W 6597   5.079  10.100   4.214 -0.0703 -0.1463 -0.0870
63607W        W 6598   6.220  14.207   7.030 -0.1725 -0.1916 -0.0368
63608W        W 6599  19.127  30.645   8.452  0.1391  0.1820 -0.2922
63609W        W 6600   4.941  21.359   8.099 -0.2116 -0.4518 -0.1053
63610W        W 6601  33.251  33.937   3.747  0.0641  0.1253  0.1135
63611W        W 6602  33.276  31.312  16.804 -0.1730 -0.1459  0.1798
63612W        W 6603   4.854  32.059  25.085 -0.1993  0.3441  0.1360
63613W        W 6604  33.439  34.434   0.606  0.2688  0.0629  0.2127
63614W        W 6605  31.403  20.973   4.745 -0.0570 -0.0686  0.1575
63615W        W 6606  16.435  27.116   3.271 -0.1227 -0.3227 -0.0794
63616W        W 6607  13.688  16.673  20.690  0.0149 -0.2251  0.1223
63617W        W 6608  34.422   0.619  29.137  0.0762 -0.3707 -0.0221
63618W        W 6609  26.417  25.570   7.154  0.2465 -0.0946  0.0015
63619W        W 6610  28.592   4.530  25.722  0.2201  0.1847  0.2373
63620W        W 6611   1.523  26.642   0.663 -0.0308  0.0447 -0.3573
63621W        W 6612  24.241  29.187   9.724 -0.1129  0.1327  0.1326
63622W        W 6613  34.414  34.603  25.000  0.1935 -0.3193  0.2831
63623W        W 6614  31.742   3.202   1.544  0.3302  0.0161  0.0886
63624W        W 6615   9.120  29.801   3.293  0.1372 -0.1871  0.0366
63625W        W 6616   7.753   1.972   9.319 -0.1371  0.0202  0.2566
63626W        W 6617  26.774  23.534   8.762 -0.2251 -0.0775 -0.0735
63627W        W 6618   4.931   2.467   4.840 -0.2434 -0.0186  0.0757
63628W        W 6619   2.819  30.144  23.872 -0.1109 -0.1838  0.0758
63629W        W 6620  34.072  15.045  26.665  0.1469  0.3112  0.2796
63630W        W 6621  29.345   7.596   2.937  0.1423  0.1841 -0.0987
63631W        W 6622   1.600  26.496   5.968  0.1833 -0.1057 -0.0465
63632W        W 6623  23.933  25.266  26.238  0.3196 -0.3143  0.0667
63633W        W 6624  13.770  34.691   7.986 -0.0805  0.0577 -0.0545
63634W        W 6625  30.038  22.966   0.388  0.2987  0.1237  0.0057
63635W        W 6626   5.526  10.462   7.326 -0.0353 -0.0538 -0.1453
63636W        W 6627   8.710   8.387  21.741 -0.1266  0.1351  0.1614
63637W        W 6628  15.809   2.833  15.680  0.3256  0.0778 -0.1478
63638W        W 6629  11.028   3.010  10.198  0.0148  0.1642 -0.2952
63639W        W 6630   7.323  18.210  26.846 -0.1096 -0.4215  0.0286
63640W        W 6631   2.347  27.238  17.531 -0.0720  0.0852  0.1741
63641W        W 6632  17.370  30.695   1.241  0.0142 -0.0044 -0.1755
63642W        W 6633   7.966   9.039   3.478  0.2289  0.0734 -0.0657
63643W        W 6634   1.766   0.143  20.524  0.0363 -0.0725  0.4397
63644W        W 6635   3.883  12.185   3.954  0.0453  0.0125 -0.0801
63645W        W 6636  34.563  33.773   6.584  0.1197  0.0340  0.4232
63646W        W 6637  14.648  34.706   0.528  0.5388 -0.1014 -0.2161
63647W        W 6638   4.080  14.404   3.099 -0.0695 -0.1772 -0.1949
63648W        W 6639  23.955  11.411   9.432 -0.0842 -0.0500  0.0471
63649W        W 6640   6.918  24.053   0.929 -0.1363 -0.0640  0.1598
63650W        W 6641  12.143  21.884   6.107  0.1885  0.0923 -0.3272
63651W        W 6642  30.585  24.288  15.783  0.0213  0.3997 -0.0620
63652W        W 6643   6.412  12.844  10.846 -0.1740  0.1604 -0.2201
63653W        W 6644   3.858  19.163   8.356 -0.0504 -0.0563  0.1702
63654W        W 6645   1.611  27.521  23.923  0.0045  0.0314 -0.2393
63655W        W 6646   4.887  27.551  24.876  0.1195 -0.1558  0.0453
63656W        W 6647   8.805  26.280  27.419  0.0655 -0.2257  0.3489
63657W        W 6648  33.096  27.454  16.104 -0.2475  0.3018 -0.0376
63658W        W 6649   5.389  29.268  18.869 -0.0654 -0.2562 -0.0972
63659W        W 6650  28.060  21.828   1.468 -0.2460 -0.1105 -0.0569
63660W        W 6651   1.634  12.199  11.486 -0.2376  0.2713  0.0774
63661W        W 6652   7.120   6.447   2.015 -0.3307  0.3030 -0.1050
63662W        W 6653  23.510   3.541  19.776 -0.1439  0.1814  0.0970
63663W        W 6654   5.550  24.771   6.190  0.0974 -0.0239 -0.0103
63664W        W 6655   2.213   3.037   7.619  0.1690  0.2714  0.2088
63665W        W 6656  27.524  12.857   9.971  0.0258 -0.0288  0.0433
63666W        W 6657  11.109  24.740   4.710 -0.0393 -0.0505 -0.1007
63667W        W 6658  11.948  32.277   9.582  0.0227 -0.1493  0.2695
63668W        W 6659   3.343  25.118  25.713 -0.4203  0.3602  0.0204
63669W        W 6660   0.422  25.230  24.432  0.3037  0.0437  0.1008
63670W        W 6661   0.141   0.141  28.122  0.0656  0.5318  0.1711
63671W        W 6662   2.604  13.382  22.900 -0.3427  0.3016  0.0458
63672W        W 6663   5.772   5.931  19.431  0.4473 -0.0483 -0.0694
63673W        W 6664   5.067  23.728   6.329  0.2477 -0.2086  0.3886
63674W        W 6665  15.138  14.449   3.145  0.2150 -0.0560 -0.3247
63675W        W 6666   0.253   4.730   9.563  0.0942  0.0564  0.1378
63676W        W 6667  32.804   2.906   9.362  0.1754  0.1541 -0.0164
63677W        W 6668  11.401  25.376  23.053 -0.0398  0.1554  0.0124
63678W        W 6669  11.587  30.520   3.259 -0.1345  0.1654 -0.1312
63679W        W 6670   3.153  22.448  27.203 -0.1239  0.2089 -0.0914
63680W        W 6671  32.750  16.252   5.686 -0.1272  0.0687  0.1062
63681W        W 6672  23.672  19.940   7.844 -0.0939  0.4357 -0.0100
63682W        W 6673  25.007  31.829   0.026 -0.0040 -0.0555  0.2395
63683W        W 6674  28.325  24.234   2.888 -0.0485 -0.0555 -0.1424
63684W        W 6675  12.475  27.579   2.916 -0.2595  0.0441 -0.2531
63685W        W 6676   3.704  26.801  24.029 -0.0610 -0.2320  0.1567
63686W        W 6677  13.452  19.211  29.064 -0.0733  0.2176  0.2522
63687W        W 6678  16.262  13.014   4.231 -0.2251 -0.1513  0.2868
63688W        W 6679   7.960  21.730   4.406  0.0324 -0.2586  0.1037
63689W        W 6680   6.021  20.113   6.761  0.1842  0.0982  0.0068
63690W        W 6681   3.210  11.748   0.272 -0.2623 -0.0273 -0.0095
63691W        W 6682  24.188  31.791  20.548  0.0605 -0.3251  0.2009
63692W        W 6683  10.230  21.042   1.506 -0.0604 -0.0118  0.0540
63693W        W 6684   0.184  21.736   5.247 -0.1896  0.1721  0.0055
63694W        W 6685   5.974  32.957  17.127  0.0862 -0.1406 -0.1123
63695W        W 6686  26.253   0.417  27.382 -0.0183  0.0037 -0.3193
63696W        W 6687   6.827   0.197  29.192  0.1022  0.1766 -0.1345
63697W        W 6688  21.006  27.819   9.636 -0.0922 -0.0912 -0.2121
63698W        W 6689  24.915  23.355  14.259 -0.1941 -0.4122  0.0035
63699W        W 6690   5.882  20.968   0.212 -0.1700  0.1102  0.0719
63700W        W 6691  33.884  30.797   7.209 -0.1677  0.3240 -0.2203
63701W        W 6692  26.671  12.906   0.586 -0.3119  0.1511 -0.1345
63702W        W 6693   4.037  29.465   2.305 -0.1336  0.3043 -0.3959
63703W        W 6694   7.506  28.928   4.589  0.0399 -0.2372 -0.1927
63704W        W 6695   0.360   9.042   5.896 -0.5267 -0.0258  0.3510
63705W        W 6696   0.671   9.566   8.619 -0.0504  0.1516  0.1263
63706W        W 6697   7.571  21.029  29.169  0.3005  0.0933  0.0358
63707W        W 6698   1.109  14.168  22.158 -0.0468  0.1977  0.1444
63708W        W 6699  27.330  28.196   5.586  0.1021  0.2086  0.3131
63709W        W 6700   9.350  31.013   4.322 -0.0927  0.0756 -0.1890
63710W        W 6701   0.745  16.999  27.347  0.1239  0.2536  0.3038
63711W        W 6702  29.127  32.210   6.031 -0.0072  0.4146  0.0386
63712W        W 6703  28.567   5.932   2.985  0.1875  0.3101  0.1137
63713W        W 6704  28.549  27.133  23.376 -0.1050  0.1452 -0.1820
63714W        W 6705   0.276  32.934   1.392  0.2421 -0.2294  0.2439
63715W        W 6706   8.036  27.776  21.663 -0.0047 -0.2881 -0.2207
63716W        W 6707  16.409  22.458   1.073  0.1043  0.0237 -0.0807
63717W        W 6708  23.330  24.856  24.882 -0.0621 -0.0625 -0.1911
63718W        W 6709  20.387  28.398   5.541  0.1455  0.1538 -0.1365
63719W        W 6710   2.836  31.773   7.473  0.3258  0.1526 -0.1273
63720W        W 6711  27.325  23.469   4.819  0.4065  0.3644  0.1450
63721W        W 6712   0.389  18.387   8.147  0.0035 -0.2887 -0.1064
63722W        W 6713   3.830  15.481  12.059  0.0122  0.1279 -0.2675
63723W        W 6714  17.734  13.909  23.770 -0.2222  0.1111  0.2043
63724W        W 6715  25.924   6.278   3.497 -0.1837 -0.2052 -0.2229
63725W        W 6716   8.419   4.799   7.215 -0.2730  0.2259  0.0452
63726W        W 6717   6.128  23.346  25.481  0.0849  0.6311  0.0919
63727W        W 6718  34.769   0.848  10.069 -0.0542 -0.0480 -0.0824
63728W        W 6719  23.617  21.207   6.608 -0.2042 -0.0721  0.0472
63729W        W 6720   5.881  15.758  12.024 -0.0110 -0.1062  0.2348
63730W        W 6721  12.211  20.238  25.137 -0.2501  0.0807 -0.1946
63731W        W 6722   3.053   3.767   3.385  0.2328 -0.1246  0.0470
63732W        W 6723  33.896  26.248   2.371  0.1499  0.1726  0.0107
63733W        W 6724  29.093  22.120   4.291  0.0994 -0.2387  0.1221
63734W        W 6725   7.997   2.510  10.003 -0.0493  0.0449 -0.2861
63735W        W 6726  28.824  29.734  14.664  0.1490 -0.0609 -0.4460
63736W        W 6727  23.118  17.025   0.787 -0.0492  0.1891 -0.2137
63737W        W 6728   3.354  25.195  22.081 -0.0636 -0.1917 -0.0859
63738W        W 6729  31.028  16.721  27.962  0.1661 -0.1279 -0.3775
63739W        W 6730   8.025  13.020   9.909  0.2403 -0.2406  0.1386
63740W        W 6731  10.906  14.799  22.293  0.1237  0.5168 -0.2702
63741W        W 6732  33.125   0.733  26.876 -0.1354  0.0210 -0.0053
63742W        W 6733   2.141  14.247  11.229 -0.0429  0.1897 -0.0208
63743W        W 6734  31.299  11.890  16.667  0.1300  0.0072  0.1632
63744W        W 6735  14.707  22.374   2.297 -0.1002 -0.1388 -0.2120
63745W        W 6736   3.852   9.766   2.206 -0.1517 -0.1056  0.3334
63746W        W 6737  15.271   6.804   4.628  0.2397  0.0891  0.0313
63747W        W 6738  23.047   8.199  14.565 -0.2669  0.0721 -0.1366
63748W        W 6739   9.056  33.019   2.094  0.2933  0.0646  0.0519
63749W        W 6740   1.500  25.172  17.516  0.2052 -0.1846 -0.1865
63750W        W 6741   3.080  22.588   5.438  0.0738 -0.2187  0.3673
63751W        W 6742  34.175  20.985   4.875  0.1018 -0.3460 -0.0961
63752W        W 6743  30.039  25.409   1.238 -0.1488 -0.1766 -0.1345
63753W        W 6744   4.423  25.644  25.022 -0.0883 -0.2396  0.1453
63754W        W 6745  20.297  12.192  24.890  0.1524  0.1520 -0.5878
63755W        W 6746  30.227  20.407   6.019  0.0950  0.1216 -0.2821
63756W        W 6747  32.226   3.199  19.624  0.2161 -0.0209  0.0026
63757W        W 6748   6.000  31.746  14.373  0.2621 -0.0973 -0.1149
63758W        W 6749   9.297  19.970  29.147 -0.1365  0.2236  0.0226
63759W        W 6750   7.540  15.054   4.919  0.0406 -0.1118 -0.1739
63760W        W 6751  28.232  26.130   4.767  0.2163  0.2898 -0.0584
63761W        W 6752  11.194  18.120   7.924  0.0727  0.0788  0.0988
63762W        W 6753  16.123  24.006  25.488  0.3967 -0.0912 -0.3270
63763W        W 6754  30.285  25.639   8.606 -0.0247 -0.1113  0.4307
63764W        W 6755  19.416  33.695   8.003 -0.3014  0.0687 -0.0920
63765W        W 6756   2.542   8.103   4.064  0.0682  0.0374  0.0857
63766W        W 6757  14.529  21.344  25.622  0.0133  0.0683  0.0320
63767W        W 6758   4.770  30.405   8.199  0.0612 -0.0972 -0.0278
63768W        W 6759  10.726  25.262   7.605 -0.1109 -0.0277  0.2110
63769W        W 6760   1.485  32.713  14.876 -0.0168 -0.0151  0.1843
63770W        W 6761  30.242   2.495   4.681  0.0344  0.1093 -0.1597
63771W        W 6762  18.996  14.311   4.223  0.0159 -0.0493  0.2007
63772W        W 6763   2.834   8.284  11.717  0.2611  0.0118  0.1520
63773W        W 6764  25.882  30.892   3.478  0.0670 -0.0513 -0.1089
63774W        W 6765  30.673  18.995  15.728 -0.0022  0.0957  0.0327
63775W        W 6766   2.728  10.301  11.240  0.0653 -0.3144  0.2169
63776W        W 6767   9.052  18.302  21.025  0.0026  0.3174 -0.2364
63777W        W 6768  27.917  28.456  27.661  0.0003  0.0371  0.2950
63778W        W 6769   4.472  22.989   7.085  0.2538  0.0114 -0.1072
63779W        W 6770  18.850  30.449   0.992  0.1404  0.0387 -0.0420
63780W        W 6771   6.870  11.863   6.606 -0.2624 -0.3368  0.0469
63781W        W 6772  26.018  19.875   1.280  0.2219  0.0766  0.1908
63782W        W 6773   0.857  34.197   7.232  0.3061 -0.2103 -0.0684
63783W        W 6774   6.136  21.652  28.286  0.0026  0.0907  0.0092
63784W        W 6775  17.594  30.426   5.922  0.1186 -0.1480  0.0145
63785W        W 6776  12.719  19.071   5.198  0.0645  0.0214  0.0792
63786W        W 6777   4.946  19.520  26.332  0.0756  0.4947 -0.1411
63787W        W 6778  10.003  27.850   7.494  0.1824  0.1017  0.1021
63788W        W 6779   2.124  20.041  10.892  0.0949  0.0872  0.4335
63789W        W 6780  13.511  20.223  26.695 -0.1868  0.1865 -0.0827
63790W        W 6781   7.749  29.313   3.386 -0.0133 -0.2430  0.2527
63791W        W 6782  34.606  32.274  26.840 -0.0825 -0.0524  0.0441
63792W        W 6783   5.374  20.131  26.024 -0.0366  0.1990  0.1329
63793W        W 6784  32.709  23.660  16.966  0.0904  0.2385  0.1143
63794W        W 6785   8.045  25.699   5.454  0.0329  0.0608  0.0314
63795W        W 6786   6.637  14.926   1.450 -0.3224  0.1068  0.1680
63796W        W 6787  16.887  20.540   4.720 -0.0584  0.0253 -0.0285
63797W        W 6788   8.464  11.514  20.177  0.2097  0.0158 -0.0071
63798W        W 6789   3.754  33.549  26.928  0.2759  0.1132  0.0027
63799W        W 6790   2.873  19.276   2.102  0.1085 -0.0642  0.1211
63800W        W 6791   0.600  24.355   4.630 -0.2402  0.0868  0.1253
63801W        W 6792   3.745  27.974  10.180 -0.1580  0.0046  0.0047
63802W        W 6793  15.869   3.218  26.925 -0.3452  0.3119  0.2428
63803W        W 6794  21.740  19.035   3.231  0.3743 -0.0579  0.0174
63804W        W 6795   2.298  31.417   5.477  0.2754  0.2785 -0.0312
63805W        W 6796   0.367  11.433   5.694 -0.1018  0.0866 -0.0035
63806W        W 6797  28.862  15.116   3.906 -0.1201 -0.5188 -0.4074
63807W        W 6798   7.015   3.384   8.330  0.0295  0.0208  0.0873
63808W        W 6799   6.154  26.580   6.982 -0.0590  0.0330  0.1166
63809W        W 6800  34.244  23.553   2.986 -0.3769  0.3225 -0.0976
63810W        W 6801   3.391   3.463  15.289  0.0485  0.1667  0.2251
63811W        W 6802   7.024  31.642  24.318  0.1211  0.1455 -0.1889
63812W        W 6803  10.048  15.444  21.149 -0.0173 -0.2855 -0.0490
63813W        W 6804  11.891  33.656   6.870 -0.4045  0.0618 -0.2541
63814W        W 6805  25.304   7.919   4.410  0.0396  0.0271 -0.2599
63815W        W 6806   2.559  21.014  21.121 -0.1125 -0.2802 -0.0017
63816W        W 6807  26.642   2.986   3.917 -0.2159  0.2399  0.0397
63817W        W 6808   0.733  21.447  14.781 -0.0721  0.1959 -0.0102
63818W        W 6809   5.216  23.069   4.508  0.3579 -0.1828  0.0667
63819W        W 6810   9.554  27.571  25.750  0.1058 -0.0260  0.1566
63820W        W 6811  17.498   3.257  23.331 -0.1810  0.0761 -0.0773
63821W        W 6812  32.079   9.714  28.250  0.2213  0.2149  0.0273
63822W        W 6813  21.518  22.521  17.616 -0.0696  0.0079  0.0989
63823W        W 6814   2.709   2.916   3.719 -0.0045 -0.2258  0.1929
63824W        W 6815  17.293  25.067   6.038 -0.1418 -0.2439 -0.0048
63825W        W 6816  33.988  16.436   5.972  0.0089 -0.0875  0.0923
63826W        W 6817   2.515  10.459   2.902 -0.2238 -0.1118  0.0954
63827W        W 6818  29.934  32.487  28.254 -0.0557 -0.2791 -0.0505
63828W        W 6819  30.348  26.067   3.604 -0.0871 -0.0993 -0.0016
63829W        W 6820   1.962  21.324   9.069 -0.1198 -0.1208 -0.0205
63830W        W 6821  28.366  33.528   4.535 -0.0616  0.2681 -0.0857
63831W        W 6822   1.227  29.716   6.568  0.0686 -0.2058 -0.2963
63832W        W 6823  26.566  26.036   4.481 -0.1857  0.2337  0.1197
63833W        W 6824  12.726   4.884   4.754 -0.0686  0.0923 -0.0187
63834W        W 6825   2.203  23.367   0.552  0.2204  0.1489  0.2906
63835W        W 6826   0.005  28.245   3.710  0.2059 -0.1185  0.3855
63836W        W 6827   2.356   0.456   7.204  0.1963 -0.1377 -0.0047
63837W        W 6828   7.103  30.995   4.101  0.3340 -0.1403  0.0066
63838W        W 6829  32.409  15.094   1.644  0.1207 -0.0401 -0.1861
63839W        W 6830   1.304  20.548  27.757 -0.1828  0.1856 -0.2621
63840W        W 6831   4.061  26.391   4.403 -0.0161 -0.0800 -0.0326
63841W        W 6832   5.885  32.779   0.970 -0.1800 -0.1361 -0.1123
63842W        W 6833   5.609  10.469  25.051  0.1476 -0.1200 -0.2492
63843W        W 6834  30.933  19.806   3.763  0.1383 -0.1406  0.1918
63844W        W 6835   2.953  28.751  24.317 -0.0913  0.1382 -0.2252
63845W        W 6836   6.143  31.699  20.519 -0.1083  0.0382  0.0430
63846W        W 6837  13.425  27.871   3.967  0.2059 -0.0136  0.2046
63847W        W 6838  32.504  12.926   4.474  0.1052 -0.0616  0.0957
63848W        W 6839   9.644  32.055   7.939 -0.0107  0.0194  0.2299
63849W        W 6840  18.274  19.206   8.935 -0.1782  0.1763  0.2971
63850W        W 6841  19.497  34.022  20.624 -0.0114 -0.3055  0.1484
63851W        W 6842  29.028  33.631   8.280  0.0535  0.0350 -0.2321
63852W        W 6843   0.693  25.575   0.412  0.1617 -0.0303 -0.1808
63853W        W 6844  30.534   6.765  15.767  0.2505  0.1849 -0.1073
63854W        W 6845  20.711  10.920  18.539 -0.4471 -0.1683 -0.0947
63855W        W 6846  10.930  29.694   4.655  0.1088 -0.0560  0.0936
63856W        W 6847  12.778  15.765   6.066  0.0075 -0.2053 -0.3124
63857W        W 6848   0.097  28.073  19.333 -0.1706 -0.0987 -0.1431
63858W        W 6849  19.678  27.526   8.298 -0.1758 -0.0286 -0.1032
63859W        W 6850   9.299  29.284  27.572 -0.1324 -0.1442 -0.1224
63860W        W 6851   2.430   7.568  15.731  0.3636 -0.1961 -0.0356
63861W        W 6852   6.559   1.655  24.531 -0.1160 -0.2444 -0.0923
63862W        W 6853  10.009  31.970  24.827  0.0803  0.1112  0.1289
63863W        W 6854   3.048  32.946   4.750 -0.1205 -0.1990  0.1114
63864W        W 6855  23.861  32.762   3.479 -0.2782 -0.2105  0.2405
63865W        W 6856  30.432  12.288   5.737 -0.0601 -0.0562 -0.0914
63866W        W 6857  34.255  29.370  21.584  0.1212 -0.1108 -0.2624
63867W        W 6858  17.095  19.822  24.861 -0.2687 -0.0155  0.0498
63868W        W 6859   1.513   7.587  24.231 -0.3114  0.3618  0.1149
63869W        W 6860  11.834   3.154  24.903  0.1574 -0.2201  0.2111
63870W        W 6861   4.443  32.513   5.228  0.3152  0.0231 -0.1497
63871W        W 6862  18.292  16.305   1.717  0.1287 -0.0384  0.1609
63872W        W 6863  34.044  18.532   6.429  0.0278 -0.3191 -0.1130
63873W        W 6864   8.578  21.003   9.475  0.0264 -0.0242  0.1035
63874W        W 6865  31.681   8.227  18.635  0.1300 -0.0629 -0.1203
63875W        W 6866   4.009  18.331  10.248  0.0684  0.4036 -0.2917
63876W        W 6867   1.235   5.893  19.551  0.1003  0.1094 -0.1406
63877W        W 6868   5.520  21.211   9.837  0.2616 -0.1194 -0.2255
63878W        W 6869  25.166  29.095   1.818 -0.1634  0.2221  0.3100
63879W        W 6870  31.778  31.930  21.517 -0.0075  0.4823  0.1330
63880W        W 6871   3.212  11.478   2.519 -0.2644 -0.2506  0.1589
63881W        W 6872   5.642  21.429  21.527 -0.1712  0.1653 -0.1061
63882W        W 6873   1.552  18.867  22.696  0.0188  0.0670 -0.1531
63883W        W 6874  30.426  30.507   7.740 -0.0441 -0.0559  0.0387
63884W        W 6875   7.632  23.200   6.518 -0.0232 -0.0998  0.2324
63885W        W 6876   6.981  25.921  18.035  0.0587 -0.1639 -0.0768
63886W        W 6877  24.027  28.933   3.008 -0.2326 -0.0640  0.1578
63887W        W 6878  10.124  31.311   4.021  0.0177  0.0083  0.2438
63888W        W 6879  12.118  31.367   3.938  0.2849  0.0086 -0.4607
63889W        W 6880  21.952  34.533   8.674  0.3189 -0.2083 -0.0478
63890W        W 6881  29.583   9.867  10.108 -0.0154  0.3867 -0.3266
63891W        W 6882   2.153  22.519   2.941 -0.0999 -0.3314 -0.1200
63892W        W 6883   0.945  10.777  25.141 -0.1983  0.1639 -0.2269
63893W        W 6884  14.883  25.444   3.707 -0.2975  0.1744  0.0320
63894W        W 6885  34.798  26.387  25.650 -0.2522 -0.0962 -0.1653
63895W        W 6886  28.636  32.391  14.603 -0.0224 -0.0789  0.0774
63896W        W 6887  32.717   6.374   0.363  0.3374  0.3319  0.1771
63897W        W 6888  13.338  25.889   8.849  0.0530 -0.0769 -0.1308
63898W        W 6889   9.450  34.004   5.660  0.1031  0.0610  0.0547
63899W        W 6890  18.678   9.090  24.688  0.0828  0.0109 -0.0473
63900W        W 6891   1.456  24.662   8.823 -0.1582 -0.2774  0.1410
63901W        W 6892   6.267  25.694  25.389 -0.1522  0.0426 -0.0870
63902W        W 6893  17.328  23.263  23.960  0.2246 -0.0045 -0.1509
63903W        W 6894  10.464  11.742  17.287  0.3045 -0.1464 -0.4534
63904W        W 6895  34.104  27.920   6.995 -0.0783 -0.1449 -0.1879
63905W        W 6896   7.409  13.556   0.943  0.2414 -0.0014  0.0319
63906W        W 6897   5.314   4.712   4.665  0.0449 -0.2414  0.2968
63907W        W 6898   4.569  22.744   6.085 -0.2661  0.1334  0.1596
63908W        W 6899   1.021   6.400   1.065  0.0025 -0.4089 -0.3538
63909W        W 6900   7.062  22.630  26.877 -0.2104 -0.1317 -0.0564
63910W        W 6901  11.144  30.727  27.680 -0.1029  0.3606  0.3521
63911W        W 6902  28.655   6.803  29.053  0.0838  0.0229 -0.0507
63912W        W 6903   4.071  17.864   8.204 -0.1741  0.0925 -0.2412
63913W        W 6904   0.101  30.676   6.411  0.0904 -0.1442 -0.0382
63914W        W 6905  28.417  24.997   9.361  0.0361 -0.2645  0.1735
63915W        W 6906   6.497  24.308  23.348 -0.0454 -0.0430 -0.1062
63916W        W 6907   8.454  19.640   6.464  0.1198 -0.2880  0.2444
63917W        W 6908  32.142  23.323  26.127  0.3341  0.4978  0.3611
63918W        W 6909  23.743   4.802   2.244  0.1133  0.2227 -0.0291
63919W        W 6910   4.695  24.973   6.706 -0.0459 -0.0332  0.1657
63920W        W 6911  24.905  23.939  18.080  0.0606  0.2505 -0.0467
63921W        W 6912   6.515  24.012   6.144 -0.1078  0.0496 -0.2772
63922W        W 6913  31.057  26.511   1.141  0.1743 -0.1805  0.1108
63923W        W 6914  34.260   1.745  15.019  0.0971  0.1975  0.2508
63924W        W 6915  29.350  25.347   9.688  0.2567  0.0113 -0.1983
63925W        W 6916   4.978   9.011   2.420 -0.1960  0.3474 -0.2409
63926W        W 6917   1.759  27.568   4.278  0.1178  0.1025 -0.2959
63927W        W 6918   5.979   1.882   7.022  0.1598 -0.3046 -0.1320
63928W        W 6919   1.210   1.108  23.326 -0.0130  0.1526  0.1690
63929W        W 6920  20.157  10.705   2.301 -0.1368  0.0980  0.0245
63930W        W 6921   8.050  32.122   4.681 -0.2025 -0.1611 -0.1172
63931W        W 6922   5.707  26.782  29.222  0.0713 -0.2493 -0.0753
63932W        W 6923  31.890  21.790   4.757 -0.0256  0.1277  0.0164
63933W        W 6924  19.391  15.302  15.242  0.0315  0.4077  0.1063
63934W        W 6925  26.663  24.065   3.723  0.1896  0.1082 -0.0837
63935W        W 6926   1.730  28.393   4.760  0.0339 -0.3405 -0.2096
63936W        W 6927  13.951  30.689   5.716  0.2197 -0.2051 -0.0125
63937W        W 6928   6.426  16.689   8.829  0.1477  0.0425  0.3006
63938W        W 6929   7.259   9.933   7.254  0.0346  0.1363  0.2328
63939W        W 6930  28.602   5.809   0.028 -0.3782  0.0005  0.2113
63940W        W 6931  30.312   7.449  23.992  0.4949 -0.1876  0.3721
63941W        W 6932  31.827  23.706   9.902 -0.1489  0.0385  0.1690
63942W        W 6933   7.465  29.212   6.661 -0.0671  0.1354  0.1746
63943W        W 6934   2.446  15.323   4.182  0.1828  0.0056  0.0732
63944W        W 6935   5.543  25.604  27.756 -0.0376  0.1383 -0.0146
63945W        W 6936   9.192  26.083  23.774 -0.0205  0.2573  0.1762
63946W        W 6937  33.690  28.054   7.365  0.2445  0.2424  0.1407
63947W        W 6938   3.425  29.485   0.044  0.0972  0.0991  0.2496
63948W        W 6939   5.136  33.053   6.477  0.0850  0.2177  0.0120
63949W        W 6940  12.775  30.714   9.777  0.1547  0.1985  0.0186
63950W        W 6941  27.017   7.571  23.583  0.3029 -0.0491 -0.3039
63951W        W 6942  14.265  21.091   0.053 -0.1261  0.0952 -0.3372
63952W        W 6943   4.637  19.543   9.493  0.0269 -0.1366 -0.1785
63953W        W 6944  30.113  32.099   4.504  0.0445 -0.1034 -0.3670
63954W        W 6945   7.242  30.766   1.501 -0.1031 -0.1608  0.2402
63955W        W 6946   7.825  16.931  22.660 -0.2106  0.0613  0.1811
63956W        W 6947  31.255   0.634   7.008 -0.1502 -0.1552  0.1988
63957W        W 6948  32.842  11.845   1.798  0.1695 -0.0870  0.1292
63958W        W 6949  32.980   0.273  21.130 -0.0922  0.0043 -0.5697
63959W        W 6950   1.245  29.655  25.397  0.3717 -0.0507  0.4434
63960W        W 6951   1.469  22.705   9.288 -0.1535 -0.0231  0.4277
63961W        W 6952  13.780  30.135  25.815  0.1562 -0.0322  0.1492
63962W        W 6953   1.352  30.049   5.472 -0.1245  0.0675  0.0385
63963W        W 6954  12.433  28.022  26.584 -0.1064  0.2018  0.1286
63964W        W 6955  11.568   6.080   7.711 -0.2119  0.0954 -0.1198
63965W        W 6956   1.342  31.257   2.322 -0.0858  0.2116 -0.1203
63966W        W 6957  29.920  27.514   2.298  0.2204  0.1718 -0.0984
63967W        W 6958  11.065  31.571  26.424  0.1771  0.0917  0.0671
63968W        W 6959  16.373  20.256  26.733 -0.3722  0.1778  0.0403
63969W        W 6960  10.400   0.396   7.032 -0.1515 -0.2880  0.0359
63970W        W 6961  31.134  21.480   2.867  0.0635  0.1788  0.1562
63971W        W 6962  14.581  10.448  29.120  0.3309 -0.0269 -0.0446
63972W        W 6963  32.400  30.335   6.916  0.2599 -0.1658 -0.0776
63973W        W 6964  26.614  27.493   3.404  0.1361  0.2124 -0.0081
63974W        W 6965   0.884  17.445   9.085  0.3958 -0.2648  0.1988
63975W        W 6966  15.263  32.045   4.969  0.2088 -0.0304  0.3300
63976W        W 6967  28.032   2.231   5.073 -0.1249  0.0019 -0.2633
63977W        W 6968   1.042  22.373   1.127 -0.3587 -0.3236 -0.1086
63978W        W 6969   3.414   1.067   6.709 -0.0595 -0.0410  0.2037
63979W        W 6970   9.388  29.179   7.692  0.0371  0.0924  0.1676
63980W        W 6971  23.566  30.972   9.158 -0.0936 -0.4448 -0.2864
63981W        W 6972  34.365  30.333  12.649 -0.0965 -0.1146  0.0040
63982W        W 6973   3.279  24.660  28.915 -0.0869  0.0393 -0.0348
63983W        W 6974   2.004   3.559  24.862  0.0969  0.6034  0.2074
63984W        W 6975   7.060   5.897   7.471 -0.5088  0.0184  0.0116
63985W        W 6976  28.747  29.984   3.015  0.2808 -0.2768 -0.0854
63986W        W 6977   9.037  16.535  18.210  0.3161 -0.0232  0.1313
63987W        W 6978   1.974   2.332  17.540 -0.0513 -0.0304 -0.1547
63988W        W 6979  28.160  15.235   7.568 -0.0326 -0.0256 -0.0925
63989W        W 6980  25.429  10.401  27.973  0.1070 -0.2866 -0.0879
63990W        W 6981   7.052  32.036   9.588 -0.0495  0.5024 -0.1460
63991W        W 6982   1.015  27.216   2.510 -0.2890  0.0388  0.1676
63992W        W 6983  32.396  20.186   8.562  0.1567  0.1999  0.1975
63993W        W 6984   5.589   6.925   9.353 -0.2322  0.2375 -0.2786
63994W        W 6985   5.257  22.894   7.498 -0.1690 -0.1472 -0.1782
63995W        W 6986  27.925  13.589  23.284 -0.0347  0.0560 -0.2318
63996W        W 6987   1.393  18.037  26.513  0.0027 -0.0314 -0.1636
63997W        W 6988  34.009  27.445   6.949 -0.0531  0.2714 -0.0074
63998W        W 6989   6.648   0.644   6.439 -0.4872  0.2821 -0.1743
63999W        W 6990   7.969  29.757   7.584 -0.0129  0.0793 -0.1010
64000W        W 6991  34.359  12.569   7.391  0.1692 -0.2303  0.1017
64001W        W 6992   7.943  28.714   4.230 -0.0253  0.2207  0.1709
64002W        W 6993   6.040   4.939   8.075 -0.1081 -0.1791  0.0522
64003W        W 6994  32.184  34.690   3.337 -0.0275  0.0981  0.3967
64004W        W 6995   7.403  15.496  11.546 -0.1512  0.0785  0.6518
64005W        W 6996   0.037  19.198  24.519  0.0630 -0.1155  0.3975
64006W        W 6997  18.606  23.227  25.809 -0.1026  0.1168 -0.0680
64007W        W 6998  28.072   2.774   3.549  0.1469 -0.1804 -0.2439
64008W        W 6999  29.962  27.592   0.716  0.2909  0.2339 -0.2499
64009W        W 7000  24.942   5.113   4.850 -0.1293 -0.1695 -0.2078
64010W        W 7001  25.193  12.094  15.641  0.2228 -0.2511  0.0014
64011W        W 7002  25.333  28.597   8.497 -0.2485 -0.2367  0.0957
64012W        W 7003   5.452  29.434   6.172  0.3939  0.1505 -0.1208
64013W        W 7004  16.263  28.588   9.038  0.0114  0.1922  0.3548
64014W        W 7005   7.366   0.841   5.752 -0.1164 -0.0044  0.0669
64015W        W 7006  29.019   6.715  15.489 -0.2442 -0.2723 -0.3429
64016W        W 7007  25.972  23.007   6.261  0.0797  0.0367  0.1466
64017W        W 7008   9.252  18.172  21.564 -0.1163 -0.1496  0.2037
64018W        W 7009   5.509  23.220  27.243 -0.0216 -0.0009 -0.0255
64019W        W 7010  13.743  17.813   4.462  0.1576  0.1695 -0.1333
64020W        W 7011  14.100  21.206  22.772  0.1197 -0.5096  0.0261
64021W        W 7012  33.268  21.346   4.666 -0.2049 -0.2267 -0.0553
64022W        W 7013   5.173  24.963  26.947  0.2628  0.1655  0.2385
64023W        W 7014  10.249   7.991  20.643 -0.0861  0.2105  0.1580
64024W        W 7015  23.950  11.664  28.488 -0.1679 -0.0391 -0.1053
64025W        W 7016  11.783  18.552   3.189  0.0220  0.0498 -0.1840
64026W        W 7017   5.604  17.900   0.789  0.1456  0.0257 -0.2077
64027W        W 7018  10.102  32.839  10.658 -0.1139  0.1209 -0.4997
64028W        W 7019  33.681  27.439   3.923  0.0286 -0.3848 -0.1797
64029W        W 7020  34.146  33.228  28.156  0.1027 -0.3074 -0.1137
64030W        W 7021  30.286  31.134  27.114  0.2297 -0.1050  0.1658
64031W        W 7022  31.103   0.774  18.272  0.1002 -0.0897  0.1369
64032W        W 7023   8.886  24.995  20.101 -0.2323  0.1219 -0.2212
64033W        W 7024   2.503  10.533   7.942  0.0666 -0.2820  0.1318
64034W        W 7025   8.005  24.165   6.438 -0.3690  0.0847 -0.1673
64035W        W 7026  30.725   2.668   4.112 -0.1102 -0.0848  0.0584
64036W        W 7027  21.201   3.187   6.972  0.1143 -0.1766 -0.6459
64037W        W 7028   2.181   0.573   1.703  0.2422 -0.1899  0.1434
64038W        W 7029  15.677  21.496   7.494 -0.2939  0.3178 -0.1659
64039W        W 7030  11.194  30.336   7.036 -0.0328 -0.0748  0.3573
64040W        W 7031  33.891  34.068   2.284  0.2065 -0.0357  0.1504
64041W        W 7032   0.775  23.267   7.966 -0.0332 -0.0477  0.0228
64042W        W 7033   6.503  26.867  28.518 -0.1011  0.3523 -0.0476
64043W        W 7034  27.576   5.446  19.954 -0.5197  0.1344  0.0266
64044W        W 7035  30.732  21.315   8.593  0.1452  0.0931 -0.0538
64045W        W 7036  15.790  21.883   8.295 -0.0525 -0.4256 -0.2027
64046W        W 7037  13.336  33.200   6.814  0.1584  0.1136 -0.0011
64047W        W 7038  31.376  29.057   8.188  0.3066  0.0021  0.0268
64048W        W 7039  34.148  23.615   7.204  0.1180  0.0092 -0.0459
64049W        W 7040   1.775  24.867  20.536  0.2821 -0.0354  0.2922
64050W        W 7041  16.385  26.515  21.031 -0.0428  0.0684  0.0723
64051W        W 7042  21.565  22.367   5.737  0.0890 -0.3844 -0.2751
64052W        W 7043  25.213  23.655  26.194 -0.1365 -0.0331 -0.1114
64053W        W 7044   5.351  26.177   4.687 -0.0329  0.2037  0.0481
64054W        W 7045  18.039   5.862   2.952 -0.0580  0.2313  0.1544
64055W        W 7046  11.764  23.666   8.068  0.3667  0.1347  0.2110
64056W        W 7047  26.193  33.336   2.385 -0.1268  0.1537 -0.2338
64057W        W 7048  18.350  15.479  23.250 -0.0461 -0.0158  0.0904
64058W        W 7049  27.115  29.130   4.228 -0.1497  0.0369 -0.4987
64059W        W 7050  29.421  20.176   7.818  0.1345 -0.0676  0.0115
64060W        W 7051   8.058   5.408   3.521  0.1580  0.0216 -0.2360
64061W        W 7052  10.861  26.516  28.471 -0.4268 -0.1527  0.0573
64062W        W 7053  15.307  31.312   2.894 -0.0999 -0.3194  0.0079
64063W        W 7054   3.196   1.994  23.169 -0.0259  0.1162 -0.0651
64064W        W 7055  23.197  28.146   1.061 -0.2914  0.1552 -0.1032
64065W        W 7056   5.379  15.309  25.582 -0.2426 -0.3975  0.2469
64066W        W 7057  20.933  31.497   8.966 -0.0028 -0.0288  0.0949
64067W        W 7058   5.319  15.863  12.116  0.2994  0.0087 -0.2344
64068W        W 7059  10.218   3.212  25.575 -0.2345  0.1824  0.0686
64069W        W 7060  34.024  12.762  10.375  0.0974 -0.1783  0.1353
64070W        W 7061   6.219   3.351   4.436 -0.1841 -0.5882 -0.2063
64071W        W 7062   5.273  28.676   8.655  0.1357  0.0791  0.2483
64072W        W 7063  30.754   8.905   0.359 -0.0685  0.1663  0.0236
64073W        W 7064  32.731  25.791   0.356 -0.2408 -0.0960  0.0781
64074W        W 7065   8.465  11.574   3.590 -0.0629  0.2984  0.2889
64075W        W 7066  28.605  30.387   6.141  0.2026 -0.4167  0.0892
64076W        W 7067   4.999  24.681  26.437 -0.1077 -0.0926  0.0973
64077W        W 7068   4.877  26.505   6.759  0.0346  0.2682 -0.1874
64078W        W 7069  15.126   8.017  20.750  0.1681  0.0241  0.0541
64079W        W 7070   3.916  22.639   7.564 -0.2618 -0.1854 -0.3021
64080W        W 7071  12.426  16.629  23.137  0.1692  0.0123 -0.2183
64081W        W 7072   6.185  18.406   8.754 -0.1844 -0.1444  0.1842
64082W        W 7073   6.523  33.674   6.414 -0.2969  0.0366 -0.1026
64083W        W 7074  11.985  31.850   8.787  0.1826  0.1544  0.0315
64084W        W 7075  26.134   8.652   8.910 -0.0044 -0.0693  0.0751
64085W        W 7076  31.706  29.201   5.302 -0.1504  0.0612  0.1332
64086W        W 7077  29.827   4.650  14.398 -0.1954 -0.0609  0.1729
64087W        W 7078   2.272  28.786   5.020 -0.0733 -0.1707  0.0719
64088W        W 7079   2.554  30.300   2.821 -0.2031  0.2840  0.1259
64089W        W 7080  14.124  15.569  24.920  0.1361 -0.2273  0.3870
64090W        W 7081   1.579   3.190  20.317  0.3250 -0.0913 -0.1262
64091W        W 7082   1.327  19.811  25.490  0.4177  0.2129  0.3037
64092W        W 7083   4.436  14.824  10.976 -0.2452 -0.0109 -0.0808
64093W        W 7084   2.751   3.080   8.269 -0.1078  0.2691  0.0159
64094W        W 7085  15.445   3.746   0.973 -0.1664 -0.2657  0.0534
64095W        W 7086  12.700  24.026   9.709  0.1587 -0.1097  0.0658
64096W        W 7087  31.709   0.941  29.012 -0.1506  0.1621  0.0150
64097W        W 7088   8.198  32.546   1.470  0.1110  0.0194  0.2578
64098W        W 7089   9.860   2.569   4.639 -0.1205  0.0767  0.1965
64099W        W 7090  13.598   0.797  28.551  0.2365 -0.2093  0.0135
64100W        W 7091  25.406  32.426   4.054  0.3792 -0.1047  0.0488
64101W        W 7092  15.901  21.205   6.192  0.1622 -0.1911 -0.0739
64102W        W 7093   1.831  23.197   4.113 -0.1327  0.2191  0.0451
64103W        W 7094  31.251  32.906  22.008  0.0811 -0.2554  0.0752
64104W        W 7095   1.141  17.599   6.842  0.3442 -0.0856 -0.1068
64105W        W 7096   9.882  17.455  21.556  0.0991 -0.2008  0.0082
64106W        W 7097  29.091  18.275  28.760 -0.2548 -0.2320  0.4020
64107W        W 7098  14.197  31.147  23.440  0.1063  0.0189 -0.1213
64108W        W 7099   6.198  28.672   6.271 -0.0849 -0.0868 -0.1000
64109W        W 7100  31.295  11.288   6.486 -0.1471  0.1083 -0.3604
64110W        W 7101  13.309  26.515   7.606 -0.0847  0.4093  0.1577
64111W        W 7102   4.348  34.261   9.999 -0.2954 -0.0029  0.1442
64112W        W 7103  17.245   2.735  19.204  0.1430 -0.0251 -0.0209
64113W        W 7104  26.006   8.573   7.467  0.1080 -0.2180  0.2521
64114W        W 7105  27.579  28.312   7.139 -0.3139 -0.0196  0.0235
64115W        W 7106  10.059  30.733  25.399 -0.3124 -0.1647 -0.0298
64116W        W 7107  20.925  16.767  24.859  0.1335 -0.1842 -0.0538
64117W        W 7108   9.925  34.751   9.574  0.1668 -0.2608 -0.1146
64118W        W 7109   3.488  20.625   1.506 -0.1353 -0.0712  0.1720
64119W        W 7110  27.796   4.906   9.509 -0.1685 -0.0835 -0.1150
64120W        W 7111   5.182  29.783  24.715  0.0351  0.0614 -0.3262
64121W        W 7112  24.724  32.084  14.572  0.3207 -0.0970 -0.1110
64122W        W 7113   2.554  30.474   7.865 -0.0538  0.1694  0.0608
64123W        W 7114  30.458  12.892   1.520  0.2530  0.0612  0.4539
64124W        W 7115  13.364  16.977  28.577 -0.0912 -0.1035  0.2334
64125W        W 7116  12.866  19.805  21.418  0.3263  0.0091  0.2114
64126W        W 7117  32.241  10.807  28.097  0.3495  0.1785 -0.1467
64127W        W 7118  28.979  14.622  27.900  0.0328  0.1893 -0.1730
64128W        W 7119   6.507   9.224  28.641  0.2619 -0.0050 -0.0142
64129W        W 7120  11.437  23.591  22.714  0.3501 -0.1479 -0.0299
64130W        W 7121   1.219  15.124  10.831  0.2369  0.0304  0.1615
64131W        W 7122   1.532  32.342   9.082 -0.0325 -0.2323  0.1429
64132W        W 7123   4.833  16.136   6.663 -0.1709  0.1071  0.3889
64133W        W 7124  31.121  29.506   3.541 -0.0228  0.2390  0.5045
64134W        W 7125   5.275  20.907   2.776 -0.5508  0.1672  0.1773
64135W        W 7126   3.761   8.374   5.969  0.3783  0.2561 -0.1198
64136W        W 7127   8.462  25.383  25.358  0.0856 -0.0129 -0.2644
64137W        W 7128  19.786  15.409  28.384  0.1661  0.4162 -0.1414
64138W        W 7129   0.304  18.280   4.233 -0.0167  0.0032 -0.1365
64139W        W 7130  19.656   6.761   6.807  0.0313 -0.0293 -0.0854
64140W        W 7131  31.785   6.679   3.728  0.0456  0.0709 -0.0580
64141W        W 7132  24.030  27.626  28.824 -0.0772  0.1009  0.3316
64142W        W 7133  14.697  13.092  28.938 -0.2290  0.0669  0.2434
64143W        W 7134  21.924   0.372  27.910 -0.0445 -0.1458 -0.1258
64144W        W 7135  31.026  13.100  11.197  0.1014  0.0687 -0.1657
64145W        W 7136   2.632  28.131  28.721  0.0776  0.0010  0.2643
64146W        W 7137  32.765  16.309  24.240 -0.3918 -0.0382  0.1554
64147W        W 7138   4.037  26.576   8.870  0.1043 -0.1027 -0.0745
64148W        W 7139   9.088  23.766   5.229  0.3348 -0.1148  0.0188
64149W        W 7140   3.332  14.870   8.560 -0.1116  0.0108  0.1965
64150W        W 7141   3.636   2.740   5.895 -0.1190 -0.2433 -0.1779
64151W        W 7142  23.032   2.377  28.021  0.0946  0.0853  0.0127
64152W        W 7143   1.721  25.964  17.188 -0.0072 -0.0140 -0.1731
64153W        W 7144   7.029   6.068   6.276 -0.1548 -0.1204  0.1742
64154W        W 7145  11.840  29.523  20.548  0.3578  0.0708 -0.2869
64155W        W 7146  31.874  10.037  10.261 -0.0552 -0.0601 -0.0553
64156W        W 7147  10.754  29.583   7.974  0.0254 -0.1268  0.0284
64157W        W 7148   8.444  28.324   8.408  0.4036 -0.2338  0.2829
64158W        W 7149  29.211  28.600  28.230  0.0022 -0.0492 -0.0543
64159W        W 7150  17.202   1.428   6.836  0.1702  0.2930  0.2302
64160W        W 7151  10.488  29.604  28.550 -0.4877 -0.0111  0.3525
64161W        W 7152  27.674  27.013   7.879 -0.1519  0.0863  0.4544
64162W        W 7153   2.759  14.324   3.079  0.0913  0.0697  0.1797
64163W        W 7154  30.261   2.054   8.252 -0.0202  0.0665  0.0595
64164W        W 7155  17.447   0.405   6.354  0.1875 -0.3731  0.1739
64165W        W 7156   4.693  20.665   7.054  0.0273 -0.0585  0.2383
64166W        W 7157  15.832   0.370   3.601 -0.1928  0.2072  0.0312
64167W        W 7158   8.981  22.508   7.237 -0.3317  0.3236  0.3314
64168W        W 7159   7.662  25.837  25.253  0.0961  0.2029 -0.2792
64169W        W 7160   5.484  22.389  28.293 -0.2993 -0.2616  0.1317
64170W        W 7161  11.030  23.159   5.247  0.0337 -0.0637  0.1277
64171W        W 7162   2.635  33.582  16.725 -0.3660 -0.3640  0.0078
64172W        W 7163  24.463   5.854  19.012 -0.0813 -0.3212 -0.2357
64173W        W 7164   5.630  22.539  25.136 -0.0026  0.2558  0.1895
64174W        W 7165   8.201   8.927   3.883  0.0044 -0.1088 -0.1326
64175W        W 7166  16.790  24.393   8.236 -0.0236  0.1243  0.2683
64176W        W 7167   2.657  21.191   3.456  0.0851 -0.0040 -0.2631
64177W        W 7168  19.367   8.873  22.714 -0.0494  0.0208  0.1165
64178W        W 7169  13.034  29.307   9.154  0.0700  0.0585 -0.2583
64179W        W 7170  30.768  33.512  27.649  0.1849  0.0251  0.2607
64180W        W 7171  15.651   9.849   7.944  0.1995 -0.0210 -0.1919
64181W        W 7172  12.700  19.277  16.912  0.0401  0.1029  0.2559
64182W        W 7173   9.656  22.603   3.286  0.0193 -0.0644 -0.1064
64183W        W 7174   3.570  14.134   0.135 -0.0287  0.1462 -0.2057
64184W        W 7175   9.124  28.561  28.725  0.1185 -0.2592 -0.1135
64185W        W 7176  14.936   1.845  29.225 -0.0164 -0.2298  0.1783
64186W        W 7177   7.345  10.400  10.850 -0.0665  0.0454 -0.0382
64187W        W 7178   6.408   6.295   4.661  0.3269  0.1469 -0.0380
64188W        W 7179  23.080  30.705   7.231 -0.2364 -0.0986 -0.0952
64189W        W 7180  32.574  13.609   9.156 -0.0542 -0.2019  0.3184
64190W        W 7181  30.976  28.955   1.399 -0.3785 -0.2929 -0.0362
64191W        W 7182   5.526  23.495   5.680  0.2089 -0.2045 -0.0296
64192W        W 7183   1.609   4.348   1.961 -0.1030  0.1791  0.0199
64193W        W 7184  27.574  26.638   2.987 -0.1197  0.1258  0.1515
64194W        W 7185   7.571   0.266   3.051 -0.1141  0.2721  0.1730
64195W        W 7186  30.551   1.659  26.260 -0.2500 -0.0215 -0.2001
64196W        W 7187  20.995  10.401  25.544  0.1034  0.2273  0.0504
64197W        W 7188   5.427  23.334   7.731 -0.1370  0.0334 -0.1168
64198W        W 7189   1.406  23.350  28.891 -0.0821  0.1383 -0.1898
64199W        W 7190  12.413  27.958   4.213  0.1229  0.3307 -0.2293
64200W        W 7191   5.083  22.080  10.035 -0.3123 -0.4810  0.0603
64201W        W 7192   9.001  10.261  27.089 -0.2930  0.0656  0.0055
64202W        W 7193  30.917  20.980   7.156 -0.1452  0.0834  0.2113
64203W        W 7194  29.527  33.257  27.329 -0.1258 -0.4991  0.1210
64204W        W 7195  30.783  33.519  22.264  0.2144 -0.2567  0.2676
64205W        W 7196  19.067  33.845  20.341 -0.0175  0.3110  0.1499
64206W        W 7197  31.995  31.817   0.406  0.1316  0.2660  0.0280
64207W        W 7198   2.135   4.405   6.646  0.2767  0.0274 -0.1092
64208W        W 7199   7.586  24.212   9.815 -0.1448  0.0709  0.0095
64209W        W 7200  10.614  27.678   1.757 -0.2675 -0.0348  0.3392
64210W        W 7201  27.877  12.747  28.570  0.0012  0.0070  0.1303
64211W        W 7202  17.720   4.395   9.248  0.0311  0.0946 -0.0824
64212W        W 7203  17.175  20.547  28.747  0.2764  0.0292  0.2000
64213W        W 7204   7.302  30.862   8.285  0.2994  0.2214  0.0117
64214W        W 7205  20.777  22.531   1.006  0.2354 -0.0353 -0.0850
64215W        W 7206   7.129   4.931   4.595 -0.1222 -0.1982 -0.1189
64216W        W 7207  16.075  27.466   4.057  0.1837 -0.1342  0.1757
64217W        W 7208  10.599  17.207  28.419  0.1865  0.3490 -0.0452
64218W        W 7209   3.580  13.393  24.323 -0.0373 -0.4193 -0.1785
64219W        W 7210   4.859  17.112  21.216 -0.0199 -0.2076  0.2593
64220W        W 7211  10.927   9.822  26.815 -0.1117 -0.2738 -0.1156
64221W        W 7212  31.370  17.011   5.162 -0.0091  0.0523 -0.0546
64222W        W 7213  15.676  14.999   0.153  0.0674 -0.0589  0.0962
64223W        W 7214  12.047  18.133   8.306 -0.4630 -0.1209  0.0227
64224W        W 7215  22.843  20.451   0.516 -0.2879  0.0953 -0.0416
64225W        W 7216   5.770  30.716   1.683 -0.0832 -0.1582 -0.0873
64226W        W 7217  27.308   3.234   0.568  0.1524  0.0961 -0.1991
64227W        W 7218   8.723  19.568   2.212  0.1999  0.0713  0.1215
64228W        W 7219  30.692   5.779   9.265  0.2628  0.1242 -0.2137
64229W        W 7220   1.623  29.357  27.891 -0.0756  0.2206  0.2188
64230W        W 7221  21.509   3.716   7.963  0.2911 -0.2177 -0.1199
64231W        W 7222  17.914  23.741   6.902 -0.0338  0.1380 -0.2150
64232W        W 7223   6.999  28.844   2.288  0.2283  0.0138 -0.0013
64233W        W 7224  12.877  17.814   7.852 -0.3567  0.1828 -0.0646
64234W        W 7225  33.249   3.482  28.806  0.0310 -0.0895  0.0685
64235W        W 7226   0.659  28.265   7.503 -0.0845  0.1477 -0.0745
64236W        W 7227  33.990  20.040  24.468 -0.0014  0.0281 -0.0309
64237W        W 7228  16.975  15.256  24.041  0.0816  0.1297 -0.0229
64238W        W 7229  26.149  21.360   9.837  0.1131 -0.0722 -0.1826
64239W        W 7230   7.166  18.251   9.849  0.1891  0.0238  0.3237
64240W        W 7231  34.164  16.709   1.868 -0.3300 -0.0410  0.0105
64241W        W 7232   3.705  31.782   5.384 -0.2761  0.0502 -0.1197
64242W        W 7233   2.306  23.219   3.524  0.2970  0.3229 -0.1204
64243W        W 7234   9.657   6.244   2.358  0.0264  0.1274  0.1276
64244W        W 7235  11.216  20.592   4.870 -0.0239  0.0932 -0.5286
64245W        W 7236   0.989  18.922   4.979 -0.0581 -0.2968 -0.0609
64246W        W 7237   8.626  27.823  20.392 -0.1514  0.2675 -0.2649
64247W        W 7238  32.530  12.476   4.831 -0.0002  0.1433  0.0269
64248W        W 7239   0.416   2.813  27.438 -0.1025  0.0705  0.0368
64249W        W 7240  28.808   3.982  20.112 -0.0124 -0.0441  0.1640
64250W        W 7241  10.535  22.412   3.379 -0.1081  0.2046  0.0760
64251W        W 7242  30.783  21.807   8.252 -0.1556  0.0541 -0.2601
64252W        W 7243   3.797  27.646   1.152 -0.0452  0.0148  0.1604
64253W        W 7244  27.627  30.877   7.235 -0.0857  0.3932  0.1059
64254W        W 7245  10.486  28.263   4.225  0.3360  0.2006 -0.1386
64255W        W 7246  26.475  13.055   4.320 -0.2888 -0.1428 -0.1304
64256W        W 7247   7.382  16.112  24.879  0.3338  0.1724  0.1159
64257W        W 7248   3.431  20.069  27.539  0.3524  0.0998  0.2224
64258W        W 7249   2.099   3.969   5.637  0.1692  0.0544  0.0593
64259W        W 7250   3.769  31.497  15.963  0.0391 -0.0667 -0.2337
64260W        W 7251   7.846  30.848   2.663  0.0280 -0.1478 -0.1347
64261W        W 7252  26.955  32.597  25.201  0.1258 -0.1074  0.2201
64262W        W 7253   0.929  20.252  22.226 -0.0472  0.1681 -0.0324
64263W        W 7254  33.039  20.640   4.105 -0.0024 -0.2274 -0.3607
64264W        W 7255  34.005  18.713   2.219  0.0432 -0.5055 -0.5032
64265W        W 7256   2.608  27.873   6.528 -0.1681  0.3712 -0.3177
64266W        W 7257   2.631   3.565  27.877 -0.1733  0.0453 -0.0538
64267W        W 7258   4.543  23.130   8.393  0.0472  0.1658 -0.0585
64268W        W 7259   2.318  20.452   8.512 -0.2528  0.2059  0.1249
64269W        W 7260  32.019  20.409   2.372 -0.1780 -0.1125  0.3772
64270W        W 7261   2.889  22.790   0.789  0.1539 -0.2004 -0.2023
64271W        W 7262   0.810  26.544   9.682  0.1425 -0.1764  0.2595
64272W        W 7263   4.995  32.388   5.601 -0.0370 -0.3743 -0.0492
64273W        W 7264  21.122  31.463  26.302 -0.1834 -0.0044  0.1186
64274W        W 7265  29.575   8.336  22.145  0.2442 -0.1429  0.1431
64275W        W 7266  31.521  29.377   7.316  0.0874  0.0633  0.2332
64276W        W 7267  32.983  20.743  28.919  0.3807  0.0648  0.0168
64277W        W 7268  12.645  33.721   8.008 -0.0750  0.2537 -0.0564
64278W        W 7269  32.376  27.525  27.623 -0.2383  0.1563  0.0348
64279W        W 7270  29.167  23.546   6.736  0.5090  0.1657  0.1466
64280W        W 7271  31.496   0.549   5.834 -0.2436  0.2301  0.0960
64281W        W 7272  25.233  18.852   3.120 -0.0430 -0.2464  0.0995
64282W        W 7273  26.784  31.446   3.111  0.0830 -0.2246 -0.3841
64283W        W 7274  34.611  21.266  10.084  0.1891 -0.2423  0.1921
64284W        W 7275  16.577  11.384  24.671 -0.2971  0.2068 -0.4570
64285W        W 7276  33.684  22.620   3.217 -0.2265 -0.1194 -0.3104
64286W        W 7277  25.648  12.004   6.243 -0.1644  0.2704 -0.0319
64287W        W 7278   0.983  29.760  24.986  0.0408  0.1878  0.1923
64288W        W 7279  10.913  11.267  23.519  0.2421 -0.0551 -0.1408
64289W        W 7280  19.734  21.223   6.460 -0.0261  0.0331  0.3945
64290W        W 7281   5.083  26.803   1.728 -0.2034 -0.0417 -0.4213
64291W        W 7282   6.433  27.817   0.903  0.0424 -0.1076  0.0220
64292W        W 7283   1.838  28.701  28.907 -0.0707  0.0126  0.1242
64293W        W 7284  28.495  33.755  26.345 -0.0005  0.0927 -0.1029
64294W        W 7285  34.550   1.498  25.203 -0.1473  0.1738  0.3848
64295W        W 7286   3.894  28.076   9.173  0.3531  0.0783 -0.0002
64296W        W 7287  25.060   2.296  28.478 -0.0543 -0.0864 -0.1348
64297W        W 7288  34.744  20.027   2.912  0.3286  0.1528 -0.1460
64298W        W 7289  15.833   3.295   2.920 -0.0739 -0.0939 -0.0582
64299W        W 7290   7.078  21.514   5.946 -0.0108  0.2093  0.0974
64300W        W 7291   0.199   5.963   8.749  0.0095  0.1135  0.0978
64301W        W 7292   6.778  16.973   3.522  0.1277 -0.1336 -0.1038
64302W        W 7293  23.670  22.189   2.198 -0.2448  0.0671 -0.1729
64303W        W 7294   8.990   8.183   8.272 -0.1176  0.0562  0.1068
64304W        W 7295   4.032  17.549   1.880  0.2487  0.3436 -0.0342
64305W        W 7296  25.723   9.250   4.479  0.4015 -0.0064  0.0906
64306W        W 7297  10.697  28.552   1.531 -0.1055  0.0867 -0.0930
64307W        W 7298  29.755  19.823   7.902  0.2757 -0.1583 -0.3069
64308W        W 7299  30.123  14.156   4.214 -0.0651 -0.1232  0.0955
64309W        W 7300  30.329  29.789   0.545 -0.1558  0.1380 -0.0756
64310W        W 7301   3.521  31.730  22.660 -0.0239 -0.2810  0.1385
64311W        W 7302  14.326  27.622   8.955 -0.1934  0.3667  0.1878
64312W        W 7303   0.121  31.996   0.130 -0.1327  0.0777  0.2030
64313W        W 7304  25.406   3.817  28.224  0.1860 -0.2013 -0.1149
64314W        W 7305  29.133  22.727   6.719  0.1601 -0.2416 -0.3293
64315W        W 7306  11.192   4.700  10.711  0.2947 -0.2614  0.1876
64316W        W 7307  11.330   4.962  15.792  0.4639 -0.1320 -0.2693
64317W        W 7308  10.962  25.172  22.783  0.0250 -0.4232  0.0690
64318W        W 7309  34.223  30.168   4.047 -0.1977 -0.3064  0.1930
64319W        W 7310   1.390   3.811  24.833  0.0574  0.0648 -0.2133
64320W        W 7311  14.529  23.223   9.195 -0.2891 -0.1006 -0.1836
64321W        W 7312  11.890  14.226   6.118 -0.3850 -0.0692 -0.0062
64322W        W 7313  10.317  28.880  26.793 -0.2501  0.2374  0.1414
64323W        W 7314  31.654  10.250   6.040 -0.0172  0.0546  0.4021
64324W        W 7315  34.042   9.320   1.318  0.2633  0.0660 -0.3020
64325W        W 7316  29.047   5.397   5.530 -0.2435  0.0089 -0.0899
64326W        W 7317  28.257   8.518   0.618  0.0340  0.0282  0.2353
64327W        W 7318  34.405  28.682   8.442  0.1174 -0.2844  0.0283
64328W        W 7319   1.930  21.878  27.031 -0.0848  0.1724 -0.1548
64329W        W 7320   7.864  30.622  23.144  0.1205  0.1314 -0.2386
64330W        W 7321   9.187   3.879  28.622 -0.0417  0.0297  0.1274
64331W        W 7322   6.574   1.438   2.498 -0.0296 -0.0221 -0.0001
64332W        W 7323   0.062  17.864   1.517  0.3539 -0.4163  0.0571
64333W        W 7324  13.500   8.690   4.176 -0.1733 -0.1288 -0.1311
64334W        W 7325   7.321   0.059  25.732  0.3668  0.1472  0.1124
64335W        W 7326   6.782  16.953   2.381 -0.0378 -0.0666 -0.1405
64336W        W 7327   7.075  26.035   9.710 -0.0490  0.1279 -0.1702
64337W        W 7328  15.800  29.511   5.536 -0.1098  0.1043  0.0126
64338W        W 7329   4.747  30.153   4.985  0.1728 -0.2756  0.3784
64339W        W 7330   7.850   2.400  25.934  0.0460 -0.1363  0.3722
64340W        W 7331  30.278  33.778  25.779  0.2976  0.2953  0.0452
64341W        W 7332  16.978  21.974   7.700 -0.0907 -0.0425 -0.0819
64342W        W 7333  25.407  29.036   5.571  0.0416 -0.3068  0.2718
64343W        W 7334  32.179  30.189   4.513  0.4164  0.1515  0.0300
64344W        W 7335   6.418   2.099   8.194 -0.0896  0.1240  0.3414
64345W        W 7336  27.291  29.574   4.020  0.1013 -0.1629  0.2015
64346W        W 7337  33.687   1.320   4.871 -0.2221 -0.2373  0.0035
64347W        W 7338   4.402   7.005   4.158  0.0624  0.1498 -0.0297
64348W        W 7339  13.728  32.189  26.712  0.3576  0.1754  0.0420
64349W        W 7340  33.713  29.880   6.970  0.0484  0.1562  0.0597
64350W        W 7341  33.002  11.287  10.915  0.0720  0.2509 -0.2223
64351W        W 7342   3.185  19.497  10.720  0.0601  0.3055  0.2815
64352W        W 7343  11.490  26.767   4.451 -0.0556  0.0452  0.1369
64353W        W 7344   7.613   4.064   3.077 -0.0406  0.1372 -0.1435
64354W        W 7345  26.255  21.025   0.305 -0.1071 -0.1823  0.1017
64355W        W 7346  32.902   2.074   9.666 -0.0044  0.1726 -0.1655
64356W        W 7347  31.987   5.550  29.198  0.2397 -0.5236  0.1024
64357W        W 7348   1.284  10.599  10.835  0.2506 -0.0742  0.2547
64358W        W 7349  25.076  20.321  16.422  0.2678  0.1805 -0.2499
64359W        W 7350   3.915   2.315   0.985  0.0879  0.0059  0.1278
64360W        W 7351   6.764   2.071   5.348 -0.1728 -0.0611 -0.0352
64361W        W 7352  28.704  27.512  17.580 -0.0535 -0.1214 -0.0139
64362W        W 7353  10.305  29.021  27.263 -0.0721  0.0831 -0.0163
64363W        W 7354   2.776   7.592  26.729  0.5058 -0.0686 -0.3357
64364W        W 7355   7.891  33.027   3.999 -0.1471  0.1294  0.1059
64365W        W 7356  22.011  32.060   4.194 -0.0002  0.1252 -0.2835
64366W        W 7357  25.989  34.023   1.518  0.2238 -0.2034 -0.0306
64367W        W 7358   5.322  34.506   0.935 -0.3255 -0.0033 -0.1414
64368W        W 7359  13.387   6.206   8.263  0.1994  0.1477  0.0120
64369W        W 7360   1.988   8.714   0.603 -0.1451 -0.1624 -0.0705
64370W        W 7361   5.112  19.752  22.012  0.1702 -0.5557  0.3724
64371W        W 7362   5.192  34.205   1.856  0.2108 -0.1985 -0.0847
64372W        W 7363  28.764  23.355  17.565 -0.0229 -0.0100  0.0302
64373W        W 7364  33.624  34.787   7.534  0.2101 -0.4094 -0.0944
64374W        W 7365  21.893  31.738  20.367 -0.0566  0.2556 -0.1304
64375W        W 7366  31.275  19.789  25.376 -0.0924 -0.0584  0.0629
64376W        W 7367  34.086   8.262  21.441  0.0197  0.0220  0.3988
64377W        W 7368   2.527  23.046  26.604  0.1414  0.1531 -0.1456
64378W        W 7369  27.987  25.732  27.850 -0.0087 -0.0987  0.0881
64379W        W 7370  32.441   9.084  20.477 -0.0670 -0.0708  0.3015
64380W        W 7371  13.919  12.727   2.612 -0.0839  0.1452 -0.0290
64381W        W 7372  33.916  27.969   8.909  0.0029 -0.2907  0.2141
64382W        W 7373  32.930   9.987   5.997 -0.2024  0.0641  0.3653
64383W        W 7374  33.686   4.653  21.891 -0.1090 -0.0546  0.2128
64384W        W 7375  34.258  17.996  21.534 -0.2993 -0.1403 -0.1563
64385W        W 7376   1.534   4.524   1.131  0.0712  0.0195 -0.2059
64386W        W 7377   9.116  33.369  27.824 -0.3823 -0.3654  0.0371
64387W        W 7378  33.805  27.292  22.494  0.2308 -0.2536 -0.1489
64388W        W 7379  19.948   3.985   9.249 -0.1138 -0.2332 -0.1919
64389W        W 7380   1.590  34.080  20.446 -0.0170  0.1433  0.1131
64390W        W 7381  11.681  28.357   7.104  0.1703 -0.2906  0.3040
64391W        W 7382   1.232  15.633  10.136  0.1834 -0.0547 -0.5088
64392W        W 7383  13.051  33.139  29.099  0.0332  0.1027 -0.1162
64393W        W 7384   1.862  20.334   1.002 -0.0313  0.0703  0.0881
64394W        W 7385   8.090  31.178  16.969 -0.1284  0.4041  0.4035
64395W        W 7386  21.016   9.523   0.728 -0.2718  0.1990 -0.3139
64396W        W 7387  14.374  32.943  28.021  0.3628 -0.1156 -0.0493
64397W        W 7388   6.771  31.007  20.849  0.2200  0.2844 -0.0295
64398W        W 7389  31.213  24.773  22.968  0.1364 -0.0667  0.2045
64399W        W 7390   2.442  31.016   4.093 -0.4696 -0.1239  0.2185
64400W        W 7391  18.908  29.458  22.453  0.2676 -0.0003  0.1848
64401W        W 7392  17.151   3.154  22.183  0.1974 -0.2018 -0.1421
64402W        W 7393  11.962   4.165   6.646  0.1442 -0.4126  0.0814
64403W        W 7394  26.549  28.941  20.373 -0.4756  0.0787 -0.3076
64404W        W 7395   8.507  20.109  27.139 -0.0979 -0.0268 -0.1262
64405W        W 7396  33.042  11.246  20.629 -0.0572  0.0012 -0.0354
64406W        W 7397   8.734  29.602  24.885  0.0690  0.1142  0.1161
64407W        W 7398  31.279  25.852   0.066  0.1222  0.0656 -0.1697
64408W        W 7399  34.454  21.490   5.013 -0.1053  0.1272 -0.3014
64409W        W 7400  13.860  30.603  28.738 -0.2525  0.0684  0.5864
64410W        W 7401  24.064  18.822  29.012 -0.0587  0.0855  0.0733
64411W        W 7402  20.944   3.288   6.546 -0.1551  0.1631  0.1542
64412W        W 7403  10.788  31.454  15.901  0.1120 -0.2068 -0.0903
64413W        W 7404   5.459  12.041   5.524 -0.1008 -0.1102  0.1526
64414W        W 7405  10.433   3.852   5.148  0.2490  0.2979 -0.0353
64415W        W 7406  10.535  26.889   4.808  0.0626  0.2113 -0.1477
64416W        W 7407  24.486  34.081   6.184  0.0130  0.1138  0.3725
64417W        W 7408  30.683  30.301   7.373 -0.0746  0.0992  0.1903
64418W        W 7409  33.901   3.779   5.110  0.0689  0.1829  0.1483
64419W        W 7410  27.144  27.815   4.175 -0.0848  0.0646 -0.0267
64420W        W 7411   7.426   6.030   8.874  0.1482  0.3668 -0.1995
64421W        W 7412  22.311   4.995  23.003  0.0635 -0.0359  0.2023
64422W        W 7413   4.962   5.590  29.033 -0.1035  0.3792  0.0604
64423W        W 7414  34.676   2.809  28.769  0.3219 -0.0478 -0.0712
64424W        W 7415  23.409   8.896  25.913  0.1143  0.3009  0.0320
64425W        W 7416   1.485  14.073  19.429  0.2754 -0.6247 -0.1055
64426W        W 7417  16.172  24.716  24.106  0.5402  0.2299 -0.0065
64427W        W 7418   3.301  33.331  27.907 -0.0936 -0.0064 -0.0738
64428W        W 7419  26.235  33.830   4.846 -0.3641 -0.0385  0.3403
64429W        W 7420  21.331   7.015  28.366 -0.1412 -0.1134 -0.1734
64430W        W 7421   3.861  28.333   6.514 -0.0858 -0.1053  0.1397
64431W        W 7422  17.747  31.593   7.874  0.0876 -0.0120  0.1932
64432W        W 7423  30.366  20.053   8.551  0.0101 -0.1950  0.1441
64433W        W 7424  15.820   7.087   9.405  0.0081 -0.1880 -0.1565
64434W        W 7425  31.623  15.566   0.090  0.0462 -0.0871 -0.4483
64435W        W 7426  32.892   5.333  27.673 -0.1330  0.2090 -0.1999
64436W        W 7427   9.080  28.816  22.360  0.1971  0.0546  0.0143
64437W        W 7428  26.112  22.287  19.211  0.2284  0.3525 -0.1863
64438W        W 7429   1.521  32.493   8.267 -0.1263  0.0838  0.1061
64439W        W 7430  14.126  23.871  22.175 -0.0511 -0.1023 -0.2239
64440W        W 7431  13.235  33.282  14.966 -0.0245  0.0021  0.0568
64441W        W 7432   2.315  16.455   4.716 -0.1823  0.1321 -0.3839
64442W        W 7433   8.929  15.043   8.713 -0.0435  0.2053  0.1727
64443W        W 7434   7.645   2.925  21.896  0.0916  0.0204 -0.0435
64444W        W 7435   9.140  30.820  28.841  0.3722  0.0173  0.0702
64445W        W 7436   4.430  11.806  24.608 -0.4480  0.1402  0.2126
64446W        W 7437  12.071  20.497   7.413  0.3799 -0.2056 -0.1862
64447W        W 7438  28.504  28.475   3.508  0.2593 -0.0121  0.0969
64448W        W 7439   7.626  17.230  23.431  0.0282 -0.0854 -0.0644
64449W        W 7440   7.562   5.457  18.165  0.0243 -0.0759  0.1553
64450W        W 7441   3.636   0.527   4.453 -0.1734  0.1604 -0.0841
64451W        W 7442  12.885  24.599  26.847  0.1676  0.0797 -0.1258
64452W        W 7443   8.345  18.917  15.138 -0.0331  0.2886  0.0957
64453W        W 7444  20.240  20.350  25.580  0.0175  0.0471 -0.0459
64454W        W 7445   0.506  21.165   7.373 -0.1182 -0.0202 -0.1060
64455W        W 7446   8.364   4.258   8.166 -0.1545 -0.2341 -0.2700
64456W        W 7447   2.643  22.920   8.279  0.1042  0.0414  0.2267
64457W        W 7448  29.557   7.799   7.350  0.0066 -0.1129 -0.1067
64458W        W 7449  29.382   4.206  16.529  0.1229 -0.1600  0.1111
64459W        W 7450  29.710  25.582   0.732  0.1610 -0.2896 -0.1740
64460W        W 7451   3.336   3.535   6.619  0.1845  0.0369  0.0676
64461W        W 7452  20.951  14.105   4.033 -0.0572 -0.0796 -0.1042
64462W        W 7453   3.344  30.055   1.877 -0.0716  0.0090 -0.1059
64463W        W 7454  17.600  32.558   4.691  0.1647 -0.0867 -0.2017
64464W        W 7455  31.990   5.467  27.796 -0.1845 -0.0676  0.3593
64465W        W 7456  14.068   0.737  20.480  0.0369  0.0081  0.2845
64466W        W 7457  32.697  24.052  27.884 -0.2168 -0.1635  0.1518
64467W        W 7458  26.034  11.792  28.221 -0.2337 -0.3248 -0.2746
64468W        W 7459  14.600  21.422  24.486 -0.1720 -0.1415  0.1342
64469W        W 7460   8.197  32.951  10.739  0.0416 -0.1540  0.0318
64470W        W 7461  31.372   7.148  25.512 -0.1180  0.3956 -0.1868
64471W        W 7462   5.965  31.536   9.456 -0.0307 -0.0618 -0.2196
64472W        W 7463   6.699   0.105   2.325  0.0886  0.1397  0.4687
64473W        W 7464   4.876  31.199   9.362  0.1020 -0.1063  0.1631
64474W        W 7465  33.836  24.307   9.213 -0.0285 -0.3073  0.0959
64475W        W 7466   2.170  17.334   5.036  0.0340  0.4472  0.0763
64476W        W 7467  26.567  34.011  26.919  0.0766 -0.2592  0.3923
64477W        W 7468   9.917  13.782  21.411  0.1831 -0.1485 -0.0722
64478W        W 7469   1.980  29.542  18.599  0.2666 -0.0533 -0.0211
64479W        W 7470   7.199  27.570   3.211 -0.0308  0.0914 -0.1339
64480W        W 7471  32.326  18.909  22.403  0.1330  0.1052 -0.0105
64481W        W 7472  32.190  23.508  27.337 -0.0738  0.1756  0.1182
64482W        W 7473  33.486  16.602   7.158  0.4509 -0.0196  0.0130
64483W        W 7474  10.094  27.080   3.992 -0.2479  0.1400  0.0790
64484W        W 7475  33.891  34.271   6.167  0.3051  0.1875 -0.3385
64485W        W 7476   7.171  18.614  17.005  0.0971 -0.3030  0.1955
64486W        W 7477   3.119   0.215   5.637  0.0230  0.2335 -0.1479
64487W        W 7478  31.027  23.068   8.585 -0.1457  0.0088  0.3794
64488W        W 7479  34.261   1.239  29.026  0.0761  0.2196 -0.4367
64489W        W 7480  22.636  28.588  23.090  0.2794  0.1626  0.2920
64490W        W 7481  28.145  29.436  28.199 -0.0939  0.1906 -0.3838
64491W        W 7482  30.161  16.272   9.039 -0.1450 -0.0297 -0.0757
64492W        W 7483  27.876  32.509   5.318  0.0385 -0.0330  0.0732
64493W        W 7484  12.839   1.965   4.101 -0.0882 -0.0421  0.1462
64494W        W 7485   4.302  32.611  25.477  0.1218  0.1066  0.0052
64495W        W 7486   4.967  26.367  24.350  0.1945  0.2445  0.1585
64496W        W 7487   1.541  27.718  16.935 -0.1396 -0.3700 -0.1906
64497W        W 7488  11.122  33.314   1.922  0.2570 -0.2435 -0.0190
64498W        W 7489   1.087   6.418  10.767 -0.0569  0.0976  0.2990
64499W        W 7490  10.429  30.245   9.791 -0.0852 -0.3369 -0.0986
64500W        W 7491   6.586   0.059  10.358 -0.1205 -0.2022 -0.0934
64501W        W 7492  18.778  34.283   6.356  0.0515 -0.3719 -0.0256
64502W        W 7493   7.283  32.223   7.119 -0.1432 -0.3467 -0.0646
64503W        W 7494  27.853  13.723  26.556 -0.1752 -0.0507 -0.0705
64504W        W 7495   5.054  27.543   8.488 -0.4923 -0.2026  0.2004
64505W        W 7496  34.334   3.204   0.645 -0.0676  0.0585 -0.0425
64506W        W 7497   7.326  25.631   2.998  0.2216  0.1329  0.0785
64507W        W 7498   5.442   6.888  10.292  0.0120 -0.1692 -0.0567
64508W        W 7499  27.195  34.521  21.923 -0.1092  0.1012  0.1608
64509W        W 7500   3.098   7.793   6.371 -0.0419 -0.4399  0.3278
64510W        W 7501  11.772   4.913  10.379 -0.0505 -0.0615  0.1016
64511W        W 7502   4.188  29.983  26.875 -0.1647 -0.2094 -0.1450
64512W        W 7503  12.380   1.366  28.957  0.0489  0.3752 -0.0125
64513W        W 7504   6.027   6.401  29.200  0.1505 -0.1166 -0.2708
64514W        W 7505   0.624  23.774   7.787 -0.0610  0.1122  0.3427
64515W        W 7506   4.397  18.311   3.579 -0.1030 -0.1499  0.2187
64516W        W 7507  27.090  31.203  22.650  0.2263 -0.0089  0.0527
64517W        W 7508  33.751   0.907   6.627 -0.0319 -0.0547  0.1065
64518W        W 7509   7.272  14.970  24.661 -0.3569 -0.1583  0.2657
64519W        W 7510  30.237  10.815   3.696  0.3872 -0.0638  0.0696
64520W        W 7511   0.020  22.698   1.139 -0.1278  0.0093 -0.0796
64521W        W 7512   0.946  20.678  24.787  0.0847  0.0323 -0.0280
64522W        W 7513   2.526  10.244   2.054  0.0061 -0.0746 -0.0778
64523W        W 7514  23.257   2.386  24.234  0.0991 -0.2054  0.4469
64524W        W 7515  34.125  13.115   3.883 -0.4327  0.5177  0.0494
64525W        W 7516  20.819  27.203   2.123  0.0500 -0.1813 -0.0084
64526W        W 7517  11.478   9.687   6.071  0.1559 -0.0030 -0.0367
64527W        W 7518   3.589   7.446  10.968  0.1641  0.1043 -0.2877
64528W        W 7519  32.534   8.808  26.743 -0.0483 -0.1239 -0.0281
64529W        W 7520  33.278   3.822   6.417  0.1686  0.0370 -0.0087
64530W        W 7521   9.166   7.533   1.233 -0.0711  0.0598 -0.1379
64531W        W 7522   9.684   9.471   2.139  0.0440 -0.2167 -0.1703
64532W        W 7523  12.025   1.753  26.916  0.1579 -0.1755  0.2476
64533W        W 7524   2.227  32.588  14.180  0.1675  0.0285 -0.0721
64534W        W 7525  19.922   8.175  27.140 -0.0367  0.2301 -0.0377
64535W        W 7526  11.452  26.233   2.037 -0.1402 -0.1216  0.1499
64536W        W 7527  30.419  29.785   2.479 -0.0107  0.2223  0.0204
64537W        W 7528  32.012  34.115   0.780  0.2702  0.0820 -0.1228
64538W        W 7529  30.395   4.560  28.267 -0.2395  0.3337  0.2470
64539W        W 7530   2.148  22.040  23.144 -0.2327  0.2961  0.2011
64540W        W 7531  16.066  28.929  28.603 -0.2356  0.2866 -0.1073
64541W        W 7532  34.303  28.636   0.349  0.0630  0.0764  0.0234
64542W        W 7533  28.946  20.602   0.274  0.1933  0.1304 -0.0458
64543W        W 7534   1.639   4.992   6.725  0.0189 -0.1510  0.2769
64544W        W 7535   3.972  20.695  29.240 -0.0248 -0.0760 -0.0315
64545W        W 7536  30.052   1.550  28.183 -0.0653 -0.1747  0.1320
64546W        W 7537  27.079  13.067   4.116 -0.4483 -0.1897  0.0094
64547W        W 7538  33.803  31.766   4.308  0.1727  0.1086 -0.1557
64548W        W 7539  11.604  27.991   3.091  0.3259  0.5256  0.1339
64549W        W 7540   2.309  15.106   1.154 -0.2471 -0.0634 -0.1460
64550W        W 7541   6.349  29.453  28.955 -0.1213 -0.2090 -0.1564
64551W        W 7542  12.647  21.266   8.960 -0.0385  0.1287 -0.0127
64552W        W 7543  33.149  25.751  20.701 -0.1253  0.1720  0.3684
64553W        W 7544  32.021  34.166   0.182  0.0494  0.0908  0.1786
64554W        W 7545  10.569   1.642  16.858  0.1264  0.1585  0.0288
64555W        W 7546   8.999  34.134   1.906 -0.0289  0.1690  0.0050
64556W        W 7547   9.529  18.329  25.290  0.0554  0.0622 -0.1543
64557W        W 7548   3.661  25.798  25.429 -0.1096 -0.3463  0.1198
64558W        W 7549  29.764  31.037  13.438  0.1269  0.2351  0.2320
64559W        W 7550  13.915  34.201  17.847  0.0567 -0.0814  0.0267
64560W        W 7551  30.842   4.757   9.265 -0.4075 -0.2055 -0.0036
64561W        W 7552   2.336  18.568  15.254 -0.2101  0.0881  0.0345
64562W        W 7553   4.761  17.827   1.595  0.2968 -0.2689 -0.1138
64563W        W 7554  13.781   9.664  22.290 -0.0699 -0.0919 -0.0322
64564W        W 7555   3.933  28.979   1.163 -0.3780  0.0813 -0.1206
64565W        W 7556   9.362  30.743   0.298  0.5413  0.2357  0.1474
64566W        W 7557   4.220  15.205  19.000  0.1411  0.1285  0.0192
64567W        W 7558  27.530  16.002  16.867 -0.1823 -0.1866  0.1205
64568W        W 7559  33.316  11.304   0.562  0.1246  0.0088 -0.3689
64569W        W 7560  20.273   0.298   1.912 -0.3667  0.1103  0.0471
64570W        W 7561   9.739  20.148  19.898 -0.0182 -0.2469 -0.2752
64571W        W 7562  20.843  19.591  17.854 -0.2020  0.2554 -0.4460
64572W        W 7563   5.482  34.756   8.757  0.0759 -0.2704 -0.1031
64573W        W 7564   1.522  11.304  27.756  0.3433 -0.0016  0.1377
64574W        W 7565  31.888   3.903   8.046  0.0434  0.3914 -0.1068
64575W        W 7566   3.492  19.674  22.847 -0.0204  0.6759  0.2414
64576W        W 7567  30.023  16.021   9.459  0.2994 -0.0125 -0.0244
64577W        W 7568  27.142   1.076  24.599  0.2231 -0.1281 -0.3053
64578W        W 7569  34.520  24.753  15.544 -0.0953  0.2706 -0.1222
64579W        W 7570  10.297  17.500  22.446 -0.1878 -0.2974  0.3872
64580W        W 7571  32.084   3.096   9.736 -0.2407 -0.2003 -0.2535
64581W        W 7572  21.834  25.412  16.186  0.2125  0.1734 -0.1372
64582W        W 7573   1.428  26.673  20.985 -0.1595  0.2395  0.0647
64583W        W 7574  27.484  28.325  27.876  0.1692 -0.1787 -0.2806
64584W        W 7575   3.419   1.686   5.156  0.0194  0.1537 -0.0981
64585W        W 7576  16.309   4.242  27.819 -0.0625 -0.1488 -0.0956
64586W        W 7577  28.745  24.306   6.900 -0.0680 -0.0987 -0.1221
64587W        W 7578  12.605  26.108  18.568 -0.5168 -0.0705 -0.1544
64588W        W 7579   7.913  20.242  19.371  0.3086 -0.0660 -0.0191
64589W        W 7580  29.591  15.070  27.633  0.0008 -0.1706 -0.0263
64590W        W 7581   6.066  12.865  10.368  0.1831  0.2135 -0.3807
64591W        W 7582  33.520  30.700  29.168 -0.2754 -0.0580  0.0315
64592W        W 7583   0.339   5.309  25.839  0.0871  0.0328  0.3218
64593W        W 7584  26.979   9.213  19.048 -0.0964 -0.1323 -0.5028
64594W        W 7585  22.473   9.136  17.323 -0.3284  0.1735  0.1736
64595W        W 7586  16.166  28.347   6.029 -0.1381 -0.1554 -0.3631
64596W        W 7587   9.959   8.448  16.072 -0.1033 -0.1052 -0.1709
64597W        W 7588   7.736  20.875  22.796  0.2342 -0.1800  0.0985
64598W        W 7589  34.777  31.936   9.235 -0.2773 -0.2434 -0.0574
64599W        W 7590  18.469   6.027  24.012  0.0886  0.1363 -0.0963
64600W        W 7591  28.579   8.118  23.453  0.3345  0.1909  0.0590
64601W        W 7592  10.332   5.656  27.293  0.1447  0.1484  0.5694
64602W        W 7593  15.241  21.536  27.653 -0.1454  0.0660 -0.1450
64603W        W 7594   4.057  23.328   8.667 -0.0879  0.2111  0.0044
64604W        W 7595  12.359  31.555   5.350  0.0621  0.1579 -0.1152
64605W        W 7596   6.502  19.746  25.048 -0.1409  0.0043  0.0252
64606W        W 7597   5.596  30.661   5.383  0.0035 -0.0178  0.2322
64607W        W 7598  23.966  27.232  17.225 -0.1751 -0.0139 -0.1035
64608W        W 7599   4.867  31.728   0.473  0.2143 -0.2899  0.1132
64609W        W 7600   9.427  30.140  26.267  0.4243  0.1300 -0.2362
64610W        W 7601  12.505  19.333  29.206 -0.1379 -0.1787  0.2025
64611W        W 7602  14.787   2.863   4.792  0.2277 -0.1220  0.2459
64612W        W 7603   5.222   5.801  27.669  0.5292  0.0362 -0.1653
64613W        W 7604  20.383  25.575  20.010 -0.0625 -0.5373 -0.2486
64614W        W 7605   7.870  18.063   1.461 -0.0489  0.1250  0.2207
64615W        W 7606   9.213  32.999   8.194  0.0364 -0.1147 -0.0696
64616W        W 7607  12.694  12.482   0.306 -0.2291 -0.3156  0.1834
64617W        W 7608  32.734  11.081  26.282  0.3798 -0.1695 -0.0549
64618W        W 7609  26.171   5.259  22.130  0.2445 -0.1035 -0.2380
64619W        W 7610  34.428  21.464   3.713  0.2055 -0.1909 -0.3453
64620W        W 7611   7.148   5.978  10.110 -0.3278  0.2404 -0.0584
64621W        W 7612   0.508  26.180   3.208  0.0854 -0.0901  0.1512
64622W        W 7613  21.436  21.045  22.976 -0.1329  0.1330  0.4244
64623W        W 7614  34.661  33.986   9.298 -0.0315  0.1629  0.1975
64624W        W 7615  32.567  25.065   9.467  0.1528  0.0485 -0.1603
64625W        W 7616   4.231  20.655   8.962 -0.0708 -0.0090  0.4150
64626W        W 7617  27.448  33.335  14.067  0.1189  0.3089 -0.1323
64627W        W 7618  28.094  32.803   7.276 -0.2671  0.0495 -0.0876
64628W        W 7619   7.165  27.562  22.833 -0.0272 -0.2116  0.0911
64629W        W 7620   5.416   6.251  23.714 -0.0258  0.0715 -0.0135
64630W        W 7621  11.672   8.112  18.733 -0.3495 -0.1958 -0.0492
64631W        W 7622  33.066  28.459   5.287 -0.2338  0.2197  0.0970
64632W        W 7623  27.251  29.841   8.928  0.0658  0.2323 -0.3098
64633W        W 7624  11.458  21.082  25.881 -0.1624 -0.0013  0.1047
64634W        W 7625   1.384  10.954   9.528  0.0689 -0.1043 -0.1531
64635W        W 7626   3.235  29.245   1.109 -0.2499  0.1381  0.0272
64636W        W 7627   4.092  24.709  26.787  0.0126 -0.0043 -0.2919
64637W        W 7628  21.360   8.904   5.027  0.1503  0.1692  0.2350
64638W        W 7629  33.824  33.948  26.902  0.1375  0.2876 -0.0206
64639W        W 7630  23.682  12.210  17.139  0.1675  0.3259  0.0308
64640W        W 7631   9.582   7.985   9.052  0.1083 -0.0202 -0.1297
64641W        W 7632   6.984  14.866  27.249 -0.2749  0.2425 -0.1454
64642W        W 7633  32.396   1.273   0.416  0.1013  0.1848  0.0194
64643W        W 7634  28.594  27.025   9.159 -0.1304 -0.0428  0.0344
64644W        W 7635   2.790  30.418   0.838  0.2938  0.1762 -0.2456
64645W        W 7636   7.703  30.606   7.156 -0.0309  0.0530  0.0676
64646W        W 7637   8.239  22.567   8.066 -0.1203  0.0152  0.1109
64647W        W 7638  32.846  24.333   7.151  0.1189 -0.0909  0.1395
64648W        W 7639  34.415  29.607  23.764 -0.0037  0.0532 -0.0601
64649W        W 7640   4.185  32.050  13.731  0.0880  0.1871  0.1015
64650W        W 7641  31.122  32.508  23.666 -0.0407  0.0467  0.0206
64651W        W 7642   6.605   0.544  10.145 -0.1230  0.2797  0.0272
64652W        W 7643  20.975   1.329  16.472  0.0364 -0.4495 -0.0903
64653W        W 7644  32.015   8.230  27.416  0.1867 -0.3147 -0.0517
64654W        W 7645   2.471   1.082   1.784 -0.2894  0.0652 -0.0097
64655W        W 7646   6.644  12.330  22.896 -0.2377  0.0788 -0.1502
64656W        W 7647  23.619  32.602   5.413 -0.0152  0.0540 -0.3227
64657W        W 7648   1.788  30.897   3.502 -0.0750 -0.1537 -0.1543
64658W        W 7649  27.330   8.044  25.285 -0.4620  0.0999 -0.0681
64659W        W 7650  19.170  21.516  23.790 -0.2240 -0.2712 -0.2766
64660W        W 7651  25.600  20.162  26.761  0.2343  0.1758  0.0151
64661W        W 7652  33.919  18.549   2.744 -0.0731  0.2829  0.0668
64662W        W 7653   6.143  26.166   1.595  0.1480 -0.0383  0.0233
64663W        W 7654  32.994   5.483   8.816 -0.2141  0.2128  0.0149
64664W        W 7655  31.305  19.326  27.368  0.0582  0.1610  0.2075
64665W        W 7656   7.004  24.454   0.589 -0.4115 -0.1330 -0.1720
64666W        W 7657  32.676  10.870   1.497  0.0609  0.0009  0.1034
64667W        W 7658  31.521   6.706  23.107  0.0530 -0.0680 -0.0792
64668W        W 7659   8.068  33.741   2.420 -0.0379  0.0280 -0.1759
64669W        W 7660   3.307  22.818  24.583 -0.2479 -0.0644  0.0714
64670W        W 7661  33.397   0.877  23.564  0.1412 -0.0881  0.0396
64671W        W 7662  19.876   5.269  24.559  0.3117  0.1494  0.1851
64672W        W 7663   5.050  29.921   6.513 -0.0558  0.0874 -0.0564
64673W        W 7664  33.671  23.659   9.161  0.1725 -0.0736 -0.1826
64674W        W 7665  33.668  20.753   9.297  0.2300  0.0049  0.0379
64675W        W 7666  12.148  29.330   9.017  0.5526 -0.1558  0.0406
64676W        W 7667  13.146  18.515  20.316 -0.0526 -0.0948  0.0818
64677W        W 7668  27.748  13.962   2.734 -0.2658  0.0618 -0.0640
64678W        W 7669   9.153   1.412  27.913  0.2118  0.0458  0.0444
64679W        W 7670  17.384  29.990   5.748 -0.2399 -0.1534  0.0797
64680W        W 7671  20.913  21.268  21.695 -0.1449 -0.0116 -0.1843
64681W        W 7672   3.899   8.289   9.431 -0.3024  0.0834 -0.2622
64682W        W 7673  14.654  27.086  27.492  0.0072  0.5583 -0.1520
64683W        W 7674  34.054  32.487   6.011 -0.0473 -0.3562  0.0375
64684W        W 7675   0.953   3.330  28.531  0.1640 -0.2259  0.1453
64685W        W 7676   5.048   4.927  29.065  0.1309 -0.0007 -0.1294
64686W        W 7677   7.005   7.077  15.189 -0.0888  0.1644 -0.1786
64687W        W 7678  28.610  23.640   9.452 -0.1262  0.0113 -0.3899
64688W        W 7679  26.656   7.193   6.424 -0.3142  0.0241  0.1476
64689W        W 7680   6.373  30.599  24.451 -0.0148 -0.1742  0.1320
64690W        W 7681  19.221   1.998  20.042 -0.1803  0.1420 -0.1404
64691W        W 7682  31.947  22.104   3.990 -0.1121 -0.0101  0.3237
64692W        W 7683   8.414  15.073  23.232  0.1471 -0.0550  0.0711
64693W        W 7684   9.583  31.773   6.045  0.1358  0.3175  0.1702
64694W        W 7685  23.777  26.782   3.711  0.2565  0.1414  0.1872
64695W        W 7686  13.270  15.494  28.414 -0.0685 -0.0388 -0.2166
64696W        W 7687   1.488   4.931   3.875 -0.3589  0.0981  0.2641
64697W        W 7688   2.295  29.195  25.866 -0.2421  0.2085 -0.0290
64698W        W 7689   1.207  20.191   3.197  0.1404 -0.1662 -0.1477
64699W        W 7690  24.697   6.397   7.449 -0.2226  0.1890 -0.2745
64700W        W 7691  16.140  19.414  27.584  0.3268  0.3483  0.1684
64701W        W 7692  20.742  18.947  28.051 -0.1012 -0.2866 -0.0839
64702W        W 7693  22.452  14.833  25.097  0.2711  0.0030  0.3177
64703W        W 7694  26.740   2.016  21.609 -0.2712 -0.0294  0.1416
64704W        W 7695  34.577  27.238  21.581  0.3295  0.0735  0.0539
64705W        W 7696  31.294  22.982  26.502  0.0023 -0.0633 -0.0687
64706W        W 7697   8.042  31.310   4.426 -0.1076 -0.0238  0.4031
64707W        W 7698  22.564  16.808   5.338  0.0496  0.2106  0.2777
64708W        W 7699   9.293  22.954  24.410 -0.2551  0.1055 -0.0820
64709W        W 7700  34.585   0.244  26.243 -0.3881  0.1291  0.0996
64710W        W 7701   3.621  25.676   9.160  0.1197  0.0407  0.1911
64711W        W 7702  24.202  10.676  20.767  0.0556  0.2825  0.1470
64712W        W 7703   6.874  30.636  22.619  0.1092 -0.2433 -0.4843
64713W        W 7704   8.332  32.901   2.670 -0.0902  0.1322 -0.0076
64714W        W 7705  10.214  29.737   6.759  0.3396  0.1043  0.0887
64715W        W 7706   5.694  26.320  22.356 -0.1350 -0.2466 -0.0035
64716W        W 7707  29.772  10.583  18.059 -0.3690  0.0936  0.1698
64717W        W 7708  16.634  29.904  25.218 -0.0158  0.1754 -0.0677
64718W        W 7709   5.356  34.538   5.757  0.0698 -0.1029  0.0378
64719W        W 7710  27.863  14.692   8.278 -0.0809  0.0860  0.3712
64720W        W 7711  27.135   7.944   7.473  0.1502  0.1077  0.2300
64721W        W 7712  12.314   6.995   3.191  0.0609  0.1340  0.0514
64722W        W 7713  17.628  26.678  23.872 -0.1185 -0.0040 -0.0458
64723W        W 7714  12.384  28.251  27.908  0.0586 -0.1135 -0.0034
64724W        W 7715   9.982   9.571  25.749  0.0537 -0.3808  0.0640
64725W        W 7716  31.571  10.252  18.844 -0.1788  0.0558 -0.0829
64726W        W 7717  32.371  34.731   2.542  0.1293 -0.1872  0.2316
64727W        W 7718  13.265   1.573   4.519  0.0801 -0.2481 -0.1280
64728W        W 7719  31.150   3.508  28.951 -0.2550 -0.1410  0.0739
64729W        W 7720  30.444  14.340  22.513  0.1216  0.0090 -0.1156
64730W        W 7721  27.944  32.050  24.224 -0.1071  0.0257 -0.3603
64731W        W 7722  27.799   0.535  16.458  0.1435 -0.3534  0.1404
64732W        W 7723   7.727   1.613  24.985 -0.0037  0.0501 -0.0400
64733W        W 7724  30.271  20.457   5.187  0.1382 -0.2015 -0.1953
64734W        W 7725   8.073   7.492   4.711  0.1853  0.2249 -0.0182
64735W        W 7726  12.008   3.849   7.164  0.0851  0.2457  0.1062
64736W        W 7727   5.146  29.519  26.155  0.1677  0.0455 -0.0207
64737W        W 7728   8.556   7.946   0.451  0.2488 -0.1992 -0.0745
64738W        W 7729   0.778  23.850   4.590  0.4637 -0.0033  0.2017
64739W        W 7730  30.876  19.125  21.378  0.1428  0.3116 -0.3400
64740W        W 7731   4.500   6.707   5.937 -0.3772 -0.2962  0.1601
64741W        W 7732   2.682   3.271  28.379  0.0479 -0.0035 -0.0197
64742W        W 7733  30.917  16.659   3.006 -0.1681 -0.1435  0.2329
64743W        W 7734  24.984  32.227  14.009 -0.2886  0.0769  0.2153
64744W        W 7735   2.451  24.120   9.901  0.1226  0.1512  0.0121
64745W        W 7736   2.638   8.956  28.722  0.2260  0.0415  0.0478
64746W        W 7737  11.018   7.731  26.725  0.2003 -0.0207  0.2314
64747W        W 7738  12.263   3.555  26.606  0.0127 -0.1271 -0.1097
64748W        W 7739   5.707   2.196  20.338  0.1989  0.2473 -0.2334
64749W        W 7740  18.161  29.447   0.513  0.0643 -0.3138  0.1132
64750W        W 7741  32.134  28.503  19.815  0.3409  0.0313 -0.1058
64751W        W 7742  13.719  12.769   7.620  0.0559 -0.0964 -0.0835
64752W        W 7743   1.373  34.755   5.101  0.1568  0.0453  0.0573
64753W        W 7744  31.598   2.922  27.685  0.0097 -0.0590  0.2043
64754W        W 7745  34.598   9.574  26.829 -0.0323 -0.2374  0.1365
64755W        W 7746  16.754   3.910   0.879  0.1333 -0.1033  0.0517
64756W        W 7747   4.703  30.076  21.951 -0.0322  0.1661  0.0184
64757W        W 7748  26.119  20.469  22.748 -0.1109 -0.4751  0.1577
64758W        W 7749  33.108  15.876  28.094 -0.0696  0.0107  0.0525
64759W        W 7750  12.852  13.219  17.252 -0.2018 -0.0299 -0.0352
64760W        W 7751   4.370  24.279   9.111  0.0156 -0.0726 -0.0116
64761W        W 7752  14.072   0.460   5.634 -0.2394  0.1669  0.0878
64762W        W 7753   2.171  30.204  26.459  0.2383  0.1049  0.0201
64763W        W 7754  34.669  27.340  27.578 -0.1566 -0.4765 -0.2110
64764W        W 7755   0.680  31.077   7.944 -0.2658  0.0496  0.3663
64765W        W 7756  30.108  30.435  25.008 -0.0569 -0.3862  0.4700
64766W        W 7757  25.804  30.793  13.236 -0.0992  0.0798  0.0910
64767W        W 7758   6.013   1.477   0.772  0.3458 -0.2299 -0.3201
64768W        W 7759  29.686  23.100  22.441  0.0198 -0.2504 -0.1151
64769W        W 7760   1.588  21.489   4.662 -0.4172 -0.0171 -0.0017
64770W        W 7761  31.463  21.340   7.852 -0.2907  0.0139  0.1572
64771W        W 7762  10.104  24.609   6.909  0.3579 -0.1908  0.0217
64772W        W 7763  26.847   8.461   8.585 -0.1349  0.0331  0.2835
64773W        W 7764   6.590  31.055  28.754  0.2072  0.1032  0.1045
64774W        W 7765   2.405   8.943   0.339 -0.1052 -0.1069  0.3164
64775W        W 7766  11.170  25.971   6.273  0.0453  0.0862  0.3080
64776W        W 7767  33.856  13.644  24.150  0.0582  0.0799  0.2289
64777W        W 7768   4.425  16.703  28.031 -0.0242 -0.0874  0.5086
64778W        W 7769   8.343  25.928  26.330 -0.0543  0.0939  0.0078
64779W        W 7770  27.103   0.525   0.665  0.0772  0.0669 -0.0452
64780W        W 7771   4.513  25.244   5.768 -0.1946  0.1435  0.2038
64781W        W 7772   4.006  10.056   0.616  0.2930 -0.1250 -0.0184
64782W        W 7773   9.909  24.151  18.932  0.1955  0.0173  0.0665
64783W        W 7774   6.566   7.181   7.323 -0.0232  0.3293 -0.2168
64784W        W 7775  32.695  34.304  23.788  0.2657 -0.2714 -0.1421
64785W        W 7776   7.361  23.700   6.714  0.2002 -0.0667  0.2708
64786W        W 7777   7.311  31.419   3.869 -0.1808  0.0030 -0.0072
64787W        W 7778   6.295  26.874  19.046 -0.1603  0.1298 -0.1595
64788W        W 7779  19.235  21.793   5.418 -0.2111 -0.2285  0.0170
64789W        W 7780   3.263   4.630   1.019 -0.0344  0.0678  0.5099
64790W        W 7781   8.282  34.247   1.518  0.0474 -0.0172 -0.0425
64791W        W 7782  34.775   7.550  27.282  0.2966  0.1807  0.3402
64792W        W 7783   6.370  26.145  26.313  0.1768  0.0081 -0.1205
64793W        W 7784   6.529  27.742  26.151 -0.1970  0.2621  0.2589
64794W        W 7785  26.527  14.911  10.928  0.1018 -0.4209  0.1230
64795W        W 7786   7.756   8.283  10.558  0.1445 -0.1866  0.0101
64796W        W 7787  12.194   7.316   7.213  0.1096  0.1244  0.0948
64797W        W 7788  32.131   1.778   3.293  0.2266  0.0874  0.2388
64798W        W 7789  10.564  25.983   6.288  0.2115  0.1045 -0.1577
64799W        W 7790  32.596  23.806   5.811 -0.1698 -0.2037 -0.2310
64800W        W 7791   1.971   8.644   3.498  0.2547 -0.0474  0.2317
64801W        W 7792   7.697  14.098   5.573 -0.2444 -0.0335 -0.2489
64802W        W 7793  18.238  21.538   3.774  0.3340 -0.0313  0.1700
64803W        W 7794  30.295  33.507   3.581 -0.1214 -0.0076 -0.0320
64804W        W 7795   9.129  13.492  23.299 -0.1048 -0.0712  0.1379
64805W        W 7796   5.459   5.390   3.200 -0.1236 -0.0339  0.3319
64806W        W 7797   9.048   2.217   8.194  0.2073 -0.1497 -0.2272
64807W        W 7798  20.970   1.903   5.436 -0.0760  0.1290  0.1870
64808W        W 7799  22.819  30.342  26.723 -0.1876 -0.0366 -0.0006
64809W        W 7800   7.945  11.157  21.196 -0.2797  0.0767  0.0470
64810W        W 7801   0.163  32.247   2.571  0.2953 -0.1972  0.0095
64811W        W 7802  33.060  18.061   7.194 -0.1657  0.4160  0.2088
64812W        W 7803  21.284  18.030   6.036 -0.1643 -0.0353  0.0525
64813W        W 7804   9.842  17.905  15.310  0.1536 -0.1207 -0.1121
64814W        W 7805   5.590   3.796  24.605 -0.1274  0.3180  0.5107
64815W        W 7806   1.065   2.352   9.650 -0.0630 -0.3234  0.0482
64816W        W 7807  31.181   3.793  22.144 -0.3115 -0.2247  0.5362
64817W        W 7808  29.231  14.633  19.148 -0.2078  0.4308 -0.0718
64818W        W 7809  28.480  27.010   7.911 -0.0683  0.1336 -0.1556
64819W        W 7810   3.048   5.438   6.889 -0.3227  0.1996 -0.2033
64820W        W 7811  15.690   0.756   2.265 -0.1768 -0.0319  0.3445
64821W        W 7812  31.789  32.078   7.393 -0.0255  0.1112 -0.1837
64822W        W 7813  29.805  26.653   1.782 -0.0725 -0.1727 -0.0869
64823W        W 7814  34.028  30.839   8.094  0.0517  0.2854  0.2506
64824W        W 7815   3.277  11.571  26.632 -0.0777 -0.0291  0.1789
64825W        W 7816   4.305   5.539   3.600 -0.2539  0.2527 -0.0853
64826W        W 7817   5.741   6.154  25.888 -0.3293  0.3966 -0.1647
64827W        W 7818  23.200   9.826   0.146 -0.1543 -0.4524 -0.0298
64828W        W 7819   8.576  22.491  15.889 -0.2350  0.0530 -0.1725
64829W        W 7820   5.817   7.747  22.862  0.2189  0.1546 -0.1496
64830W        W 7821  11.523   8.213   0.278  0.3003 -0.3836 -0.1087
64831W        W 7822   0.772  14.737  11.752 -0.0612  0.1687  0.0329
64832W        W 7823  14.687  15.185  27.174  0.1514  0.0847 -0.1741
64833W        W 7824  32.082  30.355   2.638  0.1283 -0.1477 -0.1547
64834W        W 7825   2.443  24.589   5.890 -0.1605  0.1696 -0.0148
64835W        W 7826   1.711  28.607   5.227  0.0630  0.1664 -0.0804
64836W        W 7827  31.110   6.093   3.745  0.0610 -0.0106  0.0477
64837W        W 7828   0.257  34.300   5.134 -0.1827  0.0755  0.2642
64838W        W 7829  14.379   8.912   1.857  0.0754  0.2029  0.0322
64839W        W 7830   5.207  21.530   0.812  0.3158 -0.0698  0.0608
64840W        W 7831  11.549  32.882   8.601  0.3921 -0.1349  0.4570
64841W        W 7832  33.441  25.489  18.188  0.0688 -0.0913 -0.1266
64842W        W 7833  34.394  10.585   5.031 -0.0090 -0.1148  0.3791
64843W        W 7834  32.382  33.478  24.502 -0.0502  0.0102 -0.2995
64844W        W 7835  12.102  15.895   4.245 -0.1809  0.0046  0.0159
64845W        W 7836  34.571   0.304   5.414  0.2541  0.1057  0.1597
64846W        W 7837  11.677  25.943   3.999 -0.1833  0.0483  0.0060
64847W        W 7838  32.260  28.614   5.921  0.1392 -0.1263 -0.1919
64848W        W 7839  33.230  16.723  23.509 -0.2499  0.2054  0.2504
64849W        W 7840  25.900   3.205  25.717  0.1936 -0.0698 -0.0764
64850W        W 7841   4.692  27.527   2.771 -0.1338 -0.0112 -0.1877
64851W        W 7842   5.329  18.847   0.962 -0.5059  0.3844  0.2413
64852W        W 7843   9.332  22.896  28.606  0.1479  0.0996  0.2873
64853W        W 7844  30.514  34.538   6.702  0.3695 -0.5158  0.0335
64854W        W 7845  16.935   9.169  10.358  0.3710 -0.0927 -0.1144
64855W        W 7846  14.809  23.832  22.646  0.0820  0.0486 -0.0826
64856W        W 7847  32.701  20.001   3.050 -0.0352  0.1566 -0.1085
64857W        W 7848  31.398  31.702  14.211  0.1740 -0.3790 -0.1735
64858W        W 7849  31.602  29.948   9.079 -0.1659  0.2349 -0.2566
64859W        W 7850  22.110  23.365   4.275  0.2216 -0.0277  0.0474
64860W        W 7851  30.787  28.469   1.981 -0.1541  0.1432 -0.0250
64861W        W 7852   7.974  24.132   0.457 -0.0363  0.0666  0.0819
64862W        W 7853  25.674   5.237   8.333  0.3651 -0.2868  0.1233
64863W        W 7854  19.530  26.387  25.406 -0.0597  0.0215  0.0695
64864W        W 7855   9.849   3.131   9.504 -0.1299 -0.0767 -0.1659
64865W        W 7856  15.352  26.181  22.448  0.0066 -0.0637 -0.0690
64866W        W 7857  30.364  25.822   0.134 -0.1204  0.0966  0.3856
64867W        W 7858  12.116  27.122   3.848 -0.1599 -0.0039 -0.2608
64868W        W 7859  32.818   0.067   5.014 -0.0283 -0.0838 -0.0290
64869W        W 7860   3.352  25.801  16.585 -0.2107  0.0550  0.0173
64870W        W 7861   5.895   3.349   8.317 -0.0063  0.0667  0.1024
64871W        W 7862  21.453  30.617   3.734  0.0451 -0.0228 -0.1477
64872W        W 7863  23.626   2.129  20.985 -0.1967  0.0071  0.2163
64873W        W 7864   4.273  28.502   0.963  0.0887 -0.1580  0.0945
64874W        W 7865  17.026  31.674   2.982 -0.0777 -0.0030  0.2587
64875W        W 7866  17.079   4.888   7.503 -0.2697  0.1394 -0.0987
64876W        W 7867  28.066  11.404   1.188  0.0247  0.0625 -0.4087
64877W        W 7868   5.290  21.559   6.306  0.0379 -0.2583 -0.0157
64878W        W 7869  33.457  17.931   6.922 -0.1068  0.1208  0.0446
64879W        W 7870   4.508   2.602  28.124 -0.2195 -0.0803  0.0368
64880W        W 7871  15.680  12.296   3.714 -0.3537  0.1131  0.2146
64881W        W 7872  26.044  30.279   8.398  0.0030  0.0142  0.1298
64882W        W 7873   7.191   5.932   9.576 -0.1747 -0.1431 -0.3883
64883W        W 7874  17.733  26.355  23.454 -0.0265 -0.0293 -0.0334
64884W        W 7875  13.154   5.338   4.868  0.0439  0.3156  0.2965
64885W        W 7876  32.787  21.517   0.314  0.0416  0.3263 -0.1672
64886W        W 7877   0.010  28.616   7.457  0.1841  0.3368 -0.1021
64887W        W 7878  27.473   4.193   1.915 -0.0833  0.1754 -0.1842
64888W        W 7879  26.877   9.111  18.039 -0.1431  0.0214 -0.1699
64889W        W 7880   1.125  10.426   6.659 -0.2886 -0.4144  0.2688
64890W        W 7881   4.157  22.579   4.327  0.0348  0.0652  0.0953
64891W        W 7882   4.352  19.945   9.292 -0.0264 -0.0078 -0.0849
64892W        W 7883  16.090  22.993   8.203  0.1601  0.0863  0.1094
64893W        W 7884   9.331  31.817   8.319 -0.1855 -0.3113 -0.2175
64894W        W 7885   1.397   7.214  10.101 -0.1274 -0.1444 -0.0344
64895W        W 7886  14.431  32.735  26.398  0.3661 -0.4892  0.0059
64896W        W 7887   0.621  32.252   5.625 -0.0025  0.1649  0.0962
64897W        W 7888   4.590  31.197   1.206  0.2801  0.0643  0.0501
64898W        W 7889  28.610  18.464   7.104 -0.6339  0.0734 -0.1939
64899W        W 7890  10.178  29.738   9.134 -0.4978 -0.0159  0.2134
64900W        W 7891  12.335  24.336   9.013  0.0144  0.0531  0.0616
64901W        W 7892   2.712  23.432  22.459  0.3212 -0.3364 -0.0555
64902W        W 7893   2.430  10.227  29.020  0.0900 -0.0221 -0.0552
64903W        W 7894  12.003  20.675  26.295 -0.0068  0.0594 -0.2464
64904W        W 7895   4.368   9.254  23.038 -0.1423 -0.1791  0.4401
64905W        W 7896  32.314   7.880   2.501  0.1169  0.0920 -0.3509
64906W        W 7897  32.886   0.634   9.724  0.0384  0.2315  0.1986
64907W        W 7898  31.248  32.600  26.728 -0.0610 -0.0339  0.1705
64908W        W 7899  31.978  12.604  23.819 -0.0029  0.1083  0.1658
64909W        W 7900  33.110   5.291   2.908 -0.0076 -0.0593 -0.0135
64910W        W 7901  24.321   8.483   0.119 -0.2322 -0.1653  0.0135
64911W        W 7902  23.456  15.019  25.690  0.2088 -0.1668  0.2453
64912W        W 7903  28.803   3.417  21.077 -0.1555  0.1288  0.1488
64913W        W 7904  31.296  30.498   1.026  0.0957 -0.1835 -0.1308
64914W        W 7905  18.628  34.644   1.050 -0.1231 -0.0068  0.0600
64915W        W 7906   6.959  26.231   5.748  0.1296  0.1288 -0.0384
64916W        W 7907  14.123  25.155   0.303  0.4432  0.1462 -0.1305
64917W        W 7908  31.573  29.451   2.562 -0.3724 -0.1448  0.0370
64918W        W 7909   9.176   1.870  24.182 -0.0015  0.0809  0.1962
64919W        W 7910  23.500  31.576   5.207 -0.2192 -0.0885  0.0464
64920W        W 7911   1.018   4.925  25.796 -0.3486 -0.0826  0.0441
64921W        W 7912   9.303   1.926  27.437 -0.1367  0.2080 -0.2812
64922W        W 7913   0.152  17.931   5.583  0.0333  0.0101  0.0473
64923W        W 7914  33.142  26.197   2.840 -0.1883 -0.1301  0.1462
64924W        W 7915  12.906  32.401   7.094 -0.2003  0.2216 -0.0904
64925W        W 7916  27.458  11.365   3.700  0.0657  0.1643  0.2165
64926W        W 7917  33.838  31.624   0.287 -0.2482  0.1413 -0.2058
64927W        W 7918  12.132  27.187   5.867 -0.1044 -0.0799  0.0367
64928W        W 7919   6.456  17.722   8.143 -0.3721  0.1682  0.5288
64929W        W 7920  34.747  31.392   0.694 -0.0576  0.1991 -0.2470
64930W        W 7921  32.804  31.953   9.273 -0.0147  0.1401  0.0511
64931W        W 7922  14.332  18.140   6.554  0.0426 -0.0161 -0.1052
64932W        W 7923  27.719  12.934   7.340 -0.0670 -0.1139  0.0112
64933W        W 7924  34.093  19.411  28.995  0.1063  0.0240  0.1276
64934W        W 7925  29.814   0.912  26.039  0.1350 -0.1385 -0.2763
64935W        W 7926   6.723  26.823   9.373 -0.3801  0.1651  0.0168
64936W        W 7927  30.165   4.059   4.122 -0.1695 -0.1651  0.0029
64937W        W 7928   0.562  26.096   7.249  0.2411  0.0271  0.0582
64938W        W 7929  19.820   0.545   9.858 -0.1211  0.0131  0.4216
64939W        W 7930   7.445  17.733   3.346 -0.0753 -0.0551  0.0790
64940W        W 7931   9.107  33.673  15.353  0.1556  0.2565 -0.0362
64941W        W 7932   5.160   1.660  26.371  0.1165 -0.1985 -0.2340
64942W        W 7933  25.849  30.404   7.957 -0.0805  0.1531 -0.4141
64943W        W 7934  16.157  13.245  27.157  0.2937 -0.1545  0.1050
64944W        W 7935   0.832  22.713   3.735 -0.2254 -0.2171 -0.2961
64945W        W 7936  11.215  20.819  16.245 -0.1744 -0.1802  0.3071
64946W        W 7937   3.189  12.912  26.416 -0.3432 -0.2733 -0.0773
64947W        W 7938   1.222  29.500  29.108 -0.1172  0.0084 -0.3319
64948W        W 7939  19.416  20.471  23.880 -0.0688 -0.2644  0.0597
64949W        W 7940  31.551   9.205   8.302  0.3165  0.1313 -0.0963
64950W        W 7941  26.091   1.366   8.182 -0.0708 -0.0201  0.0215
64951W        W 7942  18.953  30.829   5.231  0.4971 -0.0202  0.0750
64952W        W 7943   6.390  29.029  26.226  0.1660  0.1317  0.2296
64953W        W 7944   8.855  26.291  19.018  0.0425 -0.1146 -0.1132
64954W        W 7945   0.237   9.422  28.435 -0.1855  0.2696 -0.1309
64955W        W 7946  33.647  20.291  27.589 -0.1934 -0.0859  0.3473
64956W        W 7947  11.062  26.391   0.129  0.2549  0.0662 -0.0475
64957W        W 7948   0.053  32.420   0.668  0.1104  0.1751 -0.1031
64958W        W 7949  20.050  28.660   6.914  0.1285  0.0067  0.0387
64959W        W 7950  24.908  27.420  23.683 -0.3329  0.1062 -0.1769
64960W        W 7951   0.332   2.187  24.994 -0.1407  0.2841  0.2545
64961W        W 7952  33.342  27.283   7.496  0.1989  0.1750  0.1503
64962W        W 7953  20.970   9.555  14.995  0.3050  0.3682  0.1511
64963W        W 7954  26.653  10.518  26.803  0.1987  0.1950 -0.1979
64964W        W 7955  12.681   2.643   7.802 -0.0785 -0.1850 -0.0986
64965W        W 7956   7.850   3.996  15.708  0.1433 -0.0977  0.0964
64966W        W 7957  17.716  12.081  21.355  0.0655  0.2725 -0.3086
64967W        W 7958   1.599  34.413  25.803 -0.0411  0.1387  0.1389
64968W        W 7959  28.049  23.653   9.233  0.0826 -0.2633 -0.1753
64969W        W 7960   5.211  23.972  11.020 -0.1326  0.1893 -0.0172
64970W        W 7961   4.606   0.858  27.725 -0.4162 -0.2583 -0.1210
64971W        W 7962  14.592   2.879   0.955 -0.0190 -0.1010  0.4528
64972W        W 7963   5.681  16.337  29.175  0.1792 -0.0746  0.2381
64973W        W 7964   5.512   1.094  28.648  0.0213  0.2715  0.0135
64974W        W 7965   1.433  11.150   5.259 -0.0132 -0.0257 -0.0101
64975W        W 7966  24.893   5.678  22.094  0.0686  0.1499 -0.1228
64976W        W 7967  12.940  13.171  28.854 -0.2490  0.0232 -0.3881
64977W        W 7968   3.772   7.696  11.342  0.0732 -0.6194  0.3198
64978W        W 7969  17.203  29.216  23.736  0.0009 -0.2090 -0.3396
64979W        W 7970  12.422  25.145   1.293  0.0792  0.0014  0.1886
64980W        W 7971   3.687  16.254   8.973  0.0855 -0.1066  0.2299
64981W        W 7972   4.454   8.346  24.557  0.0074  0.0846 -0.3024
64982W        W 7973  31.850  25.614  21.922  0.0167  0.1216 -0.1979
64983W        W 7974  10.752  30.317   8.900  0.0780  0.0564  0.2578
64984W        W 7975   8.050  18.826  26.567  0.0557  0.1917 -0.2693
64985W        W 7976  32.566  20.120   9.057 -0.1129 -0.2109 -0.2859
64986W        W 7977  31.993  27.114  16.971  0.4190 -0.1415 -0.0757
64987W        W 7978  14.810  15.374  12.769 -0.1093  0.1703  0.2052
64988W        W 7979  29.437  21.680  28.125 -0.0322  0.0360  0.1170
64989W        W 7980   6.334   7.242  21.867 -0.4282 -0.3348  0.0551
64990W        W 7981  12.306  21.523   2.116  0.0339  0.3520 -0.0168
64991W        W 7982   1.882  12.638   9.787 -0.1889  0.0602  0.1867
64992W        W 7983   6.446  27.245  23.427  0.0620 -0.2306 -0.0275
64993W        W 7984  13.735  23.084   8.035 -0.1943 -0.1675  0.1866
64994W        W 7985  31.812   5.579   6.466  0.1376 -0.2655  0.1397
64995W        W 7986   7.056  26.738   6.712 -0.0841  0.0306  0.1325
64996W        W 7987   2.465   2.606   1.665  0.1383 -0.0951  0.0021
64997W        W 7988  31.403  28.444   2.802  0.1012  0.2463 -0.2221
64998W        W 7989  28.920   7.983   2.288 -0.2589 -0.0311  0.0469
64999W        W 7990   1.197  14.271  27.506 -0.1227  0.2687  0.4577
65000W        W 7991   0.713  28.719   9.295  0.1863  0.4276 -0.1221
65001W        W 7992   4.148  33.766   0.633 -0.3025 -0.0563  0.3697
65002W        W 7993  34.516  34.480   3.490  0.4047 -0.2139 -0.0584
65003W        W 7994  28.794  33.063   5.561  0.0658 -0.4226  0.0061
65004W        W 7995  15.675  31.407   7.374  0.0492 -0.3733  0.2071
65005W        W 7996  31.897  34.574   4.135  0.4727  0.0858 -0.2477
65006W        W 7997  13.944  19.962   8.480 -0.1633 -0.0848  0.0385
65007W        W 7998  11.568  21.717  19.788 -0.2534 -0.0373  0.0521
65008W        W 7999  25.554   2.060   7.023  0.2043 -0.0910 -0.3130
65009W        W 8000   4.756  11.358   7.472  0.4948 -0.1448  0.1264
65010W        W 8001  28.543  13.198   6.965  0.3923 -0.1481  0.2497
65011W        W 8002  12.822  16.340   3.401 -0.0999 -0.3893  0.1610
65012W        W 8003  29.288  26.511   5.256 -0.1062  0.0684 -0.4266
65013W        W 8004  13.052  11.896  28.743  0.1401  0.1119 -0.1094
65014W        W 8005   6.078  14.025   0.073 -0.0505 -0.3079 -0.0478
65015W        W 8006   2.105  19.665   0.133  0.0665  0.2635 -0.1692
65016W        W 8007  32.952   3.682  27.630 -0.1910  0.0960 -0.0486
65017W        W 8008   6.674  27.834   8.059 -0.0530  0.2590  0.0058
65018W        W 8009  32.535   4.196  25.762  0.0231 -0.5587  0.0895
65019W        W 8010  28.272  23.479   4.402 -0.0971 -0.4059  0.0066
65020W        W 8011  33.513  25.655  28.983 -0.1540 -0.1092 -0.2626
65021W        W 8012   0.308   7.968   8.111  0.0088  0.3599 -0.1699
65022W        W 8013  33.182  27.966  25.261  0.1471 -0.2132  0.1705
65023W        W 8014  10.834  32.497  10.202 -0.1250 -0.2626  0.0416
65024W        W 8015   8.875  10.130   6.692 -0.1687  0.2823  0.0813
65025W        W 8016   0.504  31.027   4.995 -0.0342 -0.0203 -0.0975
65026W        W 8017  26.762  27.386  23.210  0.0133  0.0180 -0.0109
65027W        W 8018  31.592  18.298   7.706  0.2158  0.1168  0.1497
65028W        W 8019  13.556  28.312   4.678  0.0346 -0.3873 -0.3544
65029W        W 8020  24.583  13.532   1.417 -0.3922  0.2831  0.2463
65030W        W 8021  10.845  33.849  15.645  0.0649 -0.4819 -0.3444
65031W        W 8022  19.662  34.301  28.205 -0.1286 -0.1631  0.0425
65032W        W 8023  25.437  33.204   7.858  0.4856 -0.1778 -0.1502
65033W        W 8024   3.116  15.641  29.015 -0.2132  0.1078  0.1149
65034W        W 8025   8.965  34.618   2.646  0.1384  0.2014 -0.1333
65035W        W 8026  11.075  18.668   6.345  0.0999  0.1684  0.2104
65036W        W 8027   9.821   6.597  10.004  0.2847  0.0379 -0.0379
65037W        W 8028   3.641   4.687   8.667 -0.3081 -0.2684 -0.3247
65038W        W 8029   1.024  14.683  28.775  0.0320  0.1241 -0.5105
65039W        W 8030  24.944   4.456   2.583 -0.1653 -0.0431 -0.3419
65040W        W 8031  30.700  20.280   9.486  0.1653 -0.0325  0.1019
65041W        W 8032   3.890  32.116   8.743 -0.0597  0.2549 -0.2560
65042W        W 8033  31.085   1.682   4.184  0.0844 -0.0252 -0.0273
65043W        W 8034  27.013  33.280   8.486 -0.0663  0.0411  0.0717
65044W        W 8035  14.036  14.955   6.111  0.1001  0.0831 -0.3384
65045W        W 8036   1.170  22.347   9.938 -0.0493  0.2489 -0.0250
65046W        W 8037  33.760   6.368   4.112 -0.1204 -0.1104  0.4828
65047W        W 8038   0.336  34.589   6.525 -0.0261  0.2778 -0.3366
65048W        W 8039  31.370  33.250   6.418  0.1981  0.0954 -0.2089
65049W        W 8040  26.615   4.377  27.050  0.0634 -0.1748  0.1263
65050W        W 8041  19.236  32.887   1.083 -0.0099 -0.0369 -0.0390
65051W        W 8042   2.791   8.998   9.506  0.3119  0.1307  0.0945
65052W        W 8043  10.606  16.106   4.496  0.5308  0.2755 -0.3002
65053W        W 8044   9.280   1.225  29.038  0.0315 -0.0024 -0.0729
65054W        W 8045   3.423   4.455   7.698  0.2250 -0.0652 -0.1011
65055W        W 8046  33.957  31.962   6.866  0.0112 -0.1025  0.0976
65056W        W 8047   2.131   4.462   4.819  0.2242  0.1000 -0.4226
65057W        W 8048   2.302  22.525   1.623  0.0953 -0.0291 -0.0336
65058W        W 8049   8.348   6.831  22.878 -0.3771  0.2087  0.0604
65059W        W 8050   3.847  32.965  16.654 -0.1846 -0.1487 -0.0255
65060W        W 8051  34.312   1.230  26.761  0.0753 -0.2257 -0.0444
65061W        W 8052  33.334  29.733   2.707 -0.0819  0.1116  0.0727
65062W        W 8053  31.507  29.335   4.813  0.1003  0.0583 -0.0408
65063W        W 8054   1.009  30.531   0.600  0.1958  0.0970  0.2150
65064W        W 8055  31.326  25.992   3.377 -0.0399  0.1985  0.0487
65065W        W 8056  25.755   0.517   7.227 -0.1415  0.1581  0.0469
65066W        W 8057  26.498  23.257   0.961 -0.2227  0.0405 -0.2068
65067W        W 8058  21.136  15.771  26.670 -0.2134  0.0900 -0.1535
65068W        W 8059  31.144   3.034  26.201 -0.1615  0.1809  0.0656
65069W        W 8060  27.891  27.606  26.626 -0.0274 -0.0316  0.2722
65070W        W 8061  33.170  11.000   6.861  0.1766  0.3625  0.3604
65071W        W 8062  32.083  29.669  15.298  0.1461 -0.0402  0.1423
65072W        W 8063  29.845  24.497   6.810 -0.0340 -0.1553  0.1955
65073W        W 8064  19.546   3.730   6.561  0.2981  0.0827 -0.4419
65074W        W 8065  32.913  18.397   5.563  0.1385 -0.0433  0.0827
65075W        W 8066  15.392  21.825   6.568 -0.0572 -0.1102  0.0011
65076W        W 8067   4.605  24.526   5.644  0.0416 -0.1261  0.2021
65077W        W 8068  33.113   3.045   3.855  0.2472  0.1489  0.0867
65078W        W 8069   7.584  13.646  28.745  0.1920 -0.3154 -0.0885
65079W        W 8070  12.259   6.259   5.905  0.2489 -0.0270 -0.0240
65080W        W 8071  23.084  34.117  18.868 -0.0406  0.1648  0.1190
65081W        W 8072   8.895  20.439   2.743  0.0982  0.0217 -0.2042
65082W        W 8073  32.002  29.023  14.687 -0.1027  0.0221  0.0362
65083W        W 8074  31.773  29.847   6.416 -0.2710 -0.1897 -0.0218
65084W        W 8075   5.122   2.269   7.000 -0.0183  0.0356  0.0321
65085W        W 8076   2.440  33.149   3.580  0.0154  0.1013  0.2444
65086W        W 8077  27.299   2.229   0.870  0.0200 -0.0808  0.0606
65087W        W 8078  10.965  29.172  10.734  0.1865  0.0366  0.0417
65088W        W 8079  30.432  18.537   2.744  0.2215  0.3785  0.0162
65089W        W 8080  33.166   2.334   2.961 -0.1594  0.1484 -0.2075
65090W        W 8081  34.338  34.072   8.928  0.0357  0.0379  0.1281
65091W        W 8082  10.792   6.354   6.989  0.2578 -0.1861 -0.1907
65092W        W 8083   7.644  28.023   7.129 -0.0086 -0.1171  0.3626
65093W        W 8084   8.604  29.397  21.028 -0.2770  0.0316 -0.2428
65094W        W 8085   2.981  34.061  26.901  0.1061 -0.0812 -0.2597
65095W        W 8086  34.577  29.162  23.447 -0.0983 -0.0141  0.1570
65096W        W 8087   2.088   4.806   5.908  0.0262  0.0274  0.1314
65097W        W 8088   4.949   9.155  10.203 -0.0381  0.0285  0.0447
65098W        W 8089  22.966  20.940   7.463 -0.1795 -0.0335  0.2667
65099W        W 8090  14.489  34.348   0.144 -0.1657 -0.0140 -0.1701
65100W        W 8091  30.020  15.992  23.411 -0.1825 -0.1291  0.0942
65101W        W 8092  11.180  33.690  10.409  0.2475  0.3670 -0.2976
65102W        W 8093  23.962   4.047  24.076  0.1015  0.0131  0.2675
65103W        W 8094  22.078   5.854   4.115  0.1767  0.2515  0.0928
65104W        W 8095   6.713  34.290   8.022 -0.0092 -0.1889  0.0923
65105W        W 8096  17.675  14.721   5.530  0.1746  0.1467 -0.0281
65106W        W 8097   3.517   0.760   4.889 -0.0452  0.1537 -0.1161
65107W        W 8098   6.111  18.110  28.414  0.0803  0.1598 -0.1185
65108W        W 8099   8.910   2.806  27.638 -0.2310  0.2901 -0.0394
65109W        W 8100   0.433  17.871  28.458 -0.2682  0.0600  0.0129
65110W        W 8101  31.488  30.459   5.166  0.0705  0.3769  0.2659
65111W        W 8102  16.256  28.797   3.789  0.2263 -0.0557 -0.0337
65112W        W 8103   7.685  30.330  28.764 -0.1397  0.1218 -0.0322
65113W        W 8104  13.327   4.718   7.045  0.3509 -0.0263  0.0075
65114W        W 8105  18.854  32.400   4.082 -0.1820  0.0589  0.0996
65115W        W 8106  26.745   5.567   6.136 -0.2023  0.1521  0.1406
65116W        W 8107  33.733   6.089   3.758  0.3514  0.0424  0.0489
65117W        W 8108   2.216   9.374  19.458  0.1403 -0.1385  0.1653
65118W        W 8109  12.408  26.119   8.829 -0.0771 -0.1472 -0.0152
65119W        W 8110   2.376   6.630   1.595 -0.0637 -0.2202 -0.1569
65120W        W 8111   7.246  10.973  10.026 -0.1949 -0.2520 -0.1556
65121W        W 8112   3.359  16.671  27.120  0.5861  0.1432  0.0361
65122W        W 8113   2.232   3.124   5.860  0.1230 -0.1762  0.2534
65123W        W 8114  11.772   3.419  10.130 -0.2167 -0.0246 -0.1736
65124W        W 8115  26.260   4.473  29.007 -0.0052  0.2151  0.3027
65125W        W 8116  12.653  11.945   4.061 -0.2225 -0.1179  0.0062
65126W        W 8117   0.674   7.990  24.452 -0.0811 -0.0411  0.1870
65127W        W 8118  26.638  16.022   2.356 -0.2844 -0.0682  0.0792
65128W        W 8119  27.112  28.716  18.635 -0.3691  0.1677  0.0480
65129W        W 8120  33.574  26.557  26.199  0.1937 -0.0931 -0.1426
65130W        W 8121   1.788  30.567   1.541 -0.0898  0.0179 -0.1239
65131W        W 8122  19.868  21.540   7.139  0.0189 -0.0069  0.1735
65132W        W 8123   2.368   9.472   5.433 -0.0440 -0.0811 -0.2684
65133W        W 8124  27.251   9.433   9.959  0.3160 -0.0016 -0.1903
65134W        W 8125   3.369   9.533   4.520  0.0226  0.0776  0.0258
65135W        W 8126   1.300  24.429  15.591 -0.0587  0.2665  0.1193
65136W        W 8127  14.854  30.771   4.534  0.2765  0.1148  0.1995
65137W        W 8128  24.790  34.748   4.834 -0.0629  0.0399 -0.1491
65138W        W 8129  18.987   7.015  28.110  0.4885 -0.1909  0.2135
65139W        W 8130   3.573  32.519   2.659  0.1797  0.0301  0.3738
65140W        W 8131   6.821  28.217  28.525 -0.1317  0.1489  0.0046
65141W        W 8132  23.933  16.729   0.688  0.1754  0.3698 -0.1273
65142W        W 8133   5.137  19.542  19.575  0.3767 -0.0362  0.3770
65143W        W 8134   1.235   8.143   2.368 -0.2390  0.2414 -0.1258
65144W        W 8135  30.343  31.290   1.587  0.1014 -0.0032 -0.1032
65145W        W 8136  28.339   1.823  24.139 -0.1730  0.1561  0.2104
65146W        W 8137  32.556  25.989   2.165 -0.0286 -0.0698 -0.6150
65147W        W 8138  29.739  12.353  26.162  0.1327  0.1139  0.0741
65148W        W 8139   6.623  29.750   7.645  0.2935  0.0979  0.3105
65149W        W 8140  32.154  29.536   6.560 -0.0090  0.2369 -0.0363
65150W        W 8141   2.266  23.526   9.193 -0.5211 -0.1073 -0.0578
65151W        W 8142  23.396   0.756  18.220 -0.1123 -0.0205 -0.1638
65152W        W 8143  32.636  21.441  29.078  0.3361 -0.0263  0.0943
65153W        W 8144   2.241  28.019   6.803 -0.0513  0.1924  0.2462
65154W        W 8145  26.795  32.609  27.623  0.0969  0.1141  0.1970
65155W        W 8146  31.588   0.226   3.642 -0.2731 -0.0208 -0.1507
65156W        W 8147   3.365  33.330   4.894  0.5604  0.1847  0.0145
65157W        W 8148   6.229  23.090   6.142  0.4407  0.2989 -0.1967
65158W        W 8149  32.643   9.899   6.347 -0.1434 -0.3572 -0.0252
65159W        W 8150  33.951   0.483   3.153  0.1391  0.0030  0.0503
65160W        W 8151  21.854   7.567   9.884 -0.0780 -0.1575 -0.1305
65161W        W 8152   8.945   7.587   0.309 -0.3300 -0.4699  0.2471
65162W        W 8153  27.482  18.786   5.222  0.0066 -0.3255  0.3448
65163W        W 8154  32.959  11.244   1.015 -0.0210 -0.2620 -0.0982
65164W        W 8155   8.657  19.450  24.282  0.1882 -0.3809  0.0466
65165W        W 8156  31.695  30.311  25.840  0.1843 -0.4767  0.1660
65166W        W 8157  11.548   5.815  28.187 -0.0043 -0.1059  0.3536
65167W        W 8158  33.513  20.825   8.856 -0.0961 -0.0034  0.1122
65168W        W 8159   4.542  20.724  20.145  0.1213  0.1729 -0.0592
65169W        W 8160   8.950  13.217  10.963  0.3450  0.1079  0.1754
65170W        W 8161  29.114  25.808   5.352 -0.3190  0.1584 -0.0544
65171W        W 8162  23.060   9.808   0.737  0.1106 -0.1128 -0.0994
65172W        W 8163   6.869  25.551   2.657 -0.2278 -0.0576 -0.0033
65173W        W 8164   8.976  21.251  21.581  0.1073  0.4231 -0.1105
65174W        W 8165   3.386  18.815   7.331  0.1105 -0.0630 -0.2461
65175W        W 8166   8.007  32.171   8.255 -0.1298 -0.1579  0.3107
65176W        W 8167  31.295  26.887   9.506  0.1700  0.4235 -0.3478
65177W        W 8168   6.151  30.792   7.752  0.1282 -0.3216 -0.0495
65178W        W 8169   1.791  18.056   1.290 -0.1512 -0.1883 -0.1145
65179W        W 8170  15.289  11.080   6.377  0.1736 -0.1474 -0.0248
65180W        W 8171   5.192  22.054  28.016 -0.0244  0.2079 -0.1471
65181W        W 8172  22.928   5.594  27.593  0.0768 -0.1677  0.0417
65182W        W 8173   6.907  28.992  25.405  0.0200  0.1381  0.0732
65183W        W 8174   4.244  13.238   4.614 -0.1350  0.1641 -0.1204
65184W        W 8175  27.105   4.912   0.120 -0.3757 -0.2104 -0.0406
65185W        W 8176  34.020  29.975   1.910 -0.0794  0.1008 -0.2561
65186W        W 8177   3.680  31.481   4.984 -0.2850 -0.1680 -0.2092
65187W        W 8178  31.062  27.975   5.969  0.1321 -0.0249 -0.0161
65188W        W 8179  30.476   2.276   7.265 -0.2501  0.0971  0.1588
65189W        W 8180  18.851   5.451   8.773  0.0870  0.0097  0.1213
65190W        W 8181  29.561   0.964   2.862  0.2168 -0.0400 -0.2974
65191W        W 8182  33.318   9.830   2.703  0.2800  0.1645  0.0459
65192W        W 8183   6.261   2.714   6.611  0.0649 -0.2862 -0.0115
65193W        W 8184  32.340  27.288   5.829  0.2658 -0.1466 -0.0780
65194W        W 8185  32.328  31.211   1.694  0.0246  0.0911 -0.0538
65195W        W 8186  24.547  10.579  27.561 -0.1119 -0.0967 -0.1191
65196W        W 8187   4.574  30.348   0.243  0.0322  0.1685  0.1391
65197W        W 8188  14.271   4.206   1.209 -0.2245 -0.0364 -0.3826
65198W        W 8189  28.095  22.408   7.339  0.1415  0.0762 -0.0654
65199W        W 8190  33.351  32.174   4.804 -0.0204  0.0893 -0.3944
65200W        W 8191  25.139  29.737   5.475  0.0231  0.1998  0.0132
65201W        W 8192   1.712  14.192  25.301 -0.2012  0.1410  0.1834
65202W        W 8193  12.456  30.351   3.126 -0.1653  0.2001 -0.1210
65203W        W 8194   9.609  14.726   1.279 -0.1590 -0.1196 -0.0391
65204W        W 8195  18.199  26.499  28.531  0.2279 -0.0989  0.0705
65205W        W 8196   1.418   2.565   4.649  0.0008  0.0036  0.1116
65206W        W 8197   1.581   4.646  27.412 -0.2341 -0.0647 -0.0010
65207W        W 8198  33.131   2.484  17.677 -0.2439  0.4398 -0.1184
65208W        W 8199   2.057  19.396   2.405  0.2189 -0.0544  0.0968
65209W        W 8200   9.997  33.844   3.426 -0.0990  0.2237  0.2889
65210W        W 8201  27.091  32.496  28.648 -0.3321  0.0898  0.1121
65211W        W 8202   0.419  23.462   4.437 -0.1499 -0.0703  0.2938
65212W        W 8203  15.955  11.932  22.069  0.2028  0.0837  0.0052
65213W        W 8204  20.666  19.032  24.710  0.1053 -0.0149  0.1285
65214W        W 8205   4.982  26.676   4.884 -0.0466 -0.2124  0.1188
65215W        W 8206  25.801   2.862  22.004 -0.0303 -0.1803  0.2213
65216W        W 8207   4.457   0.355   9.371  0.4421 -0.2915  0.0862
65217W        W 8208   8.630  24.971  27.999  0.2795  0.1641 -0.0083
65218W        W 8209  22.793  33.691   4.662 -0.0107  0.2800  0.0445
65219W        W 8210  14.385  30.124   7.414 -0.0630 -0.3132  0.2461
65220W        W 8211  15.438   1.983   2.863  0.3246 -0.2295 -0.0352
65221W        W 8212   3.441  27.269   6.433 -0.3884 -0.0845 -0.4376
65222W        W 8213   6.840  21.734   2.533  0.1063  0.0547  0.1080
65223W        W 8214   1.652  19.813  25.099 -0.0880  0.2043 -0.2590
65224W        W 8215  18.932  31.554   8.960  0.0547  0.0480  0.1937
65225W        W 8216  23.803  32.192  25.893 -0.3328 -0.0768  0.3296
65226W        W 8217  34.324   9.898   1.198 -0.0049  0.4315 -0.1180
65227W        W 8218   4.285  28.772   8.584  0.0090 -0.1405  0.2270
65228W        W 8219  22.742   1.221  21.679  0.3090  0.3067 -0.0614
65229W        W 8220  16.802  13.523   3.687  0.0005 -0.0181 -0.1639
65230W        W 8221   3.147  29.751  10.163 -0.1355 -0.2465 -0.0687
65231W        W 8222  28.473   7.523  21.689 -0.1757  0.1237 -0.0644
65232W        W 8223   8.249  20.584   0.103  0.1319 -0.2317  0.5465
65233W        W 8224   7.888  16.617  23.626 -0.3814  0.2074  0.1823
65234W        W 8225   5.456   2.233   6.191 -0.1897 -0.0809 -0.1157
65235W        W 8226  31.846  23.000   9.104 -0.3652  0.1036 -0.0254
65236W        W 8227  12.861  30.206   3.345 -0.3560 -0.0060  0.0182
65237W        W 8228   6.443  14.182   2.758  0.0016 -0.3308  0.2596
65238W        W 8229  31.000  30.568  26.710  0.1347 -0.1173  0.0185
65239W        W 8230  29.226  26.757   8.529  0.1144 -0.2090  0.1990
65240W        W 8231  27.348  25.309   7.927 -0.1675  0.1472 -0.0790
65241W        W 8232   5.816   8.387  22.208  0.0308 -0.3076  0.0806
65242W        W 8233  30.277  14.660   9.616 -0.0198 -0.5042  0.0083
65243W        W 8234  33.919  13.025  11.208 -0.0394  0.0817 -0.1979
65244W        W 8235   1.540   1.972  28.273  0.1123 -0.2394 -0.1019
65245W        W 8236  14.597  32.610   4.744  0.0635  0.3019  0.0359
65246W        W 8237  28.694   1.686   2.626  0.2165 -0.1911 -0.1603
65247W        W 8238   3.783   6.236   2.011  0.0767  0.1062  0.0793
65248W        W 8239  34.395  24.644   3.889  0.0170  0.1207  0.2357
65249W        W 8240   4.077  27.514  26.082  0.3320  0.1656 -0.2024
65250W        W 8241  12.883  16.664  25.793 -0.0651 -0.1798 -0.0192
65251W        W 8242  26.315  23.006   9.692 -0.1075 -0.1333 -0.0246
65252W        W 8243   5.783  32.032   2.838  0.1038 -0.1087  0.4701
65253W        W 8244   9.922  23.700  29.213 -0.0464  0.1380  0.1409
65254W        W 8245  33.211  12.902   8.437 -0.2100 -0.1686  0.1470
65255W        W 8246   2.988  17.390  27.528  0.2301  0.0269 -0.0288
65256W        W 8247  27.739  15.979   5.871  0.0419 -0.1800  0.0037
65257W        W 8248  16.397  23.565   8.921  0.0664 -0.2553 -0.0286
65258W        W 8249   9.267  29.373   2.875 -0.0656 -0.0348 -0.0375
65259W        W 8250  13.409  25.797   0.983  0.0392  0.0035 -0.1591
65260W        W 8251   1.246  23.721  24.974 -0.1464  0.3424 -0.0369
65261W        W 8252  33.122  34.111  19.170  0.2636  0.1542 -0.0725
65262W        W 8253   0.078   1.352   2.966  0.0316 -0.2386  0.1196
65263W        W 8254   1.248  33.144   8.372  0.4056 -0.0819  0.2697
65264W        W 8255   5.771  22.325   4.969 -0.1476  0.1789 -0.1523
65265W        W 8256  31.712  28.056   2.150 -0.4120 -0.0382 -0.3458
65266W        W 8257   9.845   2.035  25.065  0.0605 -0.0402 -0.3159
65267W        W 8258  26.862  27.194   6.464 -0.1189 -0.0854 -0.1347
65268W        W 8259  30.252   1.723  14.777  0.0179  0.0578 -0.1789
65269W        W 8260  24.986  29.512  29.099 -0.5153 -0.3041  0.2789
65270W        W 8261   2.084  14.065   5.636  0.2206 -0.3291 -0.1173
65271W        W 8262   6.416   7.059   4.874 -0.1407  0.0860 -0.0527
65272W        W 8263   4.016  27.086   2.744 -0.2250 -0.0976 -0.0838
65273W        W 8264   3.691   5.508   4.242 -0.1003  0.0216 -0.1529
65274W        W 8265   0.670  34.616  23.838 -0.0521 -0.0977 -0.2447
65275W        W 8266   9.212  13.986   5.373  0.2264 -0.1665  0.0761
65276W        W 8267   2.245   3.294   9.742 -0.0675  0.2976  0.1215
65277W        W 8268  16.572  34.190  17.014 -0.2539  0.0047 -0.2536
65278W        W 8269  10.761  14.066  18.396 -0.1978  0.1414  0.1374
65279W        W 8270   5.520  28.095   1.252  0.2243  0.0431 -0.1065
65280W        W 8271  11.337   9.752  26.456 -0.0470 -0.1766 -0.0550
65281W        W 8272  13.503  10.123   7.672  0.1428 -0.0944  0.0846
65282W        W 8273   5.312  32.369   4.015 -0.0406 -0.0685 -0.0770
65283W        W 8274   4.201  25.378   0.966 -0.2535 -0.1834  0.0078
65284W        W 8275   3.998  28.087   9.711  0.2580 -0.1867  0.0836
65285W        W 8276  21.246   5.876   5.170  0.0338  0.0586  0.2308
65286W        W 8277  24.339  23.393   9.484 -0.1242  0.1540  0.0137
65287W        W 8278   5.342   4.320   3.107  0.0670  0.4508  0.0009
65288W        W 8279  29.063  28.996  23.310  0.1579  0.0186  0.5989
65289W        W 8280   0.076  29.587   7.988  0.2250 -0.0154 -0.1539
65290W        W 8281  31.394  27.274  28.564  0.0594 -0.3923  0.2187
65291W        W 8282   7.259  27.304   5.932 -0.2060 -0.1454 -0.1011
65292W        W 8283  15.367  33.073   3.527 -0.1919  0.0602  0.0405
65293W        W 8284   6.981  18.887   0.612  0.1557 -0.0137 -0.0110
65294W        W 8285  17.827  32.982   4.397 -0.0963 -0.1111  0.0019
65295W        W 8286  12.999  26.993   6.337  0.2825  0.0075 -0.1219
65296W        W 8287  12.229   0.384   9.895 -0.0403  0.0845 -0.0080
65297W        W 8288  34.762  23.329  28.644  0.3546 -0.0123 -0.2946
65298W        W 8289  34.696  27.331   5.507 -0.4730  0.0151 -0.2525
65299W        W 8290   2.339  32.838   0.915  0.1794  0.0259 -0.1868
65300W        W 8291  24.908   6.907   7.461 -0.3054 -0.0370 -0.3567
65301W        W 8292   8.130  28.093   6.891  0.0368 -0.0529 -0.1040
65302W        W 8293  17.943  23.062   2.607 -0.1838  0.2895  0.1057
65303W        W 8294  13.115  30.297   3.828 -0.3005  0.1795 -0.0453
65304W        W 8295  34.451   5.382  10.099  0.1136 -0.1370  0.0599
65305W        W 8296   3.811   5.168   5.713 -0.3072  0.0712  0.0605
65306W        W 8297  31.871  13.203   1.465  0.0513  0.0961 -0.0405
65307W        W 8298  30.926  10.176   8.165  0.1749 -0.2820  0.0224
65308W        W 8299   6.984  25.559   5.616 -0.1316 -0.5744 -0.0153
65309W        W 8300  21.766  13.035   7.168 -0.2144  0.1180 -0.0223
65310W        W 8301   4.894   5.115   9.440  0.1307 -0.1215 -0.0868
65311W        W 8302  29.726  23.361   7.266  0.0258 -0.1448  0.2369
65312W        W 8303   0.699   2.266   9.075  0.0976 -0.1182  0.2531
65313W        W 8304  11.222  31.567   3.326 -0.0624  0.0831 -0.2399
65314W        W 8305  23.407   9.804  26.765  0.3266 -0.0192  0.0357
65315W        W 8306   3.871  20.934  26.304 -0.1192  0.2274  0.3827
65316W        W 8307  26.173  24.235   3.497  0.2142  0.3459  0.1046
65317W        W 8308  10.064   1.020   4.305  0.0028  0.3155  0.1576
65318W        W 8309  11.602   8.589  27.116  0.0213 -0.0275 -0.0239
65319W        W 8310   6.076  31.453   8.143  0.0787 -0.3241 -0.1555
65320W        W 8311   9.097  29.934  10.147 -0.0908  0.0703  0.0411
65321W        W 8312   3.867  31.161  27.552 -0.2694 -0.0944  0.2421
65322W        W 8313   6.865   1.943  24.753 -0.1765 -0.0315 -0.3142
65323W        W 8314   1.908  26.366  26.282 -0.1949 -0.1147 -0.0417
65324W        W 8315  33.608   2.072   7.412  0.0678  0.0358 -0.0434
65325W        W 8316   6.864  21.137   4.045 -0.0131 -0.0929 -0.2339
65326W        W 8317  31.331   2.776   4.521  0.1206  0.0810  0.2609
65327W        W 8318   3.552   0.230   6.539  0.0889  0.1625  0.1397
65328W        W 8319   2.675  21.725   0.154 -0.1628 -0.1555  0.0492
65329W        W 8320   1.200  31.440  28.504 -0.1036 -0.0174  0.1447
65330W        W 8321  19.238  18.740  25.083 -0.0343  0.2259 -0.0956
65331W        W 8322   6.852  21.100   3.529 -0.1404  0.0211 -0.1922
65332W        W 8323  17.011  10.595  21.958 -0.0254  0.0465  0.1035
65333W        W 8324   6.619  19.633  27.853  0.0584  0.0173 -0.0511
65334W        W 8325   2.551  11.985  25.635  0.2471  0.0958  0.2843
65335W        W 8326  33.242  27.916  26.207  0.0721 -0.1661  0.0915
65336W        W 8327   5.664  33.430  26.017 -0.0494 -0.2577  0.0265
65337W        W 8328  34.057  17.116  24.435 -0.0561 -0.1160  0.0078
65338W        W 8329   5.647  23.723   3.903 -0.1540  0.0958 -0.1618
65339W        W 8330   2.665  33.991   6.661 -0.2348  0.2113  0.1215
65340W        W 8331  33.339  23.784   1.796  0.2332 -0.0661  0.0215
65341W        W 8332   3.255  18.474   2.244  0.0979 -0.0040 -0.0220
65342W        W 8333  10.086  15.788  25.896  0.1679  0.2141  0.2829
65343W        W 8334  15.289  26.641   6.432 -0.0766 -0.1008 -0.0215
65344W        W 8335  28.932  15.599  10.956 -0.1679 -0.2711  0.0431
65345W        W 8336   6.405  33.413   8.062 -0.1691  0.1184  0.1638
65346W        W 8337   8.817   0.130  10.261  0.0415  0.1425  0.1168
65347W        W 8338  32.246  16.712  21.650 -0.1068 -0.0181 -0.2150
65348W        W 8339   4.181   7.878   5.729  0.1379 -0.1589 -0.1113
65349W        W 8340  14.455   6.749  28.118  0.1110 -0.0102  0.3246
65350W        W 8341   0.526  32.342  28.021  0.0716  0.1385  0.2147
65351W        W 8342   7.563  29.816   7.958 -0.5853  0.2786 -0.0764
65352W        W 8343   1.612   5.013  28.900 -0.2289 -0.1843  0.1968
65353W        W 8344  22.858  21.082  27.717 -0.0877  0.0466 -0.2644
65354W        W 8345   1.706   6.650   8.609  0.0598  0.0802  0.0651
65355W        W 8346   0.060  14.932   1.965  0.0686  0.1191 -0.0211
65356W        W 8347   3.994  33.777  25.074 -0.2762 -0.1325  0.2486
65357W        W 8348   3.326   2.373   8.473  0.3667  0.0106 -0.5325
65358W        W 8349  11.166   5.193   1.955 -0.4493 -0.3055 -0.4051
65359W        W 8350   8.122  33.830  27.569  0.0020 -0.1289 -0.0800
65360W        W 8351   8.324  32.311   4.336 -0.3518  0.1266 -0.2269
65361W        W 8352  29.946   7.775   8.306 -0.0607 -0.4635 -0.1568
65362W        W 8353  17.742  27.544   5.078 -0.2853  0.0038  0.4914
65363W        W 8354  30.586   8.383   8.403 -0.0297  0.0446 -0.1572
65364W        W 8355  29.496   8.064   3.518 -0.2901 -0.1889 -0.0301
65365W        W 8356  34.462   0.859   5.492  0.2035  0.4038 -0.0332
65366W        W 8357  27.636  20.346   2.902  0.2196  0.4137  0.2862
65367W        W 8358   1.887  21.568   2.169  0.1239  0.1656  0.1073
65368W        W 8359  31.760   3.847   3.083  0.0447 -0.3754 -0.0648
65369W        W 8360  23.294  31.522   6.561  0.0496  0.0344 -0.0679
65370W        W 8361   1.842   3.287   1.050 -0.0459  0.1475 -0.1153
65371W        W 8362  13.077  31.263   9.804 -0.1730 -0.0496 -0.0405
65372W        W 8363  23.386  31.024   7.005 -0.0879 -0.0804 -0.0464
65373W        W 8364  14.101  21.515  29.160 -0.5975 -0.2447 -0.0838
65374W        W 8365  26.253   1.613   1.719 -0.0617  0.0886 -0.1088
65375W        W 8366  23.570  18.974  27.020 -0.0129 -0.1528  0.0969
65376W        W 8367  12.494   2.681  28.732  0.1397 -0.0241  0.3586
65377W        W 8368  32.273  34.012  24.555 -0.4058 -0.3974 -0.0832
65378W        W 8369  28.518  19.037   1.646 -0.1064 -0.1558  0.2196
65379W        W 8370  17.270  13.343   2.283  0.0541 -0.2505 -0.3575
65380W        W 8371  29.750   1.760  22.683  0.0988 -0.0638 -0.1920
65381W        W 8372   4.725  24.699  10.059 -0.2313 -0.3600  0.0451
65382W        W 8373  13.958  19.416   3.455  0.2149  0.0541 -0.5416
65383W        W 8374   0.622  30.478   7.308  0.0984 -0.0644  0.0886
65384W        W 8375   2.881  34.032  28.865 -0.0830 -0.0851 -0.0747
65385W        W 8376  30.290  21.865   5.224  0.1611 -0.1142 -0.1159
65386W        W 8377  27.935   7.400   9.307 -0.0063  0.0522  0.1104
65387W        W 8378   1.468  26.122   7.915 -0.2533 -0.0914  0.2266
65388W        W 8379   5.367  19.945  10.315 -0.1757 -0.1549 -0.2758
65389W        W 8380  33.052  27.028   2.239  0.1687  0.2562 -0.1196
65390W        W 8381  16.177  20.721  28.738 -0.0339 -0.4767 -0.1139
65391W        W 8382   3.997   0.261  26.994  0.0030  0.0151 -0.0779
65392W        W 8383  12.715  22.495  16.344  0.1554  0.0175 -0.0383
65393W        W 8384  24.841   2.604   0.069  0.2189  0.0881  0.1674
65394W        W 8385   6.066   2.685  29.046  0.2381 -0.1455  0.1033
65395W        W 8386  32.146  30.328   5.072 -0.0613  0.1584  0.2341
65396W        W 8387  24.628  29.854   6.690  0.0951 -0.0028 -0.4749
65397W        W 8388  17.723  27.337   2.442  0.2498 -0.1232  0.1726
65398W        W 8389  30.283  24.464   5.994  0.2115  0.1258 -0.1108
65399W        W 8390  29.894   9.275   7.611 -0.3132  0.1734  0.0702
65400W        W 8391  33.531   2.497  25.434  0.1701 -0.0326  0.1836
65401W        W 8392   3.676  28.679   7.961  0.1133  0.1904 -0.2558
65402W        W 8393   4.856  19.566   9.027 -0.3122  0.0536  0.3847
65403W        W 8394  24.051  23.329   3.031  0.2627 -0.0640 -0.1023
65404W        W 8395  15.698   1.888   5.997 -0.1664  0.0032 -0.0372
65405W        W 8396  32.727  29.732   1.479  0.0625  0.0177 -0.0539
65406W        W 8397   0.631   6.797   1.093 -0.0165 -0.1909 -0.1666
65407W        W 8398  17.040  12.445   7.937 -0.0367 -0.1021  0.1499
65408W        W 8399  31.349  32.507   5.909 -0.2097 -0.2153  0.1390
65409W        W 8400  32.421  30.041   2.941 -0.1030 -0.0200 -0.1300
65410W        W 8401   7.427   3.083  26.654 -0.2321  0.1853  0.1681
65411W        W 8402   1.138   2.592  28.852 -0.2442  0.0840  0.6645
65412W        W 8403   6.229  19.129  26.531  0.2200 -0.3083  0.2035
65413W        W 8404  27.204   3.250   8.199 -0.1001 -0.0381 -0.1049
65414W        W 8405  28.020  31.502   1.378  0.2990 -0.0294  0.0013
65415W        W 8406   2.341   6.257   0.301  0.3966 -0.3532  0.1537
65416W        W 8407  32.058   4.756  26.884 -0.0325  0.0599 -0.2047
65417W        W 8408  32.026  30.046   9.352  0.2039  0.0075  0.2720
65418W        W 8409   7.841  10.965  28.852  0.1883  0.2867 -0.1214
65419W        W 8410  10.146  28.722   1.678 -0.0643  0.2063  0.1192
65420W        W 8411  32.883  25.574   8.948 -0.1252 -0.3248  0.0372
65421W        W 8412  15.633  27.775  29.158 -0.1114 -0.1151 -0.0176
65422W        W 8413   5.547  31.296  21.707 -0.0845  0.0725 -0.0508
65423W        W 8414   7.759  27.438   7.774  0.2713  0.0400  0.2341
65424W        W 8415  31.110   3.131   2.451  0.1668  0.2369 -0.2274
65425W        W 8416  30.897  10.808   9.559  0.0744  0.2650  0.0129
65426W        W 8417  23.043  28.760  28.098  0.2044 -0.2528  0.0693
65427W        W 8418  19.724  21.703  24.087  0.0016 -0.0014 -0.2219
65428W        W 8419  11.682   6.682   4.326  0.0433  0.0805  0.1588
65429W        W 8420  10.753  33.300   9.055  0.0476 -0.0033 -0.1070
65430W        W 8421  24.617   1.260   2.976 -0.1475  0.1875  0.1416
65431W        W 8422  22.863  24.203   6.526 -0.1099  0.2464  0.1515
65432W        W 8423  26.982  29.358  15.506  0.0409 -0.0153  0.0716
65433W        W 8424  10.521  29.487  24.619  0.1418  0.2484  0.3124
65434W        W 8425   6.537  26.683   4.995 -0.2732  0.2071 -0.0320
65435W        W 8426  24.636  29.273   3.850 -0.0009 -0.2222 -0.1324
65436W        W 8427   4.664  16.340  27.766  0.0311 -0.2237  0.1395
65437W        W 8428  17.627  27.180  27.048  0.0518  0.2387 -0.0976
65438W        W 8429  24.382  16.887   2.864  0.1150 -0.2143  0.1215
65439W        W 8430   6.135  23.113  27.932  0.0563  0.0021 -0.1341
65440W        W 8431   0.904  22.781   6.448  0.0075 -0.3365 -0.3233
65441W        W 8432  32.906  32.917   5.097 -0.2721 -0.0789  0.1300
65442W        W 8433  20.317  23.602   3.004  0.3074  0.0595  0.1628
65443W        W 8434   5.696  28.352   8.756 -0.3871 -0.1650  0.0217
65444W        W 8435   0.202   1.985   8.202 -0.2964 -0.3616 -0.0284
65445W        W 8436  14.295  29.251   7.131  0.2843  0.0239  0.1639
65446W        W 8437  24.217  31.977   3.923  0.2156 -0.1365 -0.3774
65447W        W 8438  31.397  24.582   0.450 -0.2585  0.1242 -0.0792
65448W        W 8439  33.192  18.861  25.210  0.1502 -0.0064  0.3043
65449W        W 8440  29.288  30.615   5.965 -0.0717  0.0180  0.1402
65450W        W 8441   0.730   3.243  23.125  0.3444 -0.0040 -0.2585
65451W        W 8442  15.524  17.210  24.025  0.0308 -0.1211 -0.1211
65452W        W 8443  30.927  13.161   5.873 -0.2646 -0.1404 -0.1479
65453W        W 8444   9.430  19.129   3.949  0.0362 -0.1212 -0.2745
65454W        W 8445  25.326   1.622  23.332 -0.0568  0.1718 -0.0661
65455W        W 8446  21.585  14.477  23.480 -0.0465  0.0925  0.1359
65456W        W 8447   4.453  21.924  29.006  0.1367 -0.0778  0.0062
65457W        W 8448  16.703   1.157  10.114  0.2504 -0.1426 -0.3702
65458W        W 8449  30.414  31.033   7.737 -0.4367 -0.1283 -0.1009
65459W        W 8450  28.017  23.146   6.923  0.4472  0.2748 -0.6077
65460W        W 8451  15.918  32.050  25.668  0.0773  0.3095  0.0755
65461W        W 8452   9.837  17.229   7.421 -0.2037 -0.1785  0.2887
65462W        W 8453   0.646  34.616   8.198 -0.0870 -0.2142 -0.2253
65463W        W 8454  28.159  29.234   3.373 -0.2959 -0.0423 -0.1280
65464W        W 8455   6.023  15.644   5.055  0.1251 -0.0748  0.0289
65465W        W 8456  33.428  31.939   8.683  0.1284 -0.1289  0.0169
65466W        W 8457   3.562  34.201   0.519  0.2866 -0.3346  0.0431
65467W        W 8458   0.043  33.381   0.696  0.0746  0.2529  0.5307
65468W        W 8459  32.167  29.868   4.940 -0.1158  0.3278  0.0542
65469W        W 8460  30.800   9.583  25.040  0.1495  0.2065 -0.0764
65470W        W 8461   4.523   7.368   9.273  0.1445 -0.0855 -0.0257
65471W        W 8462   3.375  34.702   3.043  0.3051  0.2061  0.0195
65472W        W 8463  23.569  22.193  20.038 -0.0766 -0.1047  0.0174
65473W        W 8464  31.990   9.575  17.203  0.1586 -0.1954 -0.0484
65474W        W 8465  10.242   9.295   0.134  0.0284  0.0242 -0.1129
65475W        W 8466  24.633  32.233  22.937 -0.2791 -0.0686  0.1527
65476W        W 8467   0.718  20.407   1.845  0.1413  0.1474 -0.0168
65477W        W 8468  27.573  12.855  19.115 -0.0351  0.5096 -0.1108
65478W        W 8469   1.213  27.659  25.359 -0.0085 -0.0232 -0.1767
65479W        W 8470   1.315  26.504   3.394 -0.0928  0.0901  0.1288
65480W        W 8471  22.674  29.165   3.109 -0.0229  0.1262 -0.2849
65481W        W 8472  30.849  13.475  27.294 -0.2121  0.1920 -0.1166
65482W        W 8473   7.155  34.142   8.268  0.1122 -0.1169 -0.1696
65483W        W 8474   2.210  22.491   2.125  0.2248  0.1170  0.2037
65484W        W 8475   5.001  26.769   0.319 -0.1593  0.0274 -0.3223
65485W        W 8476  24.305   1.457  15.759  0.0889 -0.1165  0.2175
65486W        W 8477   2.163  31.747   2.668  0.0778 -0.1563  0.1184
65487W        W 8478   5.601  18.247   4.984  0.0273 -0.1274 -0.2265
65488W        W 8479   9.803   2.777  27.217 -0.0127 -0.0075 -0.0056
65489W        W 8480  24.443  18.567  17.054 -0.4828 -0.0368  0.1125
65490W        W 8481  33.864  34.058  16.314  0.0746  0.2311 -0.0055
65491W        W 8482  15.981  33.067   0.260  0.0377  0.2871  0.1727
65492W        W 8483  13.965  31.489   7.826 -0.0801  0.2243 -0.2779
65493W        W 8484   4.045  12.600  28.463 -0.1622 -0.0220 -0.1042
65494W        W 8485  34.103   8.220  25.254 -0.1215 -0.3227 -0.1841
65495W        W 8486   6.383  31.315   4.169 -0.2455 -0.2335 -0.3991
65496W        W 8487  14.166   3.036   4.159 -0.0866  0.1171 -0.2314
65497W        W 8488  10.257  32.218  26.986  0.0047  0.1379  0.0043
65498W        W 8489   0.776   0.199  26.253 -0.3220 -0.2989 -0.3063
65499W        W 8490  14.158  11.551  25.250  0.0056 -0.1098  0.0585
65500W        W 8491  12.653   0.926  14.485  0.2548  0.0449 -0.0202
65501W        W 8492  33.902   8.083   5.093 -0.2219 -0.0267  0.2462
65502W        W 8493   6.922   4.181  16.924  0.0761  0.1490  0.1115
65503W        W 8494  10.890  31.367  19.179  0.0394 -0.2121 -0.0776
65504W        W 8495  32.174  10.723  25.603 -0.2217 -0.2102  0.2160
65505W        W 8496   4.074  12.927   4.979 -0.3996 -0.3565 -0.0401
65506W        W 8497  21.868   9.948   7.489 -0.0508  0.0199  0.0378
65507W        W 8498  29.693  24.405  27.270 -0.1828 -0.0829 -0.0989
65508W        W 8499  29.964  29.196  28.077  0.0411 -0.3831 -0.1654
65509W        W 8500   8.015  33.082  20.830 -0.2806 -0.1721  0.1222
65510W        W 8501   0.016   7.989   4.966 -0.2995  0.0530  0.2080
65511W        W 8502  15.931  29.879   4.772  0.3340 -0.2033  0.0218
65512W        W 8503   5.769  21.312  25.187 -0.0663 -0.0023  0.2552
65513W        W 8504   5.428   2.653   7.181  0.0402  0.2067  0.2237
65514W        W 8505   7.949   2.919  20.336  0.1953  0.1491 -0.2055
65515W        W 8506  30.485   4.661   8.554  0.0702  0.2459 -0.2355
65516W        W 8507  34.681  32.800   8.798 -0.0061  0.0366 -0.0662
65517W        W 8508   0.700  23.110   4.172  0.1877  0.2160  0.1281
65518W        W 8509   3.510   3.971  15.335  0.2490 -0.2136  0.0924
65519W        W 8510  29.356  32.589  27.063  0.1326 -0.0686 -0.0689
65520W        W 8511   7.042   6.825   3.485  0.2083  0.1400 -0.3671
65521W        W 8512  25.322  29.732  25.800 -0.1194  0.1353  0.1677
65522W        W 8513   4.156   8.757   6.203  0.1636 -0.0810  0.1474
65523W        W 8514  32.754  16.519   6.748 -0.1662  0.0082  0.3115
65524W        W 8515   7.235  26.786   5.869 -0.0292  0.4095 -0.2125
65525W        W 8516  26.858  12.009   7.993 -0.3622  0.0512 -0.2310
65526W        W 8517  30.825  20.946   5.495 -0.1818  0.1324 -0.2635
65527W        W 8518  19.041  21.931  26.958 -0.0459  0.0563 -0.0784
65528W        W 8519   5.441   8.707  22.254 -0.1748 -0.0621  0.0621
65529W        W 8520  33.880   7.762   9.808 -0.1624  0.0489 -0.2756
65530W        W 8521  33.162  30.117   6.395 -0.0671 -0.2248  0.2199
65531W        W 8522  18.764   2.620  13.778  0.2293 -0.0063  0.2552
65532W        W 8523  32.577  32.613   7.021  0.3013 -0.2196  0.1884
65533W        W 8524  18.873  32.815   5.535  0.2177  0.2564  0.2750
65534W        W 8525   3.464  11.281   6.874  0.0714 -0.1251  0.1254
65535W        W 8526  29.920   1.686   8.466 -0.2739 -0.0755  0.1669
65536W        W 8527  23.668  10.903   1.671 -0.3383  0.0580 -0.0586
65537W        W 8528  12.484  27.671  17.923 -0.0205  0.0371 -0.0764
65538W        W 8529   4.803   5.913   6.425  0.1123  0.3197  0.0468
65539W        W 8530  11.647  27.574  27.085 -0.2168 -0.0768  0.1623
65540W        W 8531  33.049  27.417   8.359  0.2163  0.2680 -0.0098
65541W        W 8532  22.110   4.731   8.135 -0.0797  0.1642  0.0244
65542W        W 8533  31.029   3.131  27.033  0.1757  0.3441 -0.1848
65543W        W 8534  31.284  22.088   2.406  0.0838 -0.2596  0.0297
65544W        W 8535  31.685  28.479   0.965 -0.0026 -0.1520 -0.1954
65545W        W 8536  15.512   3.683  19.221 -0.1185  0.0661  0.0338
65546W        W 8537   1.342   2.793   8.428 -0.2196 -0.0830 -0.0792
65547W        W 8538  11.095  17.155   3.753 -0.4066  0.1269 -0.1255
65548W        W 8539   7.156   2.860  16.621  0.1156  0.2440  0.0869
65549W        W 8540  24.524  22.175  21.389 -0.1529  0.4206 -0.3831
65550W        W 8541   0.555  12.043  27.405  0.0757  0.0456 -0.2583
65551W        W 8542   6.154  24.603   9.001 -0.1798  0.0771  0.0354
65552W        W 8543   2.378   7.202   7.442  0.1276 -0.0513 -0.0187
65553W        W 8544  32.409   2.722  26.632 -0.0950 -0.2385  0.0234
65554W        W 8545  28.330   9.126   0.229  0.0133 -0.3624 -0.0107
65555W        W 8546   9.451  27.096  21.425  0.4123  0.1225 -0.0232
65556W        W 8547  22.177   1.506   4.116  0.0515 -0.2819 -0.1480
65557W        W 8548   9.539  26.769  26.215 -0.1940  0.1685  0.0800
65558W        W 8549   5.520   1.802  29.131  0.2005  0.0726 -0.2440
65559W        W 8550  30.661  12.378  27.501  0.0404 -0.0292  0.1410
65560W        W 8551  28.314  21.871  15.698 -0.2265 -0.1260 -0.0342
65561W        W 8552  23.178  11.585  28.810 -0.1486 -0.0398  0.1504
65562W        W 8553  32.788  10.617  29.219 -0.2196 -0.0658 -0.0799
65563W        W 8554  32.578  13.951   6.301  0.0181 -0.0364 -0.0566
65564W        W 8555  29.266  27.784   7.158  0.0942 -0.0615  0.1545
65565W        W 8556  32.815  31.282   3.072 -0.2662 -0.0871 -0.0286
65566W        W 8557  31.059   1.328   8.537  0.2368 -0.4226  0.1932
65567W        W 8558   0.384  33.989  27.983  0.0012 -0.1834  0.0993
65568W        W 8559   8.915   0.824  23.650  0.0822 -0.0650  0.0786
65569W        W 8560  14.785  20.571   2.966  0.5122  0.0122  0.2022
65570W        W 8561  20.877   1.673   8.174 -0.3159  0.2565  0.2884
65571W        W 8562   4.173   4.400  17.593 -0.2159  0.0360 -0.0142
65572W        W 8563   5.631  25.997   0.733 -0.1217 -0.1532 -0.0544
65573W        W 8564   4.861  32.464  20.038  0.0372  0.2113  0.1126
65574W        W 8565   1.089   2.046   5.546  0.3334  0.0740 -0.2603
65575W        W 8566  12.259  24.536   6.935 -0.1908 -0.0902  0.2752
65576W        W 8567   4.512   1.010  28.642 -0.2249  0.0762  0.3367
65577W        W 8568  15.387  25.696  26.291  0.3468 -0.1323  0.1053
65578W        W 8569  33.753   3.923  26.389 -0.0648  0.0173  0.2079
65579W        W 8570  26.694  12.717  10.455 -0.0343 -0.0046  0.0356
65580W        W 8571  22.132  10.545  25.278 -0.1779 -0.1834 -0.3164
65581W        W 8572  16.358  26.354   2.963 -0.0210 -0.1615 -0.1379
65582W        W 8573   0.991   1.373  26.118 -0.2419 -0.2028  0.1161
65583W        W 8574  21.184  28.698   8.618 -0.0923  0.2061 -0.2676
65584W        W 8575  32.889  29.952   2.747  0.0447  0.0118  0.1553
65585W        W 8576  30.682  15.516   4.299 -0.0894 -0.0252 -0.3903
65586W        W 8577  27.462   3.721  25.914 -0.0198  0.0051 -0.3811
65587W        W 8578  16.629   1.599   4.193  0.3320 -0.3104 -0.0631
65588W        W 8579  15.577   3.112   0.849 -0.1912  0.0214  0.0698
65589W        W 8580   3.275  24.689   5.889  0.2321  0.4248 -0.2290
65590W        W 8581   4.856   9.535   0.848 -0.0149 -0.2201 -0.0799
65591W        W 8582  26.798   1.047   7.470 -0.0355 -0.0209 -0.2110
65592W        W 8583  32.036  12.558   9.003  0.1659  0.3470 -0.0070
65593W        W 8584  20.891   3.010  18.607 -0.1958  0.2340 -0.0998
65594W        W 8585  10.789   8.564   2.095  0.1687  0.1682 -0.0246
65595W        W 8586   3.069  30.001   3.808  0.3224 -0.0704  0.0879
65596W        W 8587   0.859   6.890  18.708 -0.2544  0.3606 -0.3967
65597W        W 8588  18.824  29.403  27.182  0.0286  0.1167 -0.3114
65598W        W 8589   3.608  31.992  26.704 -0.1014 -0.0473 -0.0558
65599W        W 8590  24.368  30.725  18.343 -0.3330  0.2346  0.1896
65600W        W 8591  17.513   3.786  19.583  0.1148  0.2433 -0.1298
65601W        W 8592   5.999  20.101  17.613  0.0861  0.0245  0.0559
65602W        W 8593  31.325   6.688   2.503  0.1849 -0.0350 -0.1606
65603W        W 8594  29.748  24.576   0.904 -0.1513  0.0017  0.0577
65604W        W 8595   0.459  28.952  14.395  0.4657 -0.2957 -0.1798
65605W        W 8596   9.017  10.850   2.003  0.0073 -0.1291 -0.0700
65606W        W 8597  10.164   5.210   6.957  0.0148  0.0832  0.1342
65607W        W 8598   9.293  14.569  18.040  0.0366 -0.1179 -0.1608
65608W        W 8599   9.906   8.874  16.376  0.1184 -0.0701  0.2921
65609W        W 8600   6.763  27.722  28.812 -0.2302  0.1598 -0.1944
65610W        W 8601   7.183  24.532  10.625  0.0387  0.2155  0.0464
65611W        W 8602  27.304  21.282   0.642 -0.4004  0.2986 -0.1132
65612W        W 8603  28.408  17.691  28.797 -0.2314  0.0727  0.1756
65613W        W 8604   8.103  12.554  29.127  0.0492  0.2604  0.3852
65614W        W 8605  30.335  22.269  21.126  0.1227 -0.0444  0.0143
65615W        W 8606   5.197   4.315  10.417 -0.2235 -0.2994 -0.2515
65616W        W 8607   4.819   1.026   4.983  0.1913  0.1542 -0.1553
65617W        W 8608   4.636  30.976  25.688 -0.0905  0.0574 -0.3239
65618W        W 8609   0.438  30.144   8.835 -0.0594  0.0969 -0.2522
65619W        W 8610  32.149   8.409   2.003 -0.1566 -0.3216  0.0576
65620W        W 8611  22.824  11.119  25.741  0.1751 -0.0288 -0.0944
65621W        W 8612  23.421  24.431   0.315 -0.2953 -0.0363  0.1176
65622W        W 8613  11.848  30.169   7.629  0.0023 -0.1679 -0.0418
65623W        W 8614   4.009   6.703   5.041  0.2593  0.3495 -0.1800
65624W        W 8615  30.549  29.677   7.060 -0.0863 -0.1081  0.1395
65625W        W 8616  34.625  21.387  19.080  0.1223 -0.0213  0.0755
65626W        W 8617  16.866  28.384   8.184  0.1307 -0.0730  0.2465
65627W        W 8618  14.533   6.388  10.522 -0.2188  0.3917 -0.2722
65628W        W 8619  17.715   3.694   4.788 -0.2253  0.1091  0.2505
65629W        W 8620  30.589  21.542   2.632 -0.0850 -0.0382 -0.2682
65630W        W 8621  18.492  25.730   2.676 -0.2336  0.0490 -0.0863
65631W        W 8622  33.495  13.493   5.668  0.1012 -0.0970 -0.3642
65632W        W 8623   2.058  24.222   5.976  0.1797  0.2083 -0.0425
65633W        W 8624  10.083  27.977  16.175 -0.0583  0.1033 -0.1195
65634W        W 8625  29.019  27.928  21.299  0.0578 -0.1960  0.2082
65635W        W 8626   8.572  29.349  24.126 -0.1796 -0.0322 -0.1061
65636W        W 8627  32.806  29.769  21.068 -0.0272 -0.2367  0.0627
65637W        W 8628  33.591   8.660   8.614 -0.3370  0.1597  0.0209
65638W        W 8629  21.015  32.478  27.695  0.1655 -0.0614  0.0139
65639W        W 8630   1.479   9.201  21.709 -0.0601 -0.1038  0.1819
65640W        W 8631  10.244   4.529   6.616 -0.1967 -0.0364 -0.0051
65641W        W 8632   8.240   8.483  10.669 -0.0836 -0.1619  0.1269
65642W        W 8633  27.926  31.344  25.783 -0.0561 -0.0412  0.1258
65643W        W 8634  33.880   7.900   5.870  0.0148 -0.2302 -0.1906
65644W        W 8635  27.589  10.415  14.435  0.2930 -0.1056  0.0709
65645W        W 8636  12.365  10.675  22.233  0.0187 -0.2224 -0.0895
65646W        W 8637  34.539  12.514  17.362  0.2597  0.3890 -0.0677
65647W        W 8638  29.698   1.768   7.463  0.0103  0.0910  0.2206
65648W        W 8639  25.214   6.368   5.277  0.1307 -0.0779  0.1136
65649W        W 8640  31.956   9.479   6.304  0.0553 -0.1021  0.1259
65650W        W 8641  10.368  28.780   2.122 -0.0671 -0.2443  0.1123
65651W        W 8642  33.438  21.640  27.324 -0.2631  0.0852 -0.0007
65652W        W 8643   5.048  17.714  27.697 -0.2050 -0.1514 -0.1464
65653W        W 8644  27.428   3.959   0.813 -0.1420  0.0785 -0.0928
65654W        W 8645  11.828   5.558   1.313  0.0904 -0.0938  0.1682
65655W        W 8646  28.331  32.265   2.674 -0.1798  0.2522 -0.0815
65656W        W 8647  25.388  16.813  23.538  0.0299 -0.0713 -0.1748
65657W        W 8648  13.422   0.180   6.436  0.2176 -0.1609 -0.0080
65658W        W 8649   9.574  27.737   7.806 -0.1956 -0.3233  0.0075
65659W        W 8650  10.835  20.184   4.560 -0.0163  0.0345 -0.1014
65660W        W 8651  28.564  34.291  21.905  0.0093 -0.0983 -0.2459
65661W        W 8652  23.459  22.434   6.021 -0.2769 -0.0285  0.1102
65662W        W 8653   1.814   4.359   9.703  0.1295  0.2890  0.1454
65663W        W 8654   1.927  29.280  20.936  0.1387  0.0446 -0.2011
65664W        W 8655   5.510   0.964   7.238 -0.1157  0.2543  0.1752
65665W        W 8656   0.821  24.744  17.008 -0.0424 -0.3270 -0.3178
65666W        W 8657   4.217  24.031  24.942 -0.0530 -0.2902  0.1536
65667W        W 8658   2.944   2.418   4.889 -0.2965 -0.0582 -0.0155
65668W        W 8659   0.549   8.847   1.779 -0.1573 -0.0093 -0.1461
65669W        W 8660   7.596  22.206   3.611  0.1906 -0.2224  0.0438
65670W        W 8661   5.449  13.891   4.316 -0.0127 -0.0764  0.0436
65671W        W 8662  19.696   4.521   2.566  0.1277  0.1699  0.1135
65672W        W 8663  31.003  29.743   5.354 -0.1053 -0.0317  0.0289
65673W        W 8664  20.617  10.849   3.567 -0.0162 -0.3104  0.2801
65674W        W 8665  30.642  27.923  28.206 -0.0856  0.2019 -0.0117
65675W        W 8666  10.721   2.741   1.147  0.0253  0.0096  0.0498
65676W        W 8667  32.682   0.321   1.672  0.2087 -0.1098  0.1563
65677W        W 8668  11.318  30.064  24.150  0.4819 -0.0707  0.1838
65678W        W 8669   2.215   3.799   3.394 -0.4636 -0.2236 -0.1404
65679W        W 8670  11.426  32.924  16.857  0.0146 -0.1882 -0.0687
65680W        W 8671   9.263  29.725  15.010 -0.2993  0.4803  0.1568
65681W        W 8672  31.869  11.811  15.359 -0.3310 -0.0300 -0.1254
65682W        W 8673   2.445   8.147  18.497  0.0489 -0.0688 -0.0806
65683W        W 8674   0.428   4.279  28.657 -0.0912 -0.0223  0.1022
65684W        W 8675  30.332   5.482  17.298 -0.1729 -0.1375  0.2614
65685W        W 8676  33.511  31.110  20.963 -0.0975 -0.2192 -0.1483
65686W        W 8677   1.865  34.000  19.887 -0.2733  0.0441 -0.1787
65687W        W 8678  22.715   4.707   2.696 -0.0719  0.1674  0.2277
65688W        W 8679   4.284   8.910  10.832 -0.0403 -0.1960 -0.0553
65689W        W 8680  34.525   5.375   7.585 -0.3007 -0.2008 -0.1364
65690W        W 8681  21.853   4.993  22.750  0.0772  0.2036 -0.0598
65691W        W 8682   0.824  10.578  18.367  0.0429 -0.3128 -0.1329
65692W        W 8683  24.428  31.382   2.967  0.0032 -0.1130  0.0087
65693W        W 8684  29.098   4.357   8.391  0.0540 -0.2804 -0.1154
65694W        W 8685  31.555  31.985   8.100  0.2119 -0.0689 -0.0950
65695W        W 8686  21.657  12.241   3.354 -0.2071 -0.2338 -0.1835
65696W        W 8687   4.552  22.429  20.943  0.0275  0.1307  0.2871
65697W        W 8688  11.162  17.294  25.652 -0.1900 -0.1038 -0.2335
65698W        W 8689   7.743  32.408  22.045 -0.2357 -0.1667 -0.2181
65699W        W 8690  12.182  31.318   6.205  0.2837 -0.0245  0.1977
65700W        W 8691   5.033   9.215   7.579 -0.1562 -0.2532 -0.4120
65701W        W 8692  34.283  32.816   5.788  0.0983  0.1225 -0.2016
65702W        W 8693  29.323  30.661   5.456 -0.0218  0.1553  0.1239
65703W        W 8694  33.549   4.751  23.980 -0.1883  0.0237 -0.0511
65704W        W 8695   0.847  26.258  24.604  0.2215  0.4950 -0.0112
65705W        W 8696  29.635  17.644   1.410 -0.0082 -0.0746 -0.1621
65706W        W 8697  12.260  17.977   6.313 -0.0768  0.2928 -0.0489
65707W        W 8698   0.122  14.153  12.079  0.1074 -0.1503 -0.0348
65708W        W 8699   3.010  33.375   4.462  0.0641 -0.0712  0.2793
65709W        W 8700   2.384  26.227   8.201 -0.0979  0.0564  0.0135
65710W        W 8701  30.192  19.005   3.633  0.0406  0.1144  0.0770
65711W        W 8702  28.516  32.728   8.330 -0.1157 -0.1731  0.2247
65712W        W 8703  19.048  30.363   3.525  0.0077  0.3346 -0.1482
65713W        W 8704  33.231   7.441   3.256  0.0993  0.1637  0.0357
65714W        W 8705   2.460   5.447  15.306  0.1153 -0.0333 -0.0178
65715W        W 8706  31.656   8.215  27.724 -0.2663  0.1282 -0.1219
65716W        W 8707  11.004  24.641   5.801  0.1224 -0.0955  0.0924
65717W        W 8708  27.486  18.494   3.725  0.0586 -0.0027 -0.3926
65718W        W 8709   8.713  29.165  21.572 -0.2370  0.0185 -0.3146
65719W        W 8710   1.875  32.087  26.008 -0.1437  0.0911 -0.0401
65720W        W 8711  12.488   6.686   9.424  0.1615 -0.0673  0.0319
65721W        W 8712  32.874   6.284  10.829 -0.0734  0.1530 -0.0861
65722W        W 8713   8.195  23.873   2.725  0.0105  0.2037 -0.0362
65723W        W 8714  27.057  30.951   7.973  0.1045  0.0095  0.1052
65724W        W 8715   4.946  33.988   9.103 -0.2156  0.1772 -0.1781
65725W        W 8716  16.825  23.965  23.755  0.0702  0.1282  0.2236
65726W        W 8717  28.490  32.902  27.223  0.2359  0.4430  0.3656
65727W        W 8718  25.602  23.933   2.269 -0.0248  0.0003  0.1668
65728W        W 8719  29.725  20.493   5.206 -0.0556 -0.0235  0.1899
65729W        W 8720  27.717  30.955   5.117 -0.0933 -0.1393  0.2206
65730W        W 8721  27.528   8.344   7.417 -0.2061 -0.1032 -0.1102
65731W        W 8722  30.656   8.314   2.466  0.0799 -0.0848  0.0241
65732W        W 8723  34.023   4.700   8.472  0.1589  0.0303 -0.1018
65733W        W 8724  34.646   0.099  20.646 -0.0755  0.2045  0.1071
65734W        W 8725   4.233   9.635  28.807 -0.0634 -0.4468 -0.1716
65735W        W 8726   7.307   6.730  24.646  0.4509 -0.0695 -0.1076
65736W        W 8727   1.692  16.759   8.144  0.2851 -0.3133 -0.0053
65737W        W 8728   9.752  31.674   8.888 -0.0281 -0.4238  0.1141
65738W        W 8729  34.459   2.399   8.317 -0.2609  0.1182 -0.1646
65739W        W 8730  30.109   2.448  23.105  0.1053 -0.4659 -0.0577
65740W        W 8731  10.454   5.286  17.287 -0.1113  0.2003 -0.0926
65741W        W 8732   0.026  29.955  27.947  0.1428 -0.3707  0.1048
65742W        W 8733   6.525   1.671   1.649 -0.0583  0.0633  0.1288
65743W        W 8734  20.629  33.745   6.304 -0.0036  0.3480  0.0366
65744W        W 8735  25.921  26.207   9.104 -0.0355  0.0444 -0.1465
65745W        W 8736  23.791   4.588   5.247 -0.2241 -0.0243  0.2346
65746W        W 8737  34.093  11.853   8.322 -0.1782 -0.0462  0.0669
65747W        W 8738  27.685  13.283  28.746  0.2324  0.0266  0.5101
65748W        W 8739  25.704   9.275   2.301 -0.1503 -0.1048  0.1244
65749W        W 8740  13.683   2.844  27.582 -0.2216 -0.0911  0.0378
65750W        W 8741  30.045   2.722  17.990  0.0701 -0.0343  0.0008
65751W        W 8742  10.572  14.743  27.958  0.0884  0.1525 -0.1889
65752W        W 8743  30.651   0.882   4.287 -0.0638  0.1448 -0.1989
65753W        W 8744  16.210  25.095  27.119  0.1701 -0.3503  0.2533
65754W        W 8745   6.071  32.858  28.347  0.1904 -0.0037 -0.1478
65755W        W 8746  13.830   9.832   8.381 -0.4933  0.2459 -0.3495
65756W        W 8747  32.279   2.707   5.605  0.0659  0.0362  0.3603
65757W        W 8748   2.831   7.037   4.125 -0.1527 -0.1005 -0.1271
65758W        W 8749   5.663  27.485   6.831 -0.0921 -0.0874 -0.1601
65759W        W 8750  32.621  30.768  29.144  0.0723  0.3395  0.2043
65760W        W 8751   7.029  15.265  17.925 -0.2828  0.3312  0.0469
65761W        W 8752  31.526  12.151  20.549  0.1791  0.1946  0.2535
65762W        W 8753  13.139  29.772  26.429 -0.0852  0.4196 -0.1948
65763W        W 8754   9.948  32.339   2.069 -0.0086  0.0618  0.2717
65764W        W 8755   6.134  28.584  10.213 -0.1242  0.0519  0.0495
65765W        W 8756   8.918  30.239  16.038  0.3361  0.0051 -0.0858
65766W        W 8757  24.599  25.692   4.733 -0.0251  0.0746 -0.1102
65767W        W 8758  30.575  33.372  14.060  0.0488 -0.1965 -0.1176
65768W        W 8759  14.703  14.141  13.215  0.0086  0.0542  0.2900
65769W        W 8760  25.621  34.372   8.627 -0.2821  0.1861  0.2633
65770W        W 8761   3.097   2.119  18.419 -0.0165  0.2627  0.2765
65771W        W 8762  29.519   2.172   0.096 -0.0705  0.1858  0.3497
65772W        W 8763   4.994   3.174  19.858  0.3600 -0.2407 -0.0258
65773W        W 8764  32.369  14.064   5.798  0.1043  0.1461 -0.0780
65774W        W 8765   4.686  31.638   7.741 -0.1859  0.3657  0.0580
65775W        W 8766  14.785   5.151   6.321  0.1516 -0.0988 -0.2030
65776W        W 8767  11.691  20.002  18.063  0.1030 -0.1809  0.0723
65777W        W 8768   0.704  25.520  28.961  0.0600 -0.0942 -0.1896
65778W        W 8769   6.439   5.036  18.671  0.1199 -0.0587  0.3097
65779W        W 8770   7.966  28.019  22.231  0.2216 -0.1614  0.0355
65780W        W 8771   3.368  32.380   9.724  0.2254  0.1755 -0.1283
65781W        W 8772   0.303   8.952  23.822  0.0399  0.0199  0.1232
65782W        W 8773  12.166  10.295   3.242  0.0158  0.2236  0.3115
65783W        W 8774   4.029  11.116   3.796  0.0345  0.0619 -0.1223
65784W        W 8775   8.011   0.039   7.672  0.0814 -0.2577  0.1810
65785W        W 8776   2.998   5.473  15.216  0.0082 -0.0646 -0.1673
65786W        W 8777  14.865  19.941  24.071 -0.1967 -0.0147 -0.1822
65787W        W 8778  33.239  29.142  27.258 -0.1292 -0.0593 -0.1201
65788W        W 8779  32.533  20.385   3.709 -0.0636 -0.2673  0.2649
65789W        W 8780  11.612  27.112   0.065  0.2709 -0.0126  0.0465
65790W        W 8781  31.473   1.472  26.367  0.0558  0.0571 -0.0974
65791W        W 8782   0.025   0.937  29.208 -0.1682 -0.0625 -0.0022
65792W        W 8783  18.050  24.577   1.002 -0.2712 -0.3325 -0.1787
65793W        W 8784  23.904   7.612   7.294 -0.2188 -0.0995 -0.0449
65794W        W 8785  33.092  18.491   9.110  0.0322 -0.0604  0.1100
65795W        W 8786  26.707  31.558  25.970  0.4383  0.2219 -0.0767
65796W        W 8787  10.160   2.209   5.834  0.1198  0.3925 -0.1119
65797W        W 8788   4.592  26.337   4.563 -0.0241 -0.2282  0.0421
65798W        W 8789   5.341  34.588  26.592 -0.1810 -0.1086  0.1066
65799W        W 8790   0.196   4.113   6.657 -0.0396  0.2064  0.0675
65800W        W 8791   6.601  25.702   7.799 -0.1147 -0.0146  0.0829
65801W        W 8792  25.084   1.403   7.895 -0.1741  0.1762  0.2245
65802W        W 8793  30.815   6.031  22.650  0.0571  0.0439 -0.0419
65803W        W 8794  22.410   6.350  26.771  0.0940  0.1215 -0.1949
65804W        W 8795  25.786  31.211   8.449 -0.1415 -0.0196  0.2548
65805W        W 8796  28.697  25.330   8.610  0.1305 -0.1974  0.0276
65806W        W 8797  31.154  15.012   1.148  0.0024  0.1263  0.1059
65807W        W 8798   4.523  14.880   7.999  0.2952 -0.3005 -0.2589
65808W        W 8799  14.729  30.963  23.544 -0.1402 -0.2399 -0.1219
65809W        W 8800  24.919   5.947   7.499  0.0585 -0.0972 -0.0393
65810W        W 8801  33.819   3.362   8.468 -0.0576  0.0180 -0.1108
65811W        W 8802   1.706   1.262  25.660  0.3842  0.0045 -0.0328
65812W        W 8803  14.568  28.008  28.672 -0.3164  0.1362  0.0342
65813W        W 8804   7.644   3.740   0.607  0.1897 -0.0647  0.0749
65814W        W 8805   3.949  32.891   6.529  0.4490 -0.0304  0.0255
65815W        W 8806  34.722   8.649   4.156 -0.2420  0.1744  0.0145
65816W        W 8807  14.628   2.864  27.576  0.3458  0.0198 -0.0519
65817W        W 8808  28.914   6.408   2.666 -0.0743  0.2627  0.0935
65818W        W 8809  21.208  33.965  26.703 -0.0625 -0.1093 -0.1725
65819W        W 8810  18.605  24.362   2.752 -0.1444 -0.4552  0.2034
65820W        W 8811  31.131  33.872  25.384  0.1035  0.0315  0.0352
65821W        W 8812   3.671  14.267  27.231  0.1007 -0.3857 -0.0755
65822W        W 8813   0.631  10.679  26.463  0.0593  0.1788  0.4893
65823W        W 8814  29.533  31.648  28.547 -0.0669 -0.0361  0.1125
65824W        W 8815  18.416  24.622   5.971  0.2020 -0.1842  0.0626
65825W        W 8816  12.493  11.195   6.496 -0.1451  0.0931  0.0199
65826W        W 8817   5.851  34.633   2.662 -0.1189  0.0969 -0.1729
65827W        W 8818  24.784  29.031   4.733  0.2468  0.1303 -0.0589
65828W        W 8819  33.831  18.803   6.008  0.0409 -0.4630  0.1132
65829W        W 8820  31.727   3.868  28.141 -0.0480 -0.1425  0.2244
65830W        W 8821   2.866  22.211  23.301 -0.4109 -0.2285 -0.0192
65831W        W 8822  11.307   0.011  24.756 -0.4512 -0.2919 -0.2078
65832W        W 8823   8.263   5.713   8.444 -0.0987  0.0934  0.2466
65833W        W 8824   2.968   6.097  28.319  0.0159 -0.3173 -0.0175
65834W        W 8825  18.291   1.815  25.610  0.1801  0.1143  0.0312
65835W        W 8826  20.373  21.053   1.976  0.0310 -0.3405 -0.0290
65836W        W 8827  30.950   9.722   7.053  0.1846  0.0468 -0.1197
65837W        W 8828  11.581  21.993  26.682 -0.4026 -0.1262  0.1747
65838W        W 8829  18.106  34.197   3.767 -0.5106 -0.1433 -0.2602
65839W        W 8830  29.298  31.242   5.282 -0.2965  0.1021 -0.1185
65840W        W 8831   1.683  34.321   2.320 -0.0946  0.5094 -0.0196
65841W        W 8832  23.854  29.941   8.070  0.0927  0.0264 -0.0280
65842W        W 8833  30.111   4.621   6.153 -0.1713 -0.0908 -0.0919
65843W        W 8834   9.876  17.259   6.050  0.2310  0.3879 -0.0040
65844W        W 8835  31.158  22.009   6.212 -0.1305  0.0381  0.0221
65845W        W 8836  32.331  31.651   6.729 -0.1782 -0.4477  0.0250
65846W        W 8837  34.576   3.222  18.117  0.0876  0.1489 -0.2743
65847W        W 8838   4.726   3.926  18.378 -0.2860  0.1386  0.2267
65848W        W 8839  15.729   8.766   0.360 -0.2097  0.0806 -0.0621
65849W        W 8840   1.263  15.346   6.792  0.0056 -0.2147  0.1319
65850W        W 8841  30.085  19.477  26.167 -0.3841 -0.2239  0.0612
65851W        W 8842   2.242  20.226   3.303  0.0799 -0.0351  0.2090
65852W        W 8843   1.174  27.566   2.765  0.0522  0.2526 -0.0161
65853W        W 8844   1.582  27.922   2.933 -0.0118  0.1491  0.1232
65854W        W 8845  31.791   2.585   3.197 -0.0094 -0.0630  0.1760
65855W        W 8846  13.096  32.206   8.341 -0.3267  0.1589  0.1665
65856W        W 8847  22.533  29.523   2.702  0.0546 -0.0619  0.0368
65857W        W 8848  17.993  23.577   7.355  0.2116  0.1991  0.0346
65858W        W 8849  34.130   4.165   1.218 -0.1420  0.1444 -0.0245
65859W        W 8850   1.473   2.075   6.785 -0.1724  0.2903  0.2228
65860W        W 8851  20.566  30.711   4.845  0.1107  0.2681 -0.1835
65861W        W 8852  13.570   1.373   7.248 -0.1928  0.1481  0.0260
65862W        W 8853  12.159   0.341  15.020  0.0139  0.2556 -0.2702
65863W        W 8854  34.008  22.845  26.664  0.2490  0.3093 -0.4338
65864W        W 8855  30.535  26.902   1.021  0.0377 -0.0220 -0.2529
65865W        W 8856  10.686   7.860   5.602 -0.0168 -0.2038 -0.1853
65866W        W 8857   9.260  19.160   6.935 -0.2409  0.0803  0.1095
65867W        W 8858  22.720  10.962   8.807 -0.3163 -0.0688  0.0860
65868W        W 8859   8.308  19.025   9.253 -0.1034 -0.2142  0.2181
65869W        W 8860  16.034  24.356  26.509  0.0565  0.1202  0.2586
65870W        W 8861  11.853   1.698   5.736  0.1169  0.0653 -0.0952
65871W        W 8862   8.157   9.485  19.033 -0.1608  0.1763  0.0166
65872W        W 8863  29.865   1.196  21.995  0.2520 -0.1720  0.1911
65873W        W 8864  20.762  31.661   7.962 -0.1282  0.0869 -0.1588
65874W        W 8865  30.403   1.567   3.772  0.0414 -0.3850  0.0562
65875W        W 8866   9.148  33.196   6.244 -0.3306  0.3852 -0.0871
65876W        W 8867   2.580  24.944  25.844 -0.0963  0.0929  0.0289
65877W        W 8868  11.915  34.068   0.904 -0.1973  0.3767  0.1155
65878W        W 8869  24.032  16.901   2.370 -0.0523 -0.0596 -0.3223
65879W        W 8870  24.095   8.296   4.594 -0.2078  0.1983  0.6037
65880W        W 8871  18.000  25.561   6.817  0.2602  0.1487  0.1919
65881W        W 8872  24.245  24.236   5.815  0.3608 -0.0332  0.1243
65882W        W 8873  24.553   4.272  26.651  0.0236  0.0155  0.1418
65883W        W 8874  11.167   3.880   4.044 -0.3121 -0.1994  0.1850
65884W        W 8875  17.729   6.568  29.167 -0.1390  0.3845 -0.1788
65885W        W 8876   8.386   4.493   3.317 -0.0161 -0.0635  0.0239
65886W        W 8877   8.409  30.813   8.553 -0.0543  0.2483  0.0255
65887W        W 8878  26.862  32.605   3.754  0.1325  0.2584  0.3532
65888W        W 8879  27.808  14.444  23.096  0.3051 -0.2778 -0.1712
65889W        W 8880  10.604  32.936  23.790  0.0907  0.0974 -0.0771
65890W        W 8881  20.577   3.928   8.031 -0.1760  0.0049  0.1947
65891W        W 8882  32.676  12.006   8.553 -0.0283  0.2730 -0.1777
65892W        W 8883   1.303  30.217   9.322  0.2856  0.1330 -0.3084
65893W        W 8884   9.287   6.825   4.900 -0.2738  0.0708 -0.0281
65894W        W 8885  10.761  11.321   6.109  0.0130  0.0181 -0.0873
65895W        W 8886  24.141   6.558  20.161  0.0028  0.2445  0.0787
65896W        W 8887  31.718   7.424   2.889  0.0985  0.2906 -0.1262
65897W        W 8888  11.548  16.964   9.665 -0.0248 -0.0797 -0.1363
65898W        W 8889  29.532   4.346  23.548 -0.0795 -0.2033 -0.1171
65899W        W 8890  32.490  29.749   9.207  0.0841 -0.3631 -0.2433
65900W        W 8891  27.391   6.591   1.553 -0.0402 -0.1996  0.1393
65901W        W 8892   7.973   3.357   3.853 -0.2955 -0.0244 -0.2908
65902W        W 8893   6.573  30.738  10.155  0.0220 -0.2855 -0.1399
65903W        W 8894   1.090  16.051  19.869  0.0509 -0.1703 -0.1332
65904W        W 8895  34.404   0.066  21.125  0.2716  0.1119  0.0706
65905W        W 8896   0.586   3.088  24.397 -0.1039  0.3692 -0.0209
65906W        W 8897  14.237   9.465  23.625  0.1840  0.6535  0.2272
65907W        W 8898  27.008  28.316   2.984 -0.1207 -0.0701  0.2403
65908W        W 8899  28.190  28.260  17.936 -0.0910  0.0169 -0.1510
65909W        W 8900  29.493   1.017   5.660 -0.1132  0.1534 -0.3292
65910W        W 8901   3.425  32.966   9.856  0.1347  0.2582  0.1216
65911W        W 8902  33.696  24.982   6.239 -0.0079  0.2012  0.0339
65912W        W 8903  29.217  23.416   7.310  0.0069  0.0462  0.0786
65913W        W 8904  33.714   9.296   5.517  0.0199  0.0344 -0.3061
65914W        W 8905  28.743   0.132   9.010 -0.0300 -0.0503  0.1101
65915W        W 8906   1.380  14.458  28.386  0.1134  0.3187  0.3869
65916W        W 8907   2.200  12.548   1.477  0.4133  0.1959  0.0547
65917W        W 8908  26.779  14.500  28.450  0.0967 -0.2858 -0.0545
65918W        W 8909  19.574  29.461   7.434  0.3100 -0.0268  0.2367
65919W        W 8910  30.754  22.080  21.162  0.2280 -0.4245  0.0997
65920W        W 8911  14.416  22.020   6.225  0.0932  0.0600 -0.1164
65921W        W 8912   2.193   1.647  22.499 -0.2763  0.0494  0.1760
65922W        W 8913   2.110   9.586  22.344 -0.0487 -0.0981 -0.0021
65923W        W 8914  10.169   2.519  27.412  0.2692  0.2045 -0.0611
65924W        W 8915  20.210   2.928   2.435  0.5040 -0.0512 -0.1292
65925W        W 8916  33.702  31.441  27.628  0.1101  0.1043  0.0747
65926W        W 8917   0.418   3.274   9.838 -0.0353 -0.1015  0.2686
65927W        W 8918  19.793  24.243  23.855 -0.2249 -0.0271  0.0386
65928W        W 8919   5.919  17.069   8.225 -0.0864 -0.1325 -0.2150
65929W        W 8920  26.272  25.601  26.911 -0.0114  0.1140  0.0290
65930W        W 8921  27.053  27.184   3.603 -0.0728  0.0664  0.0547
65931W        W 8922   8.828   7.997   3.109  0.4142  0.0568  0.1713
65932W        W 8923   1.833  10.298   0.945  0.0796 -0.5049 -0.3200
65933W        W 8924  26.161  29.388   7.317  0.1302 -0.0755  0.1256
65934W        W 8925  20.016  13.180   3.851  0.0851 -0.1291 -0.2375
65935W        W 8926  10.919   5.653   1.107 -0.1514  0.0556  0.3646
65936W        W 8927   1.094  13.730  27.482  0.0223 -0.1712 -0.0889
65937W        W 8928  34.370   2.248   3.699  0.0457  0.0588 -0.0203
65938W        W 8929  10.922   9.338   6.911 -0.0847  0.0330  0.0068
65939W        W 8930  28.382  32.849  26.707  0.1401  0.1180  0.3331
65940W        W 8931   5.562   5.934  28.448 -0.0652 -0.1880  0.0205
65941W        W 8932  11.849  33.510   2.400 -0.1851 -0.0319 -0.0940
65942W        W 8933  30.358   7.230  23.486 -0.0829 -0.2105 -0.0245
65943W        W 8934  29.399  19.901   8.294  0.3565  0.3021  0.1475
65944W        W 8935  30.905  26.447   0.687  0.0886 -0.0367  0.2779
65945W        W 8936  27.633   5.034   6.637 -0.0693  0.1711 -0.0733
65946W        W 8937  33.182   6.468  10.084  0.1911  0.3064  0.5007
65947W        W 8938   4.707  28.388   1.237 -0.0537 -0.1509 -0.2599
65948W        W 8939  20.248   0.595   4.070  0.1246 -0.0048  0.0697
65949W        W 8940   0.019  28.106   9.207  0.1393 -0.1265  0.3316
65950W        W 8941   5.187   5.831  10.698  0.2120  0.1703 -0.1267
65951W        W 8942  11.818  26.311   6.806 -0.1593  0.2245  0.3368
65952W        W 8943  34.715   9.868   3.575  0.1419 -0.0123 -0.1132
65953W        W 8944   5.349   1.583   3.394 -0.1359  0.0161  0.0698
65954W        W 8945  32.576   0.005  23.675 -0.0467 -0.0782 -0.2049
65955W        W 8946  34.115  29.613   6.113  0.2995 -0.0843  0.1215
65956W        W 8947   4.816  27.723   0.606 -0.3851  0.1105  0.1465
65957W        W 8948  12.986  19.813   2.311 -0.3476 -0.2172  0.1903
65958W        W 8949  22.044   0.832  28.874  0.1153 -0.5870 -0.3190
65959W        W 8950  18.710  30.773   8.243 -0.0615 -0.2775  0.1127
65960W        W 8951  27.968  15.119   8.556  0.2807  0.1613 -0.1459
65961W        W 8952  33.947  19.070   7.321  0.1028 -0.2255 -0.2076
65962W        W 8953  32.335  33.522  15.014 -0.0177  0.0514  0.0097
65963W        W 8954   0.866  14.627  28.260 -0.0977 -0.0670  0.0584
65964W        W 8955   3.940  28.055   8.674  0.1764  0.0790  0.1459
65965W        W 8956  21.316  14.934  19.534  0.0484 -0.3750  0.0002
65966W        W 8957  11.610  32.408   8.757  0.0044  0.3603  0.1942
65967W        W 8958   1.733  31.855   5.307  0.1479  0.0724 -0.0016
65968W        W 8959   2.793  16.169  11.526 -0.0027 -0.0595  0.1283
65969W        W 8960  11.745  31.823   0.885 -0.0864  0.1333 -0.1389
65970W        W 8961  30.414   5.668  29.084 -0.1932 -0.0236  0.0287
65971W        W 8962  32.535  22.409   3.823  0.0215  0.3286  0.1519
65972W        W 8963   2.571   2.450   4.027 -0.0923  0.0776 -0.0154
65973W        W 8964  26.503   8.450   6.166  0.0118 -0.2886 -0.1719
65974W        W 8965  10.357   8.347   1.950  0.0567 -0.0523 -0.0035
65975W        W 8966   2.045   5.311   8.008  0.1775 -0.1164 -0.1541
65976W        W 8967   1.074  10.308   3.775  0.0408  0.2709 -0.1731
65977W        W 8968  10.566  28.000  23.171  0.1024 -0.0428 -0.3702
65978W        W 8969  11.173  12.399   8.179 -0.2949 -0.0963 -0.1206
65979W        W 8970  25.453   3.737   6.460  0.3779  0.1127 -0.3052
65980W        W 8971   6.626  14.243   7.977 -0.0072 -0.0657  0.0117
65981W        W 8972  32.828   0.142   2.658 -0.0523 -0.0169  0.2567
65982W        W 8973  34.102  28.416  25.202 -0.0835  0.4284  0.3317
65983W        W 8974  28.942  16.874   9.059 -0.1960 -0.0268  0.2969
65984W        W 8975  32.142   9.089   0.680  0.5604 -0.0416  0.3095
65985W        W 8976  31.694   0.480   6.325 -0.1638  0.2631  0.0478
65986W        W 8977  13.987   3.156  18.388  0.0188 -0.0572 -0.0156
65987W        W 8978   1.717  10.799  25.591 -0.0286  0.2212  0.0740
65988W        W 8979  32.398   4.307   5.282  0.0593 -0.3197 -0.2321
65989W        W 8980  24.027  10.751   3.267  0.0819  0.1443 -0.1488
65990W        W 8981  10.580  25.949   2.363 -0.0871 -0.1461  0.2592
65991W        W 8982  25.102   2.713  24.646  0.1618  0.2788  0.3942
65992W        W 8983   6.148   1.775   3.890  0.3299 -0.2293 -0.0083
65993W        W 8984   3.031   8.558  24.137  0.1093  0.2956  0.0017
65994W        W 8985  13.597  28.267  29.076 -0.1225  0.0518 -0.0522
65995W        W 8986  24.992  21.890   7.145 -0.1437  0.0252  0.1320
65996W        W 8987  24.652   2.082   7.530 -0.1866 -0.1820 -0.2559
65997W        W 8988  30.707  29.575   4.545 -0.1055  0.0302  0.2460
65998W        W 8989   1.472  12.271   7.036  0.1642  0.1126  0.3162
65999W        W 8990  21.467  33.709   5.537 -0.0971  0.2087  0.0393
66000W        W 8991   8.943   5.859  17.414 -0.3128  0.0044 -0.5351
66001W        W 8992  19.105   2.377   0.812  0.1532  0.1661  0.1629
66002W        W 8993  29.289  24.649  24.437 -0.1924 -0.3375  0.0657
66003W        W 8994   1.570  29.854   0.165  0.2028  0.1406 -0.4468
66004W        W 8995   6.870   2.098   7.779  0.3804 -0.2960  0.0708
66005W        W 8996   1.307   5.241   8.378  0.0498 -0.2424 -0.0009
66006W        W 8997   1.510  33.735   6.501 -0.1007  0.2126 -0.0646
66007W        W 8998   2.893   4.969   3.241 -0.0092  0.0961  0.0811
66008W        W 8999  17.495   0.055  23.406 -0.1456 -0.0660  0.0525
66009W        W 9000  22.240  34.641  27.060 -0.1975  0.2441 -0.0849
66010W        W 9001  33.373   8.798  29.250 -0.2675  0.2302  0.1859
66011W        W 9002   4.852   4.683   4.426  0.3099 -0.0974  0.0931
66012W        W 9003  12.664  29.441   6.386  0.0336  0.0956  0.4552
66013W        W 9004   6.259   6.503   8.586  0.1579  0.0084 -0.1223
66014W        W 9005   3.938   0.457   4.877  0.3224  0.1699 -0.1113
66015W        W 9006   2.657  28.480   5.154 -0.3879  0.1439  0.1584
66016W        W 9007  34.447  26.187   4.175  0.1212 -0.1241 -0.3310
66017W        W 9008  24.038   4.957   7.270 -0.0108  0.0353  0.0052
66018W        W 9009  16.928   7.442  10.475 -0.2127 -0.0510 -0.1849
66019W        W 9010   2.452   3.562   7.120  0.1627 -0.1824  0.1079
66020W        W 9011  11.298   3.708   7.484 -0.2189  0.1890  0.0263
66021W        W 9012   4.641  26.403   5.146  0.2209  0.0521 -0.0320
66022W        W 9013   1.628   2.010   0.445  0.2865 -0.1275 -0.2570
66023W        W 9014   3.782   2.712  10.762 -0.0445 -0.0914 -0.4216
66024W        W 9015   4.428   1.041   7.331  0.0036  0.2106 -0.0991
66025W        W 9016   1.411   6.771   9.934  0.1236  0.1229  0.1153
66026W        W 9017  32.062   4.937   5.832 -0.0782 -0.1265  0.2904
66027W        W 9018  25.983   3.613  26.867  0.1702 -0.1688 -0.0121
66028W        W 9019  15.446   3.428   8.731  0.2457  0.2555 -0.2578
66029W        W 9020  32.997  33.532  24.716  0.1446  0.1844  0.0467
66030W        W 9021  33.320   1.040   7.344  0.0427  0.1473  0.1248
66031W        W 9022   9.651  11.284   8.083 -0.0180 -0.2596 -0.0522
66032W        W 9023  11.459  27.399   9.118 -0.1869  0.1286  0.0411
66033W        W 9024  25.487  24.707   2.870  0.0053 -0.1592  0.4092
66034W        W 9025  30.111   2.007   4.704 -0.1266 -0.2837  0.1378
66035W        W 9026  17.151   4.037   5.528 -0.3598  0.1404  0.0723
66036W        W 9027  31.720  32.044  28.857 -0.2540 -0.1014  0.0459
66037W        W 9028  10.492   8.321  10.246  0.1019 -0.2054  0.0114
66038W        W 9029  22.839  13.941   7.085 -0.1810  0.1773 -0.1411
66039W        W 9030   0.891  14.605   0.131 -0.0018 -0.1273  0.4185
66040W        W 9031  26.853   0.450   8.823  0.0670 -0.1086  0.2199
66041W        W 9032  15.217  27.739   8.992 -0.1265  0.2492  0.1697
66042W        W 9033  21.125  26.315  28.189 -0.2823 -0.1304  0.1228
66043W        W 9034   9.635  16.581   8.015  0.1225 -0.0492 -0.0703
66044W        W 9035   8.875  17.671   3.976 -0.0322  0.0674  0.2199
66045W        W 9036  27.417  22.826   1.609  0.2831 -0.0398 -0.0126
66046W        W 9037  31.870  13.701  24.675 -0.2735 -0.0327 -0.0770
66047W        W 9038  29.411  31.277   2.581 -0.0262 -0.3401 -0.1861
66048W        W 9039  30.314  32.629   6.983 -0.1591  0.1435 -0.1002
66049W        W 9040   2.799  28.547  28.562 -0.1007  0.0500 -0.0303
66050W        W 9041   3.913   0.539  10.327 -0.0332  0.0602  0.0992
66051W        W 9042  16.589  22.317   6.050 -0.0991  0.2942  0.0531
66052W        W 9043   9.410  19.455  14.292 -0.0693  0.0799 -0.0347
66053W        W 9044  30.367  33.740  27.405 -0.1413  0.1099 -0.1442
66054W        W 9045   2.522  27.318   8.238  0.2949  0.0198 -0.0147
66055W        W 9046   0.903  22.827  24.862  0.0365 -0.1102 -0.0251
66056W        W 9047  22.676   3.365  25.316  0.3777  0.1136 -0.0600
66057W        W 9048  32.048   9.246   8.262 -0.1281 -0.3368  0.1812
66058W        W 9049   3.958   7.790  24.128  0.0233  0.2057  0.1724
66059W        W 9050  34.716   4.569   5.961 -0.2539  0.1112  0.0225
66060W        W 9051   8.574   2.085   0.699 -0.2374  0.1075  0.1871
66061W        W 9052  29.585  11.681  17.763 -0.1518  0.1733  0.2245
66062W        W 9053   7.656   3.364  10.316 -0.2208 -0.0800  0.0357
66063W        W 9054   6.072   7.651  26.825  0.1313 -0.1877  0.0497
66064W        W 9055   7.211  30.432   1.105 -0.1371  0.2485 -0.4337
66065W        W 9056   4.241   0.612   7.282  0.0068  0.0290 -0.2670
66066W        W 9057   2.892   2.478  10.952  0.1493 -0.4201 -0.2070
66067W        W 9058  29.759  29.406   1.390 -0.0687 -0.0655  0.1267
66068W        W 9059  20.059  21.176   5.493  0.1412 -0.3831 -0.1689
66069W        W 9060  19.824  23.103   1.452 -0.4070 -0.0680 -0.1780
66070W        W 9061   6.420   1.072   5.699  0.1360 -0.1267 -0.2655
66071W        W 9062  24.811  16.224   9.653  0.0008  0.2571 -0.1035
66072W        W 9063  27.422   4.525   2.744 -0.0042  0.0412  0.0791
66073W        W 9064   0.304   2.101  28.555 -0.0685  0.0024  0.2847
66074W        W 9065  11.656  34.591  10.323  0.1898 -0.2816 -0.1476
66075W        W 9066  30.156  26.595  15.099 -0.1513  0.0044  0.0563
66076W        W 9067  12.462   5.482  10.253 -0.2257  0.0290  0.0302
66077W        W 9068   5.647   1.511   2.960 -0.1271  0.1091 -0.1378
66078W        W 9069  17.700   8.380  15.380 -0.2724 -0.2456  0.0010
66079W        W 9070   1.409  22.530  28.801  0.1113 -0.1566 -0.2748
66080W        W 9071  11.985  12.444  22.900  0.0485  0.0450 -0.1683
66081W        W 9072   1.319   8.047   0.127  0.0734 -0.0705 -0.1608
66082W        W 9073  22.574  34.176   7.640 -0.1337 -0.2910  0.3672
66083W        W 9074   9.698  11.556   2.435  0.2180  0.5966 -0.1855
66084W        W 9075   7.535   0.106   8.037 -0.0035  0.1669 -0.0346
66085W        W 9076  11.084   1.702   1.957 -0.0089  0.1043  0.1836
66086W        W 9077  27.516  19.908  18.672 -0.3253 -0.3203  0.0053
66087W        W 9078  12.902   9.861   6.730 -0.1525  0.0763  0.0715
66088W        W 9079   1.535   5.554  23.031 -0.0380 -0.2604  0.1137
66089W        W 9080  33.954   7.631   3.453 -0.0024 -0.2268  0.1762
66090W        W 9081   7.429  33.686  25.741 -0.1154 -0.0916  0.1867
66091W        W 9082  29.319   0.873  29.146  0.1155  0.2514  0.0225
66092W        W 9083   5.484  26.585  24.674  0.0071 -0.1141 -0.1230
66093W        W 9084   1.768   1.903   4.793 -0.3155  0.0571 -0.1416
66094W        W 9085  17.239  31.385   8.277  0.1554 -0.2829 -0.2068
66095W        W 9086   8.345   1.287  17.934  0.0580 -0.2265  0.1802
66096W        W 9087   7.676  10.656  10.636 -0.3636 -0.2983 -0.1486
66097W        W 9088   8.269  34.163   8.422 -0.0725  0.0598 -0.0462
66098W        W 9089  24.150   1.149  26.635 -0.0548  0.2032 -0.1630
66099W        W 9090  20.672   2.368  27.692 -0.4809 -0.0584  0.0859
66100W        W 9091  10.848  12.948   1.048  0.2065 -0.1567  0.2546
66101W        W 9092   2.868  16.705   0.504  0.0525  0.0783  0.0482
66102W        W 9093   8.273  11.825   3.995 -0.1109  0.1332  0.0756
66103W        W 9094  26.729  22.332   4.945 -0.0703 -0.1114  0.0006
66104W        W 9095   5.557   8.407   1.258  0.1812  0.1177 -0.3056
66105W        W 9096   1.700  20.537  10.502  0.0175 -0.1012 -0.0822
66106W        W 9097  12.624  31.146   3.738 -0.3639 -0.2591  0.0709
66107W        W 9098   0.597   0.941  15.573 -0.0859  0.3847 -0.0117
66108W        W 9099  23.137   8.004   6.196 -0.0920 -0.1639  0.1312
66109W        W 9100  10.131   1.165   1.344 -0.0921 -0.0210  0.0509
66110W        W 9101  19.785  25.242  25.879 -0.4338 -0.1068  0.0834
66111W        W 9102   2.497  30.580  21.660  0.0080  0.1543 -0.2963
66112W        W 9103  13.564   7.262  27.046  0.1603 -0.0411 -0.0463
66113W        W 9104  18.229   9.899  26.016 -0.0629 -0.2644  0.1167
66114W        W 9105  31.862  11.059   2.140 -0.1329  0.0930  0.3242
66115W        W 9106  18.835  30.697   9.379 -0.1576 -0.0487  0.2701
66116W        W 9107  24.736  30.525   0.653  0.0313 -0.0608  0.3089
66117W        W 9108  26.083  11.826  24.468 -0.0715 -0.2325  0.0900
66118W        W 9109  31.699  10.315  19.309  0.0984  0.2681 -0.2736
66119W        W 9110   8.464  21.203   8.488 -0.1482 -0.1613  0.1259
66120W        W 9111   4.210  30.655   9.911  0.1722  0.2361 -0.3130
66121W        W 9112  33.390  28.266   0.675  0.0914 -0.0857 -0.2406
66122W        W 9113  33.448   4.728   7.670 -0.1284  0.1800 -0.1874
66123W        W 9114  20.500   4.024   9.015  0.0357 -0.1790  0.2203
66124W        W 9115  31.240   2.779   3.533  0.1474  0.2325 -0.0769
66125W        W 9116   1.365  26.238  27.230  0.0910  0.1615 -0.3580
66126W        W 9117  33.199   1.844   7.184  0.1656  0.2434  0.0222
66127W        W 9118   6.500   4.416  18.848 -0.5568 -0.2438 -0.2089
66128W        W 9119   5.713  24.936  19.307  0.0679  0.2597  0.1447
66129W        W 9120   6.488  11.534   0.569 -0.0248  0.0270 -0.3636
66130W        W 9121  23.794  30.632   5.275 -0.1400  0.2212  0.2387
66131W        W 9122  17.606   0.243   5.425  0.2069  0.2721 -0.2499
66132W        W 9123  13.977  27.442  26.579 -0.1883 -0.4875 -0.0313
66133W        W 9124   6.728   9.964  20.236 -0.0315  0.0390 -0.2041
66134W        W 9125  20.086   3.625   6.504 -0.1354  0.2871 -0.4540
66135W        W 9126  15.072   0.705   4.641  0.3850  0.0800 -0.2828
66136W        W 9127  21.853   6.953  25.508 -0.0799 -0.2966  0.1183
66137W        W 9128   9.748  33.833   8.056  0.1173 -0.1391 -0.1852
66138W        W 9129   7.984  15.399   0.280  0.0829 -0.1584 -0.0535
66139W        W 9130   0.179  10.470   6.304 -0.1424 -0.0381  0.0169
66140W        W 9131   7.509   9.039   5.313  0.0367  0.0868 -0.1133
66141W        W 9132  17.958   0.606   8.618 -0.3069 -0.3326 -0.0223
66142W        W 9133   2.686  12.183   4.318 -0.1297  0.2120  0.0426
66143W        W 9134  10.853  29.783  23.519  0.1830 -0.0813 -0.1004
66144W        W 9135   5.047   7.933  25.723  0.3216 -0.1080 -0.3764
66145W        W 9136  21.918  17.031   6.165  0.0286 -0.2051 -0.2520
66146W        W 9137  11.175   8.709   5.073  0.1510 -0.3306  0.0771
66147W        W 9138   2.755  33.007  19.423 -0.0157  0.0673 -0.1415
66148W        W 9139  18.879   0.527   4.993 -0.2371  0.1076  0.1968
66149W        W 9140   4.657  18.671   7.974  0.2269 -0.3150 -0.1802
66150W        W 9141   6.826  31.675   5.890 -0.2954  0.2814  0.3961
66151W        W 9142   4.514   6.868   9.485  0.0215  0.0157 -0.0872
66152W        W 9143  26.450  23.943   2.520 -0.1170  0.0767  0.0597
66153W        W 9144   6.974  13.549  10.413 -0.1139  0.3907  0.1919
66154W        W 9145   2.894  27.504   1.490  0.1100 -0.0107 -0.1806
66155W        W 9146   4.158   1.998  10.002  0.0736 -0.0718  0.3145
66156W        W 9147  25.844  15.079  27.485  0.1714 -0.0764  0.0337
66157W        W 9148  26.068  23.887  24.040 -0.0312 -0.1257 -0.1260
66158W        W 9149   8.820  25.106   3.098 -0.0261  0.0721 -0.1672
66159W        W 9150   6.273  34.428   9.454  0.1458  0.2204  0.0084
66160W        W 9151   3.464  30.152  20.800 -0.1233 -0.3284 -0.2532
66161W        W 9152  23.424  17.792   8.082  0.3685 -0.1325 -0.0415
66162W        W 9153   9.677  24.417   9.018  0.2700  0.0617 -0.0947
66163W        W 9154  33.011  24.661  26.590  0.0933  0.2721  0.1570
66164W        W 9155  24.176   7.032   3.895  0.0603  0.0027  0.3159
66165W        W 9156  18.457  25.247  26.946 -0.0534  0.0553  0.1752
66166W        W 9157  31.996  29.866   7.486  0.0926  0.0554  0.2812
66167W        W 9158   4.650  16.356   4.915 -0.0612 -0.0438 -0.0818
66168W        W 9159   1.100  32.252   1.013 -0.0525  0.0979 -0.0730
66169W        W 9160   5.529  12.750  16.636  0.0323  0.0844  0.0501
66170W        W 9161  14.500  25.759   7.179 -0.0594  0.0401 -0.2006
66171W        W 9162  15.895  18.958  22.895  0.1764  0.1254  0.2049
66172W        W 9163  34.011  14.072  11.670  0.1461  0.0452 -0.0751
66173W        W 9164  11.442  33.999   7.406 -0.1255 -0.1033  0.3223
66174W        W 9165   8.136  23.549  14.721  0.2746  0.0872 -0.1454
66175W        W 9166  11.609  32.139  19.813  0.1590 -0.1698 -0.0766
66176W        W 9167  31.309   9.151  15.162 -0.2416  0.2843 -0.0948
66177W        W 9168  15.678  20.885   2.163 -0.1832 -0.2727  0.0636
66178W        W 9169  28.562   7.279   0.467  0.0791 -0.1130 -0.0122
66179W        W 9170  34.294  26.637   4.074  0.1353  0.0362 -0.2938
66180W        W 9171  14.551  13.064   6.479 -0.1844 -0.3154 -0.1670
66181W        W 9172   9.232   6.903  16.676 -0.3222 -0.1673 -0.3402
66182W        W 9173   3.686  10.645  10.724  0.2151 -0.2643  0.4673
66183W        W 9174   3.756   0.502  22.925  0.3205 -0.3412 -0.2334
66184W        W 9175  22.037  27.393   4.527  0.0094 -0.1493  0.2360
66185W        W 9176   4.572  33.779  10.051  0.1437 -0.0560  0.0240
66186W        W 9177   5.353  33.204  19.084  0.2718 -0.0096 -0.2308
66187W        W 9178   6.152  18.617   3.814 -0.1688 -0.0342  0.0516
66188W        W 9179   8.887   4.938  28.277 -0.2755 -0.0663  0.1367
66189W        W 9180  26.347   4.689  27.404 -0.0642  0.1667  0.2492
66190W        W 9181   2.883   6.844  16.130  0.0467 -0.1102  0.3451
66191W        W 9182  26.715  30.010  23.389 -0.0221 -0.0755  0.3151
66192W        W 9183   3.718  24.588  28.644 -0.0409 -0.2154  0.2579
66193W        W 9184   6.220   4.279   4.450  0.0647 -0.0475 -0.0330
66194W        W 9185  27.180   4.854  25.981  0.0885 -0.1320 -0.2500
66195W        W 9186  30.974  25.331  18.006  0.3000  0.0910 -0.0479
66196W        W 9187  25.324  27.799  28.940 -0.1444 -0.0909 -0.1086
66197W        W 9188  20.876  31.917   4.518  0.1447  0.1233 -0.1971
66198W        W 9189   9.640   1.497  25.131  0.3531  0.2262  0.1706
66199W        W 9190  32.269   7.692   8.102 -0.0819  0.1640  0.2538
66200W        W 9191  23.877  26.100  24.817  0.1351 -0.2994  0.1984
66201W        W 9192  12.011  27.734  20.571 -0.2180 -0.0853 -0.1902
66202W        W 9193   5.195  21.653  23.893  0.1087 -0.2126 -0.1253
66203W        W 9194   3.445   7.016  25.834  0.0468  0.1115 -0.4499
66204W        W 9195   9.917   3.966   2.051 -0.1722  0.0777  0.0307
66205W        W 9196   2.512  27.035   5.915  0.0542  0.1203  0.1701
66206W        W 9197  10.788  27.782  25.272 -0.0158 -0.0305  0.3186
66207W        W 9198  10.252  22.753  22.267  0.0773 -0.2298  0.0925
66208W        W 9199   1.627   8.045  22.110  0.1398 -0.1217  0.1369
66209W        W 9200   8.346  29.920  29.018 -0.1142  0.1638 -0.1149
66210W        W 9201  15.898  23.190   6.195 -0.0152  0.2900  0.2347
66211W        W 9202  22.166  22.501   3.451 -0.0102  0.2434 -0.0582
66212W        W 9203  14.288   9.439   5.418  0.1566 -0.1069 -0.3125
66213W        W 9204  19.406  30.373  23.140 -0.2224 -0.2600  0.1543
66214W        W 9205  17.138   8.623  28.742 -0.0436  0.0464 -0.1748
66215W        W 9206   6.195   8.513  26.269 -0.0649  0.4391  0.2436
66216W        W 9207  16.727  16.116   7.245 -0.2087  0.2121 -0.2576
66217W        W 9208  22.980   3.886   4.368  0.2050 -0.3299 -0.3547
66218W        W 9209  18.725   6.132   1.559 -0.0322  0.2791  0.0512
66219W        W 9210   7.004   1.278   7.704  0.3881  0.0380  0.0930
66220W        W 9211   5.353   3.353   9.187 -0.3217  0.1157 -0.1970
66221W        W 9212  34.691   2.438  19.001  0.0605  0.0759  0.2406
66222W        W 9213   0.912  34.176  27.979  0.2529  0.0236 -0.0865
66223W        W 9214  11.647  20.088  20.909  0.0432  0.0664  0.1900
66224W        W 9215  13.462  29.961   2.760  0.1282  0.0928  0.1094
66225W        W 9216   1.610  15.090   2.174 -0.0084  0.4363 -0.0256
66226W        W 9217  16.786  27.520  26.516  0.0461  0.0462  0.1550
66227W        W 9218   4.327  26.626   7.921 -0.0618  0.1596  0.0171
66228W        W 9219  25.752   2.090  27.737 -0.0228  0.0561  0.1287
66229W        W 9220  21.440   4.468  22.113 -0.0066 -0.1030 -0.0666
66230W        W 9221   0.599   2.154   7.104  0.0942  0.0615  0.0537
66231W        W 9222   2.886  13.236  21.798 -0.0642 -0.0048  0.1378
66232W        W 9223   2.105  34.739   0.235  0.1206 -0.1209  0.0015
66233W        W 9224  15.116  23.705   0.205 -0.2307  0.3780  0.1444
66234W        W 9225  27.224   8.369  23.149  0.1484 -0.1185 -0.4491
66235W        W 9226  17.276  13.481  24.506 -0.0089  0.0379  0.0697
66236W        W 9227  15.367  12.241  24.686 -0.1889 -0.2278  0.0710
66237W        W 9228   6.506  32.674  18.360  0.3829  0.4825 -0.0541
66238W        W 9229  21.044  25.383   6.424  0.1544 -0.3582 -0.1645
66239W        W 9230   9.940   0.248   5.054 -0.0048 -0.3508  0.1038
66240W        W 9231  32.195   0.537  29.123 -0.0090  0.0495  0.2202
66241W        W 9232   9.080   7.805  22.326 -0.0043 -0.0386  0.2297
66242W        W 9233  34.582   8.168  10.744  0.0398 -0.1867 -0.0353
66243W        W 9234  32.875  12.678   9.435 -0.1673  0.3226  0.0694
66244W        W 9235   7.577  30.234   4.421  0.0952  0.0517  0.3557
66245W        W 9236   3.318   6.618  17.041  0.1756  0.0776 -0.1027
66246W        W 9237  16.307  11.353  10.194  0.0357  0.0047  0.0262
66247W        W 9238  33.203  31.010   5.948 -0.1188  0.1562  0.0564
66248W        W 9239  26.271   4.110   1.357 -0.1973 -0.0211 -0.2647
66249W        W 9240   5.246  17.814  11.389 -0.3617  0.3404  0.0888
66250W        W 9241  25.745   9.304   9.654  0.1519  0.4695 -0.0951
66251W        W 9242  16.646  12.364  25.358  0.0395 -0.0113  0.0946
66252W        W 9243  34.343   1.336   1.743  0.0259 -0.2246 -0.0269
66253W        W 9244  22.331   6.794  25.669  0.1901  0.2627  0.0626
66254W        W 9245  21.017  11.711   6.612 -0.2671  0.1451  0.0664
66255W        W 9246  15.367  31.251  28.206  0.0032  0.0880 -0.1408
66256W        W 9247  33.350   5.818  24.826 -0.0710 -0.1193  0.1315
66257W        W 9248   0.536   5.092   8.873 -0.0608  0.0756 -0.2035
66258W        W 9249   7.000  15.756  28.368 -0.1811  0.0159  0.0505
66259W        W 9250   3.531  21.044  17.459  0.0945  0.3035 -0.0380
66260W        W 9251   6.383  33.027  27.158  0.0514 -0.0829 -0.4168
66261W        W 9252  21.543  29.492   7.383 -0.1657  0.3283 -0.0114
66262W        W 9253  11.121  11.477  16.434  0.1964  0.0756 -0.4282
66263W        W 9254   8.638  11.036   9.253  0.2346  0.1669  0.2803
66264W        W 9255   4.521  12.076   5.376  0.1039 -0.4875  0.2518
66265W        W 9256   0.800  12.896   6.084  0.2149  0.1939  0.2040
66266W        W 9257  34.564  29.692   0.268  0.2925  0.0190  0.0705
66267W        W 9258  14.849  13.075  26.769  0.2183 -0.2371  0.0835
66268W        W 9259  17.162   4.293  21.323 -0.3079  0.1442  0.0627
66269W        W 9260  20.402  23.555   8.842 -0.0383 -0.0873  0.1203
66270W        W 9261  21.084  29.607  23.540 -0.2628  0.5376 -0.2827
66271W        W 9262  18.932   8.597  28.986  0.3759 -0.0876  0.4255
66272W        W 9263   2.396   7.538   7.019 -0.1173  0.2783  0.1463
66273W        W 9264  34.193  25.485   3.008  0.0525 -0.1690  0.1947
66274W        W 9265   2.810  23.130  23.202 -0.2151  0.1124  0.0537
66275W        W 9266   2.386  15.780   5.806  0.0013 -0.0628 -0.0305
66276W        W 9267   0.359   4.044  25.064 -0.3240 -0.2059  0.3453
66277W        W 9268   4.658  29.311  18.517 -0.1098  0.1404 -0.0178
66278W        W 9269  21.152  12.337  16.776  0.1277  0.0125 -0.1264
66279W        W 9270   8.693  24.651   6.826 -0.2796  0.2505  0.0673
66280W        W 9271   7.426  25.720  19.440  0.0408  0.0629  0.2326
66281W        W 9272  11.190  27.682   8.830 -0.4063 -0.0696 -0.3720
66282W        W 9273   6.171  21.138   7.833 -0.0581 -0.2653  0.0518
66283W        W 9274   8.829  34.255   1.481  0.1716 -0.1646  0.1004
66284W        W 9275   4.725  30.967   8.652  0.2498 -0.0938 -0.0453
66285W        W 9276   6.316   1.631   8.285  0.3805  0.0018  0.1624
66286W        W 9277  10.729   6.240  10.056  0.0602 -0.2757 -0.0507
66287W        W 9278   4.523  19.823   1.531 -0.1522 -0.2342 -0.2971
66288W        W 9279  10.063   4.428  27.573 -0.0161 -0.0440  0.1316
66289W        W 9280  31.050  16.413   7.979 -0.2419  0.1575 -0.4770
66290W        W 9281  13.873  29.625  14.518  0.1229 -0.1508  0.3163
66291W        W 9282   3.210  20.561  15.814  0.2938  0.0648 -0.0226
66292W        W 9283  14.329  22.850   0.822  0.2776 -0.0481 -0.1249
66293W        W 9284  15.651  33.039   6.506  0.1910  0.0243  0.0186
66294W        W 9285  29.572   6.516  22.796  0.0353 -0.1317 -0.1922
66295W        W 9286   6.962  34.149  28.932  0.2456  0.1620  0.1364
66296W        W 9287  30.965  33.823   5.266 -0.2271  0.3064  0.1464
66297W        W 9288  13.398   0.390   3.466 -0.0256 -0.2327 -0.2001
66298W        W 9289   0.020   8.916   4.647 -0.2279  0.1947 -0.2661
66299W        W 9290   6.246   6.575  28.807 -0.2259  0.0646  0.2606
66300W        W 9291  13.423  28.717   0.905  0.0000 -0.0427 -0.0559
66301W        W 9292   3.796  33.177  28.356 -0.2219  0.3492 -0.0858
66302W        W 9293  18.969   2.366  26.914  0.1659 -0.4052  0.1137
66303W        W 9294  16.443  33.705   4.442 -0.0047  0.2156 -0.1501
66304W        W 9295  17.303  13.569   1.791  0.0602  0.1520  0.1715
66305W        W 9296   5.371  12.795   3.739 -0.0476 -0.0955  0.0241
66306W        W 9297  28.336  28.195   0.580  0.0056 -0.1012 -0.0526
66307W        W 9298  11.363  16.388   0.910 -0.0441  0.0564  0.4230
66308W        W 9299   6.026  33.189  20.765  0.0060 -0.2176  0.1011
66309W        W 9300   0.302  33.522   4.097  0.2203  0.2269 -0.1459
66310W        W 9301   1.545  23.293   6.960  0.1007 -0.2185  0.0223
66311W        W 9302  33.752  31.984  21.578 -0.0533 -0.2283 -0.0475
66312W        W 9303  31.259  26.480   4.680 -0.0985  0.1127 -0.0675
66313W        W 9304  15.840  26.265  29.229  0.0772  0.0191 -0.0068
66314W        W 9305   9.593  25.770   8.996 -0.2290 -0.0333 -0.0364
66315W        W 9306   0.589  10.177  11.299 -0.0863 -0.2129  0.0960
66316W        W 9307  12.203  30.710  27.469  0.0450 -0.0270  0.1686
66317W        W 9308  23.560  19.074  18.090  0.2172 -0.1392 -0.0679
66318W        W 9309   7.544  34.470   7.719 -0.0057 -0.1407 -0.2906
66319W        W 9310  31.106  31.195   4.775  0.2384  0.1648  0.2306
66320W        W 9311  34.005   2.318   5.976  0.1452  0.2361 -0.1801
66321W        W 9312  26.751  32.577  19.408  0.0842  0.0045  0.2399
66322W        W 9313   0.436  21.243  27.017  0.0474 -0.2768 -0.0142
66323W        W 9314  32.508   7.075  28.896  0.2240  0.0744  0.4115
66324W        W 9315  27.782  26.005   2.191 -0.1276 -0.1085 -0.0846
66325W        W 9316  25.807   1.004  25.112 -0.0195 -0.1197 -0.1540
66326W        W 9317   2.772  34.300   8.985 -0.3649  0.3488  0.2422
66327W        W 9318   1.028  19.396  19.358 -0.1495 -0.1525  0.3328
66328W        W 9319  10.047  34.260   6.512 -0.1203 -0.1422 -0.2708
66329W        W 9320  11.122  29.255   3.474  0.3969 -0.0385  0.2749
66330W        W 9321  19.973  10.164  21.476 -0.0923 -0.4349 -0.2688
66331W        W 9322   9.581   9.278  28.807  0.0473  0.0870  0.2833
66332W        W 9323  34.111  10.443  10.914 -0.2539  0.0732  0.2801
66333W        W 9324  28.713   0.416  27.706 -0.0955 -0.0996 -0.0224
66334W        W 9325   7.243   8.023  24.351  0.0187  0.1577  0.1686
66335W        W 9326  20.172  14.962   1.282  0.4018 -0.1561 -0.0493
66336W        W 9327  33.866   6.041   6.946  0.1920  0.4191 -0.2762
66337W        W 9328  13.648  19.481   4.894  0.0199 -0.1480  0.0340
66338W        W 9329   6.187  20.661  23.337  0.2896 -0.0715  0.0804
66339W        W 9330   4.860  30.466   3.820 -0.1052 -0.2237  0.0758
66340W        W 9331   1.841  34.233  24.450 -0.2117  0.2128 -0.0488
66341W        W 9332  33.193  10.678   5.647 -0.0108 -0.2438 -0.2017
66342W        W 9333   5.612  15.183  10.996 -0.4051 -0.2495 -0.0531
66343W        W 9334  11.843   9.627  10.590  0.2641 -0.1381  0.0513
66344W        W 9335  18.224   9.704   1.878 -0.0952 -0.3939 -0.0636
66345W        W 9336  32.734  27.772   2.274  0.4235 -0.0948 -0.1634
66346W        W 9337  23.726  31.000   7.791  0.1472  0.2265  0.0324
66347W        W 9338  33.258  32.874  21.430 -0.2042 -0.2557  0.1232
66348W        W 9339  31.574  10.492   8.709 -0.0156 -0.0738 -0.0058
66349W        W 9340  27.031  28.209   7.851  0.0176 -0.1879 -0.0424
66350W        W 9341   3.272   6.738  15.068 -0.1643  0.1797 -0.4338
66351W        W 9342  10.507  10.438   3.499  0.2492 -0.1555 -0.3213
66352W        W 9343  32.004  23.936  21.212 -0.1891  0.0255  0.0950
66353W        W 9344   2.943  10.136   0.631 -0.1482  0.5790  0.1447
66354W        W 9345   7.743  22.616  10.890 -0.1714  0.0198 -0.1982
66355W        W 9346  19.658   7.139  14.696 -0.0136 -0.4049  0.1223
66356W        W 9347   6.671  17.150   1.904  0.2510  0.1073 -0.1579
66357W        W 9348  33.865  26.336   4.872  0.2709  0.3177  0.0827
66358W        W 9349  33.554  10.702  25.389  0.0556 -0.0242  0.0560
66359W        W 9350  13.074   2.252   7.773  0.2280 -0.0735 -0.0987
66360W        W 9351  11.963  28.264  24.397  0.1921 -0.2533 -0.0348
66361W        W 9352   8.336  29.211   3.087  0.0173  0.0768  0.2746
66362W        W 9353  12.360   8.404   3.079 -0.0709  0.1524  0.2182
66363W        W 9354  33.479  28.734   2.271  0.3139  0.0371 -0.4273
66364W        W 9355   5.948  11.195   2.931  0.1026 -0.1099  0.2771
66365W        W 9356  14.959   8.854  28.536  0.0077 -0.1763 -0.0582
66366W        W 9357   0.055   0.109   2.392 -0.0171 -0.0082  0.1124
66367W        W 9358  34.451  11.170   6.315 -0.1455  0.0038 -0.0824
66368W        W 9359  32.189  10.925  19.826  0.1935 -0.1972 -0.0381
66369W        W 9360  19.306   3.940   6.982 -0.1320  0.0843  0.2420
66370W        W 9361  11.794  21.650   5.592  0.0231 -0.2897 -0.4843
66371W        W 9362   9.416   5.980  19.524  0.1416  0.0108  0.1490
66372W        W 9363   9.760  16.213  27.723 -0.2300  0.0119 -0.1566
66373W        W 9364  12.159   1.578   7.361  0.0122 -0.0747 -0.0520
66374W        W 9365  17.163   6.340   8.723 -0.1274 -0.0712 -0.2198
66375W        W 9366  13.656  34.447   1.312 -0.1384  0.2234 -0.0907
66376W        W 9367   5.949  31.708   6.841  0.3935 -0.1809 -0.0210
66377W        W 9368  23.707  11.123  27.678 -0.2694 -0.2103 -0.1559
66378W        W 9369   1.593  33.722   5.915 -0.3452 -0.3166 -0.0231
66379W        W 9370  13.020   1.121   9.650  0.0253 -0.1017 -0.1303
66380W        W 9371   6.102  29.356   5.041 -0.1552  0.2656 -0.2206
66381W        W 9372  14.496   7.742   8.838  0.1631 -0.2281 -0.2395
66382W        W 9373  18.964   3.194  27.479 -0.3041  0.0665  0.4150
66383W        W 9374  27.320   4.073   7.636  0.2386  0.0044 -0.0326
66384W        W 9375  28.635  13.362   0.517 -0.2671 -0.1015  0.1775
66385W        W 9376  10.798  14.312   5.102  0.0419 -0.0722 -0.0694
66386W        W 9377  27.216   1.403   4.461  0.0201 -0.1159 -0.0751
66387W        W 9378   4.449  10.497   2.400  0.0205  0.4109  0.2289
66388W        W 9379   4.645  12.786  21.194  0.0887 -0.1721  0.2013
66389W        W 9380  13.787  31.968   4.022 -0.0841  0.1240 -0.1321
66390W        W 9381   4.446  27.731   2.062  0.0215 -0.3293 -0.1295
66391W        W 9382  21.701  34.045  27.378 -0.2975 -0.0005 -0.0441
66392W        W 9383  25.203   2.195   6.476  0.1228 -0.0801  0.1879
66393W        W 9384  19.253   6.047  24.536  0.2272  0.1475  0.1191
66394W        W 9385  34.686  23.910   2.268 -0.2594 -0.0314 -0.1374
66395W        W 9386  33.357  34.403  20.154 -0.0682 -0.0534 -0.3512
66396W        W 9387   5.098   9.584   6.541 -0.0486 -0.0860  0.2473
66397W        W 9388   9.625  26.483   6.314  0.1301 -0.2315 -0.0379
66398W        W 9389   9.973   3.307   7.512  0.0570 -0.3516 -0.0390
66399W        W 9390   8.269   8.455  14.386  0.1542 -0.1773  0.0517
66400W        W 9391   8.402   1.106   5.179 -0.0285  0.0262  0.2283
66401W        W 9392   3.274  13.697   0.185 -0.2596 -0.0038  0.1117
66402W        W 9393  12.136  19.978   4.241 -0.2191 -0.2265 -0.1137
66403W        W 9394  26.197   2.696   7.195  0.0045 -0.2258 -0.0890
66404W        W 9395  26.736  29.773   1.358  0.0880  0.2702  0.1625
66405W        W 9396  13.267  34.516   2.089  0.0582 -0.1140 -0.0618
66406W        W 9397  10.487  23.774   1.416 -0.0898  0.0322  0.3875
66407W        W 9398  30.672  29.544  21.308 -0.0075  0.2098  0.3488
66408W        W 9399   0.580  32.697   9.571  0.0476  0.2174  0.4105
66409W        W 9400   5.358   5.427   5.052  0.1001  0.1567  0.2825
66410W        W 9401  17.169  33.185  23.785 -0.2332 -0.1995  0.0551
66411W        W 9402  15.998   4.532   3.578 -0.0323  0.1639 -0.1068
66412W        W 9403  13.614   8.401  26.261 -0.1810 -0.2424  0.1166
66413W        W 9404   3.713  28.865   5.487 -0.1678 -0.0814 -0.2634
66414W        W 9405  32.734  12.067  24.955 -0.0911 -0.0534  0.3732
66415W        W 9406   2.787  28.719   4.257  0.1114 -0.1869 -0.1039
66416W        W 9407  21.927  33.358   2.045  0.3351  0.1985 -0.1408
66417W        W 9408   1.410   7.528   2.367 -0.1635  0.0110  0.3401
66418W        W 9409   4.549  31.247   2.625 -0.3299 -0.0726  0.1765
66419W        W 9410  17.732  32.990  27.615 -0.0115  0.0907 -0.2805
66420W        W 9411  12.370  26.698  28.611  0.1614 -0.3071 -0.1789
66421W        W 9412  27.457  28.717   1.846  0.1483 -0.1012  0.1973
66422W        W 9413   6.799  10.772   3.265  0.2151  0.2555  0.2947
66423W        W 9414   2.981  34.568  19.139 -0.3020  0.1521  0.2717
66424W        W 9415  24.967  14.352   2.079 -0.0296  0.0666  0.2844
66425W        W 9416  10.588   2.526  22.601 -0.1795  0.1224  0.1733
66426W        W 9417  29.869  23.786   4.162 -0.1881  0.2396  0.3795
66427W        W 9418  19.619  12.005  26.838  0.3799 -0.2540  0.0694
66428W        W 9419   5.664  29.320   0.967  0.3002 -0.2806 -0.0588
66429W        W 9420   5.673  32.900  16.739 -0.0709  0.1331  0.4309
66430W        W 9421   6.925  31.348  17.368 -0.1278 -0.0991  0.3893
66431W        W 9422   3.024   0.574  26.167  0.0394  0.1478  0.3290
66432W        W 9423  33.898   7.557   0.140 -0.0011  0.1481  0.1705
66433W        W 9424  15.557   6.097  19.477  0.0850 -0.2212 -0.1662
66434W        W 9425  30.665   1.187  17.728  0.1791 -0.1809 -0.2845
66435W        W 9426  20.800  11.086  28.801  0.4218  0.3044  0.2192
66436W        W 9427  28.365   1.199   9.035  0.0431  0.1773 -0.3325
66437W        W 9428   3.672  22.676   3.826 -0.0684 -0.0927  0.2536
66438W        W 9429  31.449  16.543  20.857 -0.2641 -0.0482 -0.0550
66439W        W 9430  19.938   2.069   2.935 -0.1521 -0.0385 -0.1011
66440W        W 9431  15.693  30.480   0.980 -0.1715 -0.0537  0.1307
66441W        W 9432  30.302  25.306   9.004  0.0263  0.2085  0.2341
66442W        W 9433  10.553   8.698  17.793 -0.0014  0.0084  0.0682
66443W        W 9434   5.398  29.242  24.920 -0.1821 -0.2395  0.0353
66444W        W 9435  26.667  17.427  21.047 -0.5056 -0.0898 -0.0927
66445W        W 9436   9.350  17.465   4.032 -0.1488  0.0583 -0.1968
66446W        W 9437  29.794   4.049  14.732 -0.1332 -0.1074 -0.3159
66447W        W 9438  16.989  28.501  27.839 -0.2137  0.0550  0.2649
66448W        W 9439   5.140  13.398   3.126 -0.2096  0.1601 -0.2713
66449W        W 9440  12.098  16.623  23.531 -0.0230  0.0813 -0.0308
66450W        W 9441  34.482  34.367  27.707 -0.1821 -0.5607  0.1299
66451W        W 9442   2.647   0.315   8.168  0.5249  0.1551  0.1116
66452W        W 9443  12.622   0.920   8.444 -0.0796  0.0685 -0.0517
66453W        W 9444   7.919   3.753   8.961  0.0822  0.0684 -0.2114
66454W        W 9445   1.543   9.584   2.268  0.2991  0.0953  0.1016
66455W        W 9446  34.033  10.809   5.456 -0.0399  0.1599  0.0315
66456W        W 9447  20.444  29.599   1.772  0.0464  0.1370 -0.1640
66457W        W 9448   9.753   3.124   3.699  0.0213  0.0389  0.0830
66458W        W 9449  33.832   0.407  22.377 -0.1267  0.0089 -0.1471
66459W        W 9450   9.009  26.784  27.442 -0.4495 -0.2141 -0.1720
66460W        W 9451  19.260  32.958   0.288  0.1038 -0.2500 -0.1431
66461W        W 9452   7.575  28.851   9.718  0.0565 -0.0099  0.0883
66462W        W 9453  11.942   0.462  28.473 -0.2255 -0.0420 -0.3591
66463W        W 9454   1.727  15.757   6.792  0.1142 -0.3377  0.1691
66464W        W 9455  31.721   7.947  20.309 -0.0013 -0.1777 -0.0365
66465W        W 9456   4.364  11.361  10.481  0.2569  0.1030  0.2961
66466W        W 9457   4.376  17.431   1.455  0.0258  0.0394 -0.0663
66467W        W 9458  29.882  12.475  10.267  0.1300  0.0256  0.0268
66468W        W 9459   4.571   9.452  29.199 -0.1497 -0.1963  0.0711
66469W        W 9460   2.291  23.007  27.236  0.1533  0.0788 -0.3537
66470W        W 9461   3.970  30.857   2.458 -0.2186  0.2074 -0.1330
66471W        W 9462   0.927  34.329  20.131  0.1199 -0.0399  0.0025
66472W        W 9463   7.122   7.130  28.018  0.0119 -0.1674  0.0637
66473W        W 9464  13.460  19.862  23.141 -0.1763  0.0145 -0.1067
66474W        W 9465   9.614  25.319  26.367  0.2123 -0.0216  0.3252
66475W        W 9466  26.494   4.813  24.664 -0.1510 -0.2986  0.0678
66476W        W 9467  22.535   7.840   2.558 -0.1360 -0.1376 -0.0214
66477W        W 9468  21.258  18.166  25.733 -0.0543  0.4110 -0.1015
66478W        W 9469   5.303  13.572  28.518 -0.0280 -0.0419  0.3567
66479W        W 9470   2.470  14.549  27.105 -0.1809  0.2128 -0.0597
66480W        W 9471  29.648  11.821   8.119  0.1634  0.1324  0.2254
66481W        W 9472  17.484  24.782  23.797 -0.0626 -0.0370  0.1976
66482W        W 9473   5.439  23.713  17.060  0.2964  0.3882 -0.0757
66483W        W 9474  15.540  32.739  26.228  0.0229  0.2469 -0.0223
66484W        W 9475  17.422   8.485   7.116 -0.1281 -0.2031 -0.3538
66485W        W 9476  10.227  31.404   8.570  0.0881  0.0522 -0.1484
66486W        W 9477  30.681   1.457   7.655 -0.0377 -0.1698  0.1298
66487W        W 9478  23.459  26.778   9.600 -0.3790  0.2806  0.1253
66488W        W 9479   8.219  34.166   5.339 -0.0628 -0.0620 -0.1303
66489W        W 9480   3.999  17.319   6.159  0.1206  0.0605 -0.1283
66490W        W 9481   5.324  26.961  28.287 -0.1150 -0.0332  0.0898
66491W        W 9482  11.781  22.717   1.321 -0.1179 -0.0990  0.2000
66492W        W 9483  29.884  21.067  10.592  0.2795 -0.0909 -0.2529
66493W        W 9484  30.215  12.594   7.369 -0.2181  0.6253 -0.1801
66494W        W 9485  31.535  10.668  28.617 -0.1335 -0.3051 -0.0437
66495W        W 9486  27.658   1.037   9.175 -0.2039 -0.1699 -0.0307
66496W        W 9487  27.893  33.609   8.446  0.4051 -0.1311  0.4190
66497W        W 9488   8.124  21.718   1.430 -0.1807  0.3177 -0.0917
66498W        W 9489   4.293  27.286  24.559 -0.1461 -0.0901 -0.2510
66499W        W 9490   5.809  20.051   8.517 -0.0609  0.1942 -0.1790
66500W        W 9491  18.271  33.533   3.951 -0.0377 -0.1672  0.3239
66501W        W 9492   6.453  29.556   3.650 -0.1742 -0.2130  0.1051
66502W        W 9493   1.822  31.299   6.857  0.6630  0.1874 -0.0027
66503W        W 9494  26.693  11.452   5.250 -0.0275 -0.0070 -0.1725
66504W        W 9495   2.093  28.301   8.584  0.2024 -0.1034  0.1353
66505W        W 9496  17.922   9.362   1.048 -0.0469 -0.1995  0.0301
66506W        W 9497   9.266   0.561   9.693  0.0955 -0.0191 -0.2439
66507W        W 9498   3.208  13.282  25.403  0.3029 -0.3067 -0.1918
66508W        W 9499   1.930  13.763  28.757  0.3646  0.1810  0.4532
66509W        W 9500  29.248  28.979   8.279  0.0406  0.1941  0.1093
66510W        W 9501   5.643  24.405   2.189 -0.0740 -0.0578 -0.0861
66511W        W 9502  12.044   1.723  25.525 -0.1018  0.0119  0.0823
66512W        W 9503  24.620   3.044   2.526  0.1155 -0.1801 -0.5039
66513W        W 9504  24.692  10.403   0.083  0.2456  0.1462 -0.0866
66514W        W 9505   1.667  19.170   2.847 -0.0364  0.3135 -0.0946
66515W        W 9506  17.530   6.067   9.294  0.5920  0.1220  0.1291
66516W        W 9507   4.711   8.779  24.669 -0.0922 -0.0128 -0.1469
66517W        W 9508  27.046  23.365  24.281  0.2001 -0.1203  0.0271
66518W        W 9509  10.926  31.240   6.638  0.0685  0.1520  0.2105
66519W        W 9510  18.281  26.221   8.303 -0.0185 -0.0139 -0.1197
66520W        W 9511  32.731  26.372   1.840  0.0478 -0.1607  0.0024
66521W        W 9512   6.610  32.938  15.750 -0.1464  0.1440 -0.0952
66522W        W 9513  15.570  12.238  25.476 -0.3876  0.2242 -0.1445
66523W        W 9514  13.937  13.442   5.163  0.0782  0.1165 -0.0826
66524W        W 9515  28.621   1.097   5.663 -0.1702  0.0019  0.3204
66525W        W 9516  31.317  29.684  21.152  0.1247 -0.4549  0.0557
66526W        W 9517  34.565   8.460   2.257 -0.0740 -0.2208 -0.4348
66527W        W 9518   3.528   4.036  27.636  0.2754  0.0221  0.0485
66528W        W 9519   3.951  11.023  27.836 -0.0188  0.0475 -0.1225
66529W        W 9520  19.842  29.809   8.224  0.3691 -0.3660  0.0237
66530W        W 9521  10.725   3.434   6.376  0.2762 -0.0083 -0.0490
66531W        W 9522   7.109  30.589  26.229  0.2361  0.0451  0.0233
66532W        W 9523  18.320  17.556  25.795  0.0269  0.1664 -0.1573
66533W        W 9524   0.215  18.789  25.295 -0.0601 -0.0288  0.2292
66534W        W 9525   5.402  16.429  21.809  0.1146  0.3114  0.0373
66535W        W 9526   2.028   3.111  27.194 -0.0838  0.1367  0.2717
66536W        W 9527  11.072   8.953   8.277 -0.0437 -0.1138 -0.1138
66537W        W 9528  15.845  12.075   1.251 -0.3598  0.0174 -0.0128
66538W        W 9529  30.829   8.778   9.003  0.1223 -0.0207  0.1986
66539W        W 9530   2.399  13.186  21.871 -0.0474  0.0624  0.1661
66540W        W 9531   1.611   1.856   6.375 -0.2977  0.2774 -0.1106
66541W        W 9532  13.724  15.822   8.758 -0.1022 -0.1752  0.0266
66542W        W 9533  32.678   4.228  28.868  0.1928  0.0533 -0.3509
66543W        W 9534   9.000   4.291   6.373 -0.2767  0.0130  0.1563
66544W        W 9535  11.527   9.092   9.391  0.1225 -0.0750 -0.0794
66545W        W 9536   0.978  18.887   9.115  0.1570 -0.2615 -0.0281
66546W        W 9537   1.296  11.068   9.089  0.2180 -0.1058  0.0516
66547W        W 9538  22.780  29.182  12.807 -0.1158 -0.0773 -0.0505
66548W        W 9539   6.387  33.923   7.803  0.2411 -0.2067 -0.2888
66549W        W 9540  11.132   2.718  26.824  0.0500 -0.1849 -0.3821
66550W        W 9541  13.324  10.295  25.975  0.3137 -0.0815 -0.1255
66551W        W 9542  29.475  12.216  18.544 -0.1314 -0.0982 -0.2227
66552W        W 9543  32.087  22.056   0.598 -0.3392 -0.2879 -0.0572
66553W        W 9544  13.797   8.544  27.175  0.0096  0.0764  0.0119
66554W        W 9545   9.762  26.506   8.071 -0.1111 -0.2603 -0.2052
66555W        W 9546  14.447   5.392   6.595 -0.5255  0.2486 -0.5026
66556W        W 9547   6.647  32.854   9.804  0.1593 -0.3710  0.0492
66557W        W 9548  10.661  32.779  24.494  0.3379 -0.0413 -0.2191
66558W        W 9549  15.567  10.643   9.269 -0.2159 -0.2879 -0.0265
66559W        W 9550   7.968  29.279   6.030 -0.0820  0.0002 -0.1330
66560W        W 9551   4.286   4.914   2.006 -0.2041  0.1470 -0.0142
66561W        W 9552   0.587   4.231   7.907 -0.0187 -0.2435  0.3018
66562W        W 9553   2.311   7.725  25.834 -0.2176  0.1807 -0.1516
66563W        W 9554  12.214  32.245   8.351  0.0695 -0.2548 -0.1804
66564W        W 9555   5.269   6.910  21.361  0.1187  0.0456 -0.0167
66565W        W 9556   8.307  30.112   4.144  0.0218  0.2773  0.1704
66566W        W 9557   5.892  33.071   3.840  0.4840 -0.1403 -0.0195
66567W        W 9558  31.362   7.026   9.122 -0.0427 -0.3011 -0.2589
66568W        W 9559  11.688  22.850   5.003  0.0092 -0.3728  0.0033
66569W        W 9560  24.209  13.261   9.344  0.1460  0.1959  0.0436
66570W        W 9561   9.003  23.440   7.063  0.1710 -0.0260 -0.2632
66571W        W 9562  30.093  34.318   1.509 -0.0615 -0.3271  0.5416
66572W        W 9563  13.895  10.159   1.353 -0.0124 -0.0350  0.1904
66573W        W 9564   7.839  31.172  25.343 -0.1037 -0.0386  0.2187
66574W        W 9565   5.791  17.137  18.775 -0.2634 -0.1383 -0.0953
66575W        W 9566   4.813  12.662   5.611 -0.1537 -0.2539 -0.2136
66576W        W 9567  27.821  18.749  21.972  0.1073 -0.1684 -0.0450
66577W        W 9568  17.317  15.179   8.702 -0.2210 -0.0253 -0.0854
66578W        W 9569   0.873  32.568   3.006 -0.0285  0.2864 -0.0346
66579W        W 9570   5.662  33.570   1.203  0.0260  0.1227  0.0034
66580W        W 9571  24.722   1.475   9.100 -0.1626 -0.0253  0.1592
66581W        W 9572  10.321  27.305   7.270 -0.4953 -0.0649 -0.1415
66582W        W 9573  10.876  26.274  27.183  0.0479 -0.0318 -0.0951
66583W        W 9574  32.819  12.952   4.974 -0.0034  0.0133 -0.0306
66584W        W 9575  13.995  12.086  25.978  0.0779 -0.2459  0.1646
66585W        W 9576   3.789   8.915   2.904  0.0686  0.1249 -0.5368
66586W        W 9577  15.361   1.328   6.744  0.0346  0.0018  0.1732
66587W        W 9578   4.864  29.197   6.089 -0.0762 -0.1202 -0.1070
66588W        W 9579  11.480  25.265   9.714  0.0457  0.1730  0.1728
66589W        W 9580   6.722   6.724   7.617 -0.0548  0.3085 -0.1136
66590W        W 9581  19.586  22.200  19.050  0.0136  0.2898 -0.1529
66591W        W 9582  18.442  30.776   8.670 -0.1173 -0.1126 -0.2108
66592W        W 9583   1.075  28.941  16.799  0.3389 -0.1970 -0.3075
66593W        W 9584  28.614   2.916   3.101 -0.0414 -0.2075  0.0378
66594W        W 9585  28.427  31.089  24.528 -0.0229 -0.1025 -0.1982
66595W        W 9586   0.370  14.825   8.409  0.1644  0.1808  0.0406
66596W        W 9587   6.068   9.189   6.961 -0.1418 -0.4260  0.0980
66597W        W 9588  11.066  18.003  28.255  0.0051  0.0213 -0.1330
66598W        W 9589  24.704  14.888  28.244  0.0812  0.2796 -0.0306
66599W        W 9590  28.239  16.710   6.236 -0.3938 -0.0475 -0.0648
66600W        W 9591  14.444  14.143   0.896  0.0947 -0.0144 -0.1892
66601W        W 9592   0.658   4.390   6.621  0.1730 -0.0787  0.3521
66602W        W 9593   9.959  25.727   0.406  0.2116 -0.0349 -0.1768
66603W        W 9594  33.798   4.114   8.957  0.2202  0.1328  0.1685
66604W        W 9595  14.363  29.583   9.304  0.0700  0.4941  0.2957
66605W        W 9596  24.135  26.431  29.064 -0.1584 -0.0154  0.1904
66606W        W 9597  10.039  28.268   4.432  0.2150 -0.0129  0.1654
66607W        W 9598  14.753   1.024   3.090 -0.1824  0.1516  0.0164
66608W        W 9599  30.595   6.541   1.391 -0.4654 -0.1754 -0.0946
66609W        W 9600  32.303   0.186   5.138  0.0443 -0.0413  0.0939
66610W        W 9601  17.977  33.369  24.937  0.0543  0.1824 -0.0075
66611W        W 9602   3.956  12.500   0.568  0.1027  0.0305 -0.0514
66612W        W 9603  23.206  24.629   6.781  0.1352  0.3885  0.1279
66613W        W 9604  28.160  10.655  22.812 -0.0632 -0.2474  0.0606
66614W        W 9605  33.592  19.923  10.724  0.1108  0.1362  0.0472
66615W        W 9606  14.906  30.775  24.961  0.2475  0.1906 -0.1190
66616W        W 9607  27.880  24.648  13.977  0.0153 -0.2103  0.2579
66617W        W 9608  10.845  27.379   0.371  0.0697 -0.0928  0.1809
66618W        W 9609   2.314   5.284   5.847  0.1985  0.1532  0.0348
66619W        W 9610  14.721   8.865   6.612  0.2268  0.0934  0.0370
66620W        W 9611   9.430   6.104   2.789  0.0759  0.0571  0.1857
66621W        W 9612   4.483  10.475  26.246  0.0925 -0.0936 -0.3210
66622W        W 9613   7.426  22.437   1.059  0.0954 -0.0770  0.2555
66623W        W 9614   3.991  33.454  22.771  0.1227  0.0787 -0.2737
66624W        W 9615  33.010  10.269  17.846 -0.2008 -0.0785 -0.0220
66625W        W 9616  28.634  14.498  28.299 -0.0626  0.0668  0.0295
66626W        W 9617  18.079  24.731  18.443 -0.0592  0.0547 -0.0360
66627W        W 9618   1.367   3.825  11.023 -0.4129 -0.0183  0.0408
66628W        W 9619   4.338  10.896   0.992  0.1768 -0.4391 -0.1550
66629W        W 9620  17.609  27.603   7.303  0.1012 -0.0681 -0.0406
66630W        W 9621  18.204  32.075  10.441  0.2848 -0.2149 -0.3484
66631W        W 9622   1.868  27.840   9.859 -0.0221  0.0969 -0.0560
66632W        W 9623   8.966  12.900   3.359  0.3163  0.0811 -0.0712
66633W        W 9624  31.623  33.092  18.770 -0.0423  0.2573 -0.2324
66634W        W 9625  31.989   9.681   7.218 -0.3809 -0.2528 -0.6268
66635W        W 9626   0.967  18.058   3.682 -0.1421  0.1152  0.3007
66636W        W 9627  10.910  29.283   4.898  0.3470  0.0053  0.2722
66637W        W 9628  22.501  13.518   8.232  0.1176  0.2859  0.3036
66638W        W 9629   4.394  32.882   7.137  0.1921 -0.3026 -0.0728
66639W        W 9630  33.002  11.306  19.617 -0.1037 -0.0568 -0.0598
66640W        W 9631  32.526  11.392  24.830  0.0144  0.0501  0.2120
66641W        W 9632  21.030  31.286   3.211  0.2161  0.1762 -0.0984
66642W        W 9633   4.898   3.882   9.147  0.0142 -0.2099 -0.0844
66643W        W 9634  13.698   6.864  23.994 -0.1826  0.0629 -0.0725
66644W        W 9635   9.716  25.075  28.646 -0.0335  0.1926  0.0927
66645W        W 9636  31.786   0.921  22.575  0.2382 -0.2057 -0.4111
66646W        W 9637   1.937   1.584  10.255 -0.0714 -0.3486  0.0981
66647W        W 9638   2.299  33.645   7.002  0.0401 -0.2316 -0.3415
66648W        W 9639   4.367   0.476   5.159 -0.0789  0.2537 -0.0439
66649W        W 9640   2.313   3.015   8.504 -0.4868 -0.4236 -0.1040
66650W        W 9641   9.875  34.219  10.291  0.0062 -0.0212 -0.0438
66651W        W 9642  22.837  22.792  23.500  0.1892 -0.2418 -0.3878
66652W        W 9643  24.777   9.064   9.314 -0.2337 -0.2298 -0.0926
66653W        W 9644   3.934  29.998   7.012  0.1868 -0.0279 -0.2770
66654W        W 9645   8.624  27.699   0.098 -0.1407 -0.1052  0.0750
66655W        W 9646   2.346  32.615   8.546 -0.0666 -0.1019 -0.3903
66656W        W 9647   8.345  30.106   3.640  0.2802 -0.5092 -0.0475
66657W        W 9648  14.825  10.308   7.838 -0.2064 -0.1497  0.2707
66658W        W 9649  23.694  17.083   7.656 -0.1773 -0.0709 -0.0119
66659W        W 9650   9.674  28.335   8.077  0.0907  0.3024  0.4273
66660W        W 9651  13.130  24.606  10.442 -0.1397 -0.1941  0.1435
66661W        W 9652  32.006  17.649  23.581 -0.0414 -0.0677  0.2648
66662W        W 9653  10.096  25.378  26.216 -0.2855  0.2775  0.0592
66663W        W 9654  13.115  32.482   4.628  0.0864 -0.0888 -0.2344
66664W        W 9655  23.047  32.823   8.249 -0.1973  0.0063 -0.1202
66665W        W 9656  13.084   5.460   4.013  0.1855 -0.1161 -0.2624
66666W        W 9657  10.442  25.452   2.372  0.0341 -0.0220  0.1699
66667W        W 9658  24.166   1.435  17.383  0.0620  0.3409 -0.0200
66668W        W 9659   9.032  31.840   3.263  0.1971  0.0602  0.0864
66669W        W 9660  18.830   1.988   5.077  0.0117 -0.0305  0.2096
66670W        W 9661  13.440  15.231   0.061 -0.2693 -0.1573 -0.0501
66671W        W 9662   9.699   2.624  22.903 -0.2558 -0.0809 -0.0109
66672W        W 9663   3.643  13.974   6.730  0.1038  0.0102  0.0189
66673W        W 9664   9.809   3.249   3.198 -0.1003  0.0843  0.0814
66674W        W 9665  33.490  15.115   9.235  0.2025  0.0990  0.2432
66675W        W 9666  10.761   7.095  10.050  0.3771 -0.1121 -0.4031
66676W        W 9667   3.318  18.943  10.057 -0.2147  0.0155 -0.1605
66677W        W 9668  19.827  33.565   6.228  0.3624 -0.0982 -0.1363
66678W        W 9669   7.328   5.617   2.787 -0.2174 -0.0095 -0.2005
66679W        W 9670  18.767   2.883   4.198  0.1524  0.0729 -0.0803
66680W        W 9671  34.403  18.558   2.563  0.1008  0.0807 -0.1200
66681W        W 9672   9.865   0.326   3.638 -0.0232 -0.3077 -0.2174
66682W        W 9673  17.165   0.850   9.258 -0.0815 -0.1248  0.2809
66683W        W 9674   6.473   4.948   1.934  0.0779 -0.0101 -0.2696
66684W        W 9675  10.484   5.938   5.422 -0.2439  0.2202 -0.2048
66685W        W 9676  13.721  20.414   0.900 -0.2147 -0.0550 -0.0189
66686W        W 9677   0.221   3.774   8.502  0.2794  0.1377 -0.0481
66687W        W 9678  34.580  22.101   4.550  0.0644 -0.0123  0.2191
66688W        W 9679  11.182  32.014  20.474 -0.2365 -0.2040  0.2753
66689W        W 9680  23.609   2.394   5.720  0.2484 -0.2103  0.2236
66690W        W 9681   2.407   3.704  27.493  0.0512  0.3215  0.2277
66691W        W 9682   2.800  18.660  22.633 -0.0678  0.1332  0.2711
66692W        W 9683  15.298   5.973  28.091  0.3337  0.0047  0.3889
66693W        W 9684  13.039   8.630  21.306  0.1355  0.0740  0.0381
66694W        W 9685   7.834  29.264  25.083  0.3129 -0.3418 -0.3082
66695W        W 9686   1.337   8.887   8.424 -0.1908 -0.0334 -0.0883
66696W        W 9687  29.937  10.132  28.966  0.1331  0.2455  0.3700
66697W        W 9688   3.282  16.821   6.032 -0.2779  0.2281  0.0181
66698W        W 9689  12.963   7.292  24.225  0.0028  0.0279 -0.0899
66699W        W 9690  14.659   0.015   4.599  0.0934  0.1279  0.1932
66700W        W 9691   4.586  23.521  27.647 -0.0938 -0.2829 -0.0363
66701W        W 9692  10.760  26.521   8.345  0.0226  0.1692 -0.1816
66702W        W 9693  18.090  14.724  28.945  0.0863  0.2292  0.0520
66703W        W 9694  19.709   3.081   8.066  0.0847  0.0728 -0.2507
66704W        W 9695  18.690   2.245   6.616 -0.0305 -0.2763  0.0162
66705W        W 9696  25.936  31.223   4.887  0.0650 -0.3294  0.0198
66706W        W 9697  33.095  26.796  20.860 -0.1969  0.0827  0.3052
66707W        W 9698   5.913   2.448   6.286 -0.0368  0.1296 -0.1956
66708W        W 9699  28.930   0.089  16.647  0.3105  0.2705 -0.0603
66709W        W 9700  20.213  10.651   1.273 -0.4146 -0.2752  0.1247
66710W        W 9701  17.633  13.460  27.736  0.1765 -0.2723  0.1955
66711W        W 9702  23.582  26.036   6.486 -0.0159 -0.1524  0.2089
66712W        W 9703  24.803  17.707  20.813  0.6464  0.4005  0.0944
66713W        W 9704  20.847  15.070   5.693  0.0380 -0.1588  0.1061
66714W        W 9705   8.792  18.475   0.906  0.3709  0.0775  0.0744
66715W        W 9706  11.924  31.053   9.053  0.3918  0.2720 -0.0433
66716W        W 9707   2.898   6.158  11.794 -0.0636 -0.1615  0.1045
66717W        W 9708  10.976   4.783   4.403  0.1349 -0.1457  0.0673
66718W        W 9709   0.947  33.695  26.694  0.0802  0.0288  0.1010
66719W        W 9710   1.354   6.161   5.938 -0.4303 -0.0768  0.1942
66720W        W 9711   0.750   9.541   7.737  0.0889  0.0566 -0.2076
66721W        W 9712   2.441   6.333   4.774  0.2927 -0.2144  0.2772
66722W        W 9713  13.598  25.191   4.488  0.3604 -0.0007  0.2269
66723W        W 9714   7.743   5.805  21.053 -0.0878  0.1237 -0.1818
66724W        W 9715  31.300   4.516   9.274 -0.1006  0.0565 -0.2461
66725W        W 9716   6.693  22.813   3.428 -0.0359  0.0895 -0.1244
66726W        W 9717   5.967  21.739  26.797  0.0466 -0.2252  0.0282
66727W        W 9718  12.212   2.485   7.807  0.0091 -0.2856  0.0015
66728W        W 9719   5.368   3.723  28.930  0.1442  0.1478 -0.3308
66729W        W 9720  21.328   9.656   5.627  0.0828  0.0678 -0.0119
66730W        W 9721   3.819  30.179  27.141 -0.1707  0.1731 -0.1603
66731W        W 9722   6.960  33.742  21.134 -0.1066  0.0712 -0.1483
66732W        W 9723  20.902   3.946   4.415 -0.0902 -0.1962  0.0327
66733W        W 9724  16.297   4.391   2.295  0.1879 -0.0295 -0.0257
66734W        W 9725  24.257  12.214   8.472 -0.4700  0.0592 -0.0908
66735W        W 9726  32.495  32.843  27.461 -0.0334  0.0785 -0.0270
66736W        W 9727  13.201   5.832   9.838 -0.0947  0.0890  0.1536
66737W        W 9728   8.922   6.187   4.932 -0.0946  0.1084  0.1242
66738W        W 9729  30.115   4.973  26.344  0.1784 -0.3968  0.1144
66739W        W 9730   7.298  29.788  22.906  0.0661 -0.1096 -0.0363
66740W        W 9731  27.076  34.027   3.503 -0.2546 -0.0454 -0.0823
66741W        W 9732  27.196  33.639   6.060 -0.2312  0.0112  0.1984
66742W        W 9733  32.735   8.235  10.266 -0.1340 -0.0827  0.1848
66743W        W 9734  16.147   8.011  28.338  0.0151  0.0902  0.2715
66744W        W 9735  15.827   4.295  10.261 -0.3008  0.1879  0.0684
66745W        W 9736  15.059   3.849  16.706  0.0197  0.0389 -0.4440
66746W        W 9737  10.728  11.964  10.684  0.3629 -0.1396 -0.1440
66747W        W 9738  16.017  27.573   0.390  0.1712 -0.0656  0.0940
66748W        W 9739  23.072   8.870   3.730  0.1363 -0.0307  0.1055
66749W        W 9740   9.926  11.194   3.342 -0.4092 -0.0991 -0.1143
66750W        W 9741  33.478   6.348  27.108 -0.3957  0.1997  0.1912
66751W        W 9742  19.774   6.301   4.274  0.1035  0.3772  0.0489
66752W        W 9743   0.948  25.932   7.898  0.3281  0.3021 -0.1354
66753W        W 9744   6.099  15.172   5.213  0.2641  0.0975  0.2532
66754W        W 9745  12.995  12.538  22.832  0.2186  0.0561  0.2664
66755W        W 9746   0.452  22.048  28.415 -0.0653  0.2072  0.0602
66756W        W 9747   6.573  28.547   2.803 -0.2750  0.2605 -0.1274
66757W        W 9748  31.741   0.570   7.406  0.3703 -0.3033  0.0223
66758W        W 9749  17.334  25.232   2.493  0.0955 -0.0385  0.1893
66759W        W 9750   1.130   6.071   2.177  0.4422 -0.0218 -0.0748
66760W        W 9751  19.492  21.557  28.432 -0.0362 -0.0136  0.1141
66761W        W 9752   9.971   0.703   7.110 -0.1848 -0.1531  0.1217
66762W        W 9753  14.054  18.600   7.408 -0.1698 -0.0850  0.0032
66763W        W 9754  16.448  21.500   4.105  0.0725 -0.3010 -0.1712
66764W        W 9755  11.714   6.816   9.261 -0.0262 -0.0202  0.0184
66765W        W 9756   4.307  14.611   1.701  0.0465 -0.3036 -0.0484
66766W        W 9757  34.232  12.250  18.370 -0.0699 -0.0219  0.2225
66767W        W 9758  11.559  21.228   5.939 -0.0293 -0.3429 -0.1815
66768W        W 9759   5.554  26.406   8.817 -0.0543  0.3819 -0.0750
66769W        W 9760  16.083  13.567  14.594 -0.2391 -0.0320 -0.0938
66770W        W 9761  31.551  27.515   6.485 -0.1380 -0.0251 -0.0794
66771W        W 9762   7.565  24.401   3.069  0.0268 -0.0210 -0.1216
66772W        W 9763   6.863  29.755   7.058 -0.5430  0.0738 -0.2378
66773W        W 9764  14.721  19.887   9.515  0.0164  0.6301  0.1033
66774W        W 9765   8.755  31.436   3.431  0.0530  0.1366  0.0502
66775W        W 9766  33.617   3.574   6.125 -0.1192  0.1168 -0.0884
66776W        W 9767   4.450  28.199  25.726  0.1829 -0.2068  0.2420
66777W        W 9768  15.414   2.543   1.148 -0.0687  0.1712 -0.0392
66778W        W 9769  27.252  11.191   1.231  0.2000 -0.2574  0.0488
66779W        W 9770   7.770  33.576   5.876 -0.2239  0.0526  0.1672
66780W        W 9771  31.759   9.926   8.409  0.1021  0.1012 -0.0730
66781W        W 9772   4.086  18.898   3.039  0.1798  0.1484  0.2275
66782W        W 9773  17.941   2.547   7.275 -0.0920  0.1897 -0.0252
66783W        W 9774   7.312   4.983  24.567 -0.2240 -0.0637 -0.1762
66784W        W 9775  26.939   5.462  26.213 -0.2929  0.4696 -0.1211
66785W        W 9776   7.152  27.763   8.242 -0.2770  0.0541 -0.0435
66786W        W 9777  20.516  23.339  17.813  0.2753 -0.2877  0.1924
66787W        W 9778  10.021   6.903   4.215  0.0776  0.0184  0.1183
66788W        W 9779   3.881   2.832   3.069 -0.0578 -0.1557 -0.1243
66789W        W 9780  30.958   2.707   1.513  0.2948  0.0841  0.0291
66790W        W 9781  14.523   1.711   4.002 -0.2757  0.2411  0.0790
66791W        W 9782  26.039   6.257  20.109 -0.0905 -0.1503 -0.0143
66792W        W 9783  11.414  28.897  29.253  0.1310 -0.1730  0.1627
66793W        W 9784  14.665  27.141   5.836 -0.1640 -0.1974 -0.0906
66794W        W 9785  24.610   3.924  25.251 -0.0372  0.1344 -0.3469
66795W        W 9786  12.143  19.505   7.363  0.0299  0.1109  0.0282
66796W        W 9787  27.966   4.292   2.105  0.3121 -0.0121  0.1902
66797W        W 9788  18.325   2.397   5.011 -0.0172 -0.0838 -0.3307
66798W        W 9789  23.307  15.796  14.044  0.2547  0.0523 -0.1216
66799W        W 9790  13.830   5.117   2.553  0.2793  0.3389 -0.1086
66800W        W 9791   0.795   2.003  28.516 -0.2253  0.0648  0.0779
66801W        W 9792  20.425  22.996  23.436  0.2590  0.2804  0.0131
66802W        W 9793  15.852  31.664  23.012  0.2099 -0.3368  0.0874
66803W        W 9794  31.013  19.540  29.157  0.0088  0.0990 -0.1302
66804W        W 9795   1.497  30.975   2.773  0.0084 -0.0625  0.2932
66805W        W 9796   4.047   1.552   7.450  0.3131  0.1421 -0.0901
66806W        W 9797  13.563   8.504   2.273  0.0373 -0.0189  0.2692
66807W        W 9798   8.985  29.302   3.304 -0.0260  0.0556 -0.3182
66808W        W 9799  13.746  11.475   2.748 -0.0555 -0.0623 -0.1102
66809W        W 9800   4.231   9.869  11.773  0.1209 -0.0945 -0.1044
66810W        W 9801  26.678  12.754  23.281  0.2042  0.0245  0.0049
66811W        W 9802  19.021  28.030   1.882  0.2462 -0.1372 -0.4652
66812W        W 9803   1.982   7.767   4.299  0.0335 -0.2150  0.2268
66813W        W 9804   2.230   8.090  27.651 -0.3529 -0.0692  0.3751
66814W        W 9805  29.287  30.341   5.032 -0.0709  0.2251  0.2424
66815W        W 9806  19.426   3.075   0.505 -0.2809 -0.2063 -0.0859
66816W        W 9807  10.463   5.843  18.146 -0.1379  0.1238 -0.1493
66817W        W 9808   1.537  13.089   7.922 -0.1209 -0.1403 -0.3278
66818W        W 9809  23.163  29.553  22.827 -0.1148 -0.0897  0.1488
66819W        W 9810   8.430  13.315  26.852  0.0868  0.1520  0.0643
66820W        W 9811  12.269  32.180   6.489  0.4239  0.0226  0.1999
66821W        W 9812  19.400  11.505  25.979  0.0850 -0.2477  0.2296
66822W        W 9813  24.211   1.934   4.179 -0.0912 -0.0612 -0.1047
66823W        W 9814  16.213  22.613  26.187 -0.1327 -0.0908 -0.1291
66824W        W 9815   9.069  29.002   3.692  0.1725  0.0294  0.3040
66825W        W 9816   3.290   6.369   2.536  0.3730  0.1099 -0.1204
66826W        W 9817   6.548  32.119  28.132 -0.1828 -0.1610 -0.0310
66827W        W 9818  10.114  29.493   1.952 -0.0402 -0.0114 -0.0108
66828W        W 9819   3.879  29.651   0.036 -0.1672 -0.1607  0.1191
66829W        W 9820  34.257  31.232  23.341 -0.1163 -0.5286 -0.1061
66830W        W 9821   1.500  19.606   4.569  0.1807 -0.0886 -0.1267
66831W        W 9822  31.541   3.044   3.127 -0.0170  0.1022  0.0611
66832W        W 9823   6.275  11.853   6.173  0.1165 -0.1110 -0.1978
66833W        W 9824  19.869  16.601  26.251 -0.1764  0.3666 -0.0874
66834W        W 9825  17.090   1.484   9.028  0.1474 -0.0905 -0.1456
66835W        W 9826  14.825  32.413  25.599  0.0392  0.1622 -0.6813
66836W        W 9827  29.579   6.655   0.805  0.0308  0.1343 -0.0455
66837W        W 9828  34.161  23.776   7.733  0.0350 -0.2038  0.0957
66838W        W 9829  22.680  25.278  25.580 -0.2497  0.3364 -0.0618
66839W        W 9830  19.950  15.963   0.853  0.1978 -0.0632  0.0390
66840W        W 9831  10.760   1.232  23.241  0.3041 -0.2764 -0.0696
66841W        W 9832  22.325  31.010   7.047 -0.0915 -0.1416 -0.4672
66842W        W 9833  28.826   0.113   6.470  0.3347  0.3407 -0.0619
66843W        W 9834  17.583   5.322  27.990 -0.0758  0.1729 -0.1442
66844W        W 9835  11.103   9.938   7.045  0.0226 -0.0700 -0.0936
66845W        W 9836   2.040  28.952  21.425 -0.3618  0.1031 -0.0567
66846W        W 9837  12.309  31.935  23.438  0.1029 -0.0384  0.3943
66847W        W 9838   0.753   5.352   5.081  0.1742 -0.2673  0.0853
66848W        W 9839   2.902  29.934   5.029 -0.1057  0.1236 -0.1449
66849W        W 9840   4.667  34.758  27.738 -0.1303  0.1314 -0.1266
66850W        W 9841  29.230   8.900  20.347  0.0034 -0.2125  0.2839
66851W        W 9842   8.009  16.353   6.094 -0.1027  0.0203 -0.2379
66852W        W 9843   5.985   7.844   1.879  0.2708 -0.2482 -0.2173
66853W        W 9844  18.463  17.017  28.790  0.0111 -0.1044 -0.0620
66854W        W 9845  33.495  11.912  27.217 -0.0495  0.0539  0.0199
66855W        W 9846  28.331  10.121   6.110  0.5804  0.0427 -0.1867
66856W        W 9847  34.640  10.919   3.295 -0.0241 -0.0197 -0.0393
66857W        W 9848  10.020  10.281  22.947  0.1114 -0.1513  0.1594
66858W        W 9849  10.259   2.206  23.309  0.0592  0.0821  0.0506
66859W        W 9850  14.305   7.741   3.953  0.3598  0.0056 -0.0886
66860W        W 9851  14.656  11.624  26.627  0.3008 -0.2528  0.0607
66861W        W 9852   6.365  25.870   2.804 -0.0292 -0.5314  0.2336
66862W        W 9853  14.474   8.937   5.673  0.1458  0.0035  0.1931
66863W        W 9854  15.356   6.287   7.124 -0.0570  0.0968 -0.1381
66864W        W 9855  33.103   6.613  28.043 -0.0584  0.0245  0.1156
66865W        W 9856  25.135   2.986   7.854 -0.1769 -0.1500  0.0315
66866W        W 9857  24.601  29.881  24.238 -0.0511 -0.1956 -0.1168
66867W        W 9858  12.713   5.048   3.965  0.0315 -0.2295 -0.0459
66868W        W 9859   3.400   6.358  24.705 -0.0945  0.0129 -0.2326
66869W        W 9860  11.568  32.246  20.751  0.0980  0.0193  0.1506
66870W        W 9861   4.826  15.047  11.268 -0.1322 -0.0367  0.0665
66871W        W 9862   7.032   7.822  17.237 -0.2561  0.1637  0.0407
66872W        W 9863  32.133  17.032   8.310 -0.0654  0.0173 -0.3188
66873W        W 9864  16.002  34.315  27.040  0.0377  0.0046  0.1673
66874W        W 9865  11.070   3.787   8.596 -0.3391 -0.0630  0.0114
66875W        W 9866   4.970  15.683   5.053 -0.0877  0.2124  0.1023
66876W        W 9867  27.874   2.346  26.287 -0.0566 -0.1023  0.0866
66877W        W 9868  27.755   4.290   1.516  0.1230  0.2029  0.2016
66878W        W 9869  17.410   0.957   8.051 -0.1017 -0.0940  0.0011
66879W        W 9870  23.174   1.419   7.589 -0.1875  0.3529 -0.0838
66880W        W 9871  17.986  32.415   8.037  0.2116 -0.1627 -0.1399
66881W        W 9872   2.140  15.727   2.481 -0.0575  0.0745  0.0870
66882W        W 9873  16.757  32.632   7.506  0.1467 -0.0343  0.2846
66883W        W 9874  26.063  17.024   4.287  0.1749 -0.0832  0.0101
66884W        W 9875  13.022   6.911   3.863 -0.0793 -0.1851  0.0119
66885W        W 9876   3.248  16.172   8.707  0.0389 -0.3645  0.1780
66886W        W 9877  14.493  34.431  10.922 -0.1870  0.1644 -0.4936
66887W        W 9878   8.383  32.391  28.618 -0.2311 -0.0419  0.0367
66888W        W 9879  20.109  14.325  21.645 -0.0368 -0.2131 -0.0061
66889W        W 9880  14.783   5.158  26.923 -0.3430 -0.1208  0.2855
66890W        W 9881   9.343  28.690   4.969 -0.0922 -0.1378  0.1818
66891W        W 9882   6.948   3.861  27.765 -0.0955  0.0945  0.1316
66892W        W 9883   3.038   0.145   7.948 -0.3306  0.0239 -0.1132
66893W        W 9884   7.827   3.120   1.217  0.0620 -0.2097 -0.1888
66894W        W 9885   5.903  31.863   4.913 -0.2461  0.2092  0.0209
66895W        W 9886  30.985  17.741   8.588 -0.1043 -0.3990  0.0619
66896W        W 9887  10.263   4.908  10.205 -0.0886  0.0785  0.1650
66897W        W 9888  32.627   6.876   0.127 -0.0721 -0.0115  0.1213
66898W        W 9889  10.331  14.815  28.383 -0.0098  0.3408  0.2463
66899W        W 9890  14.058   7.466   7.438 -0.1022  0.1070 -0.0554
66900W        W 9891  15.614   6.800  28.746 -0.2411 -0.2836  0.1055
66901W        W 9892  17.216   7.690  10.189  0.1407 -0.2322  0.0703
66902W        W 9893  13.730   6.261   7.168  0.0657  0.0834  0.2629
66903W        W 9894   9.848  28.664   4.694  0.0247 -0.0393  0.1505
66904W        W 9895  26.017   9.311   6.677  0.0435 -0.1882  0.3088
66905W        W 9896  12.973   1.853   8.771  0.1605  0.0350 -0.1238
66906W        W 9897   3.611  10.363   7.756 -0.0679 -0.0228 -0.1477
66907W        W 9898  29.739  28.754   6.323  0.0775  0.0513 -0.0286
66908W        W 9899   6.168  34.177   1.730 -0.0637 -0.1671  0.0180
66909W        W 9900  14.365   0.824   7.586  0.0715  0.0232  0.0445
66910W        W 9901   7.832  24.090  28.787 -0.0616 -0.0630  0.2624
66911W        W 9902  17.863   9.549  23.176  0.3473 -0.1465  0.3568
66912W        W 9903  10.972  33.708   1.533 -0.0400  0.0779  0.1521
66913W        W 9904  23.069  16.858   8.920 -0.0542  0.1852  0.2028
66914W        W 9905  11.415  31.159   6.789 -0.2464  0.0667 -0.0191
66915W        W 9906  15.346   1.781   4.676 -0.1802  0.0301  0.1820
66916W        W 9907  20.729  29.982  23.315 -0.0756  0.1280 -0.0360
66917W        W 9908  16.946  30.542   2.095  0.1001  0.1752 -0.2783
66918W        W 9909   7.283   0.052  29.210  0.1555 -0.0598 -0.0178
66919W        W 9910  23.559  29.116   7.084 -0.0720  0.1589  0.0020
66920W        W 9911   2.496  32.345   7.305 -0.2589  0.0309 -0.2466
66921W        W 9912  18.449  31.694  25.292  0.1653 -0.3474  0.0983
66922W        W 9913  30.863  29.388   6.590  0.1941 -0.1800 -0.1522
66923W        W 9914  30.438   6.684   4.087  0.2941  0.0785 -0.1081
66924W        W 9915   6.243   0.741   0.171 -0.0448 -0.1881  0.1220
66925W        W 9916  30.435  26.813  29.020  0.0736  0.0116  0.0831
66926W        W 9917  28.125   3.288  25.934  0.0186  0.4686  0.1736
66927W        W 9918  18.231  27.494   9.408  0.0913  0.0283 -0.0630
66928W        W 9919  22.568  23.650  25.088  0.1117  0.1757 -0.3223
66929W        W 9920  13.615  27.230   9.934 -0.1195 -0.0883  0.1868
66930W        W 9921  11.556   9.981  29.191  0.0801 -0.1503  0.0717
66931W        W 9922   0.091  27.220   6.810  0.0258 -0.1569  0.0682
66932W        W 9923   2.776   1.986   3.292 -0.0233 -0.2543 -0.1108
66933W        W 9924   4.874   7.675  10.400 -0.2007 -0.0056 -0.0440
66934W        W 9925  14.830  31.829   6.212  0.1526  0.1480 -0.0540
66935W        W 9926   0.865  30.533  29.084  0.1001 -0.0100 -0.1195
66936W        W 9927  24.176  32.462   4.610  0.3075 -0.1370  0.0490
66937W        W 9928  33.952  32.564  22.230 -0.0142 -0.0693  0.1701
66938W        W 9929   1.925  12.707  10.863 -0.1229 -0.2778 -0.1054
66939W        W 9930  33.866  29.663   6.532  0.0064  0.1312 -0.0163
66940W        W 9931  12.838   7.602   9.985 -0.1796  0.1581 -0.2822
66941W        W 9932  14.510   1.385   4.883 -0.0162  0.2278  0.1891
66942W        W 9933  21.189   8.470   9.150  0.2283 -0.1610 -0.1530
66943W        W 9934  29.491  24.779   4.349 -0.1152 -0.1788 -0.1534
66944W        W 9935  16.121  15.581   4.079  0.0165  0.0088 -0.0810
66945W        W 9936  32.343  28.812   3.836  0.1378 -0.1316  0.1038
66946W        W 9937   4.067  11.981   2.787 -0.2069  0.0508 -0.3932
66947W        W 9938  14.486   7.521   8.339 -0.1661  0.0117 -0.0555
66948W        W 9939   4.052  15.974  26.916  0.0355  0.2515 -0.1842
66949W        W 9940  24.976  16.763   7.751 -0.0317  0.1442  0.3122
66950W        W 9941  15.244   6.717  10.958  0.3052  0.1739 -0.0404
66951W        W 9942   2.810  32.903  25.522 -0.0960  0.2385  0.0262
66952W        W 9943  18.528   9.624   8.155 -0.0135 -0.1532  0.0434
66953W        W 9944   4.341  34.686  10.232  0.2427 -0.3859 -0.0474
66954W        W 9945   9.107  15.292  27.413 -0.1949 -0.1238  0.0093
66955W        W 9946  32.207  27.553   3.055 -0.1777 -0.0379 -0.2311
66956W        W 9947   7.255  27.161  14.990 -0.0552 -0.0774 -0.2878
66957W        W 9948  24.684  26.329   4.988  0.0648  0.1179  0.2367
66958W        W 9949  23.935   3.544  24.189 -0.0215 -0.2587 -0.1090
66959W        W 9950  22.992  18.993  25.861 -0.0456  0.1054  0.1224
66960W        W 9951   0.031  31.841   4.787 -0.4260  0.1088 -0.0774
66961W        W 9952  27.987  10.706  28.147  0.1372 -0.2919 -0.1436
66962W        W 9953  10.310  33.390   9.370  0.0128  0.2324  0.4417
66963W        W 9954  34.307  31.482  25.447  0.1773 -0.0137  0.0891
66964W        W 9955  14.877  27.872  26.826  0.0429 -0.0091  0.0415
66965W        W 9956  19.388  22.935  28.965  0.0975 -0.0220 -0.0523
66966W        W 9957  34.456   4.561   3.871 -0.2157  0.0198  0.3594
66967W        W 9958  33.566  12.654  11.462 -0.2467  0.0969 -0.0966
66968W        W 9959   5.988  10.595   5.481  0.2179  0.1681  0.1567
66969W        W 9960  29.866  31.963   1.382 -0.1797  0.2413  0.2229
66970W        W 9961   5.066  23.928  25.000  0.1244 -0.1235  0.0055
66971W        W 9962   9.467   3.316   9.173 -0.1650  0.0187  0.1730
66972W        W 9963   6.129   2.296   6.744  0.1615 -0.0081  0.0282
66973W        W 9964  15.173   3.025   8.674  0.0217  0.0508 -0.3457
66974W        W 9965  11.726  11.223  10.615 -0.1387 -0.0306  0.1702
66975W        W 9966   7.692  26.432  28.330  0.2969  0.2994  0.1091
66976W        W 9967  34.193   2.757   0.402 -0.0415  0.1095  0.0892
66977W        W 9968  12.526  14.768   9.115 -0.0036 -0.1229 -0.0368
66978W        W 9969  28.541  13.931   9.897  0.2372 -0.2185 -0.0299
66979W        W 9970   3.227  27.799   8.416 -0.2974 -0.4043  0.3327
66980W        W 9971  26.920  24.088   1.662  0.1320 -0.2502  0.1624
66981W        W 9972   1.829   5.925  10.653  0.1068  0.1676  0.1054
66982W        W 9973   8.405   6.608   9.579  0.0673  0.0924 -0.2594
66983W        W 9974  22.901  23.510  25.940  0.0538  0.1170  0.1532
66984W        W 9975   0.696  29.282   9.317 -0.1380 -0.0903  0.0018
66985W        W 9976   8.940   6.362   6.788 -0.1482 -0.4749  0.0608
66986W        W 9977   8.343  13.238   3.884  0.0061  0.2056 -0.1086
66987W        W 9978  22.926  22.316   5.106  0.1468  0.0721 -0.1139
66988W        W 9979  12.314  21.009   2.101  0.0486 -0.1439 -0.0185
66989W        W 9980   3.029   4.179   0.186  0.2536 -0.3171  0.1008
66990W        W 9981   6.083   2.766   5.166 -0.2712  0.2056 -0.0111
66991W        W 9982   6.768   0.213   4.774 -0.1672  0.0735  0.3470
66992W        W 9983  26.394   9.888   9.140  0.0145 -0.5200 -0.0448
66993W        W 9984  31.461  10.537   3.947  0.0114  0.0600  0.2418
66994W        W 9985   5.190  22.503   9.019 -0.0747  0.0013 -0.2381
66995W        W 9986  11.843   4.317  22.119 -0.1504  0.0891  0.1477
66996W        W 9987   3.018  14.997   8.063  0.0725  0.1849  0.0186
66997W        W 9988   0.553  23.220  27.335 -0.1808 -0.3959 -0.3421
66998W        W 9989  34.025   5.790   3.343  0.0198 -0.1135 -0.1058
66999W        W 9990  14.583  15.721   5.812 -0.1184 -0.2978  0.1982
67000W        W 9991  29.978  23.051   8.417  0.2368  0.3691  0.4021
67001W        W 9992  33.413   7.933  22.457  0.3084  0.1005 -0.0846
67002W        W 9993  11.646  20.621   0.196 -0.0058 -0.0189 -0.1746
67003W        W 9994   3.060  20.981  26.927  0.1772  0.0859 -0.2835
67004W        W 9995   8.298  28.914   4.502  0.0639 -0.0209  0.1557
67005W        W 9996  15.176  23.236   4.656  0.0161 -0.0313  0.1045
67006W        W 9997  23.222  34.557   4.776  0.1483 -0.0891 -0.0857
67007W        W 9998  18.746   4.762  21.266 -0.0848 -0.1652 -0.0481
67008W        W 9999  15.570  29.376   6.404 -0.0524 -0.1420 -0.2828
67009W        W10000   0.074  22.823   3.221 -0.1867  0.1232 -0.0056
67010W        W10001   0.800  25.744   6.868  0.1179  0.0863  0.2249
67011W        W10002  15.851   8.471   7.150 -0.2233 -0.0366 -0.0440
67012W        W10003   4.023  34.022   5.611  0.1818  0.1701 -0.0434
67013W        W10004   4.014  12.454   8.923  0.1280  0.0743  0.3409
67014W        W10005  26.558  19.821  26.279  0.1025  0.1534  0.0681
67015W        W10006  17.483  29.055   5.129  0.3539  0.2629 -0.2569
67016W        W10007   4.862   5.733   9.091  0.0957  0.1140  0.0102
67017W        W10008   3.778   9.763  21.578 -0.0605  0.1909  0.1392
67018W        W10009  25.582   6.649   2.140  0.1721  0.2121 -0.0300
67019W        W10010   1.437  28.352   3.112  0.0078 -0.2455 -0.3247
67020W        W10011  33.157  14.110  11.297 -0.3254  0.1538 -0.0396
67021W        W10012   0.193   4.614  14.254 -0.0635 -0.1310  0.1358
67022W        W10013  11.957  12.306  27.816  0.2153  0.3874  0.3292
67023W        W10014  20.725  21.089  16.596  0.1291  0.0737 -0.1711
67024W        W10015   1.082  32.507   8.715  0.0001  0.0009 -0.1226
67025W        W10016  32.660  32.565   5.629  0.2302 -0.1215 -0.3869
67026W        W10017  29.334  22.332   8.019 -0.1010 -0.1668 -0.1926
67027W        W10018   9.281  32.430  28.217 -0.0701  0.1810  0.0470
67028W        W10019  17.379   4.817  28.583  0.2476 -0.2637  0.0096
67029W        W10020   4.581   4.379   7.979  0.0533 -0.2733  0.3433
67030W        W10021  21.279   2.895   8.601 -0.3051 -0.3219 -0.2183
67031W        W10022  18.230  19.943  24.254 -0.0216 -0.1560  0.2219
67032W        W10023  34.550  25.349  17.295  0.0449  0.0790 -0.0646
67033W        W10024  30.432   7.233   4.057 -0.2006 -0.0773  0.0360
67034W        W10025  13.356  28.330  25.238  0.0898  0.1508  0.0651
67035W        W10026   8.436  32.875   9.311 -0.2058 -0.1640 -0.1905
67036W        W10027  34.752   9.944   9.639 -0.1800  0.2613 -0.2329
67037W        W10028  31.041   2.957   0.597 -0.0930 -0.0356 -0.1903
67038W        W10029  19.010   8.652  28.469 -0.2859  0.0736 -0.2442
67039W        W10030  15.363  22.589   5.976 -0.3776  0.0164  0.0695
67040W        W10031  34.225  24.972   1.357  0.4653 -0.0964 -0.0767
67041W        W10032  33.484   0.315   8.078  0.3778 -0.1158  0.0529
67042W        W10033  11.646  11.742  17.239 -0.3040 -0.0240  0.0925
67043W        W10034  18.273  28.638   0.272 -0.0191  0.1889  0.0055
67044W        W10035   0.880   1.019   1.374 -0.0123  0.0365  0.0202
67045W        W10036   9.527   5.701   7.815 -0.1545  0.4812  0.2758
67046W        W10037   4.544   7.902   4.441  0.6333 -0.0856 -0.4403
67047W        W10038   2.272  24.736   0.364  0.0602 -0.0472 -0.1936
67048W        W10039   1.529   7.596   8.331 -0.3764 -0.1027 -0.3482
67049W        W10040  15.583  30.188   2.138  0.1158 -0.2036 -0.1121
67050W        W10041   4.704  17.893  20.791  0.1862  0.1821 -0.1737
67051W        W10042  16.301  33.403  21.735  0.0928 -0.3689  0.0372
67052W        W10043  12.543   8.568  19.903 -0.1887  0.1200  0.1051
67053W        W10044   1.055  19.121  28.317  0.4034  0.2817 -0.0671
67054W        W10045   2.270  26.792   3.137 -0.2355 -0.0280  0.2642
67055W        W10046  27.715   8.352   7.950 -0.1867 -0.0609 -0.2890
67056W        W10047  18.448   2.523   1.940 -0.0852 -0.2036 -0.2463
67057W        W10048  21.657  23.259   2.713 -0.1823 -0.1612  0.4433
67058W        W10049  20.871   6.284   7.856  0.2326 -0.4581  0.1918
67059W        W10050   1.903   1.244   9.853  0.3025  0.1380 -0.0685
67060W        W10051  14.722  21.785   4.749  0.1864  0.0999 -0.2538
67061W        W10052  13.319  22.738  22.140 -0.0327  0.0101  0.1020
67062W        W10053  21.356   8.089   6.436 -0.1516  0.2018  0.0618
67063W        W10054  30.108  17.772  28.104 -0.1615  0.2345  0.1851
67064W        W10055   5.743  16.095   8.480 -0.0397  0.0013 -0.0405
67065W        W10056   8.568   2.838  29.154 -0.2183 -0.2920 -0.3724
67066W        W10057   4.074  13.446  27.264 -0.2240 -0.1536  0.0840
67067W        W10058  15.229  20.249  27.640  0.0686  0.0562 -0.0897
67068W        W10059   0.125   6.335  29.215  0.1809  0.0044 -0.0509
67069W        W10060   9.054   0.446   0.140  0.1428 -0.1864  0.0366
67070W        W10061   6.645  27.591  21.836 -0.2242  0.1456  0.4107
67071W        W10062  13.055  34.495   8.942  0.0249 -0.3636 -0.2223
67072W        W10063   1.026  34.463  22.563  0.0648  0.1525 -0.4042
67073W        W10064  20.357  10.447   9.120  0.2835  0.0510  0.0285
67074W        W10065   8.513  29.481   5.222 -0.1381 -0.1534 -0.0688
67075W        W10066  11.584  30.606   7.786  0.1716 -0.2165 -0.3266
67076W        W10067   4.278  15.332   5.115 -0.0113 -0.0762  0.0981
67077W        W10068  11.758   1.931  11.451  0.0522  0.1490 -0.0501
67078W        W10069   3.013   2.426  10.408  0.2188 -0.1741  0.0270
67079W        W10070  14.867   3.542   7.104  0.0444  0.0911  0.0217
67080W        W10071  23.353   2.998   9.444 -0.1239  0.1434 -0.2724
67081W        W10072  28.952   2.451  28.716  0.2443  0.0174  0.4250
67082W        W10073  30.916  14.775   9.241 -0.1094  0.3613  0.0233
67083W        W10074   8.492  14.575   6.745  0.2474  0.1672  0.3333
67084W        W10075   4.155   0.875   6.830 -0.1795  0.1524 -0.0563
67085W        W10076  32.329   0.063   5.659  0.2175 -0.4257  0.2120
67086W        W10077   2.644   1.812   5.610  0.3857  0.0077  0.1546
67087W        W10078  23.011   9.600   9.310 -0.0628  0.1749  0.0007
67088W        W10079  33.682   6.686   6.121  0.0632 -0.0083 -0.2047
67089W        W10080  21.557   7.930   3.524  0.0588 -0.1133 -0.3249
67090W        W10081  28.095   3.898  24.254 -0.2021  0.0763  0.1119
67091W        W10082   3.059  27.855   5.254 -0.2393 -0.1672  0.0211
67092W        W10083  21.752   3.050   8.606 -0.1446  0.0078  0.1921
67093W        W10084   2.688  29.848  22.942  0.0226 -0.0518 -0.0474
67094W        W10085  16.911   7.989   2.006  0.0527 -0.0809  0.0023
67095W        W10086  14.036  33.810  10.158 -0.1487 -0.1339  0.0293
67096W        W10087   8.378  34.385   1.038  0.0693 -0.0746  0.0874
67097W        W10088   6.819  21.444   9.669 -0.0058 -0.2708 -0.0219
67098W        W10089   6.725   1.191  26.443  0.1448 -0.0509  0.1624
67099W        W10090   9.547  18.050   3.879 -0.0245  0.3882 -0.1387
67100W        W10091  23.683   2.091   6.091 -0.0328  0.3036 -0.2554
67101W        W10092  10.312   3.617  23.740 -0.1901 -0.0167  0.1307
67102W        W10093  27.086   5.083  14.988 -0.0474  0.0753 -0.3562
67103W        W10094  23.634   2.970   1.601  0.1089 -0.0216  0.0058
67104W        W10095   1.434  27.973   4.697  0.2074 -0.1217 -0.2708
67105W        W10096   7.096  33.153  25.880 -0.2044  0.0112 -0.1569
67106W        W10097  29.751  31.948  27.541 -0.0298  0.0885  0.2688
67107W        W10098  27.677  33.262   2.690  0.4189 -0.1572 -0.0633
67108W        W10099  17.250  12.988   8.971 -0.0722 -0.1064  0.1441
67109W        W10100  11.273   6.039  26.948 -0.0768 -0.1218 -0.3569
67110W        W10101  16.328  12.615   7.696 -0.0669 -0.6369  0.0639
67111W        W10102   9.847  30.614   8.583 -0.0059 -0.1205  0.1299
67112W        W10103   8.771   3.113  26.887 -0.0253  0.0843  0.3141
67113W        W10104  15.530   2.451   4.624  0.0140 -0.1684  0.0615
67114W        W10105  23.464  32.030  23.147 -0.0212  0.1550  0.2158
67115W        W10106   7.770  28.014   9.948  0.0909  0.2501  0.1054
67116W        W10107   8.933  32.259   1.108  0.1549  0.0926  0.0261
67117W        W10108   8.705  30.146   0.617  0.1337 -0.1535 -0.0837
67118W        W10109  26.669  32.364   9.352  0.1402  0.1156  0.0795
67119W        W10110  12.969  16.649  27.175 -0.1392  0.1599  0.1915
67120W        W10111   9.917   3.205   0.309  0.4596  0.1184  0.0011
67121W        W10112   6.231  23.493   3.276 -0.3377  0.0075 -0.1129
67122W        W10113   9.880   6.528   6.723  0.3301  0.1864  0.1780
67123W        W10114   2.253  14.695  10.755  0.1407 -0.3269  0.0606
67124W        W10115   9.865  32.968   9.084  0.0050 -0.0488  0.0765
67125W        W10116   1.584  10.083   8.640  0.1758  0.3871 -0.1673
67126W        W10117  31.419   4.674   2.047  0.2847  0.1202 -0.0550
67127W        W10118  34.206   1.003   6.400 -0.0717  0.5082 -0.0896
67128W        W10119  27.961   3.679   8.677 -0.1543  0.0168 -0.2461
67129W        W10120   4.250   7.762  10.218 -0.1456  0.0932 -0.0686
67130W        W10121  29.093  12.144  19.853  0.2519  0.1704  0.2571
67131W        W10122  29.266  17.162  28.823  0.1605 -0.1052  0.1122
67132W        W10123  33.388   0.648   9.391 -0.2970 -0.2226  0.0220
67133W        W10124   8.707  34.578   3.510 -0.3007 -0.0853  0.1308
67134W        W10125   5.781  27.952   2.121  0.0150  0.0223 -0.1409
67135W        W10126  19.565  28.870   4.072  0.1273 -0.2959  0.2586
67136W        W10127  26.323  30.390   7.518  0.3329 -0.1985  0.2100
67137W        W10128   3.857   3.044   5.628  0.1597 -0.2229 -0.0199
67138W        W10129  33.842  10.916   7.182 -0.2576 -0.4176 -0.1591
67139W        W10130   6.134  26.025   7.315 -0.1422 -0.1859  0.0340
67140W        W10131   2.542   5.137  22.971 -0.1059 -0.0609  0.0106
67141W        W10132  12.978  11.363   8.999  0.0840 -0.1231  0.1240
67142W        W10133  13.391  10.559   9.558 -0.1794 -0.1717  0.0530
67143W        W10134  11.640   0.089  11.219  0.1247  0.3654 -0.0282
67144W        W10135  14.399  25.540  26.277  0.0645  0.3743  0.3427
67145W        W10136   5.801  34.382   1.097 -0.2015  0.1080 -0.1262
67146W        W10137   1.012   2.223   4.854  0.0980 -0.1483  0.3094
67147W        W10138   9.729  12.016   7.745  0.5610  0.0477  0.2043
67148W        W10139  27.351  25.773   3.944 -0.0613  0.2627 -0.2129
67149W        W10140   1.472  26.160  24.719  0.0931 -0.0168  0.1070
67150W        W10141  11.056   4.881   1.606  0.1470  0.0185 -0.1025
67151W        W10142   1.565  18.986   9.199 -0.0320 -0.0616  0.1851
67152W        W10143   3.850  31.393   2.592 -0.1275 -0.1553 -0.2548
67153W        W10144  32.043   0.545   5.500 -0.0894  0.0171  0.0754
67154W        W10145   0.157   7.780   1.001 -0.1876  0.1854 -0.3134
67155W        W10146  13.816  33.876  28.865  0.0483 -0.2998  0.1073
67156W        W10147   7.091  11.990   7.594  0.1059 -0.1286  0.0120
67157W        W10148   7.353   7.450  28.629  0.0981 -0.1742 -0.4550
67158W        W10149  34.144  31.656   3.610 -0.2597  0.2002  0.0870
67159W        W10150   8.839  34.172  18.490 -0.0978 -0.2071 -0.0344
67160W        W10151  14.608  13.087   3.294  0.1489  0.0102 -0.2596
67161W        W10152  30.110  10.848   5.846 -0.0105 -0.2059  0.0859
67162W        W10153   7.171  28.387  21.622 -0.0045 -0.0681 -0.2799
67163W        W10154  30.028  30.888   0.964 -0.1965 -0.0933  0.0113
67164W        W10155  32.711  26.817   4.053  0.2442  0.0627 -0.0972
67165W        W10156  16.183  17.912  16.438  0.0664  0.0132 -0.2884
67166W        W10157   8.669  33.880   6.084 -0.3172  0.0941  0.0949
67167W        W10158   6.218  20.458   7.671  0.2391  0.4736 -0.1348
67168W        W10159  12.237  31.005   5.389  0.0326 -0.1481  0.0325
67169W        W10160  15.298   0.972   7.892 -0.2442 -0.0335  0.0655
67170W        W10161   8.211  31.217   6.679 -0.4642  0.0340  0.4309
67171W        W10162  33.596  20.497  21.766  0.0207  0.0115  0.0096
67172W        W10163  22.960  32.390  23.143  0.1615  0.0507  0.0610
67173W        W10164  34.132  14.105   7.007 -0.0952 -0.0689 -0.1074
67174W        W10165  10.142  24.865   8.466 -0.4473 -0.1094  0.0980
67175W        W10166   6.212  11.144   2.499 -0.0408  0.1411 -0.2574
67176W        W10167  25.531  25.742  28.047 -0.0294  0.2666 -0.0856
67177W        W10168  28.728  27.910  26.056  0.4077 -0.1601  0.2103
67178W        W10169   9.384   0.870   4.031  0.0509  0.1453 -0.0741
67179W        W10170  28.668  32.468  22.471 -0.1604 -0.0906 -0.1454
67180W        W10171   2.603  31.594  26.628 -0.1350 -0.2728  0.0239
67181W        W10172  13.158  27.018   5.880 -0.3583 -0.1785  0.2336
67182W        W10173   1.350  29.189   7.907  0.2587  0.0172 -0.0505
67183W        W10174   0.674  33.831  25.624  0.0718  0.2454 -0.0351
67184W        W10175  15.110  16.605   2.272 -0.1499 -0.1786 -0.0726
67185W        W10176   5.878  13.825   1.080  0.0167 -0.1803 -0.3757
67186W        W10177  30.062   2.430   9.157  0.1130 -0.1981 -0.0727
67187W        W10178   0.682   6.086   4.377 -0.0021  0.1471  0.0479
67188W        W10179   3.631  25.878  21.991  0.0650 -0.1289 -0.0697
67189W        W10180   9.627  30.753   4.000  0.1727 -0.0649 -0.0520
67190W        W10181   9.152  32.992  27.488  0.2826  0.0064  0.0341
67191W        W10182   5.257  10.546   8.198 -0.0289 -0.0269 -0.1310
67192W        W10183   8.647  30.964  27.289  0.1656  0.3301 -0.0180
67193W        W10184  31.793  31.771   8.942 -0.2302 -0.2985 -0.4666
67194W        W10185  29.148  16.392   7.993  0.3602  0.0723 -0.0892
67195W        W10186  13.932   1.283   4.732 -0.1373  0.1350  0.1510
67196W        W10187  24.402  14.159  27.714  0.0739 -0.2233  0.0230
67197W        W10188   5.842   1.353  21.506  0.0105 -0.3304  0.0811
67198W        W10189   7.597  11.632   5.231 -0.1098  0.1962 -0.2144
67199W        W10190  13.305  32.448  22.338  0.1285  0.0154 -0.1189
67200W        W10191   6.136   3.750   5.365  0.0593 -0.0880  0.0212
67201W        W10192   5.791  12.791   3.520 -0.0257 -0.1981  0.0727
67202W        W10193  33.655   9.116   2.142 -0.2414 -0.1293 -0.2119
67203W        W10194  13.269   9.911   1.962 -0.2225  0.0352  0.0788
67204W        W10195   0.721  32.000   1.211  0.1888  0.2133  0.2799
67205W        W10196   9.734  34.300   3.526 -0.0825 -0.2328  0.0954
67206W        W10197  16.094  33.968   4.014  0.2262  0.2224  0.2178
67207W        W10198  17.297   0.105   6.748  0.1016  0.1308  0.0910
67208W        W10199   2.491  34.380  15.925 -0.1124  0.2539  0.0134
67209W        W10200   1.589   0.161  23.395 -0.0138  0.3300 -0.1636
67210W        W10201   7.575  11.166  18.774  0.2472  0.0677 -0.0327
67211W        W10202   2.882  23.861  23.655  0.0164 -0.3887  0.1554
67212W        W10203   7.086  13.827  27.421 -0.3482  0.2088 -0.0671
67213W        W10204  19.611   5.226  28.821  0.2639  0.0636 -0.2369
67214W        W10205  15.929  26.398   2.652 -0.2296 -0.0163  0.3051
67215W        W10206   8.777  23.782   9.020 -0.2601  0.0834  0.2761
67216W        W10207   5.571   8.426   0.508  0.2767  0.2438  0.1093
67217W        W10208  15.603   4.986  20.559 -0.1030  0.0620  0.2749
67218W        W10209   3.569   5.647  22.672 -0.2807 -0.1133  0.2874
67219W        W10210  33.565   1.548  22.045 -0.2704  0.1661  0.2475
67220W        W10211  19.869  27.552   6.666 -0.0109 -0.3332  0.0754
67221W        W10212  12.530  13.707   3.012  0.0293  0.3985 -0.0542
67222W        W10213  12.954  31.369   2.381 -0.0128 -0.2051  0.1536
67223W        W10214   9.296   5.698   6.820  0.2000 -0.0760  0.2417
67224W        W10215  14.238   5.826  20.467 -0.1263  0.0254  0.1816
67225W        W10216   5.571   2.014   9.885  0.0376  0.0135 -0.1318
67226W        W10217  11.213   8.006   8.855  0.1253  0.0554  0.1157
67227W        W10218   7.290   2.397   9.382 -0.0091 -0.1505 -0.0575
67228W        W10219  22.844  12.993  19.711  0.0132  0.0351  0.1121
67229W        W10220  28.168  29.468   0.857 -0.2187 -0.1187  0.0114
67230W        W10221  24.159  29.188  28.960  0.4509  0.1574  0.0229
67231W        W10222  29.642  30.708   2.514  0.1122  0.4778 -0.0613
67232W        W10223  24.446  32.995   1.012 -0.3120 -0.0755  0.3329
67233W        W10224   8.963   5.653   0.318  0.0761 -0.0709 -0.0083
67234W        W10225   0.962  12.483  26.368 -0.1015  0.0875  0.1964
67235W        W10226  29.816  21.967   9.511 -0.3763  0.2774 -0.2474
67236W        W10227   0.244  30.337  27.758 -0.0030 -0.1682 -0.0820
67237W        W10228  18.174   2.721  22.210 -0.1775 -0.1515 -0.2532
67238W        W10229  30.715   1.602   2.766  0.1112 -0.1924  0.1038
67239W        W10230  10.372  20.308   5.978  0.0243 -0.4580 -0.1558
67240W        W10231   7.326  19.593  26.207  0.0732 -0.0382  0.0815
67241W        W10232  13.267   2.288  17.179 -0.0413 -0.1592  0.1247
67242W        W10233   7.229  29.649   8.963  0.1076  0.1136  0.1033
67243W        W10234  15.498  28.444  14.433  0.1770  0.0747 -0.0386
67244W        W10235  11.233   9.482   9.603  0.3566 -0.0678 -0.1690
67245W        W10236   3.110   4.302  27.983 -0.0936 -0.1358 -0.1012
67246W        W10237  16.502  33.115   8.955  0.1615 -0.3274 -0.0003
67247W        W10238  16.267  33.039  24.233 -0.0415  0.1290 -0.0273
67248W        W10239  27.920   9.616  28.324  0.1735 -0.0237  0.2639
67249W        W10240   3.569   1.458   7.536  0.0036  0.0130 -0.1028
67250W        W10241  19.369  29.449  25.767  0.0441 -0.2540 -0.0047
67251W        W10242   9.203   1.138  16.308 -0.0955 -0.1728  0.2246
67252W        W10243  24.989  12.302   0.880  0.1458 -0.1721  0.0094
67253W        W10244  19.459   6.482  24.405  0.4469  0.0055 -0.0494
67254W        W10245  15.498  27.547  22.813 -0.1349  0.1058 -0.2114
67255W        W10246   0.548  32.672  24.697 -0.2600  0.2068  0.1559
67256W        W10247  10.221   4.460   0.621  0.0464  0.0499 -0.0722
67257W        W10248   5.674   3.125  20.983  0.0909 -0.1716 -0.1306
67258W        W10249  12.217   8.820   6.058 -0.1557 -0.0808 -0.0857
67259W        W10250   8.430  28.418  22.008  0.0807  0.3476 -0.1456
67260W        W10251   5.952   0.938   0.521  0.1616  0.4739  0.1074
67261W        W10252   4.714  10.342   6.078 -0.1288  0.0263  0.0267
67262W        W10253   5.771  17.623   7.264  0.3433  0.1793 -0.0154
67263W        W10254   0.716  32.894   1.695 -0.2117 -0.0191 -0.0955
67264W        W10255  10.307  32.490   5.922  0.0974  0.2907  0.2335
67265W        W10256   6.806  33.627   7.896 -0.1923  0.2388 -0.2463
67266W        W10257   0.285  11.532  11.868  0.1858 -0.1635 -0.2792
67267W        W10258  10.338  15.031  23.597 -0.0715 -0.1207  0.0163
67268W        W10259  16.768  32.441   8.982  0.0138  0.0433 -0.0868
67269W        W10260  30.671   5.944   3.870  0.1974  0.3159 -0.2114
67270W        W10261   5.306   5.917  25.977 -0.0811 -0.4418  0.0626
67271W        W10262   3.576  24.716  24.718 -0.1352  0.0722  0.1350
67272W        W10263  18.854  31.207   1.016  0.1169 -0.0035  0.1353
67273W        W10264  25.216  16.789  19.715  0.1104  0.1663  0.0142
67274W        W10265  12.059  24.900  16.321 -0.0162  0.1529  0.1737
67275W        W10266   7.498  33.108   0.333  0.1030  0.3788  0.0360
67276W        W10267   3.100   9.860  20.805 -0.2024 -0.0044  0.1503
67277W        W10268  17.853  31.213   4.861 -0.1769  0.2386  0.3855
67278W        W10269  18.174  16.104  13.682  0.0992 -0.1888  0.0966
67279W        W10270   5.986  16.571  20.132  0.1416  0.1904 -0.2201
67280W        W10271  10.783  10.147  16.015 -0.0832  0.3692 -0.1010
67281W        W10272  30.651  33.846  14.129 -0.2565 -0.0233 -0.2256
67282W        W10273  16.319   4.210   8.345 -0.0738 -0.2615 -0.2842
67283W        W10274  11.021  11.948   0.413  0.2187  0.1120 -0.1631
67284W        W10275  14.823   0.875   3.750 -0.4198  0.2022 -0.0671
67285W        W10276   2.688   1.802   1.080  0.2275  0.0546 -0.2259
67286W        W10277  13.471  32.786   0.107 -0.0611 -0.3251  0.1600
67287W        W10278   1.177   6.632  26.152  0.0558 -0.0587  0.0111
67288W        W10279  25.928  26.032  27.000 -0.2230 -0.0338 -0.1196
67289W        W10280   7.857  31.550   3.983  0.0837  0.3287  0.1233
67290W        W10281  12.045  22.785  25.436  0.1921  0.0219  0.2854
67291W        W10282  11.144   8.148   7.009  0.3107 -0.0743 -0.1753
67292W        W10283   1.468   2.554   2.493  0.3460  0.0500  0.0863
67293W        W10284  20.614   5.297  20.835  0.0933  0.1509  0.1686
67294W        W10285   9.670  18.640   7.228 -0.1791  0.0811  0.0303
67295W        W10286  14.686   3.270  24.354  0.0701 -0.3477  0.3070
67296W        W10287   6.116   9.538   5.535 -0.0011 -0.0122 -0.1256
67297W        W10288  16.955  15.690  27.635 -0.1306 -0.1642  0.2058
67298W        W10289   1.189   9.163   4.767  0.0038 -0.0039 -0.1167
67299W        W10290   4.924   2.914  24.976 -0.1857  0.2550 -0.0004
67300W        W10291  15.411  30.415  27.666  0.0475  0.1250 -0.0306
67301W        W10292  34.782  24.730  24.440  0.1293 -0.1238  0.2077
67302W        W10293  11.381  28.193   2.065  0.0612  0.2708  0.1318
67303W        W10294  33.255   9.550  27.422  0.1899  0.0211  0.0187
67304W        W10295  34.635  20.222  27.748 -0.1502  0.2588 -0.5009
67305W        W10296  13.112   3.452   7.364 -0.0488 -0.3632 -0.1160
67306W        W10297  13.442  33.437   0.806 -0.2304 -0.0657  0.1870
67307W        W10298  14.685  28.572  16.716  0.0871 -0.1025  0.1184
67308W        W10299  26.324   3.552  18.943 -0.0566 -0.4106 -0.0919
67309W        W10300  13.151  12.083  18.002  0.1265 -0.2046 -0.1780
67310W        W10301  22.243  29.828   4.648  0.0508 -0.1412 -0.1700
67311W        W10302  22.132  28.167  21.025 -0.2622 -0.2936  0.2818
67312W        W10303   2.645  11.641  20.489  0.1330  0.0296 -0.2309
67313W        W10304  15.697   5.197  18.935 -0.3075 -0.0869  0.0712
67314W        W10305  12.944  33.727  25.683 -0.2385 -0.0226  0.2289
67315W        W10306  19.594  26.480  23.866 -0.0151  0.2288 -0.1088
67316W        W10307  28.760  18.874   4.820  0.1700  0.4544 -0.1882
67317W        W10308  30.579  11.665   4.751 -0.2334 -0.0888 -0.0483
67318W        W10309   5.284   6.870   5.908  0.1421  0.1986 -0.0406
67319W        W10310   2.268   4.624  17.091 -0.0623  0.0728 -0.3125
67320W        W10311   7.633  24.048  27.820 -0.2356 -0.1718 -0.2903
67321W        W10312   1.135   4.276   1.851 -0.2184 -0.0376 -0.2294
67322W        W10313  18.464   3.923  20.690  0.2420  0.2075  0.0915
67323W        W10314  25.252  27.756   6.381 -0.2006  0.0255 -0.0325
67324W        W10315  28.542  14.017   4.364 -0.0753 -0.0424  0.2254
67325W        W10316  15.007   4.031  25.872 -0.2927  0.0228  0.3019
67326W        W10317   0.672   1.891  25.274 -0.2897 -0.1566  0.3425
67327W        W10318   4.220  12.852  11.189  0.1367 -0.3240  0.1303
67328W        W10319  34.526  21.732  26.624  0.1783 -0.1846 -0.2349
67329W        W10320  29.165  16.064  25.482 -0.4005  0.2719  0.1991
67330W        W10321   0.861   5.761   3.830 -0.6080  0.1315  0.0278
67331W        W10322  30.241   3.984  22.985  0.1191 -0.1458 -0.1478
67332W        W10323  10.569  11.393   8.506 -0.2258  0.0904  0.0106
67333W        W10324  12.182  12.072   0.790  0.3854  0.1714  0.2371
67334W        W10325   2.721  34.663  28.025  0.1270  0.2506 -0.1413
67335W        W10326  16.678  13.108   5.198 -0.2938 -0.1770 -0.3779
67336W        W10327  32.730   1.615   7.237 -0.3441 -0.0573 -0.1136
67337W        W10328  16.656   3.206  26.162  0.0190 -0.1122  0.1441
67338W        W10329  30.232   0.560  16.458 -0.2156 -0.0809 -0.1072
67339W        W10330   5.818   5.919  10.131  0.2595  0.0811  0.3762
67340W        W10331  16.228   7.172   1.091  0.1453 -0.2592 -0.0470
67341W        W10332   2.029   5.001  10.989 -0.0745  0.0703 -0.1751
67342W        W10333   9.212  22.048   4.157  0.0996  0.0184 -0.1856
67343W        W10334   5.415   4.233  19.013 -0.4329 -0.0123  0.0327
67344W        W10335  13.334   6.026   0.072  0.1108 -0.0957 -0.3611
67345W        W10336   7.971  34.423  10.381 -0.0677 -0.2981 -0.1631
67346W        W10337   1.504   8.520   0.449  0.3563  0.0828 -0.2739
67347W        W10338  27.614  17.217  23.028  0.2137  0.0854  0.0091
67348W        W10339  20.257  29.041  28.534  0.0435  0.2496  0.1390
67349W        W10340  15.422   8.379  22.365  0.2866 -0.1424  0.1514
67350W        W10341  16.918   5.883   5.016  0.0040 -0.1147 -0.2095
67351W        W10342  15.263   9.822  27.262  0.1792  0.4369  0.0157
67352W        W10343  29.421  16.839   2.427 -0.1231 -0.1136  0.1150
67353W        W10344   5.995   1.014   1.413  0.1268  0.0904 -0.1877
67354W        W10345   5.989   2.741   1.506  0.0963  0.0928  0.1556
67355W        W10346  23.351  32.965   6.154  0.1503  0.0498 -0.1829
67356W        W10347   8.537  19.809  18.670 -0.1614 -0.2619 -0.0618
67357W        W10348   0.210   5.375  26.833 -0.4284 -0.0434 -0.1503
67358W        W10349  20.334   4.704  23.379  0.0454 -0.3379 -0.0869
67359W        W10350  30.846  27.011  20.551 -0.2685 -0.1044 -0.1356
67360W        W10351  19.725  20.511   0.242 -0.0656 -0.0798 -0.0395
67361W        W10352  28.994  21.997  15.087  0.0840 -0.0305  0.0893
67362W        W10353   8.123  33.135  10.118 -0.2355 -0.1141 -0.0657
67363W        W10354   3.896   0.925  18.966 -0.3095 -0.0930  0.1339
67364W        W10355   3.086   7.907   3.185 -0.2977 -0.2041 -0.1226
67365W        W10356  12.958   9.130  28.211  0.1279 -0.0641  0.1157
67366W        W10357  11.462  11.052  23.537  0.0749 -0.0727  0.0299
67367W        W10358   2.958   4.600   0.527  0.0421  0.1906  0.2328
67368W        W10359   8.168   7.566  22.144 -0.0684  0.3123  0.3215
67369W        W10360  32.478   8.386   3.294 -0.1855 -0.1856 -0.0152
67370W        W10361  11.150  27.378   6.570 -0.1471 -0.0820 -0.0311
67371W        W10362  21.482   7.799  18.129  0.1505  0.0833  0.0566
67372W        W10363   7.387  31.854  28.421 -0.0498  0.1231 -0.2334
67373W        W10364  25.353   9.132  26.305  0.0346 -0.1632 -0.1616
67374W        W10365  33.787  18.059  27.111  0.0164 -0.1042  0.1872
67375W        W10366  22.411  29.017  17.851  0.0366  0.3366 -0.0063
67376W        W10367   0.687   9.790   3.950  0.3438 -0.0537  0.1624
67377W        W10368   0.526  24.838   3.975 -0.0617 -0.1579 -0.0293
67378W        W10369  17.388   2.383  23.776  0.0019  0.1622 -0.0824
67379W        W10370  22.598   0.047   3.166 -0.0472 -0.0513 -0.0272
67380W        W10371  13.095   0.766   5.581 -0.0505  0.2426  0.0702
67381W        W10372  17.491  30.259   4.487 -0.0876 -0.0938  0.1922
67382W        W10373   9.063  14.496   6.912  0.0188  0.2105 -0.0534
67383W        W10374  22.695  34.793  22.645 -0.0914 -0.1036  0.4338
67384W        W10375   6.204  31.103  24.431  0.0403 -0.1419 -0.0133
67385W        W10376   1.657   7.995   5.534  0.4312 -0.1603 -0.0109
67386W        W10377   9.176   3.244  10.322  0.4211  0.2340  0.1245
67387W        W10378  13.289  26.172  26.903  0.1552 -0.0320  0.2915
67388W        W10379   6.632  30.000   8.461  0.0022  0.1334 -0.1404
67389W        W10380  13.187  30.981   0.001 -0.1034 -0.1754 -0.2053
67390W        W10381   4.401  24.570  27.688  0.1631  0.4233 -0.0803
67391W        W10382  17.981  30.566  23.123  0.2594 -0.0529 -0.1401
67392W        W10383   5.533  15.027   5.323  0.3047 -0.1143 -0.3289
67393W        W10384  10.923  25.354   2.395 -0.2098  0.2860  0.1750
67394W        W10385   0.943   3.300  18.966 -0.0645 -0.0275 -0.0578
67395W        W10386  15.722  26.633   4.224 -0.0263  0.1806 -0.1063
67396W        W10387   8.707   3.144  10.318  0.0379 -0.0642 -0.1140
67397W        W10388   3.593  11.166  23.913  0.2171 -0.0119  0.1573
67398W        W10389   7.696   5.073   3.451 -0.0921  0.0933  0.0380
67399W        W10390  15.223   0.127   4.613 -0.2751  0.0844  0.0383
67400W        W10391   1.172   4.878   7.068 -0.1817 -0.1061  0.0461
67401W        W10392  11.381  33.508  25.749  0.2169 -0.3031 -0.1181
67402W        W10393  29.882   5.790  23.064 -0.1012 -0.4042  0.3269
67403W        W10394   6.817  33.894   8.793  0.0145  0.1673  0.0862
67404W        W10395  12.591   0.238  24.577 -0.0852 -0.0868 -0.0572
67405W        W10396   6.456  22.470   7.545 -0.2529 -0.1361  0.3974
67406W        W10397  21.248  14.125   1.616  0.0893 -0.1148  0.0396
67407W        W10398  30.343  29.603   8.078  0.1554 -0.1703  0.2404
67408W        W10399  10.192  15.722  24.448 -0.2856  0.0630 -0.0576
67409W        W10400  14.873  12.908   6.854  0.0742  0.0059 -0.3148
67410W        W10401  31.189  28.797   2.124 -0.0135  0.0220 -0.0909
67411W        W10402   1.994  23.803  24.975  0.0578 -0.2041  0.0594
67412W        W10403   3.334  14.002   6.158 -0.0226 -0.0249 -0.0899
67413W        W10404  28.289  26.336  27.820 -0.0429 -0.0087  0.3109
67414W        W10405  21.798  23.102   3.243  0.1829  0.1046  0.1737
67415W        W10406  16.570  12.535   5.114  0.1072  0.2124 -0.1059
67416W        W10407   5.500   8.904   7.500 -0.0212 -0.2673  0.0997
67417W        W10408   5.142  26.182   8.591 -0.5857  0.2515  0.0843
67418W        W10409   7.477  26.962   1.622  0.0284  0.5377  0.1467
67419W        W10410  15.071  30.517   1.985 -0.1818  0.2011 -0.1573
67420W        W10411  16.629  13.519   5.479 -0.1974 -0.2519 -0.2297
67421W        W10412  13.506  17.143  22.450  0.1061  0.0565 -0.2871
67422W        W10413  23.533   1.588   5.972  0.0310  0.1732 -0.3698
67423W        W10414  10.383  34.742  23.495 -0.1671 -0.2243 -0.0119
67424W        W10415   9.605  17.938  24.048 -0.2136 -0.1834 -0.0939
67425W        W10416   7.588  29.829  22.387 -0.2213 -0.0979  0.3937
67426W        W10417  10.857  29.967   0.372 -0.0507 -0.2433 -0.1056
67427W        W10418  33.677  24.765  15.499  0.0230  0.2169  0.3346
67428W        W10419  20.555   1.621   5.764 -0.0353  0.2857  0.0397
67429W        W10420  14.780  17.444   6.529 -0.0350 -0.1841 -0.0590
67430W        W10421  23.603  13.910  24.363 -0.0400 -0.2064 -0.1348
67431W        W10422  10.348  27.706   6.743  0.0733 -0.1767 -0.1835
67432W        W10423   9.399  27.142   2.935 -0.2124  0.1953 -0.0324
67433W        W10424  21.481  32.981   7.122 -0.1353 -0.3427 -0.1309
67434W        W10425  25.541  27.773   5.729  0.0461  0.0844 -0.3718
67435W        W10426  15.079   0.750  25.324  0.1901 -0.1571  0.0062
67436W        W10427  12.107   1.741   3.387  0.0346 -0.2019 -0.1794
67437W        W10428  20.594   0.481  15.178 -0.0048  0.1801  0.1504
67438W        W10429  21.984  18.587   5.468 -0.1587  0.1152  0.1288
67439W        W10430  14.613  32.938   8.751 -0.0742 -0.4574 -0.0053
67440W        W10431  14.214  22.813  25.941  0.1236  0.0710 -0.3148
67441W        W10432  29.316   9.135  25.275  0.0140  0.1598  0.0310
67442W        W10433  32.328  16.637   5.457 -0.3316 -0.0036  0.0201
67443W        W10434   0.643  11.474  10.246 -0.2490 -0.2919 -0.0131
67444W        W10435  17.271  24.627   2.526 -0.1566 -0.2327  0.0714
67445W        W10436  25.731  14.486   2.422 -0.0077 -0.0437  0.3338
67446W        W10437   7.674  31.939   1.946  0.2143  0.0149 -0.0535
67447W        W10438  12.339   6.088  24.857 -0.3337  0.1004  0.0664
67448W        W10439  11.533   4.391  10.338  0.5728 -0.0873 -0.0090
67449W        W10440   3.452   4.994   9.073  0.0855  0.1515  0.3498
67450W        W10441  19.141   3.696  27.320  0.0313  0.0602 -0.2043
67451W        W10442   2.215  17.628   9.575  0.2044  0.1083  0.0230
67452W        W10443  12.280  27.130   8.623  0.2412  0.1948  0.0645
67453W        W10444  27.503   6.785  23.465 -0.0204  0.3076 -0.0375
67454W        W10445  33.382   2.886   7.799  0.4873 -0.2489 -0.0288
67455W        W10446  14.235  32.012   6.906 -0.3679 -0.1676  0.3840
67456W        W10447   4.470   1.748  15.335  0.0591 -0.3646  0.3169
67457W        W10448  13.909   0.803  28.927 -0.1805  0.4114 -0.0456
67458W        W10449  10.035  27.921   9.416 -0.2316 -0.4122  0.0997
67459W        W10450   6.086   5.046   2.174 -0.0421  0.1206  0.1024
67460W        W10451  23.875  29.614   0.713  0.2625 -0.1811  0.1463
67461W        W10452   9.240  13.714  10.030  0.0493 -0.3601  0.0709
67462W        W10453   1.201  33.879   0.727 -0.1350 -0.2131 -0.3219
67463W        W10454   0.151   4.902  21.873 -0.0463  0.1285 -0.1437
67464W        W10455   1.206  13.484   9.371  0.1704 -0.0116  0.0094
67465W        W10456  33.141  31.522   8.578 -0.3874  0.1023 -0.0079
67466W        W10457  21.870   5.848  17.296  0.2491  0.1943  0.3254
67467W        W10458  32.133  26.029  19.087  0.0244 -0.1684  0.0514
67468W        W10459   5.177  30.710  22.095  0.0290  0.0619 -0.2570
67469W        W10460  29.558   7.211  25.851 -0.0940 -0.2024 -0.1848
67470W        W10461  10.206   2.964   9.890  0.1721 -0.0274 -0.1862
67471W        W10462  16.065   4.675  25.465  0.2182 -0.2139 -0.2222
67472W        W10463  15.263  32.546   1.973 -0.0569  0.0839 -0.1341
67473W        W10464  19.716  12.553  16.797 -0.1726  0.1208  0.2536
67474W        W10465  22.454   9.728   1.754  0.3442  0.0099 -0.1218
67475W        W10466   0.390  33.737  26.700  0.0954  0.0301  0.0010
67476W        W10467   1.373   7.787   8.780 -0.1768 -0.2897 -0.0760
67477W        W10468  15.022   5.832  25.904 -0.1111  0.1340  0.3248
67478W        W10469   2.166   3.088   2.658  0.0488 -0.1828  0.0734
67479W        W10470   9.833  32.945   3.893 -0.0699  0.2437 -0.0204
67480W        W10471   7.594   9.137   9.265  0.0825 -0.4876 -0.3142
67481W        W10472  10.913   2.572   7.080  0.0077  0.0819 -0.3559
67482W        W10473   9.139   6.250  21.269  0.2290 -0.1031 -0.1823
67483W        W10474   7.938  16.570  20.016  0.0012 -0.1311  0.4085
67484W        W10475  27.541  23.149   2.873  0.1617 -0.0137 -0.1993
67485W        W10476  25.618   2.987  27.873 -0.4054 -0.1271  0.0341
67486W        W10477  34.382  10.953   0.530  0.0078  0.1261 -0.1286
67487W        W10478  18.044   1.549   6.328  0.0975 -0.2277 -0.0126
67488W        W10479   9.997  11.056  27.564 -0.2290  0.0328 -0.0640
67489W        W10480   8.201  18.719   9.818  0.0542 -0.1171  0.0198
67490W        W10481   1.099  15.712   3.458 -0.1261 -0.3111 -0.1215
67491W        W10482  24.751  33.405   7.822  0.1322 -0.0590  0.1649
67492W        W10483   6.598   8.806   1.963  0.3266  0.0290  0.2397
67493W        W10484  31.338  20.907   7.472  0.1390  0.1236 -0.2099
67494W        W10485  33.030   2.188  16.166 -0.1701 -0.3949  0.0026
67495W        W10486   1.641  10.591  19.578 -0.0877 -0.2539 -0.0528
67496W        W10487   4.173  11.607  25.499  0.3901 -0.0811 -0.4163
67497W        W10488   8.110  19.745   6.840  0.0567  0.0146 -0.0150
67498W        W10489   5.968  12.228   3.783  0.1763 -0.2080  0.1009
67499W        W10490  18.895   5.997   9.480 -0.3084 -0.1135 -0.1356
67500W        W10491  12.618  34.239   8.236 -0.3011 -0.1311  0.0871
67501W        W10492  24.495   8.206   0.887  0.5125 -0.2861  0.1976
67502W        W10493  31.686  31.728   2.382  0.3525 -0.1027  0.1262
67503W        W10494   4.312   4.464  25.517 -0.3262  0.3221 -0.1489
67504W        W10495   4.309   0.378  29.243 -0.1089  0.0366 -0.1124
67505W        W10496  21.544   7.445   4.844  0.1658  0.3303 -0.0927
67506W        W10497  29.298   9.160   2.558 -0.2973 -0.1813 -0.1572
67507W        W10498  12.586  24.772  24.266  0.0273  0.1789 -0.0436
67508W        W10499  18.453   8.009   8.829 -0.1009  0.0753  0.0859
67509W        W10500   4.958  18.865   2.201 -0.3479  0.1909 -0.1859
67510W        W10501  16.402  12.802  25.952  0.3053  0.0342 -0.3108
67511W        W10502   2.815  13.182   5.821  0.1219 -0.0877  0.1129
67512W        W10503  17.101   7.156   5.095  0.3376  0.0163 -0.2755
67513W        W10504  10.703  11.366   4.637  0.0681 -0.1501  0.3678
67514W        W10505  10.971  11.185  28.986  0.1899 -0.0540 -0.1475
67515W        W10506   2.302  13.899   0.919  0.2508 -0.0868  0.0790
67516W        W10507  30.551   8.979  21.900 -0.1386  0.0778 -0.2252
67517W        W10508  25.634  14.230   8.262 -0.0115  0.1630  0.0173
67518W        W10509  11.145  23.218   3.540 -0.0050  0.3329 -0.2419
67519W        W10510   8.040  11.325   7.999  0.1611 -0.1131  0.1274
67520W        W10511  18.648  13.852   2.252  0.4801 -0.0282  0.2653
67521W        W10512   5.534  15.543   4.476 -0.0224  0.0241 -0.0396
67522W        W10513  31.691  22.857   8.206 -0.1373  0.1861  0.1558
67523W        W10514   0.367   7.381   9.905 -0.2387 -0.1150  0.0062
67524W        W10515   6.806  25.529  23.128 -0.0907  0.7141 -0.1844
67525W        W10516  16.106  11.141  23.573 -0.1741 -0.0286  0.2288
67526W        W10517   0.317   1.902  19.889 -0.0077  0.3146 -0.4641
67527W        W10518  32.226   2.173  19.979  0.1094 -0.0067 -0.0295
67528W        W10519  14.086  14.714  25.585  0.2158  0.1978  0.0556
67529W        W10520  23.147   7.318  27.759  0.0678  0.2274 -0.0105
67530W        W10521   2.842   5.294   5.809  0.2042  0.2253  0.3381
67531W        W10522  27.833  23.750   5.588 -0.1506 -0.4464 -0.0591
67532W        W10523   9.758  30.898  27.264 -0.0871  0.1510  0.0525
67533W        W10524  27.824  20.391  28.357  0.4233 -0.1025  0.1873
67534W        W10525  21.349  22.493  27.806  0.0054 -0.2796  0.0778
67535W        W10526  33.646  11.656   0.772 -0.0971  0.1236  0.0946
67536W        W10527  31.711  34.284   1.277  0.0276 -0.3224 -0.0931
67537W        W10528  14.408  24.343   6.827  0.2320 -0.1903 -0.0506
67538W        W10529   9.575   9.191  15.563 -0.2115 -0.3366 -0.1078
67539W        W10530   5.440  14.201   6.308 -0.2729 -0.2687  0.1813
67540W        W10531   0.293   8.738  29.113 -0.0069 -0.0596  0.1592
67541W        W10532   3.194  33.501  23.324 -0.0088  0.2796 -0.2157
67542W        W10533  11.653   1.264  22.388 -0.0947  0.0837  0.0708
67543W        W10534  34.356  14.114  10.470 -0.0807 -0.1252 -0.0462
67544W        W10535  32.212  12.864  27.042 -0.1006  0.4378  0.0636
67545W        W10536  33.071  13.662   1.375  0.0689  0.0954 -0.2381
67546W        W10537  15.847  32.578   6.882 -0.0367 -0.1018  0.0109
67547W        W10538   4.516  21.912  27.239 -0.0905 -0.1361  0.2463
67548W        W10539   4.972  23.031   3.184 -0.1986 -0.0279 -0.1545
67549W        W10540   3.080   4.739   9.857  0.0814 -0.1908 -0.0601
67550W        W10541   0.933   2.070   0.502  0.1035  0.0893  0.2611
67551W        W10542   1.603   0.583  25.124  0.0568 -0.1030 -0.0696
67552W        W10543  25.142  21.243   5.505 -0.0638  0.1644  0.1474
67553W        W10544  30.187  18.368  14.406 -0.1459  0.1607  0.1253
67554W        W10545  11.132  16.467   8.186  0.1275  0.1967 -0.0542
67555W        W10546   3.419   1.292   0.036  0.1363  0.1949  0.0509
67556W        W10547  11.426   8.211  24.784 -0.1394 -0.1215  0.1938
67557W        W10548  10.857   3.692  10.621  0.0212  0.2341 -0.1735
67558W        W10549  27.440   6.771  17.337 -0.1222  0.0644 -0.1499
67559W        W10550   5.164  16.511   4.110  0.3749 -0.3601 -0.2967
67560W        W10551  33.081  16.706  17.829  0.2617  0.3210 -0.4103
67561W        W10552   7.939  21.907  29.206  0.1946  0.0634 -0.0869
67562W        W10553  15.213  10.756  28.686 -0.1936  0.1872  0.0243
67563W        W10554  32.871   7.649  16.462  0.1333  0.0116 -0.1154
67564W        W10555  14.313   5.667  11.168 -0.1633 -0.1037 -0.1130
67565W        W10556  15.371  32.789  16.788  0.2174  0.0501  0.3145
67566W        W10557   5.657  26.824   9.869 -0.0164 -0.3613  0.0380
67567W        W10558  33.582  33.624  13.658 -0.2899  0.0069 -0.0192
67568W        W10559  27.684   2.028  28.669 -0.1449  0.2202  0.0937
67569W        W10560  18.973  19.471  28.750 -0.3362  0.0205 -0.2868
67570W        W10561   6.031  25.932  27.216  0.1296 -0.0160 -0.1342
67571W        W10562   9.148  20.463  17.187  0.2388 -0.1575  0.2471
67572W        W10563  13.649  14.730  21.324  0.4193 -0.1455 -0.3539
67573W        W10564  31.853  12.528   8.553  0.0653 -0.1182 -0.1512
67574W        W10565   7.627   4.482  26.402 -0.5096 -0.0716  0.0836
67575W        W10566  34.631   5.903   5.493 -0.1020  0.2280  0.0952
67576W        W10567   2.953  18.096   9.163 -0.1599 -0.2464  0.3299
67577W        W10568   3.440   9.367  10.704  0.0336  0.0680 -0.3266
67578W        W10569   8.667  13.134   5.796 -0.0118  0.0958 -0.3607
67579W        W10570  19.517   1.571  23.915  0.1038 -0.1095 -0.1234
67580W        W10571  32.854  17.020   7.562 -0.1307  0.0071  0.2092
67581W        W10572  29.377   4.150   4.299  0.0668 -0.1946  0.0071
67582W        W10573  12.788   3.256   2.716  0.0257 -0.0438 -0.0036
67583W        W10574   7.858  30.612   7.643  0.3577 -0.4552 -0.1599
67584W        W10575  30.233  12.346   8.700  0.3138 -0.2740 -0.3829
67585W        W10576  33.350  26.287  25.396 -0.0387  0.0480 -0.1606
67586W        W10577  18.649   5.312  26.402  0.0098 -0.1063  0.1749
67587W        W10578   7.251   2.323   3.240  0.2151 -0.1649 -0.0730
67588W        W10579   1.748  31.954   3.984  0.0881  0.1963  0.4971
67589W        W10580   5.968  15.091   0.881  0.0028  0.2234  0.0772
67590W        W10581   1.990  27.388   4.747 -0.0431  0.4725  0.4205
67591W        W10582  18.489   8.436   8.581  0.0287  0.1167 -0.0655
67592W        W10583  24.583  22.576  21.813 -0.1374  0.5413  0.0169
67593W        W10584  15.475  18.439  22.134 -0.1678  0.0331 -0.3072
67594W        W10585   6.191  11.871  25.172  0.1808 -0.2421 -0.1008
67595W        W10586  16.165   8.219  28.776  0.1016 -0.0001 -0.0494
67596W        W10587  17.463   9.510   2.170 -0.0100 -0.0936 -0.2657
67597W        W10588  25.419   9.535   2.655 -0.2499  0.1912  0.1815
67598W        W10589  12.929  23.395  29.242  0.3031  0.0212 -0.1638
67599W        W10590   4.699  14.015   7.655  0.0325  0.0527  0.2066
67600W        W10591   1.324  15.826  24.872  0.2995 -0.3482 -0.1082
67601W        W10592   6.268  29.866   8.031 -0.2605 -0.0105  0.0196
67602W        W10593  32.167  15.542   5.383 -0.0724 -0.3804  0.2235
67603W        W10594   6.219  11.174  28.109  0.1269 -0.0044 -0.1537
67604W        W10595   9.489  29.128   3.424 -0.2423  0.2289 -0.3589
67605W        W10596   5.055  33.080   3.418 -0.0828 -0.2842 -0.0143
67606W        W10597  28.993  10.750  16.507 -0.0558 -0.0457 -0.0927
67607W        W10598   1.441   4.678  19.125 -0.0046 -0.0892 -0.1217
67608W        W10599  31.523   6.577   1.479 -0.1973  0.0068 -0.2182
67609W        W10600   5.149   0.635  19.255  0.0714 -0.2827 -0.0618
67610W        W10601   6.725   5.732   7.094 -0.2956 -0.1896  0.1128
67611W        W10602  15.380   0.717   7.398 -0.0431 -0.2129  0.2334
67612W        W10603  18.315   0.329   6.709  0.0032 -0.1560  0.0807
67613W        W10604  17.949  34.233  26.859  0.2971 -0.1058  0.0129
67614W        W10605  14.330   4.174   9.530 -0.1642 -0.1156  0.1289
67615W        W10606  13.386  10.036   8.160 -0.1577 -0.0020  0.2792
67616W        W10607  20.658  29.733  24.821 -0.1971  0.1082  0.1436
67617W        W10608  31.731  16.070   6.330  0.0215 -0.0484  0.0819
67618W        W10609  29.950  12.222  18.550  0.0842  0.0772 -0.1717
67619W        W10610   2.647   5.057   8.727 -0.0954  0.0721  0.0769
67620W        W10611  10.230  14.274   0.101  0.0358 -0.2475  0.0911
67621W        W10612  32.573  13.572  27.314 -0.0276 -0.2042  0.1315
67622W        W10613   7.102  11.535   7.832  0.0512 -0.1896  0.0737
67623W        W10614  17.271  11.211  26.725 -0.0343  0.0327 -0.0461
67624W        W10615   4.347   5.940   9.958 -0.0867  0.1461 -0.2421
67625W        W10616   4.389  20.977   0.728 -0.0774 -0.0059  0.3097
67626W        W10617   3.720   0.773  27.341  0.0183  0.0658 -0.3730
67627W        W10618  21.825  18.999  24.799 -0.1915  0.2316 -0.4439
67628W        W10619   0.136   3.931   3.493 -0.0719 -0.0435 -0.0600
67629W        W10620  13.398  12.838  28.890  0.3674  0.2697 -0.2983
67630W        W10621  11.524  32.828   5.241  0.1337 -0.1377  0.1575
67631W        W10622   2.554  18.909  28.492 -0.0690 -0.1102 -0.2654
67632W        W10623   2.106  11.065   3.209  0.1405  0.0951  0.1098
67633W        W10624  34.290  29.700   7.139 -0.1538 -0.0467 -0.1680
67634W        W10625  26.039   4.020  28.855  0.0653  0.1861 -0.4769
67635W        W10626   7.947  28.117   9.213  0.1730 -0.0069 -0.1060
67636W        W10627  31.633   4.703   7.201 -0.2761 -0.0248 -0.1426
67637W        W10628   4.252  26.541   6.670  0.1777 -0.0052  0.0113
67638W        W10629  14.349  32.797   9.635 -0.2151 -0.5696  0.1079
67639W        W10630  21.856   8.597   8.746 -0.0164  0.2456  0.0844
67640W        W10631  10.609  10.295  27.805 -0.1323  0.1123  0.1652
67641W        W10632  10.170  18.242   8.723  0.0122  0.1825 -0.0005
67642W        W10633  12.422  32.417  23.708 -0.0465  0.1402 -0.2232
67643W        W10634   1.461  21.341  10.520 -0.3034 -0.1324  0.2881
67644W        W10635  31.780  26.347  28.985  0.0070 -0.2907  0.0505
67645W        W10636  23.864  10.087  28.261  0.1016 -0.3628 -0.3493
67646W        W10637  25.170   7.122  24.181  0.0518 -0.2819 -0.2072
67647W        W10638  34.561  11.236   0.919  0.1334 -0.0041 -0.0897
67648W        W10639   3.224   0.448   7.022  0.0502  0.2047 -0.2501
67649W        W10640   7.765  13.653   8.085  0.1959 -0.0067  0.3484
67650W        W10641  28.908   4.318   7.320  0.0422 -0.1586  0.1669
67651W        W10642  30.652  21.042   5.966 -0.0357 -0.2359  0.1138
67652W        W10643   7.398  16.668   8.127  0.1451  0.4273  0.3804
67653W        W10644  29.159  11.829   4.427  0.4072 -0.1894 -0.1104
67654W        W10645  14.351  16.868   3.252  0.1246 -0.1650  0.0157
67655W        W10646   6.295   1.568  14.535  0.0257  0.1427 -0.1001
67656W        W10647  20.566  14.567   0.589 -0.0481  0.2895  0.1955
67657W        W10648   7.398  25.758   1.935  0.4192  0.0933 -0.1130
67658W        W10649  11.956  31.851   5.229 -0.2389  0.1331  0.2956
67659W        W10650  29.189  17.295   2.237 -0.1988  0.0213 -0.0899
67660W        W10651   2.807  23.713   7.584 -0.0657  0.0858  0.1026
67661W        W10652  25.174  26.498   4.872 -0.0693  0.2510 -0.0065
67662W        W10653  10.764  34.298   3.335  0.2962 -0.3868 -0.0565
67663W        W10654   9.206  33.287   8.686  0.1775  0.3173  0.3667
67664W        W10655  34.085   7.738   6.834 -0.4408 -0.2871  0.1314
67665W        W10656   3.184  31.277   4.919  0.0287  0.0313 -0.2230
67666W        W10657   8.334   6.082   8.758  0.1435 -0.0741 -0.1299
67667W        W10658   2.015   6.923   2.537 -0.1505 -0.3712  0.0207
67668W        W10659   4.233   4.141  23.612 -0.0589 -0.1446 -0.0378
67669W        W10660   7.200  32.540   1.459 -0.2021 -0.0321 -0.0500
67670W        W10661   3.351  30.704   1.673 -0.0691 -0.0881  0.1217
67671W        W10662  24.208   2.505   4.614  0.3181 -0.0937  0.0013
67672W        W10663   5.176  15.661   6.204 -0.0033 -0.3040  0.0624
67673W        W10664  31.755   4.410  28.425  0.1053  0.2494  0.0744
67674W        W10665   8.066  25.026   3.988  0.0759 -0.0978 -0.0148
67675W        W10666  33.674  31.587   7.685 -0.1839 -0.0998  0.1169
67676W        W10667  34.053  32.771   4.137 -0.2093  0.2523  0.2679
67677W        W10668  27.943  24.199   3.761  0.0021 -0.1794 -0.3648
67678W        W10669   2.352   5.894   8.823 -0.0242 -0.1925 -0.1217
67679W        W10670   2.853  11.036  27.373 -0.0842 -0.1224 -0.2237
67680W        W10671   5.094  12.334   5.243  0.0836 -0.2377 -0.2200
67681W        W10672  15.464   1.161   0.541 -0.0423  0.0999  0.0469
67682W        W10673  14.904  13.570  28.774 -0.0289  0.2314  0.0970
67683W        W10674   8.155  10.651   1.120 -0.0345  0.2000 -0.0029
67684W        W10675   7.234   1.831   6.173 -0.3820  0.0303 -0.1164
67685W        W10676  23.397  26.298  26.773  0.1107  0.1628  0.0672
67686W        W10677   6.172  30.010  10.232  0.1119  0.1763  0.1525
67687W        W10678  33.696  16.376   5.115 -0.0639  0.3130 -0.0443
67688W        W10679   6.237  19.984  22.691  0.0180 -0.0657  0.2115
67689W        W10680  24.691  28.392  15.081  0.0310  0.0044 -0.0404
67690W        W10681  22.997  21.210  29.225  0.2801  0.2234 -0.0794
67691W        W10682  20.251  25.874   5.953  0.0469 -0.0072 -0.3478
67692W        W10683  12.038  21.614  25.875  0.1066 -0.1354  0.1507
67693W        W10684  31.692  16.163   9.686  0.4549 -0.0107 -0.2192
67694W        W10685   5.606  13.070  11.671 -0.1471  0.4142 -0.1998
67695W        W10686   8.909   4.130  21.410  0.0103  0.0195  0.2790
67696W        W10687  30.576  11.631  28.087 -0.2820 -0.0856 -0.0839
67697W        W10688   8.979  29.597   9.745  0.3456  0.2726  0.2365
67698W        W10689  14.969  33.685   5.505  0.0169 -0.0712  0.0227
67699W        W10690   6.832   0.746   5.733 -0.3545 -0.0549  0.0163
67700W        W10691  17.522  28.415   5.218  0.0754  0.1396 -0.0068
67701W        W10692   1.056   6.936   1.895 -0.1035 -0.0349  0.0312
67702W        W10693  13.339   4.066   1.067 -0.1322  0.0894  0.2951
67703W        W10694   9.010  16.167   7.295  0.1178  0.0304 -0.1832
67704W        W10695   2.757   7.210   5.319  0.1671 -0.2615  0.0028
67705W        W10696  29.072  31.318   8.198 -0.4172 -0.3626  0.0706
67706W        W10697  30.879  17.346   6.520  0.1985 -0.2750  0.0431
67707W        W10698   8.599  31.516  10.357 -0.0939 -0.2165  0.3871
67708W        W10699  22.726  32.574  27.278  0.3357  0.1897  0.0770
67709W        W10700   6.838  19.014  28.940  0.0709  0.1395  0.2617
67710W        W10701  12.828   7.088   9.830  0.2272 -0.1976 -0.0239
67711W        W10702  26.287  18.339  13.954 -0.0922 -0.0304  0.1297
67712W        W10703  13.153  14.983  28.424  0.1038  0.1494 -0.2672
67713W        W10704   3.443   6.481  10.509 -0.1212 -0.0355  0.1900
67714W        W10705  16.241   7.127   2.317  0.0199  0.5831  0.2839
67715W        W10706  29.507  32.935  24.808 -0.0572  0.2212 -0.1844
67716W        W10707  11.107  30.213  23.642 -0.0919 -0.0840  0.1688
67717W        W10708  11.867  20.334   6.942 -0.2390 -0.2342 -0.0828
67718W        W10709   5.500   0.727   4.664 -0.0527  0.0953 -0.0531
67719W        W10710  26.799  22.576   7.562  0.2106  0.0938 -0.1609
67720W        W10711  10.929   2.501   2.223  0.1251 -0.0338 -0.0485
67721W        W10712   7.554   4.242   9.126  0.0158 -0.6672  0.1236
67722W        W10713  13.019   3.669   9.521  0.0716  0.1013  0.0590
67723W        W10714  13.875  16.407   5.447 -0.3545  0.1115 -0.0132
67724W        W10715   0.561  27.548  16.044  0.1653 -0.2720  0.2438
67725W        W10716  30.128  15.105   9.545 -0.3464  0.3754  0.3844
67726W        W10717  15.136   2.526   9.899 -0.1889  0.0012 -0.0629
67727W        W10718  14.733   0.834  23.888  0.2661  0.0682 -0.3223
67728W        W10719  10.434   2.992  10.876  0.1964 -0.4264 -0.1824
67729W        W10720   8.696   1.820   1.088 -0.0505  0.0725 -0.1427
67730W        W10721   1.957  32.966  28.033 -0.3651 -0.0239 -0.0860
67731W        W10722   7.702  11.981   7.655 -0.2537  0.3383  0.0979
67732W        W10723  12.042  12.530   7.434 -0.1382  0.0739 -0.0577
67733W        W10724  13.881  24.704   8.531 -0.3256 -0.1671 -0.2882
67734W        W10725   2.334   7.110   8.248  0.3945  0.1780  0.2329
67735W        W10726  16.560  20.949   4.057 -0.0923  0.2352  0.1654
67736W        W10727   3.298   4.981  10.775  0.1551 -0.0286 -0.0305
67737W        W10728   5.141   6.699   6.827  0.1150  0.2557  0.1709
67738W        W10729   8.908   7.101   4.683 -0.1135  0.2335 -0.2173
67739W        W10730   7.837   6.070   2.437 -0.0422 -0.1882  0.3014
67740W        W10731  26.645   2.651   2.625  0.1270 -0.0605  0.0091
67741W        W10732   5.663   8.848   9.243  0.0849 -0.1930 -0.2365
67742W        W10733  29.673  13.204   9.018  0.0138  0.0574  0.0919
67743W        W10734   4.258   4.210   5.008 -0.1909 -0.2046  0.0304
67744W        W10735  10.192  31.557  21.391  0.0201 -0.0330  0.0787
67745W        W10736  12.825  14.127  18.272 -0.4458  0.3650 -0.3089
67746W        W10737  14.427  30.400   1.459  0.1260  0.0884 -0.0519
67747W        W10738  11.738   2.947   7.092  0.0511  0.1517  0.0588
67748W        W10739  24.647  12.164  21.478  0.1317  0.1197 -0.1187
67749W        W10740   2.227   4.113  10.459 -0.2252 -0.1350  0.1087
67750W        W10741   4.247  32.539   7.654 -0.3822 -0.4439 -0.4914
67751W        W10742  16.384  11.630  25.408  0.0834  0.0587  0.1077
67752W        W10743  30.203   7.979   3.564 -0.0777  0.0088 -0.1622
67753W        W10744   2.344  13.514   3.988 -0.1164  0.0283 -0.0345
67754W        W10745  29.537  27.872   5.138  0.1795  0.3390  0.2051
67755W        W10746   3.212  34.797   8.675 -0.0301  0.2102 -0.0627
67756W        W10747  16.671  12.077   5.295 -0.1205  0.0165 -0.3097
67757W        W10748  13.242   4.232  28.012 -0.1391  0.2837  0.1104
67758W        W10749  11.475  11.049  16.026 -0.1638 -0.0141 -0.2484
67759W        W10750  14.301  13.359  23.108 -0.0293 -0.2066 -0.1295
67760W        W10751   2.958  16.960   1.840  0.2248  0.3516 -0.1402
67761W        W10752   5.522  17.956  17.573  0.3140  0.0713 -0.1910
67762W        W10753  16.153   5.017   6.294 -0.1316 -0.0957  0.1362
67763W        W10754   1.287  17.023   3.412  0.1735 -0.1886 -0.1283
67764W        W10755   3.307  11.387   8.533 -0.0144  0.0522 -0.0257
67765W        W10756  33.351  20.919   4.366 -0.0573  0.0864 -0.2391
67766W        W10757   5.369  13.778  11.078 -0.0296  0.3476  0.1447
67767W        W10758   8.040   6.717   0.334  0.4442 -0.0113 -0.0890
67768W        W10759  33.116   7.771   7.097 -0.0799 -0.0881 -0.1554
67769W        W10760   9.449   9.805   1.857  0.2241 -0.2641 -0.3296
67770W        W10761  31.155  32.742   7.567  0.0458  0.0138 -0.3698
67771W        W10762  15.301  25.038  16.939  0.1133  0.0542  0.2552
67772W        W10763   8.762   5.935   8.427 -0.0249  0.0037  0.0519
67773W        W10764   7.880   9.463  25.895  0.1067  0.0422  0.1814
67774W        W10765  10.782  34.755  22.696  0.0336 -0.1763 -0.0190
67775W        W10766  12.661  10.701   8.458  0.1849  0.1540 -0.1676
67776W        W10767   5.283  10.724   8.756  0.0318 -0.1471  0.1240
67777W        W10768   5.470  19.818   9.013  0.0100  0.0579  0.1072
67778W        W10769  18.394   8.901  19.847 -0.0082  0.1989 -0.1246
67779W        W10770   8.387   1.793  18.002 -0.1108  0.1958  0.4627
67780W        W10771  20.560  23.946   8.562 -0.1230  0.1945 -0.0855
67781W        W10772  11.929  30.487   5.922 -0.2387  0.0207  0.3141
67782W        W10773   8.825  17.617   9.052  0.1156  0.1497 -0.0867
67783W        W10774  34.130   1.990   7.457  0.0006  0.1537 -0.1724
67784W        W10775  22.860   4.947  20.283 -0.0510 -0.0033  0.3496
67785W        W10776  10.474   5.401  10.623  0.0902 -0.0262  0.0489
67786W        W10777   6.128   3.022   3.087 -0.0657 -0.1287  0.2722
67787W        W10778   4.575  12.761  23.424 -0.2966 -0.1026  0.4889
67788W        W10779  13.230   5.065   4.338  0.1409  0.3535  0.2282
67789W        W10780  23.823  15.475  24.335  0.0350 -0.0444  0.1510
67790W        W10781   7.822   2.273   8.269 -0.1807 -0.2070 -0.0086
67791W        W10782   6.952  29.810   0.514  0.0036  0.0456  0.3462
67792W        W10783   7.496   8.342   7.966 -0.2574  0.1546 -0.3077
67793W        W10784   6.556   8.949   8.748  0.1313  0.1599 -0.1585
67794W        W10785  13.607   2.016   6.586 -0.0414  0.3177  0.1438
67795W        W10786   1.574   1.282   7.739  0.2323  0.1531 -0.4176
67796W        W10787   1.495   3.496   3.712  0.0468  0.1149 -0.2335
67797W        W10788  29.901  26.035  28.760  0.0127 -0.1505  0.0993
67798W        W10789  16.731  25.675   4.199  0.2097 -0.0315 -0.0014
67799W        W10790  14.952  31.210  28.961 -0.0202  0.0868  0.1689
67800W        W10791  26.424  10.926  22.551  0.1902  0.2237  0.0158
67801W        W10792   8.387   9.107   2.736 -0.1037  0.0933 -0.0608
67802W        W10793  17.949   9.638   9.125 -0.1758  0.0375 -0.0553
67803W        W10794   5.152   8.958   6.417 -0.1783  0.0576 -0.0579
67804W        W10795   4.761   0.196  16.372 -0.1570  0.0101  0.2087
67805W        W10796  11.008   7.151   3.048 -0.0049  0.1233 -0.0686
67806W        W10797  10.421   9.914   5.809  0.2626 -0.1741  0.0510
67807W        W10798  12.861  17.046  28.609  0.2878 -0.2861  0.2596
67808W        W10799  21.477  24.498  14.846  0.0084 -0.0851  0.2064
67809W        W10800   1.050  28.871   9.679  0.1333 -0.1478  0.0817
67810W        W10801  24.778  33.146   3.765  0.2710 -0.1417 -0.1616
67811W        W10802   4.440  18.072  27.485 -0.1427 -0.1882 -0.1797
67812W        W10803  34.051  10.533   6.740 -0.1595  0.2831  0.0311
67813W        W10804  23.253   6.297   0.428 -0.1272 -0.2704 -0.3572
67814W        W10805   5.932  32.175   5.729  0.0325  0.2572 -0.0907
67815W        W10806  15.727  30.459   7.780 -0.2370  0.1567 -0.2828
67816W        W10807   8.497  16.032  27.273 -0.0530 -0.1973 -0.0971
67817W        W10808   2.483   0.158   3.110  0.1356  0.0849  0.0873
67818W        W10809  14.631  31.296   1.086  0.1358 -0.2347 -0.0883
67819W        W10810  13.749   4.274  11.611 -0.1220 -0.0923  0.4904
67820W        W10811  19.345   1.174   6.991  0.1484 -0.1613 -0.2225
67821W        W10812  33.369   1.463   3.423 -0.2656  0.2932  0.1886
67822W        W10813   9.843  30.048   7.747  0.0701  0.4406  0.1413
67823W        W10814  12.434  29.055   8.564 -0.0838 -0.0164 -0.1114
67824W        W10815  22.473  16.473   1.282 -0.2855  0.1951 -0.4036
67825W        W10816  27.441   7.458   9.117  0.0985 -0.3606 -0.1562
67826W        W10817  29.816   2.870   7.832 -0.2850 -0.0226 -0.1061
67827W        W10818   5.478   1.558   0.824 -0.0319  0.2205 -0.3099
67828W        W10819  16.481  11.583   9.785  0.0918  0.0190 -0.2123
67829W        W10820  20.679  30.965  22.306  0.2626  0.1926 -0.2775
67830W        W10821  30.536  34.233   0.992  0.4353 -0.0495 -0.0065
67831W        W10822   3.408  11.019   4.540  0.1221  0.1019 -0.1319
67832W        W10823  33.779   3.103   7.105 -0.0892 -0.3268 -0.0597
67833W        W10824  17.841   3.603   3.539 -0.0697  0.0831 -0.2444
67834W        W10825  15.929   7.073  29.032  0.1136 -0.2167 -0.2337
67835W        W10826  12.189  12.655   9.669  0.0660 -0.0822 -0.2728
67836W        W10827   5.199  11.652   1.963 -0.2117 -0.1140  0.2982
67837W        W10828  21.237  11.988  22.261 -0.2634  0.0849  0.0669
67838W        W10829   9.941   7.675  22.441  0.0054 -0.0155  0.0160
67839W        W10830  10.080  10.012   9.909 -0.4479  0.0096 -0.1174
67840W        W10831  31.466  13.760   4.333 -0.0060  0.2266  0.0018
67841W        W10832  27.209  32.066  28.912 -0.1340  0.4347  0.1288
67842W        W10833   0.519  11.297  21.439 -0.1133 -0.0465  0.0759
67843W        W10834  26.258   1.443   7.506  0.1015  0.4108 -0.0780
67844W        W10835   8.673  16.638   9.776 -0.4622 -0.2730  0.1788
67845W        W10836  28.072   4.049   8.132 -0.2087 -0.2834  0.1593
67846W        W10837  11.469   1.460   8.343 -0.0485  0.2264 -0.0255
67847W        W10838   6.603  31.083  27.614  0.2417  0.2093  0.2748
67848W        W10839  13.394  10.978   5.450  0.0890 -0.1686 -0.3873
67849W        W10840  33.539  32.290  21.999  0.0655 -0.0538 -0.1426
67850W        W10841  17.155  11.615  24.292  0.1646 -0.0856  0.2688
67851W        W10842  33.128   0.526   7.552 -0.0490  0.1695 -0.0431
67852W        W10843   8.568  27.778  16.129 -0.2875  0.2462 -0.2447
67853W        W10844  19.972  27.020   2.846  0.0286 -0.0705  0.1295
67854W        W10845   1.865  10.398   8.910 -0.0625  0.1315  0.1899
67855W        W10846  22.203   1.320  28.707 -0.3176 -0.0549 -0.0473
67856W        W10847  20.157  27.178   3.571  0.1177 -0.0912  0.2311
67857W        W10848   4.403   7.089   6.236  0.0491  0.0254  0.0200
67858W        W10849   4.664   6.412  28.029  0.0682 -0.0966  0.3265
67859W        W10850  34.718  10.191   1.949  0.1734 -0.1122 -0.3004
67860W        W10851  16.697   1.193   2.336  0.0154  0.1712 -0.0859
67861W        W10852   7.346  29.826   4.697  0.1542 -0.1731  0.1529
67862W        W10853  19.874   0.705   2.191  0.1816  0.1111 -0.0448
67863W        W10854  10.955   3.826  18.606 -0.1438  0.0301 -0.0276
67864W        W10855  13.648  34.271  26.165  0.1414  0.0955  0.2224
67865W        W10856  16.766  27.224   3.644  0.0099  0.0618  0.2760
67866W        W10857   8.427   4.773   8.269 -0.2314 -0.0411  0.1515
67867W        W10858  31.584  34.075   6.031  0.1394 -0.1698 -0.1150
67868W        W10859  10.830   2.047  24.841  0.1503 -0.0096 -0.0383
67869W        W10860  16.303   0.950  24.545  0.0226  0.1006 -0.1650
67870W        W10861  23.770   2.914  26.459 -0.2041  0.1848  0.0792
67871W        W10862  15.823   4.611  20.220  0.2497 -0.1392 -0.0119
67872W        W10863  25.082  30.207   0.963  0.0871  0.0594  0.1412
67873W        W10864  12.557   7.159  20.476 -0.0133 -0.2442  0.0412
67874W        W10865  19.203  26.560  25.740  0.0993 -0.0619  0.0081
67875W        W10866  34.017  10.369   7.984 -0.1931 -0.1863  0.0082
67876W        W10867  11.211   1.536   3.688  0.0257  0.1991  0.2203
67877W        W10868  21.712  12.961  23.435 -0.0284  0.1449 -0.2939
67878W        W10869  15.428  11.160   4.691  0.2514 -0.0602 -0.0408
67879W        W10870  14.581   8.632   6.090 -0.0126 -0.1712  0.0547
67880W        W10871   2.220   5.982   6.490 -0.3186  0.3827  0.0675
67881W        W10872  32.989  31.831   2.023 -0.0465  0.1900  0.3068
67882W        W10873   9.465   6.354   0.832 -0.0997 -0.1178 -0.2825
67883W        W10874  12.509   4.321  10.408 -0.1757  0.1866 -0.2383
67884W        W10875  10.816  33.062  27.633  0.3030 -0.0348  0.5058
67885W        W10876  31.158  23.979   2.242 -0.2279  0.0955  0.3183
67886W        W10877  13.708  33.634   7.023  0.1010  0.1187 -0.2453
67887W        W10878   2.610  17.318   4.418 -0.1404  0.0650  0.3981
67888W        W10879  11.971  32.156   7.304  0.0908 -0.2479  0.3265
67889W        W10880   4.104   3.208   2.800 -0.3818 -0.2347 -0.1290
67890W        W10881   6.974  31.694   0.304 -0.2431  0.3038  0.0646
67891W        W10882  19.877  12.735   6.587  0.0077  0.0111  0.3430
67892W        W10883  33.175  11.269   8.595  0.2138 -0.1519  0.3527
67893W        W10884  11.484   6.711   8.748  0.3942 -0.1783 -0.0605
67894W        W10885  12.085   7.032  11.596  0.3850 -0.0053  0.2554
67895W        W10886  28.650   8.721   0.255  0.3395 -0.0874  0.1451
67896W        W10887  30.136  20.444  19.284  0.1828  0.0297 -0.0060
67897W        W10888   7.923   8.449   6.412  0.1496 -0.0463 -0.2216
67898W        W10889  16.629   9.895   3.019  0.0834  0.0533 -0.0981
67899W        W10890  31.441  18.314   6.680 -0.3043  0.1918  0.1077
67900W        W10891  12.533  33.262  28.644 -0.2143 -0.0074  0.2791
67901W        W10892  32.661   5.469   6.502  0.1054  0.1844  0.1094
67902W        W10893  30.741  32.908  26.651  0.1689 -0.2393 -0.2881
67903W        W10894   5.477   8.980   8.007 -0.0732  0.0436 -0.1891
67904W        W10895  11.685  20.932   8.964  0.0961  0.2325  0.1525
67905W        W10896   9.399   4.631  28.444  0.1480 -0.5335 -0.2180
67906W        W10897   7.731   8.014   8.951 -0.3877 -0.0578  0.3071
67907W        W10898  32.261  11.580  17.427 -0.1097 -0.0621 -0.2251
67908W        W10899   5.123   7.337  11.574  0.0653  0.0609  0.1606
67909W        W10900  17.759  16.979   6.824 -0.2878  0.0449  0.2339
67910W        W10901  14.244  34.357   2.243 -0.0667 -0.2854  0.3478
67911W        W10902   3.692   8.584   4.230 -0.0812 -0.2332 -0.2707
67912W        W10903   9.614   6.832  10.409 -0.1228 -0.1839  0.0701
67913W        W10904   7.388  31.279  19.967 -0.3412  0.1186 -0.4092
67914W        W10905   6.990  26.970   8.984  0.1706  0.4968  0.0163
67915W        W10906  34.152  30.082   6.340  0.0964  0.2997  0.0437
67916W        W10907  21.497   4.659   4.765 -0.0850  0.1930 -0.0750
67917W        W10908   3.750   0.178   7.866  0.0032  0.2077 -0.0740
67918W        W10909  11.674  27.562   1.436 -0.3686 -0.1779 -0.2144
67919W        W10910   3.487  21.328  26.126  0.3303 -0.0305  0.0175
67920W        W10911  34.266  33.694  21.174 -0.1055 -0.0394 -0.2378
67921W        W10912   9.316  14.716  23.295  0.1310  0.0277  0.0016
67922W        W10913  22.952  14.697   6.269  0.1155  0.2281 -0.2026
67923W        W10914  13.843   5.941   6.213  0.0330 -0.0542  0.1833
67924W        W10915   4.418  17.270  11.513 -0.0048  0.0313 -0.2203
67925W        W10916   8.340   1.666  23.918  0.2707  0.2937 -0.1128
67926W        W10917  19.548   7.661  19.961 -0.2859 -0.0914 -0.2178
67927W        W10918  34.626  27.686   0.791  0.2463  0.0080  0.0517
67928W        W10919  19.596   3.562   6.112 -0.2382 -0.0146  0.0817
67929W        W10920  24.942  32.746   5.356  0.2814  0.2528 -0.0338
67930W        W10921   7.660   1.201  25.236 -0.0887  0.0677 -0.0218
67931W        W10922   5.733  19.427  27.880  0.3104  0.1549 -0.1800
67932W        W10923  25.019   2.731   3.077 -0.2027  0.0901  0.1008
67933W        W10924   6.178   3.106   0.670 -0.0717 -0.1081  0.3449
67934W        W10925  12.559   5.896   1.372  0.0697  0.0037  0.1104
67935W        W10926  27.564  10.554  24.547 -0.1238 -0.0207 -0.1476
67936W        W10927  21.870   1.618   0.932  0.1203  0.0894  0.2919
67937W        W10928  33.497  26.670   7.962 -0.1476 -0.0521  0.0508
67938W        W10929  22.873  27.465   8.853 -0.2342 -0.1151  0.0278
67939W        W10930   8.128   8.312   4.945 -0.1437  0.0341  0.0992
67940W        W10931  26.234  10.786   8.932 -0.0680 -0.1991  0.5584
67941W        W10932   4.711  18.483  26.217  0.0564  0.2265 -0.1505
67942W        W10933   3.790  27.625  23.711 -0.3474 -0.2653 -0.2978
67943W        W10934   6.187   5.072   6.796  0.3758  0.0964  0.0228
67944W        W10935   8.394  29.266   0.814 -0.0385  0.0272 -0.0496
67945W        W10936  34.664   7.395   3.057  0.0825 -0.1968 -0.0741
67946W        W10937   6.038  18.803   6.994 -0.2211  0.0334 -0.2692
67947W        W10938  20.298  13.231   3.001 -0.0266  0.2747  0.0469
67948W        W10939  17.240   4.377  28.757 -0.2585  0.0500  0.2175
67949W        W10940  25.588  28.570   6.357  0.3383 -0.0582  0.1312
67950W        W10941   9.913   1.180   6.894  0.0194  0.0114 -0.1008
67951W        W10942  30.183  14.691   4.010  0.2157 -0.0687 -0.0454
67952W        W10943  21.338  34.526   4.552 -0.0011 -0.0410 -0.2684
67953W        W10944   8.968  19.037  25.650 -0.0080  0.0218  0.0309
67954W        W10945  32.126   2.894   8.611 -0.0669  0.0406  0.1313
67955W        W10946  33.367   0.336  26.056 -0.1146 -0.0046 -0.0124
67956W        W10947  19.080  28.854   4.381 -0.0239  0.1813 -0.0094
67957W        W10948   1.141  12.943  25.318  0.0169  0.0015 -0.0395
67958W        W10949  20.771   7.818   4.212  0.4226  0.4622  0.1445
67959W        W10950  25.536   6.466   7.047  0.0447 -0.0233 -0.0107
67960W        W10951  27.900  13.318   5.872  0.0246  0.0275 -0.2181
67961W        W10952  21.444   3.978   7.385  0.2673 -0.2749  0.1458
67962W        W10953  16.473  25.086   2.874 -0.1465  0.1785  0.1281
67963W        W10954  10.715   1.677   5.471  0.1375 -0.0523 -0.1457
67964W        W10955  18.832  27.947   5.845 -0.0428 -0.0168 -0.1179
67965W        W10956   8.333   3.891   9.683 -0.1508 -0.1231  0.0429
67966W        W10957  33.701   6.651   9.844 -0.3386  0.1410  0.1540
67967W        W10958   6.352  17.514   4.466  0.0677  0.2066 -0.1431
67968W        W10959   8.623  33.252   6.710 -0.1741  0.4816  0.3754
67969W        W10960   8.342  32.824  27.509  0.1086 -0.1922 -0.1387
67970W        W10961  31.749   0.756   0.595  0.0446 -0.1113 -0.0358
67971W        W10962  34.220   8.583   2.578  0.0516  0.1018 -0.1196
67972W        W10963  16.161   4.788   8.549  0.2662 -0.1768 -0.1735
67973W        W10964   3.850  12.677  10.482  0.3315  0.1517 -0.0597
67974W        W10965  30.967   1.478  27.946  0.1374 -0.0057 -0.1701
67975W        W10966   5.118   7.702   1.662  0.1271  0.0468  0.0907
67976W        W10967  27.179  33.765   5.089 -0.0923  0.0184 -0.1831
67977W        W10968   4.476  21.961  21.063 -0.1955  0.0566  0.0597
67978W        W10969   3.147   1.561   6.315 -0.4293  0.1471 -0.0119
67979W        W10970  11.980   6.250   3.567  0.1141 -0.0169 -0.0856
67980W        W10971  12.929  18.542  25.244 -0.0545 -0.1070  0.0904
67981W        W10972   6.066  29.164  20.511 -0.0672  0.1826 -0.1592
67982W        W10973   4.540   6.314   4.614  0.1808 -0.1432 -0.0319
67983W        W10974  25.964  19.615  14.129  0.0245 -0.2833  0.2068
67984W        W10975  31.947  18.820  26.352 -0.2019 -0.0353 -0.1514
67985W        W10976  25.839   1.226   5.372 -0.3644 -0.1096  0.1881
67986W        W10977  14.106  19.707  23.610 -0.0796  0.0017 -0.1357
67987W        W10978  31.013   9.764   1.697 -0.0227  0.1090 -0.0653
67988W        W10979  30.951   3.567   4.907 -0.2834 -0.2679 -0.1422
67989W        W10980   9.105  31.363   4.832  0.2724  0.0399  0.1227
67990W        W10981   0.409  12.171   9.359  0.0960  0.2461 -0.0386
67991W        W10982   2.206   8.359  28.850  0.6788 -0.2660 -0.1593
67992W        W10983   0.258  20.713  24.013 -0.2794 -0.0254 -0.0934
67993W        W10984  27.618   6.089   9.253 -0.1654  0.0045 -0.3750
67994W        W10985  13.878  16.600   4.964  0.2153 -0.0482 -0.1649
67995W        W10986   0.928   0.592   7.744  0.1680 -0.0324  0.0684
67996W        W10987  13.006  22.264   8.785 -0.1139  0.2984  0.1225
67997W        W10988  30.832  30.424   3.183 -0.1220  0.0067  0.2042
67998W        W10989  17.279  11.814   2.544  0.2539 -0.1571  0.2398
67999W        W10990   8.148  31.749  26.396  0.1341  0.1223  0.1166
68000W        W10991  26.172  13.654   1.014 -0.0105  0.2478 -0.1090
68001W        W10992   0.769   8.317   2.198 -0.2648  0.2005 -0.0144
68002W        W10993  11.884  28.902   1.588  0.0428 -0.1944 -0.1245
68003W        W10994  28.779   5.340  27.808  0.0605  0.4583  0.1319
68004W        W10995   6.145  11.989  10.303 -0.2545 -0.2719  0.2493
68005W        W10996   4.058   9.219   5.533  0.1519  0.1299  0.0818
68006W        W10997  32.688   9.868  24.301 -0.1656 -0.4203 -0.2830
68007W        W10998   8.729   0.053  29.136 -0.0746 -0.0396  0.1662
68008W        W10999  30.112  28.039   5.817  0.1384  0.0520  0.3841
68009W        W11000  16.880  25.113  25.117  0.1357 -0.1444  0.2337
68010W        W11001   2.982   4.943   5.275  0.1794  0.0668 -0.1464
68011W        W11002  11.182   9.493   5.081 -0.1604 -0.0550  0.4513
68012W        W11003  28.694  27.330   5.289 -0.4905 -0.1093  0.2095
68013W        W11004   3.360   4.773   3.254 -0.0748  0.1048 -0.1995
68014W        W11005  29.586   3.246   4.402  0.0446  0.0120  0.1097
68015W        W11006  28.473   9.107  10.186 -0.1476 -0.0186  0.2431
68016W        W11007  32.425  34.211   4.300  0.1776  0.2016 -0.0470
68017W        W11008   8.054   9.205   9.496  0.1441  0.1076 -0.0073
68018W        W11009  19.087   9.707   5.871  0.2220 -0.1320  0.0621
68019W        W11010   6.220  13.721  26.810  0.2036 -0.2764  0.1518
68020W        W11011   8.553  13.224  10.555 -0.3500  0.1685 -0.2966
68021W        W11012   4.752  25.417  24.136 -0.2983 -0.2387  0.0588
68022W        W11013  25.037  31.856   8.493  0.0799 -0.3211  0.3052
68023W        W11014   0.754  32.157   9.622 -0.1958 -0.1111 -0.2161
68024W        W11015   6.229  14.071   8.231  0.0246  0.1273 -0.1161
68025W        W11016   9.339   0.917  23.892  0.2648 -0.1756  0.1062
68026W        W11017   6.587   7.401   9.469 -0.0241  0.0752 -0.0945
68027W        W11018  24.622   1.946  24.687 -0.2396  0.0384  0.1219
68028W        W11019   2.009   7.180  11.057  0.0948 -0.0060  0.1457
68029W        W11020  33.100  27.495   1.418 -0.0819 -0.3301  0.2003
68030W        W11021  26.077  12.258  16.774  0.0769  0.0197 -0.2278
68031W        W11022   0.338   8.268  10.344  0.0782 -0.1472  0.0612
68032W        W11023   0.319  12.355   3.839  0.0676 -0.3735 -0.1345
68033W        W11024   9.135   7.140   8.294  0.0088  0.0324 -0.0097
68034W        W11025   6.303  10.302   1.444  0.0586  0.1878  0.2223
68035W        W11026   3.281  26.768   8.213  0.0589 -0.0401  0.0908
68036W        W11027  12.647  33.288   4.744  0.0204  0.0205 -0.0290
68037W        W11028   5.397   6.580  23.206  0.4344 -0.1171  0.2229
68038W        W11029  17.464   3.309   8.804  0.0980  0.2601 -0.1902
68039W        W11030  21.931  32.637   7.453 -0.0538  0.1591 -0.0095
68040W        W11031  14.529   5.372  16.874 -0.2912  0.2044 -0.1431
68041W        W11032  26.023  16.416   6.192 -0.0107  0.0247  0.1779
68042W        W11033   5.780   3.946   6.896  0.1860  0.1885 -0.0977
68043W        W11034  18.065  15.422   4.382 -0.2420  0.0384  0.1419
68044W        W11035  31.255   3.402   0.941 -0.3669 -0.1279  0.0143
68045W        W11036   7.795  22.139   1.199 -0.1586  0.0337 -0.0156
68046W        W11037  32.298   3.861   8.670 -0.1611  0.0687 -0.0036
68047W        W11038   3.823   9.169   9.310 -0.0116 -0.3127 -0.1295
68048W        W11039  24.200   2.369   8.676 -0.0650 -0.0076 -0.1930
68049W        W11040  16.006   6.599  19.983 -0.0615  0.2896  0.0577
68050W        W11041  31.116  14.662  10.023  0.1467 -0.0606  0.0598
68051W        W11042  24.821  34.670  23.100  0.0134 -0.0605 -0.3739
68052W        W11043   8.325  34.538   7.959 -0.1697 -0.0628  0.0593
68053W        W11044  31.130  33.022   6.010 -0.2182 -0.1349  0.1004
68054W        W11045  13.476   4.155   7.052 -0.0378 -0.2745  0.0927
68055W        W11046  25.189   6.080   0.132  0.2775  0.0009 -0.2439
68056W        W11047  18.524  17.691  28.158  0.1057  0.0917 -0.4767
68057W        W11048  34.141  14.512   7.999  0.0131 -0.0048  0.1520
68058W        W11049  13.263  32.288  25.685  0.1152 -0.1445  0.1605
68059W        W11050   5.693   7.541   1.480  0.0470  0.1252  0.1211
68060W        W11051  19.633   5.735   8.756 -0.0849 -0.0563  0.1581
68061W        W11052   9.509  23.930   3.198  0.0151 -0.0780 -0.0995
68062W        W11053  12.056  16.515   2.467  0.2962  0.1035 -0.2100
68063W        W11054   7.662  13.264   4.926 -0.1745 -0.0264 -0.0118
68064W        W11055  19.636  34.785   5.269  0.0718  0.0463 -0.1926
68065W        W11056   6.686  28.075   7.523  0.1402  0.0352  0.0349
68066W        W11057  12.453  33.445   9.794  0.0088 -0.0433 -0.3338
68067W        W11058  16.799  28.565   7.559 -0.6898  0.0329 -0.1401
68068W        W11059   5.996  20.650  28.646  0.1077 -0.0246  0.0505
68069W        W11060   2.683   9.861   8.811  0.2277 -0.1357 -0.2212
68070W        W11061   5.106  15.020  20.272 -0.1667  0.0927 -0.1221
68071W        W11062   5.025  13.064   9.110  0.0153 -0.1064 -0.0637
68072W        W11063   5.261  28.710   2.723 -0.2649 -0.1174 -0.0828
68073W        W11064  31.424  29.637   6.086  0.1169  0.2304 -0.2971
68074W        W11065   2.865   7.971   5.831 -0.0675 -0.0909 -0.1560
68075W        W11066   3.832  21.199   9.385 -0.2786 -0.1656 -0.1171
68076W        W11067  12.082  16.237   2.960 -0.3302 -0.0773  0.0317
68077W        W11068  12.589  33.513  26.705 -0.0686 -0.4043  0.0029
68078W        W11069  33.135   1.761   4.112  0.1899 -0.1181 -0.2411
68079W        W11070  16.100  19.263   5.691 -0.3013  0.1013  0.1235
68080W        W11071  12.535   4.719  14.932  0.0063 -0.0569 -0.1211
68081W        W11072  13.372   1.186   6.437 -0.3082  0.0507  0.1101
68082W        W11073  21.426  18.721   3.456  0.3270  0.1634  0.1026
68083W        W11074   8.667   9.080   7.557 -0.0080  0.0339  0.3965
68084W        W11075  33.929   3.862   1.554  0.1566 -0.1731  0.0272
68085W        W11076  34.486  16.401   2.250 -0.4086 -0.2030 -0.3216
68086W        W11077   4.016  15.548   8.565  0.5697 -0.3536 -0.1009
68087W        W11078  23.659   2.725   0.746 -0.0325  0.1492  0.0321
68088W        W11079  16.188  28.539  26.746 -0.1813  0.1068 -0.2151
68089W        W11080  33.131  10.991   4.997  0.1808  0.3280  0.1411
68090W        W11081  12.519  29.529   3.862  0.0772 -0.2792 -0.1146
68091W        W11082  25.626  18.578   8.438  0.2614 -0.3089 -0.0302
68092W        W11083  17.932  28.144   5.733 -0.0534  0.0606  0.1132
68093W        W11084   9.618  10.615   8.832  0.0623 -0.1295  0.0593
68094W        W11085  23.704  23.397  13.478  0.1948  0.4503 -0.2575
68095W        W11086  15.524  12.281  19.254 -0.1322  0.0158  0.0495
68096W        W11087  33.051  29.394   4.665 -0.0937  0.0341  0.1321
68097W        W11088  12.335  17.203   3.461  0.0709  0.3427  0.1606
68098W        W11089  10.121  10.991   9.779  0.3344 -0.0821 -0.0940
68099W        W11090   4.912  29.791  25.793  0.0878  0.1335  0.1192
68100W        W11091   9.074  26.880   3.761 -0.1392 -0.2854 -0.0152
68101W        W11092   6.505  12.244  22.230  0.0019 -0.2233  0.1632
68102W        W11093  16.955   5.134  14.969 -0.1276  0.1389  0.0271
68103W        W11094  23.301  17.355  23.196 -0.3028 -0.2155 -0.3420
68104W        W11095   5.983  30.986   7.329 -0.1421  0.0613  0.1079
68105W        W11096  23.273   1.701  28.391  0.2112  0.0426  0.1921
68106W        W11097   1.316  16.402   4.203 -0.1130  0.0716  0.0428
68107W        W11098   1.834   4.539   2.411 -0.3142  0.0874 -0.0183
68108W        W11099  18.480  31.092   9.527  0.2615 -0.0059  0.1364
68109W        W11100   6.663  18.491   5.150  0.2197 -0.1690 -0.3027
68110W        W11101  27.316   1.312   1.865 -0.0133  0.2599  0.1120
68111W        W11102  16.548   5.618  28.754 -0.0224  0.0415  0.0941
68112W        W11103  20.117  29.516   5.557  0.1124  0.0699  0.2535
68113W        W11104  32.495  33.935   7.260  0.2483 -0.0932 -0.1841
68114W        W11105  26.006  10.769  18.884  0.0646 -0.0355  0.1257
68115W        W11106   7.091  27.028   9.612 -0.2462  0.0740 -0.0490
68116W        W11107  18.367  22.821  27.502 -0.1935 -0.0772  0.0440
68117W        W11108   4.981  17.639   9.128 -0.0630 -0.2359  0.0881
68118W        W11109   4.236  12.054   0.899 -0.0686  0.0352  0.5530
68119W        W11110  17.071  14.317   7.672 -0.0181  0.1477  0.0682
68120W        W11111  34.503   6.757   5.614 -0.0495 -0.3413 -0.1208
68121W        W11112  30.542  11.491  18.816 -0.0489  0.1198 -0.2926
68122W        W11113  26.701   4.145  21.381  0.0513  0.0574  0.0565
68123W        W11114   3.163   8.565  28.179  0.1837 -0.0377 -0.0158
68124W        W11115   7.042  11.098   2.382 -0.2139 -0.1837  0.1695
68125W        W11116  11.127  20.827  28.805  0.3259 -0.1993  0.1759
68126W        W11117  32.798  23.029   4.098 -0.2518 -0.4087 -0.3460
68127W        W11118   8.966  19.558  10.385  0.0132  0.2708 -0.1960
68128W        W11119  17.997  22.535  24.639 -0.3565  0.1766 -0.0864
68129W        W11120  16.414  11.964  27.808  0.2253  0.0500 -0.1032
68130W        W11121   6.591  10.169   9.813  0.1302  0.0570  0.0647
68131W        W11122   6.790  31.818  25.635  0.3955  0.0043 -0.2161
68132W        W11123  28.108  12.733   1.637  0.1134 -0.0964  0.0532
68133W        W11124  22.285  22.364  24.715  0.2885 -0.1218  0.1104
68134W        W11125   7.432  33.983   4.888 -0.0171 -0.2234 -0.1552
68135W        W11126  32.166   9.198  27.940  0.2278  0.0471  0.0718
68136W        W11127  32.606   9.566  10.392 -0.0789 -0.0125 -0.0979
68137W        W11128  23.243  17.554   6.045 -0.2770  0.1759 -0.1161
68138W        W11129  11.558  31.856  18.865  0.0680  0.2572  0.0099
68139W        W11130  19.379   5.216   8.859  0.0309  0.1186 -0.0249
68140W        W11131   8.351   2.238  10.270  0.0004 -0.0891  0.2334
68141W        W11132  12.800  21.440  22.842  0.1183  0.0278  0.3208
68142W        W11133  11.151  27.264   3.738  0.1936  0.1459  0.1176
68143W        W11134   9.600   7.898   3.559  0.0346 -0.1608  0.3114
68144W        W11135  30.921  12.613  25.473 -0.0728  0.0147  0.0519
68145W        W11136   0.033  16.960   3.916 -0.0906 -0.0585  0.2528
68146W        W11137  34.480   4.176   0.716 -0.0297 -0.0706 -0.0311
68147W        W11138  34.377  19.205  27.652 -0.0843 -0.0323 -0.2302
68148W        W11139   2.090   3.162  23.460 -0.1435  0.0381  0.0571
68149W        W11140   0.522  13.336   0.093 -0.2395  0.0038 -0.2896
68150W        W11141   7.626   7.110   3.481  0.1343  0.0526  0.1116
68151W        W11142   5.572   5.618   1.009 -0.1394 -0.3799 -0.1619
68152W        W11143   7.996  17.818   2.318  0.0772 -0.0609  0.2413
68153W        W11144   0.856  30.141   9.150  0.0526  0.0396 -0.2090
68154W        W11145   0.702  16.410   5.480  0.0590  0.1605 -0.2556
68155W        W11146   3.005  34.102  10.731 -0.1240  0.1893  0.0977
68156W        W11147   7.032  23.391  22.660 -0.1016  0.1418  0.0561
68157W        W11148   5.650  12.894   2.376  0.2638  0.1098  0.2417
68158W        W11149  19.050  30.493  25.168 -0.1492  0.5262  0.3448
68159W        W11150  30.008  14.568   8.754  0.2498  0.0585  0.0086
68160W        W11151  14.345   0.808   8.395  0.0999 -0.1043  0.1156
68161W        W11152   1.282  13.205  23.539  0.1817 -0.0341  0.2206
68162W        W11153  21.133  28.998   5.531  0.0600 -0.4816  0.2132
68163W        W11154  17.028   1.531   4.761 -0.3582  0.2067  0.2103
68164W        W11155   7.611   8.568   0.710 -0.0235  0.6671 -0.0800
68165W        W11156  28.109   2.454  10.066 -0.1840 -0.1561  0.0504
68166W        W11157  15.530  29.906   4.272  0.0264  0.3005 -0.3210
68167W        W11158  14.487  32.455   9.918 -0.1602 -0.1366  0.2096
68168W        W11159  14.844   8.210   9.562 -0.5876  0.4270  0.1523
68169W        W11160  32.401  25.525   8.027 -0.1267 -0.2002 -0.0690
68170W        W11161  29.309  17.992   3.945 -0.1037 -0.0884  0.0617
68171W        W11162   5.737  24.523   8.746 -0.0049  0.0041 -0.2749
68172W        W11163  14.292   8.988   9.236  0.4680  0.1768 -0.1445
68173W        W11164   6.667   7.512   9.952 -0.1588 -0.0671 -0.0271
68174W        W11165  15.260  34.545   3.215  0.1589  0.1174 -0.3155
68175W        W11166  13.646   0.897   1.145 -0.2357  0.2531  0.0269
68176W        W11167  12.162  29.360  17.723 -0.0966 -0.1072 -0.1483
68177W        W11168   6.376   5.270   1.016  0.1664  0.0613  0.0719
68178W        W11169  11.432  29.186  24.572 -0.2556  0.2616 -0.1266
68179W        W11170  26.932  17.611   9.459  0.0733 -0.1644  0.2525
68180W        W11171  26.669   9.610  18.989  0.1136  0.0057  0.1914
68181W        W11172  30.408   2.094   5.607  0.0396  0.2112 -0.0148
68182W        W11173  33.333  28.264   4.664  0.2326  0.3736  0.0908
68183W        W11174  10.263  33.759  19.162  0.0434 -0.1234  0.1606
68184W        W11175   4.030   1.550  10.174  0.0114  0.1072  0.0076
68185W        W11176   9.551   1.756   9.828  0.0883  0.0426 -0.2473
68186W        W11177  33.988   9.049   1.774 -0.1927  0.2302 -0.3052
68187W        W11178   8.159   1.762   9.058  0.2201 -0.0464 -0.0351
68188W        W11179   0.677   3.259   8.513  0.0883 -0.0385  0.1854
68189W        W11180  26.260   7.811   7.162 -0.1829 -0.1078 -0.1845
68190W        W11181   5.394   2.063  28.636  0.2604 -0.0943 -0.1157
68191W        W11182  10.291   4.708   7.542 -0.3388  0.4242  0.3023
68192W        W11183  29.299  14.581  25.153  0.3014 -0.0409  0.0239
68193W        W11184  33.421  25.435   8.151 -0.3130 -0.0306  0.0384
68194W        W11185  31.386  33.074   4.149 -0.1649  0.1514 -0.0177
68195W        W11186   9.153  33.897  28.791 -0.0266  0.1496 -0.0066
68196W        W11187  12.735   7.943   8.677  0.1421 -0.1582  0.0934
68197W        W11188   7.353   1.480   0.663 -0.3350 -0.1686 -0.0793
68198W        W11189  12.546   6.261  20.344  0.4246 -0.0109 -0.0301
68199W        W11190   4.399  34.380  14.044 -0.2657  0.0475 -0.0303
68200W        W11191  20.059  14.411   2.553 -0.0700 -0.2819  0.2659
68201W        W11192  19.220   4.754   4.626  0.0287 -0.0963 -0.1143
68202W        W11193   9.115  29.508   4.193  0.2269  0.2269  0.4828
68203W        W11194  11.272  11.978   3.863  0.0628  0.0959 -0.4883
68204W        W11195  12.960  12.166  10.794 -0.3042 -0.0510  0.3084
68205W        W11196  16.059   4.641   5.199  0.1386  0.1717  0.3715
68206W        W11197  11.682  34.585  25.108  0.0001 -0.0655  0.0270
68207W        W11198   3.505  16.372   2.490  0.3500 -0.1652 -0.1982
68208W        W11199  23.327  33.520   2.218 -0.1974  0.2684  0.1162
68209W        W11200   8.930   2.538   6.790 -0.1861  0.1410 -0.2557
68210W        W11201   5.602   1.851   3.840 -0.4428  0.1655 -0.0581
68211W        W11202  17.679  17.750   3.875  0.1907 -0.4896 -0.0621
68212W        W11203  13.785  33.365  26.950 -0.1885  0.0471 -0.2769
68213W        W11204   8.780   1.725  25.184  0.2091  0.1590  0.1612
68214W        W11205  19.924  12.959   2.813 -0.1274 -0.1975 -0.1370
68215W        W11206   3.158   5.109   7.239  0.0544 -0.1662  0.0279
68216W        W11207  16.469  15.088   5.257 -0.3955 -0.3000  0.0925
68217W        W11208  25.235  26.946   6.698  0.2016 -0.2445  0.1231
68218W        W11209   4.957   6.819   0.629 -0.2305 -0.0973 -0.2446
68219W        W11210   3.661  28.747   9.979 -0.3007  0.2361 -0.2019
68220W        W11211  29.216  34.299   6.030  0.2439 -0.0932 -0.0407
68221W        W11212  33.795  33.894   4.217  0.0344 -0.1197  0.2804
68222W        W11213  24.937  10.767  23.726  0.2802 -0.1636 -0.1920
68223W        W11214  30.450  33.785   4.987 -0.1859 -0.1226 -0.0529
68224W        W11215   3.006   3.637  15.535 -0.0808  0.0299  0.2242
68225W        W11216  13.213   7.204  28.097  0.2673 -0.0642  0.3438
68226W        W11217  30.955   2.416   0.655 -0.0098 -0.0318 -0.1596
68227W        W11218  20.197  33.444   9.628 -0.0136 -0.0508  0.0384
68228W        W11219  12.914   7.030   1.806 -0.2531  0.0816  0.1370
68229W        W11220  20.850   2.621   6.352  0.2939  0.1656 -0.0489
68230W        W11221   7.424  18.670   9.204 -0.0345 -0.1321  0.0623
68231W        W11222  17.403  26.525   6.806 -0.0546 -0.1089 -0.0046
68232W        W11223  31.656  26.019   0.906 -0.1621  0.0998 -0.0608
68233W        W11224   1.680  11.654  20.877 -0.4313  0.1622 -0.2028
68234W        W11225  10.475  10.568   4.428  0.0966 -0.2424  0.2835
68235W        W11226   1.189  28.615   1.056  0.1035 -0.0657  0.1417
68236W        W11227   4.809  10.142  18.928 -0.2386 -0.0308  0.1565
68237W        W11228   4.352  21.078   7.159 -0.0829  0.1846  0.0080
68238W        W11229   5.729   4.628   2.128  0.3724 -0.2237  0.1213
68239W        W11230  28.276  34.664  27.481  0.0092  0.1118  0.2279
68240W        W11231   7.275   0.073  27.820 -0.1392 -0.0117  0.0076
68241W        W11232   9.286  24.734  22.761  0.4195  0.2037 -0.2060
68242W        W11233   0.660   0.655  16.833 -0.2165 -0.2611 -0.0759
68243W        W11234  18.900  26.330   0.619 -0.1339  0.0170 -0.0684
68244W        W11235   0.243  12.919   7.166  0.1622 -0.2438  0.1523
68245W        W11236  10.483  22.168   7.600  0.2233  0.1440 -0.4592
68246W        W11237  17.295  11.967   4.182 -0.1327  0.1203 -0.0112
68247W        W11238   4.780  11.089  10.575 -0.0532  0.0189  0.0805
68248W        W11239  33.987  13.882   0.434  0.0529 -0.0393 -0.1323
68249W        W11240  11.739  12.737   8.945 -0.0989  0.1818 -0.0933
68250W        W11241  18.729   3.811  22.423  0.2022  0.0855  0.1305
68251W        W11242   8.600  30.429   6.976 -0.0110 -0.4348  0.1756
68252W        W11243  21.890   6.381   9.262 -0.1903  0.1558  0.0914
68253W        W11244   9.597   9.021   6.677 -0.1607 -0.1341  0.1285
68254W        W11245   8.565   7.474   9.171  0.1733 -0.1608 -0.2748
68255W        W11246  16.282  29.377   8.386 -0.0670  0.2244 -0.0523
68256W        W11247  29.919  16.196   0.702 -0.1308  0.0374  0.0852
68257W        W11248  13.787   4.186   6.546 -0.2110 -0.1105 -0.2009
68258W        W11249  18.968  13.554  25.648 -0.2425  0.0684 -0.0861
68259W        W11250   3.154  34.268   7.269 -0.0627  0.1819  0.2410
68260W        W11251  20.225   5.964   0.335  0.0836  0.3366 -0.1596
68261W        W11252   6.786   2.543  11.318  0.1695 -0.0173 -0.0825
68262W        W11253   6.140  10.066  28.867 -0.3574 -0.2565 -0.1087
68263W        W11254   8.056   8.480   4.507  0.0479  0.1521  0.0804
68264W        W11255  28.488   9.828  26.903  0.1439 -0.1973 -0.0079
68265W        W11256  31.345  25.679  28.011 -0.0793  0.2534 -0.0136
68266W        W11257   7.287  15.547  23.027 -0.0976 -0.1311 -0.1520
68267W        W11258   5.064   6.575  23.920 -0.2652 -0.1772 -0.2531
68268W        W11259  24.455  30.685   7.884 -0.2986  0.1192 -0.0072
68269W        W11260   1.870  23.747   0.494 -0.2390  0.0455 -0.4185
68270W        W11261  17.643   9.386   8.221 -0.3377  0.2389 -0.1826
68271W        W11262   1.465   8.576  10.586 -0.1595  0.0669  0.1577
68272W        W11263   3.525   9.849   8.637 -0.0631  0.2667  0.2032
68273W        W11264   7.440  13.195  22.538 -0.1777  0.0559 -0.1279
68274W        W11265  27.721  14.167  26.366  0.0515  0.0394 -0.0159
68275W        W11266   9.026   8.469  28.678  0.3590  0.0582 -0.1134
68276W        W11267   6.756   4.107  28.906 -0.0870  0.3751  0.2433
68277W        W11268  14.571  14.005   2.326 -0.3089 -0.2115 -0.2467
68278W        W11269   4.875   8.688   0.281 -0.3346 -0.3339  0.0349
68279W        W11270   6.986   8.444  10.301  0.1530  0.2303 -0.1711
68280W        W11271  26.559  12.575   6.771  0.4982  0.0692 -0.0289
68281W        W11272  24.867  25.416   7.617  0.1683  0.1508 -0.1667
68282W        W11273  11.732  32.107   9.139 -0.2147 -0.3889 -0.2389
68283W        W11274   6.981  13.136  10.071 -0.1305 -0.0882  0.0057
68284W        W11275  31.341  10.348  27.324 -0.0236  0.2174  0.1284
68285W        W11276   3.883  13.763   7.170  0.0992  0.1813 -0.3115
68286W        W11277  11.212  20.294  24.896 -0.0954  0.1861  0.0869
68287W        W11278   3.781  26.453   8.422  0.2615  0.3448 -0.3198
68288W        W11279   3.641  10.262   0.226  0.1227  0.0751 -0.0133
68289W        W11280   3.624   8.390   0.962  0.0986 -0.2911  0.2370
68290W        W11281  34.616  27.648  22.370 -0.1500 -0.0173 -0.0276
68291W        W11282   7.630  32.800  10.006  0.0438 -0.0922 -0.2816
68292W        W11283  18.457   0.605   8.475  0.2610 -0.1226  0.0666
68293W        W11284  16.158   4.917   9.765  0.2881  0.0514  0.0558
68294W        W11285   5.725   1.080   0.931 -0.0241 -0.1026 -0.1195
68295W        W11286  15.991  25.568   8.165 -0.1807  0.0442  0.3135
68296W        W11287  26.733  14.395  26.634 -0.2382 -0.2090 -0.0257
68297W        W11288   1.199   8.005  24.434 -0.2592  0.1121 -0.1505
68298W        W11289   7.422  32.285  27.447  0.0730  0.1504 -0.0566
68299W        W11290   1.999   8.945  27.641  0.0933 -0.2542 -0.2757
68300W        W11291  33.826  12.218  11.446 -0.0033 -0.0182 -0.2254
68301W        W11292  12.497   0.673  16.938 -0.0673  0.0009 -0.1763
68302W        W11293   9.147   1.289  22.219  0.2885  0.0931  0.1356
68303W        W11294  22.658  14.502  19.570 -0.0107  0.0277 -0.0095
68304W        W11295   7.525  27.745  26.765 -0.1676  0.0254 -0.0830
68305W        W11296  29.422   1.941   6.389 -0.3969  0.5612  0.0128
68306W        W11297  17.261  11.213  25.183 -0.0141  0.3218 -0.1886
68307W        W11298  19.857   6.949  17.440 -0.1228  0.3182 -0.0106
68308W        W11299   4.195  23.137  25.352  0.0507 -0.2752  0.0329
68309W        W11300  24.828  25.403  26.181 -0.1674 -0.0612 -0.0173
68310W        W11301  20.037  26.464  18.846  0.1940 -0.0430 -0.2343
68311W        W11302  33.272   8.522  10.429  0.1363  0.0618 -0.0340
68312W        W11303  26.043  20.247  20.594  0.1166 -0.1747 -0.3162
68313W        W11304  12.898   7.541   4.003  0.2055  0.1449 -0.0095
68314W        W11305   7.452   2.851  25.222 -0.0273 -0.0065 -0.1983
68315W        W11306   4.364   6.630   6.467 -0.1203 -0.1025 -0.1194
68316W        W11307  17.976  28.700  17.669 -0.4161  0.0949 -0.1130
68317W        W11308  19.608   5.611   1.001  0.1508  0.0482 -0.1024
68318W        W11309   1.646  14.736  20.337 -0.0626  0.0366 -0.2763
68319W        W11310   5.970   9.032   5.496 -0.1964  0.0826 -0.3051
68320W        W11311  12.903  25.783  28.336 -0.1784  0.0726  0.1908
68321W        W11312  11.551  25.399   1.449 -0.0452  0.2859 -0.1616
68322W        W11313   4.673  13.171   3.340  0.3383  0.0608  0.1681
68323W        W11314  28.818   6.083   7.563 -0.1177 -0.0139  0.0030
68324W        W11315   0.576   5.128  15.571 -0.0929 -0.2569 -0.2416
68325W        W11316   2.510  11.743   4.743  0.3244 -0.0443  0.6286
68326W        W11317  23.832  15.700   7.806  0.0066 -0.2361  0.0681
68327W        W11318  23.982  28.959  25.743 -0.2438  0.2886 -0.0666
68328W        W11319  12.987  22.156   4.279 -0.0221 -0.1343  0.1898
68329W        W11320   1.847   2.905   9.741 -0.1571  0.1566  0.3636
68330W        W11321   7.736  28.465   8.777  0.0929 -0.0150 -0.1112
68331W        W11322  14.196   7.024  15.228 -0.0563  0.0827  0.2268
68332W        W11323  13.116  15.360  18.517  0.1882  0.0238  0.0944
68333W        W11324  10.120  22.854   1.683  0.0700 -0.2912  0.0448
68334W        W11325  10.220  14.418   2.881  0.2864  0.1568  0.0548
68335W        W11326  25.362  22.502   6.954 -0.1509  0.0941  0.2460
68336W        W11327   2.531  27.048  22.242  0.3557  0.0365 -0.0293
68337W        W11328  10.931   1.475   5.863  0.1518  0.4512  0.1079
68338W        W11329  23.685  14.307  20.064 -0.1048 -0.0587 -0.1105
68339W        W11330   5.000  25.126   5.876  0.3047  0.1183 -0.2369
68340W        W11331  31.519  12.001   7.071 -0.0806  0.3495  0.4011
68341W        W11332   5.227  28.042   0.832 -0.3209  0.1757  0.0079
68342W        W11333   7.118  34.580   9.756 -0.1619  0.1683 -0.0929
68343W        W11334  14.942   5.010  10.971  0.1103 -0.0533 -0.5792
68344W        W11335  21.336  32.780   8.959  0.0088  0.0814 -0.1960
68345W        W11336  11.897   5.893   0.254  0.3823  0.2506 -0.2057
68346W        W11337   1.367  14.104  18.918 -0.3906  0.2351 -0.0884
68347W        W11338   8.489  12.475  24.537 -0.1638  0.0829  0.1416
68348W        W11339  11.912  10.599  26.516 -0.3009 -0.0530  0.1878
68349W        W11340   8.312   8.829  27.550 -0.2781  0.1644  0.1177
68350W        W11341  26.043  12.982   9.350 -0.0326  0.0387 -0.2558
68351W        W11342  14.067   6.458  10.326  0.2398  0.0680 -0.1905
68352W        W11343   6.872  31.466   7.615  0.1480  0.0617  0.1554
68353W        W11344  23.923  11.839   2.440  0.1918 -0.0217  0.3368
68354W        W11345  33.543   7.549   5.858 -0.1023  0.0634  0.2792
68355W        W11346  32.683   8.562  18.310 -0.1994 -0.0275  0.0570
68356W        W11347   9.816   9.517  26.628  0.3338  0.2572  0.0384
68357W        W11348   8.888   3.883   1.824  0.0783  0.3161  0.2234
68358W        W11349  28.145  11.112   3.225 -0.1312  0.1608 -0.2992
68359W        W11350   5.178   8.031  15.783  0.0025 -0.1252 -0.0798
68360W        W11351  12.957   6.210   4.624 -0.0255  0.4249 -0.2463
68361W        W11352   8.404   4.030  28.291 -0.1025 -0.4839 -0.1139
68362W        W11353  17.828  21.047  23.858 -0.0049 -0.2749 -0.1069
68363W        W11354  22.422   3.443   3.940  0.1165  0.2375 -0.1258
68364W        W11355  22.937  13.744   4.345  0.1447 -0.3319 -0.1263
68365W        W11356   9.642   5.212   2.754  0.0236 -0.0478  0.1629
68366W        W11357   7.203   5.811  21.624  0.1345 -0.1633 -0.2062
68367W        W11358  29.735   5.875  27.407  0.1424 -0.0025 -0.3102
68368W        W11359  12.303  24.162   3.937 -0.0043  0.3214 -0.0227
68369W        W11360   2.417   7.981   0.014  0.3176 -0.0559 -0.0892
68370W        W11361  10.770   6.792  26.757  0.1189 -0.0355 -0.2638
68371W        W11362  13.403   0.102   9.028  0.2630 -0.1807  0.2615
68372W        W11363  30.364  14.771  17.709 -0.0454  0.1176  0.0572
68373W        W11364  33.644  31.708  13.493  0.0296  0.1873 -0.3163
68374W        W11365  17.427  22.352   5.997  0.4422  0.0445 -0.0795
68375W        W11366   7.720  13.179   8.817 -0.1348  0.5247 -0.0907
68376W        W11367   6.215  14.569  23.865  0.2413  0.1556  0.0639
68377W        W11368  24.330  11.179   7.548 -0.0601  0.3252 -0.1507
68378W        W11369   5.006  26.326  28.852  0.1521  0.1551 -0.1720
68379W        W11370  13.993  27.078   3.278 -0.1366  0.5257  0.0910
68380W        W11371  33.530   1.507   0.142  0.0414 -0.0207 -0.3408
68381W        W11372  30.732  25.214  15.945  0.1511 -0.3618 -0.0966
68382W        W11373   8.136   3.728   4.690 -0.0758 -0.1916  0.2901
68383W        W11374  30.110  24.833   5.770  0.1320  0.2971  0.3904
68384W        W11375  15.686  14.567  16.486  0.1146 -0.2561 -0.2434
68385W        W11376  32.313   9.679   5.479  0.4711  0.1213  0.1552
68386W        W11377  29.505  20.007  23.290 -0.1329  0.1605  0.2551
68387W        W11378  31.413  14.328   8.641  0.2557  0.1775  0.1976
68388W        W11379  11.266   2.618  10.471 -0.1998  0.2454  0.0083
68389W        W11380   7.568   1.606   6.587  0.4638  0.0613 -0.1185
68390W        W11381  14.993  12.641  20.836  0.0021 -0.0544  0.0401
68391W        W11382   3.375  32.360  23.360 -0.2441 -0.0904 -0.0794
68392W        W11383  34.732  11.891  20.723 -0.0868  0.3253  0.4077
68393W        W11384  12.795  33.046   6.129 -0.1602 -0.1422  0.3991
68394W        W11385  27.327  17.778   5.295  0.1258  0.0752  0.0836
68395W        W11386   8.107  22.650  27.801  0.0204 -0.2842 -0.0728
68396W        W11387  34.077  12.012  19.429 -0.1655  0.3801 -0.2473
68397W        W11388  11.275   1.213  15.682 -0.4179 -0.0273  0.1245
68398W        W11389  11.908   6.306  21.914 -0.0503  0.0306  0.0847
68399W        W11390   6.892   7.086   4.358  0.1994 -0.0312  0.0400
68400W        W11391  32.208  17.476   2.526  0.1840  0.0786  0.3068
68401W        W11392  10.037  20.395  19.570  0.1182 -0.1386 -0.0429
68402W        W11393  18.670   4.131  16.338 -0.0883  0.0901 -0.1487
68403W        W11394  19.181   1.529   4.297 -0.0616 -0.0110 -0.2311
68404W        W11395   8.917  32.384  10.485  0.1350 -0.2304 -0.1497
68405W        W11396  20.737  21.071   8.005  0.0067 -0.0333 -0.1874
68406W        W11397  34.080  11.332  16.747  0.1195 -0.1615  0.2347
68407W        W11398  19.705  30.822   0.212  0.0452  0.0969  0.0597
68408W        W11399  22.639  20.448  22.220 -0.1580 -0.2350 -0.2368
68409W        W11400   8.431  32.798   0.480 -0.1120 -0.1356  0.0592
68410W        W11401  15.384   6.124  20.969  0.0626  0.1708 -0.0602
68411W        W11402   5.791  28.592  24.135 -0.1152  0.0044  0.2237
68412W        W11403  23.762   3.882   5.134 -0.0094 -0.1235 -0.2306
68413W        W11404  14.273  13.180  10.249 -0.1912 -0.0972 -0.2563
68414W        W11405  18.875   3.955   7.650 -0.2311  0.1781  0.0853
68415W        W11406   9.783  11.640  16.460 -0.1961  0.4016  0.0988
68416W        W11407  31.537  32.801  23.390 -0.3814 -0.0435 -0.0338
68417W        W11408   5.450  19.049  10.364 -0.1220 -0.0033  0.3417
68418W        W11409   8.448  20.731  18.381 -0.2184  0.1027 -0.2158
68419W        W11410   8.944   4.641   2.367  0.1726  0.0185 -0.2312
68420W        W11411   9.152  15.745   0.010  0.3854 -0.2419 -0.2218
68421W        W11412   3.993   0.323   5.507 -0.0797 -0.0969  0.2834
68422W        W11413  16.322   1.207   0.398  0.1496 -0.2790  0.0993
68423W        W11414  22.476  10.533  21.192  0.0617  0.0610  0.0507
68424W        W11415  17.147   6.190   7.126  0.1238 -0.0719 -0.1155
68425W        W11416   4.127  13.430   7.457  0.6621 -0.2832  0.1500
68426W        W11417  34.800  10.579  10.924 -0.0724 -0.1691  0.2734
68427W        W11418   9.232   4.323   7.705 -0.1280 -0.0040 -0.4100
68428W        W11419  28.690  14.018   4.859 -0.2962 -0.0934 -0.3264
68429W        W11420  18.135   8.323  23.584 -0.0161 -0.1549  0.2284
68430W        W11421   8.724   9.560   8.717  0.3984 -0.1432 -0.4171
68431W        W11422  33.503  14.962  29.168 -0.0605  0.1911  0.2119
68432W        W11423  26.411  15.737   3.602  0.5186  0.0619  0.1345
68433W        W11424  29.623  23.015   2.544  0.0864  0.0394  0.1470
68434W        W11425   9.814  34.256   4.449  0.1738 -0.4371 -0.0156
68435W        W11426  11.400   6.215   0.227  0.0840 -0.0412 -0.0550
68436W        W11427  32.849   9.429   6.102 -0.0537  0.2651  0.1279
68437W        W11428   9.829  14.997   1.700 -0.1682 -0.2497  0.0333
68438W        W11429  33.156   9.154   1.963  0.1851  0.0022  0.1221
68439W        W11430   7.201   7.982   7.432  0.0920  0.2034  0.1405
68440W        W11431  10.767  26.853  22.737 -0.0558  0.2404 -0.0334
68441W        W11432  30.950  28.200  26.188  0.0817 -0.0832 -0.0511
68442W        W11433   9.172  29.385  22.504 -0.3268 -0.0126  0.0487
68443W        W11434   4.514   4.124  16.011 -0.2632  0.3604  0.1005
68444W        W11435  18.628  11.809   2.504  0.0253 -0.1372 -0.2636
68445W        W11436  19.107  14.706   4.539  0.0905 -0.1977  0.0609
68446W        W11437   0.426  29.242   6.693 -0.4216 -0.2039  0.0599
68447W        W11438   3.420  30.910  27.713 -0.1604  0.2286  0.0416
68448W        W11439  34.341  13.152   1.771 -0.2535 -0.1463 -0.1011
68449W        W11440  18.278   0.754   7.412 -0.1009 -0.1741  0.4449
68450W        W11441  26.976  31.101   2.110 -0.0767 -0.2317  0.0904
68451W        W11442  23.854   8.387   0.191 -0.0313  0.0766 -0.3124
68452W        W11443  22.834  26.885   6.460  0.1571  0.4589 -0.0291
68453W        W11444  18.417   6.058  25.733  0.1168  0.1613 -0.1388
68454W        W11445  14.192   4.228  24.267 -0.0095 -0.0475  0.1378
68455W        W11446   1.797  16.504   1.162  0.2056  0.0977  0.3057
68456W        W11447  25.794  23.302   3.015 -0.0010  0.0012  0.1291
68457W        W11448  15.178  33.339  24.958 -0.1668  0.3422  0.3527
68458W        W11449  18.344  17.544  24.170  0.1262  0.0133 -0.3236
68459W        W11450  32.896   2.148   8.874 -0.0411  0.1014  0.0214
68460W        W11451  32.814  10.934   8.428 -0.3219  0.0176  0.0538
68461W        W11452   0.546   9.693  28.188  0.2990  0.0694 -0.2264
68462W        W11453   2.342  12.105  11.207 -0.1564  0.0400  0.0896
68463W        W11454  31.760   2.506   4.307  0.1462  0.3151 -0.2774
68464W        W11455  31.862  34.122   4.995 -0.2642 -0.2326 -0.0013
68465W        W11456  28.603   3.551   7.570  0.0670  0.0752 -0.2325
68466W        W11457  30.303  27.216  27.113  0.2780 -0.0725  0.0003
68467W        W11458  10.499   6.555   3.415 -0.1325 -0.1466 -0.1225
68468W        W11459   3.286  27.698   6.682 -0.0473 -0.2167  0.2682
68469W        W11460   9.557  24.943  22.443 -0.4417 -0.0634  0.1576
68470W        W11461   3.907   0.828   1.318  0.0231  0.2487  0.0211
68471W        W11462  11.557  21.845  25.669  0.1192 -0.0586 -0.3553
68472W        W11463   9.243   6.532   9.027  0.2680  0.2253 -0.0928
68473W        W11464  30.968   9.520  18.222 -0.1356  0.0457 -0.0809
68474W        W11465  16.229   1.316   4.255  0.0949  0.2310 -0.1376
68475W        W11466  33.117  27.538  15.604 -0.0580  0.0971  0.0977
68476W        W11467  34.666   6.271  25.996  0.0775  0.0441 -0.1808
68477W        W11468  32.510  10.917   6.290  0.2634 -0.0533  0.0090
68478W        W11469  18.180   5.980  20.841 -0.1162 -0.2426  0.2634
68479W        W11470  28.257  17.530   3.745  0.1370 -0.0119 -0.0443
68480W        W11471   0.249  31.854   1.511  0.3114 -0.0621  0.0048
68481W        W11472  16.005  25.129   5.642  0.0805  0.3550 -0.2479
68482W        W11473  14.299  27.915  18.818 -0.1789 -0.1313  0.2168
68483W        W11474   1.271  19.648  14.843  0.1343  0.2555  0.1378
68484W        W11475  12.198  19.224  22.283 -0.0076 -0.0659  0.2292
68485W        W11476  30.134  10.078  22.384 -0.0413  0.0867  0.1335
68486W        W11477   9.976  19.377   1.179 -0.0593  0.0276  0.1291
68487W        W11478   1.761  18.984   3.653 -0.3439  0.1424 -0.3117
68488W        W11479  19.424   7.309   5.318 -0.1206  0.3620 -0.1376
68489W        W11480   8.205  25.183   3.157 -0.2122  0.2565 -0.0775
68490W        W11481  15.312   1.579  27.778  0.1274  0.0983 -0.6104
68491W        W11482  28.612   6.007  25.971  0.0172  0.1699  0.0842
68492W        W11483   1.800  11.827   1.055  0.2940  0.0245  0.0220
68493W        W11484   8.216  15.091  16.227  0.1206 -0.0963  0.1309
68494W        W11485   4.849  19.368   1.785  0.0733  0.0033  0.0501
68495W        W11486  12.158  17.860   8.688 -0.0871  0.0950  0.0606
68496W        W11487  17.224  25.973  16.073  0.2278  0.0838 -0.0059
68497W        W11488  16.449   6.418   7.167  0.1406  0.2207 -0.0264
68498W        W11489   6.428  17.942   9.177  0.0484 -0.0557 -0.0640
68499W        W11490  30.010  23.302   2.235  0.1891 -0.0666 -0.2385
68500W        W11491  12.433  16.616   3.787 -0.1856  0.0709 -0.0148
68501W        W11492   7.906   4.307  27.584  0.1212  0.2440 -0.1346
68502W        W11493   5.950   3.838   9.939  0.1554 -0.1479 -0.0917
68503W        W11494   4.162  15.458  10.853 -0.0703 -0.1896 -0.4531
68504W        W11495  13.912  32.206   5.253 -0.0416 -0.1495 -0.3922
68505W        W11496   5.473  12.254  11.818 -0.3912  0.1853  0.1046
68506W        W11497  15.749  10.971  21.202 -0.0507 -0.0322 -0.0506
68507W        W11498  12.459  33.238   0.868  0.4687 -0.2007  0.3236
68508W        W11499   5.888  33.076  27.249 -0.0731  0.2135  0.1417
68509W        W11500  30.569  18.949  28.643  0.2213 -0.1150 -0.2327
68510W        W11501   1.410   8.442  26.269 -0.5329 -0.2637  0.0015
68511W        W11502   9.405   6.121   6.612 -0.2787  0.4581 -0.1097
68512W        W11503  30.268   1.187  28.712  0.0858  0.5094 -0.2759
68513W        W11504  30.742   6.711  22.510  0.1596 -0.3507 -0.0995
68514W        W11505  33.391   6.161   4.708  0.0210  0.1656 -0.0647
68515W        W11506   0.145  13.336   3.945  0.0725 -0.0881  0.0963
68516W        W11507   3.082  25.288  27.065  0.4081  0.3781  0.2891
68517W        W11508   8.343  14.567  27.299 -0.0493  0.0028  0.0366
68518W        W11509   0.876  21.172  26.817  0.3865 -0.0383 -0.1344
68519W        W11510   4.446  15.857  26.641 -0.3451 -0.2436 -0.0066
68520W        W11511  28.263  34.700  16.879  0.0906  0.1624  0.3561
68521W        W11512  11.058   3.009   0.855  0.1337 -0.1811  0.0658
68522W        W11513  17.405  33.534   3.182 -0.1354  0.1561  0.3546
68523W        W11514   9.412  14.912   9.103  0.1245  0.5218 -0.0696
68524W        W11515  16.146   3.879  19.479  0.2468  0.0009 -0.0071
68525W        W11516   4.463  12.487  19.007 -0.0808  0.2396  0.0520
68526W        W11517   5.969  29.502  23.514  0.0408  0.0831 -0.1249
68527W        W11518  21.909  18.590   3.436 -0.2338 -0.2051 -0.0751
68528W        W11519  11.013   4.547   5.355  0.1334  0.0149  0.1986
68529W        W11520   5.665  27.163   4.763  0.1653 -0.0984 -0.0002
68530W        W11521  20.062  14.843   3.317 -0.1579 -0.0261  0.0787
68531W        W11522   8.618   1.677   3.088 -0.4034  0.1495 -0.1717
68532W        W11523  21.158  13.620  26.140 -0.1900 -0.0212 -0.3531
68533W        W11524  20.695  18.997  26.870  0.0280 -0.2497 -0.3167
68534W        W11525  25.235  20.135  18.161 -0.2468 -0.1870 -0.1934
68535W        W11526  17.766   9.339  18.124  0.0427  0.0792  0.0095
68536W        W11527  11.639  10.216   0.330  0.2999 -0.4609 -0.1972
68537W        W11528   1.003  13.930   1.765  0.0803  0.0840 -0.1170
68538W        W11529  33.658   3.142  29.019 -0.1106 -0.0168 -0.0279
68539W        W11530  15.934   5.297  10.018 -0.0268  0.0471  0.1958
68540W        W11531   7.846  14.186   5.090  0.1890 -0.2749  0.0265
68541W        W11532  31.877  16.813  22.788  0.4302 -0.4947 -0.2160
68542W        W11533   7.473  33.596   7.071  0.2159 -0.1642 -0.1602
68543W        W11534   8.524   8.566   2.105  0.1321 -0.1762  0.1105
68544W        W11535   4.981   6.967  17.672 -0.3433  0.1571 -0.0039
68545W        W11536  20.684  20.528   3.219  0.0305  0.0637  0.1446
68546W        W11537  33.766   9.371  15.856 -0.1476  0.1939  0.0584
68547W        W11538  20.393   4.353   9.406  0.2627 -0.3186 -0.1500
68548W        W11539   0.469   3.353  16.931 -0.1104  0.1216 -0.2231
68549W        W11540   6.108  20.647   9.300  0.1007 -0.0444 -0.0524
68550W        W11541  28.988   5.117   8.538 -0.3715 -0.1383 -0.1129
68551W        W11542  12.562  13.146  19.974 -0.1759  0.1538 -0.0651
68552W        W11543  10.768   8.592   4.134 -0.2737 -0.0208 -0.2617
68553W        W11544  23.132   9.453  19.150  0.0721  0.0957  0.2372
68554W        W11545  29.723  33.820  25.796  0.2990  0.3792  0.2603
68555W        W11546  28.545  19.308  15.939 -0.1185 -0.0741 -0.2708
68556W        W11547   5.636  32.519   2.007  0.1917  0.0420 -0.0041
68557W        W11548  24.636   4.670   6.692  0.0585  0.0648  0.3233
68558W        W11549   3.432  27.121  28.403  0.2794 -0.1500  0.0429
68559W        W11550  29.220  25.606  15.886 -0.0933  0.0191 -0.0855
68560W        W11551   4.800  25.213  27.386  0.0562  0.0063  0.1189
68561W        W11552   4.739  30.639   4.836 -0.1089 -0.4286 -0.1988
68562W        W11553  11.259  12.928  21.702  0.2163 -0.5379  0.0509
68563W        W11554  17.601   5.824  20.539  0.2087  0.3140 -0.1003
68564W        W11555  11.374  33.369   2.356  0.3658 -0.1649  0.3525
68565W        W11556   5.303  15.632   6.688 -0.0472 -0.1760  0.1087
68566W        W11557  11.142  15.944   2.806  0.0977  0.1947  0.1302
68567W        W11558  13.114   7.963   6.726 -0.1980  0.1159 -0.2723
68568W        W11559  18.055   5.032  23.585  0.1123  0.0846 -0.1063
68569W        W11560   4.655  26.620  13.956 -0.5543  0.0302 -0.0243
68570W        W11561   5.795  19.472   0.110  0.0859 -0.1801 -0.2611
68571W        W11562  28.445  27.297   6.145  0.1820 -0.0154  0.1615
68572W        W11563  29.049  19.649  18.675  0.0705  0.0476 -0.2400
68573W        W11564   0.570   6.668   5.060 -0.2616 -0.2103 -0.0688
68574W        W11565  28.837  31.668  27.956  0.0920 -0.1823 -0.1110
68575W        W11566  14.128   5.091   9.961 -0.2884  0.3750 -0.0479
68576W        W11567   0.872  15.592   9.172  0.0954 -0.0941 -0.1104
68577W        W11568  12.481  20.117   5.161 -0.0552  0.1022  0.3825
68578W        W11569  12.005  21.412  23.444  0.4851  0.2312  0.1521
68579W        W11570  31.464  31.214  23.129 -0.2238  0.1623  0.0124
68580W        W11571   4.286   3.779  11.890  0.0952 -0.2460 -0.0100
68581W        W11572   3.981  13.894  11.787  0.1091 -0.1241 -0.1363
68582W        W11573  14.905   2.280   5.413  0.4560 -0.1411  0.1403
68583W        W11574  12.342  18.302   6.870 -0.1534  0.2054  0.1900
68584W        W11575  28.448   2.198  20.149 -0.0584  0.3692 -0.3445
68585W        W11576   5.030  30.238  22.291  0.0632  0.0723  0.0774
68586W        W11577   0.821  32.214  16.030 -0.2571 -0.5257  0.0344
68587W        W11578  30.358   9.191  10.282 -0.1512  0.1087  0.1397
68588W        W11579   7.556  25.988  10.587 -0.0244  0.2831 -0.0797
68589W        W11580   0.278  14.296  15.623 -0.2423 -0.2658  0.2505
68590W        W11581   3.521  33.805   8.611 -0.1078 -0.0927 -0.0820
68591W        W11582  17.478   6.637   9.562  0.0105  0.3532  0.1389
68592W        W11583   4.623   3.381  25.384  0.5241  0.3365 -0.0619
68593W        W11584   8.905   6.076   2.129 -0.2592  0.2237 -0.2409
68594W        W11585  23.363  10.567   6.459  0.3153 -0.1127 -0.0465
68595W        W11586  14.592  10.130   3.402  0.1248  0.1199 -0.2716
68596W        W11587  28.776   0.233  15.747  0.1285 -0.0826  0.0821
68597W        W11588   5.307  18.666  16.006 -0.2403 -0.4375 -0.0007
68598W        W11589  22.616  11.053   6.102  0.2946  0.0953 -0.0672
68599W        W11590   7.308   7.968  19.825 -0.0380  0.4471  0.0197
68600W        W11591   6.405  34.778   5.871 -0.1266 -0.1639  0.0403
68601W        W11592  34.557  24.509   7.438 -0.2799 -0.1096 -0.1095
68602W        W11593   8.494  13.633   7.129  0.0758 -0.1725  0.4223
68603W        W11594  15.980   6.390   7.356  0.6488 -0.1579  0.0939
68604W        W11595  25.868  17.190  26.221  0.0049 -0.2890 -0.0508
68605W        W11596  10.134   7.375  11.285  0.1133 -0.0557 -0.0765
68606W        W11597   3.853  11.301  29.159  0.0795  0.0663  0.0845
68607W        W11598   9.196   4.776  23.145  0.0320  0.0105  0.2380
68608W        W11599  10.443   8.357   5.531 -0.1320 -0.2984  0.0275
68609W        W11600  11.546  29.651   3.576  0.0043 -0.2119  0.1367
68610W        W11601  13.273   9.156  23.902  0.1962 -0.1269 -0.0005
68611W        W11602   4.225  16.204   4.721 -0.2320 -0.4790  0.2108
68612W        W11603  30.615   0.401  15.587  0.1726  0.2027 -0.2557
68613W        W11604  14.566   9.280  25.962  0.0545  0.0355  0.0040
68614W        W11605  11.000  14.005   8.879  0.1584 -0.2634 -0.1034
68615W        W11606  30.660   7.643   9.725  0.0774 -0.1825 -0.3984
68616W        W11607   2.557  31.876   1.275  0.1806 -0.2799 -0.0481
68617W        W11608   3.232   8.013   2.483 -0.3457 -0.1035 -0.2367
68618W        W11609  32.278   2.269  18.200 -0.1401 -0.0777  0.0046
68619W        W11610  20.148  17.454  14.507 -0.1933  0.1483 -0.2042
68620W        W11611  30.854   2.007   7.617  0.1078 -0.0031  0.0455
68621W        W11612   5.301   0.738   5.365 -0.1983 -0.1306  0.0515
68622W        W11613  33.302   2.841   6.642  0.1017 -0.3231 -0.0569
68623W        W11614  29.828  21.483  25.135 -0.4183 -0.0373  0.1852
68624W        W11615  13.728   4.552  27.356 -0.0516  0.2497 -0.2162
68625W        W11616   8.968  22.522   2.718  0.2249 -0.0872  0.0274
68626W        W11617   6.363  32.212   4.222 -0.2654  0.0915 -0.1995
68627W        W11618  25.706  23.414   3.560 -0.1163  0.0291 -0.0186
68628W        W11619  19.971  27.990  25.813  0.2051  0.0439  0.1810
68629W        W11620  17.481   7.521   4.342 -0.3914  0.0765 -0.0879
68630W        W11621  11.371   9.023  17.858 -0.3524 -0.0848  0.1484
68631W        W11622   6.966   4.869   3.096 -0.0018 -0.3096  0.0783
68632W        W11623  10.732   8.809   5.756  0.3105 -0.0619 -0.0090
68633W        W11624  30.132  16.996   2.390 -0.1736  0.0815  0.1240
68634W        W11625   3.886  11.394  11.151 -0.0425  0.1668  0.1442
68635W        W11626   7.877   4.078  24.783 -0.1371 -0.3643  0.5297
68636W        W11627  10.831  12.077  26.830  0.0347 -0.4720 -0.0506
68637W        W11628  20.773  20.842  13.858 -0.1604 -0.0264  0.0281
68638W        W11629  29.661   8.965   5.174  0.1414  0.0560 -0.5410
68639W        W11630   4.939  32.552   9.457  0.4224 -0.1855  0.3799
68640W        W11631  32.627  28.675  28.562 -0.0765  0.1137  0.1536
68641W        W11632   7.685  10.053  19.655  0.2727 -0.1301 -0.0469
68642W        W11633   3.677   7.188  20.237 -0.0714  0.0815  0.0412
68643W        W11634   7.143  11.149  22.419 -0.2632 -0.3636  0.0783
68644W        W11635   0.193   9.916  25.949  0.3085 -0.3580 -0.3509
68645W        W11636  12.482   5.681   8.954 -0.2674  0.1107 -0.2583
68646W        W11637   6.458   6.580   5.042  0.1083 -0.1129 -0.2354
68647W        W11638  27.213   8.947  23.162 -0.0380  0.0579  0.0839
68648W        W11639  28.402  12.071   2.922  0.4321 -0.2950  0.0784
68649W        W11640  19.347  23.140  20.315 -0.2637 -0.2181  0.0043
68650W        W11641  11.558  30.533  21.423 -0.1565  0.0466 -0.0200
68651W        W11642  28.261  13.198   6.351  0.1267 -0.0862 -0.1308
68652W        W11643   6.649   8.600   3.243  0.0753 -0.0874  0.1046
68653W        W11644   3.046  26.523  27.782  0.0091 -0.0871  0.2358
68654W        W11645  19.801  23.098  16.582 -0.1414  0.0229 -0.1824
68655W        W11646  18.415  27.991  16.486 -0.1736 -0.5755 -0.1706
68656W        W11647   2.113  34.179   3.743 -0.0028 -0.2571  0.0242
68657W        W11648  19.873   9.058  18.188  0.1681  0.0964 -0.0383
68658W        W11649  13.880  33.774   4.561  0.0435  0.1249 -0.0079
68659W        W11650   3.097  34.298   1.166 -0.0809  0.4925  0.0383
68660W        W11651  21.389  19.882  19.608 -0.1390  0.1654 -0.3764
68661W        W11652  13.483   5.921   8.640  0.2380  0.1992 -0.0865
68662W        W11653   8.042   4.152   9.257 -0.2350  0.0507  0.0552
68663W        W11654  18.026  31.035   2.509 -0.1458  0.2796  0.2466
68664W        W11655   1.107   3.454   5.681  0.3725  0.1004 -0.2431
68665W        W11656  14.940   8.007  19.353 -0.0821 -0.1294  0.1812
68666W        W11657  33.786  34.617   5.719 -0.2504 -0.0244 -0.2068
68667W        W11658  14.729   8.750  21.798  0.0770 -0.5027  0.0681
68668W        W11659   6.470  31.198   7.969 -0.0038 -0.0924  0.1843
68669W        W11660   0.284  31.071  16.172 -0.0433 -0.1523 -0.1514
68670W        W11661   8.416  33.573  16.550 -0.0289  0.1304 -0.1114
68671W        W11662   9.125   5.658  22.019  0.3030 -0.1318  0.1832
68672W        W11663  16.946  21.572  17.111  0.2490 -0.1557  0.0635
68673W        W11664  20.087  26.198  21.600 -0.0560 -0.4160  0.2227
68674W        W11665  10.021  11.786  25.164 -0.0984  0.0768 -0.1811
68675W        W11666   0.293  25.357   1.611 -0.1057  0.0346 -0.1587
68676W        W11667   1.307  15.334  24.869 -0.0626 -0.0977  0.3846
68677W        W11668  20.067  33.019  28.619  0.0830 -0.1686  0.1787
68678W        W11669  23.277  28.957  24.994 -0.1185 -0.0999 -0.0138
68679W        W11670   6.784  31.280   3.838  0.1995  0.2079  0.0571
68680W        W11671  29.306   2.094   5.902  0.1616  0.0834  0.2670
68681W        W11672  16.300  10.045  23.505  0.0224 -0.1147  0.4250
68682W        W11673  17.136  32.746   5.546 -0.0585  0.0409 -0.3371
68683W        W11674   0.289  11.663   3.106  0.1155 -0.1149  0.2503
68684W        W11675  13.948  10.675   4.464  0.0224 -0.1275 -0.1576
68685W        W11676   6.139  10.631  20.040  0.0828  0.0461  0.1493
68686W        W11677   0.824  18.694   3.941  0.1892  0.3324 -0.2369
68687W        W11678   4.842   2.768   1.964  0.0431 -0.2527 -0.1203
68688W        W11679   3.775  12.093   2.152 -0.3107 -0.1271  0.2825
68689W        W11680   4.438   4.304  27.286  0.0563 -0.1861  0.2073
68690W        W11681  27.178  26.595  20.471 -0.0663 -0.5052  0.0592
68691W        W11682  27.849  15.432  26.753  0.1077  0.0069 -0.3047
68692W        W11683  15.020  17.853   0.645  0.0497 -0.1137  0.1514
68693W        W11684  21.740  11.673   0.867  0.0411  0.1274 -0.0604
68694W        W11685   4.335   7.806  27.240  0.0725  0.1572 -0.0018
68695W        W11686   8.774  29.652   5.687 -0.0839  0.1331 -0.0471
68696W        W11687   2.245  10.264   5.456  0.0103  0.2404  0.2289
68697W        W11688   2.155  21.964  23.618  0.0321 -0.0897 -0.3115
68698W        W11689  34.658   7.394  28.784  0.0717 -0.0516  0.1237
68699W        W11690  27.564   8.393  28.659 -0.3671 -0.1404 -0.0861
68700W        W11691   8.191   7.023   0.731 -0.2724  0.2324  0.2615
68701W        W11692   1.573  13.637   5.955  0.0098 -0.1040  0.1733
68702W        W11693  24.799  20.767   6.496  0.1181 -0.0769 -0.0388
68703W        W11694   7.378  24.769  17.386 -0.4293 -0.0387 -0.0912
68704W        W11695   5.913  15.541   1.122  0.3388 -0.1374  0.0196
68705W        W11696  11.938  11.112   1.123 -0.3573  0.0384 -0.3087
68706W        W11697   9.897  33.303   9.966  0.1395 -0.1885 -0.1796
68707W        W11698  32.940  33.658  27.629 -0.4655 -0.0103  0.0612
68708W        W11699   5.393  13.135   6.868  0.3576  0.3404  0.0751
68709W        W11700  15.147  13.556  22.994  0.2696 -0.2602  0.0782
68710W        W11701  20.061  26.796   1.872  0.0151  0.2120 -0.1718
68711W        W11702  17.910   6.799   8.887  0.0427  0.0164 -0.0965
68712W        W11703   6.068  15.327  23.227  0.0725  0.0202 -0.0582
68713W        W11704  19.624  12.840   5.044 -0.0263 -0.5176 -0.0456
68714W        W11705  25.092  12.205  27.806  0.2045 -0.4447  0.0031
68715W        W11706   5.615  11.666   5.842  0.1353  0.1386  0.0356
68716W        W11707  33.654   9.880  28.760  0.2351  0.0536  0.1175
68717W        W11708   2.841   5.923   8.951 -0.0580  0.0252 -0.0667
68718W        W11709   3.179  12.094   2.513 -0.1251 -0.1259  0.0054
68719W        W11710  30.959   3.241   6.237  0.3347 -0.0203  0.0964
68720W        W11711  27.387   9.067   5.047  0.1162  0.0298  0.1765
68721W        W11712  22.297   4.268   8.410 -0.0323  0.2548  0.3753
68722W        W11713   1.324   5.824   8.446  0.0938 -0.2293  0.3317
68723W        W11714  19.227   7.657  16.021 -0.0949 -0.2297  0.0118
68724W        W11715  22.232  16.470  21.869  0.1598  0.2412 -0.0207
68725W        W11716  11.147   4.942  10.016 -0.0198 -0.1926 -0.0893
68726W        W11717   4.234  15.105   8.749 -0.1134  0.0454 -0.2102
68727W        W11718  15.512  31.629  20.359  0.1513  0.0039  0.0133
68728W        W11719  18.128  13.050  19.889  0.1629 -0.0746 -0.1303
68729W        W11720   6.905  10.661   4.391  0.4246  0.0792 -0.0129
68730W        W11721   1.248  23.867   3.794  0.2577 -0.0017 -0.1180
68731W        W11722  14.266  16.628  24.989 -0.1653 -0.1700  0.1550
68732W        W11723  31.647  20.935  25.706 -0.2132 -0.0515  0.1749
68733W        W11724   4.904   1.324   0.029  0.3154 -0.0432  0.1570
68734W        W11725  17.738  10.882   9.511 -0.2562  0.0255  0.3052
68735W        W11726   1.594  13.366   9.740 -0.3809 -0.1968  0.5433
68736W        W11727  30.781  10.717   7.076 -0.0105 -0.1667  0.2086
68737W        W11728   1.775  15.917  29.129 -0.2577  0.0496 -0.3136
68738W        W11729   7.371  10.801   5.050 -0.0757 -0.1693 -0.2793
68739W        W11730  18.517  21.182  24.854  0.0293 -0.0316  0.0968
68740W        W11731   7.373  24.065  25.160 -0.0881 -0.1099 -0.3101
68741W        W11732   3.083  30.210  27.649  0.1068 -0.1388 -0.0897
68742W        W11733   8.386  21.014  10.322 -0.0546  0.0651  0.2137
68743W        W11734   3.690  13.985  25.974  0.0210 -0.0466  0.0589
68744W        W11735   7.021   0.960  16.993  0.2418 -0.0439 -0.1080
68745W        W11736  31.104   5.401  24.823  0.2198  0.3959  0.0568
68746W        W11737   1.232   9.790  26.149  0.3038 -0.0036  0.0180
68747W        W11738  29.939   2.179  17.662  0.0555  0.0746  0.3455
68748W        W11739   3.296   0.980   3.789  0.2276  0.1314 -0.1012
68749W        W11740  12.163  11.039  26.948  0.1613 -0.1374  0.2551
68750W        W11741  30.036  11.958   2.800  0.0194 -0.0514 -0.0523
68751W        W11742   4.902   0.925   7.125 -0.1844 -0.0201  0.1648
68752W        W11743   5.400  33.098   8.152  0.0769 -0.0166  0.0415
68753W        W11744   5.132  30.548   7.744  0.0139 -0.0138 -0.2055
68754W        W11745   2.007   3.585   3.845  0.0692 -0.4628  0.2798
68755W        W11746   3.189   3.047   8.539 -0.0650  0.0459 -0.1942
68756W        W11747  19.275  27.256   8.401 -0.1393  0.3307  0.0289
68757W        W11748  15.168  20.449   5.275 -0.2439 -0.0951 -0.2101
68758W        W11749  20.629  28.893  19.058  0.4372 -0.1303  0.5157
68759W        W11750   4.747   1.981   4.327 -0.0356  0.0680  0.3512
68760W        W11751   4.648   2.607  20.018 -0.3034 -0.3009  0.3708
68761W        W11752   8.077  32.364   5.143  0.0745  0.0088 -0.1283
68762W        W11753  34.190  23.163   5.920 -0.0733  0.1412  0.0086
68763W        W11754  27.106  14.308   9.963 -0.0837 -0.2007  0.1134
68764W        W11755   8.134   7.254  28.431 -0.3647  0.3820 -0.1922
68765W        W11756   6.159   5.296  23.160 -0.2198 -0.0528 -0.1545
68766W        W11757  31.292   2.256   4.589  0.0757  0.1189  0.0551
68767W        W11758  31.423   8.410   5.106 -0.1846  0.0473  0.2378
68768W        W11759   7.970  25.455  29.227 -0.1430 -0.4788 -0.1501
68769W        W11760   4.220  31.361   4.883 -0.0473  0.0858  0.2356
68770W        W11761   9.041   6.614   1.716  0.2089  0.0653 -0.0990
68771W        W11762  20.115   6.613   8.507  0.2337 -0.0160  0.1364
68772W        W11763  30.487   2.852  27.718 -0.1553 -0.0851  0.0092
68773W        W11764   5.768   1.915  10.417 -0.1345 -0.0263  0.1581
68774W        W11765   0.571  13.415  27.548 -0.0487  0.1864  0.1272
68775W        W11766   6.349  12.980  24.173  0.2465 -0.3163  0.0439
68776W        W11767   3.788   6.956  24.979  0.0578  0.5283  0.0667
68777W        W11768   6.426   9.817   1.371  0.2328  0.0313  0.1500
68778W        W11769   8.254  21.947   2.308  0.1596  0.1343  0.0174
68779W        W11770  10.207  30.807   4.146 -0.0800 -0.0340 -0.1110
68780W        W11771  27.005  11.037   5.943  0.1849  0.0642 -0.3837
68781W        W11772  11.429   0.744  21.728 -0.0539 -0.2702 -0.3791
68782W        W11773  12.978   0.342   7.762  0.0101  0.1075 -0.0508
68783W        W11774  13.475   6.836  24.816 -0.3269  0.3020 -0.0138
68784W        W11775   3.582   1.480  15.666 -0.0022  0.1783 -0.0012
68785W        W11776  26.748  29.448   0.724 -0.0282  0.1973 -0.0114
68786W        W11777  12.939   8.348  22.651  0.0427  0.0169  0.0180
68787W        W11778  34.528   5.347  28.321  0.1634  0.1906  0.2895
68788W        W11779  21.857   9.609   5.642 -0.0628  0.0604  0.0977
68789W        W11780   8.844  30.829  20.526 -0.3018 -0.3609  0.1591
68790W        W11781  34.263   4.911   0.599 -0.2748  0.0838 -0.3008
68791W        W11782  33.784  14.833   1.472  0.1447  0.2888 -0.2391
68792W        W11783   5.379  22.470  28.770 -0.0883  0.0666 -0.0304
68793W        W11784   6.521  25.102  26.593  0.0875 -0.1607  0.4287
68794W        W11785  15.009  19.795   6.138  0.1176  0.0413 -0.0226
68795W        W11786  27.870  23.867  19.037  0.2366 -0.2162 -0.2849
68796W        W11787   8.022  14.817   6.798 -0.0110  0.1401 -0.2389
68797W        W11788  23.960  12.515  27.002  0.2237  0.0384 -0.2428
68798W        W11789   7.969   2.661   4.025 -0.1814 -0.3910 -0.1259
68799W        W11790   8.083   9.715   7.684 -0.2456  0.1021  0.0005
68800W        W11791  18.004  18.696   6.800  0.1191 -0.1125  0.1118
68801W        W11792   2.345   3.215  17.629 -0.1605  0.2375  0.0291
68802W        W11793  10.958  14.987   8.582 -0.0460 -0.0304 -0.2826
68803W        W11794   6.529   3.857   7.653  0.1890 -0.0054 -0.3925
68804W        W11795  12.587   7.529   9.070  0.1406  0.1511 -0.1533
68805W        W11796   7.179  24.939   4.196 -0.3920 -0.1334 -0.0439
68806W        W11797  15.428   5.791   5.317 -0.0697 -0.3110 -0.0794
68807W        W11798  21.591   6.423  10.103  0.1652  0.0744 -0.1059
68808W        W11799  11.688  10.336  15.159  0.1342 -0.1221  0.1888
68809W        W11800  11.962  21.010   1.067  0.0081 -0.1643 -0.1193
68810W        W11801  21.422   1.530  22.090 -0.0651 -0.1234 -0.0340
68811W        W11802   5.834  10.918  23.672 -0.1702 -0.0430  0.1786
68812W        W11803  32.146   0.607   6.488 -0.1916 -0.3884  0.3742
68813W        W11804  14.070   6.959  10.198  0.1252 -0.1028 -0.2065
68814W        W11805   2.129  18.187  23.078  0.0164  0.0622 -0.2013
68815W        W11806  29.766  18.182   8.857  0.1983 -0.0199  0.0573
68816W        W11807  13.755  14.455  25.210  0.3376  0.0587 -0.2819
68817W        W11808  33.479  10.732  24.896  0.1806  0.0059  0.2399
68818W        W11809   8.037   9.266  11.334 -0.0565 -0.2137 -0.2113
68819W        W11810  18.095  11.816  27.308  0.1096  0.1663  0.0040
68820W        W11811  15.477  10.696   2.695 -0.3441 -0.1032  0.2470
68821W        W11812   9.449   5.529   5.726  0.1696  0.2821  0.1855
68822W        W11813   0.135  12.258   1.025  0.1676 -0.0568 -0.1364
68823W        W11814   2.321  15.394  25.699 -0.0156  0.0024  0.2090
68824W        W11815   6.834  10.824  11.254  0.0386  0.1123 -0.0629
68825W        W11816  16.239  31.039  29.213  0.1047  0.1761 -0.0505
68826W        W11817   8.467  23.842  27.012 -0.2829  0.0065  0.3273
68827W        W11818   9.421   7.323   4.679  0.3075  0.0513  0.0498
68828W        W11819   1.246  31.968  23.722 -0.0329 -0.0532  0.2392
68829W        W11820  11.196  15.754   4.020  0.2265  0.2739  0.0437
68830W        W11821   8.097  32.935   8.876  0.2986  0.0397 -0.1712
68831W        W11822  16.600  13.642  22.788 -0.0250  0.0845 -0.0348
68832W        W11823  26.055   9.802   6.454  0.1842 -0.0259  0.1104
68833W        W11824   1.997   9.123  24.573  0.0388  0.1018 -0.2706
68834W        W11825  19.815   8.570  26.622 -0.0845  0.1468  0.2326
68835W        W11826   1.549   8.879  19.795  0.1317 -0.0464  0.1102
68836W        W11827   0.834  32.222  25.483  0.2124  0.1192  0.1238
68837W        W11828   0.779  31.242  24.670  0.3275  0.2410 -0.2385
68838W        W11829  27.923  29.027  25.230 -0.3554  0.2860 -0.1445
68839W        W11830  32.258  24.079  28.139 -0.1710 -0.0718  0.0193
68840W        W11831   5.668  12.100  16.510 -0.1620  0.1428 -0.2048
68841W        W11832  11.095  21.206  14.579  0.0185  0.1161  0.1248
68842W        W11833  10.841   5.556   8.973 -0.0428 -0.2338  0.3265
68843W        W11834   2.572  13.040  10.106  0.0822  0.0474 -0.3993
68844W        W11835  31.307  12.483   7.026 -0.1164  0.0209  0.0086
68845W        W11836  18.945  28.297   5.295  0.2471 -0.3162  0.1605
68846W        W11837  32.590  16.612  23.643  0.0462 -0.0717  0.1442
68847W        W11838  27.158  10.904  10.490  0.2775  0.0248 -0.5888
68848W        W11839  18.795   0.769   7.652  0.3119 -0.2581  0.1178
68849W        W11840  25.218  21.678  27.228  0.2939 -0.1664  0.1247
68850W        W11841  34.236  31.943  25.097  0.2180 -0.1159 -0.0005
68851W        W11842   5.093   8.717   1.198  0.0492  0.2788 -0.0900
68852W        W11843  23.732  30.726   8.785  0.0776  0.1915 -0.0591
68853W        W11844   1.749  10.468  27.414 -0.0087  0.0543 -0.2977
68854W        W11845   3.954   1.105   9.612  0.1227 -0.2219 -0.1510
68855W        W11846   3.640   6.498  26.681 -0.1484 -0.3517  0.1382
68856W        W11847  10.650   7.468   9.528  0.1806  0.0378 -0.0315
68857W        W11848  10.498  23.417   0.003  0.1256  0.0874  0.0292
68858W        W11849  32.059  11.432   3.326  0.1634 -0.0031 -0.1758
68859W        W11850  20.023  12.712   3.915  0.0485  0.2151  0.0877
68860W        W11851  12.243   4.099   4.118 -0.0725 -0.1887  0.0241
68861W        W11852  34.146  11.190   6.808 -0.2951 -0.3514  0.2154
68862W        W11853  15.206  12.334   1.516  0.1645  0.0106  0.0092
68863W        W11854  12.407  19.177   2.712 -0.1663 -0.0571 -0.3855
68864W        W11855   5.653  14.457  22.737 -0.0986  0.1274 -0.0968
68865W        W11856  20.941  18.345  21.303 -0.2096 -0.2678  0.1469
68866W        W11857   6.206  10.887   7.515  0.0780 -0.0135  0.0210
68867W        W11858  34.239   7.272   5.471  0.3007  0.0031  0.0779
68868W        W11859   2.836  12.058  10.212 -0.5618 -0.0191  0.1758
68869W        W11860  25.513  23.230  25.047  0.1579  0.1127 -0.0077
68870W        W11861   2.536  28.403   2.796 -0.2174  0.1856 -0.4164
68871W        W11862  30.985  22.654   4.763  0.0517  0.0382 -0.0652
68872W        W11863  28.588   7.078   3.273 -0.1634  0.1787 -0.3069
68873W        W11864  11.660  18.490   1.334  0.0562 -0.1342  0.3008
68874W        W11865  16.512  22.089   9.172  0.0650  0.1771  0.1355
68875W        W11866  10.929   5.926   7.490 -0.2153  0.0474  0.1058
68876W        W11867   5.694  34.312   4.489  0.0593  0.2003  0.0762
68877W        W11868  25.584  31.469   7.107 -0.3587 -0.1641 -0.1202
68878W        W11869  10.068   9.629   9.598  0.2287  0.0583 -0.1331
68879W        W11870  15.448   0.693   5.633  0.1667 -0.3518 -0.1269
68880W        W11871  12.198   9.706  26.484  0.0560 -0.1894 -0.0661
68881W        W11872  13.942  11.229   4.537  0.2401  0.1232 -0.3980
68882W        W11873  22.166   3.525  28.051 -0.1516  0.2115  0.2219
68883W        W11874  17.460  15.268   0.451  0.1291 -0.1380  0.0323
68884W        W11875   6.433  15.105   4.361  0.1227 -0.0694 -0.2355
68885W        W11876  17.472   3.439  29.217  0.1312 -0.1177 -0.2184
68886W        W11877  11.423  15.210   2.186  0.1396 -0.1870 -0.0203
68887W        W11878   5.143   4.890   9.107  0.0068  0.0250  0.0932
68888W        W11879  11.996   2.121   5.614  0.1314  0.4474  0.2954
68889W        W11880  17.601  31.418   6.714 -0.2568  0.2328 -0.2665
68890W        W11881  19.944  14.421   5.726  0.3937  0.2974 -0.0047
68891W        W11882  21.769  10.173   1.812 -0.2472  0.0938 -0.1522
68892W        W11883   0.277  24.040   6.089 -0.0996  0.0178  0.2409
68893W        W11884  10.139  12.040  23.804  0.1946 -0.0960 -0.0677
68894W        W11885  33.147  16.762   8.339 -0.0400 -0.0161  0.1966
68895W        W11886   8.431  11.799  18.726 -0.0880  0.1154 -0.0877
68896W        W11887   7.534  14.224   6.576  0.0122 -0.0420  0.2014
68897W        W11888   3.916  29.426   9.295 -0.4002  0.4034  0.0901
68898W        W11889   0.631   0.195   5.502  0.1457  0.1586 -0.1836
68899W        W11890   0.595   7.719   1.263  0.1507  0.1620  0.2440
68900W        W11891  16.273   8.375   7.450  0.1854 -0.2679  0.0306
68901W        W11892   4.931   8.484  25.829 -0.0535 -0.0007 -0.2515
68902W        W11893  12.731  29.945  20.780 -0.0516 -0.0893 -0.2380
68903W        W11894   4.467  30.166   1.103 -0.1757 -0.0592 -0.0361
68904W        W11895  22.780  11.513   6.841  0.1384 -0.1535  0.0600
68905W        W11896   7.450   3.570  27.448  0.0218  0.0855  0.1054
68906W        W11897   8.489  14.049   7.703 -0.1440  0.0286 -0.5198
68907W        W11898  14.184  15.425  28.400 -0.3743  0.1854  0.0089
68908W        W11899  30.749   2.505  21.256  0.1571 -0.2350 -0.0456
68909W        W11900  14.377  25.829   5.290  0.1027 -0.0400 -0.0435
68910W        W11901   8.883   9.596  10.368 -0.1572  0.0009  0.3582
68911W        W11902   2.308  12.010   7.463  0.0123  0.2828 -0.0069
68912W        W11903   5.902  31.678  28.959  0.3271 -0.3790 -0.2192
68913W        W11904   3.759   5.989   2.915  0.0722 -0.2721 -0.3237
68914W        W11905   5.959  10.933   3.344  0.0964 -0.1715 -0.2905
68915W        W11906  33.054   9.002  28.795 -0.1309 -0.1683 -0.0291
68916W        W11907   2.757   9.069  11.424  0.3064  0.0895  0.1140
68917W        W11908  19.687   7.298   3.450  0.0036  0.3079 -0.0337
68918W        W11909   6.924  24.088   3.648 -0.1066 -0.1565  0.0208
68919W        W11910  30.341   9.290   9.724  0.1136  0.1224  0.3111
68920W        W11911   2.447   1.801   8.444 -0.0397  0.6133 -0.1612
68921W        W11912  22.974  29.863   2.660  0.1623 -0.0540  0.3073
68922W        W11913  10.658   8.738   4.977  0.1158 -0.1334  0.1028
68923W        W11914  14.467   8.395   2.052  0.0784 -0.0673 -0.2834
68924W        W11915  21.350   8.780   9.528 -0.0898  0.0042  0.1694
68925W        W11916   0.301  20.993   3.466 -0.0591 -0.0376  0.0083
68926W        W11917  15.851  20.320  24.861 -0.0704  0.2566 -0.1193
68927W        W11918  32.645   6.531   8.830  0.2680  0.0863 -0.3835
68928W        W11919  17.140  10.557   0.377 -0.0163 -0.0393  0.2886
68929W        W11920  17.526  24.662   5.754 -0.2723  0.2329 -0.1113
68930W        W11921  10.751  21.164   7.881  0.0806  0.0954  0.0683
68931W        W11922  25.388  20.511   7.846  0.0126  0.0243 -0.0733
68932W        W11923  23.162  26.115   3.557  0.2206  0.2574 -0.0167
68933W        W11924  12.164  15.735  28.798 -0.0461 -0.2591 -0.0576
68934W        W11925   0.520   6.038   4.933 -0.1497  0.0072  0.0214
68935W        W11926  15.064   4.310  29.194  0.2931 -0.0890  0.4254
68936W        W11927   3.545  11.802   6.702 -0.2643  0.2357  0.1050
68937W        W11928   4.902  23.954  28.303 -0.0624 -0.0631  0.0771
68938W        W11929   0.955  14.746   0.840  0.1021  0.4304  0.1987
68939W        W11930  19.321   0.338   4.309  0.0285 -0.3841 -0.1097
68940W        W11931   2.509   2.989  25.690  0.1336  0.2628 -0.0641
68941W        W11932   3.506   4.262  10.565  0.0098 -0.1441 -0.0511
68942W        W11933  31.554   4.063   3.947  0.0737 -0.0842  0.0045
68943W        W11934  25.092  15.947  23.510  0.1831 -0.1787  0.0482
68944W        W11935   2.615   5.176   2.274  0.0653  0.0808  0.1091
68945W        W11936   5.425   1.686   4.715 -0.1569 -0.1500 -0.2292
68946W        W11937   7.466  13.849  10.970 -0.2484  0.2395 -0.0741
68947W        W11938  13.779   5.424   2.124 -0.2893  0.0398 -0.1068
68948W        W11939  12.203  16.565   5.759  0.4183 -0.4255  0.0117
68949W        W11940   3.955  11.668   4.422  0.1076 -0.0770 -0.0517
68950W        W11941  23.810   2.199  27.795 -0.0411 -0.3632 -0.0283
68951W        W11942  13.938  28.038   5.454  0.0938 -0.1788  0.5819
68952W        W11943  11.191  21.898   8.297  0.0261 -0.0158  0.0439
68953W        W11944   6.071   0.555  10.210  0.0230 -0.0320  0.3706
68954W        W11945  30.657  22.101  21.749  0.3775  0.2791 -0.3162
68955W        W11946  10.641  31.449  18.449  0.0105  0.3189  0.2417
68956W        W11947  17.109  34.145   3.994  0.1169  0.1067 -0.2382
68957W        W11948  12.153  34.531   8.983  0.0974 -0.1598 -0.1608
68958W        W11949  26.204  32.177   3.486 -0.2072  0.0889 -0.0291
68959W        W11950  34.596  20.782  27.514 -0.0656  0.0264 -0.0413
68960W        W11951  24.943   5.172   7.945 -0.2939  0.0374 -0.0199
68961W        W11952  30.737   2.840  17.885 -0.1286  0.2206  0.2911
68962W        W11953  34.745  22.128   0.424  0.2827 -0.1538 -0.0934
68963W        W11954  16.791   9.125  26.062 -0.0447  0.1920 -0.0162
68964W        W11955   9.352  10.791  24.505 -0.3353  0.0713  0.0732
68965W        W11956  11.468  15.099  18.138 -0.1077  0.0346 -0.0140
68966W        W11957  31.829  10.062   1.318  0.0089 -0.3153 -0.2024
68967W        W11958  13.970  29.590   6.853  0.1280 -0.1859 -0.0778
68968W        W11959  28.727  11.189   2.080 -0.1446 -0.1121 -0.1709
68969W        W11960   4.812   3.345   8.331  0.0194  0.2238  0.0022
68970W        W11961   9.131   7.061  10.315  0.3959  0.0014 -0.2198
68971W        W11962  26.987   8.168  25.601  0.1556 -0.3249  0.0060
68972W        W11963  21.980  18.833  25.359  0.3377  0.0524  0.0796
68973W        W11964  30.551  10.308   2.513  0.2572  0.3437 -0.1407
68974W        W11965   8.347  11.523  25.881  0.2494  0.1225 -0.2545
68975W        W11966  26.475   6.627  22.311 -0.0350 -0.1495  0.0816
68976W        W11967  20.595  33.601   0.527  0.1858 -0.0024  0.1543
68977W        W11968   1.533  14.446   8.550 -0.1131 -0.0968  0.0457
68978W        W11969  12.355  18.955  18.774 -0.1736 -0.1660 -0.1523
68979W        W11970   5.542  22.409  24.602  0.1984  0.0618 -0.1776
68980W        W11971  24.272   3.078   7.535  0.0713  0.0053 -0.0163
68981W        W11972   2.948   4.074   7.410 -0.1196 -0.0364  0.0866
68982W        W11973   6.315   5.872   9.853  0.2307 -0.0657 -0.0102
68983W        W11974   3.314  28.835   7.715 -0.0360  0.1410 -0.0057
68984W        W11975   7.810  10.100   8.282 -0.2625 -0.1651  0.3039
68985W        W11976   1.760  12.590  15.976 -0.0440  0.2256 -0.1283
68986W        W11977  31.546   7.469   9.314  0.0394 -0.1380 -0.2419
68987W        W11978  12.362  34.254  28.311  0.0491 -0.1552 -0.2580
68988W        W11979   6.752  18.154  20.890 -0.4609 -0.1056  0.1300
68989W        W11980   7.138  12.839   2.643  0.0280 -0.2704 -0.3089
68990W        W11981   6.835   6.482  27.982 -0.2653  0.0974  0.2025
68991W        W11982  12.864  17.924   4.117  0.2309  0.0028  0.0494
68992W        W11983   0.755   7.778   8.126 -0.0519 -0.0272 -0.3463
68993W        W11984  10.006  29.105  19.332  0.1133 -0.2568  0.2026
68994W        W11985   8.217  17.483   6.766 -0.2125 -0.0957  0.1049
68995W        W11986  13.518  24.808   5.761 -0.0782 -0.1154 -0.0710
68996W        W11987   8.770  12.557   2.165  0.1024  0.2329 -0.1387
68997W        W11988   6.500   7.879   2.712  0.2227 -0.1939  0.0667
68998W        W11989   7.783  28.907  19.513 -0.2030 -0.3009 -0.0638
68999W        W11990   2.209  33.073  14.377 -0.3399 -0.1357  0.0119
69000W        W11991  10.493   6.254   3.785 -0.1512  0.0242 -0.1388
69001W        W11992  30.813   3.179   1.125  0.1056  0.0545  0.0133
69002W        W11993  19.456  17.521   5.617  0.0382  0.1278  0.0029
69003W        W11994  31.817  15.253   1.743 -0.0079  0.1018  0.1619
69004W        W11995  14.811  30.478   4.135  0.3884 -0.2739  0.0694
69005W        W11996   1.916   3.391  17.277 -0.0120 -0.0296 -0.0380
69006W        W11997  30.242   4.614  24.482  0.2011 -0.2380  0.2361
69007W        W11998  12.425  28.428   7.861 -0.1418 -0.1213  0.0181
69008W        W11999  11.777   2.192   6.746  0.0258  0.0451  0.1405
69009W        W12000  14.634   3.325  21.628 -0.0927  0.0791 -0.0130
69010W        W12001  19.497   1.972   9.176 -0.2609  0.1851  0.0717
69011W        W12002  30.883   8.774  15.130 -0.1571 -0.1025 -0.0147
69012W        W12003  32.677  15.931   6.618 -0.3195 -0.4631 -0.0029
69013W        W12004   5.200   9.961  10.180 -0.3030 -0.1020  0.1117
69014W        W12005  16.398  21.565   5.395 -0.0118 -0.2798 -0.0242
69015W        W12006  16.895  12.220   8.359 -0.1670 -0.1450 -0.0314
69016W        W12007   6.180  12.438  27.443  0.2944  0.4243 -0.1420
69017W        W12008  25.663  17.463   2.653  0.0526 -0.0063  0.0847
69018W        W12009  33.786   9.846  10.062  0.0550 -0.1392 -0.0495
69019W        W12010  34.346  16.887  10.289  0.1176 -0.0454  0.0630
69020W        W12011   6.170   0.852   4.704 -0.2915 -0.1244  0.0280
69021W        W12012   7.761  15.117   6.434 -0.1576  0.1964 -0.0722
69022W        W12013  12.674  16.385   0.877 -0.1878 -0.1525 -0.3363
69023W        W12014   5.845   5.104  29.189  0.0107  0.1397  0.0598
69024W        W12015  16.417  14.687   2.705  0.0699  0.2811  0.0083
69025W        W12016  15.275  10.197  20.447  0.1438 -0.0535 -0.0838
69026W        W12017   9.580  18.347  20.959  0.1262  0.0698  0.1623
69027W        W12018  28.529  23.016   0.729  0.1004 -0.0351 -0.0826
69028W        W12019  32.806  10.279  24.504  0.1278  0.0741  0.0145
69029W        W12020  11.077  31.370  23.607 -0.2132 -0.0998 -0.0403
69030W        W12021  20.763  11.475   9.436 -0.0243 -0.0073  0.3056
69031W        W12022  28.686  13.540   5.231  0.2082 -0.0388  0.1700
69032W        W12023   4.845  18.427   0.387  0.0816 -0.0675 -0.1717
69033W        W12024   3.477  18.109   8.984  0.0079  0.3054  0.0265
69034W        W12025   9.299   6.810   9.958  0.1126 -0.3288  0.0211
69035W        W12026   2.862   5.230   6.391  0.1615 -0.2603 -0.0614
69036W        W12027  31.405   3.776   5.587 -0.0049  0.1477 -0.1827
69037W        W12028  33.443   6.009   5.788  0.2584  0.2394  0.1859
69038W        W12029   0.711   8.622  27.903  0.0948 -0.0233 -0.0060
69039W        W12030  26.200   9.438  19.073  0.1940  0.4940  0.1018
69040W        W12031  11.821  21.930   0.099  0.1543 -0.0770  0.1664
69041W        W12032   3.154   2.299   2.855  0.3824  0.0285 -0.0657
69042W        W12033  19.078  32.619   4.629 -0.0381 -0.2339  0.2537
69043W        W12034  28.791   2.516   7.010 -0.1541  0.0212  0.0727
69044W        W12035  29.740  11.075   9.850  0.1171  0.0075  0.3238
69045W        W12036  12.535  23.712  25.719 -0.0855  0.2507  0.0951
69046W        W12037   4.933  17.552  11.031 -0.2049  0.1109 -0.4184
69047W        W12038   1.888   0.047   4.878  0.0757  0.2120 -0.0300
69048W        W12039   3.690  22.840   8.779  0.0823 -0.1239 -0.0328
69049W        W12040   5.516  29.860   3.135 -0.0024  0.3919 -0.4972
69050W        W12041   4.613  26.938   1.523 -0.2031  0.1805 -0.1281
69051W        W12042   9.332  13.525  25.989  0.1329 -0.0789  0.2290
69052W        W12043  34.253  13.305  12.023  0.1264  0.0856 -0.0405
69053W        W12044  33.232  25.944   5.667 -0.0364  0.1062 -0.2017
69054W        W12045  28.191  27.619   0.469  0.2558  0.0635  0.1276
69055W        W12046  23.420   8.066   1.732 -0.1355  0.2512  0.2402
69056W        W12047  10.284  11.768   6.913 -0.0761  0.1278 -0.1806
69057W        W12048  29.088   9.532   6.230  0.2527 -0.2223  0.1200
69058W        W12049  20.692  13.394   7.667 -0.1685 -0.1012  0.2223
69059W        W12050  31.688   7.364  15.779 -0.0739  0.0036  0.0286
69060W        W12051  11.077  14.692   8.133  0.0781 -0.0339 -0.1373
69061W        W12052   5.503  21.795  10.474  0.0210  0.0675  0.2018
69062W        W12053   5.969  32.685  21.072  0.0427 -0.2817  0.2163
69063W        W12054  10.830  18.495  27.670  0.0091  0.1459  0.3008
69064W        W12055  30.678  22.748  28.576 -0.0550 -0.0761 -0.1136
69065W        W12056  15.894   2.252  26.724  0.1604 -0.3165 -0.0381
69066W        W12057   2.092  10.038   3.969 -0.1338 -0.2713 -0.1836
69067W        W12058  25.313   5.487   9.471 -0.0870  0.4669 -0.0621
69068W        W12059   8.284  10.330   4.219  0.1359  0.1118 -0.1650
69069W        W12060  20.608   3.668   6.626  0.0318 -0.0881  0.0329
69070W        W12061   2.875  23.781   2.680  0.0201 -0.2965  0.1796
69071W        W12062  25.056  34.584   4.445 -0.2966  0.3176  0.2468
69072W        W12063  28.880   5.849  26.809  0.0996 -0.1535  0.1050
69073W        W12064  14.475   6.552  10.069  0.1359  0.5112  0.1523
69074W        W12065   7.055   7.356   1.954  0.1758  0.3260 -0.1593
69075W        W12066   6.885  17.691  21.266 -0.1094 -0.0680  0.0782
69076W        W12067  12.467   7.595  11.017 -0.4116  0.0402 -0.3808
69077W        W12068  10.669  34.360  16.774 -0.2019  0.0469  0.0567
69078W        W12069  34.107  18.123   9.375  0.1127 -0.2184  0.3883
69079W        W12070   0.637   4.830   4.206  0.2047 -0.0232  0.3157
69080W        W12071  18.068   7.197  26.477  0.0840  0.0426 -0.2567
69081W        W12072  28.180  10.184  27.914 -0.1241  0.1979 -0.1244
69082W        W12073   7.052  30.134   2.602 -0.2464 -0.1067  0.0317
69083W        W12074  24.698   9.366   4.319 -0.0569 -0.0312 -0.1952
69084W        W12075  29.587  12.053  20.916 -0.0858  0.1840  0.0604
69085W        W12076  20.387   4.980   0.551 -0.1009  0.0194  0.2372
69086W        W12077  13.232   4.914  10.402  0.1309 -0.0397 -0.0233
69087W        W12078  20.618  33.232   8.622 -0.0427 -0.0657 -0.0097
69088W        W12079   3.871  17.883  10.522  0.0799  0.0854 -0.1435
69089W        W12080   1.286   7.578   6.809  0.1524  0.0036 -0.1926
69090W        W12081  10.657  27.777   3.280  0.0501  0.0952 -0.2823
69091W        W12082  28.780  31.944  13.868  0.1675  0.3086  0.1890
69092W        W12083  15.729   8.038   6.382 -0.0407 -0.1736 -0.2155
69093W        W12084  21.750   4.756  27.756 -0.0303 -0.2940  0.0912
69094W        W12085   2.654  13.537  10.252 -0.1533 -0.3763 -0.2301
69095W        W12086  14.550  13.794  27.360 -0.0577 -0.0173 -0.0868
69096W        W12087  32.826  22.912  16.327  0.0112  0.0485 -0.4348
69097W        W12088   6.953  34.692   5.695  0.0166 -0.1721 -0.0445
69098W        W12089  22.519  16.567   6.794  0.1004  0.1806  0.0037
69099W        W12090   3.217   3.921  10.311 -0.2502 -0.1112 -0.1299
69100W        W12091  32.182  26.953   6.863  0.0234 -0.0285 -0.2597
69101W        W12092  14.548  13.799  27.958 -0.3334  0.1075  0.1493
69102W        W12093   3.205  12.254   8.140 -0.2379  0.2928  0.0022
69103W        W12094  21.408  25.032   1.088  0.1013  0.0018 -0.2989
69104W        W12095  31.824  26.370   3.136  0.1073 -0.1256 -0.2136
69105W        W12096   5.303   0.157   8.350  0.4314  0.1834  0.0545
69106W        W12097   9.563   9.075  10.667 -0.0291 -0.0784  0.4493
69107W        W12098  19.186   5.357   7.562 -0.0837  0.3401 -0.2597
69108W        W12099   9.791  18.503   1.670  0.1764 -0.2327 -0.3117
69109W        W12100   7.455  16.145   2.562  0.0652 -0.0877 -0.0385
69110W        W12101   3.044   0.223   1.583  0.1175  0.2615 -0.0886
69111W        W12102  18.702  31.149   9.106 -0.0263 -0.1439  0.1892
69112W        W12103   9.987  33.510  10.889  0.3944  0.2815 -0.0174
69113W        W12104   0.601  20.329   7.616  0.2217  0.2671  0.1509
69114W        W12105   5.711  26.014  18.101 -0.2176 -0.0304  0.1324
69115W        W12106   2.616  32.642   4.934  0.2725  0.1753  0.1123
69116W        W12107   6.842  34.111  20.807 -0.0158  0.0185  0.1433
69117W        W12108   3.860  26.949   5.587 -0.2256  0.3238  0.0844
69118W        W12109   1.758   2.348   2.091  0.0935  0.0093 -0.0256
69119W        W12110  17.411   8.757   3.190  0.2803  0.3725  0.0403
69120W        W12111   8.566  10.518   7.285 -0.2931 -0.1307 -0.1935
69121W        W12112  15.665   8.275  10.300 -0.0623 -0.3807  0.1213
69122W        W12113  34.512  34.372   4.308 -0.1408  0.1166  0.0322
69123W        W12114   8.268  31.660   5.336  0.0008 -0.5836  0.3846
69124W        W12115   5.599   6.939  20.811 -0.3617 -0.0035  0.0033
69125W        W12116   1.572  17.482  27.714  0.0747  0.0016 -0.0297
69126W        W12117   7.181  28.422   1.642 -0.1813  0.3091  0.2180
69127W        W12118  34.633  15.912   5.230  0.2926  0.3947  0.0412
69128W        W12119   7.798  16.737   9.655 -0.1283  0.0600 -0.1812
69129W        W12120   5.304  12.929  21.940 -0.4115  0.1074 -0.0184
69130W        W12121  10.670  13.458   7.992  0.3407  0.1326 -0.1925
69131W        W12122   3.986  20.331   0.835 -0.4789  0.0210  0.0035
69132W        W12123   9.057   7.488   4.239  0.2251  0.3505 -0.0374
69133W        W12124  17.889   3.610   2.818 -0.1237  0.2285 -0.2009
69134W        W12125   8.896  10.681  23.813 -0.1478  0.2523 -0.3295
69135W        W12126   8.677   5.416   6.540 -0.0494  0.2533 -0.2974
69136W        W12127   3.853   5.977   2.458 -0.0090 -0.2515 -0.3405
69137W        W12128  26.907  30.015  25.233 -0.2550  0.1406  0.1483
69138W        W12129  20.480  30.724   8.090  0.0211  0.1703 -0.1445
69139W        W12130   7.811  14.134  24.857  0.1402 -0.1854 -0.2075
69140W        W12131  17.313   9.234   3.420 -0.0795  0.1633  0.1891
69141W        W12132  33.133   4.241  27.735  0.1342 -0.2139 -0.1198
69142W        W12133   5.964   5.439   2.470 -0.0998 -0.0177  0.1013
69143W        W12134  33.046  10.259  11.587  0.1222  0.0437 -0.2761
69144W        W12135   5.193  25.410   8.646  0.1012 -0.1681 -0.2352
69145W        W12136  15.478  32.334   8.468  0.2286 -0.1401  0.0480
69146W        W12137  14.262   8.781  10.541 -0.2161  0.2887 -0.1022
69147W        W12138  18.433  31.745   5.377  0.1835 -0.0176 -0.1690
69148W        W12139   5.489  31.648   2.603  0.1600 -0.0050  0.2158
69149W        W12140  32.380  31.727  22.987 -0.0908 -0.0688  0.2247
69150W        W12141   1.287   9.555   7.527  0.1076 -0.3864  0.0415
69151W        W12142  29.886  22.072   5.760 -0.1870 -0.1921 -0.1468
69152W        W12143  19.821  15.859   4.579 -0.1201 -0.3152  0.0390
69153W        W12144  20.370  17.127   8.780  0.0971  0.1891  0.0103
69154W        W12145  12.395  14.219   4.156  0.1730 -0.1403 -0.0422
69155W        W12146  27.443  20.977  29.026  0.1275  0.3891  0.1437
69156W        W12147  32.425  27.624   1.899  0.0492  0.4449  0.0251
69157W        W12148   6.501   5.140   8.712 -0.1157 -0.0504 -0.1787
69158W        W12149  31.854   6.811  10.124 -0.0279  0.1331  0.0965
69159W        W12150  32.783  18.222  28.482 -0.0461  0.2982 -0.1685
69160W        W12151   7.291  19.774   4.835 -0.2074  0.0624 -0.0146
69161W        W12152  10.438  11.434   1.717 -0.0579  0.1184  0.1354
69162W        W12153   8.471  29.048   9.371 -0.0488  0.0846 -0.1794
69163W        W12154  10.284  16.891  25.617 -0.0863  0.0563  0.0493
69164W        W12155   0.705  10.444   1.983 -0.4338  0.1717 -0.0339
69165W        W12156  11.685  30.079   6.003 -0.1322  0.0106 -0.3319
69166W        W12157  17.335  23.823   8.725 -0.0177 -0.3129  0.1276
69167W        W12158   8.172   1.782   9.558 -0.1420 -0.2010  0.1633
69168W        W12159  33.994  13.761   8.552 -0.0596  0.1365  0.0498
69169W        W12160  32.177  11.226   9.771  0.0582  0.0969 -0.2613
69170W        W12161  12.150   9.937   7.276  0.1487  0.1017  0.1291
69171W        W12162  19.694  13.460  29.208 -0.1888 -0.0774 -0.2666
69172W        W12163  11.603  14.000   5.122 -0.2170  0.0851  0.1709
69173W        W12164   7.146  27.299  28.001 -0.1609  0.0343 -0.0886
69174W        W12165  27.392  29.820   0.795 -0.1713  0.1421  0.3289
69175W        W12166  32.592  23.974   4.703  0.2307 -0.3583  0.1417
69176W        W12167  31.308  15.259   6.521 -0.1973 -0.1603 -0.0938
69177W        W12168  25.290  15.494   8.050 -0.3372  0.0759  0.1756
69178W        W12169  15.059   5.874   3.925  0.1991 -0.0601  0.1763
69179W        W12170  31.299  16.322   8.562  0.0233 -0.1511  0.1194
69180W        W12171  31.242  14.182   2.070 -0.1040  0.1116  0.3463
69181W        W12172   6.931  29.221   6.799  0.1407 -0.1338  0.4418
69182W        W12173  29.926   9.642   3.207 -0.0971  0.1866  0.0028
69183W        W12174  30.576   6.213  17.778 -0.1545 -0.0040  0.0191
69184W        W12175  24.158   8.248   2.249 -0.0603  0.4264 -0.0019
69185W        W12176  32.995  16.038   1.917  0.1111 -0.2305  0.0571
69186W        W12177   1.434  11.694   7.892  0.3145 -0.0671 -0.0299
69187W        W12178  24.473   4.711   3.851 -0.0744 -0.2878 -0.0578
69188W        W12179  24.777   3.333  26.959  0.2158  0.0653 -0.1459
69189W        W12180  33.349  20.140   2.890 -0.0111 -0.2073  0.2238
69190W        W12181   0.279  10.147   8.317  0.1844  0.1017  0.1077
69191W        W12182   5.109  14.402   5.917  0.0535  0.1052 -0.1834
69192W        W12183  24.781  12.666   9.313 -0.0927  0.0503 -0.4462
69193W        W12184   4.351  12.614  27.614  0.1028  0.2605  0.0514
69194W        W12185  29.871  12.859   9.896 -0.3196  0.2403 -0.1491
69195W        W12186  15.202  31.405   4.969 -0.2660 -0.1205  0.1048
69196W        W12187  23.572  18.846   9.626  0.2388 -0.0917 -0.0065
69197W        W12188  16.326  10.397   9.031  0.0465  0.4116  0.1056
69198W        W12189  32.974   8.829  25.618 -0.0935 -0.0496 -0.0122
69199W        W12190  12.631   1.145   0.718 -0.0412  0.0874 -0.1308
69200W        W12191   2.429  13.600   2.061  0.2381 -0.3186 -0.1446
69201W        W12192  11.014  11.076   8.591 -0.2589 -0.3907 -0.2586
69202W        W12193  26.595  19.720   3.002 -0.0919 -0.0252 -0.3309
69203W        W12194   8.357   1.863  16.944 -0.3209 -0.0753  0.0199
69204W        W12195   1.657  16.754   3.560  0.0367  0.4228  0.0868
69205W        W12196   5.737  19.332   7.226  0.2330  0.0896 -0.0410
69206W        W12197  17.683   4.483  28.455 -0.1716  0.0869 -0.0442
69207W        W12198  14.786  12.634   5.412 -0.2786 -0.0373  0.3279
69208W        W12199   8.871  17.426   7.518 -0.2162  0.0538 -0.0912
69209W        W12200  18.856   1.142   8.056 -0.0558  0.2196 -0.1868
69210W        W12201   1.905  14.881  18.420 -0.3189  0.0491  0.1694
69211W        W12202   9.949   4.097   3.873  0.0490 -0.1126 -0.2092
69212W        W12203  17.339   2.124  29.087 -0.0843 -0.2354  0.0191
69213W        W12204  26.022  20.801   7.304 -0.2777  0.2682 -0.2264
69214W        W12205   6.934   2.906  19.686 -0.1682  0.2603 -0.0807
69215W        W12206  11.084   7.255   6.752  0.1422  0.1556 -0.3484
69216W        W12207  31.775  18.211   9.511  0.2212  0.1001 -0.0427
69217W        W12208  13.462   0.839   9.916 -0.2356  0.1863  0.1312
69218W        W12209  31.232  25.919  27.571  0.1012  0.1902 -0.1825
69219W        W12210   8.790  14.906   0.570 -0.0783  0.1300 -0.1414
69220W        W12211  10.187  20.092   9.373 -0.5249  0.3663 -0.0303
69221W        W12212  17.289  12.529   8.894  0.1140  0.0683  0.3872
69222W        W12213   3.646  19.145  10.578  0.1094  0.1536 -0.2258
69223W        W12214   3.979  14.855  28.131  0.1051  0.0043  0.1095
69224W        W12215   3.067  12.611   8.552 -0.0476 -0.1109  0.0963
69225W        W12216   5.439   3.497  26.926  0.3060 -0.1423  0.0131
69226W        W12217   7.239  15.493  25.453  0.2962  0.2299  0.1566
69227W        W12218   9.942  12.063   9.296 -0.1400 -0.0001  0.4425
69228W        W12219  15.865  10.912  26.666  0.0933 -0.1150 -0.0596
69229W        W12220  14.529   7.353   3.006 -0.1385  0.5192  0.4340
69230W        W12221  32.578   5.663   9.185  0.0764 -0.2527 -0.0463
69231W        W12222   2.852  19.079   9.356 -0.0679 -0.0496  0.1129
69232W        W12223  12.618   6.428   5.602  0.1296  0.0485  0.3471
69233W        W12224  29.799   5.833  20.439  0.0533  0.0048 -0.2325
69234W        W12225   2.348   9.235   9.322  0.0815  0.2036  0.1712
69235W        W12226  30.730   2.076  22.090 -0.1832 -0.3261 -0.2300
69236W        W12227   2.438  13.907   6.271  0.0282 -0.0192  0.2056
69237W        W12228   6.620  18.024   7.342 -0.0317  0.1504  0.2212
69238W        W12229  11.044   7.576   2.030 -0.0269  0.0068  0.1784
69239W        W12230  12.575   4.952   7.885  0.1014  0.4710 -0.2498
69240W        W12231   7.533   6.122   2.052 -0.1370 -0.0012 -0.2660
69241W        W12232  12.703  28.645  23.872  0.0097 -0.1076  0.0728
69242W        W12233  29.255   2.121  18.340 -0.0050 -0.1932 -0.0425
69243W        W12234  20.215   2.209   1.851 -0.0498  0.1712 -0.0919
69244W        W12235   6.890   6.253   9.329 -0.0813  0.1303  0.0978
69245W        W12236   3.277  24.053  27.702  0.0889 -0.2916  0.1826
69246W        W12237   1.090  15.546   5.031 -0.2020 -0.0080 -0.2649
69247W        W12238   9.775   4.439   7.530 -0.2055 -0.0697 -0.1339
69248W        W12239   2.124  23.136   7.227 -0.0538 -0.0180  0.0640
69249W        W12240   3.640   8.687   6.340  0.0014 -0.0980 -0.4646
69250W        W12241  24.524   6.238  28.886  0.1826  0.2694  0.0171
69251W        W12242   1.884   3.682   9.227  0.1489 -0.0143 -0.3135
69252W        W12243   8.430  21.969   5.196  0.0115 -0.3173 -0.0978
69253W        W12244  30.568  34.421  25.052 -0.1891  0.1934 -0.0242
69254W        W12245  27.018   1.763   8.452  0.0759  0.5801  0.3642
69255W        W12246  33.036  10.492   1.661  0.2082  0.0868 -0.1266
69256W        W12247   5.809  22.784   0.985 -0.1012 -0.1897  0.0765
69257W        W12248  27.640  11.420   7.817 -0.0608  0.1439  0.0510
69258W        W12249  11.764   4.846  28.479 -0.2279  0.1569  0.1087
69259W        W12250   5.424  16.284  11.851  0.3894 -0.1335  0.0772
69260W        W12251   6.882  14.188   1.651  0.1207  0.0383 -0.0135
69261W        W12252   4.732  20.852   0.359 -0.2059 -0.1071 -0.0199
69262W        W12253  14.823  29.998   7.163  0.1430  0.0427 -0.0792
69263W        W12254   6.807  18.843   4.478 -0.1161 -0.1146 -0.1054
69264W        W12255  12.191  16.688   7.349 -0.2639  0.0426  0.2761
69265W        W12256   7.460  10.352  26.509  0.2598 -0.1220  0.5173
69266W        W12257   9.817  20.704   6.823 -0.3693 -0.1594  0.0100
69267W        W12258  20.993   5.713   0.540 -0.1319 -0.0969 -0.0738
69268W        W12259  14.414   6.039   8.335 -0.1610  0.0699 -0.0464
69269W        W12260  28.324   0.204   5.567 -0.0380 -0.0539  0.1421
69270W        W12261  15.787  30.906   7.494 -0.0587 -0.1063 -0.1461
69271W        W12262  33.570   0.897   4.001  0.2050 -0.1557 -0.0068
69272W        W12263  20.762  31.968   6.250  0.0694  0.1255  0.1541
69273W        W12264   4.835   8.075   0.822 -0.0064 -0.2199 -0.1345
69274W        W12265  31.960   2.833  28.600 -0.1206 -0.1754  0.0747
69275W        W12266   9.865  19.571   2.842 -0.0034 -0.2487  0.0046
69276W        W12267  24.736   6.797   8.330  0.1562 -0.1047  0.2637
69277W        W12268  31.409   4.077   7.921  0.2948 -0.5898  0.2526
69278W        W12269   0.652   8.806   3.257 -0.0142  0.1404  0.4647
69279W        W12270  16.637   4.273   7.650  0.1977  0.0544  0.0788
69280W        W12271  12.083  21.835   2.539 -0.0643  0.1622  0.1098
69281W        W12272  32.345   6.703   9.233  0.2424  0.0138 -0.2977
69282W        W12273   4.394  10.662  11.394 -0.2239  0.0510 -0.0143
69283W        W12274  11.379   4.803   2.891 -0.1924 -0.2234  0.0718
69284W        W12275  33.494  15.150   0.707  0.1314  0.2551 -0.1839
69285W        W12276   6.301   5.429  29.159 -0.1132 -0.1423 -0.1123
69286W        W12277  27.439  22.952   8.914 -0.1038 -0.2017  0.0041
69287W        W12278  33.390   4.546   5.917  0.0270  0.0856 -0.0807
69288W        W12279  21.176  15.271  27.531 -0.1176  0.2372  0.3634
69289W        W12280  16.894  34.710   3.028  0.0597 -0.1780  0.1212
69290W        W12281  15.492   2.151  10.099 -0.0053 -0.2650  0.2589
69291W        W12282  12.837   9.175   8.751  0.0643 -0.1032  0.1671
69292W        W12283   4.003   4.399  27.503  0.1046 -0.0618 -0.1066
69293W        W12284   9.841  17.104  10.354 -0.1425  0.3370  0.1323
69294W        W12285   6.496   3.901   6.287 -0.3103  0.1557 -0.0848
69295W        W12286   1.310  16.669   7.277  0.0940  0.2656 -0.0645
69296W        W12287  32.526  28.505   5.528  0.0134 -0.4938  0.3439
69297W        W12288  19.327  16.088  25.188 -0.0894 -0.1952  0.1855
69298W        W12289   3.749   5.290  28.233  0.2237 -0.1031  0.2059
69299W        W12290  18.157  26.762   4.769  0.0903  0.1461 -0.0105
69300W        W12291  27.084  10.536  27.052  0.2139 -0.0968 -0.0920
69301W        W12292  34.446  22.490  28.038 -0.1488 -0.1016 -0.0158
69302W        W12293  12.626  29.494   8.808  0.1210  0.1820 -0.0164
69303W        W12294  19.955  33.239   2.154 -0.0368 -0.2656  0.1275
69304W        W12295   4.337   2.094   8.693 -0.0134 -0.0618 -0.1090
69305W        W12296   2.354   5.477   4.546 -0.2162  0.2000 -0.0160
69306W        W12297   0.217   2.681   0.489  0.0959  0.0307  0.1039
69307W        W12298  10.482  18.992   0.870  0.0358 -0.0350  0.0482
69308W        W12299   8.631  13.883   4.004  0.2235 -0.0610  0.0692
69309W        W12300  22.350  29.404   6.066 -0.1681  0.0816 -0.0072
69310W        W12301   7.714  28.072  27.771  0.1273 -0.2870 -0.0113
69311W        W12302  13.432  33.876   1.960 -0.0606 -0.1847 -0.1107
69312W        W12303  23.037   4.858   9.815 -0.2403 -0.2203 -0.2345
69313W        W12304  32.018  27.346  24.085  0.1001 -0.3294 -0.0999
69314W        W12305   1.025   6.928   5.962 -0.2665  0.1554  0.1704
69315W        W12306  22.860  23.251   2.046  0.1772 -0.0699  0.1576
69316W        W12307  13.313   9.205   0.828  0.1901 -0.2020 -0.1523
69317W        W12308  26.562  10.479   9.696 -0.0663  0.0744 -0.4820
69318W        W12309  19.077  29.918  29.193 -0.3703  0.1525 -0.0877
69319W        W12310   1.383  31.667  24.289  0.2472 -0.0869  0.0927
69320W        W12311  10.034   7.008  10.720 -0.0859 -0.0809 -0.1273
69321W        W12312  10.548   7.116   6.308 -0.1606  0.1070  0.0820
69322W        W12313   1.725  27.107   5.362 -0.0588  0.0071  0.2200
69323W        W12314   0.393  10.480   6.855 -0.1352 -0.0870 -0.0585
69324W        W12315  18.722   3.120   1.005 -0.2207  0.1661 -0.3192
69325W        W12316  31.694   6.545   9.072 -0.0891 -0.0965  0.2064
69326W        W12317  25.524  12.138   9.363  0.0187  0.0026  0.1419
69327W        W12318  25.567   0.846  18.589 -0.0650  0.1441  0.2192
69328W        W12319   3.714  12.050   8.871 -0.0222  0.1015 -0.1448
69329W        W12320  13.492   8.783   9.508  0.0782  0.0783 -0.1466
69330W        W12321   8.184  19.872   1.738  0.0424 -0.1050  0.0525
69331W        W12322  28.905  13.422  25.054 -0.0914 -0.0490  0.0176
69332W        W12323  30.789  10.418  17.900 -0.3349 -0.3157 -0.1850
69333W        W12324  19.907   7.794   6.204 -0.4257  0.0657 -0.1084
69334W        W12325  13.166  31.544   7.200 -0.2630 -0.3190 -0.0667
69335W        W12326  29.335  15.190   3.935 -0.1440  0.0899 -0.3019
69336W        W12327   2.880  17.647  23.985  0.4184 -0.1910 -0.3495
69337W        W12328  27.624  29.577   6.768  0.0392  0.1900 -0.1657
69338W        W12329   8.879  10.576   6.924 -0.2266 -0.1801 -0.1708
69339W        W12330  20.216  18.513   0.308 -0.0658 -0.1410  0.4294
69340W        W12331  33.894  16.132   5.588  0.1925  0.0585  0.2985
69341W        W12332  25.874  10.359  23.697 -0.3153  0.0799 -0.0122
69342W        W12333   3.542   3.153   3.287  0.2016 -0.0806  0.3757
69343W        W12334   3.964   6.316   8.390 -0.1813 -0.4664 -0.0028
69344W        W12335  20.615  30.247   7.253  0.4104  0.1861 -0.1283
69345W        W12336  15.524   6.334  28.494  0.0350 -0.0867  0.0164
69346W        W12337  10.766   5.177   1.035 -0.0200 -0.1330 -0.0498
69347W        W12338  32.361   0.998   7.931  0.1422 -0.0241 -0.0656
69348W        W12339  12.790  25.293   2.180  0.0026  0.0590 -0.1012
69349W        W12340  32.271  15.987   3.544  0.2630 -0.4072  0.1861
69350W        W12341  27.463  13.808  10.571 -0.0838 -0.0946  0.0162
69351W        W12342  16.270   4.165   5.005  0.0977 -0.3975  0.0707
69352W        W12343  30.300   8.248   6.124  0.1013 -0.0785 -0.0942
69353W        W12344   6.792  13.517   7.962  0.0389 -0.3100 -0.1340
69354W        W12345  12.127  31.771   0.449 -0.1261 -0.4645  0.0403
69355W        W12346   1.230  32.900   8.918 -0.3601 -0.3936  0.0481
69356W        W12347   2.059   9.443   6.456 -0.0647 -0.2316  0.1504
69357W        W12348   6.535  14.431   0.788 -0.1767  0.1043 -0.2229
69358W        W12349  31.018   4.552   9.758 -0.2260 -0.2644 -0.0594
69359W        W12350   0.123  10.467  24.717  0.2828  0.2758  0.0726
69360W        W12351  11.515  14.821  24.806 -0.1119  0.2542  0.0799
69361W        W12352  24.224  20.099   7.841 -0.2149  0.3002  0.2178
69362W        W12353  14.457  15.145  24.736 -0.2353 -0.0924 -0.2302
69363W        W12354  14.140  11.445   0.550 -0.1502  0.4623  0.0062
69364W        W12355  32.571   3.222   7.702 -0.4861 -0.4112  0.1365
69365W        W12356  30.071   3.760   2.862 -0.2472 -0.2569 -0.0105
69366W        W12357  27.515   5.227  22.545  0.2867 -0.2222 -0.4527
69367W        W12358   3.050  21.477  28.713 -0.1942 -0.0334  0.0351
69368W        W12359  24.141   9.432   6.481 -0.3694 -0.0649 -0.1097
69369W        W12360  20.723   2.038   4.017 -0.0137 -0.2391 -0.0672
69370W        W12361  13.237   2.403   5.185 -0.1628 -0.1038  0.4223
69371W        W12362  28.328  19.821  24.445 -0.2344  0.1677 -0.0722
69372W        W12363  33.166   0.879   8.436 -0.0748  0.1196 -0.0286
69373W        W12364  15.508  30.721  24.094 -0.2188 -0.1633 -0.0841
69374W        W12365  10.036  16.729   2.530 -0.0022  0.1106  0.0758
69375W        W12366  30.455  14.043   0.487  0.2519 -0.5003  0.1104
69376W        W12367  18.879   2.339   2.016 -0.0170 -0.2916 -0.1990
69377W        W12368   6.685  13.473   4.034 -0.1255 -0.2281  0.2113
69378W        W12369  34.293  18.140  19.905 -0.0400 -0.0304 -0.0567
69379W        W12370   0.962  18.893  22.462 -0.1303 -0.2865 -0.0158
69380W        W12371  22.108  11.976   3.620 -0.0262  0.3464  0.0088
69381W        W12372  24.555   8.738  27.317  0.0385 -0.0151  0.0495
69382W        W12373  13.571   6.016   3.086 -0.0304 -0.2614  0.0218
69383W        W12374   4.228  33.288   3.734  0.1214  0.5280  0.1631
69384W        W12375  14.278   5.026   9.020 -0.1960 -0.0906  0.2061
69385W        W12376  22.310  11.017  26.610 -0.2826 -0.2639  0.0805
69386W        W12377  32.476   7.506   5.144 -0.0541 -0.2775  0.1268
69387W        W12378  29.679   2.855  16.680 -0.0900  0.1166  0.4448
69388W        W12379  19.464  15.652   3.407  0.0226  0.1993 -0.2147
69389W        W12380  33.169  12.127   8.759  0.1739  0.1665  0.1100
69390W        W12381  14.836   1.061  23.411 -0.0959  0.0497 -0.1330
69391W        W12382   7.391   5.160   3.013  0.0588 -0.0024  0.0426
69392W        W12383  21.591  11.958  23.153  0.2178 -0.0802  0.1965
69393W        W12384  31.597  17.363  25.038  0.2167 -0.3596 -0.0263
69394W        W12385  26.565   2.566  19.561 -0.3098 -0.0090  0.0499
69395W        W12386   4.098   6.181   8.898  0.2591  0.1983  0.0751
69396W        W12387  15.950  15.202   7.838  0.1346 -0.2191  0.0597
69397W        W12388  10.941  28.887   6.142  0.1618  0.2106  0.2372
69398W        W12389   0.014  15.396  16.293 -0.0124  0.0797  0.1757
69399W        W12390  18.683   6.907  10.313  0.2565  0.0099  0.0648
69400W        W12391   8.750  11.577  10.742  0.3095  0.1950 -0.1235
69401W        W12392   5.310  19.907  25.514 -0.4444 -0.0949  0.0124
69402W        W12393  10.574  26.830   9.209 -0.4665 -0.3719 -0.0628
69403W        W12394   6.922  18.117   8.913  0.0877  0.1547  0.1138
69404W        W12395  29.618   0.039   9.492 -0.0903  0.2405  0.0123
69405W        W12396  19.134   6.118   9.932 -0.0704 -0.4406  0.0197
69406W        W12397  25.917  32.949  26.300 -0.2916 -0.0936 -0.2228
69407W        W12398   5.833   4.498   0.783 -0.2360  0.0550  0.2418
69408W        W12399  19.907   7.466  18.996 -0.1564  0.4762  0.3801
69409W        W12400   7.790  34.038   5.671 -0.2028 -0.0221  0.0133
69410W        W12401  26.845   5.948   4.971 -0.1589  0.2386 -0.2196
69411W        W12402   7.657  18.448  28.863 -0.0636 -0.1133  0.2652
69412W        W12403   5.713  22.234  16.655 -0.2356  0.1821 -0.2161
69413W        W12404  31.383  24.565   4.587  0.2313  0.0829  0.2177
69414W        W12405   5.642   8.422   8.996 -0.2873  0.2304  0.1425
69415W        W12406  21.901   8.278  29.216 -0.0812 -0.1018 -0.0623
69416W        W12407  10.214   6.480   2.831  0.1901  0.3218 -0.0575
69417W        W12408   5.260  14.927  25.308  0.1078 -0.0804  0.3361
69418W        W12409   8.459  20.559   6.408 -0.2984  0.2360 -0.1083
69419W        W12410  14.001  34.189  20.521 -0.1725 -0.1947  0.2210
69420W        W12411   2.693  25.677   0.807 -0.1998  0.2489 -0.2623
69421W        W12412  12.855   7.920  10.700 -0.0524 -0.0812 -0.1303
69422W        W12413   8.565  33.817  26.169  0.0726  0.3920  0.0849
69423W        W12414   5.201  13.450   2.118  0.5204 -0.3464  0.0543
69424W        W12415  12.741   3.913   8.440 -0.0606 -0.1768  0.3169
69425W        W12416  24.391  14.336  28.271 -0.3699  0.0075  0.0048
69426W        W12417   2.986  10.947   1.776  0.1808  0.2791  0.0202
69427W        W12418  17.169  10.981   0.731 -0.2078  0.0087  0.0246
69428W        W12419   6.573  18.204  24.374 -0.1629 -0.0681  0.1347
69429W        W12420  34.004  21.157  23.959 -0.2508 -0.3663  0.0511
69430W        W12421  10.222  10.478  29.213  0.1309 -0.2373  0.0957
69431W        W12422  29.425  13.005   0.326  0.0903 -0.1167  0.3910
69432W        W12423  15.220  24.813   5.152 -0.0983  0.0920  0.2354
69433W        W12424  10.758  13.484  17.444 -0.1627  0.1679  0.1353
69434W        W12425   2.788  23.506  24.922  0.2028 -0.0347 -0.0148
69435W        W12426  17.914   0.695  28.259 -0.0364  0.4493 -0.3346
69436W        W12427   0.539  28.296   3.556 -0.0993 -0.0452 -0.1792
69437W        W12428  16.716   4.865  27.193  0.2253 -0.1745  0.1392
69438W        W12429  19.956  25.199  19.524 -0.2726  0.1101 -0.0008
69439W        W12430   1.461  13.535  28.539 -0.2794 -0.1354 -0.0818
69440W        W12431  19.874  28.126   7.566  0.0247 -0.1648  0.1019
69441W        W12432  23.096  12.445   4.235  0.1011 -0.1613 -0.2453
69442W        W12433  33.409   2.067   5.934 -0.2265  0.0333 -0.2766
69443W        W12434  32.447   3.476  21.508  0.3312  0.2650  0.1562
69444W        W12435  10.364  26.550   7.988 -0.0352  0.1794  0.1371
69445W        W12436   6.401  27.715  23.179  0.0449 -0.4370  0.3124
69446W        W12437  11.247  32.772   2.250 -0.3945  0.1048 -0.4296
69447W        W12438   9.389  22.777  21.381 -0.1443  0.1036  0.2872
69448W        W12439  13.558   4.863   4.722  0.2818  0.1141 -0.1871
69449W        W12440  18.919   6.229  22.622 -0.0649  0.0421  0.1588
69450W        W12441  10.656   3.862   4.630  0.0803  0.0046 -0.1938
69451W        W12442  14.342  19.858   3.379  0.1026 -0.2819 -0.1682
69452W        W12443  26.856  22.237  17.964  0.0995 -0.0321 -0.1956
69453W        W12444   7.921  23.895  17.579  0.1111 -0.0001  0.1880
69454W        W12445  33.723   4.496   2.975  0.1467 -0.0419 -0.0867
69455W        W12446   0.568  23.559  26.505 -0.1365 -0.2185 -0.1563
69456W        W12447   2.124  20.031  11.446  0.1277  0.0506  0.3781
69457W        W12448   4.908  13.217  28.675 -0.0057 -0.0196 -0.0767
69458W        W12449  15.009  19.496  22.889  0.2048 -0.1871  0.1822
69459W        W12450  14.103  10.540  23.748  0.2681 -0.1309  0.1080
69460W        W12451   0.987  24.562  21.180  0.0259 -0.4506 -0.1884
69461W        W12452   5.550  23.283   9.201 -0.1525 -0.1964  0.3942
69462W        W12453  30.239  12.890  24.710  0.2338  0.1907  0.0437
69463W        W12454  17.173   8.776  27.293 -0.2112 -0.0891 -0.0938
69464W        W12455  10.540  18.022   0.987 -0.4055  0.1112 -0.1308
69465W        W12456  31.733  11.750  15.926 -0.2608  0.0817  0.1932
69466W        W12457   5.014   3.281  26.091 -0.1575  0.0568  0.3564
69467W        W12458   3.287   9.203  22.852  0.0043 -0.1807 -0.2296
69468W        W12459  10.721   3.390  25.485 -0.0675  0.3418 -0.0647
69469W        W12460   8.803  14.378   2.373 -0.1865 -0.2775  0.2029
69470W        W12461   8.250   1.115   2.366 -0.2442 -0.0503 -0.1958
69471W        W12462  11.807   4.385  28.855  0.3646  0.1838  0.0336
69472W        W12463   6.482   5.638   6.014  0.3410 -0.1799 -0.0244
69473W        W12464  19.317   8.904  20.651  0.1063  0.3582  0.0704
69474W        W12465   5.300  20.987  10.322  0.1831 -0.2804 -0.1833
69475W        W12466  29.639  23.903  27.565 -0.3271  0.2198 -0.2328
69476W        W12467  14.237   8.045  28.443 -0.0602 -0.3166 -0.1330
69477W        W12468  30.733  33.497  20.883  0.0519 -0.0700 -0.2897
69478W        W12469  27.995   9.020  19.673 -0.1063  0.0795 -0.1555
69479W        W12470  24.823  30.211  27.920 -0.2398 -0.3768  0.3074
69480W        W12471  30.977  21.194   7.723 -0.0585 -0.2351 -0.0028
69481W        W12472   0.813  13.079   4.299 -0.1599 -0.2593  0.2074
69482W        W12473  30.553  20.556   8.633 -0.1269  0.2095 -0.1389
69483W        W12474  22.990   9.303   4.493 -0.0832 -0.0004  0.1442
69484W        W12475  33.219   9.693  11.248  0.0654 -0.2746 -0.0993
69485W        W12476   0.684  10.758  27.123  0.2340 -0.0620 -0.2113
69486W        W12477  32.595  13.638   3.375 -0.0085 -0.1227 -0.0514
69487W        W12478   5.808   8.119  26.861  0.0448  0.1459 -0.1807
69488W        W12479  19.308  26.748  29.041  0.1413 -0.0838  0.2538
69489W        W12480  30.437   3.830  21.331 -0.1677 -0.0230  0.1601
69490W        W12481  30.300  21.188   7.019 -0.0790 -0.4994  0.2492
69491W        W12482  18.428   3.362   6.217 -0.1943  0.0034  0.1399
69492W        W12483  17.051  23.455  23.513  0.0688 -0.3891 -0.0445
69493W        W12484  22.547   9.865  28.470 -0.0674 -0.0919  0.2991
69494W        W12485   2.138  28.113   7.297  0.1890  0.3159 -0.1002
69495W        W12486   9.220  10.156  19.999  0.0430 -0.2898  0.5910
69496W        W12487   0.022  28.674  17.482  0.0699  0.0092  0.0001
69497W        W12488  33.014  11.143   3.261  0.0880 -0.0547  0.3409
69498W        W12489   7.043   5.503   7.797 -0.1464  0.3126  0.4231
69499W        W12490   6.060  12.563   5.597  0.0150 -0.4102 -0.2442
69500W        W12491   5.690   7.310  24.097  0.3457  0.2311 -0.2944
69501W        W12492  13.610  11.355  22.480 -0.0254  0.1655  0.0790
69502W        W12493   9.860  10.453  25.390 -0.5130 -0.1757  0.0145
69503W        W12494  30.449  20.937   8.279  0.1261 -0.2120  0.0961
69504W        W12495  13.336  13.143  21.094  0.2350 -0.6554  0.1796
69505W        W12496  32.322  27.371   1.231 -0.0413 -0.0721  0.1012
69506W        W12497   7.814  10.774   0.137 -0.1856  0.3448 -0.0422
69507W        W12498   7.285   1.045   9.698  0.1698 -0.0743  0.0675
69508W        W12499  29.784  17.859   5.807 -0.0458 -0.0788  0.0798
69509W        W12500  11.321   0.321  29.052 -0.2324 -0.0571  0.2737
69510W        W12501  32.571   1.678  21.453 -0.0553 -0.0333 -0.1457
69511W        W12502   7.246  26.956  23.311 -0.2085 -0.2249 -0.0751
69512W        W12503  17.625  12.384  18.381  0.0775  0.0604  0.0244
69513W        W12504   6.609  18.085  21.419  0.1248 -0.2451  0.1800
69514W        W12505  33.822  13.274  23.805 -0.1059  0.0385  0.0306
69515W        W12506   3.591  30.189   0.641  0.0831 -0.1388 -0.0262
69516W        W12507   2.387  12.611   3.164 -0.0854 -0.0390  0.2467
69517W        W12508  14.027   2.120  28.238  0.2331 -0.2499  0.0496
69518W        W12509  12.989  25.883   9.649  0.0203 -0.2871  0.2099
69519W        W12510   9.573   0.282   3.208 -0.0197 -0.0551 -0.0889
69520W        W12511  14.264   3.994   7.561 -0.0119 -0.1397  0.0355
69521W        W12512  34.777   2.834   2.155 -0.1349  0.0819  0.0697
69522W        W12513   3.969  11.451  27.002  0.1629 -0.0825 -0.1918
69523W        W12514   2.413   7.731   5.175  0.0904  0.1918  0.1119
69524W        W12515  32.385  31.464  23.441 -0.1747 -0.2962 -0.2144
69525W        W12516  22.771   3.544   8.925  0.1443 -0.3066  0.2841
69526W        W12517  14.385  29.576   1.667  0.1909  0.0767  0.1506
69527W        W12518   0.225   0.488  18.597  0.1295  0.0695 -0.1405
69528W        W12519  34.344  34.464  19.438  0.3189 -0.0569 -0.0189
69529W        W12520  19.267  13.272  22.154 -0.4082  0.0161 -0.0674
69530W        W12521   9.564   2.900  10.546 -0.3194 -0.1212 -0.0703
69531W        W12522   8.141  19.181  24.607 -0.1769 -0.0396  0.1786
69532W        W12523   7.819  23.788  20.183 -0.1411  0.1980  0.0150
69533W        W12524   7.346  27.877   0.554  0.1513  0.0754 -0.0835
69534W        W12525   4.260  17.991  20.011  0.0454  0.0164 -0.1190
69535W        W12526  17.257  13.750  23.920 -0.1151 -0.0602 -0.1030
69536W        W12527  29.198   9.417   2.151  0.1611 -0.2559  0.3202
69537W        W12528   4.838   5.866   9.598  0.0887  0.0787 -0.0384
69538W        W12529   5.389  19.569   9.859 -0.2516 -0.0976  0.0394
69539W        W12530  30.723  20.253  19.501 -0.1680  0.0298 -0.0236
69540W        W12531  15.139   9.305  16.904 -0.1503  0.1209 -0.0313
69541W        W12532  18.762  11.360  14.265 -0.4364  0.0380  0.2775
69542W        W12533  12.455   0.912   9.024 -0.2513 -0.0090  0.4419
69543W        W12534  34.692  21.955  21.801 -0.0068  0.0708 -0.0064
69544W        W12535   2.311  10.725  24.064 -0.0728  0.1677 -0.0207
69545W        W12536  33.818  32.087   0.534  0.1930  0.0348 -0.2607
69546W        W12537   4.419   4.933   9.036 -0.0016 -0.1346  0.0016
69547W        W12538  34.280   4.935  16.815  0.0025  0.1006 -0.3976
69548W        W12539   3.032  14.607  29.206 -0.4471  0.1449 -0.0883
69549W        W12540   7.165   4.044   1.494 -0.1103 -0.0652 -0.1132
69550W        W12541  32.464  20.586  26.723  0.2858 -0.1242  0.1527
69551W        W12542  18.708  27.893   4.976  0.3884  0.0700  0.4650
69552W        W12543  18.360   1.642   3.876 -0.1555  0.2587  0.3607
69553W        W12544  15.974   5.851  20.583  0.0933  0.0176  0.1895
69554W        W12545   3.420  29.694  19.057 -0.3007  0.1821  0.1913
69555W        W12546   3.223  22.601  25.964 -0.2234  0.1643 -0.1372
69556W        W12547  18.571  34.183   2.966 -0.0684  0.0162  0.2106
69557W        W12548  11.354   5.735   7.307 -0.0687  0.0141  0.1737
69558W        W12549  13.430  12.598  25.194  0.1814 -0.1274 -0.2009
69559W        W12550  32.735   8.843   1.969 -0.2215  0.1421  0.1084
69560W        W12551  18.462  14.457   1.238  0.0012 -0.1908 -0.0063
69561W        W12552   9.236   5.882  23.826  0.1734 -0.3631 -0.0161
69562W        W12553  10.930  19.398  26.063  0.1086 -0.0068  0.1963
69563W        W12554  16.440  10.982  26.809 -0.2195 -0.1158  0.1116
69564W        W12555   8.490   9.694  22.573 -0.1349  0.0349  0.0535
69565W        W12556  25.704  13.483  14.628  0.1328  0.1085  0.0294
69566W        W12557   2.665   1.557  26.402  0.0258 -0.3890 -0.1029
69567W        W12558   0.665  19.567   7.773  0.1132  0.2384 -0.1506
69568W        W12559  13.814   6.852  27.330 -0.0079 -0.0497 -0.1484
69569W        W12560  15.060   9.123  27.262  0.2472 -0.0198 -0.0625
69570W        W12561  25.678   6.516  27.785  0.0691  0.0018  0.0583
69571W        W12562  32.341   6.771  27.978 -0.2559 -0.3402 -0.3342
69572W        W12563   6.810  21.093   0.186 -0.1912  0.1684  0.3250
69573W        W12564  17.185   7.185   5.606 -0.1349  0.0404  0.4459
69574W        W12565  33.958   5.646   8.399 -0.0262  0.1255 -0.1993
69575W        W12566   7.771   5.198  16.859 -0.0429 -0.3109  0.1390
69576W        W12567  29.223  23.697   5.768  0.0826  0.1753 -0.0279
69577W        W12568  33.076  16.990   4.902  0.0137 -0.0863 -0.2728
69578W        W12569  32.372   8.761   3.749 -0.1352 -0.1926  0.1884
69579W        W12570  27.455  11.998  28.462  0.2897  0.3223 -0.1703
69580W        W12571  13.556  19.423  26.335 -0.0178 -0.2887 -0.1162
69581W        W12572  16.299  10.595  27.782  0.1318 -0.0464 -0.1722
69582W        W12573  17.486   7.386   3.078  0.0159 -0.0286 -0.0416
69583W        W12574  11.345   8.482   9.695  0.0932  0.1980 -0.0380
69584W        W12575  23.361   8.666   9.644 -0.2766  0.1226  0.1896
69585W        W12576  34.415   1.730   9.089  0.2939 -0.1008  0.1637
69586W        W12577   3.678  27.649  29.022  0.0847  0.1087  0.1431
69587W        W12578  10.075   8.115   8.420 -0.1950  0.1481 -0.1355
69588W        W12579   1.583  15.967  22.120 -0.0084 -0.0444  0.1929
69589W        W12580   6.910   1.861   9.625 -0.2355 -0.1051  0.0252
69590W        W12581  20.281  11.054   0.487 -0.2800 -0.1212 -0.1589
69591W        W12582  30.838  31.525  23.500  0.0171 -0.2029 -0.0632
69592W        W12583  27.075  15.403  23.164  0.3050  0.0101  0.1792
69593W        W12584   6.913  33.282  15.466 -0.1114 -0.2813  0.3962
69594W        W12585  29.704  23.122  25.414  0.0935  0.3061 -0.0303
69595W        W12586   3.869   9.258   4.248 -0.1758 -0.0266  0.0996
69596W        W12587  10.720   1.565  10.288  0.2094 -0.5516  0.0586
69597W        W12588  29.164  16.642   5.836  0.2023 -0.0372 -0.2519
69598W        W12589  18.939  14.981   7.189  0.4254 -0.1280 -0.0655
69599W        W12590  18.339  14.376   4.010  0.0175 -0.0405 -0.0978
69600W        W12591  30.347  18.525   6.387 -0.3426  0.2436 -0.1809
69601W        W12592   0.219  10.694   3.061 -0.0481 -0.1505 -0.1516
69602W        W12593  33.092   4.526  19.524 -0.1339  0.0670 -0.0538
69603W        W12594   3.622   9.796  26.116 -0.0382  0.4007  0.1712
69604W        W12595   5.163  13.641   2.571 -0.1695 -0.0643 -0.2417
69605W        W12596  31.360  25.711  21.547 -0.1329 -0.0908 -0.1762
69606W        W12597  33.957  10.115  20.350 -0.3727  0.1204 -0.1803
69607W        W12598  12.663   2.623  22.500  0.3193 -0.2516  0.2015
69608W        W12599   3.254  12.968   9.462 -0.1339 -0.0472  0.2071
69609W        W12600  14.046  24.951   2.020 -0.1854  0.0576  0.2667
69610W        W12601  30.010   2.550   2.514 -0.2005 -0.0350 -0.0546
69611W        W12602  10.897  22.216   0.188  0.3180  0.2777  0.1312
69612W        W12603   2.475   9.669  24.533  0.1099 -0.0378  0.0961
69613W        W12604   1.760  21.286   8.544  0.3409 -0.2557 -0.3060
69614W        W12605  14.539   0.499  27.114  0.0256 -0.1968 -0.2270
69615W        W12606  32.765  23.813   8.985 -0.3040 -0.4393  0.1797
69616W        W12607  30.169   6.275   2.225 -0.0297 -0.1893  0.0015
69617W        W12608  27.467  15.373   0.876  0.0999  0.1519 -0.0058
69618W        W12609  21.552   1.576  20.049  0.2920 -0.2159  0.1819
69619W        W12610  28.937   7.942   7.943 -0.2767 -0.2546 -0.0532
69620W        W12611  26.734  13.767  25.436 -0.2577  0.1016  0.1407
69621W        W12612  12.284   8.734  28.001  0.1758  0.0510  0.1222
69622W        W12613  33.725  20.302  16.597  0.2068 -0.0170 -0.0626
69623W        W12614  14.286   2.302   6.858 -0.0458  0.0432  0.1547
69624W        W12615  21.552   4.880  28.389 -0.0249 -0.0552  0.0111
69625W        W12616   8.599   5.283   1.635  0.2611  0.3707 -0.1897
69626W        W12617  11.641  15.953  25.925 -0.0516  0.2915 -0.1989
69627W        W12618  12.576  10.674  25.377 -0.0648 -0.0365 -0.0119
69628W        W12619   8.614   9.265   4.146 -0.0474  0.0245 -0.1229
69629W        W12620  28.772   7.675   0.732  0.0043  0.0484  0.0308
69630W        W12621  30.510  16.793   9.890  0.1224 -0.2345  0.0888
69631W        W12622  29.324  19.372   8.256  0.0476  0.1773  0.1211
69632W        W12623  25.150   4.856  26.518 -0.0457  0.0390  0.0570
69633W        W12624  34.730  21.394  20.900  0.2251 -0.4868  0.0701
69634W        W12625  31.465  28.624  25.551  0.0303 -0.2075  0.2152
69635W        W12626  10.426  31.651  14.132 -0.0761 -0.2027 -0.1471
69636W        W12627  19.150  13.956   3.414  0.1933  0.1565 -0.0835
69637W        W12628  21.903  11.824  19.972  0.0984  0.1594  0.3709
69638W        W12629   2.678   1.006   6.379  0.0781  0.0674  0.1000
69639W        W12630   2.203   3.960   6.946 -0.0527  0.1015 -0.0734
69640W        W12631   9.090  14.397   0.793  0.0506 -0.2217  0.0725
69641W        W12632   3.333  10.209  25.912 -0.0211  0.1949  0.0845
69642W        W12633   4.773  14.317   0.803  0.1929  0.1512 -0.0398
69643W        W12634  31.598  17.754  20.729  0.0075 -0.1319  0.0161
69644W        W12635   8.151   1.716  20.121  0.3037 -0.2088  0.1139
69645W        W12636   6.760   8.093   3.632 -0.2653 -0.0587  0.0176
69646W        W12637  17.011  16.063  23.542 -0.1617  0.0443  0.0767
69647W        W12638  25.484  32.845   3.164 -0.2293 -0.0586  0.0413
69648W        W12639   4.697  19.543   4.791 -0.1127 -0.1034 -0.4629
69649W        W12640  17.090   5.515  23.157  0.1823  0.3180 -0.0075
69650W        W12641  26.348   1.180  25.184 -0.0382 -0.2554 -0.0690
69651W        W12642   5.331  15.841   3.635 -0.4062  0.2859 -0.0053
69652W        W12643   5.852  11.466   4.328 -0.2287 -0.1132 -0.0663
69653W        W12644   6.240   7.261   5.955  0.1871 -0.1793 -0.2470
69654W        W12645   7.761   0.441   4.924  0.0206 -0.1920  0.3447
69655W        W12646   1.602  33.937  26.125 -0.2614  0.0476 -0.0298
69656W        W12647   1.265   9.124  23.806 -0.2334  0.0088 -0.1332
69657W        W12648  13.070  14.154   4.154  0.0038  0.1818 -0.1294
69658W        W12649  27.398  15.335  27.111 -0.2125  0.0564 -0.1000
69659W        W12650  14.686  21.931  25.727 -0.2063  0.0937 -0.1269
69660W        W12651  32.623  16.757   5.005 -0.0809  0.0023  0.3678
69661W        W12652  14.162  32.281  10.234 -0.2267 -0.0226 -0.1956
69662W        W12653  19.633  17.415  23.895  0.1580  0.4059 -0.3643
69663W        W12654  31.939  16.857   2.199  0.1452  0.0855 -0.3896
69664W        W12655   3.947   1.280  20.200  0.1632  0.0639  0.0665
69665W        W12656  25.622   9.864   3.084  0.1043 -0.1694 -0.1977
69666W        W12657  25.874  30.131  23.051  0.2662 -0.0221  0.0977
69667W        W12658  34.407   9.484   3.746 -0.0998  0.0340  0.2240
69668W        W12659   3.049  21.136  27.778  0.4673  0.5627  0.0316
69669W        W12660  30.975   6.021   7.272  0.0964 -0.0285 -0.0095
69670W        W12661  15.137   2.510   4.975 -0.0362 -0.0473  0.0959
69671W        W12662   4.700  16.488   2.729  0.2940 -0.3585  0.1336
69672W        W12663  25.410   9.062   0.385 -0.1267  0.2088 -0.1346
69673W        W12664  12.819   1.876  24.003 -0.0711  0.1133 -0.0620
69674W        W12665   4.658   2.328   1.495 -0.1508  0.2494 -0.0295
69675W        W12666  10.566  18.177  15.745  0.2422  0.0602 -0.0290
69676W        W12667  16.683   5.655  23.759 -0.2119  0.3570  0.0872
69677W        W12668  10.661   3.627  28.447 -0.1511 -0.2836 -0.0537
69678W        W12669  11.446   7.299   2.835 -0.1431 -0.0820 -0.3430
69679W        W12670   9.430  17.562   7.594  0.1391  0.0768 -0.2140
69680W        W12671   0.820   6.426   2.045 -0.0328  0.0955  0.1185
69681W        W12672  22.331  13.021  26.160  0.0759  0.2528 -0.0639
69682W        W12673  14.553   4.342  25.440  0.4007  0.1890  0.1196
69683W        W12674  31.321   6.492   8.285  0.0380 -0.3576 -0.0879
69684W        W12675  10.058  22.256  25.702 -0.0819  0.2277  0.2008
69685W        W12676   8.610  33.753  22.659  0.0658  0.2224 -0.1610
69686W        W12677  29.225   8.244   1.413 -0.1428  0.0750 -0.0038
69687W        W12678  32.711  16.986  11.482 -0.0609  0.2943 -0.1389
69688W        W12679   2.311  11.909   6.971  0.0366  0.0456  0.1626
69689W        W12680  24.039   1.863  24.736 -0.0439  0.1937 -0.1637
69690W        W12681  16.583  10.395  23.684  0.2254  0.2027 -0.0620
69691W        W12682  30.468   5.588   3.127 -0.0364 -0.0037 -0.0603
69692W        W12683   9.719   5.789   2.553  0.1785 -0.1324  0.1734
69693W        W12684  30.658   1.667  17.107 -0.0592 -0.1705 -0.1316
69694W        W12685  22.802   7.918  15.501 -0.0980 -0.1326 -0.0047
69695W        W12686   2.905   6.066   6.038 -0.1786 -0.0510 -0.0784
69696W        W12687   1.457   1.492  14.278 -0.1617  0.1207  0.0038
69697W        W12688   9.624  30.026   9.220  0.0205 -0.2281  0.1539
69698W        W12689   7.602   9.535   7.750 -0.4068  0.1318  0.1561
69699W        W12690   5.457   1.669  26.854  0.1840  0.0503  0.0275
69700W        W12691  23.065  11.352   2.326  0.2147 -0.2109 -0.2350
69701W        W12692  12.159  11.366  28.365  0.3520  0.0201  0.1329
69702W        W12693  16.620  13.785  22.294 -0.2881  0.0402  0.2147
69703W        W12694  30.417  12.722   0.967  0.3654  0.0111  0.1799
69704W        W12695  32.006   0.716  15.599  0.2056  0.1117 -0.1049
69705W        W12696  17.175   9.652  10.483  0.3743  0.2921 -0.1084
69706W        W12697  14.877   0.562  28.794  0.0384  0.1091 -0.1336
69707W        W12698  13.559  25.517  19.080  0.4487  0.2058 -0.0482
69708W        W12699   1.463  19.955  22.085 -0.3234  0.1972  0.3673
69709W        W12700  12.644  22.216  27.121 -0.0394 -0.1562  0.0091
69710W        W12701   2.912  11.070   1.311  0.0967 -0.2575 -0.1677
69711W        W12702  30.664  20.102   7.975  0.0757 -0.0814 -0.3827
69712W        W12703   9.164  32.116   9.743 -0.2516 -0.5294  0.2844
69713W        W12704   7.497  32.915  10.573  0.1081  0.1352 -0.0348
69714W        W12705  21.048  12.376   1.710  0.1432  0.1960  0.2257
69715W        W12706  21.663  27.812   4.176 -0.3053 -0.0227  0.0618
69716W        W12707  13.416   5.374   0.252 -0.0900  0.0499 -0.0981
69717W        W12708   0.836  21.135  22.213 -0.1619 -0.0930  0.0599
69718W        W12709  16.593   9.645   6.419  0.2565  0.1431  0.0497
69719W        W12710  15.505  10.919  28.152  0.2805  0.0887  0.0522
69720W        W12711   8.001  13.401  26.607 -0.4168  0.2872  0.1847
69721W        W12712  21.994   7.797   9.145  0.0358 -0.0996 -0.3273
69722W        W12713  31.806  16.578  21.311  0.1401  0.0950  0.1918
69723W        W12714   2.742  12.949  24.802  0.0624  0.1029  0.0755
69724W        W12715  34.622  13.193  24.606  0.0495  0.0624  0.0050
69725W        W12716   6.340   4.777   4.826  0.0847 -0.3342 -0.0088
69726W        W12717   5.755  20.196   4.112 -0.0367  0.2378  0.1549
69727W        W12718   6.841  14.802   6.597 -0.2109 -0.1635  0.2237
69728W        W12719  32.258  16.605  22.138  0.1267  0.0877  0.2794
69729W        W12720  10.527  19.447  25.666  0.1975 -0.1126 -0.3070
69730W        W12721   6.351   3.257  24.596 -0.4389  0.3452 -0.1181
69731W        W12722   3.211  17.064  15.458 -0.2051 -0.1527  0.0429
69732W        W12723  27.914  10.789  27.255 -0.3679  0.1823 -0.0757
69733W        W12724  15.962  17.182   3.328  0.0155  0.0578  0.2741
69734W        W12725   0.125   6.509  24.385  0.1432  0.0100  0.0660
69735W        W12726   7.302   3.184   1.348  0.2851  0.0236 -0.0231
69736W        W12727  11.651   5.246   3.767  0.0662  0.1454  0.0871
69737W        W12728  15.954  22.769   9.428  0.0007  0.1854  0.3431
69738W        W12729  17.992  29.454   7.518 -0.4073 -0.1579  0.2115
69739W        W12730  21.756  13.946   8.190  0.0504 -0.0169  0.3569
69740W        W12731   7.767   9.806   7.348  0.2115  0.1284 -0.1072
69741W        W12732   9.977  16.124   0.728  0.0674  0.1154 -0.1573
69742W        W12733  25.532   9.858  22.065 -0.1648  0.0688 -0.0173
69743W        W12734  18.200  32.137  16.408  0.1855 -0.0880 -0.1865
69744W        W12735  13.469   8.290   3.843  0.2121  0.1885  0.3437
69745W        W12736   6.334  20.146  17.243  0.1240 -0.0190  0.2260
69746W        W12737   7.386  18.188   1.214 -0.2011  0.3901 -0.1241
69747W        W12738   3.054  30.346  18.122  0.0208 -0.2073  0.0156
69748W        W12739  30.303  11.860  18.621  0.2365 -0.0081 -0.0530
69749W        W12740   2.251  14.669   5.556 -0.0222 -0.1400  0.0617
69750W        W12741  18.218   7.281   3.639  0.1371  0.1099  0.2623
69751W        W12742  33.557  22.645  17.044  0.1421  0.0229  0.0221
69752W        W12743   7.414  27.089  21.962 -0.0223  0.3021  0.0611
69753W        W12744  11.914  23.532  20.274 -0.1092 -0.1075  0.5860
69754W        W12745   6.220   3.740   4.823  0.2716  0.1486 -0.0259
69755W        W12746   5.055  20.955   6.901  0.1148 -0.0383 -0.0688
69756W        W12747  29.980  33.487   4.263 -0.2136 -0.0491  0.0146
69757W        W12748  19.759  10.451   1.204 -0.0378 -0.0603 -0.0997
69758W        W12749  10.074  11.771   0.810  0.2370  0.1766  0.0414
69759W        W12750  13.535   3.754  10.818 -0.0861 -0.0066  0.0791
69760W        W12751   4.768   2.064   2.473 -0.2226  0.1416 -0.0402
69761W        W12752  13.136  31.102   8.809  0.0807  0.0405 -0.1823
69762W        W12753  17.746   8.601   0.021 -0.0759  0.0968  0.1377
69763W        W12754   6.066  19.614  22.946  0.0940  0.0242  0.0470
69764W        W12755   4.380  21.913  24.870 -0.1357 -0.0765 -0.0175
69765W        W12756  16.471  13.971   6.360  0.0348  0.3062 -0.0630
69766W        W12757  10.700  27.844   5.815  0.1438  0.0113  0.1869
69767W        W12758  33.021   6.870   9.125  0.0197 -0.2268 -0.1701
69768W        W12759   0.819   6.268   2.515  0.0745 -0.0991  0.0530
69769W        W12760   0.702  11.941   8.484 -0.2236 -0.1719  0.1579
69770W        W12761  10.795   3.191   6.809 -0.2149 -0.1120 -0.0914
69771W        W12762   2.908  12.459   1.327  0.1759  0.0759 -0.0586
69772W        W12763  10.988  34.045  24.642 -0.0942  0.0760 -0.1010
69773W        W12764   0.879  11.893   0.254 -0.3496 -0.2071  0.1952
69774W        W12765   7.948  13.760   6.970  0.3050 -0.0396 -0.3450
69775W        W12766  10.362   0.862   5.932  0.1393  0.2204  0.2905
69776W        W12767  14.118   1.200   0.938 -0.1406  0.0869  0.2295
69777W        W12768  12.800  17.192   0.164 -0.1013  0.0010 -0.2734
69778W        W12769  29.235  10.652  28.537  0.1845  0.3449  0.2842
69779W        W12770  33.479  14.372   2.514  0.0112 -0.0631 -0.2261
69780W        W12771   9.711   4.165   0.027 -0.3766  0.1143  0.1124
69781W        W12772  11.212  10.207   7.504 -0.1619  0.2047 -0.0448
69782W        W12773   1.196  12.882   7.478  0.1596 -0.1303 -0.1783
69783W        W12774  18.952  10.948   3.917 -0.1783 -0.1924  0.0724
69784W        W12775  33.646  12.329   6.219  0.0982  0.0640 -0.3329
69785W        W12776   6.215  13.658  27.356  0.2204 -0.1549  0.1678
69786W        W12777  14.147  12.027  23.419  0.1401  0.0857 -0.3760
69787W        W12778  10.819  18.271  25.710 -0.1749 -0.2264 -0.2807
69788W        W12779  20.985   8.681  27.126 -0.0387 -0.0170  0.0909
69789W        W12780   4.627  20.932   4.349 -0.2964 -0.1565 -0.1521
69790W        W12781  34.399   8.763   6.991  0.0754 -0.1637 -0.3375
69791W        W12782   3.042  20.080   9.154  0.1422 -0.1769  0.1670
69792W        W12783  23.762   4.400   6.055  0.1087  0.1805  0.1806
69793W        W12784   1.340   8.451   5.940  0.2022  0.0911  0.3079
69794W        W12785   2.265  11.651   1.421  0.0031 -0.3763 -0.0389
69795W        W12786  11.811   8.827   0.955 -0.0471 -0.0538 -0.0126
69796W        W12787  30.251   6.349   0.145 -0.2873 -0.0042 -0.1918
69797W        W12788   5.898   8.261  10.244 -0.0560  0.3060 -0.1184
69798W        W12789  11.861  10.869   8.119 -0.0185 -0.2287  0.0112
69799W        W12790   9.210   8.746   2.557  0.1434 -0.1548  0.0580
69800W        W12791   9.664  26.329   4.850 -0.0416 -0.1648  0.1460
69801W        W12792  20.202  24.751  14.688 -0.2623 -0.3496  0.0629
69802W        W12793  11.757  33.611  27.923  0.0357  0.0781  0.0509
69803W        W12794   0.482   2.382  25.440 -0.0824  0.0535  0.0556
69804W        W12795  25.813  28.093   1.646 -0.4608 -0.0923 -0.1623
69805W        W12796  11.738   3.295   8.353 -0.0037  0.2653  0.4532
69806W        W12797   2.460  28.518  15.026 -0.0430 -0.2866 -0.0950
69807W        W12798  10.869  25.931  24.827  0.3668 -0.1341 -0.1830
69808W        W12799   5.243  17.233   7.506 -0.2548 -0.3637 -0.0041
69809W        W12800   2.983  16.168   7.915 -0.0866 -0.0586  0.2086
69810W        W12801  33.849  23.074   9.643 -0.2756 -0.2522 -0.0383
69811W        W12802   7.127  28.082   7.796  0.2005  0.0408  0.1804
69812W        W12803  15.559  22.888  28.394 -0.3023  0.0215 -0.1069
69813W        W12804  12.434  23.190   7.614  0.1715 -0.0114  0.1666
69814W        W12805   8.338   8.446   9.490  0.1369 -0.1383 -0.1227
69815W        W12806  34.007  25.201   5.293 -0.0302  0.0554 -0.1131
69816W        W12807  33.735  21.180   5.892 -0.0554  0.1437  0.1633
69817W        W12808   3.659   9.464  27.341  0.0264 -0.0562  0.1074
69818W        W12809  16.512  24.936  28.976  0.1379 -0.1862 -0.0026
69819W        W12810  28.813  25.012  23.179  0.1460  0.1072  0.2447
69820W        W12811   9.773  16.924   6.486  0.0066  0.2460  0.3675
69821W        W12812  12.453  34.617   7.580 -0.0811 -0.1666 -0.0522
69822W        W12813  14.956  30.354   6.780  0.2324  0.1697  0.1455
69823W        W12814  27.699   8.334   9.153  0.4911  0.1163  0.2519
69824W        W12815   8.300  25.475   4.787 -0.0186 -0.0985  0.0897
69825W        W12816   7.747   8.845  11.364 -0.1287 -0.4050  0.1040
69826W        W12817   2.815  27.092   5.535 -0.1577 -0.4191 -0.3722
69827W        W12818   0.474   5.291   9.947 -0.1827  0.0540  0.0745
69828W        W12819  33.808  16.389   4.177  0.0241  0.0936 -0.0523
69829W        W12820  20.341  10.464  23.277 -0.1202 -0.1853  0.0388
69830W        W12821  15.477   9.592   6.443 -0.1732  0.1875  0.0129
69831W        W12822   1.695  10.791   5.033 -0.1087  0.3658  0.1002
69832W        W12823   2.823  12.448   3.348 -0.3058  0.0543  0.1905
69833W        W12824  34.619  18.844   5.740  0.0308  0.2951  0.0320
69834W        W12825  33.054   2.346  26.034  0.0162  0.1819 -0.2525
69835W        W12826  29.726  27.460   6.135 -0.1503  0.0897  0.1002
69836W        W12827  16.960   8.431   1.084  0.0126  0.3007 -0.1198
69837W        W12828  21.419  12.798   7.551 -0.3363  0.2713  0.0924
69838W        W12829  11.610  10.518   8.424  0.1284  0.0595  0.1270
69839W        W12830  13.906  15.637  27.550  0.1077  0.1382  0.0599
69840W        W12831   7.168  18.375   4.439 -0.3280  0.2275 -0.0336
69841W        W12832  24.705   2.122   1.374 -0.0885 -0.1401  0.0323
69842W        W12833   8.738  10.972  28.493  0.3267 -0.0776  0.1648
69843W        W12834   0.477  13.621  22.921 -0.3435  0.2837  0.2416
69844W        W12835  17.025   3.339   6.041  0.1307  0.0835 -0.0352
69845W        W12836  34.395  13.828   8.861  0.1106 -0.0632 -0.0210
69846W        W12837  13.000  34.098  26.440  0.3547 -0.1043  0.0728
69847W        W12838  13.959  12.868  20.409  0.0610 -0.0695 -0.1789
69848W        W12839  21.975  21.653   4.512 -0.0837  0.1035  0.2610
69849W        W12840   6.934  28.623  21.304 -0.2144  0.2893 -0.1202
69850W        W12841  33.092   7.059   0.402 -0.3922  0.0031 -0.1309
69851W        W12842  33.333   4.963   8.947  0.2006  0.1670 -0.1296
69852W        W12843  33.405  22.277   7.478 -0.2263 -0.0484  0.1228
69853W        W12844  13.422  34.428   7.544  0.2129  0.1581  0.1869
69854W        W12845   0.894   8.174  29.146 -0.2047 -0.1482 -0.0711
69855W        W12846  18.678  15.742  23.031  0.1097 -0.0219  0.0600
69856W        W12847   9.685  20.645   5.109 -0.2206  0.0298  0.1694
69857W        W12848  14.612  16.539  14.372 -0.0958 -0.0667  0.0335
69858W        W12849  27.608  11.917   5.607 -0.1971 -0.3840 -0.0625
69859W        W12850   6.891  10.863   8.004  0.3263  0.1481 -0.3862
69860W        W12851  10.733   9.528   3.304 -0.2719  0.0501  0.1032
69861W        W12852   6.751  12.917  11.437  0.2107  0.0042  0.2433
69862W        W12853   6.029  18.274   4.769 -0.0620  0.3878  0.1108
69863W        W12854  22.412   0.326  25.992 -0.1481 -0.4431 -0.0658
69864W        W12855  15.687   0.584  21.520  0.0825  0.0496  0.1393
69865W        W12856  26.749  28.199   6.797  0.0670 -0.0582  0.1389
69866W        W12857   8.813  18.771  20.093 -0.0160  0.1320 -0.1391
69867W        W12858   7.048   9.039   2.203 -0.2931  0.0094  0.1015
69868W        W12859  23.608  16.481  25.489  0.1787 -0.1197 -0.0973
69869W        W12860   6.389   7.219   4.448  0.2367  0.0534 -0.0350
69870W        W12861   7.825   0.179   3.558 -0.0930 -0.0890  0.2989
69871W        W12862  16.319   6.900   6.386 -0.1409  0.1638  0.0060
69872W        W12863  24.678   3.622   3.152 -0.3909 -0.0004 -0.0214
69873W        W12864  18.988  14.847  22.388  0.1635 -0.1921 -0.3034
69874W        W12865  26.073   5.127   4.454  0.0237 -0.0184 -0.0701
69875W        W12866  23.741  27.137  28.825 -0.0503 -0.0775 -0.1880
69876W        W12867   5.154   7.339   6.682 -0.4111  0.1476 -0.0764
69877W        W12868  34.025   2.507  10.239  0.1235 -0.1374  0.1238
69878W        W12869  33.173  32.843   0.357  0.1079 -0.1159  0.1133
69879W        W12870  20.255   2.765   1.953  0.1823 -0.1253 -0.1251
69880W        W12871   3.953  11.148  26.223 -0.1306 -0.2227  0.0846
69881W        W12872   6.911   1.463   7.040  0.2778 -0.0742  0.0518
69882W        W12873   0.172   3.181   6.692  0.1374  0.0777  0.0517
69883W        W12874   9.697  17.070  26.391 -0.2074  0.1885  0.3392
69884W        W12875  15.429  31.240   5.732  0.3686 -0.1633  0.1398
69885W        W12876  16.781  15.979   4.039  0.0645  0.2267  0.3575
69886W        W12877  10.309   4.174   7.611 -0.1385 -0.0107 -0.0838
69887W        W12878   9.148   5.435   7.205 -0.0543 -0.0001  0.1716
69888W        W12879  13.044   9.463   9.911 -0.0607  0.0479  0.4256
69889W        W12880   2.088  22.025   1.958 -0.1427 -0.1426  0.1836
69890W        W12881  12.893  14.973   3.162  0.0773 -0.2232  0.1669
69891W        W12882   3.115  15.222   9.748  0.3806 -0.4215  0.2855
69892W        W12883  15.574   4.136   8.080  0.0650 -0.2196  0.1225
69893W        W12884   7.219   5.148   9.008 -0.1049  0.0526  0.2707
69894W        W12885  34.235   6.012  27.222 -0.0709 -0.0194 -0.1046
69895W        W12886  21.450  12.507   7.092 -0.2676  0.2015  0.0469
69896W        W12887   9.184  21.167   4.710  0.2630 -0.4235 -0.3664
69897W        W12888   0.163  13.499  27.810 -0.0863 -0.1200 -0.0574
69898W        W12889  13.684  15.180  20.773  0.0902  0.2529  0.2228
69899W        W12890  10.970   4.778  18.657  0.0820  0.2438 -0.0134
69900W        W12891   9.095   3.011   0.659 -0.0706  0.2346 -0.0622
69901W        W12892   9.574   9.823   1.002  0.2915  0.1345 -0.2616
69902W        W12893  28.714  24.611  21.664  0.0515  0.3310 -0.3922
69903W        W12894  13.421  18.869  24.766  0.2045 -0.0003  0.0373
69904W        W12895   6.687  30.964   4.496 -0.2071  0.0554 -0.2325
69905W        W12896   4.134   6.413  18.580  0.1032  0.1018 -0.1330
69906W        W12897   8.676   2.786   0.917  0.1963  0.0328  0.0556
69907W        W12898   8.244  34.584  27.408  0.0252 -0.2385  0.1726
69908W        W12899  12.074   5.304  10.526 -0.0794  0.1193  0.0818
69909W        W12900   8.279   9.552   5.133 -0.1639  0.3636 -0.1873
69910W        W12901  11.396  16.471   9.686  0.2112  0.0137  0.0432
69911W        W12902  31.754   2.863   9.455  0.2386  0.0522  0.1046
69912W        W12903   4.261   3.557   8.345  0.0296 -0.2512 -0.1940
69913W        W12904  13.578  12.286   3.063 -0.1063  0.0670  0.2232
69914W        W12905  10.999  27.658   9.326 -0.1232 -0.1714 -0.2091
69915W        W12906  33.814   8.393  10.840  0.0463  0.1371  0.3027
69916W        W12907   2.712   1.227   9.199 -0.1488 -0.1429 -0.1854
69917W        W12908  19.525  19.721  13.689 -0.0485  0.0553  0.2753
69918W        W12909   1.230  13.153  11.166 -0.1204 -0.1226 -0.1820
69919W        W12910   4.121   7.561   2.648  0.1023  0.2969 -0.0391
69920W        W12911   9.270  12.031   3.764 -0.1990 -0.0063  0.1914
69921W        W12912  30.609   5.119   0.643 -0.3099 -0.0423 -0.0337
69922W        W12913  13.515  32.782   0.661 -0.0338 -0.0932  0.0564
69923W        W12914   8.929  29.020   8.632 -0.0388  0.0184 -0.1666
69924W        W12915  12.035   9.518   8.358  0.3807 -0.1670  0.0887
69925W        W12916   8.326  16.706  21.241 -0.1724  0.0225 -0.0058
69926W        W12917  34.594   7.705  21.852  0.0628  0.0510 -0.0183
69927W        W12918   4.841   6.746   1.371  0.1916  0.1056 -0.2597
69928W        W12919  28.329   0.820   6.918  0.1120 -0.1828  0.1541
69929W        W12920   8.794   8.223   7.369 -0.1255  0.0395 -0.1945
69930W        W12921  15.603  29.961   3.670 -0.3032 -0.1761  0.1712
69931W        W12922   5.830  25.856   9.637  0.1857  0.0894  0.2962
69932W        W12923   2.155  17.136  10.838 -0.1927  0.1504  0.0402
69933W        W12924  30.571   8.541  26.971 -0.2256 -0.1701 -0.0685
69934W        W12925  17.198   6.169   2.534 -0.2511  0.0750 -0.0924
69935W        W12926  22.287  16.088   5.600 -0.1281  0.0440 -0.1083
69936W        W12927  14.341  33.523  26.161 -0.0424  0.0729  0.2270
69937W        W12928  27.610   1.974   4.112 -0.3555  0.1583  0.1317
69938W        W12929   0.408  20.953  27.564  0.0441 -0.4210 -0.1163
69939W        W12930   8.312   2.115   6.144 -0.0742 -0.3709 -0.0996
69940W        W12931   3.883  18.481  11.263  0.1823 -0.0530 -0.0650
69941W        W12932   4.912   9.702  23.460 -0.0785  0.1152  0.1413
69942W        W12933  24.619  14.604   6.892 -0.1620 -0.3917 -0.0019
69943W        W12934   9.509  17.710   6.136  0.0069  0.0576 -0.0081
69944W        W12935   1.728   0.711   0.967 -0.1430  0.0433 -0.1532
69945W        W12936  29.405  14.914  23.987 -0.1061 -0.2549 -0.2108
69946W        W12937   3.583  28.398   4.702  0.2173 -0.1346  0.0565
69947W        W12938  33.955  22.968   7.261  0.0566 -0.1290  0.0875
69948W        W12939   2.822  16.020   9.584  0.3117 -0.0046  0.3547
69949W        W12940  27.939  14.567   9.989  0.0218  0.2127  0.1783
69950W        W12941  26.710  14.243   9.255  0.2217  0.0220  0.2110
69951W        W12942   5.073  33.422   2.474 -0.2038 -0.1095  0.1607
69952W        W12943   1.256  13.289  10.225 -0.0745 -0.1250 -0.0836
69953W        W12944   2.418  15.046   9.525 -0.1500 -0.0602 -0.1730
69954W        W12945   1.003  28.633   7.806  0.0283  0.1491  0.0463
69955W        W12946   4.458  19.638   0.238 -0.2417 -0.4398 -0.1859
69956W        W12947  13.654  18.929  24.336 -0.3051  0.2029 -0.0373
69957W        W12948   0.411   2.791  10.095  0.0168 -0.2271 -0.0953
69958W        W12949  28.822   6.841  18.603  0.0020  0.3141 -0.0990
69959W        W12950   1.378   9.919   0.018  0.0111  0.1327  0.2504
69960W        W12951  16.532   3.545  28.092 -0.1224  0.7257  0.1896
69961W        W12952   0.115  15.567   7.089  0.1299  0.2018  0.0895
69962W        W12953  23.856  15.068   3.057 -0.0969 -0.1317 -0.1316
69963W        W12954  13.471  15.536   6.434 -0.2912 -0.0825  0.3444
69964W        W12955   2.358  12.610  11.041  0.0336  0.0931 -0.1377
69965W        W12956  23.106   4.704   5.251  0.2813  0.1536  0.3290
69966W        W12957  25.438   0.638   9.485 -0.1799 -0.4826  0.0245
69967W        W12958  12.654   9.628   9.616  0.0653  0.1959  0.2771
69968W        W12959  34.002  11.547  21.621  0.1489 -0.2513  0.1577
69969W        W12960  14.725  12.597   8.555 -0.1996 -0.1061 -0.2841
69970W        W12961  16.772   2.532   9.760 -0.0078  0.0101  0.3580
69971W        W12962   8.350  21.370   6.744 -0.1350  0.0378 -0.1524
69972W        W12963  30.017  33.223  27.293 -0.1977  0.0300 -0.4255
69973W        W12964   5.178   3.533  24.447 -0.3459  0.3119 -0.0197
69974W        W12965  21.639  34.485   6.940  0.0220 -0.0046  0.2033
69975W        W12966   4.856   4.693   5.000  0.1099 -0.2656  0.2242
69976W        W12967  33.493  30.412   4.297  0.0440  0.1200 -0.0638
69977W        W12968   8.531  34.462   6.199 -0.2344 -0.0166  0.0683
69978W        W12969  16.640   7.921   3.950 -0.1269  0.1674  0.1513
69979W        W12970  14.597   9.078  10.290 -0.1767 -0.0989  0.0392
69980W        W12971  25.855  31.601   4.131 -0.4485 -0.2390 -0.1042
69981W        W12972   5.201  26.317   1.959  0.2487 -0.0065 -0.1938
69982W        W12973   0.872  17.795   1.501 -0.2660 -0.1631 -0.0515
69983W        W12974  21.407   8.536  19.991 -0.1015 -0.0822  0.0268
69984W        W12975  15.285  11.293   0.591 -0.2145 -0.2253 -0.1845
69985W        W12976   8.272   2.070   6.664  0.0298 -0.1692 -0.2129
69986W        W12977  19.120  11.957   3.373  0.1131 -0.2059 -0.1493
69987W        W12978  27.729  25.114   6.571  0.2534 -0.0659 -0.1480
69988W        W12979   8.425  21.094   3.485 -0.2219  0.0965  0.2298
69989W        W12980   6.623   7.106  23.386  0.1359  0.1625 -0.3196
69990W        W12981  10.812  28.589  18.157 -0.0718  0.1126 -0.0242
69991W        W12982  29.871   4.365   4.543 -0.0590 -0.0087 -0.1261
69992W        W12983   7.967  14.343   9.916  0.3317 -0.0429  0.2603
69993W        W12984   9.512  30.281   6.796 -0.1376  0.1910 -0.0024
69994W        W12985  29.894  17.841   1.752  0.2151 -0.1218 -0.2908
69995W        W12986  11.549   3.238   1.706  0.1559  0.1935 -0.0688
69996W        W12987   3.242  30.440   2.167  0.0615 -0.1423  0.0053
69997W        W12988   8.313  14.488  17.100  0.1762  0.1882  0.4051
69998W        W12989  16.341  27.432   5.936 -0.3924 -0.0954  0.2154
69999W        W12990  24.662  34.288   7.539  0.1047 -0.2561  0.1954
70000W        W12991   6.305  12.138   6.683 -0.1480  0.2897 -0.2085
70001W        W12992  19.217  19.441   6.634 -0.1218  0.1973 -0.0754
70002W        W12993  11.320  30.710   1.810  0.0823 -0.2035  0.1033
70003W        W12994  31.634  17.184  10.569 -0.0419  0.0293 -0.3180
70004W        W12995   6.825  15.446  27.049 -0.0943  0.1997  0.2617
70005W        W12996  30.986  19.543   7.219  0.2627  0.0024  0.3413
70006W        W12997  10.995  24.537  20.945 -0.2226  0.0666  0.2066
70007W        W12998  27.143  24.449   0.920 -0.1161  0.5310 -0.1670
70008W        W12999   2.622   0.383   5.735  0.1452  0.0215  0.1465
70009W        W13000   3.040  25.875   9.895  0.0331 -0.2985 -0.0624
70010W        W13001   6.656   8.350  26.425  0.1102 -0.3034 -0.0170
70011W        W13002  25.571   2.989   1.620  0.2008  0.0655  0.2540
70012W        W13003   6.760   7.920   9.448  0.1870 -0.0865  0.0550
70013W        W13004   8.671  20.660   7.236  0.1100 -0.0789 -0.0105
70014W        W13005  31.940  19.074   6.140 -0.0460 -0.0966  0.1676
70015W        W13006  32.438  18.442  24.897  0.2039  0.3367 -0.1663
70016W        W13007  12.741   8.428  10.498  0.0440  0.2386 -0.0590
70017W        W13008   3.781  15.610  11.197 -0.1461 -0.0631  0.0015
70018W        W13009  30.688  12.519   2.194  0.1852 -0.0522 -0.2878
70019W        W13010  31.951   9.165   1.403 -0.1687  0.2552 -0.1412
70020W        W13011   8.849   4.919   4.197 -0.0531  0.3388  0.0464
70021W        W13012   6.119  15.676   3.752 -0.0669 -0.0356 -0.2638
70022W        W13013   8.910   7.984  11.180 -0.3985  0.3201  0.1048
70023W        W13014  15.168  19.132   7.230 -0.1657 -0.2717 -0.1480
70024W        W13015  32.509  26.055   8.898 -0.1115  0.0182  0.3749
70025W        W13016  11.719   1.027   3.987  0.1099  0.1170  0.1034
70026W        W13017  22.029   3.453  25.917 -0.2787 -0.1630 -0.1446
70027W        W13018   6.053  24.535   7.936  0.0132 -0.2110  0.2917
70028W        W13019  15.439  11.128  28.960  0.0152  0.0623  0.1228
70029W        W13020   5.467  34.764  24.769 -0.1487  0.2367  0.2090
70030W        W13021  20.353  34.655   3.944  0.1179  0.0820 -0.0558
70031W        W13022   3.388  18.147   3.381 -0.1407  0.0905 -0.0694
70032W        W13023   5.822  17.538  26.335  0.2400  0.4368 -0.0810
70033W        W13024   0.899   4.551  28.007 -0.2030  0.2334 -0.4333
70034W        W13025  18.726   4.189   6.676 -0.1572 -0.0854 -0.1521
70035W        W13026  12.762   8.841   0.625  0.4143 -0.0158  0.1045
70036W        W13027  13.194  19.880   5.629  0.2659 -0.1595 -0.1353
70037W        W13028   4.854  21.327   3.382  0.3845  0.1737  0.3175
70038W        W13029  33.354  22.041  25.603 -0.1551 -0.1520  0.2146
70039W        W13030  17.134  32.892  21.973 -0.3525  0.2709  0.2083
70040W        W13031  34.409   2.730   7.892  0.3037  0.0692  0.0173
70041W        W13032  25.204  22.562   4.614  0.1417  0.4068 -0.2860
70042W        W13033  18.024   8.778  28.859 -0.2464  0.3519 -0.1308
70043W        W13034  16.230  12.395  28.673 -0.0663 -0.3642 -0.1933
70044W        W13035   5.119   9.142  19.765 -0.2011 -0.0169  0.1418
70045W        W13036   7.468   4.297   9.981  0.1203  0.0693  0.0344
70046W        W13037  28.034  14.212   8.162 -0.2623 -0.0051 -0.0383
70047W        W13038  13.765  15.680   5.262  0.0695 -0.4735 -0.0421
70048W        W13039   7.481  20.127  28.741 -0.1201 -0.4083  0.2883
70049W        W13040   8.010  28.864   2.273  0.1158  0.1564  0.1349
70050W        W13041   4.456  16.300  26.925  0.2493 -0.2466 -0.1778
70051W        W13042   5.859   9.480   2.300 -0.1218  0.0852 -0.0885
70052W        W13043   8.698  20.044   9.748  0.2351 -0.0568  0.0081
70053W        W13044   4.917  22.856  22.600 -0.1568 -0.0740 -0.0184
70054W        W13045  11.442   6.263   9.553  0.0256  0.3326 -0.0235
70055W        W13046   5.418  23.566  28.133 -0.1917  0.1027  0.3268
70056W        W13047  10.216  13.009   7.439  0.0973 -0.1655 -0.2303
70057W        W13048  34.391  14.923   7.633  0.0750  0.1199  0.1122
70058W        W13049   8.229   2.672   8.243 -0.0148 -0.0839 -0.2776
70059W        W13050  11.080   8.004  17.935 -0.1050  0.1118 -0.3247
70060W        W13051  18.432  10.249   4.480 -0.1637 -0.0065 -0.1679
70061W        W13052   3.203  13.478  27.243  0.1349 -0.0094 -0.3404
70062W        W13053   2.032  14.317   0.739  0.3883 -0.2300  0.1707
70063W        W13054   7.463  14.866   3.498 -0.0567  0.1454  0.1176
70064W        W13055  10.680  15.602   5.368  0.0296 -0.0055  0.0484
70065W        W13056  16.525   3.633   0.499  0.1245 -0.1579  0.0212
70066W        W13057  13.277   5.900  10.885  0.2006 -0.0467  0.0604
70067W        W13058  11.131  18.482  21.967  0.0783 -0.3784  0.0113
70068W        W13059   0.874  16.301  11.768  0.0736  0.0169  0.3448
70069W        W13060  31.278   7.909   5.851 -0.2277  0.3626  0.3975
70070W        W13061  16.414  14.098   0.959 -0.1170  0.0371  0.0392
70071W        W13062  14.236  33.868   7.080  0.2301  0.1702  0.1190
70072W        W13063   4.103  29.549   6.865 -0.0698 -0.3880  0.1444
70073W        W13064  11.510  12.570  27.872  0.2865 -0.1200 -0.3104
70074W        W13065  33.762  18.748   1.787 -0.2736  0.1089  0.0032
70075W        W13066   8.615  10.511   7.924  0.0226  0.0984 -0.2218
70076W        W13067  10.106  17.938  23.776  0.3430  0.0551 -0.1057
70077W        W13068  20.075   9.092  14.733 -0.1543  0.0319 -0.0288
70078W        W13069  13.633   8.027   2.410  0.0876 -0.0591  0.2667
70079W        W13070  30.575  27.262   7.999  0.0596  0.3406  0.3320
70080W        W13071   5.796   7.647   7.873  0.1599  0.2900 -0.1567
70081W        W13072  10.517  23.192  22.286 -0.3769 -0.2381 -0.1406
70082W        W13073   4.864  27.295   4.920 -0.2874 -0.0388  0.0517
70083W        W13074  29.512  30.806  16.405 -0.2046  0.0552 -0.2010
70084W        W13075  15.873  15.768   4.958  0.0408  0.0057  0.2222
70085W        W13076   3.960  17.754   0.773 -0.0730  0.0266  0.2123
70086W        W13077   1.576  34.190   6.002 -0.3233 -0.1422 -0.0660
70087W        W13078  17.143  20.652  20.659 -0.0827 -0.0404  0.1136
70088W        W13079  12.595  12.103   8.308  0.2561 -0.1343  0.0178
70089W        W13080  26.616  13.187   8.348 -0.1632  0.1562  0.1403
70090W        W13081  11.063  12.771   9.918 -0.0466  0.0506  0.2867
70091W        W13082  21.955  20.916  17.842  0.0186 -0.0286 -0.1869
70092W        W13083   7.071   0.073  10.243 -0.0200  0.3295 -0.0438
70093W        W13084  18.718  21.709   7.352 -0.2715  0.1235  0.1079
70094W        W13085  14.448  24.227   7.760  0.0661 -0.0719 -0.0285
70095W        W13086  30.542   0.779   3.178  0.1263  0.1071  0.0277
70096W        W13087   8.382  21.465   5.155  0.3550  0.2435  0.2534
70097W        W13088   1.490  10.292   2.940  0.1442 -0.0891 -0.1715
70098W        W13089   6.375   8.576  20.571  0.1816  0.1654 -0.2290
70099W        W13090  29.259   8.307  24.692  0.0850  0.3886  0.1435
70100W        W13091   0.227  16.536  24.363  0.3436 -0.0736  0.0122
70101W        W13092   6.926  32.945  27.220 -0.0700 -0.0436  0.1563
70102W        W13093  19.851  10.043  24.889 -0.1096  0.2214  0.0006
70103W        W13094  18.353  21.666   7.039 -0.0365  0.3096  0.0493
70104W        W13095   8.979   4.580  10.166 -0.1806  0.0358  0.2370
70105W        W13096  11.419   2.301   4.454  0.0302  0.1236 -0.0451
70106W        W13097  33.416   7.075  25.158  0.0933  0.0240  0.0627
70107W        W13098  10.721  20.200  27.392 -0.1199 -0.4035  0.3316
70108W        W13099   5.258  17.586   0.647  0.2142  0.0743  0.2788
70109W        W13100  14.747  18.050   8.621 -0.0303 -0.0382 -0.0232
70110W        W13101  23.964   8.996  26.717  0.1570  0.3335  0.2150
70111W        W13102  20.840  10.976   1.747  0.0060  0.0768 -0.0628
70112W        W13103  17.114   3.297   2.949  0.1237 -0.0733  0.2847
70113W        W13104   8.636  17.065  29.060  0.0371 -0.2140 -0.2816
70114W        W13105  21.903  11.224   0.939 -0.2394 -0.2953  0.3445
70115W        W13106  34.128  15.720   9.598 -0.2334 -0.2297 -0.0869
70116W        W13107   3.699  23.090   1.981 -0.2119  0.0049  0.2190
70117W        W13108   3.398  16.657  12.161 -0.2216 -0.0906  0.0517
70118W        W13109   1.009  24.049   0.100  0.2193  0.1040  0.3932
70119W        W13110  33.595  19.848   7.643  0.0510 -0.1912  0.2761
70120W        W13111   9.378  19.644   4.039 -0.3440 -0.1507 -0.0413
70121W        W13112   7.694   8.689  29.180  0.2591  0.3231 -0.1185
70122W        W13113   8.012  11.787   1.819 -0.0433  0.2618  0.0637
70123W        W13114  12.912   5.132  11.025 -0.2050  0.1387 -0.0790
70124W        W13115  33.061  12.445   1.182  0.0286  0.1962  0.0660
70125W        W13116   1.427   9.313  28.567 -0.2302 -0.0539  0.1064
70126W        W13117  15.148  11.816   6.448  0.1595  0.1705 -0.0202
70127W        W13118   2.090   4.300   3.216 -0.0381  0.1626  0.1094
70128W        W13119  13.656  13.716  20.324  0.0012  0.1135  0.1517
70129W        W13120  14.673   7.860   2.143  0.1790  0.0045  0.0536
70130W        W13121   5.742   7.430  15.314  0.0293  0.3000  0.2017
70131W        W13122   2.164   2.020  19.148  0.1303 -0.0546 -0.2628
70132W        W13123  32.092  16.093   1.093 -0.0634 -0.0458  0.3721
70133W        W13124   0.405   1.709   3.336  0.0910  0.0642 -0.0165
70134W        W13125   1.093  25.032  26.301 -0.1652 -0.3151 -0.1131
70135W        W13126   5.714  15.201  16.702 -0.0436 -0.0141  0.2810
70136W        W13127  16.988  13.633   1.428 -0.1648 -0.0683 -0.0960
70137W        W13128   5.989   1.685   0.042  0.0525 -0.0231  0.0714
70138W        W13129  12.243  21.543   8.655 -0.0816  0.1204 -0.2117
70139W        W13130  30.257  16.755  21.196 -0.2773  0.1947  0.1245
70140W        W13131  11.512  15.151  26.901  0.1319 -0.0893 -0.0240
70141W        W13132  34.529  15.931   0.088 -0.1302  0.0353  0.0265
70142W        W13133  15.651   3.631   7.362 -0.1914 -0.1873 -0.1809
70143W        W13134  16.204  11.938  24.956 -0.2119 -0.1142  0.4370
70144W        W13135   3.782  29.970   4.881  0.0404 -0.0757 -0.1473
70145W        W13136   5.132  14.225  24.067  0.1580 -0.1423 -0.2668
70146W        W13137   9.680  11.125   3.858 -0.0055 -0.1858  0.2032
70147W        W13138   9.131  19.528  28.275 -0.3074 -0.1961  0.0013
70148W        W13139   2.408  32.149   4.936 -0.1007 -0.1101  0.0431
70149W        W13140  11.835  11.369  11.110 -0.0720  0.0717 -0.2053
70150W        W13141   4.215  11.940  23.694 -0.1441 -0.1584 -0.1959
70151W        W13142  16.992  11.834  16.207 -0.0318 -0.1623  0.2012
70152W        W13143   9.193   4.183  17.165  0.0678  0.2775  0.0939
70153W        W13144  31.610  11.996   3.976  0.1961  0.0503 -0.3466
70154W        W13145   9.956   1.130  25.105  0.0091 -0.1595 -0.3906
70155W        W13146  31.943  23.450   8.996 -0.0233 -0.2438  0.1212
70156W        W13147   1.045  19.884   4.592  0.0214 -0.4145  0.0358
70157W        W13148  22.009   8.618   1.110 -0.0017 -0.0709 -0.1182
70158W        W13149  11.676  15.739   4.590 -0.2877 -0.0998 -0.2572
70159W        W13150  16.458  11.348   3.086 -0.0993  0.2139  0.0548
70160W        W13151   9.049   2.821   9.200 -0.2136  0.0111 -0.1298
70161W        W13152   2.351   7.513   9.370 -0.0512 -0.0858 -0.0227
70162W        W13153  31.662   5.783  10.103  0.1270 -0.1460  0.3365
70163W        W13154  17.993  21.696   3.030 -0.0198 -0.0598 -0.2137
70164W        W13155   3.397   5.545   9.873 -0.1395  0.1324 -0.0750
70165W        W13156  10.543   9.559   9.347  0.2067  0.0881 -0.1628
70166W        W13157  15.221   5.471  25.627  0.0531 -0.1004  0.1546
70167W        W13158   0.860   8.267  24.075  0.1753 -0.0884  0.0351
70168W        W13159  21.913   2.124  24.218 -0.0670 -0.1716  0.0998
70169W        W13160   3.490  16.096   7.703  0.1443  0.1011 -0.0940
70170W        W13161   8.337  33.067  29.256  0.3495 -0.0558  0.1088
70171W        W13162  14.986  30.331   2.671  0.1344  0.0072  0.0065
70172W        W13163   2.981  21.723   2.213 -0.2092 -0.0167 -0.0094
70173W        W13164  34.225  33.134  22.346  0.0595  0.2441  0.0830
70174W        W13165  14.202  32.365  16.164  0.3742  0.0929 -0.0090
70175W        W13166   0.207  15.887   2.263  0.0734  0.0067  0.1526
70176W        W13167  34.738   8.399   4.641 -0.0670 -0.0128  0.5357
70177W        W13168  10.158  32.944  28.144  0.0822 -0.1638 -0.1377
70178W        W13169   9.807  34.655   6.655 -0.0732 -0.0481  0.3078
70179W        W13170  34.133  32.611   6.727  0.0757 -0.2493 -0.0740
70180W        W13171   4.249   4.990  29.028 -0.1135 -0.1812 -0.2041
70181W        W13172   0.737  27.549  26.532 -0.2744 -0.1148 -0.1082
70182W        W13173  14.641   6.329   1.510  0.3094  0.2869 -0.0331
70183W        W13174  11.100  28.065  21.091  0.2905 -0.0542  0.0769
70184W        W13175  11.884   6.416   9.994  0.1426 -0.0582 -0.1742
70185W        W13176  10.132  17.377   5.141  0.1276 -0.0282  0.1986
70186W        W13177  21.178  13.168   8.015 -0.0239  0.0580  0.1272
70187W        W13178   2.383   5.214   6.431  0.3052  0.2307 -0.0235
70188W        W13179   7.061  13.334  28.065  0.0591  0.0428 -0.2494
70189W        W13180  11.681   7.733  10.187 -0.0012  0.1713 -0.0695
70190W        W13181  29.107   8.498   5.952  0.1843  0.0118 -0.0176
70191W        W13182   0.142  21.703   1.950 -0.0267  0.2298  0.2139
70192W        W13183  21.963  27.085  25.838 -0.1830 -0.2935 -0.0456
70193W        W13184   8.670  13.950  21.975  0.1514  0.0389  0.0558
70194W        W13185  23.450  18.473   5.593  0.3499  0.2097 -0.0921
70195W        W13186  25.726  24.157  19.898  0.0489  0.0848  0.1387
70196W        W13187   5.423  29.192   8.013 -0.1690  0.0321 -0.2046
70197W        W13188   0.029  19.319  28.211 -0.0779 -0.1429 -0.1777
70198W        W13189  19.425   2.088   3.202  0.1857 -0.1003  0.1329
70199W        W13190  12.285   1.195   5.672  0.3190  0.0610 -0.1065
70200W        W13191  12.773  31.617   5.769 -0.0463  0.1936  0.0091
70201W        W13192  25.264  13.882  29.086 -0.1751 -0.0542  0.0820
70202W        W13193  28.178  21.208   1.496  0.1655 -0.0746 -0.0808
70203W        W13194   9.114  14.203  25.934  0.0277 -0.1698  0.2252
70204W        W13195   7.747  31.662   4.541 -0.0287  0.1490  0.2200
70205W        W13196  14.035   4.934  28.910  0.1375 -0.2237  0.1661
70206W        W13197  26.558  11.428   9.876  0.2361 -0.2299  0.0762
70207W        W13198   6.361  33.834   0.310  0.2583  0.1437  0.1066
70208W        W13199  33.043  33.484   2.485 -0.1676 -0.0385  0.0395
70209W        W13200  31.650   8.601   2.862 -0.2062 -0.1496 -0.0002
70210W        W13201  32.663   8.425   2.291  0.1451  0.0779 -0.1311
70211W        W13202  28.189   4.448   7.842  0.2583  0.1879  0.0014
70212W        W13203  23.609  11.100  19.615  0.4210 -0.0457  0.0544
70213W        W13204  11.240   0.332   2.361  0.4646 -0.0704 -0.0996
70214W        W13205  10.341  11.678   1.270  0.0163 -0.3812  0.1638
70215W        W13206  21.009  25.847  28.185  0.1239 -0.1178  0.1396
70216W        W13207  13.626  24.088   4.890 -0.0782 -0.0851  0.1449
70217W        W13208  13.178  26.586   6.630 -0.1674  0.1743 -0.1255
70218W        W13209  15.870  24.769   5.916 -0.2298  0.1600 -0.0889
70219W        W13210   5.300   9.401  20.814 -0.3487  0.3882 -0.0324
70220W        W13211  10.123  11.682  16.863  0.2482 -0.1764 -0.4884
70221W        W13212   6.752  26.193   1.289 -0.0702  0.2569 -0.0814
70222W        W13213   0.258   9.908   6.212 -0.2882  0.1333  0.0569
70223W        W13214   3.966  10.315   7.414  0.0777 -0.2827 -0.0527
70224W        W13215   4.804   8.424   9.795  0.0874 -0.0861  0.0299
70225W        W13216   2.380  10.099   9.632 -0.1378  0.1474 -0.1518
70226W        W13217  13.048  27.878   8.820  0.3687 -0.0763 -0.0261
70227W        W13218   6.226  19.150   7.265  0.1546  0.1366 -0.1222
70228W        W13219   4.825   6.844   7.180 -0.0968 -0.2050  0.5028
70229W        W13220   7.646   9.341  27.133 -0.0900 -0.1116  0.2507
70230W        W13221  27.246   5.689   2.119  0.1016  0.1736 -0.1341
70231W        W13222  33.945  13.535   0.009  0.0218  0.1044  0.3384
70232W        W13223  32.006  13.630  10.093 -0.2597  0.0411 -0.3190
70233W        W13224  14.988  12.911   0.066  0.1924 -0.2671 -0.2682
70234W        W13225   0.937   5.070   7.427 -0.0701 -0.3495 -0.0530
70235W        W13226   6.869  16.872  10.647 -0.1123 -0.0348  0.0733
70236W        W13227   0.459  11.790   6.164 -0.0766  0.0906  0.0882
70237W        W13228   3.128  10.238  20.346 -0.2372 -0.0692 -0.3015
70238W        W13229   0.950  12.294   8.232  0.1605 -0.4491  0.1979
70239W        W13230  11.922   0.690   1.985  0.0710  0.1478 -0.0673
70240W        W13231  11.602  26.086  23.719  0.3463  0.0590 -0.0265
70241W        W13232  13.736   2.122   9.247 -0.0313  0.4838  0.1063
70242W        W13233  10.485  19.813   1.978  0.3694  0.2216  0.1898
70243W        W13234   8.879  17.344  28.578  0.0505  0.2729 -0.1786
70244W        W13235   5.322  13.334  24.818 -0.0914 -0.2085  0.3457
70245W        W13236   8.159  17.322   8.095  0.3617 -0.0302 -0.0524
70246W        W13237   6.782  17.747   7.768 -0.1923 -0.0915 -0.1021
70247W        W13238   2.774   9.477   2.268 -0.1589 -0.0629 -0.1766
70248W        W13239  31.528  24.422   5.983  0.0658 -0.1603 -0.0220
70249W        W13240   8.378  21.195  28.589  0.0102 -0.0305  0.1328
70250W        W13241  24.792  20.986   0.185  0.1938 -0.1717 -0.0536
70251W        W13242  33.103  12.877   6.386 -0.0640 -0.1399  0.1489
70252W        W13243  14.007  17.500   5.021 -0.2094 -0.2199  0.2041
70253W        W13244  25.218   9.972   6.551 -0.0513 -0.0249 -0.1732
70254W        W13245   9.304  13.300  10.375 -0.0691  0.0208 -0.0060
70255W        W13246  20.288   8.222  15.092 -0.0196 -0.0666 -0.2103
70256W        W13247  32.368   7.092  10.872 -0.1922 -0.1751  0.2676
70257W        W13248  18.992  16.553   7.016 -0.2088  0.1486  0.4022
70258W        W13249   2.330   2.253   5.635 -0.0049  0.3228 -0.0896
70259W        W13250  16.035  33.920   0.564 -0.1635 -0.1877 -0.0303
70260W        W13251  25.754  21.258   6.348 -0.1203  0.2039  0.0385
70261W        W13252   8.661  13.405  26.396 -0.0689 -0.1761 -0.1346
70262W        W13253   2.767   6.528   1.259  0.1220 -0.0522  0.0663
70263W        W13254  23.814  15.920   0.316  0.1155 -0.0271 -0.0638
70264W        W13255   0.585  11.137   6.102 -0.1803  0.0167  0.0148
70265W        W13256   6.812  27.089   5.889  0.3681  0.0349  0.0084
70266W        W13257  18.760   9.830   2.768 -0.3727 -0.1388 -0.1724
70267W        W13258  14.129  14.414   5.801  0.0297  0.0963 -0.1402
70268W        W13259   1.402  12.762   3.663  0.1775 -0.1880 -0.1711
70269W        W13260   7.148  20.130  25.413 -0.0765 -0.2842  0.1776
70270W        W13261  13.998   0.537   3.898  0.1241  0.2874 -0.1427
70271W        W13262  27.116   2.456   5.609 -0.2120 -0.1430  0.3816
70272W        W13263   3.383  19.589   2.999 -0.0328 -0.1244 -0.2187
70273W        W13264   3.947  34.289   7.703 -0.2075  0.2896  0.0193
70274W        W13265   6.630   6.097  10.375 -0.3539 -0.0149  0.0425
70275W        W13266  29.844  16.764  10.758 -0.0032  0.1319 -0.5543
70276W        W13267  34.762   1.124   7.178 -0.1830 -0.0114  0.0661
70277W        W13268   5.123  32.700   1.827  0.3229 -0.1299  0.3480
70278W        W13269  30.328  13.410  10.137 -0.0195 -0.2287 -0.1585
70279W        W13270  30.523   4.424   6.926 -0.0245  0.1911 -0.2490
70280W        W13271  11.869  17.604   1.752 -0.0254 -0.2487  0.2443
70281W        W13272   0.113  24.744  25.999 -0.3233  0.1017  0.4511
70282W        W13273  24.710  29.082   1.725  0.0824  0.2414  0.3155
70283W        W13274  32.566   5.730   4.207 -0.0139  0.3754  0.0573
70284W        W13275   9.540  15.269   1.124 -0.2576  0.3237  0.0241
70285W        W13276  26.380  17.442   7.508  0.1502 -0.2329 -0.3317
70286W        W13277   6.494  32.528  10.296  0.0981  0.0739  0.0894
70287W        W13278   1.556  13.953   9.093 -0.1517 -0.1367  0.2697
70288W        W13279   8.632  20.437  10.887 -0.2478 -0.0554  0.1731
70289W        W13280   3.489  20.642   7.332 -0.0925  0.0396 -0.0140
70290W        W13281   0.650  11.465   8.645  0.1449 -0.0463 -0.0530
70291W        W13282  28.478  19.920   1.448 -0.0985  0.1249 -0.0795
70292W        W13283   8.992   2.942   9.901  0.1388 -0.1135  0.0571
70293W        W13284   6.442  10.646   5.280 -0.3960  0.1270 -0.2680
70294W        W13285   6.392   3.424   8.271  0.1230  0.1401  0.0349
70295W        W13286  19.390  13.396   7.917 -0.0708  0.2892 -0.0625
70296W        W13287  31.059  17.395  20.729  0.2191 -0.0583  0.2176
70297W        W13288  16.543   4.501  10.539  0.3314  0.4610 -0.1941
70298W        W13289   0.604   8.005  10.679 -0.4214 -0.1620 -0.1594
70299W        W13290   2.679  10.290   8.424  0.1345 -0.0603 -0.3325
70300W        W13291  10.964  33.912  20.280  0.2663  0.0255  0.0147
70301W        W13292  20.755  14.134   3.449 -0.1734  0.0151 -0.1352
70302W        W13293  11.473  17.649   3.681  0.1588  0.1630  0.1042
70303W        W13294   2.048  14.615   2.474 -0.0940  0.0705  0.1974
70304W        W13295  33.402  30.457   3.231  0.0629 -0.4102  0.4658
70305W        W13296   1.228  16.119  10.346  0.0534 -0.1219  0.0031
70306W        W13297  12.766  15.623   3.606  0.1588  0.0485 -0.0761
70307W        W13298   3.162  12.845   8.964  0.0966  0.4385 -0.1591
70308W        W13299  31.890   5.651  19.581  0.0376  0.0439  0.5237
70309W        W13300  14.444   9.797   9.296  0.0445 -0.0381  0.0475
70310W        W13301   9.762   9.787  26.156  0.1500  0.1508 -0.1045
70311W        W13302  18.866  28.914  18.136  0.0058 -0.0400  0.1254
70312W        W13303   4.838  13.564  10.820  0.2076  0.0115  0.1387
70313W        W13304  30.304   3.549   8.156 -0.6194 -0.0225 -0.0848
70314W        W13305  32.689  25.133   5.301  0.0231  0.3772 -0.0318
70315W        W13306   7.336  11.854   2.815 -0.2924 -0.2091 -0.3289
70316W        W13307  12.909  34.580   4.481 -0.2478  0.0984 -0.0338
70317W        W13308  22.014   3.768   1.019  0.2335  0.1429 -0.1185
70318W        W13309  18.180  13.923   5.863  0.1674  0.0241 -0.1610
70319W        W13310  15.383   2.226   7.065  0.0412 -0.0469  0.3907
70320W        W13311  18.190  21.041   7.218 -0.1996 -0.2584  0.0470
70321W        W13312  13.109  11.480  28.292 -0.1157  0.1735  0.0300
70322W        W13313  14.770   6.252   8.740  0.1974 -0.1089 -0.0743
70323W        W13314  30.979  34.269   6.481  0.0049  0.0246  0.5053
70324W        W13315  11.176   7.767  17.294 -0.2535 -0.0770  0.0330
70325W        W13316   8.032  18.341   6.165 -0.1524  0.2668 -0.1014
70326W        W13317   2.998  29.733   0.359 -0.3943  0.0308  0.0237
70327W        W13318   8.655  10.696  27.698 -0.0694  0.0510  0.2840
70328W        W13319   9.795   5.309  26.037 -0.0095 -0.0286  0.1989
70329W        W13320  32.040   4.734  23.070  0.0333  0.1723  0.1339
70330W        W13321   5.929   6.347   8.124  0.1115 -0.0580 -0.4148
70331W        W13322   6.271  14.425   3.688 -0.1121  0.2232  0.0274
70332W        W13323  11.214  32.322   9.432  0.0968  0.2027  0.0077
70333W        W13324  24.957   9.329   5.239  0.2288  0.0217  0.2623
70334W        W13325   6.886  11.412  26.288  0.0993  0.4256 -0.0547
70335W        W13326  32.703  14.584   2.995 -0.0441 -0.1096  0.0776
70336W        W13327   6.867  34.148  26.041  0.0315 -0.2784 -0.1916
70337W        W13328  11.729  14.699   6.209 -0.2258  0.1265 -0.0555
70338W        W13329  12.213  23.362   1.661  0.0886  0.2686  0.1708
70339W        W13330   1.679  13.904   8.552  0.3017  0.2384 -0.1366
70340W        W13331   8.451  13.555   0.689 -0.2896  0.2204 -0.0493
70341W        W13332   9.943  22.518   3.790  0.3156 -0.0995 -0.2504
70342W        W13333  15.329  26.230   0.213  0.1750 -0.0912 -0.2316
70343W        W13334  33.673  10.091   7.870  0.2770 -0.1519 -0.0163
70344W        W13335   1.813  19.161  10.319 -0.0948  0.0115 -0.1588
70345W        W13336  14.124   5.539  23.790 -0.0411  0.0440  0.0466
70346W        W13337  13.664  15.476   1.481 -0.1849 -0.2998 -0.1213
70347W        W13338  31.938  10.247  11.128 -0.1025 -0.0617 -0.0083
70348W        W13339  15.329  19.342  23.541  0.4221 -0.0222  0.1100
70349W        W13340   8.263  15.527  29.119 -0.0445 -0.5351  0.1937
70350W        W13341   9.125  23.507   9.914  0.3730  0.4302 -0.0300
70351W        W13342  13.581  12.991   8.966 -0.1430 -0.0069  0.0578
70352W        W13343  30.225  18.086  10.129 -0.1891 -0.2292 -0.1061
70353W        W13344  33.180  13.501  11.480 -0.0404  0.0162  0.1454
70354W        W13345  19.808  16.921   1.882 -0.2007  0.3998  0.3154
70355W        W13346  32.243   3.600  10.557 -0.4083 -0.0559  0.0910
70356W        W13347  19.443  10.675   4.288  0.1137  0.2522  0.0547
70357W        W13348  31.491  16.657   5.644 -0.2065 -0.0311 -0.1314
70358W        W13349  11.829   3.864   5.105 -0.1380 -0.2771  0.0824
70359W        W13350   7.514  21.618  25.806 -0.3182 -0.4219  0.1071
70360W        W13351   5.077   2.408   4.375 -0.0257  0.0957  0.2493
70361W        W13352   7.803   4.465   0.513  0.2569  0.0515  0.2123
70362W        W13353  32.896  18.129  10.842  0.2282 -0.2614  0.1326
70363W        W13354  23.445  13.491   6.430 -0.2440  0.3322  0.1170
70364W        W13355  16.484  17.307  24.289  0.0255  0.1442  0.2157
70365W        W13356   2.434  19.474   9.420  0.1011  0.0367  0.0797
70366W        W13357  13.529  12.286  27.975 -0.0238 -0.1011  0.0765
70367W        W13358   1.482   0.809   2.996 -0.1323  0.0045 -0.0758
70368W        W13359   1.299   1.934  19.298 -0.1859 -0.4392 -0.1873
70369W        W13360  16.333  10.616   5.551  0.1385 -0.4783 -0.3342
70370W        W13361   1.769  14.155   2.598  0.0697 -0.5423 -0.0497
70371W        W13362   2.362  13.165   8.940  0.2264 -0.2111  0.0694
70372W        W13363  26.566  22.998  25.927 -0.2904  0.0031  0.0432
70373W        W13364   9.012   5.086  25.340 -0.3088 -0.0523  0.0530
70374W        W13365  33.968  26.243   1.270 -0.0135 -0.0588 -0.1057
70375W        W13366   0.529  15.150   7.208  0.0329  0.0265  0.0446
70376W        W13367  21.492  15.003  19.981  0.2794 -0.0863 -0.1512
70377W        W13368  11.302   5.828  25.906 -0.0024  0.1817 -0.0202
70378W        W13369  13.780  28.645  10.106 -0.2405 -0.0838 -0.0478
70379W        W13370   8.977  33.363  25.191  0.0929  0.2242  0.0596
70380W        W13371   2.178  25.279   7.412  0.3275  0.2630  0.1558
70381W        W13372  11.996  23.843  27.523  0.1801 -0.0890 -0.2073
70382W        W13373   2.697  28.815   4.731 -0.0528  0.0837 -0.2481
70383W        W13374  32.362  23.329   6.520  0.3131 -0.0389  0.1800
70384W        W13375  32.446  10.412   6.463  0.0961 -0.3376  0.1177
70385W        W13376   7.912   1.517   8.644  0.2161  0.3731  0.1406
70386W        W13377  10.230   7.043   1.038 -0.2467 -0.0673  0.1458
70387W        W13378  15.473  34.593   8.792 -0.2217 -0.5024  0.3150
70388W        W13379  33.292  18.888   3.276 -0.0156 -0.2360  0.0355
70389W        W13380   4.195   7.108   5.805  0.0158  0.2005  0.0822
70390W        W13381   1.237   2.317   9.177  0.1374 -0.0872 -0.1294
70391W        W13382  29.024  15.897   2.552  0.0477  0.0746  0.1399
70392W        W13383   6.268   8.706  25.239 -0.0824  0.0012 -0.0476
70393W        W13384   3.408   9.467   4.044  0.1348 -0.2740 -0.2680
70394W        W13385  13.750   0.257   9.414 -0.2325  0.0390  0.2008
70395W        W13386  31.499  29.597  23.096  0.0585 -0.2016  0.3313
70396W        W13387   5.013  10.533  10.548 -0.2226 -0.1534  0.2126
70397W        W13388  34.062   7.028   1.864  0.1964  0.1160 -0.2447
70398W        W13389   3.562  18.198  27.810  0.2706 -0.1867  0.0960
70399W        W13390  25.439  20.082   8.887 -0.0841  0.0501  0.1627
70400W        W13391  16.679  24.272   5.935  0.0263 -0.2017 -0.0879
70401W        W13392  27.620  17.161   7.789  0.3056  0.1160  0.2590
70402W        W13393   1.399  19.033   7.546  0.2059 -0.3789 -0.1502
70403W        W13394   8.693  16.165  26.068 -0.4161 -0.1112 -0.0575
70404W        W13395  11.713  29.159   0.251  0.0608 -0.1836  0.2519
70405W        W13396  26.810  34.180  26.238  0.1953 -0.2536 -0.2791
70406W        W13397   0.368  32.001  28.465 -0.1826  0.2877 -0.0290
70407W        W13398  29.626  27.919   0.350  0.2598 -0.0980 -0.2126
70408W        W13399   9.609  10.501   7.475 -0.0042  0.1384 -0.1089
70409W        W13400  16.478   5.184  20.697  0.1670  0.1234  0.0945
70410W        W13401  32.996   9.978  26.671 -0.0669 -0.0353  0.1000
70411W        W13402  12.949  10.335   9.683  0.1350 -0.3053  0.0525
70412W        W13403   8.052  12.339   7.775 -0.0799  0.3841  0.3246
70413W        W13404   0.187  30.923   4.623  0.4187  0.0957  0.1575
70414W        W13405  23.954  24.567   9.918  0.3154  0.1245  0.0367
70415W        W13406  10.256  30.593  28.197  0.1092  0.5261 -0.1694
70416W        W13407  20.132   1.038  25.779 -0.4735 -0.1428 -0.0105
70417W        W13408  27.576  14.783   8.683 -0.1009 -0.2046  0.0472
70418W        W13409  16.390  22.504   2.845  0.2332  0.0058 -0.0099
70419W        W13410  29.042  16.786  23.185 -0.1802 -0.1787  0.2320
70420W        W13411  33.234  17.079   8.869  0.0305  0.1174  0.0757
70421W        W13412   9.265  19.820   9.027  0.1793 -0.0348  0.1265
70422W        W13413   2.307  12.688   9.480  0.0960  0.0173 -0.0329
70423W        W13414  10.324  30.222   1.994 -0.2108  0.2801  0.1147
70424W        W13415   8.920   5.713   5.961 -0.1271  0.0908 -0.3195
70425W        W13416   2.130  19.684   5.693 -0.3751 -0.3935  0.0228
70426W        W13417  11.233   2.024  28.734  0.1364  0.0450  0.2232
70427W        W13418  15.116  24.892   1.527  0.1889 -0.1754  0.1607
70428W        W13419  10.467  19.876   9.704  0.1442 -0.1131 -0.0739
70429W        W13420  25.815   2.806   4.920  0.0785 -0.0288  0.4653
70430W        W13421  11.939   8.758   4.609 -0.3398 -0.3297  0.1023
70431W        W13422  20.703  11.174   6.100 -0.0359 -0.1602  0.1863
70432W        W13423   9.118   6.868  20.608  0.3516 -0.2203 -0.0765
70433W        W13424   7.148   2.368   5.458  0.1259  0.0449 -0.3342
70434W        W13425  24.800  24.961  23.141  0.1023 -0.4647  0.0232
70435W        W13426  11.819   0.128  19.949  0.0613  0.1617  0.0345
70436W        W13427   5.086  23.764  28.833  0.2842 -0.3406  0.2751
70437W        W13428  34.078  16.036   0.368  0.1935 -0.4164  0.1010
70438W        W13429   4.399  18.438   7.058 -0.0326  0.0723  0.0612
70439W        W13430   6.944   4.051   6.274  0.1430  0.0678 -0.3488
70440W        W13431   8.103  10.013  10.416 -0.1221  0.0083 -0.2426
70441W        W13432   1.542   5.515   9.376  0.0334  0.2327  0.3424
70442W        W13433   8.634  29.626   1.528 -0.4384 -0.0821  0.1103
70443W        W13434   9.389  12.190   8.229 -0.0039  0.1012 -0.1088
70444W        W13435  33.280  21.032  28.656 -0.0287  0.2429  0.1210
70445W        W13436   7.192   5.040   5.168 -0.1160  0.1106 -0.0939
70446W        W13437  15.755   3.255   4.844  0.0284  0.0900 -0.0430
70447W        W13438   9.165   1.353   1.319  0.0651 -0.0969 -0.0347
70448W        W13439  34.550  17.519  11.471 -0.3123  0.1572 -0.0192
70449W        W13440  30.924  12.640   4.290  0.1522 -0.0812  0.0410
70450W        W13441   3.476   4.973  28.602 -0.0414  0.3005  0.0507
70451W        W13442  30.259  15.950  20.555 -0.1217  0.0519  0.2651
70452W        W13443  21.683  15.442   5.263 -0.4635 -0.0612 -0.1175
70453W        W13444  11.096  14.144   7.280 -0.2888 -0.2967  0.2146
70454W        W13445   5.121  11.388   8.017  0.0103  0.1547 -0.1266
70455W        W13446  15.903   1.595   9.560 -0.2964 -0.2203  0.0027
70456W        W13447  25.741   4.684   0.765 -0.0292 -0.2021  0.3244
70457W        W13448  25.343  11.583   2.341 -0.0421 -0.1121  0.1010
70458W        W13449  11.377  18.652   5.492  0.4114 -0.0313  0.2992
70459W        W13450  14.584   3.817  23.398 -0.1744  0.0832  0.0130
70460W        W13451   0.599  15.741  19.299 -0.0338 -0.0055  0.1583
70461W        W13452   5.182  15.830   1.840  0.0520  0.0826 -0.0264
70462W        W13453   5.086  13.125   9.612 -0.1200  0.1148  0.0082
70463W        W13454  30.946   7.885   7.799 -0.3832 -0.1346  0.1040
70464W        W13455  19.963  15.001   2.611 -0.2161 -0.1255 -0.1073
70465W        W13456  34.704  29.849   2.652 -0.0045 -0.2382  0.2613
70466W        W13457  15.750   0.012   8.441  0.2945  0.0253 -0.1991
70467W        W13458   8.765   8.730   9.590 -0.3166 -0.2737  0.0651
70468W        W13459  28.529   5.962  21.623 -0.1930 -0.0210 -0.4329
70469W        W13460  34.414  23.043   5.273 -0.0224 -0.2493  0.0565
70470W        W13461   1.556  19.256   6.358 -0.1264 -0.0677  0.0056
70471W        W13462  10.333   8.883   6.251 -0.0177 -0.0261  0.0280
70472W        W13463   3.999  33.384   1.411  0.1521  0.1604 -0.1237
70473W        W13464  10.545  11.579   7.971 -0.0477  0.1915 -0.0924
70474W        W13465   5.222  14.016   6.852 -0.2329  0.1852  0.1944
70475W        W13466  16.660  19.137   0.295 -0.0070 -0.0897  0.2921
70476W        W13467   5.235  13.283   7.851 -0.0838 -0.1057  0.1435
70477W        W13468   6.236   0.276   3.562  0.3897  0.1280  0.0595
70478W        W13469  20.410  18.724   2.483 -0.1581  0.4103 -0.1147
70479W        W13470  23.389  13.417   5.251 -0.1038 -0.2394 -0.2415
70480W        W13471  15.281  19.657   7.167 -0.2934 -0.1656  0.4847
70481W        W13472   6.735  17.237   4.097  0.3509  0.0953 -0.2274
70482W        W13473  12.208  10.803   8.618  0.0968  0.3663  0.1911
70483W        W13474  33.904  21.832  20.824  0.2121  0.0551 -0.3376
70484W        W13475   8.610  17.986   4.819  0.2309 -0.0469 -0.0272
70485W        W13476  12.067   5.010   6.108 -0.0385 -0.3915 -0.0821
70486W        W13477  34.690  20.373   6.633  0.0862  0.0185 -0.1064
70487W        W13478   3.207  10.127  17.559 -0.0011  0.0993 -0.0541
70488W        W13479  17.622  12.194   7.159 -0.2437 -0.2037 -0.3429
70489W        W13480   4.816  20.045  11.471 -0.0360 -0.2472 -0.0870
70490W        W13481  11.608  10.287   7.859  0.2442 -0.1231  0.0419
70491W        W13482   3.923  16.424  27.195  0.2314  0.2809  0.2643
70492W        W13483   9.565  21.382   6.355 -0.2784  0.1653  0.1178
70493W        W13484  34.435  18.856   7.051 -0.0989 -0.1046  0.2934
70494W        W13485  22.916   6.951   3.590 -0.0129  0.0265 -0.2229
70495W        W13486   2.619  13.360   4.995  0.0151  0.2869  0.1489
70496W        W13487   6.986  31.455   8.591  0.1271  0.2594  0.0264
70497W        W13488   1.673  10.206   5.494 -0.1892 -0.0095  0.2297
70498W        W13489  16.529  18.854   8.517 -0.1738 -0.1469 -0.2682
70499W        W13490  16.570  15.903  28.861 -0.0082 -0.1923  0.0994
70500W        W13491   5.839  13.658   4.691  0.1750  0.0057  0.2128
70501W        W13492  32.558   2.418   6.047 -0.0983  0.2839 -0.0214
70502W        W13493  28.207   8.924  27.657  0.0218  0.2033  0.2029
70503W        W13494   0.478   8.061   9.001 -0.2012 -0.1201 -0.2578
70504W        W13495   4.442  14.835  28.406  0.0674 -0.1048  0.1309
70505W        W13496  10.748   7.775  25.810  0.1257  0.0510 -0.5167
70506W        W13497  13.639  10.185   6.150 -0.0351 -0.0120 -0.1189
70507W        W13498   8.861  13.656   0.437  0.1830  0.0952  0.1893
70508W        W13499  31.511  12.156  24.737 -0.4168  0.1459 -0.0885
70509W        W13500   3.603  24.484   2.564  0.0164  0.1801 -0.1800
70510W        W13501  26.569  27.183   5.467  0.2788 -0.1454 -0.0867
70511W        W13502   5.055   3.572   8.746  0.0798 -0.0081 -0.1733
70512W        W13503   9.837  15.505   0.805 -0.0650  0.0352 -0.1126
70513W        W13504  28.111  32.597   6.096  0.3270  0.1937 -0.0998
70514W        W13505   3.172  11.615  21.330 -0.0386 -0.1819 -0.1340
70515W        W13506   5.287  10.813  29.046  0.1044  0.1277 -0.2576
70516W        W13507  33.071  32.514  28.418  0.0304 -0.2503 -0.1017
70517W        W13508   3.550  32.782  25.830  0.0157 -0.2093  0.1172
70518W        W13509   7.120  23.419   3.014 -0.1980 -0.2877  0.2542
70519W        W13510  15.592  16.138   9.400 -0.2171  0.1039 -0.1983
70520W        W13511  12.053  27.652   0.574 -0.0639  0.1869 -0.1420
70521W        W13512  17.638  15.415   5.984  0.2971 -0.3670  0.2123
70522W        W13513  12.761  21.436   5.786  0.0607  0.1884  0.4093
70523W        W13514   7.731  16.462  25.866  0.1728 -0.0192 -0.0562
70524W        W13515   7.722  19.909  27.610  0.0480 -0.0785 -0.1877
70525W        W13516  30.620  18.014   8.879 -0.1911  0.0797 -0.0271
70526W        W13517  31.372  32.290  21.239  0.3028 -0.1989 -0.0635
70527W        W13518  15.383  32.429   9.695  0.3812 -0.0221  0.0896
70528W        W13519  14.795  10.379   9.974  0.2990  0.1693 -0.1384
70529W        W13520  11.199  15.001   3.143  0.0362 -0.4277  0.0575
70530W        W13521  32.973   3.187   9.764  0.2271 -0.1692  0.2139
70531W        W13522   5.945  13.701   8.028  0.1297 -0.2441 -0.0574
70532W        W13523   4.576  21.581  10.582  0.0226 -0.0821  0.0344
70533W        W13524  14.299  18.577   2.256 -0.0643 -0.0637  0.0600
70534W        W13525  33.274  12.927  17.514  0.0224  0.0662 -0.2187
70535W        W13526   2.841   3.662  10.740 -0.1940  0.0519 -0.0526
70536W        W13527   4.580  28.592   8.210 -0.1220  0.0413  0.1528
70537W        W13528  33.327  19.940  15.649 -0.0820  0.1240  0.1513
70538W        W13529  14.007   4.490   9.233 -0.0481 -0.1800  0.0906
70539W        W13530  13.116   8.974   5.731 -0.1895  0.2564 -0.1946
70540W        W13531   0.827  12.004  27.854 -0.0876 -0.2464 -0.3208
70541W        W13532   1.246  33.085  25.133  0.0933 -0.2052 -0.2916
70542W        W13533   6.191   9.187  20.661 -0.1646  0.1997 -0.1641
70543W        W13534  31.946  27.668   7.411  0.2328 -0.0010  0.1903
70544W        W13535  30.097  20.025   9.928  0.0484  0.0074  0.1706
70545W        W13536   0.802   2.339   3.166 -0.4071 -0.0138 -0.0058
70546W        W13537   1.085   7.709  28.257 -0.0835 -0.1108 -0.1279
70547W        W13538   7.605  24.432   9.253 -0.0383  0.0740 -0.0126
70548W        W13539  21.580   5.768  28.041 -0.5618 -0.1639 -0.0653
70549W        W13540   2.099  28.940   3.991  0.1942 -0.0511 -0.1607
70550W        W13541  31.256  12.570  15.268 -0.4039 -0.2138  0.1551
70551W        W13542   6.960  14.730  26.136  0.0806 -0.0089 -0.0752
70552W        W13543  25.876   7.872  28.706 -0.1092  0.2113  0.0285
70553W        W13544  21.409  30.965  18.816  0.0455 -0.1550 -0.2717
70554W        W13545  10.319   9.507   4.539 -0.2206 -0.1052  0.0875
70555W        W13546  18.630  22.902  19.731  0.0693  0.0078  0.0897
70556W        W13547  13.519   0.306  21.712 -0.0321 -0.1780 -0.1430
70557W        W13548   2.274  21.503   1.852 -0.1263 -0.1753 -0.0148
70558W        W13549   3.564  12.633  20.287 -0.0355 -0.0120 -0.0395
70559W        W13550   9.386  32.128   3.561  0.1194 -0.3006 -0.0409
70560W        W13551   1.930  13.007   9.316  0.0012  0.2079 -0.2593
70561W        W13552   3.220  32.651  22.947 -0.6906 -0.3535  0.2267
70562W        W13553  14.895  28.416   6.154  0.0099  0.1581  0.0333
70563W        W13554  15.927   5.444  16.152 -0.1877  0.0144 -0.1326
70564W        W13555  18.663  11.046   7.553 -0.1432 -0.2905 -0.1414
70565W        W13556  27.647  18.501   8.795 -0.0215  0.0348  0.2570
70566W        W13557  14.709  17.075   8.628 -0.3421 -0.1372  0.4215
70567W        W13558  13.557   3.975   5.725  0.1261  0.0929 -0.0364
70568W        W13559  21.389  24.310  27.530 -0.2926  0.0930 -0.1730
70569W        W13560  29.073  18.898  27.035  0.1376 -0.0153  0.0486
70570W        W13561  11.271  21.805  27.861  0.1858  0.1147  0.0153
70571W        W13562  12.303  20.167   6.610  0.1656  0.0618 -0.3630
70572W        W13563   9.674  22.389  27.939  0.0240  0.0746  0.1713
70573W        W13564  24.597  18.665   4.077 -0.1758 -0.1092  0.1195
70574W        W13565  11.471   7.815   1.184 -0.1295  0.2761 -0.1783
70575W        W13566  19.804   5.209  19.417  0.0880  0.1029  0.0163
70576W        W13567  10.596  19.958   0.808 -0.4756  0.0383  0.0448
70577W        W13568  27.894   8.759  17.283  0.4544  0.1111  0.1132
70578W        W13569  31.704   8.326   8.109  0.1235 -0.0434  0.3780
70579W        W13570   7.541   8.453   3.722  0.2269 -0.0394 -0.1551
70580W        W13571  27.436  13.465   4.420 -0.0655  0.2885 -0.2569
70581W        W13572   2.671  14.843   9.946 -0.1329 -0.0328 -0.0652
70582W        W13573  33.807  20.518   8.590 -0.0172  0.0242  0.0253
70583W        W13574  11.436  20.759  21.611  0.0268  0.0238  0.0099
70584W        W13575  23.164  21.733   7.341  0.2738 -0.0716 -0.0271
70585W        W13576   6.885  21.369  27.934  0.2473  0.2955  0.1587
70586W        W13577  11.953  22.717  28.646 -0.0846 -0.2554 -0.0402
70587W        W13578  33.873   8.357   4.660  0.2489 -0.2174 -0.1113
70588W        W13579  14.285  17.467  23.416 -0.3661  0.0283  0.2001
70589W        W13580   2.781  20.617   4.933 -0.1190 -0.3930 -0.0826
70590W        W13581   4.480  11.589   9.654  0.1469 -0.2067  0.0200
70591W        W13582   2.177  19.248   1.520  0.0166  0.2840  0.1249
70592W        W13583  27.058   3.389  22.504  0.2705 -0.0258  0.0769
70593W        W13584  14.944  25.739   1.059  0.3044  0.1846  0.3458
70594W        W13585   6.612  18.648   3.616  0.0830  0.3574 -0.2676
70595W        W13586  29.032  17.348   4.828  0.3203 -0.2220  0.2640
70596W        W13587   6.540  20.958  21.517 -0.1787  0.1652 -0.0030
70597W        W13588  19.207  22.989   5.805 -0.0438  0.0367  0.4116
70598W        W13589  27.473   4.021  22.417 -0.0745  0.0174 -0.2617
70599W        W13590  12.342  15.329   5.283  0.0709  0.0758 -0.0561
70600W        W13591   0.257   3.411   4.999  0.2143 -0.0147 -0.0597
70601W        W13592  25.643  24.190  27.797  0.0062 -0.0090  0.1808
70602W        W13593  34.088  24.006   8.165  0.0215 -0.0999  0.0972
70603W        W13594   0.623   8.416   9.741  0.2931  0.1448 -0.3458
70604W        W13595   7.489   8.209   6.164 -0.4775  0.2006 -0.0356
70605W        W13596  34.723  19.712   7.426 -0.1395  0.0128  0.1626
70606W        W13597  19.968   2.833  25.322 -0.0088  0.0111 -0.0667
70607W        W13598  13.234  29.150  25.035  0.1371 -0.1022  0.0972
70608W        W13599   1.099  14.157  20.252 -0.1545 -0.0253  0.0348
70609W        W13600  32.872  24.882   2.842  0.1613  0.0161  0.3540
70610W        W13601  10.739  10.504  20.100 -0.1104  0.0120 -0.2458
70611W        W13602  31.379   7.665   8.833 -0.0597 -0.1444  0.2602
70612W        W13603  13.621  20.689  25.040  0.0634  0.3210 -0.0397
70613W        W13604   0.843  13.666   7.669 -0.2461 -0.0093  0.1705
70614W        W13605   4.774  20.544   9.729  0.3032 -0.1052  0.4154
70615W        W13606   6.153  20.287  26.402  0.2897  0.0592  0.2446
70616W        W13607  24.926   2.900   8.380  0.1689 -0.0759  0.1704
70617W        W13608  33.065  13.847   6.894 -0.1907  0.0662  0.0100
70618W        W13609   9.950  31.168  15.271 -0.1957  0.1170 -0.1181
70619W        W13610  12.625  16.072   4.477 -0.1829  0.0658 -0.0602
70620W        W13611   4.364   3.748  24.027 -0.0066 -0.2283  0.1069
70621W        W13612  30.736   5.126   4.037 -0.1299 -0.0221 -0.1196
70622W        W13613  19.184  18.961   2.100 -0.0676 -0.2653  0.1278
70623W        W13614   4.067  18.932  20.160  0.2932  0.1618 -0.2186
70624W        W13615  11.506  29.661   1.853 -0.2090  0.1448  0.0275
70625W        W13616   2.458  14.683  20.323  0.3497 -0.0591  0.0180
70626W        W13617   7.518  13.094  28.937 -0.0042 -0.6148  0.0746
70627W        W13618   0.826  15.906  23.953  0.0078  0.1155  0.2775
70628W        W13619   5.501  23.355  26.733 -0.1613  0.1935 -0.2363
70629W        W13620   6.805   0.716  21.543 -0.1134  0.0952  0.1548
70630W        W13621   3.627   9.645  28.225 -0.1583  0.3091  0.0999
70631W        W13622  31.095  18.803   0.396 -0.0505  0.1313 -0.1386
70632W        W13623   9.185  13.992  28.273  0.0754 -0.1823 -0.0470
70633W        W13624  34.261  10.025   2.730  0.0530  0.0432  0.1577
70634W        W13625  31.016  20.489  27.910 -0.1767  0.1281 -0.0347
70635W        W13626  32.222   5.969  26.720 -0.1664 -0.2736  0.0439
70636W        W13627  12.971   3.143   7.852 -0.2418 -0.2093  0.2602
70637W        W13628   3.003  18.668  25.887  0.0367 -0.0816  0.0649
70638W        W13629  11.773  24.355   8.074  0.1264  0.0972 -0.1321
70639W        W13630   3.547   9.258   5.440 -0.1007 -0.1096  0.1392
70640W        W13631  32.686  11.773  23.519  0.0802 -0.0441 -0.0453
70641W        W13632  29.655  18.598  27.592  0.0127  0.0983 -0.2949
70642W        W13633  12.784  12.746   5.807 -0.5862 -0.1964 -0.0685
70643W        W13634   6.789   5.199  27.484  0.0255  0.1122  0.3317
70644W        W13635  10.718  33.824  25.576  0.1653 -0.1204  0.0198
70645W        W13636   7.516  26.825   9.117 -0.3236 -0.4160 -0.0325
70646W        W13637  10.139  31.696  26.330 -0.0361  0.0660  0.0052
70647W        W13638  11.369  31.399  28.881  0.3471  0.0319 -0.1916
70648W        W13639  21.873  14.372   5.245 -0.3990  0.0229  0.1066
70649W        W13640   3.324   1.427  21.055 -0.0406 -0.4289 -0.2864
70650W        W13641  34.297  11.780  24.360 -0.2300 -0.0623  0.0193
70651W        W13642  32.986  12.041   4.816 -0.1653  0.1756 -0.1846
70652W        W13643   7.776  16.983   8.184  0.0205  0.3486 -0.0005
70653W        W13644  28.395  24.864   3.083 -0.1441 -0.1516 -0.4134
70654W        W13645  10.717  16.279   7.241 -0.1167  0.4233  0.1022
70655W        W13646   3.081  15.077  10.698  0.2377 -0.0742  0.0649
70656W        W13647   8.457   8.912  16.175  0.5452  0.1924  0.1438
70657W        W13648   5.116  10.176  16.402 -0.1323 -0.2453  0.3787
70658W        W13649  23.865  26.290  22.283  0.0287 -0.1568  0.3200
70659W        W13650  13.215  16.267  26.038  0.0772 -0.1983 -0.0484
70660W        W13651  13.411  20.470   2.451 -0.1159 -0.0609  0.0119
70661W        W13652   3.988  20.596  23.383  0.0434  0.0445  0.0148
70662W        W13653  18.613  34.565   9.468  0.2721 -0.0891 -0.0570
70663W        W13654  29.151  16.701  18.327 -0.4265  0.2759  0.1990
70664W        W13655  12.263  15.648   3.721 -0.4120 -0.1416  0.2899
70665W        W13656   6.793  19.959   7.330  0.1926  0.0073  0.3271
70666W        W13657  19.465  15.586  25.627 -0.1382  0.2051  0.0778
70667W        W13658  20.929  23.254  21.862  0.2886 -0.2061  0.1388
70668W        W13659  11.556   3.835   6.666  0.1587 -0.3037  0.2143
70669W        W13660   6.983   9.934   1.253  0.3705  0.0804 -0.1524
70670W        W13661  34.698  17.360  23.246  0.1453 -0.1446 -0.0634
70671W        W13662  17.778  21.965  14.859  0.1300  0.0643 -0.1745
70672W        W13663   5.431   9.034   9.805  0.1251  0.0194  0.0128
70673W        W13664   5.224   3.311   3.282  0.0212 -0.0712  0.0366
70674W        W13665   6.113   2.642  27.106  0.1294  0.1147 -0.2213
70675W        W13666   1.371   3.395  27.775  0.0021 -0.2947 -0.3379
70676W        W13667  28.947   7.885  15.030  0.0194  0.1478  0.0575
70677W        W13668  13.064  10.293  18.372  0.0875 -0.2733 -0.0845
70678W        W13669  15.814  30.717   6.283 -0.1776  0.1260 -0.2567
70679W        W13670   9.186   0.915   6.852 -0.1034  0.0313 -0.0569
70680W        W13671   9.627  29.745   8.453 -0.2958  0.1120  0.0579
70681W        W13672  26.555  23.270  27.644  0.0283  0.2889 -0.1909
70682W        W13673  19.227   8.179  21.732  0.1660 -0.0243 -0.0676
70683W        W13674  18.891  27.085  27.106 -0.0545 -0.1825  0.2088
70684W        W13675  26.744  16.002  23.293 -0.0050  0.0630 -0.1321
70685W        W13676  22.286   2.585  22.297  0.1144  0.0794 -0.0571
70686W        W13677  31.722  13.361  10.457 -0.1901  0.1614  0.1871
70687W        W13678  31.291  11.028   1.487  0.2421 -0.3327  0.0930
70688W        W13679  29.983  12.605   1.392  0.3003 -0.0976 -0.2189
70689W        W13680   6.340   9.961  17.572  0.3132  0.2743 -0.0682
70690W        W13681   7.416  19.917  23.534  0.0336  0.0608 -0.3201
70691W        W13682  25.583  22.554  25.578  0.1064  0.1887 -0.0836
70692W        W13683  23.523  16.643  27.062  0.0610 -0.3929 -0.0182
70693W        W13684   2.266   3.252   8.060 -0.0166 -0.0193 -0.2014
70694W        W13685   4.463  26.815  22.541 -0.2677  0.1495  0.1919
70695W        W13686  28.576  32.745  28.656  0.0044 -0.2720 -0.1424
70696W        W13687  19.461  20.400   5.362  0.0893  0.0633 -0.2852
70697W        W13688  32.543  12.340  19.927  0.3117 -0.0269 -0.1097
70698W        W13689   0.313  15.454   1.815 -0.2253 -0.2401  0.0067
70699W        W13690  29.415   5.429  29.160 -0.1058  0.0834 -0.3282
70700W        W13691   8.005  13.287   7.210  0.0546 -0.1071 -0.2961
70701W        W13692   8.851  34.640  23.282  0.2001 -0.1481  0.0761
70702W        W13693  31.518  13.286   4.219 -0.0011  0.1784  0.0979
70703W        W13694   8.464  14.531   9.860  0.1199  0.0827 -0.0102
70704W        W13695  25.007   1.968  28.029 -0.0846 -0.0655  0.0558
70705W        W13696   4.076  16.723  16.218  0.0125  0.0003 -0.0595
70706W        W13697   1.748  22.387   7.319 -0.3324  0.1903  0.3445
70707W        W13698  25.588   5.610  21.256 -0.0579  0.0495  0.0773
70708W        W13699  12.987   9.109  19.953 -0.0498  0.2773  0.2523
70709W        W13700  28.954   9.532   0.064 -0.1376  0.1092 -0.4004
70710W        W13701  14.177  24.087  16.460  0.1731 -0.0316 -0.2972
70711W        W13702  15.736  24.603  29.160 -0.0372 -0.2887 -0.0796
70712W        W13703  11.162  32.546  25.073  0.1245  0.0713  0.0981
70713W        W13704   7.274   9.447  25.306 -0.0156  0.1612 -0.1823
70714W        W13705  29.918  15.688  17.607  0.0224 -0.0375  0.3046
70715W        W13706   6.266  14.748   6.902  0.0430 -0.1495 -0.3073
70716W        W13707   5.146  19.624   8.612  0.2154 -0.2152 -0.0058
70717W        W13708   3.229  12.000   0.714 -0.1339 -0.4027  0.5605
70718W        W13709  21.668  13.724   8.663 -0.1143  0.0797  0.1208
70719W        W13710  24.821   5.528   1.674  0.0078 -0.2197 -0.2074
70720W        W13711  30.355  22.081  16.077  0.2214 -0.3188  0.0471
70721W        W13712   4.354   2.904   2.200 -0.5609 -0.0298  0.0105
70722W        W13713  10.053   0.766   9.651 -0.1021  0.3680 -0.3744
70723W        W13714  10.921  11.026  21.556  0.0014 -0.0153  0.3448
70724W        W13715   9.770  29.199  26.544 -0.1456  0.0840  0.1507
70725W        W13716  32.089  16.920   6.840 -0.1390  0.2724  0.1502
70726W        W13717   3.108  24.988   4.281  0.3623 -0.0079 -0.0091
70727W        W13718   2.816  27.220  24.025 -0.0389 -0.3436  0.3141
70728W        W13719  31.439   4.921   8.624 -0.3318  0.2543 -0.0954
70729W        W13720   9.193   9.716  28.479 -0.0097  0.3523  0.2131
70730W        W13721  25.591   7.605  27.288 -0.2999 -0.1261  0.3342
70731W        W13722  34.368   4.833   3.446  0.0632 -0.2328  0.1940
70732W        W13723  11.206  17.942  28.896  0.0369  0.0458 -0.2055
70733W        W13724  13.111  18.355  26.922 -0.0264  0.0236  0.1375
70734W        W13725  12.162   8.200  27.121 -0.1155  0.2728  0.0336
70735W        W13726  13.814  21.567   2.989 -0.2553  0.0642  0.2943
70736W        W13727  34.503  15.826  17.450 -0.2027  0.1002  0.2802
70737W        W13728  14.263  31.680   1.221 -0.0670  0.1233  0.0222
70738W        W13729   8.443  13.376  18.883 -0.1836  0.3280  0.0416
70739W        W13730  13.475  26.544   3.324 -0.1383 -0.2356  0.1307
70740W        W13731  29.407   9.481  17.309  0.3391  0.1671  0.0279
70741W        W13732  12.683  26.208  22.540 -0.1053 -0.1560  0.2688
70742W        W13733   5.966  24.458  20.613 -0.1955 -0.1961  0.0312
70743W        W13734   8.743   4.478  28.314 -0.1747 -0.3797  0.0083
70744W        W13735  23.821  20.830   5.566 -0.1887  0.2607 -0.2006
70745W        W13736  13.236   0.730   0.248  0.0456  0.0113  0.1737
70746W        W13737  16.329  17.807   3.779  0.2020  0.2324 -0.0120
70747W        W13738   8.160  25.372   2.316  0.1696 -0.0069  0.2435
70748W        W13739  23.462  16.968  25.521 -0.3892 -0.2553  0.1439
70749W        W13740   3.334  26.238   7.113 -0.0119 -0.1636  0.2123
70750W        W13741   2.355  13.027   1.136 -0.2024  0.2462 -0.1126
70751W        W13742  30.606  16.444   6.879  0.0540 -0.2068  0.2781
70752W        W13743  34.391  25.533   5.994 -0.1948 -0.0493  0.1340
70753W        W13744   5.809  12.637  10.006  0.1763  0.3505  0.1124
70754W        W13745   6.137  26.307  20.246  0.0278  0.2410 -0.2288
70755W        W13746   6.534  24.143  21.853  0.1349  0.0058 -0.2573
70756W        W13747  24.710  14.260  23.244 -0.0550  0.1822  0.0280
70757W        W13748  25.139  18.071   9.972 -0.0961 -0.2007  0.1485
70758W        W13749  10.201   1.711  25.965  0.3538 -0.1443  0.0050
70759W        W13750  27.116  14.873   6.199  0.2490 -0.0860 -0.0140
70760W        W13751   2.743  12.236  10.772 -0.3189 -0.3006  0.1579
70761W        W13752  20.213  23.944  25.358 -0.1225  0.0231  0.1080
70762W        W13753  21.659  19.632   4.675 -0.2212 -0.3236  0.0302
70763W        W13754  18.486  13.851   9.001 -0.2084  0.1612 -0.2929
70764W        W13755  17.462  25.637   7.583 -0.3324 -0.0835 -0.2903
70765W        W13756   7.178  14.589  10.294  0.1804 -0.2419 -0.1069
70766W        W13757  32.225  13.129  26.034 -0.0541 -0.1286 -0.0114
70767W        W13758  33.767   0.913   2.903  0.1861 -0.0681  0.1403
70768W        W13759  11.271  26.066   9.024  0.1864  0.0303  0.0467
70769W        W13760   2.093  11.269  10.986  0.0988 -0.0436 -0.0473
70770W        W13761  32.625  28.792   2.827  0.3529 -0.2243  0.0380
70771W        W13762  11.352  27.735   6.207 -0.3343 -0.0327 -0.1549
70772W        W13763   2.103  26.022  25.202  0.1887 -0.0443  0.2661
70773W        W13764   1.411  16.898  22.390 -0.0098  0.2149 -0.1638
70774W        W13765  13.410  32.776   4.937 -0.0217  0.1824  0.1323
70775W        W13766   3.165  31.993   1.313  0.1624 -0.0463 -0.1152
70776W        W13767  20.691  19.283   5.309 -0.0529  0.0511 -0.3088
70777W        W13768   1.304  21.608   8.457 -0.2312  0.1387  0.3620
70778W        W13769  18.316  13.534  21.273  0.0870  0.0610 -0.0584
70779W        W13770   8.843  12.819   8.385 -0.0282  0.1010  0.2172
70780W        W13771  10.938   1.001  25.955 -0.1112 -0.0311  0.3675
70781W        W13772  19.732  13.106   6.992  0.0925 -0.5008 -0.1431
70782W        W13773  22.131   8.770   2.158 -0.0654  0.3776  0.3958
70783W        W13774  29.240  20.758   7.022  0.2312  0.0753  0.1772
70784W        W13775  16.003  18.326  26.786  0.0779 -0.0854  0.1427
70785W        W13776  34.446  34.435   7.999  0.0016 -0.1136 -0.0079
70786W        W13777   4.792  26.111   7.030  0.1531  0.0942  0.2188
70787W        W13778  14.899  18.912   5.360  0.2940  0.4103  0.1238
70788W        W13779  26.064   2.086   7.688  0.0451 -0.0727  0.1432
70789W        W13780  17.450  16.071  25.976 -0.3745 -0.4805 -0.0906
70790W        W13781  14.138  11.854   6.294 -0.0132 -0.0888  0.1160
70791W        W13782   4.406   2.789  24.439  0.0053  0.4109  0.2554
70792W        W13783  29.401  16.040   7.337  0.1778  0.2831  0.1255
70793W        W13784   2.768  13.882  20.031  0.3122 -0.1313  0.0282
70794W        W13785  11.503  25.179   5.320  0.0220  0.2545 -0.1080
70795W        W13786  24.122  23.684  26.990 -0.1297  0.2138  0.3322
70796W        W13787  10.460  11.407  22.761  0.2656 -0.2224  0.3823
70797W        W13788   5.246  12.308  10.593 -0.1396 -0.1089  0.1809
70798W        W13789   5.634  16.572   9.566 -0.1800  0.0858  0.0429
70799W        W13790  25.737  13.218  26.837 -0.3935  0.0972  0.2083
70800W        W13791  34.355   3.920  28.012  0.0105 -0.2865 -0.0706
70801W        W13792  28.293  14.422  27.834  0.2048 -0.0820  0.1145
70802W        W13793  31.658  26.673   4.971 -0.2042 -0.0222  0.1287
70803W        W13794  13.051  24.980  23.075  0.1680  0.4153 -0.4435
70804W        W13795  12.290   5.973   0.992  0.0365  0.2253  0.1499
70805W        W13796   5.095  17.415   8.619 -0.1783 -0.0382 -0.0053
70806W        W13797   3.844  13.580   9.830  0.3355 -0.1296 -0.0227
70807W        W13798  28.050  20.227   5.019 -0.2350 -0.0719  0.0111
70808W        W13799   8.825  24.487  28.460 -0.0537  0.3345 -0.1578
70809W        W13800  26.873   8.204   2.407  0.0937  0.1631  0.0850
70810W        W13801  15.017   1.342  23.871 -0.0984  0.1303  0.0599
70811W        W13802   5.675  19.029   1.483  0.3616 -0.0543  0.2612
70812W        W13803  19.563   8.569   8.474 -0.2230 -0.3378  0.1686
70813W        W13804   9.339  30.470   2.709  0.1298  0.0489  0.1300
70814W        W13805   0.758  21.673  29.185 -0.1011 -0.1144  0.2491
70815W        W13806  11.712  16.197   0.583  0.3310  0.1148  0.2776
70816W        W13807  13.086  11.518  29.062 -0.1335 -0.0680 -0.1870
70817W        W13808  20.536  29.784   0.771 -0.0085 -0.0209  0.0634
70818W        W13809  29.451  23.610  14.721 -0.0573  0.1573  0.0388
70819W        W13810  15.368  14.370   4.038 -0.0921  0.0357 -0.0317
70820W        W13811  34.003  13.928  24.555 -0.1670 -0.0358 -0.1622
70821W        W13812   3.418  23.925  22.904 -0.1461  0.0212 -0.1501
70822W        W13813   9.791   5.768  16.339 -0.2958  0.0285 -0.3715
70823W        W13814  26.489  10.615   5.340  0.1951 -0.1400 -0.0423
70824W        W13815   4.889   9.857   8.228 -0.0192  0.2582 -0.3677
70825W        W13816  31.783  17.949  25.654  0.1009  0.3621  0.0067
70826W        W13817   2.616  10.630   1.385 -0.0322  0.1170 -0.1152
70827W        W13818   3.062  19.796  16.828 -0.0902 -0.1776 -0.1342
70828W        W13819  15.816  21.519  23.488 -0.0028 -0.1525 -0.0126
70829W        W13820   7.582   2.372  28.074 -0.0821  0.0642 -0.1462
70830W        W13821  34.753  21.848   1.513 -0.2116 -0.0350 -0.1203
70831W        W13822   5.672   9.222   8.431  0.0030  0.1076 -0.1845
70832W        W13823  33.193  18.608  15.694 -0.1562 -0.2688  0.1904
70833W        W13824   5.540  20.521   6.100 -0.0098  0.1810 -0.0627
70834W        W13825  28.458  21.843   6.332  0.0637 -0.1306 -0.1168
70835W        W13826   9.970  13.826  11.243  0.1773  0.0368  0.4454
70836W        W13827  32.216  12.508   7.256  0.3726 -0.1855 -0.1644
70837W        W13828  33.181   5.421   7.111  0.0969  0.4750 -0.1811
70838W        W13829  13.594  13.190   7.989 -0.2519  0.1543  0.4695
70839W        W13830   5.223   0.557  11.325  0.1331  0.0652  0.0511
70840W        W13831  30.976  13.823   3.672 -0.0015 -0.0121  0.2106
70841W        W13832  16.073   6.906  18.152  0.2206  0.1189  0.0882
70842W        W13833  34.741   8.714  17.571 -0.0273 -0.2769 -0.1659
70843W        W13834  11.379   1.628   4.584 -0.1876 -0.0892  0.2250
70844W        W13835  19.223  11.069  23.814  0.3593 -0.1925  0.2224
70845W        W13836   7.345   7.160   1.443 -0.1472  0.0273  0.0115
70846W        W13837   4.399  10.275  25.832 -0.0609  0.0659  0.4321
70847W        W13838   0.902  11.625  29.046  0.3041  0.0714  0.0401
70848W        W13839   1.421  27.881  22.618  0.0628 -0.0556  0.3090
70849W        W13840  17.779  21.291  22.536 -0.0201 -0.1668 -0.2017
70850W        W13841  28.357   7.934   1.033  0.0280 -0.2536 -0.3353
70851W        W13842  17.991   7.032   6.821  0.0768  0.4481 -0.0276
70852W        W13843   0.125  23.906   3.797  0.3511 -0.2108  0.2173
70853W        W13844   8.226  17.027   1.767  0.2191 -0.3048  0.2955
70854W        W13845  33.986  16.563   7.165 -0.1404  0.1091  0.3342
70855W        W13846   4.113  23.299   4.444  0.1958  0.0166 -0.2988
70856W        W13847  10.532  14.874   8.228  0.3828 -0.1036 -0.1408
70857W        W13848   0.588  24.645  26.791  0.2634 -0.0906  0.0459
70858W        W13849   2.167   1.982   1.020 -0.0575  0.0869 -0.1608
70859W        W13850   1.582  33.591  28.340 -0.0599  0.4199  0.2274
70860W        W13851  10.153  22.502  28.778 -0.1240  0.0742 -0.1941
70861W        W13852  17.547  24.882   2.836 -0.2881  0.1400 -0.1288
70862W        W13853   8.653  22.059  20.324  0.1191  0.0841 -0.1730
70863W        W13854   3.640  21.194   7.844  0.0020  0.0246 -0.0330
70864W        W13855  14.314   8.216   5.173  0.0387  0.1583  0.0512
70865W        W13856  11.377  10.649   3.739 -0.2740 -0.0692 -0.1888
70866W        W13857   0.735   2.451  27.459 -0.0004 -0.0027  0.2385
70867W        W13858  13.535  14.441  27.612  0.0109 -0.0473  0.1473
70868W        W13859   4.748  28.676   0.772 -0.1849  0.2228 -0.0814
70869W        W13860   6.644   6.972  25.326  0.2901  0.0705 -0.1519
70870W        W13861  31.233   6.049  21.360  0.2113 -0.2446  0.1413
70871W        W13862   6.454  34.534   8.909  0.0884  0.0559  0.0812
70872W        W13863  19.554  27.941   8.641 -0.4017  0.2617  0.2134
70873W        W13864  25.271  23.002   2.486 -0.0384 -0.2585  0.2887
70874W        W13865   1.627  15.737   8.214  0.0275 -0.0370  0.2779
70875W        W13866  34.287   7.461  16.648  0.1708  0.2224 -0.0627
70876W        W13867  11.357  33.783   9.180 -0.0354 -0.2667 -0.0784
70877W        W13868  34.469  24.149  27.844 -0.1074  0.0174  0.2216
70878W        W13869  34.069  18.983  20.162  0.0579  0.3136 -0.0756
70879W        W13870  25.025  15.187   7.612 -0.0775 -0.0899 -0.2289
70880W        W13871  22.534  16.449  27.689  0.1453 -0.0382  0.0188
70881W        W13872  14.549  27.081  25.291 -0.0194 -0.0695  0.0336
70882W        W13873   0.736   9.220  23.729 -0.0664 -0.0877 -0.2666
70883W        W13874  34.084   6.391  23.678 -0.0277  0.2965 -0.1048
70884W        W13875  26.672   2.966   6.754 -0.0989 -0.4625 -0.2969
70885W        W13876  31.648  15.456  18.724  0.1034  0.5780  0.1631
70886W        W13877  29.147  21.614  26.314  0.1132  0.1143  0.1462
70887W        W13878   2.283  12.820  16.591 -0.0254 -0.1659  0.0599
70888W        W13879  31.199  12.682   5.684  0.1617 -0.1869  0.3877
70889W        W13880   8.109  17.204  29.222 -0.1200  0.1038  0.0702
70890W        W13881  10.147   8.614   5.145 -0.1224  0.3526  0.0685
70891W        W13882   1.879   1.809  27.611 -0.1192 -0.1421  0.4326
70892W        W13883   8.340  20.106  25.615 -0.2251  0.1691 -0.1149
70893W        W13884  32.153  31.880   1.021 -0.0097  0.1084  0.2029
70894W        W13885   8.385   8.375  22.136  0.1412 -0.0051 -0.2349
70895W        W13886   5.275   7.551  19.449 -0.0293  0.1777  0.0314
70896W        W13887  12.325   4.923   3.013 -0.1516 -0.2004  0.3535
70897W        W13888   0.219  27.335  22.545 -0.2148  0.2600 -0.3747
70898W        W13889  24.503  23.091   8.122  0.2522 -0.3036  0.1774
70899W        W13890  12.824  23.949  27.741 -0.1444 -0.0202 -0.3003
70900W        W13891   9.642  26.520  19.134 -0.0210  0.1959 -0.0779
70901W        W13892  11.117   9.447  27.309 -0.1455 -0.0918  0.0046
70902W        W13893   9.962   4.385   9.022  0.0077  0.1686  0.1774
70903W        W13894  26.715  14.228   4.355  0.0773  0.4504 -0.0542
70904W        W13895   1.268   9.636   8.049  0.1881  0.0768  0.0834
70905W        W13896   8.708  28.870  16.124  0.0402  0.2020 -0.0608
70906W        W13897  11.958  15.560  25.663 -0.0336  0.1085 -0.3216
70907W        W13898  19.559   3.752   3.487  0.0482  0.1725  0.0834
70908W        W13899  21.069  34.628  23.825  0.0192 -0.6075 -0.0635
70909W        W13900   2.192  28.305   5.296 -0.0373  0.0285 -0.3249
70910W        W13901  34.744   0.733  24.014  0.1899  0.3218  0.1811
70911W        W13902   2.942  23.381   2.366  0.1731  0.0427  0.0776
70912W        W13903  27.528   9.547  15.634 -0.1186  0.1901 -0.0273
70913W        W13904   7.779  16.831   6.106  0.0114 -0.0039  0.1159
70914W        W13905   4.089  16.640   9.827 -0.0205  0.0037  0.0315
70915W        W13906   5.525   4.793  26.420 -0.1667  0.1001 -0.0012
70916W        W13907   0.615  18.408  22.001 -0.3646  0.0814 -0.0481
70917W        W13908   3.256   5.371   6.126 -0.1556  0.2176 -0.1361
70918W        W13909   4.397  17.095   9.876  0.3476  0.1281 -0.1742
70919W        W13910  10.490  22.335  16.467 -0.0657  0.0031 -0.3073
70920W        W13911  16.852  30.295  25.542  0.2121  0.0718  0.2512
70921W        W13912  20.727  14.325   9.284  0.1560  0.3048 -0.2207
70922W        W13913   8.394  17.035   9.001 -0.1456 -0.0333 -0.2112
70923W        W13914  16.551  32.448   6.703 -0.0414 -0.3196 -0.1791
70924W        W13915  13.494  15.323  27.596  0.0409 -0.2413  0.2181
70925W        W13916  34.630  14.797  28.107  0.1993  0.3130 -0.0057
70926W        W13917  16.292  17.146  23.023  0.2371 -0.0856  0.0682
70927W        W13918  27.676  26.185   6.908 -0.1887 -0.1458  0.0559
70928W        W13919   0.353   8.605  20.757 -0.1436 -0.3021  0.1163
70929W        W13920  10.899  20.769   4.465 -0.1241 -0.0482  0.0766
70930W        W13921   6.797  26.665   5.543  0.0400  0.0330 -0.0709
70931W        W13922  34.570  12.332  26.263 -0.0511 -0.0114 -0.0216
70932W        W13923  33.783   4.826   8.861  0.1413  0.0029 -0.3646
70933W        W13924  31.333   4.060   2.658  0.1041 -0.0216  0.2438
70934W        W13925  12.368   7.119  16.152 -0.0897 -0.2536 -0.1581
70935W        W13926  25.231  24.916  26.206  0.0409  0.2023  0.1253
70936W        W13927  18.543  15.451   1.265  0.0036 -0.0826  0.2132
70937W        W13928  17.865   5.308  27.285 -0.1688  0.1984  0.1449
70938W        W13929  28.541  12.923  27.094  0.0019  0.5551 -0.1072
70939W        W13930   2.800  20.951   5.298  0.2258  0.0959  0.0127
70940W        W13931  11.904  29.771   8.786  0.2721 -0.2518  0.0465
70941W        W13932   2.498   6.401  10.714  0.1564  0.1153  0.0525
70942W        W13933  11.894  28.556   5.284 -0.3891 -0.1186 -0.2634
70943W        W13934   8.227  18.681   3.642  0.4057  0.1212 -0.2003
70944W        W13935  24.743  13.788  26.189  0.1775 -0.0340 -0.1502
70945W        W13936  23.933  15.006   5.742  0.4363  0.0856  0.0231
70946W        W13937  11.291  17.463   2.350 -0.3143 -0.0985  0.1240
70947W        W13938  10.915  20.875  21.329 -0.3550 -0.0757  0.2591
70948W        W13939  18.510  15.086  27.266  0.1300  0.0048  0.3342
70949W        W13940  31.104  28.363   4.995  0.5484 -0.1483 -0.2835
70950W        W13941  18.126   7.859  21.845 -0.0923 -0.4040 -0.0554
70951W        W13942   9.084  29.802   0.768 -0.0079 -0.1101 -0.2865
70952W        W13943  27.123   5.777   1.071 -0.1160  0.1837 -0.1170
70953W        W13944   2.968  18.598  11.115  0.2882 -0.1322 -0.2162
70954W        W13945  34.640  23.061   8.045  0.1080  0.0130 -0.1378
70955W        W13946   7.305  18.053  21.407  0.1071  0.0184 -0.2232
70956W        W13947  10.371  18.133   7.703 -0.1110 -0.1121 -0.1480
70957W        W13948  11.246  27.733   3.348  0.0899  0.1318  0.3593
70958W        W13949   6.589  17.043   0.415 -0.2184  0.0763 -0.0050
70959W        W13950  29.803  21.664  21.182  0.0410  0.1351 -0.2199
70960W        W13951  16.610  18.654   8.036  0.2078 -0.0281 -0.3979
70961W        W13952  14.735   9.120  19.166  0.1828  0.2612 -0.0044
70962W        W13953   0.020  24.899  23.494  0.1445  0.0281 -0.1619
70963W        W13954  31.810  24.445  27.956  0.0754 -0.0264  0.4193
70964W        W13955  11.188  20.579   8.147 -0.2846 -0.2020  0.1296
70965W        W13956  34.752  33.138   5.600 -0.0780 -0.0873  0.2361
70966W        W13957  29.422  17.444   1.802  0.0684  0.0688 -0.1498
70967W        W13958   5.890   6.880  24.386  0.1343  0.2113 -0.0622
70968W        W13959  34.162  28.619  15.625  0.0619 -0.1163  0.0012
70969W        W13960   8.349  10.343   3.234 -0.0657  0.1497  0.0574
70970W        W13961  28.847  19.174  25.806  0.0029 -0.0070 -0.2830
70971W        W13962   4.195   4.655   3.706 -0.2965 -0.2930 -0.1414
70972W        W13963   4.526  21.745  23.084 -0.2086  0.0309  0.3310
70973W        W13964  28.699  15.616  28.895 -0.1030 -0.3074 -0.3994
70974W        W13965  10.171  25.100  29.078 -0.0350 -0.2491  0.0537
70975W        W13966   2.912  26.942  28.082 -0.0694 -0.5395  0.1121
70976W        W13967  31.431  13.192  15.764  0.0177 -0.0731 -0.2013
70977W        W13968  11.572   4.245  16.612  0.0117  0.0565  0.0026
70978W        W13969  10.588  20.023  25.727 -0.1801 -0.1838  0.1056
70979W        W13970  11.454  14.714  27.121 -0.1795 -0.1150 -0.2453
70980W        W13971  27.167  26.882  25.545 -0.0440  0.0351  0.3306
70981W        W13972   1.132  17.011   2.920 -0.3474 -0.0049  0.0331
70982W        W13973   5.861  16.535   3.435 -0.2125  0.0736 -0.3153
70983W        W13974   7.893  14.397  26.208 -0.1381 -0.1479 -0.1767
70984W        W13975   4.388   0.208   3.826  0.0894 -0.2040 -0.4106
70985W        W13976  19.879  10.918  28.807 -0.1756  0.1473  0.0465
70986W        W13977   2.490  27.578   5.697  0.4466 -0.1804  0.0530
70987W        W13978   3.234  32.820   8.576  0.0775  0.1218 -0.0825
70988W        W13979  25.859  32.128  28.292  0.1702 -0.2535 -0.0222
70989W        W13980   5.981  30.412   4.491 -0.1706  0.1174 -0.0005
70990W        W13981   1.909  31.182   7.696 -0.4530  0.0263 -0.0299
70991W        W13982  17.748   5.234   2.228 -0.0898 -0.0550 -0.1595
70992W        W13983  14.490  21.175  20.646  0.0757  0.0274 -0.0547
70993W        W13984  18.653  12.451   6.323 -0.0157 -0.1854  0.0094
70994W        W13985   4.459   5.849  22.487  0.0471 -0.0602  0.4090
70995W        W13986  20.530  14.117  28.044 -0.1472 -0.4290 -0.0062
70996W        W13987  15.603  21.020  17.338 -0.2986  0.2561  0.0683
70997W        W13988  33.590  16.350   8.469  0.0191 -0.2141  0.0990
70998W        W13989   8.880  22.073   2.993 -0.0726  0.0366  0.0166
70999W        W13990  32.518   9.257   9.959 -0.2994 -0.0857 -0.1481
71000W        W13991  22.116   8.327  18.843 -0.0209 -0.1036  0.2591
71001W        W13992   0.878  12.984  17.746 -0.1473 -0.3888 -0.1186
71002W        W13993   0.352  16.401  10.880 -0.2215  0.0745 -0.2321
71003W        W13994   1.745  15.278   7.908  0.1852 -0.1965 -0.0626
71004W        W13995  16.682  19.623  28.491  0.0121 -0.0148  0.1413
71005W        W13996   1.712   3.546   4.401 -0.0515  0.0211 -0.0060
71006W        W13997  13.528  10.754  26.143 -0.3776 -0.1063 -0.0317
71007W        W13998  15.633  20.102   5.237  0.0606 -0.1303 -0.2526
71008W        W13999  31.610  13.710   9.143  0.0241 -0.2871  0.0745
71009W        W14000   2.357   0.327   7.663 -0.1216  0.0934  0.1886
71010W        W14001  10.908  31.772  10.341  0.0782 -0.2528 -0.0750
71011W        W14002   1.197   0.602   7.280 -0.1491  0.1718 -0.1468
71012W        W14003  14.842  28.046   9.772  0.0905  0.1133 -0.1021
71013W        W14004  18.669  18.685  25.251  0.1548 -0.5926 -0.0174
71014W        W14005   7.837  13.172   9.300  0.4210 -0.4473  0.1377
71015W        W14006   0.035   5.289   9.726  0.1526  0.0727  0.1147
71016W        W14007  10.353   9.826  20.346  0.0538 -0.3188  0.1261
71017W        W14008   1.878  24.913   7.411 -0.1498  0.1078  0.0927
71018W        W14009   3.683  27.419   8.533 -0.1204 -0.4150 -0.2109
71019W        W14010   4.008  21.499   7.972 -0.0469  0.2304  0.0931
71020W        W14011  10.782  21.865   3.550  0.0700  0.1194  0.0303
71021W        W14012  33.663  26.644   4.495  0.0590 -0.0617  0.0243
71022W        W14013  21.781  22.279  13.106  0.1054 -0.0635 -0.2148
71023W        W14014   8.150  30.559   5.140  0.1840  0.0438 -0.1652
71024W        W14015   7.001  27.715  22.348  0.1713  0.0189  0.1230
71025W        W14016   6.915  15.360   7.928 -0.2805 -0.1128 -0.3622
71026W        W14017   8.665  15.283  28.827 -0.0662  0.3054 -0.0776
71027W        W14018  34.312  17.815   5.624  0.1331 -0.0858  0.0389
71028W        W14019  30.728  13.945   2.886 -0.2194  0.0537  0.2249
71029W        W14020  12.673  22.687  21.479 -0.0610  0.0817  0.0041
71030W        W14021   1.829  18.364   0.890 -0.4839  0.0458 -0.1011
71031W        W14022   7.639  22.380  28.707 -0.0778 -0.1317 -0.1433
71032W        W14023   6.071  19.669   8.085 -0.1347  0.2610 -0.3314
71033W        W14024  19.287  28.874   8.127  0.3776 -0.2206 -0.0101
71034W        W14025  28.396  14.691   1.935 -0.1943 -0.0131  0.0417
71035W        W14026   7.714  27.669   9.530 -0.0036 -0.0435 -0.1000
71036W        W14027   4.289  17.075   8.737 -0.0614 -0.0872 -0.1030
71037W        W14028   4.539   1.274   8.267  0.2003 -0.0678  0.1536
71038W        W14029  33.982  19.843   2.851  0.0789  0.2183 -0.0260
71039W        W14030   2.841  27.430   8.635 -0.0192  0.0235 -0.3016
71040W        W14031   6.704  20.019   0.771  0.0428 -0.0919  0.1458
71041W        W14032   1.546  23.604   7.348  0.2166  0.1016 -0.0805
71042W        W14033   3.053  21.249   7.100  0.0414 -0.1268  0.0502
71043W        W14034  10.902   8.223   3.165 -0.0976 -0.1140 -0.0115
71044W        W14035  20.682  15.087   0.695  0.4417 -0.4778 -0.3004
71045W        W14036   3.217  17.067   4.260  0.5458  0.0386 -0.1504
71046W        W14037   4.649   1.812   8.016 -0.0185  0.1340 -0.1709
71047W        W14038  13.104  32.622  21.951  0.1794  0.0880 -0.0417
71048W        W14039  30.807  11.588   8.769 -0.2094 -0.0099 -0.1079
71049W        W14040   8.686  22.001   1.080 -0.2415 -0.1994  0.1679
71050W        W14041  19.832  10.353   4.125  0.1470 -0.0296  0.1701
71051W        W14042  20.499   4.573   6.691 -0.2330  0.0062  0.2355
71052W        W14043  21.728   4.125   7.786  0.4047  0.1406  0.4596
71053W        W14044   9.816  24.268  25.708 -0.0183  0.2283  0.2502
71054W        W14045   3.678  21.488   9.860  0.1291  0.1369 -0.1280
71055W        W14046  34.082   6.124   6.408 -0.0032  0.2369 -0.1876
71056W        W14047   2.147   9.817  27.883  0.1310  0.1452 -0.0682
71057W        W14048  27.447  15.413   9.818  0.2370 -0.1024 -0.1430
71058W        W14049  15.826  12.325   8.509  0.2067  0.4142 -0.4076
71059W        W14050  23.471   4.489  23.553  0.0149 -0.0985  0.0411
71060W        W14051   9.709  12.612  25.069  0.1450 -0.5571  0.0430
71061W        W14052  14.236  15.946  21.980  0.0986  0.0698  0.0575
71062W        W14053   6.879   8.729   8.474 -0.1909  0.0563 -0.0546
71063W        W14054  20.242   0.776   6.770  0.0628 -0.0936 -0.0795
71064W        W14055   0.450   3.474  10.644 -0.0008  0.2934  0.1459
71065W        W14056   5.956  28.958   7.860 -0.2352 -0.0985 -0.2721
71066W        W14057  33.562   9.202   1.098 -0.2712  0.0767  0.2623
71067W        W14058   3.518  12.809   6.912  0.0989  0.2186 -0.3156
71068W        W14059  31.809  20.013   1.525  0.0162 -0.2172 -0.0383
71069W        W14060   1.547  12.560   4.990  0.1016 -0.0515  0.4128
71070W        W14061  12.914  12.482   5.349  0.4018  0.1007 -0.0206
71071W        W14062  28.913  10.899   8.887  0.2164  0.2239  0.1792
71072W        W14063   3.509   6.994  12.306 -0.2227  0.0299  0.1763
71073W        W14064  25.413   2.034   4.273 -0.2647 -0.0512 -0.0714
71074W        W14065  30.498   8.465   4.660 -0.0914 -0.1197 -0.0622
71075W        W14066   6.081   2.944   6.156  0.2606  0.0057  0.1315
71076W        W14067  23.547  16.186   2.754 -0.0331 -0.1229 -0.0203
71077W        W14068   3.479  26.136   7.623  0.0908 -0.0059  0.0443
71078W        W14069  10.635   2.456  27.586 -0.0537 -0.1237 -0.1205
71079W        W14070  21.406  10.178  26.452 -0.1198  0.2428  0.0619
71080W        W14071  29.118   4.020  15.274 -0.0232 -0.3402  0.0558
71081W        W14072  14.999  30.981   3.798  0.0526 -0.3986 -0.0411
71082W        W14073   6.355  26.981  28.075 -0.1249  0.1638 -0.3099
71083W        W14074  24.115  17.831  16.727  0.0004  0.0510 -0.0423
71084W        W14075  15.205  29.019  29.101 -0.1642  0.1127 -0.1862
71085W        W14076  25.185  14.321  18.508  0.1852  0.0206 -0.1800
71086W        W14077   9.217  19.360   7.730 -0.0765  0.0077  0.0884
71087W        W14078   4.375  33.929  28.354  0.0399  0.2594 -0.2316
71088W        W14079  25.474  19.193   1.338  0.1601  0.1333  0.1192
71089W        W14080   0.916  10.039  16.070  0.0776 -0.1302  0.2864
71090W        W14081  29.249  22.038   7.167 -0.3063 -0.2659 -0.2181
71091W        W14082   9.558   0.702   3.555 -0.1028 -0.0610  0.1798
71092W        W14083   3.089  15.713   4.786  0.0627 -0.0250  0.0350
71093W        W14084  10.100  10.738   8.845 -0.0694 -0.1038 -0.2550
71094W        W14085  25.702   6.741   5.827 -0.3542 -0.2552  0.2210
71095W        W14086   1.577  13.567  11.047 -0.0654 -0.3062 -0.1533
71096W        W14087  30.678  20.813   0.146 -0.0161 -0.0011  0.1245
71097W        W14088   8.109  12.969   4.815 -0.0702  0.2988 -0.0584
71098W        W14089   6.808  15.324   8.674  0.1214 -0.0035 -0.0009
71099W        W14090  13.789  18.334   2.013 -0.0688 -0.0001  0.0034
71100W        W14091   3.634  17.708   2.020 -0.2350  0.1804 -0.0853
71101W        W14092   2.426   9.806  17.339  0.0412 -0.0409  0.3381
71102W        W14093  15.303  30.123   9.777  0.1698 -0.1972  0.0513
71103W        W14094  16.312  17.114   8.038  0.0559 -0.0780  0.1171
71104W        W14095   1.999  25.846  25.983  0.1233  0.2237 -0.0993
71105W        W14096   7.470   3.323   5.714  0.0183  0.3281  0.1366
71106W        W14097  17.504  34.058   8.966  0.5619  0.0912 -0.0162
71107W        W14098  13.005  29.767   4.058  0.2258  0.0677 -0.3210
71108W        W14099  16.715  20.321   1.586  0.0420 -0.0361  0.4067
71109W        W14100  30.107   6.942   0.736  0.1243 -0.2376  0.0166
71110W        W14101   0.366  23.587   5.239  0.1204 -0.1809 -0.0399
71111W        W14102  34.638  21.619   4.148 -0.0875 -0.0806 -0.0769
71112W        W14103  30.944   6.463   8.639 -0.0550 -0.2317  0.1887
71113W        W14104   1.672  15.443   1.756  0.1577 -0.1019 -0.1950
71114W        W14105   1.158  14.329  19.760 -0.2704 -0.3182  0.0931
71115W        W14106  22.443   2.044  23.001 -0.1490  0.4592  0.1790
71116W        W14107  21.523  22.694  17.091  0.0034  0.1701  0.1847
71117W        W14108  17.660  14.846   3.262 -0.0657 -0.0346  0.3754
71118W        W14109  12.968  20.628   2.700 -0.1809  0.2053  0.2162
71119W        W14110  15.151  20.780  24.007  0.1107  0.1537  0.1502
71120W        W14111  15.342   3.154   8.254  0.1672 -0.0609  0.0092
71121W        W14112  33.612   4.696   5.529  0.0467 -0.2363 -0.1048
71122W        W14113  21.101   4.434  22.478  0.2999 -0.0639  0.2513
71123W        W14114   4.197  34.245  28.065  0.3005 -0.2782 -0.3378
71124W        W14115  14.793   1.272   5.309  0.0947  0.0186  0.2850
71125W        W14116  21.490  24.516  24.648  0.1622 -0.0647 -0.1793
71126W        W14117  33.555  14.693   5.303 -0.0904 -0.1591  0.0107
71127W        W14118   7.959  14.471  20.744 -0.0313  0.4554 -0.1441
71128W        W14119  13.918  33.181  24.052 -0.1896  0.0707  0.1298
71129W        W14120  15.795  33.514   5.201 -0.2795  0.2150  0.2763
71130W        W14121   4.801   6.717   5.572  0.0899 -0.1588 -0.0434
71131W        W14122  20.545   2.559   2.737  0.1258 -0.3128  0.0715
71132W        W14123   4.742  18.171   1.236 -0.0353  0.3248  0.2550
71133W        W14124  10.857  15.350   1.975  0.0579  0.0526 -0.4563
71134W        W14125   6.059   7.953  27.781 -0.1007  0.1904  0.1845
71135W        W14126   7.991  18.061  24.990  0.0340 -0.2217  0.2104
71136W        W14127   6.842  20.792   9.712 -0.1416  0.3384  0.0061
71137W        W14128  27.561  34.666  18.728 -0.1744  0.2215  0.1079
71138W        W14129   1.426  31.093   6.677 -0.2302 -0.0148 -0.3754
71139W        W14130  11.434  25.801  17.984  0.0721  0.2372  0.1330
71140W        W14131  29.470  15.483   1.207 -0.0561 -0.2447  0.0135
71141W        W14132  11.573  18.798   7.152  0.0251 -0.1325  0.0948
71142W        W14133   1.308  11.696   0.155 -0.1812  0.0000 -0.0147
71143W        W14134  24.795  15.370   8.661  0.2827  0.0601 -0.0530
71144W        W14135   5.502  17.697   1.246  0.0728  0.2171  0.0086
71145W        W14136   6.558  15.317   5.205 -0.0783  0.0301  0.0588
71146W        W14137  31.905  12.127   9.857 -0.4812 -0.1076 -0.1541
71147W        W14138   9.936  11.964  11.185  0.0282  0.3380  0.0964
71148W        W14139  34.744  15.505  24.172 -0.1257 -0.3018  0.1979
71149W        W14140  10.757  16.529  24.915 -0.1093 -0.2051 -0.2346
71150W        W14141   8.462  31.968  10.144  0.2920 -0.0742  0.1418
71151W        W14142   1.892  10.612  23.741  0.0144  0.0126 -0.0087
71152W        W14143  19.067  33.629   9.319 -0.0749  0.0010 -0.1416
71153W        W14144   1.696   2.786   1.235  0.0251  0.1546  0.0106
71154W        W14145  16.891  10.613  18.187  0.2127  0.1129 -0.2922
71155W        W14146   5.399  18.170   7.927  0.0905 -0.1001 -0.2281
71156W        W14147  21.655  19.568  22.785 -0.3428  0.0099  0.1526
71157W        W14148   6.823  16.275  11.302  0.2643  0.2042 -0.0990
71158W        W14149  32.215  20.296   6.319  0.0183 -0.1555 -0.1440
71159W        W14150   9.445  10.106   5.599  0.1002  0.1670  0.1149
71160W        W14151   7.785  17.294   7.773 -0.3228 -0.1992  0.0849
71161W        W14152  11.029   1.661   6.676 -0.0206 -0.0709  0.0717
71162W        W14153   9.540  25.957   5.191  0.1514 -0.2957  0.0378
71163W        W14154   4.669  26.903  29.065  0.0802 -0.3360  0.2914
71164W        W14155  11.552   9.916  25.516 -0.1263 -0.2627  0.1462
71165W        W14156   0.011  13.432   1.404  0.2779 -0.1422  0.1549
71166W        W14157   1.098  11.374  22.458 -0.0531  0.0378 -0.0038
71167W        W14158  22.180  21.777   0.254 -0.1179  0.2327  0.1870
71168W        W14159   1.279  13.420  22.897  0.0603  0.2789  0.3107
71169W        W14160  11.741  27.332   8.708  0.0940 -0.1215  0.0306
71170W        W14161   1.711   5.120  21.102 -0.0261  0.2182 -0.0769
71171W        W14162  11.037  25.248   4.513  0.1258 -0.1960  0.0030
71172W        W14163  26.711   5.876   6.559 -0.1474 -0.0552 -0.3701
71173W        W14164   6.730  13.087  19.620 -0.3572  0.7207  0.0634
71174W        W14165  31.317  24.145   6.263  0.0485  0.0825 -0.0519
71175W        W14166   1.332  23.913   1.601 -0.0017 -0.1036  0.0596
71176W        W14167   7.049  20.706   7.519 -0.1182  0.1721 -0.0898
71177W        W14168   7.013  25.519   9.872  0.0923  0.1163  0.1748
71178W        W14169  22.955  20.472   7.825 -0.1064  0.0048  0.0205
71179W        W14170  32.484  14.476  17.262 -0.0032 -0.0901  0.1603
71180W        W14171   8.670  23.221  23.904 -0.1871 -0.2664  0.3449
71181W        W14172  24.293  27.929  28.064 -0.2551  0.2968  0.0618
71182W        W14173  16.446   2.565   9.362  0.1107 -0.2289  0.2154
71183W        W14174   6.069  21.162   9.159  0.0160  0.3034  0.2549
71184W        W14175  28.339  20.384   9.213 -0.0507  0.1416 -0.0895
71185W        W14176   5.796  24.660  22.924  0.0017 -0.0889 -0.1489
71186W        W14177  10.132  34.567  25.527 -0.3554 -0.0458 -0.0728
71187W        W14178   6.853  14.392  22.209  0.1172 -0.0718 -0.0514
71188W        W14179  11.356  22.130   7.025  0.2969  0.1817  0.2014
71189W        W14180  23.112  14.015  23.543  0.0419 -0.2792  0.2952
71190W        W14181  32.224  16.055   5.329  0.0457 -0.2481  0.2309
71191W        W14182  12.035  23.793   1.963 -0.2190 -0.0847 -0.0717
71192W        W14183   7.626  24.929  25.732 -0.0111 -0.1511 -0.1482
71193W        W14184   2.254   9.296   2.228  0.1448 -0.0756  0.1314
71194W        W14185   6.730  32.370   5.221 -0.0826 -0.0637 -0.0798
71195W        W14186  16.478  19.881   1.469  0.0583  0.2726  0.0499
71196W        W14187  29.610  15.158   7.710  0.2690  0.3775  0.1721
71197W        W14188   9.698  15.469   1.640  0.1315 -0.1271 -0.0488
71198W        W14189  33.941  11.151  10.245  0.1753  0.0073  0.1116
71199W        W14190  30.537  14.940   4.292  0.1648  0.2208  0.0815
71200W        W14191   4.428  32.184   6.046  0.0251 -0.3921  0.1213
71201W        W14192  13.142   9.129   2.425  0.0148 -0.0243  0.1872
71202W        W14193   9.005  10.501  11.083 -0.0387  0.1256 -0.2035
71203W        W14194  20.101  22.235  16.677 -0.4483  0.0252 -0.0050
71204W        W14195  28.076  21.588  15.275 -0.1258  0.0439 -0.1036
71205W        W14196  12.283  12.152   3.632 -0.1682 -0.2108 -0.4937
71206W        W14197  15.037   6.509  23.649  0.0004  0.2700 -0.0112
71207W        W14198  14.351   6.730  23.184  0.1858 -0.0200 -0.0609
71208W        W14199   4.760  16.659  10.684  0.0299 -0.1115 -0.0841
71209W        W14200  19.257   8.121   4.296 -0.0280 -0.1282  0.0498
71210W        W14201  14.571   7.555   3.519  0.3333 -0.0176 -0.5220
71211W        W14202   6.584  22.002   4.762  0.2620 -0.0001 -0.0814
71212W        W14203   8.626  17.741  26.836 -0.0091  0.1654 -0.1656
71213W        W14204  26.347   7.832   3.639 -0.1904 -0.0146  0.0338
71214W        W14205  15.860   2.437   9.983 -0.0625  0.0846 -0.4477
71215W        W14206  19.045  27.262  25.142  0.0234  0.1143  0.2187
71216W        W14207   6.483  13.597   5.669  0.0513  0.1989  0.2906
71217W        W14208  12.671  16.753   1.275  0.0389  0.4442 -0.2775
71218W        W14209  14.144  24.571   9.705  0.1937 -0.3772  0.0529
71219W        W14210  21.322  17.060   5.834  0.4219 -0.0236 -0.2166
71220W        W14211  17.017  29.261   8.264  0.4050  0.2362  0.0407
71221W        W14212   0.215  16.241   1.455  0.0226 -0.1282 -0.2013
71222W        W14213  15.108   1.438   7.217 -0.1101 -0.1572  0.1057
71223W        W14214  13.850  21.413   0.282 -0.2650 -0.2038  0.0464
71224W        W14215  31.339  24.607  28.099 -0.1068  0.2291 -0.1283
71225W        W14216   0.561  30.502   6.111 -0.0525  0.0831  0.0552
71226W        W14217  23.038  18.810   0.946 -0.1317  0.0136 -0.0734
71227W        W14218   2.640  26.724  25.529  0.0578 -0.0217  0.1228
71228W        W14219  30.942   3.516  25.502  0.0571  0.1817  0.3496
71229W        W14220  13.597  31.681   4.627  0.2197  0.0678 -0.3969
71230W        W14221  29.750  17.164   2.117  0.1993  0.2639 -0.2483
71231W        W14222  14.223  14.681   5.345  0.1985  0.0540  0.0399
71232W        W14223  23.245  13.003   5.532  0.0944 -0.1373  0.0889
71233W        W14224  29.311   5.862   6.269 -0.2054  0.0397 -0.0528
71234W        W14225  27.033   2.000   5.351  0.0804 -0.0451 -0.2291
71235W        W14226   7.944  21.915   3.264  0.1094  0.1402  0.1000
71236W        W14227   1.918   1.930   9.259 -0.0318 -0.0889  0.0854
71237W        W14228   4.661  22.852  20.667 -0.0693  0.1600 -0.0657
71238W        W14229   2.064  31.790   6.874  0.1750 -0.0342 -0.1926
71239W        W14230   7.261  13.319  27.610 -0.0848 -0.1736  0.1221
71240W        W14231   6.239  15.146  17.643 -0.0889 -0.0364 -0.0527
71241W        W14232   4.692  15.921   7.304 -0.1619  0.2420 -0.0203
71242W        W14233   6.684  15.353  21.223  0.2474  0.0267 -0.0073
71243W        W14234  29.683   8.658   8.518  0.1951  0.2013  0.1335
71244W        W14235  27.835  20.843   4.240  0.0977 -0.3846  0.4039
71245W        W14236   0.492   8.723   8.273  0.0977  0.0073 -0.0928
71246W        W14237   1.287  24.148   6.441 -0.1981  0.0505  0.0855
71247W        W14238   2.972  13.326  29.203  0.2432  0.2923  0.0537
71248W        W14239   5.408  15.988  26.684 -0.1574  0.0891  0.2317
71249W        W14240  13.012  12.849   7.041 -0.1051 -0.1564 -0.1015
71250W        W14241   2.348  13.290  20.064 -0.1891  0.2597  0.0650
71251W        W14242  20.045  12.781  20.292  0.0687 -0.1294 -0.2212
71252W        W14243   6.458  27.801  25.613  0.1718 -0.0175 -0.2031
71253W        W14244   2.663  22.759   6.320  0.3194  0.0715 -0.1160
71254W        W14245   9.943  29.983   3.199  0.1669  0.2962 -0.2257
71255W        W14246  28.305  20.678   4.902 -0.1012  0.1900 -0.0612
71256W        W14247  19.647  32.962  27.838  0.0857  0.0171 -0.1154
71257W        W14248   3.069  20.035   2.749  0.4668 -0.0807 -0.0858
71258W        W14249  18.828  15.532   6.090  0.1012 -0.0697  0.3948
71259W        W14250   3.569  11.209  17.635  0.1821  0.1942  0.1479
71260W        W14251  16.692   7.445   8.897 -0.0780  0.4749 -0.0122
71261W        W14252  29.307  14.285   9.178  0.3181  0.0723 -0.2862
71262W        W14253  10.890   0.479   6.892  0.3299  0.0674 -0.0551
71263W        W14254  11.729  14.023  19.868  0.2396  0.1212 -0.3290
71264W        W14255  34.490   8.586  18.904  0.1300  0.0029  0.1544
71265W        W14256  13.630  13.091  24.812 -0.0610  0.0311  0.1442
71266W        W14257   9.530   3.258   6.884  0.1370 -0.0879  0.2327
71267W        W14258  22.761  23.836  26.277 -0.0266 -0.1555 -0.1671
71268W        W14259  22.844   8.368   9.572 -0.3119 -0.1340  0.1314
71269W        W14260   5.766   8.264  11.291  0.1239  0.0459 -0.0143
71270W        W14261   5.162   7.352   3.928 -0.2582 -0.0728  0.1777
71271W        W14262   6.693  29.614   6.588 -0.2754  0.2957  0.3606
71272W        W14263  24.899  18.677   8.870 -0.2608  0.2246 -0.1667
71273W        W14264   9.469  10.336   9.898 -0.2054  0.3461 -0.2836
71274W        W14265  32.278  19.822  10.018 -0.1989  0.0040  0.0704
71275W        W14266  18.657  21.815  26.669 -0.0355  0.0117 -0.5553
71276W        W14267  32.566   8.739   0.339 -0.1775 -0.1238  0.0131
71277W        W14268   9.506  15.959  10.638 -0.0677 -0.2368 -0.2465
71278W        W14269  34.251  12.866   0.844  0.3420 -0.0130 -0.0493
71279W        W14270  12.473  13.455  27.991  0.0184 -0.0992 -0.3108
71280W        W14271  16.697  11.618   2.676  0.4296 -0.3445  0.1602
71281W        W14272  24.262  16.335  17.104 -0.0044 -0.1042 -0.4205
71282W        W14273   4.397  14.754  10.071 -0.1236 -0.1773  0.0844
71283W        W14274   3.306  10.717  29.083  0.3218  0.1697  0.0917
71284W        W14275   7.340  30.165   5.431 -0.1064 -0.0449  0.1780
71285W        W14276   7.585   3.799   5.934  0.2959  0.1339 -0.1006
71286W        W14277  33.264   3.481  28.292 -0.0308 -0.0100  0.0089
71287W        W14278   2.042   7.844  22.192 -0.0488  0.0291 -0.1401
71288W        W14279  13.667   7.725  11.013  0.1143 -0.0467 -0.0173
71289W        W14280   8.294  22.786   9.137 -0.1394 -0.2677 -0.2033
71290W        W14281   5.432  19.701   6.385 -0.2580  0.0514 -0.0424
71291W        W14282   6.276  20.958   4.037 -0.2239 -0.0084 -0.1474
71292W        W14283  12.946  21.886   3.418  0.4129  0.1555  0.1255
71293W        W14284   8.715  25.667   1.855 -0.1084 -0.2686 -0.1751
71294W        W14285  16.823  30.764   7.612 -0.0590  0.1027  0.3569
71295W        W14286   0.089   4.327   5.151 -0.0276 -0.1527 -0.0441
71296W        W14287  34.240  25.481   1.204 -0.1159  0.2258  0.1522
71297W        W14288  24.071  13.326   4.551 -0.1962 -0.0969 -0.1348
71298W        W14289  31.791  16.006  17.336 -0.0116 -0.0940 -0.2080
71299W        W14290   8.884   6.219  18.756 -0.1380  0.1485 -0.1562
71300W        W14291   7.617  19.128   8.097  0.2052  0.2490  0.2250
71301W        W14292   8.443  17.706   7.255  0.2213  0.5954 -0.1565
71302W        W14293   7.924  11.222  10.364 -0.1788  0.0599 -0.1952
71303W        W14294  14.245   6.236   3.576 -0.1314 -0.0416 -0.1671
71304W        W14295  14.591  27.344  20.701  0.0865 -0.1571  0.1562
71305W        W14296   7.811  12.166   9.305  0.2531  0.0963  0.0453
71306W        W14297   2.677  19.799  25.395  0.4001  0.4315 -0.0852
71307W        W14298  23.177   8.670  23.849  0.2661  0.0265 -0.2070
71308W        W14299  20.557  19.337   0.659 -0.1540 -0.2281  0.0094
71309W        W14300   8.022  34.584   4.821  0.1217  0.1113 -0.0794
71310W        W14301  29.637  33.192   8.146  0.0422  0.1425  0.1803
71311W        W14302   2.094  11.628  25.789 -0.0259  0.1500 -0.3154
71312W        W14303  30.434  25.046   9.478  0.0425  0.0756 -0.5698
71313W        W14304   3.828  16.712   2.303 -0.0231 -0.4032 -0.3662
71314W        W14305  19.145  17.727   1.756  0.0269 -0.1288  0.2477
71315W        W14306   9.555  22.426   7.763  0.1207  0.1322 -0.0367
71316W        W14307   4.343   7.914  12.073  0.1163 -0.1963  0.1299
71317W        W14308  24.350  14.099   6.988 -0.0831 -0.0091  0.0742
71318W        W14309   1.662  18.566   3.337 -0.1640 -0.3281 -0.4286
71319W        W14310   5.594  20.059   7.667  0.1082  0.1601 -0.2799
71320W        W14311   4.338  17.705  28.127  0.2670  0.0015  0.0978
71321W        W14312  15.767  19.933  20.740 -0.0369  0.1575  0.1965
71322W        W14313  19.994  20.012  26.481  0.0569  0.0083 -0.0880
71323W        W14314   3.128  26.766   6.552 -0.0422  0.2157 -0.2419
71324W        W14315   8.058   1.648  10.464  0.1110  0.2292  0.1512
71325W        W14316   9.867  19.783   7.670 -0.1508  0.0390 -0.3249
71326W        W14317   6.665  17.704   4.865 -0.0964  0.3264  0.0616
71327W        W14318  10.993  24.991  18.725  0.0181  0.0490  0.0528
71328W        W14319   7.795  11.472  25.761 -0.2531  0.1543 -0.0673
71329W        W14320  32.530   4.159   6.157  0.0850  0.2832 -0.1435
71330W        W14321  31.873  13.379  27.503 -0.1153 -0.2418 -0.1268
71331W        W14322  15.819  11.333   0.688 -0.2080 -0.2323 -0.0644
71332W        W14323   8.161   6.681   1.787  0.3568 -0.2396  0.1660
71333W        W14324   9.750  21.715   7.203 -0.0487  0.5466  0.0153
71334W        W14325  32.586   6.177   3.330 -0.0754 -0.2323  0.4391
71335W        W14326  25.730  16.335  15.006 -0.0091 -0.3199 -0.0754
71336W        W14327  30.532   8.569  24.251 -0.0498 -0.0218  0.3886
71337W        W14328  13.426  11.256   8.739  0.5076  0.2147 -0.4995
71338W        W14329  29.257  15.220   3.023  0.3780  0.2082 -0.0652
71339W        W14330  14.722  32.399  22.932 -0.2592 -0.1255  0.2947
71340W        W14331   7.441   9.840  23.379 -0.0147  0.2011  0.0840
71341W        W14332   7.390  12.540   4.407 -0.1467  0.2131 -0.0492
71342W        W14333  22.772  33.642   2.759 -0.0146 -0.0937 -0.3396
71343W        W14334  16.131   3.571   6.470 -0.1017  0.0947 -0.0027
71344W        W14335  30.839  18.228   8.461 -0.2058  0.3437  0.0593
71345W        W14336   4.588  23.103   5.127 -0.1407 -0.3134  0.1920
71346W        W14337   7.036  20.619  28.470  0.0591  0.0250  0.1633
71347W        W14338  10.204  18.899   9.094  0.0074  0.1875  0.1907
71348W        W14339  16.293  18.118   3.330 -0.0001 -0.2187  0.0397
71349W        W14340  15.231   3.842   8.601  0.0601 -0.3049  0.1952
71350W        W14341   9.805  25.836   4.768 -0.0158  0.0647 -0.4832
71351W        W14342  18.451  19.252   1.041  0.0286  0.1042 -0.0350
71352W        W14343  24.464   7.083   9.752 -0.2889 -0.1796  0.1539
71353W        W14344   4.781  30.114   2.611 -0.0269 -0.2696  0.0586
71354W        W14345  34.613  13.303  10.780  0.0783  0.2549 -0.1447
71355W        W14346  16.355  15.862  27.353  0.1514 -0.0871 -0.0164
71356W        W14347   1.800  22.680   8.904  0.0631 -0.0769  0.1840
71357W        W14348   8.659  27.846   7.912 -0.0140 -0.1685  0.1175
71358W        W14349  12.346  32.192   5.152  0.1988  0.0510 -0.1168
71359W        W14350  27.269  21.868  26.535  0.0212  0.1996  0.1934
71360W        W14351  17.799  19.655   1.326  0.1819  0.0481 -0.2833
71361W        W14352   2.260   6.707   9.857 -0.3175  0.1716  0.0539
71362W        W14353   0.476   8.451   8.745 -0.1604  0.0588  0.2006
71363W        W14354  26.243  31.176  27.378  0.0626 -0.4436 -0.1888
71364W        W14355  14.681  33.664   3.275 -0.2967 -0.2485 -0.1048
71365W        W14356   6.937   7.776  27.050  0.0439  0.2490  0.5445
71366W        W14357   4.236   7.016   7.210 -0.0542 -0.0143 -0.1834
71367W        W14358   0.841  15.099  26.452  0.1229  0.0136 -0.1758
71368W        W14359   8.487  11.046   3.497 -0.1413  0.1350  0.0599
71369W        W14360   9.208  18.825   3.480 -0.0977  0.4908  0.1565
71370W        W14361  33.353  10.206   7.425  0.1324  0.3079  0.0410
71371W        W14362  22.833  12.734  23.968 -0.2708  0.1116  0.0180
71372W        W14363  14.700  16.266  25.526 -0.2635  0.0073 -0.0559
71373W        W14364  16.442  14.126  24.534 -0.1527 -0.0044  0.3484
71374W        W14365  31.835  20.428  10.490 -0.1259  0.1254  0.0055
71375W        W14366  21.206  11.222   3.956  0.2218  0.2708 -0.2855
71376W        W14367  17.660   6.597  25.588  0.1259  0.2094 -0.1260
71377W        W14368   1.112  16.416   1.766  0.3412 -0.0941  0.2694
71378W        W14369   0.817  34.607   1.139 -0.2310 -0.1541 -0.0257
71379W        W14370  10.707  31.998   9.101  0.0865  0.0286 -0.1332
71380W        W14371  11.271  18.631  22.932 -0.2863 -0.1715 -0.1287
71381W        W14372   2.614  18.372   8.859 -0.1491 -0.0270 -0.1160
71382W        W14373  11.103  11.583   6.641 -0.0195 -0.1269  0.2182
71383W        W14374   0.934  10.711  10.501 -0.0333 -0.2786  0.0885
71384W        W14375  34.485  26.934   8.106  0.3147  0.0888 -0.0667
71385W        W14376   1.646  14.820  26.467  0.3055  0.0882  0.2438
71386W        W14377  13.715  25.294  23.971 -0.0512  0.1425  0.1569
71387W        W14378  34.410  13.313   9.754  0.0904 -0.2105  0.2457
71388W        W14379  32.156   6.855   8.254  0.1823  0.1828 -0.0462
71389W        W14380  33.672  17.623  26.738  0.1515 -0.1169 -0.0377
71390W        W14381  23.038  19.121   4.076 -0.1892  0.0417  0.4957
71391W        W14382  28.983  17.139   2.655 -0.0260 -0.2512  0.1254
71392W        W14383   4.439  14.150   2.770  0.1158 -0.0899 -0.0342
71393W        W14384   6.274   6.504   7.781  0.0762  0.1148 -0.1409
71394W        W14385  27.477   0.709  24.239 -0.3419 -0.0777 -0.1376
71395W        W14386   4.516  20.795   6.367  0.2802  0.2318  0.3187
71396W        W14387  33.552   1.512   7.960  0.0069  0.0650  0.0076
71397W        W14388   2.241  34.517   4.086 -0.0446 -0.2429  0.2083
71398W        W14389  24.384  16.953   5.033  0.1904 -0.0184  0.0348
71399W        W14390  30.916  19.504   9.795 -0.1753  0.0045 -0.0273
71400W        W14391   3.994  11.615  11.692  0.2584 -0.0509 -0.1488
71401W        W14392   0.988  18.039   5.647 -0.2385  0.1576  0.2828
71402W        W14393  16.066  18.240   0.518 -0.4555  0.3085  0.0244
71403W        W14394  13.166  14.850  25.735 -0.0129 -0.0379  0.3706
71404W        W14395   4.989   8.147   4.604  0.2512  0.0298 -0.2807
71405W        W14396   6.096  17.485   9.765 -0.1499 -0.2352  0.2594
71406W        W14397  18.714   7.228  20.636  0.1754 -0.0889  0.2997
71407W        W14398  33.165  33.408  25.259 -0.0124 -0.1800 -0.0193
71408W        W14399  20.415  18.078   0.761 -0.2764  0.0356 -0.0400
71409W        W14400   9.323  16.292   1.292  0.1448 -0.1564 -0.1103
71410W        W14401  16.991  13.110  19.220  0.3890 -0.0742  0.0772
71411W        W14402  22.193  16.892   8.791  0.0636  0.0369 -0.0677
71412W        W14403  30.248  19.677  17.846 -0.1425 -0.3217 -0.1639
71413W        W14404   7.290  15.207  28.958  0.0730 -0.0473 -0.0383
71414W        W14405  34.342   8.588   8.877  0.0262  0.1649  0.1199
71415W        W14406  15.436  19.198   2.804  0.0012  0.2906  0.1649
71416W        W14407   8.945  30.152   2.972  0.0050  0.3645  0.4029
71417W        W14408  12.902  15.394   5.350  0.1207 -0.0861  0.1274
71418W        W14409  22.551  10.630   6.461 -0.0824 -0.0606  0.2162
71419W        W14410   4.956  16.572   6.684  0.0365  0.0702 -0.0237
71420W        W14411  27.358  21.487   5.595  0.1379 -0.1980  0.1035
71421W        W14412  16.879  25.967   6.506  0.0971 -0.0507 -0.1238
71422W        W14413   0.902   4.046   7.469  0.0804  0.2325 -0.1495
71423W        W14414  19.959  28.473   8.517 -0.1768  0.3110 -0.1069
71424W        W14415   7.676   8.672   4.946 -0.1345  0.1754 -0.0296
71425W        W14416  13.568   7.520   8.952 -0.0491  0.1047  0.1260
71426W        W14417  14.201  21.228   2.871 -0.2549 -0.0881  0.0429
71427W        W14418   9.927   6.145  10.312  0.0452  0.0906 -0.2181
71428W        W14419   7.790  26.835  16.665  0.1287  0.2565 -0.1601
71429W        W14420  25.276  28.899   7.477 -0.0876  0.0613  0.3487
71430W        W14421  32.126  14.145   0.580 -0.1844  0.2108 -0.0319
71431W        W14422  11.121  10.475  10.751  0.4691  0.1419 -0.1223
71432W        W14423   2.773   0.794  26.583 -0.2701  0.1441 -0.0592
71433W        W14424  15.398  11.584   4.342 -0.0650 -0.2182  0.0630
71434W        W14425   4.517  19.785  20.453  0.1826 -0.0840 -0.0936
71435W        W14426  33.598  18.693   7.508 -0.0260 -0.2318 -0.0566
71436W        W14427   7.505   6.547   8.982  0.0123 -0.1361 -0.1970
71437W        W14428   8.765  10.846   4.908 -0.3553 -0.2669  0.0299
71438W        W14429   0.887  18.084   0.047 -0.0556  0.0161 -0.1138
71439W        W14430  27.223  15.198  27.783 -0.2412 -0.0873 -0.0080
71440W        W14431  28.036  12.868   5.599  0.0604  0.2358  0.1481
71441W        W14432   2.216  18.068   3.812 -0.1497 -0.3035  0.2689
71442W        W14433   1.768  18.516   5.136  0.0413  0.0554  0.0332
71443W        W14434   9.868   3.114   6.487 -0.1069 -0.0937  0.0638
71444W        W14435  32.286  21.426  27.783 -0.0419  0.2881  0.0107
71445W        W14436  23.348  14.128   3.618  0.0557 -0.0780 -0.1715
71446W        W14437   1.811   6.215   8.047 -0.1023 -0.0083  0.2685
71447W        W14438   2.112   9.017   7.834  0.1424 -0.2821  0.2811
71448W        W14439  24.993   8.670   5.523 -0.1828 -0.3662 -0.1795
71449W        W14440   5.815  25.236  22.775  0.1189  0.3363  0.0921
71450W        W14441   2.684   0.602   0.954  0.1940  0.2663 -0.0664
71451W        W14442  29.844  23.449   3.767 -0.1736  0.0433  0.2519
71452W        W14443   1.427  11.983   8.795  0.0258  0.0835  0.2339
71453W        W14444  33.598  12.318   0.111 -0.0188 -0.0024  0.1530
71454W        W14445  32.680  17.090   9.783 -0.0337 -0.0699  0.1780
71455W        W14446   2.879  11.735   2.868 -0.0279  0.3199  0.0176
71456W        W14447   2.953   5.105   2.683  0.0221  0.0646  0.0085
71457W        W14448   9.221   5.634   3.891 -0.1271  0.1804 -0.0721
71458W        W14449   1.334  20.723  22.719 -0.0896 -0.1755  0.0770
71459W        W14450  20.027   0.142   7.962 -0.3121 -0.2451  0.1375
71460W        W14451   2.787  25.802   8.306 -0.3756 -0.1394  0.2587
71461W        W14452   1.530  11.651   2.759  0.2801 -0.0828 -0.3776
71462W        W14453   5.686   8.534   2.540 -0.2498 -0.1473  0.1440
71463W        W14454   9.539   5.875  10.492  0.2761  0.1206 -0.0020
71464W        W14455   7.048  22.928  26.013 -0.0228 -0.4648 -0.1938
71465W        W14456   7.911  29.039   8.853 -0.3048  0.0070 -0.1980
71466W        W14457   7.371   9.592   0.979  0.1873 -0.1428 -0.0765
71467W        W14458   9.468   4.493   9.280 -0.1062  0.0646 -0.1546
71468W        W14459  12.408  21.275   3.755 -0.0451 -0.1229  0.1556
71469W        W14460  34.217  25.148   4.125  0.0217 -0.2017  0.0938
71470W        W14461  32.207   8.570   4.273  0.0511 -0.1156 -0.2079
71471W        W14462   1.974  33.430  15.932  0.1697  0.0587 -0.2451
71472W        W14463  21.012  13.092   7.510  0.0140  0.0478 -0.1630
71473W        W14464   7.321  21.030   1.981 -0.1130 -0.0089  0.0188
71474W        W14465  26.136  14.168   6.944  0.1893  0.0832  0.0433
71475W        W14466  32.114  11.644   4.602  0.1781  0.0534  0.1851
71476W        W14467  17.635   3.917   1.894  0.1123  0.4102 -0.2291
71477W        W14468   3.839  18.452  20.278 -0.0007 -0.2165  0.0208
71478W        W14469  33.259  20.977   0.959 -0.1629  0.2602  0.1382
71479W        W14470   5.607  14.786  10.700  0.2744  0.1609 -0.0254
71480W        W14471   4.916  18.835   8.400 -0.1963  0.2272  0.0632
71481W        W14472   8.162  14.131   0.861  0.0053  0.0622 -0.0084
71482W        W14473   5.909   2.768   7.421  0.0542 -0.1325  0.0548
71483W        W14474  13.952  17.000  21.081 -0.0404 -0.1485 -0.0568
71484W        W14475   7.711  18.251   4.403  0.2739  0.3483  0.1838
71485W        W14476  23.994  29.505   1.338 -0.2724  0.2193 -0.0337
71486W        W14477   7.297  23.193  22.189 -0.0830  0.0481  0.1841
71487W        W14478  13.503  14.930   1.134 -0.1963  0.2893  0.0483
71488W        W14479   0.312  13.710  10.003 -0.4079 -0.1090  0.3668
71489W        W14480   1.175  15.567  11.234  0.2205 -0.0232 -0.2553
71490W        W14481  34.307   8.114   5.757 -0.3233  0.0908 -0.4207
71491W        W14482  30.115   2.717  14.078 -0.0469 -0.0495  0.1756
71492W        W14483  29.816  26.571  24.537 -0.1747 -0.1212 -0.0641
71493W        W14484  12.422   2.643   8.845  0.2842  0.0463  0.1165
71494W        W14485  10.884  20.416   4.101 -0.2975  0.3146 -0.0531
71495W        W14486   8.380  16.237  23.278  0.3651 -0.2107  0.0153
71496W        W14487  18.403  16.468  27.239  0.1384 -0.1539 -0.1138
71497W        W14488  21.605  20.524  24.474 -0.2041 -0.1752  0.0507
71498W        W14489  12.965  14.091   8.973 -0.4261  0.0398 -0.0566
71499W        W14490   9.357  18.786  27.097 -0.1875 -0.1507  0.0098
71500W        W14491  11.829  25.326   5.691 -0.2244  0.0780 -0.0914
71501W        W14492  33.780   7.880   9.203 -0.1145 -0.2088  0.1535
71502W        W14493   7.536  16.125   6.872 -0.1376 -0.2643 -0.1580
71503W        W14494  21.135  34.544   4.098  0.2108 -0.3288 -0.1201
71504W        W14495  19.443  32.148  27.827 -0.1981  0.2913 -0.0653
71505W        W14496   5.545  20.516  22.311  0.1073  0.1233  0.3537
71506W        W14497   9.663  27.500  10.235  0.1191 -0.2666  0.2163
71507W        W14498  20.721  20.628   0.019 -0.0043 -0.2255 -0.0281
71508W        W14499  11.086   6.063  18.332 -0.2539 -0.0788  0.0030
71509W        W14500   7.498  23.166  17.175  0.0419 -0.3989  0.2922
71510W        W14501  24.158   5.310  28.923 -0.0358 -0.0337  0.1238
71511W        W14502  11.137  22.908   9.051  0.2255  0.2872  0.2164
71512W        W14503   6.781   3.820   8.208 -0.0104  0.1365 -0.0716
71513W        W14504  13.260  13.072   8.398  0.2253 -0.1481  0.2372
71514W        W14505  29.062  11.441  10.334 -0.0334 -0.0486 -0.1399
71515W        W14506  12.563  13.164   6.847  0.1916  0.1184  0.2657
71516W        W14507  20.218  15.729   8.098 -0.1141  0.0690  0.0575
71517W        W14508   4.342   6.580   2.524  0.2418 -0.0507 -0.0701
71518W        W14509   7.461  10.192  28.284  0.2029 -0.1103 -0.2898
71519W        W14510   9.621  19.845   6.320  0.1270 -0.2250  0.0262
71520W        W14511  31.760  18.253  16.833  0.1110 -0.1515  0.0856
71521W        W14512   0.242  33.564   5.632 -0.2580  0.0032  0.0413
71522W        W14513   1.120   6.657   5.038  0.0025 -0.3087 -0.1291
71523W        W14514  14.718  16.490   4.533  0.2342 -0.1558  0.2344
71524W        W14515  31.082  22.315  27.280  0.0960  0.5356  0.2184
71525W        W14516   4.622  13.028   9.427 -0.0577  0.1715 -0.1704
71526W        W14517  26.911  13.724   9.177  0.0141  0.4435  0.2353
71527W        W14518   1.174  14.049   7.284  0.1797 -0.3363  0.1300
71528W        W14519   3.177  11.980  18.681 -0.1394  0.1280 -0.0683
71529W        W14520  34.642  11.577   2.884 -0.0980 -0.0657  0.1572
71530W        W14521  20.390  10.065  27.818 -0.2177 -0.1559 -0.0154
71531W        W14522  30.315  14.934  22.685 -0.0340  0.0970 -0.2865
71532W        W14523   9.851  16.185  24.946 -0.2392 -0.3614  0.0216
71533W        W14524   9.757  17.179  24.580  0.2230 -0.0603  0.0825
71534W        W14525  34.795  13.318  10.093  0.0203  0.0049  0.3310
71535W        W14526  10.185  34.586   6.986  0.0439  0.0133  0.0057
71536W        W14527  29.746  14.608   9.183  0.1857  0.1597  0.2384
71537W        W14528  14.567  21.075   6.684 -0.1086 -0.2612  0.0418
71538W        W14529   8.922  13.207   9.138 -0.0398  0.0324 -0.0112
71539W        W14530  28.838  29.065   1.789 -0.2457 -0.0470 -0.0883
71540W        W14531   4.678  34.093   4.432  0.1804 -0.3304 -0.0400
71541W        W14532  30.979   8.394   1.763  0.0095 -0.1470  0.0495
71542W        W14533   5.004  34.083   3.985  0.0193 -0.0287 -0.2958
71543W        W14534   5.842  33.803   7.598 -0.0574 -0.0926  0.1693
71544W        W14535  16.162  15.019   6.739 -0.0376  0.1594 -0.0218
71545W        W14536   3.844  24.064   2.198 -0.0819 -0.5054 -0.0792
71546W        W14537  12.054   8.562   8.982  0.1130  0.1179  0.0892
71547W        W14538   8.080   5.891  27.030  0.2599  0.2823  0.1123
71548W        W14539  29.701  17.852  27.232  0.2175  0.2630  0.2516
71549W        W14540  30.861  13.983   9.620 -0.1339  0.0804 -0.1644
71550W        W14541  28.910   9.884   5.619  0.0018 -0.0227 -0.2316
71551W        W14542   3.730  14.305   2.037  0.3223 -0.1999 -0.2083
71552W        W14543  33.014  21.022   8.677 -0.2048  0.1380 -0.0915
71553W        W14544  16.619   0.418  27.797  0.0898 -0.0353  0.0282
71554W        W14545   8.969   9.007  25.378  0.0981 -0.0180 -0.2160
71555W        W14546  14.004  30.734   4.225  0.1513 -0.1272 -0.2297
71556W        W14547  19.987  19.318   4.278  0.1311  0.1637  0.2092
71557W        W14548  28.899  19.315   1.826 -0.1208 -0.0631  0.4426
71558W        W14549  10.518   6.380   8.035 -0.0304 -0.1047 -0.1520
71559W        W14550  16.147  20.266  21.630  0.0385  0.1253 -0.2636
71560W        W14551   0.906  12.086   6.271  0.1059  0.0062  0.0643
71561W        W14552   5.777   9.961   2.227 -0.1098 -0.0738 -0.1048
71562W        W14553   7.290  14.008  17.810  0.1090  0.3120 -0.0428
71563W        W14554  29.229  24.776  27.352 -0.1461  0.0918  0.2606
71564W        W14555  12.024  15.785   0.597  0.1628 -0.0770 -0.0866
71565W        W14556   4.470  21.054  28.114 -0.1168 -0.2385 -0.1608
71566W        W14557  17.919  30.865   7.634 -0.2719  0.0481  0.0846
71567W        W14558   7.969  14.043   9.076  0.3252  0.3341  0.0110
71568W        W14559  11.588  21.924   3.058 -0.0747  0.0110  0.0521
71569W        W14560   8.463   8.615   7.610 -0.3020  0.1117 -0.2324
71570W        W14561   8.089  15.291  23.535  0.1009 -0.0308  0.0440
71571W        W14562  33.459  20.413   3.991  0.0304 -0.1938 -0.1810
71572W        W14563  32.336  15.591   8.443  0.0208 -0.2883 -0.2317
71573W        W14564   9.173  17.726  16.628 -0.2474 -0.0815  0.1641
71574W        W14565  20.973  15.749   4.700 -0.0564  0.3040  0.1893
71575W        W14566   8.185  27.306   7.553 -0.2151  0.1347 -0.0252
71576W        W14567   5.521  15.736   2.915 -0.0521  0.2911  0.1093
71577W        W14568  15.497  23.487  27.118  0.1235 -0.1201  0.1660
71578W        W14569  34.629   5.732   9.760 -0.0547 -0.1412 -0.0241
71579W        W14570  23.856  15.991   3.637  0.1619  0.1192  0.1850
71580W        W14571   6.562  23.427  22.889 -0.1756  0.0958  0.1052
71581W        W14572   4.439   4.459  11.599  0.0610  0.2849  0.1615
71582W        W14573  28.734   2.211   8.250  0.1845 -0.1473 -0.3360
71583W        W14574   3.054   6.204   8.070  0.1898  0.1616 -0.0110
71584W        W14575  34.148   4.650   9.758 -0.0427 -0.1874 -0.0228
71585W        W14576   1.580   9.078   9.699 -0.3204  0.1139 -0.0922
71586W        W14577   0.252  18.626   9.342  0.0166  0.5516  0.1707
71587W        W14578  11.752   7.733   8.732 -0.1419  0.3078 -0.0787
71588W        W14579  20.514   3.049   6.000 -0.0678  0.0725  0.2259
71589W        W14580  11.995  11.224   9.677 -0.0100 -0.3375  0.1579
71590W        W14581  11.770  22.120  25.207  0.2429  0.0406 -0.1642
71591W        W14582  12.024  15.480   9.387  0.0826 -0.2313  0.1046
71592W        W14583  23.510  19.109  27.957  0.0908  0.0064 -0.2803
71593W        W14584  31.592   5.214   7.093 -0.0015  0.0811 -0.0166
71594W        W14585   1.314  24.030  20.512  0.0172  0.1853  0.2626
71595W        W14586  18.495   5.667  10.324 -0.3357  0.0718  0.0766
71596W        W14587  31.666  16.458  26.756  0.0449  0.1617  0.1867
71597W        W14588  29.954  20.052  27.544 -0.0603 -0.1663  0.3057
71598W        W14589   5.353  11.005  23.724  0.3140 -0.1803  0.0672
71599W        W14590   3.076   8.978  29.043 -0.4271 -0.0146 -0.2150
71600W        W14591   1.842  13.654   1.142 -0.0300  0.0007  0.3027
71601W        W14592  29.617  13.533   4.810  0.3804  0.2295 -0.0071
71602W        W14593   4.966  10.526   2.257 -0.1009  0.1094  0.4400
71603W        W14594  13.800  15.632   0.081  0.1973  0.1289 -0.2024
71604W        W14595  26.037   7.216  27.900 -0.0649 -0.2138 -0.0575
71605W        W14596   5.010   4.199   3.611 -0.0705  0.1127 -0.2576
71606W        W14597   2.659  15.009  19.037 -0.3213  0.1261 -0.0986
71607W        W14598  20.394  19.117   8.173 -0.1561  0.0147  0.1877
71608W        W14599  14.129  12.600   8.609 -0.0853 -0.0306  0.1118
71609W        W14600  31.973   3.166  22.691  0.0127 -0.0967 -0.1636
71610W        W14601  14.980  16.800  17.094 -0.2323  0.1758  0.2618
71611W        W14602  33.351  27.054   4.596 -0.2704  0.1883 -0.0089
71612W        W14603  12.579   8.100   6.231 -0.1263  0.2011  0.0170
71613W        W14604  22.188  16.741   2.655 -0.2105  0.1227 -0.0084
71614W        W14605  26.348   9.998   2.451  0.0889 -0.2652 -0.3660
71615W        W14606  21.894  21.376   6.185 -0.2086  0.1258 -0.5368
71616W        W14607   4.616  20.373   8.025  0.1041 -0.0968 -0.3308
71617W        W14608  24.877   3.320   1.131  0.1849  0.1901  0.0840
71618W        W14609  24.066  21.780  26.455 -0.1610  0.1139 -0.0904
71619W        W14610  24.898  15.522  28.796 -0.4374 -0.1778 -0.3281
71620W        W14611  27.661   6.586   2.087  0.1813 -0.0005  0.2090
71621W        W14612  11.175  10.481   9.189 -0.1831  0.0211 -0.0537
71622W        W14613   0.729   0.573   0.087 -0.3669  0.0484 -0.0414
71623W        W14614  24.855  25.238  18.973  0.1134  0.1605  0.2093
71624W        W14615   4.484  19.319   7.262 -0.2020 -0.3429 -0.1705
71625W        W14616   0.597  14.883   3.258 -0.2172  0.0676 -0.0745
71626W        W14617  32.276  11.154  18.681 -0.1145  0.2878 -0.1122
71627W        W14618  24.364  14.736  28.647  0.0266  0.0804  0.1392
71628W        W14619  13.632  25.115   1.396 -0.0900  0.4763 -0.2236
71629W        W14620  23.958  11.276   0.748 -0.0720 -0.2223  0.2754
71630W        W14621  17.434  27.920   5.583  0.1675 -0.2894 -0.3219
71631W        W14622  17.500   3.277   9.810 -0.4892  0.1266  0.3156
71632W        W14623   5.043  12.942  27.494 -0.0239  0.3106 -0.1531
71633W        W14624  10.135  15.562   5.797  0.1202 -0.0644 -0.1572
71634W        W14625  27.614  11.636  26.871  0.0124 -0.3109  0.1116
71635W        W14626  13.691  31.013  24.873 -0.1176 -0.1219  0.0877
71636W        W14627  23.760  28.499   1.105 -0.2817  0.0788  0.0223
71637W        W14628   8.150  14.984  25.680 -0.1491  0.2366 -0.3411
71638W        W14629  14.504  29.224   5.155  0.1628  0.1632  0.0667
71639W        W14630   2.398  25.165   9.233  0.1061 -0.1876 -0.0781
71640W        W14631  24.414   2.600   7.541 -0.1885  0.2581 -0.0908
71641W        W14632   1.844  19.201   6.752  0.1906  0.0715 -0.0247
71642W        W14633  33.215  27.713   8.939 -0.0185 -0.2912 -0.0710
71643W        W14634  27.391  22.531   2.027 -0.2171 -0.0105  0.0052
71644W        W14635   5.742  19.131  27.066 -0.3131  0.2499 -0.1996
71645W        W14636  29.456  17.618   6.231 -0.0851 -0.1218  0.2038
71646W        W14637   5.732  25.390  19.075  0.1434 -0.2397 -0.1430
71647W        W14638   6.102  29.808   5.437 -0.0867  0.0268 -0.1850
71648W        W14639   8.615  30.440   3.916 -0.0654  0.2758 -0.0013
71649W        W14640   8.298  27.176   3.611 -0.0472 -0.0416 -0.0529
71650W        W14641   6.227  29.908   1.333  0.1773 -0.0119  0.0120
71651W        W14642  26.361  15.055   7.246 -0.2446 -0.0448  0.1166
71652W        W14643   2.711  19.061  21.932 -0.0940  0.1999  0.0961
71653W        W14644  22.512  23.194  23.748  0.2259 -0.2069 -0.3312
71654W        W14645  26.368  14.044  28.164  0.1194 -0.0641  0.2152
71655W        W14646   8.627  21.771   1.539 -0.0161 -0.0499  0.3248
71656W        W14647  32.468  15.364   9.388  0.0989 -0.1264 -0.0626
71657W        W14648   8.678  26.876   0.219 -0.1941 -0.2163 -0.1827
71658W        W14649  21.613  14.743   5.244  0.0507 -0.2916  0.0535
71659W        W14650  16.575   4.491  24.662  0.1353  0.1022  0.0059
71660W        W14651  18.048  27.243  13.873  0.1263 -0.3417  0.0827
71661W        W14652   4.994  28.377   3.319 -0.0985  0.0754 -0.4540
71662W        W14653  33.276  14.718   4.854  0.2596  0.0901 -0.0865
71663W        W14654  18.890  31.065   0.436  0.1549  0.2967 -0.2365
71664W        W14655  34.136  23.357   8.773  0.0508 -0.2491 -0.3789
71665W        W14656   3.471  10.540  24.667  0.0684  0.0976 -0.2030
71666W        W14657  20.997   6.322  22.115 -0.1926 -0.1104 -0.2059
71667W        W14658   2.800  26.520   8.154  0.1742  0.2519  0.0308
71668W        W14659   9.248  14.799  28.239 -0.0637  0.2185  0.0767
71669W        W14660   6.089  22.592   5.625 -0.2291 -0.0857 -0.1016
71670W        W14661   8.121  29.699   8.124 -0.2274 -0.0006 -0.1727
71671W        W14662   4.746  23.343  25.899 -0.0178 -0.2540  0.0435
71672W        W14663  19.799  15.176  29.255 -0.2366  0.0380  0.1626
71673W        W14664   6.174  17.813  23.248  0.2219 -0.0430  0.0101
71674W        W14665   5.364  14.566   9.259  0.1866  0.0475  0.0806
71675W        W14666   0.491  27.409   4.689 -0.0277 -0.0909  0.1352
71676W        W14667   9.249  31.638   8.820 -0.0535 -0.1163 -0.1339
71677W        W14668  25.995  10.152   8.471 -0.1507 -0.0629 -0.1489
71678W        W14669  22.769  15.870   5.607 -0.1781  0.1767  0.1155
71679W        W14670  16.308   8.239  25.892 -0.0747  0.1486  0.3597
71680W        W14671  17.915  23.850  27.491  0.0702  0.2626 -0.1289
71681W        W14672  16.018  12.198   7.052 -0.2214  0.0471  0.0683
71682W        W14673   4.873  23.079   5.535 -0.2228 -0.1278 -0.1330
71683W        W14674   6.365  18.198   0.167 -0.0268 -0.2286 -0.0329
71684W        W14675  13.542  32.373   5.755  0.0449 -0.2271 -0.2684
71685W        W14676   6.483  33.145   1.647 -0.0272 -0.0233 -0.1606
71686W        W14677  33.083  24.621   4.623  0.0277  0.2534 -0.1230
71687W        W14678  33.448   9.612  18.050  0.1341  0.0181 -0.0897
71688W        W14679   6.036  33.497  18.094 -0.0033 -0.0821 -0.2731
71689W        W14680  32.966   3.715  19.729  0.0016 -0.1180  0.3110
71690W        W14681  24.936  24.215  16.497  0.0471 -0.1856 -0.3889
71691W        W14682  15.327   7.227  20.985 -0.1873  0.0636  0.0250
71692W        W14683   0.432  18.135  25.309  0.5063  0.2830  0.1231
71693W        W14684  27.457  19.359   9.130  0.0839  0.3196  0.2576
71694W        W14685  29.884  24.221  17.965 -0.4981 -0.3052 -0.0662
71695W        W14686   1.980  18.780   1.763  0.1926 -0.3013 -0.2673
71696W        W14687   0.533  17.822  16.260 -0.1738  0.0473 -0.2174
71697W        W14688   9.166  10.522   5.908 -0.4037  0.3128  0.2056
71698W        W14689  11.866  18.423   0.871  0.0552  0.2501 -0.0126
71699W        W14690  10.466   1.084   2.288  0.0601  0.1037  0.1997
71700W        W14691  27.232  16.477  24.059 -0.2189  0.1634  0.0815
71701W        W14692  31.187  32.188   0.964 -0.3799 -0.4989 -0.0031
71702W        W14693   6.204  25.317  15.761  0.0322 -0.0493 -0.0552
71703W        W14694   3.817  19.499  14.835 -0.0846 -0.1546 -0.1769
71704W        W14695  31.423  14.583  19.940  0.0153 -0.3285 -0.0325
71705W        W14696   1.576  15.391  27.791  0.3130  0.2228 -0.0321
71706W        W14697  33.470  32.619   3.555  0.1966 -0.0167  0.0016
71707W        W14698  28.682  24.767   7.066  0.0864  0.0768  0.1968
71708W        W14699   0.877  20.557  10.757  0.0827 -0.2510  0.0477
71709W        W14700   8.490  11.720   1.047  0.0002 -0.0566 -0.0227
71710W        W14701  19.315   5.217   9.339 -0.0249 -0.0201  0.0917
71711W        W14702   5.826  14.462   8.411 -0.3142  0.1546 -0.3191
71712W        W14703  23.943  22.781   6.864 -0.3043  0.1598  0.0370
71713W        W14704   3.374  19.942   6.808 -0.2215 -0.0649 -0.3429
71714W        W14705   5.487  14.642   0.691  0.0582 -0.1498 -0.0220
71715W        W14706  29.292   8.149   7.066  0.0595  0.1603 -0.0512
71716W        W14707   7.036  11.493   0.815 -0.2587  0.5981 -0.0194
71717W        W14708  11.063  10.309   6.645  0.0736 -0.1310 -0.1758
71718W        W14709   0.042  17.474  20.905 -0.2456  0.0859 -0.1280
71719W        W14710  18.614  25.728   5.084 -0.3859  0.1907  0.0156
71720W        W14711  24.156  25.467   5.091 -0.1686  0.3222 -0.2625
71721W        W14712  10.519  25.236   4.296  0.1017 -0.2232 -0.0243
71722W        W14713  33.177  31.379  25.156  0.0944 -0.0452  0.1339
71723W        W14714   1.357  29.357  24.967  0.1705  0.0017 -0.0320
71724W        W14715  11.069  21.210   4.242 -0.2204 -0.4018 -0.0718
71725W        W14716  33.039  28.623  18.064 -0.1615  0.1368 -0.0683
71726W        W14717  28.637  29.232   7.574  0.1939  0.2551 -0.1190
71727W        W14718  33.844  11.293  17.182  0.0450  0.0741  0.1143
71728W        W14719   4.535  20.253  24.078 -0.0248  0.2419 -0.1184
71729W        W14720   4.544  10.769  10.933 -0.0402  0.0615  0.0574
71730W        W14721  13.916  14.909   2.570 -0.3062 -0.0841 -0.0841
71731W        W14722   8.179  15.519  25.441 -0.2643 -0.1086 -0.2334
71732W        W14723  15.909  16.275  24.503 -0.0090  0.2149  0.0181
71733W        W14724  24.944  10.781   3.541 -0.0930  0.0312  0.2804
71734W        W14725  26.038  28.695   7.569 -0.1271  0.0345 -0.1844
71735W        W14726   4.471  29.070   1.233  0.0154 -0.0891  0.0664
71736W        W14727   6.927  20.969  26.476 -0.1369 -0.1408  0.1526
71737W        W14728  24.474   5.074   5.517 -0.2137 -0.0380  0.1017
71738W        W14729  15.938  30.685   6.975  0.0930 -0.0446 -0.1152
71739W        W14730  23.146  31.831   4.593  0.0720 -0.2249 -0.1858
71740W        W14731   5.699  12.716   6.882 -0.0261 -0.0080 -0.1818
71741W        W14732   9.256  27.819  28.148  0.0635 -0.2267 -0.0038
71742W        W14733  34.322   0.715  21.763 -0.1307  0.0676 -0.1509
71743W        W14734  10.729  25.671   2.807 -0.1121 -0.2661 -0.0668
71744W        W14735  17.579  29.339   6.601 -0.2915 -0.0338 -0.2898
71745W        W14736   9.975  11.697  17.437 -0.2099 -0.0804  0.1647
71746W        W14737  18.973  21.453   3.725 -0.0020  0.1794 -0.0180
71747W        W14738   6.561  19.230  15.710 -0.0041  0.0238 -0.1705
71748W        W14739   7.554   6.513   1.688 -0.2409  0.1613 -0.2892
71749W        W14740  29.101  23.151   6.434 -0.2359  0.0310  0.0067
71750W        W14741   4.449  27.011   3.455  0.1335 -0.1314  0.2436
71751W        W14742  27.391  18.069   3.424  0.0233 -0.0210  0.0955
71752W        W14743   2.616  22.469  28.509 -0.2460  0.2213  0.5327
71753W        W14744   7.536  17.108   2.561 -0.0926  0.0233 -0.4174
71754W        W14745  12.668  12.675  28.923  0.5561  0.0832  0.0876
71755W        W14746  23.107  13.611  27.906  0.0861 -0.1799 -0.0825
71756W        W14747  11.533  17.244   8.455  0.1599  0.1228 -0.4459
71757W        W14748  34.762  11.279  11.040 -0.0486 -0.2128  0.1112
71758W        W14749  11.729  22.539   1.804 -0.0308 -0.3539  0.0346
71759W        W14750  32.202  11.574   2.849  0.1286  0.2944 -0.2106
71760W        W14751  12.296  26.863   6.417 -0.0595  0.1656 -0.1136
71761W        W14752   6.256   0.569   7.257 -0.1145 -0.1071 -0.1769
71762W        W14753  30.589  15.930  10.413 -0.0133 -0.1424  0.1440
71763W        W14754  12.456  19.648  14.797 -0.0762  0.1095 -0.0372
71764W        W14755  28.074  25.951   7.560 -0.0405 -0.0479 -0.5344
71765W        W14756  27.227  14.893  26.308 -0.0501 -0.2237 -0.0265
71766W        W14757   8.975  17.925   9.665 -0.2683  0.1888 -0.1420
71767W        W14758  16.538  27.133  27.767 -0.3232  0.2071  0.0481
71768W        W14759   8.670  14.333  15.789  0.1695  0.1341  0.2603
71769W        W14760   1.936   7.618   8.642  0.0493  0.0710 -0.2830
71770W        W14761  32.340  28.335   8.927 -0.1949 -0.0392 -0.0010
71771W        W14762  15.096  25.566   2.115  0.3359 -0.0779  0.4041
71772W        W14763  34.668  27.236  28.584 -0.4197  0.1816  0.2865
71773W        W14764  27.794  32.126  22.526 -0.0903  0.0542 -0.1290
71774W        W14765  22.558  12.372  23.384  0.1266  0.0025 -0.0044
71775W        W14766  21.116   8.864   7.951 -0.0693 -0.0305 -0.1479
71776W        W14767  18.870  15.415  27.945 -0.0422  0.0037  0.0798
71777W        W14768  21.469  23.871  18.996 -0.0691  0.0114 -0.1673
71778W        W14769  13.919   0.950   5.795 -0.0234 -0.0047  0.1611
71779W        W14770  10.937  29.300   6.743  0.1508 -0.0491  0.1030
71780W        W14771  21.147  18.086   2.520  0.1386  0.2577 -0.1821
71781W        W14772  32.080   0.145  21.125  0.4133  0.1010 -0.1057
71782W        W14773  33.159  11.183  26.642  0.2846 -0.0907  0.2569
71783W        W14774   3.919  24.098  10.861 -0.0965 -0.0523  0.0896
71784W        W14775   4.707  15.072  21.893  0.1202  0.1159  0.0546
71785W        W14776  29.465   6.352   9.173  0.2395 -0.2116 -0.0083
71786W        W14777   2.605  23.755   0.787  0.2121  0.1816  0.1900
71787W        W14778  32.253   3.875   5.144  0.1313  0.2750  0.2234
71788W        W14779  32.860  24.366   2.638 -0.3892  0.2753  0.1603
71789W        W14780  32.073  20.953   4.387  0.2093 -0.3222  0.0741
71790W        W14781  26.558   9.042  18.874  0.3727 -0.3444  0.2232
71791W        W14782  17.953  13.150  15.529 -0.1958  0.1245  0.1229
71792W        W14783   0.949  13.187  26.531  0.1593 -0.1772  0.0303
71793W        W14784  32.938  15.149   9.203 -0.1177  0.0427 -0.1120
71794W        W14785   9.786  13.348   5.788  0.1015 -0.0667 -0.3381
71795W        W14786  32.415  14.100  23.075 -0.1096 -0.0797  0.3082
71796W        W14787   5.587   7.621   9.970 -0.0852  0.0165  0.1839
71797W        W14788   5.349   4.040  21.042 -0.4437  0.0594 -0.0344
71798W        W14789   5.178  15.403  11.211  0.0647 -0.0983 -0.2353
71799W        W14790  22.952  27.295   0.419 -0.0217  0.0603 -0.2343
71800W        W14791  12.953  34.100  18.280 -0.1867 -0.1597 -0.3386
71801W        W14792   5.864  26.522  16.499 -0.1490  0.2655 -0.0858
71802W        W14793   6.557  16.082  11.666 -0.1367 -0.0255 -0.0653
71803W        W14794   4.122  18.737   8.811 -0.0106  0.0309 -0.0861
71804W        W14795  15.125  21.991  25.460 -0.0601  0.1366 -0.0655
71805W        W14796  34.284  32.873   6.301 -0.1235  0.0329 -0.0860
71806W        W14797  30.678  17.354  25.446 -0.3072  0.0340  0.2150
71807W        W14798  10.618  24.402   1.663 -0.3595 -0.0090 -0.3914
71808W        W14799   8.796  11.519  27.449  0.0318 -0.1298 -0.0854
71809W        W14800   9.460  32.604   3.616  0.3079 -0.0020  0.3499
71810W        W14801  18.928   7.714   9.208  0.1363  0.0781  0.0239
71811W        W14802   6.112  20.528   4.374  0.2603 -0.1194  0.0342
71812W        W14803  11.051  18.579   3.807  0.0158  0.0025  0.1071
71813W        W14804  22.748   7.750   6.394 -0.1019 -0.1845 -0.1849
71814W        W14805  27.076  20.452   2.492 -0.0116  0.0702 -0.4351
71815W        W14806   1.237  23.675  24.058  0.1940 -0.0279 -0.1224
71816W        W14807  14.422   6.233   4.077 -0.0212 -0.1027  0.0862
71817W        W14808   1.859  19.508  20.237  0.1702 -0.0795  0.1204
71818W        W14809   5.885  15.185   5.930  0.3494 -0.0219 -0.0621
71819W        W14810   9.835  13.076   9.409  0.0197 -0.1018  0.1010
71820W        W14811   1.647   8.896  21.237 -0.0098 -0.0994 -0.0218
71821W        W14812  10.294   9.361  11.690  0.0200  0.1444  0.1275
71822W        W14813   4.998   8.976  29.111 -0.1676 -0.3366 -0.0592
71823W        W14814  10.389   6.362   1.056  0.1227  0.3061 -0.0870
71824W        W14815  32.088   4.724   6.341 -0.2680  0.2925  0.1106
71825W        W14816  14.361  19.867  27.523 -0.0664  0.2392 -0.1275
71826W        W14817  23.799  28.631  26.954 -0.0974 -0.2583  0.1725
71827W        W14818   8.348   9.192  27.900 -0.0904 -0.3425  0.0134
71828W        W14819  13.090  33.984   8.972  0.0840 -0.0733 -0.4364
71829W        W14820  11.567  17.800  17.167 -0.0841 -0.0150  0.1584
71830W        W14821  21.831  18.316  28.844 -0.1276 -0.3005  0.0867
71831W        W14822  16.870  24.792   4.224  0.1962 -0.0414 -0.0619
71832W        W14823  29.051  17.678  21.365  0.1182  0.1261 -0.1294
71833W        W14824   1.698  31.685   6.285 -0.1050  0.0509  0.1453
71834W        W14825  30.840  18.801   9.333 -0.3126 -0.1202 -0.2362
71835W        W14826   4.864  23.308   4.768 -0.2270 -0.0172  0.2018
71836W        W14827  10.797  20.463  25.435 -0.0743 -0.2863  0.1242
71837W        W14828  24.876  25.157   9.992  0.0510  0.1358  0.1017
71838W        W14829  19.980  23.483  28.760  0.2932 -0.2334 -0.0973
71839W        W14830  11.440  29.512  25.788  0.1991 -0.2737  0.0835
71840W        W14831  16.802  17.176  28.225 -0.1930  0.2874  0.4153
71841W        W14832  27.502  33.546  18.026  0.1164 -0.1502 -0.0572
71842W        W14833  30.524  18.119   6.769  0.1372 -0.3599 -0.0196
71843W        W14834   4.055  23.973   8.269 -0.0315 -0.3205  0.0595
71844W        W14835  12.100   9.603   7.638 -0.1112 -0.0570  0.1396
71845W        W14836  31.108  21.272   5.803  0.1996 -0.1372  0.0768
71846W        W14837  13.042   0.687  22.997  0.0251  0.1744  0.1429
71847W        W14838   0.130  21.487  27.965  0.0433 -0.1565  0.2577
71848W        W14839   1.067  24.043  28.129 -0.2773 -0.2305 -0.0086
71849W        W14840  11.656  16.824   1.513 -0.2526  0.1238  0.0711
71850W        W14841  28.190   5.911  19.887 -0.3185 -0.2667  0.1687
71851W        W14842  32.148  14.730   3.233  0.0054 -0.0851 -0.3053
71852W        W14843   3.608  28.042  14.857 -0.3858  0.1226  0.0292
71853W        W14844   9.162   6.356   9.734 -0.1122  0.0513  0.2273
71854W        W14845   4.873  15.852  17.769 -0.1804 -0.3954  0.0293
71855W        W14846   4.910  12.342   3.010  0.2874  0.0025  0.3570
71856W        W14847   2.727  25.779   8.857 -0.1311 -0.0809  0.1772
71857W        W14848  12.180  21.576   7.550 -0.0868 -0.2194  0.2547
71858W        W14849  19.743   7.087   5.786 -0.0638 -0.1455  0.0709
71859W        W14850  11.442  20.905  22.204  0.1832  0.1074 -0.1220
71860W        W14851  14.936  24.522   3.787 -0.2285  0.0594 -0.0628
71861W        W14852  34.086   5.052  17.252  0.0171 -0.0652  0.0755
71862W        W14853   2.074  10.361   9.338  0.2201 -0.1976  0.1038
71863W        W14854  28.382  15.634   9.853  0.3367  0.1870  0.0642
71864W        W14855  26.024  25.578   8.345 -0.2597 -0.1510 -0.1395
71865W        W14856  12.668  15.656  14.054 -0.1738 -0.0311  0.2817
71866W        W14857  26.911  30.811  20.404 -0.1190 -0.5334  0.0287
71867W        W14858  23.269  29.027   6.189  0.3092  0.1458 -0.1520
71868W        W14859   1.541  11.131  28.823  0.0650 -0.1387  0.1812
71869W        W14860   8.651  21.360  24.756 -0.4080  0.2004 -0.2803
71870W        W14861  27.321  13.063   4.808 -0.1827 -0.1615  0.0909
71871W        W14862  11.907   0.031  25.485 -0.1123 -0.0816  0.2223
71872W        W14863   8.085   8.227  26.654  0.4107  0.0056 -0.0626
71873W        W14864  11.071  20.150   0.713  0.0928 -0.0539 -0.0674
71874W        W14865   0.123   5.141   2.440 -0.0094 -0.0201  0.0222
71875W        W14866   7.271  14.265  24.869  0.2570  0.2081 -0.2055
71876W        W14867   3.922  24.868  17.475  0.0431  0.1525 -0.0074
71877W        W14868   0.317  16.485  28.323 -0.3016  0.0776  0.1130
71878W        W14869   6.114  20.338   2.655  0.1728 -0.1518 -0.1392
71879W        W14870  11.570  26.153   4.839 -0.0423  0.0972 -0.1131
71880W        W14871   7.253  32.156  28.017  0.0728 -0.2512 -0.0476
71881W        W14872  15.004  13.990  23.933 -0.0648 -0.3467  0.0655
71882W        W14873   1.138  20.308   8.521 -0.1411  0.1224  0.3075
71883W        W14874  12.795  22.100   4.790 -0.0641  0.0319  0.1202
71884W        W14875   2.053  18.594   2.806 -0.2990 -0.1193 -0.2524
71885W        W14876   0.065   9.139  20.047 -0.1871  0.4285 -0.1175
71886W        W14877  10.320  19.871  23.383  0.1169  0.0053  0.0328
71887W        W14878  33.972  19.116  28.102  0.4008  0.0950  0.0248
71888W        W14879  32.718  25.771  26.472 -0.0634  0.0206  0.3574
71889W        W14880   8.283  12.360  25.328  0.3158  0.1936 -0.1340
71890W        W14881  33.514  21.278   2.897 -0.0290 -0.4127  0.2193
71891W        W14882   6.645  24.977   6.198 -0.0641 -0.0247 -0.0862
71892W        W14883   1.433  15.919   3.177  0.1154 -0.0114 -0.0573
71893W        W14884  17.685  22.193   9.411  0.0998  0.0978  0.3365
71894W        W14885  24.115  21.403  28.953 -0.0768 -0.0298 -0.1785
71895W        W14886   1.084  16.272   8.537  0.5635  0.0295  0.1018
71896W        W14887  25.788  18.197   4.048 -0.1465  0.0846 -0.1247
71897W        W14888  12.647  20.523  18.977  0.0996  0.1121 -0.0134
71898W        W14889  26.575  19.484  24.600  0.0514 -0.2515  0.1211
71899W        W14890   6.384  29.821   1.858  0.0324  0.2911  0.1991
71900W        W14891  32.732  20.297   7.177 -0.0900  0.1386  0.1537
71901W        W14892  25.301  18.995   8.227 -0.0513 -0.2651  0.0933
71902W        W14893   2.329  30.458   0.548  0.1466 -0.0539  0.1334
71903W        W14894   5.663   1.376  20.861  0.2232  0.1118  0.0807
71904W        W14895  14.518  20.610   6.894 -0.0333 -0.2206  0.3523
71905W        W14896   2.433   1.545  16.254  0.0890  0.2140 -0.1764
71906W        W14897   2.311  23.475  25.104 -0.2656  0.0368 -0.2316
71907W        W14898  10.663  11.415   6.997 -0.2901  0.0692  0.0141
71908W        W14899  13.519  19.793  15.329  0.1937 -0.0094  0.1721
71909W        W14900   6.156  19.192   0.421 -0.1656  0.3934 -0.0055
71910W        W14901   3.067  16.104  25.826 -0.0894  0.0710 -0.2235
71911W        W14902  29.671   3.185  26.832  0.0048  0.2884 -0.1234
71912W        W14903  27.584  20.392   8.645 -0.2044  0.1288 -0.2631
71913W        W14904   1.896   9.462  28.471  0.3368 -0.2877 -0.1363
71914W        W14905   6.409  21.379  26.552 -0.0964  0.3880  0.0581
71915W        W14906  26.877  27.269   1.830 -0.0435  0.0283  0.1660
71916W        W14907  29.627  18.656  28.578 -0.2122 -0.1402 -0.0277
71917W        W14908  15.308  10.885  19.190 -0.0009 -0.3151  0.1457
71918W        W14909   5.978  28.567   4.829  0.2351 -0.1483 -0.0729
71919W        W14910  21.701  27.573   4.961  0.0375  0.0239  0.1309
71920W        W14911  10.974  26.664   2.941  0.0002 -0.0431  0.0043
71921W        W14912  31.005  21.360   9.991  0.1780 -0.1565 -0.1080
71922W        W14913   6.076   2.724   0.285 -0.2651 -0.0053 -0.2361
71923W        W14914  30.135  30.387  21.466 -0.0677 -0.0971  0.0048
71924W        W14915  13.907  12.742   8.168  0.2115  0.0694 -0.0490
71925W        W14916  20.785  12.729  25.611 -0.1187  0.1284  0.2741
71926W        W14917   1.675  24.936   5.187  0.3477 -0.0270 -0.1263
71927W        W14918   6.928  20.847  25.982 -0.0717 -0.1315 -0.2294
71928W        W14919   8.652   0.262   2.778  0.2951 -0.2229 -0.1698
71929W        W14920   5.950  21.909   1.090  0.0235  0.0388  0.2749
71930W        W14921   6.913   5.391   4.634 -0.0504 -0.2101 -0.2429
71931W        W14922  14.014   1.349   6.570  0.1144 -0.1379  0.4454
71932W        W14923  33.852  12.680  26.513 -0.0824 -0.3687  0.2552
71933W        W14924  29.585  20.830  17.405 -0.0066 -0.0780 -0.3516
71934W        W14925   5.672  22.214  10.237  0.1141  0.1230 -0.1041
71935W        W14926   0.698  17.334  24.565 -0.2169 -0.1663  0.1795
71936W        W14927   8.378   0.977  29.162 -0.0300 -0.4846  0.2867
71937W        W14928  17.023   5.722   2.618  0.1316  0.0632  0.2183
71938W        W14929   9.248  23.549   3.300 -0.0414  0.0840  0.2055
71939W        W14930   3.222  23.583   8.751 -0.3136 -0.3021 -0.0708
71940W        W14931  32.722  20.284   1.273  0.0192 -0.3242  0.2744
71941W        W14932   5.297  12.051   6.990 -0.0392 -0.1904 -0.0887
71942W        W14933  29.405  11.060   3.979  0.1543  0.0581 -0.0710
71943W        W14934  11.142  20.368  21.112  0.0943  0.2075 -0.0615
71944W        W14935  24.930   9.209  28.637 -0.0121  0.1842 -0.0850
71945W        W14936  32.758  24.987  27.039 -0.2732  0.2048  0.2804
71946W        W14937  15.399  12.654   7.761 -0.1528  0.1131  0.2116
71947W        W14938  18.910  31.613  28.569 -0.1523 -0.1550 -0.3018
71948W        W14939  11.498  24.187  18.203 -0.0319  0.0865 -0.3298
71949W        W14940   4.007  25.613   3.135  0.0800 -0.0151  0.1422
71950W        W14941   1.771  33.360  25.975  0.1888  0.0368 -0.2875
71951W        W14942  15.314  32.150  20.666 -0.2822  0.0858 -0.0054
71952W        W14943   4.511   9.572  24.459  0.0569 -0.1031 -0.0356
71953W        W14944  21.735  13.400   4.165  0.7784  0.4404  0.2226
71954W        W14945  14.441  15.153   4.988 -0.2285 -0.1665  0.1081
71955W        W14946  33.264  20.553   7.770 -0.2056 -0.4090  0.1503
71956W        W14947  25.402  14.163   2.281  0.0451  0.1312 -0.2840
71957W        W14948  30.890  10.034   4.780  0.3248 -0.0393 -0.4052
71958W        W14949  10.759   9.842  28.075 -0.3645  0.0672 -0.0728
71959W        W14950  23.037  13.528   9.911 -0.2143  0.0310 -0.1522
71960W        W14951   3.659  26.008   6.804  0.1412  0.1607  0.0220
71961W        W14952  16.760  27.514  17.388 -0.3049 -0.0408  0.1325
71962W        W14953  19.402  27.258   1.827  0.1758  0.1264 -0.1613
71963W        W14954   9.025   3.812  27.609 -0.1891 -0.1193 -0.1086
71964W        W14955  26.762  21.429   9.023 -0.1172 -0.0636 -0.0490
71965W        W14956   0.802  30.595   3.670  0.2033 -0.0765 -0.1680
71966W        W14957   9.859  17.393  22.715  0.0828  0.0164  0.2820
71967W        W14958  15.677  13.923  24.363  0.0133 -0.1110 -0.1432
71968W        W14959  32.696   3.766   3.107 -0.0320 -0.3441  0.4969
71969W        W14960   5.816  23.190   1.294 -0.3190 -0.1349  0.0702
71970W        W14961  27.082  22.171   2.937  0.1979  0.1939  0.2171
71971W        W14962   9.645   9.819  27.091  0.0320 -0.1260 -0.0891
71972W        W14963  20.146  25.697  19.572  0.2017 -0.0645  0.3072
71973W        W14964  13.693  33.865   1.521 -0.1822  0.1117 -0.0258
71974W        W14965  11.433   9.204   6.272  0.0625 -0.1612 -0.0929
71975W        W14966   8.470   4.078   2.174  0.1584  0.2804 -0.3844
71976W        W14967  12.802  31.536  10.036 -0.0488  0.0893  0.2888
71977W        W14968  21.895  21.029   3.751 -0.1935 -0.1680 -0.2376
71978W        W14969  28.433  13.237   8.896  0.1655  0.0688  0.0958
71979W        W14970   9.773   8.949  27.523 -0.1880  0.0530 -0.0712
71980W        W14971  13.576  30.950   8.354  0.1016  0.0532 -0.2838
71981W        W14972   6.069  15.639   3.150  0.1021  0.0195  0.1113
71982W        W14973   4.852  14.417   9.092  0.2121  0.1238 -0.5000
71983W        W14974  12.462  11.384   7.007  0.0577 -0.0457 -0.3555
71984W        W14975  21.012   3.713  21.500  0.1812  0.1436 -0.2333
71985W        W14976  16.892   3.094  27.279  0.0922  0.2556  0.1186
71986W        W14977  12.097  20.223   0.691 -0.0275  0.3085 -0.2325
71987W        W14978   9.221  25.320   0.760  0.1872 -0.0554 -0.0414
71988W        W14979  11.007  25.056  28.429  0.0278 -0.1868 -0.0741
71989W        W14980   0.969   9.050  27.745  0.1869  0.0614  0.1152
71990W        W14981  14.325  18.519  21.201 -0.0015 -0.1235  0.0401
71991W        W14982   3.452  25.589   6.643  0.0246  0.1719 -0.1254
71992W        W14983  22.239  13.990   0.604 -0.0431 -0.0957  0.0896
71993W        W14984  13.763   5.159  26.822 -0.3835  0.0458 -0.0066
71994W        W14985  27.835  12.917  21.068  0.2164 -0.1026  0.0120
71995W        W14986  29.253  29.063   2.062 -0.0037 -0.0109  0.1682
71996W        W14987   1.476  26.201   6.506  0.0854  0.1494 -0.0154
71997W        W14988  22.885  24.680  14.017  0.0380  0.0201 -0.0695
71998W        W14989  10.150  21.094   4.864 -0.0904 -0.0383  0.1844
71999W        W14990   9.742  27.548  26.957  0.1791 -0.1302  0.0576
72000W        W14991   4.127  18.131   5.111 -0.3292  0.1059 -0.2931
72001W        W14992   4.357   2.278   8.156 -0.0801  0.0388 -0.2668
72002W        W14993  11.519  17.308  26.080 -0.2141 -0.0727  0.3055
72003W        W14994   3.838  34.355  27.207 -0.0871 -0.1404 -0.0339
72004W        W14995   1.459  18.764   4.840 -0.2666  0.1356  0.1158
72005W        W14996  11.002  23.534   8.284  0.3561  0.2372 -0.4167
72006W        W14997  17.704  16.021  28.425 -0.0644 -0.2169  0.1475
72007W        W14998   0.254  29.097   8.158  0.0263  0.0711  0.0799
72008W        W14999   1.371  29.164  21.991  0.1186 -0.2763  0.2189
72009W        W15000  31.691  20.093   2.721 -0.0153 -0.1992  0.2233
72010W        W15001   9.042   7.686  27.772 -0.4704 -0.3177 -0.2700
72011W        W15002   8.682  27.051  22.110  0.0060 -0.2376 -0.1870
72012W        W15003   4.580  28.575  23.617 -0.2230 -0.0362  0.1676
72013W        W15004  29.687  26.383  23.460 -0.0401  0.1860 -0.1422
72014W        W15005  33.462  15.392   3.269 -0.1324  0.4145 -0.0082
72015W        W15006   7.167  10.704   2.848  0.0314 -0.3287  0.5359
72016W        W15007  16.333  23.042   4.144 -0.2075  0.0025  0.0929
72017W        W15008  33.747  29.784  24.293 -0.1546 -0.0760 -0.0223
72018W        W15009  10.098  33.624   4.837  0.1140 -0.2558  0.2564
72019W        W15010  32.315  16.187  18.834 -0.4496 -0.0585 -0.0962
72020W        W15011  25.401  18.825   6.057  0.4177 -0.2891  0.2104
72021W        W15012   6.201  30.528  19.250  0.0498 -0.2863  0.2961
72022W        W15013  32.860   4.562  24.236 -0.4019  0.0466 -0.0751
72023W        W15014   7.366  33.676   1.068 -0.2607 -0.2266  0.1650
72024W        W15015   5.066  23.826   9.502 -0.3040 -0.0416  0.1536
72025W        W15016   8.091  16.528  27.657  0.0070 -0.0081  0.1315
72026W        W15017  15.969  12.968   0.156 -0.0027  0.2340  0.0381
72027W        W15018  10.583   2.997  24.644 -0.0566 -0.2868  0.1650
72028W        W15019   4.762   9.615   4.253  0.0433 -0.0911  0.1502
72029W        W15020   0.798  34.424  16.423 -0.1136  0.0061 -0.0056
72030W        W15021  25.590  18.784  26.067 -0.0224 -0.2603 -0.1721
72031W        W15022  23.991  22.410   2.610  0.1457 -0.2242 -0.1259
72032W        W15023  15.331  14.762  26.016 -0.0565  0.1708 -0.0546
72033W        W15024  20.673   6.075   6.535  0.0912  0.0221 -0.0960
72034W        W15025  34.453   2.594  26.652 -0.0433  0.0379 -0.3643
72035W        W15026   1.813  22.751  22.536 -0.1801 -0.1359 -0.3936
72036W        W15027   6.091  28.825  25.338  0.0352  0.0178 -0.3018
72037W        W15028  10.962   9.137   3.644  0.2186 -0.0627 -0.4412
72038W        W15029  17.017  30.976   4.753  0.0515 -0.1649  0.0964
72039W        W15030   3.225  18.816  10.576 -0.0863 -0.0852 -0.2328
72040W        W15031  21.750  26.410  27.015 -0.1174  0.4845 -0.3019
72041W        W15032  31.853   9.067   6.000 -0.4032  0.0430  0.1095
72042W        W15033   1.044   5.822  27.331 -0.1067 -0.1403  0.0631
72043W        W15034  30.639  13.302   7.185 -0.1080  0.2020 -0.3992
72044W        W15035  30.819  17.527  18.662 -0.1991 -0.2896  0.1563
72045W        W15036  13.500  29.229   8.669 -0.0183  0.1166  0.0330
72046W        W15037   5.407  17.258   0.332 -0.2064  0.0927 -0.1064
72047W        W15038   3.328  23.339  27.978  0.1334 -0.2159  0.1032
72048W        W15039   8.691   4.949  19.982  0.2309  0.0702 -0.3180
72049W        W15040   0.367   6.374   6.095  0.0366  0.0059  0.2574
72050W        W15041  29.464  22.444   5.720 -0.2322  0.1120 -0.0249
72051W        W15042   8.153  32.590   0.937 -0.2785 -0.0402 -0.3600
72052W        W15043   8.373   5.995  23.081 -0.1782  0.0828  0.0673
72053W        W15044   2.829  15.853  11.960 -0.2099 -0.1830  0.2001
72054W        W15045  29.144  28.144   9.324 -0.1143  0.2538 -0.1515
72055W        W15046   5.759  25.774   5.290 -0.1169  0.4731 -0.0175
72056W        W15047   1.640  21.431  23.145 -0.0303 -0.2186 -0.2104
72057W        W15048  34.666  29.238   2.519  0.1228 -0.2959  0.1168
72058W        W15049  31.289  15.189   1.721 -0.0251  0.1602  0.0648
72059W        W15050  34.619  28.352   0.144 -0.2748  0.0032  0.0272
72060W        W15051   7.342   9.857  10.982 -0.1065 -0.0097  0.2251
72061W        W15052   9.198   6.077   9.297 -0.0308 -0.0659  0.1051
72062W        W15053  32.729   8.831  10.184  0.1325  0.1368 -0.2834
72063W        W15054  14.406  11.419   5.764 -0.1283 -0.0241  0.0032
72064W        W15055  10.924  14.734  27.494  0.0885  0.0253  0.0558
72065W        W15056  29.867   2.415  14.476 -0.1259  0.1218  0.3120
72066W        W15057  19.427  25.332  28.563 -0.1069 -0.1268  0.1883
72067W        W15058  30.587   6.966   8.029  0.3511  0.1680 -0.2038
72068W        W15059   6.982  15.976   2.662 -0.1365  0.0641  0.1354
72069W        W15060   9.969  10.711   4.126 -0.1126 -0.1180 -0.0366
72070W        W15061  31.797  21.980   1.889 -0.3325  0.2698  0.0510
72071W        W15062   3.171  10.552  11.049  0.0492  0.1637 -0.0912
72072W        W15063  25.559  31.539  27.903  0.2686  0.1172 -0.1229
72073W        W15064   8.308  26.913  14.401  0.1279 -0.0421 -0.0854
72074W        W15065  31.775  15.489  10.150  0.2472 -0.1750 -0.1377
72075W        W15066  21.671   3.750  20.946 -0.0256  0.1904  0.1406
72076W        W15067  13.546  17.637   3.589 -0.1136  0.0423  0.0721
72077W        W15068   6.537   0.431   4.368  0.0704 -0.3433  0.0968
72078W        W15069   8.082  23.334  16.110  0.0623 -0.2809  0.0432
72079W        W15070  30.343  12.093   0.120  0.0493  0.2937 -0.1011
72080W        W15071  34.427  25.788  29.222 -0.0243 -0.0378  0.3787
72081W        W15072  18.452   5.759   2.602  0.1888  0.1377 -0.0093
72082W        W15073  27.924  14.913  24.976  0.2286 -0.0076 -0.0617
72083W        W15074  21.406  18.880   5.453  0.0275  0.0147 -0.0029
72084W        W15075  21.277  28.895  21.227  0.3230  0.2813  0.1916
72085W        W15076  15.477  17.580  27.307 -0.1722 -0.0829  0.4469
72086W        W15077   1.128  26.464   7.853  0.1516 -0.1289 -0.1538
72087W        W15078  24.029   0.744  15.138  0.3245 -0.2070 -0.0252
72088W        W15079  32.692  10.344   9.033  0.2071  0.3160  0.1990
72089W        W15080   2.242  17.207   1.306  0.3945  0.1445 -0.2194
72090W        W15081   8.964  27.459  25.709  0.1451 -0.3498  0.0211
72091W        W15082   9.025  25.171  22.483 -0.0118  0.2086  0.0186
72092W        W15083  11.552  18.935   7.866 -0.0630 -0.0152  0.3405
72093W        W15084  32.717  18.494  16.326  0.1930  0.0054 -0.1176
72094W        W15085  14.312  24.824   6.904  0.0302  0.1271 -0.0675
72095W        W15086  14.936  28.215   0.417  0.0384 -0.0223 -0.1248
72096W        W15087  29.079  13.911   2.682  0.0811  0.1829  0.0262
72097W        W15088  24.862  33.389  25.201 -0.0016 -0.2089 -0.2173
72098W        W15089  14.634  14.829  23.961  0.2980 -0.0330 -0.0624
72099W        W15090  17.311  29.474   3.894 -0.1869  0.0497 -0.1717
72100W        W15091   9.513  16.715  10.656 -0.1182 -0.2055  0.0521
72101W        W15092  32.151  30.929   3.482 -0.4770 -0.0507 -0.2446
72102W        W15093   6.966  25.766   1.586 -0.0902  0.2565  0.2180
72103W        W15094  24.009  20.063   4.755 -0.0304 -0.3193  0.1471
72104W        W15095  15.567  14.775  28.977  0.1952  0.0019 -0.3333
72105W        W15096   5.846  16.415  28.264  0.2266  0.0746 -0.3576
72106W        W15097   2.444  26.486   2.815  0.0054 -0.1612  0.2027
72107W        W15098   7.821  24.623   3.742  0.4885  0.0321  0.1925
72108W        W15099  12.659   8.601  24.704  0.0909  0.1588  0.2626
72109W        W15100  14.490   7.421  10.856  0.0801  0.3017 -0.1928
72110W        W15101   0.500  20.035   8.174 -0.1505  0.2953  0.0275
72111W        W15102  33.183  21.194   0.344  0.2011 -0.4041 -0.1383
72112W        W15103   6.779  33.475   1.962 -0.1542 -0.0288 -0.0302
72113W        W15104   5.790  11.070   5.995  0.0085  0.5536 -0.3550
72114W        W15105   2.177   5.981  27.263 -0.1245  0.1162 -0.0203
72115W        W15106  13.100  27.242   8.659  0.0447 -0.2354  0.0366
72116W        W15107  24.554  17.596   4.353 -0.1027 -0.3496 -0.3195
72117W        W15108  17.089   9.288   7.276  0.1001 -0.0253  0.1041
72118W        W15109  33.077  10.004   8.923  0.1005  0.1490  0.2094
72119W        W15110   4.490  24.858   7.346  0.0674 -0.1514  0.0102
72120W        W15111  25.800  33.959  19.677  0.3137  0.1944  0.0975
72121W        W15112  25.737  19.318   6.373  0.3680  0.0448  0.3331
72122W        W15113  15.456   2.305  20.097 -0.1417 -0.2150 -0.1761
72123W        W15114   4.166  11.105  23.453 -0.0352 -0.0353  0.2310
72124W        W15115  12.893  11.782  20.256  0.1016  0.0096 -0.0826
72125W        W15116   0.721  19.260   7.370  0.0188 -0.1630 -0.2295
72126W        W15117  29.972  19.540   7.036  0.3988  0.0986 -0.2443
72127W        W15118  33.808  20.955   8.371  0.1841  0.1899 -0.0631
72128W        W15119   5.822   8.500  23.223  0.2194 -0.3927  0.1211
72129W        W15120  34.469  30.908  28.192  0.1350 -0.1291  0.0749
72130W        W15121   2.946  25.788  26.757  0.0092  0.1320 -0.3198
72131W        W15122  29.148  21.094   7.993  0.1543 -0.0180 -0.0778
72132W        W15123  15.007  15.211   3.626 -0.0791 -0.2265  0.0738
72133W        W15124  16.387  27.881   4.137  0.0360 -0.0733 -0.4100
72134W        W15125   9.164  16.350  27.852 -0.0653  0.0957 -0.0046
72135W        W15126   2.884  16.083   7.393  0.0744  0.1339  0.4635
72136W        W15127   8.163  27.953   4.703 -0.0422  0.3303  0.0185
72137W        W15128   1.105   4.881  20.348 -0.0620 -0.1513 -0.1756
72138W        W15129  13.088  26.924   7.445 -0.2194 -0.3715  0.2946
72139W        W15130   0.146  21.689   0.571 -0.1372  0.0773 -0.1498
72140W        W15131   7.429  19.005   1.429 -0.2335  0.0013 -0.1690
72141W        W15132  13.134  21.498   6.212 -0.1475 -0.0283 -0.0650
72142W        W15133   1.630  27.133   9.253 -0.0257  0.2233 -0.0400
72143W        W15134  29.568  23.382  27.739 -0.1072 -0.1339  0.0460
72144W        W15135   9.082   8.459   6.342  0.2847 -0.1803  0.0275
72145W        W15136   2.128  23.551   3.880  0.1442  0.1746  0.0119
72146W        W15137   0.463  19.031  28.945 -0.1323 -0.1507  0.2147
72147W        W15138  10.578  23.447   5.107 -0.1411  0.0902  0.0592
72148W        W15139   4.083   3.493   5.377 -0.1454 -0.2801  0.0847
72149W        W15140   0.989  19.495   2.552 -0.0067 -0.2382 -0.1218
72150W        W15141  34.612   2.481   6.752 -0.1204  0.2719  0.1439
72151W        W15142  33.320   8.126   2.632  0.0382 -0.1095 -0.1196
72152W        W15143  16.809  29.931   6.533 -0.0448  0.0811  0.2922
72153W        W15144   9.900   7.559   9.095  0.0258  0.0170 -0.0761
72154W        W15145   8.778  22.081   8.404  0.4378  0.4391  0.3050
72155W        W15146   4.550  31.402  27.159  0.0797 -0.3939 -0.0289
72156W        W15147  32.769  28.785  29.017 -0.2652 -0.0856  0.1029
72157W        W15148   9.680  15.343   9.293  0.1421 -0.1818 -0.1627
72158W        W15149  10.082  25.685   1.578  0.1019 -0.0926 -0.3924
72159W        W15150   8.124  31.007  24.505  0.0748 -0.2239  0.4394
72160W        W15151  21.331   4.632  25.349 -0.0952 -0.1157 -0.2195
72161W        W15152  30.621  26.691  19.862 -0.1124 -0.0580 -0.1287
72162W        W15153  12.345  24.946   5.255  0.1691  0.1607  0.0129
72163W        W15154  32.382  11.479   0.928 -0.0716  0.0200 -0.2862
72164W        W15155  27.450  20.788   6.907  0.3436 -0.1721  0.0079
72165W        W15156   2.454  10.399   3.929  0.6663  0.0239  0.0398
72166W        W15157  13.676   0.182  22.328  0.1988  0.2334 -0.0427
72167W        W15158   4.142  27.062  20.658 -0.0655 -0.2284  0.3606
72168W        W15159  13.224   9.901   8.996 -0.1896  0.0347  0.0556
72169W        W15160  17.275  25.027   5.503 -0.0420 -0.1310  0.0544
72170W        W15161   5.473  16.050   4.092  0.2265  0.1673  0.0123
72171W        W15162  33.185  14.788   8.935  0.2516  0.2275  0.0769
72172W        W15163  15.764  12.483   0.325  0.1075  0.3982 -0.1028
72173W        W15164   1.449  20.025   9.510  0.2872  0.1581  0.0957
72174W        W15165  34.691  14.305   3.757 -0.1961 -0.0804  0.2290
72175W        W15166   8.170  28.291   3.964 -0.1683  0.0123 -0.0623
72176W        W15167  31.748  20.228   4.950 -0.0654 -0.2489 -0.0128
72177W        W15168  14.416  34.186   5.365 -0.2025 -0.2293  0.3609
72178W        W15169   6.441  11.972  26.927 -0.2002 -0.1147  0.0137
72179W        W15170  32.262  16.434   5.921  0.1800  0.3037  0.2446
72180W        W15171  16.694  33.684   5.191 -0.3379  0.0303 -0.1834
72181W        W15172  30.477  23.247   5.279  0.0116 -0.2296 -0.0577
72182W        W15173  30.482  19.284   4.244 -0.3349 -0.2118 -0.0125
72183W        W15174   7.948  19.199   7.598  0.1924 -0.1900 -0.0984
72184W        W15175  11.397  20.901   5.595  0.1399 -0.1670 -0.0736
72185W        W15176   8.548   3.790   0.615  0.1416  0.1867 -0.1422
72186W        W15177  33.641  25.148   8.605  0.0665 -0.0226  0.1002
72187W        W15178  25.146  15.094   4.894  0.3309 -0.1831  0.2801
72188W        W15179  19.395   0.928   6.030  0.1875  0.1452 -0.3067
72189W        W15180   3.332   6.601   0.978  0.1348 -0.5093  0.0078
72190W        W15181   1.797   4.314  18.941 -0.1424 -0.0055  0.2466
72191W        W15182  11.301  20.232  28.215  0.1267 -0.0973 -0.1453
72192W        W15183  12.659  29.021  22.697 -0.3539  0.2329 -0.2071
72193W        W15184  15.312  25.677  23.102  0.1639  0.1548  0.1351
72194W        W15185  15.375  12.696   9.348  0.2545  0.0002 -0.2554
72195W        W15186  34.464  23.211   1.389 -0.1185 -0.0394  0.0594
72196W        W15187   7.190  13.891   9.753  0.0180  0.1293  0.0031
72197W        W15188  11.177  13.657   8.169 -0.1119  0.0024  0.0876
72198W        W15189   3.573   4.993   4.808  0.1749 -0.2755  0.2688
72199W        W15190  25.417   1.710   6.177  0.0787  0.0723  0.2471
72200W        W15191   5.567  16.325  10.115  0.1931 -0.5391 -0.0859
72201W        W15192   4.164  26.326   4.861  0.0812 -0.1566 -0.3092
72202W        W15193  31.863  16.031   7.224 -0.0578  0.1308  0.0335
72203W        W15194  25.218  27.453   0.827 -0.0813  0.1857  0.0466
72204W        W15195  30.187   2.471   1.120  0.2094 -0.0010 -0.1314
72205W        W15196  33.446   4.536   9.597 -0.0738  0.1508 -0.0840
72206W        W15197  27.955  21.560   7.474  0.0866 -0.0223  0.0223
72207W        W15198   7.795  30.766   8.410 -0.0986  0.0662  0.0095
72208W        W15199  10.797  15.973  27.705  0.2463  0.0929  0.1874
72209W        W15200  21.204  14.541   4.045  0.1901  0.2502 -0.0244
72210W        W15201  26.577  22.361  14.335 -0.2163  0.0173 -0.2886
72211W        W15202  33.814  22.427  29.126 -0.1194 -0.1717 -0.4619
72212W        W15203   3.822  20.904   6.889  0.1194 -0.2085 -0.3096
72213W        W15204   2.195  19.849   4.714 -0.2714 -0.1989  0.2720
72214W        W15205   3.902  28.717   2.924 -0.1001 -0.1777  0.0972
72215W        W15206   5.921  21.130   5.577 -0.3914  0.1810  0.2272
72216W        W15207  30.325  33.078   3.377  0.0503 -0.1694  0.1559
72217W        W15208  14.626  16.638   2.315  0.0015  0.2296  0.0771
72218W        W15209   3.131  20.464   9.599 -0.2334  0.1638  0.0391
72219W        W15210  22.022  30.469  29.160  0.2058  0.0814 -0.0020
72220W        W15211  10.307  21.692  22.970  0.2408  0.1422  0.0560
72221W        W15212   8.891  19.269   1.840  0.0977  0.1236  0.0160
72222W        W15213  13.556  16.225  21.257 -0.0707 -0.0130  0.0344
72223W        W15214   3.508  19.936   0.026  0.2079  0.2934  0.0780
72224W        W15215  21.769  17.785   5.543  0.0017 -0.1558 -0.3571
72225W        W15216  11.035  12.878   0.559 -0.0911 -0.3442 -0.3937
72226W        W15217   2.552  16.279   7.726  0.1129 -0.0338  0.0341
72227W        W15218  27.165  30.294   0.186  0.0661 -0.0519  0.1558
72228W        W15219   9.715  11.256   9.607 -0.0245 -0.1293  0.0001
72229W        W15220  18.754  17.992  27.338  0.3134 -0.3663  0.3546
72230W        W15221  11.760   6.784  10.306  0.1169  0.1310 -0.1390
72231W        W15222   1.788  16.669   7.149 -0.1240 -0.0901  0.0052
72232W        W15223  13.347   9.933  27.711  0.0372 -0.2249  0.0143
72233W        W15224   6.625  16.930  25.571  0.0145  0.0090  0.1832
72234W        W15225   5.628  24.912   0.571  0.0490 -0.1517  0.1584
72235W        W15226  26.551  16.877   1.693 -0.4370  0.0231  0.0137
72236W        W15227   3.474  19.976   4.761  0.2826  0.1682 -0.2982
72237W        W15228   8.312  31.766   8.119  0.2580  0.2005 -0.2208
72238W        W15229  10.069  15.861  10.321 -0.0460  0.1315 -0.1272
72239W        W15230  12.059  10.647   9.585  0.4337 -0.0706  0.0462
72240W        W15231  33.615  13.323   5.154 -0.1002 -0.0846 -0.0326
72241W        W15232  15.722   5.058   5.231  0.1808  0.1331  0.0267
72242W        W15233   7.962  22.101  26.545 -0.2937  0.1678  0.1123
72243W        W15234  24.102  13.234   6.824 -0.0422 -0.1081 -0.3298
72244W        W15235   7.648  30.008   1.137  0.1795  0.1072 -0.2206
72245W        W15236  16.562  14.064  15.235 -0.0235  0.1540  0.0545
72246W        W15237   1.320   7.319  19.620  0.2133  0.4095 -0.1075
72247W        W15238   2.180  14.449   9.142  0.0959  0.1649  0.0803
72248W        W15239  27.944  12.362  21.145  0.3446  0.4135 -0.0290
72249W        W15240  18.745   9.927   5.061  0.1349 -0.0084  0.4174
72250W        W15241   0.035  13.246   6.613 -0.1811  0.0042 -0.1540
72251W        W15242  25.088  10.740   2.599  0.0620  0.1798 -0.0177
72252W        W15243  16.786  21.245   5.185 -0.1198  0.1831  0.0680
72253W        W15244  28.056  17.033   4.890  0.0479 -0.0225  0.1184
72254W        W15245  16.393  22.840   6.103 -0.0713  0.1627  0.3283
72255W        W15246   8.901  27.284   9.525 -0.1655 -0.0347 -0.0110
72256W        W15247   8.215   7.473  10.657 -0.1370  0.0248  0.1887
72257W        W15248   0.707  17.646  10.415  0.0378 -0.0105  0.1826
72258W        W15249   2.579  23.266   7.411  0.1098  0.1266  0.0544
72259W        W15250   0.247  19.528   3.903  0.0207  0.2640  0.0836
72260W        W15251  11.894  17.625   6.208 -0.2209 -0.1152  0.1234
72261W        W15252  14.524  13.804  29.210  0.2020 -0.0182 -0.3136
72262W        W15253  10.376   7.664   7.138 -0.0877  0.1991  0.5531
72263W        W15254  21.232  24.150   6.127 -0.0968 -0.2683  0.3649
72264W        W15255   8.632  17.780   0.419 -0.1476 -0.1851  0.3016
72265W        W15256  21.867  12.072   6.025 -0.1606 -0.1430 -0.2036
72266W        W15257   6.654  20.769   9.271  0.0696 -0.2208 -0.2457
72267W        W15258  31.805  25.215   0.796  0.2440 -0.2162  0.1315
72268W        W15259  31.062  17.172   0.944 -0.0345  0.0577 -0.0374
72269W        W15260  12.090  15.725   6.007  0.1184  0.0495  0.0083
72270W        W15261   4.811  27.930  28.037  0.1440 -0.1301  0.0266
72271W        W15262   6.625  18.180   3.758 -0.1218 -0.1100 -0.3941
72272W        W15263   6.087   2.920  22.712  0.3004  0.1897 -0.1921
72273W        W15264  32.393   7.202   4.159 -0.0492  0.2589 -0.0190
72274W        W15265   1.286  26.077  28.105  0.0749 -0.0194 -0.0447
72275W        W15266   6.231  27.993   4.284 -0.3361 -0.4415 -0.0854
72276W        W15267  34.610   6.764   2.262 -0.0251 -0.0229 -0.0557
72277W        W15268  10.818  23.435  25.397 -0.0269  0.0315 -0.0004
72278W        W15269  34.663  30.795   5.611 -0.0428  0.4307 -0.1736
72279W        W15270  22.609  34.001   2.997  0.0538  0.1054 -0.1098
72280W        W15271   2.304  19.247  10.579 -0.0219  0.4368 -0.2103
72281W        W15272  27.833  17.024   5.509 -0.0232 -0.2233 -0.2080
72282W        W15273  15.918  23.396  13.324 -0.1811 -0.6015  0.0065
72283W        W15274   9.847  25.531   5.894 -0.1590  0.0488 -0.3771
72284W        W15275   3.003   5.417   5.360 -0.1760  0.2897 -0.0352
72285W        W15276   6.857  21.227   9.060 -0.4474  0.2177 -0.0281
72286W        W15277  12.446  23.549   8.858 -0.0580  0.0858 -0.0386
72287W        W15278   0.232  12.290   4.394 -0.0259  0.1221  0.1471
72288W        W15279  32.811  20.125   1.754  0.1268  0.2766 -0.1531
72289W        W15280   6.174  21.192  26.948  0.0840  0.2622 -0.1327
72290W        W15281   4.184  12.301   2.311 -0.1829 -0.1030  0.1338
72291W        W15282  28.050  13.897   1.873  0.1023 -0.3460 -0.0560
72292W        W15283   6.256  30.924  18.970  0.1137  0.1000 -0.0356
72293W        W15284  10.072  29.313   9.813  0.3544  0.3902 -0.0071
72294W        W15285   3.322  33.877   3.333 -0.2655  0.2452  0.2721
72295W        W15286  33.303  25.055   8.986 -0.0817  0.1851 -0.0954
72296W        W15287   9.661   6.132   9.236  0.0741  0.0864  0.1191
72297W        W15288  12.081   9.653   8.843  0.0234 -0.0615  0.1046
72298W        W15289   2.195  27.257  27.708 -0.1601  0.1524  0.3255
72299W        W15290  10.388  31.460   0.436  0.1657 -0.1850 -0.2117
72300W        W15291   7.357  13.626   4.767 -0.2556  0.2632  0.3926
72301W        W15292   8.205  14.008   5.466 -0.2268  0.1883 -0.2508
72302W        W15293   3.379  11.533   7.715  0.0820  0.4732 -0.0513
72303W        W15294  17.050  12.279   5.094 -0.1777 -0.2267 -0.1013
72304W        W15295   4.072  10.208  11.277  0.1094 -0.0665  0.0027
72305W        W15296  31.204  27.494  22.487 -0.0282  0.0677 -0.0050
72306W        W15297  25.773  22.516   9.114  0.0616  0.0166  0.0886
72307W        W15298   8.926  18.733  23.612  0.2647 -0.2335 -0.0927
72308W        W15299  24.624  32.118  29.214 -0.1256 -0.0139  0.1262
72309W        W15300   5.046   6.527   8.156 -0.1709  0.0185 -0.0993
72310W        W15301   1.549  22.650   7.772 -0.0086  0.1419  0.1532
72311W        W15302  32.900  21.998   5.117 -0.3043  0.1816 -0.2836
72312W        W15303   4.932  14.400   3.763  0.1561 -0.0995  0.3122
72313W        W15304  10.014  18.819   2.281  0.1301 -0.2112  0.3978
72314W        W15305  14.958  32.976   3.858 -0.2570 -0.0023 -0.1414
72315W        W15306   4.286  23.836   9.785  0.0035  0.1813 -0.0130
72316W        W15307  32.511  22.524  25.863 -0.0483  0.1093  0.1595
72317W        W15308  18.074  24.158   8.588  0.0049 -0.3432 -0.0852
72318W        W15309   9.934  23.574   9.564  0.0204  0.0051  0.1339
72319W        W15310   9.430  25.178   7.261  0.1811  0.2168  0.1803
72320W        W15311  20.977  15.743  14.558  0.1610 -0.1550 -0.2200
72321W        W15312   2.497   8.694  11.631 -0.3019  0.0595  0.0409
72322W        W15313  32.934   3.043  26.945 -0.0009 -0.0448 -0.0689
72323W        W15314  29.075  34.046  13.113  0.1126  0.0080 -0.2607
72324W        W15315   8.947  23.224  28.575  0.1493 -0.2561 -0.3371
72325W        W15316  30.676  18.430   5.915 -0.2950  0.0139 -0.0366
72326W        W15317   8.708   0.635  28.392  0.2176 -0.1739 -0.1416
72327W        W15318   1.348  12.255   5.983 -0.0960  0.0103  0.0898
72328W        W15319   6.801  23.230   1.204 -0.2889 -0.0209 -0.1981
72329W        W15320   7.031  17.235   9.537 -0.0133 -0.0546 -0.4311
72330W        W15321  17.312  25.882  18.443 -0.0716  0.1535  0.0848
72331W        W15322   9.237  17.075   4.808 -0.1181 -0.0428  0.0830
72332W        W15323  10.835  17.848   8.581  0.1889 -0.3244  0.1726
72333W        W15324  34.107   0.531  26.731 -0.0363 -0.0750  0.0701
72334W        W15325  26.878   9.877   2.536 -0.2457 -0.1855 -0.1714
72335W        W15326   7.904  21.006  24.936  0.2148  0.1039 -0.1695
72336W        W15327  13.748  22.522  16.259  0.0310  0.1906 -0.0868
72337W        W15328   0.641  11.010   7.071  0.0263  0.2854 -0.1739
72338W        W15329  18.605  11.182  28.769  0.1224 -0.0978 -0.2714
72339W        W15330  33.494  19.785  27.696 -0.2977  0.0459 -0.2614
72340W        W15331   9.719  30.305   0.221  0.2424 -0.0149  0.0364
72341W        W15332   7.803   5.658   9.071  0.1445  0.1020 -0.2842
72342W        W15333  32.308  13.334   9.748 -0.1171 -0.2754 -0.1254
72343W        W15334   9.141  32.979  29.071  0.0953 -0.1092  0.0285
72344W        W15335  29.638  18.560   4.169 -0.0311 -0.0344  0.3288
72345W        W15336  10.543  14.066  24.085 -0.2811  0.0561  0.1221
72346W        W15337  24.880  11.220   8.844  0.1699  0.0888 -0.0588
72347W        W15338   6.981   7.569  21.410 -0.2590 -0.1644 -0.0428
72348W        W15339   2.729  29.249  25.118  0.0311  0.2112 -0.3108
72349W        W15340   1.491   4.897   6.225  0.2547 -0.1062 -0.3611
72350W        W15341   8.794   0.565   9.474 -0.0360  0.0047  0.1587
72351W        W15342   6.647   4.120   8.809 -0.2190 -0.2408 -0.0968
72352W        W15343  19.142  16.637  23.315  0.0834 -0.0160 -0.0390
72353W        W15344  12.656  13.990   6.926 -0.1605  0.3036  0.1645
72354W        W15345   7.792  18.063  26.642 -0.5021  0.1498  0.1248
72355W        W15346  16.553  12.079   3.399  0.0082 -0.0976 -0.0385
72356W        W15347   7.673  30.866   2.150 -0.0518  0.2406 -0.2381
72357W        W15348  16.646  24.072   9.055 -0.2390 -0.0078 -0.2213
72358W        W15349  26.709   0.233  26.262 -0.2950 -0.0270 -0.2050
72359W        W15350  20.267  11.932   2.715 -0.1488 -0.0479 -0.1360
72360W        W15351  20.964  14.809   5.233 -0.3740 -0.0106  0.1234
72361W        W15352   9.577  20.579  28.558 -0.0526 -0.2744  0.1267
72362W        W15353   5.613  23.498   8.552 -0.0164  0.1114  0.1100
72363W        W15354  20.911  27.065  26.831  0.1626  0.0137  0.0207
72364W        W15355  33.113  28.801   0.584  0.2709  0.0311  0.1200
72365W        W15356  17.791  29.346   8.671  0.3011 -0.1553 -0.1441
72366W        W15357   2.443  24.118   5.673 -0.0477 -0.2185 -0.0258
72367W        W15358  18.989  11.808   9.135 -0.1884 -0.0490 -0.0503
72368W        W15359  33.099   7.757   7.997 -0.3007 -0.2293 -0.1548
72369W        W15360  31.824  17.524   1.363 -0.1856 -0.0052  0.3266
72370W        W15361   3.680  27.652   8.069  0.0913  0.0937  0.1145
72371W        W15362  33.457  12.662   3.649 -0.0441 -0.2482 -0.0089
72372W        W15363   6.106  25.286   2.263 -0.0391  0.1490 -0.0022
72373W        W15364  10.381  18.335   3.605  0.0460  0.2122  0.0576
72374W        W15365   5.351   4.940   0.197  0.2263 -0.0568 -0.0314
72375W        W15366  33.578  25.096   5.580 -0.3180  0.0422  0.1354
72376W        W15367   1.418  29.732   9.562 -0.2312  0.0200 -0.0807
72377W        W15368  20.416   9.755   3.473 -0.1524  0.0855 -0.0882
72378W        W15369   4.045   8.082   3.774  0.0298  0.1358 -0.0513
72379W        W15370  16.944  22.439   7.653 -0.0846 -0.2322  0.0831
72380W        W15371   1.566  11.554  28.441  0.4150 -0.1173  0.2644
72381W        W15372   4.064  24.929   7.655  0.1366  0.3223  0.0034
72382W        W15373  18.237  17.413  12.478  0.0677  0.2052 -0.0911
72383W        W15374  32.357  23.631  27.875  0.0510  0.1365 -0.0617
72384W        W15375  10.904  21.235  26.519 -0.0088  0.3221  0.0872
72385W        W15376  11.636  25.544  21.301 -0.2773 -0.1723 -0.0524
72386W        W15377   4.259  11.212  26.640 -0.0358  0.3652 -0.0483
72387W        W15378  23.304   9.170   9.594 -0.2433  0.0343 -0.1897
72388W        W15379  10.262  17.934   0.166 -0.0793  0.2421 -0.3058
72389W        W15380  13.004  11.462   7.302  0.1632  0.2242  0.1145
72390W        W15381  32.728   9.401   9.456  0.2788 -0.0693  0.0039
72391W        W15382  34.187  18.634   7.372  0.0851 -0.2256  0.0631
72392W        W15383  26.838  10.365  28.415  0.2498 -0.2898  0.2976
72393W        W15384   6.658  11.122  22.945  0.0973  0.1510  0.1976
72394W        W15385   1.512   9.069  27.911  0.3333  0.0570 -0.0615
72395W        W15386   5.779   2.738   5.862  0.3107  0.1086 -0.0190
72396W        W15387  25.392  12.651   3.689  0.0485  0.0028 -0.1061
72397W        W15388   4.607  30.012  22.430 -0.3781  0.0022  0.0922
72398W        W15389   5.052   2.857   2.897  0.1463 -0.2529  0.0527
72399W        W15390  11.301  30.369   5.169 -0.0703 -0.2671 -0.2496
72400W        W15391  18.120  16.966   5.710 -0.2809 -0.0095  0.0588
72401W        W15392  16.771   0.255   2.104 -0.1228  0.1233 -0.1351
72402W        W15393  11.188  22.098  26.378 -0.1364  0.0965 -0.1134
72403W        W15394   4.723  29.175  25.940  0.2049 -0.0134 -0.1453
72404W        W15395  14.851   9.051  26.283 -0.2985  0.0414  0.0675
72405W        W15396  31.826  17.270   3.007  0.0866 -0.2941 -0.0073
72406W        W15397  34.724  16.363   7.541  0.2539  0.3439 -0.0614
72407W        W15398   9.612  25.814  24.082  0.2264  0.1167 -0.1838
72408W        W15399   2.078  20.471   5.510 -0.0942  0.0746 -0.2131
72409W        W15400   5.950  21.602   6.853  0.1194  0.1097 -0.2436
72410W        W15401  22.203  16.356   3.152 -0.0248  0.0866 -0.0973
72411W        W15402  20.512   2.140   7.121 -0.4073  0.1475 -0.2649
72412W        W15403  15.608   6.950   8.645 -0.0202 -0.1419  0.2910
72413W        W15404  17.524  21.848   1.764  0.1030 -0.0851  0.0779
72414W        W15405   7.169  16.121  26.174  0.2516 -0.2719 -0.1878
72415W        W15406  33.637  17.407   7.067 -0.0718  0.3036  0.1276
72416W        W15407  28.353  24.674  29.107  0.1982  0.1166 -0.4114
72417W        W15408  22.255   4.618  22.319 -0.0782 -0.1928 -0.3082
72418W        W15409   1.319  33.594   4.194  0.2084  0.1456  0.1378
72419W        W15410  33.821  17.434   1.261  0.0182  0.3070  0.2873
72420W        W15411  32.395  24.697   8.722 -0.0731  0.1792  0.0658
72421W        W15412  32.918  12.405  20.657 -0.0668 -0.1389 -0.2927
72422W        W15413  34.449   7.618   0.915 -0.3905  0.0880  0.1165
72423W        W15414  33.205  15.702  25.811 -0.0373 -0.1143 -0.3699
72424W        W15415   5.445  22.471  19.594  0.2329 -0.1491  0.0273
72425W        W15416   4.616  20.263   8.996 -0.0790 -0.2289 -0.1717
72426W        W15417  22.533   8.832   0.967  0.2042 -0.3167  0.0503
72427W        W15418  13.061  16.798   1.584  0.1407  0.1495  0.0813
72428W        W15419  12.731  31.978   6.648  0.1459 -0.1645  0.3991
72429W        W15420  12.126  33.943   4.404  0.2764  0.1124  0.0347
72430W        W15421   3.477  25.773   5.071 -0.1475  0.2007  0.0673
72431W        W15422   9.058  18.429   8.427 -0.1552 -0.0286 -0.0907
72432W        W15423   7.064  23.961   9.894 -0.1268  0.0127 -0.0196
72433W        W15424   1.596  17.108  26.993 -0.1642 -0.0712  0.0411
72434W        W15425   4.254  10.657  10.516 -0.1012 -0.3062 -0.2517
72435W        W15426  30.216  33.994   8.027 -0.2473  0.1327  0.2345
72436W        W15427  23.989  32.056   0.098  0.3220  0.0574  0.0851
72437W        W15428  11.505   7.769  10.774 -0.1095  0.1343  0.0800
72438W        W15429   9.784  15.676  14.909 -0.0537  0.1884 -0.0183
72439W        W15430  11.967  22.258   3.057  0.2025  0.1043  0.0960
72440W        W15431  16.307  19.482   3.669 -0.0730  0.1259  0.1119
72441W        W15432  30.366  16.394   9.568 -0.2558  0.0554 -0.1357
72442W        W15433  23.915  22.957  28.963  0.1825  0.1517 -0.1348
72443W        W15434   4.333  16.040   5.695  0.2127  0.1648 -0.1486
72444W        W15435   0.573  26.683   8.466 -0.0094 -0.3104  0.1006
72445W        W15436  11.943  18.298   2.617 -0.2158  0.1595 -0.3352
72446W        W15437   6.008  34.375  16.949  0.0492 -0.1019 -0.0377
72447W        W15438   0.123   1.411   5.693  0.2109 -0.1606  0.3205
72448W        W15439  16.682  22.897   0.102 -0.4289  0.0855 -0.0446
72449W        W15440   1.073  12.554   6.330 -0.2795 -0.0686  0.0069
72450W        W15441  28.805  17.960   5.705 -0.2789 -0.1115 -0.1829
72451W        W15442   2.043   7.827  18.385 -0.0270  0.1774 -0.0993
72452W        W15443  29.164  14.760   4.086  0.1813  0.0115  0.0954
72453W        W15444   5.301  24.606   0.263 -0.3437 -0.4683  0.0116
72454W        W15445  19.479  28.292   4.096  0.0373 -0.1353 -0.1005
72455W        W15446  33.239  10.786  11.745 -0.3350  0.0634 -0.0996
72456W        W15447  17.637  25.360  28.203 -0.0433 -0.5432  0.1445
72457W        W15448  13.362  28.993   2.992  0.1335  0.2547 -0.0969
72458W        W15449   4.285  19.452   8.272 -0.0374 -0.1712 -0.3534
72459W        W15450   5.276  30.899   3.783  0.1381  0.1145 -0.2556
72460W        W15451   6.305   1.417   3.029 -0.1973 -0.3059 -0.1300
72461W        W15452  32.584  22.695   6.780 -0.0708  0.0145 -0.1488
72462W        W15453   7.700  19.549   0.214 -0.3437  0.1196 -0.1089
72463W        W15454   5.833  13.399  10.566 -0.4139  0.2739  0.2055
72464W        W15455  13.776  15.119  25.823 -0.0656  0.0262 -0.2340
72465W        W15456   4.193  29.509  25.324 -0.0084 -0.1105  0.0100
72466W        W15457  11.135  20.872   8.865  0.3493 -0.0773 -0.1801
72467W        W15458  26.440  11.822   5.037 -0.1997 -0.1559 -0.1327
72468W        W15459   9.473  18.922  25.096 -0.2384 -0.1730 -0.1856
72469W        W15460   5.175  10.933  25.029  0.0116  0.1537 -0.0295
72470W        W15461   9.638  21.994  28.626 -0.1582  0.0996 -0.0993
72471W        W15462   2.488  15.454   6.283 -0.0031 -0.0119 -0.0226
72472W        W15463   7.573   0.812   2.173 -0.0836  0.0685 -0.0388
72473W        W15464  10.600  26.407   1.394  0.1137 -0.2980 -0.0635
72474W        W15465  10.768  19.832   5.058 -0.1703  0.0314  0.1310
72475W        W15466  21.362  16.849   8.358 -0.0297  0.0609 -0.0611
72476W        W15467  18.241  11.375  25.270 -0.2377  0.2301  0.0998
72477W        W15468  15.783  16.523   2.577  0.1906  0.1106  0.2605
72478W        W15469   6.149  23.434  23.257 -0.2877  0.0072 -0.2018
72479W        W15470  13.830  22.895   8.542 -0.0753 -0.1076  0.1525
72480W        W15471   0.371  23.425   3.598 -0.0912  0.2320  0.0283
72481W        W15472  13.463  12.367  15.227 -0.0997  0.4687  0.1192
72482W        W15473   7.575  30.215   3.909  0.0871 -0.2828 -0.0072
72483W        W15474  17.160   6.312   4.579 -0.1891 -0.0809 -0.1207
72484W        W15475  22.886  18.461  18.436 -0.1027  0.2284 -0.1645
72485W        W15476   7.288  19.174  22.114  0.2140  0.0898  0.3375
72486W        W15477   5.984  31.784  28.384  0.1258 -0.0868  0.0120
72487W        W15478   8.929  26.117   1.455 -0.2056 -0.1275  0.1244
72488W        W15479   8.517  11.465  11.282  0.1975  0.3184  0.1319
72489W        W15480  18.813   0.208   4.600  0.0899  0.2643 -0.4356
72490W        W15481  14.365   5.622  25.210 -0.0167 -0.1581  0.0228
72491W        W15482  13.909  24.648  23.291 -0.0244  0.1623 -0.0378
72492W        W15483  22.199  15.596   0.356  0.2559 -0.1606  0.1298
72493W        W15484  15.949  18.227  24.916  0.1097 -0.0215 -0.0503
72494W        W15485  10.646   8.141   1.596  0.2431  0.1143  0.0263
72495W        W15486   8.229   8.011   4.315  0.0387  0.2211  0.2699
72496W        W15487   3.843   2.303   5.829 -0.1280  0.0656 -0.4053
72497W        W15488   3.803  22.623   2.191  0.1500  0.0131  0.0869
72498W        W15489   1.519  11.498   5.651 -0.3921 -0.3013 -0.0146
72499W        W15490   1.822  22.347   8.026 -0.5908 -0.0686 -0.1759
72500W        W15491  32.594  18.602   0.043 -0.4455 -0.1948  0.4156
72501W        W15492  11.836  30.581   5.052  0.0963  0.1366 -0.0834
72502W        W15493   0.775  14.270  27.171 -0.1317  0.2066 -0.0161
72503W        W15494  31.172  21.926   0.817 -0.2795 -0.0254 -0.1733
72504W        W15495   9.138   5.609  28.838 -0.2536  0.0816 -0.0338
72505W        W15496  30.070  16.812   9.136 -0.2769  0.0832 -0.0574
72506W        W15497  19.454   3.046   5.482  0.3725  0.0457  0.2683
72507W        W15498   6.528  11.906  10.557 -0.2355 -0.1004  0.1366
72508W        W15499   4.873  14.853   9.366  0.1964 -0.2543 -0.0186
72509W        W15500  15.418  24.018   3.407 -0.1408 -0.2600  0.2241
72510W        W15501   6.442  19.509   6.625  0.0122 -0.1531 -0.4008
72511W        W15502  24.018  28.064  29.031 -0.0510  0.0648  0.1916
72512W        W15503  17.364  23.104   2.612  0.0348  0.2897  0.0195
72513W        W15504  34.285  16.126  10.264  0.1299  0.1671 -0.0132
72514W        W15505   6.144  20.627   3.712  0.0854 -0.0426 -0.3745
72515W        W15506  31.165  19.858   9.018 -0.0448  0.1403  0.0961
72516W        W15507  14.790  20.714   4.767 -0.3512  0.2903 -0.4431
72517W        W15508  30.743  17.269   9.085 -0.0470  0.2863 -0.2662
72518W        W15509   8.433  26.102  28.244 -0.0068  0.2535  0.2215
72519W        W15510   7.799  24.125   1.275 -0.0441 -0.1302 -0.0735
72520W        W15511  13.615   7.992   6.575  0.3845 -0.2335  0.1129
72521W        W15512  13.995  18.137   7.680 -0.0752  0.3712 -0.2965
72522W        W15513  30.629   0.263   2.507  0.1329  0.2230 -0.1180
72523W        W15514  28.800  10.930   8.233  0.0894  0.1086 -0.5794
72524W        W15515   8.862  25.154  23.733  0.0495 -0.1905 -0.1012
72525W        W15516  21.621   7.432   2.961 -0.2786 -0.1751  0.1768
72526W        W15517  11.669  14.998   5.799  0.3916 -0.0786  0.0675
72527W        W15518  17.358  16.775   3.973  0.1450 -0.0600  0.0658
72528W        W15519  26.197  10.997   5.364 -0.0634 -0.0104 -0.1336
72529W        W15520  33.928   7.091  29.014  0.1163  0.2019 -0.0832
72530W        W15521   7.612  28.882   7.866  0.1431  0.0891 -0.1548
72531W        W15522   8.701  23.437   4.520 -0.1267 -0.0258 -0.0065
72532W        W15523  25.009  16.643   0.275  0.1511 -0.1577 -0.0429
72533W        W15524   3.832  28.186   7.275  0.1509  0.2446 -0.0978
72534W        W15525  18.735  25.325  28.851  0.1428  0.1158 -0.0310
72535W        W15526   0.245  29.946   0.863  0.6712 -0.2964 -0.0109
72536W        W15527  14.571  14.256   6.045  0.1757 -0.1745  0.2293
72537W        W15528  11.258   8.211  10.648 -0.0011  0.1875 -0.1678
72538W        W15529   2.804  33.568   3.490 -0.2388 -0.3556 -0.0547
72539W        W15530  33.115  12.825   6.894  0.1038  0.0968 -0.0350
72540W        W15531   0.414   7.886   9.924  0.1603  0.0738 -0.1204
72541W        W15532   4.773  26.329  10.512  0.2030  0.2240 -0.5167
72542W        W15533  14.075  11.481  24.591  0.1967 -0.2136 -0.4697
72543W        W15534   3.517  25.281   8.738 -0.0932  0.0196  0.1137
72544W        W15535  22.500   9.608   6.182 -0.0416  0.2360 -0.0423
72545W        W15536   9.548  28.576  10.347 -0.0849 -0.1972  0.1265
72546W        W15537   3.435  24.961   5.345  0.2266  0.0954  0.0597
72547W        W15538  18.706   7.145   2.749  0.0083  0.2460 -0.0219
72548W        W15539   0.495  31.187   0.898  0.3065  0.1720  0.0909
72549W        W15540   8.073  12.418   8.267 -0.0339  0.3102  0.0338
72550W        W15541  33.344  21.468  10.317 -0.0640  0.0382  0.0914
72551W        W15542  13.048  26.424  21.298  0.2502 -0.0932 -0.1026
72552W        W15543  15.629  18.925  22.402 -0.0259 -0.0364 -0.0331
72553W        W15544   5.922  23.337   3.690  0.2661  0.0691  0.2293
72554W        W15545  14.513   3.703  10.081  0.0383  0.1215 -0.0348
72555W        W15546   6.089  17.169   5.438  0.1244  0.0700 -0.0454
72556W        W15547   1.463  29.308  17.884  0.3223  0.1848 -0.1342
72557W        W15548  11.777  27.411  28.155  0.1396  0.2584  0.1177
72558W        W15549  10.899  30.056  21.999 -0.2515 -0.0757  0.0553
72559W        W15550  34.082  20.130  23.618 -0.0656 -0.0161  0.0941
72560W        W15551  11.811   5.076   8.120 -0.0083 -0.5761 -0.3692
72561W        W15552   5.566  26.119   9.265 -0.0807 -0.0285  0.2835
72562W        W15553   2.206  27.075   7.154 -0.0766 -0.2083  0.0734
72563W        W15554   6.755  15.476  25.374  0.1340  0.1470 -0.1533
72564W        W15555   8.980  18.120  10.146 -0.0707  0.2258  0.2282
72565W        W15556   0.603  32.250   7.657  0.1329 -0.0484 -0.0431
72566W        W15557   4.346  19.147  18.731 -0.1911  0.1046 -0.1308
72567W        W15558  34.095   5.219  20.248  0.4285  0.2363  0.0683
72568W        W15559  32.771  16.311  21.004 -0.1617  0.1066 -0.0276
72569W        W15560   9.114  22.683  22.467 -0.2489 -0.1267 -0.0190
72570W        W15561  14.583  15.976  22.368 -0.1712 -0.1993 -0.0286
72571W        W15562  33.407   7.251   7.541  0.0156  0.0013 -0.0004
72572W        W15563  32.852  27.424   5.997 -0.0612  0.0348 -0.0503
72573W        W15564  21.763  10.930   4.519  0.1053 -0.3913 -0.1770
72574W        W15565  24.876  17.802   0.422  0.1649  0.3049 -0.3069
72575W        W15566  33.946  14.870   3.772  0.1178  0.1462 -0.2184
72576W        W15567  24.290  27.824   2.445  0.0228 -0.1204 -0.0845
72577W        W15568  13.035   8.665   8.094 -0.1485 -0.2109 -0.2533
72578W        W15569  23.186  22.147   6.986 -0.2340 -0.1331  0.1019
72579W        W15570   5.204   3.948   3.968  0.3504 -0.2902 -0.1501
72580W        W15571  11.221  22.035   3.685 -0.2100 -0.0875 -0.0468
72581W        W15572  14.885   9.744   6.796  0.0598  0.0149  0.4678
72582W        W15573  27.500  15.916   9.432  0.3586  0.2191 -0.1235
72583W        W15574  17.239  16.250  29.168 -0.0861  0.3111  0.1675
72584W        W15575  13.757  24.412  27.062 -0.2204 -0.1478  0.0095
72585W        W15576  21.063   6.950   3.355 -0.2523 -0.1537 -0.1089
72586W        W15577   4.722   9.283   1.882  0.0163 -0.1000  0.1277
72587W        W15578   6.843   9.257   5.753 -0.1220 -0.0035 -0.3153
72588W        W15579  29.729  19.861   3.226  0.0923  0.2869 -0.1122
72589W        W15580   7.169   4.439  20.560  0.0250 -0.2800 -0.2628
72590W        W15581   1.659  29.162  29.090 -0.0754 -0.1408  0.2099
72591W        W15582   5.582  16.482  11.274  0.2007  0.1341  0.2402
72592W        W15583  12.906  22.170   7.822 -0.0680  0.2094  0.1862
72593W        W15584   9.357   9.106   7.654  0.2116  0.0442  0.2953
72594W        W15585  13.074  23.619  26.739 -0.2239 -0.0619  0.0905
72595W        W15586  12.779  14.047   6.357  0.0204 -0.0805 -0.1982
72596W        W15587  28.799  17.385  26.499  0.0103 -0.0660 -0.0232
72597W        W15588   4.019  18.684   1.863 -0.2722  0.0974  0.1634
72598W        W15589  21.748  29.620   6.855  0.1907  0.2822 -0.1880
72599W        W15590   7.228   8.253   0.470 -0.1887 -0.1460 -0.0817
72600W        W15591  31.973  10.156   5.221 -0.0312 -0.1751  0.3081
72601W        W15592  13.840   6.943  26.582 -0.2489  0.3792  0.0939
72602W        W15593  32.432  20.507   1.761  0.2985  0.5273  0.0097
72603W        W15594   0.958   2.574   5.250  0.1880  0.1326  0.0591
72604W        W15595  34.787  10.777  11.377  0.1506 -0.2332 -0.1319
72605W        W15596   6.698  22.374  28.511  0.0176 -0.0314  0.2301
72606W        W15597   2.393  14.616  21.198 -0.1998  0.1540 -0.0571
72607W        W15598   2.027  22.703   5.692  0.0434  0.0989 -0.1962
72608W        W15599   4.749  16.177   5.346  0.1558 -0.0765 -0.2560
72609W        W15600  31.476   5.016   2.724  0.1808 -0.0962  0.4421
72610W        W15601   9.879  30.034   5.142 -0.1556 -0.2477 -0.1732
72611W        W15602   7.505  11.498  17.969  0.1044 -0.3453  0.0758
72612W        W15603  10.052   4.800  14.594  0.1610  0.0483  0.1808
72613W        W15604   4.577  14.659  28.860  0.2041  0.0462  0.1141
72614W        W15605   3.389  31.588   1.177 -0.1342  0.0718  0.1140
72615W        W15606   4.713  20.859   8.711  0.2149  0.5936 -0.0846
72616W        W15607   1.368  24.869   7.230  0.0363  0.1195 -0.0103
72617W        W15608   7.346  31.703   8.404  0.1594 -0.1965 -0.3237
72618W        W15609  30.031  22.064   8.578  0.0743  0.1222  0.1272
72619W        W15610  31.461  12.302   9.766  0.0536 -0.2757 -0.1687
72620W        W15611   8.753  14.535  10.360 -0.2127 -0.0162  0.0050
72621W        W15612  29.879   0.774   2.440 -0.0444 -0.1786 -0.2304
72622W        W15613  28.555  12.053   9.548  0.1986 -0.2108 -0.1682
72623W        W15614  13.793  13.061   3.824  0.0999  0.1380  0.0327
72624W        W15615   7.044   5.143   0.067  0.1146  0.4283  0.0196
72625W        W15616  33.406  29.044   3.007  0.2071 -0.3979  0.1239
72626W        W15617  19.022  14.542   1.247 -0.0659  0.2792  0.0041
72627W        W15618   6.930   5.236   7.360 -0.0597 -0.0832 -0.0507
72628W        W15619  31.107  25.162   8.319  0.2207 -0.0335  0.0946
72629W        W15620  20.135  21.270   6.881  0.0467  0.3552 -0.0408
72630W        W15621   7.242  25.820  10.185  0.0818  0.1829  0.1809
72631W        W15622   6.428  29.715   3.134  0.4389 -0.0276 -0.1148
72632W        W15623   0.664  10.475  10.160  0.1939 -0.1159 -0.0203
72633W        W15624  33.086  17.954   9.784  0.0352 -0.1770 -0.0736
72634W        W15625  19.504  13.274   8.727 -0.0632 -0.4195 -0.2494
72635W        W15626  32.798  25.593  27.712 -0.0984  0.5743 -0.1210
72636W        W15627  31.000   4.708  26.186  0.2923  0.2565  0.0169
72637W        W15628   4.795  11.546  11.151  0.0048 -0.1492 -0.0590
72638W        W15629  25.412  15.108   9.068  0.1999  0.2415 -0.0049
72639W        W15630   3.638  34.527   0.032 -0.2271  0.0321  0.1006
72640W        W15631   3.387  25.554   1.691 -0.0080 -0.3597 -0.3425
72641W        W15632   6.418  22.002  27.406  0.2451 -0.0799  0.2293
72642W        W15633   7.250  25.093   6.438  0.3334  0.0574  0.1771
72643W        W15634   4.832  16.452   9.195 -0.0812 -0.0470  0.0372
72644W        W15635   4.641  23.907  20.478  0.0466 -0.0953  0.0738
72645W        W15636  13.509  16.577  19.725 -0.2402  0.1743 -0.2011
72646W        W15637  19.017  20.530   9.081 -0.0417 -0.0724  0.1025
72647W        W15638  29.017  25.026   3.804  0.1650  0.1822 -0.0733
72648W        W15639   6.488  19.437   6.140  0.0334  0.0882 -0.2284
72649W        W15640  29.310  18.486   8.454 -0.0144 -0.0991 -0.1561
72650W        W15641   9.820  22.011   5.776 -0.2341 -0.3680 -0.2404
72651W        W15642  28.699  14.098  10.360  0.2046 -0.0817 -0.1041
72652W        W15643  14.986  25.675   4.637  0.2010  0.0357  0.0311
72653W        W15644   1.218  14.816   6.641  0.1514 -0.0555 -0.1016
72654W        W15645   7.560  14.537   4.818 -0.0326  0.2535  0.0142
72655W        W15646   8.200  10.197   8.602 -0.3346 -0.1137  0.1753
72656W        W15647   1.825  32.405  26.654  0.0901 -0.2288  0.1777
72657W        W15648   8.030  28.003  22.918 -0.2980  0.2553  0.0157
72658W        W15649  20.013  10.548   3.619 -0.1914 -0.1721 -0.1292
72659W        W15650  22.293  13.957   6.097 -0.2059  0.1248  0.1454
72660W        W15651  15.572  21.247   2.627  0.2234  0.2048 -0.1224
72661W        W15652  16.068  27.886  15.890  0.0843  0.1894 -0.1401
72662W        W15653  26.952   6.074  26.442  0.1469 -0.0635 -0.0412
72663W        W15654  14.347  14.641   8.148 -0.1587  0.1173  0.0352
72664W        W15655  25.960  18.422  28.115  0.3229  0.0920  0.3731
72665W        W15656   0.360  16.085  22.676 -0.0662  0.4002 -0.4328
72666W        W15657  18.594  18.342   2.877 -0.1954 -0.2959 -0.2720
72667W        W15658  28.572  12.856   9.219 -0.0998  0.1627  0.1042
72668W        W15659   5.699  23.103   7.368 -0.0192 -0.0234  0.1350
72669W        W15660   2.982   3.075   3.024  0.2613 -0.1443 -0.2663
72670W        W15661   3.542  22.695   8.288 -0.1551 -0.2133  0.0998
72671W        W15662  11.592  26.119  24.185 -0.0138 -0.1714  0.0806
72672W        W15663  10.743   9.828   0.026  0.0986 -0.4371  0.0544
72673W        W15664  11.864   6.570  28.875  0.0153  0.3651 -0.1469
72674W        W15665   0.425  13.192   9.685  0.1361 -0.0607  0.2620
72675W        W15666   3.135  22.123   1.362 -0.1218 -0.0767  0.0021
72676W        W15667  16.670  31.499   7.690  0.2497 -0.0766 -0.1413
72677W        W15668  34.300  26.189  28.877  0.0900 -0.2178 -0.2236
72678W        W15669  11.211  20.582   0.506 -0.0359  0.1542  0.3100
72679W        W15670   4.581  21.848   1.849  0.1273  0.1490 -0.0061
72680W        W15671  33.874  18.227   7.315  0.0570 -0.1053  0.2245
72681W        W15672  15.830   4.504  26.178 -0.1619 -0.2897 -0.1360
72682W        W15673  20.401  25.718   9.078  0.1110  0.1635  0.0399
72683W        W15674  15.808  10.994   1.133  0.1385 -0.0590  0.1985
72684W        W15675   8.879  28.392   8.086  0.0711  0.1359 -0.0287
72685W        W15676  25.314   4.049   1.679  0.1372 -0.1048  0.1320
72686W        W15677  24.304  19.352   5.213 -0.0004 -0.1276 -0.0210
72687W        W15678   8.855  20.943   0.614  0.0080 -0.0219  0.2731
72688W        W15679   2.979  19.447   6.589 -0.0800  0.0518  0.0230
72689W        W15680  29.936  21.809   4.009 -0.1144 -0.0092  0.0060
72690W        W15681   2.672   4.062   3.338  0.1661 -0.0720  0.2633
72691W        W15682  31.501  19.480  20.922 -0.1090 -0.0586  0.0727
72692W        W15683  27.978  10.062   9.400 -0.0640 -0.1750  0.0041
72693W        W15684   2.768   1.712   8.865 -0.0665  0.0542  0.1833
72694W        W15685   3.367  21.313   5.474  0.3548 -0.0133  0.0768
72695W        W15686   4.494  21.408   6.194 -0.0166 -0.2435  0.1221
72696W        W15687  24.504  11.035  22.157 -0.0379 -0.0288  0.1170
72697W        W15688  17.353  29.030   7.847 -0.1374 -0.0164  0.0896
72698W        W15689   8.090  15.424  24.489 -0.0690 -0.1572 -0.1995
72699W        W15690   0.723  21.642  10.152 -0.1686 -0.3075  0.2087
72700W        W15691   4.968  14.180  28.114  0.0245 -0.1704  0.0559
72701W        W15692  14.555  28.755   4.352 -0.0780 -0.1750  0.1911
72702W        W15693  11.399  21.308  28.142  0.0513  0.1002  0.1810
72703W        W15694   5.428   6.799   0.481  0.2359  0.0317  0.1132
72704W        W15695   9.616  14.388  19.959  0.2010  0.0418 -0.0383
72705W        W15696  13.820  24.897  24.921 -0.2687 -0.0590 -0.0746
72706W        W15697  34.575  32.597   9.286 -0.0746 -0.0886 -0.0930
72707W        W15698  10.260   7.257   9.274 -0.0023 -0.2926 -0.0320
72708W        W15699  10.253  27.670  20.636 -0.1773  0.2028 -0.0299
72709W        W15700  24.174  16.382  26.307 -0.0099  0.3275 -0.1228
72710W        W15701   8.933  27.502   0.880 -0.1003  0.0243 -0.0338
72711W        W15702   0.472  32.537  25.217 -0.0977 -0.0458 -0.1766
72712W        W15703   2.596  14.251  11.339 -0.0294 -0.1879 -0.5054
72713W        W15704  25.247  14.197  28.410 -0.0038  0.2181  0.2431
72714W        W15705   4.806  15.244   7.542 -0.1831  0.1117 -0.0133
72715W        W15706  11.180  24.838  27.311 -0.3154 -0.2188 -0.1736
72716W        W15707   1.575   9.659   4.009 -0.2839  0.2446  0.1647
72717W        W15708   6.063  12.015   4.248 -0.1965 -0.1707  0.1949
72718W        W15709  34.354  25.101   7.342  0.0605  0.1284  0.0598
72719W        W15710   4.927   9.986   5.171 -0.0487  0.0649  0.2252
72720W        W15711  30.784  14.414  10.369 -0.0841  0.0380 -0.1115
72721W        W15712  10.134   0.697   6.645 -0.4497 -0.1729  0.0278
72722W        W15713   7.040  22.302   4.873  0.2671 -0.3085 -0.0655
72723W        W15714   2.552  18.413   1.567 -0.0303 -0.1437  0.1567
72724W        W15715  21.083  16.645   5.619 -0.1124  0.1508  0.0934
72725W        W15716   3.408  14.984   6.135  0.2120  0.2831  0.2343
72726W        W15717   2.955  26.137   0.831 -0.0606  0.0747  0.3144
72727W        W15718  30.424  15.825   9.151  0.1659  0.0770  0.0587
72728W        W15719  28.046  19.658   6.610  0.0033  0.1626  0.0558
72729W        W15720   6.606  13.770   3.527 -0.0942 -0.4039 -0.1398
72730W        W15721  18.701  31.282  28.098  0.0832 -0.3392  0.0128
72731W        W15722   9.865  23.559  24.938  0.3057 -0.1323  0.2569
72732W        W15723  23.056  14.357   3.214 -0.1539  0.1364  0.1309
72733W        W15724   1.463  26.363   4.391 -0.0058 -0.1541 -0.0779
72734W        W15725   9.433  20.705  22.538 -0.0487 -0.0716 -0.1486
72735W        W15726   1.728  16.451  21.724 -0.0817  0.0296 -0.1029
72736W        W15727   2.304  29.894   6.338  0.2410 -0.1868 -0.0226
72737W        W15728   9.004  20.922  10.355 -0.2802  0.0211 -0.2384
72738W        W15729   1.960  18.249   2.227 -0.3246 -0.0032  0.0548
72739W        W15730  12.794   4.538   3.521 -0.1953 -0.2751 -0.1046
72740W        W15731   2.812  15.135   2.566  0.2440 -0.0834 -0.4539
72741W        W15732   2.386  10.602   9.616 -0.0622  0.0001  0.0155
72742W        W15733   1.304  26.607  28.443 -0.3955 -0.2008 -0.3005
72743W        W15734  16.276   9.595   1.935  0.0460 -0.2376  0.1615
72744W        W15735  21.942  14.448  17.189  0.2569 -0.1263 -0.1603
72745W        W15736  18.860  12.812   1.270  0.1830 -0.1999 -0.0498
72746W        W15737  13.305  23.665  27.629 -0.2130  0.0498  0.1386
72747W        W15738  32.222  20.181   9.549 -0.3641  0.0115 -0.0321
72748W        W15739  11.949  31.861   6.916 -0.2562  0.3283  0.1105
72749W        W15740   5.153  20.086  27.683 -0.0692 -0.1120  0.2539
72750W        W15741   8.362  29.855   9.145  0.2738 -0.2667 -0.2756
72751W        W15742  11.766   3.820   4.057  0.0622 -0.1961  0.0357
72752W        W15743   4.047  32.930   0.962  0.2126  0.0211  0.0156
72753W        W15744  14.211   3.887  22.457 -0.0948  0.1000  0.2542
72754W        W15745   6.921  25.621   8.281  0.3009  0.1545  0.0470
72755W        W15746   5.689  25.246  20.344  0.4558  0.0593 -0.1409
72756W        W15747  11.073  11.440   0.546  0.1455 -0.1948 -0.0389
72757W        W15748  11.287  20.187  20.578  0.0990 -0.0119 -0.0095
72758W        W15749  32.613  21.495  25.977  0.1001 -0.1311 -0.0256
72759W        W15750   1.799   0.305  25.498  0.0656 -0.0300  0.0297
72760W        W15751   3.682  33.801  24.088  0.2984 -0.3144  0.0448
72761W        W15752  30.879  22.633  25.641  0.3703 -0.2439 -0.3272
72762W        W15753  23.023  14.928   0.498  0.0382  0.2895  0.1016
72763W        W15754   6.928   1.960  22.198  0.3579  0.0833  0.0759
72764W        W15755   6.056   7.701   0.133  0.4729 -0.1315 -0.2026
72765W        W15756  11.008  22.867   1.931 -0.1030 -0.2073 -0.1458
72766W        W15757   8.307  19.625   5.195 -0.0343  0.0125 -0.1640
72767W        W15758  15.861  15.179   4.983  0.2270  0.3801  0.2353
72768W        W15759  24.861  28.486   8.262  0.0307  0.1885 -0.1539
72769W        W15760  27.659  12.129  22.932 -0.2473  0.4276 -0.0207
72770W        W15761  31.231  29.090  27.410 -0.1144  0.2310  0.0362
72771W        W15762   6.923  20.791   6.248  0.1036  0.2141  0.0960
72772W        W15763   7.884  29.539  28.547  0.3307 -0.0936 -0.3690
72773W        W15764  24.486  19.987   6.508  0.0763 -0.1770 -0.2683
72774W        W15765  10.082  20.936   4.170 -0.2421 -0.1468 -0.0386
72775W        W15766   8.666  31.479   5.052  0.0454 -0.1930  0.1942
72776W        W15767  29.595  18.083  24.335 -0.1078  0.0792  0.0512
72777W        W15768   0.766  25.640  25.765  0.2010  0.0443  0.0112
72778W        W15769  34.016  21.029   7.284 -0.1012  0.1086 -0.2190
72779W        W15770  25.718  24.061  14.563 -0.0328  0.0473 -0.0210
72780W        W15771  31.338  11.909   2.010  0.0669 -0.0161 -0.0556
72781W        W15772   7.448   4.255   6.161  0.1301  0.6007 -0.0670
72782W        W15773  22.847   2.386   8.912  0.0654 -0.3965  0.1013
72783W        W15774  34.673  32.008   8.164  0.1872  0.0745  0.1432
72784W        W15775  16.113  30.698  19.917  0.1534  0.1892  0.0162
72785W        W15776  12.570  18.624   5.058  0.3300 -0.0759  0.0950
72786W        W15777  25.922  26.951   7.632  0.1944  0.0375  0.1116
72787W        W15778   5.328  32.734  27.016 -0.0075 -0.1582 -0.1524
72788W        W15779  33.125  20.628  18.857 -0.2139  0.2605 -0.1331
72789W        W15780   2.448   3.542  25.329  0.3479  0.0163 -0.1239
72790W        W15781   7.258  14.344   7.987  0.0218 -0.1387  0.1750
72791W        W15782   1.442  27.108   4.048 -0.1449  0.3191 -0.3424
72792W        W15783  31.828   5.403  24.426 -0.0057  0.1022 -0.1047
72793W        W15784  31.579  12.977   0.113  0.0337 -0.0023  0.0030
72794W        W15785   2.556   2.647   7.454 -0.2519  0.0944 -0.0091
72795W        W15786   2.752  14.135   2.021  0.1058 -0.3058 -0.0682
72796W        W15787   5.015  27.017  10.547 -0.1922  0.0956  0.0594
72797W        W15788  15.038  14.470   9.163  0.1776 -0.4340 -0.2602
72798W        W15789  32.145   4.193  10.471 -0.0915 -0.1013 -0.0438
72799W        W15790   4.216   4.675   2.909 -0.2444 -0.2381 -0.0389
72800W        W15791   9.903  12.579  17.791 -0.1306  0.3092  0.0932
72801W        W15792  10.667  33.608   9.548 -0.0113 -0.2432  0.0506
72802W        W15793   3.460  10.053  24.450  0.1132  0.0875 -0.0224
72803W        W15794  15.161   2.206   3.992 -0.2195  0.2440  0.1003
72804W        W15795  23.466  32.993   5.667  0.0335 -0.1645 -0.1186
72805W        W15796   2.437  17.873   7.001  0.2528 -0.1550 -0.1543
72806W        W15797  34.332  14.274   0.235  0.1403  0.2796  0.2297
72807W        W15798  33.942   5.062  29.061  0.0503  0.1777 -0.1920
72808W        W15799   5.760  31.884   1.369  0.5701 -0.4986  0.1329
72809W        W15800  30.006  12.460   0.036  0.0330 -0.0577 -0.0410
72810W        W15801   8.530  19.934   4.476 -0.0686 -0.1691  0.2463
72811W        W15802   3.327  27.075   8.601  0.2262 -0.0529 -0.0056
72812W        W15803  12.321  28.354  23.302  0.0572 -0.1082 -0.0659
72813W        W15804  27.049  14.820   9.850  0.1655 -0.2091  0.2592
72814W        W15805  14.189  22.599  24.570 -0.0542 -0.1688  0.0487
72815W        W15806  11.750  10.646   5.125 -0.0486  0.2561 -0.1249
72816W        W15807  11.845  27.610   4.534  0.0380  0.4150  0.0571
72817W        W15808   7.966  22.528   3.868 -0.0714  0.0118  0.0731
72818W        W15809   4.753  21.806  23.544 -0.2179  0.0698  0.0951
72819W        W15810  19.509   8.739  24.417 -0.2151  0.0290 -0.0053
72820W        W15811   6.050   9.571  10.437  0.0380 -0.1253  0.1686
72821W        W15812  34.009   0.973   3.804  0.1276 -0.0753 -0.1530
72822W        W15813   8.960   2.025   0.366  0.2597  0.4037  0.0188
72823W        W15814  14.083   7.627  25.497 -0.1449 -0.0098  0.1982
72824W        W15815   3.810  19.253   2.858 -0.0055  0.2893 -0.0202
72825W        W15816   4.513  25.911   5.145  0.1303  0.1452  0.1324
72826W        W15817  24.262  27.227   7.255 -0.1918 -0.0106 -0.1152
72827W        W15818   6.799  20.153   8.516  0.0279  0.0266  0.0012
72828W        W15819   0.719  23.567   1.764 -0.0502  0.3457 -0.2490
72829W        W15820  15.780   6.151  15.568  0.1703  0.1209  0.2245
72830W        W15821  22.940  30.521  18.140 -0.1026  0.0431 -0.2098
72831W        W15822  14.265  14.579  28.361  0.4038  0.1778 -0.3226
72832W        W15823   4.525  26.974   7.047 -0.0862 -0.0585  0.0963
72833W        W15824  29.288  27.668   2.291  0.1365  0.2284 -0.1437
72834W        W15825  14.512  32.067   8.525 -0.0636  0.0077 -0.1324
72835W        W15826  10.128  29.970  16.681 -0.3602 -0.0906  0.2090
72836W        W15827  32.709   6.500  23.497  0.1639  0.0177 -0.2516
72837W        W15828  25.484  31.022   6.773  0.1283 -0.0387  0.6149
72838W        W15829  18.965  14.621  27.270  0.5107  0.3375  0.2159
72839W        W15830  17.844  12.953  22.857 -0.2055  0.0747 -0.1013
72840W        W15831  13.825  31.118   4.478 -0.0879  0.0098  0.0725
72841W        W15832  18.206  20.702   3.499  0.4765  0.1241 -0.1506
72842W        W15833  31.413  11.221   1.907 -0.0887 -0.0602  0.2616
72843W        W15834   8.139  30.482   1.834 -0.0080 -0.1319 -0.0655
72844W        W15835  31.753  10.657   5.629 -0.1195 -0.0484  0.1193
72845W        W15836  12.361  31.434  22.936  0.3581  0.2417 -0.1710
72846W        W15837  29.766  15.048   3.248  0.0010  0.0450  0.0324
72847W        W15838   6.705  26.360   9.618 -0.1610 -0.0484 -0.0477
72848W        W15839   1.214  29.705   1.254 -0.2797  0.0232 -0.2767
72849W        W15840   8.665   1.184   3.774 -0.2775 -0.3657  0.1290
72850W        W15841   6.815  11.616  23.903 -0.0519 -0.1381  0.0279
72851W        W15842  13.760  21.995  27.147  0.4987 -0.2236 -0.0765
72852W        W15843  27.784   8.341   8.635 -0.1839 -0.0057 -0.0527
72853W        W15844  10.198  26.738   1.724 -0.0738  0.1593  0.1605
72854W        W15845  12.935  18.302  23.160 -0.2205  0.1004  0.1866
72855W        W15846  20.428  30.905   5.381 -0.1468 -0.0888  0.2398
72856W        W15847  14.342  27.090  24.104  0.0102 -0.1473  0.1160
72857W        W15848   1.069  13.180   8.357  0.2550  0.1792 -0.1354
72858W        W15849   7.576  33.696  29.224  0.1201 -0.3699 -0.3958
72859W        W15850   5.070  21.690   2.064 -0.3045  0.0509 -0.1705
72860W        W15851  33.918  29.071   8.638 -0.2476 -0.1305 -0.1168
72861W        W15852  18.822  13.692  18.403 -0.2657 -0.0413  0.1137
72862W        W15853  10.638  32.102   7.086 -0.1395  0.3642  0.0791
72863W        W15854  16.600   2.794   5.467 -0.3227  0.3088 -0.0551
72864W        W15855   2.950  23.136   0.334  0.5051 -0.2594  0.0851
72865W        W15856  11.902  27.836   7.261 -0.0641 -0.2393  0.1632
72866W        W15857  14.351  21.764  24.894  0.4593  0.1102 -0.1462
72867W        W15858  11.273  20.061   0.281  0.1612  0.3040  0.2865
72868W        W15859  10.004  17.000  14.717  0.1922  0.2353  0.1103
72869W        W15860   8.368  33.254  25.210 -0.1169 -0.0452  0.1846
72870W        W15861  19.893  23.925   2.685 -0.1784  0.2525  0.0589
72871W        W15862   7.759  11.858  28.707  0.0843 -0.0017  0.2659
72872W        W15863  32.152  10.263  26.623 -0.0285  0.0585 -0.0677
72873W        W15864   7.203  22.761   3.508 -0.2259  0.2760 -0.0260
72874W        W15865  14.508  21.478   4.395 -0.1592  0.0854 -0.1465
72875W        W15866   1.207  13.629   2.113 -0.1158 -0.0046  0.1237
72876W        W15867  24.455  14.545  19.140 -0.0516 -0.2494  0.1319
72877W        W15868  25.215   7.157  25.005  0.3978  0.1294 -0.0826
72878W        W15869   7.228  13.745   1.625  0.0258 -0.0571  0.3056
72879W        W15870  34.322  20.896   8.088  0.2148  0.3306  0.0968
72880W        W15871  28.250  26.024   9.081 -0.3363  0.1522 -0.1928
72881W        W15872   6.638  18.595   2.300  0.2578 -0.1025 -0.1085
72882W        W15873  33.194  26.698   8.376 -0.2608  0.0880 -0.2801
72883W        W15874  31.921  26.348  26.897  0.0325  0.0049  0.2211
72884W        W15875  30.623  26.684   8.528 -0.0191 -0.1061  0.0167
72885W        W15876  32.280  22.769  11.430 -0.2472 -0.1517 -0.0159
72886W        W15877   9.975   5.599   0.552  0.2373  0.0234  0.0765
72887W        W15878  33.477   4.656   1.431  0.1144  0.1131 -0.1927
72888W        W15879   6.886   9.883   4.954 -0.1003  0.0556 -0.0670
72889W        W15880   7.269  25.311   0.329 -0.1026  0.0442  0.2907
72890W        W15881  11.187  19.310   1.352 -0.5913 -0.0636  0.3243
72891W        W15882  31.486  10.003  26.086 -0.1367 -0.1835  0.0259
72892W        W15883  13.802  13.307  29.197  0.1615  0.0985 -0.0810
72893W        W15884   3.415  29.612   9.732 -0.0217 -0.2297  0.2213
72894W        W15885  34.265   4.876   7.572 -0.0325  0.0809  0.2483
72895W        W15886  31.290  10.056   6.850 -0.2056  0.1220 -0.0110
72896W        W15887  27.951  13.587   8.888 -0.0456 -0.0563  0.1091
72897W        W15888  28.979  26.208   4.984 -0.0876  0.0699  0.1063
72898W        W15889  14.467  16.750  13.304  0.3109  0.1497 -0.0744
72899W        W15890   7.916  32.876   0.589 -0.4620  0.2230  0.1294
72900W        W15891  13.256  20.820  20.304 -0.3658  0.3267  0.0123
72901W        W15892   5.554  21.742   5.872 -0.0677 -0.3663 -0.0657
72902W        W15893  18.461  30.138   6.047  0.0733  0.1482 -0.1852
72903W        W15894  28.189  19.932   5.428 -0.1986  0.1467  0.1764
72904W        W15895  24.108  14.959   6.824 -0.1203 -0.0014  0.1528
72905W        W15896  24.013  28.957  19.511 -0.1857  0.1494 -0.1773
72906W        W15897   5.418  29.587   6.743  0.0394  0.0586 -0.0971
72907W        W15898  16.045  21.298   8.325 -0.0957  0.0426  0.0315
72908W        W15899  30.870  24.839  19.304  0.0719 -0.0364 -0.0442
72909W        W15900   6.125  15.493  16.480  0.1494 -0.3418 -0.2239
72910W        W15901  14.545   1.092   9.163  0.1294  0.0461  0.1048
72911W        W15902  20.916   6.031  15.843  0.1433  0.1808  0.1213
72912W        W15903  28.363  23.590  28.624 -0.1872 -0.2118 -0.1622
72913W        W15904   5.490  27.057  19.065  0.0786  0.0319  0.1463
72914W        W15905   0.561  21.949   0.324 -0.0614 -0.2958  0.1115
72915W        W15906   1.559  31.474   8.674 -0.2383 -0.1397  0.4183
72916W        W15907  31.473  16.747   6.868  0.1111  0.2481 -0.0945
72917W        W15908   6.667   0.008  20.422  0.2894  0.3995 -0.0122
72918W        W15909  19.629  29.038   3.604  0.1709 -0.1616 -0.2446
72919W        W15910   7.818  34.373  20.612 -0.0310 -0.1143 -0.4760
72920W        W15911  20.515  10.793   5.581  0.0738  0.1359 -0.0518
72921W        W15912   5.470  10.483  28.088 -0.0010 -0.1557 -0.1216
72922W        W15913   0.876  18.115  19.453 -0.1014 -0.4603  0.0523
72923W        W15914   9.734  28.921  23.479 -0.1547  0.0127  0.2777
72924W        W15915   5.333  26.500   6.909  0.1224  0.0272  0.1214
72925W        W15916  28.502   6.022   0.937  0.0981 -0.0570 -0.1146
72926W        W15917  11.545  19.878   2.971 -0.1106  0.0494  0.3166
72927W        W15918   9.454  33.030   5.391 -0.1179 -0.1222  0.1250
72928W        W15919  13.982  30.328   7.486  0.0034  0.0032 -0.0545
72929W        W15920   3.461   0.374  27.026  0.1535 -0.0684 -0.0756
72930W        W15921  32.370   9.717  19.274 -0.0906 -0.0383 -0.1397
72931W        W15922  12.563  24.502   9.843  0.0869  0.0768  0.1931
72932W        W15923  31.294  23.725   4.331 -0.0984  0.1624  0.2269
72933W        W15924  17.139  12.771  24.303 -0.0444  0.0583  0.0066
72934W        W15925  32.809   8.299   8.883 -0.1618  0.0604  0.1492
72935W        W15926   3.709  18.010  10.005  0.0639  0.0330 -0.0121
72936W        W15927  27.608  32.342   7.872  0.2227  0.4485  0.1232
72937W        W15928   8.404  15.917   5.955 -0.1117 -0.1260  0.2396
72938W        W15929  11.519  17.861  20.168  0.4062  0.1993 -0.3451
72939W        W15930   6.692  17.456  10.466 -0.3002  0.0235  0.3857
72940W        W15931  32.909  32.105   1.571  0.3100 -0.2477 -0.1470
72941W        W15932   3.611  28.402  26.504 -0.0429  0.0970 -0.0679
72942W        W15933  16.590   0.943  15.869  0.0428 -0.2048 -0.0959
72943W        W15934   3.052  17.546   1.769  0.2026  0.1362  0.0265
72944W        W15935  26.315  23.591   2.918 -0.1961 -0.4668 -0.1197
72945W        W15936   3.472   0.518  24.407 -0.0605 -0.1734 -0.2610
72946W        W15937  29.341  21.081  23.777 -0.2132 -0.1238 -0.1931
72947W        W15938  20.314  33.479   4.572  0.0012  0.3159 -0.1355
72948W        W15939   6.951  20.540  24.660  0.4415 -0.0916  0.0726
72949W        W15940   0.144  13.008   7.995  0.0332  0.0625 -0.3060
72950W        W15941  30.457  14.598   8.395  0.3641  0.2465  0.1144
72951W        W15942  32.358  14.073   2.617  0.3536 -0.1979  0.0709
72952W        W15943   8.478  27.793  26.948  0.3238 -0.0945  0.0490
72953W        W15944   4.346  30.059   8.160  0.1443 -0.2039  0.0932
72954W        W15945   8.939  11.177  26.398  0.2518  0.1148 -0.1161
72955W        W15946   0.702  19.221   2.946  0.1334  0.1741 -0.0938
72956W        W15947  11.164   0.093   7.624 -0.0947  0.1868  0.0197
72957W        W15948  10.325  13.607  26.720 -0.1494 -0.2833  0.2568
72958W        W15949   3.328  19.622   9.328 -0.0592 -0.1861 -0.1112
72959W        W15950   2.704  16.948  25.983 -0.0456 -0.2908 -0.1379
72960W        W15951  23.135  26.802   8.126  0.2229 -0.1419  0.1883
72961W        W15952   9.622  22.071   5.043 -0.1195  0.0084  0.0750
72962W        W15953  10.819   1.993  18.317  0.0398  0.0612  0.1487
72963W        W15954  27.596  21.501   4.578  0.0455  0.0742 -0.1130
72964W        W15955   2.439  17.718  26.727  0.0763  0.0439  0.0264
72965W        W15956   2.995  21.520   7.946 -0.0177  0.0295  0.1842
72966W        W15957  16.448   5.291  23.074  0.2800  0.1965 -0.0429
72967W        W15958   0.264  24.266   1.952 -0.0093 -0.0264  0.0404
72968W        W15959   2.367  14.788  25.554  0.1495 -0.1811  0.1741
72969W        W15960  18.894  20.382  28.117  0.2087 -0.4019 -0.2986
72970W        W15961   9.210  12.447   9.800 -0.1190 -0.0301 -0.0150
72971W        W15962  33.900  28.675  26.763  0.3281  0.2098 -0.2932
72972W        W15963  14.434  18.462   7.099  0.0831 -0.0041  0.0777
72973W        W15964  32.953  12.584  27.470  0.2656  0.1511  0.1342
72974W        W15965  33.351  12.969   8.892  0.0546  0.0166  0.0580
72975W        W15966  26.787  29.774  27.458  0.0473 -0.0383  0.0646
72976W        W15967  13.609  32.798   6.932 -0.0139 -0.1850 -0.0941
72977W        W15968   6.555  14.227   7.399  0.0848  0.0682 -0.0770
72978W        W15969   6.722  16.036   3.147 -0.0756  0.2134 -0.1085
72979W        W15970   5.963  23.674   6.792  0.2627  0.0035  0.1399
72980W        W15971   0.095   0.832   2.924  0.0715  0.0950 -0.2819
72981W        W15972  18.914  31.033   6.750 -0.1773  0.3185  0.1223
72982W        W15973  26.339  29.791  20.389 -0.0259 -0.1322  0.3023
72983W        W15974  26.252  17.964  26.176 -0.1143  0.0821  0.1109
72984W        W15975   2.354  20.167   6.539  0.1320 -0.3371 -0.1251
72985W        W15976   5.294  27.079   5.107 -0.1183  0.2175 -0.0629
72986W        W15977  32.806   0.954   0.311 -0.2365  0.0087 -0.2170
72987W        W15978   7.810  16.003  20.989  0.2908  0.1102 -0.0780
72988W        W15979   5.719  21.234   7.809 -0.1663 -0.0434  0.0510
72989W        W15980  20.387  32.737  26.237  0.1242  0.0688  0.2073
72990W        W15981   1.285  31.710   3.011 -0.2321 -0.1063  0.0259
72991W        W15982  34.489  10.089   4.965  0.2557 -0.2995  0.4857
72992W        W15983   5.230  16.600   1.380 -0.0564 -0.2379 -0.0759
72993W        W15984   5.426  12.524  28.508  0.0765  0.1686 -0.1584
72994W        W15985  33.380  23.085   6.747 -0.0890  0.1657  0.1372
72995W        W15986  29.834  12.986   9.436 -0.0330 -0.0002  0.2843
72996W        W15987   5.016  29.197  21.936  0.1084 -0.1858  0.0866
72997W        W15988  24.435  30.178  15.757 -0.1275 -0.1986  0.2411
72998W        W15989  24.187  24.005   7.680  0.1506 -0.1910  0.4001
72999W        W15990   8.259  24.064   5.495 -0.3870 -0.0646 -0.0965
73000W        W15991   9.089  21.018   9.318 -0.1074  0.0356 -0.2416
73001W        W15992   3.835  22.538  17.664  0.1232  0.1988  0.0888
73002W        W15993  11.078  13.957   5.642  0.1198  0.1285  0.0322
73003W        W15994  22.767  22.946  28.931  0.0312  0.1648  0.0281
73004W        W15995  21.304  24.110  27.106  0.1152  0.0224 -0.1099
73005W        W15996  10.208  14.011   6.559  0.0315 -0.0430 -0.2014
73006W        W15997   0.405  31.015  28.870  0.0474 -0.0035  0.4639
73007W        W15998  13.487  29.837   6.918 -0.1608 -0.0029 -0.1679
73008W        W15999   1.458  15.616   6.383  0.1460 -0.2734  0.1393
73009W        W16000  26.616  20.297  25.680 -0.0191 -0.1231  0.0591
73010W        W16001  32.533  14.894   2.277  0.0203  0.1638 -0.0952
73011W        W16002  15.159   3.596   3.421 -0.0018  0.1005  0.0835
73012W        W16003   8.492   4.277   0.897  0.0809  0.1029  0.1628
73013W        W16004  20.948   4.163  28.506 -0.1323  0.0698  0.2308
73014W        W16005   5.486  20.453  11.390 -0.0331 -0.0255  0.0233
73015W        W16006  13.805  32.951  21.513 -0.4157 -0.2377 -0.2937
73016W        W16007  26.521  17.206  27.254  0.0149 -0.0513 -0.0557
73017W        W16008  31.630  28.648   6.582  0.3260 -0.1284 -0.0792
73018W        W16009  28.424  21.156   4.888  0.3444 -0.3391  0.2854
73019W        W16010  31.043   5.255  19.503 -0.0719  0.1491  0.2550
73020W        W16011  16.613  19.968   2.622 -0.1486 -0.0040 -0.0273
73021W        W16012   7.934   7.141   3.108 -0.0305 -0.0606  0.0170
73022W        W16013  16.803  24.346  25.948 -0.2324 -0.2957 -0.0160
73023W        W16014  19.396  22.536   7.009  0.0872  0.2456  0.0348
73024W        W16015  31.394  22.687  27.446 -0.0795 -0.0906  0.1381
73025W        W16016  27.386  14.784   7.486 -0.3881 -0.0530 -0.2618
73026W        W16017   6.098  12.464  15.621  0.2832 -0.0582 -0.1820
73027W        W16018   7.764  22.797  21.669  0.0157 -0.1534 -0.1149
73028W        W16019  13.829  23.725  24.631 -0.0980  0.1508  0.0352
73029W        W16020   7.800   9.288   7.044  0.0875  0.0999  0.0703
73030W        W16021  10.119  12.179   1.193 -0.1037  0.0446  0.0002
73031W        W16022   5.587  10.824   5.153 -0.0333  0.2697 -0.4118
73032W        W16023  32.676   0.756  29.097  0.0707 -0.0567  0.1602
73033W        W16024  29.536  25.562   6.942  0.5402  0.1960 -0.2104
73034W        W16025   4.149  20.153   8.915  0.0402  0.3519  0.0478
73035W        W16026   6.872  10.576  10.815 -0.1812 -0.0125 -0.0126
73036W        W16027  26.641   0.060  26.751  0.1922 -0.3098  0.3963
73037W        W16028  10.391  10.902   7.662  0.0543  0.2274  0.0510
73038W        W16029   1.881  32.091  28.438  0.2161 -0.0444 -0.1216
73039W        W16030   4.768  11.228   1.681  0.1771 -0.2384 -0.1934
73040W        W16031  23.847  25.177   2.438 -0.0081 -0.0835  0.1660
73041W        W16032  32.004  22.902   8.678  0.2335 -0.1821 -0.1033
73042W        W16033  11.887  16.009   2.468 -0.1737 -0.0806 -0.0834
73043W        W16034  10.318  33.994  10.547  0.3182 -0.1334  0.0306
73044W        W16035   8.721  20.501   2.014 -0.0094  0.3104 -0.1223
73045W        W16036  16.711  18.220  23.776  0.1839 -0.6073  0.0851
73046W        W16037  18.516  32.323   9.016 -0.0833  0.1662  0.1703
73047W        W16038   6.724  18.047   5.396  0.1162 -0.0640  0.0663
73048W        W16039  23.897   9.245  25.111 -0.4082  0.0012  0.1837
73049W        W16040  17.781  29.284  18.096  0.1455  0.0926 -0.0859
73050W        W16041   6.445  28.954   7.653 -0.1501 -0.0342  0.3166
73051W        W16042  21.649  29.504  25.210  0.1582  0.0712  0.3290
73052W        W16043   3.302  24.514  22.764  0.3091  0.1085  0.1450
73053W        W16044  20.774   1.065  20.136  0.0630 -0.0843  0.0594
73054W        W16045  23.594  28.059   6.762  0.2620 -0.1723  0.1214
73055W        W16046   6.790  27.935   8.561  0.0969 -0.2020 -0.1098
73056W        W16047  11.421  21.060   0.341  0.1530  0.1528 -0.1272
73057W        W16048  20.776   0.295  23.797 -0.2205  0.0758 -0.0865
73058W        W16049  12.492  28.300  28.823  0.0449 -0.2778  0.0539
73059W        W16050   4.361  22.218  23.876  0.0619 -0.0142  0.0396
73060W        W16051  12.583  17.562   2.447 -0.4080  0.1325  0.0774
73061W        W16052   0.451   3.450  24.105 -0.2039  0.0497  0.4269
73062W        W16053   9.755   6.173  24.455  0.3451  0.1325 -0.0341
73063W        W16054   0.278  25.187  28.891 -0.2729  0.0189  0.1436
73064W        W16055   7.724  27.175   8.873  0.2277 -0.1697  0.3884
73065W        W16056   3.269  31.694  19.623  0.1780  0.1089 -0.1278
73066W        W16057   2.315  25.190  10.012 -0.0192  0.1000 -0.3481
73067W        W16058   1.345  17.518  11.647  0.0570 -0.0736  0.0543
73068W        W16059   1.507  33.158   5.901 -0.1453 -0.2986 -0.0850
73069W        W16060  30.776  28.626  26.070  0.0594 -0.0220  0.1283
73070W        W16061  32.546  18.199   5.217 -0.4227 -0.1947 -0.2421
73071W        W16062   9.496  30.391   2.162  0.1117  0.0795  0.0891
73072W        W16063  33.339   2.300  20.534 -0.0369  0.2230 -0.3043
73073W        W16064  10.665  10.835   6.030  0.0681 -0.0475  0.0296
73074W        W16065  10.562  16.965   2.291  0.4324 -0.3314  0.0368
73075W        W16066  28.811  32.237   3.419 -0.1429  0.0890 -0.2581
73076W        W16067   8.801  26.441   7.616 -0.1282  0.0159 -0.0060
73077W        W16068   0.757  26.808  21.775 -0.2314 -0.0016  0.3449
73078W        W16069  24.525   5.938  25.136 -0.2789  0.0420  0.1988
73079W        W16070  34.142  20.194   8.374 -0.0970 -0.3325  0.0497
73080W        W16071  14.914   6.451  28.285 -0.0171 -0.1002  0.0870
73081W        W16072   2.472  29.712   5.284 -0.3962 -0.1120  0.1616
73082W        W16073   4.958  19.446  28.329 -0.3926  0.0651  0.0495
73083W        W16074  28.331   9.694   8.174  0.2455 -0.0863 -0.0336
73084W        W16075  16.211   4.456  21.223 -0.2561 -0.3061 -0.1764
73085W        W16076  12.088  32.720   7.243  0.0191  0.1108 -0.0642
73086W        W16077  11.217  18.073   5.472 -0.2314  0.2575 -0.2116
73087W        W16078   8.763   1.377  16.008  0.1377  0.4135 -0.2722
73088W        W16079  33.022  33.542  29.201 -0.0375 -0.0485  0.1305
73089W        W16080  32.696   2.095   0.218  0.1478 -0.2470 -0.0139
73090W        W16081  21.604   9.642  27.253 -0.0867  0.2235 -0.3009
73091W        W16082  29.808  32.583   2.794 -0.0830 -0.0035  0.1823
73092W        W16083   8.727  31.468  26.869 -0.1416 -0.5899 -0.0521
73093W        W16084  30.181  29.673  19.488  0.3965 -0.1785 -0.1238
73094W        W16085  34.741  27.300  22.953  0.0010  0.1198 -0.3870
73095W        W16086  27.794  26.340   7.389 -0.1249  0.1702  0.1380
73096W        W16087  18.717   8.608  18.754 -0.2621 -0.2950 -0.0584
73097W        W16088   2.248  18.121   4.409  0.4091 -0.1274 -0.3801
73098W        W16089  33.689  19.043  25.326  0.1485  0.3856 -0.0909
73099W        W16090   9.111  23.878  26.255  0.1297 -0.0049 -0.3149
73100W        W16091   8.627  22.515  10.551  0.3004  0.1638 -0.2516
73101W        W16092  12.896  17.629   5.866 -0.0721 -0.1504 -0.1813
73102W        W16093  17.523  28.375   9.583 -0.1817 -0.1901  0.1404
73103W        W16094  24.638  16.024  10.130 -0.2444 -0.0591  0.0213
73104W        W16095   1.969  27.132   3.273 -0.1461 -0.0206  0.1195
73105W        W16096   7.369  25.634  18.259  0.0064  0.1326 -0.0745
73106W        W16097  11.060   1.428   9.955 -0.0162  0.1994 -0.0767
73107W        W16098   0.551   1.471   2.454 -0.1604 -0.0619 -0.4190
73108W        W16099  14.569  30.244   0.189 -0.0593  0.0530 -0.2575
73109W        W16100   8.432   3.435  24.143 -0.0343  0.0410 -0.0531
73110W        W16101  20.844  27.127  27.784  0.0925 -0.2582  0.1813
73111W        W16102  10.073   6.213  23.458  0.0293 -0.0046  0.3538
73112W        W16103  11.923   4.574  26.072 -0.2242  0.0636 -0.1363
73113W        W16104  17.186  28.511   9.970  0.1394 -0.0093  0.0152
73114W        W16105  34.301  33.123  20.280 -0.0542  0.0197 -0.4208
73115W        W16106  32.741  15.437  24.998 -0.0810 -0.0782 -0.1673
73116W        W16107   1.327  23.709  22.284 -0.1197 -0.0613 -0.1323
73117W        W16108   3.612  20.523   8.992 -0.1862 -0.1335  0.0862
73118W        W16109  13.443  29.922  26.808 -0.2747 -0.1155  0.1600
73119W        W16110   5.820  16.547  22.170  0.1545  0.4700  0.2022
73120W        W16111   0.511  12.855   7.599  0.0058  0.0579 -0.2218
73121W        W16112   1.427   6.161   5.049  0.2874 -0.1413  0.1482
73122W        W16113  18.055  13.869   6.712  0.0939  0.1132 -0.1654
73123W        W16114  31.898  32.758  26.681  0.0553 -0.2267 -0.1424
73124W        W16115  17.167  17.309   3.684  0.0810 -0.0833 -0.1268
73125W        W16116  24.402   1.248   4.491 -0.3939  0.0308 -0.0307
73126W        W16117  27.416  25.386   6.277 -0.3163 -0.0509 -0.2703
73127W        W16118   2.022  21.575   0.421 -0.1028 -0.2231 -0.2689
73128W        W16119  12.379   2.710  24.280  0.0570 -0.2992 -0.3527
73129W        W16120  13.591  34.271  28.348 -0.1964  0.0522  0.1954
73130W        W16121   2.569  11.033   3.366  0.1966  0.2200  0.1992
73131W        W16122  25.919  31.346  21.450  0.0695 -0.1514  0.1672
73132W        W16123  18.415   0.455   5.154  0.0677 -0.3072 -0.0446
73133W        W16124  20.130  16.475   8.575  0.0457  0.1348  0.1532
73134W        W16125  13.428  19.458  22.728 -0.1669 -0.1106  0.0138
73135W        W16126   8.841  11.638  29.259  0.1400  0.0917 -0.2577
73136W        W16127  18.939  15.185   5.719 -0.1597 -0.0358 -0.1669
73137W        W16128   6.838  11.516   8.656 -0.0973  0.2024  0.0739
73138W        W16129  11.092   7.439  28.123 -0.0092 -0.1169 -0.0259
73139W        W16130  20.893  25.337   2.806  0.2447 -0.0755 -0.2483
73140W        W16131  16.602  20.795   2.714 -0.1959 -0.0465 -0.0287
73141W        W16132  10.283  24.921   9.197  0.6110 -0.1035 -0.1623
73142W        W16133  28.692  22.696   9.335  0.0359 -0.1626 -0.0459
73143W        W16134  19.216  29.728   7.151 -0.0244 -0.0804  0.2814
73144W        W16135  12.150  21.924   7.206 -0.0001  0.1377  0.3706
73145W        W16136  30.973  18.968   4.586 -0.0645  0.2301 -0.1154
73146W        W16137   8.120  24.177  16.198  0.0350  0.0772  0.1290
73147W        W16138   3.227  14.431  19.213 -0.1429 -0.0706  0.1079
73148W        W16139   9.283  16.929   3.131  0.1151 -0.2424  0.1047
73149W        W16140   2.652  18.994  11.098 -0.0529  0.1647 -0.0890
73150W        W16141   2.077  22.389   4.698 -0.0539  0.0603  0.0205
73151W        W16142   5.011  16.736  10.227 -0.2367 -0.1816 -0.2389
73152W        W16143  11.054  34.023   7.092  0.3296 -0.0329  0.1927
73153W        W16144   9.937   4.036   5.028  0.1651 -0.0404  0.1311
73154W        W16145   2.989  28.183   6.800 -0.1741 -0.0819  0.1158
73155W        W16146  16.827  28.634   8.619  0.2229  0.0417 -0.1171
73156W        W16147   9.402   7.733   0.255 -0.0924  0.0391 -0.2594
73157W        W16148   5.669  16.457  27.688 -0.3053  0.0222 -0.2024
73158W        W16149   4.106  28.496  26.248  0.0137  0.1900 -0.3530
73159W        W16150   7.987  19.348   4.316  0.1111 -0.0355 -0.1881
73160W        W16151   1.727  22.854   7.013  0.0594  0.1623  0.0472
73161W        W16152  11.792   4.727   0.464  0.1339 -0.0202 -0.1814
73162W        W16153   6.184  27.123   2.668  0.0269 -0.0030  0.0457
73163W        W16154  10.440  24.386   8.470 -0.0290 -0.0078  0.1246
73164W        W16155  31.811  11.082  28.388  0.4387  0.0037 -0.0851
73165W        W16156   5.987  19.455   9.768 -0.1538  0.0303  0.1227
73166W        W16157   4.870   8.267   7.547  0.2122  0.1495  0.1992
73167W        W16158   1.581  21.693   0.580 -0.1949  0.0965  0.1449
73168W        W16159   9.922  12.915   4.728  0.1672  0.0966 -0.0668
73169W        W16160   6.648  13.212  25.069  0.0835  0.0033  0.1660
73170W        W16161   9.241  20.898   9.894 -0.2230 -0.2138  0.0066
73171W        W16162  27.271  25.241   1.599  0.2370  0.0220 -0.4860
73172W        W16163  34.000   0.608   6.957 -0.3826  0.3762  0.0854
73173W        W16164   1.170  16.094  10.902 -0.0317  0.0272  0.2337
73174W        W16165  28.154  26.323   2.239  0.0545  0.0034  0.2190
73175W        W16166  14.385  12.929   6.930  0.0076  0.1620  0.0345
73176W        W16167   4.440   2.269  10.349  0.0915  0.0285  0.2355
73177W        W16168  10.097  18.153   1.681 -0.1703  0.2461 -0.1419
73178W        W16169   9.137  20.040  10.076  0.0618  0.0557 -0.3660
73179W        W16170  16.401   4.740  29.127  0.2727  0.1833  0.0161
73180W        W16171  16.109  25.292   4.388 -0.0682 -0.0943 -0.0913
73181W        W16172  33.410  14.798   2.286 -0.2284 -0.3283 -0.0177
73182W        W16173  14.620  28.874  17.212 -0.0477 -0.1771 -0.1969
73183W        W16174  10.443   0.966  15.486 -0.1045 -0.1245  0.1106
73184W        W16175  14.299   6.629  19.244 -0.1452 -0.2849  0.0470
73185W        W16176  28.867  17.932   2.792 -0.1379 -0.1395  0.1286
73186W        W16177   6.020  10.574   7.188  0.1310  0.1640 -0.3049
73187W        W16178  10.371  29.083   8.775  0.0624  0.1516  0.1335
73188W        W16179  12.062  10.678  24.136  0.0997  0.1216  0.0751
73189W        W16180   9.192  20.062   6.544  0.4260 -0.4053 -0.2073
73190W        W16181  32.513   6.061   8.834  0.3175  0.1396  0.1340
73191W        W16182  13.530  17.188  24.754 -0.1573  0.2859 -0.1197
73192W        W16183   5.892  26.619   5.676  0.2381 -0.1297 -0.1621
73193W        W16184   6.962  21.309   0.657  0.3471 -0.0680  0.0865
73194W        W16185   0.131  22.342   3.625  0.3605  0.3964 -0.1854
73195W        W16186  13.363  29.730   3.738  0.2022  0.1990 -0.0882
73196W        W16187   2.552  28.041   6.062  0.0621  0.0498  0.0319
73197W        W16188  34.111   1.673  26.822  0.0422 -0.0785 -0.1526
73198W        W16189  14.077  25.615   7.470  0.1262  0.2796  0.0879
73199W        W16190   5.540  33.410  25.047 -0.0332 -0.2624 -0.0795
73200W        W16191   7.505  30.729   3.988 -0.2101 -0.1800  0.2379
73201W        W16192  18.038   6.837   2.865 -0.0884 -0.1735 -0.3514
73202W        W16193  12.230  12.837  29.168 -0.0252 -0.1955 -0.0637
73203W        W16194  15.002  13.783   1.988 -0.2511  0.1709  0.1526
73204W        W16195   9.448   4.621   2.575  0.1260  0.0634 -0.1534
73205W        W16196  33.414  24.476   8.829  0.0724 -0.2328 -0.0914
73206W        W16197   5.469  33.879   4.073 -0.0138 -0.2305 -0.0693
73207W        W16198   7.885  25.564   9.340 -0.0531 -0.1724 -0.2084
73208W        W16199   6.332  21.314  10.194  0.1730  0.2677  0.2157
73209W        W16200  10.653  31.771  10.768  0.1497 -0.0107 -0.2262
73210W        W16201   3.302   9.732  27.537  0.0845  0.1274 -0.1434
73211W        W16202  20.303  29.214  27.752  0.3076 -0.1383 -0.1933
73212W        W16203   3.174  31.651   3.609 -0.0229  0.1293 -0.1191
73213W        W16204  19.303  20.601   7.578  0.1223  0.0080 -0.0168
73214W        W16205   2.646  11.877  22.283 -0.2211 -0.0556 -0.1110
73215W        W16206   7.833  14.583   6.385  0.1653  0.2555 -0.2211
73216W        W16207   8.747  23.180   9.884  0.0226  0.0141 -0.0979
73217W        W16208  10.406  19.355   5.502 -0.0137 -0.3043 -0.2262
73218W        W16209   6.770   8.966  27.521  0.0802 -0.4325 -0.1474
73219W        W16210  19.154   2.493   6.980  0.0588  0.0547  0.1593
73220W        W16211  11.407  23.944   2.627 -0.0073  0.1347 -0.3119
73221W        W16212  30.973  17.081  22.237 -0.0740  0.0233 -0.1948
73222W        W16213   0.010   9.568   2.239 -0.1563  0.2989 -0.1861
73223W        W16214   4.102  29.678  15.452  0.3551 -0.0092 -0.1525
73224W        W16215   0.809  29.517  28.152 -0.0532  0.2360  0.0476
73225W        W16216   8.211   9.645  28.314  0.4496 -0.0865 -0.1714
73226W        W16217  16.002  17.295   4.707 -0.0150  0.0199  0.2833
73227W        W16218   8.462  17.171   8.535  0.0156 -0.1697  0.1599
73228W        W16219  14.304  17.781  22.516 -0.0916 -0.1306  0.3876
73229W        W16220   5.703  17.240   6.595  0.1311  0.0513 -0.2259
73230W        W16221   2.319  16.288   1.166  0.4209  0.0348 -0.1647
73231W        W16222  33.987  14.447  11.341  0.1450 -0.3283  0.0012
73232W        W16223   0.364   3.559   5.839 -0.0260  0.0954 -0.1968
73233W        W16224  30.132  29.204   5.846 -0.3111  0.1073 -0.1573
73234W        W16225  32.814  23.565  21.599 -0.3374 -0.2832 -0.2356
73235W        W16226  25.547  29.242  25.778 -0.2556 -0.1012 -0.2189
73236W        W16227  23.244  31.643   3.076  0.0110 -0.0873  0.0916
73237W        W16228  25.338  23.735   6.424  0.1341 -0.2614  0.0421
73238W        W16229  27.678   9.874  28.898 -0.0709 -0.1361  0.0507
73239W        W16230  29.567  24.538   9.172 -0.2483  0.0761 -0.3348
73240W        W16231   7.216  25.305  19.279 -0.0074 -0.1129 -0.2374
73241W        W16232   1.523  26.945   3.131 -0.0780 -0.0338 -0.3896
73242W        W16233   9.225  12.661   4.018 -0.2095  0.0765 -0.1671
73243W        W16234   6.320  18.896  23.663  0.0396 -0.1534  0.2761
73244W        W16235  10.175  21.369  25.895  0.0657 -0.0494  0.2671
73245W        W16236   1.966  19.338  21.208  0.5544  0.2089 -0.0942
73246W        W16237  34.090  17.273   6.339 -0.0890 -0.1736 -0.0083
73247W        W16238   6.569  25.541  22.234  0.2450 -0.1304  0.1276
73248W        W16239  30.355  28.083  25.980 -0.1114 -0.4017 -0.3657
73249W        W16240   1.856  29.078   5.091  0.0241 -0.0596 -0.0695
73250W        W16241  26.421  19.827  21.730 -0.0269 -0.1582 -0.0007
73251W        W16242  25.197   6.523   8.500 -0.1055 -0.1119 -0.1364
73252W        W16243  11.468  33.162  18.009  0.0334  0.1253 -0.1764
73253W        W16244   3.292   2.353   5.894  0.1344 -0.0825  0.0459
73254W        W16245   3.388  12.978  24.194 -0.0193 -0.1539  0.0479
73255W        W16246  19.917  25.052   4.781  0.1194  0.0282  0.1393
73256W        W16247  16.959  13.903  28.204 -0.1561  0.2205 -0.0272
73257W        W16248  30.949  11.524   6.951 -0.1992 -0.0521 -0.0165
73258W        W16249  29.474   1.733  29.027  0.0648 -0.4249  0.0261
73259W        W16250   0.861  33.745   2.360  0.0288 -0.0864 -0.0284
73260W        W16251   4.916  29.977  25.294 -0.0546  0.0352  0.1524
73261W        W16252   5.572   6.435   5.865 -0.0367  0.3410  0.1400
73262W        W16253   0.268  22.091  29.222  0.0638 -0.0735 -0.2208
73263W        W16254   9.949   6.968  27.052 -0.2992  0.0429 -0.3278
73264W        W16255   5.359   4.829  10.290 -0.1931  0.1174 -0.2700
73265W        W16256   7.212  29.232   2.082 -0.0417 -0.1558  0.0067
73266W        W16257   3.690  25.983   4.594  0.1711 -0.5028 -0.2282
73267W        W16258  14.929  21.940   9.248  0.0199  0.0970 -0.1671
73268W        W16259  33.887  33.401   2.296  0.1206 -0.1704 -0.0048
73269W        W16260  12.901  23.426   3.948  0.0295  0.1298  0.0990
73270W        W16261  10.422  25.731   3.728  0.1955 -0.0777 -0.2577
73271W        W16262   8.231   9.162  23.127 -0.2158 -0.1789  0.2119
73272W        W16263   4.869  25.451   5.344  0.2444  0.1191 -0.3294
73273W        W16264  25.856  25.185  26.444  0.2952  0.1037  0.2042
73274W        W16265   6.933  31.010   7.784 -0.1020  0.1528  0.3426
73275W        W16266  32.335  30.070  26.359  0.0608  0.3203 -0.2344
73276W        W16267   7.350  15.468   5.508 -0.3243 -0.0771 -0.0896
73277W        W16268   5.414  21.914   3.845 -0.0978 -0.0065 -0.0026
73278W        W16269  14.756  18.934   0.987  0.0239  0.1044 -0.1226
73279W        W16270  10.527  18.179   2.965 -0.0660  0.0921  0.2093
73280W        W16271  33.513   1.508  23.324 -0.1327  0.1607  0.0479
73281W        W16272   8.901  18.041  10.676 -0.0026 -0.0883  0.0368
73282W        W16273  20.351  30.940  24.805  0.0600  0.1969  0.4876
73283W        W16274   8.270  12.953   4.296  0.3288  0.2395 -0.1626
73284W        W16275   1.771   8.623  28.053  0.1459  0.1266 -0.0468
73285W        W16276  30.437  17.068  26.123 -0.2990  0.3085 -0.2401
73286W        W16277  18.161  19.074  25.900 -0.2024  0.1619  0.0585
73287W        W16278   4.036  30.296  28.730  0.2015  0.0476  0.0402
73288W        W16279  16.139   0.055  24.042 -0.0069  0.1477  0.0287
73289W        W16280   6.500   8.437  23.780 -0.2735  0.0784  0.1857
73290W        W16281  33.624  20.062   7.119  0.1412  0.0521  0.0956
73291W        W16282   0.867  22.584  25.950  0.1825  0.1055  0.1738
73292W        W16283   0.839   2.607  15.996  0.1875  0.1505 -0.0092
73293W        W16284   6.945  18.778  23.685  0.0544 -0.3393  0.0181
73294W        W16285   3.444  30.212   7.724  0.1462  0.1808  0.2545
73295W        W16286   5.727  20.806   4.097  0.1484 -0.0527 -0.0204
73296W        W16287   9.177  22.124   7.578 -0.0772  0.0693 -0.2805
73297W        W16288  18.876  24.530   1.942 -0.1617 -0.0202  0.1975
73298W        W16289   6.898  15.673   5.319 -0.0774 -0.1144  0.0526
73299W        W16290  29.945  12.480   9.462  0.1110  0.3898  0.0118
73300W        W16291  32.262  32.018  26.087 -0.0619 -0.2681 -0.1610
73301W        W16292  27.176  29.653   8.476 -0.2696  0.2712 -0.2855
73302W        W16293   1.695  32.446  27.352 -0.0024  0.1037  0.2676
73303W        W16294  34.115  28.519  28.692  0.1181  0.1647 -0.0942
73304W        W16295   1.210  15.887   6.917  0.0351 -0.2514  0.1611
73305W        W16296   1.697   0.700   6.392 -0.2798  0.0570 -0.3969
73306W        W16297  33.890  15.491   4.632 -0.1412 -0.1466 -0.0575
73307W        W16298  34.205  18.239   5.242 -0.2243 -0.1804  0.4658
73308W        W16299  33.949  12.506   2.291  0.0899  0.0944  0.2090
73309W        W16300   4.833   0.205   1.365  0.1415  0.1606 -0.0211
73310W        W16301  32.710  20.866  28.525 -0.2204  0.1079 -0.3151
73311W        W16302  13.211   8.080  26.461 -0.4455  0.1121 -0.0469
73312W        W16303   2.555  20.003  28.663  0.1419 -0.0578 -0.0247
73313W        W16304  10.496  18.202  23.940 -0.0127 -0.0061  0.2384
73314W        W16305   9.982  27.680   4.552  0.3312  0.4165 -0.4674
73315W        W16306   2.471  30.024   8.113  0.0834  0.1053 -0.1298
73316W        W16307   2.086  22.798   3.336  0.2937  0.0470  0.1993
73317W        W16308  16.552  13.628  26.081 -0.1218  0.1803  0.3880
73318W        W16309  33.638  18.108   6.128 -0.0984  0.2371  0.0018
73319W        W16310   9.717  15.811   5.999  0.0027  0.0634  0.0493
73320W        W16311  11.544   7.986   4.039 -0.0683  0.3391  0.3122
73321W        W16312  27.726  24.099   8.406 -0.0735  0.3528 -0.2238
73322W        W16313  13.161  14.958   6.354 -0.2263 -0.3081  0.0604
73323W        W16314  11.530  16.825  19.269 -0.3627 -0.3222 -0.2037
73324W        W16315   4.078  21.806  10.591 -0.4593 -0.0449 -0.0208
73325W        W16316   2.974  22.133   6.874  0.0107 -0.0697  0.1622
73326W        W16317   6.311  10.020   3.729  0.1713  0.2875  0.2111
73327W        W16318   1.641  22.210  23.432  0.1168 -0.2500  0.1278
73328W        W16319  26.575  27.083   6.887 -0.2030 -0.2681  0.0019
73329W        W16320   6.146  16.275   8.782  0.1144  0.1704  0.0106
73330W        W16321   7.234  25.158  21.783 -0.1308 -0.0483  0.1003
73331W        W16322  33.126   0.108  18.869 -0.2185 -0.1114  0.1145
73332W        W16323  27.781  26.996  28.934  0.3170 -0.3217  0.0737
73333W        W16324  31.202  25.687   0.568  0.1530 -0.0105 -0.1646
73334W        W16325  29.445  19.264   6.387 -0.2256 -0.3845 -0.2050
73335W        W16326  28.871  30.118  20.183 -0.0010 -0.1136  0.0456
73336W        W16327  20.022  20.412   4.759  0.2320  0.1517 -0.0774
73337W        W16328  30.841  11.508  26.529  0.1028 -0.0604  0.2127
73338W        W16329  31.628   3.544   3.875 -0.2623 -0.3264  0.1182
73339W        W16330  12.554  26.100   4.170  0.0533  0.1343  0.3627
73340W        W16331  21.180  27.049  29.074  0.3089 -0.1798 -0.2392
73341W        W16332   6.923  15.364  27.570 -0.1439 -0.2619 -0.0133
73342W        W16333   2.467  22.368   3.378  0.1568  0.1095 -0.3579
73343W        W16334  12.198  31.495  17.374  0.1235 -0.0310  0.0818
73344W        W16335  28.474  20.693  10.143  0.0370  0.1338  0.1623
73345W        W16336  19.441  23.360   0.683  0.1991 -0.0666  0.2579
73346W        W16337  17.796   9.866   1.056  0.2031 -0.0566  0.1246
73347W        W16338  12.443  22.989   0.777 -0.0871 -0.1208  0.2087
73348W        W16339  12.814  23.309   1.940 -0.1538  0.2323  0.1263
73349W        W16340  30.810  13.547  26.199  0.2208 -0.1387  0.0525
73350W        W16341   3.733  18.366  11.876  0.0543  0.1540 -0.0367
73351W        W16342  12.446  20.569   8.464  0.0185  0.1671 -0.2569
73352W        W16343   3.181  17.533   4.275 -0.3574 -0.1752  0.2403
73353W        W16344  34.499  22.131   6.543  0.1016 -0.0504  0.3640
73354W        W16345  23.743  34.721   1.030 -0.2824 -0.1626 -0.2845
73355W        W16346   1.521  25.391  15.473 -0.0587 -0.2781  0.2650
73356W        W16347   7.031  23.319   6.590  0.0663 -0.1821 -0.3455
73357W        W16348   7.812  25.776   2.353  0.2625  0.3767  0.1880
73358W        W16349  29.969  28.927  21.771 -0.2787 -0.1203  0.0766
73359W        W16350   2.967  30.098   1.563  0.4997 -0.1188  0.0442
73360W        W16351  14.391  15.044   2.676 -0.1917  0.2439 -0.0514
73361W        W16352  13.384  29.487   5.817  0.2685  0.1159  0.0608
73362W        W16353  25.141  31.526  27.114  0.1564  0.2802  0.0860
73363W        W16354  26.386  18.059   6.562 -0.0319 -0.1566  0.2509
73364W        W16355   7.726  20.925   6.362  0.3198  0.0245 -0.2487
73365W        W16356   6.739   9.428   8.780 -0.0642  0.2903  0.0383
73366W        W16357  32.161  25.997   7.921 -0.2425 -0.2014 -0.0414
73367W        W16358  33.915  17.723   5.216 -0.1443 -0.1527  0.7290
73368W        W16359   6.811  32.317  18.578  0.2177  0.0066 -0.0000
73369W        W16360   8.814  23.984  28.468 -0.0522  0.0442  0.1544
73370W        W16361  14.514   9.994   8.031 -0.0316 -0.1747 -0.1875
73371W        W16362  11.027  19.773  18.227 -0.2811  0.2422  0.0395
73372W        W16363   9.146  26.471   5.044 -0.2434 -0.0578 -0.1376
73373W        W16364   5.716  14.208   9.385  0.2924  0.0351 -0.0444
73374W        W16365  12.252  13.929  16.040  0.2950 -0.0664  0.1574
73375W        W16366  11.935  29.662   9.306 -0.0068  0.0429  0.0386
73376W        W16367   1.482  21.494   1.201  0.1988 -0.0705 -0.0079
73377W        W16368  27.059  22.665  28.488 -0.1390  0.0013 -0.0417
73378W        W16369   8.406  16.839  18.940 -0.0460 -0.1892 -0.2361
73379W        W16370  32.857  14.471   7.584 -0.0241 -0.0461  0.0576
73380W        W16371  13.680  16.586   5.946  0.2448  0.1915 -0.4181
73381W        W16372  28.703  32.714   5.219  0.2793  0.1182  0.0189
73382W        W16373   1.915   1.509   4.358 -0.3451 -0.1531 -0.0360
73383W        W16374  13.416  16.391  25.520  0.0049 -0.2602 -0.0185
73384W        W16375  31.876  18.671  24.002 -0.3188  0.1048 -0.0981
73385W        W16376   9.079  13.106   2.602 -0.2315 -0.2450 -0.0985
73386W        W16377  28.683  29.537   6.660  0.0494 -0.3209 -0.3204
73387W        W16378  34.191  22.926   6.355 -0.1181  0.3192 -0.0397
73388W        W16379  34.620  22.578   4.447  0.1741 -0.0043  0.0469
73389W        W16380   4.393  17.453   0.641 -0.0518 -0.0032 -0.1489
73390W        W16381  33.040   8.460   9.372  0.3394  0.1782  0.0116
73391W        W16382   3.166  18.508   8.615  0.1092 -0.0899 -0.0329
73392W        W16383  27.720  17.077  26.730 -0.5548 -0.1529  0.0064
73393W        W16384   9.201  18.915  28.503  0.1035 -0.1163  0.0505
73394W        W16385  11.005  21.195  23.477 -0.0001 -0.2551  0.1977
73395W        W16386  10.957  32.968   6.590  0.2470 -0.1171 -0.0218
73396W        W16387   6.889  21.273   4.714 -0.3202 -0.3167 -0.3377
73397W        W16388   7.060  34.757   8.310 -0.1620  0.0185 -0.1131
73398W        W16389  33.333   4.374  29.045  0.3039  0.1704 -0.2287
73399W        W16390   6.912   0.810   8.542 -0.1365  0.0695  0.0347
73400W        W16391  27.615   2.818   0.013  0.0157  0.0756  0.3111
73401W        W16392  27.757   9.072   6.740  0.0068 -0.0723  0.0663
73402W        W16393  19.881   9.806  20.169 -0.0977 -0.2656 -0.2069
73403W        W16394  24.091  33.754   1.708  0.4210 -0.2575  0.1044
73404W        W16395   5.836  10.694  22.812  0.0959 -0.2031 -0.2928
73405W        W16396  29.755  27.056   6.378 -0.0434 -0.0475 -0.1339
73406W        W16397  12.197   8.121   0.335  0.1873  0.1858  0.2109
73407W        W16398   8.650  17.691   4.440  0.0513  0.2035  0.0224
73408W        W16399  18.719  23.083   5.964 -0.2097  0.0275  0.0407
73409W        W16400  33.148  24.265  27.971 -0.0573 -0.0085  0.1762
73410W        W16401   7.938  10.925   2.044  0.2102 -0.1885  0.1115
73411W        W16402  18.978  20.638  18.174  0.0240 -0.3097  0.1940
73412W        W16403  22.828  21.428   7.213 -0.1922  0.0844  0.1731
73413W        W16404  26.645  33.974   8.642 -0.1656 -0.3756  0.0326
73414W        W16405  11.101  23.778  10.160 -0.0034  0.0088  0.2574
73415W        W16406   5.579  23.962   1.046  0.0509  0.0376  0.2988
73416W        W16407   1.892   6.789  21.521 -0.1827 -0.1849  0.3106
73417W        W16408   7.186  27.698  23.359 -0.0617  0.0930  0.0235
73418W        W16409  23.211  20.515  16.360 -0.0518  0.2438  0.1137
73419W        W16410  31.034  17.769  27.089  0.0453 -0.2185  0.0133
73420W        W16411  24.418  26.509   1.046 -0.0394 -0.0084  0.0723
73421W        W16412  21.203   0.340  14.482 -0.1180 -0.1891  0.0964
73422W        W16413  12.415  24.256   6.144  0.1646  0.0746  0.0508
73423W        W16414   1.098  19.801   5.482 -0.0749 -0.3630  0.0177
73424W        W16415  10.057  11.503   2.078 -0.0709  0.2227  0.2308
73425W        W16416   5.036  19.605   3.638  0.2359 -0.3315  0.1807
73426W        W16417   6.021  24.446  19.476  0.3138 -0.3222  0.1230
73427W        W16418  19.176  17.238   7.441  0.0110 -0.0394 -0.0981
73428W        W16419  27.895  26.212   6.052  0.1359  0.2687  0.2193
73429W        W16420   9.803  33.794   6.658  0.0258  0.2417 -0.0139
73430W        W16421   7.992  11.723   0.326  0.0632 -0.3122  0.1893
73431W        W16422   0.671   4.421   0.851  0.0050  0.1425 -0.4348
73432W        W16423   1.617  10.291   6.945  0.0407  0.1701  0.1266
73433W        W16424  34.590  17.242   1.730  0.1305  0.2090  0.0060
73434W        W16425   7.747  20.227   6.964  0.0179  0.2118  0.0180
73435W        W16426  11.161  17.445   3.210  0.0344 -0.2327 -0.0256
73436W        W16427   5.517  26.974  14.891 -0.0917 -0.0678 -0.2372
73437W        W16428   5.784  21.833   0.465 -0.1338  0.0064 -0.0449
73438W        W16429   7.287   8.678  26.973  0.0766  0.1466 -0.3028
73439W        W16430   0.557  16.699   6.874 -0.3557 -0.0940 -0.2789
73440W        W16431   6.294   0.625   9.283 -0.2602 -0.3683  0.0005
73441W        W16432  22.565  27.153   4.780 -0.0461 -0.2713 -0.0978
73442W        W16433   4.923  32.766   2.407 -0.1041 -0.2773  0.0984
73443W        W16434  19.542  19.828   6.602  0.2705 -0.0759 -0.1152
73444W        W16435   0.307  25.930   8.489 -0.2605 -0.0888  0.1761
73445W        W16436  20.753  12.943   7.895  0.3472 -0.2258  0.1547
73446W        W16437  13.898  29.018   6.948  0.1030  0.1299  0.0493
73447W        W16438  27.868  12.831   9.437  0.1624 -0.0747 -0.2285
73448W        W16439  12.475   4.072  15.832  0.0367 -0.1674  0.0986
73449W        W16440  10.088   1.511  23.854  0.1583 -0.1444  0.1989
73450W        W16441  16.345  30.562  27.777  0.0055  0.0613  0.2011
73451W        W16442   9.079  14.757   1.301 -0.2138 -0.0850 -0.0312
73452W        W16443  33.454  25.933   8.206  0.1180  0.0927 -0.0251
73453W        W16444  30.931  30.965   0.931 -0.1525  0.0917 -0.1069
73454W        W16445  26.968  27.243  19.651 -0.2041  0.2109 -0.2742
73455W        W16446  12.554  16.788   3.211 -0.2436 -0.1001  0.2069
73456W        W16447   3.875  22.833   7.096 -0.0261 -0.0793 -0.2383
73457W        W16448  34.179  27.688   1.031  0.1075  0.1276  0.1819
73458W        W16449  15.531  23.921  29.002 -0.1771  0.3933  0.1814
73459W        W16450   8.367  11.167  22.745  0.3383 -0.2018 -0.0943
73460W        W16451  24.771  17.227   3.710 -0.2019 -0.4054 -0.0189
73461W        W16452   7.636   4.045  10.444 -0.0238  0.2449  0.0913
73462W        W16453   3.849  11.684   7.857 -0.1937  0.0170 -0.1289
73463W        W16454  14.757  24.904   5.205 -0.0021  0.1254 -0.0906
73464W        W16455   6.117   9.892   3.231 -0.0416 -0.0779 -0.2846
73465W        W16456   0.120  32.771   6.530  0.0335 -0.0903 -0.1809
73466W        W16457   5.604  19.586   0.717 -0.0061 -0.2116 -0.1328
73467W        W16458  12.061  26.817   8.295 -0.2619  0.1094 -0.0789
73468W        W16459  20.747  15.044  27.626  0.0894  0.0157 -0.0618
73469W        W16460  31.383  11.891   5.216  0.0398  0.0612 -0.2556
73470W        W16461  14.224  27.092   3.998  0.1966  0.1543  0.3141
73471W        W16462   3.620  11.862  22.164  0.3452  0.2291 -0.1250
73472W        W16463  19.985  22.525  18.426  0.0807  0.0435  0.3695
73473W        W16464   4.935  17.998  24.830 -0.0594  0.0104 -0.1039
73474W        W16465   9.170  28.276   0.457  0.0154 -0.0343  0.3356
73475W        W16466   9.758  17.542   8.612  0.0838 -0.2923  0.0854
73476W        W16467  34.772  21.265   9.232 -0.1523 -0.0159  0.3336
73477W        W16468   9.820   7.184   4.917 -0.1073 -0.1785 -0.0993
73478W        W16469   7.915  14.378  22.091  0.0182 -0.0151 -0.0344
73479W        W16470  33.789  13.511  25.190 -0.0297 -0.0621  0.1248
73480W        W16471   9.720  25.035  10.365  0.2190  0.0833 -0.1008
73481W        W16472  28.244  23.028   4.878  0.1505 -0.0370  0.1628
73482W        W16473  14.768  19.430   7.438 -0.2279 -0.3105  0.0552
73483W        W16474  30.940  15.697   9.222 -0.0964 -0.1559  0.0179
73484W        W16475   8.600   1.001  10.101  0.0834 -0.0020 -0.0029
73485W        W16476  15.976  24.783   0.375  0.2377 -0.2415 -0.0298
73486W        W16477  26.032  20.190   4.707 -0.1072  0.3194  0.2152
73487W        W16478  32.125   2.945   0.020  0.0023 -0.0270 -0.0146
73488W        W16479   4.593   1.178   3.931 -0.4920  0.0440  0.2437
73489W        W16480   9.360  13.435   8.124  0.0259 -0.1812  0.0533
73490W        W16481  23.320  23.171  28.121 -0.3063 -0.2188  0.1736
73491W        W16482  16.580   9.275  23.302 -0.0628  0.2989  0.3446
73492W        W16483   1.582  30.926   7.337  0.0642  0.2054 -0.0596
73493W        W16484   7.512  17.783  25.241  0.0539 -0.0735  0.2469
73494W        W16485  11.454  21.643   6.776  0.1312 -0.2760  0.0240
73495W        W16486   6.054  30.829   8.779 -0.0498  0.0708 -0.2011
73496W        W16487  12.117  33.861  19.171 -0.2576  0.2139 -0.2597
73497W        W16488  27.451  34.300  24.760  0.2527  0.0263  0.4780
73498W        W16489  31.759  21.784  28.640  0.3470  0.2364  0.1311
73499W        W16490   8.626   5.358   4.465  0.2493 -0.0865  0.0146
73500W        W16491   1.069  26.623   8.714 -0.1044 -0.0045  0.1585
73501W        W16492   1.635   4.470  25.741  0.0178  0.1110 -0.3376
73502W        W16493  12.060  10.863  23.619 -0.0358  0.0073 -0.3161
73503W        W16494   1.914  15.211  27.478 -0.0307 -0.0161  0.2107
73504W        W16495   7.501  28.048   4.609  0.3659 -0.2581  0.1312
73505W        W16496   5.598  30.852   9.287 -0.2466  0.4066 -0.1374
73506W        W16497  14.715   8.827  24.517  0.1248 -0.3598 -0.1849
73507W        W16498  17.140  24.484  19.362 -0.0994  0.4870 -0.4314
73508W        W16499  28.669  23.353  27.540 -0.1378  0.1102  0.0284
73509W        W16500  34.148   3.127   2.803 -0.1425  0.0720  0.1763
73510W        W16501   6.952  18.884   1.764  0.1808 -0.2061  0.2773
73511W        W16502  33.738  13.314  21.672 -0.5264 -0.3333 -0.4011
73512W        W16503  34.576  19.467   5.712  0.0539 -0.0542 -0.2164
73513W        W16504  12.189  24.420   7.799  0.1015  0.1798 -0.0651
73514W        W16505   2.170  31.446   0.419 -0.2329  0.1364 -0.1573
73515W        W16506   9.222  21.922   5.336  0.0877  0.2529  0.1176
73516W        W16507   4.712  29.485  23.621 -0.1038 -0.3190  0.0022
73517W        W16508  33.205  12.900   2.730 -0.0542 -0.3483 -0.0485
73518W        W16509  14.448   4.747   8.087  0.1605 -0.3667 -0.1343
73519W        W16510  25.792  27.560  15.215  0.0625 -0.0611 -0.2215
73520W        W16511   5.245   6.764   3.095  0.0315 -0.0263  0.0167
73521W        W16512   6.627  11.020  21.812 -0.2259 -0.1007 -0.0480
73522W        W16513   0.617  23.546   9.825 -0.1608  0.0758 -0.0620
73523W        W16514   1.738  16.787  24.045 -0.0167 -0.1975 -0.3797
73524W        W16515   2.852  28.753   7.971 -0.2259  0.0614  0.1056
73525W        W16516  10.769  25.680   4.216  0.2381  0.1786  0.1368
73526W        W16517  11.399  33.947  18.452  0.2467  0.1656  0.2912
73527W        W16518   7.508  16.887  26.862  0.1881  0.0691 -0.1624
73528W        W16519   7.306  32.449   0.956  0.0163 -0.0401  0.0845
73529W        W16520  22.783  23.181   4.866 -0.0317 -0.0700  0.2058
73530W        W16521  10.938  17.419  27.588 -0.1659 -0.0697 -0.1641
73531W        W16522  19.356  12.761   6.792  0.1065  0.0192  0.2719
73532W        W16523   1.324  15.508   2.791  0.1409 -0.0276 -0.1798
73533W        W16524  13.779  19.850   9.033 -0.0124  0.0597 -0.2614
73534W        W16525  18.564  28.561   7.662 -0.1539  0.0875  0.0525
73535W        W16526   1.339  17.864   2.778  0.1469  0.0887 -0.1865
73536W        W16527   5.915  23.160   0.646  0.0151 -0.0486 -0.0897
73537W        W16528   2.711  25.379   8.558  0.1329  0.1909  0.1604
73538W        W16529   5.896  26.531   7.416 -0.0849  0.2183 -0.1508
73539W        W16530  10.227  26.251   4.547  0.2244  0.1129 -0.0596
73540W        W16531  33.115  15.932  21.000  0.2643 -0.0264 -0.1734
73541W        W16532   4.509  16.942   0.177  0.1645 -0.1545  0.2803
73542W        W16533  16.089  23.966   5.171  0.2637  0.1142 -0.1235
73543W        W16534  15.381  22.487   2.924  0.1187 -0.0842 -0.0666
73544W        W16535  14.532  23.926   3.424  0.1400  0.1549  0.1489
73545W        W16536  23.052   9.438  26.995  0.1864  0.4172  0.0258
73546W        W16537   7.510  13.363   8.386  0.2225 -0.0608  0.2368
73547W        W16538   6.846  23.714   6.339  0.0220 -0.0629  0.2051
73548W        W16539   5.374  22.884   8.655 -0.1723  0.1951 -0.0071
73549W        W16540   7.515  29.490  24.328 -0.1079  0.2624  0.0901
73550W        W16541   1.260  20.724   5.472 -0.1129  0.2561 -0.0443
73551W        W16542   2.388  24.814   8.350  0.0404 -0.2655 -0.2750
73552W        W16543   7.308   6.855   5.949  0.1518 -0.0202 -0.0482
73553W        W16544  31.915  32.115   6.838  0.1398  0.1586  0.1131
73554W        W16545  13.904  32.336   4.358 -0.3010  0.1651 -0.0410
73555W        W16546  28.242  19.657   9.110  0.3347 -0.0116 -0.0382
73556W        W16547  10.160   8.022   2.283  0.0126 -0.4907 -0.1754
73557W        W16548   5.146  34.051  26.746 -0.0696 -0.2526 -0.1515
73558W        W16549   5.724  10.372   1.637 -0.1929 -0.0299 -0.0737
73559W        W16550   8.528  31.076   0.807  0.2032  0.1632  0.2227
73560W        W16551   2.889  31.725  21.455 -0.1876 -0.2043 -0.0430
73561W        W16552  10.970  11.554   8.934  0.2873  0.0104  0.1334
73562W        W16553  28.889  24.679   7.975  0.0776  0.2751 -0.1731
73563W        W16554   4.871  31.542   9.755 -0.1708  0.0083  0.1512
73564W        W16555  10.518  23.978   8.897 -0.1378 -0.1355  0.1204
73565W        W16556  19.640  14.181  13.296 -0.0758  0.0085  0.0358
73566W        W16557  34.321  33.734   4.328 -0.0692 -0.1138  0.1898
73567W        W16558  28.329  33.599   6.135  0.0964 -0.1401  0.0363
73568W        W16559  12.391  32.319   9.872  0.1397  0.2579 -0.0700
73569W        W16560  16.954  29.329   7.679 -0.0697  0.1739  0.1580
73570W        W16561   2.977  18.990   7.797  0.0638 -0.2152 -0.0944
73571W        W16562  14.117  21.661  27.227 -0.1113  0.3324  0.0836
73572W        W16563  33.139  13.049   1.185 -0.3120  0.2011  0.3994
73573W        W16564  33.881  29.048  22.923  0.1296 -0.0211 -0.1193
73574W        W16565   1.348   1.594  15.657 -0.1235 -0.1216  0.0872
73575W        W16566   3.014  18.041   0.618  0.2491  0.1539  0.0735
73576W        W16567  13.574  19.191   3.666 -0.3480 -0.0469 -0.0335
73577W        W16568  29.360  27.704   6.000  0.1195  0.1659 -0.0689
73578W        W16569   7.210  23.216   0.699  0.2483 -0.1389 -0.2465
73579W        W16570   6.514  29.673   1.049  0.0189 -0.2564  0.0164
73580W        W16571  20.596  10.919   1.273  0.0571 -0.4522 -0.1515
73581W        W16572   9.158  34.041   6.181 -0.0875 -0.3660 -0.0534
73582W        W16573  33.212  33.062   3.698 -0.0935 -0.0825 -0.0038
73583W        W16574  31.227  22.500   9.851 -0.2148 -0.1094 -0.0729
73584W        W16575  28.566   5.282  17.444  0.2521 -0.0653 -0.1884
73585W        W16576  13.416  18.230  24.913 -0.3301 -0.0830 -0.2043
73586W        W16577  25.395  14.962   3.311  0.0314 -0.0507  0.0481
73587W        W16578  29.260   3.047   1.260 -0.0675 -0.0246  0.2838
73588W        W16579  22.042   6.653   5.022 -0.0149 -0.2089 -0.0633
73589W        W16580   4.743  20.691   9.226  0.1482  0.0854 -0.0735
73590W        W16581   3.212  15.602  11.211  0.2769  0.0588  0.1449
73591W        W16582  31.093  16.454   5.306 -0.0773 -0.2831 -0.1992
73592W        W16583   2.741  17.723   4.128  0.1174  0.3272 -0.2384
73593W        W16584   2.346  14.740   0.048 -0.0610 -0.1296 -0.0026
73594W        W16585   5.133  16.917   8.571 -0.3741 -0.0701 -0.3466
73595W        W16586   5.666  13.542   7.058 -0.3791  0.5059  0.1856
73596W        W16587   7.753  32.188   9.364  0.0586  0.2161  0.0293
73597W        W16588   7.130  25.032   6.964 -0.1079  0.1666 -0.1612
73598W        W16589   1.041  14.896  10.432  0.0749  0.2140 -0.2266
73599W        W16590   3.074  24.073   9.057  0.2979  0.1995  0.4359
73600W        W16591  24.386  23.102   7.593 -0.0147  0.1402  0.2502
73601W        W16592   6.708  19.324   4.683  0.0299  0.0034  0.1001
73602W        W16593   9.209  14.531   3.738  0.0787 -0.0612  0.3930
73603W        W16594   0.085  29.392   8.806  0.2047  0.2504  0.1783
73604W        W16595  30.048  28.590   4.379 -0.1180  0.3078  0.2276
73605W        W16596   4.194  17.514  25.112  0.1324  0.1806  0.0285
73606W        W16597   6.742  15.983   8.237 -0.1813 -0.2536  0.1640
73607W        W16598  16.426  25.937   6.065 -0.0079 -0.0613  0.2390
73608W        W16599  26.833   8.461  27.049  0.1351  0.0599 -0.1368
73609W        W16600  29.967   8.303   8.099  0.2498 -0.2443 -0.0600
73610W        W16601  32.522  31.186   2.630 -0.1476  0.2118  0.3598
73611W        W16602   8.602  21.907  27.412  0.1787  0.0524  0.0044
73612W        W16603  30.804  28.805   7.106  0.2070  0.0137  0.1362
73613W        W16604   9.095   2.683   4.496 -0.2126  0.2886 -0.0159
73614W        W16605   6.873  14.409  10.712 -0.0508 -0.2623 -0.3829
73615W        W16606   4.094  31.194  24.109 -0.1496  0.0512 -0.1924
73616W        W16607  14.868  14.786   8.388 -0.2678  0.1460  0.0337
73617W        W16608  23.806   3.863   0.118 -0.3449 -0.4278 -0.0445
73618W        W16609   1.943  15.198   8.733 -0.2451 -0.0126  0.0226
73619W        W16610   7.147  19.256  23.986  0.0352  0.1799  0.0909
73620W        W16611   1.629  11.451   9.334  0.1555 -0.3202  0.1520
73621W        W16612  22.775  17.770   0.443  0.1018  0.1103  0.0746
73622W        W16613  19.424  34.107  17.425  0.2118 -0.1398 -0.3565
73623W        W16614  20.234  13.639   3.906 -0.3025 -0.2712 -0.1016
73624W        W16615   7.529  29.851   9.880  0.1059 -0.1060 -0.1746
73625W        W16616  30.165   9.506   1.349 -0.0545 -0.2094  0.2397
73626W        W16617   4.164  16.619  24.093  0.0307  0.0312 -0.1365
73627W        W16618   0.713  22.766   3.058  0.1018  0.0709 -0.0256
73628W        W16619  29.717  22.577   4.857 -0.0195 -0.0127  0.0980
73629W        W16620  29.887  13.896   8.433 -0.0452 -0.0921 -0.0426
73630W        W16621  32.633  28.073  24.317  0.2680 -0.2472  0.1161
73631W        W16622  27.874  23.889   2.326 -0.5322  0.3077  0.2533
73632W        W16623   4.999  26.194   6.403  0.1637  0.0581 -0.3539
73633W        W16624   0.517  11.537   3.537  0.1286 -0.2363  0.0795
73634W        W16625  33.168  26.645   4.331  0.0999 -0.0623 -0.2218
73635W        W16626  13.151  25.267   7.679  0.1700  0.0700  0.0460
73636W        W16627  32.230  25.211   1.176 -0.1806  0.2715 -0.0467
73637W        W16628   3.991  18.492   3.843  0.2415  0.0639 -0.2813
73638W        W16629   5.998  27.366  25.225 -0.0347 -0.2537  0.1929
73639W        W16630   9.622  32.623  29.195  0.0015  0.1819 -0.0492
73640W        W16631   2.780  17.829  28.860 -0.0645  0.2459  0.0960
73641W        W16632   5.920   8.752  20.567  0.0550 -0.0884  0.0971
73642W        W16633  26.828  11.428  28.909 -0.2754  0.1652  0.0855
73643W        W16634  26.344  24.218   4.833  0.0385  0.0908 -0.0739
73644W        W16635   1.534  23.657   6.639 -0.2394 -0.0143 -0.0834
73645W        W16636  12.940  25.998   0.918 -0.0055  0.0031 -0.1830
73646W        W16637  27.744  21.963   1.086  0.1489  0.0998 -0.0784
73647W        W16638  25.609  21.795  23.044  0.1082  0.2602 -0.1205
73648W        W16639   6.480  13.275  10.319 -0.2235  0.1237 -0.1413
73649W        W16640   6.455  11.281   7.336  0.0970 -0.1256  0.1783
73650W        W16641  19.310  19.995  26.967 -0.3092 -0.3807 -0.2216
73651W        W16642   5.996  23.500   5.888  0.1718  0.1844 -0.0369
73652W        W16643   0.932  15.540  26.830  0.0525 -0.1454 -0.2954
73653W        W16644  10.437  24.764   4.080  0.0636  0.1695 -0.1824
73654W        W16645   9.258  20.781   5.473  0.0388 -0.3003 -0.0089
73655W        W16646  29.924  23.874  23.256  0.6116  0.1573  0.1357
73656W        W16647  19.043  29.522   6.725 -0.0061  0.1107 -0.1068
73657W        W16648   2.558  15.126   3.012  0.0583  0.0700 -0.2735
73658W        W16649  11.443  26.571   2.908 -0.3795  0.0789  0.0503
73659W        W16650  10.201  23.473  26.274  0.3735 -0.3092 -0.0050
73660W        W16651   7.392  19.882   1.612 -0.0446  0.1291  0.0949
73661W        W16652   6.352  27.312  20.042 -0.3901  0.0665 -0.2179
73662W        W16653  10.082  24.546   9.395 -0.2531 -0.0834 -0.2756
73663W        W16654  30.565  19.485   6.232 -0.2989  0.0006 -0.0993
73664W        W16655   2.701   7.603   6.634  0.0124 -0.0494 -0.2505
73665W        W16656  25.953  25.592   7.439  0.0733 -0.2308  0.2945
73666W        W16657  33.126  15.006   0.357  0.0244 -0.2512 -0.0867
73667W        W16658   0.819  32.451   1.953 -0.0888  0.1006  0.1520
73668W        W16659   4.882  28.283   6.610  0.0753  0.3588 -0.1992
73669W        W16660   5.747  26.926   7.112  0.0138 -0.1612 -0.1609
73670W        W16661  33.585  24.853   4.550  0.0370 -0.2838  0.0673
73671W        W16662   5.600  26.083   1.728  0.0725  0.3127  0.0456
73672W        W16663  17.522  15.246  24.047  0.0575 -0.2596  0.2421
73673W        W16664  29.960   7.623   4.397  0.1110 -0.2810  0.0794
73674W        W16665  30.020  28.835   5.417  0.0148  0.1412  0.0843
73675W        W16666  32.295  25.481   3.403  0.0893 -0.1399 -0.1546
73676W        W16667   9.921  20.337  25.180  0.1173 -0.0061  0.0299
73677W        W16668  12.596  18.062   3.244  0.1809  0.0279 -0.1086
73678W        W16669  29.380  12.978   3.106  0.1933  0.2209  0.1604
73679W        W16670  15.906   9.142   8.215 -0.1048 -0.1520 -0.4842
73680W        W16671   5.361   0.650  29.073  0.3641  0.0852  0.0475
73681W        W16672   0.784  17.007  22.673  0.3093 -0.0327 -0.4322
73682W        W16673  14.949  16.889   5.667 -0.1428  0.4148 -0.1852
73683W        W16674  20.808  19.617  21.673  0.1126  0.1232  0.0201
73684W        W16675   2.823   8.079  23.662 -0.0287  0.1842  0.1477
73685W        W16676   4.160  17.473  10.491 -0.3180  0.0018 -0.1868
73686W        W16677   1.636  34.407   3.013 -0.1148 -0.1515  0.1264
73687W        W16678  11.866  22.907   0.046  0.0771 -0.2083  0.2335
73688W        W16679   9.209   5.092   8.668  0.0432  0.0748 -0.2423
73689W        W16680  11.454  13.280   2.729 -0.2249 -0.1020 -0.1835
73690W        W16681   3.509  18.790  11.664 -0.0132  0.2214  0.1394
73691W        W16682  12.570   3.805   5.967  0.3082 -0.0163  0.0470
73692W        W16683  16.321  23.973   3.884 -0.1555 -0.2373 -0.1043
73693W        W16684  11.431  31.379   4.734  0.1799 -0.3230 -0.0701
73694W        W16685   5.266  18.549   9.628  0.3377 -0.0420  0.1210
73695W        W16686   3.643  31.736   2.269 -0.0006  0.0206  0.3835
73696W        W16687   0.487  33.681   0.926  0.0293  0.1702 -0.1816
73697W        W16688  24.301  15.288  24.111  0.0922  0.1843  0.2602
73698W        W16689  10.645  26.426   3.355  0.0311  0.0457 -0.2493
73699W        W16690   1.517   0.194   7.264  0.1458 -0.3123  0.0883
73700W        W16691  26.695  19.652   2.043 -0.1042  0.1725  0.4130
73701W        W16692   3.976  23.829   9.285 -0.2755  0.2035 -0.1513
73702W        W16693  29.431   8.270   0.550  0.1967 -0.0511  0.0623
73703W        W16694  31.383   5.488   8.292  0.1346 -0.2971 -0.0440
73704W        W16695   3.498  18.408   4.428  0.1207 -0.1298 -0.1323
73705W        W16696   8.292  26.347   2.022 -0.0141  0.1203  0.0251
73706W        W16697   4.274  20.966   8.563  0.1515  0.0133  0.1316
73707W        W16698  34.375  24.100  26.875 -0.0799  0.1843  0.1800
73708W        W16699  34.578  15.503  15.136  0.4174  0.1563  0.1246
73709W        W16700   1.878  27.165   9.706 -0.2402  0.1704  0.1005
73710W        W16701   6.356   3.109   6.941  0.1012 -0.6318 -0.1924
73711W        W16702  11.037  14.226  28.502  0.0290  0.2914  0.1342
73712W        W16703   1.538  13.917   2.984  0.1974  0.0952  0.1302
73713W        W16704  31.405  26.449  17.575  0.2894 -0.0179  0.2462
73714W        W16705  30.146  28.994   1.654 -0.0317 -0.0732  0.0172
73715W        W16706   9.659  30.230   5.565 -0.3169  0.2577  0.2863
73716W        W16707   9.667  28.521  27.382  0.3059  0.2716  0.1560
73717W        W16708  12.759  28.383   4.290 -0.2230  0.0405  0.2876
73718W        W16709  13.033  10.942   4.722 -0.0977 -0.0569 -0.1070
73719W        W16710   8.338  27.983  28.443  0.3985  0.2139  0.4920
73720W        W16711  12.677   1.276   4.360  0.4285 -0.2452  0.1041
73721W        W16712  32.451   7.428  10.429  0.1725  0.1517 -0.0068
73722W        W16713  11.282  10.546   0.986  0.0233 -0.1715 -0.2825
73723W        W16714   1.774   9.779   8.197  0.1604 -0.0557  0.0390
73724W        W16715   4.855  23.752   0.201  0.1262 -0.6674 -0.1397
73725W        W16716  25.449  18.479   8.941 -0.0293  0.3917  0.0079
73726W        W16717  21.227  18.512  14.971  0.1762 -0.4285  0.0302
73727W        W16718  11.453  26.593   0.384  0.1026 -0.1940 -0.0167
73728W        W16719   0.775  13.606   9.810  0.0412  0.0590  0.0599
73729W        W16720   3.865  30.133   8.004 -0.1027 -0.1079  0.3573
73730W        W16721  16.392  10.176   6.458  0.1719  0.0322  0.1023
73731W        W16722   3.633  17.131   7.648 -0.0900  0.1128 -0.2298
73732W        W16723  12.747  26.395  25.017  0.3318  0.0927  0.0059
73733W        W16724   6.489  22.781   7.012  0.1407  0.0978  0.1217
73734W        W16725  11.806  14.930   6.708  0.0167 -0.1627  0.1065
73735W        W16726  10.170  20.203  27.916  0.1171 -0.0825 -0.1983
73736W        W16727  17.686  18.421  29.111  0.2672  0.1123  0.1119
73737W        W16728   3.728  20.015  26.236  0.1000  0.0138 -0.0184
73738W        W16729  11.218  20.021   2.539 -0.0029  0.2868 -0.0535
73739W        W16730   0.619  24.170   2.344  0.3014  0.0020  0.3124
73740W        W16731   4.951  18.278   7.089 -0.0684 -0.1919  0.3275
73741W        W16732  12.502  19.086  26.161 -0.0100  0.0736  0.0153
73742W        W16733  31.060  19.422   8.701  0.1012 -0.2789 -0.1757
73743W        W16734  13.747  25.235   5.488  0.0748 -0.3907 -0.0487
73744W        W16735  10.121  30.335   3.977  0.1791 -0.1328 -0.1352
73745W        W16736  15.652  15.183   6.506  0.1717 -0.0434  0.2443
73746W        W16737   0.451   6.377   1.689 -0.1610 -0.0242  0.0536
73747W        W16738   7.479  22.795  10.362 -0.2723 -0.0406 -0.0392
73748W        W16739  34.010  19.782   4.278  0.2646  0.0949 -0.0865
73749W        W16740  32.935  28.180   7.446 -0.0454  0.2273  0.0126
73750W        W16741   9.614  22.142  23.718 -0.0203 -0.2896 -0.0956
73751W        W16742  33.403  14.039   8.103  0.2021  0.1643 -0.0752
73752W        W16743  14.441  24.191  25.313  0.0111 -0.1234  0.1658
73753W        W16744  34.460  26.293   4.969 -0.2851  0.0853 -0.0123
73754W        W16745   8.590  21.262  29.046  0.0604  0.1336 -0.1345
73755W        W16746   5.741  30.517   7.043 -0.0055  0.0230  0.0020
73756W        W16747  14.918  17.029  24.824  0.1720  0.0729  0.2209
73757W        W16748  22.623  26.731   5.049 -0.0281  0.0241  0.0599
73758W        W16749  31.384  26.189   5.058 -0.1445 -0.1634  0.0087
73759W        W16750  33.976  17.519   4.144 -0.0142  0.0653 -0.2071
73760W        W16751   6.443  26.222   5.862  0.0688 -0.0973  0.4649
73761W        W16752   3.570  33.518  22.472  0.1790 -0.2746 -0.2907
73762W        W16753   3.323  19.385  16.557  0.1304 -0.0332 -0.1209
73763W        W16754  32.980  24.983  10.389 -0.1068 -0.2107 -0.0289
73764W        W16755  28.104   7.743   2.323  0.2474 -0.1679 -0.0639
73765W        W16756   5.484  23.931   3.478  0.2379  0.1208 -0.2157
73766W        W16757  11.439  26.354  23.157  0.0662 -0.0331  0.3492
73767W        W16758  11.544  31.316   5.272 -0.2873  0.0882 -0.2196
73768W        W16759   6.028  26.360   4.181 -0.0749  0.1921  0.0559
73769W        W16760  20.716  14.679   7.897  0.2421 -0.0234 -0.0089
73770W        W16761  18.656  21.271  27.158  0.1336  0.0995  0.3802
73771W        W16762  26.647   5.049  23.508  0.3017 -0.1596 -0.2159
73772W        W16763   6.554   5.883   9.140  0.0902 -0.0223  0.0903
73773W        W16764  14.377  27.835  24.340  0.2621 -0.2379 -0.0730
73774W        W16765  12.544  11.916  16.710  0.0219 -0.2615  0.1034
73775W        W16766   2.235  21.918  25.349 -0.2616  0.1905 -0.1258
73776W        W16767   4.301  30.065  18.374  0.1238  0.0372  0.0656
73777W        W16768  27.493  23.166  24.106  0.2716 -0.1961 -0.2150
73778W        W16769  17.594  25.876   8.098 -0.2577  0.2746 -0.0818
73779W        W16770  28.622  34.072   9.037  0.1186 -0.0473 -0.1237
73780W        W16771  30.814  21.258   9.525 -0.0532 -0.1546  0.2750
73781W        W16772  13.079  19.467   4.821 -0.1238 -0.1214 -0.3041
73782W        W16773  25.310  26.920  19.932 -0.5084 -0.2176 -0.2252
73783W        W16774  10.852  27.076   4.454  0.0602  0.0756 -0.0900
73784W        W16775   5.461  19.947   3.789 -0.1157  0.1459 -0.1242
73785W        W16776   5.903   5.351  25.590 -0.1018  0.2376  0.0775
73786W        W16777   3.269  27.036   3.383  0.1859  0.0356  0.1658
73787W        W16778   9.720  24.534   0.406 -0.4512  0.0938  0.3646
73788W        W16779   3.023   6.949   1.159 -0.0317 -0.3171  0.0244
73789W        W16780   5.490   3.892  24.101  0.1535 -0.0673 -0.0390
73790W        W16781   8.100  30.625   6.117 -0.1323 -0.4869  0.0372
73791W        W16782   6.055  26.197   6.687 -0.0361  0.4148 -0.1085
73792W        W16783  31.743  15.450  10.662  0.2288 -0.2238 -0.2518
73793W        W16784  12.702  14.788   2.112  0.0044  0.1807  0.1850
73794W        W16785  31.000   3.946   7.652  0.0769  0.1518 -0.0737
73795W        W16786   8.192  10.574  24.326 -0.0043 -0.1052  0.2648
73796W        W16787  13.642  16.449   7.532 -0.0097  0.3657 -0.4102
73797W        W16788  12.521  30.293   9.720 -0.1728 -0.1738  0.1015
73798W        W16789  11.743   1.009   6.746  0.1291  0.0645  0.2859
73799W        W16790  13.650  18.159  28.688  0.2404  0.0197  0.0870
73800W        W16791  22.565  16.170  28.833  0.0510  0.0621  0.1250
73801W        W16792  18.085  26.446   6.828 -0.2865 -0.1466  0.3502
73802W        W16793  27.310  27.353   5.382  0.0946 -0.0955  0.2263
73803W        W16794  17.645  10.948   6.996 -0.0410  0.1789  0.0876
73804W        W16795   7.704  30.456   5.464 -0.2060  0.0327  0.2001
73805W        W16796  34.249  28.139   8.498  0.1048 -0.1756  0.1861
73806W        W16797  10.449  24.741   9.946  0.0260 -0.1224  0.0170
73807W        W16798   5.810  30.548  26.793 -0.0730 -0.0157  0.3086
73808W        W16799   4.209  27.521   6.925 -0.2342  0.6098  0.0726
73809W        W16800  32.544  21.467   9.862  0.3413 -0.1758 -0.2956
73810W        W16801   9.058  18.343  28.758  0.0156 -0.3245  0.1097
73811W        W16802  20.103  32.084  20.127  0.0063 -0.1356 -0.0812
73812W        W16803  28.725  17.138  28.697  0.1460  0.1956 -0.0941
73813W        W16804   6.942   8.256   4.944  0.0597  0.4131  0.2309
73814W        W16805  17.003  22.520   5.405 -0.2621 -0.0439 -0.1498
73815W        W16806  20.698  20.802  28.801 -0.0280 -0.0054 -0.0650
73816W        W16807   8.757  16.063   6.728 -0.1497  0.0151 -0.3016
73817W        W16808   7.604  19.193   4.632  0.2486 -0.1545  0.0377
73818W        W16809  31.757  23.589   9.432  0.0506  0.0531 -0.2309
73819W        W16810   7.744  14.946   0.834 -0.0212  0.1479  0.0515
73820W        W16811  24.593  19.995   7.026  0.0774 -0.1804  0.1927
73821W        W16812  10.692  23.721  21.001 -0.0293  0.3190 -0.4591
73822W        W16813  27.297  15.155   4.895 -0.0193 -0.3825  0.5951
73823W        W16814  13.495  29.317  20.925 -0.1860 -0.0505 -0.1913
73824W        W16815   8.036  30.128   8.797  0.2334  0.0892  0.2490
73825W        W16816  30.603  28.633   4.141 -0.0853 -0.2802  0.0408
73826W        W16817  12.540  31.541   1.882  0.1099  0.2352  0.1216
73827W        W16818   3.017  25.671   9.419  0.0518  0.0970 -0.0794
73828W        W16819   9.573  12.806   5.109  0.2146 -0.3562  0.1769
73829W        W16820  31.246   2.531   1.900 -0.0855  0.0307  0.2027
73830W        W16821  10.528  12.713   0.691  0.2057  0.2762 -0.2367
73831W        W16822  23.414  27.661   4.185  0.1351 -0.1302 -0.1638
73832W        W16823   3.547  21.446   8.946  0.1594 -0.0338  0.0423
73833W        W16824  16.986  14.774   8.412 -0.2140 -0.0027 -0.1152
73834W        W16825   6.850  12.430  28.214 -0.3151 -0.1865 -0.0350
73835W        W16826   7.743  25.871  19.080 -0.0821  0.0315 -0.0547
73836W        W16827  29.383  26.389  25.274 -0.2849  0.0010 -0.1286
73837W        W16828   2.400  15.166   0.451  0.3500 -0.3344 -0.2099
73838W        W16829   8.157  16.829   5.790  0.0524 -0.1411  0.1382
73839W        W16830  26.345  29.063  23.005  0.3286  0.1520  0.0833
73840W        W16831  33.290  25.388   0.482  0.2277  0.3209  0.3008
73841W        W16832  32.299  15.664   4.005  0.1159 -0.2593 -0.2133
73842W        W16833  25.273  31.935   3.594 -0.2190  0.2555  0.2353
73843W        W16834  32.429  20.754   2.260 -0.1751 -0.3459  0.3101
73844W        W16835  14.754  20.051   2.119 -0.0591  0.0661  0.0377
73845W        W16836  31.594  30.643   1.815 -0.2771 -0.1107  0.0712
73846W        W16837   2.259  24.423  10.373 -0.0429  0.2645 -0.3764
73847W        W16838   9.951  15.106  26.183 -0.1267  0.0211 -0.0492
73848W        W16839  27.568  10.572   9.657 -0.0448  0.2048 -0.1365
73849W        W16840  32.154  30.790   0.425  0.1563 -0.2677  0.0682
73850W        W16841  30.204  21.262   5.897  0.3002 -0.1446 -0.0077
73851W        W16842   5.148  21.319  24.943  0.2067  0.2667 -0.1813
73852W        W16843   5.031  19.232  10.014 -0.2965 -0.0225  0.0768
73853W        W16844  21.632   2.224   6.193  0.0281  0.0288 -0.3380
73854W        W16845  10.821  20.207  27.944 -0.4186 -0.0543 -0.0210
73855W        W16846  12.569   8.477  11.450  0.0287  0.0473 -0.0518
73856W        W16847   6.457  14.860   9.622 -0.1484  0.1599  0.1825
73857W        W16848   1.847  25.695   5.694  0.0106  0.1555  0.0969
73858W        W16849   3.534  29.736   7.897 -0.1292 -0.1548  0.0488
73859W        W16850  12.185  31.884  28.558  0.0983 -0.3400  0.2433
73860W        W16851   6.708   7.615  21.002 -0.1365 -0.2521  0.1210
73861W        W16852  14.615  30.307   3.323  0.0202  0.1226 -0.1991
73862W        W16853  31.785  27.748   8.450 -0.0352 -0.2562 -0.0503
73863W        W16854   5.980  15.794   9.470  0.1385  0.1991  0.0984
73864W        W16855  27.753  22.505   0.278 -0.0823  0.1616  0.0215
73865W        W16856   0.161   0.563   1.987 -0.4482 -0.4650  0.2060
73866W        W16857   8.366  13.326  16.920  0.0795  0.1938  0.2214
73867W        W16858  25.713  27.407   0.961  0.1504 -0.1650 -0.1989
73868W        W16859   6.819   1.759   2.096 -0.0063  0.0783  0.2804
73869W        W16860  27.356   4.688   9.541 -0.0159 -0.0919 -0.2652
73870W        W16861   7.830   1.298   6.324 -0.1884 -0.4991 -0.0828
73871W        W16862  25.337   2.577   5.132  0.2552  0.1679 -0.0929
73872W        W16863  34.781  31.407  15.535 -0.2719 -0.3610  0.1275
73873W        W16864  26.488   5.041   4.696  0.2760  0.0847  0.1688
73874W        W16865   1.207  34.698   5.963  0.3095 -0.0475  0.1310
73875W        W16866   1.475  16.451  15.611  0.1198 -0.0143  0.1783
73876W        W16867  34.572  27.439   9.191  0.0484  0.0163  0.2414
73877W        W16868  31.078  25.729   4.954 -0.0431 -0.1513  0.1396
73878W        W16869   9.851   1.725  21.524  0.2758  0.0602 -0.0236
73879W        W16870   5.619  30.177   7.886  0.1441  0.1262 -0.2026
73880W        W16871   2.509  33.541  26.145  0.0022  0.1799 -0.1314
73881W        W16872  32.498   1.729  26.861 -0.2170 -0.1201 -0.0453
73882W        W16873   6.222  28.083   7.813 -0.0847  0.1526 -0.0211
73883W        W16874  33.318  33.970   0.123  0.0360 -0.0900 -0.0274
73884W        W16875  32.652  23.686  27.412 -0.0371 -0.3656  0.1499
73885W        W16876  34.517  12.213  25.471 -0.1611 -0.2482 -0.0455
73886W        W16877   2.872  14.209  21.000  0.0501  0.0546  0.2445
73887W        W16878   1.337  33.678   3.581 -0.0364  0.4730  0.0940
73888W        W16879  33.749  28.321  19.506  0.2445  0.2906  0.2647
73889W        W16880  15.758  26.050  26.093 -0.1773  0.2177 -0.1755
73890W        W16881   8.876  24.316  24.538 -0.2267  0.1880 -0.0087
73891W        W16882   1.981  27.136  17.968  0.1927 -0.1717  0.1434
73892W        W16883  28.385  24.762   4.440  0.2084  0.2211 -0.1262
73893W        W16884   5.183  15.329   3.420  0.1674 -0.2610  0.1015
73894W        W16885   4.827  17.037  29.096  0.0423 -0.1122  0.1027
73895W        W16886   2.304   4.507   7.189 -0.0286  0.0996 -0.1852
73896W        W16887   8.755  24.700  27.557 -0.1550 -0.1439 -0.0396
73897W        W16888   5.816  22.963   7.834  0.0190 -0.0051 -0.0522
73898W        W16889   7.591  25.886   0.927 -0.0139  0.0701 -0.5151
73899W        W16890  26.668  17.648  14.930 -0.5140  0.0366  0.1562
73900W        W16891   5.869  32.516   4.247 -0.4540 -0.2553  0.0509
73901W        W16892  28.666   1.547  29.072 -0.0996 -0.0525 -0.0636
73902W        W16893   8.139  14.678   1.679  0.0875 -0.1332  0.1155
73903W        W16894  17.994  17.217  28.728  0.0652 -0.0358  0.1078
73904W        W16895  23.133  33.410  21.923  0.1730 -0.1446  0.0691
73905W        W16896  32.898  21.893   0.970  0.3782  0.3696 -0.0544
73906W        W16897  29.726   1.781   7.950 -0.0416  0.1405 -0.2767
73907W        W16898  13.605  24.259   2.853  0.3755  0.0632  0.1071
73908W        W16899  18.081   2.553   3.764  0.2023 -0.4081 -0.1103
73909W        W16900   7.723   9.245   1.281 -0.0301  0.1997  0.1620
73910W        W16901   4.007  21.379   6.892 -0.2311 -0.0172  0.1831
73911W        W16902   8.501  17.395  23.452  0.1265  0.0722  0.2971
73912W        W16903  32.028  29.349  29.092 -0.2136 -0.3028 -0.1774
73913W        W16904  12.906  31.121   4.699 -0.1252  0.0123  0.1143
73914W        W16905   2.103  23.031   1.954  0.1865  0.2173  0.4806
73915W        W16906  10.428  30.767  21.975 -0.0161  0.2484 -0.0919
73916W        W16907  19.157  13.538  14.990 -0.0172 -0.2333  0.1307
73917W        W16908   1.683  32.040   3.199 -0.2032 -0.1202 -0.3028
73918W        W16909  13.291   0.310   4.866 -0.0138  0.0110 -0.1886
73919W        W16910   4.156   2.931  18.854 -0.2039 -0.5165  0.2198
73920W        W16911  32.771  17.150  25.725 -0.1525  0.1541 -0.2137
73921W        W16912  33.516   0.139  25.602 -0.3936  0.2531 -0.0305
73922W        W16913  10.251   0.085  27.146  0.2667 -0.0563  0.2201
73923W        W16914  29.262   8.678   5.311 -0.0598 -0.1828  0.0207
73924W        W16915  27.092  15.883   6.416 -0.0565  0.2579 -0.0577
73925W        W16916  14.027  18.569  18.462 -0.1556  0.0794 -0.3587
73926W        W16917  34.288  15.386  23.989  0.2624  0.2288  0.0944
73927W        W16918  33.654  22.099  15.453  0.2371  0.2225  0.0181
73928W        W16919   2.529  20.060  27.380 -0.0662 -0.0976  0.1913
73929W        W16920   4.574  23.924   9.386 -0.2984  0.1654 -0.1955
73930W        W16921  32.614   0.939   4.391  0.1697  0.0521 -0.2402
73931W        W16922  20.980   1.183   2.867  0.1519  0.2051 -0.0763
73932W        W16923  18.003   0.360   4.513 -0.2360  0.0567  0.1626
73933W        W16924  33.909  30.474  15.682 -0.2536  0.0097 -0.0294
73934W        W16925  32.401  28.128   1.325  0.0036 -0.0781 -0.0313
73935W        W16926  14.740  17.565   3.769  0.0179  0.1785 -0.1054
73936W        W16927   2.477  24.824   7.472  0.1495  0.1540 -0.0375
73937W        W16928  32.816   7.334  28.557 -0.2235  0.1119  0.1819
73938W        W16929  30.064  32.774   1.780 -0.5153  0.0167 -0.2373
73939W        W16930  28.818  22.664  25.595 -0.0672  0.2998 -0.0329
73940W        W16931   7.024  21.598   3.743  0.3953 -0.4100 -0.0112
73941W        W16932  30.421   8.611  19.750 -0.3076 -0.0273  0.1234
73942W        W16933  13.219  30.832  26.627  0.1504  0.1673  0.2889
73943W        W16934   5.344  25.477  18.682  0.2885  0.1334  0.2308
73944W        W16935   4.578  25.887  24.237  0.1602  0.2646  0.0013
73945W        W16936   9.944  27.843   6.971  0.0498  0.1822  0.0481
73946W        W16937  34.376  30.869   0.795  0.0290  0.1140 -0.0421
73947W        W16938  27.802  24.384  19.225 -0.0623  0.0641 -0.0351
73948W        W16939   3.535  28.161   8.250 -0.0638  0.0723  0.0117
73949W        W16940   6.031   2.984   4.697 -0.1044 -0.2187  0.1166
73950W        W16941  14.768  20.823  27.048  0.4120 -0.1796  0.0081
73951W        W16942   0.519  27.812  19.393  0.4460  0.0554  0.2913
73952W        W16943  18.136  15.862   1.001 -0.1925  0.2325 -0.1786
73953W        W16944   2.111  22.847   6.242  0.2573 -0.0610  0.1780
73954W        W16945  27.212  15.917  28.304  0.1592  0.1576 -0.0056
73955W        W16946  18.781  20.827   4.137 -0.0377 -0.0230 -0.3705
73956W        W16947   2.421   3.154   5.335 -0.0092  0.1598 -0.2347
73957W        W16948  14.863  19.854   4.214  0.2173  0.0528 -0.3646
73958W        W16949   0.173   3.427   9.408 -0.1213 -0.2526 -0.6294
73959W        W16950  32.060  27.603   5.273 -0.1814 -0.0281 -0.1754
73960W        W16951   8.843  33.721  27.957  0.0048  0.2179  0.0952
73961W        W16952  25.408   2.292   5.572 -0.1437 -0.0758  0.1045
73962W        W16953   7.320  25.966   5.592 -0.1879  0.3207  0.1095
73963W        W16954   9.543  21.665  26.569 -0.0773  0.2369 -0.3198
73964W        W16955   8.301  31.636   2.338  0.3030  0.0460  0.1503
73965W        W16956  13.080  30.719  26.130  0.1382 -0.2904  0.0881
73966W        W16957  11.434  21.347   5.418  0.2522 -0.1356  0.0125
73967W        W16958   6.613  12.142   1.516  0.3874  0.1253 -0.1706
73968W        W16959   8.829  25.299   9.173  0.0685  0.3509  0.1909
73969W        W16960  34.177   4.714  21.835 -0.0464  0.2462  0.1762
73970W        W16961  27.811   8.790   8.806  0.0772  0.2734  0.2519
73971W        W16962   1.432  29.715   3.257  0.1932 -0.2455 -0.0071
73972W        W16963  21.558  32.993   9.358 -0.0186 -0.0365  0.3762
73973W        W16964  32.976   0.925   0.831  0.0688  0.0604 -0.0157
73974W        W16965  18.559  19.889  11.911  0.0474  0.0572  0.5512
73975W        W16966  14.215   4.543   6.769  0.0700  0.1624  0.2001
73976W        W16967  33.671  25.369  17.359 -0.3868  0.0481  0.0303
73977W        W16968  30.754  28.145   4.027 -0.0077  0.1447  0.0563
73978W        W16969  20.455  15.805   1.686 -0.2485 -0.0310  0.2743
73979W        W16970   4.113  22.595  26.191 -0.3587 -0.1621 -0.1003
73980W        W16971  32.191  26.104  16.500  0.1374 -0.1784  0.0899
73981W        W16972  18.611  32.446   0.480 -0.2066 -0.1158  0.0052
73982W        W16973   5.715   2.386  23.923 -0.1295 -0.1676 -0.2230
73983W        W16974   9.078  26.525  24.055 -0.1168 -0.1985  0.1456
73984W        W16975  30.203  20.784   7.375 -0.0854  0.0352  0.0265
73985W        W16976   9.456   3.205   8.272  0.0740  0.1628 -0.0462
73986W        W16977  31.010  23.488   7.012  0.0661  0.1207 -0.2879
73987W        W16978   5.214  23.344  10.249 -0.0536 -0.0492  0.1318
73988W        W16979  33.586  12.828   0.391 -0.1223  0.2588  0.3201
73989W        W16980  33.411  22.791   6.335 -0.0331  0.0142  0.2648
73990W        W16981  11.093  20.198  23.726  0.2241  0.2777 -0.1029
73991W        W16982   5.777  13.631  28.603  0.0716  0.1404 -0.0732
73992W        W16983   7.670  22.979   1.680 -0.1659  0.3015 -0.1106
73993W        W16984  10.204  17.773  27.389  0.0477 -0.2284 -0.2128
73994W        W16985   8.870  13.178  15.007 -0.0093 -0.0655 -0.1521
73995W        W16986  34.352  26.498  20.257  0.1105  0.0482  0.0962
73996W        W16987   9.741  24.688  22.871  0.1488  0.0410  0.0249
73997W        W16988   0.098  34.037   5.674 -0.1009 -0.2182 -0.1919
73998W        W16989  34.128  34.716   6.112  0.0480  0.1233  0.0270
73999W        W16990   6.317  21.484  23.990 -0.1296  0.0587 -0.1127
74000W        W16991  21.957  28.382   8.961 -0.0151  0.0134  0.1117
74001W        W16992  31.610  24.516  25.398  0.1352  0.1587  0.1551
74002W        W16993  12.379   9.238   1.756  0.1127 -0.0719 -0.1864
74003W        W16994  14.747  24.228  25.677  0.0072 -0.0893  0.4769
74004W        W16995  13.548  20.567  29.067  0.1178 -0.2336  0.1041
74005W        W16996   6.490  15.942   2.427 -0.3096 -0.0832  0.2403
74006W        W16997   4.661  27.522   7.106 -0.0226  0.0281  0.2358
74007W        W16998  30.426  32.818  15.286  0.1334 -0.2059 -0.1037
74008W        W16999  10.647   9.269   2.850 -0.0451  0.1351 -0.0605
74009W        W17000   6.212  22.648  26.761 -0.0938 -0.0236 -0.1665
74010W        W17001  17.279  28.435  25.888 -0.2211 -0.3446 -0.0924
74011W        W17002  32.921  21.168   4.033 -0.0583 -0.2792 -0.0327
74012W        W17003   6.860  21.295  20.334  0.2045 -0.1380  0.2753
74013W        W17004  23.886  10.476  21.201  0.0734  0.1324 -0.0622
74014W        W17005   9.371  23.363   7.420 -0.0444  0.1671  0.3171
74015W        W17006  23.379  32.439   3.403  0.1206 -0.1104 -0.0675
74016W        W17007  21.572  24.113   8.772  0.2083 -0.2472  0.0637
74017W        W17008  31.410  33.670   4.989  0.1968 -0.1878  0.1575
74018W        W17009   8.110  28.881   5.456 -0.1462  0.1150 -0.4050
74019W        W17010  28.976   6.877   2.946 -0.0301  0.0523 -0.1535
74020W        W17011  28.161   2.890  22.244 -0.2230 -0.2133  0.0030
74021W        W17012   7.858  34.526  29.108  0.0039  0.0746 -0.1457
74022W        W17013   1.581  32.891   8.064 -0.0468  0.1878 -0.0705
74023W        W17014   9.980  31.744   5.449 -0.0969  0.2189  0.1746
74024W        W17015   4.273  32.994  26.250 -0.3672 -0.0262 -0.1354
74025W        W17016  29.281  13.340   6.782  0.4638 -0.0610  0.1525
74026W        W17017  33.356  16.807   9.293  0.0642  0.3694 -0.2461
74027W        W17018   6.340  19.310  24.062 -0.2250  0.1676  0.3003
74028W        W17019   6.250   5.385  20.814 -0.0224 -0.0491  0.1645
74029W        W17020  23.755  32.869  19.438 -0.3802  0.0487 -0.0542
74030W        W17021   0.063  29.261  14.548 -0.0683  0.1947 -0.3163
74031W        W17022  28.557  21.441   2.367  0.2797 -0.0698 -0.0755
74032W        W17023  22.740  21.918  25.329 -0.1255  0.0756 -0.0960
74033W        W17024   6.166  30.447  22.959  0.2820 -0.0886 -0.1204
74034W        W17025   5.044  26.486   3.276 -0.1344 -0.2426 -0.0798
74035W        W17026   8.090  21.351   2.255 -0.2754 -0.2935  0.3670
74036W        W17027  21.310  29.594   4.246  0.0197  0.1047 -0.1505
74037W        W17028  10.808  11.932  17.624 -0.1694  0.0238  0.1474
74038W        W17029  14.311  29.661   5.906  0.0799 -0.0103 -0.0538
74039W        W17030   3.269   2.057   4.741  0.0641 -0.0305 -0.1464
74040W        W17031  19.162   2.213  16.607  0.0133 -0.0526 -0.0338
74041W        W17032   6.397  16.327   8.362 -0.0223 -0.0170 -0.0091
74042W        W17033  10.244  11.633   5.389 -0.2119  0.1093 -0.1023
74043W        W17034  11.866   0.872  24.403  0.3227 -0.1608 -0.2268
74044W        W17035  30.361  23.311   8.174  0.4696  0.0419 -0.4016
74045W        W17036   0.770  24.205   0.953  0.2945 -0.0069 -0.0292
74046W        W17037  13.935   4.876   2.961  0.3098  0.0487 -0.1904
74047W        W17038   2.011  21.821  15.229 -0.0382 -0.1268 -0.2429
74048W        W17039  11.999  34.261   6.800 -0.0882 -0.1285 -0.1582
74049W        W17040  29.043  11.695   4.916 -0.2119  0.0701 -0.1699
74050W        W17041  29.089  15.293   2.516 -0.0308  0.0392  0.3495
74051W        W17042   9.570  27.729  15.876  0.1314 -0.0239 -0.0117
74052W        W17043   3.652  23.919   2.658 -0.2873  0.1656 -0.1684
74053W        W17044  15.807  26.258  21.425 -0.2585 -0.3652  0.0500
74054W        W17045   4.123  12.315   0.086  0.4512  0.0935  0.3020
74055W        W17046   8.725  21.701   6.961  0.0075 -0.1218  0.1753
74056W        W17047   5.174   1.617   1.190  0.1574 -0.1276 -0.1835
74057W        W17048   0.730  24.640  28.041  0.0438  0.0830 -0.1919
74058W        W17049  21.933  28.531   2.625  0.0363 -0.2254  0.0391
74059W        W17050  10.661  33.378   0.620  0.3362  0.0746 -0.0489
74060W        W17051  22.209  27.429  27.634 -0.1128 -0.0848  0.2197
74061W        W17052   9.948  31.989   0.827  0.0459  0.0227  0.2412
74062W        W17053  31.663  23.909   6.757 -0.0223 -0.1179  0.3654
74063W        W17054  25.092  29.113   3.914  0.1251 -0.1779 -0.2693
74064W        W17055  11.937  22.347   4.924 -0.0147 -0.0736 -0.0643
74065W        W17056   9.716  30.766   9.956  0.1971 -0.0673 -0.1502
74066W        W17057  23.080   2.185   2.696  0.2064 -0.0429 -0.2009
74067W        W17058  12.638  30.652   4.725  0.2065  0.0882 -0.0643
74068W        W17059   6.243  29.008   0.602 -0.1429 -0.0020  0.1910
74069W        W17060   3.600  19.857   5.910 -0.2269  0.1298 -0.0131
74070W        W17061  12.019   1.140  25.802 -0.0882  0.2835  0.0209
74071W        W17062  18.650  10.207   3.091  0.3332 -0.4319  0.0073
74072W        W17063   6.368  21.038   3.515  0.0627  0.1845 -0.2772
74073W        W17064  30.091   6.724  20.481  0.0004  0.0465  0.1138
74074W        W17065  17.576  24.349  24.748  0.3377 -0.3190  0.1199
74075W        W17066   1.864  16.773  22.590  0.0966 -0.0623 -0.0241
74076W        W17067   2.690  18.632  26.859  0.0684  0.0609  0.1033
74077W        W17068   3.497   1.977   6.116 -0.3547  0.1966 -0.0431
74078W        W17069  18.739  23.619   0.859  0.0992 -0.3249 -0.1618
74079W        W17070   9.546  19.824   2.175 -0.0160  0.2167  0.1469
74080W        W17071   7.620  27.750  23.134  0.0588 -0.3044 -0.1890
74081W        W17072  32.389  11.619  10.139  0.2889 -0.0291  0.1064
74082W        W17073   2.487   7.830   3.280 -0.2035  0.0443 -0.2088
74083W        W17074  31.245  22.893   3.960  0.2930 -0.1008  0.1147
74084W        W17075   0.443  28.931   8.636 -0.1564 -0.0179  0.1565
74085W        W17076  33.325  26.760  24.548  0.0251 -0.1175  0.3580
74086W        W17077   8.413   6.112   5.620 -0.0262 -0.2325  0.2552
74087W        W17078  28.348   9.739  21.378  0.0275  0.0602 -0.0725
74088W        W17079   7.631  33.773   3.625 -0.2360 -0.0749 -0.0154
74089W        W17080   0.267  11.401   2.680 -0.1181 -0.0056  0.1365
74090W        W17081  31.213   1.080   2.313  0.2992 -0.0789 -0.1192
74091W        W17082  15.506  18.729   7.248  0.0709 -0.0613 -0.3246
74092W        W17083   4.589  34.307  24.547 -0.1688  0.2684  0.0109
74093W        W17084  14.602  34.543  26.606 -0.2517 -0.0699  0.0915
74094W        W17085  29.850  21.439  13.868 -0.0224  0.2246  0.0604
74095W        W17086   5.426  19.667  26.574  0.2182  0.0816 -0.1262
74096W        W17087  10.836  30.250   3.917 -0.1466 -0.0801 -0.1956
74097W        W17088  28.232  23.632   4.837  0.0723 -0.1138  0.2716
74098W        W17089   2.386  17.329   8.337  0.2735 -0.0529  0.0044
74099W        W17090   1.654  12.756  10.440  0.1645  0.0396 -0.1669
74100W        W17091  25.958  24.438   5.238  0.1328 -0.0596 -0.1702
74101W        W17092   9.689  18.618   9.939 -0.0776  0.2515  0.5040
74102W        W17093   3.867  23.657   7.533 -0.2270 -0.2620  0.1821
74103W        W17094   8.150  19.534  18.852 -0.0761  0.1679  0.0132
74104W        W17095  18.207  31.204   4.296  0.1722 -0.2662 -0.1298
74105W        W17096  33.701   9.075  25.583 -0.3981 -0.3994  0.3279
74106W        W17097  34.059  33.534  20.595  0.2318  0.2544 -0.2412
74107W        W17098  11.146  32.607   8.675  0.0679 -0.0595  0.1201
74108W        W17099   7.913   3.247  17.644  0.1361  0.1420  0.0703
74109W        W17100  33.498   0.665  25.696 -0.0439 -0.0924  0.0301
74110W        W17101  14.412  15.196   7.183  0.1153  0.1082 -0.1720
74111W        W17102   8.528  25.761  14.955 -0.0652 -0.2068  0.0361
74112W        W17103   2.320  21.668  10.629  0.0885 -0.0763 -0.3354
74113W        W17104   8.858  29.549  10.961 -0.3406 -0.2912 -0.2430
74114W        W17105  32.921  20.463  10.220  0.0186 -0.2199  0.2122
74115W        W17106  12.935  19.213  22.685  0.1071  0.2334  0.3319
74116W        W17107   4.458   3.463   8.987 -0.1470 -0.3463  0.0560
74117W        W17108   1.044  23.287  26.564  0.2801  0.0081  0.2066
74118W        W17109  12.476  13.303  28.866 -0.0991 -0.0095  0.0043
74119W        W17110  23.112  20.672  21.029 -0.3602 -0.0711 -0.2009
74120W        W17111  12.625  16.565  28.644 -0.3209 -0.1458  0.0589
74121W        W17112  34.743   5.577   7.146 -0.2448 -0.2627  0.1156
74122W        W17113   0.085  26.088   3.878  0.2774 -0.0239 -0.0747
74123W        W17114  23.738  27.254   3.060  0.1357  0.1626  0.1412
74124W        W17115  33.093  29.827   9.411  0.5049 -0.1914 -0.1237
74125W        W17116  10.673  16.739   1.481 -0.1778 -0.1315  0.0849
74126W        W17117  26.090  24.220   7.085 -0.2267  0.0694 -0.2417
74127W        W17118   0.169  19.112  27.160 -0.1351 -0.0134  0.0042
74128W        W17119   5.505  24.531  19.447 -0.1359 -0.1309  0.0736
74129W        W17120   7.373  28.592  24.174 -0.0991 -0.3267  0.0380
74130W        W17121  31.230  25.134   1.993  0.2840  0.0133 -0.2168
74131W        W17122   6.078  31.047  10.170 -0.0498 -0.3084 -0.2691
74132W        W17123  31.829  24.958   7.693 -0.2674 -0.1557  0.2004
74133W        W17124   5.829  26.129  10.148 -0.2704  0.0276 -0.0111
74134W        W17125   4.922  18.716  19.176 -0.3154 -0.2525 -0.2239
74135W        W17126  34.739  20.486   1.594  0.0709 -0.0547  0.1921
74136W        W17127   3.452  30.388   7.070 -0.0750 -0.0676  0.0893
74137W        W17128  25.969  23.808   8.431 -0.1102  0.2697 -0.0824
74138W        W17129   5.791  24.959  28.237 -0.0342  0.1746  0.1257
74139W        W17130  10.708  18.071  27.678 -0.1796  0.0635 -0.0952
74140W        W17131   3.662  17.714  22.674 -0.3013 -0.4179  0.2914
74141W        W17132  33.915  32.751  26.026 -0.2218 -0.0884 -0.0163
74142W        W17133  14.299  31.313  18.084  0.0640 -0.1344 -0.1457
74143W        W17134   1.253  27.362  22.597  0.0180 -0.0934 -0.4255
74144W        W17135  31.107   5.038   3.519 -0.4942 -0.0601 -0.3583
74145W        W17136  12.019   9.523   2.606  0.2529  0.1203  0.1407
74146W        W17137   0.070  22.321   9.366 -0.0785 -0.0509  0.2627
74147W        W17138   5.778   6.785   2.450  0.0156 -0.1891  0.2004
74148W        W17139  10.563  21.475  10.605  0.3546 -0.0305 -0.1210
74149W        W17140  31.835   4.312  20.022 -0.2707 -0.3526  0.2276
74150W        W17141  12.490  16.347  14.607  0.0480 -0.2231 -0.1162
74151W        W17142   3.802   1.093   7.796 -0.1353 -0.0378  0.3137
74152W        W17143  15.461  25.049  27.129 -0.5669  0.1868  0.3780
74153W        W17144  28.480  20.773   1.547  0.1379  0.2781 -0.1433
74154W        W17145  32.557  30.827   7.739 -0.0368 -0.0124 -0.0292
74155W        W17146  24.355  16.787  25.418 -0.1542  0.1525 -0.0008
74156W        W17147   9.389   0.236   6.987  0.0907 -0.2598 -0.0633
74157W        W17148  13.464  28.598  27.923 -0.2974  0.0670 -0.2643
74158W        W17149  12.214   5.518  28.592 -0.1272  0.0931  0.2547
74159W        W17150  24.095  30.516   3.262  0.0393 -0.1757 -0.0723
74160W        W17151   4.836  21.312   8.606 -0.1505 -0.3720 -0.1595
74161W        W17152  15.239  31.361   0.157 -0.3542 -0.4784  0.0520
74162W        W17153   7.163   2.029  28.301  0.3013 -0.0100 -0.1068
74163W        W17154   2.692  33.348  28.388 -0.1097 -0.2414  0.1132
74164W        W17155   6.991   7.776   0.666 -0.1876  0.1228  0.2875
74165W        W17156  13.608  10.347   4.273 -0.2990 -0.0884  0.2081
74166W        W17157  15.991  12.091   2.276  0.0218  0.1746 -0.0516
74167W        W17158  12.015  19.910  25.439 -0.1747  0.0616  0.4215
74168W        W17159  23.779   4.371  26.535  0.1535 -0.3626  0.0078
74169W        W17160  34.629  25.672  26.948 -0.0425 -0.1270 -0.1869
74170W        W17161   1.733   2.570   8.109 -0.3083 -0.4447  0.1955
74171W        W17162   6.297  28.380   6.750  0.2458  0.0751 -0.2482
74172W        W17163  33.802  26.481  19.714  0.1104  0.0489 -0.1738
74173W        W17164  32.765  20.074   7.677 -0.3116 -0.0047  0.1348
74174W        W17165   5.810   6.949  20.319  0.3453 -0.1827  0.2627
74175W        W17166  27.898   3.457   4.866  0.0880  0.0244 -0.0994
74176W        W17167   6.162  17.409  10.775  0.0491  0.0291  0.0896
74177W        W17168  33.465  13.159   8.096  0.0871 -0.1269 -0.2244
74178W        W17169  27.818  15.469   0.476  0.1151 -0.0151 -0.3294
74179W        W17170   9.047  31.187   9.355 -0.2458 -0.1161 -0.0111
74180W        W17171   1.831  25.478  25.712 -0.0469  0.1137  0.4303
74181W        W17172   2.560  22.760   4.411  0.0265  0.0427  0.0252
74182W        W17173   0.372  34.532   0.832  0.1452 -0.2053 -0.0639
74183W        W17174  28.128  17.645  28.387 -0.1298  0.1948  0.3797
74184W        W17175  15.873  17.600   7.930 -0.1295  0.1057 -0.0701
74185W        W17176   9.566  14.414   6.179 -0.0683  0.2196 -0.1734
74186W        W17177  18.786  25.991  28.048 -0.0296 -0.1367 -0.1766
74187W        W17178   0.457  27.213  15.123 -0.0242  0.1438 -0.0761
74188W        W17179  16.814  32.222  25.543  0.2902  0.2901 -0.5416
74189W        W17180  33.934  12.274   9.649  0.0882  0.2704  0.1299
74190W        W17181   2.950   8.964  22.401 -0.3362  0.0023  0.0825
74191W        W17182  26.125  23.082   8.141 -0.3840 -0.2410 -0.2983
74192W        W17183   3.924  13.071   7.864 -0.0811 -0.1736 -0.0184
74193W        W17184  25.857  31.578  16.813 -0.0887  0.0526  0.1355
74194W        W17185  12.096  17.742   0.415 -0.0845  0.0402 -0.1964
74195W        W17186  18.184  20.172  19.517 -0.1611  0.1464  0.0482
74196W        W17187   9.973  32.634  22.932  0.0974 -0.0880  0.1338
74197W        W17188  12.092  32.750   9.854  0.0173 -0.0485 -0.1216
74198W        W17189  19.001  29.590  10.157  0.2949 -0.3482  0.2341
74199W        W17190  33.799  33.266  25.836 -0.0935  0.2276 -0.3931
74200W        W17191  34.593  26.907  18.230  0.1256  0.2954  0.0454
74201W        W17192   0.062  23.298   9.353 -0.0614 -0.1844  0.0344
74202W        W17193  10.140  29.633   4.094  0.0570 -0.4012 -0.0238
74203W        W17194  30.523  16.816  17.338  0.2620  0.1685  0.0527
74204W        W17195   0.908   9.961   8.164 -0.0673  0.0351  0.1843
74205W        W17196  31.380  30.299  24.525 -0.2108 -0.1518 -0.1331
74206W        W17197  25.763   3.218  26.767 -0.0785  0.0915  0.1427
74207W        W17198  34.682  23.563  20.903  0.1254 -0.1856 -0.0882
74208W        W17199   6.971  33.267   2.486 -0.0486  0.3946 -0.2323
74209W        W17200  15.777  20.128  23.095 -0.1816 -0.0031  0.2900
74210W        W17201   7.717  28.254  24.057 -0.2250 -0.3064  0.0127
74211W        W17202  32.085  19.207   6.978 -0.0034  0.0311  0.2159
74212W        W17203   8.168  30.215   7.474 -0.1929 -0.1267  0.0618
74213W        W17204  20.521  32.637   4.551  0.1328  0.0469  0.0670
74214W        W17205  21.935  25.882   0.410 -0.2145  0.1304  0.2053
74215W        W17206  29.400  24.852  18.880 -0.0729 -0.1379  0.1783
74216W        W17207  10.863  25.961   6.669  0.1117  0.2336  0.0668
74217W        W17208  17.169  27.784   0.846  0.2871  0.0920  0.0467
74218W        W17209  23.980  14.251   8.150 -0.1002 -0.1164  0.2376
74219W        W17210  33.901  34.492   7.988  0.2449  0.1106 -0.0855
74220W        W17211   7.036  24.242  24.849 -0.4039 -0.1522 -0.1807
74221W        W17212  17.686  27.006  25.146 -0.2050 -0.1023  0.1832
74222W        W17213   7.713  25.668  10.288 -0.0750  0.2695  0.0447
74223W        W17214  25.304  24.510   4.670 -0.0368  0.1723  0.0777
74224W        W17215  33.493  25.274  28.633 -0.1389 -0.1608  0.0750
74225W        W17216   7.982  20.267   7.702 -0.0050  0.0701  0.2204
74226W        W17217   2.095  31.982   4.360 -0.0408 -0.1203  0.0943
74227W        W17218   9.209  16.805  24.804  0.3223 -0.1333  0.0045
74228W        W17219  22.048  15.378  17.712  0.2666 -0.2133  0.1384
74229W        W17220  15.733  33.383  28.715 -0.1746  0.1177 -0.4667
74230W        W17221  15.716  14.151  26.919  0.1363 -0.0579 -0.1538
74231W        W17222  23.740  30.287  23.681  0.2522  0.2001 -0.2442
74232W        W17223   9.446   4.283  21.234  0.1145  0.1318  0.2219
74233W        W17224  11.551  27.339   1.036 -0.0042 -0.3416  0.0676
74234W        W17225  19.845  26.549  25.843  0.2911 -0.3119 -0.1065
74235W        W17226  16.921  22.608  27.869 -0.2402  0.0400  0.2140
74236W        W17227  19.635  15.878   5.088 -0.0830 -0.0889 -0.1082
74237W        W17228  14.446  25.871  23.940 -0.0060 -0.0537  0.2688
74238W        W17229  28.652  22.763  17.391 -0.2674 -0.0064  0.3496
74239W        W17230   0.520  18.088  26.228  0.0819  0.2022  0.0711
74240W        W17231   7.169   1.972  19.244 -0.4419 -0.2949 -0.2208
74241W        W17232   3.196   6.234  21.866  0.1423 -0.1873 -0.2466
74242W        W17233   0.705   1.207   7.832  0.0692  0.2879 -0.0632
74243W        W17234  10.819  17.789   3.126 -0.2403 -0.2353 -0.1171
74244W        W17235  32.907  19.341  17.434  0.1737  0.0998  0.1021
74245W        W17236  33.328  11.468   6.726 -0.3832  0.2356 -0.0193
74246W        W17237  28.376   2.048   7.661  0.1228 -0.0892  0.1228
74247W        W17238  32.936  19.646  16.087  0.0171 -0.2223 -0.2316
74248W        W17239  11.287  14.180  23.924 -0.0092  0.0265 -0.0224
74249W        W17240  13.105  27.619   3.678 -0.3456  0.2319  0.1467
74250W        W17241  13.425  18.440  23.924 -0.0671  0.1935 -0.0884
74251W        W17242   5.479  12.237   1.352 -0.0236 -0.2016 -0.0791
74252W        W17243   8.478  26.087  26.994  0.0712  0.0015  0.1578
74253W        W17244   8.337  27.532  24.690  0.0531 -0.1196 -0.1378
74254W        W17245  11.848  14.352  27.077  0.3406  0.2179  0.4784
74255W        W17246  29.340  11.013  14.430 -0.1718 -0.0759 -0.3809
74256W        W17247  31.966  34.580  28.246  0.0275  0.2290  0.2350
74257W        W17248  10.502  28.504   6.445 -0.2637 -0.0125  0.1611
74258W        W17249  15.009  14.852  26.960  0.3093 -0.0360  0.1359
74259W        W17250  24.642  25.256   8.488 -0.0229  0.1765 -0.2765
74260W        W17251  28.109  22.312   1.142 -0.2433  0.1778  0.1133
74261W        W17252  26.200  12.851   2.192  0.3546  0.1139 -0.1082
74262W        W17253   4.876  16.723  28.705 -0.1226  0.1867 -0.2429
74263W        W17254  32.438  25.493   0.683 -0.0250 -0.1151  0.0865
74264W        W17255  34.367  14.829  11.990  0.5077 -0.1290 -0.1253
74265W        W17256  30.588  15.856  16.454 -0.0623 -0.0414 -0.0886
74266W        W17257   6.702  27.626  23.611 -0.4021  0.0934 -0.2007
74267W        W17258  30.273  18.366   8.803  0.2805 -0.1127 -0.1902
74268W        W17259   8.113  10.091   7.105  0.0465 -0.2416  0.1708
74269W        W17260  14.182  28.178   0.829  0.1919  0.4212 -0.2330
74270W        W17261  10.077  15.748   4.906  0.1089 -0.1235 -0.1724
74271W        W17262  30.784   1.265   3.220  0.0209 -0.0616  0.0379
74272W        W17263   0.545  34.729   4.565 -0.1209  0.1191 -0.0336
74273W        W17264   6.292  27.036   7.192  0.2606  0.1284  0.0274
74274W        W17265   0.012  25.425  27.988  0.2597 -0.2040 -0.1540
74275W        W17266   3.503  25.202   3.091 -0.0218 -0.0384  0.1749
74276W        W17267   9.289  30.814  22.545 -0.0522  0.0440 -0.1672
74277W        W17268   3.616  13.609   8.407  0.0026 -0.2617 -0.0957
74278W        W17269  11.169  19.466   3.623 -0.1691 -0.3268 -0.2809
74279W        W17270  17.756   1.558   7.167  0.1220 -0.0283 -0.2040
74280W        W17271  25.241  20.864  23.511 -0.0384 -0.1067  0.2321
74281W        W17272  32.081  31.980   6.407 -0.3125  0.4489  0.2450
74282W        W17273  32.663  13.689   7.114  0.1615 -0.1404 -0.1913
74283W        W17274   5.430  14.885   5.839 -0.1381 -0.1478  0.4120
74284W        W17275  11.976  17.806   5.705 -0.2119 -0.0896  0.0237
74285W        W17276   6.879  23.481  28.646  0.1386 -0.1750  0.1016
74286W        W17277  13.361  25.718  28.741  0.1109 -0.0558  0.2247
74287W        W17278  27.002  34.386   0.455 -0.1277 -0.3015  0.1782
74288W        W17279  18.738  33.340   2.856 -0.0573 -0.2102  0.2032
74289W        W17280  33.495  34.629   8.907 -0.1513  0.0219 -0.1475
74290W        W17281  29.420   2.348   9.896  0.3255 -0.1587 -0.1393
74291W        W17282  19.924   5.207  25.139  0.1964  0.0838  0.0249
74292W        W17283  12.115  26.145   3.824  0.3656 -0.0364 -0.2081
74293W        W17284   2.740   1.381   6.079 -0.4391 -0.0295  0.0893
74294W        W17285  10.759  22.720  28.795  0.0161  0.0209 -0.1306
74295W        W17286  18.752  28.978   1.178  0.0474 -0.0787 -0.1511
74296W        W17287   3.807  29.705  27.345 -0.3213 -0.3075  0.1440
74297W        W17288  16.954   0.072  16.202 -0.2056 -0.1073 -0.1029
74298W        W17289   1.458  20.178  19.229 -0.0953  0.2141  0.3532
74299W        W17290  16.222  24.821   8.637  0.3419 -0.3445 -0.2336
74300W        W17291   3.722  16.799  23.432 -0.2113  0.1914 -0.0106
74301W        W17292  18.567  33.892  27.363  0.0969  0.2756 -0.2718
74302W        W17293  13.570  34.638   5.010 -0.1367  0.0624  0.0687
74303W        W17294  30.244  26.711   8.953 -0.1456 -0.0539  0.1256
74304W        W17295   4.711  16.269  25.361  0.4021  0.1343  0.0664
74305W        W17296   7.337  29.603   0.089 -0.1016 -0.1548  0.0525
74306W        W17297  15.062   3.464   9.914 -0.0659  0.0159 -0.0729
74307W        W17298  14.674  17.537   4.294  0.0185  0.0667  0.2161
74308W        W17299  10.722  26.158   0.959 -0.4106 -0.3729  0.1077
74309W        W17300   9.805  16.995   8.417  0.2741  0.1484 -0.3333
74310W        W17301  29.720  32.496   2.248 -0.3269  0.0816 -0.1227
74311W        W17302  10.804  23.172   2.248  0.1435  0.1538 -0.0129
74312W        W17303  13.525  34.296   6.177  0.0033  0.2503 -0.1450
74313W        W17304  17.210  21.920   1.333 -0.1701 -0.0011 -0.2763
74314W        W17305   4.372  27.014   0.183  0.1430 -0.1432 -0.1210
74315W        W17306   7.659  29.788   5.185  0.0021  0.0263 -0.0911
74316W        W17307  34.571  25.317  29.230  0.0698 -0.0397 -0.0885
74317W        W17308  12.947  26.364   2.950 -0.0835  0.0172  0.0010
74318W        W17309   9.118  16.516   5.387  0.3094  0.0903 -0.2376
74319W        W17310  34.153  27.395   8.002  0.0413  0.0735 -0.1742
74320W        W17311  28.897  24.943   3.286 -0.3381 -0.2125 -0.4097
74321W        W17312   7.616  30.464   8.053  0.3508 -0.2288 -0.0711
74322W        W17313  15.236  10.274   2.943  0.1735  0.0279  0.4226
74323W        W17314   8.714  23.674   1.492 -0.1460 -0.5466 -0.1316
74324W        W17315  31.412  12.256   2.943 -0.2743 -0.0992 -0.3042
74325W        W17316  16.720  30.092   8.690 -0.0966  0.3143  0.0048
74326W        W17317   3.793  21.824   2.454 -0.1155 -0.0115 -0.1403
74327W        W17318  11.189  28.866   0.906 -0.1080 -0.3402  0.0180
74328W        W17319   2.994  24.263   2.210  0.2875  0.0644  0.0051
74329W        W17320  31.253  10.538   7.135 -0.1470 -0.0901 -0.1368
74330W        W17321   5.933  17.516  21.581 -0.1941 -0.0428 -0.1089
74331W        W17322  12.795   4.237  16.691  0.0075  0.4258  0.1745
74332W        W17323   4.450  28.973   0.239  0.2006 -0.0485  0.1485
74333W        W17324  21.644  22.765  26.672  0.1027  0.1015 -0.4066
74334W        W17325   3.537  23.789   7.066 -0.2556 -0.1020  0.0439
74335W        W17326   2.294  22.137   7.009  0.0046  0.0827 -0.1163
74336W        W17327  30.379  11.668  29.046  0.0590 -0.3914  0.2560
74337W        W17328  32.217  13.507   1.630 -0.2010  0.3606 -0.0238
74338W        W17329   5.943  27.997   1.557 -0.1295 -0.0096  0.0183
74339W        W17330  27.829  25.673   9.015  0.0726  0.2982 -0.3832
74340W        W17331  15.454  15.974   5.680  0.0259 -0.2215  0.2041
74341W        W17332   4.225   7.465   5.398  0.1144  0.0561  0.0628
74342W        W17333   2.427  34.415   6.561 -0.1855 -0.0198  0.1591
74343W        W17334  10.401  10.679  25.851  0.0260  0.1165 -0.3120
74344W        W17335   8.185  33.629   5.575 -0.0688 -0.2196  0.1109
74345W        W17336  15.821  24.487   3.259 -0.1023 -0.0812 -0.0751
74346W        W17337  32.671  16.690  10.500 -0.1443  0.3196  0.2608
74347W        W17338   5.785  16.484   4.992 -0.1551 -0.0296 -0.0424
74348W        W17339   5.563   2.682   4.361  0.0690 -0.1022  0.0787
74349W        W17340   7.592  16.500  28.761  0.3217  0.0840 -0.1552
74350W        W17341   7.069  16.354   3.530  0.0750 -0.1633  0.3440
74351W        W17342  29.948  15.476  23.269 -0.2635 -0.0325  0.1339
74352W        W17343   7.098  12.013  17.620 -0.1283 -0.0771  0.2949
74353W        W17344  34.624  24.513   3.457  0.1621  0.1062  0.0229
74354W        W17345   5.317   3.644   1.722  0.2913  0.1089 -0.2157
74355W        W17346   0.897  34.690   3.522 -0.1528 -0.0653  0.2588
74356W        W17347   9.357  31.047  18.148  0.1915  0.0467 -0.0687
74357W        W17348  14.261  15.243  26.833 -0.1564  0.2740  0.0239
74358W        W17349   7.753  32.793   5.276  0.1963  0.3051 -0.1838
74359W        W17350   1.942   8.781  10.463  0.1743  0.0725  0.2127
74360W        W17351  17.775   5.895   4.668 -0.0242 -0.0623 -0.0892
74361W        W17352   8.805  10.089   7.182  0.2494  0.0733  0.1803
74362W        W17353  17.190  32.325   8.670 -0.2201 -0.0838  0.1377
74363W        W17354  22.986   0.918   6.756 -0.1342  0.0050  0.0420
74364W        W17355  14.845  23.306   7.078  0.1742 -0.2544  0.3092
74365W        W17356   8.770   1.288   2.385  0.0436 -0.1899 -0.1954
74366W        W17357  11.155  24.788   0.185  0.0845 -0.1738 -0.2362
74367W        W17358  10.412  26.109   9.083 -0.1841 -0.1580  0.1347
74368W        W17359  17.534  33.519  27.583  0.0880 -0.1490 -0.0056
74369W        W17360  22.200  22.625   8.652  0.1511  0.1350  0.0350
74370W        W17361  18.642  21.434  26.174 -0.1173  0.1162  0.1047
74371W        W17362   0.207   4.551  23.841 -0.2429 -0.0838  0.0055
74372W        W17363   8.022  16.217  27.283  0.1388 -0.3724 -0.4188
74373W        W17364  27.648  17.562  23.940  0.1171 -0.2309  0.0291
74374W        W17365  17.525  25.427   9.235 -0.2928 -0.0540 -0.0007
74375W        W17366   5.513  19.983  22.297  0.0774  0.1020  0.0564
74376W        W17367  33.665  24.299   3.250  0.0319  0.4075  0.2434
74377W        W17368   5.953  27.400   7.259 -0.1145  0.1914 -0.1956
74378W        W17369  12.139  13.594   9.770  0.0359  0.0581 -0.1793
74379W        W17370   5.061  12.366  11.098  0.1207  0.0800  0.1929
74380W        W17371  15.191  31.992  26.159  0.4672  0.2329  0.3373
74381W        W17372   6.981  27.744   5.841  0.1905  0.0691 -0.4951
74382W        W17373   6.472  13.713  24.813  0.2307  0.3212  0.0630
74383W        W17374  20.994  33.036  27.844 -0.0844  0.0519 -0.3026
74384W        W17375  11.312  27.092  27.696 -0.1200 -0.1599 -0.0736
74385W        W17376   6.493  30.995  25.367  0.1128  0.1268  0.1799
74386W        W17377   6.303  30.365   8.464  0.0318  0.2076 -0.2507
74387W        W17378   3.961  23.781   4.336 -0.1751  0.0389 -0.0374
74388W        W17379   9.421  20.344   3.505  0.0244 -0.2705 -0.2146
74389W        W17380  29.223  13.424   3.863 -0.2804  0.2540 -0.3207
74390W        W17381   9.606  29.612   3.293  0.1251 -0.0317 -0.1716
74391W        W17382  14.461  33.023   0.361 -0.1914 -0.0344  0.0160
74392W        W17383  18.459   1.909   6.045 -0.0990  0.2596  0.1971
74393W        W17384  23.858  25.311  20.175  0.0138  0.1807  0.0728
74394W        W17385  34.379  21.436   1.796  0.0104 -0.2703 -0.1280
74395W        W17386   1.197   5.276   1.045 -0.0220  0.2152  0.1093
74396W        W17387  31.493  18.604   9.802  0.1683 -0.5597  0.0802
74397W        W17388  30.017  16.446   6.095  0.1210 -0.3272  0.0282
74398W        W17389  12.342  22.484   9.453  0.0364 -0.0055 -0.0925
74399W        W17390  30.171  17.973   6.373 -0.3131  0.3361 -0.3798
74400W        W17391  33.986  13.174   7.036  0.0813  0.1931  0.2205
74401W        W17392   5.187   2.778   0.214  0.0140  0.0735  0.3122
74402W        W17393   5.906  23.013   9.538  0.0867 -0.0588  0.0943
74403W        W17394  31.356  17.931   1.342  0.1233 -0.0932 -0.0330
74404W        W17395  19.240   2.211   5.344  0.1974 -0.3904 -0.0589
74405W        W17396  33.439  21.694   8.130 -0.0002 -0.0349  0.3997
74406W        W17397  26.877  17.189   8.646  0.0099 -0.0686 -0.0872
74407W        W17398   3.972  20.530   4.630  0.0570 -0.3356  0.0703
74408W        W17399   6.808  27.959  22.994  0.0614  0.0754  0.0190
74409W        W17400   0.155  21.821   8.343  0.1763  0.3444 -0.3042
74410W        W17401   6.238  23.670  10.052  0.1802  0.1058  0.1136
74411W        W17402  13.302  24.589  23.383  0.2024 -0.0776 -0.2161
74412W        W17403   8.531  25.585   9.421  0.3004  0.0918 -0.1479
74413W        W17404   4.530   3.346   3.886  0.2139 -0.0280  0.0496
74414W        W17405   2.154  32.305   5.925  0.0714 -0.1507  0.2109
74415W        W17406   2.053   0.789  23.181 -0.0270 -0.1733 -0.0799
74416W        W17407  27.035  19.814  26.451 -0.0937  0.1284  0.0242
74417W        W17408   0.371   3.045   5.775  0.0158 -0.0336 -0.0023
74418W        W17409   5.507  23.199   8.174 -0.0997 -0.0394 -0.0141
74419W        W17410   1.022  27.592  10.062 -0.0252  0.3242 -0.0660
74420W        W17411  30.121   5.054   5.344 -0.1690 -0.3363 -0.2665
74421W        W17412   8.782  26.224   3.738 -0.2630  0.2348 -0.2330
74422W        W17413   6.290  10.078   7.157  0.0139  0.0985 -0.2153
74423W        W17414   2.929  24.178   3.034 -0.1545  0.0817 -0.0314
74424W        W17415  26.682  31.476   4.450  0.1679 -0.3004  0.0166
74425W        W17416  30.102   1.207   8.356  0.1281  0.2003 -0.0125
74426W        W17417   3.503   3.429   8.586  0.1960 -0.0177 -0.1169
74427W        W17418  16.793  22.057  20.196  0.3391 -0.1755  0.1236
74428W        W17419  21.271  23.507   1.277  0.0728  0.0266 -0.0288
74429W        W17420  11.440  29.962   8.531  0.1031 -0.1509 -0.0246
74430W        W17421   1.143  27.087   9.345  0.1536 -0.0046  0.0173
74431W        W17422   7.800  30.213   9.723 -0.2414 -0.2334  0.4508
74432W        W17423   2.781  25.462  10.096  0.3822 -0.1093 -0.1330
74433W        W17424  32.764  24.136   6.722  0.1983 -0.3675 -0.1421
74434W        W17425  14.013  26.217   9.814 -0.1249 -0.0004 -0.1288
74435W        W17426  31.758   6.179  27.296 -0.2302 -0.3397 -0.2823
74436W        W17427  18.511  13.256   6.549  0.0524 -0.0442 -0.1180
74437W        W17428  33.220   3.743   9.025  0.1719  0.0494  0.1292
74438W        W17429   2.561   6.482  25.456  0.0697  0.1755 -0.1809
74439W        W17430   8.210  20.321   6.034 -0.0894  0.0354 -0.1453
74440W        W17431   7.468  23.475   7.983  0.2292  0.1003 -0.2674
74441W        W17432  14.399  32.260  28.436 -0.0018  0.3043  0.0665
74442W        W17433   8.069  32.687   5.630  0.0837  0.0404 -0.0022
74443W        W17434  15.090  27.592   6.181 -0.1163 -0.2745 -0.1120
74444W        W17435   2.592  34.664   0.322  0.0573  0.2171 -0.0192
74445W        W17436   7.129  10.490   1.178  0.1331  0.0301  0.1018
74446W        W17437  10.794  26.738   5.171 -0.2694  0.0739 -0.0703
74447W        W17438  11.439  26.077   0.312 -0.0982 -0.0204 -0.4273
74448W        W17439  27.074   6.677   1.142 -0.1574 -0.5679  0.0004
74449W        W17440   5.434  21.328   8.262  0.1015  0.1711 -0.2947
74450W        W17441  33.125  14.842  26.148 -0.0697 -0.1273 -0.0598
74451W        W17442  21.573  27.218   8.444 -0.0892 -0.1376 -0.2624
74452W        W17443  33.537  24.954   3.284  0.0190 -0.2236  0.1350
74453W        W17444  30.271  31.977   8.123  0.1921  0.1842 -0.0682
74454W        W17445   3.590   4.307   6.937  0.2818 -0.0838 -0.1506
74455W        W17446  19.790  31.602  25.512 -0.0635 -0.1558 -0.0526
74456W        W17447  19.976  26.077   2.501  0.0442 -0.2003  0.2108
74457W        W17448  10.385  32.515  22.054  0.0154  0.0229  0.0571
74458W        W17449  20.611  31.902  27.835 -0.1010 -0.1392  0.0542
74459W        W17450   9.058  34.724   1.431 -0.0068  0.2272  0.2195
74460W        W17451  17.001   3.780   9.155 -0.1079  0.2996 -0.2421
74461W        W17452  22.198  17.424  21.769  0.0569  0.0170 -0.1623
74462W        W17453   5.812  29.561   9.626 -0.1024 -0.0063 -0.0225
74463W        W17454  11.775  18.930   4.061 -0.1227 -0.0204  0.4370
74464W        W17455   3.137   6.427  26.555  0.0585  0.0031  0.1449
74465W        W17456   9.284  12.807  28.258 -0.0910 -0.0454 -0.1658
74466W        W17457   9.478  23.910   8.892 -0.1796  0.0006  0.0537
74467W        W17458   6.621  18.651  21.554 -0.0631 -0.2508 -0.2444
74468W        W17459   3.205   6.873  10.205 -0.2494  0.0751 -0.1118
74469W        W17460  33.778  17.177   0.812  0.1787 -0.1278 -0.0633
74470W        W17461   4.360   5.358   1.109  0.4015  0.1544 -0.1331
74471W        W17462   1.777  19.937   8.894  0.1802  0.2325 -0.1032
74472W        W17463  32.037   9.852  15.304 -0.4099  0.1386  0.1812
74473W        W17464  19.924  22.258   6.593  0.3362  0.1160 -0.2059
74474W        W17465   6.859   4.008   2.971  0.2552  0.1702  0.1074
74475W        W17466   1.195   6.744   6.505  0.0702 -0.0188 -0.2398
74476W        W17467  18.254  24.032   6.661  0.0691 -0.2884  0.0966
74477W        W17468   0.132   2.310  17.838  0.1733 -0.0909 -0.1913
74478W        W17469   1.873  21.875   7.295  0.2999  0.0198  0.0315
74479W        W17470   0.196   2.145   6.790 -0.0395  0.1348  0.2833
74480W        W17471   2.687  28.113  15.350  0.1012 -0.1583  0.0048
74481W        W17472  16.531  20.163   8.555 -0.0251 -0.1805  0.0715
74482W        W17473  13.338  24.654   4.294  0.0961  0.0025  0.1900
74483W        W17474  31.381  27.540   8.616 -0.0712  0.1305  0.0027
74484W        W17475   0.212  30.321   7.721  0.0259 -0.1752 -0.0057
74485W        W17476   4.527   6.339  14.704  0.0100  0.2449  0.1307
74486W        W17477   2.901  33.680   9.767  0.0934  0.2034  0.0466
74487W        W17478   5.704  25.876   8.800 -0.3058  0.0967 -0.1484
74488W        W17479   0.120  31.936   3.207  0.0572  0.0209  0.0113
74489W        W17480  29.375  12.463   6.500  0.0735 -0.1624 -0.1856
74490W        W17481   4.040  33.830   9.996  0.3542  0.0758 -0.2504
74491W        W17482   4.732   7.741   1.302  0.0673  0.0655 -0.0497
74492W        W17483  15.819  31.054   2.801  0.2724 -0.0423 -0.1324
74493W        W17484  32.557  23.474   7.728 -0.1742  0.1131 -0.0540
74494W        W17485   1.503  26.074   3.122  0.3176  0.1364 -0.1417
74495W        W17486   6.617  28.831  26.624 -0.0943 -0.2789  0.0141
74496W        W17487  11.040  17.460   5.260 -0.0334  0.2534  0.3261
74497W        W17488   0.005  30.388  17.470  0.2069 -0.0968 -0.0123
74498W        W17489   6.151  25.991   4.961 -0.0893  0.0087  0.0956
74499W        W17490  10.200   3.967  11.344 -0.1017 -0.2296  0.2198
74500W        W17491  16.331  34.450   8.500 -0.0370 -0.0333 -0.2155
74501W        W17492  26.983  32.129  27.502  0.1559 -0.1837  0.2249
74502W        W17493  12.535  34.469   0.365  0.2460  0.0145 -0.0495
74503W        W17494  31.964   3.289   9.314 -0.2183  0.3626  0.5018
74504W        W17495  28.024  32.120   7.822  0.1380  0.3347  0.3485
74505W        W17496   4.399  31.695   7.232  0.0483 -0.1354  0.1979
74506W        W17497   4.896  32.029  27.851 -0.1537  0.1191 -0.0942
74507W        W17498  11.048  25.601   3.702  0.0882 -0.1136  0.1797
74508W        W17499   6.012  31.491   3.779 -0.2546 -0.0963  0.2098
74509W        W17500  17.776   3.639   5.364  0.1066  0.0450  0.2113
74510W        W17501   6.702  18.923   7.138  0.3233 -0.2656  0.3105
74511W        W17502   0.484  32.518  26.098  0.0184  0.1559  0.1231
74512W        W17503   8.125  31.155   8.819 -0.0413 -0.0769  0.0228
74513W        W17504  34.781  21.246   2.884 -0.3810  0.2135  0.2130
74514W        W17505  11.918  34.010   7.227 -0.0722 -0.0178  0.3600
74515W        W17506  12.793   7.387  22.693 -0.0454 -0.0874  0.2138
74516W        W17507   3.891  34.040  15.998  0.0057  0.2649 -0.0575
74517W        W17508   6.131  11.317  10.959  0.0294 -0.3804 -0.1897
74518W        W17509   4.521  30.184  10.014  0.3477 -0.1008  0.1510
74519W        W17510   7.242  11.414  24.165  0.2719 -0.1540  0.1177
74520W        W17511  31.907  12.816  18.796  0.3127  0.0630 -0.0776
74521W        W17512  13.734  25.830  17.832 -0.0162 -0.1668  0.3338
74522W        W17513   9.882  19.424   5.312  0.2554 -0.1634 -0.1117
74523W        W17514  11.356  26.397  28.427 -0.0383  0.2151  0.0484
74524W        W17515  15.779  23.902   1.845 -0.1453 -0.3388  0.1629
74525W        W17516   0.614   6.971   9.050 -0.0546 -0.0232 -0.3833
74526W        W17517  34.123   4.655   1.937 -0.4684 -0.0068  0.1444
74527W        W17518  10.032   3.052  26.078 -0.0728 -0.1399 -0.1483
74528W        W17519  24.381  19.603   3.568  0.1856  0.3573 -0.3711
74529W        W17520   9.398   1.283   7.637 -0.1342 -0.0828 -0.2061
74530W        W17521   0.913  33.251   9.233  0.1050 -0.0259 -0.1544
74531W        W17522  15.550  34.242   8.200  0.2855 -0.1832 -0.0491
74532W        W17523  13.638  20.483   6.356  0.2518  0.4725 -0.1331
74533W        W17524  10.644  11.512   0.358  0.1753  0.0808  0.0850
74534W        W17525  17.231  31.492   0.505 -0.0849  0.1371  0.0245
74535W        W17526   3.054   2.754  25.820  0.2048  0.1155  0.0173
74536W        W17527   2.829  15.774  25.044 -0.1539  0.1609 -0.1401
74537W        W17528  17.845  32.490  25.695 -0.0624  0.2533 -0.3319
74538W        W17529   1.612  26.459   0.175 -0.3962  0.2447  0.0941
74539W        W17530  19.323   9.239   0.425  0.0544 -0.0770 -0.0293
74540W        W17531  30.990  26.365   4.312 -0.0349 -0.2444  0.2449
74541W        W17532   2.772  18.129  29.261  0.0763 -0.0800 -0.1469
74542W        W17533   5.874  11.528   6.319 -0.2639 -0.3460 -0.0167
74543W        W17534   1.371  29.262   2.062  0.1297  0.1470 -0.1522
74544W        W17535  32.841  25.145  17.491 -0.1739  0.0473  0.1141
74545W        W17536  15.804  34.601  24.392 -0.4930 -0.1511 -0.1292
74546W        W17537   4.514  22.178   2.230  0.1300 -0.2963  0.2809
74547W        W17538  13.301  19.808   5.084 -0.0405 -0.0834 -0.0829
74548W        W17539   3.846  12.915  27.738 -0.2023  0.0724 -0.0344
74549W        W17540  17.058  19.487  27.663 -0.0064  0.3892  0.1561
74550W        W17541  31.957  23.617  22.841  0.1130  0.2801 -0.3534
74551W        W17542   7.476  16.799  19.122  0.0107  0.1832  0.1371
74552W        W17543  10.243  19.001  19.793  0.1687  0.3414  0.0537
74553W        W17544  17.748  26.909   3.349 -0.0403 -0.2678  0.0702
74554W        W17545   7.578  21.673   3.653  0.0124  0.1389  0.1023
74555W        W17546   1.825  25.322   6.439 -0.2043 -0.2406 -0.1595
74556W        W17547   6.139  31.650  10.017  0.0168 -0.2251  0.1322
74557W        W17548   6.538  24.268   1.377 -0.1372  0.2081  0.1552
74558W        W17549  29.788   2.791   4.557  0.1315 -0.2014  0.0187
74559W        W17550   4.551  20.566  27.261  0.2776  0.2664 -0.0640
74560W        W17551   8.436  16.205  28.789  0.0610  0.0491  0.1853
74561W        W17552  11.384  16.943  26.988  0.0008  0.1517  0.1332
74562W        W17553  31.605  13.544  26.870 -0.1939  0.2106  0.1683
74563W        W17554  10.666  23.559   2.662 -0.2973  0.1769 -0.2293
74564W        W17555  17.176  28.412   1.151  0.0599  0.1890 -0.0551
74565W        W17556   5.906  15.251   7.587  0.1614 -0.2361 -0.0939
74566W        W17557  25.820  25.913   3.545 -0.0101  0.1768  0.0450
74567W        W17558  33.577  34.134   8.384  0.2553 -0.1930 -0.0770
74568W        W17559  33.755   2.496   8.282 -0.0922 -0.0039  0.1544
74569W        W17560  31.815  23.844  20.724  0.1271 -0.0650  0.1687
74570W        W17561   5.014   1.510  10.162  0.1742 -0.0220  0.1456
74571W        W17562  24.592  33.616   5.523  0.3215  0.1427 -0.1264
74572W        W17563  19.523   4.312  26.476  0.0615 -0.5934  0.3807
74573W        W17564  12.054   6.951  25.359 -0.1883 -0.0054 -0.0850
74574W        W17565  25.179  30.523  24.201 -0.1111  0.0656 -0.0827
74575W        W17566   4.205  14.021   3.465  0.3934 -0.1596 -0.0671
74576W        W17567  18.940  16.595   0.399  0.3345 -0.3510  0.0440
74577W        W17568  33.874  29.783   2.535 -0.1421 -0.1872 -0.0156
74578W        W17569   3.504  11.498   5.687  0.2400  0.0854 -0.4145
74579W        W17570   7.983  26.547   4.810  0.0902 -0.0578  0.1803
74580W        W17571   3.506  17.198   8.606  0.0546  0.0613  0.0368
74581W        W17572   1.558  18.948   5.459 -0.0926 -0.2442  0.0447
74582W        W17573  26.490  17.146  10.198  0.0870 -0.1134  0.0242
74583W        W17574  26.974   9.305  14.046  0.0760  0.2900  0.0935
74584W        W17575   6.930  20.231   5.145 -0.1450  0.0990  0.1282
74585W        W17576  30.299  26.880   8.171 -0.0335  0.0151 -0.2304
74586W        W17577   4.271  27.778  28.843 -0.1058 -0.0295 -0.2681
74587W        W17578  19.612   2.453  20.839  0.0969 -0.0563 -0.2196
74588W        W17579   8.760  32.852  10.258  0.1969 -0.1420 -0.1021
74589W        W17580  34.183   5.746   4.673 -0.0450  0.0489  0.2790
74590W        W17581   6.056   0.612   8.777  0.0301  0.5102 -0.0800
74591W        W17582   9.179  31.952   7.460 -0.1459  0.1162 -0.0207
74592W        W17583   8.931   2.155  16.570 -0.3397  0.0931 -0.3389
74593W        W17584   6.426   2.556  10.794 -0.1009  0.0213 -0.2280
74594W        W17585  14.903  32.127   6.977 -0.0642 -0.2840 -0.2310
74595W        W17586  33.099  31.059   8.317 -0.1335  0.1066 -0.2838
74596W        W17587   4.010  26.041   2.846  0.2406 -0.3008  0.1272
74597W        W17588   5.938   9.281   7.984  0.1250 -0.4127 -0.0530
74598W        W17589  22.899  33.660  17.643  0.1435 -0.0666  0.0354
74599W        W17590  31.649  23.342   7.314  0.2018  0.0102 -0.1068
74600W        W17591   2.787  30.529   5.026 -0.0575 -0.0516  0.2323
74601W        W17592   9.980  24.099   9.709  0.3998  0.3413  0.0258
74602W        W17593   7.519  19.148   5.860  0.1053  0.0902 -0.0176
74603W        W17594  33.410  16.783   5.273  0.0162  0.0930 -0.1666
74604W        W17595  32.549  16.965   4.161 -0.0973  0.1754  0.0211
74605W        W17596  10.370   4.551  10.555 -0.2586 -0.0916 -0.0516
74606W        W17597  25.222  33.126   5.280 -0.2170  0.1941  0.2484
74607W        W17598   1.980  17.523  17.599 -0.1837  0.2398 -0.4612
74608W        W17599  29.246  30.194   5.708  0.0784 -0.0711  0.3480
74609W        W17600  13.489  32.778  25.667 -0.1312  0.1041  0.0548
74610W        W17601  12.257  22.988   1.271  0.2992 -0.1330 -0.1634
74611W        W17602   1.146   5.169   2.507 -0.1970 -0.1346  0.0830
74612W        W17603   2.209  19.206  15.923  0.5038 -0.1317  0.2826
74613W        W17604  23.449  26.072   7.333 -0.0249  0.4797  0.0521
74614W        W17605   3.023   9.932   1.565  0.1200  0.0151 -0.0547
74615W        W17606  30.138  22.314  26.957  0.0186 -0.0209  0.2428
74616W        W17607   1.188   0.526   8.562  0.0021 -0.1658  0.1297
74617W        W17608   2.790   0.082   6.524 -0.0691 -0.0623  0.1462
74618W        W17609   4.054  31.043   0.534  0.0958 -0.2065  0.1038
74619W        W17610   3.089  16.639   5.627 -0.2487  0.2618  0.2260
74620W        W17611   3.084  33.466   8.005  0.1233  0.1995  0.0383
74621W        W17612  12.803  16.890   2.823 -0.2254  0.1453  0.0273
74622W        W17613   3.739   1.289  27.418 -0.2673 -0.4058 -0.0239
74623W        W17614   9.944  33.363  28.373 -0.2765 -0.0149 -0.3930
74624W        W17615  12.331   1.512   6.067 -0.0679  0.2373  0.0670
74625W        W17616  19.185   4.302   7.317  0.3192  0.0890 -0.1828
74626W        W17617   4.329  19.744  28.028 -0.1779  0.3006  0.0163
74627W        W17618   0.997  26.071   9.813  0.0920  0.0370 -0.0747
74628W        W17619  13.299  33.958  25.997 -0.0476 -0.0295  0.0691
74629W        W17620   7.769  22.946   1.188 -0.1646 -0.1075 -0.2629
74630W        W17621  22.317  17.911   7.315 -0.3494  0.1958 -0.1102
74631W        W17622  32.095  13.865  25.635  0.1614  0.0653  0.1427
74632W        W17623  34.199   0.775   8.909 -0.1153 -0.0124 -0.1410
74633W        W17624  11.795  28.140  27.964  0.1876  0.2201 -0.0288
74634W        W17625   5.202  11.575  18.498  0.0112 -0.0302  0.2128
74635W        W17626   8.104  29.561   8.751  0.2263 -0.2303  0.1766
74636W        W17627  29.586  20.316   6.418  0.1585  0.3021 -0.1001
74637W        W17628  18.494  22.838  23.358 -0.0899 -0.1962 -0.1068
74638W        W17629   1.501   4.415   6.116  0.0564  0.3525 -0.0031
74639W        W17630  16.568  24.555   7.804 -0.1111  0.2697  0.1696
74640W        W17631  27.295  26.844  19.599  0.1671 -0.0117  0.0330
74641W        W17632   8.585  31.527  26.060 -0.2538  0.0247 -0.1122
74642W        W17633   7.025  24.165  23.194  0.1382  0.1387  0.1561
74643W        W17634  11.894   2.798   5.736  0.1612  0.2143 -0.1841
74644W        W17635  34.209  25.197  24.954  0.0144  0.4075  0.1891
74645W        W17636   6.128  26.206  24.074  0.0811  0.0931 -0.0072
74646W        W17637  10.195  21.575   3.573 -0.0615 -0.0724 -0.0090
74647W        W17638   0.630  24.125  25.623 -0.0624 -0.0475 -0.0417
74648W        W17639  16.104   1.675  28.579  0.0324 -0.0883  0.1034
74649W        W17640  27.179  25.734   1.524 -0.1394  0.1743 -0.3107
74650W        W17641   8.013   6.684   9.207 -0.0154 -0.1538  0.0701
74651W        W17642  32.654  21.806   8.618  0.2825 -0.1305  0.0005
74652W        W17643  10.041  21.669   0.769 -0.0905 -0.0441  0.0533
74653W        W17644   3.394  18.114  23.449 -0.2868  0.0854  0.0779
74654W        W17645   2.901  26.834   8.529  0.3405 -0.1129  0.0378
74655W        W17646   8.475  14.881   1.395 -0.1536 -0.3995 -0.0049
74656W        W17647   3.106   4.674   2.888  0.1408  0.2941  0.1078
74657W        W17648   2.460  31.945   7.757  0.0623 -0.2060 -0.0794
74658W        W17649  32.530  16.461   4.207 -0.2096  0.0440 -0.1642
74659W        W17650   5.114   0.628   4.935 -0.0418  0.2168  0.0655
74660W        W17651   3.790   3.870   6.858 -0.1126  0.0504 -0.1150
74661W        W17652   0.357  21.509   9.743  0.0836  0.0179  0.3442
74662W        W17653  31.403   8.147   1.293  0.1108  0.1635 -0.4337
74663W        W17654   5.611  11.598   3.889  0.1638 -0.1825 -0.0796
74664W        W17655  33.570  19.672  24.330  0.0601 -0.1419  0.1022
74665W        W17656   4.442  21.910   0.342  0.0327 -0.1608  0.1279
74666W        W17657  23.207  33.460   3.129 -0.2192 -0.2166  0.0946
74667W        W17658  19.823  22.133  25.018 -0.0936 -0.5101 -0.1006
74668W        W17659   5.277  16.150  27.572 -0.0094  0.0503 -0.1423
74669W        W17660   1.498   0.639   7.697 -0.1180  0.0941  0.0019
74670W        W17661  25.706  34.450  26.905 -0.3244 -0.0519  0.3360
74671W        W17662   8.609   3.777   1.179  0.1407  0.1868  0.0142
74672W        W17663   8.377  31.486  28.322  0.1042  0.0338  0.3134
74673W        W17664   3.908  29.427   5.631  0.1471  0.0823 -0.1626
74674W        W17665   8.925  27.377  28.551  0.5574  0.0454 -0.0692
74675W        W17666   7.036  27.914   3.819  0.2241 -0.2726 -0.0321
74676W        W17667   9.492  27.001  24.727  0.1567  0.1795 -0.1149
74677W        W17668   3.270  26.174   4.775 -0.0992 -0.3335 -0.1948
74678W        W17669  24.646   9.487  28.234  0.3683 -0.1582  0.1774
74679W        W17670  11.397  28.254   3.427  0.0826  0.1675 -0.6873
74680W        W17671  17.141  26.123   3.492 -0.2546 -0.0295  0.0764
74681W        W17672  14.050  20.208   6.518 -0.0757  0.0963 -0.0927
74682W        W17673   7.860  10.023   0.205 -0.2992  0.1397  0.1054
74683W        W17674  34.434  27.009   8.894 -0.0524 -0.1294  0.0501
74684W        W17675  32.086  20.287  10.009  0.6468  0.1664 -0.0826
74685W        W17676   9.820  33.784  21.835  0.3211 -0.1043 -0.0176
74686W        W17677   3.846  25.938   3.620 -0.4147  0.0298  0.1117
74687W        W17678  27.336  24.932   3.045  0.1225 -0.1295 -0.0501
74688W        W17679  28.010  16.854   7.561  0.0943  0.0188  0.0177
74689W        W17680   4.146   0.918   9.189 -0.0952 -0.2887  0.0663
74690W        W17681  24.444  15.881   3.738 -0.0860 -0.0742  0.0759
74691W        W17682  30.303  19.688  24.891  0.2019 -0.1360  0.0277
74692W        W17683  10.984  33.620   7.371  0.0952  0.0147 -0.2464
74693W        W17684  28.980  18.836   1.672 -0.0285  0.0057 -0.1246
74694W        W17685  31.671  20.647   3.988  0.1895 -0.1100 -0.0251
74695W        W17686  23.276  21.917   6.036 -0.3105  0.1959  0.0380
74696W        W17687   7.947  21.768   7.822  0.1746 -0.0471 -0.1693
74697W        W17688   0.907  30.108   6.427  0.2282  0.0501  0.0226
74698W        W17689  25.129  23.015   6.253 -0.2646  0.0069  0.1888
74699W        W17690   6.776  24.114  27.898 -0.2069 -0.1679  0.1270
74700W        W17691  10.863  16.689   7.444  0.0546 -0.0631 -0.0174
74701W        W17692  12.999  29.276   9.997 -0.1484 -0.0758 -0.0919
74702W        W17693  11.135  11.221  24.420 -0.1103  0.0465  0.2071
74703W        W17694   7.568  22.180   7.260 -0.0009 -0.1393  0.1643
74704W        W17695  12.317   0.105  28.361  0.2272  0.2506  0.0047
74705W        W17696   6.614  25.290   5.331 -0.0171  0.0515 -0.0738
74706W        W17697  11.946  31.155  24.018  0.0317 -0.1205  0.0355
74707W        W17698  11.229  27.925  10.296  0.0112  0.1691  0.1165
74708W        W17699   4.387  18.903  26.110 -0.1750  0.2011  0.0869
74709W        W17700  13.677   8.635   1.676  0.3243 -0.3338 -0.0266
74710W        W17701  19.755   9.043   3.618  0.0825 -0.1952  0.3037
74711W        W17702  23.653   3.686  21.904 -0.1546 -0.1278  0.2892
74712W        W17703   2.892  31.879   6.959 -0.1491  0.0396  0.1376
74713W        W17704  11.505  26.374   5.823 -0.1319  0.0076 -0.1995
74714W        W17705  26.034  14.454   8.870  0.2130 -0.0875  0.1239
74715W        W17706  14.822  29.588   2.618 -0.2295  0.0981 -0.1054
74716W        W17707  21.226  30.936   0.353 -0.0407  0.1579 -0.1242
74717W        W17708   2.760  10.600   6.316  0.3794 -0.1798 -0.0850
74718W        W17709   7.370  12.774   5.964 -0.0196  0.3114 -0.0843
74719W        W17710  27.183  16.915   3.366 -0.2005 -0.0196 -0.1441
74720W        W17711  15.712   0.184   5.777  0.0325  0.1027 -0.1121
74721W        W17712  10.904  10.710  11.263  0.0137 -0.0280  0.0098
74722W        W17713  28.683  32.889   7.912 -0.1366  0.1314 -0.1442
74723W        W17714   1.896  11.046   6.627 -0.1993  0.0435  0.3812
74724W        W17715   3.030  23.297   8.314 -0.0383 -0.0212  0.0742
74725W        W17716  23.912  24.929   4.617  0.2395  0.0576 -0.1144
74726W        W17717   8.135   6.427  28.073  0.3580 -0.0410 -0.0363
74727W        W17718   6.306  18.286   8.258 -0.2175 -0.2003 -0.1171
74728W        W17719  23.493   0.238   2.376 -0.0948 -0.1809  0.2248
74729W        W17720  24.808   9.518   8.283 -0.0481  0.0021  0.1122
74730W        W17721  10.203  15.972   6.584  0.0449 -0.0363 -0.0044
74731W        W17722   6.953  21.815   7.649 -0.2817  0.0710  0.0701
74732W        W17723  24.278  19.291   8.510 -0.2387  0.0410  0.0729
74733W        W17724  11.297  30.234   1.229  0.1319  0.2775 -0.0977
74734W        W17725   5.787  25.844  29.088  0.2696 -0.2673  0.0157
74735W        W17726  21.612  19.303   6.876  0.1255 -0.3123  0.0880
74736W        W17727   8.481  19.510  10.241  0.3714  0.2245 -0.0759
74737W        W17728   4.812  24.272  10.310 -0.2279 -0.1430 -0.0765
74738W        W17729   6.996  32.914   0.028  0.2226  0.0168  0.1842
74739W        W17730   8.858  18.717   2.563  0.0608 -0.2761  0.1918
74740W        W17731  29.399  20.058   0.064 -0.2151 -0.0581 -0.0032
74741W        W17732  25.619   6.658  24.234  0.0924 -0.2243  0.1035
74742W        W17733   4.791  27.211  24.486 -0.2207  0.2027 -0.0703
74743W        W17734  14.888  31.400   8.369 -0.4313  0.0094 -0.1977
74744W        W17735   6.735  23.374  22.240  0.1120  0.0067 -0.2796
74745W        W17736  10.706  30.210   6.885  0.1701 -0.1541  0.0723
74746W        W17737   3.459  21.136   1.718  0.0160 -0.0456 -0.3258
74747W        W17738   5.982  21.881  27.772 -0.0972  0.0490 -0.0856
74748W        W17739   5.580  33.282   2.431 -0.0802 -0.1499 -0.1238
74749W        W17740  13.702  25.462   0.456 -0.0016  0.0171 -0.2398
74750W        W17741  27.388   8.661   8.564  0.1082  0.1666 -0.2269
74751W        W17742   8.756  23.508   9.420  0.0173 -0.1543  0.0870
74752W        W17743  32.361  24.321   2.942 -0.2374 -0.1010 -0.3653
74753W        W17744   7.061  29.597   6.305  0.0845 -0.1935  0.1205
74754W        W17745   4.981  29.144  27.774 -0.1817 -0.0343  0.3642
74755W        W17746  30.890  10.526   6.531  0.2422 -0.3821  0.0813
74756W        W17747   2.972  21.879   3.959  0.2373  0.0033 -0.0777
74757W        W17748  10.605  22.060  27.492  0.4003  0.3079  0.0519
74758W        W17749  11.206  27.467   7.863 -0.2395 -0.0883  0.0644
74759W        W17750   1.292  29.945  28.370  0.0919  0.1978 -0.0611
74760W        W17751  30.962   4.113   9.117 -0.0864 -0.1656 -0.2388
74761W        W17752  26.143  15.155   0.140 -0.2572  0.1676  0.0588
74762W        W17753   1.862  16.154  28.549 -0.1003  0.0731 -0.1654
74763W        W17754  29.374   4.755   1.929 -0.1669  0.2482  0.0706
74764W        W17755  20.174  32.996  18.189 -0.0377  0.1162  0.0847
74765W        W17756  23.174  11.511   7.254  0.2922  0.1641 -0.1685
74766W        W17757   5.084  30.757   9.478  0.1145 -0.3665 -0.1901
74767W        W17758  12.942  13.257   6.524  0.2093 -0.1672 -0.0018
74768W        W17759  10.030  26.918   0.120  0.1452 -0.1129  0.0481
74769W        W17760  11.625  34.105  10.061  0.1433  0.0805  0.1829
74770W        W17761   2.313  24.677  26.150 -0.1449 -0.1025  0.0092
74771W        W17762   2.746  27.476   7.788 -0.0807 -0.0407  0.0260
74772W        W17763   7.610  15.398  20.222 -0.0511  0.0250 -0.0230
74773W        W17764  10.496  27.575   5.417 -0.0460 -0.0105  0.1925
74774W        W17765  34.694  32.819  29.153 -0.0705  0.3687  0.0615
74775W        W17766   0.857  32.302  28.910 -0.2657 -0.1679  0.0801
74776W        W17767  17.844  24.284  22.115 -0.1567 -0.1800  0.1086
74777W        W17768   0.976  29.458  14.956  0.0438 -0.2182 -0.1495
74778W        W17769  14.692  26.121   6.754 -0.1251 -0.0834  0.2286
74779W        W17770  30.918  30.697  14.500  0.2093 -0.2453  0.3222
74780W        W17771   2.190  19.871   6.166 -0.2264  0.1673  0.2335
74781W        W17772  20.542  29.773  21.466  0.1536  0.0911 -0.0930
74782W        W17773  21.494   1.313   7.576  0.1662  0.0356  0.0417
74783W        W17774  34.393   8.168   4.260  0.3214 -0.0462  0.1044
74784W        W17775  20.739  25.293   1.874  0.3759  0.0247  0.0687
74785W        W17776  29.855  21.615   6.024  0.2198  0.2656 -0.0413
74786W        W17777   6.023  30.184  24.445  0.1506  0.0166  0.1303
74787W        W17778  20.895  11.403  25.535 -0.0539 -0.0409  0.2078
74788W        W17779   3.460  25.117  10.770  0.1471 -0.2759  0.2309
74789W        W17780  25.943  16.007   7.075 -0.1545 -0.1384 -0.1765
74790W        W17781   9.283  10.739  18.341 -0.1074  0.1579  0.1495
74791W        W17782  27.523   1.592  15.922  0.2387  0.2020  0.1735
74792W        W17783   5.173  26.888  17.961 -0.0495 -0.3337 -0.0456
74793W        W17784  11.691  27.459  25.567 -0.1291 -0.1921  0.0932
74794W        W17785  13.710  23.776   3.404 -0.2528 -0.1285 -0.0446
74795W        W17786   6.701  18.496   7.476  0.0399 -0.3877  0.1107
74796W        W17787  20.367   3.947   2.646 -0.0040  0.0939 -0.1200
74797W        W17788  33.638   3.993   3.676  0.0591 -0.0143 -0.2147
74798W        W17789  22.604  21.437   6.736  0.0201 -0.4378  0.0367
74799W        W17790   7.473  31.371   7.614 -0.1876 -0.2439 -0.0604
74800W        W17791  13.031  21.507  25.911  0.1758  0.0673  0.0529
74801W        W17792  14.288  22.004  23.823 -0.0359  0.1600 -0.0713
74802W        W17793   6.470   1.956  25.049  0.2170 -0.0507 -0.2703
74803W        W17794  12.636  21.687   6.242  0.2511 -0.2506 -0.2808
74804W        W17795   7.999  23.636  19.764 -0.0001 -0.3876 -0.1895
74805W        W17796  18.115  25.794   8.723  0.2552  0.1016 -0.1538
74806W        W17797   7.761  21.635   5.894  0.1654  0.3751 -0.0169
74807W        W17798  15.171  26.309   8.818  0.0689  0.0607 -0.1067
74808W        W17799  20.376   1.043   5.631 -0.0181 -0.3760  0.2790
74809W        W17800   8.291  34.058  17.566 -0.2222  0.0841 -0.0434
74810W        W17801  31.071  28.486   5.806  0.0217  0.2655 -0.3744
74811W        W17802   0.270  28.193   5.671  0.0044 -0.1930  0.0588
74812W        W17803   3.753  20.196  28.647 -0.2641  0.0539  0.0602
74813W        W17804  32.499  23.121   8.496 -0.0587  0.0396  0.1880
74814W        W17805   2.240  31.717   4.831  0.2531  0.0874 -0.0215
74815W        W17806  30.425  20.016   0.475  0.3480 -0.0706  0.1839
74816W        W17807  30.944  10.885   0.578  0.1314 -0.1546  0.2631
74817W        W17808  10.189  29.929   6.194 -0.1539 -0.3692  0.2412
74818W        W17809  17.483  33.281   5.298  0.1103 -0.0707  0.2382
74819W        W17810   3.692  26.590  23.566  0.1772  0.2087 -0.0404
74820W        W17811  29.159  17.406  11.160 -0.1629  0.0152 -0.2942
74821W        W17812  11.020  29.326   2.727  0.1825 -0.2197 -0.3736
74822W        W17813  31.435  16.113   1.188 -0.2646  0.2434  0.3031
74823W        W17814   2.748   2.017   0.554 -0.1144 -0.0329  0.0007
74824W        W17815  10.529  22.251   2.400  0.4455  0.1202 -0.3794
74825W        W17816  25.395   9.576   3.697 -0.0998 -0.1967 -0.0287
74826W        W17817  32.652  23.315   3.049  0.1755  0.3255  0.0532
74827W        W17818   5.819  26.394  27.065  0.1370 -0.1859 -0.2433
74828W        W17819  19.184  19.025   6.270  0.0373  0.2101 -0.1245
74829W        W17820   2.551  31.056   2.136  0.0651  0.1508 -0.3212
74830W        W17821  25.522  31.747   7.638  0.1454 -0.0923  0.2007
74831W        W17822   0.446  17.507   1.649  0.1531 -0.1524 -0.0218
74832W        W17823   4.508  14.535  26.881  0.0992  0.1355 -0.0848
74833W        W17824  28.416  28.716   6.750  0.2503 -0.3768  0.1734
74834W        W17825  30.217   3.321   2.046  0.3699  0.0867 -0.0101
74835W        W17826  34.505  18.655  25.082  0.1972  0.5071  0.0259
74836W        W17827   8.287  29.202   4.097 -0.2829 -0.0294  0.1094
74837W        W17828  34.368  19.800  25.944  0.0492 -0.1432  0.3570
74838W        W17829   4.717  28.380   9.631 -0.2103  0.1574 -0.1675
74839W        W17830  22.498  27.368   4.272  0.0148 -0.1366  0.1070
74840W        W17831   4.111  20.743   3.505  0.0046 -0.1486  0.2618
74841W        W17832  17.759  22.156  27.028 -0.1622 -0.2284  0.0547
74842W        W17833   4.802   5.196   8.999  0.0241  0.3115  0.0858
74843W        W17834  32.085  30.550   6.596 -0.0691 -0.0420 -0.2267
74844W        W17835   8.085  27.395  18.259  0.0998  0.0827 -0.1095
74845W        W17836  21.564  20.895   4.699  0.2954 -0.0201 -0.1572
74846W        W17837   7.556  28.004   2.028  0.1384 -0.0221 -0.1895
74847W        W17838   4.214   8.192   5.071 -0.0413 -0.0620 -0.3585
74848W        W17839  34.018   3.688   2.015 -0.1391 -0.0006  0.1278
74849W        W17840   5.596  14.589  21.805 -0.1577  0.1731 -0.2222
74850W        W17841  17.843  33.556  25.988  0.0652 -0.1118  0.3722
74851W        W17842  15.694  24.285  28.054  0.1315 -0.3112 -0.2812
74852W        W17843  30.214  24.009   3.050 -0.1959 -0.0380 -0.0405
74853W        W17844  29.019  30.107   6.778 -0.0072  0.1949  0.0570
74854W        W17845  11.233   6.110   4.945 -0.1500 -0.3235 -0.2413
74855W        W17846  29.471  19.540   0.974 -0.0417  0.2513 -0.0140
74856W        W17847   3.117  33.260   2.582 -0.0749  0.0224 -0.3445
74857W        W17848  29.208   1.382  26.524 -0.0524 -0.3288  0.0580
74858W        W17849  27.003  27.737  22.366 -0.0428 -0.2619 -0.1457
74859W        W17850  11.293  27.509   2.382  0.1230 -0.1230 -0.3158
74860W        W17851  32.415   3.098   2.044  0.3161 -0.1623  0.1372
74861W        W17852  33.509  18.753   0.637 -0.0500 -0.1001  0.1153
74862W        W17853  16.128  22.738  23.355  0.0548  0.2227 -0.1552
74863W        W17854  15.945  26.468   0.863  0.0515  0.1615 -0.0953
74864W        W17855  12.717  30.887   5.481  0.0607  0.0778 -0.1660
74865W        W17856  14.816  15.964   6.648 -0.1532  0.0051 -0.2763
74866W        W17857   3.923   3.451   3.159 -0.1486 -0.0216  0.1693
74867W        W17858   0.894  25.975   5.862  0.0978 -0.2532  0.0433
74868W        W17859   3.336  30.373  24.465 -0.2544 -0.0954  0.0498
74869W        W17860   9.274  11.373   7.082 -0.0049  0.0234  0.2022
74870W        W17861   4.426  27.445   0.402 -0.1072  0.3750  0.0918
74871W        W17862   3.635   0.437   3.093 -0.0273  0.2962  0.2255
74872W        W17863  19.937  22.470   7.381 -0.0450 -0.2194  0.3948
74873W        W17864  32.147  22.890   6.444  0.2488 -0.1130 -0.1034
74874W        W17865   3.971   2.343  23.769  0.0743  0.1340 -0.3935
74875W        W17866   6.115  31.038   3.598 -0.0673 -0.1218  0.1162
74876W        W17867  12.114  25.840  21.473 -0.0980 -0.1293 -0.4040
74877W        W17868   1.009  34.422   4.383  0.1114 -0.1923 -0.1803
74878W        W17869   4.091   5.817   8.539  0.0409  0.0053  0.1056
74879W        W17870   1.643  12.419   2.800 -0.0770 -0.0469  0.1521
74880W        W17871  14.450  17.264   1.055  0.1382  0.0623 -0.1527
74881W        W17872  28.786  18.649   0.727 -0.0318 -0.1527 -0.1829
74882W        W17873  32.036  34.706   2.146  0.1366  0.3751 -0.1040
74883W        W17874  10.967  29.022  27.539 -0.1470 -0.0264 -0.2474
74884W        W17875  32.099  32.676  25.485  0.2736  0.0477  0.0215
74885W        W17876   7.850  22.405   0.785 -0.0449 -0.0137 -0.0025
74886W        W17877   4.544  25.072   1.237  0.0837 -0.2092 -0.0270
74887W        W17878   2.646  33.857   2.605  0.1909  0.0432 -0.2634
74888W        W17879   9.628  29.620   4.029 -0.1743 -0.0270  0.2326
74889W        W17880  17.377  18.774  25.221 -0.6934  0.2500  0.1700
74890W        W17881  11.805  23.664   0.903  0.0714 -0.1556 -0.3288
74891W        W17882   7.225  24.111   9.438 -0.1436 -0.1506 -0.0349
74892W        W17883  33.597  17.783  17.804  0.1886  0.0917 -0.1258
74893W        W17884  23.717  29.761  26.156 -0.2771  0.2696 -0.2910
74894W        W17885  29.046  21.373   9.792  0.0053  0.0594 -0.0252
74895W        W17886   8.123  29.093   6.969 -0.1055  0.1079 -0.1874
74896W        W17887  17.990  23.249   4.946  0.0595  0.1398  0.1853
74897W        W17888   8.212  27.256   9.674  0.0336 -0.1368 -0.2116
74898W        W17889  28.178  15.738  29.023  0.1795 -0.3433 -0.4353
74899W        W17890   5.839  28.195  15.834 -0.0840 -0.0674 -0.3813
74900W        W17891   6.072  16.645   8.496 -0.1566 -0.0420 -0.0177
74901W        W17892  15.997  28.409  10.122 -0.0723  0.0577 -0.2407
74902W        W17893  19.610  17.887  28.422 -0.1692  0.1186  0.4100
74903W        W17894   9.903  29.954  27.389 -0.1229  0.1733  0.3043
74904W        W17895   0.859  25.659   0.878  0.0194 -0.4180  0.0724
74905W        W17896  24.348   2.490   9.768 -0.0386 -0.2342  0.0507
74906W        W17897  18.537  33.752   2.474 -0.1274 -0.0052 -0.1906
74907W        W17898   7.730  33.180   7.093  0.2300 -0.1795  0.1333
74908W        W17899   6.356  27.690   9.939  0.0244 -0.1052 -0.0799
74909W        W17900  18.335  24.995  28.746 -0.1329 -0.2677 -0.2437
74910W        W17901   0.959   0.308   3.187  0.0864 -0.1196 -0.1393
74911W        W17902  10.790  24.648   8.176 -0.0834  0.0457 -0.0205
74912W        W17903   0.667  27.174   8.387 -0.4847  0.0244 -0.0680
74913W        W17904   2.700  20.631   1.930 -0.0201  0.0573  0.2120
74914W        W17905  23.730   1.773   3.996 -0.0525  0.0285  0.1570
74915W        W17906   4.165  11.931   8.655  0.2261  0.4310 -0.0963
74916W        W17907  14.487  28.239  22.828  0.1820 -0.1957  0.1957
74917W        W17908  34.401  32.962   5.296 -0.2299  0.1805 -0.1404
74918W        W17909  14.224  15.468   8.855 -0.1642 -0.0804  0.1038
74919W        W17910   8.856  22.028   4.915  0.1325  0.0447  0.1654
74920W        W17911  12.050  33.247   9.987  0.0535 -0.0048 -0.0202
74921W        W17912  15.489   9.608   0.240 -0.0425  0.0934 -0.2402
74922W        W17913   7.383   4.686   8.926 -0.0981 -0.2746  0.3104
74923W        W17914  16.245  19.473   5.171  0.0741  0.0053 -0.0557
74924W        W17915   8.071  27.501  15.475  0.0640  0.1758 -0.0154
74925W        W17916   9.666  29.971  28.167 -0.0447  0.1540  0.0971
74926W        W17917  29.929   5.525   4.350  0.2144 -0.1102 -0.0590
74927W        W17918  24.309  26.413   6.573  0.3149 -0.1847 -0.0055
74928W        W17919   7.825  31.978  27.237  0.0817 -0.1872 -0.1797
74929W        W17920  32.683  17.833   3.394 -0.3617 -0.0940  0.3581
74930W        W17921  11.750  20.362  10.116  0.2354 -0.1708  0.2558
74931W        W17922  12.780  16.009   9.974 -0.0524 -0.4664  0.2235
74932W        W17923  11.015   3.264  29.050  0.1415  0.1514 -0.1396
74933W        W17924   6.252  32.446   3.316  0.0044  0.0387 -0.0932
74934W        W17925  24.475  20.296   7.430  0.1659 -0.0081 -0.1080
74935W        W17926   1.673   0.911  28.295  0.0642  0.1329  0.0501
74936W        W17927   9.277  10.203   8.808  0.1050 -0.1644  0.0181
74937W        W17928  13.179  26.406   7.098 -0.0358  0.0959  0.1562
74938W        W17929  25.227   6.607   2.539 -0.4132  0.2010 -0.1129
74939W        W17930   9.795  19.513  27.249 -0.2730  0.1890 -0.0209
74940W        W17931   3.215  24.841   9.643  0.1004 -0.1798  0.1876
74941W        W17932  27.011  15.280  26.666  0.0819  0.0439 -0.1433
74942W        W17933   1.328   3.502   7.768  0.0419  0.2251 -0.1027
74943W        W17934   6.483  28.411  22.627  0.0569 -0.0321  0.1347
74944W        W17935  34.004  30.816   8.744 -0.1188 -0.0603 -0.4367
74945W        W17936  33.790   4.574  29.046 -0.1248 -0.0505 -0.0059
74946W        W17937  13.630  17.413  19.916 -0.0211  0.1667  0.0259
74947W        W17938   9.041  17.486  18.747  0.2950  0.1837 -0.1059
74948W        W17939   6.434  20.988  24.201  0.0745  0.0328  0.1680
74949W        W17940  10.196  18.942   5.598 -0.2744 -0.0070 -0.4373
74950W        W17941  14.030  19.506  26.287 -0.1273 -0.0899  0.2049
74951W        W17942  34.288  14.517   2.905  0.3845  0.0023 -0.3007
74952W        W17943  19.130   0.343   7.273  0.0132  0.2192 -0.0295
74953W        W17944   8.091  34.149   3.078  0.1847  0.1878  0.0289
74954W        W17945  32.132   9.901   6.808  0.3880  0.0492 -0.2124
74955W        W17946  16.804  22.301   2.599 -0.3375  0.1908  0.1095
74956W        W17947   9.590  23.983   8.087 -0.1406 -0.0421  0.2025
74957W        W17948   2.746  10.351  23.905  0.0081 -0.0506  0.2172
74958W        W17949   7.509   5.752   7.794 -0.1169  0.0561 -0.1245
74959W        W17950  32.906  23.186   3.531  0.1457  0.1798  0.1753
74960W        W17951  14.930  19.112   7.777 -0.2671  0.1304  0.0714
74961W        W17952  11.069   6.639   1.364  0.1548 -0.0186 -0.2169
74962W        W17953   6.973   5.967   1.109  0.2202  0.1241 -0.3628
74963W        W17954  12.086   0.471   9.423  0.3144 -0.0203  0.0782
74964W        W17955  20.493   7.782  24.108  0.2038  0.2092  0.2665
74965W        W17956   9.780  32.100  29.252 -0.3613  0.0505  0.0995
74966W        W17957  32.553   6.104  17.805 -0.2122 -0.0984 -0.1074
74967W        W17958  30.930  10.016  18.108  0.1332 -0.0809 -0.2004
74968W        W17959  21.346  22.172  24.019 -0.3775 -0.0495  0.1076
74969W        W17960  19.723  18.518  14.710 -0.1337  0.4080 -0.0805
74970W        W17961   4.711  32.243   3.031  0.2950 -0.2059  0.0852
74971W        W17962   5.599  31.302   3.600 -0.0435 -0.1752 -0.0772
74972W        W17963  11.518  28.593   9.474 -0.1575 -0.1318 -0.1854
74973W        W17964  32.945  29.928  27.398  0.0047 -0.0703  0.0293
74974W        W17965   8.451  22.348   7.100  0.0103  0.1023 -0.4442
74975W        W17966  14.958   6.745   8.752 -0.0112  0.0707 -0.1955
74976W        W17967  34.345  25.955   6.335 -0.0026  0.1198  0.0512
74977W        W17968   3.556  30.866   7.465  0.2137  0.1528 -0.0979
74978W        W17969   8.099  27.784   7.866 -0.0020 -0.1551 -0.0871
74979W        W17970   8.826  31.401  21.247  0.0572  0.1125 -0.0705
74980W        W17971   0.864  30.966  26.326  0.0532  0.2178  0.2656
74981W        W17972   1.534   3.444  15.439 -0.0346 -0.1285  0.0378
74982W        W17973   8.541  33.849   3.948 -0.0022 -0.2627  0.1959
74983W        W17974  12.258  12.039   2.629  0.1222  0.0182  0.2982
74984W        W17975  24.548   7.489  23.789  0.0378 -0.0514  0.0775
74985W        W17976   1.072  31.469  16.293  0.0246  0.0713 -0.2023
74986W        W17977   9.474  29.221   7.186  0.2741  0.1865  0.2714
74987W        W17978  10.469  32.464  25.805 -0.0521  0.0420 -0.1346
74988W        W17979   1.871   3.029  28.922 -0.0826 -0.1187  0.0005
74989W        W17980  23.091  20.172   3.161 -0.1603  0.2925 -0.3386
74990W        W17981   9.111  31.498  26.037 -0.1064 -0.0387  0.0912
74991W        W17982  29.753  21.464  22.628 -0.0639 -0.0358  0.1750
74992W        W17983  18.195  34.388  24.419  0.1584 -0.0129 -0.2420
74993W        W17984   4.918   0.607  26.865 -0.1090 -0.2919  0.0476
74994W        W17985   6.237  25.518   3.470  0.1646 -0.0664  0.2373
74995W        W17986  25.005  30.852   2.503 -0.0833 -0.1610 -0.2034
74996W        W17987   1.791  31.687  14.508  0.1788 -0.0832 -0.0419
74997W        W17988  33.873   5.403   4.383  0.2598 -0.1524 -0.0334
74998W        W17989   8.799  25.475   4.952  0.0625  0.1920  0.2016
74999W        W17990   6.978  19.177  25.492  0.1678  0.0900  0.3607
75000W        W17991   7.617  30.108  23.082  0.1337  0.0219 -0.0538
75001W        W17992  33.532   1.270  21.616  0.1048 -0.1002 -0.0931
75002W        W17993   7.339  31.270  22.609  0.1767  0.2016  0.0921
75003W        W17994  33.987  25.715   2.583 -0.2206  0.1303 -0.0346
75004W        W17995   4.306  30.331  16.162 -0.0462  0.1355  0.1253
75005W        W17996   2.783   1.969   6.960 -0.1305  0.1176  0.2383
75006W        W17997   8.945  19.006  25.154  0.1950  0.2665  0.3339
75007W        W17998  12.358  31.023  10.370 -0.3363  0.1608 -0.2132
75008W        W17999   4.097  28.274  24.951 -0.2349 -0.0527  0.2050
75009W        W18000   0.917  14.049   5.435  0.0623 -0.1467  0.0313
75010W        W18001  23.662   9.411   6.729  0.3514  0.2523  0.1521
75011W        W18002  11.671  10.355   2.546  0.1611  0.1579 -0.0055
75012W        W18003   6.043  16.608   4.558 -0.0950  0.0303 -0.0881
75013W        W18004   7.466  33.417   5.174  0.2781  0.0322  0.0975
75014W        W18005   4.339   5.601  27.358 -0.3229 -0.1406 -0.3079
75015W        W18006   5.208   3.865   3.316 -0.3126  0.2998  0.1932
75016W        W18007  31.526  12.035  10.229  0.1761  0.0459  0.1047
75017W        W18008  31.533  13.912  17.225  0.3805  0.0387  0.2245
75018W        W18009   2.794   2.217  27.431  0.0528 -0.2853 -0.0901
75019W        W18010   5.521  31.135   5.112 -0.0200 -0.0154 -0.2601
75020W        W18011   2.223  32.447   7.778  0.0252  0.1751 -0.1738
75021W        W18012   3.073  32.512   9.147  0.1696 -0.3169 -0.0920
75022W        W18013  10.780  28.517   4.561 -0.1410  0.0415 -0.4937
75023W        W18014  10.774   9.715   1.368 -0.0282  0.0948 -0.1876
75024W        W18015  26.662   6.410   2.402  0.1971 -0.0001 -0.2689
75025W        W18016  24.973  24.542   3.552  0.0407 -0.4275  0.0264
75026W        W18017  25.477  33.831   3.242 -0.3279  0.2316 -0.3553
75027W        W18018  32.412   1.764   5.277  0.1280  0.1563  0.0586
75028W        W18019  27.076  34.203   8.664 -0.2440  0.0196 -0.1454
75029W        W18020  15.645  21.427   8.642  0.0313 -0.2934 -0.1850
75030W        W18021  22.890  14.874   3.444 -0.0949  0.0442 -0.1852
75031W        W18022  14.821  26.984   8.445 -0.0261  0.1788 -0.1389
75032W        W18023  11.533  24.841   7.961  0.1647  0.3825 -0.0438
75033W        W18024   6.891  25.244  14.105 -0.2868  0.1917  0.0879
75034W        W18025   3.420  27.634  10.298 -0.1804  0.0269 -0.2744
75035W        W18026  29.417  12.602   9.907 -0.0093 -0.0777  0.1407
75036W        W18027  32.858  12.055   4.021 -0.0958  0.0889  0.1354
75037W        W18028   2.378  21.140   9.275 -0.0199 -0.0072  0.4065
75038W        W18029  22.326  21.385  18.626  0.1956 -0.0454 -0.0410
75039W        W18030  27.620  18.642   1.835 -0.0414 -0.2891 -0.2565
75040W        W18031  24.998  33.604   6.999  0.4371 -0.2152 -0.1244
75041W        W18032  31.262  24.056   5.137  0.0266  0.1188 -0.2896
75042W        W18033   0.587  28.443  27.782 -0.1688  0.2340 -0.0135
75043W        W18034  32.542   1.893   8.591 -0.1619  0.0254  0.1300
75044W        W18035   7.364   2.118  10.640 -0.3232 -0.2714  0.2163
75045W        W18036  33.683   8.027  26.812  0.3171 -0.1201  0.4886
75046W        W18037  13.270  16.777  23.746  0.3204 -0.2991 -0.1426
75047W        W18038  26.613  23.812  16.456  0.1074 -0.0373  0.0623
75048W        W18039  13.778   3.384   3.681  0.2367  0.3321 -0.2699
75049W        W18040   3.769  30.160  26.141  0.3541  0.4949 -0.1045
75050W        W18041   4.692  14.671   2.014  0.1628  0.2382  0.3820
75051W        W18042  12.333  32.189  10.387 -0.1067 -0.1398  0.2644
75052W        W18043  16.824  27.019   4.503  0.0481  0.0289 -0.2174
75053W        W18044  29.780  22.695   0.737  0.0434  0.1284 -0.2368
75054W        W18045  24.891   4.207   1.317  0.0302 -0.1805 -0.1399
75055W        W18046   3.014   7.242  27.920 -0.2537  0.0817  0.1259
75056W        W18047  31.036  32.780   2.215  0.0061 -0.0350 -0.0036
75057W        W18048  34.196  27.771   9.375  0.0813 -0.0009 -0.1943
75058W        W18049   5.092  13.920   0.537  0.0197 -0.0852 -0.0146
75059W        W18050   8.219  20.809   7.738 -0.1510  0.1318  0.0159
75060W        W18051   8.650  28.237   3.312 -0.0416 -0.0958 -0.2008
75061W        W18052   2.071  29.120   9.586  0.0313  0.2047 -0.0160
75062W        W18053   2.848  27.659  15.965 -0.1600  0.4056 -0.0870
75063W        W18054  13.023  32.981   8.440 -0.1001 -0.1588  0.1549
75064W        W18055  11.495  26.438   8.022 -0.3392  0.2840  0.3630
75065W        W18056  13.843  14.320  24.104 -0.1554  0.0871  0.4699
75066W        W18057  10.329  31.998  10.510  0.1003  0.0800  0.3245
75067W        W18058  16.409  22.863  27.085 -0.0885 -0.0732 -0.0204
75068W        W18059  13.248   3.466   2.241  0.1130  0.0200  0.0443
75069W        W18060  31.986  32.502  23.437 -0.0336  0.1445 -0.0949
75070W        W18061   5.288  12.665   2.704 -0.0579 -0.1188 -0.0425
75071W        W18062   1.034   7.630   0.323  0.1700  0.0204 -0.1493
75072W        W18063   1.982   5.003  25.744  0.0954 -0.3940 -0.2566
75073W        W18064   4.289  25.187  27.592  0.3944  0.0927  0.5030
75074W        W18065  12.934  13.661   7.487 -0.2921  0.0549 -0.0720
75075W        W18066  11.762  10.706  18.658 -0.2368  0.2159 -0.1749
75076W        W18067   2.788   3.003  17.577 -0.1794  0.0880  0.3094
75077W        W18068  13.952  27.364  29.060  0.1772  0.1385 -0.1777
75078W        W18069   9.708  27.256   6.243 -0.3263 -0.1685 -0.0625
75079W        W18070  25.580  30.484   5.644 -0.2120  0.1351  0.1765
75080W        W18071  19.883  25.475  27.298  0.4278 -0.1203 -0.0119
75081W        W18072   4.848  34.587   5.639 -0.1906 -0.1857 -0.1444
75082W        W18073  31.369  11.338   5.364  0.3034 -0.1515 -0.1613
75083W        W18074  23.119  22.486   5.611 -0.1804 -0.1749 -0.1007
75084W        W18075  24.110  33.023  27.294 -0.1627 -0.2290 -0.0223
75085W        W18076   3.131   3.558  22.400  0.2310 -0.2106 -0.0432
75086W        W18077  14.467  31.762   1.833  0.1945  0.0663 -0.2594
75087W        W18078  24.568  28.266   2.872 -0.4924 -0.2988 -0.4164
75088W        W18079  28.619  33.384  17.662  0.0863 -0.2358  0.1780
75089W        W18080  29.180   9.088  17.610  0.2062 -0.1221  0.2323
75090W        W18081  32.310  34.073  14.883 -0.2516  0.1609 -0.3927
75091W        W18082  10.921  28.894  21.765  0.0103  0.0523  0.3900
75092W        W18083   0.070   4.710  29.231  0.0996 -0.0507 -0.0866
75093W        W18084  31.515  12.634  24.832 -0.0328 -0.0148  0.0675
75094W        W18085   6.555   1.448  25.507  0.0636  0.0887  0.1109
75095W        W18086   9.621  30.710  28.678 -0.0696 -0.0610 -0.1847
75096W        W18087  34.103  29.697  26.368  0.1277  0.2352  0.2151
75097W        W18088   0.334  10.226   3.874 -0.0955 -0.1707  0.1549
75098W        W18089  29.334   2.140   5.022 -0.1357  0.0148 -0.5906
75099W        W18090   8.844   2.356  10.075  0.0629  0.1245  0.3260
75100W        W18091  11.500  30.164   6.598 -0.2213 -0.0943 -0.1977
75101W        W18092  19.594   3.679  28.663 -0.1362 -0.1756 -0.3583
75102W        W18093   7.369   8.963  18.018 -0.2674 -0.1553 -0.2345
75103W        W18094   6.236   4.265  26.248  0.0043 -0.2790  0.2051
75104W        W18095   8.575  27.327  18.516  0.1904  0.2916  0.0364
75105W        W18096  32.326  25.099  20.480  0.3028 -0.3434 -0.3342
75106W        W18097   2.767   6.382   8.632 -0.1012  0.0331 -0.0459
75107W        W18098  33.483  30.273   0.616  0.5308  0.2492 -0.1949
75108W        W18099   6.455  20.792  28.672  0.1870  0.2725 -0.0929
75109W        W18100   3.036  31.018   6.867  0.1135 -0.0572 -0.0329
75110W        W18101   9.420  13.993  25.482  0.4155  0.1066  0.1154
75111W        W18102   4.393   4.226  24.130 -0.2441 -0.1172 -0.1677
75112W        W18103   1.324  27.651  26.756 -0.0713  0.0893  0.0959
75113W        W18104   6.859  23.634  18.330 -0.4042 -0.1127  0.1053
75114W        W18105  31.472  34.144   7.171  0.1240  0.0199 -0.1019
75115W        W18106   5.139  27.158   4.082 -0.1193  0.1170 -0.0433
75116W        W18107  33.811  21.424   6.341  0.2658 -0.1180  0.1288
75117W        W18108   5.210  22.886   4.055  0.0120  0.0436  0.3589
75118W        W18109  32.868  22.500   7.295 -0.2224 -0.0021  0.0310
75119W        W18110  30.772  18.953   6.452 -0.0839 -0.4092 -0.2627
75120W        W18111  17.834  27.842   0.283 -0.1233  0.0948  0.3987
75121W        W18112   4.525  25.785   2.997 -0.2235  0.0760 -0.2972
75122W        W18113  15.688  12.466   4.563  0.1875 -0.0276 -0.1124
75123W        W18114  24.548   3.474   6.772  0.0439  0.0143  0.0454
75124W        W18115  25.078   5.007  20.474  0.3597 -0.0039 -0.3779
75125W        W18116  17.557  25.084  29.062 -0.0442 -0.3394  0.0337
75126W        W18117   0.810  29.345   8.815  0.0940  0.0857 -0.2897
75127W        W18118   4.991  26.591   4.416  0.0747 -0.1699 -0.0423
75128W        W18119  14.243  29.763   0.987 -0.0925 -0.2646  0.2065
75129W        W18120   5.795  20.779  22.891 -0.1767 -0.1992 -0.0190
75130W        W18121   7.442  10.872  19.579 -0.2587  0.1862  0.0422
75131W        W18122   1.322   2.174  25.204  0.3292 -0.0099  0.1147
75132W        W18123  29.383  13.739  29.207 -0.0384 -0.1788  0.2293
75133W        W18124  11.893  26.795  19.596 -0.3497  0.1207  0.0769
75134W        W18125   6.668  34.299  16.299 -0.0417 -0.0466  0.0303
75135W        W18126   7.910   5.784   6.118  0.0967 -0.1836  0.0778
75136W        W18127  10.431  27.498   2.827 -0.3308  0.0329  0.2827
75137W        W18128  12.192  19.908   2.440 -0.1335  0.0020  0.1441
75138W        W18129   5.637  21.968  21.930 -0.1112 -0.2036 -0.0079
75139W        W18130  20.318  26.040  17.719  0.1375  0.1134 -0.0722
75140W        W18131  20.409   4.084   6.212  0.0244  0.0616 -0.3256
75141W        W18132   4.214  34.190  25.761 -0.0181  0.0067 -0.0786
75142W        W18133   8.925  21.439   2.467 -0.3454 -0.0312  0.1144
75143W        W18134   4.964  27.502  15.813  0.3765  0.2126 -0.0351
75144W        W18135  22.570   1.519  29.034 -0.1267  0.1836  0.6260
75145W        W18136   4.588  28.897  15.903  0.3339 -0.0119  0.2346
75146W        W18137  30.233  28.923  19.776  0.2249  0.1664 -0.1449
75147W        W18138  34.273  13.551  23.749 -0.2503  0.2168 -0.0900
75148W        W18139  23.931  32.918   8.785  0.0913  0.0191  0.0092
75149W        W18140   9.579  30.289  17.431  0.1525 -0.0897 -0.0417
75150W        W18141  19.898  26.911  23.994 -0.0214  0.0345 -0.0312
75151W        W18142   7.323  24.015   6.350  0.1320 -0.1265 -0.1302
75152W        W18143  32.779   1.992   1.766 -0.1673 -0.3079 -0.0939
75153W        W18144  23.553  23.203  23.950  0.0890  0.2697  0.1271
75154W        W18145   8.398  28.015   2.043  0.1053 -0.0033  0.0130
75155W        W18146   2.850  28.082  29.223  0.3630 -0.1746 -0.1477
75156W        W18147   6.878  29.160  25.943 -0.0273 -0.1727  0.0584
75157W        W18148   6.677   5.190   7.740  0.1079 -0.1749 -0.3443
75158W        W18149  12.181  27.124   0.058  0.1312  0.0167 -0.0517
75159W        W18150   8.494  33.223   4.700 -0.5573  0.1158  0.0423
75160W        W18151   3.967  29.770  28.591  0.1173 -0.0051  0.0087
75161W        W18152  19.330  26.971  25.440  0.1639 -0.3115 -0.1638
75162W        W18153  28.834   6.274  27.724  0.1189 -0.0262  0.1044
75163W        W18154  33.436  14.188  19.270 -0.0196 -0.4654  0.0566
75164W        W18155   0.853  16.815   1.396  0.0701 -0.2579  0.0179
75165W        W18156  33.514  32.625   4.024 -0.1508 -0.1925  0.2548
75166W        W18157   1.646  32.243   4.418  0.1001  0.0253  0.1051
75167W        W18158  17.144  13.181  25.333  0.0569  0.0274 -0.3659
75168W        W18159  30.805  18.776  25.533  0.0507  0.0665  0.0549
75169W        W18160   8.079   2.321   2.205  0.0178  0.1884  0.2649
75170W        W18161   8.909  23.168  25.403 -0.1416  0.0128  0.0700
75171W        W18162  15.026   2.024   7.458  0.0079  0.0123  0.0623
75172W        W18163   6.611  29.398   5.226  0.2865 -0.2150  0.0685
75173W        W18164  11.392  18.958   8.381  0.2959 -0.0592 -0.0051
75174W        W18165  20.450   4.522  28.395  0.1137 -0.0317  0.2071
75175W        W18166   8.132   3.459   5.093 -0.2631 -0.0476 -0.2010
75176W        W18167   4.327  32.990   5.919  0.1875 -0.1691  0.1426
75177W        W18168  30.884  16.391   2.118 -0.2089 -0.1045  0.2557
75178W        W18169  17.669  32.517  27.966 -0.0793 -0.1162  0.3793
75179W        W18170   8.904  23.049  25.986 -0.0217  0.1085  0.2119
75180W        W18171  27.211   6.967  22.951 -0.2829  0.0106  0.1923
75181W        W18172  11.279  20.688  23.653  0.0109 -0.1548  0.2778
75182W        W18173   1.405  28.007  15.792 -0.0199  0.1027 -0.0921
75183W        W18174  28.941   9.480   3.615 -0.1035 -0.0681  0.1503
75184W        W18175  25.603   8.831   7.389  0.1182  0.1385 -0.0573
75185W        W18176   9.164  33.221  22.154  0.0925 -0.2704 -0.0683
75186W        W18177   0.520  23.304  28.625  0.1635  0.0149 -0.3714
75187W        W18178  14.617   4.873   6.732 -0.1960 -0.1159 -0.0448
75188W        W18179   2.374  18.596  17.093  0.3956  0.1923  0.0721
75189W        W18180   4.254  24.773  20.660  0.2222  0.0432 -0.0157
75190W        W18181  32.951  31.261  25.657  0.1557 -0.2520  0.0812
75191W        W18182   8.082   0.067  28.400  0.3598  0.0876  0.0441
75192W        W18183  12.209  31.540   9.639  0.0511  0.0468 -0.0924
75193W        W18184   3.391  26.867  14.967  0.0288 -0.0363  0.1437
75194W        W18185  28.717  23.988  14.251 -0.2990 -0.0037  0.2792
75195W        W18186  15.207  23.662  23.015 -0.0077  0.3651  0.1661
75196W        W18187  13.437  30.622   2.332  0.1748  0.0769 -0.1110
75197W        W18188  14.449  28.155  24.701 -0.1233 -0.0948 -0.1578
75198W        W18189   7.331   1.044   1.210 -0.3612  0.2296  0.0472
75199W        W18190  17.790  18.898  15.615 -0.0230  0.2481 -0.1063
75200W        W18191   3.081   3.732   0.997 -0.1379  0.2634 -0.0110
75201W        W18192   7.499  29.122   0.829  0.0796 -0.1815 -0.2341
75202W        W18193   2.020   2.543   5.984  0.0670  0.1703 -0.3183
75203W        W18194  22.995  26.139  16.451 -0.1037 -0.2133  0.1685
75204W        W18195   3.630  30.656  26.227 -0.1777  0.0674 -0.0956
75205W        W18196  13.290  26.578  26.474 -0.0194  0.0351  0.2867
75206W        W18197   7.603   5.712   9.995 -0.3536  0.1815 -0.3284
75207W        W18198  32.454  23.551   8.187 -0.0242  0.1223 -0.0490
75208W        W18199   3.527  24.668  20.160  0.1138 -0.1626 -0.2846
75209W        W18200  13.940  23.204   5.115  0.1675 -0.0425 -0.2036
75210W        W18201  34.175   3.909  22.224 -0.1699  0.0480 -0.0574
75211W        W18202   9.571  25.875  27.216  0.3377 -0.0199  0.0843
75212W        W18203   3.292  30.673   9.812 -0.1002  0.0229 -0.0037
75213W        W18204  12.260   6.378   1.511  0.1396  0.0780 -0.3238
75214W        W18205   4.110   2.850  26.187  0.1439  0.0928 -0.0645
75215W        W18206  13.516  26.952   1.145 -0.2187 -0.2037 -0.0637
75216W        W18207  29.922   2.109  18.837  0.0714 -0.0147  0.3844
75217W        W18208  34.075  34.071   2.884  0.1693  0.0607 -0.1927
75218W        W18209  13.994  31.790   9.650 -0.1937 -0.5645  0.0038
75219W        W18210   8.554  30.262   2.547  0.1081  0.3244 -0.2866
75220W        W18211  12.802  16.852  24.365  0.0032  0.0582  0.2040
75221W        W18212  24.826  33.528  23.385  0.1276  0.2502 -0.3374
75222W        W18213  12.407   9.583   4.485 -0.0700 -0.1886  0.2644
75223W        W18214  24.120  11.938   3.384 -0.0129 -0.0512 -0.3001
75224W        W18215   1.538  29.337  13.967 -0.0012 -0.0797 -0.1739
75225W        W18216   6.029  31.299   8.600 -0.1210 -0.3612 -0.1668
75226W        W18217  20.977  28.916   2.385 -0.0777 -0.2437 -0.0679
75227W        W18218  11.252  32.478   1.429 -0.1140 -0.1828  0.2012
75228W        W18219  30.285   6.111   8.244 -0.2014  0.1304  0.2389
75229W        W18220  31.906  29.586   5.625  0.3814 -0.2591  0.1734
75230W        W18221   2.589  27.483  27.144 -0.2100  0.0816 -0.2970
75231W        W18222   6.645  30.818   4.018 -0.2754 -0.1370  0.1321
75232W        W18223  10.825  28.181  20.126 -0.0545  0.2937  0.2310
75233W        W18224   4.415  34.702   7.901  0.1652 -0.1294 -0.3270
75234W        W18225  28.679  31.469   3.223  0.3073  0.0135  0.0788
75235W        W18226  13.810  29.409  18.410  0.2675 -0.0906  0.1106
75236W        W18227   0.216  31.537  28.182 -0.1003 -0.0645  0.0556
75237W        W18228  24.983   2.303   4.942 -0.0733  0.1410 -0.0846
75238W        W18229   5.181  28.255  17.831  0.2038 -0.1696 -0.3921
75239W        W18230  32.680   3.145  21.165  0.0466 -0.2203  0.1272
75240W        W18231   4.735   7.165   0.067  0.1798  0.1853  0.1253
75241W        W18232   4.967  32.580   3.473  0.0003  0.0641  0.1368
75242W        W18233   6.609  29.714  22.428  0.1763  0.2367  0.0486
75243W        W18234  20.679  18.352  16.541 -0.0828  0.1483 -0.2531
75244W        W18235  15.974   1.775   6.483 -0.1809  0.1756 -0.1579
75245W        W18236   5.175  19.147  22.752  0.0322 -0.1795 -0.0411
75246W        W18237  12.375  30.372   6.200 -0.1548 -0.0346 -0.3830
75247W        W18238  33.067   5.147   4.006  0.0850 -0.0972  0.1518
75248W        W18239  33.051  21.627   4.282 -0.0985 -0.2678  0.2283
75249W        W18240  10.882  30.688   7.368  0.0175  0.0934  0.0115
75250W        W18241  28.177   0.353  22.194  0.1022  0.0632 -0.0947
75251W        W18242   6.891  26.956  21.248 -0.3845 -0.1203 -0.1793
75252W        W18243  17.602  28.062   4.831  0.1744  0.0677  0.1965
75253W        W18244  16.844   1.745   7.466 -0.0612 -0.1352  0.3517
75254W        W18245   3.555  22.196  21.053  0.0543  0.1018 -0.2375
75255W        W18246  23.612  19.882   0.421  0.1369  0.0127 -0.1641
75256W        W18247   0.840  19.731   3.188  0.0006 -0.2036 -0.0981
75257W        W18248   8.575  30.331   2.069 -0.2495  0.0919  0.1654
75258W        W18249  27.447  30.633  26.676 -0.0069  0.1830 -0.2750
75259W        W18250  31.803   3.116   4.778 -0.1041  0.0746  0.0015
75260W        W18251  23.891  21.236   8.852  0.0382  0.2676 -0.3243
75261W        W18252  10.050  24.957   4.827  0.0161 -0.2194  0.0812
75262W        W18253  31.604  24.240   1.837 -0.0352  0.0520  0.1504
75263W        W18254  34.444  31.168   5.954 -0.0573  0.1207  0.1518
75264W        W18255   5.132  21.623  10.055  0.1239 -0.1648  0.1339
75265W        W18256   6.845  28.211   1.916 -0.4338 -0.1536  0.2172
75266W        W18257   6.439  22.188  28.141  0.1251 -0.4147 -0.1989
75267W        W18258   0.459  26.662   8.939  0.0971  0.1719  0.1485
75268W        W18259  32.486   4.724  14.811  0.0728  0.3293  0.2295
75269W        W18260  18.910  16.363   8.479  0.1352  0.2271 -0.0168
75270W        W18261   2.203   6.480  27.265  0.2297 -0.0040 -0.0979
75271W        W18262   9.552  14.400  28.719  0.1700  0.2005 -0.0059
75272W        W18263  17.532  25.866   4.857  0.0302  0.0253 -0.0127
75273W        W18264  14.790  29.770   4.736 -0.2001  0.3869 -0.1901
75274W        W18265  34.173  15.537   3.102  0.1309  0.1962  0.0845
75275W        W18266   1.145   3.708   0.787 -0.2314  0.0402  0.1754
75276W        W18267   6.924  28.531   7.849  0.0119 -0.3539  0.0852
75277W        W18268  33.678  34.423  18.756 -0.3343  0.0629 -0.0258
75278W        W18269   0.387  29.767   1.851  0.0056 -0.0884  0.2214
75279W        W18270  33.764  21.608   7.262  0.0641 -0.1819  0.2178
75280W        W18271   0.596   0.366  17.548 -0.1945  0.1082 -0.2419
75281W        W18272  26.253   4.314   4.682  0.0751  0.0833 -0.0971
75282W        W18273   1.083  33.500  28.475 -0.1098 -0.0183 -0.1095
75283W        W18274  12.358   6.917   2.305  0.0020  0.3400 -0.1399
75284W        W18275  11.110  29.140   5.352 -0.1428 -0.0866  0.0125
75285W        W18276   3.663  26.269   9.093  0.1105  0.2872 -0.3002
75286W        W18277  31.495  29.394   9.459 -0.1305 -0.3811  0.0798
75287W        W18278  27.107   7.315   5.498  0.1550 -0.2063 -0.0709
75288W        W18279  13.159  31.915  17.698  0.0132 -0.0713  0.1234
75289W        W18280  13.787  26.755   5.595  0.0458 -0.2177  0.1423
75290W        W18281   1.646  20.389  24.866  0.0899  0.1563 -0.0962
75291W        W18282   4.868  31.948   8.074 -0.2282 -0.3194  0.0207
75292W        W18283   6.179  25.511   8.043  0.0287  0.1551 -0.1626
75293W        W18284   9.123  28.833   3.052 -0.1193 -0.5344  0.1551
75294W        W18285  31.177  16.393  15.454 -0.0452  0.1972 -0.1179
75295W        W18286   6.620   1.314   1.283  0.1442 -0.1767 -0.1004
75296W        W18287  12.441   4.609   1.751 -0.2602  0.1988  0.0120
75297W        W18288   1.581   3.993   5.508  0.3257 -0.0832  0.0192
75298W        W18289  34.498  13.994  25.841 -0.0174 -0.1306  0.0692
75299W        W18290  32.250  32.234   5.571 -0.1952 -0.1677 -0.0357
75300W        W18291   4.894   2.461  10.116 -0.1290 -0.0701 -0.0224
75301W        W18292   7.568   6.695  29.169 -0.0154  0.0878  0.2393
75302W        W18293  10.202  33.008   2.991 -0.0959 -0.0331  0.1612
75303W        W18294   9.059  24.078   3.396  0.0829 -0.0618  0.0565
75304W        W18295  32.369   1.544   8.888  0.0587 -0.1538 -0.0993
75305W        W18296   6.898   7.032  10.490 -0.2341 -0.1099  0.0158
75306W        W18297   0.523  30.544   9.104  0.0089 -0.3805 -0.2162
75307W        W18298   7.911   9.469   9.076 -0.3085 -0.0009  0.0299
75308W        W18299   8.101  27.963  19.556  0.0023  0.0242 -0.0364
75309W        W18300  20.954  16.735   6.135 -0.1197  0.0027  0.0714
75310W        W18301  13.080   0.174   9.995  0.1638  0.2446 -0.1523
75311W        W18302   6.486  14.695  22.110  0.4445  0.0938 -0.1204
75312W        W18303   9.555  26.923   0.966 -0.1883  0.1567 -0.1536
75313W        W18304  28.432  33.426   0.678 -0.0827 -0.3843  0.1312
75314W        W18305  31.291  25.695   6.613 -0.0039  0.0387 -0.2328
75315W        W18306   4.047  27.366   6.468 -0.0729 -0.0911  0.2233
75316W        W18307   8.153  24.664  25.877 -0.0224  0.0051  0.0067
75317W        W18308  29.823  28.297   6.153 -0.0202  0.0521  0.0996
75318W        W18309  11.063  32.191  27.570 -0.0813 -0.2425  0.1231
75319W        W18310   0.606  27.777   6.076 -0.2064  0.0839 -0.1885
75320W        W18311  10.425  25.594   9.141 -0.0043  0.2916 -0.1752
75321W        W18312  25.770  24.403  22.192  0.1471  0.1659  0.1652
75322W        W18313  10.831  24.707  23.044  0.0456 -0.2025  0.2449
75323W        W18314  28.097  27.149  15.974  0.1224 -0.0705  0.2013
75324W        W18315  29.959  14.525   3.378 -0.2043 -0.0816 -0.2197
75325W        W18316  11.509   1.063   3.479 -0.1478 -0.0646  0.0794
75326W        W18317  32.653  33.293  27.389  0.6596  0.1871 -0.0148
75327W        W18318  14.745  29.802   0.038 -0.1876  0.2002 -0.1015
75328W        W18319  11.601   3.783   0.229  0.0007 -0.0848  0.0286
75329W        W18320   3.758  27.108   4.012 -0.1110 -0.2769 -0.1652
75330W        W18321  34.706  10.790  27.003 -0.0902  0.0050 -0.2784
75331W        W18322   1.236  31.764   0.268 -0.1869  0.0271 -0.0687
75332W        W18323   9.771  27.327   0.362 -0.2850 -0.2891  0.2789
75333W        W18324   4.690   7.840  29.245  0.1413  0.0647 -0.0945
75334W        W18325  34.059  31.084  10.219 -0.0719 -0.3881 -0.0023
75335W        W18326  11.647  30.017  20.498 -0.1742  0.0234 -0.2523
75336W        W18327  10.495  29.318  15.074 -0.4360  0.4389 -0.0065
75337W        W18328   7.608  11.837   1.498  0.0994  0.1838  0.3047
75338W        W18329  11.000  16.649   0.647  0.0100  0.1457 -0.2726
75339W        W18330  33.808   1.126   7.167 -0.3772 -0.0601  0.0788
75340W        W18331  15.805   5.849  17.851 -0.0882 -0.2382 -0.0094
75341W        W18332  31.044  28.640  17.874 -0.4507 -0.1759  0.1675
75342W        W18333   5.772  34.674   7.101 -0.1983 -0.1416  0.0123
75343W        W18334   4.039   5.356   0.736  0.0981 -0.1349 -0.0406
75344W        W18335   4.276   6.711  19.834  0.3400  0.0429 -0.0872
75345W        W18336   3.980   7.546  20.445  0.0361  0.0064 -0.1137
75346W        W18337  23.283  15.468   8.845  0.0010 -0.1843  0.2401
75347W        W18338  23.680  24.435   6.734 -0.4444  0.1719  0.3641
75348W        W18339   3.361   5.707   3.483  0.2842 -0.0717  0.1704
75349W        W18340  24.632  19.050   6.721  0.1170 -0.0896  0.1784
75350W        W18341   2.945   3.753   2.168  0.2923 -0.0824 -0.0027
75351W        W18342   4.900  28.180  24.186  0.1265  0.0892  0.1568
75352W        W18343  12.044  30.575  28.654 -0.0113 -0.3055 -0.3128
75353W        W18344  11.607  26.208  19.557  0.3534 -0.0941  0.3215
75354W        W18345   6.783   2.156  16.516 -0.1965  0.0572 -0.1189
75355W        W18346   8.661  22.912   7.834  0.0786  0.0911  0.0255
75356W        W18347   3.393   2.314   7.333  0.3470  0.0442  0.2087
75357W        W18348   8.476   5.471  21.942  0.1442  0.2347 -0.1142
75358W        W18349  33.522  29.142  19.967 -0.1378  0.0705 -0.0424
75359W        W18350   4.843  27.002   5.361 -0.1742 -0.0846  0.3898
75360W        W18351  32.257  12.465  26.644  0.3764 -0.0838  0.0906
75361W        W18352  12.396  31.341   4.594 -0.1073 -0.1146 -0.1718
75362W        W18353   4.634  22.622   3.149  0.1722 -0.5016 -0.2418
75363W        W18354   5.013  25.346   2.799 -0.3001  0.2589  0.0287
75364W        W18355  31.143   3.743  25.080 -0.0593  0.2383 -0.0394
75365W        W18356  34.525  10.447   2.907 -0.1679 -0.1185  0.0695
75366W        W18357  11.055  27.037   5.547 -0.3074 -0.0680  0.1202
75367W        W18358   8.063  31.012   7.507  0.1073  0.0022 -0.1445
75368W        W18359  11.284  29.575   8.275  0.0637  0.3271  0.2384
75369W        W18360   9.152  27.433  22.440 -0.1951  0.3279  0.0468
75370W        W18361  11.033  28.324  25.422 -0.0261 -0.2719  0.3262
75371W        W18362  14.480   0.217  28.620 -0.2314 -0.0527  0.0840
75372W        W18363  19.760  24.429   0.079  0.3011  0.2494 -0.0725
75373W        W18364  24.981  12.100   3.333 -0.2849 -0.1004  0.0322
75374W        W18365  14.274  16.375  13.565  0.2077 -0.0225 -0.2626
75375W        W18366   1.980   5.855  21.418  0.2094 -0.1638  0.0107
75376W        W18367   2.589  13.770   4.395  0.0766  0.3799 -0.1410
75377W        W18368  33.329   0.357   2.123  0.1382  0.3072  0.0724
75378W        W18369  10.350  34.662  26.554  0.0996  0.0412 -0.2335
75379W        W18370   2.561  14.182   5.551  0.1652 -0.2750  0.2369
75380W        W18371   4.342  31.244   6.040 -0.1228  0.1222  0.1090
75381W        W18372  16.187   1.467  24.574 -0.0602 -0.2031  0.0790
75382W        W18373  12.760  11.900   7.803  0.2103 -0.1675 -0.0565
75383W        W18374   8.560  25.752   2.634 -0.0892 -0.3480  0.0052
75384W        W18375  24.030  19.313  24.016  0.0926 -0.2112  0.0140
75385W        W18376   3.492  30.084   8.319 -0.1413  0.1820  0.0751
75386W        W18377  24.257  25.424   0.680  0.1123 -0.2088  0.2672
75387W        W18378   2.539  34.427   2.538 -0.1103 -0.0278  0.2307
75388W        W18379   3.380  24.986   4.827  0.1427 -0.1616 -0.0481
75389W        W18380  17.689  33.344   1.804  0.2418  0.1097  0.1804
75390W        W18381  19.563  33.703  28.355 -0.2827 -0.2966  0.0218
75391W        W18382  26.475  33.076   6.009  0.2290 -0.0116 -0.1570
75392W        W18383  10.364  23.434  23.131  0.0206  0.1586  0.3332
75393W        W18384   8.131   3.175  18.245 -0.2992  0.1193  0.1271
75394W        W18385  19.611   5.716  17.639  0.2083  0.2290  0.0510
75395W        W18386  10.811  33.328  25.315 -0.3360  0.2746 -0.1250
75396W        W18387   9.483  28.397   1.486 -0.0328  0.1271 -0.1891
75397W        W18388  26.157  12.676   7.471 -0.3211 -0.0158 -0.2705
75398W        W18389  15.963  29.279   6.728  0.0716  0.0094 -0.1840
75399W        W18390   3.295   8.209  10.283  0.1554 -0.1747 -0.0687
75400W        W18391   2.694   4.445   8.556 -0.2563 -0.0521 -0.3536
75401W        W18392  10.857   3.701  10.131 -0.1182 -0.0111  0.0990
75402W        W18393   3.838   6.593   1.037  0.0370 -0.0263 -0.0767
75403W        W18394  23.542  26.389  19.474 -0.1990 -0.2269 -0.2100
75404W        W18395  18.958   0.674   4.554 -0.0149  0.1446  0.0436
75405W        W18396  19.736  29.991  23.161  0.2449  0.0202 -0.1254
75406W        W18397  10.736   0.516   5.154  0.0512  0.1624 -0.2349
75407W        W18398  31.329  27.232   7.264  0.1026  0.1351  0.0460
75408W        W18399   9.686  27.852   2.774  0.0244 -0.0076 -0.0949
75409W        W18400   7.737  20.996   8.021 -0.0670 -0.0956 -0.4006
75410W        W18401  15.062  33.217   6.746  0.1497 -0.0265 -0.3190
75411W        W18402  31.420  25.746  25.030  0.0534  0.1507  0.0056
75412W        W18403  15.772   0.616   2.819  0.2229 -0.2361 -0.1983
75413W        W18404   5.627  30.409  25.698 -0.0059  0.0361 -0.1918
75414W        W18405  17.917   2.766  25.995  0.1589  0.1862 -0.2895
75415W        W18406  15.820  29.831   2.444  0.0700  0.1988 -0.0732
75416W        W18407  15.538  19.765  26.950  0.2638  0.0245  0.0239
75417W        W18408  23.731  10.346   3.903  0.2927 -0.1388 -0.1668
75418W        W18409  11.660  28.646   4.776  0.1218 -0.0738  0.1725
75419W        W18410   1.341  22.783   6.206 -0.3634  0.0501  0.0767
75420W        W18411   3.594  21.120  20.820  0.1038 -0.1626 -0.1346
75421W        W18412   7.343   7.186   6.978 -0.0377 -0.1440 -0.0709
75422W        W18413  19.008  32.635  19.672  0.1225 -0.0712 -0.1315
75423W        W18414  34.650  34.452   0.662  0.3925  0.0723  0.1701
75424W        W18415  12.206   6.218  27.012 -0.1011 -0.1816  0.0227
75425W        W18416  33.984   1.006  26.497  0.1132  0.1214  0.4475
75426W        W18417  31.268  32.083  21.945 -0.4639 -0.0998 -0.0665
75427W        W18418   6.962  29.998   5.971  0.0274  0.3354  0.1343
75428W        W18419   9.369  34.606   7.700 -0.2510 -0.1159  0.0638
75429W        W18420  32.244   2.621  28.932  0.0343 -0.3224  0.1235
75430W        W18421  17.313  17.291   8.674  0.0267  0.2033  0.0329
75431W        W18422  13.395  27.772   5.545 -0.2818  0.3076  0.3666
75432W        W18423  33.160   2.939   7.366  0.0171  0.0254  0.0115
75433W        W18424   7.697  24.598  28.955  0.3772 -0.0330 -0.2384
75434W        W18425   6.227  23.136  27.035 -0.1238  0.2031  0.1330
75435W        W18426  25.430   7.955   9.255  0.1660  0.0375 -0.2790
75436W        W18427   9.917  30.357  28.413 -0.0632  0.2039 -0.3537
75437W        W18428  34.330   2.120  10.078  0.2990 -0.1610 -0.0471
75438W        W18429  10.687  28.530   9.121  0.2642 -0.0068 -0.1227
75439W        W18430   6.820   2.611   7.213 -0.2216  0.1111  0.0769
75440W        W18431  24.926   8.353   5.956  0.3477  0.2097  0.0940
75441W        W18432  10.728  32.993   2.285 -0.1165 -0.0672 -0.0114
75442W        W18433   7.704  12.236   1.967  0.2454  0.0035  0.0300
75443W        W18434  26.796  30.314   4.095 -0.1634 -0.2258  0.1407
75444W        W18435  33.320  32.824  14.560 -0.2387 -0.0887 -0.1452
75445W        W18436  12.498  13.059  23.544 -0.1922  0.0338 -0.1960
75446W        W18437  30.375  18.648   3.321  0.2522 -0.0445 -0.0325
75447W        W18438   8.144   4.331  11.129  0.1483  0.0126  0.0331
75448W        W18439  20.729  15.617   7.002 -0.1458 -0.0152 -0.0068
75449W        W18440   0.022   2.355  14.488 -0.2919  0.1270  0.1183
75450W        W18441   1.370   5.653   0.682 -0.1778  0.1731 -0.1232
75451W        W18442  12.139  23.990   8.159 -0.3164 -0.0785  0.1321
75452W        W18443   7.015  26.691  21.761  0.0426 -0.0179  0.3762
75453W        W18444  17.711  19.843  23.274 -0.0032 -0.1795 -0.0646
75454W        W18445   1.233   9.430   5.295 -0.1150  0.2473 -0.0487
75455W        W18446  15.781   6.255   5.776  0.4018 -0.1930 -0.3531
75456W        W18447   6.165  20.892  19.480  0.0367 -0.0916  0.2340
75457W        W18448  16.518  28.885   8.306  0.1312 -0.3706 -0.3276
75458W        W18449  22.656   4.413  28.812 -0.0315  0.3540 -0.1074
75459W        W18450  17.727  26.002  27.074  0.0273 -0.0188  0.1722
75460W        W18451   7.654  25.883  26.824 -0.2308 -0.2416 -0.1745
75461W        W18452  21.167  33.776   3.068 -0.0433 -0.0452  0.1720
75462W        W18453   7.517  26.093   7.609  0.2371 -0.0868 -0.0542
75463W        W18454  28.524  29.452   1.795  0.1237 -0.1710 -0.1619
75464W        W18455  12.219  20.379   0.029 -0.1908 -0.0128  0.2297
75465W        W18456   4.471   8.653  25.440 -0.1361  0.3903 -0.0105
75466W        W18457  10.941   8.429  10.984  0.1188  0.4805  0.1905
75467W        W18458   3.838   3.827   4.458  0.2726 -0.1212 -0.1378
75468W        W18459  16.613   3.894   7.260 -0.1943 -0.0220  0.0472
75469W        W18460   9.238  24.451   5.015 -0.0094  0.1397  0.3649
75470W        W18461  18.539  12.513  15.255 -0.3537 -0.3160  0.0453
75471W        W18462   8.077  20.930   8.443  0.0281 -0.1229 -0.0515
75472W        W18463  23.902  11.308   4.690  0.4647 -0.2806  0.0792
75473W        W18464  33.725   2.226   2.971 -0.0846 -0.0994 -0.0855
75474W        W18465   2.101  14.209  24.938  0.0330  0.0594 -0.1493
75475W        W18466  13.755   6.752  10.862 -0.1778  0.1475 -0.3096
75476W        W18467   3.605  32.533   4.135 -0.0899 -0.0835  0.0219
75477W        W18468  32.423  20.980   5.083 -0.1266  0.0722  0.0888
75478W        W18469   6.981  33.549   6.494 -0.0677  0.2316  0.3126
75479W        W18470   6.719  34.621   5.171 -0.0306 -0.1362  0.3057
75480W        W18471  19.722  20.678   6.266  0.1509 -0.3065  0.1652
75481W        W18472   4.684  33.747   0.881 -0.3826 -0.2300 -0.2302
75482W        W18473  24.094  21.921  14.899 -0.0845 -0.0124  0.0554
75483W        W18474  22.242   1.143   9.227 -0.1354  0.2977 -0.0234
75484W        W18475  34.087  34.518   6.573 -0.1322  0.2110 -0.0320
75485W        W18476   8.781  21.545  28.702  0.2142 -0.1398 -0.2189
75486W        W18477  18.152  28.224  23.412  0.1297  0.1832 -0.3090
75487W        W18478  32.078  18.652  27.099 -0.0129 -0.0965  0.0565
75488W        W18479   2.364  19.611   0.625 -0.2272  0.0176 -0.2302
75489W        W18480  17.690  23.626  28.774 -0.1467 -0.1607  0.3966
75490W        W18481  11.540   4.842  26.323  0.2896  0.0356 -0.1018
75491W        W18482  10.139  14.907   5.586 -0.1145 -0.1497 -0.1115
75492W        W18483  31.552  24.123  15.066  0.5607 -0.3047 -0.4584
75493W        W18484  15.910   0.909   1.346 -0.0297  0.0489 -0.0970
75494W        W18485  31.073  19.065   5.981 -0.1447  0.3201  0.0348
75495W        W18486   6.491  30.686   8.113 -0.2389  0.3796 -0.0778
75496W        W18487  19.146  31.066   8.121 -0.2218  0.2158  0.0394
75497W        W18488  29.419  31.229  26.682  0.1018  0.0998  0.0281
75498W        W18489  33.234  29.752  25.748  0.1494  0.0202 -0.0731
75499W        W18490   6.984  30.541   8.456 -0.0351 -0.2349  0.0425
75500W        W18491  15.696  16.567   5.968 -0.2462  0.1002 -0.2055
75501W        W18492   7.932  33.660  28.508  0.0599 -0.1046 -0.1781
75502W        W18493   3.573   4.695   7.257 -0.0632  0.0677  0.1680
75503W        W18494  14.856   1.687   8.472  0.4112  0.0498  0.0716
75504W        W18495  14.420   4.272  22.650  0.1855 -0.0301 -0.0707
75505W        W18496  10.984  26.451   6.089 -0.3474  0.2883  0.0459
75506W        W18497  21.665  12.969  29.097 -0.2334 -0.0961  0.0582
75507W        W18498   6.003  22.248   7.342  0.3291 -0.0822  0.0434
75508W        W18499  32.263  24.705   4.413 -0.0096  0.2585 -0.2571
75509W        W18500  21.553  15.159   6.659  0.0575 -0.2450  0.1432
75510W        W18501   8.360   3.255  28.864  0.1369  0.0020  0.0094
75511W        W18502  19.592  23.671  28.054  0.0137 -0.1202 -0.2143
75512W        W18503  19.324  31.448  25.439 -0.0546 -0.1445  0.0596
75513W        W18504   6.039  27.501  26.370 -0.3223 -0.0071 -0.0316
75514W        W18505   8.292   0.011   3.750 -0.1778 -0.0926 -0.0337
75515W        W18506  30.685   7.210   0.357  0.1862  0.0279  0.2678
75516W        W18507  28.353  24.895   0.300 -0.0611  0.0104 -0.0436
75517W        W18508  11.265   1.104   4.779 -0.2242  0.0929  0.1165
75518W        W18509  22.955  22.969  18.191  0.1544 -0.0632  0.0655
75519W        W18510  27.891  13.139   3.410  0.3392 -0.4428  0.1979
75520W        W18511   5.931  26.985  20.471  0.2043 -0.2598  0.1249
75521W        W18512  18.541  22.122   6.983 -0.0243  0.1121  0.1442
75522W        W18513  32.156  32.549  24.265  0.0693  0.0193  0.0591
75523W        W18514   1.573  34.105   3.693 -0.0565  0.0269  0.0552
75524W        W18515  28.549  14.735   3.855  0.1692 -0.4638  0.2453
75525W        W18516  14.495  25.072   4.792 -0.1371 -0.2191 -0.0785
75526W        W18517  33.947   4.247  28.565 -0.3156  0.3439  0.2130
75527W        W18518   3.082   0.727   5.700  0.2955  0.0896 -0.2330
75528W        W18519   8.063   4.685  24.496 -0.0780 -0.2950 -0.0900
75529W        W18520   4.501  32.561  28.063  0.2612 -0.0794  0.1732
75530W        W18521  31.835   5.843   6.013  0.1331 -0.1660 -0.0588
75531W        W18522   2.298  18.129   9.644 -0.0791 -0.1611  0.2017
75532W        W18523  32.690  26.669  22.000 -0.2497 -0.1036  0.1324
75533W        W18524  23.130  19.859   1.109 -0.1052 -0.1846  0.2650
75534W        W18525  28.282  30.240   3.899  0.1662  0.0596 -0.2018
75535W        W18526  24.836  31.170   7.131 -0.1608  0.2553 -0.0348
75536W        W18527   6.475  21.603  26.067 -0.1894  0.0538 -0.3783
75537W        W18528  11.241   3.228   9.232 -0.3118  0.2543  0.1918
75538W        W18529  16.203  24.370   5.945  0.2226 -0.0660 -0.0849
75539W        W18530   5.720  15.658   4.020 -0.0707 -0.0826  0.1630
75540W        W18531   8.089  15.916  10.454 -0.1821 -0.1776  0.0309
75541W        W18532   8.148  20.645  22.685 -0.1747 -0.1414 -0.3750
75542W        W18533  14.261   3.219  23.983 -0.0179  0.4646 -0.1341
75543W        W18534  33.184  10.494  28.955  0.0793 -0.3823  0.4411
75544W        W18535  15.067   0.751   8.318  0.3103 -0.1833 -0.1356
75545W        W18536   5.717  25.777   8.044  0.1278  0.0919 -0.0304
75546W        W18537   9.392   6.127  27.076 -0.0227  0.4053  0.0946
75547W        W18538   2.628  25.143  22.495  0.2041 -0.1838 -0.2327
75548W        W18539  10.172   2.213   2.733 -0.0365 -0.0788  0.4864
75549W        W18540   5.830   7.043  24.911 -0.0189  0.3459 -0.2088
75550W        W18541  12.432   2.774   6.618  0.1826 -0.2077  0.1482
75551W        W18542  16.847   5.182   7.930 -0.2260  0.1232  0.0357
75552W        W18543   3.421   4.304   9.917  0.3512  0.2095 -0.2209
75553W        W18544  30.021  29.331   3.205 -0.0319 -0.1780 -0.0360
75554W        W18545   7.783  24.440   4.836 -0.0201  0.0545  0.0503
75555W        W18546   1.970  17.950   4.916 -0.0061  0.0267 -0.0384
75556W        W18547  13.296   8.076  23.024 -0.1174  0.2005 -0.2831
75557W        W18548   8.508  30.353  27.328  0.0335  0.2242  0.1607
75558W        W18549   3.417  28.348   2.941 -0.2809 -0.0535 -0.0180
75559W        W18550  28.126  26.070  27.455 -0.2029  0.0529 -0.1598
75560W        W18551   0.516   0.797   8.763  0.1323  0.0417 -0.0829
75561W        W18552   0.480  30.831  27.563  0.0825 -0.0560 -0.4116
75562W        W18553  30.810  26.889   0.114 -0.1756 -0.1674 -0.2449
75563W        W18554  34.365   3.363   3.287  0.1841  0.0354  0.2008
75564W        W18555  30.210  22.547   8.508 -0.1845 -0.0815  0.0041
75565W        W18556  32.466  12.709  29.203 -0.2959  0.0972  0.1968
75566W        W18557  13.919  27.996   7.818 -0.1541 -0.2019  0.3244
75567W        W18558  33.175   8.547   7.640  0.0972  0.1186  0.0269
75568W        W18559   4.431   5.995   0.546  0.1121  0.0103 -0.0176
75569W        W18560   5.244   3.342  10.383 -0.1913 -0.0253 -0.1746
75570W        W18561  22.693  31.319  27.420  0.1933  0.1093  0.0270
75571W        W18562  13.200  22.149  22.188  0.3783  0.1031  0.0017
75572W        W18563   4.763  34.628  29.149 -0.1147  0.2241  0.1137
75573W        W18564  23.723  15.713  27.401 -0.0139 -0.1765  0.0577
75574W        W18565  27.946  33.185  18.776  0.0399  0.0468  0.1542
75575W        W18566  11.728   2.303   1.692  0.0598  0.1540  0.1343
75576W        W18567  30.996  27.421  27.983  0.2954 -0.1728  0.0687
75577W        W18568  24.301  21.889  17.164  0.0305  0.0919  0.1779
75578W        W18569  17.138  14.339   8.636  0.0390 -0.1224 -0.2453
75579W        W18570   3.008  15.966  10.451 -0.1147  0.0502  0.1316
75580W        W18571  34.592  21.989   5.104  0.2641 -0.0154  0.2084
75581W        W18572   2.882  22.754   4.973  0.3102  0.1175  0.0360
75582W        W18573  10.118  27.771   1.453  0.4247  0.0438  0.1751
75583W        W18574   7.005  11.277  27.261  0.1230  0.0624  0.1730
75584W        W18575  13.817  12.166  23.741  0.0169  0.2002 -0.0565
75585W        W18576  16.034   7.910  15.534 -0.0008  0.3187 -0.0419
75586W        W18577   3.978  32.269  26.894  0.1072 -0.0731  0.0435
75587W        W18578   4.820  11.916   4.391 -0.0650 -0.1105 -0.4072
75588W        W18579   0.286  16.887  25.234  0.1968  0.1949  0.0121
75589W        W18580  19.294  22.107  27.694 -0.2931 -0.0079  0.1550
75590W        W18581  34.230  26.158   8.029 -0.1136  0.0948  0.0709
75591W        W18582  12.985  14.194   5.924  0.1853  0.0114  0.1373
75592W        W18583  21.184  18.237  27.373  0.0389  0.0771 -0.1440
75593W        W18584   1.138  27.997   0.460  0.0016 -0.0248  0.1503
75594W        W18585   0.016   4.324  27.848  0.2177 -0.1482  0.2553
75595W        W18586   6.853  28.814  24.926 -0.1732  0.1903  0.0372
75596W        W18587   5.050  10.649   5.880 -0.1557  0.2421  0.2800
75597W        W18588  10.982  11.989  27.374 -0.2848  0.1609 -0.1020
75598W        W18589  28.873  24.202   0.699 -0.1398  0.2094  0.1136
75599W        W18590   7.377  28.244   9.025  0.4033 -0.0278 -0.0642
75600W        W18591   6.561  28.969   2.491 -0.1404  0.3070 -0.4227
75601W        W18592   7.062  20.152  26.179  0.1742 -0.0377  0.1326
75602W        W18593  10.691  16.926  20.882  0.3822 -0.1890 -0.1198
75603W        W18594  32.844  13.990   9.349 -0.0755 -0.2570 -0.2139
75604W        W18595  32.174  24.860  23.464 -0.0641  0.1517  0.1956
75605W        W18596   6.234  32.011  24.183 -0.0883  0.2909 -0.1710
75606W        W18597   6.367   6.179  25.908  0.0852 -0.1377  0.1428
75607W        W18598   8.031   3.121   5.794  0.0881 -0.3877  0.1964
75608W        W18599   3.650  33.743   5.975 -0.0471 -0.0668 -0.0176
75609W        W18600  19.756  28.715   0.841 -0.1678 -0.1637  0.1441
75610W        W18601   2.135   5.940   4.875 -0.5265  0.1531 -0.3619
75611W        W18602  22.959  25.842   9.159 -0.0355 -0.0560  0.2979
75612W        W18603   5.047  33.074   4.363  0.0311 -0.2497  0.0373
75613W        W18604  12.352  30.152   6.813 -0.0265 -0.5493  0.0222
75614W        W18605  33.837  25.643   7.922 -0.0777 -0.0982  0.0201
75615W        W18606  15.309  20.959  27.620 -0.2750 -0.2658 -0.0898
75616W        W18607   0.344   2.615   9.214  0.0232 -0.1431 -0.3346
75617W        W18608  28.144  31.246   4.974  0.1440 -0.1095 -0.2092
75618W        W18609  11.953   0.534   3.067  0.0430 -0.1618 -0.0426
75619W        W18610  13.937   2.808   5.440 -0.2401  0.3007  0.0596
75620W        W18611   4.221  11.111   4.248  0.0035 -0.3340 -0.0726
75621W        W18612  34.552  15.400   2.091 -0.2567  0.2828  0.0016
75622W        W18613  13.673  19.053  28.355  0.0925  0.0343  0.3519
75623W        W18614  16.757  23.438   6.700  0.1105  0.1492 -0.2846
75624W        W18615  25.192  16.451   2.575  0.1895  0.0862  0.4440
75625W        W18616   3.830  34.779  10.133  0.1107  0.0724 -0.2228
75626W        W18617  12.253  32.891   4.617  0.2417  0.0728 -0.1073
75627W        W18618  30.333  17.436  22.242  0.1272  0.3392 -0.1493
75628W        W18619   8.991  26.160   4.564  0.0188 -0.0664 -0.4573
75629W        W18620  17.296  19.962  24.376 -0.1447 -0.0956  0.2532
75630W        W18621   1.072  32.971  27.965  0.3859  0.1894  0.0763
75631W        W18622  20.633   1.098  27.107 -0.0379  0.2423  0.2090
75632W        W18623   6.946  16.580  21.459 -0.0173 -0.2957 -0.0311
75633W        W18624  33.592   0.102  27.394 -0.1799 -0.0823  0.2438
75634W        W18625  10.329   4.604   2.298  0.1518  0.2404 -0.3296
75635W        W18626   3.019  32.640  25.973 -0.0886  0.1126  0.0688
75636W        W18627  17.930  15.687   3.971 -0.1377  0.2987 -0.1392
75637W        W18628   5.227   0.352   9.773 -0.0265 -0.0211 -0.2239
75638W        W18629  15.587   3.170   2.027 -0.0546 -0.1128  0.0338
75639W        W18630   6.611  31.699   0.801  0.1242 -0.2175 -0.0461
75640W        W18631  17.393  30.637   8.627  0.0892  0.0506  0.0374
75641W        W18632  14.623   0.295   9.654  0.2681  0.2031 -0.2563
75642W        W18633   2.379  34.149   1.172 -0.1925  0.1091 -0.0479
75643W        W18634  33.204  21.210  27.630  0.2658  0.2407  0.1037
75644W        W18635  13.051   1.635   9.601 -0.2622  0.1615 -0.1522
75645W        W18636  33.107  30.957   3.326  0.4758  0.3179 -0.0670
75646W        W18637   8.015  33.747  22.792 -0.1417  0.0939 -0.1178
75647W        W18638  14.283  29.064  28.929 -0.0814  0.0731  0.1606
75648W        W18639   1.944  26.727   9.469 -0.0015  0.2369 -0.3344
75649W        W18640  31.006  22.741   3.561 -0.4192  0.1652 -0.0930
75650W        W18641  33.847  14.796  23.845  0.1981  0.0730 -0.0603
75651W        W18642  25.558  25.079   6.808 -0.2465  0.1055 -0.3005
75652W        W18643  16.330  26.473  29.184 -0.0925  0.2350  0.0265
75653W        W18644  22.821  27.113   9.737  0.0151 -0.1613 -0.3088
75654W        W18645  20.319  12.819   1.317 -0.2483 -0.0686 -0.0122
75655W        W18646  18.489  24.065  27.783  0.2489  0.4677 -0.2111
75656W        W18647  21.743  11.251  28.774  0.1773 -0.1662  0.0485
75657W        W18648   0.709  17.246   7.604  0.0772  0.1322  0.2575
75658W        W18649  19.450  16.619  25.011  0.0959  0.0124  0.1453
75659W        W18650  29.741   2.874   2.827  0.0518  0.1978  0.1109
75660W        W18651  12.585  12.732  24.561 -0.1935 -0.0229 -0.2227
75661W        W18652  12.823  13.236  28.307  0.1252  0.2096 -0.0432
75662W        W18653  33.561   2.704   3.149  0.1803 -0.1172  0.0957
75663W        W18654   2.830  15.023  22.402 -0.1529  0.2029 -0.0650
75664W        W18655  22.729  19.828   3.278  0.0116 -0.1623 -0.1738
75665W        W18656  30.346  14.740   4.769  0.1177  0.2335  0.3112
75666W        W18657  12.978  14.073   9.843  0.1340 -0.2464  0.1764
75667W        W18658  15.806   3.109   9.308 -0.0730  0.1370  0.1371
75668W        W18659   8.212   9.047  24.117 -0.2736 -0.1953 -0.1075
75669W        W18660   3.678  20.068   3.790 -0.0954  0.0950 -0.0062
75670W        W18661   2.998  12.973   6.202 -0.3006 -0.3651  0.1042
75671W        W18662  14.983  14.827   4.925 -0.0220 -0.5749  0.1496
75672W        W18663  33.970   9.376  10.912  0.0505 -0.1553  0.0773
75673W        W18664  14.656  30.319   6.307  0.2017 -0.1694  0.1826
75674W        W18665   5.317   6.138   2.493 -0.1829  0.2500 -0.2732
75675W        W18666  31.916  31.981  19.618  0.0719  0.2152 -0.1649
75676W        W18667  20.597  31.679   9.808 -0.0487 -0.0214  0.0791
75677W        W18668   0.165  32.884   9.279 -0.0292 -0.1576  0.0871
75678W        W18669  29.779  26.873  22.365 -0.0692  0.2598  0.2513
75679W        W18670  13.639   2.435   4.181 -0.0400 -0.0564  0.0042
75680W        W18671   7.806  28.517   7.145 -0.2466  0.2892 -0.3760
75681W        W18672  14.709  25.340  20.082  0.1297 -0.0799 -0.1017
75682W        W18673   7.077  27.146  10.658 -0.2262 -0.1977  0.1354
75683W        W18674  11.369  12.657   7.770 -0.2015  0.1405 -0.0738
75684W        W18675   9.211  31.420   2.748 -0.1345  0.1468  0.2495
75685W        W18676  33.657   7.824   8.064 -0.2372 -0.0129 -0.2936
75686W        W18677   3.660  31.567   1.795 -0.3626  0.1471 -0.0798
75687W        W18678  10.818  19.456  27.852  0.1716 -0.3309 -0.0614
75688W        W18679  12.953  28.607   2.243  0.0557  0.3109  0.3629
75689W        W18680  29.910  15.928   6.107  0.2952 -0.0789 -0.1166
75690W        W18681   4.417  30.243  24.870 -0.1266  0.0743  0.1169
75691W        W18682  28.767   1.264   2.303 -0.4632 -0.1260  0.2224
75692W        W18683   4.209   2.312  27.814 -0.2324  0.1564 -0.0699
75693W        W18684  23.806   0.600   7.743 -0.1994  0.1284  0.1517
75694W        W18685  33.774  29.925   4.178  0.0209  0.1585  0.0749
75695W        W18686   6.192  25.210  20.025 -0.0181  0.0815  0.0772
75696W        W18687   6.435  19.040   1.895 -0.0574 -0.2730 -0.2363
75697W        W18688  29.721   9.353   1.186  0.2588  0.1332 -0.1459
75698W        W18689  32.034   9.316   7.642 -0.1287  0.1344 -0.2309
75699W        W18690  10.761   0.200   8.016  0.3234  0.0061  0.0754
75700W        W18691   4.011  33.306   6.937 -0.0935 -0.0801 -0.0339
75701W        W18692   6.135  30.737   5.500 -0.2207 -0.0323  0.2876
75702W        W18693  13.331   2.479  10.498 -0.1679 -0.0190  0.3269
75703W        W18694   9.193   3.576   2.319  0.1477 -0.1161  0.0208
75704W        W18695  12.386  33.345   7.244 -0.0470 -0.0511 -0.3810
75705W        W18696  19.537  16.195   8.659  0.0177  0.1594 -0.0359
75706W        W18697  21.954   6.905   1.643 -0.4689 -0.1555  0.1477
75707W        W18698  19.552   3.397  28.228  0.1881 -0.1787  0.0295
75708W        W18699  13.559   5.959   7.553  0.0795 -0.0254  0.1606
75709W        W18700   3.644  22.366   6.933 -0.2081  0.0242  0.4193
75710W        W18701   5.317  20.186   4.716 -0.0589 -0.1274 -0.0745
75711W        W18702  17.286   5.541   0.416  0.2163 -0.1258  0.0256
75712W        W18703  14.380  34.623   1.279  0.0128 -0.0234  0.0467
75713W        W18704  17.837  33.967   9.475  0.2583 -0.0728 -0.0221
75714W        W18705   4.426   5.158   5.444 -0.2068 -0.0574 -0.1499
75715W        W18706  34.357  30.165   1.579  0.1910 -0.0887  0.0211
75716W        W18707   4.447   3.807  29.151  0.1146 -0.0816 -0.0325
75717W        W18708  11.016  30.473   9.989  0.0746 -0.1697 -0.0910
75718W        W18709  11.370  15.482   1.755  0.1322 -0.1761 -0.2830
75719W        W18710   3.847  30.457   0.959  0.2246  0.0000  0.0692
75720W        W18711  30.871  26.170   5.227  0.1521 -0.2938 -0.0827
75721W        W18712  22.905  22.625  16.963 -0.0718  0.1223  0.1536
75722W        W18713  31.587  10.132  20.407 -0.0985  0.1318 -0.1045
75723W        W18714  25.477  33.169   3.558  0.0845 -0.0849 -0.0387
75724W        W18715   4.533  27.715   6.585 -0.0865  0.2649 -0.0624
75725W        W18716  34.360   2.077   1.641 -0.3015 -0.3414 -0.2122
75726W        W18717  34.702  10.691   6.632 -0.2213  0.0940 -0.1724
75727W        W18718   2.438  11.476   3.108 -0.0850  0.2355  0.1720
75728W        W18719   1.593   3.946   9.535 -0.3907 -0.4288 -0.3449
75729W        W18720  11.405  27.968   2.583 -0.0677 -0.0257  0.1207
75730W        W18721   5.272  24.639   5.126  0.5025 -0.1823  0.0537
75731W        W18722  23.194  30.282  22.346  0.4139 -0.0559 -0.0519
75732W        W18723  30.144  34.134  24.936 -0.1509 -0.1803 -0.4766
75733W        W18724   9.392  29.839   6.478  0.1227  0.0012 -0.1385
75734W        W18725  16.004  21.658   5.699 -0.1303  0.0477  0.3109
75735W        W18726   4.677  26.829   8.715  0.1396 -0.1150 -0.2081
75736W        W18727  32.454  34.786  25.137 -0.0519 -0.4351  0.1500
75737W        W18728  10.504  10.526   8.019 -0.0250  0.1909 -0.0268
75738W        W18729  12.515  22.261   7.281 -0.3919  0.0194 -0.1175
75739W        W18730  31.857   1.996  26.828  0.0087  0.1985  0.2683
75740W        W18731   4.061   4.595  26.098  0.2303  0.1357  0.1888
75741W        W18732   9.243   1.358  26.015 -0.3005  0.1628 -0.0996
75742W        W18733   7.160  27.006  25.755 -0.0505  0.1078  0.1565
75743W        W18734  29.590   0.887  25.408 -0.0107  0.2591  0.0898
75744W        W18735   5.553   3.261   3.738  0.2931  0.1606 -0.0259
75745W        W18736   1.697  11.282  25.637 -0.4396  0.0384  0.1419
75746W        W18737  31.188  23.830   2.963 -0.0436  0.1835  0.1739
75747W        W18738  33.970  20.855  29.217 -0.0487  0.1087  0.1365
75748W        W18739  13.254  13.108  27.394  0.1005  0.0700 -0.0860
75749W        W18740   8.299  26.032   9.238  0.3644 -0.1343 -0.1319
75750W        W18741  10.943  16.898  27.497  0.1158  0.0862 -0.4663
75751W        W18742  23.092  23.926  22.627 -0.0930  0.1695  0.1751
75752W        W18743  31.442   6.340  25.769  0.4507  0.0500 -0.3145
75753W        W18744  28.982  17.221   7.404  0.1056  0.2285 -0.0856
75754W        W18745  14.653   3.415  28.794  0.2832 -0.1261 -0.2593
75755W        W18746  25.162   0.280   8.523 -0.2054  0.0933  0.0599
75756W        W18747   7.649   0.940  11.049 -0.0118  0.0690 -0.3037
75757W        W18748   9.160  22.742   8.204 -0.2775  0.3142  0.0395
75758W        W18749   0.689  21.886   8.412 -0.0945  0.0418 -0.2216
75759W        W18750  12.399  25.278   3.548  0.0197  0.1714  0.0651
75760W        W18751   6.156  17.241  27.677  0.0103 -0.2392 -0.0633
75761W        W18752   9.059  33.797   8.604  0.1646  0.0976  0.2381
75762W        W18753  22.372  12.210   4.649  0.1757  0.0756  0.0393
75763W        W18754  32.732  26.743  26.585 -0.0234  0.1695 -0.2540
75764W        W18755   5.031   6.695  28.845  0.0368  0.1724 -0.5058
75765W        W18756   2.933   3.348   4.566 -0.1500 -0.1061  0.3564
75766W        W18757   3.921  22.992   9.257 -0.0902  0.2829  0.1017
75767W        W18758  27.106  33.204   3.394 -0.3713 -0.0089  0.2606
75768W        W18759   5.778  33.312   6.138  0.1984  0.1471  0.1041
75769W        W18760  12.689  30.052   3.844 -0.1776 -0.0741  0.0887
75770W        W18761   3.401   5.301   2.357 -0.2569  0.1506 -0.2122
75771W        W18762  29.838   1.890  28.562  0.0524 -0.3237  0.1091
75772W        W18763  27.049  31.797   8.647 -0.4886  0.1141 -0.5046
75773W        W18764   7.064  22.696   5.208 -0.0294  0.2063 -0.1615
75774W        W18765  32.711   3.166   4.862  0.0939 -0.0871  0.1216
75775W        W18766  22.656   9.894  10.027  0.2728 -0.1679  0.0041
75776W        W18767  30.002   8.411   0.658 -0.3090  0.0407 -0.0587
75777W        W18768  33.893  24.994   3.636 -0.1997 -0.0810  0.0259
75778W        W18769  11.356  17.343   7.074  0.3036 -0.0138 -0.4919
75779W        W18770   2.863   6.998   7.917  0.0682  0.0725 -0.0103
75780W        W18771   6.710   0.026   9.842 -0.0796 -0.1412  0.0586
75781W        W18772   9.550  26.831   0.468  0.3369  0.1758 -0.1108
75782W        W18773   4.368   2.223   5.029  0.0283 -0.2416 -0.3970
75783W        W18774   2.413  21.660   9.433  0.1922 -0.1555  0.2815
75784W        W18775  27.960   2.869  26.271  0.1753 -0.0620 -0.0481
75785W        W18776  12.518  31.069   7.054 -0.1041  0.1329  0.1209
75786W        W18777   0.421   0.113   3.065  0.1397 -0.0824 -0.0574
75787W        W18778  22.698  29.602   8.469  0.0536 -0.1305 -0.0577
75788W        W18779   0.440  32.040   8.166 -0.0275 -0.1419 -0.3927
75789W        W18780   5.258   5.971   3.997 -0.1430 -0.0522 -0.4506
75790W        W18781   3.295  12.340  22.144 -0.1349  0.2635 -0.1893
75791W        W18782  26.484  31.084   7.153 -0.0430  0.1403 -0.0877
75792W        W18783  18.208  17.328   2.091  0.0491 -0.1871  0.1901
75793W        W18784  31.429  30.047   6.662  0.0989 -0.3167  0.1217
75794W        W18785   3.765   7.569   5.091  0.0455  0.0651 -0.2807
75795W        W18786  28.251  28.415  26.654  0.2654  0.1097  0.1190
75796W        W18787   4.854  23.242   4.214 -0.5493 -0.0055 -0.2471
75797W        W18788  28.437  28.112  21.336 -0.1974 -0.0858  0.0956
75798W        W18789   8.869   4.111  23.355  0.2619 -0.2692 -0.0498
75799W        W18790  11.566  20.728   2.881 -0.0270  0.2591  0.2394
75800W        W18791   0.591  29.897   4.228 -0.0402 -0.0542  0.2861
75801W        W18792   1.529  16.322  24.019 -0.1448  0.1420  0.2510
75802W        W18793  10.654  30.768   9.299  0.1385  0.4464  0.2384
75803W        W18794   6.556  33.875   5.770  0.1812  0.0643  0.2956
75804W        W18795   5.356  25.013  28.514  0.2283 -0.1410  0.3606
75805W        W18796  13.321  22.464  17.107  0.3175 -0.1880 -0.1534
75806W        W18797   4.258  15.311  28.612  0.1439 -0.1430  0.2361
75807W        W18798   8.183  31.269   0.449 -0.0463  0.1399 -0.0972
75808W        W18799   8.898  26.182  18.476 -0.2454 -0.1241  0.1099
75809W        W18800   5.363  25.712   2.601 -0.3798  0.1664  0.1795
75810W        W18801   1.459  17.060  11.614  0.1523 -0.0069  0.0417
75811W        W18802  18.187  32.954  21.756 -0.0471 -0.0204 -0.0674
75812W        W18803  10.814  28.183   3.430 -0.0042  0.0247 -0.4425
75813W        W18804  11.024  24.530  25.029  0.0734  0.0826  0.0165
75814W        W18805   5.165  29.430   2.312 -0.0403 -0.1604  0.0351
75815W        W18806  12.127  34.791   9.428  0.4392  0.2942 -0.3457
75816W        W18807  12.694  32.118   4.682 -0.1615 -0.3446  0.0718
75817W        W18808  11.267  12.121   9.081  0.0557  0.1031 -0.2138
75818W        W18809   2.749  28.297   1.937  0.0375  0.3292 -0.2188
75819W        W18810  25.152  22.787   2.966  0.2564 -0.0270  0.0928
75820W        W18811   3.563  13.894  24.386  0.0820  0.1183  0.0211
75821W        W18812  29.513  14.861   6.615  0.0457 -0.1063  0.0919
75822W        W18813   6.107  12.212   2.803 -0.0903 -0.0359  0.0485
75823W        W18814  11.546  30.505   6.243  0.1845  0.1944  0.0623
75824W        W18815  30.224  10.340  10.102 -0.1854 -0.1486 -0.1359
75825W        W18816  31.634   1.631  18.047 -0.1903 -0.2324  0.0875
75826W        W18817   2.364   1.171   4.228  0.2720 -0.0343  0.1571
75827W        W18818  31.149  23.708  24.734  0.1268 -0.2494  0.1427
75828W        W18819   2.123   5.376  26.849  0.0739  0.2461 -0.0934
75829W        W18820  27.147   0.324   9.216 -0.0079  0.0192 -0.0955
75830W        W18821  13.107  23.135   4.764  0.1745  0.1025  0.1186
75831W        W18822   8.030   1.433   1.475 -0.2254  0.3803  0.1958
75832W        W18823  10.251  30.701   9.534 -0.2236  0.0508  0.1246
75833W        W18824   1.600  34.146   1.415 -0.0207  0.0805  0.2667
75834W        W18825  11.075   5.847   6.477 -0.0442  0.1071  0.2441
75835W        W18826  29.078  21.464   7.593 -0.2403  0.0280  0.1131
75836W        W18827  15.831   8.853   5.817  0.0349  0.1979 -0.0480
75837W        W18828  27.373  25.015   7.002 -0.1227  0.1429  0.3474
75838W        W18829  34.732   1.549  19.628 -0.1863 -0.0302 -0.0153
75839W        W18830  29.157  14.286   5.807  0.0803 -0.1616 -0.1805
75840W        W18831   2.768  25.700   7.400 -0.1570 -0.1203 -0.3215
75841W        W18832  10.385  28.170   1.660 -0.2515  0.1007 -0.0984
75842W        W18833   9.226  33.776  10.100 -0.2244 -0.0231  0.0419
75843W        W18834  24.308  33.801  27.321 -0.1729 -0.0525  0.0163
75844W        W18835   5.582  13.598   3.124 -0.0948  0.0979  0.2121
75845W        W18836   9.043  31.421  27.361 -0.0262 -0.2321  0.0426
75846W        W18837  30.885   3.987   1.711  0.1100 -0.2137  0.0180
75847W        W18838  34.772   1.511  22.131 -0.0588 -0.0739 -0.2614
75848W        W18839   9.627  23.238   9.825  0.3737 -0.3811 -0.0962
75849W        W18840   0.190   3.093  27.037  0.2451 -0.2035  0.4294
75850W        W18841   5.767   8.521   5.177 -0.4081  0.1564 -0.0861
75851W        W18842  30.845  17.199  27.882  0.1110 -0.0103 -0.4184
75852W        W18843  16.739  25.508   5.378  0.2236 -0.0774 -0.0036
75853W        W18844  13.562  32.822   4.466  0.0956  0.2994  0.2262
75854W        W18845   5.084  32.359   8.343 -0.0431 -0.1681 -0.1420
75855W        W18846  15.386  32.509   5.115 -0.2078  0.1608 -0.2420
75856W        W18847  32.962  27.164   3.153 -0.2288 -0.1383  0.1800
75857W        W18848  32.855   2.014   2.759 -0.4553  0.1958  0.1290
75858W        W18849   6.499   7.719  29.044 -0.2103 -0.0607 -0.2773
75859W        W18850  14.883   9.632   8.359 -0.0449 -0.0467 -0.3071
75860W        W18851   7.940   7.619  16.993 -0.3012 -0.0882 -0.1509
75861W        W18852   4.073   3.663   9.275  0.0373 -0.0887  0.1555
75862W        W18853  34.133   8.292   6.874  0.0683 -0.1300  0.0499
75863W        W18854  33.619   8.583   0.947 -0.2088  0.0602  0.1794
75864W        W18855  12.040  33.476   5.991  0.3243 -0.1374  0.0717
75865W        W18856   9.810  28.417   5.221 -0.1984 -0.2888 -0.0391
75866W        W18857  24.055  29.233   5.013  0.4312  0.2247  0.1696
75867W        W18858  14.665  33.017   7.033  0.1479  0.0762  0.0355
75868W        W18859   3.051  33.612  28.617 -0.0263 -0.0909  0.1060
75869W        W18860   6.387  23.977  14.741  0.3380 -0.2587 -0.2293
75870W        W18861   4.959  31.865   3.192 -0.1730 -0.2532 -0.0112
75871W        W18862   3.152   4.792  27.368 -0.1706 -0.1361 -0.1938
75872W        W18863  27.300  16.106   8.456  0.3448 -0.1485  0.1285
75873W        W18864   0.544   0.734   9.420  0.1721  0.0473  0.0662
75874W        W18865  15.228  27.187  21.254 -0.0176 -0.1410 -0.1425
75875W        W18866  10.692  22.972   3.396  0.3668 -0.3582  0.1138
75876W        W18867  28.971   8.206  10.351  0.1222  0.2525  0.1028
75877W        W18868  34.504   0.088   7.558 -0.1399  0.0453 -0.2988
75878W        W18869   2.622   2.054  10.236 -0.0819 -0.0871 -0.2079
75879W        W18870   1.410   0.289   8.168  0.1785 -0.2729  0.0286
75880W        W18871   4.230  27.267   5.612  0.0314 -0.1256 -0.0248
75881W        W18872  33.614  30.991   6.265  0.0781 -0.0814  0.3370
75882W        W18873  20.221  33.096   6.867 -0.0648 -0.0258  0.1402
75883W        W18874  32.136   8.367   0.209 -0.0877  0.0228 -0.1255
75884W        W18875   7.916   6.243   9.120 -0.3248  0.1231 -0.0703
75885W        W18876  34.383   0.527  28.638  0.0123  0.0436  0.0476
75886W        W18877   5.959   6.836   7.185  0.2279  0.2151 -0.2054
75887W        W18878  26.603   8.885   7.138  0.2130  0.1459  0.0103
75888W        W18879  27.336  19.898  23.925 -0.1184 -0.0638  0.0449
75889W        W18880  31.379   5.080   7.581  0.0805 -0.1803 -0.0732
75890W        W18881   1.106  10.838   7.769  0.1439 -0.1935 -0.0354
75891W        W18882   3.021  24.527  24.900  0.2847  0.1026  0.1670
75892W        W18883  10.015  29.743   7.367  0.1251 -0.1327  0.0884
75893W        W18884  34.148  14.881  17.363 -0.0852 -0.2682  0.2833
75894W        W18885   9.268  26.352   9.196  0.1251  0.2350 -0.1440
75895W        W18886  23.283  12.484  22.442  0.2069 -0.2944 -0.1158
75896W        W18887  16.311  34.533   1.661 -0.0337 -0.1408 -0.1984
75897W        W18888   1.220  17.585  23.094 -0.1955 -0.1430 -0.0311
75898W        W18889   2.894  22.846   7.452  0.1155  0.0920 -0.0063
75899W        W18890  24.526   1.801   2.273  0.1454  0.1845 -0.1429
75900W        W18891   6.467  22.656   5.981 -0.0401  0.1022 -0.1510
75901W        W18892  19.349  13.787   5.429  0.1755 -0.0112  0.0321
75902W        W18893   3.091  10.739  25.119  0.0425 -0.5168  0.5107
75903W        W18894  11.285   3.306   0.495  0.0930 -0.0833 -0.1063
75904W        W18895   8.299  31.289  26.571  0.1244 -0.0133 -0.0865
75905W        W18896   9.121  29.269  15.918  0.0719  0.1641  0.0889
75906W        W18897  12.299  31.673   6.521  0.0269  0.0766  0.0358
75907W        W18898  15.513  31.494   5.312  0.2521 -0.3034 -0.1590
75908W        W18899  18.502   6.668  26.227  0.2609 -0.1505  0.3618
75909W        W18900  11.135  26.246   3.201  0.1223  0.2039 -0.3895
75910W        W18901  11.907   2.807  11.105 -0.2355 -0.2274 -0.1676
75911W        W18902   3.245   5.273  28.211  0.1550  0.2378 -0.1639
75912W        W18903   1.201  29.730  27.903  0.1978 -0.2024  0.2737
75913W        W18904   8.829   6.459   9.305 -0.0568 -0.1605  0.1700
75914W        W18905  13.159  11.083   3.822 -0.1283  0.1427 -0.1689
75915W        W18906  34.061   8.705  28.783  0.0314 -0.2635 -0.2057
75916W        W18907  34.727  25.475   6.507 -0.2028 -0.0145  0.2199
75917W        W18908  27.543  31.528   3.209 -0.1268  0.3956 -0.0673
75918W        W18909   7.482  27.917   5.120  0.1307  0.0963  0.1148
75919W        W18910   1.010  29.908   3.461 -0.0635 -0.0675 -0.1551
75920W        W18911  32.662  32.029   3.433  0.1140 -0.2097  0.0149
75921W        W18912  15.859   9.562   6.889 -0.2418 -0.0648 -0.1580
75922W        W18913   5.637  34.113   5.514 -0.1418  0.1464 -0.2128
75923W        W18914  28.130  33.160  27.038  0.3307  0.2369 -0.0609
75924W        W18915   5.572   1.073   7.999  0.2580  0.0674  0.0436
75925W        W18916   3.062  29.303  21.118 -0.1499 -0.1495  0.0297
75926W        W18917  32.070   7.726   7.065 -0.1338  0.0838  0.0484
75927W        W18918   2.782  22.272   6.343 -0.0462 -0.1219 -0.0499
75928W        W18919  19.067  27.607   2.184  0.1350  0.0559 -0.0943
75929W        W18920   0.887   9.731   5.008  0.1272  0.0960 -0.0032
75930W        W18921   4.119  10.781   5.205 -0.1052  0.0646 -0.2719
75931W        W18922  12.401  22.651   6.452 -0.1909  0.0328  0.1555
75932W        W18923  34.194  29.214   9.463  0.1395  0.0357  0.2047
75933W        W18924  25.026  33.003  26.863  0.2001 -0.1710 -0.2032
75934W        W18925   2.649   5.002   7.847  0.0828 -0.1322  0.2577
75935W        W18926  27.706  27.299   6.377 -0.0715  0.0798  0.0657
75936W        W18927  34.187  29.044  28.378  0.0202  0.1255 -0.0434
75937W        W18928  32.561  31.183   5.295 -0.3051  0.1439  0.0621
75938W        W18929   9.036  32.960  19.957 -0.0860 -0.0711  0.1495
75939W        W18930   4.351  22.860  10.313 -0.2037 -0.2719 -0.1273
75940W        W18931  19.455  22.353   2.918  0.0955 -0.1574 -0.4318
75941W        W18932  17.906  20.087  18.430 -0.2183 -0.1291 -0.1331
75942W        W18933   9.999  28.272   6.221 -0.1500 -0.0037 -0.0660
75943W        W18934  12.306  12.459  24.842  0.2148 -0.1596 -0.2003
75944W        W18935  13.303  26.910  15.320  0.0450 -0.1415 -0.0292
75945W        W18936  11.165  21.632   4.505 -0.2730  0.2198  0.4748
75946W        W18937   6.056   3.032  11.312 -0.2430 -0.0029  0.0870
75947W        W18938  15.503   3.068   2.535  0.1927  0.0324 -0.1733
75948W        W18939  28.261   8.851   2.158  0.0083  0.0462 -0.0313
75949W        W18940   0.161  29.634   5.725  0.2020  0.2925 -0.0180
75950W        W18941   7.622  24.121   6.792  0.0497  0.3606 -0.0611
75951W        W18942   6.082   1.357   9.163  0.0330 -0.1091 -0.0485
75952W        W18943  12.739  16.955   6.515  0.2400 -0.1100 -0.0259
75953W        W18944  19.595  30.075   9.616  0.0518  0.0984  0.2453
75954W        W18945   8.391  20.294  10.505  0.0944  0.3438  0.0246
75955W        W18946  26.585  34.061   7.316 -0.0933 -0.1335  0.3105
75956W        W18947  28.178  23.851  28.139 -0.0189 -0.2574  0.0391
75957W        W18948   7.789  28.910  10.216 -0.1027 -0.3205 -0.0731
75958W        W18949   4.518  25.043  10.307  0.2943  0.0053 -0.3494
75959W        W18950  34.549  24.019   6.599  0.0638  0.2512  0.0825
75960W        W18951  15.323  27.607   5.095 -0.0251 -0.0090 -0.1284
75961W        W18952  31.506   6.183   6.003 -0.1637  0.1337 -0.0410
75962W        W18953  17.388   8.083   5.807  0.0725 -0.1703 -0.3912
75963W        W18954  33.564  19.807  18.489  0.0010  0.2631 -0.1404
75964W        W18955   9.979  29.301   3.147  0.0070  0.0889  0.0483
75965W        W18956  13.844   9.261   6.800  0.1971  0.0703 -0.4580
75966W        W18957   5.471  24.419  27.660  0.3118 -0.3004 -0.1941
75967W        W18958   7.675  30.335   9.103 -0.0634 -0.2174 -0.2096
75968W        W18959   8.210  21.714  26.615  0.2161 -0.1456 -0.1409
75969W        W18960  20.549  19.118   3.476  0.1684 -0.1335 -0.3139
75970W        W18961  33.068   2.360   2.018  0.0360  0.0199  0.2517
75971W        W18962  34.145   7.789   3.976  0.0960 -0.4024 -0.2670
75972W        W18963   1.237  17.062   8.951 -0.0282  0.0358  0.1031
75973W        W18964  17.731  30.077  23.861  0.1017  0.0757 -0.1707
75974W        W18965  29.144  11.571   7.534  0.1716 -0.0601  0.2448
75975W        W18966  19.693   2.600   7.658  0.1774  0.1190 -0.3188
75976W        W18967   0.118  33.522   7.362 -0.2039 -0.0550  0.0053
75977W        W18968  10.265  29.074  27.887 -0.1485 -0.1267 -0.1054
75978W        W18969   7.227   2.474   2.579 -0.0947 -0.1884 -0.1300
75979W        W18970   6.656  24.738   9.601 -0.1688 -0.0347 -0.0263
75980W        W18971  15.263  10.799   1.703 -0.0752 -0.0092  0.2268
75981W        W18972   4.200  24.849  10.016 -0.0006 -0.0777 -0.0389
75982W        W18973   8.358  25.862  25.192  0.2431  0.1425  0.2001
75983W        W18974  30.299  17.590  17.717 -0.0040 -0.1704  0.1162
75984W        W18975   2.658  23.731   6.416  0.0800  0.0236  0.0383
75985W        W18976  31.310  22.560   8.408  0.2087  0.3473 -0.0657
75986W        W18977  13.900   8.106   0.122  0.0623  0.0860  0.1448
75987W        W18978  33.946  25.181   2.665  0.1573  0.2134  0.1782
75988W        W18979  13.831   8.443   5.021 -0.1177  0.0921  0.1766
75989W        W18980  23.441  24.421   7.730 -0.0577  0.2443 -0.1188
75990W        W18981   6.370  23.592  28.721 -0.0288  0.3961  0.1885
75991W        W18982   2.077  25.188   6.960 -0.0204  0.3342  0.0625
75992W        W18983  27.883  11.060   5.378  0.0438 -0.2455 -0.2296
75993W        W18984  25.705  19.519  20.223  0.4042  0.1512  0.0148
75994W        W18985  12.047  28.059   5.444 -0.0741 -0.3660 -0.0273
75995W        W18986   5.207  14.978  27.103  0.1928  0.1126  0.0273
75996W        W18987   5.740  30.591  28.586 -0.1778 -0.2763  0.2734
75997W        W18988  30.686   5.008   1.689 -0.1445 -0.0670 -0.1841
75998W        W18989   2.332   0.241   6.687 -0.3232 -0.0162  0.1564
75999W        W18990  12.976  29.709   7.147  0.0206 -0.0589 -0.1484
76000W        W18991   8.867  19.833   4.086 -0.0010  0.3419  0.1241
76001W        W18992  33.589  12.611   9.357 -0.2341 -0.1036 -0.1600
76002W        W18993   6.534   2.075  29.129 -0.1165 -0.0489  0.0149
76003W        W18994   9.350  14.684   1.675  0.0025  0.2135  0.0602
76004W        W18995   0.712  29.654   2.482 -0.0227  0.0776 -0.0040
76005W        W18996   9.220  32.349  29.205 -0.3055 -0.1609  0.0320
76006W        W18997   7.928   3.767  21.642 -0.0681  0.1785 -0.2122
76007W        W18998  19.428  33.950  25.237  0.0601 -0.2596  0.1757
76008W        W18999  16.072  28.129   4.474 -0.3352  0.0131  0.1858
76009W        W19000   8.052  31.770   1.205  0.2020  0.2495  0.0101
76010W        W19001   3.887  33.661  29.091 -0.4701  0.0589 -0.1921
76011W        W19002  11.007  32.673   9.707  0.0245 -0.1232  0.0006
76012W        W19003   2.573  17.922   8.624 -0.1921 -0.1722 -0.0272
76013W        W19004  29.525   3.158  22.668  0.2522  0.2771 -0.1719
76014W        W19005  33.660  23.102   7.673 -0.0197  0.0576  0.0430
76015W        W19006   6.862  26.374   8.757  0.1055  0.4192 -0.3837
76016W        W19007   2.071  25.633  22.091 -0.0663 -0.0006  0.1138
76017W        W19008  11.627  20.749   1.419  0.0273 -0.2521  0.1741
76018W        W19009   1.588  32.144   0.300  0.1956 -0.2164  0.1845
76019W        W19010  24.683  20.308   1.191  0.3153  0.1993 -0.0930
76020W        W19011  27.608  23.358   6.542 -0.0292 -0.0011  0.0362
76021W        W19012  12.556   6.375   0.770 -0.1447 -0.0319 -0.0432
76022W        W19013  34.082   2.805   7.397  0.1348 -0.3581  0.1125
76023W        W19014   2.016  18.572   7.272  0.3736  0.0000  0.0684
76024W        W19015   3.793  16.036  25.486  0.3912 -0.1964 -0.1163
76025W        W19016  33.388  32.600   0.931 -0.2295  0.0702  0.0027
76026W        W19017  15.639   9.771   8.836 -0.0395  0.1583 -0.1668
76027W        W19018  14.499  31.499   9.715 -0.3227 -0.0893  0.2047
76028W        W19019   3.578  21.956   4.800  0.1369  0.0353 -0.1561
76029W        W19020   7.943  28.176   8.257 -0.1057 -0.0285 -0.5839
76030W        W19021   2.673  25.585  27.973 -0.1757  0.0745 -0.0711
76031W        W19022   3.249  26.178   5.860  0.0078  0.3223  0.2982
76032W        W19023  33.717   5.331  10.140 -0.1038  0.0768  0.1789
76033W        W19024  21.494  28.777   5.757 -0.0055 -0.0223 -0.0607
76034W        W19025   2.125  34.558   7.740  0.2223 -0.1518 -0.1064
76035W        W19026   6.742   5.724   2.846  0.2412  0.2119  0.0590
76036W        W19027  32.462  28.533   1.605 -0.3348 -0.0286 -0.3256
76037W        W19028  27.165   1.926   4.513  0.0394 -0.2176  0.1598
76038W        W19029  23.560  29.570   9.824  0.2943  0.2125 -0.1262
76039W        W19030   6.119  23.300   1.697 -0.1998 -0.0649  0.1710
76040W        W19031   7.650  24.025   8.900 -0.0053 -0.0017  0.2068
76041W        W19032   2.973   1.264   4.287  0.3789 -0.1404  0.1564
76042W        W19033  21.171  10.073   3.506  0.2179 -0.1074 -0.4229
76043W        W19034  28.320  14.995   7.978  0.2853  0.1738  0.1798
76044W        W19035   9.702   6.740   6.299  0.0547 -0.0680 -0.2012
76045W        W19036  10.399   2.620   8.814  0.1024 -0.1014 -0.2438
76046W        W19037  23.240   2.302   3.867 -0.1005  0.2511 -0.0761
76047W        W19038  24.336  29.363  27.384 -0.0440 -0.0516  0.0582
76048W        W19039   4.382  26.043  27.860  0.1100 -0.1789 -0.2540
76049W        W19040  11.871  13.627   7.317 -0.0045  0.1558 -0.2981
76050W        W19041   7.623  21.934   8.213  0.2414 -0.1839 -0.0356
76051W        W19042   1.270  23.106   6.596 -0.0122 -0.1560 -0.1112
76052W        W19043  23.786  24.537   4.305  0.2041  0.0756 -0.0612
76053W        W19044  18.003  30.216   8.134  0.0005 -0.3371 -0.1850
76054W        W19045  14.494  30.354  10.401  0.3482  0.0518  0.2652
76055W        W19046   1.995  31.434   1.446 -0.0678  0.0950  0.1613
76056W        W19047   1.031  33.353   1.630  0.0991 -0.0766 -0.1274
76057W        W19048  11.925   9.043   2.435 -0.2165  0.4026  0.0024
76058W        W19049   4.497   1.525   3.577  0.1414 -0.0928  0.2525
76059W        W19050   5.634  20.633   2.284 -0.0009  0.1849 -0.1816
76060W        W19051  32.554   4.109  28.353  0.0101 -0.0686  0.4801
76061W        W19052  32.837   1.893  25.952  0.0405 -0.1246 -0.1141
76062W        W19053   6.629   6.451   0.617  0.0306  0.0483 -0.0734
76063W        W19054  34.716   7.467  19.932  0.1901 -0.3975  0.1126
76064W        W19055   5.363  33.702   5.442  0.1919  0.1965 -0.1807
76065W        W19056   9.495  29.859  11.032 -0.1548 -0.3171 -0.0741
76066W        W19057  10.962  19.031   6.051  0.1093 -0.0012 -0.0656
76067W        W19058   4.960  32.580   6.575  0.0358  0.2399  0.1268
76068W        W19059  20.943  18.891  26.314 -0.1177  0.2594 -0.0591
76069W        W19060   3.367   0.393   8.902 -0.1027  0.0098  0.0953
76070W        W19061   4.495  25.184   3.040 -0.0010 -0.1200 -0.0910
76071W        W19062   7.599  20.736   8.463 -0.0950 -0.0722 -0.0486
76072W        W19063  11.647  15.312   3.109 -0.4987 -0.1106 -0.0425
76073W        W19064  21.260  19.956  20.129 -0.3239 -0.0045  0.0354
76074W        W19065   4.825   7.116   5.945 -0.2173  0.0274  0.2853
76075W        W19066   3.017  33.160  14.919 -0.1870  0.1914  0.1881
76076W        W19067  13.733  13.210   2.633  0.1162  0.0839  0.1130
76077W        W19068  29.083  11.500  18.923 -0.1546  0.1462 -0.0973
76078W        W19069   8.550  18.514   4.111  0.1143  0.1252  0.1964
76079W        W19070  18.011  31.782   3.222  0.0813 -0.1534  0.0374
76080W        W19071   2.046   2.766  22.729 -0.1641  0.1960  0.2318
76081W        W19072   9.713  30.712   6.609 -0.0144  0.1509  0.0393
76082W        W19073   9.456  18.786  26.605 -0.0751 -0.1064 -0.1404
76083W        W19074   9.184   0.411   9.100  0.0641 -0.2488  0.3713
76084W        W19075   2.074   1.649   6.339  0.2885  0.3011  0.2052
76085W        W19076   5.170  29.311   4.428 -0.1884 -0.1323  0.0471
76086W        W19077   4.873  28.689  19.180  0.1311  0.1221 -0.2624
76087W        W19078   1.797   6.934   4.506 -0.0321 -0.1456  0.2548
76088W        W19079   1.609   1.481  15.140  0.0091 -0.2920 -0.1400
76089W        W19080  14.500  21.288  18.683  0.1416  0.1419 -0.0983
76090W        W19081  26.256  14.193   1.591 -0.1649 -0.2530  0.0706
76091W        W19082  14.610   4.867  21.404  0.0167 -0.1081 -0.0450
76092W        W19083   3.250   9.348   8.327  0.1160  0.1450  0.0259
76093W        W19084  19.709   9.072  28.717  0.0110 -0.3610  0.2036
76094W        W19085  12.840  33.751   9.413  0.1727 -0.2048 -0.2556
76095W        W19086  14.499  27.875  20.765 -0.0118 -0.0088  0.0767
76096W        W19087  16.367  30.515   8.427  0.0617 -0.2972 -0.0058
76097W        W19088   0.060  18.184  27.437  0.1002 -0.1642 -0.2721
76098W        W19089  17.237  30.282   2.511  0.1638 -0.0257  0.0798
76099W        W19090  30.802   3.363   0.283 -0.1371 -0.0187 -0.0351
76100W        W19091  34.696   2.657   1.192  0.1442  0.0156 -0.0204
76101W        W19092  13.309  19.913  15.809 -0.0563  0.0221 -0.1303
76102W        W19093  15.677   3.868  19.650  0.1986  0.3219  0.3853
76103W        W19094  15.565  34.695  23.853 -0.0862 -0.2144 -0.1070
76104W        W19095  16.937   1.385  19.954 -0.0540 -0.1786  0.0309
76105W        W19096   9.643  14.037   3.206 -0.1037 -0.0427  0.0658
76106W        W19097   0.802  19.467   3.615  0.1533 -0.0798 -0.2419
76107W        W19098   3.116  33.300   2.007 -0.0085  0.0005 -0.0925
76108W        W19099   3.738  15.038   5.117 -0.2441  0.2705  0.0050
76109W        W19100  13.468  32.828  14.787 -0.1487 -0.0108  0.0350
76110W        W19101  34.436  29.166   4.041 -0.3255 -0.0027  0.0644
76111W        W19102   5.924  15.253  25.414  0.3769 -0.1158  0.1130
76112W        W19103  34.483   7.938   1.336  0.1056 -0.2332 -0.2405
76113W        W19104  17.921  10.761  24.119 -0.2349 -0.1018  0.2520
76114W        W19105  34.485  26.057  25.196  0.3203  0.2544  0.2901
76115W        W19106  19.364  25.421  26.393 -0.5378 -0.1028  0.1053
76116W        W19107   1.528  33.919   5.420 -0.0212 -0.1890 -0.2246
76117W        W19108  33.633   5.144  24.288  0.0151 -0.1323 -0.1336
76118W        W19109  14.394   4.584   4.300 -0.1881  0.2441 -0.1010
76119W        W19110  13.867   0.898  27.018  0.1075  0.1295 -0.1161
76120W        W19111  27.781   5.403   0.196  0.3704 -0.0222  0.3178
76121W        W19112  30.888  32.469   8.465 -0.2646  0.0156  0.1244
76122W        W19113  15.927  34.714   3.920  0.3413 -0.0735  0.1974
76123W        W19114  29.320  21.038   8.597  0.0141  0.0479  0.0096
76124W        W19115   5.907   2.692   2.788  0.1057 -0.2143  0.0782
76125W        W19116  25.018   6.972  18.844 -0.3737  0.2728  0.0285
76126W        W19117   4.036  13.099   4.149 -0.1583  0.0871  0.1442
76127W        W19118  11.638  31.106  28.567  0.2353  0.0122 -0.0566
76128W        W19119   9.661  26.198  22.361  0.3131  0.1312 -0.1596
76129W        W19120  25.046  20.668  24.505  0.0737 -0.0653 -0.0214
76130W        W19121  31.200  30.472  16.578 -0.1844  0.0942  0.0964
76131W        W19122   7.973  23.556  27.144  0.0969  0.1016 -0.2156
76132W        W19123  15.440  14.547   6.165  0.0830 -0.1543 -0.2797
76133W        W19124  15.881  28.861   1.166  0.2293 -0.3927  0.1792
76134W        W19125   1.283  24.160   3.187  0.1439  0.3160  0.1900
76135W        W19126  17.616  31.362  10.210 -0.1161  0.0253 -0.0812
76136W        W19127  18.741   5.444   3.924  0.1910 -0.1731  0.0530
76137W        W19128   9.288  16.176   9.724  0.0869 -0.0694  0.0160
76138W        W19129  13.273  24.099  23.465 -0.0584 -0.0075 -0.1058
76139W        W19130   4.767   2.958   0.701  0.1151 -0.0201  0.1790
76140W        W19131  13.139  26.555  19.292 -0.2036  0.1590 -0.3114
76141W        W19132  21.987  28.557  23.951  0.2807  0.3883 -0.0344
76142W        W19133  12.876   2.219  11.684  0.2355 -0.1252 -0.2974
76143W        W19134   8.670  28.412  18.934 -0.0512  0.2703  0.0257
76144W        W19135  25.558  30.270  25.704  0.3676 -0.0745 -0.0340
76145W        W19136   3.895  14.422   0.364  0.2017  0.0126  0.0358
76146W        W19137  19.280   9.178  24.644  0.0082  0.1216 -0.0133
76147W        W19138  34.389   2.263   0.283 -0.0881  0.1864  0.0022
76148W        W19139   2.661  22.450  21.093 -0.0452 -0.1133  0.0081
76149W        W19140   0.963  22.440  18.193 -0.0486  0.1644  0.1387
76150W        W19141  21.531  32.663   8.495  0.0502  0.1561 -0.0343
76151W        W19142   0.822  31.558   5.062  0.2415  0.1382  0.2497
76152W        W19143  13.596  26.926   2.980  0.1165 -0.0197  0.1361
76153W        W19144  12.574  30.618   7.250  0.1295 -0.0989 -0.1238
76154W        W19145   3.031  29.712   7.382  0.0443 -0.3857  0.0447
76155W        W19146  30.636  23.932  27.852 -0.0649 -0.0806  0.1737
76156W        W19147  16.141  12.153  18.458 -0.1707 -0.2365 -0.2636
76157W        W19148  30.815  30.895   3.431  0.0569 -0.2187 -0.3191
76158W        W19149  26.855  24.042  24.624 -0.1146  0.2491  0.1170
76159W        W19150  16.338   4.212  27.291 -0.1526 -0.0169 -0.1544
76160W        W19151  16.876  27.101   6.348 -0.0337 -0.5319 -0.2151
76161W        W19152  12.709   4.357  28.299  0.1180 -0.1123  0.1128
76162W        W19153   6.911  25.921  25.522  0.2213  0.2399  0.2072
76163W        W19154  28.377  30.232   5.344  0.0805 -0.4094 -0.1043
76164W        W19155   3.910   3.076   5.080  0.5577 -0.0162 -0.4106
76165W        W19156   2.971   9.430  29.127 -0.2631 -0.0552 -0.2038
76166W        W19157  15.109   3.929  19.674 -0.0267 -0.0212 -0.1035
76167W        W19158  30.901  10.071  24.224 -0.0263  0.0325 -0.2965
76168W        W19159  10.224   5.478  15.565 -0.0032  0.0524 -0.0650
76169W        W19160  12.792  26.095   8.323  0.2819 -0.2984 -0.3479
76170W        W19161  19.136   8.077  23.990  0.0800 -0.2288  0.0835
76171W        W19162   6.134  27.238   8.673  0.1248  0.0647 -0.0039
76172W        W19163   7.978  20.568   8.138  0.1330  0.1637 -0.0423
76173W        W19164   5.511   3.622  21.218 -0.2703  0.1150  0.0910
76174W        W19165   0.523  14.142   9.725 -0.1073 -0.0391  0.1565
76175W        W19166  11.464   0.891   6.339  0.2458  0.1160  0.0187
76176W        W19167  26.507  33.350  15.125  0.3575  0.1010 -0.0221
76177W        W19168  16.592  26.876   8.881 -0.1844 -0.0119  0.1320
76178W        W19169   6.318   2.605  15.727 -0.0871  0.0809 -0.0066
76179W        W19170   7.286  28.198  23.731 -0.1993 -0.0949 -0.1086
76180W        W19171   7.831  28.831  27.721 -0.0403 -0.1486 -0.2821
76181W        W19172  13.786  32.998   7.808 -0.1314  0.3472 -0.0552
76182W        W19173   9.833  34.050   1.934  0.0973  0.0842 -0.1380
76183W        W19174   7.145  26.853  27.622 -0.2184 -0.0559  0.0801
76184W        W19175  13.471  21.524   7.346 -0.1412 -0.2008 -0.1406
76185W        W19176   4.525   7.576   5.861  0.2344 -0.2194 -0.0722
76186W        W19177   2.547  27.314  15.278 -0.1514  0.1874  0.2311
76187W        W19178  34.418  24.563  26.946 -0.2219  0.0809  0.0923
76188W        W19179  16.228  29.128   8.951  0.3832 -0.1252  0.1332
76189W        W19180  20.967  32.855   4.722  0.1166 -0.4238 -0.3137
76190W        W19181  10.206  34.776   4.727  0.1683 -0.0045 -0.1031
76191W        W19182  27.478  28.176   6.041  0.0624  0.0258 -0.1254
76192W        W19183  28.088  20.633  22.181  0.0773 -0.0077  0.2105
76193W        W19184   0.830  28.810   2.066  0.3129 -0.1801 -0.4141
76194W        W19185  28.925  14.876   3.010  0.0177  0.0832  0.1277
76195W        W19186   3.496   3.020  27.509 -0.3877 -0.0630  0.0461
76196W        W19187  23.979   3.451   5.300 -0.1311  0.2307  0.1631
76197W        W19188  28.667   0.427  12.240 -0.2582  0.1817  0.2302
76198W        W19189  30.091  14.769   5.503 -0.1442  0.1229  0.1429
76199W        W19190  33.831  31.632  25.255 -0.0049  0.2125 -0.0175
76200W        W19191   5.835  32.124  21.002 -0.0352 -0.1258  0.0605
76201W        W19192  13.003  24.600   5.511  0.2684 -0.0934  0.0644
76202W        W19193   9.249   9.083   5.476  0.0473 -0.2118  0.0671
76203W        W19194  29.186   9.023  26.155  0.0587  0.1581 -0.0207
76204W        W19195  26.856  11.350  24.168 -0.0548  0.0617  0.1579
76205W        W19196  21.796  30.456   6.728 -0.1787  0.3344 -0.1626
76206W        W19197  28.300   6.387  25.587 -0.1840 -0.0354 -0.2588
76207W        W19198   6.417  34.475   2.980  0.0219  0.1151 -0.0392
76208W        W19199  14.146   4.549  11.389 -0.1735  0.1968  0.0328
76209W        W19200  10.287   0.222   2.665  0.0343  0.0674 -0.2174
76210W        W19201   5.182  26.129  23.780 -0.3875  0.2103 -0.0243
76211W        W19202  31.692  20.047  22.998  0.0446 -0.0465 -0.3974
76212W        W19203  29.028  32.813  16.469 -0.1890  0.2077 -0.2364
76213W        W19204  13.864  32.444  25.530 -0.1493  0.0446 -0.3441
76214W        W19205   0.047  15.456  21.895 -0.1446  0.1327 -0.1289
76215W        W19206  24.170  24.018   0.925 -0.0211 -0.2540  0.0822
76216W        W19207   9.295  22.432  24.007  0.1065  0.1068 -0.2053
76217W        W19208   9.390  33.090   7.237 -0.1335 -0.1610 -0.2588
76218W        W19209   7.596  27.892  27.264 -0.2338 -0.0852 -0.1025
76219W        W19210   3.075   1.399   6.783 -0.1970 -0.2842 -0.2847
76220W        W19211  15.684  19.131   3.317  0.1952 -0.2372  0.2034
76221W        W19212   5.823   9.003   2.451 -0.0337  0.0885 -0.0283
76222W        W19213   8.315  28.183  22.516 -0.0051 -0.1289  0.1063
76223W        W19214   0.632  34.155  29.157 -0.3698 -0.2396 -0.0679
76224W        W19215  34.044   6.241   9.780 -0.1006 -0.0273 -0.0219
76225W        W19216  25.439  11.908  26.590 -0.0624 -0.0822 -0.5988
76226W        W19217  13.009   7.608  19.686  0.1117 -0.2252  0.2346
76227W        W19218   9.356   3.699   1.848  0.0840  0.1764  0.1454
76228W        W19219  17.350  30.111   3.358 -0.0789 -0.0157 -0.1341
76229W        W19220  20.503  30.445  26.008  0.4347 -0.0477  0.0090
76230W        W19221   4.767  34.658   3.854 -0.1220 -0.1276  0.0144
76231W        W19222  34.373   9.117   8.614  0.2006 -0.0290  0.2126
76232W        W19223   8.780  34.196  25.873 -0.0398  0.2561  0.1277
76233W        W19224  10.805  18.082  29.210 -0.5320 -0.0869  0.1881
76234W        W19225  33.094   3.754  26.365 -0.1859 -0.0881  0.1824
76235W        W19226  17.817  26.871  26.561  0.2645 -0.2666  0.2054
76236W        W19227  29.271   9.053   6.070 -0.0744  0.0089  0.0971
76237W        W19228   3.435   5.336  28.913  0.0732  0.1116 -0.2194
76238W        W19229  28.880  32.783  23.580  0.2894  0.0178  0.0665
76239W        W19230   1.999   0.090   1.222  0.0929  0.0706 -0.0142
76240W        W19231  10.858  18.515  16.993  0.0424  0.0935  0.0850
76241W        W19232   9.664  31.413   4.177  0.1560  0.0390  0.0744
76242W        W19233   9.501  31.729   4.982  0.0870 -0.3234  0.1394
76243W        W19234  18.858  16.908   7.551  0.2871  0.1674 -0.3010
76244W        W19235  24.848   4.364  23.783 -0.1677  0.0005  0.1670
76245W        W19236  27.930  29.988   7.103  0.1001 -0.0230  0.3460
76246W        W19237  30.362   1.428  24.470  0.0831  0.2511  0.3213
76247W        W19238  34.655  29.996   7.805 -0.0301  0.0183  0.1997
76248W        W19239   8.439  33.160  23.889  0.0534  0.2027 -0.1032
76249W        W19240  33.533  22.492   3.706 -0.4219 -0.0776  0.2003
76250W        W19241   9.553  33.068   5.871  0.2895  0.0017 -0.1047
76251W        W19242   9.325  22.457   5.123 -0.0063  0.0253  0.1863
76252W        W19243   8.748  33.850   7.467  0.3971  0.0377 -0.1720
76253W        W19244  10.270   7.782  19.280  0.1246 -0.3982  0.0189
76254W        W19245  16.512   1.231   8.003  0.2366 -0.1334 -0.0623
76255W        W19246  33.329  26.504   1.289  0.0717 -0.2009 -0.2104
76256W        W19247  24.841  34.696   9.392  0.0541  0.3399 -0.4134
76257W        W19248   0.397  21.882  27.159 -0.2186  0.1506 -0.2347
76258W        W19249   5.405  24.343  17.194  0.0950  0.1100 -0.2119
76259W        W19250   5.117   7.064   4.603 -0.1266 -0.1761 -0.0590
76260W        W19251  19.211   7.926  24.438  0.4259  0.2261 -0.0924
76261W        W19252  33.119  23.634   2.245  0.0761 -0.1228  0.0517
76262W        W19253  28.247  29.187  23.569 -0.1539 -0.0448  0.1888
76263W        W19254  31.780   2.778   5.730 -0.4817  0.2380 -0.3992
76264W        W19255  33.652  20.467   0.432  0.0750 -0.0908  0.2117
76265W        W19256   7.047  24.874   7.730  0.1546  0.0541 -0.0837
76266W        W19257   1.446  26.689   9.205  0.5214  0.3209  0.3025
76267W        W19258  13.833  15.021  29.074  0.0384  0.3159 -0.0892
76268W        W19259  28.835   1.951  25.802  0.2602 -0.1880  0.0570
76269W        W19260   9.558  14.333   0.978 -0.1122 -0.0341  0.1396
76270W        W19261  34.220   1.183   6.925 -0.0046  0.1463  0.0367
76271W        W19262  10.139  28.408   7.689 -0.1105 -0.2468 -0.0336
76272W        W19263  28.593  33.506  14.885  0.5477  0.1565  0.0760
76273W        W19264  31.391  29.530   6.601  0.1847  0.0266 -0.2805
76274W        W19265   4.400   3.813  22.824  0.0300  0.0363 -0.2465
76275W        W19266  14.184  30.844   9.153  0.1108 -0.0086  0.0785
76276W        W19267   6.529  34.674   4.352 -0.3299  0.0782 -0.2338
76277W        W19268  13.074  30.225   2.273 -0.0297 -0.2798  0.1179
76278W        W19269  21.643   0.512   4.668  0.4847  0.3099  0.0830
76279W        W19270  15.390  23.725  21.693 -0.1076 -0.0122  0.0335
76280W        W19271  12.687  14.261  20.828  0.1391 -0.0785 -0.0924
76281W        W19272  32.790  31.780  24.406 -0.1892 -0.0453 -0.0741
76282W        W19273  29.837   6.433   7.978  0.1028  0.2921 -0.0294
76283W        W19274   0.130   1.874   2.362 -0.0794  0.3372  0.1936
76284W        W19275  17.904  11.504   0.966 -0.3840 -0.0668 -0.1362
76285W        W19276   2.911   6.117  16.316  0.0538 -0.0173  0.0723
76286W        W19277  14.699   4.566   7.252 -0.1913 -0.2526 -0.3149
76287W        W19278  33.393  24.267   4.254 -0.1272 -0.1395 -0.1828
76288W        W19279  15.947  24.899   4.680  0.1636 -0.1413  0.2030
76289W        W19280   0.512  10.178   7.240  0.0523 -0.0190  0.3030
76290W        W19281   0.724  24.453   5.514 -0.0929  0.1164 -0.1134
76291W        W19282   7.766   2.882  26.892  0.0507  0.2879  0.2456
76292W        W19283  34.643   3.652   9.695 -0.0215  0.0505 -0.3301
76293W        W19284   2.531   6.032   4.366 -0.1057 -0.0607 -0.1333
76294W        W19285  28.842  34.229   6.378  0.0837 -0.0395 -0.0213
76295W        W19286  15.083  21.562  24.229 -0.1653  0.1561 -0.0350
76296W        W19287   7.883   7.329   2.270 -0.0024 -0.1414  0.1965
76297W        W19288   1.778  31.976  16.907 -0.0165 -0.1835 -0.2628
76298W        W19289  31.374   4.621  23.817  0.1844 -0.3386  0.0438
76299W        W19290   9.908   0.678  23.829  0.0141 -0.0970 -0.0163
76300W        W19291  32.867  29.357  22.934 -0.0223 -0.0519 -0.3066
76301W        W19292  14.486   8.425   9.954 -0.2304 -0.3526 -0.3741
76302W        W19293   4.659  26.948   4.237 -0.3227  0.1945  0.1462
76303W        W19294  27.504  31.433  12.188  0.1075 -0.0381  0.1856
76304W        W19295  24.843   4.173  23.346 -0.1275 -0.5081  0.0429
76305W        W19296   6.378  33.267  28.031  0.0628  0.0028  0.0617
76306W        W19297  10.419  29.654  10.487  0.0751  0.4824 -0.0279
76307W        W19298  33.948  29.284   7.794 -0.1788 -0.1678  0.0524
76308W        W19299  14.080  19.405  24.499  0.1663  0.0738  0.2311
76309W        W19300   3.323  21.814   0.477 -0.0574  0.1101  0.2866
76310W        W19301  20.723  22.453   8.524  0.0784  0.3149 -0.1649
76311W        W19302   1.367  27.007   2.064  0.1483 -0.1417  0.2159
76312W        W19303  31.555  22.516  19.201 -0.0232 -0.0142 -0.0704
76313W        W19304  15.447   2.750   9.177 -0.0382  0.0482 -0.1627
76314W        W19305   5.352  27.113   6.677  0.1313 -0.2139 -0.1270
76315W        W19306   5.572   8.636  11.091  0.1810  0.1395  0.0172
76316W        W19307   7.199  10.305   4.655 -0.2887 -0.0055 -0.2157
76317W        W19308  13.771  11.030  25.832 -0.0612  0.2026 -0.2534
76318W        W19309   8.424   0.527  27.039 -0.0249  0.0319 -0.1407
76319W        W19310   3.172   9.870   0.976  0.1859  0.1541  0.1256
76320W        W19311   5.956  23.934  27.216 -0.1319  0.2783 -0.1995
76321W        W19312  18.275   2.331  10.370 -0.4007  0.0216 -0.1647
76322W        W19313  10.504  31.454   6.563  0.1698  0.1770 -0.0001
76323W        W19314  28.913  25.879   7.954  0.2867 -0.1161 -0.0190
76324W        W19315  14.890  26.370  21.484  0.4572 -0.2972  0.1013
76325W        W19316  22.278   4.281  27.415  0.0477 -0.0069 -0.0898
76326W        W19317  10.523  23.694  22.651 -0.0259  0.0733 -0.0286
76327W        W19318  17.724   1.730  22.554 -0.0289  0.1724  0.0538
76328W        W19319  15.040  34.134  27.116  0.2614 -0.2375 -0.0505
76329W        W19320  34.739  32.767  10.226  0.1631 -0.0394 -0.0344
76330W        W19321   6.917  22.936   9.618  0.0440  0.2794 -0.0496
76331W        W19322  16.106   4.870  16.361  0.1128 -0.0854  0.2160
76332W        W19323   8.250   1.405  18.909 -0.1214 -0.3364  0.4697
76333W        W19324  29.774  33.456  26.785  0.2569 -0.0214 -0.4274
76334W        W19325   2.836   5.588  29.023 -0.1723  0.1606  0.1313
76335W        W19326   1.842   6.131   6.043 -0.0655 -0.1922  0.1031
76336W        W19327   6.275  30.965   5.893  0.0458  0.2250 -0.0776
76337W        W19328  29.315  34.096   7.456  0.0166  0.0278 -0.2333
76338W        W19329  31.752  26.857   4.228  0.0506 -0.1576  0.0605
76339W        W19330  12.205   2.994  20.530  0.0919 -0.2141  0.0510
76340W        W19331  31.022  27.788  27.573 -0.0841  0.2196  0.0496
76341W        W19332  27.292  12.094   3.697 -0.1169 -0.0550 -0.0167
76342W        W19333  24.691   3.046  25.041 -0.0701 -0.0863 -0.0868
76343W        W19334   4.121   7.491  11.743 -0.2486 -0.3733  0.1158
76344W        W19335  19.720  27.030   3.803  0.3164  0.0804  0.0015
76345W        W19336   4.158  34.794   4.956  0.1004  0.0948 -0.2727
76346W        W19337  21.113  30.475  27.728 -0.0402 -0.0612  0.0764
76347W        W19338   8.661   3.678   4.603 -0.0063  0.0243  0.0176
76348W        W19339  16.284  24.408   8.206 -0.0246 -0.1255  0.1070
76349W        W19340   5.753  12.223   6.770  0.3143 -0.0825 -0.2789
76350W        W19341  10.248  14.318  25.349 -0.1447 -0.4185  0.3722
76351W        W19342  22.749  11.203   7.236 -0.0177 -0.0003  0.2128
76352W        W19343  21.294  28.215  26.031  0.1850 -0.3963  0.0605
76353W        W19344   3.227  16.138   5.673 -0.0781 -0.2551  0.1077
76354W        W19345  32.457  14.910  28.914 -0.0722 -0.0239 -0.1235
76355W        W19346   5.658  15.017  15.788  0.1522  0.2168  0.3073
76356W        W19347  13.735  30.820   1.998  0.1104  0.2312 -0.1215
76357W        W19348  30.821  23.087   3.896 -0.0921 -0.0479  0.2486
76358W        W19349   5.806  25.249  27.164  0.1617 -0.2013 -0.0395
76359W        W19350   3.087   9.194   7.476 -0.0325  0.0913  0.1074
76360W        W19351  16.351  13.105   7.550 -0.1645 -0.0514 -0.0809
76361W        W19352  22.308  31.639  22.959  0.0816  0.2111 -0.0445
76362W        W19353   9.214  32.776   0.319 -0.0941  0.2793 -0.2075
76363W        W19354  22.984  12.428  26.379  0.4704  0.0841  0.2012
76364W        W19355  14.076  32.849  17.262 -0.1073 -0.0098  0.1922
76365W        W19356   4.042   9.611   6.268  0.2670  0.0188 -0.2637
76366W        W19357   7.952  12.085  29.202 -0.0162  0.0211 -0.2705
76367W        W19358   6.254  34.021  29.099  0.2923  0.3852 -0.1737
76368W        W19359   3.937  28.217  23.356  0.1579  0.0209 -0.2067
76369W        W19360   0.640  10.122   6.425 -0.1838  0.0270 -0.1222
76370W        W19361   7.043  11.839   1.412  0.1200  0.3566 -0.2418
76371W        W19362  30.859   5.789   3.397  0.0596  0.1480 -0.2930
76372W        W19363  11.208  17.905   0.131 -0.1046  0.0246 -0.0330
76373W        W19364   2.906  22.851  10.148 -0.2558  0.0017  0.0771
76374W        W19365  31.985  33.989   7.422  0.0240 -0.2316 -0.3074
76375W        W19366  13.448  10.596   6.422 -0.2689 -0.0448  0.2925
76376W        W19367  24.028  11.407  14.507  0.1702 -0.1430  0.0331
76377W        W19368   2.982  20.811   9.919 -0.1370  0.1834  0.6137
76378W        W19369  17.115  19.974   3.940 -0.0832 -0.1041 -0.1020
76379W        W19370  10.595  27.141   2.541  0.0620 -0.2533 -0.1661
76380W        W19371  12.824  20.739   9.077 -0.1607 -0.1259  0.0587
76381W        W19372  10.522  29.018   9.776  0.1769 -0.1109 -0.0018
76382W        W19373   1.775  18.295   1.726  0.1603 -0.1256  0.0906
76383W        W19374   2.303  34.394   9.809  0.0116  0.1098  0.0832
76384W        W19375  29.251   5.222  20.985  0.2735  0.3310  0.2155
76385W        W19376   2.479  25.802   9.705  0.0094  0.2686 -0.0963
76386W        W19377   0.773   4.848  26.478  0.1453  0.6507  0.3603
76387W        W19378  31.255  20.104   1.440  0.0557 -0.1515  0.1301
76388W        W19379  14.461  27.280  23.099  0.1212 -0.3753 -0.1178
76389W        W19380  29.391  27.206   8.269  0.1304 -0.3966  0.1534
76390W        W19381  10.325  20.416   0.730 -0.0567  0.0038 -0.1658
76391W        W19382  11.702   6.765  22.929 -0.1102  0.2479  0.1998
76392W        W19383   1.938  34.416   6.265  0.1566  0.1832 -0.2676
76393W        W19384  10.169  34.609  28.878 -0.0046  0.1572  0.0338
76394W        W19385  16.772   1.166   4.591 -0.1339  0.1095 -0.0030
76395W        W19386  11.698   5.339   5.934 -0.1215  0.1338  0.0973
76396W        W19387  34.632   6.556   3.490  0.1035  0.1566 -0.1231
76397W        W19388  18.072  34.022  27.376 -0.1066 -0.4928 -0.1579
76398W        W19389  10.181  25.725  23.029  0.0587  0.0900  0.0294
76399W        W19390   1.229  33.856   7.068 -0.0617  0.1235  0.1497
76400W        W19391  16.037  33.555   2.204  0.0829 -0.0543  0.0755
76401W        W19392  18.118  21.034  25.207  0.2840  0.2141  0.2668
76402W        W19393   1.091  29.361   4.487  0.3545  0.1088 -0.0320
76403W        W19394   8.881  18.984  29.142  0.3006 -0.4411  0.2791
76404W        W19395   2.608  30.070   9.440 -0.0997 -0.1290  0.2211
76405W        W19396   1.355   1.426  16.789 -0.0414 -0.3279  0.0866
76406W        W19397  15.648  25.512  25.757  0.0630 -0.3337  0.2526
76407W        W19398  23.185  13.717  15.100  0.1689 -0.0877  0.0640
76408W        W19399   4.290  31.791   4.422  0.2139  0.0798  0.4533
76409W        W19400   8.054   3.496   8.448 -0.4856  0.1305  0.3180
76410W        W19401  16.851  10.081   6.699 -0.1020 -0.0692 -0.0657
76411W        W19402  15.342  27.703   5.590 -0.0213  0.1897 -0.1309
76412W        W19403  19.947  22.017   3.602 -0.0823 -0.5126 -0.1000
76413W        W19404  15.316   9.488   2.410 -0.1044  0.0005  0.4137
76414W        W19405  31.727  33.200   7.535 -0.0779 -0.0228 -0.1327
76415W        W19406   1.462  30.798   0.518  0.1766  0.2899  0.1171
76416W        W19407  34.618   1.719   1.936 -0.1707 -0.0662  0.1854
76417W        W19408  33.917  31.063   5.803 -0.1209  0.0411 -0.1768
76418W        W19409  19.091   8.163  28.608 -0.0694  0.0701 -0.2707
76419W        W19410  12.317  11.548  27.230  0.3446 -0.2196 -0.1934
76420W        W19411   1.088   7.035   1.360  0.0395  0.2620  0.0864
76421W        W19412  18.896   8.804   6.305  0.1217  0.0117  0.0745
76422W        W19413   4.582   6.821  22.558 -0.0258 -0.2702  0.0937
76423W        W19414   6.499  27.740   5.011  0.1189 -0.0742  0.0889
76424W        W19415   5.170   9.474  14.926 -0.2650 -0.2199 -0.0136
76425W        W19416  10.030   6.578   1.633  0.0813 -0.0323  0.3888
76426W        W19417   6.649   3.119  28.765  0.0223 -0.0068  0.1125
76427W        W19418  13.095  15.636  22.023  0.2975  0.1002 -0.4182
76428W        W19419   3.139  17.215  16.970  0.0211  0.0580 -0.0897
76429W        W19420   6.759  13.399   6.346 -0.4389  0.1338  0.3927
76430W        W19421   5.142  27.346  28.577 -0.1684 -0.1962  0.2071
76431W        W19422  20.025  19.878  25.698  0.0410 -0.0057 -0.2384
76432W        W19423  11.021   7.238   8.179 -0.3248 -0.2384  0.0958
76433W        W19424  20.177  23.235   7.833 -0.2051 -0.0135 -0.0111
76434W        W19425  29.400  18.786   6.092  0.2860 -0.1031 -0.0982
76435W        W19426   5.502  13.071   8.293 -0.0134 -0.2174  0.1030
76436W        W19427  28.866  23.762   0.206 -0.1321  0.0393 -0.3190
76437W        W19428  12.373  14.526   3.701 -0.3948  0.2670 -0.1395
76438W        W19429   1.659  29.703   2.725  0.1756  0.2466 -0.1942
76439W        W19430  15.912   1.301   6.640 -0.0413 -0.1125 -0.0167
76440W        W19431  12.008   3.950   4.595 -0.3611  0.3368  0.2633
76441W        W19432  16.682  31.131   7.200  0.0836  0.0918 -0.1231
76442W        W19433   3.123   4.449   1.785 -0.0896 -0.3017 -0.1616
76443W        W19434   3.053   9.028  24.130 -0.3386 -0.3465 -0.2130
76444W        W19435   0.564   5.997   8.447  0.1463 -0.0800 -0.1217
76445W        W19436   8.149   7.561   3.222  0.0351 -0.1446  0.0923
76446W        W19437  21.560  29.723   9.190  0.0621  0.0797 -0.1307
76447W        W19438   0.514  32.136   2.910  0.0574 -0.0953 -0.2461
76448W        W19439  28.540  23.644  27.911 -0.1420  0.0242 -0.1114
76449W        W19440   1.817  28.690   9.638  0.4310 -0.0619 -0.1452
76450W        W19441  29.774  32.530   0.495 -0.2419 -0.1980  0.1120
76451W        W19442   3.453  33.421   1.586  0.1972 -0.1800  0.1711
76452W        W19443   2.002   1.231  17.506 -0.1235 -0.1217  0.0826
76453W        W19444   9.863   1.732  19.005  0.1319 -0.0602 -0.0594
76454W        W19445   0.912  27.221   1.193  0.1683  0.2112  0.4713
76455W        W19446  24.866  11.978   6.808 -0.0090 -0.2137 -0.1261
76456W        W19447   9.376  26.412   0.753 -0.2333  0.2424 -0.1796
76457W        W19448  12.544  25.106   2.565 -0.1333  0.2476 -0.2004
76458W        W19449  24.770  30.984   2.044 -0.0026  0.1447 -0.0176
76459W        W19450  18.667  26.099   8.015  0.0518  0.1246 -0.1538
76460W        W19451  21.131  10.800  10.134 -0.0697 -0.0206  0.1156
76461W        W19452  12.056   3.607  27.467 -0.1221 -0.1414  0.0070
76462W        W19453  14.785  33.364  26.039 -0.1259  0.3975 -0.4130
76463W        W19454   9.619  11.981  24.771 -0.0485  0.3153  0.1459
76464W        W19455   7.294   1.286   3.409 -0.0158  0.0065 -0.0744
76465W        W19456  18.263  28.228  25.369 -0.1509 -0.0802  0.3007
76466W        W19457   6.479   2.886   7.460  0.1360 -0.2826  0.1058
76467W        W19458  19.025  29.745   5.148  0.0454  0.2016  0.3021
76468W        W19459  14.818  11.408   8.162  0.0320 -0.2901 -0.1536
76469W        W19460  32.032  20.149   9.125  0.1097 -0.1916  0.0889
76470W        W19461   1.781  13.573   1.607 -0.0711 -0.1696  0.0654
76471W        W19462   3.791   4.523   1.076 -0.0702  0.0781  0.0543
76472W        W19463  34.578  10.367   8.044  0.4866  0.0962  0.0575
76473W        W19464  26.971  31.902   7.313  0.0287  0.0238 -0.1130
76474W        W19465  14.907  22.822  23.900  0.0082 -0.0657  0.0150
76475W        W19466   8.440  33.954   8.007  0.0159  0.1145 -0.0404
76476W        W19467   7.136   7.836  22.773  0.1438 -0.0974  0.0721
76477W        W19468   7.996  28.649  26.725  0.1102  0.5053 -0.0125
76478W        W19469  10.599  27.192  29.155  0.1170 -0.0055 -0.0658
76479W        W19470  29.345  19.094   2.040 -0.0795  0.0743  0.0546
76480W        W19471   6.322  27.456  10.388  0.2974  0.1703  0.2354
76481W        W19472  29.162  20.416  24.161 -0.1340  0.4359  0.0305
76482W        W19473  10.807  27.222  27.271  0.0913  0.2287  0.0794
76483W        W19474  24.263  13.440  26.580 -0.2372 -0.1253  0.0689
76484W        W19475   1.476   9.116   5.624 -0.1553  0.0172  0.1620
76485W        W19476  17.084  19.138  18.298 -0.1406  0.1642 -0.1004
76486W        W19477  33.218   9.848  10.161  0.1155 -0.3178  0.2855
76487W        W19478  17.417   3.844   7.422 -0.0101  0.0235  0.3863
76488W        W19479  19.240   0.043  27.322  0.0734 -0.0920 -0.1335
76489W        W19480   0.821  18.039   2.790  0.0112  0.0625  0.0019
76490W        W19481   5.968   2.170  26.765 -0.2349 -0.0178  0.1394
76491W        W19482   8.054   6.267   4.141 -0.2951  0.0601 -0.0668
76492W        W19483  25.063   3.892   8.589  0.3345  0.1212 -0.2080
76493W        W19484  11.781   3.241   9.176 -0.1245 -0.3511  0.2238
76494W        W19485  26.180   4.928   6.590 -0.3560  0.0314  0.1613
76495W        W19486  11.789   4.870  29.080 -0.1593 -0.0367  0.1124
76496W        W19487   7.752  31.530   8.908 -0.1207  0.3600 -0.1634
76497W        W19488  28.144  33.475   3.247 -0.0535  0.0009  0.2433
76498W        W19489   5.390   3.643  26.406 -0.1013  0.0033 -0.0415
76499W        W19490   8.315   7.376   7.976  0.2182  0.3517 -0.1865
76500W        W19491   2.176  33.345   0.735  0.0345  0.1032 -0.2652
76501W        W19492   8.872  33.817  23.436  0.1641 -0.0437  0.0079
76502W        W19493  12.921  19.811  27.385 -0.0710 -0.0838 -0.1706
76503W        W19494   0.390  34.694  26.128 -0.0165 -0.2002 -0.3834
76504W        W19495  27.682   8.722   7.680  0.0180  0.1583  0.2342
76505W        W19496  23.957  32.708   2.648 -0.2463  0.0665  0.1932
76506W        W19497  11.004  13.822  27.388  0.1572 -0.1523 -0.0691
76507W        W19498   0.092  32.394  28.370  0.0416  0.0256  0.2933
76508W        W19499  23.070  30.552  28.050 -0.0884 -0.0712  0.0195
76509W        W19500  15.186  29.691  10.054 -0.0423 -0.0130  0.0249
76510W        W19501   7.957  32.778   3.523  0.4089 -0.0809  0.1525
76511W        W19502  16.561  33.389   4.826  0.0321  0.2928 -0.0277
76512W        W19503   8.850   2.093   4.257  0.1280 -0.3624 -0.1953
76513W        W19504  30.608  28.366  28.865 -0.1076 -0.2188  0.1194
76514W        W19505   4.541  17.680   3.135 -0.1831 -0.1489  0.0564
76515W        W19506   6.692   0.833   9.670  0.0347 -0.0748  0.0854
76516W        W19507  29.799   5.301  28.366  0.0661  0.0607 -0.0585
76517W        W19508   6.422  31.202   5.170 -0.1923  0.0624  0.2899
76518W        W19509   6.315   9.043   4.587 -0.2255  0.2137  0.0767
76519W        W19510  21.323  28.640   4.664 -0.1579 -0.1836 -0.0323
76520W        W19511  30.045  11.082   7.664 -0.3965 -0.2894  0.0677
76521W        W19512   2.683   3.083   9.924  0.2165 -0.0338 -0.1845
76522W        W19513   4.822   1.373   7.752 -0.5499  0.0218 -0.2817
76523W        W19514  11.304  23.357   6.419  0.2239  0.3515 -0.0476
76524W        W19515  13.378   3.037   6.487 -0.1980 -0.1312 -0.2841
76525W        W19516   4.557   7.295   9.868  0.0449 -0.0798  0.2549
76526W        W19517   6.434  22.673   9.564 -0.0294  0.6206  0.2525
76527W        W19518   2.050  13.627   6.108 -0.0127  0.1322  0.0495
76528W        W19519  28.369  27.800   1.841  0.3666  0.1139  0.0983
76529W        W19520   8.331  24.164   7.561  0.0051  0.2836  0.1357
76530W        W19521   0.592  17.359  28.628  0.1622 -0.2752 -0.0835
76531W        W19522   4.440  20.511   8.549  0.1306 -0.1411  0.1469
76532W        W19523   8.537  29.828  26.514  0.1630 -0.0987 -0.0433
76533W        W19524  12.505  29.672   0.493 -0.2287  0.4220 -0.4013
76534W        W19525  29.525   8.285  28.927 -0.0593 -0.2829 -0.0536
76535W        W19526  11.601  28.464   8.627  0.1436  0.2110 -0.2607
76536W        W19527   5.838  10.207   8.160 -0.1358 -0.0228 -0.2451
76537W        W19528   0.174  33.314   3.604  0.0817 -0.0146 -0.2020
76538W        W19529  12.738   5.576   2.248  0.1152 -0.3138 -0.2314
76539W        W19530  14.970   9.919   9.441 -0.1436 -0.3076  0.3560
76540W        W19531   7.875  17.994   8.624  0.3006 -0.1198  0.0276
76541W        W19532   4.060  24.593  24.402 -0.1690  0.0860 -0.0902
76542W        W19533   9.241  32.621   5.710  0.0728 -0.0462  0.0658
76543W        W19534  34.309  18.710  11.063 -0.1322  0.0499  0.0410
76544W        W19535  34.649  16.099  20.579  0.1894  0.2839  0.1190
76545W        W19536  32.389  14.279  10.129  0.1667 -0.0047 -0.0955
76546W        W19537   0.699  31.778   4.234 -0.0624 -0.0165 -0.0408
76547W        W19538   5.357  20.073   5.310  0.2057 -0.1444  0.0250
76548W        W19539  10.365  21.318  26.920  0.0996 -0.1510  0.0405
76549W        W19540  11.620  25.108   3.261 -0.0848 -0.0796  0.2685
76550W        W19541  31.111  34.521   0.188  0.0747  0.1169  0.0045
76551W        W19542   3.925  25.722   0.382 -0.1519  0.0019 -0.1954
76552W        W19543  32.409  29.832  25.088  0.2518 -0.2497 -0.2405
76553W        W19544   5.377  30.623  24.445  0.2593  0.1127 -0.2698
76554W        W19545  30.348   3.685   8.703 -0.0098  0.3467  0.2122
76555W        W19546   9.022  27.003   8.059  0.1220  0.0125  0.2397
76556W        W19547  34.235  31.375   0.478  0.2047  0.3240  0.1793
76557W        W19548   9.715   0.426  10.376 -0.1232  0.0705 -0.1561
76558W        W19549   2.297  21.607   4.047 -0.2098 -0.0799  0.2293
76559W        W19550  30.490  22.538   9.222 -0.5191  0.2348 -0.0371
76560W        W19551  13.609   9.528   8.759 -0.4766 -0.0829  0.0109
76561W        W19552  15.856   3.773  25.595 -0.0075 -0.4211  0.0576
76562W        W19553  25.171   4.739  28.010  0.0415 -0.1592  0.0355
76563W        W19554  10.732  10.490  24.025  0.1285  0.3405  0.0983
76564W        W19555   2.700  31.558   7.984 -0.1006 -0.2267  0.0808
76565W        W19556  31.980  10.522  10.218  0.0492 -0.0204 -0.1048
76566W        W19557  25.769   1.599   4.092  0.1850 -0.1059  0.1756
76567W        W19558   4.180   9.567  27.423 -0.0098 -0.0689 -0.1477
76568W        W19559  10.221   5.075  24.606  0.0212  0.0033  0.3762
76569W        W19560   8.313  34.598   1.919 -0.2163 -0.0070 -0.1940
76570W        W19561  18.447  27.131  25.924  0.2253  0.0754 -0.0157
76571W        W19562   2.128  30.694  15.957  0.2196  0.2568 -0.0593
76572W        W19563  17.306   9.715   5.163  0.3728 -0.2055  0.2627
76573W        W19564  17.143  31.844   8.531 -0.1529  0.1033  0.3537
76574W        W19565   6.452   9.192  25.293  0.1058 -0.0445 -0.0564
76575W        W19566  12.823  24.814   4.085 -0.4546  0.0389  0.1960
76576W        W19567   8.572   8.283   5.861 -0.2065 -0.0071  0.2021
76577W        W19568  12.981  31.614   4.507 -0.3763 -0.3293 -0.3527
76578W        W19569  10.114  27.255   1.532 -0.1422 -0.1223  0.0959
76579W        W19570  20.326  29.247   8.799  0.0768 -0.0482 -0.0573
76580W        W19571   7.026  13.076  28.876  0.0540  0.1196  0.1431
76581W        W19572   9.814   8.402   8.767  0.5197  0.2567 -0.0338
76582W        W19573   1.656  29.999   7.589 -0.1790 -0.0310  0.0101
76583W        W19574   4.349   6.139  26.122 -0.2065  0.0979  0.0718
76584W        W19575  10.232  20.017   7.062  0.1575  0.1193 -0.1524
76585W        W19576  24.024  33.368   4.383 -0.0441  0.2426  0.2068
76586W        W19577  31.891  31.885   5.418 -0.2476 -0.0801 -0.0713
76587W        W19578  12.782   5.115  10.379 -0.0319  0.1626  0.1574
76588W        W19579   8.512   4.160   3.785  0.5304 -0.1058  0.2360
76589W        W19580  22.720  34.554   7.947 -0.0527  0.1521  0.1115
76590W        W19581  17.993   0.279   5.013  0.0437  0.1459 -0.2226
76591W        W19582   7.362   7.984   3.901  0.1101  0.0534 -0.0747
76592W        W19583   5.770   4.573   4.886 -0.1460  0.1653 -0.0944
76593W        W19584   0.116  27.858   4.583 -0.0005  0.0113  0.1626
76594W        W19585  32.850  21.079   6.554 -0.0290  0.0083 -0.3135
76595W        W19586  17.384  19.343  24.014  0.2132 -0.0129  0.2573
76596W        W19587   8.477   9.102   1.977  0.1665 -0.0797 -0.1457
76597W        W19588  23.417  23.594   8.373 -0.2716  0.5756  0.0885
76598W        W19589   1.681  24.278   9.106 -0.3422 -0.2201  0.2328
76599W        W19590  17.418  26.382   2.614  0.1981 -0.0087  0.0628
76600W        W19591  31.526  22.238   5.937 -0.0903 -0.0679 -0.0713
76601W        W19592   0.781   2.884   9.757  0.1074 -0.0397  0.1852
76602W        W19593  11.110   3.432  28.597 -0.5228 -0.0239  0.0630
76603W        W19594  30.841  25.430   7.886 -0.2626 -0.0331 -0.1189
76604W        W19595   0.132  32.948  22.645 -0.1921  0.1548 -0.1854
76605W        W19596  33.794  18.846   3.130  0.1406  0.2469  0.1214
76606W        W19597  14.015  29.090  24.386  0.2537  0.0266  0.1456
76607W        W19598  18.166   7.832   8.330 -0.1533 -0.1586  0.0507
76608W        W19599  15.919   8.863  25.701  0.4531  0.1742 -0.1661
76609W        W19600  14.321  25.825  28.518  0.0082 -0.0224 -0.0911
76610W        W19601  19.728  24.908  25.494  0.2868  0.1094  0.1587
76611W        W19602  12.025   1.957   9.310 -0.0958  0.1467  0.1425
76612W        W19603   9.249  28.758  27.487  0.2091  0.0254 -0.0285
76613W        W19604  23.369   3.363   3.132  0.0904 -0.2444 -0.1091
76614W        W19605   2.220  20.260   8.950 -0.4415 -0.0782 -0.0397
76615W        W19606  26.993  22.910   8.087  0.1801 -0.0348  0.0226
76616W        W19607  28.916  21.658  25.027  0.2234  0.1249  0.0391
76617W        W19608   7.475   7.667   2.214  0.1863  0.0169  0.2107
76618W        W19609   7.413  32.451   6.690  0.0562 -0.0073  0.1383
76619W        W19610  29.452   5.596  16.892  0.0577 -0.0632 -0.3201
76620W        W19611  26.159  33.418   6.225 -0.1085  0.2736  0.1506
76621W        W19612   2.563  28.248   8.075 -0.1741  0.0638  0.0802
76622W        W19613   0.891  27.099   2.036  0.0909  0.2172  0.1266
76623W        W19614   7.317  15.203   3.114 -0.2548  0.0853  0.0765
76624W        W19615  30.357  18.415  10.517  0.2477 -0.1052  0.0700
76625W        W19616  33.299   2.335   2.480  0.0294 -0.1045  0.1229
76626W        W19617  14.568  20.555  20.211  0.0766 -0.0315  0.1490
76627W        W19618  15.497   5.894  25.805 -0.1104  0.2701 -0.1535
76628W        W19619  32.455  34.720  22.458 -0.2781  0.0993 -0.1919
76629W        W19620  18.657   2.606  10.020  0.0256 -0.2391 -0.3292
76630W        W19621   1.925  20.064  26.973  0.1234  0.2672  0.0280
76631W        W19622  32.425  33.089   5.961  0.1264  0.3936  0.0386
76632W        W19623   6.378  31.371  10.432 -0.2460  0.1698 -0.1366
76633W        W19624  13.998  34.796  21.973 -0.0633 -0.2828 -0.2511
76634W        W19625   3.268   2.690   7.654  0.0650 -0.2363  0.0676
76635W        W19626  10.390  23.846   1.949  0.0167 -0.0290  0.1228
76636W        W19627  31.685  12.887  10.674  0.1346 -0.3246  0.2542
76637W        W19628   7.333  32.665   8.110  0.1296  0.0417 -0.1328
76638W        W19629   4.657  33.136   4.667 -0.0428  0.0539  0.0008
76639W        W19630  12.657  30.644  10.231  0.2209 -0.3040  0.1666
76640W        W19631  14.745  28.956   0.903  0.0526  0.2189  0.1772
76641W        W19632  33.896  30.965  14.175 -0.1446  0.0693 -0.1114
76642W        W19633   4.113  29.960   9.080 -0.1371  0.2120  0.0398
76643W        W19634  15.095  29.968  21.335  0.2467 -0.0368  0.2589
76644W        W19635   1.837   5.412  29.012  0.0337  0.0546  0.2073
76645W        W19636   2.059  34.739   8.674 -0.3982  0.0597  0.0690
76646W        W19637   0.709  23.313   5.577 -0.1603  0.1601 -0.1445
76647W        W19638   7.697  25.146  28.601 -0.1897  0.3579 -0.1527
76648W        W19639  10.705  19.161  19.781 -0.0034 -0.2848 -0.1867
76649W        W19640  33.685   4.177   4.254 -0.0989  0.0420 -0.1985
76650W        W19641  31.719   3.031   4.091 -0.1537 -0.2755 -0.2054
76651W        W19642   4.977  27.908   4.327  0.0831  0.0610  0.2522
76652W        W19643   4.530  25.156   6.277  0.1145 -0.0923 -0.0691
76653W        W19644   2.017   6.847   5.339 -0.0134 -0.2288 -0.0453
76654W        W19645   6.436  31.644  16.518 -0.0378 -0.2627  0.0292
76655W        W19646   6.644   4.553   3.755 -0.0913  0.0771 -0.3199
76656W        W19647  34.201  31.312   8.576 -0.0312 -0.0117  0.1683
76657W        W19648  19.516  21.481  29.211  0.1024 -0.0178 -0.2617
76658W        W19649  15.178   3.492  22.771  0.0311  0.1209  0.1964
76659W        W19650  18.126   2.057  26.967 -0.3381 -0.0434 -0.4901
76660W        W19651  15.585  13.534   4.012  0.1519 -0.0378  0.2608
76661W        W19652  34.185   5.768   5.678 -0.2233  0.3127 -0.0639
76662W        W19653   0.859   2.790   8.281 -0.2513 -0.2143 -0.0758
76663W        W19654  34.497   3.594  27.045  0.1895  0.0002  0.1663
76664W        W19655  12.492   7.206  27.845  0.3868  0.0263  0.4054
76665W        W19656   4.910   3.483  10.013  0.0696 -0.2012  0.0267
76666W        W19657  15.884  25.283   7.708 -0.0535 -0.1529  0.0038
76667W        W19658  13.764  11.295   5.244  0.0103  0.1738  0.1882
76668W        W19659  34.466  17.779  26.466 -0.4182 -0.1404 -0.1773
76669W        W19660   7.746  16.768  11.199  0.0970 -0.2206 -0.4102
76670W        W19661  33.655  12.644   8.241 -0.2557  0.0115 -0.0825
76671W        W19662  10.915  11.017   3.102  0.2411 -0.2227  0.0121
76672W        W19663  25.136  14.578   3.462 -0.1407 -0.0543 -0.4514
76673W        W19664  17.772   9.065   4.837 -0.0643  0.0839 -0.2519
76674W        W19665  14.909  15.556   7.107  0.0910  0.3071 -0.4035
76675W        W19666   5.397  32.750   6.072  0.0448 -0.0119  0.1945
76676W        W19667  33.807   5.891   7.983 -0.0960 -0.0174 -0.1162
76677W        W19668  12.269  31.910  10.786 -0.2629  0.0118  0.3065
76678W        W19669  32.476   6.174   5.137  0.0906  0.0149 -0.2709
76679W        W19670   7.968  10.059  25.116 -0.0258 -0.0068 -0.0724
76680W        W19671  10.620  32.625   2.908  0.0523 -0.3874  0.0939
76681W        W19672   4.004   1.195  27.893 -0.0500 -0.0344 -0.1355
76682W        W19673  16.217  19.640   0.767  0.0019 -0.2781 -0.1125
76683W        W19674   1.367  27.513  14.913  0.2075  0.0142 -0.1725
76684W        W19675  34.372  27.442  29.082 -0.0819  0.0991 -0.3370
76685W        W19676  32.684   2.193  26.347  0.1366  0.2188  0.0554
76686W        W19677  16.445   9.405   8.934  0.2315 -0.2784  0.0131
76687W        W19678   4.550   3.079   1.699  0.3246  0.0606  0.0297
76688W        W19679   3.603   6.799   0.625  0.0392 -0.0649  0.0058
76689W        W19680  13.671  33.164   7.266 -0.0230  0.3204  0.3239
76690W        W19681   4.541  29.225   5.040 -0.0974 -0.2795 -0.0882
76691W        W19682  13.543   0.232  10.580 -0.3209  0.3104  0.1104
76692W        W19683  17.837  11.180   2.587  0.2585 -0.2989  0.1811
76693W        W19684  25.409   0.620  22.199 -0.3029 -0.0817 -0.0973
76694W        W19685  14.338  16.003  27.639 -0.0197  0.1219 -0.1207
76695W        W19686   2.856  29.783  26.238 -0.4653 -0.2811  0.1463
76696W        W19687  21.972  20.645   4.613  0.0001  0.0775  0.1609
76697W        W19688  27.900   6.510   9.111 -0.0982 -0.4307 -0.0042
76698W        W19689  22.829   1.560   4.348  0.1120 -0.2461  0.0317
76699W        W19690  22.138  31.186  19.678 -0.0247  0.0670 -0.0050
76700W        W19691   1.503  33.713   8.024 -0.2911 -0.0211 -0.4581
76701W        W19692   1.416  16.692   8.657 -0.3444 -0.0021  0.0983
76702W        W19693  22.159   7.678  24.387 -0.0002 -0.2729 -0.0440
76703W        W19694  33.355  28.234  13.334  0.0242  0.1588 -0.1735
76704W        W19695   4.235  28.159  26.685 -0.0942 -0.0330 -0.2623
76705W        W19696  32.930  24.423   1.375  0.0352 -0.0066 -0.2672
76706W        W19697  12.468  27.608   6.024 -0.0974  0.1869  0.3282
76707W        W19698  12.278  19.688  24.058  0.1501  0.0066 -0.1448
76708W        W19699   5.729   8.729  29.011  0.2938 -0.1740  0.0474
76709W        W19700   8.170   2.458   8.718  0.0239  0.4736  0.3551
76710W        W19701   1.822  34.775  14.336  0.1728 -0.2247  0.0710
76711W        W19702  23.552   3.298  28.489  0.2995 -0.0715  0.3996
76712W        W19703  13.532   5.421   3.360  0.2922  0.1041 -0.1049
76713W        W19704   6.589  32.943   8.214 -0.1162 -0.1881 -0.3111
76714W        W19705  34.604   2.903   6.474  0.3520 -0.2662 -0.0624
76715W        W19706  15.584   6.880  10.028  0.1877  0.0180 -0.0456
76716W        W19707  13.139  32.930   7.171  0.0179  0.0048 -0.4461
76717W        W19708  19.085  31.293  27.335 -0.1618 -0.0239  0.1769
76718W        W19709  14.689  33.370   9.002 -0.1765 -0.2132  0.1035
76719W        W19710  27.254   5.259   1.854 -0.0834 -0.0054  0.0428
76720W        W19711  19.421  22.134   8.008 -0.0410 -0.0436  0.1757
76721W        W19712  10.611   5.523   4.880  0.0086 -0.0662 -0.1935
76722W        W19713  25.331  22.028  20.422  0.1456 -0.0152  0.0770
76723W        W19714  11.928  32.788   4.996  0.0902 -0.1972  0.3192
76724W        W19715  30.685   0.438   6.738 -0.3309  0.5473 -0.1492
76725W        W19716  31.647   2.090   1.696  0.3361 -0.4596 -0.3161
76726W        W19717  25.863  13.373  22.347  0.1370  0.2625  0.2373
76727W        W19718  32.459  27.397  19.255 -0.1943  0.1777 -0.1745
76728W        W19719   3.129  31.638  24.627  0.1160 -0.0212  0.0063
76729W        W19720  19.351  12.332   5.180 -0.0359  0.1437  0.1897
76730W        W19721  17.916  17.833  26.319  0.1123  0.0381 -0.0884
76731W        W19722  19.502  34.206  21.948 -0.1601 -0.1193  0.0153
76732W        W19723  20.365   7.923  23.432  0.0375 -0.0005 -0.4004
76733W        W19724   0.576  19.400  23.798 -0.0080 -0.1348 -0.1505
76734W        W19725   3.907  26.662  22.596 -0.4217 -0.1661  0.0050
76735W        W19726  31.299  22.197   8.906  0.0975  0.0914  0.2894
76736W        W19727  23.499   4.403  15.876  0.0138 -0.2175  0.1743
76737W        W19728  19.341   4.192   6.522  0.0438 -0.0928  0.3661
76738W        W19729   9.256  12.049  27.753 -0.0735  0.1041  0.1449
76739W        W19730   6.625  12.402   2.274  0.3356  0.0885  0.1520
76740W        W19731   3.909   6.424   2.755  0.1454 -0.1300 -0.4138
76741W        W19732  10.648  22.709  16.973 -0.2359 -0.1615  0.1233
76742W        W19733   1.805   4.984   3.005  0.2652 -0.0109  0.1046
76743W        W19734  18.112  28.945   9.013  0.0415  0.1277  0.0489
76744W        W19735  28.949  10.462  28.197  0.0601 -0.0368  0.1629
76745W        W19736   1.055   0.164   8.905 -0.2804 -0.2563 -0.2019
76746W        W19737  31.907   9.311   3.201  0.0484 -0.1152  0.3571
76747W        W19738   4.217  31.568  29.058 -0.1416  0.1843  0.3444
76748W        W19739   4.786  26.286   1.054 -0.0019 -0.1301  0.3939
76749W        W19740   8.179  25.766   8.561  0.3507 -0.2437  0.0212
76750W        W19741  12.083  31.395  15.788 -0.4177  0.1410 -0.1452
76751W        W19742  11.476   1.011   9.882 -0.1130 -0.0789  0.1943
76752W        W19743  11.317  28.474   2.979 -0.2031 -0.1542 -0.3206
76753W        W19744   7.390  14.996  21.787 -0.2304  0.1255 -0.1599
76754W        W19745   9.411   9.242  22.270  0.0682 -0.0167 -0.0169
76755W        W19746   2.227   3.159   3.715  0.3878 -0.4569 -0.3220
76756W        W19747   5.500  13.595   8.203  0.0853 -0.0562  0.0365
76757W        W19748  11.581  21.399  14.113  0.0824  0.0033 -0.1896
76758W        W19749   5.514  29.220  27.629  0.1976  0.0316 -0.1023
76759W        W19750  13.644  32.251   2.925  0.0944 -0.0251  0.0192
76760W        W19751  11.323  34.623  20.549  0.5526 -0.1921 -0.1857
76761W        W19752  28.703  32.181   6.747  0.1644 -0.0011  0.4053
76762W        W19753  17.881  33.761   4.164  0.3689  0.0628 -0.1739
76763W        W19754   0.391   2.155   7.649  0.2759  0.0276 -0.1156
76764W        W19755  19.789  24.959   1.435  0.3122  0.0744 -0.2501
76765W        W19756   9.912  10.007  24.539 -0.2102  0.3102  0.4277
76766W        W19757  21.595  33.609  27.784 -0.1120 -0.3037  0.2072
76767W        W19758  17.639  15.588   1.522  0.1025  0.0483  0.0852
76768W        W19759  23.152  24.698   0.661 -0.0242  0.0464  0.2643
76769W        W19760   7.260  11.583  21.549 -0.0065 -0.1435 -0.0461
76770W        W19761  33.587  10.673  15.138  0.2039 -0.1383 -0.2800
76771W        W19762   9.764  26.117   6.040 -0.0561  0.1303 -0.0859
76772W        W19763   8.112  34.386   2.347 -0.2132  0.2369 -0.1532
76773W        W19764  15.223   4.050   3.241  0.1042 -0.4230 -0.0785
76774W        W19765  27.925  12.450  21.629 -0.2592  0.1167  0.1478
76775W        W19766  29.924   1.942  29.047  0.0807 -0.4719  0.2234
76776W        W19767   4.344  13.582   3.623  0.3570 -0.2306  0.0014
76777W        W19768  14.651  31.233  26.183 -0.1579  0.0555  0.0170
76778W        W19769  31.146  32.549  17.686 -0.0809 -0.1157 -0.1046
76779W        W19770  20.855   4.889   5.563 -0.3154  0.0651  0.1247
76780W        W19771  23.174  27.238   0.844  0.0038 -0.0159  0.2575
76781W        W19772   8.380  14.645   2.493 -0.0086 -0.1982 -0.2981
76782W        W19773  18.745  26.406  19.740  0.1690 -0.1833  0.3097
76783W        W19774  23.817  32.842  24.395 -0.1077  0.0338  0.3053
76784W        W19775  20.470  28.807  21.722  0.4018  0.1529 -0.0408
76785W        W19776  13.766   4.108   7.458  0.0953  0.0514 -0.0760
76786W        W19777  22.685  26.786  28.025 -0.1694  0.0771  0.0808
76787W        W19778  15.114  26.973  29.207 -0.4350  0.1535 -0.0787
76788W        W19779  14.434  31.039  28.989  0.1662 -0.0717 -0.1702
76789W        W19780  32.759   3.587  22.654 -0.3145 -0.1045 -0.3866
76790W        W19781  12.033   3.018   8.673  0.0075 -0.0848 -0.3058
76791W        W19782   2.544   5.850   5.774  0.2443 -0.1226 -0.1662
76792W        W19783  19.102  17.906   8.556 -0.3769 -0.0895 -0.2016
76793W        W19784  20.667  31.581   7.448 -0.1220 -0.0862  0.2974
76794W        W19785  13.839   3.542   4.923 -0.2289 -0.0197  0.0951
76795W        W19786  17.686   3.979   2.526 -0.0441 -0.0908 -0.0733
76796W        W19787  12.431  32.861   8.527  0.1359 -0.2121 -0.0661
76797W        W19788  30.311  33.150  23.442  0.2202  0.0058  0.0000
76798W        W19789  24.156   8.259   6.485  0.1715  0.4844  0.3950
76799W        W19790   3.368  25.516  26.738 -0.0530 -0.0570  0.0569
76800W        W19791   6.430   3.750   2.053  0.0855 -0.2930 -0.3548
76801W        W19792  29.499   8.983   2.958 -0.0965 -0.1384  0.0770
76802W        W19793  27.446   4.275  23.477  0.2529 -0.0885  0.1495
76803W        W19794   7.363   9.517  28.871 -0.0989 -0.0976  0.2801
76804W        W19795  12.089   3.236  23.896 -0.1192 -0.1849  0.1897
76805W        W19796   4.122  17.522  16.491 -0.1691  0.1464 -0.0199
76806W        W19797  19.828  11.612  20.832 -0.0394 -0.3135 -0.1287
76807W        W19798  18.212  15.942  27.791  0.2042  0.1673  0.1029
76808W        W19799  13.593  29.280  14.715 -0.0574  0.0939 -0.2907
76809W        W19800  21.025   9.468   5.314  0.2493  0.0049  0.2492
76810W        W19801   1.487  34.432   5.597  0.0425 -0.0268  0.0752
76811W        W19802  17.376  16.335   0.453 -0.4404  0.1537 -0.1240
76812W        W19803   9.643   0.745   4.440  0.0934  0.0635 -0.0415
76813W        W19804   7.067  16.710   7.359 -0.2401 -0.2089 -0.0128
76814W        W19805  33.702  23.885  20.159 -0.0856 -0.0622 -0.1477
76815W        W19806   9.353   0.983   5.757  0.1655 -0.1774  0.1727
76816W        W19807   4.467  34.199  29.250  0.0671 -0.0113  0.2077
76817W        W19808   6.710   5.762  29.164  0.0647  0.0906 -0.0751
76818W        W19809  10.103  31.916   4.077 -0.0616  0.3698 -0.2083
76819W        W19810  13.052   9.867  27.145  0.0203 -0.2415  0.1732
76820W        W19811  27.517   2.954   6.291  0.1568  0.1222  0.1910
76821W        W19812  30.561   8.666  20.646 -0.1663  0.1817  0.3034
76822W        W19813  10.695   1.123  16.771  0.3080  0.0946  0.0931
76823W        W19814   4.577   2.707  22.326 -0.1682 -0.1746 -0.0096
76824W        W19815  23.637  20.813   3.735  0.1393 -0.1411  0.2376
76825W        W19816  13.831  29.969   1.007 -0.1053  0.0664  0.0788
76826W        W19817  15.682  24.037   9.050  0.3328  0.2434  0.1466
76827W        W19818  17.013   4.160  16.983 -0.0786 -0.1420  0.0360
76828W        W19819  21.618  16.393  25.263  0.1383  0.0882  0.1114
76829W        W19820   6.944   9.336  10.395 -0.0161  0.0698 -0.0596
76830W        W19821   3.605  14.160  27.746 -0.0574  0.3729  0.0794
76831W        W19822  12.100   6.798   7.387 -0.1382 -0.0327  0.0009
76832W        W19823  34.422   1.954   2.351 -0.2603 -0.1967 -0.2190
76833W        W19824  16.698  22.876  28.370  0.1733 -0.0913 -0.0818
76834W        W19825   0.339   1.072   4.031 -0.0758 -0.2336  0.4524
76835W        W19826   9.057  34.023   0.285  0.3211 -0.1161  0.3123
76836W        W19827  18.268  10.111  19.626  0.0520  0.2447 -0.0410
76837W        W19828   3.589  33.803   1.986 -0.2806  0.4923 -0.1261
76838W        W19829  31.507   9.623   1.584  0.0634 -0.0040 -0.2768
76839W        W19830   9.820  24.128   6.184  0.2832 -0.2628 -0.1075
76840W        W19831   4.021   2.624  16.359 -0.1012 -0.1443 -0.1858
76841W        W19832   9.147  14.907  15.339  0.3033  0.1877 -0.1406
76842W        W19833   1.743  34.585   0.600  0.3341 -0.0621 -0.0303
76843W        W19834  23.073  10.239   5.581 -0.1379 -0.0456 -0.1945
76844W        W19835  11.532  34.673  27.860 -0.0907  0.3339  0.2255
76845W        W19836  13.662  13.100  25.285 -0.0283  0.0024 -0.0641
76846W        W19837   6.048  21.151  21.737  0.3202 -0.1142  0.2808
76847W        W19838  23.838   3.130   5.726 -0.0480  0.0316  0.1431
76848W        W19839  21.546   2.281  28.983  0.0581  0.1864  0.0230
76849W        W19840  31.826   1.764  23.069  0.0655 -0.2896 -0.1910
76850W        W19841  25.286  20.318   2.632  0.1607  0.0154  0.3798
76851W        W19842  20.352   4.441   2.589  0.2720  0.1135  0.0287
76852W        W19843  13.144  26.235  28.348 -0.2880 -0.3244  0.0799
76853W        W19844  29.888  30.331  13.979  0.2464 -0.2308  0.0817
76854W        W19845   9.138  30.418   4.869  0.0109 -0.0835  0.4650
76855W        W19846  21.848   9.102  22.906  0.3441  0.1172 -0.2394
76856W        W19847  15.067  26.594   3.689  0.0796 -0.1476  0.1217
76857W        W19848  14.594   7.614  27.924  0.0101  0.0475 -0.1667
76858W        W19849   2.647  13.955   9.928  0.0490  0.3590 -0.0542
76859W        W19850  10.085  25.808   8.858  0.3161  0.2139  0.2652
76860W        W19851  13.690  22.420  20.512  0.0004  0.0877 -0.0094
76861W        W19852  22.939   4.067  17.302 -0.1133  0.0969  0.1112
76862W        W19853  23.867   2.995  22.696  0.2123  0.0588 -0.1183
76863W        W19854  30.383   1.885   7.668 -0.0415 -0.0160  0.0727
76864W        W19855  13.520  17.094   0.064  0.2890  0.2051  0.2224
76865W        W19856  10.359   1.752   0.352  0.2891  0.1975  0.0135
76866W        W19857  24.654  13.020  26.058 -0.2031  0.1445  0.2731
76867W        W19858   5.431  29.763   4.473  0.0898  0.3268 -0.2911
76868W        W19859  22.374  27.975   0.844  0.0408 -0.2522 -0.0941
76869W        W19860  19.573  32.982  29.166  0.3374  0.4083 -0.1661
76870W        W19861  11.139  26.894  26.840 -0.1709  0.1215  0.2549
76871W        W19862  31.301   6.426  10.312 -0.3435  0.0147 -0.0983
76872W        W19863   6.154   0.903  18.842 -0.2168  0.0814  0.0624
76873W        W19864  12.447  26.515   4.791  0.3243 -0.1065  0.1404
76874W        W19865  11.886  31.825  10.389  0.2539 -0.1236 -0.6135
76875W        W19866  12.014   8.847   5.109 -0.2479  0.3575 -0.2619
76876W        W19867  12.501  30.559  16.160 -0.1685  0.2600  0.0770
76877W        W19868  33.507  34.329   2.500 -0.3617 -0.3352  0.0464
76878W        W19869   7.467  33.719   7.991 -0.0275 -0.2080 -0.0252
76879W        W19870  13.724  10.745  21.620  0.1732 -0.0422  0.0500
76880W        W19871   5.483  26.678   4.776 -0.2190 -0.0365 -0.2685
76881W        W19872   4.244  22.663   8.839 -0.0381  0.0512 -0.1702
76882W        W19873  20.428  11.020   7.856  0.0164  0.2240 -0.1267
76883W        W19874   6.311   0.287   2.032  0.0738  0.0038 -0.2354
76884W        W19875  11.000  12.362  19.783 -0.0681  0.1700  0.0763
76885W        W19876  19.305  22.295   0.390 -0.3047 -0.0964  0.0259
76886W        W19877   2.499  26.084  25.645  0.2285  0.1131 -0.1327
76887W        W19878   2.345  10.360  25.270  0.1107  0.0826  0.4412
76888W        W19879   4.620   3.051  10.717 -0.0637  0.1313  0.0747
76889W        W19880  21.722  30.987   3.436  0.0205 -0.1406 -0.0565
76890W        W19881  15.873  11.785   8.761  0.0130  0.0810  0.0066
76891W        W19882   1.854  27.878   6.389  0.1216  0.1740 -0.1228
76892W        W19883  17.855  33.903   3.181 -0.4002 -0.1796  0.0035
76893W        W19884   3.283   2.845   0.313  0.2626  0.1199  0.0158
76894W        W19885  34.083   9.769  10.447  0.0044 -0.3240 -0.1944
76895W        W19886  13.754   8.755   6.356 -0.0892  0.0159  0.1670
76896W        W19887  17.238  10.109   9.482 -0.2091  0.1559  0.0147
76897W        W19888  12.605  23.938  14.608 -0.1002 -0.2708 -0.1070
76898W        W19889  11.627  25.617   7.766 -0.0883 -0.3325  0.0293
76899W        W19890  34.472   0.538  20.903  0.0242 -0.1169  0.0225
76900W        W19891  31.965  27.721  27.330  0.0602  0.1281  0.0163
76901W        W19892   9.085   4.400   4.977 -0.2412 -0.0828 -0.0545
76902W        W19893   9.946  32.867   2.098  0.2476  0.3746 -0.0486
76903W        W19894   8.351  32.540   0.031  0.4535  0.0161 -0.2218
76904W        W19895   1.429  21.105   1.476  0.3529  0.2228  0.2063
76905W        W19896  33.451  33.084   3.188 -0.0477  0.0250 -0.2217
76906W        W19897  12.999  33.534  22.379  0.1227 -0.2669 -0.0937
76907W        W19898   7.510   3.999   1.831  0.1360 -0.1775 -0.0899
76908W        W19899   4.049   0.400  23.606  0.0185  0.2252  0.0653
76909W        W19900   3.350  31.119  28.835  0.0778 -0.2224 -0.0286
76910W        W19901  19.889  10.957  27.780  0.3192  0.0230  0.1398
76911W        W19902   6.381   6.196  27.862 -0.0653  0.2212  0.1412
76912W        W19903  15.230   4.890   1.347 -0.2519 -0.1091  0.1108
76913W        W19904   8.842  10.966  19.006 -0.0692  0.0922  0.0017
76914W        W19905  17.164   3.323  26.300 -0.0160  0.2572 -0.2268
76915W        W19906   5.254   1.506  28.902 -0.2698  0.0701 -0.0154
76916W        W19907  32.416   7.334   7.302 -0.0475 -0.2744 -0.1608
76917W        W19908  27.806  11.061  22.810  0.1050 -0.2351  0.0496
76918W        W19909   0.949  26.296   6.718  0.0227  0.0405  0.2232
76919W        W19910   8.438  27.679  19.973  0.1667 -0.0112 -0.0904
76920W        W19911  12.451  28.966  27.791  0.0805 -0.0651 -0.2738
76921W        W19912  28.728  30.555   6.544 -0.3653  0.0140 -0.0508
76922W        W19913   6.280  24.071  28.096  0.3312  0.0081  0.0215
76923W        W19914   7.719   0.148   9.329 -0.0609 -0.3124 -0.1480
76924W        W19915   8.047  22.824   0.729 -0.1272  0.0944 -0.0181
76925W        W19916   8.828  26.514   8.109  0.0447 -0.3076 -0.0639
76926W        W19917  30.676  34.099  29.002  0.0110 -0.0276 -0.1220
76927W        W19918   1.225  20.898   5.022  0.2505 -0.5652  0.1408
76928W        W19919  26.479  31.794  14.346 -0.1392 -0.1825 -0.0502
76929W        W19920   6.238   6.810  23.409  0.2161 -0.0228 -0.0847
76930W        W19921  18.305  24.251   5.648  0.2042 -0.0069  0.3469
76931W        W19922  20.844  31.651   0.403 -0.0074  0.2394  0.0013
76932W        W19923  20.094   4.620   6.929  0.0348 -0.1650  0.2620
76933W        W19924  29.053  33.869   6.716 -0.0635  0.0230 -0.4900
76934W        W19925  10.643  13.811   7.232  0.2792 -0.1284  0.0908
76935W        W19926  11.715  15.632   0.272  0.5563  0.0337 -0.1668
76936W        W19927  13.337  24.808  26.687 -0.0152 -0.0360 -0.3294
76937W        W19928  10.166  23.131  19.802  0.0804  0.3865  0.1013
76938W        W19929  13.653  18.140  28.184 -0.2387  0.1127  0.0808
76939W        W19930  14.178  19.994   9.365 -0.0517 -0.0819  0.1180
76940W        W19931  11.514  23.549   2.226 -0.1647  0.0311 -0.0722
76941W        W19932   6.527  26.855   2.959  0.0742 -0.0296  0.0297
76942W        W19933  15.645  24.511   4.550 -0.1402  0.1286 -0.1480
76943W        W19934   8.509   6.568   3.133 -0.1906 -0.0439 -0.4689
76944W        W19935   3.828   0.081   2.319 -0.1641  0.0154 -0.1083
76945W        W19936  13.567  31.753   6.343 -0.1095  0.0814 -0.1245
76946W        W19937  15.872   3.763  10.423  0.0167  0.0287 -0.1697
76947W        W19938   1.076  25.213  15.278  0.1254 -0.1304 -0.0340
76948W        W19939  30.251   7.205  28.847  0.2844  0.1465  0.1110
76949W        W19940  17.296  32.844  24.111  0.1956  0.0790 -0.0398
76950W        W19941   8.118  26.345  27.325 -0.2202  0.0645  0.0450
76951W        W19942   2.206   2.236   3.730  0.3702  0.4376 -0.0312
76952W        W19943   3.556  27.338   5.494 -0.0151 -0.2305  0.1983
76953W        W19944  31.170   1.322  19.934  0.0563 -0.0588  0.0860
76954W        W19945   8.574  27.348   5.726 -0.1223 -0.1500  0.1618
76955W        W19946   2.254  33.376  23.708 -0.1124  0.0000 -0.0046
76956W        W19947   8.362  29.239  23.432  0.2297 -0.0458 -0.3283
76957W        W19948  17.915  24.456   2.638 -0.2638 -0.2968 -0.1700
76958W        W19949   4.870  28.270   3.803 -0.1826 -0.1467 -0.0319
76959W        W19950  18.730  11.894   5.390  0.0387  0.2398 -0.1066
76960W        W19951  13.500  33.535  24.572  0.0376  0.0269  0.1122
76961W        W19952  13.362  27.899   0.078 -0.0618 -0.3226 -0.0402
76962W        W19953   5.268   1.122   0.484  0.0712  0.0816 -0.4918
76963W        W19954  19.269   6.726   8.827 -0.2147  0.0281  0.2495
76964W        W19955  29.132   0.367   8.637 -0.1908 -0.1861  0.0319
76965W        W19956  13.836  26.628  23.927 -0.0692 -0.1010 -0.2104
76966W        W19957  10.377  24.141  19.241  0.1846  0.0670  0.0936
76967W        W19958  14.483  27.093   3.276  0.0053  0.1337  0.1857
76968W        W19959  18.889  19.017  27.412  0.1150 -0.1814  0.0541
76969W        W19960  33.033  31.240  28.266  0.0358  0.1719  0.0645
76970W        W19961   9.779  29.146   4.911 -0.0267  0.2252  0.0719
76971W        W19962  23.089   4.304  29.153  0.0257 -0.3865  0.1813
76972W        W19963  23.441  29.751   1.226  0.1140 -0.3362  0.0777
76973W        W19964   4.125  32.874   0.436 -0.0514 -0.1468  0.0892
76974W        W19965  14.681  21.194   7.230  0.0676 -0.0241  0.1258
76975W        W19966  33.810  13.076   7.622 -0.1981  0.1874  0.0004
76976W        W19967  27.760   1.021  21.873  0.0390 -0.2379  0.2127
76977W        W19968   8.720  22.537   5.909 -0.0784  0.2746 -0.0945
76978W        W19969   8.346  34.684   8.876 -0.0317 -0.0931  0.0344
76979W        W19970  10.599  26.945  24.058 -0.1351 -0.0640  0.0651
76980W        W19971   2.171  32.406  29.260  0.2210  0.2304 -0.2366
76981W        W19972  27.936  32.174   8.808 -0.1506 -0.2991  0.1278
76982W        W19973  30.244   4.877   6.640 -0.1754  0.1093  0.0708
76983W        W19974  22.444  28.032  20.648 -0.0209 -0.0254  0.0931
76984W        W19975  31.856  33.791  24.701  0.1118  0.0341 -0.0291
76985W        W19976   7.386   5.675  15.112  0.1328 -0.0246  0.0297
76986W        W19977  29.887   7.900   6.997 -0.0218  0.1289 -0.1153
76987W        W19978  12.419  13.772  14.079 -0.4433 -0.2010 -0.0550
76988W        W19979  18.197   4.752  29.241 -0.1046  0.2060  0.2625
76989W        W19980  21.520   2.196   5.335  0.0668  0.2255  0.0042
76990W        W19981   7.706  34.285   5.248  0.0358 -0.0888 -0.1979
76991W        W19982  32.523   5.879  17.229  0.1139  0.2522  0.2251
76992W        W19983  31.654  33.063   0.928  0.0464  0.2186  0.0833
76993W        W19984   7.152  30.601  15.340 -0.1732  0.0142  0.0564
76994W        W19985  16.211  31.654   6.618 -0.2365 -0.0945  0.0411
76995W        W19986  29.507   6.875   8.027  0.0467 -0.0490 -0.0859
76996W        W19987  21.757  32.982   4.689 -0.1235 -0.1988  0.1488
76997W        W19988   6.475  27.769  24.124  0.0751  0.0318 -0.2574
76998W        W19989  20.355  22.428   6.145 -0.2044 -0.0275  0.1178
76999W        W19990   4.421  31.712  24.171  0.2113  0.1558 -0.1845
77000W        W19991  11.234   6.957   3.488  0.0726 -0.1198 -0.1174
77001W        W19992  15.380  33.288   2.925  0.0112  0.0140 -0.1082
77002W        W19993  18.749  31.610   2.486  0.1481  0.1296  0.0916
77003W        W19994  16.537  28.610   6.285  0.2846 -0.4303  0.0507
77004W        W19995  20.635   0.464   6.394 -0.0467 -0.1257  0.3485
77005W        W19996   2.285  25.807   7.658 -0.2998 -0.1198  0.1855
77006W        W19997  30.492   5.092   5.023 -0.2534  0.1066  0.3502
77007W        W19998  27.853  13.730  28.489 -0.0485  0.1185 -0.1426
77008W        W19999  18.358   4.337  10.351  0.5854 -0.3285  0.1707
77009W        W20000   5.080  31.911   2.245 -0.2748 -0.0406  0.0421
77010W        W20001  24.774  33.807   3.143  0.0659 -0.1607 -0.1287
77011W        W20002  20.350  27.705   6.533  0.1890  0.3378 -0.0262
77012W        W20003  10.855   7.762  27.733  0.2005 -0.0655  0.0478
77013W        W20004  21.489  34.589  23.387 -0.1258 -0.0110  0.2135
77014W        W20005  10.795  34.658   4.186  0.1059 -0.1164  0.0688
77015W        W20006  10.727   2.292   0.824 -0.0174 -0.0012 -0.0003
77016W        W20007   5.979  31.737  26.390  0.1019 -0.0785  0.1633
77017W        W20008  25.451  22.012   3.321 -0.0809  0.0733  0.0769
77018W        W20009   6.568  11.596  29.010 -0.2415  0.1870 -0.1115
77019W        W20010  27.696  15.573  16.015 -0.0431 -0.1741 -0.1720
77020W        W20011   3.923   6.020  27.678  0.1368  0.2478 -0.4914
77021W        W20012   7.910   9.193  23.736 -0.0843  0.2143 -0.0982
77022W        W20013   4.382  28.590  10.381 -0.0069  0.2456  0.1123
77023W        W20014   1.211   1.464   3.916 -0.1090 -0.1588 -0.2083
77024W        W20015   2.415  34.774   6.222  0.0828  0.1177 -0.0507
77025W        W20016  12.523  18.566  21.757 -0.0564  0.0913  0.1640
77026W        W20017  17.189  32.149   7.629 -0.0147  0.0048  0.2214
77027W        W20018  34.065   0.324  10.123 -0.0512  0.0922  0.2010
77028W        W20019  18.446   1.555   1.640 -0.3547  0.1230 -0.0780
77029W        W20020   9.961  24.275  16.883  0.1152 -0.3292 -0.3218
77030W        W20021  28.798  25.035   0.565  0.2391  0.2126 -0.1964
77031W        W20022   4.711  17.133  10.313  0.0010  0.1196 -0.0619
77032W        W20023   9.409   7.389   6.987 -0.3516 -0.1998  0.2099
77033W        W20024  16.325  25.975  25.184  0.3102 -0.4374 -0.3111
77034W        W20025   8.789   3.374   7.263  0.1514  0.2140  0.5177
77035W        W20026  18.609  25.408  20.074  0.2630 -0.2002  0.2730
77036W        W20027  19.368  14.813   0.159  0.2710 -0.1935  0.0454
77037W        W20028   5.617  32.017   7.065 -0.1612  0.0311 -0.0909
77038W        W20029  11.329  32.598   6.693  0.0186  0.2748  0.0595
77039W        W20030  33.686  12.438  22.747 -0.0890 -0.3600 -0.0232
77040W        W20031  12.058  24.751  24.348 -0.0129 -0.1808  0.0514
77041W        W20032   1.811   7.204   4.963 -0.1714  0.2318 -0.0554
77042W        W20033  20.000  32.732  20.594  0.1286  0.1139  0.0915
77043W        W20034  18.108  11.306   1.793  0.1258 -0.3002  0.2424
77044W        W20035  15.279  34.254   2.303 -0.0963  0.0569 -0.2056
77045W        W20036   4.501   7.001   1.794  0.4749 -0.1365 -0.2294
77046W        W20037  29.005  27.269  24.935 -0.0900 -0.4571  0.0098
77047W        W20038  22.919   7.938  25.160  0.1700 -0.3938 -0.1640
77048W        W20039   6.091   8.031  27.289 -0.1461 -0.4171  0.1308
77049W        W20040  11.366   8.242   7.581  0.1654  0.0875 -0.2645
77050W        W20041  34.103  10.313  10.278 -0.3468  0.0776  0.3260
77051W        W20042  30.970  25.040   6.286  0.1848 -0.2038  0.2641
77052W        W20043   8.502   1.970  15.956 -0.1899  0.2557  0.0927
77053W        W20044   9.439   2.814   1.775  0.1343 -0.1092 -0.0839
77054W        W20045   4.891   4.114   6.150  0.1010 -0.0369  0.0447
77055W        W20046   7.727  15.336   2.837 -0.0275  0.1470 -0.2978
77056W        W20047  15.963  25.201  24.803  0.0580 -0.1873  0.1080
77057W        W20048  32.779  14.195  25.421  0.0867 -0.1096 -0.1099
77058W        W20049  34.753  12.769  16.389 -0.1687 -0.1753  0.0662
77059W        W20050   5.319  32.351  29.122  0.1686  0.1535 -0.1998
77060W        W20051  21.984  32.900  15.290 -0.0738 -0.3798  0.0329
77061W        W20052  15.386  30.972   6.329  0.2497  0.0352 -0.2783
77062W        W20053  26.138   9.653  28.023  0.1098  0.4000 -0.2782
77063W        W20054   1.598   3.126  26.957  0.2058  0.1324  0.0692
77064W        W20055   7.337   2.804  20.874  0.0628 -0.2446 -0.1415
77065W        W20056  24.964  10.059  14.973  0.3785  0.0359  0.2874
77066W        W20057  25.828  32.196  27.040  0.2915  0.1764  0.3510
77067W        W20058  31.910  34.303   9.310  0.2995  0.0875  0.0674
77068W        W20059  10.478   2.096   3.466  0.2173  0.3263  0.1187
77069W        W20060  26.284  11.726   0.876  0.2315 -0.0458  0.0148
77070W        W20061   7.599  14.783   2.035 -0.2762 -0.0517 -0.1243
77071W        W20062  20.755   0.615   4.025  0.0066 -0.2178 -0.0673
77072W        W20063  18.375   3.005  26.215  0.0275 -0.0337  0.2326
77073W        W20064  12.717  11.686   8.569  0.0862  0.1190  0.2220
77074W        W20065  33.622  23.976   3.632 -0.1027  0.3071 -0.0841
77075W        W20066  12.838  15.882   0.337 -0.2989 -0.4103 -0.0553
77076W        W20067   5.664  26.789   5.233 -0.1739 -0.0067  0.1165
77077W        W20068   5.335   4.075   6.438 -0.1719 -0.1150 -0.0291
77078W        W20069   4.358  21.466   9.744 -0.1957 -0.1547  0.1418
77079W        W20070  14.896  20.749  25.286  0.2551 -0.2463  0.3111
77080W        W20071   2.411  11.727   1.879 -0.2375  0.0592 -0.2563
77081W        W20072   7.469  26.845  28.088  0.2893 -0.0814 -0.3364
77082W        W20073  34.666   6.761   7.900  0.1944 -0.0330 -0.1628
77083W        W20074  16.602  18.874  28.993  0.0647  0.1892 -0.2376
77084W        W20075   5.152  29.010   1.768 -0.4022  0.0733 -0.2751
77085W        W20076  15.381   8.602   5.677 -0.0465  0.0845 -0.0393
77086W        W20077   6.845  16.968   5.999 -0.1853  0.1289  0.1333
77087W        W20078   8.933  34.157   3.850 -0.2197 -0.1324  0.0132
77088W        W20079   2.509  30.228   5.306  0.3057 -0.0253  0.0571
77089W        W20080  30.008  13.625   7.023 -0.0579 -0.1231 -0.1135
77090W        W20081  14.646   6.226   7.864  0.1563  0.0821 -0.0695
77091W        W20082   1.022   1.746  27.895 -0.2370 -0.1189 -0.1644
77092W        W20083   1.737  12.739   7.118 -0.0473  0.3138 -0.2116
77093W        W20084  12.807  32.296  26.443  0.0462 -0.3099 -0.0467
77094W        W20085  18.086   3.996   5.905 -0.2343  0.0976 -0.3055
77095W        W20086   4.371  31.238  26.698  0.0461  0.1789 -0.0121
77096W        W20087  19.240   6.474   4.706  0.1441 -0.1089  0.0894
77097W        W20088  29.156   4.611   6.473 -0.1964 -0.0879 -0.1840
77098W        W20089  13.521   3.083  10.222 -0.1597 -0.0332 -0.1920
77099W        W20090  33.494   5.222   1.687  0.1456 -0.0342  0.0501
77100W        W20091  26.975  11.175   0.163  0.2073  0.2304 -0.1655
77101W        W20092  10.988  22.490   9.300  0.1296 -0.0649 -0.3251
77102W        W20093  15.211  32.548  14.418 -0.2298  0.0493  0.0032
77103W        W20094  31.463  15.196   2.594 -0.0791  0.0374  0.1107
77104W        W20095  12.833  24.949   5.135 -0.3493 -0.0010  0.2677
77105W        W20096  32.124  28.543  26.773 -0.0631 -0.0275  0.2930
77106W        W20097   3.755  30.499   9.692  0.0890  0.1595 -0.3377
77107W        W20098  17.705  23.500   5.271  0.1654  0.2004  0.1925
77108W        W20099  10.900  21.715  23.565 -0.0520  0.3721 -0.0450
77109W        W20100   8.819  10.364   8.793  0.1052  0.1283  0.0582
77110W        W20101   1.587   7.923  10.546  0.1785  0.1903  0.0579
77111W        W20102   1.387  19.231  28.805  0.0421 -0.3839  0.1252
77112W        W20103   4.785  30.690  25.238  0.1381 -0.0493 -0.2545
77113W        W20104  17.680  34.336   6.671 -0.0333  0.0120  0.1684
77114W        W20105  13.878  34.690   6.209 -0.0540  0.0447  0.1785
77115W        W20106  17.302   5.528   1.304  0.1250  0.2728  0.2132
77116W        W20107  28.211  28.280  28.010  0.1589 -0.0404 -0.0465
77117W        W20108  15.113  28.780   6.823 -0.2907  0.0058  0.0610
77118W        W20109  15.201  27.434  25.762 -0.2839 -0.3260 -0.0141
77119W        W20110  29.077   6.146   3.047 -0.0380 -0.1044  0.1251
77120W        W20111  10.529   8.468   1.105  0.0931 -0.0518 -0.2950
77121W        W20112   7.611   8.820  21.955 -0.0243  0.2235  0.0758
77122W        W20113  22.591  23.395   7.449 -0.2594  0.0243 -0.2349
77123W        W20114  17.909  10.270   7.666 -0.2466 -0.1958 -0.0324
77124W        W20115  33.182  29.533   1.529 -0.0727  0.1164  0.1134
77125W        W20116  15.109  22.012  20.406  0.0222  0.0519  0.2923
77126W        W20117   5.774  24.991  27.594  0.2447  0.2028  0.3136
77127W        W20118   7.274   0.001  19.565  0.0988 -0.4855 -0.0353
77128W        W20119   9.621  29.472  19.339 -0.2038  0.1362 -0.3555
77129W        W20120  15.711  10.772   6.423  0.3556  0.0725 -0.1377
77130W        W20121  24.306   0.721   7.433 -0.2665  0.0200  0.1405
77131W        W20122  11.043  30.130  27.000 -0.0716  0.1188  0.1181
77132W        W20123   8.419  10.186   9.498  0.0363 -0.3224  0.0008
77133W        W20124  22.701   5.210   9.709  0.1825 -0.0205  0.1893
77134W        W20125   0.813  34.755   0.093 -0.2177  0.0346  0.0067
77135W        W20126  13.833  28.271  26.985  0.0752 -0.2401  0.0623
77136W        W20127  21.547  12.951   6.672  0.0445  0.2277  0.1009
77137W        W20128  12.719  10.646   9.322  0.1045 -0.0427 -0.1591
77138W        W20129   9.718  30.379   3.634 -0.1050 -0.3093 -0.2481
77139W        W20130  32.172   7.259   1.126 -0.1808  0.0731 -0.3401
77140W        W20131   1.408  31.718  28.834 -0.0196 -0.0803  0.3117
77141W        W20132  19.742  11.086   7.365  0.0311  0.0614  0.2668
77142W        W20133  17.652  10.812   6.454 -0.4025 -0.0715  0.1975
77143W        W20134  27.711   1.678  29.008  0.2259 -0.1350  0.0195
77144W        W20135   5.699  31.704   8.800 -0.0760  0.0824 -0.4310
77145W        W20136  11.093   7.976   0.018 -0.3419  0.2397 -0.2508
77146W        W20137   8.553   9.568   7.559 -0.3337  0.3221  0.0560
77147W        W20138  15.708   5.175   4.242  0.0937  0.0567  0.2830
77148W        W20139  18.574  11.481  16.711 -0.1371  0.1102  0.2846
77149W        W20140  23.493   1.925  17.992  0.1838 -0.0303 -0.2062
77150W        W20141  17.897   5.078   7.854 -0.0470 -0.1242  0.0805
77151W        W20142  16.182  26.839   7.232  0.1899  0.1299  0.2321
77152W        W20143   5.219  12.708   7.188  0.0048  0.0024 -0.1398
77153W        W20144   6.711  14.237   4.920  0.3162  0.0634  0.0627
77154W        W20145  10.296  30.571   8.126 -0.1691 -0.0147 -0.3595
77155W        W20146  12.075  29.952   4.206  0.0212 -0.2929 -0.0075
77156W        W20147  33.204  28.299   6.687  0.0910 -0.2313  0.0546
77157W        W20148  16.283  15.246  28.336  0.1266 -0.0561 -0.3096
77158W        W20149   8.616   6.612   1.474 -0.1316 -0.0058  0.0269
77159W        W20150  23.196  30.758   7.831 -0.1837  0.0493  0.0316
77160W        W20151  19.540  23.967  27.055 -0.2667  0.4626  0.2096
77161W        W20152   6.351  26.629  16.531 -0.0352 -0.0348  0.1219
77162W        W20153   3.024  23.496  27.037 -0.0618 -0.2952 -0.0541
77163W        W20154   6.623  22.008   8.486 -0.2861 -0.0134  0.0162
77164W        W20155  13.076  32.341   2.357  0.2140  0.0460  0.1546
77165W        W20156  18.093  31.584  20.912 -0.0869 -0.0483 -0.1027
77166W        W20157   1.123  32.225   4.062  0.2009 -0.2778  0.1243
77167W        W20158  30.389  12.341  11.008 -0.0039 -0.0869 -0.0415
77168W        W20159  19.609   3.577  23.528 -0.0410  0.2440 -0.1134
77169W        W20160   3.610  22.326   1.707  0.1118  0.0397 -0.2414
77170W        W20161  34.254  11.271   8.352 -0.0988  0.0082  0.1248
77171W        W20162  31.990   4.519   9.673 -0.1644  0.1233  0.0788
77172W        W20163   3.740   4.952   6.775  0.1976 -0.0896  0.0308
77173W        W20164   7.814  29.920   1.684  0.0288  0.1466  0.4801
77174W        W20165  13.047   3.290   3.518  0.2126  0.0341  0.0285
77175W        W20166  24.523  23.280  26.662  0.1868 -0.0582  0.0455
77176W        W20167  13.739   5.455  26.400 -0.1340  0.1111  0.0325
77177W        W20168  21.089   9.208  27.326 -0.1003  0.0412  0.1562
77178W        W20169   8.063  31.809  15.502 -0.0637  0.2029 -0.0740
77179W        W20170  14.361   9.212  21.303  0.1619 -0.0327 -0.0055
77180W        W20171  15.931  28.995  17.867 -0.1605  0.0700  0.2708
77181W        W20172   7.394   1.095   6.270 -0.2129  0.2752 -0.0031
77182W        W20173  10.054   5.906   9.458 -0.0812  0.4230  0.1953
77183W        W20174   2.271  27.035   5.378  0.4743 -0.2850  0.1899
77184W        W20175  15.664  26.357   5.029  0.0529  0.1118 -0.0052
77185W        W20176   2.250  33.114  19.452 -0.0786 -0.4126  0.0811
77186W        W20177   8.267   5.644  27.870 -0.2192 -0.4317 -0.1270
77187W        W20178   5.718  10.530   2.216 -0.4425 -0.2731 -0.2433
77188W        W20179   4.507   6.871  24.281 -0.0660 -0.1024 -0.2124
77189W        W20180  25.540   5.088  21.998  0.1497 -0.1086  0.1734
77190W        W20181  27.782   9.163   3.324 -0.0682  0.3107  0.0207
77191W        W20182   7.109  32.107   6.606  0.0387 -0.0993 -0.2659
77192W        W20183   0.747  16.756   3.227 -0.0973 -0.0275 -0.1396
77193W        W20184   7.167  11.941  11.461  0.2625 -0.3409 -0.0350
77194W        W20185   3.232  29.562  14.853 -0.5266  0.0977 -0.0470
77195W        W20186  10.335   8.931   2.716  0.0269 -0.1883  0.2874
77196W        W20187  11.781   9.743  26.744  0.0803  0.2030 -0.0950
77197W        W20188   1.261  14.746  11.341  0.3553 -0.0031 -0.0999
77198W        W20189  20.487  34.674   5.964  0.0049 -0.0560 -0.1152
77199W        W20190   7.050   1.323   5.887  0.0579 -0.0433  0.1683
77200W        W20191  27.761  30.599  24.178 -0.0789 -0.0432 -0.1127
77201W        W20192  17.283   7.025   2.340  0.1113 -0.2705  0.4836
77202W        W20193  12.269  33.419   3.115  0.0088  0.1344 -0.1438
77203W        W20194   9.558  15.723   2.143  0.0795  0.0400  0.0934
77204W        W20195  17.551  13.654   5.313 -0.0010  0.2547  0.1700
77205W        W20196  23.636   9.010   0.502 -0.0621 -0.3081  0.1458
77206W        W20197  10.609  24.729  26.590  0.0461  0.1109 -0.2519
77207W        W20198  14.039   7.067   9.720 -0.1424  0.2033 -0.1180
77208W        W20199  34.369   2.898  20.702 -0.1851 -0.1289  0.2262
77209W        W20200   8.740  33.903  24.019  0.1741  0.1584 -0.1796
77210W        W20201  15.419  33.084   5.105 -0.1934 -0.2995  0.0393
77211W        W20202  16.985  33.488   7.376  0.1842  0.3577  0.0977
77212W        W20203   4.065   6.835   4.576 -0.1431 -0.0633  0.0065
77213W        W20204  14.065  23.025   2.553  0.1810 -0.0652 -0.1371
77214W        W20205  16.441  29.597   8.787 -0.3061  0.1396 -0.2434
77215W        W20206  21.274   4.246   4.974  0.0149 -0.0807  0.0663
77216W        W20207   3.070   6.312  27.338 -0.0058  0.0477  0.1782
77217W        W20208  18.166   7.228   9.117  0.2833 -0.1728 -0.1874
77218W        W20209  11.714  23.137   3.031  0.0074  0.0037  0.1313
77219W        W20210  12.973   6.976  22.840 -0.1178  0.0506  0.2520
77220W        W20211  10.110   1.486  26.932  0.1077 -0.1349 -0.1890
77221W        W20212   2.912  22.183   8.753 -0.2727 -0.0970 -0.2408
77222W        W20213  34.534   1.730   2.791  0.0780  0.0017 -0.1452
77223W        W20214   9.207  11.995  10.065 -0.0269  0.3265  0.1553
77224W        W20215   6.746  17.432  16.926  0.0930 -0.0757 -0.3134
77225W        W20216  14.918  33.460   2.660  0.0328  0.1810  0.1854
77226W        W20217  15.810  20.949   4.453 -0.1936  0.0612  0.0126
77227W        W20218  30.373   0.564   8.807  0.1703 -0.2157 -0.4163
77228W        W20219  29.717   8.223   1.560  0.0868 -0.2543 -0.1594
77229W        W20220   2.152   6.191  27.786  0.0892 -0.0474  0.1606
77230W        W20221  24.520  15.298  28.564  0.0709  0.2024 -0.0874
77231W        W20222  11.602  31.315   2.517  0.2316 -0.0895 -0.1758
77232W        W20223   7.525  25.042  21.072  0.0340 -0.0199  0.0494
77233W        W20224  22.378   4.407   9.395 -0.0172  0.0964 -0.0938
77234W        W20225  12.886  11.413   6.757  0.4078 -0.2196  0.0467
77235W        W20226   1.484   9.455  11.383 -0.1450  0.0883  0.2531
77236W        W20227  34.398   5.194   7.145 -0.1073  0.0908  0.2756
77237W        W20228  14.498  20.464  21.133 -0.0996  0.2140  0.2743
77238W        W20229  28.337   4.395   7.353  0.0540  0.1461  0.0179
77239W        W20230  23.703  15.101   4.094  0.2873 -0.0382  0.0026
77240W        W20231  22.222  30.739  28.615 -0.2844 -0.2277  0.1384
77241W        W20232  29.604  23.352   8.584  0.1628  0.1684 -0.4004
77242W        W20233   1.593  14.887  12.294 -0.3606 -0.1530  0.3649
77243W        W20234  23.834   0.364  29.106  0.2391 -0.0232  0.2781
77244W        W20235   0.448  14.574  29.092 -0.0699  0.1493  0.1345
77245W        W20236  19.725   4.566   4.551 -0.2461  0.0554  0.0446
77246W        W20237  10.400  31.990   5.203 -0.0483  0.0375 -0.1080
77247W        W20238  27.702   5.617   3.010 -0.0012 -0.3045  0.1358
77248W        W20239  33.692  10.378   9.881 -0.1798  0.1977 -0.2781
77249W        W20240   7.672   7.371   4.345 -0.4323 -0.0498  0.0329
77250W        W20241   0.225  22.152   2.110  0.1533  0.1196 -0.1673
77251W        W20242  19.251   2.729   8.625 -0.0126  0.0141 -0.1633
77252W        W20243   9.382  28.578   7.039 -0.1951 -0.1725 -0.1089
77253W        W20244  29.229  12.002   7.271  0.2188 -0.0626  0.0303
77254W        W20245  12.769   2.430  23.944  0.1065 -0.1330  0.2424
77255W        W20246   1.164   5.492   3.056  0.2431 -0.2620 -0.2183
77256W        W20247  14.750   9.140   7.575  0.1579 -0.2210 -0.0233
77257W        W20248  28.079  19.321  29.133 -0.0533  0.2614  0.0707
77258W        W20249  17.012  23.105  28.059  0.3754  0.3056 -0.0544
77259W        W20250  16.348  27.569   3.076  0.0440 -0.2741 -0.3176
77260W        W20251   5.124   0.492   7.200  0.0150 -0.0614  0.1735
77261W        W20252  15.276  20.650   4.676  0.1256 -0.4155  0.1022
77262W        W20253   5.952  16.609  10.228 -0.0931  0.3008 -0.0045
77263W        W20254  18.355   2.015   5.563  0.2151 -0.1125 -0.1364
77264W        W20255  18.474  28.898   9.412  0.0622 -0.2138 -0.0665
77265W        W20256  13.804   9.193   5.490  0.1586 -0.4516 -0.2101
77266W        W20257  15.545  33.341   1.500  0.0074  0.3194 -0.1343
77267W        W20258  11.522  28.375  22.516  0.0154  0.3028  0.0048
77268W        W20259   7.767   7.887  11.071 -0.0068  0.1330 -0.3131
77269W        W20260   4.377  26.516  21.639  0.0457 -0.1719 -0.2496
77270W        W20261   3.526  23.251   0.855  0.0071  0.0892 -0.1422
77271W        W20262   7.394  10.009   7.748 -0.1187 -0.1320  0.1548
77272W        W20263  32.439   9.407  24.929  0.0491  0.2934 -0.1703
77273W        W20264  20.541  34.490   7.033 -0.0159 -0.0843 -0.1884
77274W        W20265  11.149  27.781   9.837 -0.3033  0.1285  0.0693
77275W        W20266  27.779  26.645  21.627 -0.1661 -0.0045  0.1742
77276W        W20267   7.674  20.389  18.955  0.2124 -0.1398 -0.1676
77277W        W20268   7.610  33.286  26.007  0.2422 -0.0675  0.0829
77278W        W20269  27.825   8.284   5.421  0.0558 -0.1000 -0.0816
77279W        W20270  12.944   3.300  24.052 -0.0693  0.1274 -0.1942
77280W        W20271   8.162   7.168   9.217  0.2882 -0.0858  0.0412
77281W        W20272  23.064  29.707   8.818  0.1694  0.0433  0.1742
77282W        W20273  11.206   8.722  24.718  0.2340 -0.1326 -0.1067
77283W        W20274  12.471  28.185   4.649 -0.0129 -0.1714 -0.0126
77284W        W20275  20.570   4.640   9.842  0.0530  0.4130  0.0244
77285W        W20276  18.091   6.897  25.476  0.1074  0.0482 -0.0566
77286W        W20277  22.468  13.144   6.500 -0.2492 -0.0579 -0.0990
77287W        W20278   5.467   0.655   0.671 -0.1059  0.0715 -0.0035
77288W        W20279  19.505  18.138   8.577 -0.6941 -0.1281  0.1420
77289W        W20280  23.007   5.103  27.440 -0.2448 -0.1457  0.1389
77290W        W20281  13.975  14.922   7.946  0.2834  0.3716 -0.2287
77291W        W20282  29.329   1.293   5.279 -0.1079  0.2149  0.2889
77292W        W20283  10.484  30.198  29.222  0.1135 -0.2001 -0.2236
77293W        W20284  21.267   8.815   6.760  0.2398  0.1217  0.1543
77294W        W20285  14.935  24.611  23.115 -0.0183  0.0964 -0.0975
77295W        W20286  13.144   7.198  24.704 -0.1547 -0.1255 -0.1308
77296W        W20287   3.029  14.431   5.518 -0.2628  0.2418 -0.0946
77297W        W20288  13.348  10.279  29.221  0.0107  0.2211 -0.1351
77298W        W20289  17.544  18.370  23.550 -0.0490 -0.0611  0.3049
77299W        W20290  20.793  25.408   0.490 -0.0314  0.2376  0.2249
77300W        W20291  10.351  10.725   1.831  0.1180  0.3012 -0.3037
77301W        W20292  14.271  29.827  22.915  0.2807 -0.2262  0.2590
77302W        W20293  20.035  31.655   5.822  0.1217 -0.2589 -0.1186
77303W        W20294   4.864   9.684  10.357 -0.1647 -0.1109 -0.0108
77304W        W20295  28.365   4.351   9.141 -0.0899  0.1119  0.2250
77305W        W20296   8.221  16.749  28.093  0.2303 -0.0181  0.2252
77306W        W20297  17.249  31.203  19.561  0.4173  0.0492 -0.1386
77307W        W20298  11.399   2.948  27.642 -0.0432  0.0658  0.0929
77308W        W20299   0.667  33.822  28.323  0.0383  0.0457  0.2984
77309W        W20300  20.514  34.203   5.951  0.0346  0.1367  0.5451
77310W        W20301   6.445  30.347  24.043 -0.0553  0.2670  0.1615
77311W        W20302   4.419   2.271   6.011 -0.1965  0.2680  0.1249
77312W        W20303  14.205  25.781   1.840  0.0090 -0.0679 -0.0433
77313W        W20304  27.849  11.337  27.318 -0.0879  0.4621 -0.0215
77314W        W20305  14.998   8.477  24.269 -0.0216 -0.0326 -0.0891
77315W        W20306  11.238  25.561   8.359 -0.1694 -0.1383 -0.0870
77316W        W20307   8.479  20.442  16.129 -0.2043 -0.1226  0.0988
77317W        W20308  11.884  30.464   8.139 -0.1532  0.3081  0.0404
77318W        W20309  26.544  30.660   5.567 -0.1376 -0.1490 -0.0592
77319W        W20310   8.760  29.318   3.853  0.0685  0.2718  0.3426
77320W        W20311   4.468   3.472   3.139  0.0248 -0.2528 -0.0015
77321W        W20312  25.517   1.796  29.204  0.2180 -0.0048  0.0125
77322W        W20313   4.616   4.054   6.631 -0.0530  0.0698  0.0231
77323W        W20314   0.024   5.612   4.735  0.2565 -0.2784  0.2623
77324W        W20315  16.365  33.728   5.679 -0.2895 -0.2541  0.0183
77325W        W20316  12.469  26.771   0.472  0.0750  0.0663  0.2023
77326W        W20317  18.568   6.984  24.447  0.0774  0.0794  0.0700
77327W        W20318  34.699  16.509  27.327 -0.0591 -0.1100 -0.2467
77328W        W20319   6.537  24.211   4.619 -0.0142 -0.2272  0.0735
77329W        W20320  20.586  22.931  24.817 -0.0819  0.1997  0.0616
77330W        W20321   7.740   7.277  10.946 -0.1008 -0.1722  0.4065
77331W        W20322   9.929  26.216  27.153 -0.3106 -0.1093 -0.1027
77332W        W20323  13.346  34.035   2.429 -0.1831  0.0975 -0.1026
77333W        W20324  14.742  20.240   1.673 -0.1391  0.0372 -0.0651
77334W        W20325   3.666  22.825   1.503 -0.1325  0.0496  0.3191
77335W        W20326  16.093  32.255  26.991  0.1072 -0.0801  0.1456
77336W        W20327  10.742   1.403  15.563  0.0432  0.0983 -0.3206
77337W        W20328  18.170  13.789  22.965  0.0181 -0.1205  0.1708
77338W        W20329  32.036  21.180   5.304 -0.1254  0.0988  0.0870
77339W        W20330   8.434  25.574  27.997  0.0042  0.1988 -0.2562
77340W        W20331  13.462  33.991  18.646  0.2022  0.0304  0.0682
77341W        W20332  13.931   4.160   8.494  0.3731  0.0283 -0.1843
77342W        W20333  21.450  11.889   1.304 -0.1569 -0.2400  0.1282
77343W        W20334  13.286  25.727  24.598 -0.1244 -0.2326 -0.1092
77344W        W20335  17.155   0.789   1.235  0.1048 -0.1543 -0.1493
77345W        W20336  11.632   2.716  20.352  0.2185  0.0598 -0.0494
77346W        W20337  15.300  32.299   8.974 -0.1500  0.0497 -0.2282
77347W        W20338  24.392   2.018   6.120  0.2349  0.0735  0.0651
77348W        W20339  29.295   8.227  14.767  0.0686  0.0838  0.0533
77349W        W20340  32.849  29.458   1.858 -0.1099 -0.1943 -0.1007
77350W        W20341  30.765   2.906   3.636 -0.1587 -0.2168 -0.1532
77351W        W20342  32.359  29.494  16.039 -0.0773 -0.0852  0.2710
77352W        W20343  29.872   8.045   4.039 -0.2320 -0.2628 -0.0898
77353W        W20344   0.738   1.739   5.648 -0.1406 -0.1403  0.1338
77354W        W20345  18.106  26.701   0.652 -0.3084  0.2110  0.0063
77355W        W20346   2.765  31.713  19.489 -0.1560 -0.0135 -0.0545
77356W        W20347  26.305  16.690   4.569  0.2200 -0.3127 -0.1896
77357W        W20348   8.141  17.791  29.019  0.0292  0.2580  0.2584
77358W        W20349  22.499  30.149   9.469  0.1225  0.1975  0.3065
77359W        W20350  19.854  27.873  28.223 -0.1387  0.2397 -0.1102
77360W        W20351   8.806  33.247  10.590  0.0024  0.0805  0.0045
77361W        W20352   8.489  22.156   5.666  0.0911 -0.2432  0.0677
77362W        W20353  23.563   0.905  28.338  0.1727 -0.0885 -0.1662
77363W        W20354  32.641   5.439   2.739  0.0513  0.0986  0.2508
77364W        W20355  25.335  16.133   8.371 -0.0013 -0.3221 -0.0636
77365W        W20356  14.137   2.088   0.443 -0.1740 -0.2294  0.0552
77366W        W20357  23.105   0.895  23.216  0.0540 -0.0659  0.0955
77367W        W20358   3.944   3.429   8.846  0.1076 -0.0031 -0.0311
77368W        W20359  14.605   6.341  22.355 -0.2169  0.0481 -0.1538
77369W        W20360  17.233   2.303   5.305 -0.2284  0.1473  0.3594
77370W        W20361  29.953  14.988  19.549  0.1462  0.1558  0.1733
77371W        W20362  12.685  30.860   8.608  0.0570 -0.0357 -0.1429
77372W        W20363  13.075  27.505   7.702  0.0221 -0.0093  0.1138
77373W        W20364   1.094   5.795  28.346 -0.2105 -0.1867 -0.3622
77374W        W20365  22.286  31.033   7.553 -0.0803 -0.1546  0.0080
77375W        W20366   0.850  21.209   7.841 -0.0390 -0.0453  0.0805
77376W        W20367  19.905   6.588   5.553 -0.3555 -0.0628  0.2755
77377W        W20368   5.797  24.148  25.446 -0.1307 -0.1629  0.0336
77378W        W20369   6.297  26.304   9.909 -0.1240 -0.1429 -0.0802
77379W        W20370   4.175  13.109   3.645 -0.0533 -0.3067  0.1571
77380W        W20371   5.314  32.512   0.833  0.3026 -0.1872  0.1519
77381W        W20372  12.153   9.661   3.514  0.0493  0.1045  0.3845
77382W        W20373  21.027  34.212   7.598  0.1442 -0.0603 -0.0212
77383W        W20374   9.078   0.566  14.776 -0.0963 -0.0318  0.0830
77384W        W20375   3.585   0.244   0.627 -0.1143 -0.1798  0.0714
77385W        W20376   1.636   7.164  28.660 -0.3090 -0.1739  0.0500
77386W        W20377  21.791  21.361   5.654 -0.0706  0.3960 -0.0345
77387W        W20378   9.913   0.098  27.627  0.1887 -0.0531 -0.0953
77388W        W20379  30.323   4.458  10.234 -0.1375  0.0290  0.1498
77389W        W20380   1.411  21.905   4.273 -0.2746  0.0218 -0.0525
77390W        W20381   7.359  28.840   5.027 -0.0652 -0.0999  0.0505
77391W        W20382  32.810  12.246   8.053  0.0508 -0.3874  0.0934
77392W        W20383   7.252  31.791  22.639  0.1302 -0.3381 -0.0736
77393W        W20384  17.043  31.484   7.086  0.1658 -0.1158  0.0453
77394W        W20385  11.741  26.931   7.704 -0.3832  0.0058 -0.2243
77395W        W20386  34.576  34.109  25.723 -0.0028 -0.3623  0.0237
77396W        W20387  34.089  32.625  19.283 -0.2247  0.1641  0.1890
77397W        W20388   7.641   1.807  10.265 -0.2353  0.2945 -0.0178
77398W        W20389   3.548  33.058  26.737 -0.2176 -0.1446 -0.2023
77399W        W20390   2.085  13.171   6.932  0.0457 -0.0173 -0.1473
77400W        W20391  18.576   9.292   4.294  0.2697  0.0849 -0.2809
77401W        W20392   5.085  20.480   7.884 -0.0958  0.0941  0.0870
77402W        W20393  27.517  12.107   9.381  0.0290  0.0987 -0.0109
77403W        W20394  15.123   2.085  22.347 -0.2737 -0.3337  0.0348
77404W        W20395   0.574  21.655   7.716 -0.0400  0.1915  0.0904
77405W        W20396  23.002   1.667   6.443 -0.0397  0.0285 -0.0904
77406W        W20397   9.103  11.411   5.150  0.0738  0.1131  0.2056
77407W        W20398   7.319  29.196  28.935 -0.0700 -0.0151  0.2104
77408W        W20399  17.203   8.287  25.452 -0.2176 -0.0865  0.0135
77409W        W20400   3.716  32.948   3.252  0.0506 -0.2804 -0.1582
77410W        W20401  19.033  23.173  22.761 -0.3321  0.0005  0.1029
77411W        W20402  21.139   8.356   1.750 -0.0127 -0.2633 -0.0975
77412W        W20403   4.733  10.791  20.774 -0.0230 -0.1190 -0.1742
77413W        W20404  34.646   2.369  17.430 -0.1464  0.1532  0.0379
77414W        W20405  25.383   4.273  21.667 -0.0101  0.0009  0.2674
77415W        W20406   6.228   5.476   2.020 -0.1124  0.1854  0.0010
77416W        W20407   9.448  16.202   6.289  0.1463  0.1724  0.1396
77417W        W20408   6.906  26.057  21.568  0.1708 -0.1660  0.2651
77418W        W20409  14.966   8.944   5.823 -0.0475  0.0505  0.1259
77419W        W20410  20.948   3.980   0.612  0.3384  0.4021  0.0507
77420W        W20411  12.860   5.564  26.615 -0.0645  0.3296  0.0529
77421W        W20412  19.695  27.691   4.094  0.0912 -0.2301  0.2840
77422W        W20413  28.301  20.010   6.302  0.0730 -0.1627  0.0497
77423W        W20414  11.842  24.307  22.078  0.0778 -0.0104  0.2666
77424W        W20415   7.202   6.901  16.510 -0.0928  0.0026 -0.0477
77425W        W20416   1.925  22.947  28.103  0.1141  0.3668 -0.0629
77426W        W20417  15.584  23.953   7.752  0.2352 -0.2642  0.0447
77427W        W20418   6.668  19.325   5.220  0.0208 -0.2312  0.0400
77428W        W20419  16.915  14.870   5.423 -0.0204  0.0492 -0.4022
77429W        W20420  10.737  29.836  27.887  0.1704  0.1778 -0.1051
77430W        W20421  18.438   4.885   1.430 -0.0503 -0.2013 -0.1477
77431W        W20422  34.423  16.926   5.109 -0.1097  0.1952  0.2940
77432W        W20423  31.732  24.989   0.380  0.5973  0.1955  0.3195
77433W        W20424  18.779  13.433   8.195  0.0843 -0.3105 -0.1295
77434W        W20425   4.117  31.042  27.082  0.0117 -0.2036 -0.1105
77435W        W20426  10.925  18.974  26.322 -0.2163 -0.1611  0.3864
77436W        W20427   8.626   8.143   3.569 -0.1262  0.0673 -0.1476
77437W        W20428  11.976   0.753   0.055  0.0481  0.1848 -0.1328
77438W        W20429  13.033   9.169   9.458  0.0729 -0.1292 -0.6144
77439W        W20430  11.044  33.079   8.457 -0.0264 -0.3989 -0.0482
77440W        W20431  17.560   0.073  29.143  0.2370  0.0685 -0.2738
77441W        W20432  24.302   0.213  15.208  0.0419 -0.1546  0.0427
77442W        W20433  31.311   1.808   7.711  0.1754  0.0849 -0.0352
77443W        W20434   5.913   1.858   9.046 -0.0799  0.1379 -0.0688
77444W        W20435  12.672  32.859  23.162 -0.4115  0.0826 -0.2137
77445W        W20436  32.315  11.316   7.906 -0.0569 -0.1709 -0.0866
77446W        W20437  16.508  18.117   5.802 -0.2442  0.0255  0.2089
77447W        W20438  12.510  29.039  27.320  0.1118  0.2691  0.0803
77448W        W20439  23.471  10.391  23.396 -0.1639 -0.1778 -0.2471
77449W        W20440  25.918  32.443   2.789 -0.0966  0.2767  0.0976
77450W        W20441  14.193  29.146   0.132  0.1429 -0.2155  0.1544
77451W        W20442  26.538  21.762   7.661  0.1634 -0.3226  0.2282
77452W        W20443   0.308  28.960   0.697 -0.3139  0.1835 -0.0429
77453W        W20444  20.282  34.623  18.510 -0.1900 -0.0394  0.0211
77454W        W20445  18.118  34.682   2.190 -0.1014 -0.0951 -0.2696
77455W        W20446  17.069   9.037   6.781 -0.0653  0.1415 -0.0720
77456W        W20447   6.041  31.466  27.195 -0.4287  0.1108  0.2626
77457W        W20448  14.419  28.275   2.472  0.0857  0.1774  0.1615
77458W        W20449  10.404  33.286  27.284  0.0813  0.1571 -0.2996
77459W        W20450   3.884  29.206  23.391  0.0968  0.1174  0.1057
77460W        W20451  16.874  34.088  26.411  0.3210  0.1411  0.0657
77461W        W20452   0.610   3.642  25.417  0.0681  0.0716 -0.2077
77462W        W20453  20.620  24.926   5.692 -0.0909 -0.0128  0.1525
77463W        W20454   6.609   1.294   9.712 -0.0210 -0.1492 -0.0264
77464W        W20455   1.335  29.228  18.942 -0.1698 -0.2525 -0.1536
77465W        W20456  12.582  26.342   3.645 -0.4096  0.3805  0.0150
77466W        W20457   3.692   9.640  28.742  0.2965 -0.1876 -0.1587
77467W        W20458   3.683  10.933   5.449  0.3294 -0.0531 -0.0268
77468W        W20459  31.506  20.493  27.150  0.0303  0.2158 -0.0203
77469W        W20460  17.908  23.252  23.952 -0.1359 -0.0542 -0.2029
77470W        W20461  12.098  23.480  23.168 -0.1897 -0.0533 -0.0051
77471W        W20462   7.944   1.390   9.356  0.1861 -0.1189  0.1750
77472W        W20463  16.163   0.495  21.924 -0.0290  0.2526 -0.0483
77473W        W20464  11.845   4.630   1.569  0.1370  0.1156 -0.0217
77474W        W20465   4.000  11.037   0.479  0.2254  0.0291  0.2342
77475W        W20466  11.213  29.310  10.297  0.1689 -0.1024  0.1615
77476W        W20467  22.848  31.768  24.887  0.1445 -0.1059  0.1381
77477W        W20468  27.317   8.238   8.833 -0.0164  0.1669 -0.0123
77478W        W20469  12.895  10.123  20.533  0.0382  0.1502 -0.1035
77479W        W20470   1.043   8.154   8.996  0.2401 -0.0500  0.1447
77480W        W20471  15.255   3.855   0.487  0.0878 -0.0405 -0.0571
77481W        W20472  33.542   1.004   0.648 -0.2858  0.1473  0.4659
77482W        W20473   8.873   3.674   0.193 -0.2581 -0.0598 -0.1075
77483W        W20474  20.337  12.224  27.956  0.0788  0.2603  0.0051
77484W        W20475   7.715  12.881  10.904 -0.0171  0.0696 -0.1932
77485W        W20476   8.548  31.961  28.507 -0.1033  0.1069 -0.3375
77486W        W20477  10.733   5.199  18.532 -0.2550 -0.0913 -0.0554
77487W        W20478  15.806  28.437   3.927  0.0857  0.0602  0.3281
77488W        W20479  11.688  23.414   1.751 -0.0462  0.0203 -0.1785
77489W        W20480   1.659  28.124   5.615 -0.0345  0.1874  0.2997
77490W        W20481   7.130  32.370   2.540  0.1265  0.1611 -0.0716
77491W        W20482  16.961  28.931  27.089 -0.1061  0.1714  0.0466
77492W        W20483   5.924  25.301   4.763  0.0265 -0.2137 -0.3421
77493W        W20484  11.902   0.186   6.130  0.3854 -0.1758 -0.0010
77494W        W20485  17.671  13.459   0.798  0.2084  0.0114 -0.0537
77495W        W20486   9.536  25.750   6.267 -0.2692  0.1016  0.4212
77496W        W20487   9.153  33.322  28.653 -0.0836  0.0323  0.1652
77497W        W20488  17.570   5.448  24.049 -0.0893  0.0637 -0.2409
77498W        W20489   4.142   8.320   5.533 -0.2216 -0.4648  0.0219
77499W        W20490   5.159  19.482  10.433  0.0097  0.0004  0.2988
77500W        W20491  33.684   0.705   1.569 -0.0387  0.0458  0.3782
77501W        W20492  17.339   8.920   9.732  0.1730  0.1985 -0.1297
77502W        W20493   8.083  28.349   5.154 -0.2190 -0.0894 -0.1941
77503W        W20494  16.754  15.530   4.817 -0.1489  0.1068 -0.0050
77504W        W20495  17.699  11.380   9.433  0.1310 -0.0700  0.1516
77505W        W20496  33.927   1.376  18.138  0.0457 -0.3974 -0.0334
77506W        W20497  29.774   5.422   9.031  0.2315  0.3931 -0.1431
77507W        W20498  14.972  14.699  27.932 -0.1705  0.1053  0.2855
77508W        W20499  12.017  28.131  24.954  0.1658 -0.1957  0.1871
77509W        W20500  34.613  31.105  26.652  0.1746 -0.2456  0.2960
77510W        W20501  10.768   4.941   7.653 -0.0159  0.1312 -0.3345
77511W        W20502  16.849  33.567   9.290 -0.2537  0.1546  0.0725
77512W        W20503  19.942  25.667  10.081 -0.4185  0.0399  0.1375
77513W        W20504  10.579   1.318  16.361  0.0747 -0.0821  0.5291
77514W        W20505   4.608  28.735   2.937  0.1009  0.0879  0.2017
77515W        W20506  30.918  28.666   5.341 -0.0106 -0.3730  0.1149
77516W        W20507  12.759   2.951   7.007 -0.2005  0.1463  0.3033
77517W        W20508  24.820  30.427   9.598 -0.0926  0.1228 -0.1957
77518W        W20509  16.719  28.901  25.472  0.0173  0.3578  0.0129
77519W        W20510  17.941   5.096   1.816 -0.1677  0.0891  0.1828
77520W        W20511  16.830  23.120   2.526  0.2087 -0.2310  0.0075
77521W        W20512  20.749  16.871   4.879  0.0590  0.0773  0.3093
77522W        W20513   0.363   3.575   3.760 -0.2324  0.0384 -0.1865
77523W        W20514  24.354  10.520   5.153  0.0747 -0.0137 -0.1306
77524W        W20515  20.859  32.737   2.539 -0.0546 -0.0534 -0.3306
77525W        W20516  10.895   0.388   1.358 -0.0087  0.2774  0.1579
77526W        W20517  12.613   1.739  28.575  0.0056  0.1440  0.1855
77527W        W20518  30.213   4.173  25.256 -0.0633  0.1110  0.1912
77528W        W20519   3.506  29.993   9.023 -0.0780 -0.0089  0.0870
77529W        W20520  31.765  31.810   1.597  0.1428  0.1452  0.0486
77530W        W20521  12.722  18.536   9.173  0.0115 -0.0928 -0.0751
77531W        W20522  31.333   8.616  27.728 -0.0052 -0.1336 -0.0996
77532W        W20523  10.984   8.538   0.867  0.1346  0.1973 -0.1475
77533W        W20524  19.031  21.947  25.264 -0.0790  0.2246  0.1414
77534W        W20525  13.889   1.021   8.224  0.1314 -0.1878 -0.0879
77535W        W20526  24.290   6.548   9.538 -0.1014  0.0743  0.1732
77536W        W20527  12.583  32.865   9.800 -0.1515 -0.2259 -0.1039
77537W        W20528  11.046  34.621  27.655 -0.0980 -0.0020 -0.0975
77538W        W20529  28.854   4.394   4.582  0.1125 -0.1835  0.2179
77539W        W20530   3.403   0.325  27.520  0.2069  0.0435  0.3511
77540W        W20531   5.661   7.524   2.607 -0.0050  0.0747  0.0125
77541W        W20532  20.435  13.623  28.305  0.3025 -0.3550 -0.0294
77542W        W20533   3.529   8.895   3.391 -0.1450  0.2328  0.2238
77543W        W20534  15.350  25.808   4.213 -0.1278 -0.0778  0.2052
77544W        W20535  14.273  27.423   0.223  0.0439  0.2037  0.3683
77545W        W20536  27.053  27.862   0.732 -0.1739 -0.4059  0.0179
77546W        W20537  10.454  33.752   8.788  0.0832  0.1148 -0.0945
77547W        W20538  13.322   5.724  26.475  0.1403  0.2769 -0.0487
77548W        W20539   6.269  32.514   5.634  0.1377 -0.1077  0.2037
77549W        W20540  14.078  24.078   2.152  0.0398  0.0125 -0.1547
77550W        W20541  22.861  32.671   2.100 -0.1846 -0.0847  0.1109
77551W        W20542   8.996   4.076  25.636  0.1634  0.0421 -0.2054
77552W        W20543   3.806  10.019  25.222  0.0894  0.2964  0.1178
77553W        W20544   2.169   8.461  11.229  0.2156  0.2994 -0.1709
77554W        W20545   8.199  11.914   4.480  0.5584  0.2370 -0.0062
77555W        W20546   0.349  22.529   2.404  0.0970  0.0214 -0.0377
77556W        W20547   0.019   3.171  14.523  0.2620 -0.2601  0.1177
77557W        W20548  12.725  32.014   2.091 -0.4250  0.1845  0.2440
77558W        W20549  29.546  16.636   9.782 -0.0851 -0.3551  0.0612
77559W        W20550  34.492  26.377   3.012 -0.0189  0.1147 -0.1392
77560W        W20551   7.576   1.532   7.804  0.0419 -0.1417  0.2709
77561W        W20552   3.991  15.882   8.177  0.0051 -0.1260  0.1483
77562W        W20553  30.256   7.350   3.209  0.2562  0.0829  0.0899
77563W        W20554   4.934  11.547  28.634  0.0602 -0.0209 -0.1221
77564W        W20555  13.620   5.225  18.782 -0.0874 -0.0587  0.2037
77565W        W20556  16.054   2.930   7.887 -0.3351  0.2154 -0.0969
77566W        W20557  23.714  25.182   8.696  0.0654 -0.2174 -0.0003
77567W        W20558   1.123  30.613   9.042  0.2790  0.1902  0.1595
77568W        W20559  26.742  19.304   6.518  0.4353 -0.0641 -0.1845
77569W        W20560  23.409  16.230  24.321 -0.0530 -0.3052  0.0207
77570W        W20561   0.558   5.227   6.424 -0.0294 -0.0292  0.0846
77571W        W20562  30.321  10.087   0.543 -0.0169 -0.1363 -0.2187
77572W        W20563  23.929  25.964   9.333 -0.1597 -0.0080  0.1044
77573W        W20564  34.502  31.122  19.181  0.1989  0.1628 -0.2532
77574W        W20565   8.946   4.106   0.834  0.2236 -0.2681  0.2640
77575W        W20566  32.492   1.671   1.545  0.1815  0.1367 -0.1200
77576W        W20567  14.908   6.241   6.275 -0.2520  0.0272  0.3151
77577W        W20568   6.930   1.169   8.915 -0.1053 -0.2645  0.0077
77578W        W20569  20.249  31.983   8.541 -0.2130  0.0803  0.3140
77579W        W20570  11.909  28.145   2.687  0.1859  0.2911  0.0810
77580W        W20571  18.055   0.727   4.854 -0.0516 -0.1746 -0.1931
77581W        W20572   4.508  11.303   5.982 -0.0695 -0.3179 -0.1321
77582W        W20573  17.034  29.037   4.075 -0.0867  0.0062 -0.0225
77583W        W20574  31.249   0.560   2.422 -0.1405 -0.1327  0.0359
77584W        W20575  30.126   0.579   7.834  0.2093  0.2137  0.2037
77585W        W20576  17.494  18.174  24.030 -0.0627  0.2815  0.1807
77586W        W20577   8.963  13.929   5.852 -0.1309  0.2722 -0.1706
77587W        W20578  32.244  13.916   8.827  0.1263  0.1640  0.1078
77588W        W20579  14.451   6.822   1.289 -0.3901  0.2811  0.0039
77589W        W20580  12.925   9.469   5.814 -0.0426  0.0169  0.0263
77590W        W20581  11.345  12.902  10.346 -0.0734  0.2767  0.1555
77591W        W20582   0.679  33.848   5.719  0.1265  0.1239 -0.0811
77592W        W20583   8.701   1.683  24.256  0.2655 -0.0310 -0.3071
77593W        W20584  17.985  30.806   5.080  0.3195  0.0398 -0.1967
77594W        W20585  17.203  17.979   5.394  0.1917  0.0771 -0.0513
77595W        W20586  14.127  14.021  23.917 -0.1387 -0.0750 -0.1357
77596W        W20587   5.495  34.508  28.320 -0.0747 -0.0460 -0.1511
77597W        W20588   7.747  27.542  20.210  0.2471 -0.3397  0.1863
77598W        W20589  11.032   5.210   3.641 -0.2730  0.3203  0.2135
77599W        W20590  30.501   3.176  23.342 -0.2065  0.1306  0.1055
77600W        W20591  13.662   9.463  10.552  0.2600  0.0925 -0.0444
77601W        W20592  13.927  31.713   8.776  0.2767 -0.1028  0.2719
77602W        W20593   0.790  14.895  26.958 -0.1155 -0.1410  0.3100
77603W        W20594  14.048  24.092   9.519  0.2264  0.1105  0.3519
77604W        W20595  16.622  34.500  21.378  0.1776  0.0398  0.2086
77605W        W20596  15.314  23.899  26.918  0.1079  0.1265 -0.0864
77606W        W20597  10.000  13.405   9.023  0.1189 -0.0758  0.4024
77607W        W20598  28.759   9.422  26.310 -0.5885  0.1368  0.3066
77608W        W20599   2.860  23.692   8.102  0.0675  0.0640 -0.4308
77609W        W20600  11.994  26.241   9.926  0.0491 -0.1605  0.0931
77610W        W20601   7.627  12.531   7.894 -0.4837  0.0238 -0.1054
77611W        W20602   5.979  26.767  24.376 -0.0402 -0.0221  0.2138
77612W        W20603   3.972  24.133   0.627  0.2170 -0.0908  0.4061
77613W        W20604  20.713  34.201   3.779  0.2019 -0.3030 -0.0173
77614W        W20605   7.971   8.491   8.002 -0.0756 -0.2548  0.2254
77615W        W20606   8.916   1.450   7.308  0.0209  0.0362 -0.1207
77616W        W20607   6.330   8.104   9.351  0.2360  0.0109 -0.0273
77617W        W20608   7.102  15.584   8.339  0.0547 -0.3131 -0.0411
77618W        W20609   7.565  22.803   2.939  0.1300 -0.0129 -0.1147
77619W        W20610   2.266  28.116   3.725 -0.1100 -0.2321 -0.4436
77620W        W20611  13.653  17.006   3.946  0.0443 -0.2137  0.1751
77621W        W20612  31.767   2.181  20.048 -0.2200 -0.0470 -0.2101
77622W        W20613   5.437   7.149  25.862 -0.1476 -0.0854 -0.3317
77623W        W20614   9.509  34.571   9.866 -0.3083  0.1923  0.0977
77624W        W20615  11.148  27.249   6.057  0.0044 -0.1681  0.0053
77625W        W20616  10.302   6.159   4.252 -0.0156  0.0285  0.0110
77626W        W20617   0.351   6.789   7.051 -0.1076  0.0752 -0.2650
77627W        W20618  18.840  29.725   8.498 -0.2347  0.2874 -0.3442
77628W        W20619   9.606  33.648  27.867  0.2636 -0.0708 -0.1915
77629W        W20620   8.461  24.106   3.493  0.0363 -0.2738 -0.1167
77630W        W20621  15.283  25.250  18.375 -0.0676  0.2082  0.3056
77631W        W20622  13.242  33.103   5.782  0.0644 -0.1153  0.1681
77632W        W20623  27.182  27.879   4.756 -0.1024 -0.1200 -0.1049
77633W        W20624   5.912   2.253  18.584  0.1623 -0.0629  0.1046
77634W        W20625  17.938   3.302   6.298 -0.0402 -0.3959  0.0831
77635W        W20626   3.549   6.156   8.207 -0.0048  0.0703 -0.2864
77636W        W20627   6.461  28.428   8.337  0.1780  0.4029  0.1009
77637W        W20628  11.283   9.755   4.082  0.0256  0.2445  0.0330
77638W        W20629  32.778   5.705   1.850  0.1188  0.0870  0.2311
77639W        W20630   5.974  29.606   9.123 -0.1505  0.0464 -0.3862
77640W        W20631   9.858  12.019  29.162 -0.1766 -0.0023  0.0627
77641W        W20632  14.410  21.333  14.848 -0.1498 -0.0968 -0.1525
77642W        W20633  34.192   7.626   8.921 -0.3294  0.1043  0.2727
77643W        W20634  16.152   6.041   8.526 -0.0727  0.0569 -0.3788
77644W        W20635   3.359   7.397   3.414 -0.2610 -0.1095 -0.0875
77645W        W20636   3.356  16.349  10.499 -0.0165  0.0872 -0.1913
77646W        W20637   4.045  26.962   6.898  0.4573 -0.1457  0.0045
77647W        W20638   2.613   2.071   1.439  0.5415 -0.1251  0.1149
77648W        W20639   3.418  28.768   1.238 -0.1524 -0.0732  0.0907
77649W        W20640   8.676  24.495   7.386 -0.2648  0.2007 -0.1318
77650W        W20641   7.080   9.858  10.486  0.0315  0.3396  0.3325
77651W        W20642   9.391   7.901  11.308  0.1173  0.0064 -0.1094
77652W        W20643  32.166   6.780  29.051  0.3863 -0.1693  0.0354
77653W        W20644  25.715  11.752   8.731 -0.2166 -0.2838 -0.0738
77654W        W20645   2.765  32.441   4.398  0.0490  0.0025  0.1048
77655W        W20646  26.703  18.573   1.492  0.0294 -0.0739 -0.1029
77656W        W20647  25.143  10.961   6.369 -0.1061 -0.3779 -0.1122
77657W        W20648  20.632  16.209   8.160  0.1589 -0.2911  0.1325
77658W        W20649  14.213  27.985   3.278 -0.0475  0.0619 -0.1049
77659W        W20650   6.987  29.311   2.595 -0.1048  0.1514  0.2623
77660W        W20651  34.194   4.343  26.491 -0.0495  0.0492  0.0966
77661W        W20652  13.836  24.426   7.869  0.0878  0.0806 -0.0815
77662W        W20653  18.659  29.574   0.514 -0.0575  0.3957  0.0002
77663W        W20654   4.623  30.517  21.780  0.0591 -0.2344  0.1346
77664W        W20655  17.103   1.513  28.410  0.0290  0.0788 -0.3426
77665W        W20656   4.210  31.527   0.944  0.1495  0.1762 -0.1874
77666W        W20657  12.631  21.119  26.701 -0.2580 -0.1046  0.2211
77667W        W20658   8.900   8.847   3.987  0.2388 -0.0745 -0.1828
77668W        W20659  21.565   8.597  17.067 -0.2615  0.0279  0.0143
77669W        W20660  29.247   3.576   4.958 -0.2169 -0.1033 -0.3033
77670W        W20661  25.764  24.020   6.672  0.1236 -0.3520 -0.1351
77671W        W20662   8.054   5.155  23.437 -0.1388 -0.1200 -0.1622
77672W        W20663  32.435  33.140  26.147  0.1648  0.3264 -0.0313
77673W        W20664   9.219  34.642   6.779 -0.3859 -0.1404 -0.1484
77674W        W20665  13.006  27.605   0.214 -0.2058  0.2554  0.0532
77675W        W20666  15.577  32.981   5.935  0.1983 -0.1611  0.1797
77676W        W20667   5.554  26.830   2.017 -0.0897  0.1360 -0.3543
77677W        W20668  33.135  14.080  11.870  0.3587  0.3265  0.0587
77678W        W20669  15.827  27.339   9.942 -0.0390  0.3252  0.0932
77679W        W20670  12.960   1.667  27.933 -0.0580  0.0374 -0.0169
77680W        W20671   4.769   4.530  24.606 -0.2437 -0.3541 -0.0180
77681W        W20672  11.558  25.536   3.719 -0.0793 -0.0152 -0.0278
77682W        W20673  20.054  15.021  18.169  0.1024 -0.3846  0.1330
77683W        W20674  14.474  14.831   5.885 -0.0339  0.0585  0.1298
77684W        W20675  16.971   0.234  22.214 -0.1757  0.0658 -0.3259
77685W        W20676   6.689  18.829  17.087  0.0429  0.0247  0.1224
77686W        W20677   6.247   8.632   5.466  0.1014  0.5785  0.1215
77687W        W20678   7.553  30.992  28.026 -0.0850 -0.1646  0.2620
77688W        W20679   5.739  29.090  14.800 -0.2205 -0.1260  0.3292
77689W        W20680  26.356   2.933   7.598 -0.0595 -0.1149  0.1616
77690W        W20681   0.472   0.020   8.629  0.0347 -0.1040 -0.1165
77691W        W20682  17.545  30.232   7.446  0.0411 -0.2346 -0.3398
77692W        W20683  25.304  30.583  26.665  0.2968 -0.7044 -0.0383
77693W        W20684  10.795  34.177   8.576  0.0549  0.2343 -0.0456
77694W        W20685   0.674   3.068  20.670  0.0922  0.0287 -0.3210
77695W        W20686  26.570  31.396   3.597  0.1546 -0.1166  0.1603
77696W        W20687  17.221  14.187   6.386  0.0282 -0.1873  0.3799
77697W        W20688  17.489  21.566  27.935 -0.1104  0.2862  0.4126
77698W        W20689  18.410  29.888  19.699  0.3467  0.2550 -0.0763
77699W        W20690  22.575  33.973   8.138 -0.1255  0.0786 -0.1446
77700W        W20691  14.867  32.257   2.069  0.0286 -0.0163 -0.1798
77701W        W20692  16.775  34.794   5.595  0.1002  0.0229 -0.0168
77702W        W20693  13.926   6.239   0.419  0.4191 -0.0012  0.0500
77703W        W20694   5.454  25.822   3.100  0.0369  0.1465  0.3319
77704W        W20695  21.563   6.278   5.947  0.2521 -0.2072 -0.0571
77705W        W20696   2.187  13.655  11.031 -0.3023  0.4492  0.0564
77706W        W20697   2.912   3.209   1.048 -0.3051  0.0967  0.0356
77707W        W20698  29.769  32.815   7.063 -0.1695 -0.0800 -0.2802
77708W        W20699   8.740  34.301   8.764  0.0761  0.0101 -0.2173
77709W        W20700   6.787  10.734   5.726 -0.1112  0.1928 -0.0611
77710W        W20701  12.332  32.941   4.108 -0.0732  0.2835  0.0776
77711W        W20702   9.234  33.853  27.575  0.2119  0.2351  0.0072
77712W        W20703  16.702   0.739  23.664  0.1971  0.3549 -0.1371
77713W        W20704  34.248   3.047  18.927 -0.4672 -0.0883  0.2682
77714W        W20705  10.807   3.091  27.637  0.1209  0.2067 -0.0892
77715W        W20706  27.989  26.232  25.146  0.0897  0.1691  0.0064
77716W        W20707  13.515   1.300  19.991  0.0733  0.1938 -0.2291
77717W        W20708  17.924  24.575   8.233 -0.0383  0.0697  0.1030
77718W        W20709  10.648  29.702   6.977  0.1723  0.1496 -0.0426
77719W        W20710  11.945  33.564   1.659  0.0026 -0.1295 -0.1245
77720W        W20711  28.410   9.458   9.133  0.1828 -0.2429 -0.1962
77721W        W20712  12.855  16.743   5.128  0.0172  0.0823  0.6628
77722W        W20713  17.769  26.396   3.046  0.1960  0.0097 -0.0256
77723W        W20714  30.447  27.623   4.704 -0.1688 -0.3572  0.0994
77724W        W20715  31.246  12.047  28.910 -0.1838 -0.1220 -0.2211
77725W        W20716  18.490   5.313   6.915 -0.1714 -0.0620  0.0275
77726W        W20717  13.672  17.195  20.375  0.2548  0.0112  0.0932
77727W        W20718  25.550   4.362   3.986  0.0004  0.2461  0.2824
77728W        W20719  14.671   6.677  29.057 -0.0978 -0.0234 -0.0726
77729W        W20720   8.411   5.092  10.843  0.2267  0.2348 -0.1230
77730W        W20721  19.826  29.406   4.758 -0.2021  0.2915  0.1010
77731W        W20722   6.162  32.364   9.150 -0.0592  0.1581  0.0026
77732W        W20723  26.762   9.658  26.559  0.2737 -0.1740 -0.0097
77733W        W20724  13.011  26.670   3.498  0.1650  0.0306  0.0816
77734W        W20725  15.702  14.926   1.838  0.1868 -0.3037 -0.1227
77735W        W20726   9.726  33.203   6.298  0.0744  0.4913 -0.0149
77736W        W20727   7.854  26.586  24.082 -0.2606 -0.1352 -0.0491
77737W        W20728   4.860   7.373   1.930  0.2850  0.0918  0.1315
77738W        W20729   9.373  14.909   2.442 -0.2567 -0.0401 -0.0994
77739W        W20730  25.886  17.158  28.544  0.0901 -0.2571 -0.0080
77740W        W20731  12.193  31.104   9.432 -0.0334  0.0347  0.3577
77741W        W20732  11.369  21.043   4.604  0.0325  0.0045 -0.1027
77742W        W20733   3.438  33.859  27.849 -0.0750 -0.1258 -0.0765
77743W        W20734  15.464  14.623   2.300 -0.0512  0.1649 -0.1586
77744W        W20735  15.721  20.683   9.121  0.2352 -0.7409  0.1147
77745W        W20736  32.986   2.754  21.214  0.3326  0.0840 -0.3175
77746W        W20737  13.285  31.552   8.607  0.2025  0.1852  0.0151
77747W        W20738  13.386   4.007  11.257 -0.2482 -0.0280 -0.0063
77748W        W20739  34.715  23.044   7.050 -0.0131  0.3180  0.1987
77749W        W20740  34.686   2.153  26.787 -0.0657 -0.2353 -0.0434
77750W        W20741   6.744   4.417   5.770 -0.0623 -0.3009 -0.0430
77751W        W20742   9.949   3.495  20.352  0.1273 -0.1886 -0.3065
77752W        W20743   0.159   2.913   3.232  0.0597 -0.4925  0.3774
77753W        W20744  32.720  28.001   2.817  0.2423 -0.2306 -0.2008
77754W        W20745  11.825   6.093  23.608 -0.2567  0.1378  0.0367
77755W        W20746  14.288   1.961   7.270 -0.3124  0.0054  0.1521
77756W        W20747  18.725   1.066   4.740 -0.0289 -0.1765 -0.1732
77757W        W20748   5.436  17.472   3.464  0.0691  0.1376 -0.1815
77758W        W20749   7.749  27.721  22.631  0.0749 -0.1757 -0.1655
77759W        W20750  10.942  25.774   3.247  0.0331 -0.2462  0.1499
77760W        W20751  31.921  20.935  17.596 -0.3986 -0.1817 -0.0913
77761W        W20752  21.496  25.248  22.060  0.0603 -0.0120 -0.2617
77762W        W20753   8.799  32.193  20.028 -0.0838  0.0951  0.4663
77763W        W20754   6.216   0.153   1.151 -0.0238  0.1114 -0.1471
77764W        W20755  28.853  22.992   7.462 -0.1145  0.1361  0.2709
77765W        W20756  20.310  25.295   9.313 -0.0959 -0.1452 -0.1198
77766W        W20757   0.065   8.726   8.578  0.2513 -0.0639  0.1923
77767W        W20758   8.039  26.838  14.953  0.0218 -0.2524 -0.0864
77768W        W20759  25.615  15.028   5.296  0.0523 -0.0633  0.2105
77769W        W20760  10.461   5.714   7.317  0.1578 -0.0211  0.3591
77770W        W20761  16.230  19.132  25.911 -0.5395  0.0179 -0.2747
77771W        W20762   4.106  27.308  28.221  0.0709 -0.1193 -0.0968
77772W        W20763  12.761  14.051   8.527 -0.0709 -0.2921 -0.1166
77773W        W20764  13.553   8.846   3.703  0.0495 -0.4119 -0.1648
77774W        W20765  18.530  24.548   8.987  0.1950 -0.1235  0.3575
77775W        W20766   7.035  16.810  28.805  0.3288  0.2122 -0.0663
77776W        W20767   5.429   9.108  10.333 -0.2550  0.2350 -0.3086
77777W        W20768   4.196  19.578  26.694 -0.2277 -0.2506 -0.0629
77778W        W20769  17.205  33.073   3.045  0.0757 -0.2077  0.1698
77779W        W20770  26.516   7.174   7.321  0.1126  0.1512 -0.3909
77780W        W20771  20.971  21.224  27.137  0.0713  0.0506 -0.0702
77781W        W20772  23.305  30.967   3.654 -0.0816  0.1593  0.1601
77782W        W20773  30.519   6.424  27.108 -0.2353  0.2775 -0.0802
77783W        W20774  14.345   5.294   9.474 -0.1872  0.2436  0.1821
77784W        W20775  24.696  16.383   3.690  0.1596 -0.1183 -0.0407
77785W        W20776   8.473  10.660  22.647 -0.2921 -0.0652 -0.1397
77786W        W20777  24.914  24.776   1.088  0.3348  0.1855  0.1334
77787W        W20778  15.179  31.034   8.497  0.1403  0.0543  0.2284
77788W        W20779  15.000  30.942   3.300 -0.1207 -0.0846 -0.4064
77789W        W20780  13.425   0.751   2.125 -0.2632  0.0721  0.1820
77790W        W20781  11.292   2.382  27.201 -0.0945 -0.2256 -0.0774
77791W        W20782  21.993   6.464  23.791  0.0566  0.0133  0.0543
77792W        W20783  20.327  24.452  23.827 -0.3732 -0.0451 -0.1304
77793W        W20784  31.790  30.495   0.936  0.0351  0.3521  0.0402
77794W        W20785  17.024   3.943  27.328  0.4469  0.1494  0.1628
77795W        W20786   7.850   4.925  25.026 -0.0641  0.0450 -0.0849
77796W        W20787   8.554  34.291   7.556  0.3404 -0.1581 -0.0129
77797W        W20788  12.912   4.676   5.733 -0.1377 -0.1825 -0.1014
77798W        W20789  16.217  31.330   2.438  0.1821 -0.1073 -0.0328
77799W        W20790   9.283  15.405   5.667 -0.0760  0.1193 -0.3563
77800W        W20791  28.571  32.398  28.136 -0.2103 -0.1321  0.0780
77801W        W20792  16.335  11.058   9.638 -0.0035 -0.1084  0.1663
77802W        W20793   1.927  32.250   3.599 -0.0520  0.0910 -0.2943
77803W        W20794  13.563   7.005   8.929 -0.0074 -0.1004 -0.0300
77804W        W20795  34.394   6.806   4.017  0.1840  0.1888 -0.1751
77805W        W20796  20.901  28.832  21.904 -0.3399 -0.3543 -0.3086
77806W        W20797   7.278  24.474  17.911  0.1959 -0.0581 -0.2059
77807W        W20798  25.829  10.792  23.955  0.1236 -0.0124 -0.1827
77808W        W20799  10.651  33.676  15.152  0.1445 -0.2122 -0.0334
77809W        W20800   6.355   7.228  22.344 -0.1175 -0.0292  0.1675
77810W        W20801   1.883   2.661  10.181 -0.0027  0.0374  0.1017
77811W        W20802  13.789   8.990  25.456 -0.3690 -0.5551 -0.0476
77812W        W20803  14.227  25.822  15.858 -0.1219  0.0712 -0.1469
77813W        W20804  26.399  11.846   3.876 -0.1382 -0.3092  0.3318
77814W        W20805  11.426  33.525  23.566  0.2096  0.2226  0.1553
77815W        W20806  16.136   3.445   7.624  0.1746 -0.4499 -0.2728
77816W        W20807   5.101   5.118  21.076 -0.2226 -0.1857 -0.0193
77817W        W20808   2.477   2.444   6.066  0.0068  0.3090 -0.0650
77818W        W20809   4.796  21.141  28.470  0.1847 -0.0773  0.0585
77819W        W20810   5.227   1.108   0.958  0.0762  0.0506  0.1316
77820W        W20811  30.723  30.483   6.935  0.2095  0.0490 -0.1699
77821W        W20812  20.052  25.493  26.239  0.1600 -0.0054 -0.0365
77822W        W20813  17.667   8.501   5.718 -0.3341  0.0509  0.0751
77823W        W20814   0.900  14.609   4.509 -0.3203  0.1087 -0.0751
77824W        W20815   6.423   7.616   7.016 -0.2792  0.0741 -0.5479
77825W        W20816  30.768   0.929  22.472  0.0428  0.0910  0.2726
77826W        W20817   1.877  34.231   4.208  0.1476  0.0600 -0.1285
77827W        W20818  26.533   9.920  21.600 -0.3664  0.0341 -0.2363
77828W        W20819   9.551  13.679  22.184  0.1174  0.2987  0.1635
77829W        W20820   8.452   9.490  25.987 -0.0402  0.1830 -0.0493
77830W        W20821  30.749  10.923   5.872  0.0429 -0.2675 -0.0966
77831W        W20822   6.401  26.763   5.902  0.3374 -0.0049  0.1913
77832W        W20823  16.606   0.841   9.313 -0.0536 -0.0188 -0.3748
77833W        W20824  29.797  24.101   5.231 -0.2392  0.2223 -0.0839
77834W        W20825   8.058  10.860  11.616 -0.2025 -0.2257  0.2652
77835W        W20826  14.382  13.446   8.648  0.1938 -0.0150 -0.0031
77836W        W20827  22.843  10.090  28.092 -0.0912 -0.1149 -0.0143
77837W        W20828  10.332  14.193  15.317  0.0510 -0.1611 -0.0743
77838W        W20829   7.750  11.967   5.640  0.1290 -0.1236  0.0606
77839W        W20830   1.825   5.807  18.561 -0.3248 -0.0638 -0.1546
77840W        W20831  15.937  30.991  22.542 -0.1393 -0.0957 -0.2154
77841W        W20832  13.129  16.421  26.714 -0.0795 -0.3831  0.1242
77842W        W20833   6.365   7.677  22.126  0.1973  0.2366 -0.0725
77843W        W20834   9.437  10.777   9.293  0.3084 -0.2260 -0.2012
77844W        W20835   3.239   7.488  19.703 -0.2348 -0.2661  0.2724
77845W        W20836  11.737   2.658   3.989 -0.0047  0.7271 -0.0748
77846W        W20837   2.748  12.110   1.867  0.0157 -0.3522  0.1036
77847W        W20838  15.817   7.360   9.003  0.0307 -0.0265 -0.0096
77848W        W20839  23.189   7.248  13.654  0.0976  0.0316 -0.1312
77849W        W20840  27.315  10.523   4.855 -0.1243 -0.1400  0.0215
77850W        W20841  10.990   0.499  18.477 -0.1605  0.1016  0.3686
77851W        W20842  34.747   9.609   6.748 -0.1778 -0.3095 -0.1516
77852W        W20843  25.290  32.979  18.514 -0.0917  0.0652  0.2334
77853W        W20844  11.085  15.771   5.062 -0.0010  0.0899  0.0831
77854W        W20845  18.411  23.251  21.976  0.2356  0.0156  0.3408
77855W        W20846   6.333   5.925  17.921  0.3502  0.0961 -0.3467
77856W        W20847  22.938   5.818  22.429  0.2381  0.0010 -0.2079
77857W        W20848  11.396   6.321   1.552  0.0506  0.3573 -0.1598
77858W        W20849  31.017  27.984   1.368  0.3673  0.0499  0.1718
77859W        W20850   7.226   8.891  28.357  0.2644  0.3434 -0.2395
77860W        W20851  18.428  22.863   4.971 -0.2043  0.0746  0.2837
77861W        W20852  20.855   4.058   0.115 -0.1049 -0.0080 -0.1862
77862W        W20853   3.835   4.871  15.944 -0.0576 -0.1696 -0.0917
77863W        W20854   0.386   7.617  23.583 -0.0927  0.0497  0.1295
77864W        W20855  33.583  29.589   7.603  0.3270 -0.0189 -0.1103
77865W        W20856  25.166  29.270   6.610  0.0194  0.0575  0.0147
77866W        W20857  12.841  13.998   1.426  0.1659  0.2111 -0.1519
77867W        W20858  32.330   7.996   9.695 -0.0754  0.0808  0.0978
77868W        W20859  13.637  29.069   6.089  0.1582 -0.4894  0.1052
77869W        W20860  11.775  23.326   4.656  0.0316 -0.1859 -0.1800
77870W        W20861   9.904   5.383   1.508  0.1685 -0.2902  0.1032
77871W        W20862  25.972  32.832   3.188  0.2986 -0.3003  0.1350
77872W        W20863   5.121  18.261  25.827 -0.2263 -0.1932 -0.0545
77873W        W20864   1.247  32.533  10.216 -0.4041 -0.0681 -0.1402
77874W        W20865  28.868  33.375  21.784  0.1171 -0.1062  0.1325
77875W        W20866  34.244  19.512   6.152 -0.3138  0.1419 -0.2336
77876W        W20867   0.646  25.504  18.570 -0.1958  0.0016  0.1575
77877W        W20868  33.238  13.951  28.865 -0.1337 -0.1095 -0.2110
77878W        W20869  11.989   1.735   1.115  0.3714  0.2238  0.1340
77879W        W20870  10.910  16.434  22.211  0.0632  0.2407  0.2376
77880W        W20871   4.125  15.213  21.413  0.0336 -0.0340 -0.1054
77881W        W20872   7.385  14.711  28.921  0.1130 -0.0311  0.0949
77882W        W20873   8.139  27.029  25.899 -0.1771  0.1610  0.0891
77883W        W20874   1.631   7.720   7.860 -0.0656 -0.3896 -0.0285
77884W        W20875  10.233   8.684   7.294  0.4703  0.2753 -0.0181
77885W        W20876  11.736   6.697   3.736 -0.1530  0.1358 -0.0549
77886W        W20877  10.343  32.362   8.949  0.3979 -0.3228  0.1426
77887W        W20878  16.549  18.628  28.565 -0.0512  0.2072 -0.0786
77888W        W20879  16.730  31.753   6.342 -0.2132 -0.1448 -0.1810
77889W        W20880  10.524   4.413   8.946  0.3484 -0.0616 -0.0586
77890W        W20881  10.740   1.174  28.989  0.0323  0.0688 -0.3591
77891W        W20882   7.852   4.422  14.852 -0.1076  0.2141 -0.2618
77892W        W20883  27.827  28.538  28.332  0.2237 -0.1317  0.1985
77893W        W20884   7.270   3.031   1.916  0.2321  0.0673  0.4442
77894W        W20885   4.621  28.246  20.996 -0.2365  0.3591 -0.0610
77895W        W20886   4.172   6.638   1.933  0.0009 -0.2035  0.0840
77896W        W20887   2.881  22.333   3.044  0.1964 -0.1605  0.0986
77897W        W20888  18.593   6.105  26.234 -0.2808  0.0039 -0.1211
77898W        W20889  13.899   9.900  20.289  0.1020 -0.1181  0.2318
77899W        W20890  16.228  13.251  15.404  0.1302  0.2333  0.1493
77900W        W20891  20.837  26.302   6.262  0.1763  0.1395  0.0486
77901W        W20892  12.476   2.909   5.663 -0.0420 -0.1481 -0.3176
77902W        W20893  30.134   8.386  20.515  0.1565 -0.1740  0.0836
77903W        W20894   0.382   3.591  15.185 -0.2001 -0.1666  0.2595
77904W        W20895  28.454   7.557  19.313  0.0034  0.1086 -0.1537
77905W        W20896  24.905  27.299  16.907 -0.1474 -0.1192  0.1816
77906W        W20897   4.821  10.891   0.789 -0.0523  0.2067  0.0703
77907W        W20898  10.672  34.682  25.336  0.3246 -0.0954 -0.4492
77908W        W20899   5.970  25.156  10.105  0.1105  0.1246  0.3350
77909W        W20900  21.507  29.680  27.559 -0.0761 -0.2126  0.1059
77910W        W20901  18.545  11.607   7.503  0.1660  0.0365  0.2113
77911W        W20902   5.580  27.422   8.535  0.0596  0.3223 -0.1549
77912W        W20903   9.526  22.732   6.114  0.0910 -0.1919 -0.1342
77913W        W20904  10.204  29.444  20.360 -0.1574  0.4499 -0.0306
77914W        W20905   0.490   2.230   0.601 -0.1440  0.0848 -0.2177
77915W        W20906  11.628  34.032   9.534  0.1163 -0.2096  0.3297
77916W        W20907  33.367   0.460   2.641  0.1233 -0.2887 -0.0586
77917W        W20908  19.868  32.540  28.965 -0.2139  0.0084  0.0346
77918W        W20909  20.717   7.207   8.779 -0.0523  0.2598 -0.0247
77919W        W20910  15.259  33.816   7.379 -0.0676  0.2046 -0.1049
77920W        W20911  17.031  19.774  28.780  0.1821 -0.1950 -0.3630
77921W        W20912   5.272  16.811  21.271 -0.3770 -0.0193  0.0708
77922W        W20913  17.073  23.936   8.306  0.0413 -0.0321  0.0557
77923W        W20914  18.802   1.053  28.624  0.1076  0.1607 -0.0864
77924W        W20915   7.988  16.773   7.746 -0.3497  0.4852 -0.0034
77925W        W20916   3.213  28.475  21.033  0.1332 -0.1066  0.0303
77926W        W20917  13.315   7.966   5.517 -0.0188 -0.1575  0.0480
77927W        W20918  34.391  22.752  23.691  0.1001  0.0883 -0.1150
77928W        W20919  17.950   5.567  28.367  0.2441  0.2334  0.1837
77929W        W20920   2.294  24.700   4.037 -0.0902 -0.2441  0.1863
77930W        W20921  13.867  24.312  28.964 -0.2732  0.1340 -0.0789
77931W        W20922  16.332   1.504  26.942 -0.1491 -0.2847 -0.0989
77932W        W20923  19.063  13.748   7.914  0.1126  0.2477  0.0941
77933W        W20924   1.332  30.744  25.672  0.0026 -0.0232  0.0276
77934W        W20925   1.791  14.288  28.677 -0.1164 -0.1530 -0.0427
77935W        W20926  16.238   0.436   2.736 -0.3666 -0.3091 -0.1733
77936W        W20927  12.863  24.076   6.280  0.2446  0.0112 -0.1063
77937W        W20928   7.524   2.050   7.865  0.0229 -0.1054  0.1388
77938W        W20929  12.715   4.295   6.104  0.0328  0.1014  0.0331
77939W        W20930  19.393   6.003  17.994 -0.0522 -0.1760 -0.1090
77940W        W20931  10.011   0.851  25.782  0.2806  0.0280 -0.1362
77941W        W20932   2.249  26.833   2.392 -0.2777 -0.1926 -0.0327
77942W        W20933  25.868  14.907   3.616 -0.0971 -0.2961  0.1705
77943W        W20934  13.309   5.016   2.813  0.2859 -0.1713  0.3224
77944W        W20935   8.410  17.420  14.803  0.1873  0.0081 -0.1105
77945W        W20936  17.341  31.292   2.602  0.0671  0.4341  0.2789
77946W        W20937  30.443  21.268  21.354  0.1513 -0.1222  0.1076
77947W        W20938  29.728  14.116   7.869 -0.3739  0.1761  0.1522
77948W        W20939   8.504  15.146   4.174  0.4245 -0.0020 -0.2120
77949W        W20940  32.972   7.441   9.245 -0.2314 -0.1458 -0.0325
77950W        W20941  16.023  14.568  23.834 -0.1578  0.2140 -0.2584
77951W        W20942  33.126  16.542   5.895 -0.2259 -0.0735  0.1263
77952W        W20943  32.317  21.515   7.695 -0.1599 -0.0764 -0.1463
77953W        W20944  25.567  11.424   3.131 -0.2629 -0.1505  0.1242
77954W        W20945   8.194   0.964  27.937 -0.0469  0.0263 -0.0230
77955W        W20946  10.680   1.713  26.293 -0.1175 -0.2164  0.1892
77956W        W20947  17.105   9.538  23.908 -0.2438  0.0646  0.0914
77957W        W20948   7.657   1.447  11.162  0.1823  0.2279 -0.0046
77958W        W20949   7.976  26.330  22.641 -0.0533 -0.1157 -0.5359
77959W        W20950  12.632  34.239  14.972 -0.2283 -0.2836  0.5655
77960W        W20951  34.516  15.271  11.850 -0.0492 -0.0993  0.2497
77961W        W20952  10.767   7.254  19.465  0.1776 -0.0878 -0.1315
77962W        W20953   8.997  10.705   6.465 -0.1715 -0.1567  0.0756
77963W        W20954  11.281  16.374  24.816  0.1074 -0.0692 -0.0781
77964W        W20955   2.236  19.329  25.546 -0.2018  0.0256  0.0796
77965W        W20956  12.013  27.065  28.460 -0.1419 -0.1410 -0.2372
77966W        W20957   9.562   0.837   2.561 -0.2521 -0.2031 -0.2094
77967W        W20958  26.275  12.407   3.586  0.0949 -0.1736 -0.3257
77968W        W20959  16.553  33.328  29.119 -0.0129 -0.0739 -0.1658
77969W        W20960  16.562  34.337   3.273  0.2423  0.0118  0.1533
77970W        W20961  17.335   4.098   1.056  0.1208  0.2588 -0.0743
77971W        W20962   5.613  17.347   7.775  0.1513  0.0579 -0.0152
77972W        W20963  24.154   9.498   6.981  0.2558 -0.1393  0.2273
77973W        W20964  25.377  16.596   4.976 -0.1249  0.1191  0.2706
77974W        W20965   7.562  31.756   5.666 -0.2387  0.1105  0.0883
77975W        W20966  13.943   7.849   8.740  0.5259  0.2568  0.2948
77976W        W20967   5.071  10.110  18.494  0.2784  0.1547  0.0543
77977W        W20968  13.616   2.459  25.871 -0.2839 -0.0729  0.0925
77978W        W20969  20.850   3.327   7.789 -0.1617 -0.0667 -0.0983
77979W        W20970   1.830  11.278   3.700  0.6082  0.0450 -0.0131
77980W        W20971  21.249  32.132   1.319  0.0492 -0.0152  0.2148
77981W        W20972   6.551  28.711   8.777 -0.1193 -0.0824  0.0870
77982W        W20973  10.024   9.163   5.876  0.0256 -0.3181 -0.1584
77983W        W20974  25.930  32.733  21.070 -0.3129 -0.2480 -0.0931
77984W        W20975   5.729  20.347   9.429  0.0677 -0.0974 -0.2899
77985W        W20976  19.180  27.706   0.980 -0.0579  0.1699  0.1155
77986W        W20977  27.394  20.834   2.700 -0.2536 -0.0425  0.1047
77987W        W20978   2.856  30.975   5.204 -0.0490  0.0200  0.0578
77988W        W20979  11.359   3.632  25.819 -0.2132  0.0228  0.1249
77989W        W20980  20.838   7.324  18.014  0.2946 -0.2103 -0.2961
77990W        W20981   3.755  28.792   1.640 -0.0401 -0.1909 -0.0561
77991W        W20982  11.766  10.499  19.949 -0.3909 -0.3670  0.0639
77992W        W20983   7.996   4.535  19.545  0.1206  0.1173 -0.1671
77993W        W20984  31.608  11.622   4.440 -0.1797  0.2917 -0.1403
77994W        W20985  12.288  22.608   3.641  0.0242 -0.2525  0.1198
77995W        W20986  18.548   5.957   7.667 -0.0062  0.0082 -0.0004
77996W        W20987  33.187   1.869  27.725 -0.1416 -0.4485  0.0848
77997W        W20988   0.983   4.837   8.026 -0.1782 -0.2515  0.0841
77998W        W20989   6.094   7.599   2.909 -0.3399  0.1822 -0.1857
77999W        W20990  25.096  33.709  22.915  0.3415  0.1792 -0.0323
78000W        W20991  25.225  14.122   9.293  0.2419  0.2342  0.0141
78001W        W20992  30.448  12.018   5.330  0.5862  0.1105 -0.0255
78002W        W20993   9.580  14.344   6.843  0.1192  0.1573 -0.1430
78003W        W20994  12.135  22.912   1.740  0.2792  0.2578 -0.0650
78004W        W20995  20.928   7.122   4.322 -0.0118 -0.0188  0.2817
78005W        W20996   8.303  12.042  10.030 -0.0643  0.3619 -0.1120
78006W        W20997   9.613  27.793  24.321  0.2195 -0.0586  0.3015
78007W        W20998  14.862  29.935  15.249  0.0194  0.0045  0.2829
78008W        W20999  29.050  31.816  27.463 -0.0178  0.2008  0.3775
78009W        W21000   6.209  12.187  22.676  0.3080  0.0271  0.2605
78010W        W21001  29.741  11.494   0.830 -0.1479  0.0652  0.3673
78011W        W21002   3.839   4.086   1.365 -0.5314  0.1649 -0.2011
78012W        W21003   6.918  33.534  22.502  0.0802 -0.0361  0.2270
78013W        W21004   5.526  24.011  24.624  0.5166  0.0405 -0.2871
78014W        W21005   9.686  16.833   9.904  0.1139 -0.3742 -0.3294
78015W        W21006  30.187   8.837  17.054  0.0160 -0.2842 -0.1914
78016W        W21007  29.347   2.641  28.542  0.1253 -0.0373 -0.0384
78017W        W21008   8.230  29.452   1.762  0.2022 -0.2203 -0.2426
78018W        W21009   7.354   0.476  19.282 -0.3461 -0.0857 -0.0812
78019W        W21010  34.198  14.030   3.004  0.1125  0.0947 -0.0080
78020W        W21011   9.280  18.320   2.049  0.1132  0.0125 -0.0039
78021W        W21012  10.748  21.200   2.806  0.1440  0.2634 -0.0557
78022W        W21013  10.160  30.635   6.194 -0.0689  0.1524 -0.2802
78023W        W21014  24.343  14.762   5.524 -0.0546 -0.4097 -0.1412
78024W        W21015  22.016  23.151  21.722  0.0410  0.1626  0.1347
78025W        W21016  10.127   5.592   5.190  0.1706  0.0853 -0.2346
78026W        W21017  31.991   0.078   6.793 -0.2604  0.0716 -0.1956
78027W        W21018   9.808  30.431  23.054 -0.0730  0.1718  0.1872
78028W        W21019   7.287   5.283  26.091  0.1704 -0.1464  0.1566
78029W        W21020  34.487  10.945  22.325  0.0301 -0.2403 -0.1666
78030W        W21021  25.639   4.129  26.803 -0.0466  0.0416  0.0389
78031W        W21022  23.096   4.895  18.670  0.0774  0.0903  0.0669
78032W        W21023  14.745  25.754  20.911  0.0303 -0.1579  0.1078
78033W        W21024   7.019  26.348   7.014 -0.0408 -0.0598 -0.2216
78034W        W21025   4.874  24.691  16.739 -0.1069 -0.0042  0.1084
78035W        W21026   6.518  15.695   9.504 -0.0620  0.0810 -0.3050
78036W        W21027  15.948   1.617  29.062 -0.1626  0.0627  0.4726
78037W        W21028   2.065   4.210   7.966 -0.1340 -0.0758 -0.2297
78038W        W21029  25.676  22.136  14.813 -0.0638 -0.0972 -0.1089
78039W        W21030   3.761  33.150  28.867  0.1152  0.0268  0.2323
78040W        W21031   6.980   4.916   3.627 -0.2001  0.0500 -0.3133
78041W        W21032   4.328  31.908   8.731  0.1000 -0.1195  0.0933
78042W        W21033  17.306   0.268   8.907  0.1247 -0.2058  0.2362
78043W        W21034  33.295   7.598  28.525 -0.3202 -0.3130 -0.1492
78044W        W21035  15.854  19.964  28.888  0.2798  0.0005  0.0630
78045W        W21036  19.280   6.501   4.121 -0.3095  0.3083  0.0575
78046W        W21037   8.708  30.540  23.262  0.0575 -0.2416 -0.2021
78047W        W21038   5.485  32.899   7.068 -0.0178 -0.1921 -0.2848
78048W        W21039  33.656  27.501   8.754  0.2650 -0.1764  0.0787
78049W        W21040  11.079   0.888   6.722 -0.0901  0.0608 -0.0789
78050W        W21041   9.358  29.892   2.022 -0.1085  0.0461 -0.1980
78051W        W21042  29.192  23.517  28.581 -0.1827 -0.5190 -0.1424
78052W        W21043   9.143   5.157  16.835  0.0637  0.1470  0.2636
78053W        W21044   2.911   4.915  19.281  0.1447 -0.0243  0.1740
78054W        W21045  24.283  27.994  27.451 -0.0507 -0.0948 -0.1494
78055W        W21046   3.830  31.621   3.128 -0.1438 -0.0905  0.0627
78056W        W21047   9.202   7.672   0.715 -0.1406  0.2304 -0.1841
78057W        W21048  11.236  11.163   7.647 -0.0278  0.0686  0.0200
78058W        W21049  24.143  25.733  28.903  0.1206 -0.1473  0.1419
78059W        W21050  31.034   0.959  25.334 -0.3027  0.3925 -0.0086
78060W        W21051  31.528  20.941   5.976 -0.1306 -0.2773  0.0144
78061W        W21052  12.924  27.767   7.359  0.1925  0.5481  0.0896
78062W        W21053  34.252   0.847   8.417 -0.1171  0.0768 -0.2757
78063W        W21054  10.872  15.661   3.200  0.0495  0.0252 -0.0925
78064W        W21055  14.506   1.626   6.902  0.1396  0.3334 -0.0631
78065W        W21056   8.888   6.741  22.570 -0.1432  0.3125  0.1523
78066W        W21057   8.939   7.280   8.835 -0.2994  0.3551 -0.0260
78067W        W21058  29.330  32.070  27.872  0.0168 -0.0516 -0.0974
78068W        W21059   2.054   5.883   2.731 -0.1371  0.1962 -0.0754
78069W        W21060   2.451   3.085  23.064 -0.2425  0.0107 -0.2558
78070W        W21061  15.279   4.524  26.519  0.1197  0.0631 -0.2733
78071W        W21062   5.884  25.653  23.366 -0.1316  0.2189  0.1343
78072W        W21063   9.131   4.313   9.660 -0.1992 -0.2729  0.1566
78073W        W21064  17.117   5.907  14.827 -0.0262 -0.1980 -0.1828
78074W        W21065  15.156  26.495   7.601  0.0176 -0.0840  0.1866
78075W        W21066  15.050  30.798   0.208 -0.3926 -0.1096  0.0045
78076W        W21067   3.171  20.080  28.891 -0.1706 -0.0029  0.3797
78077W        W21068  18.365  12.925   2.500 -0.0899  0.2818 -0.1833
78078W        W21069   0.669  28.137  24.087 -0.0979 -0.2945 -0.0347
78079W        W21070  24.584  17.605   3.198 -0.0796  0.0464  0.0499
78080W        W21071  16.899  29.251  26.366  0.2742  0.2378  0.4355
78081W        W21072   6.341  34.754  25.533 -0.1177  0.2922 -0.2204
78082W        W21073  27.753   7.406   4.172  0.1842  0.3505  0.0130
78083W        W21074   8.126   1.769   0.679  0.2365  0.0237  0.0024
78084W        W21075  18.455   1.115  27.738 -0.1744  0.1409  0.3345
78085W        W21076   7.199   3.571  10.341  0.0586  0.1447  0.0945
78086W        W21077  14.622  11.992   2.427  0.1214  0.0589 -0.2800
78087W        W21078  11.800   0.531  17.217  0.2117  0.2044 -0.1080
78088W        W21079   7.720  21.488  26.696  0.0843 -0.0551  0.3952
78089W        W21080  25.988  13.897  22.151  0.0804  0.0964 -0.1311
78090W        W21081   2.285  31.693   8.182  0.0549 -0.0025 -0.0957
78091W        W21082   9.991  14.024  27.410  0.0881  0.0552  0.4632
78092W        W21083  16.682   8.224  21.736 -0.0763 -0.0928 -0.0004
78093W        W21084  22.923  27.173  25.644 -0.2786 -0.1966  0.1188
78094W        W21085  12.296   3.937   3.234 -0.1221  0.0683  0.0414
78095W        W21086  24.691  12.113   7.821  0.0802  0.0787 -0.0787
78096W        W21087  10.490  28.298  16.393  0.1360  0.2882  0.0769
78097W        W21088  31.704  15.797   4.008  0.3326  0.1511 -0.2034
78098W        W21089  14.328  33.343   7.310 -0.0651  0.2441 -0.2655
78099W        W21090   2.218   5.695   8.359 -0.2205 -0.2006  0.0688
78100W        W21091  16.346   4.655  18.920 -0.1445 -0.4161 -0.0526
78101W        W21092  10.978  11.802  23.457  0.1700  0.2044 -0.3495
78102W        W21093  20.202   2.094  14.436  0.1650 -0.2110 -0.0031
78103W        W21094   0.937   9.547   4.498  0.2118 -0.4244  0.1050
78104W        W21095  29.054   2.659   5.143  0.1935  0.1657  0.0667
78105W        W21096  24.222   2.620   7.056 -0.2958 -0.1642  0.0299
78106W        W21097   9.155  26.548   6.620  0.0680 -0.2574  0.0410
78107W        W21098  29.450   0.379   3.770 -0.0573  0.0310  0.1161
78108W        W21099   1.709  17.945  17.758  0.0830  0.2034 -0.1893
78109W        W21100  33.630   6.972  24.039 -0.3079  0.0654  0.0104
78110W        W21101  31.573  32.346  17.946  0.1445 -0.0864  0.4299
78111W        W21102  13.972  32.589   1.907  0.0638 -0.0367  0.1918
78112W        W21103  11.864  32.860  26.549  0.0918 -0.0545  0.0288
78113W        W21104  15.941  34.274   7.642  0.0082  0.2279  0.3016
78114W        W21105  12.949  13.366   4.401  0.0184  0.3647 -0.1538
78115W        W21106  16.313   2.099   4.607  0.0190 -0.4642 -0.1148
78116W        W21107  30.740  32.826   5.487 -0.0608 -0.3482  0.1220
78117W        W21108  21.561  24.673  16.554  0.2632 -0.1112  0.2486
78118W        W21109   9.901  23.050  27.476  0.2590  0.2024  0.2578
78119W        W21110   0.690   9.042   7.765 -0.1612 -0.2635  0.2395
78120W        W21111   4.855   7.788   9.503  0.2782  0.5109  0.2521
78121W        W21112  14.864   1.983  24.718 -0.3303  0.3795  0.1381
78122W        W21113  33.741  15.123   2.453  0.0369 -0.0953 -0.1546
78123W        W21114  19.607   1.534  24.879  0.1434 -0.2192 -0.2387
78124W        W21115  19.289  32.881  28.688 -0.0566 -0.0894 -0.0256
78125W        W21116   4.512  32.940  26.736 -0.1898 -0.1944 -0.0526
78126W        W21117   4.284  17.548   7.807  0.1393  0.2491 -0.0289
78127W        W21118  13.074  17.279   1.508 -0.4613 -0.2819  0.0946
78128W        W21119  10.153  33.741   9.803  0.3315 -0.1689 -0.0117
78129W        W21120  13.929  18.250   3.626  0.3038  0.2204 -0.4373
78130W        W21121   6.850  25.910  26.188 -0.0682  0.1396  0.0539
78131W        W21122  16.299  30.777   6.024 -0.3286  0.2543  0.1936
78132W        W21123  13.643   7.798   9.966  0.0426 -0.2964 -0.1122
78133W        W21124  27.091  27.751   6.448 -0.2010  0.0179  0.0809
78134W        W21125  23.128  31.154  14.631 -0.3945 -0.1511 -0.0526
78135W        W21126   3.381  27.898  26.029  0.0727  0.1480 -0.2136
78136W        W21127  16.216  17.854  23.786 -0.2875 -0.1052 -0.2703
78137W        W21128  11.215   2.735  25.821 -0.0414 -0.2087 -0.1465
78138W        W21129  19.007  34.325   3.525  0.1638  0.2300 -0.1859
78139W        W21130   9.938  27.856  10.053 -0.0482 -0.1323  0.1113
78140W        W21131   1.008   3.306  14.543  0.1136 -0.2765  0.0605
78141W        W21132  21.186  14.104  22.642  0.0792 -0.2218  0.0126
78142W        W21133  20.348  25.732  27.060 -0.0668 -0.0846 -0.0121
78143W        W21134  15.311  17.511   4.776  0.2140  0.0196  0.2543
78144W        W21135  19.041   0.425   0.923  0.0302  0.0057 -0.0921
78145W        W21136  11.383   5.872  20.172  0.3006 -0.1278 -0.2360
78146W        W21137  17.403   1.808   8.727  0.1427  0.1395 -0.1390
78147W        W21138   4.169  18.898   2.469  0.0424  0.0095  0.4739
78148W        W21139   6.411   9.921   8.554  0.0886 -0.0334  0.2286
78149W        W21140  16.390  11.345   5.940 -0.1269  0.0717 -0.0463
78150W        W21141  15.872   6.232   2.582  0.0527  0.0116  0.0110
78151W        W21142  14.928  21.519  28.624 -0.6353 -0.2530  0.2217
78152W        W21143  11.550  27.996   6.735 -0.3948 -0.0968 -0.1219
78153W        W21144  13.634  14.485  17.786  0.2602  0.0169  0.0928
78154W        W21145  19.454  28.674  26.828 -0.0203 -0.1743 -0.3906
78155W        W21146   0.579   0.814   5.343  0.1234  0.1063  0.0346
78156W        W21147   9.753  33.738   2.336 -0.0678 -0.0112 -0.0617
78157W        W21148  15.493  10.120   0.063  0.2240  0.0184 -0.0188
78158W        W21149  17.359  13.022   8.116  0.1494  0.2527  0.2089
78159W        W21150  22.100  22.882   4.164 -0.2171  0.1346 -0.1522
78160W        W21151  14.024   4.060   6.980 -0.1741 -0.1709 -0.0768
78161W        W21152  19.257   5.987   3.727  0.0785  0.1409  0.0859
78162W        W21153   8.761  14.048   8.570 -0.2216  0.0618  0.1540
78163W        W21154  15.384   4.261  24.956  0.0126 -0.1946  0.0190
78164W        W21155  33.668   5.350   6.662 -0.1273 -0.0888  0.1010
78165W        W21156  26.161  11.275   7.112  0.1482  0.0521  0.0513
78166W        W21157  10.740  20.409  25.938 -0.0389 -0.2976  0.1883
78167W        W21158  15.773  27.466   8.426  0.0701  0.0410  0.0426
78168W        W21159   7.536   1.018   7.785 -0.0193  0.0792 -0.1353
78169W        W21160  10.336   3.133   8.682  0.1376  0.0872  0.0306
78170W        W21161  25.477  10.651  21.140 -0.1430 -0.0976  0.2799
78171W        W21162  16.131  28.056   7.838  0.3621  0.0544 -0.3565
78172W        W21163  27.969   4.672   4.938  0.3059 -0.1505  0.0418
78173W        W21164  18.976  30.975   7.228 -0.1777 -0.0340 -0.1251
78174W        W21165  32.482  17.801   0.500 -0.1801 -0.0862 -0.1764
78175W        W21166  34.423   5.457   3.489  0.1566  0.0003  0.3493
78176W        W21167   6.010  16.174  27.446  0.1353  0.2034 -0.3073
78177W        W21168  11.584  28.992  22.499  0.3441 -0.2962  0.2477
78178W        W21169  16.539   5.047   5.975 -0.1789  0.1441 -0.2226
78179W        W21170   2.953  12.057   5.167 -0.0145  0.1222  0.1026
78180W        W21171  19.565  30.610   9.487  0.2602 -0.4496 -0.0030
78181W        W21172  16.059  22.441  16.094  0.0409  0.4881  0.5066
78182W        W21173  19.655   5.836   8.152  0.1327  0.1566  0.0101
78183W        W21174  31.691   1.706   8.019  0.0684 -0.0291 -0.3708
78184W        W21175   6.411   7.272  25.659 -0.4594 -0.1993  0.1513
78185W        W21176   4.627  30.716   6.838  0.0178  0.0880 -0.1376
78186W        W21177   1.533  16.596  26.737 -0.5052  0.0087  0.4108
78187W        W21178  11.971  26.896  27.768  0.1284 -0.1621  0.5112
78188W        W21179  21.608   4.056   2.217 -0.4436  0.0407 -0.0226
78189W        W21180  12.813  21.008   0.831  0.1162 -0.0423  0.3387
78190W        W21181  30.692  33.849   3.615 -0.0971 -0.2453 -0.0543
78191W        W21182   9.285  15.700   1.361 -0.0693  0.0451  0.0915
78192W        W21183  17.516  27.590   9.952  0.1500  0.0725  0.1757
78193W        W21184   4.616  12.755   8.312  0.0741 -0.0770  0.0829
78194W        W21185   3.371  16.060  16.136 -0.4892 -0.3009  0.0421
78195W        W21186   6.789   4.984   4.961  0.1151 -0.1923 -0.0178
78196W        W21187  12.645  33.770   4.406  0.0716  0.4030  0.3564
78197W        W21188  31.964   0.885  27.135 -0.3135  0.0183  0.0797
78198W        W21189  11.373   2.862   4.295  0.1889 -0.2034 -0.0960
78199W        W21190  21.827  16.016   7.639 -0.2229  0.1687  0.0744
78200W        W21191  21.550  10.640  29.127 -0.0874 -0.0650  0.0350
78201W        W21192   5.893  21.387  29.190  0.3201 -0.4970 -0.0401
78202W        W21193  25.114   7.980   3.329  0.3646  0.1159 -0.0484
78203W        W21194   8.519  34.411   5.681  0.1615  0.1312 -0.0397
78204W        W21195  21.818  33.219   7.399 -0.0834  0.1964 -0.2336
78205W        W21196   8.388   3.124   5.467  0.0247  0.0108 -0.1438
78206W        W21197  27.148   0.734   5.248  0.1017 -0.2362 -0.2956
78207W        W21198  18.203   6.712   9.601 -0.2474 -0.0067  0.0791
78208W        W21199  15.829  22.923   8.934  0.1977  0.1679  0.1786
78209W        W21200   5.582   9.507   5.560  0.0839 -0.1397 -0.1831
78210W        W21201   6.722   2.021   9.169 -0.3621 -0.1063 -0.0276
78211W        W21202   0.935  21.262   2.453  0.0983 -0.0397  0.0560
78212W        W21203  10.756  11.924   7.366 -0.0550 -0.1578 -0.1859
78213W        W21204  10.296   2.765   2.766 -0.1758  0.1313 -0.2410
78214W        W21205  22.435  29.909   8.227  0.3857  0.0019 -0.0539
78215W        W21206   8.526  12.843  25.409 -0.0305  0.0150  0.0733
78216W        W21207   5.263  21.012   1.328  0.3381 -0.0727 -0.3349
78217W        W21208  18.373   8.245  10.443 -0.0162 -0.0137  0.1346
78218W        W21209  17.412   0.909   4.270 -0.0470 -0.1892  0.3376
78219W        W21210  25.707  16.977   7.212 -0.0925 -0.0048  0.0287
78220W        W21211  32.199   0.587   8.728  0.0592  0.0851 -0.1669
78221W        W21212   6.110  14.007   9.229  0.1741 -0.0032  0.1424
78222W        W21213  20.705  22.807   1.399  0.0330  0.1480  0.0808
78223W        W21214  16.759  14.255   7.259 -0.0324 -0.0643 -0.0624
78224W        W21215   9.847  33.706   5.392 -0.0544  0.0302  0.2728
78225W        W21216  10.360   9.868  27.670 -0.0773  0.1865  0.2117
78226W        W21217  13.453  31.655   3.499  0.3300  0.0749  0.0845
78227W        W21218   3.884   3.413   2.354 -0.0253  0.2690 -0.0892
78228W        W21219   8.481  13.833   4.465 -0.0189  0.0906 -0.0616
78229W        W21220   5.001  10.042  10.688 -0.0611 -0.0512  0.1452
78230W        W21221   0.426   8.188   4.002 -0.1800 -0.1231 -0.0170
78231W        W21222   1.964  26.204  24.713 -0.0045 -0.0434  0.3301
78232W        W21223   5.592  22.561   7.328 -0.2195  0.0064 -0.1140
78233W        W21224   3.932   9.671  23.697  0.2755  0.1834 -0.3597
78234W        W21225  34.580   5.648  26.796 -0.2517  0.0683  0.2674
78235W        W21226   0.776   1.247  14.876  0.1816  0.1210  0.2372
78236W        W21227  30.319  27.202  23.007  0.0148  0.1082 -0.2982
78237W        W21228  33.079  10.153   6.457  0.0594 -0.1401 -0.0943
78238W        W21229  16.425   7.366   6.204  0.2323 -0.0469 -0.2431
78239W        W21230   7.629  12.889   8.292  0.0504 -0.2482  0.1147
78240W        W21231  10.875   8.795   6.903  0.3179  0.0565 -0.0568
78241W        W21232   3.702   1.908   7.333 -0.0385  0.0008 -0.0638
78242W        W21233   9.410   9.802  28.932 -0.2247 -0.0478  0.2200
78243W        W21234  10.300  24.208  24.306 -0.2081 -0.2080  0.1703
78244W        W21235  10.306  10.048   8.120  0.2017 -0.0643 -0.1088
78245W        W21236   8.954  32.575  21.406 -0.2410 -0.0169  0.4083
78246W        W21237  16.963  19.874   1.346 -0.3158 -0.0992 -0.1290
78247W        W21238  15.747  27.015   9.022 -0.2409  0.1094 -0.1076
78248W        W21239  27.885  11.050  25.784 -0.2588  0.2836 -0.2189
78249W        W21240  16.973  12.760   9.781 -0.3588  0.1125 -0.1122
78250W        W21241   8.641  28.861   3.293 -0.0585 -0.2693  0.1419
78251W        W21242   6.587  10.340  11.187 -0.0972  0.0372  0.2601
78252W        W21243  14.096  19.435  28.390  0.0298  0.0973  0.2593
78253W        W21244   7.481  34.581  10.127  0.0434  0.2445 -0.0347
78254W        W21245  12.541  34.369  21.991 -0.0257 -0.1454  0.1401
78255W        W21246   6.466   9.092  22.596 -0.0370  0.2778 -0.0916
78256W        W21247  13.265   3.456   9.149 -0.0296 -0.1575  0.1240
78257W        W21248  21.449  10.423  16.776  0.1560  0.0274 -0.1598
78258W        W21249  18.289  30.421   0.992  0.1625 -0.4273 -0.2385
78259W        W21250  10.795  15.555   8.473  0.0349 -0.1269  0.0392
78260W        W21251  14.619   2.425  10.586 -0.0295 -0.1691  0.0221
78261W        W21252   5.326  34.651   4.574  0.0465 -0.0681 -0.1159
78262W        W21253  14.872   3.386  23.423  0.0293 -0.1871 -0.1164
78263W        W21254   3.310   3.798  19.611 -0.0500  0.0280 -0.1139
78264W        W21255  17.347  12.164  26.431  0.1489 -0.0791 -0.1141
78265W        W21256  10.024   9.928   8.520 -0.2135 -0.1601 -0.2387
78266W        W21257  17.513   7.745  23.470  0.1762 -0.0120 -0.1799
78267W        W21258  11.785  33.908   7.719 -0.1062  0.0820  0.2690
78268W        W21259   5.998  23.702   4.795 -0.4713 -0.0595 -0.2330
78269W        W21260   8.814   3.844   5.674  0.2713 -0.1413 -0.1476
78270W        W21261  21.199  28.984  18.634 -0.1384 -0.1030 -0.2957
78271W        W21262  27.089   9.005   1.558 -0.1082  0.2998  0.0552
78272W        W21263  15.077  14.671   7.904  0.1135  0.2809 -0.2355
78273W        W21264   3.378   7.054  11.767  0.0107  0.1321  0.1486
78274W        W21265  19.568  27.507  27.977  0.0524 -0.3651  0.0423
78275W        W21266   4.871  12.934  25.379 -0.2370  0.1761  0.2650
78276W        W21267  17.009  12.828   1.973 -0.2178  0.1911  0.1435
78277W        W21268  12.282  12.598   4.800 -0.1336  0.0001 -0.3123
78278W        W21269   9.091  23.939   8.491  0.1375  0.1368 -0.1847
78279W        W21270  30.804  10.612  16.936 -0.4361  0.2646  0.2650
78280W        W21271  19.459   3.821  19.193 -0.0983 -0.0767 -0.1187
78281W        W21272   5.143   2.547  26.845 -0.2449 -0.0833  0.1115
78282W        W21273  21.282   0.534   0.332  0.5210 -0.0598 -0.2156
78283W        W21274  12.934   1.491  10.390 -0.4797  0.0043  0.3323
78284W        W21275   6.695   3.026   8.123  0.3764 -0.2635 -0.0594
78285W        W21276   8.439   5.529   0.193 -0.4018 -0.1779  0.5579
78286W        W21277  19.242   5.652   9.081 -0.1112  0.0195  0.1671
78287W        W21278   5.958  25.069   7.142  0.0552  0.2119 -0.4628
78288W        W21279  14.290   4.477   5.812 -0.0280 -0.0649  0.1146
78289W        W21280  14.447  12.180   8.470 -0.1724 -0.5101 -0.2386
78290W        W21281   4.940   9.116   4.357 -0.0200 -0.3630  0.3809
78291W        W21282   4.470  33.432   9.280  0.1300 -0.1500  0.2171
78292W        W21283  16.457  29.755  28.372 -0.0895  0.1283 -0.1278
78293W        W21284  10.848   9.594  10.354 -0.0380  0.1924  0.0574
78294W        W21285   5.739   2.849  17.195  0.0380 -0.0670  0.3694
78295W        W21286  24.232   6.878   2.397 -0.1899  0.0261 -0.0754
78296W        W21287  25.476  13.714  19.210  0.2547 -0.2053  0.0470
78297W        W21288   3.293  10.735   5.155  0.4182  0.1040 -0.2292
78298W        W21289  22.989  12.422   3.687  0.2345 -0.1684  0.0649
78299W        W21290   6.035  17.243   2.209 -0.2534  0.0099  0.1430
78300W        W21291   4.628   2.214   9.716 -0.1378 -0.1915 -0.0155
78301W        W21292  10.785   8.882  23.506  0.1803  0.1799 -0.2010
78302W        W21293  27.603   9.876   5.917  0.2112  0.0193  0.0896
78303W        W21294  33.190  17.651  21.957 -0.1176 -0.1820 -0.0500
78304W        W21295  34.078   9.156  17.094 -0.0651  0.1094  0.1942
78305W        W21296  34.628   8.056   0.727 -0.0239  0.0637  0.0127
78306W        W21297  16.502  14.824   8.210 -0.1823  0.2496  0.4105
78307W        W21298  10.686  11.193   9.015 -0.0645 -0.1738 -0.1296
78308W        W21299   5.628   6.454   8.612  0.1089  0.3048 -0.1323
78309W        W21300  13.124  30.826  28.788 -0.4976  0.1214 -0.2563
78310W        W21301   0.489   6.580   2.865  0.0217 -0.2964 -0.0059
78311W        W21302  20.933  17.892  27.108  0.0132  0.3171 -0.3050
78312W        W21303  10.744  12.421   5.225 -0.3805  0.0325 -0.0622
78313W        W21304   0.235   6.676  22.665  0.0946  0.1396  0.1147
78314W        W21305  11.625  13.993  27.888  0.1640 -0.2202 -0.2620
78315W        W21306  30.223   7.044   0.116 -0.1806  0.1276 -0.0906
78316W        W21307  31.103   9.451   0.978 -0.1292  0.1217 -0.0328
78317W        W21308   7.249  34.736  26.675 -0.2004 -0.3868 -0.0487
78318W        W21309  15.576  12.206   9.399  0.1713 -0.2536 -0.1594
78319W        W21310   7.522  10.849   3.901  0.0493 -0.2329  0.2138
78320W        W21311  23.091  25.575   1.634 -0.1906  0.0964 -0.0809
78321W        W21312   1.781  16.399   3.032 -0.3410 -0.0550 -0.1444
78322W        W21313   8.570  33.724   9.805  0.0491 -0.0727  0.0607
78323W        W21314  23.546  13.486   4.095 -0.0720  0.1439 -0.2157
78324W        W21315   8.549   2.184   1.870  0.1805 -0.1774  0.0526
78325W        W21316  22.029  13.461   6.080  0.0222  0.2970 -0.0146
78326W        W21317  13.833  27.132   7.256  0.0582  0.0797 -0.0484
78327W        W21318  22.170  31.582   4.029 -0.2234  0.0423 -0.1164
78328W        W21319  16.287   2.311  10.272  0.0678 -0.1088  0.0216
78329W        W21320  32.275  23.706   9.556  0.2264 -0.3417  0.0455
78330W        W21321   8.692  20.178   3.234  0.1783 -0.3884 -0.2486
78331W        W21322  11.130   2.304  24.496 -0.0088 -0.1074  0.0051
78332W        W21323  17.596   3.933   5.719  0.0600  0.3493 -0.0303
78333W        W21324  13.833   1.778  27.900 -0.1031 -0.0721 -0.1750
78334W        W21325  29.606   3.554  20.591 -0.0821 -0.0546 -0.0216
78335W        W21326  21.922   8.019  23.545  0.3987  0.1009 -0.1024
78336W        W21327   2.024  15.825   1.643  0.0960 -0.1789 -0.1877
78337W        W21328  20.241  10.973   5.964 -0.1427  0.2751 -0.2118
78338W        W21329   1.310  32.668   6.508 -0.1039  0.0205 -0.0444
78339W        W21330   5.234   5.888   5.911  0.1659  0.1048 -0.2211
78340W        W21331  22.556   8.444   4.326 -0.0006  0.0312  0.1839
78341W        W21332  12.970  14.329   7.299  0.1171  0.0722 -0.0957
78342W        W21333   5.728  29.808   6.350 -0.4154 -0.0003  0.0534
78343W        W21334   4.943   5.619   3.251  0.0816  0.1501  0.2574
78344W        W21335  11.162  19.980   1.992  0.1176  0.0191  0.2329
78345W        W21336  19.112  10.308   7.777 -0.0621  0.0457 -0.1212
78346W        W21337  13.760  30.022   6.553  0.1550  0.1059 -0.0212
78347W        W21338  32.400  18.357  20.669 -0.0954 -0.2204  0.3378
78348W        W21339  25.923   7.243  22.806  0.2451  0.3178  0.0965
78349W        W21340   7.285   4.533  23.378 -0.2107 -0.2189 -0.0943
78350W        W21341  15.589   8.366   9.520 -0.1809  0.0366  0.1183
78351W        W21342   3.913   5.952   6.221  0.1406 -0.0181 -0.1730
78352W        W21343   0.970   6.161   9.153  0.0220  0.0866  0.1062
78353W        W21344  19.761  28.301  28.035  0.3397 -0.1515  0.3265
78354W        W21345  10.516   2.017  22.896  0.0063 -0.0075 -0.3346
78355W        W21346   8.807  23.653   6.638  0.1032  0.0781  0.1179
78356W        W21347  33.572  13.876   1.257 -0.0718 -0.1146 -0.0850
78357W        W21348  21.665  30.750  26.857 -0.1635 -0.1185 -0.1490
78358W        W21349  33.005   5.251   2.434  0.3340  0.0587 -0.3507
78359W        W21350  16.349   9.967  27.893 -0.1427 -0.2121  0.0907
78360W        W21351   4.342  10.702   9.407  0.2216  0.2233 -0.1524
78361W        W21352  13.521  32.494   8.096 -0.1651 -0.2655  0.2664
78362W        W21353   9.832  19.928  10.711 -0.4819 -0.1781 -0.1859
78363W        W21354  12.409  28.537   3.314 -0.2003 -0.2004 -0.0707
78364W        W21355   7.580   1.311   5.711 -0.0837 -0.1986  0.0509
78365W        W21356   4.675   4.362   5.316  0.1425 -0.0633 -0.2712
78366W        W21357  13.995  29.756  26.002 -0.1512 -0.1015 -0.3014
78367W        W21358  18.708  10.260  26.963 -0.0391  0.5320 -0.0702
78368W        W21359  17.760  31.475   8.437 -0.2286 -0.0111  0.0128
78369W        W21360  31.429  25.931   4.575 -0.2809 -0.0812 -0.1667
78370W        W21361  11.900  18.390  22.186  0.0456 -0.1398 -0.0403
78371W        W21362   6.069  24.949   0.876  0.2991  0.0644 -0.1938
78372W        W21363  18.692  30.434   5.568  0.1209 -0.1536 -0.1646
78373W        W21364  22.647  13.715  28.425 -0.3577 -0.2006  0.4362
78374W        W21365  22.160   7.026   5.292 -0.0411  0.3584  0.0310
78375W        W21366   3.599   1.414  28.313 -0.1217 -0.1041  0.0335
78376W        W21367  33.477  30.637  22.855  0.2508  0.0369  0.0055
78377W        W21368  29.441  12.933  10.223  0.1500 -0.0974 -0.1414
78378W        W21369  30.083   4.216  28.230  0.0114 -0.1867 -0.2558
78379W        W21370   5.131  10.001  11.209 -0.1066  0.2921 -0.2630
78380W        W21371  15.203   0.404   6.055  0.2882  0.0973  0.1160
78381W        W21372  10.655  20.806   3.964  0.1746  0.0461 -0.1224
78382W        W21373  11.390  11.021  11.307  0.1812 -0.1375 -0.3564
78383W        W21374   0.721  27.812   2.555  0.0611 -0.1425 -0.3076
78384W        W21375  23.907  28.723  25.320 -0.2051 -0.1113  0.0273
78385W        W21376   6.817  29.311  10.250 -0.0942  0.0432  0.1723
78386W        W21377   5.491  28.208   9.491 -0.1967  0.0265  0.0589
78387W        W21378   2.325   6.209  29.064 -0.1440 -0.1259  0.0885
78388W        W21379  33.533   9.429  10.079  0.1709  0.0213  0.3448
78389W        W21380   6.020  31.563   5.880  0.2019 -0.0119  0.3631
78390W        W21381  11.226  10.457   9.680 -0.0687 -0.2007  0.2957
78391W        W21382   6.658   1.909   8.556 -0.0668 -0.0512  0.0871
78392W        W21383   2.471  19.521   7.428  0.4204 -0.0800 -0.0548
78393W        W21384  20.416  18.042  26.217 -0.1827  0.5472 -0.1624
78394W        W21385  17.062   5.415  28.871 -0.2986  0.1493  0.1169
78395W        W21386  16.273   2.761   1.422  0.1260 -0.0132  0.2356
78396W        W21387  34.181  26.806   6.216  0.0079 -0.2754  0.0387
78397W        W21388  23.598  11.806  21.003  0.2563  0.1272  0.3228
78398W        W21389  14.861   4.795   7.742 -0.1280 -0.0254 -0.0651
78399W        W21390   5.826   4.120   9.199  0.0426 -0.1905  0.0605
78400W        W21391  19.901  12.242   6.609 -0.0935 -0.0409  0.1158
78401W        W21392  10.970  15.251  24.699 -0.0202 -0.1245 -0.0041
78402W        W21393  12.223   4.314  24.741  0.0736  0.0026 -0.1576
78403W        W21394   4.113   9.773  11.041  0.0818 -0.4812  0.4860
78404W        W21395  20.132   7.297   8.777  0.0265 -0.0070  0.1744
78405W        W21396  23.536  30.461   4.802 -0.1305  0.0605  0.0551
78406W        W21397   4.799  14.988   1.538  0.2426  0.1240  0.0414
78407W        W21398   6.642   0.251   7.457  0.0007  0.4137  0.2510
78408W        W21399  22.485   8.837   5.911 -0.0801 -0.2323 -0.1823
78409W        W21400   2.799  11.818  11.150  0.2433 -0.1341  0.1229
78410W        W21401   8.164   7.975  10.762 -0.3356  0.1185  0.0741
78411W        W21402   2.709   0.774   4.383  0.2184  0.2010  0.2797
78412W        W21403   4.510   0.144   4.681 -0.2881 -0.1243  0.1611
78413W        W21404   8.765  19.393   4.264 -0.0833  0.4476 -0.3113
78414W        W21405  17.175  32.782   4.374 -0.1070  0.0070 -0.1304
78415W        W21406   8.926  33.970   5.693 -0.1906  0.1499 -0.3162
78416W        W21407  11.776  12.897   8.050  0.3267  0.5082  0.4310
78417W        W21408  18.527  18.151   4.179  0.0896 -0.0448 -0.2094
78418W        W21409  30.316   2.505  25.828 -0.0363 -0.1982 -0.0053
78419W        W21410   7.794   5.122   9.033 -0.0468 -0.3393 -0.2636
78420W        W21411   1.120  21.761   7.929 -0.0350  0.1609 -0.0547
78421W        W21412   7.895  24.199   4.335  0.1662  0.1034  0.0009
78422W        W21413   9.596   9.844   9.867  0.1779 -0.0216  0.1788
78423W        W21414  21.164  34.103   4.383 -0.1548  0.0954 -0.1443
78424W        W21415  33.249   4.167   3.951 -0.0671 -0.0945  0.0159
78425W        W21416   9.977  34.025  27.761  0.1978  0.1141 -0.0406
78426W        W21417  33.448  26.134  20.909  0.3566 -0.0128  0.2456
78427W        W21418   9.919  15.044  22.116 -0.0795 -0.0954  0.0099
78428W        W21419   0.714  14.468   1.695 -0.0788  0.1182 -0.3947
78429W        W21420   5.823   9.868  19.880  0.0768 -0.2359  0.1329
78430W        W21421   6.619   6.455  10.777  0.0868  0.0319  0.0724
78431W        W21422  11.782   1.786  29.066  0.6866 -0.2022  0.2611
78432W        W21423   6.620  32.030   0.315 -0.2234 -0.1458 -0.1559
78433W        W21424  30.039  10.571   0.409 -0.0977 -0.3375 -0.0113
78434W        W21425  19.991  20.160  29.155 -0.0292  0.1080 -0.2633
78435W        W21426   3.232  34.644  23.944 -0.2171  0.1151 -0.0899
78436W        W21427  29.078  25.350  25.763  0.1869 -0.0875  0.3059
78437W        W21428  12.933   0.509   5.085  0.1576 -0.1618  0.1537
78438W        W21429  12.023  16.831   0.577  0.0916 -0.0704  0.2638
78439W        W21430   9.982  15.214   0.309  0.1572  0.1728 -0.0157
78440W        W21431   2.821  29.315   3.579 -0.0756 -0.1378 -0.0059
78441W        W21432  19.002   9.415  27.155  0.0683  0.1661  0.1072
78442W        W21433   3.629  13.342  27.988  0.2230  0.1717  0.3979
78443W        W21434  16.508   4.809   0.756  0.2369  0.0445  0.3333
78444W        W21435  16.148  28.371   2.921  0.3771 -0.1527  0.0816
78445W        W21436   4.164   1.529  27.381  0.0639  0.3883  0.2590
78446W        W21437   6.048  31.114  19.834  0.2550  0.0117  0.0312
78447W        W21438  13.517  20.338  26.204 -0.1595 -0.0243 -0.2693
78448W        W21439  25.552  10.743  28.845  0.1302  0.2006  0.2203
78449W        W21440  17.655   1.525   0.112  0.2911  0.1562  0.1285
78450W        W21441  15.571   9.253  25.570  0.1411  0.1858  0.0272
78451W        W21442  27.385  12.543   6.867  0.0173  0.0479  0.0302
78452W        W21443  19.186   0.438   5.384  0.3672 -0.0744  0.0771
78453W        W21444  10.961   5.694   5.547  0.2460 -0.0629  0.0610
78454W        W21445  10.189   6.979  15.757 -0.3891  0.0118 -0.2062
78455W        W21446  29.024   6.423  26.205  0.3041 -0.0149  0.0801
78456W        W21447  12.262  12.923   7.883 -0.2033 -0.0445 -0.0533
78457W        W21448  14.040   8.977   4.666 -0.0361 -0.0682 -0.1243
78458W        W21449   6.635  31.734  27.894 -0.3055 -0.3238  0.1173
78459W        W21450  34.511   5.178  18.154 -0.1814  0.0272 -0.0784
78460W        W21451  23.190   3.804   8.088  0.3022  0.0060  0.1092
78461W        W21452   0.468  12.850  28.851 -0.3121  0.3668  0.2973
78462W        W21453   9.005  12.045   4.752 -0.3210  0.1023  0.0891
78463W        W21454  15.771   8.848   2.003 -0.2985 -0.1397  0.0125
78464W        W21455  31.120  28.434  13.385  0.0980 -0.0160  0.0529
78465W        W21456  15.578  11.203   3.488 -0.0420 -0.0403 -0.1582
78466W        W21457   4.615  11.210   6.577  0.2388 -0.0192  0.0726
78467W        W21458  27.460  14.464   9.613 -0.2514 -0.0265 -0.2473
78468W        W21459   5.598  13.672   7.555  0.1487 -0.1499  0.2806
78469W        W21460  26.537  18.604  10.042 -0.0479  0.3010  0.2113
78470W        W21461  10.058  24.771   5.536  0.1578  0.0128  0.1326
78471W        W21462  11.269   8.137  27.498  0.0079  0.2903 -0.4971
78472W        W21463  11.760   7.547   1.901  0.0575  0.2528 -0.2885
78473W        W21464   9.525   6.853   6.885 -0.0230  0.1555  0.1270
78474W        W21465  23.717  21.193  24.769 -0.0361 -0.0037 -0.1562
78475W        W21466  15.055  29.170   2.764 -0.0939  0.1510 -0.0134
78476W        W21467  26.400   7.951   0.744 -0.1285 -0.0334 -0.0845
78477W        W21468  19.956   4.417  28.527 -0.0838 -0.0596  0.1401
78478W        W21469  18.271  25.812   1.642 -0.2383  0.2275 -0.1063
78479W        W21470   9.266   9.793   6.996  0.0280 -0.1641  0.0184
78480W        W21471  19.872  10.230   2.551  0.2748  0.1393 -0.2347
78481W        W21472   0.679  13.656   5.988 -0.0808 -0.2064  0.1738
78482W        W21473   9.924  28.251   1.575 -0.1939  0.0203 -0.0238
78483W        W21474  14.342  34.087   2.717 -0.0967  0.1108 -0.1844
78484W        W21475   7.298   6.905  28.474 -0.0857 -0.0103  0.3248
78485W        W21476   9.505  11.597  24.433  0.1024 -0.0892 -0.3424
78486W        W21477  32.612  34.762   4.216 -0.0493 -0.0658  0.2990
78487W        W21478  10.647  31.521   2.190  0.2526 -0.1235 -0.2504
78488W        W21479  32.098   1.698   5.741  0.0106  0.0305  0.1586
78489W        W21480  22.467   8.615   4.970 -0.1320  0.0205  0.1928
78490W        W21481   2.805   9.544  19.403 -0.0938 -0.0805 -0.1778
78491W        W21482  13.339   8.966  27.296 -0.4547  0.1480  0.0082
78492W        W21483  22.292   0.131   9.733  0.2066  0.0323 -0.1852
78493W        W21484   7.848  28.722  15.703  0.0049 -0.5756 -0.2175
78494W        W21485  14.168  20.403   7.365 -0.0659 -0.2494 -0.4132
78495W        W21486  28.178  11.269   5.768  0.0920 -0.1470 -0.0168
78496W        W21487   8.453  16.670  28.878  0.1432  0.0365  0.1173
78497W        W21488  15.082  10.175  19.987  0.1298  0.1091  0.1015
78498W        W21489  20.218  17.133   7.460  0.1353  0.0180 -0.2791
78499W        W21490  11.755  32.564   5.714  0.1108  0.1678  0.1977
78500W        W21491  12.646   3.560   1.593  0.1996 -0.0384 -0.0865
78501W        W21492  10.780   9.459   9.822  0.3537 -0.1614 -0.0172
78502W        W21493   7.877   4.377  19.061 -0.2119  0.1199  0.2145
78503W        W21494   5.969  28.208  28.455 -0.2638 -0.2512  0.0008
78504W        W21495   3.176  29.136   1.602  0.1895 -0.0303  0.1448
78505W        W21496  20.094   4.613   5.242 -0.3092 -0.1268 -0.1995
78506W        W21497   0.863   4.532   4.542  0.0816  0.1414  0.0484
78507W        W21498  24.501  16.803   3.855 -0.0273  0.1719  0.0616
78508W        W21499   5.014  23.043   8.091 -0.0548  0.0148  0.1383
78509W        W21500  27.219   7.660  27.762 -0.1068 -0.1575 -0.0937
78510W        W21501   4.442   6.203  10.342 -0.1664 -0.1940 -0.1620
78511W        W21502   4.244  24.743  21.203 -0.0629  0.1438 -0.2405
78512W        W21503   1.497  16.112   2.604  0.1998  0.0049  0.2600
78513W        W21504  18.271   1.437   1.145  0.1572 -0.1077  0.1791
78514W        W21505  17.122  13.574  28.672  0.1941 -0.1709  0.2527
78515W        W21506  13.919  26.702   1.017 -0.0802  0.0190 -0.1746
78516W        W21507   0.615  16.827  24.229  0.1307 -0.1419  0.0114
78517W        W21508   7.706  31.426   2.024  0.2348  0.3041 -0.0933
78518W        W21509  26.170   9.830   7.957  0.1665  0.1379 -0.2893
78519W        W21510  20.965  12.129   8.845  0.0347 -0.3532  0.1731
78520W        W21511  12.032   3.137   6.525 -0.0870 -0.1096  0.1392
78521W        W21512  25.499  10.696  20.379 -0.3883 -0.1596  0.0573
78522W        W21513  19.399  24.666  10.286 -0.1609  0.2898  0.2360
78523W        W21514   3.235  18.957   2.106  0.0033 -0.2521 -0.3777
78524W        W21515   9.822   2.945   0.754 -0.3045  0.0378 -0.1001
78525W        W21516  32.724  13.008  28.554  0.0436  0.1028  0.0578
78526W        W21517  22.280  30.208   3.297  0.0738  0.0376 -0.1017
78527W        W21518   7.054  26.798   5.090  0.0932 -0.0098 -0.2143
78528W        W21519   5.135   3.722   8.162  0.0822 -0.0160  0.1381
78529W        W21520  19.519   8.518  27.310 -0.0653 -0.1959  0.1062
78530W        W21521  14.251  17.674   7.406  0.0150  0.1234  0.1077
78531W        W21522  31.647  28.780  27.229 -0.0638  0.3713  0.0177
78532W        W21523  21.305   7.903  26.416  0.3105  0.0052 -0.0342
78533W        W21524  14.884   3.036  10.819  0.2902 -0.2056 -0.2971
78534W        W21525   9.855  33.355   3.259  0.5207 -0.1692  0.0158
78535W        W21526   7.550  32.973   4.655  0.0575 -0.1365  0.2459
78536W        W21527  17.577   8.956   2.191  0.2858  0.2039  0.0667
78537W        W21528  21.700  26.052  26.694  0.0939 -0.1256  0.0486
78538W        W21529   7.117  28.327   4.311  0.0365  0.1362 -0.2626
78539W        W21530  21.048  34.306   4.918  0.2138 -0.1731 -0.2085
78540W        W21531  27.869   9.864  27.612 -0.1870  0.2234 -0.0721
78541W        W21532  13.444  27.431   1.371 -0.1118 -0.0866 -0.3497
78542W        W21533   5.516  16.378   6.021 -0.0696  0.1408 -0.1332
78543W        W21534  22.749   9.946   2.163 -0.1421  0.0271 -0.1875
78544W        W21535  33.591  30.429   7.057 -0.0548 -0.1663 -0.1750
78545W        W21536  18.236  11.174   7.295 -0.2260 -0.0008 -0.0506
78546W        W21537  33.136   2.353   9.295  0.0787  0.1660  0.6329
78547W        W21538   5.034   5.466  23.187  0.1017  0.1598  0.1567
78548W        W21539   4.828   5.926  20.277 -0.1181 -0.4645 -0.0768
78549W        W21540   0.936   1.564   0.024  0.2384 -0.2703  0.0285
78550W        W21541  29.014   8.863   2.866 -0.2001 -0.1298 -0.0037
78551W        W21542   6.015  25.421   4.211 -0.1736 -0.0466 -0.0484
78552W        W21543   7.406   2.431   4.607 -0.1624  0.3058 -0.0479
78553W        W21544   9.215  27.316  21.031  0.2840  0.1795  0.0430
78554W        W21545  15.805  15.606  26.957 -0.1156  0.0374 -0.0717
78555W        W21546  14.111   1.764   4.834  0.1234 -0.0340 -0.0589
78556W        W21547  10.535  23.936   6.469  0.1297  0.2492 -0.2117
78557W        W21548  18.554   4.049  27.621 -0.0877  0.0963 -0.1543
78558W        W21549  17.465  29.355  27.361  0.3127 -0.0178 -0.2213
78559W        W21550  13.153   3.712   3.931 -0.2382 -0.1450 -0.1267
78560W        W21551   4.881  12.635  15.885  0.1627  0.1137  0.0456
78561W        W21552  20.987  16.422   4.571  0.1135  0.0979  0.0358
78562W        W21553  17.741   6.304   2.856 -0.3002 -0.0476 -0.1808
78563W        W21554  12.224  14.158   8.491 -0.1260  0.4283  0.0504
78564W        W21555   0.015   3.185   0.318 -0.1809 -0.2995 -0.1223
78565W        W21556  10.255  12.123   8.213  0.2157  0.0884 -0.2474
78566W        W21557  20.346  33.836  23.888 -0.0430  0.0786 -0.0133
78567W        W21558   5.609   7.916  27.341 -0.2320  0.0095  0.3620
78568W        W21559   8.124  23.221   0.385 -0.2454 -0.4020 -0.1103
78569W        W21560   3.603   3.955   9.503 -0.0558  0.3366 -0.2080
78570W        W21561  22.369  32.199   5.738  0.4566  0.0053  0.1444
78571W        W21562  19.956   4.252  20.844  0.0250 -0.1281  0.2392
78572W        W21563  31.804  21.402   7.442 -0.3766 -0.1397  0.2551
78573W        W21564  29.504   7.911  24.908  0.3208 -0.0842 -0.0956
78574W        W21565  18.857  31.677   9.428  0.3074 -0.1053  0.0528
78575W        W21566   6.225  34.052   8.665  0.1831 -0.0246 -0.1896
78576W        W21567   6.896  21.029  21.174  0.3112  0.0710 -0.2113
78577W        W21568  17.136  11.687   1.083  0.1776  0.0004 -0.1763
78578W        W21569  30.268   1.062   1.669  0.0941  0.1401  0.1409
78579W        W21570   3.589   8.533  10.554  0.1102 -0.2834 -0.2103
78580W        W21571  14.367   5.813   7.845 -0.0903 -0.1786 -0.1340
78581W        W21572  21.040   6.540  16.821  0.0850  0.1716 -0.0399
78582W        W21573  12.925  12.062  14.908  0.0374  0.0353 -0.1158
78583W        W21574  12.098   3.001   4.125 -0.0784 -0.1360  0.0686
78584W        W21575   3.667  21.344  28.113  0.0047 -0.0090  0.1981
78585W        W21576   2.411   8.408   8.977 -0.3738 -0.1509  0.1264
78586W        W21577  13.959  12.090  19.837 -0.1361 -0.0848 -0.3090
78587W        W21578   2.473   7.421   7.871 -0.1213 -0.2854  0.1879
78588W        W21579  27.603   4.259   9.473  0.0248 -0.1234 -0.0132
78589W        W21580   6.149   8.572   9.888  0.3981  0.0671 -0.1452
78590W        W21581  31.307  34.132   4.956 -0.2735 -0.1651  0.0302
78591W        W21582  12.225   8.874   3.287  0.0664  0.3251 -0.1585
78592W        W21583   6.034   6.589   5.469  0.0598 -0.1771  0.4866
78593W        W21584  14.117   8.448  21.833  0.1205 -0.1754 -0.1105
78594W        W21585  13.510  21.994  25.315  0.0707 -0.1423  0.0793
78595W        W21586  14.716   2.601  22.065 -0.1912 -0.0228 -0.1141
78596W        W21587   6.822   7.574  22.417 -0.0229 -0.0849 -0.1414
78597W        W21588   2.847  14.430   7.338  0.0990  0.0900 -0.2090
78598W        W21589  12.664   8.168   6.802  0.2651 -0.1347  0.0065
78599W        W21590  18.585   7.831   2.744  0.2128  0.1031  0.0625
78600W        W21591   7.882   5.171  11.092 -0.4736 -0.2892 -0.2541
78601W        W21592  15.918   8.688   5.335  0.1059 -0.1503  0.2850
78602W        W21593  31.920  14.848  10.170 -0.0770 -0.1542  0.0099
78603W        W21594  21.147   4.984   6.469  0.1011  0.2682 -0.1318
78604W        W21595   5.491  34.446   8.309 -0.2073  0.1424 -0.1832
78605W        W21596   6.828  11.008   5.239 -0.1129 -0.3545  0.1014
78606W        W21597  10.705  21.018  25.253 -0.1705 -0.2075 -0.1291
78607W        W21598   8.372  33.626  28.855  0.1276  0.1516 -0.4934
78608W        W21599   4.197  14.503   6.024 -0.2655  0.2302  0.1034
78609W        W21600  10.291  15.372   8.106  0.1093  0.1181 -0.2719
78610W        W21601  34.773   6.001   5.020 -0.3249  0.1025  0.0738
78611W        W21602   3.535  15.695   4.567  0.0584 -0.0962 -0.2577
78612W        W21603   1.915   6.593   1.433 -0.0215  0.1316 -0.1653
78613W        W21604   7.387   9.208   4.204 -0.1704 -0.1679 -0.1693
78614W        W21605   3.489  15.032  23.622  0.0966  0.1526 -0.1486
78615W        W21606  29.945   3.254   6.174 -0.2549  0.1126  0.0398
78616W        W21607   4.476  15.947   1.590 -0.1598  0.2529 -0.2450
78617W        W21608  23.846   1.176   0.444  0.0641 -0.3171 -0.1257
78618W        W21609  11.511  19.508  18.160  0.2892  0.1047 -0.1544
78619W        W21610   7.967  17.212  26.950  0.2791  0.2357 -0.0211
78620W        W21611  19.975  28.242   5.228  0.0289  0.0370 -0.0565
78621W        W21612  27.291  13.947   2.995  0.2293  0.0735  0.0834
78622W        W21613  10.532  33.929   7.865  0.0674  0.2074  0.1462
78623W        W21614  28.789   1.565   4.683 -0.1248  0.0370 -0.0141
78624W        W21615  23.335  11.507   3.814  0.0237 -0.1644  0.4773
78625W        W21616  13.580   7.426   6.204 -0.0739  0.0325  0.1156
78626W        W21617  18.973   9.972  16.442 -0.0022 -0.2224  0.0436
78627W        W21618   3.457  15.824  10.248  0.4747  0.1388 -0.3992
78628W        W21619  12.560   3.401   6.825 -0.2847 -0.0339  0.4449
78629W        W21620   3.700   1.298   3.730  0.3614 -0.0512 -0.1323
78630W        W21621   9.465  30.237   8.461  0.0515  0.1398  0.3045
78631W        W21622   3.469  18.191  10.350 -0.1762  0.3690  0.0631
78632W        W21623   2.057  13.962   9.231 -0.1163  0.1433  0.1679
78633W        W21624  22.111   5.366   7.463 -0.4145  0.0463 -0.0787
78634W        W21625  10.883  25.215   8.624 -0.0610  0.0932 -0.3092
78635W        W21626   5.548  26.146   5.545 -0.0202 -0.0403  0.1691
78636W        W21627   4.925  20.164  27.264 -0.0459  0.0610 -0.0477
78637W        W21628  10.319  31.929   6.728 -0.2454 -0.1058 -0.3272
78638W        W21629  34.528  23.902   4.867  0.0805  0.1410  0.0686
78639W        W21630   4.943  17.968  16.999  0.0716  0.0812 -0.0854
78640W        W21631  29.833   6.612   1.308  0.1281  0.1835  0.0249
78641W        W21632   0.399  14.178   2.339 -0.4422  0.1152 -0.0627
78642W        W21633   8.721  11.987   3.435 -0.0097  0.1185 -0.3328
78643W        W21634   6.211  19.472   3.078  0.4198 -0.1150  0.1689
78644W        W21635   6.563  11.566   4.788  0.0377  0.3963  0.1564
78645W        W21636  32.632   8.291  17.888 -0.1867 -0.0529  0.2630
78646W        W21637  15.022  19.905   0.684 -0.0484 -0.0622  0.0603
78647W        W21638  11.920   6.055   6.685  0.2853 -0.3012  0.1823
78648W        W21639  18.279  12.346   7.977  0.1569  0.1658 -0.0393
78649W        W21640  27.604   4.853  20.125  0.1041 -0.1439 -0.2233
78650W        W21641  29.527   1.408   3.854 -0.0799  0.1273 -0.0910
78651W        W21642   9.973   5.605  10.450 -0.3070 -0.0283 -0.0553
78652W        W21643   2.995  31.357  24.237  0.0197  0.1953  0.0602
78653W        W21644  32.947  27.068  26.116  0.0657 -0.1846  0.0560
78654W        W21645   7.112  32.760   5.944  0.1406 -0.0335  0.1543
78655W        W21646  16.930  20.921  28.358 -0.2075 -0.1360  0.0396
78656W        W21647   2.559   5.695   9.426  0.2783  0.0688 -0.3051
78657W        W21648  34.663  34.349  17.555  0.2704 -0.0986 -0.0552
78658W        W21649  31.475  10.905  24.606  0.0097  0.2832 -0.1709
78659W        W21650  31.208  14.704   1.930 -0.0810  0.0146 -0.1513
78660W        W21651   1.737   7.621   3.711  0.0744 -0.0582  0.0580
78661W        W21652  20.080   5.894   4.899 -0.0387 -0.0601 -0.2057
78662W        W21653  13.365   9.042   8.627  0.2962 -0.1722  0.0130
78663W        W21654   0.494   6.755  21.832 -0.1773 -0.0432 -0.0119
78664W        W21655   2.348  14.901  10.282 -0.0606  0.2690  0.1793
78665W        W21656  28.862  27.739   6.927  0.0186 -0.1305 -0.0460
78666W        W21657  26.663   8.957  29.101 -0.3261  0.2978  0.1542
78667W        W21658  23.964   6.765   7.841  0.0964  0.0377  0.1467
78668W        W21659  15.135  13.821   4.951  0.0828  0.3597  0.0189
78669W        W21660  15.177   3.158  25.728 -0.2698  0.1498  0.0926
78670W        W21661  27.086  20.420   3.040  0.1226 -0.0948 -0.1656
78671W        W21662   6.873  32.002   7.549  0.0361 -0.0300 -0.1298
78672W        W21663   9.139   6.298   7.908  0.1274  0.2093  0.1477
78673W        W21664  22.670  25.549  22.073  0.0127 -0.0798  0.1467
78674W        W21665  26.573  20.131  24.423 -0.1969 -0.1348  0.0360
78675W        W21666   0.781  16.225   6.683 -0.0403 -0.0520  0.1513
78676W        W21667  34.085   3.820  20.090 -0.3173  0.2630 -0.1479
78677W        W21668  19.057   0.442  25.475  0.1638 -0.0043  0.3057
78678W        W21669  16.296  29.343  21.147 -0.1902  0.2063  0.2407
78679W        W21670  10.661   4.182   9.743  0.1444 -0.0482  0.0516
78680W        W21671   7.175   8.519   8.856  0.0557 -0.1553  0.2950
78681W        W21672  31.999   8.755  17.709  0.0134 -0.0126 -0.1431
78682W        W21673  32.256  12.362  11.193  0.3441  0.5786  0.1924
78683W        W21674  27.931  11.415   8.712 -0.1350 -0.0097  0.2591
78684W        W21675   6.046   0.654   5.538  0.1393  0.0064  0.3521
78685W        W21676  28.704  19.139   4.335  0.2843  0.2547  0.1071
78686W        W21677   9.951  20.681  23.561 -0.1023 -0.3430 -0.1292
78687W        W21678  13.519   2.961  25.919 -0.1137 -0.1945 -0.0842
78688W        W21679   9.957   0.849   9.034 -0.2870  0.2388 -0.2129
78689W        W21680  16.583  34.681   6.135  0.2439 -0.1031 -0.1454
78690W        W21681  15.290   0.251  21.776  0.1682 -0.1107  0.1376
78691W        W21682  14.972  31.645  28.761 -0.4097 -0.0109 -0.2853
78692W        W21683  17.385  33.254   0.869  0.1432 -0.1301 -0.1809
78693W        W21684  11.003  23.896   8.753 -0.0420  0.0425  0.0871
78694W        W21685   2.833  22.907  26.981 -0.1875 -0.0892 -0.0232
78695W        W21686   5.704   3.341  27.322  0.1388 -0.1574  0.0177
78696W        W21687   8.742  14.078  10.465 -0.1047  0.2362  0.0431
78697W        W21688   7.473  29.844  25.665 -0.1594 -0.0634  0.1465
78698W        W21689  33.473   1.298   8.390  0.0918 -0.0234 -0.2372
78699W        W21690  10.306   4.549   3.319 -0.0576 -0.1632 -0.1084
78700W        W21691   6.908   4.652  27.267 -0.0556  0.0212 -0.1457
78701W        W21692  20.560   2.932  24.077 -0.0216  0.1110  0.0327
78702W        W21693   2.986  21.340   2.719  0.2649  0.1364  0.0605
78703W        W21694   4.956  21.984  16.576  0.2304 -0.1069  0.2467
78704W        W21695  14.192   4.838   3.426  0.1635 -0.0282 -0.3816
78705W        W21696   6.136   2.278  10.460 -0.0411 -0.0234 -0.1581
78706W        W21697   5.258  25.850   8.986 -0.5071  0.1321 -0.1344
78707W        W21698  18.182   8.160   1.481 -0.0589  0.3152 -0.1163
78708W        W21699  21.993  12.695   2.652 -0.0475  0.0831  0.0795
78709W        W21700  26.299  24.198  23.628 -0.3964 -0.0010 -0.0134
78710W        W21701  34.733  18.585   3.971  0.1105  0.1272  0.3061
78711W        W21702  15.841  22.784   3.960 -0.1574  0.1809 -0.1325
78712W        W21703  20.675  33.885   4.763 -0.3880 -0.0050 -0.0095
78713W        W21704  10.802   3.195  10.542  0.0828  0.1110  0.4355
78714W        W21705   0.908  17.117  10.371  0.3288  0.0335 -0.0652
78715W        W21706  16.099   8.561   9.383  0.0995  0.1943  0.1283
78716W        W21707  17.652  30.844   1.654 -0.0427  0.0143  0.0714
78717W        W21708  30.167   7.513  19.773  0.4424  0.0244  0.0056
78718W        W21709  24.039   8.905  27.685 -0.1465  0.0062 -0.0769
78719W        W21710   6.594  21.082  10.961  0.0723 -0.1215 -0.0087
78720W        W21711  20.110  13.680   6.365  0.1099 -0.0548 -0.3363
78721W        W21712  16.108  34.774   7.630 -0.2831  0.0006 -0.3015
78722W        W21713  17.383   3.648   9.460  0.0077 -0.1430 -0.0466
78723W        W21714  16.665   9.109  28.025 -0.2210  0.1140 -0.1786
78724W        W21715  20.785  10.167   6.195 -0.1029  0.2142 -0.1058
78725W        W21716   2.059   6.689   0.559 -0.1103  0.1245 -0.1740
78726W        W21717  12.852  34.138   7.091  0.0799 -0.0349 -0.0164
78727W        W21718   1.169  11.283   6.025  0.0167  0.0180  0.0988
78728W        W21719   3.735  16.564  26.312 -0.2809 -0.0326 -0.0859
78729W        W21720   2.130  12.234   9.626  0.1767  0.0494  0.3730
78730W        W21721   6.145  20.593  25.897  0.0382 -0.2646  0.3578
78731W        W21722  28.578  33.564   1.514 -0.1312 -0.3347 -0.1678
78732W        W21723   3.817  14.073   4.371  0.3192 -0.1882 -0.1117
78733W        W21724   3.755   8.299  24.401 -0.0744  0.1804  0.1554
78734W        W21725  18.238  32.216   1.864  0.0545  0.2595 -0.1912
78735W        W21726  27.072  33.262  26.655 -0.1938  0.1066  0.0888
78736W        W21727  29.096  22.873  26.098 -0.1198 -0.0704  0.0213
78737W        W21728  33.668  13.300  11.611 -0.0506  0.5312  0.0250
78738W        W21729  10.964   3.658   5.597 -0.0226 -0.0342  0.2597
78739W        W21730  22.680  31.085  25.377  0.3189  0.2217  0.3752
78740W        W21731   0.960  21.895   9.255  0.1243 -0.1342  0.2395
78741W        W21732  13.395  33.923   7.467  0.1690  0.1285  0.1274
78742W        W21733   9.253   8.322   9.055 -0.2385 -0.0175 -0.2073
78743W        W21734  12.549  28.584  15.248 -0.2600 -0.2708 -0.3033
78744W        W21735  13.855  13.036   6.514 -0.0121  0.1287  0.0536
78745W        W21736  17.207   6.170  26.340 -0.0406  0.1127 -0.3095
78746W        W21737   0.437   1.934   8.737  0.1283 -0.1276 -0.0329
78747W        W21738   7.665   9.573   4.370  0.0089 -0.2773 -0.1262
78748W        W21739  19.364  15.135   2.609  0.2547 -0.2982  0.1770
78749W        W21740   8.942  27.086  27.102 -0.3242  0.0933  0.1042
78750W        W21741  26.765   3.958   4.764 -0.4116 -0.0220  0.1038
78751W        W21742   3.607   2.226   5.089 -0.1338 -0.0168 -0.4324
78752W        W21743   3.382   6.218   7.611  0.1267 -0.1776 -0.3592
78753W        W21744  28.066   3.891   2.637 -0.1640  0.2518  0.1913
78754W        W21745  11.071   5.679   9.422  0.0372 -0.0225 -0.1732
78755W        W21746   3.064   0.859  24.779 -0.0415  0.1552  0.2745
78756W        W21747  17.886  14.205   0.474  0.3227 -0.2143 -0.0445
78757W        W21748  16.221  11.904   9.241  0.0054 -0.1821 -0.2100
78758W        W21749  14.760   7.867   8.128 -0.0725 -0.0231 -0.1386
78759W        W21750   6.975  34.752  27.446  0.1034 -0.0841  0.0007
78760W        W21751   9.927   1.959   1.998  0.0916  0.1749 -0.3186
78761W        W21752  11.776   1.471   6.452  0.3851 -0.2133 -0.2714
78762W        W21753  32.218   2.818   7.769 -0.1631 -0.1284 -0.0301
78763W        W21754  18.237   3.347   9.437  0.0718  0.0498 -0.1845
78764W        W21755   8.512   1.609  11.156  0.1401  0.0415  0.3301
78765W        W21756  34.324   6.939  27.903  0.0843 -0.1602  0.1478
78766W        W21757  34.226   2.775   8.867  0.1907  0.2081 -0.0859
78767W        W21758   1.594  13.441   4.840 -0.2070 -0.2184  0.1184
78768W        W21759   5.434  28.078   6.745 -0.0199  0.2253  0.1311
78769W        W21760  20.470  10.048   1.543  0.1473 -0.0768  0.0482
78770W        W21761   2.821   2.563   2.069 -0.0810 -0.0266 -0.5193
78771W        W21762   0.743   2.159   8.404  0.0891  0.0753 -0.0324
78772W        W21763  22.915  13.983  20.640 -0.2051 -0.1033  0.2036
78773W        W21764  15.971   8.421   9.842  0.4107 -0.1033 -0.0403
78774W        W21765  32.539  17.462  27.227  0.1625  0.1478  0.1689
78775W        W21766   8.402  24.481   6.287  0.2515  0.2862 -0.0463
78776W        W21767  17.494  33.712   4.794  0.0859 -0.3974 -0.0632
78777W        W21768  10.559   7.418   3.292  0.1316 -0.2774 -0.3467
78778W        W21769  26.019   4.051   5.141 -0.0018 -0.1102  0.0453
78779W        W21770  13.641  29.376  27.340  0.2192  0.0439  0.0176
78780W        W21771   8.182  33.228   5.830  0.2208 -0.2158 -0.0078
78781W        W21772  14.220  14.612  17.997  0.0164  0.1767 -0.3083
78782W        W21773   5.313  16.827   4.826 -0.1387 -0.1919 -0.0169
78783W        W21774   1.666  11.894   4.100  0.1621  0.0123  0.0805
78784W        W21775   1.603   4.995   1.094  0.0939 -0.2818  0.2294
78785W        W21776   4.328  14.956   3.330  0.0250  0.3302  0.2228
78786W        W21777  15.825  17.917  14.602 -0.3470  0.2633  0.0998
78787W        W21778   7.732   1.708  26.557  0.2294 -0.0510 -0.2397
78788W        W21779   5.369   3.743   0.713 -0.3432 -0.3016 -0.2796
78789W        W21780  22.246  31.704  21.294  0.0315  0.0152 -0.1533
78790W        W21781   2.699   3.350  10.376  0.1194 -0.0057  0.0308
78791W        W21782   1.192  10.183   5.572 -0.0091  0.0401 -0.2232
78792W        W21783  18.303   1.860   6.583  0.0927  0.3181  0.0552
78793W        W21784  18.333  34.108   6.171  0.0966 -0.0785  0.1534
78794W        W21785  13.808  31.360   5.091 -0.1630  0.2587 -0.0390
78795W        W21786  10.060   7.136   7.788 -0.0965 -0.2030 -0.0631
78796W        W21787  12.167  21.520   8.085  0.1489 -0.2117  0.2430
78797W        W21788   3.820  31.877   7.335  0.2730  0.1244 -0.2869
78798W        W21789   7.276  11.013   4.540  0.0564  0.1853 -0.1988
78799W        W21790   5.351   0.071  10.277 -0.0522  0.1327 -0.2628
78800W        W21791  16.215   5.025  22.690 -0.0905  0.1281  0.0453
78801W        W21792   3.464   2.634  18.631 -0.0094 -0.0441  0.2447
78802W        W21793   7.927  33.975  10.236  0.0554  0.3661 -0.2049
78803W        W21794  32.591   1.825  17.710 -0.0652  0.0498 -0.1804
78804W        W21795   6.335  14.752   6.317 -0.1153  0.0326 -0.1731
78805W        W21796  11.440  22.985   3.845 -0.0212 -0.0685  0.1685
78806W        W21797   0.385  15.632   9.371  0.2641 -0.1036  0.2249
78807W        W21798   8.337  21.507   8.822  0.3977  0.1117 -0.0351
78808W        W21799   3.242   0.394   4.697 -0.1559  0.1047 -0.3937
78809W        W21800  22.049  16.962  28.618 -0.3470  0.0675 -0.1401
78810W        W21801  21.521  18.186   3.495 -0.0825 -0.2281  0.4502
78811W        W21802  25.746  15.782  19.205 -0.2154 -0.0378 -0.1045
78812W        W21803   0.081  17.839   4.764  0.0056  0.0710 -0.0128
78813W        W21804   4.836  32.264   1.226 -0.3343  0.0408 -0.0686
78814W        W21805   6.426  23.581   5.045  0.0604 -0.0086  0.3495
78815W        W21806  24.885  13.859  10.166  0.3817  0.2850  0.1571
78816W        W21807   2.958  17.075  24.820 -0.0213 -0.0569 -0.2885
78817W        W21808  17.898  32.151   4.082  0.4345  0.2314 -0.4442
78818W        W21809  21.827   1.875  26.644  0.0036 -0.2528  0.2057
78819W        W21810   8.780  32.395   7.384 -0.0702 -0.1034 -0.0764
78820W        W21811  17.342   0.943   9.802 -0.3952 -0.3133  0.2487
78821W        W21812  33.748   5.423  17.144  0.0940 -0.0897 -0.2073
78822W        W21813   1.410   7.870   1.550  0.3039  0.1718 -0.0311
78823W        W21814   6.766  31.187   5.884  0.3496  0.0724  0.0558
78824W        W21815  10.723  12.840   9.514 -0.2497 -0.1151 -0.2719
78825W        W21816  10.314   5.889  15.939  0.0843  0.0974  0.0315
78826W        W21817  30.714  26.537   5.542 -0.0950 -0.0890  0.3150
78827W        W21818  14.377  22.465   7.407 -0.1132 -0.0790 -0.1241
78828W        W21819   2.822   6.310  22.198  0.1608  0.3008  0.1395
78829W        W21820  25.577   8.142   8.770 -0.0951  0.0766 -0.2346
78830W        W21821   0.882  16.818  10.873 -0.0088 -0.1733 -0.0366
78831W        W21822   8.431  27.856   1.492 -0.0832  0.1788 -0.1038
78832W        W21823   3.164   5.314  27.500  0.2274 -0.2741 -0.0877
78833W        W21824   4.903   6.170   4.934 -0.0416  0.0021  0.0157
78834W        W21825  31.063   3.646  23.854 -0.0615  0.0001  0.1451
78835W        W21826  25.498   0.244   8.051  0.0060 -0.0773 -0.2637
78836W        W21827  13.067  16.697   3.772 -0.0885 -0.1124  0.0764
78837W        W21828   8.375  13.036  23.014 -0.0350  0.0689 -0.1378
78838W        W21829   4.424  29.619  22.709 -0.1297 -0.2496 -0.1927
78839W        W21830   9.333   5.199   8.205  0.1354  0.1165 -0.3542
78840W        W21831   4.254   3.650   7.801 -0.2488 -0.2563 -0.0773
78841W        W21832   7.462   6.829   2.923 -0.1436  0.2419 -0.3070
78842W        W21833  14.070  18.553   4.813 -0.3037 -0.0100 -0.2705
78843W        W21834  23.418  13.317  27.744 -0.0029 -0.3124 -0.3912
78844W        W21835   8.598  31.813   4.636  0.1744  0.2083  0.0684
78845W        W21836   0.773   3.493   9.579 -0.2577  0.0843  0.1707
78846W        W21837  17.044  21.299   2.437 -0.1491  0.0980 -0.0739
78847W        W21838  12.254   6.833  10.349  0.1074  0.2728  0.1257
78848W        W21839   1.953   1.448   7.206 -0.1721  0.0306 -0.1677
78849W        W21840  10.507   1.671   7.972  0.0638  0.0649  0.0750
78850W        W21841  11.203   1.519   0.488  0.2296  0.1933  0.2847
78851W        W21842  22.274   4.485  28.492  0.2092  0.1098  0.3013
78852W        W21843   1.359   7.408   4.321  0.0414  0.1512  0.0706
78853W        W21844  14.169  10.629   4.978  0.2165  0.2022  0.0633
78854W        W21845  10.215  14.554  10.590 -0.0433 -0.0182 -0.0693
78855W        W21846  20.103  31.361   4.919 -0.0833  0.0408  0.2810
78856W        W21847   6.076  11.174   0.679 -0.1450  0.1507  0.0339
78857W        W21848   2.623  11.049   9.791 -0.1661  0.1870  0.0455
78858W        W21849  11.973   4.995   3.392  0.3202 -0.1490 -0.1985
78859W        W21850   6.122   7.839  10.298 -0.1596  0.0819  0.1227
78860W        W21851   9.203  19.868   7.529  0.3820  0.1617  0.0954
78861W        W21852  15.168   5.180  10.108 -0.1152  0.0221 -0.3120
78862W        W21853   8.896   4.967  20.557  0.0244 -0.1329  0.1987
78863W        W21854  14.797   8.995  20.863 -0.1104  0.0577 -0.2929
78864W        W21855   5.144   9.728  28.581 -0.2098 -0.1177  0.0084
78865W        W21856  31.825  27.270   7.022  0.0703 -0.5515 -0.0499
78866W        W21857  18.788   9.983  13.760 -0.3034  0.0898 -0.0232
78867W        W21858  10.294  11.142   7.141 -0.1764  0.0683  0.0315
78868W        W21859  17.392   1.085  29.252  0.0018  0.2339 -0.1160
78869W        W21860  23.266   5.589   6.563 -0.2260  0.1590  0.3097
78870W        W21861   5.822  34.733   7.582  0.2062 -0.0907  0.5023
78871W        W21862   1.281   6.889  26.707  0.0469  0.4223  0.0010
78872W        W21863   3.850  12.406  25.155 -0.1225  0.0543  0.0867
78873W        W21864   4.409  17.956  10.375 -0.1018  0.2758 -0.2728
78874W        W21865  27.057   7.463   8.266  0.1170  0.3118  0.1664
78875W        W21866   6.847   7.297   6.831 -0.3072  0.2820  0.0132
78876W        W21867   1.374  28.001   3.836  0.0699  0.0031  0.1122
78877W        W21868   3.499   0.493   5.560 -0.0694 -0.2158  0.2113
78878W        W21869  14.400   7.638   9.920 -0.0240  0.1561  0.0013
78879W        W21870  12.929   4.632   4.325 -0.3126 -0.0487 -0.1675
78880W        W21871  30.282   0.977   7.304 -0.1571  0.3548  0.2914
78881W        W21872  21.795   7.465  25.827  0.0233 -0.5185 -0.0895
78882W        W21873   4.743  13.711   1.607 -0.1694  0.0730 -0.1954
78883W        W21874  13.992  19.411   5.700  0.0845  0.0305  0.0530
78884W        W21875   8.075  10.995  27.668  0.1971 -0.0388  0.2483
78885W        W21876  12.689   8.506   3.965  0.3576 -0.2182 -0.1351
78886W        W21877   1.122  34.387  29.253 -0.1954  0.0113  0.1259
78887W        W21878   6.395   7.773   3.797 -0.0894  0.1654  0.3346
78888W        W21879  14.862   9.656   3.654 -0.0121 -0.1438 -0.3271
78889W        W21880   8.367  28.493   2.399  0.1297  0.1496 -0.1100
78890W        W21881   7.573   7.996  27.449  0.1037  0.1801  0.1280
78891W        W21882  15.424   6.966   5.100 -0.0670  0.2580 -0.1289
78892W        W21883  18.555   5.232  21.364 -0.1096  0.2483 -0.1353
78893W        W21884  32.603   7.258   1.505  0.0222 -0.0881 -0.0683
78894W        W21885  15.428   8.365  26.010 -0.0417  0.1954  0.2146
78895W        W21886  31.550  11.529   2.298 -0.0753 -0.1353 -0.0921
78896W        W21887   0.238  23.143   6.345  0.0388 -0.2052  0.2693
78897W        W21888   0.359   7.883   7.152  0.2427 -0.0066 -0.1431
78898W        W21889   1.682   3.113   0.207  0.1207 -0.1326 -0.0006
78899W        W21890  18.393   8.830   4.410 -0.2961 -0.4290  0.0214
78900W        W21891  12.175   9.224  23.449  0.0353  0.3167 -0.2395
78901W        W21892   8.391   3.830  28.756 -0.0469  0.1069 -0.0209
78902W        W21893   2.617  17.418  22.091 -0.0796  0.1206 -0.3047
78903W        W21894  14.656   1.858  19.700  0.0647  0.1776 -0.0781
78904W        W21895  21.504  22.846  28.932 -0.0797  0.1161  0.2997
78905W        W21896   7.743   7.532   1.467  0.1244 -0.2512  0.0684
78906W        W21897   5.870  10.953  10.734  0.1012 -0.0828 -0.0522
78907W        W21898  13.576  33.124  22.792 -0.0496  0.1233  0.4001
78908W        W21899   7.257   2.556   2.046 -0.0467 -0.1403 -0.0092
78909W        W21900  13.986  28.153   1.515  0.0716  0.0213  0.2755
78910W        W21901  18.931  13.023  20.828 -0.1075 -0.0231  0.0900
78911W        W21902   1.679  13.320   2.162  0.1271 -0.2751  0.1927
78912W        W21903  21.104  13.570  18.694 -0.0715  0.3408  0.1535
78913W        W21904  19.389   5.847   1.742  0.0817  0.2162  0.0903
78914W        W21905   9.748   1.144   4.731 -0.1033 -0.0357  0.1661
78915W        W21906  31.104   2.101  25.643 -0.3455 -0.0419  0.0559
78916W        W21907  28.844   6.671  23.304 -0.1433  0.0644 -0.1379
78917W        W21908  12.073  24.435   5.842 -0.0344 -0.0613  0.2784
78918W        W21909  12.174  17.254  19.203  0.0099  0.1750  0.1382
78919W        W21910  31.920  12.589   4.103 -0.0239 -0.0978  0.1129
78920W        W21911   5.871   7.514   0.979  0.0888  0.2215  0.2332
78921W        W21912   4.594  14.746   2.966  0.5800 -0.1721 -0.0502
78922W        W21913  22.772   7.678  29.107  0.3268 -0.1737  0.5063
78923W        W21914  12.014   2.770   9.813  0.0191  0.0756  0.2797
78924W        W21915  14.375  28.523  26.300  0.1715  0.2262  0.0876
78925W        W21916   5.379  13.493  10.311  0.3352 -0.1954 -0.1187
78926W        W21917  19.099   6.109  19.542  0.3457  0.0593  0.1266
78927W        W21918  28.162   8.292  28.571 -0.0225  0.3122 -0.0847
78928W        W21919  15.718   7.858  27.160  0.2425  0.0637 -0.0147
78929W        W21920  16.081  30.613   0.067 -0.0138  0.3207 -0.3992
78930W        W21921  14.784   4.820   5.883 -0.2335  0.3630  0.1067
78931W        W21922  15.876  25.971   9.733 -0.1776  0.2992  0.2181
78932W        W21923   9.053   7.925   2.680 -0.1837 -0.2627 -0.0836
78933W        W21924   9.749  10.888  24.885 -0.1526 -0.2171  0.1892
78934W        W21925  33.994   8.759  18.395 -0.2863 -0.1970 -0.1161
78935W        W21926   0.113   8.289   9.903 -0.1680 -0.1701 -0.1895
78936W        W21927   2.208   9.676  23.618 -0.1801  0.1533 -0.2224
78937W        W21928  24.033   8.540  26.514  0.2399  0.1445 -0.1355
78938W        W21929  14.551  19.015   1.879 -0.0943  0.2448  0.2189
78939W        W21930   9.124  22.439  22.956  0.1727  0.2331  0.3841
78940W        W21931  24.418  14.427   7.932 -0.1437 -0.0570 -0.0522
78941W        W21932  12.176  10.345  25.102 -0.1560 -0.2368  0.0167
78942W        W21933  23.163  11.603  21.040  0.0972 -0.0409  0.2096
78943W        W21934   8.414   6.494  24.197  0.1349 -0.1607  0.2973
78944W        W21935   2.021   4.410   6.158  0.2194  0.1767 -0.0853
78945W        W21936  18.420  25.315  24.046 -0.0237 -0.0364 -0.0586
78946W        W21937   6.955   4.815  27.779  0.0684  0.3835  0.0278
78947W        W21938  30.288   1.196  20.256 -0.1099 -0.0823  0.1819
78948W        W21939  26.692   2.123  23.812  0.3176 -0.0573 -0.1251
78949W        W21940  20.307   6.077   9.826  0.0511  0.0567  0.2380
78950W        W21941  26.936   3.313   3.063  0.0095  0.3244 -0.0648
78951W        W21942   4.655   5.484   6.682 -0.2552 -0.2191 -0.1851
78952W        W21943  22.810  10.328   0.600  0.1936 -0.1322  0.0242
78953W        W21944   8.082  14.475   8.013 -0.3947 -0.0345  0.2262
78954W        W21945  18.648  26.170   2.940  0.5357 -0.2950 -0.1831
78955W        W21946  10.268   2.423  22.265  0.0361  0.3153  0.0512
78956W        W21947   2.987  14.719  11.581 -0.3478 -0.1898  0.2223
78957W        W21948   2.133   1.329  21.406 -0.2241  0.0343  0.0218
78958W        W21949  16.095  31.010  14.618 -0.0056  0.2419 -0.1187
78959W        W21950  12.664   5.373  20.340 -0.0343 -0.2061  0.2172
78960W        W21951  10.009   8.708  22.718  0.0075 -0.2899 -0.0864
78961W        W21952  12.679   0.240  28.711  0.3146 -0.1616 -0.1764
78962W        W21953  18.147  12.561  20.793  0.0690 -0.0418 -0.2566
78963W        W21954  21.238  31.947   7.140  0.4375  0.1866 -0.2046
78964W        W21955   9.418   0.112   1.805  0.0037  0.0702  0.1142
78965W        W21956  21.628   5.939  26.995 -0.1535 -0.1202 -0.0466
78966W        W21957  18.675  23.210  27.483  0.3414 -0.0619  0.1668
78967W        W21958   9.269  10.158  11.453 -0.1119  0.2643  0.2541
78968W        W21959  11.234  24.195  26.352  0.1936 -0.3372 -0.0745
78969W        W21960  12.028  26.523  16.472 -0.0086 -0.2447 -0.0134
78970W        W21961   1.243   2.659  15.746 -0.0187 -0.0708 -0.1638
78971W        W21962   4.816  21.412  18.808 -0.1119  0.0746 -0.0142
78972W        W21963  12.478  11.797  24.487  0.1026 -0.1388  0.0421
78973W        W21964   7.086  11.699  19.861  0.3374  0.0528 -0.0396
78974W        W21965  32.923   2.176   3.527  0.2281  0.0140 -0.1257
78975W        W21966  13.174  12.547   3.344 -0.0720  0.2536 -0.0043
78976W        W21967  17.966  20.097   6.879 -0.2519  0.3353 -0.1527
78977W        W21968   5.512   4.742  17.144 -0.1468 -0.2388  0.2908
78978W        W21969  21.021  18.220  29.055 -0.1318 -0.1823 -0.2781
78979W        W21970  20.537   5.983   8.023  0.5721  0.0780 -0.2609
78980W        W21971  18.392   1.084   9.257  0.1183  0.0678 -0.1387
78981W        W21972   9.536  14.724  24.859  0.0096 -0.1683 -0.0843
78982W        W21973   5.901   6.782   8.384 -0.4001  0.1321 -0.1710
78983W        W21974  20.569  33.320  26.086  0.0900  0.0068 -0.3188
78984W        W21975  22.433  10.887   9.527 -0.1487 -0.2003  0.3348
78985W        W21976  13.054   7.046  16.816 -0.0302 -0.2265 -0.0348
78986W        W21977  29.077  16.339   7.516 -0.2001  0.0716 -0.2579
78987W        W21978   0.147  21.500  26.437 -0.2576 -0.1452 -0.2060
78988W        W21979  19.646  11.938  25.730 -0.2043 -0.1217  0.0421
78989W        W21980  30.241  15.042   5.120 -0.2015 -0.0448  0.2051
78990W        W21981  20.511   7.638  20.146 -0.0625 -0.2094  0.2158
78991W        W21982  10.385   0.845   5.288  0.2347  0.1763 -0.0191
78992W        W21983  17.202  33.538   7.894 -0.1016  0.2433 -0.2420
78993W        W21984   4.138   6.486  10.072 -0.3120  0.4428  0.0388
78994W        W21985  10.743  26.118  22.996  0.0182 -0.0158  0.2198
78995W        W21986   6.724   0.317  28.753 -0.1703  0.1207  0.1569
78996W        W21987   5.694  12.065  24.989 -0.2781  0.1267  0.1754
78997W        W21988   8.549  16.338   7.157 -0.0919  0.2725  0.2477
78998W        W21989  11.225   3.332  22.898 -0.3133 -0.0725  0.3633
78999W        W21990   9.572   4.238   8.114 -0.1763  0.1098 -0.1442
79000W        W21991  26.055  32.238   8.518  0.0640  0.1021 -0.2095
79001W        W21992   6.615  27.138  26.696  0.1223  0.0733 -0.0072
79002W        W21993  12.912   9.026  21.635  0.5869 -0.0730 -0.3238
79003W        W21994  24.250  28.074   7.667  0.1931 -0.0863  0.1594
79004W        W21995  19.678  24.999  27.322 -0.0963 -0.0371  0.2426
79005W        W21996   6.328   9.503  26.266  0.1074  0.0739  0.1702
79006W        W21997  21.011   0.214   6.114  0.2365  0.2533 -0.2915
79007W        W21998  12.212  27.498   4.240  0.0418  0.2321  0.1761
79008W        W21999   4.263  15.225  25.498  0.0543  0.1922  0.1995
79009W        W22000  30.848  31.915  29.006 -0.4588 -0.0674 -0.3436
79010W        W22001   7.027  15.736   4.716  0.0680 -0.1792 -0.3079
79011W        W22002  33.330   6.659  28.581  0.1227 -0.4641 -0.3297
79012W        W22003   9.136   1.734  19.639  0.0408  0.0527  0.0173
79013W        W22004   3.142   1.695   9.244 -0.0788 -0.3834  0.2327
79014W        W22005  17.565   9.603   7.309  0.2036  0.1378  0.0675
79015W        W22006  16.465   0.838   5.861  0.0651 -0.0047 -0.0518
79016W        W22007   8.845   6.981  23.020  0.2984  0.2318  0.1350
79017W        W22008   1.916  10.222  16.564 -0.1718  0.2367 -0.0319
79018W        W22009   3.661  10.203  23.809 -0.0804  0.5320 -0.0165
79019W        W22010   5.769  33.023  24.831  0.4375 -0.1229 -0.2664
79020W        W22011  33.862  25.318   9.023 -0.5336 -0.0161 -0.2563
79021W        W22012  29.838  22.167  21.171  0.0722 -0.0312  0.2346
79022W        W22013  20.323   5.466   5.210  0.2245  0.2816  0.2129
79023W        W22014   9.181  14.688  25.822  0.1313 -0.0204  0.2501
79024W        W22015  28.328  29.660  27.656  0.1771  0.0296  0.1213
79025W        W22016  17.073  21.658   5.039 -0.1286 -0.0688  0.1186
79026W        W22017   4.052  12.568   3.584 -0.1915  0.2121  0.0517
79027W        W22018   4.552  30.925  15.438  0.2148  0.0852 -0.1291
79028W        W22019  14.864   0.135  16.868 -0.0181 -0.0302 -0.0479
79029W        W22020   9.231   4.243  28.249  0.3580  0.1127 -0.0934
79030W        W22021  11.619   3.268   2.209 -0.4150  0.0861 -0.1274
79031W        W22022  29.068  24.083   1.839  0.1212  0.3097 -0.1514
79032W        W22023  10.602   0.640   9.635 -0.1896 -0.0255  0.2614
79033W        W22024  10.070   9.741   0.232 -0.2793 -0.0447 -0.3451
79034W        W22025  22.640  33.829  25.986 -0.1548 -0.0407 -0.0679
79035W        W22026  21.015   5.736   2.671 -0.0980 -0.0411 -0.1760
79036W        W22027  20.905  28.590   4.310  0.0936 -0.2686  0.0503
79037W        W22028  25.285   0.325  29.012 -0.2378  0.0584  0.0605
79038W        W22029   4.244  19.110  23.194  0.1798 -0.0402  0.1482
79039W        W22030  13.112  14.805   4.879  0.5353 -0.2063 -0.0962
79040W        W22031   7.380  11.218  28.210 -0.3386 -0.2314 -0.0109
79041W        W22032   4.179   8.935  26.724  0.2910  0.1557 -0.0494
79042W        W22033  17.250  20.780   0.458 -0.2552 -0.0600 -0.0386
79043W        W22034   8.659  16.023  20.578 -0.1576  0.4121  0.1807
79044W        W22035   1.322   2.518   7.433 -0.0462 -0.2907 -0.3200
79045W        W22036  14.389   6.800   9.518 -0.0115 -0.2836 -0.4764
79046W        W22037   6.025  17.732   2.524 -0.2969  0.0060 -0.0304
79047W        W22038   6.319   1.110  24.624  0.0239  0.1883  0.0062
79048W        W22039  18.511   9.228   5.645 -0.2461 -0.1679  0.0623
79049W        W22040  28.364  17.758  15.940  0.0403 -0.3342 -0.0965
79050W        W22041   7.327  23.104   9.796 -0.1427 -0.0459 -0.4266
79051W        W22042  18.432   9.695  21.399  0.1733 -0.3903  0.2458
79052W        W22043   4.438  13.349   5.060 -0.0295  0.3002 -0.0266
79053W        W22044   6.883  12.564  16.526  0.0880 -0.1958  0.1405
79054W        W22045  14.325  17.784  16.926  0.1628 -0.2469 -0.0646
79055W        W22046  22.525  23.389   3.968  0.4665  0.2244 -0.1050
79056W        W22047   5.027   6.166  16.535  0.2113 -0.1095 -0.0938
79057W        W22048  33.531  12.743   3.176  0.3229  0.0765  0.0238
79058W        W22049   0.074  31.084   9.760 -0.1522  0.0294 -0.2476
79059W        W22050  18.117   4.204  28.270  0.0202 -0.3620 -0.1053
79060W        W22051   7.895  23.721   4.596 -0.0364  0.1139 -0.0854
79061W        W22052   6.159  12.706  27.029  0.2326 -0.0655 -0.1526
79062W        W22053  15.174  21.022   2.812 -0.1096 -0.1570 -0.0037
79063W        W22054  15.285   5.821   7.966 -0.0589 -0.3273 -0.2898
79064W        W22055  16.960   8.635   9.545  0.2895 -0.0346  0.0447
79065W        W22056  26.462  17.599  25.840 -0.0145 -0.0878 -0.1610
79066W        W22057   1.027  13.691  10.223  0.0758 -0.1557 -0.0636
79067W        W22058  29.503  17.534  10.213 -0.1023  0.1372 -0.1723
79068W        W22059   1.940  29.869   3.979  0.0552  0.0148  0.2539
79069W        W22060  16.407   5.274   0.949  0.2733  0.0277 -0.1018
79070W        W22061  21.106  29.381  22.212  0.1260  0.1033 -0.1573
79071W        W22062  13.144   9.817  17.778  0.0063 -0.0171 -0.1064
79072W        W22063  32.166  32.694   5.811 -0.1632  0.5025 -0.1989
79073W        W22064  10.383  15.854   7.625 -0.3120 -0.0779 -0.0389
79074W        W22065  33.911  31.588  10.347  0.2361 -0.0889  0.2062
79075W        W22066   0.150  16.000  27.907  0.2108 -0.4546  0.2171
79076W        W22067   8.816  27.674  24.798  0.3641 -0.2126 -0.0482
79077W        W22068   5.946  15.451  27.737 -0.1741 -0.2280 -0.3681
79078W        W22069  18.817   4.589  27.627 -0.2713 -0.0510  0.3186
79079W        W22070   5.758   5.448   8.057  0.1356  0.0834  0.0107
79080W        W22071  30.520  31.575   5.764 -0.2021  0.0823  0.3385
79081W        W22072  31.813  24.406  28.486 -0.0022 -0.3229  0.0092
79082W        W22073  10.772  14.206  27.568  0.0826  0.3636  0.4008
79083W        W22074  18.647  28.220  26.493  0.2634 -0.0311 -0.1679
79084W        W22075  18.618  11.699  23.958  0.4156 -0.0399  0.0102
79085W        W22076   5.202  19.416  29.077 -0.0116 -0.0889 -0.0415
79086W        W22077  34.331  22.679   6.768  0.2138 -0.3423 -0.0447
79087W        W22078  23.711  13.149  24.463  0.0213  0.0703  0.1785
79088W        W22079  14.825  23.993  26.192  0.2653 -0.0232 -0.0838
79089W        W22080  25.861   1.346  26.636  0.0639 -0.0665  0.2443
79090W        W22081  13.361  10.498  26.593 -0.1574 -0.2583  0.1651
79091W        W22082  16.710   8.714   5.631  0.0688 -0.2557  0.4441
79092W        W22083  11.368  10.188  23.491  0.0720  0.5084 -0.1426
79093W        W22084  11.053   2.641  25.372 -0.1059 -0.2746  0.2256
79094W        W22085  17.916   6.592   7.179  0.0976 -0.1609 -0.0080
79095W        W22086  15.173  13.392   0.491 -0.4286 -0.0945  0.1803
79096W        W22087   6.337  13.646  11.205 -0.1001  0.0057 -0.0683
79097W        W22088  15.473  32.875   1.383 -0.4275 -0.1108 -0.2483
79098W        W22089  12.594   3.236   0.280 -0.1976 -0.1581 -0.0695
79099W        W22090   7.885  13.413  16.949  0.1283  0.1224  0.0777
79100W        W22091   6.944  10.642  17.635 -0.1875  0.1258  0.0915
79101W        W22092  23.111   5.737   9.061 -0.1321  0.2517  0.3766
79102W        W22093  22.203  30.026   0.391 -0.0820  0.4585  0.2562
79103W        W22094   8.566  11.132   9.772 -0.3418 -0.3153 -0.1195
79104W        W22095  17.274   1.701   2.177  0.0442 -0.0010 -0.0508
79105W        W22096   6.888  10.992  26.696 -0.1502 -0.0805  0.0703
79106W        W22097  17.310  25.534   5.735 -0.1642 -0.0625 -0.2217
79107W        W22098  34.663   6.184   7.865  0.4124  0.1595 -0.0783
79108W        W22099  16.336  24.448  17.308 -0.2886  0.0333  0.2059
79109W        W22100  13.960   8.869   0.849  0.3448  0.2126  0.3502
79110W        W22101  22.178   0.206   9.085  0.1723  0.1602 -0.1445
79111W        W22102  17.969   0.638   0.762 -0.2285  0.2570 -0.1038
79112W        W22103   0.483  13.476  12.199 -0.1515  0.2610 -0.1828
79113W        W22104   0.404  34.209   0.419 -0.2121  0.1607  0.0775
79114W        W22105  28.990  12.155  26.414  0.1252 -0.0136  0.0993
79115W        W22106  20.540   4.801  17.889  0.0093 -0.2717  0.1341
79116W        W22107   1.613   8.414  16.053 -0.0604  0.1402 -0.1997
79117W        W22108   3.286  17.452   8.135  0.4218  0.1953 -0.1099
79118W        W22109  12.205   2.450   0.280  0.0587 -0.0059  0.1641
79119W        W22110  19.677   4.271   6.940  0.0482  0.2590  0.2237
79120W        W22111   1.733  18.615  11.178  0.0887  0.1359  0.0956
79121W        W22112   1.125  11.444  16.242  0.3625 -0.0049  0.2006
79122W        W22113  20.528  13.254   4.049  0.0700 -0.1125 -0.0520
79123W        W22114  16.476  17.662  28.218  0.0197 -0.0793  0.0176
79124W        W22115  33.306  32.400   1.449 -0.2144  0.1268 -0.1318
79125W        W22116  18.124  12.608  28.338 -0.3237  0.2054  0.1176
79126W        W22117  20.687  28.940   8.674  0.1262  0.1481  0.0727
79127W        W22118  11.952   8.379  28.066 -0.0700 -0.0656 -0.2709
79128W        W22119  34.438  11.131  19.633 -0.0947 -0.2101 -0.2727
79129W        W22120   4.789  32.918  21.344 -0.1857 -0.0041  0.1139
79130W        W22121  15.181   4.440   0.422 -0.0653  0.1517  0.1480
79131W        W22122   3.416  19.090   8.628 -0.1744  0.1572 -0.1433
79132W        W22123  13.025  10.923  26.305 -0.3414 -0.1011  0.0353
79133W        W22124  10.855   5.571  15.057  0.0156  0.0411  0.0987
79134W        W22125  26.790   7.983  24.602 -0.0661  0.1992  0.0392
79135W        W22126   9.916  20.380   6.160  0.1579 -0.2850 -0.2583
79136W        W22127  13.748  25.448   4.028  0.0201  0.1594  0.1418
79137W        W22128   5.318  29.371  20.585  0.0949  0.0413 -0.0559
79138W        W22129   9.581  23.279   4.977  0.3794 -0.1552 -0.0318
79139W        W22130   1.256  13.173  28.247 -0.2542  0.0551 -0.0765
79140W        W22131   4.246  16.408   2.953 -0.2923 -0.3103  0.4132
79141W        W22132   1.806   2.664   4.262 -0.0247  0.0047  0.0994
79142W        W22133  27.967   0.871  29.036  0.2183  0.2586  0.1294
79143W        W22134   2.337  14.163   3.358 -0.0088 -0.0442 -0.0736
79144W        W22135   6.453  25.132  27.225  0.1005 -0.0278  0.0614
79145W        W22136  13.954  15.156   3.038 -0.0792  0.2172 -0.2284
79146W        W22137  13.518  12.531  21.210  0.1062  0.0568 -0.0577
79147W        W22138  33.893   3.696  27.912 -0.0199 -0.0712 -0.2694
79148W        W22139  12.662  26.847  10.080 -0.2660 -0.1625 -0.1345
79149W        W22140   2.777  17.688  17.960  0.0389 -0.2016  0.4904
79150W        W22141  12.853  31.128  20.981 -0.1299  0.2880 -0.1445
79151W        W22142  13.303  34.174   5.241 -0.0525  0.4382  0.3106
79152W        W22143   4.486  16.519  23.266 -0.0279  0.0318  0.1883
79153W        W22144  19.076  13.058  12.933  0.1739  0.0918  0.0562
79154W        W22145   4.269  25.147  20.231  0.0117  0.1978  0.1695
79155W        W22146  18.980  34.263   2.615 -0.1611 -0.1084  0.0160
79156W        W22147  12.698  28.299  28.318 -0.0699 -0.0179  0.0784
79157W        W22148  10.739  13.884  17.899  0.0676 -0.2023 -0.0073
79158W        W22149   7.780  21.100   0.883 -0.2370  0.3174  0.1054
79159W        W22150   2.991  11.058   0.814 -0.2930 -0.0417  0.1563
79160W        W22151  16.924   1.852  24.395 -0.2859  0.3893  0.1991
79161W        W22152   4.130  16.198  24.424 -0.1741 -0.2332 -0.0435
79162W        W22153   8.700  15.668   3.066 -0.1438  0.1935 -0.1502
79163W        W22154  12.036  28.696   1.065  0.0903  0.0583 -0.3798
79164W        W22155  11.071  11.824  10.326  0.1975 -0.0865 -0.3352
79165W        W22156  33.096  13.757  26.733  0.1856 -0.0632 -0.0324
79166W        W22157  16.596  24.084  19.951  0.0608  0.0932  0.1722
79167W        W22158   1.419  19.931   6.339  0.0416 -0.1510 -0.3202
79168W        W22159   9.240  11.205  19.749 -0.3220 -0.1187  0.0719
79169W        W22160  32.079  14.867   2.018 -0.0719 -0.3705 -0.0995
79170W        W22161  21.054  17.343  23.391  0.3654  0.0251  0.0219
79171W        W22162  12.738  20.930   8.003  0.0280  0.1482  0.1703
79172W        W22163  17.294  19.484  24.507  0.1824 -0.4226  0.2414
79173W        W22164  31.568  22.991  19.014  0.0001 -0.2064 -0.1787
79174W        W22165  20.464  15.616   3.425 -0.1198  0.4568 -0.1182
79175W        W22166  11.258   5.297   8.089 -0.1624  0.0154  0.2372
79176W        W22167  11.546  16.900  26.514 -0.4890 -0.3270  0.1553
79177W        W22168  34.329  10.296  24.878 -0.2686 -0.0233  0.3259
79178W        W22169   0.340  27.016   7.288  0.1063  0.0663 -0.0054
79179W        W22170   8.959  17.763  17.448 -0.0590 -0.1341  0.1248
79180W        W22171  31.652  12.318  15.094 -0.0810  0.0992 -0.1043
79181W        W22172   8.745  32.980  19.352  0.3684  0.0769  0.2033
79182W        W22173  18.532   6.012   2.112  0.0271 -0.0683 -0.1643
79183W        W22174  11.859   4.092   5.584 -0.1759 -0.4778 -0.1911
79184W        W22175   8.816   0.525   9.975  0.4491 -0.1583  0.2417
79185W        W22176  10.219   5.381  22.008  0.0213  0.0602  0.7424
79186W        W22177  28.287  18.043   2.701  0.1112 -0.0319 -0.1749
79187W        W22178   9.105  21.609   9.268 -0.5659  0.1802 -0.1504
79188W        W22179   3.972   5.591  22.384 -0.0468  0.0977 -0.0860
79189W        W22180  21.168  17.968  17.260  0.0961 -0.1455 -0.2804
79190W        W22181  25.939  34.063  26.650 -0.0860 -0.0318  0.3040
79191W        W22182   5.862   8.202  22.756  0.1409 -0.1807  0.1438
79192W        W22183  11.475   5.075   3.334  0.2555  0.1369 -0.4094
79193W        W22184  18.580   4.195   8.922 -0.1944 -0.1687  0.1279
79194W        W22185   5.015   8.947   5.404 -0.1103 -0.0607  0.0587
79195W        W22186  13.951   0.948   7.286 -0.3788 -0.2093  0.1550
79196W        W22187  14.239  31.359   4.097 -0.5009 -0.1266  0.1753
79197W        W22188  10.588   6.917  26.256 -0.0323  0.1586 -0.0837
79198W        W22189  19.602   8.703   3.272  0.1919  0.1248 -0.3695
79199W        W22190  28.989  25.792  27.247 -0.5995  0.0087 -0.1137
79200W        W22191  22.382  34.195  21.817 -0.0673  0.2139 -0.0505
79201W        W22192  21.653   0.211   8.015  0.3331 -0.1408  0.3087
79202W        W22193   8.663   3.686  23.265  0.0120 -0.1187  0.0302
79203W        W22194   0.046  26.177   7.243 -0.2101  0.2051 -0.2845
79204W        W22195  31.218   8.193   4.303  0.1597  0.1521  0.0927
79205W        W22196  19.376   5.113  24.564  0.1056  0.1161  0.1534
79206W        W22197  32.571  17.478  26.662  0.1513  0.0145  0.0572
79207W        W22198   9.919  24.258  18.018  0.0857 -0.1297 -0.1570
79208W        W22199  23.309  11.597   8.625 -0.0133 -0.2047  0.2110
79209W        W22200  14.032  19.956  16.530  0.4714  0.0650  0.1537
79210W        W22201   5.633   1.633   2.128  0.2012 -0.2105  0.2144
79211W        W22202  15.044   7.752  16.906  0.0329  0.0900  0.1082
79212W        W22203   2.276  27.394   4.351 -0.1210 -0.0282  0.0800
79213W        W22204   4.413  10.428   0.791 -0.2220  0.0983 -0.3989
79214W        W22205  23.351   5.465   0.891  0.1332 -0.1498 -0.1268
79215W        W22206   8.378  12.280  17.645 -0.0578  0.0020 -0.0980
79216W        W22207  26.574  31.816   2.655  0.1086  0.0430 -0.0052
79217W        W22208  17.282  31.996  14.955 -0.0342  0.0122  0.2507
79218W        W22209   5.088   1.216  19.300  0.1101  0.1273  0.0762
79219W        W22210  15.384  13.687  28.944 -0.1509  0.0398 -0.1481
79220W        W22211  17.503   6.874   5.734 -0.2145 -0.1949  0.5488
79221W        W22212  25.829  25.460  21.323  0.0277 -0.1887  0.2794
79222W        W22213   8.730  32.755  15.644  0.3442  0.2640  0.2439
79223W        W22214   5.972   3.226  10.851 -0.0433  0.1218  0.1347
79224W        W22215  10.798  15.510   0.843  0.0572 -0.1674  0.0732
79225W        W22216  11.482   5.065  26.956 -0.3189  0.2135  0.2559
79226W        W22217  19.795  15.081   1.720 -0.0029 -0.2128 -0.0195
79227W        W22218   5.657   7.604  29.131 -0.0840  0.0238 -0.4542
79228W        W22219  15.620   5.464   7.937 -0.2457 -0.0352  0.2207
79229W        W22220   3.614  34.240  18.425  0.0000  0.2593 -0.0502
79230W        W22221  15.036  11.306   4.033 -0.1157  0.0094  0.2664
79231W        W22222  19.177  32.678  29.154  0.1017  0.0552 -0.0624
79232W        W22223  30.294  17.796   4.980  0.1149 -0.3070  0.1922
79233W        W22224   6.543  15.198   7.053 -0.0905 -0.0889 -0.2743
79234W        W22225  13.692  31.365  26.337  0.1597  0.2354 -0.1016
79235W        W22226   6.425  32.776  28.043 -0.0925  0.2316 -0.0329
79236W        W22227   5.712  11.976  24.398  0.1095 -0.1511 -0.0395
79237W        W22228  18.114  18.478   0.092  0.1346 -0.1298  0.1605
79238W        W22229  15.362   1.969  24.557 -0.1186 -0.1497  0.5165
79239W        W22230  11.461   1.863   6.465  0.0436  0.0063  0.0362
79240W        W22231   3.905  33.552  23.651 -0.0682 -0.2401  0.0778
79241W        W22232   7.012   3.929   1.948 -0.0546  0.0462  0.1671
79242W        W22233  11.937   7.892   2.337 -0.3070 -0.0797 -0.2544
79243W        W22234  21.059  29.958  25.017  0.0527 -0.1531 -0.0675
79244W        W22235  17.938   7.477  26.094 -0.1388 -0.2016  0.0658
79245W        W22236  11.113  20.120   5.459  0.0721 -0.1668  0.0114
79246W        W22237   0.346  24.088   8.729  0.1374  0.1100 -0.0824
79247W        W22238   2.242   6.108  21.011 -0.1128 -0.0534 -0.0144
79248W        W22239  12.144  21.345   5.948  0.0177  0.1867  0.3128
79249W        W22240   9.389   2.884  29.028 -0.1883  0.1003 -0.0380
79250W        W22241   8.615  33.296  10.060  0.0865  0.0347 -0.0827
79251W        W22242   5.947   5.596  22.751  0.1150 -0.1047  0.2558
79252W        W22243  12.303  13.768  29.017  0.2725 -0.0530 -0.3016
79253W        W22244  22.037  19.599  29.225 -0.0584  0.2910 -0.3737
79254W        W22245   9.688  26.961  28.413 -0.3141 -0.1584 -0.2920
79255W        W22246   8.872  14.994  26.107  0.0891 -0.0809  0.1495
79256W        W22247   3.486  32.253  20.847  0.2826  0.0682 -0.0488
79257W        W22248  26.507  22.083  21.868 -0.0116  0.1408 -0.1846
79258W        W22249   8.209  20.331  24.822  0.1595  0.0374  0.0688
79259W        W22250   0.712  22.717   5.956  0.0483  0.1977 -0.3381
79260W        W22251  25.841  14.377   1.339 -0.0374 -0.0280  0.2920
79261W        W22252  16.826  25.247  17.304 -0.2654  0.2960 -0.0813
79262W        W22253  10.443   4.600   4.431  0.1701  0.3716 -0.0336
79263W        W22254   8.761   9.258  26.406 -0.0038  0.0943  0.1162
79264W        W22255  25.923  14.818   1.649  0.0388  0.3026  0.0178
79265W        W22256   0.861  23.143   9.718  0.2267 -0.0402 -0.0580
79266W        W22257  28.752  14.642   7.127 -0.0470  0.0802 -0.1724
79267W        W22258  32.575  32.301  14.742  0.0071  0.0971  0.2892
79268W        W22259  12.750  25.125   4.520 -0.0521 -0.0690  0.1410
79269W        W22260  11.230   8.518  19.723  0.0977  0.0399 -0.0272
79270W        W22261   9.620  23.226  16.016  0.0409  0.2645 -0.0545
79271W        W22262  12.001  34.069   5.942  0.3359  0.3078 -0.1083
79272W        W22263  15.796   9.305  28.510 -0.1767  0.2644 -0.3059
79273W        W22264  10.928   6.401   1.923 -0.0221 -0.1100  0.0137
79274W        W22265  10.723  16.327  28.530  0.1147 -0.3193 -0.1910
79275W        W22266  13.388   6.127  20.469 -0.1626 -0.1498 -0.0489
79276W        W22267  30.870  23.650   0.469 -0.2776 -0.0484  0.1285
79277W        W22268  19.038   3.971   2.700 -0.2711  0.1677 -0.1588
79278W        W22269   2.303  12.905  22.397  0.0742 -0.0479  0.0713
79279W        W22270   4.860  13.990  11.095 -0.2054 -0.0030 -0.1501
79280W        W22271  19.727   8.447   7.564  0.3161 -0.0467  0.1208
79281W        W22272  14.767   0.842  10.538  0.0083 -0.0787 -0.2557
79282W        W22273  13.845  14.769   4.997 -0.0716 -0.4964 -0.1842
79283W        W22274  11.773  30.052   3.713 -0.0304 -0.0846  0.0757
79284W        W22275  13.603  33.600   2.343 -0.2611 -0.3734  0.0884
79285W        W22276  11.940   8.442   8.373 -0.0474 -0.4479 -0.0449
79286W        W22277  16.943   5.812   8.721 -0.2987 -0.0016  0.0906
79287W        W22278  12.926  14.767  25.152  0.1352 -0.1593  0.0311
79288W        W22279  27.373  15.515   7.823  0.1151  0.2398 -0.4122
79289W        W22280   7.629  17.078   6.578  0.2297 -0.2599  0.0308
79290W        W22281  19.354  12.509   0.643 -0.0548 -0.0298  0.1754
79291W        W22282   8.680   4.385   8.535 -0.1393  0.0899  0.0902
79292W        W22283   3.815  11.136  10.690 -0.0235 -0.1941  0.0905
79293W        W22284  12.474  32.191   2.506  0.0585  0.1374  0.0397
79294W        W22285  25.188   6.724  28.646 -0.2190 -0.1587  0.0974
79295W        W22286  10.272   7.791   9.430  0.0684  0.1892  0.0234
79296W        W22287   9.530  11.791   6.239 -0.0058 -0.1887 -0.2433
79297W        W22288  21.309   9.558  17.087  0.1348 -0.2781 -0.1550
79298W        W22289   9.079  34.574   8.297  0.1311  0.3948  0.0287
79299W        W22290  14.189  10.817   7.311 -0.1058  0.2759 -0.0609
79300W        W22291  10.075  16.223   3.383  0.0957  0.2731  0.1755
79301W        W22292  23.187   3.852  23.488  0.0089  0.1662 -0.2153
79302W        W22293  17.980  23.727   4.868  0.5268  0.4653 -0.1324
79303W        W22294  27.727   8.829  23.183  0.1661 -0.0118  0.0991
79304W        W22295  13.338  13.661   9.773  0.2565 -0.0098 -0.1433
79305W        W22296   8.369  19.391   8.845  0.0295  0.0961 -0.1773
79306W        W22297  30.121  18.869  14.322  0.2807 -0.0159 -0.2276
79307W        W22298  13.437   7.315   0.228  0.1055  0.1103  0.1488
79308W        W22299   3.361  16.734   9.189 -0.3849  0.0072  0.0561
79309W        W22300  13.287   7.179   2.068  0.0729  0.2833  0.1618
79310W        W22301   0.082  15.669   1.239  0.1431  0.2022 -0.0479
79311W        W22302  18.120  31.146   6.908  0.2250  0.0162  0.0321
79312W        W22303  17.338  21.957  25.575 -0.0268  0.3395 -0.0584
79313W        W22304   0.077  21.303   4.462  0.0511  0.1871  0.2824
79314W        W22305  11.349  31.335  24.925 -0.0228 -0.0314  0.2827
79315W        W22306  14.791  26.086   7.566  0.1163 -0.1473 -0.2015
79316W        W22307   9.499   7.839  25.997  0.0277  0.0967 -0.0127
79317W        W22308  32.901  16.838   6.315  0.0540 -0.0747  0.1106
79318W        W22309  20.393  34.060   9.007 -0.3442  0.0728  0.0307
79319W        W22310  15.514   7.329   8.059  0.2989 -0.0923 -0.1580
79320W        W22311   8.417   2.977   2.624  0.1142  0.1418  0.1641
79321W        W22312  30.092  16.339  10.038  0.4557 -0.5104 -0.1294
79322W        W22313  26.672  14.438  10.232 -0.1198 -0.1364 -0.3381
79323W        W22314   5.011  15.022  24.178  0.4036 -0.1277  0.2279
79324W        W22315  17.149  28.351   6.847  0.1674 -0.1123 -0.0949
79325W        W22316  10.852  11.647   1.459  0.1885 -0.2395  0.2746
79326W        W22317   7.368   2.478  26.098  0.1714  0.4123 -0.1156
79327W        W22318  14.226   8.816   8.729  0.2998  0.1419 -0.0561
79328W        W22319  29.671  15.071   9.290  0.3265 -0.1815  0.2056
79329W        W22320  24.828   1.274  25.320 -0.3933 -0.0907  0.0365
79330W        W22321  16.965   8.123  20.883 -0.1712  0.1233  0.0078
79331W        W22322  12.908   6.450   7.877  0.1874  0.1154 -0.3214
79332W        W22323  16.677  11.366  21.447 -0.1570 -0.0406  0.0306
79333W        W22324   3.408  20.627  19.571 -0.2167 -0.0349  0.1353
79334W        W22325  17.163  30.714   0.698 -0.1810  0.4866  0.2430
79335W        W22326   4.723  12.286   3.523  0.1016 -0.0622  0.4462
79336W        W22327  23.386  13.534   8.330 -0.0593  0.0597 -0.1904
79337W        W22328   9.108  17.438   2.013 -0.0123 -0.1420  0.3083
79338W        W22329   4.734  15.439   7.997  0.1038 -0.0421  0.3735
79339W        W22330  16.153   8.850   7.699  0.2318  0.0151  0.1350
79340W        W22331  20.381  23.237   3.353  0.1416  0.2338 -0.1367
79341W        W22332  16.080  20.976  24.194 -0.1049  0.2945 -0.3788
79342W        W22333  12.535  31.213  26.978 -0.0045 -0.0148  0.1922
79343W        W22334   5.493   5.306   4.058 -0.1623  0.4390  0.1556
79344W        W22335   1.552  19.069   1.983  0.0385 -0.2523 -0.0822
79345W        W22336  31.846  32.285   5.936 -0.3041 -0.0860  0.2081
79346W        W22337   2.820   1.483   0.257  0.0034  0.0677 -0.1055
79347W        W22338   7.965   5.283   6.005  0.2234  0.2419 -0.1652
79348W        W22339  22.760  10.773  19.154 -0.1225  0.2291 -0.1322
79349W        W22340  23.170   8.511  16.279  0.1362  0.0845  0.0343
79350W        W22341  14.011   9.355  20.014 -0.2241  0.1397 -0.1839
79351W        W22342  11.053  10.380  20.592  0.0675 -0.1978  0.2641
79352W        W22343   8.459  25.039   7.475 -0.1110  0.1984  0.0013
79353W        W22344  25.343  19.626   1.998 -0.0923 -0.2271  0.1153
79354W        W22345   4.987   1.130  24.777 -0.1436 -0.1169  0.2350
79355W        W22346   7.776  12.137   6.462  0.0647 -0.1452  0.0148
79356W        W22347   0.469   0.617   6.021  0.3582  0.2350  0.3263
79357W        W22348   8.195  12.461   9.061  0.2280 -0.0723 -0.2088
79358W        W22349  15.775   9.771   6.030 -0.1062  0.1832 -0.4872
79359W        W22350  10.030   1.508   7.238 -0.0682 -0.0956  0.0840
79360W        W22351  21.098  12.944  19.282 -0.0207  0.3950 -0.0417
79361W        W22352  11.910  25.957  28.020  0.1467 -0.0702 -0.2048
79362W        W22353  14.182  31.206   8.667 -0.2748  0.1622 -0.3171
79363W        W22354   5.225  30.558   3.375  0.4036 -0.1314 -0.2113
79364W        W22355  10.477  29.122  22.971  0.2779 -0.0105  0.0237
79365W        W22356  29.825  16.432   8.249  0.2824  0.1216  0.4952
79366W        W22357   0.599  16.826  10.020 -0.1381  0.1046 -0.1336
79367W        W22358  19.484  28.923   5.345  0.0919  0.2816  0.1384
79368W        W22359   0.747  23.617   6.667  0.1316 -0.2912  0.0237
79369W        W22360   6.403   6.765   8.180 -0.1916  0.1647 -0.0664
79370W        W22361  28.135  12.974  17.452 -0.2196  0.2888  0.1415
79371W        W22362  16.822  12.606  19.062 -0.0740 -0.2236  0.0251
79372W        W22363  23.093   4.661   0.556 -0.1639  0.4849  0.1775
79373W        W22364  28.629   4.103  14.359 -0.0483 -0.1438  0.2023
79374W        W22365  15.834  18.645  26.461 -0.0409 -0.3122 -0.3366
79375W        W22366   9.274  21.561  28.517  0.1473 -0.0896 -0.1279
79376W        W22367   0.793   7.189   7.439  0.0559  0.0873  0.0711
79377W        W22368  12.641  10.368   7.571 -0.4421 -0.2096 -0.0891
79378W        W22369   4.244  11.357   1.715 -0.1043 -0.0056  0.2851
79379W        W22370  15.316   8.548  21.857  0.1267 -0.0776  0.2089
79380W        W22371   2.093  33.726   8.013  0.1735  0.3639  0.2206
79381W        W22372   2.877  13.266   9.195  0.1460  0.2071 -0.0422
79382W        W22373   9.877  12.587   7.628 -0.1776  0.1907  0.0861
79383W        W22374  21.594  11.928   9.540  0.1787 -0.0381  0.2060
79384W        W22375  26.538  20.404   9.148  0.1736  0.1439  0.1950
79385W        W22376   2.595  29.582   3.223  0.1989 -0.0297  0.0586
79386W        W22377  17.341  30.602  28.330  0.1226  0.0491 -0.1763
79387W        W22378   1.762  30.160   3.000  0.2886  0.0802  0.1602
79388W        W22379   9.392   3.428   1.399 -0.2541 -0.2583 -0.1529
79389W        W22380  14.535   5.346   7.672  0.2633 -0.1152 -0.0008
79390W        W22381   1.580  11.952   9.256 -0.0088 -0.0279  0.2076
79391W        W22382  11.671   2.452  27.647  0.0915  0.1739 -0.1610
79392W        W22383  33.082  10.694   3.126 -0.1123 -0.2651  0.0542
79393W        W22384   5.394  18.225  26.780  0.0558  0.0433  0.0632
79394W        W22385  23.074   7.025   9.147 -0.0287  0.1205 -0.0831
79395W        W22386  16.612   7.572   1.278 -0.1825 -0.1851  0.2507
79396W        W22387  13.502  12.227  24.315  0.3380  0.0513  0.0054
79397W        W22388  20.246  17.063  27.165 -0.1227 -0.3017  0.2386
79398W        W22389   6.161  28.363   2.930 -0.0863  0.2030  0.1514
79399W        W22390  24.752  23.685  21.466 -0.1580 -0.1955 -0.1058
79400W        W22391   9.776  13.377  11.236 -0.1206 -0.1742 -0.4648
79401W        W22392   5.475   7.030   6.985 -0.1290  0.1573  0.2149
79402W        W22393  30.995   4.899   4.521  0.1287  0.0555  0.0809
79403W        W22394   0.967   1.470   7.226 -0.3375 -0.1133  0.2705
79404W        W22395  11.332  11.597  20.966 -0.1185  0.2638  0.0420
79405W        W22396  20.924  13.167   6.593  0.1273  0.5628  0.0225
79406W        W22397  15.817  12.734  28.276 -0.1246  0.1414 -0.0747
79407W        W22398   8.584  17.986   2.486  0.0738 -0.1456  0.1762
79408W        W22399  16.499   9.580   7.420 -0.0046 -0.0312 -0.0516
79409W        W22400  30.050  11.312   5.676  0.1995  0.0634 -0.4215
79410W        W22401  19.405   7.286   6.915 -0.3782 -0.1775  0.2687
79411W        W22402  11.920  24.910   4.504  0.2626  0.2443 -0.1288
79412W        W22403   4.816   6.139  10.611 -0.4408  0.0597  0.0133
79413W        W22404  11.851   1.219   6.033  0.1719  0.0165 -0.0362
79414W        W22405   3.017   7.644   8.660 -0.0432 -0.0820 -0.2938
79415W        W22406   5.416  11.253   7.573  0.1523  0.1216  0.1231
79416W        W22407  17.607  12.451   3.225 -0.2157  0.1131 -0.0472
79417W        W22408   7.970  26.982   2.813  0.0294  0.1631 -0.4079
79418W        W22409  25.870   4.354   8.860 -0.0295 -0.0894 -0.3457
79419W        W22410  13.501   2.650  23.903 -0.0733 -0.3674  0.0539
79420W        W22411   5.531   8.821   7.013  0.1134 -0.0615 -0.1635
79421W        W22412   7.898  14.032   4.245 -0.0092  0.0465 -0.1078
79422W        W22413  11.978  14.688  25.383 -0.0342 -0.1528  0.0272
79423W        W22414  16.382   9.639  24.429  0.0458 -0.0628 -0.1110
79424W        W22415  26.520  14.780   2.925 -0.0724 -0.1088 -0.1144
79425W        W22416  16.184   8.124   6.586 -0.0954 -0.1032 -0.1147
79426W        W22417  15.565  16.966   8.510 -0.1283 -0.0716 -0.1819
79427W        W22418   9.168   6.874   7.908  0.0321 -0.0269 -0.1014
79428W        W22419  13.295  24.641   2.650  0.0891 -0.1854  0.1006
79429W        W22420  12.219  16.087   5.653  0.1579  0.0431  0.0732
79430W        W22421  32.415  33.712   3.851 -0.0348 -0.2695  0.0828
79431W        W22422   2.559  14.537   8.755 -0.1779  0.0778 -0.1661
79432W        W22423  15.761   0.496   9.504  0.1835  0.0043  0.1234
79433W        W22424   8.120   6.676   6.831  0.0827  0.0592 -0.0004
79434W        W22425  11.146   7.347   4.475 -0.2664 -0.3281 -0.2168
79435W        W22426  20.465  17.135   4.464 -0.0507  0.1450  0.1163
79436W        W22427   7.718   9.610  20.904 -0.0996  0.0532 -0.0481
79437W        W22428  24.037   3.943   7.167 -0.1299  0.1135 -0.2663
79438W        W22429  28.232  30.698   7.935 -0.3785  0.1144  0.1975
79439W        W22430  19.179   7.286   9.008 -0.0327  0.0267  0.0952
79440W        W22431   2.558  11.961  18.644 -0.1013  0.0101 -0.1619
79441W        W22432  12.893  10.340  19.159 -0.0051 -0.1786  0.0383
79442W        W22433  22.966  15.100   2.267 -0.0315  0.0236 -0.0377
79443W        W22434   1.914   2.389   6.811 -0.1627 -0.1756 -0.0834
79444W        W22435   3.543   8.758  22.640  0.3264  0.2228  0.0541
79445W        W22436  26.529  15.396   3.967  0.0556 -0.1324  0.0122
79446W        W22437   6.469  15.716   3.411  0.0828 -0.0233 -0.0821
79447W        W22438  26.858  10.629   7.655 -0.1659 -0.0601 -0.2145
79448W        W22439   1.079  28.794  24.883  0.1149 -0.1069  0.1096
79449W        W22440  13.752   6.139  24.545 -0.0525 -0.1359 -0.0686
79450W        W22441   0.635   5.438   3.069  0.2087  0.0559  0.1740
79451W        W22442   2.807   6.564   3.888  0.0489  0.2082 -0.0450
79452W        W22443   0.823  17.909   7.126 -0.0139 -0.1611 -0.0460
79453W        W22444  21.414  14.341   7.891  0.0232 -0.0872 -0.2133
79454W        W22445   8.825  12.009  10.415  0.0251 -0.0174 -0.1265
79455W        W22446  29.242   4.631   9.480 -0.1713 -0.0791  0.0504
79456W        W22447  11.025  28.452   3.961  0.0715 -0.2423 -0.2819
79457W        W22448  15.265  12.373   6.150 -0.0426 -0.3984  0.0424
79458W        W22449  31.311  29.429   5.630 -0.2605  0.1012 -0.0983
79459W        W22450  23.897  11.458   7.876  0.0052  0.1978 -0.2348
79460W        W22451  13.385  20.838  23.242 -0.1094  0.2005 -0.0234
79461W        W22452  34.484  24.549   1.552  0.0875  0.1326  0.0169
79462W        W22453  15.443  11.403  25.320 -0.0165  0.1570 -0.4027
79463W        W22454   4.385  23.525   3.004  0.3680  0.1175 -0.0683
79464W        W22455  15.160  16.789   7.847  0.0545 -0.0691 -0.1359
79465W        W22456  26.568  19.764   9.009  0.1882 -0.0670 -0.0425
79466W        W22457  12.205  10.278   1.552  0.0172 -0.1803 -0.1207
79467W        W22458   6.290  16.190   6.908 -0.1241 -0.0640 -0.1244
79468W        W22459   6.613   1.951   3.898 -0.0024 -0.1167  0.2258
79469W        W22460   8.183   9.477   5.685 -0.2590 -0.0543 -0.0170
79470W        W22461  29.172   4.138   0.127  0.1485 -0.1160 -0.2295
79471W        W22462   7.186   9.446  23.516  0.3027 -0.0263 -0.1712
79472W        W22463   8.499  12.409  22.451  0.2229  0.1656  0.1291
79473W        W22464  14.053  27.602  15.447  0.0801  0.1945 -0.1599
79474W        W22465   0.300  13.859   2.872  0.0360  0.1030 -0.1746
79475W        W22466  11.607   9.789  10.055 -0.1786 -0.0282 -0.0816
79476W        W22467  26.961  12.209   4.174 -0.5784 -0.0465  0.3084
79477W        W22468  20.480  34.580  24.615  0.2175 -0.0051 -0.1075
79478W        W22469  20.728  27.970   2.716 -0.2604  0.1998 -0.0533
79479W        W22470  12.891  28.705   3.012 -0.4651  0.2714  0.1500
79480W        W22471   0.416  15.655   8.833 -0.2536  0.1278  0.1716
79481W        W22472   4.668   5.515   3.985 -0.0010 -0.2246 -0.0991
79482W        W22473   0.460  13.231   5.836 -0.0475  0.0643  0.2019
79483W        W22474  14.212   7.230  20.634 -0.1111 -0.3765 -0.2034
79484W        W22475  28.232  16.188   4.657 -0.1345  0.3329  0.4639
79485W        W22476   6.672   6.500   3.401 -0.0265  0.0394  0.0180
79486W        W22477   8.934   5.201  27.833  0.0338  0.1682 -0.5606
79487W        W22478  10.430   4.958   2.986  0.0688 -0.0180  0.0986
79488W        W22479   5.085  18.454   0.858 -0.0595  0.0532  0.4109
79489W        W22480  15.933   6.846  24.924 -0.0874 -0.2153 -0.3489
79490W        W22481  21.691   9.343  25.403  0.0338 -0.2240 -0.0020
79491W        W22482  15.460  28.594   3.568  0.1194  0.1121 -0.1561
79492W        W22483  32.011   5.973   1.466  0.0764 -0.1328  0.0270
79493W        W22484  25.416  12.022   8.402 -0.0081 -0.0587  0.0418
79494W        W22485   0.862   8.708   8.671 -0.0517 -0.1901 -0.1227
79495W        W22486   8.640   7.321   0.835 -0.1300 -0.0083  0.1357
79496W        W22487  14.363  33.964   1.883  0.2379 -0.1292  0.0090
79497W        W22488  34.001   3.367   5.848  0.2819  0.1488  0.0483
79498W        W22489  34.612  17.905   5.986  0.1208  0.0563 -0.1101
79499W        W22490  27.214   2.878   4.301  0.0756 -0.0005  0.3285
79500W        W22491  27.998   5.294  28.551 -0.1702  0.1469  0.0968
79501W        W22492   3.025  33.682  25.224  0.1553 -0.0075 -0.1917
79502W        W22493  12.384  33.960  18.601 -0.0455 -0.0810  0.3001
79503W        W22494  16.679  12.664  26.773 -0.1993 -0.0157  0.0841
79504W        W22495  20.714  30.747   8.637  0.1507  0.1536 -0.0400
79505W        W22496   5.157   8.409  23.786 -0.0017  0.1746 -0.5432
79506W        W22497  16.783  13.682   7.174 -0.3410 -0.2782  0.1271
79507W        W22498  21.955   3.668   7.745  0.1449 -0.3435 -0.1016
79508W        W22499  10.586  10.235  27.248  0.0960 -0.3580  0.0439
79509W        W22500  14.773   5.306   4.731 -0.1144 -0.1536  0.0472
79510W        W22501  33.024  22.632   3.812  0.1042  0.1078  0.0011
79511W        W22502  10.942  13.648  20.506 -0.2175 -0.0584  0.1921
79512W        W22503   8.770   6.769   2.716  0.1843 -0.2481  0.1161
79513W        W22504  13.031  26.948  26.071  0.0199 -0.0993  0.0245
79514W        W22505  26.465   2.639   6.318  0.1763  0.0890  0.0072
79515W        W22506   7.205   1.603  10.388  0.3640  0.2678 -0.1906
79516W        W22507  32.548   5.491  27.950 -0.0322  0.0619 -0.0015
79517W        W22508  33.831  32.092   1.496 -0.1275 -0.1121  0.2081
79518W        W22509   2.979  14.660   6.359 -0.2042 -0.2648 -0.4099
79519W        W22510  14.162   0.820  18.839  0.0119 -0.2494  0.2443
79520W        W22511  12.086   4.788   2.529  0.1092 -0.2076  0.2908
79521W        W22512   1.609   8.004   2.671  0.0389 -0.0491  0.2988
79522W        W22513  34.392   1.917   6.118  0.0723  0.0161  0.0158
79523W        W22514  12.975   5.050  28.337 -0.0190 -0.0024  0.0310
79524W        W22515  13.065   3.984  24.831  0.1096  0.0061  0.0656
79525W        W22516  17.097  26.774   8.810 -0.1099 -0.3330  0.2333
79526W        W22517  30.312  28.838   6.993  0.0500  0.1130 -0.3045
79527W        W22518  12.116  31.480  27.175 -0.1360  0.1200  0.1630
79528W        W22519   2.369  17.691   4.698 -0.0558 -0.2392  0.0790
79529W        W22520   9.191  22.417   3.140  0.1302  0.2635  0.2513
79530W        W22521  14.514  33.488   6.799  0.1749  0.0682  0.1967
79531W        W22522  11.166  29.902   6.130  0.0890 -0.1017 -0.0305
79532W        W22523  16.913  16.085   1.941  0.0557 -0.0012  0.0656
79533W        W22524  14.611  10.057   6.177 -0.1195  0.0253  0.2328
79534W        W22525  23.073   0.987   8.639  0.0054  0.2458  0.0963
79535W        W22526   6.853   9.128  10.844  0.0488  0.2327 -0.4160
79536W        W22527   9.464   3.898  25.942 -0.2405  0.1580  0.0685
79537W        W22528  15.263  17.296  26.429 -0.0676 -0.0429 -0.0110
79538W        W22529  16.512  19.861  28.944  0.0385 -0.1895  0.3274
79539W        W22530  19.031  13.917   3.922  0.0142 -0.2291  0.0058
79540W        W22531   1.156  30.359  28.698  0.2021 -0.3590  0.5300
79541W        W22532  18.748   8.972  25.778  0.0151 -0.0079 -0.2316
79542W        W22533  22.651  21.622   0.098  0.1146 -0.2151 -0.4336
79543W        W22534  23.378  13.024   8.045  0.0771  0.1272  0.0504
79544W        W22535  33.734  11.480  25.069 -0.1776 -0.3466 -0.1256
79545W        W22536  27.213   9.856   0.464 -0.2670  0.0870 -0.2201
79546W        W22537   4.449  15.703   8.806  0.2627 -0.1166 -0.2660
79547W        W22538  13.632   1.789   3.978  0.3282  0.1498  0.3249
79548W        W22539  15.559   9.899  26.279 -0.2002 -0.2764  0.0590
79549W        W22540  16.364   2.265   2.964 -0.1849 -0.0004  0.1227
79550W        W22541   7.870   3.473   9.823  0.1157  0.0144 -0.1004
79551W        W22542   3.140   4.118  11.280  0.0536 -0.2492 -0.2281
79552W        W22543  19.919   6.272  17.681  0.1691  0.1592  0.0799
79553W        W22544   6.631   9.947   3.328 -0.0996 -0.1264 -0.1530
79554W        W22545  17.793   8.065   9.715 -0.0415  0.0111 -0.1215
79555W        W22546  12.212  22.130   8.658 -0.0579  0.0688 -0.2855
79556W        W22547   7.325  18.761  17.985  0.1622  0.2604  0.2325
79557W        W22548   8.187   8.025   8.744  0.1628 -0.3283  0.1205
79558W        W22549   0.660  13.315  10.975  0.1227 -0.0463  0.0295
79559W        W22550  23.792  12.231  26.515 -0.3991  0.0210 -0.5118
79560W        W22551   0.911  28.862   8.729  0.1765 -0.0078  0.2472
79561W        W22552   8.780  12.222   5.204  0.1025 -0.2271 -0.0625
79562W        W22553  10.867  14.236   0.991 -0.1704  0.0960  0.0686
79563W        W22554  16.561   8.346   7.000  0.1857 -0.1694 -0.2743
79564W        W22555   3.656  28.988   9.187  0.0952 -0.0221 -0.2237
79565W        W22556  12.883  29.692  28.684 -0.0381 -0.2245  0.2073
79566W        W22557   8.872   1.323   7.883 -0.0564 -0.0083 -0.0741
79567W        W22558  16.551   4.780  25.057  0.0457  0.2629  0.1248
79568W        W22559   2.708  17.074   9.026  0.1021 -0.2469 -0.2698
79569W        W22560   6.779  32.110   2.746 -0.1507  0.2257  0.0558
79570W        W22561  24.597   3.033   8.029  0.1773 -0.0856 -0.0809
79571W        W22562  15.176   7.069   7.689 -0.1554  0.1569 -0.0277
79572W        W22563  23.602  17.787   7.231  0.3660  0.1361  0.0535
79573W        W22564  17.999   4.807  26.376  0.0356 -0.1595 -0.2597
79574W        W22565   9.261   9.711   8.908  0.1384 -0.0468  0.0779
79575W        W22566   4.616  12.757  18.054 -0.0827  0.2264 -0.3078
79576W        W22567  17.036  18.812   7.921  0.1979  0.0987  0.3469
79577W        W22568  33.568  10.341   3.715 -0.0350  0.0824  0.0538
79578W        W22569   4.387  22.281   5.233  0.1899  0.2237  0.0872
79579W        W22570   9.278   8.612   6.854  0.0226 -0.0265  0.1152
79580W        W22571  29.204   1.972   0.640  0.1840  0.0337 -0.2935
79581W        W22572   8.843  14.387   4.100  0.1155  0.2477  0.0799
79582W        W22573   9.705  13.060   0.458 -0.2642 -0.1808  0.1888
79583W        W22574   1.071  16.561   0.393 -0.2073 -0.1364  0.0160
79584W        W22575  23.927  14.220   3.576  0.3271 -0.2055 -0.1612
79585W        W22576  14.698  17.629   5.524 -0.0992 -0.1830 -0.1479
79586W        W22577  28.577  11.102  20.317  0.1572 -0.2108 -0.1837
79587W        W22578   9.362  13.159   6.535  0.0820 -0.2837  0.1866
79588W        W22579   2.862  14.041   6.488 -0.2516 -0.0718  0.1556
79589W        W22580  18.426  17.639  23.638 -0.1062  0.2371 -0.2107
79590W        W22581   2.080  16.219  16.573  0.0793  0.0953  0.1885
79591W        W22582  16.822  14.582   3.025  0.0361 -0.2284 -0.0064
79592W        W22583  13.726  34.195   8.362 -0.3081  0.1024  0.0213
79593W        W22584   1.415   6.015   7.759  0.1055  0.0421 -0.0545
79594W        W22585  20.138   4.544   0.805  0.0474 -0.4375  0.0195
79595W        W22586  17.874  20.864   5.835 -0.2807 -0.1053 -0.2298
79596W        W22587   1.197   3.867   3.823 -0.0296 -0.1218  0.2261
79597W        W22588  22.250  16.075   7.474 -0.0576 -0.3611 -0.0133
79598W        W22589  12.976   5.605   2.698 -0.2972 -0.0930  0.2105
79599W        W22590  31.846  11.112   5.890 -0.3256 -0.0353 -0.0494
79600W        W22591   7.971  32.587  24.058  0.1016  0.1432  0.3159
79601W        W22592  12.729  29.546  24.520 -0.3125 -0.2466  0.0128
79602W        W22593  27.912  20.207   5.796 -0.0694 -0.1660 -0.0807
79603W        W22594  10.368   4.241   4.848  0.0477  0.0698  0.0266
79604W        W22595  19.917   9.372   2.733  0.0612  0.1935 -0.2260
79605W        W22596  11.108   7.068   9.589  0.6328 -0.1066  0.0264
79606W        W22597  11.877  16.638  15.351 -0.1050 -0.2289 -0.1190
79607W        W22598   3.386   2.630   5.466  0.1936 -0.2657  0.1605
79608W        W22599   9.582  32.264  26.334  0.0237 -0.0416 -0.2388
79609W        W22600   1.879  26.116   6.063  0.2444 -0.1498 -0.1349
79610W        W22601   6.643   3.521   9.499  0.1757 -0.0690  0.0673
79611W        W22602  10.909  12.040  24.448  0.0312  0.0224  0.0200
79612W        W22603   1.469  23.629  25.773 -0.1535 -0.1966 -0.0821
79613W        W22604   3.765  11.724   9.434 -0.2436 -0.0401  0.0511
79614W        W22605  16.126  11.035  22.032  0.0427  0.2088  0.0649
79615W        W22606   3.147   3.884   3.874 -0.1123 -0.0236  0.1002
79616W        W22607  26.333   4.151   8.531 -0.0490  0.0083  0.0421
79617W        W22608   3.397  12.244   4.941  0.0280  0.0187  0.1971
79618W        W22609  31.097  19.432  25.035 -0.1275 -0.0213  0.2507
79619W        W22610  12.307   3.804  23.083  0.2063  0.1585 -0.0965
79620W        W22611   4.315  29.088  26.682 -0.0143 -0.2030 -0.0804
79621W        W22612   6.303   7.422   8.956 -0.2151 -0.0435 -0.1383
79622W        W22613   8.623  17.207   6.694 -0.0599 -0.1133 -0.1838
79623W        W22614   8.554  25.663   5.387 -0.0060 -0.2752  0.1195
79624W        W22615  18.307   0.352   3.365 -0.1914 -0.0294 -0.2901
79625W        W22616   0.282  11.097   8.305  0.1994 -0.2952  0.2811
79626W        W22617   8.055   7.509   0.709 -0.2406 -0.1674 -0.0446
79627W        W22618  18.090   6.285  26.233  0.1102  0.2017 -0.2303
79628W        W22619  12.922  21.970  25.005  0.2523 -0.2546  0.3369
79629W        W22620  18.068   5.344   8.343 -0.1224  0.0312  0.0152
79630W        W22621   5.562   7.326   4.668 -0.3271 -0.0314  0.0766
79631W        W22622   9.256   6.076   1.169 -0.0909  0.1309  0.2067
79632W        W22623  13.535   5.832   4.803 -0.3272  0.0404 -0.1283
79633W        W22624  20.801  26.722   8.438 -0.1443 -0.1605 -0.2149
79634W        W22625  29.550   9.088  27.521 -0.1860 -0.4149 -0.0600
79635W        W22626  29.583   4.930   3.341 -0.1785  0.0641  0.0020
79636W        W22627  33.469   3.112   9.846  0.0681 -0.3007  0.0533
79637W        W22628  25.665   7.052   6.883 -0.0309  0.2512  0.0758
79638W        W22629   8.549  31.132   7.456 -0.0811  0.0256  0.0784
79639W        W22630  26.172  17.417   5.898  0.1867  0.0936  0.1488
79640W        W22631   1.070  32.735   8.144 -0.0642 -0.1516  0.0958
79641W        W22632  31.283  16.408   9.408 -0.0562  0.1897  0.1188
79642W        W22633  21.000   6.637   4.052  0.1653 -0.2052 -0.1146
79643W        W22634   3.135  11.149   5.461 -0.1480  0.2651  0.0341
79644W        W22635  32.093  10.030   6.248  0.0337  0.0947 -0.1667
79645W        W22636  22.105  15.310   4.893  0.2916  0.0884  0.1508
79646W        W22637   7.142   9.803   3.079  0.0869 -0.2110 -0.2376
79647W        W22638   5.584   2.407   6.762  0.3368 -0.0309 -0.2121
79648W        W22639  24.250  34.114   7.849  0.1188 -0.2977  0.0339
79649W        W22640  10.219   0.971  16.042  0.2062  0.0694  0.0179
79650W        W22641  13.574   4.863   0.673 -0.0381 -0.3370 -0.1048
79651W        W22642   4.524   6.393  28.584  0.2190 -0.0642  0.2623
79652W        W22643  32.390   8.286   5.619 -0.2504  0.3209  0.0108
79653W        W22644  33.762   9.418  29.008 -0.0052 -0.1264 -0.0720
79654W        W22645   8.001   7.957  27.083  0.1789 -0.3223 -0.4155
79655W        W22646  17.490  17.257  23.544 -0.2361 -0.1661 -0.2742
79656W        W22647   5.672  30.221   6.113 -0.1689 -0.0874 -0.2189
79657W        W22648  23.295  14.290   4.407  0.1612  0.2964  0.0627
79658W        W22649  11.502   8.214  10.179  0.2067  0.1608  0.1004
79659W        W22650  18.099   7.950  21.043  0.1205  0.0757  0.0336
79660W        W22651  10.272  24.846   2.384  0.1634  0.2409 -0.0234
79661W        W22652  11.695   9.090  10.403  0.0881  0.2922 -0.0214
79662W        W22653  11.970  24.203   3.040  0.2480  0.0188 -0.1759
79663W        W22654   4.534   0.873  24.163  0.2329 -0.0850  0.2075
79664W        W22655   5.915  11.526  26.153 -0.0819 -0.0421  0.1997
79665W        W22656   3.073  14.224  18.775 -0.2067 -0.1494  0.1178
79666W        W22657  11.465   0.186   5.045 -0.0261  0.1856 -0.0317
79667W        W22658  24.424  17.967   6.593  0.0180  0.1939  0.1977
79668W        W22659  10.723   9.817   8.570 -0.2456 -0.1896 -0.1707
79669W        W22660   6.304  12.304  26.585  0.1020  0.2942  0.4809
79670W        W22661   9.279   7.635  10.346 -0.0992  0.2180  0.0942
79671W        W22662  33.889  11.661  19.069  0.1226  0.0626 -0.1499
79672W        W22663  17.643  22.286   8.809 -0.1249  0.2808 -0.2278
79673W        W22664  13.063  19.353  20.702 -0.2564  0.0580 -0.1078
79674W        W22665   8.194   3.150  18.771 -0.5183 -0.2702 -0.1584
79675W        W22666   9.198  18.251   6.962  0.0339  0.2071  0.0743
79676W        W22667   1.871   6.985  19.868  0.1774  0.1320  0.2293
79677W        W22668   8.865  18.961   6.740 -0.1803 -0.0937  0.1633
79678W        W22669  19.830   6.116   9.038  0.1988  0.2017  0.2984
79679W        W22670  19.778  13.376   2.448 -0.0612  0.2108  0.0979
79680W        W22671  17.421   9.047  23.762  0.0281  0.3591 -0.1506
79681W        W22672  13.587  11.488   4.270  0.0522 -0.2798 -0.0716
79682W        W22673   7.480  33.699  28.238 -0.1825 -0.2106 -0.1088
79683W        W22674  34.445   4.209   4.171 -0.1547  0.3238  0.0430
79684W        W22675  11.642  14.761   0.408 -0.0478 -0.1247  0.0416
79685W        W22676   1.877  20.856  27.019  0.2895  0.0269 -0.1288
79686W        W22677  10.760  14.013   8.183  0.1356  0.1082  0.1797
79687W        W22678  30.160  11.130  22.767 -0.1007  0.0908  0.0569
79688W        W22679   2.809  14.982   0.209  0.3439 -0.3683  0.2704
79689W        W22680  14.947  33.851  20.087  0.2279  0.2773  0.2015
79690W        W22681  11.358   6.184  11.392  0.2471 -0.0131  0.1636
79691W        W22682  11.425  27.893   7.406 -0.1739  0.0759  0.0421
79692W        W22683   6.208   1.293  10.413 -0.0806  0.1999  0.0127
79693W        W22684  13.858  33.226   6.090 -0.0299 -0.2238  0.4340
79694W        W22685  23.353   7.777   7.104 -0.1365  0.0051  0.1012
79695W        W22686  33.184   7.252   8.848 -0.0048 -0.0888 -0.0455
79696W        W22687   6.535   9.676  22.746  0.2152 -0.0674  0.1972
79697W        W22688   7.568  22.967   7.846  0.0751  0.1498  0.1601
79698W        W22689  34.245   4.548  25.583  0.3803 -0.0778 -0.2354
79699W        W22690   7.743   6.549   2.511 -0.4368 -0.2826 -0.4432
79700W        W22691   5.199  22.190   2.520  0.2825  0.4137 -0.3721
79701W        W22692  18.999  12.823  20.341 -0.2416  0.1878  0.1918
79702W        W22693  30.058  33.521  29.255  0.1169  0.0010 -0.0825
79703W        W22694   6.565   7.290   6.420 -0.2706 -0.0005  0.1255
79704W        W22695  15.701  31.541   6.396  0.0514  0.0453  0.2556
79705W        W22696  20.460  13.793   1.304  0.0527  0.0218  0.2987
79706W        W22697   3.672  12.696  11.126  0.0162 -0.2030  0.2264
79707W        W22698  17.431  12.712   5.800  0.2002 -0.2039  0.0410
79708W        W22699  20.479  14.458   2.233  0.1151  0.1089 -0.1466
79709W        W22700  25.415  13.528   9.848  0.0834  0.1805 -0.0785
79710W        W22701  10.769  22.248   2.874 -0.1628 -0.2452 -0.2105
79711W        W22702  15.652  28.998   8.929  0.0473  0.1085 -0.2191
79712W        W22703  25.588  15.299  21.739  0.2831  0.3020 -0.1454
79713W        W22704   1.126  30.410   5.029 -0.2227 -0.0386 -0.1153
79714W        W22705  14.644   0.407   1.850 -0.2539  0.0223  0.0607
79715W        W22706   7.391   2.910   2.403  0.0818  0.1789 -0.3298
79716W        W22707  24.529  26.477   8.816  0.2015 -0.2629  0.2329
79717W        W22708   2.815  12.788  10.993  0.2049 -0.2516 -0.0338
79718W        W22709  12.342  28.038  17.448  0.2757 -0.0187  0.3073
79719W        W22710   5.312   8.628  10.085  0.0652  0.2792  0.0468
79720W        W22711  14.863   2.449   5.882  0.1061 -0.2160  0.2890
79721W        W22712  12.459   6.261   7.779  0.1136 -0.2884 -0.0638
79722W        W22713  14.733  13.804   8.202 -0.0764 -0.0577  0.2867
79723W        W22714   8.807  33.759   6.902  0.0629  0.3258 -0.3674
79724W        W22715   7.272  19.936   8.355  0.2960 -0.2049 -0.1171
79725W        W22716  12.175  21.510  29.137  0.2360 -0.3941 -0.0529
79726W        W22717   2.583  27.344  26.190 -0.0462  0.0527 -0.1464
79727W        W22718   8.960  33.737   9.533  0.0230  0.1131 -0.1524
79728W        W22719   5.743  16.953   5.128 -0.0039 -0.0501  0.2411
79729W        W22720  11.933  27.888   4.060  0.1235 -0.1105  0.0191
79730W        W22721   0.882  19.884  23.854 -0.1882  0.3107 -0.1599
79731W        W22722  16.682  25.572  26.292  0.0547  0.2240  0.0523
79732W        W22723   9.803   1.200   2.884  0.1926 -0.0289 -0.2240
79733W        W22724  16.547  16.796  14.286  0.1751  0.1451  0.1865
79734W        W22725  14.930   0.774   5.862 -0.0645 -0.0991 -0.2906
79735W        W22726  23.412  18.351   3.285  0.0769 -0.2072 -0.0116
79736W        W22727  13.407   2.996   7.217 -0.1082  0.0243  0.2212
79737W        W22728  12.889   3.685   2.513 -0.2113 -0.1323 -0.1879
79738W        W22729  33.049  11.022   7.402 -0.1539 -0.1657  0.2877
79739W        W22730  11.205   9.395  10.631  0.2999  0.1004 -0.3073
79740W        W22731  14.097   0.360  18.640  0.1187  0.2007  0.1400
79741W        W22732  27.139   1.892   1.992 -0.0536  0.0963 -0.1518
79742W        W22733  25.799  13.792   0.664 -0.1466 -0.0476  0.1358
79743W        W22734   9.318   8.095  28.754  0.1174 -0.0307 -0.2207
79744W        W22735  15.524  11.876   9.803 -0.2122  0.0085 -0.0013
79745W        W22736  25.979  24.006  28.695 -0.5423 -0.1915 -0.0725
79746W        W22737   6.904   3.256   9.798  0.1260 -0.1668 -0.1472
79747W        W22738  33.918  14.611  10.130  0.2797  0.3258  0.0189
79748W        W22739   5.246   8.958  16.314 -0.0353  0.1974 -0.0129
79749W        W22740  14.319  32.196   9.469  0.0241  0.1710  0.1130
79750W        W22741   0.774   4.394   1.386 -0.1485  0.0690  0.1309
79751W        W22742   3.843  34.627   3.340 -0.0463 -0.0606  0.0231
79752W        W22743  15.385   6.517   0.392 -0.0488  0.1664 -0.0112
79753W        W22744   7.689  15.976   7.466  0.2913 -0.1768  0.1752
79754W        W22745   6.142  23.640  21.050  0.0454  0.3395 -0.0130
79755W        W22746   7.125  32.123   8.454  0.1174 -0.0193 -0.0011
79756W        W22747   8.194  12.432   5.308  0.0728  0.0355 -0.1721
79757W        W22748   9.846  10.541  11.230 -0.1834  0.0475  0.0273
79758W        W22749   7.602  16.286   8.487  0.1853 -0.4356  0.0421
79759W        W22750  22.442   2.685  28.908  0.0997  0.0606  0.1416
79760W        W22751  16.159   0.502   2.264 -0.0747 -0.0196  0.0710
79761W        W22752  20.778   9.104   7.034 -0.0989  0.2338  0.2072
79762W        W22753  15.224   8.661   9.666  0.0397  0.1200 -0.2039
79763W        W22754  20.382   8.221   3.712 -0.3023  0.0250  0.0744
79764W        W22755   4.673  18.731   8.845 -0.1748 -0.3983  0.1490
79765W        W22756  15.179  16.844   6.507  0.0971 -0.3453 -0.2786
79766W        W22757  11.812   7.003   3.265 -0.1056 -0.0542 -0.2109
79767W        W22758  25.160   4.666   5.562 -0.1437 -0.2973 -0.0396
79768W        W22759  26.319  13.161  24.282 -0.1046 -0.0960  0.2526
79769W        W22760  16.424  16.843   8.470 -0.4784 -0.3867 -0.1080
79770W        W22761  30.737  18.988   1.625  0.1366 -0.2753  0.0577
79771W        W22762   2.027  16.082  10.367 -0.0114 -0.1176 -0.2106
79772W        W22763  10.187  20.747   3.721  0.2099 -0.0548  0.0871
79773W        W22764  16.478  17.087  27.289 -0.1695 -0.4133  0.0097
79774W        W22765  15.511   2.706   9.663  0.0280 -0.0235  0.0413
79775W        W22766  17.869  33.292   3.826 -0.0694 -0.1329 -0.0138
79776W        W22767  16.843  27.369  27.405  0.0925  0.1323 -0.0685
79777W        W22768  18.303  18.529   4.334 -0.3682  0.1123  0.1424
79778W        W22769   6.784  16.339   3.929  0.1774  0.2355 -0.1263
79779W        W22770   2.441  21.477  10.194 -0.1718  0.4017 -0.2874
79780W        W22771   9.947  13.406   2.918  0.0750  0.0775 -0.2606
79781W        W22772   2.833  34.752   8.386  0.1012  0.0642  0.0307
79782W        W22773   8.427  33.669   4.386  0.0911 -0.2447  0.0950
79783W        W22774   5.668   4.766   8.345 -0.0983  0.0716 -0.0481
79784W        W22775   8.724  16.854  26.859  0.0429  0.3512 -0.0597
79785W        W22776  27.822   9.294   4.991 -0.2463 -0.0984 -0.1151
79786W        W22777  29.557  19.457   0.070 -0.1348  0.0715 -0.0285
79787W        W22778   6.913  32.241  28.506  0.1013  0.0961 -0.2138
79788W        W22779   0.560  33.847  24.193 -0.1130  0.2131  0.0843
79789W        W22780   2.766  23.667   9.021  0.0519 -0.1830  0.1361
79790W        W22781  27.983  20.111   4.540  0.2122  0.2112  0.2735
79791W        W22782   8.118  18.294  18.203  0.1203  0.0630  0.0677
79792W        W22783  27.105  20.591   7.191  0.0769 -0.2031  0.2257
79793W        W22784  14.000   9.956   3.076  0.0146  0.2453  0.0376
79794W        W22785   2.570   9.469  10.938  0.0070  0.1417  0.4254
79795W        W22786   3.656  11.319   9.859  0.0559  0.0253 -0.1044
79796W        W22787   3.156  14.600   2.829  0.1436 -0.2133 -0.1639
79797W        W22788   6.824  27.650   2.819 -0.2541  0.1241 -0.1492
79798W        W22789  25.553  10.711   9.697  0.3542 -0.0771  0.3301
79799W        W22790  21.248   5.677   8.453  0.1087 -0.1339 -0.2453
79800W        W22791   9.121   3.440   7.600 -0.1251 -0.1526  0.1987
79801W        W22792  30.075   5.045   4.756 -0.1522 -0.2385  0.2103
79802W        W22793   9.273  33.998   9.056 -0.2829  0.3224  0.2411
79803W        W22794  12.762   9.667  26.431  0.2760 -0.1507  0.0069
79804W        W22795   7.883   8.808   8.470  0.1247 -0.0778  0.2302
79805W        W22796   9.588  25.594  28.784  0.3880 -0.0970  0.0628
79806W        W22797  17.900  17.965   0.539 -0.4012  0.0286  0.0999
79807W        W22798  21.679   9.487   1.243  0.0532 -0.1470 -0.2220
79808W        W22799   7.780   3.886  23.843  0.0061 -0.2596  0.1350
79809W        W22800  10.124  22.101  19.170  0.2002  0.0487  0.0752
79810W        W22801  27.735   4.357  10.398  0.1875 -0.2290  0.3062
79811W        W22802  17.763  25.680  22.761 -0.0345  0.1493  0.0209
79812W        W22803  22.905  18.041  18.974 -0.0516  0.1145  0.0569
79813W        W22804   7.794  12.960  24.821  0.0926 -0.1464 -0.1625
79814W        W22805   6.278  13.522  24.273 -0.1628  0.0663  0.2884
79815W        W22806   8.376   4.316   7.090 -0.0370 -0.1364  0.1472
79816W        W22807   6.541  33.802   5.070  0.2410  0.3730 -0.0087
79817W        W22808  33.814  18.550  28.787 -0.2438  0.2708  0.0264
79818W        W22809  12.939   8.292   7.793  0.3259  0.1403 -0.0652
79819W        W22810   2.515  12.762  11.564 -0.1676 -0.1496  0.5378
79820W        W22811   0.798   3.513   7.638 -0.2849 -0.1066 -0.0582
79821W        W22812  13.784   2.800   4.504 -0.2897  0.0720 -0.0014
79822W        W22813   4.108  25.496   4.699  0.1722 -0.0254  0.1170
79823W        W22814  12.081  10.289   5.613  0.0992  0.0916 -0.1900
79824W        W22815  12.651   0.617   0.936 -0.1201 -0.2375  0.1645
79825W        W22816  25.204  14.835   8.057 -0.0834  0.2623 -0.0875
79826W        W22817  16.654   9.399  23.759  0.1177  0.1300  0.2034
79827W        W22818  10.698  26.257   7.449  0.1907 -0.0178  0.0729
79828W        W22819   3.594   5.394   5.232  0.0280  0.0282 -0.5384
79829W        W22820  13.169  27.007   4.959  0.3798  0.0833 -0.4358
79830W        W22821  21.890  31.793  25.766 -0.1448  0.1152  0.1122
79831W        W22822   0.269   4.228   9.575 -0.1052 -0.2374  0.1166
79832W        W22823  10.049  29.656  26.307  0.0844  0.0311 -0.0741
79833W        W22824  15.566  12.510  25.981  0.0980  0.4466 -0.0832
79834W        W22825   1.748  19.457   7.217  0.0649 -0.2182 -0.1506
79835W        W22826  15.979  32.749   5.842  0.1772 -0.2223 -0.0461
79836W        W22827  17.597  21.239   5.707 -0.1251  0.0533  0.0300
79837W        W22828   2.728  13.596   7.486 -0.0044  0.1674  0.1581
79838W        W22829  12.469  34.082  21.177  0.1452  0.2595  0.1536
79839W        W22830   4.882  18.254   8.131 -0.1034 -0.0072  0.2850
79840W        W22831  15.326  27.420   2.052  0.2805  0.0350 -0.0844
79841W        W22832   8.062   7.671   9.385 -0.5609  0.2624 -0.3585
79842W        W22833   2.024  19.329  25.139 -0.1727  0.1292  0.0128
79843W        W22834   6.777  13.003   6.696  0.0709  0.0175  0.1959
79844W        W22835  10.730  11.480  10.400 -0.0558  0.1729  0.0224
79845W        W22836  24.994   3.579   6.187  0.0826  0.1118 -0.1392
79846W        W22837   8.161  16.915   6.651 -0.1487 -0.1545 -0.1120
79847W        W22838  15.172  21.587   9.000 -0.0468  0.0352 -0.1097
79848W        W22839  23.731  10.454   1.446  0.1347  0.3119 -0.2414
79849W        W22840   2.881   4.285   9.998 -0.0975  0.1607 -0.1558
79850W        W22841  11.945  12.569   0.827 -0.1566 -0.3434  0.1472
79851W        W22842  14.997  27.102   4.587 -0.2303 -0.0713 -0.2236
79852W        W22843   9.203  34.606   9.039 -0.2695  0.1411  0.1456
79853W        W22844  21.566  27.245   5.331  0.2416  0.0084  0.0023
79854W        W22845   1.332  33.397   8.858  0.2882 -0.1540 -0.0600
79855W        W22846  22.880  22.069   3.040 -0.0600 -0.0767  0.2477
79856W        W22847   5.952   5.226   3.375 -0.3771 -0.1188 -0.0151
79857W        W22848   2.987  28.785   0.277  0.1762 -0.1051 -0.1496
79858W        W22849  12.686   5.136   8.361  0.3945 -0.0301  0.2913
79859W        W22850  12.064  13.923   6.503 -0.0923  0.2580 -0.1998
79860W        W22851   2.857   6.733  22.494  0.1078  0.2174 -0.1647
79861W        W22852  16.305  27.184   6.948 -0.1049  0.2818 -0.0669
79862W        W22853  14.296  17.384   2.958  0.1647  0.1846 -0.2291
79863W        W22854   7.308  14.550   6.283  0.2453  0.1911  0.0396
79864W        W22855  22.144  12.429   6.125 -0.1294  0.1274 -0.0403
79865W        W22856   6.325  33.896   2.992 -0.0403 -0.1394  0.1811
79866W        W22857   4.551  20.544   5.547  0.1138  0.2243  0.0002
79867W        W22858  12.015  24.190  23.747  0.2304  0.0805 -0.1533
79868W        W22859  16.943  18.185  20.275 -0.2288  0.2305 -0.1824
79869W        W22860  10.685  29.335  10.203  0.2636 -0.1615  0.3874
79870W        W22861  20.083  34.760   4.948 -0.2131 -0.0565  0.0543
79871W        W22862  10.848   6.313  27.809  0.1180 -0.1829 -0.0923
79872W        W22863  17.115   8.196   9.200 -0.0064 -0.1534 -0.1221
79873W        W22864   4.675   3.251   7.122 -0.4292  0.1128  0.2371
79874W        W22865   8.397  13.802   1.915 -0.0543  0.0848 -0.1083
79875W        W22866  21.882   5.839   3.617  0.1046  0.0168  0.1929
79876W        W22867  32.880  31.488  26.554 -0.1051 -0.2717  0.1235
79877W        W22868   1.930  16.340   0.702  0.1460  0.0414 -0.0457
79878W        W22869  33.363  32.411   2.477  0.0161 -0.0937 -0.1740
79879W        W22870  18.881  10.471  15.427  0.1389 -0.0246 -0.0591
79880W        W22871  17.401   5.538   9.950 -0.1687  0.0267  0.1917
79881W        W22872  11.521   7.457   2.377 -0.2590 -0.2035 -0.0802
79882W        W22873   6.432   7.719   1.788 -0.1456  0.0922  0.0026
79883W        W22874   3.262   8.528   8.785  0.1416 -0.0917 -0.2030
79884W        W22875   3.414  10.753   8.119  0.0011  0.1781 -0.1446
79885W        W22876   7.859  11.721  10.168 -0.0552 -0.3718 -0.0740
79886W        W22877  16.931  31.568   9.198  0.3239 -0.0541  0.0543
79887W        W22878  19.118  15.043   6.166  0.4058 -0.0083 -0.4664
79888W        W22879   7.920  22.163   5.723 -0.1901 -0.0924  0.1159
79889W        W22880   7.654  18.096   2.730  0.0836  0.2263  0.1290
79890W        W22881   7.540  14.541   5.831  0.1519 -0.2295 -0.5013
79891W        W22882  22.671   2.936  20.581  0.1895 -0.0435 -0.0545
79892W        W22883  15.759   9.150  27.618 -0.2925  0.0303 -0.0644
79893W        W22884  32.886  13.379  28.230 -0.0449 -0.0303 -0.2582
79894W        W22885   7.179  20.514  26.501  0.1597  0.1307 -0.0496
79895W        W22886  14.069   3.134  10.421  0.3445 -0.2438  0.1991
79896W        W22887  32.765   6.515   6.606  0.0145 -0.3443  0.0029
79897W        W22888  16.775  23.004  18.408  0.3071 -0.1994  0.0785
79898W        W22889  14.962   0.349   5.024 -0.2881 -0.0719  0.2007
79899W        W22890  21.010  16.699  27.473  0.2273  0.4712  0.1682
79900W        W22891  16.683  24.237   7.368  0.3433  0.2613  0.0333
79901W        W22892  30.917  19.600  24.118  0.1780 -0.1034  0.1619
79902W        W22893  14.276  32.947   6.020  0.0963 -0.0060 -0.0934
79903W        W22894  10.610  19.219   2.569  0.1073  0.0769 -0.0389
79904W        W22895  13.784   5.232   8.217  0.2369 -0.3168 -0.1965
79905W        W22896   5.186   5.558   8.299 -0.1380  0.1246  0.3038
79906W        W22897  15.800  19.084   5.271 -0.1339  0.1732  0.1272
79907W        W22898   2.675  11.157   8.757  0.0177  0.0084 -0.0860
79908W        W22899  19.391   5.646   6.417 -0.1344 -0.0942  0.1222
79909W        W22900  13.479   8.900   5.247 -0.2399 -0.0968  0.0801
79910W        W22901  26.540  17.326  28.877  0.1110  0.2460  0.1760
79911W        W22902  21.826  11.248   6.741 -0.1318 -0.1228  0.1996
79912W        W22903  23.620  19.280   9.058  0.0107 -0.2392  0.0304
79913W        W22904   8.508  33.811   1.651 -0.1250  0.0858  0.5126
79914W        W22905   7.132   4.435   2.992 -0.0243 -0.2445  0.1232
79915W        W22906   9.501  21.609   4.111 -0.4087 -0.2163 -0.4707
79916W        W22907  14.459  16.753  26.766 -0.0899 -0.0300  0.0372
79917W        W22908  15.774   4.059  21.722  0.0043 -0.1455  0.1388
79918W        W22909   9.357  15.495  10.864 -0.2079  0.1361 -0.0101
79919W        W22910   1.578  12.666  26.286  0.0172  0.0369  0.2910
79920W        W22911  30.329   4.350   4.510 -0.2547 -0.0730  0.0211
79921W        W22912  23.507   7.788   8.684 -0.3548 -0.0414 -0.0604
79922W        W22913   9.836  23.141   6.124 -0.1644 -0.1793 -0.1388
79923W        W22914  14.224  10.440   5.716  0.1817 -0.0547  0.1942
79924W        W22915  11.675  12.530  10.284  0.1253  0.2647  0.0800
79925W        W22916   7.949   9.788   9.624 -0.2258 -0.3366  0.1428
79926W        W22917   3.366   8.305   7.174  0.2889 -0.1442 -0.0551
79927W        W22918  23.848  11.580  21.731 -0.1166 -0.0388 -0.0056
79928W        W22919   4.429  13.896   4.443 -0.2496 -0.0617  0.0768
79929W        W22920  13.746  22.159   6.842  0.0470 -0.0626 -0.2256
79930W        W22921  23.544  10.276   5.420  0.1573 -0.0156  0.1210
79931W        W22922  28.813   2.272   5.429 -0.0656  0.0150 -0.0762
79932W        W22923  33.521  13.644   1.998 -0.2840  0.0609  0.0881
79933W        W22924  23.087  12.187   0.754 -0.1344 -0.0170  0.1008
79934W        W22925   2.645  12.533  12.154  0.3205  0.0158 -0.0580
79935W        W22926  15.903  34.600   4.537 -0.0096 -0.1169  0.0687
79936W        W22927   0.688  29.369   9.792  0.0896  0.0778 -0.0985
79937W        W22928  15.072  22.347   5.614  0.1036 -0.0624 -0.0401
79938W        W22929   5.249   7.836   9.120  0.0092 -0.4265  0.1162
79939W        W22930   8.951   5.153   9.501 -0.2750  0.3246 -0.0508
79940W        W22931  29.376   0.400   5.902  0.1793 -0.1042  0.1260
79941W        W22932   4.410  26.899  17.182 -0.2147  0.0713 -0.1833
79942W        W22933  20.524  19.996  28.332  0.0977 -0.2813  0.3878
79943W        W22934  24.877  13.852   3.626 -0.0189 -0.0648 -0.1669
79944W        W22935  29.599  27.047   0.942 -0.1682 -0.0085  0.0157
79945W        W22936   7.240   4.090  28.074 -0.1207  0.2087 -0.0672
79946W        W22937  11.246   2.124   2.149  0.0010 -0.1430 -0.2389
79947W        W22938   7.272   6.034  25.455 -0.2781 -0.1531 -0.0244
79948W        W22939  15.425  31.625  19.700 -0.2018  0.0687 -0.2999
79949W        W22940   5.205   4.041   5.387  0.3372 -0.1855  0.1123
79950W        W22941  14.845  19.203   1.454  0.3392 -0.0983  0.3064
79951W        W22942  17.564   0.222  24.113  0.1892  0.0474  0.0050
79952W        W22943  16.229   7.165  10.720 -0.1435  0.3461 -0.0248
79953W        W22944  32.776  32.946   4.607  0.1243  0.0493 -0.0169
79954W        W22945  17.772  10.636  28.188  0.0544  0.2403  0.1092
79955W        W22946  11.453  15.078   7.528 -0.2719  0.1064  0.0529
79956W        W22947  13.000  22.779   8.701  0.1525  0.0484  0.3240
79957W        W22948   4.824  18.180   9.306  0.2461 -0.1150 -0.1034
79958W        W22949   3.258  31.109   9.020 -0.1001  0.1154  0.0395
79959W        W22950  14.041   5.523  10.206  0.0864 -0.0146 -0.0875
79960W        W22951  14.408   8.048  19.372  0.1667 -0.1154  0.1303
79961W        W22952  29.359  17.903  27.685 -0.3794  0.3753  0.0712
79962W        W22953   5.423  14.994   2.596  0.2376 -0.2882  0.0505
79963W        W22954  30.450  22.876   0.765  0.1094 -0.2641  0.1846
79964W        W22955  18.288  15.626  27.101  0.0052  0.1832 -0.1455
79965W        W22956  13.925  16.482   3.167 -0.0224 -0.1757 -0.1500
79966W        W22957  14.517  10.901  28.090  0.0944 -0.1966 -0.1711
79967W        W22958  13.936   5.601   7.860 -0.1865  0.1364 -0.2486
79968W        W22959   6.095   6.352   5.934  0.1958  0.5190 -0.1559
79969W        W22960  20.547  10.205  13.307  0.0943  0.0038  0.0286
79970W        W22961   8.355  20.183   7.247 -0.0565  0.0506 -0.1411
79971W        W22962  14.233   5.690  27.352 -0.0313 -0.0365  0.3242
79972W        W22963  25.817  18.019  20.000 -0.0286 -0.0348  0.0536
79973W        W22964   7.496  24.873  27.216  0.3502  0.1311 -0.3433
79974W        W22965   4.796  13.554   5.596  0.1673 -0.2797  0.2500
79975W        W22966  11.488   2.290   0.419 -0.0064 -0.3968  0.0626
79976W        W22967   2.788  31.958   5.313 -0.2250  0.1043  0.1099
79977W        W22968  12.265   5.305   8.663  0.0687 -0.2798  0.2800
79978W        W22969  11.776  12.094   9.400  0.2123  0.0722 -0.0025
79979W        W22970  11.799  15.600   2.140  0.3018  0.0319 -0.0377
79980W        W22971  25.041  11.533  27.261 -0.1590 -0.0936  0.2343
79981W        W22972  13.622  15.923   7.757  0.0240 -0.2620 -0.1140
79982W        W22973   7.576  34.550   1.678 -0.4358 -0.0717  0.0109
79983W        W22974  13.298  14.212   1.798  0.0777 -0.1025 -0.2536
79984W        W22975  13.763   8.949   7.366 -0.1570 -0.1185 -0.0786
79985W        W22976   9.141  13.588  27.291 -0.4151  0.2516 -0.0910
79986W        W22977  13.848  29.702  26.802 -0.0978  0.0633 -0.0639
79987W        W22978   9.756  19.851   9.184 -0.0649 -0.0461  0.0792
79988W        W22979  20.682  28.581   0.399  0.0928 -0.0665 -0.1209
79989W        W22980  19.147   5.960   6.945 -0.0781 -0.1787  0.0144
79990W        W22981   4.471   9.902   6.154 -0.1486  0.0062 -0.1933
79991W        W22982  21.952  25.912  28.148 -0.0674 -0.2092  0.3487
79992W        W22983  13.920  12.248   7.952 -0.1471 -0.0889  0.1559
79993W        W22984   2.337   8.345   3.688  0.2125 -0.1515  0.3008
79994W        W22985   6.968   3.543  28.807  0.0438  0.6139 -0.0412
79995W        W22986  11.597   5.339   5.096  0.0331  0.0332  0.0335
79996W        W22987  21.558  34.510   0.845 -0.0182 -0.0835  0.0732
79997W        W22988  16.974  17.306  23.770  0.1093 -0.1409  0.0153
79998W        W22989   4.290  29.859   4.938 -0.2512  0.1340  0.4391
79999W        W22990  11.310  29.355   1.168 -0.0059  0.1971 -0.0627
80000W        W22991   5.823   9.945  10.690  0.2630  0.0625  0.1945
80001W        W22992   9.757  22.275   1.852 -0.1284 -0.0469 -0.1041
80002W        W22993   7.268  16.526  26.534 -0.2043 -0.0934 -0.2164
80003W        W22994  11.033   5.230   5.791 -0.0382  0.0443  0.1377
80004W        W22995   3.498   3.082  10.479 -0.2127 -0.1437  0.2753
80005W        W22996   6.387   0.650   5.972 -0.0872  0.0652 -0.0242
80006W        W22997  33.853  15.412  26.400 -0.1618 -0.1862 -0.3272
80007W        W22998  21.204   7.870   5.837 -0.2721  0.1265 -0.0166
80008W        W22999   0.859  16.724   8.687  0.3424 -0.0837 -0.0954
80009W        W23000  14.784   5.842  25.439 -0.0664 -0.0390  0.0343
80010W        W23001  14.092  17.388  27.056 -0.1029 -0.2623 -0.0946
80011W        W23002  21.381   1.687  26.538  0.1480  0.2025 -0.1636
80012W        W23003   2.410  19.758  10.583  0.0109  0.1398 -0.0122
80013W        W23004  16.641  12.916  19.635  0.3648 -0.2469  0.1681
80014W        W23005  30.163  24.483  17.651 -0.1499  0.1280 -0.2775
80015W        W23006   7.132   6.191  26.966 -0.1075  0.0381 -0.5382
80016W        W23007   9.156  23.467  15.932 -0.1830 -0.2992 -0.0409
80017W        W23008  27.711  17.505  26.367 -0.0526 -0.0824  0.1450
80018W        W23009  29.105  31.812   7.463 -0.2792  0.1128 -0.0125
80019W        W23010  14.277   9.815   5.129  0.0354 -0.0922  0.3729
80020W        W23011  14.247   3.702   8.045  0.0596 -0.4358  0.2681
80021W        W23012   4.257   4.068   8.230  0.0772  0.0787 -0.1772
80022W        W23013  13.814  23.720  27.605 -0.0398  0.0349  0.3033
80023W        W23014  32.565   5.471   2.233  0.1123  0.3113  0.1502
80024W        W23015   3.975   1.588   1.477 -0.0956 -0.0277 -0.2460
80025W        W23016  31.837  24.485  17.606 -0.1417  0.0833  0.0242
80026W        W23017  28.432   8.946   4.116 -0.4924 -0.1386 -0.0516
80027W        W23018  20.262   2.254   5.137  0.0799  0.0090 -0.0250
80028W        W23019   7.109  23.333   8.340  0.3414  0.0598 -0.0309
80029W        W23020   5.907   6.176   4.654 -0.1813 -0.0516 -0.0971
80030W        W23021  17.831  17.031   1.708 -0.0966 -0.2002 -0.3090
80031W        W23022   0.850  29.799  28.589  0.0553 -0.1653 -0.2320
80032W        W23023   8.276   8.033  28.864  0.0846  0.0772  0.1087
80033W        W23024   2.284  14.334   7.791  0.0999 -0.1064 -0.1581
80034W        W23025   3.068   9.754   4.886  0.1910  0.0933 -0.0147
80035W        W23026   2.852  13.389  16.208  0.1658  0.0440 -0.0212
80036W        W23027   8.609  14.715   6.150  0.1780 -0.1030 -0.3201
80037W        W23028  22.407  32.142  12.392  0.3993 -0.1136  0.0425
80038W        W23029  11.238  34.472   3.008 -0.0704  0.3863 -0.3508
80039W        W23030   8.550  11.240   6.724  0.0481  0.1858 -0.0927
80040W        W23031  16.809  16.924  24.062  0.2458 -0.0295 -0.2762
80041W        W23032   9.273  13.979   1.703  0.0696 -0.0440 -0.0977
80042W        W23033  11.127  18.476  19.702 -0.0245 -0.0999 -0.0435
80043W        W23034  32.003  16.036   0.228  0.1340 -0.3980  0.0071
80044W        W23035   9.574  24.627   3.959  0.0619  0.0345  0.1130
80045W        W23036   0.774  21.768  26.159 -0.1915  0.1515 -0.2430
80046W        W23037  11.645  11.311   5.810 -0.0976  0.1883 -0.3738
80047W        W23038  13.684  10.089   8.900 -0.1198 -0.0608 -0.0655
80048W        W23039  17.316   0.424  27.200  0.0052 -0.0340 -0.1154
80049W        W23040   3.823   6.087  25.486  0.1876  0.0919  0.2123
80050W        W23041  34.076  14.010  29.151 -0.2438 -0.2537 -0.1989
80051W        W23042   5.630  17.341   0.823 -0.2622  0.0889  0.3019
80052W        W23043  25.343  12.485  15.022  0.2502 -0.1935 -0.1461
80053W        W23044  13.593  34.506   6.619  0.1003  0.1925 -0.3987
80054W        W23045  10.261  31.936  17.403 -0.1241  0.0325  0.1035
80055W        W23046  10.903  21.161   6.912  0.2044 -0.0990 -0.0016
80056W        W23047   7.598  13.348  25.834  0.0921  0.1070 -0.1039
80057W        W23048   2.949   9.801  10.623  0.0614  0.0408  0.0700
80058W        W23049   9.374  27.408   4.581  0.3438  0.0225  0.2635
80059W        W23050  19.031   6.073  21.219 -0.0268 -0.0901 -0.1628
80060W        W23051   9.339  14.092  20.755 -0.0210  0.0871  0.0196
80061W        W23052  14.425   8.998  23.545  0.1617  0.0671  0.2418
80062W        W23053  13.229  18.403  18.311 -0.0296  0.0063 -0.2253
80063W        W23054  20.708   6.467   5.294  0.1434 -0.0719 -0.0402
80064W        W23055  10.496  12.579   9.900  0.1222 -0.1971  0.2825
80065W        W23056  30.355  24.842   4.299 -0.3028  0.2904 -0.1439
80066W        W23057   0.723  25.795  25.224 -0.3375  0.2539  0.1636
80067W        W23058  12.077  18.119  17.901 -0.3263  0.2430 -0.0770
80068W        W23059   5.770   7.835  28.159 -0.3106  0.2037  0.0820
80069W        W23060   6.235   4.018  19.480 -0.0169  0.0525  0.1137
80070W        W23061   0.602  16.579   6.377  0.0946 -0.0082 -0.2639
80071W        W23062  20.633  13.338   5.621 -0.1060  0.2122  0.0190
80072W        W23063  28.373  22.349   2.618 -0.0930  0.2308 -0.0068
80073W        W23064  11.903  18.949  17.319 -0.0719  0.0709  0.0013
80074W        W23065   7.878   8.656  23.879  0.1619 -0.0717  0.0147
80075W        W23066  11.008   2.548  10.014  0.2168  0.2019 -0.0625
80076W        W23067   2.294   8.577  10.797 -0.1656  0.0018 -0.1792
80077W        W23068   9.568   8.145  29.213  0.2949 -0.0483 -0.0158
80078W        W23069  17.901  27.519  18.911 -0.2290 -0.1032 -0.1637
80079W        W23070  13.339   4.044   4.273  0.2197  0.2169  0.1071
80080W        W23071   6.694  11.704  22.272  0.0335 -0.1085 -0.0785
80081W        W23072  14.655  23.504   9.646  0.0656 -0.0695  0.1722
80082W        W23073   9.577  13.422  27.610 -0.0548 -0.0240 -0.0428
80083W        W23074   4.168  23.834   3.820  0.1226 -0.0395  0.1351
80084W        W23075   2.154  20.381  28.666  0.1189 -0.3209  0.2510
80085W        W23076  15.760  30.588  19.507  0.0501  0.2064 -0.0394
80086W        W23077   4.995   9.857  21.009 -0.0131 -0.0906 -0.1063
80087W        W23078  16.548  15.188   1.850  0.1310  0.0507 -0.2955
80088W        W23079  31.360   4.448  28.014  0.0064  0.0154  0.0244
80089W        W23080  31.982   0.962   5.231 -0.1579  0.3041  0.1718
80090W        W23081  11.512  17.226   1.999  0.0340  0.2490 -0.3196
80091W        W23082  10.597  15.103  17.809 -0.1869 -0.1049 -0.0862
80092W        W23083  25.268  22.251  13.437 -0.2251  0.0270  0.0634
80093W        W23084   1.943  16.980   5.785  0.3800 -0.3127 -0.4504
80094W        W23085  24.861   2.128  17.904  0.3507 -0.2737  0.0025
80095W        W23086  14.138  13.007  15.639  0.0660  0.0742 -0.6778
80096W        W23087  20.561   5.313  19.771 -0.1624 -0.1669 -0.5018
80097W        W23088  21.388  34.779   6.442 -0.0133  0.0416  0.4820
80098W        W23089  12.228   4.619   1.279 -0.4306  0.2529 -0.1091
80099W        W23090   2.747   0.977  22.358 -0.0711 -0.2216  0.0220
80100W        W23091  18.936  20.856   6.371  0.0229  0.1455  0.1408
80101W        W23092   9.285  31.858   4.076  0.0639  0.0802 -0.3009
80102W        W23093   9.170  31.715  20.993 -0.2790  0.1250 -0.2566
80103W        W23094  23.719  11.455  25.011  0.1249 -0.0152 -0.0077
80104W        W23095   7.984  13.190  15.073 -0.0004  0.1995  0.1071
80105W        W23096  33.678  17.429   3.596 -0.1397  0.0857 -0.1307
80106W        W23097  27.954   6.438   7.217  0.0122 -0.2164  0.1566
80107W        W23098  13.519   8.975   8.077  0.2795  0.0224  0.0154
80108W        W23099  17.314  13.227   0.474  0.1230  0.4042 -0.0098
80109W        W23100  16.406  14.431  12.793  0.1702 -0.2375  0.2218
80110W        W23101  11.803  27.888  10.205 -0.0470 -0.2959 -0.1308
80111W        W23102  32.468  10.840   8.728  0.1197  0.0895  0.0305
80112W        W23103   2.820   8.535   8.527 -0.0066 -0.3216  0.3730
80113W        W23104   9.922  20.310   1.428  0.0901  0.1904 -0.0060
80114W        W23105   4.755  11.883  28.348  0.1162 -0.3069  0.0363
80115W        W23106   0.001  11.552  19.896  0.0125 -0.1275 -0.3359
80116W        W23107  28.271  23.279  29.138 -0.3235  0.1299 -0.2128
80117W        W23108  19.609  34.461   7.352 -0.0501 -0.0774  0.0862
80118W        W23109   3.322   6.413  22.395 -0.1507 -0.0341  0.1906
80119W        W23110  20.469  15.863   8.491  0.1801 -0.0125  0.2837
80120W        W23111   5.938  30.225   4.034  0.0171 -0.0737  0.0835
80121W        W23112  14.181  13.484  21.920  0.0950 -0.0273  0.2014
80122W        W23113  23.992  12.795   9.363  0.0315  0.0482 -0.2512
80123W        W23114  10.321  21.831   3.181  0.0509  0.0311 -0.1196
80124W        W23115   3.836   7.327   6.956  0.2275  0.0445  0.2029
80125W        W23116   2.381  34.138  18.940 -0.2009 -0.2332  0.2650
80126W        W23117  10.686  26.980   7.878  0.0817  0.1607  0.0426
80127W        W23118  10.114   3.300   9.048 -0.1411 -0.0039  0.1906
80128W        W23119   6.208  11.852  17.933 -0.2681 -0.0431  0.0201
80129W        W23120  11.441   1.831   4.108 -0.1038 -0.0501 -0.0039
80130W        W23121   7.922  12.647   1.911  0.2194  0.0360 -0.1455
80131W        W23122  27.747   8.372   0.854 -0.2315 -0.0489 -0.0158
80132W        W23123  11.044  29.351  23.803  0.1280  0.0219  0.0312
80133W        W23124   1.327  31.269  10.181  0.3008 -0.0010 -0.2159
80134W        W23125  13.984  12.271   6.100 -0.1139 -0.0395  0.0768
80135W        W23126  19.118   6.948  21.866  0.1940 -0.1058 -0.0101
80136W        W23127   3.900   4.280   5.976 -0.3573  0.1296  0.0604
80137W        W23128  19.848   4.425  23.271 -0.0469 -0.0065 -0.0775
80138W        W23129  19.778   6.873  24.383 -0.2114  0.0998 -0.0261
80139W        W23130  16.625  20.408   2.358 -0.3806  0.2458 -0.0258
80140W        W23131   6.751   7.035   5.907  0.0822 -0.0258 -0.2026
80141W        W23132   5.940  12.809  20.777  0.1283 -0.2791  0.1615
80142W        W23133  23.758  28.531   2.591  0.0531  0.1036 -0.0309
80143W        W23134   3.069   1.536  20.579  0.0794 -0.1112  0.2325
80144W        W23135  15.538  12.769   5.055 -0.6397 -0.1089 -0.1954
80145W        W23136   5.949  15.943  28.146 -0.3312 -0.0679  0.2345
80146W        W23137  16.390  20.208   1.064 -0.0742 -0.2539 -0.0543
80147W        W23138  18.106  13.879  26.362  0.2180 -0.1730 -0.1089
80148W        W23139   7.504   4.648   4.298 -0.1233 -0.2281  0.0840
80149W        W23140   9.658  17.059   2.777 -0.4207 -0.0729 -0.4226
80150W        W23141   2.769   7.282   0.807  0.2296  0.1974 -0.0794
80151W        W23142  11.538  16.087  19.341  0.1745 -0.3185  0.4666
80152W        W23143   7.610  34.119  10.624  0.1615 -0.2306  0.2523
80153W        W23144  12.234  33.782   7.607  0.1686 -0.0713  0.2518
80154W        W23145  26.170  12.528   6.443  0.4602  0.2180 -0.0859
80155W        W23146  14.929  19.787  21.996 -0.0493 -0.0171  0.0128
80156W        W23147  19.889   8.411  25.577  0.2373 -0.1187 -0.4006
80157W        W23148  21.676  18.022   8.089 -0.4123  0.0198 -0.3078
80158W        W23149  16.019  17.498   1.906 -0.0953 -0.1800  0.0752
80159W        W23150  27.920  23.947  27.316  0.1209 -0.2838  0.1673
80160W        W23151  16.717   4.537  22.539 -0.0579  0.0003 -0.2544
80161W        W23152  25.830  21.046   3.669 -0.1247  0.4294 -0.0892
80162W        W23153  33.480  17.976  10.235  0.0342  0.0899 -0.1038
80163W        W23154  32.974   2.665  18.562  0.0258 -0.2809  0.0773
80164W        W23155  13.489   8.144   7.513 -0.3708  0.1043  0.1481
80165W        W23156  12.710  18.124   1.614 -0.1108  0.2604 -0.3262
80166W        W23157  18.617   7.092   0.516  0.0607 -0.0559 -0.2737
80167W        W23158  16.638  23.429  24.415 -0.1874 -0.0091 -0.0434
80168W        W23159  31.597   9.076   4.034  0.0085  0.0084 -0.0341
80169W        W23160   9.151   8.638   0.729 -0.1066  0.1249 -0.2205
80170W        W23161   2.215   6.232   8.415 -0.0264  0.0079  0.0502
80171W        W23162  15.775   1.810   2.462 -0.0464  0.2470  0.0181
80172W        W23163  18.772   4.954   4.603 -0.0432 -0.0367 -0.0360
80173W        W23164  15.837  30.177  21.237  0.1934 -0.0118  0.0982
80174W        W23165  34.204  28.186   3.496 -0.1490 -0.1543  0.2212
80175W        W23166   2.249   6.379  24.074  0.1388  0.1960  0.0308
80176W        W23167   3.395  10.080  10.747 -0.0104 -0.1964  0.2594
80177W        W23168  21.550  13.493  17.847 -0.0402 -0.0534  0.1906
80178W        W23169  14.150  25.168   7.749  0.3659 -0.0673 -0.4510
80179W        W23170  20.642  23.595  16.562 -0.0600  0.1881 -0.3459
80180W        W23171  33.669   6.983   7.088 -0.1483  0.0315 -0.4229
80181W        W23172  29.285   8.176  26.688 -0.3411 -0.0144 -0.0926
80182W        W23173  20.377  29.335   0.964  0.0489 -0.0720  0.0794
80183W        W23174  33.309   5.322  16.880  0.1711  0.2429 -0.0412
80184W        W23175  11.903   5.779  17.784 -0.2696 -0.2077 -0.3404
80185W        W23176   9.094  15.163   3.425 -0.1935 -0.2012  0.0642
80186W        W23177  17.151  31.590  29.239  0.2165 -0.0025 -0.0112
80187W        W23178  14.441   8.086  27.965 -0.1539  0.0279  0.1709
80188W        W23179  21.226  25.883  20.809  0.3172 -0.1509  0.1694
80189W        W23180  11.121   9.916  10.010  0.0671  0.4036  0.0149
80190W        W23181  10.694  10.861   4.761  0.0237 -0.1247 -0.2114
80191W        W23182  18.085  20.289   4.767  0.2922  0.0313 -0.3111
80192W        W23183   5.196  14.193  18.989 -0.1165  0.0251 -0.1908
80193W        W23184   8.896  34.171  25.113 -0.1193  0.1056  0.1723
80194W        W23185   3.967   2.232  28.289 -0.1022 -0.1078 -0.0548
80195W        W23186   3.452   4.922  25.336 -0.1338 -0.2941 -0.1148
80196W        W23187  13.027  30.525  24.939 -0.0004 -0.0662  0.0470
80197W        W23188  34.758  10.830  28.926 -0.0272 -0.3340  0.2711
80198W        W23189  14.853  29.621   8.533 -0.2433  0.0530  0.5115
80199W        W23190  34.530   6.693  22.820 -0.0995  0.0720  0.0358
80200W        W23191  22.512  32.463   3.945  0.4588 -0.0679  0.2212
80201W        W23192  12.494  21.377   4.211 -0.0621 -0.0308  0.1874
80202W        W23193  16.891  16.024  24.341 -0.2490  0.4231 -0.2848
80203W        W23194   3.815   8.999  23.006  0.0105 -0.0520  0.2344
80204W        W23195   4.982  11.583  25.181  0.0403  0.1912 -0.0523
80205W        W23196   7.963  11.024  24.585  0.0160 -0.0507  0.0176
80206W        W23197  33.770   1.264  26.004  0.1908 -0.2347 -0.0194
80207W        W23198  14.294  23.726   8.355 -0.0948  0.0011  0.1835
80208W        W23199   0.331  18.799  25.770  0.0588  0.1770 -0.0847
80209W        W23200  12.676  19.657   2.826 -0.1821  0.3352 -0.2288
80210W        W23201  29.578  25.604   2.535 -0.1507  0.0726  0.0565
80211W        W23202  28.748  26.738  26.057 -0.1663  0.2258 -0.0007
80212W        W23203   8.758  34.221   5.324 -0.4271  0.0395 -0.1867
80213W        W23204  34.140  31.560  27.448  0.2252 -0.0313 -0.0509
80214W        W23205  23.316   9.629  15.569  0.1482  0.0156  0.0335
80215W        W23206  26.842  16.464  24.789 -0.1494  0.0940  0.0204
80216W        W23207  11.483   3.458   7.113 -0.1217  0.2480 -0.0516
80217W        W23208  19.415  33.015  18.884  0.0135 -0.2640  0.0644
80218W        W23209  16.307   1.173  27.370 -0.1892  0.0660  0.0843
80219W        W23210  21.675  31.583   4.190 -0.0867 -0.0518 -0.1437
80220W        W23211  14.719   9.750  27.675 -0.2379  0.2740  0.1304
80221W        W23212  14.589  32.563  10.460 -0.3176 -0.1735  0.0514
80222W        W23213   6.065   4.740   8.701  0.1532 -0.1570 -0.0564
80223W        W23214  12.230   4.567  28.570  0.1156  0.3017  0.1758
80224W        W23215  34.445  32.126   7.620 -0.2160 -0.0884 -0.3183
80225W        W23216  34.226  11.043   3.065  0.3001 -0.1107  0.1280
80226W        W23217  33.081  20.174   2.174 -0.3280  0.1348  0.0153
80227W        W23218  13.246  20.209   0.146 -0.0082 -0.1459  0.0551
80228W        W23219  11.807   8.379   9.834  0.1071 -0.2466 -0.3968
80229W        W23220  15.789  18.685   3.680 -0.0815  0.2077 -0.0545
80230W        W23221   6.702  21.334   7.520 -0.1537  0.4173 -0.0545
80231W        W23222   9.749  22.866  18.173  0.0444  0.3019 -0.0829
80232W        W23223   0.180  11.087   0.681  0.1541  0.0016  0.1519
80233W        W23224   0.429   7.606  24.414 -0.0949 -0.2992  0.3021
80234W        W23225   2.117   0.004   7.283 -0.1393  0.0422  0.1759
80235W        W23226  27.768  12.457   9.743 -0.1076 -0.1547 -0.3032
80236W        W23227   1.673   5.275   5.196 -0.2078 -0.2217 -0.1220
80237W        W23228  10.205  15.024  10.814  0.0558 -0.2690 -0.3011
80238W        W23229  33.780  19.217  24.893  0.0922 -0.1347 -0.0928
80239W        W23230   9.836  20.144  20.626  0.0366  0.2309  0.0862
80240W        W23231  10.520  23.913  26.770  0.0085  0.1398 -0.0042
80241W        W23232   2.597  33.747   8.002 -0.0785 -0.0149 -0.1213
80242W        W23233  17.063  14.597  22.782 -0.2209 -0.1350  0.2064
80243W        W23234   8.576  22.903  25.131  0.2360  0.0949 -0.0304
80244W        W23235   4.927   5.452   0.264 -0.0541  0.1237 -0.0099
80245W        W23236  12.750  11.867  19.750 -0.2554  0.0586  0.1964
80246W        W23237   3.942   1.543  22.674  0.0386  0.0497 -0.1710
80247W        W23238   8.530  15.997   2.774 -0.0243  0.1793  0.0215
80248W        W23239  17.721   3.464  24.334  0.3065 -0.1611  0.1385
80249W        W23240   7.173  22.742   9.024 -0.2231 -0.1244 -0.0981
80250W        W23241  10.194  16.610   9.594 -0.2693  0.1410 -0.5433
80251W        W23242  16.542  18.211   8.156  0.1888  0.3135 -0.3411
80252W        W23243  34.000   1.470   0.340  0.0595 -0.0060  0.0648
80253W        W23244  24.340   3.598  17.025 -0.0810 -0.1046 -0.2686
80254W        W23245  30.211   7.722  27.510 -0.2048  0.2271 -0.2058
80255W        W23246  18.246   8.123  26.812 -0.1077  0.0267  0.1998
80256W        W23247  30.332  15.219   0.199 -0.0258 -0.1601 -0.1619
80257W        W23248   0.788  19.683  18.532  0.2739 -0.2661  0.0203
80258W        W23249  23.247  13.259  27.166  0.1317 -0.1529  0.0876
80259W        W23250  30.265  16.903   5.257 -0.2785 -0.2257 -0.0281
80260W        W23251  33.526   5.192   5.361 -0.3722 -0.1570  0.1149
80261W        W23252  14.604   7.440   0.476  0.0960  0.1142 -0.1241
80262W        W23253   8.608  33.704  25.352 -0.4069 -0.0318 -0.0155
80263W        W23254  13.598   1.657   4.898 -0.1362 -0.1511  0.0095
80264W        W23255  14.931  20.118  28.599 -0.0994 -0.0757  0.1327
80265W        W23256   3.836  29.634  26.162 -0.0017 -0.3253  0.1565
80266W        W23257   7.358  19.395  22.683 -0.2527  0.4904  0.0486
80267W        W23258   8.634   3.457   6.744  0.0080 -0.1583  0.2053
80268W        W23259  31.627   6.346  26.237 -0.3410 -0.3910 -0.0648
80269W        W23260   6.484  26.655  26.318  0.1111  0.2109 -0.1938
80270W        W23261  30.281  13.112   7.410 -0.2194 -0.0151 -0.3038
80271W        W23262  15.065  33.258   8.624  0.1427 -0.5251 -0.0214
80272W        W23263  34.424  19.203   7.393 -0.2133  0.0531 -0.0588
80273W        W23264  11.023  15.586  22.776  0.0856 -0.2718  0.0909
80274W        W23265   2.158   9.892  10.073 -0.1086 -0.1500 -0.2357
80275W        W23266   2.625   9.557  28.109  0.1233 -0.2487  0.3087
80276W        W23267  21.786  14.187  26.161  0.1382  0.0051  0.0602
80277W        W23268  32.986  18.964  21.886  0.2822 -0.0072 -0.0563
80278W        W23269  16.474  25.882  20.431 -0.0841  0.0642  0.1085
80279W        W23270  13.289   8.720   6.166  0.1022  0.2843  0.3496
80280W        W23271  16.466  25.954  21.811  0.0540 -0.0220 -0.0862
80281W        W23272  11.990  16.140  29.202  0.2140 -0.2224  0.1589
80282W        W23273   4.037  10.007   6.553 -0.1156 -0.0711  0.0570
80283W        W23274  26.752   8.039   4.866  0.0097  0.1694 -0.4836
80284W        W23275   0.696   6.350   3.225 -0.0163  0.2953 -0.3253
80285W        W23276  28.490   8.887   3.129  0.0874  0.1104 -0.2212
80286W        W23277  23.360  12.958  20.074 -0.1166 -0.1090  0.0992
80287W        W23278  14.570   7.897  25.826 -0.1711  0.3413  0.2048
80288W        W23279  28.403  18.244   8.121 -0.0956 -0.0910 -0.1915
80289W        W23280  16.448  11.919  22.197  0.0263 -0.0890  0.0596
80290W        W23281  28.736   1.430  27.489  0.0410 -0.3744 -0.3083
80291W        W23282   6.709  12.792   4.393  0.1569  0.0860 -0.3476
80292W        W23283   3.690   5.673   0.773 -0.0695 -0.0806  0.0946
80293W        W23284  11.115  12.407  28.580  0.1404  0.2245 -0.1067
80294W        W23285  15.747  18.657  16.246 -0.0805 -0.0924 -0.2768
80295W        W23286  18.453   8.432  21.181 -0.0000  0.1557  0.2532
80296W        W23287  34.109   6.780   2.959 -0.0362  0.3007 -0.2437
80297W        W23288  21.994  18.300   6.427 -0.1934  0.1319 -0.1609
80298W        W23289   5.295  14.257  22.403  0.0543 -0.1965  0.1034
80299W        W23290  22.073  31.635  25.383  0.0916  0.2404 -0.0953
80300W        W23291  16.780   1.474  22.938  0.0669  0.1410 -0.1407
80301W        W23292   9.019  33.246   3.456 -0.0182  0.1771  0.0145
80302W        W23293  22.535   4.263   7.524 -0.1067 -0.2346 -0.0095
80303W        W23294  30.928   0.715   3.915  0.0846  0.0429 -0.1581
80304W        W23295   8.379  28.263   5.675  0.0824  0.0125 -0.0801
80305W        W23296  30.739  11.998   6.018  0.2791 -0.1176 -0.0728
80306W        W23297   4.769   5.849  26.224 -0.0122 -0.0635  0.0158
80307W        W23298  13.922  13.312  19.560  0.3889  0.0257  0.2253
80308W        W23299   0.033   1.347   9.914  0.1891 -0.1137 -0.1539
80309W        W23300   5.931   9.543  20.890  0.4377  0.0224 -0.0902
80310W        W23301   4.855   2.119   2.968 -0.2545 -0.1710  0.1626
80311W        W23302  18.301  17.153   6.659  0.1040  0.1834  0.0363
80312W        W23303   2.225  34.140   2.334 -0.0446  0.0331 -0.0211
80313W        W23304   9.378  30.320   1.708  0.1538  0.1730  0.0658
80314W        W23305  18.946  24.704  28.454  0.1127 -0.0772  0.0136
80315W        W23306   9.213   7.683   7.835  0.1306  0.0964  0.1924
80316W        W23307  20.322   8.761  22.438  0.1840  0.0018 -0.0419
80317W        W23308  16.950  16.760  25.690  0.0710 -0.2988  0.0925
80318W        W23309  29.496  29.823  25.332  0.0013 -0.0080 -0.0568
80319W        W23310  26.824  18.378  23.394  0.0585 -0.3130  0.1640
80320W        W23311  10.074   7.038  10.200 -0.0028  0.3155 -0.1693
80321W        W23312   0.888   3.911   6.493 -0.0341 -0.1299 -0.0173
80322W        W23313  11.931  12.103  28.906 -0.0792  0.2042 -0.1996
80323W        W23314  27.025  23.211  21.245 -0.1623  0.1882 -0.1454
80324W        W23315   0.603  16.661  27.822  0.0650 -0.4439 -0.0450
80325W        W23316   7.492  14.804   6.713  0.2722 -0.1167  0.0454
80326W        W23317  16.386   4.597   8.026 -0.4701  0.0753 -0.2245
80327W        W23318  20.311  29.166  15.068 -0.2592  0.2720  0.1736
80328W        W23319  18.266  14.482   7.318 -0.0503  0.0759  0.0558
80329W        W23320  11.769   7.103  21.053 -0.1299 -0.1416 -0.1206
80330W        W23321  13.653   9.228   6.284  0.1224 -0.0289  0.0379
80331W        W23322  14.800  16.967   1.382 -0.0385 -0.1015  0.1772
80332W        W23323  11.625  14.996  21.841 -0.3670  0.2141 -0.0029
80333W        W23324   3.516   9.617   6.329  0.4284  0.0449  0.1928
80334W        W23325  20.142  24.854   5.288 -0.2104 -0.0838 -0.2549
80335W        W23326   0.684  15.247   0.697 -0.1399 -0.4309 -0.0308
80336W        W23327   5.283  15.608  17.632  0.2334 -0.1434 -0.5651
80337W        W23328  30.457  17.724  19.438  0.2225 -0.0440 -0.3526
80338W        W23329  11.362  12.976   3.394 -0.2147  0.0267 -0.0838
80339W        W23330   3.830  15.127   6.425 -0.0388 -0.0737 -0.1646
80340W        W23331  33.360  15.921  23.035  0.3532 -0.0896  0.0248
80341W        W23332  15.204   0.586  24.178  0.0783  0.1996 -0.1513
80342W        W23333  13.690   9.285   7.732  0.3089  0.2003 -0.3036
80343W        W23334  34.345  10.643   3.902  0.0472  0.2224 -0.0433
80344W        W23335  17.672   5.920  24.447 -0.1383  0.2068 -0.2726
80345W        W23336  12.333  26.191   3.196  0.1219 -0.0820 -0.0417
80346W        W23337  15.432  25.536  26.995 -0.0263  0.0775 -0.0008
80347W        W23338  21.458  18.048  13.612 -0.0646  0.2795  0.2330
80348W        W23339   6.708  29.633   8.827 -0.2076 -0.0814  0.0762
80349W        W23340   2.089  31.928   1.349 -0.0931 -0.2334  0.1254
80350W        W23341  33.733  18.212   6.689 -0.0282  0.1283  0.2346
80351W        W23342  15.203  12.245  19.971 -0.2520 -0.0048 -0.0097
80352W        W23343  17.997   0.479  24.136 -0.0933 -0.0377 -0.1241
80353W        W23344  34.520  29.064  27.596 -0.1551  0.2214  0.0286
80354W        W23345  10.361  15.601   6.274 -0.1501 -0.0893  0.2128
80355W        W23346   6.759  30.273  29.067 -0.0678  0.1837  0.0565
80356W        W23347  17.891  32.395   2.352  0.0257  0.1192 -0.0516
80357W        W23348  22.616   1.253  27.660  0.0096 -0.0269 -0.1401
80358W        W23349  25.178  33.944  25.145 -0.3545  0.2065  0.0947
80359W        W23350   3.101   5.695   5.762  0.1370  0.3678  0.0445
80360W        W23351   7.144  27.804  20.955 -0.0791  0.1042  0.0079
80361W        W23352  13.570   6.656  28.065  0.1164 -0.2503 -0.0392
80362W        W23353   2.331  18.627  22.022 -0.0876  0.0924 -0.0869
80363W        W23354  18.647   5.802  17.451 -0.1134 -0.1687 -0.0263
80364W        W23355   3.543  16.500   4.157  0.4828  0.0446 -0.2740
80365W        W23356  10.158  34.142   2.306 -0.0982  0.0524 -0.2248
80366W        W23357   6.748  21.263   5.743  0.0660  0.0131  0.3042
80367W        W23358  12.258  23.681  18.115 -0.0279 -0.0590 -0.3165
80368W        W23359  10.405  13.081  22.878 -0.0739  0.3797 -0.0926
80369W        W23360   3.029  32.479   2.199 -0.2112  0.2165  0.3336
80370W        W23361  11.053  33.499   6.170  0.1431 -0.0870 -0.0612
80371W        W23362   5.395  17.255  20.377  0.3110  0.2056 -0.1162
80372W        W23363  20.661  17.605  21.834 -0.1160 -0.1858 -0.0495
80373W        W23364   6.720  27.285   7.859  0.0401  0.0762  0.1655
80374W        W23365  11.739   0.776  22.206  0.1883 -0.0018 -0.1315
80375W        W23366  10.165   2.613  29.130 -0.0700 -0.0685 -0.1641
80376W        W23367  13.534  21.458  27.859  0.2098 -0.0959  0.4262
80377W        W23368   4.822   5.878  10.104  0.0801  0.1040  0.0723
80378W        W23369  26.349  30.362   8.019  0.2403 -0.0524 -0.0344
80379W        W23370   9.379  19.477  23.666  0.2243  0.0658 -0.3054
80380W        W23371  14.500   3.119  20.556  0.0558  0.2982  0.1619
80381W        W23372  18.402  34.603  26.182  0.2096 -0.1457 -0.1875
80382W        W23373  11.896   0.584  21.160  0.3024 -0.3255 -0.0889
80383W        W23374  20.362  10.114  28.633 -0.6553 -0.2008  0.2100
80384W        W23375   5.441  15.170  23.894 -0.3303 -0.1974 -0.1928
80385W        W23376   6.893  24.323   4.251  0.1105  0.1871  0.0054
80386W        W23377   2.046   7.533   3.338  0.0544 -0.3709 -0.0942
80387W        W23378  31.057   1.654   7.288  0.2743 -0.0118  0.1574
80388W        W23379   6.870  13.702   1.208  0.2484  0.1419  0.0231
80389W        W23380  11.836  32.002   6.438  0.0499 -0.2474  0.1055
80390W        W23381   1.329   1.200  24.291 -0.1147  0.0781  0.2356
80391W        W23382  14.731   4.205  18.897  0.0675 -0.2183  0.1593
80392W        W23383  28.760  32.536   1.605 -0.2452 -0.0424  0.0425
80393W        W23384  23.853  19.793  16.389  0.2441 -0.0722  0.1107
80394W        W23385  32.317   1.946   6.737  0.1813  0.1350  0.0772
80395W        W23386  13.078   5.051  25.412  0.0562  0.0042  0.3156
80396W        W23387   5.793  22.019  20.366  0.1604 -0.1874  0.0605
80397W        W23388  16.095  16.939  14.786  0.0720  0.0097 -0.1803
80398W        W23389   7.363  15.969   8.094 -0.0032 -0.1935 -0.0520
80399W        W23390  34.611  32.774   1.583  0.1365 -0.0883 -0.3781
80400W        W23391  30.011  34.758   5.409  0.1406 -0.0261  0.0155
80401W        W23392  11.263   5.466  10.200  0.1629  0.2946 -0.0653
80402W        W23393  20.295   3.712  13.636 -0.2427  0.1571  0.0742
80403W        W23394   7.246  15.614  11.076 -0.0444  0.1588 -0.0136
80404W        W23395   4.026  14.273   2.509  0.1598 -0.1501 -0.2451
80405W        W23396  27.521  33.180  22.054 -0.1801  0.0291  0.1485
80406W        W23397  15.430  32.150   4.395 -0.1114  0.0933 -0.0330
80407W        W23398  16.013  12.903   5.761  0.1557  0.5288  0.0189
80408W        W23399   3.571  33.215   9.422 -0.0591  0.1742 -0.3742
80409W        W23400   0.785   8.095  25.348  0.0915 -0.2061  0.2228
80410W        W23401  10.742  16.776   8.304  0.1560  0.1868  0.0985
80411W        W23402  24.444   5.131   4.922  0.0474 -0.2906 -0.0541
80412W        W23403  33.846  18.261   1.892  0.0459  0.0073  0.2433
80413W        W23404  15.410   5.461  21.758  0.1594  0.3422  0.1898
80414W        W23405  10.232  18.046   7.241 -0.1469  0.3668 -0.1264
80415W        W23406  13.952  11.414   8.321  0.3065 -0.4521 -0.0557
80416W        W23407  10.532  27.218  21.393  0.0449  0.1056 -0.3040
80417W        W23408  17.517   6.160   9.825 -0.2540  0.0824 -0.0415
80418W        W23409  15.237  29.332  27.175  0.0512 -0.1539  0.3033
80419W        W23410  19.616  16.699  28.761  0.4350  0.1514  0.3306
80420W        W23411   9.725  15.746   6.478  0.1834  0.1742  0.0239
80421W        W23412  11.537  13.509   0.708 -0.1518 -0.1115 -0.1947
80422W        W23413  10.990  18.606   9.575  0.0080 -0.0996  0.2717
80423W        W23414   9.133   3.727   9.365 -0.0040  0.0857 -0.1256
80424W        W23415   0.648  27.109  25.441  0.1781 -0.2301 -0.1254
80425W        W23416  19.599  20.397  25.335  0.0742 -0.0151 -0.2328
80426W        W23417  18.366  16.666   6.385  0.0765  0.0122  0.2023
80427W        W23418   2.382   4.179   9.898  0.0678  0.0760 -0.1676
80428W        W23419   5.739  26.035  19.636 -0.2347  0.1619  0.1097
80429W        W23420   8.283  11.626  28.420  0.0410 -0.0907 -0.1451
80430W        W23421  30.204   7.691   2.059  0.0312 -0.0746  0.0000
80431W        W23422  11.478   0.565  26.849  0.0448 -0.1924  0.0136
80432W        W23423   7.437   8.626  24.085  0.0952  0.1840  0.2399
80433W        W23424  14.825  26.145   5.616  0.0376  0.0293  0.2905
80434W        W23425  12.635  29.183  26.466  0.1688  0.2388 -0.0414
80435W        W23426  33.839  24.219   8.606 -0.0482 -0.0225  0.0094
80436W        W23427   3.218  15.192  27.610 -0.0173 -0.1301  0.2036
80437W        W23428  12.066  18.248   0.482 -0.1004 -0.1130  0.2378
80438W        W23429  34.638   8.664  15.771 -0.0738 -0.1588 -0.2964
80439W        W23430   3.991  22.383   1.302 -0.0420  0.0064  0.2966
80440W        W23431   4.043   5.743   2.031  0.2316  0.2416  0.0307
80441W        W23432  18.249  27.190   7.656  0.0517 -0.2568  0.3393
80442W        W23433   2.547   8.841  21.400 -0.1244  0.0470 -0.1440
80443W        W23434  29.750  12.056   9.937 -0.2953  0.1040 -0.1119
80444W        W23435   6.446   9.465  27.484 -0.2391 -0.0144  0.3233
80445W        W23436  10.968  17.470   6.577 -0.2142 -0.0671  0.4207
80446W        W23437   7.525   9.718   0.010 -0.0434 -0.2587 -0.2823
80447W        W23438   8.376  18.522   3.173  0.0114  0.2666  0.2271
80448W        W23439   8.301   1.300   3.404  0.1560 -0.0677  0.1468
80449W        W23440   0.745  16.914  26.085 -0.2914  0.1479  0.4697
80450W        W23441  13.799   2.217  19.346  0.0697  0.0059  0.3692
80451W        W23442  34.558  15.935   7.033 -0.0175 -0.0752  0.1021
80452W        W23443  29.074   6.827   6.584 -0.0408  0.4681 -0.0450
80453W        W23444   7.659  33.206   9.086 -0.1318 -0.0474  0.0833
80454W        W23445  32.800  15.740  22.715  0.0186 -0.1286  0.0978
80455W        W23446  21.714  21.075   0.410 -0.0417  0.0706  0.0189
80456W        W23447  32.419   0.983   6.169 -0.0247  0.3786 -0.4107
80457W        W23448   4.911   1.127   1.339  0.3977 -0.3273  0.1081
80458W        W23449  23.038  24.675   7.936 -0.0387 -0.4391 -0.2675
80459W        W23450  22.266   9.337  27.222  0.0039  0.2960  0.0916
80460W        W23451  10.985  14.352  26.178  0.2448 -0.2196 -0.0253
80461W        W23452   6.685   0.805   7.561 -0.1365 -0.1663 -0.0853
80462W        W23453   9.299  34.011   6.671  0.3032 -0.2041 -0.0181
80463W        W23454  22.275  18.133  25.246 -0.2114 -0.2048 -0.1647
80464W        W23455  30.349   2.161  27.717 -0.0396 -0.0384  0.3761
80465W        W23456  17.838   3.070  28.521 -0.1625  0.0635 -0.1041
80466W        W23457  19.226   7.750  21.979  0.0766  0.3348  0.1718
80467W        W23458  16.599   6.971  27.573  0.1476 -0.2670 -0.1507
80468W        W23459   2.102  34.305  16.707 -0.1391 -0.2797  0.0761
80469W        W23460  30.807  16.963  23.991  0.0410  0.2950 -0.0082
80470W        W23461  30.756   8.826   6.437 -0.1048  0.0828 -0.2666
80471W        W23462  11.565  30.407  28.721  0.1577  0.0059 -0.1644
80472W        W23463  17.148  16.339  26.948 -0.0028 -0.2523 -0.0033
80473W        W23464  34.325  12.006  21.163 -0.0343  0.0185  0.1065
80474W        W23465  16.595  18.586  27.956  0.1242  0.0040 -0.0649
80475W        W23466  25.536   8.481   8.312 -0.0869 -0.0830 -0.1835
80476W        W23467   2.864   0.807  17.128 -0.2566  0.3515  0.1375
80477W        W23468   6.751  31.790  28.397  0.1320  0.4536 -0.3223
80478W        W23469  15.646  13.747  25.250  0.0270 -0.0311 -0.0572
80479W        W23470  11.136  12.900  22.202  0.0539  0.1540 -0.1198
80480W        W23471  19.900  14.419  22.794 -0.1117 -0.0722 -0.0230
80481W        W23472  14.099   9.482   9.207 -0.0438 -0.0747  0.1171
80482W        W23473  12.839  11.701  23.624 -0.0695 -0.2711  0.1227
80483W        W23474  19.040  22.515   6.693  0.1228 -0.0261  0.2219
80484W        W23475  10.618  26.767   5.707 -0.1090  0.2134  0.0009
80485W        W23476  12.285  15.319   1.374 -0.0604  0.0434  0.1177
80486W        W23477   8.914   2.321  24.984  0.2998 -0.4898  0.3495
80487W        W23478  27.155   9.241  29.125  0.1394  0.0485 -0.0278
80488W        W23479  25.059  22.423   0.169  0.1753 -0.0665  0.1552
80489W        W23480   7.239  11.966   5.361  0.1692 -0.0396  0.0814
80490W        W23481   3.271  17.801   3.880 -0.0237 -0.1962 -0.1639
80491W        W23482  16.097  11.123   3.939 -0.1646 -0.0183  0.1438
80492W        W23483   8.781  14.693  17.924  0.1896  0.2666  0.3622
80493W        W23484  34.156  24.313   6.901 -0.0207 -0.1107  0.2007
80494W        W23485   2.006  14.386   6.919  0.0055 -0.1529  0.3055
80495W        W23486  11.244  14.172  27.693 -0.0539  0.1100 -0.1507
80496W        W23487  19.382   2.436   1.524 -0.1116 -0.0861  0.0870
80497W        W23488  31.048   0.734   7.700  0.2325  0.1858 -0.2744
80498W        W23489   7.279  21.211   9.469 -0.0655  0.2961 -0.2072
80499W        W23490  17.805  23.573  28.191  0.0137  0.2773 -0.0048
80500W        W23491  27.461  27.475  20.286  0.3496 -0.0342 -0.1569
80501W        W23492  20.492   5.504  21.688  0.1595 -0.5254  0.2425
80502W        W23493   4.872  10.279  20.646 -0.0146  0.1914  0.0668
80503W        W23494   3.446  12.728  22.381 -0.2953  0.1352  0.3708
80504W        W23495  11.212  11.947   8.560  0.4070 -0.3144  0.2518
80505W        W23496  34.133   6.688   2.494 -0.0028 -0.0345 -0.0378
80506W        W23497  22.767  15.671   6.077 -0.1899 -0.0362  0.1793
80507W        W23498   8.189   8.802   4.806 -0.0334  0.3855 -0.1053
80508W        W23499   4.264  34.518   6.175  0.1728  0.0493  0.0422
80509W        W23500   9.562  34.584   8.143 -0.1766 -0.1656  0.0720
80510W        W23501   2.268  24.304  21.973  0.0626  0.0900  0.2167
80511W        W23502  26.372  23.709  15.506 -0.1838 -0.1733 -0.2720
80512W        W23503  15.085  28.035  16.143  0.0205 -0.3999 -0.0859
80513W        W23504   7.646   5.893   5.014  0.1644  0.1418  0.0399
80514W        W23505  20.014  26.014   0.655  0.0773  0.2479  0.0404
80515W        W23506  30.337   0.094   7.789 -0.0221 -0.1593 -0.4269
80516W        W23507  12.628  17.486  25.021 -0.1822  0.0442  0.0433
80517W        W23508  28.846  14.569   9.467 -0.2068  0.0051  0.0281
80518W        W23509  22.436  30.141   0.909 -0.1006  0.3940 -0.0237
80519W        W23510  13.803  14.388   3.565 -0.2283 -0.0214  0.2168
80520W        W23511   0.517  33.511   4.571 -0.1299  0.0145 -0.0585
80521W        W23512  20.143  25.473  15.916  0.0777 -0.1123  0.0263
80522W        W23513  12.326   0.770   6.973  0.2703 -0.0522 -0.1665
80523W        W23514  14.920   5.643   7.608 -0.1306 -0.2672  0.0047
80524W        W23515  12.002   9.909   2.155  0.3252 -0.0472 -0.3433
80525W        W23516  19.205  33.315   0.863 -0.0139  0.1909 -0.0272
80526W        W23517  20.557   7.829  26.053  0.3140  0.0365  0.0345
80527W        W23518   8.554  11.250   5.163 -0.1047 -0.4262  0.0081
80528W        W23519   3.565   1.765   1.722 -0.1396 -0.0140  0.1807
80529W        W23520  12.469  12.677   0.755 -0.0023  0.0986  0.1165
80530W        W23521   9.956  20.319   8.961  0.1096 -0.0479 -0.4110
80531W        W23522  20.024  23.669  29.232 -0.0022  0.0074  0.0849
80532W        W23523  19.473   8.557   5.352  0.1087  0.0449 -0.2194
80533W        W23524  18.493  14.209  28.458 -0.0796  0.0351  0.1183
80534W        W23525  32.525  33.227   8.796 -0.0280 -0.1772 -0.0977
80535W        W23526  10.010  10.245   8.877  0.0097  0.2547 -0.0338
80536W        W23527   0.886  10.478   8.144  0.1324  0.3620  0.0457
80537W        W23528  23.198  11.964   3.551 -0.1212 -0.0709  0.0857
80538W        W23529  11.825  10.118   5.196 -0.2160 -0.2664  0.3335
80539W        W23530  33.912  27.113   6.621  0.2556 -0.1304  0.1442
80540W        W23531  31.362   2.482  27.686  0.2918 -0.1486 -0.1046
80541W        W23532  15.190   5.578  23.923  0.3581  0.1264  0.1140
80542W        W23533  13.522  33.975   9.451  0.0354  0.1129  0.2528
80543W        W23534  10.410   7.182   7.298 -0.3589 -0.1223 -0.0237
80544W        W23535  17.980  13.982  28.356 -0.2271 -0.1614  0.1008
80545W        W23536   7.860  32.125   4.216  0.0185  0.2539  0.2750
80546W        W23537  15.971  23.199  16.854 -0.3974  0.3281  0.2668
80547W        W23538   6.905   3.935  23.973 -0.1728 -0.0668  0.1672
80548W        W23539   5.278  12.637  11.562  0.1402 -0.0860  0.5257
80549W        W23540  22.351  10.118  27.437  0.0285  0.4387 -0.1148
80550W        W23541  16.732  19.675  22.083  0.0421 -0.1283 -0.1308
80551W        W23542   1.040   3.874   7.923 -0.3119  0.1905 -0.0556
80552W        W23543  10.359   0.405   3.604  0.2195  0.2970  0.0686
80553W        W23544   6.131   6.395  22.082 -0.4546 -0.1448 -0.0327
80554W        W23545  12.383  14.863   7.493  0.2373 -0.2533 -0.0519
80555W        W23546   7.052  16.630  18.754 -0.2631 -0.1387 -0.2059
80556W        W23547   0.907  26.469   7.268 -0.2418  0.0657 -0.0497
80557W        W23548  14.591  32.319   1.590  0.3971 -0.1887 -0.1716
80558W        W23549  15.321  34.755   3.738  0.1435  0.0555  0.1314
80559W        W23550   7.392  11.215   8.882  0.0189 -0.1309  0.2449
80560W        W23551  33.619  22.051   6.997  0.0200  0.0252  0.1262
80561W        W23552  15.470  34.254   4.595  0.1525  0.0461 -0.0190
80562W        W23553   0.036   1.518  10.409  0.2473  0.0022  0.0714
80563W        W23554   8.241   7.031   2.145 -0.0400  0.1636  0.1868
80564W        W23555   9.680  24.819   6.423 -0.3567 -0.0676  0.0707
80565W        W23556  27.706   9.960   6.836  0.0097  0.1216 -0.1216
80566W        W23557   2.068  24.120  20.481 -0.2985  0.1745  0.1354
80567W        W23558  12.473   1.924   3.159 -0.2395  0.1706  0.1783
80568W        W23559  21.181   7.266  26.934 -0.0888 -0.0989  0.0787
80569W        W23560  19.791   4.522   8.347 -0.2941  0.1183  0.1900
80570W        W23561  28.683  30.399   8.044  0.0943 -0.0623 -0.0214
80571W        W23562   1.270   9.942   2.641 -0.0120  0.0355 -0.1580
80572W        W23563  18.245  14.459   7.880  0.0639 -0.1481 -0.1686
80573W        W23564   6.823  28.479  19.354  0.0608  0.0648 -0.1500
80574W        W23565   9.785  11.302  29.148  0.0750 -0.0340  0.2325
80575W        W23566   2.383  30.182  20.391  0.2698  0.0499 -0.1883
80576W        W23567  20.253   1.842   3.726  0.0007 -0.1767  0.0500
80577W        W23568   5.572   6.618  24.134  0.2198 -0.0072 -0.1288
80578W        W23569  10.711  16.186   6.730  0.0495 -0.1359  0.0651
80579W        W23570   8.881  10.452  25.401 -0.1237 -0.4201 -0.0717
80580W        W23571  11.454  16.791   3.715 -0.0474  0.1484 -0.0052
80581W        W23572  34.770  27.872   1.838  0.4007  0.0907 -0.0981
80582W        W23573   9.746  14.566   9.389 -0.1816 -0.2763 -0.1017
80583W        W23574  18.983   0.847  21.996  0.2183  0.1621 -0.0558
80584W        W23575  33.111  19.141   4.252 -0.1070  0.1115  0.2199
80585W        W23576  20.064  13.360  24.675  0.1547  0.1099 -0.0708
80586W        W23577  28.173   7.884  24.387 -0.0444 -0.4201  0.0817
80587W        W23578  20.344   7.412  28.995  0.2826  0.2354 -0.2295
80588W        W23579  11.746   4.751   6.453  0.1546 -0.1345 -0.3887
80589W        W23580  18.977   0.265   9.014 -0.0813  0.0574 -0.0566
80590W        W23581   7.745  13.765   1.575 -0.3632  0.0243  0.1862
80591W        W23582   4.932   9.097   9.683 -0.1325 -0.4175 -0.1611
80592W        W23583  12.009   6.568  10.679  0.2431  0.0262 -0.0069
80593W        W23584  11.404   2.805  16.369 -0.1878  0.1583  0.0315
80594W        W23585   7.600  11.219   6.621 -0.2360  0.1132 -0.1383
80595W        W23586  14.873  10.089   3.879  0.0647 -0.1197 -0.1228
80596W        W23587  31.158  30.284   2.749 -0.0050  0.1095  0.2564
80597W        W23588  30.111  13.463   4.946 -0.0111 -0.1577  0.2501
80598W        W23589  14.053  25.097   8.273  0.2579  0.0246  0.0925
80599W        W23590   8.716   4.820  22.124 -0.2104  0.2180 -0.0121
80600W        W23591  30.767  19.610  24.638  0.0641 -0.0887  0.4116
80601W        W23592  19.201   1.273   2.193 -0.1129 -0.1787 -0.1458
80602W        W23593  10.096   9.994   0.757  0.2427  0.2585  0.2760
80603W        W23594  27.156  11.400   9.786  0.1907  0.1629  0.0014
80604W        W23595   8.703   8.250  15.253  0.0318  0.3876  0.0349
80605W        W23596  15.127  24.153  20.899 -0.1220  0.2121 -0.2048
80606W        W23597  32.851  27.807  28.802  0.1161  0.1787 -0.1489
80607W        W23598  11.565   4.655   3.655 -0.0584  0.1662 -0.1078
80608W        W23599  10.902  32.463  26.981 -0.1940  0.1838 -0.1006
80609W        W23600  26.534  14.348  27.281  0.0001 -0.5580 -0.1547
80610W        W23601   2.274   8.878   6.104 -0.4575 -0.2748  0.3461
80611W        W23602  16.503   7.547   0.789  0.0164  0.0234  0.0779
80612W        W23603  12.668   7.174  22.058 -0.1013 -0.1545  0.1040
80613W        W23604  15.860  23.214  23.547 -0.0422 -0.0501 -0.0307
80614W        W23605  12.437  22.114   7.770 -0.1704  0.2060 -0.1638
80615W        W23606   8.752   2.470   6.224 -0.1016  0.0446  0.3276
80616W        W23607   2.678  18.658   8.073  0.3228 -0.1101  0.0095
80617W        W23608  29.745  12.480   0.475 -0.1916 -0.0168  0.0212
80618W        W23609   3.368  13.424   9.641  0.0542  0.0319  0.0363
80619W        W23610  17.188   7.641  20.795 -0.1117  0.2512 -0.0431
80620W        W23611   5.412  13.828   8.978 -0.0292 -0.0746 -0.0606
80621W        W23612  15.281  10.692  24.066 -0.0911 -0.1993 -0.2723
80622W        W23613   2.011   7.166   9.389  0.0433 -0.1909 -0.1587
80623W        W23614   1.344  23.704   5.201  0.0805 -0.2420 -0.0191
80624W        W23615   8.363   4.859   8.770  0.3251 -0.1342  0.0973
80625W        W23616  27.003  31.462  28.643  0.1415  0.1817 -0.3832
80626W        W23617   4.972  12.292   2.496 -0.1356 -0.0673  0.1998
80627W        W23618  10.565  23.427  28.099 -0.2621  0.0457 -0.0743
80628W        W23619  27.894   4.621   6.637 -0.0989 -0.1648 -0.3097
80629W        W23620   9.332  10.271   9.309 -0.1770  0.0632  0.0532
80630W        W23621   8.109  11.691   7.710 -0.1540 -0.4187 -0.0711
80631W        W23622  21.822  32.569  27.609  0.2351  0.2389 -0.1843
80632W        W23623  17.940  14.473   2.512 -0.3718 -0.1386 -0.2289
80633W        W23624  11.449  15.366   4.889 -0.0911 -0.1657  0.1149
80634W        W23625   3.404   1.442   4.196  0.2341 -0.0955  0.0636
80635W        W23626  23.027  10.976   5.786 -0.2190  0.3505  0.3094
80636W        W23627  15.424  12.214   8.970 -0.0595 -0.1645 -0.1207
80637W        W23628  34.035  13.905   3.541  0.1729  0.3947 -0.3895
80638W        W23629  11.203   6.837  25.473 -0.0654 -0.2870  0.0181
80639W        W23630   8.730   7.487   8.262 -0.4210 -0.2890  0.2015
80640W        W23631   9.786  11.256   6.327  0.1383  0.2316 -0.1681
80641W        W23632  22.872  13.869   7.896 -0.4074 -0.1719 -0.0042
80642W        W23633  20.382  11.855  16.582  0.1818  0.3685 -0.1885
80643W        W23634   3.520   1.324   8.061  0.0879 -0.0298  0.0658
80644W        W23635  20.949  14.967  28.570  0.0061  0.4835  0.5135
80645W        W23636   8.339  23.308  10.086 -0.1870  0.0497 -0.1372
80646W        W23637  11.418  11.452  18.113 -0.1653 -0.2535 -0.0804
80647W        W23638  12.690  24.417   9.344  0.1850  0.0252 -0.0383
80648W        W23639  26.028  25.845  25.798 -0.0860  0.0553 -0.2022
80649W        W23640  32.450  26.592   8.948  0.0093 -0.2249 -0.1644
80650W        W23641   7.708  23.622   3.532 -0.0776  0.2015  0.1211
80651W        W23642   2.344  17.376  17.924  0.1919 -0.2137  0.2633
80652W        W23643  31.756  12.492   0.209  0.1114 -0.0403 -0.0818
80653W        W23644  26.550  17.551   9.849 -0.0889  0.0515  0.0536
80654W        W23645  31.329  22.381  24.088 -0.0619 -0.0240 -0.0441
80655W        W23646  32.138  13.985   6.628 -0.3124  0.1500  0.3315
80656W        W23647  33.164  25.328  21.531 -0.2093  0.0480  0.2362
80657W        W23648  18.249  14.174   6.344  0.4828 -0.0863 -0.1492
80658W        W23649   8.899  16.277  28.651 -0.0531 -0.0138  0.1662
80659W        W23650  34.326  11.085   8.814 -0.0052 -0.1328 -0.0200
80660W        W23651  14.947  20.596   4.266 -0.2343  0.1975 -0.1446
80661W        W23652  10.559  20.999   1.062 -0.3475 -0.0611  0.4025
80662W        W23653  29.388  17.295  22.732  0.0178  0.0545 -0.0911
80663W        W23654  29.016  25.862   7.477  0.3029 -0.0074 -0.1026
80664W        W23655   3.416  15.202  11.051  0.1343  0.2368 -0.1775
80665W        W23656   2.985  11.652   8.781 -0.3971 -0.2212  0.3326
80666W        W23657  13.113   6.335  28.043  0.0562  0.0311  0.0179
80667W        W23658   9.765   7.830  23.578 -0.0013  0.0717  0.0272
80668W        W23659  33.327   3.374   7.157  0.1776 -0.0256  0.0517
80669W        W23660  31.012  14.321   4.076 -0.0261  0.2358  0.1338
80670W        W23661   2.183   9.109   4.555  0.0265 -0.1858  0.0745
80671W        W23662   5.304  22.909   6.979  0.0249  0.2545 -0.3920
80672W        W23663   9.868  14.820  28.130 -0.3767  0.1246 -0.0525
80673W        W23664  21.367  16.851  12.640  0.0686  0.0147 -0.1710
80674W        W23665   6.503  10.031   0.475 -0.2456  0.0187  0.1219
80675W        W23666   8.797   4.477   8.088  0.1700  0.3049  0.2395
80676W        W23667  10.948  16.946   3.277  0.0093 -0.0451 -0.0650
80677W        W23668  32.162  24.146   8.576 -0.2769 -0.1270 -0.1896
80678W        W23669  15.254  15.246   4.453  0.0789 -0.0406  0.3605
80679W        W23670   2.476  23.070   6.629 -0.3542  0.1305 -0.1861
80680W        W23671   9.995  15.110   9.619 -0.3815 -0.2190 -0.3692
80681W        W23672   7.554  21.435   6.913  0.0068 -0.0155  0.2127
80682W        W23673   2.953  12.917   8.115  0.0906 -0.2226 -0.2296
80683W        W23674  33.635  17.667  28.627 -0.1640 -0.0329 -0.2064
80684W        W23675  13.712  19.237  21.285  0.0701  0.2754  0.1082
80685W        W23676   5.063  19.808  21.518 -0.2993  0.1310  0.0123
80686W        W23677  32.096  10.492  27.087 -0.0378 -0.4115  0.3181
80687W        W23678  24.149  16.263   1.128 -0.2775  0.0933  0.0331
80688W        W23679   1.253   6.423  21.864  0.2635 -0.2318  0.0140
80689W        W23680  11.077  24.895   7.709  0.1414  0.1207  0.2291
80690W        W23681  13.531  20.232  27.229  0.1094 -0.1285  0.0116
80691W        W23682  22.171  25.139  21.952 -0.3176  0.2107  0.4582
80692W        W23683   6.778  29.080   1.178  0.0318  0.0149 -0.1925
80693W        W23684   5.105  13.748   7.416 -0.0381  0.3621  0.0481
80694W        W23685  15.244   9.330   3.756  0.0433  0.0701  0.1178
80695W        W23686  13.417  20.739   3.909  0.0459  0.1374  0.0584
80696W        W23687  30.149  24.368  27.925 -0.0379 -0.0972 -0.1187
80697W        W23688   7.278  13.115  19.484  0.1848 -0.2184 -0.1783
80698W        W23689   5.159  28.453   1.081 -0.1089  0.2494 -0.0890
80699W        W23690  21.371  14.318   5.266 -0.0492  0.1618  0.1069
80700W        W23691  12.639   7.159   6.249  0.0582  0.0679  0.2547
80701W        W23692  25.232   8.070   8.379  0.1483 -0.0814  0.3521
80702W        W23693  30.557  16.908   9.387 -0.0985 -0.0418  0.0980
80703W        W23694  15.152  15.412  27.910 -0.1400  0.0331 -0.0880
80704W        W23695   5.635   6.580  11.057  0.0906 -0.0638 -0.2467
80705W        W23696  10.043   9.695  11.464  0.1825 -0.2602 -0.0376
80706W        W23697  30.229  16.706   6.785 -0.1266  0.1348  0.1102
80707W        W23698   4.415  29.248  14.609  0.1172  0.0187 -0.1237
80708W        W23699  31.067  11.093   4.079  0.2184  0.0125  0.0310
80709W        W23700  16.247  14.994   9.501  0.1150  0.0817  0.0760
80710W        W23701  15.869  16.785   4.785  0.0943  0.2749  0.0981
80711W        W23702   9.391  28.447   5.821  0.0503 -0.0592  0.1468
80712W        W23703   0.471  15.630  23.584 -0.0036 -0.1474  0.0725
80713W        W23704  13.503   9.459  27.368  0.3446 -0.0298 -0.0947
80714W        W23705  15.097  18.071   2.250 -0.0575 -0.2592 -0.1453
80715W        W23706   6.330   8.286   3.499  0.0177  0.0618 -0.2723
80716W        W23707   1.385  15.272   5.410 -0.1857  0.3138 -0.2379
80717W        W23708   7.046   9.060   7.124  0.0420  0.2269 -0.1263
80718W        W23709  15.988  19.654   4.696  0.1694  0.0823 -0.3221
80719W        W23710  19.149  20.639   1.924  0.4712  0.0372  0.2195
80720W        W23711   6.614   6.437  28.450 -0.1661 -0.0422 -0.2889
80721W        W23712   5.033   0.169  27.385 -0.0776  0.2651  0.2334
80722W        W23713   9.834  24.479  28.427  0.1937  0.3764  0.0863
80723W        W23714   9.948  14.121   9.386 -0.1998  0.0010 -0.1648
80724W        W23715  16.480  15.416  27.575  0.3554 -0.2975  0.1570
80725W        W23716   4.950  34.689   8.082  0.2674  0.0918  0.0375
80726W        W23717  15.860   3.967   2.250 -0.0276 -0.0721  0.0246
80727W        W23718   2.918  11.360   4.193  0.2829  0.1488 -0.0395
80728W        W23719  24.034   2.913   8.460  0.0084  0.1155  0.2410
80729W        W23720  10.531  26.037  25.171 -0.1344  0.1644 -0.3004
80730W        W23721  15.857   6.656   3.185  0.0146 -0.0085 -0.1468
80731W        W23722  14.863  17.722  24.070 -0.3890 -0.0105 -0.2197
80732W        W23723   4.962  13.847   2.992 -0.0968 -0.0715 -0.0351
80733W        W23724  32.109  12.969   5.428 -0.1113 -0.1355  0.0062
80734W        W23725  14.697  24.273   8.859  0.1342 -0.0452 -0.1313
80735W        W23726  29.412   4.248   7.529  0.0392 -0.0382  0.0575
80736W        W23727  27.444  10.190   9.351 -0.1268  0.0806  0.1978
80737W        W23728   2.572  19.857   4.992 -0.1029  0.4582 -0.1173
80738W        W23729  12.142  17.839   4.304 -0.1053  0.0460  0.1257
80739W        W23730  12.262  17.007  25.801  0.1925  0.0955  0.1684
80740W        W23731  14.458  27.540   6.947  0.1371 -0.1075 -0.5463
80741W        W23732  34.511   9.718   6.294  0.0627  0.1011  0.1089
80742W        W23733   0.403   9.056  23.081  0.1259  0.0503  0.0031
80743W        W23734  28.982  17.902   6.257  0.0916 -0.1372 -0.2269
80744W        W23735  14.797  18.790   4.168 -0.0251 -0.0531  0.1455
80745W        W23736  29.230  29.438  16.456  0.2461 -0.4905  0.0126
80746W        W23737  34.225  14.909   2.431  0.2202 -0.0269  0.0141
80747W        W23738   9.076  32.086  25.327  0.2188  0.0720 -0.0969
80748W        W23739  14.436   1.156   3.927 -0.0210 -0.2581 -0.1977
80749W        W23740  11.779  16.643   2.045  0.2314 -0.0513  0.1112
80750W        W23741   6.944   4.372  23.741 -0.2917  0.1478 -0.0927
80751W        W23742   9.032   4.779   5.333 -0.1007  0.0333 -0.1597
80752W        W23743  14.289  14.333   1.394  0.1368 -0.2876 -0.0639
80753W        W23744   9.786  23.860  28.079  0.1152 -0.1329  0.0328
80754W        W23745  19.552   8.191   8.977  0.0657  0.0324  0.2623
80755W        W23746  16.468  30.079  24.679 -0.0738 -0.0127 -0.1614
80756W        W23747  14.548   9.822  28.387 -0.1247  0.1234 -0.1102
80757W        W23748  26.741   2.935  21.464 -0.1844  0.1356  0.2610
80758W        W23749  11.352  25.448  28.252  0.0899 -0.0904 -0.0464
80759W        W23750  19.663  24.502   1.627  0.2209  0.0569 -0.0670
80760W        W23751  33.399  26.560  29.195  0.2854  0.0152  0.0044
80761W        W23752   5.720  29.784  24.562  0.1030  0.0986  0.0173
80762W        W23753  12.044  17.410  27.087 -0.3446  0.0244 -0.3440
80763W        W23754  19.552  22.680   5.907 -0.3269  0.1845 -0.2026
80764W        W23755   3.635  13.009   1.804 -0.0369  0.1443  0.1062
80765W        W23756  15.752  32.378  18.700 -0.3225  0.0214  0.0275
80766W        W23757  17.057  11.549   0.207  0.1215  0.2715  0.0309
80767W        W23758   7.419  12.447   8.500 -0.0763 -0.0631  0.2789
80768W        W23759  24.905  22.348   8.847  0.2015  0.1624  0.1114
80769W        W23760   3.075  11.165   9.012 -0.1004  0.1770 -0.2195
80770W        W23761   5.192   2.031   0.842 -0.2271  0.1508 -0.0498
80771W        W23762  33.684  12.130   1.977  0.0398 -0.1198  0.0150
80772W        W23763  28.668  20.603   2.017 -0.1263  0.1466 -0.1837
80773W        W23764   3.992   9.144   1.650 -0.1682  0.0400  0.1001
80774W        W23765   2.865   5.939  27.854  0.0286 -0.1870  0.1402
80775W        W23766  24.217  20.590   0.734 -0.0424 -0.0822 -0.1075
80776W        W23767  16.747  25.684   8.631 -0.0877  0.0619  0.1284
80777W        W23768   6.181  22.385   6.862 -0.1043 -0.2023 -0.0552
80778W        W23769   0.987  23.249  24.092  0.0445  0.1123 -0.0845
80779W        W23770  29.975  28.621  22.258  0.0449  0.2933 -0.0796
80780W        W23771   9.674  29.498   9.455  0.0702 -0.0846  0.2483
80781W        W23772  19.458  34.132  29.263 -0.1868 -0.0377 -0.2811
80782W        W23773  16.953  23.727   6.321  0.0514  0.0479 -0.0290
80783W        W23774  24.381   5.493   9.642  0.1483  0.0303  0.1019
80784W        W23775  18.230  14.072   1.460  0.1171  0.0442  0.0270
80785W        W23776  17.549  22.640  20.709 -0.2426  0.0786 -0.2572
80786W        W23777  10.655   8.831  19.437  0.2661 -0.0320 -0.2479
80787W        W23778  10.227   4.949   6.395  0.0732 -0.1902  0.1836
80788W        W23779  15.275   2.134   5.751  0.0588 -0.0887 -0.0827
80789W        W23780  31.137   3.640   2.387  0.0105  0.1440  0.0207
80790W        W23781  27.641  12.895   0.197  0.0494 -0.0828 -0.4950
80791W        W23782   4.347   5.612   9.539 -0.0642  0.3239 -0.1590
80792W        W23783  13.804  19.924  22.736  0.1760 -0.1111  0.1387
80793W        W23784   2.340   7.641  16.191  0.2735 -0.1646 -0.0892
80794W        W23785  19.779  33.498  20.795  0.0998  0.0315 -0.1708
80795W        W23786   3.963  19.720   3.017  0.1219  0.1174  0.1009
80796W        W23787   8.036   7.619   6.525 -0.1402 -0.0453 -0.4116
80797W        W23788   7.887  34.031   9.269 -0.1887 -0.2402 -0.1434
80798W        W23789   1.174  24.969   8.631 -0.1825 -0.0485  0.1947
80799W        W23790  14.228  10.167   8.440  0.1214  0.1084 -0.1354
80800W        W23791   9.281  15.975   6.757  0.0673 -0.1536  0.0482
80801W        W23792  11.073  15.567   9.833  0.2159 -0.2705  0.0650
80802W        W23793  23.478  19.490   7.810  0.3357 -0.0243 -0.2486
80803W        W23794  14.290  33.988   4.934  0.0873 -0.3244 -0.1048
80804W        W23795   9.838   1.481   8.892 -0.0996  0.0991 -0.3711
80805W        W23796  17.855   5.281  14.752  0.1963 -0.2653 -0.4045
80806W        W23797  11.968   6.332  19.608 -0.1907 -0.3450 -0.0028
80807W        W23798  22.059   8.199   4.671 -0.2091 -0.2372 -0.2199
80808W        W23799  16.256   7.338   8.580 -0.1114 -0.0855  0.0209
80809W        W23800  10.528  16.396   2.502  0.1361  0.0258 -0.1727
80810W        W23801  16.772  24.627  29.239 -0.2027  0.2007  0.0109
80811W        W23802  19.054   6.406  28.711  0.0939  0.0664 -0.0910
80812W        W23803   4.776  21.522  26.940  0.2868 -0.1751 -0.2079
80813W        W23804   7.327  17.055  24.162  0.0807  0.2166 -0.0957
80814W        W23805  12.223  10.377  10.081  0.0130  0.1839  0.0635
80815W        W23806   1.814  15.932  23.891 -0.0957 -0.0530 -0.0007
80816W        W23807  25.013  33.608   6.238  0.2205 -0.0210  0.1270
80817W        W23808  31.554  22.468   4.084  0.1635 -0.2746  0.2277
80818W        W23809   4.122   7.941   7.550 -0.0506 -0.0275  0.0966
80819W        W23810  21.740   0.251   0.069  0.5182  0.0243  0.1008
80820W        W23811  18.716  12.293   5.742  0.2387 -0.1128 -0.2314
80821W        W23812  20.868  15.370   2.164  0.1369 -0.0135  0.2641
80822W        W23813   0.612  22.000  10.516  0.1253 -0.1543  0.0494
80823W        W23814   4.489  17.207  26.755 -0.1741  0.3462  0.0141
80824W        W23815   3.182  19.470  28.943 -0.1966 -0.0364 -0.4479
80825W        W23816   2.203  20.878   5.197  0.0661  0.1674 -0.0856
80826W        W23817  23.635  13.315  17.886 -0.0337  0.2381  0.1240
80827W        W23818   7.335  24.374   7.137  0.3274  0.0887 -0.2964
80828W        W23819   0.189  28.591   8.429  0.2998 -0.0207  0.1959
80829W        W23820   9.389  32.719  24.974 -0.1481 -0.3063  0.2364
80830W        W23821   9.494  22.366  29.008  0.3696 -0.2913 -0.2559
80831W        W23822   8.546  15.336   6.912  0.3633  0.0294 -0.0817
80832W        W23823  12.616  33.221   9.327  0.0126  0.2289  0.3810
80833W        W23824  34.777  33.307   6.564 -0.0107  0.2757  0.0731
80834W        W23825   4.966  14.438   1.456  0.0560  0.0339  0.0240
80835W        W23826   1.011   5.299  22.195  0.0158 -0.0540 -0.2668
80836W        W23827  28.600  16.651   5.913 -0.2410  0.1093 -0.0211
80837W        W23828  27.269  23.234   6.177  0.3351 -0.1030 -0.0604
80838W        W23829  10.393  33.310  23.515 -0.3079  0.2090  0.1557
80839W        W23830   3.364   7.195   5.426 -0.0584  0.0394 -0.1348
80840W        W23831  11.963  14.424   5.163 -0.5192  0.4249  0.0384
80841W        W23832   9.481  13.990   8.861 -0.0095  0.1853  0.3836
80842W        W23833  19.396  20.778   6.614  0.0536  0.2553  0.0767
80843W        W23834  32.322  15.865   4.891  0.1388 -0.4809 -0.1798
80844W        W23835  10.009  20.479   7.485 -0.0091 -0.0476  0.2508
80845W        W23836  13.584  32.001   8.329 -0.0928  0.1267  0.1196
80846W        W23837  32.923  22.221   8.645  0.0555  0.2161  0.3913
80847W        W23838   8.065  16.259   7.511 -0.1267 -0.0988  0.2524
80848W        W23839   5.761   2.622  25.344  0.2063  0.0270 -0.3607
80849W        W23840   4.253   8.476   8.518  0.5800 -0.2767  0.0044
80850W        W23841  16.873  11.454   6.012  0.1081  0.0069 -0.1670
80851W        W23842   4.561  14.332   3.299 -0.1294  0.1626  0.0251
80852W        W23843   8.216  26.771   0.168  0.0626  0.0099  0.2550
80853W        W23844   6.533  11.373   5.238 -0.1039 -0.1806  0.1955
80854W        W23845  18.872  16.029  24.423 -0.3561 -0.1345 -0.2236
80855W        W23846   8.688  26.814   5.933 -0.6050 -0.0621  0.0568
80856W        W23847   8.738  24.211   7.841 -0.0175  0.1544 -0.1310
80857W        W23848  17.183   6.205  26.874  0.0835 -0.0819  0.0209
80858W        W23849  28.834   7.576  22.192 -0.3124  0.1623  0.0851
80859W        W23850  10.180   3.415   8.208 -0.1531  0.1778  0.2634
80860W        W23851  10.220  30.503   2.616 -0.0801 -0.0753 -0.1250
80861W        W23852   7.527   9.870   3.420  0.1098  0.0369  0.0476
80862W        W23853   7.591   1.802   8.314  0.1920 -0.1076 -0.0303
80863W        W23854   9.978   0.818   7.911  0.1559 -0.2758  0.0590
80864W        W23855  12.493  16.676   6.075  0.3076 -0.1143 -0.0061
80865W        W23856  18.260  25.506  28.716  0.0779 -0.2461 -0.2340
80866W        W23857  18.202  24.336   3.477 -0.0910  0.1646 -0.1269
80867W        W23858   7.089   4.074   7.653 -0.3126  0.1357  0.2473
80868W        W23859   8.689  18.874   3.363 -0.1564 -0.1679  0.2842
80869W        W23860  10.893  12.914  10.660 -0.2103 -0.2350 -0.1070
80870W        W23861  12.328  12.661   3.521  0.0018 -0.2496 -0.1126
80871W        W23862  10.401  28.991   2.935 -0.1457 -0.0272 -0.3902
80872W        W23863  12.190   6.625   0.535 -0.0183  0.0543 -0.0604
80873W        W23864   7.460  10.040  28.757  0.1208 -0.2016 -0.0461
80874W        W23865  29.821   8.397   7.078 -0.0076  0.1852 -0.0906
80875W        W23866  15.715  21.988  27.132 -0.2132  0.0178 -0.2768
80876W        W23867   1.879   9.084   0.169 -0.0210  0.3007  0.4388
80877W        W23868  19.748   5.646   9.263  0.3661 -0.3443  0.2651
80878W        W23869   7.298  11.331  27.686 -0.0537 -0.1541 -0.0484
80879W        W23870   8.492   3.645  10.131  0.2577  0.1625  0.0188
80880W        W23871  18.321   9.098   1.141 -0.1343 -0.1513  0.1089
80881W        W23872   2.367   6.039  25.231  0.2288  0.0767 -0.0458
80882W        W23873  31.133  34.173  22.781  0.0077  0.0427  0.4656
80883W        W23874  11.368   5.976   5.649  0.2291  0.2131  0.0917
80884W        W23875   7.477  13.905   7.012  0.2435  0.1902 -0.1261
80885W        W23876   8.008   3.985  25.241  0.4458  0.0388 -0.0576
80886W        W23877   3.091  14.856  12.042 -0.3374 -0.0828 -0.2623
80887W        W23878  17.182  22.828  16.547 -0.1907 -0.2383  0.1292
80888W        W23879   8.216  17.567   4.188  0.1620 -0.3054  0.3530
80889W        W23880   4.206  20.591   7.569 -0.2186  0.1453 -0.2803
80890W        W23881  12.450  17.263   2.986 -0.2017 -0.0428  0.2808
80891W        W23882  23.109   5.174  24.577 -0.3090 -0.3839  0.0024
80892W        W23883   6.807  16.959   6.515  0.1780 -0.3824 -0.2009
80893W        W23884  14.815  18.052  23.126 -0.0206 -0.2348  0.3375
80894W        W23885   7.028  16.100  28.839  0.0756  0.0087  0.1509
80895W        W23886   5.065  20.029  10.691 -0.0080  0.1626  0.1165
80896W        W23887  24.274  12.316  18.902  0.1004 -0.0191 -0.2382
80897W        W23888  12.854   9.663  16.191  0.1138  0.1542  0.4293
80898W        W23889  32.649  16.464   8.672  0.0175  0.4157  0.1420
80899W        W23890   6.570   9.011   2.537  0.0092  0.2716 -0.2293
80900W        W23891  15.566  16.875   3.501  0.1224  0.1138 -0.1571
80901W        W23892   2.754   8.598  29.060  0.1595  0.0712  0.2929
80902W        W23893  16.045  22.869   0.205  0.3377  0.2220  0.0929
80903W        W23894   2.107  21.760   9.864 -0.1667  0.1130 -0.1632
80904W        W23895   5.234   5.409   8.994 -0.2539 -0.2462  0.1226
80905W        W23896   8.189  12.127   3.602 -0.1895 -0.0912  0.1611
80906W        W23897   0.013  10.759  19.011 -0.2071 -0.0459  0.1718
80907W        W23898  12.998   8.703   8.571  0.0871 -0.0449 -0.1178
80908W        W23899  34.154  14.782  27.577  0.0355 -0.2288  0.1486
80909W        W23900   5.928   8.021   9.821  0.0917 -0.2485 -0.0166
80910W        W23901  31.120  31.518   6.066 -0.1137 -0.1380 -0.2194
80911W        W23902  18.467   7.715  25.253 -0.0599  0.2215  0.0449
80912W        W23903  21.426  14.334   6.040 -0.2677  0.3579  0.1294
80913W        W23904   7.807  11.783   2.717 -0.2684  0.0750  0.0020
80914W        W23905  28.733   2.027   3.084  0.2253 -0.1345 -0.1019
80915W        W23906  13.554  14.371  15.274 -0.4356  0.0385  0.1614
80916W        W23907   4.961  16.413  23.942 -0.1925 -0.0308 -0.0732
80917W        W23908   9.216  10.128  28.045 -0.1630 -0.1559  0.3741
80918W        W23909   8.044   2.632  22.134  0.0498  0.2371  0.0489
80919W        W23910   8.673  12.449   9.399  0.2374  0.1779  0.2111
80920W        W23911  15.403  10.538  16.622 -0.0096  0.2248  0.0606
80921W        W23912  21.165  17.378   8.398  0.1200 -0.4609  0.1906
80922W        W23913  23.797  10.714   7.438 -0.0256  0.1777  0.4176
80923W        W23914  24.788  20.783   1.270 -0.0501 -0.0366  0.2396
80924W        W23915  19.980  16.514   1.551 -0.1799  0.0424 -0.1299
80925W        W23916   7.796  20.037   5.780  0.1027  0.0118  0.1184
80926W        W23917   0.773   0.748  25.932 -0.1962  0.1668 -0.0790
80927W        W23918   2.914  22.574   9.703  0.0555 -0.3548  0.1992
80928W        W23919   0.017  15.819  21.514 -0.2312 -0.2747 -0.2330
80929W        W23920  12.377  22.079   6.521 -0.0443  0.1248  0.0394
80930W        W23921   7.491   7.645  23.207 -0.0941  0.1780  0.0048
80931W        W23922   8.319  18.071   0.667  0.4027  0.0615 -0.1306
80932W        W23923  18.556   2.954   8.220 -0.1813  0.3438 -0.0523
80933W        W23924   6.499  18.830   4.065  0.1004  0.2686  0.3556
80934W        W23925  22.356  31.655   4.987  0.0285  0.1286 -0.4203
80935W        W23926  33.190  12.418   9.751 -0.4375  0.0047  0.0517
80936W        W23927   7.428  19.312   6.752  0.1134 -0.1320 -0.0248
80937W        W23928  32.996  20.535   6.749 -0.0470 -0.1942 -0.0492
80938W        W23929  34.469  19.878   0.625 -0.1514 -0.1703  0.1365
80939W        W23930   0.933   5.358   3.475  0.1450 -0.1645 -0.1048
80940W        W23931   3.133  15.259   6.577 -0.0985  0.1088  0.0814
80941W        W23932  25.129  33.790   8.922 -0.0811 -0.0454  0.2298
80942W        W23933   3.465  33.915   1.476  0.1122 -0.1065  0.1721
80943W        W23934  11.555   4.786  20.699  0.1104  0.0203  0.2342
80944W        W23935  15.670  19.641   2.614 -0.2175 -0.2063  0.0943
80945W        W23936   4.314   4.448   8.844  0.2439  0.0104 -0.1386
80946W        W23937  17.349   5.081   6.152 -0.0543  0.1281  0.1823
80947W        W23938   6.447  10.068  27.577  0.0836  0.2183  0.1094
80948W        W23939   9.234  33.421   9.291  0.1543  0.2494 -0.2112
80949W        W23940  15.886  25.191  25.309 -0.1682 -0.0364 -0.3167
80950W        W23941  13.154  24.792   1.066 -0.2308 -0.1708  0.0100
80951W        W23942  26.859   4.724   5.989 -0.1689 -0.0252 -0.1412
80952W        W23943  10.813   8.992   0.601  0.0138  0.1501 -0.2480
80953W        W23944  32.844  23.394   5.298 -0.0323  0.2086  0.0381
80954W        W23945   6.520   5.597   8.484 -0.0220 -0.3993 -0.1845
80955W        W23946   4.495   2.658   7.308 -0.0970  0.0188  0.1201
80956W        W23947  10.750   6.631  28.215 -0.1600  0.1134 -0.2002
80957W        W23948  25.687  17.611  10.021 -0.1365 -0.0890  0.1017
80958W        W23949   7.161  15.738   3.111 -0.1667 -0.0443 -0.0129
80959W        W23950  13.886  10.444   9.375  0.2664  0.2155 -0.0122
80960W        W23951  30.501  13.876  10.157  0.2218 -0.3126 -0.1984
80961W        W23952  13.290  24.887   5.305 -0.1959  0.1047 -0.1551
80962W        W23953   9.442   3.935   6.217 -0.1428  0.0513  0.1652
80963W        W23954  16.527  10.841  23.856  0.0707 -0.1229  0.0467
80964W        W23955   7.427   6.153   8.339  0.0823  0.2457 -0.1416
80965W        W23956   9.538  25.220   2.671 -0.1371 -0.0197 -0.1218
80966W        W23957  11.981  23.260   2.132 -0.0313  0.0525 -0.1905
80967W        W23958  13.211  10.600  10.220  0.1197 -0.1797 -0.0751
80968W        W23959   1.846   2.132  28.712 -0.1699 -0.0406 -0.1495
80969W        W23960  16.287  22.696  16.674  0.0657 -0.1078 -0.0058
80970W        W23961  13.963  23.098   2.003 -0.1361 -0.0020  0.2101
80971W        W23962   4.578   3.284  21.811  0.3249 -0.4125  0.1696
80972W        W23963  31.836  25.306   4.957 -0.0276 -0.0448 -0.2880
80973W        W23964  12.229   6.095   0.536 -0.0065  0.0330 -0.0019
80974W        W23965   8.697  12.774   9.825 -0.2992 -0.1941 -0.3305
80975W        W23966  30.463  33.915   5.458 -0.0798  0.0148  0.1387
80976W        W23967  19.420  21.619   6.726  0.1601  0.3993 -0.0839
80977W        W23968  12.450  20.880   4.096 -0.0145  0.0164 -0.1450
80978W        W23969  12.153   6.507   4.092 -0.0912 -0.0601 -0.1222
80979W        W23970   7.540  20.330   3.408  0.2066  0.1907  0.0920
80980W        W23971  13.743   4.235   9.670 -0.1769 -0.1383 -0.3037
80981W        W23972  21.590  23.769   6.870  0.1013  0.0486  0.3947
80982W        W23973  10.217  21.056   2.444 -0.0147 -0.3290  0.0704
80983W        W23974  12.803  17.129   8.984 -0.1487  0.1873 -0.0217
80984W        W23975   1.073  11.623   8.831 -0.4442  0.2853 -0.1535
80985W        W23976   3.239   0.900  16.052  0.0143 -0.2955  0.2700
80986W        W23977   7.875   7.100  19.897 -0.0503  0.2338  0.1764
80987W        W23978   3.294  18.578   5.072  0.1429  0.0783 -0.3282
80988W        W23979   7.163  20.797  19.214  0.1989  0.0041  0.4452
80989W        W23980  31.065  26.519   8.692 -0.5161 -0.1545  0.1290
80990W        W23981  15.895   9.633  10.413 -0.4564 -0.1980 -0.3732
80991W        W23982   3.572  12.534   9.330  0.0988 -0.0450  0.0941
80992W        W23983  27.862   4.981   3.478  0.2799  0.0536 -0.0167
80993W        W23984  12.457  16.461   9.517  0.0938  0.1091  0.0582
80994W        W23985   1.224   3.524  26.821  0.1620 -0.1797 -0.1821
80995W        W23986   8.089   4.458   3.850  0.2713  0.0220 -0.2808
80996W        W23987   7.320   7.832   8.105 -0.0496  0.1163 -0.1750
80997W        W23988   7.957   5.964  28.077  0.0634  0.0973  0.1942
80998W        W23989   3.520  21.849  23.252 -0.1542 -0.0150  0.0973
80999W        W23990  21.118   5.525   7.295 -0.0382  0.1308 -0.1189
81000W        W23991   7.777  22.751   9.050  0.1687 -0.2519 -0.2905
81001W        W23992  10.354  34.081   4.786 -0.0586 -0.2661 -0.0675
81002W        W23993   5.326  23.704   0.125  0.0199  0.2209 -0.2890
81003W        W23994   6.002   0.048   3.105  0.0787  0.0872  0.0849
81004W        W23995   6.001  16.392   8.038 -0.0771  0.0139 -0.0395
81005W        W23996   5.740  14.327  25.947 -0.2013  0.0892  0.2828
81006W        W23997  15.796  16.812  24.176 -0.1119  0.0583  0.1173
81007W        W23998   8.565  11.270  10.320 -0.0784  0.2442  0.1064
81008W        W23999   0.197  10.055  10.745  0.2017  0.0525 -0.0223
81009W        W24000  16.796  33.209  25.762 -0.2296  0.0685 -0.0089
81010W        W24001  16.061  26.190   6.461 -0.1889  0.0760  0.0047
81011W        W24002  11.173  34.512   4.985  0.0249 -0.1071 -0.0542
81012W        W24003  11.836  15.315   3.644  0.4851  0.3613 -0.1010
81013W        W24004  32.732  29.792   0.201 -0.0288 -0.0001  0.0389
81014W        W24005  11.684   6.044   4.744 -0.1789  0.0581 -0.1041
81015W        W24006   6.641   8.810  10.118  0.2607  0.2015 -0.1798
81016W        W24007  16.543  11.413   4.598  0.0941 -0.1644 -0.1766
81017W        W24008  29.794  12.018   8.633 -0.0584 -0.1123  0.1133
81018W        W24009   0.456   6.274   7.082 -0.1871 -0.0204 -0.3193
81019W        W24010  16.431  19.822  25.370  0.1490 -0.0834  0.1971
81020W        W24011  26.716  23.826   7.957 -0.2864 -0.1650 -0.2892
81021W        W24012  11.094  26.259  19.376 -0.0844  0.0183  0.0601
81022W        W24013  34.603   2.253   2.051  0.3795  0.2346  0.1019
81023W        W24014  23.431  26.436  28.573 -0.2279  0.1384 -0.0284
81024W        W24015   1.768  10.218   4.479  0.0137 -0.1220  0.0665
81025W        W24016  12.816  27.729   2.125 -0.1086  0.2874  0.0764
81026W        W24017   9.662   0.538   8.759 -0.2987 -0.3647  0.1848
81027W        W24018   1.066  32.688   0.766 -0.1745  0.0041  0.1288
81028W        W24019   2.316   6.056  11.047 -0.2945 -0.3268  0.5356
81029W        W24020  25.752   7.846   2.328  0.1071  0.0296  0.0135
81030W        W24021   6.845   7.593  11.286 -0.1963  0.1726 -0.0246
81031W        W24022  34.380  19.569  10.741  0.3112  0.0510  0.1031
81032W        W24023   6.109  19.281  21.826 -0.1290  0.1088  0.1240
81033W        W24024  33.747   7.294   5.444 -0.1833 -0.2303 -0.4289
81034W        W24025  15.413   0.718  26.590  0.1284 -0.0738 -0.1121
81035W        W24026  29.940  29.862   3.063  0.0707  0.1197 -0.1706
81036W        W24027   7.928  14.301   7.500  0.0414 -0.1761  0.0964
81037W        W24028   7.110   9.086   6.133 -0.0277 -0.2417 -0.0352
81038W        W24029  26.823  16.254   8.260  0.3913 -0.2766 -0.0979
81039W        W24030   6.242  12.468   1.825 -0.6253 -0.2427 -0.2692
81040W        W24031   7.158  12.317  26.445  0.3808  0.0779 -0.0670
81041W        W24032  12.741  16.086   7.047  0.0085  0.2445 -0.1028
81042W        W24033  15.919  11.521   6.850  0.0553 -0.0920  0.1117
81043W        W24034  17.021   6.577   9.903 -0.1319 -0.1869  0.4217
81044W        W24035   0.866  12.673   2.974 -0.0179 -0.1492  0.1108
81045W        W24036  10.957   5.996   1.580 -0.0169  0.3146 -0.1070
81046W        W24037   8.657  11.505  28.789  0.1003  0.1784 -0.6562
81047W        W24038  25.303  11.560   0.948  0.1920 -0.0614 -0.2608
81048W        W24039  20.364  32.063   6.825 -0.2493  0.2217 -0.2056
81049W        W24040  22.665  12.393  17.657 -0.0908  0.0894 -0.3036
81050W        W24041  18.104   9.395  27.896 -0.0599  0.1807  0.2177
81051W        W24042  26.122  17.005   8.221 -0.1692 -0.0880  0.0251
81052W        W24043  31.668  22.519   1.516 -0.0672  0.1603  0.3017
81053W        W24044  22.724  12.304   6.271  0.4195  0.1998  0.1783
81054W        W24045  28.447  13.087  10.243 -0.2860 -0.3587 -0.1406
81055W        W24046  13.643  31.016   9.321 -0.2833 -0.0379  0.1045
81056W        W24047  14.135  22.130   8.912  0.2535  0.4579 -0.4256
81057W        W24048  12.652  27.264  20.120 -0.1045 -0.0264  0.1211
81058W        W24049  34.298   7.207   8.724 -0.0105 -0.0937  0.0488
81059W        W24050  31.496  13.364  29.020 -0.1701  0.2169  0.0722
81060W        W24051  16.904  20.520   4.172  0.1978  0.2007 -0.1401
81061W        W24052   5.472   9.853  16.346  0.0349 -0.0247 -0.2503
81062W        W24053  20.071   8.971  28.402  0.1217  0.0878  0.3018
81063W        W24054   2.912  16.683   3.420 -0.0029  0.2674 -0.4111
81064W        W24055  16.558   0.417   6.068 -0.1271 -0.1150  0.0860
81065W        W24056   1.989  20.147   4.311 -0.3178 -0.2339 -0.1201
81066W        W24057  33.509  10.439  27.989  0.0614 -0.0950  0.3433
81067W        W24058  15.143   2.880  25.043 -0.0765  0.1317  0.0001
81068W        W24059  16.651   8.792  27.511 -0.1072 -0.2383  0.3005
81069W        W24060   2.913  12.321  11.823  0.2510  0.1985 -0.1174
81070W        W24061   0.487  12.428   5.385 -0.0606  0.2425 -0.0257
81071W        W24062   5.582   4.346   3.666  0.1953 -0.1674  0.0695
81072W        W24063   4.108  16.205  21.996  0.2586 -0.2963  0.1622
81073W        W24064  13.284  10.570  11.105  0.1741 -0.0327  0.1889
81074W        W24065  14.959  24.792   2.956  0.1898  0.0885  0.3646
81075W        W24066   8.575  17.250  22.166  0.2231  0.1411 -0.3805
81076W        W24067  29.755   0.860   7.197  0.2622  0.2462  0.1988
81077W        W24068   2.649  13.542   8.750 -0.0275  0.0422  0.1598
81078W        W24069  34.700  15.028  20.408  0.0124 -0.0249 -0.2261
81079W        W24070  13.741  12.618   3.429 -0.2408  0.3345  0.1656
81080W        W24071   6.801  10.018   6.942  0.0972  0.0259  0.4089
81081W        W24072  13.680   7.069  10.491 -0.1147 -0.2782 -0.1114
81082W        W24073  16.467  27.337   4.655 -0.1015 -0.1407 -0.1341
81083W        W24074   7.130   6.251   3.689  0.2414  0.2178  0.1252
81084W        W24075  22.573  24.368  23.428 -0.1395  0.1660 -0.2493
81085W        W24076  21.416  16.378   5.903  0.0028  0.1535  0.0636
81086W        W24077  23.600   6.181   5.152 -0.1034  0.1743 -0.1121
81087W        W24078  12.604   8.942  21.295 -0.0057 -0.2649 -0.0720
81088W        W24079   4.159   7.032   2.276 -0.0829 -0.2691  0.2781
81089W        W24080  12.231   4.013   8.423 -0.0005 -0.2352  0.0360
81090W        W24081   3.489   4.532  27.663 -0.0950 -0.0026  0.0405
81091W        W24082  32.251  31.936  21.350  0.1258 -0.2135  0.0167
81092W        W24083  27.151   5.345  25.789  0.2135 -0.2437 -0.0344
81093W        W24084  18.189   7.440   6.614 -0.1123 -0.3792 -0.0270
81094W        W24085   8.278  18.005   8.259  0.2785 -0.0006 -0.2098
81095W        W24086   1.957  17.020  28.380  0.0861 -0.0067 -0.2267
81096W        W24087   9.960  12.555   4.365  0.1618  0.0350 -0.0539
81097W        W24088  17.920  15.166   6.933 -0.0891 -0.0746 -0.0882
81098W        W24089   7.125  33.124  17.665  0.0842  0.0672 -0.0600
81099W        W24090   7.950   1.826   4.331 -0.0004  0.0985 -0.0222
81100W        W24091  18.579  16.377  23.554 -0.0930 -0.3155  0.1305
81101W        W24092  34.381  15.117   6.738  0.0475  0.1738 -0.1466
81102W        W24093  10.012  17.444  29.185 -0.2488 -0.1852  0.1743
81103W        W24094  15.775  10.550   5.581 -0.0252  0.1379 -0.1646
81104W        W24095  20.720  18.966   7.080 -0.0600  0.0711  0.0111
81105W        W24096  32.390   4.945   3.609  0.2029  0.1136  0.1701
81106W        W24097  15.732   1.461   8.528  0.2433  0.1580 -0.0062
81107W        W24098   6.954   6.444  19.883  0.2232  0.0634 -0.1964
81108W        W24099  19.804   3.209   2.562  0.2243 -0.1412  0.1471
81109W        W24100  14.657  11.555   7.640 -0.3135  0.1709  0.1775
81110W        W24101  10.987  22.118   5.221  0.2229 -0.1883  0.1750
81111W        W24102  12.254   5.707   9.403  0.1249 -0.2908 -0.0609
81112W        W24103  15.390   9.396   6.872 -0.0556  0.1275 -0.2790
81113W        W24104  18.295  15.112   3.409  0.1289 -0.1807 -0.0118
81114W        W24105  11.658  16.933   8.844 -0.0729  0.0480  0.4047
81115W        W24106   1.184  20.135   1.858 -0.0372  0.1683 -0.1280
81116W        W24107  13.765   4.939   6.114  0.0678  0.1842 -0.0910
81117W        W24108  27.577  19.413  26.106 -0.0098 -0.1301  0.0501
81118W        W24109  32.543   8.075   7.924  0.5093  0.0343 -0.1271
81119W        W24110   4.430  13.850   8.963  0.0775  0.2510  0.0046
81120W        W24111  31.480  21.941   1.474 -0.3686 -0.2043 -0.0502
81121W        W24112  12.160   9.655   5.307  0.2485  0.2200 -0.1619
81122W        W24113  31.212  15.211   0.027 -0.3117  0.0868  0.3068
81123W        W24114   5.963  21.862   4.801  0.0617  0.0205  0.0464
81124W        W24115  21.580  13.484   8.059  0.1987  0.0356 -0.3821
81125W        W24116   6.504  17.250  22.565  0.1590 -0.1643 -0.0415
81126W        W24117  33.084  11.468  16.661 -0.0393 -0.1758 -0.3397
81127W        W24118   5.233   9.827  28.048 -0.4120 -0.0804 -0.1425
81128W        W24119  16.241  25.668   4.046 -0.1342 -0.1242 -0.1593
81129W        W24120  13.761   8.297  18.740  0.0711  0.2026  0.0463
81130W        W24121  25.300  16.480   6.200 -0.3006  0.0006  0.1173
81131W        W24122  14.189  13.646  23.564 -0.1079 -0.1868  0.2264
81132W        W24123  18.328  13.520  19.956  0.1604 -0.0165  0.0044
81133W        W24124   3.362  29.024  24.261  0.0839 -0.2205 -0.0346
81134W        W24125   7.678   7.776   7.499 -0.0193 -0.0675  0.0809
81135W        W24126   5.212   6.217  27.943  0.4769 -0.0761  0.4081
81136W        W24127  16.263  11.651   7.756 -0.0459  0.1532 -0.3258
81137W        W24128   9.892   7.531   6.907 -0.0222  0.0640 -0.1808
81138W        W24129  20.099   7.212  28.135  0.0798 -0.1955 -0.3855
81139W        W24130  20.847  11.395  18.098  0.2043  0.0763 -0.1706
81140W        W24131   2.771  10.273  10.763  0.0286  0.0143  0.0355
81141W        W24132   5.796  19.764   5.541 -0.0905 -0.1058  0.1942
81142W        W24133  19.071  34.508   1.291 -0.3398  0.1156 -0.3541
81143W        W24134   4.629   3.040   2.647  0.1717  0.2265 -0.2033
81144W        W24135  10.712  16.127   5.446 -0.2654  0.0183  0.1712
81145W        W24136   5.743  18.499   7.750  0.0668  0.1963  0.1880
81146W        W24137  30.562  21.443   4.333 -0.0330 -0.1382  0.1304
81147W        W24138  10.744  12.879   6.007  0.0207 -0.2389  0.1585
81148W        W24139  24.330  33.055   4.705 -0.0886  0.1323  0.0422
81149W        W24140  19.748  19.633   3.924 -0.0048  0.1654 -0.1362
81150W        W24141  30.401  25.460   2.506  0.0668  0.1294  0.1858
81151W        W24142  28.763  20.411  28.161 -0.0987  0.3557 -0.2731
81152W        W24143  10.920  11.157  16.840 -0.0252 -0.0931  0.1052
81153W        W24144  10.235  26.222  23.083 -0.0556 -0.0118 -0.1061
81154W        W24145  14.835  12.386   4.559  0.0324 -0.2552  0.0629
81155W        W24146  14.442  11.579   4.686  0.3325  0.1266 -0.0657
81156W        W24147  33.893  26.240   9.381 -0.3519 -0.0158  0.1552
81157W        W24148  11.046  21.749   2.656  0.0513 -0.0464 -0.1625
81158W        W24149  24.470   3.184   5.016  0.0741 -0.1577 -0.1375
81159W        W24150  14.665  25.194  26.628 -0.1086  0.5349 -0.2702
81160W        W24151  32.317   5.097   6.707 -0.0443  0.2089 -0.1791
81161W        W24152  21.278  27.941  17.640  0.4317 -0.2304  0.4152
81162W        W24153  29.059  18.784   5.443  0.0447  0.0278 -0.0194
81163W        W24154  15.314  12.941  20.573 -0.0015  0.0295 -0.3405
81164W        W24155  11.340  10.924  28.768  0.3702 -0.1518 -0.2857
81165W        W24156  14.725  20.648  23.075  0.2080  0.1453  0.1389
81166W        W24157  18.834   0.249   3.189 -0.0538  0.2131 -0.0285
81167W        W24158  31.042  12.179  10.036 -0.0265  0.1281 -0.0224
81168W        W24159  14.057   7.492   5.457 -0.1383 -0.2003 -0.1096
81169W        W24160   4.408  34.356  16.549  0.1032  0.0035  0.2729
81170W        W24161   7.102  13.749   2.692 -0.2242  0.0260 -0.0550
81171W        W24162   5.037  16.853   7.137 -0.0501 -0.0306  0.1977
81172W        W24163  11.351   4.949   8.429  0.0481  0.0260  0.1263
81173W        W24164   1.003  12.217   8.765  0.1620 -0.1718 -0.0092
81174W        W24165  33.271  18.855   5.099 -0.2017  0.0842  0.1181
81175W        W24166   8.907  22.312   1.558  0.2137  0.2935  0.2843
81176W        W24167  15.760   7.017  22.675 -0.1136  0.0122  0.4921
81177W        W24168  20.985  12.299  26.011 -0.3238  0.1179  0.2605
81178W        W24169   0.479   0.040  15.730  0.2202 -0.0579  0.1066
81179W        W24170  24.080   5.716  26.364 -0.0968  0.1984  0.1904
81180W        W24171   5.520  21.517   1.858  0.1756 -0.1738  0.1088
81181W        W24172   9.698  10.232   4.639  0.1997  0.0236  0.0587
81182W        W24173  12.223  16.364   0.515  0.1355  0.1212 -0.2105
81183W        W24174  14.706   0.455  22.553  0.2034  0.0757  0.0036
81184W        W24175   6.067  14.834   1.567 -0.0466 -0.1732  0.5866
81185W        W24176   7.547  11.578   8.533  0.1724 -0.0654 -0.1006
81186W        W24177   5.234  14.434  25.199 -0.0398 -0.0543 -0.1032
81187W        W24178   7.629  14.310  10.325 -0.1993  0.0228 -0.1086
81188W        W24179  30.949  19.198  23.740  0.0601 -0.2042 -0.0876
81189W        W24180   4.260   7.703   8.110 -0.1450  0.0447 -0.2609
81190W        W24181   6.326  21.570   2.923  0.0617  0.2633  0.2252
81191W        W24182   8.215   3.124   1.788 -0.3126 -0.1696 -0.1410
81192W        W24183   7.555   8.473  17.278 -0.1196 -0.0160 -0.3722
81193W        W24184  18.707  29.007  15.082  0.1455 -0.0858  0.1408
81194W        W24185   1.351  19.520  21.272 -0.0240 -0.1374 -0.1064
81195W        W24186  12.381  14.170   3.255  0.0665 -0.0368  0.0300
81196W        W24187  17.963  11.541  25.654  0.1052  0.1036  0.2831
81197W        W24188   7.235  22.105   6.916  0.2428  0.0782 -0.0942
81198W        W24189  10.660  15.923   1.175  0.1032  0.1902  0.3023
81199W        W24190  15.817  25.335  22.324 -0.0201  0.5869 -0.0572
81200W        W24191  17.957  34.435   9.328  0.0638  0.3329 -0.0458
81201W        W24192  28.781   1.988   5.822  0.2283 -0.0688 -0.0808
81202W        W24193   7.769  33.356   6.315 -0.0639 -0.2216  0.1727
81203W        W24194  14.204  23.281   6.425 -0.1229  0.5192 -0.3072
81204W        W24195   8.153  14.007   8.285  0.1765  0.1570 -0.0734
81205W        W24196   4.292  26.436  23.001 -0.0708  0.1591 -0.1370
81206W        W24197  29.310  17.198   9.151  0.3727  0.1456  0.0055
81207W        W24198  16.281  16.539   5.031  0.2427 -0.1059 -0.0307
81208W        W24199   6.976   6.097  23.762  0.0805 -0.2525  0.0533
81209W        W24200  12.389   6.839   5.519  0.0010 -0.1093  0.0259
81210W        W24201   5.271  10.133  25.654 -0.2334 -0.4436 -0.0856
81211W        W24202  15.780  28.176  22.294  0.1093  0.0728 -0.1587
81212W        W24203  11.579   7.994   5.158 -0.0582  0.0070  0.0165
81213W        W24204  32.181  22.229   2.924 -0.0267  0.2530  0.3440
81214W        W24205  31.341  11.456  15.105  0.1421  0.1684  0.1167
81215W        W24206   4.398  11.732  24.104 -0.1270 -0.0092 -0.3493
81216W        W24207   0.340  17.224  10.313  0.2241  0.0796  0.0177
81217W        W24208  12.515  14.649   8.520 -0.2173  0.0921  0.0834
81218W        W24209  16.913   8.061  24.402  0.0597  0.0411 -0.3055
81219W        W24210   3.498  31.062  15.588  0.3110 -0.2465 -0.2415
81220W        W24211  33.955  13.407   3.348 -0.3158 -0.4621 -0.1043
81221W        W24212  22.143  13.721  29.059 -0.0477  0.1513 -0.1617
81222W        W24213  18.210  14.284   4.566  0.1057 -0.3046 -0.0101
81223W        W24214   4.390  16.680  25.327  0.6204 -0.1401 -0.2830
81224W        W24215   7.210   1.261  22.683  0.0568  0.0953  0.0227
81225W        W24216  19.269  15.886   6.287  0.1968 -0.3728  0.1048
81226W        W24217  16.924  15.584   3.472  0.0780  0.2442  0.2370
81227W        W24218  13.317  19.248   6.825  0.2490  0.1899  0.4322
81228W        W24219  32.163   5.722   2.603  0.1321 -0.4773 -0.0120
81229W        W24220   7.991   9.986   5.694  0.1996 -0.5311  0.2148
81230W        W24221  15.587  14.141   7.113  0.0831  0.2464  0.1212
81231W        W24222  26.323   3.828  20.073 -0.1265  0.1569  0.1715
81232W        W24223  32.061   7.827  24.846 -0.0888 -0.0914  0.1669
81233W        W24224  11.435  23.785   9.075  0.1406 -0.1397  0.0403
81234W        W24225   6.381  20.987  17.809 -0.1432 -0.0680  0.1672
81235W        W24226  30.865  11.788  17.423  0.1953 -0.0834 -0.2667
81236W        W24227  33.045   8.017   0.567 -0.0492 -0.1578 -0.2588
81237W        W24228   7.477   0.531  27.947 -0.1802  0.3293  0.2927
81238W        W24229  22.286  21.068   6.929 -0.4274  0.1508  0.2481
81239W        W24230   7.221  34.278   4.501  0.0199 -0.1844 -0.0566
81240W        W24231  28.789  28.854  25.616  0.1892 -0.2704 -0.2001
81241W        W24232  22.902   9.470  18.709  0.1836 -0.4423  0.1294
81242W        W24233  12.732  13.320  14.280  0.1055  0.1542  0.2182
81243W        W24234  12.978  21.994   8.389  0.3207 -0.0563  0.0395
81244W        W24235  32.170   6.250  26.292 -0.2423 -0.1914  0.1878
81245W        W24236   4.014  12.480   7.748 -0.0252  0.1277 -0.0233
81246W        W24237  14.401  11.672  18.450  0.0907  0.0550 -0.2207
81247W        W24238  16.248  18.930   2.394  0.2263  0.1403  0.0740
81248W        W24239   5.708  15.221   9.601  0.1369 -0.1398 -0.1237
81249W        W24240   6.988  31.514  23.504  0.1535  0.1963 -0.4667
81250W        W24241  28.348  14.526  19.385  0.0835 -0.2812  0.0471
81251W        W24242   5.889  15.823  25.591 -0.0655  0.1705 -0.1621
81252W        W24243   8.698  21.527   3.469 -0.3034  0.2064  0.2675
81253W        W24244   3.081  18.388   5.486  0.2298  0.1059  0.1309
81254W        W24245  19.149  21.665   2.748 -0.1555 -0.3552  0.4165
81255W        W24246  26.196   9.972  25.479 -0.0486  0.0814  0.1942
81256W        W24247  21.092  23.019   2.671 -0.0054 -0.1347 -0.1146
81257W        W24248   9.592  30.280  25.571  0.0119 -0.3328  0.0061
81258W        W24249  26.130  19.396   5.681  0.0987 -0.1243  0.0682
81259W        W24250   6.080   0.075  27.070 -0.1400  0.0938 -0.1642
81260W        W24251  33.782  29.818   7.996 -0.0819  0.2241  0.1600
81261W        W24252  34.081  15.691  15.157 -0.0748 -0.1553 -0.0781
81262W        W24253   7.807  15.602   4.413  0.0650  0.1186  0.0183
81263W        W24254  29.979  11.313   9.349  0.0889  0.1308  0.1153
81264W        W24255  33.898  13.291   0.468  0.2473  0.2361 -0.0005
81265W        W24256   8.097  15.644  23.868 -0.0904  0.1627 -0.3599
81266W        W24257   4.023  27.965   8.203 -0.0419  0.0254 -0.1391
81267W        W24258  25.681  13.086  16.826  0.1944  0.2881  0.1218
81268W        W24259   8.939  12.136  21.494 -0.1303  0.0056 -0.3606
81269W        W24260  34.751  22.034  26.989  0.3021  0.0730 -0.0982
81270W        W24261   4.528  16.518   1.451 -0.1309  0.0150  0.0100
81271W        W24262  12.610  21.516  24.296  0.1559  0.2670  0.1864
81272W        W24263   3.518  20.580  10.649 -0.0252  0.2513  0.3174
81273W        W24264   8.186  14.416  23.990 -0.0943  0.1139 -0.1379
81274W        W24265  18.587  25.644   8.939  0.2043 -0.2399  0.1482
81275W        W24266   1.818   5.187  26.288 -0.4558 -0.0436 -0.1938
81276W        W24267  33.948  20.923   6.435  0.1472 -0.0813  0.3098
81277W        W24268   2.697  12.258   7.053 -0.0076  0.2622 -0.0979
81278W        W24269  19.777  27.640   7.439  0.1948  0.0067  0.1126
81279W        W24270   2.055   4.444   4.274 -0.1438 -0.1547  0.1584
81280W        W24271  23.772   3.831   4.534 -0.1350 -0.0373 -0.1023
81281W        W24272  10.049  28.069   5.466 -0.2821 -0.0226  0.1755
81282W        W24273   7.342  25.517   6.641 -0.0679 -0.1032 -0.1170
81283W        W24274  10.794  26.877  17.838 -0.0165  0.0420 -0.0157
81284W        W24275  33.701   9.150   3.578  0.0210  0.0602 -0.1527
81285W        W24276   4.716  23.209   2.186 -0.3203 -0.2653  0.1263
81286W        W24277   4.480   5.825  19.373  0.0058  0.1163 -0.2787
81287W        W24278  24.666  31.456   0.059 -0.1988 -0.1185 -0.1546
81288W        W24279  15.293  11.740  21.856 -0.1083 -0.0213 -0.2096
81289W        W24280   5.781  34.125   8.449 -0.1868  0.1407  0.0927
81290W        W24281  17.659  18.128  28.143  0.2972 -0.1601  0.2276
81291W        W24282  12.819  27.318  17.873  0.0549 -0.1264  0.2773
81292W        W24283   8.094   5.799  25.976 -0.0404  0.0011  0.0370
81293W        W24284   4.285  11.648  11.306  0.0320 -0.0488 -0.2210
81294W        W24285   2.509  12.922   1.576 -0.0218 -0.0145 -0.2099
81295W        W24286  24.826  12.104  25.015 -0.0160  0.1822  0.2658
81296W        W24287  11.890  20.297   8.894 -0.1144  0.2072  0.1744
81297W        W24288  18.770  10.537  26.435 -0.3153 -0.1317 -0.0898
81298W        W24289  11.459   0.372   1.627 -0.1549 -0.0223  0.0478
81299W        W24290   9.648  11.190  16.670  0.1021 -0.1217  0.0726
81300W        W24291   8.819  31.507  23.026 -0.0439  0.0225  0.3148
81301W        W24292  34.199   3.287  19.343 -0.0335 -0.2040 -0.0047
81302W        W24293  31.423  15.682  22.267  0.2840  0.0331  0.0722
81303W        W24294  30.416  12.068  27.764 -0.1939  0.0627  0.1235
81304W        W24295  25.908  15.272  26.291 -0.1089  0.2868  0.2681
81305W        W24296   4.972   9.836  25.332 -0.6397 -0.1135  0.3129
81306W        W24297  13.417  14.878  26.282  0.2069  0.3934 -0.0775
81307W        W24298  17.195   8.797  19.904 -0.0515  0.1825 -0.0512
81308W        W24299   3.530  16.376  25.828  0.0584 -0.2995 -0.3915
81309W        W24300  26.976   5.810  25.039 -0.3159  0.1356  0.1124
81310W        W24301  33.664  18.473   9.288 -0.0296 -0.1831  0.0582
81311W        W24302  10.524  12.854   5.035  0.1858  0.1325 -0.2027
81312W        W24303  25.051  25.032   0.346 -0.1857  0.0187 -0.0103
81313W        W24304  13.313   9.732  10.336  0.0899 -0.2638  0.1268
81314W        W24305   7.234  18.075  28.901 -0.0637 -0.0207  0.1312
81315W        W24306  34.518  10.220   4.197  0.0265  0.0950  0.2554
81316W        W24307   4.416  15.330   8.333  0.2716 -0.0174  0.0192
81317W        W24308  11.568  17.049  20.643  0.0176  0.2464 -0.0571
81318W        W24309  28.432  20.168   7.787  0.0984  0.0446 -0.0590
81319W        W24310  32.617  32.452  26.090  0.2226 -0.2989 -0.1829
81320W        W24311   8.620  21.105   2.365 -0.0483  0.0354  0.0807
81321W        W24312   2.996  15.131  29.014  0.2539  0.0569  0.1093
81322W        W24313  17.236   4.703   9.335 -0.1007  0.1091 -0.1315
81323W        W24314  32.563  10.316  19.944  0.0332 -0.0386 -0.4987
81324W        W24315  31.418   6.197   4.579  0.2123  0.2804 -0.4862
81325W        W24316  14.250  19.293  26.680  0.0486  0.0441 -0.0006
81326W        W24317   9.344  13.192   4.196 -0.0058 -0.1321  0.1429
81327W        W24318  27.255  25.177  24.179 -0.1929 -0.0717  0.2877
81328W        W24319  16.339  31.775   3.885  0.0679  0.1427 -0.3849
81329W        W24320   8.170  26.686   8.388  0.0827 -0.3200  0.2177
81330W        W24321  11.467  17.545  28.749 -0.0213 -0.1336  0.2073
81331W        W24322   5.417  11.230  18.211  0.2570  0.0678 -0.1772
81332W        W24323   7.866   1.214   1.983  0.1834  0.3954 -0.0464
81333W        W24324   0.138   3.618  19.297  0.2201  0.3396 -0.3471
81334W        W24325  29.886   3.980  20.589  0.0237  0.1822 -0.1296
81335W        W24326  25.362   3.910   3.699  0.0534 -0.1165 -0.2053
81336W        W24327   9.747  25.472  10.067 -0.3350  0.0067 -0.4403
81337W        W24328   2.067  26.535   3.681  0.4733  0.0865  0.0368
81338W        W24329  18.018  18.523  25.047 -0.0315  0.0170 -0.2208
81339W        W24330   6.862  21.685   8.175  0.0429  0.0916 -0.0631
81340W        W24331   8.035  15.445   0.818  0.2086 -0.1660  0.2627
81341W        W24332   4.645  13.650  21.218  0.0613  0.1699  0.1263
81342W        W24333  17.271  25.813  25.596 -0.2800  0.0431 -0.0119
81343W        W24334   7.162   8.808  18.524 -0.0514  0.0479  0.0474
81344W        W24335  17.509  10.301  21.458 -0.0753 -0.1940  0.0046
81345W        W24336   0.807  29.589   6.339  0.1011 -0.1838 -0.0400
81346W        W24337   5.780  16.013  22.282 -0.0388 -0.2526 -0.1552
81347W        W24338  14.089   7.738  23.563 -0.1255  0.4206 -0.1437
81348W        W24339   9.914  16.381  26.205  0.0158  0.3131  0.0348
81349W        W24340   5.696  14.256   3.227  0.0257 -0.1983 -0.0073
81350W        W24341  32.060  17.347  24.844 -0.1525 -0.1074 -0.3176
81351W        W24342  11.327  12.810   0.954 -0.0770  0.0969 -0.0856
81352W        W24343   1.248   5.131  24.266  0.0992 -0.5056  0.1893
81353W        W24344   5.359  17.994   8.787 -0.3300  0.0164 -0.1802
81354W        W24345   9.306  33.555   8.209  0.0835  0.0957 -0.5245
81355W        W24346  22.197   1.777  28.462  0.0365  0.1985  0.1899
81356W        W24347  33.993  30.736  15.097 -0.0974  0.1632  0.0689
81357W        W24348  19.897  26.894   6.383  0.0298  0.1223 -0.0623
81358W        W24349  14.427  11.313   6.445 -0.0784  0.1668  0.2693
81359W        W24350   3.419   8.743  17.659 -0.0439  0.1382  0.1851
81360W        W24351   8.243  22.449  22.153  0.1909  0.0935 -0.1187
81361W        W24352   4.259  14.725  21.267  0.1604 -0.2693 -0.0296
81362W        W24353   6.774  28.201  24.978  0.1454  0.2896  0.5150
81363W        W24354   0.279  26.671  28.915  0.2026 -0.5088 -0.4125
81364W        W24355   9.111  15.263   5.131 -0.1663  0.2545 -0.1737
81365W        W24356   7.464  19.123  17.487  0.0215  0.0381  0.1743
81366W        W24357   2.796  21.969  22.270 -0.0317 -0.3628 -0.1682
81367W        W24358  12.483  18.056  16.649  0.0626  0.1030 -0.0062
81368W        W24359  30.103  15.580   4.465  0.1286 -0.2083  0.0864
81369W        W24360   3.259  21.320   2.195  0.4089  0.1247 -0.0792
81370W        W24361   2.154   0.358   5.141  0.1411 -0.2774 -0.0095
81371W        W24362  30.993  14.297   2.670  0.2087  0.2350  0.2606
81372W        W24363  26.635  12.722   3.312 -0.2008  0.3037 -0.1068
81373W        W24364  15.585   5.313   5.672  0.2501 -0.0619 -0.0481
81374W        W24365  14.097   0.563  19.293  0.0432  0.1831  0.1810
81375W        W24366  16.684  10.685  18.636  0.4189 -0.0417  0.1170
81376W        W24367  14.564  17.957  23.670  0.0040 -0.3130  0.1332
81377W        W24368   5.306   2.867  20.804  0.0251  0.3140  0.0718
81378W        W24369   2.166  19.785   1.059  0.1452  0.2309 -0.3540
81379W        W24370  16.461   7.464  27.412  0.1597  0.1677  0.0841
81380W        W24371   7.009  25.874  18.491 -0.0820 -0.0029  0.3898
81381W        W24372  10.981   5.801   9.922 -0.1627 -0.2127  0.3276
81382W        W24373  31.601   6.721   5.948  0.1238 -0.2352 -0.0401
81383W        W24374  14.453  13.735  18.542  0.2735 -0.0806  0.1948
81384W        W24375  12.461  20.208  24.121  0.1414 -0.1212 -0.2880
81385W        W24376  13.114  18.680   7.837 -0.1597 -0.2514 -0.0589
81386W        W24377   7.947   9.727  26.430 -0.3846  0.2533 -0.1696
81387W        W24378  30.492  31.192  18.206  0.2423 -0.1997  0.0517
81388W        W24379  19.049  29.610   8.979  0.2059  0.1210 -0.0622
81389W        W24380  16.287  12.981  26.722 -0.2095  0.2594 -0.0735
81390W        W24381  12.416  16.717  25.484 -0.1522  0.0279  0.0707
81391W        W24382   4.252  32.852   3.324 -0.0839  0.2289 -0.0873
81392W        W24383   4.830  11.575  24.698 -0.0375  0.0125  0.0563
81393W        W24384   9.264  29.230  22.958  0.0899 -0.4653 -0.3177
81394W        W24385  14.993   1.103   4.927 -0.0466  0.1807  0.1391
81395W        W24386  22.442  12.745  20.512 -0.4560 -0.2210  0.1136
81396W        W24387   5.147   3.699   2.357 -0.0330 -0.3276 -0.3073
81397W        W24388  12.426  10.865  22.742 -0.4549  0.1138  0.1353
81398W        W24389  12.408  18.090   3.809  0.1775 -0.0632  0.2610
81399W        W24390  14.607  22.084   3.850 -0.2685 -0.0413 -0.2919
81400W        W24391  12.583  24.325   7.347 -0.3382  0.1035 -0.1949
81401W        W24392  32.330   1.182  27.120  0.3802 -0.0927  0.0524
81402W        W24393  10.027  15.593  16.295 -0.1027  0.1550  0.2037
81403W        W24394  19.642  16.513   2.994  0.2452 -0.3369  0.4035
81404W        W24395  34.629  16.888   2.142 -0.0258 -0.3715 -0.0707
81405W        W24396  13.310  16.445  24.149 -0.0618  0.1000  0.3158
81406W        W24397   7.325  30.705  26.780  0.0628 -0.0538 -0.1076
81407W        W24398  21.331  34.427  27.282 -0.0820  0.1596  0.1018
81408W        W24399  34.360   6.165   6.873  0.2181 -0.1459  0.0698
81409W        W24400   4.329   7.389   4.539 -0.0450 -0.1451 -0.0032
81410W        W24401  10.161  12.904  20.020  0.0585  0.0476  0.0001
81411W        W24402   8.609  17.900  16.568 -0.0507 -0.2809  0.0050
81412W        W24403  12.581   5.146  21.370 -0.4504  0.2076 -0.0179
81413W        W24404   5.486  11.074   0.147 -0.0652 -0.0061 -0.3609
81414W        W24405  30.760  13.042   4.588 -0.1265  0.2250 -0.2173
81415W        W24406  32.586  12.282   9.025 -0.1416  0.1308 -0.1063
81416W        W24407   5.217  22.462   8.400 -0.2168  0.0978 -0.2213
81417W        W24408   8.524  16.178  21.961 -0.2998  0.2039  0.1457
81418W        W24409   4.271   1.231   0.189  0.0520  0.2923  0.1507
81419W        W24410  10.190  18.000  27.801 -0.1012  0.1516  0.2208
81420W        W24411   9.027   9.342  24.777  0.2313 -0.1528 -0.0663
81421W        W24412   8.093   7.856   2.546  0.4869 -0.0072 -0.0013
81422W        W24413  16.016   9.862   9.790 -0.1164 -0.3962 -0.0198
81423W        W24414  32.031  16.029  27.532 -0.2952  0.3976 -0.1896
81424W        W24415  14.960   7.711  17.884 -0.0983  0.0437 -0.1359
81425W        W24416   6.896  12.379  11.338 -0.2204  0.1378  0.2145
81426W        W24417  10.412  16.850  19.920 -0.0321 -0.2952  0.1112
81427W        W24418   2.086  16.030  17.936  0.1949  0.1157  0.0794
81428W        W24419  16.931  16.821   6.483 -0.0939 -0.0933  0.1822
81429W        W24420   8.204  16.084  22.364 -0.2235 -0.0070  0.0621
81430W        W24421  29.527  20.239  25.911  0.0663 -0.0156  0.1146
81431W        W24422  25.168  11.670  15.234 -0.0628  0.1523  0.0195
81432W        W24423  12.279  22.330  23.430 -0.1348  0.1991 -0.0350
81433W        W24424  13.428  13.310  17.077  0.1937  0.2686 -0.0479
81434W        W24425  14.559  17.110  25.213 -0.0075 -0.0560 -0.0595
81435W        W24426   8.396  14.020   8.849  0.0003  0.2745 -0.4800
81436W        W24427  33.645   6.791  27.304  0.2039  0.0113  0.2398
81437W        W24428   3.572  32.512  25.137  0.0907 -0.0080 -0.2046
81438W        W24429   2.428   0.907   3.306  0.0954 -0.2037 -0.3070
81439W        W24430  13.437  21.188   5.200  0.2200 -0.0949 -0.1191
81440W        W24431  13.656  13.227  20.225 -0.1887 -0.0892  0.0472
81441W        W24432  11.889  24.662  28.392  0.1137  0.0410 -0.1763
81442W        W24433   8.779  29.021  19.624 -0.0073 -0.1306 -0.0200
81443W        W24434  33.218  16.407   4.297 -0.0653 -0.3091 -0.0970
81444W        W24435  13.824  19.631  15.680 -0.1105 -0.0596  0.2611
81445W        W24436   5.152  17.148  16.216  0.2906 -0.0293 -0.1345
81446W        W24437   1.292  21.593  28.504  0.1755  0.1851 -0.0810
81447W        W24438  15.272  30.792  16.882 -0.0102 -0.4127 -0.1969
81448W        W24439  12.032  14.172   9.903  0.3211 -0.0106 -0.0337
81449W        W24440  23.610  18.100  20.970  0.0391 -0.1795  0.3648
81450W        W24441   1.995   3.168   3.267  0.2361 -0.0081 -0.2872
81451W        W24442   8.311   3.065  17.356 -0.0770 -0.1837  0.0786
81452W        W24443  12.203  10.696   1.266 -0.2123  0.0562  0.0290
81453W        W24444   8.574   0.194   0.330 -0.4686 -0.0580  0.0680
81454W        W24445  11.842  15.254   1.682  0.0193 -0.1002 -0.4859
81455W        W24446  16.555  16.963  12.920 -0.4822  0.1104  0.0169
81456W        W24447  24.698  22.940   2.731  0.0477 -0.0608 -0.1847
81457W        W24448   5.088  13.144  26.760  0.0790 -0.2753  0.0185
81458W        W24449   8.245  13.751  11.370 -0.0938  0.4470  0.2177
81459W        W24450   0.220  34.222  25.997 -0.0215 -0.0265  0.0385
81460W        W24451   8.796  19.378   3.254 -0.2284 -0.0335 -0.0003
81461W        W24452   9.386  27.342  28.295  0.4319 -0.0060  0.1824
81462W        W24453   7.580   5.670   8.547  0.1487  0.0097 -0.2791
81463W        W24454  22.359  15.570  26.107  0.2372  0.1495  0.1267
81464W        W24455   0.430  17.386   4.724  0.1174  0.0053 -0.3922
81465W        W24456  33.564  23.259  25.871 -0.2848  0.0303  0.1006
81466W        W24457   6.776   9.474  20.708 -0.1014  0.2160 -0.2236
81467W        W24458  18.432   7.908   6.324 -0.1665 -0.3888 -0.1196
81468W        W24459  29.785   9.850   4.517 -0.3071  0.0565 -0.2912
81469W        W24460   5.900  13.666   2.091 -0.2029 -0.1097 -0.0257
81470W        W24461  30.014  19.315  27.221  0.0777 -0.1068 -0.2276
81471W        W24462   9.391   8.816   9.012 -0.1119 -0.0593  0.0002
81472W        W24463  31.380  31.953   5.727 -0.2035 -0.0138 -0.0097
81473W        W24464   9.483  19.646  27.930  0.0913  0.0595 -0.0515
81474W        W24465   8.227  15.521   5.205 -0.1278 -0.1097  0.0021
81475W        W24466   6.119  31.218  15.273 -0.0036 -0.1409 -0.0677
81476W        W24467  13.638  14.627  23.670 -0.0817  0.0453  0.1396
81477W        W24468   3.272  14.611  23.679  0.1296  0.0968 -0.2973
81478W        W24469  19.881   2.417  28.512 -0.1198  0.1214  0.0238
81479W        W24470   9.036  19.477   0.079  0.1123  0.0572  0.3444
81480W        W24471   9.194  28.017   7.925 -0.1693 -0.1222  0.0339
81481W        W24472  14.919  11.855   8.464  0.3180 -0.2967  0.1922
81482W        W24473   3.192   3.620   5.597  0.0248 -0.2024 -0.0683
81483W        W24474  11.330  21.310   8.047  0.3317 -0.2864  0.0136
81484W        W24475   4.149  31.037   7.377 -0.0966  0.1152 -0.0799
81485W        W24476  19.902   2.616   2.728 -0.1609 -0.3745  0.2117
81486W        W24477   0.593  21.317   1.863  0.0744  0.0936 -0.1200
81487W        W24478  13.082  20.601  14.034  0.0307 -0.1121  0.1352
81488W        W24479  15.027  33.154  10.017  0.3578 -0.2219  0.0595
81489W        W24480   6.982  34.688  28.825  0.0672 -0.0618 -0.1416
81490W        W24481   0.229  13.912  24.974  0.1517 -0.2155 -0.1894
81491W        W24482  22.862  14.932  26.713 -0.0959  0.1446  0.2678
81492W        W24483   4.838  12.648  17.567  0.0111  0.2336  0.2307
81493W        W24484  16.805  31.416   8.549 -0.0815 -0.0196 -0.1862
81494W        W24485   2.932  15.683   9.945 -0.1200  0.2268  0.0480
81495W        W24486  34.360  20.746   6.920 -0.3056  0.1438 -0.3867
81496W        W24487   7.405  27.489   9.900  0.2235  0.0887  0.1206
81497W        W24488   4.169   6.679  28.171 -0.0227  0.0471 -0.0037
81498W        W24489  11.893  33.005  19.313 -0.3717  0.0644  0.2188
81499W        W24490   8.763  27.482  27.311  0.0173  0.0106 -0.1397
81500W        W24491  11.414  20.850  27.470 -0.0912 -0.0837  0.0201
81501W        W24492  12.081   8.663   7.950 -0.0252 -0.0210 -0.2532
81502W        W24493   7.345  10.432  20.934 -0.1260 -0.1416  0.1701
81503W        W24494  34.398  18.152   1.668  0.3826  0.0141 -0.2575
81504W        W24495   4.892  15.902  27.020  0.0358 -0.0770  0.2672
81505W        W24496  12.287  30.505  23.043  0.3591  0.4044  0.0801
81506W        W24497   8.112  21.131  22.690 -0.0161 -0.2858  0.1070
81507W        W24498  27.338  26.217   2.055  0.1087 -0.4325 -0.0326
81508W        W24499  19.207  21.203   8.406  0.3119 -0.2150 -0.0336
81509W        W24500  11.062  12.253  22.643 -0.0354 -0.4986  0.0469
81510W        W24501  14.144   4.150  25.144 -0.0145  0.1639 -0.0104
81511W        W24502   4.823   7.508   6.331  0.0198  0.0233 -0.2621
81512W        W24503  25.941  15.453  28.566  0.0108 -0.2072 -0.0641
81513W        W24504  31.821  23.871  26.096 -0.2136  0.2582  0.2416
81514W        W24505  23.955   1.141   1.914 -0.2737  0.1144 -0.2312
81515W        W24506   5.939   9.777   9.690  0.3169  0.0653  0.1927
81516W        W24507  26.236  33.306  13.349  0.1070  0.1510  0.2905
81517W        W24508  31.612  22.541   9.308  0.1277 -0.0729 -0.1969
81518W        W24509   7.473  17.831  27.528  0.0874  0.2222 -0.0627
81519W        W24510   4.413  19.326   3.682 -0.0889 -0.2623 -0.1970
81520W        W24511  33.614  17.403   5.995 -0.0115 -0.1044 -0.0521
81521W        W24512  18.734  12.268   1.355 -0.3506 -0.0664  0.3514
81522W        W24513   0.320  22.517   6.327  0.0803 -0.0326 -0.1012
81523W        W24514  10.590   0.921  10.430 -0.0145 -0.3457  0.1107
81524W        W24515  16.780  27.474  24.815 -0.0646  0.0427  0.1455
81525W        W24516  13.130  15.384   9.057 -0.1498 -0.3037  0.2418
81526W        W24517   7.990  31.127   6.200  0.1306 -0.0242  0.1929
81527W        W24518  13.998  26.573   3.102 -0.0958  0.1231 -0.2164
81528W        W24519  11.565  26.074   3.010 -0.0848  0.0695  0.3415
81529W        W24520  34.151  14.723  19.516  0.0331 -0.0831  0.1154
81530W        W24521   8.075   9.079  24.648 -0.2015 -0.0496 -0.1374
81531W        W24522  34.376   1.727   8.578  0.2187  0.0351 -0.0588
81532W        W24523  12.023  26.431   7.896 -0.2432 -0.0907 -0.0524
81533W        W24524   9.115  27.787   9.671 -0.0519 -0.1484 -0.1845
81534W        W24525  16.828   8.268   3.514  0.1198 -0.3088 -0.0687
81535W        W24526  32.166  17.844  26.510 -0.0653  0.2079  0.2667
81536W        W24527   1.984   5.387   6.718 -0.3282  0.1019  0.0487
81537W        W24528   7.286  10.225   8.553 -0.0716  0.1478 -0.3618
81538W        W24529  19.313  16.211   2.764 -0.1797  0.1902 -0.3343
81539W        W24530   8.981  11.351   8.116 -0.1558  0.1472 -0.1023
81540W        W24531  14.083  12.861   7.284  0.2821  0.2230 -0.0798
81541W        W24532   0.355  17.972   2.969  0.0900 -0.1398  0.1894
81542W        W24533  13.586  16.786  26.018  0.3180 -0.0109 -0.0632
81543W        W24534   7.098  18.651   4.859  0.3861 -0.0479 -0.0572
81544W        W24535   0.376  16.102  26.383 -0.4180  0.2460 -0.0934
81545W        W24536   8.868  25.541   7.450  0.1381  0.1127 -0.1151
81546W        W24537  18.248  26.624  27.661 -0.0171  0.4884  0.3834
81547W        W24538  22.845  17.862   5.175  0.1849 -0.0026  0.0408
81548W        W24539   8.954  24.454   2.407 -0.1086  0.0789  0.1061
81549W        W24540   8.178  25.140  28.272  0.0798 -0.0501  0.0774
81550W        W24541   5.985   8.829   7.741 -0.0062  0.0405 -0.0191
81551W        W24542   6.821  14.897  27.699 -0.0958  0.2416  0.0179
81552W        W24543  13.406  16.463  27.207  0.0808  0.2385  0.2220
81553W        W24544  11.870  26.214  16.023  0.1486  0.0274 -0.0322
81554W        W24545  18.675  23.252  26.676 -0.0733 -0.4134 -0.1763
81555W        W24546  13.944  11.024   8.660  0.2197 -0.0928  0.1682
81556W        W24547   5.571  21.463   3.607  0.2097  0.0888 -0.1569
81557W        W24548   3.433  18.617   1.374  0.0120  0.0112 -0.2476
81558W        W24549  25.228  12.182   7.956 -0.1287 -0.0353 -0.0137
81559W        W24550  31.508  31.186   6.936  0.2016 -0.1683  0.0942
81560W        W24551   7.877  16.890  18.567  0.2173  0.1614 -0.2216
81561W        W24552   3.695  17.252  26.357  0.0457 -0.0252 -0.3511
81562W        W24553   7.051  23.476  20.557  0.1491  0.1634  0.2497
81563W        W24554  17.538  33.020   7.604 -0.0543  0.1658  0.5843
81564W        W24555   5.794  19.236  21.194 -0.1322 -0.1133  0.4484
81565W        W24556  34.446  14.814   5.955  0.0218 -0.3431  0.2269
81566W        W24557  16.665  17.316  23.332  0.1471  0.0812 -0.2205
81567W        W24558  29.914   7.705  27.967 -0.0741 -0.4984 -0.0066
81568W        W24559  16.618   9.494  19.380  0.0451  0.1576 -0.2009
81569W        W24560   8.056   9.696   6.733 -0.1788 -0.2519 -0.2941
81570W        W24561  34.369   9.718   7.523  0.2566  0.1667  0.0287
81571W        W24562  11.247  14.666  19.805 -0.3073 -0.2747  0.1784
81572W        W24563  12.907  10.535   7.132 -0.0729 -0.1362  0.1082
81573W        W24564  11.484   8.529  21.896 -0.1578  0.1021 -0.1375
81574W        W24565  17.159  30.596   9.557  0.1392  0.0885  0.2153
81575W        W24566   9.164  15.073   8.248  0.1352  0.0425  0.2270
81576W        W24567   8.890  10.095   9.238  0.1214 -0.0156  0.0474
81577W        W24568   1.160  21.728  19.643 -0.2261 -0.1438 -0.0421
81578W        W24569  11.483  14.450   7.032 -0.0367  0.0499  0.2311
81579W        W24570   6.765  18.944   9.801 -0.2833  0.3667 -0.1202
81580W        W24571   9.042   6.401   2.955  0.1902  0.0171 -0.0851
81581W        W24572   6.258  24.048   5.150  0.1383  0.1223 -0.2275
81582W        W24573   8.813  16.819   9.297 -0.2392  0.0076  0.0652
81583W        W24574  12.462  32.555  10.710  0.0466  0.0746  0.0718
81584W        W24575  22.299  26.509  28.835 -0.0123  0.2608  0.3297
81585W        W24576  14.886  31.656  24.976 -0.1974 -0.0383 -0.0077
81586W        W24577  23.609  14.417   7.308 -0.0052  0.3528 -0.1837
81587W        W24578   4.473  24.479   0.653  0.2507 -0.0690  0.4936
81588W        W24579   8.631  22.565   4.263 -0.1146 -0.2122 -0.0450
81589W        W24580  12.614  16.898  18.047 -0.0752  0.2730 -0.0071
81590W        W24581  16.142  24.167  21.537  0.1194  0.1119 -0.1630
81591W        W24582  13.983   5.335   3.630  0.4325 -0.0327  0.2347
81592W        W24583   7.452  33.754   6.536  0.2139 -0.4390 -0.1746
81593W        W24584  32.435   5.554  27.004 -0.3635  0.0180  0.0200
81594W        W24585  29.157   8.048   9.037 -0.1360 -0.0007  0.0852
81595W        W24586  34.574  17.454  28.518 -0.2078  0.2551  0.1166
81596W        W24587  32.447   9.369   1.104  0.1323  0.1837 -0.1814
81597W        W24588  11.264  26.533   8.414 -0.0932  0.1059  0.0738
81598W        W24589  10.301  19.365  22.123 -0.0194  0.0805 -0.0400
81599W        W24590   0.159  19.794   8.514 -0.2086 -0.1447 -0.0846
81600W        W24591   7.016   4.471  28.614 -0.1189 -0.1405  0.3343
81601W        W24592  28.962  33.747  23.567 -0.3392  0.1487 -0.1614
81602W        W24593  34.057  16.756  22.576  0.0402 -0.1182 -0.1031
81603W        W24594   6.680  11.193   4.257 -0.2798  0.1475  0.1979
81604W        W24595  33.889   8.298   5.486 -0.4730  0.1019  0.0363
81605W        W24596   9.553  12.784   6.806  0.1424  0.0653 -0.3371
81606W        W24597  28.689  34.797  24.081  0.1130 -0.0325 -0.0611
81607W        W24598  15.543  23.577  28.278  0.0986 -0.0417 -0.3339
81608W        W24599  27.116  11.818   9.287 -0.2154 -0.1438  0.0555
81609W        W24600  34.628   3.934  18.548  0.0148 -0.1450 -0.2061
81610W        W24601   8.654  18.657   9.337 -0.0889  0.0915  0.2623
81611W        W24602  14.867  11.941   4.733 -0.2936  0.2287  0.2597
81612W        W24603  10.117  13.304  25.621  0.1948 -0.1693  0.2671
81613W        W24604   1.732  34.585  26.300 -0.2379 -0.2062  0.2011
81614W        W24605  32.723  16.149  28.186 -0.3322 -0.0181  0.0772
81615W        W24606   5.233  23.653   3.135  0.0504  0.0803  0.0038
81616W        W24607   2.186   9.915   2.103  0.2225  0.3023 -0.0869
81617W        W24608  29.193  15.051   3.471 -0.5337 -0.3640  0.1342
81618W        W24609   7.174   7.175   3.204  0.0328 -0.2016  0.1391
81619W        W24610  21.648  24.762   8.273 -0.1455 -0.1175  0.2559
81620W        W24611   3.716  21.733   4.205 -0.0616 -0.0865 -0.0334
81621W        W24612  28.948  24.880   8.457  0.1381 -0.1321  0.0702
81622W        W24613  33.071   2.784  10.048  0.3479  0.2129 -0.0146
81623W        W24614  13.921  17.541   5.516  0.0759  0.0997 -0.0654
81624W        W24615  26.298  19.324   1.049 -0.1660 -0.1211 -0.1387
81625W        W24616   5.968   6.864  11.341 -0.1360 -0.1830  0.0907
81626W        W24617  11.335  24.798   7.282 -0.3417 -0.0943 -0.0961
81627W        W24618  10.557  15.525  21.039  0.0541 -0.0424 -0.4062
81628W        W24619  34.471   1.579   7.109  0.1256 -0.0617  0.0524
81629W        W24620   6.065  26.503  20.719 -0.1183  0.0329  0.1430
81630W        W24621  10.897  12.696   3.438 -0.0689  0.4206 -0.0239
81631W        W24622  17.756  11.394  25.112  0.0261  0.4266  0.0381
81632W        W24623  18.186   0.497   1.476  0.0170  0.1029 -0.0912
81633W        W24624   1.103  14.974   4.815 -0.1904 -0.2662 -0.0379
81634W        W24625   3.767  18.628   2.295 -0.2099  0.0576  0.4473
81635W        W24626   5.596  24.912   1.045 -0.3135 -0.1169 -0.0185
81636W        W24627   0.316  13.891   4.632 -0.0745 -0.2065 -0.6569
81637W        W24628  19.440  11.159   6.868  0.1127 -0.2340 -0.2253
81638W        W24629  11.988  15.282   2.691 -0.0114  0.0148  0.3561
81639W        W24630  20.604  14.608   5.001  0.3461 -0.0507  0.0318
81640W        W24631  21.692  13.919   5.135  0.0857  0.0251  0.2516
81641W        W24632  14.756   5.773  19.986 -0.1007 -0.2076 -0.4068
81642W        W24633  17.352  17.517   2.938  0.0480 -0.0043 -0.1668
81643W        W24634  16.875  29.839   5.288 -0.1469 -0.0249 -0.3627
81644W        W24635   7.582   0.515   6.084 -0.1239 -0.2680  0.1629
81645W        W24636  17.749  21.043   3.696 -0.0156  0.3014  0.0088
81646W        W24637  16.505  29.155   0.552 -0.1140 -0.1878 -0.1423
81647W        W24638   6.379   7.217  17.671 -0.0682  0.1786  0.0643
81648W        W24639  21.418  15.291  22.231  0.0208  0.2877  0.0369
81649W        W24640   7.842  21.468   8.968  0.0399  0.3038 -0.1582
81650W        W24641   5.588  19.832   8.119 -0.0200  0.1747  0.0498
81651W        W24642   6.205   1.403  28.518 -0.0397  0.2645 -0.1025
81652W        W24643  10.889   7.054   1.646  0.1002 -0.3445 -0.0707
81653W        W24644   6.715  26.439   4.222  0.2906  0.0363  0.0998
81654W        W24645  21.973  15.006   8.960  0.2919  0.0745  0.2691
81655W        W24646  31.774  11.299  26.446 -0.2284  0.0231  0.0009
81656W        W24647  10.226  34.337   3.848 -0.1165 -0.4190 -0.1330
81657W        W24648  12.628  11.867  29.056 -0.0785 -0.0758 -0.2629
81658W        W24649  30.058   9.745   5.883  0.2509  0.0094 -0.0592
81659W        W24650   2.920  24.158   0.165  0.0575 -0.0621  0.0313
81660W        W24651  14.133  18.214  23.670  0.1232  0.0090  0.1000
81661W        W24652   9.956  13.218  27.936 -0.0139  0.1205  0.1840
81662W        W24653   4.319   2.682  10.076 -0.1879 -0.2311 -0.0784
81663W        W24654   6.336  12.015   5.155  0.0020  0.0077 -0.0968
81664W        W24655   1.855  20.559   7.471 -0.0006 -0.1372  0.1161
81665W        W24656   7.177  30.626   5.360 -0.1790  0.0320 -0.0333
81666W        W24657   6.683  10.434  19.232 -0.0780  0.0791 -0.0793
81667W        W24658  13.753   5.965   4.357 -0.1349 -0.2111  0.1876
81668W        W24659  33.656  18.060  28.995 -0.1011  0.0643  0.0946
81669W        W24660  19.936  18.692   5.128  0.0572 -0.1536  0.1591
81670W        W24661  10.249  18.898  28.305  0.0329  0.1407 -0.0533
81671W        W24662  14.039  25.384  28.260  0.2318  0.2261  0.2165
81672W        W24663  19.536   5.646   7.731  0.1386 -0.2085  0.1768
81673W        W24664   7.394  21.202   3.870 -0.1101 -0.1098  0.0626
81674W        W24665   1.448   5.694  22.544  0.3548 -0.1235  0.1822
81675W        W24666   0.807  14.466   3.263  0.2307  0.0074  0.2251
81676W        W24667   4.091  28.672   0.052 -0.0568 -0.1652 -0.0892
81677W        W24668  13.232   6.899  21.302 -0.1483  0.0909 -0.0684
81678W        W24669   8.387   4.536  27.515  0.1073  0.0257  0.1903
81679W        W24670   5.489  31.568   5.540 -0.1686  0.1027  0.0757
81680W        W24671   7.224  32.676  10.213  0.3194  0.2591 -0.0709
81681W        W24672  30.476  26.212  23.262 -0.1267 -0.1555  0.0985
81682W        W24673  23.213  12.826   6.626  0.3258 -0.2395  0.1428
81683W        W24674  12.547  15.638  22.774 -0.0727 -0.0397  0.0820
81684W        W24675  10.271  11.130  15.628 -0.3413 -0.0807  0.2210
81685W        W24676  32.434  20.260  22.613 -0.0883 -0.1143 -0.0474
81686W        W24677   0.491  27.491   6.880  0.1083  0.0585  0.0916
81687W        W24678  10.522   6.342  10.503 -0.0719 -0.0145 -0.1230
81688W        W24679   7.532  16.670   2.923 -0.0565 -0.2306  0.0025
81689W        W24680  12.345  19.610  21.370 -0.1067  0.1334 -0.1022
81690W        W24681  11.790  13.142   7.071 -0.1904 -0.2306 -0.2975
81691W        W24682   2.335   4.435   9.480 -0.1579 -0.1385 -0.0590
81692W        W24683   3.882  14.161   5.807 -0.0290  0.0538  0.2445
81693W        W24684  13.930  22.184  19.712 -0.0729 -0.0545  0.2219
81694W        W24685  33.319  33.771  26.995  0.1881 -0.0161  0.0817
81695W        W24686  16.075  21.882   9.100 -0.0895  0.0835  0.2714
81696W        W24687  26.299   4.116  21.070  0.0697  0.0128 -0.6447
81697W        W24688  32.593  19.446  27.388 -0.1086 -0.0604 -0.2482
81698W        W24689   2.644  19.018  18.813  0.0141 -0.0833 -0.0204
81699W        W24690  16.122  25.880   7.024  0.0136  0.0641  0.2260
81700W        W24691   4.193  18.282  10.750  0.0619  0.0377 -0.1212
81701W        W24692   6.569  30.256   1.253 -0.1334 -0.1360  0.0401
81702W        W24693  21.233  17.200  27.187  0.3954  0.0824 -0.0052
81703W        W24694  16.565   8.407   9.316  0.0652  0.1834  0.0884
81704W        W24695  12.888  29.919  23.194  0.1405 -0.0679 -0.0609
81705W        W24696  16.828  14.391   8.167 -0.1042 -0.2660  0.0223
81706W        W24697  15.653  20.506   8.605  0.0194  0.3400 -0.1802
81707W        W24698   2.444  20.234   2.403 -0.1402 -0.0893 -0.2438
81708W        W24699  11.522  11.165  19.331 -0.0355 -0.0132 -0.4547
81709W        W24700   6.417   9.873  10.866 -0.0522  0.0762 -0.3014
81710W        W24701  28.583  19.094  28.168 -0.0788 -0.3300  0.2519
81711W        W24702   5.056  20.708  28.702 -0.2217  0.2726  0.1075
81712W        W24703  15.780   3.154   7.286 -0.1377  0.1740  0.1394
81713W        W24704  12.328  19.384   6.842  0.1577  0.0898 -0.1210
81714W        W24705  34.199  17.171  23.978  0.1488  0.0331 -0.0266
81715W        W24706  14.056  10.416   8.862  0.1028  0.0357 -0.0839
81716W        W24707   7.491  23.312   1.090 -0.0995 -0.1842 -0.0179
81717W        W24708  10.018  15.703  24.943  0.3320 -0.0562  0.1166
81718W        W24709  10.447   1.637   5.033  0.3145 -0.1814  0.2668
81719W        W24710  29.325  14.602   1.214 -0.3665 -0.0308  0.1228
81720W        W24711   0.414   1.056   9.781 -0.0830 -0.1876 -0.0613
81721W        W24712  31.654   1.495   1.476 -0.0294 -0.0303  0.1689
81722W        W24713   2.854  15.848  23.851  0.2822  0.0719  0.2213
81723W        W24714   2.122  33.295   1.588 -0.1981 -0.0211  0.1920
81724W        W24715  11.767  21.658   2.217  0.0235  0.0884 -0.4882
81725W        W24716   3.265  19.000   6.448 -0.1663 -0.1086 -0.3250
81726W        W24717  17.539  31.144  15.326  0.1991 -0.3006  0.1972
81727W        W24718  31.391  12.693  25.326  0.0314  0.1777 -0.1177
81728W        W24719  26.557  25.193   5.813 -0.0188 -0.1432  0.0831
81729W        W24720  30.095  21.569  27.923 -0.2404 -0.1544  0.0508
81730W        W24721  10.643  20.646   3.433 -0.1500  0.1008 -0.1753
81731W        W24722  17.470  13.032   5.375 -0.0047 -0.2842 -0.1662
81732W        W24723  14.716  27.872   2.413  0.3425 -0.2443  0.1524
81733W        W24724   4.702   1.840  17.239 -0.1946 -0.0700  0.1460
81734W        W24725  10.150  24.876  28.280 -0.3942  0.2029  0.1202
81735W        W24726   2.207  13.656  17.185 -0.1735  0.0357 -0.3131
81736W        W24727   5.052  10.849   1.883 -0.1642  0.1196  0.2842
81737W        W24728   7.429   9.455   7.288 -0.1704 -0.1388 -0.2244
81738W        W24729  13.243   6.973  10.075 -0.2265 -0.4852 -0.0202
81739W        W24730  10.173  16.737   1.447  0.0754 -0.1985 -0.2622
81740W        W24731  11.673  17.200  25.563  0.2555  0.1623  0.0478
81741W        W24732   8.181   7.095   4.320 -0.1606  0.0271  0.0018
81742W        W24733  20.847  17.734  26.458 -0.3231  0.1098  0.1042
81743W        W24734   7.117   5.623   1.559 -0.1951 -0.0029 -0.2063
81744W        W24735   3.153  26.660   5.208  0.1954  0.2110 -0.0391
81745W        W24736  22.319  27.252   5.823  0.0498 -0.0380  0.1099
81746W        W24737  18.402  12.930   1.142  0.1940  0.2071 -0.0708
81747W        W24738   3.351  14.293   3.778  0.0425  0.1271 -0.3002
81748W        W24739  29.461  22.740  10.479 -0.0092  0.2459  0.1366
81749W        W24740  10.614  19.237  28.799 -0.3248  0.0122 -0.1111
81750W        W24741  23.168  10.520  20.271 -0.0090 -0.1203  0.0880
81751W        W24742  15.220   1.665   2.420 -0.1220 -0.0018  0.2330
81752W        W24743  34.584  15.453  11.376 -0.1334 -0.0293 -0.0911
81753W        W24744  11.946  10.966  28.143 -0.0579 -0.1451 -0.0679
81754W        W24745  20.825  18.520   4.634  0.0575  0.0705  0.0379
81755W        W24746  17.118  28.212   2.983  0.1039  0.1072  0.0143
81756W        W24747  14.471   3.583  27.472  0.4327 -0.0012  0.0849
81757W        W24748  31.992  28.089   3.880  0.3574 -0.0179  0.1358
81758W        W24749  31.370  10.985  19.994  0.0138  0.0477  0.0776
81759W        W24750   4.488  19.750   6.855  0.0666  0.0343 -0.1649
81760W        W24751   1.544  11.670   4.630  0.1321  0.1159  0.0101
81761W        W24752  31.477  13.546   1.150 -0.2510 -0.0921  0.0418
81762W        W24753  22.575  11.893  26.737  0.2371  0.0261  0.1330
81763W        W24754  10.726  18.851   4.210 -0.2268 -0.2140 -0.1749
81764W        W24755  33.782  29.916   0.493  0.0573  0.1598  0.1320
81765W        W24756  17.259  10.613  20.491 -0.0910  0.2194 -0.2222
81766W        W24757  14.764  27.051   7.013 -0.0829  0.0428  0.2072
81767W        W24758   1.358   2.337  20.139  0.0630 -0.5217 -0.0537
81768W        W24759   0.901  20.572   5.128 -0.0312  0.0848  0.4572
81769W        W24760   8.624  13.232  24.567  0.1889 -0.5836  0.3551
81770W        W24761  18.695  17.597   2.506  0.2464 -0.1763 -0.1917
81771W        W24762  18.393  16.131   7.337  0.2165  0.3511 -0.1460
81772W        W24763  29.562  26.327   8.361  0.0162 -0.0319  0.1174
81773W        W24764  29.974   8.565  23.737  0.2252 -0.1983  0.0431
81774W        W24765   2.920   5.567   2.446 -0.3048  0.3700 -0.0003
81775W        W24766   2.252   5.033  11.453 -0.1002  0.0713 -0.0013
81776W        W24767  17.656  27.481  24.256 -0.1681  0.0232 -0.0590
81777W        W24768   5.190  32.258  10.377 -0.0361  0.1997 -0.0326
81778W        W24769   7.337  18.242  23.855 -0.0171 -0.4339 -0.0706
81779W        W24770   8.961   8.512   4.348  0.0555 -0.2655  0.1052
81780W        W24771  12.145   9.155  18.411  0.2018  0.0249  0.0067
81781W        W24772  14.010  13.749  22.713  0.0914  0.3208 -0.0685
81782W        W24773  21.824  29.493   6.315 -0.3583 -0.5318 -0.0840
81783W        W24774  11.246  20.019   4.398 -0.1163  0.2318 -0.0426
81784W        W24775   1.355  34.019  26.714 -0.2770  0.3325  0.2652
81785W        W24776  10.056   6.046  11.195 -0.1012  0.0520 -0.0114
81786W        W24777   2.506  19.237   8.857  0.0014 -0.0952 -0.0380
81787W        W24778  11.118   4.971   9.475  0.0200 -0.0743  0.0137
81788W        W24779   6.063  17.677   8.522 -0.1450 -0.0957  0.2231
81789W        W24780  20.894  19.602   8.253  0.1068 -0.0255 -0.0483
81790W        W24781  17.380  18.524   1.207  0.1569 -0.1405 -0.1290
81791W        W24782   4.362   9.829   8.264 -0.2850 -0.1518 -0.5138
81792W        W24783   7.795   7.035   2.658 -0.4191  0.0878  0.2879
81793W        W24784  29.136  23.086   3.417 -0.0660  0.1688 -0.1695
81794W        W24785  28.833  20.979   6.673  0.3563 -0.0404 -0.1191
81795W        W24786  10.992  31.724  25.066  0.0965 -0.0523 -0.2692
81796W        W24787   6.941  15.017  25.373  0.1437 -0.2327 -0.1607
81797W        W24788  11.591   3.838   8.312  0.0670 -0.0769 -0.1484
81798W        W24789  12.160  15.556   8.890 -0.1905 -0.4392  0.0126
81799W        W24790   5.626  21.840   2.263 -0.0997 -0.0421 -0.0592
81800W        W24791  29.937   7.800  25.518  0.0206  0.1795  0.0711
81801W        W24792  14.131  24.652   0.559 -0.0492  0.0233 -0.1452
81802W        W24793  33.128  20.079   6.393 -0.0592 -0.2351 -0.0955
81803W        W24794   9.989  25.735   7.620 -0.0112 -0.1634 -0.4141
81804W        W24795  31.945  21.317   6.042  0.3033 -0.2691  0.3130
81805W        W24796   2.673  16.722  25.085  0.2216  0.0004 -0.0169
81806W        W24797  22.224  18.431   7.567  0.1706  0.0684  0.3152
81807W        W24798  11.701  12.816   1.377 -0.1477 -0.1364  0.0227
81808W        W24799  24.387  31.898   5.698 -0.0627 -0.0487 -0.1399
81809W        W24800   6.898   4.437   7.009  0.0454  0.1821 -0.3916
81810W        W24801   9.135  20.727   5.021 -0.0427 -0.4220  0.0409
81811W        W24802  26.991  34.223  28.804  0.0377 -0.3251 -0.0621
81812W        W24803  12.861   6.574   7.009 -0.3524  0.2259 -0.3019
81813W        W24804   3.132  22.563  19.635  0.0417  0.0602  0.0159
81814W        W24805  34.662  33.907  26.191  0.1853  0.0500  0.2844
81815W        W24806   2.256  15.839   1.209  0.4398  0.2950 -0.0932
81816W        W24807  17.490  11.753   4.646  0.2686 -0.0216  0.0481
81817W        W24808  13.006   3.462  20.640 -0.0308  0.1971 -0.2142
81818W        W24809  33.727  21.188   1.199  0.0244  0.0158 -0.0034
81819W        W24810   7.613  18.194   7.750 -0.1728  0.0127  0.1027
81820W        W24811  29.707  25.166   2.835 -0.0062 -0.2244  0.0287
81821W        W24812   7.592   7.842   3.520  0.1375  0.0188 -0.0713
81822W        W24813  32.885  11.838   0.290  0.0920  0.1198 -0.1971
81823W        W24814   9.964  20.234  18.617 -0.0106 -0.1081 -0.1425
81824W        W24815   3.120  17.235   9.267  0.2785 -0.2496  0.0963
81825W        W24816   7.885  18.296  25.797 -0.3654  0.1038 -0.0054
81826W        W24817   6.718  12.128   8.020  0.3064 -0.1684  0.1325
81827W        W24818  12.688   4.318   6.629 -0.0638 -0.0308 -0.0152
81828W        W24819   5.398  27.973  28.040  0.0285  0.2207 -0.2668
81829W        W24820   7.242  26.309   4.772 -0.0531  0.2728  0.1014
81830W        W24821  34.590   6.163   1.794  0.0103 -0.0344  0.1889
81831W        W24822  16.525  34.231  21.833 -0.1153 -0.1837 -0.3542
81832W        W24823   6.349   1.910   5.483 -0.4482 -0.1761  0.0441
81833W        W24824  11.921  31.006   5.912  0.0191 -0.0360 -0.1553
81834W        W24825  14.034  20.046   7.821  0.0328 -0.2075 -0.1369
81835W        W24826  34.513  13.704  22.612  0.0986  0.1349  0.2278
81836W        W24827   9.340  12.764  23.706 -0.3100 -0.0470  0.2713
81837W        W24828  12.481  11.079   4.915  0.1592  0.0138  0.1023
81838W        W24829  22.218  14.191   8.481  0.0714  0.0848  0.1669
81839W        W24830  13.902  20.706   3.226 -0.2093 -0.1242 -0.1970
81840W        W24831  25.819  19.086   8.133 -0.4171 -0.2008 -0.3000
81841W        W24832  30.681   4.992  28.416 -0.1873 -0.1288  0.0137
81842W        W24833  11.663   8.454   3.768  0.2394  0.2753 -0.2262
81843W        W24834  13.618  15.207   3.515 -0.2087 -0.0622 -0.1823
81844W        W24835   8.737  27.448   8.321 -0.0328  0.0743  0.2118
81845W        W24836  12.595  14.147  24.266  0.2190 -0.0213  0.4815
81846W        W24837   0.627   7.223  22.072  0.1735 -0.0642  0.3207
81847W        W24838  13.866  20.790  22.937 -0.0383  0.2159  0.0515
81848W        W24839  33.646  16.245   8.967  0.1208  0.1387 -0.2359
81849W        W24840   3.551   1.567   4.711 -0.2155  0.2954  0.2317
81850W        W24841  30.601  17.042  29.124 -0.0344  0.0342  0.2828
81851W        W24842  16.812   3.038  26.619  0.3792 -0.1194  0.0513
81852W        W24843  21.351  12.178   8.029  0.1148  0.0470  0.1558
81853W        W24844  14.456  17.370   4.841  0.1101 -0.0633  0.1160
81854W        W24845  21.108   4.784   2.025 -0.0001  0.2891  0.0640
81855W        W24846  17.503   5.967  27.532  0.0971 -0.2615 -0.0132
81856W        W24847   6.231  10.714  24.930 -0.3083 -0.2731  0.3400
81857W        W24848  19.249  28.421  23.156 -0.0763  0.3751 -0.0867
81858W        W24849   3.178  20.834   5.593  0.2081  0.1861 -0.1675
81859W        W24850  10.084  22.882   5.781 -0.1695 -0.0949  0.0066
81860W        W24851   7.296  17.951   6.814 -0.2446 -0.3539 -0.2245
81861W        W24852  16.633  17.347   8.522  0.0579  0.2839  0.1722
81862W        W24853  14.522  13.039  22.381 -0.5727 -0.1858  0.1245
81863W        W24854  30.321  20.205  19.737  0.1938 -0.4326  0.0631
81864W        W24855   6.398   1.346  27.738  0.0579  0.1540  0.0541
81865W        W24856  26.923  24.073   0.156  0.2139 -0.4482 -0.1264
81866W        W24857   1.131   4.930   8.815  0.3240  0.1025 -0.1997
81867W        W24858  14.853  18.801  26.168 -0.1255  0.2210  0.1088
81868W        W24859  24.579  29.362   3.190 -0.0133  0.3986 -0.0488
81869W        W24860  34.457  15.118  21.789 -0.0831 -0.2332 -0.1797
81870W        W24861  11.322  25.567  23.712 -0.2598  0.1707 -0.0293
81871W        W24862   0.015   5.495  24.134  0.2088 -0.2561 -0.0696
81872W        W24863  15.116  18.852   1.751 -0.1855 -0.1001 -0.3167
81873W        W24864  19.981   3.837  22.002  0.0597  0.0210  0.2357
81874W        W24865   3.424  29.409   4.334  0.0430  0.0968 -0.1757
81875W        W24866   3.098  26.713   9.491  0.4818  0.1725 -0.2903
81876W        W24867  34.725  31.246   8.758 -0.1929 -0.4322  0.0494
81877W        W24868  32.777  11.947  10.254  0.2198 -0.0058 -0.2930
81878W        W24869  16.327  12.523  14.840  0.1670  0.1295 -0.3159
81879W        W24870  11.221   0.515   7.322 -0.0632 -0.1412 -0.1471
81880W        W24871   6.087  26.579   2.918  0.1681 -0.1657 -0.1884
81881W        W24872  28.724   1.177   5.214  0.0689 -0.1863  0.1894
81882W        W24873   5.026  22.270  17.065 -0.3536  0.0385 -0.0949
81883W        W24874   4.106   2.722   6.021  0.1883 -0.2122  0.2594
81884W        W24875   4.118   8.773  10.341 -0.1954 -0.2317  0.2551
81885W        W24876  11.090  13.096  25.631 -0.2690  0.0057 -0.1792
81886W        W24877  30.184   7.843   1.054 -0.0992 -0.1068  0.4073
81887W        W24878  11.717  18.090  24.910 -0.0273 -0.0364  0.0988
81888W        W24879  21.200  12.127  24.896 -0.5230  0.0842  0.0033
81889W        W24880  15.832  24.344   5.441 -0.0213  0.3230  0.2086
81890W        W24881  15.021  29.269  18.132  0.2057 -0.2263  0.0632
81891W        W24882  11.138  15.188   3.842 -0.1100  0.2727 -0.0439
81892W        W24883  15.985  13.554   9.020  0.2460  0.0234 -0.0123
81893W        W24884  10.926  15.082   2.428  0.0010 -0.1458  0.0356
81894W        W24885   2.772   8.359   4.593  0.2078  0.3504 -0.1322
81895W        W24886  22.676  15.918  26.939  0.2228  0.0442  0.2723
81896W        W24887  34.395   9.133   4.331 -0.3326 -0.1284  0.1275
81897W        W24888   1.562  17.461  11.152 -0.0025 -0.1917  0.2034
81898W        W24889  18.335  24.634  21.511 -0.1507  0.0754  0.0150
81899W        W24890   5.988  24.940   8.641 -0.1400  0.0662  0.1741
81900W        W24891   8.877   3.988   7.962  0.1458 -0.0600 -0.0426
81901W        W24892  13.613   8.889  18.500 -0.2762 -0.0125 -0.0725
81902W        W24893   7.007   6.693  27.273  0.1442 -0.1826 -0.2157
81903W        W24894  33.616  20.200   4.518 -0.3077 -0.2497  0.2865
81904W        W24895  10.788  19.374   2.114 -0.4929  0.1540  0.0294
81905W        W24896   7.602  14.671   8.196  0.0352  0.3128  0.1742
81906W        W24897  10.973  23.727  27.439 -0.2869 -0.0839  0.0210
81907W        W24898   2.996  34.032   3.712  0.0192  0.1081  0.0751
81908W        W24899  13.725  16.830   4.476  0.3257  0.1332  0.0142
81909W        W24900   5.638   8.534  25.034  0.0274  0.1195  0.2909
81910W        W24901   7.357  24.258   7.625 -0.2741 -0.1901  0.0445
81911W        W24902   6.030   7.545   8.463 -0.1638 -0.1999 -0.0685
81912W        W24903  21.662   2.616  17.590 -0.1098  0.1102  0.1832
81913W        W24904  20.541   0.638   5.329 -0.1328  0.0915 -0.0368
81914W        W24905  18.178  15.985  23.184 -0.0011 -0.1737 -0.1194
81915W        W24906  11.055   9.644  18.089  0.1330 -0.2539  0.1248
81916W        W24907  13.946  25.316   0.903 -0.0391 -0.1198 -0.2026
81917W        W24908  13.476  33.816   8.108 -0.3171  0.1602  0.1173
81918W        W24909   5.949   3.690   6.401 -0.0424 -0.1474  0.0647
81919W        W24910  14.052  17.699   0.681  0.3636 -0.0284 -0.1683
81920W        W24911  22.239  18.394  27.934  0.5134  0.0524  0.3773
81921W        W24912  12.140  27.609  28.461 -0.3126  0.1957  0.1486
81922W        W24913   8.027  18.658   7.513  0.0918  0.1025  0.1059
81923W        W24914   7.905   6.529   6.436  0.2309 -0.1199  0.1392
81924W        W24915  11.901  23.796   2.452 -0.0715  0.1180  0.0997
81925W        W24916   7.310  14.535   5.264 -0.0619  0.1157 -0.3702
81926W        W24917  13.614  20.014   4.010 -0.0154  0.1588  0.1343
81927W        W24918   6.266  21.250  28.765  0.0720 -0.0224 -0.1338
81928W        W24919  12.250  29.704   6.641 -0.1922  0.1142  0.1829
81929W        W24920  21.312  12.027   4.729  0.1805  0.1692 -0.1528
81930W        W24921   9.918  15.119   7.867 -0.0612  0.0623  0.1089
81931W        W24922  16.561  19.247   0.722  0.3599  0.2552 -0.2351
81932W        W24923  34.358  19.977  28.074 -0.1859  0.1153 -0.1625
81933W        W24924  12.367  16.049   2.549 -0.3237  0.1389  0.0540
81934W        W24925   2.034  14.589   3.461 -0.3685  0.0064  0.1252
81935W        W24926   3.633  28.137   6.077 -0.1530  0.2765 -0.3824
81936W        W24927   9.403  24.451   3.437  0.1140 -0.4720 -0.3625
81937W        W24928  32.831   7.608   1.904 -0.2607 -0.0896 -0.1925
81938W        W24929   4.543  15.612  11.290 -0.4061 -0.0752 -0.1625
81939W        W24930  30.599  19.456  26.610  0.2655  0.2260 -0.1381
81940W        W24931   9.658  11.122   8.998  0.0315 -0.1217  0.1940
81941W        W24932  25.450  24.815  10.010 -0.0635 -0.0455  0.1028
81942W        W24933   9.266  32.964  25.988 -0.0895 -0.0014 -0.2828
81943W        W24934  32.306  16.962  23.919 -0.3630 -0.0978 -0.0933
81944W        W24935  30.074  16.755  10.244  0.0378 -0.0438 -0.3147
81945W        W24936  32.458   5.889   3.741 -0.1490 -0.0673 -0.3456
81946W        W24937  16.048  33.133   8.102  0.1703 -0.3232  0.1224
81947W        W24938  21.721  12.305   8.287  0.0636 -0.0070 -0.0205
81948W        W24939  33.482   7.376   1.249 -0.2319 -0.0661  0.2717
81949W        W24940   0.426  14.687   9.599 -0.2107  0.0370 -0.2089
81950W        W24941  11.703  23.118   4.222 -0.0565  0.1428  0.0362
81951W        W24942  19.416  13.102  19.016  0.0752 -0.0879  0.1984
81952W        W24943  13.701   3.842   3.946  0.0813  0.1329 -0.3686
81953W        W24944  11.228  10.763   7.335  0.0955 -0.0571  0.2213
81954W        W24945  16.255   2.791   0.598 -0.0031 -0.0565 -0.0142
81955W        W24946   3.695  28.605  28.021  0.0924  0.0442 -0.2306
81956W        W24947  11.381  12.564   3.211  0.1539 -0.2515 -0.0862
81957W        W24948  17.393  31.917   2.175 -0.1860  0.1201  0.0704
81958W        W24949   3.361  13.315   6.181 -0.0135  0.1244  0.1758
81959W        W24950   9.788   2.386  18.217  0.4623 -0.1592 -0.0187
81960W        W24951  10.454  12.247   2.358  0.1708  0.1327  0.0932
81961W        W24952   1.588  13.562   5.328 -0.0787 -0.2657  0.4044
81962W        W24953   5.951  22.366   3.250 -0.0643  0.0670 -0.2080
81963W        W24954  26.163  22.930  25.015  0.1929 -0.2069 -0.1753
81964W        W24955  12.335   1.990   5.231  0.0695 -0.2416  0.1020
81965W        W24956  21.491   7.280  19.678 -0.1396  0.0818 -0.0601
81966W        W24957  12.068  18.260   5.955 -0.5210  0.4208 -0.0395
81967W        W24958  12.805  23.737   1.628 -0.2988  0.0463 -0.0540
81968W        W24959  12.329  19.527   4.124  0.2184  0.1018  0.0257
81969W        W24960  16.511  11.316   8.463 -0.2421 -0.1067  0.1466
81970W        W24961   2.492  14.494   1.700 -0.0770 -0.4139 -0.3258
81971W        W24962  27.781  24.065  27.860 -0.0352  0.4249 -0.1317
81972W        W24963   5.454  20.673   1.795  0.0987 -0.5378 -0.1615
81973W        W24964  10.511  10.529   7.289 -0.0227 -0.1352  0.1634
81974W        W24965   3.827  13.205   8.597  0.2276  0.0045  0.2015
81975W        W24966  18.433   4.078   5.603  0.0740 -0.1915 -0.1154
81976W        W24967  10.579  17.828   3.988 -0.0257 -0.0550  0.0991
81977W        W24968   9.828  10.803   7.888 -0.1926 -0.0994  0.1952
81978W        W24969   2.365  18.763   8.664 -0.2697  0.0334  0.0912
81979W        W24970   0.409   3.201   7.501 -0.0012 -0.1058 -0.3195
81980W        W24971   5.657  15.021  24.335 -0.0404  0.4670  0.1699
81981W        W24972  21.472  17.748  28.350  0.1084  0.0080 -0.2909
81982W        W24973   4.302  33.768   0.150  0.0145  0.0937  0.1082
81983W        W24974  18.448  31.690  28.219  0.1650 -0.1816  0.2887
81984W        W24975   4.026  31.072   2.923 -0.0665 -0.1130 -0.0450
81985W        W24976  26.465  13.888  26.987 -0.1878  0.0120 -0.0387
81986W        W24977   7.668   3.491   6.327  0.1677 -0.3600 -0.1180
81987W        W24978  13.248  22.010  23.697 -0.0451 -0.0152  0.1450
81988W        W24979  12.578  15.054   3.653  0.0642 -0.2218 -0.0021
81989W        W24980   5.653  29.169  24.039 -0.0385  0.0638 -0.0991
81990W        W24981   8.941  17.522   8.467  0.1397 -0.4305 -0.0100
81991W        W24982  12.443  32.991   3.225  0.0556  0.1527 -0.0978
81992W        W24983  11.438  16.540  22.246  0.0878  0.0805  0.0755
81993W        W24984  16.038   5.336  27.082  0.1415  0.0333 -0.1968
81994W        W24985   6.286   8.487   8.899  0.0677  0.1655  0.0867
81995W        W24986  15.522   2.383  10.598  0.0271  0.1824  0.1398
81996W        W24987  28.692  25.965  17.640 -0.2214 -0.3441 -0.1489
81997W        W24988  22.710   8.392   6.050  0.0009 -0.2639 -0.0406
81998W        W24989   4.983   8.288   6.523 -0.3493  0.1563 -0.1178
81999W        W24990   6.085   6.684   9.027  0.0979  0.3341  0.3211
82000W        W24991  16.735  15.252   8.564  0.0258  0.1903  0.1534
82001W        W24992  25.169  19.875   4.290 -0.1495 -0.0228  0.2789
82002W        W24993   5.155  16.225   7.497  0.3644  0.0641 -0.1433
82003W        W24994  12.731   9.404  29.091 -0.0664  0.0367  0.3029
82004W        W24995  33.567  17.746   0.220 -0.0350 -0.1488 -0.1725
82005W        W24996  11.076  24.368   2.698 -0.0813 -0.4234 -0.1977
82006W        W24997   8.153  19.153  18.515 -0.1306 -0.1157 -0.2248
82007W        W24998   6.100   4.107   1.839 -0.1581  0.1307  0.1137
82008W        W24999  11.136  14.524  20.910 -0.3831 -0.0788 -0.0812
82009W        W25000  34.231  32.841  21.166 -0.0198  0.3101  0.2115
82010W        W25001   9.505   6.615   8.273  0.0663 -0.2970 -0.0901
82011W        W25002  18.138  18.715   6.283 -0.3251  0.0733  0.3265
82012W        W25003   4.080  15.007  11.862  0.1128 -0.0103  0.2026
82013W        W25004  27.179  21.853   0.001 -0.2240 -0.0380 -0.0040
82014W        W25005   2.183  24.211  25.181 -0.3865 -0.1816 -0.4481
82015W        W25006  26.365  15.684  10.159 -0.1183 -0.0185  0.3717
82016W        W25007   2.882  20.375   3.266  0.2339  0.2134  0.0399
82017W        W25008  16.513   7.852   6.271  0.0641  0.2083 -0.1150
82018W        W25009  30.523  31.389  28.528  0.0586 -0.0364 -0.0238
82019W        W25010  21.819   9.888   5.226 -0.1796 -0.0772  0.1277
82020W        W25011   4.777  29.807   6.063 -0.1477  0.3597 -0.1852
82021W        W25012   0.229  30.631  21.900  0.0368  0.3149 -0.0119
82022W        W25013   7.147   3.506   7.011 -0.2991 -0.1464  0.1023
82023W        W25014  17.251  32.238  29.065 -0.0794  0.0078 -0.1440
82024W        W25015   3.079   9.851   6.607  0.1918 -0.2542  0.0642
82025W        W25016  23.518  19.429   5.750  0.1689 -0.2605  0.0668
82026W        W25017   1.705  20.428   9.073  0.0028  0.1632 -0.2298
82027W        W25018  27.834  11.059   3.656 -0.2157 -0.0208  0.0525
82028W        W25019  21.607  17.892   6.424 -0.1732 -0.0775 -0.1924
82029W        W25020  30.459  11.995  10.677  0.1223  0.3928 -0.1651
82030W        W25021   9.191  17.153   7.907  0.0955  0.2889 -0.3324
82031W        W25022  14.640   0.390  13.932  0.0818 -0.1372  0.0022
82032W        W25023  11.305  17.328   9.400  0.0906 -0.0639 -0.1805
82033W        W25024  32.340   3.559   7.301 -0.1390  0.3423 -0.3885
82034W        W25025  22.658   2.114  21.224 -0.3631  0.0614  0.1626
82035W        W25026   7.971  20.483   6.441 -0.0334  0.1114 -0.2756
82036W        W25027  34.282  22.301  25.978 -0.4430 -0.0305 -0.1549
82037W        W25028  26.554  21.284   4.076  0.3257 -0.2567  0.2832
82038W        W25029  11.609   2.884   9.521  0.1239  0.0892  0.2636
82039W        W25030   5.394  23.294   0.321  0.1411 -0.0376 -0.0654
82040W        W25031   5.364   0.938   8.489  0.0073  0.0438 -0.1009
82041W        W25032   4.798   5.261   8.031 -0.0069  0.3732 -0.0930
82042W        W25033  30.648   7.996   3.306 -0.2501 -0.1937  0.0563
82043W        W25034  31.830  12.172   4.442  0.0236  0.3885 -0.1468
82044W        W25035   5.882  18.251   0.374 -0.0799  0.0841  0.3228
82045W        W25036  10.585  23.913   8.311  0.1513  0.2142  0.3530
82046W        W25037   5.240  19.277   2.090  0.1846 -0.1492  0.0194
82047W        W25038  34.415  15.651   9.967 -0.2480 -0.2793 -0.1468
82048W        W25039  33.453  14.001   5.636 -0.0715  0.2776  0.3081
82049W        W25040   7.089   9.509   4.593  0.2232 -0.2231 -0.0900
82050W        W25041   8.270  20.005   9.482  0.4492  0.1413  0.1786
82051W        W25042   3.984  29.330   3.662 -0.0308  0.2249  0.1994
82052W        W25043   8.625  14.170  25.793  0.0099  0.0464 -0.0275
82053W        W25044   6.350  32.454  26.740 -0.2370 -0.4133 -0.3951
82054W        W25045   7.102   0.762  10.350  0.2499 -0.4464  0.0945
82055W        W25046   9.289  25.723  10.025  0.1442  0.0334  0.0427
82056W        W25047  28.671  25.011   6.524 -0.0601 -0.0747 -0.0716
82057W        W25048  27.071  16.099  25.718 -0.0997  0.0104 -0.3671
82058W        W25049  32.701  10.791   4.763  0.0755 -0.0354 -0.1237
82059W        W25050   7.169  20.464   8.409 -0.1237  0.0518 -0.2295
82060W        W25051   5.090   7.392  25.555 -0.1016 -0.3030 -0.0622
82061W        W25052   3.875   4.941   0.543  0.0614  0.4235  0.0533
82062W        W25053   1.465  14.859   7.613 -0.2327 -0.1991  0.1762
82063W        W25054   2.733  15.470   9.495 -0.0684  0.1833 -0.3031
82064W        W25055   9.207  17.877   5.703 -0.0826 -0.0342 -0.3525
82065W        W25056  28.664  26.127   8.297  0.0729  0.2567 -0.1455
82066W        W25057  10.569   0.440   0.968 -0.1067  0.0885 -0.0134
82067W        W25058   8.524  18.207   9.891 -0.1299  0.2535 -0.0056
82068W        W25059  16.879  13.972   1.874  0.1312 -0.2632 -0.2627
82069W        W25060  24.154  17.113  26.827  0.1441  0.2284  0.2355
82070W        W25061  11.246  24.729   5.286  0.1609 -0.3184  0.1148
82071W        W25062   8.155  17.783   4.708  0.2287  0.0162  0.0249
82072W        W25063   5.699  28.180   4.980 -0.1625 -0.0606  0.0957
82073W        W25064   4.719  19.752   2.810 -0.1317 -0.3861 -0.1067
82074W        W25065  13.929  20.613  18.566 -0.2910 -0.0023 -0.1457
82075W        W25066   7.572  28.657   1.887  0.0198 -0.1142 -0.4538
82076W        W25067   7.577  17.377  10.289 -0.0870  0.1526  0.2033
82077W        W25068   9.109  21.146   6.428 -0.1043 -0.0876  0.1525
82078W        W25069   8.198  23.150   8.648 -0.0456  0.0450  0.0283
82079W        W25070  31.496  21.053   3.768  0.1061 -0.1591  0.2756
82080W        W25071  32.199  14.312   6.207 -0.0904  0.1799  0.5500
82081W        W25072   9.096   9.638  27.869 -0.0816  0.0967 -0.0114
82082W        W25073  27.184  24.783   7.886  0.0701 -0.2705  0.2403
82083W        W25074  33.049   7.504  10.015  0.3188  0.1351  0.0738
82084W        W25075  24.916  12.959  27.060  0.0793  0.0546  0.2438
82085W        W25076  21.247   2.810   4.553 -0.2081  0.2492 -0.2177
82086W        W25077   7.478  29.877  17.975  0.0344 -0.2896  0.0251
82087W        W25078  17.455   2.102   1.963 -0.0496  0.1988 -0.1933
82088W        W25079  32.942  31.033   9.362  0.0562  0.2388  0.1457
82089W        W25080   7.304  33.547   8.906 -0.0265 -0.0284  0.1888
82090W        W25081  29.877  13.642  10.358  0.0854  0.1543 -0.1922
82091W        W25082  19.223  33.333   8.334  0.2842  0.1462  0.0975
82092W        W25083  31.320  24.716   8.857 -0.0740  0.0997  0.1232
82093W        W25084  11.509  22.178   8.046 -0.1018  0.0383  0.0033
82094W        W25085   3.803   8.383   7.433 -0.2220 -0.2203 -0.1147
82095W        W25086   0.359   4.156   2.414 -0.1762  0.1333 -0.0196
82096W        W25087  11.525  11.679   3.490  0.1855 -0.1100 -0.0162
82097W        W25088  14.207  12.765   9.888  0.0582 -0.2134  0.2254
82098W        W25089  10.905  10.967  10.725 -0.2383 -0.3456  0.1748
82099W        W25090  20.328   8.053   7.447 -0.0876 -0.2459  0.3149
82100W        W25091  31.764   9.855  26.663  0.0273  0.1447  0.0208
82101W        W25092   9.924   5.962   4.509  0.2295  0.0163 -0.1237
82102W        W25093  11.124  13.259   9.983  0.0096  0.1671  0.3795
82103W        W25094  26.221  11.247   0.880 -0.0563 -0.0403 -0.0197
82104W        W25095   0.099   2.125   0.187 -0.2924  0.1096  0.2776
82105W        W25096   2.387  22.554  10.404 -0.0426 -0.0400 -0.1411
82106W        W25097  18.136   8.854   7.720  0.1886  0.4262  0.3475
82107W        W25098  19.609  21.362  26.441  0.3901  0.0611 -0.0655
82108W        W25099   5.911  20.096   1.211  0.0854  0.0003  0.1371
82109W        W25100  25.089  10.530  20.115  0.1741 -0.1832  0.2164
82110W        W25101  21.926   8.890   9.640  0.3925  0.1301 -0.1063
82111W        W25102   9.999  24.246   0.748  0.1251 -0.1004  0.2191
82112W        W25103  19.030  11.810   5.787  0.2018 -0.3100  0.0172
82113W        W25104  32.656   9.172   0.562 -0.2227  0.1738  0.2345
82114W        W25105  12.641  22.369   3.974 -0.1312 -0.2346 -0.1534
82115W        W25106  34.495   3.964  18.030  0.0076 -0.0904 -0.1041
82116W        W25107  18.124  15.225   8.779  0.2406 -0.3364 -0.2655
82117W        W25108  12.432   4.859  11.097  0.0160 -0.1573 -0.0781
82118W        W25109   7.577   4.636   5.169 -0.1861  0.0372 -0.0045
82119W        W25110   5.921  17.222   5.965 -0.2175 -0.3129  0.0767
82120W        W25111  15.698  29.450  23.324 -0.0939 -0.1488 -0.1722
82121W        W25112  11.520  21.731  27.158  0.2051 -0.2352  0.0282
82122W        W25113   0.993  11.934  25.993 -0.1987  0.1136  0.3990
82123W        W25114   0.107  19.040   8.115 -0.1170 -0.1327  0.2682
82124W        W25115  12.629  34.262   9.145 -0.2078 -0.2663 -0.2821
82125W        W25116  16.934   7.562   7.630  0.1086  0.1687  0.1330
82126W        W25117   9.032   8.294   3.841  0.1605  0.0131  0.1612
82127W        W25118   7.422   8.785   0.332  0.1293 -0.1208 -0.2728
82128W        W25119   0.015  12.220  10.712  0.2669  0.0029  0.4250
82129W        W25120  16.523  12.991  20.922  0.1240 -0.2359 -0.1377
82130W        W25121  16.463  10.379   9.548  0.2159 -0.1207 -0.1156
82131W        W25122   9.024   7.118   1.669 -0.1942 -0.1406  0.1717
82132W        W25123   3.881   7.485   7.497 -0.1080 -0.0411 -0.0213
82133W        W25124  30.628  13.344   6.248 -0.0248 -0.2042 -0.1334
82134W        W25125   1.904   9.159  22.508 -0.2954 -0.2413  0.4870
82135W        W25126  11.136  30.533  10.479  0.1376 -0.3397  0.1002
82136W        W25127   9.738  12.914  16.584  0.2223  0.5260 -0.1795
82137W        W25128  19.149  13.154  27.624 -0.2148  0.0407 -0.0313
82138W        W25129  23.594  22.818  21.611  0.2169  0.0594 -0.2236
82139W        W25130  26.867  32.167   4.327 -0.1072  0.1251 -0.1280
82140W        W25131  13.922  17.955  22.922 -0.0957 -0.0187 -0.3632
82141W        W25132  25.473  30.117   4.583 -0.0072 -0.2070  0.0403
82142W        W25133   2.433  25.005  29.208 -0.1449  0.0472  0.1106
82143W        W25134   3.240  11.900  10.921 -0.0104  0.1002 -0.1392
82144W        W25135  33.502   7.573   8.996  0.0329 -0.0719  0.0889
82145W        W25136  19.417  15.930   0.345 -0.0552 -0.0792 -0.0341
82146W        W25137  34.227  15.369   6.228 -0.0950  0.0999 -0.1089
82147W        W25138  12.935  25.932  21.297  0.2106 -0.1812  0.0180
82148W        W25139  22.631   8.781   9.268 -0.3465 -0.0194  0.1990
82149W        W25140   4.909   4.910   5.470  0.1854  0.4438  0.0193
82150W        W25141   7.558  11.691  17.398  0.1575 -0.1125  0.2344
82151W        W25142   0.056   4.581  28.765  0.1187  0.1333  0.0934
82152W        W25143  11.233  12.507   5.285  0.1094 -0.2685  0.0565
82153W        W25144  17.747  16.286  28.900 -0.0634  0.2466  0.0010
82154W        W25145   1.916   7.042   7.565  0.1926 -0.0618  0.1707
82155W        W25146  14.904   0.964   2.626  0.1870 -0.1055 -0.1729
82156W        W25147  27.234   9.926   5.579  0.1620 -0.2002 -0.0178
82157W        W25148  10.576  15.836   9.252  0.0096  0.0883 -0.2289
82158W        W25149  34.769   9.698   1.801  0.1410  0.1121  0.1975
82159W        W25150  19.398  30.978   9.796 -0.2507  0.1074 -0.2068
82160W        W25151  30.306  12.099  27.232  0.5001  0.1819 -0.1705
82161W        W25152   5.598  20.308   8.951  0.0475 -0.1813 -0.0078
82162W        W25153   7.257  12.631   7.101  0.0314 -0.3875 -0.0472
82163W        W25154   4.008  21.416   0.459  0.0272 -0.0164 -0.1342
82164W        W25155   4.479  15.078   9.712 -0.0790  0.1074 -0.1679
82165W        W25156  14.900  28.463  22.348 -0.2215  0.0476 -0.1127
82166W        W25157  34.734  15.787   8.767  0.1175  0.0678  0.1232
82167W        W25158   3.733  15.227   7.494 -0.0344 -0.1997 -0.0013
82168W        W25159   8.764  21.571   8.650  0.1215 -0.2828  0.0134
82169W        W25160  16.052  12.580   4.882 -0.1267  0.1422 -0.2307
82170W        W25161   6.764  25.394   7.063  0.0500 -0.0171 -0.1824
82171W        W25162   8.286  16.541   3.492  0.0697 -0.0348  0.0109
82172W        W25163  27.120  18.957   3.463  0.1710  0.2122  0.3166
82173W        W25164   9.104   8.497  10.579  0.0886 -0.2237  0.0754
82174W        W25165   7.847   5.330   2.890  0.2950 -0.0495  0.0213
82175W        W25166   1.564   5.320   2.793  0.0722  0.2441  0.0244
82176W        W25167  12.322  17.725   3.489  0.2543 -0.3060  0.0134
82177W        W25168  10.581  19.539   6.974 -0.0575 -0.2152 -0.1885
82178W        W25169  11.634  16.159  19.902 -0.0519  0.0735  0.1273
82179W        W25170  33.918   6.587   7.985 -0.0145  0.1170 -0.0210
82180W        W25171  13.057  20.609  24.629 -0.2154 -0.0074  0.1635
82181W        W25172  10.296  14.201   5.196 -0.0748 -0.0534  0.1463
82182W        W25173   8.940  23.195   1.804  0.0296 -0.0054  0.0872
82183W        W25174  18.467  13.632  28.317  0.0042 -0.0237 -0.2462
82184W        W25175  12.754  15.296   1.079  0.2694  0.1650  0.0963
82185W        W25176   2.781  19.423  20.328  0.1734  0.2450 -0.1802
82186W        W25177   7.031  22.663   4.472 -0.4110 -0.2639  0.0673
82187W        W25178   9.930   9.313   2.629 -0.1251  0.2891 -0.0849
82188W        W25179   7.740  10.919   5.344 -0.1853  0.2211 -0.2385
82189W        W25180  32.947  17.910   9.131  0.1037  0.1456  0.0340
82190W        W25181   5.176  22.249   7.897  0.0154 -0.1391  0.0706
82191W        W25182  17.281  10.016   9.954  0.2421 -0.2156 -0.1899
82192W        W25183   5.568  28.826  24.523 -0.0480 -0.0405  0.0310
82193W        W25184  27.359  24.248   5.739 -0.0160 -0.0821 -0.1396
82194W        W25185   6.890  30.063   4.539 -0.0721 -0.0132  0.0808
82195W        W25186  13.033  14.507  20.569 -0.0753  0.0571 -0.0707
82196W        W25187  10.649  19.418  28.329  0.0910  0.1430  0.1792
82197W        W25188   7.960  27.615   1.429  0.1679  0.0669  0.1008
82198W        W25189  10.016  10.556   9.271  0.1029 -0.0181 -0.1388
82199W        W25190  31.433   4.131   6.147 -0.1023 -0.0269 -0.3068
82200W        W25191  20.273  20.660  28.149  0.0909  0.1343 -0.0620
82201W        W25192  19.845  17.234   6.841  0.2424  0.1485 -0.2210
82202W        W25193  33.771   8.927  26.080  0.3289 -0.2110 -0.0488
82203W        W25194  11.189  22.818   4.810 -0.0601  0.2961 -0.0313
82204W        W25195  13.477  11.328  26.910 -0.0652  0.1713 -0.0613
82205W        W25196   0.497  18.596   8.897  0.0816  0.1807 -0.0996
82206W        W25197   6.894  16.839  10.095  0.1305 -0.1839 -0.0056
82207W        W25198  15.531  17.958   4.708 -0.1365  0.3412 -0.3245
82208W        W25199  15.061  21.527   4.411 -0.0757 -0.2752 -0.2323
82209W        W25200  11.841  32.345  10.090  0.3003 -0.0457  0.3455
82210W        W25201  25.814  23.032  24.382 -0.4591  0.1078 -0.1066
82211W        W25202   0.225   3.066   0.822 -0.1915 -0.0930  0.4380
82212W        W25203  10.844  12.783   3.962  0.3142  0.0166 -0.2637
82213W        W25204  10.731   9.676   6.191 -0.2003  0.1713 -0.2134
82214W        W25205   9.855  10.981   8.452  0.0820  0.1549 -0.1006
82215W        W25206   9.961  25.216   8.208  0.0974  0.3306  0.1097
82216W        W25207   2.705  16.885   3.909 -0.3573  0.0340  0.2449
82217W        W25208   4.977  14.730  28.497 -0.0271  0.1268  0.1000
82218W        W25209  12.035  11.147  27.421 -0.0182  0.0765 -0.1369
82219W        W25210   0.558  16.083  16.157  0.2442 -0.0657  0.0124
82220W        W25211   9.933   1.478   0.256 -0.0565  0.2094 -0.0718
82221W        W25212   6.877   2.652   1.638 -0.4351 -0.0990  0.3708
82222W        W25213  25.095   4.360   0.175  0.2678 -0.2969 -0.1191
82223W        W25214   7.937  30.079   2.984 -0.2283  0.1007  0.0724
82224W        W25215   2.816  17.199  25.315  0.2280 -0.4448  0.0318
82225W        W25216   6.955   6.633  25.070  0.0552 -0.0009 -0.5328
82226W        W25217  32.218  24.818   9.144  0.0244  0.0198  0.0523
82227W        W25218   2.454  25.793   5.338 -0.0486 -0.0982 -0.1579
82228W        W25219  11.385  20.543   4.345  0.2888  0.1702  0.2370
82229W        W25220  12.225  10.811   0.767 -0.0438  0.3791  0.1161
82230W        W25221   4.463  16.650  10.209  0.0350 -0.0373 -0.3781
82231W        W25222  17.087  11.842   7.089 -0.0779  0.0724 -0.0285
82232W        W25223  20.310  26.936  19.324  0.1141 -0.0245 -0.4216
82233W        W25224  16.718  23.888  18.679  0.0234  0.2505  0.0134
82234W        W25225  28.634  24.277   6.067 -0.0174 -0.5071 -0.1169
82235W        W25226  18.588  13.559  24.834 -0.0607  0.0099  0.0333
82236W        W25227  10.109  13.283  10.791 -0.1775 -0.0247 -0.0036
82237W        W25228   0.846  24.963  28.817  0.0714  0.2695 -0.1502
82238W        W25229  12.884  21.182   9.682 -0.0730  0.1107 -0.1091
82239W        W25230   7.530  22.322   6.564 -0.1420  0.3204  0.0181
82240W        W25231   1.022  20.838   8.103  0.2896 -0.2418  0.0693
82241W        W25232  17.822  22.460  21.142  0.2168 -0.1669  0.0392
82242W        W25233   8.334  31.514  22.423  0.1468 -0.0101  0.1155
82243W        W25234  33.891  12.453  10.967 -0.0413  0.0881 -0.0088
82244W        W25235  30.767   3.524   1.962 -0.0911 -0.1819  0.1824
82245W        W25236   0.682  10.985   7.588 -0.1830  0.0734  0.4749
82246W        W25237  19.841   2.751   5.324  0.0638 -0.0743 -0.4174
82247W        W25238  23.271  16.838   7.695  0.2362 -0.4843 -0.0877
82248W        W25239  16.644  21.162   1.113 -0.2302  0.0303 -0.0200
82249W        W25240  14.374  26.647   8.430  0.2997 -0.0853 -0.0071
82250W        W25241  12.546   2.201  17.961 -0.1150  0.1643 -0.1516
82251W        W25242  10.448  11.970   3.919  0.1763  0.3396 -0.3143
82252W        W25243   5.333  14.021  25.599 -0.0974  0.1245  0.1712
82253W        W25244  13.681  18.499  22.787 -0.0523 -0.2589  0.4953
82254W        W25245  20.398  25.513  16.312 -0.4909  0.0684  0.2257
82255W        W25246   1.354  24.018   2.642 -0.3148  0.2247 -0.0917
82256W        W25247  21.182   9.815  21.014  0.0723 -0.1066 -0.3260
82257W        W25248   8.359  33.440   8.180  0.3529 -0.0778 -0.2103
82258W        W25249  20.199  29.555  15.716  0.1296  0.0455  0.3297
82259W        W25250  24.690  32.497  24.288  0.2325 -0.2602 -0.1361
82260W        W25251   8.037  28.145  10.971  0.3522  0.0605 -0.0461
82261W        W25252  15.481  22.224  24.549  0.1437  0.0681  0.4240
82262W        W25253  28.497  10.090  24.791 -0.3626 -0.0538 -0.3032
82263W        W25254  21.038  10.650  27.326  0.1359  0.2886 -0.0391
82264W        W25255  17.769  16.173  27.803  0.2387 -0.1890  0.2281
82265W        W25256  30.490  27.670   7.040  0.0708  0.2322  0.1391
82266W        W25257  17.282  25.209  22.920 -0.2346 -0.0642 -0.2306
82267W        W25258  23.821   6.564   1.452 -0.0230  0.1143  0.2010
82268W        W25259  32.947  24.191   3.841  0.2063  0.1171  0.0354
82269W        W25260  15.133  15.305  25.979  0.0075  0.0611 -0.2690
82270W        W25261  14.762   5.835  24.249  0.2069  0.0304 -0.0475
82271W        W25262   0.146   3.706   0.517 -0.1220 -0.1388  0.2488
82272W        W25263   8.221  25.684   0.360 -0.2485  0.1534 -0.2953
82273W        W25264  33.874  26.786  23.853 -0.2058  0.0208 -0.0523
82274W        W25265   6.201  21.797   8.647  0.1343 -0.1728  0.2533
82275W        W25266   6.728  14.050   6.957  0.2138 -0.1330 -0.3755
82276W        W25267  34.111   7.562  27.971  0.0758 -0.1547 -0.2828
82277W        W25268  17.488  11.649  26.435  0.0184  0.0922  0.0444
82278W        W25269   3.112  11.043   3.524  0.0864 -0.0181  0.0582
82279W        W25270  12.526  18.114  22.162  0.0733 -0.2090  0.0507
82280W        W25271  12.762  34.766  24.959  0.3487 -0.0434  0.3294
82281W        W25272   5.002  19.783  20.696  0.0431 -0.2523  0.0033
82282W        W25273  18.763  15.414   5.281  0.0073  0.2030  0.4258
82283W        W25274  26.163  20.412  28.342  0.0628 -0.0178  0.1432
82284W        W25275  34.438  10.618   1.821  0.1164  0.0037 -0.0207
82285W        W25276  32.324  12.791  16.236 -0.2157 -0.0969 -0.2372
82286W        W25277   0.072  20.052   3.914 -0.1364  0.1729  0.1508
82287W        W25278  16.051  24.739   6.411 -0.1905 -0.3141 -0.0154
82288W        W25279  11.721   1.626  25.927  0.3046 -0.0909 -0.2027
82289W        W25280   6.756  28.981   9.580  0.1571  0.0386  0.0934
82290W        W25281  15.945   7.324  23.592 -0.0233 -0.2528 -0.1989
82291W        W25282  13.514  24.080   1.979 -0.1168  0.1364  0.2685
82292W        W25283  22.921  15.613  20.072  0.1454  0.0315 -0.0996
82293W        W25284  12.814  14.398  24.824 -0.0415 -0.2853  0.0328
82294W        W25285  13.717  19.690  23.992 -0.1288 -0.3184  0.1214
82295W        W25286  11.194  20.531  27.123  0.2738 -0.0098 -0.0175
82296W        W25287   8.662  22.940   8.434  0.5295  0.0503 -0.0969
82297W        W25288   9.156  11.573  18.476  0.2772 -0.2195  0.2381
82298W        W25289  14.242  29.632   5.395 -0.0212 -0.0280  0.1397
82299W        W25290   9.588  22.388   2.801  0.2846  0.0532 -0.3232
82300W        W25291  17.540   4.981  23.706  0.1127  0.2194 -0.2822
82301W        W25292  31.916  12.108  24.003  0.0527  0.1871 -0.1975
82302W        W25293   6.443  26.566  17.975 -0.0252  0.0391 -0.1516
82303W        W25294   9.176  20.840  22.934  0.1571 -0.2237 -0.1298
82304W        W25295   8.832  20.292  29.217 -0.3165 -0.2241 -0.2743
82305W        W25296   4.303  16.704   4.719 -0.1572  0.1820  0.0857
82306W        W25297  29.524  27.839  20.660 -0.0387 -0.2246 -0.2764
82307W        W25298  17.968  23.751  23.167 -0.0429  0.1206  0.0239
82308W        W25299   2.877  18.263   8.312 -0.3899  0.0945 -0.0004
82309W        W25300  33.283  21.723   7.188  0.2883  0.0481 -0.0003
82310W        W25301   6.867   3.880  26.133  0.0009  0.0916  0.4432
82311W        W25302   4.961  25.375   4.490 -0.2670 -0.2051  0.1010
82312W        W25303   5.902  32.527  24.828 -0.0610  0.2244 -0.2051
82313W        W25304   5.089  33.254  25.197 -0.0675 -0.3898  0.1231
82314W        W25305  14.307  12.906   1.286  0.2827  0.1145  0.0411
82315W        W25306  31.888  21.322   9.886 -0.2798 -0.0458 -0.3612
82316W        W25307   3.350  23.076  10.213  0.2265  0.0704  0.0533
82317W        W25308  10.436  10.315  23.202 -0.1172  0.0643 -0.2241
82318W        W25309   7.814  31.473   5.226  0.2353  0.0504  0.2417
82319W        W25310   1.031  32.126   3.170 -0.0536  0.0805 -0.1087
82320W        W25311   4.883   8.132  16.903  0.2738  0.2862  0.0639
82321W        W25312  18.308  26.696  17.086  0.0150 -0.0464 -0.4084
82322W        W25313   3.606  25.719   2.772  0.1582 -0.0668  0.3399
82323W        W25314  11.258  16.796   9.134 -0.0807 -0.0348 -0.0673
82324W        W25315   2.341  17.073   3.009  0.0341  0.2249  0.0095
82325W        W25316  13.363  34.059  27.418 -0.0171  0.1487  0.1686
82326W        W25317   9.054  17.826   1.603  0.1520 -0.2640 -0.1448
82327W        W25318  34.449  23.851  28.268  0.2395 -0.0956  0.1342
82328W        W25319  17.617  22.393  29.241  0.0460 -0.0521  0.2723
82329W        W25320  13.799  13.467   9.669 -0.0767 -0.1736 -0.1545
82330W        W25321  34.538  12.590   8.135 -0.0139 -0.0241 -0.1353
82331W        W25322  14.164  23.479  20.506 -0.0808 -0.0005 -0.2183
82332W        W25323   7.563   2.369   3.877  0.2285  0.1551 -0.0880
82333W        W25324  24.689  17.579   6.878 -0.1690  0.1665 -0.0302
82334W        W25325   1.011  31.862  18.621 -0.2696  0.0944  0.1593
82335W        W25326   6.614  19.933   6.841 -0.1472  0.3158 -0.1448
82336W        W25327  19.985  22.547   8.596  0.0257 -0.1043  0.5955
82337W        W25328  15.691  18.040  28.712  0.0338 -0.1446 -0.1693
82338W        W25329  21.640  15.344   8.737 -0.1591  0.0794 -0.2122
82339W        W25330   0.059   8.295  28.642 -0.1647 -0.0019  0.0875
82340W        W25331  17.617   2.487   5.603  0.2292  0.0868 -0.0089
82341W        W25332   5.833  18.530  19.846 -0.1147  0.2800 -0.2767
82342W        W25333  28.669   3.747  22.795  0.0081 -0.0428  0.2264
82343W        W25334  32.588  21.814  20.224 -0.2351 -0.0948  0.1039
82344W        W25335  25.951  16.271  19.293 -0.1739 -0.1708  0.3119
82345W        W25336   1.351   8.790  28.535 -0.0186  0.3559 -0.1257
82346W        W25337   3.550  22.257   7.825  0.0377 -0.0651  0.2980
82347W        W25338   4.271   2.263  24.142  0.0344  0.1475  0.0216
82348W        W25339  27.788   3.889   3.889 -0.1050  0.2961 -0.3151
82349W        W25340  21.347  30.166  20.866  0.2948 -0.1189 -0.3226
82350W        W25341   7.051   9.608  26.802  0.1732  0.0047  0.1645
82351W        W25342   3.753   7.805   7.155  0.1329 -0.0332  0.1377
82352W        W25343   8.545  23.959   6.147 -0.1496 -0.1948 -0.1816
82353W        W25344  14.935  22.338  27.966 -0.2659 -0.2320 -0.0495
82354W        W25345  28.700  12.131  27.582  0.0700  0.1952 -0.3542
82355W        W25346  12.945  21.447   3.186  0.1552  0.1852 -0.3128
82356W        W25347   7.209  27.103  28.469 -0.3090 -0.0560  0.0099
82357W        W25348   8.659  20.340   5.868  0.1520  0.2171  0.0794
82358W        W25349  13.908   9.746   6.854 -0.2799  0.1410 -0.2319
82359W        W25350  13.381   0.965  28.993  0.0398 -0.0612  0.1425
82360W        W25351  19.699   9.955   8.605  0.1817 -0.1842 -0.1442
82361W        W25352   8.682   8.235  24.694  0.1003 -0.0824 -0.2410
82362W        W25353  21.416  18.935   3.927 -0.0568 -0.1029  0.2048
82363W        W25354  34.531  21.870   9.297 -0.0678 -0.1401 -0.2978
82364W        W25355   1.085   6.728  10.326  0.0526  0.2209 -0.0133
82365W        W25356  29.169  14.337  10.246  0.0639  0.0260  0.0278
82366W        W25357   4.226  26.090   9.151  0.1958  0.2704  0.2980
82367W        W25358  22.448   6.860   6.689  0.0365  0.0748  0.0635
82368W        W25359   2.121  17.182   1.747 -0.2780 -0.0983  0.2359
82369W        W25360  15.975  32.447  29.148  0.3058 -0.2882 -0.0500
82370W        W25361  29.712   9.253  26.241 -0.3514  0.3461  0.2886
82371W        W25362   3.863  18.580   7.181 -0.1101  0.0594 -0.1381
82372W        W25363   7.912   4.883   4.679  0.0046 -0.1591  0.2069
82373W        W25364  21.807  15.385  14.809  0.2708  0.3169 -0.1864
82374W        W25365   7.569  10.710   6.782  0.1928  0.0906 -0.0239
82375W        W25366   6.997  19.254   5.717 -0.2364  0.3833 -0.1077
82376W        W25367   6.379  16.943  10.242  0.1269  0.1947  0.5158
82377W        W25368   3.470  20.515   0.277  0.1254 -0.0838  0.1460
82378W        W25369  33.408  19.885   9.111  0.0112  0.2312  0.0883
82379W        W25370  10.702  33.133   9.546 -0.0047 -0.1043  0.3512
82380W        W25371  21.853  30.159  17.538 -0.0176  0.0060  0.0692
82381W        W25372  15.802   3.483   1.142 -0.0432  0.1783 -0.2628
82382W        W25373   2.491  14.367   2.361 -0.0431  0.1424 -0.1640
82383W        W25374  11.414  17.273   4.520 -0.2322  0.0921 -0.0048
82384W        W25375  12.052  24.206  19.052  0.0664 -0.1685  0.2196
82385W        W25376  14.940  10.728  24.784  0.0487  0.1133 -0.0859
82386W        W25377  17.427  16.505   2.816 -0.3196 -0.0107  0.1465
82387W        W25378  11.117   8.058  28.701 -0.1023  0.0254  0.3393
82388W        W25379   0.495  29.266   1.918  0.4181  0.1983  0.0313
82389W        W25380  11.936  11.365   8.202 -0.0107  0.2437  0.1914
82390W        W25381   8.094  28.824  23.431 -0.2724 -0.1361 -0.2454
82391W        W25382  12.479  11.257   8.555  0.2850  0.2888 -0.1389
82392W        W25383   6.237  25.616  16.342  0.1434 -0.1843 -0.1324
82393W        W25384  11.514  23.039   2.154 -0.1874  0.1641 -0.1513
82394W        W25385  32.760  11.325   0.557 -0.1268  0.0039  0.2473
82395W        W25386  18.555  33.738  25.828 -0.0031  0.2363  0.0984
82396W        W25387  13.040  14.556  22.512 -0.5355 -0.3543  0.1269
82397W        W25388   2.333  23.954  27.721  0.2590  0.3323 -0.4211
82398W        W25389  11.714  15.820   5.599 -0.0221 -0.1919 -0.1301
82399W        W25390   8.835  26.341   8.926 -0.0759  0.1164  0.1597
82400W        W25391  29.175  17.362  28.400  0.3592  0.1836 -0.0412
82401W        W25392   5.693  23.108  28.245 -0.1961  0.0840  0.0365
82402W        W25393  10.527   4.508  29.105 -0.0891 -0.0028  0.2003
82403W        W25394   4.565  30.541   4.278 -0.1647  0.1652 -0.2818
82404W        W25395   9.421  32.714   6.183 -0.1204  0.0786 -0.0267
82405W        W25396   5.439  22.457  20.431 -0.1056 -0.3821  0.5176
82406W        W25397  21.916   5.691  22.032  0.1405  0.2090  0.0073
82407W        W25398  15.348  28.921   4.856  0.1819 -0.0175  0.3831
82408W        W25399  15.329  28.849  27.395  0.2601  0.2378  0.0110
82409W        W25400  33.510  15.579   1.118 -0.2623  0.0514  0.0581
82410W        W25401   6.683  24.654   8.192  0.0683  0.1134  0.1678
82411W        W25402  30.870  16.505  15.004  0.1992  0.0049  0.2379
82412W        W25403  11.532  26.676   4.913 -0.1006  0.0915 -0.3698
82413W        W25404  18.281   7.020  28.991  0.1010 -0.0255 -0.0807
82414W        W25405  10.994  21.962   6.423  0.1920 -0.1906 -0.0371
82415W        W25406   3.172  17.090  23.854 -0.2285  0.1934  0.2826
82416W        W25407  15.417  21.062   8.887 -0.3021  0.0346  0.2094
82417W        W25408  17.891  26.525  19.265  0.1177 -0.3611  0.3767
82418W        W25409   9.779  26.169   3.781  0.1767  0.1901 -0.0106
82419W        W25410   0.421   2.442   8.052  0.1445  0.0153  0.1029
82420W        W25411  17.891   0.378   2.991  0.1982 -0.0678 -0.2626
82421W        W25412  10.836  16.439  27.403  0.2717  0.2044  0.0975
82422W        W25413   2.973  15.054   6.993 -0.1464  0.0530  0.1683
82423W        W25414  22.885  13.204   0.965  0.2777 -0.0140 -0.3131
82424W        W25415  17.044  24.640  28.235  0.0526  0.0843 -0.0341
82425W        W25416  25.991  22.613  28.383 -0.1248 -0.0751 -0.3270
82426W        W25417  17.590  29.544  23.447  0.1511  0.1859 -0.0294
82427W        W25418  17.942   9.391   7.085  0.0263 -0.0923 -0.3237
82428W        W25419   7.301  17.434   8.682 -0.1723 -0.0267 -0.1562
82429W        W25420  29.537  24.458  24.895 -0.0918 -0.0971 -0.2275
82430W        W25421  13.579  34.797  23.272  0.3837  0.1156 -0.2962
82431W        W25422  14.318  20.726  22.758 -0.0906 -0.1820 -0.1951
82432W        W25423  10.730   1.648  27.643 -0.2087  0.2888 -0.0616
82433W        W25424  29.060  18.033   9.406 -0.0233  0.1301 -0.0788
82434W        W25425   2.593   4.489  28.154 -0.2047  0.3030  0.0590
82435W        W25426  28.797  27.115   8.719 -0.1467  0.2968  0.0598
82436W        W25427  29.142  16.399   8.752  0.2033 -0.1647 -0.3258
82437W        W25428   7.885  22.095   6.278  0.2951  0.2612  0.0912
82438W        W25429  26.945   9.322   2.228  0.2765 -0.0302 -0.1193
82439W        W25430  31.506  18.608  21.156 -0.2589  0.2145 -0.2442
82440W        W25431  20.020  22.819   9.152 -0.2918  0.1237  0.0291
82441W        W25432  33.890  15.761  20.275  0.0313  0.0187  0.3089
82442W        W25433  24.410  19.109   4.300  0.1297  0.2199  0.0677
82443W        W25434   9.421  19.249   9.076  0.1742  0.0875  0.2252
82444W        W25435   3.143   7.593   2.759 -0.3170  0.1798 -0.0920
82445W        W25436  25.293  24.031  25.765  0.3608 -0.1666 -0.0998
82446W        W25437   9.594  21.137  22.543 -0.1002 -0.0267 -0.1456
82447W        W25438  10.810   4.436   2.262 -0.2023 -0.0571 -0.2122
82448W        W25439   1.851  23.261  16.371 -0.1155 -0.0889 -0.2571
82449W        W25440  14.452   6.833  22.340 -0.2091 -0.0491 -0.1967
82450W        W25441  16.579  33.680   1.860  0.0103 -0.2014 -0.1563
82451W        W25442  29.534  16.732   8.999 -0.1659  0.0236 -0.2329
82452W        W25443  15.376  27.683   1.056 -0.0266  0.0962  0.0545
82453W        W25444   1.152  12.161  27.320  0.1241 -0.3269 -0.1109
82454W        W25445  32.897  25.260  23.562 -0.4236  0.0693 -0.0800
82455W        W25446  15.151  16.678   4.667 -0.1028  0.0575  0.1997
82456W        W25447   4.964   8.993   5.950  0.2684 -0.0604  0.0710
82457W        W25448  32.203  28.187  26.346 -0.2845 -0.0705 -0.2042
82458W        W25449  13.649  13.872  24.238 -0.1630 -0.1221 -0.0633
82459W        W25450  18.957  28.610  28.403  0.0573 -0.1327  0.0004
82460W        W25451  16.949   1.028  14.939 -0.1551 -0.0546  0.1894
82461W        W25452  16.470  31.065  23.182 -0.2333 -0.1514 -0.0446
82462W        W25453  31.634   0.071  18.061 -0.2596  0.1059 -0.2007
82463W        W25454   6.131  16.374   1.549 -0.0561 -0.4095 -0.0793
82464W        W25455  30.987  25.360   4.500  0.3668  0.1129 -0.2834
82465W        W25456   4.641  12.191   3.979  0.2787  0.1691  0.3798
82466W        W25457   0.212   6.452   8.168 -0.0163  0.0449 -0.1991
82467W        W25458  34.529   4.333  25.945 -0.0237  0.0769  0.0837
82468W        W25459   0.815  31.900   7.904  0.3627 -0.2896  0.4140
82469W        W25460  33.860  31.622   1.817 -0.0069  0.0821 -0.1105
82470W        W25461  15.910  13.165  15.037 -0.1667  0.1285 -0.0141
82471W        W25462   5.303   5.527   7.711  0.2097 -0.1185  0.0200
82472W        W25463   6.851  15.242  24.382 -0.1169 -0.1272  0.0075
82473W        W25464  25.767  20.856   6.770 -0.1124 -0.1559  0.2545
82474W        W25465  12.995  23.026   3.451  0.1499 -0.1146  0.1002
82475W        W25466  15.390  14.075  25.539 -0.3557 -0.0964 -0.2016
82476W        W25467   2.921  22.237  15.012  0.2154  0.2508 -0.0717
82477W        W25468   6.476  20.746  27.205 -0.2219  0.1630 -0.3353
82478W        W25469   7.191  30.597   2.803  0.0578 -0.2378  0.2468
82479W        W25470   4.938  21.848   9.633  0.2071 -0.4894 -0.0556
82480W        W25471   5.082  18.775  19.898 -0.2411 -0.0687  0.0248
82481W        W25472   0.548   4.664  15.010 -0.0409 -0.2298  0.1398
82482W        W25473  12.913   3.113  18.127 -0.0343  0.2046  0.3156
82483W        W25474  30.121  14.472  29.163 -0.1496  0.2841 -0.0840
82484W        W25475  29.502  14.808  22.677  0.1609  0.0715 -0.1662
82485W        W25476  11.134  22.873   2.554 -0.1469  0.0876  0.0941
82486W        W25477  17.706   1.362   9.845  0.1818  0.0760  0.2145
82487W        W25478  32.972   1.017  25.605 -0.0972  0.1185  0.0315
82488W        W25479   0.494  11.755   1.457 -0.0782  0.0715 -0.0318
82489W        W25480  33.377  17.521   9.418  0.3739 -0.1366 -0.0751
82490W        W25481   8.744  25.831   8.386 -0.0796 -0.2927 -0.0486
82491W        W25482  15.459  23.045  17.025 -0.0467  0.1819 -0.0406
82492W        W25483  15.755  32.177   9.361  0.0302  0.0317  0.0447
82493W        W25484   9.123  34.305  29.081  0.3353  0.0566  0.0944
82494W        W25485   6.578  25.735  21.723  0.0172  0.2556  0.1043
82495W        W25486   9.988  32.263   5.365  0.1659 -0.2671  0.2186
82496W        W25487  12.544  11.162  27.318  0.3771  0.0016  0.0115
82497W        W25488   2.988  18.074  11.201 -0.1111 -0.1658  0.0245
82498W        W25489   7.279  12.959  23.064  0.1078  0.0180  0.3256
82499W        W25490  32.389  32.528   1.337 -0.1421 -0.2146 -0.1280
82500W        W25491  10.455  15.935   8.238 -0.1089  0.0087 -0.0809
82501W        W25492   4.547  19.561  11.504 -0.0770 -0.1638 -0.0692
82502W        W25493   1.256  14.201   4.189 -0.2453 -0.0997 -0.0761
82503W        W25494  14.650  32.102  15.969  0.0274 -0.1258 -0.0494
82504W        W25495   3.443  19.274   7.538 -0.3394  0.1452 -0.1256
82505W        W25496   2.755  21.854   5.999 -0.1370 -0.2696 -0.1773
82506W        W25497  11.132  19.528   0.193 -0.0894 -0.3313 -0.1210
82507W        W25498   4.602   4.369   0.548 -0.0639  0.0355 -0.0414
82508W        W25499  26.233   1.325   6.050  0.1952 -0.3117  0.1699
82509W        W25500  11.613   3.349   6.470  0.1095  0.4080  0.0353
82510W        W25501  11.742  30.248   4.535  0.1466 -0.2890 -0.3198
82511W        W25502  11.814   0.298   7.186  0.0452  0.1939 -0.0479
82512W        W25503  30.203  22.194   7.232 -0.0965 -0.0114  0.0327
82513W        W25504   5.460  13.486  17.718  0.0057  0.1532  0.0613
82514W        W25505  10.999  13.364  25.135 -0.2157  0.3345  0.2636
82515W        W25506  17.822  24.130  24.360  0.0270  0.5433  0.1061
82516W        W25507  10.938  13.837   9.605  0.0086  0.0902  0.1797
82517W        W25508  10.071   8.392  20.974  0.2343 -0.1358  0.0449
82518W        W25509  18.653  22.192  17.393 -0.0616 -0.0385 -0.0498
82519W        W25510  10.550  31.892   2.716  0.0465  0.1704 -0.1354
82520W        W25511  26.548  33.214  28.795  0.0791 -0.1155  0.0286
82521W        W25512   8.243   5.900   9.241  0.1093  0.2789 -0.1843
82522W        W25513   6.973  17.877  17.716 -0.0664  0.0679 -0.2209
82523W        W25514  14.626   6.275  19.278  0.0875  0.3177 -0.1159
82524W        W25515  14.865  23.568  24.197  0.1183 -0.0654  0.1381
82525W        W25516  31.885  31.117   1.897 -0.3307 -0.2516 -0.1910
82526W        W25517  10.283   6.757   6.577 -0.1890 -0.0541  0.0925
82527W        W25518   0.616  17.786  24.314  0.0440  0.0228  0.3181
82528W        W25519  19.279  29.177   2.468 -0.1192 -0.0604 -0.0109
82529W        W25520   8.790  20.410   0.564  0.2653  0.2355 -0.3157
82530W        W25521   3.793  10.520  20.924 -0.2120  0.1441  0.2042
82531W        W25522  10.349   1.282   0.021 -0.2303  0.0352  0.1663
82532W        W25523   3.485  27.747   2.058  0.0799  0.0713  0.1526
82533W        W25524  14.874  16.019  16.002 -0.2419  0.2272 -0.0930
82534W        W25525  18.591  33.720   8.933 -0.0687 -0.3145 -0.0846
82535W        W25526   5.809   4.687  23.643  0.1776  0.3090 -0.2593
82536W        W25527  22.772   9.848  23.004  0.2018 -0.0654 -0.1737
82537W        W25528  13.104   7.218   6.396 -0.0667 -0.1882 -0.0673
82538W        W25529  14.203  27.495   3.069 -0.0092 -0.2746 -0.2999
82539W        W25530  13.332  12.734   5.017 -0.1408  0.2200  0.0296
82540W        W25531  14.479  22.563  27.724  0.2487 -0.2319 -0.1337
82541W        W25532   1.046  21.882   5.452 -0.1705 -0.2665 -0.2115
82542W        W25533   1.677  12.914   6.605 -0.0948 -0.1862 -0.0306
82543W        W25534   7.478  18.860  15.648 -0.0799 -0.1586  0.1095
82544W        W25535  11.411  13.989   4.451  0.2470  0.0446 -0.4594
82545W        W25536  19.416  23.031  22.218 -0.4166 -0.0428 -0.0224
82546W        W25537   1.551  17.608  18.931 -0.1590 -0.1841  0.0145
82547W        W25538  16.363  30.563   8.944 -0.1876  0.0162  0.1244
82548W        W25539  10.165  26.635  27.112  0.0150 -0.0293 -0.1860
82549W        W25540   5.917  17.907   5.333  0.2292  0.2076  0.2788
82550W        W25541   7.377  27.691   2.481  0.3197  0.1473 -0.0788
82551W        W25542   7.066  31.636  28.744  0.0627  0.0496  0.1539
82552W        W25543   6.112  32.601  23.837  0.3258 -0.1223  0.4125
82553W        W25544  32.997  15.472   9.672  0.2364  0.2180  0.1589
82554W        W25545   4.742  13.048  29.116 -0.4616  0.1870 -0.1040
82555W        W25546   7.528  25.936  28.567 -0.0953  0.2431 -0.2937
82556W        W25547   9.700  23.440  26.449  0.0278  0.0238 -0.2587
82557W        W25548   4.507  10.747  25.736 -0.4663  0.0622  0.1328
82558W        W25549   2.183  31.080  10.555 -0.0573 -0.0161  0.1751
82559W        W25550   6.949  20.278   9.381 -0.1595  0.0834  0.1339
82560W        W25551  29.612  11.842  28.490  0.2298 -0.1283 -0.1256
82561W        W25552  24.437  21.047  15.856  0.0657 -0.2675 -0.4128
82562W        W25553   2.646  34.595  25.232  0.0144 -0.1360  0.2810
82563W        W25554   4.524  29.126   0.742  0.2176 -0.1642  0.0580
82564W        W25555  18.030  18.126   7.197  0.1416  0.2703 -0.1283
82565W        W25556  11.619  18.114   4.392 -0.3780 -0.0159  0.0571
82566W        W25557   3.581  28.517   7.519 -0.1221  0.2845 -0.1375
82567W        W25558  10.911  26.936  24.968 -0.0339  0.0539 -0.2357
82568W        W25559   3.688   8.468  26.113 -0.3073 -0.0497 -0.1370
82569W        W25560  10.051  31.718  25.297  0.2027 -0.0725 -0.0106
82570W        W25561   5.575  28.716   1.932 -0.0937 -0.1108  0.0727
82571W        W25562  28.595  33.684   7.584  0.0480  0.1127 -0.3183
82572W        W25563  28.092  23.766   8.320  0.1719 -0.2133 -0.1765
82573W        W25564   4.257  28.673   6.675 -0.0063 -0.1715 -0.0835
82574W        W25565  33.897  30.854   5.323 -0.1365  0.1072 -0.2375
82575W        W25566   3.682   8.637   8.083 -0.2058  0.0389  0.3981
82576W        W25567  15.586  26.390   6.718 -0.2535  0.0759  0.1798
82577W        W25568  28.877  34.786   0.846  0.0727  0.2239  0.1725
82578W        W25569  27.854  14.337   8.669  0.0119 -0.1223 -0.0293
82579W        W25570  19.677   4.675  22.548  0.0838 -0.0040  0.0452
82580W        W25571  29.914  12.268  10.793  0.2337 -0.3529  0.2834
82581W        W25572   4.388  22.255  15.204 -0.2792  0.3362 -0.1594
82582W        W25573  18.841  19.419   3.911  0.0816  0.1126  0.2754
82583W        W25574  12.590  18.571   1.931  0.2602  0.0036 -0.1836
82584W        W25575   4.991  11.139  20.365  0.0950 -0.4381  0.0172
82585W        W25576  31.429  26.842   6.348 -0.1312  0.0406  0.3901
82586W        W25577  11.928  25.990  22.007 -0.1626 -0.1307  0.2017
82587W        W25578   2.259  29.745  18.007  0.2857 -0.2820  0.1653
82588W        W25579   8.210   4.944   3.692  0.3994  0.1017 -0.3136
82589W        W25580   3.143  23.677  28.814  0.0385 -0.0900  0.2646
82590W        W25581  14.451  16.656   1.814 -0.1083  0.1492 -0.0550
82591W        W25582   2.108   7.095  20.690  0.2523 -0.2636  0.0940
82592W        W25583   4.274  13.205   2.497 -0.4796 -0.0390 -0.0229
82593W        W25584  22.779  19.517  23.990  0.0810 -0.0361 -0.2217
82594W        W25585   3.931  17.464   7.427  0.2427  0.1791  0.1191
82595W        W25586  16.984  24.696   5.811  0.2110 -0.1854 -0.1119
82596W        W25587  28.710   7.360  17.406 -0.0592  0.3026 -0.5682
82597W        W25588  15.860  31.546  21.299 -0.2333  0.1898 -0.0916
82598W        W25589  33.285  22.688  16.166 -0.0063 -0.0754  0.2149
82599W        W25590  30.909  15.545   7.093 -0.0851  0.0806 -0.0720
82600W        W25591  20.585  20.516   7.262 -0.0346 -0.0050  0.0626
82601W        W25592  13.875  16.790   1.034 -0.1830 -0.0400 -0.2434
82602W        W25593  34.711  25.906   5.795 -0.2423  0.1092  0.0208
82603W        W25594  10.979  18.911  25.080  0.0870 -0.0617 -0.1402
82604W        W25595  33.226  29.355  28.362 -0.0729  0.4513 -0.3443
82605W        W25596  15.817  27.782   9.676  0.0713  0.0467 -0.2092
82606W        W25597   4.901  19.102   4.068 -0.3366  0.3693 -0.2527
82607W        W25598  21.554  17.489  24.908 -0.0236  0.1106  0.1524
82608W        W25599   8.410   0.669   2.593 -0.1754 -0.0801 -0.1778
82609W        W25600   7.117  23.954  16.929 -0.3140 -0.0477  0.0965
82610W        W25601   4.794  21.538  19.527 -0.1337  0.0653 -0.2291
82611W        W25602  11.369  26.651  29.067 -0.2405 -0.0907 -0.0976
82612W        W25603  16.452  24.470  26.335 -0.0992 -0.0705  0.0667
82613W        W25604  15.882  27.799   3.171  0.0929  0.0482 -0.1565
82614W        W25605   4.809  21.687  24.690  0.2844  0.0888  0.4762
82615W        W25606  32.059  21.369   8.581 -0.3702  0.1123 -0.0287
82616W        W25607  22.280  11.430  19.569  0.0582 -0.0777 -0.0360
82617W        W25608   6.907  18.438   3.243  0.1093 -0.1040  0.2856
82618W        W25609   7.502  25.548   5.422  0.2423 -0.1443  0.3102
82619W        W25610   7.592  26.905   3.716 -0.0375 -0.0128 -0.3733
82620W        W25611   4.809   3.468  10.880 -0.0029  0.5242 -0.0827
82621W        W25612   6.100  14.509   2.019  0.2134 -0.0136 -0.3146
82622W        W25613  11.089  11.968  15.881  0.0755 -0.0450  0.2590
82623W        W25614   9.485  16.628  26.295  0.0636  0.4481  0.2341
82624W        W25615  14.515   1.194   9.651 -0.1095 -0.0294 -0.1172
82625W        W25616  10.079  22.309   3.007 -0.3491 -0.3702 -0.3478
82626W        W25617   9.992  24.292   2.693 -0.1679 -0.0828 -0.0638
82627W        W25618  26.768   2.899   7.908  0.4130  0.0479  0.0005
82628W        W25619   5.696  23.881  26.744  0.1301 -0.3799 -0.2114
82629W        W25620   1.997  17.813   9.963  0.3451 -0.3239  0.0566
82630W        W25621  12.987   2.914  21.565  0.4630  0.0120 -0.2792
82631W        W25622  13.751  11.317   7.781 -0.0015  0.2411  0.0234
82632W        W25623  32.598   5.066   5.682  0.1316  0.0686  0.1529
82633W        W25624  24.969  11.065   7.807  0.0704  0.2820  0.0439
82634W        W25625   5.713   1.385   3.732 -0.0108  0.1758 -0.1193
82635W        W25626   8.989   1.398  26.975 -0.0742 -0.2932  0.0229
82636W        W25627   2.789  22.455  20.406 -0.1264 -0.1781 -0.0970
82637W        W25628   7.195   5.059  25.666 -0.2549 -0.0612 -0.0487
82638W        W25629   4.669  17.237   7.816  0.1041  0.2093 -0.5472
82639W        W25630   5.034  18.143  20.367 -0.0107  0.0958 -0.1650
82640W        W25631   8.142   2.623   5.702  0.2960  0.2457 -0.2684
82641W        W25632  33.898  15.073   8.882 -0.1137 -0.2520 -0.4569
82642W        W25633  11.656   8.734   6.965  0.0026 -0.3613  0.1325
82643W        W25634   2.770  21.840  28.922 -0.3492 -0.5186  0.0027
82644W        W25635   2.042  32.823   8.229  0.1543  0.3434 -0.0758
82645W        W25636  13.340   1.163   1.815 -0.0211 -0.0091  0.2583
82646W        W25637   5.317   2.993  24.495  0.0164 -0.1187 -0.2029
82647W        W25638  15.368  20.507   2.056  0.0535  0.1313  0.1031
82648W        W25639  10.616  34.295   2.238 -0.2255 -0.1329 -0.0489
82649W        W25640   8.266  30.175  10.664 -0.1214  0.1785 -0.3331
82650W        W25641  31.797  11.371   9.321 -0.0443  0.3177  0.2215
82651W        W25642  11.374  12.842  26.022 -0.2349 -0.2898 -0.2876
82652W        W25643  10.630   1.342   8.509 -0.1120 -0.0124 -0.0982
82653W        W25644  14.060  16.327   7.859 -0.0276 -0.1807  0.1346
82654W        W25645   3.424  21.988   9.165  0.0140 -0.0996 -0.0500
82655W        W25646  30.897   4.895   6.692 -0.0092 -0.1416  0.3213
82656W        W25647   5.150  25.049   5.352  0.1117  0.1912 -0.1822
82657W        W25648  31.134  33.708  29.093 -0.0299 -0.1250  0.0091
82658W        W25649   5.515  22.027   1.753 -0.1783  0.2198  0.1031
82659W        W25650  20.125  25.289  23.328  0.1437  0.3446 -0.1121
82660W        W25651  31.368  17.539   1.705  0.1062  0.1378 -0.0474
82661W        W25652  15.496  19.524  28.578  0.1169  0.0019 -0.0351
82662W        W25653  22.965  18.533   3.269 -0.1743  0.2847 -0.3671
82663W        W25654  10.242  19.210   6.731  0.3950 -0.2090 -0.0332
82664W        W25655  14.935  23.731   6.127 -0.1301 -0.1186  0.2049
82665W        W25656  22.388  27.363  27.146  0.1304 -0.1496 -0.1626
82666W        W25657  33.690  28.348  27.200  0.2906  0.3691  0.3477
82667W        W25658  30.634  27.653  17.966  0.0918 -0.5079 -0.1033
82668W        W25659   8.982  31.220   1.060 -0.0076  0.0439  0.0211
82669W        W25660   8.052   3.480   7.126 -0.2327  0.0669 -0.0850
82670W        W25661   1.384  22.633   0.878  0.0643  0.0854 -0.2739
82671W        W25662   9.457   9.003   4.475  0.0485  0.1126  0.0387
82672W        W25663   2.807  24.594   4.251  0.2012 -0.0696 -0.1261
82673W        W25664  34.556  17.927   6.943 -0.0538  0.0443 -0.1599
82674W        W25665   6.100   6.148   8.997 -0.0276 -0.0796  0.3676
82675W        W25666  33.181  24.132  26.410  0.2330 -0.3739  0.1990
82676W        W25667  13.574  19.910  17.346 -0.0042  0.0066 -0.2942
82677W        W25668  18.868  14.930   0.315  0.0557  0.2461 -0.0953
82678W        W25669  34.700  17.343   8.984  0.0321  0.0023 -0.1616
82679W        W25670   5.857   6.787  28.580  0.0577  0.1747  0.1493
82680W        W25671  17.007  12.237   1.938 -0.2467 -0.2734  0.1018
82681W        W25672   5.699   5.457   9.779  0.3692  0.1784 -0.3090
82682W        W25673  26.456  32.548   0.086 -0.0375  0.5221 -0.1331
82683W        W25674  28.483  18.434   1.078 -0.0292 -0.3211 -0.1692
82684W        W25675   2.234   6.552   5.669 -0.3905  0.0596  0.1553
82685W        W25676   6.784  14.625   9.963  0.0379 -0.5997 -0.2052
82686W        W25677  17.455  17.298   4.151  0.1599 -0.0402 -0.2224
82687W        W25678  32.720  13.609   9.683  0.1454  0.1426 -0.0633
82688W        W25679  15.895  14.564  15.751 -0.0533 -0.0582  0.1896
82689W        W25680   8.656  19.794   3.631  0.0117 -0.0746  0.1187
82690W        W25681   5.338  16.141   5.550  0.0567  0.1778  0.0990
82691W        W25682  10.547  33.899   1.370  0.2813  0.1848  0.2307
82692W        W25683  32.588  14.412   4.109  0.3708 -0.0664 -0.2447
82693W        W25684  24.883  17.520  20.334  0.4225  0.2152 -0.0229
82694W        W25685  12.281  17.102   3.938  0.0108  0.0586  0.1154
82695W        W25686   1.521  18.772   0.963 -0.0326 -0.2647 -0.2492
82696W        W25687   8.183  19.537   0.316 -0.2104 -0.2105 -0.0775
82697W        W25688  18.768  17.282  23.727  0.1636  0.0445 -0.1415
82698W        W25689  16.831  18.431   4.457  0.1933  0.1699  0.1552
82699W        W25690  10.256  17.729   8.613 -0.2170  0.3039 -0.1087
82700W        W25691  16.569   7.134  10.345 -0.1131  0.2643 -0.2174
82701W        W25692  18.912   7.096  22.517  0.3274 -0.1423  0.1590
82702W        W25693  13.381  27.715   0.554 -0.3371  0.2026 -0.1739
82703W        W25694  31.903  27.154   1.369 -0.2127 -0.2556  0.0395
82704W        W25695   9.011  19.503  26.246  0.1373 -0.1477  0.4732
82705W        W25696  23.992  30.213   5.610  0.2400  0.0916  0.5410
82706W        W25697   6.264   9.616   1.967 -0.2393 -0.2401  0.1615
82707W        W25698   7.199  22.758   1.491  0.2078  0.1324 -0.2049
82708W        W25699   6.344  13.726   6.105  0.1081  0.0521  0.3796
82709W        W25700  15.402  21.131  19.383 -0.1522 -0.2764  0.0034
82710W        W25701  31.392  28.999  26.084 -0.2968  0.1536 -0.0542
82711W        W25702   7.817  12.074   3.988 -0.0769  0.0991  0.2904
82712W        W25703  19.224  19.133   8.324 -0.2128 -0.2302 -0.0953
82713W        W25704  29.284  28.141   5.545 -0.0053  0.1499 -0.1655
82714W        W25705  22.912  24.798  27.911  0.2342 -0.0448  0.0003
82715W        W25706  10.872  20.925   0.588 -0.3192 -0.0276 -0.2013
82716W        W25707  29.042  12.772  28.274 -0.2139 -0.1998  0.2005
82717W        W25708  15.918  33.640   9.464  0.3435  0.0895  0.3762
82718W        W25709  18.512  22.459   4.343  0.0335  0.2561  0.2029
82719W        W25710  33.440  33.330  21.155 -0.1649 -0.1603 -0.1839
82720W        W25711   4.884  17.600  21.187 -0.2600  0.0566 -0.3072
82721W        W25712  18.545  17.792  25.077 -0.0725  0.2829  0.0402
82722W        W25713  16.459  23.116  22.770  0.0337 -0.1122  0.2582
82723W        W25714   4.819   4.124  11.127  0.3835  0.0232  0.0236
82724W        W25715  15.205  19.703   6.625 -0.0909  0.0292 -0.3176
82725W        W25716  13.004  27.523   5.865  0.0923 -0.1412 -0.1449
82726W        W25717  32.438  19.447   6.029 -0.1659 -0.0070  0.2005
82727W        W25718  22.757  17.077   6.360 -0.0880  0.1653  0.2128
82728W        W25719  13.502   5.382   8.674  0.2193  0.3183  0.0134
82729W        W25720   8.377  22.135   7.876  0.2464 -0.1424  0.2474
82730W        W25721   9.658  23.181   9.287 -0.2995  0.1682  0.3604
82731W        W25722   2.979  19.260   5.598  0.4861  0.2396  0.0848
82732W        W25723   0.589   2.440   9.595 -0.0086 -0.0866 -0.0031
82733W        W25724   5.414  21.058   2.064  0.3452 -0.1224 -0.1741
82734W        W25725  14.560  20.023  23.336 -0.1343 -0.1556  0.4242
82735W        W25726   1.480  33.525  26.384  0.0553  0.0041 -0.0756
82736W        W25727  11.481  21.181   6.987  0.0281 -0.5204 -0.1578
82737W        W25728  28.228  29.232   4.981 -0.0159 -0.1265  0.1721
82738W        W25729  33.366  27.129   8.015  0.2327  0.0841 -0.3687
82739W        W25730  34.020  22.855  24.903  0.0240 -0.1594  0.3081
82740W        W25731  21.532   8.747  28.474  0.0307 -0.1323  0.2890
82741W        W25732   9.919   9.508  10.061  0.0051 -0.2464  0.0325
82742W        W25733  20.633   4.754   7.544 -0.3894 -0.1104  0.0135
82743W        W25734  33.873  19.995   6.335  0.0522  0.0887 -0.4773
82744W        W25735  10.338  22.069   0.734  0.1321  0.1467  0.3737
82745W        W25736  12.068  27.965   1.687 -0.1764  0.0411  0.0499
82746W        W25737  16.307   7.284  11.179  0.2145 -0.2766 -0.1543
82747W        W25738   0.750   6.053   7.461 -0.0444 -0.1404 -0.2656
82748W        W25739  10.039  26.305   9.637 -0.2892 -0.0781 -0.2242
82749W        W25740   7.690  25.127  22.130 -0.1377 -0.1748  0.3579
82750W        W25741   0.758  21.181  24.639  0.2041  0.0759  0.1687
82751W        W25742  23.837  32.992   7.382  0.2081 -0.0552  0.1536
82752W        W25743  27.111  10.388  25.129 -0.0619  0.3346  0.0275
82753W        W25744   6.460  24.273   7.605 -0.0766 -0.1244  0.1513
82754W        W25745  13.881  11.885   0.865  0.0845 -0.0436 -0.3383
82755W        W25746   4.815  27.791  21.146  0.2552 -0.0547 -0.1389
82756W        W25747  16.579  34.472   9.031 -0.0449  0.1294  0.1491
82757W        W25748   6.175   0.154  22.320 -0.0602 -0.0283  0.1760
82758W        W25749  25.414   7.086   4.887  0.1597 -0.0026  0.1001
82759W        W25750  20.475  22.637  21.634 -0.2662  0.2025 -0.0111
82760W        W25751  23.176   8.181   9.195  0.0388  0.1543  0.0779
82761W        W25752   3.522  27.864   7.066 -0.3103 -0.0971  0.1259
82762W        W25753  13.891   9.732  10.143  0.0372 -0.0673  0.2787
82763W        W25754  13.174   5.762   0.486  0.0204 -0.1823  0.1142
82764W        W25755  15.146  14.306   4.847  0.2081  0.2258  0.1067
82765W        W25756  11.446  22.934   1.662  0.1672 -0.0741  0.2085
82766W        W25757   1.459  11.478  10.119 -0.2292  0.2570 -0.1430
82767W        W25758   1.602   6.660   0.762  0.2804  0.2232 -0.1625
82768W        W25759   1.632   2.113  19.638 -0.3612  0.1868  0.0962
82769W        W25760   8.130  21.340   4.753  0.1122  0.1567 -0.2673
82770W        W25761  17.152  13.391   3.228 -0.0638 -0.0573  0.0817
82771W        W25762  15.583   7.691  26.673  0.0325 -0.0999 -0.2583
82772W        W25763  19.610  22.854   2.821 -0.1572 -0.2523  0.0007
82773W        W25764  11.471  21.259   8.649 -0.1178  0.1945  0.0610
82774W        W25765   2.106  17.384   9.188 -0.3231  0.1001 -0.1461
82775W        W25766  30.305  27.776   2.585 -0.0947 -0.0475  0.1319
82776W        W25767   4.785   4.095   7.150  0.0540  0.1205  0.3475
82777W        W25768   3.093  19.636   0.216 -0.0036  0.1723  0.0127
82778W        W25769  25.500  24.213   6.245 -0.3538 -0.1444  0.2481
82779W        W25770   8.865  19.990   5.636  0.0990  0.0672  0.0135
82780W        W25771  30.474  12.702   7.817  0.2359  0.3638  0.1533
82781W        W25772  32.637  19.130   7.499  0.2661 -0.1699 -0.1119
82782W        W25773  15.651  21.013   3.962  0.0890 -0.1813 -0.0457
82783W        W25774   2.124  24.504   3.580  0.3330 -0.0069  0.2238
82784W        W25775   2.532  17.909   5.087 -0.1400  0.1028 -0.0098
82785W        W25776   7.928  11.221   4.388 -0.0863  0.0094  0.0401
82786W        W25777  16.456  27.891   1.548  0.2302  0.0293  0.0919
82787W        W25778  12.532  18.437  23.400 -0.0825 -0.2839 -0.2022
82788W        W25779  11.776  26.965  16.730  0.2513 -0.1288  0.1106
82789W        W25780   1.581  16.420   9.027  0.1915 -0.0956  0.0016
82790W        W25781  16.518  17.643   5.984  0.0481 -0.0601 -0.1176
82791W        W25782   1.587   3.428   6.562  0.0669 -0.4703 -0.2226
82792W        W25783   5.163   2.770   8.258 -0.1582  0.0065  0.2148
82793W        W25784  12.697  21.380  21.331 -0.0228  0.1980 -0.3386
82794W        W25785  32.397  15.550   2.736 -0.0817  0.2845 -0.1363
82795W        W25786  27.445   7.704  17.818  0.1903  0.2273 -0.0016
82796W        W25787   0.611   4.878  21.595  0.3353  0.3442  0.0491
82797W        W25788  23.331  23.669   1.372 -0.2700 -0.1218  0.1805
82798W        W25789  10.011   5.429   7.515 -0.1067 -0.2047 -0.0169
82799W        W25790  18.836  12.370   4.664 -0.2176 -0.0724 -0.2125
82800W        W25791  23.336  13.702   3.394 -0.2736 -0.0051  0.2580
82801W        W25792  21.648  15.297  23.965  0.0283 -0.1010 -0.0761
82802W        W25793  19.882  18.263   4.627 -0.2018  0.0142  0.1954
82803W        W25794  21.162  18.314   4.922  0.1656 -0.2536  0.2857
82804W        W25795   0.693  20.320   6.572 -0.2649 -0.4041  0.1315
82805W        W25796  17.198   2.255   4.788 -0.2395  0.1197 -0.2661
82806W        W25797   4.680  23.986   3.937  0.0752 -0.2544 -0.0312
82807W        W25798  27.530  14.969   7.919 -0.0492 -0.0864  0.0672
82808W        W25799   4.552  24.288  26.751  0.1526 -0.1156 -0.1074
82809W        W25800  10.649  29.077   9.304  0.0355 -0.2433 -0.1261
82810W        W25801   2.705  14.323  26.203 -0.1453 -0.2007  0.1568
82811W        W25802   5.117  16.781   9.458 -0.0124  0.0056 -0.2596
82812W        W25803   0.771   6.899  28.805  0.1313  0.2039  0.1139
82813W        W25804   5.552  20.578   8.532 -0.0661 -0.0467 -0.0790
82814W        W25805  12.988  15.430  22.765 -0.1113 -0.1125  0.1522
82815W        W25806   8.373  18.832   6.951  0.4252 -0.0413  0.4692
82816W        W25807   5.565  19.482  25.562  0.0124  0.1862  0.0731
82817W        W25808  19.503   2.168  28.323 -0.0796 -0.3261 -0.1352
82818W        W25809   9.886  29.361  22.172 -0.1605  0.3869 -0.1412
82819W        W25810  31.040   4.484   1.649 -0.0870 -0.0346  0.1968
82820W        W25811  34.487  11.845  10.858 -0.0183 -0.1148  0.1388
82821W        W25812  12.264  32.985   2.248  0.0683  0.3171 -0.2266
82822W        W25813   8.962  17.958   8.658  0.0422  0.0753  0.0135
82823W        W25814  29.276  33.376  28.233  0.1766 -0.1175  0.0501
82824W        W25815  30.789  28.878   6.615  0.0888  0.0095 -0.2931
82825W        W25816  10.331  25.381   5.721 -0.2136 -0.2149 -0.0326
82826W        W25817  16.297  18.308   8.650  0.0635  0.1583  0.1822
82827W        W25818  23.541  12.669   2.367 -0.1007  0.1273 -0.1715
82828W        W25819   8.835  26.886   4.941  0.1500 -0.2084 -0.0800
82829W        W25820  14.078  21.295  28.610  0.2358  0.0005 -0.0224
82830W        W25821   2.988  13.301  10.894  0.1240 -0.0239 -0.0750
82831W        W25822   9.664  17.410   9.207  0.0805  0.1356 -0.1897
82832W        W25823  13.763  13.419  26.146  0.2589 -0.1881  0.0760
82833W        W25824   2.007  16.542   9.479  0.0328  0.1561 -0.2361
82834W        W25825  13.085  30.543   7.122  0.0639  0.0834  0.1255
82835W        W25826   9.811  18.453  24.831 -0.0421 -0.1253 -0.0585
82836W        W25827  17.156  16.871   9.048  0.0490  0.0918 -0.4641
82837W        W25828   5.965  29.882   4.412 -0.1504 -0.1605  0.1970
82838W        W25829   3.114  21.318   3.812 -0.1844 -0.0172  0.2748
82839W        W25830   5.992  18.729   1.743  0.0681 -0.1621 -0.3682
82840W        W25831   3.396  15.509  28.086  0.3769  0.1343  0.0383
82841W        W25832  13.877  34.132   9.844 -0.3092  0.1718 -0.0071
82842W        W25833   6.095  11.717   3.828  0.1336 -0.1670  0.0281
82843W        W25834  14.891  25.041   7.836  0.3460 -0.1369 -0.0803
82844W        W25835   4.710  17.893   3.604  0.0404 -0.0827  0.0106
82845W        W25836  13.291  30.747  23.161  0.3204  0.0791  0.0645
82846W        W25837   7.313   2.719   1.446  0.3680 -0.3105 -0.0859
82847W        W25838  19.715  28.206   5.878 -0.0379  0.2389 -0.2652
82848W        W25839   6.541  14.514  10.387  0.0776  0.1044 -0.0610
82849W        W25840   6.122  25.858   9.009  0.0515  0.1396 -0.0834
82850W        W25841   3.614  30.773   2.118 -0.1139 -0.2102 -0.0741
82851W        W25842   2.717  17.549   3.376 -0.0474 -0.1773 -0.2262
82852W        W25843  13.403  18.016   1.009 -0.3162 -0.1948 -0.1157
82853W        W25844   1.630  18.650  10.321 -0.2121  0.2046  0.0192
82854W        W25845   5.373   3.899   9.094  0.3092 -0.0597  0.1813
82855W        W25846   8.067   8.024  22.279  0.1797  0.0925  0.0172
82856W        W25847  27.029  34.790  19.445 -0.2795  0.0798 -0.0744
82857W        W25848  12.825  14.616   3.593  0.0535 -0.1372 -0.4830
82858W        W25849  16.670  31.496  17.112  0.0745 -0.5469 -0.1362
82859W        W25850  12.150  26.196   8.441  0.0636 -0.0711 -0.4178
82860W        W25851   9.003  14.767   5.518  0.1544 -0.1112 -0.0565
82861W        W25852  11.277  22.167  25.408 -0.0463 -0.0652 -0.1701
82862W        W25853   3.969  22.063  29.121 -0.0917  0.1830 -0.0827
82863W        W25854   9.730  33.393   6.913 -0.2253  0.2686 -0.2927
82864W        W25855  14.545  26.792   4.950 -0.1970 -0.1469 -0.1772
82865W        W25856  11.639  13.985  20.448  0.0371  0.1146  0.1710
82866W        W25857  11.014  19.106   9.670  0.0636 -0.2069  0.1229
82867W        W25858   8.648  21.921   6.222  0.1364 -0.0909 -0.1472
82868W        W25859  11.116  16.301   4.313  0.0858  0.0003 -0.2042
82869W        W25860   8.701  16.632  27.877 -0.0910  0.0142  0.1307
82870W        W25861  13.148  16.109  23.400  0.1430  0.0652  0.0602
82871W        W25862  15.667  14.352   3.692 -0.1021 -0.3009  0.1152
82872W        W25863   8.783  15.637   1.291 -0.3183 -0.0850 -0.1648
82873W        W25864   8.494   8.110   2.652  0.1010 -0.1360  0.1326
82874W        W25865   7.916  32.229   6.064  0.0208  0.0379 -0.0299
82875W        W25866   3.946   6.732   4.122  0.1291  0.0591  0.1396
82876W        W25867  26.568  12.453   5.457 -0.0622 -0.1079 -0.0796
82877W        W25868  11.971  22.810  26.362  0.3755 -0.0688 -0.0853
82878W        W25869  34.199   5.118   9.025 -0.0404 -0.1393 -0.1349
82879W        W25870  18.514  15.739  26.340  0.0600 -0.1530  0.0375
82880W        W25871  30.128  15.475   6.048  0.0702 -0.0274  0.2584
82881W        W25872  16.304  27.748  20.454  0.0965 -0.0479 -0.1867
82882W        W25873   8.022  20.499  22.174 -0.1442  0.1104 -0.2213
82883W        W25874  11.463  20.671   6.795 -0.0238  0.0066 -0.0409
82884W        W25875   8.627  19.657  19.570 -0.0093  0.2046  0.1872
82885W        W25876  20.102  26.899  28.419  0.1159 -0.2240 -0.0267
82886W        W25877   9.107  10.845   3.638 -0.0431 -0.0366  0.0429
82887W        W25878   8.540  11.743   4.818 -0.0475 -0.2719 -0.0213
82888W        W25879   2.804  23.292   1.901 -0.1076  0.1429  0.0445
82889W        W25880  14.096  13.847   2.129  0.0124 -0.1455 -0.4203
82890W        W25881  16.849   7.462  28.929 -0.2738 -0.2110  0.0959
82891W        W25882   8.289   2.514  25.764 -0.3484  0.1748  0.0373
82892W        W25883  10.874   7.833   3.519  0.0100 -0.0393  0.0771
82893W        W25884   4.116  13.287   5.445 -0.2816 -0.1949 -0.2211
82894W        W25885  16.351  14.340   8.342  0.0789 -0.3090 -0.2358
82895W        W25886  32.612  32.994   1.135  0.1025  0.1336  0.1124
82896W        W25887   7.893  23.728  16.416  0.0365  0.1734  0.1719
82897W        W25888  12.889  25.380   0.643  0.1269  0.2980  0.0631
82898W        W25889   0.309  20.501   8.853  0.1184  0.2568 -0.2436
82899W        W25890   4.368  18.389  19.345 -0.1528 -0.0250  0.0165
82900W        W25891   5.888  22.749   6.078 -0.1917 -0.0587 -0.3252
82901W        W25892  16.093  17.991   5.237 -0.0180 -0.2100  0.0225
82902W        W25893  16.919  27.903  28.307 -0.0794  0.1250  0.2469
82903W        W25894  16.162  26.038  10.120 -0.0517  0.0770  0.0860
82904W        W25895  26.384   9.121  20.234 -0.0855 -0.1857  0.1014
82905W        W25896  16.276  16.490   1.161  0.6225 -0.2462  0.2428
82906W        W25897   0.432   4.693  23.383  0.1136  0.0251 -0.6265
82907W        W25898  11.479  12.058  28.678  0.0282 -0.2795 -0.1180
82908W        W25899   9.140  21.334   9.710  0.1643 -0.3626  0.0332
82909W        W25900   0.736  28.071  21.930 -0.1409 -0.2507 -0.0358
82910W        W25901   4.912  24.085   8.984 -0.0773  0.1011  0.0544
82911W        W25902  18.713  23.033   3.215 -0.2065 -0.0542 -0.0282
82912W        W25903   8.512  23.041  19.659 -0.2044  0.2229  0.1147
82913W        W25904   2.467   7.377   4.330 -0.1148  0.0636 -0.0543
82914W        W25905  10.486  14.883  26.993 -0.0512  0.0827 -0.0374
82915W        W25906  26.540   4.848  19.436 -0.3055 -0.0522 -0.1936
82916W        W25907   5.453  30.536  10.324  0.2011 -0.2282 -0.0680
82917W        W25908  13.944  24.281   5.156  0.0084  0.1445  0.0026
82918W        W25909   5.974  25.745  21.664 -0.1098  0.0651  0.0151
82919W        W25910   5.073  14.516  10.166 -0.0189 -0.1263  0.2282
82920W        W25911  12.895  13.773   9.514 -0.0128 -0.1869 -0.1801
82921W        W25912  14.319  16.449  27.097  0.0840  0.0608  0.1634
82922W        W25913  17.417  22.724   5.649  0.0350 -0.4253 -0.0381
82923W        W25914  34.279  17.094  28.457  0.1825  0.0055  0.2452
82924W        W25915  17.769   6.314  20.658 -0.2164 -0.0963 -0.3572
82925W        W25916  31.426   7.855  26.771  0.1121 -0.1742 -0.0695
82926W        W25917  33.228  12.715   7.932 -0.2526 -0.4019 -0.0064
82927W        W25918   8.718  32.215   1.624  0.1904  0.2332  0.1283
82928W        W25919   5.877   8.032   4.965  0.1020 -0.0751  0.0512
82929W        W25920   4.614  28.785   9.939  0.1354  0.2368 -0.0837
82930W        W25921   5.816  27.269  29.137 -0.0745 -0.2091  0.2535
82931W        W25922  11.815   2.395   7.329  0.3054  0.2055 -0.2481
82932W        W25923  12.329  17.686  28.306 -0.0639 -0.2346 -0.0554
82933W        W25924   0.213  18.226   6.093 -0.0705  0.1085  0.0062
82934W        W25925   5.560  29.804  25.038 -0.3368 -0.0901 -0.2077
82935W        W25926   9.570  10.144  25.805  0.2595  0.1950  0.0580
82936W        W25927  30.877  21.640  18.441  0.0865  0.1219  0.1760
82937W        W25928   7.156  11.924   8.684 -0.1154 -0.4078  0.1088
82938W        W25929  17.367  20.678   5.880 -0.2484 -0.2061  0.2417
82939W        W25930  12.613  32.534  14.937  0.3545  0.0809 -0.1474
82940W        W25931   3.538  21.431   1.337 -0.2568 -0.0496 -0.3943
82941W        W25932  32.391  32.650   4.068 -0.0092 -0.2531 -0.2205
82942W        W25933  28.570  22.779  19.594  0.2870  0.0450  0.0714
82943W        W25934  16.780   5.294  28.432 -0.0796  0.1020 -0.2444
82944W        W25935  16.734  17.761  23.574 -0.1282  0.1599  0.3380
82945W        W25936   8.441   3.251   9.814 -0.0560  0.1614  0.2342
82946W        W25937   5.885  31.165   5.551  0.3258 -0.3035  0.0306
82947W        W25938  34.640   9.350  23.763 -0.0829  0.4276 -0.0600
82948W        W25939   7.390  26.763   1.116 -0.2393 -0.1219 -0.1917
82949W        W25940   4.679  22.686   9.924  0.2004 -0.1548  0.0364
82950W        W25941   1.424  28.899   6.552  0.2394  0.1739 -0.1908
82951W        W25942  13.936  19.994  13.064  0.1832  0.0578  0.3669
82952W        W25943   3.239  16.681   4.579  0.0973 -0.3545 -0.2104
82953W        W25944  12.056  12.685   3.989 -0.2321  0.0882  0.0261
82954W        W25945   2.832  30.890  10.012  0.1115  0.3287 -0.1137
82955W        W25946  10.169  21.508   2.731 -0.1195  0.2096 -0.0856
82956W        W25947  32.667  25.900   4.112 -0.3333  0.0261 -0.2204
82957W        W25948   0.350  19.165  10.241  0.2152 -0.4527  0.1029
82958W        W25949  16.262  17.605  23.334 -0.2265  0.0379  0.2358
82959W        W25950  20.123  17.766   1.111 -0.1336  0.2245  0.0554
82960W        W25951  14.510  18.094   7.660  0.0267 -0.1056 -0.1093
82961W        W25952   7.383   3.543   2.121  0.0481  0.2221 -0.3966
82962W        W25953   6.250  20.734  10.963 -0.0285  0.2945  0.0550
82963W        W25954  32.309   0.753   3.044  0.0711 -0.0898 -0.1167
82964W        W25955  17.449  18.219   8.497 -0.1816  0.0756  0.3220
82965W        W25956   9.054  15.990   0.977  0.1095 -0.0502  0.0362
82966W        W25957  34.037  10.368   3.060 -0.1709  0.0880 -0.2506
82967W        W25958   9.003  11.587  22.576  0.1454 -0.3071  0.3578
82968W        W25959  20.358  14.292   5.406 -0.0068 -0.0850 -0.0722
82969W        W25960  13.851  23.626  19.157 -0.0308  0.2686  0.0302
82970W        W25961  10.964  25.136  24.585 -0.1212 -0.2063  0.2430
82971W        W25962   2.946  26.812  17.516 -0.0146  0.0291 -0.3491
82972W        W25963   8.736  21.998   2.551 -0.1784  0.0941  0.0553
82973W        W25964  17.163  18.673   6.391 -0.1414  0.1927 -0.1147
82974W        W25965  30.538  10.286   3.010  0.0355  0.2813  0.1978
82975W        W25966   5.023  20.670  24.054  0.0878  0.2725  0.2485
82976W        W25967  14.060  27.301   9.795  0.0846  0.1584 -0.2282
82977W        W25968   2.805   0.189   7.392  0.1500 -0.1869 -0.3389
82978W        W25969  10.336  23.652   9.262 -0.2204 -0.0545  0.0987
82979W        W25970  28.931  27.484   6.240  0.0294 -0.0252  0.1236
82980W        W25971  22.891  10.031   9.566 -0.0348  0.2471  0.1909
82981W        W25972   0.236  26.441  23.725 -0.0585  0.2431  0.0959
82982W        W25973  31.551  17.193   2.115  0.4471 -0.1756  0.1138
82983W        W25974  10.443  18.502   9.007 -0.3449  0.1347 -0.2058
82984W        W25975  34.390   7.386  28.377  0.1205  0.1901 -0.0454
82985W        W25976  12.516   7.715  27.821  0.0516  0.2417  0.1535
82986W        W25977   6.101   7.505  28.060 -0.3442  0.1655  0.2001
82987W        W25978   1.875  16.732   6.613 -0.0162  0.2935  0.1434
82988W        W25979  18.342  24.953   8.183  0.1269 -0.0732 -0.2852
82989W        W25980  16.236  13.130   8.071  0.0257 -0.2437 -0.2137
82990W        W25981  26.404  13.677  22.339 -0.1299  0.1782  0.0636
82991W        W25982   9.574  24.217   9.955  0.1488 -0.1567  0.0192
82992W        W25983   7.018  14.016  22.526  0.1800  0.0108 -0.1291
82993W        W25984   4.255   2.679   7.793  0.1993 -0.1016 -0.0282
82994W        W25985   5.180  11.564  27.146 -0.2058 -0.0043 -0.2277
82995W        W25986  12.335  21.826  20.368 -0.4455 -0.1318  0.1460
82996W        W25987   8.066  30.667   9.995 -0.0044 -0.0155  0.6103
82997W        W25988  13.389  14.199  21.236  0.1406 -0.0754 -0.3016
82998W        W25989  22.097  19.102  28.962  0.1293  0.0733 -0.1320
82999W        W25990  10.009   1.551  24.742 -0.2052  0.1440 -0.1203
83000W        W25991  29.119  10.522  29.151  0.0458  0.0091 -0.1229
83001W        W25992  30.982  17.851  19.178 -0.1977 -0.7147  0.1503
83002W        W25993  33.678   0.627   1.084  0.0161 -0.1667  0.0519
83003W        W25994   7.688  27.237   1.178  0.1387  0.4385 -0.4360
83004W        W25995  30.549  20.751  26.728  0.2050  0.1844 -0.1108
83005W        W25996   9.365  28.988   5.855  0.3362  0.2632 -0.0936
83006W        W25997   6.802  24.906  22.682 -0.0834 -0.0468 -0.1750
83007W        W25998  15.952  19.393   6.148 -0.0309 -0.0409  0.1324
83008W        W25999   3.973  20.080  19.900 -0.1190 -0.0500  0.1400
83009W        W26000  17.137  16.422  24.739  0.3213 -0.0047  0.1455
83010W        W26001  14.057  17.785  27.429 -0.2894 -0.1815 -0.3343
83011W        W26002   9.769  16.570   3.136 -0.1214 -0.0063 -0.0953
83012W        W26003  17.552  13.005  24.413 -0.0478 -0.1652 -0.0732
83013W        W26004   0.755  14.127   2.743  0.1801  0.1727  0.0377
83014W        W26005  15.367  13.911  27.910  0.5051  0.2383  0.0820
83015W        W26006  16.750  21.946  16.263  0.0577  0.2928 -0.0569
83016W        W26007   0.085  31.743  19.828 -0.2706 -0.1272  0.1638
83017W        W26008  12.435  13.611  27.443 -0.0938  0.0502 -0.1717
83018W        W26009   2.494  21.274   2.287 -0.0021 -0.1849  0.0747
83019W        W26010  14.920  12.439   9.295  0.3180  0.0392  0.0347
83020W        W26011  17.743  21.347  20.806  0.3597  0.2713  0.0529
83021W        W26012  31.318  20.669   6.321  0.2445  0.0302 -0.0211
83022W        W26013   6.131  29.908  20.099 -0.1260  0.1125 -0.2974
83023W        W26014  17.227  21.340   6.074 -0.1051 -0.1122  0.0407
83024W        W26015   6.653  27.555   1.773 -0.2553 -0.2620  0.0105
83025W        W26016  16.388  15.978  24.458 -0.1194 -0.3524  0.0662
83026W        W26017  12.255   2.014   8.710 -0.5739 -0.2670  0.4183
83027W        W26018  19.241  18.016   5.499  0.0788 -0.1607  0.2371
83028W        W26019  10.207  21.703   6.874  0.0466 -0.1518 -0.1682
83029W        W26020  22.219  18.419   2.553 -0.1392  0.1050  0.4015
83030W        W26021  25.431  11.511   6.156  0.5347 -0.0979  0.1071
83031W        W26022  17.093  10.677  26.057  0.4179 -0.0617  0.2094
83032W        W26023  10.289  19.848  10.558 -0.3515  0.3516  0.0458
83033W        W26024  33.127  22.790  23.848  0.0796 -0.3256  0.2526
83034W        W26025   2.341  15.860  26.441  0.1660 -0.3253  0.0944
83035W        W26026  30.981   4.584   3.451 -0.3004  0.0962  0.1034
83036W        W26027  31.377   4.126   8.473  0.3597 -0.4182 -0.1950
83037W        W26028  33.530   2.153  27.508  0.3350  0.3693 -0.1728
83038W        W26029  12.755  12.940   8.660 -0.0056  0.0885  0.3634
83039W        W26030   3.119  11.862   4.014 -0.0487 -0.1293  0.0273
83040W        W26031  17.015  18.044  19.746  0.4420 -0.0181  0.0527
83041W        W26032   8.429  21.085   0.875 -0.0668  0.0148 -0.0183
83042W        W26033   7.406  13.917   8.421  0.0629  0.3205  0.1131
83043W        W26034  20.546  25.540   8.050  0.1444 -0.2194 -0.3670
83044W        W26035   5.938  23.145  22.820  0.0681  0.1612 -0.0272
83045W        W26036  13.740  29.075   2.449 -0.0921 -0.2046 -0.1063
83046W        W26037  15.785  18.707   4.820  0.2755  0.2481 -0.0272
83047W        W26038  12.950   9.397   6.815 -0.3007 -0.2253  0.1378
83048W        W26039  19.698  19.812   0.290  0.0518 -0.2273 -0.1775
83049W        W26040   2.663   0.720  28.892 -0.1744  0.0021 -0.1563
83050W        W26041   4.727  17.706  18.046  0.0746  0.0129 -0.3005
83051W        W26042   4.011  10.200  10.778 -0.1964 -0.2623 -0.3124
83052W        W26043  10.564  22.728  25.792 -0.2357 -0.2401 -0.0834
83053W        W26044  13.801  21.924   1.833 -0.0307  0.2510  0.1075
83054W        W26045   8.230   6.438  10.066 -0.1031 -0.1018 -0.2412
83055W        W26046   7.777  29.809   2.277 -0.0413  0.1086  0.2413
83056W        W26047   0.940   5.315  10.111  0.0767  0.0829 -0.1929
83057W        W26048   7.769  29.296   8.121 -0.3256 -0.0213 -0.1816
83058W        W26049  26.513  21.088   5.049  0.1021 -0.2200 -0.0478
83059W        W26050   9.822  15.947   9.374 -0.0205 -0.1928 -0.1409
83060W        W26051   9.642  18.369   9.495  0.1684  0.2021 -0.0498
83061W        W26052   4.463  17.685  23.590  0.6562 -0.0434  0.0173
83062W        W26053  11.926  26.836   5.599  0.0043  0.1128  0.3934
83063W        W26054  32.154  19.059   7.502 -0.0518 -0.2189  0.0974
83064W        W26055  10.144  12.832   5.823  0.1643  0.0371 -0.0422
83065W        W26056  16.186  22.231  19.962 -0.1999  0.3970 -0.0168
83066W        W26057   3.110  23.114  28.686 -0.1775  0.2023  0.2314
83067W        W26058  10.094  17.203   9.717 -0.0664 -0.0412  0.2276
83068W        W26059   5.408  29.765   8.362  0.3060  0.2829  0.3743
83069W        W26060   7.614  11.594   8.013  0.0943  0.0161 -0.2502
83070W        W26061  13.599  11.836   8.451 -0.2724 -0.1176  0.1789
83071W        W26062   1.976  17.163   3.480 -0.4061 -0.0487 -0.3741
83072W        W26063   1.543  19.479   7.729  0.0063  0.0923 -0.1474
83073W        W26064   7.214  17.607   9.842  0.3715  0.1038 -0.0827
83074W        W26065  13.841  16.983   3.107 -0.0962 -0.2320 -0.4425
83075W        W26066   6.314   9.220  19.798 -0.0324 -0.2841  0.0025
83076W        W26067  23.782  20.420  28.416 -0.2112  0.1170 -0.1866
83077W        W26068  19.654  15.490  25.160 -0.0329  0.1966 -0.1116
83078W        W26069   3.941  28.444   4.289 -0.1888  0.2165 -0.0819
83079W        W26070   2.094  15.983  19.655  0.0166 -0.0474 -0.0108
83080W        W26071   7.152  14.476   4.575 -0.2956 -0.1322 -0.3022
83081W        W26072  26.541   5.848   7.542  0.1643  0.2763 -0.1064
83082W        W26073  19.955   9.895  28.411  0.2358 -0.0145  0.1905
83083W        W26074  33.735  16.057   7.217  0.2995 -0.0130  0.0528
83084W        W26075  15.051   4.825  27.273  0.0580  0.1185 -0.0033
83085W        W26076  14.973  30.974   0.781  0.0481  0.5224  0.2035
83086W        W26077  21.649  16.321   8.355  0.1645  0.1169 -0.1535
83087W        W26078  28.125  14.512  10.656  0.1004 -0.0668  0.2488
83088W        W26079  17.991  14.796  26.087  0.1245 -0.4583 -0.0104
83089W        W26080   7.833  29.064   9.333 -0.0246  0.0742 -0.0738
83090W        W26081  13.500  17.387   6.577 -0.0591  0.0126  0.0289
83091W        W26082  18.390  27.575   8.495  0.0172 -0.1569  0.2171
83092W        W26083  12.093  14.906   3.805  0.0127  0.0287  0.2956
83093W        W26084   8.203  23.523   3.667 -0.2179 -0.1050 -0.0775
83094W        W26085   5.280  21.800   9.228  0.2756  0.1581 -0.0473
83095W        W26086  33.685   2.484   5.062 -0.0805  0.0565 -0.0423
83096W        W26087  34.089   1.168   5.697 -0.1285  0.1411  0.0377
83097W        W26088  29.418  27.138   7.740  0.0891 -0.0554 -0.2200
83098W        W26089   6.442  16.205   1.167 -0.0109  0.1391  0.0155
83099W        W26090   5.649  13.564   5.680  0.3716 -0.1615  0.4508
83100W        W26091  22.592  18.216  19.356  0.0111  0.0244 -0.0530
83101W        W26092  32.585  20.197   9.983 -0.0853 -0.2250  0.0349
83102W        W26093  13.574  22.615  26.699 -0.0231 -0.1481 -0.1440
83103W        W26094   5.981  26.844   3.956  0.5826  0.4197  0.0642
83104W        W26095   1.593   6.368   9.754 -0.1432 -0.0024 -0.0573
83105W        W26096   6.125  16.958   3.681  0.1114 -0.3160  0.0497
83106W        W26097   8.019  13.316   8.330  0.2429 -0.0370  0.1983
83107W        W26098  10.154  22.377   7.344  0.2867  0.1468 -0.0701
83108W        W26099  17.690  26.333   7.143 -0.0299  0.0557 -0.2722
83109W        W26100  13.587  12.087   4.848  0.1380 -0.0894  0.1285
83110W        W26101  33.769  19.075   8.003 -0.1724 -0.2053 -0.1252
83111W        W26102   1.625  25.097   7.785  0.0447  0.2346  0.0476
83112W        W26103   7.933  21.741  27.080 -0.0160  0.0899 -0.0146
83113W        W26104  31.648  17.445   4.175  0.0316  0.1829 -0.1148
83114W        W26105  14.373   1.560   4.429 -0.3707 -0.1987  0.1287
83115W        W26106  18.191  22.390   6.386 -0.0830  0.0725  0.4310
83116W        W26107  13.904  16.494  14.996 -0.3022  0.0847  0.1401
83117W        W26108  16.366  22.980   9.680  0.2254  0.2940  0.1678
83118W        W26109  13.525  19.113   2.642 -0.1392 -0.2956  0.0506
83119W        W26110   5.088  15.555  21.208 -0.2509 -0.0679  0.2529
83120W        W26111  32.100  15.962   5.844  0.1112 -0.5241  0.2091
83121W        W26112  12.404  15.410  24.558  0.2235 -0.1288 -0.1543
83122W        W26113   1.279  21.372  27.440  0.0763 -0.2045 -0.0406
83123W        W26114   0.984  12.815  11.455 -0.0391 -0.0903 -0.0562
83124W        W26115  15.002  19.755  25.106  0.2792  0.1231  0.0287
83125W        W26116  10.643  24.368   3.168 -0.0907 -0.1076 -0.0817
83126W        W26117  10.787  23.235   7.795  0.0557 -0.0327  0.0765
83127W        W26118   7.828  18.736   6.198  0.2546  0.1532  0.2239
83128W        W26119   2.453  30.005   4.851  0.4311  0.1420  0.1898
83129W        W26120   6.121   3.936   5.837  0.0791 -0.1618 -0.1777
83130W        W26121  30.167  14.159   3.676 -0.0023 -0.1712  0.2074
83131W        W26122  30.857  16.937   6.124 -0.2832 -0.2849  0.1806
83132W        W26123  17.966  21.033  27.831  0.2855 -0.0664  0.2076
83133W        W26124  19.658  11.648   7.477 -0.2221  0.1873  0.1408
83134W        W26125   6.780  33.367  26.243 -0.1846  0.2155  0.3856
83135W        W26126   2.679  34.531  26.564 -0.3038 -0.0195  0.2386
83136W        W26127   9.643  23.084  19.888 -0.1521  0.0913 -0.1111
83137W        W26128   8.948  23.193   1.204 -0.1761  0.0625 -0.0677
83138W        W26129   7.943  19.059   1.238 -0.1376 -0.0413  0.1659
83139W        W26130  13.519  16.608   0.240  0.0900 -0.2449 -0.0559
83140W        W26131   7.277  13.418   6.322  0.1425 -0.1749  0.2179
83141W        W26132  16.220  19.689   6.735 -0.1361  0.0223  0.3015
83142W        W26133   8.220  12.505  10.711  0.0148 -0.3312 -0.1523
83143W        W26134  11.072   3.976   7.112  0.1619 -0.0109  0.2210
83144W        W26135   8.937   2.916  25.989  0.2090 -0.1155  0.1067
83145W        W26136   9.062  25.127   5.222 -0.0790 -0.3534  0.1966
83146W        W26137  10.931   9.597  11.640 -0.0664  0.0491 -0.0420
83147W        W26138  29.133  25.305   8.867  0.2141  0.1562 -0.2323
83148W        W26139   6.346  27.620   2.854 -0.0575  0.1858 -0.0526
83149W        W26140  33.647   9.230   9.156  0.2926 -0.1968  0.2501
83150W        W26141  34.124  19.036   2.728 -0.0511  0.0754 -0.3689
83151W        W26142  31.184  22.356   1.554 -0.3370 -0.0457  0.0539
83152W        W26143   0.457  20.623  26.259  0.6091  0.0035 -0.3508
83153W        W26144  29.174  31.765  18.415 -0.2096 -0.1056 -0.1231
83154W        W26145  27.005  23.558  27.609 -0.2799  0.0119 -0.0225
83155W        W26146  29.769  19.065   7.183  0.1263 -0.0149  0.0883
83156W        W26147   4.785  31.282   8.131  0.1912 -0.1939 -0.2531
83157W        W26148  13.158  23.485   7.216  0.0876 -0.1149 -0.1629
83158W        W26149  11.321  16.087   5.432  0.1323  0.0439 -0.1067
83159W        W26150   8.974  27.440  23.990 -0.1955 -0.0993  0.0888
83160W        W26151   9.880  31.845   6.981  0.0572  0.0593 -0.3263
83161W        W26152   9.117  24.052   9.932  0.0453 -0.2101 -0.2632
83162W        W26153   6.454  26.707   2.433  0.0271 -0.0649  0.2313
83163W        W26154   1.034  11.173   9.844 -0.1619 -0.1891 -0.2632
83164W        W26155   1.252  24.685   9.792  0.1013 -0.1512  0.0171
83165W        W26156   8.376  34.020   7.038 -0.1264 -0.1174  0.0613
83166W        W26157  14.102  12.633   3.099  0.0838  0.0679  0.0257
83167W        W26158  15.953  25.499   2.488  0.0326 -0.3027 -0.2310
83168W        W26159  17.649  12.007  22.516 -0.1096  0.0281  0.0599
83169W        W26160  33.147  31.448   3.498 -0.0683 -0.0484 -0.0740
83170W        W26161  16.472  31.624   7.221 -0.0668  0.0865 -0.2659
83171W        W26162  14.050  30.256   8.867  0.1061 -0.1165  0.0785
83172W        W26163  19.941  23.182   5.295  0.3391 -0.1049  0.0092
83173W        W26164   1.763  29.547   8.579  0.0222  0.2131  0.0135
83174W        W26165  11.523  21.929   2.530 -0.1565  0.3136  0.0899
83175W        W26166  10.338  15.114  18.850 -0.3621  0.2075  0.1687
83176W        W26167   0.877  26.850  28.518  0.3214 -0.0466  0.1314
83177W        W26168   9.041  23.734  27.762 -0.0575  0.3129 -0.0028
83178W        W26169   9.338  23.466   8.732 -0.1281 -0.1763 -0.0770
83179W        W26170  19.590  13.801   3.108  0.1827  0.0281 -0.2235
83180W        W26171   7.668  32.632   1.226  0.0527  0.1155 -0.0332
83181W        W26172  20.243  23.503   5.592 -0.0508  0.1852  0.2660
83182W        W26173   7.137  26.873  10.156  0.1460 -0.0061 -0.0740
83183W        W26174  27.749  21.625   7.941 -0.0779  0.0292  0.0445
83184W        W26175   9.769  24.982   0.876 -0.0010  0.3403  0.5676
83185W        W26176  27.580  17.412   0.809  0.1489  0.0498 -0.0088
83186W        W26177  13.357  29.971   9.610  0.1855 -0.2114 -0.2893
83187W        W26178  26.499  13.546   7.555 -0.3304 -0.1031  0.2031
83188W        W26179  13.420  22.921   4.447  0.1710  0.3508 -0.2968
83189W        W26180   2.490  26.096  20.489 -0.1932 -0.1626  0.1944
83190W        W26181  26.310  20.698  26.688  0.0887 -0.2954 -0.2561
83191W        W26182   4.002  10.170   2.515 -0.0349  0.0870 -0.0861
83192W        W26183   9.027  27.256  23.173 -0.2358  0.0946  0.0483
83193W        W26184  18.894  14.557  28.447 -0.0905 -0.0860 -0.2074
83194W        W26185   5.426  32.046   7.955 -0.0877 -0.0699  0.2172
83195W        W26186   8.164  11.803  11.514 -0.2821 -0.2101  0.1068
83196W        W26187  31.638  12.702   2.936 -0.0821  0.5464 -0.0992
83197W        W26188  28.995  11.769   3.794  0.0719  0.2479  0.2395
83198W        W26189  12.084  17.252   4.765  0.0678 -0.0096 -0.0288
83199W        W26190  10.905  33.243  28.159  0.1501 -0.0753  0.0933
83200W        W26191  31.920  18.173  10.034 -0.2153 -0.0827 -0.2195
83201W        W26192   2.397  23.011   9.412  0.1229  0.3711 -0.0842
83202W        W26193  16.202   5.310   5.378  0.1884 -0.0323  0.1440
83203W        W26194   2.570  14.304   0.805  0.0047 -0.0080  0.4055
83204W        W26195  26.760  10.104  18.005 -0.0100  0.1530  0.2774
83205W        W26196   7.459  21.072   5.915 -0.1248 -0.1306  0.0597
83206W        W26197  34.490   2.068   7.097  0.1931  0.2654 -0.1319
83207W        W26198   0.545  10.121  27.766 -0.0743  0.3975 -0.0380
83208W        W26199  15.556  12.698   8.809 -0.1597  0.1500 -0.2832
83209W        W26200   4.947  15.896  11.284  0.2780  0.2348  0.0271
83210W        W26201   0.572  20.123   3.927  0.1429  0.5700 -0.2897
83211W        W26202  14.065  18.039   2.352 -0.1431  0.2259 -0.3077
83212W        W26203  13.680  21.782   8.663  0.2181 -0.2386 -0.1471
83213W        W26204  31.450  19.656   7.484  0.1685 -0.0814  0.0483
83214W        W26205  12.323  17.655   9.092  0.0361 -0.1690  0.4494
83215W        W26206   9.925  22.461  26.895 -0.1992 -0.0944 -0.1475
83216W        W26207   7.576   6.447  28.195  0.1203  0.0932 -0.0894
83217W        W26208  16.869  19.189   5.920 -0.1791  0.0306  0.2996
83218W        W26209  13.829  20.020   1.892  0.1477 -0.0331  0.3014
83219W        W26210   7.264  31.868  25.986 -0.0367  0.0826 -0.0700
83220W        W26211  12.600  15.647  28.612  0.0555  0.2356  0.0150
83221W        W26212   2.883  24.434   8.218  0.0086 -0.0648  0.1730
83222W        W26213   2.133  25.626   6.144  0.2798 -0.1461  0.4884
83223W        W26214   5.753  24.569  24.211  0.1605 -0.1977  0.1354
83224W        W26215  15.014  14.590   1.628  0.0747 -0.0566 -0.0321
83225W        W26216  12.152  10.613   6.480 -0.0533  0.2318  0.0290
83226W        W26217  14.334  24.080   4.942 -0.0870  0.1385  0.3108
83227W        W26218  20.945  18.913   5.594 -0.1800  0.0753 -0.3847
83228W        W26219  32.361   3.553  27.126  0.1990  0.4492  0.1621
83229W        W26220   9.219  30.624  28.320  0.0736 -0.1166 -0.2629
83230W        W26221   5.167  15.433  28.409  0.1025 -0.2142  0.0198
83231W        W26222   9.715  16.421   9.603  0.0015  0.2538 -0.1084
83232W        W26223  33.354  29.783  25.200  0.1347 -0.2890  0.2756
83233W        W26224  14.057  17.121   4.257  0.1182  0.0199  0.5093
83234W        W26225   0.622  14.652  11.216  0.1916  0.0431 -0.2994
83235W        W26226  23.751  22.537  26.876  0.1607 -0.2207  0.1182
83236W        W26227  15.293  20.839  23.016  0.2015  0.0706 -0.1266
83237W        W26228  13.378  13.646   5.715  0.2659  0.0971  0.1829
83238W        W26229   6.170  31.514   7.598 -0.0191  0.2344 -0.1679
83239W        W26230  33.919  12.023   2.511  0.0098 -0.0873 -0.1146
83240W        W26231  10.890   7.133  16.759  0.2307  0.3557  0.1432
83241W        W26232  12.587  16.195  23.473 -0.1705  0.4109  0.1012
83242W        W26233  32.723  14.593   4.912  0.1315  0.2687  0.0091
83243W        W26234  25.258  27.203   3.942  0.1113 -0.0686  0.1580
83244W        W26235  18.610  13.813   6.455 -0.0570 -0.0438  0.1050
83245W        W26236  20.774  20.720   1.525 -0.1738  0.2153 -0.0020
83246W        W26237  14.471   5.676   6.190  0.0453  0.0255 -0.1876
83247W        W26238  30.934  32.463  28.407 -0.1922  0.0933  0.2342
83248W        W26239  14.113   6.011  10.434  0.3029  0.0058  0.2169
83249W        W26240  27.759  24.568   7.802  0.1160 -0.2241  0.1007
83250W        W26241   7.152  18.654   1.172  0.2325 -0.0715  0.1116
83251W        W26242  30.294  29.811  26.761 -0.3320  0.2978 -0.4847
83252W        W26243   8.010  31.246   1.180  0.1355 -0.0479  0.2309
83253W        W26244   3.174  14.260  11.415 -0.0475 -0.2374  0.1208
83254W        W26245  12.561  25.586   4.391 -0.0544  0.0292  0.2714
83255W        W26246  22.809  26.609  28.841 -0.0252  0.1192  0.0744
83256W        W26247  11.025  24.078   5.928 -0.0503  0.1662 -0.0679
83257W        W26248  16.629  29.995   9.178  0.0623  0.2198 -0.1499
83258W        W26249   4.578  32.021   0.869 -0.0479  0.0104 -0.0011
83259W        W26250   7.354  15.283  25.057 -0.2867  0.2012 -0.0085
83260W        W26251   5.360   6.030   0.824 -0.0820 -0.0629 -0.0652
83261W        W26252   7.647  21.700  28.203 -0.0893  0.2524  0.1077
83262W        W26253   2.650  17.579   7.798  0.2079 -0.0907  0.3733
83263W        W26254   7.218   3.601   6.474  0.0401  0.1516  0.0984
83264W        W26255  19.441  33.188   5.591  0.1466  0.0006  0.0409
83265W        W26256  17.503   4.611  22.228  0.1945  0.3031  0.0687
83266W        W26257   1.147   5.228  22.706  0.3096 -0.2359  0.0775
83267W        W26258   5.463  17.735   3.872  0.1326  0.0241  0.1650
83268W        W26259   0.815  25.749   4.902  0.0612  0.0586  0.1311
83269W        W26260  30.377   1.116   2.157 -0.0127 -0.0154  0.0902
83270W        W26261   2.058   7.571   7.584 -0.1838 -0.0358  0.2183
83271W        W26262  16.167  31.339  25.095  0.0933 -0.1783 -0.0153
83272W        W26263  33.917  16.857   5.089 -0.1227 -0.2572  0.0326
83273W        W26264  16.952   3.734  21.606  0.0455  0.1134 -0.0197
83274W        W26265  11.642   8.757  26.222 -0.1061 -0.0646  0.2855
83275W        W26266   4.857  22.802   8.553 -0.2923  0.2722  0.2898
83276W        W26267   7.138  18.479   7.214  0.4167  0.1232 -0.0488
83277W        W26268  14.886  19.605   1.120  0.1360  0.0624  0.5412
83278W        W26269  13.086  21.697  14.919  0.0960  0.2703  0.1742
83279W        W26270   4.469  22.605  28.363  0.2648  0.0151  0.2633
83280W        W26271   1.506  24.862   5.797 -0.0338 -0.0292  0.2504
83281W        W26272   6.273   8.636  22.763 -0.1647  0.0208 -0.0671
83282W        W26273  13.956  19.944   5.662 -0.2271 -0.2893 -0.0019
83283W        W26274  33.758  15.579   0.678  0.3875  0.3985  0.2509
83284W        W26275  31.157   9.004  10.242 -0.1844  0.1086 -0.0136
83285W        W26276  10.364  12.175   4.398 -0.0215  0.4711  0.2206
83286W        W26277   5.720  20.356  15.727  0.0338  0.2099  0.0431
83287W        W26278   7.715   9.972   5.110  0.0193  0.0530 -0.1156
83288W        W26279  17.000  23.004  25.397  0.0072 -0.1176  0.0569
83289W        W26280  14.424  28.720   3.302 -0.0269 -0.0348  0.1003
83290W        W26281  28.276  15.211  10.569 -0.1557  0.0077  0.1553
83291W        W26282  12.510  22.002  28.219  0.0700 -0.0221 -0.1434
83292W        W26283  26.233  17.912  27.692 -0.6072  0.0238  0.0967
83293W        W26284  33.838  16.034   9.820  0.1067  0.0861  0.0318
83294W        W26285   8.108  11.654   8.390 -0.1284 -0.0534 -0.4378
83295W        W26286  21.113  22.087  24.532  0.0226 -0.1002 -0.0650
83296W        W26287  10.341  19.394  25.141  0.2024 -0.1471 -0.3237
83297W        W26288  34.399  27.965  26.850 -0.0979  0.0902  0.1808
83298W        W26289  17.602  18.938   4.743  0.0781  0.1279 -0.2579
83299W        W26290   8.531  32.810   7.665 -0.0422 -0.0754 -0.2513
83300W        W26291  29.115  26.776   7.762 -0.0311 -0.0539 -0.0969
83301W        W26292   1.937  14.306  10.227  0.0747 -0.0121 -0.2568
83302W        W26293  34.748  18.186   7.820  0.3269  0.1833  0.1959
83303W        W26294  32.610  26.608  28.544 -0.2606  0.0489  0.1551
83304W        W26295  16.969  19.901   6.025  0.0120  0.0337  0.0015
83305W        W26296  12.981  15.985   8.237  0.0443  0.1884 -0.1216
83306W        W26297  30.824  25.811   6.369 -0.5015  0.2198  0.0859
83307W        W26298   2.344  30.837   0.090 -0.0019 -0.0896  0.0573
83308W        W26299   7.866  18.906   6.663  0.0502 -0.1029  0.2069
83309W        W26300  15.933  17.502  28.836 -0.3690 -0.2301 -0.0150
83310W        W26301   8.382  21.045   7.120 -0.1994 -0.0412 -0.1432
83311W        W26302  10.652  12.580   7.337 -0.0340  0.0750 -0.1924
83312W        W26303  12.820  32.684  19.136 -0.1481 -0.0782 -0.0831
83313W        W26304  19.345  14.091  25.970  0.0597  0.1514 -0.0063
83314W        W26305   2.779  10.760   9.363  0.1239 -0.1389 -0.2411
83315W        W26306   0.901   9.275   9.463 -0.1685  0.1160 -0.0643
83316W        W26307   6.356  22.053   5.736 -0.3135 -0.2222 -0.0059
83317W        W26308   0.900  23.030   5.108  0.1984 -0.1119 -0.1017
83318W        W26309  21.026  18.194   1.477 -0.0486 -0.1635 -0.1153
83319W        W26310  16.709  22.136  26.542 -0.2379  0.1422 -0.0443
83320W        W26311   6.901   1.902  10.663  0.2153 -0.0106  0.2028
83321W        W26312  10.460   6.728   7.080 -0.0208  0.2213 -0.1843
83322W        W26313  32.729  17.668   9.549 -0.0581  0.1482  0.1997
83323W        W26314  15.648  30.089   7.400 -0.0326  0.0412 -0.0521
83324W        W26315   8.317  29.878  19.862  0.3377  0.0841 -0.1035
83325W        W26316  34.176  17.693  19.248  0.1384  0.1421  0.0633
83326W        W26317   9.693  20.729   8.911  0.0163 -0.0660  0.1039
83327W        W26318  12.757  28.071   6.924  0.0439 -0.0663 -0.1269
83328W        W26319  20.798  13.643   6.474 -0.0518 -0.0540  0.1196
83329W        W26320   4.588  17.190   9.406 -0.2709  0.1409  0.1859
83330W        W26321  17.842  19.350   6.341  0.1525 -0.2053 -0.1157
83331W        W26322   6.486  31.228  27.032 -0.1546 -0.1468 -0.0847
83332W        W26323   8.458  26.293   8.431 -0.1217  0.1393 -0.1084
83333W        W26324  16.102  13.799  26.968  0.2971 -0.0654  0.4032
83334W        W26325  29.338  21.891   9.153 -0.5654 -0.1076  0.1614
83335W        W26326  24.900  15.962   8.853 -0.1123  0.2068 -0.4103
83336W        W26327  12.207  12.032  26.050 -0.0781  0.1681  0.0416
83337W        W26328   3.321  12.980  27.712 -0.1703 -0.1377 -0.0426
83338W        W26329  10.716  14.025  26.950  0.1046 -0.4447  0.4930
83339W        W26330  28.886  12.996   3.719  0.0146  0.2389  0.0428
83340W        W26331  16.778  16.502   2.283 -0.1660  0.1809  0.0264
83341W        W26332   5.444  21.344   6.772 -0.1186  0.2628  0.2270
83342W        W26333  16.245  29.290   7.166 -0.0578 -0.0519 -0.0414
83343W        W26334  19.271  20.399  22.201 -0.1863  0.2127  0.1353
83344W        W26335   4.313   1.376   7.847  0.4288  0.1747  0.0108
83345W        W26336  20.799  27.371   5.773  0.3112 -0.2322 -0.0937
83346W        W26337  19.750  31.574   3.150 -0.1404  0.2871  0.3138
83347W        W26338   7.492  16.309   9.672  0.1220  0.1114  0.2199
83348W        W26339  16.290   6.464   2.807 -0.0689 -0.0812  0.1638
83349W        W26340   6.526  25.998   4.076  0.0517  0.0805 -0.2065
83350W        W26341  11.235  25.458  21.584 -0.0416 -0.0833  0.1039
83351W        W26342   0.255   7.893  16.153 -0.1412 -0.1880  0.0256
83352W        W26343   7.649  19.520  22.290  0.0909  0.2070 -0.0492
83353W        W26344   8.665  23.770   8.174  0.0322  0.0804 -0.0103
83354W        W26345   7.663  19.499  16.439 -0.0123  0.0941 -0.0880
83355W        W26346  18.492  16.534   5.854  0.1928 -0.0384  0.1673
83356W        W26347  13.626  27.366  19.729 -0.1610 -0.1624  0.1240
83357W        W26348   1.587   2.195   8.750 -0.0080 -0.0355 -0.1095
83358W        W26349  28.270  19.052   5.626  0.1786  0.1988 -0.2987
83359W        W26350  26.868   0.888   5.740 -0.2266  0.2203  0.1516
83360W        W26351   4.857  21.591   9.115 -0.5074 -0.1252 -0.0997
83361W        W26352   4.115  19.618   9.676  0.1074  0.1450 -0.2951
83362W        W26353  23.788  11.742   6.851  0.2902 -0.1137  0.2878
83363W        W26354  16.623  26.013  23.063 -0.0320  0.1265 -0.5150
83364W        W26355   9.069  19.677   1.318 -0.1498 -0.2458 -0.0160
83365W        W26356  12.245  29.211  18.522  0.0524  0.1994  0.3356
83366W        W26357   1.421  24.072  16.540 -0.0655  0.0020  0.0359
83367W        W26358   2.662  24.993  24.474 -0.0373 -0.2978 -0.1297
83368W        W26359   6.682  18.290   4.227 -0.2136 -0.0501  0.2185
83369W        W26360   2.648  23.729  29.021 -0.0032 -0.0885 -0.0487
83370W        W26361   2.209   6.277  10.299  0.1948 -0.2836 -0.1306
83371W        W26362  11.563  27.001  20.916  0.0725 -0.1689  0.3692
83372W        W26363  14.346  28.669   0.031 -0.1551 -0.1034  0.0151
83373W        W26364   1.812  15.472  24.110 -0.1117 -0.1834 -0.3704
83374W        W26365   4.709  17.072  10.878  0.0853  0.0809 -0.1370
83375W        W26366  14.310  19.345  24.952 -0.2899 -0.1970  0.2130
83376W        W26367   9.305  24.830   7.682  0.2531 -0.1249 -0.1200
83377W        W26368  21.766  32.220  27.094  0.1113 -0.2514  0.3123
83378W        W26369  26.060  13.076  10.698  0.5535  0.2561  0.1026
83379W        W26370   6.443  15.273  27.547 -0.0707 -0.1026 -0.0432
83380W        W26371   2.339  13.855   2.546 -0.1507  0.1074 -0.0373
83381W        W26372   4.797  23.832  22.416  0.4266  0.0188 -0.1171
83382W        W26373  27.023  20.228   3.545  0.2071  0.0614  0.1384
83383W        W26374  30.222   3.628  25.112 -0.0083  0.0649  0.1946
83384W        W26375   2.509  30.740   2.679 -0.1024 -0.0888  0.1928
83385W        W26376  11.629  31.498   9.008 -0.5082 -0.1608 -0.3211
83386W        W26377  17.233  16.891   4.542 -0.0545 -0.2632  0.0073
83387W        W26378   2.745  21.023   7.971  0.0641  0.0350 -0.0151
83388W        W26379   3.358  29.193  18.437  0.1756 -0.3496  0.1846
83389W        W26380  24.958  19.544  16.868 -0.1202 -0.2714 -0.0748
83390W        W26381  18.950  33.517  23.033  0.4662 -0.1362 -0.1118
83391W        W26382  15.113   7.311  16.191  0.0164 -0.0469  0.1491
83392W        W26383  29.838  26.962   2.769  0.1966  0.1188  0.2607
83393W        W26384  10.034  11.175  23.124  0.1758 -0.2333  0.2203
83394W        W26385  28.413   0.219  18.490  0.0253  0.3061 -0.1429
83395W        W26386  32.460  34.179   5.838  0.0233 -0.1964  0.0232
83396W        W26387   0.733   0.405   8.567  0.1761 -0.0266  0.3827
83397W        W26388   7.407  22.728  20.233 -0.2751  0.0240 -0.1239
83398W        W26389   9.687  18.057   0.888  0.2820  0.1367 -0.1846
83399W        W26390   7.012  21.995   6.308 -0.2454  0.0474  0.0269
83400W        W26391  21.065  15.105  22.842 -0.2040 -0.0555  0.0791
83401W        W26392  33.580  20.729  25.637  0.2345 -0.2246  0.2120
83402W        W26393  25.506   5.085  19.289  0.2032  0.2271 -0.4324
83403W        W26394  27.960  32.124  29.026  0.1577  0.2137 -0.3392
83404W        W26395  15.145  27.267   7.689  0.0490  0.1635  0.0952
83405W        W26396   3.537  19.574   8.427 -0.0811 -0.3095 -0.1367
83406W        W26397  11.590  27.085  24.133  0.0486 -0.4848  0.1684
83407W        W26398  12.536  29.656  19.399  0.1901 -0.0882 -0.0411
83408W        W26399  31.883  15.181   0.348 -0.2885  0.0376 -0.0181
83409W        W26400  28.170  14.313   4.141  0.1495  0.0227  0.2711
83410W        W26401   7.906  29.935  25.369  0.3311  0.0312 -0.2029
83411W        W26402   8.816   7.803  25.488 -0.0454  0.1412  0.5383
83412W        W26403  34.388   7.150   5.974 -0.0271 -0.0679  0.3520
83413W        W26404  26.854   4.133  19.965  0.3848  0.1380  0.0726
83414W        W26405   3.573   3.375  28.733 -0.0978 -0.0423 -0.2735
83415W        W26406  30.499  10.636  28.146 -0.4813 -0.1362 -0.1191
83416W        W26407   4.626   1.436   4.729 -0.0246  0.5564 -0.0602
83417W        W26408  32.735  15.810  25.804 -0.2029  0.1251  0.3367
83418W        W26409   0.033  24.836   4.056 -0.0023  0.1320  0.0102
83419W        W26410   4.648   1.187  23.000 -0.0530  0.2679  0.2128
83420W        W26411   6.998  21.849  10.770 -0.1141 -0.2679 -0.1550
83421W        W26412  14.846   6.595  25.792  0.1089  0.1461  0.0727
83422W        W26413  26.013  26.982   5.565  0.1439 -0.4383  0.2701
83423W        W26414  12.838   1.391   6.178  0.3968  0.2446  0.2088
83424W        W26415  11.811  27.209  10.357 -0.0340  0.4202 -0.0451
83425W        W26416   3.075  24.871  15.644  0.2341 -0.1711 -0.1099
83426W        W26417  31.576  17.560  21.776 -0.0935 -0.1682  0.4256
83427W        W26418   4.743   9.017   7.999  0.0728  0.2851 -0.0254
83428W        W26419  11.175  22.634   1.321 -0.2769 -0.0493 -0.2158
83429W        W26420  15.481  21.326  28.593 -0.0485  0.0277  0.0857
83430W        W26421  10.178  24.310   6.534 -0.1092  0.4122 -0.2615
83431W        W26422   9.454   0.349  27.319  0.3454 -0.0985 -0.2877
83432W        W26423  34.779  12.234  27.595 -0.1067 -0.2319 -0.1698
83433W        W26424   9.573  20.863   0.778 -0.2814  0.1287  0.0304
83434W        W26425  14.141  11.526  28.133 -0.0269 -0.3867  0.1096
83435W        W26426  15.038  30.809   7.780  0.1193 -0.0585  0.0339
83436W        W26427  22.990  17.859   4.657  0.3414  0.3852 -0.2934
83437W        W26428  16.363   7.083   3.862  0.0180 -0.0588  0.2607
83438W        W26429   7.971  20.563  10.297 -0.1177 -0.0600  0.1473
83439W        W26430  26.794  27.204   7.678 -0.0001 -0.0140  0.0330
83440W        W26431   4.308  28.427   7.148 -0.0905  0.0816 -0.1017
83441W        W26432  10.064  19.630   4.594 -0.0686 -0.2000 -0.2064
83442W        W26433   5.022  11.884  29.110  0.2546 -0.1769 -0.3697
83443W        W26434  17.572  12.404   4.290 -0.1909  0.1218  0.0963
83444W        W26435  25.784  32.651  16.509  0.0819  0.0235 -0.0833
83445W        W26436  11.233  22.111  13.346 -0.0229 -0.0153  0.2182
83446W        W26437  17.091  20.929   4.989  0.0808 -0.0137 -0.0472
83447W        W26438  28.491  25.060   8.092 -0.2350  0.0397  0.1374
83448W        W26439  23.912   9.842   6.611 -0.1015 -0.0907  0.0064
83449W        W26440   7.338  28.997  25.110 -0.3695  0.1677 -0.0432
83450W        W26441  24.919  21.035  25.154 -0.0790 -0.1092  0.0148
83451W        W26442  29.701   4.072  22.641  0.0613  0.3049  0.0384
83452W        W26443   1.669  14.879   3.127 -0.0179  0.0040 -0.2693
83453W        W26444  23.725   6.855  16.359 -0.1604  0.1365 -0.1555
83454W        W26445   9.129  23.238   9.109 -0.0176  0.2378  0.1698
83455W        W26446  30.827   0.567  28.406  0.2662 -0.1066 -0.1686
83456W        W26447  33.393   2.403  26.483  0.1652 -0.0748 -0.0852
83457W        W26448   2.017  27.530  19.541  0.2911 -0.2205 -0.0853
83458W        W26449  17.620  22.475   4.702 -0.4329  0.0161  0.5193
83459W        W26450  15.424  24.577   9.108 -0.0169  0.0991 -0.2149
83460W        W26451   7.363  25.664   6.042  0.1903 -0.2832 -0.0691
83461W        W26452   6.641   2.091   9.970  0.2660  0.1720 -0.1720
83462W        W26453   2.106  13.276   0.233 -0.0349 -0.0401 -0.5564
83463W        W26454   9.597  25.060   9.773  0.3923  0.0225 -0.0132
83464W        W26455   0.989  18.696   6.582  0.0421  0.3935 -0.1538
83465W        W26456  15.359  32.402  24.532  0.2264 -0.0089  0.1817
83466W        W26457   8.342  24.445   3.888  0.1128 -0.0120  0.1813
83467W        W26458  34.375   7.025  10.113  0.2600 -0.2657 -0.0387
83468W        W26459   0.839  25.135  19.704 -0.0928 -0.2732  0.3375
83469W        W26460  24.054  13.100   8.863  0.1724  0.0938 -0.2013
83470W        W26461   5.899  19.366   4.343 -0.1003  0.0250 -0.0046
83471W        W26462  34.351  14.569   4.673 -0.0274  0.0942  0.1150
83472W        W26463  33.825  29.111  13.443 -0.2108  0.1934  0.0277
83473W        W26464  15.502  30.979   9.705  0.1613  0.0948  0.2633
83474W        W26465  29.087  24.858  19.969  0.1496 -0.2320 -0.4527
83475W        W26466   7.402  31.341   9.499 -0.0670 -0.3094 -0.0605
83476W        W26467   7.985   7.985   6.137  0.4930  0.1537  0.2483
83477W        W26468  24.776  19.718  25.496 -0.0774  0.0329 -0.1844
83478W        W26469  10.099  26.093   5.097  0.3846  0.0480 -0.0424
83479W        W26470  34.365  28.685  17.806 -0.1940  0.0427  0.1253
83480W        W26471  19.020   4.279  22.895  0.2922 -0.1492 -0.0323
83481W        W26472  33.424   1.849  15.351 -0.0378 -0.2592  0.3531
83482W        W26473   4.191   9.185   6.498  0.1591 -0.1208  0.0490
83483W        W26474  33.370  20.592   8.303  0.0117 -0.1330  0.1512
83484W        W26475  11.828   6.332   5.170 -0.3610 -0.1212  0.3675
83485W        W26476   7.016   0.337  27.086 -0.0373  0.0067  0.0192
83486W        W26477  32.008  20.290  19.260  0.1719  0.1535 -0.0355
83487W        W26478  28.098  24.401  27.335  0.0839  0.0165  0.0263
83488W        W26479  33.155  31.110  26.610  0.0294  0.3552 -0.1205
83489W        W26480  32.345  16.429  21.261  0.2320  0.1979  0.0529
83490W        W26481  31.309  13.677  28.642 -0.2331 -0.2607 -0.1613
83491W        W26482   9.915  14.747   5.996  0.0419 -0.1120 -0.0809
83492W        W26483  14.930  14.163   1.093 -0.2053 -0.0344 -0.2295
83493W        W26484   9.996  34.296   0.029  0.1358 -0.2809  0.0195
83494W        W26485  34.396  15.975  28.424 -0.2537  0.1300 -0.1860
83495W        W26486  30.008  18.212   9.725  0.1968 -0.0886 -0.1493
83496W        W26487  31.310  27.996   3.340 -0.2077  0.1306  0.0683
83497W        W26488   2.618  24.075   9.405  0.0227 -0.0360  0.0640
83498W        W26489  18.769   9.721   0.531  0.1911  0.0053 -0.3491
83499W        W26490   1.591   9.547  28.076 -0.1311  0.1424  0.4312
83500W        W26491  24.699  27.262   9.898 -0.2383 -0.0969  0.0013
83501W        W26492   1.007  15.258  18.422 -0.1611  0.1771  0.4003
83502W        W26493   8.411  24.985   2.140 -0.3188  0.3214  0.0726
83503W        W26494  21.975  28.945  29.257 -0.1451 -0.2856 -0.1780
83504W        W26495  33.838  27.176   4.671 -0.0471 -0.1281  0.2395
83505W        W26496   2.457  31.395   4.475 -0.1243 -0.0718 -0.0637
83506W        W26497   7.217  27.373   6.877 -0.0334 -0.3437 -0.0125
83507W        W26498   4.881  31.531   7.269 -0.0677 -0.1258 -0.3096
83508W        W26499   7.572  10.400   7.244 -0.1935 -0.0668  0.2410
83509W        W26500   2.728  10.635  26.457  0.0447 -0.2065 -0.0862
83510W        W26501   5.658  22.705  27.829 -0.3646  0.0516 -0.1313
83511W        W26502  30.956  10.435  13.942  0.1781 -0.2756  0.1976
83512W        W26503   6.247   9.329   0.617  0.1876  0.0116  0.0143
83513W        W26504   9.663  14.198   5.116 -0.2014 -0.1448 -0.2034
83514W        W26505   7.669  17.702  17.167 -0.3074 -0.3881  0.0309
83515W        W26506  21.224  27.589   2.070 -0.1885  0.1816  0.1496
83516W        W26507  15.353  23.703   8.089 -0.3248  0.2089  0.3214
83517W        W26508   5.608  21.744  10.002  0.0381  0.0866  0.2186
83518W        W26509  16.383  34.007   1.021 -0.2028 -0.1521  0.3567
83519W        W26510   3.322  23.505   7.951  0.4967  0.1952  0.0491
83520W        W26511  16.063  29.378   3.056 -0.2962 -0.0781 -0.2733
83521W        W26512   0.047  32.712  21.773  0.0649  0.0358  0.0758
83522W        W26513   3.981  27.235  29.050  0.3699 -0.1758 -0.0281
83523W        W26514  14.187  29.642   3.630 -0.0670 -0.1765 -0.0267
83524W        W26515   4.157  13.869   7.674  0.1563  0.2144  0.0201
83525W        W26516   4.810  20.169  18.928  0.1802  0.3062  0.2721
83526W        W26517  30.292  15.623   0.460 -0.0074  0.1284 -0.0597
83527W        W26518  12.389  31.394   0.009 -0.0285 -0.0116  0.1135
83528W        W26519  32.422  22.109  23.290 -0.0253  0.1313 -0.1566
83529W        W26520   2.946  25.140   3.413 -0.1316 -0.0532  0.0320
83530W        W26521  12.000  26.145  23.227  0.2633  0.1604  0.0875
83531W        W26522   1.106  26.601   5.245 -0.0337 -0.1369 -0.1412
83532W        W26523   5.453   7.038  24.550  0.1360  0.1476 -0.1946
83533W        W26524  33.207  25.978   0.439 -0.2606 -0.0613  0.2478
83534W        W26525  16.785  28.347  25.578  0.3289 -0.0556 -0.0178
83535W        W26526   0.296   1.600  26.720  0.0800  0.0795  0.3329
83536W        W26527  32.503   4.278   1.606 -0.0898 -0.1611  0.0220
83537W        W26528  12.949  21.152   4.174 -0.1329 -0.0437  0.1592
83538W        W26529   6.471  32.367   9.715  0.0392  0.0804  0.0295
83539W        W26530  20.993  16.724  15.687  0.3011  0.1620  0.0459
83540W        W26531  17.782  26.932  18.157 -0.3005  0.0821 -0.3614
83541W        W26532   8.906  12.531  19.012 -0.4272  0.0797  0.0353
83542W        W26533  17.054   0.666   4.546  0.0065 -0.1179  0.2518
83543W        W26534  10.860  22.872   3.956  0.1601 -0.2049 -0.1888
83544W        W26535  13.130  30.174   8.954 -0.1212  0.1083  0.2904
83545W        W26536  29.279  11.133   0.098 -0.1096  0.0178 -0.1268
83546W        W26537   1.809  18.047   4.060 -0.0516  0.0603 -0.2380
83547W        W26538   4.299  22.281  27.547  0.1728  0.0240 -0.0776
83548W        W26539   1.287  20.251   5.160 -0.2633 -0.1562  0.0877
83549W        W26540  13.104  30.811   4.254 -0.0943 -0.1989 -0.3283
83550W        W26541  32.268  22.831  10.497 -0.2005 -0.1055  0.1783
83551W        W26542   0.520   9.068   8.648 -0.0966  0.1109  0.2963
83552W        W26543  31.774  21.017   7.105 -0.1252  0.0279 -0.0780
83553W        W26544   9.060  12.448  10.355 -0.0637  0.1342 -0.2502
83554W        W26545  30.898  30.160  22.022  0.2054  0.1548 -0.0627
83555W        W26546   8.668  29.734   4.288  0.0043  0.1820  0.2101
83556W        W26547   1.218  26.231   2.521 -0.1135 -0.0755 -0.1788
83557W        W26548   5.103  15.838  25.228  0.0521 -0.2267  0.0597
83558W        W26549  10.465  21.230  28.346  0.1439  0.1883 -0.1310
83559W        W26550  33.948  17.795   8.344  0.0535 -0.0537 -0.3396
83560W        W26551  13.888  28.101  25.759 -0.0173  0.0986  0.2368
83561W        W26552  24.443  22.874   4.150  0.1419  0.0616 -0.0901
83562W        W26553  10.209  32.127   2.439  0.1243  0.0119 -0.2065
83563W        W26554   9.978  16.425  22.236  0.0533  0.1273 -0.1887
83564W        W26555   9.993  31.423   5.003  0.0285  0.0302 -0.0861
83565W        W26556  32.887  32.110  23.811 -0.1378 -0.1848  0.0179
83566W        W26557  30.993  22.859   1.498  0.0260  0.0484 -0.1831
83567W        W26558  22.520  28.449   7.392  0.0902 -0.1409 -0.2391
83568W        W26559   6.671  24.330  26.075  0.2567  0.2408 -0.1090
83569W        W26560  22.003  15.251  28.375  0.0390 -0.1675  0.1314
83570W        W26561  11.061  27.770   6.894  0.0380  0.1595  0.0976
83571W        W26562  16.603  17.738  24.111 -0.1444 -0.0120  0.0386
83572W        W26563   2.278   6.343  26.763  0.0427 -0.3813 -0.1163
83573W        W26564  22.880  33.709  13.235 -0.1249  0.1586  0.2813
83574W        W26565   4.396   8.249  10.471  0.0393 -0.0732 -0.0601
83575W        W26566  22.365  29.438  16.739 -0.2332 -0.1561  0.1054
83576W        W26567   8.337  16.405   6.647 -0.1729  0.0786 -0.0776
83577W        W26568  14.830   9.401  28.540 -0.0473 -0.1960 -0.0784
83578W        W26569   7.124  21.864   3.321  0.0785 -0.0931  0.3649
83579W        W26570  19.195  21.860   4.068 -0.1277  0.0279  0.0116
83580W        W26571  23.348   0.954  26.784  0.1143 -0.0740 -0.2517
83581W        W26572  11.835  27.706   9.062  0.2095 -0.0845  0.0347
83582W        W26573   8.684  20.989   6.720 -0.2140 -0.1305 -0.0533
83583W        W26574  19.901  15.879   2.118  0.1946  0.3919  0.3176
83584W        W26575   5.801  20.004   5.036 -0.2275  0.2339 -0.0327
83585W        W26576   2.751  33.876  15.456 -0.0761 -0.1898 -0.2400
83586W        W26577   9.231  23.818  24.382  0.3593 -0.1158 -0.2317
83587W        W26578  33.930  12.175  27.131 -0.1581 -0.2148  0.2740
83588W        W26579   7.967  27.151  27.387  0.1776 -0.4344 -0.0403
83589W        W26580   3.822   3.855  28.401  0.1859 -0.1139  0.0598
83590W        W26581   6.605  16.959   5.413 -0.0309  0.0883  0.2850
83591W        W26582  14.520  20.735   4.331 -0.3495 -0.1142  0.0268
83592W        W26583  15.277   1.888   0.972 -0.0724  0.0761  0.1798
83593W        W26584  10.081  15.776  18.308  0.1483 -0.1618  0.0191
83594W        W26585   5.535  21.001  22.504  0.2113 -0.0795  0.3092
83595W        W26586  28.775   5.981  14.038  0.1294  0.0440  0.3516
83596W        W26587   8.983   0.346  28.728  0.1548  0.0746  0.0554
83597W        W26588   6.637  12.422  27.241 -0.1609 -0.2117 -0.0170
83598W        W26589   4.965  14.784  17.146  0.0646 -0.0194  0.0634
83599W        W26590  32.294  27.630   0.284  0.1259  0.0058  0.0539
83600W        W26591  31.937   2.461  24.001  0.1969  0.0312 -0.0610
83601W        W26592   8.482  28.177  27.987  0.0156 -0.0377 -0.1463
83602W        W26593   5.290  21.651   2.560 -0.2113 -0.0407 -0.1315
83603W        W26594   9.616  25.668   0.858  0.0272 -0.2266 -0.3304
83604W        W26595  27.105  11.541   1.749  0.3648  0.2521  0.0722
83605W        W26596   2.109  11.047   0.272  0.0091  0.3858  0.1762
83606W        W26597   7.354  15.077  20.493 -0.2203  0.3870 -0.0553
83607W        W26598   9.539  20.612   6.406  0.1670  0.0178 -0.2255
83608W        W26599  14.267   3.518  19.928 -0.0910  0.3291 -0.0039
83609W        W26600  33.906  14.727   7.547  0.0083  0.1298 -0.2551
83610W        W26601  30.657   4.700   0.098 -0.0689 -0.0786  0.1903
83611W        W26602  17.645   7.994   8.119  0.2663  0.1116 -0.3097
83612W        W26603   0.346  30.140  15.811  0.2412  0.0314  0.0874
83613W        W26604   5.363  22.845  25.515  0.0911 -0.0179 -0.3586
83614W        W26605  15.273  23.371  27.651 -0.3793  0.1267 -0.2697
83615W        W26606  21.403  26.087  23.867 -0.1253  0.1310  0.4386
83616W        W26607  33.958  13.129  10.056 -0.0910 -0.0067  0.1895
83617W        W26608  15.981  26.762   2.221 -0.0839  0.1457  0.2923
83618W        W26609   4.674   7.973  17.613  0.0684 -0.0512 -0.2855
83619W        W26610   2.177  27.911   2.724 -0.0924  0.0284 -0.0845
83620W        W26611  15.092  27.629   2.822  0.2015  0.1102 -0.0451
83621W        W26612  14.007  16.853  13.852  0.0285  0.2394  0.0233
83622W        W26613   6.146  30.412   6.769 -0.1278  0.0117 -0.1413
83623W        W26614  18.241  25.838  23.995 -0.0540 -0.0054  0.1064
83624W        W26615   7.993   8.177  25.756 -0.5134  0.2257  0.1093
83625W        W26616   1.319   9.629  25.636  0.1257  0.0461 -0.1451
83626W        W26617  27.010  30.234   6.805 -0.0327 -0.1527 -0.0330
83627W        W26618   7.999  22.357   6.741  0.0473  0.0663  0.0160
83628W        W26619  14.230  14.187  26.284 -0.2832  0.3718  0.5138
83629W        W26620   8.755   0.874  16.049 -0.0769 -0.0346 -0.0329
83630W        W26621  31.003  28.437   2.505  0.0741  0.2825  0.3354
83631W        W26622  34.081  29.213  26.283  0.2495  0.0131 -0.1731
83632W        W26623   7.588  21.061   2.891 -0.1859  0.2057 -0.0754
83633W        W26624   9.871  21.846  10.315 -0.0736 -0.0356  0.2897
83634W        W26625   7.812  16.802  23.149 -0.0711 -0.0365  0.1794
83635W        W26626  26.159   4.453  21.451 -0.0742 -0.3470  0.0559
83636W        W26627  25.027  27.627   7.407  0.5107  0.5947 -0.1292
83637W        W26628  29.706  25.213  28.027 -0.0245 -0.1394 -0.2854
83638W        W26629   3.192  24.264  23.498 -0.1063 -0.1386  0.1001
83639W        W26630  27.954  28.381  26.205 -0.2920 -0.0314 -0.3166
83640W        W26631  22.059   0.573  24.899  0.1851  0.3571  0.0390
83641W        W26632   1.662  22.263   5.074  0.0261 -0.1953  0.2247
83642W        W26633  33.140  12.794  25.799  0.0026  0.1718  0.0157
83643W        W26634  27.810  17.041  28.579 -0.1762 -0.0761  0.0260
83644W        W26635  12.893  27.662  10.149 -0.1659 -0.0898  0.1010
83645W        W26636   1.785  19.873   1.781 -0.1132 -0.1983  0.0741
83646W        W26637   2.699  31.785  27.228  0.0213 -0.0275 -0.4420
83647W        W26638   7.120  11.604  29.229  0.1679  0.0275  0.1320
83648W        W26639   6.228  10.934  23.175  0.1801 -0.0653 -0.1136
83649W        W26640  12.173  32.618   2.999  0.2586 -0.2207 -0.1456
83650W        W26641   2.639  26.660  28.948 -0.0124 -0.2832 -0.1151
83651W        W26642  26.147  24.946  27.805 -0.0109  0.0131  0.0922
83652W        W26643  12.528   0.622   4.686 -0.4393 -0.1497  0.0814
83653W        W26644  11.366   8.499  25.876 -0.0397  0.0815  0.2302
83654W        W26645  15.466  16.834   0.374  0.0340  0.0558  0.2910
83655W        W26646   9.281  27.875   0.684  0.3045  0.1149  0.3039
83656W        W26647  34.195  25.740   6.752 -0.1357 -0.0182 -0.0122
83657W        W26648  22.414  25.883  25.039 -0.2759  0.0962  0.0851
83658W        W26649   7.430  31.346   2.799  0.0141 -0.1536  0.1555
83659W        W26650  21.470  28.294  27.105 -0.1952  0.2421  0.0532
83660W        W26651  16.844   8.282   7.429 -0.0691  0.1873  0.0710
83661W        W26652  20.591  21.665   4.931 -0.1348 -0.0829  0.7457
83662W        W26653   3.237  13.677  20.890  0.2221 -0.2260  0.1239
83663W        W26654  10.843  27.750  22.417  0.1097 -0.1956 -0.0436
83664W        W26655  12.999  29.026   7.068 -0.1401 -0.0458 -0.0563
83665W        W26656  31.849  11.892   2.110  0.1277  0.1200  0.1752
83666W        W26657   8.584  20.058   7.831  0.1135 -0.0448 -0.2194
83667W        W26658   3.403  10.766  17.781  0.0568  0.0108 -0.1083
83668W        W26659  33.511  21.478  28.370 -0.0218  0.1558  0.2088
83669W        W26660   9.556  22.162   0.251 -0.1830  0.1784 -0.1058
83670W        W26661  11.693  23.180  28.857 -0.2519 -0.0651 -0.2632
83671W        W26662   4.159  21.912  10.019  0.0984 -0.1001  0.1596
83672W        W26663  10.467  25.074  22.948 -0.0823 -0.2208  0.0094
83673W        W26664   6.248  28.589   3.864  0.0884  0.2117  0.3840
83674W        W26665  19.181  32.498   7.583  0.0956  0.0396  0.2438
83675W        W26666  13.190  31.157   3.915  0.0851 -0.0287  0.0545
83676W        W26667   6.011  16.834  26.682 -0.3304  0.3543 -0.1976
83677W        W26668  18.436  20.347  17.435 -0.0792  0.1467 -0.1942
83678W        W26669  27.426   8.709   2.805 -0.0855  0.0636  0.2476
83679W        W26670   1.319  28.179  16.914  0.1023 -0.0167  0.2280
83680W        W26671   6.250  32.184  24.778 -0.1305 -0.0999 -0.1237
83681W        W26672  15.685  29.508   4.983 -0.1889 -0.1161  0.0760
83682W        W26673  25.574   3.147   6.753  0.0222  0.0256 -0.0714
83683W        W26674  23.914  32.300   7.484  0.2538  0.1763  0.1798
83684W        W26675   8.608  16.333  21.397 -0.0871  0.1967 -0.2998
83685W        W26676   1.210  13.795   4.961  0.1012  0.0390 -0.0887
83686W        W26677   6.863   3.977   7.186  0.2375 -0.0565 -0.1284
83687W        W26678  28.364  16.147   5.452  0.0653 -0.1084 -0.1412
83688W        W26679   4.508  29.925  23.600  0.3448  0.3895  0.0426
83689W        W26680   6.025  25.082  17.289 -0.3536  0.0307 -0.0609
83690W        W26681  33.032   0.423  19.447  0.2881  0.0938 -0.0531
83691W        W26682  34.260  12.599  24.611 -0.1313  0.1660  0.0396
83692W        W26683  12.695  32.634   4.772  0.2830  0.2599  0.0915
83693W        W26684  17.483  20.384   7.231 -0.2882  0.2768  0.0798
83694W        W26685   9.743  12.346  23.824 -0.3350 -0.1396 -0.2582
83695W        W26686   6.618  15.607  26.092  0.0791 -0.0342 -0.0142
83696W        W26687  22.954  18.940  18.771  0.0280  0.0459  0.3839
83697W        W26688   2.218  24.299   7.396 -0.3731 -0.0168  0.1643
83698W        W26689  30.507  16.579   0.082  0.1074 -0.1219  0.0245
83699W        W26690  20.655  18.564   1.684 -0.2596 -0.1447 -0.0327
83700W        W26691   6.309   2.081  27.977 -0.2112 -0.1854  0.1651
83701W        W26692  21.098  21.007   2.037 -0.1740 -0.1696 -0.1186
83702W        W26693  33.392   0.517   3.737 -0.0364 -0.3603  0.1099
83703W        W26694  21.890   7.766   1.473 -0.1456  0.0907  0.0627
83704W        W26695   0.417  19.640   7.124  0.0058 -0.0033  0.0985
83705W        W26696   0.787  15.309  24.010  0.1977  0.2862  0.3682
83706W        W26697   7.253  15.679   7.119  0.1259 -0.0393  0.0676
83707W        W26698   7.266  29.376  26.148 -0.4047 -0.0434 -0.2154
83708W        W26699   8.314   1.561  15.076  0.0433  0.1261 -0.3007
83709W        W26700  29.206  14.362   7.262  0.3295  0.1021 -0.2404
83710W        W26701   1.706  26.877  15.433  0.1502  0.0920 -0.0611
83711W        W26702  26.139  15.725  18.559  0.0535 -0.1191  0.0906
83712W        W26703   5.761  26.697   6.684 -0.2792 -0.0003 -0.1603
83713W        W26704   6.042   0.237  27.542  0.0770  0.1589  0.0547
83714W        W26705  27.879  22.761  29.039  0.0427 -0.0152  0.0103
83715W        W26706   8.832  15.424   3.829 -0.2771 -0.0797 -0.1508
83716W        W26707  11.319  13.570  15.522 -0.1278 -0.0942  0.1350
83717W        W26708   4.071  14.373   7.625 -0.1850 -0.0427  0.0421
83718W        W26709  20.452  29.738   2.469 -0.0673  0.1087 -0.0731
83719W        W26710  33.991  19.125   8.806 -0.0342 -0.0237  0.1704
83720W        W26711  21.913  25.086  27.635 -0.1723  0.1373  0.0144
83721W        W26712   6.559   5.440  10.858  0.2248 -0.2205 -0.0502
83722W        W26713  10.437  20.081  25.238 -0.1336  0.0650  0.1156
83723W        W26714  32.570  33.869   1.447  0.0085  0.3144  0.3089
83724W        W26715  30.587  13.221   2.060 -0.2388 -0.1117  0.1043
83725W        W26716  10.610  27.482  21.930 -0.0621 -0.3354 -0.2877
83726W        W26717  14.692  27.340  24.436  0.2464  0.0503 -0.0493
83727W        W26718  11.584  20.230  29.136 -0.1480  0.2495  0.2270
83728W        W26719   9.616  21.601  28.001  0.0585 -0.0266 -0.0158
83729W        W26720   7.210  33.303   6.172 -0.3026  0.1755  0.0518
83730W        W26721  11.950  28.364   3.467 -0.1364 -0.1253 -0.0000
83731W        W26722   3.360  19.835   7.991 -0.0275  0.0815 -0.0422
83732W        W26723  12.835  24.423  22.387 -0.3946  0.2270  0.1689
83733W        W26724  16.659  19.367  14.207  0.1092 -0.4382 -0.0906
83734W        W26725  17.925  25.022   3.165  0.2621  0.0969 -0.0055
83735W        W26726  10.480  27.969   5.154  0.3083 -0.2064  0.0737
83736W        W26727  11.239   8.503   6.690  0.0875  0.3060  0.0642
83737W        W26728  10.130  14.432   4.695  0.1149 -0.0368  0.1999
83738W        W26729   1.105  11.174   7.334 -0.0557  0.2387 -0.1402
83739W        W26730  19.790  10.915  24.707  0.2455  0.0452  0.1840
83740W        W26731   1.725  30.602  22.838  0.1605 -0.1678  0.0543
83741W        W26732  24.873  18.420   4.625  0.0149  0.0414  0.0067
83742W        W26733  15.086  17.807  24.548  0.1176  0.1319 -0.1747
83743W        W26734   2.507  28.797  22.592 -0.0392  0.0645 -0.4559
83744W        W26735   5.772  32.784   8.281  0.1818  0.1299 -0.0486
83745W        W26736  17.147  22.655   4.776 -0.0296  0.2945  0.3453
83746W        W26737  18.915  19.767   0.679 -0.1442 -0.1949 -0.0300
83747W        W26738  16.506  30.497  25.121  0.1907  0.4822 -0.1605
83748W        W26739   4.526  19.490  10.991  0.0860 -0.1664 -0.0400
83749W        W26740   9.456  24.339   2.294  0.3509 -0.0202  0.4100
83750W        W26741  10.864  29.333  26.579  0.3180  0.0004  0.1332
83751W        W26742  23.316  32.209  18.907 -0.0445  0.1919 -0.1543
83752W        W26743   0.867  23.084   1.732 -0.1448  0.0774 -0.3726
83753W        W26744  20.496  33.908  20.464 -0.0560  0.0243 -0.1614
83754W        W26745   0.258  19.059   4.926  0.1341 -0.0535 -0.2896
83755W        W26746   0.849  26.557   3.687  0.2652  0.4164  0.0088
83756W        W26747  32.011  13.381   6.397  0.0665  0.1859 -0.1600
83757W        W26748  13.982  28.373   9.554 -0.1217 -0.2286 -0.0567
83758W        W26749  19.162  17.260  24.065 -0.4113 -0.1712  0.1097
83759W        W26750  11.366  29.545  20.307 -0.0034  0.0295 -0.1431
83760W        W26751  31.753  26.970   0.838 -0.2207  0.0938 -0.0538
83761W        W26752  15.467  24.936   3.195  0.4482 -0.2712 -0.1015
83762W        W26753  17.232  11.030  18.314 -0.1643 -0.0889 -0.1872
83763W        W26754   9.467  22.379   8.930  0.0064  0.1345  0.3846
83764W        W26755   9.363  28.777   9.891 -0.1772  0.0235  0.0006
83765W        W26756  18.877  22.611   5.779 -0.1068 -0.1375  0.1521
83766W        W26757   4.533  25.126  24.486 -0.0762  0.0425 -0.0846
83767W        W26758   5.276  30.498   0.694 -0.0843 -0.1005  0.0718
83768W        W26759   6.415  27.647   8.764  0.2040 -0.0508  0.0384
83769W        W26760  28.898   1.847   1.750 -0.4811 -0.3292  0.4068
83770W        W26761  11.542  31.395  21.800 -0.1499  0.2302  0.0783
83771W        W26762   5.132  18.412   5.396  0.5742 -0.2124 -0.2831
83772W        W26763   9.231  17.069  29.026 -0.0005 -0.0517 -0.0246
83773W        W26764   2.789   6.515   2.265 -0.0802 -0.1343 -0.4617
83774W        W26765  22.165  18.761   4.197 -0.1434  0.1184 -0.3392
83775W        W26766  28.597  22.598   4.539 -0.3965  0.2269  0.1996
83776W        W26767   4.750  27.771   0.089 -0.0946 -0.0606  0.2151
83777W        W26768  34.543  17.723  10.121 -0.0164 -0.1911 -0.2105
83778W        W26769   0.167  26.024  24.063  0.4710 -0.1894  0.1740
83779W        W26770  19.255  16.111  27.953  0.0516 -0.0601 -0.0664
83780W        W26771  22.350  23.559   9.625 -0.0532 -0.1226 -0.1608
83781W        W26772  11.955  33.889  19.718 -0.3229 -0.4246 -0.0500
83782W        W26773  12.595  20.970   1.713 -0.2196 -0.0653  0.0071
83783W        W26774  15.150  33.834   4.594  0.1981  0.3560 -0.4082
83784W        W26775  11.266  13.658   5.177  0.1720  0.1038  0.2395
83785W        W26776   0.373  16.427   5.921  0.5482 -0.1495 -0.0026
83786W        W26777   0.285  16.116  21.782 -0.0051 -0.3364 -0.1624
83787W        W26778  31.770  28.673   7.990 -0.0239  0.0847  0.1886
83788W        W26779   4.945  23.016   1.003  0.0326 -0.0029  0.2650
83789W        W26780   1.097   4.428  25.797 -0.2155 -0.3088  0.2688
83790W        W26781   1.961  21.419  18.948 -0.3194 -0.1020 -0.1746
83791W        W26782   6.600   9.087   6.864  0.1610 -0.0727 -0.2067
83792W        W26783  15.617  22.856   7.994 -0.2073 -0.0617  0.1584
83793W        W26784  20.099  28.469  16.262 -0.0303  0.1530  0.0548
83794W        W26785  28.301  17.087   4.029 -0.3239 -0.0422 -0.1052
83795W        W26786  24.807  23.038  28.236  0.2376  0.1314 -0.0464
83796W        W26787  10.833  32.212  25.706 -0.0304 -0.0356  0.1016
83797W        W26788   0.503  20.449   5.358  0.1467  0.2268  0.1977
83798W        W26789  13.062  10.846   4.260  0.3896 -0.1173  0.0234
83799W        W26790  14.152  34.528   4.920 -0.2763 -0.3167  0.0470
83800W        W26791   8.111  12.877  27.625  0.2047 -0.1476  0.0178
83801W        W26792   4.801  21.015  29.006  0.1537 -0.3921 -0.0922
83802W        W26793   7.309  24.827   0.153 -0.2750 -0.0787  0.4247
83803W        W26794  19.575  15.232   8.606  0.2290 -0.0581  0.0328
83804W        W26795  10.186  33.323   6.109 -0.1064 -0.0584 -0.2213
83805W        W26796  14.610  34.421  23.609  0.1523  0.2660 -0.1575
83806W        W26797  26.248   2.008  23.464 -0.0214 -0.0178 -0.1943
83807W        W26798   8.106  26.182  26.691  0.0729 -0.1931  0.1447
83808W        W26799  13.312  13.538   9.300  0.2611 -0.1025  0.0727
83809W        W26800  10.406  10.729  10.106 -0.1907 -0.1000  0.0551
83810W        W26801   3.852  22.095   7.363  0.1664  0.1805 -0.2024
83811W        W26802   4.185  31.906   5.632  0.0325  0.1031  0.0581
83812W        W26803   7.149  31.781   7.966  0.0221  0.1763  0.0066
83813W        W26804  11.241   3.969   3.325 -0.0593 -0.0569 -0.0415
83814W        W26805  19.413  12.305   6.581  0.1715 -0.1183  0.2267
83815W        W26806  29.647  18.216   7.920  0.3637  0.0444 -0.1767
83816W        W26807   2.769  13.062   8.666  0.0586  0.0098 -0.2843
83817W        W26808  13.399  19.683  19.736 -0.1141  0.0650 -0.0640
83818W        W26809   4.777  25.447   3.747 -0.0794  0.0227 -0.0387
83819W        W26810  14.871  34.373   1.209 -0.5388 -0.2805  0.5988
83820W        W26811  12.083  15.214  19.988 -0.2690 -0.1830  0.0895
83821W        W26812  34.278   8.682   4.347  0.0604  0.0629  0.0672
83822W        W26813  28.620  15.927   7.983  0.1175 -0.2299  0.0468
83823W        W26814   5.314  25.309   3.813 -0.0114  0.1053  0.0252
83824W        W26815   8.732  20.610  28.321  0.0120 -0.0134  0.3510
83825W        W26816  24.066  13.219   3.527 -0.1984 -0.2844  0.4866
83826W        W26817  17.517  22.746   4.263  0.0545  0.0028 -0.0145
83827W        W26818  11.415   0.949   7.651  0.1565  0.1126 -0.0292
83828W        W26819   6.230   9.432   8.757 -0.2486  0.0001 -0.3471
83829W        W26820   6.317  22.737   8.621 -0.0641  0.0888 -0.1885
83830W        W26821  30.000  26.833   5.124 -0.0789 -0.0741  0.1297
83831W        W26822  18.225  21.455   5.409 -0.1289  0.1087 -0.1302
83832W        W26823  12.610  13.709  10.484  0.1170 -0.0685 -0.2850
83833W        W26824  32.410  32.307  27.446  0.2652 -0.1060  0.0363
83834W        W26825  22.911  20.381   1.052  0.0917  0.1131  0.1412
83835W        W26826   5.102  31.596  21.939 -0.0042 -0.0980 -0.0200
83836W        W26827   0.836  23.304   3.753 -0.0759  0.1012 -0.2706
83837W        W26828   3.494  18.101  21.444  0.2577 -0.1070 -0.2055
83838W        W26829   3.952  20.228  16.333 -0.2013  0.0234 -0.0305
83839W        W26830   7.858  16.153  10.016  0.3744 -0.1373  0.2130
83840W        W26831  12.790   2.124   5.230 -0.2302 -0.0980 -0.0243
83841W        W26832  19.959  13.746  21.023  0.3671  0.0437 -0.2477
83842W        W26833  27.457  27.677   3.373  0.0328  0.0284 -0.1043
83843W        W26834  31.943  25.172   1.934 -0.1470  0.1523 -0.3990
83844W        W26835   1.291  30.652   1.471  0.0720  0.1597 -0.0429
83845W        W26836   5.325  19.224   3.643 -0.1542 -0.2312 -0.1715
83846W        W26837  34.780  19.994   8.095  0.0875  0.1084 -0.1618
83847W        W26838   9.228  17.638   9.975  0.3002  0.0648  0.0813
83848W        W26839   4.498  17.658  24.164  0.3136 -0.3438  0.1540
83849W        W26840   2.825  18.918   6.657  0.2410  0.0309  0.2074
83850W        W26841   2.977  29.275  26.701  0.0981 -0.2311  0.1372
83851W        W26842  21.839  23.877   0.165  0.1412  0.1516  0.3482
83852W        W26843   2.927  18.587   7.103  0.4363  0.1821 -0.1830
83853W        W26844   9.061  11.032   9.537 -0.1175 -0.0341  0.0396
83854W        W26845   7.203  18.200  25.223  0.2967 -0.3228  0.1769
83855W        W26846   7.033  26.649   3.019 -0.0212  0.3158  0.0171
83856W        W26847   9.027  30.230  28.631 -0.1942 -0.1148  0.1556
83857W        W26848  31.899  16.770  28.863  0.0779  0.2704 -0.2904
83858W        W26849   1.034  33.009   1.225  0.0921  0.3002  0.2111
83859W        W26850  24.266   6.721   5.484  0.0892  0.2450  0.0835
83860W        W26851   1.367  20.380   0.133  0.0155  0.1557 -0.1776
83861W        W26852   5.665  10.143  10.190 -0.2062 -0.2691 -0.1847
83862W        W26853  15.872  28.719  24.768 -0.0090 -0.1962  0.2279
83863W        W26854  22.436  13.270  21.239 -0.0140  0.3858  0.2403
83864W        W26855   9.223  29.916  28.965 -0.2878 -0.0588 -0.0331
83865W        W26856   9.111   9.038  10.363 -0.0059 -0.3165 -0.0627
83866W        W26857   6.826  27.260   3.753 -0.1730 -0.4463 -0.0805
83867W        W26858  12.337  29.962  21.744  0.1732  0.3404 -0.0356
83868W        W26859  16.634  19.747   8.362  0.1049 -0.1579  0.0933
83869W        W26860  11.707  26.068   9.414  0.1121  0.4873 -0.0629
83870W        W26861  13.503  28.311   6.634  0.2685  0.3341  0.0708
83871W        W26862  13.909  28.652   7.258 -0.2461 -0.1684 -0.0038
83872W        W26863   3.397   9.447   6.794 -0.0208  0.0706 -0.0476
83873W        W26864   4.549   9.051  10.479 -0.2637  0.0426  0.0566
83874W        W26865  14.750  17.101   1.985  0.0946 -0.0525  0.0334
83875W        W26866  22.209  10.595   6.082  0.0005 -0.1863 -0.1751
83876W        W26867   9.644  18.721   3.214 -0.1148  0.4034  0.0898
83877W        W26868  12.282   9.842   8.083 -0.1082  0.0101 -0.0187
83878W        W26869  30.983   2.678   2.299  0.1275 -0.0470  0.1514
83879W        W26870  16.122  17.503  26.180 -0.0014  0.1636 -0.3397
83880W        W26871  24.743  16.331   4.253 -0.0848  0.0359 -0.2656
83881W        W26872   1.408  10.779  21.658  0.2929  0.4100  0.1131
83882W        W26873   1.948   3.606   7.241  0.1305 -0.4016 -0.0228
83883W        W26874  24.535  22.719  29.136  0.0900  0.1619 -0.2171
83884W        W26875  18.552  15.268   2.194 -0.1674 -0.0040  0.1230
83885W        W26876  12.560  21.809  14.947 -0.4674 -0.0286 -0.0670
83886W        W26877   6.196  11.420  20.801 -0.0338  0.2089 -0.0493
83887W        W26878   7.004   9.039   8.994 -0.2944  0.0285  0.0956
83888W        W26879  16.987  25.922   1.933 -0.0652  0.2353  0.0865
83889W        W26880  14.742  19.492  24.230 -0.1286 -0.0992  0.2999
83890W        W26881  25.248  23.308   7.215  0.3705  0.1665 -0.3394
83891W        W26882  13.503  23.998   1.178  0.1035  0.2059 -0.0232
83892W        W26883   7.879  20.163  23.488  0.1219  0.0057 -0.1854
83893W        W26884   1.617  21.248   6.595  0.3733 -0.1929 -0.0294
83894W        W26885  33.658  20.023  28.685 -0.0372 -0.0834  0.2236
83895W        W26886  12.801  32.545   4.248 -0.0830  0.2317  0.3767
83896W        W26887   7.397   7.505   3.948 -0.2334  0.0130  0.3079
83897W        W26888  19.542  14.209   2.645 -0.0334  0.0270 -0.0703
83898W        W26889  12.951   0.144   3.571  0.0155 -0.1374 -0.2421
83899W        W26890  17.023  29.805   9.937 -0.0237 -0.2487  0.0777
83900W        W26891   0.422   7.667  18.550  0.1472  0.1837  0.0219
83901W        W26892   0.874  31.111  17.418  0.0113 -0.2124 -0.1964
83902W        W26893  22.501   0.230  24.870  0.0105 -0.2136 -0.0258
83903W        W26894   9.994  17.330  23.245  0.0770  0.2257  0.0003
83904W        W26895  33.346  14.197   4.697  0.2097 -0.0790  0.1094
83905W        W26896   6.205   6.030   6.712 -0.1470  0.3115  0.0980
83906W        W26897  18.792   4.624   1.144  0.0492  0.0680 -0.2468
83907W        W26898  25.015  26.182  18.341  0.2216  0.3200  0.0108
83908W        W26899   0.524  12.441   7.000 -0.0517 -0.0103 -0.1271
83909W        W26900  32.566  29.314  22.427 -0.0354  0.2079  0.1569
83910W        W26901   6.594  22.845  21.501  0.1447  0.5784 -0.0613
83911W        W26902  16.350  26.867   7.783 -0.0489 -0.0550 -0.1791
83912W        W26903   8.801  16.847   3.220 -0.0773 -0.0520 -0.1745
83913W        W26904   1.428  19.448   5.551 -0.1679 -0.1496  0.2000
83914W        W26905  10.207  17.763  20.749  0.0799  0.0459  0.2895
83915W        W26906  10.834   0.157   7.247  0.0302 -0.1689  0.0223
83916W        W26907  11.696  26.828  27.330 -0.2524 -0.0254 -0.0085
83917W        W26908   4.170  12.359  19.467 -0.2556  0.1479  0.2649
83918W        W26909   6.206   0.365   8.250 -0.1186 -0.1151  0.1009
83919W        W26910   0.232   9.989   6.882  0.1743 -0.3173 -0.0530
83920W        W26911  15.305  21.121  24.320 -0.3282 -0.0521  0.1543
83921W        W26912   3.276  25.269   2.563 -0.0616  0.2206  0.2306
83922W        W26913   9.609  26.923  22.049  0.0473 -0.4555  0.1510
83923W        W26914  31.433   0.205   5.119  0.0335 -0.3902  0.2940
83924W        W26915  20.819  18.492   2.588 -0.0056  0.1168  0.0879
83925W        W26916   6.483  22.695   6.514  0.2224 -0.0144 -0.0189
83926W        W26917  16.034  20.677   3.984 -0.1424  0.3574 -0.1948
83927W        W26918  31.665  25.155   3.905 -0.0384  0.2939  0.0874
83928W        W26919  23.295   0.761   8.181  0.1999 -0.3039  0.0693
83929W        W26920   1.007  13.108   6.824 -0.0233  0.1050  0.0208
83930W        W26921   4.139  18.481  25.965 -0.1303  0.5062 -0.0028
83931W        W26922  11.510  18.478   5.009  0.0461  0.1949  0.1694
83932W        W26923   5.001  32.202  16.646  0.0676 -0.0676  0.0641
83933W        W26924  23.244  30.288   1.302  0.1306 -0.1678  0.0919
83934W        W26925  30.600  33.076  28.067  0.0803  0.0340  0.3976
83935W        W26926  34.724  26.824   7.104  0.1171 -0.2081  0.2740
83936W        W26927   2.179  26.045   9.044 -0.0790 -0.1446 -0.2020
83937W        W26928   1.639  12.983  25.365  0.2147  0.1264  0.2768
83938W        W26929  16.720  24.620  25.104 -0.0186  0.0703 -0.0619
83939W        W26930  17.605  21.182   6.776 -0.4177  0.0412 -0.3971
83940W        W26931  14.990   0.838   6.384 -0.0080  0.1339 -0.0480
83941W        W26932  33.179  22.847   8.055  0.2396  0.1148  0.3238
83942W        W26933  31.223  33.710   7.878 -0.0215  0.1985  0.2666
83943W        W26934   6.748  28.456   6.362 -0.0186  0.0528  0.0398
83944W        W26935  28.576   9.861  28.327 -0.0303 -0.3148  0.1668
83945W        W26936  23.556  22.221  25.767 -0.0453  0.0615 -0.0708
83946W        W26937  29.231   0.492  25.420 -0.2805 -0.0595  0.1129
83947W        W26938  15.588  22.847   8.469 -0.0291  0.2108  0.0778
83948W        W26939  16.902  18.221   4.954  0.2598  0.4222 -0.4789
83949W        W26940  28.589  12.343   9.116 -0.1999 -0.3210  0.1054
83950W        W26941  17.795  25.792   9.448 -0.0803 -0.0169  0.2139
83951W        W26942  21.759  24.757   7.247  0.2648 -0.1404  0.0156
83952W        W26943  20.067   0.248  28.465 -0.1286 -0.1006  0.2800
83953W        W26944   2.406  20.878  23.644 -0.2757  0.3908 -0.0446
83954W        W26945  10.516  28.911   5.425  0.1584  0.0531 -0.1339
83955W        W26946  23.084  34.221  29.026  0.0234  0.1690  0.1156
83956W        W26947   7.525  27.997   1.525 -0.1901 -0.0434 -0.1724
83957W        W26948  16.760  24.507  20.786  0.3429 -0.3655  0.0575
83958W        W26949   9.133  27.411  17.134 -0.0604  0.0821  0.2709
83959W        W26950  11.263  12.839   2.762 -0.3142  0.0165 -0.0633
83960W        W26951  15.839  21.313  25.319  0.1157  0.0031  0.1461
83961W        W26952   8.752  14.323   5.335 -0.0217 -0.1835 -0.1267
83962W        W26953   4.459   2.194  23.694 -0.0033  0.1232  0.0003
83963W        W26954  14.494  27.120  25.786  0.0826  0.1725 -0.1458
83964W        W26955  12.159  22.406   6.854  0.2819 -0.1866 -0.3002
83965W        W26956  32.682   3.422  13.866  0.1544 -0.0916  0.0225
83966W        W26957  34.145  32.880   9.364 -0.0586 -0.0875 -0.1759
83967W        W26958   9.545  25.135   3.817  0.0476 -0.0722 -0.1824
83968W        W26959  29.312  22.892   7.341 -0.2119  0.1271  0.2370
83969W        W26960   7.179  11.465  18.385 -0.0692  0.0204  0.1172
83970W        W26961   7.285  11.187   5.424 -0.0203 -0.3450  0.0335
83971W        W26962  12.200  24.758   6.219  0.0157  0.0379  0.4557
83972W        W26963  13.496  13.532  26.578 -0.0977  0.0901 -0.2096
83973W        W26964   7.831  26.533   7.744 -0.1192  0.1488 -0.1067
83974W        W26965  14.878  23.068   1.862  0.2082  0.1292 -0.2661
83975W        W26966  16.468  33.344   4.091 -0.2849 -0.1379  0.2372
83976W        W26967   5.029  31.258   6.359  0.2119 -0.1546  0.4854
83977W        W26968  15.544   1.025   3.141 -0.0770 -0.2640 -0.2941
83978W        W26969  10.228  13.053   9.711  0.0223  0.0085 -0.0784
83979W        W26970   6.873  13.767   5.428  0.0303 -0.0274  0.0523
83980W        W26971   8.676  32.194   2.396  0.2744 -0.0420  0.0420
83981W        W26972   9.596  19.371  28.507 -0.0083  0.2713  0.0247
83982W        W26973   8.036  18.345   1.870 -0.1325  0.1036  0.0371
83983W        W26974  32.879  33.519   7.097  0.0953  0.1194 -0.1319
83984W        W26975  28.503  27.809   3.550 -0.3227  0.1257  0.0170
83985W        W26976  12.115  26.155  27.198  0.2405 -0.3816 -0.0694
83986W        W26977   3.068  15.778  24.477 -0.0265  0.2531 -0.1805
83987W        W26978  25.932  19.926  27.737 -0.1327  0.3204  0.0081
83988W        W26979  13.065  20.183  23.610  0.0861  0.1728  0.1078
83989W        W26980  33.895   1.188  23.467  0.3160 -0.0611 -0.0893
83990W        W26981   8.901  13.521   9.719 -0.4072 -0.0603 -0.0879
83991W        W26982  31.432  20.004  29.110  0.3528  0.2028  0.0483
83992W        W26983   2.624   8.709   6.438  0.0508  0.1975 -0.2881
83993W        W26984  24.703  23.247   4.944 -0.3465  0.0082  0.2460
83994W        W26985   1.812  16.361   5.012  0.0539  0.1194  0.0489
83995W        W26986  28.928  29.312   8.589  0.0756 -0.0360  0.1143
83996W        W26987  11.815  12.680   5.035 -0.2781  0.0191 -0.3365
83997W        W26988  34.016  22.746   0.889 -0.4182  0.0599  0.3046
83998W        W26989  13.560  32.017   9.778 -0.0069  0.0773 -0.1630
83999W        W26990  20.815  33.038   5.633 -0.2428 -0.0555  0.0232
84000W        W26991  11.346  25.433   4.160 -0.2639 -0.1469  0.0105
84001W        W26992  16.415  12.124   8.729  0.0540 -0.4119  0.1745
84002W        W26993  11.038  31.821  27.938  0.0210  0.2570 -0.3603
84003W        W26994   1.542  18.324  11.588 -0.3559 -0.0134  0.2320
84004W        W26995   9.541  21.171  21.680  0.1095  0.0149  0.0907
84005W        W26996  33.009  21.036  20.055 -0.0916 -0.2893 -0.0478
84006W        W26997  14.212  31.784   2.289 -0.0574 -0.3768  0.1438
84007W        W26998   9.754  25.951   1.909 -0.1628  0.0304 -0.0286
84008W        W26999  16.425  23.335  14.580 -0.2694 -0.4068  0.0031
84009W        W27000   6.857  22.926   5.697 -0.0311  0.3905 -0.2077
84010W        W27001  32.754  32.905   9.108 -0.0698 -0.0172 -0.0594
84011W        W27002  25.578  26.775   0.625 -0.1524 -0.0700 -0.0934
84012W        W27003   7.264  16.583  10.021 -0.0201 -0.1265  0.1850
84013W        W27004   8.361  16.524   9.152 -0.1691 -0.1870 -0.3013
84014W        W27005  16.591  16.436   3.913  0.2854  0.0105 -0.0561
84015W        W27006  23.050  20.921  19.295  0.2885  0.3783  0.2198
84016W        W27007   1.652  13.271   7.395 -0.1658  0.1976  0.0221
84017W        W27008   6.930  34.133   4.995 -0.0572  0.3696  0.1531
84018W        W27009  33.525  12.867   7.303  0.1379  0.1387  0.0656
84019W        W27010  20.453  14.042  21.271 -0.0397  0.2321  0.1145
84020W        W27011   3.826  17.096  28.810 -0.0049 -0.1169 -0.0078
84021W        W27012  14.217  23.304   5.929  0.1107 -0.2146 -0.0237
84022W        W27013   3.743   0.123  21.821 -0.0795 -0.0960  0.0329
84023W        W27014  32.598  31.823   1.270 -0.1457 -0.3134 -0.1213
84024W        W27015  16.771  18.788   0.685 -0.0035 -0.2362  0.3394
84025W        W27016  19.226  22.432  25.600  0.0800  0.0466 -0.0335
84026W        W27017  19.294   9.627   0.740 -0.1477 -0.1068 -0.0479
84027W        W27018  23.276  19.763   2.634 -0.0875 -0.0611 -0.1868
84028W        W27019   5.289  18.274  23.942  0.1495 -0.5322  0.1575
84029W        W27020   6.382  19.194   1.063 -0.3553 -0.3165  0.0119
84030W        W27021  12.866  26.243   7.478 -0.1059 -0.0803 -0.0483
84031W        W27022  10.681   6.628   6.218  0.1034  0.0878  0.0656
84032W        W27023  25.675   5.723   9.171  0.4466  0.1191  0.4252
84033W        W27024  29.780  19.337  26.625 -0.0488 -0.2279 -0.2212
84034W        W27025  12.723  24.178   8.250 -0.2801  0.1068 -0.0709
84035W        W27026   0.595   9.096  28.070  0.2257  0.3910  0.2457
84036W        W27027  31.120  34.029  28.540  0.1160  0.0357  0.1854
84037W        W27028  15.895  27.300   9.461 -0.1164 -0.1156  0.1203
84038W        W27029   7.108  12.889   4.814 -0.0461 -0.2682  0.3327
84039W        W27030  11.439  24.632   6.728  0.0570 -0.0237  0.4280
84040W        W27031  28.983  25.813   8.443  0.2154  0.1902  0.1307
84041W        W27032  33.329  18.657   5.620  0.0569 -0.1503 -0.0113
84042W        W27033  14.645  13.571   0.559 -0.1494  0.2351 -0.4454
84043W        W27034  13.107   9.323   4.561  0.0191  0.0546 -0.3283
84044W        W27035   2.504  17.047   3.511  0.0225 -0.0439  0.0144
84045W        W27036   9.574   9.425  11.065  0.1210 -0.1969  0.1711
84046W        W27037  34.223  33.308  24.685 -0.1082 -0.2719  0.0992
84047W        W27038   1.614  19.961  15.019 -0.0334 -0.0869 -0.1558
84048W        W27039  12.886  23.606  20.266  0.1656 -0.1116  0.2107
84049W        W27040  19.364  24.422   6.697 -0.0676  0.1749  0.0186
84050W        W27041   6.159  26.357  21.165 -0.2345  0.1721  0.1893
84051W        W27042   1.277  14.768   1.342  0.2359  0.3282 -0.1047
84052W        W27043  22.066  28.431   3.496  0.2013 -0.3051 -0.0454
84053W        W27044   8.319  30.764   6.615 -0.1635  0.1753 -0.1921
84054W        W27045  12.308  16.190   6.209  0.2050  0.0414  0.6361
84055W        W27046  29.424  15.454   8.476 -0.0430  0.2318  0.1242
84056W        W27047   6.426   3.604   3.081  0.0368  0.0838  0.2409
84057W        W27048  26.685  22.372   8.077 -0.1110  0.0269  0.0305
84058W        W27049  10.257   4.152   9.356 -0.1392  0.0656 -0.0761
84059W        W27050  16.854  11.091   1.511 -0.0787 -0.2482 -0.4325
84060W        W27051  21.984   3.172   5.835 -0.2597 -0.4454  0.0199
84061W        W27052   9.977  32.942   7.999  0.0310  0.2938 -0.0849
84062W        W27053   4.897  24.643   8.149 -0.1628 -0.0169  0.1225
84063W        W27054  18.331  17.228   4.628 -0.3805 -0.0599  0.1441
84064W        W27055  16.255  17.267   2.322  0.1778 -0.0669  0.3108
84065W        W27056  27.456   0.402   5.567  0.0131  0.1705 -0.1175
84066W        W27057   7.527  16.266  10.947  0.1176 -0.1341  0.3073
84067W        W27058  14.409  27.364   1.415 -0.1623 -0.0549  0.1012
84068W        W27059   6.345  21.632   9.752  0.5689  0.1281 -0.0217
84069W        W27060  10.443  22.389   9.073  0.1215 -0.1283 -0.2363
84070W        W27061  14.995  28.217   4.363 -0.2229 -0.0793  0.1332
84071W        W27062   7.871   8.675   5.411 -0.2367  0.2099 -0.3430
84072W        W27063  19.431  27.916   7.687 -0.1823  0.0426  0.0025
84073W        W27064  14.201  30.286  20.448  0.1104  0.1174 -0.2050
84074W        W27065  33.759  28.409   5.638 -0.0520  0.3758 -0.1970
84075W        W27066  17.062  28.909   5.821  0.1546  0.4174 -0.1241
84076W        W27067  22.845  32.172   5.670  0.1206 -0.0938  0.0657
84077W        W27068   6.085  10.734   1.648 -0.0053 -0.0980 -0.1827
84078W        W27069   3.296  16.282   7.144  0.1059  0.0461  0.0828
84079W        W27070   7.164  32.390  20.570  0.2185 -0.2743 -0.0991
84080W        W27071   2.238  17.969   7.471  0.3594  0.2391 -0.1172
84081W        W27072   1.584   8.219   8.967  0.0374  0.1222  0.1983
84082W        W27073  12.292  26.280   6.638  0.3095  0.0107  0.0341
84083W        W27074  13.013  10.942   6.644  0.1678  0.2668  0.1708
84084W        W27075  21.656  27.409   2.250  0.1363 -0.2386  0.0286
84085W        W27076  30.068  20.666  18.396  0.0893 -0.0923  0.2017
84086W        W27077  32.488   6.348  25.833 -0.1609 -0.3863 -0.2133
84087W        W27078  16.338  27.627   5.518  0.0815 -0.0672  0.0012
84088W        W27079  32.851  34.420   6.169  0.1946  0.2573  0.0428
84089W        W27080   4.691   0.097  10.634 -0.1175  0.1477  0.1557
84090W        W27081  11.168  15.431   2.903  0.1227  0.1295 -0.0896
84091W        W27082  13.941   8.546  10.232 -0.0751 -0.0583  0.0667
84092W        W27083   6.915  22.334  10.887 -0.3352 -0.1670 -0.0470
84093W        W27084  11.851  28.520  23.316 -0.3901 -0.1768 -0.0996
84094W        W27085   6.238  24.682  28.423  0.1264  0.0283 -0.0944
84095W        W27086   6.835   9.766  10.029 -0.0925 -0.2057 -0.1585
84096W        W27087  28.214  28.370   4.000  0.3379 -0.0582  0.1020
84097W        W27088   0.878  34.429   0.508 -0.1375  0.1002 -0.0221
84098W        W27089  32.338   2.978  27.615  0.1514 -0.1122 -0.3317
84099W        W27090  24.056  12.768   5.492  0.1720 -0.0980  0.2412
84100W        W27091  33.835  18.343   3.996 -0.1238  0.3607  0.0835
84101W        W27092   9.091  21.474  20.287  0.1574 -0.1403 -0.2981
84102W        W27093  14.421  13.433   4.866  0.3596 -0.0467 -0.0959
84103W        W27094  14.777  24.603   6.621 -0.0539 -0.0826 -0.1591
84104W        W27095   9.140  23.059   4.854  0.2451 -0.1935  0.0866
84105W        W27096  10.660   0.360   8.721  0.0463 -0.0417 -0.1414
84106W        W27097   4.122  10.472   0.261 -0.0313 -0.0585  0.1675
84107W        W27098  16.014  22.548   0.608  0.1146 -0.0869  0.1165
84108W        W27099   5.606  18.754   5.133 -0.0349  0.0677 -0.1146
84109W        W27100  10.844  31.237   3.308  0.0997  0.2845 -0.0058
84110W        W27101  26.874  13.870  21.928 -0.1575 -0.1011 -0.0320
84111W        W27102  12.871  25.934   1.410 -0.1092  0.1689  0.2491
84112W        W27103   3.269   2.601   9.779  0.1691  0.0749 -0.3046
84113W        W27104   1.914  17.922   8.383  0.1681  0.2827  0.2483
84114W        W27105  16.018  10.025  26.746  0.0871 -0.1282 -0.1001
84115W        W27106   7.079  13.379   5.194 -0.0456  0.0635 -0.2222
84116W        W27107  11.831   9.484   9.672 -0.1114 -0.0015 -0.0722
84117W        W27108   6.203  26.096  29.212 -0.0847 -0.0841 -0.0465
84118W        W27109   2.669  13.732  25.310  0.0581 -0.1725 -0.1585
84119W        W27110  25.830  16.195  20.089  0.0009 -0.0215 -0.4319
84120W        W27111  14.269   7.779   7.986  0.0769  0.2539  0.0216
84121W        W27112  14.770  12.748  23.491  0.1873  0.0246  0.0925
84122W        W27113  13.064  18.272   1.271  0.0000  0.3326  0.0378
84123W        W27114   6.642  11.471  28.165 -0.1016  0.1498 -0.1759
84124W        W27115   5.183  22.397   6.203  0.0178 -0.0231 -0.1844
84125W        W27116   9.102   2.856   6.147  0.0317  0.1594 -0.2450
84126W        W27117  30.992   4.935   2.132 -0.1321  0.0294  0.2049
84127W        W27118  10.487  26.676   4.334  0.3180  0.1319  0.0882
84128W        W27119  11.500  13.378  19.109  0.0390 -0.1300  0.0047
84129W        W27120  15.021   0.801   5.419  0.0658  0.2930  0.1741
84130W        W27121  33.317  17.074   7.316  0.1806 -0.2879  0.1110
84131W        W27122   2.061  24.697   6.988 -0.1495  0.1199 -0.0663
84132W        W27123  15.835  20.706  19.310  0.1889 -0.1545  0.4716
84133W        W27124  17.268  24.110  21.404 -0.0623 -0.3617 -0.0605
84134W        W27125  17.925  33.538   0.088  0.2705 -0.0113  0.1301
84135W        W27126  32.114  32.347  26.501 -0.0974 -0.2869  0.2515
84136W        W27127  19.170  25.026  28.827  0.4072  0.2939  0.1158
84137W        W27128   7.197  33.615  26.574  0.0133  0.1975 -0.2905
84138W        W27129  15.645  30.531   5.226  0.0128 -0.2852 -0.0662
84139W        W27130   6.828  25.832  10.478  0.0790 -0.0054  0.2860
84140W        W27131   1.146   5.320  10.594 -0.2848  0.1233 -0.3175
84141W        W27132  33.208  13.945   2.923 -0.0658  0.0591 -0.1911
84142W        W27133   5.163  16.456   9.841  0.1936  0.0315  0.3168
84143W        W27134  21.761  21.917   4.098 -0.3425 -0.0651  0.0725
84144W        W27135  20.612  28.775  28.290  0.1415 -0.0608 -0.3580
84145W        W27136   7.103  31.351  25.616  0.0278 -0.1050 -0.0337
84146W        W27137   9.663  22.739   1.677 -0.1150 -0.2750  0.0930
84147W        W27138  11.590  26.478   9.154 -0.2950  0.3528  0.0178
84148W        W27139   5.208  22.227   7.017  0.1089  0.1608 -0.2308
84149W        W27140   8.355  10.197  25.624 -0.1502 -0.0591 -0.3414
84150W        W27141   9.896  20.627   2.576 -0.1642 -0.3337 -0.1140
84151W        W27142  10.987   9.258  16.226 -0.0342 -0.1247 -0.3905
84152W        W27143   7.559  20.011   7.989  0.1923  0.1687  0.1197
84153W        W27144  14.652  22.087  27.526 -0.0569 -0.2396  0.3505
84154W        W27145  15.225  26.237  27.644  0.0179 -0.0780 -0.0055
84155W        W27146  19.667  29.422   2.834  0.0923  0.1067 -0.0021
84156W        W27147  15.291  25.030   2.061  0.1779 -0.0817  0.4093
84157W        W27148  13.662  26.991  26.639  0.0837 -0.2782 -0.0209
84158W        W27149  12.571  11.775   1.862 -0.2644 -0.3018 -0.1736
84159W        W27150  18.419  16.618  26.734 -0.0809 -0.0657  0.2212
84160W        W27151  23.944  11.152  25.985 -0.2613  0.1875 -0.0924
84161W        W27152   4.077  20.692   5.662  0.2485 -0.0145 -0.0329
84162W        W27153  10.985   0.417   4.067 -0.2112  0.0002  0.1038
84163W        W27154  13.938  21.354  27.610 -0.2994 -0.0678  0.3369
84164W        W27155   0.696   9.874  26.272  0.3247 -0.1215  0.0432
84165W        W27156  34.706  18.283   5.014  0.1060 -0.4422 -0.0416
84166W        W27157   5.068   0.904  22.022  0.0716 -0.0902 -0.0952
84167W        W27158   4.543  17.805   9.158  0.1208  0.1060 -0.2451
84168W        W27159  10.754  14.808   5.792 -0.1233  0.0530 -0.1346
84169W        W27160   6.982  18.313   1.517  0.0003 -0.0185  0.0569
84170W        W27161  29.790  16.956  23.717 -0.0064 -0.1588  0.2239
84171W        W27162  25.271  31.545  18.471  0.0546  0.1560 -0.3275
84172W        W27163  33.714  26.209  28.927 -0.0712 -0.5238 -0.0429
84173W        W27164   0.646  17.246   2.241  0.2709 -0.1633 -0.1392
84174W        W27165  19.199  20.769  18.615  0.1639  0.1036 -0.1514
84175W        W27166   5.416  26.025   9.874 -0.0909  0.3365 -0.0544
84176W        W27167  24.736   7.418   6.808 -0.2659 -0.2698 -0.0597
84177W        W27168   4.950  10.204   8.651  0.2515  0.1319  0.1547
84178W        W27169  14.552   9.351   8.040 -0.2270  0.0240  0.1138
84179W        W27170   7.755   1.606   9.820  0.0806 -0.0236 -0.1140
84180W        W27171  28.614  12.599   7.617 -0.1501 -0.0156  0.1889
84181W        W27172   4.724  30.895  22.029 -0.2337 -0.3533 -0.0783
84182W        W27173  30.354  25.997   6.164  0.0229  0.0594  0.1895
84183W        W27174  26.804  26.807   1.303 -0.3570  0.1411  0.1289
84184W        W27175  15.622   6.826   8.065  0.4065 -0.1494  0.3777
84185W        W27176   7.850  29.765   6.132 -0.1276  0.1480  0.2004
84186W        W27177   6.474  31.647   3.656  0.2104  0.0383  0.1120
84187W        W27178  20.252  28.579  25.232  0.0596  0.3022  0.3371
84188W        W27179   1.896  13.890   4.941 -0.0368 -0.0925  0.2363
84189W        W27180  12.148  16.443  22.738  0.2863 -0.0573  0.0853
84190W        W27181   3.603   9.447   7.760  0.0239 -0.1136 -0.3148
84191W        W27182  10.489  29.973   4.176 -0.2395  0.1186  0.0583
84192W        W27183  12.498  29.884   0.897  0.1849  0.0753 -0.1002
84193W        W27184  29.123  25.690   1.743  0.1006  0.0597 -0.0941
84194W        W27185   8.524  32.563  27.899  0.2003  0.3202  0.1819
84195W        W27186  34.097  16.242   8.092 -0.1241 -0.1191 -0.2098
84196W        W27187   4.915  18.167  21.358  0.0859  0.1109  0.0602
84197W        W27188   8.577   3.208   3.855 -0.1545 -0.1382  0.0079
84198W        W27189  12.239  31.659  18.254 -0.0182 -0.1868 -0.3894
84199W        W27190  32.321  26.798   1.466  0.0084 -0.2171  0.2556
84200W        W27191  17.980  20.789   4.517 -0.0645 -0.0855 -0.0919
84201W        W27192  18.771  21.223   8.107  0.4290  0.1319 -0.1068
84202W        W27193  14.888   1.485   4.593 -0.1732  0.0342  0.0602
84203W        W27194   3.816  18.713   6.081 -0.1919 -0.1804  0.1242
84204W        W27195   3.062  32.620  10.082 -0.1312  0.3999 -0.0501
84205W        W27196  10.328  12.296  20.641  0.3131 -0.0896  0.2273
84206W        W27197   8.539  27.005   8.261  0.2135 -0.1719 -0.1351
84207W        W27198  18.786  33.278   6.483  0.0265 -0.1747 -0.0192
84208W        W27199   7.839   2.659  23.713 -0.2370  0.0664  0.0737
84209W        W27200  14.758  20.374   8.369 -0.0509  0.0154  0.3676
84210W        W27201  11.067   4.057   6.608 -0.2848  0.0968  0.1665
84211W        W27202  10.330  19.520   0.896 -0.0632 -0.2960 -0.0690
84212W        W27203  13.549  31.260   7.945  0.2230  0.0209 -0.2968
84213W        W27204   3.552   2.770   4.946  0.2096 -0.0287  0.2672
84214W        W27205   6.322   0.002   4.800  0.1953 -0.1019 -0.3215
84215W        W27206   8.204  19.409   5.721 -0.0370 -0.1497 -0.0898
84216W        W27207  18.094   9.428   6.565 -0.0441 -0.1371 -0.2286
84217W        W27208   1.284  25.575   1.277 -0.0168  0.0957 -0.1148
84218W        W27209  26.930  22.107   7.636 -0.0049 -0.1883  0.2683
84219W        W27210  20.506  29.017   2.442  0.2964 -0.0004  0.0101
84220W        W27211  30.891  12.065   2.097 -0.0435 -0.2533  0.0137
84221W        W27212  13.024  29.947   5.142 -0.1774 -0.0713  0.4023
84222W        W27213  11.298  19.422  25.281  0.1576  0.4044 -0.1387
84223W        W27214  30.825  24.965  28.221  0.1080  0.2467 -0.2475
84224W        W27215   1.265  29.453   3.626 -0.0628 -0.2598 -0.0387
84225W        W27216  32.928  20.452   2.773 -0.0064  0.2782 -0.1017
84226W        W27217  21.183  22.055  27.325  0.3895 -0.2461  0.1885
84227W        W27218  15.627  17.789   7.002  0.1920 -0.5582 -0.2463
84228W        W27219  10.722  20.666   8.513  0.1745 -0.2247  0.4651
84229W        W27220  16.954  22.367  24.620  0.0986 -0.2998  0.2309
84230W        W27221  18.346  32.294   4.790  0.0207  0.0341 -0.1583
84231W        W27222   6.707   5.684  21.454 -0.3113  0.1583 -0.1433
84232W        W27223  10.433  15.055  20.789  0.2886 -0.0116  0.1168
84233W        W27224  13.575  23.639   0.651  0.4693  0.4534 -0.0118
84234W        W27225  22.308  34.170  28.066 -0.0614  0.2273  0.2108
84235W        W27226  10.179  16.883   6.176  0.0264  0.0240 -0.1834
84236W        W27227  34.153  11.614  10.195  0.0578 -0.0069  0.1655
84237W        W27228   9.247   5.203   4.235 -0.0462  0.0887 -0.1564
84238W        W27229  17.683  18.368   3.027 -0.1873  0.2384  0.0007
84239W        W27230  17.266  22.310  24.250  0.0318  0.0949 -0.0851
84240W        W27231   0.216  16.716   8.246 -0.0860 -0.1720  0.0072
84241W        W27232  28.761  29.966   1.995 -0.2037  0.4455 -0.0313
84242W        W27233   8.516  13.615  19.768  0.2733 -0.0723  0.4370
84243W        W27234  30.635  20.183   4.736  0.1760  0.2647  0.2779
84244W        W27235   9.379  17.101   6.166 -0.2563 -0.0643  0.1928
84245W        W27236  14.661  28.261  29.260 -0.2079 -0.2791  0.2887
84246W        W27237   3.946  18.183   6.746  0.1643 -0.0325  0.2003
84247W        W27238   5.167  31.267   1.157  0.0627 -0.0525 -0.1518
84248W        W27239   2.259  13.016  25.474  0.0699 -0.0411  0.1720
84249W        W27240  21.282   1.048   1.902 -0.1200 -0.0995 -0.0319
84250W        W27241  26.901  26.270   8.473 -0.0073  0.2699 -0.5508
84251W        W27242   5.893  22.757   6.978  0.0110  0.1247  0.4279
84252W        W27243   9.044  22.504   3.939  0.1052 -0.0186 -0.2416
84253W        W27244   4.935  28.613   0.221  0.1095 -0.1328 -0.0729
84254W        W27245   5.945  27.252  18.180 -0.0730 -0.0226 -0.2960
84255W        W27246  33.664  18.570   5.144 -0.2648 -0.1175 -0.1690
84256W        W27247  18.406  19.336  29.125 -0.0633 -0.0543  0.2251
84257W        W27248  15.420  24.087  15.386 -0.3827  0.0385  0.0917
84258W        W27249  33.374  20.552   4.831 -0.0011  0.2099 -0.1525
84259W        W27250  16.823  23.375   4.323  0.1680  0.1778 -0.0357
84260W        W27251  30.958  22.849   6.310 -0.1164 -0.4350 -0.0229
84261W        W27252   9.663  26.709   3.018  0.1996 -0.0358  0.2171
84262W        W27253  14.517   5.157   1.367 -0.1068 -0.0606  0.0821
84263W        W27254  20.870  16.813   9.333 -0.0731 -0.1014  0.0649
84264W        W27255  11.134  28.250   6.852  0.1447 -0.0745 -0.1153
84265W        W27256   3.313  24.180  26.596 -0.1444 -0.0438  0.2400
84266W        W27257  13.716  21.167  23.522  0.0309 -0.0785 -0.4134
84267W        W27258  31.333  26.306   6.304  0.0527 -0.2538 -0.3125
84268W        W27259   2.975  21.141  29.056 -0.0322  0.1541  0.1718
84269W        W27260  13.822  33.106   5.588  0.2494  0.0395 -0.2435
84270W        W27261   6.028   9.613   6.242  0.0877  0.0098 -0.1737
84271W        W27262  11.534  28.375   3.883 -0.1514 -0.0910 -0.0446
84272W        W27263  15.326  32.024   1.795 -0.1791  0.0096  0.2130
84273W        W27264  12.302  26.854   7.838 -0.2573  0.0902  0.1114
84274W        W27265  12.668  31.362  10.631  0.0412 -0.0940 -0.2439
84275W        W27266  19.246  23.635  26.055 -0.2467 -0.1499 -0.0758
84276W        W27267  13.027  20.851  28.427 -0.0815  0.1154 -0.1114
84277W        W27268  18.370  18.802   1.429  0.0838 -0.2096 -0.1688
84278W        W27269   5.372  26.434  27.295 -0.0950  0.1303 -0.0081
84279W        W27270   0.698  21.026  10.578 -0.0326 -0.2580  0.1812
84280W        W27271  16.913  31.822   7.406 -0.1873  0.0893 -0.0631
84281W        W27272  28.272   7.920   8.918 -0.0163 -0.0875 -0.1673
84282W        W27273  14.327  16.257   5.077  0.0245  0.2938  0.1011
84283W        W27274   9.608  20.158   6.776 -0.1930 -0.1756  0.1015
84284W        W27275  18.594  13.266   1.593 -0.0388 -0.0930 -0.2288
84285W        W27276   5.386  11.803  25.341  0.0845 -0.1063  0.2220
84286W        W27277  28.354  15.332   9.458 -0.1268 -0.1787  0.0327
84287W        W27278  15.589  29.572   2.865  0.0340  0.3174 -0.0655
84288W        W27279  31.951  20.997   1.424 -0.0051  0.0022 -0.1558
84289W        W27280  32.483   2.466   6.577  0.0081  0.0409 -0.0732
84290W        W27281   0.525  17.802   5.999 -0.0402 -0.2105  0.1616
84291W        W27282   2.434  26.738   4.600  0.2364 -0.0288  0.1208
84292W        W27283   9.923  13.419   1.279 -0.1086  0.0014 -0.0876
84293W        W27284  30.406  11.822   7.806 -0.1901 -0.0093 -0.2414
84294W        W27285  19.638  19.323   7.825  0.0531 -0.0084  0.1884
84295W        W27286  12.354  21.409   7.117  0.1255 -0.1129  0.1324
84296W        W27287  20.550  18.057   1.706 -0.0445 -0.1555  0.2035
84297W        W27288   4.358  23.347   0.296  0.4288  0.3635  0.4793
84298W        W27289  15.169  28.428  24.204 -0.0847  0.1010  0.3983
84299W        W27290  31.828  26.022  28.223  0.1084 -0.1838  0.0560
84300W        W27291   7.061  25.889   4.632 -0.3321  0.2993  0.1266
84301W        W27292   7.804  14.450   0.780 -0.0697 -0.2967 -0.1841
84302W        W27293  29.126  17.624   9.800  0.1718 -0.1978  0.1026
84303W        W27294  33.744  29.079   9.624 -0.1539  0.0908  0.1656
84304W        W27295  10.667  23.497   8.778  0.0138  0.0289 -0.0496
84305W        W27296  21.673  34.142   0.103 -0.1978 -0.3097  0.1729
84306W        W27297  10.844  18.555  28.181  0.2436  0.1251 -0.0185
84307W        W27298  19.336   8.261   7.288 -0.2475 -0.3466  0.0610
84308W        W27299  14.952  10.178   0.119 -0.3517 -0.2273  0.3154
84309W        W27300   6.020  27.429   4.513 -0.1318 -0.0882  0.0144
84310W        W27301   8.329  14.791  11.111  0.1325 -0.1619  0.0052
84311W        W27302   2.459  18.709   6.935  0.1243  0.0798 -0.1282
84312W        W27303  21.240  26.982  16.504  0.2973  0.1822 -0.0049
84313W        W27304   7.344   2.383  24.072 -0.0412 -0.1549 -0.0942
84314W        W27305   3.267  27.507   8.917 -0.0485  0.1589  0.1986
84315W        W27306  30.901  30.237   0.739  0.0063  0.3473  0.1012
84316W        W27307   6.415  30.734   5.009 -0.0248 -0.0087 -0.0017
84317W        W27308   6.369  27.978   2.016 -0.1817 -0.0250  0.0642
84318W        W27309  13.551  29.202   6.697  0.0744 -0.0068 -0.1326
84319W        W27310  13.321  33.968  27.995 -0.0749 -0.2011  0.1118
84320W        W27311   2.502  15.890  10.231  0.3901  0.1168  0.3979
84321W        W27312  28.959  33.440   7.860  0.1869 -0.1382  0.3297
84322W        W27313  13.169  11.880   6.091 -0.1450 -0.1605  0.3871
84323W        W27314  30.183  12.939   2.089 -0.0481 -0.0650  0.2347
84324W        W27315  18.283  33.748  26.253  0.1351 -0.2194 -0.1673
84325W        W27316   3.315  11.061  27.575  0.2073 -0.1844 -0.0586
84326W        W27317  16.235  16.920  28.831  0.0703 -0.0020  0.0946
84327W        W27318  19.529  15.447   6.516 -0.3719  0.1860  0.1236
84328W        W27319  13.305  28.251   8.045  0.0469 -0.2262 -0.1742
84329W        W27320   9.498  31.201   2.237  0.1195  0.0041 -0.1933
84330W        W27321   9.613  21.427  16.829  0.2311 -0.1178  0.2087
84331W        W27322   0.121  33.370   1.260  0.2523 -0.1692 -0.0016
84332W        W27323   2.598  15.430   1.351  0.1503  0.0637  0.0356
84333W        W27324   9.836  18.071   6.269  0.1718 -0.1450 -0.1081
84334W        W27325   6.946  25.780  28.721  0.2764  0.1103 -0.0171
84335W        W27326   9.461   5.221   7.513 -0.0204  0.0969 -0.4339
84336W        W27327  12.571  22.335   9.041  0.1845 -0.0312  0.1617
84337W        W27328   8.595  28.421   0.722  0.0953  0.2323 -0.1225
84338W        W27329   1.360  22.455   3.817 -0.1578 -0.1474 -0.4355
84339W        W27330  31.383  24.185  24.734  0.2605 -0.2612 -0.1144
84340W        W27331  10.027  32.946   6.869  0.2247  0.0123 -0.1624
84341W        W27332  16.358  30.855   3.280  0.2212  0.1109  0.0917
84342W        W27333  10.486  28.713  24.001  0.1001 -0.2106 -0.2333
84343W        W27334  10.228  21.724   5.723  0.1409 -0.1543  0.1753
84344W        W27335  20.195  30.034  26.141 -0.2232  0.0245  0.4188
84345W        W27336   5.969  21.060  28.298 -0.1066  0.0894  0.0380
84346W        W27337  15.879  28.151  28.403  0.0186  0.2769 -0.2027
84347W        W27338   1.278  10.536  25.809  0.1668  0.1882  0.0626
84348W        W27339   0.990  26.571   9.197 -0.0413  0.2884 -0.1329
84349W        W27340   0.766  28.450   4.288 -0.2844 -0.0239  0.0180
84350W        W27341  34.200  25.924   3.288  0.2250 -0.0806 -0.1609
84351W        W27342   6.540   5.685  20.522  0.1195 -0.3022 -0.0917
84352W        W27343   5.690  21.750   8.432 -0.0545 -0.0721  0.0015
84353W        W27344  11.449  30.676  19.785 -0.2131 -0.0054  0.0026
84354W        W27345   2.838  27.677   6.914 -0.0797 -0.3961  0.0807
84355W        W27346   7.261   3.904   8.112  0.1139 -0.1903  0.0242
84356W        W27347   4.744  28.810  28.136 -0.2055 -0.4860  0.1161
84357W        W27348   5.771  16.132  28.731 -0.0603 -0.2076 -0.0511
84358W        W27349   9.211  20.090   7.039  0.3282 -0.3203  0.1784
84359W        W27350  26.390   2.065  28.053 -0.0136 -0.0508  0.0734
84360W        W27351  13.616  18.338  25.543 -0.1458 -0.0740 -0.1184
84361W        W27352  25.948  11.951   5.313  0.0809 -0.0759  0.0568
84362W        W27353   8.051  15.916   0.572  0.1778  0.0626 -0.2835
84363W        W27354   9.941  15.011  24.720 -0.0762 -0.0065  0.0986
84364W        W27355  18.169  24.773   9.304  0.0206  0.1831  0.1331
84365W        W27356   2.408   1.833   2.360  0.0597  0.3506 -0.0785
84366W        W27357   0.212  17.198   7.911  0.3495 -0.2106  0.0014
84367W        W27358   4.179  21.104   5.961 -0.1414 -0.0294 -0.2293
84368W        W27359   1.926   3.798   1.913 -0.2419  0.4758  0.1335
84369W        W27360  31.349  27.230  24.754 -0.3234 -0.1769  0.0764
84370W        W27361  24.825  25.842  14.456 -0.0209  0.0930  0.3202
84371W        W27362  20.022  34.291   7.202 -0.2724  0.0996 -0.0680
84372W        W27363  32.100  29.210  26.993 -0.1446  0.0473  0.1528
84373W        W27364  34.768   6.579   9.416 -0.2423 -0.1345  0.0982
84374W        W27365   9.349  21.911  17.133  0.0839 -0.3402  0.2329
84375W        W27366  24.530  27.113  28.407  0.1170  0.0167 -0.2209
84376W        W27367  19.736  33.474   0.035 -0.0282  0.1992  0.1830
84377W        W27368  19.147  28.857   6.210  0.0066 -0.1513  0.0860
84378W        W27369  15.262  26.822   9.644 -0.2642  0.3501 -0.1183
84379W        W27370  11.024   0.080  10.761 -0.0317  0.0130 -0.3377
84380W        W27371   5.098  23.440  16.067 -0.1783  0.0800  0.1855
84381W        W27372  29.651  25.132  24.531  0.0307  0.2800  0.0263
84382W        W27373  16.206  25.156   6.080 -0.3444  0.1108 -0.0433
84383W        W27374   5.704  29.353   4.219  0.1427 -0.0515 -0.1696
84384W        W27375   4.110  22.015   7.837 -0.3193 -0.0213 -0.2756
84385W        W27376  12.806  29.996  27.485  0.4183  0.0599  0.2177
84386W        W27377  13.376  26.749   9.321  0.0941  0.1749 -0.0292
84387W        W27378  14.613  13.586   3.171 -0.1190 -0.2484  0.0606
84388W        W27379   4.623  10.738  10.211  0.1169 -0.0081 -0.0429
84389W        W27380   3.716  22.181   4.012  0.1291 -0.2237 -0.1855
84390W        W27381   7.009  27.132   3.091 -0.0629  0.1940  0.1358
84391W        W27382  12.808  26.744   5.684 -0.0003  0.2012 -0.1502
84392W        W27383  32.031  22.592   1.899  0.2114  0.1199 -0.1447
84393W        W27384  10.344  27.999   3.562 -0.1275 -0.0814  0.0275
84394W        W27385  29.316  19.858  21.142  0.1823  0.1036  0.0234
84395W        W27386  11.955  32.761  23.399 -0.3857  0.1379  0.2962
84396W        W27387   0.456  33.266   8.313  0.0052  0.1673 -0.0513
84397W        W27388   2.451  26.171   1.034 -0.1910 -0.0618  0.0731
84398W        W27389   8.587  15.436  27.337  0.2947 -0.0047 -0.1242
84399W        W27390   3.002  26.820  26.847 -0.0062  0.2616  0.0800
84400W        W27391   2.743  22.281   5.172  0.0822  0.1056 -0.1273
84401W        W27392  17.157  27.339   7.236  0.2067 -0.1476 -0.1208
84402W        W27393   4.956  22.272   3.839 -0.0070 -0.0933  0.0544
84403W        W27394  18.734  28.169  23.994 -0.1091 -0.0039 -0.0192
84404W        W27395  27.241  32.133   6.508 -0.0966  0.0005 -0.1823
84405W        W27396   9.354  15.144   1.569 -0.2195 -0.2313  0.0278
84406W        W27397   0.333  25.228   4.160  0.1329  0.1255 -0.0317
84407W        W27398   8.685  34.027   1.050 -0.2261  0.1565 -0.1585
84408W        W27399   4.157  19.556  20.776 -0.3024 -0.1642  0.1112
84409W        W27400  12.886  33.799   4.853 -0.4030 -0.0192  0.2577
84410W        W27401  14.189  29.226   3.968  0.0494  0.1988  0.0028
84411W        W27402   6.330  18.472  28.096 -0.1499 -0.2299  0.0837
84412W        W27403  32.491  20.663   6.018 -0.0693  0.1051  0.0178
84413W        W27404   8.818  27.023   1.579  0.2330  0.0031  0.0860
84414W        W27405   4.191  29.539   1.355 -0.1888 -0.1814 -0.3069
84415W        W27406  24.641  15.453   6.918 -0.2007  0.2181  0.1088
84416W        W27407   4.025  19.418   2.374  0.0753 -0.1258 -0.1544
84417W        W27408  24.512  21.121   8.870  0.1681  0.1177  0.0520
84418W        W27409  14.400  16.650  27.557 -0.1490 -0.0080  0.3674
84419W        W27410  10.040  33.544  27.028 -0.2681 -0.0304 -0.2793
84420W        W27411   8.856  23.269  27.185  0.0227  0.0228 -0.0132
84421W        W27412   8.579  25.752  25.672 -0.1108  0.1223 -0.1351
84422W        W27413  28.103  20.858   3.457 -0.0245 -0.0904 -0.3885
84423W        W27414   8.412   1.887  28.798 -0.0598 -0.0207 -0.2005
84424W        W27415   5.194  15.069   0.375  0.1536  0.2205  0.2399
84425W        W27416  18.222  21.696   7.571 -0.0295 -0.0510  0.2306
84426W        W27417  12.202  13.506  25.992  0.1674 -0.0131  0.0468
84427W        W27418  10.336  18.768  27.080  0.0245  0.0127  0.1934
84428W        W27419   2.254  19.841   9.717  0.0814  0.1717 -0.0316
84429W        W27420  16.842  30.031   5.704 -0.0711 -0.0261 -0.2942
84430W        W27421  18.324  19.334  26.323 -0.1452  0.0514 -0.2261
84431W        W27422  26.000  27.984  22.578  0.2435 -0.2393  0.0052
84432W        W27423   7.160  19.643  15.529 -0.0144  0.1151 -0.1368
84433W        W27424   3.314  18.091   5.761 -0.2363  0.0255  0.1755
84434W        W27425  33.241  27.872   1.079 -0.0768  0.0387  0.0725
84435W        W27426  26.518  18.924   1.232  0.1514 -0.0616  0.1993
84436W        W27427   7.514  12.035  10.649  0.0920 -0.3117  0.1311
84437W        W27428  30.494  29.059   1.252  0.0599 -0.0704  0.2167
84438W        W27429   9.447  27.583  23.932  0.0102  0.3895  0.0615
84439W        W27430  14.393  33.735  28.452  0.1589  0.1767  0.3300
84440W        W27431   5.114  20.985  28.147 -0.0571 -0.0901  0.0316
84441W        W27432  28.150  17.351  23.144  0.2721  0.4056  0.2398
84442W        W27433  13.299  19.778   1.436 -0.0595  0.0915 -0.3258
84443W        W27434   6.958  32.434   6.258 -0.1587  0.2884  0.1195
84444W        W27435  10.980  26.400   6.645  0.2474  0.0687  0.1488
84445W        W27436   7.225  31.660   6.453 -0.0053  0.1081 -0.1012
84446W        W27437  32.593  29.230   3.863 -0.1048 -0.5978  0.0313
84447W        W27438   3.028  30.599  24.791 -0.2106 -0.0785 -0.0189
84448W        W27439  14.833  13.384   3.661 -0.0422  0.1170  0.2532
84449W        W27440   2.174  10.168   7.118  0.0682  0.0098 -0.0960
84450W        W27441  17.491  20.638  24.028 -0.1163  0.2206 -0.1295
84451W        W27442   4.368  24.929  16.580  0.1793 -0.0395  0.0522
84452W        W27443  10.119  23.033   9.513  0.0707 -0.0015 -0.0155
84453W        W27444   2.354  26.977   0.084  0.0156 -0.0792  0.0369
84454W        W27445   0.187  30.930   5.956  0.0403 -0.1657  0.2206
84455W        W27446  14.148  34.196  28.586  0.0408 -0.1239 -0.0510
84456W        W27447  13.808  34.725  26.568 -0.1543 -0.1760  0.2370
84457W        W27448  32.343   0.259   2.166  0.3210 -0.0347 -0.3643
84458W        W27449   4.286  23.513   8.281  0.0720  0.4142 -0.0162
84459W        W27450  18.642  23.513   0.220 -0.0726 -0.1812  0.1600
84460W        W27451   3.090  18.718  24.289  0.1731 -0.1205 -0.3740
84461W        W27452  32.321   0.575  20.399 -0.0171  0.0620  0.1945
84462W        W27453  34.256  18.582  19.059  0.0694  0.1207 -0.0057
84463W        W27454   7.621  31.656  10.371  0.0591 -0.1469  0.1892
84464W        W27455   5.535   3.497  10.877  0.0195  0.0990 -0.0948
84465W        W27456   6.659  29.465   9.787  0.2210  0.2547 -0.1000
84466W        W27457  20.129  30.661  26.685 -0.3003 -0.2040  0.1630
84467W        W27458  14.907  30.993  15.991  0.1437  0.2577 -0.3213
84468W        W27459  10.407  11.446  25.189  0.0124  0.5786  0.0307
84469W        W27460   1.441  10.792  19.990  0.1997  0.0921  0.1369
84470W        W27461   2.697  22.208  24.449 -0.0553 -0.2247  0.1698
84471W        W27462  26.055  27.932   2.978  0.0362  0.0866  0.1450
84472W        W27463  32.698  31.501  25.283  0.3352 -0.1073  0.3073
84473W        W27464   0.364  30.036   5.389 -0.1452 -0.1064  0.0621
84474W        W27465   1.836  28.887   9.208  0.3059 -0.2732 -0.0891
84475W        W27466  29.047  27.393   2.667 -0.0654  0.3730  0.0308
84476W        W27467   5.416  30.736  20.301 -0.2453 -0.1800  0.1730
84477W        W27468   2.323  31.859  28.430  0.0755  0.2162 -0.2391
84478W        W27469  29.849  26.924   9.638  0.1881 -0.0106 -0.1001
84479W        W27470  14.234  33.264   8.781 -0.0577 -0.1383  0.3488
84480W        W27471  11.399   0.763   0.119 -0.2834 -0.0618 -0.3273
84481W        W27472  14.071  27.339  26.082 -0.2921 -0.0282  0.0789
84482W        W27473  26.366  12.305   4.096 -0.1143 -0.1307 -0.4331
84483W        W27474   6.480   6.723  25.837 -0.0507 -0.0317 -0.1080
84484W        W27475  13.817   2.919  11.672 -0.0167  0.1675  0.0727
84485W        W27476  24.624  33.435  26.989  0.4588 -0.1790  0.2083
84486W        W27477   6.249   9.887  27.156 -0.3319  0.1780  0.0058
84487W        W27478  21.162  28.527   2.015  0.0657 -0.0566 -0.1505
84488W        W27479   4.243  31.522  21.630 -0.2917 -0.1429  0.0144
84489W        W27480   8.839  33.207  28.289  0.2369 -0.1775 -0.0799
84490W        W27481   7.227  25.254   2.155  0.0372 -0.3690 -0.0688
84491W        W27482  28.586  33.961  20.513  0.2277 -0.2438 -0.0517
84492W        W27483  21.179  20.823   7.907 -0.4477 -0.0620 -0.1326
84493W        W27484  17.240  14.719  13.060  0.0164  0.0414  0.1273
84494W        W27485  17.716  24.232  23.852  0.0673  0.1757 -0.2762
84495W        W27486  11.264   8.429   4.215 -0.0594  0.1550  0.1725
84496W        W27487  13.299  16.876  25.578  0.0700  0.1100 -0.0145
84497W        W27488  11.158  20.180   6.717 -0.1711  0.0841 -0.3934
84498W        W27489   6.952   4.391  10.019 -0.0776  0.2813 -0.2020
84499W        W27490  17.402  23.320   1.272 -0.2501 -0.0397 -0.0879
84500W        W27491  14.093   6.521   1.495  0.3988 -0.1096  0.1398
84501W        W27492  14.676  25.838   8.104  0.3697  0.0741  0.1372
84502W        W27493   8.715  26.161   0.246 -0.0630  0.2815 -0.1924
84503W        W27494  33.926   9.024   9.499 -0.3379 -0.1007  0.1569
84504W        W27495  19.865  13.086   5.562 -0.1036 -0.0533 -0.5444
84505W        W27496  12.005  16.660   6.225  0.1053  0.2815 -0.1048
84506W        W27497   0.317  30.850   2.575 -0.4299  0.0634  0.3141
84507W        W27498   4.197  31.355   1.516  0.3398 -0.3820 -0.0303
84508W        W27499   3.089  27.488   3.517 -0.2493 -0.0974  0.1512
84509W        W27500  33.522   7.104   0.703  0.3314 -0.0370 -0.0115
84510W        W27501  13.126   4.062   3.486 -0.0941  0.0303 -0.1303
84511W        W27502   7.714  11.111  15.623 -0.0375  0.0759  0.0567
84512W        W27503   7.563  22.313  16.095  0.1074  0.2033 -0.0212
84513W        W27504  31.041  29.359   7.040 -0.0730  0.2306 -0.0194
84514W        W27505  22.256   9.321  13.977  0.1563 -0.0284  0.1785
84515W        W27506  12.939  19.050  29.127  0.3153 -0.0882 -0.1167
84516W        W27507   3.313  33.776  10.582 -0.1016  0.2457 -0.0319
84517W        W27508   4.254  18.453   7.755  0.1065  0.1654  0.0192
84518W        W27509  34.480  19.567  28.642 -0.0337 -0.0172 -0.0612
84519W        W27510   7.836   0.140  25.740 -0.0024 -0.1229  0.2465
84520W        W27511   8.082  24.246   8.973  0.4925 -0.3234 -0.0635
84521W        W27512   0.466  19.973   2.923 -0.1493 -0.0066 -0.1807
84522W        W27513  26.941   3.673   0.553  0.0982  0.0656 -0.0072
84523W        W27514   8.812  18.568  19.646  0.2186  0.0740 -0.0832
84524W        W27515   5.817  20.086  19.000 -0.0194  0.0621  0.3557
84525W        W27516  32.585   3.489  25.512  0.2212 -0.1277  0.2192
84526W        W27517  34.186  23.215  23.508 -0.1886 -0.5899  0.0000
84527W        W27518  14.481  15.466   4.535  0.0324  0.0764  0.5225
84528W        W27519   5.021   0.203   2.703 -0.1362  0.1608  0.0885
84529W        W27520   0.220   1.828   5.431 -0.3157  0.1532  0.1959
84530W        W27521  20.593  10.263   5.709  0.0836 -0.1273  0.1014
84531W        W27522   3.407  17.633   5.398 -0.3167  0.0203 -0.0261
84532W        W27523  10.406  10.020   1.198 -0.0217 -0.2557 -0.2123
84533W        W27524  27.522  33.849   0.568  0.0232 -0.0762  0.3446
84534W        W27525  28.696   6.362   0.071 -0.2423  0.3047 -0.2764
84535W        W27526  29.998  23.202   6.631 -0.2052  0.1530 -0.1807
84536W        W27527  34.405   4.237   7.867 -0.0873  0.1210  0.0011
84537W        W27528  11.845   7.410  17.798  0.2343  0.3867 -0.3585
84538W        W27529   7.777  26.689   5.634  0.2973 -0.0422 -0.1285
84539W        W27530   1.771  28.092   8.181 -0.1844 -0.2067  0.1371
84540W        W27531  14.659   0.861   7.993 -0.4247 -0.0055  0.0062
84541W        W27532  29.229   7.509   8.676  0.2895  0.1301  0.0186
84542W        W27533   6.871   7.713  25.151  0.2339 -0.2196  0.0163
84543W        W27534  13.340  33.828   0.476  0.0311  0.1740 -0.2091
84544W        W27535  14.861   3.836   2.027 -0.0051  0.0786 -0.1299
84545W        W27536  15.341  28.680  28.197  0.1669  0.4545  0.0329
84546W        W27537   0.640  15.047   0.057 -0.1818  0.3370 -0.0021
84547W        W27538   4.367  27.208  28.614  0.0268 -0.0684  0.0373
84548W        W27539   9.524  31.844   3.103  0.0451 -0.0007  0.1057
84549W        W27540  32.887  21.067   4.847 -0.0104  0.5562  0.0996
84550W        W27541  23.909  23.047  18.548  0.1543 -0.2939 -0.1636
84551W        W27542   5.686   1.007   2.878 -0.1439 -0.0990  0.0749
84552W        W27543   0.756   9.929  24.243 -0.1715 -0.0467  0.0273
84553W        W27544   6.714  32.828  16.888 -0.0486  0.0613 -0.0964
84554W        W27545  11.422  24.529   0.638  0.3756  0.1791 -0.0408
84555W        W27546  15.127  19.782  12.650  0.0865 -0.0553 -0.0359
84556W        W27547  34.195  34.130   3.435 -0.2358 -0.0326  0.0139
84557W        W27548   2.679  26.432  26.038 -0.2312  0.3802 -0.0600
84558W        W27549  34.209  29.029  20.216 -0.1296  0.1968 -0.0319
84559W        W27550   5.546   9.639   8.158  0.1067 -0.0755 -0.1628
84560W        W27551   4.290  20.755   2.248  0.1941 -0.1587  0.0405
84561W        W27552  34.656  30.702  27.654  0.2225 -0.1120 -0.1334
84562W        W27553  10.044  29.258   9.159  0.0124 -0.0516  0.1451
84563W        W27554   2.853  15.965  28.779  0.0709  0.1593  0.0037
84564W        W27555  10.757  14.750  23.729 -0.4255 -0.3395  0.1996
84565W        W27556   9.434  30.149   3.132 -0.7261 -0.2021 -0.0211
84566W        W27557  34.759   2.030   8.622 -0.1365  0.2441  0.3475
84567W        W27558   2.584  18.176   7.846  0.0549 -0.2068  0.0933
84568W        W27559  32.552  29.968   8.671  0.0248  0.2217  0.0634
84569W        W27560  11.025  26.161  22.163  0.2496  0.0068 -0.4570
84570W        W27561  14.068  28.435   3.507 -0.0324  0.1345 -0.0857
84571W        W27562  33.530   2.203  22.366  0.1555 -0.1104  0.3100
84572W        W27563   5.918   2.160  28.356 -0.3314  0.2573  0.0021
84573W        W27564   3.872  32.489   0.820  0.0324 -0.2188 -0.1213
84574W        W27565  17.623  27.751   8.176 -0.0407  0.0385  0.1434
84575W        W27566  31.000  12.970   7.098 -0.1909  0.2975  0.3459
84576W        W27567   6.607  14.358  26.239 -0.4762 -0.1720  0.1626
84577W        W27568   6.243   2.423   2.491 -0.2388 -0.2490 -0.2005
84578W        W27569  19.809  29.923  24.443 -0.0722 -0.0142 -0.0169
84579W        W27570   7.271  25.127  14.691 -0.1007 -0.2706  0.2740
84580W        W27571  10.249   5.053   9.580  0.1650  0.1686 -0.0563
84581W        W27572  31.191  19.228   7.573 -0.1342 -0.4081 -0.1753
84582W        W27573  23.856  27.290   6.431  0.0103 -0.4647  0.0749
84583W        W27574  14.222  25.465   8.617  0.2339 -0.1179 -0.1357
84584W        W27575  32.906  33.520   3.806 -0.0949  0.1006  0.1034
84585W        W27576  12.882  12.138   1.873  0.1026 -0.0906 -0.1742
84586W        W27577  29.533   1.696  20.558 -0.0247 -0.0155 -0.1820
84587W        W27578  19.703  18.667   2.588  0.0335  0.0633  0.2392
84588W        W27579  14.206  33.564  29.024  0.0251 -0.2855 -0.2980
84589W        W27580  14.345  19.928  12.251  0.1628  0.3302  0.0451
84590W        W27581  21.539  29.046   8.232  0.2007 -0.0648 -0.1609
84591W        W27582   7.714  28.068  26.429 -0.1498  0.2773  0.0455
84592W        W27583  18.845  23.475   2.585 -0.1291  0.1415 -0.3097
84593W        W27584   4.715   0.432   9.834  0.1118 -0.0763 -0.2381
84594W        W27585  22.400  11.692  25.900 -0.2759  0.2130 -0.1611
84595W        W27586   6.477  22.863   7.840  0.3032 -0.1805  0.0914
84596W        W27587  12.657  31.746   0.306  0.1413  0.2576  0.0314
84597W        W27588  14.016  25.382   3.600  0.0706 -0.1220 -0.0027
84598W        W27589   1.529  31.053  26.551  0.2120  0.0856  0.3111
84599W        W27590  18.622  33.337  15.349 -0.0661 -0.1053  0.0085
84600W        W27591  10.208  21.254  14.441 -0.1283  0.0738 -0.1531
84601W        W27592  14.140  11.957  19.385 -0.1123  0.0419  0.3156
84602W        W27593  22.520  27.101   7.868 -0.1639  0.3842  0.1804
84603W        W27594   9.703  13.495   3.823 -0.0468 -0.0534  0.0522
84604W        W27595   6.155   3.056  27.466  0.0841 -0.0961 -0.1695
84605W        W27596  30.724   0.963   1.383  0.0354 -0.0881 -0.2538
84606W        W27597  15.613  21.801  16.571 -0.1034 -0.1789 -0.2774
84607W        W27598  19.586  26.776   2.034 -0.0304  0.1641 -0.2331
84608W        W27599   6.855  28.776  18.475  0.0520  0.2733  0.0078
84609W        W27600  23.869  31.082   1.586  0.3126 -0.3464  0.1953
84610W        W27601  16.524  14.153   4.702 -0.2177  0.1023 -0.1443
84611W        W27602  16.937  22.563  26.865  0.1135  0.1027  0.0179
84612W        W27603   0.435  23.705  24.395 -0.1459  0.0886  0.0949
84613W        W27604  34.379   1.823  29.210  0.1854  0.3238  0.1623
84614W        W27605   6.498   4.992   2.879  0.1737  0.1411  0.2091
84615W        W27606  19.602  17.144  24.851  0.4583  0.3055  0.2211
84616W        W27607   1.696  25.819  24.396  0.0395  0.0120 -0.0346
84617W        W27608   2.336  30.977  23.866 -0.2983  0.3693 -0.2531
84618W        W27609   8.034   2.563  21.632 -0.1052 -0.0029  0.0810
84619W        W27610   9.082  28.109   9.307  0.1223 -0.2252  0.1926
84620W        W27611  32.945   2.250  27.577  0.6940  0.2278  0.1639
84621W        W27612   4.180   2.908   3.917 -0.0423  0.2143 -0.1512
84622W        W27613   7.425  29.021   8.772 -0.1029 -0.0630 -0.2716
84623W        W27614  16.093  31.243   1.544  0.0211 -0.2320  0.0430
84624W        W27615  10.667  27.789  24.161 -0.1025 -0.0699 -0.0869
84625W        W27616   2.989  13.941  28.527  0.2559  0.0372 -0.0586
84626W        W27617  15.725  26.689  18.401  0.1225 -0.0963 -0.3104
84627W        W27618  14.563  20.497   1.268  0.0629 -0.3453  0.0402
84628W        W27619  31.440  30.842   8.518  0.0670  0.2092  0.2122
84629W        W27620   0.040  17.487   4.019  0.2969  0.1201  0.2802
84630W        W27621   2.232  30.028   3.305  0.1499  0.1111 -0.2146
84631W        W27622  12.944   6.842  22.309  0.1118  0.3508 -0.2659
84632W        W27623  12.704  19.872  23.869  0.0572  0.1230  0.1738
84633W        W27624  12.890  27.814  18.983 -0.2348 -0.2903 -0.0378
84634W        W27625   4.736   8.973  10.938 -0.2173  0.0107  0.0320
84635W        W27626  29.213  29.166  23.824 -0.0312 -0.0637  0.1712
84636W        W27627  17.933  25.406  26.110 -0.1083  0.0363  0.2966
84637W        W27628  19.674  24.365   7.087 -0.0395  0.4676 -0.1776
84638W        W27629  12.085   3.490  28.355  0.0910 -0.1698  0.0563
84639W        W27630  24.007  23.852   1.703  0.0071  0.0547 -0.4109
84640W        W27631  34.352  31.921  10.077  0.1534  0.0361  0.1565
84641W        W27632  10.980  29.468  26.132 -0.1439 -0.2162 -0.1198
84642W        W27633  23.179  16.128   5.535  0.0165  0.1592 -0.0680
84643W        W27634  23.489  34.529   2.345  0.1279 -0.1107  0.2713
84644W        W27635   0.881  14.219   7.682 -0.0732  0.0952  0.1168
84645W        W27636   8.128   8.477   1.776 -0.1408 -0.1721 -0.0929
84646W        W27637  30.885  12.473   3.217 -0.2458  0.1898  0.3610
84647W        W27638  12.998  17.980  24.998 -0.1274  0.3810  0.1061
84648W        W27639   8.990  25.183  18.550 -0.3692 -0.0949 -0.2385
84649W        W27640  31.580   6.438   5.529  0.0234  0.1699 -0.3156
84650W        W27641  16.406  18.980  23.053 -0.0075  0.1414  0.0827
84651W        W27642   0.867  25.164   3.307  0.0268  0.1705  0.0384
84652W        W27643  22.247  29.175  28.668  0.2080 -0.0104  0.0826
84653W        W27644  23.220  22.789  27.605 -0.0748  0.1049 -0.0895
84654W        W27645  31.281  13.834   8.217 -0.1341  0.0475 -0.0628
84655W        W27646  28.658  20.894  19.077 -0.0352  0.0076  0.0263
84656W        W27647   7.515  31.392  28.686  0.2526  0.0291  0.3383
84657W        W27648   6.463  28.960  25.639 -0.0349 -0.0733  0.1716
84658W        W27649  14.486   0.678   4.055 -0.1530  0.2261  0.2028
84659W        W27650  16.983   0.527   8.052 -0.1418  0.0172  0.0953
84660W        W27651  12.965  15.899  29.051 -0.4983 -0.0516 -0.1057
84661W        W27652  29.359  30.591  19.198 -0.0410  0.2814 -0.1854
84662W        W27653  17.623  29.746  24.252 -0.3830  0.2299 -0.0959
84663W        W27654  30.602   5.303   6.807 -0.1039 -0.0544  0.1258
84664W        W27655  14.340  34.645   9.364  0.1326 -0.1424  0.3418
84665W        W27656   7.314  19.895  18.287  0.2572 -0.0310  0.1794
84666W        W27657   4.316  23.972  25.554 -0.1161  0.1259  0.3564
84667W        W27658  33.948   0.281   8.382 -0.0331 -0.2376 -0.2494
84668W        W27659  14.625  18.865   5.728 -0.1449  0.0192 -0.1330
84669W        W27660  16.347  20.708  27.192 -0.2732  0.1969 -0.2212
84670W        W27661  16.480   1.624   5.246 -0.1316 -0.0528  0.0815
84671W        W27662  33.779  14.311   3.093 -0.1806 -0.3005 -0.1014
84672W        W27663   8.117  12.252  28.719 -0.0221  0.1893  0.4272
84673W        W27664   1.878  27.904  27.291  0.0198 -0.2036  0.0890
84674W        W27665   7.792  26.429   3.596 -0.0893 -0.1296  0.2460
84675W        W27666  16.582  29.447   2.868  0.1852 -0.1300 -0.2706
84676W        W27667   4.204  23.983  26.546 -0.2568 -0.3241 -0.0020
84677W        W27668  26.070  33.373   7.728  0.0636  0.0134  0.1040
84678W        W27669   2.798  19.168  10.587 -0.0429  0.1378 -0.0893
84679W        W27670   3.144  12.791   3.152 -0.5062  0.3198  0.0184
84680W        W27671   8.625  29.627  21.669  0.1269  0.1844  0.3454
84681W        W27672  30.816  16.059  22.872  0.2274  0.3988  0.1532
84682W        W27673  11.232   7.218  28.541  0.3496  0.1048 -0.1236
84683W        W27674  24.008  29.031   5.834 -0.2404  0.0917  0.1193
84684W        W27675  10.406  26.487  28.727 -0.1537  0.0317  0.1647
84685W        W27676   0.574  32.446   7.186 -0.0196 -0.2267  0.2016
84686W        W27677  23.375  25.280  17.537  0.1318 -0.2945 -0.0580
84687W        W27678   7.522  28.653  16.594  0.2003 -0.1444 -0.0137
84688W        W27679   4.017  30.867  10.296 -0.3553 -0.2194 -0.0145
84689W        W27680   0.165  18.623   5.293  0.0321  0.1249 -0.3218
84690W        W27681   0.574   0.617  19.028 -0.0915  0.3807 -0.2833
84691W        W27682   7.298  33.589  15.185  0.0042  0.1939  0.1890
84692W        W27683  10.097   7.120   0.542 -0.1496  0.1660  0.2339
84693W        W27684  16.711  31.867   6.821 -0.2112 -0.0185  0.1095
84694W        W27685   6.131   2.527   8.523 -0.0905 -0.2289 -0.3802
84695W        W27686  32.760   9.423  28.548 -0.1407  0.1487 -0.5235
84696W        W27687  18.949  19.690   5.387  0.2763  0.0822  0.0325
84697W        W27688   0.225   2.413   2.346  0.0832 -0.2195 -0.0406
84698W        W27689  33.375  19.440  10.784  0.2495  0.1490  0.1374
84699W        W27690   5.379  25.653   7.668  0.0095 -0.2664  0.1597
84700W        W27691   8.116  17.311   3.620  0.0776  0.1183 -0.3729
84701W        W27692   7.700   3.100  10.720 -0.0190  0.0314 -0.2093
84702W        W27693  12.386  34.673   6.652 -0.2091 -0.3617 -0.1327
84703W        W27694   9.938  29.249  28.361  0.6064  0.1780 -0.0279
84704W        W27695  23.102  28.681  22.758  0.0690  0.1521  0.2414
84705W        W27696  14.191  22.503  25.120 -0.0673  0.3333  0.0083
84706W        W27697   7.973  34.760   9.956  0.0635 -0.2651  0.2078
84707W        W27698  17.737  31.834   3.636  0.3336  0.1453  0.1572
84708W        W27699  11.118  16.989  24.212 -0.3120  0.1426  0.1421
84709W        W27700  18.181  20.768  23.644 -0.2942 -0.1011  0.0829
84710W        W27701   3.747   2.096   1.392  0.2415 -0.2049  0.1779
84711W        W27702  28.121  19.218   1.157 -0.1921 -0.0055 -0.3290
84712W        W27703  15.714  25.612   0.686  0.0859  0.2641  0.1472
84713W        W27704  31.606  21.124   4.288 -0.1301 -0.0001 -0.1392
84714W        W27705  15.246  23.192   8.133 -0.0040 -0.0435 -0.0539
84715W        W27706  15.220  22.965  28.061 -0.0778 -0.0524  0.0778
84716W        W27707   2.732  15.766   4.320 -0.1783  0.1996 -0.2451
84717W        W27708  11.863   1.113   9.114 -0.1605  0.0887  0.1937
84718W        W27709  19.478   2.438  26.683  0.1882 -0.1096  0.0030
84719W        W27710   4.298  32.931   7.952 -0.1340  0.2978  0.0674
84720W        W27711  23.724  22.140  23.747  0.1590  0.1445 -0.0857
84721W        W27712  33.897  28.614   3.587 -0.0538 -0.0987  0.3419
84722W        W27713  10.804  23.923  25.485 -0.1443 -0.1525 -0.0315
84723W        W27714  30.936  17.522  26.174  0.2774 -0.3558  0.4641
84724W        W27715   8.154  27.675  10.851  0.0517 -0.4997  0.0761
84725W        W27716   6.802  25.998  24.728 -0.0451 -0.0490 -0.0520
84726W        W27717   1.565   8.017   1.070  0.2776 -0.3276 -0.2368
84727W        W27718   9.905  15.098  23.250  0.1323 -0.2135 -0.1077
84728W        W27719   9.045  32.066  24.805  0.0541 -0.0804 -0.1116
84729W        W27720  21.039  27.683   1.562  0.2411 -0.0074  0.0928
84730W        W27721  10.956  28.900  19.493 -0.4326  0.1226  0.2841
84731W        W27722   6.846  24.636   1.055 -0.0792  0.0154 -0.1587
84732W        W27723  28.194  26.669   5.849  0.1861  0.1443 -0.2130
84733W        W27724  25.047  27.427  21.176 -0.3229 -0.5031  0.0526
84734W        W27725  29.912  26.156   4.502 -0.1131  0.0368 -0.0743
84735W        W27726  18.731  32.619  22.619 -0.1064 -0.1486  0.1648
84736W        W27727  11.839  16.876  28.972  0.1651 -0.0320 -0.0594
84737W        W27728  19.009  23.199   1.722  0.0067 -0.0350 -0.1772
84738W        W27729   8.793  18.468  10.412 -0.1741 -0.3984 -0.1327
84739W        W27730   6.073  32.922   6.009 -0.1200  0.2216 -0.0013
84740W        W27731   8.430  10.074  21.263 -0.0071 -0.0280 -0.2067
84741W        W27732   5.651  17.735   6.770 -0.1735  0.1900  0.0760
84742W        W27733  26.630  31.807  26.714 -0.1142 -0.1955 -0.0449
84743W        W27734  17.951  27.947   9.300  0.0399  0.0915  0.2698
84744W        W27735   1.968   9.633  24.632 -0.1483 -0.0347 -0.2138
84745W        W27736   2.472   3.218  27.562  0.3030 -0.1164 -0.0914
84746W        W27737  25.447  32.238  29.159 -0.1137  0.1435  0.0581
84747W        W27738  34.321  16.123   3.323  0.3663  0.3025 -0.0623
84748W        W27739   7.098  26.885   2.168 -0.3869 -0.0441  0.0170
84749W        W27740  14.249  20.412   0.428  0.1727  0.0118 -0.0093
84750W        W27741  16.487  27.339  25.603  0.4050  0.2144  0.0296
84751W        W27742   9.123  18.579  25.518 -0.3469  0.1456  0.2323
84752W        W27743   4.702  18.632   3.928  0.1000 -0.0159 -0.0948
84753W        W27744  23.100  30.696   4.916  0.1954 -0.0535  0.1212
84754W        W27745   9.032  30.745  23.004 -0.3359 -0.0804  0.1727
84755W        W27746  15.331  29.497   1.574  0.1647  0.2461  0.3065
84756W        W27747  22.932   6.891  17.757 -0.0692  0.3563  0.1365
84757W        W27748  27.224  15.256   0.382  0.3541  0.2009  0.0087
84758W        W27749   4.414  29.261   4.045  0.1716 -0.2296 -0.0187
84759W        W27750  20.691  29.753   8.220  0.0699 -0.1159 -0.2388
84760W        W27751   9.880  26.894  22.884 -0.0900 -0.2946 -0.0317
84761W        W27752  34.229  31.393   3.163 -0.0118  0.1095  0.1191
84762W        W27753  32.806  24.740  28.675  0.4049 -0.0830 -0.1623
84763W        W27754   1.433  17.680   8.291  0.0817 -0.0310  0.2896
84764W        W27755  33.875  26.545   9.802  0.1357 -0.2604  0.3053
84765W        W27756  10.707  32.711  19.424  0.2447 -0.0516  0.1509
84766W        W27757   6.842  33.711   9.273 -0.2810  0.0155 -0.2896
84767W        W27758  13.424   8.032  24.870  0.0467 -0.2524  0.1605
84768W        W27759   5.430  19.000  27.847  0.0543  0.0213 -0.1732
84769W        W27760  23.948   3.890  26.330 -0.1489 -0.0549  0.2299
84770W        W27761   8.267  20.761  28.355 -0.0111 -0.3465 -0.0162
84771W        W27762  33.418   2.114   8.901 -0.0817 -0.0005  0.2059
84772W        W27763   4.193   1.929   1.973  0.1890 -0.3180 -0.1588
84773W        W27764  25.289  33.427  24.937 -0.1580 -0.0917 -0.1643
84774W        W27765  22.955   1.719   8.140  0.2829  0.1100  0.0689
84775W        W27766  13.513  24.678  28.951 -0.1206  0.1928 -0.0046
84776W        W27767  22.875  13.390  20.603 -0.0151  0.3995  0.1147
84777W        W27768  21.571   2.202   8.875  0.0070 -0.1613 -0.4529
84778W        W27769   0.904  13.426   1.196  0.0736 -0.0109 -0.3666
84779W        W27770   2.351   5.381   9.801 -0.1938 -0.0738 -0.0751
84780W        W27771   9.900  13.502  28.532 -0.3484  0.1297 -0.1439
84781W        W27772  22.669  17.370   5.995  0.2038  0.0802  0.3130
84782W        W27773  31.604  15.960   3.020 -0.2030 -0.1399  0.0172
84783W        W27774  20.392  28.214   8.817  0.0837  0.2995 -0.2129
84784W        W27775   4.089   4.881  10.450  0.1605  0.1118  0.0607
84785W        W27776   0.468  30.453   4.570  0.1620  0.1557  0.3122
84786W        W27777  12.204   2.761   2.065  0.0847 -0.0552 -0.2853
84787W        W27778  16.372  27.776  18.115 -0.2101  0.2019 -0.0093
84788W        W27779  16.362   1.035   1.038  0.1069 -0.0885  0.0643
84789W        W27780  10.406  24.727   5.050  0.0244  0.0458  0.1746
84790W        W27781  15.617   0.783   4.426  0.1086  0.1703 -0.3476
84791W        W27782  14.109   7.341   8.703 -0.2454  0.2684  0.0547
84792W        W27783   4.188  19.062  28.710 -0.4959 -0.0262 -0.0848
84793W        W27784  30.508  31.102   6.900 -0.0064  0.1499  0.2576
84794W        W27785  21.957  19.269  24.321  0.0686  0.0594 -0.0479
84795W        W27786   5.988  34.305   9.035 -0.0062 -0.0165  0.1313
84796W        W27787  10.853   7.719   0.380  0.0653 -0.0022  0.3321
84797W        W27788  19.015  25.805  26.457 -0.1141  0.1378  0.2385
84798W        W27789   6.112  26.509  14.466  0.1827  0.1254  0.1236
84799W        W27790   2.074   7.904  27.076  0.1621 -0.3023  0.2956
84800W        W27791  14.168  23.895  26.463 -0.3638  0.2437 -0.1226
84801W        W27792   0.656  29.973  23.311  0.1758 -0.1242 -0.1600
84802W        W27793   9.930  16.230  17.648  0.0868 -0.1164 -0.2843
84803W        W27794   5.139  20.502  10.455  0.0638 -0.0787 -0.0208
84804W        W27795  17.232  27.678   4.877 -0.1465  0.3608  0.2333
84805W        W27796  29.397   9.572   3.764  0.0291  0.0385  0.3280
84806W        W27797  19.752  31.742   0.327  0.0498  0.0274  0.0034
84807W        W27798  11.522  24.265  25.142  0.1720  0.2207 -0.0781
84808W        W27799   8.154  25.345   1.771 -0.2517  0.0831  0.2066
84809W        W27800  13.610  25.370   7.421  0.0210 -0.3285  0.2972
84810W        W27801  29.846   0.129   7.895 -0.2165 -0.2727 -0.2209
84811W        W27802   7.370  27.278  24.665  0.1648 -0.1533  0.0317
84812W        W27803  20.643  19.114   4.783  0.0631 -0.0707  0.0558
84813W        W27804   8.322   2.415  27.212  0.0565  0.0268  0.0804
84814W        W27805  11.454  34.153  27.277 -0.1915  0.2928  0.3864
84815W        W27806  32.386  22.401   8.593  0.3241  0.1149  0.0148
84816W        W27807  11.119  13.090  14.773 -0.0629 -0.1471 -0.1379
84817W        W27808   5.262  18.211  22.909  0.1916  0.0957 -0.0465
84818W        W27809  22.367  14.244   4.884 -0.4371  0.1199  0.2795
84819W        W27810   2.995  23.794   7.159 -0.1471 -0.2621  0.1113
84820W        W27811  11.945  30.374   2.386  0.1770  0.2358 -0.0608
84821W        W27812   8.122  28.903   8.021  0.2588 -0.0376  0.1728
84822W        W27813  23.724  24.346   8.615 -0.3616 -0.2262 -0.0729
84823W        W27814  26.156  30.571  14.367 -0.0069  0.3252  0.0980
84824W        W27815   9.939  33.356  24.812  0.2364  0.2541 -0.0791
84825W        W27816  11.717  19.585  20.804 -0.0047 -0.1013 -0.0146
84826W        W27817  24.069  28.049  21.824  0.2407  0.2957 -0.2743
84827W        W27818   6.548  28.077   3.015  0.0295  0.2196 -0.3408
84828W        W27819  17.560  29.821  21.145 -0.2411 -0.1031  0.0086
84829W        W27820  12.234  23.940   8.674  0.1133 -0.2242  0.4727
84830W        W27821  12.370  18.957  17.059  0.0349  0.1666  0.2024
84831W        W27822  33.116  29.998   8.390  0.3666  0.2208 -0.2759
84832W        W27823  31.155  29.742   9.200 -0.1759  0.2222  0.0289
84833W        W27824  16.815  29.867  16.125  0.0574  0.0832  0.1472
84834W        W27825   5.031   8.235  28.610  0.0183  0.0165  0.4347
84835W        W27826  31.701  11.557  21.134 -0.0219 -0.1807 -0.3026
84836W        W27827  27.050  19.179  29.218 -0.0604 -0.0247  0.0086
84837W        W27828   1.451  26.670  20.149 -0.4517 -0.0180 -0.1883
84838W        W27829   0.490   9.925   4.374  0.0157 -0.1480  0.4423
84839W        W27830  28.816  19.525   2.703  0.3299 -0.0468  0.3859
84840W        W27831   0.521  34.254  14.971 -0.0559  0.0723  0.1528
84841W        W27832   1.427  25.730   1.808 -0.0842 -0.0243 -0.1316
84842W        W27833  29.412  28.115   8.741  0.1098 -0.0041  0.0513
84843W        W27834   6.278  12.408  25.295 -0.0201  0.1588  0.1689
84844W        W27835  15.643  29.083   9.443 -0.1927  0.3429  0.0868
84845W        W27836  17.940  23.311  17.452  0.0442  0.0858 -0.2555
84846W        W27837  33.735  27.241   0.467  0.3176  0.0281  0.0602
84847W        W27838  32.531  32.869   3.175  0.1284  0.0693  0.2527
84848W        W27839   4.786  25.116  26.290  0.1024  0.0671  0.1841
84849W        W27840  21.620  23.121  23.912  0.3476  0.1439  0.0558
84850W        W27841  12.140  13.325  22.582 -0.0884 -0.1525 -0.0229
84851W        W27842   8.574  28.623   5.383  0.3302 -0.1289 -0.0827
84852W        W27843   4.340  18.116   0.580 -0.0982  0.1151  0.1549
84853W        W27844  25.557  20.283  23.666  0.1115 -0.1182  0.0066
84854W        W27845  15.761  25.203  27.924 -0.2392  0.0073 -0.1862
84855W        W27846   2.240  32.573   6.376 -0.2079  0.0881 -0.1775
84856W        W27847  29.239   0.260  27.922  0.0113  0.2298  0.0350
84857W        W27848   5.542  29.598   0.486 -0.2835 -0.0520  0.1031
84858W        W27849  14.021   9.048   2.798 -0.1233  0.0197 -0.0951
84859W        W27850   8.749  25.236   3.558  0.1274  0.1884 -0.2066
84860W        W27851   9.202  32.588  10.146  0.1246  0.0292 -0.0497
84861W        W27852   9.666  31.075  25.093 -0.0096 -0.2296 -0.0282
84862W        W27853  17.832   2.603  23.804  0.3047 -0.3949 -0.3709
84863W        W27854   7.398   9.923  21.118  0.0806 -0.0326  0.1915
84864W        W27855   1.916  24.609   7.866  0.0451  0.0935 -0.0798
84865W        W27856   5.188  28.079   7.698  0.0837 -0.1999 -0.0428
84866W        W27857  31.406  34.062   6.569 -0.1810  0.0216 -0.4054
84867W        W27858   7.128  31.157   7.297 -0.4061  0.1825 -0.1180
84868W        W27859  17.509  33.454   6.146 -0.1785  0.3255  0.0200
84869W        W27860  12.894  20.837   6.601 -0.1263  0.1620 -0.2426
84870W        W27861  15.017  34.459   4.612 -0.1878 -0.2579  0.0660
84871W        W27862   6.195  33.766   9.114 -0.0803  0.0691  0.0470
84872W        W27863   9.729  22.896  26.619 -0.2275 -0.0445 -0.1565
84873W        W27864  18.339  13.701  18.618  0.2120  0.1804 -0.0613
84874W        W27865  14.705  26.662   2.538  0.0704 -0.2697 -0.1827
84875W        W27866  25.612  23.366  26.072  0.1358 -0.2723 -0.2012
84876W        W27867  23.149   8.643   5.202 -0.1074  0.1844 -0.0297
84877W        W27868   6.913  30.864  27.022  0.2121 -0.2237  0.1041
84878W        W27869   7.095  14.342   6.750 -0.0631  0.0226  0.1679
84879W        W27870   8.245  23.721   9.285 -0.2530 -0.0610 -0.1168
84880W        W27871   7.524   0.562  23.301 -0.0599  0.1919  0.0118
84881W        W27872  17.780   0.789   9.530 -0.1137 -0.1863 -0.1022
84882W        W27873  29.003  20.854   5.251  0.0458  0.0168  0.1405
84883W        W27874  14.192  26.880  19.472 -0.3596 -0.0984  0.0988
84884W        W27875  17.763  24.813  14.282  0.3431 -0.0795 -0.2118
84885W        W27876  23.394  34.437   8.766 -0.2967  0.1032 -0.0181
84886W        W27877   7.279  11.917   8.195  0.2455 -0.1964 -0.2213
84887W        W27878  32.049   4.140   8.977  0.0565  0.0503  0.2498
84888W        W27879  26.753   3.560   7.057 -0.0096 -0.2325 -0.1890
84889W        W27880  13.679   0.639  20.058  0.1993 -0.0498  0.1608
84890W        W27881   3.986   7.533  10.632 -0.0648 -0.0593  0.2090
84891W        W27882  25.702  24.549   7.764 -0.0242 -0.0355  0.0600
84892W        W27883   1.189  21.644   2.238 -0.0580  0.1597  0.2548
84893W        W27884   7.885  16.746   4.838 -0.0436 -0.2305  0.1820
84894W        W27885   5.870   4.212  18.656  0.1960 -0.0433 -0.4177
84895W        W27886  18.177   1.078   6.477  0.2040 -0.0535 -0.1105
84896W        W27887  11.226  16.998  25.257  0.2786 -0.1698  0.1924
84897W        W27888  10.508  26.201  26.884 -0.2488 -0.1304  0.2429
84898W        W27889   6.910   2.541   3.528  0.0581 -0.0377  0.4481
84899W        W27890  10.073  31.010  16.482 -0.0443 -0.0372  0.1405
84900W        W27891   5.427  17.813   6.205 -0.2997 -0.0413  0.0949
84901W        W27892   6.726  31.921   6.309 -0.2493  0.1649  0.3462
84902W        W27893  16.307  28.319  20.716  0.2979  0.0867  0.1195
84903W        W27894   9.333  28.187  11.146 -0.0336  0.2783  0.1316
84904W        W27895   9.710  23.467   7.939  0.0794  0.1147 -0.0697
84905W        W27896  20.661   7.656   9.738  0.0261 -0.0645  0.0414
84906W        W27897   8.421   9.339   9.083  0.0032 -0.1398  0.4066
84907W        W27898  15.917  30.170   6.888  0.1955  0.3888 -0.2086
84908W        W27899  30.692  26.378  24.605 -0.1670 -0.1847 -0.0563
84909W        W27900  17.593  34.770   9.547 -0.0613 -0.0468  0.3237
84910W        W27901  20.609   1.922  29.209 -0.0259 -0.2400  0.0626
84911W        W27902  31.741  24.708   4.206  0.2490  0.0846  0.3145
84912W        W27903  10.229  30.641  10.084  0.3175 -0.3074 -0.0486
84913W        W27904   6.492  27.484  25.083  0.3133  0.2285  0.2617
84914W        W27905  15.008   5.849   4.792  0.1770 -0.0438 -0.1548
84915W        W27906  16.477  34.410   7.876 -0.1152  0.0217 -0.2123
84916W        W27907  12.575  20.267  19.855  0.1349 -0.2109 -0.1781
84917W        W27908   0.690  26.828   7.527  0.4185 -0.0535 -0.2162
84918W        W27909   6.474  14.798  15.992 -0.1819 -0.2461  0.0718
84919W        W27910  18.365  33.953   4.161 -0.0386 -0.1755  0.0904
84920W        W27911  15.477  33.156  17.283 -0.0751  0.1828 -0.1041
84921W        W27912  16.210  31.900   4.758  0.0813 -0.1795  0.1186
84922W        W27913  32.020   0.879  15.112 -0.3793  0.0193 -0.0782
84923W        W27914  30.853  27.310   0.603 -0.1129  0.0041  0.1025
84924W        W27915   9.210  13.632   0.011  0.1209  0.0275 -0.0308
84925W        W27916  21.517  28.204  14.397  0.2264 -0.2798 -0.0181
84926W        W27917   6.516  28.922   6.945  0.0483 -0.1761  0.0345
84927W        W27918  19.119  26.453  24.117 -0.0320  0.1930  0.1913
84928W        W27919  29.976  13.800  23.940  0.1709 -0.1851 -0.0504
84929W        W27920  34.067   2.062   4.035  0.0643  0.0436  0.4930
84930W        W27921   3.051  25.247   1.364  0.1895  0.2216  0.0725
84931W        W27922  32.375  12.473  22.822  0.2093  0.0614  0.0090
84932W        W27923  15.043  23.457   5.461  0.0368  0.0476  0.0099
84933W        W27924   3.530  20.051  10.537  0.1285 -0.0713 -0.2455
84934W        W27925  21.291  29.582   6.051 -0.1672 -0.3792  0.1967
84935W        W27926   4.624  31.208  28.903  0.2757 -0.1621 -0.0270
84936W        W27927  20.307  18.819   6.827  0.1081  0.0158 -0.4447
84937W        W27928   2.213  28.320   4.788 -0.2348 -0.0314  0.0643
84938W        W27929  14.159  21.273   6.418  0.1612 -0.0437 -0.1791
84939W        W27930  11.153  34.499   7.144  0.1516 -0.1102  0.1125
84940W        W27931   4.339   3.098   8.589 -0.0459 -0.1098  0.1026
84941W        W27932   7.634  26.848   6.115 -0.3419  0.0435  0.1722
84942W        W27933  12.380   0.220  26.931  0.0445  0.2574 -0.2061
84943W        W27934  26.517  22.611   6.317 -0.4437 -0.0302 -0.3042
84944W        W27935   6.706   0.954  17.553  0.0823 -0.0836 -0.0910
84945W        W27936  14.801  21.283  13.445 -0.0414  0.4624  0.1491
84946W        W27937   9.323  28.613   7.797  0.1453  0.1566  0.1480
84947W        W27938  14.173  32.848   7.112 -0.0496 -0.1883 -0.2499
84948W        W27939   2.838  20.911   7.381 -0.1457  0.3323  0.3039
84949W        W27940  10.212  23.988  26.099 -0.0911  0.1609  0.0191
84950W        W27941   8.484  15.678   7.286  0.0424 -0.2173  0.3015
84951W        W27942  10.660  30.512   0.354  0.1441 -0.1178 -0.3130
84952W        W27943  12.371  16.456  25.967 -0.1271  0.0225  0.1601
84953W        W27944  22.479   8.262  15.957 -0.1549  0.0847 -0.2382
84954W        W27945   2.260  32.420   5.325  0.0331 -0.1410 -0.0246
84955W        W27946  29.293  30.471   7.058  0.2786  0.0795  0.2295
84956W        W27947   8.433  23.439   5.880  0.1395  0.2699 -0.1614
84957W        W27948   4.274  12.239  20.831  0.0154 -0.1522 -0.2727
84958W        W27949   0.555  18.184   9.360 -0.1875  0.2906  0.0398
84959W        W27950  12.778   9.669  23.576  0.4673  0.3701 -0.1860
84960W        W27951  31.826   7.853   7.937 -0.1753  0.0368  0.3840
84961W        W27952  10.819   9.117  10.468 -0.0615 -0.0563 -0.1550
84962W        W27953  11.510  19.969   9.322  0.0282 -0.2437 -0.0476
84963W        W27954  33.447   2.933   5.075 -0.4348  0.1472  0.3189
84964W        W27955  12.704   4.485   0.895  0.1133 -0.0665  0.4377
84965W        W27956   2.849  11.742  28.233  0.4758 -0.0672 -0.4098
84966W        W27957  31.747  28.175  24.213 -0.2201 -0.0002 -0.1339
84967W        W27958   3.704   5.297  10.909  0.0539 -0.0925  0.2222
84968W        W27959  14.569  19.794   2.831 -0.0832  0.1733 -0.2126
84969W        W27960  14.796   9.432  21.396 -0.3512  0.1977 -0.2262
84970W        W27961  31.975   2.598  27.494 -0.0997 -0.3310 -0.3642
84971W        W27962   1.279  20.412  21.332 -0.2901  0.2033  0.0485
84972W        W27963  14.599  27.042  26.799  0.0195  0.0289  0.1073
84973W        W27964  32.488   2.369   8.660 -0.5092 -0.1706 -0.0013
84974W        W27965  22.699  24.977   9.088  0.0062  0.1490  0.0676
84975W        W27966   9.504  28.322   2.923 -0.1954  0.2270  0.0211
84976W        W27967  10.592   3.326  28.815  0.2238 -0.1096  0.1364
84977W        W27968  17.421  11.675  19.995 -0.1014 -0.0914  0.1904
84978W        W27969  13.271  21.050  21.527 -0.0057  0.0734  0.3061
84979W        W27970  34.001   2.128  19.378  0.3135 -0.0813 -0.0632
84980W        W27971   2.609  32.360   2.502 -0.0532 -0.0335 -0.3839
84981W        W27972  20.895  24.091  26.571  0.0397 -0.4068  0.0985
84982W        W27973  13.005  22.277   9.358  0.0600  0.0555  0.2213
84983W        W27974   4.886  26.427   7.822  0.0771  0.0950  0.0144
84984W        W27975   9.938  30.887   7.695 -0.1897  0.0660  0.1009
84985W        W27976  25.116  27.043   4.838 -0.0980 -0.1891 -0.0389
84986W        W27977  21.766  34.126  27.993 -0.0962  0.0951 -0.3067
84987W        W27978   5.689   1.076   5.437 -0.0805 -0.0433 -0.0322
84988W        W27979  15.686  31.875  28.717 -0.1442  0.0717 -0.1668
84989W        W27980   7.114   3.400   5.302 -0.0456  0.1371 -0.1075
84990W        W27981  26.675   9.650   4.245  0.2478  0.1950 -0.3041
84991W        W27982  31.755  26.556   5.490  0.0832 -0.0151 -0.0591
84992W        W27983  31.439  32.478   1.944 -0.0157 -0.1710 -0.1595
84993W        W27984  10.919  31.722   6.439  0.0513 -0.0643 -0.2675
84994W        W27985   7.177  27.240   1.150 -0.1599 -0.0315 -0.4333
84995W        W27986  14.924  20.106   6.612 -0.2498 -0.2045 -0.0730
84996W        W27987   8.111   5.703  19.167  0.3075 -0.0071 -0.0515
84997W        W27988   7.297   3.522  26.936 -0.0313 -0.0544 -0.1501
84998W        W27989   9.863  34.744   4.359  0.0177 -0.0427  0.0761
84999W        W27990   9.413  29.434  25.533 -0.0324 -0.2267  0.1384
85000W        W27991  16.685   4.026   8.646 -0.0092  0.1974  0.1324
85001W        W27992  10.748  13.140   1.520 -0.2430  0.0265 -0.1562
85002W        W27993   6.270  25.229  29.213  0.3164 -0.0612  0.2049
85003W        W27994   6.851  14.249   9.679  0.0168 -0.1751 -0.0306
85004W        W27995  20.231  33.331   3.529 -0.0633 -0.4037  0.0096
85005W        W27996   1.622   5.040   2.403  0.0819  0.1423  0.1136
85006W        W27997  12.547  24.638  29.108 -0.0621 -0.1328  0.0466
85007W        W27998   6.570  20.491  26.148 -0.1525  0.0758  0.0741
85008W        W27999   8.604  15.406  14.913  0.0399 -0.1791  0.1366
85009W        W28000  19.325  10.854   6.494 -0.1264 -0.0848 -0.2644
85010W        W28001   6.896  22.712   7.545 -0.0090 -0.3419 -0.0794
85011W        W28002  32.532  31.730  27.483  0.0312  0.0781  0.1188
85012W        W28003  10.417  22.426   8.544  0.0558  0.0389 -0.0064
85013W        W28004   5.359  21.541   7.567  0.1950 -0.0823 -0.0130
85014W        W28005   9.278   8.796   3.646  0.1198 -0.0967  0.1059
85015W        W28006  16.808   0.875   3.667  0.1449  0.0004  0.0977
85016W        W28007   7.635   8.636  16.151  0.1143 -0.1084  0.3464
85017W        W28008   3.402  27.986  28.299  0.1256  0.0696  0.1162
85018W        W28009   7.997  24.485  14.658  0.0315 -0.0585 -0.0293
85019W        W28010   2.437  25.529  15.816 -0.1776 -0.0001 -0.0983
85020W        W28011  34.713  16.798   9.299 -0.0654  0.2002  0.1360
85021W        W28012   6.467  25.620  27.289  0.2894 -0.2747 -0.1809
85022W        W28013  14.955  33.670   6.846 -0.0604 -0.0639 -0.0365
85023W        W28014   5.390  26.355   5.156  0.0223 -0.0463 -0.0665
85024W        W28015   6.854  25.711   6.478  0.0255  0.1245 -0.0847
85025W        W28016  21.352  24.868  28.151 -0.0486  0.0065  0.3888
85026W        W28017  12.518  17.833  27.264  0.3393  0.0419 -0.2178
85027W        W28018  10.596  21.505   7.082 -0.0985 -0.2664  0.0423
85028W        W28019   0.250  12.570  26.399  0.2012  0.2176  0.0647
85029W        W28020  25.603  23.994  22.473  0.0739  0.0146  0.0678
85030W        W28021   4.932  24.168   7.978  0.0830  0.2053 -0.3370
85031W        W28022   9.066  27.829   6.611  0.1425  0.0105 -0.0104
85032W        W28023  11.465  31.895   7.993 -0.0152 -0.1776  0.4154
85033W        W28024  14.276   5.017   3.868 -0.0800  0.2018  0.2029
85034W        W28025   9.572   1.099  21.045  0.1709  0.1673  0.2433
85035W        W28026  32.767  18.554  27.036  0.0941  0.2098 -0.1680
85036W        W28027  12.370  26.654   8.715  0.0148 -0.0100 -0.3245
85037W        W28028  12.679  25.434  25.811  0.1312 -0.1100  0.1710
85038W        W28029  18.515  21.222   6.226  0.0009 -0.0720 -0.1207
85039W        W28030   3.327  23.736   4.427 -0.2644 -0.0398  0.0404
85040W        W28031  14.307  26.349   2.694 -0.0907  0.1184 -0.5977
85041W        W28032  22.804  21.707  28.884  0.2567 -0.1971  0.3904
85042W        W28033  17.998   4.071   7.480  0.0647 -0.0480  0.0552
85043W        W28034   6.837  27.636   6.681  0.1249 -0.1715 -0.2605
85044W        W28035   7.742  29.428   7.071 -0.0343 -0.0590  0.1336
85045W        W28036   6.149  18.470   7.415 -0.5031 -0.0872  0.1087
85046W        W28037  28.573   2.666   2.230 -0.0689  0.1326 -0.4632
85047W        W28038   4.991  26.408  23.233 -0.0330 -0.1397 -0.0635
85048W        W28039   1.647  19.240  23.021  0.0284 -0.0843  0.0077
85049W        W28040  32.144   3.249   5.907  0.2009  0.1836  0.0244
85050W        W28041  17.954  26.411   4.003  0.0413 -0.1103 -0.1256
85051W        W28042   4.751   3.014  23.663  0.4409  0.1001  0.2745
85052W        W28043   9.628   8.017   9.541 -0.1989 -0.3150  0.1952
85053W        W28044   7.936  29.929   4.639  0.1892 -0.2080  0.1245
85054W        W28045   3.225  16.342  11.312  0.1465 -0.0343  0.1198
85055W        W28046   9.414  34.346   1.681 -0.1005  0.1183  0.2586
85056W        W28047   3.946   0.141   6.175 -0.0026 -0.0821  0.0812
85057W        W28048  19.866  21.297  20.456  0.3089 -0.0363  0.1062
85058W        W28049  11.922  25.591  22.360 -0.2706  0.0416 -0.1817
85059W        W28050  10.107  27.302   5.765 -0.1848 -0.2454  0.0160
85060W        W28051  26.112  21.410   3.930  0.1412 -0.1587 -0.0156
85061W        W28052   5.938  33.527   4.724 -0.0121 -0.0883 -0.2436
85062W        W28053  32.324   2.606  23.722 -0.0558  0.0132  0.2158
85063W        W28054   7.788  24.952   3.360 -0.2232 -0.0578  0.2146
85064W        W28055   5.794   0.235   8.436  0.1517  0.0238  0.1310
85065W        W28056  11.559  19.225  24.112 -0.2290 -0.0405 -0.0904
85066W        W28057   7.851  21.830   2.573  0.0990 -0.0537 -0.0563
85067W        W28058  34.514  11.542   3.843  0.2872 -0.1702 -0.1173
85068W        W28059   9.995   0.802  15.685 -0.0288  0.3915 -0.3610
85069W        W28060   6.665  19.313   1.511  0.6204 -0.0508  0.1470
85070W        W28061   0.520   5.842   2.828  0.2569 -0.2900 -0.0449
85071W        W28062  16.977  22.305   6.348  0.0096  0.5492  0.1911
85072W        W28063  18.318  17.881   8.901 -0.0802  0.2227 -0.0684
85073W        W28064   2.676   2.881   2.626 -0.0790  0.4533 -0.0238
85074W        W28065  31.281   0.546   8.254 -0.2209 -0.1364  0.0445
85075W        W28066  14.310  30.995   7.177 -0.3398  0.0165 -0.3373
85076W        W28067  15.575  25.836   1.069 -0.5422 -0.2459  0.2031
85077W        W28068   2.881  34.774   3.417  0.1107 -0.0991  0.0877
85078W        W28069  27.719   9.534   0.436  0.0418  0.4306 -0.0376
85079W        W28070   0.076  28.258   2.711  0.0666 -0.2258 -0.0813
85080W        W28071   4.283  22.234  17.049  0.0615 -0.0057 -0.1439
85081W        W28072  34.315  20.761  20.329  0.0337 -0.1574  0.1162
85082W        W28073  10.064  19.708   0.385  0.2274 -0.1377  0.0147
85083W        W28074   8.497   4.052  10.439 -0.0852  0.2600  0.0016
85084W        W28075  23.544   7.273  26.242  0.1396 -0.0523  0.1133
85085W        W28076   8.622  32.750  18.900  0.1483 -0.2072 -0.0478
85086W        W28077   6.898  34.547  27.917 -0.1367  0.0424  0.0999
85087W        W28078  32.663   2.469   5.362  0.0233  0.0099 -0.0601
85088W        W28079  27.875  19.299  25.458  0.2481  0.2538  0.0029
85089W        W28080  28.051  27.874   5.013  0.0372  0.0987  0.1567
85090W        W28081  15.913  22.622   2.802  0.1321  0.0077 -0.1469
85091W        W28082   4.431  20.948   9.918 -0.1334 -0.2428  0.3572
85092W        W28083  21.734  28.672   1.321  0.1175  0.1686  0.0028
85093W        W28084   8.915  21.545   4.965 -0.0252 -0.0612  0.4666
85094W        W28085   7.272   2.015   2.039  0.1479 -0.0789  0.2925
85095W        W28086  22.135  17.641   8.802 -0.0035 -0.1917  0.0367
85096W        W28087  16.084  22.821   5.713  0.4583  0.0677  0.1091
85097W        W28088   5.519  30.543   0.262  0.1251  0.2878 -0.0720
85098W        W28089  18.169  17.602   5.388 -0.1897 -0.3180  0.0116
85099W        W28090  13.963  17.276   1.165  0.2231 -0.0443 -0.2758
85100W        W28091   6.036  19.735   8.810  0.0298 -0.0484 -0.1170
85101W        W28092   0.037  11.400   3.442 -0.1380 -0.0248 -0.2408
85102W        W28093   6.695   0.331   8.442  0.0917 -0.2614 -0.2811
85103W        W28094  15.211  14.882   0.516  0.2128  0.1991 -0.0122
85104W        W28095   0.765  32.880   3.412 -0.1280 -0.0825 -0.3100
85105W        W28096   2.008  20.741   2.589 -0.1696  0.1602 -0.2453
85106W        W28097  33.098  13.186   0.278 -0.1253 -0.0737 -0.0108
85107W        W28098  24.599  22.237  20.901 -0.3808  0.4595  0.0607
85108W        W28099  33.255  30.261  27.689  0.3393 -0.0529 -0.1995
85109W        W28100  16.171   1.979  26.040 -0.1649  0.1983 -0.0111
85110W        W28101   4.514   1.207  10.882  0.0764 -0.2897 -0.0300
85111W        W28102   4.652  32.929   3.722  0.0534 -0.0419  0.0752
85112W        W28103  12.404  26.985   4.311  0.1610  0.0866 -0.3900
85113W        W28104  18.187  24.121  23.914  0.2454 -0.0607  0.4326
85114W        W28105   5.018  29.282   7.069 -0.0301  0.1922  0.1180
85115W        W28106   4.634  17.412   8.849 -0.1513  0.2513  0.2432
85116W        W28107   1.568  26.268  25.157  0.0094  0.2109 -0.1318
85117W        W28108  34.591  31.705   2.875  0.1301 -0.0488 -0.3230
85118W        W28109  14.040  24.297   2.644  0.2405 -0.1123  0.2977
85119W        W28110  19.974  30.217   8.574 -0.0164 -0.0280  0.0384
85120W        W28111  16.831  31.752   3.827 -0.0039  0.0601  0.0467
85121W        W28112   4.444  18.486   9.931  0.0508 -0.2078 -0.1619
85122W        W28113  10.483  21.132   6.286  0.3039 -0.0080  0.3795
85123W        W28114  31.806  30.122   5.376 -0.2518 -0.3600 -0.1075
85124W        W28115   8.138  10.477   0.301  0.1674 -0.0086 -0.0970
85125W        W28116   4.164   8.671   4.672  0.0002  0.0424  0.1686
85126W        W28117  33.760  31.296   5.128 -0.0290  0.1698  0.2551
85127W        W28118   7.757   2.250   3.441  0.1332 -0.0652 -0.0278
85128W        W28119  25.193  33.671  25.575  0.0431 -0.1624  0.2624
85129W        W28120   0.804  30.859   8.367 -0.0136 -0.1777  0.3126
85130W        W28121   2.589  32.494   3.026  0.1314 -0.3351 -0.1218
85131W        W28122  10.995  30.452   1.505  0.2010  0.1018 -0.1403
85132W        W28123   6.680  20.062   8.974 -0.0355 -0.0567 -0.0648
85133W        W28124  29.623  32.986  13.942 -0.0813 -0.0392  0.0189
85134W        W28125  22.442  19.049   0.752 -0.2445  0.0801 -0.0343
85135W        W28126  18.549  32.595   8.125  0.0143 -0.0646 -0.3702
85136W        W28127   0.838   2.285   7.831  0.1902  0.1539  0.1881
85137W        W28128   0.734  21.972   3.067  0.1734  0.0461 -0.0883
85138W        W28129  29.692  18.591  19.383  0.2682  0.0681  0.2992
85139W        W28130   7.999  31.295  27.904 -0.0943  0.2622  0.0010
85140W        W28131  20.635  21.145   4.307 -0.1526  0.2707 -0.2472
85141W        W28132  19.159  24.176   3.811  0.1411  0.2185  0.4783
85142W        W28133  14.065  23.647   2.700 -0.4801  0.1081  0.0318
85143W        W28134  13.755   9.158  21.745 -0.1175  0.0779  0.1476
85144W        W28135   2.457  33.213  25.667 -0.0932 -0.0103 -0.2050
85145W        W28136   5.186   2.766  26.209  0.2312 -0.1802 -0.1313
85146W        W28137  20.230  20.479   0.188  0.1324 -0.1759 -0.1774
85147W        W28138   4.719   3.965  28.215  0.0002  0.2196 -0.0693
85148W        W28139   9.006  31.858   5.089  0.1742  0.4153 -0.0733
85149W        W28140  32.554   0.258  26.216 -0.0790 -0.0249  0.1921
85150W        W28141  21.718  26.814   8.179  0.1214 -0.1467 -0.1165
85151W        W28142   4.061  22.921   6.082  0.0127  0.3147 -0.2697
85152W        W28143  11.352  21.602   3.997  0.0631 -0.0651  0.0038
85153W        W28144  30.805  19.349  27.443  0.0399  0.0420 -0.0411
85154W        W28145   1.409  21.929  27.146  0.0171  0.0355 -0.0776
85155W        W28146   6.695  24.802  26.933  0.3167  0.1440 -0.1706
85156W        W28147  27.819  23.789   5.094 -0.2549 -0.2544 -0.0312
85157W        W28148  22.268  28.487   7.889  0.1056  0.0918  0.3092
85158W        W28149  26.581   4.063   6.945 -0.1966  0.1704  0.2693
85159W        W28150   3.797  12.855  23.290 -0.0988  0.2295 -0.4564
85160W        W28151   1.825  21.380   3.906  0.3359  0.4158 -0.1905
85161W        W28152  28.352  29.853  29.021  0.1719  0.1447  0.2634
85162W        W28153  17.897  26.185   5.509 -0.2833 -0.3620  0.1098
85163W        W28154  27.771  22.061   7.441 -0.0250  0.2366 -0.2058
85164W        W28155   5.240  24.343   9.688 -0.1722  0.1024 -0.0529
85165W        W28156   7.453  28.333  27.008 -0.2595  0.2100  0.0703
85166W        W28157  21.361  31.211   8.615 -0.0702 -0.6443 -0.0651
85167W        W28158  24.614   7.695   0.516 -0.3440 -0.1558  0.1662
85168W        W28159  33.583  24.968   4.024  0.0826 -0.3350 -0.2380
85169W        W28160  13.242  22.689   0.342  0.0918 -0.1426  0.0479
85170W        W28161   5.186  11.613   8.813 -0.2412 -0.3077 -0.2192
85171W        W28162  13.999  12.180   3.367  0.3624  0.1427 -0.0570
85172W        W28163  18.174  23.082  26.052  0.3766  0.1186  0.2581
85173W        W28164   3.550  29.065   7.133 -0.4464  0.0131 -0.1290
85174W        W28165  17.242  20.039  27.047 -0.0219  0.0161  0.1268
85175W        W28166  13.536  15.214   2.463 -0.0363  0.0508  0.2578
85176W        W28167   9.866   2.489   1.889  0.0489 -0.0912  0.1759
85177W        W28168  16.265   6.832   0.134 -0.2214  0.2632  0.0200
85178W        W28169   5.059  23.803   4.244  0.1949 -0.3453  0.1975
85179W        W28170  12.958  31.686  19.895  0.1837  0.4021  0.2517
85180W        W28171   1.645  28.470  22.764  0.0853  0.0436  0.0384
85181W        W28172  22.070  22.288   1.642 -0.1576 -0.0862 -0.1102
85182W        W28173   3.045  31.027   0.626  0.1854 -0.1829  0.0457
85183W        W28174  21.767  13.257   8.630 -0.1987 -0.0956 -0.2632
85184W        W28175  19.090  30.725   5.867 -0.1185  0.0338  0.0380
85185W        W28176  11.531  17.857   5.975 -0.0240  0.0058  0.0793
85186W        W28177  20.574  17.991  24.696 -0.0501  0.0368  0.0731
85187W        W28178   4.625  28.440  27.869  0.1094 -0.3057  0.1000
85188W        W28179  21.093  30.194  28.773 -0.1231 -0.0001 -0.3081
85189W        W28180   2.552   0.022   9.521  0.0512 -0.4770 -0.0048
85190W        W28181  21.970  29.465   3.063 -0.0388  0.2736  0.0983
85191W        W28182  11.702  10.376   3.028  0.2091  0.2641 -0.1748
85192W        W28183  11.325   7.855  18.990  0.1162  0.1733 -0.0746
85193W        W28184  27.326  19.360   5.850 -0.0156  0.1458  0.0428
85194W        W28185  24.756  29.337   6.253 -0.0525  0.3613  0.0235
85195W        W28186   0.962  32.788  26.143 -0.0617 -0.0298  0.2245
85196W        W28187   9.706  19.295   7.820  0.2455 -0.1655  0.2328
85197W        W28188  13.120  30.450   1.373  0.1363  0.0750 -0.1018
85198W        W28189  21.139  23.009   1.412 -0.1460  0.0602 -0.1931
85199W        W28190   5.040   5.803  28.426  0.2290  0.2335  0.0738
85200W        W28191   8.320  26.908   7.192  0.0241  0.2922  0.0327
85201W        W28192   3.595  31.948   8.142 -0.2932  0.0083  0.1939
85202W        W28193   3.838   5.530  26.392 -0.1561 -0.0816  0.0600
85203W        W28194  32.647  33.481   7.509 -0.0586  0.1918  0.0004
85204W        W28195  27.493  12.116  24.520  0.0319  0.1581  0.0987
85205W        W28196   8.449   9.139  28.863  0.2153 -0.1534  0.0317
85206W        W28197  29.650   7.680  27.380  0.0070 -0.1372  0.0316
85207W        W28198  32.242  24.415   8.148  0.0536 -0.2306 -0.4044
85208W        W28199  27.412  29.107   3.765 -0.1455  0.1163  0.0676
85209W        W28200  25.425  15.326  28.633  0.0450  0.0990  0.0672
85210W        W28201  13.195   6.083   5.058  0.0957 -0.0632  0.1837
85211W        W28202   1.270  33.744   2.733 -0.0354 -0.3227 -0.2537
85212W        W28203   6.251  25.535   9.418  0.2398 -0.3175 -0.2776
85213W        W28204   9.376  20.225   9.364  0.1605  0.0375 -0.2683
85214W        W28205  21.132   5.597  23.323 -0.1831 -0.3924 -0.1505
85215W        W28206  22.045   5.981   1.058 -0.1733  0.3581 -0.1646
85216W        W28207   2.170  28.912  19.531 -0.0120  0.4689 -0.1787
85217W        W28208  15.946   5.855  10.851 -0.0770  0.1441 -0.3031
85218W        W28209  16.788  18.570  27.408  0.0515 -0.0896 -0.1516
85219W        W28210  17.222  26.880   3.511 -0.3361 -0.1192  0.0827
85220W        W28211  19.574  26.376   5.817 -0.1049 -0.0808 -0.0206
85221W        W28212  14.555  33.311  23.014 -0.0894 -0.0774 -0.1337
85222W        W28213   4.913  20.121  21.144  0.0010 -0.1122  0.1370
85223W        W28214  15.621  11.117   2.992 -0.3451 -0.2888  0.1763
85224W        W28215  13.231   7.744   8.617 -0.1492  0.3547  0.2133
85225W        W28216   9.708  31.431   3.265 -0.4506 -0.2031 -0.0707
85226W        W28217  23.766  30.257   8.560 -0.3410  0.2990 -0.0987
85227W        W28218  21.583  20.202  23.678  0.1524 -0.1743 -0.0788
85228W        W28219   4.026  28.259   7.793  0.2148 -0.1718 -0.0050
85229W        W28220  20.875  16.543   1.579 -0.1245  0.1136 -0.2157
85230W        W28221   6.499  33.809   7.271  0.0043 -0.2074  0.1213
85231W        W28222  19.825  22.658   6.887 -0.0610 -0.2896 -0.2432
85232W        W28223  23.162  30.202   6.711 -0.1097  0.3214  0.1927
85233W        W28224  34.756  19.841   6.828 -0.2393 -0.4394 -0.1752
85234W        W28225  28.887  20.009   2.747  0.0951  0.2113 -0.1139
85235W        W28226   0.055  13.161  28.456 -0.0725  0.3626  0.0616
85236W        W28227  32.625  17.000   0.943 -0.1880  0.2786 -0.0180
85237W        W28228  32.374  14.180  27.852  0.0094 -0.1013 -0.1441
85238W        W28229  12.708  31.649   4.966  0.0286 -0.0342  0.0617
85239W        W28230  13.574  30.584   5.001 -0.1008  0.1713  0.1117
85240W        W28231   9.911  21.810   0.296  0.0348 -0.1217  0.0781
85241W        W28232  18.490  16.842   3.949  0.0141  0.2115  0.2805
85242W        W28233  12.828  11.958   4.537  0.4965  0.1020 -0.0767
85243W        W28234   3.288  15.313   3.735  0.1785  0.1596  0.1820
85244W        W28235  16.875  23.762  28.194  0.0741 -0.2015 -0.2712
85245W        W28236   7.238   4.243  24.186  0.1992 -0.0567  0.1365
85246W        W28237  13.039  33.728  27.590 -0.1736 -0.3327 -0.2105
85247W        W28238   5.067   8.487   2.491 -0.0548 -0.0928  0.0375
85248W        W28239  22.888  20.469   7.296  0.1937 -0.2105  0.0368
85249W        W28240  34.373   2.439   2.469  0.2395 -0.1974 -0.1863
85250W        W28241  34.641  29.604  26.424  0.1127 -0.0093  0.3055
85251W        W28242  10.071  20.355  28.621 -0.0073 -0.4528 -0.2228
85252W        W28243  20.853   7.549  23.324  0.0891  0.1788 -0.0256
85253W        W28244  34.622  24.976   0.414 -0.1525 -0.0109 -0.5043
85254W        W28245   7.254   0.910  23.623  0.1746 -0.2203  0.0041
85255W        W28246   2.691  27.423   3.246 -0.0323 -0.0142  0.0204
85256W        W28247   9.333  11.496   1.262 -0.0884  0.2689  0.0642
85257W        W28248  24.071  28.630   6.085 -0.2665  0.1837 -0.2454
85258W        W28249  18.658  18.092   6.874  0.4834 -0.4519  0.1316
85259W        W28250  24.761   3.038   7.508  0.1491 -0.3410 -0.0894
85260W        W28251  22.072  25.513   6.863  0.1157 -0.0734 -0.0184
85261W        W28252   4.466  26.106   7.525  0.0297 -0.0670 -0.1295
85262W        W28253   5.664  19.829  22.829  0.0346 -0.1067  0.1019
85263W        W28254   4.937  21.083   9.930  0.1401 -0.2460 -0.0140
85264W        W28255   2.122  33.231  28.993  0.2421  0.1493 -0.0412
85265W        W28256   4.679   7.512   3.977  0.3614 -0.2000  0.0112
85266W        W28257  11.196  12.238  11.311 -0.1617  0.0046  0.1353
85267W        W28258   1.070  29.684   9.101  0.0885  0.0170 -0.2389
85268W        W28259  14.661  18.172   9.523 -0.2564 -0.2843  0.2954
85269W        W28260  33.369   3.234   1.023  0.2100  0.1131 -0.0393
85270W        W28261   3.536  14.726  11.213  0.1591  0.2262  0.1360
85271W        W28262  10.018   1.935   0.700  0.2818 -0.0791  0.1113
85272W        W28263  13.339   4.337   8.566  0.0771 -0.1986  0.0554
85273W        W28264  12.596  30.291  10.544 -0.0438 -0.2346  0.0896
85274W        W28265   6.275  19.365   8.524 -0.0674 -0.3586  0.0300
85275W        W28266  34.227  18.841  23.597 -0.1478 -0.1054 -0.1837
85276W        W28267  32.521  22.118   7.417  0.0912  0.0904  0.2550
85277W        W28268  32.574  28.339   8.477  0.2845 -0.0310 -0.0350
85278W        W28269   1.649  12.433   5.471  0.0677 -0.2810  0.0114
85279W        W28270  12.299  19.161   7.797 -0.2067 -0.1482  0.0327
85280W        W28271  30.990  15.244   9.056 -0.2928  0.0426  0.2584
85281W        W28272  27.752  23.445  28.407 -0.1647 -0.2691  0.0662
85282W        W28273   0.857  13.810  10.657 -0.1277 -0.1168 -0.3318
85283W        W28274   8.885  24.501   1.117  0.1634 -0.0812  0.2412
85284W        W28275  15.730  28.084   6.456 -0.1083  0.3986 -0.2983
85285W        W28276  12.480  24.788   8.482  0.1316 -0.0985  0.3282
85286W        W28277  17.571  29.166   8.302  0.0277  0.2651  0.2325
85287W        W28278  33.182  29.136   8.311  0.2268 -0.0114 -0.0962
85288W        W28279  10.992   7.308   7.546  0.3363  0.3568 -0.0892
85289W        W28280   1.613  25.335   4.279 -0.1052  0.2655 -0.0342
85290W        W28281   2.906  17.732   4.617 -0.0519  0.0342  0.2095
85291W        W28282  14.356  22.181   8.445  0.3959  0.2438 -0.1169
85292W        W28283  19.892  11.523  25.443  0.0916  0.1587  0.3164
85293W        W28284  17.149  17.659   6.317  0.1851 -0.2393 -0.0134
85294W        W28285  32.158  32.582  29.080 -0.2261  0.1752 -0.2152
85295W        W28286  12.016  22.027   5.333  0.2128 -0.0325  0.2798
85296W        W28287   5.332   1.543   9.659  0.4678 -0.2431  0.2392
85297W        W28288   6.431  22.461   3.168  0.3310 -0.2522 -0.3977
85298W        W28289  33.402  30.437   1.091  0.2194  0.1635 -0.1709
85299W        W28290  10.301  31.156   6.129 -0.2572  0.1975 -0.1897
85300W        W28291  12.359  20.590   6.931 -0.1290  0.1782 -0.2436
85301W        W28292   7.159  18.703   0.046 -0.3125 -0.2584  0.0540
85302W        W28293  16.291  34.421   4.171  0.2204  0.4442  0.2543
85303W        W28294  11.388  16.644  26.158  0.0674 -0.1283  0.0690
85304W        W28295  13.993   8.589   2.047 -0.2148  0.2521 -0.1442
85305W        W28296   0.890  29.284   2.194  0.4252  0.0915 -0.1637
85306W        W28297   7.833  34.147  27.363  0.0788  0.0125  0.0097
85307W        W28298  16.982  20.813   0.931 -0.1895 -0.2291 -0.1612
85308W        W28299  14.319  32.807  15.453  0.1683 -0.0571 -0.1359
85309W        W28300  14.394   8.417   9.465 -0.0716 -0.2599  0.0717
85310W        W28301  33.780  27.687   1.528 -0.1504  0.2604  0.0087
85311W        W28302  14.156  31.936   6.184 -0.0880 -0.1247 -0.1279
85312W        W28303   3.491  19.500   4.252 -0.2148 -0.3411  0.1985
85313W        W28304   4.902  29.378   7.924  0.0354  0.0266 -0.0691
85314W        W28305   6.765   8.775  27.998 -0.1947 -0.0925 -0.0257
85315W        W28306  27.206  28.975   5.317  0.2256 -0.2515  0.1099
85316W        W28307  10.607   3.557   0.120  0.1517 -0.4964 -0.1275
85317W        W28308  12.839  18.801   5.943 -0.0175  0.2387 -0.1115
85318W        W28309   3.229  27.364   3.034 -0.0438 -0.1258 -0.2656
85319W        W28310  24.610   1.061   8.542  0.2304  0.3637  0.0414
85320W        W28311  25.291  31.222  16.217 -0.1064  0.0178 -0.0447
85321W        W28312  18.519  28.261  10.184 -0.0213  0.0249  0.1708
85322W        W28313  22.078   1.549   3.021 -0.3434  0.2502 -0.1133
85323W        W28314   9.697  18.341  28.779 -0.1932  0.0937 -0.0546
85324W        W28315  14.055   5.399   6.939  0.1045 -0.0245  0.0339
85325W        W28316  10.543  14.607   3.227 -0.0129 -0.0371  0.1911
85326W        W28317  32.100   1.992   8.984  0.0533  0.3684 -0.1771
85327W        W28318   6.796  34.119  15.795 -0.0972  0.0855 -0.4321
85328W        W28319   4.485  10.806   3.637 -0.3179  0.0292 -0.1232
85329W        W28320  10.612  28.046  25.662  0.1414 -0.1794  0.1277
85330W        W28321  10.773  33.746   6.669 -0.0219  0.1572 -0.0025
85331W        W28322   5.811  19.929   9.929 -0.0304 -0.1307  0.0194
85332W        W28323   4.345  11.025   9.813  0.1206 -0.2444 -0.2080
85333W        W28324  15.141  14.181  24.406  0.0857  0.0697 -0.2542
85334W        W28325   3.076  32.290   7.446 -0.5267  0.1264 -0.0226
85335W        W28326  16.481  32.098  27.295 -0.2444  0.4576  0.1681
85336W        W28327  12.032  24.499   4.758 -0.3369  0.0711 -0.3600
85337W        W28328  19.877  28.705  26.598  0.1367 -0.2080 -0.3133
85338W        W28329   4.712  33.870   9.517  0.1178  0.2402  0.0405
85339W        W28330  12.807   4.693   9.169  0.1944  0.0804  0.1236
85340W        W28331   8.642  23.619   2.669  0.1891 -0.1375 -0.0731
85341W        W28332  15.974  31.702   7.124  0.0593 -0.0402  0.0128
85342W        W28333  22.513   9.439   8.972 -0.1014  0.0268 -0.0590
85343W        W28334  15.814  27.184   6.609 -0.2031 -0.0953 -0.2230
85344W        W28335  20.723   1.704  25.776 -0.1278 -0.0605  0.0602
85345W        W28336   2.641   7.317  27.556  0.0735 -0.0947 -0.3563
85346W        W28337   5.608  30.261  24.721  0.0228 -0.1317 -0.0051
85347W        W28338   0.362  13.762   8.539  0.0386  0.1007  0.2090
85348W        W28339   5.376  17.526   2.933 -0.0820  0.0786  0.1631
85349W        W28340  14.478  19.500   0.173 -0.0727  0.1349  0.0530
85350W        W28341   9.928  26.294   8.539  0.0961 -0.2477 -0.1150
85351W        W28342   0.410  20.920   5.022  0.3619 -0.0213 -0.0998
85352W        W28343  23.368  16.016   3.496  0.0190 -0.2529  0.0756
85353W        W28344  17.804   0.292   0.388  0.3064 -0.3168  0.2113
85354W        W28345   7.789  21.424  27.666  0.0524 -0.0444  0.2370
85355W        W28346  33.482  21.393   4.154 -0.0521 -0.1181  0.0477
85356W        W28347  21.235  18.703   6.394  0.2271 -0.2803 -0.1992
85357W        W28348   9.084  31.184  19.991 -0.1587 -0.0205 -0.1444
85358W        W28349  13.827  29.020  23.101  0.1723 -0.0374  0.2162
85359W        W28350   8.432   2.538  28.096 -0.0802 -0.0313 -0.3336
85360W        W28351   6.254  26.577   6.424 -0.3458  0.1091 -0.1655
85361W        W28352   0.270  14.631   6.861  0.1130 -0.1444  0.0925
85362W        W28353  32.582  14.991   0.137 -0.0924 -0.1957  0.1354
85363W        W28354  22.505  33.259   3.934  0.0733  0.0104  0.0457
85364W        W28355   1.085  31.014   3.699 -0.2267  0.0881 -0.0108
85365W        W28356  13.814   7.602  29.243 -0.1443  0.0277 -0.1340
85366W        W28357  26.408  23.540   4.953 -0.5106 -0.2893  0.0509
85367W        W28358   8.774  33.191   1.712  0.0387 -0.0133  0.1960
85368W        W28359   9.874  30.221   6.469  0.1970 -0.1754  0.1900
85369W        W28360   0.865   2.354   3.889 -0.2007 -0.0161  0.1604
85370W        W28361  33.659  28.641  28.965  0.1797  0.2741 -0.0458
85371W        W28362   5.415  16.561  24.107  0.1180  0.2265  0.0336
85372W        W28363  33.515  32.383   8.896  0.4039 -0.2569  0.2068
85373W        W28364  34.529   5.697  17.710 -0.0349 -0.0099 -0.1934
85374W        W28365  21.356  24.134   3.358  0.4142  0.1005 -0.0779
85375W        W28366   9.009  31.655  24.433  0.0473  0.0087  0.2739
85376W        W28367  10.766  28.490   2.031  0.1415 -0.1952  0.1957
85377W        W28368   8.526  26.509   4.735  0.1936 -0.2654  0.1832
85378W        W28369   5.531  28.976   2.327 -0.0621 -0.0331 -0.3659
85379W        W28370   9.456  21.609   2.682  0.1164  0.2113 -0.1559
85380W        W28371   4.230  30.518  27.105 -0.2229 -0.1325  0.1480
85381W        W28372  31.359  18.814   3.644 -0.0301 -0.2246  0.2758
85382W        W28373  13.208  17.964  20.099  0.0457 -0.1377 -0.0698
85383W        W28374   7.391  34.322   6.326 -0.0326 -0.1116  0.1836
85384W        W28375   1.867  26.382  27.015  0.1644  0.5040  0.0913
85385W        W28376   9.177  29.099   9.547 -0.2711 -0.1164  0.0128
85386W        W28377   7.249  15.542  22.534  0.1678 -0.1477 -0.1451
85387W        W28378  29.381   5.468   1.409  0.0249 -0.1403  0.0587
85388W        W28379   0.296  18.617   5.767 -0.2416 -0.0749 -0.2355
85389W        W28380  27.155  19.290   0.447 -0.0183  0.0011 -0.0105
85390W        W28381   4.571   5.968  24.627 -0.1223  0.0941 -0.0715
85391W        W28382  10.265   2.859  17.892  0.3691  0.1232  0.1720
85392W        W28383   7.989  34.716   0.851 -0.1829 -0.1214 -0.3465
85393W        W28384   1.382  14.534   2.806  0.1515 -0.1029 -0.2168
85394W        W28385  33.656  29.979   0.967  0.0815 -0.3474 -0.1768
85395W        W28386  32.375  19.480   1.721  0.1827 -0.2612 -0.0349
85396W        W28387   5.086  19.808   4.573 -0.2298  0.0412  0.0687
85397W        W28388  34.660  21.103  21.710 -0.2693 -0.0308  0.0644
85398W        W28389   3.793  16.731  22.175  0.0887 -0.1851  0.1399
85399W        W28390   6.068  21.690  28.794  0.0125 -0.0407 -0.1137
85400W        W28391   2.711  22.637   6.819 -0.2425  0.2093  0.0315
85401W        W28392  33.088  28.462   6.246 -0.1927 -0.3231  0.0466
85402W        W28393  32.965  11.496   3.925 -0.0117  0.0861 -0.0457
85403W        W28394   7.067  18.502   3.795  0.0445  0.2639  0.0759
85404W        W28395  21.897  14.909   1.278  0.0729 -0.1461 -0.1218
85405W        W28396   6.418  20.512   8.856  0.0260 -0.2044  0.1235
85406W        W28397  11.960   9.054   4.152 -0.3550  0.0596  0.1652
85407W        W28398  15.329  31.028  10.207  0.1308  0.2035  0.2111
85408W        W28399  31.083  26.940   6.919  0.1417  0.0981 -0.3089
85409W        W28400  20.385   0.569   5.875 -0.2095 -0.1170  0.1578
85410W        W28401   3.028  20.927  24.312  0.1007 -0.0165  0.0954
85411W        W28402  16.252  27.731   8.181  0.0982  0.3127 -0.2244
85412W        W28403  16.570  11.964   6.399  0.1214  0.1611  0.2524
85413W        W28404  18.149  10.284   6.738  0.0160  0.0113  0.1363
85414W        W28405  12.366  34.289   7.249  0.0137  0.1594 -0.0586
85415W        W28406  12.544   3.194  11.426 -0.3001 -0.1556  0.2449
85416W        W28407   1.425   3.488   0.009 -0.0384 -0.2531 -0.0191
85417W        W28408  24.125  22.900   9.208 -0.3834  0.0247  0.1595
85418W        W28409  18.436  14.070   7.645  0.0667 -0.2237 -0.0043
85419W        W28410   8.252  19.988  11.097 -0.1773  0.0694 -0.1891
85420W        W28411  13.378  24.691   8.400  0.2185 -0.0803 -0.2122
85421W        W28412  13.312  18.584  22.224  0.0326 -0.1065 -0.0830
85422W        W28413   3.129   9.070   5.638 -0.1814  0.0533 -0.1757
85423W        W28414  15.749   7.307   7.089 -0.0897  0.1936  0.0728
85424W        W28415  15.961  16.693  28.508  0.0058 -0.0122  0.1277
85425W        W28416   7.812  32.519   7.949  0.1317  0.0355 -0.3201
85426W        W28417  12.746  25.750   2.406 -0.0789  0.2128 -0.4943
85427W        W28418   1.514  31.509   5.832  0.0338  0.1015  0.0103
85428W        W28419   9.185  30.694   9.177 -0.1422 -0.1203  0.1581
85429W        W28420  22.723  31.291   9.588  0.0831  0.1684 -0.1175
85430W        W28421   2.147   1.424  25.454 -0.1531 -0.2996 -0.1742
85431W        W28422   7.899  27.417   4.321 -0.2027  0.0397  0.1443
85432W        W28423  16.647  26.005   7.855 -0.4008 -0.1662  0.2308
85433W        W28424  14.354  33.087   8.291 -0.4377  0.1731 -0.2293
85434W        W28425  28.252  13.184   0.873  0.3838  0.0217 -0.2158
85435W        W28426  13.609  16.078  25.219  0.0593  0.1346  0.1376
85436W        W28427   7.847  32.166   0.872  0.1120 -0.4199  0.1635
85437W        W28428   9.146  25.620  24.182 -0.1000 -0.1826 -0.2226
85438W        W28429  29.344  19.675   4.799 -0.1750 -0.3554 -0.1548
85439W        W28430   6.079  24.696   3.875  0.1447 -0.2185  0.0261
85440W        W28431  31.230  25.120  10.031  0.4263  0.0344  0.2277
85441W        W28432   9.155  17.779  21.946  0.2377  0.0679 -0.0848
85442W        W28433  15.007  32.283   6.303  0.0149 -0.1269 -0.0874
85443W        W28434   6.666  22.189  20.438 -0.2399  0.1474  0.3027
85444W        W28435   6.988  24.180  25.364  0.3449 -0.1273 -0.1143
85445W        W28436  23.654  23.151  16.188  0.4309 -0.1534  0.1006
85446W        W28437  13.644  21.343  29.044 -0.0140  0.1623  0.1278
85447W        W28438   9.695  20.350   0.852  0.1808  0.1807  0.2956
85448W        W28439   2.925   2.810  23.366 -0.0685 -0.0230 -0.1872
85449W        W28440  24.890  27.854   0.572  0.0331 -0.1152  0.0264
85450W        W28441  34.007  20.513   7.169 -0.1660 -0.2277 -0.2066
85451W        W28442   4.702   1.436  28.840 -0.1773  0.2179 -0.0213
85452W        W28443   2.933   7.613  28.268 -0.0507 -0.1278  0.1048
85453W        W28444   5.457  23.748   6.634 -0.0483  0.1975 -0.3002
85454W        W28445  13.995  28.504  27.802  0.1511 -0.1329  0.2606
85455W        W28446   1.868  13.191  11.138  0.3690  0.0492 -0.3857
85456W        W28447  13.408  12.645   8.003  0.2523  0.0391  0.1202
85457W        W28448   5.019  19.486   3.111 -0.0267 -0.1829 -0.1024
85458W        W28449  15.467  20.786   5.636  0.0353  0.0234 -0.2186
85459W        W28450  11.836  25.816   0.100  0.2020  0.1807 -0.1187
85460W        W28451   4.311  32.107  28.772  0.3238  0.2688  0.0153
85461W        W28452   0.540  16.253  26.853  0.1262  0.2577 -0.3627
85462W        W28453  13.859  16.886  27.847 -0.2129  0.3099 -0.0773
85463W        W28454   9.053  25.985   7.471 -0.1124 -0.2118 -0.0630
85464W        W28455   4.309  18.910   4.045  0.1531 -0.1091 -0.2524
85465W        W28456  19.638  29.498   5.996  0.1575  0.0280 -0.1660
85466W        W28457  17.072   1.839  10.140  0.1623 -0.0902  0.1100
85467W        W28458   7.971  31.519   0.767  0.0904  0.0626  0.1254
85468W        W28459   1.244  27.333  27.752 -0.1731  0.1850  0.0539
85469W        W28460  13.402  13.600   8.846  0.0226  0.0590  0.3689
85470W        W28461  13.992  22.686   9.675 -0.0549 -0.2684 -0.0777
85471W        W28462  11.677  31.951   3.486  0.0693 -0.1869  0.0719
85472W        W28463  19.557  20.514   4.878 -0.1172  0.2744  0.1900
85473W        W28464   9.872  18.775  28.994  0.1862 -0.0861  0.1320
85474W        W28465   1.541  27.511   8.953  0.1541  0.1309  0.2303
85475W        W28466  28.398  17.426   1.937  0.2629  0.2105 -0.1672
85476W        W28467   4.602  16.000   3.214  0.0595 -0.3982 -0.0774
85477W        W28468  14.430  17.648  26.697 -0.2600 -0.0960 -0.2083
85478W        W28469   4.748  15.191   8.881 -0.0013  0.0964 -0.5278
85479W        W28470   7.684  22.579   4.275  0.3181  0.1850 -0.2678
85480W        W28471   2.609   4.108  27.686 -0.0358  0.2238 -0.2207
85481W        W28472  17.266  34.307   1.925  0.0036  0.0655  0.3033
85482W        W28473  12.649  31.181   3.270 -0.2316  0.1790  0.1366
85483W        W28474   4.246   3.683   4.230  0.2291 -0.2065  0.3973
85484W        W28475  14.859  28.989  27.137  0.0969  0.1098  0.1089
85485W        W28476  32.624  32.378   9.024 -0.0576 -0.0970  0.0063
85486W        W28477  32.276   3.782  25.862  0.1288  0.1046 -0.0647
85487W        W28478   9.660  29.460  15.872  0.0748 -0.0810  0.2115
85488W        W28479   2.569  24.013   6.782  0.0897 -0.2855 -0.0545
85489W        W28480   4.226  17.163  24.228  0.0734  0.0061  0.0665
85490W        W28481  31.663   4.588  25.958  0.0836 -0.1431  0.1533
85491W        W28482  14.324  33.248   4.122  0.1842 -0.0743 -0.5152
85492W        W28483   7.813  24.826  23.523 -0.1381  0.3275 -0.2148
85493W        W28484   4.540   8.373   0.049  0.0187 -0.1981  0.0717
85494W        W28485  31.518  34.471   5.775 -0.1102  0.0569  0.0027
85495W        W28486  31.419  26.919   4.570  0.1270 -0.4355  0.1477
85496W        W28487  12.615  16.302  20.129 -0.1230 -0.2428  0.1955
85497W        W28488   4.586   7.450   4.986 -0.0906 -0.2339  0.1321
85498W        W28489  27.981  28.424   3.431  0.1914 -0.0694 -0.0800
85499W        W28490   2.725   2.600  10.041 -0.2116  0.1206  0.0285
85500W        W28491   7.073  23.106  27.084  0.1803 -0.0711  0.2679
85501W        W28492  19.942  30.031   6.569  0.3619 -0.2236 -0.4610
85502W        W28493   2.987  28.379   8.985  0.3091 -0.1555  0.1306
85503W        W28494  20.344   5.934   9.385  0.1389 -0.2162 -0.0515
85504W        W28495   7.221  30.926   9.272 -0.1065 -0.0120  0.2039
85505W        W28496  25.026  10.202   0.707  0.0304  0.2404 -0.2542
85506W        W28497  14.029  23.989   7.870  0.0235 -0.4287  0.1385
85507W        W28498  21.794  23.617  25.829 -0.1076  0.1038 -0.4183
85508W        W28499   7.891   9.538  27.916 -0.0667 -0.0593 -0.0662
85509W        W28500  12.540   0.769   6.517  0.0520  0.1473 -0.2917
85510W        W28501  18.473  28.054   9.264  0.4330  0.1168  0.3007
85511W        W28502   9.475  23.710   2.138  0.2141 -0.0939 -0.0393
85512W        W28503   6.883  31.366   5.349  0.0944  0.0358 -0.0111
85513W        W28504  29.724  15.771   9.812 -0.0796 -0.1557 -0.2120
85514W        W28505  19.128  22.839  25.172 -0.0387 -0.0892  0.2114
85515W        W28506  19.578  32.958   2.414 -0.0355  0.0356 -0.1282
85516W        W28507  32.826  22.918   5.493 -0.3361  0.0416  0.0659
85517W        W28508   9.344  25.611  22.351 -0.1035 -0.0929  0.0563
85518W        W28509   4.485  28.224   4.217 -0.0862 -0.0328 -0.1446
85519W        W28510   7.691  26.003   8.655  0.1331  0.2119 -0.1797
85520W        W28511  10.999  28.081   4.331  0.0065 -0.1244  0.2700
85521W        W28512  14.992  18.642  26.596  0.1216 -0.3538  0.1746
85522W        W28513  25.334  28.365   3.261 -0.0530 -0.0135 -0.1405
85523W        W28514  16.247  24.433  20.993 -0.1294 -0.1587  0.1930
85524W        W28515   3.288  26.018   2.565  0.1959 -0.0932 -0.2029
85525W        W28516  11.773  30.883   5.426  0.0270 -0.0480 -0.1807
85526W        W28517   8.386  26.923   3.130 -0.0786 -0.0465  0.0505
85527W        W28518   7.516  26.398   2.613  0.1235  0.1548  0.1183
85528W        W28519   3.584   9.790  24.057  0.1429  0.0364 -0.0537
85529W        W28520   8.244  23.703   7.863  0.0757  0.1279 -0.4421
85530W        W28521   0.718  25.007   8.246 -0.0229  0.2595  0.0956
85531W        W28522   9.006  24.399  26.356  0.0341  0.1442 -0.1196
85532W        W28523   8.395  17.462   3.202 -0.1277 -0.0545 -0.0944
85533W        W28524   7.424  30.140  18.862  0.0010  0.0655 -0.1615
85534W        W28525  17.666  30.699   2.509 -0.0591 -0.1875 -0.0649
85535W        W28526   6.225  25.902  28.337 -0.0759  0.1632 -0.0610
85536W        W28527   4.760   7.379  10.809 -0.1171  0.2158  0.2536
85537W        W28528   1.944  33.194   2.585  0.2266  0.2883 -0.1546
85538W        W28529  30.983  25.551  25.105 -0.2183 -0.2233  0.1807
85539W        W28530  30.376  17.703   3.567  0.4442  0.0814 -0.0500
85540W        W28531  12.416  31.194   5.795 -0.1869 -0.0270 -0.0451
85541W        W28532  16.286  34.757   1.220  0.1360  0.1772  0.2231
85542W        W28533  12.300   0.745  25.560 -0.5142 -0.0568 -0.1495
85543W        W28534  30.292  29.497   1.038  0.2136  0.1325  0.2375
85544W        W28535  13.888  22.733  10.227 -0.0753  0.1098 -0.0964
85545W        W28536  34.130  27.047  29.163 -0.0626  0.1547 -0.0742
85546W        W28537  11.116  15.528   2.412 -0.0465  0.0666 -0.0955
85547W        W28538  27.300  28.206   3.386  0.2724  0.0289  0.4463
85548W        W28539  12.166  21.236  22.486  0.2932  0.0140  0.2121
85549W        W28540  25.547  26.745   1.545  0.0060  0.2624 -0.0426
85550W        W28541  12.037  31.345  10.101  0.2525  0.1396  0.1968
85551W        W28542  21.613  24.711   1.962 -0.2464  0.3256 -0.3443
85552W        W28543  23.098  26.589  28.182 -0.1701 -0.0230 -0.0858
85553W        W28544  18.890   4.714   9.984 -0.0934  0.1297  0.2232
85554W        W28545   3.040  31.458   6.088  0.0024  0.1465 -0.0580
85555W        W28546  13.574  25.637  25.894  0.0397 -0.1186  0.1526
85556W        W28547   2.032  20.382   4.842  0.3571 -0.0705  0.0732
85557W        W28548   9.173  24.809  18.929  0.3136  0.0616 -0.0690
85558W        W28549  17.271  27.523   6.362 -0.0618  0.2353  0.0030
85559W        W28550  19.140  27.267  19.071  0.1049 -0.1911 -0.1772
85560W        W28551  18.646   0.518   2.741  0.3762  0.1011 -0.4239
85561W        W28552  20.689  34.519   3.104  0.4312 -0.1369  0.0494
85562W        W28553   3.249  26.976   7.482 -0.1374 -0.1502 -0.3089
85563W        W28554  10.337  20.813   7.679 -0.1256 -0.0758  0.4172
85564W        W28555  10.177  32.569  28.904 -0.0654 -0.0497  0.2308
85565W        W28556  13.120  11.464   9.680  0.1358  0.0027 -0.2315
85566W        W28557   4.473  27.682  22.116 -0.0673  0.0121 -0.0576
85567W        W28558   7.961  27.732  14.462  0.2596 -0.2405  0.1340
85568W        W28559   9.162  11.990  26.750  0.1784  0.0423 -0.1444
85569W        W28560   9.647  21.108   5.515 -0.1541 -0.0240  0.0039
85570W        W28561   2.801  25.057   0.922  0.3102 -0.1002  0.5104
85571W        W28562  16.468   6.613  17.894  0.3552  0.2713  0.0720
85572W        W28563   5.071  34.458  27.505  0.0130 -0.1331  0.2399
85573W        W28564   0.038  23.731   3.278 -0.1530  0.1351  0.0125
85574W        W28565   8.569  32.869   5.779  0.0969 -0.4106  0.1797
85575W        W28566  11.089  11.536   7.209  0.0292  0.0767 -0.1558
85576W        W28567  30.029   9.744   7.321 -0.1591 -0.0654  0.1029
85577W        W28568   8.387  21.583  26.048  0.0441 -0.0133 -0.1181
85578W        W28569  12.221  22.798  26.991  0.0787  0.0202  0.1252
85579W        W28570  12.134  11.968   6.521  0.0124 -0.0308  0.1271
85580W        W28571  15.040  22.238   4.631  0.1403 -0.0540 -0.0497
85581W        W28572   9.259  24.540   1.529 -0.1096 -0.0186  0.0435
85582W        W28573  11.609   5.854   9.272  0.0723  0.1228  0.2655
85583W        W28574  13.446  27.194  25.544 -0.1783 -0.0128  0.0498
85584W        W28575   5.831  28.182   9.861 -0.0251 -0.1929  0.2697
85585W        W28576   7.992  14.301   4.655 -0.0634 -0.0463 -0.1646
85586W        W28577  17.707  22.216  16.245 -0.0534  0.2120 -0.1708
85587W        W28578  21.928  32.271   1.881 -0.0623  0.1391  0.1602
85588W        W28579  13.447  30.571   7.516  0.0159  0.0223  0.2717
85589W        W28580   1.606  18.272   2.635 -0.2558 -0.0302 -0.2107
85590W        W28581   1.187   8.401   8.552 -0.2648 -0.4451 -0.3904
85591W        W28582  15.386  30.034  15.363 -0.0820  0.1772  0.0761
85592W        W28583   4.309   0.569  24.528 -0.2671  0.2025 -0.0467
85593W        W28584   8.248  24.453   6.951 -0.2006  0.1548 -0.1142
85594W        W28585  33.949  34.051  28.591 -0.2511 -0.0216  0.0803
85595W        W28586  33.283   6.590   2.145  0.0159 -0.1252 -0.3062
85596W        W28587   2.109  32.170  24.468  0.3126  0.0836 -0.0169
85597W        W28588  23.443   2.835  20.191 -0.1007  0.1357 -0.0629
85598W        W28589   6.483   2.391   7.598  0.0148 -0.0162 -0.1624
85599W        W28590   1.609   0.334   6.051  0.1785  0.2344  0.0075
85600W        W28591  10.018  26.073   6.727 -0.0568 -0.3461 -0.2257
85601W        W28592   6.082  33.210  24.291 -0.1188  0.0544 -0.1795
85602W        W28593  10.895  30.527   2.030  0.0347  0.0400 -0.0212
85603W        W28594   8.229  23.700   0.177  0.0821  0.3271 -0.3714
85604W        W28595  14.533  20.409  26.808 -0.2056 -0.0297  0.0222
85605W        W28596  18.120  30.557  17.414 -0.1124  0.2179  0.3858
85606W        W28597  19.192   2.155  25.431  0.1141  0.1450  0.2302
85607W        W28598   8.319  31.260  17.400 -0.0447 -0.0031  0.0883
85608W        W28599  34.032   3.727  10.361 -0.1364 -0.0744 -0.3382
85609W        W28600  33.626   5.020   5.892 -0.0471 -0.1931  0.0350
85610W        W28601  12.337  19.409   1.555  0.3807  0.1957  0.3346
85611W        W28602  12.083  30.346  20.392 -0.2246 -0.0246  0.1558
85612W        W28603  16.772  23.295   6.016 -0.3143 -0.0500 -0.1663
85613W        W28604  18.840  26.837   3.304 -0.0525  0.0914 -0.0764
85614W        W28605  20.527  32.610   6.955  0.0890 -0.1733  0.2723
85615W        W28606  10.009  26.898  26.548 -0.0710 -0.1171 -0.1205
85616W        W28607  10.772  27.376  15.873 -0.1029 -0.1370 -0.2558
85617W        W28608  10.054   5.214  15.140  0.1137  0.2017  0.0647
85618W        W28609  24.152  23.575   1.180  0.0595  0.2472 -0.0115
85619W        W28610  28.191  33.152   3.656  0.0144  0.0038  0.1775
85620W        W28611  19.231   7.560  28.195  0.2666  0.1607  0.0464
85621W        W28612   7.038  34.037  18.046 -0.4025  0.2204  0.2862
85622W        W28613  17.622   8.018   4.788 -0.2023 -0.1038 -0.1396
85623W        W28614  10.628  13.344  29.235 -0.0582  0.1690  0.0710
85624W        W28615  24.760  28.539   7.790 -0.1257  0.2984 -0.1602
85625W        W28616  31.396  13.726   0.486  0.1972 -0.3051  0.1327
85626W        W28617   6.162  26.545   1.265 -0.1490  0.3176  0.1277
85627W        W28618  30.399  20.018   6.271 -0.0951 -0.1487  0.1387
85628W        W28619  32.219  25.155   2.488 -0.1191  0.1549  0.1250
85629W        W28620  14.504  33.365   2.924 -0.1924  0.1249 -0.2701
85630W        W28621  23.156  20.900  21.627 -0.1160 -0.0202 -0.1457
85631W        W28622  11.335   3.083  10.637  0.2720  0.0824 -0.0321
85632W        W28623   3.035   4.102  26.768  0.0572 -0.1725  0.0138
85633W        W28624  14.034  19.172  27.125 -0.2731  0.2962  0.0721
85634W        W28625  23.457  22.799   4.254 -0.4489 -0.0367  0.2072
85635W        W28626   7.014  22.011   0.553 -0.2092 -0.3304 -0.2928
85636W        W28627  11.414   0.892   4.308 -0.1138 -0.1429  0.2222
85637W        W28628  31.882   1.231  27.957 -0.0900  0.0483  0.2523
85638W        W28629  26.097  10.467  26.686 -0.0084  0.1080  0.1025
85639W        W28630  26.632  23.645  20.490 -0.3086  0.0673  0.1256
85640W        W28631  31.438   5.807   7.785 -0.3508 -0.1106  0.0386
85641W        W28632   3.030  32.488   5.326  0.1320 -0.2809  0.2793
85642W        W28633  27.848   1.877   7.556  0.2962 -0.1327  0.0869
85643W        W28634  25.962  18.722  23.534 -0.1346 -0.4002  0.1762
85644W        W28635   2.484  12.554   5.021  0.0296 -0.0390  0.1965
85645W        W28636   5.405  27.577   2.110  0.2588 -0.1718 -0.1687
85646W        W28637   2.717  28.444  20.856 -0.0670  0.2654  0.0537
85647W        W28638  27.379   1.402   2.794 -0.0637 -0.3115  0.0569
85648W        W28639   6.677  27.456  15.374 -0.1691 -0.4073  0.0830
85649W        W28640  19.817  32.346  16.383  0.0579  0.0436  0.1247
85650W        W28641  10.568  22.319   6.537  0.0450  0.0317 -0.0351
85651W        W28642  28.123  16.209   6.492 -0.1045 -0.3179  0.0500
85652W        W28643  23.373   1.537  17.706 -0.1393 -0.4322  0.0306
85653W        W28644  18.711  22.263  26.939  0.2627 -0.1163 -0.0478
85654W        W28645  31.291  27.190  23.325 -0.1490 -0.0594  0.1965
85655W        W28646  30.134   1.895  14.291  0.2216 -0.2018  0.1785
85656W        W28647   8.062  11.426  25.355  0.3016  0.2714  0.0691
85657W        W28648   5.288   8.376  17.630 -0.2062 -0.1124  0.1492
85658W        W28649  12.345  14.198  28.638  0.2404  0.0258 -0.1657
85659W        W28650  32.202   9.148  23.640  0.0033  0.1642  0.3133
85660W        W28651  10.297  11.760  27.729 -0.0094 -0.2714  0.0521
85661W        W28652   3.782  17.769   6.415  0.1938  0.0975 -0.3058
85662W        W28653  19.645  22.869   0.300 -0.1062  0.0447 -0.0589
85663W        W28654  14.262  30.451  24.683 -0.0852  0.1975 -0.2368
85664W        W28655  11.555  32.148   6.942  0.1656 -0.0289 -0.2503
85665W        W28656  21.043  27.849   9.024 -0.2550 -0.0583 -0.0850
85666W        W28657   9.891  32.952   0.745 -0.1016  0.4556  0.0766
85667W        W28658  31.069  24.116   4.058 -0.0538  0.3149 -0.1524
85668W        W28659  14.154  25.872  10.121  0.0658  0.2570  0.0498
85669W        W28660   0.431   2.588  20.056 -0.0487 -0.0384  0.2185
85670W        W28661   2.783  16.338  21.275 -0.0030 -0.0260 -0.0330
85671W        W28662  12.004  23.745  24.696 -0.1879 -0.4519 -0.3057
85672W        W28663   1.204  25.668  23.213  0.1785  0.0845 -0.2849
85673W        W28664  34.680  18.373   5.630  0.1268 -0.1126 -0.2518
85674W        W28665  34.200  32.345   4.351 -0.0186  0.0103 -0.1250
85675W        W28666   5.136  23.817  16.421 -0.2313  0.0252  0.2081
85676W        W28667  25.771  25.867   5.017  0.1909  0.0241  0.0866
85677W        W28668  13.468  34.340  26.730 -0.1561  0.1816 -0.1124
85678W        W28669  15.805  29.425   8.151  0.0830  0.0052  0.0409
85679W        W28670   9.186  32.870   1.594 -0.1413 -0.1514 -0.0111
85680W        W28671  28.956  30.872   3.178 -0.1963 -0.0768 -0.2553
85681W        W28672   5.918  22.290  23.765  0.1907 -0.1190  0.1340
85682W        W28673  20.493  30.833  16.003  0.1415  0.2675  0.3535
85683W        W28674   3.783   2.703   7.930  0.0324  0.1166 -0.1064
85684W        W28675  11.534  28.669  21.607 -0.0184  0.0187 -0.1464
85685W        W28676  32.756  29.238   0.416  0.1427 -0.0392 -0.1717
85686W        W28677  33.127   5.325   6.637  0.1038 -0.1353 -0.0474
85687W        W28678  14.710  22.432   4.168  0.1019  0.0364 -0.1090
85688W        W28679  10.420   8.395   2.491  0.0735  0.0500 -0.2332
85689W        W28680   8.068  33.164  26.064 -0.1945 -0.1453  0.0715
85690W        W28681  13.555  23.497  28.433 -0.0911 -0.3494  0.1782
85691W        W28682   7.986   0.589  25.558  0.2298  0.0416  0.1583
85692W        W28683  15.922  30.480  25.169 -0.1743 -0.4539 -0.3824
85693W        W28684  13.601  14.049   3.978 -0.0244  0.1709  0.0452
85694W        W28685  20.405  15.213  25.697  0.1178  0.4108 -0.0087
85695W        W28686   8.893  23.995  15.940  0.1496  0.1868 -0.1277
85696W        W28687  29.748  12.767   4.201  0.0666  0.1343  0.0298
85697W        W28688  11.372  23.963   4.231 -0.0773 -0.0186  0.0796
85698W        W28689  12.036   4.372  10.299 -0.0760 -0.1358 -0.1798
85699W        W28690  13.106  11.909  24.436  0.1214 -0.1383  0.1893
85700W        W28691  28.975   3.466  26.327  0.0151 -0.0596  0.2454
85701W        W28692  19.816  27.216  22.567 -0.1289 -0.1294  0.0762
85702W        W28693  17.405   3.104  27.489  0.2057  0.3081 -0.1195
85703W        W28694   4.536  27.370  17.147  0.1336  0.0747 -0.0403
85704W        W28695   8.922  26.668  21.665 -0.1654 -0.1300 -0.1648
85705W        W28696  14.849  33.046   8.014  0.0779  0.0393 -0.1150
85706W        W28697   3.254  16.281   2.088  0.2218 -0.0314  0.0979
85707W        W28698  25.777  31.696  27.159 -0.0421 -0.1386  0.3367
85708W        W28699   8.202   6.865   3.418 -0.0959 -0.0441  0.1561
85709W        W28700  30.986   9.048   3.128 -0.0048  0.1292  0.0435
85710W        W28701  22.875  27.123   3.133 -0.3268 -0.0564 -0.1619
85711W        W28702  22.948  23.106   4.009  0.2625  0.2381  0.1109
85712W        W28703   3.430   5.851   5.417  0.2321 -0.0812 -0.2837
85713W        W28704  11.520  19.688  24.503  0.1322  0.1731  0.0682
85714W        W28705   9.429  29.883   9.729  0.3270 -0.0965  0.0356
85715W        W28706   2.975   4.472  24.070  0.0484  0.1368  0.2474
85716W        W28707  15.095  13.253   4.186  0.0439 -0.0266  0.0612
85717W        W28708  32.302  28.583  16.873  0.0471 -0.0907 -0.1685
85718W        W28709  13.005  28.047   5.457 -0.1431  0.2330  0.2777
85719W        W28710   6.352  12.592   3.101  0.0464 -0.2838  0.1518
85720W        W28711  17.320  27.015   2.275 -0.1629  0.2516 -0.2036
85721W        W28712  22.953  26.258   8.234 -0.0347  0.0030  0.2201
85722W        W28713  18.845  21.890  24.294  0.3335  0.1889  0.0231
85723W        W28714  16.799   0.630  14.317 -0.2807  0.2595  0.0065
85724W        W28715   0.339  29.467   2.782  0.2942 -0.2152  0.0224
85725W        W28716  14.763  31.268   0.313 -0.1303 -0.1322  0.2525
85726W        W28717  13.676   5.787   0.435  0.3652 -0.0015 -0.0552
85727W        W28718  22.261  29.457  25.769  0.2063 -0.2104  0.1724
85728W        W28719  19.491  22.370   5.078 -0.0058 -0.1515  0.0188
85729W        W28720  24.482   6.610   7.888  0.1652  0.2498  0.1554
85730W        W28721   3.476   7.220  24.529  0.4652  0.0400 -0.1268
85731W        W28722   8.781  14.183   3.269 -0.0849  0.1880 -0.0197
85732W        W28723  22.488  33.758  20.157  0.0425 -0.0903 -0.2336
85733W        W28724   9.474  26.556   3.710  0.1680 -0.2202 -0.4338
85734W        W28725  12.701   0.398  10.340 -0.0155 -0.2415  0.0418
85735W        W28726  21.794  27.562  24.004  0.2243  0.0326  0.0384
85736W        W28727  33.090  23.617   3.142  0.3325 -0.0491  0.0909
85737W        W28728   3.491  24.620  26.879  0.0710  0.1408 -0.0339
85738W        W28729   3.873  25.405  26.356 -0.3281  0.0201  0.0101
85739W        W28730  17.084  10.882   7.283  0.0389  0.1152 -0.0310
85740W        W28731  12.101   1.575   8.482 -0.2176 -0.0288 -0.0257
85741W        W28732  31.017  32.347  22.276 -0.1385  0.2217 -0.0763
85742W        W28733  26.339  20.865   4.567  0.1048  0.0313  0.0032
85743W        W28734   5.515  17.785   4.595  0.2804 -0.4348 -0.0260
85744W        W28735   1.463  25.988   9.881  0.0790 -0.0154 -0.1640
85745W        W28736  12.713  13.467   1.624 -0.0236  0.0422  0.2980
85746W        W28737  20.016  32.635  26.539 -0.0457  0.0546  0.0751
85747W        W28738  13.100  17.887   6.688 -0.1037 -0.0460  0.0738
85748W        W28739  23.364   7.344   4.131  0.1592  0.1367  0.0810
85749W        W28740   3.857  16.655   5.142 -0.0729 -0.1687 -0.0222
85750W        W28741  17.732  31.480   4.077 -0.0463  0.0808 -0.0921
85751W        W28742  13.823  13.031   1.391 -0.1821 -0.0220 -0.2260
85752W        W28743  30.926  12.374   8.321  0.0281 -0.1806  0.2765
85753W        W28744  22.179   5.893   0.283 -0.0597  0.2593 -0.1956
85754W        W28745  26.768  33.275   7.017 -0.1501 -0.0383 -0.2425
85755W        W28746  11.845   0.645   0.480  0.0415  0.3070  0.1967
85756W        W28747   4.200  10.627  17.298  0.0334 -0.3272  0.1444
85757W        W28748  25.984  26.033  28.902 -0.0459 -0.0207  0.3398
85758W        W28749  12.259  20.219  22.175  0.2151 -0.0557  0.2749
85759W        W28750  33.641  29.369   8.286  0.0820  0.0290 -0.0462
85760W        W28751   1.124   6.426  16.663  0.0839  0.0108  0.0084
85761W        W28752   7.859  29.558  23.353 -0.0963 -0.0299 -0.0026
85762W        W28753  14.527  34.535  28.855  0.0104 -0.0502  0.0457
85763W        W28754  16.775  31.961   8.901  0.3934  0.3298  0.2310
85764W        W28755  12.389  29.644  27.486 -0.0593  0.2132 -0.0583
85765W        W28756  12.399  24.418  27.048 -0.2396 -0.1828 -0.1325
85766W        W28757   0.439  29.349  20.699 -0.1098  0.2187  0.0972
85767W        W28758  21.190   2.088   3.058  0.0826 -0.1228 -0.0531
85768W        W28759   4.629  32.614   1.529 -0.0833  0.1051  0.4183
85769W        W28760  15.036  22.807   0.487 -0.0238 -0.0426 -0.1179
85770W        W28761   8.513  27.580  26.266 -0.0521 -0.0359  0.0115
85771W        W28762  13.172  22.061   3.821  0.0400 -0.1422  0.0799
85772W        W28763   7.815  25.554   1.506  0.1868  0.0317  0.2270
85773W        W28764  32.585  28.728   0.535 -0.1857 -0.1661  0.0208
85774W        W28765  16.278  24.133   2.504  0.3069 -0.2157 -0.0048
85775W        W28766  23.160   1.483   2.210 -0.3201 -0.0381  0.1230
85776W        W28767   5.170   0.606   8.090  0.1222  0.2663 -0.0574
85777W        W28768  13.068  24.616   1.661 -0.1405 -0.4790 -0.0010
85778W        W28769   0.550  21.168  10.065  0.1684 -0.3757  0.1910
85779W        W28770   1.089   0.151   2.268 -0.3730  0.0658  0.0542
85780W        W28771   9.877  28.182  10.419  0.1474  0.1826  0.0776
85781W        W28772   7.977  33.707   8.867 -0.2273  0.0939 -0.0782
85782W        W28773  15.503  25.909   1.557 -0.2106 -0.0923 -0.0368
85783W        W28774   8.407  29.604   6.022  0.0550 -0.1838 -0.1871
85784W        W28775  22.944   0.041  23.506 -0.0686 -0.0467 -0.3905
85785W        W28776   0.031   7.764  25.857 -0.1823 -0.2181 -0.3560
85786W        W28777  18.413  22.333  26.371  0.0976 -0.1669 -0.3056
85787W        W28778  27.848  10.292  10.042 -0.1340 -0.0858 -0.0195
85788W        W28779  13.220  24.168  26.924  0.1632 -0.0418  0.1426
85789W        W28780  22.248  23.332  16.576 -0.1009 -0.0908 -0.2760
85790W        W28781   1.677  22.079  20.800  0.2074 -0.1386  0.2174
85791W        W28782  18.786  24.800  29.010 -0.2653  0.0692 -0.1447
85792W        W28783   3.321  22.358   3.853  0.1221 -0.1585 -0.2457
85793W        W28784   4.116  34.479  23.407  0.2154  0.0374  0.2166
85794W        W28785  12.429  34.763   6.109 -0.0715  0.0830  0.0163
85795W        W28786  31.927  30.793   6.998  0.0587  0.4897 -0.0462
85796W        W28787  28.720   0.925  21.980 -0.0693  0.0766 -0.4517
85797W        W28788  23.144  33.050   8.768  0.0097  0.2466  0.2037
85798W        W28789   7.232  21.579  25.400  0.3025  0.1069 -0.0567
85799W        W28790   1.262  15.965   4.418 -0.1324  0.1509  0.0774
85800W        W28791  16.936   1.031   7.488  0.1054 -0.1793 -0.2092
85801W        W28792  17.623  26.844   3.886 -0.1811 -0.1314  0.0203
85802W        W28793   4.167  21.946   4.932  0.5243  0.0136  0.0708
85803W        W28794  28.235   2.839   0.131  0.1457  0.0748 -0.2980
85804W        W28795  33.033  24.667   7.564 -0.1523  0.2653 -0.2631
85805W        W28796   2.061  10.859   2.335 -0.1824 -0.1629 -0.2049
85806W        W28797  17.061  13.659  19.351 -0.0730 -0.1822  0.0533
85807W        W28798  32.228  28.878   4.776  0.0993 -0.0345 -0.0250
85808W        W28799  12.716  34.342   2.952 -0.2763  0.0033  0.2411
85809W        W28800  21.915  15.113  23.547  0.2645  0.0566  0.0106
85810W        W28801   1.750  16.868  25.825  0.0431 -0.3173 -0.3055
85811W        W28802  12.952  31.715   1.721 -0.2198 -0.0829  0.0363
85812W        W28803  30.035  10.931   3.217 -0.4531 -0.0631  0.0297
85813W        W28804   8.549  20.346  22.226 -0.0515 -0.1944 -0.1086
85814W        W28805  13.721  16.894  21.986  0.0012  0.1751 -0.0578
85815W        W28806  20.195  25.090   8.868 -0.0790  0.0558 -0.0017
85816W        W28807  10.358   3.320   4.352 -0.1944 -0.1055  0.0397
85817W        W28808  30.135   1.852   5.191  0.0078 -0.0006  0.1440
85818W        W28809   5.892  19.069   2.836 -0.0277  0.0028  0.3303
85819W        W28810  23.599  31.216   5.641  0.2757  0.0480  0.1577
85820W        W28811  14.013  24.610  20.129  0.0482 -0.1524 -0.0377
85821W        W28812  18.394  26.307   6.507  0.2038  0.0741  0.0222
85822W        W28813  18.408  26.664   3.157 -0.1728 -0.2292 -0.2020
85823W        W28814  12.731  27.696  23.432 -0.0800 -0.1527  0.1416
85824W        W28815  11.486   7.251  27.156 -0.0252 -0.2426 -0.0463
85825W        W28816   5.687   1.219  26.968 -0.1689 -0.1269  0.2822
85826W        W28817  10.760  11.037   1.608  0.2529 -0.1332 -0.0003
85827W        W28818   6.302   1.062  28.858 -0.2148 -0.1895 -0.1459
85828W        W28819  34.360   0.371   2.239 -0.3696  0.0970  0.0453
85829W        W28820  31.360  32.494   8.666 -0.0285 -0.0836 -0.0713
85830W        W28821   3.027   7.297   6.464 -0.3691  0.0812  0.1016
85831W        W28822  18.860  22.398  23.379 -0.0524  0.3889  0.1164
85832W        W28823  24.796   1.745   7.075 -0.2088  0.0144 -0.0387
85833W        W28824  20.561  29.607  16.115  0.1160  0.0276  0.0213
85834W        W28825  14.231  14.753   7.206  0.1597  0.1454 -0.2879
85835W        W28826  10.015  33.093  18.260 -0.0456 -0.0137 -0.1679
85836W        W28827   8.002  24.631  21.801  0.3313 -0.0288 -0.1766
85837W        W28828  10.044  16.722  17.466  0.0479  0.1600  0.1859
85838W        W28829  23.944  29.179  27.680  0.3411 -0.0331 -0.1327
85839W        W28830   0.290   2.525  24.019 -0.0258  0.0191 -0.2545
85840W        W28831   4.789  29.664   4.724  0.3297 -0.1754  0.1745
85841W        W28832  15.117  26.440  22.018 -0.1922  0.0231  0.1139
85842W        W28833  15.210  30.364   5.364  0.2901  0.1647 -0.2254
85843W        W28834   6.337  24.578  25.168  0.0100  0.2355 -0.1782
85844W        W28835   5.403   6.944   4.115 -0.0545  0.0486 -0.0803
85845W        W28836  30.197   3.167   7.616 -0.1881 -0.2092 -0.2175
85846W        W28837  19.953   5.055   4.009 -0.3523  0.1513 -0.1947
85847W        W28838   2.338  31.620   8.934  0.1936  0.0493 -0.3269
85848W        W28839  14.736  15.478  17.340  0.2166 -0.3008  0.2934
85849W        W28840  11.668  18.662  27.174 -0.0143  0.4131 -0.2571
85850W        W28841  31.043  11.415  26.027  0.1085  0.1966 -0.0017
85851W        W28842   0.110  30.976   4.142 -0.0027 -0.3617 -0.2000
85852W        W28843   9.100   9.301  24.267 -0.1369 -0.0346 -0.3585
85853W        W28844   8.248   4.447   1.705  0.2130 -0.1661 -0.0301
85854W        W28845   5.335   2.995  26.896  0.0625  0.0589  0.0675
85855W        W28846  27.109  17.023   2.499 -0.0798  0.0016  0.2444
85856W        W28847   9.090  10.300  25.890 -0.0113  0.1584 -0.2190
85857W        W28848  27.129  12.269   2.380 -0.0145  0.1149  0.2601
85858W        W28849  10.422  24.792  17.496 -0.0817  0.2371 -0.0633
85859W        W28850   8.476  11.645   6.441 -0.1556  0.2681 -0.3259
85860W        W28851   6.355  33.316  21.915 -0.0773  0.2739  0.0083
85861W        W28852  14.592  27.789   3.499 -0.2465  0.2100  0.0177
85862W        W28853   7.660  34.403  26.407 -0.0955 -0.1527  0.2959
85863W        W28854   3.467   3.787  23.914  0.1428  0.2245 -0.1122
85864W        W28855  21.388   0.582   6.168 -0.0620 -0.2234  0.1334
85865W        W28856   7.584   0.050   5.328 -0.0527 -0.3964 -0.3105
85866W        W28857   2.362  30.287  24.141  0.2467 -0.1404  0.0593
85867W        W28858  31.924   9.528   5.813 -0.0381  0.2184 -0.0816
85868W        W28859   5.644  27.553  24.214 -0.0177 -0.1111  0.2686
85869W        W28860  11.753  31.671   0.066 -0.0854  0.0670  0.0944
85870W        W28861  18.488  29.387   8.986 -0.1138  0.2436  0.1254
85871W        W28862  10.625  27.784  27.228 -0.1471 -0.0977 -0.0966
85872W        W28863  18.092  14.631   6.853  0.1240  0.0138  0.1804
85873W        W28864   5.147   7.409   9.495  0.1381 -0.1221 -0.4874
85874W        W28865   9.343  27.212  27.647 -0.2535 -0.0707 -0.0557
85875W        W28866   7.944  14.135   1.832  0.1160  0.0349  0.4016
85876W        W28867   6.707  20.211  19.117 -0.2084  0.3200  0.2912
85877W        W28868   9.228   2.578  22.830  0.0975  0.1142  0.3222
85878W        W28869   4.386  29.056   6.315  0.0144  0.2809 -0.1075
85879W        W28870   8.081  32.870   9.706 -0.0666 -0.0425 -0.3656
85880W        W28871   5.931  28.842  13.954 -0.0388  0.1254 -0.0514
85881W        W28872  12.414   4.705  23.228  0.0459  0.0596 -0.1943
85882W        W28873  16.320  29.418   1.930  0.1585 -0.0597 -0.0741
85883W        W28874  11.378   3.436   4.250  0.0765 -0.3739 -0.1518
85884W        W28875  34.417   4.301  20.931 -0.1274  0.0443 -0.2074
85885W        W28876  30.711   6.538   9.355 -0.0787 -0.0714  0.2591
85886W        W28877   5.282  23.997   5.099  0.0603  0.1659 -0.1725
85887W        W28878  34.579   3.616   3.813 -0.0868 -0.3472 -0.1965
85888W        W28879   0.314  33.889  15.254 -0.1621  0.2820  0.1679
85889W        W28880  13.290  12.753  14.518 -0.4544 -0.1681  0.0957
85890W        W28881  34.153  31.529   9.872  0.1134 -0.3134 -0.0996
85891W        W28882   4.367  15.414   4.541 -0.0729  0.2763  0.4373
85892W        W28883  11.932  32.322  29.192 -0.0205  0.0601  0.3401
85893W        W28884   8.503  25.015   6.511 -0.1386  0.0839  0.0845
85894W        W28885   7.380  18.635   3.442  0.2288 -0.0716 -0.2878
85895W        W28886   6.420  32.982  25.919 -0.3099 -0.0896  0.0694
85896W        W28887   8.696  25.879  19.943  0.1516 -0.2762 -0.0195
85897W        W28888   1.963   7.220   4.105 -0.0143 -0.2518  0.0691
85898W        W28889  17.727  32.889   8.197  0.1575  0.0991 -0.3728
85899W        W28890  18.613   3.316  22.481 -0.2124 -0.0182  0.1866
85900W        W28891   2.031  14.725  11.210 -0.0295  0.1779  0.0354
85901W        W28892  13.330  34.628  28.106 -0.0830 -0.3152 -0.0452
85902W        W28893  22.304   7.463   5.179  0.0830 -0.1400  0.1387
85903W        W28894   8.578  27.829   5.726 -0.2245  0.2911  0.0284
85904W        W28895  11.810  15.527   4.106 -0.2126 -0.1426  0.1242
85905W        W28896  25.052  15.451  27.364  0.4399 -0.0309  0.0698
85906W        W28897  14.611   2.795   9.773 -0.0363  0.1445  0.1122
85907W        W28898  34.336  23.661   3.499 -0.0869  0.0891 -0.0027
85908W        W28899   8.859  15.972   4.067 -0.5702  0.0351  0.1176
85909W        W28900  15.589  31.845   8.605  0.1788 -0.0168  0.0448
85910W        W28901  28.934   2.871  27.876  0.0610 -0.1042 -0.2299
85911W        W28902  20.809  28.791  20.487  0.0267  0.0335 -0.2859
85912W        W28903  14.041   4.557   9.902  0.2046 -0.0400  0.0881
85913W        W28904  10.558  31.013   0.354  0.2072 -0.1154  0.1770
85914W        W28905   8.927  17.607   4.961 -0.3063 -0.1459 -0.1015
85915W        W28906  15.964  26.120  24.839 -0.0741 -0.0038  0.1035
85916W        W28907  10.503  18.789   9.517 -0.0083 -0.1548  0.1058
85917W        W28908  16.500  23.360   0.082  0.2552 -0.0813 -0.0041
85918W        W28909  14.630   4.957  19.369  0.0338  0.1016  0.1532
85919W        W28910   0.549  12.251   5.954 -0.0298  0.0223 -0.1507
85920W        W28911   7.517  27.164   3.314 -0.3747  0.1044 -0.0135
85921W        W28912  11.015  14.991   7.696 -0.1054 -0.1755  0.3085
85922W        W28913   4.935  27.811   1.250  0.0796  0.0791  0.1636
85923W        W28914  15.651  28.383  27.190 -0.1502  0.0983  0.2216
85924W        W28915   9.387   6.587   7.495 -0.1091 -0.1108 -0.1611
85925W        W28916  22.707  30.304   6.853  0.0500 -0.1083 -0.0343
85926W        W28917   0.634   0.595  26.679 -0.0300 -0.2412  0.0359
85927W        W28918  16.082  18.986  28.568 -0.1440 -0.0467  0.1500
85928W        W28919  10.896  23.544   7.330 -0.0997  0.1198  0.3035
85929W        W28920   4.186  25.057   8.832 -0.1450 -0.0814 -0.0597
85930W        W28921  19.783  10.349  18.394  0.1622 -0.1458 -0.1063
85931W        W28922  12.402   9.221  28.201 -0.1199  0.3277  0.0416
85932W        W28923  28.157  13.640  20.438  0.1595  0.2110 -0.0706
85933W        W28924  16.991  20.286   7.292  0.0373  0.0638  0.0103
85934W        W28925  10.255  33.767  26.309 -0.2126  0.0261 -0.1203
85935W        W28926  10.404  16.271  27.662  0.1324 -0.3428  0.2306
85936W        W28927   3.929  21.641  11.083 -0.4142  0.0632 -0.2059
85937W        W28928  23.764  31.949  18.092 -0.3174  0.0142  0.0648
85938W        W28929  33.033  34.281   5.081 -0.3257  0.2279  0.0283
85939W        W28930  20.958   5.329  22.375 -0.2339  0.0640 -0.5605
85940W        W28931  32.426  27.096   5.272 -0.1697  0.0051 -0.4414
85941W        W28932   4.232   3.826   5.799  0.0863 -0.0072 -0.0546
85942W        W28933  12.575  28.905  25.323 -0.1154 -0.0968  0.6734
85943W        W28934   6.291  24.007  25.331  0.3086  0.0065  0.0636
85944W        W28935  14.036  20.793   4.644  0.2751 -0.4512  0.0500
85945W        W28936  25.188   2.959  25.191  0.0629 -0.1860  0.3115
85946W        W28937  15.247  31.827  21.884 -0.0254  0.2377 -0.0576
85947W        W28938  19.467  20.860  25.297 -0.0201 -0.0446 -0.2175
85948W        W28939  29.468   1.516   8.346 -0.0409  0.3030  0.1337
85949W        W28940   0.759   2.061  15.210  0.1354 -0.2968 -0.3964
85950W        W28941  12.803  33.787  15.157 -0.0349  0.1565  0.3587
85951W        W28942  28.416  26.154  14.387  0.0472  0.0168  0.2291
85952W        W28943   5.211   5.397  24.810  0.0994  0.2857  0.2841
85953W        W28944   4.696  29.382  17.501  0.4140 -0.0685 -0.3515
85954W        W28945   7.455   4.898  10.849 -0.1456  0.2100  0.1342
85955W        W28946  26.755  18.700  22.001 -0.1846 -0.5469 -0.0414
85956W        W28947  31.978  23.979   2.617 -0.1120  0.1519 -0.1030
85957W        W28948  15.095  30.583  22.127 -0.4361 -0.0224 -0.2859
85958W        W28949  13.291  29.150   8.251 -0.1320 -0.1806 -0.1962
85959W        W28950  33.975  21.262   2.529 -0.0082 -0.2789  0.2962
85960W        W28951  14.619  31.974  19.442  0.0776  0.1338  0.3683
85961W        W28952   3.529  34.705  27.373 -0.0804 -0.0934 -0.1288
85962W        W28953  25.856  20.188   5.190  0.5453 -0.1005 -0.2443
85963W        W28954  28.971  33.856  26.653  0.1871 -0.2154 -0.1981
85964W        W28955  31.578   3.351   9.684 -0.2544  0.0172 -0.0351
85965W        W28956   7.752  15.181   5.752 -0.0298 -0.0084 -0.1460
85966W        W28957  19.549  14.098   2.162  0.1057  0.2500 -0.0523
85967W        W28958  10.618  12.387   3.756  0.1043 -0.1993  0.2705
85968W        W28959   3.640  23.232   9.674  0.0414 -0.0694 -0.2518
85969W        W28960  11.368   0.747  25.927 -0.0256 -0.1591 -0.0186
85970W        W28961   2.927  29.597   0.958 -0.2362 -0.0112 -0.2427
85971W        W28962  31.039  32.312   7.244  0.0029 -0.0985 -0.1878
85972W        W28963  10.202   2.431  20.819 -0.1261  0.4119  0.1434
85973W        W28964  13.356   2.306   8.837 -0.0129  0.0346  0.2263
85974W        W28965  15.084  22.696  17.607  0.1472  0.2999 -0.1300
85975W        W28966  13.335   1.607  17.462 -0.0538  0.0226  0.2479
85976W        W28967   4.418  26.755   2.526 -0.3532 -0.1144 -0.1243
85977W        W28968   4.721  33.361   1.374 -0.0966  0.5100 -0.3694
85978W        W28969   4.735  26.147   8.947 -0.2244  0.2004 -0.0587
85979W        W28970  32.304  22.167  28.475  0.2581 -0.4269  0.0556
85980W        W28971  17.594  30.795   3.418 -0.5612  0.1822  0.2337
85981W        W28972   6.310  18.169   2.543 -0.2681  0.0813 -0.1156
85982W        W28973  25.548  25.018   9.484 -0.1796  0.2096  0.2918
85983W        W28974   0.167  30.404   0.045 -0.2648  0.3389  0.0849
85984W        W28975  32.936  12.843   9.960  0.1244 -0.1352  0.0581
85985W        W28976  31.760  16.043  24.388 -0.0010 -0.0455 -0.0215
85986W        W28977  31.061  31.333  29.107  0.5152 -0.0729  0.0273
85987W        W28978  25.085  23.335   0.155 -0.2033 -0.0275 -0.1214
85988W        W28979   3.689  27.187   7.317 -0.4231  0.1281  0.0937
85989W        W28980   2.397  34.349  22.522 -0.1431 -0.2911 -0.0083
85990W        W28981  32.590  24.564  23.018  0.0344 -0.0880 -0.1156
85991W        W28982   8.514  21.581   0.582 -0.4864 -0.1833  0.0958
85992W        W28983   8.014   3.048   0.129 -0.0996  0.0606 -0.2237
85993W        W28984   7.647  26.805   5.102  0.1502 -0.0192  0.0951
85994W        W28985   7.333   0.793  25.386 -0.0662 -0.2898  0.3274
85995W        W28986   9.625  31.154   5.267 -0.0003  0.4132 -0.0880
85996W        W28987   0.316  22.816  18.907  0.2431  0.0238  0.2217
85997W        W28988  19.662  19.659  29.017 -0.1726 -0.0488 -0.1045
85998W        W28989   8.971   5.500   8.585 -0.0345  0.0736  0.1327
85999W        W28990  12.543  28.554   9.302 -0.1673 -0.0215  0.0564
86000W        W28991  24.435  26.992   4.503 -0.1936 -0.0562  0.3460
86001W        W28992   5.912  19.518  27.295 -0.1972  0.3064 -0.1501
86002W        W28993  26.572  14.364  24.480  0.2078 -0.0449 -0.0134
86003W        W28994  14.213   0.281   8.516  0.1434 -0.0635 -0.3631
86004W        W28995  28.197   9.932   3.207  0.1669  0.2763  0.1976
86005W        W28996   3.048  13.927   5.454  0.3041  0.0909 -0.0415
86006W        W28997  27.936  28.739   1.942  0.0740 -0.0776 -0.0648
86007W        W28998  19.669  32.101  29.175  0.0203  0.0432 -0.1927
86008W        W28999  13.511   6.720   1.003  0.0489  0.0072  0.2704
86009W        W29000  11.243   8.298   8.300 -0.2052 -0.1464  0.2315
86010W        W29001  19.925  25.691   0.204  0.1023  0.0653 -0.2810
86011W        W29002  23.558  21.255   9.206 -0.1309 -0.1258  0.1581
86012W        W29003   4.668  16.018  19.538  0.0410 -0.3027  0.0624
86013W        W29004   7.751  23.832  26.141 -0.2190 -0.2684 -0.1700
86014W        W29005  10.237  30.469  10.736  0.1280  0.0368 -0.0593
86015W        W29006  11.387  13.326  24.809 -0.0750  0.2185 -0.0309
86016W        W29007  16.740  31.841   8.260 -0.1818 -0.4012  0.0891
86017W        W29008  10.452  32.798  28.566 -0.2116 -0.1050 -0.1598
86018W        W29009  16.542  22.379   1.860  0.0439  0.1588 -0.0084
86019W        W29010  12.110  29.414   0.650  0.1332  0.2104 -0.2373
86020W        W29011  30.822   1.410   4.575  0.0856  0.4412 -0.1414
86021W        W29012   3.433  32.740   9.405 -0.1283  0.1337  0.1055
86022W        W29013   0.681  31.604  28.440 -0.0081 -0.3759  0.0336
86023W        W29014  26.153  23.485  23.095  0.1606  0.1037  0.0631
86024W        W29015  11.818   6.018  22.417  0.0513  0.0687 -0.2261
86025W        W29016  31.863   8.299   5.365 -0.3239 -0.0298  0.0597
86026W        W29017   0.529  23.248   4.871 -0.3146 -0.0017  0.3541
86027W        W29018  23.026   3.368  27.734  0.0393 -0.0667 -0.2913
86028W        W29019   0.302  32.514  23.645 -0.1628 -0.1610  0.1928
86029W        W29020   8.077  21.371   0.596  0.1514  0.1249  0.0614
86030W        W29021  22.375  24.502  24.924  0.1173 -0.0433 -0.1633
86031W        W29022  12.998   2.554  19.153 -0.1305  0.0057 -0.1404
86032W        W29023  33.253  20.189   9.923 -0.2766  0.0342  0.2719
86033W        W29024   4.342  30.926  27.533  0.2720  0.2288 -0.0199
86034W        W29025  11.239  12.978   9.507 -0.1164  0.2679 -0.4676
86035W        W29026   2.017  34.069   8.450 -0.0359 -0.0266  0.1294
86036W        W29027  15.135   7.025  17.064 -0.2715  0.0008 -0.0138
86037W        W29028  30.503  31.295  28.028 -0.0052 -0.2833 -0.1608
86038W        W29029  28.914   4.138   4.169  0.0443  0.1530 -0.0771
86039W        W29030  18.903  14.274   0.818 -0.3387  0.0187 -0.3561
86040W        W29031   8.003   6.989   9.639 -0.0190 -0.1038  0.0866
86041W        W29032   3.872  14.096   9.742  0.1090 -0.2876  0.2782
86042W        W29033   6.904   1.952   3.337  0.2641  0.0010  0.2096
86043W        W29034  13.747   0.978   6.771 -0.1756  0.3516  0.0408
86044W        W29035   3.214  13.953   3.178  0.1791  0.1218  0.2734
86045W        W29036  32.766   2.932  25.350  0.5763  0.1918  0.1902
86046W        W29037  23.892  22.060  26.892 -0.2044  0.0490 -0.0450
86047W        W29038  31.535  28.140  20.044  0.1008  0.2001 -0.3138
86048W        W29039  12.622  23.748  25.268 -0.3551  0.0925 -0.1270
86049W        W29040   5.411  22.696   7.955  0.0140  0.0866  0.1188
86050W        W29041  15.026   7.422   8.035  0.2814 -0.1088  0.0382
86051W        W29042   2.071  20.441   9.418 -0.3911 -0.2414  0.0900
86052W        W29043   5.661  34.393   9.524 -0.0012  0.2721 -0.2890
86053W        W29044  12.108  21.194   9.050  0.1612 -0.0547  0.3397
86054W        W29045   2.610   2.789  28.341  0.0484  0.0536  0.1139
86055W        W29046   9.800  27.490   9.219  0.0512  0.0105  0.1004
86056W        W29047  32.005  33.219   5.636  0.0557 -0.3855 -0.2099
86057W        W29048  32.805  30.326  28.027 -0.1175  0.2623 -0.2903
86058W        W29049  24.470  31.625  23.321  0.0483  0.4370  0.2929
86059W        W29050  18.146  30.209   8.594 -0.0864  0.1992 -0.1228
86060W        W29051  13.129  25.163  25.798 -0.1063 -0.0640 -0.2830
86061W        W29052   6.517  28.512  20.231 -0.2713 -0.1694  0.1922
86062W        W29053   7.759   1.031  16.724 -0.3872  0.0328 -0.0519
86063W        W29054  33.158  24.915   5.305  0.1209 -0.0420  0.0756
86064W        W29055  25.479   1.016  22.488 -0.1403  0.2348 -0.1379
86065W        W29056   9.306  21.309  23.040  0.1425 -0.2680  0.2455
86066W        W29057  33.791  19.816  29.152  0.1319 -0.0180 -0.0128
86067W        W29058  31.509  31.211   6.155 -0.0243  0.2462  0.0124
86068W        W29059  20.296  32.911   5.662  0.2586  0.1094 -0.0133
86069W        W29060  31.871  31.453  21.293 -0.1926  0.1869 -0.1795
86070W        W29061  22.447  14.735  26.214  0.4437 -0.3781  0.0956
86071W        W29062   4.154   1.357   2.758 -0.3075 -0.1937  0.1609
86072W        W29063  11.966  16.935   5.429  0.0878  0.1676 -0.0955
86073W        W29064  16.030  26.322  26.421 -0.1125  0.1262  0.0668
86074W        W29065  15.590  31.712   5.909 -0.1574 -0.3088 -0.2511
86075W        W29066   3.627   0.317   8.402 -0.1587  0.1282  0.3170
86076W        W29067   5.188  24.857  24.930 -0.0855  0.2721  0.1763
86077W        W29068  15.823  20.586  18.698  0.1807 -0.1366  0.0873
86078W        W29069  12.450  23.081   5.765 -0.0922  0.3233  0.1536
86079W        W29070  14.699   9.551  19.500  0.2090  0.0344 -0.0330
86080W        W29071   8.710  30.753  29.231 -0.4170 -0.2432  0.1361
86081W        W29072   7.086  15.504   3.728  0.0855  0.1409 -0.4082
86082W        W29073   9.307  12.968  25.060 -0.0616  0.1098 -0.0040
86083W        W29074  32.913  22.564  27.074  0.2493  0.0343 -0.0888
86084W        W29075   5.361  26.376   0.962 -0.1634  0.2056 -0.2189
86085W        W29076  13.892  31.651   6.688  0.1430 -0.1647 -0.2662
86086W        W29077   4.230   8.417   3.345  0.0245 -0.4411 -0.2346
86087W        W29078  17.265  29.922  17.626 -0.0296  0.1594  0.0711
86088W        W29079  15.333  22.861   5.529 -0.3121  0.1915 -0.0326
86089W        W29080  13.787   7.014   8.487  0.2056  0.1088  0.1313
86090W        W29081  21.121  24.756  27.733  0.2026 -0.0518 -0.0068
86091W        W29082  20.032  24.449  22.112 -0.0139  0.1932 -0.0916
86092W        W29083  14.460  24.651  14.330  0.1972  0.3573  0.2996
86093W        W29084  24.162  25.470  23.890 -0.0412  0.1254 -0.1478
86094W        W29085  11.266  34.419   9.790  0.0464  0.1957  0.1906
86095W        W29086   5.395  26.886   1.266  0.0374  0.0129 -0.1364
86096W        W29087  20.965  22.385  25.030 -0.1606 -0.1364 -0.1686
86097W        W29088  17.410  25.106   3.912 -0.1326  0.1711 -0.3356
86098W        W29089  17.705  26.741   9.665  0.2816 -0.3680  0.3400
86099W        W29090   9.549  22.735  23.087  0.1868 -0.3673  0.0709
86100W        W29091  24.497  28.569   4.477 -0.2389  0.2167  0.0870
86101W        W29092   5.098  16.313  11.368  0.0793  0.1460 -0.0506
86102W        W29093   9.755  13.620   8.328  0.1000 -0.0314  0.0694
86103W        W29094   5.534  27.812   7.272 -0.0657 -0.0756  0.2465
86104W        W29095   9.898  18.854  10.389  0.2052 -0.2377  0.1758
86105W        W29096   1.363  30.823   5.179 -0.1003  0.3002 -0.2125
86106W        W29097  23.439  29.287  17.460 -0.1164  0.2045 -0.3706
86107W        W29098  11.532  13.556   6.889 -0.2523  0.2392  0.2042
86108W        W29099   1.329  33.495   4.858 -0.2687 -0.2912  0.1876
86109W        W29100  33.537  33.619  20.238 -0.2640 -0.0167 -0.2815
86110W        W29101  19.930  16.811   7.979  0.1478 -0.2153 -0.1873
86111W        W29102   0.832  13.839  11.431 -0.1674 -0.1343 -0.0041
86112W        W29103  20.466   0.886   7.221 -0.1327  0.1480  0.0740
86113W        W29104  14.816   0.669   7.254 -0.3347  0.4349  0.1527
86114W        W29105  30.062  24.871  28.164  0.1204  0.1316  0.1850
86115W        W29106   5.109  26.733   2.308  0.0155  0.0749 -0.0646
86116W        W29107   0.820  13.359  24.757 -0.3400  0.0443  0.0004
86117W        W29108  14.332   4.727   1.414  0.2265 -0.1970  0.1590
86118W        W29109   3.781  27.904  18.820 -0.0854  0.2180 -0.2131
86119W        W29110  11.487   1.902  27.023  0.0508  0.4678  0.0066
86120W        W29111  27.197  33.360  24.853  0.0497  0.1188  0.0669
86121W        W29112  14.883  18.466   8.427 -0.2914 -0.0059  0.0260
86122W        W29113   2.697   8.320   9.785  0.3907  0.3465  0.2152
86123W        W29114   3.532   9.757   8.136 -0.0759 -0.1213  0.3285
86124W        W29115   7.499   3.233   8.401  0.1058 -0.0753  0.0221
86125W        W29116   4.866  12.089  24.697  0.0461 -0.2577  0.3223
86126W        W29117  25.489  20.195  21.798  0.0847 -0.1028  0.2974
86127W        W29118  14.873  28.035   1.354 -0.2968 -0.1852  0.0864
86128W        W29119  16.351  26.401   6.989 -0.2322 -0.1619  0.1176
86129W        W29120   6.875  31.723   1.354  0.0908  0.0269 -0.1347
86130W        W29121  32.826   9.915  10.627 -0.0416  0.0241 -0.3976
86131W        W29122   2.344  13.808   7.935 -0.1645  0.4332 -0.4100
86132W        W29123   1.875  31.071   9.565 -0.2781  0.3661  0.1395
86133W        W29124  18.108  20.887  24.522 -0.2949  0.0012 -0.1651
86134W        W29125  11.569  25.850   5.567  0.2757  0.1524 -0.3654
86135W        W29126   9.290  27.423   2.534  0.0464  0.1307 -0.1664
86136W        W29127   9.088   1.581   2.153 -0.0828 -0.1265 -0.0176
86137W        W29128   7.804  24.240   7.259 -0.0909  0.0247  0.0671
86138W        W29129   3.990  13.222  20.888  0.1599 -0.0223  0.0690
86139W        W29130  32.005  34.411   7.129 -0.2278 -0.0143 -0.1953
86140W        W29131   1.256  27.866   6.513  0.0806 -0.1244 -0.1676
86141W        W29132  17.890  15.825  29.058 -0.2392  0.1732 -0.0779
86142W        W29133  11.588   6.100  27.688  0.2862  0.4192 -0.2116
86143W        W29134  34.315   5.888   2.418  0.0990 -0.1182  0.0476
86144W        W29135   1.049  29.970   0.395 -0.1023  0.0967  0.0165
86145W        W29136  19.886   1.674   9.186  0.1223 -0.1249  0.1720
86146W        W29137  15.232  12.605  25.616  0.1845  0.0521 -0.1503
86147W        W29138  17.155  22.407  23.726 -0.0020 -0.1674 -0.4905
86148W        W29139  12.429  33.833   1.786 -0.3944 -0.2854 -0.0808
86149W        W29140  19.959  28.742   7.595 -0.0872  0.1941 -0.1201
86150W        W29141  16.677  26.731   1.541  0.0758 -0.1522 -0.0216
86151W        W29142  20.497   6.429   0.402 -0.0439  0.1267 -0.2055
86152W        W29143   8.961  16.143  14.697  0.3001 -0.0344 -0.0268
86153W        W29144  14.981  10.682   2.559  0.1356  0.0274 -0.1606
86154W        W29145  18.305  30.239   3.225  0.0985 -0.0678 -0.1444
86155W        W29146   6.233  13.359   7.963 -0.0933 -0.1080 -0.2793
86156W        W29147  10.120  11.033  21.186 -0.2335  0.2965 -0.2645
86157W        W29148   7.314   0.059   6.163 -0.3165 -0.0056 -0.3618
86158W        W29149  14.622  21.845  22.430 -0.2287  0.0555  0.1351
86159W        W29150   2.704  27.824  27.854 -0.2672 -0.2527 -0.2152
86160W        W29151  17.049  27.380  29.032  0.1600 -0.1376  0.1500
86161W        W29152  12.596  26.533  21.229 -0.0436  0.1115 -0.1128
86162W        W29153  27.708  25.502   2.328  0.0588  0.0619  0.0459
86163W        W29154   4.508   0.454  21.104 -0.0981  0.0402 -0.3126
86164W        W29155   4.549  25.380  23.160  0.1591 -0.0848  0.3128
86165W        W29156   5.203   6.393  25.966 -0.2807 -0.0997  0.0269
86166W        W29157   9.079  17.090  23.230 -0.0280 -0.1042  0.2275
86167W        W29158  13.488  31.035   4.817  0.1381  0.2031  0.1226
86168W        W29159   1.244  24.287  28.982  0.1593 -0.0799 -0.3521
86169W        W29160  16.083  22.495   1.465  0.1979 -0.1644 -0.0091
86170W        W29161   4.195  13.807   4.861  0.4086  0.0488  0.0558
86171W        W29162  33.937  11.916  26.686 -0.1717  0.0834  0.1326
86172W        W29163   2.109  15.637  11.337  0.0442 -0.1759 -0.1340
86173W        W29164   5.737  18.212  28.754 -0.0540  0.3915  0.2081
86174W        W29165  10.849  26.645   1.039 -0.3005  0.1189 -0.1390
86175W        W29166   9.737   1.905  10.720 -0.0253  0.1749 -0.0157
86176W        W29167  31.709  33.672   6.419 -0.1109  0.1743  0.1078
86177W        W29168  18.852  10.236   5.466 -0.2747  0.1346  0.0340
86178W        W29169  17.618  22.981   4.706 -0.0599  0.0843  0.2821
86179W        W29170  15.806  32.528   4.138 -0.1522  0.2572  0.0384
86180W        W29171  12.891   9.835   4.457 -0.2366  0.0411 -0.1372
86181W        W29172   5.902   0.739   8.320 -0.1049 -0.0163  0.2003
86182W        W29173  14.921  19.051   3.750  0.1502  0.0841  0.0189
86183W        W29174  14.133  28.743   6.299 -0.2644 -0.1144 -0.0568
86184W        W29175  12.745  24.320  24.053 -0.1622 -0.0517  0.3019
86185W        W29176  22.028   2.769  29.152  0.0642  0.0218  0.1526
86186W        W29177  10.120  24.439   4.492 -0.0640  0.0264  0.0861
86187W        W29178   9.067  25.310   9.779 -0.0009  0.3900 -0.2098
86188W        W29179  18.633   1.107   5.655  0.0084  0.0381 -0.1739
86189W        W29180   2.878  27.815  14.028 -0.1592 -0.0831  0.3651
86190W        W29181   9.495  23.744  22.914  0.1555  0.0747  0.1365
86191W        W29182   6.000   2.739  23.711  0.2130 -0.1005  0.1760
86192W        W29183  12.368  16.971  14.307  0.2547 -0.1616 -0.1448
86193W        W29184  32.397  31.486  28.671 -0.0536 -0.1497 -0.0992
86194W        W29185  33.536  26.496   2.851 -0.1027  0.1174 -0.0370
86195W        W29186  33.184  19.125   0.748 -0.1087  0.1310  0.0324
86196W        W29187   6.988  28.146   3.241 -0.0955 -0.2893 -0.1331
86197W        W29188   5.532  24.163   1.718  0.3321  0.1624 -0.0530
86198W        W29189   6.299  27.515   7.776  0.4003  0.0954  0.0965
86199W        W29190  32.817  16.514   0.631  0.2106 -0.1204 -0.1433
86200W        W29191  33.244  28.886  28.680  0.0786  0.0632 -0.2690
86201W        W29192  17.814   9.929  24.199 -0.0755  0.2895 -0.3183
86202W        W29193   5.329  19.217  11.649  0.0821  0.0208 -0.0858
86203W        W29194   2.677   8.367  11.095  0.1123  0.0370  0.0908
86204W        W29195   6.473   0.454  25.536  0.2928 -0.5578 -0.0154
86205W        W29196  19.007  30.536  21.288  0.2472 -0.3328 -0.0459
86206W        W29197   7.770  29.572   2.888 -0.0022 -0.1018 -0.1982
86207W        W29198   1.794   4.795   1.932 -0.3702 -0.1590 -0.1788
86208W        W29199  14.019  20.559  24.418  0.2993 -0.0575  0.2099
86209W        W29200   5.927  27.974  24.187  0.1212  0.0237  0.0616
86210W        W29201  18.211  31.884   7.617 -0.1518 -0.0755  0.1273
86211W        W29202  12.108  29.275   1.271  0.2019 -0.0864  0.0642
86212W        W29203   3.092  10.626  19.918  0.0947 -0.1806  0.0234
86213W        W29204   1.296  29.539   8.521 -0.0358 -0.0829  0.0736
86214W        W29205  18.319  33.558  14.973 -0.0778  0.0053 -0.2010
86215W        W29206   2.417  34.062   7.507 -0.0127  0.0218 -0.0308
86216W        W29207   5.727  28.595  20.350 -0.1574 -0.1111 -0.1660
86217W        W29208  16.639  31.840  27.693  0.1825  0.2953 -0.0934
86218W        W29209   7.904  26.194   7.289  0.0586  0.1001  0.1712
86219W        W29210  20.956  13.978   1.073 -0.3288 -0.0883 -0.1798
86220W        W29211  20.393  29.050   4.173  0.0115 -0.0013 -0.4192
86221W        W29212  16.315  27.267  26.117  0.0465  0.0039  0.0080
86222W        W29213  33.126   2.019  28.887  0.0699  0.0633 -0.1150
86223W        W29214  20.492  20.836   0.378  0.1492  0.1476  0.1478
86224W        W29215  10.630   4.060   2.509  0.1320  0.4315  0.0219
86225W        W29216  28.797   7.160   6.247 -0.2213  0.0158  0.1220
86226W        W29217  14.482  34.635   9.822 -0.0056 -0.0729 -0.3078
86227W        W29218  12.633  11.342  28.997  0.1684 -0.1803  0.0716
86228W        W29219  19.569   0.195   7.418  0.1697 -0.1161 -0.2752
86229W        W29220   8.287  22.343   6.066 -0.1308 -0.0088 -0.1106
86230W        W29221  27.143  34.090   3.978  0.0741  0.1152 -0.2052
86231W        W29222  18.454  23.003   2.666  0.1343 -0.0948 -0.0540
86232W        W29223   2.367  11.885   9.895 -0.2336  0.1345 -0.2218
86233W        W29224   6.085   0.423  28.380  0.0590  0.2351 -0.0661
86234W        W29225   9.426  32.326  22.202  0.3982  0.0987 -0.1723
86235W        W29226  31.813   4.584   9.200  0.0199 -0.1973  0.1337
86236W        W29227  14.937  32.121   3.131 -0.0492  0.0070 -0.0307
86237W        W29228   7.888  27.962   4.271 -0.0197  0.4741 -0.3227
86238W        W29229   2.720   3.596   9.899  0.1225  0.0510 -0.2632
86239W        W29230   7.228  28.460   3.825 -0.0036 -0.1165  0.4552
86240W        W29231  25.062  30.004   7.459 -0.1857 -0.2711  0.0356
86241W        W29232   4.063   4.037  27.969  0.0216  0.3172  0.3952
86242W        W29233   4.557  33.415  25.536  0.4154 -0.0314 -0.3804
86243W        W29234  19.042  11.564  26.626 -0.1974 -0.0850 -0.2311
86244W        W29235  17.516  18.563   2.583 -0.0800 -0.1001 -0.0678
86245W        W29236  19.845  28.267   8.952  0.0880 -0.0606  0.1856
86246W        W29237   1.300   2.538   4.136  0.0660  0.1873 -0.0737
86247W        W29238  13.368   1.661  10.999 -0.0440 -0.0759 -0.3773
86248W        W29239   4.772  19.636   8.140 -0.0605  0.1047 -0.2050
86249W        W29240  15.609   2.165   5.288  0.0977  0.0976 -0.2096
86250W        W29241  25.517  30.960   3.817 -0.1446  0.0262  0.2106
86251W        W29242  14.881  24.540   7.711  0.1193  0.0293  0.0240
86252W        W29243  13.035  29.016   7.640 -0.5007 -0.2757 -0.1131
86253W        W29244   3.140  27.369  28.025  0.0599  0.1321 -0.3157
86254W        W29245  12.513  34.738   2.672  0.1294 -0.0260 -0.0162
86255W        W29246   9.497   3.165   7.677  0.0685  0.2713  0.1898
86256W        W29247  29.378  23.879  19.233 -0.3652 -0.2197 -0.1181
86257W        W29248   1.381   1.171   2.588  0.1403 -0.0555 -0.0648
86258W        W29249  20.255  28.559  27.325  0.0149 -0.2195  0.3113
86259W        W29250  13.086  11.884   8.227  0.0781  0.1735  0.1203
86260W        W29251   9.207  33.244  19.277 -0.5727 -0.0873 -0.0441
86261W        W29252   6.458  21.137  28.209  0.0817  0.2052 -0.2315
86262W        W29253   0.315  27.629   5.550  0.2094  0.2618  0.0802
86263W        W29254  12.760  10.538   2.511  0.1652  0.2890 -0.0319
86264W        W29255  14.590  12.619   3.013  0.6107  0.0693  0.0887
86265W        W29256  15.397   5.135   1.713 -0.0841 -0.2782  0.0965
86266W        W29257  10.582   0.855   6.704 -0.5544  0.0215 -0.3008
86267W        W29258  21.932  22.109  20.430  0.0879  0.2382  0.1371
86268W        W29259   7.367  25.786  16.017 -0.1142 -0.2045  0.1840
86269W        W29260   4.603  21.432   7.617  0.0164 -0.0709  0.1303
86270W        W29261   9.139   2.478   5.837 -0.3306 -0.3111 -0.0432
86271W        W29262   5.296   2.084   5.031  0.0551 -0.0007 -0.1771
86272W        W29263   1.630   3.840   6.892  0.1026  0.1063 -0.0807
86273W        W29264  10.039  27.009   0.638 -0.0149  0.3050  0.1817
86274W        W29265   1.985  17.763   6.721 -0.4935 -0.1106  0.0636
86275W        W29266  30.259   8.760   6.281 -0.1237 -0.0477 -0.4324
86276W        W29267   9.584   2.968   5.800  0.0264 -0.0869 -0.2126
86277W        W29268   4.454  20.667   4.762 -0.0435  0.0225 -0.1944
86278W        W29269  22.797  28.182   6.960  0.2364 -0.1682  0.2937
86279W        W29270  11.467   9.467  25.897 -0.0174 -0.0210  0.0035
86280W        W29271  29.134  13.628   4.816  0.0345  0.3152  0.1575
86281W        W29272  18.771  34.168  28.591  0.0638 -0.0615 -0.2615
86282W        W29273  18.151  25.547   9.234 -0.0889 -0.1146  0.0560
86283W        W29274  33.839  20.926  21.220  0.0294  0.0266  0.1250
86284W        W29275  16.466   3.517   9.644 -0.1469  0.0843  0.2243
86285W        W29276  31.453  30.216  19.731 -0.0545 -0.1572  0.1344
86286W        W29277  11.429  24.995   5.886  0.1045 -0.2376 -0.1908
86287W        W29278  15.327   0.112  20.799  0.1537 -0.3754  0.4111
86288W        W29279  13.233  21.264  28.213  0.0603 -0.1663  0.3411
86289W        W29280   2.593  34.743  21.772 -0.0219  0.1034 -0.2296
86290W        W29281   3.906   2.923  10.083 -0.1128  0.0826 -0.3699
86291W        W29282  13.471   2.625  18.838 -0.0486 -0.4833  0.4226
86292W        W29283  19.990   4.067   0.717 -0.0486 -0.1707  0.4729
86293W        W29284  31.214   6.289   6.385  0.1398  0.0126  0.0166
86294W        W29285  15.463  25.063  22.545  0.0738  0.0537  0.2521
86295W        W29286   7.585  28.646   9.195 -0.0636  0.1475 -0.0763
86296W        W29287   8.710   1.829   8.014  0.2743  0.2765  0.0087
86297W        W29288  28.032  26.142  17.098 -0.2298 -0.2232 -0.1351
86298W        W29289  13.720  33.178   0.470 -0.6203 -0.0862  0.0353
86299W        W29290   3.745   4.815  27.262  0.2225 -0.0374  0.0058
86300W        W29291   4.534  19.444  10.069  0.0843 -0.1980 -0.2995
86301W        W29292   8.764  21.522   6.522 -0.1425 -0.0062 -0.2701
86302W        W29293  13.047  10.715   7.554  0.0223  0.1267 -0.0473
86303W        W29294  12.269  14.905  18.136 -0.1537 -0.0000  0.1279
86304W        W29295  27.430  22.618  27.889  0.0454  0.1630 -0.0008
86305W        W29296  11.456  22.127   6.305 -0.2118  0.2021 -0.3394
86306W        W29297  25.196  12.127   1.354  0.2214 -0.1814  0.1010
86307W        W29298  17.365  29.356   2.673  0.0324 -0.0880  0.2836
86308W        W29299  24.736  30.771  16.595  0.1592 -0.1848 -0.1819
86309W        W29300   6.380   2.416   1.571 -0.2404  0.2554 -0.0397
86310W        W29301   7.036  31.420  20.787 -0.1283  0.5197  0.1215
86311W        W29302  20.370  25.133   0.752 -0.0532  0.1442 -0.3100
86312W        W29303  19.136  23.708   0.454 -0.0586  0.0384 -0.0644
86313W        W29304  11.764   1.718  22.011  0.1594 -0.1647  0.2683
86314W        W29305   3.202  10.636  25.583  0.1133 -0.0545 -0.4092
86315W        W29306   7.200  30.526   9.014 -0.2184 -0.3152 -0.0500
86316W        W29307  12.684  33.413  27.351 -0.0027 -0.0886 -0.3083
86317W        W29308  29.884  11.902   0.018  0.4033  0.1885 -0.0048
86318W        W29309  34.352   9.182   7.740 -0.0472 -0.2140 -0.0382
86319W        W29310   2.498   2.460  10.543 -0.3115  0.2010 -0.3368
86320W        W29311  17.488   1.884   5.496 -0.1291 -0.3486 -0.2668
86321W        W29312  18.951  27.657   2.736 -0.0614  0.2461 -0.0505
86322W        W29313  25.177  24.352   5.860 -0.1679  0.0645  0.2442
86323W        W29314  10.534  33.408  27.840 -0.1408  0.2068 -0.3456
86324W        W29315   2.580   8.541  23.572 -0.3355  0.2443 -0.0728
86325W        W29316   5.855   6.761   7.850  0.0796 -0.2784 -0.1680
86326W        W29317   4.825  30.903   6.039  0.0567  0.1105 -0.1046
86327W        W29318  32.978   3.941  28.075 -0.2873 -0.2666  0.1519
86328W        W29319   2.713   1.692  28.351 -0.2024 -0.0237 -0.0104
86329W        W29320   6.951  33.715   5.462 -0.2247  0.1157  0.1422
86330W        W29321   3.180  11.117  10.730  0.1782 -0.0376  0.2497
86331W        W29322  22.967  23.287   2.659 -0.0861 -0.0668 -0.2065
86332W        W29323  17.522   3.931   9.043 -0.1688  0.2438  0.0507
86333W        W29324  14.789  24.590   1.249  0.4107  0.0054  0.4810
86334W        W29325   0.168  26.456   5.735 -0.0256 -0.3031  0.0187
86335W        W29326  13.766  34.200   7.820 -0.0430  0.0496  0.0214
86336W        W29327  13.393  32.115  14.851  0.2259 -0.2096  0.3710
86337W        W29328  20.041  14.331   3.516 -0.1347 -0.2206  0.1364
86338W        W29329   2.197  22.537   0.136  0.0691  0.0113 -0.2806
86339W        W29330  33.230  23.991   9.963 -0.0650 -0.2098  0.0999
86340W        W29331  16.868   1.519  25.186  0.0508  0.0191 -0.2383
86341W        W29332   3.339  14.301  15.863  0.3060  0.0914 -0.1236
86342W        W29333  16.839  12.233  20.466  0.2109  0.0420 -0.0660
86343W        W29334  19.179  34.763   5.427  0.2431  0.0138  0.0114
86344W        W29335   3.571  20.418   6.522 -0.2697  0.0776 -0.1757
86345W        W29336  30.724  24.204   0.484  0.3506 -0.0129 -0.1969
86346W        W29337  16.628   6.548  22.111  0.1065  0.2319  0.0141
86347W        W29338  21.603   4.927   5.237 -0.0229 -0.2619 -0.0821
86348W        W29339   6.532  23.074   8.307  0.0340  0.3743  0.2113
86349W        W29340  27.968   3.121  27.745  0.1724  0.3999  0.2468
86350W        W29341   3.943   2.617  27.496 -0.0452  0.3471  0.2047
86351W        W29342  13.890  20.385  16.755  0.1324 -0.0407  0.0179
86352W        W29343  13.099  25.099   2.724 -0.1588  0.2588  0.2836
86353W        W29344   3.607   8.623   4.778 -0.2832  0.3056 -0.2242
86354W        W29345   5.761  32.515   5.311 -0.1296 -0.0047  0.1308
86355W        W29346  15.740  29.687  10.079 -0.0473  0.2654  0.3908
86356W        W29347  10.591  33.754  10.195 -0.2483  0.1125  0.3101
86357W        W29348  15.764  29.945  27.651 -0.0886 -0.4118 -0.1216
86358W        W29349   9.987   5.026   4.880  0.0641  0.0187  0.1126
86359W        W29350  10.040  25.276   9.503 -0.1108 -0.1795 -0.2460
86360W        W29351  22.185  28.148   6.326  0.1642  0.0723  0.1324
86361W        W29352   9.627   8.795  22.422  0.1324  0.0956 -0.0686
86362W        W29353   2.167  13.469   7.403 -0.0564  0.2865  0.0809
86363W        W29354  19.312  12.768   8.873 -0.0601  0.1729  0.0393
86364W        W29355  21.859  31.676   4.637 -0.2192 -0.0559 -0.0696
86365W        W29356  16.912  10.221   7.613  0.2101  0.4910  0.0967
86366W        W29357  33.975  22.801  28.001 -0.0811 -0.1879  0.0855
86367W        W29358   2.747  14.021   7.790 -0.2521  0.1468  0.4672
86368W        W29359   4.563  29.479   7.393  0.0003  0.0791 -0.1797
86369W        W29360   1.715  29.623  28.317  0.0563 -0.0365  0.0217
86370W        W29361   6.718  29.455  25.541 -0.1372  0.1143 -0.1570
86371W        W29362  18.890  33.696   4.458  0.0681  0.0498  0.1116
86372W        W29363  16.937  22.166   8.632  0.0910  0.2780 -0.0733
86373W        W29364  14.281  26.073  20.782  0.1374 -0.1304  0.1829
86374W        W29365   3.766   3.807  25.103 -0.4336 -0.0592  0.1491
86375W        W29366  13.244  28.663   8.395 -0.0843  0.2430 -0.0072
86376W        W29367   4.684  28.904   7.308  0.1177  0.0826 -0.0692
86377W        W29368   4.139   6.894  28.591  0.0900 -0.1513 -0.0698
86378W        W29369   1.330  32.152   5.289 -0.1147 -0.0447 -0.1927
86379W        W29370  10.229  24.086  22.826  0.2364  0.1898  0.0134
86380W        W29371  10.968  31.111  26.660  0.1111  0.3225 -0.2279
86381W        W29372  27.445  12.595   3.509 -0.2727 -0.2101  0.0274
86382W        W29373  13.411  32.657  26.132  0.1723  0.0428 -0.0587
86383W        W29374   2.177  28.837  10.130  0.0487 -0.0292  0.0648
86384W        W29375  32.888   3.132  18.393 -0.1183 -0.3967 -0.1782
86385W        W29376   8.282  26.476   3.385  0.0408  0.3834 -0.1288
86386W        W29377  23.822   0.950   4.245 -0.2701  0.2345  0.0402
86387W        W29378   4.515  21.698   4.645 -0.0978  0.0278 -0.2904
86388W        W29379  16.787   6.749   9.499  0.1255  0.2016 -0.1185
86389W        W29380  33.550  32.912   6.762  0.0430 -0.0854 -0.0757
86390W        W29381   5.645  25.227   7.515  0.1244 -0.2108 -0.1969
86391W        W29382  11.356  10.072   4.906  0.2473 -0.0495  0.1900
86392W        W29383   1.815  34.262  24.975 -0.0912  0.2339 -0.1908
86393W        W29384   4.316  26.746   5.315  0.1851  0.0736  0.0064
86394W        W29385  10.512  10.853  16.689  0.1909 -0.2455  0.0151
86395W        W29386  31.430   4.258   7.325 -0.3792  0.0304  0.1645
86396W        W29387  16.968  16.839   4.978  0.0744  0.0675  0.0882
86397W        W29388  18.394   3.515  26.002 -0.2815  0.2024 -0.2597
86398W        W29389  16.015  21.594   7.888 -0.1836 -0.1524 -0.0504
86399W        W29390  11.640  27.220   4.773  0.3856  0.0819  0.2859
86400W        W29391   7.875  20.397  28.593 -0.2794  0.0877 -0.0858
86401W        W29392  32.599  32.652   1.771  0.0857  0.1853 -0.1881
86402W        W29393   3.002  14.158   9.247 -0.0360 -0.1590  0.0387
86403W        W29394   9.515   1.160  10.330  0.0440 -0.3289  0.1736
86404W        W29395  27.148  31.165  23.489  0.4073  0.1343 -0.0211
86405W        W29396   2.890  26.693  25.047  0.0362  0.0522 -0.1019
86406W        W29397  13.602  22.649   6.745  0.4060  0.4441 -0.0743
86407W        W29398  21.527  20.604  21.243 -0.0009 -0.2287  0.0686
86408W        W29399   5.791  21.819   4.196 -0.0197 -0.0435 -0.2402
86409W        W29400   5.376  23.434   4.230  0.2269 -0.0243  0.1367
86410W        W29401  20.002  32.409   8.788  0.3331  0.3016  0.0651
86411W        W29402  10.508   0.311   4.074 -0.2119 -0.1308 -0.0265
86412W        W29403  33.735  29.170  17.933  0.0846  0.0302  0.1809
86413W        W29404   9.567  34.195   2.378 -0.0303 -0.0266 -0.3360
86414W        W29405   5.761  18.811  19.383 -0.1498  0.0764  0.0178
86415W        W29406  23.018  28.477  26.391  0.3488 -0.2259 -0.1971
86416W        W29407   2.997   4.446   3.406  0.0263 -0.0328  0.1833
86417W        W29408  15.933  14.100   6.750  0.0274 -0.1477 -0.0852
86418W        W29409  13.760   2.138   2.275 -0.1432 -0.2149 -0.0489
86419W        W29410  32.036  17.532   8.223 -0.2461  0.0779 -0.2680
86420W        W29411  17.345  22.377  26.602 -0.2417  0.1036 -0.0971
86421W        W29412  32.805   4.098   3.643  0.0966  0.1028 -0.0920
86422W        W29413  19.117   1.556   6.674  0.0042 -0.0221  0.1221
86423W        W29414   0.742   5.257   1.685  0.0912  0.0545 -0.1898
86424W        W29415  19.699  23.555   2.167 -0.5247 -0.0084  0.0332
86425W        W29416  22.957  28.438   8.599  0.0719  0.5028  0.0256
86426W        W29417   8.361  28.866   2.679 -0.0968 -0.1210  0.2945
86427W        W29418  17.847  30.066   9.882 -0.3020  0.0287 -0.3657
86428W        W29419  31.674  12.089  19.132  0.0319  0.0041  0.0158
86429W        W29420  11.149  31.719   5.356 -0.0128 -0.2630 -0.0466
86430W        W29421   2.875  24.359   5.686  0.0410 -0.0655 -0.1706
86431W        W29422   4.258  31.327   9.444  0.1594  0.1754  0.0596
86432W        W29423  33.027  20.708   7.355  0.1544  0.1259  0.2367
86433W        W29424  26.498  13.486   7.086  0.0427  0.1342 -0.0127
86434W        W29425  18.996   8.048  10.221 -0.1394  0.3242  0.0719
86435W        W29426  16.918  34.451   6.553  0.2051  0.0958  0.0650
86436W        W29427   5.429   9.885   2.655 -0.1950  0.0177  0.4673
86437W        W29428  29.758  33.746   7.433  0.2274  0.2027 -0.0735
86438W        W29429   0.108  33.422   9.182  0.3683 -0.0773  0.0058
86439W        W29430   7.684  19.548   7.071  0.1660 -0.3731 -0.2782
86440W        W29431  19.816   1.066   4.864 -0.1840 -0.1322 -0.1506
86441W        W29432  11.161  10.267   8.703  0.0595 -0.2051 -0.0739
86442W        W29433   3.444  34.663   8.156 -0.0526 -0.1270  0.1775
86443W        W29434  15.283  23.095   0.886 -0.0003 -0.4247 -0.1174
86444W        W29435  17.438  16.725   6.361 -0.0431  0.1258 -0.2427
86445W        W29436  23.684   0.904  27.862  0.2555  0.1934  0.0616
86446W        W29437   9.874  30.855  23.324 -0.1756 -0.1562  0.2509
86447W        W29438   2.826  34.472  25.808 -0.2444 -0.0187 -0.1761
86448W        W29439  14.754  29.141   4.661 -0.0263 -0.1981 -0.1749
86449W        W29440   0.331  12.146   1.686  0.0704 -0.1877 -0.0943
86450W        W29441  32.797  17.536   0.885  0.2771 -0.2123 -0.2520
86451W        W29442  12.032   0.808   4.304  0.2636  0.1060 -0.4132
86452W        W29443   3.926  26.382   6.280  0.0465  0.0019 -0.2635
86453W        W29444  24.921   0.806   7.235 -0.2416 -0.3777 -0.3086
86454W        W29445   3.393   7.075   1.582  0.2542 -0.5266 -0.0320
86455W        W29446  16.140   8.832  14.588 -0.1537 -0.2247  0.1637
86456W        W29447  28.130   6.411  26.793  0.0908  0.2132 -0.1548
86457W        W29448  26.344  31.279   4.063 -0.4317  0.2208  0.3989
86458W        W29449  33.790  31.550  28.505 -0.0115 -0.1473  0.0377
86459W        W29450   2.137  10.312   2.552 -0.4454 -0.1126  0.5644
86460W        W29451  11.652  17.936  13.539 -0.4495 -0.2540  0.0402
86461W        W29452  12.035   7.378   6.508  0.0021  0.3582  0.3284
86462W        W29453  28.476   1.546  25.787  0.0277 -0.0930 -0.0237
86463W        W29454   4.341   3.429   2.422 -0.2850 -0.0865  0.2188
86464W        W29455  34.020  17.732   9.997 -0.0057 -0.0523  0.3243
86465W        W29456  13.309  18.216   6.995  0.1975 -0.0888  0.0879
86466W        W29457   9.960   9.376  16.101 -0.0559  0.0394 -0.0173
86467W        W29458  15.956  15.683  14.397 -0.4681  0.0392 -0.3108
86468W        W29459   6.909   7.709  28.568  0.0933 -0.0293 -0.0090
86469W        W29460   8.518  10.881  17.864 -0.1779 -0.0245 -0.1044
86470W        W29461   3.671  30.071   3.009 -0.3081 -0.1401  0.4373
86471W        W29462  12.525   1.119  21.677 -0.1226 -0.0046 -0.2761
86472W        W29463   9.966  19.635   1.888  0.1597  0.1210  0.0232
86473W        W29464  14.320  33.702   0.860 -0.1148 -0.1463 -0.0818
86474W        W29465  23.353  27.408   8.738  0.5365  0.0519 -0.1934
86475W        W29466   7.992  27.677  28.096 -0.0353 -0.0273 -0.3210
86476W        W29467  31.855  19.991   7.177 -0.1228 -0.0650 -0.1393
86477W        W29468  13.554  31.086   9.842 -0.0062  0.1808 -0.3026
86478W        W29469   9.334  19.355  24.907 -0.0152 -0.2063  0.0814
86479W        W29470  14.116  26.380  22.595  0.2004  0.2258  0.0318
86480W        W29471  28.159  31.805  25.740  0.0034 -0.1174 -0.0307
86481W        W29472  30.492   7.221  26.166  0.3689 -0.1369 -0.0628
86482W        W29473   8.593  29.941  24.141  0.0268  0.1955 -0.0743
86483W        W29474  17.064  14.787  21.273 -0.0565 -0.2258 -0.0549
86484W        W29475  30.417  34.686  22.760  0.0794 -0.1624 -0.0540
86485W        W29476  33.475  24.132   9.545 -0.4944  0.2449  0.3193
86486W        W29477  10.666  21.617   4.485  0.1892 -0.1880 -0.0085
86487W        W29478  15.508   1.111   4.016  0.2296 -0.1194 -0.1415
86488W        W29479   6.706  29.277   7.269 -0.1330 -0.1257  0.0922
86489W        W29480   9.678   8.178   4.091  0.0897  0.0002 -0.2055
86490W        W29481  28.026  21.277   4.381  0.0670  0.3628 -0.2002
86491W        W29482   6.973  26.463   2.519 -0.2183  0.1517 -0.1359
86492W        W29483  25.967   4.800   1.855  0.1671 -0.5014 -0.0936
86493W        W29484  10.007  28.400   3.690  0.1527 -0.1004 -0.1171
86494W        W29485  18.277  32.479  29.010 -0.0569  0.0043  0.0613
86495W        W29486  10.929  21.148   5.701 -0.3448 -0.0900  0.1500
86496W        W29487  17.339   4.577   6.347 -0.0929 -0.2056  0.1903
86497W        W29488  32.942  32.863   4.117  0.2254  0.1162 -0.0499
86498W        W29489   9.612  25.875  26.290 -0.0676  0.1050 -0.0788
86499W        W29490  12.027   3.801   5.946 -0.1101 -0.0680 -0.2148
86500W        W29491   3.155  20.872  23.292  0.0104 -0.4181 -0.2168
86501W        W29492  15.441  28.802   0.967  0.1403  0.3396  0.0113
86502W        W29493   7.872  21.583   0.988  0.0887 -0.0285  0.0272
86503W        W29494  18.566  30.951   5.625  0.1558 -0.0653 -0.1536
86504W        W29495  15.287  14.004   1.655  0.1327  0.0048 -0.2400
86505W        W29496  10.560  23.729   7.767 -0.0600 -0.0685  0.0687
86506W        W29497  31.293  34.670  27.655 -0.1387  0.0279  0.2416
86507W        W29498   2.721  22.796  10.665  0.0510  0.0876  0.0794
86508W        W29499  34.305  25.726   0.667 -0.0730 -0.2399 -0.1680
86509W        W29500   2.731  32.860   8.657 -0.1412 -0.0769 -0.2429
86510W        W29501   6.919  33.221   5.713 -0.0033 -0.4647  0.2225
86511W        W29502   6.497  24.821  25.600 -0.0125 -0.0163  0.1435
86512W        W29503  11.802  14.501   3.646  0.0079  0.2147  0.2417
86513W        W29504  20.557  30.979   2.562  0.0163 -0.1497  0.1361
86514W        W29505   9.773  27.425  28.758  0.0454  0.2681 -0.2290
86515W        W29506  18.978   8.680   8.650 -0.1070 -0.1018  0.1466
86516W        W29507   8.011  23.682   6.068  0.2528 -0.2810  0.2159
86517W        W29508   1.990   2.545  29.117 -0.1250 -0.0320 -0.0664
86518W        W29509   8.371  22.787   9.648 -0.1580  0.0206  0.1173
86519W        W29510   8.819  19.133   7.452 -0.1070 -0.0338 -0.1443
86520W        W29511   8.047  32.943  25.397  0.1112 -0.1521 -0.0977
86521W        W29512   8.039  33.330   4.529 -0.0413  0.2594  0.0531
86522W        W29513  23.821   5.366   6.279  0.1521  0.0884 -0.1054
86523W        W29514  12.443  28.559   0.884 -0.0811  0.2228 -0.3218
86524W        W29515  10.695  18.328  27.180  0.1292 -0.0574 -0.3917
86525W        W29516  14.928  21.019   7.683 -0.1185 -0.2326  0.0857
86526W        W29517  20.204  25.469  24.541  0.3085  0.0148 -0.1829
86527W        W29518  22.947  10.448  15.570  0.1103  0.1453  0.1182
86528W        W29519   7.247   1.052  24.133 -0.1164 -0.0808 -0.1670
86529W        W29520  13.808  31.416   2.174 -0.0927 -0.1391 -0.0637
86530W        W29521  23.796   2.812  18.424 -0.1613  0.0157  0.0625
86531W        W29522  24.764   4.757   5.242 -0.0994  0.0114 -0.1153
86532W        W29523  15.672   3.079   5.329 -0.1820 -0.0440 -0.3304
86533W        W29524  29.955  28.342   0.190  0.2275  0.2226  0.1840
86534W        W29525  22.914  21.916   9.454 -0.1682 -0.0797 -0.1415
86535W        W29526   5.745   0.238   9.947  0.0365  0.1035  0.3086
86536W        W29527  24.296  34.646   7.777  0.2271  0.0725  0.0546
86537W        W29528  32.986   6.211   3.022 -0.3117 -0.0182  0.0276
86538W        W29529   7.552   2.415   0.436  0.0216  0.0846  0.3668
86539W        W29530  30.083  26.924  21.037 -0.1978  0.0489 -0.0816
86540W        W29531  15.743   6.247   3.419 -0.0403  0.2996 -0.0595
86541W        W29532   7.399  30.930   3.093 -0.0644  0.0556 -0.1141
86542W        W29533  34.184   2.388  27.420  0.1716 -0.1850  0.2988
86543W        W29534  27.719  10.928   7.491 -0.0547 -0.0634 -0.2741
86544W        W29535  27.986   0.329   3.571  0.0813 -0.0148  0.1089
86545W        W29536  28.522   5.483  23.246 -0.0544  0.0562  0.0388
86546W        W29537   8.808  34.108   8.366  0.2197  0.0330  0.0030
86547W        W29538  19.787  24.235   8.286  0.1568 -0.0661  0.2277
86548W        W29539   4.111  27.489   4.130 -0.0361 -0.0647  0.0726
86549W        W29540   2.353  15.768  12.163 -0.0024 -0.0259 -0.0412
86550W        W29541   9.471  27.394   0.796  0.0833  0.3670 -0.1369
86551W        W29542  29.558   9.436   6.992  0.3768  0.0283  0.1798
86552W        W29543   2.888   1.598  21.240  0.3009 -0.0052  0.0368
86553W        W29544  23.903   0.241   8.466  0.1159  0.2187 -0.1038
86554W        W29545  29.448  28.616   3.459 -0.0142  0.2734 -0.2782
86555W        W29546  14.087  33.716   9.588 -0.0647  0.2729 -0.2591
86556W        W29547   7.029   8.211   8.229  0.2511 -0.2411  0.1853
86557W        W29548  13.701  19.062  12.945 -0.3225 -0.2052 -0.1616
86558W        W29549   6.257  34.687   5.360 -0.1239 -0.1959 -0.0338
86559W        W29550   9.677   3.670   6.544 -0.0527 -0.0455 -0.0499
86560W        W29551  26.459   1.537   7.028 -0.0903 -0.1347  0.3519
86561W        W29552  22.498  27.571   7.007 -0.0495  0.1898  0.0833
86562W        W29553   6.347  32.637   4.511  0.0457 -0.1337  0.3145
86563W        W29554   9.536  19.542   7.377  0.3875  0.0830 -0.0755
86564W        W29555  26.199  23.422   2.308  0.1374 -0.0805  0.1908
86565W        W29556  23.792  21.118   6.056  0.0745  0.2078  0.4091
86566W        W29557  21.411  12.296   2.037 -0.0717 -0.2363  0.0265
86567W        W29558   2.147  32.343   1.669  0.0888  0.3019 -0.1817
86568W        W29559  13.764  33.104  10.242 -0.1219 -0.1202 -0.4407
86569W        W29560   1.622  22.486   5.533  0.0870  0.0578  0.1612
86570W        W29561   0.700  16.491  26.431  0.0305  0.3189  0.0108
86571W        W29562  16.160  17.329  25.247 -0.1256 -0.0153 -0.0513
86572W        W29563  31.076   7.497  18.256  0.0308  0.3722 -0.2612
86573W        W29564  23.621  24.933   5.856  0.0096  0.1896  0.1783
86574W        W29565  12.019  23.219   2.634 -0.0499 -0.4244  0.0754
86575W        W29566  14.677  12.996  19.134 -0.1083  0.0620  0.0617
86576W        W29567  17.814  16.964   0.420  0.0089  0.0377 -0.2461
86577W        W29568  13.968   1.104   4.275 -0.0797  0.2578 -0.0807
86578W        W29569   7.016  10.275  22.275  0.1547 -0.2547  0.0090
86579W        W29570  29.269  28.670   5.980 -0.1116  0.4387 -0.2517
86580W        W29571  13.067   0.133  27.742  0.0219  0.1440  0.2294
86581W        W29572  13.970   6.976   1.093 -0.0531 -0.1417 -0.2204
86582W        W29573  22.229  30.672  19.234 -0.1828  0.1871 -0.1392
86583W        W29574  10.932  23.365  21.444  0.0624 -0.0625  0.2418
86584W        W29575   0.382  21.556   2.916 -0.0456  0.1048 -0.3328
86585W        W29576   6.967  28.206  29.020 -0.2099  0.0297  0.1425
86586W        W29577  15.167  34.400   7.856 -0.3770  0.1385  0.1542
86587W        W29578  21.618  22.778   2.406 -0.0015  0.1052 -0.0556
86588W        W29579  34.392  22.649  10.421  0.0355 -0.0117 -0.3239
86589W        W29580   2.469  22.151   3.815 -0.1463 -0.2782  0.0520
86590W        W29581   2.133  32.349   2.731  0.1065  0.0380  0.1916
86591W        W29582  31.961  24.474   2.569  0.1832 -0.2506  0.0612
86592W        W29583   3.070   3.590  24.840  0.1737 -0.0631 -0.1363
86593W        W29584   0.998  19.879   8.335  0.0411 -0.1721  0.0952
86594W        W29585  19.082  11.382   4.816  0.0078  0.2867  0.1264
86595W        W29586   4.064  21.433   8.981  0.1175 -0.1795  0.1459
86596W        W29587  20.637   2.210   3.088 -0.1207 -0.1593  0.3767
86597W        W29588   3.916  31.444   7.096 -0.1889  0.0654 -0.1404
86598W        W29589  30.682  33.275   2.192  0.0548 -0.3588 -0.3931
86599W        W29590  24.037   1.176   7.235 -0.1779  0.3960  0.3982
86600W        W29591   1.322  15.778   9.536  0.0475  0.0701 -0.0923
86601W        W29592  15.976  24.562  27.763  0.0755 -0.0160 -0.1469
86602W        W29593  11.497  17.990  24.263  0.4292 -0.0449  0.0618
86603W        W29594  13.589   4.414   2.941  0.2882 -0.1761  0.2512
86604W        W29595   8.607   0.610   7.540  0.3520 -0.3505 -0.1083
86605W        W29596   7.493   5.849   7.098  0.1967  0.2341  0.1143
86606W        W29597   4.831   2.518  25.279  0.1661  0.0883 -0.2008
86607W        W29598   9.463   4.951   7.001  0.3535  0.1617  0.4229
86608W        W29599   8.976  23.245  27.738 -0.0013  0.1130  0.1794
86609W        W29600  18.655  23.638  12.950 -0.0280  0.1137 -0.0283
86610W        W29601  28.271  24.303  19.226  0.1283 -0.0482  0.0844
86611W        W29602  11.600   3.609   4.701  0.0254 -0.0502 -0.2186
86612W        W29603   1.262   3.387   4.117  0.0881 -0.2289 -0.2907
86613W        W29604   8.345  34.446  28.358  0.1448 -0.1774  0.1412
86614W        W29605  12.145   0.330   4.334  0.0113  0.0713  0.2537
86615W        W29606  18.148  25.936   4.871 -0.0495  0.2037  0.0073
86616W        W29607  29.692  31.587   2.196  0.2918  0.0537  0.0475
86617W        W29608   3.116   2.959   4.877 -0.1332  0.1117 -0.4286
86618W        W29609   8.960  29.576  16.823  0.0010 -0.0326 -0.2169
86619W        W29610   4.599  26.708  26.131  0.2153 -0.1999  0.0887
86620W        W29611   0.413  21.072   0.418 -0.0653 -0.1241 -0.1093
86621W        W29612   6.742  30.937  26.371 -0.0891 -0.1496 -0.0992
86622W        W29613   2.764  26.387  19.802  0.1504  0.1014  0.2400
86623W        W29614  13.277  21.933  28.783 -0.0353  0.1389 -0.1215
86624W        W29615  20.253   3.405   6.955  0.1538  0.0553 -0.1280
86625W        W29616   7.468  32.254  26.901 -0.0742 -0.0591  0.1301
86626W        W29617   5.992  32.197  10.938  0.5008  0.3010  0.3826
86627W        W29618  18.228   1.225   6.952  0.0746 -0.1598  0.2438
86628W        W29619   1.561  16.528  25.364 -0.1858 -0.2358  0.0798
86629W        W29620   5.742   5.985   5.961  0.1461  0.2196  0.1146
86630W        W29621  33.231  22.793   7.556 -0.0763 -0.3446  0.1149
86631W        W29622   3.764   0.005   2.787 -0.1381 -0.0190  0.0507
86632W        W29623  10.771  19.634  26.989  0.0375  0.3343  0.2648
86633W        W29624  34.595  27.622   6.142 -0.2319  0.0439 -0.3151
86634W        W29625  18.093  18.349   2.595 -0.0674 -0.2097 -0.2455
86635W        W29626  16.685  28.521   2.832 -0.1988 -0.0486  0.0089
86636W        W29627  26.820  22.273   1.165 -0.1625 -0.2964  0.1832
86637W        W29628  19.193  12.688   2.648  0.0622  0.3365 -0.0662
86638W        W29629  21.927   8.656   1.713  0.0342  0.4338  0.2907
86639W        W29630  10.827  25.585   9.443  0.5048 -0.1273  0.1482
86640W        W29631  10.869  21.981   0.697  0.4341  0.2742 -0.1099
86641W        W29632   2.643  27.428   4.063 -0.3052 -0.1334  0.0159
86642W        W29633  14.961  22.701   6.233  0.0703 -0.0918 -0.1805
86643W        W29634   9.923  18.502   7.631  0.0211  0.2197 -0.0292
86644W        W29635  30.699   3.724   8.366  0.1351  0.0746 -0.1433
86645W        W29636  12.761  17.043   3.696  0.0321 -0.0726  0.1316
86646W        W29637  12.095  17.977  21.032 -0.0118  0.0238 -0.1223
86647W        W29638  18.541  28.734   9.937 -0.0620 -0.1546 -0.0084
86648W        W29639   8.449  21.291   5.670  0.1178 -0.2588 -0.1464
86649W        W29640   2.523  26.465   3.853 -0.1898 -0.4517 -0.1728
86650W        W29641   5.568  32.877   1.640  0.3250 -0.0886 -0.0048
86651W        W29642   3.680  33.432  17.407 -0.1171  0.1684  0.4228
86652W        W29643  16.421  25.238   4.919 -0.1587 -0.0548 -0.3465
86653W        W29644   5.343  24.391  10.225 -0.2513 -0.1281 -0.1295
86654W        W29645   7.377  33.948   5.363 -0.2574 -0.2428 -0.1207
86655W        W29646  14.534  22.644   0.405  0.0366 -0.1059  0.1264
86656W        W29647   2.500   4.842   9.141 -0.0924  0.2382  0.0673
86657W        W29648   5.283  31.537   7.023  0.1287  0.3988 -0.1831
86658W        W29649   8.704  11.089  29.184  0.1791  0.1069 -0.0209
86659W        W29650  27.582  19.198   6.265  0.1599  0.0342  0.0257
86660W        W29651  34.173   9.045   3.868 -0.1221  0.0316  0.1028
86661W        W29652  14.323  32.347   8.936 -0.2168 -0.0656  0.0381
86662W        W29653  12.704  24.874  25.642 -0.0733  0.1360 -0.0131
86663W        W29654  30.599   2.384   7.740  0.2050 -0.2803 -0.1685
86664W        W29655  18.063   4.227   4.031  0.4607 -0.1049  0.1670
86665W        W29656  18.384   3.695  17.430 -0.0989  0.2628  0.0812
86666W        W29657  33.980  22.409  21.312  0.1319  0.1649  0.0985
86667W        W29658  12.622  32.576   2.217 -0.1247  0.1103 -0.1960
86668W        W29659   3.798  16.083   4.322  0.1644 -0.2008 -0.1234
86669W        W29660  11.276  26.438   3.860 -0.1420  0.3173 -0.0648
86670W        W29661  14.767  19.999   5.382  0.0170  0.2619 -0.1616
86671W        W29662  17.971  32.155  27.124  0.0684 -0.0428 -0.2026
86672W        W29663   1.995   0.334  10.586  0.0729 -0.1316 -0.0365
86673W        W29664   2.912  19.693   7.049  0.0234 -0.0143  0.1268
86674W        W29665  21.158  29.611  26.713  0.3531  0.3042  0.2219
86675W        W29666  17.912  22.105  18.385 -0.1056 -0.1278  0.1956
86676W        W29667  28.716  31.893  21.462  0.4402  0.2913  0.1613
86677W        W29668  20.620  23.350   5.010  0.0199 -0.1700  0.1681
86678W        W29669  15.710  12.322  19.813 -0.3378  0.0203  0.2004
86679W        W29670  19.165   0.694   0.556 -0.3912 -0.1653  0.1584
86680W        W29671  31.214   0.357  22.432 -0.0227 -0.1136  0.1105
86681W        W29672   4.805   9.483   4.813  0.0921 -0.2600  0.1861
86682W        W29673  10.520  20.224  16.816 -0.1544 -0.3064 -0.0229
86683W        W29674   6.701   1.202  21.733  0.1049 -0.1054 -0.1193
86684W        W29675   9.666  21.111   9.882 -0.2921  0.1386 -0.1620
86685W        W29676  22.300   8.749  16.212 -0.0500 -0.1064  0.0460
86686W        W29677  30.815   2.934   6.611  0.0277  0.0182  0.2773
86687W        W29678  30.564   0.979  28.365 -0.1196  0.0018  0.3369
86688W        W29679   2.929  15.619  27.730 -0.0053  0.1107  0.0633
86689W        W29680  12.405  31.447  20.337 -0.1309  0.1061 -0.2237
86690W        W29681  33.571  26.135  26.576 -0.0682  0.1878 -0.1730
86691W        W29682   0.154  21.484   7.019 -0.0878 -0.0573 -0.0647
86692W        W29683   5.629  18.569   4.091 -0.2870  0.0913 -0.1163
86693W        W29684  28.225  32.312  16.009  0.2738 -0.0588  0.3153
86694W        W29685  20.333  34.668   2.781  0.0603 -0.2495 -0.0087
86695W        W29686  12.188  13.150   7.413  0.0472  0.1383  0.2727
86696W        W29687   7.623  27.384   2.859 -0.0289 -0.1538 -0.2689
86697W        W29688  31.683  23.332   0.802  0.1474  0.1391 -0.1050
86698W        W29689  30.420  34.532   1.895 -0.3276 -0.3216 -0.4287
86699W        W29690  11.218  12.984   4.361 -0.1163  0.2871 -0.0032
86700W        W29691  34.147  24.992  22.193  0.2262  0.1401 -0.0294
86701W        W29692   4.976  34.715  26.220  0.2018 -0.1303  0.1621
86702W        W29693  14.787  13.885  18.145 -0.1478 -0.4098  0.0784
86703W        W29694  30.621  15.515   7.534 -0.0972  0.2522  0.0887
86704W        W29695  10.580  23.815  10.299 -0.1309 -0.1168 -0.0233
86705W        W29696   4.984   3.836  23.300 -0.1953 -0.3764 -0.2190
86706W        W29697   5.691  22.323   2.381 -0.0509 -0.1828  0.1776
86707W        W29698   4.428   2.595   8.777  0.2850  0.0286 -0.0127
86708W        W29699  17.014  10.193   5.258 -0.0253 -0.1382 -0.3924
86709W        W29700  18.867  27.506   8.203 -0.0406 -0.1113  0.3627
86710W        W29701  27.083  30.547  17.385  0.1273  0.1123  0.0168
86711W        W29702  12.053  33.321   0.221 -0.0808 -0.0975 -0.0102
86712W        W29703  11.595  26.684  21.379  0.2885  0.0441  0.1227
86713W        W29704  25.265  13.406  20.281 -0.1316 -0.0285 -0.2368
86714W        W29705  22.083  27.791   7.248  0.1070 -0.2583  0.1069
86715W        W29706  21.070  33.447   1.117 -0.0955  0.0360 -0.0679
86716W        W29707  16.699  28.068   7.459 -0.2467  0.2109 -0.0420
86717W        W29708   8.825  34.178   9.312  0.1889  0.0067 -0.0127
86718W        W29709  33.267   3.638  21.255 -0.0836 -0.3116  0.1513
86719W        W29710  12.475  25.204  19.259  0.4104 -0.2427 -0.3048
86720W        W29711  28.030  22.755  22.501 -0.0345 -0.2633 -0.2620
86721W        W29712   0.474  21.492  24.844  0.0387 -0.2318  0.2651
86722W        W29713  34.245  33.105   8.719  0.0740 -0.2461 -0.2154
86723W        W29714  17.924  21.089  27.264  0.4060  0.2072 -0.0565
86724W        W29715  29.013  20.904  22.237  0.1105  0.1575  0.1003
86725W        W29716   4.051   6.830   7.692 -0.5947 -0.1100 -0.0146
86726W        W29717  34.696  14.487   4.283  0.0097  0.0905 -0.0331
86727W        W29718  32.448   4.623  29.039 -0.4074  0.0876  0.1673
86728W        W29719  11.757  33.578   1.064  0.2547 -0.1284 -0.1169
86729W        W29720  16.507  29.486  20.226  0.2012  0.1739 -0.0876
86730W        W29721  18.260  27.071  27.003  0.2163  0.1210  0.2889
86731W        W29722  34.124  26.178   0.184 -0.0041 -0.2725 -0.2021
86732W        W29723  14.952  12.537  22.522  0.2205 -0.0186 -0.2405
86733W        W29724  32.855  19.694  25.517 -0.4959  0.1268  0.3119
86734W        W29725  30.112  27.329   7.116 -0.1421 -0.1557 -0.0384
86735W        W29726  20.691   2.082   6.040 -0.0890  0.0767 -0.3509
86736W        W29727   6.995  25.573  28.096 -0.2522 -0.1815 -0.2378
86737W        W29728  33.359  30.171   7.964 -0.0592  0.2317  0.0539
86738W        W29729  25.819  34.786  23.013 -0.0757  0.1002  0.3934
86739W        W29730  10.830  23.753  26.378 -0.1218  0.0296  0.1954
86740W        W29731  18.333  23.440   6.724 -0.1296 -0.0696 -0.1232
86741W        W29732  11.042  16.843  15.122 -0.0150  0.2142 -0.1016
86742W        W29733   9.722   5.265  18.163 -0.0772  0.2691 -0.0358
86743W        W29734  13.675   3.482   4.320  0.1070 -0.1053 -0.1062
86744W        W29735  34.505  28.612   3.521  0.2831 -0.0919 -0.0889
86745W        W29736   2.783  12.318  21.950 -0.1882 -0.0431 -0.0943
86746W        W29737  11.362  20.935  26.496  0.0482  0.0023  0.1234
86747W        W29738  23.214  14.081  22.424 -0.0734  0.1263  0.2743
86748W        W29739   6.037  24.682   6.269  0.2305 -0.0107  0.2004
86749W        W29740  33.098  31.127   6.812 -0.1242  0.2289  0.1570
86750W        W29741   6.666   3.006   9.437  0.0764  0.0190 -0.0988
86751W        W29742  19.001  33.118  27.631 -0.1449  0.4366 -0.0626
86752W        W29743  10.907  25.746  25.427  0.2794 -0.0847 -0.0453
86753W        W29744  10.038  29.959  22.336  0.1684 -0.1634 -0.0264
86754W        W29745   2.492  32.872  26.997 -0.0979  0.0367  0.1525
86755W        W29746  21.169  32.774   5.448  0.1813 -0.0449 -0.0117
86756W        W29747   8.221  15.701   1.852 -0.0740  0.1163  0.0981
86757W        W29748  27.314  31.117  28.355 -0.3298  0.0338  0.0442
86758W        W29749  30.549  22.142  23.547  0.2818  0.2053  0.0148
86759W        W29750  32.575  11.137  11.135  0.3899 -0.1586 -0.1697
86760W        W29751   1.765  11.927   6.918 -0.1906 -0.0420 -0.0180
86761W        W29752  12.218  16.210  26.426  0.0784  0.0078 -0.3231
86762W        W29753  20.109   6.102  24.733 -0.0730 -0.0417  0.0160
86763W        W29754  19.364  20.494  23.111 -0.1093 -0.0800  0.0966
86764W        W29755  30.235   0.859   5.614 -0.1182 -0.3452 -0.1319
86765W        W29756   0.502  31.865   9.261  0.0551 -0.1084  0.1486
86766W        W29757   9.063  32.844  27.998 -0.0038 -0.1170 -0.1376
86767W        W29758  18.383  28.847  23.446  0.1303  0.2585  0.0180
86768W        W29759   1.952  14.780  27.796  0.3247 -0.0124 -0.0303
86769W        W29760  12.638  33.449   2.792 -0.1258  0.2511  0.2015
86770W        W29761  32.531  16.423  27.424 -0.1222 -0.0076  0.0040
86771W        W29762  11.752   2.808   1.937  0.0063  0.1370 -0.0084
86772W        W29763  34.774   8.211  26.660 -0.1136 -0.0666 -0.1259
86773W        W29764  16.546  28.059   5.218  0.3094  0.0917 -0.0635
86774W        W29765   9.946   8.917  23.840  0.0711  0.1809  0.3467
86775W        W29766  32.386  17.964   3.769 -0.1135 -0.0589  0.2630
86776W        W29767   7.414   6.436   9.464  0.1797 -0.0548 -0.4509
86777W        W29768   3.358  33.020   8.126  0.0526 -0.1307 -0.2047
86778W        W29769  13.673  33.496   6.461  0.1175 -0.0393  0.1279
86779W        W29770  18.168   2.002  19.864  0.0789  0.1966 -0.2011
86780W        W29771  33.414  14.091   1.673 -0.0759  0.2172  0.0366
86781W        W29772  20.313   2.602   9.149 -0.1370  0.0357 -0.0401
86782W        W29773  27.670  17.832  19.012 -0.1048  0.0396 -0.2270
86783W        W29774  28.251  33.881  21.798  0.1339 -0.1940  0.0606
86784W        W29775  18.312  34.405  27.189  0.0721  0.2077  0.0563
86785W        W29776  16.271  12.893  28.892  0.2755 -0.0218 -0.1593
86786W        W29777   8.576  26.153   7.259 -0.0259  0.0782  0.0587
86787W        W29778   9.349  34.015  22.599 -0.0083  0.0784 -0.0242
86788W        W29779  12.136  14.047   3.714  0.0039 -0.1436 -0.1505
86789W        W29780   4.368  21.526  24.488  0.1766 -0.0471 -0.1189
86790W        W29781   4.483  15.678  24.555  0.0784  0.2307  0.0080
86791W        W29782   6.595   4.923  10.644 -0.2211  0.0877  0.1748
86792W        W29783  15.371  12.608  25.126  0.0779  0.0166 -0.1227
86793W        W29784  21.945   0.692   8.509 -0.0175  0.1748  0.1188
86794W        W29785   9.276  14.918  16.322 -0.0968  0.1970 -0.1458
86795W        W29786   5.369  27.590  28.965  0.1116  0.2145 -0.2898
86796W        W29787  11.103  25.985  26.710 -0.0916 -0.1574  0.2425
86797W        W29788   2.320   4.646  23.347  0.3564  0.0976  0.0051
86798W        W29789   6.758   1.262  10.581  0.2762  0.0168 -0.2010
86799W        W29790   3.401  15.397   9.372 -0.1804  0.1812  0.2173
86800W        W29791   3.068  18.282  27.824 -0.0482  0.0607 -0.1096
86801W        W29792  32.013   4.549  18.696 -0.2728 -0.0728 -0.2897
86802W        W29793  13.808  29.511   0.209 -0.1808  0.3157 -0.1784
86803W        W29794  10.655  12.256  26.401  0.1142  0.2682  0.1087
86804W        W29795  16.652  22.444   4.578 -0.0716  0.1472 -0.2938
86805W        W29796  15.908  10.742   3.274  0.1290  0.1225 -0.3648
86806W        W29797   6.928   6.020  28.702 -0.0184 -0.3031 -0.0945
86807W        W29798  32.533  28.938  19.959 -0.2436 -0.4244 -0.0322
86808W        W29799   9.243  19.882   8.480 -0.0421  0.3306  0.1023
86809W        W29800   1.654  25.842   4.510 -0.1285 -0.0269  0.1494
86810W        W29801  28.041   0.963  26.985  0.1012  0.1747  0.1817
86811W        W29802   7.024  28.968  24.372 -0.2909 -0.0335  0.0300
86812W        W29803  11.950  22.756   4.508  0.0751 -0.2023 -0.1751
86813W        W29804  23.874  30.743  23.424  0.0211 -0.1115  0.1776
86814W        W29805   8.691  29.430   1.995  0.1031  0.2137  0.1645
86815W        W29806   5.232  34.034  20.794 -0.2631 -0.1461 -0.0687
86816W        W29807  21.696  20.076   6.422 -0.1265  0.2785 -0.1780
86817W        W29808   7.314  31.309   5.136 -0.0478  0.3603  0.1672
86818W        W29809  20.632  33.317  17.507  0.6341  0.1213 -0.3311
86819W        W29810  28.130  25.016   3.936  0.1746  0.1186  0.2752
86820W        W29811  10.310  27.485   6.264  0.2410  0.1762  0.1501
86821W        W29812  10.437   4.717  18.519 -0.0460 -0.1725  0.1808
86822W        W29813  15.252  10.610   6.433 -0.2069 -0.0036  0.1556
86823W        W29814  20.982  14.792   6.612 -0.0597  0.0185  0.1434
86824W        W29815  32.833  27.017   8.085  0.1081  0.0743 -0.0219
86825W        W29816  34.582   0.773   1.577 -0.1657  0.0577 -0.0529
86826W        W29817   2.036  28.519  18.339 -0.0589  0.0683 -0.0768
86827W        W29818  13.663  20.564  28.440 -0.1976  0.2310 -0.1291
86828W        W29819  20.039   1.634   6.467  0.0157 -0.0523 -0.0510
86829W        W29820  13.181  28.144  14.934 -0.1120  0.2493 -0.2020
86830W        W29821  13.463  22.585   8.642 -0.3193 -0.2121 -0.1424
86831W        W29822  22.741  25.695  27.049 -0.1627  0.1811 -0.1855
86832W        W29823  15.148  10.921  22.420 -0.0138 -0.0966 -0.2165
86833W        W29824   5.840  33.339   8.119  0.0067  0.1679 -0.0334
86834W        W29825   0.880   3.619  28.020  0.1967  0.0453  0.0165
86835W        W29826  12.820  21.896  24.060 -0.2177  0.3172 -0.0914
86836W        W29827  22.894  21.516   8.695 -0.1795  0.2036  0.1735
86837W        W29828  23.145  17.757   9.078  0.0646  0.0308  0.0609
86838W        W29829  32.209  30.896  27.078  0.2878 -0.0049 -0.1343
86839W        W29830   7.130   8.034   5.881  0.0952  0.1123 -0.2143
86840W        W29831  22.045  30.616  27.949  0.3571  0.0674  0.1005
86841W        W29832   9.915  29.042   2.059 -0.1765  0.0022 -0.0695
86842W        W29833  16.608  28.927  27.507  0.1950  0.2281 -0.2075
86843W        W29834   6.054  32.022   7.951 -0.4421  0.3062  0.1746
86844W        W29835   7.146  32.591   5.432 -0.1645 -0.0378 -0.1365
86845W        W29836   7.248  31.598   4.686  0.2232 -0.1092 -0.3164
86846W        W29837   1.184  27.521   2.161 -0.1364 -0.0214 -0.2453
86847W        W29838  19.546  24.448   0.615  0.1492  0.0730 -0.1014
86848W        W29839  11.355  32.327  10.823  0.2296 -0.2746  0.2571
86849W        W29840  15.592  20.091   7.320  0.1347  0.1394  0.0253
86850W        W29841  19.138   8.122  20.561 -0.3339  0.1619 -0.2090
86851W        W29842  20.591   3.513   3.817 -0.0776 -0.2629 -0.2920
86852W        W29843  21.085   6.135   2.371  0.3776 -0.2422  0.0776
86853W        W29844   0.164   1.028   5.328  0.2636  0.2857 -0.1607
86854W        W29845  12.172  15.614  13.849 -0.2361 -0.0047 -0.5668
86855W        W29846  13.296  27.294  23.050 -0.1709  0.0336  0.1585
86856W        W29847  23.380  27.731   0.835 -0.0189 -0.4879  0.2018
86857W        W29848  30.584   5.099   8.219  0.1229  0.2073 -0.1109
86858W        W29849  24.038  31.087   8.989  0.0365  0.1380 -0.2856
86859W        W29850  30.418  16.671  24.555 -0.0382 -0.1367 -0.2257
86860W        W29851   9.808   7.751   4.869  0.0530  0.1111  0.1646
86861W        W29852   4.981  17.682   5.942  0.1773 -0.0404  0.2037
86862W        W29853   0.446  12.932   3.747 -0.3784 -0.0840 -0.1728
86863W        W29854   9.285  26.235  25.944  0.2562 -0.1851  0.1193
86864W        W29855   1.168   2.433  22.859 -0.0595 -0.0736 -0.0879
86865W        W29856  11.428  32.856  18.560  0.1137  0.0794  0.1851
86866W        W29857   2.329   9.021   1.377 -0.0589 -0.2021  0.0198
86867W        W29858  13.807  29.653   4.013  0.0138  0.0526  0.2465
86868W        W29859   9.042  34.505   6.271 -0.3397 -0.2950  0.2411
86869W        W29860  27.456  32.807  22.898 -0.0126 -0.2525  0.1080
86870W        W29861  34.445  25.772   7.247  0.0011  0.0423 -0.0037
86871W        W29862  13.141  29.637  18.741  0.0562 -0.2315  0.0964
86872W        W29863  10.075   8.604  22.226  0.2249  0.3282 -0.3187
86873W        W29864  20.034   4.750  20.298 -0.0191 -0.0204  0.0305
86874W        W29865   4.491  33.587   2.865 -0.1067  0.0658 -0.0140
86875W        W29866  22.703   9.506  17.575  0.3059  0.0626 -0.4273
86876W        W29867  12.219  31.957  21.000  0.0697 -0.0347 -0.1618
86877W        W29868  16.482  12.410  17.718  0.0914 -0.0199  0.1378
86878W        W29869   4.588  13.943  18.873 -0.0028  0.2215  0.0061
86879W        W29870   8.173   3.239   4.635 -0.1762  0.1231  0.0307
86880W        W29871  29.043  28.239  24.856  0.2214  0.0840 -0.0270
86881W        W29872   3.364  11.726  20.701  0.3439  0.0072 -0.1173
86882W        W29873   5.763   9.466   5.013 -0.1071  0.2251 -0.0550
86883W        W29874  26.938  29.760   6.949  0.1577 -0.0376 -0.0493
86884W        W29875   3.602  17.504  28.610 -0.2261  0.1477  0.4156
86885W        W29876   9.325  27.481  27.260  0.0207 -0.1830 -0.1333
86886W        W29877   2.850  26.086  22.508  0.0991 -0.1693 -0.0596
86887W        W29878   4.281  34.182   5.123  0.3240  0.2250 -0.0218
86888W        W29879  24.635  11.952  18.948  0.1144 -0.0705  0.1836
86889W        W29880   0.282   0.574  15.749 -0.2090 -0.1174 -0.2449
86890W        W29881  32.095   0.997   4.389 -0.0578  0.2914 -0.1364
86891W        W29882  15.653   2.709   7.019  0.1013 -0.0088  0.0902
86892W        W29883  14.884  31.774   0.323  0.1914 -0.1572  0.2386
86893W        W29884  20.953   2.294   7.528 -0.1558  0.0199  0.1439
86894W        W29885   9.326  11.485  27.794 -0.1556 -0.0140 -0.0121
86895W        W29886  12.579  16.881  21.293  0.1624  0.4500 -0.0773
86896W        W29887   6.770  30.234  22.857  0.0394 -0.0968  0.1830
86897W        W29888  29.953  33.793   6.395 -0.1539  0.3093  0.0038
86898W        W29889   7.368  25.192   5.947  0.1065 -0.1625  0.0402
86899W        W29890  16.132  29.660  27.429  0.0516  0.2345 -0.0859
86900W        W29891  19.786   3.429  26.547 -0.1617 -0.1631  0.3308
86901W        W29892   2.960  20.367  11.305  0.0315  0.2761  0.2963
86902W        W29893  30.364  21.639  28.573  0.0814 -0.0701 -0.3555
86903W        W29894  29.154   6.586  21.387 -0.1210 -0.2957 -0.0218
86904W        W29895   4.984   6.680   4.885  0.3958 -0.1194 -0.0790
86905W        W29896   2.542  29.272  24.128  0.2177  0.1146 -0.0322
86906W        W29897  15.938   2.050  27.260  0.0528  0.1354  0.2102
86907W        W29898   3.329   4.761   2.466 -0.1766 -0.0446 -0.0742
86908W        W29899  11.176  23.390   6.911 -0.4185  0.0474  0.1208
86909W        W29900   1.540  14.538   3.794 -0.0435 -0.0218 -0.3557
86910W        W29901   1.368  16.930  10.375  0.0675  0.0548  0.0631
86911W        W29902  15.342  13.876   5.437  0.1006 -0.5207 -0.0727
86912W        W29903  15.441   8.231   4.236  0.1165  0.4072  0.2581
86913W        W29904   3.947  29.304   4.217  0.0683  0.3089  0.1263
86914W        W29905  11.786  15.405  28.061 -0.2934  0.0718  0.0233
86915W        W29906   1.470  18.311  25.278  0.5836  0.1571 -0.0259
86916W        W29907   3.720  24.098   5.183  0.0650 -0.1423 -0.1977
86917W        W29908  16.698   6.143   4.626 -0.2010 -0.1305  0.0673
86918W        W29909   1.873  20.330   8.148 -0.1926  0.1573  0.2033
86919W        W29910  14.234  30.720  19.674 -0.1605  0.0841 -0.3199
86920W        W29911   4.847   9.966   4.657  0.3925 -0.3138  0.2661
86921W        W29912  11.279  26.712   1.290 -0.0142 -0.1971 -0.4769
86922W        W29913  34.391  14.143   4.456 -0.1686  0.0378  0.1463
86923W        W29914   4.911  30.293   6.795  0.0140 -0.1360  0.0781
86924W        W29915   1.327  16.569  10.741 -0.2052  0.0486 -0.1416
86925W        W29916  31.346  10.734  26.827  0.1431 -0.1650 -0.3791
86926W        W29917  15.152  25.208   7.060  0.1468  0.3481  0.2054
86927W        W29918   0.487  12.647   1.077 -0.1246  0.2736 -0.0588
86928W        W29919  27.249  29.673   1.832 -0.2224  0.1809  0.1428
86929W        W29920   8.906  34.191   7.866  0.0861  0.1252 -0.1043
86930W        W29921  23.848   3.761   7.673  0.0262  0.2873  0.0293
86931W        W29922  25.672  34.617   6.619 -0.0609 -0.0482  0.0343
86932W        W29923  10.707   7.809   2.878 -0.0941 -0.1416  0.0030
86933W        W29924  19.067  33.492   8.814 -0.0138  0.0570 -0.2287
86934W        W29925  12.966  24.219   1.380  0.2975  0.2665  0.0994
86935W        W29926   9.746   1.615   3.752  0.0430 -0.0705  0.1335
86936W        W29927   5.927   4.852  10.557  0.2079 -0.0743  0.0025
86937W        W29928   3.990  11.674   3.179  0.0521 -0.3693  0.2959
86938W        W29929  22.577  13.910   6.573 -0.0982 -0.0709  0.0833
86939W        W29930   2.888   4.718  10.755  0.1930  0.4598 -0.1386
86940W        W29931  28.751   8.326  25.019 -0.2175  0.0638  0.0188
86941W        W29932   4.394  21.343  25.643  0.0727  0.0596  0.3072
86942W        W29933   3.529   6.004   6.602 -0.1879  0.0492  0.0213
86943W        W29934  22.358   2.457   5.428  0.0153 -0.3521  0.3570
86944W        W29935  14.087   2.518   4.033  0.2725  0.3660  0.0782
86945W        W29936  14.246  31.299   2.002 -0.2684  0.0870  0.0266
86946W        W29937   9.131   5.254   6.724  0.2966 -0.1257  0.1330
86947W        W29938   1.607  34.770   1.610 -0.0416 -0.1498  0.0597
86948W        W29939   8.263  31.548   6.270  0.0297 -0.0568 -0.0840
86949W        W29940   9.025  20.444  25.136  0.1977  0.3287 -0.0122
86950W        W29941  33.182  23.524  16.802 -0.0415 -0.1083 -0.2414
86951W        W29942  11.118  20.643  20.311  0.0335 -0.2455 -0.0267
86952W        W29943  15.765   0.547   6.218 -0.1286 -0.0158 -0.1502
86953W        W29944  15.771   5.924   8.161  0.0000 -0.1177  0.0962
86954W        W29945  30.130   0.023   4.959 -0.0141 -0.3438  0.2266
86955W        W29946  20.870  23.502   4.406 -0.1429 -0.3685  0.0325
86956W        W29947  15.264   3.423  25.378  0.1521  0.0308  0.2646
86957W        W29948  11.296   4.868  21.630  0.0412 -0.0036  0.3187
86958W        W29949  25.620  32.245   3.371  0.5260 -0.1188  0.0185
86959W        W29950  19.117   3.967   9.317  0.1518  0.1636  0.0985
86960W        W29951  16.376  28.204  22.580 -0.1615 -0.0689  0.1601
86961W        W29952   6.315  17.110  27.221 -0.3693  0.0126 -0.3298
86962W        W29953   0.020   6.743   6.120 -0.0655  0.3109 -0.0677
86963W        W29954   6.068   1.870   1.709  0.1644 -0.0967 -0.3124
86964W        W29955  14.353  14.848   1.359  0.2712  0.2168  0.1121
86965W        W29956  16.013   7.872  25.683  0.0098  0.2109  0.0061
86966W        W29957  25.069  27.126  15.035 -0.0925 -0.1703 -0.3162
86967W        W29958  16.567  21.497  29.201  0.0916 -0.1344  0.0640
86968W        W29959  17.110  16.688   0.818 -0.3119  0.1145 -0.0724
86969W        W29960   6.029  26.159  28.777 -0.1130 -0.1204  0.0672
86970W        W29961  13.507   2.420   5.561 -0.1707  0.2184  0.0522
86971W        W29962  13.818   9.704   5.274  0.1838  0.1011  0.3041
86972W        W29963  33.385   5.012   2.239  0.1789  0.0571  0.0984
86973W        W29964   6.530  23.926  29.190  0.2829  0.3230  0.0497
86974W        W29965  18.064  17.641   3.309 -0.0040 -0.0082  0.0254
86975W        W29966  16.731  18.373  14.668 -0.0689 -0.0645 -0.1192
86976W        W29967  11.151  28.679  10.488 -0.0233  0.0275 -0.0771
86977W        W29968  22.035   9.008  26.620  0.0704 -0.1251  0.0994
86978W        W29969  29.975   0.532   4.712  0.0237  0.1551 -0.1592
86979W        W29970   0.904  25.462   5.871 -0.2508 -0.0117  0.1178
86980W        W29971   6.093   7.154   9.386 -0.3535  0.1746  0.0149
86981W        W29972   8.773   7.407  10.489  0.1468  0.3316  0.0072
86982W        W29973  10.574  25.007  28.685  0.2273 -0.2909 -0.1148
86983W        W29974   3.016  24.239  28.409  0.0303  0.0831  0.4893
86984W        W29975  29.276   0.996  14.790 -0.1152  0.4426 -0.1013
86985W        W29976  32.543  25.848   6.201  0.0807 -0.0147  0.3126
86986W        W29977   7.951   4.695  27.846  0.2138 -0.0267  0.1270
86987W        W29978  13.853   6.516   2.479 -0.0057 -0.1222 -0.0835
86988W        W29979  18.579  15.099   8.738  0.0191  0.3368 -0.1485
86989W        W29980  28.184  34.175  26.197 -0.1212 -0.1668  0.1200
86990W        W29981  19.565   9.500  22.670  0.3267  0.1548  0.2005
86991W        W29982   6.421   5.056  25.354 -0.1431 -0.0862 -0.0847
86992W        W29983   8.134   8.410  10.197  0.1341 -0.0299  0.1579
86993W        W29984  14.134  34.185   1.438  0.0129 -0.0218  0.0582
86994W        W29985  10.970  27.888   2.223 -0.1510 -0.1228  0.0700
86995W        W29986  25.388  31.915   4.200  0.1112  0.1224  0.2087
86996W        W29987  12.149  14.978   9.518 -0.1916  0.1562  0.2613
86997W        W29988  31.216   5.610   5.629  0.0633  0.0158 -0.0863
86998W        W29989  25.339   2.683   8.241  0.2000  0.0703  0.4083
86999W        W29990  24.656  17.097   4.360 -0.0929 -0.0331  0.0362
87000W        W29991  19.398   9.141   4.133 -0.0448 -0.0891 -0.2571
87001W        W29992  30.481  24.727  27.893  0.2526  0.0575  0.1672
87002W        W29993   6.941  21.349   8.570 -0.1509  0.0528 -0.1120
87003W        W29994  24.320   3.581   7.549 -0.2775 -0.3636 -0.2286
87004W        W29995   6.936  25.143  24.757  0.0053  0.1089  0.1514
87005W        W29996   3.257  14.294   5.087 -0.0758 -0.2346  0.2247
87006W        W29997   7.252   2.235   7.463 -0.1305  0.3223  0.2721
87007W        W29998  19.974  34.455   5.767  0.1300 -0.5122  0.1297
87008W        W29999  20.159  23.820  23.507  0.2122  0.2360 -0.0327
87009W        W30000  16.439  29.002  26.904  0.1898  0.0707  0.1849
87010W        W30001   0.139   5.498  28.570 -0.1583 -0.0017  0.3920
87011W        W30002  21.702   0.610   7.730  0.6812  0.0430 -0.1569
87012W        W30003  16.326   1.086   4.701 -0.1035 -0.1062  0.2643
87013W        W30004  34.434  34.665   2.204  0.0316 -0.0969 -0.1497
87014W        W30005   4.230  12.210   4.988  0.4526  0.1038  0.1391
87015W        W30006  11.046  21.068   5.200 -0.1902 -0.0531  0.0330
87016W        W30007   7.929   4.141  28.523  0.1201 -0.3447 -0.1642
87017W        W30008   0.586   3.181  10.314  0.1007  0.0790  0.3311
87018W        W30009  13.725   5.500   7.354  0.3064  0.2801  0.0844
87019W        W30010  20.849  22.930   3.279  0.0501 -0.3772  0.2757
87020W        W30011   7.039  27.476   0.431 -0.2445 -0.1937 -0.1297
87021W        W30012   3.008  33.960   0.703 -0.0665 -0.1054 -0.0425
87022W        W30013  17.514  31.695  25.379  0.1397 -0.1787  0.2759
87023W        W30014  11.595  32.549   7.215  0.0086  0.1086  0.0188
87024W        W30015  12.962  33.296   9.690 -0.1534  0.5181  0.0769
87025W        W30016  19.111  34.636   7.495  0.2123  0.0673 -0.0799
87026W        W30017   0.803  32.921   8.541 -0.0608  0.0284  0.0740
87027W        W30018   9.128  28.414   6.653  0.0246 -0.1099 -0.1088
87028W        W30019  33.772  32.543   1.686 -0.1052 -0.3182 -0.0929
87029W        W30020   9.345  27.709  28.707  0.0528  0.0640 -0.2459
87030W        W30021  31.314  29.037   6.701 -0.1567  0.1190  0.0255
87031W        W30022  21.431  20.756  17.726 -0.1470  0.1600 -0.2459
87032W        W30023  10.127   5.424   9.188 -0.0848  0.1507 -0.0600
87033W        W30024  13.630  32.801   3.057 -0.1428  0.1000  0.3253
87034W        W30025  10.105  16.719  21.773 -0.2027  0.4244 -0.1012
87035W        W30026  29.345  18.839   0.125 -0.5199  0.2404 -0.3761
87036W        W30027  11.512  33.930   8.243  0.2331  0.0835  0.0645
87037W        W30028   8.179  33.735   0.094  0.1719 -0.0347  0.1797
87038W        W30029   6.284  32.065   1.470 -0.4016  0.0259  0.0622
87039W        W30030   4.685  31.436  10.283 -0.0239  0.0964 -0.0815
87040W        W30031  29.192   1.663  14.527 -0.0556 -0.1661  0.1052
87041W        W30032  11.394  26.181   4.394  0.0581  0.4390 -0.2576
87042W        W30033   2.803  27.488  19.757 -0.3755  0.1526 -0.2147
87043W        W30034  17.120  14.036  20.083 -0.1291  0.0357 -0.0843
87044W        W30035  11.336  16.624  28.043 -0.1597  0.1071  0.2009
87045W        W30036   5.621   7.240   3.717  0.1354  0.2708 -0.4212
87046W        W30037  11.551  27.170  24.964  0.0124 -0.1087  0.0180
87047W        W30038   3.155   5.332  23.579  0.2890 -0.2018  0.1552
87048W        W30039  31.590  28.823   1.360 -0.1186 -0.2770  0.0402
87049W        W30040  17.053   4.750   8.710 -0.2853  0.0281  0.0845
87050W        W30041   7.536  26.084   8.074 -0.0197  0.2077 -0.4278
87051W        W30042   9.344  24.726  27.331 -0.0601  0.2854  0.0113
87052W        W30043  19.365  25.368   1.520  0.2017  0.1037  0.0050
87053W        W30044  23.154   0.959   0.245  0.0588  0.2891 -0.2118
87054W        W30045   8.361   2.813   9.932  0.1951  0.0160 -0.0718
87055W        W30046   7.564  34.758   7.065  0.1545 -0.0149  0.0507
87056W        W30047  14.459  18.010  28.275 -0.0706 -0.2497  0.1257
87057W        W30048  23.171  26.490   5.028 -0.1155  0.0224 -0.3720
87058W        W30049  10.742  32.767   7.165 -0.1217  0.2098  0.2797
87059W        W30050   5.878  10.729  10.080  0.1255  0.0037  0.1617
87060W        W30051  30.579   2.602   5.707  0.2286  0.1017 -0.2496
87061W        W30052  34.278  31.407  21.616  0.0270 -0.1130 -0.0277
87062W        W30053  13.408  33.141  24.157  0.1500  0.0109 -0.0433
87063W        W30054  20.388  24.757  26.837 -0.0275  0.1651 -0.1954
87064W        W30055   6.964  29.559   4.942  0.1856 -0.3108 -0.2939
87065W        W30056  19.057  23.574  29.147  0.0605 -0.2452 -0.1307
87066W        W30057  31.353  12.489  10.581 -0.3505 -0.0211  0.3701
87067W        W30058   4.081  16.734   6.792  0.0119 -0.1262 -0.2155
87068W        W30059  25.647  24.350  15.875  0.0473 -0.0120 -0.0948
87069W        W30060  17.283  30.364  21.056  0.1590 -0.2746 -0.2187
87070W        W30061  18.075  23.684   6.316 -0.2182  0.0300 -0.1357
87071W        W30062   9.896  27.852   6.461  0.2161  0.0283  0.0651
87072W        W30063  16.531  21.075  26.338 -0.0628  0.0278 -0.1956
87073W        W30064   3.960  25.059   1.318  0.0992  0.2170  0.0766
87074W        W30065   6.736  25.258   7.536  0.5416 -0.0368 -0.0341
87075W        W30066   7.577  16.189  29.158  0.4415 -0.0601 -0.1039
87076W        W30067  34.012   1.393   9.170 -0.1807  0.1815  0.1435
87077W        W30068  18.218  14.271   2.895  0.1451 -0.1734 -0.2028
87078W        W30069  16.075   6.349   7.837  0.0122 -0.0727 -0.0668
87079W        W30070  11.892  24.903   2.248 -0.0091 -0.0695  0.0753
87080W        W30071   1.429  25.547   9.287  0.1360 -0.1581 -0.2480
87081W        W30072  11.042  30.975   4.623  0.3888  0.0901  0.1111
87082W        W30073   7.238  23.698   0.474 -0.2029  0.0080  0.2020
87083W        W30074  18.255  32.327   8.529 -0.1182 -0.1378  0.1636
87084W        W30075   0.140   2.328   7.280  0.1003  0.0754 -0.1177
87085W        W30076   5.157  26.431   1.421 -0.0065  0.3081  0.1039
87086W        W30077  13.405   8.976   6.656  0.1823  0.1342  0.0442
87087W        W30078  11.895  17.361   5.244  0.0265 -0.1662 -0.1815
87088W        W30079  21.211  27.143   5.914  0.0623  0.0909  0.4153
87089W        W30080  16.380  27.618   7.695 -0.0793 -0.0652  0.0277
87090W        W30081  16.253  32.872   6.506  0.0115  0.1878 -0.0270
87091W        W30082   5.164  18.221  27.695  0.0297 -0.1887  0.1254
87092W        W30083  11.663  34.045  29.079 -0.0321 -0.0128  0.2755
87093W        W30084  10.043   3.805   5.516  0.0305 -0.0969  0.0232
87094W        W30085  22.749  21.521  23.081  0.1328  0.2572 -0.0647
87095W        W30086  17.511  34.699  24.894 -0.1505  0.0653  0.2718
87096W        W30087  34.560   1.742  26.482  0.0612 -0.1126 -0.0850
87097W        W30088  30.459   5.459   1.274  0.4534  0.0066  0.0195
87098W        W30089  17.639  13.798   4.011 -0.1239  0.2316 -0.1612
87099W        W30090   3.132   0.490   8.361 -0.1844 -0.1460  0.0177
87100W        W30091   6.325  33.426   3.177 -0.1663  0.1400  0.1217
87101W        W30092   1.803  28.587   6.686  0.2023  0.1530 -0.1811
87102W        W30093  34.212   5.546  26.467 -0.0693  0.1385  0.1378
87103W        W30094  25.746  31.922   2.919 -0.2550  0.1880 -0.0843
87104W        W30095  32.531  34.795   0.474  0.2380 -0.1738 -0.1076
87105W        W30096   3.372   0.332   0.172 -0.1270 -0.0782 -0.1884
87106W        W30097   7.181  25.019   9.612  0.1806  0.4444 -0.0382
87107W        W30098   6.192  18.168  11.269  0.1932 -0.2588  0.3675
87108W        W30099  24.067  19.647   8.175  0.0859  0.4905  0.0529
87109W        W30100  16.609  16.554   5.955  0.1221 -0.2431 -0.2209
87110W        W30101   7.797   9.460  17.417 -0.0143 -0.2358  0.0965
87111W        W30102  18.105  13.637  20.857 -0.3383  0.1883  0.0802
87112W        W30103  26.276   4.197   9.063 -0.1607 -0.1007  0.3208
87113W        W30104  31.863  18.803   9.345 -0.0508 -0.4687  0.0166
87114W        W30105   8.862  12.105   0.188  0.0647  0.1485 -0.2731
87115W        W30106   1.043   1.197  15.300  0.1377 -0.2454 -0.1062
87116W        W30107   7.205  28.153  26.580 -0.2985  0.0442 -0.2793
87117W        W30108  10.683  30.948   1.388  0.1462 -0.2637  0.0265
87118W        W30109  14.906   4.332  10.387  0.3463  0.2714 -0.0078
87119W        W30110   6.832  12.714   3.474 -0.0612  0.1680  0.1906
87120W        W30111  16.929  27.651   2.405  0.2587 -0.0157  0.1720
87121W        W30112   3.216  28.942   8.939  0.0790  0.0196 -0.2710
87122W        W30113  32.716   9.727   9.859 -0.0100 -0.2714  0.0722
87123W        W30114  18.963   2.376   4.805  0.1221  0.1977  0.2291
87124W        W30115   9.963   0.607  28.700  0.0742 -0.2263  0.1638
87125W        W30116  14.235  25.804   9.577  0.0139 -0.3581  0.0647
87126W        W30117  14.560   4.522  27.828 -0.2358  0.1259  0.3811
87127W        W30118   8.585  26.566  27.960 -0.4119 -0.2111 -0.0753
87128W        W30119  26.908  15.475  10.384 -0.0995  0.1436  0.0541
87129W        W30120  16.978  24.860  25.981  0.1455 -0.0982  0.1677
87130W        W30121  16.791  33.636   8.169  0.1483  0.0194 -0.1024
87131W        W30122  15.269   9.374   5.267 -0.2308 -0.0865 -0.0300
87132W        W30123  16.949  22.032   2.153 -0.0798  0.1265 -0.0590
87133W        W30124   3.389  29.715  20.550 -0.1759 -0.1515 -0.0908
87134W        W30125  11.053   2.327   0.096 -0.0909  0.0938 -0.1111
87135W        W30126   7.844   1.317   6.876 -0.0250  0.2393 -0.0245
87136W        W30127  19.512   1.525   1.741  0.0610 -0.0057 -0.2203
87137W        W30128  22.832   9.000   0.593  0.3881 -0.0429 -0.1461
87138W        W30129   7.084  18.829  10.129  0.0684  0.2271  0.0223
87139W        W30130  13.783  33.610   3.351  0.0048  0.2149 -0.2182
87140W        W30131   4.955   6.612  10.419 -0.5384  0.2778 -0.3045
87141W        W30132   9.519  10.421  10.377  0.0460 -0.2049 -0.1206
87142W        W30133   5.871   5.280   7.176  0.0528 -0.0454  0.2260
87143W        W30134  18.891   3.759  20.374 -0.0148  0.0051  0.1262
87144W        W30135   2.382  17.981  11.130 -0.0757  0.1425 -0.0503
87145W        W30136   7.979   7.416   6.053  0.0490 -0.1481 -0.0686
87146W        W30137   6.763  24.288   9.495 -0.3817 -0.0426 -0.0577
87147W        W30138   7.771  31.666   6.200  0.1883 -0.1497  0.3246
87148W        W30139  13.588  28.922   4.507 -0.1456  0.1514  0.2263
87149W        W30140   1.097  11.968   7.719  0.3405 -0.0356 -0.0742
87150W        W30141  14.434  31.500   8.157 -0.0688 -0.1664  0.1970
87151W        W30142   4.202   2.909   0.899  0.2132 -0.3177 -0.1570
87152W        W30143   0.404   8.837  10.570 -0.0759  0.0249  0.4172
87153W        W30144   8.672   5.034  22.824 -0.1684  0.0449  0.3339
87154W        W30145  15.477  32.484   6.105  0.1422  0.1334 -0.1662
87155W        W30146  32.800  15.166   6.491 -0.0246  0.1380  0.1196
87156W        W30147  11.517   1.085  27.246 -0.3251 -0.0131 -0.1384
87157W        W30148  14.729  18.139  17.328  0.1542  0.1099  0.2612
87158W        W30149  29.445   2.614   8.238  0.0717  0.1820 -0.0196
87159W        W30150   6.189  29.466   2.782  0.1095  0.1081  0.3253
87160W        W30151  16.087   6.808   7.615 -0.1241  0.0449 -0.3457
87161W        W30152  30.675  26.078  26.034 -0.0654 -0.2129 -0.2197
87162W        W30153   9.844  28.651  17.190  0.0348  0.0687  0.1645
87163W        W30154   1.067  23.386  27.130 -0.2474  0.3399  0.0956
87164W        W30155  11.002  15.055   9.761  0.0488  0.0458 -0.2141
87165W        W30156   1.828  34.285   4.747 -0.0050  0.1511 -0.0404
87166W        W30157  20.036  30.810   8.511  0.0446  0.2444 -0.2079
87167W        W30158   5.504   3.081   4.638  0.1108  0.1108 -0.0497
87168W        W30159  27.991   8.429   2.052 -0.0678 -0.1878 -0.0612
87169W        W30160  15.912  14.571   0.513 -0.0429 -0.2230 -0.0214
87170W        W30161  16.396  32.523   6.048 -0.4155  0.0107 -0.2212
87171W        W30162  24.052  10.669   6.966 -0.3074 -0.3268  0.0887
87172W        W30163  24.946  34.180   8.701 -0.1506 -0.1908  0.2225
87173W        W30164  11.365  10.279   6.136 -0.1677 -0.0284 -0.2130
87174W        W30165  18.132  29.820  28.934  0.2172 -0.2615 -0.0643
87175W        W30166   8.920  30.824   3.538  0.0862  0.1573 -0.1128
87176W        W30167  11.006  31.152   9.045 -0.0134 -0.0304 -0.1200
87177W        W30168  11.583   3.174   3.310 -0.1841  0.2947 -0.1403
87178W        W30169  15.609   1.294   5.726  0.0595 -0.0418  0.2602
87179W        W30170  11.691  11.801   8.355  0.1276 -0.3468 -0.0337
87180W        W30171  21.987  33.766   0.597  0.2544  0.0034 -0.3090
87181W        W30172  16.451  21.396  18.728  0.1209 -0.0072 -0.1680
87182W        W30173   1.905  21.695   9.429 -0.1224 -0.0419 -0.0415
87183W        W30174   0.131  10.676   3.771  0.1988 -0.1603  0.1413
87184W        W30175  16.988  24.976  19.229 -0.0493 -0.3169 -0.1293
87185W        W30176  12.190   2.983  25.305  0.0564  0.0612  0.1639
87186W        W30177  17.889   2.496  26.749  0.2354 -0.3710  0.1021
87187W        W30178  32.347   2.411   8.134  0.1084  0.0753  0.4074
87188W        W30179  10.759  27.015  27.702  0.3134 -0.0461 -0.1867
87189W        W30180  21.489   5.312   6.168 -0.0675  0.1217 -0.0769
87190W        W30181  17.441   7.594   2.279 -0.0856 -0.2025 -0.0840
87191W        W30182  21.638   0.095   2.123  0.0411 -0.0236  0.0430
87192W        W30183  15.893  28.616   2.537 -0.0025 -0.1199  0.0639
87193W        W30184   9.249  25.724   8.523  0.1674  0.0771 -0.2588
87194W        W30185  17.254  22.345  28.902  0.0154 -0.3814 -0.2473
87195W        W30186   6.667  23.247   3.097 -0.1063 -0.0079 -0.2176
87196W        W30187   9.218   9.938   8.075 -0.3295 -0.4290 -0.0869
87197W        W30188  30.484  21.786   4.775 -0.0789  0.2662 -0.2121
87198W        W30189  11.311  28.191   7.847  0.3503 -0.1805  0.0960
87199W        W30190  10.391  30.877   7.527 -0.0048 -0.1255  0.0991
87200W        W30191  28.311  32.269  18.299  0.0734 -0.0986  0.0535
87201W        W30192   9.444  33.368  22.890 -0.2118 -0.1928  0.0809
87202W        W30193  21.722  31.245  28.076 -0.1415 -0.0735 -0.0591
87203W        W30194   2.724  21.679   6.858 -0.0931  0.0728 -0.0923
87204W        W30195  14.029   2.454   4.873 -0.1540 -0.1553  0.2954
87205W        W30196  12.929   1.258   8.307  0.0941 -0.0870  0.0121
87206W        W30197  31.358  26.156   8.514  0.1196 -0.3991  0.0572
87207W        W30198  13.883  15.154   0.280 -0.4019 -0.0986  0.1117
87208W        W30199   7.855   0.068   4.053  0.0268  0.0411 -0.0123
87209W        W30200  10.448  22.154   7.054  0.0034 -0.1628 -0.1728
87210W        W30201  26.754  15.097  15.515 -0.1743 -0.0079  0.0425
87211W        W30202   7.674   7.224  25.594  0.1883  0.0263 -0.1918
87212W        W30203   3.820   4.183   7.890  0.0856  0.2107  0.0258
87213W        W30204  29.720   8.181  26.974  0.0079  0.2885  0.0495
87214W        W30205  12.145   0.394  11.240 -0.3647 -0.3249 -0.1457
87215W        W30206   7.215  10.685   5.533 -0.2325 -0.0848  0.1918
87216W        W30207   8.076   5.876   5.271 -0.0967 -0.0191  0.3067
87217W        W30208  19.349  23.672   3.648 -0.0936  0.3017 -0.1913
87218W        W30209  11.508   6.397   6.452 -0.1740 -0.0325 -0.0145
87219W        W30210  17.551   3.579   1.060 -0.1654  0.0798 -0.1812
87220W        W30211   5.410   5.480  28.022 -0.1068  0.0280  0.1235
87221W        W30212  17.972  31.293   5.791  0.0932 -0.1409  0.1879
87222W        W30213  10.525   6.432  25.470 -0.0823 -0.1171 -0.0123
87223W        W30214  10.362  33.049   7.553 -0.2603 -0.3182  0.4117
87224W        W30215  11.664   8.861  27.796  0.3371 -0.1092  0.0196
87225W        W30216  15.673   2.714   5.053  0.2117  0.0946 -0.2602
87226W        W30217   1.721  23.426  27.976  0.1867  0.1140 -0.0722
87227W        W30218  10.954   5.424   7.289 -0.1807  0.1008  0.1170
87228W        W30219  34.406  28.329   7.670 -0.1427  0.0008  0.0480
87229W        W30220   5.475   2.536   1.219  0.0259  0.4494 -0.0531
87230W        W30221   1.599   8.171   5.048 -0.1366 -0.1206  0.3516
87231W        W30222  18.622  24.519   0.909  0.0997 -0.1882 -0.2081
87232W        W30223  19.426  13.719   4.938  0.2568 -0.2128  0.2154
87233W        W30224  14.987  22.573   1.467  0.1917 -0.0536  0.1870
87234W        W30225   1.882   6.356   5.036 -0.0794  0.0864  0.3950
87235W        W30226   7.027  27.712   7.368  0.1051  0.2030  0.1002
87236W        W30227   4.728   6.414  26.224 -0.1621  0.3431  0.4216
87237W        W30228   6.172   0.822  24.236  0.2347  0.0655  0.1041
87238W        W30229   5.737  29.653  28.408 -0.0460 -0.0629  0.1765
87239W        W30230  27.519  18.807   6.607 -0.1800 -0.1113 -0.0559
87240W        W30231   2.808  14.543   7.842 -0.0803 -0.0196  0.5153
87241W        W30232  18.386  30.920   7.684 -0.3458 -0.2012  0.0051
87242W        W30233  14.641   5.838  26.262 -0.1553 -0.2276  0.0081
87243W        W30234  14.663  29.939  26.679 -0.0347 -0.2773  0.0774
87244W        W30235   3.403  32.340  10.282 -0.2276 -0.2231  0.2200
87245W        W30236   4.606   1.673  11.142  0.3238 -0.2905  0.0392
87246W        W30237  31.841  27.743   0.373  0.1960 -0.1379  0.1577
87247W        W30238  14.801  22.898   9.476 -0.0620 -0.0056 -0.1243
87248W        W30239   8.236  21.507   3.683 -0.1429 -0.4680  0.2449
87249W        W30240  29.757  20.374   8.103  0.0576 -0.0743  0.0160
87250W        W30241  27.075   2.036   1.448  0.0619  0.2153 -0.3043
87251W        W30242  10.196   8.049   4.737  0.2385  0.1175  0.2867
87252W        W30243   2.077   5.473   2.968 -0.1936 -0.0205 -0.3004
87253W        W30244   1.996  23.556   6.971 -0.1502 -0.0284  0.4461
87254W        W30245  15.653  12.746  16.794  0.1673 -0.2433  0.1462
87255W        W30246  12.967  17.836   4.887  0.3038  0.0861  0.3024
87256W        W30247   2.563  32.317   8.206  0.0227  0.2857 -0.3164
87257W        W30248   9.677  26.854   1.428  0.2275  0.0058 -0.1585
87258W        W30249  23.617  31.914   4.846 -0.1589 -0.3411 -0.6162
87259W        W30250  22.423  34.004   9.801  0.1715  0.0341 -0.1603
87260W        W30251  20.035   3.065   3.450  0.1203 -0.2514 -0.0686
87261W        W30252  12.508  23.782  24.364  0.2051  0.4723  0.2644
87262W        W30253   6.205   7.449   5.143  0.4122  0.1107 -0.2873
87263W        W30254  16.028  20.450   9.558 -0.0455  0.2856  0.2386
87264W        W30255   3.284   5.250   8.099  0.1786 -0.0892  0.1668
87265W        W30256   3.436  19.265   6.025 -0.2255  0.1476  0.1765
87266W        W30257   8.864  24.366  16.490  0.1658 -0.0817 -0.3084
87267W        W30258   9.057  23.895   9.447 -0.2224 -0.6465  0.1857
87268W        W30259  17.330  26.433  28.375  0.1322 -0.0323  0.0918
87269W        W30260  22.000   5.807   7.264  0.0466  0.0120  0.1594
87270W        W30261  10.266  32.574   7.725  0.0632 -0.1331 -0.1599
87271W        W30262   2.262   4.689  29.047 -0.1958  0.1777  0.1980
87272W        W30263   8.566   5.377   6.044  0.0635 -0.0499 -0.1899
87273W        W30264   9.702  33.814  10.065  0.2080 -0.0103 -0.0625
87274W        W30265  18.001   6.422   5.140 -0.3185  0.1322  0.4494
87275W        W30266   0.938   8.972   9.886 -0.1703 -0.0880 -0.0987
87276W        W30267   1.980  14.617   1.105  0.1054  0.1368 -0.2754
87277W        W30268   6.240   5.156   6.274  0.0824  0.1996 -0.0658
87278W        W30269   3.769  33.924  15.099 -0.1321 -0.1680 -0.2323
87279W        W30270  34.072  11.376   0.817 -0.1080  0.0495  0.1875
87280W        W30271  15.331  19.872   4.050  0.2023 -0.1854  0.0448
87281W        W30272  20.656  31.959   0.835  0.2940 -0.0719 -0.1078
87282W        W30273   5.662   4.896   4.316 -0.1226  0.1219 -0.1681
87283W        W30274   7.072   4.393   3.507 -0.0888  0.2174 -0.1418
87284W        W30275  12.491  31.949   0.758 -0.3679  0.1740  0.2043
87285W        W30276  15.495   2.585  23.775 -0.4745  0.2462 -0.1022
87286W        W30277  11.887  15.404   6.979 -0.2294 -0.2929  0.4258
87287W        W30278  21.458  10.053  20.277 -0.1227  0.1603  0.0172
87288W        W30279  11.600   3.258  23.837  0.0535  0.1722  0.3064
87289W        W30280  13.094  16.855  13.164  0.0326 -0.0472  0.0747
87290W        W30281  23.334  14.271  24.618  0.2382 -0.5119  0.1335
87291W        W30282  18.051  26.273  22.802 -0.1395  0.0552  0.2375
87292W        W30283   9.614  16.661  25.068  0.0592 -0.0336  0.2139
87293W        W30284   7.296  26.962  23.866  0.2006 -0.0658 -0.2735
87294W        W30285  21.051   2.484  25.685 -0.1206 -0.0522 -0.0172
87295W        W30286  17.886   4.453  21.914  0.1324 -0.0344  0.0262
87296W        W30287  11.516  33.321   8.426  0.2045 -0.0257 -0.1832
87297W        W30288   8.802   0.969   1.023 -0.0717  0.2938 -0.0081
87298W        W30289  23.049  33.144  25.540  0.3405 -0.4788 -0.3090
87299W        W30290   6.085  12.625   4.038  0.1052 -0.1145 -0.0486
87300W        W30291  13.377  19.377  21.602 -0.0643  0.2328 -0.0337
87301W        W30292  17.992  34.795  24.080 -0.1743  0.3165  0.1737
87302W        W30293  23.338   3.581   5.123  0.2352 -0.1712 -0.1180
87303W        W30294   8.771   1.915  10.385  0.3777 -0.6164 -0.3184
87304W        W30295  22.271   1.427  25.733  0.0861  0.3012  0.3695
87305W        W30296  12.188  30.836   3.744 -0.0146 -0.0520 -0.0221
87306W        W30297  31.145   8.415  15.961  0.2290 -0.0023 -0.1202
87307W        W30298  19.096  14.145   2.462  0.5057  0.0054 -0.3172
87308W        W30299  14.837   4.453   8.162  0.2805 -0.3558  0.0615
87309W        W30300  19.001  13.223  14.120 -0.0671  0.1141  0.1344
87310W        W30301  13.412   2.195  29.002  0.1866  0.0410  0.2969
87311W        W30302  24.155  32.504  23.609 -0.2025 -0.3863  0.2754
87312W        W30303   0.827   9.688   7.258 -0.0842 -0.1400 -0.0745
87313W        W30304   9.080  26.812  17.365  0.3140 -0.0864 -0.1516
87314W        W30305  33.111  23.010   5.082 -0.1343  0.3506  0.2538
87315W        W30306   9.693  15.560   4.693  0.1542  0.2234 -0.2269
87316W        W30307   9.081  20.377   7.382 -0.2646 -0.0891 -0.1373
87317W        W30308  14.225  16.224  28.382 -0.2821 -0.5095  0.3042
87318W        W30309  26.680   1.030  26.829 -0.0980 -0.1116  0.1393
87319W        W30310  11.930  34.499   2.355 -0.1680  0.0909  0.2773
87320W        W30311  21.127   4.207  21.722  0.2179  0.1799 -0.2115
87321W        W30312  10.871   8.390  25.115 -0.0665  0.0873  0.1067
87322W        W30313  13.422   9.216  20.810 -0.7022 -0.0996  0.2748
87323W        W30314  25.599   0.572   8.506 -0.1429 -0.1465  0.0760
87324W        W30315  12.430   7.719   9.573 -0.2299 -0.1773 -0.3966
87325W        W30316  20.441   2.483   6.706 -0.0865  0.2199 -0.0552
87326W        W30317  20.525  22.047  21.276 -0.1078  0.1927 -0.1591
87327W        W30318  33.367  32.818  28.686 -0.2942 -0.4075  0.1095
87328W        W30319  13.750   1.778  21.952  0.3345 -0.3244 -0.0714
87329W        W30320  31.717   7.506   5.221  0.2734 -0.4804 -0.1662
87330W        W30321  16.940  31.622   0.892 -0.6345  0.2077 -0.0078
87331W        W30322   5.523   9.390  22.784 -0.1072 -0.2232 -0.0176
87332W        W30323  18.966  27.626  29.092  0.0987  0.0643  0.3657
87333W        W30324  12.166  11.613  10.643 -0.0231  0.1063 -0.1716
87334W        W30325  29.460  31.145  25.586 -0.2454  0.0370 -0.1075
87335W        W30326   3.573  17.966   8.035 -0.0628 -0.2208 -0.3491
87336W        W30327  13.356   5.888  11.371 -0.0641  0.1346 -0.0566
87337W        W30328  30.955   7.796   9.048  0.1028  0.0561 -0.1781
87338W        W30329  21.194  18.147  26.771  0.0491 -0.1034  0.0855
87339W        W30330  20.943  17.443   2.613  0.1215 -0.1864 -0.2003
87340W        W30331  22.032  33.898   8.282 -0.2414 -0.3688  0.2046
87341W        W30332   7.175   5.033   6.546 -0.0330  0.3513 -0.2388
87342W        W30333  33.506  11.522   0.147 -0.0294  0.4560  0.4387
87343W        W30334  19.089  18.140  29.237 -0.1413 -0.0623 -0.0792
87344W        W30335  13.485   0.161  24.135  0.0394  0.1897 -0.0613
87345W        W30336   6.141  30.105  14.297 -0.4004  0.0561 -0.3047
87346W        W30337  15.825  26.681  20.912  0.0136 -0.1978  0.2739
87347W        W30338   7.341   8.489  25.140 -0.1138 -0.1462  0.1760
87348W        W30339   9.381   4.873   4.830 -0.0672 -0.3292  0.2029
87349W        W30340  21.254  11.254   1.919  0.0128 -0.0540 -0.1106
87350W        W30341  23.510  15.058  14.973  0.0363 -0.0879 -0.0458
87351W        W30342  19.880   0.458  24.186  0.0397  0.0838 -0.2767
87352W        W30343   1.777   5.336   3.385  0.0887 -0.0732 -0.2448
87353W        W30344  28.078  14.503  26.958  0.1844  0.3110 -0.2344
87354W        W30345  14.573  34.659  10.405 -0.1262 -0.3032 -0.0026
87355W        W30346  11.517  23.073   5.940 -0.1858  0.0178 -0.1558
87356W        W30347  15.656   0.581  27.764 -0.0850 -0.3262  0.0695
87357W        W30348   7.868   3.629   2.296 -0.0007 -0.1264 -0.0275
87358W        W30349  11.086   3.395   7.792 -0.1429 -0.1223 -0.0800
87359W        W30350   8.515   6.002  10.734 -0.0696 -0.1649 -0.1982
87360W        W30351  19.985  15.120  19.704 -0.0952 -0.1755 -0.0252
87361W        W30352   5.919  24.481  17.789  0.0216  0.0435 -0.0830
87362W        W30353  24.613  24.659  19.713  0.1976 -0.0814 -0.0305
87363W        W30354   7.676   4.443  10.840 -0.3463  0.3452  0.2109
87364W        W30355  34.650  31.635   7.566 -0.0191  0.0921 -0.1706
87365W        W30356   6.877   0.378   2.740 -0.1296 -0.1795 -0.0890
87366W        W30357  19.795  10.451  28.872  0.0760 -0.1993  0.5186
87367W        W30358  34.404   5.501  20.528 -0.0626 -0.1939  0.1344
87368W        W30359  14.454   0.899  16.525  0.1319  0.0867  0.1755
87369W        W30360  19.373  19.775  28.507  0.3248  0.1455 -0.0217
87370W        W30361  16.783  12.459   8.782 -0.1356  0.0626 -0.1306
87371W        W30362  19.790  28.550   9.418 -0.0196 -0.0310 -0.1222
87372W        W30363   6.395   3.325   2.647 -0.1078 -0.3065  0.0200
87373W        W30364  32.963  26.388   5.464  0.0922 -0.1487  0.1484
87374W        W30365  20.352  20.405   6.830 -0.0064  0.2867 -0.1288
87375W        W30366  22.810   2.254   8.087 -0.1590  0.0529  0.2951
87376W        W30367   6.165  28.446  17.894 -0.1872 -0.4593 -0.2070
87377W        W30368   9.568   9.755  22.468  0.0965  0.3751 -0.3535
87378W        W30369   9.401  33.972  21.583 -0.2287 -0.0268  0.3869
87379W        W30370  10.411  27.989   7.749  0.1346 -0.4144  0.0848
87380W        W30371   4.448  30.118   6.676 -0.1413  0.3037 -0.2682
87381W        W30372  10.654  11.390   3.371 -0.3494 -0.1026 -0.0972
87382W        W30373  25.987  10.545   3.647 -0.0434 -0.2524 -0.1895
87383W        W30374  23.396  25.730  28.975 -0.2674  0.1957  0.0832
87384W        W30375  12.128   0.502  22.099 -0.1331 -0.3716  0.4548
87385W        W30376  11.963   5.095  19.126 -0.0114 -0.1016 -0.1756
87386W        W30377   9.268  10.985  22.832 -0.0135 -0.0148 -0.2625
87387W        W30378  18.351   6.829   1.880 -0.0449 -0.2132  0.1725
87388W        W30379  23.141  33.806  21.585  0.0144 -0.2967 -0.1106
87389W        W30380  29.506  27.425  16.959 -0.0321 -0.0633  0.3903
87390W        W30381   7.575   3.561  28.961 -0.1092 -0.0661  0.1492
87391W        W30382   6.468  33.972  10.143 -0.4049  0.1269  0.1524
87392W        W30383  34.230   1.436  26.282 -0.3173 -0.0961  0.0122
87393W        W30384  26.019   7.127  18.821 -0.3437  0.0727 -0.0859
87394W        W30385  27.678  28.832  24.477  0.1580  0.0846  0.1259
87395W        W30386  20.728  29.197   8.179  0.1249  0.2792 -0.0755
87396W        W30387   2.875   6.542  28.101  0.2634 -0.0190  0.0084
87397W        W30388  12.510  33.324   8.413 -0.0382  0.3183 -0.3728
87398W        W30389  25.301  33.437  20.230 -0.1203  0.0219  0.0171
87399W        W30390   1.755  24.266  15.985 -0.0031 -0.1075  0.2380
87400W        W30391   5.966  10.084   6.401 -0.0219 -0.1244 -0.0767
87401W        W30392  19.889  32.247   1.535  0.4130 -0.3118 -0.1146
87402W        W30393  31.329   3.168  15.380  0.2302 -0.2624  0.0114
87403W        W30394  14.326  23.431  17.235 -0.0846  0.4560  0.1004
87404W        W30395  33.713   3.820   5.586 -0.1170 -0.1310 -0.1725
87405W        W30396  13.835  15.990   0.834  0.1687 -0.0068 -0.3466
87406W        W30397  22.300  12.906   2.090  0.1677 -0.0793 -0.3281
87407W        W30398  16.132   6.328  22.108  0.1553 -0.3868  0.2459
87408W        W30399  17.714  28.997   4.721 -0.1008  0.1596  0.1423
87409W        W30400   5.835  31.470   4.480  0.0411 -0.0575 -0.2568
87410W        W30401  29.893  34.368   3.135 -0.0418  0.2426  0.2057
87411W        W30402   8.068   6.093   4.681 -0.2297  0.0628 -0.2520
87412W        W30403  21.538   1.222   8.951  0.2585 -0.0097  0.1045
87413W        W30404   9.972  32.780  21.782  0.0972  0.0345 -0.1218
87414W        W30405  21.097  17.637   6.427  0.1999  0.0463  0.0909
87415W        W30406   7.842   7.066   4.710 -0.1217  0.5081  0.1777
87416W        W30407   8.988  23.121   3.272  0.0947 -0.0451 -0.0089
87417W        W30408  18.734   2.199  23.867  0.0713 -0.0237 -0.0817
87418W        W30409   6.444   6.924  23.883 -0.2024  0.1047  0.0268
87419W        W30410  13.539  27.523  26.265  0.0145 -0.1215  0.1181
87420W        W30411  19.944  26.086   8.191  0.2434  0.0390  0.0253
87421W        W30412  17.098   8.938   8.798  0.1688  0.0619 -0.1064
87422W        W30413   6.575  10.430   6.219  0.4956 -0.0742 -0.1132
87423W        W30414  17.450   9.155   1.695  0.1554  0.1434  0.3622
87424W        W30415  18.335  27.808  23.800  0.0787  0.1268  0.4512
87425W        W30416  19.666  21.035  20.938 -0.1542 -0.0682 -0.1641
87426W        W30417  18.942  19.180  29.150  0.2736  0.0194 -0.0681
87427W        W30418  15.920  31.165  17.517  0.0937  0.1671 -0.1101
87428W        W30419  23.785  31.365  21.135 -0.2121 -0.0573 -0.0528
87429W        W30420  13.639  32.349   1.670 -0.5179  0.0455 -0.1152
87430W        W30421   0.359   8.064  14.835 -0.3251 -0.1288  0.2617
87431W        W30422   7.801  33.945  18.631  0.2555  0.1180 -0.3308
87432W        W30423   7.824   1.415   3.932 -0.0671  0.0963 -0.0410
87433W        W30424  18.019  20.645  19.249 -0.3926  0.3464  0.1445
87434W        W30425   8.599   2.547  26.728  0.0765 -0.1358  0.2361
87435W        W30426  33.083  32.263   5.270 -0.0800  0.0784  0.0422
87436W        W30427  26.618   3.077   3.383 -0.1257  0.1228  0.0973
87437W        W30428  16.513  14.122  26.326  0.1705 -0.3551  0.1390
87438W        W30429  19.506  24.719   5.814  0.2829 -0.1595  0.1175
87439W        W30430  14.333  28.069   3.848 -0.4291 -0.1543 -0.1690
87440W        W30431  12.559  10.245  21.482 -0.2943  0.2159  0.1186
87441W        W30432  24.038  27.573   1.960  0.0124  0.0696  0.3730
87442W        W30433  20.505  20.180  26.514  0.3065 -0.0122 -0.1876
87443W        W30434  20.470  17.200   8.094 -0.0959  0.2925 -0.0192
87444W        W30435  15.132  26.790  21.573  0.5287 -0.0514 -0.0975
87445W        W30436  33.621  32.672  16.721 -0.0393 -0.2574 -0.0465
87446W        W30437   9.132  27.053   0.714  0.0513 -0.0313 -0.0875
87447W        W30438  16.104  27.779  25.582  0.2130 -0.0585 -0.0492
87448W        W30439  30.416   2.155   6.733  0.0910  0.4324  0.0637
87449W        W30440   8.293  14.920  20.825  0.0191 -0.0422 -0.1406
87450W        W30441  29.775  19.042   0.276  0.0551  0.0775 -0.1284
87451W        W30442  14.223  14.500   6.798 -0.1876 -0.2399  0.4375
87452W        W30443   5.878   4.920  23.028 -0.1031  0.0398 -0.1010
87453W        W30444  16.561   2.828  24.583  0.0843  0.1986 -0.1514
87454W        W30445  31.437  18.301   1.690 -0.1515  0.2452  0.0117
87455W        W30446  12.274   7.097   8.309 -0.0042  0.1374 -0.0550
87456W        W30447   8.110  31.171  27.032  0.1574  0.1517 -0.0117
87457W        W30448  26.870  24.956  26.668  0.3213 -0.1462 -0.0642
87458W        W30449  24.023  27.994  22.453 -0.0187 -0.1194  0.0194
87459W        W30450  15.287  34.120  28.328  0.0343  0.4147 -0.1504
87460W        W30451   1.846   4.585   5.291  0.0688  0.0943 -0.1167
87461W        W30452  15.222  28.360   5.703  0.1896  0.0086  0.0174
87462W        W30453   6.578   9.687  10.467 -0.0307 -0.1056  0.1951
87463W        W30454   0.794   2.148  25.711 -0.3857  0.0085  0.2307
87464W        W30455   7.538  25.737   0.094 -0.0156  0.0374  0.2498
87465W        W30456   7.766  28.362  22.611 -0.5065  0.2838 -0.0283
87466W        W30457  10.846  22.722  15.123  0.1381  0.1740 -0.0922
87467W        W30458  22.593  31.258   0.129 -0.1410 -0.0243 -0.2053
87468W        W30459  19.918   5.686   1.560  0.3045 -0.4050 -0.0110
87469W        W30460  17.792  19.370   3.426  0.0956  0.1893  0.1900
87470W        W30461   7.308   1.712  20.420 -0.0566  0.1958  0.1774
87471W        W30462  15.766  23.403  21.438  0.1392 -0.4551  0.0168
87472W        W30463  25.884  18.486  16.665  0.0299  0.2918  0.0553
87473W        W30464  16.845   4.200  18.967  0.1468  0.0105  0.2444
87474W        W30465  16.871  24.057  16.197 -0.0712 -0.0971  0.3939
87475W        W30466  15.164   6.640   1.568 -0.2634  0.4687 -0.1119
87476W        W30467  20.210  32.501   3.490  0.1229  0.4058  0.1208
87477W        W30468   6.877   7.108  16.103 -0.1008  0.2845 -0.2056
87478W        W30469  19.743  27.267  24.314  0.3606 -0.1171  0.1851
87479W        W30470  23.694  32.924  18.883  0.0358  0.0151  0.1606
87480W        W30471  30.928   6.221  24.674 -0.1324 -0.2918 -0.0411
87481W        W30472  13.818   4.184  11.100 -0.0366  0.1647  0.3036
87482W        W30473  15.986   9.373   5.735 -0.2736  0.0205  0.0971
87483W        W30474  17.915   7.382  27.084 -0.1553 -0.0815 -0.3110
87484W        W30475   9.325   3.649   5.752  0.1765  0.0325 -0.4387
87485W        W30476  19.731   2.953   2.115  0.0437 -0.0379  0.4273
87486W        W30477   6.334  26.464   1.999  0.0836  0.4042 -0.0452
87487W        W30478  29.073   4.318   0.616  0.0819 -0.0855  0.0228
87488W        W30479  16.587  10.398   4.504  0.0235  0.4610 -0.2193
87489W        W30480  19.625   2.188   6.828 -0.1194 -0.0531 -0.2762
87490W        W30481  34.591  20.295   6.185  0.0739  0.1758 -0.1903
87491W        W30482   9.545   2.636   7.373  0.1808 -0.1255  0.0929
87492W        W30483   4.817  22.900  26.376 -0.0739  0.0517 -0.4163
87493W        W30484   4.977   4.750  16.875  0.3407 -0.1559  0.2816
87494W        W30485  11.916   1.329  23.333 -0.3826 -0.4022 -0.0043
87495W        W30486  13.234  24.874  20.244  0.3247  0.1666  0.2428
87496W        W30487  15.199  20.209   4.405  0.0099 -0.0874  0.1142
87497W        W30488  12.030  25.714  25.342 -0.0051  0.1010 -0.0422
87498W        W30489  17.460  11.756   6.759 -0.0486 -0.2219  0.3166
87499W        W30490   2.065   7.790   5.639  0.0853  0.0588  0.0182
87500W        W30491  20.947   6.598   0.548 -0.0629  0.0821 -0.0379
87501W        W30492  13.861  28.558  17.812 -0.0820 -0.0558  0.1169
87502W        W30493   8.166  27.028   5.828  0.1154 -0.0968  0.2109
87503W        W30494  17.624   5.953  17.142  0.1760  0.1414  0.1640
87504W        W30495  13.716  30.798   7.881 -0.0331  0.2156  0.3680
87505W        W30496  17.227  13.354  21.399 -0.0697 -0.0454  0.0436
87506W        W30497  12.188  27.250   4.663 -0.0213 -0.2667 -0.0818
87507W        W30498  19.771   4.670  25.264 -0.0913  0.2302 -0.0512
87508W        W30499  18.454   6.188  28.471 -0.0494 -0.2717  0.2772
87509W        W30500   0.061   9.406  16.111  0.2295  0.0706 -0.2182
87510W        W30501  20.698   9.239   3.805  0.0884 -0.1893 -0.2805
87511W        W30502   4.130   1.540   4.786  0.0071 -0.0641 -0.0670
87512W        W30503  23.961  10.335  23.300  0.0598 -0.2058  0.1741
87513W        W30504  21.973   7.896  13.927 -0.1601  0.3148  0.1225
87514W        W30505  21.934   6.348  14.123 -0.0252 -0.1782  0.2813
87515W        W30506  18.634  32.358  25.858 -0.0869 -0.0701 -0.0672
87516W        W30507  22.259  23.725  29.065  0.1788 -0.1730 -0.0114
87517W        W30508   5.702  27.115  16.512  0.1183  0.0148 -0.2337
87518W        W30509  16.675  27.349   4.119  0.1110 -0.0438  0.2927
87519W        W30510  14.831  17.469   1.464 -0.1950 -0.1454 -0.0982
87520W        W30511  34.498  17.285  25.190 -0.2551  0.0736  0.0949
87521W        W30512   3.411   5.916   6.105  0.1118  0.1542 -0.4404
87522W        W30513  14.872  17.121   2.519 -0.0900  0.2717 -0.0233
87523W        W30514  18.411  30.928  26.324  0.0512  0.3121 -0.1114
87524W        W30515  15.136  32.587   4.106 -0.0443 -0.1022 -0.0353
87525W        W30516  33.431   7.516  26.187  0.2960 -0.2378  0.1293
87526W        W30517  15.696   2.649  17.488  0.3401 -0.5057 -0.1568
87527W        W30518  10.884   0.813  22.698 -0.1114  0.0849 -0.1170
87528W        W30519  19.761  29.739  26.713  0.2542 -0.0423  0.0503
87529W        W30520  16.251   2.086   6.000  0.0540  0.3181 -0.3334
87530W        W30521   0.647  10.681  15.893  0.1561 -0.0211 -0.0442
87531W        W30522   3.332  17.266   6.213  0.1241 -0.2368 -0.0533
87532W        W30523  17.262   0.245   1.844  0.0606  0.2765  0.2194
87533W        W30524  22.825  25.001   0.391 -0.0362 -0.1104  0.1012
87534W        W30525  21.003  20.367  28.808  0.0186  0.1000  0.2462
87535W        W30526   5.670   9.668   3.154  0.2023 -0.0360 -0.3078
87536W        W30527  13.046  15.831   3.984 -0.1267  0.0227  0.1898
87537W        W30528  29.259  29.991   0.163 -0.3806  0.0851 -0.0241
87538W        W30529  17.331   1.847   7.676  0.2409 -0.2407 -0.0683
87539W        W30530  14.892  19.309  21.916  0.0177  0.1608  0.0645
87540W        W30531  19.783  32.091  23.322 -0.3342 -0.0210  0.2039
87541W        W30532   2.135   0.349   8.118  0.3098  0.0846  0.2743
87542W        W30533  15.433  15.231   3.829 -0.1446  0.1643 -0.2308
87543W        W30534  16.650   2.576  18.666 -0.1573  0.1513  0.2199
87544W        W30535   3.452  27.578  28.616 -0.2872  0.0077  0.0147
87545W        W30536  15.837  33.063   6.951 -0.0390 -0.0254 -0.2463
87546W        W30537  28.621  22.846   7.897 -0.2918 -0.2625 -0.0680
87547W        W30538   4.909  21.561   6.830 -0.1137 -0.5467 -0.0747
87548W        W30539  15.434   9.908  21.403  0.0942 -0.2077  0.1036
87549W        W30540   8.897  22.743  28.423 -0.3121  0.0406 -0.0748
87550W        W30541  16.930   0.815   3.131  0.2834  0.0749  0.3320
87551W        W30542   9.926  15.775  27.582  0.2346 -0.0409 -0.0628
87552W        W30543  24.829  28.025   3.815  0.3557  0.2491  0.2340
87553W        W30544  12.155   0.439   2.519  0.1186 -0.1434 -0.1879
87554W        W30545  10.519  23.446  19.961  0.0244  0.4247 -0.0079
87555W        W30546  21.309  27.832   7.174 -0.0574  0.1502 -0.3535
87556W        W30547  11.726   8.825   5.517  0.1037 -0.0688  0.0307
87557W        W30548  10.714   5.122   8.158 -0.0734  0.2014 -0.1067
87558W        W30549   5.700   1.257  28.139  0.0693  0.3310 -0.1023
87559W        W30550  22.188  32.116  16.418 -0.0206 -0.1608 -0.1954
87560W        W30551   5.279   5.145  25.686 -0.3048  0.2066  0.0284
87561W        W30552   5.531   8.231  29.074 -0.2043 -0.1686 -0.0074
87562W        W30553   7.388  25.551  28.868  0.0146  0.1837  0.3525
87563W        W30554  21.757  12.472  23.255  0.0668 -0.0829  0.0673
87564W        W30555  17.506   4.911   0.508  0.2093  0.2906  0.1305
87565W        W30556  10.834  23.092  24.055 -0.0652  0.2384 -0.0544
87566W        W30557  13.738  27.797  16.716  0.0036 -0.1357  0.0250
87567W        W30558   9.294  31.094   8.863  0.1170 -0.0774  0.2086
87568W        W30559   2.996   3.249   0.418  0.0707  0.3040 -0.0818
87569W        W30560  12.962   0.947   6.607 -0.3261  0.3185  0.0623
87570W        W30561   5.255  12.155  26.042 -0.0552  0.3116  0.0486
87571W        W30562  17.127  21.871  26.579  0.2310  0.2621  0.3917
87572W        W30563  17.534   8.747  24.184 -0.0890  0.0601  0.4297
87573W        W30564  16.895  12.631   6.905 -0.1949 -0.0608  0.1287
87574W        W30565  17.532  31.198  18.009  0.1736  0.2046  0.1282
87575W        W30566  24.819  16.243  15.963 -0.3278  0.0999  0.0260
87576W        W30567   6.402  23.150  23.792 -0.3367 -0.0503 -0.1614
87577W        W30568  25.908  26.911  25.496 -0.1557  0.0303 -0.2411
87578W        W30569   5.450  32.731   9.575 -0.3528 -0.1821 -0.0793
87579W        W30570   9.226  10.038   1.330 -0.2162  0.1051 -0.0850
87580W        W30571  12.175   0.289   7.487  0.0220  0.0687  0.0166
87581W        W30572  27.770   3.949   5.062  0.2170 -0.0945 -0.3195
87582W        W30573  19.817  22.219   7.790  0.1380 -0.0430 -0.0919
87583W        W30574   3.136  24.786  24.389 -0.0843  0.0296  0.1389
87584W        W30575   6.069   1.213   2.624 -0.4240 -0.2020  0.3351
87585W        W30576   8.349   5.029   6.282  0.0435  0.0535 -0.1690
87586W        W30577   4.415   2.299  20.448 -0.0076 -0.2377  0.0812
87587W        W30578  19.538   6.921   4.083  0.1719  0.0674 -0.3437
87588W        W30579  32.197   9.279  17.818  0.1633 -0.0283 -0.2529
87589W        W30580  16.445  20.316   4.838 -0.2544 -0.0038 -0.0655
87590W        W30581   7.698  29.144   5.314 -0.0697 -0.1327  0.4946
87591W        W30582   9.832  31.976  26.049 -0.0880 -0.0387  0.0596
87592W        W30583  14.126  15.771   4.169  0.0533 -0.2135 -0.2754
87593W        W30584  22.795  23.897  24.347 -0.0712 -0.2309  0.2399
87594W        W30585  22.223   4.319  24.273  0.0075 -0.3521 -0.0294
87595W        W30586  10.242  19.440  24.661  0.1275  0.0246  0.0335
87596W        W30587  24.574  15.551   4.926 -0.2230  0.0407 -0.1062
87597W        W30588   1.373  27.514   1.705  0.0484 -0.2823 -0.0104
87598W        W30589  30.056   8.273  16.029 -0.0208 -0.0159  0.5525
87599W        W30590  21.290   7.501   3.504  0.2154  0.2062 -0.2894
87600W        W30591   2.373  30.024  27.186 -0.0412 -0.1022  0.2276
87601W        W30592   9.277  30.419   5.869 -0.0574 -0.1127 -0.0922
87602W        W30593  21.418  33.087   1.165 -0.1654 -0.0170 -0.3462
87603W        W30594  12.509   5.485   6.248  0.0793  0.0550  0.3642
87604W        W30595  10.151  33.389   0.824  0.2673 -0.0643  0.0847
87605W        W30596   5.654   7.663  15.816 -0.1561  0.0551 -0.2443
87606W        W30597  21.335   6.736  15.463 -0.1169 -0.2438  0.1014
87607W        W30598   7.364   4.508  14.880  0.0791 -0.0178  0.0122
87608W        W30599  14.439   8.015  10.336  0.1431  0.2897  0.0165
87609W        W30600  33.710  32.176   3.664  0.0315 -0.1208 -0.1247
87610W        W30601  12.257   6.047   3.950 -0.1967  0.2828  0.1424
87611W        W30602   8.139   0.365  14.973 -0.1083  0.2932 -0.0250
87612W        W30603   0.680  26.224   5.038  0.1321 -0.1589 -0.2640
87613W        W30604  33.213   1.243  17.210 -0.1469 -0.1556 -0.0888
87614W        W30605  29.010  28.573   1.794  0.0378 -0.0933  0.2200
87615W        W30606  10.069   8.352  25.521 -0.0300  0.0627  0.0238
87616W        W30607  17.524  26.549   2.168  0.3142 -0.1323 -0.0104
87617W        W30608  23.713  19.773   2.307 -0.1800  0.1412 -0.0080
87618W        W30609  14.763   7.822   0.967 -0.0086  0.0765  0.0818
87619W        W30610  17.138  12.102  16.792  0.1208  0.5395  0.2810
87620W        W30611  33.153   1.833   0.100 -0.1708 -0.2306  0.3339
87621W        W30612  19.838   0.724  29.179  0.0806 -0.0843 -0.2492
87622W        W30613   3.587   3.526  16.664  0.1985 -0.0321  0.0571
87623W        W30614   9.467   0.564  10.996 -0.0451  0.1031  0.3401
87624W        W30615  13.102  16.195   7.370  0.0953 -0.3450  0.1348
87625W        W30616  22.677  31.967   4.724 -0.1339  0.4530  0.3284
87626W        W30617  30.085  23.318  28.061 -0.2370  0.0842 -0.0418
87627W        W30618   4.947  11.328   3.665 -0.0730  0.2090  0.3178
87628W        W30619  10.543  29.570  16.846  0.0560 -0.2240  0.0936
87629W        W30620  23.428  13.208   8.873 -0.1345 -0.0867 -0.0253
87630W        W30621  15.387  32.309  15.991  0.0112 -0.0188  0.0310
87631W        W30622   7.262  33.893  24.890  0.3802 -0.2143  0.1378
87632W        W30623  10.207  25.000  25.437  0.1834 -0.0105  0.0004
87633W        W30624   2.821  33.879  18.889  0.0204 -0.2750  0.2652
87634W        W30625  10.422  20.994   2.021 -0.2949  0.0114 -0.2188
87635W        W30626  23.202   6.024   4.869  0.2860  0.0929  0.0198
87636W        W30627  10.959  20.089  24.536  0.1302  0.2181  0.1455
87637W        W30628  11.784   3.623  22.312  0.0221  0.1396  0.3376
87638W        W30629  31.494  15.518  28.824 -0.3612  0.0498 -0.0659
87639W        W30630  14.958   6.370  10.151  0.3388 -0.0599  0.0914
87640W        W30631   8.696  22.856  24.612 -0.0006  0.2333 -0.1446
87641W        W30632   6.949  33.884  25.627 -0.0189  0.4537 -0.3154
87642W        W30633  16.804  27.299   8.679  0.0490  0.3386  0.2403
87643W        W30634  16.373   4.452   5.686  0.0091  0.1772  0.0868
87644W        W30635  25.280  14.653   9.073  0.0369 -0.4604 -0.1964
87645W        W30636  12.066  19.236  25.036 -0.1111 -0.0435  0.1376
87646W        W30637  19.178   6.655  19.800 -0.1589 -0.0621  0.1298
87647W        W30638   2.763  25.707  26.270 -0.0420 -0.0798  0.1237
87648W        W30639  14.460   6.970  14.791 -0.1013 -0.0850 -0.0720
87649W        W30640  27.122  14.206  28.779 -0.2702  0.1451  0.0341
87650W        W30641   9.651   0.658  28.161 -0.3566  0.0058 -0.1489
87651W        W30642  13.803  26.110   7.848 -0.3160  0.2334  0.3979
87652W        W30643  19.278   6.906  26.425 -0.0987 -0.0967 -0.0215
87653W        W30644  29.679   0.261   5.028  0.0025 -0.0757 -0.0105
87654W        W30645  14.730  28.065  16.950  0.0763  0.0095  0.0691
87655W        W30646  31.903  33.969   3.255  0.4321  0.0443  0.2822
87656W        W30647  24.241   7.888  22.132 -0.3465 -0.3700  0.0485
87657W        W30648  29.910  28.512  20.070  0.1825 -0.2138  0.2905
87658W        W30649   6.274   4.016  21.794 -0.0982 -0.4765  0.0012
87659W        W30650  25.677  10.178   6.386 -0.0432  0.1899  0.3385
87660W        W30651  28.492  16.588   3.976 -0.3901  0.2586 -0.1438
87661W        W30652  15.215  30.040   1.791  0.1246  0.0284  0.0468
87662W        W30653   7.528  12.220  26.038  0.2662 -0.1508 -0.0068
87663W        W30654   8.776  13.197   2.950  0.3234  0.0332  0.0344
87664W        W30655  33.999  11.298   4.541  0.0101  0.0320 -0.0513
87665W        W30656   3.676  29.190  24.915  0.0797 -0.1313 -0.0070
87666W        W30657  16.079  18.360   2.350 -0.0231 -0.1171  0.2266
87667W        W30658   9.328   7.284  11.215  0.2694 -0.3302 -0.0842
87668W        W30659  11.696   9.130  19.217  0.0823  0.2866  0.1535
87669W        W30660  11.215  32.751  19.999  0.3095 -0.0060 -0.1041
87670W        W30661  14.965  11.735  26.111 -0.5726 -0.4653  0.0533
87671W        W30662  18.505   6.476  18.194  0.0194 -0.0572 -0.3206
87672W        W30663   7.875  11.626  10.701  0.0336 -0.0457  0.1148
87673W        W30664  12.896  10.718   5.896 -0.2767 -0.0282 -0.0448
87674W        W30665  28.262  31.201   1.842 -0.1084 -0.0361  0.0068
87675W        W30666  19.654  30.439   7.730 -0.0231 -0.1836  0.1904
87676W        W30667  13.120  25.419  15.111 -0.2822 -0.2640 -0.0477
87677W        W30668  19.952  31.083  14.320 -0.2376 -0.1412  0.0914
87678W        W30669   1.012  14.176  28.519  0.1730  0.2601  0.1438
87679W        W30670  30.172   5.789  19.620  0.0883  0.1530  0.1881
87680W        W30671  23.790   1.696   7.404  0.3160 -0.1642  0.1039
87681W        W30672  26.331  34.611   8.027  0.2805  0.2649 -0.2162
87682W        W30673   4.576  28.799  22.643  0.0928 -0.0844  0.0746
87683W        W30674  20.971   3.850   5.740 -0.0927  0.2492 -0.0531
87684W        W30675  25.084  13.184   2.378  0.4230 -0.0447 -0.2413
87685W        W30676  30.050   6.600   9.121  0.0291  0.4443  0.0138
87686W        W30677  24.893   4.677  29.135  0.0095 -0.3188  0.0926
87687W        W30678  11.981  32.793  23.928  0.0468 -0.2754 -0.0071
87688W        W30679  32.283   3.883  25.379 -0.1224 -0.1585 -0.1718
87689W        W30680  18.842  17.783  23.896 -0.2709  0.0813  0.1773
87690W        W30681  30.006  32.669   6.521  0.2602 -0.0911  0.2894
87691W        W30682  12.885  10.482  26.188  0.1813  0.1764  0.4614
87692W        W30683   6.697   4.191   0.627  0.4073  0.2996  0.0245
87693W        W30684  34.565   8.687  10.761  0.3249 -0.0236  0.0519
87694W        W30685  21.531  34.702   5.493  0.0906  0.1271 -0.3216
87695W        W30686  14.258   8.315   7.803 -0.0281 -0.0244  0.1517
87696W        W30687   6.141  16.766  25.427 -0.1852 -0.0050 -0.0700
87697W        W30688  24.454   7.471  28.034 -0.2863 -0.1859 -0.0382
87698W        W30689  31.932   9.584  27.693  0.0388 -0.1188 -0.5360
87699W        W30690  22.529  19.056  22.235  0.0691  0.1116  0.0309
87700W        W30691  19.796  17.506   6.362  0.0979  0.2160 -0.3309
87701W        W30692   8.383  28.646   3.648 -0.2135 -0.0512 -0.0893
87702W        W30693  24.521   7.434   1.052  0.1138  0.0861  0.1643
87703W        W30694  15.917  28.546  28.112  0.0428 -0.2844 -0.1600
87704W        W30695  20.353   3.082  25.739  0.0820 -0.0241 -0.4847
87705W        W30696   2.741   4.001  24.043 -0.2161  0.2328  0.0756
87706W        W30697  21.825  16.063  27.564  0.1274  0.2493  0.1113
87707W        W30698  27.304   6.764   4.326  0.1899 -0.1568  0.1415
87708W        W30699  18.435   3.083  22.916 -0.4436  0.0451  0.0392
87709W        W30700   3.379   6.747   8.915  0.0103  0.2744  0.0492
87710W        W30701  20.733  28.397  26.002 -0.4061  0.1996 -0.0463
87711W        W30702   5.556  34.727  22.478  0.0692  0.2057 -0.2504
87712W        W30703  23.160   8.376   3.004  0.1697  0.1615 -0.3710
87713W        W30704  22.071  21.070  22.393  0.0223 -0.0070  0.1438
87714W        W30705  11.554  33.616   8.792 -0.2117 -0.0589 -0.0224
87715W        W30706   8.890   2.749   4.964 -0.1189  0.0281 -0.2176
87716W        W30707  18.106  32.623   8.963 -0.2882  0.1518  0.2008
87717W        W30708  25.786  25.792   2.650 -0.0261 -0.1109  0.0596
87718W        W30709   5.751   4.568   7.853 -0.1325  0.0083 -0.2166
87719W        W30710  34.449  22.060  29.126  0.1704  0.0200  0.1068
87720W        W30711  15.625  26.128  21.955 -0.0677 -0.0281 -0.1122
87721W        W30712  17.617   9.738   7.787 -0.0235 -0.0759  0.1124
87722W        W30713   4.540   6.526   5.181 -0.2256 -0.1375  0.1595
87723W        W30714  23.719   1.625  28.595 -0.1445  0.0906  0.1143
87724W        W30715  14.161  27.140  23.516 -0.1944  0.0604  0.1242
87725W        W30716  14.624  12.356   7.672 -0.0202  0.0909 -0.1779
87726W        W30717  12.981   1.975  23.376 -0.0575 -0.2589 -0.2947
87727W        W30718   0.414  34.495   5.564 -0.0255  0.3224  0.0844
87728W        W30719  11.167  22.691  24.179 -0.1109  0.1008  0.0998
87729W        W30720  14.504   1.290   0.394 -0.1219 -0.0075  0.1753
87730W        W30721  18.428  24.508   4.679  0.1057  0.0796 -0.3902
87731W        W30722  24.250  28.266   9.194  0.0128 -0.1773 -0.4375
87732W        W30723   0.443   1.471   4.320 -0.1550 -0.3680  0.1104
87733W        W30724  14.914  26.292  29.165  0.1290 -0.3033  0.0097
87734W        W30725   8.265  31.295   7.927 -0.0518 -0.0416 -0.2339
87735W        W30726  25.976  29.159   9.114  0.1391  0.3041 -0.1200
87736W        W30727  17.519  28.049  10.076  0.1849 -0.1761  0.2723
87737W        W30728  22.496  33.681   7.362  0.1664  0.1326 -0.1979
87738W        W30729   6.986  10.255   0.156 -0.0474  0.0755  0.0399
87739W        W30730  17.333   0.979  27.134 -0.2211  0.2945 -0.2280
87740W        W30731  16.058  34.312   2.386  0.1212  0.1363  0.1628
87741W        W30732   8.707   9.264   9.607  0.0863  0.0117  0.3034
87742W        W30733  17.988  15.679   5.710 -0.2157 -0.1434  0.2403
87743W        W30734  29.236   4.608   5.665 -0.1186  0.0711  0.2371
87744W        W30735   6.235  13.273  10.798  0.0146 -0.1123 -0.1619
87745W        W30736  15.291   8.185   9.879 -0.3384 -0.3965  0.2413
87746W        W30737  24.536  10.239  22.095 -0.0606  0.0883 -0.0398
87747W        W30738  20.581   3.271   1.022  0.1493  0.2667  0.1076
87748W        W30739  33.117  30.503   7.186  0.0939  0.1356 -0.0364
87749W        W30740  21.803   9.405   9.550 -0.0108 -0.1043 -0.2010
87750W        W30741  17.086  30.831  10.010  0.1555  0.0313  0.0662
87751W        W30742  20.245  21.062  20.915 -0.2392 -0.3063  0.2182
87752W        W30743  15.137   6.634   9.205  0.2271 -0.2151 -0.0297
87753W        W30744   6.719  27.129   2.612  0.1466  0.0750 -0.1981
87754W        W30745  13.519  24.777   7.056  0.1368  0.1277  0.0070
87755W        W30746   3.918  31.457   5.726 -0.0931  0.3595  0.2096
87756W        W30747  16.424   0.121   9.158  0.3303  0.1906  0.0724
87757W        W30748  15.534   2.454   2.664  0.0874 -0.1009 -0.2106
87758W        W30749  15.849   2.791  26.625 -0.0101  0.1719  0.0666
87759W        W30750  10.499  31.839  25.037  0.0867  0.3564 -0.2967
87760W        W30751  23.840  31.608  25.185 -0.1553 -0.1362 -0.1787
87761W        W30752  10.337  22.991  28.461 -0.4541  0.2564 -0.1451
87762W        W30753  15.229  18.053   8.749  0.0911 -0.1000  0.0672
87763W        W30754   4.323  19.149   5.770  0.2203  0.2124 -0.2644
87764W        W30755   1.528  34.022  27.260  0.1381  0.0241  0.0645
87765W        W30756   9.082  18.168   2.553  0.2429 -0.2497 -0.0234
87766W        W30757  14.626  18.030   0.407  0.1198  0.1216  0.0147
87767W        W30758  25.748   3.326  14.024  0.3493 -0.2657  0.0860
87768W        W30759   5.538  31.312  28.996 -0.0040  0.1627  0.0706
87769W        W30760  11.458   7.092   8.418  0.4214  0.2154 -0.0471
87770W        W30761  12.220   4.624  29.146  0.0550  0.2016  0.2100
87771W        W30762   2.212  30.965  25.719 -0.0220 -0.2068  0.4412
87772W        W30763  27.674  21.181  19.097  0.1889  0.0315  0.2672
87773W        W30764   3.152   0.426  24.012 -0.0360  0.0382 -0.0918
87774W        W30765  15.049  30.796  26.482 -0.4669 -0.1888  0.0048
87775W        W30766   0.729   8.174  26.729  0.0219 -0.3558 -0.2385
87776W        W30767  19.524  17.001   6.466 -0.1588 -0.2377 -0.1607
87777W        W30768  32.430  29.385   8.852 -0.0254  0.0405 -0.3031
87778W        W30769  10.730  25.282  22.371 -0.0285  0.1319 -0.0359
87779W        W30770  23.302  23.115   8.511  0.2646 -0.1233 -0.2484
87780W        W30771  21.166  11.315  17.742 -0.2360 -0.3563 -0.2551
87781W        W30772   5.060  12.670  10.224  0.0476 -0.0967  0.0277
87782W        W30773  33.724  22.343   0.622  0.1162 -0.2391 -0.2070
87783W        W30774   4.499  16.108   2.459  0.2844 -0.2392 -0.1958
87784W        W30775   2.327   7.440   2.482 -0.2656 -0.3583  0.2258
87785W        W30776  18.043   7.435  19.021 -0.4035 -0.1841 -0.2333
87786W        W30777   8.095   1.993   1.797  0.2395  0.0778 -0.2651
87787W        W30778  23.389  29.384  26.427 -0.2378  0.0999  0.0938
87788W        W30779  20.437   1.490   7.783 -0.1138 -0.2039  0.1756
87789W        W30780  13.395  29.476   7.281  0.0305 -0.0130 -0.1378
87790W        W30781  17.112  29.632   9.456  0.1135  0.0843 -0.1591
87791W        W30782  14.947  12.972  26.284  0.1305  0.2026  0.0815
87792W        W30783  22.785  15.214  28.882 -0.2068 -0.0843 -0.2499
87793W        W30784  23.856  33.485   7.486  0.2470 -0.0822 -0.0569
87794W        W30785  18.389  10.613  15.331 -0.0623 -0.3092 -0.0536
87795W        W30786  19.479  20.333   9.025  0.2282  0.1634 -0.2431
87796W        W30787  29.348   0.957   3.702  0.0515 -0.0543  0.0193
87797W        W30788  23.968  17.237  20.518 -0.1893 -0.0260  0.0012
87798W        W30789  25.648  32.553  24.171  0.0190  0.0566  0.1801
87799W        W30790   6.087   2.547   4.451  0.1624  0.0941  0.0538
87800W        W30791  21.703  16.488   2.038 -0.1192 -0.2990 -0.3640
87801W        W30792  17.960  22.535  28.907 -0.1092 -0.0136  0.0726
87802W        W30793  13.254  15.726   5.265  0.0622 -0.4237 -0.0950
87803W        W30794  13.418   3.960  29.027 -0.0961 -0.1731  0.0145
87804W        W30795  12.408  22.812   7.008 -0.1960  0.0761  0.0745
87805W        W30796  15.248  34.355   9.172  0.2772  0.1192 -0.0553
87806W        W30797  13.164   8.417   4.585 -0.2986 -0.4098  0.0803
87807W        W30798  18.667  25.061  16.951 -0.2924 -0.2833 -0.1859
87808W        W30799  22.280  24.107   5.989  0.0032 -0.0056 -0.1494
87809W        W30800  13.940  10.644  25.010  0.2210  0.2125  0.0052
87810W        W30801   1.853  27.388  21.668  0.2166 -0.0843  0.1204
87811W        W30802   2.087  17.355  26.521  0.3208 -0.0027  0.2017
87812W        W30803  13.640  28.446  17.295 -0.0788 -0.2479 -0.2350
87813W        W30804  26.952  28.832  29.146 -0.0819  0.0758  0.1877
87814W        W30805  18.247  29.207   5.625  0.2523  0.2884  0.4415
87815W        W30806  28.793  25.777  26.343  0.0513  0.0195  0.0083
87816W        W30807  33.106  32.504   7.063  0.0758  0.0121  0.0353
87817W        W30808   7.906  28.874   4.864 -0.1133  0.1417  0.2028
87818W        W30809   3.860   3.841   8.429 -0.1217 -0.1518 -0.0261
87819W        W30810  16.883   1.949   9.632  0.0119  0.2435  0.2269
87820W        W30811   3.697  25.488   3.516  0.0081 -0.1968  0.0539
87821W        W30812   7.331  29.127   3.678  0.3868  0.0559  0.2431
87822W        W30813  23.567  17.178   8.625  0.0197 -0.1012  0.1246
87823W        W30814  14.823  22.711   5.359  0.0070  0.2683 -0.1810
87824W        W30815  27.474   6.769   7.062 -0.3531 -0.2571  0.2719
87825W        W30816  16.913   1.901   5.127 -0.1677  0.5119  0.1241
87826W        W30817   8.082   4.867  25.906  0.4119  0.2243  0.0630
87827W        W30818  19.584  25.289   3.238 -0.1800  0.3702  0.0262
87828W        W30819   7.288  16.118  25.585  0.2254  0.1005 -0.3468
87829W        W30820  22.782   2.587  18.406 -0.2652 -0.1828 -0.2491
87830W        W30821   2.208  13.399  10.161 -0.0921 -0.2301  0.2331
87831W        W30822  13.545  19.976   1.037 -0.0706 -0.0663 -0.2119
87832W        W30823  33.261   7.334   5.507  0.0847 -0.0190  0.0786
87833W        W30824  17.093  21.705   7.099 -0.0966 -0.2268 -0.2099
87834W        W30825  13.948  18.864  23.101  0.2229  0.3621 -0.0441
87835W        W30826   3.893  23.616  18.809 -0.0888 -0.3519  0.1323
87836W        W30827  10.376  19.968   4.208 -0.0836  0.2008  0.0820
87837W        W30828  26.504  26.239  25.634  0.0398  0.0970  0.1222
87838W        W30829  12.733  24.939   1.863  0.5052  0.0900  0.1723
87839W        W30830   9.165  27.466  26.796 -0.1726  0.0112 -0.0699
87840W        W30831  27.964  27.268  20.419  0.3472  0.0272  0.0575
87841W        W30832  10.882  31.370   0.555 -0.1431  0.0904 -0.2609
87842W        W30833  16.563  33.818   2.958 -0.1728  0.0881  0.3662
87843W        W30834  14.791   2.816  22.624  0.5016  0.0931  0.2530
87844W        W30835  27.219  27.303   7.993  0.0583  0.2570  0.0946
87845W        W30836  26.353  26.560   7.088 -0.2495  0.0308 -0.1138
87846W        W30837   9.282   8.664   9.499  0.0281 -0.1384 -0.2802
87847W        W30838  10.499  28.595   8.636 -0.0323 -0.1099 -0.0986
87848W        W30839  30.007   1.381  29.110  0.1598 -0.0245  0.1754
87849W        W30840  19.158   5.047  26.444 -0.0747  0.1808 -0.2627
87850W        W30841  18.930   1.599  27.213 -0.1184 -0.4143  0.0629
87851W        W30842  30.167   7.827   7.884  0.2321  0.1053  0.1556
87852W        W30843  18.515  28.547  26.897 -0.1045 -0.1685 -0.2166
87853W        W30844  21.179  15.114  10.222 -0.1875  0.0815  0.0055
87854W        W30845  20.834   3.271  28.044 -0.4036 -0.0178  0.0032
87855W        W30846  17.819  13.503  18.812  0.1509  0.1337  0.0403
87856W        W30847  23.152   1.281   8.152  0.1779 -0.0874 -0.0013
87857W        W30848  14.537  16.676  28.378 -0.0612  0.2554  0.0904
87858W        W30849  14.613  19.781  28.036  0.3349  0.0752 -0.1899
87859W        W30850   7.817   2.089  26.295 -0.1068 -0.0909 -0.0780
87860W        W30851  28.965  32.537   7.697 -0.1641  0.1057 -0.5170
87861W        W30852  21.748   6.957  27.781 -0.0272 -0.2612  0.0947
87862W        W30853  18.333  26.930  23.206 -0.0568  0.0821  0.2131
87863W        W30854  11.637   5.549  29.216 -0.0989 -0.1411  0.0361
87864W        W30855   4.840   6.294  11.107  0.2157 -0.2690  0.0766
87865W        W30856   2.651  32.879  22.269  0.4412 -0.0052 -0.1284
87866W        W30857   2.689   7.392  25.667  0.0416  0.0074  0.0856
87867W        W30858  11.473  27.881  28.253  0.2851  0.1102 -0.5955
87868W        W30859  16.422  11.489   6.524  0.1637  0.2273 -0.0063
87869W        W30860  15.094  28.236  27.246 -0.1021  0.2353  0.1656
87870W        W30861   8.823   1.899  10.902  0.0913  0.1319  0.1023
87871W        W30862  17.806  28.029   1.654  0.1468  0.1729 -0.1444
87872W        W30863  15.176  28.202  24.698  0.0659 -0.3515  0.2160
87873W        W30864  16.654   7.344  17.034 -0.2389 -0.1953 -0.1823
87874W        W30865  21.888   6.068  24.516 -0.3377 -0.0449  0.0130
87875W        W30866   0.325   3.766   9.757  0.0486 -0.1477 -0.1011
87876W        W30867  21.965  25.627  15.644 -0.1268 -0.1273  0.0628
87877W        W30868   8.073  33.778   9.667  0.2534 -0.1181  0.1709
87878W        W30869  17.149  31.890   6.109  0.1184  0.0595 -0.0404
87879W        W30870  28.497   3.239   0.400  0.0958  0.0869 -0.1591
87880W        W30871  19.021  32.735   9.321  0.1081 -0.0320 -0.1350
87881W        W30872   5.057  12.760  28.850 -0.0646 -0.2617 -0.0739
87882W        W30873  23.484  26.538  25.092  0.1974 -0.1680 -0.0575
87883W        W30874  20.666  12.321  22.556  0.1289  0.1131 -0.1159
87884W        W30875   4.625  27.284   8.524 -0.2727  0.0635  0.0905
87885W        W30876   9.456  29.561  21.173  0.1457 -0.2782  0.0617
87886W        W30877  16.622   0.277  10.083 -0.1073  0.1036  0.3368
87887W        W30878   5.916  23.441  28.661  0.1131 -0.2387  0.0232
87888W        W30879  25.851   7.210  21.761  0.0531 -0.1883  0.3908
87889W        W30880  22.138   1.067   2.487  0.2009 -0.1777  0.2327
87890W        W30881  27.318   0.245   2.401 -0.1104  0.1615  0.2181
87891W        W30882   7.415  22.228   4.450  0.1838 -0.1688  0.2858
87892W        W30883   6.291  13.940   6.609 -0.0141  0.0716  0.0635
87893W        W30884  14.383  24.145  21.403  0.0229 -0.3069 -0.3160
87894W        W30885  15.084   7.098   0.378  0.1269 -0.3784  0.0961
87895W        W30886   9.383  31.137  21.292  0.1864 -0.0759 -0.0769
87896W        W30887   3.267  28.625  22.918 -0.0529  0.0639 -0.1059
87897W        W30888  10.374  32.689  15.590 -0.0374 -0.1788 -0.0659
87898W        W30889   4.437   4.581  15.384  0.3338  0.1175  0.1665
87899W        W30890  21.749   5.705  26.499 -0.0306  0.2005  0.2246
87900W        W30891  11.389   5.459   5.502  0.2003  0.0636 -0.0205
87901W        W30892  21.070   1.348  27.292 -0.1949  0.1457  0.0394
87902W        W30893  14.738  13.165   2.836  0.1406  0.0218  0.1440
87903W        W30894  32.693   7.526   7.886 -0.2131 -0.1400  0.3524
87904W        W30895  20.798   5.527   8.211  0.0189 -0.4302 -0.1024
87905W        W30896  13.371  29.615  22.995  0.0695 -0.0047 -0.0499
87906W        W30897  10.373   9.994  26.810  0.1819  0.1678 -0.0392
87907W        W30898  27.642   1.814  23.958  0.0152 -0.2134  0.0623
87908W        W30899  10.733  16.984  24.595 -0.7121  0.3837  0.3355
87909W        W30900   3.673  19.239   0.788 -0.1968 -0.1127 -0.3705
87910W        W30901  21.285  13.685  21.320  0.0367  0.0334  0.2236
87911W        W30902  18.216   4.292   9.254  0.0305  0.2251  0.0753
87912W        W30903  18.249  18.490   3.780  0.3720  0.1520  0.3182
87913W        W30904  11.845  23.378  17.862 -0.1647  0.0114 -0.3128
87914W        W30905  15.408  23.314   0.406  0.1077  0.0972 -0.0232
87915W        W30906   7.450  31.772   4.175 -0.0998  0.0311 -0.1229
87916W        W30907  11.907  31.370  27.619 -0.1601 -0.0853 -0.0203
87917W        W30908  25.659  10.101  26.188 -0.2143  0.1424  0.1951
87918W        W30909  19.378   9.002   5.152  0.2237 -0.0908 -0.1587
87919W        W30910  12.006  29.867   0.788  0.1502 -0.3273  0.1519
87920W        W30911   7.892   1.058   0.153  0.2246  0.0483  0.1775
87921W        W30912   8.029  30.584  10.464  0.3705  0.0235  0.3103
87922W        W30913  24.355  21.750  20.399 -0.3166 -0.0375  0.2146
87923W        W30914  32.523  20.836  19.952 -0.1259  0.1872  0.0982
87924W        W30915   5.915   7.039   4.280  0.2102 -0.1347 -0.2970
87925W        W30916  25.656   2.079  21.832 -0.2443  0.3416 -0.0694
87926W        W30917  25.882  23.585   1.474  0.0311  0.2030  0.3280
87927W        W30918  16.475  10.250   5.256 -0.1330 -0.1720 -0.2377
87928W        W30919  34.117  10.055   6.463  0.0106  0.0303  0.0421
87929W        W30920  15.325   8.523   8.157  0.2525  0.1105 -0.0252
87930W        W30921  14.586  27.371   3.789  0.0921 -0.0344  0.0982
87931W        W30922  17.359  24.847   4.480  0.1866  0.1918 -0.0782
87932W        W30923   8.847   0.701   3.928 -0.1176  0.1842 -0.1020
87933W        W30924  24.893  29.747   3.991 -0.1895  0.0197  0.4641
87934W        W30925  15.283  15.495   5.491 -0.2587 -0.1307  0.0133
87935W        W30926  18.987  26.769   0.318 -0.2828  0.0517  0.0433
87936W        W30927  33.183  25.770  18.567  0.0253  0.1080 -0.1293
87937W        W30928   3.812   2.795   6.745  0.0630  0.1567  0.1143
87938W        W30929  17.003   6.928  10.435  0.0968 -0.0159  0.4008
87939W        W30930  17.872  18.846   1.377 -0.0621  0.1384 -0.1142
87940W        W30931  30.315  23.134   4.742  0.0179  0.0115 -0.0157
87941W        W30932  14.987   2.257   2.723 -0.0379  0.0202  0.0991
87942W        W30933  12.784  25.750   1.934  0.2337 -0.1220  0.0950
87943W        W30934  13.013   1.778   7.975  0.2128  0.2222 -0.1495
87944W        W30935  17.346  33.123   9.602 -0.0055  0.1307  0.1838
87945W        W30936   1.023  31.418   5.857 -0.0183  0.1311 -0.0435
87946W        W30937  28.839   0.250   2.595  0.0671  0.2141  0.1138
87947W        W30938  33.248   1.735  16.992 -0.3261  0.0412  0.1776
87948W        W30939  16.718  10.639  28.118  0.0764  0.2582  0.1821
87949W        W30940  27.883  32.296   4.751  0.1255  0.0634 -0.1730
87950W        W30941  22.106  13.733   6.968 -0.2007  0.0385 -0.0018
87951W        W30942  17.394   4.635   0.061  0.0309 -0.3341 -0.0293
87952W        W30943  22.569   2.789  25.321 -0.0049 -0.0374  0.1959
87953W        W30944   7.803   6.859   6.141  0.0120  0.0858 -0.0727
87954W        W30945  24.008   9.275   4.814  0.2401 -0.3287  0.1748
87955W        W30946  14.284  24.651   5.150  0.3265  0.0930 -0.1762
87956W        W30947   7.381   1.671   7.024 -0.0534 -0.0191 -0.0290
87957W        W30948  18.379  31.400   6.305 -0.2138  0.1281 -0.0599
87958W        W30949  13.041  26.188   3.856  0.4700  0.0161  0.1390
87959W        W30950  18.798   7.679  26.555 -0.1391  0.1526 -0.2954
87960W        W30951  11.875  26.043   1.202 -0.0714 -0.2331 -0.0726
87961W        W30952  32.642   7.812  26.839  0.0088 -0.0286 -0.0364
87962W        W30953  22.401  28.334   8.617 -0.1853 -0.1613 -0.2330
87963W        W30954  18.012  32.395   9.386  0.2043  0.0506 -0.2358
87964W        W30955  12.763  27.838  26.882 -0.0075 -0.0270  0.0272
87965W        W30956  13.897  21.339   8.769 -0.0681  0.1594  0.0638
87966W        W30957  15.749  33.557  28.210  0.2523 -0.1232 -0.1507
87967W        W30958  11.131  23.473  24.837  0.0521 -0.0784 -0.1959
87968W        W30959  18.367  31.733   1.792  0.0909  0.0186  0.0484
87969W        W30960  12.802  16.295  19.065 -0.0799 -0.1775 -0.1305
87970W        W30961  25.013  13.287   1.408  0.1410 -0.0228  0.1952
87971W        W30962  13.208  33.176   3.660 -0.0904  0.1164 -0.1747
87972W        W30963   5.087   7.958   5.341  0.1473  0.1649  0.0583
87973W        W30964  13.811   9.038  11.282 -0.1622  0.0066 -0.0001
87974W        W30965   9.605  15.966  24.486  0.0782 -0.3077 -0.1855
87975W        W30966  18.755  13.194   2.697 -0.2216  0.6057 -0.1859
87976W        W30967  19.821  11.232   4.270 -0.3558 -0.1819  0.0300
87977W        W30968  23.906  16.331   6.032  0.1268  0.2767  0.1142
87978W        W30969  16.620  30.029  28.954  0.2031 -0.0376 -0.1056
87979W        W30970   9.003  17.180   8.873 -0.1065 -0.0980 -0.2689
87980W        W30971  23.262  14.778   7.102 -0.0566  0.0999  0.0916
87981W        W30972  16.953  20.899   6.026 -0.2708  0.2497  0.0660
87982W        W30973  28.966  34.378  26.737  0.1265  0.1878  0.1520
87983W        W30974  20.723   6.747   9.174 -0.2787 -0.0817  0.0844
87984W        W30975   4.559  33.981  18.920 -0.0623 -0.1928  0.1920
87985W        W30976  10.401   8.052  26.479  0.0431 -0.0722 -0.1266
87986W        W30977   7.759   5.063   5.236 -0.0050  0.2472 -0.0048
87987W        W30978  25.820   4.492   5.207 -0.0197  0.0719  0.1166
87988W        W30979  17.957  23.362   3.097 -0.0597  0.0909  0.2920
87989W        W30980  14.888   3.364  26.845  0.4417 -0.1044 -0.3835
87990W        W30981  21.913  12.083   0.541  0.1790  0.1718 -0.0023
87991W        W30982  18.999  32.992   8.736 -0.1219  0.0426 -0.2456
87992W        W30983  15.167  18.565   2.711 -0.0015 -0.3410 -0.4149
87993W        W30984  14.311   7.144   3.492 -0.1316 -0.1212  0.3827
87994W        W30985  11.808   6.332  16.939 -0.0631 -0.0785 -0.0984
87995W        W30986   2.196   9.666  16.951 -0.2888  0.0220  0.0390
87996W        W30987   0.446  31.011   9.204  0.0457  0.1051  0.0463
87997W        W30988  14.744  12.086  20.125 -0.1168  0.2873  0.0407
87998W        W30989  17.001  14.941   1.253 -0.2237  0.0351 -0.0357
87999W        W30990  11.990  17.846   5.203  0.3033  0.0003  0.3275
88000W        W30991   0.822  10.442  24.736 -0.2299  0.2130 -0.0587
88001W        W30992  13.670   0.050  27.038 -0.2348 -0.1843  0.0537
88002W        W30993  12.550  11.004   1.457 -0.0439  0.1112 -0.0534
88003W        W30994  15.672   9.205   3.492  0.2073  0.1254 -0.0970
88004W        W30995   3.344  15.375  28.627 -0.3314 -0.1616 -0.1724
88005W        W30996  34.801  11.183   9.667 -0.1183 -0.1774  0.0982
88006W        W30997   7.324  34.771   6.667 -0.1246  0.0642 -0.1901
88007W        W30998  21.919  34.377   3.553  0.0203  0.2010 -0.1486
88008W        W30999  14.977   1.090  16.499 -0.2177 -0.0885 -0.1073
88009W        W31000  23.726  13.035   8.521  0.1155 -0.0589 -0.0394
88010W        W31001  14.396   2.868   3.320 -0.3058  0.0228 -0.0323
88011W        W31002  13.242   7.804   6.241 -0.2608 -0.1736 -0.0404
88012W        W31003  12.934  23.088   5.642 -0.0281  0.1291  0.2089
88013W        W31004   9.840   1.666   5.083  0.0066 -0.0681 -0.0600
88014W        W31005  32.757  34.385   2.584 -0.0085 -0.1407  0.0014
88015W        W31006  23.025  23.761  27.198 -0.1468  0.3046  0.0999
88016W        W31007  17.335  33.504  29.111 -0.0290 -0.0215  0.1725
88017W        W31008  24.139  32.430   1.336 -0.1754 -0.2825  0.2079
88018W        W31009  20.322   0.225   9.083  0.1964  0.0276 -0.0636
88019W        W31010   7.150   1.365  27.240 -0.0560  0.2566  0.2312
88020W        W31011  18.825   4.239   6.088 -0.0562  0.0473 -0.3496
88021W        W31012  22.742  31.143   3.614 -0.1076  0.2527  0.3498
88022W        W31013  12.541   6.141   8.602  0.1632 -0.0944 -0.3529
88023W        W31014   5.431  31.624   5.039 -0.1108  0.0965 -0.2194
88024W        W31015  18.427  30.811   0.234 -0.0989 -0.1793 -0.0643
88025W        W31016  12.639  27.872  28.577  0.0313  0.2038 -0.0002
88026W        W31017  22.590  30.607  27.101 -0.0846 -0.0293  0.2710
88027W        W31018  14.963   2.480   0.842 -0.0175  0.2761 -0.0902
88028W        W31019   9.447  16.692   5.048  0.0558  0.1181 -0.0519
88029W        W31020  22.643   9.184  26.670 -0.1101 -0.1227 -0.2362
88030W        W31021  29.808  11.638  16.327 -0.1314  0.0630 -0.1864
88031W        W31022   7.811  21.465  28.642  0.0751  0.1385 -0.0620
88032W        W31023  13.177   0.055   7.296  0.0503  0.2819  0.1006
88033W        W31024   5.086   7.015   7.957 -0.1509 -0.2069  0.0234
88034W        W31025  11.428  28.775  22.071 -0.1785 -0.3088  0.0814
88035W        W31026  22.706  29.225  21.980  0.1272  0.0408  0.1452
88036W        W31027  16.213  20.607   0.421  0.2648 -0.1695 -0.0468
88037W        W31028   2.559  30.786  27.039  0.1139 -0.1103 -0.3008
88038W        W31029  10.939  28.524  27.689  0.2696  0.1050  0.1549
88039W        W31030  33.650   9.987   4.540  0.2244  0.0027 -0.3525
88040W        W31031  23.262  13.962  15.653  0.1537 -0.1327  0.1111
88041W        W31032  13.716  20.771   5.067  0.1270  0.3749 -0.2121
88042W        W31033   7.999  12.019   2.280  0.1323  0.1038  0.2883
88043W        W31034  12.973  34.387   6.070  0.0978  0.0053  0.0371
88044W        W31035   6.615  13.932   9.097 -0.2078 -0.2504 -0.1628
88045W        W31036  13.162   0.902   1.404  0.2058  0.0734 -0.0698
88046W        W31037  10.274  32.289   8.447 -0.0660  0.1765 -0.0401
88047W        W31038   0.935   2.259  28.101  0.0871 -0.2253  0.0743
88048W        W31039   9.625   7.151   4.081 -0.0848  0.0981 -0.0846
88049W        W31040  23.609  25.448   1.296 -0.1421 -0.3546 -0.0800
88050W        W31041  31.413  24.071   4.608 -0.3610  0.3831  0.3000
88051W        W31042   8.616   1.605   5.067 -0.1354  0.3108  0.2002
88052W        W31043  10.018   7.613  10.196  0.4358 -0.0046 -0.1059
88053W        W31044  15.925  17.340   8.952  0.0850  0.2658  0.4269
88054W        W31045   5.367  32.226   9.575 -0.0013 -0.0566  0.0623
88055W        W31046  21.847   9.794  19.159 -0.1201  0.0125  0.1882
88056W        W31047   0.234   9.230   1.054 -0.1776  0.2644 -0.0579
88057W        W31048  14.796  32.709   1.848  0.1549 -0.0080 -0.1627
88058W        W31049   5.835   3.178   1.811 -0.1579  0.0735 -0.1130
88059W        W31050  15.417  32.364   7.595 -0.2535 -0.0798  0.1957
88060W        W31051  12.840   0.769   9.357 -0.1126  0.0391  0.1805
88061W        W31052  10.395   8.904   8.261  0.0097  0.1173  0.1516
88062W        W31053  20.045  26.302   9.620 -0.0693  0.0257 -0.2012
88063W        W31054  16.562   3.206   0.802  0.0860 -0.1657  0.1791
88064W        W31055  15.774  32.517   1.061 -0.0775 -0.1259  0.2974
88065W        W31056   8.757  25.305  28.419 -0.2033 -0.0529 -0.1417
88066W        W31057  17.046  14.350  18.564 -0.1333  0.3692  0.1737
88067W        W31058  15.191  19.566   4.499 -0.1551  0.4332  0.3910
88068W        W31059  24.934  16.021  27.987  0.2504 -0.0730  0.1579
88069W        W31060  31.011  32.211  27.475 -0.3203 -0.3421 -0.1268
88070W        W31061  10.130   3.111  10.413  0.2815 -0.1215  0.1721
88071W        W31062  22.525   7.240   5.521 -0.0373 -0.6012  0.0418
88072W        W31063  20.369  18.127   7.639 -0.0573 -0.0102 -0.0350
88073W        W31064  10.399   1.571   9.237 -0.0689 -0.1046  0.0660
88074W        W31065  22.757  20.373  17.742  0.1895 -0.0316  0.0959
88075W        W31066  13.724   7.200  28.158 -0.1529  0.0283 -0.0422
88076W        W31067  11.869  24.322   8.800  0.1427  0.0248  0.2581
88077W        W31068  11.648  30.200  23.736  0.1221 -0.0731 -0.1003
88078W        W31069  10.013  31.888   4.842 -0.4966  0.1149 -0.0128
88079W        W31070   6.381  19.752   5.221  0.0543  0.2240 -0.3004
88080W        W31071  10.383   8.827  10.395 -0.0763  0.1067  0.0809
88081W        W31072  11.667   0.179   9.465 -0.1386  0.0330  0.0143
88082W        W31073  10.181   4.115  10.702  0.2675  0.1652 -0.3025
88083W        W31074  15.589  10.180   7.368 -0.2310 -0.1031  0.0730
88084W        W31075  10.164  21.174   7.944  0.4106  0.1238  0.1712
88085W        W31076  15.951  11.218   7.283 -0.1011 -0.0870 -0.2858
88086W        W31077  15.466   4.151  10.595  0.2304  0.1643 -0.2160
88087W        W31078   9.631  33.373   5.042 -0.1173  0.1022 -0.1398
88088W        W31079   8.295  31.512   9.606 -0.1571 -0.0452  0.1243
88089W        W31080  15.153  11.913   9.383 -0.1236  0.0273 -0.1129
88090W        W31081   7.861  15.079   3.263 -0.1046  0.2778 -0.2345
88091W        W31082  17.962  25.465  26.648  0.0681 -0.0188 -0.0475
88092W        W31083   2.203  30.143   5.872  0.1911  0.1594  0.3758
88093W        W31084  29.013  31.556   2.203 -0.0250  0.1843 -0.2805
88094W        W31085   3.622   3.322   9.366 -0.0164  0.0672 -0.0989
88095W        W31086  12.590  12.444   3.902  0.0283  0.1996  0.0715
88096W        W31087  32.964   9.611  26.324 -0.1576  0.1257  0.0650
88097W        W31088   3.159   6.080  11.064 -0.5638 -0.1786  0.0894
88098W        W31089  18.174   9.578   2.331 -0.0743 -0.0061 -0.1006
88099W        W31090   8.039  32.368   8.759 -0.0879  0.0471  0.1268
88100W        W31091  25.208   5.659   7.217  0.1817 -0.1551  0.0375
88101W        W31092   7.256  20.132   7.064  0.1101 -0.2181 -0.0879
88102W        W31093   9.701  20.963  27.130 -0.1667 -0.1067 -0.2198
88103W        W31094   6.371   6.620  24.340 -0.0941 -0.0643 -0.2221
88104W        W31095  24.027  12.281   3.781 -0.1310  0.3855 -0.0670
88105W        W31096  15.208  23.201  24.217  0.1077 -0.0037  0.2593
88106W        W31097  13.687  13.612   2.304  0.2453  0.0317  0.1844
88107W        W31098  19.310   5.542   2.191  0.0245  0.3209 -0.3379
88108W        W31099  32.878   9.691   7.163  0.1816  0.0777 -0.0961
88109W        W31100  12.618  14.002   1.961 -0.1419 -0.0621 -0.1572
88110W        W31101   3.797  31.736  24.159 -0.0919 -0.0058  0.1449
88111W        W31102  14.239  29.359  28.440 -0.0579 -0.1152  0.1124
88112W        W31103  12.149  12.752  10.183  0.0933  0.0674  0.0882
88113W        W31104  13.788   6.311   5.906 -0.1359 -0.2806  0.0678
88114W        W31105  26.628   6.840   9.476  0.1533  0.0126 -0.1178
88115W        W31106  26.107   1.778  27.534  0.3612 -0.0811  0.0797
88116W        W31107  24.527  30.301   7.517 -0.4075 -0.4201 -0.0601
88117W        W31108  17.628  33.095   3.405 -0.0330  0.1154 -0.0365
88118W        W31109  24.309  24.459  23.802 -0.5002 -0.4172  0.0932
88119W        W31110  17.735  17.528   6.146  0.0033 -0.1475 -0.0593
88120W        W31111  13.603  15.185   4.835  0.4373 -0.2864 -0.2808
88121W        W31112  32.695  30.468  25.042  0.0630 -0.2191 -0.1179
88122W        W31113  13.453  31.975  22.228  0.0605 -0.1194  0.0817
88123W        W31114  18.295  29.145   7.131 -0.3564 -0.1588 -0.2053
88124W        W31115  30.867   2.492  26.439 -0.0569  0.1198 -0.1607
88125W        W31116  21.537  34.075   9.694 -0.0504  0.3602  0.1231
88126W        W31117  13.156  31.803   5.359  0.0423  0.0018 -0.0293
88127W        W31118  26.956  32.248   2.181 -0.0874  0.0665  0.2677
88128W        W31119  17.733  34.323   6.136  0.0466 -0.0605  0.1467
88129W        W31120  16.881   6.154   7.565  0.3262  0.1103 -0.2416
88130W        W31121  20.840   5.737   2.059  0.1476  0.0718 -0.0906
88131W        W31122   5.442  19.422   1.673  0.0356 -0.0466 -0.0011
88132W        W31123  15.860  10.229   1.345 -0.1650  0.0803 -0.2760
88133W        W31124  15.058   2.162  11.436 -0.0144 -0.1371  0.2820
88134W        W31125  19.272   3.074   6.908  0.2721  0.1692 -0.1365
88135W        W31126  22.389  27.387  21.074 -0.0000  0.0309 -0.0602
88136W        W31127  16.682  23.602   1.342  0.1555 -0.3143 -0.1905
88137W        W31128  10.549  32.572   9.508  0.3266  0.2162 -0.2051
88138W        W31129  33.676   9.690  20.481 -0.0036  0.0455  0.1809
88139W        W31130  19.561  32.386   5.932  0.0251 -0.1344  0.1847
88140W        W31131  17.323   6.831   0.354  0.0089  0.4894 -0.0778
88141W        W31132   6.562  26.407   0.806  0.0796  0.2646  0.0423
88142W        W31133  19.558   8.461   4.660  0.2655  0.0395 -0.1074
88143W        W31134  10.600  21.663  26.644  0.1066  0.0755  0.2143
88144W        W31135  10.193   8.230  28.430 -0.1587 -0.1660  0.0697
88145W        W31136  22.169  13.538  28.624 -0.1139 -0.1845 -0.1021
88146W        W31137  13.314  30.633   6.064 -0.0693 -0.1093 -0.3659
88147W        W31138  13.973  25.766   5.580  0.0362 -0.0511  0.0886
88148W        W31139   5.083   6.362   9.997  0.1146 -0.1219  0.1969
88149W        W31140   4.963   3.649   7.287 -0.1166 -0.1132 -0.1930
88150W        W31141  15.891   4.545   8.995 -0.0732 -0.1209 -0.2026
88151W        W31142   6.823   7.524  10.798 -0.1350 -0.2042 -0.3634
88152W        W31143  15.500  17.404   9.197 -0.1575  0.3658 -0.1919
88153W        W31144  12.234  33.021   8.939  0.3184  0.4418 -0.0275
88154W        W31145  15.907  32.525   3.571  0.2340 -0.0198 -0.4945
88155W        W31146  10.669  34.222  10.085  0.0629  0.0894  0.1180
88156W        W31147   7.169  33.657  28.936  0.0958 -0.2489 -0.0049
88157W        W31148  12.478  20.807  25.976  0.6040 -0.1686 -0.1332
88158W        W31149  32.493  18.872  21.801  0.1536  0.0491  0.2310
88159W        W31150  30.404   0.696  27.740 -0.0638  0.0409 -0.0307
88160W        W31151  19.524  26.898   3.037  0.1878 -0.2081  0.1341
88161W        W31152   6.617  19.885  10.211 -0.0073  0.0308  0.2112
88162W        W31153   3.240   4.129   0.694 -0.1600 -0.2281  0.0909
88163W        W31154  19.697  24.996   6.705  0.0458  0.0390  0.2163
88164W        W31155  13.788  28.612   5.483  0.1937  0.1780  0.0949
88165W        W31156  23.601  11.894   0.825  0.2268 -0.0467  0.0903
88166W        W31157  15.947   1.309   3.792  0.0377 -0.1134 -0.2703
88167W        W31158   6.977   6.562   9.861  0.1039  0.0471 -0.3365
88168W        W31159  16.915  17.095  26.608  0.1024 -0.0002 -0.1798
88169W        W31160  20.527  24.145   0.459 -0.0045 -0.2082  0.0606
88170W        W31161  25.623  14.722   0.406  0.1475 -0.0961 -0.0824
88171W        W31162  30.796  13.967  10.626 -0.2039  0.2335  0.0017
88172W        W31163  33.116   5.530   5.767 -0.1636 -0.0753  0.1392
88173W        W31164  16.234  29.614   9.930 -0.0312  0.2098  0.6816
88174W        W31165   1.818  11.939   8.491  0.0101  0.0167 -0.1859
88175W        W31166  10.000  19.108  22.389  0.0165 -0.1761  0.3403
88176W        W31167   5.585  31.321   9.142 -0.2731  0.2505  0.1465
88177W        W31168  25.519  25.353   3.592  0.4078  0.0982 -0.2343
88178W        W31169  27.683  19.355   6.708  0.0750  0.2778 -0.1533
88179W        W31170  22.543   8.553   0.523  0.2222 -0.0019  0.5102
88180W        W31171  20.936  32.498  26.545  0.2361  0.1110 -0.0266
88181W        W31172   6.808  31.856   8.848  0.0193 -0.1145  0.0069
88182W        W31173  22.746   2.255   1.946 -0.1002  0.0737 -0.2872
88183W        W31174  31.387   5.904  22.751  0.0995 -0.2470 -0.1123
88184W        W31175  15.805  28.552   1.520  0.0758 -0.3016  0.0141
88185W        W31176  19.256   1.251   1.304  0.1287  0.2252  0.0361
88186W        W31177   8.332   4.556  21.934  0.1050  0.1684 -0.0618
88187W        W31178  17.479  26.925   5.850  0.0782  0.1303 -0.0401
88188W        W31179  21.807  13.393  26.992  0.3753  0.2582  0.1929
88189W        W31180  10.543   3.538   9.175 -0.1980 -0.4009  0.0209
88190W        W31181  28.713  31.527   1.089 -0.3061 -0.0559 -0.1207
88191W        W31182  29.152  18.580   9.378  0.2340 -0.0653 -0.0896
88192W        W31183  15.901   0.849   5.315  0.0394 -0.1252  0.0139
88193W        W31184   7.763  28.757  24.445  0.2964 -0.0507 -0.0900
88194W        W31185  18.258   3.301   2.559 -0.1186  0.0297  0.2427
88195W        W31186  34.777  25.754  28.847 -0.2427  0.0757  0.2109
88196W        W31187   7.100   8.076   6.431 -0.0787 -0.1698  0.0873
88197W        W31188   3.830   4.664   1.910  0.3020 -0.2840  0.1120
88198W        W31189  22.771   7.661   9.840  0.0950 -0.1413  0.0979
88199W        W31190  32.930  16.706   5.417 -0.1475  0.1978 -0.1173
88200W        W31191   6.144   6.479   2.147 -0.1533  0.3650  0.3784
88201W        W31192   5.158   8.755   9.089  0.1833 -0.0613 -0.3079
88202W        W31193  15.309  22.933   3.186  0.4576  0.3424 -0.3465
88203W        W31194  29.239  31.230   5.990 -0.1304  0.2356  0.0599
88204W        W31195  10.837   2.415  25.826 -0.0432 -0.4563  0.0508
88205W        W31196  12.783  13.499   2.163  0.4777 -0.5096  0.1385
88206W        W31197  14.371  28.810  24.940 -0.0476 -0.0759  0.1368
88207W        W31198  17.716  32.284   1.872  0.1175 -0.2164 -0.2418
88208W        W31199  16.235   3.925  28.631 -0.3161 -0.0084 -0.2020
88209W        W31200  18.809  32.143   4.520 -0.0296  0.2152 -0.3728
88210W        W31201   9.262  28.494   8.373 -0.0660  0.0414 -0.1997
88211W        W31202  24.437  16.145   6.040 -0.2634  0.1166 -0.3241
88212W        W31203  17.505  31.193  16.309 -0.0665  0.0425  0.0432
88213W        W31204  19.317  29.335  22.729 -0.0495  0.1033  0.2958
88214W        W31205  18.322   5.294   2.352  0.1905 -0.0355  0.0208
88215W        W31206  12.488  12.334  27.457 -0.2694 -0.1318  0.4121
88216W        W31207  25.134  13.619  24.383 -0.2839 -0.1466 -0.2277
88217W        W31208   7.731  30.647  29.233  0.1990 -0.3144  0.1188
88218W        W31209  12.470   3.665   2.860 -0.1725  0.1138  0.3433
88219W        W31210  24.832  26.379  27.975 -0.0811 -0.0197  0.0260
88220W        W31211  14.746  34.496   2.947 -0.0455  0.4004 -0.0273
88221W        W31212  17.154   0.413   2.363  0.1390 -0.4469  0.1743
88222W        W31213  13.217  33.916   6.185 -0.2328 -0.0627 -0.2312
88223W        W31214  11.224  20.876   1.655  0.0473  0.1361 -0.1009
88224W        W31215  12.874   1.000  10.170  0.0048  0.1961  0.1686
88225W        W31216  27.859  23.241  18.732  0.0054 -0.0470 -0.1280
88226W        W31217  12.036  31.689   3.232  0.0256  0.1945 -0.1610
88227W        W31218  16.197   0.950   2.503 -0.0002 -0.1433  0.2899
88228W        W31219  17.941  11.888  24.578  0.2077  0.2145  0.2929
88229W        W31220   0.457  16.205   3.920  0.2825  0.1447  0.0542
88230W        W31221  14.751  33.126  10.528 -0.2789  0.2254 -0.0346
88231W        W31222   9.965  31.038   1.038 -0.1176 -0.0971  0.1225
88232W        W31223  22.724  30.315  25.389 -0.0141  0.0856  0.2144
88233W        W31224   8.569   8.450   4.050 -0.0071  0.4790 -0.0334
88234W        W31225   0.384   3.698   2.104 -0.1118 -0.0260  0.1377
88235W        W31226   2.502  18.366   7.277 -0.0124  0.3066 -0.0662
88236W        W31227  32.235  26.479   1.903  0.1707 -0.0238  0.2589
88237W        W31228  14.006  31.656   5.552  0.2224  0.1722  0.2142
88238W        W31229  15.224  25.106  27.689 -0.0382  0.1631 -0.1734
88239W        W31230   0.517   2.223   2.766 -0.0052 -0.0198 -0.0160
88240W        W31231   1.893  19.323   5.399 -0.0598 -0.0368 -0.0578
88241W        W31232  18.437   0.627   5.762 -0.1300  0.0467  0.0080
88242W        W31233   4.341   1.503  24.749 -0.0010 -0.0007 -0.1838
88243W        W31234  21.479  11.989   9.072 -0.0610 -0.1009  0.0113
88244W        W31235  10.377   6.165  28.527 -0.1262 -0.1998  0.2377
88245W        W31236  20.435  28.017   7.950 -0.0044  0.0022 -0.0233
88246W        W31237  27.565   7.605  28.209 -0.1955  0.1484 -0.3225
88247W        W31238  13.985   9.193   1.302  0.0733 -0.3548 -0.1698
88248W        W31239   7.000   3.596   1.213  0.0744 -0.0744  0.2511
88249W        W31240  19.951   6.931   3.777 -0.1529  0.2204  0.1032
88250W        W31241   3.230  29.688   1.364  0.1850 -0.0547  0.0059
88251W        W31242   2.859   8.791   2.357  0.0683  0.1302  0.1760
88252W        W31243  11.225   4.631   0.743 -0.1488 -0.0808 -0.0725
88253W        W31244  33.093  30.976   0.188  0.0473  0.1616 -0.2448
88254W        W31245  20.729  30.481   2.659 -0.0207 -0.2357 -0.1990
88255W        W31246  10.070   1.820   7.725  0.0677 -0.1267  0.1313
88256W        W31247  12.173   4.510   7.765  0.1467 -0.0580  0.0688
88257W        W31248  26.362  29.413  18.686 -0.0493  0.0437 -0.4017
88258W        W31249  20.614  11.170   8.655  0.2410 -0.3911 -0.1071
88259W        W31250  31.822   8.164   2.373  0.0631  0.0256  0.1850
88260W        W31251   5.934  32.819   3.335 -0.2375 -0.0866  0.3792
88261W        W31252   6.293  31.546  28.653 -0.0880 -0.0506 -0.0190
88262W        W31253  12.653  15.102  28.715  0.0062  0.3300 -0.3209
88263W        W31254   9.213  26.125   6.084 -0.3596  0.1502 -0.2177
88264W        W31255  14.670  23.663  28.671  0.1419  0.0322 -0.0414
88265W        W31256  14.987   5.929   2.935  0.2086  0.1245 -0.1863
88266W        W31257  12.277  10.633   5.098  0.2434 -0.1773 -0.2389
88267W        W31258  26.084  25.253   5.097 -0.0821  0.0849 -0.2889
88268W        W31259  30.601   7.808   7.386 -0.2756 -0.1011 -0.1983
88269W        W31260  13.914   3.000   7.189 -0.1396 -0.0154 -0.0083
88270W        W31261   1.668   3.199  19.842 -0.1117 -0.1223  0.1932
88271W        W31262   6.129  12.564  28.810  0.1217  0.0797 -0.1423
88272W        W31263  15.932  18.351   9.174  0.0571  0.2127 -0.0579
88273W        W31264   2.870  29.994   2.066  0.3722  0.0921 -0.0582
88274W        W31265  23.413  22.662  22.971 -0.2248 -0.0139 -0.2321
88275W        W31266  17.816  30.829   9.195 -0.0752  0.0412 -0.4347
88276W        W31267   0.953  31.939   2.692  0.1042 -0.1264  0.0248
88277W        W31268  16.727  14.494   1.205 -0.1228  0.0448  0.2157
88278W        W31269  13.588  26.042  29.064  0.2101  0.1339 -0.0717
88279W        W31270  15.944   9.728   0.071  0.0233  0.1942  0.1341
88280W        W31271  14.700  27.546  25.427  0.3728 -0.2756 -0.1233
88281W        W31272  28.429  28.624   6.144 -0.3396 -0.2125 -0.1491
88282W        W31273  24.693   8.391   9.334 -0.0992 -0.2601 -0.0239
88283W        W31274  28.270   2.768   9.723 -0.0909 -0.1507  0.0265
88284W        W31275  15.983  23.244  25.111  0.2283  0.0087  0.0160
88285W        W31276  19.502  21.050   9.072 -0.1266  0.2189  0.1458
88286W        W31277  23.566  14.977   9.608 -0.2987 -0.0850 -0.1732
88287W        W31278  29.957   8.269   9.891  0.2991 -0.1465  0.0455
88288W        W31279   6.718   1.978   0.413  0.4207  0.1333 -0.2911
88289W        W31280  23.741  31.335   4.781  0.3569 -0.2653  0.2079
88290W        W31281   7.548   2.914   9.378  0.0137  0.0604 -0.0565
88291W        W31282   8.887  31.666   9.923  0.3093 -0.1109 -0.0106
88292W        W31283  20.123   0.965   8.103 -0.1796 -0.0070  0.0154
88293W        W31284  15.615  22.250   6.339 -0.1407  0.1674  0.0525
88294W        W31285  32.759  12.532   8.535  0.1528  0.1551  0.1085
88295W        W31286   2.539  10.242   7.423  0.0298  0.0966 -0.1580
88296W        W31287  11.867  33.374   5.100  0.1294  0.2222  0.1010
88297W        W31288  20.946  25.818  26.095 -0.3742  0.3136 -0.1086
88298W        W31289  24.885   3.740   5.708 -0.1415 -0.0054 -0.2095
88299W        W31290  19.545  31.654   7.405  0.1760  0.2321  0.0811
88300W        W31291  18.258  34.250   7.856 -0.4021 -0.1081  0.4488
88301W        W31292  21.150   8.409   4.648  0.0749  0.1381  0.0936
88302W        W31293  13.826  31.955  10.181 -0.1935  0.1121  0.3954
88303W        W31294  30.886   3.648   8.848  0.0993  0.0706 -0.3279
88304W        W31295   3.135   2.020   1.397 -0.1414  0.0723  0.2411
88305W        W31296  10.872  10.161   8.155 -0.0820 -0.1792 -0.0877
88306W        W31297   5.187  34.144  27.955 -0.0998 -0.2703 -0.1576
88307W        W31298  12.721  25.736   8.654 -0.4525 -0.0653 -0.0319
88308W        W31299  18.433  33.053   5.438 -0.5140 -0.0027  0.0980
88309W        W31300  16.129  24.731  24.613 -0.0719 -0.1036 -0.0450
88310W        W31301   6.036   4.838   5.913  0.0571 -0.0862  0.1496
88311W        W31302  11.896  11.908  22.198 -0.0538  0.0328  0.0865
88312W        W31303   0.634  26.849   1.527 -0.1821 -0.2015  0.0340
88313W        W31304  11.506   2.888   6.116  0.0958 -0.1776  0.2317
88314W        W31305  20.695  28.526   6.083 -0.0719  0.0571 -0.0297
88315W        W31306  15.766  24.302   8.180  0.2489 -0.3587  0.1149
88316W        W31307   2.923   1.512   5.337  0.0267 -0.2937  0.0321
88317W        W31308  10.972  31.007   0.100  0.1147 -0.0950  0.3477
88318W        W31309  20.536   0.302   8.683  0.1592 -0.0016 -0.0187
88319W        W31310  13.313  11.358   1.003  0.4499 -0.3807 -0.0017
88320W        W31311   9.778  17.985   8.761  0.1170  0.2532  0.0889
88321W        W31312  29.233  10.449   8.835  0.0787 -0.3356  0.1163
88322W        W31313  17.162  16.433   4.682 -0.1396 -0.1612  0.2982
88323W        W31314   9.398   2.320   9.745 -0.0259  0.1509  0.0899
88324W        W31315  16.967   9.270  14.409 -0.2694 -0.3989 -0.1051
88325W        W31316  11.454   2.048   9.188  0.0603 -0.1998  0.3376
88326W        W31317  14.429  29.667   8.324  0.0469 -0.0579 -0.0979
88327W        W31318  11.739  33.471   7.987 -0.0281  0.1101  0.0555
88328W        W31319  17.767   6.809   1.234 -0.1367 -0.0003  0.5052
88329W        W31320   8.268  32.490  15.686  0.0617  0.1479 -0.0076
88330W        W31321   1.132  32.197   5.767 -0.3100  0.1267  0.2272
88331W        W31322  28.368   7.368   7.372 -0.0807  0.0240 -0.1632
88332W        W31323  22.664   6.161  15.963 -0.2773 -0.0307  0.0435
88333W        W31324   8.194  17.892   6.368  0.0509  0.2889  0.1739
88334W        W31325  32.819  29.377  27.971 -0.0674 -0.1338  0.0256
88335W        W31326  27.828  19.734  24.245 -0.1399  0.1538  0.1223
88336W        W31327   9.762  24.072  23.561  0.0932  0.1366 -0.2780
88337W        W31328   2.916  17.632  11.082  0.0277 -0.3356 -0.0926
88338W        W31329  11.739  29.085  25.795  0.1073  0.2372 -0.1976
88339W        W31330  28.126  18.705   8.792 -0.1308  0.1567 -0.2877
88340W        W31331  28.894  17.828   1.860  0.1196  0.0223  0.1268
88341W        W31332  29.165  33.854   5.119 -0.2116 -0.0234 -0.0211
88342W        W31333  31.235  34.477   7.384 -0.0121  0.1609 -0.2224
88343W        W31334   5.301  15.607  10.348  0.1159  0.0270 -0.0356
88344W        W31335  24.267   8.000   2.671  0.1179  0.1278 -0.1561
88345W        W31336  29.386  23.186  26.892 -0.1522 -0.2341  0.0402
88346W        W31337  22.586   5.210  18.547  0.1718 -0.1024 -0.1038
88347W        W31338  21.576  33.442   6.027 -0.0928 -0.2203  0.1116
88348W        W31339  11.428  25.020   2.680 -0.0906  0.1508 -0.1098
88349W        W31340  25.412  21.262  22.055  0.2318 -0.1597  0.3666
88350W        W31341   3.400  26.520   2.635  0.1511  0.1092 -0.0682
88351W        W31342  11.671  29.462  19.127  0.4128  0.0961 -0.0440
88352W        W31343  15.161  23.424   3.192 -0.2166 -0.0706  0.1485
88353W        W31344  20.136  24.505   4.980  0.1793 -0.1161 -0.3344
88354W        W31345  11.338  10.756  27.831  0.1952  0.1412 -0.1861
88355W        W31346   4.763   7.591   0.392 -0.1880 -0.0626 -0.1042
88356W        W31347   8.677   0.174   6.365  0.2025  0.0226  0.0453
88357W        W31348  20.827   9.747  28.515  0.2606  0.1287 -0.0472
88358W        W31349   2.765  27.254  21.717 -0.0264 -0.0310  0.1321
88359W        W31350   8.386   3.570   5.575  0.0428 -0.1220  0.0351
88360W        W31351  33.877  28.730  20.512 -0.1355 -0.1463  0.3230
88361W        W31352  14.435  33.739   5.562 -0.4855 -0.2650 -0.2013
88362W        W31353  18.265  29.682   5.900  0.1221 -0.0889 -0.4396
88363W        W31354   3.367   5.852  28.179 -0.1017  0.0225  0.2211
88364W        W31355  17.472  23.132  23.387  0.3448  0.0446  0.0694
88365W        W31356  18.006  30.527  19.037 -0.2462  0.0931  0.0395
88366W        W31357  25.011   7.518   2.829 -0.2810 -0.1396 -0.2248
88367W        W31358  13.612   1.306   0.824  0.2316  0.1461  0.0840
88368W        W31359   7.977   6.768  24.659 -0.0089 -0.1215  0.2970
88369W        W31360   2.209  24.076   9.109  0.0583 -0.0310 -0.0022
88370W        W31361  24.244  33.732   2.191 -0.1046  0.0194 -0.0403
88371W        W31362   4.857  32.746   8.017 -0.1507  0.0972  0.1852
88372W        W31363   3.053  29.016  22.618  0.1497 -0.4251 -0.0402
88373W        W31364   3.566   4.550   0.505 -0.2297 -0.1756  0.0894
88374W        W31365  22.766  31.650   6.464  0.0499  0.0725  0.2570
88375W        W31366  24.546   0.810   2.483  0.0452  0.0149  0.0993
88376W        W31367  32.640   2.462   9.258  0.0327  0.1345  0.4139
88377W        W31368  20.582  27.270   0.745  0.2605 -0.0918  0.0030
88378W        W31369  11.474  11.438   9.565 -0.1991  0.0053  0.1819
88379W        W31370  10.053  27.235   8.614 -0.2739 -0.1901  0.1939
88380W        W31371  16.548  24.706  28.284 -0.3356 -0.1238  0.1478
88381W        W31372  27.204  11.831  28.854  0.0473 -0.5868  0.2779
88382W        W31373  11.058  22.477  17.558  0.1321 -0.3147 -0.0469
88383W        W31374   8.010  33.250   2.265 -0.2692 -0.0715 -0.1342
88384W        W31375  16.051  30.446   7.372 -0.0447 -0.1682 -0.0406
88385W        W31376  13.925  28.718  23.833  0.3552  0.0885 -0.0417
88386W        W31377  16.614  18.655   4.952  0.0395  0.0315 -0.0104
88387W        W31378  15.425  33.888   9.307  0.1840  0.1523 -0.1070
88388W        W31379   0.991  32.968   5.644 -0.2105  0.2874  0.1689
88389W        W31380   5.125   5.393   6.696 -0.1427 -0.1088  0.1126
88390W        W31381  19.004   1.252  26.879  0.1083  0.0797  0.1839
88391W        W31382   9.938  22.414  21.573  0.1832 -0.2221 -0.0426
88392W        W31383   7.671  31.052  22.947 -0.0488  0.0804  0.1186
88393W        W31384  10.449  34.184   9.568 -0.3203 -0.2198 -0.0992
88394W        W31385  13.967  31.347   7.307  0.2392  0.1966  0.0998
88395W        W31386  25.884   1.779  21.275 -0.0772 -0.0144  0.0259
88396W        W31387  31.791  29.542  22.156 -0.3269  0.1019 -0.1321
88397W        W31388   9.313  29.791  20.325 -0.0543 -0.0299 -0.1589
88398W        W31389  13.493  26.736  16.720  0.2436  0.2446 -0.1525
88399W        W31390   8.684   9.529   1.596 -0.0370 -0.1396 -0.0399
88400W        W31391  29.699  15.783  25.740  0.2068  0.1622 -0.1200
88401W        W31392  25.317  34.215  18.324  0.2145 -0.2398 -0.1161
88402W        W31393   2.191  30.042   0.814  0.1709 -0.0663 -0.0438
88403W        W31394  10.557  30.267   5.562 -0.0193  0.1845 -0.0340
88404W        W31395   4.631  34.656  14.917 -0.2272 -0.2333  0.1004
88405W        W31396  27.214  16.121  29.214 -0.1703 -0.1579 -0.1619
88406W        W31397  13.781   1.415   5.663 -0.0072 -0.2340  0.1556
88407W        W31398   7.235   8.443  10.726 -0.1627 -0.2761 -0.0780
88408W        W31399  14.346  21.452   5.570 -0.2331  0.1561 -0.1435
88409W        W31400  19.301  19.454  15.119  0.0548 -0.1656  0.0723
88410W        W31401   9.751  26.612  24.954 -0.0038 -0.2755  0.4046
88411W        W31402  21.539   6.344   6.724 -0.0712  0.4029 -0.3525
88412W        W31403  10.952  16.921  23.127 -0.0115  0.0616  0.1885
88413W        W31404  16.448   2.129   6.563  0.0629  0.2346 -0.1789
88414W        W31405   3.455  34.272  27.616 -0.3530  0.1645 -0.2676
88415W        W31406  11.595  16.294  25.577 -0.2016 -0.1692  0.2032
88416W        W31407  17.147  24.427  13.618  0.2508  0.0118  0.1771
88417W        W31408   2.149   3.306  22.096  0.2838 -0.1659 -0.4834
88418W        W31409   3.751   2.779   4.096 -0.1644 -0.0564  0.0534
88419W        W31410   6.621   1.844  26.097 -0.1200 -0.2986  0.3138
88420W        W31411  21.782  33.320  24.018  0.2531 -0.2060 -0.0525
88421W        W31412  32.426  18.289   9.919  0.2010 -0.1759  0.0091
88422W        W31413   9.421  25.257   8.953  0.2423  0.0693 -0.3665
88423W        W31414   8.622  15.773   5.460 -0.0091 -0.0086  0.0898
88424W        W31415  18.552   6.587   0.401 -0.0709  0.1024  0.0357
88425W        W31416  10.567  17.790  22.130  0.3197  0.1567  0.1342
88426W        W31417  24.256  12.758  18.633 -0.4208  0.1489 -0.0191
88427W        W31418  17.134  21.094  12.195 -0.4640 -0.0578 -0.0565
88428W        W31419  24.134  14.183  22.729 -0.0849  0.1116  0.0737
88429W        W31420  17.101   5.197   9.727  0.2027  0.0146 -0.3221
88430W        W31421  26.698   4.024   2.484 -0.3525  0.4401  0.2025
88431W        W31422  20.156  22.953  23.974  0.1266  0.0004 -0.1495
88432W        W31423   9.823  31.666  28.909 -0.0669 -0.0248 -0.1330
88433W        W31424  34.535  15.860  18.225 -0.0068 -0.2055  0.1122
88434W        W31425  34.798  14.097   0.358 -0.3950 -0.1123 -0.1599
88435W        W31426   9.467  13.812  23.466  0.2576 -0.0970  0.1381
88436W        W31427  20.062  31.318   2.821 -0.1320  0.1320 -0.2568
88437W        W31428  19.055  28.706  27.589 -0.0283  0.1203  0.0487
88438W        W31429  19.796  28.526   1.618 -0.1602 -0.0785  0.2139
88439W        W31430  20.633   5.027   6.507  0.0819  0.0751  0.0344
88440W        W31431  15.294   2.595   6.068  0.0887  0.1458 -0.0900
88441W        W31432  22.973  32.927   9.356  0.0031 -0.0818  0.2774
88442W        W31433  19.096  12.423   3.164 -0.1458  0.0006 -0.0792
88443W        W31434   0.564  28.746   7.430 -0.1131 -0.0944  0.1260
88444W        W31435  18.683  34.019  24.169  0.0763 -0.2614  0.1623
88445W        W31436   9.761  32.636  22.477 -0.0801 -0.2854  0.1252
88446W        W31437   8.969  16.019   9.100  0.0593 -0.2685 -0.0535
88447W        W31438  12.785  15.175  25.571 -0.2886 -0.0022 -0.1011
88448W        W31439  30.203  27.692  27.018 -0.0108  0.0044  0.0751
88449W        W31440  16.609   2.183  14.468 -0.2975  0.0491 -0.3567
88450W        W31441   7.308  23.762  28.693 -0.0321  0.0016 -0.1052
88451W        W31442  21.866   5.829   2.318 -0.2602  0.1540  0.2433
88452W        W31443  20.659   7.543  28.340 -0.1571 -0.0043 -0.1159
88453W        W31444   7.105  33.688  26.110 -0.0090  0.2693 -0.1885
88454W        W31445  19.334  31.225   3.256 -0.2716  0.2007 -0.1376
88455W        W31446  18.142   4.800   9.524  0.0867 -0.0278  0.1258
88456W        W31447  29.241  28.209   2.265  0.3722  0.4288 -0.1220
88457W        W31448   9.947  28.362  17.818 -0.0778  0.0259 -0.3239
88458W        W31449  21.113  16.356  14.454 -0.0369 -0.2512  0.2141
88459W        W31450   1.495   5.722   6.111 -0.0854  0.1172  0.1708
88460W        W31451  27.116   2.513   5.083 -0.4037 -0.0881  0.3713
88461W        W31452  20.414  20.548   6.048 -0.0307  0.2709 -0.1781
88462W        W31453  11.933   1.554  26.443 -0.2261 -0.0297  0.0291
88463W        W31454  17.035  28.742  28.725 -0.1186  0.1567  0.1061
88464W        W31455   4.647   6.460   1.733  0.2063  0.2131 -0.1913
88465W        W31456  17.207  32.013  24.800 -0.2702  0.1195 -0.1290
88466W        W31457  17.122   6.395   0.694 -0.0856 -0.0371  0.0194
88467W        W31458   6.752   6.760   7.111  0.1295  0.4063 -0.0372
88468W        W31459  14.890  15.839  27.196  0.0486  0.0456  0.0662
88469W        W31460  10.582  29.868  23.118 -0.2402 -0.0117 -0.1649
88470W        W31461  17.974  23.994   0.345 -0.0483  0.0951 -0.1568
88471W        W31462   7.922  10.411   3.016 -0.0055  0.1160  0.1883
88472W        W31463   3.288  11.565   1.568  0.1553  0.0483 -0.0561
88473W        W31464   0.686  11.866   6.799  0.0708 -0.0552  0.0602
88474W        W31465   8.845   5.474  15.803  0.1697 -0.1292  0.0547
88475W        W31466   0.874  34.007  27.076 -0.2304  0.2267 -0.3533
88476W        W31467  28.118  32.073   3.141 -0.0992 -0.0394 -0.0134
88477W        W31468  24.879   9.690  17.040 -0.0201 -0.0396  0.1850
88478W        W31469  27.056  13.141   9.027  0.0582  0.0145  0.2459
88479W        W31470  24.982  26.794   8.967 -0.2984 -0.0168  0.1219
88480W        W31471  21.348   5.864   3.137  0.0286 -0.2230  0.2692
88481W        W31472  20.391   4.226   8.381  0.0322 -0.1903  0.3062
88482W        W31473  17.825  13.484   6.888 -0.4604  0.1031 -0.0343
88483W        W31474  16.427  13.394   4.584 -0.2941  0.1614  0.0015
88484W        W31475   0.602   2.689  25.808 -0.1875  0.1526  0.0164
88485W        W31476  16.065  29.379  28.240 -0.0791  0.0266  0.2292
88486W        W31477  11.274   4.657  28.484  0.1208  0.2000  0.0187
88487W        W31478  30.768  25.151   9.150  0.0024 -0.1696 -0.1499
88488W        W31479  21.894   2.532  14.470 -0.0414  0.1880  0.1565
88489W        W31480  10.779  16.574  24.011 -0.0229 -0.0918 -0.2386
88490W        W31481  16.119  12.893  27.857 -0.0597 -0.6417  0.1884
88491W        W31482   9.191   4.300  19.146 -0.2414  0.2893  0.3940
88492W        W31483   0.488   0.187   0.956 -0.0436  0.1317 -0.1269
88493W        W31484   0.400  31.880   6.338  0.0037 -0.1097 -0.1157
88494W        W31485  32.712  11.805   1.163 -0.1958 -0.2699 -0.2130
88495W        W31486   7.746   3.913   9.568  0.0806  0.1865  0.1469
88496W        W31487   0.386  26.903   3.946 -0.3321  0.0181 -0.0926
88497W        W31488   1.290   6.330  18.753 -0.0187 -0.1240  0.1478
88498W        W31489  33.304   9.193  21.866  0.2737  0.3201  0.0145
88499W        W31490  15.330   6.136   5.656  0.3943  0.2504  0.0930
88500W        W31491   2.891  27.853  28.326  0.1011  0.2227 -0.0830
88501W        W31492  24.906   6.566   8.909  0.1655 -0.1562  0.2370
88502W        W31493  15.207   9.032   9.303 -0.2206 -0.1072  0.6019
88503W        W31494  22.848  27.547  26.072  0.0621 -0.0017 -0.1346
88504W        W31495   5.946   4.096  24.870 -0.1075 -0.1392 -0.1369
88505W        W31496  15.408   9.813   2.981 -0.2604 -0.0322  0.1269
88506W        W31497  29.239   6.823  22.439  0.1867 -0.0463 -0.1834
88507W        W31498  24.642   1.182  26.261  0.1594 -0.0726  0.0997
88508W        W31499  21.246   1.499   8.694 -0.1244 -0.1888 -0.2342
88509W        W31500  13.677   3.298  27.715 -0.5280  0.1040  0.3017
88510W        W31501  20.941   2.962   7.440 -0.0951 -0.1497 -0.2338
88511W        W31502  14.817   5.204  10.516  0.0986 -0.2255  0.2001
88512W        W31503  11.647   6.734  23.438  0.1767  0.3455 -0.1520
88513W        W31504  13.677   0.653   0.094 -0.1032  0.0458  0.0852
88514W        W31505  10.398   5.413   6.496  0.1706 -0.2527  0.2042
88515W        W31506   4.461   5.944   4.229 -0.0401 -0.1180 -0.0285
88516W        W31507  19.039   4.104  16.870  0.0912  0.1849  0.1426
88517W        W31508   5.492  13.011  10.425 -0.4364 -0.1806  0.0061
88518W        W31509  23.854   2.922  17.669  0.1747 -0.2754 -0.1547
88519W        W31510   7.605  29.194  23.546 -0.0419 -0.1264  0.1177
88520W        W31511  17.067  30.259   7.845  0.0764 -0.0648  0.2849
88521W        W31512  16.903   0.097  23.254  0.1419 -0.1228 -0.2367
88522W        W31513  20.451  13.480  17.580 -0.3215  0.0138  0.0714
88523W        W31514   8.029   1.676   2.998  0.2547 -0.1047  0.0318
88524W        W31515   3.359  28.579  24.871  0.0092  0.0317  0.0684
88525W        W31516  21.989  29.134  24.944  0.0872 -0.1524 -0.0428
88526W        W31517  18.779   1.088   8.918 -0.3670 -0.1049  0.0236
88527W        W31518  15.957  31.474   8.851  0.4647 -0.1389  0.3036
88528W        W31519  19.644   4.438   1.979 -0.1426  0.0726  0.2467
88529W        W31520  18.588   4.758   5.181  0.0440  0.0377  0.2382
88530W        W31521   3.040  15.043  23.389 -0.0744 -0.0851 -0.2620
88531W        W31522  14.818  14.003   5.251  0.0342  0.0803  0.0767
88532W        W31523   6.400   6.990  18.894  0.0634 -0.1311 -0.1028
88533W        W31524   6.943   1.287  28.219  0.4412 -0.1280 -0.0687
88534W        W31525  25.443  33.568  23.914  0.3203 -0.0611 -0.2224
88535W        W31526   6.609  11.590   9.454  0.0351 -0.0306 -0.2679
88536W        W31527  25.730  32.464   1.833 -0.1471  0.2013 -0.1274
88537W        W31528  17.790  15.250   5.582 -0.1619  0.0684 -0.1440
88538W        W31529  23.275   4.750   2.574 -0.3872 -0.3268  0.0657
88539W        W31530   7.948  28.089  26.867 -0.1438  0.1186 -0.0925
88540W        W31531  20.982  30.941   4.693  0.3113  0.0726  0.3451
88541W        W31532  13.898   4.041  28.202  0.0311  0.1316  0.2396
88542W        W31533  11.223  18.935  22.195 -0.3925  0.2392 -0.0748
88543W        W31534  24.159  13.980  17.717 -0.0329 -0.1116 -0.2284
88544W        W31535  17.535  12.702  27.296  0.0940  0.2060 -0.1449
88545W        W31536   8.204  10.397   6.349 -0.1332 -0.2113  0.0130
88546W        W31537  18.420   3.636  20.274  0.0229  0.0683  0.0421
88547W        W31538  14.762   0.339  14.467 -0.1591  0.1739 -0.0289
88548W        W31539  14.965  22.072  21.656 -0.1448  0.1207 -0.2924
88549W        W31540  17.352  29.968  16.228  0.0453  0.2901 -0.1743
88550W        W31541   6.531  32.753   9.123 -0.1240  0.0656  0.3254
88551W        W31542  16.245  11.247  25.089  0.0427 -0.1473 -0.1664
88552W        W31543  20.726  31.917   7.098 -0.0502  0.0388 -0.2322
88553W        W31544  11.662   3.820  25.512  0.0901 -0.1834 -0.0492
88554W        W31545  20.070   6.515  16.491 -0.3306  0.3825  0.2169
88555W        W31546  22.364   5.996   1.478  0.0599  0.2709  0.0792
88556W        W31547  22.081  26.122  28.597 -0.0017 -0.1449  0.0347
88557W        W31548  22.421  29.386  27.630 -0.2849 -0.0231 -0.0928
88558W        W31549  17.405   4.183  21.761  0.1236  0.4728  0.0522
88559W        W31550  27.986  10.354  18.819  0.1895 -0.4376 -0.3097
88560W        W31551   9.322   1.443   9.534 -0.0918 -0.1610  0.0368
88561W        W31552  17.917  14.286  27.065 -0.2040  0.2628 -0.1022
88562W        W31553  15.054  30.258  26.702  0.2443  0.0123 -0.0472
88563W        W31554   1.593   4.904   5.716  0.1819  0.2324  0.1433
88564W        W31555   5.680   0.552  14.041 -0.0568 -0.0185 -0.1049
88565W        W31556  17.060  29.225  28.389  0.2313 -0.1317  0.0071
88566W        W31557  29.159   2.160   7.929  0.1940  0.1934 -0.1261
88567W        W31558  23.619   6.921   2.993  0.0626 -0.0727  0.0639
88568W        W31559  17.871   5.466  15.243  0.0194  0.1351 -0.1941
88569W        W31560   8.550  24.507  22.011  0.1476  0.0123  0.0427
88570W        W31561  13.336  13.425  28.931  0.0787 -0.0239  0.2115
88571W        W31562  10.724   3.272   5.835 -0.1135 -0.4566  0.0750
88572W        W31563   7.594   9.829   8.600 -0.0688  0.0116  0.0725
88573W        W31564   7.025   2.513  21.255  0.0191  0.1907  0.2332
88574W        W31565   6.539   1.422   6.601 -0.0211 -0.0359 -0.1556
88575W        W31566   3.920   1.737   6.894  0.0078 -0.3888  0.0530
88576W        W31567   1.942   7.042  10.103  0.0301  0.2713  0.1012
88577W        W31568  18.207   9.860  21.824 -0.1996  0.3243 -0.0867
88578W        W31569  19.634   3.956   8.545 -0.1129  0.1833 -0.2025
88579W        W31570   6.225   8.882   3.182 -0.1487  0.1330 -0.0530
88580W        W31571   9.283   2.429  27.392 -0.0144 -0.1835 -0.2544
88581W        W31572  11.596   0.990  18.519 -0.2094  0.2498 -0.1238
88582W        W31573  13.152  11.011   6.173  0.0112  0.0926 -0.0641
88583W        W31574  12.602  13.627   6.596 -0.2371 -0.1299 -0.0809
88584W        W31575  24.336   9.658   1.839  0.3026 -0.3629  0.1778
88585W        W31576  22.018  32.055   0.727  0.0698  0.1119 -0.1360
88586W        W31577  12.817  22.262  25.931  0.0488 -0.1160  0.2874
88587W        W31578  15.622  20.912   6.581 -0.2337 -0.0001  0.2913
88588W        W31579  15.226  34.599   8.294  0.1459 -0.2488  0.1537
88589W        W31580  10.917  33.946  26.534 -0.0629  0.0067 -0.2631
88590W        W31581  14.301   6.181  26.471  0.0264 -0.0651  0.0622
88591W        W31582  27.794   3.912   0.009 -0.1119 -0.1863 -0.5130
88592W        W31583  19.228  14.645  27.668  0.1347 -0.2752  0.0765
88593W        W31584   4.388  13.537  24.639  0.0395 -0.1628  0.1338
88594W        W31585  18.430  11.936   4.514 -0.2685 -0.0143  0.1080
88595W        W31586  16.686  18.044   6.810 -0.0413  0.0713 -0.1644
88596W        W31587  18.712  10.513   7.408  0.4786 -0.0451  0.0488
88597W        W31588   6.222   8.772   1.697 -0.1450  0.1352  0.3142
88598W        W31589  21.515  26.150  14.223  0.2004  0.1700  0.0451
88599W        W31590  21.892   9.863  26.411 -0.1843 -0.2693  0.1430
88600W        W31591   0.630   6.889  21.028  0.1509  0.3157  0.1695
88601W        W31592  29.350  32.233   7.858  0.0560  0.2152 -0.1096
88602W        W31593  11.702   7.886   3.537  0.0829  0.1053 -0.3873
88603W        W31594  20.056  27.802   1.113 -0.0332  0.0904  0.1093
88604W        W31595   2.499  24.297   3.283  0.0106  0.0272  0.0305
88605W        W31596  33.212  29.931   0.271  0.4465  0.1302 -0.0448
88606W        W31597  24.886  16.768   9.523 -0.1155 -0.0259  0.1194
88607W        W31598   1.635  19.916   3.275  0.0058  0.0187 -0.1114
88608W        W31599   6.336  12.814  16.459  0.0181 -0.2941  0.1801
88609W        W31600  24.626  19.268   2.932  0.0056  0.0442 -0.0523
88610W        W31601  30.133   1.184   3.933 -0.1235  0.1113  0.2409
88611W        W31602  21.012  32.960  19.799 -0.0599 -0.0578  0.1212
88612W        W31603  10.740  10.363   9.482 -0.2228  0.3247  0.0729
88613W        W31604   4.920  27.241   8.921 -0.0417 -0.0396 -0.2386
88614W        W31605  24.955  28.432  26.807  0.2544 -0.1574  0.0837
88615W        W31606   8.794  32.348   8.909 -0.0137 -0.0278  0.0647
88616W        W31607   4.185  10.899  25.325 -0.0343 -0.0596 -0.1176
88617W        W31608   4.411   0.488  28.671  0.0874 -0.0798  0.0347
88618W        W31609  23.524   5.514   5.433  0.0609  0.2472  0.1717
88619W        W31610  11.219  23.320  27.901 -0.0258 -0.0558 -0.0014
88620W        W31611   8.217   8.156  15.015  0.2547 -0.0516  0.0105
88621W        W31612  24.647  15.662  20.612  0.1947 -0.1106  0.0515
88622W        W31613  28.469  11.534  20.105  0.2693  0.2413  0.0790
88623W        W31614  21.142   2.962  15.887 -0.0825 -0.0166  0.0735
88624W        W31615  32.822   9.794   2.502  0.0716  0.0938 -0.1258
88625W        W31616  13.600   9.630   9.259 -0.4864 -0.0971 -0.0441
88626W        W31617  25.974  23.215  26.514 -0.2150 -0.1625  0.4538
88627W        W31618  21.358   2.083   0.440 -0.0889  0.0969  0.1956
88628W        W31619  19.990   5.157  27.798 -0.1586 -0.3042 -0.0007
88629W        W31620  27.221   8.628   1.863 -0.1204 -0.1360 -0.0717
88630W        W31621  21.285   5.127   8.629  0.1243  0.3270 -0.1173
88631W        W31622  22.987   5.758  28.135 -0.0537 -0.0372 -0.2481
88632W        W31623  12.014   6.127   4.364  0.2888 -0.0296 -0.1430
88633W        W31624  17.542  23.107  27.191  0.2850 -0.3154  0.3212
88634W        W31625  15.040  12.179   2.342  0.0880 -0.0879 -0.1108
88635W        W31626   8.749   3.794  18.484  0.0090  0.1078  0.0229
88636W        W31627  11.755   7.923  27.708 -0.0369 -0.1592  0.0442
88637W        W31628  25.876  29.230  19.196 -0.0963 -0.3030  0.2301
88638W        W31629  12.607  33.299  20.751 -0.2181 -0.3025  0.2887
88639W        W31630  18.858  32.801  24.925  0.2147  0.2120 -0.2044
88640W        W31631  19.612  29.469   1.461  0.2213 -0.0380  0.0705
88641W        W31632  11.486  32.537   3.465  0.1377 -0.2599 -0.1567
88642W        W31633  20.668  30.411  23.083 -0.1896  0.2202  0.4846
88643W        W31634   9.337  32.396   6.612 -0.1980 -0.4286 -0.0417
88644W        W31635   5.670  32.759  14.329  0.0938 -0.0837 -0.0699
88645W        W31636  19.475   2.015  13.430  0.3264 -0.1355  0.0983
88646W        W31637  21.227  23.648  25.643  0.0521  0.0602 -0.4249
88647W        W31638  19.115   5.741  17.592  0.2029  0.2288 -0.1117
88648W        W31639  15.377  27.477  10.235 -0.0108  0.2494 -0.1257
88649W        W31640  16.566   1.642   4.731 -0.2999 -0.0387  0.1640
88650W        W31641  15.114  13.130  24.308  0.0621  0.1343  0.1000
88651W        W31642   4.703  12.493   0.997 -0.1098 -0.1295 -0.3156
88652W        W31643   8.167  13.315   8.879  0.1875  0.3943 -0.3004
88653W        W31644   2.755   0.906   9.605 -0.2356 -0.0726  0.0020
88654W        W31645  11.702  10.735   5.941  0.1464  0.2558  0.0144
88655W        W31646   9.540   1.121   9.146 -0.0458 -0.1511 -0.2898
88656W        W31647  24.136  33.425  24.700  0.0118  0.0556  0.0996
88657W        W31648   9.656  22.021  21.811 -0.1480 -0.1927 -0.1705
88658W        W31649  12.792  34.306  20.807  0.0745  0.1453 -0.0017
88659W        W31650  15.519   8.464   6.613  0.2559  0.0309 -0.2679
88660W        W31651  25.261   8.429   7.873 -0.0671 -0.0482  0.4204
88661W        W31652  28.930  11.384  24.732 -0.3662  0.1358 -0.0570
88662W        W31653  13.632  16.060  22.605 -0.1607 -0.0746 -0.1545
88663W        W31654  31.946   1.654   3.881 -0.2369  0.1108  0.3498
88664W        W31655  24.219   5.435  23.200 -0.0489  0.2002 -0.3736
88665W        W31656   8.225   8.478  26.034 -0.1596 -0.1430 -0.0496
88666W        W31657   4.328  16.965  23.419 -0.0772  0.2600 -0.0701
88667W        W31658  16.932  15.013  23.100 -0.3017  0.0870  0.1663
88668W        W31659   7.098   2.528  17.789  0.1834  0.0394 -0.2278
88669W        W31660  11.813   2.088  25.200 -0.1930  0.0681 -0.0655
88670W        W31661   7.813   7.793   8.432 -0.4260  0.1560  0.2383
88671W        W31662   4.521   5.020  28.569 -0.2020  0.4038  0.0215
88672W        W31663  18.837   2.819  28.622  0.1997  0.1605  0.0252
88673W        W31664  15.421  10.320   0.494  0.1175  0.0539 -0.2933
88674W        W31665   2.872  34.335   4.767 -0.1903  0.0279  0.0241
88675W        W31666   3.295   0.044  23.503  0.1364  0.0934  0.2222
88676W        W31667  12.202  32.272   2.085  0.2296 -0.3513  0.0437
88677W        W31668  33.954  32.809  28.373  0.0824  0.0246  0.1246
88678W        W31669  25.207  31.926  17.489  0.2541 -0.2111 -0.3544
88679W        W31670  28.134  14.826   8.954  0.2200  0.3277 -0.4192
88680W        W31671  14.881  34.766   1.512 -0.2851  0.1154 -0.0692
88681W        W31672  17.001   0.661  27.499  0.1383 -0.1113  0.0147
88682W        W31673   8.622   6.067  24.777  0.2876 -0.0586  0.1654
88683W        W31674  33.127  30.249  23.679  0.0735 -0.1327  0.2470
88684W        W31675   7.766  31.891  16.200  0.0415  0.2361  0.0303
88685W        W31676  31.050  18.154   6.981  0.0531  0.0706  0.0828
88686W        W31677  14.318  32.413   6.031  0.1365 -0.1129  0.0503
88687W        W31678   3.625  26.644   7.411 -0.0532 -0.2025 -0.2864
88688W        W31679  23.909  25.676  23.537 -0.0877 -0.4701  0.1636
88689W        W31680  18.363   2.374   7.535 -0.0258 -0.0539  0.2250
88690W        W31681  23.681  30.166   1.511 -0.2068  0.3496  0.2076
88691W        W31682  18.071  16.105  27.101  0.0054 -0.0917 -0.5333
88692W        W31683  24.355   1.720  23.577 -0.1387  0.2114  0.0139
88693W        W31684  13.598   4.628  22.993 -0.1924  0.2504 -0.0591
88694W        W31685   0.734  17.375   9.976 -0.0087 -0.3415 -0.1346
88695W        W31686  19.884  27.453  29.036  0.1139 -0.0738  0.1764
88696W        W31687   2.507  29.081   5.924 -0.0233 -0.0304 -0.0069
88697W        W31688   5.792  16.798   2.417 -0.1020 -0.0118 -0.2956
88698W        W31689  11.091   9.877  19.174 -0.0724  0.2883  0.0651
88699W        W31690   9.421  24.415  22.351 -0.1664 -0.0976 -0.2180
88700W        W31691  14.433  25.504  18.828 -0.4043 -0.0908  0.4619
88701W        W31692  19.881  11.048  20.864  0.0906  0.0931  0.3351
88702W        W31693  12.288   0.324  22.609  0.3380  0.1103  0.0023
88703W        W31694  24.222  13.710   6.116  0.2199 -0.0120 -0.2735
88704W        W31695  15.976   1.227  26.256  0.3954 -0.2548  0.0165
88705W        W31696  10.956  34.491  15.990 -0.0049  0.1865  0.1583
88706W        W31697  22.412   8.405  21.220  0.0161  0.3062  0.3269
88707W        W31698  31.772   3.780  24.319 -0.0550  0.3197  0.1541
88708W        W31699  26.331   4.707   4.374  0.1740 -0.1501  0.1234
88709W        W31700  10.720   9.102  25.851 -0.1727  0.3877  0.2385
88710W        W31701  13.682   5.286  11.688  0.0492  0.2302 -0.0331
88711W        W31702  25.597  23.196  18.251  0.0781 -0.0233  0.0239
88712W        W31703   9.524  18.666  18.549  0.0255 -0.1620 -0.2575
88713W        W31704   4.515   8.425  27.653 -0.4191 -0.0542 -0.3737
88714W        W31705  11.867  10.970   9.082  0.1783  0.0120  0.0678
88715W        W31706  31.184  16.564  16.902  0.3958 -0.0334  0.1079
88716W        W31707   7.395  23.048  26.716  0.0615 -0.0265  0.1916
88717W        W31708  12.861  26.272   5.307 -0.1722 -0.0560  0.1297
88718W        W31709  29.096  30.382  25.514  0.1223 -0.0316 -0.0882
88719W        W31710  31.993   5.310   8.350  0.1462  0.1205  0.0856
88720W        W31711  12.228   1.638   6.527 -0.0572  0.5379  0.4018
88721W        W31712  22.629  21.048  27.215  0.0462 -0.0652  0.1488
88722W        W31713  13.903  15.392   8.413  0.0240 -0.1660  0.3022
88723W        W31714  21.324   5.667  14.048 -0.0576  0.0870  0.2649
88724W        W31715  10.556   4.035  18.462 -0.0048 -0.0059 -0.3366
88725W        W31716   9.868  13.543  17.899  0.0574 -0.4537 -0.1498
88726W        W31717   7.209   4.685   9.700  0.4368  0.0322 -0.0852
88727W        W31718  19.786  31.257   5.260  0.1296  0.1907  0.0298
88728W        W31719  15.202  11.788   8.895  0.0661 -0.0297 -0.0408
88729W        W31720  20.155   8.697   6.385  0.1622 -0.0014  0.3316
88730W        W31721  13.047  25.183  27.984  0.1559  0.0962  0.1114
88731W        W31722   0.553  20.703   7.184 -0.1099  0.5078 -0.1315
88732W        W31723   3.665  16.993   4.071 -0.1567 -0.0638 -0.0321
88733W        W31724  12.012  20.774   8.605 -0.0717  0.1807  0.0271
88734W        W31725  10.158  29.005   5.726  0.0105  0.0688  0.0799
88735W        W31726  32.588  33.711  22.260  0.1607 -0.0057 -0.1115
88736W        W31727  32.393  11.938  24.247 -0.1953 -0.0618 -0.1181
88737W        W31728   2.395   3.106  15.917 -0.1663 -0.0207  0.2938
88738W        W31729  10.743  25.596  21.395  0.0593 -0.0060 -0.1289
88739W        W31730   9.869  33.757  26.032 -0.0370 -0.0837 -0.0186
88740W        W31731  20.334  23.682   0.371 -0.0187  0.2268 -0.0710
88741W        W31732  18.477  32.094   5.864  0.4585  0.0107 -0.1130
88742W        W31733  32.421   6.554   6.075  0.0161 -0.2898 -0.1744
88743W        W31734  21.979  10.228   2.811  0.2400 -0.3311 -0.1094
88744W        W31735  19.127  14.787   2.954  0.2156 -0.2694 -0.2266
88745W        W31736  12.157  10.314  15.987  0.0701 -0.0634 -0.3944
88746W        W31737  13.721   4.641   5.173 -0.0363 -0.3352 -0.0424
88747W        W31738  11.021   8.432  22.130  0.3487  0.1383 -0.0475
88748W        W31739   7.684   2.732   8.442  0.2747  0.0717  0.2193
88749W        W31740  23.549  26.955  25.624  0.0583 -0.0244  0.0102
88750W        W31741   3.842  22.322   4.884 -0.1658 -0.3153 -0.0059
88751W        W31742  16.495  25.802  28.392  0.1486  0.0676 -0.3025
88752W        W31743  15.498  32.116   3.855  0.1257 -0.0792  0.1613
88753W        W31744   9.317  25.756  20.430  0.2543  0.0824 -0.5024
88754W        W31745   6.413  32.232   7.449 -0.0997  0.0084  0.0586
88755W        W31746   9.338  10.755  20.521  0.2247 -0.2997 -0.1857
88756W        W31747  25.232   2.403   2.178  0.2447 -0.0211  0.1167
88757W        W31748   7.029   6.451  25.655  0.3132  0.0752 -0.1068
88758W        W31749  26.446   0.572   5.887 -0.1326  0.0051  0.0449
88759W        W31750  18.183   3.602   1.838 -0.3117  0.3521  0.1304
88760W        W31751   9.930   7.622  20.677 -0.2232  0.1883 -0.2363
88761W        W31752  18.854   4.831   3.516 -0.3431 -0.0561  0.0128
88762W        W31753  24.355  24.678   2.875  0.1010 -0.1193  0.2292
88763W        W31754  18.071   8.070  18.253  0.1725  0.1230  0.0696
88764W        W31755  12.919  34.314   2.395 -0.1817 -0.0233  0.0815
88765W        W31756   2.394  29.000  25.441 -0.3583 -0.2658 -0.0886
88766W        W31757  20.289   6.173   2.769 -0.0431  0.1648  0.1767
88767W        W31758  19.300   3.212   5.046  0.0350 -0.0278  0.1668
88768W        W31759  30.072  31.898   3.140  0.2940 -0.2491  0.0577
88769W        W31760  21.866   7.504   6.631 -0.1117  0.0442  0.0868
88770W        W31761  28.511   4.901   7.929  0.4928 -0.2765 -0.0173
88771W        W31762  27.312   4.918  24.978 -0.4371  0.2623  0.2627
88772W        W31763  19.988   1.658   1.634 -0.0368  0.3765 -0.0399
88773W        W31764  10.878   9.711   2.851  0.1391 -0.0225 -0.1474
88774W        W31765  12.092  10.116  20.774  0.0598 -0.0107  0.1833
88775W        W31766  20.099   9.399  15.763 -0.0973  0.1633 -0.1701
88776W        W31767  24.759   2.434  21.028  0.0222 -0.0926  0.2002
88777W        W31768  16.849  33.452   6.887 -0.2203  0.3475  0.0109
88778W        W31769  11.209  21.264  20.953 -0.0193  0.0052 -0.5480
88779W        W31770   6.204  31.647  15.557 -0.4900 -0.1378 -0.2281
88780W        W31771  15.042   2.147  10.386  0.0639  0.3065  0.0519
88781W        W31772  13.355  24.444   7.974  0.1494 -0.1567  0.0514
88782W        W31773   5.409  33.558   8.375 -0.0278  0.0127  0.1212
88783W        W31774  12.053   5.643  29.023  0.0470 -0.1867  0.0140
88784W        W31775   1.844  31.721  19.147 -0.3126  0.3144 -0.2876
88785W        W31776  15.188  11.002   6.831  0.0481 -0.2417  0.1089
88786W        W31777  29.882   3.775   1.453 -0.2920  0.0729 -0.1732
88787W        W31778  30.195  29.006  22.975 -0.1295 -0.0094 -0.3101
88788W        W31779  21.171   6.327  28.531 -0.1186  0.1104  0.0807
88789W        W31780  21.886  11.075   7.421 -0.0121 -0.0015 -0.0653
88790W        W31781  22.410   1.287   1.750 -0.1574 -0.0317 -0.0841
88791W        W31782  23.388  29.884  14.307  0.1912  0.1886 -0.1488
88792W        W31783  27.459   9.455  25.503 -0.0419  0.1179 -0.0633
88793W        W31784   5.106   4.996   7.528  0.0429  0.0517 -0.1776
88794W        W31785   6.151  24.667   7.294 -0.0673  0.0892 -0.1258
88795W        W31786   5.895  32.589   2.890 -0.0736  0.0500 -0.0729
88796W        W31787  12.675   0.240   7.337 -0.1649  0.0548 -0.0020
88797W        W31788  10.368   7.048  28.083  0.1876 -0.1384 -0.2129
88798W        W31789  15.469   7.051   0.059  0.1246  0.2352  0.3289
88799W        W31790  13.684   7.224   5.710  0.2143 -0.1041  0.3145
88800W        W31791  17.786   0.725  20.140 -0.0204 -0.0736 -0.1235
88801W        W31792  18.088  27.910   2.371 -0.0254 -0.3695 -0.2829
88802W        W31793  20.092  33.454   7.200  0.0002  0.0889 -0.1754
88803W        W31794  11.848  28.772   7.308  0.0067 -0.1603 -0.0329
88804W        W31795  12.745   4.890   6.897 -0.0031  0.2028  0.1126
88805W        W31796  12.778  22.822  27.807  0.4836  0.4145  0.1097
88806W        W31797   9.295   8.199   4.559 -0.0742  0.2544  0.4100
88807W        W31798   9.694   9.749   4.848  0.0346 -0.1864 -0.0120
88808W        W31799  25.003   1.316   7.406  0.2496 -0.1618  0.6083
88809W        W31800  16.726   4.867   7.067 -0.2960 -0.1377 -0.2033
88810W        W31801   5.928   0.814  23.814  0.1588 -0.1201 -0.4011
88811W        W31802   7.619   6.548   0.722  0.1361 -0.2401  0.2654
88812W        W31803  32.698   1.702  16.153 -0.1230 -0.0112  0.0174
88813W        W31804  16.895   8.179   3.019  0.1384 -0.2716  0.1596
88814W        W31805   0.957  32.870   7.219  0.1078 -0.0916  0.1062
88815W        W31806  32.036  13.397  27.973 -0.2189 -0.0255  0.0608
88816W        W31807  18.154  17.033   8.110 -0.0207 -0.3435  0.0142
88817W        W31808  11.079  23.324   0.466  0.2344  0.0090  0.1880
88818W        W31809  26.257  20.542   7.646  0.2098 -0.0442  0.1063
88819W        W31810   8.075   7.926  27.573  0.0245 -0.0650  0.0416
88820W        W31811  30.487  33.689   3.105 -0.0995 -0.0045  0.1784
88821W        W31812  14.535  17.589   8.506  0.0704  0.1523 -0.2291
88822W        W31813  29.646  22.622  25.244 -0.0154 -0.3613 -0.1297
88823W        W31814  10.613   0.988  24.160  0.0840 -0.2496  0.0024
88824W        W31815  30.591  22.816   1.917 -0.1796 -0.2594 -0.2056
88825W        W31816  22.853   7.445   4.021 -0.0702 -0.0359 -0.0527
88826W        W31817   8.418   7.632   6.216 -0.1096 -0.1340  0.2024
88827W        W31818  10.666  17.670   1.551  0.1455 -0.2296  0.1681
88828W        W31819  30.945  33.666   8.275 -0.2591 -0.3319 -0.0730
88829W        W31820  10.653   9.722  27.202 -0.1517  0.0106  0.1279
88830W        W31821  24.758  25.496   0.536 -0.2681  0.0906  0.0157
88831W        W31822  15.317  11.400  22.382  0.1375  0.1011 -0.1280
88832W        W31823  14.541   8.780   7.803 -0.0757 -0.0811  0.0031
88833W        W31824  15.120  22.512   8.724  0.1582  0.0224 -0.0548
88834W        W31825  15.193  16.214   1.652 -0.0550 -0.2300 -0.1094
88835W        W31826   9.564   7.285  10.700  0.0498  0.1355  0.0967
88836W        W31827  14.239   4.585  21.142 -0.0579  0.0596 -0.0564
88837W        W31828   8.670  33.081  27.789 -0.1163 -0.0054  0.1320
88838W        W31829  28.000  30.006   4.316 -0.0862  0.0515 -0.1872
88839W        W31830  19.524  15.537   2.307 -0.0274 -0.1460 -0.0598
88840W        W31831   9.350  27.235  23.570  0.0855 -0.0054 -0.0606
88841W        W31832   5.136   5.607  26.413 -0.1559  0.1051 -0.1735
88842W        W31833  15.741  18.089  23.857  0.3966  0.0384 -0.0367
88843W        W31834  10.476  22.307   4.954 -0.2805  0.0643 -0.0930
88844W        W31835  10.899   6.684  10.356  0.1847 -0.1993  0.0522
88845W        W31836   0.649   7.572  26.605 -0.1310 -0.0975 -0.1106
88846W        W31837   3.329  33.157  28.494 -0.1334  0.2009  0.3699
88847W        W31838   4.157   8.755   9.508  0.1217 -0.1890  0.3624
88848W        W31839  12.279   4.807   8.260 -0.2051 -0.1103  0.1631
88849W        W31840  16.890  32.684   1.762  0.2584 -0.2423 -0.1038
88850W        W31841  20.963   7.835   1.848 -0.2773  0.1049  0.2826
88851W        W31842  14.767  15.066  22.872 -0.0775 -0.0121 -0.2618
88852W        W31843   7.304  28.134  28.135 -0.2292 -0.1289  0.1255
88853W        W31844  13.718   6.335  27.271 -0.1787  0.1265 -0.0311
88854W        W31845  22.607  21.568  28.340  0.1143 -0.1173  0.0732
88855W        W31846  12.759  23.132  10.211  0.0754 -0.0897 -0.0508
88856W        W31847   7.803  29.063  28.336  0.1470  0.2809 -0.1305
88857W        W31848  17.000  15.680   7.244  0.2542  0.3230  0.1473
88858W        W31849  15.492   1.226   7.455 -0.1638  0.3822 -0.0405
88859W        W31850  14.229   2.564  10.120 -0.3063  0.0621  0.1214
88860W        W31851   0.786  33.601   9.580  0.2550 -0.0440  0.2704
88861W        W31852  16.943  17.495   0.147 -0.2803 -0.0953  0.2572
88862W        W31853   3.782   5.437   8.855  0.2351  0.0383  0.0980
88863W        W31854  21.314  25.073   5.149 -0.1916 -0.0046 -0.2502
88864W        W31855  27.413   0.958  27.652 -0.0500  0.0764 -0.3337
88865W        W31856  24.230  28.339   2.450 -0.2978 -0.0625 -0.1323
88866W        W31857  15.097  18.401  27.222  0.0019  0.1029 -0.2073
88867W        W31858  21.223   1.863   9.547  0.2879 -0.2175  0.5060
88868W        W31859   4.837  13.615   8.136 -0.2870 -0.0212  0.1281
88869W        W31860  33.899   6.635  20.967  0.0940  0.1355  0.0441
88870W        W31861  11.165  17.603   5.729  0.2210  0.0705  0.0277
88871W        W31862  15.352  14.008   2.975 -0.1158 -0.3302  0.2330
88872W        W31863   2.924  27.728  24.093 -0.1641  0.2893 -0.0139
88873W        W31864  15.127  15.672   5.020  0.1310  0.0168 -0.3088
88874W        W31865  22.137   7.749  27.821 -0.3477 -0.1067 -0.1998
88875W        W31866   3.922   0.194  19.862  0.2343 -0.0631  0.0625
88876W        W31867  17.001   1.559   5.541 -0.2518  0.0085  0.3424
88877W        W31868  27.704   3.236   7.941  0.0237 -0.3505  0.0415
88878W        W31869   1.407   4.009  10.046 -0.0511  0.0722 -0.0786
88879W        W31870  13.979  14.177  26.951  0.0524  0.2353  0.1180
88880W        W31871   7.163  32.011   1.107 -0.0697 -0.0075  0.0712
88881W        W31872  21.266   0.987   3.284  0.3957 -0.0922 -0.3006
88882W        W31873  13.282   3.384   5.609  0.0481  0.2165  0.4332
88883W        W31874  19.334  32.514  28.260 -0.1483  0.1414 -0.0796
88884W        W31875  10.893  18.640   5.685  0.2115 -0.0216  0.0978
88885W        W31876  20.323   1.236   1.937  0.0265  0.2425 -0.0781
88886W        W31877  31.124   8.410   6.925  0.0268 -0.0359 -0.0080
88887W        W31878  15.083   3.865  24.057 -0.2294  0.1627 -0.0315
88888W        W31879  26.449  24.414  21.969  0.2282  0.1115 -0.1668
88889W        W31880  31.081  13.062   4.174  0.0753 -0.0021  0.0098
88890W        W31881  26.296  10.312  20.815 -0.1472 -0.2060  0.1098
88891W        W31882  14.987  11.276   7.174  0.1509  0.1380  0.0174
88892W        W31883  20.696   0.112  26.312  0.0170  0.1278  0.3145
88893W        W31884   2.588  10.163  10.221 -0.2146  0.1477 -0.1060
88894W        W31885  14.933   6.902  22.326 -0.0738 -0.0613  0.1951
88895W        W31886   7.478  32.489  28.442  0.0372 -0.1429 -0.0593
88896W        W31887  20.109  25.158   6.328  0.0935  0.1079 -0.3379
88897W        W31888   6.598   3.043   5.198  0.0634 -0.1717 -0.1151
88898W        W31889  12.430  11.171  11.207 -0.2177  0.1198  0.1173
88899W        W31890  12.129  19.624  22.705  0.0506  0.4635  0.3748
88900W        W31891  13.052   3.732   5.185 -0.0195 -0.0856 -0.0431
88901W        W31892  28.224  15.713   0.544  0.1367 -0.3647  0.1254
88902W        W31893  10.812   9.177   5.366 -0.4002 -0.0120  0.1937
88903W        W31894  30.895   6.481   3.937  0.0987 -0.0950  0.2291
88904W        W31895  16.095   1.496   2.685  0.0182 -0.1913  0.0545
88905W        W31896  12.883   6.862   8.637  0.0695  0.2800 -0.0765
88906W        W31897  16.025  15.511   6.863  0.1116 -0.0340  0.2886
88907W        W31898   9.920   0.046  28.464 -0.0014 -0.1397 -0.1638
88908W        W31899  18.379  14.880   9.179 -0.0431  0.0496 -0.0560
88909W        W31900   2.415  13.321  26.185  0.2890  0.0845 -0.0608
88910W        W31901  15.877   6.456   8.391 -0.1862 -0.1493  0.2627
88911W        W31902  15.515  15.593   2.513  0.1279 -0.0024 -0.0125
88912W        W31903   1.766  15.389   6.082  0.1212  0.0070  0.0878
88913W        W31904  12.200   1.478  27.452 -0.1215  0.1138  0.2668
88914W        W31905   6.842  13.355  26.134  0.1780  0.1990 -0.1291
88915W        W31906   9.897   9.451  27.456  0.2099 -0.0499 -0.2412
88916W        W31907  22.613   3.107   2.869 -0.1991 -0.1888 -0.0617
88917W        W31908   1.957   9.314  10.222 -0.1685  0.1360  0.0549
88918W        W31909  11.894   2.641  19.225 -0.0601 -0.0439  0.3040
88919W        W31910   3.066  16.538   7.566  0.1507 -0.0330  0.1081
88920W        W31911  10.020  15.607   8.453 -0.0542 -0.2454  0.0833
88921W        W31912  28.174   9.570   0.434 -0.0081  0.1620  0.2512
88922W        W31913  14.000   9.147  26.669  0.1591  0.1559 -0.1455
88923W        W31914  24.164  18.362   7.550  0.1128 -0.4109 -0.1766
88924W        W31915  25.094  10.485  20.706 -0.1641 -0.0914  0.0185
88925W        W31916  19.805  34.228  28.786 -0.0093  0.1934  0.0163
88926W        W31917   5.799   0.894   3.805 -0.0182 -0.2674  0.0019
88927W        W31918  10.048   8.609   0.798  0.2579  0.1720 -0.2781
88928W        W31919  29.866  34.574  26.592  0.1398 -0.2901  0.1380
88929W        W31920  17.631  18.240  22.578 -0.0428 -0.0252 -0.3874
88930W        W31921   3.527  34.075  25.006  0.3751 -0.2284 -0.0359
88931W        W31922   5.455  10.272  10.701 -0.0677 -0.0966  0.1278
88932W        W31923  34.364   4.960  23.432  0.2981 -0.2056  0.1611
88933W        W31924  13.131  30.338  23.999 -0.1229  0.1047 -0.2916
88934W        W31925  16.900   9.557   6.849  0.1894 -0.0778  0.0905
88935W        W31926  34.230  12.688  28.804  0.4542 -0.3557 -0.0363
88936W        W31927  23.487   1.703  29.053 -0.0831 -0.1335 -0.4271
88937W        W31928  15.472  34.683   0.583 -0.0277  0.1116  0.1310
88938W        W31929  11.945   3.200   7.888  0.0862  0.3259 -0.0973
88939W        W31930   0.267   5.835  19.198 -0.6557 -0.0734 -0.1295
88940W        W31931   8.457  13.493   2.690  0.1169  0.0061  0.2095
88941W        W31932  33.823   8.084  27.975  0.0730  0.0921  0.2646
88942W        W31933  17.709   7.797  28.756  0.4248  0.0609  0.0089
88943W        W31934   7.908  29.442   6.562  0.5387 -0.0787  0.2261
88944W        W31935  18.823   0.123   0.444 -0.4645  0.0948  0.0129
88945W        W31936  20.968   3.852   7.778  0.2545  0.2080 -0.1943
88946W        W31937  10.927  16.374   1.119 -0.5764  0.0718 -0.0239
88947W        W31938  31.506  14.761   5.549  0.1847  0.1233 -0.1681
88948W        W31939  18.212   3.824  16.591  0.1672  0.0405 -0.0680
88949W        W31940   8.738   2.176  27.453 -0.1626  0.1758 -0.3400
88950W        W31941   4.314  31.216   4.378 -0.4210  0.2192 -0.2622
88951W        W31942  11.635  33.493   9.522  0.0565 -0.2812 -0.0455
88952W        W31943  12.535   1.740  10.356 -0.1986 -0.0486 -0.1137
88953W        W31944   7.564   2.209  29.260 -0.0702 -0.0602 -0.1941
88954W        W31945  22.022  34.768  18.524  0.2462 -0.2902 -0.1621
88955W        W31946   9.531  30.730   5.642  0.1412 -0.1609  0.0172
88956W        W31947   1.220  10.027  19.747 -0.0796  0.0516  0.1072
88957W        W31948   0.348   9.224   9.374 -0.0267  0.0115  0.2584
88958W        W31949  33.284  21.493  22.764 -0.0536  0.1039  0.0031
88959W        W31950  11.664   9.221   7.209 -0.2239  0.0413 -0.0795
88960W        W31951   7.964  30.317   1.402 -0.0611 -0.0028  0.0721
88961W        W31952  18.638   8.543  23.330  0.0967  0.0111 -0.0609
88962W        W31953  11.035   4.222   4.573 -0.0267 -0.3069 -0.0170
88963W        W31954  23.241  12.574   6.100  0.2068 -0.0741  0.0621
88964W        W31955  20.569  17.486   8.507 -0.0065 -0.1592  0.1986
88965W        W31956  21.904  18.028  23.158  0.2326  0.0704  0.3387
88966W        W31957  20.054   2.851   6.550  0.3325 -0.1094 -0.2759
88967W        W31958   7.185   2.355   7.008 -0.1332 -0.2477  0.0426
88968W        W31959  30.577   6.179   2.557 -0.0785  0.1683 -0.0717
88969W        W31960  17.060   7.552  25.136 -0.2961  0.1329  0.0292
88970W        W31961   2.082  33.303   5.206  0.0063 -0.1233 -0.2061
88971W        W31962   8.420   7.429   5.244  0.0002  0.1314  0.2311
88972W        W31963  29.609  12.514   3.816  0.0682 -0.3062  0.1596
88973W        W31964  24.626  14.798  26.408 -0.1171 -0.2100 -0.0607
88974W        W31965  12.886   2.436  28.292  0.0456  0.1914 -0.0500
88975W        W31966   5.429   4.479   9.921  0.0112  0.1340  0.0729
88976W        W31967   2.002   6.506  26.340 -0.0752 -0.0391 -0.0262
88977W        W31968   3.523   1.552   8.902 -0.0244 -0.0639  0.0438
88978W        W31969   0.480   4.927   0.181 -0.0318 -0.0345  0.1600
88979W        W31970   1.856   8.353   8.083  0.0482  0.1294  0.0616
88980W        W31971  14.951  24.874  27.344  0.1653 -0.0491 -0.1834
88981W        W31972  17.738   8.214   0.661  0.2690  0.3185 -0.0457
88982W        W31973  15.944  15.101  26.992  0.0325  0.2537 -0.0168
88983W        W31974   3.159   7.121  27.343  0.1350  0.0843 -0.2348
88984W        W31975   8.264   3.490  21.897  0.1595 -0.0089  0.1967
88985W        W31976  14.526   5.673  25.816  0.3331 -0.0617 -0.3295
88986W        W31977  15.461  11.935   8.505  0.1970  0.0368 -0.1279
88987W        W31978  14.054   8.038   2.754 -0.0959  0.0048  0.1931
88988W        W31979   3.376  24.190  20.206 -0.0973 -0.0761  0.1229
88989W        W31980   1.346   8.430   8.083  0.1529 -0.0427 -0.1607
88990W        W31981   5.773  19.001  16.248 -0.0068  0.1386 -0.1053
88991W        W31982  21.243   3.940  26.355  0.0052 -0.2436  0.0239
88992W        W31983  29.680  20.640   2.234  0.1230 -0.1708  0.1881
88993W        W31984   6.192  11.640  25.770  0.1893  0.1746 -0.1515
88994W        W31985  21.023  15.733   5.498 -0.2317 -0.1243  0.0770
88995W        W31986  17.517  11.087   3.653  0.0264  0.3018 -0.0130
88996W        W31987  12.355   0.831   3.441  0.1556  0.0019 -0.1521
88997W        W31988  21.650   1.792   3.935 -0.3182  0.2079 -0.1288
88998W        W31989  17.265   9.909   8.957  0.2824 -0.0605  0.0717
88999W        W31990  33.028  32.780  25.947  0.2164 -0.3437 -0.1411
89000W        W31991   5.400   1.223  10.386  0.2579 -0.1265  0.2855
89001W        W31992  15.819  14.859  27.439  0.2268 -0.4283  0.0661
89002W        W31993  19.169  26.269   6.183 -0.1131 -0.5340 -0.2124
89003W        W31994  19.406  12.366  25.706  0.1909 -0.0036  0.0027
89004W        W31995  14.357  17.304   3.942 -0.0658  0.1817 -0.0077
89005W        W31996   7.791  28.306  20.842  0.0101  0.1192 -0.0249
89006W        W31997  13.869  16.919   5.323  0.0219 -0.3560  0.0421
89007W        W31998  22.630  14.639  15.672 -0.2239  0.1933 -0.0183
89008W        W31999  26.245  33.004   7.361  0.0643 -0.2743 -0.0575
89009W        W32000  16.214   5.878   2.680 -0.0198  0.1751  0.2472
89010W        W32001  16.145   3.005   8.382  0.2198 -0.3297 -0.5561
89011W        W32002  25.796   6.970  24.609 -0.1302 -0.3117 -0.0208
89012W        W32003   7.762   1.152  28.520 -0.0801 -0.1330 -0.0777
89013W        W32004  18.827   5.564   7.837 -0.0858 -0.3592 -0.1578
89014W        W32005  21.249  21.980  14.547  0.1247 -0.1114  0.1277
89015W        W32006   3.289   5.890  24.948  0.1173 -0.2098  0.0927
89016W        W32007   0.841  15.925   4.712 -0.1885  0.0129 -0.1993
89017W        W32008  20.557  12.875  24.148 -0.0711  0.0557  0.0838
89018W        W32009  17.875   2.989   2.594 -0.0330 -0.2221 -0.0577
89019W        W32010  10.822  20.334   5.131 -0.2294  0.2274  0.1695
89020W        W32011  20.836  17.161  26.299  0.0736 -0.3200  0.0694
89021W        W32012  22.854   0.182   3.642 -0.2874 -0.3449  0.0793
89022W        W32013   8.849  19.100  28.228 -0.3559  0.0035 -0.0067
89023W        W32014  14.499   1.966  21.679 -0.0428  0.1988 -0.1864
89024W        W32015   8.699   9.279   1.163 -0.3585 -0.0805  0.2809
89025W        W32016  12.542   9.635   8.487 -0.1968 -0.4629 -0.2670
89026W        W32017  23.390  10.070   9.526 -0.0596 -0.2573  0.0561
89027W        W32018  12.239  33.690   3.538 -0.0086  0.0137 -0.0182
89028W        W32019  31.744  34.772  24.279 -0.0870 -0.0485  0.0382
89029W        W32020  32.011  15.228   9.298  0.1020  0.2305 -0.1475
89030W        W32021  33.241  12.132  10.121  0.3152  0.0305  0.2395
89031W        W32022  34.090  16.927   2.877  0.0669  0.2102 -0.1989
89032W        W32023  15.469  14.626  23.235 -0.1041 -0.0202  0.0482
89033W        W32024  12.441   1.758   6.940  0.0117  0.1805  0.2947
89034W        W32025   8.809   4.960   5.719  0.1745  0.1433 -0.0660
89035W        W32026  18.480   4.899   1.926  0.0529 -0.0871  0.2980
89036W        W32027   9.353  16.771   8.815  0.1084 -0.2827  0.3064
89037W        W32028  19.229  29.833   4.475  0.0071 -0.2045  0.3003
89038W        W32029  17.863  15.466   2.063  0.2608  0.1062  0.0745
89039W        W32030  16.937   9.682   2.215 -0.0429  0.0135  0.0079
89040W        W32031   7.026   5.507  26.543 -0.0859  0.1199 -0.2785
89041W        W32032  15.286   5.219   6.079  0.0440  0.1749 -0.1022
89042W        W32033  33.535   9.791   9.205  0.0088 -0.0291 -0.0425
89043W        W32034  11.151   5.749   7.933 -0.0371  0.0862  0.2713
89044W        W32035  19.282   1.961   9.744  0.2073  0.1539  0.0966
89045W        W32036  22.597   7.170   8.513  0.0358  0.2902  0.0230
89046W        W32037  29.786   4.737   1.184  0.4228 -0.3491 -0.2362
89047W        W32038  21.394  31.250  25.825  0.0452  0.2050 -0.1435
89048W        W32039   8.718  17.252   4.125 -0.1351 -0.0091  0.0283
89049W        W32040   9.292  32.318  17.728  0.0304 -0.1074 -0.3839
89050W        W32041  11.788   8.630  25.607  0.1767 -0.1317  0.1356
89051W        W32042  17.805  12.638   7.900 -0.2373 -0.0720  0.2581
89052W        W32043  25.372  12.865  24.443  0.1749  0.1679  0.0860
89053W        W32044   6.412   6.781   4.134 -0.0633 -0.0644 -0.1934
89054W        W32045  25.321   8.083  20.032  0.0308  0.1612  0.0667
89055W        W32046   9.644  11.524  19.701 -0.1800  0.2094  0.1475
89056W        W32047   5.692   6.147   6.476 -0.1294 -0.1714  0.0535
89057W        W32048  16.075  33.368   1.680 -0.0549  0.1145  0.3859
89058W        W32049  19.882  30.742   5.464  0.3473  0.0539  0.1656
89059W        W32050   3.814  12.726  24.735  0.3258 -0.0455  0.0687
89060W        W32051  14.441  13.150   1.674 -0.0323 -0.0217 -0.2983
89061W        W32052  14.681   4.661  11.187  0.2127 -0.1137 -0.2205
89062W        W32053   1.461  10.335   3.466 -0.0587  0.0182 -0.0505
89063W        W32054  11.037  21.291   6.294 -0.0667 -0.1808 -0.0852
89064W        W32055  20.963   0.779  26.707 -0.1515  0.3342 -0.2118
89065W        W32056  24.251  15.272   9.502  0.0991  0.2073 -0.0794
89066W        W32057  13.414   8.381  28.259 -0.2697 -0.1194  0.1641
89067W        W32058   6.401  30.255   9.357 -0.3364  0.2706 -0.2258
89068W        W32059   3.781  32.812   7.996  0.0745  0.2130 -0.0841
89069W        W32060  33.377  15.009   1.835  0.0028  0.0118 -0.2254
89070W        W32061  13.830  31.364   8.369  0.1898  0.1601  0.4003
89071W        W32062  12.545  12.692   7.474  0.0362 -0.1162  0.0841
89072W        W32063   8.251  34.247   6.588  0.1127  0.2177  0.0420
89073W        W32064  17.427  16.445   7.470 -0.2517  0.0415  0.1006
89074W        W32065  17.925  31.716  26.062 -0.1456  0.0744 -0.1339
89075W        W32066  16.230  29.090  18.308 -0.0060 -0.2293 -0.1224
89076W        W32067  29.927  12.570   8.217  0.0581 -0.1804  0.1202
89077W        W32068   6.813   7.598   7.436 -0.0211 -0.1973  0.1864
89078W        W32069   0.134   1.339  18.583 -0.0815  0.2411  0.0662
89079W        W32070  11.217  32.195   5.045  0.1405 -0.0177 -0.3112
89080W        W32071  23.653  12.587   6.440  0.2361  0.2341 -0.2043
89081W        W32072  13.406  12.601   3.795  0.1235 -0.0682 -0.0522
89082W        W32073  14.935  17.305  24.327 -0.1626 -0.0262 -0.3425
89083W        W32074   5.942  34.285   5.166  0.3516 -0.2728 -0.0266
89084W        W32075  21.365  20.085  26.357  0.0810 -0.0406  0.1503
89085W        W32076  13.927   5.884   3.442  0.2715  0.0528  0.0014
89086W        W32077   4.931  20.854   3.081  0.1221 -0.0490 -0.1614
89087W        W32078  23.237   0.694   2.568  0.0259  0.1676 -0.3919
89088W        W32079  15.122   1.254   5.685 -0.2131  0.1244 -0.1050
89089W        W32080  21.312   6.118  25.523  0.3910 -0.4170 -0.5095
89090W        W32081  28.543   2.900   3.808  0.0915 -0.2116  0.2268
89091W        W32082  21.364   0.947  21.442  0.0980 -0.1428 -0.1048
89092W        W32083  22.741  11.049   3.990  0.1533 -0.0081 -0.0065
89093W        W32084  31.620   6.126  23.189 -0.3461 -0.1400  0.1062
89094W        W32085   7.481  33.148  25.547  0.1004 -0.2074  0.0202
89095W        W32086  12.182   6.721   2.752 -0.2494 -0.1163  0.0323
89096W        W32087   1.592   7.514   5.317  0.1366 -0.0211  0.0572
89097W        W32088   6.303  21.901   5.188 -0.1779 -0.0123 -0.0210
89098W        W32089  13.603   1.479   6.744  0.2601 -0.0021  0.0442
89099W        W32090  16.493  29.018  28.302 -0.1460  0.1863  0.2635
89100W        W32091  17.137   7.230   4.574 -0.2159  0.4266 -0.0213
89101W        W32092   9.651  32.004  25.413  0.2959  0.1698 -0.0555
89102W        W32093   7.175   3.382   8.830 -0.0620  0.0462  0.1298
89103W        W32094  11.769   4.356   7.459 -0.2897  0.1671 -0.0220
89104W        W32095  11.390   2.612   7.738 -0.1603  0.0014 -0.1234
89105W        W32096   2.910   2.265   7.505 -0.0268  0.0681 -0.2923
89106W        W32097  14.722   8.132   0.623 -0.0127  0.0518  0.1788
89107W        W32098   0.189   3.646  27.315  0.1496 -0.1976  0.0224
89108W        W32099  18.125   2.075   9.217 -0.2066 -0.1486 -0.2915
89109W        W32100   9.598   5.654  22.664  0.0908 -0.0155  0.2092
89110W        W32101   2.843  17.098  28.712  0.0842  0.3979 -0.2093
89111W        W32102  15.923  15.698   8.778  0.3597  0.0718 -0.0433
89112W        W32103  18.088   4.720   3.858 -0.3042 -0.1079 -0.0073
89113W        W32104   6.293   3.494   6.037 -0.1805 -0.1546  0.2862
89114W        W32105  23.419  29.517   7.528  0.0006  0.1797  0.2120
89115W        W32106  12.795   3.684   7.696  0.0368 -0.0464  0.0815
89116W        W32107  14.491  13.216  25.492 -0.0231  0.0701  0.0209
89117W        W32108   3.468  31.221   5.427  0.2453  0.0323 -0.1788
89118W        W32109  19.763  31.151   9.441  0.4070  0.2902  0.1046
89119W        W32110  30.825  18.884  29.205  0.3362 -0.0066  0.2721
89120W        W32111  14.514   2.755   3.765  0.1671  0.0053 -0.1785
89121W        W32112  15.753   5.623   6.041  0.0728 -0.2256  0.2614
89122W        W32113  14.790   3.870   4.931 -0.2232  0.1279  0.0488
89123W        W32114   6.481  15.758   6.383 -0.0418 -0.4214 -0.1736
89124W        W32115  16.309  13.455  16.241 -0.1860 -0.0019 -0.0704
89125W        W32116  13.113   3.286   6.882  0.1464  0.1019  0.2672
89126W        W32117  13.397  15.584   0.955  0.0590  0.1172  0.0382
89127W        W32118  14.204  16.361  20.497  0.4437 -0.2748  0.1267
89128W        W32119  23.662  24.319   5.902 -0.2047  0.1145 -0.0867
89129W        W32120  10.610   3.422   3.335  0.0721  0.1458  0.1055
89130W        W32121  11.683   1.393  22.866  0.0897 -0.2389 -0.0693
89131W        W32122  20.896   0.682   5.800  0.1456 -0.0395  0.2592
89132W        W32123   6.736  32.138   1.698 -0.0524 -0.2229 -0.3737
89133W        W32124  22.171  18.828   2.986  0.0985 -0.2011  0.0222
89134W        W32125  15.209   4.791  10.621 -0.4297 -0.1327  0.0596
89135W        W32126  23.894  16.381  24.555  0.2118  0.1572 -0.2908
89136W        W32127   1.748  24.528   9.535  0.2220  0.0439 -0.0322
89137W        W32128   9.422  25.850   5.710 -0.0702  0.1133  0.2561
89138W        W32129  14.365  18.525   8.599 -0.0148 -0.2648 -0.1995
89139W        W32130   8.871   8.729  16.494  0.0043 -0.0327  0.0314
89140W        W32131  34.768  12.748  10.482  0.2355  0.3527 -0.4449
89141W        W32132   8.136   3.037   8.630  0.0243 -0.2908  0.0867
89142W        W32133  29.580   9.052  22.963  0.0362  0.0197  0.1687
89143W        W32134  11.129   0.711   1.752  0.1866 -0.1962 -0.1519
89144W        W32135  10.766   5.448  10.215 -0.2530  0.1302 -0.2313
89145W        W32136   9.794  16.445  25.603 -0.4836 -0.0158 -0.0766
89146W        W32137  26.861   6.975   8.506  0.0402 -0.1018 -0.1971
89147W        W32138   7.863  25.730   7.423  0.0024  0.0573  0.0417
89148W        W32139  25.222   6.169   9.299  0.1204 -0.1407  0.1330
89149W        W32140  12.631  14.424  25.888 -0.2727  0.2538 -0.2588
89150W        W32141   2.509   8.831   7.543  0.2459 -0.0543 -0.2746
89151W        W32142  30.333   8.324   2.811  0.0272  0.6309 -0.1075
89152W        W32143   5.621  28.671   9.718  0.1635  0.1030 -0.0704
89153W        W32144  15.789  18.347   7.462 -0.2005  0.1296  0.0167
89154W        W32145   8.016  10.275   0.796  0.1934  0.1760 -0.3064
89155W        W32146  18.475  15.418  15.544  0.0630  0.2521  0.1776
89156W        W32147  15.664  10.275   8.247  0.1304 -0.0688  0.0130
89157W        W32148  22.182   9.513  28.211 -0.1811 -0.2351 -0.0631
89158W        W32149   5.225  13.785   5.250 -0.0977  0.2301 -0.1158
89159W        W32150  20.351   8.243  23.872 -0.2242 -0.0816  0.0048
89160W        W32151  10.899  33.251  26.794  0.0231 -0.0899 -0.2369
89161W        W32152   4.243  16.071   2.038  0.2457 -0.2427  0.3870
89162W        W32153   4.573  14.253  25.879  0.0735 -0.2342 -0.3202
89163W        W32154   0.168  32.532   3.656 -0.0256 -0.0871 -0.0235
89164W        W32155  27.634   6.256  20.209 -0.0185 -0.4117  0.1111
89165W        W32156  17.779  25.019  26.413 -0.0673  0.0392 -0.0822
89166W        W32157  31.494   8.111   6.243  0.1087  0.1027  0.1603
89167W        W32158   1.866  23.325  27.150 -0.0927 -0.1215 -0.2203
89168W        W32159   4.996  16.083   3.978 -0.0880 -0.3566 -0.0155
89169W        W32160  18.568  21.981   0.933 -0.2331 -0.2116 -0.3835
89170W        W32161  16.447   4.420   6.919  0.0370  0.1578 -0.1675
89171W        W32162  22.441   4.275   0.641  0.1626  0.0889 -0.1956
89172W        W32163   2.248  14.159  10.648 -0.1295  0.0110 -0.0100
89173W        W32164  16.199  20.719  23.749 -0.1126  0.1270 -0.0731
89174W        W32165  22.928   6.061  25.420 -0.3300  0.1773  0.0643
89175W        W32166  22.823   5.858   6.536 -0.2596 -0.0786  0.2849
89176W        W32167  23.800   5.085   2.898  0.0658 -0.3232  0.1247
89177W        W32168  20.743   5.684   3.630 -0.0950  0.0839 -0.0092
89178W        W32169   3.518  13.299   7.087 -0.4643  0.2556 -0.0357
89179W        W32170  32.462  12.842   9.806 -0.4149  0.0771 -0.0473
89180W        W32171  19.423  17.174  28.774  0.0792  0.0496  0.0570
89181W        W32172  14.550   0.876   1.031 -0.1721 -0.3148 -0.0357
89182W        W32173   7.485  33.495   3.200 -0.1774 -0.1453  0.0985
89183W        W32174  32.077   9.279   2.337 -0.0350 -0.0050  0.2936
89184W        W32175  14.494   4.673   2.999 -0.2159  0.0885  0.2022
89185W        W32176  23.197  14.684   7.645 -0.0934 -0.2754  0.2251
89186W        W32177  32.492   4.099   4.241 -0.1346 -0.2143  0.0001
89187W        W32178  14.490  12.503   4.019  0.1590 -0.0901  0.0116
89188W        W32179  12.186   2.031   7.592 -0.0325 -0.2970 -0.2935
89189W        W32180  30.579  13.421   4.311 -0.4878 -0.2601  0.0529
89190W        W32181  24.410  13.123  21.057 -0.1495 -0.1152  0.0193
89191W        W32182  27.990   5.840   7.132  0.0853 -0.0198  0.0136
89192W        W32183  13.464   3.826   9.883 -0.0700  0.1460 -0.0048
89193W        W32184  16.017   5.855   3.608 -0.5669  0.1897  0.2199
89194W        W32185  11.426   6.551   7.873  0.1798 -0.0855  0.1194
89195W        W32186  16.490  15.697  24.862  0.0604  0.1000 -0.1471
89196W        W32187  22.995  18.612   5.357  0.1519  0.0658 -0.0720
89197W        W32188  15.420   9.784  16.799 -0.2956  0.1375 -0.1276
89198W        W32189  13.310  20.942   6.344  0.2224 -0.0114 -0.0178
89199W        W32190   0.596   3.651   1.622  0.4074  0.2105  0.1548
89200W        W32191   6.893   9.100   4.427  0.1031  0.0878  0.2434
89201W        W32192   0.395  34.286   8.521  0.0628  0.1443  0.1744
89202W        W32193  13.822  17.733  23.399 -0.0753 -0.0198 -0.1805
89203W        W32194  14.505  11.777  27.634 -0.2063 -0.1004  0.3026
89204W        W32195  23.964   5.564   2.777 -0.2363 -0.0120 -0.1983
89205W        W32196   7.468  15.399   1.139  0.4242  0.3115 -0.2802
89206W        W32197  23.293   9.469   2.283 -0.1017 -0.2159  0.1240
89207W        W32198  18.304  17.267  27.319 -0.0481  0.2193  0.1906
89208W        W32199   0.095  12.008   2.747  0.2207 -0.0944 -0.2355
89209W        W32200  18.807  13.625   3.018  0.0332 -0.0451 -0.0855
89210W        W32201  15.733  11.665   9.234  0.1140 -0.2265 -0.0858
89211W        W32202   7.910  33.715  23.805  0.1490  0.1332  0.0967
89212W        W32203  24.752  31.040   9.636 -0.2593  0.0811  0.1454
89213W        W32204  22.596  33.581   7.827 -0.2889  0.1348 -0.1355
89214W        W32205   9.401  19.497  10.032  0.1072 -0.1920 -0.2675
89215W        W32206   5.537   9.232  21.774  0.1991  0.0314  0.1770
89216W        W32207  17.951  12.515   0.133 -0.1701  0.0008  0.0281
89217W        W32208  13.823  12.349   5.311 -0.0298 -0.1960 -0.1555
89218W        W32209  14.700  10.190  10.659  0.2140  0.1587 -0.2115
89219W        W32210   3.728   5.415  11.370  0.2803  0.0900 -0.0278
89220W        W32211  21.319  26.549  25.547  0.2190 -0.1895  0.1074
89221W        W32212   4.246   5.977  10.720 -0.1518  0.0327 -0.1432
89222W        W32213   0.727  15.528  10.989  0.0554 -0.0199  0.0239
89223W        W32214  13.693  32.778   5.983 -0.0365  0.0224  0.2015
89224W        W32215   4.902   1.496   6.390 -0.1203  0.1843  0.1896
89225W        W32216  14.198   9.425  29.227  0.1480 -0.2849  0.0096
89226W        W32217  16.178  20.941  18.752  0.2494  0.1960  0.1677
89227W        W32218  23.018   3.809  23.994  0.0238 -0.1431  0.1999
89228W        W32219  12.997   1.869   3.229 -0.1817 -0.2286  0.0461
89229W        W32220  34.391  24.830   5.358  0.0258 -0.0518 -0.3414
89230W        W32221   5.297   9.679   4.930  0.1854  0.0043  0.3367
89231W        W32222  17.989   6.918   3.383 -0.0854  0.0290 -0.0941
89232W        W32223  15.347   7.669   9.784  0.1849  0.0399 -0.2403
89233W        W32224   0.649  18.066   0.521  0.1028  0.0643  0.0553
89234W        W32225  17.779   9.524   1.627 -0.0428  0.4742  0.1197
89235W        W32226   6.294   6.749  25.049 -0.0092 -0.1523 -0.0744
89236W        W32227   7.137  14.896   7.833  0.1984  0.1109 -0.0177
89237W        W32228  21.481  16.126   6.462  0.2779 -0.3699 -0.0669
89238W        W32229   8.617  18.105   9.076 -0.1491  0.0868 -0.0929
89239W        W32230  15.331   5.524  19.344  0.2893 -0.1342 -0.0311
89240W        W32231  17.987  16.397   7.376 -0.0143  0.1240 -0.0438
89241W        W32232   9.241  11.653   0.327  0.0549 -0.0724  0.1135
89242W        W32233   9.961   5.997   4.984 -0.0206  0.0468 -0.0731
89243W        W32234  14.692   4.679  10.688 -0.1733 -0.0454 -0.0020
89244W        W32235  23.495  14.378  27.607  0.1470  0.2590 -0.0007
89245W        W32236  11.717  30.699   0.285 -0.0408  0.0874 -0.0170
89246W        W32237  21.554  13.572  27.357  0.2387 -0.0374 -0.1334
89247W        W32238   8.773   4.770   3.186 -0.0324 -0.1178 -0.0305
89248W        W32239  13.159   9.089  27.729 -0.4090 -0.0472 -0.3279
89249W        W32240  10.102  25.916   7.170  0.1391 -0.0166  0.2236
89250W        W32241  17.644   6.585   6.082  0.4746  0.1682  0.1830
89251W        W32242  10.637  15.156   4.030  0.1121  0.1082 -0.2064
89252W        W32243  20.824  22.457   6.399 -0.0276 -0.2748 -0.2310
89253W        W32244  19.257  26.716   4.463  0.0246  0.0065 -0.1673
89254W        W32245   0.724  23.508  21.427  0.1557  0.2338  0.1507
89255W        W32246  12.828  12.302  28.659 -0.1458  0.0779  0.1691
89256W        W32247   6.987   7.947   2.085 -0.0996  0.0460  0.0570
89257W        W32248  11.421  29.362  10.796 -0.1476  0.1614 -0.3068
89258W        W32249  14.914   7.774   8.633 -0.1205 -0.1692  0.2345
89259W        W32250   8.025   6.141   7.576 -0.0522  0.0817 -0.0903
89260W        W32251  16.862   8.027   4.622  0.1644  0.0819  0.0353
89261W        W32252  23.541  13.904  18.369 -0.3959  0.5043  0.2360
89262W        W32253  21.586  34.271  13.544 -0.1397  0.1825 -0.0135
89263W        W32254  17.844  16.046   3.473  0.2183 -0.0334 -0.1849
89264W        W32255  21.212  27.623   5.570 -0.1861 -0.0197  0.0054
89265W        W32256  18.716   6.984   2.285 -0.0785  0.1663  0.1855
89266W        W32257  12.996   5.174   7.825 -0.0534 -0.0340 -0.0809
89267W        W32258  16.231  12.343   5.653 -0.0039  0.1258  0.2231
89268W        W32259  32.149  26.834   3.898 -0.0584 -0.0256  0.1847
89269W        W32260   9.821   8.645   7.531 -0.2151  0.0877 -0.1847
89270W        W32261  11.251   8.808  10.289 -0.0766  0.0200 -0.2844
89271W        W32262  23.362   6.037   1.040  0.0977  0.1975  0.1270
89272W        W32263  34.546  29.597   4.219 -0.1083  0.1512  0.0459
89273W        W32264  13.269  33.948  10.306  0.0211  0.1543 -0.4783
89274W        W32265   4.268   2.678   9.525  0.1021 -0.1375  0.1420
89275W        W32266  19.943  12.938  28.433 -0.2299  0.0208 -0.2613
89276W        W32267   9.093   1.481   5.024  0.2350 -0.1060 -0.0783
89277W        W32268  17.352  31.803  21.673  0.0917  0.4562 -0.1995
89278W        W32269  19.788   2.337   8.227  0.1965  0.0346 -0.0198
89279W        W32270  10.339  29.306  26.577 -0.2565 -0.2781 -0.2657
89280W        W32271   0.981  16.081   9.872  0.3915  0.0534 -0.3359
89281W        W32272  19.157  23.953   8.587  0.0599  0.0313 -0.0349
89282W        W32273   5.423  14.696  27.602  0.0275  0.0257 -0.0705
89283W        W32274  15.950   4.891   7.765 -0.0163 -0.3553  0.0973
89284W        W32275  14.290  10.054  27.880  0.0134 -0.1075 -0.0954
89285W        W32276  33.569  33.363   9.130  0.1470 -0.0433  0.0400
89286W        W32277   7.957   5.218  10.014  0.1342 -0.2067 -0.1563
89287W        W32278   4.062   5.377  18.485 -0.0420  0.1304  0.1603
89288W        W32279   9.283  10.171   0.619  0.1208 -0.1523  0.1171
89289W        W32280  16.069  33.753  22.520  0.0086  0.1342  0.0038
89290W        W32281  26.246  16.306  27.452 -0.1397  0.1659 -0.0884
89291W        W32282  19.908  17.390   3.197 -0.0222  0.1122 -0.0641
89292W        W32283  16.077   6.963   6.827 -0.1650 -0.1646 -0.1627
89293W        W32284  17.311  15.015   5.743 -0.0299  0.2894 -0.4611
89294W        W32285  22.094  28.480  23.001  0.2778  0.0399  0.0756
89295W        W32286  22.274   1.404   7.958  0.0659 -0.1497  0.1229
89296W        W32287   5.838   8.390   6.812  0.1470 -0.5892  0.3693
89297W        W32288  18.486  15.487   6.524  0.6201 -0.1353 -0.3577
89298W        W32289  13.923   7.341   1.998  0.1077  0.1599 -0.1874
89299W        W32290  16.458  26.280  24.781  0.0596 -0.0715  0.1646
89300W        W32291  21.862   2.181  27.326 -0.2370  0.0535  0.5096
89301W        W32292  16.206  16.810  25.117 -0.0296 -0.1749 -0.0839
89302W        W32293   4.642  16.678   6.310 -0.0480 -0.1951  0.1227
89303W        W32294   1.713  25.155   8.788 -0.2631  0.1029  0.0030
89304W        W32295  11.775  13.043  10.428  0.0303 -0.1919  0.2896
89305W        W32296  11.662  31.307   7.143 -0.1634  0.2099  0.1362
89306W        W32297   6.420  15.780   5.289  0.2481  0.0822  0.2268
89307W        W32298  16.700  13.370   4.130 -0.0752  0.3852 -0.1316
89308W        W32299  29.296  26.805   3.339  0.0038 -0.0783  0.1901
89309W        W32300  19.607  33.703   2.166 -0.1875 -0.0491 -0.1908
89310W        W32301  14.313   7.064  22.812  0.1739 -0.0944 -0.0298
89311W        W32302  20.650  15.245   9.119 -0.1036 -0.0202 -0.1614
89312W        W32303  17.790   9.836  20.393  0.0708 -0.0687  0.2494
89313W        W32304  24.025   8.576   8.077  0.0846  0.3701 -0.2746
89314W        W32305  13.914   8.763   6.931  0.0702 -0.0883 -0.2797
89315W        W32306  12.297  33.482   6.715 -0.0515 -0.0410  0.4188
89316W        W32307   8.569  15.405   0.665 -0.1499 -0.3991 -0.3597
89317W        W32308   6.642  10.967   6.601  0.0209 -0.4323 -0.2566
89318W        W32309  14.139  25.875   2.387  0.2988  0.2547  0.2895
89319W        W32310  20.929  28.304   0.923  0.1194 -0.0873 -0.1065
89320W        W32311  14.158   7.169   8.221 -0.1461  0.0124 -0.1183
89321W        W32312  16.488  13.351   8.518 -0.0139  0.2474  0.2501
89322W        W32313  16.740  10.382  24.132  0.3321  0.2639  0.1077
89323W        W32314  14.036  15.042  25.105  0.0188 -0.1009 -0.2582
89324W        W32315   6.285  27.800  21.538 -0.2978 -0.0709  0.2133
89325W        W32316  29.941  17.502   8.502 -0.1796  0.2270 -0.1708
89326W        W32317  13.519  31.033  27.216 -0.1208  0.0877  0.0294
89327W        W32318   1.759  28.948   7.808 -0.1700  0.1307 -0.2823
89328W        W32319  17.833  13.841   1.621  0.0622  0.0640  0.0421
89329W        W32320  18.378   9.981   9.302 -0.0382 -0.0219 -0.2440
89330W        W32321  29.824  13.097   6.011  0.2876  0.0870  0.0533
89331W        W32322  20.129  11.625   1.884 -0.0145 -0.0886 -0.1573
89332W        W32323   6.642  34.675   0.265  0.2111  0.2620 -0.1110
89333W        W32324   8.372  19.101   1.441  0.1501  0.5008  0.1162
89334W        W32325  10.196  33.313   7.087  0.0211  0.2215 -0.0970
89335W        W32326   9.911  32.880  24.992  0.1674  0.2353 -0.2603
89336W        W32327  13.343   5.676   9.081 -0.0220  0.0869 -0.1709
89337W        W32328  11.243  13.562   9.352  0.1310  0.1008 -0.1432
89338W        W32329  15.935  13.264  29.059 -0.0304  0.1217  0.3012
89339W        W32330  23.854   3.449   6.705  0.2400  0.1600 -0.2864
89340W        W32331  16.522  30.621   5.574 -0.0901 -0.3007 -0.2133
89341W        W32332  14.237  13.549   5.780 -0.2759 -0.1517  0.1200
89342W        W32333   1.851  11.967   6.294  0.1759  0.0140 -0.1073
89343W        W32334  17.548   7.060   4.827 -0.2702 -0.1179 -0.0479
89344W        W32335  15.291  16.600   8.670 -0.1863 -0.1100  0.2079
89345W        W32336  24.704  15.076   5.182 -0.1077 -0.2447 -0.1108
89346W        W32337  21.806  25.183   1.907  0.2181  0.1210  0.0853
89347W        W32338   6.114  29.192   0.123  0.2699  0.0213  0.0095
89348W        W32339  31.619   3.338   5.704  0.0825  0.1890 -0.2376
89349W        W32340  13.687  34.393  24.747  0.0692  0.1014  0.1384
89350W        W32341  20.460  31.492  28.885  0.0592  0.4497  0.2189
89351W        W32342  32.108  14.014  10.503 -0.0154  0.2667  0.1883
89352W        W32343  12.519   6.398   6.283  0.1549 -0.1500  0.0973
89353W        W32344   6.335  27.943  10.535  0.1644  0.0198 -0.0946
89354W        W32345  10.907   8.518  20.146 -0.0471  0.0437  0.1242
89355W        W32346  18.835  12.017  19.303 -0.1109  0.4167  0.0981
89356W        W32347  24.640   6.313  26.513  0.0758  0.1885 -0.0608
89357W        W32348  11.293   9.982  28.382  0.1040  0.2986  0.2837
89358W        W32349   7.911  25.503  19.439 -0.0606 -0.0633 -0.1190
89359W        W32350  13.010  16.284   2.116  0.4131 -0.2939 -0.2022
89360W        W32351   9.822  13.486   4.469  0.1674 -0.0913 -0.1005
89361W        W32352  17.601   4.825  23.027  0.4547 -0.0493  0.0629
89362W        W32353   6.231  18.666  10.535 -0.3297 -0.1343  0.2198
89363W        W32354  25.267  34.267   2.654  0.2294  0.2197  0.2202
89364W        W32355  12.664  17.755   5.330  0.2807 -0.0773  0.0593
89365W        W32356  21.666   2.165   9.359  0.0094 -0.1855 -0.0722
89366W        W32357  16.694  22.675  25.549  0.1783  0.1101 -0.0815
89367W        W32358  30.567  12.985  25.400  0.1412 -0.1973  0.0529
89368W        W32359   5.756  15.742  20.182 -0.1253  0.1219 -0.0435
89369W        W32360   7.642   2.679  10.431 -0.1747 -0.1628  0.1380
89370W        W32361  15.272  17.746   7.884  0.2141  0.1869 -0.0633
89371W        W32362   3.286  13.710   7.335 -0.1649  0.2865 -0.1247
89372W        W32363  14.806  32.540  28.662  0.0576 -0.1281  0.2170
89373W        W32364   3.944   6.744   9.664  0.3527 -0.0911 -0.0770
89374W        W32365  27.012  29.567   3.432 -0.2327 -0.0992  0.0624
89375W        W32366   4.126  21.861   3.893 -0.1793  0.0452  0.0291
89376W        W32367  27.802  34.219   8.196 -0.1247  0.0395 -0.1556
89377W        W32368  22.594  33.387   6.520 -0.0477  0.1753 -0.0471
89378W        W32369   5.735   7.822  10.999  0.1359  0.2239 -0.0254
89379W        W32370  15.117  17.875   5.718  0.1961  0.3534  0.2101
89380W        W32371  19.410  12.148   2.014  0.1334  0.0805  0.2536
89381W        W32372  12.083  27.545   7.743 -0.0318 -0.0056 -0.0090
89382W        W32373   6.283   5.544   6.605  0.0712  0.1661  0.1529
89383W        W32374   3.723   1.521   2.816 -0.0694  0.1606 -0.1080
89384W        W32375  24.178  23.722   6.451 -0.0430  0.0957  0.2127
89385W        W32376   8.020   1.562  29.209  0.0608  0.0104 -0.1759
89386W        W32377  11.622  24.815  25.417 -0.0242 -0.0350 -0.2181
89387W        W32378  21.172   4.971   1.002  0.0983 -0.2221 -0.1586
89388W        W32379  10.676  25.552   5.329 -0.1154  0.0875 -0.0881
89389W        W32380   7.538  29.028   5.799  0.1598 -0.0077 -0.3290
89390W        W32381  29.973   2.878   5.075  0.0855  0.0332  0.3650
89391W        W32382   6.858  13.527  19.408 -0.2214 -0.4381  0.1257
89392W        W32383  16.588   8.013   5.085  0.1294 -0.1640 -0.1063
89393W        W32384  15.130  21.739   2.004  0.2532  0.0676 -0.0656
89394W        W32385  23.257   9.506   5.384 -0.1504  0.1821 -0.1289
89395W        W32386  20.629   2.764   9.486 -0.0449 -0.1838  0.0797
89396W        W32387  13.313  17.456  20.637  0.0796  0.1825 -0.1008
89397W        W32388  14.895  18.852   6.408  0.2115 -0.1865 -0.2852
89398W        W32389  12.823  17.622  29.107 -0.0863  0.1899 -0.1172
89399W        W32390  17.187  15.358   3.097  0.0619 -0.0244 -0.3627
89400W        W32391  14.657   8.469  10.455  0.1200  0.3695  0.2239
89401W        W32392  11.958  22.113   7.653 -0.2721  0.0811 -0.1422
89402W        W32393  15.306   1.826  16.368  0.1421 -0.0367  0.1890
89403W        W32394  21.189   1.914  27.493  0.0348 -0.0151  0.2415
89404W        W32395   7.653   7.187   0.523 -0.0143 -0.1968  0.0021
89405W        W32396   8.622  32.382  27.381  0.0765 -0.1084  0.0522
89406W        W32397  28.063  29.041   6.899 -0.3043 -0.0703 -0.0723
89407W        W32398  18.938  11.131   1.950 -0.1290  0.2582  0.0897
89408W        W32399  21.519  26.819   6.689  0.2683 -0.0601  0.1021
89409W        W32400   9.237  23.268   5.403  0.2947 -0.0898 -0.3353
89410W        W32401  21.437   1.753   6.326 -0.0660 -0.3925  0.1534
89411W        W32402   4.570  23.691  26.265  0.2498  0.3589 -0.1437
89412W        W32403  26.639   2.719  26.629  0.0556 -0.5177 -0.0922
89413W        W32404   1.672  29.261   0.974  0.0162 -0.0629 -0.1671
89414W        W32405  12.878  12.744   9.165 -0.2051 -0.0447 -0.0092
89415W        W32406  15.404  14.006   0.188 -0.1531  0.0869  0.1618
89416W        W32407  11.400  10.807  24.411  0.0289  0.3620 -0.0951
89417W        W32408  31.657  25.903  20.098  0.0739  0.0092 -0.0251
89418W        W32409  13.438  20.841   8.846  0.3666 -0.3913  0.0694
89419W        W32410   7.367  22.442   3.169 -0.3001 -0.1593 -0.1723
89420W        W32411  17.314  33.768   7.142  0.0506 -0.0565  0.0106
89421W        W32412   4.976  13.039   5.927  0.0943  0.0619  0.0866
89422W        W32413   9.364   1.333   2.563 -0.0031 -0.1993  0.1395
89423W        W32414  19.915  33.211   7.967  0.1394 -0.4137 -0.1390
89424W        W32415  26.430  17.981   4.874 -0.0389 -0.0465  0.5057
89425W        W32416   9.730   1.662  10.278  0.0579  0.1666 -0.0535
89426W        W32417  20.353  23.474  20.843 -0.1968 -0.0315  0.0054
89427W        W32418   5.172   2.826   9.321 -0.1004 -0.0592  0.1428
89428W        W32419  16.371   4.020  26.473  0.1724  0.0444 -0.1046
89429W        W32420  17.324  29.270   5.988 -0.1084  0.0497  0.2623
89430W        W32421  13.389  16.950  27.360  0.4323 -0.1342  0.1562
89431W        W32422  12.850   8.781  29.133 -0.2113  0.3430  0.1227
89432W        W32423   5.192  32.798  26.006 -0.0735  0.0873  0.0594
89433W        W32424  10.151  15.239  15.115  0.0490  0.0377 -0.1548
89434W        W32425  22.127  13.913   1.108 -0.2378  0.1903  0.0674
89435W        W32426  17.705  33.443   7.884 -0.1111  0.1284 -0.0881
89436W        W32427  15.133  23.449  26.689  0.2523  0.0194 -0.0647
89437W        W32428  12.931   3.661   3.059 -0.1423 -0.5592 -0.2241
89438W        W32429  12.663   3.070  25.556 -0.2457  0.0366 -0.1937
89439W        W32430  19.652  12.412   4.730 -0.1155 -0.0701 -0.0354
89440W        W32431  22.208  30.133   8.565 -0.0550 -0.2156  0.0536
89441W        W32432  11.865  26.899   6.122  0.1283 -0.1832 -0.0550
89442W        W32433   9.908  19.153  26.233 -0.2157  0.3190  0.0363
89443W        W32434   8.671  33.742   2.385  0.0206  0.3399 -0.1445
89444W        W32435  15.997  10.682   1.481  0.1840  0.3130 -0.3783
89445W        W32436   3.079   3.811   9.303  0.2311 -0.0657 -0.0417
89446W        W32437  26.686  31.665   1.403 -0.2931  0.1131 -0.3383
89447W        W32438   1.063   7.181   2.373  0.0370  0.1217  0.1048
89448W        W32439   1.210  17.417  10.141 -0.0276 -0.1344  0.1834
89449W        W32440  12.581   2.492  10.780  0.0796  0.1118 -0.0868
89450W        W32441  10.029  15.701   2.428  0.2667 -0.0425  0.1365
89451W        W32442   4.505   3.300  26.713 -0.2038 -0.2485  0.5940
89452W        W32443  13.499   0.546  26.910 -0.3197  0.1780  0.1186
89453W        W32444   0.078  34.399   6.947 -0.2216  0.1834 -0.1346
89454W        W32445   3.526  27.723   9.257  0.3125  0.1020  0.1461
89455W        W32446  11.571  10.304   5.667 -0.2048  0.0022  0.1862
89456W        W32447   7.990   4.670   9.124 -0.3104 -0.1507 -0.1167
89457W        W32448  14.648  27.723   2.932 -0.5326 -0.1106  0.0318
89458W        W32449  22.753   5.713   1.556 -0.1108  0.0091  0.0062
89459W        W32450  26.313   0.012   4.818  0.1005  0.1011 -0.1650
89460W        W32451   2.912  12.432   2.238 -0.2718  0.1203 -0.1007
89461W        W32452  28.329   3.637   0.113  0.1152  0.3866  0.1129
89462W        W32453  15.563   9.912   9.543 -0.2767  0.1637  0.2045
89463W        W32454  13.285   7.237   3.646  0.0717 -0.1965  0.0416
89464W        W32455  28.149   6.160   7.931 -0.0207 -0.0297 -0.2289
89465W        W32456  11.457  13.724   1.209  0.0159 -0.1283  0.1533
89466W        W32457   4.881   0.395   3.762  0.2090  0.0974  0.1072
89467W        W32458  21.725  11.845   4.966  0.0565 -0.0761 -0.3512
89468W        W32459  15.366  27.074   6.811 -0.2223  0.1001  0.0737
89469W        W32460  14.772  16.789  27.930  0.1396 -0.1289  0.0263
89470W        W32461  14.486   4.481   8.969  0.3117  0.0578 -0.0839
89471W        W32462  10.792  28.597   7.304  0.1768  0.0263 -0.0283
89472W        W32463  19.392  29.069  15.253 -0.2398  0.1840 -0.0043
89473W        W32464  34.631   3.384   2.804  0.0439  0.1298  0.1203
89474W        W32465   8.843   5.282   9.019 -0.1076 -0.0157  0.0695
89475W        W32466  22.884   2.534  27.433 -0.2023  0.1157 -0.2277
89476W        W32467  13.470  25.205  28.911  0.0377  0.1064 -0.1613
89477W        W32468  28.008  27.112   3.132  0.0805  0.0236 -0.0278
89478W        W32469  29.312  13.785  17.538 -0.4453  0.1994  0.0566
89479W        W32470  10.158   4.174   8.552  0.1027 -0.0511  0.0079
89480W        W32471   6.023   0.329  22.944 -0.0778  0.2349 -0.1211
89481W        W32472  17.826  33.950  26.345  0.1553 -0.1548 -0.1749
89482W        W32473  30.537  11.296   9.487  0.3303 -0.4578 -0.2335
89483W        W32474   7.924   6.565   7.290  0.1156  0.4533 -0.2488
89484W        W32475  14.923   6.641  27.824  0.0638 -0.1051 -0.1934
89485W        W32476  20.731   5.151  14.755 -0.1883 -0.1451  0.1621
89486W        W32477  27.751  15.388  27.535  0.0653 -0.2046  0.0843
89487W        W32478  32.805  19.905   0.899  0.0143 -0.1992  0.0805
89488W        W32479  27.145   1.739  24.074 -0.0802 -0.1060 -0.0944
89489W        W32480  19.661  10.847  26.849 -0.0153 -0.1101 -0.0867
89490W        W32481  20.030   3.113   1.530 -0.1259 -0.1994  0.0147
89491W        W32482   5.433  13.562   6.600  0.2996  0.2414 -0.0470
89492W        W32483  22.124   4.386   3.569  0.1701  0.1914 -0.0260
89493W        W32484   7.356   6.893   3.911  0.0001 -0.0432 -0.2864
89494W        W32485  11.448  15.003  10.034  0.0140 -0.0269  0.1667
89495W        W32486  31.290  11.518   9.258 -0.3650 -0.0313  0.2109
89496W        W32487  19.020  32.030   8.077  0.1386 -0.0596  0.0202
89497W        W32488  18.436  25.910  25.079  0.1371 -0.1392 -0.0767
89498W        W32489  15.135  26.690  26.094  0.2581 -0.3721  0.1253
89499W        W32490  14.325  30.569   9.951 -0.0641  0.0967  0.2180
89500W        W32491  14.644  20.237  28.226 -0.1703 -0.1392 -0.1895
89501W        W32492  24.649  22.770  19.470 -0.1140 -0.1128  0.3473
89502W        W32493   1.568   5.519  21.552 -0.0527 -0.0475  0.1757
89503W        W32494  33.554  23.758  23.942 -0.0931  0.1098  0.0700
89504W        W32495   4.341   9.901   9.918  0.0209  0.2289 -0.1476
89505W        W32496  34.596  34.150   2.309 -0.0336  0.0342  0.1677
89506W        W32497  19.059   5.980   2.085 -0.0741  0.0874  0.2273
89507W        W32498   0.506  13.133   1.257 -0.1640  0.0002 -0.0025
89508W        W32499  14.941  24.384  26.666 -0.1282 -0.3372 -0.1700
89509W        W32500  21.041   9.122   9.024 -0.2747 -0.0387  0.2664
89510W        W32501  17.726   4.511   8.256  0.0960  0.0336 -0.1096
89511W        W32502   4.323  12.033  28.190  0.0158  0.2863  0.1653
89512W        W32503  15.121  23.584   0.733 -0.0400 -0.2057  0.0651
89513W        W32504   2.727   5.790  10.819 -0.1373  0.0419 -0.0260
89514W        W32505  24.489  23.618   0.265 -0.0138 -0.2268  0.0342
89515W        W32506  18.846  15.144   4.765 -0.5264  0.2456  0.1814
89516W        W32507  17.512   2.789  17.936 -0.1239  0.3006 -0.1499
89517W        W32508  10.877  14.986   1.452  0.1685 -0.1820  0.0125
89518W        W32509  24.287  26.050  25.096  0.0150 -0.1414  0.4679
89519W        W32510  15.097   8.393  18.232 -0.1156  0.1014  0.1257
89520W        W32511  14.201   8.981  22.719 -0.0941 -0.1723 -0.1183
89521W        W32512  26.352  28.212  20.660  0.0305 -0.0649  0.1721
89522W        W32513  16.501   9.792   2.389 -0.0237  0.0551  0.0281
89523W        W32514  11.093  20.358  16.365  0.1180 -0.2754 -0.0846
89524W        W32515  16.127   9.470   6.382  0.0130  0.3886  0.0000
89525W        W32516  28.626  14.932   3.436 -0.0787  0.1355  0.0938
89526W        W32517  22.037  31.724   6.398  0.0282 -0.1527  0.2973
89527W        W32518  29.069   8.319   9.479  0.1624 -0.0598 -0.0016
89528W        W32519  20.910   2.308  28.800 -0.0676  0.1722  0.0368
89529W        W32520  10.182  31.888   0.411 -0.1721  0.1232  0.0184
89530W        W32521  20.825   2.208  23.490  0.1530  0.0751  0.2268
89531W        W32522  19.536  10.499  24.918  0.0424 -0.2060 -0.0098
89532W        W32523  21.273  21.358  24.929 -0.0902  0.0732  0.2595
89533W        W32524  21.432  28.856  29.154 -0.0628  0.0721  0.1933
89534W        W32525   0.585   8.245  15.807  0.0278  0.1539  0.1076
89535W        W32526  17.486  10.036   5.961 -0.0225 -0.0979  0.0186
89536W        W32527  11.215   8.664   9.235  0.0316 -0.0022 -0.4341
89537W        W32528  11.841  12.893  22.557 -0.0091  0.0840  0.0371
89538W        W32529  15.007  15.650   3.363  0.1903 -0.1374  0.0374
89539W        W32530  34.492  21.242   2.416  0.1968  0.2912  0.0748
89540W        W32531  16.682   0.859   1.459 -0.2956  0.2195 -0.0879
89541W        W32532  18.002  13.263  24.312  0.0477 -0.1035  0.0497
89542W        W32533  21.914  26.805  13.505  0.1626 -0.3395  0.1556
89543W        W32534   3.343  19.691   0.730  0.3524 -0.0544  0.0315
89544W        W32535   6.538   1.040   9.188  0.3574 -0.0182 -0.3363
89545W        W32536  17.272  33.608   8.417 -0.0383 -0.0901 -0.0538
89546W        W32537  20.746  29.473  22.593 -0.0698  0.1758  0.2219
89547W        W32538  17.328  25.153   1.332  0.1649 -0.0959  0.0657
89548W        W32539  16.524   0.594  15.457 -0.0173 -0.4016 -0.2815
89549W        W32540  11.783  11.845  24.419  0.0259  0.1316 -0.0343
89550W        W32541  21.403  11.511   7.439  0.4960 -0.1881  0.1630
89551W        W32542   2.101   8.854  28.956  0.0585 -0.1229  0.0078
89552W        W32543   3.206   6.582   1.519 -0.0248  0.0063  0.1104
89553W        W32544  26.640   5.559   7.028  0.2235  0.1910  0.2246
89554W        W32545  25.528  13.765  28.102 -0.1592  0.0048  0.0413
89555W        W32546   7.177   0.553  28.343  0.0549 -0.0501 -0.0650
89556W        W32547  19.991  13.968   5.936 -0.0900 -0.1262 -0.1449
89557W        W32548   9.653   4.977   6.123  0.0382 -0.2294 -0.0925
89558W        W32549  13.861   8.669  16.709 -0.2873 -0.4086 -0.0598
89559W        W32550  23.903  25.109  24.178 -0.2163 -0.2146  0.4519
89560W        W32551  12.435   5.905   6.980 -0.1136 -0.2064 -0.2785
89561W        W32552   0.368  28.537  26.998  0.0460  0.2232 -0.4140
89562W        W32553  22.032  30.253  15.883 -0.2221 -0.1185 -0.1051
89563W        W32554   6.583  20.116   1.223 -0.1221  0.2446 -0.4070
89564W        W32555   4.010  32.799  28.143  0.0950  0.0213  0.1194
89565W        W32556  17.375  28.203  14.641  0.0831 -0.2408  0.0539
89566W        W32557  16.173   8.165   6.057  0.2188  0.2772  0.0945
89567W        W32558   3.503  33.683  22.957 -0.3517 -0.1733  0.0164
89568W        W32559   8.046  22.858  26.778  0.0097  0.4157  0.1952
89569W        W32560   9.110  14.024  22.165  0.0747 -0.1254 -0.2806
89570W        W32561  13.898  24.118  18.738 -0.1948 -0.1576  0.0469
89571W        W32562  22.800   5.328   9.112 -0.1886 -0.0978  0.1252
89572W        W32563  18.558  24.970   4.569 -0.0519 -0.1407 -0.0936
89573W        W32564   3.019  34.394   8.111 -0.2244 -0.2106 -0.2523
89574W        W32565  28.421  12.545   5.733 -0.1924  0.2435 -0.3825
89575W        W32566  15.409   1.679  24.950  0.1760 -0.2756  0.1439
89576W        W32567   8.943  22.498  24.962  0.0820 -0.1381 -0.4391
89577W        W32568   5.014  23.386  28.365  0.0320  0.0408 -0.0446
89578W        W32569  12.961  12.418  24.818 -0.1957  0.3033 -0.1292
89579W        W32570  23.289   4.122  16.455 -0.0784  0.1103 -0.1682
89580W        W32571   4.471  19.783   4.479 -0.0058  0.0830 -0.2400
89581W        W32572  10.071  29.816  23.260 -0.0458  0.0488 -0.1002
89582W        W32573  15.144   9.872   0.475 -0.1028 -0.1619  0.0885
89583W        W32574  29.112  29.448  17.037 -0.0404 -0.3694  0.0575
89584W        W32575   9.443  10.302  10.968  0.0931 -0.2357  0.1899
89585W        W32576  13.716  20.434   7.680  0.0408 -0.4092 -0.0269
89586W        W32577  23.549  32.973   8.445  0.1565 -0.1683 -0.0382
89587W        W32578   8.034  10.532  19.087 -0.1429 -0.1149  0.2830
89588W        W32579  22.235  17.309  16.150  0.1233 -0.0093  0.0592
89589W        W32580  23.022   0.171  28.345  0.2475 -0.1380 -0.3767
89590W        W32581   6.636  28.700  18.952  0.1070 -0.0024  0.1079
89591W        W32582  18.090  27.844   6.843  0.0590 -0.0598 -0.3899
89592W        W32583  20.286   3.114  19.757 -0.0521  0.0141 -0.1780
89593W        W32584  26.080  22.744  24.068 -0.1833 -0.2887 -0.1603
89594W        W32585   5.130  12.905  23.483 -0.0042 -0.1083  0.3211
89595W        W32586  14.403   6.664   3.306  0.1692 -0.0030 -0.2354
89596W        W32587   8.064  32.185  10.376 -0.1122  0.0605  0.2107
89597W        W32588   7.421   8.140   2.119  0.0073 -0.2058 -0.0517
89598W        W32589  24.783   5.648   1.127  0.2652  0.1050  0.2118
89599W        W32590  10.256  12.711   3.545 -0.4798  0.1915  0.0581
89600W        W32591  21.291  32.158   2.157 -0.3729  0.0570 -0.1621
89601W        W32592  10.236  17.930   3.322  0.0361 -0.0069 -0.1449
89602W        W32593   7.002  26.020   2.837 -0.0375  0.0244  0.2460
89603W        W32594  19.645  23.623  22.262  0.3225 -0.1637  0.1960
89604W        W32595   9.804  16.996  23.697  0.1538  0.0137 -0.2391
89605W        W32596  27.354  13.395  23.031 -0.0614  0.1372 -0.0585
89606W        W32597   2.512   8.193  24.062  0.1417  0.2140 -0.0260
89607W        W32598   2.542   0.402  26.204 -0.2073 -0.0108  0.3529
89608W        W32599  21.032   0.523   4.428 -0.1181  0.0351  0.0136
89609W        W32600  22.067   1.118  17.822  0.0625 -0.3516 -0.0526
89610W        W32601   0.194  29.941   3.027 -0.4804  0.1531  0.0220
89611W        W32602  16.686   2.956  23.603 -0.1805  0.1682 -0.0885
89612W        W32603  31.139   1.887  17.208 -0.0373  0.1472 -0.2286
89613W        W32604  18.866   2.191  24.572 -0.0175  0.0075  0.0615
89614W        W32605  15.166   0.203   8.531 -0.0889  0.1734 -0.2483
89615W        W32606   4.288   6.875  21.497  0.0036 -0.2548 -0.0979
89616W        W32607  10.702   9.820  28.560  0.0039 -0.2183  0.3048
89617W        W32608   6.743  20.803   6.712  0.0404  0.0419 -0.2366
89618W        W32609  11.725  11.809  24.926  0.1966  0.4629 -0.1112
89619W        W32610  12.758   5.497   5.403  0.0054  0.0331 -0.0925
89620W        W32611  12.090  33.734  26.817  0.1127  0.0889  0.1947
89621W        W32612  13.534  34.219   8.908 -0.0537 -0.1884  0.0315
89622W        W32613  16.998   8.094  23.903 -0.1517 -0.1228 -0.1809
89623W        W32614   8.923  13.718  20.896  0.0037  0.0182 -0.2077
89624W        W32615  28.308  18.099   5.709  0.0612  0.1317 -0.2188
89625W        W32616   8.345  33.702  14.723 -0.4922  0.0011  0.1534
89626W        W32617   9.033  12.553  22.415 -0.1685  0.3155 -0.2847
89627W        W32618  13.458  23.721  23.187 -0.1609  0.1604 -0.0411
89628W        W32619  21.742   6.008  23.567  0.5435  0.0030 -0.3007
89629W        W32620  10.161   6.259   9.077 -0.0465 -0.0623  0.3997
89630W        W32621   3.310   5.582  17.343 -0.0300  0.2112  0.3554
89631W        W32622  22.252  24.238   6.475 -0.0700  0.2001 -0.4986
89632W        W32623  17.613   7.167   8.986  0.2639 -0.2739 -0.3101
89633W        W32624   8.968  33.343  11.033  0.2219 -0.1672 -0.2121
89634W        W32625   8.141  24.148  17.908  0.0939 -0.0033  0.1610
89635W        W32626  13.212   7.751  22.606 -0.0572  0.0753 -0.0987
89636W        W32627  13.729  13.294   7.491  0.2343 -0.0622  0.0163
89637W        W32628  13.494   4.968   9.616  0.1167 -0.0943 -0.0907
89638W        W32629  18.513   6.789   3.108  0.0063  0.1997 -0.2130
89639W        W32630  20.795  13.265   4.481  0.0141  0.3721 -0.1982
89640W        W32631  11.361   6.651   6.882  0.2556 -0.1492  0.1673
89641W        W32632   7.278   4.018  18.446  0.4275 -0.1282 -0.0591
89642W        W32633   7.684   3.040   7.099 -0.1393 -0.1398  0.0290
89643W        W32634  30.323  18.175   3.064 -0.1217  0.0850 -0.1882
89644W        W32635  23.162   4.677  13.870 -0.3823 -0.2842  0.2529
89645W        W32636   4.398   4.083   7.583  0.1330 -0.3062 -0.2769
89646W        W32637   9.462  34.530  21.665 -0.4062  0.0866  0.0081
89647W        W32638  15.901  34.010   3.553  0.3169 -0.1806 -0.0285
89648W        W32639   4.726  13.185   2.241 -0.0362 -0.0738  0.0818
89649W        W32640   5.112   3.392   4.529  0.0270 -0.1623 -0.1199
89650W        W32641  34.514  32.661   7.571 -0.3917  0.0428  0.0359
89651W        W32642  10.235   2.053  25.364 -0.1526  0.3785 -0.1776
89652W        W32643  11.093   7.743   2.507 -0.0672  0.2176 -0.1775
89653W        W32644   3.438   6.927   6.439  0.0105 -0.1221 -0.1434
89654W        W32645   2.717   7.579  21.491 -0.2892 -0.2257  0.0795
89655W        W32646  14.051  31.947  25.819  0.0033 -0.0071  0.0113
89656W        W32647  14.531  16.294   7.050 -0.2274  0.1078  0.1277
89657W        W32648   5.902  17.606  22.093 -0.2422  0.0270  0.2741
89658W        W32649  18.674  22.441  21.915  0.0381 -0.0602  0.1252
89659W        W32650  14.391   6.870  27.648 -0.0583 -0.0096 -0.1593
89660W        W32651  11.167  16.785   4.146 -0.2047  0.0193 -0.3500
89661W        W32652   3.274   3.657  25.343 -0.0548 -0.0038  0.1665
89662W        W32653  26.283  23.617   9.588 -0.0675  0.0144 -0.0837
89663W        W32654  14.654  33.493   6.004  0.2383 -0.1414  0.1076
89664W        W32655  17.127   0.666   7.176  0.0649 -0.2502 -0.3430
89665W        W32656  13.489  16.526   1.322  0.1340 -0.0998 -0.0267
89666W        W32657   2.510  11.770   8.717  0.1596 -0.4475 -0.1077
89667W        W32658   9.475  15.181   4.413  0.1011  0.2924  0.0723
89668W        W32659   4.093  27.772   4.950 -0.2627 -0.1409  0.1911
89669W        W32660  10.968  24.744  28.924 -0.2027  0.0458  0.2303
89670W        W32661   6.506  24.446   2.917  0.2453  0.3262  0.2188
89671W        W32662   8.941   2.923   3.478 -0.2047 -0.0628  0.1615
89672W        W32663   1.151  24.388   2.290 -0.0009  0.1245 -0.1026
89673W        W32664  21.949  17.178   2.552 -0.4118  0.0522 -0.1672
89674W        W32665  33.654   4.857  21.006 -0.0719 -0.0679 -0.3000
89675W        W32666  11.721  30.688  17.072 -0.1579 -0.2948  0.0538
89676W        W32667  22.285  10.857  28.308 -0.1431  0.0707 -0.1335
89677W        W32668  16.534   1.391   2.835 -0.0411  0.1917  0.1297
89678W        W32669  16.282  33.139  26.588 -0.2638  0.0794 -0.1342
89679W        W32670   8.763   1.128  24.367 -0.2525 -0.1124  0.2987
89680W        W32671  25.910   7.728   4.489  0.1888  0.2362 -0.0079
89681W        W32672  27.768   7.935   5.777  0.3639 -0.1331  0.0672
89682W        W32673  16.288  16.480  24.747 -0.1483  0.3459 -0.2111
89683W        W32674  21.237  18.562  22.778 -0.2324  0.1026 -0.1077
89684W        W32675  34.282  13.161   6.107 -0.2849  0.0906 -0.2115
89685W        W32676   2.460  14.343   8.234  0.0091  0.1698  0.5361
89686W        W32677  18.346  30.672   9.244 -0.1606 -0.0230 -0.1781
89687W        W32678   0.000   8.843  14.823 -0.4625 -0.0357 -0.1838
89688W        W32679   9.588  31.139   8.058 -0.1308 -0.0127 -0.1973
89689W        W32680  24.993   5.120  19.870 -0.1565 -0.1100 -0.1793
89690W        W32681  31.538  23.904  15.820 -0.0122  0.0456 -0.0820
89691W        W32682   3.060   0.547   6.500  0.0174  0.2669  0.1025
89692W        W32683  13.561  13.147   4.931 -0.1988  0.0800 -0.1126
89693W        W32684   7.838  30.232   3.494  0.2078  0.2251 -0.1468
89694W        W32685   2.612   1.436  22.214 -0.2883 -0.3320  0.0572
89695W        W32686  16.340  10.996   9.150  0.2284 -0.0485 -0.0697
89696W        W32687  15.248   7.081   8.981  0.1007  0.0954 -0.1790
89697W        W32688  20.878   1.821  20.928  0.5175 -0.1059  0.3661
89698W        W32689  21.262  26.381  26.817  0.1875  0.0174 -0.3922
89699W        W32690  24.950  31.087   5.587  0.1219  0.0522 -0.0838
89700W        W32691  13.383  23.155   3.110 -0.0453 -0.2039 -0.0676
89701W        W32692  11.710   7.937   8.271  0.1573  0.2768  0.4614
89702W        W32693   2.813   9.920  29.124 -0.1477 -0.2629 -0.0963
89703W        W32694  19.885  10.168  27.901 -0.0502 -0.3008 -0.1615
89704W        W32695  18.232  12.798   3.020  0.2153 -0.0936 -0.1112
89705W        W32696  11.026  23.692  20.542  0.1548  0.0194  0.1613
89706W        W32697  22.389   1.600  25.209 -0.2505 -0.0531 -0.0762
89707W        W32698  27.664   2.407   8.243  0.0882 -0.0348  0.1337
89708W        W32699   1.891   0.108   6.381 -0.0769 -0.1568 -0.2362
89709W        W32700  24.612  16.654  17.013 -0.1043  0.1174  0.1163
89710W        W32701  24.207  25.113   3.282 -0.2839  0.0163 -0.0570
89711W        W32702   3.593  18.758   2.724 -0.1201 -0.0282  0.2208
89712W        W32703   0.144  11.692  10.732 -0.0357  0.5542 -0.0771
89713W        W32704  10.289  21.176   5.807  0.0953  0.0668 -0.1939
89714W        W32705  13.472  31.971   8.848  0.1519  0.0673  0.1334
89715W        W32706  30.100   4.070   7.248  0.1008 -0.2721 -0.0548
89716W        W32707   6.448   1.038  10.076 -0.1594  0.1196  0.2410
89717W        W32708  11.064  20.602   2.547 -0.1151 -0.1216  0.1043
89718W        W32709  20.205   9.186   3.919 -0.0978  0.2656 -0.1047
89719W        W32710  28.277  33.727  29.013  0.1420 -0.2127 -0.2106
89720W        W32711  16.024  13.312  25.244 -0.1103 -0.0535 -0.0712
89721W        W32712  27.386  15.862   4.988  0.0011 -0.1195  0.0252
89722W        W32713  23.149   8.524  21.344  0.1340  0.4145  0.1975
89723W        W32714  24.056  23.476   7.890  0.0576 -0.1317  0.1073
89724W        W32715  13.008   9.748  17.318  0.2187 -0.0903  0.0950
89725W        W32716   2.396   8.701   4.792 -0.0895  0.1335  0.1213
89726W        W32717  16.948  11.959  28.026 -0.1694 -0.2199 -0.0340
89727W        W32718  10.071  17.775  26.518 -0.0633 -0.0890  0.0363
89728W        W32719  31.265  14.374   1.483 -0.2622 -0.2165 -0.0935
89729W        W32720  30.475  27.204  24.327  0.0479  0.0739  0.1340
89730W        W32721  24.176   8.353   8.662 -0.0521 -0.2871  0.0369
89731W        W32722  12.423  23.637  29.215  0.0733 -0.1871 -0.1068
89732W        W32723   0.132  22.594   5.847 -0.2557 -0.1105  0.2569
89733W        W32724  10.188  33.023   3.523 -0.4044 -0.0382  0.1250
89734W        W32725  17.802  34.703   7.011  0.1193  0.1385  0.0219
89735W        W32726   9.159  14.420   9.193 -0.0747 -0.0589 -0.0399
89736W        W32727  25.786  19.235  14.413 -0.0490 -0.1362 -0.3625
89737W        W32728  13.521  12.832   1.743 -0.1597 -0.1892 -0.2616
89738W        W32729  12.551   1.236   6.544 -0.0113 -0.0084 -0.1967
89739W        W32730  13.324  19.903  26.329  0.0232 -0.2768 -0.1813
89740W        W32731   1.141  23.168   5.905  0.2394  0.1157 -0.2129
89741W        W32732   8.913  10.550  22.853 -0.1209  0.1868 -0.0706
89742W        W32733  34.523  13.689   1.727  0.1486 -0.0099 -0.1172
89743W        W32734  32.182  21.676  26.344 -0.0501  0.3353 -0.0303
89744W        W32735  11.318   3.159  21.135  0.2911 -0.1173 -0.0783
89745W        W32736  19.967   9.167   8.165 -0.1125  0.2067 -0.1542
89746W        W32737  34.469  11.971   5.561  0.0185 -0.0971 -0.2227
89747W        W32738   8.355  25.891   5.890  0.0385 -0.1124 -0.0289
89748W        W32739   8.253  21.592  28.803  0.0011 -0.0438 -0.0290
89749W        W32740  19.650   0.600  28.566 -0.1624  0.0264 -0.0472
89750W        W32741  17.572  20.629   3.665 -0.1427 -0.2298  0.0563
89751W        W32742  12.564   7.758  19.875 -0.1052 -0.1289 -0.2735
89752W        W32743  14.409   5.056   5.681 -0.0678  0.1102  0.3327
89753W        W32744   1.375  11.555   1.345  0.1348 -0.1654 -0.0261
89754W        W32745  14.271  11.361  10.484 -0.2509 -0.1789 -0.3493
89755W        W32746   4.810  25.879  18.753  0.1762 -0.0060  0.3473
89756W        W32747  16.513  32.047  17.243  0.1699  0.1930  0.0316
89757W        W32748  20.058   8.924  20.193 -0.2483 -0.3510  0.0235
89758W        W32749  20.051   8.132   0.434  0.2271  0.0211 -0.0480
89759W        W32750  15.664  13.573   7.994 -0.1704 -0.1756  0.0309
89760W        W32751  11.108  18.893   6.812  0.2319 -0.1258  0.0297
89761W        W32752  27.761   7.584   6.164 -0.1451 -0.0874  0.2669
89762W        W32753  17.150   7.084  24.890 -0.0370  0.1819  0.2342
89763W        W32754   4.729   5.193  10.827  0.0585 -0.0684  0.1321
89764W        W32755  13.545   2.912  23.497  0.4270  0.1780  0.0140
89765W        W32756  18.359  34.214  13.923 -0.1681 -0.1844 -0.2777
89766W        W32757  33.221   6.548  26.425  0.1173 -0.0511 -0.0427
89767W        W32758  23.778  12.484   1.429  0.3061  0.2571 -0.5047
89768W        W32759  14.400   5.288   3.338  0.1770  0.1071 -0.1066
89769W        W32760  18.949  14.112   8.934 -0.2609  0.0963 -0.2846
89770W        W32761  14.661  26.168  26.910 -0.1470 -0.0314  0.1686
89771W        W32762  19.145  13.238   9.082  0.3521  0.0766  0.2288
89772W        W32763  23.110   2.721   2.824 -0.0632 -0.1880 -0.0012
89773W        W32764   1.725   7.188   7.092  0.0494 -0.1070  0.1876
89774W        W32765  17.019  19.142  27.253 -0.3182 -0.1287 -0.1192
89775W        W32766  23.308  19.061  27.478 -0.0254 -0.0215 -0.3707
89776W        W32767  25.565  12.113   0.940  0.0099 -0.1376  0.2227
89777W        W32768  17.424  21.197   8.070  0.0760 -0.0195  0.2555
89778W        W32769   3.191   5.157   4.468 -0.0329  0.1624 -0.1224
89779W        W32770   0.821  34.413  15.893 -0.0222  0.0066  0.1925
89780W        W32771   7.876   6.919   3.918 -0.0782  0.1141 -0.2673
89781W        W32772  13.102  20.267   1.238  0.0820 -0.1610  0.0416
89782W        W32773  30.321   3.995  27.393 -0.0389  0.1185  0.1140
89783W        W32774  28.544   4.601  23.795  0.3949  0.0946  0.1576
89784W        W32775  17.444  14.103  27.053 -0.2268  0.2072  0.2062
89785W        W32776  16.331  11.165   0.785  0.1733  0.1611  0.0094
89786W        W32777  18.391   4.599   0.851 -0.3120 -0.0388  0.0358
89787W        W32778  11.809   7.270  17.302  0.1005  0.0918  0.1488
89788W        W32779  13.671  28.788  16.955  0.3032 -0.1664 -0.4767
89789W        W32780   9.173  11.772  24.742 -0.1646 -0.0550 -0.1576
89790W        W32781   8.307   8.714  20.940 -0.2261 -0.0283  0.0750
89791W        W32782   6.808   6.146   2.434 -0.3741  0.1034 -0.1085
89792W        W32783  20.014   7.744   3.488  0.1610 -0.2118  0.1033
89793W        W32784  18.964  29.208   1.558 -0.1944 -0.2071 -0.1158
89794W        W32785   1.080  34.181  25.783  0.1347  0.0998  0.0215
89795W        W32786  12.753   5.974   5.410 -0.2406 -0.3051 -0.1149
89796W        W32787  27.921  31.736  26.150  0.0216  0.1584 -0.0549
89797W        W32788  10.755   4.365  24.250 -0.1180 -0.1092  0.4150
89798W        W32789  31.562   6.945  19.924  0.0757 -0.0017  0.2020
89799W        W32790  21.028  31.309   4.196  0.2909  0.0068 -0.1964
89800W        W32791   1.800  15.071   0.347 -0.1575  0.1036 -0.0995
89801W        W32792  17.049  27.823  16.275 -0.0472 -0.0127  0.0215
89802W        W32793  23.813   6.356  22.354 -0.4069  0.0312  0.0713
89803W        W32794  26.005  26.384   6.378  0.0936 -0.2682  0.1814
89804W        W32795  14.079  13.082  26.337  0.3209  0.0680 -0.2039
89805W        W32796  16.432  24.764   4.482  0.0407  0.0983 -0.1750
89806W        W32797   5.361  15.283   9.958 -0.1676  0.2411  0.0394
89807W        W32798   9.750   3.250  26.974 -0.0803  0.0903  0.2153
89808W        W32799  11.429  31.052   9.306  0.1293 -0.1393  0.1291
89809W        W32800  22.490   0.080   4.096  0.0480 -0.1483 -0.0579
89810W        W32801  21.291  14.679   8.200 -0.0760 -0.0730  0.0199
89811W        W32802  30.657  18.932   3.850  0.0417 -0.2543  0.0244
89812W        W32803  19.240  32.468   6.361 -0.0285 -0.2154  0.1900
89813W        W32804  13.236  11.764   9.258  0.2216  0.1244  0.1153
89814W        W32805   2.630  30.383  28.179 -0.2068  0.1227  0.0843
89815W        W32806  29.118  10.306   6.973  0.4224  0.0506 -0.0167
89816W        W32807  17.056  11.743   4.868 -0.1549  0.0850 -0.0473
89817W        W32808  14.054  18.804  13.223  0.1307  0.1229  0.0658
89818W        W32809  11.879   5.331   9.535  0.0629  0.1046  0.0071
89819W        W32810  21.239   2.582  25.202  0.2385  0.0073 -0.0076
89820W        W32811   7.128  11.022   4.088  0.1872  0.0917  0.0036
89821W        W32812  29.409  34.122   3.120  0.1131 -0.1671 -0.3853
89822W        W32813  29.598  30.472   0.442 -0.1384 -0.0196 -0.0596
89823W        W32814  11.972  11.718  26.935 -0.2916 -0.2657  0.0747
89824W        W32815   9.755  28.697   1.188  0.1796 -0.2653 -0.1948
89825W        W32816  33.885  13.437  24.574 -0.1316  0.0299 -0.1382
89826W        W32817  11.988   3.113  21.813 -0.0422 -0.1221  0.3668
89827W        W32818  18.560  11.976  27.470  0.0825 -0.2826  0.3711
89828W        W32819  27.258  14.189  25.293 -0.1750  0.2752  0.1190
89829W        W32820   9.186   0.240  15.570 -0.1916  0.2485  0.2813
89830W        W32821  19.806  16.397   2.073 -0.0884 -0.0056  0.1769
89831W        W32822   3.041   5.617   9.413 -0.1201 -0.2211  0.4456
89832W        W32823  28.421  29.071  25.317 -0.2139 -0.0031  0.0335
89833W        W32824   8.566   6.330  22.666 -0.2091  0.1472  0.1194
89834W        W32825   2.829  24.934   9.315 -0.0934  0.3523  0.1142
89835W        W32826  13.553   0.504   1.444 -0.2236  0.3578 -0.0284
89836W        W32827   5.436  13.936  26.075 -0.0451  0.0316 -0.0076
89837W        W32828  12.393  15.397   3.292  0.0251 -0.0645  0.0510
89838W        W32829  30.184  17.275   8.941  0.3010 -0.1592 -0.2087
89839W        W32830   2.907  14.722   0.725  0.4622 -0.0138  0.1118
89840W        W32831  16.197  12.408  25.709  0.1480  0.1614  0.0453
89841W        W32832  31.745  19.157   6.602  0.3491  0.0400 -0.2270
89842W        W32833   9.452  31.420  18.760 -0.1687 -0.1140  0.0546
89843W        W32834   0.496   3.199  14.588 -0.0556  0.0135 -0.2183
89844W        W32835  10.734  14.438  19.694 -0.2953  0.1102  0.3495
89845W        W32836  14.704   3.308  22.558 -0.3697  0.0175  0.0095
89846W        W32837   7.253  31.349   9.006 -0.2744 -0.0564  0.0578
89847W        W32838   7.448  27.558   4.168  0.0819 -0.0813 -0.3000
89848W        W32839   3.088  14.461  27.085 -0.2549  0.0536  0.0166
89849W        W32840  31.029   2.664   7.680  0.0030 -0.3067  0.0251
89850W        W32841  11.393  11.542  19.605 -0.0160  0.4124 -0.1227
89851W        W32842  28.041   6.796  24.865 -0.0237 -0.0533 -0.2056
89852W        W32843   7.105   3.131  17.641  0.1728  0.0379 -0.0678
89853W        W32844  26.060  28.003   4.974 -0.0028  0.0403  0.0138
89854W        W32845  24.593   9.268   9.786  0.1168  0.0758  0.0233
89855W        W32846   1.713   6.820  20.985  0.0323  0.0573  0.4627
89856W        W32847  14.941  11.998  24.836 -0.3203  0.1711  0.2083
89857W        W32848  16.838  26.173  21.396 -0.1433 -0.0783  0.1724
89858W        W32849  19.030  28.261   7.889 -0.1112  0.1085 -0.2348
89859W        W32850  25.593  25.443   8.824  0.0051  0.2191  0.0400
89860W        W32851   4.729  12.040  14.936 -0.2163  0.0858 -0.1266
89861W        W32852   9.058  19.261  13.871 -0.0379  0.0186 -0.2637
89862W        W32853  19.787   4.139   8.000  0.0540  0.0133  0.0239
89863W        W32854  25.678  34.152   7.490 -0.3141 -0.0495  0.0260
89864W        W32855   4.841   8.332  23.137  0.2335 -0.0251  0.3406
89865W        W32856  20.831  16.858   7.210 -0.0618 -0.0204 -0.0182
89866W        W32857  12.415  15.782   9.758  0.0007 -0.0199  0.0123
89867W        W32858  18.526   3.898  23.110 -0.0487  0.2982 -0.1046
89868W        W32859   9.595   4.583   1.458 -0.0808  0.1591 -0.3809
89869W        W32860  17.311   6.750  21.065  0.0709  0.0371 -0.1337
89870W        W32861   1.409  30.518  19.836  0.0180 -0.2015 -0.0069
89871W        W32862   8.325  24.738   9.601 -0.1640  0.2243 -0.0407
89872W        W32863  22.430  20.365  17.370 -0.2021 -0.0006 -0.1975
89873W        W32864  16.229  10.220   3.196 -0.1231 -0.5273  0.1230
89874W        W32865  20.147  10.082   3.755  0.0164  0.2173 -0.0855
89875W        W32866  11.179   3.306   4.891 -0.1690 -0.2600 -0.3941
89876W        W32867  16.931  15.716   8.836  0.1996 -0.0465 -0.0339
89877W        W32868  13.821  14.370   5.444 -0.0942  0.0752 -0.0816
89878W        W32869  16.146  28.330  24.054 -0.0055 -0.0661 -0.0984
89879W        W32870  33.577   2.638   7.256  0.1968 -0.1208  0.0010
89880W        W32871  12.551  32.000  16.633 -0.0834  0.2763  0.1132
89881W        W32872  13.055  26.606   9.750  0.1308 -0.1310  0.0858
89882W        W32873   2.177  12.414   2.736  0.1765  0.0952 -0.0973
89883W        W32874  24.288  11.328  27.122  0.1279  0.1535  0.0534
89884W        W32875  10.715   5.445   7.712  0.0647 -0.1492 -0.0174
89885W        W32876  13.198  33.077   0.426  0.1919  0.0095 -0.1096
89886W        W32877  29.270  11.636   0.721  0.3587  0.1809  0.0343
89887W        W32878  28.346   7.872  22.536 -0.0220  0.2820  0.0198
89888W        W32879  10.854  26.415   8.825 -0.2677  0.0697 -0.3979
89889W        W32880  18.869  18.936  28.257  0.1083 -0.1775 -0.3088
89890W        W32881  11.271   2.378   5.008 -0.0323  0.1517  0.0457
89891W        W32882  15.953   1.284   0.778  0.0599  0.1722  0.2353
89892W        W32883  14.786  24.016   9.605 -0.1524  0.1089  0.3105
89893W        W32884   5.947  21.097   6.963 -0.4844 -0.1506 -0.0799
89894W        W32885  15.080   6.898   9.973  0.1186  0.2315 -0.3098
89895W        W32886  16.740   6.976   7.645 -0.0752 -0.1236  0.2245
89896W        W32887   3.320   7.483  27.598  0.1883 -0.1750 -0.2022
89897W        W32888  19.400   2.955  28.047 -0.1667 -0.1599 -0.0881
89898W        W32889  17.624   0.106  27.634 -0.0072 -0.0485 -0.0181
89899W        W32890  18.152   8.262   5.584 -0.0986  0.1683  0.0926
89900W        W32891  26.801  10.094   9.511 -0.0836 -0.1282  0.1238
89901W        W32892   7.860  16.551   6.600 -0.3317 -0.2084 -0.1428
89902W        W32893  11.321  30.316  21.943 -0.1018  0.0134 -0.0101
89903W        W32894   9.749  21.545   2.316 -0.3044 -0.0991  0.2926
89904W        W32895   5.624   7.369   6.549  0.0456  0.0717 -0.1326
89905W        W32896   7.628  12.622   2.344  0.1016 -0.3580  0.3471
89906W        W32897  11.093  26.489  21.287  0.1093 -0.0128  0.1424
89907W        W32898   8.736   9.187   6.400  0.1102  0.1942 -0.0252
89908W        W32899   6.283  30.899   6.408 -0.2328  0.1608  0.4579
89909W        W32900  18.726  18.855   3.062 -0.4226 -0.2647 -0.0836
89910W        W32901   5.473  34.229   4.949  0.4252  0.0801  0.0070
89911W        W32902  30.037  15.963   4.833 -0.1436  0.2872 -0.0924
89912W        W32903  21.727   4.392   8.203  0.0862  0.0680  0.1190
89913W        W32904  11.386  34.707   5.452 -0.1039 -0.1477 -0.5237
89914W        W32905   7.809  10.431  28.600 -0.1157 -0.2841  0.3414
89915W        W32906  14.077  10.448   0.613 -0.1200 -0.1585  0.0495
89916W        W32907  23.315  11.629   6.725 -0.1035  0.1724 -0.1419
89917W        W32908  14.083   8.637  11.093 -0.0830 -0.2352  0.4540
89918W        W32909  14.832   2.250   3.465  0.0392  0.1982  0.1480
89919W        W32910  15.186   9.588   9.832  0.1615 -0.1331  0.1849
89920W        W32911  12.385   2.018   6.077 -0.1483 -0.2700 -0.0852
89921W        W32912   1.240   9.921   6.471  0.2437  0.2990 -0.2710
89922W        W32913  20.896  19.542  20.875 -0.0912  0.1127 -0.1743
89923W        W32914   8.458  31.895  24.615 -0.0248 -0.1061  0.0138
89924W        W32915  19.768  18.476   1.747  0.3755  0.0804  0.4235
89925W        W32916  23.149  21.061  19.739  0.1374 -0.0330  0.3991
89926W        W32917  17.550  10.595   8.710  0.1665  0.0847 -0.3675
89927W        W32918   6.417  18.203   5.892 -0.1295  0.0361 -0.0037
89928W        W32919  13.838   7.480   7.931  0.0742 -0.0387 -0.3001
89929W        W32920   7.144  25.034  28.969 -0.1073  0.1511 -0.0856
89930W        W32921   3.829  13.374  23.817  0.0090  0.0167  0.1308
89931W        W32922  21.845  20.129   4.272 -0.1908  0.1352  0.1501
89932W        W32923  21.519   4.703   9.857 -0.0509 -0.1359  0.2551
89933W        W32924  33.853   4.639   7.224 -0.1035 -0.0811  0.0323
89934W        W32925   9.320  34.077   9.746 -0.3836  0.2133  0.5606
89935W        W32926  11.478  15.354   6.539  0.0001  0.0207  0.0931
89936W        W32927  18.622  17.030   3.355 -0.0480  0.0606  0.3237
89937W        W32928  20.718   2.749  28.909  0.0821  0.2271  0.2971
89938W        W32929  11.696  19.942   2.443 -0.0666 -0.0394 -0.1141
89939W        W32930  19.530   2.410   2.901 -0.3142 -0.1991  0.1188
89940W        W32931   9.141  15.530   4.251 -0.3557 -0.0935  0.2319
89941W        W32932  29.294  17.966   5.905  0.1888  0.3867  0.1850
89942W        W32933  14.354  10.753  18.156 -0.1663 -0.3594 -0.0073
89943W        W32934  18.437   9.435   9.069 -0.1629  0.0781 -0.0351
89944W        W32935   7.445   6.260  24.281 -0.0682 -0.0275  0.0692
89945W        W32936   8.440  10.904   0.793  0.1219 -0.0870  0.1562
89946W        W32937  30.574  30.590  21.806  0.1284  0.0163 -0.1460
89947W        W32938  34.744  17.044   1.295  0.2829 -0.3194  0.1915
89948W        W32939  12.329   8.253  26.571  0.3330  0.0048 -0.1060
89949W        W32940  32.230  20.038  17.258 -0.1396  0.0036  0.0892
89950W        W32941  22.153   6.418   4.181 -0.4115  0.2567 -0.0937
89951W        W32942  10.062  16.438  28.070 -0.1175  0.3352 -0.0257
89952W        W32943  16.993  14.089   1.002 -0.2644  0.1235  0.3214
89953W        W32944   5.254  22.337  27.532 -0.1944  0.0416  0.0564
89954W        W32945  15.129  10.903   3.003  0.0570 -0.2294 -0.2543
89955W        W32946  32.606   3.928   8.270 -0.1625  0.0295 -0.0400
89956W        W32947   9.859  22.242   9.513  0.1593 -0.2590  0.0897
89957W        W32948   0.461  24.762  27.598 -0.0416 -0.1505 -0.0183
89958W        W32949   9.786  13.372  24.056  0.0148  0.1091 -0.0585
89959W        W32950   4.559  24.101   7.591 -0.2226  0.1658 -0.0757
89960W        W32951  33.407  28.544  18.685  0.1007 -0.0859  0.0151
89961W        W32952   8.870  13.552   8.705 -0.2728  0.0098  0.2510
89962W        W32953  18.379  16.128   4.635 -0.2567  0.1617  0.0931
89963W        W32954  32.398  18.794   3.214  0.3697  0.1977 -0.3554
89964W        W32955  33.826   6.859   3.935 -0.1137  0.1588  0.1091
89965W        W32956  33.967   1.999  24.190  0.0869 -0.2144 -0.0719
89966W        W32957   5.368  27.528   3.267  0.1515 -0.0976  0.1712
89967W        W32958  17.803  11.758   8.349 -0.0062 -0.0651 -0.1217
89968W        W32959  20.119  31.668   7.602 -0.2712  0.0453 -0.3453
89969W        W32960  20.123  24.053   4.690 -0.1948  0.0349 -0.1295
89970W        W32961  30.838   6.739  15.315  0.0907 -0.0349 -0.3277
89971W        W32962   8.474   5.236   8.452  0.5100 -0.2544  0.1849
89972W        W32963  32.917   6.138  27.911 -0.2174 -0.1326 -0.0563
89973W        W32964  13.530  24.723  28.300  0.0543  0.0737 -0.2142
89974W        W32965  14.153  18.715   5.303  0.0522  0.2706  0.2803
89975W        W32966  14.861  11.747  25.609 -0.2231 -0.1703 -0.1847
89976W        W32967  19.441  29.082   1.706 -0.0998 -0.1164  0.0256
89977W        W32968  33.782  14.242   8.349  0.2522 -0.1489 -0.1328
89978W        W32969  14.029  19.906  23.167 -0.0825  0.0875  0.1028
89979W        W32970  15.397  30.858   9.216  0.0679 -0.3401 -0.3233
89980W        W32971  11.480   5.546   0.902 -0.1475 -0.0455  0.1465
89981W        W32972   4.955  33.836  21.259  0.0864 -0.2934 -0.0424
89982W        W32973   8.364  18.035   6.831 -0.2137 -0.2087  0.3415
89983W        W32974   6.341  26.401   5.406  0.5087 -0.1641 -0.1879
89984W        W32975  10.627   3.962  18.987 -0.3898 -0.0567 -0.1319
89985W        W32976  24.935   8.841   3.254  0.2010  0.0820  0.1415
89986W        W32977  14.636  12.044   9.393 -0.0882 -0.0406  0.1569
89987W        W32978  10.620  18.779   3.749  0.0573 -0.2238 -0.0874
89988W        W32979  14.622   6.509  11.002  0.2147  0.0626  0.0344
89989W        W32980   5.593  17.397   9.843  0.1601 -0.1744  0.2402
89990W        W32981  30.991  11.999   4.982 -0.1072  0.2894 -0.2150
89991W        W32982   5.584  11.724   6.717  0.2374 -0.1146 -0.3391
89992W        W32983  23.986  30.584   8.151  0.2267 -0.2076 -0.1393
89993W        W32984   9.986   5.452   9.672  0.1956  0.1771  0.0780
89994W        W32985   6.569   8.744   9.181 -0.0384  0.1319  0.0057
89995W        W32986  28.549   2.984   4.818 -0.1593 -0.0270  0.1708
89996W        W32987  22.512  23.131  21.822  0.0947  0.0314 -0.0263
89997W        W32988  10.841  10.671   7.641  0.0539 -0.2488 -0.0309
89998W        W32989   0.812   5.713  25.490 -0.1921  0.1462  0.0336
89999W        W32990   9.223  14.052   2.409 -0.0118  0.1957  0.1574
90000W        W32991  20.108   8.399  22.725 -0.1998  0.0364 -0.1640
90001W        W32992   7.825   0.460  26.277 -0.0070  0.1122  0.1357
90002W        W32993  24.674   8.164   4.409 -0.3165  0.0869 -0.1731
90003W        W32994  13.817  13.933   5.018 -0.0003 -0.1680  0.0329
90004W        W32995  28.137   0.184  17.302 -0.3913  0.1061 -0.2394
90005W        W32996  18.144   9.897   9.875  0.1540  0.2384  0.0069
90006W        W32997   3.408  22.593   7.468  0.1250  0.2160  0.0551
90007W        W32998  12.025   9.856   1.247  0.0234  0.0391 -0.1056
90008W        W32999   5.049  24.828   3.116  0.0557  0.1652 -0.2382
90009W        W33000  25.926  17.729  23.990 -0.3197  0.0167 -0.3113
90010W        W33001   9.996  12.048   9.937 -0.0307  0.1823  0.1152
90011W        W33002  13.058  24.511   6.173 -0.1679  0.0509  0.3199
90012W        W33003  15.261  12.566  28.214  0.2710 -0.0610 -0.2719
90013W        W33004  17.833  15.573  27.979  0.1445  0.1022  0.1763
90014W        W33005  13.769   9.352   8.311  0.4937  0.0939 -0.2179
90015W        W33006  27.334  18.910  28.311  0.0259  0.0640 -0.2043
90016W        W33007   1.735  34.308  16.121 -0.2165  0.1205 -0.0660
90017W        W33008  10.963   4.500  23.592  0.1724 -0.2391  0.0016
90018W        W33009   8.487   9.558  20.530 -0.1446 -0.1584  0.2115
90019W        W33010  26.678  11.673  21.212  0.0580  0.0155 -0.0950
90020W        W33011  31.750  10.777   9.108 -0.2125 -0.3314  0.3320
90021W        W33012   9.048  13.397   4.701  0.0254  0.0623  0.1133
90022W        W33013  12.161  14.351   7.644 -0.0841 -0.4285  0.1279
90023W        W33014  11.278  13.869  26.168  0.0288 -0.2134  0.1620
90024W        W33015  19.257   0.433  23.458  0.2373  0.0595 -0.2248
90025W        W33016  15.558   4.248  29.067 -0.1091 -0.0977  0.3154
90026W        W33017   9.657   4.789   0.685 -0.1174 -0.1624 -0.0614
90027W        W33018   2.889   1.566   8.317  0.3995 -0.1207 -0.1280
90028W        W33019  34.791  15.570  24.684 -0.1045  0.0502  0.1195
90029W        W33020   8.382  29.024  26.963  0.1723 -0.1958  0.3816
90030W        W33021  15.831  17.820   1.378  0.5730 -0.1631 -0.3612
90031W        W33022   8.303  22.630   5.476  0.1041  0.1240  0.1408
90032W        W33023  34.351  19.119  24.652  0.1292  0.1353  0.0021
90033W        W33024   9.382  31.142   9.751 -0.1251  0.2098  0.0262
90034W        W33025   7.641  19.854   9.265  0.0531 -0.1108  0.2554
90035W        W33026  25.648   4.085  25.577  0.0975  0.2044  0.2179
90036W        W33027  25.747   1.532  25.298 -0.1374 -0.1694  0.4789
90037W        W33028  18.593   1.734  10.215  0.0842 -0.2413  0.1151
90038W        W33029  20.033  11.218   5.194 -0.0506 -0.2362  0.0799
90039W        W33030  12.638  10.235   8.181 -0.1784  0.1805  0.0085
90040W        W33031  10.537   2.194  28.223  0.2889 -0.0275  0.0459
90041W        W33032  10.088  16.072   8.533  0.0164 -0.3366  0.2372
90042W        W33033  20.402  25.403   1.307 -0.0323  0.0642  0.0152
90043W        W33034   5.697   5.719  10.622  0.2148 -0.1807 -0.3539
90044W        W33035  30.952  15.668   9.963  0.0559  0.0412  0.2947
90045W        W33036  14.864   0.853   2.006  0.1075 -0.0269  0.1938
90046W        W33037  18.369  11.792   7.006  0.2019  0.2031  0.2156
90047W        W33038  30.273  11.152  22.253  0.0767 -0.1941 -0.1381
90048W        W33039   7.080  26.156   8.283 -0.1308  0.3889 -0.3336
90049W        W33040   2.638  13.071   6.701 -0.1852  0.1396  0.0481
90050W        W33041  34.465   0.279  19.698 -0.1155  0.4179  0.0646
90051W        W33042   9.566   1.251  26.969 -0.3123  0.1500  0.5348
90052W        W33043  19.615  12.801  23.385  0.2922  0.4099  0.2995
90053W        W33044  15.822  22.438   7.755 -0.1824  0.1684  0.1356
90054W        W33045  12.082   8.359  23.771 -0.1794  0.0101  0.1364
90055W        W33046  12.594  14.699   5.103 -0.0231  0.3748 -0.0524
90056W        W33047   2.199  22.256   9.065 -0.0042  0.0886  0.1062
90057W        W33048   6.151  15.544   5.731  0.0910  0.1617  0.0487
90058W        W33049  19.224   3.059   8.273 -0.1462  0.1372 -0.0776
90059W        W33050  21.094  13.486   4.069 -0.3741 -0.0922  0.1985
90060W        W33051  18.962  22.997  21.327  0.0783 -0.1241 -0.1027
90061W        W33052  12.793  34.117   1.308 -0.1662  0.0774 -0.0314
90062W        W33053   6.159  10.028  26.294  0.1500 -0.1748 -0.0880
90063W        W33054   4.334  16.858  11.182  0.0460  0.1092  0.0677
90064W        W33055   6.071  13.085   3.184 -0.0840 -0.1041  0.0244
90065W        W33056  13.128  20.205   4.507 -0.0143 -0.0238 -0.0978
90066W        W33057  33.876   2.439  27.941  0.0268 -0.3282  0.2850
90067W        W33058  11.809  29.443   3.159  0.0484  0.2525  0.0705
90068W        W33059   4.422   3.038  19.728  0.1489 -0.1291  0.2053
90069W        W33060  23.644   9.396  23.326 -0.0630 -0.2034  0.1150
90070W        W33061  21.528  17.650   2.669  0.1790  0.3093 -0.2703
90071W        W33062  23.604  21.624   1.140 -0.0017 -0.1069 -0.0295
90072W        W33063   5.723  16.265   2.759  0.1357  0.0014  0.2851
90073W        W33064  14.264  32.433  27.926  0.1319 -0.2313 -0.2906
90074W        W33065   4.296  25.610   9.601  0.0920 -0.1080 -0.3303
90075W        W33066   2.978  31.212  26.386  0.0601  0.1166  0.3961
90076W        W33067   8.940  14.986   0.005 -0.1445 -0.0434 -0.0301
90077W        W33068   6.857   3.253   6.678 -0.0652 -0.1095  0.0086
90078W        W33069  11.480  12.472  27.336 -0.5844 -0.1251 -0.1490
90079W        W33070   7.150  24.494  26.565 -0.1586 -0.0873 -0.1390
90080W        W33071  23.856   3.524   1.891  0.3568  0.2349  0.0763
90081W        W33072   8.417   6.582   0.784  0.1524 -0.0844  0.1811
90082W        W33073  24.263   9.041   9.425 -0.2418  0.1021  0.1020
90083W        W33074  34.499  21.336   7.167  0.0790 -0.1760  0.0339
90084W        W33075  26.029  28.112  18.238 -0.0983  0.2213 -0.2960
90085W        W33076  17.539   4.070   5.160  0.1096 -0.2409  0.1143
90086W        W33077  12.357  16.598  24.674  0.0139  0.2987  0.0160
90087W        W33078   4.591  10.333   5.151 -0.0184 -0.0574  0.4713
90088W        W33079  32.006   0.632   2.227  0.0048  0.1192  0.2344
90089W        W33080   7.483   3.028   8.877  0.2290 -0.0268  0.0727
90090W        W33081   9.048  26.338   2.531 -0.1095 -0.0422  0.0044
90091W        W33082   5.915  24.851  23.780 -0.0868 -0.3264 -0.1413
90092W        W33083  23.822   3.902   2.714  0.0765 -0.2264  0.0727
90093W        W33084  13.470   4.539   9.353 -0.2091  0.1548 -0.1334
90094W        W33085  13.499  17.747  15.010 -0.0520  0.0093 -0.1655
90095W        W33086  23.456   7.768  26.644  0.2341  0.2502  0.2012
90096W        W33087  20.834   9.189   6.551 -0.1694  0.2202  0.1735
90097W        W33088   5.879  10.795   0.390 -0.2510  0.1666 -0.0673
90098W        W33089   5.500  16.768  12.108 -0.1557  0.1592  0.1449
90099W        W33090  15.217   8.797   0.570  0.0479  0.0782 -0.3590
90100W        W33091   3.107  18.383   0.972 -0.1405  0.0062  0.0841
90101W        W33092  13.773  32.021   9.316 -0.0136  0.0023  0.2293
90102W        W33093  20.481  29.642   6.308  0.3029 -0.0339 -0.0522
90103W        W33094   5.427   6.568   7.258 -0.1911  0.0597 -0.0266
90104W        W33095  19.293  18.762   7.282  0.4113 -0.0891 -0.3033
90105W        W33096   2.553   6.301   3.345 -0.1093 -0.1082 -0.3442
90106W        W33097  10.824  33.264   7.001  0.0200 -0.0523  0.0350
90107W        W33098   0.098  33.565   9.646 -0.0848 -0.2657 -0.1243
90108W        W33099  17.503  33.430   0.366 -0.0667 -0.0058 -0.1585
90109W        W33100   5.736  16.857   7.767  0.0630 -0.0781  0.0493
90110W        W33101  15.738  19.821   8.711 -0.1680 -0.0686 -0.0385
90111W        W33102   2.739  18.687   2.320  0.1419  0.1537 -0.0532
90112W        W33103   4.864  16.067   8.774  0.0539  0.1177 -0.0288
90113W        W33104   1.457   6.991   5.552 -0.3116  0.1271  0.2688
90114W        W33105  17.135  18.120  27.390 -0.0316  0.4886  0.1520
90115W        W33106   7.405  28.035   6.092  0.0630 -0.0212  0.0036
90116W        W33107  15.690  10.269   0.899  0.0605  0.1005 -0.0117
90117W        W33108   9.898  26.791   3.511  0.0403 -0.1857  0.0791
90118W        W33109  16.917   5.553  10.145 -0.3942 -0.0819  0.4038
90119W        W33110  13.121   7.829   1.481 -0.1099  0.0015  0.0635
90120W        W33111  12.322  28.582  25.749  0.0366 -0.1011  0.0056
90121W        W33112   8.754  15.451  10.054  0.0136 -0.1721  0.2773
90122W        W33113  31.310  18.773  22.121  0.1012 -0.0830 -0.1610
90123W        W33114  31.234  12.096   2.476  0.2725 -0.2539  0.1590
90124W        W33115   0.792   2.857   7.807 -0.1508  0.1121 -0.3607
90125W        W33116   8.974   1.272   9.144 -0.2248 -0.3167  0.0442
90126W        W33117  11.307  30.811   5.890  0.2266 -0.0095 -0.1985
90127W        W33118  17.336   7.522  27.718  0.2463  0.1495  0.3242
90128W        W33119  20.103  14.815  25.688  0.0425 -0.1869  0.1735
90129W        W33120  10.533   4.100   6.450  0.2352 -0.0516  0.0749
90130W        W33121   3.594  11.339  28.077  0.0620 -0.0195 -0.2559
90131W        W33122  13.086  13.213   0.580  0.1624  0.0659 -0.0563
90132W        W33123   8.653  12.737   7.145  0.2080 -0.1466 -0.2445
90133W        W33124  18.225   5.193  10.301  0.3462 -0.3273  0.3156
90134W        W33125  29.292   2.112  25.085 -0.0633  0.0218 -0.1129
90135W        W33126   7.726  11.154  10.797  0.1973  0.0731  0.3930
90136W        W33127  19.073  13.217   5.768 -0.4475 -0.1006 -0.1490
90137W        W33128  33.568   8.976  28.807 -0.3791 -0.2901  0.1903
90138W        W33129  18.565  29.731   0.999 -0.2916  0.2726 -0.1136
90139W        W33130  15.279  13.231   8.843 -0.1715  0.0705  0.0276
90140W        W33131   6.357  24.995   3.050  0.0067 -0.0668 -0.1441
90141W        W33132  30.857  23.700   6.237 -0.1218 -0.0661 -0.0197
90142W        W33133  20.763  11.456  10.381  0.2637  0.0379  0.0692
90143W        W33134   8.855   8.894   9.070 -0.0099 -0.2069  0.0930
90144W        W33135   5.967  27.383  23.299 -0.0755 -0.0975  0.1271
90145W        W33136  16.979  11.088   4.320 -0.3145  0.0553 -0.0896
90146W        W33137  11.791  22.654  27.339 -0.1862 -0.1473  0.2315
90147W        W33138  14.253   5.216   8.027 -0.0713 -0.2757 -0.0192
90148W        W33139  34.632  17.268   3.542 -0.2894  0.1526 -0.2762
90149W        W33140  21.542   4.475   8.727  0.1375  0.0821  0.0332
90150W        W33141  16.460  14.191   1.922  0.3197 -0.2030 -0.2368
90151W        W33142  15.150  21.037  18.818 -0.0345  0.1243 -0.3966
90152W        W33143   7.346  21.396  26.239  0.1848  0.0535 -0.0260
90153W        W33144  33.063   0.513  23.795 -0.2168  0.2757 -0.4753
90154W        W33145   8.249  12.648   2.356  0.1513 -0.0859 -0.0739
90155W        W33146  14.344   2.447   8.470  0.1834  0.1646  0.2182
90156W        W33147  10.865  30.810   8.714  0.1406 -0.2525  0.2384
90157W        W33148  19.562  16.954  25.880  0.1269  0.1123  0.2964
90158W        W33149  22.161  16.897   7.202 -0.0865  0.0037 -0.0238
90159W        W33150  29.873   7.745   5.719  0.1671 -0.0052  0.2870
90160W        W33151  21.736   0.299   2.652  0.0293  0.2014  0.1924
90161W        W33152  17.330   7.624   6.092 -0.2773 -0.1598  0.2854
90162W        W33153   7.089  34.177   5.697 -0.0563 -0.1171  0.2526
90163W        W33154  18.683   6.201   6.929  0.1093  0.1856 -0.1276
90164W        W33155   3.583   6.988   9.279 -0.0254 -0.1895 -0.1934
90165W        W33156  34.754  26.552   3.905 -0.0216 -0.3020  0.1787
90166W        W33157   5.751   7.862  20.445 -0.0077 -0.2005 -0.0375
90167W        W33158  15.211   2.721  17.879  0.0696 -0.2719 -0.2556
90168W        W33159  30.336   6.890   6.112  0.1551 -0.1118  0.1041
90169W        W33160  11.922  33.057   7.635  0.0597 -0.1014 -0.1096
90170W        W33161  18.515   2.283   7.079 -0.2189  0.1791  0.2295
90171W        W33162   6.444  15.986  10.071 -0.0939 -0.1247 -0.2419
90172W        W33163  34.726  14.217   4.759  0.3359 -0.0806 -0.0680
90173W        W33164  24.686   0.334  23.677 -0.0109  0.2032 -0.0451
90174W        W33165   1.387  18.510  26.386  0.0892 -0.0697 -0.0820
90175W        W33166  24.750  22.982  18.943  0.1814 -0.3171 -0.1065
90176W        W33167  11.020  14.622  28.895  0.0131  0.2708 -0.4336
90177W        W33168  25.422  29.384   7.780 -0.1008 -0.1405 -0.0147
90178W        W33169  10.034  21.246   9.387 -0.1567 -0.0684  0.3888
90179W        W33170   7.640  12.488   1.359 -0.0101 -0.0559  0.0809
90180W        W33171  11.716   8.330   6.710 -0.2453  0.2726  0.0108
90181W        W33172  16.895  17.326   7.193 -0.0692  0.0212 -0.2142
90182W        W33173  13.937  32.317   7.158 -0.2494  0.0960 -0.4568
90183W        W33174  33.209  25.349  16.733 -0.0520 -0.0298 -0.0515
90184W        W33175   2.925   0.921   2.566 -0.0019 -0.0264  0.2210
90185W        W33176  28.775  11.898  20.706  0.2688 -0.0280  0.0646
90186W        W33177  34.569  22.396   1.657 -0.2848 -0.3049 -0.0651
90187W        W33178  12.776  28.491   9.752 -0.1039 -0.1007  0.1477
90188W        W33179  25.367  26.450   6.584 -0.0779 -0.2641 -0.2340
90189W        W33180   9.368   3.726  10.574 -0.2612  0.1956 -0.1934
90190W        W33181  23.090  10.599   8.695 -0.2867  0.1316 -0.0763
90191W        W33182  19.284  15.137   4.422 -0.1067  0.0788 -0.1138
90192W        W33183   5.233  11.428  10.223  0.3376  0.1016 -0.3483
90193W        W33184  10.029  17.674   4.642 -0.1485 -0.1369  0.2416
90194W        W33185  10.156   3.805  19.891 -0.1657 -0.0364  0.0401
90195W        W33186   4.702   0.045  15.385 -0.1963 -0.0964 -0.0636
90196W        W33187  21.940   2.346  25.327 -0.0573 -0.2991 -0.0974
90197W        W33188   1.558  10.599  18.273  0.0269 -0.0384 -0.2307
90198W        W33189   5.769  33.920   9.294  0.0614 -0.2623  0.4996
90199W        W33190   0.040  11.754   2.316  0.2075 -0.0832  0.0109
90200W        W33191  17.318   8.553   4.164  0.2164  0.1168  0.1641
90201W        W33192  14.794  32.701   9.201  0.0567  0.2179  0.2774
90202W        W33193  14.996   7.547  26.078 -0.0419  0.0937  0.0677
90203W        W33194  30.561   1.951   2.381 -0.1108  0.2079  0.0465
90204W        W33195   9.686  33.718   4.577  0.0857  0.0431 -0.0933
90205W        W33196  12.750   3.306  10.953 -0.1873 -0.0948  0.1015
90206W        W33197  11.039   4.226   3.701  0.0097  0.0215 -0.1775
90207W        W33198  26.035  20.651  15.701  0.1013  0.0508  0.3878
90208W        W33199   4.396   4.004  10.817 -0.1762 -0.2807  0.1026
90209W        W33200  20.468  17.322   7.065 -0.0705 -0.3370 -0.1945
90210W        W33201  13.201  10.944  26.854  0.0738 -0.0956 -0.1074
90211W        W33202   6.108  19.899   7.575 -0.1267  0.0352 -0.0605
90212W        W33203  13.629   0.836  26.465  0.3027 -0.1116  0.0966
90213W        W33204   9.144   4.528   6.894  0.1718  0.2735 -0.2688
90214W        W33205  10.168  13.773  10.597 -0.2457  0.2489  0.2773
90215W        W33206  20.700  14.534  25.933 -0.3107  0.2248 -0.4201
90216W        W33207   1.072  13.586   7.154 -0.0233 -0.3549 -0.1140
90217W        W33208  12.335  17.221   0.501  0.0912  0.2233 -0.2451
90218W        W33209   9.446   3.435   0.467  0.0378 -0.0775 -0.1554
90219W        W33210  11.224  34.037   8.793  0.0649  0.1195  0.0308
90220W        W33211   8.834  11.736  19.994 -0.1707  0.0471 -0.0293
90221W        W33212  10.696  15.079   2.914  0.4568  0.1184  0.1320
90222W        W33213  26.983   8.758  19.377 -0.1086 -0.0691  0.0870
90223W        W33214  31.368  12.687   4.035 -0.2153  0.1802 -0.4098
90224W        W33215   6.191  32.154   5.232  0.1899 -0.0166  0.2062
90225W        W33216  11.486   7.176   0.267 -0.1267  0.0018 -0.2435
90226W        W33217  16.433   7.842   8.594  0.0066 -0.1209 -0.0784
90227W        W33218  29.675   5.424   2.576  0.0170 -0.0868  0.1712
90228W        W33219  14.551  20.482  28.655  0.1810  0.0702 -0.0859
90229W        W33220  12.688   4.700  21.138  0.0225 -0.1551  0.2771
90230W        W33221   0.575  32.981  27.815 -0.1142 -0.0573 -0.1856
90231W        W33222  26.224  14.489   3.654  0.0471  0.0456  0.0216
90232W        W33223  19.813  30.818  25.621  0.1228  0.0659 -0.0665
90233W        W33224  14.821   8.645   0.761 -0.1004  0.0195 -0.1975
90234W        W33225   9.802   5.372  28.394  0.0641  0.0891  0.1390
90235W        W33226  10.664  18.730   8.278 -0.1007  0.0457  0.0908
90236W        W33227   7.245  22.674  28.444 -0.0914 -0.1310 -0.3741
90237W        W33228   2.762   8.860  10.950  0.0692  0.0412  0.1032
90238W        W33229  18.347  31.851  22.914 -0.1156 -0.0842 -0.0658
90239W        W33230  10.493   2.555   3.586  0.0276  0.3050 -0.5668
90240W        W33231   4.816  13.769   2.080  0.0945 -0.1949 -0.0174
90241W        W33232  24.307  30.485  28.611  0.2249 -0.5130 -0.0211
90242W        W33233  18.890  19.293   0.806  0.1872  0.1945  0.0467
90243W        W33234  15.794  15.686  23.728  0.2781 -0.1308 -0.4293
90244W        W33235   9.207   9.364   6.763 -0.0821 -0.3991  0.2548
90245W        W33236  18.721   8.582   9.024 -0.0031 -0.0579 -0.1064
90246W        W33237   5.321  14.291  11.108  0.1024  0.1314 -0.0428
90247W        W33238   3.347  14.195   7.146  0.1576 -0.0242 -0.1826
90248W        W33239  11.283   8.589   7.235  0.0054  0.3516  0.1100
90249W        W33240  27.509  28.048   1.101  0.2541  0.2793  0.2983
90250W        W33241   4.449   8.577   5.130  0.0987 -0.1827 -0.0564
90251W        W33242   1.584  10.812  24.159  0.0531  0.1056  0.2558
90252W        W33243   4.156  25.787  25.532  0.0658  0.1731 -0.1064
90253W        W33244  19.916  15.100  24.244 -0.1468  0.1795 -0.1500
90254W        W33245  23.659  10.684  27.359  0.2387  0.2988 -0.0880
90255W        W33246   9.235  32.949   4.965  0.7025 -0.0494  0.0500
90256W        W33247  12.077   9.353  26.873 -0.1905  0.0677  0.1126
90257W        W33248  13.919   3.754  24.835 -0.1588 -0.3752 -0.0440
90258W        W33249   8.400  13.613   8.507  0.1054  0.0966 -0.1118
90259W        W33250  19.011  10.069  21.672  0.0790  0.0616 -0.1481
90260W        W33251  15.619  10.443   6.828 -0.1152 -0.2385  0.0714
90261W        W33252   9.649  16.575   1.673 -0.1025 -0.0705 -0.1750
90262W        W33253   2.683  10.025   3.066 -0.0180 -0.1548  0.4773
90263W        W33254   4.853  18.089   8.819  0.1374 -0.2563 -0.0279
90264W        W33255   5.180  27.774  23.900 -0.3176 -0.0507 -0.0715
90265W        W33256  17.963   8.873   9.381 -0.2963  0.1768 -0.3036
90266W        W33257  30.525  16.982   2.730  0.3346  0.1728 -0.0522
90267W        W33258  12.380   8.781  26.581 -0.0479  0.0498 -0.3465
90268W        W33259  15.028  15.711   8.924 -0.1814 -0.1604 -0.2656
90269W        W33260  15.563  15.884  26.535  0.0788 -0.2515 -0.1576
90270W        W33261  18.557  21.540   2.805 -0.2299  0.0250 -0.0496
90271W        W33262   3.291   6.618   8.094  0.0713  0.0237  0.3307
90272W        W33263   5.459   9.981   1.566  0.2460  0.0381 -0.4227
90273W        W33264   9.045  13.015   5.021  0.1229  0.0615  0.0771
90274W        W33265   9.617   1.685   7.886  0.0119  0.5082  0.1036
90275W        W33266   7.561  27.034   6.683  0.1319 -0.1388 -0.0213
90276W        W33267  32.750   7.917   5.286 -0.0721  0.2110 -0.2325
90277W        W33268  15.499  23.428  29.161  0.1599 -0.1014 -0.2621
90278W        W33269  29.781  18.092  25.792  0.0143 -0.1593  0.2261
90279W        W33270  20.655  12.098   3.636 -0.1661 -0.0674  0.2185
90280W        W33271  29.578   2.273   8.893  0.3490 -0.2119 -0.0395
90281W        W33272   5.698  11.048   6.510  0.0608 -0.0444 -0.3683
90282W        W33273   9.474  17.665   0.615  0.2681  0.0315  0.0893
90283W        W33274  15.238   1.099  10.469 -0.0799  0.0980 -0.0556
90284W        W33275  27.762  30.394   4.087 -0.0100  0.1226  0.1581
90285W        W33276   3.657   5.000   0.021  0.0830 -0.1910 -0.0756
90286W        W33277  28.959  15.435  15.574 -0.0242  0.0530 -0.0934
90287W        W33278  32.672  13.358   1.561  0.1503  0.1733  0.4041
90288W        W33279  10.888   6.952   5.857  0.0251 -0.0886  0.1426
90289W        W33280   8.478   3.917   9.102  0.0532 -0.0834  0.2599
90290W        W33281  17.393  26.684  23.124 -0.0702  0.0202  0.0701
90291W        W33282  14.074  15.621   1.123 -0.2097  0.1853  0.0805
90292W        W33283  14.532  18.131   1.514 -0.2234 -0.3590  0.0423
90293W        W33284   5.387   0.150   2.319 -0.1147  0.3302 -0.2159
90294W        W33285  17.506   3.329   2.626  0.1094  0.0581  0.0114
90295W        W33286  14.323  34.671   8.891  0.1992 -0.4942 -0.2939
90296W        W33287   2.210  23.133   8.575  0.0891 -0.1398 -0.0269
90297W        W33288  19.897  14.008  27.536 -0.1897  0.3135  0.1848
90298W        W33289   9.049   0.892   2.544 -0.0493 -0.0595 -0.0399
90299W        W33290  27.357  12.599   9.391  0.1888 -0.1087 -0.0847
90300W        W33291  15.011   9.542   7.289 -0.2438 -0.0337 -0.1809
90301W        W33292   4.374  16.244   8.045 -0.1737 -0.0366 -0.4513
90302W        W33293  14.365   4.284   0.284  0.0939 -0.1813 -0.0825
90303W        W33294  19.743   2.693   9.978  0.1794  0.1066  0.2107
90304W        W33295   9.965  10.153   6.262  0.0756  0.1044 -0.1068
90305W        W33296  26.171   0.634  24.914 -0.2476  0.0149 -0.1006
90306W        W33297  13.773  22.615   8.998 -0.1044  0.2058  0.0954
90307W        W33298  12.544  14.212   9.342 -0.2048 -0.1122 -0.0599
90308W        W33299  18.855  12.808   5.531  0.1215  0.1418  0.3834
90309W        W33300   3.986  15.739  27.381 -0.2261 -0.3745 -0.2300
90310W        W33301   5.457   2.294   7.575  0.0120  0.0654 -0.0498
90311W        W33302  29.787  14.369   3.918 -0.1295  0.0902  0.1119
90312W        W33303  18.076   1.957  16.933 -0.0359 -0.1953 -0.0083
90313W        W33304   4.206   0.318   9.925 -0.1053  0.0436  0.2032
90314W        W33305  12.148   9.086  20.455 -0.0874  0.0839  0.2414
90315W        W33306  18.697  16.288   1.250  0.2820  0.0546 -0.0210
90316W        W33307  13.262   5.603  29.094 -0.3427 -0.0920 -0.1788
90317W        W33308  14.214  18.915   7.005 -0.2136 -0.0594  0.1344
90318W        W33309   6.010  23.978   4.387 -0.1038  0.0432  0.5663
90319W        W33310  13.053  21.307   1.618 -0.0217 -0.0508 -0.0912
90320W        W33311   8.191  16.596   9.906  0.2495  0.1021  0.2793
90321W        W33312  29.368  15.933  28.205  0.2583  0.1528 -0.2678
90322W        W33313  12.769  31.937  19.518 -0.0292 -0.1715 -0.0851
90323W        W33314  10.583  20.532  18.083  0.5044 -0.0827  0.1477
90324W        W33315  22.792   9.344   5.844  0.1294  0.2196 -0.1051
90325W        W33316   7.044  23.550  10.147  0.2576  0.1123 -0.3721
90326W        W33317   3.272   2.924   9.328 -0.0064 -0.0755 -0.4419
90327W        W33318  29.428  21.771   8.661 -0.1081 -0.0640  0.2588
90328W        W33319  12.470  18.511   4.601 -0.1509  0.2617 -0.2536
90329W        W33320  28.289  28.027   3.175 -0.1010 -0.0591  0.1852
90330W        W33321  11.785  14.183   2.663  0.1686  0.0489 -0.1308
90331W        W33322   6.371   8.948   9.622  0.2967 -0.0983 -0.1437
90332W        W33323  25.249  13.979   9.755  0.0953 -0.0096 -0.0340
90333W        W33324   5.119   1.568   8.752  0.2127  0.0064  0.0027
90334W        W33325  25.486  16.092   4.926 -0.1427  0.2211 -0.4188
90335W        W33326   6.805   9.464   7.260 -0.1293  0.1877 -0.3566
90336W        W33327  10.305   6.617  26.972 -0.1595  0.3778  0.1919
90337W        W33328   6.438  20.337   9.429  0.0022  0.0947 -0.0941
90338W        W33329  26.072   6.468   2.437 -0.0210  0.0124 -0.1105
90339W        W33330  25.702  19.311   4.865 -0.3829 -0.2790  0.0783
90340W        W33331  17.683  31.514   2.275  0.1578 -0.1174 -0.3420
90341W        W33332  21.720  20.753   6.479 -0.0092  0.0642 -0.0028
90342W        W33333   8.482  19.565  22.902 -0.0877 -0.0308 -0.1830
90343W        W33334  30.661  22.230   0.079 -0.2242  0.0798 -0.0215
90344W        W33335   2.441   5.265   7.047 -0.3689 -0.2619  0.1844
90345W        W33336  34.166  17.518   0.920  0.2975 -0.1132  0.0068
90346W        W33337   9.052  15.287   0.448 -0.1616 -0.1290  0.0997
90347W        W33338  25.722  14.374   5.933 -0.1571  0.1658 -0.0124
90348W        W33339   3.562   6.832  10.947  0.1687  0.2000  0.0016
90349W        W33340  14.800  28.748   9.172 -0.0271  0.1570  0.0037
90350W        W33341  19.953  26.364   7.722 -0.1772  0.0217 -0.0288
90351W        W33342  13.114  13.717   1.806  0.0534 -0.1780 -0.3635
90352W        W33343   3.265  34.784   9.705 -0.2218  0.2700 -0.1142
90353W        W33344   9.003  29.234  26.977 -0.0373  0.0125 -0.0558
90354W        W33345  12.213  14.519  27.417 -0.1362  0.0985  0.1266
90355W        W33346  13.487   9.577   3.654 -0.3092  0.0371 -0.1375
90356W        W33347  13.233   9.060  11.322  0.2826 -0.0462 -0.0370
90357W        W33348   4.234   6.157   4.963 -0.1972 -0.0380 -0.4054
90358W        W33349  13.200  25.524   2.265  0.1602  0.0749  0.0294
90359W        W33350  12.600   5.276  11.403 -0.1672 -0.3410  0.1196
90360W        W33351  14.294  16.727   9.163  0.0687  0.1981  0.0023
90361W        W33352  25.821  31.232  16.340 -0.0754 -0.2538  0.2148
90362W        W33353   3.336  34.363   6.510  0.1323  0.0481  0.0278
90363W        W33354  11.717  13.999  21.892  0.1007  0.3569 -0.1764
90364W        W33355  26.536   4.997  25.102 -0.1463 -0.4724  0.1711
90365W        W33356  10.567  12.171   0.954  0.1877 -0.1505  0.1281
90366W        W33357  21.875   6.543   7.617  0.1384  0.0237 -0.1893
90367W        W33358  18.034   6.851   5.823 -0.0788  0.1319 -0.0692
90368W        W33359   4.465  21.241   3.026 -0.0359  0.3003  0.0213
90369W        W33360  19.225   8.505   7.904  0.1728  0.0126  0.2458
90370W        W33361  15.712   4.590  21.774 -0.0937 -0.4333  0.0311
90371W        W33362  27.221   3.662  22.829 -0.1679 -0.1603  0.0220
90372W        W33363   8.683  15.475   5.080  0.0412 -0.0786  0.1166
90373W        W33364  26.145  13.928   9.375  0.0496 -0.0581  0.3358
90374W        W33365  14.066  17.964  29.054  0.1774  0.1992  0.1571
90375W        W33366  14.141   2.960   0.794  0.2259  0.3123  0.0760
90376W        W33367   3.665  21.193   2.592  0.0122  0.0669  0.0549
90377W        W33368  30.753  10.737   3.947 -0.0230  0.0375  0.1598
90378W        W33369   9.945   4.392  11.435  0.0902  0.2808 -0.1018
90379W        W33370  18.624  22.616   6.193 -0.2658  0.3045 -0.1562
90380W        W33371   8.279   3.645   1.968  0.0307  0.0314 -0.0409
90381W        W33372   9.163   1.732   8.186  0.0198  0.0345  0.1844
90382W        W33373   1.103  18.534   3.510 -0.2735  0.0532  0.1508
90383W        W33374  17.083  32.715   6.505  0.0914 -0.4006  0.0794
90384W        W33375   7.500  17.732   1.003 -0.1870  0.1878  0.1786
90385W        W33376  34.611  19.442   0.308 -0.5184 -0.0180  0.0409
90386W        W33377  12.001  12.022   7.414 -0.1155  0.1832  0.0944
90387W        W33378   0.536  11.822   2.555  0.5475 -0.2321 -0.0274
90388W        W33379   2.913  13.523  25.817 -0.0815  0.1159  0.0912
90389W        W33380  18.262  30.964   6.068  0.1714 -0.1570 -0.1242
90390W        W33381  31.947   3.606  20.548  0.0688  0.0213  0.0937
90391W        W33382   6.824  20.687   4.907  0.2969 -0.0385  0.0756
90392W        W33383  20.112   8.464   7.857 -0.0778  0.3181 -0.0203
90393W        W33384  12.668   3.741   9.141 -0.1500 -0.0171 -0.0900
90394W        W33385   9.033   8.074  10.107  0.2737  0.0657  0.2846
90395W        W33386   0.507  34.798  26.710  0.0276 -0.0306 -0.2961
90396W        W33387  27.221  25.348   2.578 -0.0198 -0.5303 -0.0100
90397W        W33388   5.695  19.579   5.990 -0.2351  0.0034  0.1597
90398W        W33389  15.038  27.136   1.476  0.4916  0.3776  0.1356
90399W        W33390  15.211  22.575   7.138 -0.1479 -0.0575 -0.2843
90400W        W33391  17.250  17.256  28.370 -0.0758  0.4155  0.0652
90401W        W33392  16.139   7.604   6.576 -0.0212  0.0396  0.2351
90402W        W33393   7.615  32.959  22.668  0.0535 -0.1694 -0.0988
90403W        W33394   3.135  16.101  15.611 -0.0631 -0.0284 -0.3670
90404W        W33395   3.321   4.397   3.789  0.0670  0.3478  0.1449
90405W        W33396   5.582  28.158  27.636  0.1845 -0.3102 -0.3187
90406W        W33397  17.847  20.251   0.866  0.1927  0.2724 -0.0882
90407W        W33398  13.865  17.532   6.067 -0.1476 -0.1510  0.0468
90408W        W33399   5.793  12.921   5.307 -0.1101 -0.1215 -0.0904
90409W        W33400  22.841  17.631   9.451 -0.0524 -0.2470  0.0374
90410W        W33401  33.695  14.907   9.768  0.0466 -0.0980  0.0733
90411W        W33402  14.264  26.330   7.035  0.0542  0.2013  0.2426
90412W        W33403  12.058   2.600   6.890  0.4276 -0.1048  0.0048
90413W        W33404   8.494  12.590  11.517  0.0417 -0.0686 -0.3315
90414W        W33405  32.765  19.170   9.198  0.1593 -0.0442 -0.0309
90415W        W33406  13.716  30.021   8.096  0.0808 -0.0908  0.0048
90416W        W33407  12.829  32.417  25.941  0.1038 -0.0872 -0.3038
90417W        W33408   6.969  10.050  28.026  0.2990  0.0355  0.2438
90418W        W33409   6.379  21.403   8.351 -0.1730  0.1606  0.0251
90419W        W33410  20.667  16.007   3.672 -0.2171 -0.0887 -0.1781
90420W        W33411  22.509  14.324   0.991 -0.5474  0.1805 -0.4582
90421W        W33412   1.963  15.676  26.674 -0.0100  0.0152  0.3329
90422W        W33413   4.489   8.586   7.059  0.1527 -0.2218 -0.1674
90423W        W33414  18.496   4.630   6.061 -0.0732  0.1354 -0.1545
90424W        W33415  22.803   2.921   8.947  0.1984  0.3285 -0.3570
90425W        W33416   8.792  14.865  28.543 -0.2011  0.1789  0.2093
90426W        W33417  16.326   8.648   5.943  0.0128  0.1326  0.0265
90427W        W33418  21.689   1.144   9.822  0.0073 -0.1004 -0.0024
90428W        W33419   8.839   8.899   2.938 -0.3408 -0.1009  0.1828
90429W        W33420   8.353   0.493  28.021  0.1102 -0.1466  0.1791
90430W        W33421  14.479  29.398  10.358 -0.2417  0.0093  0.1439
90431W        W33422   9.609   0.249  21.036  0.2089  0.3896  0.0458
90432W        W33423  25.164  34.164   7.660  0.0678  0.0005 -0.0549
90433W        W33424   1.944   1.112  26.434 -0.4250 -0.1659 -0.1994
90434W        W33425  20.877   0.629  24.194  0.2317  0.2368  0.1864
90435W        W33426  12.687   0.766  21.987  0.0393  0.1600 -0.0510
90436W        W33427  17.220   4.008   3.425  0.0634  0.0640  0.1980
90437W        W33428   2.931  12.672   5.796  0.1016  0.2688  0.4119
90438W        W33429  32.228  10.069   0.774  0.3642 -0.3615 -0.0446
90439W        W33430   4.666  15.865   4.694 -0.2534 -0.1939  0.0789
90440W        W33431   3.025  21.285  10.234 -0.1276  0.0114  0.1369
90441W        W33432  10.249  11.378   3.032 -0.3229  0.2993 -0.1235
90442W        W33433  15.656   7.159   7.583  0.1095  0.0676 -0.2679
90443W        W33434  12.717   4.934  22.966  0.1933  0.1901 -0.0352
90444W        W33435  12.725  24.792   7.435 -0.0435  0.1141  0.2893
90445W        W33436   6.992   2.609  24.942  0.1364  0.2233  0.1826
90446W        W33437  34.225  32.649   8.370  0.0437  0.1845  0.0297
90447W        W33438   4.859  25.680  17.002 -0.1373 -0.0404  0.0614
90448W        W33439  13.556  19.743   3.594  0.1094 -0.2673 -0.1321
90449W        W33440   5.521  18.376  24.419  0.0551  0.1150 -0.0999
90450W        W33441  20.230  26.740  14.647  0.0044  0.3861  0.1706
90451W        W33442   9.108  28.055   1.617  0.1284 -0.1897  0.0316
90452W        W33443  18.968  34.527  26.046  0.0546 -0.0337 -0.1580
90453W        W33444   5.175   9.702   7.750  0.2585 -0.3272  0.1855
90454W        W33445  10.733  18.304   8.621  0.2562 -0.2552 -0.0813
90455W        W33446   9.476  10.831   1.768 -0.3811 -0.0887 -0.0600
90456W        W33447  12.083  14.525   9.268  0.0873 -0.2209 -0.0199
90457W        W33448   9.950   6.619   2.316 -0.3757 -0.1353 -0.0192
90458W        W33449   3.711  15.032  26.805  0.0973 -0.1133 -0.3790
90459W        W33450   0.787  14.729   3.821  0.0700 -0.2378  0.1278
90460W        W33451   8.287   8.454   8.454 -0.1609 -0.1908 -0.3286
90461W        W33452   6.382  17.038   9.124  0.2569  0.0375  0.0416
90462W        W33453  11.671  19.808   8.848 -0.0153  0.1619 -0.2535
90463W        W33454   9.872  11.921  22.368  0.1587 -0.0422  0.1406
90464W        W33455   4.421   1.540   6.528 -0.2418  0.1298  0.0828
90465W        W33456  27.284  17.849  26.335 -0.0535  0.4274 -0.3652
90466W        W33457   9.816   8.057   5.375 -0.3299  0.0268  0.1374
90467W        W33458   0.135  13.847  26.002 -0.0529 -0.1447  0.1288
90468W        W33459  16.454  26.692  27.933 -0.1715  0.2182  0.0411
90469W        W33460  33.553   8.892  10.831 -0.1515 -0.0315 -0.1145
90470W        W33461   0.922   2.595   6.882 -0.1603  0.1038  0.2056
90471W        W33462  33.117   9.472   4.339  0.0487  0.1349  0.1619
90472W        W33463  21.319  22.683  23.955 -0.2118  0.1015  0.1355
90473W        W33464  12.935   4.647   9.639  0.1379 -0.2316  0.2505
90474W        W33465  17.893   1.695   2.620 -0.2741 -0.0311  0.0276
90475W        W33466  16.408  14.615  13.785 -0.1464 -0.5356  0.0759
90476W        W33467  13.917  28.956   8.937 -0.1015 -0.0992  0.1920
90477W        W33468   9.166   4.720   5.960 -0.0818  0.3466 -0.3833
90478W        W33469   9.625   4.392   6.992 -0.0912  0.0235 -0.1621
90479W        W33470   0.395  19.846  23.906  0.1095 -0.1730 -0.3035
90480W        W33471  15.045   6.818   6.314  0.0065  0.2502 -0.2397
90481W        W33472   5.106  21.637   5.561 -0.4564  0.0172  0.1491
90482W        W33473  15.171  11.180   5.109  0.0219 -0.1361  0.3265
90483W        W33474  15.379  19.241   8.153 -0.1367 -0.3136 -0.1219
90484W        W33475   2.091   2.832   9.299  0.0650 -0.1528 -0.0650
90485W        W33476   3.084  11.321  28.000 -0.0127 -0.1205 -0.0887
90486W        W33477  20.085  15.921   0.037  0.1880 -0.1344  0.1567
90487W        W33478  13.462  15.035   2.993  0.0611  0.0482 -0.0027
90488W        W33479  31.357   6.412  27.411  0.4491 -0.1022  0.1335
90489W        W33480   3.279  15.834   5.230  0.1093  0.1689 -0.3980
90490W        W33481   1.714  10.966   0.660 -0.0576 -0.0381  0.2809
90491W        W33482   9.581   5.656   8.488 -0.1518  0.0943  0.2871
90492W        W33483  21.875   2.714   6.214 -0.1110  0.0729  0.0932
90493W        W33484  17.999  29.414   3.361 -0.1295  0.1671 -0.2374
90494W        W33485  16.189  20.538  24.490  0.1283 -0.1946 -0.2699
90495W        W33486  18.251   0.011   3.021 -0.1870  0.2071 -0.3355
90496W        W33487  10.441   9.501   6.930 -0.1407  0.1654 -0.1040
90497W        W33488   0.905  14.838   9.587  0.0959  0.1790  0.0820
90498W        W33489   2.906   0.625   0.253  0.1706  0.2268  0.1871
90499W        W33490   0.485  28.751   1.661  0.0230  0.2559 -0.3170
90500W        W33491  13.444  15.616   3.122 -0.0669  0.1649  0.4037
90501W        W33492  22.658  11.987  25.155  0.0888 -0.0785  0.1293
90502W        W33493  18.788   8.702   5.771 -0.0338 -0.1161 -0.2099
90503W        W33494  27.068  13.825   4.370  0.0966 -0.2212 -0.2749
90504W        W33495  16.687   0.579   7.586 -0.0244  0.0182 -0.4062
90505W        W33496  14.402  19.913   7.301 -0.1915 -0.1201  0.0907
90506W        W33497  17.840   9.728  22.119  0.3456  0.0914  0.2254
90507W        W33498  13.269  32.155   1.913 -0.0224 -0.0261 -0.0424
90508W        W33499  14.108  11.502   4.042  0.0113  0.2884 -0.0700
90509W        W33500   1.913  13.627  28.226  0.2391  0.2190 -0.0535
90510W        W33501  20.338  15.816   1.183  0.0684 -0.1682 -0.0829
90511W        W33502  16.550  31.560   4.338 -0.0685  0.2555  0.2622
90512W        W33503   4.524   7.406   2.345 -0.3265  0.1339 -0.3212
90513W        W33504  10.718   9.617  10.812 -0.0669 -0.1261 -0.2012
90514W        W33505  17.927   9.581   3.978 -0.1928  0.1398  0.1187
90515W        W33506   6.212  10.023  10.314  0.0227  0.2655  0.1548
90516W        W33507   8.686  20.113  24.278 -0.0073 -0.2448  0.1311
90517W        W33508  15.891   3.747   5.821 -0.0203  0.1869 -0.0113
90518W        W33509  13.715   5.000   8.961 -0.1574  0.1306  0.0653
90519W        W33510   7.652   0.530  11.268  0.1420  0.2918 -0.2860
90520W        W33511   4.347   9.320   8.132  0.0974 -0.1537  0.0651
90521W        W33512   2.799  16.088   1.899 -0.0444  0.1543  0.1519
90522W        W33513  12.371  15.349   7.558  0.0331 -0.0067  0.0879
90523W        W33514   2.074  30.450   5.454 -0.0023 -0.0285 -0.5695
90524W        W33515   5.615  16.014   5.160  0.1487  0.1541 -0.1123
90525W        W33516   1.164  33.637   8.454  0.0275  0.1259  0.3019
90526W        W33517  18.408  11.657   5.769 -0.0000 -0.1658  0.1963
90527W        W33518  20.818  18.404   6.233  0.1151 -0.1682  0.3754
90528W        W33519   4.532   3.744   9.505 -0.3951 -0.0466  0.2539
90529W        W33520  11.018  12.768  25.243 -0.0678  0.1898  0.5232
90530W        W33521  14.252  12.519   0.025 -0.0114  0.5030  0.2278
90531W        W33522   9.473  21.912  26.982 -0.2364 -0.1874  0.1654
90532W        W33523  18.085  16.243   8.501  0.1375 -0.1180  0.0724
90533W        W33524  13.221   5.501   6.382 -0.2088 -0.0847 -0.0788
90534W        W33525  16.249   6.072  27.895 -0.2452  0.3298 -0.1035
90535W        W33526  10.033   4.524   5.109  0.2881  0.2503 -0.0098
90536W        W33527  15.711   3.046  27.622 -0.2406 -0.2150  0.2301
90537W        W33528  11.944  17.375  28.919  0.0419  0.2848 -0.0720
90538W        W33529  25.189  18.063   1.912 -0.1844  0.1980 -0.1795
90539W        W33530  20.642   6.740   8.666 -0.0342 -0.0535  0.0768
90540W        W33531  34.681  12.472   9.291  0.2669  0.1643  0.0203
90541W        W33532  16.493   1.017   6.792 -0.0320  0.0507  0.1059
90542W        W33533  18.864  17.431   3.071  0.2178 -0.1122 -0.1518
90543W        W33534   8.929  15.772   0.576  0.1331  0.0341 -0.1816
90544W        W33535  10.865  19.913   3.719 -0.1754 -0.1770 -0.0132
90545W        W33536  24.225  28.248   6.948  0.0254 -0.1483  0.3303
90546W        W33537  11.162  28.524   1.709 -0.2094 -0.1691 -0.1045
90547W        W33538  10.043  10.639   4.649  0.1675  0.1217  0.0877
90548W        W33539  25.261   3.420   8.634  0.1831 -0.1900  0.2301
90549W        W33540  32.318  18.145   1.162 -0.1732  0.1079  0.0672
90550W        W33541  10.234  11.747   0.061 -0.0036  0.1448  0.0965
90551W        W33542  16.578  26.471   8.079 -0.0847  0.4152 -0.1382
90552W        W33543  10.954  17.395   4.603  0.1716  0.0055 -0.0354
90553W        W33544  32.392   0.315  22.101 -0.1291 -0.1745  0.0591
90554W        W33545  14.129  26.878   6.391  0.1556 -0.2257 -0.2368
90555W        W33546  16.298  10.382  26.546  0.2282 -0.1837  0.1050
90556W        W33547  12.804   8.032   4.798  0.0936 -0.1150 -0.0740
90557W        W33548  10.250  13.278   0.319 -0.2768 -0.2034 -0.2145
90558W        W33549  11.990  31.335   2.062  0.0037  0.2488 -0.4226
90559W        W33550  22.961  14.464   8.193 -0.0187 -0.3703 -0.0997
90560W        W33551  12.656  21.162   6.218  0.1908 -0.3447  0.0340
90561W        W33552  12.130  17.186   7.363  0.2866 -0.2157 -0.3470
90562W        W33553  28.418   1.529   7.478  0.2624  0.3492 -0.1265
90563W        W33554   3.155  21.532   5.913  0.0672  0.1377  0.0136
90564W        W33555   8.340   6.195  16.464 -0.0460  0.0852  0.0938
90565W        W33556  16.672  10.599   7.238 -0.4886 -0.1538 -0.0080
90566W        W33557  10.179  11.253   8.782 -0.1495 -0.0806 -0.0273
90567W        W33558  20.543   9.166   1.938 -0.1538  0.3802 -0.0814
90568W        W33559   4.137  12.983  11.641  0.0689 -0.1415  0.0188
90569W        W33560  16.001   8.801   1.250  0.1105 -0.2756  0.0898
90570W        W33561  29.283   9.290   5.253  0.1161 -0.1696  0.1369
90571W        W33562  21.275  17.974  22.789  0.0957 -0.0244  0.0105
90572W        W33563  14.157  25.392   4.607 -0.1101 -0.1983 -0.0222
90573W        W33564  22.770  14.560   4.693  0.2466 -0.2123 -0.1895
90574W        W33565   6.706   9.269   9.918  0.1156  0.1664  0.1479
90575W        W33566  10.895  12.829   8.047 -0.0821 -0.3162  0.1456
90576W        W33567  16.132  31.674  17.287 -0.1951  0.2402  0.1080
90577W        W33568  11.323  15.889  28.893  0.1177 -0.2071  0.0134
90578W        W33569  13.281  17.143   7.304  0.0576 -0.1300  0.2344
90579W        W33570  17.991   0.768   3.654 -0.4039 -0.0223 -0.1220
90580W        W33571  15.371  16.522   3.222  0.1772 -0.0541 -0.0363
90581W        W33572  16.917  25.592  28.553  0.2636 -0.1268 -0.1154
90582W        W33573  15.623   1.089  10.746  0.0068 -0.1420 -0.2900
90583W        W33574  14.950   0.452  23.598 -0.0196 -0.0465  0.2525
90584W        W33575  15.175  10.253   0.913 -0.2436 -0.1155 -0.1231
90585W        W33576  19.570  13.723  26.999  0.4105 -0.0219  0.2157
90586W        W33577  21.701  10.866  18.608  0.1370  0.0374  0.3746
90587W        W33578  16.942   6.100  23.993  0.0149 -0.0495  0.1236
90588W        W33579  12.713  16.918  22.764  0.5230  0.0518 -0.0732
90589W        W33580   1.785  32.704   4.668 -0.1707 -0.2156  0.2033
90590W        W33581  20.552   1.916  24.899  0.2947  0.0303 -0.0520
90591W        W33582  22.378  24.745  28.915 -0.0327  0.0656  0.1129
90592W        W33583  28.244   2.412   8.313 -0.2194 -0.1380 -0.0157
90593W        W33584   3.683   5.751  24.046  0.1748  0.0176 -0.1846
90594W        W33585  32.632  15.536   8.863  0.1052  0.0114  0.0075
90595W        W33586   4.607   8.112   9.036  0.0349 -0.0822 -0.2585
90596W        W33587   9.969  28.681   6.564  0.0728  0.1629 -0.0088
90597W        W33588   3.853  19.796   8.119 -0.3820 -0.1297  0.1812
90598W        W33589  19.109  29.403   7.644 -0.3077 -0.0024 -0.3291
90599W        W33590   9.148   7.664   6.071  0.1955  0.0011  0.0101
90600W        W33591  21.759  27.419   7.483  0.0614 -0.1141  0.2150
90601W        W33592  30.150   8.235   8.535  0.2965 -0.3771  0.5648
90602W        W33593  13.338  19.715   8.674 -0.0277  0.0539  0.0738
90603W        W33594  24.618  21.441  26.770  0.0624  0.0724 -0.2517
90604W        W33595  25.056  15.217  19.547 -0.0840 -0.1398  0.1313
90605W        W33596  30.116  14.522   2.490  0.4583 -0.0328  0.0530
90606W        W33597   2.613  29.249  20.226  0.1640  0.3153 -0.2687
90607W        W33598  11.415  22.368   4.994 -0.0796  0.0339  0.1725
90608W        W33599  11.917  29.373   4.251 -0.0005  0.1220  0.1303
90609W        W33600  22.263   1.101  25.316  0.1483  0.0558  0.2011
90610W        W33601   5.018  33.311   0.901 -0.1122  0.0740 -0.1094
90611W        W33602   8.206  19.380  26.154  0.3785  0.0819  0.3123
90612W        W33603   8.482  13.129   9.575  0.1480  0.2637  0.0719
90613W        W33604  12.869  19.811   8.020 -0.0176  0.1431 -0.0903
90614W        W33605   8.322  20.238  28.405 -0.0729  0.1229 -0.2663
90615W        W33606  14.063  31.839   8.328 -0.1118  0.1292 -0.0686
90616W        W33607  18.666  11.282   0.093 -0.2608  0.2603 -0.0879
90617W        W33608  16.417   9.026  19.214 -0.2252  0.2515 -0.0640
90618W        W33609  19.498  19.610  23.672 -0.1704 -0.0038  0.2822
90619W        W33610  31.852   6.464   0.527  0.0186  0.1486  0.1673
90620W        W33611   4.556   1.522  22.644 -0.1275  0.0458  0.2475
90621W        W33612  19.510  10.671  25.869 -0.2479 -0.0904 -0.4355
90622W        W33613   8.995  34.498  26.790  0.3139 -0.1469  0.2194
90623W        W33614   8.565  30.846   1.774  0.4053  0.0819  0.0394
90624W        W33615  13.080   6.472  24.980  0.0966 -0.1967  0.1301
90625W        W33616  17.283  12.001  23.886  0.0197  0.1483 -0.1375
90626W        W33617   3.016  14.645   4.719 -0.2288 -0.0688  0.3660
90627W        W33618  10.401   8.421  20.582 -0.1043  0.1164 -0.0411
90628W        W33619  22.006   6.771  15.837  0.1600  0.3398 -0.4836
90629W        W33620  13.852  10.223   6.626 -0.0254 -0.0733 -0.1359
90630W        W33621  15.581   2.788  18.857 -0.3070 -0.2367  0.0034
90631W        W33622  19.458   1.749   0.816 -0.3703  0.1494  0.0153
90632W        W33623  17.688  10.957   5.123  0.3187 -0.1555  0.2019
90633W        W33624  18.765  22.630   1.965  0.1406  0.1520  0.1943
90634W        W33625  11.888  13.586   5.215 -0.0890 -0.1152  0.0324
90635W        W33626  17.928  13.330   9.345 -0.1069 -0.1251 -0.0126
90636W        W33627  23.842  28.609   3.321 -0.1280 -0.1268 -0.2102
90637W        W33628  27.781   4.059  14.603  0.0788  0.0632 -0.2008
90638W        W33629  17.093  31.773  17.326 -0.2598 -0.0457 -0.0463
90639W        W33630  19.300  10.127  26.097 -0.2185  0.1605 -0.0190
90640W        W33631  23.450  11.088   6.388  0.3035 -0.0670 -0.3076
90641W        W33632  27.410   5.888  15.736  0.0412  0.0397  0.0872
90642W        W33633  14.462  27.793   1.161 -0.1754  0.3714 -0.2923
90643W        W33634  19.670  33.752   7.169 -0.1062  0.1633  0.2983
90644W        W33635   9.549  15.188   0.545 -0.3311  0.0209 -0.0395
90645W        W33636   0.756  28.850   8.240  0.2747 -0.3248 -0.1130
90646W        W33637  18.809  14.847  25.558 -0.1281  0.0556  0.0825
90647W        W33638  18.358  31.566   9.677 -0.1167 -0.1583 -0.1937
90648W        W33639  16.733  12.498  23.146  0.3113 -0.0724 -0.0065
90649W        W33640  34.219  20.842   3.646  0.3010 -0.0176 -0.0207
90650W        W33641  24.374  16.616   9.282  0.0178 -0.2891  0.0874
90651W        W33642   9.964  19.946  28.457 -0.0472  0.1662  0.0645
90652W        W33643  16.135   1.028  26.900 -0.0320  0.4699  0.3787
90653W        W33644  17.095   9.207   9.362  0.0287 -0.0040  0.0215
90654W        W33645   7.142  30.141  17.783  0.2114  0.1549 -0.2291
90655W        W33646  22.824  13.356   9.403 -0.1052 -0.1243 -0.0556
90656W        W33647  18.661  11.388  28.228  0.2198  0.4813 -0.2495
90657W        W33648   8.270  34.050  16.431  0.1908 -0.4198 -0.1528
90658W        W33649  32.318  18.515   3.803 -0.2237 -0.0215 -0.1747
90659W        W33650  31.065   7.332   9.566  0.1019 -0.3723  0.3121
90660W        W33651   2.586  16.216  27.835 -0.0093 -0.0649 -0.1698
90661W        W33652  25.912  29.123  23.221 -0.2534  0.0979 -0.2751
90662W        W33653  19.159   3.580  28.988 -0.5421  0.0978 -0.1101
90663W        W33654   6.274   0.718   1.722 -0.1552  0.1741  0.0704
90664W        W33655   5.402   1.191   0.016  0.3096  0.2035  0.0558
90665W        W33656  18.415   5.836  23.298  0.2844 -0.2645 -0.3514
90666W        W33657  21.990  11.515  25.676  0.2251  0.0244  0.1607
90667W        W33658  12.130  20.973   0.103  0.1208 -0.1137  0.0291
90668W        W33659  15.380  21.739  28.967 -0.3401  0.2231 -0.3468
90669W        W33660  13.590  20.196   1.523 -0.1079 -0.1383  0.1435
90670W        W33661  11.809   9.763  17.033  0.3100 -0.1900  0.2092
90671W        W33662  20.141  21.743   5.515  0.0201 -0.0657 -0.2569
90672W        W33663   1.273  13.050   2.767 -0.4616 -0.0008  0.1239
90673W        W33664  26.513  11.751  22.226 -0.2623 -0.0587  0.4146
90674W        W33665   8.004  16.959  28.833 -0.0474 -0.0462  0.0465
90675W        W33666   6.144   2.910   2.398  0.3063  0.0780  0.1600
90676W        W33667   2.993  14.506   2.271 -0.0211  0.1801  0.1982
90677W        W33668   6.078  23.511   2.210 -0.2069 -0.1154 -0.0014
90678W        W33669   7.843  17.153   2.051 -0.0515  0.0004 -0.0154
90679W        W33670  16.196  12.131  19.719 -0.1609 -0.0696  0.0492
90680W        W33671  15.478  11.975   2.262  0.3248  0.1925  0.0486
90681W        W33672  12.266  25.944   7.928 -0.1310  0.2869 -0.0148
90682W        W33673  29.694   7.713   8.775  0.0468  0.0565 -0.0642
90683W        W33674  28.765   6.868  13.426 -0.1889  0.1389  0.0288
90684W        W33675  26.931  21.188  21.456  0.1238  0.0903 -0.0329
90685W        W33676  17.765  12.642  28.679 -0.1634 -0.1207  0.4628
90686W        W33677  17.911  33.048   8.854 -0.0557  0.2550 -0.2492
90687W        W33678  14.264   9.757  22.185 -0.3720 -0.3035 -0.0251
90688W        W33679   1.406  24.442  25.715 -0.2183  0.1707 -0.0829
90689W        W33680   2.925  11.077   6.404 -0.3003 -0.1174 -0.0385
90690W        W33681  10.785  23.002  27.156 -0.3430 -0.2149  0.2328
90691W        W33682  10.643  11.533  29.083  0.2286  0.2135  0.0371
90692W        W33683   9.246  15.491  24.636 -0.5911 -0.1124 -0.1279
90693W        W33684  10.867   1.648   9.415 -0.1268 -0.0007  0.4637
90694W        W33685   6.128  32.969   7.983  0.0176  0.3777  0.0679
90695W        W33686   6.114  13.846  15.542 -0.1250  0.0673 -0.3929
90696W        W33687   7.738  12.510   6.859  0.1985 -0.2764  0.0025
90697W        W33688  19.453  12.216   0.162  0.1472 -0.2093  0.1490
90698W        W33689   2.692  32.827  14.432  0.1832  0.3756  0.1811
90699W        W33690  34.124  14.558   6.706 -0.3688 -0.0533  0.2229
90700W        W33691  21.350  10.090   7.518 -0.0200  0.4366  0.3643
90701W        W33692  25.278  24.683  29.164 -0.0770  0.1939 -0.5083
90702W        W33693   3.219   3.537   4.895  0.1011  0.0376 -0.1587
90703W        W33694  10.250  21.598   2.289  0.1132 -0.1513  0.0185
90704W        W33695  21.674  18.907  28.778  0.0300 -0.2770 -0.1281
90705W        W33696  27.727  16.622  21.768 -0.0379  0.0665 -0.0395
90706W        W33697  10.546  32.795   9.964 -0.1793  0.2720 -0.3092
90707W        W33698  12.825  34.496   3.989 -0.3563 -0.0672  0.1187
90708W        W33699   8.043   0.359   6.196  0.2185  0.3894  0.2472
90709W        W33700  22.961  29.136   4.121 -0.0142  0.0585 -0.0084
90710W        W33701  18.427   0.834   3.447 -0.2046  0.0221 -0.2728
90711W        W33702  24.621   7.113  16.596 -0.1331 -0.0475  0.2313
90712W        W33703  24.304  18.869  28.251 -0.0849 -0.0509  0.1170
90713W        W33704  12.964   6.864  18.284 -0.2165  0.1356  0.2128
90714W        W33705  14.592  14.869  26.715  0.0919 -0.1713 -0.2651
90715W        W33706  15.800  10.180  22.758 -0.2492 -0.1045  0.2942
90716W        W33707   7.489  14.815  10.661 -0.1984 -0.0581 -0.0273
90717W        W33708  11.909  27.014  23.736  0.1452  0.0023  0.1227
90718W        W33709  11.962  14.390   4.103  0.2848 -0.0045 -0.0324
90719W        W33710  28.746  10.724   6.257 -0.1273  0.1063  0.1001
90720W        W33711  20.373  26.752  26.727  0.0850  0.0670 -0.0299
90721W        W33712  12.026   9.220   6.287  0.1311  0.1478 -0.0354
90722W        W33713   9.855  26.540   0.758 -0.0940  0.1137  0.2069
90723W        W33714  21.314  11.874  26.189 -0.1539 -0.2228  0.2494
90724W        W33715  15.085  11.696   2.543 -0.1431 -0.1427 -0.1088
90725W        W33716   7.170  21.028   6.675 -0.2892  0.0776  0.2064
90726W        W33717  12.136  11.691  24.121  0.1232  0.3727  0.2035
90727W        W33718  10.210  22.574  29.263  0.1248 -0.1154 -0.0623
90728W        W33719  17.383  10.980   3.104  0.1529  0.0372  0.2464
90729W        W33720   6.379  30.286  26.882  0.1317 -0.0052 -0.0430
90730W        W33721  31.501  29.795   7.634 -0.1634  0.0661 -0.1824
90731W        W33722  12.288  34.071  25.089  0.0144 -0.3436 -0.2108
90732W        W33723  28.271  20.991  16.186  0.3410 -0.0098  0.0313
90733W        W33724   6.840   8.393  22.912  0.0942 -0.0892 -0.1590
90734W        W33725  11.102  19.524   2.553 -0.2309 -0.1908 -0.0137
90735W        W33726   4.836   5.956   0.148 -0.3642 -0.1239  0.1334
90736W        W33727  19.565  16.624   9.344  0.0400  0.2898  0.0029
90737W        W33728   6.725  13.963  28.648 -0.1653 -0.0498  0.1453
90738W        W33729   5.725  21.818   8.942  0.0360  0.1560  0.0672
90739W        W33730  25.696  29.027   2.004 -0.2337  0.3899  0.0836
90740W        W33731   9.278  22.967  29.112  0.3077 -0.1915 -0.0164
90741W        W33732  17.157  23.015  17.972 -0.2078 -0.0842  0.0711
90742W        W33733  14.538  26.849  23.280  0.1856  0.1930 -0.1978
90743W        W33734  20.267   9.758  27.042  0.0526 -0.0037 -0.2387
90744W        W33735  11.267  17.109   7.502 -0.3224 -0.0778  0.0421
90745W        W33736  12.666   4.364  25.526 -0.0565 -0.0086  0.1638
90746W        W33737  16.346   2.701   9.971 -0.2384 -0.3646  0.1936
90747W        W33738   5.704  15.567   5.462 -0.1111  0.2392 -0.1117
90748W        W33739  11.327  24.980  17.306 -0.0426  0.0083  0.3474
90749W        W33740  33.733  16.262  10.242  0.1142 -0.0127 -0.1017
90750W        W33741  25.333  16.059  10.615 -0.0430  0.0421 -0.1348
90751W        W33742  20.953  16.375   3.526 -0.0552  0.1732 -0.3242
90752W        W33743  30.473  30.907  26.625  0.2596  0.3292  0.0823
90753W        W33744  18.256  17.878   8.243 -0.1455 -0.0151  0.1030
90754W        W33745   7.028   7.391  23.032  0.1973 -0.1923  0.1193
90755W        W33746  13.403  23.475  16.738  0.1924 -0.0018 -0.2981
90756W        W33747   1.341  18.890  20.623 -0.0871  0.2245 -0.0582
90757W        W33748   7.658  20.194   8.451 -0.1035  0.0095  0.1827
90758W        W33749  16.196  24.018   6.976  0.0043 -0.0341 -0.1229
90759W        W33750  29.603  14.958   8.730 -0.1028  0.2359 -0.2610
90760W        W33751   9.884  26.200   9.081  0.1881  0.3414 -0.0119
90761W        W33752   7.496  16.389  27.473 -0.0820 -0.2506 -0.1219
90762W        W33753   9.660   4.765   8.028 -0.1243 -0.1378 -0.4637
90763W        W33754  13.749  13.832   0.347  0.3289  0.1007 -0.0925
90764W        W33755  34.404   5.816  23.991 -0.1594  0.0210 -0.0580
90765W        W33756   9.765  23.236   8.778  0.0901 -0.0731  0.3429
90766W        W33757  13.321  28.749  28.920 -0.2725 -0.1514 -0.5040
90767W        W33758   9.433   2.290  16.403 -0.0793  0.2428 -0.1164
90768W        W33759  11.728   0.774   1.505 -0.2092 -0.2387 -0.0235
90769W        W33760  23.167  17.041   1.632  0.0183 -0.0079  0.0425
90770W        W33761   7.161  11.567   3.386 -0.0567  0.0871  0.3268
90771W        W33762   2.876  20.045  26.638 -0.1371  0.3777  0.4704
90772W        W33763  26.103   2.570  24.302 -0.0608 -0.2822  0.3551
90773W        W33764  17.262   9.956   0.234  0.2710 -0.2639 -0.2235
90774W        W33765  29.903  25.944  13.800 -0.1633 -0.1908  0.0218
90775W        W33766  18.586   5.086   0.957  0.0427  0.0645 -0.0753
90776W        W33767   7.168  21.244   7.689 -0.3336 -0.1922 -0.4015
90777W        W33768  15.060  20.310   0.263 -0.0193  0.2928  0.1185
90778W        W33769  15.220  22.936   7.579  0.2301 -0.0333  0.0674
90779W        W33770  11.019   9.953  24.862  0.2792  0.3561 -0.0363
90780W        W33771  19.666  33.293  28.715 -0.2616  0.2581 -0.1374
90781W        W33772  16.246   9.226  16.595 -0.1253  0.3561  0.0782
90782W        W33773  28.738  21.129   7.119 -0.2446 -0.1346  0.0451
90783W        W33774  23.889  26.515  27.802 -0.2295  0.1800  0.0196
90784W        W33775  22.645   3.825  17.964 -0.1199 -0.0498  0.1563
90785W        W33776  16.518   3.873   6.533  0.0873  0.0672 -0.3888
90786W        W33777  16.740   7.869  28.345  0.0791 -0.0022  0.2145
90787W        W33778  12.166  32.617   2.501  0.2576 -0.3125  0.0014
90788W        W33779   3.176   5.536   4.107 -0.0438 -0.1331  0.1734
90789W        W33780   8.725  24.755   5.464  0.1405 -0.3011 -0.0320
90790W        W33781  16.689   6.967   5.385  0.1119 -0.0945 -0.0733
90791W        W33782  27.115  18.967   2.648  0.0315  0.0492 -0.1915
90792W        W33783  31.387  21.665  22.991 -0.1877 -0.3402 -0.3290
90793W        W33784  10.834  21.588  22.670  0.2930  0.2882  0.3603
90794W        W33785  14.605  27.411   0.696  0.1366 -0.1545  0.1651
90795W        W33786  28.845   1.401   1.501  0.1186  0.3639  0.0751
90796W        W33787  11.100  22.091  14.389  0.1164 -0.2337 -0.0628
90797W        W33788   0.010   5.945  28.276  0.0708  0.2039 -0.0438
90798W        W33789  23.477   1.946   2.403 -0.2152  0.1586  0.0959
90799W        W33790   6.032  20.544   8.472 -0.1277  0.0264  0.0809
90800W        W33791  17.578  13.244   5.922 -0.0030 -0.0357 -0.0009
90801W        W33792  19.997   4.358  28.056 -0.4692 -0.2471 -0.2504
90802W        W33793  15.001   7.428  15.539 -0.3519 -0.1308  0.0088
90803W        W33794  15.436  11.941  21.424  0.0761  0.0047  0.0883
90804W        W33795   1.746   5.291   9.785  0.3311  0.1547 -0.2160
90805W        W33796  17.350  33.326  23.149 -0.4594  0.1105  0.3228
90806W        W33797  13.837   4.715   1.620 -0.1006  0.0253 -0.0887
90807W        W33798  12.658  13.115  26.187 -0.2247  0.0116  0.0294
90808W        W33799  28.368  34.274  21.383  0.1545 -0.0887  0.1291
90809W        W33800   0.230  11.559   8.923 -0.1392  0.0426  0.3848
90810W        W33801  17.305   6.035   4.145  0.0091 -0.1305 -0.2039
90811W        W33802  11.648   9.882   7.009 -0.0572  0.2202 -0.0021
90812W        W33803  28.152  15.823  21.376 -0.1432  0.0926  0.0246
90813W        W33804  27.514  12.535  26.306 -0.1101  0.1352  0.0685
90814W        W33805  12.561  34.194  18.020 -0.2891  0.2021  0.2804
90815W        W33806   9.080   7.914  15.480 -0.0649 -0.1946 -0.1719
90816W        W33807  15.944  23.201  27.031 -0.0055 -0.0870  0.2437
90817W        W33808  13.991  12.940   4.458 -0.2763  0.2795  0.0747
90818W        W33809   4.193  17.891   0.103  0.0437  0.0346 -0.1273
90819W        W33810  17.690  13.675   8.194  0.0784 -0.1225 -0.1322
90820W        W33811   9.010  29.652  28.511 -0.0186  0.0951 -0.0100
90821W        W33812   1.823  10.325  26.518 -0.3645  0.0801  0.0268
90822W        W33813   2.724   3.967  19.108 -0.0741 -0.1072 -0.0908
90823W        W33814  17.139   5.301   7.327 -0.1075  0.4188  0.0715
90824W        W33815   5.955  18.079  27.964 -0.0963 -0.3792 -0.1315
90825W        W33816  29.673  11.204  19.320  0.0181  0.0363 -0.0937
90826W        W33817  18.772  12.278   3.588  0.0416 -0.1413 -0.1572
90827W        W33818   3.619  15.828  24.448  0.1048 -0.0751 -0.1727
90828W        W33819  11.577   9.239  10.860  0.1603  0.0966  0.0338
90829W        W33820   8.752  20.932   9.914  0.0623 -0.0764  0.1712
90830W        W33821  29.464  11.136  26.240 -0.1287  0.0591  0.0228
90831W        W33822  12.386  16.421   4.225  0.2199  0.0748  0.0168
90832W        W33823   4.454  26.856   4.714  0.0581 -0.2257  0.1118
90833W        W33824  19.593  17.552   7.861 -0.0587 -0.0131  0.0050
90834W        W33825  23.721  14.218   2.584 -0.0355  0.3561  0.2451
90835W        W33826   3.074  20.329  20.289  0.0944 -0.1810  0.1337
90836W        W33827  28.331  17.125  10.466  0.0075  0.1248  0.0854
90837W        W33828  29.666  13.044  20.743  0.1755 -0.0550 -0.0163
90838W        W33829  14.150  13.625  20.359 -0.0614  0.1119  0.1555
90839W        W33830  15.443  21.139   6.959  0.1565  0.0968  0.0553
90840W        W33831   9.825  20.513   8.446 -0.0453 -0.1449  0.0481
90841W        W33832  17.380  12.005   8.477  0.3810  0.2563  0.3361
90842W        W33833  12.121   5.176   5.117  0.1773 -0.0468  0.0565
90843W        W33834  19.278   2.722  25.390  0.1981  0.0688  0.0563
90844W        W33835  20.276  17.088   5.424 -0.1881  0.1368  0.0556
90845W        W33836  19.287  22.513   4.592  0.1733 -0.1269 -0.1816
90846W        W33837  17.446  15.789   3.336  0.0961 -0.1789 -0.3735
90847W        W33838  29.032  22.799  23.285  0.1514 -0.0190  0.1871
90848W        W33839  18.429  20.468   6.910  0.0515  0.0174 -0.1155
90849W        W33840   7.045  32.167  26.634 -0.1213  0.1957  0.0993
90850W        W33841  10.826  19.424  20.925  0.0083 -0.2385 -0.1088
90851W        W33842  10.896   6.868   7.822 -0.0989  0.0553 -0.0099
90852W        W33843  25.955  19.030   5.265  0.1607 -0.3446 -0.1905
90853W        W33844  25.553   9.064  14.858  0.2414  0.1275  0.1607
90854W        W33845   0.589  25.892  20.247  0.2347 -0.2261 -0.1580
90855W        W33846   2.082  30.955  28.429  0.0030  0.0557  0.1813
90856W        W33847  29.325  20.344  27.494 -0.0937 -0.0048  0.0543
90857W        W33848   4.353  20.606  20.857 -0.0312  0.0139  0.2016
90858W        W33849   6.831   6.535   4.583 -0.0337  0.0331 -0.1734
90859W        W33850  10.220  11.939  26.593 -0.0289 -0.1648 -0.1754
90860W        W33851  15.307  33.503   1.948 -0.1111  0.1117  0.2132
90861W        W33852  28.735  24.866  28.832 -0.1874  0.1334 -0.0882
90862W        W33853  29.919   7.322  20.547 -0.1767  0.0147 -0.1105
90863W        W33854  10.926   8.218  24.532  0.2979 -0.0484 -0.3297
90864W        W33855  19.939   0.302   3.239  0.0983 -0.2871  0.0637
90865W        W33856  19.559   4.739  28.819 -0.2209 -0.2087 -0.0511
90866W        W33857  12.961  15.820   4.873 -0.1164  0.2247 -0.0660
90867W        W33858  11.819  14.581   0.870 -0.0806  0.0090  0.1996
90868W        W33859  15.474   3.255   9.739  0.0200  0.1033 -0.0011
90869W        W33860  23.942  10.001   0.946  0.0550 -0.0096  0.1267
90870W        W33861   5.284  12.621  25.253 -0.0355 -0.2172  0.0181
90871W        W33862   5.717   7.250   3.122 -0.3579 -0.1469  0.1013
90872W        W33863   0.241  20.043   2.489  0.2574  0.2255  0.0954
90873W        W33864   5.830   8.081   9.310 -0.2179  0.0522  0.2488
90874W        W33865  11.875   7.419   8.341  0.4330 -0.2091 -0.2301
90875W        W33866  20.441  21.390   0.236 -0.0501 -0.1074  0.2098
90876W        W33867  20.779  18.735  23.876  0.0572  0.2340  0.2125
90877W        W33868   6.244   1.828   6.523  0.1082 -0.1959  0.2536
90878W        W33869  31.471  29.877   5.583 -0.4598 -0.3070  0.0803
90879W        W33870   2.153  10.973   4.807  0.0545 -0.0066 -0.0532
90880W        W33871   0.939   0.215   0.799 -0.4027  0.1110 -0.2764
90881W        W33872  22.763   9.556  28.154  0.2683  0.3349 -0.0598
90882W        W33873   5.745  12.366   2.384  0.3669 -0.1959  0.0146
90883W        W33874  11.125   5.516  27.028  0.2891 -0.1632 -0.1046
90884W        W33875  28.599   7.825  17.575 -0.2101  0.4111 -0.1129
90885W        W33876  17.785  21.319   4.610 -0.1437  0.0993  0.0383
90886W        W33877   2.934   4.960   8.372 -0.1955  0.0929 -0.0270
90887W        W33878  33.819  21.916  29.145 -0.0454  0.1154 -0.0234
90888W        W33879  18.415  18.746  12.642  0.0841 -0.0646 -0.1734
90889W        W33880  13.896  33.968   2.616  0.1056  0.4739 -0.1841
90890W        W33881   0.867  12.484   7.723  0.0409 -0.2862 -0.3395
90891W        W33882  19.031  18.835  13.419 -0.2897 -0.3469 -0.1853
90892W        W33883   4.857  28.007  26.081  0.0273  0.2485  0.1052
90893W        W33884  32.217  23.042   7.875  0.2437 -0.3315 -0.2336
90894W        W33885  16.772  16.120   6.235 -0.0665  0.0797  0.2026
90895W        W33886  24.008  20.065   5.259 -0.0339 -0.1340  0.1394
90896W        W33887  13.097   6.434   3.186 -0.2874  0.1865  0.2173
90897W        W33888   0.736  31.444   6.297  0.0598 -0.0789 -0.1405
90898W        W33889   5.362  20.072   8.562 -0.1437 -0.1322  0.0794
90899W        W33890  22.676   8.826   0.124 -0.3179  0.1602 -0.3451
90900W        W33891  30.293  34.137   3.150 -0.1155  0.0078 -0.1259
90901W        W33892  11.316  16.239  28.534  0.1114  0.0449  0.0323
90902W        W33893  14.048  33.285  20.826  0.0340 -0.0273 -0.2420
90903W        W33894  13.425   6.621  19.636  0.0331 -0.0723 -0.1565
90904W        W33895  10.644  33.331   3.713  0.1350 -0.0457  0.2425
90905W        W33896  21.619   0.533  14.383 -0.1853 -0.3603  0.0020
90906W        W33897  18.151  30.368  16.384  0.0030  0.1405 -0.0821
90907W        W33898   4.615   5.461  18.480  0.2356  0.3645 -0.3136
90908W        W33899   5.117  15.965   4.492 -0.0503 -0.0272 -0.4085
90909W        W33900  17.681  24.113   4.341 -0.0072  0.2336 -0.3969
90910W        W33901   8.795  20.638   7.728  0.1489  0.0869 -0.0785
90911W        W33902  12.328  30.571   8.380  0.4430  0.0817  0.0578
90912W        W33903  24.001  21.451   7.506  0.0416 -0.0088 -0.0658
90913W        W33904  25.596   9.466   5.309  0.0260  0.0788 -0.0212
90914W        W33905   4.317  13.735   9.748 -0.0198  0.0789  0.1125
90915W        W33906  11.614  33.324   0.021  0.1137  0.2259  0.0028
90916W        W33907  28.694   7.697  24.525  0.3394  0.1066  0.4297
90917W        W33908   1.477   3.540   5.376 -0.0683 -0.2537 -0.2404
90918W        W33909  18.142   0.386   1.997 -0.1031 -0.1699  0.0143
90919W        W33910   5.469   3.431  18.728 -0.0605 -0.0213  0.2029
90920W        W33911   9.604   9.526   1.432 -0.0346 -0.1612 -0.0676
90921W        W33912  28.661   4.452   3.784  0.0473  0.0511  0.1374
90922W        W33913  14.512   9.673   1.040  0.2784 -0.0139 -0.1683
90923W        W33914  19.895  12.461  16.396 -0.0381  0.0616  0.0838
90924W        W33915  21.059   6.366   4.924  0.0742  0.1592  0.1080
90925W        W33916  20.343  21.066   5.986  0.1371  0.0311  0.0449
90926W        W33917  10.369  30.062  28.215  0.1077  0.0748 -0.0320
90927W        W33918  12.971   4.393   0.248 -0.1500 -0.1408  0.4143
90928W        W33919  14.282  27.447  27.451  0.1208 -0.0199  0.0816
90929W        W33920  21.921  23.424   6.915 -0.0285  0.0999 -0.0166
90930W        W33921   7.792   9.930  24.675 -0.4547 -0.3392 -0.0562
90931W        W33922  20.341  24.465  21.751 -0.0663  0.0447  0.0682
90932W        W33923   7.286  34.215  15.660 -0.2703 -0.0346 -0.0084
90933W        W33924  24.662   5.585   4.746 -0.0482  0.0725 -0.2750
90934W        W33925   4.053  26.983   6.087 -0.0963  0.0180  0.3044
90935W        W33926  31.121  12.115  17.711 -0.0019 -0.1737 -0.1719
90936W        W33927  27.247  18.846  23.645 -0.2378  0.2663 -0.2111
90937W        W33928  10.927  17.361   7.875  0.0860  0.1995 -0.1164
90938W        W33929  15.365   2.749   0.490 -0.1593  0.0423 -0.0555
90939W        W33930   0.286  20.529   6.792 -0.3575 -0.1021  0.0522
90940W        W33931   3.482   4.114   5.602 -0.0008 -0.2501 -0.1626
90941W        W33932  34.650  12.339   6.600  0.2582 -0.2946  0.2670
90942W        W33933   9.782  14.342  25.072  0.2330 -0.0613 -0.0320
90943W        W33934  29.521  18.006  20.822  0.0875 -0.0227  0.1275
90944W        W33935   8.577   7.759   7.248  0.2098  0.2088  0.1344
90945W        W33936  27.437  19.228  19.653 -0.0578 -0.4171 -0.0021
90946W        W33937  13.965   8.396  14.541  0.1206  0.2642 -0.0417
90947W        W33938   7.616  32.897  14.408  0.1524 -0.2564  0.1424
90948W        W33939   2.795  16.701  11.510  0.0247 -0.1043 -0.2515
90949W        W33940  14.312   8.138   6.107 -0.1952  0.1158  0.0269
90950W        W33941  11.695  27.813  18.303 -0.0696  0.1200  0.1244
90951W        W33942   0.977   5.705  29.132 -0.0183  0.2240 -0.2521
90952W        W33943   0.895  10.405  17.736 -0.1344  0.2766 -0.1361
90953W        W33944  25.106  32.736  28.505 -0.3522 -0.1699  0.1291
90954W        W33945  18.471   0.185  27.919  0.2896  0.0303 -0.2129
90955W        W33946  14.243   4.435   7.246  0.1845  0.2885 -0.1564
90956W        W33947   2.873  10.053   9.739  0.0856 -0.0106  0.0093
90957W        W33948  27.424  13.368  16.374 -0.5159 -0.0316  0.1401
90958W        W33949  15.618   1.159   1.853 -0.3316 -0.0321  0.2017
90959W        W33950  20.441  19.529   8.395 -0.1763  0.2755  0.0551
90960W        W33951   2.147  18.175  20.004  0.0224  0.0685 -0.0918
90961W        W33952   7.722   9.403  21.414  0.1632 -0.4137 -0.0854
90962W        W33953  11.877  23.856   3.435 -0.1614  0.0631  0.1541
90963W        W33954  20.002  17.523   2.109  0.3897  0.1950 -0.1464
90964W        W33955  22.480   9.945   3.751  0.1625 -0.0424  0.1501
90965W        W33956  15.808  15.924   4.404  0.4267 -0.0269 -0.0264
90966W        W33957  21.428  29.010   0.960  0.1244 -0.4863 -0.2016
90967W        W33958  20.781  12.608  16.357 -0.2425  0.1871 -0.3069
90968W        W33959   8.065  21.038   9.414  0.2486  0.2692  0.1589
90969W        W33960   1.478  14.636  25.278 -0.0884  0.3431 -0.1849
90970W        W33961  11.687  14.423  17.522  0.3209 -0.0263  0.1506
90971W        W33962  17.958  25.202   8.924 -0.0982 -0.0031  0.3085
90972W        W33963  28.820  28.994   6.101  0.4382 -0.2510  0.1802
90973W        W33964  15.743   7.377   8.486 -0.0825 -0.3857  0.0879
90974W        W33965  15.223  33.585  10.318 -0.2444  0.0406  0.0388
90975W        W33966  32.575  15.359   5.078 -0.0147 -0.1013 -0.0141
90976W        W33967  10.142   7.540   2.748  0.1390 -0.1021 -0.0306
90977W        W33968  15.688  18.780   6.733  0.0347 -0.0097 -0.1115
90978W        W33969   9.295  11.821  16.291 -0.2162  0.2349  0.4192
90979W        W33970   9.591   0.255   4.686  0.2130 -0.0260 -0.0734
90980W        W33971   9.159  31.955  21.913 -0.0991  0.0730  0.0788
90981W        W33972  12.418  32.509  21.216  0.0678 -0.1415  0.0299
90982W        W33973  31.781  22.551   5.629 -0.0626  0.1095  0.0656
90983W        W33974  30.071   9.903  26.627  0.0841 -0.1346  0.2164
90984W        W33975  24.902   9.345  26.281  0.1048 -0.1834 -0.1367
90985W        W33976   3.905   7.815  25.146  0.1066  0.1649 -0.0542
90986W        W33977   9.637  22.811   9.571  0.0020  0.0061  0.1787
90987W        W33978  15.970  30.628   3.094 -0.0237 -0.0182 -0.3241
90988W        W33979   9.208  10.794   4.830 -0.0312  0.6297 -0.2567
90989W        W33980  16.404   9.474   4.574  0.1373  0.0187  0.1527
90990W        W33981   4.640   7.321  16.928  0.3289  0.1118  0.1019
90991W        W33982  16.776  15.107  26.642  0.0081 -0.0759 -0.1688
90992W        W33983  32.954  19.085  28.198 -0.1208  0.0673  0.1573
90993W        W33984   8.933  14.398   1.763 -0.3457  0.0166 -0.0514
90994W        W33985  16.626   0.624  21.806 -0.2002  0.0494  0.1266
90995W        W33986   7.369   0.948   8.712  0.1374 -0.0545 -0.2415
90996W        W33987  14.606   6.069   5.099  0.0462  0.0072 -0.0123
90997W        W33988  20.362   2.616  19.861 -0.2730  0.0411 -0.0723
90998W        W33989   4.417  11.607   6.813 -0.0343  0.0610 -0.2501
90999W        W33990  15.815   6.641   9.565  0.1540  0.1899 -0.1148
91000W        W33991  29.161  20.994   6.165 -0.0752 -0.0136  0.1757
91001W        W33992   8.445  27.558   0.614  0.0146  0.1985  0.0359
91002W        W33993  18.781  24.031  19.213  0.1062 -0.0072 -0.2042
91003W        W33994  20.474  14.867  28.604 -0.1473  0.0019 -0.1789
91004W        W33995  18.552  12.016   8.789 -0.0269 -0.2440  0.0074
91005W        W33996  15.451  17.349   8.139  0.1578 -0.2431  0.1675
91006W        W33997   3.006  11.854   4.631 -0.1459 -0.2067  0.0433
91007W        W33998  22.952  21.246   5.362 -0.0982 -0.2923 -0.2321
91008W        W33999  23.113  32.559   5.330  0.0083 -0.2475 -0.1688
91009W        W34000   9.332  21.021   1.514 -0.2336 -0.0624  0.1333
91010W        W34001  14.187  14.566   0.969 -0.0640 -0.0198  0.1982
91011W        W34002  12.286  21.057  21.548  0.2270  0.1404 -0.0362
91012W        W34003  24.121  28.842  24.204 -0.1952  0.0098  0.1086
91013W        W34004  29.288   7.340  24.167 -0.0123 -0.1254  0.0299
91014W        W34005   2.698   4.494   7.653 -0.1308 -0.0371  0.0792
91015W        W34006  22.737   4.796  22.666 -0.1382 -0.3316  0.1350
91016W        W34007  21.652   5.164  24.216  0.2360  0.0312 -0.4941
91017W        W34008  18.047   8.033  19.171 -0.0487 -0.1791  0.0225
91018W        W34009  33.116   8.418  29.089  0.2410 -0.1386  0.0154
91019W        W34010   9.281   9.777   2.819  0.1210 -0.1058  0.2254
91020W        W34011  13.478  14.234  27.007 -0.0745  0.2258 -0.0941
91021W        W34012  15.753  33.605   8.995  0.1617  0.3361 -0.1805
91022W        W34013  14.328  18.004   5.597  0.3451  0.0123 -0.0946
91023W        W34014  15.211  24.122  20.262  0.0530  0.1959 -0.0909
91024W        W34015  33.974   8.759   2.226  0.2918  0.1270 -0.0513
91025W        W34016  12.800   2.595  21.976  0.0041  0.0585  0.0518
91026W        W34017   6.669  26.660  26.944 -0.1746  0.1125 -0.0364
91027W        W34018  24.618   6.328   9.250  0.2711  0.0302 -0.0143
91028W        W34019   9.635  24.907  21.491 -0.1747 -0.1273  0.1708
91029W        W34020  26.952  10.774   5.398  0.3159 -0.3088 -0.1607
91030W        W34021   8.669  34.257  24.654 -0.0449  0.0794 -0.0381
91031W        W34022  32.972  12.957  27.967 -0.2596  0.1672 -0.3134
91032W        W34023  11.781  17.140  27.844  0.0981  0.4100  0.0644
91033W        W34024   7.061   7.738   3.423 -0.1087  0.2255  0.0456
91034W        W34025   3.892   5.744  20.548 -0.1426  0.0695  0.4132
91035W        W34026   1.639  21.176   0.670  0.0122  0.1878 -0.0200
91036W        W34027   3.663  29.940   3.492  0.0451  0.0915  0.0897
91037W        W34028  29.491  25.947   3.022 -0.2616  0.3149  0.3726
91038W        W34029  12.350  17.249  26.490 -0.1528  0.0155 -0.1916
91039W        W34030  14.246   1.687   7.714 -0.3313 -0.1162 -0.3293
91040W        W34031   5.059   2.292   5.716  0.3816 -0.2890 -0.1255
91041W        W34032   3.802  13.625  16.044 -0.3194  0.0145  0.3187
91042W        W34033  21.457  31.034   7.367  0.2657  0.1892  0.2063
91043W        W34034   3.268  13.577  26.637 -0.1022  0.0440 -0.2438
91044W        W34035   6.056  27.071   8.176 -0.3211 -0.0613  0.1632
91045W        W34036  16.797  30.091   2.277 -0.2471  0.1808  0.1009
91046W        W34037  17.087  21.304  26.973  0.0805  0.4319  0.1169
91047W        W34038  18.078  19.853   3.474  0.2404 -0.0282  0.0698
91048W        W34039  25.797   0.628   0.917  0.2651  0.0134  0.0516
91049W        W34040  17.408   7.417  27.167 -0.2430  0.3023  0.0141
91050W        W34041  33.848   4.885   8.020  0.0180 -0.1694 -0.1001
91051W        W34042  26.993   3.276  27.561 -0.0602  0.2077 -0.1888
91052W        W34043  34.468  18.195   7.351  0.1397 -0.2049  0.0272
91053W        W34044  11.731  14.020   8.307 -0.0221 -0.0515  0.1518
91054W        W34045  29.951  19.187  24.892 -0.2003 -0.3212  0.1840
91055W        W34046   2.152  16.097  27.378  0.1472 -0.2747 -0.1265
91056W        W34047  28.744  26.213   6.537  0.0704 -0.0322  0.1309
91057W        W34048  15.907  16.556   5.484 -0.0861  0.0025 -0.4574
91058W        W34049  24.140  10.520   8.111 -0.0261 -0.1276 -0.1030
91059W        W34050   6.419   9.591   2.445 -0.1723  0.1958  0.0667
91060W        W34051   9.875   8.866   8.930 -0.1380  0.5444 -0.0405
91061W        W34052   8.230   7.591   4.079 -0.0289  0.1857 -0.0308
91062W        W34053  25.815  17.366  19.113 -0.2697  0.0306  0.0652
91063W        W34054  19.737   1.201  26.183  0.0394  0.0522  0.0614
91064W        W34055  34.058  23.229   9.236 -0.1616  0.2023  0.1148
91065W        W34056   8.549  22.830   6.365  0.3090 -0.4123 -0.1482
91066W        W34057  23.608  17.656  23.434  0.3843  0.0275  0.1214
91067W        W34058  16.992   6.197  19.566 -0.1944  0.2884 -0.0642
91068W        W34059  23.812  27.823   4.493 -0.0592  0.1598  0.0696
91069W        W34060  16.729  21.640   2.295 -0.0060  0.0143  0.0130
91070W        W34061  31.424  10.076   7.947 -0.0141 -0.3351  0.1827
91071W        W34062  13.659  23.135   6.412  0.0537  0.0142 -0.4367
91072W        W34063   7.122   9.038  24.906 -0.0096  0.0325 -0.1607
91073W        W34064  21.433  18.456   7.489 -0.0329  0.1524  0.2362
91074W        W34065  13.423   1.137   8.202  0.1449 -0.1792  0.1005
91075W        W34066  17.922  28.066  27.128 -0.1100  0.0816 -0.0383
91076W        W34067   6.366  21.509   4.842  0.0363 -0.2860  0.0595
91077W        W34068  16.802  13.193   2.884 -0.0144 -0.0718  0.3536
91078W        W34069  15.970   1.869   8.767  0.3245  0.0288 -0.0062
91079W        W34070  23.547   0.474   5.433 -0.0162  0.1480  0.0023
91080W        W34071  32.888  14.869   1.577  0.0736 -0.3904 -0.3068
91081W        W34072  15.449  17.042   4.845 -0.3183 -0.0687 -0.1080
91082W        W34073  16.623   9.208   6.577  0.0076 -0.1007 -0.1192
91083W        W34074  32.501  15.557  10.789 -0.0848  0.2472  0.0008
91084W        W34075  11.884  27.202   5.217 -0.3000 -0.0609  0.0056
91085W        W34076  32.093   8.630  27.004  0.1675  0.0427  0.0634
91086W        W34077  26.324   6.114   2.162  0.2910 -0.1558  0.1054
91087W        W34078   2.474  25.733   4.050  0.0720 -0.2420  0.0260
91088W        W34079  15.874  19.616   9.123 -0.1573 -0.1708 -0.2259
91089W        W34080  11.579  34.522   6.722  0.1381 -0.0408 -0.0855
91090W        W34081  15.444  13.052  22.853 -0.2649  0.2617  0.0018
91091W        W34082   0.534  24.984   2.857 -0.1286 -0.0625  0.0985
91092W        W34083   9.345  12.295  20.084 -0.3028 -0.1435 -0.2397
91093W        W34084  28.676  10.905  24.099 -0.0191 -0.0900 -0.0636
91094W        W34085  11.389   9.141   7.815 -0.1689 -0.1123 -0.2967
91095W        W34086  24.148   3.527   9.360  0.0866  0.2136 -0.2607
91096W        W34087  14.369   2.045   4.462 -0.1133 -0.2589 -0.0388
91097W        W34088  10.211  11.680  21.411  0.2753  0.1621  0.2454
91098W        W34089   1.585  12.869   8.409 -0.0431 -0.2444 -0.3297
91099W        W34090   0.762  34.258   5.910 -0.1707  0.0038  0.2423
91100W        W34091  34.676  15.391  10.367 -0.3419  0.1028 -0.0246
91101W        W34092  21.936  32.328  29.032 -0.1576 -0.0308  0.4736
91102W        W34093   0.920  18.464   0.828  0.0207  0.1419 -0.0679
91103W        W34094  22.516  13.700  25.477  0.0881 -0.2700  0.1746
91104W        W34095  19.629   9.405   7.851 -0.1756 -0.0547 -0.2212
91105W        W34096  12.519  15.588   4.882 -0.0034 -0.1735  0.0443
91106W        W34097  20.897  21.440  26.241 -0.1484  0.1940  0.0105
91107W        W34098   9.705   6.702  29.181 -0.1497 -0.0951  0.0557
91108W        W34099  28.131  11.689   3.781 -0.2334  0.1821  0.0508
91109W        W34100  28.456  29.405   2.353 -0.3707  0.0305  0.0361
91110W        W34101  20.945  34.677  21.773  0.1576  0.1739 -0.2502
91111W        W34102  15.420  17.230   0.053 -0.2580  0.1444  0.1447
91112W        W34103   0.599  14.550  15.277 -0.1483  0.1655  0.0571
91113W        W34104  22.816  34.204   4.798 -0.3491  0.2849  0.1890
91114W        W34105  17.702  26.872   1.449  0.2336 -0.0633  0.3123
91115W        W34106  25.868  10.930   2.387 -0.2462 -0.0514  0.0707
91116W        W34107  17.885   5.649  27.798 -0.1779 -0.2406 -0.0573
91117W        W34108  10.998  23.679  29.232  0.2776  0.5123 -0.0557
91118W        W34109  30.992  20.957  27.736  0.1243 -0.0508 -0.3171
91119W        W34110   4.127   9.406  19.550 -0.0309 -0.0116 -0.2823
91120W        W34111   8.811  11.287   3.752 -0.0498 -0.0199 -0.2297
91121W        W34112  15.338  15.462  26.394 -0.2416  0.0326  0.1784
91122W        W34113   2.504  12.563   4.060  0.2945  0.1756  0.1659
91123W        W34114  10.103  33.321  26.073 -0.0509 -0.1128  0.0464
91124W        W34115   8.985  19.234   5.787 -0.4232 -0.1115  0.0412
91125W        W34116  34.349  14.964   1.910 -0.0644 -0.1378 -0.1627
91126W        W34117  15.411  15.591  25.721  0.0580  0.0851 -0.1994
91127W        W34118  16.669   6.240  25.871 -0.0407 -0.0697 -0.0966
91128W        W34119   7.040  11.555   9.709  0.0473 -0.3924  0.1106
91129W        W34120  26.493   8.541   6.751  0.0853  0.1755  0.2309
91130W        W34121   7.404   3.847   0.159 -0.0737 -0.0176 -0.0365
91131W        W34122  14.546  18.416  23.437  0.0236  0.1412  0.0706
91132W        W34123  20.155  12.212   9.354 -0.0641 -0.0507 -0.1092
91133W        W34124  14.193  19.276  15.539  0.1778  0.0327  0.1551
91134W        W34125  13.819   7.660   3.876 -0.0963 -0.0285  0.0382
91135W        W34126  19.722  13.410  21.967  0.0190  0.0028 -0.1383
91136W        W34127   6.284  10.915  20.903  0.0750 -0.1563  0.1943
91137W        W34128  15.551  29.866   0.164 -0.0929 -0.0641  0.0253
91138W        W34129  22.947   8.541  23.171  0.0755 -0.4157 -0.0597
91139W        W34130  10.895  33.066  20.231 -0.1491 -0.6150 -0.0741
91140W        W34131   8.534  18.754  14.071 -0.0034 -0.0866  0.0274
91141W        W34132   6.469  20.548  24.878  0.1583  0.1224 -0.2953
91142W        W34133   0.152   6.049   0.820  0.1484  0.0940 -0.1731
91143W        W34134  18.890  15.647  11.959 -0.1502  0.2863 -0.1943
91144W        W34135   9.564   1.691   0.908  0.2683 -0.0328 -0.2350
91145W        W34136  19.655  34.732  28.614 -0.2401  0.0764 -0.1509
91146W        W34137  10.131  23.416  27.827  0.3262  0.2626 -0.2910
91147W        W34138  19.942  20.721  22.207  0.1997  0.0265  0.0556
91148W        W34139  10.362  22.031  20.984  0.0844  0.1462  0.1408
91149W        W34140  26.859  34.266   6.093 -0.0204 -0.1035  0.0349
91150W        W34141  15.227  28.697   8.280  0.1676  0.0766 -0.0323
91151W        W34142  20.802  17.758   0.798  0.4363  0.2572  0.1948
91152W        W34143   6.870  24.267  14.483  0.0084  0.0462  0.0114
91153W        W34144  16.955  16.337   6.720  0.0457 -0.0471  0.1368
91154W        W34145  10.154  17.225  25.976 -0.0730 -0.1978 -0.2114
91155W        W34146   1.971  19.262  22.621 -0.0955 -0.0328  0.0375
91156W        W34147   3.651  18.637  21.561 -0.0807  0.0700 -0.0178
91157W        W34148  19.112   6.629   0.353  0.1994  0.3393  0.1863
91158W        W34149  14.421  14.206   3.441  0.1878 -0.0701  0.2613
91159W        W34150  12.229  11.424   5.253 -0.0069 -0.0177 -0.0469
91160W        W34151   2.058  15.432   8.277 -0.2962 -0.2588 -0.0793
91161W        W34152  12.646   6.533   8.963 -0.1935  0.1098 -0.0039
91162W        W34153   9.571   3.003  20.948 -0.2156  0.0991 -0.7592
91163W        W34154  29.478  12.059   0.341  0.0410 -0.3091  0.2019
91164W        W34155  13.492   5.262   3.816 -0.0474 -0.1710 -0.2875
91165W        W34156  23.708  11.883   7.717  0.0378 -0.0370 -0.1481
91166W        W34157  16.473  16.094   2.237  0.0941 -0.0776 -0.1143
91167W        W34158   5.342   4.309   5.972  0.1594 -0.1471  0.2907
91168W        W34159   8.955  20.476  10.021  0.1391 -0.0980  0.3439
91169W        W34160  16.821  29.250   4.447 -0.2746  0.2396 -0.0403
91170W        W34161   3.115  11.993  11.534  0.1657 -0.0556 -0.0903
91171W        W34162   0.585  11.546  17.364  0.2636 -0.1762 -0.0162
91172W        W34163  13.581   0.324   2.996 -0.0716  0.0425  0.1508
91173W        W34164  18.827  15.067   6.597 -0.0360  0.0928 -0.2830
91174W        W34165  11.329  27.252   4.401  0.0170  0.0102 -0.2572
91175W        W34166   6.812  26.003   9.104  0.1749 -0.0181  0.2283
91176W        W34167  16.713   6.574  11.191 -0.1431  0.1817 -0.1169
91177W        W34168  25.177  24.030  23.696  0.0371  0.0466  0.0678
91178W        W34169   4.300  20.948   1.793  0.0758  0.0516 -0.3039
91179W        W34170  25.346  12.703  16.867 -0.0060  0.0432 -0.2663
91180W        W34171  20.502  33.050  25.315  0.2305  0.0670  0.0456
91181W        W34172  14.328   3.642   5.008  0.1352 -0.3809  0.4668
91182W        W34173  14.422   4.170  23.726  0.0237  0.2135 -0.0048
91183W        W34174   6.491   4.376   7.429 -0.0166 -0.2706 -0.3917
91184W        W34175  13.996  19.119   6.606 -0.1037  0.3457  0.4584
91185W        W34176   7.467  15.543  23.740  0.1968 -0.0683  0.0649
91186W        W34177   6.744  24.766  29.110 -0.4422 -0.0006 -0.1426
91187W        W34178  15.952   6.653  23.459 -0.1904 -0.1367  0.2475
91188W        W34179  13.520  19.790  18.184 -0.2995  0.0184 -0.1946
91189W        W34180  16.821  10.770  23.422  0.0456 -0.1979  0.1502
91190W        W34181  27.210  12.270   9.020 -0.4048 -0.0792 -0.1550
91191W        W34182   6.285  12.335   7.825  0.1255  0.0635  0.2042
91192W        W34183   3.261   0.983   7.720 -0.0559 -0.4372 -0.0717
91193W        W34184  15.538  19.659   2.068 -0.4108 -0.0053  0.2492
91194W        W34185  11.708  27.974   5.854 -0.0740  0.1328 -0.2817
91195W        W34186   8.975  14.012  10.918 -0.3223  0.2892  0.2250
91196W        W34187  12.435   6.411  24.295 -0.1148 -0.0172  0.0206
91197W        W34188  12.677  19.237   5.729  0.2463 -0.1326  0.0614
91198W        W34189  11.810  10.040   8.226  0.0357 -0.1197  0.2001
91199W        W34190   5.496  18.554   1.404 -0.2955 -0.2796 -0.0029
91200W        W34191  15.696  19.554   5.610  0.0814 -0.0173 -0.2374
91201W        W34192   4.384  12.818   0.644  0.0460 -0.3394 -0.0712
91202W        W34193  12.253   8.424  10.676 -0.0710 -0.0060  0.0725
91203W        W34194  10.387   9.465   7.504  0.1652 -0.2483 -0.0334
91204W        W34195   8.166  10.954  25.688  0.0109 -0.3011 -0.0439
91205W        W34196  27.845   6.788   6.274 -0.0850  0.1049  0.4059
91206W        W34197  21.713  17.063   3.575 -0.2953  0.0975 -0.1470
91207W        W34198  15.745   9.374   7.745  0.2624  0.0371  0.2882
91208W        W34199  29.948  13.066   1.580 -0.0169  0.3928  0.0418
91209W        W34200  20.602  32.180   2.239 -0.1951  0.0157  0.0744
91210W        W34201  21.074  10.209   5.654 -0.2830 -0.2346  0.0625
91211W        W34202  25.949  16.942   2.446 -0.2186  0.3119  0.2496
91212W        W34203  17.079  29.768   2.589  0.0579  0.2283  0.0819
91213W        W34204  13.076   9.995  19.565 -0.0019 -0.1576 -0.0126
91214W        W34205   9.135  10.747   8.778  0.0514 -0.0464 -0.1182
91215W        W34206   5.393   7.293  22.801 -0.1892  0.0873  0.0606
91216W        W34207  13.124   1.415   6.784  0.1800 -0.2555 -0.3251
91217W        W34208   1.570   3.126   4.820 -0.1242  0.0476  0.1957
91218W        W34209  12.557  13.658  22.630 -0.0419 -0.1719  0.0816
91219W        W34210  14.493  14.963   7.640  0.1777  0.2601  0.0368
91220W        W34211  16.339  11.691   0.527  0.4598 -0.0317  0.0695
91221W        W34212  18.377   9.822  26.557 -0.3798 -0.1919  0.1613
91222W        W34213   2.560  28.100   2.383 -0.3478  0.0428 -0.1088
91223W        W34214  19.027  17.134  29.115 -0.4097 -0.1026  0.2985
91224W        W34215  15.110  24.235   6.151 -0.1461  0.2550 -0.1984
91225W        W34216  22.281   0.664   9.019  0.1833  0.2443 -0.2352
91226W        W34217   3.545  12.399   2.482 -0.0495 -0.3456  0.0330
91227W        W34218  15.321  12.321   9.855  0.1085  0.2587 -0.2685
91228W        W34219  16.560  11.771   7.308  0.2574  0.1104 -0.2509
91229W        W34220  10.039  29.324   0.556  0.2062 -0.0056 -0.1589
91230W        W34221   0.747   8.442  16.802  0.0537  0.2540 -0.0856
91231W        W34222  17.673   4.755   4.550 -0.0254 -0.0902  0.1152
91232W        W34223   7.635  12.665   9.946 -0.0355 -0.1223 -0.1114
91233W        W34224   0.458  29.998   1.369  0.0526  0.0877 -0.0675
91234W        W34225  32.625   7.937   8.414 -0.1880 -0.1057 -0.1998
91235W        W34226  33.152  24.717   7.049  0.0231  0.0740 -0.3301
91236W        W34227  19.805  15.648   0.295 -0.2029  0.0648  0.0396
91237W        W34228  17.134   2.587   7.589 -0.1334 -0.0458  0.0379
91238W        W34229   4.120  25.009   5.483  0.1806 -0.2431  0.1970
91239W        W34230   7.927   3.971   8.221  0.0266  0.2957 -0.0395
91240W        W34231  32.290   3.119   2.640  0.1452 -0.0052  0.0233
91241W        W34232  29.001  30.961   5.658 -0.1067 -0.1963 -0.0506
91242W        W34233  20.415  32.245   9.066  0.2060 -0.0295 -0.1831
91243W        W34234  33.255  25.422   5.280 -0.1198  0.0772 -0.0466
91244W        W34235  13.096  12.347   6.999 -0.0240 -0.3031 -0.3385
91245W        W34236  13.228   6.314  16.041 -0.0535  0.2054 -0.1229
91246W        W34237  12.368  16.395   8.582  0.1077 -0.0204 -0.1046
91247W        W34238  22.502   5.783   7.510  0.4506 -0.3060 -0.0859
91248W        W34239   5.812  13.008   6.506  0.1196  0.0977  0.2611
91249W        W34240   3.316   8.673   5.986  0.0768 -0.0382  0.0266
91250W        W34241  12.844  15.874  20.077 -0.1155  0.1050 -0.0608
91251W        W34242  17.742  28.188   7.969  0.0619 -0.0075  0.1656
91252W        W34243  16.783   7.838  25.472  0.0342  0.2526 -0.0749
91253W        W34244  13.914  33.168   9.124  0.0863 -0.0075  0.2623
91254W        W34245   0.725  25.109   0.089  0.2352  0.1119  0.1453
91255W        W34246   4.384   8.817   5.668 -0.0970 -0.2241 -0.0212
91256W        W34247   6.728   5.748  10.060  0.0402  0.0413 -0.3475
91257W        W34248  14.965  13.508  26.487 -0.0119  0.0365 -0.1139
91258W        W34249   5.239   7.218  10.000  0.3685  0.0541  0.0819
91259W        W34250   1.416  26.546   2.858  0.0693 -0.1948 -0.2865
91260W        W34251  16.889  25.624   8.098 -0.1854 -0.0654 -0.1229
91261W        W34252  12.460  31.136   0.455  0.0474 -0.0206  0.0330
91262W        W34253  11.473  17.167   2.885  0.0540 -0.1069  0.0893
91263W        W34254  16.954  16.296  25.709 -0.0707  0.1491  0.0742
91264W        W34255  34.539  16.480  10.532 -0.2451 -0.0318  0.1288
91265W        W34256  24.921   4.582   4.812  0.1854 -0.1102 -0.1138
91266W        W34257  13.244  23.022   8.357 -0.1812  0.1946  0.0313
91267W        W34258  31.855   5.191   8.789 -0.3563  0.0267  0.1089
91268W        W34259   4.339   5.422   2.833  0.0580  0.1398 -0.0730
91269W        W34260  15.333   7.589   7.568 -0.0542 -0.1855  0.1056
91270W        W34261  11.631  16.378  28.915  0.0691  0.3392 -0.1350
91271W        W34262  32.462  15.624   5.810  0.0803  0.0589  0.0007
91272W        W34263  14.157  21.006   7.008  0.0505 -0.0249  0.0321
91273W        W34264   1.117  31.565   6.598  0.0250 -0.0763  0.2407
91274W        W34265  18.080  28.992   8.390  0.1590  0.2608  0.3732
91275W        W34266   7.279  24.590  21.106 -0.1333  0.0340 -0.0485
91276W        W34267  14.720   9.978  28.914  0.0753  0.0466 -0.1889
91277W        W34268   5.134  14.260  20.928 -0.1356 -0.3293 -0.1516
91278W        W34269  17.253  15.153  29.185  0.2285 -0.0465  0.3474
91279W        W34270   6.416   7.746  19.772 -0.1521  0.2077 -0.1124
91280W        W34271   4.120   6.122   3.265  0.0683 -0.1426 -0.0809
91281W        W34272   9.285  29.449  28.056  0.1056  0.0061 -0.1884
91282W        W34273  14.670  21.640  27.366 -0.3739 -0.0179 -0.3770
91283W        W34274   6.462  12.254  16.732  0.1667  0.1878  0.1122
91284W        W34275   3.270  11.885  10.405  0.1876 -0.1389  0.1771
91285W        W34276  19.462   6.728   3.059 -0.1036  0.2298 -0.0035
91286W        W34277  24.408   5.055  16.625 -0.2373  0.1604  0.0464
91287W        W34278   7.768  21.175   9.888 -0.0505 -0.0953  0.0191
91288W        W34279  11.702  24.061  15.621 -0.2092  0.3198  0.3231
91289W        W34280   8.720  32.223  29.012 -0.0803 -0.0664 -0.2120
91290W        W34281   8.377  10.384   4.895 -0.1023  0.0183  0.4794
91291W        W34282   3.738  14.259  11.582 -0.3080  0.0943 -0.1505
91292W        W34283  32.904  29.168   8.802 -0.2488  0.2005 -0.1838
91293W        W34284   2.463   2.391   0.229 -0.2011 -0.1196 -0.3031
91294W        W34285  14.190  16.434   7.385 -0.0551  0.0571  0.3067
91295W        W34286  16.572  30.468   1.220  0.0443  0.2825 -0.2062
91296W        W34287   6.958   0.810  20.021  0.0265 -0.2268  0.0190
91297W        W34288   8.756  11.570  23.462  0.0556 -0.0026 -0.2560
91298W        W34289  24.379  17.949  22.339  0.2884 -0.0682 -0.1192
91299W        W34290  19.682  31.960   3.896 -0.0486 -0.0490  0.2244
91300W        W34291   9.089   9.226   8.727 -0.1589 -0.1586  0.4003
91301W        W34292  34.461   8.217  17.373 -0.1048 -0.1328  0.1527
91302W        W34293  10.289   9.886   2.282  0.1123  0.0714 -0.0127
91303W        W34294   9.315  18.818   8.335  0.1979 -0.2872  0.1294
91304W        W34295   5.805   1.168   8.651  0.0722 -0.0675  0.1595
91305W        W34296   8.898  33.243  20.743  0.1965  0.2820  0.5023
91306W        W34297  13.560  11.064   6.861 -0.0401  0.0959 -0.0326
91307W        W34298   8.226  34.601  20.795 -0.2859 -0.2032 -0.1834
91308W        W34299  32.414   1.190  27.661 -0.0232  0.2278  0.2115
91309W        W34300   8.775   5.476   5.557 -0.1561 -0.3336  0.1881
91310W        W34301   2.732   3.917   7.010  0.1043 -0.1008  0.0567
91311W        W34302  10.661  15.888  23.455 -0.0705 -0.0329  0.1158
91312W        W34303  30.047  10.060  14.099 -0.2328 -0.0155  0.0304
91313W        W34304   3.754  32.278  21.978 -0.0463  0.2792  0.0214
91314W        W34305   2.426   9.595   0.782  0.0231 -0.0564  0.0375
91315W        W34306  10.687  22.637  29.253  0.0356 -0.0947 -0.0048
91316W        W34307   1.321  33.607  27.707  0.0040 -0.1123 -0.1336
91317W        W34308  10.195  15.662   9.423 -0.2557 -0.1251 -0.0399
91318W        W34309   6.349   5.456  24.660 -0.1329  0.0323 -0.2408
91319W        W34310  20.231  10.620   4.861 -0.1693  0.2339 -0.1909
91320W        W34311  18.741   1.611   5.687  0.0366  0.1773  0.4853
91321W        W34312   3.367  13.735   5.150 -0.0967  0.1314 -0.1668
91322W        W34313  23.312  15.189   1.911 -0.0213 -0.0660  0.4186
91323W        W34314  14.379  20.030   8.211  0.1685  0.1422 -0.0910
91324W        W34315  17.309   9.799  22.087  0.1828  0.2240 -0.1412
91325W        W34316  20.440  19.373   4.319  0.1544 -0.1280  0.0464
91326W        W34317   6.126  17.374   7.910 -0.2093 -0.1910 -0.1385
91327W        W34318  18.564  28.711  23.856 -0.1251 -0.0727  0.0177
91328W        W34319   4.770  28.159  27.399  0.3920 -0.1181 -0.1360
91329W        W34320  11.004  10.063   2.112  0.1762  0.0592  0.1029
91330W        W34321   8.635   5.607   8.113 -0.0728 -0.0179  0.3367
91331W        W34322   2.900  13.866  23.600  0.1132 -0.0595  0.0708
91332W        W34323   2.391  25.356  23.493 -0.1943 -0.0624 -0.1691
91333W        W34324   0.382  30.475   3.456  0.3370 -0.5681 -0.0241
91334W        W34325   3.634  23.916   7.977 -0.1374 -0.1635  0.1754
91335W        W34326  25.077  34.700   8.115 -0.1325 -0.0721  0.1467
91336W        W34327  25.896  31.619  25.287 -0.1836 -0.0439 -0.2210
91337W        W34328   2.894  14.477  24.847 -0.1331  0.2039  0.3691
91338W        W34329   3.223  15.954  11.623 -0.0650 -0.1157  0.0096
91339W        W34330   6.633   2.825   2.580  0.0430  0.4399 -0.1584
91340W        W34331   9.886  28.848   4.079 -0.0488  0.1577 -0.0449
91341W        W34332   1.396  28.042   9.211  0.3752  0.4435 -0.0289
91342W        W34333  12.566  23.743   8.304  0.2320 -0.2737 -0.1697
91343W        W34334   6.775   7.027   8.277 -0.0490 -0.0348 -0.0049
91344W        W34335  16.505  10.556  28.831 -0.2534  0.0050  0.1235
91345W        W34336  14.647  13.707   1.099  0.0104 -0.0748  0.2615
91346W        W34337  14.529   8.331  11.041  0.2520  0.0418 -0.1566
91347W        W34338  18.637  17.388   5.175 -0.1349 -0.4808  0.2137
91348W        W34339  11.100  29.863   6.970 -0.2140 -0.0689  0.1941
91349W        W34340  26.628   5.431   0.331  0.2192 -0.1682  0.1433
91350W        W34341   5.203  20.126   4.175 -0.1353 -0.2267 -0.0906
91351W        W34342  22.743  22.217   2.159  0.2145  0.0542  0.2244
91352W        W34343  27.512   0.398  26.957  0.2470 -0.4386 -0.1919
91353W        W34344  11.081   6.630   9.269 -0.2329  0.2631  0.0854
91354W        W34345  10.796  10.241  23.567 -0.1500  0.0763  0.2345
91355W        W34346   9.235   0.675  10.186  0.0364  0.0311  0.3571
91356W        W34347   1.051   7.326   7.964  0.2193 -0.5059  0.1182
91357W        W34348   5.275   8.669   5.122  0.4032 -0.0610 -0.2935
91358W        W34349   0.292  16.027   4.937 -0.1128  0.1977  0.2229
91359W        W34350  17.378  25.156   8.827  0.0314  0.1195  0.0061
91360W        W34351  21.403   6.619   3.794  0.1092  0.1008  0.1520
91361W        W34352   3.644  19.404  11.043 -0.4554  0.3489  0.1758
91362W        W34353  14.414  23.571   8.814 -0.0601 -0.3758 -0.2866
91363W        W34354  19.560   3.766  29.180  0.1228 -0.0782  0.0540
91364W        W34355  30.263   4.596   9.458  0.2582 -0.1321 -0.1868
91365W        W34356  20.380  19.213  23.552 -0.0227  0.1481  0.0496
91366W        W34357  19.525  16.107   1.775 -0.1595  0.2917 -0.0104
91367W        W34358   4.717   1.314   9.006 -0.0723  0.1800  0.3280
91368W        W34359  24.665   9.963  28.313 -0.3268 -0.0539 -0.0710
91369W        W34360  18.025   4.407   3.485  0.2699  0.1498  0.0960
91370W        W34361  24.611  10.350   2.700 -0.0880 -0.0272  0.1464
91371W        W34362  14.317  20.360   2.750  0.1817  0.2602 -0.2583
91372W        W34363  11.874   5.859   9.715 -0.2582  0.1527  0.1553
91373W        W34364  15.930  22.491   8.235  0.1387 -0.1311  0.2676
91374W        W34365   3.597  20.648   3.563  0.0240 -0.0823 -0.2079
91375W        W34366  12.662   2.662   4.592 -0.2877  0.1053  0.3769
91376W        W34367   3.236  16.845   7.122  0.0873  0.1686 -0.1041
91377W        W34368  27.896  23.134   8.473  0.1583  0.0444  0.0751
91378W        W34369   2.631  28.250   7.155 -0.3386  0.0872 -0.0362
91379W        W34370  18.031  27.010  20.629  0.1933  0.1309 -0.2194
91380W        W34371   1.217  18.164   9.448  0.0519 -0.1450  0.1605
91381W        W34372  21.907  33.838  16.835  0.1821  0.2404 -0.0136
91382W        W34373   7.426  11.019  29.251  0.2673 -0.6042  0.4426
91383W        W34374  16.454  20.160   7.439  0.0830 -0.1977 -0.0285
91384W        W34375  17.262  20.630  25.459  0.1451 -0.1501  0.0330
91385W        W34376   9.064   2.313  10.537  0.1704  0.1382 -0.0394
91386W        W34377  18.548   4.434   3.964 -0.0679 -0.0300  0.0808
91387W        W34378   9.283  31.597   9.594 -0.0906  0.0989  0.1344
91388W        W34379  13.842  17.464   3.096  0.1042 -0.0560 -0.1173
91389W        W34380  11.977  26.399   6.184  0.0293 -0.2043  0.0152
91390W        W34381  10.982  15.098  10.238  0.0249 -0.0906  0.1356
91391W        W34382  14.776   8.028  10.002 -0.2210 -0.2620  0.2109
91392W        W34383  13.507   4.317  28.674  0.1397 -0.1289 -0.1200
91393W        W34384   4.827  19.057   3.603  0.0711 -0.2961  0.1076
91394W        W34385  18.809  16.403   6.296 -0.0647  0.3167  0.0533
91395W        W34386   3.344  21.029  10.811 -0.0307 -0.0909  0.1342
91396W        W34387  12.247  11.249   0.597 -0.0614  0.0617  0.0385
91397W        W34388  25.232   4.151   2.217  0.1969  0.0157  0.1547
91398W        W34389   8.394   8.190  27.004 -0.3634  0.0878  0.2009
91399W        W34390   6.543  19.079  10.265 -0.0290  0.2194  0.3515
91400W        W34391   6.477   4.375   9.275  0.4602 -0.1018  0.3844
91401W        W34392   4.683   9.143   7.193  0.2183  0.2877 -0.2142
91402W        W34393  15.061  20.837   3.283  0.0180 -0.1397 -0.1595
91403W        W34394  10.720  14.290   2.865 -0.1883 -0.0447  0.1357
91404W        W34395   9.121  19.984  10.546 -0.3160  0.2707  0.0219
91405W        W34396  11.628  24.635   5.584  0.0361  0.1357  0.1533
91406W        W34397  15.596  23.519  17.592 -0.3678  0.0518  0.2755
91407W        W34398  23.410  13.277   1.121 -0.0862 -0.0321 -0.5643
91408W        W34399   8.944  17.874   6.180 -0.0063 -0.1377 -0.0623
91409W        W34400  14.571  13.405  27.012 -0.2099  0.3698  0.1082
91410W        W34401  19.845  11.862   6.329  0.0465 -0.0454  0.0630
91411W        W34402   5.567   8.483   7.880 -0.3197  0.2055  0.0174
91412W        W34403  20.363  14.328   7.711  0.0803  0.2461  0.2319
91413W        W34404   5.688   7.596   5.109 -0.0347  0.1724  0.2591
91414W        W34405   7.037   2.347   9.852  0.0596  0.1527  0.0711
91415W        W34406   7.893  21.054  23.192  0.1502  0.1523  0.1175
91416W        W34407  32.600  16.932  27.045 -0.0423 -0.2202  0.1162
91417W        W34408  11.451  23.952  25.640 -0.1990  0.1550 -0.0395
91418W        W34409  12.886   3.858   6.337 -0.0997  0.0373 -0.1133
91419W        W34410  13.978   9.975   9.280 -0.1011 -0.0445 -0.0306
91420W        W34411  15.551  19.825   6.020 -0.1425 -0.0552  0.1717
91421W        W34412  14.439  13.170   0.837  0.4243 -0.3286 -0.0339
91422W        W34413   1.543  13.146  10.721 -0.0553  0.0612 -0.2320
91423W        W34414   9.535   0.959  23.031  0.0062  0.1205 -0.2155
91424W        W34415   5.564   8.022   4.004  0.0415  0.3961 -0.0025
91425W        W34416  19.188  26.114   8.235 -0.1010  0.0253 -0.1298
91426W        W34417  13.958  23.093   6.817 -0.3657 -0.2612  0.3063
91427W        W34418  17.241  14.853   7.525 -0.1202 -0.3388 -0.1528
91428W        W34419  31.145  11.926   9.022 -0.1286 -0.0861  0.1204
91429W        W34420  24.575   5.557  28.650  0.0997  0.0654 -0.0853
91430W        W34421   2.784  17.535  21.656 -0.2213 -0.2662  0.3134
91431W        W34422  18.829  14.490   2.319  0.2124 -0.2984 -0.1464
91432W        W34423  11.848  11.041  18.183  0.0974 -0.1838 -0.1069
91433W        W34424   8.012   8.406   3.949 -0.0330  0.3114 -0.1787
91434W        W34425  14.300   7.135   5.732  0.0829 -0.1315  0.1044
91435W        W34426  29.859  11.193   6.402  0.0823 -0.1984  0.1219
91436W        W34427  24.794  21.631   0.010 -0.0493 -0.3258  0.1758
91437W        W34428  22.455  13.463  23.737  0.0020 -0.1333  0.1837
91438W        W34429   8.361   8.907   9.819 -0.4779 -0.3114 -0.0817
91439W        W34430   5.408  15.475   0.482 -0.0309 -0.4967  0.1296
91440W        W34431   7.127  21.775  17.327  0.0748  0.0324  0.0906
91441W        W34432   2.305  20.519   6.011 -0.1385  0.1367 -0.1220
91442W        W34433   8.219  21.987   2.862  0.1761  0.2470  0.0709
91443W        W34434  12.952   0.351   4.526  0.3140 -0.0839 -0.1319
91444W        W34435  33.493  28.178   5.155  0.3610  0.4090  0.0605
91445W        W34436  31.809  19.918  22.014 -0.0308  0.1254  0.0313
91446W        W34437  30.742  16.227  26.847 -0.2801  0.0194  0.2917
91447W        W34438   8.472  17.448  22.628  0.0366  0.3072 -0.0858
91448W        W34439   3.424  16.005  10.893 -0.2172  0.0633 -0.0757
91449W        W34440  15.817  33.743  19.775 -0.0393 -0.1176  0.1929
91450W        W34441  10.261  18.043   4.277  0.3597  0.2033 -0.0675
91451W        W34442   6.980   8.683   6.555  0.0236  0.1728  0.0776
91452W        W34443   4.253   8.301   6.054 -0.4533 -0.0862  0.0344
91453W        W34444   8.426  23.491  27.880  0.0462 -0.2941 -0.0186
91454W        W34445  16.887   3.596   3.308 -0.2100  0.0354 -0.1461
91455W        W34446   6.285  10.422   8.394  0.0640 -0.1863 -0.0319
91456W        W34447  12.495  13.552   7.251  0.1278  0.0185  0.0635
91457W        W34448   2.824  17.187   0.371  0.0548  0.0517  0.1938
91458W        W34449  16.196  32.141   9.545  0.0530 -0.3799 -0.0121
91459W        W34450  11.420  21.888  28.880  0.2005  0.3421  0.1289
91460W        W34451  34.666  21.236   6.673  0.0902 -0.4023 -0.0670
91461W        W34452   1.405  15.606   7.260 -0.3234 -0.0535 -0.2007
91462W        W34453  12.448  19.714   5.516  0.3243 -0.2238  0.2380
91463W        W34454  11.632  32.792   3.988  0.0971  0.2375 -0.1139
91464W        W34455  11.574  16.135  23.176 -0.0919 -0.1077 -0.1565
91465W        W34456   4.293  12.056   4.373 -0.3906 -0.0714  0.2238
91466W        W34457  12.268  15.109   8.559 -0.3240 -0.5924  0.0889
91467W        W34458  26.810  11.888   3.552  0.0030 -0.1416  0.1388
91468W        W34459   7.848  19.269   8.982 -0.0980  0.0504 -0.0502
91469W        W34460  21.324  34.242  23.832  0.1033 -0.0837 -0.3187
91470W        W34461   9.501  23.905   1.292 -0.0482  0.1656 -0.3235
91471W        W34462  15.039  24.905  21.434 -0.0641 -0.0662  0.3109
91472W        W34463   1.038   5.102   6.564 -0.1291  0.2321 -0.0267
91473W        W34464  18.364  10.486   8.878 -0.0765 -0.0364  0.0215
91474W        W34465   0.531  24.963   5.243 -0.2322  0.1916  0.1355
91475W        W34466   0.916   1.559   5.222 -0.0850  0.2170  0.1703
91476W        W34467  20.724   3.255   9.108  0.1174  0.2096  0.0432
91477W        W34468  18.707  16.918   4.397  0.1049 -0.0904 -0.1764
91478W        W34469  12.836  15.532  26.328  0.0720 -0.3067 -0.1602
91479W        W34470  20.334  29.218  26.781  0.0226 -0.2606 -0.0440
91480W        W34471  28.680  18.301   9.029  0.2636 -0.3913  0.2247
91481W        W34472   2.933  17.926  27.440 -0.1032 -0.2348  0.0216
91482W        W34473  34.660  13.173  27.983 -0.1449 -0.1205  0.0366
91483W        W34474   4.367   5.574   8.947 -0.1670  0.2599 -0.0083
91484W        W34475  33.150  13.098   5.937 -0.0938  0.3566 -0.2508
91485W        W34476  12.433  18.110   7.882 -0.1518  0.1718 -0.2258
91486W        W34477   8.482  34.491  26.191  0.1346  0.0837  0.2584
91487W        W34478   8.226   8.180   6.652 -0.3042 -0.0632  0.2278
91488W        W34479  19.902   4.099   4.320 -0.1917  0.0424 -0.2811
91489W        W34480  17.583   7.228   1.000  0.0483 -0.2130  0.1411
91490W        W34481  22.129  15.475  25.174 -0.0355  0.0434 -0.1309
91491W        W34482  17.481   9.657   9.299 -0.2064 -0.1713 -0.0265
91492W        W34483  11.519   9.694  11.016 -0.0421  0.1990 -0.0904
91493W        W34484  16.379  13.119   6.182  0.2603 -0.0128  0.1544
91494W        W34485   3.083  10.361   8.119 -0.2573  0.1110  0.0125
91495W        W34486  32.441  27.496   2.581  0.3355  0.0866  0.2314
91496W        W34487  25.703  10.532  28.383 -0.1066  0.0022 -0.1236
91497W        W34488   1.883  20.150   9.823 -0.1396  0.0292  0.1013
91498W        W34489  10.753  25.599   7.136 -0.0046 -0.1610  0.1250
91499W        W34490   3.061   6.825   5.061 -0.0656 -0.0411  0.1425
91500W        W34491  13.078   6.580   9.190 -0.0335  0.1849 -0.3470
91501W        W34492  32.538  21.431   6.720  0.3864 -0.2347  0.0023
91502W        W34493  12.376   6.427   5.053  0.0567  0.1383  0.3830
91503W        W34494  22.190  19.392  21.234 -0.0548  0.2011 -0.1890
91504W        W34495  15.365  10.739  27.608 -0.0340  0.3345  0.1768
91505W        W34496  13.181   7.594  26.193  0.1052 -0.2347 -0.1030
91506W        W34497  10.666  10.730  27.117 -0.1203 -0.0518 -0.0719
91507W        W34498   4.324   8.506   9.905 -0.2136  0.1535  0.0076
91508W        W34499  21.229  12.450   9.141  0.1504 -0.1073  0.0429
91509W        W34500  21.426  26.031   9.504  0.0285 -0.2272 -0.0457
91510W        W34501   3.327  10.740   9.193  0.1484 -0.0541  0.1324
91511W        W34502  29.736  33.389   5.670  0.0249  0.1836  0.1578
91512W        W34503  25.592  25.478   7.104 -0.1401 -0.0465 -0.4786
91513W        W34504   9.415  22.012   6.684  0.4403  0.0155 -0.3349
91514W        W34505   4.715  13.530   4.614  0.1357  0.2914 -0.0647
91515W        W34506  22.654  19.220  15.986 -0.0961 -0.0485 -0.0322
91516W        W34507  11.538   8.881  26.724  0.2286  0.1478 -0.2124
91517W        W34508  14.596  26.646   9.244 -0.1739 -0.0800  0.0405
91518W        W34509  14.573  14.068  17.254 -0.1242  0.0718 -0.0981
91519W        W34510  14.170  33.728   3.066  0.0539  0.2709  0.2215
91520W        W34511  14.960  11.776   4.264  0.0849 -0.1167  0.0277
91521W        W34512  28.116  17.805  21.196 -0.0901 -0.0949 -0.0555
91522W        W34513  13.280  30.088   7.423 -0.1747  0.0204 -0.0932
91523W        W34514  20.546   5.382   3.291  0.0451  0.2154 -0.0417
91524W        W34515  24.096   4.607  25.405 -0.1396  0.0281 -0.3162
91525W        W34516  12.601  15.985   8.561 -0.1822  0.1120  0.3810
91526W        W34517   0.691  21.130   9.576 -0.1166 -0.0760  0.3309
91527W        W34518   9.607  15.543  22.846  0.1150 -0.0638 -0.0448
91528W        W34519  11.848  31.367   8.602  0.2514  0.3979 -0.0293
91529W        W34520  12.349  12.905   5.813  0.1463 -0.1263 -0.1858
91530W        W34521  10.574  11.117   2.083  0.0118  0.0186 -0.0672
91531W        W34522  14.432   4.753  29.231  0.1466 -0.0012  0.0794
91532W        W34523   1.981  21.227   1.484 -0.2153  0.0119  0.4524
91533W        W34524   2.592  28.243   9.267  0.1255 -0.0878 -0.0926
91534W        W34525  12.975  20.189  24.360 -0.4743  0.0386  0.0573
91535W        W34526  32.703  15.454  21.737 -0.1800  0.3293 -0.3113
91536W        W34527   3.643   7.163  11.354  0.1060  0.0450 -0.1135
91537W        W34528  23.680  10.494   0.824 -0.0304  0.3729  0.1141
91538W        W34529   2.184  21.301   3.587 -0.1183 -0.3246 -0.1113
91539W        W34530  34.726  15.435   3.562 -0.1067  0.1221 -0.0195
91540W        W34531  17.360  19.119   6.215 -0.2780  0.0842 -0.1761
91541W        W34532   7.884  19.109   0.129  0.0520  0.0247  0.2921
91542W        W34533   2.742   6.525   6.135 -0.0667 -0.0516 -0.2478
91543W        W34534  18.068  10.618   6.241  0.0304  0.0496 -0.3206
91544W        W34535  15.396   2.338   7.546 -0.5397 -0.3269 -0.3167
91545W        W34536  13.082  10.583  24.296 -0.2310  0.3815 -0.1143
91546W        W34537  23.569   0.828   7.408  0.2064  0.1785  0.1090
91547W        W34538   6.217  19.663   7.085  0.2241 -0.0428 -0.0874
91548W        W34539  21.520   9.757   7.894  0.0477 -0.0218  0.1040
91549W        W34540   6.728  17.207  28.974  0.1333  0.0182  0.0123
91550W        W34541  19.148   6.424   9.494 -0.3500  0.4381 -0.0242
91551W        W34542   9.115  10.256   4.466 -0.4570 -0.0933 -0.0517
91552W        W34543  14.639  12.432   1.461 -0.0219 -0.0961  0.0856
91553W        W34544  18.033  16.606   6.071  0.1771  0.2532 -0.2433
91554W        W34545  13.005  17.980   8.630 -0.1739  0.3339  0.1040
91555W        W34546  32.610  26.007   7.137  0.0122  0.0192 -0.2585
91556W        W34547  14.773   6.526   8.231 -0.2543 -0.0460  0.1673
91557W        W34548  20.417  25.584   7.535 -0.1052 -0.1225 -0.4701
91558W        W34549  12.417   7.468  10.485 -0.3896 -0.2795  0.1853
91559W        W34550  16.831  15.012   4.940  0.0058  0.2955  0.3424
91560W        W34551  15.938  10.295   7.734  0.0642  0.0941 -0.0158
91561W        W34552  22.196  16.598   0.901 -0.0803  0.2224 -0.4353
91562W        W34553  33.653  22.106  22.198 -0.1170  0.0080 -0.0656
91563W        W34554  18.466   4.381   9.747  0.1318  0.4977 -0.2088
91564W        W34555  23.148  16.330   7.426  0.4038  0.2733 -0.0920
91565W        W34556   9.894  20.685   1.717  0.2593 -0.1904 -0.1420
91566W        W34557  15.336   7.825  10.303  0.1918 -0.2140 -0.0615
91567W        W34558  19.760  21.945   5.207  0.0585 -0.0892 -0.2365
91568W        W34559   5.555  32.171   0.274  0.0902 -0.1513  0.3317
91569W        W34560  19.554  16.341   7.140 -0.0232 -0.0872 -0.2608
91570W        W34561  11.742  16.340   5.563  0.0708 -0.1612  0.1872
91571W        W34562  11.827   7.270  10.471  0.0846  0.3146 -0.0505
91572W        W34563  16.689   2.150   9.177  0.0173 -0.1846 -0.1163
91573W        W34564  20.769  10.434   7.618 -0.3477  0.1356 -0.3817
91574W        W34565  10.124   6.403   7.721  0.2044 -0.0623  0.3008
91575W        W34566  20.979  16.428   9.672 -0.0527  0.1335  0.2557
91576W        W34567  31.136  10.223   3.757 -0.0591  0.2131  0.0769
91577W        W34568   7.001  29.873   1.101 -0.1899 -0.0661 -0.2208
91578W        W34569  23.579  33.338   7.060  0.1875  0.1612  0.0659
91579W        W34570  17.215   5.162  10.174  0.1572 -0.0282  0.0952
91580W        W34571  11.296  29.628   3.135 -0.2296 -0.1308 -0.0537
91581W        W34572  11.233  14.155   8.373 -0.0942 -0.1016  0.1702
91582W        W34573  15.360  17.331  24.576 -0.0674 -0.1792 -0.1936
91583W        W34574   8.483  11.799   1.679  0.0897 -0.1383  0.0997
91584W        W34575   9.417  25.372  19.421  0.1324  0.1096 -0.1915
91585W        W34576  33.004   5.457  24.874 -0.0809  0.0928  0.0666
91586W        W34577  31.227  14.739   2.932 -0.2973  0.0622  0.2798
91587W        W34578   2.941  23.323  29.154 -0.1205  0.0956  0.0173
91588W        W34579  18.043   8.789   8.656 -0.1135 -0.0072 -0.0265
91589W        W34580  13.988   8.635   3.631  0.1267  0.0361 -0.0574
91590W        W34581  25.446   9.261   6.561  0.1475 -0.3081  0.0092
91591W        W34582  27.330  13.088   9.474 -0.1805  0.2965  0.3793
91592W        W34583   3.910  14.274  26.776 -0.2575  0.1201  0.2019
91593W        W34584   5.892  25.311  23.988  0.1386 -0.1056 -0.1096
91594W        W34585   5.270  12.168   7.852  0.3466  0.0392 -0.0762
91595W        W34586  18.904   7.044   1.763 -0.1091 -0.1467 -0.2105
91596W        W34587  22.872  12.393  28.526 -0.1980  0.1059 -0.2886
91597W        W34588  13.929   9.915   7.460  0.0746 -0.1556  0.1447
91598W        W34589  26.463   8.574   2.524 -0.2131 -0.1262  0.2453
91599W        W34590  29.531  13.846   2.600  0.1356 -0.2677  0.0898
91600W        W34591   3.685  17.697   3.577  0.2986 -0.3482  0.0306
91601W        W34592   0.307  15.719  26.877  0.2241  0.0866  0.0609
91602W        W34593  17.026  22.093   6.805 -0.0129 -0.2734  0.0268
91603W        W34594  19.269   2.393   9.189 -0.2761  0.1201  0.2066
91604W        W34595  15.495  30.583  26.679  0.0964 -0.0436  0.2581
91605W        W34596  19.938  29.726   7.717  0.2216  0.0514 -0.0221
91606W        W34597  18.806  13.391   2.065 -0.3702 -0.1505  0.2378
91607W        W34598   2.254   9.987  26.875  0.1653 -0.2847 -0.1365
91608W        W34599   4.676   2.837   9.274  0.1103  0.1398  0.2607
91609W        W34600  15.297  18.193   7.166 -0.0114  0.0704 -0.2406
91610W        W34601   9.709  12.223   0.967  0.1128  0.3044 -0.0798
91611W        W34602  25.434  13.550   8.181 -0.2146  0.1148 -0.2949
91612W        W34603   6.932  13.906   8.284  0.0570  0.0680 -0.2084
91613W        W34604  12.174  16.051   8.843 -0.1070  0.0444  0.0787
91614W        W34605  11.096  18.944   5.115  0.0176  0.0514  0.1675
91615W        W34606  34.660  11.888   3.351  0.1185  0.1386 -0.0767
91616W        W34607   4.502  13.938  11.985 -0.0424 -0.1365  0.1285
91617W        W34608  34.408  10.268   7.582 -0.0627  0.1057 -0.1901
91618W        W34609   2.487  17.007  28.371 -0.1760  0.0180 -0.1160
91619W        W34610  12.039   7.883  28.146  0.0731  0.2076 -0.1326
91620W        W34611  27.106   5.379  26.898 -0.1083 -0.0485 -0.0776
91621W        W34612  30.382  12.091   2.017 -0.1198  0.1244 -0.2673
91622W        W34613   8.299   2.882   1.346 -0.0386  0.2412 -0.0657
91623W        W34614   8.563  16.811  16.854 -0.2528 -0.0485  0.2441
91624W        W34615  27.760  30.491   4.677 -0.1507 -0.1672 -0.2056
91625W        W34616   1.151  25.998  25.814  0.1117 -0.0852  0.0409
91626W        W34617   6.611  11.544   1.743 -0.1085 -0.0228 -0.1039
91627W        W34618  14.776  33.085  15.103  0.1626  0.0442  0.0774
91628W        W34619  33.105  14.790   6.229  0.0594  0.0664 -0.2642
91629W        W34620  13.227   3.820   8.425 -0.1400 -0.0300 -0.0094
91630W        W34621   1.227   4.397   3.038 -0.1587 -0.1301  0.1868
91631W        W34622  19.069  25.773  27.730 -0.1501 -0.0541  0.1056
91632W        W34623   8.835  20.459   5.397 -0.0097 -0.0649 -0.1192
91633W        W34624  32.468   9.288   4.697 -0.0415  0.1378  0.2925
91634W        W34625   7.039   8.281   7.740  0.1732  0.2077  0.2470
91635W        W34626   4.623   7.343   7.107  0.4747  0.0840 -0.1272
91636W        W34627   5.570  10.574   4.701 -0.4357 -0.1010  0.0891
91637W        W34628  27.115  15.065   4.392 -0.1041 -0.1440  0.0120
91638W        W34629  11.479  22.802   8.576  0.0282  0.0274  0.1430
91639W        W34630  11.837  15.394  16.645 -0.4650  0.0410  0.1496
91640W        W34631   2.639  26.980   8.937 -0.2517  0.1182  0.0417
91641W        W34632  11.067  17.370   8.357 -0.1078  0.0185 -0.0493
91642W        W34633   9.193   0.579  26.474 -0.1348  0.2138 -0.1163
91643W        W34634  31.237  15.727   5.673  0.0765  0.0071 -0.1236
91644W        W34635   5.185  13.306   5.550 -0.0122  0.4109  0.1172
91645W        W34636   0.505  22.663   4.998 -0.2298  0.1066 -0.0466
91646W        W34637  32.072  15.216   2.452  0.0970 -0.0032 -0.2540
91647W        W34638   1.209  13.806   0.972  0.0394  0.1478 -0.1661
91648W        W34639  11.303  24.987   1.306  0.0561  0.2851  0.2589
91649W        W34640  18.651   5.973  20.611 -0.0583  0.1398 -0.0458
91650W        W34641   7.433   1.033  24.595  0.1154 -0.0597  0.4685
91651W        W34642   7.529  29.358   6.182  0.3269  0.0383 -0.0308
91652W        W34643   8.645  18.865  28.656  0.2507 -0.0794  0.1499
91653W        W34644  20.627   8.980   7.811  0.1063  0.2087 -0.0451
91654W        W34645  20.677  25.250  21.202  0.0363  0.0644 -0.0522
91655W        W34646   4.835   4.621   3.907  0.0489 -0.1567 -0.0605
91656W        W34647   2.335  24.474   6.375 -0.2295  0.0218 -0.0129
91657W        W34648  15.369   8.713   4.412 -0.1129 -0.2065 -0.1916
91658W        W34649  30.343  11.524  10.290 -0.1082  0.0845 -0.2630
91659W        W34650   9.709  22.471  28.555  0.1321 -0.2644  0.1525
91660W        W34651  20.154   8.393  16.096 -0.0322 -0.0056 -0.1153
91661W        W34652  29.950  14.108   0.729 -0.1259  0.3565  0.0566
91662W        W34653  27.952  16.422   8.897 -0.1382  0.2006 -0.1406
91663W        W34654  18.577   9.913   0.058  0.0088 -0.0626 -0.2762
91664W        W34655  12.881  13.865   4.530  0.1346  0.1481 -0.2730
91665W        W34656  32.397  15.721   7.033  0.1950  0.0249 -0.1443
91666W        W34657  15.192  20.341   3.308  0.1317 -0.0082  0.3553
91667W        W34658   3.914   3.216  28.408  0.1674  0.0924 -0.2921
91668W        W34659   0.788  12.524   9.434  0.2706  0.0685 -0.1619
91669W        W34660  16.967  22.256  25.766 -0.4288  0.2719  0.1782
91670W        W34661  27.293  12.557   8.620 -0.0217  0.1230 -0.3215
91671W        W34662  17.492  19.812   8.642  0.2859  0.2483  0.2483
91672W        W34663  21.744  24.865   5.875 -0.0471  0.0428 -0.0687
91673W        W34664  21.523  19.068  25.203 -0.0719  0.2063 -0.0004
91674W        W34665   1.213  30.176   2.982 -0.0178 -0.3011  0.1585
91675W        W34666  11.501   3.856   9.030 -0.0107  0.1524 -0.0886
91676W        W34667   1.939  11.935   2.698 -0.0115  0.2529  0.1335
91677W        W34668   6.153  16.674   0.069  0.0798 -0.0066 -0.0241
91678W        W34669  22.269   8.385  23.803  0.0474 -0.2034 -0.1869
91679W        W34670  22.806  34.149   2.567 -0.1032  0.5083  0.4582
91680W        W34671  11.863  19.274   7.902 -0.0553  0.0530  0.0794
91681W        W34672   8.574   8.718  11.090  0.0456 -0.1781  0.2036
91682W        W34673   9.426  26.429  28.327  0.0842  0.0812 -0.0421
91683W        W34674   9.307  32.259   6.084  0.0676 -0.0324 -0.1528
91684W        W34675  10.570   6.469   2.392  0.0580 -0.0916  0.2898
91685W        W34676  16.377  15.925   0.329  0.1832  0.1244 -0.2054
91686W        W34677  18.628   8.935   3.798 -0.1825  0.1753  0.0457
91687W        W34678   9.459   9.889   3.471  0.2388  0.0188  0.1961
91688W        W34679   4.170  12.695  26.584 -0.0901  0.2457  0.2093
91689W        W34680   6.691  19.523   7.069  0.3482  0.2435  0.3283
91690W        W34681  10.934  26.880   8.698 -0.3016  0.0959  0.5710
91691W        W34682   4.830  24.740   8.592 -0.1283  0.1120 -0.1456
91692W        W34683  33.001  11.377   0.077 -0.4013 -0.2741 -0.1452
91693W        W34684  15.951  11.960   8.169 -0.0248 -0.0781  0.2590
91694W        W34685   1.946   0.492   4.284 -0.2987 -0.1661 -0.1133
91695W        W34686  31.500  28.208   7.957 -0.0805 -0.1558 -0.5101
91696W        W34687   5.663   5.935   7.836 -0.2016 -0.0143  0.0020
91697W        W34688  18.885   2.653   3.705 -0.2267 -0.1806  0.0617
91698W        W34689  12.468  29.948   9.045  0.2753  0.1485 -0.1551
91699W        W34690   4.966   1.479  27.625  0.3614 -0.2300  0.2915
91700W        W34691   4.711  25.186  28.429 -0.0275 -0.1527  0.1020
91701W        W34692  21.777   9.539   6.654 -0.1144  0.0742 -0.0509
91702W        W34693  21.199  14.966  20.929 -0.0432 -0.2624  0.2425
91703W        W34694  12.787  12.733   9.666  0.1771 -0.1722 -0.0667
91704W        W34695  33.951   8.023  22.337 -0.1877 -0.1990 -0.1852
91705W        W34696   7.141  17.079   5.505 -0.3294  0.0698 -0.2771
91706W        W34697  11.668  23.431   7.630 -0.0369 -0.0861 -0.1900
91707W        W34698  11.443  25.617   3.265  0.1142 -0.0510 -0.0927
91708W        W34699   8.701  25.594   0.154 -0.0396  0.1547 -0.0888
91709W        W34700  31.045  16.634   3.860  0.1409 -0.1448 -0.1608
91710W        W34701  10.034   3.416   5.130 -0.3530  0.1962  0.2678
91711W        W34702   0.530  27.846   5.143 -0.4016  0.0364 -0.1324
91712W        W34703  14.215  20.316  24.773 -0.0399  0.1180  0.1534
91713W        W34704   5.183  11.063   6.680  0.1673 -0.4673 -0.1024
91714W        W34705   7.980  24.745   8.781 -0.1026  0.0981 -0.0202
91715W        W34706   8.891  12.319   8.484  0.0771  0.0273  0.1742
91716W        W34707  18.719  12.643  24.170  0.2603  0.2763 -0.2152
91717W        W34708   9.005  18.287  23.433  0.0133  0.2087  0.2032
91718W        W34709  18.506   9.130  25.291  0.1184 -0.0296  0.1218
91719W        W34710   1.988  16.520  27.684 -0.0228  0.1525  0.0714
91720W        W34711  15.163  15.921  24.500  0.1427  0.0263 -0.1475
91721W        W34712  16.707  11.916  25.146 -0.1304 -0.4803  0.2549
91722W        W34713   5.140  17.051  27.874 -0.1757 -0.2333 -0.1356
91723W        W34714   6.777  15.702   1.052 -0.0231  0.3366 -0.1762
91724W        W34715  22.434   0.510   3.095 -0.1624  0.0707 -0.1124
91725W        W34716  24.425  24.055   8.140  0.0873 -0.0050 -0.1350
91726W        W34717  26.850   9.893   9.009  0.1326  0.4926 -0.1114
91727W        W34718   6.160  20.442   3.247  0.2995  0.1334  0.1286
91728W        W34719  11.260  11.514  22.201  0.0719  0.2458  0.1145
91729W        W34720   6.532   9.031   7.379  0.3199 -0.1508  0.0897
91730W        W34721   6.897  26.416  27.927 -0.2641  0.1198 -0.3384
91731W        W34722  10.442  11.948   5.775  0.2107  0.1579 -0.3050
91732W        W34723   2.304  11.087  11.572 -0.0692 -0.1080 -0.1449
91733W        W34724  12.566  29.393   6.887  0.1824  0.0385 -0.2001
91734W        W34725  33.191  25.117   0.943 -0.1008 -0.1537 -0.3248
91735W        W34726   1.249  32.654  16.899 -0.2760 -0.1638 -0.0186
91736W        W34727   0.996   8.946  17.231  0.0828 -0.3071  0.0180
91737W        W34728   1.396  30.535  27.615  0.1023  0.1893 -0.1473
91738W        W34729  14.844   6.457   0.425  0.4020  0.1685  0.0820
91739W        W34730  11.836  34.080  21.976  0.0007  0.2607  0.2722
91740W        W34731  17.373  20.156  26.182  0.0756  0.1634  0.0105
91741W        W34732   5.676  29.820   5.799  0.0198  0.0025 -0.1714
91742W        W34733   1.087   6.062  22.619 -0.2981  0.4473 -0.1664
91743W        W34734  20.992  30.916   2.806 -0.0420  0.0783 -0.1035
91744W        W34735  16.207   2.417   1.949 -0.1772  0.1396 -0.1040
91745W        W34736   5.766  25.790  24.830 -0.0698 -0.1152 -0.0459
91746W        W34737   7.828  23.147   9.965 -0.2023 -0.1003  0.0370
91747W        W34738  11.158  10.233  19.626  0.4804  0.2391 -0.0191
91748W        W34739  12.552   9.983  23.878  0.0104  0.3410  0.0069
91749W        W34740  29.412   8.642  28.645  0.3042  0.0273  0.1089
91750W        W34741   8.003  27.631  21.014  0.1067  0.2197 -0.2658
91751W        W34742  11.806   3.780   7.584 -0.0921 -0.0681 -0.0894
91752W        W34743   3.353  24.014   1.895  0.0994 -0.0108  0.3268
91753W        W34744   1.224  12.048   2.908  0.1914  0.1938  0.1205
91754W        W34745   3.378  14.798   7.147  0.2098  0.1495  0.0502
91755W        W34746  20.915   9.462  13.767  0.0914  0.0754  0.0139
91756W        W34747  11.223   7.127   4.017 -0.2538  0.1237  0.1892
91757W        W34748  16.679  17.821   5.389 -0.1316 -0.0688  0.2012
91758W        W34749   8.687  23.457   3.591  0.1801 -0.3065  0.1842
91759W        W34750  16.965  21.595   0.270  0.1270  0.1038  0.1408
91760W        W34751  30.661  25.771  23.231  0.1713 -0.3895  0.4270
91761W        W34752  15.743   4.156  20.977 -0.1905 -0.1785 -0.1135
91762W        W34753  17.313  31.707  19.384  0.1821  0.2070  0.2863
91763W        W34754   5.084  23.416  27.469 -0.0126  0.0446  0.0560
91764W        W34755  18.199  25.323   1.014  0.1587 -0.0143 -0.2240
91765W        W34756  23.388   3.969  21.048  0.3077 -0.2752  0.2157
91766W        W34757   7.592  17.393  27.990  0.2537 -0.1847 -0.0150
91767W        W34758  12.184   9.782   9.546  0.0697  0.2512  0.2521
91768W        W34759   1.978   1.390   8.527 -0.2351 -0.2510  0.1003
91769W        W34760  17.149  31.195   7.525  0.3405  0.1039  0.2448
91770W        W34761  13.313  13.052  26.103  0.0238 -0.0025  0.2477
91771W        W34762  19.510   5.932  26.101 -0.0553 -0.1138  0.0370
91772W        W34763   8.901   1.730  22.033  0.4624 -0.0873 -0.0266
91773W        W34764  25.317  17.626   5.607  0.0064 -0.0813 -0.3411
91774W        W34765   4.052  13.120  10.285 -0.2648 -0.3087 -0.3245
91775W        W34766  12.954  20.188   7.156  0.2695 -0.1990 -0.2660
91776W        W34767   6.075  31.840  23.511  0.0022 -0.0259  0.1630
91777W        W34768  19.146  14.106  13.362 -0.3963  0.2238 -0.0177
91778W        W34769  15.393  27.753  28.345 -0.0331  0.1281 -0.2143
91779W        W34770  11.259  14.318   5.367  0.1206 -0.0719 -0.0945
91780W        W34771  16.342  16.906  24.478  0.1371 -0.0223 -0.2985
91781W        W34772  26.412  32.697  26.546  0.2192  0.3492  0.4419
91782W        W34773  22.900  10.855   1.836 -0.3271  0.1122 -0.1162
91783W        W34774   6.894  11.260  21.451 -0.1626  0.3635  0.1577
91784W        W34775   3.315  14.301  25.957  0.0240 -0.0036  0.3024
91785W        W34776   1.385  17.653  26.148 -0.2150  0.1620 -0.2502
91786W        W34777  12.416  12.222   1.718  0.0907 -0.1202  0.0765
91787W        W34778  27.401  30.929   1.418  0.3460  0.2013  0.3089
91788W        W34779   5.733  31.987   9.281 -0.0513 -0.1581 -0.2090
91789W        W34780  19.452  15.166  20.489  0.1270  0.1511 -0.0211
91790W        W34781   9.223  32.352   3.999  0.1159  0.0106  0.1504
91791W        W34782  10.659  15.830  18.248 -0.3220  0.1616  0.2463
91792W        W34783   6.203  25.623   9.901  0.2118  0.0087  0.1051
91793W        W34784  20.619  24.239  18.345  0.1533 -0.1323  0.0180
91794W        W34785   7.731  13.864  19.803 -0.3160  0.5057  0.1435
91795W        W34786  10.769  13.444  26.658 -0.0525  0.2267  0.3030
91796W        W34787  23.930   0.393  16.579  0.0221  0.1882  0.2071
91797W        W34788  20.575   8.077  23.007 -0.0112  0.0049  0.1959
91798W        W34789  34.124   1.777  25.225  0.0993  0.0747  0.1190
91799W        W34790   0.387   1.060   2.114 -0.0268  0.0109 -0.4110
91800W        W34791  27.968   2.527  17.643 -0.1643  0.2018  0.1166
91801W        W34792  14.634  17.061  20.260 -0.1093 -0.1770  0.3454
91802W        W34793   1.163  29.948  22.338  0.0695  0.2456  0.0151
91803W        W34794  29.982   5.057   5.911  0.0649  0.1873  0.1760
91804W        W34795  12.986  15.597  23.699  0.4196 -0.0782 -0.2458
91805W        W34796  14.137   7.791  10.816 -0.2141 -0.0059  0.0102
91806W        W34797  16.470  13.733  24.858 -0.0314  0.0070 -0.1231
91807W        W34798  33.328  23.814   8.381 -0.4301  0.1244  0.1459
91808W        W34799   7.835   9.138   4.487  0.2595 -0.3088 -0.0450
91809W        W34800   7.545  18.761   5.523  0.0400  0.2082  0.4475
91810W        W34801  10.541  24.279   4.252  0.4498  0.0458  0.1201
91811W        W34802  34.796  23.682  22.497 -0.2887 -0.0801  0.1215
91812W        W34803  10.123  13.613  19.902  0.0247  0.4126 -0.2306
91813W        W34804  25.240   1.978   3.101  0.0614  0.1938 -0.0951
91814W        W34805   6.937  21.087  25.378  0.2179 -0.3529  0.1040
91815W        W34806  17.305  22.125  25.099 -0.1972 -0.1643 -0.2934
91816W        W34807  19.648  16.351   1.207  0.1144 -0.0758  0.1489
91817W        W34808  13.177  12.982   4.000  0.1568  0.0873  0.0435
91818W        W34809  17.621   6.464   4.153 -0.1543 -0.1018  0.0713
91819W        W34810   4.821   4.766   8.238  0.0386  0.0478  0.0400
91820W        W34811   0.832  15.612  24.565 -0.1204  0.0710  0.1534
91821W        W34812   3.256  13.342   3.769 -0.0453 -0.0158 -0.0820
91822W        W34813  11.113  23.873  21.427 -0.3653 -0.1446  0.0406
91823W        W34814   8.531  17.803   9.511 -0.1090  0.0831  0.1359
91824W        W34815   6.671   2.975  27.537 -0.1207  0.2325  0.1158
91825W        W34816   0.212   4.521  25.870  0.3793 -0.1755  0.1253
91826W        W34817  24.012   5.887   8.869 -0.3382 -0.2515  0.1857
91827W        W34818  31.880  34.228  20.587  0.0307 -0.1353  0.2708
91828W        W34819  11.305  29.061  26.051  0.1169 -0.0538  0.0254
91829W        W34820   8.219  29.461  26.201  0.3803  0.1987  0.0447
91830W        W34821  14.554  12.397   5.029 -0.0873 -0.2381 -0.0943
91831W        W34822  14.560  14.189  17.786 -0.1364 -0.1291  0.0629
91832W        W34823  27.405  20.028   2.587  0.1141 -0.4146 -0.1208
91833W        W34824   5.186  10.463   6.899 -0.0150 -0.2798  0.1171
91834W        W34825   3.583  15.896   2.457 -0.0041 -0.0961 -0.0715
91835W        W34826  12.184  25.091   7.025 -0.0125  0.2440  0.0288
91836W        W34827  23.020  28.477   3.777 -0.1331 -0.2204 -0.4344
91837W        W34828  30.330   8.048  22.532 -0.1529  0.2883 -0.0834
91838W        W34829   0.356  11.040   8.902 -0.3398  0.2137  0.2761
91839W        W34830  34.619  18.768  22.108 -0.1236 -0.1477  0.0349
91840W        W34831  23.246  15.034   6.657 -0.0562 -0.1679 -0.1363
91841W        W34832  18.829  32.872   4.235 -0.1476 -0.2328  0.1826
91842W        W34833   4.354  24.242  20.763  0.0403 -0.3270  0.1113
91843W        W34834  10.315   6.021   2.479 -0.2177 -0.4112  0.2380
91844W        W34835   2.872  11.682  29.192  0.2957 -0.0025 -0.0390
91845W        W34836  27.847  11.194   0.205  0.2041  0.0612 -0.0654
91846W        W34837  18.370  20.130   2.355 -0.1502 -0.2138 -0.2135
91847W        W34838   6.187  15.433  15.241  0.2266  0.0221  0.1043
91848W        W34839  17.321  28.410  10.418  0.3454  0.0527  0.0892
91849W        W34840  10.402   6.555   0.606 -0.0531 -0.2468  0.0793
91850W        W34841  21.404   4.654  24.047  0.1771 -0.1777  0.0942
91851W        W34842   2.395  18.604   7.668  0.1339 -0.3296  0.0886
91852W        W34843  18.342  20.055  16.211 -0.0214 -0.3284  0.3756
91853W        W34844  17.495   6.934   3.490 -0.1173  0.0223  0.0819
91854W        W34845   9.375  32.978   9.209  0.1524  0.0540  0.2692
91855W        W34846  12.511  10.243   4.738 -0.2795 -0.1213  0.0872
91856W        W34847  13.343  26.627   6.110 -0.2695 -0.1026  0.0261
91857W        W34848  12.657  11.719  25.832  0.0100 -0.4105 -0.1608
91858W        W34849   8.450  34.253  25.312 -0.1944 -0.1562  0.0139
91859W        W34850   9.203   9.306   4.152  0.1189 -0.0168 -0.0808
91860W        W34851  30.489   8.549   0.506 -0.0234  0.3790  0.0069
91861W        W34852   5.262  28.847   5.911 -0.1864 -0.0193 -0.2790
91862W        W34853  13.783  29.091   0.466  0.2974 -0.0583 -0.1741
91863W        W34854   9.524   6.046   8.221  0.0028 -0.0434 -0.0612
91864W        W34855  17.787  14.835  11.836 -0.1839  0.0905  0.0505
91865W        W34856  33.118  24.685   4.124  0.1006  0.2177  0.3027
91866W        W34857  13.423  17.628   4.834 -0.0313 -0.0679  0.4037
91867W        W34858  18.693  19.532  28.336  0.1492  0.0437 -0.0559
91868W        W34859  30.654   9.771  23.261  0.5488 -0.1108 -0.0679
91869W        W34860   9.270  12.419   5.397 -0.0705 -0.0999 -0.2157
91870W        W34861   4.608  33.238   5.550  0.0566  0.1132  0.2011
91871W        W34862   2.623  25.099   1.597  0.1880  0.0903 -0.0510
91872W        W34863  11.102   9.032   4.214 -0.2225  0.0670  0.0279
91873W        W34864   3.605   8.245  18.364 -0.2930 -0.1269 -0.0697
91874W        W34865   8.373  18.330  25.920  0.1876  0.1485  0.0129
91875W        W34866  10.676  33.357  24.631  0.2056 -0.4037  0.1807
91876W        W34867   2.526  20.138   5.691  0.0247  0.0455  0.1049
91877W        W34868  13.497  13.525  25.107  0.1871  0.0289 -0.0991
91878W        W34869  13.272  22.643   9.097 -0.0500  0.0986 -0.0406
91879W        W34870  27.739   7.906   8.857  0.0803 -0.0799 -0.1385
91880W        W34871  10.002  13.255  21.368  0.1104  0.1122  0.0995
91881W        W34872  11.674  21.737   7.318 -0.1546 -0.0304 -0.0160
91882W        W34873   3.794  18.324  24.182  0.0304  0.0709 -0.0363
91883W        W34874   8.363  29.516  10.768 -0.2342 -0.0948  0.0020
91884W        W34875  18.776   7.837   8.481  0.1011  0.0357  0.0318
91885W        W34876  16.302   4.573   7.397 -0.0988  0.0314 -0.0062
91886W        W34877  13.325  22.675   3.397  0.0162  0.0828 -0.2369
91887W        W34878  12.321   3.520  17.748 -0.0309 -0.2191 -0.3807
91888W        W34879  15.068   8.803  18.656 -0.0379  0.0572 -0.1566
91889W        W34880  23.531   3.569  19.249  0.2791  0.3493  0.1205
91890W        W34881  15.078   7.671   0.594  0.0395 -0.1605  0.0732
91891W        W34882  26.797  19.171  21.106 -0.3059  0.1695  0.0853
91892W        W34883  17.880  19.820  15.727 -0.3218 -0.1357 -0.0426
91893W        W34884   3.635   4.058  22.007  0.1458  0.1109  0.1012
91894W        W34885  20.875   8.788   1.836 -0.1511 -0.1423 -0.2775
91895W        W34886  26.920   7.526   6.014 -0.0999  0.4951  0.2035
91896W        W34887   5.017  17.363  21.625  0.2477  0.4238  0.3446
91897W        W34888  13.329  17.313  27.041  0.1237 -0.1000 -0.0426
91898W        W34889  19.836  12.853  26.829  0.0277  0.1399 -0.2871
91899W        W34890   1.458  27.269  25.067 -0.0914 -0.1224  0.2797
91900W        W34891  10.021  19.646  21.396  0.2508  0.0003 -0.0644
91901W        W34892   7.677  31.638   1.554  0.1850 -0.2057  0.2663
91902W        W34893  13.415  18.328  21.510  0.2979 -0.0631 -0.0407
91903W        W34894   6.717  28.877   0.164  0.0806  0.1442  0.2156
91904W        W34895  25.155  17.158  27.736 -0.4578  0.1636  0.0768
91905W        W34896  17.000   0.690  29.065  0.1969  0.3157 -0.0410
91906W        W34897  23.073   6.604   0.808 -0.0007  0.3319 -0.0428
91907W        W34898  33.719  26.025   5.747 -0.1589  0.1500  0.4437
91908W        W34899   3.019  21.161   8.928 -0.0771 -0.0548  0.1658
91909W        W34900  20.346  12.450  23.882  0.1038  0.0957  0.0475
91910W        W34901  16.013   8.593  25.339 -0.0882  0.3818  0.2776
91911W        W34902  31.047   5.447  27.686  0.0479 -0.0849 -0.2144
91912W        W34903  18.167  23.994  27.016 -0.2239  0.1462 -0.0138
91913W        W34904   0.234  14.500  10.064  0.2433 -0.0545  0.2124
91914W        W34905  13.699   6.351  24.081 -0.1181  0.3536 -0.0274
91915W        W34906  11.498  13.598  25.226  0.2718  0.1293 -0.0841
91916W        W34907  17.195  15.135  23.620  0.4251 -0.0272  0.1113
91917W        W34908   3.878  21.722   9.393 -0.0021 -0.0282 -0.0225
91918W        W34909  10.546  25.783   7.623 -0.0061  0.0944  0.1387
91919W        W34910  23.644  23.808   1.017  0.1319 -0.3100 -0.0103
91920W        W34911   1.846  16.195  26.527  0.1180  0.1229  0.0942
91921W        W34912  16.113  29.978  28.802 -0.1018  0.0533  0.3128
91922W        W34913  25.514   2.525  15.911  0.0209  0.0835 -0.1807
91923W        W34914   4.612  28.527   2.364 -0.1534 -0.0996 -0.1413
91924W        W34915  19.001   6.511  27.851 -0.2145 -0.2195 -0.1113
91925W        W34916  11.897   5.636   3.807  0.2934 -0.0367  0.0563
91926W        W34917  18.162  13.714  24.473  0.2851  0.2840  0.2736
91927W        W34918  21.200  16.183   2.167  0.1704  0.0135  0.2913
91928W        W34919  13.225   0.581  19.823  0.2772 -0.2632 -0.2031
91929W        W34920  16.803  10.006   0.640 -0.0915  0.2487 -0.5188
91930W        W34921  19.152   9.843   3.587  0.0120  0.0483 -0.3402
91931W        W34922  10.609   6.807  23.019  0.1212 -0.0138  0.4023
91932W        W34923  10.770  19.309   4.964  0.0521 -0.2266  0.4419
91933W        W34924  15.187   7.011   5.820 -0.0753  0.0465 -0.1030
91934W        W34925  19.094   2.683  22.178  0.1128  0.1157 -0.2833
91935W        W34926   7.631   9.193   0.047 -0.3959  0.1759 -0.2739
91936W        W34927  32.821  19.672   9.201  0.3900  0.0418  0.1985
91937W        W34928  30.696  30.359  14.128  0.1023 -0.1071  0.0622
91938W        W34929  24.070  33.236  26.820 -0.0902 -0.0453 -0.0607
91939W        W34930  17.801  26.748  24.731 -0.2789  0.0184  0.1573
91940W        W34931  13.950  23.140   9.867  0.0099 -0.1571  0.3694
91941W        W34932  13.887  13.122  21.735 -0.1033  0.0451 -0.1277
91942W        W34933   1.195  13.567   2.971  0.1326 -0.1103  0.2648
91943W        W34934  19.195  14.545   8.545 -0.0805  0.0033 -0.4542
91944W        W34935  10.072   0.315  16.106  0.0309 -0.0713  0.2564
91945W        W34936  12.552  16.870  28.272  0.3122 -0.0376  0.3309
91946W        W34937  26.370   0.074   5.742 -0.1717  0.1722 -0.0557
91947W        W34938  18.907  27.355   3.475 -0.1184 -0.1847  0.1810
91948W        W34939  19.968  14.291  19.757  0.3198 -0.1773  0.1354
91949W        W34940  14.855  19.802  15.691 -0.0171 -0.0221  0.1481
91950W        W34941  12.277  12.711  26.453 -0.1654 -0.0594  0.1222
91951W        W34942   8.075  18.901  27.063 -0.0345 -0.1441 -0.1622
91952W        W34943   6.470  32.530  20.354 -0.0015  0.3006  0.0662
91953W        W34944   4.292  14.533   3.668 -0.3008  0.2504  0.0136
91954W        W34945  13.173  24.306   9.000 -0.2597 -0.1072  0.0152
91955W        W34946  13.199  10.490   8.141 -0.0323 -0.2652  0.1571
91956W        W34947  12.240   1.658  16.265 -0.1720  0.1530 -0.2693
91957W        W34948  14.924  16.133   4.232  0.1563 -0.2492 -0.0896
91958W        W34949  15.705  31.681   1.742  0.0569  0.0375  0.1283
91959W        W34950   5.686  22.271   4.322  0.2227 -0.2461  0.0427
91960W        W34951  26.607  12.606  26.775 -0.1031 -0.1879 -0.2146
91961W        W34952  12.755  32.001   1.334 -0.6164  0.3493  0.0907
91962W        W34953   5.816  21.784  25.291 -0.0764 -0.0072 -0.3385
91963W        W34954  17.479  24.148   3.421 -0.2417 -0.0064 -0.1258
91964W        W34955   5.953  28.376   9.429 -0.0278 -0.0216  0.0844
91965W        W34956  11.590  18.904   6.667 -0.2376  0.0028 -0.0741
91966W        W34957   8.464  14.415  10.705 -0.2074  0.2376 -0.3558
91967W        W34958  15.340   8.097   7.017 -0.3362  0.0098 -0.2575
91968W        W34959   5.866  20.296  28.258 -0.1911  0.0447 -0.0182
91969W        W34960   2.786  10.172  23.409  0.1447 -0.1146 -0.2597
91970W        W34961   8.133   7.805  24.054  0.2589 -0.1826  0.2684
91971W        W34962  11.382  30.213   0.439  0.1004  0.0302 -0.3505
91972W        W34963  19.054   7.828   1.388 -0.0401 -0.0675  0.2632
91973W        W34964   9.839  29.444  18.842 -0.0977 -0.2257  0.0970
91974W        W34965  13.452  17.539   1.395 -0.3897 -0.0436 -0.0242
91975W        W34966  11.685  16.674  14.197 -0.3198  0.0527  0.1913
91976W        W34967  34.572  16.375   5.074 -0.1695  0.1692  0.0710
91977W        W34968  10.188  17.997   2.452 -0.0620  0.2512 -0.3855
91978W        W34969  32.250   3.353  23.106  0.1738 -0.0461 -0.4276
91979W        W34970  28.999  25.246  23.612 -0.1908  0.1399  0.1069
91980W        W34971  12.854  10.716  21.431 -0.1059  0.2038 -0.2919
91981W        W34972  33.379  20.877   3.800  0.2618 -0.2219 -0.1386
91982W        W34973  31.288  12.986  17.739 -0.0026  0.2796  0.3421
91983W        W34974  10.494  13.048  26.800  0.0642 -0.4589 -0.3740
91984W        W34975  11.612  15.386  20.235 -0.1467  0.0055  0.0128
91985W        W34976  11.786  29.205   9.424  0.2391 -0.1239  0.0641
91986W        W34977  10.331  10.054   9.428 -0.0499  0.0785  0.1801
91987W        W34978  17.772   9.630  25.976 -0.2215 -0.0161 -0.1737
91988W        W34979  28.703  29.379  27.433  0.0520  0.1196 -0.0189
91989W        W34980  19.223  29.316   5.296  0.0839  0.0010  0.0664
91990W        W34981   6.345  19.374  21.351 -0.1433  0.0352 -0.3319
91991W        W34982  12.049   9.915  18.932  0.2797 -0.0127  0.1460
91992W        W34983  13.821   3.064   8.575 -0.1292 -0.0277 -0.1501
91993W        W34984   1.983  26.595   8.170  0.0562  0.1565 -0.1554
91994W        W34985   6.356  20.796   8.144 -0.0041  0.0803  0.2153
91995W        W34986   9.080  16.073  15.515  0.1035  0.1307  0.0258
91996W        W34987   1.815  20.883   9.759 -0.2450 -0.2763  0.1716
91997W        W34988  19.926  32.988  14.694  0.0361  0.2452  0.0407
91998W        W34989  14.167  18.010   0.286 -0.0276  0.0584  0.0402
91999W        W34990  12.629  19.610  21.810  0.2530 -0.0341  0.0911
92000W        W34991  24.176  33.576   0.082  0.1846 -0.1000 -0.0774
92001W        W34992   7.938   3.805   5.539 -0.2206 -0.1032  0.0532
92002W        W34993  11.904  19.824   3.374 -0.0263  0.0426  0.3477
92003W        W34994   2.278  27.060  21.043  0.0800 -0.2155  0.1028
92004W        W34995  10.461  29.348   5.036 -0.0302 -0.1586 -0.0394
92005W        W34996   7.954  14.960  24.643 -0.2105  0.0257  0.0107
92006W        W34997   7.612  29.769  27.228  0.0800  0.3371  0.3534
92007W        W34998   2.705  11.546   6.161 -0.1450  0.0624  0.1007
92008W        W34999  14.389  18.148  22.831 -0.1667  0.0249 -0.3183
92009W        W35000  16.400  14.960   7.724  0.1432  0.2881  0.0877
92010W        W35001  15.378  18.456   4.640 -0.1675 -0.1150  0.1734
92011W        W35002  13.607  19.869  21.779 -0.0059  0.0305 -0.3350
92012W        W35003  17.226  11.221  20.762  0.3111  0.1577  0.0383
92013W        W35004  16.701  30.740  18.856  0.2548 -0.0952 -0.0040
92014W        W35005   8.753  14.751  20.891 -0.0315  0.0796 -0.1110
92015W        W35006   5.415  18.478   0.083  0.0245 -0.4552 -0.0021
92016W        W35007   2.381  30.411  29.116 -0.0790 -0.2210  0.0547
92017W        W35008  17.361  10.580   9.695 -0.3068 -0.1263 -0.5226
92018W        W35009   7.479  15.007  19.953 -0.1882  0.1998 -0.0899
92019W        W35010  20.995   1.992   8.596 -0.2011 -0.4718  0.1748
92020W        W35011   4.085   9.085  22.003 -0.4970  0.3076 -0.0402
92021W        W35012   5.201  14.536  10.630  0.0411 -0.2774 -0.3543
92022W        W35013  11.199   5.655   3.971 -0.3096  0.1292 -0.2135
92023W        W35014  29.891  26.506  18.560  0.0546 -0.2189 -0.0756
92024W        W35015  10.500  14.186   6.938  0.2640 -0.0062  0.2435
92025W        W35016   7.028  18.943   3.389  0.0837  0.1067  0.0183
92026W        W35017   8.246  19.680  28.182  0.1384 -0.0636  0.0228
92027W        W35018  17.577   4.653   8.800 -0.0077  0.2140 -0.0894
92028W        W35019   5.095   2.507   6.507  0.0364 -0.1925  0.0973
92029W        W35020  21.909  17.988   6.020  0.1806  0.1535  0.2725
92030W        W35021  13.749   9.763  21.787 -0.4434  0.2233  0.1596
92031W        W35022  13.333   1.884  20.111  0.1026  0.2161  0.1412
92032W        W35023   5.338  16.997   2.816 -0.1069 -0.0589 -0.2435
92033W        W35024  11.363  11.195  20.553 -0.0155  0.2764  0.3189
92034W        W35025  25.366   9.799   1.135  0.2678  0.2716  0.1437
92035W        W35026   9.409   6.416   4.314 -0.2541 -0.0514  0.2735
92036W        W35027   8.632   5.995  24.321  0.2752 -0.0059 -0.0327
92037W        W35028  33.476  29.542  18.226 -0.1882  0.3849  0.0446
92038W        W35029  21.356  23.582   7.721 -0.1888 -0.2862 -0.2144
92039W        W35030   7.617  24.450   8.521 -0.4555  0.1494 -0.2142
92040W        W35031  21.914  15.139   4.477 -0.0084 -0.2531 -0.2536
92041W        W35032  21.111   4.518  21.173 -0.0121  0.0947 -0.0242
92042W        W35033  17.322   4.399  18.926 -0.2122 -0.1395 -0.1484
92043W        W35034  30.595  16.925  10.356 -0.0776  0.0003 -0.2140
92044W        W35035  26.314  20.287   5.362  0.0571  0.1567 -0.1723
92045W        W35036  14.390  22.935   7.842 -0.0653  0.1703  0.0582
92046W        W35037   8.533  18.571   8.129  0.2407  0.1719 -0.0022
92047W        W35038  11.812  19.823   3.889  0.0771 -0.1770  0.2146
92048W        W35039   3.900   4.335  28.569 -0.0917 -0.0015  0.1016
92049W        W35040  19.204  33.475   2.621 -0.2651 -0.0223  0.1163
92050W        W35041  23.706  24.501  20.155 -0.0324  0.2231 -0.1151
92051W        W35042  11.889  22.190  21.989 -0.0529  0.0445 -0.1397
92052W        W35043  17.947   9.337  24.511 -0.0944  0.1918  0.3532
92053W        W35044   0.491   0.069  24.778 -0.2562  0.0311 -0.4028
92054W        W35045  10.660   7.215   4.295 -0.0365  0.2268  0.3610
92055W        W35046  20.350  10.519   0.323  0.1790 -0.1474  0.2268
92056W        W35047   7.478  34.219   7.288 -0.1288 -0.0641 -0.3013
92057W        W35048  18.808  17.187  27.555  0.1311 -0.3522 -0.1803
92058W        W35049  16.276  28.138  23.095 -0.1564  0.0171  0.1575
92059W        W35050   3.365  25.201  18.670 -0.0608  0.0158 -0.0310
92060W        W35051   3.026  21.234   6.423 -0.0703 -0.1485 -0.2271
92061W        W35052  12.819  26.584   6.171 -0.1277 -0.2323  0.1713
92062W        W35053  11.460  23.150   7.323 -0.0604 -0.2527 -0.2018
92063W        W35054  25.196  11.870  16.982  0.1739  0.0523  0.0467
92064W        W35055   3.718   6.930   5.840 -0.1337 -0.0779  0.0981
92065W        W35056  19.196  16.103  23.431  0.0710  0.0198 -0.2980
92066W        W35057  18.336  33.598   3.010 -0.1238 -0.0106  0.2010
92067W        W35058  18.317  17.102   7.647  0.2591  0.0302 -0.0136
92068W        W35059   7.914  16.697   8.553  0.5639  0.4666  0.2296
92069W        W35060   8.587  20.172  25.117  0.3145  0.1569  0.1212
92070W        W35061   6.253   8.120   6.434 -0.1654  0.0712  0.5063
92071W        W35062  17.650   0.402  26.070 -0.0177 -0.2709 -0.1882
92072W        W35063  13.094  20.274  28.005  0.0377  0.3791  0.0511
92073W        W35064  11.238   2.790  15.849 -0.3236 -0.0489 -0.2233
92074W        W35065  24.442  17.974   7.800 -0.0525 -0.0250 -0.1868
92075W        W35066  12.169  28.587  14.869  0.0538  0.0426  0.2787
92076W        W35067  11.357  23.836  28.113  0.0688 -0.0845  0.0427
92077W        W35068  12.379  19.682  27.988  0.3055 -0.0391  0.1065
92078W        W35069  21.929   6.597  25.940 -0.0510 -0.3159  0.3247
92079W        W35070  34.596  32.823   2.944 -0.0890  0.0285 -0.0919
92080W        W35071   7.644   3.441   6.808  0.2143  0.0224 -0.3022
92081W        W35072  22.300   6.445   9.610 -0.0225 -0.1158  0.2103
92082W        W35073  16.650   9.373  29.164  0.2073 -0.0741  0.2504
92083W        W35074   3.172   4.624   5.638 -0.1471  0.1701  0.1772
92084W        W35075  15.492  23.304   5.391  0.0931 -0.3657 -0.1716
92085W        W35076  28.916  17.183  22.775 -0.0131  0.0987 -0.1645
92086W        W35077  24.152   8.976   7.195  0.0952  0.0763  0.1351
92087W        W35078  21.017   5.467  27.020  0.0493 -0.1378  0.0720
92088W        W35079  22.876  10.637  16.099  0.3697 -0.4237 -0.0477
92089W        W35080  11.932  24.902  23.752  0.4094  0.3643  0.0344
92090W        W35081   5.530  20.805   7.076 -0.1542  0.2340 -0.1835
92091W        W35082  12.416  10.089  22.315 -0.0150  0.2549 -0.1001
92092W        W35083  16.673  32.705  13.985  0.1035  0.0948 -0.0213
92093W        W35084  11.830  25.253  27.353 -0.1390 -0.1050  0.3765
92094W        W35085   7.216  16.317   2.983  0.2974  0.2571  0.0202
92095W        W35086  25.197   7.835   8.806  0.0136 -0.1710 -0.2389
92096W        W35087  14.266  15.760  25.640  0.0531 -0.0234  0.1281
92097W        W35088   1.994  12.675   3.692 -0.3545 -0.0491 -0.2546
92098W        W35089   6.284   2.020   1.290 -0.3369 -0.1836 -0.0371
92099W        W35090   9.413  15.717   8.952  0.0581 -0.1801  0.1013
92100W        W35091   2.135  29.441   8.882 -0.0413 -0.0782  0.0154
92101W        W35092  13.455   8.287  26.849  0.0340 -0.1125  0.2867
92102W        W35093  34.021  34.128  25.412 -0.0553  0.0692  0.1581
92103W        W35094  28.434  30.696  27.942  0.0396  0.3535 -0.1102
92104W        W35095  11.817   9.985  17.857 -0.0374 -0.0277  0.0324
92105W        W35096  31.813  16.221   7.705  0.0044  0.3228  0.0909
92106W        W35097  20.338   3.146  25.280  0.1507  0.0914  0.1904
92107W        W35098  15.374   5.456   3.825 -0.0664 -0.0691  0.1279
92108W        W35099  34.427  30.222  23.510  0.1028 -0.0730  0.3675
92109W        W35100  17.024  16.471   4.152 -0.1805 -0.0580 -0.0114
92110W        W35101   1.834  21.014   0.109 -0.0326  0.0030  0.2180
92111W        W35102  13.099  17.572   2.282 -0.1984 -0.3767 -0.0635
92112W        W35103  12.386   8.291  18.674  0.3352 -0.1612 -0.1065
92113W        W35104  18.848  25.209   1.577  0.1168  0.0629 -0.0422
92114W        W35105   7.276  13.583   0.415 -0.1446  0.0252 -0.2855
92115W        W35106  10.105  12.829   0.108  0.0244  0.1394  0.0337
92116W        W35107  15.886  31.925   9.848  0.1332 -0.3162 -0.1012
92117W        W35108  29.350  26.639   7.101 -0.4283  0.1621  0.1891
92118W        W35109  18.115   5.733   2.215  0.1830  0.0261 -0.0423
92119W        W35110  17.667  21.721  24.703  0.2014 -0.3202  0.1124
92120W        W35111  15.591  31.071  19.691 -0.2949 -0.4121  0.1669
92121W        W35112  32.605  14.531   9.692  0.1950 -0.3069 -0.0461
92122W        W35113   8.026  25.797   9.853 -0.2917 -0.1835  0.1123
92123W        W35114  22.798  13.308  28.127 -0.0898  0.1261 -0.0637
92124W        W35115  21.902  12.930   8.975  0.2644 -0.1188  0.2419
92125W        W35116  11.322   5.263   7.605 -0.1880 -0.0158  0.0058
92126W        W35117   1.662  13.973   0.785  0.0474  0.1199  0.0860
92127W        W35118   0.610  19.553   6.191 -0.2632  0.0778  0.2591
92128W        W35119  18.403   7.539   8.708 -0.3147  0.1662  0.2051
92129W        W35120   5.173  18.785   7.207 -0.1645  0.0208  0.2909
92130W        W35121  24.377  23.886   2.986 -0.0737  0.3852 -0.1803
92131W        W35122   6.532  24.752  13.736 -0.1386 -0.2412  0.2349
92132W        W35123  31.438  11.231  26.826 -0.1303 -0.1580  0.2325
92133W        W35124  33.315  24.558  27.556  0.0084  0.0255 -0.0395
92134W        W35125   7.894  26.194   5.636 -0.1766  0.1374  0.0707
92135W        W35126  33.006  20.874   3.143  0.0821 -0.2139  0.0314
92136W        W35127  31.579  15.738   1.634 -0.3404  0.2370 -0.3209
92137W        W35128  11.938   5.554   8.931  0.0639 -0.0105 -0.0705
92138W        W35129   7.362  14.373   9.834 -0.0949  0.1738 -0.2356
92139W        W35130  31.287   2.711  18.984 -0.1585  0.0580  0.1138
92140W        W35131  10.406  20.699  10.318  0.1536 -0.0601 -0.1088
92141W        W35132  15.593  27.686   6.075  0.0326  0.1229  0.3660
92142W        W35133  21.878  22.693   1.893  0.0059 -0.0305 -0.0272
92143W        W35134   4.939  29.081  25.182  0.3036  0.1244 -0.1947
92144W        W35135  10.615  14.029  10.400 -0.1078  0.1555  0.1766
92145W        W35136  28.341   9.724   5.507  0.1107 -0.2187  0.0983
92146W        W35137   4.843   8.367  15.835  0.2174  0.0136 -0.0604
92147W        W35138  19.011  16.369  13.981  0.0397 -0.0404  0.3877
92148W        W35139   2.439   2.291   8.230 -0.2525  0.1511  0.1808
92149W        W35140  31.802  14.665   8.639 -0.1024  0.0226 -0.1448
92150W        W35141  21.365  10.954   7.414  0.1262  0.1586  0.0700
92151W        W35142   9.392  22.661  17.874 -0.1311 -0.1902  0.1871
92152W        W35143   9.674  18.640  15.822 -0.2170 -0.0576  0.1084
92153W        W35144  29.663  14.524   5.723  0.0652 -0.2028  0.1319
92154W        W35145  18.903  18.484   6.271 -0.1501 -0.0428 -0.2288
92155W        W35146   8.240   5.735   7.832 -0.1931 -0.1081  0.4072
92156W        W35147  15.392  24.465   8.543  0.4031  0.1691 -0.1294
92157W        W35148  14.767  18.102  27.455 -0.0481  0.0246  0.0783
92158W        W35149  10.849   2.488  22.089 -0.0703 -0.4339  0.2663
92159W        W35150  32.550  14.515   7.078 -0.3699  0.1689  0.0125
92160W        W35151   3.412  18.460   9.927  0.0841 -0.2817 -0.4207
92161W        W35152  10.509  13.841  27.302  0.2567 -0.1646 -0.1520
92162W        W35153   8.029  24.311   9.572  0.1096  0.0433  0.0956
92163W        W35154   3.892   9.925   3.000  0.0332  0.0510 -0.1090
92164W        W35155  12.572  11.711   0.638 -0.2878 -0.0950 -0.0826
92165W        W35156   0.286  13.232  10.562 -0.1234 -0.1494 -0.0245
92166W        W35157   6.712  20.364   7.612  0.1904  0.3503  0.1907
92167W        W35158  11.952  26.444   2.911  0.2538 -0.0437  0.2241
92168W        W35159  12.201  10.519  28.261 -0.1145 -0.3999 -0.0970
92169W        W35160  19.788  14.465   8.527  0.1490  0.0104  0.0248
92170W        W35161  22.425  30.096   7.275  0.2589  0.1819  0.1397
92171W        W35162   6.351  21.847  15.820  0.0448  0.1329  0.0532
92172W        W35163   5.852   0.393  26.338 -0.2410  0.1930 -0.1465
92173W        W35164   8.127  17.433   9.553  0.3995 -0.0939  0.0164
92174W        W35165  29.943  31.103   4.659 -0.0746  0.0181  0.1099
92175W        W35166  12.715  27.436   5.000 -0.1700 -0.2408 -0.0394
92176W        W35167   8.352  19.159  21.394 -0.0480  0.0692  0.2030
92177W        W35168  28.961  34.372  19.081 -0.0579 -0.0330  0.1374
92178W        W35169  16.477  32.151   7.140  0.1717  0.1455  0.0011
92179W        W35170  18.678   7.022  21.111 -0.0455 -0.0700 -0.0700
92180W        W35171   8.961  15.100   4.662  0.0246  0.0425 -0.0875
92181W        W35172   6.817   0.048  19.340 -0.0739 -0.2033  0.1679
92182W        W35173  28.623  14.472  26.416  0.2553  0.0592 -0.0044
92183W        W35174   7.333  17.818  26.528  0.0860 -0.0552  0.0950
92184W        W35175  10.910  20.888   2.190 -0.0645 -0.0973  0.3656
92185W        W35176  25.379  29.857   6.024  0.1743 -0.3764  0.0277
92186W        W35177  10.913  12.758   6.856 -0.3921 -0.1831  0.1621
92187W        W35178  16.956  15.362   2.199  0.0281 -0.0794  0.0278
92188W        W35179  34.300  24.921  19.462 -0.0581  0.0010 -0.0903
92189W        W35180   7.415  16.253   2.040 -0.2061 -0.0239 -0.0470
92190W        W35181   6.937  30.174  15.546 -0.2945  0.0182  0.3500
92191W        W35182  12.960  18.839  23.969  0.1817  0.0213  0.1225
92192W        W35183  25.631  13.213   7.680 -0.0795 -0.0386  0.0882
92193W        W35184  18.158  11.669   8.742  0.2321  0.1493  0.5738
92194W        W35185  21.539  30.736   4.679  0.2411 -0.1078 -0.2751
92195W        W35186   6.756   1.341  28.856 -0.1407 -0.0945  0.2814
92196W        W35187  25.184  13.074   3.773  0.1328  0.2341 -0.2064
92197W        W35188   5.259  17.558  26.413 -0.2630  0.0462  0.1606
92198W        W35189  16.831  20.540   6.778  0.0371  0.4979 -0.3746
92199W        W35190  34.486  12.218   8.501  0.1772  0.1473  0.4859
92200W        W35191  19.128   2.518  25.848 -0.0516  0.1005  0.0553
92201W        W35192  11.051   5.900   0.311  0.1680 -0.2372 -0.2475
92202W        W35193   5.156  34.229   9.523 -0.0006 -0.3601 -0.0392
92203W        W35194  34.668  22.050  26.280  0.0225 -0.0916 -0.1753
92204W        W35195   7.538  11.339  16.629 -0.0565  0.1192  0.1936
92205W        W35196   3.868  18.418  22.862 -0.0236  0.1937 -0.2266
92206W        W35197  16.859  17.769  24.550 -0.2575 -0.1621 -0.0190
92207W        W35198  22.733   1.427  22.157  0.0280  0.0552 -0.1892
92208W        W35199   6.981  31.998  27.516  0.2192  0.0067  0.0309
92209W        W35200  12.806  24.310   6.827  0.0395  0.1543  0.1833
92210W        W35201  13.706  24.797  22.581 -0.0488 -0.0028 -0.0189
92211W        W35202  21.150  27.945   6.404 -0.2791 -0.1142 -0.2660
92212W        W35203  24.712  30.930   5.982  0.4718  0.3333 -0.0144
92213W        W35204  25.892  23.431  28.929 -0.0981  0.2141  0.0287
92214W        W35205   6.269  30.544   7.233 -0.0661  0.2992 -0.1057
92215W        W35206   7.429   5.013  10.263 -0.1251 -0.2127 -0.2819
92216W        W35207  23.204   4.358   8.730 -0.0322  0.0557 -0.0486
92217W        W35208  20.354  23.438   4.611  0.0119 -0.1210  0.0197
92218W        W35209  19.361  21.845   1.956 -0.1705  0.0928 -0.2335
92219W        W35210   1.724  24.648  10.025  0.0561 -0.2332  0.0702
92220W        W35211  16.769  28.221   2.436 -0.0147  0.1021  0.0446
92221W        W35212   3.567   8.293  22.467 -0.1867  0.1282 -0.0301
92222W        W35213   6.637  13.610   6.812 -0.1401 -0.0800  0.1896
92223W        W35214  25.648  13.707   7.416  0.0494  0.0161  0.1138
92224W        W35215   0.199   8.721  27.245  0.3963 -0.3231 -0.1679
92225W        W35216   7.742  27.094   8.331  0.1124 -0.2310  0.0381
92226W        W35217  13.333  23.143   2.101  0.0268  0.1027  0.3826
92227W        W35218   6.920  16.743   1.902 -0.0496 -0.1414  0.1475
92228W        W35219   2.426  18.141  11.964  0.0299  0.2686  0.1183
92229W        W35220  13.145  24.145   2.691  0.0094  0.1290 -0.2833
92230W        W35221  21.854   8.657  18.488 -0.1877  0.3429 -0.0991
92231W        W35222  23.534   4.093  18.436  0.1946  0.0954 -0.0712
92232W        W35223   5.874  16.291   7.317  0.0902  0.2283 -0.2063
92233W        W35224  31.431  23.051  27.015  0.3144 -0.0814  0.2463
92234W        W35225   8.690   4.996  10.153 -0.0546 -0.2701 -0.1407
92235W        W35226  23.205  20.569   6.830  0.0500  0.4865 -0.0894
92236W        W35227  14.719  11.004  29.139  0.0750  0.0260 -0.0550
92237W        W35228   8.935  11.433   5.639 -0.2000  0.3392  0.0371
92238W        W35229  10.310  19.463  19.030 -0.2269  0.0531  0.0759
92239W        W35230  18.422  14.666   2.684  0.1190 -0.2527 -0.0170
92240W        W35231  12.269   7.625   1.576 -0.2162  0.1068 -0.3123
92241W        W35232   2.153  14.149  17.261 -0.1988  0.0670  0.1424
92242W        W35233  16.396  16.086  22.904 -0.2033  0.0272  0.0808
92243W        W35234   8.832  17.962   5.355  0.1847 -0.0003  0.0489
92244W        W35235   3.559   9.951   1.357 -0.0348 -0.0850  0.0613
92245W        W35236   5.396  19.770   7.271 -0.3011 -0.1024 -0.1941
92246W        W35237   1.193  19.421   3.055 -0.3399  0.2309 -0.1179
92247W        W35238   1.196  18.347  19.063  0.3983 -0.2465  0.0209
92248W        W35239  32.780  11.010  24.961  0.1515  0.1233 -0.2211
92249W        W35240  10.409   4.624   9.416  0.3116  0.2085  0.2998
92250W        W35241  13.284  10.498  27.846 -0.3680 -0.0647  0.1864
92251W        W35242  16.357  24.871   9.145 -0.0719  0.0104 -0.1177
92252W        W35243  22.502  31.146   4.130 -0.0468  0.0030 -0.1092
92253W        W35244  20.529  15.996  13.468  0.1632 -0.0755  0.2305
92254W        W35245  16.688  14.247  15.753  0.1333  0.2857  0.1943
92255W        W35246  23.525   1.708  20.628  0.1893  0.0074  0.2519
92256W        W35247  10.958  23.895   4.524  0.0610  0.0915  0.0645
92257W        W35248   3.239  10.741   6.186 -0.2219  0.0641 -0.1992
92258W        W35249   6.185  16.207  25.416  0.0102  0.0253 -0.1177
92259W        W35250  25.223   5.021  28.938  0.1151  0.2281  0.2760
92260W        W35251   3.650  11.786   4.067  0.3065  0.0029  0.1432
92261W        W35252   8.767  10.309   0.253 -0.0111 -0.1178 -0.0650
92262W        W35253   6.752  18.018  10.124 -0.0962  0.1783 -0.2668
92263W        W35254  21.773  22.541  23.972 -0.0021 -0.1009  0.1614
92264W        W35255  26.226   4.286  22.198  0.0254  0.0083 -0.0012
92265W        W35256   9.494  25.347  21.840  0.1172  0.2719  0.3437
92266W        W35257   5.412  29.959  14.159  0.1491  0.2354  0.0301
92267W        W35258  28.813  11.820   8.313  0.0528  0.1676 -0.1493
92268W        W35259  10.525  20.420   8.935 -0.5034  0.1754  0.0647
92269W        W35260  10.833  10.066   9.004  0.0708 -0.1873  0.1012
92270W        W35261  20.182  12.117  13.312  0.0503  0.0128  0.1435
92271W        W35262  15.918  24.471   6.830  0.1460  0.1078  0.3293
92272W        W35263  22.187  18.251  21.801 -0.0722 -0.2564  0.1699
92273W        W35264  24.257   9.236   7.636 -0.1332  0.0685  0.2392
92274W        W35265  12.771   6.815  21.563  0.2598  0.2400 -0.2393
92275W        W35266   7.940  20.504  19.870 -0.0156  0.1440 -0.3614
92276W        W35267   3.278  31.160   6.422  0.3913  0.2598  0.1046
92277W        W35268   6.402  32.625   2.599 -0.1126  0.0307  0.1726
92278W        W35269  20.501  18.617  26.483  0.0527 -0.0700  0.2055
92279W        W35270  22.129  31.150  26.225  0.0241  0.0987  0.0209
92280W        W35271   1.090   6.384   7.660  0.0487  0.1859  0.0096
92281W        W35272  28.086  14.235  11.166 -0.2163  0.1641  0.1453
92282W        W35273  13.332  17.722   4.042  0.1903 -0.2062  0.0314
92283W        W35274  18.474  11.256   5.473 -0.1455 -0.0147  0.1454
92284W        W35275   1.017  10.452  26.894  0.0474 -0.1987 -0.2635
92285W        W35276   4.286  13.809   1.599  0.2729 -0.1637  0.2031
92286W        W35277   8.459  28.942   1.622  0.1574  0.1269 -0.0714
92287W        W35278  32.138  17.680  27.569 -0.1513 -0.2968 -0.2107
92288W        W35279   3.495  24.373   0.896 -0.2219  0.2737 -0.0587
92289W        W35280  22.637  26.610   7.726 -0.1114  0.1313 -0.3755
92290W        W35281   9.169  30.162   9.267 -0.0296  0.1657  0.2700
92291W        W35282  31.050  21.765   3.442  0.1722 -0.3029  0.0180
92292W        W35283   7.303  17.916  20.928  0.1103  0.2001  0.0313
92293W        W35284   2.227   4.099   3.968  0.2941  0.2728 -0.0579
92294W        W35285  15.135  17.846   6.865  0.1054 -0.2919 -0.1919
92295W        W35286  32.660  12.686   6.037 -0.0564  0.0351  0.0646
92296W        W35287  10.726  11.710  11.814 -0.0157 -0.1094 -0.0033
92297W        W35288  17.535  17.110  27.337 -0.0998 -0.0667  0.2961
92298W        W35289  16.641   6.035   6.276 -0.0961 -0.0588  0.1046
92299W        W35290   4.586  19.155   9.121 -0.1848 -0.3433  0.3544
92300W        W35291   1.964  11.106   5.338  0.0392  0.4032  0.0702
92301W        W35292  30.765   5.885   9.922  0.0764  0.3266  0.1917
92302W        W35293   6.026  23.828   8.357 -0.0548 -0.2411  0.1371
92303W        W35294   3.430  14.861  24.215 -0.1143  0.3936  0.0682
92304W        W35295  11.759   3.117  19.066 -0.0688 -0.1436 -0.1683
92305W        W35296  10.418  19.693   5.891 -0.0751 -0.1623  0.0388
92306W        W35297  31.497  27.062   5.557  0.2034 -0.0880 -0.0519
92307W        W35298  17.504  21.114  27.630  0.0326  0.3223  0.1154
92308W        W35299   5.493  23.675   6.113  0.1098  0.0974  0.0301
92309W        W35300  32.111  19.099  10.040  0.0594  0.1465  0.1542
92310W        W35301  32.049  19.721   9.627 -0.1891 -0.3421 -0.3391
92311W        W35302  10.639  24.797  26.043 -0.3991 -0.1573 -0.1309
92312W        W35303   3.187  19.169  25.423  0.2811  0.1470 -0.1548
92313W        W35304  13.875  26.423   6.107  0.2260 -0.0927 -0.2670
92314W        W35305   5.557  24.171   0.246  0.0474  0.2951  0.0245
92315W        W35306  18.069  25.094   7.266  0.0529 -0.0150 -0.0157
92316W        W35307  10.992  17.004   6.870  0.1517  0.0160 -0.0618
92317W        W35308   5.094  16.438  12.302  0.0878  0.0851  0.2643
92318W        W35309  24.363  14.562   2.256 -0.0646 -0.1410  0.1282
92319W        W35310   1.431  14.360  26.569 -0.1742  0.1923 -0.2211
92320W        W35311  14.073  30.082   6.919  0.0501  0.0050 -0.1633
92321W        W35312  17.138  22.411   1.879 -0.4307 -0.0046 -0.0994
92322W        W35313  26.042  25.545  24.476  0.3222  0.0875 -0.2692
92323W        W35314  17.278   2.124   3.138  0.3220  0.0733  0.1424
92324W        W35315  14.183   9.159  18.283 -0.0505 -0.2203  0.2723
92325W        W35316  22.105   3.818   5.112 -0.0055  0.5055  0.0728
92326W        W35317  22.391   5.501   9.334 -0.2428 -0.2169 -0.2798
92327W        W35318  20.937   4.639   3.809 -0.0342  0.1706  0.2184
92328W        W35319  22.645  25.315  27.416  0.1027  0.0851 -0.1025
92329W        W35320   5.488  32.665   4.766 -0.0966 -0.0070  0.0710
92330W        W35321   7.176  14.214   4.083  0.0764  0.1693  0.3368
92331W        W35322  10.244  17.794   5.419 -0.1533 -0.2540  0.2346
92332W        W35323  10.509   8.272  24.363 -0.1785  0.0960 -0.0942
92333W        W35324  14.864   9.844   3.047 -0.0758 -0.1391 -0.2812
92334W        W35325  31.950  27.211  26.436  0.1005  0.1910  0.2149
92335W        W35326  27.755   7.943  14.675 -0.3527 -0.1497 -0.2333
92336W        W35327   9.700  15.093  19.689 -0.0833  0.0123  0.1898
92337W        W35328  16.331  27.220   5.221 -0.0939 -0.2038  0.0243
92338W        W35329  12.993  33.484   6.374  0.1388  0.3069 -0.1471
92339W        W35330   8.047  18.428  10.199  0.0419 -0.1431 -0.0218
92340W        W35331  11.268  15.310  28.248  0.2114  0.0616 -0.0200
92341W        W35332  23.071  29.880  20.745  0.1590  0.0355  0.1865
92342W        W35333  13.175  18.897  28.005 -0.4007  0.0392 -0.0788
92343W        W35334  30.871   5.313  15.910  0.4145  0.2007 -0.2657
92344W        W35335  20.405  13.127  23.697 -0.0369 -0.4451 -0.2735
92345W        W35336  24.330   4.579   4.808 -0.0529 -0.1622 -0.0131
92346W        W35337   4.505  11.823  18.249  0.0044 -0.1598 -0.6116
92347W        W35338   0.608  16.755   0.978 -0.0327 -0.1987  0.2676
92348W        W35339  19.294  15.177  16.950 -0.0506  0.1411  0.0154
92349W        W35340  13.569  10.639  25.430  0.1388  0.1902 -0.0984
92350W        W35341  13.406  20.470  17.071 -0.0283  0.0110 -0.1873
92351W        W35342  13.329  15.837   0.279  0.0273  0.1266 -0.1101
92352W        W35343  10.126   8.105   9.080 -0.3953  0.1063  0.3586
92353W        W35344   4.588  25.238   9.846  0.1150  0.1675 -0.2716
92354W        W35345   6.097  21.835  19.926  0.3863 -0.1999 -0.1211
92355W        W35346  20.760  23.176  27.561 -0.1293 -0.1903 -0.2125
92356W        W35347   5.237   6.599  19.763 -0.0610  0.0192 -0.0763
92357W        W35348  10.351  11.841  22.000  0.0910  0.1108  0.3764
92358W        W35349  16.670  14.170   3.360 -0.1946  0.1636 -0.0616
92359W        W35350   8.589  32.322   0.658  0.2442  0.1768  0.0041
92360W        W35351  19.826  18.216  23.987 -0.0119  0.4721  0.2206
92361W        W35352  22.292  15.859   6.057  0.0694  0.0239  0.0964
92362W        W35353  19.643   6.008   0.192  0.1651  0.0622 -0.0985
92363W        W35354  33.351  23.015   5.707 -0.3254  0.3921 -0.1324
92364W        W35355   7.045  32.618  14.834  0.2889 -0.0653  0.1071
92365W        W35356   1.676  21.114   3.418 -0.2937  0.0318  0.0720
92366W        W35357   7.781  24.436  27.514  0.1276 -0.1201 -0.0448
92367W        W35358  10.818   4.634  10.336  0.1347 -0.2587 -0.0737
92368W        W35359  21.217  26.696   9.145  0.1186  0.0235 -0.2740
92369W        W35360  13.784  21.868  27.649 -0.0369  0.1539 -0.1606
92370W        W35361  31.311   4.185  27.522  0.3909  0.2109 -0.0960
92371W        W35362  13.297  10.097   4.575 -0.0758  0.0045  0.2114
92372W        W35363   9.247  19.972  17.903 -0.2304 -0.0910  0.1178
92373W        W35364  11.307  27.141  25.421 -0.1400  0.0016 -0.0961
92374W        W35365   4.989  13.384  23.917 -0.0768 -0.0463  0.2590
92375W        W35366  31.197   8.826   9.776  0.1635 -0.0136 -0.0995
92376W        W35367  32.714  30.800  27.720  0.1147  0.0956 -0.2031
92377W        W35368  34.244  12.799   9.285  0.0913 -0.2263 -0.0883
92378W        W35369  10.642   7.349  20.994 -0.1222  0.3915 -0.3021
92379W        W35370  18.589   6.565  13.444  0.3499  0.2327 -0.1765
92380W        W35371   7.957   1.783   7.968 -0.0915 -0.0110 -0.0645
92381W        W35372   8.270   8.787   5.705  0.2883 -0.1739 -0.1842
92382W        W35373  13.571   5.332   9.974  0.1047 -0.2569 -0.0875
92383W        W35374  27.439  31.201   0.706 -0.1354  0.0223 -0.1924
92384W        W35375  22.185   4.666   4.082 -0.0224  0.4260 -0.1098
92385W        W35376  30.873  10.309   1.838  0.0663 -0.0400 -0.1336
92386W        W35377  23.301   6.564   4.479  0.0732  0.2624  0.0827
92387W        W35378  18.577   3.434  28.358 -0.1235  0.1652  0.4289
92388W        W35379  14.690  24.728  28.409  0.3840  0.1287 -0.1464
92389W        W35380  14.661  22.265   8.864 -0.0696 -0.1460  0.1269
92390W        W35381  22.344   1.606  14.048 -0.1455 -0.0142  0.1371
92391W        W35382   7.756  15.827   5.344 -0.0199 -0.3073  0.0234
92392W        W35383  10.461  16.780  18.086  0.3244  0.1333  0.1603
92393W        W35384  13.054  13.466  22.585  0.1804  0.2798 -0.1314
92394W        W35385  15.945  16.322   7.651  0.1836  0.1704 -0.4425
92395W        W35386  15.838   7.422  25.515 -0.0056  0.4111  0.0935
92396W        W35387  32.809  14.300  28.754  0.0780 -0.0579 -0.2580
92397W        W35388   4.064  17.023   9.481 -0.0031 -0.0916  0.0308
92398W        W35389  22.535  15.623   6.523 -0.1731 -0.4408  0.1688
92399W        W35390  24.913  16.911   4.997 -0.1230 -0.2441 -0.0185
92400W        W35391   6.950  15.238  10.895 -0.1665  0.1787 -0.3546
92401W        W35392   9.602   9.451  16.450 -0.2498  0.3033 -0.0187
92402W        W35393  15.436  11.587  23.833 -0.1466 -0.1785 -0.2573
92403W        W35394  20.348  28.439   0.737  0.0419  0.2383 -0.1324
92404W        W35395  20.905   7.349  27.332 -0.0025 -0.1258 -0.2115
92405W        W35396  12.659  23.555   5.632  0.1141  0.2533 -0.0617
92406W        W35397  12.431   7.176   9.473 -0.2824 -0.0766  0.0924
92407W        W35398  17.763  12.589   6.805 -0.0584  0.0421 -0.0069
92408W        W35399   1.339  16.896   1.123  0.2421  0.0814  0.0290
92409W        W35400  17.403  32.255   2.559  0.1447  0.2036 -0.1177
92410W        W35401  17.676  17.323  26.691  0.1663  0.3680 -0.0104
92411W        W35402  14.490  22.357   8.025  0.0101 -0.0799  0.0164
92412W        W35403   9.681  12.868   5.630  0.0128  0.2500  0.3771
92413W        W35404   8.264  23.889   1.783  0.0626 -0.0604  0.0930
92414W        W35405   0.350  14.626   2.169 -0.0573  0.0200  0.1589
92415W        W35406  15.477   0.027  21.330 -0.0213  0.1733  0.1265
92416W        W35407  26.653  18.571   8.266 -0.1572  0.0369 -0.2759
92417W        W35408  13.449  24.520  25.218  0.0600 -0.0067 -0.0120
92418W        W35409  11.175  13.487   6.460 -0.1477 -0.2548 -0.2365
92419W        W35410   0.106  10.342   7.631  0.3868 -0.1459 -0.2161
92420W        W35411  14.331   8.412   5.671 -0.0258  0.0241 -0.2104
92421W        W35412  25.580  20.296  28.498 -0.0754 -0.1283  0.0072
92422W        W35413  13.406   4.247  10.770  0.1867 -0.1031 -0.1305
92423W        W35414  14.413   9.696  24.566  0.0174 -0.0664  0.2330
92424W        W35415  14.048  18.971  18.803 -0.2696 -0.0973 -0.3239
92425W        W35416  11.492  11.642   1.960  0.2950  0.0962 -0.0366
92426W        W35417  14.368  15.394  22.145 -0.0529  0.1183 -0.2422
92427W        W35418   7.993  15.468  10.736  0.2267  0.1410  0.1178
92428W        W35419   6.642  27.000   8.240 -0.1080 -0.1940  0.1612
92429W        W35420  17.272  14.096   1.553 -0.2414 -0.0275  0.0602
92430W        W35421  11.478  18.340   0.577  0.0263  0.0927  0.0275
92431W        W35422  21.790  24.283   7.301  0.0612  0.0956 -0.0281
92432W        W35423   7.436  16.086   6.011  0.0203 -0.0862  0.1618
92433W        W35424  18.920  20.433   0.607 -0.1504 -0.1311 -0.1311
92434W        W35425   5.970  20.209   8.080 -0.2218 -0.0932 -0.2587
92435W        W35426  19.598  31.836  25.015  0.2732  0.2578  0.0755
92436W        W35427  10.861  12.206  23.115  0.2596  0.1341 -0.3145
92437W        W35428   2.787  29.410   1.365  0.0850  0.0738 -0.1305
92438W        W35429   0.641  12.182  20.929 -0.1075 -0.1509  0.1143
92439W        W35430   8.012  18.391   3.958 -0.2591 -0.0414 -0.3382
92440W        W35431  12.507  17.883  25.800 -0.4500 -0.3231  0.1151
92441W        W35432  15.147  10.835   5.959  0.0999  0.0102 -0.0990
92442W        W35433  34.614  20.338  19.865 -0.4560  0.1809  0.1470
92443W        W35434  16.769   1.180  22.548 -0.1528  0.0555 -0.0326
92444W        W35435   6.176  22.259   8.410  0.0792 -0.2210  0.0864
92445W        W35436  14.620   4.417   6.192 -0.2452  0.3154  0.0423
92446W        W35437  30.617  21.253   7.421 -0.0633 -0.3970 -0.2765
92447W        W35438  21.205  25.554   7.973 -0.0285 -0.2457 -0.4588
92448W        W35439  18.344  33.078  10.087 -0.2337  0.2471  0.0335
92449W        W35440  10.559   8.221   3.883  0.1484  0.0271 -0.0482
92450W        W35441  32.540   5.912  26.221 -0.0343  0.1226  0.1399
92451W        W35442  23.680  13.188   9.268 -0.0359  0.0365  0.0473
92452W        W35443   3.590  15.599   6.480 -0.2901 -0.1344  0.1216
92453W        W35444  13.471  20.653  14.603 -0.2511  0.2195  0.1367
92454W        W35445   1.041   8.986  10.584 -0.0684  0.2093  0.0237
92455W        W35446  19.430  13.969  27.426  0.1193  0.3008  0.3143
92456W        W35447  34.164  16.761   2.377  0.2449 -0.1875  0.0665
92457W        W35448  18.536   8.334   0.984 -0.0375 -0.0864 -0.0976
92458W        W35449  29.192  18.855  16.372 -0.2280  0.2132  0.1587
92459W        W35450  14.185  25.868   4.760  0.0853 -0.3404 -0.0555
92460W        W35451  23.465  18.161   6.782  0.3878 -0.3825 -0.4534
92461W        W35452  18.747  23.527   8.117 -0.0057  0.1193  0.0165
92462W        W35453  14.369   8.646   6.936  0.2063 -0.0202  0.0415
92463W        W35454   3.323  15.634  12.029  0.2420  0.1960  0.1969
92464W        W35455  31.258  25.178  23.325 -0.1255  0.0647 -0.1256
92465W        W35456   5.596  16.802  23.198 -0.2770 -0.1010 -0.1291
92466W        W35457  14.977  28.490  17.199 -0.3705 -0.0015 -0.2456
92467W        W35458  12.826  17.265  20.732  0.0516 -0.1765  0.1375
92468W        W35459  29.730  11.904   4.514  0.1469  0.3439 -0.1093
92469W        W35460   5.866  21.615  10.778 -0.4818 -0.1102  0.0606
92470W        W35461  12.691  23.228   7.120  0.3076  0.0494  0.2293
92471W        W35462   7.385  16.638   1.564 -0.0624 -0.0698 -0.2405
92472W        W35463  20.283  16.212   1.920  0.0075  0.0334  0.0265
92473W        W35464  15.702  20.067   3.363  0.1026  0.1001  0.0392
92474W        W35465  17.791  15.528   0.196  0.0616  0.3595 -0.2178
92475W        W35466   5.185  12.283   4.293  0.1899 -0.0787 -0.2365
92476W        W35467   1.930  30.587   7.199 -0.3486  0.0536  0.1112
92477W        W35468  24.822  15.203  20.583  0.1448  0.1617  0.0944
92478W        W35469  23.643  24.272   2.826  0.1449  0.1517 -0.0781
92479W        W35470  11.628  17.162  24.836 -0.2040 -0.0272  0.1080
92480W        W35471  16.578  19.613   3.227 -0.0158 -0.3029  0.1166
92481W        W35472  13.185  14.811   5.783 -0.0219 -0.0770 -0.2195
92482W        W35473   4.212   8.929   7.281  0.1311 -0.0363 -0.4761
92483W        W35474   2.011  18.168   3.341  0.2245 -0.0516 -0.0858
92484W        W35475   0.518   9.330   2.933  0.1214 -0.1473  0.1045
92485W        W35476  11.757  19.157   5.963  0.1342 -0.1276  0.1846
92486W        W35477  10.193  32.241   6.349 -0.1707 -0.2486  0.2450
92487W        W35478  27.880  21.445  23.292  0.2451 -0.0123 -0.0050
92488W        W35479  30.005  22.469  17.037  0.0355  0.1218 -0.0484
92489W        W35480  16.603  27.648  24.050 -0.0074  0.1530  0.1162
92490W        W35481   4.473  10.480   6.543  0.1697  0.0709  0.0334
92491W        W35482   5.243  14.371  28.760 -0.2762  0.1368  0.0074
92492W        W35483  20.292  12.252   7.060  0.2791  0.1235 -0.2386
92493W        W35484  17.596  13.327  25.414 -0.4435 -0.3921  0.1704
92494W        W35485  10.693   4.397  28.207  0.0537  0.2127  0.1018
92495W        W35486  30.350   7.773   5.901 -0.1041 -0.0149  0.0351
92496W        W35487  16.688  17.800   1.157  0.0338 -0.3395 -0.2581
92497W        W35488  12.689  33.666   1.117 -0.0383  0.2387  0.2124
92498W        W35489  14.713  26.723   0.130 -0.2160  0.1774 -0.1038
92499W        W35490  21.109  23.384   4.941 -0.2621  0.3818  0.2155
92500W        W35491   9.121  26.609   9.653 -0.1083 -0.0238 -0.1630
92501W        W35492   6.912   3.177  25.568 -0.0493  0.2536  0.1359
92502W        W35493  26.225  10.620   4.075  0.2629  0.0267  0.0295
92503W        W35494   4.393  11.808  10.774 -0.2981 -0.3761  0.0536
92504W        W35495   3.890  27.234   7.785  0.0894  0.0297 -0.0910
92505W        W35496  26.759  12.890   8.721 -0.1039  0.3882  0.1257
92506W        W35497  34.437   5.671  16.448 -0.1160  0.0899  0.0006
92507W        W35498  10.201  13.619  10.098  0.2822  0.3588  0.3198
92508W        W35499   8.303   4.949   4.260  0.2797  0.0731  0.2505
92509W        W35500  18.049  10.967  10.219 -0.2488  0.1605 -0.3701
92510W        W35501  23.948  27.755   8.001 -0.2091  0.0766 -0.0436
92511W        W35502   5.019  25.668  27.448 -0.1531 -0.2366  0.1226
92512W        W35503  17.033  17.129  21.346  0.2225 -0.0853  0.1557
92513W        W35504  30.436  14.600  10.788 -0.3385  0.2824  0.4201
92514W        W35505  13.408  20.575  23.613  0.0015 -0.2057 -0.0883
92515W        W35506  15.486  12.992   4.178  0.1850  0.3007 -0.1855
92516W        W35507   3.850  16.053  10.463  0.2383 -0.1811  0.2059
92517W        W35508   9.116  12.273  28.203 -0.0922  0.2207 -0.0524
92518W        W35509  27.830  23.506  27.867  0.3359 -0.0548 -0.0188
92519W        W35510  18.143  31.971  28.529 -0.1943 -0.1216 -0.0988
92520W        W35511   1.398   1.136  27.919 -0.1050 -0.0624  0.1838
92521W        W35512  20.587  24.894  27.291  0.0333  0.3672 -0.2375
92522W        W35513  19.297   9.945   8.315 -0.1299 -0.5300  0.2367
92523W        W35514  16.022  15.104   4.342  0.1218  0.0910 -0.2065
92524W        W35515   6.362  21.660  29.247 -0.0502  0.1176 -0.3005
92525W        W35516   5.534  18.048   2.862  0.0980 -0.2188 -0.1100
92526W        W35517  18.559  15.861  23.534  0.0938  0.0422 -0.2266
92527W        W35518  18.828  33.436   1.883 -0.2046  0.3057 -0.1883
92528W        W35519  11.888   2.298   9.021 -0.0676 -0.3112 -0.2909
92529W        W35520   5.974   9.750   6.815 -0.2873 -0.3738  0.2225
92530W        W35521   7.479  33.942   6.019 -0.0509 -0.3126  0.0282
92531W        W35522  29.617  11.571  26.831  0.0605  0.0987  0.2322
92532W        W35523   9.661  11.087   2.238 -0.0256  0.3536 -0.1128
92533W        W35524  20.582  13.886   4.286 -0.0804 -0.1024 -0.1696
92534W        W35525   8.345   7.860  28.420  0.0179  0.0455 -0.0689
92535W        W35526  23.019   7.978   5.692  0.2004  0.1322  0.2171
92536W        W35527   3.486   4.900   5.279  0.1474 -0.2010  0.1905
92537W        W35528  18.469   7.768  10.172 -0.2034 -0.1552  0.0197
92538W        W35529  11.901  24.102   4.360  0.3074  0.0081 -0.1683
92539W        W35530   3.198  14.119   9.674 -0.2082  0.2574  0.0479
92540W        W35531   4.691  17.364  27.912 -0.0940 -0.1252  0.2626
92541W        W35532  21.321  13.596  23.348  0.1500 -0.3706  0.1430
92542W        W35533   0.760  16.452  27.349  0.4611 -0.2334 -0.0705
92543W        W35534  14.980  16.722   1.780  0.0798  0.0269  0.1245
92544W        W35535  10.990  19.828  21.944 -0.4208 -0.0797 -0.1207
92545W        W35536  27.322   9.236   7.532  0.0590 -0.4637 -0.1152
92546W        W35537  33.592  28.630   6.469 -0.1118 -0.0950  0.2440
92547W        W35538  15.584   4.059   8.988 -0.1605  0.1055 -0.4158
92548W        W35539   2.285  30.525   1.038  0.0126 -0.0270 -0.0010
92549W        W35540  31.372  22.130  28.307  0.1072  0.0950  0.1062
92550W        W35541   6.101  19.529  28.726 -0.2899 -0.2079  0.1815
92551W        W35542  33.509  19.798   6.088  0.1409  0.0692 -0.1338
92552W        W35543  22.031   0.614   6.769 -0.1074  0.0034 -0.1765
92553W        W35544  15.323   8.257   1.456 -0.0986 -0.0568  0.2211
92554W        W35545  22.263  24.151   1.410 -0.0756 -0.1085 -0.0356
92555W        W35546   6.834  29.957   9.607  0.3345 -0.1156  0.1924
92556W        W35547  10.320  23.876   0.779  0.1391  0.4298  0.0906
92557W        W35548   7.370   6.982   8.750  0.0744  0.2279 -0.1441
92558W        W35549   5.669  18.524   8.776  0.5621 -0.2614 -0.2715
92559W        W35550  10.911   6.182   9.592  0.3464 -0.1364  0.0635
92560W        W35551  12.649  16.559   6.998 -0.0850  0.1036  0.0907
92561W        W35552   7.341  14.504  21.873  0.0554  0.3441 -0.2348
92562W        W35553  14.673  30.008  28.029 -0.2392  0.0707 -0.2851
92563W        W35554  16.992  11.028   3.773  0.1064  0.2956 -0.2837
92564W        W35555   2.855  31.074   1.653 -0.1513  0.0507  0.0555
92565W        W35556   7.735  18.628   2.693 -0.0288 -0.0850 -0.0262
92566W        W35557   4.442  18.505  28.747  0.0685 -0.1797  0.0325
92567W        W35558  17.963   2.021   6.166  0.2357 -0.2360  0.3515
92568W        W35559  20.619  30.183   4.497  0.0336 -0.0486  0.1222
92569W        W35560  13.242  18.942   1.434 -0.1191 -0.2838 -0.1109
92570W        W35561  16.040   7.137  16.248  0.1192 -0.2727  0.1359
92571W        W35562  31.202  18.775   1.598  0.3842 -0.2803 -0.1307
92572W        W35563  31.480  23.491  24.151  0.2730 -0.0952  0.1328
92573W        W35564  16.221  19.725  28.019  0.0566 -0.2495 -0.0256
92574W        W35565  21.636   3.490   0.111 -0.3561 -0.1474  0.0028
92575W        W35566   8.697  20.975   5.235 -0.0136  0.2223  0.3081
92576W        W35567  14.721   8.088   0.114  0.2649 -0.2310 -0.1661
92577W        W35568  30.833  24.910   8.661 -0.1376 -0.0975  0.1302
92578W        W35569   9.441   4.848  25.336 -0.1598 -0.2386 -0.2376
92579W        W35570  14.280  15.279   5.679  0.0185 -0.2846 -0.1193
92580W        W35571   7.614  22.421   5.442 -0.0710 -0.0877  0.1265
92581W        W35572   5.478  26.792   5.878 -0.1145  0.0004 -0.1819
92582W        W35573   6.294  14.450  27.990 -0.1658 -0.2022  0.0546
92583W        W35574  17.061   3.115   7.389 -0.1756  0.1887  0.2655
92584W        W35575   3.663  25.053   9.811  0.3170 -0.1440 -0.2388
92585W        W35576   2.890  15.628   3.784 -0.3753 -0.0990  0.0699
92586W        W35577   8.450  19.544   3.985  0.0473  0.1861 -0.0480
92587W        W35578  16.158   9.927   8.878  0.6026  0.0666  0.1329
92588W        W35579  18.523  10.709  15.861 -0.0135 -0.0340 -0.1188
92589W        W35580   5.920  29.906   2.314 -0.0416  0.0183 -0.0138
92590W        W35581  16.736  16.829  23.114  0.0259 -0.1267  0.0907
92591W        W35582  15.081  30.843   2.747  0.2582  0.0566 -0.0693
92592W        W35583  17.890  29.888   7.068  0.1505 -0.2773  0.1243
92593W        W35584   4.602  23.755  28.641  0.0417 -0.2484  0.1229
92594W        W35585  10.762  15.090  25.619 -0.0334 -0.1281  0.1946
92595W        W35586   1.503  14.894   8.703  0.2612 -0.2459 -0.0242
92596W        W35587   5.338   2.547   5.212 -0.0744  0.1467  0.0956
92597W        W35588  16.353  31.622   8.049 -0.0341 -0.0566  0.2163
92598W        W35589   3.939  17.507  10.076  0.1864  0.2018 -0.1927
92599W        W35590  12.829  19.925   8.880 -0.0508  0.4261 -0.0367
92600W        W35591  18.215  26.122   5.987 -0.2824 -0.1623  0.1586
92601W        W35592  27.816  20.922   9.773 -0.1498  0.2476 -0.2691
92602W        W35593   3.462  26.093   8.619  0.0271  0.0366  0.1964
92603W        W35594  13.965  28.319   6.825  0.0541 -0.1639 -0.2770
92604W        W35595  23.768  14.692   1.314  0.0621  0.0651 -0.1180
92605W        W35596  16.666  15.845   5.850  0.0472  0.0916 -0.1180
92606W        W35597  21.459  19.944   6.872  0.0191  0.1933  0.0131
92607W        W35598   0.700  11.387   0.387 -0.2499 -0.0198 -0.0068
92608W        W35599  14.820  20.319   8.899  0.2187  0.1076 -0.2824
92609W        W35600  18.394  10.438  24.919  0.0376 -0.0180 -0.1709
92610W        W35601  12.533   8.403   8.042  0.1571  0.1932 -0.1724
92611W        W35602  10.704  21.187   3.412 -0.1590 -0.0344  0.3225
92612W        W35603  32.651  12.264   5.744 -0.2238 -0.0859  0.1794
92613W        W35604   6.171   5.944   6.216 -0.2271  0.0245 -0.1924
92614W        W35605  10.392   9.948   3.543 -0.1258 -0.0411 -0.2044
92615W        W35606   9.307  16.623   4.433 -0.1892  0.0078  0.2404
92616W        W35607  26.231  15.634   0.693  0.0360  0.0939  0.1307
92617W        W35608  19.886  18.391  24.978  0.0584  0.0975  0.2383
92618W        W35609  22.503  15.714   8.287 -0.2115  0.1521 -0.0304
92619W        W35610  13.667  16.066   2.968  0.4297  0.2633 -0.0492
92620W        W35611  25.608  11.388   5.699  0.4230  0.0158  0.0399
92621W        W35612  12.706   7.168   5.251 -0.2312  0.0630 -0.2462
92622W        W35613  13.389  21.287   3.197 -0.1155  0.0888  0.0131
92623W        W35614  14.643  11.794  23.117  0.0096  0.0133 -0.1710
92624W        W35615   2.471  18.867  10.255 -0.2522  0.2139 -0.0284
92625W        W35616  14.393  21.218  21.234 -0.3466 -0.0617  0.0077
92626W        W35617  33.144  15.217   7.601 -0.2230 -0.2083  0.2822
92627W        W35618   7.678   5.613  26.203 -0.1544 -0.1485 -0.2050
92628W        W35619  12.613  28.053   6.249  0.0582 -0.1938 -0.0908
92629W        W35620   7.188  15.958   1.118 -0.0341 -0.0404 -0.0404
92630W        W35621  27.490   5.119   7.488  0.1668  0.0185 -0.4679
92631W        W35622  16.753  11.185   8.896  0.1730  0.0577  0.2121
92632W        W35623  12.618  22.018   3.003  0.2806  0.0366  0.2568
92633W        W35624   2.552  13.185  10.665  0.0194  0.0858  0.1103
92634W        W35625  22.237  11.540   7.628 -0.6003  0.2762 -0.1592
92635W        W35626  19.004  15.613  23.391  0.4026 -0.0500 -0.0018
92636W        W35627   6.620  33.468  28.740  0.0178 -0.2558  0.0661
92637W        W35628  23.231   6.767   7.053  0.0574 -0.0301  0.3948
92638W        W35629  16.386  13.159   0.019 -0.1382  0.1888 -0.1425
92639W        W35630   8.756   8.816   6.149 -0.0168 -0.0086 -0.0112
92640W        W35631  12.253  17.528   0.026 -0.0060  0.0197  0.0594
92641W        W35632   7.068  21.257   7.172  0.1505  0.0057 -0.0656
92642W        W35633   4.879  18.894  10.385 -0.1929 -0.2227  0.2425
92643W        W35634  21.434  18.755  21.363 -0.0174 -0.2439  0.0916
92644W        W35635   9.046   8.164   5.919  0.2830 -0.2637  0.2844
92645W        W35636  12.914  20.361   7.637  0.1202 -0.0526  0.1932
92646W        W35637  15.424  26.624  28.584  0.1662  0.0262 -0.0368
92647W        W35638  30.718   4.958   1.119  0.3267 -0.6202 -0.1634
92648W        W35639   6.399  34.263   4.943  0.2145 -0.1581  0.1460
92649W        W35640   2.209   9.956   1.136  0.0885  0.1060  0.2971
92650W        W35641  12.966  23.949  20.785 -0.1312  0.1232  0.1473
92651W        W35642  10.922  14.446   2.265  0.0950  0.1264  0.2334
92652W        W35643   7.401  25.994   7.146  0.0373 -0.2580  0.0282
92653W        W35644  15.256  10.079   9.908  0.0878  0.0029  0.0756
92654W        W35645   3.668   7.878  23.740  0.3161  0.1410  0.0316
92655W        W35646  31.861  10.689   4.743  0.1274 -0.1787  0.4064
92656W        W35647   7.943  16.242   9.378  0.2999  0.2232 -0.1386
92657W        W35648  15.464   9.747  25.403  0.1897 -0.2457  0.3875
92658W        W35649  17.843  18.555   8.646  0.0262  0.0454  0.1030
92659W        W35650  13.190   7.437  10.314  0.1892 -0.2787 -0.3258
92660W        W35651  14.842  10.673  10.464  0.0795  0.0652  0.2604
92661W        W35652   9.055  25.747   0.475  0.1112 -0.0305 -0.4304
92662W        W35653  12.238  18.830   5.322  0.1402  0.1496 -0.1258
92663W        W35654  12.593  15.956  27.856  0.2867  0.1494  0.1812
92664W        W35655  27.769  13.950   7.806  0.1604 -0.3207 -0.2413
92665W        W35656   3.447   1.003  21.830  0.0076 -0.1672  0.0789
92666W        W35657   9.049  16.527   2.811 -0.1013 -0.0119  0.1781
92667W        W35658  13.720  22.500  28.340  0.2457 -0.0625  0.3247
92668W        W35659   5.589   0.557   1.144 -0.1841  0.0196  0.3209
92669W        W35660  22.128  17.450   8.273  0.3011 -0.0972 -0.0572
92670W        W35661   3.808  16.212   0.258 -0.3368 -0.0184 -0.0776
92671W        W35662   7.666  16.801  24.424  0.2321 -0.2175  0.1699
92672W        W35663   2.200   6.731  21.112 -0.2953 -0.0435 -0.0507
92673W        W35664   8.786  25.979  27.866 -0.0338 -0.1924  0.1304
92674W        W35665  20.801  10.504   9.323  0.0739  0.0216 -0.2862
92675W        W35666  23.301  17.042  16.650 -0.1321  0.1961 -0.0911
92676W        W35667  17.022  13.892   5.283  0.0350  0.0461  0.0498
92677W        W35668  10.193  15.468  26.392  0.0197 -0.0946 -0.2104
92678W        W35669   4.329  23.786  10.774 -0.1282 -0.1128 -0.1143
92679W        W35670   6.688  10.624  28.675 -0.3681  0.0165 -0.4190
92680W        W35671  18.337  27.576  19.651  0.0547 -0.1853 -0.0217
92681W        W35672  33.349   4.996   9.417 -0.0580  0.0576 -0.1135
92682W        W35673  34.308  20.917   0.830  0.1334 -0.5149 -0.0630
92683W        W35674  23.788  21.754  29.155 -0.1897 -0.0258  0.0110
92684W        W35675   4.071  24.179   7.686  0.1228  0.2423  0.1366
92685W        W35676   5.228  17.871   8.314  0.0482  0.2485 -0.1127
92686W        W35677   9.237  27.104   8.543 -0.2518  0.1237  0.3703
92687W        W35678   9.890  33.103  23.304  0.1269 -0.0887 -0.0729
92688W        W35679  12.109  12.600   6.130  0.2084  0.2657  0.1889
92689W        W35680  33.120   4.043  22.494 -0.0099  0.0772 -0.0624
92690W        W35681  25.096   7.686   8.070  0.3118 -0.0829 -0.1485
92691W        W35682  20.111  22.289   1.352 -0.0589  0.2650  0.3234
92692W        W35683   9.038  15.919   8.595 -0.0273  0.2709 -0.1967
92693W        W35684  28.495  21.265   8.320  0.4316  0.2049  0.1283
92694W        W35685  12.366  25.699   3.805  0.0931 -0.2281 -0.0676
92695W        W35686   8.319   4.946   1.843  0.0430  0.0577  0.1527
92696W        W35687   7.717  19.919   4.669 -0.1637 -0.0095 -0.0976
92697W        W35688  12.174  27.161  25.557  0.0677  0.1652  0.0369
92698W        W35689  14.789   6.211  26.544 -0.1478 -0.1333 -0.2821
92699W        W35690  14.966   3.936  10.046 -0.2963  0.1444  0.0338
92700W        W35691  10.946  19.686   1.076  0.1347  0.0272 -0.0494
92701W        W35692  25.330   4.857  23.860  0.0623  0.0946 -0.3489
92702W        W35693   5.372  17.385  11.134  0.0205 -0.4319  0.0191
92703W        W35694  24.792  32.068  26.324 -0.0554 -0.1245  0.2168
92704W        W35695  11.908  15.437   7.518  0.2553  0.0186  0.0309
92705W        W35696   8.831   8.814  18.249  0.0474 -0.1254 -0.2150
92706W        W35697  22.037  18.243   1.360 -0.2568 -0.1298  0.4948
92707W        W35698  21.792  31.740   1.667 -0.0741  0.1640  0.1173
92708W        W35699   7.899  26.403   6.169  0.0683 -0.3072  0.0540
92709W        W35700   0.391   7.025   0.683 -0.2348 -0.0193 -0.2873
92710W        W35701   3.976  23.182   3.144 -0.2741  0.1500 -0.2621
92711W        W35702   5.869  16.660   6.920  0.0451 -0.0766 -0.1307
92712W        W35703  28.776  10.058  25.287  0.0912 -0.0991 -0.2866
92713W        W35704   9.033  10.500  10.203  0.0175 -0.2152  0.0439
92714W        W35705  11.567  21.999   4.736 -0.1553 -0.0202  0.1376
92715W        W35706   7.246  19.839  11.058 -0.0175 -0.2848 -0.0502
92716W        W35707  21.071  11.553  28.850 -0.2806  0.2071  0.0978
92717W        W35708  10.117  19.178   9.578 -0.2312  0.0080  0.1628
92718W        W35709  14.837  25.878   5.069 -0.0644  0.0463  0.0256
92719W        W35710  14.179  22.057   6.640  0.3241 -0.0116  0.0465
92720W        W35711   4.004  23.944   8.779  0.1380  0.0557  0.2978
92721W        W35712  11.004  16.944  22.237 -0.1013 -0.0952 -0.1267
92722W        W35713   6.946  12.487   6.602  0.1325 -0.0650 -0.1546
92723W        W35714   3.936  10.053   1.649  0.2838  0.2646  0.0395
92724W        W35715   8.880  19.021  14.982  0.1426  0.1292 -0.3064
92725W        W35716   3.669  13.226  11.181 -0.0032 -0.2414 -0.2347
92726W        W35717  13.936   2.217   7.659  0.0415  0.3139  0.0116
92727W        W35718  28.280  15.630  24.540 -0.1477  0.2243 -0.3062
92728W        W35719  17.608  19.235   0.430 -0.1494 -0.1172  0.3881
92729W        W35720  10.318  18.555   1.810  0.3103  0.1194  0.0032
92730W        W35721  22.362  14.153   7.047 -0.1482 -0.2262  0.2263
92731W        W35722  14.154  28.660   1.624 -0.1059  0.0677 -0.0580
92732W        W35723  13.445  25.071   0.117 -0.0190  0.0695 -0.1805
92733W        W35724   0.842  16.895   7.235 -0.0275  0.0643 -0.2650
92734W        W35725  26.885   7.145  25.651 -0.1924 -0.2883  0.0018
92735W        W35726   7.255  21.335   0.266  0.1031 -0.0350  0.0654
92736W        W35727  11.158  26.928   4.060  0.2715 -0.1250  0.0800
92737W        W35728  11.782  15.992   9.230 -0.3000  0.0199 -0.1904
92738W        W35729   0.874  10.620  29.248  0.1939  0.0354 -0.1049
92739W        W35730   8.971  26.712  20.283 -0.4487 -0.3475  0.1535
92740W        W35731   8.589  12.650   6.182  0.1895 -0.1769  0.0453
92741W        W35732  23.029  17.022   5.481 -0.1669  0.1111 -0.0068
92742W        W35733  32.420  21.748   6.317  0.4518  0.0669 -0.0650
92743W        W35734  34.635  17.398  26.113  0.0694 -0.0691  0.2628
92744W        W35735   3.483  21.030   0.961 -0.0689  0.0586  0.2044
92745W        W35736  34.417  11.018   1.369 -0.0292  0.1312 -0.1494
92746W        W35737   8.951  24.056   5.660 -0.1236 -0.2809  0.0392
92747W        W35738   4.536  10.903  24.277  0.0435 -0.1810  0.2334
92748W        W35739   7.022  23.905  22.746  0.0681  0.2528 -0.0628
92749W        W35740  14.958  19.892  18.824  0.2541 -0.0231 -0.0399
92750W        W35741  26.871  17.213   7.861  0.2260  0.1183  0.4732
92751W        W35742   8.678  16.812  21.678  0.1366  0.2045 -0.3047
92752W        W35743  31.880  22.076   6.997 -0.1910 -0.2106 -0.0512
92753W        W35744   9.194   9.270   3.489 -0.3120 -0.0543 -0.3909
92754W        W35745   6.273  29.346  26.599 -0.1900 -0.1839  0.1827
92755W        W35746  17.662  16.973  28.500  0.0695  0.0465  0.0007
92756W        W35747  17.151   9.817  28.519  0.3679 -0.1817  0.0639
92757W        W35748  19.506  25.807   1.100 -0.3695 -0.1543 -0.2098
92758W        W35749  18.572  17.478   9.032 -0.0096  0.2138  0.1045
92759W        W35750   0.669  22.350   6.649  0.0555  0.2333  0.3088
92760W        W35751   7.918  15.113   1.274 -0.0765 -0.4226 -0.2852
92761W        W35752  33.148  23.807   5.992 -0.1023  0.0286 -0.4881
92762W        W35753  15.267  24.349   5.234  0.0186 -0.1065 -0.1606
92763W        W35754  14.115   1.428   7.199 -0.0839  0.0147 -0.1915
92764W        W35755  16.172  16.818   7.706 -0.0157  0.0885  0.0177
92765W        W35756   8.450  17.676   3.613 -0.1377 -0.2100 -0.1083
92766W        W35757   5.448  25.174   7.030 -0.1363 -0.0934  0.1269
92767W        W35758  10.425   5.176   7.381  0.0431  0.0876 -0.1237
92768W        W35759   5.018  22.457   9.544 -0.2929  0.1889  0.0144
92769W        W35760   9.259  24.014   6.552  0.1656 -0.1530 -0.3311
92770W        W35761  23.968  10.173  10.125  0.0132 -0.0955  0.0224
92771W        W35762  28.788  17.969  19.843  0.1379 -0.3594 -0.1446
92772W        W35763  12.343  19.656   7.905 -0.2188  0.0492  0.1127
92773W        W35764  26.680  21.346  24.811 -0.3267  0.1555 -0.1049
92774W        W35765  15.996  26.855  26.201 -0.0408  0.0388  0.1273
92775W        W35766  12.550  14.793   1.501  0.1347 -0.1988  0.1466
92776W        W35767  19.110  32.489   0.369  0.0746 -0.1884  0.0684
92777W        W35768  18.024  22.029   7.167  0.0785  0.1909  0.2031
92778W        W35769   5.540   2.499   9.264  0.1738  0.1129 -0.2888
92779W        W35770   5.227  23.903   8.575  0.0460  0.2939  0.1449
92780W        W35771   0.163   8.530   3.295  0.0064  0.0351  0.0426
92781W        W35772  11.072   4.612  20.471  0.1467 -0.0693 -0.2042
92782W        W35773  34.537  19.029  28.635 -0.0771 -0.1765 -0.0706
92783W        W35774  11.935  26.587  26.913 -0.4349 -0.0764 -0.2669
92784W        W35775  12.478  13.068   2.046 -0.0948 -0.3233  0.1394
92785W        W35776   6.798   8.802  28.579  0.1993  0.0308  0.1773
92786W        W35777  29.332  10.724   9.802 -0.0601  0.1017 -0.1375
92787W        W35778  12.738  25.307   4.025 -0.0763  0.1372 -0.4005
92788W        W35779   5.926   7.118   8.945  0.0491 -0.2812  0.3001
92789W        W35780  27.167   7.291  25.193  0.1167 -0.1668 -0.2454
92790W        W35781  16.215  10.835   7.085 -0.2272 -0.2220  0.2843
92791W        W35782   8.977  12.952   4.516 -0.4293 -0.3633  0.0603
92792W        W35783   5.971  19.236   5.730  0.1475 -0.2947  0.1835
92793W        W35784  29.841  10.356  23.323 -0.5017  0.2711 -0.1075
92794W        W35785   4.464  22.737  27.843 -0.2470 -0.0276  0.0145
92795W        W35786   9.790  17.022   8.908 -0.1964  0.1316 -0.2258
92796W        W35787   6.990   6.342   5.711 -0.1990 -0.1745  0.3367
92797W        W35788  14.076  25.202   7.122  0.0827  0.1857 -0.2729
92798W        W35789   7.277  18.540   2.965  0.0794  0.4314 -0.1111
92799W        W35790  24.792   8.916   5.886 -0.1610 -0.1419 -0.0276
92800W        W35791  18.858  22.217   8.163  0.1599  0.2557  0.2124
92801W        W35792  10.637  12.442   8.216 -0.0381 -0.0210  0.1341
92802W        W35793  20.381  15.135  24.072 -0.0300  0.1105 -0.0240
92803W        W35794   1.046  27.982   2.999  0.1923 -0.1099  0.0318
92804W        W35795  12.643  17.519   9.969 -0.0134  0.0899 -0.3585
92805W        W35796  34.154  12.818   8.455  0.2651  0.0388 -0.3033
92806W        W35797  33.235   8.335   6.808 -0.0105  0.1015 -0.5132
92807W        W35798  15.283  17.398   2.543 -0.2009 -0.2036  0.1841
92808W        W35799  21.387   2.873   3.212 -0.2061 -0.1980 -0.0639
92809W        W35800  11.667  12.706   2.439  0.0326 -0.0040  0.2674
92810W        W35801   2.665   8.842   9.041  0.1986 -0.0355 -0.1370
92811W        W35802  12.874   4.724   3.028 -0.3499  0.2444  0.1644
92812W        W35803  18.889   5.584   6.214  0.0915  0.0428 -0.4043
92813W        W35804  11.524  14.867  28.167  0.1261  0.1698  0.0469
92814W        W35805  13.009  16.430   6.725  0.2410 -0.1150  0.1066
92815W        W35806   8.045  32.509   6.568 -0.0312 -0.0788  0.1180
92816W        W35807  17.372  14.238  20.845 -0.0233 -0.0936 -0.3341
92817W        W35808  10.099  17.421  14.485  0.2879  0.0517 -0.4207
92818W        W35809  33.285  13.707   2.454  0.0875  0.1471 -0.0912
92819W        W35810  33.257  18.672   4.040  0.4069  0.0252 -0.2474
92820W        W35811  20.626   5.428   7.231 -0.2710 -0.3948 -0.3013
92821W        W35812  11.226  28.183   8.980  0.2045  0.0379 -0.1268
92822W        W35813   4.527  14.717   5.345 -0.1866  0.2395  0.1395
92823W        W35814  12.025  25.429   1.006  0.2068 -0.1779 -0.2581
92824W        W35815  15.043  18.367   1.549  0.5386  0.0165  0.0820
92825W        W35816  22.110   6.028  27.597 -0.0643  0.0974 -0.3562
92826W        W35817  25.097  21.604  22.964  0.0969  0.1951  0.2659
92827W        W35818  12.965   5.497   8.764 -0.0921 -0.0414  0.4019
92828W        W35819  17.231  10.353   6.498  0.0218 -0.1375  0.1590
92829W        W35820  15.706  18.300   8.664  0.0287 -0.1496 -0.2063
92830W        W35821  23.173   8.763   0.336 -0.0209  0.0737 -0.2120
92831W        W35822   7.964  10.472  10.314 -0.0234 -0.2658  0.0312
92832W        W35823   5.772  20.475  19.505  0.0486 -0.1255  0.2014
92833W        W35824  15.377  20.095  14.748  0.0307  0.0213 -0.0603
92834W        W35825   2.638   3.235  26.542  0.1125  0.0676 -0.2071
92835W        W35826  33.233  20.206   7.462 -0.2176 -0.0635  0.0996
92836W        W35827  30.116  30.074   4.846  0.4930 -0.1812  0.0318
92837W        W35828  15.565  22.475  27.256 -0.2100  0.2199 -0.1596
92838W        W35829  20.704  16.164   2.834 -0.1713 -0.0299 -0.1576
92839W        W35830  16.066  25.305   6.566  0.0766  0.0292 -0.1745
92840W        W35831  16.080  18.584  20.307  0.1544 -0.0966  0.3010
92841W        W35832  23.894  13.672  26.339 -0.1326  0.3124  0.0247
92842W        W35833   1.650  20.245   2.500  0.2435 -0.1364  0.1035
92843W        W35834   4.112  28.383   3.699 -0.1650  0.2711  0.2149
92844W        W35835  16.096   8.923  21.492  0.0098 -0.2092 -0.0771
92845W        W35836   3.450  30.152   6.622 -0.1672  0.2475 -0.1256
92846W        W35837   3.310  14.326   6.581  0.2249  0.3652 -0.2075
92847W        W35838  13.916   2.962   9.901  0.1230  0.2195 -0.0521
92848W        W35839  21.853  12.386  27.211  0.0678 -0.2346  0.0962
92849W        W35840  31.883  10.181  22.203  0.2209  0.2677 -0.2523
92850W        W35841  29.726  12.876  20.254 -0.1894  0.0031  0.0069
92851W        W35842   8.427   6.331   7.001  0.4495 -0.1345 -0.1788
92852W        W35843   6.444  30.718  29.090 -0.2310  0.2868 -0.3079
92853W        W35844  31.034  13.534   1.927  0.0240  0.1927 -0.0071
92854W        W35845   4.670  26.810   7.649  0.0971  0.2667 -0.0780
92855W        W35846  33.019  15.116  29.156  0.4284  0.0744  0.2012
92856W        W35847   5.579  12.758  28.985 -0.4474  0.0030 -0.0737
92857W        W35848  17.823  11.378   4.779  0.1528 -0.3807  0.0074
92858W        W35849   7.589  15.990   3.077 -0.3535 -0.4202  0.1931
92859W        W35850  26.408  22.329   1.984 -0.2868 -0.3708 -0.5095
92860W        W35851   6.472  24.798   5.490 -0.3120 -0.2329  0.1042
92861W        W35852  12.108  29.874  27.114  0.0734 -0.3699  0.2571
92862W        W35853  19.070   1.429  28.891  0.0344  0.3148 -0.0344
92863W        W35854  18.106  29.501  24.162 -0.2541  0.2103 -0.0015
92864W        W35855  12.470  26.956  22.077  0.0472  0.0228 -0.0177
92865W        W35856   6.726  11.343   0.178 -0.1135  0.3655  0.1568
92866W        W35857   5.425   8.736  25.691 -0.0686 -0.2740  0.0012
92867W        W35858  10.133  24.291   1.715 -0.0144 -0.1246  0.0679
92868W        W35859  17.237  26.799  25.305  0.0847  0.2295 -0.1164
92869W        W35860  15.746  13.675   7.247  0.1290 -0.1674 -0.2194
92870W        W35861  13.413  18.119  23.061 -0.1152 -0.4365 -0.0402
92871W        W35862  26.611  10.992   5.645 -0.1907  0.3414 -0.3887
92872W        W35863  17.269  11.705  25.043 -0.0840  0.0135  0.2048
92873W        W35864   3.088   6.291   4.211 -0.1138  0.1267 -0.0587
92874W        W35865  11.404   5.312   6.409 -0.2859 -0.1057 -0.0144
92875W        W35866  16.297  28.270   0.706 -0.0452  0.0980  0.2361
92876W        W35867   6.062  23.453  27.403 -0.0362 -0.3212  0.4636
92877W        W35868   0.977  31.907  27.217 -0.0996  0.0044  0.1287
92878W        W35869  10.696  13.386   9.644  0.3140 -0.0015 -0.2575
92879W        W35870  26.160  17.148  24.595  0.3219  0.2896  0.1383
92880W        W35871   3.201  31.321  25.523  0.3684  0.1698  0.0576
92881W        W35872   3.664  12.703   8.139  0.0962 -0.0434  0.2473
92882W        W35873  16.009   8.458   0.017  0.1448  0.2120 -0.2487
92883W        W35874   2.916  33.105   9.986  0.0305  0.1795  0.5502
92884W        W35875   8.491  13.968  15.297 -0.1712  0.0619 -0.1031
92885W        W35876  19.957  20.538   5.806  0.1281  0.1291 -0.1883
92886W        W35877  13.727  26.850  19.642  0.3284  0.0362 -0.0315
92887W        W35878  33.903  34.503   4.854  0.0687  0.0763  0.0682
92888W        W35879  11.456  18.821   3.632  0.0212  0.1448 -0.3329
92889W        W35880   8.027  24.207  22.984  0.0366  0.0554 -0.0324
92890W        W35881   5.678  26.919  15.776  0.0352  0.0500  0.0381
92891W        W35882  14.914  24.871  24.832  0.2544 -0.3192 -0.0753
92892W        W35883   0.547  20.088   1.055  0.1430  0.1114  0.0121
92893W        W35884   8.832  24.731   0.245 -0.2986 -0.0392 -0.1655
92894W        W35885  12.760  13.101   7.431  0.0422  0.0432 -0.0659
92895W        W35886  16.929  23.991   5.334  0.3765  0.0541  0.0397
92896W        W35887   5.223  16.500  10.579 -0.1822 -0.1629  0.2031
92897W        W35888   1.439  17.542  17.942  0.0796  0.1880 -0.0543
92898W        W35889   6.692  18.516  10.132  0.0163 -0.0118  0.0997
92899W        W35890  14.479  18.269  26.660 -0.2750 -0.0950  0.0315
92900W        W35891  13.146  28.103   2.356 -0.0650 -0.0985  0.0103
92901W        W35892   4.185   1.576  17.573 -0.0674 -0.0587 -0.0127
92902W        W35893  20.919  22.528  20.850 -0.0281 -0.0502 -0.1106
92903W        W35894  15.587  21.440   2.161 -0.4003  0.0240  0.0710
92904W        W35895  12.587  17.549   1.671  0.0998 -0.0751 -0.3385
92905W        W35896  12.445  15.218  22.470 -0.1478  0.0602  0.1136
92906W        W35897  27.350   4.399  25.277 -0.1462 -0.3819  0.0224
92907W        W35898  16.983  33.295   0.634 -0.2428 -0.2633  0.2279
92908W        W35899  13.370  20.711   3.362 -0.4601 -0.0260  0.0248
92909W        W35900  19.689  27.558   0.824 -0.0200  0.1750 -0.2340
92910W        W35901  20.941  18.883  27.554  0.1453  0.1076 -0.0439
92911W        W35902  21.555  29.764  14.533 -0.1240  0.3488  0.0226
92912W        W35903  10.759   8.764  10.026 -0.0060 -0.0515  0.1486
92913W        W35904  15.535  26.700  23.332  0.0908 -0.1183  0.1139
92914W        W35905   5.892  17.024   9.981 -0.0395  0.2054  0.3996
92915W        W35906  20.099   9.630   8.561 -0.1473  0.0455  0.1669
92916W        W35907   4.122  22.050  15.523  0.0730  0.1853 -0.4568
92917W        W35908   7.809  18.353   9.330 -0.1384 -0.1864 -0.1476
92918W        W35909  32.275  16.072  24.197 -0.0426 -0.3367 -0.1958
92919W        W35910  31.525  34.705  23.746  0.0418 -0.1846 -0.1141
92920W        W35911  14.979  22.151   6.044  0.2799 -0.1240 -0.1999
92921W        W35912  10.358   9.795   4.128  0.3319 -0.0502 -0.1569
92922W        W35913   9.898  23.593  23.914 -0.1425  0.1279  0.1439
92923W        W35914  18.418  11.033  24.677 -0.0551 -0.2771 -0.0727
92924W        W35915  34.632   7.900   8.230 -0.0512 -0.5014  0.1039
92925W        W35916   3.502  31.055  23.404 -0.0038  0.0234  0.0010
92926W        W35917  11.370   8.814   2.844 -0.3378 -0.0045 -0.0218
92927W        W35918   3.369  11.191   5.041 -0.0004 -0.1751  0.2729
92928W        W35919   3.627  21.874  19.093  0.0178 -0.0966 -0.4171
92929W        W35920   6.601  33.157  22.343  0.1971 -0.0841 -0.0660
92930W        W35921  25.811  13.717  23.954 -0.3852  0.1342  0.1228
92931W        W35922  17.939  20.832   8.622 -0.2928 -0.3371  0.0407
92932W        W35923  19.783  18.899   6.444  0.0603  0.1587 -0.0904
92933W        W35924   7.031  14.595  25.651  0.1467 -0.4698 -0.0443
92934W        W35925  24.705   4.204   1.851 -0.0267 -0.0407  0.2159
92935W        W35926   1.995  30.327  26.874 -0.0437  0.3248 -0.1099
92936W        W35927  10.043  28.793   7.081  0.3376 -0.2564 -0.2688
92937W        W35928   3.205  10.482   5.583  0.2098 -0.1629  0.0466
92938W        W35929  13.116   4.426   2.670 -0.1090 -0.2095  0.0715
92939W        W35930  11.733  18.991  19.493 -0.2260  0.0281  0.2133
92940W        W35931  28.261  34.297   2.166  0.2769  0.2115 -0.1166
92941W        W35932  13.546   0.648   3.940  0.1703 -0.0537  0.0498
92942W        W35933   7.678  15.703  15.832  0.5642  0.1642 -0.1338
92943W        W35934  17.458  28.318  27.754 -0.3064  0.0493  0.1048
92944W        W35935  15.975   9.137  27.050  0.3012 -0.2567  0.4327
92945W        W35936  16.857   1.783   6.592 -0.1411  0.0019 -0.1929
92946W        W35937  30.647   9.021  21.351  0.0173  0.1593 -0.2389
92947W        W35938  16.918  14.628   5.890 -0.2147 -0.1853  0.3169
92948W        W35939  12.391  17.512  20.615 -0.0576 -0.3069  0.3501
92949W        W35940  11.487  29.654  24.975 -0.1228  0.2528 -0.0468
92950W        W35941  18.137  25.557   5.147  0.0743 -0.0139  0.1034
92951W        W35942   8.990   9.870   3.263  0.4007  0.1790  0.2999
92952W        W35943   8.510  21.722   4.710 -0.0105 -0.0341  0.1084
92953W        W35944   1.127  24.814  19.171  0.1725  0.2510 -0.1888
92954W        W35945   1.654  28.902   3.824  0.0192  0.3938 -0.0137
92955W        W35946   5.897  22.720   1.489 -0.0974 -0.1328  0.0194
92956W        W35947  12.470  20.290  27.740 -0.3500 -0.2026  0.1392
92957W        W35948  28.415  17.911   1.766  0.0991 -0.1227 -0.2762
92958W        W35949  12.479  12.799  28.361  0.2518 -0.1133  0.0969
92959W        W35950   4.320  20.958   9.420 -0.0294 -0.4665 -0.1799
92960W        W35951  18.239  18.765   2.964  0.0452 -0.2821  0.1465
92961W        W35952   5.935  12.457   0.981 -0.1690  0.0491 -0.3091
92962W        W35953   1.479  13.380  26.284  0.0303 -0.0459 -0.2280
92963W        W35954  16.402  22.252   0.518  0.0210 -0.1535 -0.2058
92964W        W35955  14.085  11.730   8.807  0.0938 -0.3581  0.0159
92965W        W35956  11.122  21.594   7.166  0.2152  0.3102 -0.0115
92966W        W35957  18.402  25.034  21.242  0.0365 -0.3221  0.0152
92967W        W35958   4.652  13.783  20.213 -0.1465 -0.3295  0.1807
92968W        W35959   2.139  11.132   5.773  0.1738 -0.0795  0.2053
92969W        W35960  10.142  20.581   2.131  0.0902 -0.1168 -0.2038
92970W        W35961   4.357  13.493   7.996  0.1924 -0.1312  0.4689
92971W        W35962  10.411  15.654  25.482  0.4726 -0.0632 -0.3117
92972W        W35963  20.016  19.041   2.544 -0.0103  0.0968 -0.2818
92973W        W35964   9.685  13.985   0.538  0.1039 -0.2072  0.0002
92974W        W35965  14.113   9.657   7.916  0.2477  0.1928  0.0337
92975W        W35966  31.849  18.518   4.977 -0.1140 -0.1409  0.0192
92976W        W35967   4.021  25.579  27.418 -0.0428 -0.0863 -0.0168
92977W        W35968  14.423  14.134  19.417  0.1213  0.1742 -0.1415
92978W        W35969   1.829  19.601  23.376 -0.1183  0.3102  0.3366
92979W        W35970  30.793  21.934   5.400  0.1959  0.0115  0.0747
92980W        W35971  11.857  20.130   0.236 -0.0586  0.0191 -0.0031
92981W        W35972  29.701  20.979   8.908  0.1760  0.3426  0.3766
92982W        W35973  20.346  23.322  27.938  0.1293 -0.3147  0.0864
92983W        W35974  13.950  33.966   1.020 -0.1147 -0.0006  0.0449
92984W        W35975  18.532   8.489   4.016 -0.0302  0.1307  0.0989
92985W        W35976   7.147  19.657  27.547  0.0015  0.3729  0.2321
92986W        W35977  30.935  23.700  26.453  0.0815  0.0481 -0.2551
92987W        W35978   4.624  29.881   1.549  0.1116 -0.2850 -0.0279
92988W        W35979  11.818  19.269   3.202 -0.2019  0.1026  0.0904
92989W        W35980   9.981  18.659  25.319 -0.0056  0.0844 -0.0893
92990W        W35981   3.080  26.379  18.363 -0.0515  0.0586 -0.3106
92991W        W35982   8.946  14.817  18.363 -0.1003 -0.0574 -0.2339
92992W        W35983  14.359  12.876   9.396 -0.0098  0.1359  0.0013
92993W        W35984  10.001  19.816   1.436  0.0112  0.0386 -0.0380
92994W        W35985  13.500  29.034  24.324  0.1149  0.1763  0.0711
92995W        W35986   8.535  16.670  14.810 -0.0087  0.2052 -0.0370
92996W        W35987   9.214  25.108  17.092  0.1212 -0.1316 -0.0035
92997W        W35988  34.380  32.108   4.884  0.1586  0.0222  0.0757
92998W        W35989   8.583   7.190  17.303 -0.4336  0.1353 -0.1349
92999W        W35990  11.397  11.753   2.595 -0.1135 -0.1471  0.1996
93000W        W35991   0.213  11.801  21.118  0.2108  0.2098 -0.0179
93001W        W35992  20.588  22.701   8.018  0.1535  0.0889 -0.3203
93002W        W35993   3.995  21.121   9.841  0.0254  0.0850 -0.5483
93003W        W35994  25.476  22.179   9.966  0.1274  0.2531  0.2146
93004W        W35995  12.295  14.762   6.892 -0.0629  0.2115  0.3200
93005W        W35996  20.313  25.455   8.623  0.0194  0.1341  0.0096
93006W        W35997  25.738  32.891   5.400  0.2353 -0.0475  0.2587
93007W        W35998   9.755  16.610   4.037 -0.0373  0.0588  0.1326
93008W        W35999   5.188   6.640  26.384 -0.0617 -0.0677 -0.1667
93009W        W36000  11.169   0.762  27.410 -0.2461  0.1301 -0.0755
93010W        W36001  10.426  29.860   5.140  0.0355  0.0009 -0.0719
93011W        W36002   0.452  17.771   3.834 -0.0950 -0.1749 -0.0720
93012W        W36003  34.054  15.858   3.666  0.2055 -0.0272 -0.3567
93013W        W36004  10.305  16.983  18.699 -0.2028 -0.0821  0.1712
93014W        W36005   7.085  33.760   2.377 -0.0238  0.2804  0.1010
93015W        W36006  32.053  19.403   2.300  0.1979 -0.2965  0.0582
93016W        W36007   5.035   9.584  21.898  0.2362  0.1488  0.2063
93017W        W36008   8.345  28.884  24.265  0.2580  0.1408 -0.0992
93018W        W36009   7.310  10.615  15.571  0.1356 -0.1472  0.1578
93019W        W36010  23.785  11.681   0.437  0.0118 -0.3109 -0.0658
93020W        W36011  13.478  23.032   8.851 -0.2900  0.2770  0.1772
93021W        W36012   5.969  18.432  26.159  0.1224  0.2800 -0.2141
93022W        W36013  14.178  11.689   2.056 -0.0884 -0.3006  0.0529
93023W        W36014   8.070  20.555  25.325 -0.2028  0.0915 -0.0175
93024W        W36015  16.616  10.806   0.465  0.0860 -0.0284 -0.1266
93025W        W36016  14.109  27.093   7.763  0.0027  0.1807  0.2691
93026W        W36017   9.073  29.627   1.750 -0.4874  0.1105  0.1183
93027W        W36018  11.982   2.187  19.028  0.2008 -0.0303  0.2450
93028W        W36019   8.514  10.394   0.750 -0.1762  0.1086 -0.1447
93029W        W36020  10.071  10.396   3.192 -0.1136 -0.2226 -0.0388
93030W        W36021   7.834  23.212   3.828  0.0452 -0.1626 -0.2743
93031W        W36022   4.442  27.083  15.062  0.1612 -0.2534  0.1097
93032W        W36023  13.053  17.139  12.731  0.1035  0.1012  0.3464
93033W        W36024  21.069  24.944  21.583 -0.1612 -0.0850 -0.0398
93034W        W36025  13.924  16.851  24.722  0.1309  0.3680 -0.0917
93035W        W36026  18.022  27.221   3.771  0.1630 -0.0317 -0.0211
93036W        W36027  11.713   7.399  20.474 -0.2206 -0.1871 -0.0247
93037W        W36028  14.810  21.100  22.025  0.0512  0.1123 -0.1968
93038W        W36029   7.698  18.051  14.933  0.2651 -0.2438 -0.0820
93039W        W36030   5.687  22.731   3.018 -0.2139 -0.1083 -0.0856
93040W        W36031  24.279  17.442   9.365 -0.1799 -0.0973  0.1352
93041W        W36032   6.138  11.929  27.476 -0.0383  0.1055  0.0670
93042W        W36033  34.672  19.429  19.561  0.1069 -0.2323  0.3720
93043W        W36034  32.913  19.922  29.239  0.0433  0.1208 -0.2250
93044W        W36035  19.983  21.211  22.139  0.0542  0.2608  0.1036
93045W        W36036   9.014  11.535  25.272 -0.1159  0.0368 -0.0978
93046W        W36037  10.009  33.082   4.833  0.0135  0.0624  0.3763
93047W        W36038   0.893  20.000   6.101  0.1803  0.1767 -0.0009
93048W        W36039   1.239  15.505  15.773 -0.2783  0.2113 -0.2536
93049W        W36040   7.100  12.480   5.140  0.4666 -0.2068  0.1524
93050W        W36041   8.533  18.857   1.830  0.1591  0.0315  0.1347
93051W        W36042  30.380  17.681   0.190 -0.0478 -0.2585  0.0260
93052W        W36043   8.746  15.464   0.015  0.0369 -0.0584 -0.1246
93053W        W36044  31.621  12.331   1.968  0.1602 -0.1434  0.1103
93054W        W36045  18.283  10.584   9.378  0.2201 -0.0379 -0.2086
93055W        W36046  23.244   5.153  25.079 -0.0770  0.0857  0.1825
93056W        W36047  11.192  30.979  28.617  0.0027  0.0767  0.0712
93057W        W36048  14.132  20.720  26.917  0.1630  0.1606 -0.2114
93058W        W36049   5.201  27.752   0.309 -0.0868  0.2824 -0.1108
93059W        W36050  19.747  31.727   9.367  0.1430  0.2992 -0.0430
93060W        W36051  31.095   7.517   7.524  0.3585  0.0412  0.1154
93061W        W36052  12.093  15.101   2.185 -0.2432  0.1123  0.2714
93062W        W36053  12.391  23.807  23.505 -0.1989  0.3777 -0.3317
93063W        W36054   9.805  21.067  13.634  0.2183  0.3712  0.0846
93064W        W36055  22.312  25.033  26.463  0.0655 -0.2579  0.2820
93065W        W36056  11.038  25.643  29.236 -0.0632  0.4541  0.0734
93066W        W36057   7.082   9.552   6.799 -0.0254  0.1255  0.0511
93067W        W36058  22.941   4.259  26.769 -0.0453  0.1701  0.2752
93068W        W36059  23.861  26.412   0.814  0.1784  0.0812 -0.0253
93069W        W36060  10.651  24.633  25.512  0.0796 -0.4645  0.1871
93070W        W36061   5.542  20.934   4.574 -0.0138 -0.1758 -0.2202
93071W        W36062  20.230   0.721   0.716 -0.2635 -0.2118 -0.1083
93072W        W36063   6.253  25.328  23.546  0.1612 -0.0961 -0.0876
93073W        W36064  14.380  28.888  18.353 -0.3030 -0.2257  0.1205
93074W        W36065   5.567  15.575  25.125  0.0496 -0.1141 -0.2034
93075W        W36066  13.874  17.072   8.467  0.0432  0.0497 -0.0327
93076W        W36067  12.048   6.272   9.433 -0.0061  0.2308  0.1817
93077W        W36068  13.042  15.097  18.043  0.2866 -0.0590  0.0708
93078W        W36069  13.079  14.421   2.206 -0.1417  0.0364 -0.1630
93079W        W36070   0.500  18.149  17.177 -0.1013  0.3020 -0.1068
93080W        W36071   0.149   3.617  25.243  0.3126  0.0065  0.0651
93081W        W36072  15.481  29.347  21.673  0.3536 -0.1029  0.2678
93082W        W36073   9.247  19.938  23.602 -0.0059 -0.1151  0.1097
93083W        W36074  21.076  21.194  28.358  0.0660 -0.1061  0.1826
93084W        W36075   6.421   8.660   0.206  0.0023 -0.0946  0.2110
93085W        W36076  10.387  32.470   6.791  0.2952  0.0540 -0.0160
93086W        W36077  33.524   4.481   8.101 -0.2446 -0.0890  0.0472
93087W        W36078  19.066  14.267  26.421  0.1399 -0.2354  0.0943
93088W        W36079   1.521  12.216   3.598  0.2770 -0.2080  0.0173
93089W        W36080   7.882  12.278  22.373  0.0619 -0.2672  0.3915
93090W        W36081   9.742  11.168  24.438  0.1059 -0.0968  0.3304
93091W        W36082  33.883  27.007   7.878  0.1807 -0.0448 -0.1819
93092W        W36083  26.294  16.008   1.144 -0.1584  0.0901  0.3429
93093W        W36084  10.876  11.034   4.332  0.0283 -0.1152  0.1413
93094W        W36085   4.653  14.541  21.094  0.0486 -0.1945 -0.1309
93095W        W36086  33.678  29.393  28.630  0.0719 -0.0580 -0.2620
93096W        W36087  33.180   7.177  23.607 -0.0763 -0.2960 -0.2704
93097W        W36088   9.290  17.247   1.095  0.0261  0.0177  0.1092
93098W        W36089  12.910  22.520   5.704 -0.3831 -0.2389 -0.0491
93099W        W36090  22.454  16.919  16.553  0.1441 -0.0758  0.0001
93100W        W36091   1.182   2.026  10.057  0.1840 -0.0833 -0.2003
93101W        W36092  10.978  29.233  17.232  0.0654 -0.0077 -0.0942
93102W        W36093   7.576   2.280  19.012  0.1026  0.1533  0.0944
93103W        W36094  24.889  30.523  19.613  0.5890 -0.1882  0.0540
93104W        W36095   6.174  19.194  27.854 -0.1280 -0.0185 -0.0623
93105W        W36096  27.708  28.729   2.603  0.1889 -0.0557 -0.0274
93106W        W36097  11.358  32.752  26.585 -0.0297 -0.2705  0.1939
93107W        W36098   1.737  13.735  10.022 -0.1529 -0.1679  0.0427
93108W        W36099   8.404  26.061   1.627 -0.0192 -0.0464  0.1296
93109W        W36100  26.999  33.354  28.917 -0.2564 -0.0926  0.1874
93110W        W36101  12.269  10.757   3.603  0.2860  0.0302 -0.2900
93111W        W36102   9.522  25.876   1.477 -0.1136  0.1056  0.3100
93112W        W36103  28.572  17.357  29.122  0.3378  0.3960 -0.2330
93113W        W36104   7.959  17.735   3.133 -0.0175  0.1864 -0.2317
93114W        W36105   8.340   7.096   4.825  0.2362 -0.3735 -0.1419
93115W        W36106  11.997  15.178  26.007  0.1282 -0.4053  0.2224
93116W        W36107   8.126   8.674  22.998  0.2250 -0.1517 -0.0928
93117W        W36108  28.863  13.315   9.119 -0.0965 -0.0621 -0.1750
93118W        W36109  24.119   5.371  24.699 -0.0364  0.2448  0.0424
93119W        W36110  14.064  24.316  28.259  0.0517  0.1226  0.0810
93120W        W36111   7.456   4.764   6.299  0.0410  0.4788 -0.0475
93121W        W36112  18.044  22.020  15.639  0.0836 -0.2691 -0.1303
93122W        W36113  12.468   6.584   4.522 -0.0841  0.0318  0.1527
93123W        W36114   6.529  16.155  27.458  0.0938 -0.2929  0.1384
93124W        W36115  23.266  27.948   3.039 -0.1701  0.3288  0.3343
93125W        W36116   0.208  14.412   1.604  0.1334 -0.1764  0.0407
93126W        W36117   2.913   7.257  10.501 -0.3454  0.0782 -0.1046
93127W        W36118  14.053  33.728   8.056 -0.0155  0.1368  0.0133
93128W        W36119   3.115  21.616   7.470  0.2295 -0.0837 -0.4645
93129W        W36120  15.904  23.700   5.824 -0.3348 -0.1251  0.0532
93130W        W36121  14.192  24.909  15.464  0.1513 -0.0466  0.1393
93131W        W36122  27.901  19.492   8.362 -0.0582 -0.1337 -0.2435
93132W        W36123  14.453  14.253  27.156 -0.0433 -0.0709 -0.1037
93133W        W36124   4.742  13.872  19.388 -0.0128  0.0312  0.1703
93134W        W36125  27.108  28.071  17.689 -0.0260  0.4537  0.1102
93135W        W36126  14.693   6.469  27.369 -0.0625  0.3078 -0.2812
93136W        W36127  21.204  17.030  17.946  0.0112 -0.0620 -0.1188
93137W        W36128  12.111  16.506  14.908  0.1461 -0.1240  0.0605
93138W        W36129   6.104   5.541  10.976 -0.3908  0.1886 -0.0323
93139W        W36130  29.286   9.321  19.968  0.1981  0.1490  0.1867
93140W        W36131  28.731  20.591  25.007 -0.0615 -0.2346  0.0531
93141W        W36132  20.671  13.213   9.811  0.0122  0.2841 -0.0654
93142W        W36133  22.442  20.146   2.144  0.1540  0.0525  0.0518
93143W        W36134  13.483  25.675  20.876  0.3118  0.1128 -0.0456
93144W        W36135  12.434   9.489   7.261 -0.0205  0.2001 -0.0783
93145W        W36136  11.757  16.314   3.367 -0.1067 -0.2639 -0.2895
93146W        W36137   9.745   4.942   1.820 -0.1021 -0.0158 -0.0335
93147W        W36138  10.440  27.245   1.955 -0.0495 -0.1666  0.0370
93148W        W36139  27.909  30.089   5.569  0.0786  0.0904  0.2263
93149W        W36140  17.337   0.500   7.585 -0.2823  0.4216  0.0727
93150W        W36141  13.613   8.295   4.499 -0.1934 -0.0884 -0.3269
93151W        W36142   7.498  32.108   8.062 -0.2501  0.1442  0.1653
93152W        W36143   6.730   9.215   8.238  0.0875 -0.0907 -0.1334
93153W        W36144   6.797  29.168   3.519 -0.2466  0.0240  0.1645
93154W        W36145  16.303  18.222  24.223 -0.1021 -0.3026 -0.1277
93155W        W36146  29.779   5.828   0.682  0.0826  0.1411  0.3112
93156W        W36147  12.741  14.574   9.988  0.1605  0.2520 -0.1962
93157W        W36148  11.102  12.276   0.824  0.2580  0.1158  0.1679
93158W        W36149  17.848  26.674   5.539 -0.1152  0.1506 -0.0104
93159W        W36150  31.095  24.567   6.402 -0.3100 -0.0419  0.0158
93160W        W36151   2.648  14.455  18.151 -0.0917 -0.1560 -0.0435
93161W        W36152  30.843  20.541   8.146 -0.0960 -0.0216 -0.5804
93162W        W36153   4.830  21.452  21.630  0.0311  0.1786  0.0444
93163W        W36154   1.510  26.375  22.343 -0.0046  0.1461 -0.0139
93164W        W36155   6.063  27.265  28.374  0.0353  0.0973  0.2325
93165W        W36156  22.716  17.927   6.916 -0.1708  0.2879 -0.0640
93166W        W36157   6.878  14.277   5.347  0.0841 -0.1935  0.1770
93167W        W36158  23.856  30.080   0.553  0.3018  0.1368 -0.0364
93168W        W36159  33.787  23.289  24.923 -0.1807 -0.1682 -0.0809
93169W        W36160  26.659  20.083  10.082  0.0314 -0.2492 -0.0833
93170W        W36161  18.067  27.001  19.714  0.0474 -0.2709  0.0179
93171W        W36162   8.081  16.155  17.775  0.0079  0.1737 -0.2201
93172W        W36163   7.917   0.885   4.229 -0.0378 -0.0239  0.4841
93173W        W36164   4.297  17.167   5.444  0.3044  0.0463 -0.0347
93174W        W36165  13.877   3.839  19.901 -0.0143  0.0378 -0.0024
93175W        W36166  16.644  13.908   0.551 -0.0736 -0.1219 -0.0630
93176W        W36167  19.654  22.828  24.054  0.0288 -0.1282 -0.4710
93177W        W36168   4.451  16.805   9.160  0.3723 -0.1816  0.0210
93178W        W36169  10.022   5.522   2.816  0.0003 -0.0816  0.2425
93179W        W36170  17.817  27.825  27.922  0.3162  0.0562 -0.1581
93180W        W36171  16.093  15.546  24.213  0.2800  0.1236 -0.3177
93181W        W36172  25.599   5.680   8.561  0.0187  0.1017  0.0965
93182W        W36173   0.554   7.553  18.134 -0.0269  0.0913  0.2098
93183W        W36174  13.813   1.119  17.328  0.1563 -0.2503  0.0668
93184W        W36175   6.209   9.274  23.962 -0.0176  0.2284 -0.1628
93185W        W36176   0.748  14.417  23.486 -0.0435 -0.6461  0.1271
93186W        W36177   6.313  19.226  29.163 -0.0940  0.0823  0.2340
93187W        W36178  19.877   1.257  27.253 -0.0373  0.1745 -0.0148
93188W        W36179  21.503  21.587  17.869 -0.1086 -0.0795  0.1993
93189W        W36180   3.644  26.755  16.262  0.1166  0.0210  0.2027
93190W        W36181   9.180  30.824   2.094  0.0706  0.0441 -0.2738
93191W        W36182  10.077  16.320  20.672  0.3344  0.0951 -0.0724
93192W        W36183  27.975  18.997   6.504 -0.0178  0.1855  0.0869
93193W        W36184   4.454  33.576   4.408 -0.0529 -0.0638  0.0120
93194W        W36185  25.487  22.962   9.115 -0.0842 -0.1410 -0.1873
93195W        W36186  10.799  16.022   2.410 -0.0018 -0.2386  0.1990
93196W        W36187  18.062   1.050  14.384 -0.4729 -0.3113 -0.2594
93197W        W36188  13.226   5.551  15.292 -0.1999  0.1778 -0.1850
93198W        W36189   5.682  25.291  26.172  0.1863  0.0173  0.2041
93199W        W36190  32.539  28.712   7.015  0.1754 -0.0889  0.1416
93200W        W36191   1.352  28.182  20.699  0.0942 -0.0769  0.0343
93201W        W36192   1.057   3.414   5.102  0.1153  0.0482 -0.2901
93202W        W36193   8.810  33.423  27.498 -0.0804 -0.0414  0.4197
93203W        W36194   3.700  14.600   6.316  0.0697 -0.0616  0.1007
93204W        W36195  17.629  20.232   8.435 -0.0455 -0.2211 -0.0589
93205W        W36196  15.611  17.263   7.092  0.2692  0.0056  0.2396
93206W        W36197   5.374   0.364   1.531 -0.0407 -0.0332  0.1147
93207W        W36198  34.194  27.230  15.433 -0.0269 -0.1841 -0.2561
93208W        W36199  12.025  24.472   5.295 -0.2248 -0.1949  0.0313
93209W        W36200   4.902  29.062   4.106 -0.2109  0.0493  0.0744
93210W        W36201  33.505  29.590   3.864 -0.0608 -0.1066  0.2466
93211W        W36202  18.820  22.262   3.910 -0.0090  0.2438 -0.0187
93212W        W36203   8.601  21.266  25.684 -0.1245  0.0938 -0.3070
93213W        W36204  25.189  19.569  15.140 -0.0685 -0.0563 -0.2449
93214W        W36205  12.014  26.056   7.285  0.1420  0.0018  0.0978
93215W        W36206  30.865  16.777  26.971  0.0626  0.2130  0.2268
93216W        W36207   9.509  21.721   3.572 -0.0814  0.1644 -0.0350
93217W        W36208  10.833  21.586  27.543  0.1626 -0.4857  0.2377
93218W        W36209   1.016  31.417  27.032  0.0573 -0.0695 -0.0471
93219W        W36210  31.780  24.235   1.304 -0.0028  0.3691  0.0914
93220W        W36211  13.328  25.417  15.557  0.1669  0.0158  0.2517
93221W        W36212   9.239  33.339   7.676  0.2611 -0.2684 -0.2458
93222W        W36213  18.782  13.470   6.124 -0.3160 -0.1231  0.2046
93223W        W36214   6.212  31.357   7.128 -0.2686  0.0036 -0.2421
93224W        W36215  18.868  17.300  15.298  0.1654  0.0860  0.1886
93225W        W36216  29.164  26.289  17.460 -0.1669  0.0232 -0.1763
93226W        W36217  19.548   4.350  24.018 -0.1507 -0.4199  0.1477
93227W        W36218  12.718  22.207  22.323 -0.0090 -0.0780 -0.0170
93228W        W36219   1.351  27.877   3.394  0.1205 -0.0797 -0.0495
93229W        W36220  20.069   0.833   1.711  0.0092 -0.0179  0.0689
93230W        W36221  18.598  17.133   8.714 -0.4003 -0.0707  0.2001
93231W        W36222  10.250  23.577  19.083 -0.0048 -0.1618 -0.0137
93232W        W36223  14.245  10.506  15.133 -0.1946 -0.0447 -0.1537
93233W        W36224  19.587  21.206  21.434 -0.4051  0.0270 -0.0317
93234W        W36225   3.165   4.907   7.745 -0.2194 -0.1657 -0.0103
93235W        W36226   6.988  11.591   5.085 -0.2015  0.0824 -0.2275
93236W        W36227  12.617  21.629  27.144 -0.0175  0.2732  0.0211
93237W        W36228  34.527  16.555   3.696  0.0733  0.2386 -0.0009
93238W        W36229   4.439  24.669  26.390  0.0474 -0.0479  0.0835
93239W        W36230  23.426  23.091  20.289 -0.2023  0.0518 -0.1306
93240W        W36231  25.263  25.203  17.654 -0.2132 -0.1106  0.0948
93241W        W36232  15.339  21.295   0.640  0.1196 -0.0814  0.1180
93242W        W36233  27.126  17.844   8.528 -0.0562 -0.3617  0.1469
93243W        W36234  32.497  15.820   0.171  0.2313  0.2163 -0.1059
93244W        W36235  19.011   8.276   5.968 -0.0167 -0.0249 -0.0709
93245W        W36236  22.555  29.271   1.332 -0.0971 -0.0783  0.0948
93246W        W36237   1.888  14.864   8.356  0.0142 -0.0471  0.2790
93247W        W36238   4.137  29.836   0.921 -0.0909  0.0084 -0.0594
93248W        W36239   9.593  11.423  15.146  0.1760  0.1761  0.0786
93249W        W36240   8.958  20.347  23.297  0.0433  0.2262  0.1502
93250W        W36241  20.038  26.154  19.813  0.1649 -0.1654 -0.2538
93251W        W36242  21.551  27.880   1.459 -0.0962 -0.0626 -0.1711
93252W        W36243  14.108   4.556   4.774 -0.1760 -0.2289 -0.0495
93253W        W36244  30.044  23.462  26.430  0.1463 -0.0238  0.1790
93254W        W36245  14.344  12.324  10.138 -0.0086  0.0608 -0.0356
93255W        W36246   7.333   8.557  23.273  0.2057 -0.3236  0.0221
93256W        W36247  10.902  14.881   9.290  0.0382 -0.0256  0.1524
93257W        W36248  21.128  18.133   8.950  0.2138  0.0091 -0.0150
93258W        W36249  25.896  11.066  27.661 -0.0859  0.1200 -0.1013
93259W        W36250  20.915  13.577   5.965 -0.1687 -0.1492  0.1298
93260W        W36251  11.232  16.257   0.404 -0.1456  0.2249  0.0766
93261W        W36252   6.346  14.884   0.485  0.1670  0.1762 -0.0105
93262W        W36253   2.270  23.040   7.691 -0.1980  0.0492  0.0422
93263W        W36254  14.413  32.592   8.466  0.0635  0.0937 -0.1462
93264W        W36255  32.078   0.002  23.728  0.0257 -0.1752  0.0540
93265W        W36256  26.931  30.160   4.817 -0.2821 -0.3007  0.1062
93266W        W36257  13.149  15.763  17.876  0.2647 -0.1103 -0.1260
93267W        W36258  16.169  31.712  27.699  0.2091 -0.3086  0.1085
93268W        W36259   4.221  23.865   1.764  0.2028 -0.1874 -0.2227
93269W        W36260  13.902  23.548   9.553 -0.0945 -0.1230 -0.0555
93270W        W36261   6.633  20.777  25.593  0.1012  0.1149 -0.0153
93271W        W36262   4.527   7.963   7.801  0.0995 -0.1840 -0.1995
93272W        W36263  11.614  20.294  23.316 -0.1188 -0.0553 -0.0810
93273W        W36264   5.234  20.445   3.120  0.0934  0.2188 -0.0087
93274W        W36265   7.334  17.911   4.606 -0.2068  0.0576  0.1392
93275W        W36266  18.976  12.303  27.606 -0.3953 -0.2154  0.0604
93276W        W36267   6.725  33.283   5.003  0.0901  0.2486 -0.1650
93277W        W36268   4.435  12.182  25.013  0.1743  0.1878  0.1625
93278W        W36269   5.244   7.276   5.466 -0.0049 -0.2907  0.0841
93279W        W36270  26.622  24.748  24.894  0.0268 -0.0106 -0.1014
93280W        W36271  14.023   6.056  17.169 -0.1710 -0.0160  0.0399
93281W        W36272   6.222  10.186   9.403  0.2945 -0.2223  0.0102
93282W        W36273   6.507  12.316   8.451  0.2229  0.2579  0.0180
93283W        W36274  18.022   3.131  10.329  0.0489 -0.2848 -0.4729
93284W        W36275   4.159  17.673   3.432  0.2229 -0.1068  0.0238
93285W        W36276   8.879   6.341   7.293 -0.0240 -0.1522 -0.0174
93286W        W36277   7.236  20.112   7.629 -0.0712 -0.2790 -0.2617
93287W        W36278  10.875  18.342  28.699 -0.1948  0.2101 -0.3862
93288W        W36279   5.528  33.723   7.918  0.0068 -0.1216  0.1342
93289W        W36280  31.378  30.651  25.618 -0.1102 -0.2216  0.2034
93290W        W36281  16.101  15.223   8.981 -0.2233  0.1019 -0.0040
93291W        W36282  33.207  21.169  28.161  0.1861  0.1667 -0.0407
93292W        W36283  26.955  10.305   0.299 -0.0352  0.0794  0.0526
93293W        W36284  18.455   4.373  27.993  0.0920 -0.1238 -0.1316
93294W        W36285   7.490   6.511  18.769  0.1220 -0.3831 -0.1110
93295W        W36286  15.192  24.214   7.402 -0.0538 -0.2122 -0.0262
93296W        W36287  27.139  16.044   7.047 -0.0724  0.2619 -0.0224
93297W        W36288  24.138  12.700   6.720  0.0544 -0.4687 -0.0493
93298W        W36289  19.883  19.045   3.497 -0.0721  0.0463 -0.3914
93299W        W36290  19.579  31.485   3.563  0.3537  0.0221  0.1912
93300W        W36291  17.636  32.970   1.387 -0.0215 -0.0981 -0.4101
93301W        W36292   5.677  10.749   6.907  0.1320 -0.0431 -0.1293
93302W        W36293   5.824  26.834  27.475  0.4336  0.1018  0.0232
93303W        W36294  12.706  31.541   0.937 -0.3226  0.0771  0.0899
93304W        W36295  26.309  18.257  25.334 -0.0249  0.1846  0.1135
93305W        W36296  29.443  31.727   8.486 -0.3450 -0.2906  0.1246
93306W        W36297   9.737  17.834   5.652 -0.2025 -0.1161  0.0934
93307W        W36298   6.276  32.587  17.886  0.3986  0.1513  0.0620
93308W        W36299  34.061  23.547   6.319 -0.0418 -0.4839  0.1098
93309W        W36300  10.248  28.182   8.964  0.0332 -0.1338  0.1655
93310W        W36301  10.386  21.790   4.035 -0.0019  0.1911  0.3928
93311W        W36302   3.096  23.831   9.500  0.1054  0.0678 -0.0832
93312W        W36303  18.573  11.468   9.086  0.1560  0.5249 -0.2061
93313W        W36304  34.783  27.292  15.472  0.1873  0.3046 -0.1712
93314W        W36305  24.987  32.922   0.115  0.3329 -0.2041  0.0985
93315W        W36306   5.582   7.543   4.200  0.0044 -0.3691  0.0638
93316W        W36307   2.015  12.907  11.502 -0.3007  0.0129 -0.2715
93317W        W36308  33.020   7.213  26.151  0.2233  0.0237  0.1112
93318W        W36309   9.067  13.318   7.672  0.0384  0.0308 -0.2123
93319W        W36310   6.756  34.314  27.538 -0.0302  0.3592  0.2779
93320W        W36311  11.536  15.894   6.810  0.2282 -0.1899 -0.1617
93321W        W36312   5.348  27.457  21.731 -0.0944  0.1391 -0.1012
93322W        W36313  19.537  11.160   4.691 -0.2626 -0.0932 -0.1082
93323W        W36314   8.279  27.058  19.721 -0.1619  0.1725 -0.0928
93324W        W36315  13.781  15.541   5.708 -0.1136  0.2576 -0.3373
93325W        W36316   9.699   1.221   8.111 -0.1056 -0.3073 -0.0859
93326W        W36317   0.621  13.511  17.127 -0.1637  0.1137  0.2397
93327W        W36318  13.782  29.474   9.629  0.0090  0.1390 -0.0616
93328W        W36319  17.794   5.352  25.968  0.2412 -0.0637 -0.1820
93329W        W36320  34.230   6.713  20.426  0.2266  0.0483  0.1783
93330W        W36321   1.591  33.261   0.506 -0.0442 -0.1764  0.1272
93331W        W36322  10.717  15.005  28.847  0.1860 -0.0507 -0.3003
93332W        W36323  31.081  18.572   6.095 -0.0260  0.0756 -0.1198
93333W        W36324   3.252  32.251   8.442 -0.0873  0.0446 -0.0945
93334W        W36325  24.242   9.685  28.439 -0.1242 -0.0020 -0.0872
93335W        W36326  17.412  22.158   2.302  0.1056  0.0704  0.1274
93336W        W36327  32.348   1.779   4.782  0.0059 -0.0640  0.7245
93337W        W36328  25.509  17.577  25.097 -0.1278  0.0498  0.1122
93338W        W36329  11.599   0.929   8.604 -0.1535  0.2966 -0.4378
93339W        W36330  13.943  22.587   4.959 -0.3144 -0.0379  0.3584
93340W        W36331  16.323  29.669   6.762  0.2885 -0.0395  0.0160
93341W        W36332  16.752  19.013   6.430 -0.0065  0.0119  0.2777
93342W        W36333   4.249  22.901  21.029  0.1768 -0.1388 -0.2076
93343W        W36334   8.418  28.632   9.720  0.2709 -0.1906  0.0248
93344W        W36335  13.602  10.063  26.340  0.3170 -0.0265 -0.0194
93345W        W36336  29.474  19.209  28.542 -0.1201 -0.1155  0.0600
93346W        W36337  33.483  18.948  10.693  0.1007  0.3161  0.1510
93347W        W36338  18.231  22.561   2.669 -0.1096 -0.1941  0.2753
93348W        W36339   4.416   8.579  20.852 -0.1262 -0.1207  0.0722
93349W        W36340   8.137  18.538   5.281 -0.2358  0.0075 -0.1172
93350W        W36341   5.107  17.603  10.577  0.2086  0.2335  0.0676
93351W        W36342   0.470  24.615  24.339 -0.0708 -0.1623 -0.0315
93352W        W36343  15.866  29.192   2.648  0.0910 -0.0398 -0.1472
93353W        W36344   0.170   5.441   2.854  0.3892 -0.0216  0.1312
93354W        W36345  23.832  20.508  22.970 -0.1841 -0.0479 -0.0011
93355W        W36346  18.024  18.496  27.449 -0.0402 -0.1640 -0.1707
93356W        W36347  27.137  32.650  21.990 -0.0368 -0.0641  0.1259
93357W        W36348  17.527  14.267  20.353 -0.1518  0.0424  0.2864
93358W        W36349  13.237  21.258   6.708  0.1168 -0.0710  0.2125
93359W        W36350  11.513  25.153   8.536 -0.1855 -0.2138  0.0021
93360W        W36351  17.555   4.981  27.228  0.3513  0.2869  0.3335
93361W        W36352  14.277  14.990   9.006  0.1914 -0.0466 -0.3099
93362W        W36353  21.548  20.621   7.621  0.1724 -0.1452 -0.3265
93363W        W36354  23.102  24.457   2.476 -0.3927 -0.1602  0.0164
93364W        W36355  12.435  10.998  17.696 -0.0133 -0.0537  0.2109
93365W        W36356   9.081  28.346   3.116 -0.4259 -0.1767 -0.2174
93366W        W36357  10.147  20.083   1.022  0.0234 -0.0127 -0.1437
93367W        W36358  33.821  14.515  11.979 -0.2872 -0.2753  0.3008
93368W        W36359  25.456  11.078   4.320  0.2450  0.0471 -0.1612
93369W        W36360  16.641  29.328   5.811  0.2682  0.3008 -0.0307
93370W        W36361  34.784  13.191   7.539  0.1780 -0.1799 -0.1671
93371W        W36362  29.610  10.201   2.992 -0.2895 -0.1730 -0.1862
93372W        W36363   7.956  23.132   5.538  0.0883  0.2417 -0.1205
93373W        W36364   2.947  22.365   7.460  0.0286  0.0793  0.1996
93374W        W36365   6.400   6.240   8.215 -0.0074 -0.1115  0.0503
93375W        W36366  33.438   9.633   1.264  0.0208 -0.1162  0.2185
93376W        W36367   1.453  21.117  25.372 -0.0574  0.0517 -0.1907
93377W        W36368   9.453  28.009   8.353  0.4565 -0.1447  0.0189
93378W        W36369  14.039  12.041   9.792  0.2477  0.0215 -0.0991
93379W        W36370  17.334  24.637  22.254 -0.2522  0.0053 -0.1156
93380W        W36371  11.022  32.082  23.100  0.1668  0.0181  0.1901
93381W        W36372  13.775  15.086   2.034  0.0900 -0.0972 -0.3198
93382W        W36373  13.458  30.799   7.048 -0.2780 -0.1966 -0.0533
93383W        W36374  22.107  20.446   1.711  0.0034  0.1161  0.2362
93384W        W36375  12.655   2.414   6.333  0.1327 -0.1846 -0.4503
93385W        W36376   4.200   9.660   5.681 -0.1705  0.0538 -0.1030
93386W        W36377   9.105  19.163  26.641 -0.0114  0.4083 -0.1990
93387W        W36378   4.066  17.060  10.220 -0.1680 -0.1047  0.0835
93388W        W36379   6.164  14.343   5.549 -0.3637 -0.1456  0.1994
93389W        W36380   5.359  24.790   1.990 -0.1411 -0.1975  0.0945
93390W        W36381   7.429  31.193  26.768  0.1421 -0.0977  0.3582
93391W        W36382   6.860  34.070  25.210  0.1962  0.1733 -0.1534
93392W        W36383  29.699  19.271  21.944  0.2551 -0.5328 -0.0895
93393W        W36384   8.204  19.987   4.852  0.0119 -0.0271  0.1848
93394W        W36385   6.093  10.241  10.989 -0.2167  0.0985 -0.4215
93395W        W36386  12.161  17.755   6.886 -0.2146  0.0814 -0.0135
93396W        W36387   5.585  15.828   5.879  0.0859 -0.0385  0.0957
93397W        W36388  22.347  17.569   7.817  0.0246 -0.0053 -0.0024
93398W        W36389  13.414  10.688  22.902  0.0260 -0.0280  0.2545
93399W        W36390  17.827   6.880  27.164 -0.3271  0.1861 -0.1114
93400W        W36391   2.148  19.483   3.910 -0.0738 -0.0740 -0.1001
93401W        W36392  29.415  19.919   1.910  0.1770 -0.0567  0.2648
93402W        W36393  33.989   5.442  28.702  0.1357 -0.1350  0.0333
93403W        W36394   5.827  31.699   0.526 -0.1359  0.1073  0.0420
93404W        W36395  30.473   0.518   9.466  0.0598  0.2033  0.1569
93405W        W36396  16.879  16.964   2.326  0.0752 -0.0751 -0.2471
93406W        W36397   6.817  24.430  18.047  0.1017  0.0546 -0.1758
93407W        W36398   6.482  14.505  21.312  0.1286  0.3501 -0.1734
93408W        W36399  18.496  23.334   7.215 -0.2938  0.0708 -0.1861
93409W        W36400  20.155  13.375   8.851  0.0609  0.1144  0.0594
93410W        W36401  23.349  21.781   9.193  0.1409  0.1172  0.2172
93411W        W36402   1.911  15.107  16.860 -0.2302  0.2957 -0.3281
93412W        W36403  13.078  13.788  10.252 -0.1303 -0.2225  0.1450
93413W        W36404  17.355   4.977   3.322  0.1191 -0.0957  0.0005
93414W        W36405  19.489  16.777  26.446  0.1348  0.1280 -0.2518
93415W        W36406  18.211  25.926  17.970 -0.1947 -0.0574 -0.0583
93416W        W36407  29.121  13.083  17.635  0.0084 -0.0309 -0.0427
93417W        W36408   6.894  20.701   7.987  0.0054 -0.0416  0.1985
93418W        W36409   9.235  13.493  28.530 -0.3008  0.2100 -0.2709
93419W        W36410  12.294  10.188   8.678  0.2182 -0.0439  0.2230
93420W        W36411  10.783  30.852   2.946  0.1124 -0.0155 -0.1782
93421W        W36412  10.508  21.606   7.996 -0.4102  0.2079  0.0062
93422W        W36413   3.017  22.877   2.184  0.0867 -0.0308  0.0189
93423W        W36414  33.942   1.580  28.212  0.0879  0.1015 -0.2356
93424W        W36415   9.986  22.641   9.192  0.1472 -0.0463  0.1704
93425W        W36416  14.113   6.155  27.469 -0.1552 -0.0295  0.2050
93426W        W36417   7.826  33.997  25.654  0.1604  0.1335  0.3492
93427W        W36418  29.458  20.975   1.951 -0.1420  0.0938  0.1376
93428W        W36419  18.961  12.271   2.417  0.1311  0.2143  0.0052
93429W        W36420  24.350   9.032   4.259  0.0285  0.1091  0.2044
93430W        W36421   4.082  26.209  17.604  0.0819 -0.1363 -0.1369
93431W        W36422   4.060  28.886  20.491  0.1427  0.1930 -0.1670
93432W        W36423  21.512  32.135   2.674  0.1830  0.0505 -0.0612
93433W        W36424  13.530  22.296   1.095 -0.1241  0.1097  0.0801
93434W        W36425   3.035  14.871  17.428 -0.0050  0.0671  0.0147
93435W        W36426   9.193   5.624   4.408  0.0610 -0.0028  0.1053
93436W        W36427  13.159  14.636   7.687  0.3346 -0.1111 -0.0111
93437W        W36428   9.068  14.919  26.599  0.0615  0.0475 -0.1055
93438W        W36429   7.051  27.264   8.219 -0.2502  0.1537  0.2035
93439W        W36430   9.611  24.686  24.597  0.3275 -0.2098 -0.3766
93440W        W36431  11.852  14.523   2.221 -0.3204  0.2710  0.2239
93441W        W36432  18.198  18.184  28.490 -0.0612  0.3130 -0.1077
93442W        W36433   9.511  25.989   0.526  0.2212 -0.2420  0.0631
93443W        W36434  31.711  24.795  18.408  0.2164 -0.1265  0.4708
93444W        W36435  20.263  24.254  20.045 -0.2209 -0.2992  0.1516
93445W        W36436   7.704   8.982  24.309  0.0324  0.0553  0.0352
93446W        W36437   6.536  24.289   5.467  0.1397 -0.2363 -0.1284
93447W        W36438   0.561  24.744  28.486 -0.2810  0.1434 -0.0618
93448W        W36439   3.125   8.522  10.868  0.0326  0.1049  0.0349
93449W        W36440  10.121  13.133   7.906 -0.1209  0.0478  0.0904
93450W        W36441   0.038  25.076   7.183 -0.0402  0.2008 -0.2199
93451W        W36442   9.623  27.721  23.301 -0.0548  0.0623 -0.0235
93452W        W36443  16.230  26.062  26.972 -0.1180 -0.0499 -0.2141
93453W        W36444   5.791  14.583   3.576 -0.1170  0.1924  0.2916
93454W        W36445  26.945  21.874   6.860  0.1003 -0.4941 -0.0602
93455W        W36446   3.655  18.740   0.505  0.1753  0.2095 -0.1608
93456W        W36447  13.231  29.083   2.354  0.0907 -0.0473 -0.2542
93457W        W36448   0.984  23.681  29.041  0.5204  0.3926 -0.0547
93458W        W36449  11.652  17.051   4.907  0.0293  0.1749 -0.3229
93459W        W36450   1.835  25.916   3.442 -0.0444  0.1940 -0.1386
93460W        W36451  14.912  20.103   2.633  0.1415  0.1246  0.1153
93461W        W36452  27.736  18.953   4.310 -0.2110 -0.2653 -0.0001
93462W        W36453   1.375  25.964  26.373  0.0274 -0.0900 -0.0950
93463W        W36454  20.098  14.367   0.617 -0.4198  0.1261 -0.1977
93464W        W36455  11.406  19.469   8.080  0.0518  0.1417 -0.0978
93465W        W36456  17.590  20.455   4.737  0.0887  0.0129  0.0633
93466W        W36457   8.889   9.028   4.538  0.3747 -0.1804 -0.0439
93467W        W36458   5.700   8.110   5.896  0.1050 -0.0255 -0.0090
93468W        W36459   4.356   9.379   0.412 -0.2177 -0.1567  0.1585
93469W        W36460   7.283  18.060   0.651  0.3409 -0.2740  0.1696
93470W        W36461  13.876  24.649   6.069  0.1076 -0.1418  0.0983
93471W        W36462  15.127  10.235  24.200  0.1055 -0.2954  0.0433
93472W        W36463  14.466   0.283   5.349  0.1406  0.1017 -0.2673
93473W        W36464  19.426  25.380   7.940 -0.0213 -0.0206  0.1923
93474W        W36465   6.395  22.231  22.484  0.1638  0.2120 -0.0160
93475W        W36466  30.188  11.939   3.292 -0.0266  0.1545 -0.2693
93476W        W36467  19.656  22.936   8.539  0.1741  0.1747  0.0452
93477W        W36468  13.436  34.329   4.201 -0.0730  0.0813 -0.3031
93478W        W36469   3.887  27.234   5.009  0.1342 -0.2245  0.0026
93479W        W36470  13.368  21.038  13.650 -0.0897 -0.0671  0.0467
93480W        W36471  10.130  24.469  25.392  0.0212 -0.2799 -0.0038
93481W        W36472   6.685   9.256   9.408  0.0847  0.1370  0.0449
93482W        W36473   6.626  12.747  18.817  0.0846  0.0518 -0.0235
93483W        W36474  12.837  13.225   9.340 -0.1484 -0.1475 -0.1108
93484W        W36475  30.629  17.566  26.947  0.2734  0.0462  0.0514
93485W        W36476   0.933  28.210  25.198 -0.1764 -0.0625  0.0070
93486W        W36477  18.570  31.005  27.687 -0.1257  0.1052 -0.2405
93487W        W36478  14.472  22.900   6.771 -0.0879  0.0870  0.0401
93488W        W36479  13.004  32.643   8.104  0.1157 -0.0499  0.2591
93489W        W36480   8.762  18.085   7.245 -0.1396 -0.0415  0.0196
93490W        W36481   7.101  26.687   1.690 -0.0056  0.1332  0.1307
93491W        W36482  32.099  24.387   3.987 -0.1675 -0.5669  0.1282
93492W        W36483  24.207   2.953   0.447 -0.2076  0.0930 -0.1286
93493W        W36484  13.039  20.296   2.185 -0.0006  0.0046 -0.4192
93494W        W36485  10.882  14.722   4.826 -0.0382  0.2801  0.1276
93495W        W36486  32.988   8.154   5.985 -0.0954 -0.1199 -0.1606
93496W        W36487  18.718  21.571  27.900  0.0667  0.2948 -0.0847
93497W        W36488   4.699  21.221   9.447  0.3846  0.0254  0.0396
93498W        W36489   3.286  20.580   4.929 -0.0606 -0.2199  0.3254
93499W        W36490  15.535  21.856  21.869 -0.2483  0.0226 -0.1765
93500W        W36491  24.965  27.372   6.594  0.0861  0.4055 -0.0329
93501W        W36492   8.398  19.560   9.738  0.2153  0.2248 -0.2029
93502W        W36493   8.446  21.532  19.743 -0.2268  0.0167 -0.1318
93503W        W36494   2.646  23.188   8.969  0.1169  0.1049  0.3480
93504W        W36495   4.059  26.183  23.436 -0.0311 -0.3250 -0.3486
93505W        W36496   3.767  22.476  24.773  0.0722 -0.1686 -0.1276
93506W        W36497  31.952  16.619  26.220  0.0345 -0.0920 -0.1257
93507W        W36498  33.646   2.317  28.401  0.0537 -0.1669 -0.1777
93508W        W36499   8.195  16.587  25.605 -0.0326 -0.1751 -0.0989
93509W        W36500  11.754  20.287   8.427  0.1924 -0.0578  0.0654
93510W        W36501  12.219  28.653   8.907 -0.0461 -0.3857 -0.0421
93511W        W36502  11.747  34.430  24.120 -0.1770  0.2162  0.5116
93512W        W36503  18.931  24.900  27.930 -0.1554  0.0849 -0.0290
93513W        W36504  11.933  22.253   3.610 -0.1011 -0.1918 -0.0867
93514W        W36505  31.307  15.830   9.524  0.0766 -0.2267  0.0565
93515W        W36506   3.727  26.119  24.681 -0.2655  0.0043  0.1125
93516W        W36507  10.668  28.199   0.755 -0.2899  0.1223  0.4035
93517W        W36508   5.047  32.540   2.854  0.3251  0.0665 -0.1249
93518W        W36509  32.381   9.862   1.187  0.3057  0.1122 -0.0468
93519W        W36510   8.341  29.976   1.773  0.1769 -0.6299  0.3679
93520W        W36511  18.168  31.421  26.415  0.0181 -0.1389 -0.2435
93521W        W36512  20.031  12.760  21.792  0.1193  0.2551  0.0339
93522W        W36513  22.721  10.229   3.370 -0.0407  0.0588 -0.0664
93523W        W36514  11.446   6.008   6.782 -0.0368 -0.0994 -0.3764
93524W        W36515  21.202  13.701   6.849 -0.0309  0.0119 -0.0868
93525W        W36516  15.218  12.914   8.489 -0.0430 -0.0873  0.1629
93526W        W36517  14.794   2.965   5.912 -0.0068 -0.1543  0.1702
93527W        W36518   1.407  13.250   1.193 -0.1564  0.1757 -0.2134
93528W        W36519  16.550  29.468   7.509  0.1434 -0.0398  0.1099
93529W        W36520   9.226  14.204  23.177  0.0934 -0.1010 -0.1493
93530W        W36521  33.879  13.220   9.465 -0.2660  0.0645 -0.1216
93531W        W36522   8.446  21.993   8.719  0.2415 -0.1720  0.0949
93532W        W36523  19.302  23.229  16.041  0.1514  0.0215  0.0547
93533W        W36524  17.719  13.607   2.250 -0.2715 -0.0524  0.0212
93534W        W36525  30.014  20.132   3.516 -0.0092  0.2078  0.0488
93535W        W36526   6.358  20.846  10.281  0.2544  0.1187 -0.2749
93536W        W36527  10.195  27.351  28.372 -0.1320  0.0530 -0.2192
93537W        W36528  14.562  30.809  26.461  0.3843  0.2751 -0.1132
93538W        W36529   0.798  14.251  28.989 -0.1583 -0.3241  0.0115
93539W        W36530  31.281  17.974   0.019 -0.0584  0.0467  0.0710
93540W        W36531   7.786  19.029  22.264  0.0222 -0.0149  0.0028
93541W        W36532   8.099  23.971  19.308  0.1336 -0.2712 -0.3559
93542W        W36533  15.977  11.833   9.650  0.0236  0.1032  0.2594
93543W        W36534  11.925   8.446  25.013 -0.0622 -0.0178  0.1449
93544W        W36535  13.743  17.402   9.293 -0.0224  0.1013 -0.1154
93545W        W36536  14.192  15.349   7.881  0.1657  0.0554  0.0547
93546W        W36537  21.077  12.519  26.792  0.0196  0.1309 -0.2677
93547W        W36538  10.893  10.583   8.445 -0.1056 -0.0933  0.1871
93548W        W36539  10.068  27.044   7.585  0.1398 -0.3489 -0.0995
93549W        W36540  16.270   3.183  27.356  0.0766 -0.0194  0.2919
93550W        W36541  24.217  21.865   8.387 -0.1520  0.0458 -0.3046
93551W        W36542  11.169  25.238   7.327 -0.2394 -0.0262 -0.1751
93552W        W36543   9.202  12.894  10.645 -0.3537  0.1039  0.1243
93553W        W36544  34.130  15.432  25.521  0.0983 -0.1186  0.0047
93554W        W36545  19.707  21.998   6.984 -0.1396 -0.1023  0.1105
93555W        W36546  16.553  17.606  25.132  0.1248  0.1296  0.0439
93556W        W36547  14.513  20.213   6.265 -0.0182  0.0430  0.1039
93557W        W36548  32.641  31.191   8.084  0.1340  0.3032  0.2177
93558W        W36549  26.775  12.010  27.246 -0.1026  0.2300  0.2140
93559W        W36550  10.194  18.278  28.952  0.0275  0.2647  0.2828
93560W        W36551   6.784  10.379   7.848 -0.2250 -0.1437 -0.0190
93561W        W36552  12.840  18.271   7.106 -0.0048  0.0329 -0.1985
93562W        W36553   7.568  29.898  26.158 -0.1131  0.1101  0.2374
93563W        W36554  11.976  15.422  27.422 -0.0696 -0.3016  0.0457
93564W        W36555  17.035  19.648   4.704  0.3585 -0.0643 -0.0375
93565W        W36556   7.573  17.397  26.737 -0.1790 -0.1130 -0.1413
93566W        W36557  12.345  27.733  22.309  0.0923 -0.0795 -0.0121
93567W        W36558  26.665   7.566   0.942  0.0941 -0.0794  0.1600
93568W        W36559  12.909  30.326   9.393 -0.0985 -0.2782  0.1195
93569W        W36560  10.829  29.362  27.973  0.0005 -0.3547 -0.1633
93570W        W36561  18.382  27.684   7.791  0.0836 -0.2582  0.1938
93571W        W36562   9.295  17.377   1.559  0.1728  0.0057  0.4107
93572W        W36563  19.635  19.037   3.972  0.3122 -0.0860  0.0103
93573W        W36564  12.676   1.343   4.852 -0.1120 -0.2600 -0.2198
93574W        W36565  10.620  30.497  10.292 -0.0447  0.2806 -0.1199
93575W        W36566  10.133  17.470  26.981 -0.1589  0.3368  0.7032
93576W        W36567  11.999  21.080   4.334  0.0423  0.3102  0.4195
93577W        W36568  16.032  12.775   8.467 -0.2526  0.2217 -0.1954
93578W        W36569   2.123   6.160  16.007  0.1382  0.0819 -0.2864
93579W        W36570   9.978  30.950  10.430 -0.2767  0.1796 -0.0053
93580W        W36571   7.639  30.295  27.049  0.1613  0.0614 -0.0901
93581W        W36572  17.750  27.059  22.238 -0.0722 -0.1814 -0.0032
93582W        W36573  11.805  11.390  23.805  0.2555 -0.0581  0.0522
93583W        W36574  14.938   9.062   8.087  0.0755 -0.0315  0.3356
93584W        W36575  10.802  22.562  10.320  0.0208  0.0145 -0.0266
93585W        W36576  26.106  14.567   2.721  0.2215 -0.1264  0.0923
93586W        W36577  10.554  31.535  27.879 -0.2929  0.0803 -0.0993
93587W        W36578   0.248   5.928   1.325  0.0262 -0.0983  0.1431
93588W        W36579  31.019  10.940  10.330 -0.0577 -0.1024  0.1048
93589W        W36580  11.940  14.391   3.095  0.0915  0.0864 -0.0289
93590W        W36581  18.432  28.977  25.230  0.0974  0.2735  0.4306
93591W        W36582  12.233  17.875  23.442  0.0596  0.0748 -0.1825
93592W        W36583  17.561  20.731   8.214  0.0411  0.2866 -0.1441
93593W        W36584  15.840  16.749  13.613 -0.2189  0.0705  0.2101
93594W        W36585  15.059  22.181  25.969  0.0768  0.0485 -0.0176
93595W        W36586  34.403  12.512   1.852 -0.0063 -0.0974 -0.0416
93596W        W36587  17.601  15.829   1.045 -0.0782  0.3670 -0.1896
93597W        W36588   7.171   2.634  26.529 -0.2542  0.4339  0.3113
93598W        W36589  17.496   9.340   2.973  0.2464 -0.3046  0.0822
93599W        W36590  24.121  25.334   8.311  0.0033 -0.2218 -0.2311
93600W        W36591  30.596   3.453  23.823  0.0030  0.1548  0.2564
93601W        W36592   5.220  21.974  24.673 -0.1384  0.0055  0.0647
93602W        W36593   3.643  16.853  10.454  0.0229 -0.0423 -0.2340
93603W        W36594  30.005  22.739   3.793  0.0438 -0.4182  0.1778
93604W        W36595  16.457  21.440   0.505  0.1239  0.1159 -0.0496
93605W        W36596   6.572   8.106   5.679  0.0216 -0.1416  0.1255
93606W        W36597  26.015  27.991   8.951  0.0394 -0.0900 -0.0632
93607W        W36598   1.725  19.490   9.168  0.1889 -0.2673  0.1111
93608W        W36599  34.318  14.272   8.404 -0.2209 -0.0412 -0.1039
93609W        W36600  13.371  23.848   8.678  0.2392 -0.3250  0.1673
93610W        W36601  14.086  25.335   6.545  0.0127 -0.2255  0.1165
93611W        W36602  27.608  11.628  18.517 -0.0419 -0.0992 -0.0489
93612W        W36603   6.756  18.942   8.838 -0.1637 -0.1755  0.3186
93613W        W36604  12.474  32.943   1.326 -0.0528 -0.0508  0.0548
93614W        W36605  33.169  25.121   4.855 -0.1315  0.0964 -0.1762
93615W        W36606   1.604  17.332   1.862  0.2374 -0.4170 -0.2063
93616W        W36607   0.232  33.179  24.136 -0.1528  0.3853  0.0638
93617W        W36608  10.127  17.740   5.944 -0.0403 -0.1071 -0.2522
93618W        W36609  12.854  27.198  16.888 -0.2631 -0.0259 -0.1320
93619W        W36610   1.835  17.625   1.537 -0.3413 -0.1998 -0.0775
93620W        W36611  21.829  13.464  25.086  0.1364  0.0591 -0.4045
93621W        W36612   5.956  18.053   5.808  0.0474 -0.0076 -0.0241
93622W        W36613  25.530  23.941   5.816 -0.0801 -0.0696 -0.0702
93623W        W36614   5.355  21.046   8.679  0.0749  0.0531 -0.2885
93624W        W36615  34.251  22.941   4.362 -0.0896 -0.0112 -0.0514
93625W        W36616  14.811  27.333   8.093 -0.1016 -0.1867  0.2565
93626W        W36617  14.555  32.211  23.367 -0.1893 -0.0325 -0.1879
93627W        W36618  13.013  24.746   9.956  0.2355 -0.0761 -0.3240
93628W        W36619  13.465  18.053   1.539 -0.1076 -0.3845 -0.1589
93629W        W36620   4.057   8.606  27.672  0.1026  0.1361 -0.0596
93630W        W36621   8.316  22.736  21.798  0.1799 -0.2484 -0.0604
93631W        W36622   2.172  18.874  25.314 -0.3967  0.0503  0.4973
93632W        W36623  19.459  21.122   3.577 -0.0431 -0.0747  0.1634
93633W        W36624  11.665  18.152   0.137  0.2977 -0.1269  0.1474
93634W        W36625   5.339  15.874  25.641  0.2085  0.0478 -0.0614
93635W        W36626  24.175  17.155   4.174 -0.3313  0.2123  0.2350
93636W        W36627  13.231   3.878  10.451  0.0058  0.0531 -0.1094
93637W        W36628  22.903   0.746  19.712  0.3227 -0.0067 -0.2083
93638W        W36629  31.765  14.114   5.996 -0.0752 -0.0137  0.0463
93639W        W36630   4.861  18.495  29.138  0.2312  0.0644  0.1405
93640W        W36631   0.604  24.043   5.055  0.1563 -0.2979  0.2626
93641W        W36632  18.681  12.817   3.953 -0.1292  0.1814 -0.1267
93642W        W36633   1.602  27.869   2.013 -0.3089  0.0444  0.0606
93643W        W36634   5.268  13.449   8.655  0.0300 -0.0774 -0.0577
93644W        W36635  16.002  12.594   4.142  0.0780  0.1465  0.3073
93645W        W36636  10.420  32.400   1.992  0.0323  0.2577 -0.3739
93646W        W36637   7.118  19.577   3.970 -0.2713  0.0587  0.0997
93647W        W36638  13.755  21.715   5.532  0.3403 -0.0120  0.2420
93648W        W36639  22.182  14.717   2.252  0.0541 -0.2125 -0.1357
93649W        W36640  19.252  17.528  25.791  0.0849  0.1495  0.0812
93650W        W36641  13.681  18.173   4.802  0.1648  0.0493 -0.0707
93651W        W36642   6.404  17.917   9.763  0.0615  0.0638  0.1005
93652W        W36643   9.680  13.624   9.713 -0.1985 -0.0590  0.0728
93653W        W36644  17.320  20.242   3.314  0.1623  0.0181  0.3046
93654W        W36645   5.108  12.555   1.602  0.1549  0.1900 -0.3048
93655W        W36646  34.336  26.409   2.047 -0.0526 -0.1160 -0.2606
93656W        W36647   8.195  11.060   9.037  0.2862 -0.2377  0.1395
93657W        W36648  22.786  20.622  27.348 -0.2122 -0.3243 -0.2297
93658W        W36649  22.092  15.488   6.283 -0.0958 -0.0156 -0.1482
93659W        W36650   4.263  17.638   5.368  0.1355 -0.0857 -0.1367
93660W        W36651  13.727  10.490   8.034  0.3839  0.2879 -0.1359
93661W        W36652  19.020  21.559   4.530  0.1651  0.0579 -0.0813
93662W        W36653  19.066  24.848   8.972 -0.2905 -0.4892 -0.3822
93663W        W36654  12.954   6.297  22.254 -0.1960  0.0023 -0.2879
93664W        W36655   6.868  22.211  10.293  0.2801  0.0613 -0.0466
93665W        W36656  10.117  23.590  15.936  0.0363 -0.1107  0.0857
93666W        W36657  32.157  12.838   0.397  0.1574  0.0163  0.4502
93667W        W36658  18.084  16.121   5.842 -0.0171  0.5187 -0.1337
93668W        W36659  18.978  17.571   5.453  0.3171 -0.3081 -0.1526
93669W        W36660  11.433   7.025   7.770  0.0161  0.2418  0.0614
93670W        W36661  25.611  28.065   6.688 -0.2271  0.2341  0.1083
93671W        W36662  29.799  20.181  27.073  0.0641 -0.0480  0.2555
93672W        W36663   6.734  19.354  27.409  0.1848  0.1386  0.0662
93673W        W36664  13.948  13.179   9.299  0.0013 -0.4620 -0.1334
93674W        W36665  27.966   4.340   3.369  0.2004  0.1851  0.3847
93675W        W36666  14.759  18.673  28.780  0.0255 -0.1217  0.1421
93676W        W36667  30.631  17.218   0.329  0.1412  0.1252  0.2591
93677W        W36668  24.368  18.897  26.949 -0.2214  0.1365  0.1803
93678W        W36669  34.657  24.750   1.995  0.1546 -0.0802  0.0769
93679W        W36670  16.071  22.120   7.964 -0.1498  0.2907  0.0775
93680W        W36671  18.576  18.013  25.527 -0.4219  0.1333 -0.2124
93681W        W36672   6.795  21.694   5.007  0.1271  0.2424 -0.5446
93682W        W36673  16.454  23.944  26.263  0.4380  0.1801  0.1865
93683W        W36674  31.816  24.812   5.179 -0.1661  0.2429  0.1354
93684W        W36675  12.779  16.034   9.507 -0.0938 -0.2580 -0.0971
93685W        W36676  32.659  10.708  25.368  0.0660 -0.1679 -0.1253
93686W        W36677   6.679   3.564   8.646 -0.1933  0.0704 -0.0966
93687W        W36678  17.108  10.465   3.694 -0.1569  0.0228 -0.1388
93688W        W36679  22.811  12.480   6.859  0.0401 -0.0891 -0.3751
93689W        W36680  24.266  15.666   9.266  0.0447 -0.1347  0.0058
93690W        W36681  33.464  14.901   7.875  0.1636 -0.3195  0.0867
93691W        W36682   8.493  22.891  19.137 -0.4022  0.2762  0.0362
93692W        W36683  13.842  23.009   5.893  0.4918 -0.0271 -0.2189
93693W        W36684   0.510  22.261  26.197 -0.3420  0.0970  0.2561
93694W        W36685  15.824  24.447  23.124 -0.3057  0.1190  0.1224
93695W        W36686   4.233  31.288  27.951  0.0795  0.1408 -0.1015
93696W        W36687   8.395  31.802  21.613 -0.0139  0.2124 -0.4123
93697W        W36688  11.347  25.084   6.438  0.1185  0.2626  0.0506
93698W        W36689   6.137   8.732   7.057  0.2195 -0.2610  0.2940
93699W        W36690   5.082   8.090   1.309  0.3475 -0.0669  0.3902
93700W        W36691   2.019  12.399   5.039 -0.0056 -0.1763 -0.0214
93701W        W36692  11.088  22.983  13.881 -0.0887 -0.2100 -0.1160
93702W        W36693   7.323  31.256  14.646 -0.0657  0.0502 -0.1912
93703W        W36694  15.939  12.704   9.260 -0.0279 -0.0939 -0.1282
93704W        W36695  12.454  16.214   1.480 -0.0039  0.1624  0.0564
93705W        W36696   0.987  21.894   9.786  0.0395  0.1545 -0.0911
93706W        W36697  10.847   8.670   9.543 -0.2132 -0.0359 -0.0094
93707W        W36698  17.361  20.202   6.026 -0.1892 -0.0883 -0.0075
93708W        W36699  18.040  17.933   7.691  0.1774 -0.0423  0.0296
93709W        W36700   5.234  14.398   4.164  0.2576 -0.1273  0.0934
93710W        W36701  12.764  23.957   5.336  0.0633  0.0274  0.0400
93711W        W36702  26.910  31.304   2.603 -0.4071 -0.0332 -0.0779
93712W        W36703  25.498  17.661   8.537  0.0446  0.0098 -0.1266
93713W        W36704   6.910  13.383  27.275  0.1556  0.1408 -0.2149
93714W        W36705  11.139  22.475  14.836 -0.0153  0.0674 -0.2064
93715W        W36706  21.362  23.996  26.543 -0.1837 -0.1415 -0.1783
93716W        W36707  28.277  32.332  28.637  0.2566  0.1984  0.0364
93717W        W36708  22.108  21.044   6.490  0.1302 -0.0495  0.1265
93718W        W36709   6.543  16.481   5.240  0.0442 -0.0663  0.0789
93719W        W36710  19.917   3.216   5.229 -0.4004  0.1644 -0.1549
93720W        W36711   3.397  12.811  10.761 -0.0117  0.0016  0.1071
93721W        W36712   2.806  22.395  24.894 -0.1582  0.1667 -0.2080
93722W        W36713   2.425  27.176   7.576 -0.0604  0.0239 -0.2414
93723W        W36714  32.422  24.135   2.490  0.0131  0.0229  0.2943
93724W        W36715   0.744  26.262   8.203  0.2790  0.1573 -0.1350
93725W        W36716   1.016  21.478   7.485 -0.1140  0.2505 -0.0377
93726W        W36717   7.586   4.340   4.743 -0.1549  0.0711 -0.1603
93727W        W36718   8.648  12.170   8.984 -0.4401 -0.0393  0.4522
93728W        W36719   3.393  18.721  25.492 -0.0566  0.1113 -0.2234
93729W        W36720  33.442  22.027  10.417  0.1299 -0.0121  0.1480
93730W        W36721  15.131  29.440   9.568  0.0026  0.1232 -0.1339
93731W        W36722  30.494  18.477  26.392  0.0442  0.0905  0.0289
93732W        W36723  16.692  17.640   4.105 -0.0294  0.4912  0.0038
93733W        W36724  17.214  21.496  29.021 -0.1045  0.1538  0.0950
93734W        W36725  20.955  24.232   7.393 -0.0348 -0.1453 -0.1147
93735W        W36726  23.878  18.425   1.218  0.1404  0.2193  0.2111
93736W        W36727   8.414  17.209   5.938 -0.0527 -0.1066  0.1609
93737W        W36728   8.280  28.035   0.812  0.0233 -0.2885  0.0316
93738W        W36729   6.206  16.993   6.786  0.0172  0.0267  0.4631
93739W        W36730   5.397   5.066   3.628  0.2677  0.3118  0.2347
93740W        W36731  14.963  18.698  23.276  0.1599  0.0811  0.2254
93741W        W36732  34.509  22.949   2.386  0.1167 -0.0332 -0.0638
93742W        W36733  16.469  34.743  27.580 -0.0851 -0.1916 -0.0361
93743W        W36734  23.428  16.262   6.190  0.1035 -0.0707  0.3054
93744W        W36735  10.731  20.947   0.044  0.1764 -0.0042 -0.1845
93745W        W36736   7.069  23.760   0.019  0.2888  0.1333  0.1388
93746W        W36737  14.772  11.556  29.173  0.0929  0.0697 -0.1327
93747W        W36738  20.890  13.973  27.689  0.0641 -0.0257  0.1225
93748W        W36739  26.293  14.666  22.270  0.0184 -0.0124 -0.1275
93749W        W36740  34.560  32.132   1.001  0.0139  0.0281  0.2740
93750W        W36741  29.436  33.717  27.598 -0.0249 -0.1040  0.0921
93751W        W36742   6.293  29.409  22.140 -0.2958 -0.1496  0.1846
93752W        W36743   4.845  17.167   1.513 -0.1112  0.0149 -0.0348
93753W        W36744  17.322  22.056   4.856  0.1478 -0.1192 -0.1343
93754W        W36745   9.405   8.732  28.455  0.3100 -0.1827  0.3238
93755W        W36746  14.187  30.457   0.391 -0.2495  0.4661  0.1909
93756W        W36747  20.364  34.373   3.479  0.0994 -0.0119  0.1331
93757W        W36748   9.929  33.861   7.114 -0.1674 -0.0621 -0.3334
93758W        W36749   2.466  22.331  23.704  0.0174 -0.1016  0.3488
93759W        W36750  12.536  22.303   8.249  0.1473  0.0305 -0.0905
93760W        W36751  12.147   6.091  28.327 -0.0478  0.4397 -0.1262
93761W        W36752   8.261  32.350  26.949  0.2045 -0.0171 -0.3035
93762W        W36753   6.684  30.052   2.228  0.0341  0.1236 -0.0823
93763W        W36754  21.545  15.116  22.711 -0.1032  0.1673 -0.1211
93764W        W36755  14.465  16.812   0.269 -0.3206  0.1088  0.0282
93765W        W36756  20.729  13.791   7.013  0.1497 -0.2137 -0.0360
93766W        W36757  11.241  17.282  23.762  0.1341  0.0018 -0.1038
93767W        W36758  15.004   8.602  25.934 -0.2204  0.2243 -0.1188
93768W        W36759  24.839  19.232   3.418  0.0304  0.0558 -0.0119
93769W        W36760  20.008  18.487   7.750  0.0032 -0.1206 -0.1533
93770W        W36761  12.785   1.292   1.723  0.1083 -0.4665 -0.4043
93771W        W36762  11.343  24.793   9.373 -0.1400  0.1098 -0.2149
93772W        W36763   7.956  27.968  10.391 -0.0097  0.0753  0.0750
93773W        W36764   0.506  27.890  28.786 -0.0892  0.0482  0.3772
93774W        W36765   5.202   3.356  28.596 -0.1491 -0.1876 -0.4057
93775W        W36766   4.118  10.866   5.834 -0.0787  0.0947 -0.0897
93776W        W36767   2.168  23.775   6.527 -0.0760 -0.1011  0.3952
93777W        W36768  18.980  23.297   6.328 -0.4709 -0.0571 -0.0304
93778W        W36769  10.165  31.307  23.170 -0.2586 -0.0546  0.2920
93779W        W36770   5.161  18.634   5.905 -0.1333  0.0211  0.0982
93780W        W36771  11.061  25.172   5.609 -0.1986  0.0354 -0.1792
93781W        W36772   5.394  25.735  14.898 -0.2305 -0.1607 -0.4939
93782W        W36773   1.320  10.956  10.292 -0.1525 -0.0295  0.2216
93783W        W36774   6.169  19.781   5.974 -0.0883 -0.0989  0.0185
93784W        W36775  13.782  11.240  28.865  0.1299 -0.2035 -0.2132
93785W        W36776  15.737  17.865   8.932  0.1129  0.0986  0.4770
93786W        W36777  15.188   8.356  28.890 -0.1896  0.0445  0.2218
93787W        W36778   4.758   2.246   8.471  0.2194 -0.0371  0.1737
93788W        W36779  15.468  23.365   1.673  0.2846 -0.0877  0.0305
93789W        W36780  13.871  25.569   2.718  0.0279 -0.0175 -0.0190
93790W        W36781  21.341   8.044  28.796 -0.0335 -0.2452  0.2085
93791W        W36782   9.750  34.584   4.866  0.2542 -0.0470  0.3249
93792W        W36783  27.393  24.455   8.313 -0.2588 -0.2781  0.3489
93793W        W36784  13.756  21.351   0.833 -0.0575 -0.1255 -0.3650
93794W        W36785  34.465  32.631   4.679  0.0399 -0.2477  0.1135
93795W        W36786   6.071  25.069   0.381 -0.2906  0.0475  0.0216
93796W        W36787  28.657  32.197   6.208  0.0540  0.0905  0.0949
93797W        W36788  14.924  32.563   7.269 -0.0134  0.1663 -0.3304
93798W        W36789   9.101  10.553   1.548  0.0210 -0.3459 -0.0596
93799W        W36790   1.314   5.814  10.834 -0.1267 -0.1289  0.0638
93800W        W36791   9.410   5.517   0.565 -0.2589  0.0868 -0.4106
93801W        W36792  18.527  14.472   0.584  0.0599  0.2874 -0.0625
93802W        W36793  12.585  28.901   5.637  0.0476  0.2932 -0.3038
93803W        W36794   8.018  18.530   8.453  0.0835 -0.1169  0.6695
93804W        W36795   2.112  12.076   1.673  0.2597 -0.1398 -0.0450
93805W        W36796  13.876  26.582   2.553 -0.1400  0.1572  0.2070
93806W        W36797  33.885  28.178   6.401 -0.2325  0.1209 -0.0108
93807W        W36798   5.677  30.612   4.137  0.4311  0.0490  0.2572
93808W        W36799  21.539  24.726  10.086  0.1313  0.0306 -0.2044
93809W        W36800  11.172   4.986   5.361 -0.1647 -0.1638 -0.0330
93810W        W36801  15.592  16.820   6.899 -0.0149 -0.2891 -0.1905
93811W        W36802   7.292  24.305   5.731 -0.4162 -0.0191 -0.0211
93812W        W36803  12.523  31.629  21.789  0.1737  0.0565 -0.1492
93813W        W36804   5.274   9.260   8.718  0.0388  0.0851 -0.3289
93814W        W36805  15.201  21.590  28.230 -0.1936 -0.3163  0.0532
93815W        W36806  10.216   2.938   1.105  0.2863  0.2093 -0.2584
93816W        W36807  16.324  15.428   6.117  0.2300 -0.1098  0.1020
93817W        W36808  13.475  10.131  28.141 -0.0285 -0.2162 -0.0628
93818W        W36809   6.505  10.735   4.683  0.2452 -0.1018 -0.2825
93819W        W36810  23.843  15.217   7.645  0.3036  0.0382 -0.3927
93820W        W36811  16.197  32.371  10.160  0.0694 -0.4195 -0.0699
93821W        W36812  21.166   6.056   6.601 -0.0553  0.1688 -0.0107
93822W        W36813  31.136  20.492   7.230  0.2319 -0.1322 -0.0937
93823W        W36814   6.526  24.706   0.560  0.2584  0.2889 -0.1891
93824W        W36815   1.947  14.648   1.977 -0.0267  0.0723  0.0931
93825W        W36816  12.052  28.413   9.602  0.0221  0.0197 -0.0209
93826W        W36817  34.647  30.407   3.252  0.2747 -0.1076 -0.2308
93827W        W36818   8.339   3.298   1.008 -0.0821 -0.1728  0.0617
93828W        W36819  11.034  11.040   5.037 -0.0771  0.0535  0.1003
93829W        W36820  16.149  14.072   7.217 -0.1479  0.5245  0.1378
93830W        W36821  12.274  17.701  24.752 -0.0075 -0.0161 -0.1090
93831W        W36822   6.015  14.437  11.572 -0.4307 -0.1841  0.0438
93832W        W36823   8.280  20.595  28.806  0.1283  0.1287 -0.0816
93833W        W36824  10.192  16.999  24.190 -0.0925 -0.0958  0.2505
93834W        W36825  17.895   4.777   0.805 -0.4185 -0.0432  0.2318
93835W        W36826   8.586  30.593   5.328 -0.0449 -0.2078  0.1138
93836W        W36827   4.061   3.606   0.928  0.0395 -0.1467 -0.0352
93837W        W36828   1.252  24.176   7.350 -0.0485 -0.1024 -0.0007
93838W        W36829  28.232  13.624   4.895  0.1978  0.2618  0.1108
93839W        W36830  24.988  23.431   3.635  0.0162 -0.3119 -0.1160
93840W        W36831  12.367   2.377   4.904  0.1459  0.0615 -0.0409
93841W        W36832  15.914  13.878  28.101  0.2927 -0.6008 -0.2136
93842W        W36833  10.081  31.153   8.161 -0.0644  0.0525  0.1545
93843W        W36834  10.701   2.101   5.021  0.4013 -0.0530 -0.1617
93844W        W36835  21.138  25.395  21.045  0.0882  0.2279  0.0925
93845W        W36836   9.681   2.994   9.983 -0.4226 -0.1063 -0.2342
93846W        W36837  22.848  31.578   5.037  0.0364 -0.1597 -0.1592
93847W        W36838  10.399   3.424  25.990 -0.0613 -0.3392  0.0430
93848W        W36839  33.727  22.762   9.209 -0.2234  0.0365 -0.1687
93849W        W36840  16.209  25.743   7.736 -0.0455  0.1169 -0.0501
93850W        W36841  31.902  33.425   8.274  0.0552 -0.0349 -0.0590
93851W        W36842  18.203  19.783   4.753  0.1964 -0.0749 -0.0071
93852W        W36843   4.350  29.792  17.452 -0.0222 -0.1304  0.1143
93853W        W36844   1.868  18.843  21.800 -0.0613  0.0027 -0.2908
93854W        W36845  14.473  14.653   9.284  0.0526 -0.1835  0.0891
93855W        W36846  13.090  15.017   8.531 -0.0033  0.1831 -0.2079
93856W        W36847  16.275   8.715   8.683  0.1620 -0.0651  0.1063
93857W        W36848   3.975  27.428   0.586 -0.0180  0.1826  0.1417
93858W        W36849  10.801  21.793   2.151  0.0883  0.0411  0.1163
93859W        W36850   9.824  19.368   6.876  0.0047  0.0246 -0.1023
93860W        W36851  31.483  15.369   9.269 -0.2361 -0.1635 -0.2940
93861W        W36852  12.936  20.077   1.727  0.0976  0.0901 -0.0243
93862W        W36853   3.260  10.509   0.545 -0.1822 -0.0284 -0.2537
93863W        W36854  34.361  24.257   9.944  0.0500  0.0168 -0.0819
93864W        W36855  34.533   8.111   2.700 -0.2420 -0.0189  0.2427
93865W        W36856   7.996  20.528   8.673 -0.2020  0.0928  0.1343
93866W        W36857  32.906  21.411   8.342 -0.1821  0.0056 -0.1786
93867W        W36858  10.462  29.951  10.873  0.0191  0.2381  0.0577
93868W        W36859  18.286  15.411   5.098  0.0922  0.0690 -0.0379
93869W        W36860  18.604   4.869   8.227 -0.0749  0.0802  0.2251
93870W        W36861  13.403  22.072   6.369  0.2149  0.4415 -0.0075
93871W        W36862  12.328  23.770  28.640  0.1047 -0.0711 -0.0238
93872W        W36863  25.371  24.444  26.837  0.0788 -0.1556  0.2534
93873W        W36864  12.058  26.315  28.493 -0.0063 -0.1093  0.2168
93874W        W36865  27.305   1.096   3.408 -0.0795  0.1645  0.0906
93875W        W36866   9.608  10.169  24.939 -0.2115 -0.0946  0.3173
93876W        W36867   6.284  30.986  27.998  0.0325 -0.2316 -0.0217
93877W        W36868   6.881  20.201   6.086 -0.0737  0.2756 -0.1706
93878W        W36869   7.780   2.556  10.893  0.0139  0.0893  0.0527
93879W        W36870   5.194  23.387   9.758 -0.0407 -0.2287  0.0527
93880W        W36871   9.036  34.669   5.347  0.2064 -0.2081 -0.0631
93881W        W36872  13.976   9.551   4.072 -0.0276  0.0458 -0.2943
93882W        W36873   0.147   0.586  23.177  0.0245 -0.1764  0.3041
93883W        W36874  14.781  31.746   1.100 -0.5604 -0.1318 -0.2158
93884W        W36875   4.452  29.622   9.115  0.1855  0.1422 -0.0094
93885W        W36876   3.137  12.489   7.219  0.0862  0.5751 -0.2364
93886W        W36877  21.521  26.378  26.338 -0.1651 -0.0458 -0.1820
93887W        W36878  28.122  19.722  20.207  0.0777 -0.2890 -0.6225
93888W        W36879  15.331   3.707   6.955 -0.2801  0.0215 -0.3103
93889W        W36880  20.759  28.105  28.003  0.1014  0.0471  0.0236
93890W        W36881  13.722  20.915   8.370  0.3496 -0.0138 -0.2102
93891W        W36882  10.914  12.286   8.685  0.0830 -0.2672 -0.1570
93892W        W36883   2.904   4.235   9.011 -0.0104 -0.0507 -0.2121
93893W        W36884   9.627  19.794   5.419 -0.0415  0.0983  0.2592
93894W        W36885   1.872  11.023  26.518 -0.1119  0.1424 -0.0206
93895W        W36886   5.281  26.856  23.066 -0.2152 -0.0139  0.2182
93896W        W36887   7.567  14.851   9.677  0.2572 -0.1744  0.0619
93897W        W36888   4.361  23.502   9.021  0.0482 -0.0897 -0.1096
93898W        W36889  21.890  24.212  24.613  0.0097  0.1757 -0.0990
93899W        W36890  26.310  15.536  24.507  0.2020  0.4611  0.0964
93900W        W36891   6.644  18.976  14.969 -0.0077  0.0011 -0.0778
93901W        W36892  13.205  14.868   3.896  0.0921  0.0818  0.0809
93902W        W36893   4.425  10.505   8.887  0.1366 -0.1748  0.2341
93903W        W36894  11.752  19.021  27.829  0.3117 -0.1950  0.1354
93904W        W36895  15.395  13.327  21.426 -0.1012  0.0818 -0.0347
93905W        W36896  14.931  12.338   2.763 -0.2037 -0.1945  0.5033
93906W        W36897  11.934  20.882  20.119 -0.0522  0.0917  0.3543
93907W        W36898   9.383  14.788  29.221  0.0332  0.0613  0.0426
93908W        W36899  14.042  15.193   1.555  0.3523  0.2003 -0.0319
93909W        W36900   8.751  20.658   9.016 -0.0973 -0.1207  0.0136
93910W        W36901   8.186   0.791  10.689 -0.4245 -0.1790  0.0733
93911W        W36902   1.031  17.504  11.287  0.2031  0.0346  0.1750
93912W        W36903   6.472  21.340   0.586 -0.2365  0.1905 -0.0913
93913W        W36904  15.453  17.369   5.317 -0.1314  0.2233 -0.2499
93914W        W36905   4.822   1.198   2.265  0.2217  0.1471  0.4193
93915W        W36906  14.786  17.470   7.123  0.0092 -0.1179 -0.0789
93916W        W36907  30.827  21.134   2.511 -0.0446  0.0679  0.0739
93917W        W36908   8.150  29.788   1.312  0.5317 -0.0185 -0.0343
93918W        W36909   6.659  12.234  23.394 -0.0300  0.4972  0.1637
93919W        W36910  25.956  12.330   4.778 -0.0595 -0.0869  0.2760
93920W        W36911  16.268  14.530  27.597  0.1055  0.5474 -0.2217
93921W        W36912   5.466   9.972   3.486 -0.1297 -0.1859  0.0868
93922W        W36913  24.347  26.927   2.245 -0.0526  0.1587  0.0450
93923W        W36914   7.291  16.500   5.396  0.1036 -0.1744  0.0542
93924W        W36915  25.731  27.722  28.083  0.1722 -0.1014  0.0673
93925W        W36916  11.725  20.804   6.085  0.4581  0.0393 -0.0802
93926W        W36917  22.713  29.072  22.893  0.4224  0.2377 -0.1178
93927W        W36918   8.474   4.998   9.277 -0.1433 -0.0710  0.0723
93928W        W36919  14.289  26.927   0.289 -0.2891 -0.0945 -0.2124
93929W        W36920   3.660  23.727   8.489  0.1976 -0.0554  0.0577
93930W        W36921  19.033  21.953   7.641  0.0416  0.4964 -0.3126
93931W        W36922  29.249  28.306   3.119 -0.1549  0.0926  0.0281
93932W        W36923  12.252  29.406  28.089  0.0737  0.1904  0.3546
93933W        W36924  17.492  26.409   5.099 -0.0219 -0.5287 -0.1216
93934W        W36925   2.014  24.449   4.938  0.0336  0.2045  0.2657
93935W        W36926  18.443   8.842   9.655  0.0030  0.1182  0.3846
93936W        W36927   4.387   5.428  10.034 -0.2693 -0.0458 -0.2065
93937W        W36928  14.057  20.425   6.060  0.0701 -0.2003 -0.1968
93938W        W36929  32.008  11.944   7.239  0.1344  0.0791  0.2561
93939W        W36930  23.113  26.393   0.329  0.0764 -0.1566 -0.3288
93940W        W36931  13.410  22.478   5.301  0.0785 -0.4036  0.3495
93941W        W36932  12.276  19.194  25.646 -0.1470  0.3424 -0.1364
93942W        W36933   4.359   4.676   4.169 -0.0054  0.0880 -0.1927
93943W        W36934  11.740  24.694   8.468  0.0162 -0.1291  0.0848
93944W        W36935   7.542  25.765   4.217 -0.3658 -0.1696  0.0270
93945W        W36936  26.161  27.303  20.434  0.1448  0.2718  0.3402
93946W        W36937  34.261  21.037   5.572  0.3980 -0.3178  0.0409
93947W        W36938  19.382  19.865   3.201  0.2033 -0.2519  0.0605
93948W        W36939   2.859   7.759   1.137 -0.0523  0.0452 -0.3261
93949W        W36940  13.471   2.728   9.901 -0.1232  0.0153 -0.1726
93950W        W36941  12.228  28.166   9.178 -0.3295  0.0769 -0.1281
93951W        W36942   1.405  34.007   4.807 -0.1848 -0.0515  0.0198
93952W        W36943  12.457  33.469  10.590 -0.0211 -0.0424  0.1216
93953W        W36944  12.525  20.665  25.373 -0.1628 -0.1380 -0.1314
93954W        W36945  12.603   4.052   1.819 -0.0555 -0.0086 -0.0447
93955W        W36946   3.145  16.805  25.162 -0.0379  0.1269 -0.2134
93956W        W36947   0.323   5.204  20.109 -0.1249  0.0682  0.0550
93957W        W36948   3.072  29.674  16.174  0.0870 -0.0506 -0.0320
93958W        W36949   5.956  14.431  24.917 -0.5223  0.1808 -0.0905
93959W        W36950  19.444  25.042   5.008  0.2241  0.0644 -0.4556
93960W        W36951   4.330  18.975  24.013  0.0947 -0.1990 -0.1807
93961W        W36952  23.334  12.019   8.126  0.1809 -0.1219 -0.1968
93962W        W36953   8.092  14.580   3.581 -0.0506  0.1055  0.0189
93963W        W36954  15.462  21.882  15.949  0.1860 -0.2801  0.3741
93964W        W36955  15.158  20.197  25.446 -0.3111 -0.0755 -0.0215
93965W        W36956   1.288  16.369   4.760 -0.1655  0.1953 -0.3049
93966W        W36957  34.424  18.066  18.804  0.4946 -0.0249  0.2139
93967W        W36958  19.018  15.435   7.014 -0.1159 -0.2112 -0.0636
93968W        W36959  13.533  17.086   1.480 -0.0921  0.0574  0.1100
93969W        W36960  13.900   4.737   4.255  0.3063  0.0825 -0.1306
93970W        W36961  10.738   1.885  28.588 -0.1162 -0.1863 -0.2345
93971W        W36962  21.470   4.578   9.292 -0.1039 -0.0806 -0.0724
93972W        W36963   3.321  10.880  17.265  0.2763 -0.0108 -0.1875
93973W        W36964  16.543  22.450  24.985  0.0232  0.4502  0.2233
93974W        W36965   8.050  26.459  21.659 -0.2965  0.0969  0.2088
93975W        W36966  25.031  22.857   7.114 -0.3317  0.2930 -0.1565
93976W        W36967  27.913  21.912  27.211 -0.3033  0.0073 -0.0582
93977W        W36968  12.674  16.318   0.311 -0.2537 -0.0960  0.2603
93978W        W36969  34.602  27.316   2.647  0.0801  0.2723  0.2766
93979W        W36970   6.701  23.069   5.150 -0.3952 -0.2021  0.2044
93980W        W36971  17.694  31.453  23.777  0.0216  0.2176 -0.0148
93981W        W36972  14.398  20.612   2.268  0.0000 -0.4086  0.0473
93982W        W36973  34.112  34.685  27.589 -0.2212 -0.4420 -0.0501
93983W        W36974  11.631  15.420   9.053  0.1329  0.0080 -0.2759
93984W        W36975   4.612   0.720   1.477  0.2675  0.3367 -0.2540
93985W        W36976  17.140  14.889   6.962 -0.1866  0.0377  0.1204
93986W        W36977  17.676  32.257  26.172  0.2212 -0.4523 -0.1165
93987W        W36978  22.440  26.162   3.766  0.1846  0.0385  0.3544
93988W        W36979   0.698   9.223   3.757  0.0129  0.0212  0.0403
93989W        W36980  23.119  24.917   4.554 -0.1472  0.1463  0.4030
93990W        W36981  25.307   1.043  13.250 -0.2995 -0.1842 -0.0259
93991W        W36982  31.485  13.133   2.638 -0.0805  0.1339  0.1603
93992W        W36983   7.523  24.371  17.022  0.2295  0.1347  0.0315
93993W        W36984  30.308  10.440   6.831 -0.0601  0.0124 -0.1009
93994W        W36985   5.960  20.281  29.053 -0.0562  0.4393 -0.1033
93995W        W36986  29.239  23.068  15.963  0.0542 -0.0188 -0.1306
93996W        W36987   8.306  18.342  17.734  0.1193  0.0037 -0.0907
93997W        W36988  23.062  31.302  25.027  0.0272  0.2517  0.2728
93998W        W36989  12.352  20.573   5.397  0.4281  0.3278  0.0521
93999W        W36990   5.529   0.526   8.818  0.1736 -0.1033  0.1367
94000W        W36991  14.441  23.115  20.171  0.2214  0.2874  0.3710
94001W        W36992  23.591  17.945   1.931 -0.0970  0.0176  0.2686
94002W        W36993  19.034  13.034   6.442 -0.1546 -0.0686 -0.2619
94003W        W36994  32.847   0.549   2.944  0.0296 -0.0555  0.1389
94004W        W36995  10.739  29.703   7.480 -0.1855  0.0915 -0.0448
94005W        W36996   7.844  16.327   0.812 -0.2046 -0.2598 -0.1346
94006W        W36997  19.086  15.839   3.181 -0.2140  0.0458  0.3476
94007W        W36998  26.898  16.760  28.377  0.2234  0.3349  0.1053
94008W        W36999  10.671  30.210  26.649  0.0510 -0.0289 -0.0273
94009W        W37000  17.659  20.923   7.268 -0.1661  0.0829  0.0964
94010W        W37001  11.215  24.711  24.015  0.4112 -0.0095  0.0988
94011W        W37002  11.450  19.387  25.788  0.2829 -0.0628 -0.1318
94012W        W37003  13.873  18.060  14.089 -0.1425  0.1416 -0.2097
94013W        W37004  14.288  28.765  15.228  0.0522 -0.0646 -0.0593
94014W        W37005  20.333  28.892  22.405  0.0410 -0.1278 -0.1526
94015W        W37006  20.988  18.249   3.041  0.2675  0.0674  0.0500
94016W        W37007  32.183  32.710   5.215  0.1383  0.0811 -0.0186
94017W        W37008  25.800  23.442  20.476 -0.0655 -0.4673 -0.2529
94018W        W37009  11.590  20.450   2.440 -0.3806  0.2168  0.1387
94019W        W37010  14.206  15.920   6.526  0.0394 -0.0258  0.1847
94020W        W37011  13.510  24.649  16.170  0.4925 -0.0492  0.1806
94021W        W37012   3.728  12.498  24.269 -0.3974 -0.0066 -0.1920
94022W        W37013   3.633   8.362  21.953  0.1814 -0.3914  0.2778
94023W        W37014  16.265  22.492   3.823  0.0961 -0.0534 -0.0344
94024W        W37015  26.794  26.035  27.530  0.0120 -0.2010 -0.2865
94025W        W37016   9.674  27.058  14.135 -0.1961  0.0102 -0.5255
94026W        W37017   8.036  18.860   8.060  0.1963  0.0545  0.1762
94027W        W37018   6.410  22.207  26.910  0.2051 -0.0791  0.1726
94028W        W37019  32.077  29.981   0.950  0.5820  0.1409 -0.0347
94029W        W37020   0.216  11.333  23.157  0.1474 -0.0414 -0.0044
94030W        W37021  23.039  21.914   7.804  0.0370 -0.3248 -0.0497
94031W        W37022  11.602  24.112   0.823 -0.2601 -0.2218  0.3418
94032W        W37023   4.460   3.536  24.625 -0.2469  0.3193 -0.0879
94033W        W37024  18.357  21.667  20.590 -0.1937  0.1088  0.0020
94034W        W37025  15.445  27.172   4.848 -0.1510  0.1498 -0.1159
94035W        W37026   6.059  26.073   5.621  0.1008 -0.2263  0.2214
94036W        W37027  29.707  22.522   2.369 -0.0913  0.0300 -0.0724
94037W        W37028   8.987  20.604   6.397 -0.0832 -0.2582  0.0295
94038W        W37029  27.210  34.451   3.207  0.1054  0.1799 -0.0086
94039W        W37030   6.387   3.468  27.810 -0.0621 -0.3055 -0.5080
94040W        W37031   8.191   6.842  26.352 -0.2235 -0.1727 -0.0580
94041W        W37032   6.377  26.139  25.048  0.0384  0.0335 -0.1329
94042W        W37033   3.404  22.900   4.713  0.3158 -0.0507  0.1131
94043W        W37034  24.317   6.287   5.161 -0.0689 -0.1742 -0.1070
94044W        W37035   7.299   4.312  19.747  0.2099  0.1109  0.0929
94045W        W37036   2.781   5.779   0.639 -0.4332 -0.0105 -0.4722
94046W        W37037  17.192  19.134   5.400 -0.0077 -0.0129 -0.2471
94047W        W37038  11.273   3.646   6.246  0.0265  0.0610 -0.4539
94048W        W37039   5.559  23.320  24.374  0.0295  0.0231  0.2638
94049W        W37040  13.579  23.367   8.496 -0.2942  0.1746  0.0348
94050W        W37041  20.999   7.853  20.959  0.2525 -0.0685  0.0013
94051W        W37042  19.593  24.497  26.424 -0.0654  0.2295  0.2259
94052W        W37043  23.801   6.442   9.489 -0.0531  0.1214 -0.3204
94053W        W37044  26.086   9.087  10.462 -0.3537 -0.0248  0.1978
94054W        W37045  28.280  12.999   7.736 -0.1957 -0.1282 -0.2921
94055W        W37046  31.602  28.077  27.882  0.0098 -0.2959 -0.0232
94056W        W37047  10.069  14.698   0.302  0.1925 -0.2423 -0.0134
94057W        W37048  12.645  24.455  27.666 -0.0053 -0.2020  0.1170
94058W        W37049  15.263  16.801   7.326 -0.2843  0.0584  0.1624
94059W        W37050   6.418  15.968   3.994 -0.2339 -0.0015 -0.2166
94060W        W37051  10.268  13.468   6.392 -0.0795  0.0425 -0.2490
94061W        W37052   7.106  25.077  28.196  0.2033  0.0518 -0.0321
94062W        W37053  32.221  19.221   0.529 -0.0182 -0.0273 -0.1355
94063W        W37054  11.572  18.448   8.132 -0.1739 -0.3913 -0.1332
94064W        W37055   7.211  32.812  24.671  0.0340 -0.1296  0.1978
94065W        W37056   5.309  16.945   1.717 -0.0021  0.1410 -0.0465
94066W        W37057   1.137  34.592   7.999  0.1148  0.2252 -0.0372
94067W        W37058  22.175  14.803  28.599  0.1555  0.0030  0.0940
94068W        W37059  21.110  21.340   7.768 -0.0656 -0.0103 -0.0558
94069W        W37060   6.183   7.220  25.224  0.0379 -0.3143 -0.1814
94070W        W37061  28.905   5.918   0.584 -0.0777 -0.0323 -0.1258
94071W        W37062  12.578  21.882  18.943 -0.4959 -0.3676 -0.0086
94072W        W37063  13.021  31.784   6.273  0.2454  0.0652 -0.2209
94073W        W37064  11.508  13.208  19.728  0.1852 -0.1202 -0.2088
94074W        W37065   0.438  15.660  16.387 -0.0182 -0.0180  0.6477
94075W        W37066  24.094  25.338  28.066  0.1041  0.2052  0.2302
94076W        W37067  27.438  19.107   4.774 -0.0203  0.2399 -0.1502
94077W        W37068   0.885  18.227  28.815  0.1917 -0.1357 -0.0531
94078W        W37069   4.924   1.460   0.752  0.0873 -0.0524 -0.0697
94079W        W37070   3.370  26.294   9.588  0.1884  0.0800  0.1472
94080W        W37071  22.635  28.481  21.308 -0.1696  0.0577 -0.2274
94081W        W37072  33.400  31.233  20.431 -0.0482 -0.0395 -0.0959
94082W        W37073   6.735  18.687   7.990  0.2060 -0.2292 -0.0219
94083W        W37074  20.905  30.475  23.987 -0.3338 -0.1310 -0.0568
94084W        W37075   5.322   9.301  23.418 -0.0626  0.0417  0.3179
94085W        W37076   4.848  18.257   4.319 -0.1791  0.0085  0.0926
94086W        W37077  27.814  30.380  27.994  0.1321  0.1076  0.1858
94087W        W37078   8.950  26.029  10.847 -0.2192 -0.3865 -0.1742
94088W        W37079  16.643  25.254   4.429 -0.2700  0.0102  0.1045
94089W        W37080  17.931  28.968  21.669 -0.0423  0.0678  0.0652
94090W        W37081  32.452  16.866   0.485 -0.2260  0.4809 -0.0346
94091W        W37082  19.445  28.162   5.005  0.1434 -0.3937  0.4609
94092W        W37083  12.481  21.149  16.162 -0.0266 -0.0306  0.0919
94093W        W37084   3.708   5.820   1.643  0.1210  0.1195 -0.0685
94094W        W37085   1.140  29.817  17.039  0.2120 -0.1703 -0.0104
94095W        W37086  17.415  18.356  27.732 -0.0779 -0.0153 -0.0969
94096W        W37087   8.419  19.318   6.941 -0.1823 -0.0856  0.0045
94097W        W37088   4.068  23.363   3.955 -0.2624 -0.1761 -0.0796
94098W        W37089   3.304  24.740  18.789  0.2133 -0.0462  0.1946
94099W        W37090  31.988  19.094   1.894  0.2315  0.0668  0.1273
94100W        W37091  15.308  20.314  23.988  0.0945  0.2838  0.3494
94101W        W37092   6.340  31.962   5.777  0.0966  0.0177 -0.0670
94102W        W37093  14.481   4.212  10.201 -0.0721  0.1433  0.0107
94103W        W37094  23.099  22.006   2.530  0.1257  0.1995  0.0309
94104W        W37095  14.198  24.019  27.819 -0.1562 -0.1231 -0.1187
94105W        W37096   5.128   5.239   2.928  0.1500  0.0894  0.2906
94106W        W37097  19.357  21.184   1.410  0.0968  0.0587  0.2424
94107W        W37098   9.205  13.799  10.530 -0.1484  0.0732 -0.2588
94108W        W37099  14.532  30.455  17.285 -0.1900  0.2358  0.0504
94109W        W37100  17.873  20.345  28.469 -0.1015  0.0489  0.1111
94110W        W37101   3.185  14.766  10.126 -0.0994  0.0097  0.4176
94111W        W37102  11.427  21.268  26.938  0.0940 -0.1133 -0.0335
94112W        W37103  21.982  30.775  19.947  0.0634  0.1354 -0.2124
94113W        W37104   7.926  20.070  28.147  0.0941  0.0832 -0.1099
94114W        W37105  10.473  26.768  21.072 -0.0450 -0.2081 -0.0103
94115W        W37106  31.651  32.100   0.088 -0.1459 -0.1433 -0.2230
94116W        W37107  21.072  31.558   0.893  0.3840  0.1821  0.1408
94117W        W37108   8.275   4.340   0.450 -0.2389 -0.0754 -0.2235
94118W        W37109  12.344  23.030  18.974 -0.3518  0.2737  0.2021
94119W        W37110  29.090  18.545   6.944 -0.1056 -0.0067 -0.3333
94120W        W37111  24.130  25.044   6.569  0.3413 -0.3413  0.2844
94121W        W37112  13.052  17.014   3.255  0.1098 -0.0907  0.0922
94122W        W37113   3.310   0.711   2.317 -0.0253 -0.3841  0.3119
94123W        W37114  15.168  20.081   1.864  0.0385  0.0210 -0.2270
94124W        W37115  17.347  23.729   3.651 -0.2192  0.2108 -0.0382
94125W        W37116  33.588  27.643  28.471 -0.4030 -0.0672  0.0969
94126W        W37117  34.740  34.570  18.217 -0.1205 -0.3807 -0.3361
94127W        W37118  16.061  21.658   8.652 -0.0404 -0.0510 -0.2045
94128W        W37119  21.761  11.111   0.062  0.2334  0.0007  0.1646
94129W        W37120   5.586  13.037   0.204  0.0167 -0.3902 -0.3769
94130W        W37121   5.083  26.573   5.452 -0.0234  0.0893 -0.0763
94131W        W37122  26.022  29.835  24.692  0.0768  0.0940  0.0569
94132W        W37123  17.041  34.298   8.963 -0.2296 -0.1608 -0.0296
94133W        W37124   1.470  26.862  24.613 -0.1702 -0.0210  0.1756
94134W        W37125  11.404  12.689  24.745 -0.1386 -0.2393  0.0669
94135W        W37126  34.472   2.523   7.269 -0.1284 -0.1392 -0.0147
94136W        W37127   2.486  33.654   5.189 -0.1862 -0.0606 -0.1076
94137W        W37128  24.824  12.595  20.336  0.3189  0.0659 -0.0489
94138W        W37129   4.010  30.032   0.472  0.0285 -0.3168 -0.4350
94139W        W37130  11.085  15.639  10.329  0.0118  0.2395  0.0746
94140W        W37131   4.879  23.467  24.991  0.1266 -0.0260  0.0008
94141W        W37132  24.869  30.201   3.194 -0.2252  0.0897 -0.0176
94142W        W37133  14.869  24.097   1.385  0.0774  0.0185  0.1918
94143W        W37134  17.467  20.275  24.878 -0.0444  0.0171  0.2186
94144W        W37135  24.331   5.587   5.632 -0.0877 -0.3947  0.0272
94145W        W37136   0.447  19.599  28.033  0.1559 -0.1280 -0.1570
94146W        W37137   7.394  24.757  28.616 -0.0343 -0.0313 -0.0242
94147W        W37138   1.990  32.467  23.980  0.0266 -0.0771 -0.0785
94148W        W37139  32.723  32.254   7.378 -0.3773  0.2821 -0.3341
94149W        W37140  15.175  20.734   8.598  0.1947  0.0261  0.0343
94150W        W37141  18.295  19.371   3.676 -0.1673  0.2282 -0.2153
94151W        W37142  12.430  20.479   1.850  0.2242  0.1704  0.1777
94152W        W37143   0.882  18.870   7.057  0.4135 -0.1948 -0.1932
94153W        W37144  22.458  16.818  26.491  0.1778  0.1825 -0.0770
94154W        W37145   9.542  33.893   8.611 -0.0536  0.0327 -0.1803
94155W        W37146  11.194  23.643  17.358 -0.1131  0.0405 -0.3161
94156W        W37147   5.230  29.698   5.603 -0.2382 -0.0180  0.1575
94157W        W37148  33.454  29.248  25.618 -0.1917  0.1103  0.1241
94158W        W37149   3.392  17.691   4.882  0.0392 -0.1502 -0.2107
94159W        W37150  16.421  21.492   6.997  0.1871  0.2250  0.2064
94160W        W37151   2.405  31.605   4.046 -0.0803 -0.0119  0.3118
94161W        W37152  15.651  14.693   7.819 -0.5017  0.0278  0.0905
94162W        W37153  17.559  13.000  21.274 -0.1151  0.1838 -0.1077
94163W        W37154  16.050  28.603   6.511 -0.0031  0.1589 -0.0224
94164W        W37155  15.301  30.526   6.086  0.2543  0.1117  0.0666
94165W        W37156  21.842  17.460   6.413 -0.1014  0.0546  0.3011
94166W        W37157   6.539  30.079  26.385 -0.1227 -0.1252  0.0496
94167W        W37158   6.702  25.780   9.502 -0.3643  0.0376  0.5463
94168W        W37159   1.164   6.067   5.475 -0.0625 -0.1259  0.0596
94169W        W37160   2.878  17.886  22.084 -0.2940 -0.3641 -0.2170
94170W        W37161  31.733  13.651  18.879 -0.1475 -0.0906  0.0140
94171W        W37162  23.794   7.960   6.776 -0.2534  0.2231 -0.0934
94172W        W37163  21.076  26.901  20.458  0.0781 -0.0874 -0.1065
94173W        W37164  14.610  17.230  29.246  0.2649  0.0020 -0.2787
94174W        W37165  33.143  26.032   4.253 -0.0632 -0.1850 -0.0141
94175W        W37166  13.218  14.567   9.967  0.1710  0.0385  0.0905
94176W        W37167  11.571  18.050  16.350 -0.0500 -0.0261 -0.1581
94177W        W37168  28.230   9.097   6.957 -0.2218 -0.0914  0.2772
94178W        W37169  13.541  28.002  26.121  0.2935  0.0041  0.0362
94179W        W37170   2.368  30.960  17.266  0.0634  0.1305  0.0341
94180W        W37171   4.392  13.410  11.872 -0.0755  0.0505  0.0333
94181W        W37172   3.872  14.265   7.184  0.4642  0.3524  0.0843
94182W        W37173  28.321  20.890   3.930  0.0998 -0.1655  0.1719
94183W        W37174   4.939  33.327   2.962  0.1082  0.0793 -0.1818
94184W        W37175   1.780   8.569  24.568 -0.2212  0.0679  0.0643
94185W        W37176   3.100  20.562  26.647  0.0163 -0.1492 -0.0078
94186W        W37177  25.482   1.943   2.035  0.1133  0.1415  0.1361
94187W        W37178  33.547  20.110   8.136 -0.1962 -0.1467  0.1744
94188W        W37179  15.415  19.285   6.716 -0.0220  0.2107  0.1837
94189W        W37180  16.477   5.658  10.378 -0.1696 -0.0564 -0.2795
94190W        W37181   8.129  24.297  25.000  0.1209  0.2217  0.1836
94191W        W37182  25.066  17.646   7.385 -0.0021 -0.3326 -0.0146
94192W        W37183  17.928  30.672   1.266  0.2435 -0.1329 -0.1107
94193W        W37184   2.916  16.960  27.041  0.0364  0.2618  0.0519
94194W        W37185  20.778  18.554   1.175 -0.0965  0.0598  0.0754
94195W        W37186  14.135  32.899   4.493 -0.1646 -0.1274 -0.0011
94196W        W37187  12.169  22.156   4.032 -0.2108 -0.2324 -0.0085
94197W        W37188  34.350  24.680   9.470 -0.0030 -0.1259  0.2522
94198W        W37189   4.382  16.192  23.942 -0.0619 -0.0390  0.1958
94199W        W37190   1.317  27.857  28.941 -0.1384 -0.1628  0.0254
94200W        W37191  17.107  23.414   5.225 -0.1211  0.0146  0.3073
94201W        W37192   2.473   0.839   6.816  0.0958 -0.1373  0.1055
94202W        W37193  33.634  34.524  27.760 -0.3529 -0.1716 -0.0401
94203W        W37194  22.781  25.804  17.680  0.1373  0.0441 -0.3739
94204W        W37195  13.068   0.804  11.011 -0.0037  0.2161 -0.4615
94205W        W37196  24.156   3.578   4.833 -0.3422 -0.0827  0.0773
94206W        W37197   6.071  26.337   8.641 -0.0963 -0.0483 -0.0165
94207W        W37198   9.744  17.180  20.600 -0.0537 -0.3000 -0.1837
94208W        W37199  13.333  12.019  20.431 -0.2943  0.1234  0.2001
94209W        W37200   2.858  27.858   1.842 -0.0293  0.0100 -0.3049
94210W        W37201  13.742   6.660  24.451 -0.1064 -0.2422 -0.1540
94211W        W37202  27.654  20.237  19.718 -0.2201  0.1507 -0.2959
94212W        W37203  27.794  12.948  26.571 -0.1630  0.0285  0.4746
94213W        W37204   6.355  15.773  27.868  0.1317 -0.0589 -0.1123
94214W        W37205   7.508  30.915  26.390 -0.0065  0.0983  0.2776
94215W        W37206   2.571  19.021   4.739 -0.0123  0.3385 -0.2531
94216W        W37207  29.649  32.551   1.708 -0.0000 -0.0158 -0.2286
94217W        W37208   1.427  22.161   5.905  0.1061 -0.2872  0.1562
94218W        W37209  12.677  23.603   7.518 -0.2261 -0.2006 -0.2966
94219W        W37210  12.121   8.146  28.573  0.1683 -0.0090 -0.1151
94220W        W37211  11.480  20.028  26.715 -0.0528  0.0153  0.0118
94221W        W37212  24.622   1.361  22.848 -0.3154  0.3230 -0.0309
94222W        W37213   8.365  30.232   1.050  0.1129  0.0228  0.0293
94223W        W37214  22.081   7.144   6.990 -0.0352  0.0190 -0.0145
94224W        W37215   9.622  16.702  14.811  0.0234 -0.3842  0.2975
94225W        W37216  11.978  20.654   9.309 -0.0143  0.0394  0.1846
94226W        W37217  17.830   2.381   7.822  0.1240 -0.1999  0.1334
94227W        W37218   5.681  22.257   5.971  0.0121  0.1899 -0.0258
94228W        W37219  14.203  20.439  25.374 -0.2071 -0.2171 -0.1392
94229W        W37220  33.249  27.880  16.248 -0.3484  0.0567  0.4456
94230W        W37221  29.576   1.522  16.089  0.2903  0.1378  0.0539
94231W        W37222  30.582  23.019  20.873 -0.2509 -0.0764  0.1819
94232W        W37223  29.917  27.646   4.747  0.3030 -0.2553  0.0398
94233W        W37224  17.288  28.851   4.493 -0.0040 -0.3047  0.0275
94234W        W37225  19.081  34.687   2.256  0.1867 -0.2055 -0.0099
94235W        W37226  20.896  26.368  27.316  0.1371 -0.3777 -0.3116
94236W        W37227   1.698  20.695   1.665 -0.0693  0.4481 -0.1499
94237W        W37228   5.506  22.149   0.279 -0.2497  0.1978 -0.0699
94238W        W37229   2.086  12.234  10.805  0.1400 -0.1800 -0.0781
94239W        W37230   3.414  24.610   6.935 -0.0965  0.0130 -0.3718
94240W        W37231  14.973  25.641   6.397  0.1272  0.0205 -0.3707
94241W        W37232   6.352  12.713   9.346 -0.1233  0.0318  0.0754
94242W        W37233   2.949  14.521   6.832 -0.2299 -0.1302 -0.1645
94243W        W37234  30.975  22.810  26.991 -0.1300  0.0034 -0.0526
94244W        W37235  17.222  28.112  20.475 -0.3032 -0.2399 -0.2920
94245W        W37236  14.586  34.481   7.703  0.2247  0.2477  0.0081
94246W        W37237   6.860  17.467   6.140 -0.0726 -0.0890  0.3354
94247W        W37238   6.676  24.236  22.403 -0.2720 -0.1737  0.0457
94248W        W37239  26.683  20.383  23.531  0.0981  0.1459 -0.0697
94249W        W37240  24.611   5.456  27.782 -0.1999 -0.2493 -0.1117
94250W        W37241  27.432  19.707   8.449 -0.0880 -0.2860  0.2412
94251W        W37242  18.456  20.327  19.085 -0.0744  0.1353  0.0860
94252W        W37243   8.509  25.305   2.807  0.2376 -0.0748  0.1274
94253W        W37244  23.382  26.454   3.284 -0.0588 -0.1811  0.2254
94254W        W37245   7.348  26.791  24.839 -0.0081 -0.0153 -0.3630
94255W        W37246  11.285  23.261   1.361  0.2292  0.1339  0.2563
94256W        W37247   2.717   1.745  24.581 -0.1244 -0.0930 -0.1438
94257W        W37248  18.738  11.396   7.114 -0.1014 -0.0988 -0.0411
94258W        W37249  14.769  24.444  29.052 -0.0168 -0.0031  0.0056
94259W        W37250  33.267  17.213  10.353  0.1010  0.2236  0.0553
94260W        W37251  27.351  19.319   7.320 -0.2261 -0.0585  0.1161
94261W        W37252  31.439  29.153   6.163  0.2409 -0.4536 -0.3329
94262W        W37253   7.242  28.693  19.005  0.2914  0.0410  0.3157
94263W        W37254   9.057  22.893   0.797 -0.0327  0.1516  0.1956
94264W        W37255  20.122  21.634  22.568  0.3028 -0.1392 -0.0083
94265W        W37256  17.631  18.847   2.027 -0.1709  0.1250  0.1503
94266W        W37257  28.468   3.228  22.838  0.6320  0.0260 -0.0017
94267W        W37258   4.486   8.162   9.533  0.3315  0.0709  0.1666
94268W        W37259  22.525  30.763  16.746 -0.0036 -0.2959  0.1984
94269W        W37260   5.683  21.539  18.416 -0.2226  0.0047 -0.1427
94270W        W37261   8.133  14.585   1.140 -0.2274  0.1704  0.0158
94271W        W37262  16.993  24.736  22.719 -0.0415 -0.2732 -0.1485
94272W        W37263   2.437  21.747  15.495 -0.0021 -0.2450 -0.0286
94273W        W37264  12.865  17.573   8.316 -0.0887 -0.1345  0.2345
94274W        W37265  22.194  31.356  29.097  0.1825  0.1618 -0.3522
94275W        W37266  14.027  12.470  25.631  0.0117  0.3230 -0.1377
94276W        W37267   6.730  21.963  17.724  0.1933 -0.0011  0.0505
94277W        W37268  12.769  31.182   4.259  0.2477 -0.0784 -0.1939
94278W        W37269  13.182  21.674   5.556  0.0957  0.2157  0.0021
94279W        W37270  14.676  18.171  28.862 -0.1317  0.0010 -0.1168
94280W        W37271  24.727  17.483   7.756  0.0544 -0.2805 -0.1611
94281W        W37272  19.078  20.106   5.225 -0.0687 -0.4265  0.3277
94282W        W37273   8.511  17.468  18.061  0.4682 -0.2351 -0.3960
94283W        W37274  23.364  21.480   8.108 -0.0436 -0.0662 -0.0607
94284W        W37275   6.792  30.488   4.840  0.3589 -0.1473 -0.2874
94285W        W37276  13.650   4.678   7.406 -0.1402 -0.2860  0.0588
94286W        W37277   4.520  13.863  29.217 -0.1806 -0.0753 -0.0317
94287W        W37278  24.201  24.035  23.491 -0.0204 -0.2864  0.5841
94288W        W37279   4.319  14.127   3.966 -0.0244  0.1153 -0.1651
94289W        W37280   2.003  32.527  28.793  0.0784  0.1735 -0.1741
94290W        W37281  18.471  12.112  20.009  0.0183 -0.1479  0.0519
94291W        W37282   7.915  21.237   5.713  0.0127 -0.0346 -0.4145
94292W        W37283  11.429  20.457   5.831 -0.1898  0.2082  0.0661
94293W        W37284  23.910  11.526  26.892 -0.2208 -0.2176  0.2024
94294W        W37285  34.196  14.675  10.597 -0.1227 -0.1680 -0.1844
94295W        W37286  21.094  20.587   7.431  0.0253  0.2419  0.0731
94296W        W37287  10.521  11.137  28.706 -0.0877  0.1872 -0.1868
94297W        W37288  24.601  18.487  20.619  0.0113 -0.2386 -0.2973
94298W        W37289   2.785   6.153   0.966 -0.2026  0.1955 -0.1642
94299W        W37290  10.198  31.139   2.199 -0.0353 -0.2564 -0.3187
94300W        W37291  24.748  24.580   6.000 -0.2999 -0.1486 -0.1338
94301W        W37292  14.617  12.991   7.927 -0.3139 -0.2329 -0.2252
94302W        W37293  15.028  23.276  28.406  0.1905  0.0625  0.1754
94303W        W37294  19.895  33.676   8.192  0.1528  0.0336  0.0744
94304W        W37295  30.310  17.778   9.686  0.3148  0.0272 -0.0869
94305W        W37296  28.858  34.466  19.870  0.2142  0.2905  0.0959
94306W        W37297   7.105  34.701  21.894  0.2463  0.2257  0.2655
94307W        W37298  23.666  27.162  16.786  0.2764  0.1565 -0.0337
94308W        W37299   3.695  18.789   4.845 -0.1479 -0.1855 -0.0719
94309W        W37300   5.258   3.198   9.654 -0.0534  0.2149  0.2834
94310W        W37301  17.900  22.806  27.485  0.3308  0.3035  0.3752
94311W        W37302  23.830  14.121   9.715  0.0235  0.3154 -0.2602
94312W        W37303  18.360   8.986  26.178  0.0504 -0.1348  0.2721
94313W        W37304  15.707  26.914  28.278  0.1115  0.2335  0.0391
94314W        W37305  10.975  21.798   9.072 -0.1223 -0.2553 -0.1087
94315W        W37306  11.049   2.776  22.802 -0.0624 -0.1177  0.0656
94316W        W37307  22.962  22.627   4.161 -0.2762  0.0346  0.0628
94317W        W37308  16.583  22.091  24.516 -0.2432  0.4061 -0.0736
94318W        W37309  29.634  16.279   4.771 -0.1155 -0.0283 -0.1373
94319W        W37310   4.257   2.498  17.133 -0.3061  0.2147 -0.0339
94320W        W37311   6.815   2.800   6.522 -0.1799  0.2324 -0.0673
94321W        W37312  17.382  25.554  28.693 -0.4064 -0.1500  0.1694
94322W        W37313  19.521   7.158   7.521 -0.0296  0.0970 -0.0373
94323W        W37314  17.260  29.693   6.502  0.0088 -0.1771 -0.1984
94324W        W37315  30.818   2.057   3.222  0.1380 -0.0670 -0.4856
94325W        W37316  17.930  24.997  27.878 -0.3703 -0.1128  0.2863
94326W        W37317   2.311  25.887   8.527 -0.1801 -0.1088 -0.0654
94327W        W37318  28.835  24.732   0.155 -0.1394  0.0087 -0.2045
94328W        W37319  24.247  21.829   0.055 -0.0871 -0.0263 -0.2103
94329W        W37320   2.300  34.155   7.979  0.0977  0.0427 -0.2070
94330W        W37321   0.742  10.687   0.821 -0.4402  0.1045 -0.1197
94331W        W37322   1.756   4.044   2.373  0.2635 -0.1617  0.1031
94332W        W37323   2.961   6.468  10.278  0.1405 -0.0203 -0.0757
94333W        W37324  19.537   4.032   2.469 -0.1377 -0.1379 -0.3442
94334W        W37325  14.017  24.776  20.936  0.0464 -0.0461 -0.3942
94335W        W37326  16.390  12.231  23.385  0.3155 -0.2681  0.0843
94336W        W37327   2.046   2.029  20.648  0.0440 -0.0680 -0.0528
94337W        W37328   7.953  13.818   0.032 -0.2178  0.3125 -0.1079
94338W        W37329   9.178  28.558   8.950 -0.3369  0.0018 -0.1491
94339W        W37330  11.183  12.189  20.860  0.0926 -0.1301 -0.0284
94340W        W37331  14.876  12.060  16.432 -0.1313  0.1504  0.0912
94341W        W37332   9.647  23.028   2.550  0.3690 -0.4131  0.0364
94342W        W37333  10.696  21.720   7.557 -0.1545  0.2250 -0.1932
94343W        W37334  18.192  27.114   2.500 -0.5219 -0.1636  0.0694
94344W        W37335   4.628  26.426   3.482  0.0412 -0.0266 -0.0148
94345W        W37336  12.617  18.088   2.669 -0.0706 -0.1043  0.3546
94346W        W37337  34.714  16.847   7.775 -0.0886  0.3188  0.1072
94347W        W37338  20.692  21.200  17.183  0.1106  0.0551  0.1069
94348W        W37339  11.867  21.389   3.964  0.3738 -0.2856 -0.0922
94349W        W37340   2.397  17.987   9.153  0.1470 -0.2304 -0.0771
94350W        W37341  21.068  15.080   4.872  0.2148  0.1790  0.1768
94351W        W37342  24.610   0.816  27.881  0.3441  0.0216 -0.0418
94352W        W37343   0.017  28.476  28.811 -0.0585 -0.0350 -0.1158
94353W        W37344   2.331  23.846  15.127  0.2455  0.0341 -0.0287
94354W        W37345  23.021  25.185   5.008  0.4092 -0.0404 -0.2785
94355W        W37346  18.674  28.357  27.387 -0.1531 -0.0138  0.1948
94356W        W37347  19.731  25.707  13.544 -0.2652 -0.3212  0.1387
94357W        W37348  27.216  16.476  23.056 -0.1947  0.1920 -0.0916
94358W        W37349  12.895  18.470  28.103 -0.1021  0.1199 -0.1980
94359W        W37350  25.363  24.361   8.107  0.2999  0.1395  0.0522
94360W        W37351   5.424  26.647  27.801  0.0702  0.1747 -0.1789
94361W        W37352  11.943  13.717  26.401  0.0337  0.2420  0.0967
94362W        W37353  17.610  33.059  25.180 -0.1536  0.1810 -0.2663
94363W        W37354   6.577  26.657   6.778  0.0811 -0.2931  0.1616
94364W        W37355  12.329  20.614   0.917 -0.1879 -0.1517 -0.2449
94365W        W37356  11.623  28.936   1.199  0.1262  0.1148 -0.1744
94366W        W37357   5.135  32.366   2.157  0.1578 -0.1106 -0.0018
94367W        W37358  33.155  21.885   9.778  0.0375 -0.2290 -0.0694
94368W        W37359  17.519  20.707  20.036  0.0402 -0.3340 -0.3841
94369W        W37360   9.591  32.284   4.357  0.2221  0.2412 -0.4204
94370W        W37361  19.829  17.919   5.498  0.0857  0.1224 -0.0634
94371W        W37362   4.600   5.675  25.390 -0.1208  0.1192  0.1043
94372W        W37363  10.973   4.060  23.372 -0.1188  0.1475  0.2444
94373W        W37364  18.505  11.717   8.315  0.2030  0.0443 -0.0279
94374W        W37365  12.465  21.074   6.771  0.2239  0.0119  0.1138
94375W        W37366  21.492  21.197  22.416  0.1156  0.1648  0.6283
94376W        W37367  25.408  17.035   6.062 -0.0978 -0.1056 -0.3496
94377W        W37368   9.204   2.204  25.393 -0.0891 -0.0786  0.0562
94378W        W37369  11.070  24.629   0.955  0.2472 -0.1165  0.1074
94379W        W37370   9.040  22.780  21.969 -0.0340 -0.1245 -0.0528
94380W        W37371   2.895   0.998   3.208  0.0977 -0.1134 -0.1038
94381W        W37372   5.882  29.685  26.701 -0.2620  0.1976 -0.1470
94382W        W37373   6.360  22.138  10.240  0.0250  0.1389  0.0118
94383W        W37374  12.784  18.152   2.167 -0.0683 -0.4131  0.1444
94384W        W37375  33.693  26.225  16.917  0.1211  0.1919 -0.1317
94385W        W37376  23.894  30.909  26.404 -0.2123  0.2055 -0.2385
94386W        W37377  12.999  11.533  27.786 -0.2656  0.2653  0.2234
94387W        W37378  12.052  14.759  21.780 -0.3547  0.1978 -0.1735
94388W        W37379  12.624  21.907  27.563 -0.1074  0.0331 -0.1659
94389W        W37380   6.843  15.168  25.884 -0.3089 -0.1512  0.0726
94390W        W37381  18.269  32.401  22.977 -0.1663  0.1755  0.4445
94391W        W37382  18.237  22.308  20.271  0.4339  0.1522  0.2250
94392W        W37383   1.488   7.305  28.236 -0.2031  0.3053 -0.1021
94393W        W37384   9.135  29.442   6.437 -0.1763  0.1520  0.3234
94394W        W37385  15.029  14.786  25.323  0.0243  0.0420  0.0285
94395W        W37386   4.519  27.619  28.399 -0.0011 -0.2052 -0.1329
94396W        W37387  12.166  20.251   3.270 -0.0131 -0.0229  0.1730
94397W        W37388   9.496   2.420   8.768  0.2099 -0.0440 -0.0161
94398W        W37389   6.673  13.552  23.517  0.2341  0.0553 -0.1964
94399W        W37390  19.564  29.357   9.076  0.0187 -0.1561 -0.0383
94400W        W37391  18.107  32.956  21.272  0.0521  0.1051 -0.3454
94401W        W37392  11.490  25.536  10.255  0.2589  0.1286 -0.0867
94402W        W37393  20.755   2.178   8.158 -0.2691 -0.1360  0.0947
94403W        W37394  16.482  29.754   3.241  0.0557 -0.1700  0.1683
94404W        W37395  33.876   2.809  28.720 -0.0439  0.4226  0.0278
94405W        W37396  11.061  27.638  29.245 -0.0229  0.1988 -0.0841
94406W        W37397   3.043  26.953  27.530  0.1700  0.0935 -0.4227
94407W        W37398  11.368   7.377  26.567 -0.3368 -0.0898  0.3038
94408W        W37399  13.798  17.723   7.887  0.0442  0.0643  0.1459
94409W        W37400  16.802  26.313   9.464  0.0172  0.2894  0.0737
94410W        W37401   5.971  17.102  22.920  0.1267 -0.3373  0.1002
94411W        W37402   4.964  22.143   2.115 -0.2074  0.0425 -0.0261
94412W        W37403   4.027  21.463   2.794 -0.0735  0.3153 -0.0935
94413W        W37404  12.995  30.284   9.928  0.0867  0.1723 -0.1259
94414W        W37405  12.836   9.621   8.042 -0.1258  0.1823  0.3003
94415W        W37406   8.519  18.854   1.016 -0.0895 -0.1695 -0.0445
94416W        W37407   9.349  24.115   6.027 -0.0528  0.0743  0.2223
94417W        W37408  18.007  19.857  23.688 -0.0665  0.1012  0.2595
94418W        W37409  31.322  29.797  26.829  0.1451 -0.2501 -0.1435
94419W        W37410  20.899  29.149   7.010 -0.0142  0.2308 -0.1703
94420W        W37411  24.526   8.981   0.228 -0.2900 -0.3258 -0.1500
94421W        W37412  29.718  19.436   8.564 -0.2023 -0.1216  0.0861
94422W        W37413   7.984  18.871   4.145  0.3477  0.2274  0.1512
94423W        W37414   7.271   6.706   7.191  0.0131 -0.2894  0.0072
94424W        W37415  28.450  34.761  23.065 -0.2073  0.0957 -0.1107
94425W        W37416   7.950  22.228   8.793 -0.0123 -0.0553 -0.1333
94426W        W37417  11.860  26.606   9.540 -0.1544 -0.0508 -0.1263
94427W        W37418  18.171  15.802   2.459  0.4007  0.2699 -0.1623
94428W        W37419  18.141  21.971  26.732 -0.2290  0.0641 -0.2757
94429W        W37420  12.667  17.347   1.250  0.1027 -0.3960 -0.4262
94430W        W37421  19.004  19.050   1.189 -0.0641 -0.1317  0.3594
94431W        W37422   4.699  33.358  26.584 -0.1545 -0.0639  0.0927
94432W        W37423  21.689   1.030   6.835 -0.1314 -0.1343  0.2106
94433W        W37424   0.244   6.179   7.559 -0.0495 -0.0268 -0.0594
94434W        W37425   4.781  34.149  27.091  0.0906 -0.3532 -0.1094
94435W        W37426   3.658  20.859   5.838 -0.1181 -0.1044 -0.0544
94436W        W37427   2.886  28.785   8.608 -0.0361  0.1687  0.2359
94437W        W37428  12.943  11.192  24.340 -0.0770  0.2838 -0.0043
94438W        W37429  14.418  26.575   1.170  0.2340 -0.1164 -0.0721
94439W        W37430   2.229   1.841   6.977 -0.0371  0.1069  0.2942
94440W        W37431   8.129  19.886  26.661  0.0050  0.2900 -0.0167
94441W        W37432   3.037   3.841  26.138 -0.0220 -0.0238  0.0346
94442W        W37433   2.091  23.566   7.544  0.0526 -0.4572  0.2911
94443W        W37434  34.289  21.127   6.059  0.0553 -0.1102 -0.1567
94444W        W37435   5.720  23.947   2.413  0.1771 -0.0987  0.1628
94445W        W37436  22.677  15.983  26.022 -0.0901  0.0840  0.2086
94446W        W37437  18.540  11.083   9.500  0.1372  0.3201 -0.3123
94447W        W37438  23.565  16.026   8.165 -0.1688  0.0067  0.0653
94448W        W37439  14.301   9.629   8.416  0.3349  0.2023  0.0867
94449W        W37440  33.818  10.511  26.686 -0.0702  0.0738 -0.0095
94450W        W37441   2.841  16.402   8.482 -0.4175 -0.3967  0.0269
94451W        W37442  14.034  18.178   5.191 -0.3235 -0.0054 -0.0596
94452W        W37443  16.948  15.490   3.935 -0.2618 -0.0282 -0.1126
94453W        W37444  34.368  17.981   4.079  0.2111 -0.0559  0.3752
94454W        W37445  24.392  30.725  27.023  0.0216 -0.1866  0.1328
94455W        W37446  17.043  19.880   6.879  0.0470 -0.0495 -0.0726
94456W        W37447   7.897  31.115  22.469  0.1800  0.0869 -0.1134
94457W        W37448  15.274  24.839   7.491  0.2122  0.1710 -0.3249
94458W        W37449   4.206  13.923  10.207  0.1779  0.2376 -0.0294
94459W        W37450  27.226  23.539   4.256 -0.0082 -0.0898  0.3031
94460W        W37451  11.631  32.271  21.890 -0.2254 -0.2466  0.3955
94461W        W37452  14.210  26.503  24.552  0.0221 -0.1717 -0.0817
94462W        W37453   5.119  27.819   2.811 -0.1006 -0.4000 -0.0555
94463W        W37454   6.861  17.811   4.365  0.1172  0.2498  0.1111
94464W        W37455   9.784  25.948   9.907 -0.2822 -0.1865  0.1548
94465W        W37456  12.564  33.954   9.862 -0.0050  0.1250 -0.1350
94466W        W37457  29.380  33.072   3.157  0.0564  0.0868  0.0213
94467W        W37458  22.794   2.629  15.561  0.3405  0.1413 -0.0909
94468W        W37459  12.430  22.100   3.522 -0.2152 -0.0754  0.1102
94469W        W37460  32.191  21.114   8.974 -0.2017  0.0496  0.1055
94470W        W37461  18.895  24.550   4.480  0.0432 -0.0919  0.3500
94471W        W37462  15.351   5.108  14.776  0.1615 -0.0969  0.0023
94472W        W37463  13.417  28.648   8.889 -0.2166  0.1821  0.0942
94473W        W37464   8.799  26.859   2.876 -0.0708  0.1165  0.3457
94474W        W37465  28.144  25.751   6.197 -0.0610  0.1364 -0.0758
94475W        W37466  12.545  32.624   8.110 -0.2741 -0.1281 -0.1833
94476W        W37467   1.065  18.479   5.835  0.0039  0.1174  0.0305
94477W        W37468  25.859   4.637  22.256  0.1300 -0.1101  0.4001
94478W        W37469  23.859  15.591   9.618  0.0059 -0.2640  0.0717
94479W        W37470  33.408   4.374   3.401 -0.0320 -0.1932  0.0716
94480W        W37471   5.506   1.618  23.588  0.1254 -0.1445 -0.1774
94481W        W37472   0.220   3.096  22.801  0.2608 -0.4164  0.0916
94482W        W37473  11.751  24.243   0.211 -0.1078 -0.2448  0.1993
94483W        W37474  12.462  30.395  22.063 -0.2621 -0.1889  0.3355
94484W        W37475  24.884  26.208   1.000 -0.0409  0.0092  0.1905
94485W        W37476  17.669  12.570  21.069 -0.1635  0.0983  0.0013
94486W        W37477   5.044  21.731   0.313  0.1265  0.0662 -0.2801
94487W        W37478   7.597  25.446  25.819  0.1595 -0.4960 -0.1753
94488W        W37479  10.134  23.129   6.924 -0.2047  0.1961 -0.0105
94489W        W37480   6.410  18.071   4.999  0.0783  0.1117  0.1006
94490W        W37481  31.992  21.069  28.022  0.0457  0.0191 -0.0423
94491W        W37482  18.524  20.538   6.266 -0.2785 -0.1026  0.2888
94492W        W37483  20.400  16.949   3.433  0.1024  0.3489  0.0320
94493W        W37484  13.142  26.805  22.762 -0.0022  0.0537  0.0278
94494W        W37485   4.212  11.191  25.763 -0.2411  0.0087 -0.0797
94495W        W37486  26.648  15.971   6.886  0.0983 -0.1331 -0.0134
94496W        W37487  13.841  25.030  28.617  0.2618 -0.1062 -0.0852
94497W        W37488   2.791  30.794  29.221 -0.0918 -0.0765 -0.1939
94498W        W37489  13.752  12.922  14.503 -0.0022 -0.2632  0.0587
94499W        W37490  11.068  22.658  26.640  0.0917  0.0466 -0.0391
94500W        W37491  19.732  21.437   3.793 -0.3635 -0.1498 -0.1206
94501W        W37492   7.569  33.384   7.571 -0.1592  0.2209  0.0812
94502W        W37493  10.252  11.838  10.494  0.3926  0.2687 -0.1167
94503W        W37494  20.783   0.612   7.576 -0.1349 -0.0220 -0.0574
94504W        W37495  24.852   0.560   0.663  0.0211 -0.0040  0.1578
94505W        W37496  34.205  29.453  27.177 -0.1337 -0.2284  0.3259
94506W        W37497  20.208  17.881   8.639 -0.1768  0.0392  0.1081
94507W        W37498   5.314  22.884  28.543  0.5471 -0.1224 -0.0093
94508W        W37499  17.680  29.084  15.878  0.0906  0.2461 -0.1567
94509W        W37500  14.601  11.826   6.501  0.2254 -0.2766 -0.0199
94510W        W37501  12.895  10.011   5.626  0.4146  0.1371  0.0249
94511W        W37502   7.819  31.577  17.206  0.2978  0.0963  0.0883
94512W        W37503  10.524  27.176  23.101  0.0775  0.3183 -0.0609
94513W        W37504   6.879  16.547   6.305  0.2894 -0.1944 -0.1808
94514W        W37505  14.412   2.469   0.719  0.1510 -0.1214 -0.0286
94515W        W37506   5.773  19.515   3.860 -0.1066  0.2253  0.0320
94516W        W37507  17.998  27.979   2.919  0.2263 -0.1507  0.2758
94517W        W37508   7.587  26.835   2.381 -0.2415 -0.1828 -0.1452
94518W        W37509  25.265  32.433   8.973  0.2493  0.1886 -0.0835
94519W        W37510  13.075  32.801   9.934 -0.0867 -0.2651  0.3115
94520W        W37511   9.533  26.022   9.459  0.2654  0.2197 -0.1471
94521W        W37512  18.598  20.700   1.062 -0.2173 -0.2220  0.1044
94522W        W37513  11.349  17.930   3.248 -0.1613  0.2806  0.0826
94523W        W37514  19.425  19.508  16.765  0.1533  0.1549 -0.2328
94524W        W37515  11.019  31.906   4.250  0.1326 -0.2110 -0.0460
94525W        W37516  12.253  24.933   7.583  0.1353  0.1385 -0.2166
94526W        W37517   2.098  14.128   9.759 -0.0480 -0.0754 -0.1619
94527W        W37518   7.951  22.664   5.799 -0.1776  0.0886 -0.0625
94528W        W37519   7.747  19.326   1.609  0.2032 -0.0014  0.1819
94529W        W37520  27.629  26.265  24.808 -0.2618  0.0752 -0.1935
94530W        W37521  29.562  30.996   2.967  0.4114 -0.0236 -0.1265
94531W        W37522  10.904   4.950  19.845 -0.3060 -0.0573 -0.2201
94532W        W37523  19.799  20.837  26.831 -0.0974  0.0683 -0.0720
94533W        W37524  17.750  14.310   3.277 -0.2477 -0.1120 -0.1362
94534W        W37525  17.719  19.680   6.657  0.4358  0.0199  0.0526
94535W        W37526  13.836  17.603  24.848 -0.1879  0.0010  0.0771
94536W        W37527  20.325  22.491   0.924 -0.3134  0.1163  0.0275
94537W        W37528   0.942  18.304   7.598  0.3351  0.0774 -0.1353
94538W        W37529  21.751  21.663   6.962  0.0164  0.1247 -0.0693
94539W        W37530  11.245  17.355  23.185 -0.0189  0.0203 -0.0830
94540W        W37531  10.408  24.220  10.538 -0.1980  0.2470 -0.1672
94541W        W37532  10.474  26.725  18.518 -0.2510  0.0559  0.1060
94542W        W37533   5.141  28.762   4.616  0.0350  0.1529  0.2585
94543W        W37534  20.401  28.223   3.652  0.2594 -0.0662  0.1241
94544W        W37535  19.512  33.267  22.211  0.1496 -0.2050 -0.0029
94545W        W37536   7.084   5.765   3.766  0.0151 -0.1232 -0.1605
94546W        W37537  18.792  31.335   3.011  0.1061  0.1164 -0.0195
94547W        W37538   9.196  25.356   7.821 -0.1269 -0.0993 -0.4543
94548W        W37539  17.192  27.573   1.617  0.2840 -0.0046 -0.2462
94549W        W37540   1.790  28.687   2.216  0.0597  0.0249  0.2210
94550W        W37541  16.271  12.581   8.886 -0.0563 -0.1018 -0.0523
94551W        W37542   9.352  12.664   8.407 -0.1459  0.1591 -0.0701
94552W        W37543  13.813  27.467  22.382 -0.4321  0.0173  0.0951
94553W        W37544  29.981  25.838   7.124 -0.0625 -0.0957  0.0566
94554W        W37545  28.532  34.338  27.190  0.1575  0.1828  0.3429
94555W        W37546   9.210  15.453   8.610 -0.0676 -0.1659  0.3249
94556W        W37547   8.887  13.375   6.649 -0.2426 -0.0081 -0.0532
94557W        W37548  25.982  25.093   3.724 -0.3482  0.2012 -0.0086
94558W        W37549  18.244  28.917   3.210 -0.2896  0.1393 -0.2089
94559W        W37550  21.509  25.754   5.626  0.1004  0.1046  0.0507
94560W        W37551   8.153  16.433   2.079  0.1037 -0.0962  0.2629
94561W        W37552   7.319  21.639   1.999  0.1548 -0.0837 -0.1099
94562W        W37553  16.022  29.710   0.792  0.5770 -0.1821  0.0010
94563W        W37554   8.118   2.065   5.688 -0.1686 -0.1138  0.1783
94564W        W37555   2.338  26.529  21.139 -0.1809 -0.0951  0.1456
94565W        W37556   9.833  30.456   9.322  0.2872 -0.0326 -0.0382
94566W        W37557  15.176  28.732   2.090 -0.1202  0.2399  0.0304
94567W        W37558  32.014  30.654   4.621 -0.1122 -0.1136  0.1333
94568W        W37559  31.771  19.486   8.394  0.0370 -0.0727 -0.2033
94569W        W37560  10.178  24.715  16.749 -0.0117 -0.2270 -0.2586
94570W        W37561   8.796  22.594   3.373  0.0681 -0.3790 -0.0978
94571W        W37562   1.503  20.466  10.062  0.1436 -0.0031  0.0891
94572W        W37563   5.007  17.772   2.078 -0.0133 -0.2040 -0.3480
94573W        W37564   5.022  34.213  26.262  0.0334  0.1014 -0.2089
94574W        W37565  31.074  26.908   3.643 -0.3025 -0.3558 -0.0470
94575W        W37566  18.744  16.555  24.389  0.3798 -0.0641 -0.3172
94576W        W37567  17.021  17.255   6.650  0.1906 -0.0497 -0.0314
94577W        W37568   0.422  17.268   5.738 -0.0444  0.1267 -0.0533
94578W        W37569  13.509  28.165   9.184  0.1001  0.0074  0.2982
94579W        W37570  29.718  18.984   6.643  0.0207  0.0911 -0.0106
94580W        W37571  33.815  17.831   8.986  0.1058 -0.1367  0.1712
94581W        W37572  12.577  29.784   4.329  0.3153 -0.1686  0.2083
94582W        W37573  16.536  32.841   5.692  0.1024  0.1178 -0.1770
94583W        W37574  25.308  15.568   0.429 -0.1952  0.0281  0.0217
94584W        W37575  20.801  19.611  23.652 -0.0631 -0.3134 -0.0869
94585W        W37576   5.272  21.670   3.156 -0.2180  0.0264  0.0726
94586W        W37577  12.240  23.907  14.976  0.0536 -0.1247  0.2095
94587W        W37578  28.405  24.275  23.531  0.1791  0.0260  0.0663
94588W        W37579  13.414   3.133  24.885  0.0664 -0.0105  0.0367
94589W        W37580   0.956   9.531  16.211 -0.1136 -0.1411 -0.1587
94590W        W37581   4.065  14.636  28.633  0.1272  0.0444  0.1632
94591W        W37582   6.567  19.714   8.327  0.0219 -0.1390 -0.2125
94592W        W37583  14.661  24.955   5.701  0.0218 -0.1422 -0.1507
94593W        W37584   1.819  24.900   3.405  0.0245 -0.1722 -0.1854
94594W        W37585  26.450  16.627   5.598 -0.0447 -0.2157  0.3394
94595W        W37586  11.900   0.064   3.996  0.0940 -0.0941  0.1253
94596W        W37587   6.260  28.286   7.263 -0.0437 -0.1338 -0.0385
94597W        W37588  11.082  17.874   4.981 -0.2145 -0.1401 -0.0000
94598W        W37589  17.596  21.680   6.029  0.1315 -0.0794  0.1247
94599W        W37590  15.537   4.599   4.959  0.0612  0.2056  0.3010
94600W        W37591   4.710  27.492  26.219  0.0050 -0.1609  0.0768
94601W        W37592  34.463  19.564   1.417 -0.2901 -0.1380 -0.1233
94602W        W37593   7.313  23.517   6.231 -0.3307  0.4346 -0.0689
94603W        W37594   9.710   8.003  21.591  0.2460 -0.3681  0.0310
94604W        W37595  18.666  16.488  25.976 -0.0262  0.0672 -0.4746
94605W        W37596  17.802  16.874   2.183  0.0925  0.0494  0.0702
94606W        W37597  25.109  29.240   8.593  0.4310  0.0001  0.3083
94607W        W37598   4.470   7.658  17.939 -0.2095  0.1200 -0.0106
94608W        W37599  25.328  23.851   3.817  0.0724 -0.0547  0.0302
94609W        W37600  10.186  30.624  16.095  0.1628 -0.2745 -0.0591
94610W        W37601   4.475  23.588   4.281 -0.0041  0.1073 -0.1895
94611W        W37602  10.281  33.295   5.337 -0.3111 -0.1234 -0.0230
94612W        W37603   9.860  23.676   3.395 -0.3409  0.2080 -0.3032
94613W        W37604  19.739  20.763   7.500  0.0290  0.0537  0.2391
94614W        W37605  19.081   0.754  26.697 -0.0784  0.1546  0.4033
94615W        W37606  16.061  29.091   4.113  0.0291 -0.1017  0.3022
94616W        W37607   7.739  20.764  20.984  0.1829  0.0693 -0.1956
94617W        W37608   5.805  26.247   1.185  0.1458 -0.0797  0.2384
94618W        W37609  13.380  19.973  24.367 -0.1450  0.0718 -0.1597
94619W        W37610  21.688   9.003  23.439 -0.0162  0.5696 -0.0624
94620W        W37611   7.773  18.914   9.516 -0.0166  0.2568 -0.0383
94621W        W37612   5.720  24.505   7.071 -0.0246  0.0366 -0.1221
94622W        W37613  23.418  21.530   2.719  0.0515 -0.1533 -0.2382
94623W        W37614  12.104  15.806   5.274  0.1153 -0.3086 -0.1223
94624W        W37615   4.051  30.535  24.962  0.1705 -0.4505  0.0596
94625W        W37616   9.716  24.749  25.553  0.0780  0.1426 -0.2094
94626W        W37617  31.247   9.522   8.740  0.0066 -0.0916  0.2894
94627W        W37618  10.032  25.712  23.713 -0.2764 -0.1880 -0.1131
94628W        W37619  25.041  18.595   0.861  0.2818  0.0939 -0.0596
94629W        W37620  33.256  15.936   9.587 -0.0196 -0.0080 -0.0072
94630W        W37621  26.023  15.551   9.196 -0.1514 -0.0856 -0.1165
94631W        W37622  15.112  31.831   9.189  0.1300 -0.3528 -0.1436
94632W        W37623   7.743  14.650  27.333 -0.1991  0.1976 -0.2428
94633W        W37624  29.172  25.580  17.244  0.2779 -0.1367 -0.0256
94634W        W37625  10.820   4.148   5.013  0.3110 -0.1034 -0.2244
94635W        W37626  16.028  26.869  17.314  0.1678 -0.2126 -0.1422
94636W        W37627   0.186   5.235   5.004  0.0145  0.1028 -0.3517
94637W        W37628   3.568  12.767   2.922  0.1974  0.1227 -0.0153
94638W        W37629  21.676  30.725   0.116 -0.0850  0.1627 -0.1123
94639W        W37630   4.781   5.948   7.468  0.0863  0.0161  0.0179
94640W        W37631   0.855  17.595  28.191  0.1355  0.0298 -0.1501
94641W        W37632  27.715  23.880  25.957 -0.0604  0.1781 -0.2396
94642W        W37633   3.587  21.720   7.701 -0.2863 -0.0152 -0.0846
94643W        W37634  19.530   9.775   9.939  0.0422  0.1703  0.1735
94644W        W37635  15.719  17.550   6.205  0.1819  0.2482  0.0735
94645W        W37636  23.228   4.092  25.228 -0.1895  0.0534  0.3459
94646W        W37637  16.220  21.938  29.061 -0.0402 -0.0539  0.2670
94647W        W37638  19.659  26.271  22.824 -0.0160 -0.0455 -0.1619
94648W        W37639   2.798  19.197  27.121  0.0681  0.0288 -0.4171
94649W        W37640   4.107  27.197  22.470 -0.1773 -0.2009  0.0210
94650W        W37641   6.365  19.382   4.101 -0.2448  0.2493 -0.1151
94651W        W37642  19.259  29.261   9.465 -0.3478  0.1587 -0.1528
94652W        W37643   7.471  12.724  15.685 -0.3047  0.2243 -0.0941
94653W        W37644  20.299  16.486  22.430 -0.2358 -0.3312  0.0046
94654W        W37645   6.953  22.292   2.415  0.1482  0.0267  0.0515
94655W        W37646   8.856   5.104  11.091  0.1806 -0.2261 -0.0853
94656W        W37647  18.963  19.287   4.626  0.1458 -0.1192  0.1726
94657W        W37648   8.557  16.479  23.748  0.2591  0.0376 -0.1049
94658W        W37649  17.794  12.760   9.030 -0.0051  0.1023  0.0948
94659W        W37650  29.211  16.694  10.211  0.0022 -0.1053 -0.0568
94660W        W37651  21.379  30.805  19.290 -0.0401  0.0849 -0.2790
94661W        W37652   3.607  19.434   5.623 -0.1558  0.0127 -0.3909
94662W        W37653   4.090  17.143   4.916 -0.1224 -0.1440 -0.0806
94663W        W37654  33.187  21.525   9.421 -0.1456 -0.2222  0.0925
94664W        W37655  14.495  18.864  26.665 -0.0151  0.0814  0.1739
94665W        W37656  22.141  26.075   6.944 -0.0203 -0.4929 -0.0947
94666W        W37657  12.290  14.301  16.397 -0.1857  0.0306  0.1626
94667W        W37658   7.436  22.137   9.552  0.3683 -0.3881 -0.2940
94668W        W37659  33.727  24.704   2.890  0.1526 -0.0385 -0.2571
94669W        W37660  25.873  10.021   1.028 -0.1487 -0.1029  0.3372
94670W        W37661  11.974  14.438   7.172  0.2982  0.2544 -0.1698
94671W        W37662  18.102  25.595   4.187  0.3333 -0.0452 -0.2425
94672W        W37663   5.576   3.866   5.686  0.3249 -0.2519 -0.1807
94673W        W37664  11.226  14.111  19.635  0.0463 -0.0327  0.1796
94674W        W37665  12.725  24.880   3.578  0.1008  0.2639  0.1141
94675W        W37666  13.707  24.311   4.454 -0.1472  0.1194 -0.1383
94676W        W37667   8.530  29.506  27.043  0.0400  0.0917 -0.1778
94677W        W37668  16.491  30.113  15.859 -0.3380 -0.0251 -0.0582
94678W        W37669   8.700   3.586   2.172  0.2054 -0.2479 -0.4488
94679W        W37670   7.803  33.130  27.016  0.0569  0.5060  0.2848
94680W        W37671  15.380   2.214  24.135 -0.2293 -0.0179  0.0261
94681W        W37672  10.919   0.599   0.095  0.1025 -0.1281  0.1156
94682W        W37673   4.354  32.406   8.747 -0.0159 -0.3098  0.2401
94683W        W37674   7.550  22.066   5.004  0.0834  0.0803  0.0549
94684W        W37675   1.114  18.027   4.494 -0.2493 -0.2708  0.2453
94685W        W37676   8.800   4.032   4.217  0.3592 -0.1806  0.0440
94686W        W37677   2.500  19.567   6.482 -0.1536  0.0299 -0.2666
94687W        W37678   5.751  13.862  27.318  0.2322 -0.0054 -0.2232
94688W        W37679   9.102  15.804  23.580 -0.0718  0.0263  0.0792
94689W        W37680   5.331  11.136   9.685  0.1793 -0.1701  0.2241
94690W        W37681  19.030  16.650  28.959  0.2376 -0.1758  0.0536
94691W        W37682   8.143  18.994   4.888  0.0400  0.0275 -0.1499
94692W        W37683  33.490  13.349   1.209  0.2153 -0.1011 -0.1329
94693W        W37684   8.654  26.287  26.557  0.1503  0.2245 -0.0640
94694W        W37685  19.124  24.463  25.012 -0.1935 -0.0598 -0.1967
94695W        W37686   2.974   2.491  27.033  0.0634 -0.0082 -0.0408
94696W        W37687  10.296  30.096  10.270  0.0251  0.0335  0.0507
94697W        W37688   4.283  26.042   3.325  0.0226 -0.0290 -0.1003
94698W        W37689   4.477  26.724  25.655  0.2351 -0.0891 -0.0354
94699W        W37690   7.819  19.606   5.542  0.1482 -0.2703 -0.2063
94700W        W37691   1.338  19.777   8.655  0.0247  0.0515  0.1594
94701W        W37692  20.474  29.928   4.874  0.3137 -0.0364 -0.1289
94702W        W37693   7.625  22.770   6.910 -0.4035  0.4320  0.2719
94703W        W37694  10.676  24.703   2.755 -0.2826 -0.0816 -0.0290
94704W        W37695  29.448  11.067   5.137  0.1633  0.3481  0.2513
94705W        W37696  12.195  22.868  22.247 -0.1190 -0.0086  0.0029
94706W        W37697  27.082  34.044  21.748  0.0987  0.1346 -0.1626
94707W        W37698   8.188  34.507  26.629  0.2919  0.0487  0.0183
94708W        W37699   8.981  22.821  10.871  0.0712  0.2669  0.0321
94709W        W37700  11.003  27.640  28.454  0.1729 -0.0199  0.2193
94710W        W37701  34.102   1.803   1.312  0.0231 -0.1363 -0.1872
94711W        W37702  34.451  26.259  19.040  0.1523  0.2700  0.4062
94712W        W37703  15.301  25.906   7.547 -0.2967  0.1130 -0.1752
94713W        W37704   4.383  29.402   9.568 -0.2324  0.0821 -0.0590
94714W        W37705   4.146  27.182   8.793 -0.1380  0.1441  0.0378
94715W        W37706   9.381  25.356   5.528  0.1458 -0.2285 -0.0638
94716W        W37707   8.108  22.806   7.652  0.2777  0.0059  0.0420
94717W        W37708  20.405   9.402  24.194 -0.1629  0.1853  0.2564
94718W        W37709   5.419  22.152   9.586 -0.2978  0.0004  0.1584
94719W        W37710  14.048  32.529   1.322 -0.0105 -0.2532 -0.0066
94720W        W37711   5.985  16.063   9.932  0.1176  0.3163  0.0103
94721W        W37712  11.952  25.833   2.381 -0.2515  0.1373 -0.0610
94722W        W37713  11.964  23.240   5.085  0.3630 -0.1659 -0.1860
94723W        W37714   5.081  25.496  28.283 -0.3279  0.0576  0.2407
94724W        W37715  16.576  28.054  29.093 -0.1355  0.1457  0.2535
94725W        W37716  16.259   9.632  25.454 -0.0401 -0.1823  0.2490
94726W        W37717  19.765  31.269   7.590 -0.1094 -0.0243 -0.3912
94727W        W37718  20.925  26.066   4.969  0.2400 -0.1466  0.1707
94728W        W37719   9.702  25.648   8.032  0.0080 -0.2782  0.1593
94729W        W37720  11.000  22.520   3.487  0.1397  0.1681 -0.4726
94730W        W37721  17.414  26.362   8.112 -0.0098 -0.1226  0.1403
94731W        W37722   8.093  32.542   3.963  0.1148  0.0302 -0.2683
94732W        W37723  12.585  29.030   3.513  0.1480  0.0429 -0.1004
94733W        W37724  15.811  14.224   0.156 -0.1840 -0.2735  0.3195
94734W        W37725  28.703  17.227   9.768  0.0058  0.0170 -0.1855
94735W        W37726  18.478   2.211  13.903  0.3342 -0.2847  0.3829
94736W        W37727  19.957  24.415   8.939  0.0566  0.1256 -0.0435
94737W        W37728   6.203  19.782  29.128 -0.1182 -0.0139 -0.0623
94738W        W37729   1.091  14.263   6.441  0.2711  0.3034 -0.2758
94739W        W37730   5.017  29.987   0.474 -0.3012  0.1405 -0.2305
94740W        W37731   6.796   2.868  10.548  0.0233 -0.2065  0.0772
94741W        W37732   8.091  30.352  29.078 -0.2995  0.0715  0.0151
94742W        W37733  11.568  31.135   1.498  0.2188  0.1788  0.2358
94743W        W37734   0.062   2.770   5.502 -0.2270 -0.1772  0.2521
94744W        W37735  31.699   9.004  26.110 -0.0859 -0.1309  0.1157
94745W        W37736  12.429  19.032   4.811  0.0230  0.2689  0.0242
94746W        W37737   6.412  12.931   4.773  0.1021 -0.2296 -0.0192
94747W        W37738   8.503  13.290  10.052  0.1633  0.1866  0.2630
94748W        W37739  19.640  19.127  23.461 -0.1540 -0.0697  0.2453
94749W        W37740  25.111  12.703   4.285 -0.1275  0.0425 -0.0084
94750W        W37741  13.645  20.568  20.060  0.0822 -0.0357  0.0005
94751W        W37742  18.418   0.812   1.794  0.1224 -0.0287  0.0772
94752W        W37743   6.528  19.816   4.419  0.2672  0.0775  0.0415
94753W        W37744   7.842  22.279   2.845 -0.0649  0.0117  0.0104
94754W        W37745  11.602  10.755   7.741  0.5557 -0.0013 -0.0758
94755W        W37746  15.547  31.172   1.490  0.1242 -0.0182 -0.3486
94756W        W37747   2.766  31.427   7.118  0.2727 -0.3596  0.1502
94757W        W37748  10.168   4.759  22.012  0.0209  0.1106  0.0817
94758W        W37749  19.778  17.767  24.235  0.2290  0.1884  0.0815
94759W        W37750   6.321  33.167   4.775  0.1004 -0.0263 -0.0064
94760W        W37751  20.026  11.229   9.112 -0.0869  0.2145  0.2111
94761W        W37752  13.841   6.743   1.977  0.1209  0.0191  0.0531
94762W        W37753  29.974  32.889   1.289  0.0292 -0.1250  0.0342
94763W        W37754  14.401  23.456  25.192  0.0810  0.4711  0.0001
94764W        W37755  21.669  19.990   1.099 -0.0348 -0.2424 -0.0339
94765W        W37756   6.983  23.426   4.327 -0.2970 -0.0025  0.0642
94766W        W37757  14.378   9.314   4.291 -0.2848  0.1175  0.0964
94767W        W37758   6.410  26.473   7.450  0.0734  0.0062  0.1831
94768W        W37759   5.356   9.736  10.840  0.0654 -0.2067 -0.3775
94769W        W37760  10.323  31.727   9.142  0.0416 -0.0591 -0.0103
94770W        W37761  12.802  22.485   3.505  0.0466  0.0464  0.0673
94771W        W37762   0.086  21.280   4.965  0.0882 -0.2200  0.1777
94772W        W37763  18.640  28.425   5.700  0.2881  0.1266 -0.0878
94773W        W37764  13.164  32.625   5.519 -0.0898 -0.3475  0.0621
94774W        W37765  15.443  20.467   7.623 -0.3643 -0.2191  0.1775
94775W        W37766  21.615   3.789   3.187  0.1278  0.3981 -0.0138
94776W        W37767  17.974  23.253  18.983 -0.3683  0.0864  0.1957
94777W        W37768  15.560  25.602   8.511 -0.1390  0.1233 -0.0712
94778W        W37769  10.026  22.682  27.786  0.1427  0.2679 -0.0595
94779W        W37770   3.385  15.824   9.690  0.0280  0.0503 -0.5746
94780W        W37771  34.068  13.574   2.005  0.0229  0.2264  0.2350
94781W        W37772  12.719  29.461  27.852 -0.1890 -0.1580  0.1818
94782W        W37773  14.781  22.066   1.885 -0.0080 -0.0547  0.4212
94783W        W37774  14.622  32.806   5.644  0.0731 -0.1217 -0.1738
94784W        W37775  34.447  21.148   4.215 -0.4669  0.2756 -0.0559
94785W        W37776   3.464  18.617  26.586 -0.0448  0.3423  0.3774
94786W        W37777  15.244  28.937   0.473  0.0047  0.2389  0.0419
94787W        W37778  19.286  15.358   1.706 -0.3075  0.0499  0.0338
94788W        W37779  19.943  16.917   9.056 -0.4203 -0.2431 -0.0991
94789W        W37780   3.685  19.602  10.496  0.4858  0.4172  0.1008
94790W        W37781   9.831   9.364   4.566  0.2441  0.2540 -0.1916
94791W        W37782  10.115  13.197  25.120 -0.1073 -0.1155 -0.0866
94792W        W37783   7.999  34.671   8.468 -0.0329  0.0568 -0.1511
94793W        W37784  14.381   6.486   8.640 -0.0497  0.0319 -0.0994
94794W        W37785  11.450  29.351   3.980 -0.0358  0.0156  0.1742
94795W        W37786   8.821  13.553   3.540 -0.1635  0.1962  0.0177
94796W        W37787  16.949   9.962   3.724 -0.2409  0.0912  0.3117
94797W        W37788  17.195  28.595   9.020 -0.0111  0.0565  0.0343
94798W        W37789  14.979  26.092   1.522 -0.0856  0.0319  0.0867
94799W        W37790  16.936  26.600   6.392 -0.3997  0.3772 -0.1199
94800W        W37791  18.899  20.765   2.860  0.0781  0.2056 -0.3469
94801W        W37792  16.125   8.092  24.865  0.1607  0.1265 -0.4004
94802W        W37793   1.522  14.483   9.016  0.1355 -0.0781  0.1812
94803W        W37794  14.720  13.400   7.650  0.2305 -0.0781 -0.2111
94804W        W37795  34.524  17.272  28.023 -0.1040  0.2347 -0.0749
94805W        W37796   3.392  24.408   7.894 -0.4460  0.1945 -0.2072
94806W        W37797  29.365  21.574   5.810  0.0972 -0.1122  0.0365
94807W        W37798  34.652  16.413   8.067 -0.1487  0.3014 -0.0644
94808W        W37799  13.158  25.205   9.557 -0.0088 -0.0845 -0.0247
94809W        W37800  33.119  31.939   3.736 -0.0039  0.1275 -0.0303
94810W        W37801  14.465  23.235  26.129 -0.1830 -0.0098  0.1374
94811W        W37802  12.680   7.137   7.175 -0.1078  0.0927 -0.0903
94812W        W37803  25.093  11.551   2.823 -0.0605  0.2296  0.0350
94813W        W37804  27.503  25.433   4.941 -0.1493  0.0612  0.1480
94814W        W37805   2.072  24.253  19.321 -0.0576  0.4361  0.1784
94815W        W37806  13.709  21.228  25.011  0.0022 -0.0690  0.1333
94816W        W37807   2.994  22.544   7.952  0.0841 -0.1741  0.0998
94817W        W37808   7.802  28.362  23.150 -0.1161  0.0758 -0.3970
94818W        W37809   2.817   6.806   6.521 -0.1710 -0.2034  0.0035
94819W        W37810  14.162   5.892   5.846  0.2053 -0.1015 -0.5744
94820W        W37811  23.915  14.541  28.495  0.2466 -0.3277 -0.0589
94821W        W37812  32.240  21.814   6.785 -0.2113 -0.1421  0.3288
94822W        W37813   6.293  20.082   8.513  0.3827 -0.1134  0.2561
94823W        W37814  27.371  16.885  27.507  0.0732 -0.0332  0.1918
94824W        W37815  19.422  22.325   7.467  0.0985 -0.1068 -0.1116
94825W        W37816  31.254   3.093   1.480  0.3485 -0.2882  0.2793
94826W        W37817   0.375  33.392   6.925 -0.0126 -0.2217  0.0278
94827W        W37818  20.657  21.826   5.514  0.3560  0.1736 -0.2365
94828W        W37819  15.290  16.506   5.600  0.0425  0.0322 -0.0463
94829W        W37820   2.401  32.451   9.552 -0.2058 -0.0686 -0.1924
94830W        W37821  10.779   9.486  24.051  0.5936  0.1806  0.5546
94831W        W37822  26.174  27.495   2.548 -0.0706  0.0928  0.1550
94832W        W37823  18.184   1.733   7.057  0.3701 -0.0223 -0.2713
94833W        W37824   9.875  13.902  16.390  0.0067 -0.0838 -0.3454
94834W        W37825  19.391  18.571   6.373  0.2524 -0.1061 -0.0688
94835W        W37826  30.758   5.105  24.574 -0.1846  0.4818 -0.1357
94836W        W37827   9.150  23.252   3.727  0.0269  0.1060  0.0708
94837W        W37828  11.918  17.054   2.281 -0.1058 -0.2052 -0.0229
94838W        W37829  13.456  15.685   3.641 -0.0870  0.1383  0.3309
94839W        W37830  15.352  29.299   5.410  0.0349  0.2161  0.3085
94840W        W37831  30.026  15.894  10.354  0.0201 -0.1411  0.5443
94841W        W37832  18.501  16.732  28.054  0.1295  0.0574 -0.3215
94842W        W37833  12.497  10.027  28.201  0.4130 -0.0477 -0.4631
94843W        W37834   0.730  28.388   8.913  0.1653 -0.4514 -0.2111
94844W        W37835  34.098  20.004   9.692 -0.1209 -0.0432 -0.0210
94845W        W37836  16.026  20.094   8.436 -0.0636 -0.0946  0.0700
94846W        W37837  26.415  34.045   3.035  0.0483  0.0069 -0.0786
94847W        W37838   5.163  27.915  16.667 -0.0556  0.1986 -0.1326
94848W        W37839  16.156  20.569   8.633  0.0675 -0.1734 -0.0445
94849W        W37840   9.571   0.482   6.036  0.0245  0.1667 -0.4635
94850W        W37841  19.622  20.151  28.744  0.0687  0.1050 -0.0953
94851W        W37842  15.758  20.352  28.634  0.0447 -0.3111 -0.1252
94852W        W37843  33.234  13.255  22.903  0.0773 -0.2576  0.0410
94853W        W37844  17.639  22.288  28.566  0.1627  0.1617 -0.0488
94854W        W37845   7.105  24.236  22.199  0.1872  0.1468 -0.3386
94855W        W37846   2.419  20.217   1.101 -0.1598 -0.2480  0.1588
94856W        W37847  16.323   9.684  22.203 -0.0770 -0.2561 -0.0378
94857W        W37848  16.415  26.002  25.864  0.2200 -0.0815  0.0863
94858W        W37849  18.083  13.450   5.506 -0.1593 -0.0874 -0.6814
94859W        W37850   0.593  20.227   7.038  0.0830 -0.0753 -0.2669
94860W        W37851  15.018  32.210  24.248 -0.0390  0.0277  0.2663
94861W        W37852  15.566  28.390   1.919  0.2355 -0.1397  0.2120
94862W        W37853  13.897  14.699   1.357  0.0374  0.4112  0.0521
94863W        W37854   9.924  19.998   8.461 -0.1464  0.0760  0.1033
94864W        W37855  13.951  28.022   5.937  0.1027 -0.3705 -0.2755
94865W        W37856  13.367  23.541  29.023  0.1100 -0.2934 -0.1410
94866W        W37857  20.687  18.124  28.678  0.1474  0.1961  0.0163
94867W        W37858  28.469  17.510   7.197 -0.1207  0.0540 -0.0427
94868W        W37859   5.091  21.464  10.535  0.0446  0.0830  0.0204
94869W        W37860  16.745  19.075  28.606  0.1608 -0.2632 -0.2122
94870W        W37861   9.528  29.425   6.670 -0.2723  0.2617  0.1744
94871W        W37862   4.448  27.584   3.286  0.1647 -0.0752  0.0052
94872W        W37863  15.929  27.786   6.835 -0.0248  0.0694  0.2963
94873W        W37864   8.215  28.010   2.525 -0.0660  0.1295  0.2166
94874W        W37865  12.540   7.028  26.123 -0.2252  0.1362 -0.0930
94875W        W37866  22.296   6.794   8.651  0.1674 -0.1074  0.2561
94876W        W37867  10.564  18.425   9.990  0.1744 -0.1861 -0.3560
94877W        W37868  10.075   3.650   4.117  0.1113 -0.0879 -0.0287
94878W        W37869  10.943  18.585  22.485 -0.1790 -0.1713  0.0841
94879W        W37870  28.458  23.781  24.687 -0.2431 -0.0876  0.0830
94880W        W37871   8.232  16.847  23.962  0.1243 -0.1612  0.2937
94881W        W37872   5.058   9.665  25.822  0.2111 -0.2104 -0.1024
94882W        W37873   6.399  17.780  29.103 -0.1922 -0.0735 -0.0376
94883W        W37874  31.834  18.667  27.795 -0.1894  0.2236  0.1370
94884W        W37875  11.631   5.768   4.302 -0.0207  0.0406 -0.1881
94885W        W37876   4.031  29.246   8.346  0.0374  0.1383 -0.2197
94886W        W37877  13.243  27.481  23.550 -0.5513  0.1464  0.0216
94887W        W37878  26.132   4.291   5.605 -0.1966  0.1085 -0.0792
94888W        W37879   6.610  33.218  29.187 -0.1045 -0.0876  0.1736
94889W        W37880   2.491   8.132   5.601 -0.0647  0.1893  0.3099
94890W        W37881  32.928  30.799  16.336  0.0552 -0.0249  0.0241
94891W        W37882   8.557  14.208   5.821  0.0126 -0.0883 -0.2654
94892W        W37883   6.320   3.904   8.086 -0.2686  0.1528  0.0535
94893W        W37884   6.757  20.266   3.627  0.1329 -0.0537 -0.0228
94894W        W37885  11.774  22.283  10.294  0.0564  0.0091  0.0144
94895W        W37886  18.549   3.864   2.769  0.0585  0.0648  0.0054
94896W        W37887   1.984  16.933  27.389 -0.1980 -0.1268 -0.1375
94897W        W37888   5.967  15.509   8.536 -0.0209  0.2320  0.2828
94898W        W37889   2.461  25.464   8.149  0.0037 -0.0924  0.0631
94899W        W37890  16.891  13.458   1.972 -0.2906  0.4308  0.0184
94900W        W37891   7.510  19.863   6.712 -0.1513  0.0569 -0.1407
94901W        W37892   4.378  21.870   6.068  0.3401 -0.0411 -0.2606
94902W        W37893  10.254  23.318   6.460  0.0524  0.1204 -0.0521
94903W        W37894   2.619   2.212  28.186  0.3847 -0.2081 -0.0617
94904W        W37895  15.980  23.339   5.482 -0.2472 -0.1687  0.0454
94905W        W37896   0.418  28.216   1.219  0.1062  0.1629 -0.3659
94906W        W37897  12.776   2.742   0.039  0.2802 -0.2506  0.0675
94907W        W37898  24.830  29.389  18.444 -0.1981 -0.2600 -0.3979
94908W        W37899   5.836  19.796  24.288 -0.0024 -0.1973 -0.1259
94909W        W37900  17.098  11.032   0.239 -0.5175  0.3411 -0.0156
94910W        W37901  10.256  25.940  19.269 -0.3022  0.0398  0.0498
94911W        W37902  16.510  25.990   5.099  0.0128  0.0790 -0.1250
94912W        W37903  33.220   3.292  24.581 -0.0762 -0.2002  0.1591
94913W        W37904  27.203  30.797  22.338 -0.1474 -0.1012 -0.0369
94914W        W37905   8.821  14.783   7.276  0.0721 -0.3509 -0.2063
94915W        W37906   9.800  22.047   0.819  0.0629 -0.1053  0.0025
94916W        W37907   9.405   1.591   3.008  0.0324 -0.1916 -0.0985
94917W        W37908  18.634  18.744   5.890  0.0439 -0.0590 -0.2955
94918W        W37909  12.329   0.294   9.043 -0.0757  0.2044 -0.0258
94919W        W37910  19.358  19.767   7.060 -0.1529 -0.1412  0.0329
94920W        W37911  19.933  18.535   6.004 -0.0208  0.1335  0.0021
94921W        W37912  31.606  16.546   5.186 -0.1936  0.0182 -0.0253
94922W        W37913  21.707  29.299  22.836  0.0667 -0.0462  0.0884
94923W        W37914  16.477  22.617  24.457 -0.0516 -0.2302 -0.0680
94924W        W37915  20.031  20.329  24.993 -0.0526 -0.0451 -0.0266
94925W        W37916   2.606  13.312  27.293  0.1398 -0.1374  0.0812
94926W        W37917   7.458  20.284   9.464 -0.1403 -0.2586  0.1680
94927W        W37918  15.617  30.340   5.741  0.1309  0.2838  0.4394
94928W        W37919   4.959  25.463   6.246 -0.0585 -0.3784 -0.1092
94929W        W37920  12.480  17.024   1.722 -0.0362  0.0371  0.2023
94930W        W37921  28.135  34.215  28.192 -0.0233  0.2555  0.1524
94931W        W37922  10.834   9.384   8.357  0.2702 -0.3138 -0.3716
94932W        W37923   8.368  22.918   5.941 -0.0343  0.0726 -0.1024
94933W        W37924  11.476  25.131   0.342 -0.0419  0.0350 -0.1423
94934W        W37925  28.626  25.100   7.617  0.0441 -0.1172  0.1497
94935W        W37926  20.988  32.180  24.450 -0.2658  0.0246 -0.0133
94936W        W37927  19.201  22.028   7.067  0.1936 -0.1350 -0.0808
94937W        W37928  12.607  23.927   9.213  0.0040 -0.1510  0.3921
94938W        W37929  26.019  19.737   0.656 -0.0196 -0.0704 -0.1212
94939W        W37930   8.703  25.411  10.356  0.1260  0.2164  0.0162
94940W        W37931  14.185  12.367  26.511  0.0053  0.1558 -0.1689
94941W        W37932   1.674  12.184  27.321 -0.0965  0.0528 -0.1080
94942W        W37933  10.110  28.221   6.722 -0.0047 -0.1851 -0.1064
94943W        W37934   5.311  20.433   2.614  0.1631 -0.4219  0.0305
94944W        W37935   9.699  21.600  25.949  0.1007 -0.0118  0.0409
94945W        W37936  12.510   0.771   9.794 -0.1481  0.2491 -0.5091
94946W        W37937  16.344  21.057   4.506 -0.2140 -0.1843  0.0473
94947W        W37938   9.561  32.968  10.056 -0.0106 -0.3667 -0.0755
94948W        W37939  15.130  26.200   4.726  0.0636 -0.0757  0.1208
94949W        W37940   6.324  24.986  22.728  0.1394 -0.3078  0.1215
94950W        W37941   5.768  11.968   0.911  0.3442  0.0953  0.3950
94951W        W37942   7.958  24.672   8.224  0.0603 -0.0455  0.0718
94952W        W37943  24.692   0.264   2.618  0.1369 -0.1349  0.0706
94953W        W37944  34.420  18.125   6.392  0.0346 -0.1222 -0.2397
94954W        W37945  27.771  10.454   3.614 -0.0766  0.0163 -0.1095
94955W        W37946   7.837  11.422   9.115  0.3752 -0.3423  0.2528
94956W        W37947   8.801  27.128   3.373 -0.0736  0.0587  0.0305
94957W        W37948  17.098  16.742   6.007 -0.0624  0.2506  0.0519
94958W        W37949   9.324  20.689   8.578 -0.1234 -0.2992 -0.2252
94959W        W37950  24.636  22.257  23.180  0.1040  0.1145  0.1535
94960W        W37951   9.811  31.468   1.451 -0.0327  0.1922  0.1557
94961W        W37952  11.631  19.243   7.408 -0.1213 -0.0747 -0.0888
94962W        W37953  14.971  14.040  27.011  0.0229 -0.1055 -0.0411
94963W        W37954  19.536  24.495   8.684 -0.2017  0.0005  0.2915
94964W        W37955   5.325  30.243   8.293 -0.3195  0.0023  0.1674
94965W        W37956  23.986  22.054  20.532 -0.2124 -0.3120 -0.1019
94966W        W37957  11.491  19.988  25.275 -0.2142 -0.1096  0.2231
94967W        W37958  21.407   9.065   1.132  0.0657 -0.1596 -0.4512
94968W        W37959  11.021  31.342   5.665  0.1082  0.0872 -0.0549
94969W        W37960   2.031  19.111   9.379 -0.4606  0.0968  0.0638
94970W        W37961  23.168   7.127  19.407  0.0810  0.1685 -0.0314
94971W        W37962   6.884  33.114   8.854 -0.2376  0.4372 -0.0132
94972W        W37963  12.105  24.007   0.757  0.2006  0.1980 -0.0058
94973W        W37964   9.996   9.862   7.655 -0.0057  0.1547  0.3826
94974W        W37965   6.573  20.915   7.661 -0.1477  0.1547  0.0903
94975W        W37966   8.015  24.714   6.567 -0.0754 -0.2223  0.0503
94976W        W37967   6.818  19.593  15.900 -0.3837  0.0723  0.0151
94977W        W37968   4.758  20.071   9.501  0.0691 -0.2420  0.1348
94978W        W37969   8.645  10.142  11.185  0.1429  0.1236 -0.4659
94979W        W37970  22.213  31.315   8.088 -0.1811  0.0392  0.1056
94980W        W37971   0.168   2.333  27.641  0.1537  0.0043 -0.3221
94981W        W37972  22.151  31.442   9.475 -0.0547  0.1944  0.0902
94982W        W37973   8.730   1.644   6.457  0.3213 -0.2014  0.0265
94983W        W37974   1.917  15.893   6.025  0.0074 -0.2473  0.0967
94984W        W37975  33.561  27.679   2.481  0.0214  0.0675  0.5375
94985W        W37976   7.363  23.868   8.462  0.0021  0.0022  0.1858
94986W        W37977  20.773  20.325   5.416 -0.2192 -0.1102 -0.0852
94987W        W37978   8.605  14.792   1.944  0.1343  0.1614 -0.4658
94988W        W37979   3.808  12.941   7.303 -0.0673  0.0791 -0.0043
94989W        W37980  21.571  27.062   9.429 -0.1556  0.1055 -0.0743
94990W        W37981  25.871  23.632   6.391  0.0391 -0.1385  0.1901
94991W        W37982  15.661  16.589   3.936 -0.1544  0.0203 -0.2186
94992W        W37983   7.193  22.927   2.004  0.1236  0.0102  0.2256
94993W        W37984  14.053  17.588   3.635 -0.1844 -0.0663  0.2639
94994W        W37985  10.018  19.513   8.151 -0.1831  0.1295  0.1139
94995W        W37986  27.332  30.065  17.412  0.2079  0.3421 -0.2633
94996W        W37987   9.176  30.672   6.859 -0.0358 -0.2945 -0.0987
94997W        W37988  24.960  28.961  29.134 -0.2132  0.0839  0.1329
94998W        W37989  14.374   1.675   5.413 -0.0431 -0.1221  0.1305
94999W        W37990  15.960  19.236   2.770 -0.0277 -0.1281 -0.1696
95000W        W37991  17.072  22.320  28.363  0.1110 -0.0494  0.1150
95001W        W37992  17.335  22.554  25.555 -0.2675 -0.2252  0.1454
95002W        W37993  12.654  22.929   3.835  0.1623 -0.0418  0.4277
95003W        W37994  14.736  29.945   7.791 -0.0682 -0.0534 -0.1100
95004W        W37995   9.242  31.183   3.343  0.1718  0.0839  0.0294
95005W        W37996  28.313  31.260   8.410  0.0301 -0.0917 -0.1380
95006W        W37997   4.684  29.259   1.674  0.0451 -0.0060 -0.0745
95007W        W37998  15.479  21.273   4.830 -0.2333 -0.1930  0.0148
95008W        W37999  18.442  15.494   7.944  0.1484  0.1341  0.3512
95009W        W38000  31.556   1.407   5.964  0.0268 -0.1723 -0.0802
95010W        W38001   9.178  25.115  25.450  0.0589 -0.1157 -0.2109
95011W        W38002  21.628  27.449   5.801  0.1372 -0.2215 -0.0092
95012W        W38003  17.501  23.929   5.042  0.0671 -0.2355  0.0596
95013W        W38004   6.259  29.486   6.347 -0.3090  0.1700  0.1579
95014W        W38005  11.247  16.747  21.812  0.2191  0.1925 -0.0740
95015W        W38006   9.714  17.508   1.025  0.0269  0.5864  0.1041
95016W        W38007  13.099  27.157   0.487  0.1902  0.2411 -0.0909
95017W        W38008  10.671  20.100   6.859 -0.0453  0.0185  0.0616
95018W        W38009  23.268  21.462   3.189 -0.0435  0.0181 -0.0885
95019W        W38010   8.162  29.927   5.658  0.0485  0.2229  0.1874
95020W        W38011  32.029   1.807   1.402 -0.0506  0.1513 -0.1063
95021W        W38012   5.031  17.435   3.743 -0.1070 -0.0263  0.0898
95022W        W38013  12.417  18.110  21.671  0.1009 -0.0696 -0.1857
95023W        W38014  24.331  30.199  28.200  0.1570 -0.0200 -0.4091
95024W        W38015  19.466  11.383   6.413 -0.3799 -0.1184 -0.3135
95025W        W38016  20.782  24.547  28.185  0.2742  0.0815  0.4320
95026W        W38017  29.260  18.138  26.011 -0.2373 -0.4735  0.2736
95027W        W38018  16.049  24.397   4.803  0.2166  0.0711 -0.0537
95028W        W38019  32.192   4.018  21.390  0.1208 -0.2154  0.0142
95029W        W38020   8.598  15.013   9.818  0.0112 -0.0650 -0.1510
95030W        W38021   2.461  16.862   7.657  0.0420 -0.0983 -0.0745
95031W        W38022  24.173  32.106  28.893  0.2899  0.1186 -0.1772
95032W        W38023  15.866  19.699  23.378  0.0680  0.0044 -0.1076
95033W        W38024  13.618  24.991  25.791  0.1512  0.1526 -0.1217
95034W        W38025  18.951  29.927  28.178  0.0419 -0.1531  0.4711
95035W        W38026  11.113  24.898   8.938  0.2270 -0.3290  0.0719
95036W        W38027  10.531  10.909   8.625  0.1692  0.4099  0.1989
95037W        W38028   5.982  13.578   5.189 -0.0518  0.0302  0.4171
95038W        W38029  33.026  33.979   7.161  0.0154 -0.2495 -0.0473
95039W        W38030   9.701  34.422  14.946 -0.0786 -0.2974  0.0564
95040W        W38031  26.325  10.920  10.022  0.1428  0.3779  0.0044
95041W        W38032   1.537  16.902  27.619  0.2457  0.1074  0.0258
95042W        W38033  17.044  28.046   5.158  0.0705 -0.1140  0.1378
95043W        W38034  29.039  25.281   6.700  0.0461 -0.1254  0.0403
95044W        W38035  33.019  17.159   4.321  0.3802 -0.1251 -0.0316
95045W        W38036  15.187  31.147   6.738  0.0893  0.0929 -0.2580
95046W        W38037  22.957   5.101   2.406  0.2390 -0.0204 -0.0916
95047W        W38038  33.244   6.403   9.084 -0.4025 -0.1167  0.1694
95048W        W38039  20.315  29.667  26.492  0.2521  0.0940 -0.0673
95049W        W38040   0.153  26.388  25.064 -0.3004 -0.2549  0.4082
95050W        W38041  20.351   8.065   9.721 -0.0401 -0.2417 -0.1228
95051W        W38042  11.628  27.267   1.919  0.1408  0.0492  0.1499
95052W        W38043   8.422   7.226   5.950  0.0402  0.0668 -0.2333
95053W        W38044  13.030  24.827   7.840  0.0748  0.2518  0.0657
95054W        W38045  28.518  15.233   0.841  0.0527  0.0355  0.2627
95055W        W38046   6.389   5.465   8.022 -0.0797 -0.1377  0.0765
95056W        W38047   6.132  29.191   8.854 -0.0038  0.2330  0.1285
95057W        W38048  18.851   8.591   8.181  0.0674 -0.2298 -0.2415
95058W        W38049  18.437  25.450   5.508 -0.0576 -0.3489 -0.0213
95059W        W38050  10.255  22.947  23.201  0.0194 -0.3363  0.0737
95060W        W38051  31.889  20.603   1.853 -0.2247  0.1920  0.0222
95061W        W38052  10.210  23.355   1.792 -0.0655 -0.2528 -0.0395
95062W        W38053  20.485  20.648  27.334  0.1420  0.0096  0.2360
95063W        W38054  32.808  27.597   3.475 -0.3378 -0.3696  0.0268
95064W        W38055   9.245  29.663   9.249 -0.1774 -0.1908 -0.1133
95065W        W38056  15.903  31.920  27.275  0.0154  0.1526  0.0686
95066W        W38057   2.653   3.385  28.940  0.0615 -0.0185 -0.2159
95067W        W38058   6.797  23.057   6.247 -0.0916 -0.0347 -0.1400
95068W        W38059  12.254  28.324   1.331 -0.2969 -0.0422  0.2643
95069W        W38060  19.398  22.704  27.692 -0.0955 -0.3417  0.1483
95070W        W38061  27.317  34.479  16.799 -0.3491  0.0363 -0.0424
95071W        W38062  14.012   4.832  25.993  0.2061  0.2203 -0.2708
95072W        W38063  20.858  19.574   4.130  0.1338  0.0675 -0.0531
95073W        W38064  34.394  22.774  24.615 -0.1908 -0.0439 -0.0116
95074W        W38065   7.336  11.964   4.888  0.2190 -0.0025 -0.2759
95075W        W38066  22.888   7.405   2.855 -0.1018 -0.0102  0.0185
95076W        W38067  31.379  23.276   1.718  0.1600  0.5421  0.2743
95077W        W38068  31.884   4.537  17.307 -0.0909  0.1722  0.0537
95078W        W38069   8.263  24.136   8.081 -0.2310 -0.1993  0.3364
95079W        W38070  12.578  27.299  26.965  0.0611 -0.0700 -0.0269
95080W        W38071  22.975  22.702   7.248  0.3376 -0.0675 -0.4459
95081W        W38072  11.533  28.578  26.181 -0.2570  0.3906  0.0303
95082W        W38073  17.001  19.485   6.373 -0.0451 -0.0360 -0.2601
95083W        W38074   9.325  26.359  27.369  0.0588  0.3229  0.3947
95084W        W38075   9.216   9.591  26.700  0.0509  0.0307  0.1245
95085W        W38076   7.790  22.214   2.287 -0.0771 -0.3941 -0.0423
95086W        W38077  34.124  24.542  21.273  0.1303 -0.3708 -0.1090
95087W        W38078  28.639  30.536  15.131 -0.0394 -0.1985 -0.1975
95088W        W38079  33.960  11.196  27.274 -0.1223  0.0752  0.2124
95089W        W38080  11.334  27.366   9.594 -0.0588  0.0616 -0.1400
95090W        W38081   6.097   6.436   0.634 -0.2784  0.0216 -0.2178
95091W        W38082  32.499   2.918   0.943  0.0895  0.1196  0.2395
95092W        W38083  14.165  32.770   3.954  0.0112  0.2920 -0.0778
95093W        W38084   5.226   0.181  29.042  0.1624 -0.0407 -0.1592
95094W        W38085  15.915  24.151   0.860  0.1698 -0.1196  0.1031
95095W        W38086  10.147  25.387  10.396  0.2561  0.2052 -0.1836
95096W        W38087  17.767  18.910  24.044 -0.1843 -0.0029  0.2865
95097W        W38088  18.782  22.599  22.445  0.1365  0.1067  0.1725
95098W        W38089  19.721  28.190  21.989 -0.2939 -0.0058 -0.2240
95099W        W38090  33.375  27.034   8.763  0.1842  0.0171 -0.0474
95100W        W38091  20.695   5.930   7.209 -0.0838 -0.1591  0.1384
95101W        W38092  15.748  32.900  25.310 -0.1888 -0.0435  0.1732
95102W        W38093   2.112  12.244   5.532  0.0853  0.0990 -0.4022
95103W        W38094  23.016  25.895  20.203 -0.1216 -0.2727  0.0522
95104W        W38095  22.028  22.911  20.579  0.2252  0.0788  0.0834
95105W        W38096  10.517   5.986   7.758 -0.1162  0.0659  0.1233
95106W        W38097  13.522  21.968  28.243 -0.5177 -0.2116 -0.0019
95107W        W38098   7.211  28.329   0.705 -0.0796  0.2421  0.0787
95108W        W38099  14.250  14.356  16.881 -0.1363  0.0374  0.0378
95109W        W38100  14.550  28.752   7.509  0.0091  0.0727 -0.0915
95110W        W38101  18.124  29.380  29.256  0.5019 -0.1522 -0.1425
95111W        W38102  21.256  32.195  26.758 -0.5338  0.3527 -0.2446
95112W        W38103  23.445   6.031  22.590 -0.0267 -0.1181 -0.0401
95113W        W38104   9.412  25.199   6.239 -0.0702  0.1678 -0.0806
95114W        W38105  22.216   5.620   5.688 -0.2733  0.2567 -0.0989
95115W        W38106  12.424   7.541   1.098 -0.3460 -0.1210  0.3075
95116W        W38107  13.422  31.890  25.508 -0.0508 -0.1228  0.3120
95117W        W38108   8.969  22.748  27.822 -0.0783 -0.1398 -0.2321
95118W        W38109  19.747   7.575  28.132  0.1673  0.0278 -0.0809
95119W        W38110  32.403  31.809   5.083  0.2968  0.0482 -0.1009
95120W        W38111  13.354  17.342   8.466  0.2679 -0.0043 -0.1728
95121W        W38112  14.361  13.938   4.933  0.2738  0.2934  0.0588
95122W        W38113  15.897  22.262   0.982  0.0022  0.0424  0.2292
95123W        W38114  15.115  14.337   2.669  0.0824 -0.1211  0.2103
95124W        W38115  18.735   4.318   8.316  0.1159  0.0828 -0.1251
95125W        W38116   8.590  18.268   6.303  0.1201  0.1055  0.1948
95126W        W38117  26.919   0.002   2.172  0.0378 -0.1657 -0.1237
95127W        W38118   6.132   3.605   6.899 -0.1189 -0.1369  0.1662
95128W        W38119  10.899   7.314  23.012  0.0759 -0.0818 -0.3165
95129W        W38120  19.456   4.696   6.304 -0.0961  0.0064  0.2392
95130W        W38121   1.274  25.154   2.878  0.1708  0.0318 -0.0775
95131W        W38122  11.804  23.296   6.363  0.1924 -0.0510  0.2776
95132W        W38123  15.188  33.853   6.402  0.2502  0.1926  0.1861
95133W        W38124  21.263  22.100   0.286 -0.0815 -0.0582 -0.2926
95134W        W38125  22.049  16.839  20.992  0.2249  0.0429 -0.1136
95135W        W38126  15.379  20.498  12.218  0.1199  0.1684 -0.0035
95136W        W38127   1.223   2.196  28.584  0.1305  0.1576 -0.1136
95137W        W38128  18.194  32.677   9.789  0.2344 -0.0736 -0.0370
95138W        W38129  27.362   8.432  27.157  0.1210  0.0130 -0.0239
95139W        W38130  21.160  33.374  14.875 -0.0286  0.0897 -0.2653
95140W        W38131  28.153  28.278  20.572  0.4544 -0.2696 -0.2181
95141W        W38132   7.886  26.681  22.214  0.2748  0.2052 -0.1965
95142W        W38133  30.694   1.365   1.646  0.0329  0.0977  0.0267
95143W        W38134  11.613   9.529   9.128  0.3110 -0.0602 -0.0170
95144W        W38135   6.019  12.642   4.932  0.2237 -0.3003 -0.3455
95145W        W38136  13.357  26.671   4.482 -0.0318  0.0546  0.1441
95146W        W38137   9.346  22.658  28.121  0.0337  0.2800 -0.0992
95147W        W38138  31.909  23.168  29.190  0.2499 -0.1936  0.0820
95148W        W38139   1.113  17.012   2.371  0.0726  0.0245  0.1046
95149W        W38140  33.126  30.568  22.256  0.3864  0.0837  0.0990
95150W        W38141  13.834  27.628   9.282 -0.0274 -0.2149 -0.3172
95151W        W38142  20.406  31.279  24.324 -0.0190  0.4245  0.1034
95152W        W38143  34.288  20.643   8.529  0.0654 -0.4746 -0.1473
95153W        W38144  33.096  14.175  20.353 -0.1763  0.2199 -0.0406
95154W        W38145   7.775  25.546   4.574  0.1667  0.2210 -0.0336
95155W        W38146  18.798  25.030   7.633 -0.0706  0.1969 -0.0770
95156W        W38147   1.383  28.803   1.814  0.0578  0.0753 -0.2630
95157W        W38148   3.077  30.472   4.136  0.2009 -0.0751  0.0513
95158W        W38149  21.089  33.388   7.066  0.0490  0.0379  0.0018
95159W        W38150   7.925  20.451   4.927 -0.0199 -0.3398  0.3115
95160W        W38151  23.137  24.232   1.469  0.0894 -0.0469 -0.2862
95161W        W38152  13.088  22.552   6.418  0.2346 -0.0807  0.1278
95162W        W38153  29.928  34.749   1.287  0.0618 -0.0315 -0.0383
95163W        W38154  12.946  18.264  19.251 -0.0552 -0.2769  0.0261
95164W        W38155  17.372  19.107   2.997 -0.1457  0.1724 -0.0701
95165W        W38156  17.556  16.574   5.010  0.2563 -0.0829 -0.0649
95166W        W38157  10.698  21.404   9.245 -0.0826  0.0459  0.1095
95167W        W38158  18.722  20.479  20.266  0.1872 -0.1882 -0.1316
95168W        W38159   8.419  20.711   5.670 -0.1480 -0.0286  0.0215
95169W        W38160  22.439  21.282  27.979 -0.1212 -0.2384 -0.1104
95170W        W38161  10.494  22.921   0.817  0.3548 -0.0872  0.1479
95171W        W38162   4.600  31.483  27.672  0.3770  0.1482 -0.0537
95172W        W38163   2.403  29.576  24.550 -0.1342  0.1053 -0.0502
95173W        W38164   4.115  31.508  14.476  0.3233 -0.1555  0.1524
95174W        W38165   7.265  22.656  22.010 -0.2861 -0.2118 -0.1208
95175W        W38166   6.786  24.085  27.305  0.0564  0.3318  0.1068
95176W        W38167   4.766  13.504   9.821 -0.0445  0.3327 -0.0729
95177W        W38168  17.020  31.515  26.165  0.1706 -0.1593  0.1955
95178W        W38169  15.015  19.749  27.693 -0.2028 -0.0041  0.1899
95179W        W38170   9.907   2.215   9.954 -0.2954  0.0237  0.1749
95180W        W38171  16.961   1.209   9.613  0.0163 -0.3009 -0.0650
95181W        W38172   0.315  23.604  19.580  0.2990 -0.1319  0.3339
95182W        W38173  23.400  26.480   5.623  0.0805 -0.2355  0.2247
95183W        W38174   2.669  28.607  27.106 -0.2362  0.1554  0.0108
95184W        W38175   5.820  13.619  24.168  0.1369  0.1097  0.1462
95185W        W38176   8.785  16.247   9.510  0.3823 -0.1957  0.0505
95186W        W38177  14.592  11.361   3.754  0.0771  0.0327 -0.2293
95187W        W38178   7.980  28.287  18.216 -0.2228 -0.1925 -0.2268
95188W        W38179   9.740  16.780   2.152  0.0265  0.0873  0.0777
95189W        W38180  24.557  23.107  20.875 -0.3136  0.1124  0.0694
95190W        W38181  13.771   1.168  10.322 -0.2726 -0.1459  0.0434
95191W        W38182   3.713  33.502   4.033  0.2133 -0.1083 -0.2116
95192W        W38183  18.762   4.025   7.184 -0.1064 -0.3116 -0.1061
95193W        W38184  13.399  28.194   1.340 -0.0764  0.2233 -0.1213
95194W        W38185  13.880  20.740  19.082  0.3413  0.0328 -0.1159
95195W        W38186  11.545  24.163   6.436 -0.0703  0.2208 -0.3145
95196W        W38187  17.567  19.784  22.794  0.2846  0.5302  0.2855
95197W        W38188  34.349   4.880   4.264  0.3621  0.0980  0.0841
95198W        W38189  12.647  32.414   8.566  0.0678 -0.3037 -0.2832
95199W        W38190  30.046  13.543   2.591 -0.0317 -0.3465 -0.1532
95200W        W38191   9.531  20.548   5.889 -0.0952 -0.0365  0.1841
95201W        W38192   5.484  30.240   1.146 -0.1129 -0.0394  0.2305
95202W        W38193  10.551   9.392   5.743 -0.0399 -0.0964  0.0667
95203W        W38194  22.726  30.628  15.215 -0.2859 -0.3733  0.2766
95204W        W38195   4.625   8.949   6.362 -0.1110  0.3425  0.1204
95205W        W38196   8.925  31.740  25.642 -0.3044 -0.3971  0.1744
95206W        W38197  11.925   9.516  15.302  0.0107  0.2555  0.2151
95207W        W38198  20.332  19.184  28.344 -0.4719  0.2266  0.1091
95208W        W38199  18.262  23.202  27.217 -0.1864 -0.1248 -0.2363
95209W        W38200   5.689  23.979  21.764  0.0058 -0.1739  0.0617
95210W        W38201  14.163   2.206  27.186 -0.0063 -0.1197  0.1096
95211W        W38202  12.815  31.538  27.809 -0.0172 -0.0715 -0.2145
95212W        W38203  12.945  23.300  16.794 -0.2161 -0.3000 -0.0049
95213W        W38204  12.128  32.250  21.544  0.2964  0.1032  0.2856
95214W        W38205   8.199  30.061  20.849  0.0016  0.0244 -0.1345
95215W        W38206   4.209  10.712   2.027 -0.3034 -0.3184  0.1471
95216W        W38207  17.563   2.100  20.270  0.3253  0.0102 -0.0624
95217W        W38208  12.052  18.599  23.698  0.1299  0.1054  0.1794
95218W        W38209  19.759  34.293   6.671 -0.0604 -0.2504  0.0210
95219W        W38210   8.639  28.294  28.702  0.1616 -0.1446  0.2448
95220W        W38211  28.012  15.856  20.689 -0.0965  0.0039 -0.0031
95221W        W38212   8.570  18.855   5.031  0.2089 -0.2104  0.1170
95222W        W38213   2.506  19.979  18.949 -0.0197 -0.1086 -0.0783
95223W        W38214  27.083  17.397  20.691  0.2772  0.1970 -0.0848
95224W        W38215   4.200  20.761   8.110 -0.2249  0.1292 -0.0871
95225W        W38216  10.832   5.640   3.432  0.2159  0.2488  0.0441
95226W        W38217  32.213  18.617  10.259  0.2046 -0.1997  0.1167
95227W        W38218   8.713  28.231  26.953  0.0093  0.2028  0.1022
95228W        W38219  18.240  32.582   2.866  0.0309  0.0783 -0.1974
95229W        W38220   9.483  28.546   6.353 -0.3188 -0.0302 -0.1096
95230W        W38221  10.474  30.459   4.332  0.1262  0.3264  0.1643
95231W        W38222  17.121  26.135  23.245  0.0392 -0.0708 -0.1067
95232W        W38223  18.589   5.248   7.450  0.0058  0.1745  0.2943
95233W        W38224  11.804  30.564   9.844  0.1065  0.2644  0.0140
95234W        W38225  10.835  32.179  25.176 -0.1083  0.1462 -0.0272
95235W        W38226  14.192  29.885  28.513 -0.0906 -0.2166 -0.0820
95236W        W38227  21.702  18.017  19.971 -0.1570 -0.2093 -0.0452
95237W        W38228  18.717  19.479   7.604 -0.2684 -0.2569  0.1445
95238W        W38229  11.030  12.259   7.693  0.1672 -0.0816  0.1312
95239W        W38230   9.446  23.625   3.816 -0.2749  0.1672  0.0071
95240W        W38231  29.814  28.305  24.424  0.0188  0.2084 -0.2737
95241W        W38232  29.341  22.643   2.722 -0.2756  0.0203 -0.2719
95242W        W38233  30.554  17.344  16.079 -0.2650  0.1677 -0.0343
95243W        W38234  12.513  20.420   4.425  0.0482  0.0102  0.0238
95244W        W38235  22.388  31.490  15.674 -0.2818 -0.1360  0.0360
95245W        W38236   7.611  26.075   3.277 -0.3845 -0.3759 -0.0782
95246W        W38237  31.778  25.900  23.015 -0.0754 -0.0485  0.0466
95247W        W38238   2.733  34.490  28.963 -0.0606 -0.0598  0.5351
95248W        W38239   5.913  10.477  21.934  0.1943 -0.0075 -0.0070
95249W        W38240  25.679  33.559   3.807  0.0915 -0.0207 -0.0391
95250W        W38241  13.205  16.470  28.546 -0.0654  0.1611 -0.1764
95251W        W38242   5.959   2.161  17.682 -0.0461 -0.0205 -0.1786
95252W        W38243   7.724  27.617   4.733 -0.1245 -0.5740 -0.1920
95253W        W38244  11.475  15.332  14.245 -0.0821 -0.0176  0.0221
95254W        W38245  13.559  30.216  27.277  0.4250  0.3792 -0.0537
95255W        W38246  22.347  12.981   3.917 -0.2882 -0.1293 -0.3398
95256W        W38247  26.559  20.664   4.033  0.2881 -0.0025  0.1472
95257W        W38248  34.760  21.086  24.328 -0.1043  0.4867  0.1652
95258W        W38249  20.096  31.305   2.385 -0.0144  0.0058  0.0910
95259W        W38250   9.516  25.456   4.982 -0.2045  0.1605  0.0855
95260W        W38251   4.084  30.076   1.489 -0.0251  0.0907  0.2806
95261W        W38252  13.815  13.734   9.239 -0.1877 -0.0253 -0.2534
95262W        W38253  22.285  12.583   9.464 -0.0741  0.0095  0.2201
95263W        W38254  34.054  19.418   1.126 -0.1288 -0.0332  0.0800
95264W        W38255  10.289   4.637  21.061 -0.0279 -0.2870 -0.1454
95265W        W38256   2.347  24.550   5.416 -0.0478 -0.0410  0.0994
95266W        W38257  11.004  13.552   3.544  0.2642  0.2165 -0.3150
95267W        W38258   7.215  33.976   6.889  0.2557  0.3459 -0.0166
95268W        W38259   7.096  17.810  23.662  0.0263 -0.2053 -0.0140
95269W        W38260  10.318  19.704  28.142 -0.1839 -0.0195  0.0647
95270W        W38261  19.118  20.834  24.049  0.1964  0.0642  0.0476
95271W        W38262  15.535   5.791  15.989  0.0011  0.1767  0.0007
95272W        W38263  10.259  11.125   4.770  0.1240  0.3884 -0.0696
95273W        W38264  34.724   3.931  24.584  0.0019 -0.1433 -0.0827
95274W        W38265   1.524  18.824   6.615 -0.1400 -0.3951  0.1398
95275W        W38266   9.856  12.400   5.804 -0.2355  0.1414  0.0253
95276W        W38267   8.550  19.075   2.289 -0.3346 -0.1088 -0.0885
95277W        W38268  14.565  16.450  29.194  0.0226  0.1369  0.0915
95278W        W38269  29.953  19.240   7.614  0.3560 -0.4198  0.0526
95279W        W38270  33.631   0.033   4.521 -0.2010 -0.3304 -0.0570
95280W        W38271  22.467  18.065   2.786 -0.0613 -0.0454  0.1602
95281W        W38272  20.425  21.859   4.221 -0.0418  0.2995  0.0934
95282W        W38273   6.370  27.914  27.858 -0.1655 -0.1089  0.0187
95283W        W38274   9.338  22.368  20.723  0.3789 -0.0563 -0.0410
95284W        W38275  10.421  20.081   4.844  0.2605 -0.0520  0.3084
95285W        W38276  20.563  25.589  17.545  0.0614  0.1874 -0.0118
95286W        W38277  17.392   6.745  26.488 -0.2610 -0.2374 -0.1258
95287W        W38278   1.197  34.743   8.443  0.1775  0.1439 -0.0940
95288W        W38279  12.062  29.662   8.010 -0.0729 -0.1553 -0.1398
95289W        W38280  15.395  22.284  20.185 -0.1026  0.1834  0.0480
95290W        W38281  13.445  16.684  28.999 -0.1292  0.1667 -0.2979
95291W        W38282  19.871  29.181   6.753  0.1508  0.1417 -0.0663
95292W        W38283  31.533  30.723  21.046  0.3171 -0.1488 -0.4678
95293W        W38284   9.909  30.708  19.714 -0.0939 -0.0450  0.1099
95294W        W38285  26.793  31.342  24.738 -0.0264  0.3314 -0.1114
95295W        W38286  34.180  25.749  21.585  0.1679  0.1348  0.1027
95296W        W38287  15.049  26.833   6.027  0.0778 -0.1148 -0.0327
95297W        W38288  24.963   0.039  27.457 -0.0455  0.3388 -0.1019
95298W        W38289  21.086   3.722  26.759 -0.0374  0.1612  0.0548
95299W        W38290  11.137   6.234  24.625 -0.1935  0.0658  0.1036
95300W        W38291  33.784   8.967   0.147 -0.1580 -0.0433  0.0081
95301W        W38292  12.213  27.391  16.708  0.1727 -0.1771  0.1261
95302W        W38293  11.585  25.439  24.937 -0.0470 -0.1811  0.1571
95303W        W38294  18.323  31.991   9.386  0.0037  0.1218 -0.2445
95304W        W38295  16.498   0.617  16.302  0.1798 -0.0000  0.0691
95305W        W38296  13.424  14.449   7.126 -0.0643  0.1465 -0.0646
95306W        W38297   8.522  12.387  10.338 -0.1148  0.2199  0.2308
95307W        W38298  17.246  31.945   9.034  0.0210 -0.1350 -0.0687
95308W        W38299  17.835  25.611   1.886  0.2643  0.0790 -0.1821
95309W        W38300  19.815  17.862   8.242 -0.0980 -0.1257  0.0491
95310W        W38301  19.905  30.478  17.451  0.2527  0.1207  0.0917
95311W        W38302  16.699  19.120   2.153  0.0936 -0.0901 -0.2183
95312W        W38303  18.268  25.161   1.638 -0.2302 -0.3687 -0.2670
95313W        W38304   4.983   5.270  28.656 -0.0318 -0.3594 -0.0456
95314W        W38305  34.517  19.999   5.174  0.2049  0.1598  0.0470
95315W        W38306  22.422  27.250   3.093 -0.0696 -0.3629 -0.0839
95316W        W38307   2.249   4.741  17.927  0.0055  0.0328 -0.0328
95317W        W38308   0.122   6.491   0.419  0.3263  0.0477  0.0266
95318W        W38309  31.094  23.078   9.303 -0.1754 -0.2124  0.1179
95319W        W38310  22.938  24.265   7.080 -0.0250 -0.0788  0.3450
95320W        W38311  19.853   7.113   7.112  0.2753 -0.0890 -0.2836
95321W        W38312  15.998  28.624  22.229  0.0458  0.0063  0.0829
95322W        W38313   1.160  25.473  29.247  0.0263 -0.4803 -0.0371
95323W        W38314  32.447   4.709   8.939 -0.0921  0.0192  0.1835
95324W        W38315  32.138  26.393   8.497  0.3786  0.0002  0.0695
95325W        W38316   9.884   3.629   3.651 -0.1377  0.2300  0.1165
95326W        W38317  10.091  31.593  18.257 -0.4567 -0.0858 -0.4685
95327W        W38318   5.712  30.689  22.906 -0.1574  0.1725 -0.4580
95328W        W38319   6.993  28.411  27.382 -0.0037  0.0334 -0.1476
95329W        W38320  19.621  27.477  23.191  0.0859 -0.0045  0.3506
95330W        W38321  17.115  30.296  19.302 -0.1220  0.3527  0.1264
95331W        W38322   7.045   3.725  15.254 -0.1499  0.0316 -0.1204
95332W        W38323  22.966  18.856   5.762  0.3430 -0.0014 -0.0448
95333W        W38324  16.547  18.334   0.464 -0.2104 -0.1884 -0.0448
95334W        W38325  20.558  17.526   5.760 -0.1959  0.1683  0.1637
95335W        W38326  23.553  18.508  15.375  0.0777 -0.0221 -0.3393
95336W        W38327  10.383  22.513  25.295 -0.1368  0.0214 -0.1108
95337W        W38328  20.216  13.244   7.153  0.3713 -0.1721  0.0874
95338W        W38329   2.617  30.030   0.505  0.1977 -0.2624 -0.2649
95339W        W38330  25.933  25.459   6.626 -0.0294  0.1270  0.1505
95340W        W38331  19.667  25.961   5.125 -0.0275  0.0953 -0.1782
95341W        W38332   7.352  22.288  10.581  0.1894 -0.3614  0.1270
95342W        W38333   8.694   7.144  26.206  0.0098 -0.1164 -0.1883
95343W        W38334  21.932  29.388  26.352 -0.0705 -0.0511  0.0728
95344W        W38335  29.565  18.233   2.155  0.0447 -0.3772  0.0157
95345W        W38336   8.361  12.252  19.012  0.3698  0.3029  0.0569
95346W        W38337  33.101  21.708  25.964 -0.2640 -0.1178  0.0827
95347W        W38338   6.688  19.277   8.035 -0.0748  0.2480 -0.0558
95348W        W38339  12.942  27.063  22.236 -0.0588  0.0720 -0.2036
95349W        W38340  28.298  24.708  15.910 -0.4129  0.0333  0.1623
95350W        W38341   3.360   8.253   4.471  0.0392  0.0476 -0.0770
95351W        W38342  22.235  28.802   3.100  0.1550 -0.0101 -0.1181
95352W        W38343  10.490  21.463   0.759  0.1486  0.0012 -0.1082
95353W        W38344  22.576  34.193  23.132 -0.2423  0.2859 -0.2025
95354W        W38345   7.195  34.462   5.263 -0.2222 -0.0185  0.3315
95355W        W38346  15.928  10.068   6.845 -0.1553 -0.0003  0.0361
95356W        W38347  23.697  32.374  19.221  0.3193  0.1164  0.0452
95357W        W38348  21.567  30.969   6.399 -0.0045  0.0359  0.0418
95358W        W38349  13.900  25.839   3.768  0.0781 -0.3004  0.0514
95359W        W38350  10.450   2.007   9.484 -0.2809  0.2778  0.2929
95360W        W38351   3.200  16.780   0.891  0.1907  0.3002 -0.0438
95361W        W38352   7.960  26.732  19.840  0.1574  0.0840  0.0026
95362W        W38353  14.160   3.114  27.720  0.0108  0.1069 -0.1183
95363W        W38354  25.966  28.231   4.542  0.1760  0.1188  0.1084
95364W        W38355  14.822   7.138   4.538 -0.1039 -0.1683 -0.2426
95365W        W38356  18.478  18.536  24.737  0.1296  0.2091  0.0031
95366W        W38357   9.747  31.147   8.656  0.0001 -0.2614  0.0262
95367W        W38358  16.320  26.200  23.508  0.0749 -0.0113  0.4465
95368W        W38359   0.640  34.469   4.030  0.3027  0.2128  0.0535
95369W        W38360  10.044  30.295   7.014  0.3266 -0.0911 -0.4636
95370W        W38361   5.692   0.600  23.420 -0.0244  0.2177  0.5458
95371W        W38362  22.520  16.855   0.146  0.1346  0.0214  0.2607
95372W        W38363   3.058  33.098  22.007 -0.1170  0.2610  0.1362
95373W        W38364  32.316  22.138  26.487 -0.1748 -0.2347 -0.0466
95374W        W38365  11.554  29.126  27.375  0.0753 -0.0074 -0.1796
95375W        W38366  29.692  18.387  21.469 -0.0997  0.1391  0.4491
95376W        W38367   1.377   6.236  17.591  0.0578 -0.0890  0.0394
95377W        W38368   9.231  24.065   0.165 -0.2724  0.2423  0.3848
95378W        W38369   7.444  23.692  21.473 -0.1149 -0.1691 -0.0105
95379W        W38370  11.028  28.581   7.835  0.2751 -0.2871  0.1697
95380W        W38371   3.301  17.060  28.477  0.0627  0.0305  0.2975
95381W        W38372  25.401  24.434   3.862  0.0651  0.2183  0.1441
95382W        W38373   7.303  26.447   5.505  0.4430  0.0591 -0.2969
95383W        W38374  28.574   0.897   4.168 -0.0925 -0.0325  0.2260
95384W        W38375   7.982   5.620  10.351  0.0639  0.3500  0.0960
95385W        W38376   6.977  18.517  23.058  0.3326  0.0834  0.0916
95386W        W38377  16.877  12.221   2.757 -0.3474  0.1136  0.0808
95387W        W38378  14.107  21.206   5.237 -0.3568  0.0217 -0.0610
95388W        W38379  19.350  31.218  21.495  0.1491  0.2532  0.0956
95389W        W38380   4.760  15.776   2.069 -0.0477  0.0571 -0.0149
95390W        W38381  10.239   0.614  16.899  0.0751  0.0964 -0.0866
95391W        W38382  21.854  24.882  29.176  0.0392 -0.1360 -0.3068
95392W        W38383   8.572  15.566   6.378 -0.4037 -0.1019  0.0455
95393W        W38384  12.319   3.147   2.802  0.2746 -0.3844  0.0698
95394W        W38385  17.392  15.153   0.934 -0.0101  0.1069 -0.4756
95395W        W38386   8.755  21.099  10.801 -0.0873 -0.0687  0.3784
95396W        W38387  13.038  28.820  20.399 -0.0778  0.3365  0.2513
95397W        W38388   5.313  16.513   2.050  0.1193  0.5322  0.3629
95398W        W38389  22.315  28.443  17.419 -0.0411 -0.1323  0.1758
95399W        W38390  24.853  27.922   4.781  0.1479 -0.0378 -0.0928
95400W        W38391  23.324  30.780   3.145  0.0430 -0.0931  0.0444
95401W        W38392  22.278  30.330   6.398 -0.3934  0.2752 -0.0930
95402W        W38393  29.948  24.701   6.312  0.1856  0.3803  0.2697
95403W        W38394  16.316  15.462   7.575  0.0759 -0.0526 -0.0197
95404W        W38395  23.158  33.220  19.050  0.3068  0.1184 -0.1829
95405W        W38396  22.992  10.384  27.266  0.1157  0.2293  0.1669
95406W        W38397  25.649  21.809  27.431 -0.2565  0.2878 -0.1857
95407W        W38398   6.899  17.614   1.843  0.0356 -0.0160 -0.1548
95408W        W38399   6.599  20.489   0.780  0.0167  0.2567 -0.1415
95409W        W38400  10.836   1.540  14.534  0.5952  0.0038  0.1169
95410W        W38401   2.874  19.614  28.575  0.0985  0.0149  0.2295
95411W        W38402  16.128  25.752   8.659 -0.2497  0.3316  0.0358
95412W        W38403  30.880  34.791   6.499 -0.4115 -0.4391  0.1814
95413W        W38404   6.714  17.482  21.731 -0.1573 -0.0774 -0.3646
95414W        W38405   1.828  29.584   9.326 -0.4092 -0.1752 -0.0076
95415W        W38406  22.038  23.121   5.086 -0.3119  0.0996 -0.0434
95416W        W38407  24.481  19.857   0.425  0.1303  0.0909 -0.1399
95417W        W38408  22.301  33.383   2.557 -0.0749 -0.0892 -0.0775
95418W        W38409  14.587  28.201   2.993  0.0867  0.1982  0.0895
95419W        W38410  11.072  32.637  26.142  0.1264  0.2111 -0.0106
95420W        W38411  22.273  21.389   8.597 -0.1272 -0.1794  0.2228
95421W        W38412   6.125  28.134   0.023 -0.0293  0.0029 -0.2795
95422W        W38413   6.871  18.170   4.781 -0.3297  0.0582 -0.0139
95423W        W38414  15.085  23.628  21.205  0.0836  0.0010 -0.0760
95424W        W38415  18.701  21.149  22.978 -0.4470  0.4931  0.1866
95425W        W38416   1.636  16.745   6.184 -0.0333 -0.1676  0.0744
95426W        W38417  33.078  14.900  25.509 -0.0571 -0.2205 -0.4956
95427W        W38418  17.591  26.959  16.256  0.1510 -0.3555  0.3007
95428W        W38419  10.136   2.737  19.728 -0.0500  0.1164 -0.2187
95429W        W38420   3.291  23.468   1.926 -0.1230 -0.0003  0.0183
95430W        W38421  32.236  25.501  20.040 -0.1525 -0.1024 -0.3746
95431W        W38422  23.214  25.128  23.445 -0.0595  0.2062  0.0417
95432W        W38423   6.420  23.133  19.013 -0.1047 -0.2801  0.3021
95433W        W38424   8.370  26.795  13.880  0.4143  0.3428  0.0464
95434W        W38425  10.861  16.732  21.375 -0.0011 -0.2355 -0.1012
95435W        W38426  17.963  31.717   6.088  0.1313  0.0004  0.3861
95436W        W38427  12.215  12.010  22.843  0.5031  0.0259 -0.1682
95437W        W38428  20.196  18.836   3.882 -0.1177 -0.1272 -0.2470
95438W        W38429  22.288  33.704   1.040  0.0953  0.3687  0.0016
95439W        W38430  30.976  20.758   9.371 -0.0364 -0.2992 -0.1293
95440W        W38431   9.164  13.898  28.809  0.3634 -0.0634 -0.0137
95441W        W38432  10.800  16.810  28.736  0.0914  0.2776 -0.0218
95442W        W38433   2.286   4.332   5.437 -0.2473  0.0028 -0.2806
95443W        W38434  13.707   0.098   5.760  0.1956 -0.1201  0.0687
95444W        W38435   1.473   0.424  28.316 -0.1593  0.2354 -0.1493
95445W        W38436  31.838  30.023   5.896  0.0010 -0.1884 -0.1524
95446W        W38437  32.832  22.293   1.578 -0.0576  0.3081 -0.2237
95447W        W38438   0.425  18.018  11.292  0.3566 -0.1118  0.3803
95448W        W38439   2.586  34.614   1.432 -0.0601  0.0403  0.0298
95449W        W38440  26.121  21.955  25.213  0.2471 -0.1400  0.0743
95450W        W38441  24.472  26.389  21.507  0.1011 -0.3488 -0.0588
95451W        W38442  33.383  26.256  23.062 -0.1332 -0.0242  0.0034
95452W        W38443  10.330   2.956   3.816 -0.2143 -0.1747  0.1578
95453W        W38444  10.365  15.658  29.241 -0.0991 -0.3093 -0.5206
95454W        W38445   7.809  31.264   2.471 -0.0183 -0.0610  0.2447
95455W        W38446  13.900  23.586   6.790 -0.0409 -0.1051 -0.0766
95456W        W38447  12.362  30.927   4.268 -0.0123  0.3971 -0.2679
95457W        W38448   7.024  12.523  25.178 -0.0093 -0.1818 -0.1635
95458W        W38449   3.134  28.781  10.011 -0.3389 -0.0468  0.3255
95459W        W38450   7.698  31.568   3.513 -0.2970  0.0808 -0.0570
95460W        W38451  31.554   6.127  18.034  0.0937 -0.0057  0.0646
95461W        W38452   1.309  16.727   5.797  0.0343  0.1632 -0.0344
95462W        W38453  13.013  31.763   0.696  0.0293 -0.0865 -0.4253
95463W        W38454  23.674   3.173   0.469 -0.2606 -0.0457 -0.0618
95464W        W38455  10.773  27.423  23.854 -0.1847  0.0828 -0.0696
95465W        W38456  15.739  25.295  20.118 -0.1078  0.0415 -0.0466
95466W        W38457  20.378  22.072   4.728 -0.1084 -0.1481  0.1386
95467W        W38458  15.588  30.602  16.138  0.0729 -0.0734  0.2488
95468W        W38459  12.858  33.175   1.178  0.3140  0.2775  0.0958
95469W        W38460  21.880  10.083   8.283 -0.0755  0.3012  0.2370
95470W        W38461  12.666  32.835   7.165 -0.4141  0.0021 -0.2952
95471W        W38462  20.485  30.381   9.485 -0.0652 -0.3215  0.1585
95472W        W38463  30.277  34.627   2.758 -0.1384  0.3502 -0.0852
95473W        W38464  24.768  14.774   7.785 -0.0309 -0.1250  0.1339
95474W        W38465  24.223  22.269  24.006  0.1354  0.0605  0.0128
95475W        W38466  14.950  17.224  25.559  0.1275  0.1092  0.1698
95476W        W38467   4.848  29.567   4.139  0.2544 -0.3462 -0.0907
95477W        W38468   8.512  18.477   2.734 -0.0192 -0.0592 -0.1229
95478W        W38469  21.848  27.905   9.645  0.0621  0.1424 -0.0210
95479W        W38470   2.587  26.816  28.447  0.0507  0.0853  0.2974
95480W        W38471  21.823   6.279   3.277 -0.3898 -0.0079 -0.0154
95481W        W38472  13.081  20.360   5.801 -0.0519 -0.1142  0.0417
95482W        W38473  15.782  12.378   6.535  0.0240  0.0092 -0.1117
95483W        W38474   2.632  25.837   3.012 -0.0818 -0.0550  0.1529
95484W        W38475   8.956  30.562   1.705  0.1425  0.2588 -0.0365
95485W        W38476  33.648   0.068   9.805 -0.2367  0.5018  0.2718
95486W        W38477  28.269  22.924   9.879  0.0142 -0.1091  0.0129
95487W        W38478   1.598  22.267  26.400  0.0066 -0.1952 -0.1619
95488W        W38479  12.312  32.310   7.837 -0.1259 -0.1456  0.1655
95489W        W38480  12.021   9.614  23.213  0.0342  0.0812 -0.0423
95490W        W38481   2.613   3.244   9.357  0.1108 -0.3289 -0.0140
95491W        W38482   3.123  31.070   3.002 -0.1690 -0.1379  0.1134
95492W        W38483  13.830  13.947  21.235  0.0580 -0.1556 -0.2143
95493W        W38484  14.570  27.133  18.244  0.0159  0.0201  0.0203
95494W        W38485  32.568  21.366   1.861 -0.1396 -0.0391  0.0400
95495W        W38486  24.936   1.747   8.171  0.2960 -0.0310 -0.1812
95496W        W38487  11.395  26.929   9.002  0.0115 -0.4410 -0.0963
95497W        W38488  11.503  21.740  25.134  0.2693 -0.0597 -0.0888
95498W        W38489   9.635  28.087   0.327  0.0713 -0.3028 -0.0611
95499W        W38490   4.652  19.924   0.947 -0.0104  0.0191  0.1039
95500W        W38491  18.946   2.396  25.023  0.2346  0.1026  0.1385
95501W        W38492   0.820  20.189  27.955  0.0021 -0.0606 -0.0533
95502W        W38493  15.262  27.781  16.707  0.0421 -0.2425 -0.0753
95503W        W38494   2.082   3.126   7.140 -0.0958 -0.0644  0.3277
95504W        W38495   8.413  27.082  28.061 -0.1083 -0.1312  0.1606
95505W        W38496   2.640  32.085  25.500  0.0271  0.2123 -0.1828
95506W        W38497  31.929  16.575   6.531  0.2949  0.1343 -0.1315
95507W        W38498  13.101  18.652   5.177 -0.1798  0.1690  0.0055
95508W        W38499  10.098  22.662  25.990 -0.0251  0.0008  0.2285
95509W        W38500  29.726  29.354  27.259 -0.1580  0.0497 -0.0274
95510W        W38501   2.171  25.736   1.029 -0.1157 -0.3037  0.2748
95511W        W38502  19.292  32.884   7.266 -0.0594 -0.2075  0.0814
95512W        W38503  16.876  23.784   2.748  0.3200  0.2974  0.1189
95513W        W38504   5.538  12.066   9.449 -0.1880 -0.1055  0.0920
95514W        W38505   7.109  11.175   5.950  0.0016 -0.3170  0.0699
95515W        W38506   8.602   0.288   9.061 -0.0134  0.0611  0.1930
95516W        W38507  34.523  22.278   7.051 -0.1292  0.0475  0.1957
95517W        W38508  17.991  31.737   6.635 -0.2453 -0.3728  0.1076
95518W        W38509  17.638  15.071  26.704 -0.0184  0.0303  0.2214
95519W        W38510   7.942  33.362  28.931  0.0470  0.1375  0.1340
95520W        W38511  15.970   5.806  10.267 -0.1368  0.2372  0.0119
95521W        W38512   8.645   4.213   4.726  0.0118  0.0104 -0.2488
95522W        W38513  16.461   5.410  27.447  0.2869 -0.1273 -0.0478
95523W        W38514  10.723   0.947  27.224 -0.0213 -0.0138 -0.0778
95524W        W38515   7.829  10.321  16.201 -0.0323  0.1541  0.0112
95525W        W38516  21.994   1.510   3.585  0.0896  0.3955 -0.3850
95526W        W38517   9.788  34.276   8.438  0.0812 -0.2275 -0.1457
95527W        W38518   7.536  12.274  26.807 -0.0804  0.0275 -0.0863
95528W        W38519  10.540  34.695   3.650 -0.0771  0.1328 -0.1855
95529W        W38520  12.221  31.709   5.875 -0.0497  0.1405 -0.1452
95530W        W38521  23.748  29.070   5.399 -0.1603  0.0664 -0.3274
95531W        W38522   0.979  12.438   1.223  0.0789  0.1816  0.0788
95532W        W38523   8.670  14.138   0.495  0.1786  0.5261 -0.1005
95533W        W38524   9.206  21.996  21.469 -0.0639  0.0319 -0.0015
95534W        W38525   6.598  26.547  21.549 -0.2191  0.2838 -0.3225
95535W        W38526  28.089  21.697  27.589  0.1578 -0.0420 -0.1634
95536W        W38527  25.174  30.523   7.359 -0.0167  0.3047 -0.1889
95537W        W38528  13.599  18.583  27.869  0.0587 -0.2007 -0.0211
95538W        W38529   9.154  22.579  10.406  0.1003  0.1506  0.0230
95539W        W38530   5.110  21.479  29.047  0.3152 -0.5277 -0.2004
95540W        W38531  20.443   1.896   8.519 -0.3259  0.0872 -0.1060
95541W        W38532  17.456  29.230  20.362 -0.0425 -0.0988 -0.1147
95542W        W38533  15.811  24.137   7.341 -0.0831  0.3598 -0.5135
95543W        W38534  30.165  16.160  21.383 -0.0540 -0.0623 -0.1848
95544W        W38535   8.487  29.089   5.876  0.1609 -0.2510 -0.1583
95545W        W38536  11.512  17.418  27.001 -0.0388 -0.0006  0.0640
95546W        W38537  31.822   2.294   8.059 -0.0810  0.1126  0.1235
95547W        W38538  23.936  16.046   9.123  0.0426  0.0662 -0.0878
95548W        W38539  12.286  25.088   4.174  0.1931  0.1851 -0.1835
95549W        W38540   9.871  30.379  26.940  0.2511  0.2671 -0.1623
95550W        W38541  14.244  30.164   6.060 -0.0059  0.0778 -0.1500
95551W        W38542  21.797  30.660  26.386  0.1210 -0.2867  0.3829
95552W        W38543  12.573  18.440  27.751 -0.0573 -0.0254 -0.1079
95553W        W38544   7.290  15.474   8.805 -0.0593 -0.1340 -0.1802
95554W        W38545   7.547  25.596   8.962  0.0015 -0.0775  0.2679
95555W        W38546  18.120  34.683   9.750 -0.0143 -0.1320  0.0183
95556W        W38547  20.979   1.181  14.721 -0.2257  0.0112  0.0707
95557W        W38548  19.820  25.396   7.634  0.1132 -0.0612  0.0360
95558W        W38549   8.339  19.434   3.471  0.0835  0.1574  0.0533
95559W        W38550   9.327  23.260   5.934  0.0393  0.2986 -0.0981
95560W        W38551   5.643   7.044  10.827 -0.1582 -0.1017 -0.1143
95561W        W38552  10.667  13.174   6.700 -0.2544  0.1445  0.0022
95562W        W38553   6.032  27.792   0.437 -0.0867 -0.0097  0.1249
95563W        W38554  11.181  21.414  24.826 -0.4348  0.1461  0.1051
95564W        W38555  28.089  21.786   5.327  0.2551 -0.1931  0.1830
95565W        W38556  19.775  19.518   1.316 -0.0221  0.3075  0.0537
95566W        W38557   0.018  18.079  26.204  0.1314  0.0542  0.0863
95567W        W38558  10.622  30.527  17.213 -0.2053  0.1177 -0.0371
95568W        W38559  24.475  12.875   9.649 -0.0695 -0.0826  0.1978
95569W        W38560   6.160  11.515  16.965 -0.0634  0.0518  0.0233
95570W        W38561   9.847   9.192   7.512  0.2249 -0.1965  0.2585
95571W        W38562  12.053  31.911   9.909  0.0120  0.0797  0.3676
95572W        W38563  13.201  30.853   7.924 -0.0111  0.1093  0.1726
95573W        W38564  13.526  22.983  27.622  0.1742  0.1797  0.1573
95574W        W38565   6.087  33.500  20.300 -0.1874  0.1539  0.4596
95575W        W38566  31.539   9.209   6.389 -0.0026  0.0645  0.1797
95576W        W38567  11.713  33.555   2.907 -0.1103  0.2145  0.1445
95577W        W38568  13.511  34.791   9.783 -0.4437 -0.1301  0.1136
95578W        W38569  11.336   0.535  28.620 -0.1954 -0.1615  0.3110
95579W        W38570  18.011   2.415  18.871  0.0259 -0.0899  0.4921
95580W        W38571   9.857  23.088  28.596 -0.0131  0.0711 -0.1417
95581W        W38572  15.353  23.597   7.043  0.2538  0.1723  0.2624
95582W        W38573   9.175  20.736   0.273  0.0654  0.0068 -0.0135
95583W        W38574  33.302  31.515  24.663  0.0442  0.1504  0.1361
95584W        W38575  15.078  28.641   2.674 -0.0756  0.0178  0.0741
95585W        W38576   7.471  19.200   7.420  0.2640 -0.0337 -0.1892
95586W        W38577  12.404  22.632   2.353 -0.1169  0.0777 -0.3410
95587W        W38578   7.470  26.612   3.288 -0.1276 -0.3292 -0.5424
95588W        W38579   7.414  29.083   1.694 -0.1939  0.3520 -0.1727
95589W        W38580   9.359  28.197   5.315 -0.0427  0.0808  0.0832
95590W        W38581  17.710  28.678  27.532 -0.2651  0.1301  0.1055
95591W        W38582  30.906  26.554   2.566 -0.1695  0.0690 -0.2022
95592W        W38583  13.473  13.597   7.155  0.1947 -0.2007 -0.1668
95593W        W38584   2.360   6.586   6.677  0.0939  0.0737  0.1070
95594W        W38585   0.697  28.167  27.126  0.1511 -0.1313  0.1197
95595W        W38586  32.808  30.048   6.739 -0.1162 -0.0641 -0.0892
95596W        W38587  14.571  26.900   1.490  0.1169 -0.1704  0.0337
95597W        W38588  10.370   3.118  15.580 -0.0545  0.0259  0.0353
95598W        W38589  10.096  21.348   5.309 -0.0088 -0.0272 -0.4400
95599W        W38590  34.586   4.641   1.016 -0.1405 -0.0065 -0.0412
95600W        W38591  21.266  11.803   1.947 -0.1411 -0.2318  0.0527
95601W        W38592   6.863  10.592  16.660 -0.0334 -0.0621 -0.0641
95602W        W38593  17.178  23.486  25.816  0.0005 -0.0271  0.0537
95603W        W38594   9.446  22.749   7.367 -0.1099  0.2456  0.2232
95604W        W38595   5.206  21.049  26.880 -0.3838  0.0580  0.0263
95605W        W38596   8.665   1.396   5.936  0.0205 -0.2206  0.3367
95606W        W38597   5.005  33.627   4.238  0.2759  0.1059  0.2826
95607W        W38598   3.364  17.274  10.904  0.0587 -0.2004  0.2695
95608W        W38599  11.465   5.208  19.850 -0.1113 -0.3013 -0.2311
95609W        W38600  10.483  25.222  18.444  0.0077  0.3542 -0.0261
95610W        W38601   5.945  29.252  24.998  0.0126  0.4775 -0.3874
95611W        W38602  16.833  29.506  28.100  0.2854 -0.4831 -0.0287
95612W        W38603  10.642  21.156  10.249 -0.0820  0.1124 -0.1787
95613W        W38604   5.913  30.901  20.253 -0.0273 -0.2764 -0.0200
95614W        W38605  23.365  29.974   4.786  0.3792  0.0644 -0.0375
95615W        W38606  33.555   3.309  17.907 -0.2888  0.2472 -0.0730
95616W        W38607  10.469  26.087   8.559  0.1618 -0.2063 -0.0180
95617W        W38608  17.954  25.589   6.061 -0.4572 -0.0079 -0.2654
95618W        W38609   1.637  11.828   5.235 -0.0503 -0.0814 -0.0652
95619W        W38610  22.552  10.531  26.573  0.2349 -0.1323  0.0844
95620W        W38611   6.335  20.168   7.206  0.2375 -0.0966 -0.0695
95621W        W38612   8.765   3.423  23.739  0.1552 -0.1642  0.0990
95622W        W38613  22.371  19.648  18.358 -0.1301 -0.0941 -0.0731
95623W        W38614  11.046  21.733  21.150  0.0553 -0.1822  0.1548
95624W        W38615   9.374   1.622  26.463  0.0166 -0.2888 -0.1599
95625W        W38616  18.312  21.743   0.516  0.0871  0.0184  0.2038
95626W        W38617   1.905  28.763   2.698  0.0024  0.1153 -0.1676
95627W        W38618   9.188  22.854   2.349  0.0991  0.2227 -0.0555
95628W        W38619  14.392   2.880   9.239 -0.0523 -0.0680 -0.3338
95629W        W38620   5.925  24.182   6.745  0.3027  0.0165  0.1730
95630W        W38621  33.340  24.812  28.786  0.1809 -0.0467  0.2223
95631W        W38622  12.689  28.755   7.434  0.0359  0.0220  0.1888
95632W        W38623   8.248  15.094  21.336  0.1378  0.1110  0.1314
95633W        W38624  24.429  31.188  27.127 -0.1367 -0.1477  0.2845
95634W        W38625  28.920  26.225  25.031 -0.4153 -0.1228 -0.0752
95635W        W38626  33.783  23.439  24.329  0.4198 -0.2110 -0.0164
95636W        W38627  21.723  22.568   6.996 -0.1783  0.1052  0.4357
95637W        W38628  13.274  25.309   1.753  0.0671 -0.0514 -0.1274
95638W        W38629  20.818  23.238   3.654 -0.0393  0.1820  0.0844
95639W        W38630   5.053  24.784   9.365  0.3633  0.2572  0.0386
95640W        W38631   9.044   0.463   1.866  0.0862  0.2168 -0.1059
95641W        W38632  21.566  21.826   5.804 -0.0017  0.0740 -0.1756
95642W        W38633  31.213  11.031   6.998 -0.0517  0.0611 -0.0122
95643W        W38634  14.660   3.963  28.614  0.1102  0.1198 -0.0726
95644W        W38635  10.707  16.938   6.485  0.0316 -0.2347  0.1035
95645W        W38636  10.375  27.186   0.309  0.1682 -0.3765  0.0743
95646W        W38637   1.423   4.483  10.176 -0.0970 -0.1921 -0.0707
95647W        W38638   0.873  30.661  22.554  0.0908  0.0409 -0.2334
95648W        W38639  22.391  13.443   1.124  0.0997  0.2757  0.2002
95649W        W38640   4.099   0.628   3.041 -0.1535  0.1682  0.1806
95650W        W38641  10.355  17.515   2.352 -0.0771 -0.0611 -0.0845
95651W        W38642   2.264  28.662  28.286  0.3359 -0.1606  0.0186
95652W        W38643  12.696  18.725  24.352 -0.3627  0.0625 -0.3579
95653W        W38644  19.842  21.706  23.043  0.0501 -0.2026 -0.1414
95654W        W38645  22.483  22.582   7.734 -0.2088  0.0197 -0.1129
95655W        W38646  12.816  20.036   6.049 -0.0862  0.0031 -0.0377
95656W        W38647  28.756  29.462  17.965  0.0406 -0.1302 -0.2137
95657W        W38648  30.373  23.210  24.243 -0.0450 -0.0879  0.0309
95658W        W38649  12.779  32.632  28.928  0.1643  0.2257 -0.0241
95659W        W38650  14.787  23.921   4.778 -0.0770 -0.7031  0.0134
95660W        W38651  31.437  33.020   0.231  0.1702 -0.2737 -0.0038
95661W        W38652   9.549   0.289   7.555 -0.0850  0.2372 -0.1119
95662W        W38653   3.087  21.587  22.052  0.1248  0.1514 -0.1381
95663W        W38654   3.821   3.539  20.786  0.0126  0.0507 -0.1178
95664W        W38655   8.771  31.603  10.823  0.1752  0.0003  0.0728
95665W        W38656  21.594  21.614  21.898  0.0367 -0.0008 -0.1862
95666W        W38657   6.715  22.061   1.547 -0.2044 -0.0609  0.4019
95667W        W38658  24.351   7.298  24.798  0.0670 -0.2223 -0.1207
95668W        W38659  21.323  19.269  22.310  0.5290 -0.3339 -0.0590
95669W        W38660   4.704  15.341   3.183  0.1406  0.1279  0.0987
95670W        W38661   8.970  28.347  24.071 -0.1846  0.0221 -0.4168
95671W        W38662   2.197  20.643  10.477  0.0084  0.0815  0.5307
95672W        W38663  16.893  24.684   7.371 -0.1631 -0.1350 -0.2146
95673W        W38664  12.868  29.860   9.662 -0.3124  0.0658 -0.0068
95674W        W38665   7.375  34.532  16.634 -0.3166 -0.0710  0.0796
95675W        W38666   4.677  26.907   9.779  0.0151 -0.0932 -0.0395
95676W        W38667  10.075  23.316   0.262  0.3583 -0.4220 -0.0449
95677W        W38668   8.988   4.234  20.732 -0.1827  0.2235  0.1336
95678W        W38669   8.999  21.651   3.914  0.1292  0.3594 -0.2500
95679W        W38670   9.276  33.580  14.852 -0.0029 -0.3847 -0.1148
95680W        W38671  10.375  31.208  24.080 -0.1030  0.0924 -0.0762
95681W        W38672  34.137  29.863  26.930  0.0551 -0.2047 -0.2320
95682W        W38673  24.407   7.139  28.997  0.1329 -0.2809  0.0956
95683W        W38674   0.819  33.407   4.930  0.0863 -0.6595  0.2432
95684W        W38675  11.642  16.896  24.206 -0.1488 -0.0748  0.1903
95685W        W38676  31.813  23.944  23.279  0.1398 -0.0754  0.1449
95686W        W38677   3.612  32.403  28.227 -0.2430  0.5873 -0.1277
95687W        W38678  13.842  34.106   6.855 -0.3338 -0.1097 -0.1319
95688W        W38679  15.913  24.338   8.679 -0.2253 -0.0219  0.0596
95689W        W38680  14.208   1.662   2.659  0.0218  0.0600 -0.4115
95690W        W38681  19.356  22.268  26.266 -0.1567  0.0229  0.1744
95691W        W38682  13.436  19.338   5.795 -0.2137 -0.1157  0.0374
95692W        W38683  12.761  27.231  10.375  0.1371 -0.0061  0.1422
95693W        W38684   9.359  21.086  28.637 -0.0408 -0.1970  0.3903
95694W        W38685  17.307  28.957   2.300  0.0611 -0.0162  0.1866
95695W        W38686   4.593  17.088   2.367  0.3536 -0.4400  0.0808
95696W        W38687   4.624  26.330   5.694 -0.0941 -0.2540 -0.3088
95697W        W38688  12.204  15.320   8.022 -0.0168  0.0033  0.1413
95698W        W38689  18.495  21.270   7.542 -0.3339  0.0249  0.0298
95699W        W38690  19.144  25.142   9.895  0.2087  0.0557  0.0583
95700W        W38691  14.883  33.756   8.686 -0.0434 -0.4961 -0.0935
95701W        W38692  15.793  14.564  21.926 -0.1798  0.0681 -0.1128
95702W        W38693   7.611  27.467  18.803 -0.0467 -0.2766 -0.3125
95703W        W38694  21.740   6.544   2.798  0.3235  0.2254  0.1334
95704W        W38695   0.986  18.055   6.646 -0.2348 -0.0763 -0.1362
95705W        W38696   6.595  17.558   0.302  0.2124  0.1579  0.1153
95706W        W38697  18.777  25.312   6.647  0.0836 -0.2596  0.0544
95707W        W38698  16.723  14.540   0.137 -0.0154 -0.0262  0.3112
95708W        W38699  28.619  11.366   8.390 -0.1707  0.0965  0.2108
95709W        W38700  23.323  31.938  27.433  0.4452  0.0284  0.0558
95710W        W38701  27.814  23.274   4.810  0.2969 -0.2304 -0.0563
95711W        W38702  10.574  17.744   7.150 -0.2716  0.0461  0.0868
95712W        W38703   8.104  26.695   2.346 -0.1455 -0.3419  0.0058
95713W        W38704  30.093  22.122  28.550 -0.3187  0.1499 -0.0271
95714W        W38705  22.368  10.648   3.498  0.1377 -0.0337 -0.1460
95715W        W38706  23.391  30.153  28.020 -0.0942  0.2856  0.3336
95716W        W38707  31.543  15.065   7.316  0.0770 -0.0759  0.3730
95717W        W38708  27.987  32.123   0.640 -0.2233 -0.1199  0.0025
95718W        W38709   6.074  20.202   8.999 -0.1489  0.1643 -0.2176
95719W        W38710   3.545  22.118  17.631 -0.1001 -0.1527  0.0168
95720W        W38711  24.797  21.278   6.376  0.2008 -0.0867 -0.2317
95721W        W38712  15.488  31.691   4.645 -0.3038 -0.0795  0.3204
95722W        W38713  34.511   3.649   0.398 -0.2221 -0.1374  0.2156
95723W        W38714   7.391   5.693   2.264  0.1143  0.1702  0.1096
95724W        W38715  23.632  22.647   6.484 -0.0751  0.1692 -0.2176
95725W        W38716  15.901  29.520  27.838 -0.3455 -0.0150 -0.0210
95726W        W38717  18.459  33.369   3.538  0.1865 -0.0731  0.2572
95727W        W38718   9.279  18.755   1.674  0.0081  0.0637 -0.0651
95728W        W38719  14.748  23.178   0.973  0.0383  0.3788  0.2748
95729W        W38720  21.086  22.951   8.632 -0.0813 -0.1396  0.1406
95730W        W38721  17.357  21.603   7.468 -0.4010 -0.0227  0.0082
95731W        W38722  27.116  23.827  24.066  0.4569  0.0779  0.0218
95732W        W38723  17.467   5.406   9.467 -0.0109 -0.0233 -0.1138
95733W        W38724  17.372  24.284  18.138 -0.2953  0.4675 -0.3763
95734W        W38725  10.367  28.883  26.237 -0.1747 -0.2350 -0.0514
95735W        W38726  18.937  30.120   8.153  0.0900 -0.0797 -0.0553
95736W        W38727  11.917  25.016  26.314 -0.2214 -0.1233 -0.2659
95737W        W38728  18.573  25.198   5.111  0.0517  0.3066  0.0083
95738W        W38729  26.270  21.634  26.128  0.0923  0.0246  0.0219
95739W        W38730   9.226  10.958   1.267  0.3252  0.2387  0.0334
95740W        W38731   0.366  31.148   8.417 -0.0814  0.1763 -0.0627
95741W        W38732  15.597  32.443   5.652 -0.0385 -0.2775 -0.0568
95742W        W38733  15.833   2.670   0.798  0.0069 -0.0419 -0.1064
95743W        W38734   8.894  22.441   9.276 -0.0372 -0.2502 -0.2623
95744W        W38735  11.616  14.784   1.946 -0.0246  0.0440  0.1185
95745W        W38736  11.349   4.679  27.405  0.2114  0.0153  0.0908
95746W        W38737  17.191   3.816   5.980 -0.2145 -0.0476 -0.4714
95747W        W38738  19.985  29.683   0.983  0.1932 -0.0723 -0.0154
95748W        W38739  20.217   1.338   5.988  0.0568  0.0787  0.2519
95749W        W38740  27.578  28.439   1.404  0.0699 -0.0520 -0.1759
95750W        W38741  12.766   0.750  21.407 -0.0180 -0.4195 -0.1395
95751W        W38742  15.886  16.556   0.577  0.1612 -0.0771 -0.3802
95752W        W38743   6.787  21.034  10.146  0.0607  0.1493  0.0322
95753W        W38744  13.555  13.460  25.711  0.0608 -0.1801  0.1148
95754W        W38745  28.372  26.174   5.710 -0.0755  0.0990 -0.2347
95755W        W38746  14.170  34.242   8.131  0.1192 -0.1179  0.2347
95756W        W38747   8.751   3.634  24.948 -0.0770  0.0315 -0.0053
95757W        W38748  21.129   2.074   9.119  0.0075 -0.0518  0.1946
95758W        W38749  27.187   9.656  21.483 -0.0707  0.1630  0.0705
95759W        W38750  26.296  12.946  26.936 -0.1718  0.0922 -0.1059
95760W        W38751  30.027  15.438  10.088 -0.0542  0.2959  0.1933
95761W        W38752  13.408  11.361  27.471 -0.4331 -0.0500 -0.6508
95762W        W38753  21.819  23.786   7.895 -0.1966  0.3672 -0.0036
95763W        W38754   7.935  10.830   6.359  0.4189 -0.4009  0.0663
95764W        W38755   0.202  27.036   8.276  0.1168 -0.1556  0.0243
95765W        W38756  18.999  26.675   2.328  0.2690 -0.2942 -0.0122
95766W        W38757  13.570  30.365   5.717 -0.0346 -0.5617 -0.0622
95767W        W38758  13.477   6.306   4.537 -0.2382 -0.1525 -0.2329
95768W        W38759  19.610  29.954   6.151 -0.0461 -0.1151  0.1095
95769W        W38760  19.597  32.727   9.062  0.2114 -0.1037 -0.2596
95770W        W38761  15.981   2.281   8.490 -0.3087 -0.0912  0.0227
95771W        W38762  33.558  33.000   1.197  0.1671  0.1884  0.0541
95772W        W38763   7.181  22.242   9.142  0.4012  0.3514  0.0353
95773W        W38764  23.883  17.308   7.255 -0.0497  0.2589 -0.3857
95774W        W38765  28.092  12.242   1.275  0.0315 -0.1895  0.1456
95775W        W38766  12.655   2.438   9.869 -0.0984 -0.0790 -0.0507
95776W        W38767  12.118  28.607   6.873 -0.0539 -0.1585  0.0742
95777W        W38768   5.804  15.922   8.946  0.0443  0.3349  0.0499
95778W        W38769   8.124  22.574   1.829  0.0743 -0.1838 -0.2100
95779W        W38770  25.651  25.763   7.824 -0.0549  0.3329 -0.2746
95780W        W38771  19.423  20.925  23.615  0.4222  0.0570  0.2789
95781W        W38772  20.739  24.000  23.534 -0.1458  0.6263 -0.0463
95782W        W38773  27.947  28.413   0.944  0.1717 -0.0047 -0.0800
95783W        W38774  31.235  25.381   7.127 -0.0245 -0.1615  0.1664
95784W        W38775   6.131   3.352  28.369 -0.0072  0.0640  0.1093
95785W        W38776  11.847   4.118   9.206 -0.2404  0.0562 -0.4090
95786W        W38777  33.569  29.584  13.511  0.3240  0.1612 -0.0098
95787W        W38778  22.190  24.642   5.962  0.3047 -0.1306  0.4248
95788W        W38779  11.994   7.712   4.934  0.0868  0.2239 -0.0855
95789W        W38780  18.316   4.515  18.229 -0.3215  0.0046  0.1916
95790W        W38781  15.426  12.925  10.194  0.3689 -0.1398  0.0413
95791W        W38782  10.325  27.902   8.517  0.0733 -0.0865 -0.0904
95792W        W38783  23.286  22.322   7.543  0.4709 -0.0771 -0.3278
95793W        W38784  10.381  28.798   7.455 -0.2474  0.1253  0.0707
95794W        W38785   4.811  19.018  29.103  0.1934 -0.1398 -0.1134
95795W        W38786  24.859   4.276  25.821  0.0021  0.0878  0.0427
95796W        W38787  33.036  14.352   7.143  0.0808 -0.1143  0.1431
95797W        W38788   8.603  18.885  24.305  0.0034 -0.2682  0.2127
95798W        W38789   2.608  28.626   6.783  0.1382  0.3183  0.0640
95799W        W38790   9.106  27.071   9.992 -0.1993  0.3089 -0.0099
95800W        W38791  25.506  28.577   5.864  0.1471 -0.2061 -0.1453
95801W        W38792   6.059  18.680   5.775 -0.1497 -0.0152 -0.2421
95802W        W38793  11.458  21.327   9.786 -0.1031  0.0239 -0.1231
95803W        W38794  10.578  17.305   6.925 -0.0657  0.0485 -0.0404
95804W        W38795  15.089  27.447  20.771  0.4309  0.1786 -0.1476
95805W        W38796   9.866  34.099   4.915 -0.0275  0.0303 -0.0642
95806W        W38797  12.825   4.175   9.351 -0.2138 -0.2613 -0.0298
95807W        W38798  29.564  32.233   0.137  0.4672 -0.4892 -0.0032
95808W        W38799   3.446  31.642   5.859  0.0118 -0.0571 -0.0180
95809W        W38800   7.756  17.640  19.472  0.1082 -0.0576  0.2253
95810W        W38801  16.678   3.248  29.076 -0.2083  0.2182 -0.1346
95811W        W38802  13.774  28.914   9.706  0.0237  0.4183  0.0728
95812W        W38803   4.666  17.518   5.599  0.0323  0.0009 -0.0362
95813W        W38804  31.831  23.841   7.391 -0.0773  0.0268  0.0582
95814W        W38805  34.657  11.946   4.143 -0.1301  0.4224  0.1407
95815W        W38806  24.299  16.144   9.472 -0.2190 -0.2397  0.2945
95816W        W38807   7.394   5.615  28.237  0.0974  0.1937 -0.0599
95817W        W38808  30.384  17.269   3.744 -0.0682 -0.3967  0.0605
95818W        W38809   5.930  18.026  24.504 -0.0116  0.0885 -0.5308
95819W        W38810  17.537  18.468   1.741 -0.0371  0.1820  0.0531
95820W        W38811   8.882  27.270  29.184  0.3048 -0.0274  0.3755
95821W        W38812   7.098  28.959   7.616 -0.0070  0.1895  0.0497
95822W        W38813   3.202  28.355   7.880 -0.0120  0.0014 -0.2552
95823W        W38814   8.372  14.531  19.276 -0.0117  0.0300 -0.0084
95824W        W38815  17.631  24.318  22.558 -0.0997 -0.1726 -0.2790
95825W        W38816   8.911  28.214  24.882 -0.0715 -0.1710  0.0040
95826W        W38817   5.414  17.923   5.400  0.1129  0.1694 -0.0298
95827W        W38818   8.369  11.399  26.478 -0.3763 -0.0483 -0.0388
95828W        W38819  29.060   8.618   0.510  0.0195 -0.0907 -0.5563
95829W        W38820  12.460  30.081   2.703  0.0499  0.0165 -0.0190
95830W        W38821  16.743  21.341   5.697 -0.1514 -0.0122  0.2493
95831W        W38822  32.005  27.751  27.807 -0.1548  0.0450 -0.0478
95832W        W38823   5.467  17.615   9.138  0.3587  0.0335  0.1632
95833W        W38824   3.583   5.555  23.629 -0.0421  0.4171  0.1759
95834W        W38825   6.415  15.637   6.840 -0.0188  0.2309  0.3381
95835W        W38826   3.991  21.217   0.967 -0.1403 -0.2045 -0.0102
95836W        W38827  14.666  34.133  24.930  0.0931 -0.2078  0.0693
95837W        W38828   4.812   9.943   7.448 -0.1323  0.1736  0.0148
95838W        W38829  11.749   9.718   6.536  0.0147  0.1051 -0.0987
95839W        W38830  11.190  11.156   6.922  0.0078  0.0734 -0.0910
95840W        W38831  22.058  27.082  22.482 -0.2481 -0.1235 -0.0388
95841W        W38832  12.424  23.989  24.835  0.4650 -0.2689 -0.2397
95842W        W38833   5.900  23.737  28.160 -0.0920  0.0858 -0.1636
95843W        W38834  12.757   5.310   1.430  0.2459 -0.1541 -0.2215
95844W        W38835  19.270  29.675  16.597 -0.1499  0.0395  0.2549
95845W        W38836  15.112  21.832  20.879 -0.2406  0.1438  0.0203
95846W        W38837  29.874  25.806  22.843 -0.0091  0.3087 -0.1440
95847W        W38838  15.697  17.386  25.375 -0.0808  0.2304  0.3159
95848W        W38839   0.417  10.578  17.154  0.0309 -0.1369  0.2112
95849W        W38840  22.805  29.192   3.655 -0.0273  0.0097 -0.3837
95850W        W38841  14.423  19.328  15.058 -0.3317 -0.0430 -0.0370
95851W        W38842  17.806  27.275   9.210 -0.0045  0.3008  0.2386
95852W        W38843  18.279  20.914   5.494 -0.0337 -0.0854 -0.0763
95853W        W38844  31.034  20.310   2.093  0.0091  0.1692  0.0642
95854W        W38845   3.861  19.080   7.435 -0.2578  0.5270  0.0518
95855W        W38846   7.692  17.529   1.444  0.0699  0.1851  0.2938
95856W        W38847  13.149  24.231   8.475  0.1075  0.2793  0.4899
95857W        W38848  34.362  13.145  10.360 -0.1523 -0.0744 -0.0483
95858W        W38849  10.512   8.081   8.647 -0.0862  0.0536 -0.0136
95859W        W38850  10.351  29.919   7.798  0.2611  0.3140  0.1922
95860W        W38851  23.751  26.529   6.471  0.2764 -0.3373 -0.3153
95861W        W38852  10.597  24.276   3.749  0.1831  0.0727  0.2943
95862W        W38853   5.377  23.572   7.252 -0.3779  0.1484 -0.1011
95863W        W38854  26.300   5.791   6.201  0.0241  0.1402 -0.1684
95864W        W38855  11.704  31.683   9.517  0.0582  0.1927 -0.1703
95865W        W38856   1.242  28.081   8.326  0.1737  0.0862  0.0137
95866W        W38857  30.339  28.723  25.130  0.1336 -0.0328 -0.0907
95867W        W38858  17.929  19.608  28.930  0.2566  0.0359  0.2211
95868W        W38859  22.312  24.616   8.982  0.2374  0.1302  0.0898
95869W        W38860   8.617  22.249   9.998  0.0274 -0.0049  0.3553
95870W        W38861   3.897  20.272   8.023  0.0046  0.1598  0.0893
95871W        W38862   9.427  31.683  29.220  0.0280 -0.3382  0.2822
95872W        W38863  12.938  32.704   0.148 -0.1020 -0.0081  0.2858
95873W        W38864   9.671  25.948   0.058  0.0479 -0.1326 -0.1485
95874W        W38865  16.088   1.113   5.662 -0.1031 -0.1154  0.0156
95875W        W38866   1.769  17.777   9.215  0.3070  0.1767 -0.3164
95876W        W38867  15.382  18.295   9.194 -0.0656  0.2435  0.1949
95877W        W38868  17.198  28.999   7.354 -0.0582  0.1212 -0.0893
95878W        W38869   4.885  20.009   1.861  0.4550  0.0643  0.1035
95879W        W38870  30.294  15.210   5.627  0.1590 -0.2454 -0.0633
95880W        W38871  31.287  33.323   3.258 -0.0933  0.2467 -0.1818
95881W        W38872  16.315   5.629   4.033 -0.2150 -0.1114  0.0918
95882W        W38873  28.678   7.696  27.989 -0.0328 -0.1118  0.3125
95883W        W38874   6.756  23.701  21.855  0.0840 -0.4175  0.1169
95884W        W38875   5.293  17.800   7.600 -0.0331 -0.1950  0.1247
95885W        W38876   3.477   7.941   1.976 -0.0438 -0.2381 -0.3571
95886W        W38877   8.649  28.336   3.977  0.2245  0.1340  0.0067
95887W        W38878  18.741  17.373   7.701  0.0451 -0.1262 -0.3992
95888W        W38879   5.007  27.231   1.466  0.2584 -0.2140  0.1935
95889W        W38880  31.021  25.624   3.228  0.0841  0.1393 -0.0048
95890W        W38881   9.036  26.033  25.476 -0.0453  0.1582  0.0520
95891W        W38882  25.687   6.652   0.650  0.0299 -0.1216 -0.0025
95892W        W38883  21.252  19.600  26.373  0.2298  0.0138  0.1130
95893W        W38884   5.465  25.404   4.331 -0.0757  0.1423 -0.1287
95894W        W38885  16.529  26.475  27.079 -0.0331 -0.0775 -0.1863
95895W        W38886  18.576  25.164   9.043 -0.3071 -0.0850 -0.4002
95896W        W38887   2.699  10.152   6.492  0.0572 -0.1486 -0.1358
95897W        W38888   7.164  27.773  26.144  0.2949  0.2029  0.0076
95898W        W38889  28.586   7.987  28.397  0.1406  0.0724  0.0179
95899W        W38890  12.200  15.421   4.500 -0.0453  0.0089 -0.3352
95900W        W38891  11.527  24.539   2.916  0.0739  0.2544 -0.1251
95901W        W38892   3.444  32.021   7.590  0.0163  0.0454  0.0404
95902W        W38893  12.234  27.992   7.639 -0.2782 -0.0135  0.1528
95903W        W38894  20.013  24.343  26.345 -0.3134  0.2007  0.0980
95904W        W38895  11.741  14.843   3.237  0.0439  0.2521 -0.0833
95905W        W38896  27.649   0.622  13.266  0.1022 -0.1193  0.1091
95906W        W38897  10.184   1.221   3.192  0.3413  0.2533  0.1636
95907W        W38898   5.719  32.036   4.437  0.0285 -0.0691  0.3215
95908W        W38899  10.422  22.173  22.939 -0.2953 -0.3486  0.0167
95909W        W38900   8.149  27.644   5.676 -0.0194  0.0599  0.0725
95910W        W38901  25.933  14.631  19.115  0.2117 -0.2885  0.2257
95911W        W38902  21.535  33.980   0.733 -0.1048 -0.1759  0.4667
95912W        W38903  10.249  28.292  21.373  0.1212 -0.2893  0.1287
95913W        W38904  15.035   2.432   7.878 -0.1152  0.1533 -0.2152
95914W        W38905  22.435  30.414  22.118 -0.0595 -0.1378  0.2175
95915W        W38906  18.801  18.822   5.373 -0.2023 -0.3179  0.1970
95916W        W38907  33.647  27.361   5.726 -0.1408 -0.2231 -0.2981
95917W        W38908   6.175   0.763   3.490 -0.0857  0.0626 -0.2796
95918W        W38909  11.163  22.646   7.708  0.0027 -0.0710  0.1465
95919W        W38910  19.604  21.322   1.864 -0.0298  0.2039  0.0413
95920W        W38911  10.541  22.810   7.088 -0.4654  0.0066 -0.1028
95921W        W38912   5.711  26.253  27.662  0.1717 -0.2403  0.0298
95922W        W38913  26.739   2.777   7.245  0.4999  0.4305  0.0998
95923W        W38914  21.274   0.673  23.798 -0.2122 -0.1060  0.1054
95924W        W38915   7.297  21.333   5.533 -0.2434 -0.1966 -0.0476
95925W        W38916   9.603  26.420   6.820 -0.1464  0.1726  0.1270
95926W        W38917   4.759  25.917   6.050  0.0475  0.0211  0.4403
95927W        W38918  12.382  12.411  18.836  0.0512 -0.1824 -0.2161
95928W        W38919  18.135  17.510   7.934  0.0607 -0.0202 -0.1695
95929W        W38920   5.965  29.108  27.427  0.1504  0.1434 -0.2216
95930W        W38921  12.233  27.293   9.122 -0.2129 -0.2244  0.2236
95931W        W38922  23.669  33.320   6.477 -0.3233 -0.4351  0.3689
95932W        W38923  13.419  34.314   9.918 -0.2648  0.1632 -0.2157
95933W        W38924  11.442  33.093  28.781 -0.0400  0.1962 -0.2895
95934W        W38925  12.882  28.560  25.101  0.0810 -0.0610  0.1261
95935W        W38926  18.106  13.270  25.209  0.3451  0.0744  0.1259
95936W        W38927   9.773  32.598   2.521 -0.1011  0.0262  0.1902
95937W        W38928  18.910  25.226   8.148 -0.1480  0.0619  0.0371
95938W        W38929  16.056  26.459  24.470 -0.1085  0.2311 -0.1055
95939W        W38930  16.688  16.541  26.044  0.1239  0.0506 -0.0829
95940W        W38931   4.477   4.259   9.471 -0.2899  0.2057 -0.1127
95941W        W38932  15.379  18.606  26.204 -0.1574  0.1216 -0.2736
95942W        W38933  24.692  28.546   6.881 -0.2173  0.2257  0.2798
95943W        W38934   3.646  32.864   0.593  0.3044  0.1154 -0.0133
95944W        W38935  20.508  34.731   7.559  0.2873  0.1659  0.0161
95945W        W38936  10.335  14.360   2.075  0.1087  0.1311 -0.1255
95946W        W38937  24.621  14.222   3.500  0.2531 -0.2264 -0.1160
95947W        W38938  12.557   5.316  27.011  0.0748  0.0089  0.0571
95948W        W38939  25.858  29.580   7.750  0.3902  0.0451 -0.0031
95949W        W38940   0.451  20.350   9.320 -0.2090  0.2517  0.3103
95950W        W38941   8.733  21.323   4.501 -0.0960  0.2846  0.2281
95951W        W38942  21.205  29.812   8.833  0.1899 -0.2036 -0.0901
95952W        W38943  25.327  26.441   9.031  0.3067 -0.2326 -0.0526
95953W        W38944  16.016  19.374  28.283  0.0459 -0.0787  0.3573
95954W        W38945   8.746  30.100   5.122 -0.2820  0.1341  0.0039
95955W        W38946  20.224  27.807   3.939  0.0083 -0.1290  0.2287
95956W        W38947  11.777  19.915  22.969 -0.0643 -0.1844  0.0290
95957W        W38948   3.702   3.191  27.952  0.0036 -0.5420  0.0345
95958W        W38949  11.934   6.382   7.629  0.5338  0.2922  0.0176
95959W        W38950   3.612  19.285   4.808  0.1863  0.1293  0.3002
95960W        W38951  15.642  23.866   5.323 -0.0890 -0.2867 -0.0087
95961W        W38952  14.173  33.749  17.926 -0.3355  0.1074 -0.2612
95962W        W38953  17.886  23.770   3.545 -0.1726  0.2814 -0.0981
95963W        W38954   0.685  30.036  20.988 -0.1050 -0.0530  0.3082
95964W        W38955  18.237  24.052  28.761 -0.0161 -0.0313  0.1988
95965W        W38956   2.989  14.104   4.114  0.0992  0.2255  0.1869
95966W        W38957  17.203   1.850   3.895  0.1558 -0.0779 -0.0499
95967W        W38958  34.331  23.742   9.781 -0.0115 -0.2023  0.1000
95968W        W38959   3.420  34.624   1.387  0.2036  0.2190 -0.3012
95969W        W38960  29.155   5.647   7.407 -0.2063  0.0691  0.1921
95970W        W38961  16.838  15.205   7.475  0.3141  0.1633 -0.1235
95971W        W38962  33.526   4.057   5.960  0.1444  0.1847 -0.1453
95972W        W38963  16.135   3.044   5.085  0.0340 -0.0630 -0.2193
95973W        W38964  10.457  15.789   2.166 -0.3689  0.3523 -0.0619
95974W        W38965  10.423  30.274  27.573  0.2777 -0.0510  0.0142
95975W        W38966  12.672  26.526   9.167  0.0691  0.0070  0.1465
95976W        W38967   8.022  28.383  26.244 -0.1770 -0.0951 -0.1268
95977W        W38968  10.006  20.688   1.009  0.2519 -0.1065  0.2997
95978W        W38969  14.529  32.463   6.896  0.1547 -0.1682  0.1373
95979W        W38970  29.494   3.695   6.136  0.1619 -0.2070  0.0191
95980W        W38971  11.795  26.945  25.344 -0.1844  0.2894 -0.0328
95981W        W38972  10.586  21.360   9.780  0.3508 -0.0764  0.0437
95982W        W38973   1.513   2.090   1.314  0.0984  0.1547  0.1775
95983W        W38974   8.193  31.619  26.935  0.0607 -0.0184 -0.0722
95984W        W38975  26.530  28.365   5.899  0.2517 -0.2188  0.1776
95985W        W38976   3.145  16.146   0.954  0.0839  0.1462 -0.0535
95986W        W38977  11.398  15.680   7.345 -0.0405 -0.0145 -0.0082
95987W        W38978  24.395  23.724   5.884 -0.0284 -0.2559 -0.1454
95988W        W38979  20.020  24.080  27.380 -0.0435 -0.2799 -0.1487
95989W        W38980  13.987   2.262   5.584  0.2082  0.1847 -0.2782
95990W        W38981   2.665  18.798   3.909  0.3468  0.0355  0.1447
95991W        W38982  24.631  11.121   6.577  0.0974  0.2557 -0.0946
95992W        W38983  22.642  23.509  24.122 -0.0356 -0.1186 -0.0259
95993W        W38984  18.136  17.401   1.491 -0.1774 -0.0327  0.2162
95994W        W38985  16.679  28.453  17.829 -0.0479  0.2599 -0.1211
95995W        W38986  29.118  11.697   6.365 -0.4147 -0.3571  0.0993
95996W        W38987  14.589  33.463   9.737 -0.0985  0.2989  0.0623
95997W        W38988  14.358  29.204   6.150 -0.0052  0.1996 -0.1695
95998W        W38989   9.875  17.842  28.976 -0.1488 -0.1915  0.1127
95999W        W38990   6.042  31.971   0.132 -0.2516 -0.1690 -0.0785
96000W        W38991  30.930  24.510   3.669  0.2318  0.1714 -0.1140
96001W        W38992  20.634  26.814  28.542 -0.1803 -0.1004 -0.0794
96002W        W38993   5.999  31.037   9.518  0.2247 -0.0144  0.0771
96003W        W38994  21.982  18.929   3.760  0.1448 -0.1860  0.0347
96004W        W38995  26.092  21.015  16.100 -0.2124  0.0601 -0.2711
96005W        W38996  17.207  10.713  24.677 -0.0338  0.0900 -0.0937
96006W        W38997  10.316  18.744   0.477 -0.1245  0.0591 -0.1821
96007W        W38998   9.316  18.324   3.399 -0.3067 -0.0912  0.5920
96008W        W38999   7.277   1.902   9.224  0.2202  0.1865 -0.0252
96009W        W39000   9.573  31.144  28.381  0.0683 -0.3270 -0.0734
96010W        W39001  25.537  25.684   8.332 -0.2201 -0.1043 -0.3237
96011W        W39002  10.271  28.046  26.319  0.0288  0.1927  0.0594
96012W        W39003   3.953  24.912  26.346 -0.1987  0.1213 -0.1001
96013W        W39004  15.890  28.974  27.010 -0.1792  0.1544  0.0099
96014W        W39005   3.125  30.252   5.342  0.4429  0.3217  0.0245
96015W        W39006  16.113  20.701   6.830  0.2443  0.3903  0.1147
96016W        W39007   8.311  11.804   2.720  0.3393  0.0547  0.3740
96017W        W39008   3.946  15.315   5.535  0.1832 -0.0543 -0.0524
96018W        W39009  31.973  24.918   8.194 -0.2485  0.0243 -0.1931
96019W        W39010  16.814  27.481   1.090  0.0431 -0.0407  0.0055
96020W        W39011   8.667  15.410  25.583 -0.3239 -0.2825 -0.0415
96021W        W39012  32.105   5.243   3.914 -0.0917  0.1545 -0.0052
96022W        W39013   0.317  19.897   7.689 -0.1057 -0.0031 -0.0016
96023W        W39014   7.754  29.330   3.909 -0.0278  0.1133  0.1696
96024W        W39015  16.279  18.796   0.484 -0.2037 -0.3322 -0.0341
96025W        W39016  25.901  23.800   3.153 -0.3324  0.0103 -0.2957
96026W        W39017  32.149  23.245   7.379 -0.0137 -0.3203  0.0403
96027W        W39018  20.010   6.482   3.453 -0.1905 -0.1256  0.1443
96028W        W39019  11.379  30.532   8.284  0.0699 -0.0856  0.2463
96029W        W39020  24.620   3.850  26.989  0.1869  0.0539  0.4874
96030W        W39021   7.176  30.106   0.162 -0.0368 -0.0792  0.0613
96031W        W39022  24.197  24.000  24.039  0.1726 -0.2603 -0.2495
96032W        W39023  11.314  12.084   6.315  0.1129  0.1882  0.1625
96033W        W39024  14.579  19.851   5.917  0.3327 -0.1238  0.2368
96034W        W39025  10.020  21.991   9.119  0.1946  0.1057  0.0763
96035W        W39026  15.439  28.395   2.407  0.0091 -0.0823 -0.1888
96036W        W39027  12.783  23.298   6.042  0.0078  0.2609 -0.1214
96037W        W39028  16.419  33.490  22.991 -0.3284 -0.0253  0.1266
96038W        W39029  13.445  26.356  27.454 -0.2491 -0.0693 -0.2115
96039W        W39030  15.406  19.973  23.539 -0.3336 -0.1700 -0.2446
96040W        W39031   8.939  26.085  17.541  0.2362  0.0529 -0.0190
96041W        W39032  21.203  29.687   3.747  0.1089  0.0453 -0.0208
96042W        W39033  10.884  16.048   8.901  0.0821  0.0743  0.2012
96043W        W39034  15.709  16.915   6.412 -0.0575  0.2442  0.2165
96044W        W39035  23.279  28.159  29.162  0.0330  0.0471 -0.1356
96045W        W39036  12.232  23.318  28.933  0.0581  0.2193 -0.2054
96046W        W39037  11.842  31.664   4.638 -0.2541  0.0136  0.0866
96047W        W39038   9.015  30.821  21.456 -0.2260 -0.0577 -0.2030
96048W        W39039  21.142   6.718   8.945 -0.2574 -0.2063 -0.3575
96049W        W39040   9.885  30.362  10.352 -0.0198  0.1529  0.2019
96050W        W39041   7.412  16.450   0.985  0.0195 -0.1450 -0.0131
96051W        W39042  23.269  21.449  23.224  0.3069 -0.2608  0.5880
96052W        W39043   2.638   1.249   3.699 -0.1051  0.3773 -0.1169
96053W        W39044   9.812  32.421   6.140 -0.1363  0.0262  0.0481
96054W        W39045  33.480  31.508   8.979  0.0168 -0.0604  0.4113
96055W        W39046   7.503  18.447   2.249  0.0696  0.3232 -0.0754
96056W        W39047  12.487  34.042  26.529  0.2149 -0.1345 -0.1282
96057W        W39048  13.977   4.605  26.739 -0.1069 -0.3795 -0.1892
96058W        W39049   6.794   0.095   8.892 -0.1200  0.0417 -0.1490
96059W        W39050   3.396  13.307   8.860  0.2891  0.1286 -0.0555
96060W        W39051  17.122  30.475   3.802  0.0079  0.0590  0.0891
96061W        W39052  20.407  27.187  27.524  0.2957  0.3161  0.3259
96062W        W39053  20.698  28.001   6.235  0.2155 -0.0567 -0.1737
96063W        W39054  10.433  31.591   3.714  0.0030  0.1436 -0.1848
96064W        W39055  14.354  13.821   9.094 -0.2376  0.0330 -0.0128
96065W        W39056  25.471  32.448  26.158  0.0835  0.0680  0.0107
96066W        W39057   6.718  27.195  27.755 -0.0522 -0.1164 -0.1628
96067W        W39058  34.076  23.048  10.479  0.2070 -0.1966 -0.1751
96068W        W39059  27.393  26.045  28.728 -0.0695 -0.2050 -0.2194
96069W        W39060  16.172  26.227  28.733 -0.1570  0.0277 -0.0665
96070W        W39061  25.547  25.882   2.133  0.0014  0.1473 -0.1330
96071W        W39062   5.043  25.177   9.673  0.0667 -0.0642 -0.0808
96072W        W39063  30.434   4.758  28.782  0.0867 -0.3147  0.1009
96073W        W39064   6.304   2.984  10.604  0.2819 -0.0076  0.2195
96074W        W39065  28.349  26.412  14.900 -0.1058 -0.0932  0.0754
96075W        W39066   3.883  19.386   7.926  0.0048  0.0446 -0.0563
96076W        W39067  24.002  23.891   5.543 -0.3626  0.0557  0.2961
96077W        W39068  12.647  21.595   9.925 -0.0861 -0.2964  0.0666
96078W        W39069  13.400  18.699  21.055  0.2142 -0.2549 -0.1547
96079W        W39070  32.176  22.949  24.730 -0.3618 -0.2580 -0.0175
96080W        W39071  15.410   5.613   7.382 -0.2392  0.2088 -0.0123
96081W        W39072  20.074  20.599  27.576 -0.1152  0.0766  0.1335
96082W        W39073  32.774  24.182   6.211  0.1580  0.0529 -0.0010
96083W        W39074  11.504  26.914   3.293 -0.2768 -0.1348  0.2363
96084W        W39075  18.386  22.785   5.746  0.2478  0.3429  0.0317
96085W        W39076  29.375  17.139   8.072  0.1709 -0.1755  0.0799
96086W        W39077  11.027  32.532   0.224 -0.0837 -0.0803 -0.2176
96087W        W39078   9.120  22.789  27.335  0.1674 -0.3755 -0.2009
96088W        W39079  26.534   0.079   3.112 -0.0209 -0.1409  0.0661
96089W        W39080  22.879  19.936  26.158  0.2166  0.2614  0.2390
96090W        W39081  13.205  20.195  16.596  0.0584 -0.0604  0.1018
96091W        W39082  20.057  12.090  14.689 -0.1847 -0.1148  0.3252
96092W        W39083  34.439  19.184   5.303  0.2067 -0.0347 -0.1427
96093W        W39084  22.818   1.043   4.315 -0.1124  0.1183 -0.0402
96094W        W39085   2.627  28.352   4.547  0.1876 -0.3593  0.0542
96095W        W39086  23.244  26.941  27.357  0.1543  0.0852  0.0620
96096W        W39087  22.974  33.986   1.243  0.2568 -0.0345 -0.1387
96097W        W39088  19.458  33.195  22.698 -0.3335 -0.1023 -0.0737
96098W        W39089  17.150  31.616   6.582 -0.0451 -0.0885  0.0599
96099W        W39090  24.071  32.457  28.585 -0.1860 -0.0473  0.4272
96100W        W39091   3.905  32.618   9.069  0.0180  0.0139 -0.0059
96101W        W39092  23.026   7.421   5.663  0.1278 -0.0988 -0.0517
96102W        W39093   1.296  20.145   9.031  0.2756 -0.0447 -0.0251
96103W        W39094  11.219  14.097   2.512 -0.1174  0.1109  0.1670
96104W        W39095  16.060  25.932   2.876  0.0643 -0.0954  0.1413
96105W        W39096  31.348  27.324   0.925  0.0070 -0.4222  0.2233
96106W        W39097  15.980  20.708   1.818  0.0872 -0.1161 -0.4625
96107W        W39098  18.535  22.536   9.072 -0.0827 -0.4168 -0.1364
96108W        W39099  17.696  20.495   1.318 -0.1198  0.0559  0.1284
96109W        W39100   7.967  21.620  10.061 -0.0552  0.0585  0.0791
96110W        W39101   0.880  28.567  28.975  0.0234 -0.0953 -0.1202
96111W        W39102  20.455   0.179   6.824 -0.0596 -0.2234  0.0337
96112W        W39103  33.365   1.462  28.444  0.0689 -0.2581  0.2679
96113W        W39104  10.204  23.404   7.815 -0.1154 -0.2386 -0.0605
96114W        W39105  16.013  34.337   8.110  0.0623 -0.0607 -0.1151
96115W        W39106  13.374  17.879  26.898  0.3793  0.1683  0.1119
96116W        W39107   9.184  18.834   6.032  0.0418 -0.0326 -0.0100
96117W        W39108  17.053   5.130   2.960  0.1495  0.2203  0.0276
96118W        W39109   6.944  25.400   6.105  0.2254 -0.1048 -0.1108
96119W        W39110  17.418  19.824   1.630  0.2848 -0.3616 -0.1704
96120W        W39111  12.089  11.355  27.847  0.1619 -0.0062  0.0593
96121W        W39112   8.022   5.668  24.316 -0.1049 -0.0536  0.1376
96122W        W39113   0.579  31.130  27.031  0.1658 -0.0525  0.3417
96123W        W39114  18.235  24.218  29.228  0.2714 -0.1423 -0.0217
96124W        W39115  15.880   5.183   8.820  0.0413  0.0201  0.1742
96125W        W39116  15.307   0.742   1.946  0.0210  0.6351  0.3432
96126W        W39117  10.748  22.993  10.578  0.1883 -0.0420 -0.0509
96127W        W39118   0.144  22.005   9.758  0.0487 -0.0346 -0.3334
96128W        W39119  18.422   7.074   4.055 -0.1178  0.2022  0.0945
96129W        W39120  19.419  28.070  19.749 -0.1433  0.0338  0.1507
96130W        W39121  21.209   8.252   8.113  0.0535 -0.3793  0.1596
96131W        W39122  23.426  22.112   5.561 -0.0051  0.2614 -0.3565
96132W        W39123   9.523  18.224   5.875  0.2902 -0.2222  0.0470
96133W        W39124   3.907  25.804   2.409 -0.0582 -0.1919  0.0332
96134W        W39125  26.173  24.782  27.216  0.1426  0.0688  0.1734
96135W        W39126  16.109  17.166  29.263 -0.3620 -0.2932 -0.1377
96136W        W39127  24.387  20.483   6.779 -0.0079  0.3356  0.0033
96137W        W39128  15.338  17.818  24.998  0.1081 -0.0034  0.0244
96138W        W39129   5.430  31.656  23.156 -0.4467 -0.2885 -0.1040
96139W        W39130   5.206  23.410   2.258  0.2422  0.0945 -0.1602
96140W        W39131   9.700  12.214   5.386  0.3524 -0.3718 -0.1223
96141W        W39132  14.001  26.269   1.251 -0.4747 -0.0230 -0.1331
96142W        W39133  11.601  22.514  10.777  0.1462  0.0180 -0.3359
96143W        W39134  31.961  10.092  28.698  0.1787  0.1251 -0.3648
96144W        W39135   9.670  15.118  21.652  0.1116  0.2625  0.1822
96145W        W39136  30.476  29.564   3.533  0.0379  0.0456 -0.1606
96146W        W39137   6.930  25.023   5.744 -0.1098 -0.2243  0.1549
96147W        W39138   9.581  19.198  18.510 -0.2206 -0.1477  0.0745
96148W        W39139  10.194  22.684  27.336  0.0302 -0.1497  0.2778
96149W        W39140  16.536  23.137   8.306 -0.4588  0.2551  0.0101
96150W        W39141  20.915  24.655  23.195  0.0107  0.3169 -0.0239
96151W        W39142  15.638   3.570   0.534  0.3250 -0.1195 -0.2767
96152W        W39143  34.478  29.864   9.816  0.0797 -0.2544  0.0540
96153W        W39144  16.655  26.858   2.919 -0.0483  0.0846 -0.1769
96154W        W39145   9.257  15.647   8.145 -0.0939  0.0149 -0.0730
96155W        W39146  11.113  10.559   5.780 -0.0858 -0.0025  0.0068
96156W        W39147  20.884  20.810  20.255  0.0348 -0.0409 -0.1466
96157W        W39148  20.903   6.736   1.796  0.0375 -0.1009 -0.1759
96158W        W39149  33.788  24.832   1.728  0.0669  0.1470 -0.2873
96159W        W39150   6.687   6.150   9.759 -0.0188  0.1037 -0.0241
96160W        W39151   2.455  26.475  28.077  0.0537 -0.0882 -0.1899
96161W        W39152   8.698  14.584   1.051 -0.1854  0.1998  0.0296
96162W        W39153  34.489  24.490   6.430 -0.2491 -0.0234 -0.1317
96163W        W39154  15.112   0.204   0.601 -0.0543 -0.0897 -0.0493
96164W        W39155   1.590   3.041   5.733 -0.1218 -0.0603 -0.2427
96165W        W39156  32.767  34.380   7.399 -0.0712 -0.1475 -0.2209
96166W        W39157  28.015  29.078  29.164 -0.2866 -0.2188 -0.2721
96167W        W39158  11.493  34.421  28.457 -0.1626  0.0266 -0.0559
96168W        W39159   3.783  33.999   9.626  0.1264  0.0265  0.1775
96169W        W39160   7.439  34.696  22.583  0.4207  0.0682 -0.3300
96170W        W39161   6.816  30.061  27.070 -0.0475 -0.1291  0.0805
96171W        W39162  12.893  32.789   9.421 -0.1181 -0.1525 -0.2412
96172W        W39163   0.469  20.665  27.089 -0.1762 -0.0165  0.3093
96173W        W39164  24.011  25.960   1.388  0.0124  0.2188 -0.1130
96174W        W39165   5.244   7.639   1.202 -0.1247 -0.5624 -0.2280
96175W        W39166  26.034   5.790   8.348  0.1743 -0.2528 -0.1000
96176W        W39167  19.021  19.123  25.380 -0.0371 -0.2408 -0.3060
96177W        W39168  15.067  19.652  28.343  0.3800 -0.0762  0.0948
96178W        W39169  11.627  11.820  10.938  0.3565  0.2367  0.1914
96179W        W39170   5.283   6.219  24.171  0.4959 -0.0277 -0.2605
96180W        W39171  17.463  24.719   1.261 -0.0724  0.0295  0.0491
96181W        W39172  16.337  32.025  24.401 -0.0605 -0.0254 -0.3497
96182W        W39173   7.332  26.462   3.783 -0.1251 -0.0096 -0.4896
96183W        W39174  18.602  24.119   3.255  0.0918  0.0972  0.2050
96184W        W39175  13.315  28.404   6.161  0.3011 -0.0609 -0.5903
96185W        W39176  11.176   0.411   8.067  0.0484  0.0069  0.1138
96186W        W39177   5.249  23.084  21.297  0.0873 -0.1959  0.0639
96187W        W39178   8.720  31.210  15.954  0.0029  0.6082  0.2551
96188W        W39179  11.108   2.957  17.281  0.2742 -0.2559  0.0387
96189W        W39180  11.458  25.946  22.365 -0.2853  0.1672  0.4325
96190W        W39181  32.590   9.297  26.665  0.0835  0.1073  0.2586
96191W        W39182  30.155  18.556  28.676  0.0182 -0.2072  0.1542
96192W        W39183  18.003   5.285   9.400 -0.0888 -0.1804 -0.1314
96193W        W39184   3.774  12.605   4.189 -0.0320  0.0027 -0.0303
96194W        W39185  26.062   4.086  16.154 -0.3190  0.0823  0.3421
96195W        W39186  23.351  10.224   4.246  0.3688 -0.2191 -0.0433
96196W        W39187  14.197  22.905  28.602  0.1235 -0.0303  0.2956
96197W        W39188   8.478  32.751   6.513  0.3196 -0.0642 -0.2287
96198W        W39189  22.145  14.618   8.650 -0.6383 -0.0133 -0.0097
96199W        W39190  14.592  31.268  14.808  0.2012  0.0006 -0.0637
96200W        W39191   9.195   3.626   8.175  0.0134  0.1441  0.0314
96201W        W39192   4.727  33.000   1.876 -0.0120  0.0601 -0.1774
96202W        W39193  17.728  34.760   5.809  0.1779 -0.0009  0.1411
96203W        W39194   8.436   0.363  25.466 -0.1473  0.1021 -0.0710
96204W        W39195  26.403  20.281   1.288 -0.0590  0.0168 -0.1531
96205W        W39196  21.126  30.696   6.570 -0.1901 -0.1362 -0.1496
96206W        W39197  12.387  22.389   4.600  0.0973 -0.0133  0.2567
96207W        W39198  23.400  26.051  22.950  0.2042  0.1387 -0.2868
96208W        W39199  19.373  23.624  27.614  0.3390  0.2021  0.5437
96209W        W39200  21.045   6.544  25.632 -0.3538 -0.0178 -0.4403
96210W        W39201   8.052  12.872   0.626 -0.0527  0.0542  0.1043
96211W        W39202   8.821   4.116   6.981 -0.3662  0.0713 -0.2411
96212W        W39203   1.651  19.367  29.193 -0.4296 -0.1151 -0.0380
96213W        W39204  28.906  24.221   7.439  0.1771 -0.2275  0.3759
96214W        W39205  22.272  30.650  14.249  0.0636  0.2339 -0.1709
96215W        W39206  32.722  11.533  27.607 -0.1167  0.1780  0.2782
96216W        W39207   4.138  10.196   3.332  0.0841 -0.1582 -0.2510
96217W        W39208  26.487   7.752   4.495  0.0460 -0.3092  0.2809
96218W        W39209   7.513   7.982   7.005 -0.1746  0.1181  0.0934
96219W        W39210  13.567  23.837   7.151 -0.1149 -0.0867  0.0115
96220W        W39211  30.784  21.254  18.028  0.2508  0.3086  0.1682
96221W        W39212   0.539  11.844   5.446 -0.5048 -0.0681  0.0534
96222W        W39213  12.516  18.027   0.653  0.2680  0.0048  0.1811
96223W        W39214  20.742  34.430   2.567 -0.2306  0.3393  0.3197
96224W        W39215  11.019  34.436  20.816  0.1975 -0.1406 -0.4379
96225W        W39216  24.946   6.675  26.194 -0.3258  0.0768 -0.3828
96226W        W39217  16.821   5.750   1.224 -0.1245  0.1676 -0.2664
96227W        W39218  33.965  30.024  22.897  0.3081 -0.1636  0.1766
96228W        W39219  24.015  31.536   7.866  0.3175  0.3192  0.2248
96229W        W39220  16.478   4.717  10.094 -0.0289  0.0364  0.1478
96230W        W39221   5.027  25.216  24.524 -0.1633  0.2935 -0.0829
96231W        W39222  33.994  26.257   0.682 -0.1685 -0.1367 -0.1140
96232W        W39223   6.361   2.561  10.052 -0.1220 -0.1249  0.0221
96233W        W39224  22.006  10.658  29.212 -0.3077 -0.0050  0.1086
96234W        W39225   3.423   2.187  10.485  0.2572 -0.0299  0.0726
96235W        W39226  15.848  20.915  25.661 -0.0096  0.0790 -0.4132
96236W        W39227  15.417  26.058  19.830  0.3267 -0.2059  0.2356
96237W        W39228  13.370  25.650  28.171  0.0709 -0.0595 -0.0453
96238W        W39229  32.283  31.317  24.835 -0.0039  0.1735 -0.1011
96239W        W39230  15.844   0.423  17.166 -0.0812 -0.0994 -0.0230
96240W        W39231  12.975   1.401  25.013  0.2256 -0.2205 -0.2385
96241W        W39232   3.452   3.704   8.206  0.2820 -0.6490 -0.0543
96242W        W39233  15.912  10.182  27.687 -0.2583 -0.2827 -0.1370
96243W        W39234  22.916   0.350  28.826  0.1491 -0.2915  0.0268
96244W        W39235  11.822  25.029   9.403 -0.3940  0.1204 -0.2883
96245W        W39236  18.379  26.110   5.279 -0.2196 -0.3312 -0.1012
96246W        W39237   1.980  27.260   3.920 -0.1299 -0.0564 -0.0008
96247W        W39238  22.159  25.653   8.865 -0.0125 -0.0979  0.0402
96248W        W39239  33.905  24.235   9.837  0.1277  0.0314  0.0766
96249W        W39240  14.868  15.834   1.621 -0.0775 -0.3035  0.2914
96250W        W39241   7.135  30.819   5.846  0.1676 -0.0336 -0.1061
96251W        W39242  15.943  22.383   0.182  0.2313  0.1518  0.1127
96252W        W39243  20.151  24.175   6.965 -0.1726  0.1770  0.2397
96253W        W39244  15.941  22.655  24.342 -0.3756 -0.2519  0.1189
96254W        W39245  12.668  30.801   1.350  0.0972  0.2546  0.0460
96255W        W39246  14.833  27.408   1.830  0.1229  0.1366  0.3395
96256W        W39247  13.946  20.015   6.948  0.3798 -0.3010  0.1668
96257W        W39248  31.909  26.809   1.740  0.0069  0.0819  0.1393
96258W        W39249  12.837   8.685  25.180  0.1691  0.0904 -0.1343
96259W        W39250   6.927  18.348   0.776 -0.2156  0.0525 -0.2463
96260W        W39251  21.111  24.191   6.647 -0.2038  0.0584 -0.3043
96261W        W39252   0.555  17.416   9.433 -0.0016  0.0623 -0.0702
96262W        W39253  28.973   0.654  27.097 -0.1728 -0.4118 -0.3924
96263W        W39254  17.099  20.179  13.146  0.1686 -0.0796 -0.2155
96264W        W39255  31.408  20.251  21.961  0.0074  0.1949 -0.0078
96265W        W39256  16.381  16.081   6.814  0.0752  0.2919  0.2405
96266W        W39257   8.766   2.359  22.893  0.0050 -0.0259 -0.0428
96267W        W39258   6.754  17.338  10.924  0.2197  0.1902 -0.0130
96268W        W39259  15.107  23.062   5.168 -0.0354  0.0076 -0.0501
96269W        W39260  22.058   4.313  24.730 -0.2185 -0.0882  0.2559
96270W        W39261  24.649  26.363  24.455  0.5737 -0.0885  0.1262
96271W        W39262  30.038  19.116  28.593 -0.1527  0.2503  0.0116
96272W        W39263   0.013  18.050   3.868 -0.0935 -0.0435  0.0257
96273W        W39264  12.868  13.631  18.196  0.2058  0.1019 -0.1286
96274W        W39265  33.760  11.475  28.628 -0.1021  0.1845  0.0866
96275W        W39266  34.269  14.489  26.600 -0.0752 -0.0519 -0.2056
96276W        W39267  24.771  30.160  22.174 -0.0078  0.0631  0.0856
96277W        W39268   9.791  23.937  17.234  0.2541  0.1513  0.2144
96278W        W39269  31.309  20.876   5.508 -0.0326 -0.0388  0.0610
96279W        W39270  10.050  23.475  27.310  0.1087 -0.1888  0.0480
96280W        W39271   4.987   1.696  24.266 -0.0047  0.1348  0.1147
96281W        W39272   1.205  16.942   7.816 -0.0675  0.0003 -0.1833
96282W        W39273   3.749  28.749  27.303  0.2695  0.2486  0.0275
96283W        W39274  10.462   7.233   0.122  0.1769 -0.3299  0.1524
96284W        W39275  14.398  31.300   1.520 -0.0581 -0.0341  0.2846
96285W        W39276  11.243  24.605   8.490  0.3178  0.0189 -0.0087
96286W        W39277   7.602  25.094  26.663 -0.2530  0.2174 -0.1008
96287W        W39278  20.566  18.176   4.214  0.0282 -0.2912 -0.2644
96288W        W39279  14.579  25.046  26.109  0.0940  0.1423  0.0422
96289W        W39280   1.737  28.110   0.542 -0.1786 -0.0916 -0.1001
96290W        W39281  21.635   5.721   8.191  0.0479  0.1421 -0.0638
96291W        W39282  18.376  20.993   1.403  0.2580 -0.2066 -0.1450
96292W        W39283  11.113   2.118  24.021  0.3607 -0.0214  0.0478
96293W        W39284   8.896   0.044   8.729  0.3514 -0.1707 -0.3337
96294W        W39285   7.338  28.481   8.540  0.0336 -0.1548 -0.0636
96295W        W39286  13.863   2.573   8.527 -0.0576 -0.0526  0.1781
96296W        W39287  34.436  23.489   2.451 -0.0692  0.0736  0.0309
96297W        W39288   6.727   4.241  21.589 -0.1017 -0.0903  0.0456
96298W        W39289  18.973  31.450   7.051 -0.1152  0.3182 -0.2289
96299W        W39290  12.300  25.927  22.297  0.1907 -0.3027 -0.1179
96300W        W39291  20.046  14.164  18.077 -0.0612  0.0574  0.0132
96301W        W39292  29.506   2.778   8.740 -0.2443  0.1632  0.0665
96302W        W39293  11.409  14.252   1.217 -0.1306 -0.1270  0.1378
96303W        W39294  25.517  32.316   1.108  0.0625 -0.0157 -0.0706
96304W        W39295  15.522  18.752  14.846 -0.2374 -0.2685 -0.0234
96305W        W39296  23.056   9.874   2.584  0.0826  0.0052 -0.0397
96306W        W39297  18.474  28.191  22.282  0.1610 -0.1647 -0.1194
96307W        W39298  19.135  12.864  24.387  0.3585  0.1358 -0.0789
96308W        W39299  11.936  26.696   1.083 -0.0813 -0.0293  0.2488
96309W        W39300  10.660   3.526  21.051  0.2612  0.0625  0.1189
96310W        W39301   1.313  19.817  24.069  0.0841 -0.0963 -0.1946
96311W        W39302   7.368   1.006   4.436 -0.2307  0.0944 -0.2447
96312W        W39303  15.331  18.667   0.114  0.0164 -0.1473  0.0604
96313W        W39304  20.121  13.786  27.923  0.0596 -0.2551  0.0509
96314W        W39305   6.321  26.376   4.581  0.2930 -0.0794  0.0653
96315W        W39306   4.029  21.692   6.398  0.1126  0.1909  0.2171
96316W        W39307  16.191  31.482   5.113  0.1180  0.1924  0.2487
96317W        W39308  12.354  31.815   8.021  0.0874  0.0384 -0.0896
96318W        W39309  33.203  24.147  24.075 -0.2687  0.1083  0.3835
96319W        W39310  12.621  29.457   2.616 -0.2835  0.1275  0.0371
96320W        W39311  21.162  17.135   6.330  0.0098  0.1487  0.0770
96321W        W39312  23.754   9.332   7.251  0.0050  0.0041  0.1484
96322W        W39313  14.392  16.457   2.852 -0.0175 -0.0262 -0.2559
96323W        W39314  23.489   0.577   4.929 -0.0250 -0.0799 -0.0612
96324W        W39315  14.723   3.504  28.342 -0.0340  0.0371 -0.0554
96325W        W39316  20.167  33.877   1.154  0.1138 -0.1567  0.1654
96326W        W39317  15.439  13.470   0.965  0.0178  0.1594 -0.0122
96327W        W39318  13.725  27.401   1.917  0.0435  0.2109 -0.1547
96328W        W39319   7.248   0.382  28.784  0.0324  0.1206  0.1435
96329W        W39320  26.714  33.410  15.859  0.1226 -0.0914 -0.2672
96330W        W39321  20.707   0.303  10.110  0.2413  0.1008  0.1609
96331W        W39322   3.308  15.864  28.466 -0.1803  0.3574  0.3772
96332W        W39323  21.980  21.001   2.257 -0.0985 -0.0221 -0.0316
96333W        W39324  16.668  19.101   1.580 -0.3700 -0.1431 -0.0027
96334W        W39325  22.091  17.654  14.792  0.0733 -0.0267 -0.3315
96335W        W39326  24.830   0.089   8.956  0.0513 -0.1405  0.1507
96336W        W39327  12.453  28.912   5.125  0.3606 -0.3057 -0.1233
96337W        W39328  13.766   0.220   4.697  0.1485  0.0467  0.1404
96338W        W39329  30.661   3.783  26.451 -0.2943 -0.0472  0.5744
96339W        W39330  10.782  31.346   9.963  0.2748 -0.1690  0.4673
96340W        W39331  32.775   2.743   2.020 -0.1216  0.0472 -0.0662
96341W        W39332  28.058  33.496   4.996 -0.0506 -0.1161  0.1219
96342W        W39333  10.296  31.621  20.819  0.1453 -0.3603  0.1158
96343W        W39334  13.394   8.447   6.634 -0.1030 -0.0030  0.0735
96344W        W39335   8.364  32.253  24.197  0.2649 -0.0023 -0.1728
96345W        W39336  28.329  27.028   3.502 -0.2709  0.1791 -0.0103
96346W        W39337  10.302  26.748  17.613  0.2097 -0.0324 -0.0345
96347W        W39338  18.971  13.632   2.524  0.1481 -0.1544 -0.1152
96348W        W39339  25.243   4.969   6.482 -0.0090  0.3616 -0.0781
96349W        W39340  22.332  31.318  14.166  0.1534 -0.1184  0.1637
96350W        W39341  14.853  34.097  23.307  0.1603  0.2153  0.1087
96351W        W39342   4.249  19.628  24.657  0.0318 -0.0609 -0.1129
96352W        W39343  17.115  14.047   2.418 -0.0950  0.2963 -0.0786
96353W        W39344  22.243  24.747   4.427 -0.0607 -0.1832 -0.0392
96354W        W39345  33.939   7.817  26.299 -0.3020  0.5426 -0.2516
96355W        W39346  24.154  28.352   3.812 -0.3045  0.1527  0.0519
96356W        W39347   8.987  30.856  22.065 -0.0564  0.0494  0.1268
96357W        W39348  14.242  22.311  20.449  0.1285  0.1189  0.2167
96358W        W39349  10.873  21.667  10.253  0.1957 -0.2033  0.1914
96359W        W39350   5.492  24.695  10.710  0.1909 -0.1797 -0.0375
96360W        W39351   2.339  10.564  11.603  0.2194  0.2959  0.1642
96361W        W39352   5.012  13.261  16.867  0.3115  0.1318 -0.1257
96362W        W39353  18.345  26.262   2.443 -0.0620 -0.2517  0.1056
96363W        W39354   1.738  32.628   2.592  0.5515 -0.1249  0.0720
96364W        W39355  11.805  31.663   7.431  0.1225  0.1596 -0.0894
96365W        W39356  16.371  11.299  19.953  0.2978  0.4177 -0.0115
96366W        W39357  12.706   1.622  23.584 -0.0008  0.1164 -0.0011
96367W        W39358   5.071  29.197  26.752  0.2182 -0.0862 -0.0190
96368W        W39359   5.232  34.040  22.242  0.0728  0.0125  0.1080
96369W        W39360  11.671  17.496   7.585  0.0908  0.1983  0.0010
96370W        W39361   3.745  13.885  17.164  0.0413 -0.1408  0.0014
96371W        W39362  34.026  26.308   6.087  0.0465  0.0307 -0.2527
96372W        W39363  33.851   4.834  25.371 -0.0304 -0.1291 -0.1403
96373W        W39364  29.711  19.313   3.121 -0.2256 -0.1959 -0.0558
96374W        W39365  27.586  24.053   3.242 -0.3244  0.1729  0.5113
96375W        W39366  18.549  24.716  23.786  0.1586 -0.1082  0.2996
96376W        W39367   8.274  25.141  28.840 -0.1591 -0.5371  0.0624
96377W        W39368  26.126  30.946  22.722 -0.3416 -0.0603 -0.1307
96378W        W39369  24.450  32.447   4.175  0.0726 -0.0391 -0.0160
96379W        W39370   9.882   6.372   4.126  0.1221 -0.3892  0.0587
96380W        W39371  18.420   6.488   8.659 -0.2342 -0.1168 -0.1584
96381W        W39372  16.254  26.575   1.298  0.1121  0.0832 -0.2618
96382W        W39373  25.699   0.638  25.439  0.1633 -0.1204  0.1664
96383W        W39374  15.779  22.900  21.042 -0.0583  0.0013  0.2282
96384W        W39375  34.201  32.533   8.882 -0.0835  0.3560 -0.3876
96385W        W39376   0.394  27.456  13.799  0.0294  0.1808  0.0472
96386W        W39377   8.050   6.208  28.512  0.0551  0.1500 -0.2872
96387W        W39378  20.552  33.667  24.798  0.0064  0.0445 -0.0035
96388W        W39379  30.916   8.646   0.742  0.1924 -0.5163 -0.0176
96389W        W39380  14.117   1.379  27.627  0.3714 -0.2266  0.0908
96390W        W39381  11.970  31.404   5.019 -0.0858 -0.0138 -0.0529
96391W        W39382   4.104  25.263   2.216  0.1989  0.0827 -0.1895
96392W        W39383  10.907  17.533  28.076  0.0542 -0.1029 -0.2051
96393W        W39384  18.125  19.274   1.431  0.1500  0.2111 -0.0038
96394W        W39385  16.346  28.089   2.118 -0.1202  0.1389  0.0798
96395W        W39386   1.937  27.328  28.478 -0.1157  0.1502  0.0344
96396W        W39387   7.368   2.841  25.722 -0.0304  0.1607  0.1606
96397W        W39388  11.584  14.013  27.303  0.2193 -0.0180 -0.2842
96398W        W39389  25.308   3.978  16.116  0.1128  0.1074  0.0850
96399W        W39390   4.541  29.963   3.017  0.1361  0.0441 -0.0234
96400W        W39391  17.931  20.383  13.217 -0.2985 -0.0258  0.0234
96401W        W39392   8.272  20.137  28.960 -0.2698 -0.0358  0.1890
96402W        W39393  30.024  34.315   8.766  0.1435 -0.1639  0.1798
96403W        W39394  14.113  30.978  26.277  0.1446 -0.3162  0.3013
96404W        W39395   7.919  26.679   6.611  0.1334 -0.0253  0.0429
96405W        W39396  25.445   1.071   0.921  0.2275  0.1288  0.0870
96406W        W39397  22.758  11.275   5.524 -0.0070 -0.0237  0.0990
96407W        W39398  13.895  12.153  10.357  0.3334 -0.2711  0.0542
96408W        W39399   9.937   0.270  22.616 -0.0913 -0.2623  0.1281
96409W        W39400  27.417  24.880   2.578  0.0258 -0.0311  0.3031
96410W        W39401  31.855  21.705  25.985  0.1763  0.2286  0.1805
96411W        W39402  12.712  32.023  17.544 -0.2151 -0.1219  0.2014
96412W        W39403   7.047   3.812  11.298  0.0261 -0.0690 -0.2971
96413W        W39404   1.296  12.482   1.687 -0.0831 -0.1074 -0.1828
96414W        W39405  12.141  14.278  25.092 -0.1231 -0.0454  0.0173
96415W        W39406  22.391  24.397   4.046  0.0263  0.1977 -0.1677
96416W        W39407  23.149  21.612  25.274 -0.0166  0.2338 -0.0046
96417W        W39408  18.819  19.551   7.056  0.0201 -0.2248  0.0711
96418W        W39409  29.008  29.921   3.514 -0.0102 -0.0759  0.1063
96419W        W39410  27.193   9.173   6.492  0.2322 -0.0908 -0.1466
96420W        W39411  12.900  13.608   6.163 -0.0500 -0.1027 -0.1166
96421W        W39412  14.526  20.819   0.626 -0.0821  0.1167 -0.0066
96422W        W39413  30.229  10.393  26.652 -0.3466  0.1716  0.5055
96423W        W39414  32.422  27.880   8.110  0.1815  0.4899  0.1480
96424W        W39415  10.473  28.074   0.291 -0.3310  0.0287  0.2039
96425W        W39416   7.371  32.356   9.771 -0.3890 -0.2166  0.2367
96426W        W39417  24.486   3.669   6.295 -0.0786 -0.0029  0.0461
96427W        W39418  10.826  32.160   9.748  0.1455 -0.0820  0.1893
96428W        W39419  32.591  12.525   4.189 -0.3432 -0.0148  0.6387
96429W        W39420  26.080  26.110   1.841  0.3597 -0.3586  0.3022
96430W        W39421  21.225  22.479  18.401  0.0847  0.0508 -0.0758
96431W        W39422   6.244  34.436  21.250  0.3039  0.2790  0.0929
96432W        W39423  11.626  22.061  22.887  0.2022 -0.1076  0.3153
96433W        W39424  30.770  25.962  29.188 -0.3848  0.1805 -0.0812
96434W        W39425  12.432  23.211   5.204  0.1969  0.1292  0.1325
96435W        W39426   4.380  18.184   4.052  0.1377 -0.0796 -0.1015
96436W        W39427   3.040   2.169   8.945 -0.2815 -0.0780  0.1068
96437W        W39428  17.567   4.581  26.144 -0.1136 -0.0561 -0.2123
96438W        W39429   7.357  11.980  16.128  0.1878 -0.0583 -0.0644
96439W        W39430   9.053  32.951   2.636  0.2034 -0.0233 -0.1565
96440W        W39431   5.789   9.630   4.178  0.1684 -0.1171  0.1913
96441W        W39432   5.471   3.390   2.126 -0.0679 -0.1441  0.2072
96442W        W39433  20.932  26.223  20.329 -0.0009 -0.0114  0.1580
96443W        W39434   7.019  17.329  16.484 -0.1709  0.4995 -0.3450
96444W        W39435   8.988   7.332   5.626  0.0646  0.1862  0.1569
96445W        W39436  30.206  30.540   7.176 -0.0823  0.1294  0.0494
96446W        W39437   3.356  32.912   2.325  0.2052 -0.0457  0.1776
96447W        W39438  18.502  23.434  24.582 -0.2038 -0.1368  0.2046
96448W        W39439  22.589  18.305   5.490  0.0823 -0.0083  0.0314
96449W        W39440   9.598  24.468  28.866 -0.3673  0.1797 -0.1408
96450W        W39441  16.345   3.201  28.512 -0.1207  0.2861 -0.2692
96451W        W39442  16.327  34.235   0.291  0.0958  0.3528 -0.0781
96452W        W39443  14.267   0.102  26.346 -0.0560 -0.2702  0.1861
96453W        W39444  23.527  33.619  27.664 -0.2462 -0.2018 -0.1263
96454W        W39445   4.792  11.026  28.583 -0.1584 -0.2867  0.2513
96455W        W39446  20.834  21.245   0.582 -0.1037  0.0669 -0.3577
96456W        W39447  31.849  21.032   0.433 -0.0957 -0.1755 -0.2830
96457W        W39448   0.893   5.855  24.469 -0.0245  0.0102  0.2376
96458W        W39449  11.910   3.941  25.904  0.0214 -0.0492  0.1987
96459W        W39450  28.751  26.699  28.874  0.1335  0.1596  0.3608
96460W        W39451  12.280  17.798   2.943  0.1629  0.0754  0.2602
96461W        W39452  14.134   3.245   1.933  0.1231 -0.0994 -0.2670
96462W        W39453  11.586  32.584   0.321  0.1096  0.0825 -0.1621
96463W        W39454   9.402   2.070  28.985 -0.0518 -0.1338  0.0178
96464W        W39455  18.578  22.862  27.050  0.1684 -0.2672 -0.3436
96465W        W39456  20.782  32.421   8.688  0.1572 -0.1450 -0.2144
96466W        W39457  11.388  11.990   6.816 -0.0818 -0.1198  0.0446
96467W        W39458  14.498  31.752  16.410  0.2025  0.2664  0.1709
96468W        W39459   7.760  16.529  26.388  0.0054  0.0317  0.1287
96469W        W39460  28.635  12.795   8.184 -0.1055 -0.2506  0.2008
96470W        W39461  23.374   4.951  13.492  0.2464 -0.1358  0.2048
96471W        W39462  33.669   0.513  18.009  0.2553 -0.1941 -0.1739
96472W        W39463   7.115  25.875   8.658 -0.0112 -0.6057  0.0273
96473W        W39464  26.441  11.565  24.725 -0.1371 -0.0580  0.1984
96474W        W39465  25.426  13.163  22.008 -0.1982  0.1788 -0.1465
96475W        W39466  17.102  30.605   0.027 -0.2968 -0.1196  0.2560
96476W        W39467   7.707  24.122   5.534  0.1156 -0.4008  0.2748
96477W        W39468  12.761  17.997  19.852  0.0140  0.1357  0.1049
96478W        W39469  24.709  31.514   5.649  0.1880  0.0863 -0.2769
96479W        W39470   7.288  18.238  20.524 -0.2268  0.1042  0.0185
96480W        W39471  12.633  29.319   5.366  0.1967 -0.3262 -0.0204
96481W        W39472  22.606  26.105   6.556 -0.1570  0.0575  0.1642
96482W        W39473   7.038  17.021   1.441 -0.1559  0.1143 -0.1672
96483W        W39474   5.010  24.815  23.424  0.0828 -0.0410  0.0547
96484W        W39475  18.933  12.709   6.013  0.1118  0.2911 -0.0640
96485W        W39476  15.505  23.582   3.557 -0.3017  0.1572 -0.0143
96486W        W39477  11.391  23.538   3.207  0.2204 -0.0236  0.3408
96487W        W39478  13.093   7.050   6.878 -0.0325 -0.1989  0.2294
96488W        W39479   4.899  27.252   7.419 -0.0742  0.2180 -0.0033
96489W        W39480  22.540  12.902  13.789  0.2265  0.0952 -0.0961
96490W        W39481  20.775  27.600   5.340 -0.1532 -0.0876 -0.0070
96491W        W39482   8.566  31.019  18.752 -0.2485 -0.0943 -0.1851
96492W        W39483   6.222  20.210   1.690 -0.0169 -0.1747  0.1802
96493W        W39484  15.960   5.739   8.948 -0.1788  0.0005  0.0775
96494W        W39485  20.172   0.852   1.214  0.2099 -0.1600  0.0246
96495W        W39486  19.938  26.095  29.090 -0.1348  0.0812  0.3512
96496W        W39487  10.446  33.800   0.887 -0.1271  0.2844  0.1733
96497W        W39488  10.319  19.543   9.291 -0.0702  0.0742 -0.0155
96498W        W39489   7.625  23.457   5.741  0.2483 -0.2134  0.0103
96499W        W39490  16.813  33.658  20.513 -0.0039  0.0509  0.0073
96500W        W39491   8.538  32.412  24.831  0.0748 -0.0728  0.2389
96501W        W39492   9.837  32.584  26.720 -0.3367  0.2041 -0.1528
96502W        W39493  20.223   4.553   8.054  0.1723 -0.1110 -0.0073
96503W        W39494  11.693   6.121  26.736  0.0428  0.0574  0.3490
96504W        W39495  18.999   2.019  18.126  0.2105  0.0209  0.2472
96505W        W39496  30.723   0.245   8.932 -0.1585  0.1148 -0.3425
96506W        W39497  12.266  29.633   7.201  0.1898 -0.2247  0.3209
96507W        W39498   8.782  29.677  10.446  0.0869 -0.0413 -0.2412
96508W        W39499  17.428  24.519   7.650  0.2095 -0.1119 -0.1464
96509W        W39500  28.026  27.714  22.329 -0.2193 -0.1523 -0.1488
96510W        W39501   7.292   9.058   1.171 -0.0014  0.1999 -0.1994
96511W        W39502  34.182  24.691   2.806 -0.2393  0.0529  0.3926
96512W        W39503  11.342  17.719   8.609  0.0542 -0.0826 -0.3515
96513W        W39504  18.801   9.687   8.566  0.0151  0.0740 -0.3577
96514W        W39505   9.786  27.557   8.290 -0.0298  0.0792  0.2902
96515W        W39506  25.068  32.380   2.395  0.0083 -0.3398 -0.2296
96516W        W39507  17.168  32.148   1.719  0.1708  0.0445 -0.0321
96517W        W39508   6.968  23.238   3.457 -0.0450 -0.0054  0.3059
96518W        W39509   7.723   2.607   3.019  0.1206  0.0109 -0.1380
96519W        W39510  28.553  34.504   2.546  0.1354  0.4318 -0.4888
96520W        W39511   9.860  11.624   2.904  0.0337  0.1420  0.1028
96521W        W39512  13.370  32.111  27.776 -0.0533 -0.0738 -0.2819
96522W        W39513  23.138  13.708   4.844  0.2321  0.1067 -0.0118
96523W        W39514  21.135  19.847  28.459  0.1246  0.1229 -0.0998
96524W        W39515  21.722   2.033   4.837 -0.1192  0.2318 -0.3353
96525W        W39516  12.110  23.490   8.500  0.0977  0.0772  0.4726
96526W        W39517  12.260  17.605  21.439 -0.0933  0.4360  0.0224
96527W        W39518  30.769  15.946  28.231 -0.0609 -0.0999  0.3104
96528W        W39519  26.288   8.266  17.323  0.0105 -0.1361 -0.0099
96529W        W39520  11.228  31.933   1.373  0.1321 -0.0654 -0.1964
96530W        W39521  27.167  11.598   7.792  0.1751 -0.0325 -0.1604
96531W        W39522  21.231  29.597   7.004  0.1535 -0.0495 -0.1497
96532W        W39523   2.711  23.606   0.329 -0.0383  0.2761  0.0043
96533W        W39524   2.524  14.560  25.122 -0.1685  0.2382  0.1501
96534W        W39525  13.762  11.873  22.500  0.1165  0.1797  0.0443
96535W        W39526  31.825  20.813  27.556 -0.1811 -0.0381  0.1037
96536W        W39527  22.398  21.950  24.449 -0.0838 -0.1140  0.0443
96537W        W39528   7.090  25.663  26.608 -0.2336  0.0095 -0.4127
96538W        W39529   6.875   7.880   6.967  0.0404 -0.2982  0.1457
96539W        W39530   6.652   7.364   5.222 -0.2116  0.1168 -0.0572
96540W        W39531  23.547  27.275   1.773  0.1906 -0.2199 -0.0569
96541W        W39532   6.531  19.910   7.806  0.0818  0.2558 -0.0599
96542W        W39533  18.738   1.853  27.747  0.4104  0.1957  0.2030
96543W        W39534  11.110  21.748   5.571 -0.0456  0.3115  0.2367
96544W        W39535   2.298   5.008  26.275 -0.0008 -0.0629 -0.0896
96545W        W39536   3.863  24.048   1.166 -0.2203 -0.1696  0.3787
96546W        W39537  22.508  22.919   7.254  0.1045 -0.3024 -0.2183
96547W        W39538   8.862  13.995  27.463 -0.1620  0.0414 -0.2146
96548W        W39539   1.501  28.765  21.449 -0.0850  0.4228  0.1081
96549W        W39540  27.585   1.924   5.068 -0.1622 -0.4030 -0.0752
96550W        W39541  10.680  26.486   2.376 -0.1552  0.0289 -0.2369
96551W        W39542   1.634  14.980  16.332  0.2653 -0.1548  0.1261
96552W        W39543   4.797  21.078  23.838  0.1903  0.0034 -0.0829
96553W        W39544  31.882  20.380   0.930 -0.2492 -0.0486 -0.1674
96554W        W39545   7.916  25.191   8.974 -0.0970  0.1990 -0.0371
96555W        W39546  17.640   2.537  28.665  0.1406  0.0152 -0.1850
96556W        W39547  19.917  20.652  20.667  0.1240 -0.2732  0.0951
96557W        W39548  26.883  33.735  26.486 -0.0283 -0.3431  0.1645
96558W        W39549  16.492  29.001   6.753  0.4675 -0.1849 -0.0243
96559W        W39550   3.714  23.535  19.363 -0.2840 -0.3041  0.0644
96560W        W39551  15.244  31.619   1.547  0.0860  0.0024  0.2763
96561W        W39552   7.282   6.047   2.528 -0.0344  0.0531 -0.2022
96562W        W39553  15.680   6.390  10.155  0.2314 -0.0300 -0.0627
96563W        W39554  21.894  32.114   5.527  0.0302  0.0524  0.0756
96564W        W39555   2.758  32.599  20.738 -0.0450  0.0818  0.1529
96565W        W39556  13.673  29.119  29.160 -0.1521 -0.1836  0.0161
96566W        W39557  16.645  34.769  29.014  0.2813  0.1503  0.3061
96567W        W39558  33.293   7.799   5.007 -0.1609 -0.0110 -0.1084
96568W        W39559  28.556  22.559   5.532  0.1421  0.2614  0.0221
96569W        W39560   8.718  17.964  22.807 -0.0897 -0.0791 -0.2637
96570W        W39561  22.840   0.255   5.368  0.0690 -0.2261 -0.1587
96571W        W39562   7.637  22.020  19.978 -0.1780  0.0485 -0.0524
96572W        W39563  21.078  19.569   0.627  0.2914 -0.0779 -0.1079
96573W        W39564  32.846   9.121  21.962 -0.1784  0.0844 -0.1484
96574W        W39565   5.308  26.516   9.688 -0.2945  0.2523 -0.0090
96575W        W39566  23.574  10.789  26.320  0.0929  0.1114  0.0922
96576W        W39567  10.299  22.051   3.655  0.0308  0.0247 -0.0504
96577W        W39568   8.132  19.542   7.969 -0.1695  0.2744  0.0348
96578W        W39569  24.216  28.294   1.230 -0.2411  0.0009 -0.0637
96579W        W39570   8.835   5.280  19.123 -0.0958  0.1108 -0.2665
96580W        W39571  33.480   6.774  29.039  0.1464  0.1192  0.2629
96581W        W39572   1.051   8.283  11.036  0.3242 -0.0602  0.0686
96582W        W39573  22.894  30.116  28.233 -0.2251  0.1675 -0.2035
96583W        W39574  12.748   7.131  10.348  0.0203 -0.1032 -0.1519
96584W        W39575  14.232  28.280  28.342 -0.5398  0.1389  0.2056
96585W        W39576  13.338  32.733  10.335 -0.0846  0.0513 -0.1523
96586W        W39577  31.925  33.686   3.616 -0.0107 -0.1540 -0.2923
96587W        W39578  16.187  25.599  25.546 -0.1721  0.0978 -0.3543
96588W        W39579  26.945  24.387   4.799  0.3528  0.0289 -0.1440
96589W        W39580  21.535  29.374  18.787 -0.0631  0.2319  0.1613
96590W        W39581  10.057  28.905  22.025  0.0335  0.0248  0.0391
96591W        W39582  19.759  15.169   5.262  0.3117  0.1297 -0.2569
96592W        W39583  19.229  24.833   7.794  0.0243 -0.2033  0.1295
96593W        W39584   2.679  25.337   9.636 -0.0544 -0.2514  0.0456
96594W        W39585  28.641  34.617   8.457  0.0802  0.2277 -0.1075
96595W        W39586   1.455   5.128   7.344 -0.1499 -0.1954 -0.1661
96596W        W39587  20.263   5.949  23.341 -0.3536 -0.1249  0.0358
96597W        W39588  20.584  25.628   5.183  0.0581  0.1000  0.0236
96598W        W39589  12.659  19.641  20.840 -0.0603  0.2508 -0.1871
96599W        W39590   6.941  30.092   6.514  0.0411  0.0945  0.0737
96600W        W39591   3.044  27.874   0.354  0.4471  0.2507  0.3271
96601W        W39592  15.009  31.228   5.425  0.1186  0.2037 -0.0424
96602W        W39593  10.030  14.994   8.343  0.0332 -0.0250 -0.1877
96603W        W39594  23.859  27.984   2.613  0.3563 -0.0894 -0.3625
96604W        W39595  19.933  25.040   2.523 -0.1414  0.4225 -0.2287
96605W        W39596   6.443  29.109  27.958 -0.0594  0.0286  0.0951
96606W        W39597   7.949  30.256   6.412 -0.0479 -0.0822 -0.1287
96607W        W39598  23.512  16.366   1.541  0.2042 -0.2072  0.0214
96608W        W39599   8.562  32.086  25.539  0.0105  0.1947  0.0719
96609W        W39600  11.494  23.742  20.078 -0.1495 -0.0588 -0.2606
96610W        W39601  10.859  33.901   9.096 -0.2570  0.1435 -0.1891
96611W        W39602  23.560  25.383   3.876 -0.2779  0.3307 -0.0485
96612W        W39603  13.680  25.407   8.165  0.1629 -0.1669  0.2851
96613W        W39604  14.157   5.721   0.267  0.0481  0.0697 -0.0752
96614W        W39605  16.141  11.809   1.846  0.0130  0.0643  0.1156
96615W        W39606   8.817   5.369  29.134 -0.1462 -0.0978 -0.1011
96616W        W39607   8.689   2.867  17.085 -0.3584 -0.1531 -0.1262
96617W        W39608  16.141  11.158   7.805  0.0693  0.1349 -0.1095
96618W        W39609   5.391  19.466   6.861 -0.2470  0.2417 -0.1799
96619W        W39610  27.996  29.364   1.960 -0.1565  0.1217  0.0760
96620W        W39611  11.312  24.298   3.790 -0.0685 -0.2936  0.1847
96621W        W39612  14.896  16.408  18.176  0.0600 -0.1629 -0.0843
96622W        W39613   4.743  34.112   1.948  0.4335  0.2544 -0.0587
96623W        W39614  15.273  24.151   0.538 -0.3085  0.0860 -0.2047
96624W        W39615  14.770  29.931   4.258 -0.1238  0.0085  0.0501
96625W        W39616  15.966   3.477   2.010  0.2151  0.0234  0.1009
96626W        W39617  17.033  24.708   7.865  0.2295 -0.0312 -0.0329
96627W        W39618   7.280   6.111   1.523  0.0493 -0.0879 -0.0478
96628W        W39619  12.337   3.872   6.801  0.4219 -0.2419 -0.0795
96629W        W39620  21.391  20.803  24.027 -0.0432  0.1451  0.1370
96630W        W39621  23.302   8.151   4.410 -0.1209  0.0246  0.4311
96631W        W39622   4.660  18.421  10.877  0.2930  0.1584  0.0169
96632W        W39623   9.759  25.510   7.152 -0.1174  0.0497  0.0599
96633W        W39624   1.520  32.411  24.953  0.1321 -0.2690 -0.0749
96634W        W39625  15.084  24.078   8.353 -0.0499 -0.0850  0.0895
96635W        W39626   2.630  20.539   1.440 -0.1108 -0.0277 -0.0309
96636W        W39627  12.252   0.313   5.792 -0.2715 -0.2534 -0.2356
96637W        W39628  11.054   3.166   2.826  0.1212 -0.2344  0.0255
96638W        W39629   6.485  26.177   6.945 -0.0074 -0.0249 -0.2948
96639W        W39630  21.127  21.668  28.109 -0.2584 -0.0638 -0.2646
96640W        W39631  33.977  26.379  26.566 -0.5059  0.0863 -0.2919
96641W        W39632  17.371  26.135  27.831 -0.3086 -0.3383 -0.2367
96642W        W39633  14.175   5.917  26.049  0.1429  0.2352 -0.1702
96643W        W39634  17.439  21.640  16.932  0.1012 -0.1505  0.0781
96644W        W39635   2.331   5.455  10.900 -0.0179 -0.2732 -0.1785
96645W        W39636   3.973  30.398   6.620  0.1118 -0.1227  0.2069
96646W        W39637   6.226   8.318   5.969  0.1178  0.0260  0.0622
96647W        W39638  23.362   4.116  22.578  0.0456 -0.3402 -0.0829
96648W        W39639  14.320  13.479   6.253 -0.0427  0.0154  0.0581
96649W        W39640  18.849  23.468  21.043  0.1700  0.0575  0.3046
96650W        W39641  20.150  33.900   7.469 -0.1575  0.1388 -0.0076
96651W        W39642  26.675  12.792   0.121 -0.0852 -0.4622 -0.0407
96652W        W39643  17.410  31.856   6.956 -0.0259  0.4961  0.0467
96653W        W39644  17.076  29.820   1.070 -0.2144 -0.2021  0.3249
96654W        W39645   2.692  31.612   9.351  0.0709  0.3347  0.1197
96655W        W39646   0.559  26.910   3.374  0.1221  0.1920  0.0220
96656W        W39647   9.090  26.524  15.195  0.1350  0.2510 -0.0194
96657W        W39648   9.319  20.985   6.004 -0.0008  0.2895  0.1952
96658W        W39649  16.798  11.429  25.112 -0.0903  0.2848  0.1267
96659W        W39650   4.823  19.132   6.030  0.0472  0.0113 -0.0218
96660W        W39651  20.715  18.260  28.119 -0.2554 -0.3378 -0.1167
96661W        W39652   5.376  17.190   1.245  0.0592 -0.0782 -0.0263
96662W        W39653   7.362   1.637   4.004 -0.1109 -0.1782 -0.1547
96663W        W39654   6.156   9.276   1.625  0.0653 -0.0073  0.1337
96664W        W39655  10.882  18.650   9.078  0.1414 -0.0578  0.2934
96665W        W39656   8.641  23.689   5.428 -0.1791  0.0514  0.0891
96666W        W39657  18.577  26.371   4.799 -0.2925 -0.1209  0.2520
96667W        W39658  24.544  16.485   8.191 -0.0393 -0.2204  0.3035
96668W        W39659  33.887   9.977  25.958  0.0155  0.0922  0.0562
96669W        W39660  22.636   4.687   6.803  0.0705  0.4731  0.3289
96670W        W39661  16.922  26.138   8.212  0.1292  0.0825 -0.1225
96671W        W39662  12.095  30.407   9.474  0.1187 -0.0422  0.1395
96672W        W39663   1.712  16.349  27.278  0.2971 -0.2518  0.0440
96673W        W39664   9.009  29.817  26.290 -0.0728  0.1548 -0.1331
96674W        W39665   7.073   1.432   2.472 -0.0388  0.0918 -0.0434
96675W        W39666   6.678  30.228  27.603  0.2172 -0.1053 -0.3278
96676W        W39667  32.986  25.282  24.828 -0.1095 -0.1703  0.1404
96677W        W39668  25.593  11.331   1.385 -0.1851 -0.0035  0.0923
96678W        W39669   3.882  30.381   2.344 -0.2357  0.0629 -0.0007
96679W        W39670  31.243   3.491  23.026 -0.1475  0.0894 -0.0686
96680W        W39671   2.815  13.437  28.681 -0.1165  0.2557  0.1536
96681W        W39672  23.989  32.454   3.982  0.0272 -0.1541  0.1350
96682W        W39673  22.378  14.595   8.119  0.3006 -0.0458 -0.0445
96683W        W39674   4.859  32.102  17.787 -0.4174 -0.1531 -0.3925
96684W        W39675   2.893  13.463   6.427  0.1205 -0.1192  0.0640
96685W        W39676  29.174  30.337  22.715  0.0621  0.3802 -0.1643
96686W        W39677  14.149  24.034   0.314 -0.1068 -0.1539  0.1202
96687W        W39678   9.902  10.000   1.838  0.0437 -0.0909 -0.2047
96688W        W39679   7.383  23.301  28.511  0.0309  0.3458  0.3215
96689W        W39680  14.867   0.259   0.191 -0.2005 -0.2862 -0.1490
96690W        W39681  30.093  23.862  27.903 -0.2681 -0.1188 -0.0578
96691W        W39682   1.508   5.078  20.076 -0.2625 -0.0574 -0.0264
96692W        W39683  18.599  24.356   3.849 -0.1380  0.1086  0.1012
96693W        W39684  16.960   1.656   6.005  0.0396  0.1909  0.2433
96694W        W39685   1.830  25.580   8.457 -0.1710  0.0989 -0.5301
96695W        W39686  18.661  21.992   2.547 -0.1431  0.0310  0.0708
96696W        W39687  10.001   2.045  23.843 -0.1622  0.2218 -0.0492
96697W        W39688   4.829  25.629   9.741 -0.0435 -0.1483  0.0605
96698W        W39689  24.917   2.249   2.739  0.1451 -0.1901 -0.1415
96699W        W39690  13.968  24.018  21.726  0.3465 -0.0699  0.1639
96700W        W39691  20.187   0.456  26.333  0.1344  0.1055  0.1097
96701W        W39692   0.311  31.592  28.764  0.0293  0.3121  0.3219
96702W        W39693  29.592  13.473  14.347 -0.0504 -0.0482  0.1795
96703W        W39694  15.203   3.234   2.923 -0.2320 -0.2174 -0.0884
96704W        W39695   7.936   3.308   0.748 -0.1220  0.1795  0.5920
96705W        W39696   4.999  25.340  27.809 -0.0048  0.1778  0.0628
96706W        W39697  15.273  28.811   5.859 -0.3228  0.0948 -0.0604
96707W        W39698  21.396  24.427  25.151  0.0956 -0.2599 -0.0005
96708W        W39699  31.308  18.349   4.840 -0.0326  0.0142 -0.2322
96709W        W39700  25.130  32.852  18.955  0.4684  0.1187  0.4035
96710W        W39701  11.731  28.967   2.691 -0.0867 -0.2666 -0.0474
96711W        W39702  18.973   3.505   4.732  0.1847 -0.2984 -0.1650
96712W        W39703  31.926  17.126   9.253  0.2675 -0.0813 -0.0935
96713W        W39704  23.096  23.551  20.137  0.0165  0.0989  0.2375
96714W        W39705  29.994  31.040   2.716  0.1470 -0.2801  0.0170
96715W        W39706  18.774   5.993   8.975  0.0522  0.2064  0.0463
96716W        W39707   3.894   9.884   7.056 -0.1679 -0.0057  0.0368
96717W        W39708   7.123  34.774   7.329 -0.0796  0.0062 -0.0080
96718W        W39709  15.868   0.106  25.236  0.0318 -0.1481  0.4263
96719W        W39710  26.098  32.460   2.238 -0.1091  0.0667  0.1447
96720W        W39711  10.764  14.500  26.668  0.1204 -0.0679 -0.3248
96721W        W39712  33.992  17.592   2.739 -0.0040 -0.2621  0.3512
96722W        W39713  24.740  27.808  28.259 -0.1491 -0.1150  0.2227
96723W        W39714  19.308  33.672   1.695  0.2021 -0.1246  0.3249
96724W        W39715  32.840  29.345   9.314  0.1388  0.0721 -0.5218
96725W        W39716   7.000  26.444  28.855 -0.0181 -0.0098 -0.4187
96726W        W39717  33.463   3.556  26.097 -0.1262 -0.0729  0.0423
96727W        W39718   9.487  33.158   3.517  0.2003 -0.0762  0.1061
96728W        W39719  11.917  11.267  23.287  0.0176  0.2759 -0.2037
96729W        W39720  10.213   5.229  23.433  0.2051 -0.2932 -0.0313
96730W        W39721   7.058  27.163  26.243 -0.2584 -0.1597 -0.3795
96731W        W39722  31.888  29.915  26.079 -0.1376  0.0978  0.2473
96732W        W39723  19.993  22.917  27.841 -0.2295  0.0471 -0.0232
96733W        W39724  13.787   0.109   0.023 -0.0227  0.1152  0.2111
96734W        W39725  28.750   8.445  20.200  0.0170  0.0445  0.5968
96735W        W39726  14.966  19.219  27.906  0.2341 -0.0619 -0.1212
96736W        W39727  10.078  30.721  27.769 -0.0965  0.0195 -0.0029
96737W        W39728  13.404  19.321   3.211 -0.1716 -0.0309 -0.0953
96738W        W39729  12.364   6.814   6.949  0.1220 -0.2806 -0.1668
96739W        W39730  12.128  10.857  10.055  0.2262 -0.2511 -0.0651
96740W        W39731  17.217  32.664   3.802  0.1896  0.0247  0.1496
96741W        W39732  25.227  28.989  19.887 -0.0224 -0.1329 -0.0867
96742W        W39733  19.516  21.583  18.358  0.1445 -0.0282  0.1732
96743W        W39734  16.386  19.333   1.235 -0.1034 -0.1553 -0.0675
96744W        W39735   2.361   0.574  17.149 -0.1978 -0.0066 -0.0446
96745W        W39736  16.526   0.235   0.665 -0.1086  0.0422 -0.0797
96746W        W39737  20.726  31.840  26.470 -0.0935  0.2835 -0.0457
96747W        W39738  23.733   2.203   3.652  0.1192  0.2082 -0.1105
96748W        W39739  14.748  26.066   1.981  0.2598  0.0882  0.1657
96749W        W39740  12.978   0.634   9.801 -0.0494  0.0090  0.0267
96750W        W39741  19.746  22.685  12.579  0.1160  0.1003 -0.2220
96751W        W39742  14.167  28.982   2.111  0.1167 -0.1522 -0.2664
96752W        W39743  20.403   4.657   6.224  0.1294  0.0673 -0.1612
96753W        W39744  19.211   2.465   0.266 -0.0834 -0.0561  0.0547
96754W        W39745   0.746  19.777  26.259 -0.2121  0.1089 -0.1075
96755W        W39746  17.451  21.889  18.631 -0.0036 -0.0914  0.2237
96756W        W39747  24.710  26.677  25.733 -0.1978 -0.2373 -0.2237
96757W        W39748  11.417  20.451   5.277  0.0894 -0.2984 -0.0014
96758W        W39749  19.101  23.981  20.441  0.0412 -0.2427  0.2279
96759W        W39750  10.114  16.450   6.641  0.0699  0.0227  0.0370
96760W        W39751   1.444  25.798   5.159  0.0031 -0.0906 -0.4498
96761W        W39752   7.982  27.165   2.177 -0.2348 -0.2439  0.1444
96762W        W39753   1.200   6.996  15.863 -0.1700  0.6520  0.0489
96763W        W39754  22.754  20.121   1.748  0.0025  0.2861  0.2966
96764W        W39755  34.352   1.086   4.990  0.0113 -0.0332  0.2975
96765W        W39756  23.820  20.295   7.564  0.0222 -0.2799  0.1115
96766W        W39757   5.263  30.110  27.411 -0.0209  0.0669  0.1539
96767W        W39758  15.754  32.848   5.421 -0.2224 -0.1075 -0.1826
96768W        W39759   0.738  10.080   8.865  0.1078 -0.0733 -0.0340
96769W        W39760  14.449  24.628  22.766 -0.0821  0.4187  0.0930
96770W        W39761   4.788   8.989  26.497  0.3343  0.5110  0.2378
96771W        W39762  13.012  32.347  23.044 -0.1628  0.0735  0.3013
96772W        W39763  23.151  20.323   1.964  0.4081 -0.0546 -0.1131
96773W        W39764   8.906  34.359   0.581  0.0110 -0.0186  0.1697
96774W        W39765  16.019  10.790   5.152 -0.1135 -0.0134 -0.2846
96775W        W39766  15.584  32.638   4.654  0.0294  0.0169 -0.0699
96776W        W39767   9.177  14.507  27.347  0.0969  0.1183  0.2605
96777W        W39768  11.695  25.625   8.560 -0.0992  0.0521  0.3381
96778W        W39769  10.891  26.016   5.307 -0.0139 -0.0318  0.0189
96779W        W39770   9.197  24.201   1.941 -0.0143  0.0694 -0.0172
96780W        W39771  11.315   1.679   3.183  0.4531 -0.1919  0.1763
96781W        W39772   5.909   3.894   2.359  0.0280 -0.0568  0.1818
96782W        W39773   2.530  31.964   1.806  0.1259 -0.0925 -0.0899
96783W        W39774   9.780  30.941  26.756 -0.0583 -0.0706  0.1224
96784W        W39775  12.083  19.216  12.673 -0.2501 -0.0305  0.1268
96785W        W39776  14.003  34.526  25.837  0.0184 -0.0477 -0.1651
96786W        W39777   3.024  23.473  22.859 -0.5473  0.0626 -0.0007
96787W        W39778   1.269  30.136   1.908  0.2662  0.2627  0.4397
96788W        W39779  19.594  30.389  25.234  0.2628  0.1374  0.3463
96789W        W39780  15.525  11.837   7.198 -0.1301 -0.1236 -0.2743
96790W        W39781  16.073  28.986   8.081 -0.0994  0.2472 -0.1248
96791W        W39782   5.002   1.061  27.122 -0.1945  0.0304  0.0867
96792W        W39783  10.362  18.813  27.623  0.1938  0.2085 -0.1128
96793W        W39784  17.808   2.220   8.419  0.1473 -0.1261 -0.0479
96794W        W39785   5.775  19.738   6.921  0.1927  0.3035 -0.0876
96795W        W39786   2.758  26.263  29.149  0.0710  0.0159 -0.2679
96796W        W39787  25.037  28.947   7.893 -0.1006 -0.0563  0.2856
96797W        W39788   6.959  30.596   3.266 -0.1082 -0.0791  0.2446
96798W        W39789   3.427   2.342   1.159 -0.2394 -0.0756 -0.0774
96799W        W39790  32.095  26.106   7.097 -0.4940 -0.0107 -0.1867
96800W        W39791  21.426  14.577  13.035 -0.1440  0.0364 -0.2296
96801W        W39792  29.776  31.455   6.142  0.1394 -0.0378 -0.2048
96802W        W39793  16.222  29.724   8.003 -0.2750 -0.2284  0.0991
96803W        W39794   2.192  31.467   6.394  0.2131  0.3119  0.2982
96804W        W39795  28.529   8.656   9.291  0.0549  0.2533  0.0227
96805W        W39796  13.888  22.795  21.190 -0.3451 -0.0597  0.1364
96806W        W39797   3.936  22.624   5.734  0.1958  0.1380  0.0437
96807W        W39798  14.121  17.302  20.141  0.1136  0.2113 -0.0576
96808W        W39799  22.988  10.543   6.834  0.1297 -0.0160 -0.0783
96809W        W39800  13.476  22.039  22.566  0.2303  0.0582 -0.0317
96810W        W39801   2.199  31.452   9.601 -0.0772 -0.2381  0.1032
96811W        W39802  21.737  26.778   4.150  0.0082  0.1346 -0.2649
96812W        W39803  14.548  31.705   3.290  0.0732 -0.1037 -0.0153
96813W        W39804   6.436  32.195   8.768  0.0152  0.0087 -0.0097
96814W        W39805   8.492  27.274  25.612  0.0590  0.3105 -0.3486
96815W        W39806  13.923   1.685   8.493  0.0203 -0.0785 -0.0675
96816W        W39807   4.063  27.287   3.200  0.0932  0.2516 -0.1104
96817W        W39808   9.601  16.566  20.770  0.2949  0.0470 -0.1746
96818W        W39809   8.761  21.723  29.236  0.0368  0.0317 -0.1288
96819W        W39810   1.060  13.326  10.690 -0.2724 -0.3259 -0.0594
96820W        W39811  10.386  23.388  17.779 -0.2308  0.1527 -0.4372
96821W        W39812  31.230   5.089  27.073  0.1480 -0.0555  0.0255
96822W        W39813  17.046  34.489  26.699 -0.0621  0.0503  0.0695
96823W        W39814  28.088  34.296   6.822  0.2370 -0.1601  0.1062
96824W        W39815   7.176  22.551   3.986 -0.0740  0.0932  0.1628
96825W        W39816  15.958  27.244  20.019 -0.2287 -0.1734  0.1419
96826W        W39817  29.863  29.308   4.490  0.1796  0.0140  0.1738
96827W        W39818  18.993  30.425  23.972  0.3140  0.2366  0.2005
96828W        W39819  10.326  25.705   4.519  0.2616  0.2452  0.0952
96829W        W39820  22.693   3.406  12.912  0.0019  0.1940  0.0009
96830W        W39821  21.172   0.115  17.288 -0.1999 -0.2574  0.1981
96831W        W39822   5.992   1.197   0.087  0.0465 -0.3269  0.1419
96832W        W39823  22.333   1.696   6.399 -0.2931 -0.2629  0.0754
96833W        W39824  28.486  14.893  27.832  0.1499  0.2305 -0.2287
96834W        W39825  18.730   5.107  24.561 -0.1602  0.2543  0.1580
96835W        W39826   7.716  33.080  20.248  0.2307 -0.1067  0.2074
96836W        W39827  15.485  15.130  28.635 -0.0693  0.2146 -0.1158
96837W        W39828  22.363  32.453   4.450  0.1127  0.2910  0.1301
96838W        W39829  31.971   4.671   0.448  0.3006 -0.0809 -0.3427
96839W        W39830   4.997   7.261   1.497 -0.1404  0.2017  0.0926
96840W        W39831  10.982  26.584   7.790 -0.1877  0.2670 -0.1341
96841W        W39832  14.599  10.479   0.673  0.1595  0.1654  0.3950
96842W        W39833   7.306   7.457  25.885  0.0760 -0.3496 -0.1995
96843W        W39834   9.069  28.986  27.961  0.0923 -0.1499  0.1325
96844W        W39835  33.272  32.104   0.547 -0.3033 -0.0904  0.0155
96845W        W39836  20.443  30.452   1.677 -0.0048  0.1851 -0.1480
96846W        W39837   2.034  15.128   4.568 -0.0062  0.0888 -0.0162
96847W        W39838  14.077  19.793   0.134 -0.2435 -0.0268  0.0586
96848W        W39839  15.930  29.949  28.298  0.1234  0.1614 -0.2619
96849W        W39840   9.719   5.134   4.480 -0.4485  0.4995  0.1684
96850W        W39841  25.381  34.219  28.937 -0.4402  0.2309  0.0141
96851W        W39842  20.846  22.916   5.100 -0.2110 -0.0517  0.0698
96852W        W39843   3.632  17.285  23.718 -0.0737  0.0384  0.0991
96853W        W39844   1.319  27.920   9.761 -0.0398  0.1387 -0.4305
96854W        W39845  14.036  32.481  28.694 -0.1832 -0.1261 -0.1833
96855W        W39846  34.654  25.412   3.291  0.3308 -0.1987 -0.0588
96856W        W39847   5.123   3.028  10.822 -0.0579 -0.3363  0.2231
96857W        W39848  20.362  32.918   7.876 -0.1291  0.1776  0.1316
96858W        W39849  16.737  25.787   6.997  0.1187 -0.1267 -0.2127
96859W        W39850   8.663  25.195  27.550 -0.0943  0.1508  0.0144
96860W        W39851  22.545  23.431   5.215  0.0636  0.1636 -0.2492
96861W        W39852  13.851  14.377   4.675  0.3573 -0.0027  0.0154
96862W        W39853  18.218  25.911   9.712  0.0752 -0.1545 -0.0496
96863W        W39854   5.084  32.667  19.629  0.2840  0.1152 -0.1330
96864W        W39855   9.148   1.555   3.387 -0.2657  0.1881  0.1351
96865W        W39856  14.846  23.617   8.234  0.0258 -0.0580 -0.0359
96866W        W39857   6.193  11.236  23.560  0.0867  0.0802 -0.0074
96867W        W39858  19.519  27.358   8.824  0.0694  0.1718 -0.1354
96868W        W39859  30.682   4.508   7.516  0.0453 -0.1182  0.0085
96869W        W39860  22.765  21.710   5.051  0.1961  0.1271  0.0311
96870W        W39861  33.996   2.462   3.300 -0.0869  0.1731  0.1182
96871W        W39862   0.446  26.471  21.507  0.0808  0.0111  0.3769
96872W        W39863  22.667  33.376  24.062 -0.0544  0.0624 -0.2822
96873W        W39864  16.668  22.016  28.824 -0.0082 -0.1014  0.0781
96874W        W39865   3.989   5.590  10.467  0.1428 -0.0178 -0.1755
96875W        W39866   1.014   2.868   2.326 -0.0197  0.2954  0.2714
96876W        W39867  12.688   9.579   3.023  0.2837  0.4069  0.0845
96877W        W39868   3.403  30.660   5.178  0.0851 -0.0323 -0.0606
96878W        W39869  19.478  24.116  27.598 -0.0132  0.2304 -0.2603
96879W        W39870   8.716  14.295   7.248 -0.2539  0.0921 -0.1222
96880W        W39871  17.196  19.575   5.714  0.0588 -0.2893  0.2035
96881W        W39872  11.266  26.676  19.601 -0.2903 -0.2095  0.0439
96882W        W39873  10.988  25.135   9.660 -0.1244 -0.0641 -0.0284
96883W        W39874   8.027  27.587  27.127  0.1156 -0.0080  0.0465
96884W        W39875  13.551  19.006  21.984 -0.2022 -0.0149 -0.1362
96885W        W39876  15.497  30.855   2.032  0.3714 -0.0937  0.3445
96886W        W39877  15.280  26.060  19.045  0.1645  0.3449 -0.0547
96887W        W39878  25.503  34.495   7.818 -0.1187 -0.3409 -0.0976
96888W        W39879  30.080  33.550  28.360  0.0360  0.0953  0.0416
96889W        W39880  25.565  32.088   8.547  0.0650  0.1073  0.3419
96890W        W39881  31.274   3.772  21.587 -0.0663 -0.2712  0.0551
96891W        W39882  23.792  24.225   3.548  0.0102  0.0582 -0.0773
96892W        W39883  10.383  24.666  29.215 -0.0613  0.0486 -0.2505
96893W        W39884  13.455   3.454   3.270  0.0349 -0.2979 -0.0991
96894W        W39885  16.709   2.606   7.355  0.0616  0.1195 -0.2984
96895W        W39886   3.853  26.813  24.527 -0.0104 -0.0316  0.1370
96896W        W39887  14.660  26.021   4.537  0.0243  0.1480  0.0586
96897W        W39888   4.835   5.007   6.430 -0.0983  0.0145 -0.0836
96898W        W39889  17.442   0.505   3.716  0.2078 -0.1486  0.0086
96899W        W39890  16.189  24.377   9.090  0.1882  0.0467 -0.2984
96900W        W39891   3.140  12.988   2.288 -0.0454 -0.2345  0.1009
96901W        W39892  24.030  34.581   6.769  0.0590 -0.0430 -0.1228
96902W        W39893   3.555  20.394  29.068  0.1795  0.3639 -0.1917
96903W        W39894  27.710  11.346  28.946 -0.1432 -0.1627  0.1115
96904W        W39895   0.967  31.692  10.373 -0.3643 -0.1361  0.0318
96905W        W39896  13.010  31.072   7.031  0.0041  0.1506  0.1246
96906W        W39897  30.354  29.317   6.698  0.4732 -0.3856 -0.1518
96907W        W39898  19.972   2.413  23.537  0.1978  0.2058  0.1848
96908W        W39899  11.769  27.840  25.203  0.2612  0.2725  0.3454
96909W        W39900   2.081  27.164   6.294 -0.0409 -0.0879  0.0673
96910W        W39901  12.350   5.918   0.043 -0.2977 -0.3612 -0.1288
96911W        W39902  17.895  31.585   5.190 -0.0362 -0.0240  0.2195
96912W        W39903   5.565   1.595  10.100  0.2402  0.1047 -0.3058
96913W        W39904  13.400   2.696  21.879 -0.1227  0.4310 -0.0117
96914W        W39905  12.026  31.503  24.384  0.0605 -0.1420  0.1146
96915W        W39906  33.352  27.839   3.819 -0.2733 -0.1571  0.1025
96916W        W39907   1.618  23.192   6.218 -0.0492 -0.0787 -0.2132
96917W        W39908  12.306  32.810   9.399 -0.0189  0.2247  0.2669
96918W        W39909  21.988  24.858   3.689  0.0531  0.0935 -0.0862
96919W        W39910  24.657   7.879  28.332  0.0089 -0.2397 -0.0306
96920W        W39911  20.992  27.159   9.085  0.2691 -0.0150 -0.3181
96921W        W39912   1.398   0.493   5.232  0.1226  0.1094  0.0981
96922W        W39913  10.393  16.616  27.043  0.2939  0.1513  0.3485
96923W        W39914   4.598  22.653   3.768 -0.1194 -0.2418  0.1143
96924W        W39915   8.625  23.702  27.458 -0.0208 -0.1061 -0.0538
96925W        W39916   7.999  14.499   2.150 -0.2852 -0.1055 -0.0071
96926W        W39917  14.676  26.660   6.713 -0.3457 -0.0965 -0.1560
96927W        W39918   1.821  26.166   6.932 -0.0997  0.1933  0.0751
96928W        W39919  27.484  27.652  22.403  0.1049  0.5006 -0.2705
96929W        W39920  11.260   8.902   5.776  0.0463 -0.0629  0.2802
96930W        W39921   8.659  31.003   4.990 -0.0516 -0.2812  0.2902
96931W        W39922   8.100  25.144   8.047 -0.1453  0.3061 -0.0007
96932W        W39923   2.647  19.498  21.691 -0.0831  0.2167 -0.3713
96933W        W39924  12.953  28.928   5.178  0.1467 -0.2128 -0.0095
96934W        W39925  23.742  23.795  21.735  0.0702  0.0152  0.0298
96935W        W39926   8.120  31.755  16.546 -0.0119 -0.0024  0.1536
96936W        W39927   8.255  28.679  28.165  0.1786  0.0473 -0.1675
96937W        W39928  21.416  27.171  26.888 -0.0529  0.2162  0.2936
96938W        W39929  33.809  17.340  17.000 -0.0118  0.0018 -0.0199
96939W        W39930  14.697   0.183   7.213  0.3094 -0.4566 -0.2006
96940W        W39931  20.361  24.765   3.373 -0.0738 -0.2005  0.0774
96941W        W39932  21.869  21.017  28.091 -0.0441 -0.0890 -0.2576
96942W        W39933  20.586   0.247   2.412  0.2841 -0.1256  0.3143
96943W        W39934  22.015  27.045   7.688  0.0733 -0.0593  0.0723
96944W        W39935  32.085  20.779   6.260 -0.1753 -0.1189 -0.0524
96945W        W39936  16.301   5.970  16.577  0.1892 -0.4177 -0.0459
96946W        W39937  19.769   7.968   4.450  0.1136 -0.1098 -0.1349
96947W        W39938   4.698  28.775   5.897 -0.0269 -0.0212 -0.0718
96948W        W39939  27.548  11.478  23.887  0.0998  0.0643 -0.2092
96949W        W39940  10.384   5.793   3.635 -0.4120 -0.0573  0.0325
96950W        W39941  14.518  29.478   4.357 -0.3224  0.0420  0.0631
96951W        W39942   8.901  28.798  27.157 -0.1075  0.0150  0.1316
96952W        W39943  25.325   6.905   1.735 -0.0784  0.3591  0.1878
96953W        W39944   0.702  11.259   1.673 -0.0182 -0.0366 -0.1982
96954W        W39945  13.964  28.709  28.765 -0.3315  0.0501 -0.1756
96955W        W39946   0.410   4.756   1.168  0.0050 -0.0737  0.0742
96956W        W39947  10.762   6.036  21.365 -0.2744  0.0399  0.2488
96957W        W39948   8.618  24.874   8.316  0.2483  0.3625  0.2437
96958W        W39949   2.939  34.550   2.207 -0.0522  0.0972 -0.3519
96959W        W39950  10.341  26.956  27.960  0.0032 -0.0540  0.2603
96960W        W39951  22.939   3.767  26.530  0.0089 -0.2178 -0.0279
96961W        W39952   3.093  28.068   9.374  0.2994  0.1821 -0.3422
96962W        W39953   4.336  34.390   8.420 -0.0532  0.1064 -0.1285
96963W        W39954  13.403  21.017   7.519 -0.1178  0.4255  0.1819
96964W        W39955  14.690  33.146   6.390 -0.4693 -0.0167 -0.0080
96965W        W39956   5.537  32.099   2.329 -0.0467 -0.2474  0.0000
96966W        W39957   3.789  34.798   1.038 -0.1147 -0.1622  0.0260
96967W        W39958  20.858  14.151   8.709 -0.1415  0.0262  0.1111
96968W        W39959   4.736  17.281   7.209  0.1541 -0.0258  0.3314
96969W        W39960  30.247  10.975   8.185  0.0701  0.0290 -0.0023
96970W        W39961  19.528  24.488   3.609  0.2539 -0.1188  0.1509
96971W        W39962   4.587   4.588  10.273  0.1368 -0.3211  0.0443
96972W        W39963  23.121   3.412   0.570 -0.1652  0.0039  0.3391
96973W        W39964   9.518  29.606  26.248  0.3161 -0.0786 -0.3688
96974W        W39965  14.583   3.597   2.726 -0.0960 -0.0434  0.2025
96975W        W39966  12.295  32.053   2.905  0.0999  0.1505  0.0714
96976W        W39967  32.600  32.045  25.300  0.2450  0.0124  0.3381
96977W        W39968  21.632  34.316  25.293  0.0068  0.1171  0.2006
96978W        W39969  12.335   5.087   6.611 -0.0881  0.1873  0.1591
96979W        W39970  25.600  20.047   8.009 -0.1621  0.0398 -0.0101
96980W        W39971  11.480  27.875   9.410 -0.0818 -0.0114  0.0923
96981W        W39972  17.038  19.988   8.648 -0.2545 -0.0291 -0.3522
96982W        W39973  27.917  15.343   1.935 -0.1098 -0.0373  0.0662
96983W        W39974  11.557  28.323  10.372  0.0380 -0.1555  0.2076
96984W        W39975   2.089  28.032  27.720  0.2137  0.3363  0.0082
96985W        W39976  12.011  31.349  25.821  0.2151  0.1178  0.1234
96986W        W39977   6.868  28.443  22.966 -0.1367 -0.2023 -0.0211
96987W        W39978   1.686  21.757   8.715 -0.2049  0.1154 -0.0381
96988W        W39979  10.564  27.743  29.221 -0.1755  0.1537  0.4350
96989W        W39980  20.997   1.341   5.586  0.0674  0.2978 -0.0681
96990W        W39981   5.142   9.745  24.369  0.0410 -0.0846  0.1382
96991W        W39982  10.987   0.959   9.789 -0.0963  0.4231 -0.0511
96992W        W39983   4.051  21.483  23.109  0.1607  0.0207 -0.1494
96993W        W39984   1.620   1.911   5.502  0.1231 -0.0811  0.1123
96994W        W39985  23.062  24.136   9.189 -0.0150 -0.4311 -0.2598
96995W        W39986  33.239   9.106   7.936  0.2695  0.1882 -0.3533
96996W        W39987  12.747  10.288  10.276 -0.2264  0.1130  0.2999
96997W        W39988  10.259  27.040   6.604 -0.2113  0.1439 -0.2790
96998W        W39989  18.897  28.561  17.690 -0.1847  0.3826  0.0301
96999W        W39990  27.589  23.270  20.999 -0.1247 -0.0614  0.1490
97000W        W39991   6.163  22.695   0.622  0.0376 -0.1947 -0.0271
97001W        W39992  30.287  13.842   7.912 -0.0838 -0.0245 -0.3342
97002W        W39993  11.078  14.483   7.619  0.0902 -0.1571  0.2220
97003W        W39994   5.039   0.243   7.680 -0.1943 -0.1071  0.1459
97004W        W39995  21.336  33.254   7.539  0.0338 -0.0446  0.1987
97005W        W39996   0.658  34.586   5.112 -0.0963 -0.2510  0.2899
97006W        W39997  25.407  19.673   1.372 -0.0216  0.1837  0.2190
97007W        W39998  11.958  25.817  26.322 -0.0563  0.0490  0.1899
97008W        W39999  22.352  14.502   0.498 -0.1172 -0.2198  0.0184
97009W        W40000  26.817  12.680  22.126  0.1507  0.1938 -0.0111
97010W        W40001  19.581  31.227   2.603  0.3295 -0.1948 -0.0953
97011W        W40002   4.538  29.516  28.468 -0.0649 -0.1923 -0.1123
97012W        W40003   6.614   9.731   9.581  0.1807  0.0604 -0.5692
97013W        W40004  10.929  22.860   8.085  0.1727 -0.1422 -0.1423
97014W        W40005   9.024  22.982   4.259 -0.3391  0.0053 -0.2363
97015W        W40006   8.750  10.151   4.047 -0.1103 -0.2319 -0.0203
97016W        W40007   5.934  32.311  27.638  0.3691  0.1954  0.0819
97017W        W40008  23.851  29.942  28.014  0.0126  0.0271  0.0624
97018W        W40009   1.264  14.772   3.463  0.1662  0.1691 -0.0113
97019W        W40010  13.943  32.412   0.866 -0.0131 -0.0593 -0.0712
97020W        W40011  15.750   4.445   7.591  0.1537  0.2373  0.0275
97021W        W40012   4.052  23.778  24.576 -0.0604 -0.0067  0.1115
97022W        W40013  21.140   6.222   1.871  0.0823 -0.1871 -0.0672
97023W        W40014  25.514  28.179   8.784 -0.0136 -0.2546 -0.0335
97024W        W40015   4.913  30.894   1.465  0.2177 -0.0808 -0.3432
97025W        W40016  33.183  34.284  27.806  0.0015 -0.1609  0.0111
97026W        W40017   8.068  27.924  24.450  0.2118  0.0442  0.0318
97027W        W40018   4.741   7.457  27.445 -0.1332 -0.2467  0.0765
97028W        W40019  18.657  15.889   2.434 -0.0399 -0.0747 -0.1236
97029W        W40020  13.612   6.384   7.783 -0.2706  0.0068  0.0028
97030W        W40021   1.063  31.332   8.095  0.0209 -0.2295 -0.3984
97031W        W40022  21.170  22.662  26.516 -0.3055 -0.5584  0.0409
97032W        W40023  18.492  31.408   5.847 -0.0365 -0.0803  0.3410
97033W        W40024   6.963   2.786   7.739 -0.0017 -0.2057 -0.4173
97034W        W40025   9.310  28.705   2.606  0.1376  0.3350  0.2201
97035W        W40026   7.270   3.332  11.149  0.0536  0.1364 -0.2713
97036W        W40027   2.813   4.914  22.602  0.0469  0.0225 -0.2122
97037W        W40028  14.032  23.989  28.608  0.1292 -0.1906 -0.0172
97038W        W40029  13.203  24.663   6.612  0.0332  0.1451  0.2670
97039W        W40030   2.600   8.134   6.571  0.1352  0.0275 -0.0290
97040W        W40031  11.509  26.524  26.526  0.0994  0.2789 -0.0310
97041W        W40032  21.936  18.229   1.838  0.0529  0.1420  0.1563
97042W        W40033   2.064  31.141  26.437  0.1137  0.2031  0.1592
97043W        W40034  21.322  17.676  25.765  0.0899 -0.1986  0.0116
97044W        W40035  18.959  11.471  22.485  0.1006 -0.2756 -0.0060
97045W        W40036  13.662  15.219  28.514 -0.1936  0.3297 -0.0717
97046W        W40037   3.546   2.335  22.398  0.1223  0.0173 -0.0250
97047W        W40038  13.459   1.496  10.530 -0.1432 -0.1338  0.1474
97048W        W40039  27.168  31.233   3.383  0.3545  0.2851  0.1140
97049W        W40040  18.404  32.589   7.623 -0.0636  0.0483  0.1555
97050W        W40041  18.600  19.254  12.705 -0.1341  0.1673 -0.0991
97051W        W40042  26.147   1.595   5.550 -0.2975  0.2568  0.2216
97052W        W40043   1.251  19.855   1.405  0.1589  0.0481 -0.1218
97053W        W40044  26.999   4.232   4.176  0.0786 -0.0032  0.1392
97054W        W40045  25.258  27.261  29.094  0.3275  0.1919 -0.2127
97055W        W40046   8.780  27.738   1.854  0.0804  0.3414 -0.0189
97056W        W40047  21.372  33.709   8.855 -0.0631  0.0540 -0.0304
97057W        W40048  33.907   6.237  24.788 -0.2483 -0.1792 -0.1839
97058W        W40049  20.370   4.516  27.818  0.1435  0.3453  0.3555
97059W        W40050  26.094  28.521   4.937  0.3857 -0.0989  0.0138
97060W        W40051  24.459   8.853   1.497  0.0383  0.1717  0.0345
97061W        W40052  18.045  29.407   6.733 -0.0727  0.3129  0.1993
97062W        W40053   9.139  21.928  28.854 -0.2124 -0.2334  0.1659
97063W        W40054   8.415  14.591   4.788  0.0024  0.3896  0.1027
97064W        W40055  10.844  33.542   7.856  0.1788  0.1980 -0.1104
97065W        W40056   8.233  26.696  28.337  0.3193  0.4515  0.2232
97066W        W40057   1.929  33.339   8.814  0.1448  0.0186 -0.1061
97067W        W40058   1.495  20.192  28.046 -0.0069  0.1537  0.2222
97068W        W40059  23.869  29.550   2.249 -0.0898  0.1231  0.1999
97069W        W40060  11.076  26.464   5.574  0.0160  0.0142 -0.1859
97070W        W40061  16.787  27.165  25.228  0.0650  0.0914  0.0679
97071W        W40062  10.371  12.737   2.141  0.3145  0.3216 -0.2252
97072W        W40063  12.724   6.902  26.548  0.1041  0.2617 -0.1314
97073W        W40064  15.850  31.827   0.338  0.0284 -0.0590 -0.0205
97074W        W40065  19.592  28.164   8.107  0.0678 -0.2077 -0.0299
97075W        W40066  25.398  30.234   3.170  0.3789  0.0508  0.1629
97076W        W40067  30.331  26.100  18.498  0.1676 -0.3364 -0.2987
97077W        W40068  17.301  32.017   0.297 -0.1403 -0.0957 -0.1362
97078W        W40069  16.034  31.198   7.054 -0.1296  0.1592  0.0276
97079W        W40070  20.064  15.660   2.559  0.1232  0.1531 -0.2810
97080W        W40071  12.250  23.481  26.124 -0.3007  0.0184 -0.3157
97081W        W40072  13.683   0.316  18.938  0.2814  0.0046  0.1991
97082W        W40073  21.720  22.069   7.356  0.1773 -0.2645  0.2103
97083W        W40074  23.188  29.905  28.683  0.0088 -0.1372  0.0820
97084W        W40075  11.235  33.772   6.600  0.0469 -0.0371  0.0567
97085W        W40076  11.746  18.538   4.578 -0.4137 -0.4316  0.0020
97086W        W40077   0.011  22.118   8.845  0.2644 -0.2588  0.0187
97087W        W40078  21.252  32.831   6.430  0.0076 -0.1406  0.0482
97088W        W40079   2.298  11.707   8.231  0.0242 -0.0686 -0.1017
97089W        W40080  12.431   8.991   3.911  0.1859 -0.0958  0.2607
97090W        W40081   0.610   3.837   3.087  0.1735  0.1053 -0.2830
97091W        W40082  18.789  26.758   1.744 -0.0343 -0.0050  0.1756
97092W        W40083   6.121   7.009  10.894  0.1827  0.2330  0.4651
97093W        W40084   9.955   3.705   9.442  0.0030  0.0857 -0.1336
97094W        W40085  10.975   8.280   0.470 -0.2195 -0.1005  0.0958
97095W        W40086  13.218  26.315   1.706  0.0671 -0.1391  0.0111
97096W        W40087  25.193  19.755  26.815 -0.0745 -0.1755 -0.2198
97097W        W40088  19.945   2.828  27.725  0.1358 -0.3248  0.0001
97098W        W40089  22.196  23.395   9.188  0.0859  0.3255 -0.1732
97099W        W40090  10.985  29.775   3.542 -0.0880 -0.0565 -0.2124
97100W        W40091   9.487  24.696  10.146 -0.1732  0.3746  0.0461
97101W        W40092   7.364   6.806  11.291 -0.0121 -0.3042  0.1135
97102W        W40093  30.923  16.086   4.542 -0.0060  0.0736  0.0096
97103W        W40094  33.139  18.571  22.148 -0.2373  0.1801  0.2533
97104W        W40095  23.024   2.305   9.757 -0.0926 -0.1856 -0.0575
97105W        W40096   7.509  26.261   5.923  0.2951 -0.2425  0.0372
97106W        W40097   4.582  14.301  28.425 -0.1495  0.0077  0.5281
97107W        W40098  15.324   5.796  10.969 -0.2191  0.2159 -0.1467
97108W        W40099   4.802  24.240   2.556 -0.1399 -0.0507  0.0961
97109W        W40100  16.477  23.776  24.049 -0.0784  0.4163 -0.0677
97110W        W40101  13.930  30.248   4.177  0.0900  0.3264  0.1327
97111W        W40102  30.557   4.691   9.827  0.0457 -0.3058  0.1863
97112W        W40103  14.710  14.669  24.510 -0.0461  0.0659 -0.0534
97113W        W40104  31.783  17.645   7.097 -0.2099 -0.2658 -0.0036
97114W        W40105  20.106  18.248  22.581 -0.2920  0.1392 -0.1099
97115W        W40106  27.093  15.468  25.590  0.1577 -0.0447 -0.0209
97116W        W40107   9.583   2.566   6.724 -0.0721  0.0848 -0.2522
97117W        W40108  22.019   2.232   5.696  0.0258  0.0879  0.1650
97118W        W40109  11.184   5.047   8.921 -0.2281  0.0860 -0.4461
97119W        W40110  21.314  23.168   6.906  0.0109  0.0916  0.1364
97120W        W40111   7.189  33.039  22.352  0.1898 -0.0412  0.0523
97121W        W40112  16.207  34.327   4.956 -0.0847  0.0944  0.0874
97122W        W40113  13.706  23.949  28.111 -0.1125  0.3200  0.4694
97123W        W40114  20.337   0.634  24.310  0.0058  0.0830  0.1741
97124W        W40115  18.547   0.677   2.236 -0.1420 -0.1032 -0.2699
97125W        W40116  23.496  26.312   6.093  0.3718 -0.0810  0.0439
97126W        W40117  28.758  23.397  29.055 -0.2417 -0.2074 -0.3426
97127W        W40118  16.799  23.321   7.247  0.2512  0.2044  0.2498
97128W        W40119   3.250  22.731  21.929  0.0019  0.0964 -0.3061
97129W        W40120   6.936  29.454   9.382 -0.2572  0.1003  0.0407
97130W        W40121  16.480  31.066  26.315  0.0053 -0.0500 -0.0148
97131W        W40122  18.565  24.097   0.663 -0.4345  0.4518 -0.1576
97132W        W40123  12.043  16.580  19.932 -0.0478 -0.1011 -0.1806
97133W        W40124  34.221   3.483  26.514 -0.0329 -0.1850  0.0207
97134W        W40125  34.064   0.214   4.720 -0.0399 -0.0850 -0.1154
97135W        W40126  20.748  34.248  29.139  0.2032  0.1205 -0.0755
97136W        W40127  25.141   5.085   4.304 -0.2441  0.2467 -0.1684
97137W        W40128  15.180   2.950  27.752 -0.0001 -0.3346 -0.1945
97138W        W40129  20.145  10.054   8.829 -0.1753  0.0722  0.0458
97139W        W40130  21.678  12.875  21.184  0.5235 -0.3341 -0.0026
97140W        W40131  24.994  24.720   9.843 -0.4961  0.0531 -0.2912
97141W        W40132  14.742  11.560   6.153  0.0249  0.0610  0.2407
97142W        W40133   9.359  27.062   1.973 -0.2511  0.0176 -0.1920
97143W        W40134  20.564  22.538  23.397  0.1254  0.0271 -0.2914
97144W        W40135  27.122  34.129   4.682 -0.3188  0.0641 -0.1326
97145W        W40136   1.751  18.860  20.267  0.0520 -0.3414  0.0492
97146W        W40137  17.133  29.235   1.762 -0.1648  0.2696  0.3448
97147W        W40138  18.495  10.806   4.737  0.1189 -0.0772  0.2013
97148W        W40139  26.781   3.026  13.195 -0.0385  0.0965 -0.0543
97149W        W40140   2.072  18.863   0.076 -0.0408 -0.0668  0.0119
97150W        W40141   6.473  21.439   3.928 -0.0831  0.0041  0.0959
97151W        W40142   9.263   6.572   5.978  0.2306  0.1612 -0.0655
97152W        W40143   7.680  25.138   6.633 -0.1909 -0.0845  0.1941
97153W        W40144  15.513  31.754   3.440 -0.2535 -0.0711  0.1913
97154W        W40145  13.154  16.005  24.574 -0.0612 -0.0087  0.0459
97155W        W40146   1.792  20.949   7.982  0.0157  0.1736  0.0000
97156W        W40147   9.497   7.354   5.708 -0.2206  0.0351 -0.0734
97157W        W40148  23.113   5.540   4.993 -0.0939 -0.0941 -0.3411
97158W        W40149   6.583  25.834  24.016 -0.2510 -0.0017  0.0443
97159W        W40150  15.421  15.959   8.018  0.0798 -0.1703  0.0171
97160W        W40151  18.686  19.195   8.435 -0.0120 -0.2782  0.1897
97161W        W40152  13.289   6.803   3.414 -0.0591  0.0631 -0.1496
97162W        W40153  31.294  26.203   2.221  0.0887  0.4477 -0.4205
97163W        W40154  27.079   2.402  26.388 -0.0214 -0.1457  0.0598
97164W        W40155  15.726  22.251  23.008  0.3458 -0.0345  0.0435
97165W        W40156  24.169   1.017   0.899 -0.1260  0.0853  0.2182
97166W        W40157   8.343   0.663   9.686  0.2353  0.0720 -0.1302
97167W        W40158  14.200  18.749  23.576  0.2639 -0.2803 -0.1591
97168W        W40159  30.548  17.297  24.908  0.1148  0.4415 -0.1493
97169W        W40160  18.168  21.942  25.509  0.1373 -0.1886  0.0223
97170W        W40161  17.787  31.690  19.106  0.1370  0.3622  0.1780
97171W        W40162  15.716  33.738   1.796 -0.1178  0.2814  0.0457
97172W        W40163  12.646  30.918  29.229 -0.3769 -0.0292  0.0737
97173W        W40164  10.036   1.376   7.811 -0.0786  0.1922  0.0811
97174W        W40165  12.487  26.547   2.833  0.0740 -0.0288 -0.1520
97175W        W40166  19.496  13.065   3.718  0.2426  0.0403  0.1200
97176W        W40167  16.527  21.842   8.726 -0.0685  0.1401  0.1881
97177W        W40168  18.357   7.960  22.713  0.1085 -0.2876 -0.1136
97178W        W40169   2.327  12.320   0.668  0.2355 -0.1304  0.2161
97179W        W40170   9.240  19.619   2.581  0.0349  0.0754 -0.1583
97180W        W40171  11.293   6.616   4.007 -0.1930  0.1648 -0.1740
97181W        W40172   4.975  28.591   9.089 -0.2094 -0.0222 -0.0378
97182W        W40173  13.643   6.994  19.909  0.0009 -0.0629  0.2634
97183W        W40174   5.983  17.561   1.027 -0.2541  0.1624 -0.2261
97184W        W40175  20.377  10.102   0.632 -0.4831  0.0780 -0.0240
97185W        W40176   2.941  32.016   2.214  0.0043  0.0909  0.3029
97186W        W40177   0.732  32.898   7.747 -0.3305 -0.0318 -0.1480
97187W        W40178   4.921   0.078   7.057  0.1609  0.2738  0.0500
97188W        W40179  22.994  21.992   1.484 -0.2704 -0.0220  0.0631
97189W        W40180   9.572  24.066   7.150  0.1902 -0.1909 -0.1711
97190W        W40181   8.385   0.655   8.146  0.1445  0.2502 -0.0326
97191W        W40182  33.169  18.409   7.551 -0.1129  0.0541 -0.4169
97192W        W40183   7.306  31.701  26.626 -0.0252  0.0363 -0.0662
97193W        W40184  18.743  23.606   3.263 -0.1607  0.0658  0.2263
97194W        W40185  18.867  33.287   5.332 -0.1544 -0.1702  0.0340
97195W        W40186  22.299   1.901   6.849  0.1663 -0.1005  0.0416
97196W        W40187   1.367   3.103  28.952 -0.3005  0.1471 -0.1061
97197W        W40188  19.410  18.422   0.788 -0.1103  0.0782  0.3450
97198W        W40189  16.935  20.328  25.236 -0.3138 -0.0983 -0.1695
97199W        W40190  18.777  21.442  20.408 -0.0082 -0.0518  0.0664
97200W        W40191  11.873  27.101   4.284  0.0953 -0.1470  0.0744
97201W        W40192  29.130   0.755  24.892 -0.1256  0.1536  0.0485
97202W        W40193  33.711   2.105  21.925 -0.0415 -0.1009  0.0620
97203W        W40194  13.803  16.007   3.526  0.1777  0.1499 -0.0041
97204W        W40195   2.277  20.818   7.074 -0.1302  0.0999  0.1556
97205W        W40196   5.455   6.456  21.494  0.1852 -0.0206 -0.3638
97206W        W40197  23.661   8.568   3.008 -0.2787  0.0618 -0.3581
97207W        W40198  16.729  28.827   9.060  0.0474  0.2099 -0.1670
97208W        W40199  17.233  24.128  27.454 -0.1776 -0.1847  0.1376
97209W        W40200  13.821   9.622  19.118 -0.0592 -0.1994  0.1874
97210W        W40201  22.108   5.120   9.160  0.1492 -0.0473  0.2220
97211W        W40202  22.549  32.056   6.298  0.3623 -0.0371  0.0067
97212W        W40203  17.635  16.005   8.424 -0.1616 -0.2299  0.0476
97213W        W40204  10.377  16.643   0.482  0.0308  0.1720  0.2819
97214W        W40205   7.185   0.753   6.655  0.4142 -0.0909 -0.1153
97215W        W40206  25.948   0.196   6.681 -0.0968 -0.1840  0.0321
97216W        W40207  24.241  22.415   3.026 -0.0686 -0.1968  0.1447
97217W        W40208  29.212   5.583   6.941 -0.0375  0.4940 -0.3252
97218W        W40209   0.037  16.297  23.009  0.0833  0.1284  0.4195
97219W        W40210   4.657  29.649  21.642 -0.0540 -0.0779  0.0027
97220W        W40211  11.221  21.260  29.127  0.1048  0.1476 -0.2178
97221W        W40212  27.257  31.683   1.817 -0.0920  0.0123  0.1353
97222W        W40213   9.539  33.985  29.119  0.2802  0.0291  0.0396
97223W        W40214   1.120  33.335  17.550 -0.2192 -0.1662 -0.2334
97224W        W40215  13.446  31.389   5.454 -0.3291  0.0287  0.0758
97225W        W40216  14.694  31.744   8.842 -0.3445  0.0610 -0.0076
97226W        W40217  14.365   4.085   5.495  0.0467 -0.1113 -0.0881
97227W        W40218  13.966   9.083   2.304 -0.0391  0.1181  0.0308
97228W        W40219   5.164   9.084   1.856 -0.1440 -0.2723 -0.0952
97229W        W40220   7.858   1.532   3.488 -0.0666  0.1529  0.2160
97230W        W40221  26.910   1.144   6.938 -0.1319 -0.1201 -0.0888
97231W        W40222   3.315  14.222  22.849 -0.0558  0.0044 -0.1561
97232W        W40223  13.510  28.980   5.129 -0.0931  0.0904  0.1378
97233W        W40224  25.750  21.879  21.400 -0.2068  0.5264  0.4283
97234W        W40225  12.809  15.638  24.369  0.4922  0.1363 -0.1114
97235W        W40226   5.283   0.271  26.820 -0.1324  0.2165  0.2113
97236W        W40227  14.196  25.834  21.834 -0.0327  0.1710  0.2644
97237W        W40228   8.543   5.196  25.247 -0.0346 -0.0793 -0.1616
97238W        W40229  17.289  25.539   5.142  0.1270  0.0190  0.0581
97239W        W40230  33.067  34.409   2.206  0.0011 -0.0496  0.0004
97240W        W40231  10.679  18.253   7.146  0.1075  0.1793  0.0268
97241W        W40232   9.245  24.659   8.904 -0.0162 -0.1298 -0.1495
97242W        W40233   7.587   4.196   3.658 -0.1309  0.2071  0.3308
97243W        W40234  33.702  21.847   8.947 -0.1413  0.4264 -0.1665
97244W        W40235   3.886  10.563   8.370 -0.1184 -0.0035 -0.0527
97245W        W40236  13.103  14.215   6.820 -0.0246  0.0957 -0.1123
97246W        W40237  18.661   0.560   7.159  0.0289 -0.0953  0.0898
97247W        W40238   7.043  12.751  27.527 -0.3252 -0.0652 -0.0310
97248W        W40239  34.314  14.013   6.119 -0.1189  0.0065 -0.2389
97249W        W40240  23.708  22.584  16.216  0.1702 -0.0730 -0.0038
97250W        W40241  17.058  34.704   9.288 -0.0094 -0.0083  0.2010
97251W        W40242   8.653  29.656   0.965 -0.2245  0.2351 -0.1585
97252W        W40243  11.081  16.707  26.560  0.0958  0.1394  0.1173
97253W        W40244   1.039  24.078   8.159  0.0086 -0.0805  0.0225
97254W        W40245  17.974  21.054   1.795 -0.0738 -0.0540 -0.0854
97255W        W40246   2.568  23.697   5.351  0.1245  0.2387  0.1211
97256W        W40247  33.423  17.665   8.230 -0.2553  0.1979  0.0069
97257W        W40248  14.244  26.672   7.564 -0.1318  0.0148  0.2132
97258W        W40249   9.536  20.105   1.229 -0.1914  0.0522  0.0897
97259W        W40250   5.821  25.981  26.252 -0.0171 -0.3640  0.2654
97260W        W40251  13.409  11.217  22.914  0.0893 -0.1739  0.3919
97261W        W40252  29.356  23.967   2.765 -0.1840 -0.0361 -0.0802
97262W        W40253  23.359  20.936   7.114 -0.1896 -0.3337  0.3861
97263W        W40254   6.746  13.179   5.599  0.1808  0.1229 -0.0592
97264W        W40255   9.675  23.407  10.290  0.2575  0.2584  0.3452
97265W        W40256  14.542   6.927  21.449  0.2535 -0.3405  0.0329
97266W        W40257   1.903  27.890   7.712 -0.0742 -0.0175 -0.1770
97267W        W40258  27.865  16.007  25.379 -0.2238  0.2114  0.0061
97268W        W40259  31.145  29.049  22.830  0.2461 -0.1649  0.1661
97269W        W40260  22.858  27.993   3.657  0.0665 -0.2108 -0.2169
97270W        W40261  21.668  22.686   4.934 -0.1465 -0.1387  0.0115
97271W        W40262  13.532  22.433   9.433 -0.0332  0.2372  0.0714
97272W        W40263  32.497  33.199   8.201 -0.0393 -0.1080 -0.4698
97273W        W40264  34.150  30.724  27.407  0.2180 -0.0664  0.0619
97274W        W40265  22.854  24.435   0.334 -0.1878  0.5573 -0.1710
97275W        W40266  24.418  23.951  22.446 -0.0620  0.0128  0.0031
97276W        W40267   6.891  29.329  20.284 -0.1048  0.0930  0.0948
97277W        W40268   2.644  12.304   5.456  0.0869 -0.3054 -0.1068
97278W        W40269   8.618  25.410   8.658 -0.1788  0.0781 -0.2227
97279W        W40270  17.128  14.892   0.350  0.1899 -0.1655  0.0519
97280W        W40271  10.753   0.534  27.508  0.0489 -0.1321  0.1613
97281W        W40272  32.395  12.471  25.223 -0.5799  0.1530  0.4514
97282W        W40273  10.037  27.458   7.851 -0.4940 -0.0507  0.0295
97283W        W40274   9.799  33.405   9.432 -0.2239  0.2565 -0.3393
97284W        W40275  25.296  29.866  27.929 -0.1068 -0.1813  0.0145
97285W        W40276  13.040  26.582  27.315 -0.0636 -0.2338 -0.1232
97286W        W40277   7.299   1.241  18.608 -0.0511 -0.1545  0.1437
97287W        W40278   3.067  25.916  17.031  0.0215 -0.0504  0.1746
97288W        W40279   0.239   2.797  14.318 -0.0425  0.2694 -0.1779
97289W        W40280  19.129  10.805  14.285  0.0005  0.0284 -0.0806
97290W        W40281  15.301  16.621  23.888  0.0127  0.1614 -0.0493
97291W        W40282  16.186  30.050   8.990 -0.3223  0.3174  0.0957
97292W        W40283  33.162   4.742   0.081 -0.2651  0.2188 -0.1484
97293W        W40284  11.220   3.671  19.564  0.3465 -0.3203  0.2261
97294W        W40285  18.795  23.072   2.223 -0.3244 -0.1185  0.1852
97295W        W40286  19.001   0.046   3.693  0.3550  0.3020  0.1221
97296W        W40287  13.369   6.754  27.564 -0.1967  0.0422  0.2338
97297W        W40288  18.003   4.709   6.245 -0.1536 -0.1296 -0.4174
97298W        W40289  13.857   4.960  20.986 -0.1905  0.1563 -0.3505
97299W        W40290   2.907  16.232   0.538  0.2343  0.0403  0.0401
97300W        W40291  11.819  15.760   9.736 -0.1999 -0.2784 -0.2213
97301W        W40292   7.230   8.206   3.419 -0.1075 -0.1508 -0.0894
97302W        W40293  24.699   7.574  27.103 -0.1469  0.2718 -0.1134
97303W        W40294  10.363  19.389  20.127 -0.0683  0.2093  0.0706
97304W        W40295   1.713   0.461  24.609  0.1502  0.0513 -0.2217
97305W        W40296   2.074  24.966   9.540 -0.1068 -0.1669 -0.1883
97306W        W40297   4.102  25.800   8.351  0.1278  0.1774 -0.0295
97307W        W40298  13.597   7.020   3.072 -0.0194  0.3304 -0.0718
97308W        W40299  32.175   1.853  26.438  0.1451  0.2542  0.1740
97309W        W40300  24.439  27.381   1.605 -0.0459 -0.0347  0.0700
97310W        W40301   8.365  20.473  17.871 -0.2103  0.0757 -0.1256
97311W        W40302  18.651  34.469  27.691  0.1985 -0.0823 -0.0194
97312W        W40303  12.555  15.683   4.179 -0.1965 -0.3716  0.0286
97313W        W40304   5.166  26.196  18.041 -0.0355  0.2256  0.0956
97314W        W40305  10.657   6.167  14.480  0.0710  0.0900 -0.0932
97315W        W40306  14.078   8.074  10.011 -0.3865 -0.0923 -0.0771
97316W        W40307  13.628  22.963  23.542  0.0119 -0.1161 -0.2308
97317W        W40308  11.945   1.422   2.235 -0.1447 -0.2126 -0.2809
97318W        W40309  19.832  21.105   4.972 -0.0844 -0.0804 -0.2258
97319W        W40310  12.266  17.503   0.901  0.1815 -0.1890  0.1880
97320W        W40311   9.017  20.666   5.884 -0.1601 -0.0512  0.0076
97321W        W40312  22.042  28.006   6.779  0.2089 -0.0886  0.0033
97322W        W40313  31.217   5.540   9.307  0.2143 -0.0255  0.3115
97323W        W40314   8.684  29.383   8.111  0.1172 -0.0237 -0.1860
97324W        W40315  24.230  27.259   7.789  0.2036  0.1540  0.0788
97325W        W40316  23.992  21.118  18.191 -0.2698  0.1019 -0.2125
97326W        W40317  24.640   1.465  14.585  0.1682  0.2900  0.1783
97327W        W40318  16.163   9.811   2.831 -0.0935 -0.0211  0.0515
97328W        W40319  27.550  15.247  26.134 -0.0294  0.2417  0.1815
97329W        W40320  17.802  19.762   4.379 -0.1724 -0.1500 -0.0381
97330W        W40321   9.276  33.765  10.653  0.0795 -0.0224  0.1227
97331W        W40322  18.502  21.959  18.000  0.1750 -0.1663 -0.4990
97332W        W40323  21.239  27.590   8.148 -0.1427  0.0357  0.0968
97333W        W40324  28.967  16.861   8.064 -0.2280 -0.2275 -0.0717
97334W        W40325   6.782  22.265  27.200  0.2021  0.1901  0.1362
97335W        W40326  26.453  13.706  15.499  0.0783 -0.1142  0.3343
97336W        W40327  19.235   0.080   0.135 -0.1882 -0.1830  0.4114
97337W        W40328  33.747  31.650   9.386 -0.0720 -0.0376 -0.0032
97338W        W40329  16.755  28.140   0.680 -0.0380  0.0861 -0.1045
97339W        W40330  16.169  18.509   0.936  0.0944 -0.0658  0.1723
97340W        W40331  33.688  26.901   8.364 -0.1755  0.3333 -0.1325
97341W        W40332  17.397   0.917  15.243  0.1725 -0.1563 -0.1608
97342W        W40333  10.153  22.030   1.200 -0.0641  0.0329 -0.2170
97343W        W40334  27.631   6.496  16.864 -0.2498 -0.0008 -0.2223
97344W        W40335  11.760  28.854   4.249 -0.0129 -0.1231  0.2960
97345W        W40336  14.814  30.744  26.917 -0.0832 -0.0392 -0.0811
97346W        W40337  29.539  29.328  26.814  0.0562 -0.1401 -0.0438
97347W        W40338  25.733  18.268  20.734 -0.3410  0.1466  0.1987
97348W        W40339  31.600   5.340  19.339  0.1034  0.2632  0.0043
97349W        W40340  29.075  26.865   1.025 -0.0023 -0.1590 -0.1831
97350W        W40341  12.924   0.820   1.814 -0.0705 -0.3550 -0.2604
97351W        W40342  10.157  22.023   6.523 -0.2566  0.0522 -0.1606
97352W        W40343   4.799  30.983  16.605 -0.0936 -0.0144 -0.2258
97353W        W40344   3.762  19.737  24.688 -0.3079  0.0608 -0.0613
97354W        W40345  21.495  28.353  21.766  0.0835 -0.0496 -0.0241
97355W        W40346  30.353  29.011   2.331 -0.0501 -0.2746 -0.0515
97356W        W40347  22.094  31.612   7.647  0.1574 -0.1370 -0.0654
97357W        W40348  18.472  34.137  21.539  0.0454 -0.0201 -0.2544
97358W        W40349   9.157  34.649  10.710  0.0294  0.1462 -0.1027
97359W        W40350  11.147  28.259  20.614 -0.2701 -0.1641  0.1197
97360W        W40351  10.611  19.038  25.348 -0.5144 -0.0293  0.3089
97361W        W40352  16.572   4.548   5.179  0.0183  0.0801  0.0882
97362W        W40353   0.178  32.957  25.251 -0.0192 -0.2398  0.0108
97363W        W40354  11.699  30.999   3.945  0.0097  0.3950 -0.1514
97364W        W40355  14.240  29.807   0.067 -0.2209  0.2288  0.1005
97365W        W40356  18.252   5.464  25.013 -0.0234  0.0236 -0.4067
97366W        W40357  13.755  26.106   6.841 -0.1265  0.1583  0.1356
97367W        W40358  10.803  31.933  21.245 -0.0122  0.0572  0.0571
97368W        W40359  17.868  30.906  28.716  0.0510 -0.2234  0.0571
97369W        W40360  27.492  33.303  25.247 -0.1998  0.2862  0.0291
97370W        W40361   9.815  19.965  22.774  0.4148 -0.0472  0.0357
97371W        W40362  23.049   1.816  19.984 -0.0118 -0.1157  0.1429
97372W        W40363  23.611   7.792  20.086  0.0011 -0.4495 -0.2305
97373W        W40364   4.534  18.710  23.197  0.0833  0.0377 -0.2906
97374W        W40365  17.771  32.146   0.498 -0.2449  0.2418  0.0007
97375W        W40366  21.502  15.779   5.656 -0.0723 -0.2833  0.0309
97376W        W40367   4.948  13.452   3.678  0.0210 -0.0845  0.3153
97377W        W40368  22.268  11.513   0.800  0.1330  0.4357  0.2219
97378W        W40369   6.428  17.662  22.259 -0.3735  0.1890  0.5802
97379W        W40370  16.095   4.067   7.445 -0.0179 -0.0211  0.0183
97380W        W40371  11.248  33.367  21.757  0.0606 -0.1071  0.0243
97381W        W40372   3.840   6.817  18.439 -0.0079  0.1371 -0.1436
97382W        W40373  14.185   5.801  29.055  0.1801  0.2962  0.0673
97383W        W40374  15.535  29.446   9.022  0.2635 -0.1480 -0.0463
97384W        W40375   8.560  30.520   4.820  0.1480 -0.0187 -0.0551
97385W        W40376  13.228  33.630   3.273  0.2379 -0.0265 -0.2611
97386W        W40377   3.225   8.961   1.138  0.2392 -0.0405  0.0339
97387W        W40378  18.495  15.834  14.700  0.0866  0.0380 -0.2366
97388W        W40379  14.147  33.809  17.410 -0.1221 -0.1853  0.0994
97389W        W40380  29.701  28.241  16.262 -0.3897  0.4426 -0.0494
97390W        W40381  29.711  23.671   5.540  0.3194 -0.1400 -0.1355
97391W        W40382  20.493   8.046   0.117 -0.0741 -0.1357 -0.0953
97392W        W40383   5.260  26.004  22.697  0.3964  0.3618 -0.0285
97393W        W40384  34.747   4.849   7.907  0.1631  0.1566 -0.0936
97394W        W40385   7.477  23.488   4.308  0.0490  0.1683  0.1514
97395W        W40386  22.275  10.673  24.309  0.4144 -0.0037 -0.0201
97396W        W40387  20.037  27.867   4.866 -0.1970  0.1233  0.0465
97397W        W40388  13.252  23.946  20.310  0.2989 -0.0353 -0.3149
97398W        W40389   8.378  34.284   3.653  0.0536  0.1630  0.0051
97399W        W40390  13.113   5.175   3.404  0.1622 -0.1338  0.0244
97400W        W40391  15.688  34.693   7.918 -0.1807  0.0729  0.0952
97401W        W40392  26.872   9.093   5.447  0.0501 -0.0064 -0.0934
97402W        W40393  11.531  19.007  25.493 -0.0953 -0.1342  0.0299
97403W        W40394  24.265  30.759  19.614  0.0360  0.0720  0.2756
97404W        W40395  15.787  27.785  25.132  0.1626 -0.0033 -0.2136
97405W        W40396   2.369  16.681  27.968  0.0699 -0.2707 -0.5206
97406W        W40397  10.496  28.710  22.072  0.0717 -0.0826 -0.3324
97407W        W40398  32.567  30.661  13.598 -0.1379 -0.1730  0.1882
97408W        W40399   7.595  18.188   3.659  0.4442 -0.3989  0.0325
97409W        W40400  34.164  30.594  25.313  0.0204 -0.1540  0.0864
97410W        W40401  13.601  26.013   1.419  0.0069  0.1007 -0.0263
97411W        W40402  17.361  30.393  15.245 -0.1030 -0.0296 -0.0216
97412W        W40403   3.647  25.810  29.005  0.1099  0.0336  0.0459
97413W        W40404  34.486  26.910   1.840 -0.2558  0.1941  0.1999
97414W        W40405  14.274   2.859   4.646  0.1426 -0.4122  0.2358
97415W        W40406  12.847  29.993  21.565 -0.3649  0.1839 -0.0648
97416W        W40407  21.090  20.379   5.794  0.3753 -0.0536  0.0945
97417W        W40408   1.501  27.873  15.295  0.2574  0.0729  0.3483
97418W        W40409  14.712  29.194   3.454  0.0405  0.1518 -0.1674
97419W        W40410   3.727   9.765   0.883  0.0926 -0.0294  0.0449
97420W        W40411  18.710  22.714   0.477 -0.0233 -0.1225 -0.0232
97421W        W40412  10.505  18.258   0.422  0.1292  0.0381 -0.0604
97422W        W40413   4.393  21.747   9.330 -0.3196 -0.2217  0.0620
97423W        W40414  33.026   0.517  23.307  0.2217 -0.0442  0.2816
97424W        W40415  27.309   0.275   3.903  0.0400  0.2311  0.2251
97425W        W40416   9.292   6.204  17.962 -0.0134 -0.1721  0.2669
97426W        W40417  18.969   4.993   9.078 -0.2733 -0.1136 -0.2674
97427W        W40418  10.689  30.571  18.757  0.0745  0.0367  0.1764
97428W        W40419   0.763   7.291  28.083  0.1181  0.1274  0.0937
97429W        W40420   5.829   2.768   7.916  0.1057  0.1684 -0.2952
97430W        W40421  21.698   5.418   8.695  0.0868 -0.0804 -0.0914
97431W        W40422   0.615  32.061  24.468  0.1966  0.0581 -0.0584
97432W        W40423  21.858  28.487   6.585  0.0462 -0.2754  0.1164
97433W        W40424  22.557  31.397   7.377 -0.1306 -0.0739  0.0912
97434W        W40425  11.340  29.556   7.405  0.5324  0.1644 -0.0305
97435W        W40426  15.542  18.512  23.605  0.5565  0.0641  0.0896
97436W        W40427   8.278  27.109  10.182 -0.0847  0.0939  0.0159
97437W        W40428  20.124   3.029  14.225 -0.3156  0.1284  0.2419
97438W        W40429  14.158  26.315   4.054  0.2063 -0.0764  0.2651
97439W        W40430  19.852   0.871   8.555  0.1936 -0.1728  0.2314
97440W        W40431  12.207  26.218  24.724  0.2223  0.0145 -0.0254
97441W        W40432  19.816  26.882   4.264 -0.1307  0.0301 -0.0034
97442W        W40433  15.382  30.272  24.316  0.3546  0.2588 -0.3353
97443W        W40434  28.360  28.653  27.161 -0.0927  0.0746 -0.0709
97444W        W40435   6.532  32.498  27.184  0.2019 -0.0607 -0.0587
97445W        W40436   4.426  20.034  19.630 -0.1566  0.0140  0.1353
97446W        W40437  20.870   0.718  14.377 -0.0605 -0.1553 -0.1887
97447W        W40438   1.490  19.294  23.572 -0.0141  0.1578  0.1237
97448W        W40439  12.022  11.433   7.264 -0.0358 -0.1824 -0.3070
97449W        W40440   7.902  33.692   2.875 -0.1904 -0.0994 -0.0571
97450W        W40441  15.163  10.928   7.556 -0.3833 -0.0518  0.0696
97451W        W40442   6.924  31.615   9.275  0.1590 -0.0370  0.2246
97452W        W40443   7.959  25.624  27.767  0.0364 -0.0980 -0.1267
97453W        W40444  32.239  31.863   3.707  0.2295  0.1958 -0.2746
97454W        W40445  31.664  26.878  14.779 -0.1374 -0.1418  0.0075
97455W        W40446  12.844   9.650  24.660 -0.4741  0.3065  0.0457
97456W        W40447   6.639  28.075  27.445 -0.1567 -0.2489 -0.2758
97457W        W40448  23.865  10.622   0.058 -0.3749 -0.0417  0.0878
97458W        W40449  10.729  13.784   0.640  0.1227  0.0579 -0.0236
97459W        W40450  12.336  32.633  27.803  0.1700 -0.1537 -0.2296
97460W        W40451  14.450  32.068  25.494 -0.1400 -0.2600  0.0002
97461W        W40452  34.063  27.294   1.392 -0.0552 -0.1201  0.1434
97462W        W40453  15.841  28.352   7.234  0.2358  0.0807 -0.1240
97463W        W40454  20.580  16.574  28.710 -0.0841  0.0402 -0.2680
97464W        W40455  33.119  32.939  29.102 -0.1465  0.2006 -0.1149
97465W        W40456  18.811  17.332  27.046 -0.5298 -0.2486  0.3382
97466W        W40457   7.651  17.567   2.779  0.4552  0.1884 -0.3321
97467W        W40458  33.500  27.975   2.900  0.1048 -0.1309 -0.2189
97468W        W40459   8.612   1.467  19.259 -0.0463 -0.0216 -0.2154
97469W        W40460  32.063   5.785  28.193  0.1020  0.0717 -0.2410
97470W        W40461  16.560   7.157   2.977  0.2422 -0.2984 -0.4970
97471W        W40462  14.924  29.201   1.266 -0.0987  0.0066 -0.1896
97472W        W40463  32.597  30.303   1.659  0.3791  0.0917 -0.0142
97473W        W40464  27.961  14.950   2.229  0.1804 -0.2878  0.3096
97474W        W40465  32.103   7.591   4.867 -0.0294  0.1879  0.3151
97475W        W40466  18.231  16.832   1.927 -0.0444  0.0269 -0.1479
97476W        W40467  21.637  22.982  17.452  0.0144 -0.0189 -0.3950
97477W        W40468  10.495  30.953  10.510  0.1235  0.1179  0.2073
97478W        W40469   5.223   3.308  11.233 -0.0499 -0.0405  0.2496
97479W        W40470  20.546   0.502  13.306 -0.0605  0.0093 -0.1100
97480W        W40471   3.523  10.047  28.533  0.3528 -0.0490  0.1080
97481W        W40472   4.822  22.813  25.417 -0.0964  0.6004 -0.0409
97482W        W40473  19.768  17.987   2.423 -0.0362 -0.2248 -0.2034
97483W        W40474   6.877   7.995   9.960  0.1147 -0.0693 -0.0444
97484W        W40475   6.769  17.375  17.489 -0.2384  0.0584 -0.1956
97485W        W40476   2.592   9.258  23.815  0.1024  0.1481 -0.1029
97486W        W40477   3.323   0.627  15.470  0.0280 -0.2697 -0.0832
97487W        W40478  10.733   4.858   8.669 -0.2630  0.3179 -0.1374
97488W        W40479   8.989  17.561  29.006  0.0210  0.1165  0.5066
97489W        W40480   5.579  34.331  25.230  0.0606  0.2274 -0.0459
97490W        W40481  26.563  19.137   7.909 -0.1277  0.1994  0.1088
97491W        W40482  13.255  34.112   1.510  0.1005  0.2701  0.2065
97492W        W40483  34.572   7.404   6.706 -0.2652 -0.1597 -0.0933
97493W        W40484  12.369  29.593  28.537 -0.0155 -0.0089  0.0328
97494W        W40485  28.929  11.915   5.471  0.0739  0.4587 -0.2096
97495W        W40486  24.164  31.885   1.628  0.3300  0.0375 -0.0077
97496W        W40487  27.352  30.979   6.209  0.1361  0.0083 -0.2728
97497W        W40488  22.446  32.200   3.192 -0.0257 -0.2104  0.1957
97498W        W40489   9.203  23.069   9.621  0.1087  0.1215 -0.3669
97499W        W40490   7.933  23.315  28.668 -0.1269 -0.2387  0.1816
97500W        W40491   3.450   2.853   7.253  0.0823  0.1700 -0.0823
97501W        W40492   5.661  32.069  28.123  0.1778  0.1000  0.0381
97502W        W40493  12.889  30.495   5.693  0.1694 -0.1044 -0.0144
97503W        W40494  19.014   7.642   2.802  0.1274 -0.0954 -0.2972
97504W        W40495  28.456  20.466   0.283  0.1748  0.0398 -0.1667
97505W        W40496   5.200   3.050   1.762 -0.0363 -0.1116 -0.1263
97506W        W40497   8.786  26.714   0.701 -0.0397 -0.1409  0.3434
97507W        W40498  30.055   6.997   8.042 -0.2470  0.3214  0.2936
97508W        W40499  14.730  34.065   7.168 -0.3679 -0.0490  0.2682
97509W        W40500  14.072   6.491   5.146  0.0307 -0.2055  0.1496
97510W        W40501   7.585  32.777   9.456  0.1936  0.0503 -0.4553
97511W        W40502  12.419  19.789  19.867 -0.1539 -0.0382  0.2258
97512W        W40503  14.463  29.548  28.815  0.1046  0.0692 -0.2036
97513W        W40504  13.044  33.616   4.040 -0.1768  0.3955 -0.0229
97514W        W40505   5.053   7.349  27.899 -0.0100 -0.0071  0.3176
97515W        W40506  14.636   2.250  27.568  0.3261 -0.0036  0.2086
97516W        W40507   9.009   6.992  21.421  0.0523 -0.0196  0.0157
97517W        W40508  14.317  17.678   1.401 -0.2198 -0.1353 -0.1131
97518W        W40509   6.399  30.433   5.756  0.4209  0.2661  0.3062
97519W        W40510   1.531  27.631  22.164 -0.5033 -0.0504  0.0446
97520W        W40511  13.483   1.032   5.930  0.1622 -0.1531 -0.1140
97521W        W40512   0.686   8.473   9.185 -0.1174  0.1185  0.0427
97522W        W40513  19.877   6.021   3.492 -0.2190 -0.0353 -0.0113
97523W        W40514  31.658  11.881   8.389 -0.4615 -0.0000  0.2416
97524W        W40515  15.874  18.276   4.558  0.1858  0.1601 -0.1735
97525W        W40516  26.649  12.967   1.751  0.0385  0.2448 -0.2256
97526W        W40517  30.907  17.918   1.696  0.3110  0.1558 -0.1601
97527W        W40518  15.223  25.265  24.472  0.3749 -0.1744 -0.5012
97528W        W40519  16.788  24.879   0.498 -0.1909  0.0726  0.0385
97529W        W40520  17.153  25.945  28.982  0.3565 -0.0758  0.1581
97530W        W40521  18.512   4.871   3.082  0.0606  0.2532 -0.4131
97531W        W40522   6.534  15.484   8.263  0.0883 -0.2361 -0.0477
97532W        W40523  18.860   3.751  25.204  0.4322 -0.0164 -0.0573
97533W        W40524  13.593  14.703   0.307  0.0245  0.0693  0.1228
97534W        W40525   6.513  24.029   4.139  0.2115  0.3012 -0.0517
97535W        W40526   9.182  20.156  24.509 -0.0922 -0.2177 -0.1903
97536W        W40527  29.977  10.057   4.013  0.2624 -0.0256 -0.0856
97537W        W40528  29.354   3.069  17.588 -0.0595 -0.1835 -0.1367
97538W        W40529  31.592  18.343  25.429 -0.2884  0.1601  0.0232
97539W        W40530  18.331  22.923  24.756  0.2728  0.0784 -0.0687
97540W        W40531  10.753  29.447   3.212  0.3850  0.0879 -0.2813
97541W        W40532   8.324   0.068   5.883 -0.2995 -0.0193 -0.1927
97542W        W40533  33.322   7.959  28.844 -0.0038  0.2244  0.2631
97543W        W40534  18.910  23.381   4.160  0.0476 -0.0469 -0.3570
97544W        W40535  20.855  17.769  22.343  0.0072 -0.1288 -0.0972
97545W        W40536  22.805  16.246   3.226 -0.1122  0.0549  0.0739
97546W        W40537   2.271   6.982  25.541 -0.3030 -0.2676 -0.3098
97547W        W40538  13.404  11.327   9.287 -0.2068 -0.0328  0.1090
97548W        W40539  28.205   4.744  15.526 -0.2644 -0.0820  0.0181
97549W        W40540   8.924  32.475   9.409 -0.0830  0.5187 -0.0993
97550W        W40541   2.679   1.636  26.962 -0.0399 -0.0009  0.1925
97551W        W40542   8.609   2.670  10.355 -0.0325 -0.2138 -0.2348
97552W        W40543   6.522  26.804   8.739  0.2921 -0.1873 -0.0622
97553W        W40544   0.552   1.312   1.623  0.2271  0.0684  0.1004
97554W        W40545   6.032  30.576   9.434 -0.1905  0.1311  0.0346
97555W        W40546  15.467  19.007  27.838 -0.0455  0.0684 -0.2132
97556W        W40547   5.007   4.659   0.888  0.0384  0.2462 -0.2547
97557W        W40548  20.847   0.104  28.296  0.0862  0.0306  0.0352
97558W        W40549  20.192  29.847   7.238  0.0674 -0.1637 -0.0154
97559W        W40550  17.339   1.051   0.818 -0.1618 -0.2235 -0.4073
97560W        W40551  32.718  33.841  14.862 -0.0337  0.1174  0.0318
97561W        W40552   7.728   8.021  23.527  0.3066 -0.0159 -0.2690
97562W        W40553  23.913  29.519  15.915 -0.2732 -0.0265  0.0387
97563W        W40554   5.606   6.764   5.479  0.1402 -0.0683  0.0294
97564W        W40555   5.943  27.916  25.451 -0.0280  0.3248 -0.0272
97565W        W40556  26.740  26.444   4.719  0.0253  0.2377  0.0571
97566W        W40557  11.393  26.035  25.756  0.2111 -0.1007 -0.0420
97567W        W40558  16.833  33.088   1.221  0.0143 -0.2129  0.0084
97568W        W40559   0.345  32.339   6.089 -0.0360  0.1248 -0.0205
97569W        W40560  25.517   6.892  16.948 -0.0552  0.0786 -0.2373
97570W        W40561  32.014  33.805   2.249 -0.0250 -0.3268 -0.0021
97571W        W40562  13.589  17.825   2.364 -0.2036  0.0086 -0.2721
97572W        W40563  17.942  25.237  22.657 -0.0504  0.1545 -0.4024
97573W        W40564   8.880  25.701  23.751  0.4496  0.0372  0.1483
97574W        W40565  14.673  26.273  28.453  0.3153  0.2855  0.0402
97575W        W40566  19.620  33.087   1.702  0.1032  0.0952  0.2931
97576W        W40567  20.132   1.760  29.202 -0.0897 -0.1179 -0.0933
97577W        W40568  18.664  23.380   5.521 -0.1309 -0.4098  0.0752
97578W        W40569   1.722  26.445  24.350 -0.2599  0.0481  0.1324
97579W        W40570  10.532   4.691   0.277 -0.0518 -0.0734  0.0933
97580W        W40571  12.287   7.249  10.018 -0.1605 -0.0582 -0.1224
97581W        W40572  13.556   0.964   7.616 -0.0950  0.2647  0.0926
97582W        W40573  33.452  25.429   6.021  0.0442 -0.0385  0.0217
97583W        W40574  24.654  25.681   5.249 -0.1467  0.2733 -0.1853
97584W        W40575  11.155  12.418   1.692 -0.0424  0.2174 -0.2482
97585W        W40576  18.860   6.519  23.767 -0.1053  0.0511  0.0348
97586W        W40577  23.714   4.454  20.451 -0.2577 -0.2135 -0.0402
97587W        W40578  21.385   7.907   1.412 -0.1194  0.1387 -0.1557
97588W        W40579  15.924   2.221   7.326 -0.1643 -0.5147 -0.1060
97589W        W40580  12.939  14.594   8.858 -0.0764 -0.1810  0.0017
97590W        W40581  19.165   4.129  25.311  0.0006  0.0917  0.0732
97591W        W40582   7.881  29.725  24.611  0.0425  0.0105 -0.0231
97592W        W40583  16.382   6.899   7.253 -0.1184 -0.2926  0.0672
97593W        W40584   4.334  32.300   4.597  0.0658 -0.2358  0.0077
97594W        W40585  23.355  23.580   2.743  0.0010 -0.2029 -0.2766
97595W        W40586  19.935   6.517   2.943 -0.2445  0.2191  0.0046
97596W        W40587   1.426   2.171   5.118  0.1423  0.0276 -0.1098
97597W        W40588  19.482  19.679  24.769 -0.0254 -0.0709  0.0757
97598W        W40589  18.860   3.450  27.926 -0.4688  0.3423 -0.0518
97599W        W40590   1.928  28.914   4.590 -0.1354  0.2387 -0.1188
97600W        W40591  20.979  27.531   3.683 -0.3434 -0.1367  0.5154
97601W        W40592  17.761   3.789  22.637 -0.2926 -0.0337  0.0118
97602W        W40593  28.102  19.531  17.081  0.2397  0.3975  0.1070
97603W        W40594   7.272  10.278  25.544 -0.1884  0.2623  0.2874
97604W        W40595  16.104  29.239   0.886  0.2087 -0.0334 -0.1027
97605W        W40596  11.401  29.121   3.058  0.1214  0.2141  0.1453
97606W        W40597  19.512  34.088   8.350  0.1296  0.0098  0.0947
97607W        W40598  26.605  17.959  19.499 -0.2650 -0.4435  0.0014
97608W        W40599  12.732  23.817   2.497 -0.1181 -0.2230 -0.1434
97609W        W40600  10.581  27.274  28.658 -0.2238  0.0096  0.1978
97610W        W40601  27.299  14.544   2.278  0.1532 -0.1355 -0.3004
97611W        W40602  19.218   8.763   7.371  0.2130  0.1843  0.2397
97612W        W40603  21.713  25.036   0.644 -0.2403 -0.0192 -0.4004
97613W        W40604   8.145  12.351   6.051 -0.2259  0.0149 -0.1538
97614W        W40605  19.772   7.710   7.073  0.2927  0.0672  0.2694
97615W        W40606   1.974  32.332   8.761  0.1217  0.1498 -0.0664
97616W        W40607  17.153  12.746  26.906 -0.0019  0.1622 -0.0508
97617W        W40608  12.987   6.003   8.913 -0.1371 -0.1130  0.0312
97618W        W40609  30.968  10.201   1.359 -0.3756  0.2463 -0.1371
97619W        W40610  10.794  24.169   0.045  0.0738 -0.1271 -0.1704
97620W        W40611   1.659  31.556   9.536  0.0752 -0.1944 -0.1696
97621W        W40612  34.124  25.556   9.749 -0.0643 -0.3024 -0.2032
97622W        W40613  17.564  34.779   3.736 -0.2201  0.0259  0.0026
97623W        W40614   8.579  10.588  25.823 -0.1217 -0.0582  0.3271
97624W        W40615  14.882  15.282   4.772  0.1057  0.1430  0.1227
97625W        W40616  12.692  20.658  26.433  0.0691 -0.4352  0.1405
97626W        W40617  27.867  34.024   0.274 -0.0536  0.1557  0.1206
97627W        W40618  19.272   1.761   0.277 -0.3256  0.3114  0.2010
97628W        W40619  16.885  23.247   7.767  0.0837  0.3023 -0.0310
97629W        W40620   6.507  25.807  22.806 -0.3478  0.2368 -0.3413
97630W        W40621   4.579  16.694   9.650 -0.0908  0.0466  0.0843
97631W        W40622   6.250  34.767  15.154  0.2797  0.0034  0.3461
97632W        W40623  22.658  23.123   0.677  0.0562 -0.0488 -0.0747
97633W        W40624  13.492  33.473  29.031 -0.2450  0.2522 -0.0036
97634W        W40625  26.490  10.484   4.543  0.2551  0.1193  0.0345
97635W        W40626  16.966   0.955   6.818  0.2178 -0.1381 -0.1087
97636W        W40627  12.522   7.163   3.707  0.0904 -0.1110 -0.1847
97637W        W40628   0.224   3.161   8.988 -0.0336  0.2437 -0.0639
97638W        W40629   7.108   0.013  28.363  0.3647 -0.0305  0.1402
97639W        W40630  25.668  27.714   7.365  0.0547  0.1279 -0.0830
97640W        W40631   8.023  27.108   5.292  0.0108  0.0279  0.2656
97641W        W40632  25.666  28.128  25.142  0.1914  0.0519  0.1119
97642W        W40633  12.929   2.525   7.358  0.0476  0.0242  0.0015
97643W        W40634  13.241   7.061   5.910  0.3916  0.2813 -0.3465
97644W        W40635  10.603   2.510   9.231  0.1010 -0.0016 -0.0372
97645W        W40636  15.387   7.350  10.195 -0.1076  0.1530 -0.0462
97646W        W40637   1.647  27.325   8.546 -0.0970  0.0370  0.0078
97647W        W40638  15.811  12.563   2.364 -0.1892 -0.1614 -0.4685
97648W        W40639  12.978  24.913  18.518  0.0712  0.6310 -0.0044
97649W        W40640   9.790   8.628   3.806  0.0562  0.1906 -0.1721
97650W        W40641   6.142   5.166   7.639 -0.3090 -0.2443  0.0152
97651W        W40642  12.640   8.568   1.166  0.1166  0.0296  0.1684
97652W        W40643  15.832  13.114   6.147  0.0036 -0.1453  0.0167
97653W        W40644  20.690  26.995  29.057 -0.0244  0.0776  0.0714
97654W        W40645   4.561  10.261   0.372  0.1293 -0.0945 -0.2666
97655W        W40646  24.155  14.045   4.036  0.3771  0.0437 -0.0810
97656W        W40647  15.904  31.610   1.257  0.0139  0.2769 -0.1565
97657W        W40648   8.233   6.168   9.654 -0.1767  0.0338  0.1798
97658W        W40649  17.511  32.416   1.004 -0.0693  0.2743  0.1901
97659W        W40650   7.696  30.785   5.095  0.1667 -0.4933 -0.2704
97660W        W40651  14.318  31.192   5.900 -0.1603  0.2052  0.1603
97661W        W40652  29.056  15.602   9.238  0.1035  0.1728  0.1891
97662W        W40653  17.122   2.637   3.526  0.1736  0.1076 -0.0889
97663W        W40654   6.397   6.740   0.265  0.4935 -0.3618 -0.1908
97664W        W40655  13.520  17.174   5.638  0.0427  0.2244  0.1333
97665W        W40656   7.420  21.631  21.156  0.2370  0.0186 -0.1056
97666W        W40657  17.249  33.319   1.980  0.0677 -0.0323  0.1332
97667W        W40658  31.325  31.292  24.625  0.0242  0.4274  0.0591
97668W        W40659  10.315  26.230   3.697 -0.1896  0.1300 -0.1836
97669W        W40660   9.085  32.045   9.219 -0.0207  0.2367 -0.1761
97670W        W40661  14.519  25.531   4.951 -0.1586  0.0047 -0.3417
97671W        W40662  17.599  26.998  17.565  0.0544 -0.2167  0.1872
97672W        W40663  29.544  23.393  18.429 -0.0629 -0.0556 -0.1289
97673W        W40664  19.178  22.840  26.057 -0.2651  0.0455 -0.2274
97674W        W40665   8.306   5.017  28.120  0.2367  0.1596  0.2092
97675W        W40666  20.090  20.937  20.230  0.1455  0.2643 -0.2531
97676W        W40667  24.814  32.569  17.885  0.0170 -0.1181  0.0782
97677W        W40668   6.873  15.978   2.013  0.1196 -0.3314 -0.1193
97678W        W40669  17.783  16.383  14.730 -0.2975 -0.0290  0.1004
97679W        W40670   3.934  27.777   3.300 -0.1553  0.1365 -0.3100
97680W        W40671   7.548   0.375   6.648 -0.0501 -0.0836 -0.0422
97681W        W40672  27.812  24.971   0.578  0.0712  0.0747 -0.1708
97682W        W40673   7.484  14.030  23.722 -0.1419  0.2730 -0.0373
97683W        W40674  27.468   5.210   3.146  0.2265  0.0970 -0.0875
97684W        W40675  18.623  25.115  25.488  0.0311 -0.2275  0.1485
97685W        W40676  15.111   4.917  22.342  0.2931 -0.1045 -0.4990
97686W        W40677   4.225  26.764   1.271 -0.0281  0.3084 -0.2439
97687W        W40678  15.397   4.219   0.836 -0.0834  0.1094 -0.3735
97688W        W40679   3.696   5.638   5.836  0.1717  0.1609 -0.2677
97689W        W40680  34.272  30.977   2.049 -0.1390  0.0124 -0.1196
97690W        W40681  25.598  34.691   9.037  0.0658 -0.2214 -0.1879
97691W        W40682  11.992  33.635  24.966  0.3904  0.1486 -0.2413
97692W        W40683   7.936  34.575  23.423  0.1699 -0.1507  0.3039
97693W        W40684  13.392  29.686   4.907 -0.2552 -0.3908  0.0310
97694W        W40685   3.307   1.826   8.120 -0.0438  0.1794  0.0653
97695W        W40686  10.282  28.986  10.198 -0.0291 -0.0900  0.5003
97696W        W40687  31.319  10.450  26.056  0.0651  0.0341  0.2690
97697W        W40688   7.590  21.955   9.081  0.1188  0.3591 -0.2608
97698W        W40689   2.071   4.825  28.542  0.1923 -0.0380 -0.0637
97699W        W40690  18.713  27.501  28.213 -0.1511 -0.3464  0.0278
97700W        W40691   4.884  27.567  10.519  0.1521 -0.1310  0.0213
97701W        W40692   2.095   5.236   4.988  0.0017  0.2107 -0.1618
97702W        W40693  17.726  28.383   9.090 -0.3346 -0.2230  0.2974
97703W        W40694  15.991   7.469  15.179  0.0455 -0.0923 -0.1066
97704W        W40695   1.430   5.660   9.831  0.2146  0.1710 -0.1412
97705W        W40696   4.618  14.301   8.068 -0.3045  0.0209  0.0140
97706W        W40697   3.240   3.657   7.406  0.1468 -0.1504 -0.3197
97707W        W40698   3.453   3.097   6.812  0.1342  0.2747 -0.0695
97708W        W40699  21.662  23.709  26.911  0.3377  0.1502  0.0603
97709W        W40700  13.128  24.876  28.622 -0.0766  0.0382 -0.0531
97710W        W40701  14.090  33.014   2.796 -0.1466  0.0598  0.0986
97711W        W40702   6.419  22.226  24.645 -0.1692 -0.0816 -0.1213
97712W        W40703  13.124  24.404   9.567 -0.0951 -0.2739  0.1356
97713W        W40704   3.129  13.008   1.636  0.0348 -0.0350 -0.0980
97714W        W40705  12.558  21.449   1.703  0.1829  0.2527 -0.0026
97715W        W40706  10.741  15.469  28.989  0.4026 -0.0740 -0.1180
97716W        W40707   9.027  10.592   4.075 -0.1582 -0.1474  0.3045
97717W        W40708   1.742   9.311   6.017 -0.1114 -0.1986 -0.0863
97718W        W40709  22.559   1.634   3.848 -0.1381 -0.4412  0.1412
97719W        W40710  18.163  32.120  27.927  0.0403 -0.0242  0.0754
97720W        W40711   8.521  17.773   1.442  0.2655  0.2550 -0.3468
97721W        W40712  16.487  23.607   0.803 -0.2088 -0.0744  0.0702
97722W        W40713  14.654   9.243   8.552 -0.0981 -0.0556 -0.0241
97723W        W40714  24.872   3.761   1.618  0.1535  0.0150 -0.3214
97724W        W40715  15.936  32.942  22.261 -0.0353  0.1321 -0.0733
97725W        W40716  21.396  15.199  25.850  0.0609  0.3079 -0.1391
97726W        W40717  10.494   4.512   5.340 -0.1453  0.0969 -0.0293
97727W        W40718  16.951   2.888  25.868  0.2353  0.1657  0.0726
97728W        W40719  12.926  29.583   0.776  0.1037 -0.0358 -0.0899
97729W        W40720  10.227  26.813  28.394  0.2347 -0.0387  0.1258
97730W        W40721  32.578   3.657  26.320 -0.1289  0.2971 -0.0539
97731W        W40722  15.830  22.704   6.178 -0.0223 -0.1426 -0.1577
97732W        W40723   8.865   4.655  22.544  0.0468  0.2118  0.0515
97733W        W40724  23.689  13.930   0.260  0.1783 -0.0273  0.2194
97734W        W40725   1.230  15.842  28.624  0.1217 -0.2104  0.2946
97735W        W40726  12.791   7.067   9.155 -0.0925  0.0385  0.0105
97736W        W40727  13.628  10.776  10.033 -0.0719 -0.1349 -0.0636
97737W        W40728   6.760   5.847   8.072 -0.0462 -0.2704 -0.2940
97738W        W40729  12.004  25.956   2.889  0.0506  0.1704 -0.3094
97739W        W40730  19.454  29.283   6.957 -0.3365  0.0301 -0.2376
97740W        W40731  22.013  29.460   1.058  0.1855  0.2382 -0.3092
97741W        W40732   7.596  32.990   8.598 -0.0338  0.3781 -0.0826
97742W        W40733  15.536  28.010   3.704 -0.1723  0.0654  0.1147
97743W        W40734  14.011   4.580   8.745  0.1236 -0.1028 -0.2299
97744W        W40735  14.780   0.994   8.683 -0.1473  0.0586 -0.1293
97745W        W40736  12.615  16.079   3.789  0.1583 -0.1808  0.3582
97746W        W40737  13.555  31.554   9.085 -0.2288 -0.3090 -0.1287
97747W        W40738  19.061  25.066   0.093 -0.0179 -0.0480  0.1555
97748W        W40739  16.354   5.816   5.112  0.1841  0.1448 -0.0200
97749W        W40740  11.196  28.392   1.233 -0.1277 -0.1506  0.0028
97750W        W40741  13.065  18.503  27.598 -0.2201  0.1669  0.1220
97751W        W40742   2.181  15.877   0.720  0.0252  0.1915  0.0232
97752W        W40743  17.277   1.773   8.205  0.0867 -0.2883  0.1435
97753W        W40744  16.573  26.173   4.076  0.1718 -0.0876  0.2487
97754W        W40745  33.757  27.729   9.590 -0.0839 -0.1761 -0.0822
97755W        W40746   4.377   2.262   2.741  0.0381 -0.0554 -0.0370
97756W        W40747   2.674  29.383   4.910  0.0120  0.1236 -0.4463
97757W        W40748   0.036  28.472   6.589 -0.4360 -0.0032  0.0410
97758W        W40749  20.710  33.659   3.037 -0.2657  0.4433  0.0283
97759W        W40750  21.861  24.674   3.276 -0.0960 -0.1917 -0.0961
97760W        W40751  21.091   9.179   3.477  0.1527  0.1413  0.1392
97761W        W40752  13.149  25.456   8.715  0.2426 -0.0921 -0.3515
97762W        W40753   8.642  29.902   8.022  0.1714 -0.0488  0.3795
97763W        W40754  18.572  30.342  27.579 -0.0493 -0.3996 -0.2971
97764W        W40755   8.479  13.817  28.960 -0.0629 -0.0128  0.1201
97765W        W40756   6.274  12.414  10.547 -0.1706 -0.3873 -0.0629
97766W        W40757   1.963  34.786  27.647  0.0868  0.0411  0.0840
97767W        W40758  14.366  32.007   7.848 -0.2621  0.0621  0.4818
97768W        W40759   5.976  29.566   1.960 -0.3506 -0.2576  0.0815
97769W        W40760  23.841  15.260   4.526  0.0960 -0.2116  0.0158
97770W        W40761  17.408   1.906   2.622  0.1385 -0.2987  0.2662
97771W        W40762  24.196   8.087   1.704 -0.1221  0.2562  0.1611
97772W        W40763   8.195   6.071  28.963  0.3386  0.0732 -0.0227
97773W        W40764   5.159  31.566   4.448 -0.1645 -0.2386 -0.2188
97774W        W40765  13.570  27.394  26.929 -0.0243 -0.0371 -0.0066
97775W        W40766  17.105  32.359   9.413 -0.2077 -0.0459 -0.2793
97776W        W40767   8.349  32.582   7.147 -0.1197  0.0819 -0.1378
97777W        W40768  11.886   0.198  21.753 -0.2425  0.0788 -0.0655
97778W        W40769   8.033   4.686  14.437 -0.1182 -0.2695  0.1863
97779W        W40770  16.653  24.496   9.311  0.0376  0.0499  0.0747
97780W        W40771  11.462  26.808   5.405  0.0099  0.2557  0.0310
97781W        W40772  20.363  15.609   8.916 -0.0728 -0.1478  0.1411
97782W        W40773   3.310   1.022   5.286  0.1514  0.1473 -0.1134
97783W        W40774  28.786   8.728  27.894  0.0495  0.0315 -0.1089
97784W        W40775   3.409   1.329   1.923  0.1778  0.0537 -0.2539
97785W        W40776  34.541  13.588  28.533 -0.1906 -0.0730 -0.1153
97786W        W40777   5.442  27.854   9.823  0.1432  0.3986 -0.0146
97787W        W40778  27.116  33.661   7.921  0.0130 -0.2524  0.1687
97788W        W40779   8.733   1.636   8.449 -0.0181 -0.0248 -0.4828
97789W        W40780  13.752  16.128  20.756  0.0668  0.0547 -0.2601
97790W        W40781  12.473  16.513   4.772 -0.0688 -0.1951  0.0869
97791W        W40782  19.251  23.602  23.990 -0.1076  0.0238 -0.1843
97792W        W40783  28.430  12.749   6.713 -0.1699  0.1711 -0.1079
97793W        W40784  34.206   7.015   6.944 -0.2093  0.0786 -0.2878
97794W        W40785  19.859  31.359   7.101 -0.1765 -0.0340 -0.0162
97795W        W40786  15.277  10.059   2.511  0.1514 -0.0210 -0.0260
97796W        W40787  18.103   6.667  24.381 -0.2375  0.1337 -0.1104
97797W        W40788  26.054   4.614   9.853 -0.0255 -0.0579  0.4349
97798W        W40789  25.539  32.338  27.460 -0.0266  0.1022  0.2340
97799W        W40790   3.514   4.226   8.267 -0.0325 -0.1662 -0.3328
97800W        W40791   0.951  10.204   3.127 -0.0305 -0.0712 -0.0823
97801W        W40792  29.004  12.769  16.279  0.2010 -0.1657 -0.0744
97802W        W40793  13.179  32.544   9.126 -0.0455 -0.0689 -0.2474
97803W        W40794  12.486  19.931   9.375  0.2551 -0.1178  0.0588
97804W        W40795  19.134  27.051   6.265  0.0316 -0.0799 -0.1390
97805W        W40796   6.123  20.538   2.184 -0.3966 -0.0539  0.0085
97806W        W40797  10.694  31.121   5.452 -0.0096  0.1113  0.1868
97807W        W40798   2.440  29.760   2.415  0.2010  0.2417 -0.1401
97808W        W40799  21.536   9.708   4.804 -0.0659  0.0794 -0.2839
97809W        W40800   6.028  34.510  28.987 -0.2211 -0.0244 -0.1328
97810W        W40801   9.180   5.705   8.166 -0.0892  0.0823  0.0586
97811W        W40802   7.704   0.019  23.819  0.0391 -0.1531  0.2718
97812W        W40803  13.908   2.568   0.779  0.2413 -0.1510  0.1187
97813W        W40804  33.097  10.557   7.650  0.1101  0.2088  0.1250
97814W        W40805  12.300   0.625  27.438 -0.2950  0.0830 -0.0234
97815W        W40806   9.605  27.947   3.797 -0.0332  0.1849 -0.2595
97816W        W40807  14.887  26.505   9.654 -0.0008 -0.2372 -0.1177
97817W        W40808  20.472  24.307   2.167  0.2824 -0.0615 -0.3453
97818W        W40809  32.067  23.855   8.178  0.1652  0.1992 -0.0512
97819W        W40810  29.623   3.253   7.504 -0.1323  0.2245 -0.1690
97820W        W40811  17.179   7.253   3.665 -0.1908  0.4877 -0.1625
97821W        W40812  24.634  10.521   2.232  0.3469  0.0059 -0.2864
97822W        W40813  10.788  31.359   7.499 -0.2381  0.1515  0.3623
97823W        W40814  33.803  28.993  25.931  0.0957  0.0260  0.2235
97824W        W40815  21.957  28.238   0.603 -0.0049  0.0622  0.4724
97825W        W40816  27.605   0.816   1.545 -0.1826  0.0625  0.1816
97826W        W40817  13.944   8.716   5.438  0.1444  0.0635  0.0342
97827W        W40818  24.648  33.850   8.891  0.1475  0.0168 -0.0424
97828W        W40819  26.435  32.632   6.527 -0.1172  0.0740 -0.0326
97829W        W40820   6.882   9.022  27.062  0.2688 -0.2088 -0.1763
97830W        W40821   6.975  16.384  27.446  0.2764 -0.0469 -0.0543
97831W        W40822  28.336  26.987  26.188  0.0136 -0.0360  0.0641
97832W        W40823  16.051  34.565   5.786  0.1454  0.0824 -0.3629
97833W        W40824  32.128  28.653   8.583 -0.2861 -0.0441  0.2232
97834W        W40825  10.035  34.710   3.458  0.1660  0.1601 -0.0259
97835W        W40826  10.650  19.577  15.109 -0.1286 -0.0429  0.0647
97836W        W40827  10.184  20.808   8.644 -0.0978 -0.1990 -0.0378
97837W        W40828  27.555  19.666   9.939  0.1572  0.1817  0.1782
97838W        W40829   5.542   0.295  28.175 -0.1126 -0.1481  0.1138
97839W        W40830  11.350  23.070  25.125 -0.4039  0.0322  0.5169
97840W        W40831   7.442  11.192   7.120 -0.1056  0.3650  0.2771
97841W        W40832  27.379   4.598   7.689 -0.4961  0.0032  0.2345
97842W        W40833  25.235   4.318   5.240  0.0251 -0.0076 -0.0325
97843W        W40834  17.180  24.718   3.713  0.1379 -0.2770  0.1403
97844W        W40835   5.966  33.827  10.167  0.1579  0.1245 -0.0661
97845W        W40836  32.696   9.914  19.570  0.1233  0.4408 -0.0205
97846W        W40837  31.936   9.438  28.726 -0.3332  0.1669 -0.0165
97847W        W40838  33.845  29.399   4.715  0.1285 -0.1917 -0.0105
97848W        W40839  19.426   2.459   2.151 -0.2421 -0.0091  0.1221
97849W        W40840  17.713  30.240  25.495 -0.2384  0.2101 -0.0726
97850W        W40841   4.963  25.643   8.036  0.0468  0.0420  0.2629
97851W        W40842  20.296  31.707   0.229 -0.2232  0.0587  0.4717
97852W        W40843   3.051  13.359   5.375 -0.3107  0.0217 -0.0441
97853W        W40844   3.205  32.056   5.669  0.0255 -0.1112  0.3516
97854W        W40845  28.682  24.730   4.020  0.1030 -0.0684  0.1469
97855W        W40846  15.859  17.190   7.608  0.0876  0.0231 -0.2816
97856W        W40847  17.592  29.762   1.042 -0.0387  0.1165  0.1076
97857W        W40848  15.173  32.463   1.467  0.0380 -0.0977 -0.1752
97858W        W40849   3.347  14.549   0.416 -0.2566 -0.2084  0.1225
97859W        W40850  26.830  27.636  17.764 -0.1520 -0.0804 -0.0600
97860W        W40851  25.090  28.991   5.104  0.0166 -0.2398  0.2407
97861W        W40852   3.482  30.907   8.650 -0.1521  0.1142 -0.1605
97862W        W40853  21.611  32.440  23.472 -0.0269 -0.1028 -0.0895
97863W        W40854  23.722   8.588   8.702  0.1679  0.0351 -0.0418
97864W        W40855   1.758  24.750   0.166 -0.1293  0.0589 -0.0482
97865W        W40856  15.009   4.689  11.597  0.2134  0.1064 -0.1834
97866W        W40857  13.043   0.371  10.793 -0.1717  0.0775  0.1088
97867W        W40858   5.516  14.409  11.521 -0.2007 -0.2582  0.2884
97868W        W40859  14.783  22.664   7.735  0.0710  0.1578 -0.1157
97869W        W40860  34.566  34.064  14.378 -0.1268  0.1364 -0.0249
97870W        W40861  27.398  33.512  27.725  0.0949  0.1556 -0.1255
97871W        W40862  24.778  19.913   3.775  0.2230  0.2102  0.2173
97872W        W40863   5.305  29.540   9.876 -0.0675  0.0299  0.1601
97873W        W40864  15.279  27.335  17.228  0.2093 -0.3679  0.0258
97874W        W40865  14.417   2.955  22.304 -0.1409 -0.0359 -0.2504
97875W        W40866  25.897  19.902   9.232 -0.0420 -0.4114 -0.0850
97876W        W40867   6.254  34.744   7.250  0.4983 -0.2340 -0.1274
97877W        W40868  23.686  27.716  22.014  0.2674 -0.0496 -0.1034
97878W        W40869  15.751   8.152   8.211 -0.0942 -0.0831  0.0302
97879W        W40870   1.819  31.781   2.315 -0.1365 -0.1225 -0.1054
97880W        W40871   5.698  29.436  17.415 -0.2606 -0.0817 -0.0954
97881W        W40872  13.660   1.238  27.274 -0.0246 -0.3293 -0.2654
97882W        W40873  13.572  17.288   5.148 -0.4061 -0.1149  0.1248
97883W        W40874  25.332   5.593  28.127  0.0342 -0.0796 -0.0949
97884W        W40875  15.669   5.073   1.282 -0.1477  0.2655  0.0221
97885W        W40876   5.724  20.146   7.181 -0.1117  0.5114  0.0250
97886W        W40877  12.766   2.322   8.688 -0.0680  0.0621  0.1550
97887W        W40878   2.503  20.111   1.929 -0.2857 -0.2572  0.2343
97888W        W40879  11.178   8.958  18.465  0.1149 -0.0583  0.0882
97889W        W40880   0.433  30.522   1.404  0.1514 -0.3059 -0.1186
97890W        W40881  10.517  22.432  24.661  0.0301 -0.3759  0.0041
97891W        W40882  21.218  26.921   8.702  0.2032  0.0789 -0.0288
97892W        W40883   5.871  32.089  26.008  0.2822  0.0858 -0.0881
97893W        W40884  23.301  31.066  20.057  0.1115  0.0997  0.1054
97894W        W40885  12.269  22.167  19.262  0.2285 -0.2537 -0.2901
97895W        W40886  22.387  14.770   3.654  0.1927  0.0589 -0.0033
97896W        W40887  21.393   0.791   8.144 -0.1462  0.0364 -0.1509
97897W        W40888  13.849  18.673  21.325  0.0617  0.1160 -0.0488
97898W        W40889  21.195  19.209  25.943  0.0142 -0.0669 -0.0897
97899W        W40890   2.558   4.709   0.825  0.0759  0.3300 -0.1450
97900W        W40891   6.028  10.534  24.438 -0.1048  0.2798 -0.3362
97901W        W40892   2.975   0.253  26.579 -0.1128 -0.0789  0.2882
97902W        W40893  32.772   2.803  23.036 -0.0419  0.4219 -0.2808
97903W        W40894  30.622  15.500   3.397  0.0809  0.1581 -0.2061
97904W        W40895  20.090  23.114   3.836 -0.2240  0.0128 -0.0735
97905W        W40896  21.257   6.980  25.313 -0.1380  0.4297  0.0072
97906W        W40897  33.438   1.784   5.515  0.0345  0.1753  0.1633
97907W        W40898  31.120   4.714  28.339 -0.2570 -0.1664  0.0042
97908W        W40899  16.189  16.834  27.605 -0.0902  0.0174 -0.1553
97909W        W40900  10.192  12.502  23.624  0.1353  0.1562 -0.0416
97910W        W40901  25.707  17.234  17.568 -0.2185 -0.1449  0.1860
97911W        W40902  15.301  13.438   8.375  0.1357 -0.1825  0.0112
97912W        W40903  16.313  28.048   6.451 -0.2644 -0.0386 -0.0740
97913W        W40904  16.743  24.959  27.374 -0.1981 -0.2021 -0.0676
97914W        W40905  30.511   2.067  22.919 -0.1905 -0.0755 -0.3491
97915W        W40906   2.006  22.173   8.634  0.2379 -0.0256  0.1337
97916W        W40907   8.434  33.218   5.376 -0.0827 -0.0462  0.1460
97917W        W40908  18.221   9.423   9.586 -0.0207  0.0427 -0.2443
97918W        W40909  21.831  17.012   8.477 -0.1333 -0.0721  0.0531
97919W        W40910  11.193  29.620  14.719  0.0732 -0.0274  0.1471
97920W        W40911  20.347   0.053   3.328  0.0176  0.1304 -0.1117
97921W        W40912  34.294  33.912  22.519  0.1298  0.2939  0.0258
97922W        W40913  10.907  10.906   1.102  0.0158 -0.1615 -0.3303
97923W        W40914  10.474   3.732   1.200  0.1086 -0.0514 -0.2135
97924W        W40915   9.547   6.689   3.919 -0.2261  0.1850  0.0629
97925W        W40916  25.964  33.025  21.491  0.0681  0.2175 -0.0407
97926W        W40917  18.177  30.908   1.640  0.1468 -0.0228  0.0638
97927W        W40918  28.111  11.435   8.221 -0.3125  0.1129  0.3797
97928W        W40919  12.830  29.721   3.522  0.2978 -0.0114  0.0130
97929W        W40920  28.397  27.510   1.450  0.1790  0.0013 -0.1658
97930W        W40921  15.148  34.191   2.828  0.4991  0.2020  0.2202
97931W        W40922   7.575  34.495   4.797 -0.0929  0.2868  0.0798
97932W        W40923   2.954   2.970  22.445 -0.0971 -0.3615 -0.0841
97933W        W40924  15.357   6.445  18.657  0.2872 -0.1119  0.0593
97934W        W40925  31.195  33.044   3.662  0.2285  0.0505 -0.4606
97935W        W40926   7.604   1.676  10.730  0.1217  0.0993 -0.1868
97936W        W40927   8.877  21.459   8.180 -0.1151 -0.1351 -0.0224
97937W        W40928  32.323  21.184  26.366 -0.0188  0.0795  0.1418
97938W        W40929  28.785  13.572   3.046  0.0186 -0.2518 -0.1768
97939W        W40930  11.424  13.446  20.551 -0.0378 -0.0718  0.0578
97940W        W40931  13.340   6.056   4.055  0.2699  0.1529 -0.2336
97941W        W40932   4.178  29.198   1.670  0.3321  0.1207 -0.0115
97942W        W40933   5.067  32.386   4.993  0.0901 -0.1655  0.0286
97943W        W40934  25.150  12.784   8.212  0.2545  0.0037 -0.0368
97944W        W40935  29.110  33.434   0.317  0.0002  0.1590  0.1149
97945W        W40936  14.952   7.665   2.993 -0.0209 -0.0327 -0.0426
97946W        W40937  15.376  31.657   0.492  0.0340 -0.2077 -0.0503
97947W        W40938  30.518   5.267  27.714  0.1248 -0.2116 -0.0865
97948W        W40939  16.068  29.733  23.143 -0.0545 -0.2534  0.1029
97949W        W40940   5.336   2.396  19.380  0.3721  0.0453 -0.1170
97950W        W40941  17.585  29.690   6.135  0.1075 -0.3269 -0.1423
97951W        W40942   4.615  32.358  16.916  0.0254 -0.1389 -0.0375
97952W        W40943  29.721  32.476  28.706  0.1406  0.2103 -0.0069
97953W        W40944  24.309   4.566   6.161 -0.0849 -0.1262  0.0104
97954W        W40945  14.839  30.443   7.449 -0.1700  0.1067  0.3559
97955W        W40946  27.458   3.329   2.275  0.0660 -0.1109 -0.1308
97956W        W40947  17.995   2.177  28.534  0.0285  0.0112  0.0696
97957W        W40948  14.890   2.398  18.425 -0.0889  0.1959 -0.0791
97958W        W40949  21.499  22.654   0.509 -0.2313  0.1038 -0.2908
97959W        W40950  10.218  31.786   1.969  0.0400  0.3080  0.1712
97960W        W40951  31.717   4.461   8.689  0.1759 -0.2095  0.0267
97961W        W40952  17.243  31.419   3.970  0.2763  0.0985  0.0031
97962W        W40953  22.815  21.270  21.995  0.2274 -0.0674 -0.0573
97963W        W40954  31.203  31.801   7.218  0.1117  0.3113 -0.1017
97964W        W40955  13.172  18.726   6.926 -0.0004  0.0122  0.3720
97965W        W40956   9.929  11.566   9.118 -0.0837  0.2706 -0.1121
97966W        W40957  34.755  31.805   8.717 -0.2622  0.1631 -0.3989
97967W        W40958  16.470  24.680   1.345  0.2608 -0.0128  0.0456
97968W        W40959  26.659   5.140  14.726 -0.3317 -0.3680  0.0078
97969W        W40960  28.801  14.338  21.811  0.2186  0.0672 -0.1950
97970W        W40961  22.195  33.458   5.312 -0.0983  0.2215 -0.2304
97971W        W40962  16.822  34.153  28.134 -0.3112  0.0781 -0.1373
97972W        W40963   4.861   6.791  21.080  0.2545  0.1124 -0.4423
97973W        W40964  30.139  21.691   2.629  0.0580  0.1000  0.2026
97974W        W40965  27.147  18.982  26.613  0.1883 -0.1333 -0.2020
97975W        W40966   7.675   7.201  28.235 -0.1348  0.2312  0.1472
97976W        W40967   7.634  11.421   5.720 -0.2232  0.0188 -0.0388
97977W        W40968   2.606  29.525   0.625 -0.1063 -0.2473 -0.1176
97978W        W40969  17.833  23.847  26.649 -0.0623 -0.0057  0.0485
97979W        W40970   2.550   3.428   6.162  0.2067 -0.1174  0.3123
97980W        W40971   5.464  28.851   4.229 -0.4829  0.3323 -0.2432
97981W        W40972   6.211  32.900  25.515  0.2182 -0.0314  0.1077
97982W        W40973   8.542  14.634  26.682 -0.3136  0.3547 -0.2108
97983W        W40974   9.424  25.167  29.125 -0.2685 -0.2161  0.0951
97984W        W40975  13.297   1.217  25.399 -0.1385  0.2064 -0.3541
97985W        W40976  18.882  31.424  16.890 -0.0401  0.0912 -0.2119
97986W        W40977  20.484  31.538   1.013  0.3228 -0.2829 -0.2974
97987W        W40978   6.894  17.371   8.159  0.1522  0.2363  0.0120
97988W        W40979   5.507   2.402   8.054  0.1687  0.1710  0.4108
97989W        W40980  19.567  29.344  19.487 -0.1496  0.1782 -0.1253
97990W        W40981   9.835  15.161  23.847  0.1873  0.0942 -0.0946
97991W        W40982   9.164  15.202   7.380 -0.0264  0.0545 -0.0104
97992W        W40983  26.425   3.107  16.916  0.1005  0.2045 -0.2359
97993W        W40984  26.908  32.088  16.365 -0.1917  0.2261 -0.0229
97994W        W40985  15.020   8.044  25.873  0.1350  0.1021  0.2198
97995W        W40986  15.357  18.192  23.194  0.0402 -0.2270  0.1284
97996W        W40987   5.244  28.748  20.169 -0.5385 -0.0151 -0.0716
97997W        W40988  27.164   2.225   8.032  0.1750 -0.0400 -0.0647
97998W        W40989  26.806  28.179   5.509  0.0465 -0.0796 -0.0722
97999W        W40990  20.901  29.331   0.936  0.1642  0.3003 -0.0749
98000W        W40991  20.562  29.741   9.058  0.1798 -0.2703  0.0642
98001W        W40992  18.472  31.709  14.681 -0.3588  0.2285  0.0921
98002W        W40993  10.072   9.284   8.033 -0.1981  0.1348 -0.0557
98003W        W40994  27.445  27.219   7.520  0.1209  0.2343 -0.3912
98004W        W40995  22.427  10.442   2.336  0.1310  0.0977  0.1499
98005W        W40996  22.926  13.555  24.786  0.1768  0.1160 -0.0057
98006W        W40997   6.192  22.155  21.311 -0.1129  0.2634 -0.2369
98007W        W40998  31.625   1.721  27.827 -0.2010  0.4740  0.2175
98008W        W40999  13.343   9.908  20.426  0.2461 -0.4797  0.3182
98009W        W41000  21.147  10.722  18.539 -0.1245 -0.0130 -0.2798
98010W        W41001   4.215  30.236   2.812 -0.2544 -0.0279  0.3975
98011W        W41002  13.234  26.907   7.940  0.0502  0.2564  0.1880
98012W        W41003  12.783   2.079   2.733  0.0870  0.0042  0.5137
98013W        W41004  22.068   4.218   2.203 -0.1678 -0.1498 -0.1213
98014W        W41005  19.108  31.480  21.835 -0.1170 -0.1794 -0.1760
98015W        W41006  24.463   7.001   6.979  0.2372 -0.0266 -0.1541
98016W        W41007  26.499   0.595   8.561 -0.0680 -0.4321  0.0324
98017W        W41008  31.692   9.865   6.578 -0.0920 -0.0874  0.0575
98018W        W41009  14.204  21.010   8.444 -0.1456 -0.1134 -0.0829
98019W        W41010  26.967   5.791  22.411 -0.2034  0.2823  0.0599
98020W        W41011   0.275  34.255  24.924  0.2391 -0.2004  0.0168
98021W        W41012  25.287  28.990   8.968 -0.2519  0.2862  0.3902
98022W        W41013  19.892  11.595   5.450  0.1279  0.2183 -0.0197
98023W        W41014  23.091  21.784  23.628 -0.2581 -0.0755  0.3316
98024W        W41015  27.899  26.315   5.554  0.0111 -0.2769 -0.1089
98025W        W41016   4.532  34.338  28.767 -0.1120  0.3219 -0.0610
98026W        W41017  13.230  34.393   1.071 -0.2346 -0.2835  0.1381
98027W        W41018  22.725  11.185   4.481 -0.0825 -0.1543 -0.1059
98028W        W41019   6.183  33.384   7.610 -0.1596 -0.0046 -0.1754
98029W        W41020  14.183  27.240   4.952  0.0994 -0.1449 -0.1636
98030W        W41021  15.458  12.370   0.728 -0.0422  0.0204  0.0782
98031W        W41022  20.860   4.952   8.748 -0.0239  0.1068 -0.1320
98032W        W41023  16.163  10.566   6.631  0.1114 -0.2355 -0.1427
98033W        W41024   2.668  27.393   0.178 -0.1232  0.1688  0.0141
98034W        W41025  19.058   0.396   2.332 -0.4195  0.1984  0.4251
98035W        W41026  32.018  27.531   8.095  0.2411 -0.0883  0.4789
98036W        W41027  13.400  11.043   9.660  0.2257  0.1505 -0.1824
98037W        W41028  17.982  30.273  16.923 -0.2172 -0.3925 -0.1437
98038W        W41029   7.721  20.367  22.628  0.0048 -0.2121 -0.0867
98039W        W41030  17.572  34.626  26.834 -0.1470  0.0613 -0.0931
98040W        W41031  20.545  33.416  20.548  0.0409  0.1836  0.1311
98041W        W41032  17.866  19.356   4.837  0.0589  0.2841  0.1496
98042W        W41033  17.609  26.061   2.074  0.0331 -0.1616 -0.1935
98043W        W41034  23.322   5.951  22.141  0.0448 -0.1572  0.1355
98044W        W41035  33.572  13.514  27.121 -0.4259 -0.1500  0.0256
98045W        W41036   9.919   5.366  24.334 -0.0901 -0.1530 -0.3258
98046W        W41037  16.439   8.384  16.091  0.0564  0.3449 -0.1315
98047W        W41038  17.799   7.182   2.123  0.1341 -0.1878  0.1342
98048W        W41039  13.989   5.230  16.480  0.3040 -0.0828 -0.0060
98049W        W41040  33.517  34.155   7.860  0.0914 -0.0369 -0.1445
98050W        W41041  12.501  34.788  29.244 -0.1037 -0.2972 -0.2559
98051W        W41042   4.134  16.307   5.305 -0.0338 -0.0590 -0.2037
98052W        W41043  11.379  13.819   1.755 -0.2049  0.0659  0.0832
98053W        W41044  12.416   9.524  27.286  0.1203  0.1811 -0.0247
98054W        W41045  24.218   7.524   3.688  0.0515 -0.2201  0.0424
98055W        W41046   7.922  32.123   3.330  0.1628  0.0606 -0.2394
98056W        W41047  19.776   3.725  21.520 -0.0393  0.2109  0.3399
98057W        W41048  15.181  34.015   1.047 -0.1343 -0.3616 -0.2053
98058W        W41049   4.599   4.493  23.595  0.1888 -0.2513  0.3727
98059W        W41050  34.105   8.239   2.236  0.0473 -0.1179 -0.0346
98060W        W41051   8.905   9.569   9.253  0.0248 -0.1745 -0.2261
98061W        W41052  16.711  34.266  20.668 -0.1173 -0.2017 -0.1737
98062W        W41053   9.320  33.389   3.062  0.1904  0.0307 -0.1585
98063W        W41054  18.356  21.791   5.801 -0.0041  0.1340  0.0704
98064W        W41055  15.434   6.444   2.321  0.2067 -0.0825  0.0810
98065W        W41056   3.072  28.351   8.358 -0.2377  0.0881  0.0834
98066W        W41057   4.378  25.433   6.615  0.1339  0.0098 -0.1785
98067W        W41058  22.998  18.128  21.088  0.0157 -0.0397 -0.0760
98068W        W41059  14.547  31.221   9.069  0.1337 -0.3131 -0.0424
98069W        W41060  11.778   2.130  25.741 -0.0705 -0.0723 -0.2309
98070W        W41061   3.548   4.460   1.514  0.3448  0.1850 -0.1500
98071W        W41062  34.344   3.497   8.407  0.1484 -0.3101 -0.2944
98072W        W41063  30.410  30.586  24.682 -0.0959  0.0575  0.1776
98073W        W41064  16.912   0.687   4.994 -0.1333 -0.0357  0.1919
98074W        W41065   3.452   6.695  19.327 -0.0138  0.0116 -0.0740
98075W        W41066  29.188  14.106  25.746 -0.1545  0.2598  0.3650
98076W        W41067  11.538  16.841   3.234  0.0504 -0.1336 -0.2811
98077W        W41068  25.714  33.344  24.609 -0.2036  0.0596 -0.1553
98078W        W41069  11.566  34.054   6.894  0.1006 -0.3020 -0.0527
98079W        W41070  11.891  32.182   4.838  0.4781  0.1276 -0.1191
98080W        W41071  24.050  21.726  23.451  0.2321  0.0261  0.0293
98081W        W41072  28.949  22.319  13.557 -0.0430 -0.1407  0.0353
98082W        W41073   8.008   0.855   9.354  0.1509 -0.1433  0.1341
98083W        W41074  21.380   3.832  27.628  0.0436 -0.2334  0.0273
98084W        W41075  14.150  16.640  26.337 -0.1601 -0.0426  0.2426
98085W        W41076  25.363   8.446  23.517 -0.1144  0.1952  0.2272
98086W        W41077  17.408  10.170   2.901 -0.3617 -0.0169 -0.1345
98087W        W41078  13.795  10.625   5.522  0.0309  0.2365  0.1816
98088W        W41079  16.503   0.117  10.507 -0.1761 -0.2231 -0.3847
98089W        W41080  10.715  30.535  10.805  0.0569  0.1201  0.1578
98090W        W41081  34.784  23.476   4.949 -0.1504 -0.2047 -0.3480
98091W        W41082   5.704   2.344  10.697 -0.0964  0.1866 -0.1421
98092W        W41083  19.061  31.688   1.024  0.1557 -0.2470 -0.1816
98093W        W41084  18.084   4.576   1.690 -0.0221 -0.4155  0.4326
98094W        W41085  23.355   7.046  28.349 -0.4041 -0.0748  0.2105
98095W        W41086   3.585  22.480  28.151  0.4647 -0.0824 -0.1655
98096W        W41087  23.461  31.151  25.307  0.0627 -0.1680  0.1232
98097W        W41088  19.012  26.313  26.255  0.0207  0.2787 -0.1522
98098W        W41089  16.550  34.479  25.141  0.1349  0.0959  0.3582
98099W        W41090  34.551  12.772   2.279  0.0284 -0.3956  0.1707
98100W        W41091  24.564  16.406   1.364  0.1735 -0.0957  0.1548
98101W        W41092  25.183  11.120   1.047 -0.2439 -0.0516  0.1735
98102W        W41093   6.137  29.943   6.062 -0.0743  0.2263 -0.3935
98103W        W41094  15.004   9.391  25.631 -0.4372 -0.4076 -0.4059
98104W        W41095  23.269  34.689  26.904 -0.3085  0.1886 -0.2810
98105W        W41096  10.370   3.066   7.141  0.3770 -0.1232 -0.3261
98106W        W41097  19.464  23.216   5.038  0.0960 -0.1628 -0.4846
98107W        W41098  18.006   2.041   0.851  0.1087 -0.0685  0.2096
98108W        W41099   5.049  33.820   9.904 -0.0283 -0.1401 -0.0402
98109W        W41100  27.428   2.896   9.156  0.3581 -0.0245  0.1788
98110W        W41101  13.538  33.418   8.676 -0.1161 -0.3990 -0.1439
98111W        W41102  23.448   5.505  22.409  0.0293 -0.1249  0.0163
98112W        W41103  15.751  13.743  27.601 -0.0055 -0.0090  0.1832
98113W        W41104  15.779   6.333  21.345  0.2021 -0.2927 -0.0021
98114W        W41105   6.800   5.203  19.750  0.4571  0.1347 -0.1887
98115W        W41106   0.306  25.745   4.187  0.0348  0.1465 -0.1774
98116W        W41107   7.319   2.193  26.586 -0.0421  0.2641  0.2820
98117W        W41108  18.073   6.923  14.985  0.3774  0.0206 -0.0480
98118W        W41109  14.120  12.731   6.229  0.1172 -0.0277  0.0264
98119W        W41110  11.211  33.822   5.543  0.0660  0.0448  0.2045
98120W        W41111  18.910  13.458   0.556  0.1958 -0.0297  0.0912
98121W        W41112   9.700  29.033  27.603  0.1603 -0.0922 -0.2943
98122W        W41113  12.480  32.370   7.351 -0.0110 -0.0055  0.3081
98123W        W41114  22.292  14.017   3.472 -0.3312  0.0952  0.0142
98124W        W41115  13.266  17.361   6.026  0.2545  0.1076  0.3010
98125W        W41116  15.005   6.080   2.369 -0.0211  0.0374  0.3078
98126W        W41117  18.441  33.071   7.411 -0.0922  0.1968  0.1655
98127W        W41118  21.368  26.090   8.407 -0.1681 -0.2002 -0.3060
98128W        W41119   0.810   2.344   1.603 -0.0073 -0.0546  0.1305
98129W        W41120  30.496   2.439   2.871 -0.1971 -0.2001 -0.0110
98130W        W41121  20.140  32.173  14.335  0.2111 -0.3148 -0.0285
98131W        W41122  22.624  21.494   1.812 -0.0300  0.0664  0.0992
98132W        W41123  16.018  29.111   4.711 -0.3025 -0.2118 -0.1131
98133W        W41124   6.870  28.150  27.937 -0.2468 -0.0366 -0.0984
98134W        W41125  11.833  33.107  24.571  0.1981  0.2289 -0.0077
98135W        W41126  12.163   9.103   5.549  0.2132  0.1259 -0.1298
98136W        W41127   1.519   3.332   7.067 -0.3793  0.1050  0.1625
98137W        W41128   9.955  23.740   1.617 -0.0637  0.2097  0.3493
98138W        W41129  24.531  31.420   4.506  0.1508  0.1613  0.2002
98139W        W41130  23.168  24.838  26.636  0.1789 -0.1670  0.1894
98140W        W41131  15.926  23.924   3.298 -0.1355 -0.0911  0.0670
98141W        W41132  19.502  11.782  24.467  0.2915  0.0083 -0.2338
98142W        W41133  13.708  14.954   4.361 -0.4053 -0.0696  0.3064
98143W        W41134   2.838  15.270   3.350  0.2834  0.0754 -0.1280
98144W        W41135  20.731  10.990   6.729 -0.2003  0.1173  0.1741
98145W        W41136  22.502  29.744   7.603 -0.1304 -0.1867 -0.0657
98146W        W41137  28.281   9.194  17.030  0.1053 -0.0380 -0.0457
98147W        W41138  28.693   8.441  22.151  0.1013  0.0217  0.0691
98148W        W41139  17.391   8.185  28.959 -0.2161 -0.1274 -0.1024
98149W        W41140  25.305  10.701   0.611 -0.0101 -0.0138  0.0661
98150W        W41141  12.761  34.414   0.829 -0.0523 -0.0839 -0.0415
98151W        W41142  17.111  31.719   7.909 -0.0516 -0.0704  0.3219
98152W        W41143  22.905  17.596  21.112 -0.1969 -0.0311  0.0290
98153W        W41144  23.921   8.059   6.094 -0.2136 -0.1019  0.1965
98154W        W41145  17.888  27.460   8.626 -0.4406 -0.0274 -0.0904
98155W        W41146  25.243   5.871  21.728 -0.1296 -0.0152 -0.4262
98156W        W41147  22.007  21.202   4.785  0.1893  0.1782  0.0962
98157W        W41148  26.252  10.596   7.511 -0.0146  0.0594  0.0074
98158W        W41149  23.527  24.177  15.995 -0.1450 -0.1586  0.2360
98159W        W41150  22.280  26.312   1.029  0.2839 -0.2178  0.1399
98160W        W41151  28.155  33.822   5.403  0.1566 -0.1650  0.0646
98161W        W41152  25.482   0.402   6.798 -0.2175 -0.1762 -0.0518
98162W        W41153  21.377  30.364  25.618 -0.1458 -0.3646  0.1834
98163W        W41154  27.653  30.514   0.129  0.1133  0.2932  0.1784
98164W        W41155  17.076  14.500   3.952  0.1147 -0.1141  0.1793
98165W        W41156   0.136  30.075  28.893  0.2360  0.1051  0.2334
98166W        W41157  10.336  33.035   0.461  0.3488 -0.3338 -0.0167
98167W        W41158  22.777  11.469  14.173  0.0652  0.0332  0.1503
98168W        W41159  21.924  10.104  20.103  0.3017  0.1188  0.0621
98169W        W41160  13.996  30.159  19.479 -0.1412  0.0733 -0.0319
98170W        W41161  13.716  16.739  15.417  0.0129  0.1088  0.0686
98171W        W41162  13.886  22.415   1.975  0.2444 -0.1317  0.1834
98172W        W41163  22.664  33.849   9.159  0.1696 -0.2764  0.5490
98173W        W41164  13.765   0.130  16.542  0.1052 -0.1447 -0.2843
98174W        W41165  20.103  31.299   3.420 -0.0412 -0.2550  0.0147
98175W        W41166  30.152   3.983  18.670 -0.1889 -0.0901  0.1329
98176W        W41167  11.369   4.351   4.185  0.2146  0.0894 -0.0223
98177W        W41168  16.044  12.318  23.783  0.4443 -0.0513 -0.0441
98178W        W41169  27.090   7.983  20.007  0.2820 -0.2348  0.0550
98179W        W41170  20.973  31.438   2.660 -0.0515  0.1722  0.1415
98180W        W41171  18.015  28.682   1.797 -0.2885 -0.2006 -0.1882
98181W        W41172  15.494  15.334   0.746  0.2599  0.0133  0.2448
98182W        W41173   1.555   7.971   3.969  0.0777  0.1877 -0.1859
98183W        W41174   7.000  17.823  10.776 -0.2958 -0.0734 -0.0297
98184W        W41175  15.326   2.644  29.254 -0.1701  0.0860 -0.1696
98185W        W41176   1.139   2.280  27.084  0.1302 -0.2806  0.0503
98186W        W41177  21.425   7.808   4.066 -0.2018  0.2032  0.3318
98187W        W41178  27.571  34.138  28.044  0.2172  0.2542 -0.0268
98188W        W41179  24.297   0.949  28.285 -0.0019  0.1338 -0.0302
98189W        W41180  10.052   6.733   5.099  0.1087  0.2190 -0.0056
98190W        W41181  12.066  11.345  20.277 -0.0479 -0.2669  0.1050
98191W        W41182   6.277  11.375  10.494  0.1058  0.2072  0.0898
98192W        W41183  20.766   5.539  28.871  0.2304 -0.3903 -0.0753
98193W        W41184  20.716   7.041  28.129 -0.1427  0.0957  0.1324
98194W        W41185   9.652   8.985   9.395  0.1811 -0.1181 -0.2110
98195W        W41186  17.792   1.097   4.560 -0.0356  0.0346 -0.2034
98196W        W41187  18.358  29.356   2.547 -0.2477 -0.3046 -0.0135
98197W        W41188   5.201  30.592   8.562  0.0350 -0.3239 -0.0097
98198W        W41189  22.696  29.907  24.518  0.1490 -0.0111 -0.1762
98199W        W41190  25.383   3.314   2.866 -0.1978 -0.0261 -0.0015
98200W        W41191   6.334   4.667   5.618  0.1972  0.1494 -0.2267
98201W        W41192  18.767   3.681   3.431 -0.0752  0.0307 -0.2515
98202W        W41193   2.126   2.779   0.858  0.0365 -0.0817 -0.2732
98203W        W41194  13.740   1.621   6.193 -0.1444  0.0845  0.0469
98204W        W41195  24.598  10.328  23.348 -0.0201 -0.2697  0.0724
98205W        W41196   6.715  24.370   2.470  0.1410  0.1976  0.0305
98206W        W41197  23.056   2.842  23.367  0.1687  0.2174 -0.1517
98207W        W41198  15.972  30.763   8.237 -0.2469  0.1180  0.1946
98208W        W41199  21.688   4.413   5.297 -0.0083  0.2444 -0.0488
98209W        W41200  24.264   2.400   3.117  0.0597 -0.4075 -0.1562
98210W        W41201  17.772  21.941   7.657  0.1799  0.1262 -0.0999
98211W        W41202  13.031   6.510   5.056  0.1356 -0.0016  0.1080
98212W        W41203   3.873   9.987   5.947 -0.1403 -0.0027  0.1352
98213W        W41204  22.296  21.641  19.640  0.5094  0.1135 -0.1336
98214W        W41205  18.772  33.825   3.784 -0.0034  0.0319  0.0965
98215W        W41206  15.292  16.231  24.830  0.2847  0.0974  0.0194
98216W        W41207  22.187  12.904  23.199 -0.0429  0.0865 -0.2427
98217W        W41208  14.943  29.812  26.323  0.2083  0.2444 -0.4864
98218W        W41209  20.630  11.673  15.217 -0.3651  0.1842 -0.1256
98219W        W41210   9.317   6.373   5.220 -0.0612  0.1983 -0.2506
98220W        W41211  10.994   1.364   5.213 -0.0046 -0.2387 -0.0290
98221W        W41212  13.980  30.261   4.660  0.0947 -0.2199 -0.1517
98222W        W41213  12.141   5.850   3.172 -0.1834 -0.0829 -0.1657
98223W        W41214  31.105  29.197  25.344  0.2719  0.0822 -0.1534
98224W        W41215  10.227   8.039   2.791 -0.5466 -0.2012  0.1283
98225W        W41216  32.645   5.054  17.419 -0.1874 -0.0312 -0.1936
98226W        W41217  18.917  25.483  24.134  0.0283  0.2637  0.1888
98227W        W41218  12.006  20.389  27.081  0.1686  0.1070  0.0159
98228W        W41219  30.735   6.112   8.080  0.0377  0.1657  0.2478
98229W        W41220  17.910   1.416   8.743  0.2609 -0.2849 -0.0850
98230W        W41221  20.992  15.323  14.286  0.1039 -0.0599  0.0676
98231W        W41222  15.403  17.820  29.080  0.3044 -0.3276  0.0173
98232W        W41223  15.803   5.479   1.508 -0.0341 -0.0277  0.0029
98233W        W41224  21.387  19.960  26.858 -0.0560 -0.0504 -0.3094
98234W        W41225  29.645  33.550   9.113 -0.1951  0.4023  0.2541
98235W        W41226  27.385  27.675  24.259  0.3029 -0.0728 -0.0861
98236W        W41227   0.685  31.420   3.691 -0.0836  0.3735 -0.1868
98237W        W41228   1.380   6.442   1.764  0.0973  0.0892 -0.0242
98238W        W41229  11.073   3.177  16.490 -0.1248 -0.2012 -0.0773
98239W        W41230   8.029   1.656  10.958  0.1857  0.0446  0.2557
98240W        W41231   6.031  23.625   1.105 -0.1413  0.0075 -0.2024
98241W        W41232  22.755  13.832   5.750  0.2414 -0.1984  0.2762
98242W        W41233  18.272   3.048  25.660  0.0254  0.3003 -0.0641
98243W        W41234  20.272  34.177  23.522 -0.3975 -0.0946 -0.0349
98244W        W41235  11.264  31.462  26.837  0.0585 -0.1230  0.0703
98245W        W41236  17.507   6.578   2.236 -0.2647 -0.1602 -0.3032
98246W        W41237  18.266   6.372  20.517  0.1406 -0.1266 -0.2092
98247W        W41238   6.466  23.118   9.460  0.1907 -0.1601 -0.1188
98248W        W41239  20.473   6.956   0.334  0.1872 -0.0775 -0.0255
98249W        W41240  11.652  13.060  28.288  0.2073  0.0135  0.1057
98250W        W41241   3.232  19.271   9.688  0.0965 -0.0807  0.1822
98251W        W41242   4.373   4.897  20.439  0.2289 -0.1848  0.2134
98252W        W41243  21.686  28.564   0.199 -0.1730  0.1479 -0.1153
98253W        W41244  14.866  11.837   3.763 -0.4835  0.0882  0.0994
98254W        W41245  19.041   2.915  25.008  0.3238  0.0385 -0.0714
98255W        W41246   4.546   3.073  26.091  0.1591 -0.0049 -0.1418
98256W        W41247   5.013  27.153  27.692  0.0325  0.0406 -0.0448
98257W        W41248  18.767   0.540   3.624 -0.2858 -0.0408 -0.3819
98258W        W41249  14.040   8.442   7.358  0.0762 -0.0347 -0.0266
98259W        W41250  32.991  23.405   6.735 -0.1248  0.1062  0.1059
98260W        W41251   5.356   4.017  16.349  0.0517 -0.0450  0.0936
98261W        W41252  13.379  33.127   6.236 -0.1661 -0.1262 -0.0060
98262W        W41253  11.973  24.447  24.812 -0.2436  0.0039 -0.0999
98263W        W41254  17.556   2.079  26.005  0.2422  0.2618  0.0415
98264W        W41255  30.360  17.987  25.733 -0.1100  0.2332 -0.0606
98265W        W41256  23.374   3.508   4.546  0.4198  0.0823 -0.2663
98266W        W41257   7.926   8.791  10.472  0.0387 -0.0451 -0.0038
98267W        W41258  26.683  31.362  26.446 -0.2981  0.1364  0.2850
98268W        W41259  23.436   6.153   9.196 -0.2076  0.1993 -0.4041
98269W        W41260  10.854  25.214   3.923 -0.3744  0.1554  0.0741
98270W        W41261  19.732  23.876  23.187 -0.0917  0.1465 -0.0037
98271W        W41262  12.108   7.794  21.551  0.0609 -0.4537 -0.0616
98272W        W41263   9.945   8.556  27.775  0.0913  0.1951 -0.1335
98273W        W41264  24.260  11.687   0.470  0.3607 -0.0222  0.1395
98274W        W41265  18.145  27.519   1.970  0.0418  0.1728 -0.0035
98275W        W41266  10.254   8.702   9.933 -0.4057  0.1249  0.0335
98276W        W41267  23.328  27.563   1.324  0.0155 -0.0842 -0.1960
98277W        W41268   6.870  13.689   8.757 -0.3356  0.2070 -0.0893
98278W        W41269   8.538  29.414  10.086  0.2744 -0.1388 -0.2499
98279W        W41270  15.751   7.345   9.867 -0.1304 -0.2193 -0.0540
98280W        W41271  25.687   0.291  25.093 -0.2867 -0.1010  0.0858
98281W        W41272  12.121  22.518   8.938  0.1424  0.1471  0.0062
98282W        W41273   3.655  10.368   9.590  0.1814  0.0687 -0.2228
98283W        W41274  16.315  18.856  27.483 -0.0232  0.0946  0.1004
98284W        W41275  26.289  10.373  18.790 -0.1277 -0.1634  0.0771
98285W        W41276   3.787  30.991   9.867 -0.1811 -0.1249  0.1686
98286W        W41277  20.422   8.177   5.247  0.1429 -0.1357  0.0032
98287W        W41278  20.060   4.215   4.778  0.2053 -0.4151  0.0572
98288W        W41279   5.771  20.285   1.901 -0.0108  0.3112 -0.1499
98289W        W41280  18.769  18.365   5.477  0.1756  0.0051 -0.1729
98290W        W41281  34.154   3.926  19.192  0.1574 -0.4656  0.1106
98291W        W41282   7.189  33.532   1.585 -0.2186  0.3630  0.0267
98292W        W41283  28.458   5.857  25.529 -0.1458 -0.1413  0.3184
98293W        W41284  13.263  31.884   7.899  0.0545  0.0102 -0.3199
98294W        W41285  11.626  27.062  28.803 -0.2114 -0.1803  0.0029
98295W        W41286   1.842   4.177   7.252  0.4400  0.0563  0.0494
98296W        W41287  17.845  26.207  26.091 -0.3227  0.0523  0.2997
98297W        W41288  22.502  18.876   5.571 -0.1329 -0.1497 -0.1880
98298W        W41289  32.646   8.389  24.760 -0.1355 -0.2375 -0.3426
98299W        W41290  22.208   8.511  24.935 -0.0180 -0.2450  0.2661
98300W        W41291  10.191  22.324   1.646  0.0859  0.1601 -0.1290
98301W        W41292   4.675   0.225  24.599 -0.0395  0.1996 -0.0746
98302W        W41293  24.610  32.961   4.171  0.1779 -0.4390  0.0745
98303W        W41294  30.122  31.249   8.903 -0.2422 -0.0890  0.0702
98304W        W41295  20.245  29.578  25.392  0.1193 -0.2646  0.0417
98305W        W41296  33.695   6.337  28.775  0.0945 -0.3444 -0.0434
98306W        W41297  14.261   8.782   6.430 -0.3978 -0.0434  0.1104
98307W        W41298  12.946  33.409   0.737  0.1320 -0.2381  0.0349
98308W        W41299  23.119   3.993   6.886 -0.2245  0.0476  0.3624
98309W        W41300  21.104   3.275   4.812 -0.3370 -0.0613 -0.1637
98310W        W41301  19.907  18.731  23.208 -0.0966 -0.1397  0.1273
98311W        W41302   0.377  30.074  21.912  0.3721  0.3095 -0.1791
98312W        W41303  11.445   5.933  10.228  0.0966 -0.1507  0.0630
98313W        W41304  10.514   2.678   7.859 -0.0084  0.2190 -0.0211
98314W        W41305  18.606  10.369   7.867 -0.1769 -0.3012  0.3664
98315W        W41306  19.198  15.843  22.929  0.0190 -0.1372 -0.0101
98316W        W41307  30.285  34.741  28.253 -0.2517 -0.0757  0.0520
98317W        W41308  23.911  13.544   1.778  0.1844  0.1904  0.1070
98318W        W41309  21.236  22.684   1.074 -0.2637  0.0212 -0.1495
98319W        W41310  13.826  34.477  15.782 -0.0045  0.0936 -0.0561
98320W        W41311   7.574  33.609  25.198 -0.1759 -0.0253 -0.0828
98321W        W41312  11.753   1.888   8.809  0.2065 -0.1601  0.0260
98322W        W41313  16.642  22.042  27.441  0.0960  0.2632 -0.0735
98323W        W41314  34.496  33.222   3.462 -0.2570  0.0747  0.1918
98324W        W41315   7.436   0.151   1.948  0.0352  0.2101  0.2160
98325W        W41316  22.081   7.594  21.101 -0.0559 -0.0845  0.2666
98326W        W41317   7.765  30.038   8.329 -0.0406 -0.0896 -0.3296
98327W        W41318  14.027  10.922   7.886  0.3180  0.0060  0.0771
98328W        W41319  17.909   7.236  20.831  0.0551  0.2402 -0.1132
98329W        W41320  17.757  31.089   5.432  0.3184 -0.1379 -0.0260
98330W        W41321   2.128   2.353   1.319 -0.1991 -0.2953  0.0070
98331W        W41322   4.024  22.727   1.789  0.0332 -0.0213  0.1523
98332W        W41323  25.412  28.820  29.098 -0.0472 -0.1110  0.0349
98333W        W41324  17.516   2.868   6.575  0.1026  0.1881 -0.0587
98334W        W41325   7.546   0.070  26.181 -0.1876  0.0361 -0.0120
98335W        W41326  15.975  27.045   4.810 -0.1495 -0.0355  0.2466
98336W        W41327  32.162   5.188   1.893 -0.3237  0.3778 -0.1407
98337W        W41328  11.394  23.272  14.119  0.1709  0.0855 -0.0131
98338W        W41329  20.356   8.003  15.576  0.1844 -0.5606 -0.0888
98339W        W41330  18.960   9.493   2.372 -0.2087 -0.2639  0.1457
98340W        W41331  17.132   7.085  25.422 -0.2545  0.0046 -0.1191
98341W        W41332   7.651   3.590   8.074  0.0096 -0.0731  0.3959
98342W        W41333   5.536  24.745   3.004  0.2617 -0.0124  0.0951
98343W        W41334  18.553  25.839   4.596 -0.0512  0.1339 -0.2201
98344W        W41335  10.459   9.074   1.353  0.3414  0.0611 -0.0315
98345W        W41336  22.968   9.485  28.607  0.3281  0.0611  0.1540
98346W        W41337   7.435  28.356   8.088  0.3823  0.1747 -0.0358
98347W        W41338  23.961  22.755   3.975 -0.3452 -0.0785 -0.0517
98348W        W41339  22.068   2.964   7.343  0.1680 -0.1590 -0.1714
98349W        W41340  22.436   9.208  18.436  0.0102 -0.3323  0.3948
98350W        W41341   4.628  32.183   9.180  0.3749  0.0249  0.2809
98351W        W41342   6.668  32.132   3.730  0.0235  0.1442  0.0329
98352W        W41343   8.328  31.392  19.065  0.2014  0.3284  0.0361
98353W        W41344   9.347   8.544   1.938  0.1888  0.2985 -0.4848
98354W        W41345  27.109   5.171   5.462 -0.2514  0.0171  0.0870
98355W        W41346  15.195   4.166   9.616  0.0385  0.2335  0.3160
98356W        W41347  13.687   4.482   5.958  0.1716 -0.0462 -0.0276
98357W        W41348  18.303   3.489   4.369 -0.0197  0.1148 -0.2188
98358W        W41349   3.634  16.382  21.836  0.0419  0.0584 -0.1442
98359W        W41350   9.912  24.442   5.158  0.2267 -0.0634 -0.2186
98360W        W41351   6.111  19.739  27.728 -0.0617  0.1089 -0.0063
98361W        W41352  21.483  12.049  25.252 -0.1943 -0.0097  0.1325
98362W        W41353  22.559   8.430   6.848 -0.1071  0.2441 -0.2522
98363W        W41354  30.146  27.782   0.225  0.1520  0.2540  0.1404
98364W        W41355  19.897  33.029   7.450 -0.1646 -0.0190  0.1568
98365W        W41356  29.080  13.323  27.424 -0.2465  0.0304  0.0709
98366W        W41357   3.971  34.063  23.681  0.0640 -0.3632 -0.2141
98367W        W41358   4.785  30.021   9.081 -0.1907 -0.0847 -0.1396
98368W        W41359  10.142  30.370  23.573  0.1283  0.2053 -0.0746
98369W        W41360  17.955   0.823   4.181 -0.0282 -0.0513  0.1572
98370W        W41361   1.363  14.643  10.112  0.1473 -0.0806 -0.0557
98371W        W41362   9.651  34.131   0.626 -0.3389  0.1253 -0.1845
98372W        W41363   6.022  32.205  10.044 -0.2669 -0.2061  0.2058
98373W        W41364  18.391  32.451  27.026  0.0956  0.0508  0.0333
98374W        W41365  24.616   2.600   2.736 -0.0188 -0.3989  0.1130
98375W        W41366  26.151  16.961  25.053 -0.3190  0.0945  0.0156
98376W        W41367  21.747  29.453  27.124 -0.1687 -0.0673 -0.1025
98377W        W41368  16.022  17.338  16.349 -0.1337  0.0297  0.0077
98378W        W41369  23.851  16.459   0.123 -0.0501  0.1121 -0.0999
98379W        W41370  27.814  32.270   6.867 -0.3620  0.3284  0.0539
98380W        W41371   4.885  17.103   9.868 -0.3832  0.0046  0.0787
98381W        W41372  24.165   7.470   9.380  0.0474 -0.0129  0.0441
98382W        W41373   1.116   5.151  20.797 -0.3404 -0.2266  0.2697
98383W        W41374  22.139  25.620   4.783  0.0163 -0.0837  0.0110
98384W        W41375  16.288   6.874   9.470 -0.2420  0.1132 -0.1237
98385W        W41376  14.115  10.573   9.946  0.0150  0.1352  0.1076
98386W        W41377   6.702  13.725  22.748  0.2545 -0.2061 -0.3665
98387W        W41378  22.056  29.922   7.887  0.0459 -0.0142 -0.2605
98388W        W41379  29.407  22.027   6.010 -0.1738 -0.0245 -0.0607
98389W        W41380  13.765   2.777   7.609 -0.0059 -0.2021 -0.2135
98390W        W41381  17.142  17.509  27.941  0.3213 -0.1255  0.1574
98391W        W41382  16.859  27.830   5.568  0.1275  0.3919  0.0319
98392W        W41383   5.223  20.226  15.767  0.1685  0.0750 -0.0086
98393W        W41384  16.166  29.776  15.573  0.0081 -0.2470  0.3706
98394W        W41385  29.720   1.210   3.312 -0.0830 -0.1137  0.0448
98395W        W41386  28.121   6.776  25.960 -0.3081 -0.0755  0.0400
98396W        W41387  25.316   1.571   8.435 -0.1210  0.1212 -0.1223
98397W        W41388  10.958  18.645   7.258 -0.1267 -0.0568 -0.0990
98398W        W41389   2.188   9.479   8.082 -0.0043 -0.1063  0.0481
98399W        W41390  17.861  34.260   8.200 -0.0443 -0.0591 -0.0957
98400W        W41391  11.409  20.041   6.168 -0.0822  0.2086 -0.1568
98401W        W41392  29.397  22.770   9.100 -0.0109 -0.3030  0.1168
98402W        W41393  11.438   3.394   8.792  0.1007 -0.1193  0.1661
98403W        W41394  12.465  16.899   7.752 -0.1585 -0.0520 -0.2098
98404W        W41395  12.469  11.423   9.070  0.0360 -0.0559  0.2078
98405W        W41396  22.747  29.989  21.558  0.1797 -0.1993 -0.0205
98406W        W41397   3.623   6.379   4.051 -0.0119  0.2394 -0.0667
98407W        W41398   9.188   0.347   2.754 -0.0005 -0.1530 -0.0609
98408W        W41399  16.322  33.988   8.823 -0.0827  0.2975 -0.3020
98409W        W41400  17.049  12.200   9.327  0.0312 -0.2380 -0.0504
98410W        W41401   4.670   1.176   6.734 -0.0980  0.1637  0.0107
98411W        W41402   4.114  10.040   5.138  0.6220 -0.0495  0.2323
98412W        W41403  21.536  22.809   8.262 -0.1248  0.2272  0.1646
98413W        W41404  18.028   3.397   4.967 -0.0098 -0.0486  0.1969
98414W        W41405  26.983   7.726  25.048 -0.0128 -0.3689 -0.0677
98415W        W41406   9.867  34.554   0.471 -0.1620 -0.0658  0.1199
98416W        W41407  32.586  25.010   4.176  0.2784  0.1717  0.1013
98417W        W41408  21.255  31.753   9.298  0.2313 -0.2581  0.0738
98418W        W41409  21.652  10.042   3.157 -0.1855  0.1469 -0.0011
98419W        W41410  21.867   2.746   3.405 -0.0488  0.2404  0.1033
98420W        W41411   5.876   0.496   2.815 -0.1656 -0.0013  0.1609
98421W        W41412  18.773   2.960   6.037  0.1024  0.0433  0.3240
98422W        W41413  22.290  29.561  14.934 -0.1156 -0.3455 -0.0415
98423W        W41414  15.381  32.355   7.107  0.1805  0.2680 -0.0022
98424W        W41415  26.912   3.398   8.545  0.0719  0.3444 -0.2025
98425W        W41416  11.968  15.250   0.445  0.1748 -0.1278 -0.3671
98426W        W41417  14.861  22.119   1.009  0.3231  0.1122  0.1275
98427W        W41418  14.617  26.800  26.194 -0.2109  0.1592 -0.0352
98428W        W41419  24.934  15.907  27.441  0.1945 -0.0644 -0.0873
98429W        W41420   4.659  31.134  23.423 -0.1087 -0.0152 -0.0728
98430W        W41421  26.585  26.139  25.085 -0.1934 -0.1386 -0.1614
98431W        W41422   2.612  33.616  19.554  0.3019  0.1866  0.0984
98432W        W41423   6.815  14.199  18.425 -0.3218 -0.0650  0.1833
98433W        W41424  31.739  27.816   2.985  0.0209  0.3287 -0.3485
98434W        W41425  10.402   2.479  20.185 -0.0174 -0.0223 -0.5242
98435W        W41426  19.704   9.911   3.615 -0.1005  0.0835  0.0559
98436W        W41427  16.642   6.843   6.782  0.0477  0.1172  0.1319
98437W        W41428  24.687  15.729  28.356 -0.0804 -0.0666 -0.0410
98438W        W41429   3.817  16.083   4.952 -0.3348 -0.2646  0.0949
98439W        W41430  16.359  14.748   0.478 -0.3873 -0.0118 -0.0015
98440W        W41431  14.216  32.925  21.257  0.1035  0.0593 -0.0517
98441W        W41432  24.597  30.123   9.272 -0.1808 -0.0105  0.1069
98442W        W41433  30.555   6.729   9.900 -0.0833  0.0189  0.3191
98443W        W41434   0.587   1.857   3.974 -0.3419  0.2183  0.2075
98444W        W41435   8.553  23.902  24.494  0.1261 -0.3364  0.2112
98445W        W41436  14.596   2.080  28.131  0.0578 -0.2055 -0.0723
98446W        W41437  11.143  34.126  10.154 -0.0329  0.1811  0.1468
98447W        W41438   5.882   6.984   6.667 -0.1186  0.1497 -0.0149
98448W        W41439   5.029  10.002   6.976  0.4727  0.2464 -0.3441
98449W        W41440  33.674  25.969  18.164  0.0477 -0.2392 -0.2211
98450W        W41441  22.442  12.331   8.226  0.0026  0.1764  0.3183
98451W        W41442   4.148   4.886   9.993  0.1627 -0.1989  0.3960
98452W        W41443  23.352  30.566  27.639  0.1167  0.1144  0.0014
98453W        W41444  24.474  12.315   6.739  0.0402  0.3838  0.0472
98454W        W41445  31.465  28.309   6.274  0.0369 -0.2499  0.0989
98455W        W41446  27.099  11.264   2.512  0.0203  0.3043  0.0883
98456W        W41447   0.777  27.761  25.856 -0.3283 -0.1665 -0.3509
98457W        W41448  32.264  23.938   9.063 -0.1451  0.1448  0.1441
98458W        W41449  15.022  34.501  28.192  0.1771 -0.3613  0.2155
98459W        W41450   9.504   0.756   7.783 -0.0611  0.1486 -0.2463
98460W        W41451  11.865  23.460  25.745 -0.1163 -0.0674 -0.1426
98461W        W41452  15.256  17.031   3.136  0.3130 -0.0466  0.0555
98462W        W41453  17.486   0.697   6.775 -0.0124 -0.2185  0.1488
98463W        W41454  18.803  25.156  23.083 -0.0631 -0.0757 -0.1658
98464W        W41455  17.397  24.988  21.857  0.0404  0.0348  0.1311
98465W        W41456   6.605  14.616   3.384  0.1776  0.1131 -0.1298
98466W        W41457  10.926   4.642   6.844 -0.1151 -0.0393  0.1847
98467W        W41458  15.957   0.208   3.101  0.0089  0.0536 -0.0643
98468W        W41459  17.580  11.207   1.758 -0.2170  0.1499  0.1942
98469W        W41460  19.418  33.219  10.131  0.0093  0.0222  0.0492
98470W        W41461  19.055   3.073   9.985  0.0117  0.1982  0.3633
98471W        W41462   2.642   9.169   7.153 -0.2365  0.3221 -0.5461
98472W        W41463  26.482  14.796  20.818 -0.0166  0.1008  0.1852
98473W        W41464   7.443   1.490   9.448  0.1946  0.1379 -0.3168
98474W        W41465   4.689   5.090  26.000  0.1250  0.0385 -0.0926
98475W        W41466  20.469   2.144  25.948  0.0715 -0.1759  0.2948
98476W        W41467  28.922  34.101  22.206  0.0442  0.2306  0.0419
98477W        W41468  23.237  28.112   7.941 -0.3426  0.1990 -0.2835
98478W        W41469  18.600  14.743   1.651 -0.2197  0.0252  0.2640
98479W        W41470  20.136   1.846  24.582  0.3499  0.0765 -0.0551
98480W        W41471  18.684  13.213   3.254 -0.1249 -0.0449 -0.0041
98481W        W41472  30.526  20.164   8.990 -0.0125  0.0979  0.1099
98482W        W41473  14.852  14.706   7.370  0.1341  0.2080 -0.0569
98483W        W41474  26.673   2.671   0.351 -0.0610 -0.1731  0.2142
98484W        W41475  14.223   3.088   8.824 -0.1376  0.2159  0.0182
98485W        W41476  19.514   4.711   4.120  0.3094  0.1168  0.0157
98486W        W41477  18.460  28.547  17.413 -0.0813  0.1103  0.2742
98487W        W41478   7.020   7.582  10.314  0.2183  0.0354  0.2116
98488W        W41479  17.173  12.090   0.820 -0.1001 -0.2206  0.2850
98489W        W41480  29.027  10.289   4.889  0.3367  0.2017 -0.4186
98490W        W41481  15.939  30.801   1.822 -0.0832 -0.1237  0.1701
98491W        W41482  17.857   0.310  22.456  0.1418 -0.0008 -0.4089
98492W        W41483  20.122  30.452  20.382  0.1089 -0.0321 -0.0234
98493W        W41484  26.112  28.871  19.974 -0.1833  0.0565 -0.1510
98494W        W41485  18.909  20.070  28.518 -0.0374 -0.2326 -0.0788
98495W        W41486  19.396  15.187  24.185 -0.1446  0.1736  0.1788
98496W        W41487  28.189  28.069   0.137 -0.1100  0.0729  0.0315
98497W        W41488  30.273  34.537  19.412  0.1575 -0.1635  0.0596
98498W        W41489   0.039   2.033   3.645  0.0595  0.4579 -0.1292
98499W        W41490  10.054  29.157  23.883 -0.2432  0.1124  0.1239
98500W        W41491   1.714  31.582  20.102 -0.2470  0.1652 -0.3026
98501W        W41492  17.615   1.439   7.685  0.2991 -0.1823 -0.1733
98502W        W41493  13.955   3.601   5.802  0.3653  0.3503 -0.0470
98503W        W41494   5.871   0.040  23.345 -0.0107 -0.2173  0.1129
98504W        W41495   8.577  33.256   2.272 -0.1029 -0.3057 -0.1036
98505W        W41496   8.144  28.245   3.445  0.4518  0.2218  0.1056
98506W        W41497  15.765  27.112   7.109  0.0212  0.2478 -0.1007
98507W        W41498  26.456   8.656   4.718 -0.1728 -0.1774 -0.0398
98508W        W41499  29.740  10.907   3.619  0.1443  0.2302  0.1288
98509W        W41500   8.433  33.721   6.508  0.0246 -0.3959 -0.4043
98510W        W41501  11.333  33.967   2.917 -0.0704 -0.2091 -0.2975
98511W        W41502  20.536   8.617   7.530 -0.1951  0.2259  0.0598
98512W        W41503  33.280  25.780  25.467  0.1890 -0.0946  0.0520
98513W        W41504  21.110  10.058   9.328 -0.1666 -0.0831 -0.1207
98514W        W41505  33.653  24.971   0.717 -0.0561  0.0414  0.1307
98515W        W41506  19.136   1.160   9.459  0.1592  0.0546 -0.1972
98516W        W41507   8.058   0.223   8.977  0.1129 -0.0079  0.0847
98517W        W41508   0.056  33.904   6.997  0.0357 -0.0203 -0.0740
98518W        W41509   4.648  31.629   5.181  0.2094  0.0167 -0.2827
98519W        W41510   5.656   2.735   8.391  0.1134  0.3404 -0.0292
98520W        W41511  18.641   5.541   1.300  0.1823  0.2329  0.2723
98521W        W41512  15.611  32.640   2.366 -0.0960 -0.0248 -0.0561
98522W        W41513  15.402   8.052   1.967 -0.1175  0.0046  0.4523
98523W        W41514  29.686   7.281  28.773 -0.1656  0.3760  0.1595
98524W        W41515  27.165  30.140   3.529  0.0357  0.0949 -0.0807
98525W        W41516  13.932  27.385   4.424  0.2206  0.1261  0.1494
98526W        W41517  24.983  26.139   7.719 -0.0909 -0.3140 -0.0903
98527W        W41518  18.459   1.689  26.100  0.1938 -0.2575 -0.1272
98528W        W41519  25.465  32.767  26.777  0.2347  0.0061 -0.1656
98529W        W41520   5.041  20.435  23.130  0.0224 -0.0233  0.2173
98530W        W41521  14.972  17.039  15.639 -0.0133  0.1130  0.2484
98531W        W41522  11.432  32.842   7.614  0.4451 -0.1747  0.1513
98532W        W41523  23.922  10.061   4.233  0.1153  0.0681  0.3712
98533W        W41524  15.594   3.886   4.213  0.0004  0.2643 -0.0961
98534W        W41525   2.216  22.313  26.167  0.1925 -0.0168 -0.1489
98535W        W41526  17.602  29.534   1.902  0.0295 -0.0107  0.0875
98536W        W41527   8.676  24.972  21.963  0.0265 -0.0214  0.0183
98537W        W41528  11.277  22.505   5.447  0.1371  0.2465  0.0756
98538W        W41529   8.404  30.666   4.328  0.0021 -0.1804  0.1746
98539W        W41530  25.906  20.581  26.989 -0.2501  0.0144  0.0484
98540W        W41531  15.435  32.589   3.724  0.0857 -0.3121 -0.2156
98541W        W41532  18.508  14.628  28.751 -0.2406 -0.3410  0.3955
98542W        W41533  21.436  33.750   7.354  0.0791 -0.2142  0.2356
98543W        W41534  10.151   4.274   5.582  0.2157 -0.1600  0.1508
98544W        W41535   7.798  29.896   6.687 -0.1559  0.0960  0.3216
98545W        W41536   4.865   6.339   7.179  0.1427 -0.1611  0.2013
98546W        W41537  10.395  15.746  28.705  0.1996 -0.0657  0.0234
98547W        W41538  29.033  30.372  23.262 -0.0399  0.2718 -0.0427
98548W        W41539   9.818  33.895  24.583  0.2871 -0.4276 -0.1934
98549W        W41540  12.385  22.511  27.531  0.1870  0.1943 -0.2994
98550W        W41541  15.515  29.068  27.816  0.2000  0.1067 -0.0300
98551W        W41542  15.506  23.697  16.337  0.0794  0.1498  0.0930
98552W        W41543  26.485   2.261   9.020  0.0617 -0.1275 -0.0016
98553W        W41544  10.850   1.192   9.048  0.2726  0.1547 -0.0373
98554W        W41545  24.213  17.381   2.752 -0.2348 -0.0702  0.1772
98555W        W41546  20.747  11.242  24.491 -0.0126 -0.1194 -0.0272
98556W        W41547  30.592   6.898  10.361  0.0866  0.0761 -0.1359
98557W        W41548   1.133   7.127   9.625  0.1654  0.1410  0.1725
98558W        W41549  28.233  22.005  19.376 -0.2592  0.0121  0.0010
98559W        W41550  15.063  12.805   3.028  0.0165 -0.1863  0.1956
98560W        W41551  28.624  11.166  18.854  0.0119 -0.4572 -0.1885
98561W        W41552  28.892   7.788   5.434 -0.2908  0.2399  0.1227
98562W        W41553  18.515  29.442  28.233 -0.0237 -0.1794  0.0246
98563W        W41554  30.617  10.328   7.428  0.0525  0.1400  0.1751
98564W        W41555   9.860   5.396  10.944  0.0100 -0.1094 -0.4478
98565W        W41556  34.128  27.512   4.841 -0.2902  0.1381 -0.1680
98566W        W41557  12.529   6.452  29.040  0.3033  0.0187 -0.0958
98567W        W41558  20.000   3.043   7.544 -0.0307 -0.3868  0.1693
98568W        W41559   5.942   0.025   9.547 -0.2604 -0.0517  0.0914
98569W        W41560  31.977   6.723  17.291 -0.0574 -0.0295  0.1108
98570W        W41561  14.723  23.849   8.596 -0.1253 -0.1245 -0.0565
98571W        W41562  21.584  21.601  28.938 -0.1787 -0.0422 -0.1795
98572W        W41563  20.615  18.098   0.237 -0.0627 -0.0380  0.1097
98573W        W41564  30.124  22.891   5.180  0.0934  0.0068  0.1216
98574W        W41565  20.369  14.480  22.130  0.1031 -0.1319  0.4851
98575W        W41566   7.549  17.952   9.541 -0.1232  0.0768 -0.1479
98576W        W41567   2.758   3.084   8.815  0.2259 -0.3085  0.2614
98577W        W41568   0.335  18.914   7.203 -0.2795  0.1143 -0.2493
98578W        W41569  15.831   6.048   0.157 -0.0111 -0.1467  0.3428
98579W        W41570  34.744  21.278   6.163  0.1198  0.3418  0.0115
98580W        W41571   4.400  25.385   8.402  0.1161  0.2234  0.0792
98581W        W41572  25.556  23.969  26.930 -0.2604 -0.1540  0.0457
98582W        W41573  17.583  32.094   1.403  0.2108  0.0614  0.1601
98583W        W41574  19.696   1.205   8.051 -0.1585 -0.0908 -0.2851
98584W        W41575  12.969  16.199  25.656 -0.1322 -0.0242 -0.1256
98585W        W41576  31.982   0.536  17.227 -0.1404  0.0103 -0.1111
98586W        W41577  30.500  32.751   4.193  0.1508 -0.0387 -0.2235
98587W        W41578  29.502   6.176  26.370  0.0600  0.1087  0.2385
98588W        W41579  18.448  15.395  23.706  0.0182 -0.1908  0.0823
98589W        W41580  22.294  21.012  21.316 -0.0162 -0.0268  0.1023
98590W        W41581  11.829  26.597   4.082 -0.0613  0.4179  0.2305
98591W        W41582  33.839  34.552  16.055  0.1287  0.0675  0.1883
98592W        W41583  27.522  14.604  10.257 -0.3089  0.1085 -0.0044
98593W        W41584  21.622  24.242   7.847 -0.1590 -0.0865 -0.0912
98594W        W41585   4.513   5.976  28.367  0.1752 -0.2035 -0.2078
98595W        W41586  12.662   1.463  27.604  0.0253  0.0024  0.0531
98596W        W41587  20.719  13.191   7.148  0.0641 -0.2205 -0.1249
98597W        W41588  20.595  30.522   3.728 -0.1243  0.2120 -0.1404
98598W        W41589  33.905  10.267  15.856  0.0516  0.4664 -0.6506
98599W        W41590  19.742  23.138   8.099 -0.1225  0.0784  0.0280
98600W        W41591  13.440  22.849  10.044 -0.0753 -0.0108  0.0921
98601W        W41592   9.802  22.967  21.636  0.3592 -0.0249 -0.1896
98602W        W41593   5.980   0.998   7.296 -0.1399 -0.0332  0.1529
98603W        W41594  10.727  30.001  28.824  0.1334 -0.2988 -0.0628
98604W        W41595  18.432   4.318   7.425  0.0976  0.0083 -0.0440
98605W        W41596   2.342  21.597   1.228 -0.3539  0.1283 -0.2341
98606W        W41597  20.114  13.486  24.036 -0.2312 -0.0291  0.0231
98607W        W41598  12.535   9.046   7.340  0.0274  0.0635  0.1241
98608W        W41599  10.732  26.544  20.342  0.0517  0.1640 -0.1385
98609W        W41600  13.075  31.670   9.112  0.2084 -0.1961 -0.3454
98610W        W41601  18.803  21.127   4.671 -0.0348  0.0093 -0.1111
98611W        W41602  19.612  20.749   3.122  0.1650 -0.0586 -0.4743
98612W        W41603  12.707   2.874  28.318  0.1479  0.1460  0.1772
98613W        W41604  16.904  34.119   9.888 -0.2578  0.0908 -0.2437
98614W        W41605  30.161  13.050   2.597  0.3300 -0.3154 -0.0600
98615W        W41606  33.188  15.773   7.056  0.0111 -0.0335 -0.1508
98616W        W41607  30.413  31.564  24.240  0.1948 -0.1115  0.2288
98617W        W41608   7.963  30.632   8.852 -0.1919  0.1546  0.0405
98618W        W41609  27.546  23.659   6.168 -0.0621  0.2664 -0.0103
98619W        W41610   3.861  18.923   5.620 -0.3179  0.1681  0.1626
98620W        W41611  13.455  27.893   6.022 -0.0823  0.0734  0.2622
98621W        W41612  17.184   8.770   3.636  0.1962  0.3001  0.1317
98622W        W41613  26.128  24.452   5.819 -0.2490  0.2043 -0.0964
98623W        W41614  22.869  28.739   7.401 -0.0616  0.4976 -0.1924
98624W        W41615  17.529   5.029  26.445  0.0987 -0.0761  0.0594
98625W        W41616  12.467   9.769   2.584  0.0723  0.4663  0.2946
98626W        W41617  21.274   3.968  28.168 -0.3632 -0.0304  0.0477
98627W        W41618  21.890  20.896  14.147  0.0368  0.0431 -0.1647
98628W        W41619  23.734  23.171   2.690  0.1389  0.0300  0.2840
98629W        W41620   4.866  19.613  18.072 -0.0676  0.4316 -0.0259
98630W        W41621   9.855  22.957   3.013  0.0515  0.0355 -0.2435
98631W        W41622  12.580   5.950  28.671  0.0771  0.0333  0.0820
98632W        W41623  10.026  27.056  24.547  0.1841 -0.2299  0.3469
98633W        W41624   9.549  30.834   4.756  0.1015  0.1829  0.2280
98634W        W41625  10.798  26.339  22.570 -0.1586  0.0135 -0.1618
98635W        W41626  22.366  28.234   2.741 -0.1074 -0.2094 -0.0076
98636W        W41627  33.299   3.780   4.321  0.2199  0.0331  0.0554
98637W        W41628  22.494  32.798   6.909 -0.1328  0.1386  0.1179
98638W        W41629  17.205  22.485   3.799 -0.3093  0.0770 -0.1228
98639W        W41630  16.575   3.237   5.736 -0.0938 -0.1788  0.1233
98640W        W41631  33.563  29.008  14.943 -0.0562 -0.0911 -0.0036
98641W        W41632  13.860  15.549  26.648 -0.2947  0.1305 -0.0597
98642W        W41633   8.331   0.765   1.122  0.0882 -0.1152 -0.0989
98643W        W41634   2.244   4.305   8.438  0.0556  0.0521 -0.2877
98644W        W41635  17.386   9.290  27.292 -0.1143  0.0005 -0.0764
98645W        W41636  34.270   5.508   6.218  0.1824  0.1905  0.1106
98646W        W41637  20.912  30.339   1.934  0.1952 -0.0945  0.0301
98647W        W41638   3.581  10.422   8.920  0.1811  0.0400  0.1327
98648W        W41639  31.057  31.342  27.444  0.1732  0.1699  0.2894
98649W        W41640  22.946   8.909   2.222  0.1265 -0.1245 -0.2334
98650W        W41641  34.458  31.029   8.221 -0.1074  0.0629 -0.0906
98651W        W41642   9.728  17.076   5.127  0.0181  0.0876  0.1642
98652W        W41643  16.867   6.374   6.688  0.0624 -0.0363 -0.1346
98653W        W41644  25.773   7.684   8.937 -0.0228  0.0839  0.0023
98654W        W41645  16.227  28.155   5.582  0.2292 -0.2224 -0.1123
98655W        W41646  27.310  24.557  14.035 -0.3882  0.0526 -0.0042
98656W        W41647   6.503  29.716   9.290  0.3348 -0.2228  0.1828
98657W        W41648  29.145  28.179  22.542 -0.2523  0.1121 -0.1707
98658W        W41649  26.853   5.754  21.860 -0.2380  0.2539  0.1898
98659W        W41650  15.398  22.931   4.293  0.1591  0.1777  0.0929
98660W        W41651   4.013   0.426   0.996 -0.1510 -0.0795  0.2078
98661W        W41652  27.097  15.513   1.855 -0.0310  0.0884  0.0104
98662W        W41653  27.712   6.799  27.632 -0.3880  0.2968 -0.2355
98663W        W41654   6.711  10.687   8.559  0.2667 -0.0468  0.1181
98664W        W41655  23.764  14.009   1.912 -0.0320 -0.1532  0.1444
98665W        W41656  24.449  23.069   5.316  0.0843  0.1036  0.1582
98666W        W41657  17.707   6.436  21.317  0.0414 -0.0971 -0.0607
98667W        W41658  20.190  25.651   7.049  0.1417  0.1306  0.0958
98668W        W41659  28.179  22.556  17.268 -0.0123 -0.0028 -0.1399
98669W        W41660  34.197  31.959   8.072  0.3381  0.2161 -0.3707
98670W        W41661  16.746   7.084   1.073 -0.1167 -0.1541  0.0688
98671W        W41662  18.589  17.326   5.655  0.0300 -0.0503  0.1521
98672W        W41663   7.174   1.198   8.143  0.1895  0.2294  0.0559
98673W        W41664  13.912  20.699   2.724  0.0521 -0.4673  0.2665
98674W        W41665   4.878  27.262   6.669 -0.5007 -0.1501 -0.0616
98675W        W41666  31.199  20.667  28.356 -0.5509  0.2303  0.1821
98676W        W41667  19.444  28.835   9.687 -0.0282 -0.0911 -0.0536
98677W        W41668  12.843  33.143   8.874  0.1846 -0.1824 -0.3825
98678W        W41669  13.034   5.907   8.408  0.3096  0.1219  0.0745
98679W        W41670  22.875   2.919   2.437  0.1188 -0.0180  0.0673
98680W        W41671  18.025  10.738   3.426 -0.1696  0.1871  0.2585
98681W        W41672  17.468   4.816  28.089  0.0704 -0.0616  0.1102
98682W        W41673  21.356  24.871  26.060 -0.1265  0.3625 -0.1754
98683W        W41674   8.466   5.887  11.285  0.1589  0.2302  0.0844
98684W        W41675  22.733   7.654   6.948 -0.1259 -0.0573 -0.0816
98685W        W41676  23.784  30.207   7.169  0.0565 -0.0193 -0.0977
98686W        W41677  21.997  14.435   3.804 -0.0080  0.1323 -0.0123
98687W        W41678  18.560  16.728   0.958  0.1370 -0.0413 -0.1464
98688W        W41679  28.043  13.140  18.256 -0.1855 -0.0240 -0.0927
98689W        W41680  30.946  14.606   8.360  0.1134  0.2264 -0.0763
98690W        W41681  28.458   4.041   5.860 -0.1359 -0.0594 -0.1221
98691W        W41682  11.808  31.418  26.809  0.2163  0.1465 -0.1972
98692W        W41683   9.245   5.612   9.088  0.2324  0.0964 -0.1767
98693W        W41684  18.903  32.233  27.724 -0.0308 -0.2270  0.2037
98694W        W41685  21.934  10.183   1.124 -0.4116  0.2271  0.0300
98695W        W41686   6.887   0.776   8.046  0.2794 -0.0254 -0.2115
98696W        W41687  11.062   7.494   9.923  0.2680 -0.0297  0.1291
98697W        W41688  33.748   3.673   7.298 -0.3486 -0.1921 -0.3275
98698W        W41689  22.075  32.565   5.378 -0.1496  0.2135  0.2362
98699W        W41690  14.624  30.634   2.946 -0.0820 -0.1195 -0.1030
98700W        W41691  34.470  33.239  28.975  0.0366  0.0205 -0.1105
98701W        W41692  10.521  14.905   7.695  0.0117 -0.1545 -0.2789
98702W        W41693  14.675  21.629   8.974 -0.2998 -0.1292 -0.2007
98703W        W41694   7.009   1.850   6.708  0.0783 -0.0521 -0.0979
98704W        W41695  21.830  31.211   7.776 -0.2112 -0.1987 -0.1585
98705W        W41696  17.767  17.814   1.402  0.2308  0.1679 -0.1238
98706W        W41697  15.051  18.896   8.206 -0.0808 -0.0812  0.1326
98707W        W41698  12.822   4.664   2.216 -0.3791  0.1282  0.2474
98708W        W41699  13.370   0.041   4.460 -0.2268 -0.2268 -0.0190
98709W        W41700   9.868  13.007   1.595 -0.1485  0.1650 -0.5287
98710W        W41701  13.958  14.536  22.043 -0.1632  0.1739  0.1529
98711W        W41702  13.794  23.732  18.398  0.0056 -0.0190 -0.1037
98712W        W41703  11.107  15.615   1.231 -0.0786 -0.1177  0.1536
98713W        W41704   4.777  21.870   2.519  0.1434  0.0741 -0.3608
98714W        W41705  21.060   8.534  22.980  0.0113  0.3491  0.1222
98715W        W41706  24.659  29.799   7.732 -0.0236 -0.0647 -0.0619
98716W        W41707  23.195  26.831   2.936 -0.3505  0.2447 -0.0485
98717W        W41708  15.882   7.500   5.133  0.1035  0.0389  0.0226
98718W        W41709  10.227  27.643  25.522 -0.1218  0.3265 -0.0630
98719W        W41710  23.850  34.755   4.418 -0.0350  0.2250  0.0664
98720W        W41711  26.177  11.445   8.169 -0.3418 -0.0820 -0.4999
98721W        W41712  14.094   6.114   7.500 -0.0126 -0.1632 -0.1827
98722W        W41713   3.077   9.253   4.848  0.3750 -0.0452 -0.3771
98723W        W41714  23.937  25.024   4.020  0.0588 -0.1771  0.1799
98724W        W41715  20.416   7.639   9.159 -0.0356  0.2434 -0.1117
98725W        W41716  18.156  34.207  10.150  0.1504  0.0529 -0.2985
98726W        W41717  31.009  17.568   7.387 -0.2034  0.1471  0.2101
98727W        W41718  13.596  14.543   8.054  0.0292  0.3663 -0.1181
98728W        W41719  15.706   0.345  22.181 -0.0998  0.0843  0.0906
98729W        W41720  11.789  21.219   9.389  0.1323 -0.0078 -0.1389
98730W        W41721   9.917  27.421   6.676  0.1654  0.1175 -0.1060
98731W        W41722  31.486  34.405  25.210  0.1998  0.1995  0.2978
98732W        W41723   6.054   1.445   6.287 -0.3051 -0.2380  0.2300
98733W        W41724  18.782  25.664  19.540  0.0362  0.2461 -0.0561
98734W        W41725  20.762   2.871   2.398 -0.6756 -0.3038  0.0256
98735W        W41726  22.805   9.017   4.102  0.5268 -0.0620  0.0242
98736W        W41727   8.429   2.625   5.297 -0.3966  0.2318  0.0902
98737W        W41728  26.703  28.713   8.689  0.0769 -0.0565 -0.0228
98738W        W41729  17.778  23.916  25.552  0.6156  0.0965  0.0678
98739W        W41730  21.257  19.068  29.041  0.2626  0.2735  0.1103
98740W        W41731  32.395  20.796  27.797  0.2892 -0.0783  0.1118
98741W        W41732  11.671  25.066   7.508 -0.1899 -0.0586  0.1980
98742W        W41733  15.692  34.455   6.550 -0.3513 -0.0062 -0.2634
98743W        W41734  27.626   6.981   9.029  0.1239 -0.0364  0.2579
98744W        W41735  11.449  17.924   7.508 -0.0923  0.0681  0.1491
98745W        W41736  12.826  28.656  28.944 -0.0833 -0.0404  0.0080
98746W        W41737  24.870   9.029   8.299 -0.0267 -0.0463  0.0847
98747W        W41738  17.863   2.932   6.928  0.1714 -0.1384  0.2103
98748W        W41739  14.660   7.061   8.465 -0.2266  0.1451 -0.1025
98749W        W41740  10.057  29.137  16.003  0.1381 -0.0224 -0.1174
98750W        W41741  28.667  23.439   4.901  0.2025 -0.0864  0.2500
98751W        W41742  12.036  27.923  11.194 -0.0198  0.0452  0.1577
98752W        W41743  25.991  33.020   5.800 -0.1353 -0.0355  0.2312
98753W        W41744  16.553  26.357  26.438 -0.0186 -0.0858  0.1167
98754W        W41745   3.528   1.799   3.792  0.2796  0.1339  0.3483
98755W        W41746  26.660  33.882   4.038 -0.4621 -0.0527 -0.2194
98756W        W41747  17.575   2.827   7.396 -0.3676  0.2620  0.0144
98757W        W41748  24.641  11.843   4.665 -0.1274 -0.2743  0.1184
98758W        W41749  19.467  32.958  25.197  0.1864  0.2012  0.1320
98759W        W41750  18.307   0.446   7.751  0.1988  0.1156  0.0330
98760W        W41751  19.452  32.800   8.574 -0.1401  0.6506  0.0143
98761W        W41752  25.873  31.724   3.421  0.2553 -0.3687  0.0061
98762W        W41753   3.648   7.179  19.751  0.0372 -0.0475 -0.0405
98763W        W41754   1.340   5.891   8.973  0.2656 -0.1687 -0.0019
98764W        W41755   2.162  20.774   1.270  0.2467 -0.0354  0.0646
98765W        W41756   6.294  29.329   6.806  0.1707 -0.0773  0.1650
98766W        W41757  23.109  29.374   7.048  0.4723 -0.2118  0.0280
98767W        W41758  22.495  32.642  18.451 -0.1186 -0.0422  0.1809
98768W        W41759  15.308   7.074   7.152 -0.1998  0.0822 -0.0127
98769W        W41760  12.676   2.607   1.962  0.0473  0.3248 -0.0860
98770W        W41761  15.543   9.394  28.957 -0.0005 -0.2910  0.2113
98771W        W41762   5.088  27.491   9.832 -0.0205  0.0163  0.4615
98772W        W41763  20.869  20.683  16.993  0.0484 -0.2824 -0.2202
98773W        W41764  18.273  33.855   3.456 -0.0746  0.0382  0.1241
98774W        W41765  10.436  10.134   6.338  0.2380 -0.0763  0.0428
98775W        W41766   6.783   0.251   6.071 -0.2171  0.2934  0.2606
98776W        W41767  27.622  28.806   6.981 -0.1541  0.0038 -0.0996
98777W        W41768  11.903   3.139   0.256  0.1263 -0.1785  0.0909
98778W        W41769  26.135  21.868   8.739 -0.0218  0.2177  0.0710
98779W        W41770   9.325  14.293   4.330  0.2171 -0.2859 -0.1346
98780W        W41771   4.042   1.248   8.235  0.1699 -0.0545  0.0929
98781W        W41772  30.223  32.602  26.453  0.0904  0.2130  0.1236
98782W        W41773  13.095  33.339   9.225 -0.1877  0.0110  0.1331
98783W        W41774  25.941   5.910   3.112 -0.3099  0.0853  0.5032
98784W        W41775   6.290   0.170   8.739 -0.1102 -0.1888  0.0303
98785W        W41776  28.203   6.370   2.924  0.1095 -0.3638 -0.2732
98786W        W41777  15.853   9.971   3.814  0.2279 -0.0004  0.0760
98787W        W41778  21.450  17.287   0.405 -0.3327  0.1682  0.1830
98788W        W41779   5.714  12.800  23.499 -0.0515 -0.1382 -0.2587
98789W        W41780  27.412   7.858   7.964 -0.0035  0.1547 -0.2324
98790W        W41781  27.434  30.025   3.986 -0.0083 -0.1228  0.1756
98791W        W41782  24.282  20.697   4.378  0.0741 -0.1670 -0.3095
98792W        W41783  17.715   3.567   1.522  0.2145 -0.2183  0.0571
98793W        W41784   3.936  34.613   8.120  0.1285 -0.1265  0.0831
98794W        W41785  17.229   1.495   7.318 -0.1953  0.1934 -0.0505
98795W        W41786   7.730  33.407   1.401 -0.0098  0.2122 -0.3803
98796W        W41787  24.914  31.027   0.363 -0.6584 -0.0095 -0.1068
98797W        W41788  18.765  18.271   3.797  0.2306  0.3540 -0.2379
98798W        W41789  10.836  33.958   5.108  0.2252 -0.2779 -0.1889
98799W        W41790  10.470   4.262   1.017 -0.1599 -0.1087  0.1433
98800W        W41791   9.145   1.742   7.709 -0.1999 -0.0997  0.1918
98801W        W41792  32.284  18.113   0.174 -0.5174  0.0722  0.0501
98802W        W41793   7.505  26.867   2.898 -0.0827  0.0122  0.2983
98803W        W41794  21.237  28.164   2.438 -0.2360 -0.2419  0.4176
98804W        W41795  25.263  27.915  28.339  0.2266 -0.0696 -0.1816
98805W        W41796  12.494  16.530   6.526  0.1633 -0.0669 -0.2432
98806W        W41797  18.805  30.524   6.907  0.2552  0.2365 -0.2042
98807W        W41798  14.925   7.419   9.963  0.1849 -0.4066 -0.1221
98808W        W41799  19.194  30.037   1.906  0.3210  0.2021 -0.0570
98809W        W41800  13.025   1.284   1.091  0.2046  0.1651  0.0676
98810W        W41801  23.612  20.214  25.724 -0.0297  0.1254 -0.1622
98811W        W41802   8.243   7.334  10.124  0.1047 -0.0368  0.1579
98812W        W41803   6.333   7.055  28.478 -0.0621  0.0577  0.1341
98813W        W41804  17.428  32.370   4.123  0.0036  0.2596  0.2485
98814W        W41805   2.946  33.157  26.679  0.0668  0.0203 -0.5348
98815W        W41806  31.442  31.993   9.275  0.1033 -0.2057 -0.2112
98816W        W41807  15.992  22.477  25.730 -0.4523  0.1088 -0.1966
98817W        W41808  14.829  29.092   5.607  0.2480  0.0553 -0.1312
98818W        W41809   6.798   3.331  19.967  0.1923  0.1847 -0.1258
98819W        W41810  23.548   7.818   0.450  0.0462 -0.1930 -0.2876
98820W        W41811  24.797  30.404   6.081  0.1934 -0.2824  0.1517
98821W        W41812  24.355  32.891   9.162  0.0213  0.1051  0.2856
98822W        W41813  17.535   0.292   8.020 -0.3299 -0.2137  0.0095
98823W        W41814   1.109  15.961   0.482  0.1293  0.0475  0.0081
98824W        W41815  22.907  22.998   3.108 -0.0223  0.1407 -0.2511
98825W        W41816  24.376  24.660   6.444 -0.0569 -0.1892  0.3833
98826W        W41817  21.760  33.152  28.465 -0.0185  0.1430  0.0896
98827W        W41818  15.425  16.337  26.532  0.1537  0.2853 -0.3750
98828W        W41819  18.780  24.246  28.642 -0.2687 -0.0370  0.1222
98829W        W41820  17.492   4.625  15.732  0.0497 -0.2953 -0.0393
98830W        W41821   9.724  21.912   4.394  0.0272  0.0006  0.0433
98831W        W41822  29.962   0.378   8.405  0.2012  0.1609  0.1135
98832W        W41823  17.531  12.948   9.443  0.1330  0.2444 -0.0181
98833W        W41824  27.734  15.765   0.004 -0.0766  0.0058 -0.2333
98834W        W41825  29.793   5.527  28.847 -0.2684 -0.1412  0.0118
98835W        W41826  14.655   5.806   4.183  0.0513  0.1355 -0.3655
98836W        W41827   5.319   4.336   6.858 -0.1646  0.0161 -0.2251
98837W        W41828  14.722   1.438   2.281  0.0491  0.0500 -0.1126
98838W        W41829  10.837  13.016  26.104  0.0327  0.3650 -0.2474
98839W        W41830  31.064  30.943  24.277 -0.1262  0.0295 -0.2304
98840W        W41831  16.062  11.486   8.208  0.0148  0.0939 -0.1308
98841W        W41832  30.456   6.937   2.263  0.2286  0.1558 -0.0534
98842W        W41833  29.060   2.741   2.443 -0.0356  0.0637 -0.0171
98843W        W41834   5.328  11.206   3.917  0.1410  0.1926 -0.1124
98844W        W41835  24.440   2.801   6.512  0.0043  0.4317 -0.1614
98845W        W41836  32.096   3.787  20.080 -0.2290 -0.1454  0.1035
98846W        W41837  17.891  21.020   7.662 -0.1173  0.0032  0.1789
98847W        W41838  30.474  15.805   4.859  0.3943 -0.4389  0.0079
98848W        W41839  26.190   7.607   8.476  0.0779  0.0009 -0.2012
98849W        W41840  18.689   1.752   6.904 -0.1149  0.2134  0.1966
98850W        W41841  29.821  32.896   4.051 -0.1878 -0.0283  0.0429
98851W        W41842  13.742   1.214   2.129  0.2285  0.0055  0.0400
98852W        W41843  11.310   1.289   0.086  0.0966 -0.2401  0.5060
98853W        W41844  24.913  22.562   2.434 -0.3599 -0.0052  0.0516
98854W        W41845  14.427  12.043   4.570 -0.0282 -0.0688 -0.2094
98855W        W41846   9.393   0.639   4.989  0.0208  0.0540 -0.2111
98856W        W41847   8.430   3.187  24.907  0.2569 -0.0074  0.4942
98857W        W41848   5.796  18.156  21.463 -0.1908  0.0761 -0.1256
98858W        W41849   9.481  32.405  25.834  0.0070  0.1924  0.0411
98859W        W41850  22.516  14.977   0.499  0.3056 -0.2666 -0.0465
98860W        W41851  13.517  33.796   2.919 -0.2613  0.1539 -0.0172
98861W        W41852   3.894   1.516   4.298  0.2575 -0.6240  0.0596
98862W        W41853  27.453   9.012  21.936  0.2820 -0.0043 -0.3340
98863W        W41854  27.124   4.014   5.626 -0.3308  0.0320 -0.3063
98864W        W41855  21.889  29.906   4.981 -0.0335  0.1169 -0.1445
98865W        W41856  25.681   6.772   8.606 -0.2197  0.0011 -0.1996
98866W        W41857  17.622   2.564   9.807 -0.3014 -0.0771 -0.0160
98867W        W41858   1.232   4.705   4.190 -0.1152 -0.2755  0.0596
98868W        W41859  29.465  23.774   7.006  0.2812 -0.1556  0.2645
98869W        W41860  14.532  15.143   6.322 -0.0534  0.2642  0.1855
98870W        W41861   4.319   9.780  10.541  0.0417  0.1038 -0.3171
98871W        W41862  15.859   4.594   7.117  0.5529  0.0783 -0.1570
98872W        W41863  13.773  24.140   8.265  0.2613  0.0511  0.3284
98873W        W41864  34.130   9.466   6.015  0.1836  0.0380  0.0049
98874W        W41865  28.761  28.596   2.234  0.1356  0.0246 -0.0503
98875W        W41866  33.947  24.710  16.783 -0.1861 -0.1468  0.3420
98876W        W41867  31.910  31.898  26.492 -0.3588 -0.1488  0.1698
98877W        W41868  20.810  11.489   7.017  0.2545  0.0613  0.1310
98878W        W41869  15.471  27.381   2.561  0.0091 -0.0708  0.1545
98879W        W41870   1.574  20.893  10.917  0.0420 -0.3146 -0.0439
98880W        W41871  26.201   6.966   3.051 -0.0105  0.4836  0.0572
98881W        W41872  21.352   2.011   3.506  0.2268 -0.0479  0.3504
98882W        W41873  15.329  13.132   4.788 -0.0832  0.2789 -0.2138
98883W        W41874  13.417  21.731   6.812  0.0381  0.1723  0.3726
98884W        W41875  24.852   3.509   7.931  0.1333  0.0476 -0.1607
98885W        W41876  15.704  19.737   8.095 -0.1389  0.1159  0.0275
98886W        W41877  18.051  19.153  13.402 -0.2895 -0.1089  0.4329
98887W        W41878  22.004   6.184   6.679 -0.2351 -0.1921  0.3299
98888W        W41879  29.585  30.421  27.787 -0.0327 -0.0393  0.0636
98889W        W41880   8.136   0.749  23.310  0.0338  0.0807 -0.1357
98890W        W41881  22.460   3.383  21.225 -0.0629 -0.0041  0.0168
98891W        W41882  12.260  24.923  27.190  0.0082 -0.0243  0.1554
98892W        W41883   5.815   0.940  10.610 -0.0667 -0.0642 -0.1614
98893W        W41884   1.278  14.364   6.906 -0.0449  0.0981 -0.1517
98894W        W41885  25.142   4.139   6.265 -0.2756  0.2044 -0.2508
98895W        W41886  14.438  11.855   4.077 -0.1948 -0.2104 -0.2614
98896W        W41887   8.840  21.473   6.028  0.4456 -0.1042  0.0047
98897W        W41888  13.290   6.741   6.529  0.0807  0.1173 -0.1780
98898W        W41889  15.413  15.674   6.447 -0.0495  0.0432  0.2492
98899W        W41890  28.643   6.692   3.581 -0.2289  0.0260 -0.0609
98900W        W41891  19.936  27.452  27.317  0.0996 -0.0209 -0.3963
98901W        W41892  10.151  17.387  16.675  0.2334  0.1006 -0.1377
98902W        W41893  12.025  34.255   9.363  0.1552  0.0557 -0.1572
98903W        W41894   9.025   0.460   6.640 -0.1642  0.1279  0.2876
98904W        W41895   1.951  11.807  11.337  0.0851 -0.1023  0.0243
98905W        W41896  23.044   5.850  20.634  0.1152  0.2742 -0.1100
98906W        W41897  21.266  31.217   7.991  0.1866  0.2405 -0.3217
98907W        W41898   3.672  32.367   5.598  0.1852  0.1694 -0.2969
98908W        W41899   8.434  14.153  26.359  0.2837  0.1690 -0.0612
98909W        W41900  14.097   0.570   8.081  0.3547 -0.1033  0.2124
98910W        W41901  28.304  32.029   7.105  0.0346  0.0487 -0.0423
98911W        W41902  13.645  30.924   5.394 -0.2954 -0.1648  0.2497
98912W        W41903  17.972   6.998  28.251 -0.1475 -0.2663  0.0465
98913W        W41904  24.353  30.204   2.324  0.0599  0.1744 -0.1990
98914W        W41905  18.119  34.770   0.740 -0.0985  0.0221  0.1111
98915W        W41906  34.678   4.911   8.929 -0.1336 -0.0360  0.0579
98916W        W41907  28.057  23.943   4.353 -0.1603  0.3165  0.2340
98917W        W41908  19.865  13.697  20.546  0.1033  0.3292  0.2185
98918W        W41909   1.763   7.292  19.492  0.2531 -0.1801 -0.2622
98919W        W41910  10.673  27.646   0.796  0.0161  0.2090  0.1448
98920W        W41911  11.742  33.239   9.047 -0.1934 -0.0429  0.0022
98921W        W41912  10.077  23.293  10.602  0.1205  0.0954  0.0652
98922W        W41913  10.950  30.591   5.588  0.1675 -0.1119  0.3672
98923W        W41914  15.240   9.982   1.996 -0.1747 -0.2753 -0.1014
98924W        W41915   9.592   4.440   6.281 -0.0939  0.0293 -0.0297
98925W        W41916  15.879  34.171   0.075  0.2309 -0.0726 -0.1267
98926W        W41917  19.039   9.854  10.202 -0.1721 -0.1470 -0.2387
98927W        W41918  24.001  26.914  25.356 -0.2199 -0.0910  0.1481
98928W        W41919  19.712  34.219   6.157  0.0166 -0.2175 -0.0996
98929W        W41920  14.881  28.549   9.687  0.2103  0.0359 -0.0201
98930W        W41921  15.344  11.526   6.810  0.2355 -0.3235 -0.1678
98931W        W41922   3.099   1.470   7.836 -0.1309 -0.1506  0.2512
98932W        W41923  29.892   5.669  18.688  0.0679 -0.2591 -0.1206
98933W        W41924  20.702   2.881   8.778  0.0371 -0.3461 -0.0068
98934W        W41925   2.638   0.451   3.480 -0.3803 -0.3135 -0.0515
98935W        W41926  22.411  28.034   7.796  0.0776  0.1420 -0.1716
98936W        W41927  16.827  16.934   5.611 -0.0200 -0.2737 -0.2412
98937W        W41928  12.599  16.475  28.002  0.1156 -0.1360 -0.0296
98938W        W41929   1.923  30.970   4.007  0.1279  0.0392 -0.0522
98939W        W41930  30.918   4.690   5.766 -0.1286 -0.3862  0.1736
98940W        W41931   7.975   1.868   6.344  0.2413  0.2613  0.1283
98941W        W41932  23.377   4.476  18.825 -0.2269 -0.2137  0.2238
98942W        W41933  34.723  17.472   5.551 -0.0204  0.1240 -0.0541
98943W        W41934  17.413   4.937   0.968  0.1132  0.1491  0.1391
98944W        W41935  24.357   6.348   2.605 -0.0055 -0.0600 -0.1492
98945W        W41936  16.201  34.539  29.044 -0.0481  0.2084  0.2151
98946W        W41937  27.299  22.395   7.383  0.2225 -0.1341 -0.2486
98947W        W41938  31.532  24.553   6.702 -0.3945  0.2752 -0.1004
98948W        W41939  30.419   6.969   3.566  0.1670  0.0969  0.0640
98949W        W41940   3.545   1.122  24.421 -0.2067  0.1494  0.0767
98950W        W41941  13.560   7.775   1.179  0.0135 -0.5075  0.0448
98951W        W41942  27.731   0.534   3.959  0.1571  0.0935 -0.0550
98952W        W41943  20.705   8.701   6.652  0.0511 -0.0978 -0.0006
98953W        W41944  13.631  27.082  26.081  0.1423 -0.1391 -0.0204
98954W        W41945   2.630  22.802   0.081 -0.2051  0.3332  0.0543
98955W        W41946   8.275  33.869   7.552  0.3873  0.2259 -0.0489
98956W        W41947   9.385  10.224   2.569  0.0295  0.1654  0.0839
98957W        W41948  26.457   6.964   4.875 -0.1748 -0.0202 -0.0460
98958W        W41949  20.030  30.409   1.966 -0.0718  0.0406 -0.1972
98959W        W41950  19.007  21.292   5.508  0.2070  0.0782 -0.0329
98960W        W41951  17.384   3.867   6.654  0.0734 -0.5290  0.3687
98961W        W41952  12.560  24.899   9.053 -0.2720  0.2301 -0.2527
98962W        W41953  11.612   5.298  15.469 -0.3774  0.0147  0.0792
98963W        W41954  33.052   4.717  21.989  0.0444  0.4047 -0.3733
98964W        W41955  31.149  19.873  26.650  0.2338  0.0522 -0.2990
98965W        W41956  21.518  30.046   6.091 -0.0834  0.3041  0.0076
98966W        W41957  17.093   2.944  24.087 -0.1341 -0.0339  0.1562
98967W        W41958  20.012  13.723   9.216 -0.1849 -0.0803 -0.1533
98968W        W41959  12.532   8.583   4.576 -0.1754 -0.1961 -0.3369
98969W        W41960  17.781  29.220   0.870  0.1852  0.0356 -0.1337
98970W        W41961  23.542   3.093   7.528  0.0282  0.2941  0.3790
98971W        W41962   0.059  24.398   8.397 -0.1964 -0.2137  0.0782
98972W        W41963  21.443  21.131   3.425 -0.0882  0.0821 -0.2658
98973W        W41964  17.707   5.424   7.502 -0.1393  0.0560  0.0590
98974W        W41965  12.913  30.366   6.189  0.0235  0.3770  0.2838
98975W        W41966   9.469  12.755   2.512  0.0776 -0.0340 -0.3101
98976W        W41967  17.302  29.308  23.042  0.2887 -0.2567 -0.1282
98977W        W41968  19.301  25.042  26.031 -0.0419 -0.2593  0.1812
98978W        W41969  10.380  31.644   9.803  0.1726  0.1771  0.0934
98979W        W41970  10.859  34.175   1.091 -0.3440  0.0194 -0.2132
98980W        W41971   7.357  23.564   2.618 -0.1046  0.1134  0.0503
98981W        W41972  13.930   0.408   1.897  0.3505 -0.1503 -0.1681
98982W        W41973  17.205  13.184   6.211  0.2308  0.1394 -0.2163
98983W        W41974  12.888  12.150  24.001 -0.1229 -0.0997  0.0588
98984W        W41975  14.964   9.412   0.120 -0.0639  0.2596 -0.2989
98985W        W41976   9.286  29.823  25.855 -0.1356  0.0346 -0.2502
98986W        W41977  31.983  13.074   8.472 -0.0466 -0.0251 -0.1703
98987W        W41978  14.659  13.769   7.341 -0.3773  0.0766  0.0963
98988W        W41979  16.717  12.410  25.849 -0.1189 -0.1518  0.3205
98989W        W41980  20.093   0.369   5.489  0.2457  0.1314 -0.1587
98990W        W41981   9.320  30.163   1.167 -0.1383  0.1246  0.0037
98991W        W41982  13.474  30.578   8.837  0.0299  0.0864 -0.4453
98992W        W41983   8.179  10.743  15.554 -0.0311  0.1677 -0.0004
98993W        W41984   3.831  26.344   3.245 -0.0469 -0.0160 -0.1169
98994W        W41985  14.912  31.364   7.832 -0.1913  0.3120  0.4704
98995W        W41986   8.428   6.338   3.633 -0.1517  0.0555 -0.0422
98996W        W41987  15.745  31.034   6.645 -0.0694 -0.2557 -0.0616
98997W        W41988  20.179  15.539  25.253 -0.2272  0.3496 -0.4995
98998W        W41989  29.406   6.489   2.873  0.0957  0.3668 -0.1640
98999W        W41990  22.606   3.651   6.895 -0.1778 -0.1514  0.1771
99000W        W41991  19.615  30.596  27.028 -0.1256 -0.4446 -0.2695
99001W        W41992  11.768  16.430  17.595  0.0009  0.2406  0.1307
99002W        W41993   2.117  12.872   6.444  0.3227 -0.2335  0.2000
99003W        W41994  27.672  15.523   8.744  0.0837 -0.2390  0.1095
99004W        W41995  14.862  17.319   0.867  0.0314 -0.1381 -0.1335
99005W        W41996   1.224  32.120  29.159 -0.2154  0.1147  0.3134
99006W        W41997  23.692  14.231   5.519  0.0777  0.0711  0.2164
99007W        W41998  22.687  11.330  28.742 -0.0184 -0.2687  0.1632
99008W        W41999  12.762  10.073  22.865  0.0207  0.1466  0.2517
99009W        W42000  32.185  27.193   4.291  0.0686  0.2670  0.0617
99010W        W42001  21.961  14.810   6.888 -0.0532  0.2566 -0.1887
99011W        W42002  13.099  17.219   4.731 -0.1413 -0.0472  0.0055
99012W        W42003   5.516  22.437  15.008  0.2450  0.0702 -0.0576
99013W        W42004  15.663   8.119  27.943 -0.1242 -0.0881  0.0493
99014W        W42005  14.682  16.486  16.320 -0.1861 -0.1372 -0.2110
99015W        W42006   8.415  18.447   7.238 -0.0754 -0.0898 -0.1979
99016W        W42007  20.410  10.043   6.929  0.1226  0.0071 -0.0497
99017W        W42008  22.234  12.415  12.951 -0.1008 -0.3557 -0.1419
99018W        W42009  18.301   4.841  28.332 -0.1047  0.2044  0.0361
99019W        W42010   9.929  26.428  28.640  0.0645 -0.0027 -0.0258
99020W        W42011  21.956   1.551   5.544  0.0414 -0.1587  0.0169
99021W        W42012   7.901  16.232  21.950  0.0919 -0.0208 -0.0318
99022W        W42013  12.113  24.564  26.206  0.0888 -0.3066 -0.1410
99023W        W42014   1.209  12.389  20.124  0.0652  0.0223 -0.0336
99024W        W42015  16.715  18.197   3.020  0.0392 -0.1961  0.0504
99025W        W42016  15.271  26.813   4.130 -0.0295  0.0482  0.0131
99026W        W42017  17.259   9.720   6.411 -0.2965  0.1453 -0.0840
99027W        W42018  19.603  32.931   2.980  0.2574 -0.2086  0.0200
99028W        W42019  33.758  30.362   5.868  0.1395 -0.3664 -0.3315
99029W        W42020  23.643  15.441  26.911 -0.1176  0.0962  0.0744
99030W        W42021  18.162  17.503   8.632  0.1719 -0.0015  0.2591
99031W        W42022  21.826  30.274   5.286 -0.0543 -0.3445 -0.1666
99032W        W42023  15.330   6.824   3.309 -0.1013 -0.1787 -0.0093
99033W        W42024   4.719   2.816   6.565  0.0910  0.0458  0.3126
99034W        W42025  27.437  10.486   5.367  0.0350 -0.1676  0.0264
99035W        W42026  26.500  11.230  27.320 -0.0674 -0.2512  0.3679
99036W        W42027   9.168  22.958   6.939 -0.2809 -0.2153  0.0434
99037W        W42028  26.837  34.386   0.013  0.4979  0.0481 -0.3585
99038W        W42029   0.769   7.535   2.896  0.1790  0.0385 -0.0389
99039W        W42030  23.996   4.111   8.531 -0.0931 -0.0675  0.0509
99040W        W42031  23.425  13.598   1.889  0.2415 -0.0741  0.0445
99041W        W42032  17.681  29.596   0.500  0.0934 -0.1793  0.0467
99042W        W42033  12.303  12.455   6.623 -0.0942  0.0091  0.2650
99043W        W42034  13.606  19.452  24.398  0.0394  0.0014 -0.0749
99044W        W42035   1.341   0.571   3.473  0.1440  0.0951  0.1674
99045W        W42036  12.786  14.514  28.359 -0.1402 -0.1086  0.0270
99046W        W42037  29.212  29.945  28.946  0.1459  0.2317  0.1307
99047W        W42038  15.742   1.682  16.493  0.2415  0.0869 -0.1233
99048W        W42039   2.304   5.847   0.589 -0.1198  0.2827 -0.0691
99049W        W42040  17.503  32.547  17.847 -0.0009  0.0597 -0.1368
99050W        W42041  21.764  28.774  14.065  0.1511 -0.0643 -0.0426
99051W        W42042  10.088   9.702  10.899  0.0401 -0.2663  0.0359
99052W        W42043  23.220   1.802  24.009  0.2917  0.0225 -0.3708
99053W        W42044  16.415  11.638   8.866  0.0711 -0.2906  0.4011
99054W        W42045  14.031  31.045   3.322 -0.0255  0.1903 -0.2928
99055W        W42046  10.596   4.237   6.980 -0.0076  0.1071 -0.1032
99056W        W42047   7.691  33.518   4.724  0.1033  0.1005  0.0520
99057W        W42048   6.692   2.750  16.908  0.1861  0.5672  0.0975
99058W        W42049  18.416  23.029   4.110  0.3003 -0.3044 -0.0596
99059W        W42050  32.896   4.207  26.685  0.1667 -0.1644 -0.0134
99060W        W42051  22.373   1.198  16.090 -0.0751 -0.2788  0.6404
99061W        W42052  14.740  23.647   2.124 -0.1772 -0.0076  0.3857
99062W        W42053   7.897   9.666  10.163  0.2364 -0.0051  0.2570
99063W        W42054  27.393   0.862  16.189 -0.1240 -0.2810  0.4513
99064W        W42055  27.176   9.632   9.402 -0.0914 -0.0899 -0.0352
99065W        W42056  22.652  11.246   0.915  0.2306 -0.1563 -0.2142
99066W        W42057  21.923  12.607   7.361  0.0316 -0.1422 -0.0750
99067W        W42058  10.002   5.714   3.320  0.0325  0.2644  0.1408
99068W        W42059  26.111  15.320   6.275 -0.0070 -0.0777  0.0520
99069W        W42060  13.974  29.508  29.024  0.2243  0.1032  0.0857
99070W        W42061  12.383   2.724  17.829  0.0494 -0.2361  0.1953
99071W        W42062  23.509  24.349   0.932  0.0875 -0.0009 -0.2522
99072W        W42063   0.631  29.332  22.632  0.0211  0.1684 -0.0652
99073W        W42064  21.550  30.613   7.606 -0.0690 -0.1066 -0.2228
99074W        W42065  12.971   8.960   5.245 -0.0221 -0.0324  0.0357
99075W        W42066  25.842  13.042  27.349 -0.1537  0.0676 -0.1100
99076W        W42067  23.861  30.263  28.418  0.0389  0.1425 -0.2416
99077W        W42068  31.107   7.359  17.040 -0.4002  0.0178  0.3333
99078W        W42069  27.683  16.580  22.298 -0.3472  0.0602 -0.1573
99079W        W42070  22.860  31.017   7.579 -0.1690  0.1161  0.2672
99080W        W42071  17.807  12.597  18.933  0.0568  0.0685 -0.2371
99081W        W42072  28.606   8.142   9.240  0.0372 -0.0731 -0.1564
99082W        W42073  18.582  33.703   9.513  0.0822 -0.4008  0.4112
99083W        W42074  18.129   4.249  29.262 -0.0228 -0.2123  0.0932
99084W        W42075  17.606  10.007   3.923 -0.3761 -0.2285 -0.0988
99085W        W42076  13.451   0.919   2.606 -0.2194  0.0868 -0.1883
99086W        W42077   1.204   4.280  10.675 -0.1193  0.0564  0.1469
99087W        W42078  19.892   2.793  19.969 -0.0656 -0.3310  0.0350
99088W        W42079  25.705  27.604   2.736  0.0431  0.0395  0.5096
99089W        W42080  14.294   3.266  10.855 -0.4179 -0.0192 -0.2329
99090W        W42081  12.106   0.202   3.561  0.2492 -0.1145 -0.0374
99091W        W42082  18.761  26.685   6.393  0.1507 -0.1127 -0.0430
99092W        W42083   8.512   0.519   0.715 -0.1741 -0.0601  0.3894
99093W        W42084  23.892   0.736  28.700  0.3264  0.0473  0.2787
99094W        W42085  14.077   3.952   3.567 -0.0982  0.0020  0.0272
99095W        W42086   2.448   5.378  20.363 -0.1159 -0.1619  0.1293
99096W        W42087  24.668  16.188   0.955  0.0952 -0.3916 -0.1490
99097W        W42088   4.804   4.869  16.413  0.1731 -0.1692 -0.0525
99098W        W42089  14.565   3.938   9.145 -0.0956  0.0677 -0.2195
99099W        W42090  24.260  31.841  19.075 -0.0942  0.1325 -0.2950
99100W        W42091  20.062  34.486   7.691 -0.1315 -0.0307  0.4047
99101W        W42092  13.107  11.419   4.283 -0.1060  0.0219 -0.3125
99102W        W42093  30.570  30.035   3.374  0.0576 -0.0834  0.2105
99103W        W42094   6.671  14.073   5.796 -0.4245  0.0691  0.4477
99104W        W42095  12.772   3.250  10.397  0.1107  0.1004 -0.1318
99105W        W42096  20.832  33.469   7.471 -0.0712  0.1819  0.1062
99106W        W42097   7.628  32.766  18.261 -0.0354 -0.3040 -0.5093
99107W        W42098  27.319  17.807   1.014  0.1500 -0.0264 -0.3195
99108W        W42099  12.937   3.766   6.860  0.0295 -0.2486 -0.0257
99109W        W42100  23.468  32.746  14.878  0.1333 -0.2848 -0.1149
99110W        W42101   8.289   7.199  22.526 -0.1031 -0.0029 -0.0985
99111W        W42102   1.166  30.509  27.045  0.1494  0.0425  0.1098
99112W        W42103  18.192   9.286   4.905 -0.0216  0.0156 -0.2145
99113W        W42104  27.305   9.492   8.027 -0.3412 -0.0391 -0.2586
99114W        W42105  13.938   4.779   8.120  0.3326  0.0413  0.0790
99115W        W42106  13.101  14.861  27.013 -0.1735 -0.1715  0.0998
99116W        W42107  13.881  34.138   0.129 -0.1588 -0.0032  0.1198
99117W        W42108  27.619   0.271   7.845  0.1137 -0.2651  0.0643
99118W        W42109  24.399  30.728   8.424 -0.1183  0.4637 -0.4026
99119W        W42110  18.309   6.923  27.417  0.0840  0.3636  0.4111
99120W        W42111  15.419  31.405  28.721  0.0703  0.2322 -0.0991
99121W        W42112  25.204  18.114   5.485 -0.2624  0.0401  0.3112
99122W        W42113  20.470   5.141  21.353  0.1536  0.1697 -0.0153
99123W        W42114   0.247  16.500   5.107 -0.0161 -0.1573 -0.1070
99124W        W42115   8.207  19.301   1.910 -0.2317 -0.0815 -0.2322
99125W        W42116  23.501   5.063  16.427 -0.1437 -0.1969  0.1945
99126W        W42117  20.700  18.468  25.517 -0.1493 -0.0573  0.0122
99127W        W42118   5.117   7.123   8.525  0.3580 -0.1467 -0.4162
99128W        W42119  23.502  16.708  20.196 -0.1968 -0.1501 -0.2320
99129W        W42120  26.591  11.165   8.163 -0.3351 -0.3845  0.0777
99130W        W42121  17.631  32.113   9.365  0.1135  0.2302 -0.2375
99131W        W42122  26.170  21.533  24.839 -0.1791  0.3883  0.2776
99132W        W42123   2.260   8.601  28.256 -0.1027 -0.3441 -0.0229
99133W        W42124   0.416  27.164   5.460  0.3055  0.2577  0.2035
99134W        W42125   5.142   6.334   0.482  0.0706 -0.0750 -0.0565
99135W        W42126  22.999  29.756   7.540  0.2373  0.0238  0.0358
99136W        W42127  27.938  10.798   2.813  0.0629 -0.0357 -0.2602
99137W        W42128  26.440   8.994   8.741  0.1889  0.2407 -0.0182
99138W        W42129  14.417  33.230   5.592 -0.0329  0.0130  0.0530
99139W        W42130  22.826   7.016   7.515  0.0014  0.1610  0.1136
99140W        W42131  31.075   5.149   4.960 -0.0040  0.2163  0.2420
99141W        W42132   0.217  25.312  14.847 -0.1204 -0.1547 -0.1000
99142W        W42133  14.315  12.294   2.148 -0.2578 -0.2360  0.0127
99143W        W42134  23.604   1.191   4.951 -0.0413 -0.2073 -0.0434
99144W        W42135  22.182  10.409   7.146  0.0804  0.0507  0.2095
99145W        W42136  15.003  32.692   8.274  0.6141  0.1220 -0.2009
99146W        W42137  21.561  13.838  24.860 -0.0880 -0.0366 -0.1097
99147W        W42138  20.326  14.457   8.192 -0.0559  0.0561 -0.2254
99148W        W42139  14.653   4.045  24.176  0.0346  0.0070 -0.0839
99149W        W42140   4.272  10.919   6.363 -0.1499  0.0195 -0.0023
99150W        W42141  12.521  11.723   7.352 -0.2172  0.0585 -0.0310
99151W        W42142  15.498  16.215  12.449  0.2594 -0.0934  0.0236
99152W        W42143  23.780  24.750   5.292 -0.4212  0.0703 -0.2396
99153W        W42144   9.415  17.421   5.708  0.2152 -0.1355  0.0326
99154W        W42145  21.926  33.447   8.622  0.0660 -0.1333  0.3537
99155W        W42146  15.832  16.869   4.255  0.1763  0.0682 -0.2316
99156W        W42147   9.476   7.452   8.805  0.2142  0.2293 -0.2656
99157W        W42148  10.927  33.075   0.280 -0.0746  0.0218  0.2147
99158W        W42149   6.646  31.186  16.531  0.3518  0.1270 -0.0164
99159W        W42150   3.154   6.026  26.196 -0.0110 -0.1736  0.4583
99160W        W42151   0.874  31.536   2.396  0.4409 -0.1019 -0.1810
99161W        W42152  20.249  10.829  21.550  0.3020  0.1330 -0.1522
99162W        W42153  17.999  10.853   8.142  0.4703  0.2587  0.0316
99163W        W42154  16.645  10.830  24.464  0.3745  0.0337 -0.0949
99164W        W42155  18.045   6.714  26.493  0.0162  0.2263  0.1601
99165W        W42156  20.794  10.978  26.349  0.3849  0.0603  0.0006
99166W        W42157  15.330   9.454  10.816  0.0194  0.0979  0.0724
99167W        W42158   3.929   3.802  27.503 -0.0901 -0.2918  0.1546
99168W        W42159   7.871  21.152   3.624  0.2612 -0.1240 -0.2033
99169W        W42160   4.467   7.149  22.091 -0.0455 -0.0342 -0.2060
99170W        W42161  21.773  34.501   3.090 -0.0057  0.0332  0.0719
99171W        W42162  11.478   5.581   9.738  0.1440  0.0427 -0.0721
99172W        W42163   2.567  15.805   3.397 -0.0604 -0.0640 -0.0834
99173W        W42164  23.273  21.677  28.974 -0.2757  0.1966  0.0264
99174W        W42165  15.836  15.523   2.935  0.1026  0.1007 -0.2172
99175W        W42166  12.129  29.421   2.795  0.2726 -0.0115 -0.0097
99176W        W42167  14.928   0.296   5.566  0.0700 -0.2559  0.3169
99177W        W42168  15.656   1.427   2.874  0.2102 -0.0256 -0.3170
99178W        W42169  19.743  30.905   1.310  0.3256 -0.1777  0.2499
99179W        W42170  10.980  31.106   9.534  0.1295 -0.0939  0.0253
99180W        W42171  32.823  21.436   8.933 -0.3115 -0.2644 -0.0087
99181W        W42172   9.828   7.535   9.670  0.1030  0.0044  0.2896
99182W        W42173  26.953   8.807   6.803  0.2148 -0.0404 -0.0881
99183W        W42174  24.397  10.128  26.622  0.0864 -0.3373 -0.0749
99184W        W42175  11.434  23.256  28.327 -0.0831  0.2378 -0.2568
99185W        W42176  15.802  19.303  26.785  0.1595  0.0521  0.1734
99186W        W42177  25.285   5.956  20.847  0.2523 -0.0770 -0.1923
99187W        W42178  15.377  19.781  25.899 -0.1601  0.1884 -0.2598
99188W        W42179   3.495  18.415  28.315 -0.2962  0.0311 -0.0346
99189W        W42180   1.459  32.937   0.923  0.1202 -0.0841  0.1940
99190W        W42181  13.244   3.598   7.990 -0.0596 -0.1171 -0.1677
99191W        W42182  14.657  10.793   5.664  0.0788 -0.0915 -0.2471
99192W        W42183  23.228   5.854  21.608 -0.0583  0.1048  0.0573
99193W        W42184  11.715  31.601  28.514 -0.0238  0.0022  0.0187
99194W        W42185  15.618  19.029   0.558 -0.1117  0.1188 -0.0350
99195W        W42186   6.538  34.510   6.478  0.2643 -0.1302 -0.1540
99196W        W42187  21.872  29.215   8.610  0.0546  0.2616 -0.1540
99197W        W42188   0.582   7.402  28.547 -0.0058 -0.0684  0.2039
99198W        W42189  22.396  15.801   8.891  0.0254 -0.0590 -0.1992
99199W        W42190   2.217   7.153  27.734  0.2888 -0.0946  0.0081
99200W        W42191   7.398  14.981  27.668  0.0084  0.2595  0.0842
99201W        W42192  24.581   0.253  17.800 -0.0224  0.2832 -0.1949
99202W        W42193   8.113  14.018   2.334  0.4048 -0.1020  0.1799
99203W        W42194  10.350  20.491   7.083 -0.4015 -0.0376  0.1752
99204W        W42195  25.802   3.204   5.223 -0.1031 -0.4127  0.5564
99205W        W42196   9.163   8.499  21.792 -0.1470 -0.0970 -0.2072
99206W        W42197  22.895  15.011   4.615 -0.2286  0.0912 -0.1359
99207W        W42198  14.426  10.509   6.143  0.1050 -0.1307  0.0202
99208W        W42199   4.150  25.032  28.066 -0.1134 -0.3248 -0.2005
99209W        W42200   3.765  15.686  19.220  0.2177 -0.1677  0.2124
99210W        W42201  11.813  19.759   8.283 -0.0543  0.3640 -0.1084
99211W        W42202  17.442  26.869  13.161 -0.0937 -0.0995  0.1340
99212W        W42203  34.618  10.220   6.046 -0.0912  0.2890 -0.0982
99213W        W42204  17.737  30.750   4.611  0.0974 -0.0724  0.4923
99214W        W42205  30.259  30.870   5.080 -0.0488 -0.1614 -0.2183
99215W        W42206  17.839  16.927  25.862  0.0052 -0.0576  0.0775
99216W        W42207  16.696  17.412  26.948 -0.1777  0.0977  0.0684
99217W        W42208  12.079  17.984   0.873 -0.0566  0.0537  0.2973
99218W        W42209  21.300  11.126  29.025  0.1414  0.0554  0.2851
99219W        W42210  16.900   2.000  23.122  0.0308 -0.1220 -0.2547
99220W        W42211  20.015  11.799   1.282  0.1367 -0.2231  0.0751
99221W        W42212  23.871   5.310   1.128 -0.1694  0.1566 -0.1077
99222W        W42213  19.787   3.105   4.272  0.1619  0.2636 -0.1052
99223W        W42214  11.107   4.063   2.317  0.1914 -0.1431 -0.0581
99224W        W42215  20.714  13.861  25.243 -0.2771  0.2029  0.1110
99225W        W42216  20.492  18.699  27.283  0.0129 -0.0603 -0.1997
99226W        W42217  30.505  14.610   3.492 -0.0197 -0.1299 -0.2226
99227W        W42218   5.653  30.893  27.219 -0.1297 -0.0156 -0.1650
99228W        W42219  18.962  17.042  26.695  0.3399  0.2979 -0.0499
99229W        W42220  21.075  10.945  23.413 -0.0945 -0.0597  0.1819
99230W        W42221  20.512  13.984   8.374 -0.4469 -0.3104 -0.1066
99231W        W42222  22.027   6.352   0.673 -0.2668 -0.2214 -0.1284
99232W        W42223  12.364  23.444  15.245  0.1356 -0.1503 -0.0213
99233W        W42224   9.127   2.073   7.331  0.2209 -0.0151 -0.3761
99234W        W42225  22.118   8.187   6.914 -0.0343 -0.1677 -0.1264
99235W        W42226   7.535   5.193   4.483 -0.2366 -0.1313  0.1063
99236W        W42227  25.736  11.386   3.981 -0.1045 -0.5021  0.0309
99237W        W42228  10.392  18.739   2.669  0.0602  0.2234 -0.0213
99238W        W42229  24.979  28.852  21.934 -0.1401 -0.1580  0.1609
99239W        W42230  21.261  18.236  14.366 -0.2218  0.0562 -0.5861
99240W        W42231   3.247  20.976   4.534 -0.3368  0.2028  0.3164
99241W        W42232  26.305  12.179  26.797  0.0288 -0.1761 -0.1103
99242W        W42233   4.718  13.364  26.099 -0.0146 -0.0969 -0.0326
99243W        W42234   5.673  14.117  27.747  0.2982  0.0724 -0.0414
99244W        W42235  16.518   7.625   1.807  0.1509 -0.2824 -0.1839
99245W        W42236   8.799  14.269   6.264  0.0998 -0.3648  0.0180
99246W        W42237  24.902  17.764   8.659  0.2087  0.0235 -0.2542
99247W        W42238   9.017  17.007  22.744  0.0443  0.2235  0.0554
99248W        W42239   3.973   1.755  28.950  0.1337  0.1365 -0.3915
99249W        W42240  18.867  20.060   3.245  0.0221 -0.1385 -0.2467
99250W        W42241  22.999   3.871  26.051 -0.2029 -0.1339  0.2939
99251W        W42242   9.777   7.080   3.598  0.0476 -0.1020 -0.0943
99252W        W42243  14.975  34.018   8.254 -0.0843 -0.0042  0.2020
99253W        W42244  22.798  29.474   2.278  0.1335 -0.1148  0.0984
99254W        W42245  12.879  11.245   5.206 -0.1133  0.1558 -0.0491
99255W        W42246  14.120   1.922   6.475 -0.0298  0.2101  0.0431
99256W        W42247  15.181  33.003  23.058  0.4488  0.1005  0.0279
99257W        W42248   4.175  34.092  24.167  0.1492 -0.2789 -0.0115
99258W        W42249  10.366   1.569  19.036  0.0630 -0.1250  0.0576
99259W        W42250  34.260   6.748   7.625  0.1983  0.1803 -0.0344
99260W        W42251   5.844   0.360   0.473  0.2198 -0.2332 -0.1546
99261W        W42252  22.250   3.386   1.220  0.2245  0.1434 -0.0751
99262W        W42253  17.085  13.799  21.895 -0.1871 -0.1031  0.1734
99263W        W42254  34.746  11.231   8.590 -0.0740 -0.3538  0.1036
99264W        W42255  34.720   3.265  25.569  0.1316 -0.0973 -0.1114
99265W        W42256  15.267   9.795   4.040  0.0479 -0.3365 -0.0469
99266W        W42257   6.538   3.475   5.457 -0.2673 -0.0459 -0.1661
99267W        W42258  34.497  11.802  16.605  0.3812  0.1136  0.0533
99268W        W42259  28.920  27.364   7.601 -0.1253  0.1240  0.0122
99269W        W42260  21.533  18.384   1.620  0.2397  0.0254 -0.2419
99270W        W42261  17.169  33.189  28.499  0.0289 -0.2216 -0.1512
99271W        W42262   6.689  17.492   9.909  0.1034  0.0582  0.0701
99272W        W42263  10.676  14.536  28.585 -0.4052  0.0213 -0.1886
99273W        W42264  25.301  34.291   5.728  0.0189  0.2789  0.1969
99274W        W42265   5.162  11.811   5.937 -0.2707 -0.1544  0.0791
99275W        W42266   4.660   0.649  22.945  0.0816 -0.1677  0.2972
99276W        W42267  21.008   1.315  28.486 -0.1173 -0.0116  0.1136
99277W        W42268  16.345   5.848   9.318  0.1309 -0.0673  0.0197
99278W        W42269  14.462  32.587   7.428 -0.3957  0.2206 -0.0014
99279W        W42270  25.397  22.552  27.558 -0.2652 -0.0116  0.1042
99280W        W42271  21.017  14.226  21.809 -0.1866 -0.0442 -0.0034
99281W        W42272  21.371   6.741   5.755 -0.3609  0.0203  0.3179
99282W        W42273  25.467   6.809   7.402  0.3111  0.0329  0.0469
99283W        W42274   3.042  26.337  17.383  0.0807 -0.2937 -0.1433
99284W        W42275   5.465   5.383  28.594  0.1523  0.2406  0.2581
99285W        W42276  24.085  21.509  22.114  0.1878  0.0238  0.0745
99286W        W42277  12.331   5.301   9.730  0.1838 -0.0555  0.4805
99287W        W42278   9.060   1.525  24.562 -0.0658 -0.1632  0.1663
99288W        W42279  19.504  14.306  13.791  0.5739  0.0419 -0.2214
99289W        W42280  10.088   7.237  24.220  0.0805  0.0842  0.3958
99290W        W42281  33.851   7.049  28.078 -0.1377 -0.0041 -0.0144
99291W        W42282   9.916   4.245   3.355 -0.1265  0.0148 -0.2136
99292W        W42283  11.331   7.360  10.402  0.1399  0.0686 -0.0500
99293W        W42284   9.243   2.033   6.845  0.1074 -0.0414  0.1256
99294W        W42285  18.429   8.656   6.137  0.0089  0.2013  0.1655
99295W        W42286  20.181   1.421  26.334  0.3452 -0.1034 -0.1319
99296W        W42287  17.691  32.452   8.427  0.1768  0.3221  0.0254
99297W        W42288  27.722   3.337   3.481  0.3288  0.2068  0.0300
99298W        W42289  11.686  31.958  28.909  0.3472 -0.2126  0.0453
99299W        W42290   7.922  19.147   5.329  0.0062 -0.2839 -0.0859
99300W        W42291  13.211  32.036   7.303 -0.1045 -0.1089  0.0407
99301W        W42292  25.169   8.521  20.293 -0.0690  0.4817 -0.3783
99302W        W42293   5.842  33.089   9.626 -0.2059  0.1985  0.1089
99303W        W42294  24.221   2.024   0.521 -0.1751 -0.2477  0.1527
99304W        W42295   4.452  13.688   2.599  0.1786 -0.0906 -0.0343
99305W        W42296  29.141  21.772  26.780 -0.2425 -0.0417 -0.0630
99306W        W42297   7.462  31.841   9.739 -0.1933  0.0604  0.0469
99307W        W42298  30.518  29.046  29.109  0.2102  0.0836  0.1011
99308W        W42299  19.064   6.925   3.917 -0.1078  0.0827  0.2907
99309W        W42300  28.548  13.473  27.416  0.1503 -0.2521  0.1345
99310W        W42301  12.965   4.290   3.944 -0.0986 -0.2098  0.0714
99311W        W42302  16.367   4.631  23.808 -0.0682 -0.1948 -0.0177
99312W        W42303  10.416  29.916   8.736  0.1853  0.0510  0.1302
99313W        W42304  18.322  12.289  24.669  0.0025  0.1579  0.1532
99314W        W42305  25.244  28.503   6.744 -0.2580  0.0195  0.3638
99315W        W42306  16.590  33.465  14.816 -0.3236 -0.2864 -0.0878
99316W        W42307   7.737   4.427   9.555  0.1326  0.1316  0.0312
99317W        W42308   1.733   2.892   6.187 -0.1738  0.0605 -0.1790
99318W        W42309  11.692   1.455   3.762 -0.0276  0.0513 -0.1616
99319W        W42310  32.236  12.574   5.693 -0.0023 -0.1893  0.0109
99320W        W42311  30.011  10.090   8.638  0.3782 -0.0290 -0.2484
99321W        W42312  33.882   3.044  24.964  0.4186 -0.0796 -0.1039
99322W        W42313   7.739   9.414   6.486 -0.0202  0.0162 -0.0274
99323W        W42314  15.146   0.361  15.287 -0.2346 -0.0045 -0.0345
99324W        W42315  28.842  12.864  19.047 -0.2340 -0.0278  0.1584
99325W        W42316  29.701  16.316   8.750 -0.2925  0.2927  0.1624
99326W        W42317  31.438  10.144   0.321 -0.0601  0.0667 -0.1138
99327W        W42318  19.437   2.887  23.045 -0.2459 -0.0245  0.1316
99328W        W42319   9.605  15.236   6.660 -0.3726  0.0980 -0.0972
99329W        W42320  25.479   6.142  16.160  0.0445 -0.1199  0.1581
99330W        W42321  13.839  28.335   8.786 -0.2443 -0.0319  0.0793
99331W        W42322  27.736   1.125   0.826 -0.0004 -0.0524  0.1175
99332W        W42323  13.761   2.368  10.851  0.0218 -0.0800  0.2618
99333W        W42324  28.550   8.171  26.663  0.1724  0.0497 -0.0147
99334W        W42325  13.757  14.312  13.999 -0.1837  0.2844  0.0470
99335W        W42326  32.538  26.371  19.105  0.0525 -0.1021  0.0035
99336W        W42327  31.410   6.765  26.008 -0.1580 -0.0959  0.0217
99337W        W42328  14.052   0.729   0.921  0.0624  0.0113 -0.0566
99338W        W42329  15.679  31.509  25.484 -0.2170 -0.0493 -0.0315
99339W        W42330  32.908  26.306  25.876 -0.0641  0.0485 -0.2450
99340W        W42331  12.544  17.993   8.416  0.1000 -0.1647 -0.0848
99341W        W42332  26.597  15.241  23.160  0.0600  0.0110  0.0450
99342W        W42333  15.730  13.683  22.754 -0.0595 -0.0946  0.0684
99343W        W42334  24.704  12.916   4.031 -0.1576  0.1489 -0.0820
99344W        W42335  16.002   9.396   8.671 -0.0559  0.0483 -0.1247
99345W        W42336  24.306   9.594   5.714  0.1996 -0.1438 -0.1540
99346W        W42337  11.804   1.221   8.139 -0.0444 -0.2872 -0.2244
99347W        W42338  26.450   3.982   5.374  0.0037 -0.0944 -0.0071
99348W        W42339  18.604   6.882   3.672  0.3432  0.1458 -0.0621
99349W        W42340   6.184   5.846  15.336  0.1470 -0.0764 -0.3676
99350W        W42341  17.787  28.589   4.267  0.2176  0.0011  0.5077
99351W        W42342  12.557  23.512  18.567  0.0914  0.1449  0.3763
99352W        W42343  19.693  26.510  29.247  0.0973 -0.3709 -0.0484
99353W        W42344  20.686  24.079   7.744 -0.0829  0.0882  0.0210
99354W        W42345   6.448  20.798   4.553 -0.2893  0.0178  0.0443
99355W        W42346   9.086  18.395  26.374 -0.1878  0.0364  0.1103
99356W        W42347   2.470  10.643  10.261  0.1796  0.0196 -0.0245
99357W        W42348   0.226  14.500  23.123 -0.0921 -0.0449  0.1325
99358W        W42349  23.461  26.964   3.315 -0.3100 -0.0799 -0.0445
99359W        W42350  23.693  31.254   6.103 -0.0606 -0.0102 -0.0383
99360W        W42351  16.368  25.519   5.794 -0.2584  0.2051  0.1110
99361W        W42352  12.959   7.035   0.203 -0.1773  0.0500 -0.0997
99362W        W42353   5.008  33.038  26.835  0.1565 -0.3776 -0.1267
99363W        W42354  13.695   7.314   9.488  0.0489  0.0663  0.0246
99364W        W42355  13.291   0.760  25.669  0.3026  0.1636 -0.0329
99365W        W42356  24.835  12.306   4.049 -0.3028  0.1840  0.2244
99366W        W42357  33.589   0.419  26.924  0.0451  0.1740 -0.0248
99367W        W42358   8.533  31.794   1.404 -0.1057  0.2188  0.1196
99368W        W42359  11.382  12.838   4.853  0.1070 -0.0834 -0.2529
99369W        W42360   1.329   3.085   6.339  0.1969  0.1535 -0.3482
99370W        W42361  11.680  34.080   1.354  0.0971  0.1596 -0.1377
99371W        W42362  12.301   4.537   3.334 -0.0210  0.2084 -0.2624
99372W        W42363   6.926   3.406  27.402 -0.2029  0.0926  0.2163
99373W        W42364  21.720  10.218   0.091  0.0128  0.2178 -0.0804
99374W        W42365  19.675  14.622   5.320  0.0254  0.1813 -0.1920
99375W        W42366  22.307  30.372   5.560  0.1565 -0.1383  0.1613
99376W        W42367  22.831  20.448  19.279 -0.0202 -0.1394  0.1918
99377W        W42368  12.598  22.323   6.130  0.1251  0.0036  0.0504
99378W        W42369  21.148   8.184   3.830  0.0187 -0.2798 -0.2890
99379W        W42370   0.390  19.571   5.225  0.2134  0.2171 -0.1290
99380W        W42371  24.227   4.144   0.102 -0.0214  0.2712 -0.2604
99381W        W42372  13.579  17.070  13.276  0.0679  0.0845 -0.3075
99382W        W42373  29.372  10.237  24.674  0.0254 -0.1373 -0.2265
99383W        W42374   6.272  23.501   8.126 -0.0289  0.2260 -0.4499
99384W        W42375  16.859  13.332  16.298  0.0275  0.0973 -0.1548
99385W        W42376  25.499  11.542  24.894 -0.0387 -0.1367 -0.0799
99386W        W42377  22.476  11.054   7.665  0.1415  0.3254 -0.0200
99387W        W42378  29.583  29.039   5.335  0.2529  0.1071 -0.1978
99388W        W42379  30.502  10.936   4.438  0.2723  0.0307 -0.0663
99389W        W42380  12.293  11.699  10.134 -0.0337 -0.0410  0.0491
99390W        W42381  11.414   6.826   2.926 -0.1983 -0.0402  0.3413
99391W        W42382  13.895  33.404  28.701  0.2947  0.1832 -0.0433
99392W        W42383  15.254  15.086  23.116 -0.0130  0.0154 -0.1504
99393W        W42384  25.682   6.993  27.651  0.1066  0.1255  0.1221
99394W        W42385   5.945  14.762   5.722  0.2328  0.2687 -0.1530
99395W        W42386   8.212  16.346   2.574  0.0264  0.1916 -0.0931
99396W        W42387  24.995  22.086   6.199 -0.1682 -0.0635  0.0810
99397W        W42388  24.786   5.720  23.353  0.1034 -0.0671 -0.4403
99398W        W42389   0.231  11.692   9.392 -0.3232  0.2915  0.0497
99399W        W42390  18.883  27.304   6.975 -0.1538  0.1162  0.0046
99400W        W42391  20.807  14.009   2.092 -0.1286  0.2059 -0.1177
99401W        W42392  24.127  28.279  26.198 -0.0320 -0.0227  0.1882
99402W        W42393  18.280  27.949   3.338 -0.1726  0.0082 -0.1529
99403W        W42394  32.429  33.127   4.986 -0.0752  0.2181 -0.1400
99404W        W42395  31.917   9.527   1.074  0.0863 -0.1956  0.0485
99405W        W42396   7.295  34.291   2.520 -0.2286 -0.1027  0.0671
99406W        W42397  21.960   4.651   5.670 -0.2688  0.1851  0.1247
99407W        W42398  14.329  14.501   3.869  0.1868  0.0553  0.0570
99408W        W42399  30.301   1.189   4.508  0.0415  0.0751  0.0916
99409W        W42400  12.817  11.736  25.260 -0.0499  0.1788 -0.0001
99410W        W42401  33.311  17.416  10.854  0.2618  0.0016  0.0832
99411W        W42402   9.785  10.341   5.856  0.0230 -0.3249 -0.0019
99412W        W42403  12.560   8.354   9.439 -0.0612 -0.1807  0.1038
99413W        W42404  10.023   5.477   8.456 -0.2633  0.1858 -0.0303
99414W        W42405  22.126  21.261  25.155 -0.1677 -0.3519 -0.2069
99415W        W42406   8.559  19.550   1.559  0.1888 -0.1483 -0.1911
99416W        W42407  24.956  16.845  21.607  0.1259 -0.1677 -0.0812
99417W        W42408  17.438   9.747  26.321 -0.0181  0.3661 -0.1166
99418W        W42409   5.021  11.797   8.223 -0.0984  0.0262 -0.3952
99419W        W42410  21.802   0.563   8.964 -0.1580 -0.3659  0.1282
99420W        W42411   9.888  16.592   4.650  0.3921 -0.2930 -0.0310
99421W        W42412  20.587   6.469   1.533  0.2311  0.1458 -0.0215
99422W        W42413  20.195   8.723   2.639  0.1969  0.2147  0.2139
99423W        W42414  17.387  11.867   8.046  0.0859  0.0569 -0.1013
99424W        W42415   6.851   2.133  21.709  0.0192 -0.0170  0.1087
99425W        W42416   0.032  12.303   0.473 -0.0407  0.1988 -0.0678
99426W        W42417  12.707  25.576   5.974  0.2444  0.0772  0.0951
99427W        W42418   8.814  24.338   8.356  0.0662  0.2801  0.1397
99428W        W42419  31.536  34.059   7.675  0.0390 -0.2166 -0.0595
99429W        W42420  19.281  27.399   5.328 -0.1490 -0.0704 -0.1334
99430W        W42421  15.153  15.059   7.124 -0.1266 -0.1160  0.0390
99431W        W42422  11.017  12.618  26.473  0.0261 -0.1175  0.2674
99432W        W42423  29.064  33.255   6.933  0.2230  0.0084 -0.0153
99433W        W42424  13.587   4.843   8.509  0.3366  0.0151 -0.0983
99434W        W42425  26.960   5.136   3.405 -0.0148 -0.1480  0.3518
99435W        W42426  11.339   6.438   3.528  0.1808  0.0873 -0.0823
99436W        W42427  15.535  27.726  23.538 -0.2071 -0.1054  0.0532
99437W        W42428  14.730  22.400  28.443 -0.0643  0.1399  0.3490
99438W        W42429   2.092  12.349   8.465 -0.0981 -0.1997  0.0894
99439W        W42430  13.619   8.056  25.519  0.1639 -0.2650  0.0993
99440W        W42431   0.032  15.219   4.087  0.2042 -0.0463  0.3483
99441W        W42432  25.197   5.580  28.722  0.3050  0.2069  0.5557
99442W        W42433  25.114  13.513  14.592  0.1388 -0.0658  0.1464
99443W        W42434  28.024  34.381   4.461 -0.3301  0.1233  0.0033
99444W        W42435  16.068  11.626   1.368  0.0188 -0.1100  0.3496
99445W        W42436   7.187  21.861   4.664 -0.4387  0.0374 -0.0189
99446W        W42437  18.646   0.655   6.590 -0.2830  0.2220 -0.0679
99447W        W42438  34.496  34.216   6.215 -0.3939 -0.0440 -0.3903
99448W        W42439  24.390   3.611   5.768  0.2373  0.0795  0.0405
99449W        W42440  25.367  11.039  27.671  0.1006  0.1065 -0.0097
99450W        W42441  28.407   4.838   1.340  0.0490 -0.2690 -0.2380
99451W        W42442  27.753   4.049   8.988  0.0601  0.2168 -0.2178
99452W        W42443   8.339   1.557  15.760  0.0850 -0.0701 -0.0399
99453W        W42444  17.743   7.780  25.732  0.0281 -0.0539 -0.3142
99454W        W42445   0.917   8.133  22.180 -0.2829  0.0152  0.0547
99455W        W42446  23.817  16.310   3.236  0.1850 -0.0610 -0.1942
99456W        W42447   1.812  31.893   5.861 -0.0476 -0.0508  0.2247
99457W        W42448   5.474  17.826  10.263 -0.0666  0.0887 -0.0569
99458W        W42449  31.827   1.883  28.604  0.0186 -0.0197  0.0838
99459W        W42450  22.752  33.763  14.661  0.1006 -0.0223  0.0409
99460W        W42451  16.453  23.458   3.898  0.1190  0.1891  0.1179
99461W        W42452  31.853  33.642   2.755 -0.4959  0.0140  0.0622
99462W        W42453  17.140  14.260  15.054 -0.1622  0.0518 -0.0939
99463W        W42454   8.570   7.784   6.743  0.1687  0.1208  0.0396
99464W        W42455  13.369  21.550   0.130  0.1118  0.4102  0.0435
99465W        W42456  12.243  26.474  26.066 -0.0602 -0.0634 -0.2843
99466W        W42457  16.540   9.553  27.738  0.3384  0.0214 -0.0980
99467W        W42458  18.711  31.347   5.181  0.0104 -0.3928  0.0433
99468W        W42459  30.765  31.327   4.348  0.0814  0.2063 -0.0288
99469W        W42460   9.305  32.138   5.507 -0.1909  0.0900  0.1401
99470W        W42461  13.164   0.816  26.707 -0.5477  0.1795  0.0429
99471W        W42462  18.454  11.577   1.265 -0.4615  0.1754  0.1142
99472W        W42463  24.234  19.496  20.038 -0.0944  0.1235  0.0234
99473W        W42464   9.242  31.454   6.185  0.1979  0.1616 -0.1697
99474W        W42465   3.271  32.730   3.773 -0.1035  0.0957 -0.0618
99475W        W42466  11.598  18.590   9.609  0.1143 -0.0042 -0.1199
99476W        W42467  16.491  28.500  14.734  0.1617  0.1466 -0.0454
99477W        W42468  14.427  11.181   7.938  0.1284 -0.0654  0.0722
99478W        W42469  14.589  11.799   8.900  0.0246  0.2349  0.2205
99479W        W42470   8.341  25.480   7.141 -0.1261 -0.2068  0.2457
99480W        W42471   6.402  33.409   9.406  0.1820 -0.0092 -0.1242
99481W        W42472   8.191  13.907   5.926 -0.2677  0.0108  0.1252
99482W        W42473  11.156   3.016   2.213  0.1264  0.2246  0.2234
99483W        W42474   3.637   3.775  16.229 -0.4444  0.0320  0.2228
99484W        W42475   5.193  11.951  28.627 -0.1995 -0.3692 -0.2606
99485W        W42476  23.526   6.047   5.798 -0.1658 -0.3806  0.0127
99486W        W42477   1.487   4.986   9.357  0.0014 -0.0877 -0.0315
99487W        W42478   2.428  25.708  24.251  0.3477 -0.3459 -0.3571
99488W        W42479  12.411  13.436   1.207  0.1360  0.0861  0.0514
99489W        W42480  20.424   6.424  27.437  0.0988 -0.0865 -0.1272
99490W        W42481  15.580  13.065   9.762  0.0883  0.1932 -0.1067
99491W        W42482  11.715  13.156   8.650 -0.0242 -0.5469  0.0300
99492W        W42483  15.122  33.691   3.074  0.0535 -0.3364 -0.0979
99493W        W42484  25.117   9.623   3.101 -0.1226  0.1241  0.3242
99494W        W42485   5.863   8.960   4.903  0.0587  0.0899  0.1260
99495W        W42486  17.476   8.391   6.594 -0.1876 -0.4125 -0.2368
99496W        W42487  11.128  18.630   8.104  0.3409 -0.1146 -0.1988
99497W        W42488  16.602  22.614   5.089 -0.0378 -0.2354  0.1270
99498W        W42489   4.160  10.182   3.906  0.1262 -0.2468  0.1254
99499W        W42490  19.314  32.119   4.240  0.1848 -0.4695 -0.2620
99500W        W42491  25.347   5.771   0.916 -0.3266 -0.0109  0.1015
99501W        W42492  23.190   6.009   5.445  0.0038  0.0031  0.3946
99502W        W42493  23.131  10.449  28.348  0.0652  0.2514  0.3578
99503W        W42494  13.351  14.059   8.663 -0.3333 -0.0386 -0.0569
99504W        W42495  19.004  15.285  23.843 -0.0338  0.1835 -0.3008
99505W        W42496  34.648  29.266   7.001  0.3829 -0.0005 -0.3178
99506W        W42497  23.041   0.376  26.865  0.2532  0.1180  0.0055
99507W        W42498  15.148   6.583   5.488  0.0223 -0.2275 -0.2892
99508W        W42499  16.828  11.094   2.663  0.1610 -0.1139  0.2746
99509W        W42500   1.193  16.236  27.353 -0.0642 -0.0819  0.4448
99510W        W42501  16.564  30.329   7.557 -0.0807 -0.0317  0.0246
99511W        W42502   3.442  12.415   3.347  0.1433  0.0016  0.1694
99512W        W42503   5.946   7.900  28.835 -0.2523 -0.1010  0.0781
99513W        W42504   2.577   4.049   7.970 -0.2348  0.1843 -0.1955
99514W        W42505  25.007   4.650  28.553 -0.0924 -0.4924  0.1257
99515W        W42506  27.614  21.730  15.195  0.1310  0.0159 -0.0050
99516W        W42507  11.271   2.114  10.077  0.1119 -0.3704 -0.0512
99517W        W42508  29.408   9.753   9.170 -0.0406  0.1794  0.3182
99518W        W42509   9.852   4.851   9.288  0.3295  0.2641 -0.3324
99519W        W42510  18.438  13.413  13.644  0.0302  0.0292 -0.2030
99520W        W42511  26.061   8.373  19.309  0.0367 -0.0457 -0.2683
99521W        W42512  22.338  30.354   8.988 -0.0895 -0.1301 -0.2160
99522W        W42513  15.459  11.511   0.131  0.2916  0.1157 -0.1711
99523W        W42514   6.381   8.275   5.070  0.2774 -0.0073 -0.1371
99524W        W42515  22.050   2.930   1.196 -0.2070  0.0600 -0.0409
99525W        W42516  23.873  26.627  28.698  0.0459 -0.1107  0.0881
99526W        W42517   2.050  29.334   6.161 -0.3387 -0.2150 -0.0895
99527W        W42518  11.950   3.122  10.664  0.0723  0.1478 -0.2393
99528W        W42519   2.779  26.577  27.261  0.0344  0.1015 -0.2022
99529W        W42520   2.261  13.467  24.217  0.1492 -0.2896 -0.0272
99530W        W42521  22.395  12.027   0.555 -0.3038 -0.0468  0.0029
99531W        W42522  21.306  10.393  26.858 -0.0508  0.3036  0.3713
99532W        W42523  18.626   6.947  22.077  0.1813 -0.2801  0.0367
99533W        W42524  22.306  23.604   7.818 -0.3010  0.0165 -0.0232
99534W        W42525  12.897  12.727  21.578  0.2174 -0.2350 -0.1411
99535W        W42526  29.477  21.170   3.777  0.0589 -0.0229 -0.3039
99536W        W42527  11.061  10.858   1.991  0.1403  0.3571 -0.0174
99537W        W42528  19.170  22.618  18.933 -0.0153 -0.2495  0.2496
99538W        W42529   9.210  34.794  27.734 -0.0416 -0.0067 -0.0053
99539W        W42530  23.836   7.355   4.008 -0.1164 -0.2015  0.3988
99540W        W42531  21.568  29.780   2.478 -0.2125 -0.1672  0.0485
99541W        W42532  32.921   7.274   6.417  0.0814 -0.0348  0.0559
99542W        W42533   8.078  17.426  10.335 -0.0603  0.2793  0.0670
99543W        W42534  15.132   5.253  27.525  0.0624 -0.1167  0.0640
99544W        W42535   8.955   6.762   2.223 -0.0333 -0.4903 -0.1646
99545W        W42536  12.155  31.464   0.915  0.0118 -0.3693 -0.0904
99546W        W42537   8.260  33.614   4.940 -0.1491  0.0569  0.1359
99547W        W42538   9.711  18.218   5.295  0.0576  0.0398 -0.3896
99548W        W42539  20.461  14.248   4.727 -0.0930  0.2741 -0.0973
99549W        W42540  13.150   1.315   4.983 -0.3413  0.1421  0.1185
99550W        W42541  24.028  15.802   8.249  0.0217 -0.0457  0.0125
99551W        W42542  19.752   4.804   1.055  0.1688  0.2168 -0.1427
99552W        W42543   8.559  13.520   1.142 -0.0962  0.0223 -0.0181
99553W        W42544   5.861  12.253   0.387 -0.2077  0.1719 -0.1265
99554W        W42545  18.499  17.375  14.948 -0.1949 -0.0179  0.1951
99555W        W42546   2.962   9.031   0.720 -0.4088  0.0331  0.0459
99556W        W42547   1.935  21.368  22.339  0.0181  0.0172 -0.0590
99557W        W42548   9.508  10.682   3.915  0.0933 -0.0772 -0.1124
99558W        W42549  12.445   4.962  28.366  0.0994  0.0342  0.1315
99559W        W42550   3.220  15.296   8.910 -0.0274 -0.0896  0.1836
99560W        W42551  17.633   9.087  23.193 -0.3816  0.1614  0.1864
99561W        W42552  15.303  33.750   5.895  0.3075  0.0521 -0.0691
99562W        W42553  16.136   7.514   4.652  0.1260  0.1264 -0.0617
99563W        W42554  20.943  30.879   3.850 -0.4426 -0.3262  0.0758
99564W        W42555  34.446  32.283  28.374  0.2916  0.0114  0.0090
99565W        W42556  27.478   6.355   7.308  0.1382  0.1165  0.1648
99566W        W42557  21.341  17.875   1.664 -0.0025 -0.5579 -0.0483
99567W        W42558  22.405  16.209   6.519  0.0921  0.2163  0.3696
99568W        W42559  17.558  18.771  28.797 -0.2143 -0.0711  0.2510
99569W        W42560   9.591   3.385   5.441 -0.0034 -0.0066 -0.2006
99570W        W42561  24.210   0.483   1.384  0.2292 -0.1701  0.3999
99571W        W42562  10.974   4.311  28.817  0.4376 -0.6114  0.2322
99572W        W42563   7.566  27.533   7.260 -0.0003 -0.1497 -0.2786
99573W        W42564  16.620   5.620   7.810 -0.0342  0.1995 -0.1547
99574W        W42565  26.968  13.626   8.320  0.2373  0.3432  0.1464
99575W        W42566  19.657  10.470   5.453  0.2698  0.1790  0.1406
99576W        W42567   7.790   4.335   6.969 -0.0719 -0.3514  0.0007
99577W        W42568  16.296  12.453   6.779  0.2802 -0.3262  0.2617
99578W        W42569  32.413  30.526   2.118 -0.0085  0.1972  0.1827
99579W        W42570  25.476  16.427   4.517 -0.0621 -0.0620  0.3600
99580W        W42571  20.844   8.946   5.761 -0.1341 -0.0503  0.0847
99581W        W42572  15.953  34.466   1.357  0.3063  0.3382 -0.0147
99582W        W42573   3.123   9.121  18.702 -0.1083  0.1194 -0.0219
99583W        W42574  20.101  11.363  28.604  0.0167 -0.1479  0.1047
99584W        W42575  14.255  13.418   8.170 -0.1088  0.2594  0.0359
99585W        W42576  11.954   9.747  22.287  0.0367  0.2956  0.2043
99586W        W42577  26.610  13.990   2.843 -0.0006  0.0102  0.0180
99587W        W42578  16.878  32.486   5.887 -0.4024 -0.2860 -0.2305
99588W        W42579  27.647  30.551   1.680 -0.0301  0.2572 -0.2881
99589W        W42580  16.759  15.010  27.823  0.2317  0.1452 -0.0601
99590W        W42581  33.577  20.372   6.627  0.2074 -0.1143  0.0771
99591W        W42582  34.594  30.656   2.764 -0.0546 -0.0482  0.1574
99592W        W42583  21.016   0.706   3.528  0.2951  0.4381 -0.0737
99593W        W42584  16.444   6.790   9.932 -0.3541 -0.0826  0.4639
99594W        W42585  25.706  16.462   2.467 -0.1621 -0.0854  0.0273
99595W        W42586  18.406   6.113   9.335 -0.0947 -0.1744  0.2302
99596W        W42587  15.391   9.076   5.743 -0.1519  0.2580 -0.1635
99597W        W42588   7.380  10.220   3.794 -0.0564 -0.1945  0.0010
99598W        W42589   6.007  11.205   3.752  0.0190 -0.1470  0.1115
99599W        W42590  17.999   4.438   9.883  0.0327  0.4429 -0.1445
99600W        W42591   0.774   3.661   3.508 -0.1396 -0.1667  0.1282
99601W        W42592  18.664   0.121  27.425 -0.1486  0.0024  0.0903
99602W        W42593  15.096   7.568   3.550 -0.1213 -0.2700  0.0609
99603W        W42594  18.578  15.371   0.342  0.2944 -0.0778  0.0926
99604W        W42595  22.621  24.342   7.846  0.3196  0.1680 -0.1181
99605W        W42596  13.044  12.313   5.834  0.1262 -0.2390 -0.0253
99606W        W42597  10.967  11.518   2.537 -0.3858  0.0455  0.3281
99607W        W42598  18.496  14.376   5.959 -0.0922  0.3542  0.0017
99608W        W42599  16.855   9.974   7.189  0.3235 -0.0263 -0.0643
99609W        W42600  11.245  30.957   5.432  0.1206  0.0092  0.1409
99610W        W42601  17.944   9.636  26.843  0.1003 -0.2716 -0.0915
99611W        W42602  15.163  14.338   6.814 -0.0776  0.1994  0.2682
99612W        W42603  14.542  10.756   9.067  0.0995 -0.1809 -0.2956
99613W        W42604  13.314  21.973   5.131 -0.0122 -0.0387 -0.1238
99614W        W42605   9.406   1.496  23.074 -0.3479  0.1729  0.0752
99615W        W42606  20.363   9.925   5.979 -0.1706  0.3733 -0.0343
99616W        W42607  29.428  32.263   5.124 -0.0511 -0.3082  0.1756
99617W        W42608   4.090   2.706  28.438  0.1314 -0.2091  0.2054
99618W        W42609   9.432  25.268   3.280 -0.1309  0.4773  0.0339
99619W        W42610  16.757   3.476   7.454 -0.2536  0.0272 -0.1548
99620W        W42611  27.400   7.879  25.803  0.0068 -0.0130 -0.2300
99621W        W42612  15.780   7.975  26.146  0.6035  0.1062  0.2292
99622W        W42613  24.551  25.739  29.198 -0.2905 -0.1320 -0.0750
99623W        W42614  13.591  16.489   2.794 -0.1039  0.2053 -0.4621
99624W        W42615  33.726  14.641   7.060 -0.0067  0.0668 -0.3736
99625W        W42616  15.786  31.343   4.903  0.0197  0.0370 -0.0609
99626W        W42617  15.205   3.291   9.184  0.3942 -0.0591 -0.1445
99627W        W42618   7.548  29.269   7.592  0.1698  0.1268 -0.0775
99628W        W42619  11.859  21.082  26.727 -0.1909 -0.0231  0.2857
99629W        W42620  32.567  31.665   8.026 -0.3288  0.2922  0.1560
99630W        W42621  15.745  19.439   0.811  0.2206  0.0498 -0.1544
99631W        W42622  20.926   0.626   2.967 -0.0621 -0.0056  0.1417
99632W        W42623   0.810  11.913  10.292 -0.3384  0.0607 -0.1174
99633W        W42624  30.049  23.892  28.426 -0.1761  0.2416  0.1532
99634W        W42625   7.591   2.608   7.324  0.2455  0.1102  0.2984
99635W        W42626  22.859  31.621  25.362 -0.0591 -0.2937  0.0648
99636W        W42627  22.556   5.300  10.392  0.2380  0.1663 -0.0918
99637W        W42628   8.877   8.430   1.598 -0.1943 -0.2726 -0.1610
99638W        W42629  25.953  17.469   8.357  0.1083 -0.0948  0.0716
99639W        W42630  22.020  22.280   5.578 -0.0597  0.1010 -0.1327
99640W        W42631  25.733  23.174  20.908 -0.3456  0.0065 -0.2369
99641W        W42632  17.333  23.271   4.129  0.0313  0.3526 -0.4272
99642W        W42633  21.649   6.348  29.055  0.1064  0.0471  0.1599
99643W        W42634  21.354  20.482   0.703  0.3288  0.0548  0.2189
99644W        W42635  14.897  22.444   3.672 -0.4551  0.0485  0.0863
99645W        W42636  19.511  18.211   0.220 -0.1656  0.1506  0.0503
99646W        W42637  30.577  15.026   9.824 -0.0759  0.0249 -0.1829
99647W        W42638   6.918  18.259   6.040 -0.1864 -0.2558 -0.0575
99648W        W42639  10.005  11.413  10.074  0.2025 -0.0897  0.1412
99649W        W42640  10.462  34.196  24.457 -0.0915  0.0773  0.2417
99650W        W42641  34.524  15.091  10.800 -0.0759  0.0034  0.0298
99651W        W42642   1.844  29.802   6.104 -0.1754 -0.0460 -0.2428
99652W        W42643  24.264  13.408  25.100  0.0500  0.1246 -0.1130
99653W        W42644  14.424  32.554   0.174  0.6677  0.0284 -0.1206
99654W        W42645   8.721  29.531  19.223 -0.4162  0.1730  0.2665
99655W        W42646   5.665  32.803  28.904 -0.2159  0.0326  0.2764
99656W        W42647   2.904   2.027   2.418 -0.0606 -0.0005  0.2223
99657W        W42648  11.208  27.616  25.503 -0.0792 -0.1539  0.0646
99658W        W42649   4.327  25.764  22.479 -0.1728  0.1379  0.0207
99659W        W42650  18.581  12.772   3.429  0.2650  0.0915  0.0070
99660W        W42651  18.122   4.928  28.787 -0.0021  0.3369  0.1239
99661W        W42652  28.541  32.747   1.116 -0.1495  0.1177 -0.2854
99662W        W42653  26.479   1.061   7.927 -0.2498 -0.1823  0.1229
99663W        W42654  11.415  14.103  22.881  0.4627 -0.0583 -0.1827
99664W        W42655  19.738  25.060  26.402 -0.2569 -0.1542 -0.0749
99665W        W42656   4.872  10.944   8.171 -0.0420  0.0143 -0.0459
99666W        W42657   3.966  18.184   8.674  0.4237  0.1888  0.1940
99667W        W42658  14.979  33.828  26.158 -0.0783  0.0872 -0.2581
99668W        W42659  11.506   3.505  20.267 -0.2636 -0.3298 -0.0380
99669W        W42660   9.552  34.330   9.412 -0.2989 -0.2855 -0.0279
99670W        W42661   4.438   7.584  26.447  0.0762 -0.2733 -0.0786
99671W        W42662   6.131  27.507   5.442 -0.0681  0.1091 -0.0802
99672W        W42663  15.383  14.257   8.033 -0.0229 -0.0694 -0.0427
99673W        W42664  21.093   8.683   3.671 -0.0659 -0.0496  0.1006
99674W        W42665  25.306   6.571   4.779  0.0854 -0.4746  0.3119
99675W        W42666  18.567  33.889  23.122 -0.2807 -0.1740  0.2297
99676W        W42667  20.427  27.608   6.015 -0.0380 -0.1070  0.0511
99677W        W42668  10.167  15.407   2.775 -0.0898  0.1207 -0.2276
99678W        W42669  24.448  29.016   4.289  0.1228 -0.0192  0.1003
99679W        W42670   7.462  10.234   2.970  0.1110  0.0005 -0.1805
99680W        W42671  17.783   7.661  27.466 -0.3135 -0.1353  0.3544
99681W        W42672  28.070  13.581  24.574 -0.2914  0.1301  0.3587
99682W        W42673  15.426  13.151  21.984  0.0699  0.0436  0.1026
99683W        W42674  22.088  10.379   8.686  0.1332 -0.0421  0.2676
99684W        W42675  13.651   7.103   7.579  0.0968  0.1677 -0.0096
99685W        W42676  18.394  16.858  23.477 -0.0776 -0.3016  0.1711
99686W        W42677  23.980  10.533  25.339  0.3413  0.1327  0.1593
99687W        W42678  23.479  28.010   8.425  0.1374 -0.0899  0.0657
99688W        W42679   5.148  28.821  24.787 -0.1736 -0.1082  0.1022
99689W        W42680  21.188   5.899   8.946  0.4226 -0.0590  0.0538
99690W        W42681   6.002   9.810   7.928 -0.3418  0.1181  0.0130
99691W        W42682  18.473   4.878  17.345 -0.1382  0.4819  0.0268
99692W        W42683  23.912   8.956  28.189 -0.1402 -0.2225 -0.2832
99693W        W42684  18.632   5.926  24.524  0.0011 -0.1115  0.0792
99694W        W42685  10.275   5.108   7.818 -0.0107 -0.0791 -0.0532
99695W        W42686  22.942  32.341  14.676 -0.0959 -0.0395 -0.2729
99696W        W42687  16.196   6.747   0.856  0.1139 -0.1158  0.0414
99697W        W42688  17.290  34.692  27.321  0.2995  0.2082  0.1299
99698W        W42689  17.394   2.607  25.208  0.1203 -0.0133 -0.0698
99699W        W42690  23.892  16.550  28.915  0.0493 -0.2451  0.2042
99700W        W42691   9.144   0.110  28.236  0.1093 -0.0504 -0.0317
99701W        W42692  23.070  33.532   5.562 -0.0780  0.0859  0.1562
99702W        W42693  13.958   2.802  17.985 -0.1630 -0.1324  0.0421
99703W        W42694  18.491  18.233  22.505  0.0843  0.0497 -0.2172
99704W        W42695  17.711  24.018   7.625 -0.0619 -0.2498  0.1998
99705W        W42696  15.347  21.080   4.355 -0.0193  0.2550 -0.2059
99706W        W42697   7.801  12.669   6.281 -0.2969  0.5947 -0.1063
99707W        W42698  21.957  13.026   5.110 -0.1367 -0.0367  0.1961
99708W        W42699  14.400   8.879   3.948  0.1117  0.1469 -0.0793
99709W        W42700  19.330  20.222   6.903 -0.4600  0.1464 -0.0290
99710W        W42701  11.947  33.159  28.847 -0.0699  0.0932 -0.0794
99711W        W42702  21.235  17.240  28.210  0.0686 -0.2637  0.0576
99712W        W42703   9.726  25.706  18.015  0.0020  0.0045  0.1488
99713W        W42704  16.826  26.323   6.961 -0.2335 -0.0633  0.1610
99714W        W42705  24.303   9.077   5.946  0.0945 -0.2733 -0.2140
99715W        W42706  17.636  29.011   1.798  0.1001 -0.1047 -0.0222
99716W        W42707  16.786   2.673   2.338  0.4611 -0.1297  0.1983
99717W        W42708   5.776  33.452  23.380 -0.1404  0.0694 -0.1486
99718W        W42709  21.368  23.168  26.541  0.1728  0.0620 -0.0279
99719W        W42710   7.819   5.758  27.632  0.0228 -0.0214  0.1061
99720W        W42711   3.183   7.643  10.336 -0.0338 -0.0736 -0.0314
99721W        W42712  30.905  33.867   4.062  0.1501  0.0018 -0.0284
99722W        W42713   7.377   7.212  23.976 -0.2443  0.1514  0.1866
99723W        W42714  20.832   6.203  21.114  0.3276  0.1093  0.1221
99724W        W42715  18.940  12.439   0.316  0.0802  0.1104 -0.1704
99725W        W42716  15.489   5.276  28.669 -0.1913 -0.0409 -0.5244
99726W        W42717  20.797  12.737   9.309  0.0330 -0.1451  0.2543
99727W        W42718  22.847   7.853   9.384 -0.2060  0.2033  0.2953
99728W        W42719  18.505  33.391  22.103  0.1003 -0.2513  0.0434
99729W        W42720  15.240  12.391   8.539  0.4159 -0.3113 -0.1209
99730W        W42721  29.596  30.972   5.798  0.0423 -0.2412 -0.0680
99731W        W42722  27.374   7.482   7.354  0.0137  0.0941 -0.0803
99732W        W42723  20.308   4.805  25.512 -0.0827  0.2203 -0.1344
99733W        W42724  18.699  13.447  20.911 -0.0392  0.3389 -0.2640
99734W        W42725  23.359  23.099   3.051 -0.4861 -0.4255  0.1960
99735W        W42726   5.808  28.999   1.526  0.2122  0.2472 -0.0947
99736W        W42727  16.051   4.743  10.440  0.1431  0.2872  0.0812
99737W        W42728  13.841   8.045   7.896  0.0950 -0.1624 -0.1831
99738W        W42729  25.997  13.291   0.674  0.0873 -0.0935  0.1408
99739W        W42730  20.055   0.534   3.646 -0.0214  0.0964 -0.0300
99740W        W42731  13.308  11.686  10.233  0.1087 -0.1263 -0.2693
99741W        W42732  13.599  34.770   2.666  0.1773 -0.1688 -0.0597
99742W        W42733  19.965  11.180   7.860 -0.0747  0.0712 -0.2472
99743W        W42734   3.747   9.570  22.975  0.0319  0.0911  0.0630
99744W        W42735   8.032  34.410   7.432  0.1060 -0.0759  0.1909
99745W        W42736   3.741  21.404  10.704 -0.1819 -0.1194 -0.3418
99746W        W42737  26.715  27.351  24.733  0.3406 -0.0470  0.0563
99747W        W42738  11.747  29.482   8.450  0.5568 -0.3490 -0.0605
99748W        W42739  18.838  10.383  29.248  0.0128 -0.0209  0.0554
99749W        W42740  24.582   7.080   0.253 -0.3297  0.2028 -0.1107
99750W        W42741   7.252  27.247   4.943 -0.2164  0.0118  0.1024
99751W        W42742  23.263   3.259   8.983  0.0088 -0.1951  0.1290
99752W        W42743   1.849  18.750   0.570 -0.3679 -0.1982 -0.1098
99753W        W42744   7.977  14.983   9.129  0.2159 -0.1619  0.1684
99754W        W42745  22.166   8.120  10.435  0.0031  0.1820  0.0994
99755W        W42746   1.399   8.581   9.949  0.2540  0.2884 -0.1074
99756W        W42747  20.369   7.672  27.935  0.0795  0.2400  0.0141
99757W        W42748  10.004   8.742   6.728 -0.0018 -0.0424  0.2157
99758W        W42749  19.480   2.890  10.385  0.0263 -0.1417  0.2110
99759W        W42750   3.795   0.323   7.146 -0.1475 -0.1636  0.1507
99760W        W42751   9.739  24.679  26.677  0.0977  0.3264 -0.0558
99761W        W42752  26.027  15.712   5.467 -0.0951 -0.0987 -0.2584
99762W        W42753  11.221  20.334  15.824 -0.4190 -0.0717 -0.0019
99763W        W42754  14.995  21.944   3.606 -0.0166 -0.1160 -0.2268
99764W        W42755   9.017   7.572   6.579  0.2843 -0.3141  0.1949
99765W        W42756   9.851  10.771  16.857 -0.4866  0.0908 -0.0931
99766W        W42757  10.656  15.976   6.273  0.1197  0.1109 -0.2407
99767W        W42758  22.568  29.900  27.513  0.1645 -0.1357 -0.2251
99768W        W42759  14.352  28.733   3.819  0.0045  0.2683 -0.0552
99769W        W42760   3.793  13.703   2.389  0.1977 -0.1333  0.1015
99770W        W42761   2.884  17.318   3.835 -0.0570 -0.0058 -0.0891
99771W        W42762  22.646  18.270   0.215 -0.5504  0.4306 -0.1018
99772W        W42763   5.335  23.809   9.100  0.1204 -0.4188  0.0605
99773W        W42764   4.567  27.711   5.147 -0.0380 -0.1419  0.2562
99774W        W42765  24.214  24.203   6.842  0.3973 -0.2005 -0.1850
99775W        W42766  14.403  23.457   1.333  0.2057  0.2290  0.0853
99776W        W42767  21.232  14.419  27.419  0.0668  0.0367 -0.2114
99777W        W42768  14.795  23.715   2.691  0.2617  0.0396  0.0732
99778W        W42769  17.367  21.891   8.511  0.0749  0.0558  0.3952
99779W        W42770  20.639   8.648   3.595  0.1620  0.0358 -0.1625
99780W        W42771  19.513  34.731  25.973 -0.1284 -0.1628  0.1731
99781W        W42772  27.004  30.086   8.109 -0.0767 -0.1419 -0.3051
99782W        W42773  16.300  29.895  26.930 -0.0149 -0.0506  0.2795
99783W        W42774  23.995   8.262   3.113  0.0525  0.0878  0.0464
99784W        W42775  23.331  24.685  16.548 -0.0998  0.1878 -0.2563
99785W        W42776  11.359  32.958  23.227  0.1130  0.0046  0.1073
99786W        W42777  22.854  30.934   4.550  0.0180  0.1782 -0.0480
99787W        W42778  26.054  21.685   5.522  0.1500 -0.2228 -0.2288
99788W        W42779   8.034  13.224   6.651  0.1594  0.3050  0.6652
99789W        W42780  20.593  28.754  25.595  0.1267 -0.0233  0.2375
99790W        W42781  33.713  32.883   4.556 -0.0226 -0.1298  0.0070
99791W        W42782  19.521  18.212  24.479 -0.0190 -0.1460 -0.1628
99792W        W42783  27.408  13.719   8.549 -0.1098 -0.4428 -0.0254
99793W        W42784   1.034  27.302  28.730  0.0046 -0.0468 -0.1089
99794W        W42785  20.328  20.275  21.451  0.0384  0.1285  0.1671
99795W        W42786  27.162   4.450   2.320  0.0768 -0.3786  0.2202
99796W        W42787  11.654  10.609   6.419  0.0004 -0.3008 -0.1405
99797W        W42788  23.360  11.511   7.724  0.0231  0.2367  0.2130
99798W        W42789  34.631   1.046  21.467  0.2296 -0.3667 -0.2474
99799W        W42790  16.261  28.656  27.216 -0.0394 -0.0594 -0.0827
99800W        W42791  34.051  15.697   5.346 -0.2210 -0.1633 -0.1677
99801W        W42792  29.685   3.347   5.320  0.0074  0.0934  0.0344
99802W        W42793  12.452   5.363   4.761 -0.0416  0.1036  0.0445
99803W        W42794   9.911   8.814   8.402 -0.0793 -0.1129 -0.0744
99804W        W42795   7.427  28.027   4.070 -0.1697 -0.0671 -0.3612
99805W        W42796  22.805  27.686  17.699  0.1917 -0.0227  0.2188
99806W        W42797  20.561   1.917   4.616  0.1383  0.0509  0.1328
99807W        W42798  18.255  33.129   4.266  0.0607 -0.3534  0.1846
99808W        W42799  26.152   8.864   6.885  0.6765  0.1543 -0.0256
99809W        W42800  13.440  28.768   6.947 -0.0637  0.2535 -0.1823
99810W        W42801  15.755   7.011  25.939 -0.0472  0.0225  0.3711
99811W        W42802  24.876  31.574  26.230  0.0488 -0.3450  0.1693
99812W        W42803  14.135  10.109   4.237 -0.0784  0.0333 -0.2271
99813W        W42804  15.246   0.412  14.690  0.0527 -0.0314 -0.1101
99814W        W42805  15.334  24.437  23.945 -0.1158  0.0027  0.4216
99815W        W42806  24.873  27.511   8.479 -0.0376 -0.1330 -0.4367
99816W        W42807   2.881   8.355   6.210  0.0822 -0.1063 -0.2282
99817W        W42808   5.876   3.838  26.263 -0.0938 -0.0700 -0.2034
99818W        W42809  17.084  22.029   3.243 -0.3173 -0.3900  0.0509
99819W        W42810  23.162   8.708  14.589 -0.1091 -0.1562 -0.1617
99820W        W42811  12.259  19.487   3.152 -0.1798  0.0149  0.0266
99821W        W42812  18.763  13.218  28.808 -0.0424  0.0720 -0.0519
99822W        W42813   5.729  23.119   4.806  0.1229 -0.1361  0.1391
99823W        W42814  18.506   5.452  24.281  0.2834  0.3208  0.0687
99824W        W42815  24.060   7.063   5.123 -0.2410 -0.0599  0.0900
99825W        W42816  26.992   5.314  27.471 -0.1944 -0.2159  0.0395
99826W        W42817  23.758  11.426   1.577 -0.1971 -0.1829 -0.0475
99827W        W42818  21.172  11.598   9.113 -0.0960 -0.0473  0.1152
99828W        W42819  12.865   6.851   4.756 -0.0811  0.2309  0.2334
99829W        W42820  13.284  12.122   8.920  0.0994 -0.1952  0.1001
99830W        W42821   0.268  10.334   9.502 -0.0732 -0.2406  0.0033
99831W        W42822  18.999  32.363   5.054  0.0007 -0.2280  0.0869
99832W        W42823  30.936  33.082  24.084 -0.2826 -0.0634 -0.1115
99833W        W42824  14.293   8.133   7.008  0.3322  0.0886  0.0028
99834W        W42825   5.740   5.493  20.677  0.0806  0.4142 -0.1457
99835W        W42826  28.664  13.148   7.430  0.2340  0.2240 -0.1556
99836W        W42827  16.598  12.179  29.016 -0.0084 -0.0468  0.3350
99837W        W42828  18.435  13.532   5.147  0.2643 -0.1312  0.2812
99838W        W42829  17.372  25.475  24.762  0.1381 -0.0583 -0.0144
99839W        W42830  18.029  13.912  19.758 -0.0565  0.0392 -0.3129
99840W        W42831  14.255   4.028   2.466  0.0748 -0.0540 -0.4123
99841W        W42832   5.544  18.689   1.964  0.0403  0.2682  0.2855
99842W        W42833  18.516   2.079   0.950 -0.2413  0.0038 -0.2131
99843W        W42834  23.713  18.472   2.495  0.2035 -0.2122  0.1847
99844W        W42835  20.482   8.229   1.351 -0.2039 -0.4576 -0.4154
99845W        W42836  19.651   0.779   3.533 -0.0521  0.2838  0.0002
99846W        W42837  14.385   7.910  26.758 -0.1765 -0.0063 -0.1593
99847W        W42838  13.863   0.281   6.673 -0.1993  0.1209 -0.0310
99848W        W42839  27.889  20.886   2.863  0.1215  0.0279 -0.0363
99849W        W42840   2.803  11.784   2.287  0.0001 -0.0495 -0.0620
99850W        W42841   8.721   2.380   4.619  0.1311  0.1161 -0.0975
99851W        W42842  15.450  24.115   6.986 -0.0288 -0.2615  0.0743
99852W        W42843  26.169  11.481  20.164  0.1691 -0.0877  0.1443
99853W        W42844  31.203   4.534   2.539 -0.1080  0.0715  0.1421
99854W        W42845  17.396   5.247   7.936 -0.0809 -0.2088 -0.1167
99855W        W42846   5.925  11.050   4.636 -0.0594 -0.0001 -0.0561
99856W        W42847  17.011   6.524   7.881 -0.2377  0.1023 -0.0948
99857W        W42848  26.016  10.636   4.498  0.3443 -0.1337 -0.2743
99858W        W42849  13.324   4.997   6.575  0.3974 -0.0376  0.3532
99859W        W42850  13.453  13.581   5.225 -0.2639  0.2508 -0.0387
99860W        W42851  16.630  30.413   6.130  0.0335 -0.1229  0.2447
99861W        W42852   1.142   8.090   9.857  0.0161 -0.1736 -0.1342
99862W        W42853  19.049   6.847   4.426  0.1412  0.1678 -0.1163
99863W        W42854   6.357   3.028  29.229  0.1276 -0.0546 -0.0976
99864W        W42855  17.526   6.019   8.803 -0.1717  0.0113 -0.0363
99865W        W42856  18.415  12.046   7.448 -0.1264 -0.1113 -0.0238
99866W        W42857  28.728  22.582   2.907  0.2408  0.1158 -0.0540
99867W        W42858   9.100  12.448   4.448 -0.0185 -0.2360 -0.1965
99868W        W42859  13.732  32.849   1.522 -0.3878  0.2920  0.0601
99869W        W42860  18.859  14.359   3.744 -0.1478 -0.2311 -0.1325
99870W        W42861  23.505  11.544   8.217  0.4605 -0.0051  0.3564
99871W        W42862  16.675  12.364   3.793  0.0540 -0.2053 -0.1186
99872W        W42863  12.604  32.448   6.196 -0.0550  0.4408 -0.0395
99873W        W42864  17.773  11.753   1.756 -0.0480  0.1174  0.3650
99874W        W42865  18.548  20.813  22.169  0.0009 -0.0004  0.1397
99875W        W42866  12.980  11.229   8.528  0.0336  0.1366 -0.1478
99876W        W42867  14.914   5.458   5.321  0.1422  0.2577 -0.1311
99877W        W42868  22.497  15.173  27.097 -0.2690  0.1230 -0.1326
99878W        W42869  11.917   7.196   7.843 -0.1971  0.0570  0.0820
99879W        W42870   7.417   9.187   8.080  0.0158 -0.2430 -0.0289
99880W        W42871  11.042   5.460   0.656 -0.2738 -0.1607 -0.2238
99881W        W42872  10.419   7.317  28.561 -0.1756 -0.3374 -0.1310
99882W        W42873   5.073   2.635   3.906  0.0851  0.0143  0.2052
99883W        W42874  14.272  14.745  27.106 -0.1885  0.0202 -0.1928
99884W        W42875  18.135  13.833   4.699 -0.0607 -0.0763  0.1377
99885W        W42876   2.567  32.407   9.050  0.0329 -0.1526 -0.0197
99886W        W42877   6.984  28.308  10.074  0.1032 -0.1566  0.1299
99887W        W42878  21.355   2.603  28.361 -0.0981  0.4938 -0.3102
99888W        W42879  14.029   9.121  10.217  0.4800 -0.1751  0.0075
99889W        W42880  14.835   2.022  16.630  0.1408  0.0575 -0.1889
99890W        W42881  14.093  11.629  26.167 -0.2333 -0.2657  0.1529
99891W        W42882  19.584   1.889   5.415  0.1035  0.1180  0.2285
99892W        W42883  30.805  15.016   6.322 -0.2176  0.1388  0.1595
99893W        W42884  28.158  18.750  10.158 -0.0242  0.4406  0.0715
99894W        W42885  21.209  12.403   8.522  0.1459 -0.2352 -0.0850
99895W        W42886  15.805   3.037   0.427  0.2126 -0.0179  0.1262
99896W        W42887   5.461  31.933   5.921  0.0453 -0.0980 -0.3189
99897W        W42888  19.698   3.374   1.782 -0.2314  0.1903  0.1374
99898W        W42889  33.131  16.326   6.450  0.1439  0.1932  0.0276
99899W        W42890  26.575   0.011  19.218 -0.3332 -0.0140  0.0703
99900W        W42891  25.939  17.661   9.358 -0.1571  0.0318  0.2488
99901W        W42892  12.513  24.326  25.231  0.1956  0.0697  0.1149
99902W        W42893  18.899  29.854   6.416  0.2387 -0.0506  0.1405
99903W        W42894  11.822  14.685  24.374 -0.0188 -0.3988  0.1307
99904W        W42895   9.110  26.220   7.001 -0.2414 -0.0711 -0.0027
99905W        W42896  12.171  14.018   7.974  0.0617  0.1630 -0.0055
99906W        W42897  25.900  30.837   7.459  0.3088 -0.2652  0.2785
99907W        W42898   2.268  10.439  11.109 -0.0420  0.0402  0.0901
99908W        W42899  11.618  21.466   4.441 -0.1475 -0.1869  0.0691
99909W        W42900   4.388   1.538   7.040  0.0685  0.1199  0.0474
99910W        W42901  26.712  14.353   4.893 -0.3597  0.1608 -0.0053
99911W        W42902  11.607  12.907   9.936  0.3025  0.1744  0.0771
99912W        W42903  10.958  17.015   5.485 -0.0556  0.0950 -0.0613
99913W        W42904  29.985   0.306   3.715 -0.0380  0.0672  0.1316
99914W        W42905  24.083  31.703   4.602  0.3636  0.2671 -0.1785
99915W        W42906  25.805  14.216  22.899 -0.0888 -0.1590 -0.2847
99916W        W42907  18.884   4.414   4.453 -0.4666  0.2682 -0.0476
99917W        W42908   6.745  11.978   9.786 -0.0455  0.0004 -0.0210
99918W        W42909  15.788  31.595   7.873 -0.4139 -0.1694 -0.2639
99919W        W42910   5.373   2.812   7.672  0.0556 -0.1202  0.3951
99920W        W42911   1.437  10.144  22.718  0.3175 -0.3002 -0.1539
99921W        W42912  17.773  26.502   6.449  0.0234 -0.0920 -0.0689
99922W        W42913   4.139  15.003  10.500  0.0640 -0.0662 -0.1327
99923W        W42914  18.289  33.762  24.809 -0.0596 -0.3184 -0.0006
99924W        W42915  20.957  34.522   5.894  0.1310  0.2073  0.1299
99925W        W42916  26.920  32.110   2.929 -0.0020 -0.2761 -0.3456
99926W        W42917   7.822   9.502  23.199 -0.1169 -0.1646 -0.2897
99927W        W42918  32.904  17.773   8.186 -0.0019  0.3080 -0.1719
99928W        W42919   6.504  17.519   7.215 -0.1163 -0.1364  0.0585
99929W        W42920  29.934  27.888   3.895  0.0353  0.0072  0.1807
99930W        W42921  29.257   3.497   5.505  0.2629  0.0630  0.0473
99931W        W42922   8.190  24.934   7.030  0.2334 -0.1063  0.0276
99932W        W42923  11.195  12.337  10.088  0.0528 -0.1681  0.1179
99933W        W42924   4.571   7.954   3.873 -0.0417  0.4111  0.1043
99934W        W42925  16.060  10.066   2.319  0.5285 -0.1912 -0.1955
99935W        W42926  18.329  27.381   6.177 -0.1560 -0.1677  0.0680
99936W        W42927   9.742  18.884  28.445 -0.1161  0.3447 -0.1163
99937W        W42928  21.020  27.790   5.956 -0.0285 -0.0764  0.0249
99938W        W42929  15.378   5.781   1.510 -0.0176 -0.2683  0.0552
99939W        W42930  21.715  10.229   4.853  0.1060  0.1433  0.2725
99940W        W42931  16.611   4.911  26.699 -0.1621  0.0336  0.1417
99941W        W42932  14.294  33.276   9.457  0.2509 -0.2166  0.1340
99942W        W42933  22.680  28.766   1.184  0.1405  0.0263  0.1414
99943W        W42934  19.513   1.062   0.094  0.0799 -0.0939 -0.0287
99944W        W42935  27.537  10.066  21.192  0.2452 -0.0126  0.1111
99945W        W42936  11.796   0.988   2.397  0.3304  0.1680 -0.2930
99946W        W42937  34.470   8.588  28.509  0.0395 -0.0434  0.1777
99947W        W42938  13.768   3.219   6.737  0.3492 -0.0289  0.1134
99948W        W42939  11.761  21.260  26.230  0.1311  0.2814 -0.0451
99949W        W42940  34.502   3.204   8.810 -0.0399  0.0535 -0.0562
99950W        W42941  10.134  19.367   8.607  0.1357 -0.1164 -0.1814
99951W        W42942  10.039  32.046   5.877  0.0540 -0.0782 -0.0683
99952W        W42943  17.379  16.984  28.946 -0.1413 -0.1675  0.0897
99953W        W42944   6.345  26.054  20.691 -0.1617  0.0399  0.2473
99954W        W42945   3.724   8.524  28.523  0.3247  0.0873 -0.3318
99955W        W42946  25.543   3.896   5.077 -0.4568  0.2394 -0.1443
99956W        W42947   8.549   0.200   5.482 -0.2445  0.3445  0.1000
99957W        W42948  18.872  15.815   8.171 -0.1278 -0.0912  0.0583
99958W        W42949  23.577  19.611  21.834 -0.1023  0.3950  0.3047
99959W        W42950  11.651  27.252   8.071  0.0643  0.0864  0.1672
99960W        W42951  24.220  11.335   2.408  0.1922 -0.1732  0.1026
99961W        W42952  34.612  16.218   6.602 -0.3067  0.2304 -0.3035
99962W        W42953  14.627  14.032   4.103  0.2897  0.2196 -0.0899
99963W        W42954   7.775  15.494  11.230 -0.0507  0.1144  0.3163
99964W        W42955   4.346  34.649   4.189  0.3319 -0.2312  0.1162
99965W        W42956  11.390  10.754   3.250 -0.2643 -0.2517  0.0878
99966W        W42957  14.266  10.809  26.706  0.2792  0.3422 -0.0266
99967W        W42958   5.626  15.134  21.983 -0.0919 -0.0101  0.2406
99968W        W42959  14.944  27.439   2.370  0.4088 -0.1978  0.1328
99969W        W42960  15.008   5.963   0.462  0.0811  0.2728  0.1292
99970W        W42961  17.570  11.636   1.328 -0.0311  0.1182  0.0476
99971W        W42962  14.395  12.500   8.123  0.0803  0.0030 -0.0875
99972W        W42963  29.011  29.079   7.241 -0.1668 -0.0372 -0.1779
99973W        W42964  18.934   0.580   8.596  0.0142 -0.2203  0.2289
99974W        W42965  13.043  34.092   7.862  0.4117  0.0507  0.1513
99975W        W42966  22.641  10.685   7.300  0.0850  0.0952  0.0964
99976W        W42967  28.076  16.063  10.026 -0.0831  0.1885  0.3193
99977W        W42968  18.437   4.972  25.823  0.2696 -0.1480  0.2992
99978W        W42969   8.614  25.934   8.844 -0.0034  0.0972 -0.0284
99979W        W42970  25.675   0.126   2.977  0.5025 -0.2778 -0.1230
99980W        W42971  14.338   1.412   8.293 -0.3440  0.0036  0.0213
99981W        W42972  12.992  21.546   9.189 -0.2222 -0.1463  0.0025
99982W        W42973  22.715  16.337   5.502  0.0272  0.0787  0.0905
99983W        W42974  14.065   2.694   8.065 -0.1948  0.0653  0.2791
99984W        W42975  26.494  28.516   0.861 -0.1348 -0.1936  0.2668
99985W        W42976  25.709  33.091  29.112  0.4520 -0.0589  0.1366
99986W        W42977  29.331  15.821  10.816 -0.2684  0.0312  0.0089
99987W        W42978   5.622  10.935  24.269  0.2604 -0.1577 -0.0538
99988W        W42979  25.999   8.252  22.838  0.0609 -0.0741  0.1734
99989W        W42980  19.709  17.071   7.587  0.1403  0.0877  0.1299
99990W        W42981  19.296  25.454   3.573 -0.0020  0.0608  0.1823
99991W        W42982  25.985   1.733  27.037  0.1017 -0.1416  0.3342
99992W        W42983  16.492  18.204  13.378  0.2116  0.1728  0.2142
99993W        W42984  19.437  28.573  28.827 -0.2817  0.0108 -0.3232
99994W        W42985  19.348   7.956   4.744  0.1045  0.1325 -0.0912
99995W        W42986  15.170  10.467   9.625 -0.4465  0.0329 -0.1699
99996W        W42987  11.974  12.399  23.782  0.1832  0.1892 -0.0446
99997W        W42988   9.088  26.193   8.500 -0.1636 -0.1433 -0.2263
99998W        W42989  11.585   0.516   4.701 -0.0010 -0.0927 -0.2485
99999W        W42990  18.569  29.244   6.622  0.1531 -0.3512  0.1653
    0W        W42991  29.054  29.970   1.212 -0.1748 -0.3603  0.0460
    1W        W42992   3.768  33.450   2.870  0.0854 -0.1650  0.0425
    2W        W42993  17.165  19.914   2.870  0.2140 -0.4153  0.2168
    3W        W42994  26.510  25.416   8.263 -0.0904  0.4007  0.1712
    4W        W42995  21.305  12.063   9.985 -0.0819 -0.1014  0.3235
    5W        W42996  16.450  21.853   1.858 -0.0135 -0.1947 -0.3951
    6W        W42997  22.043  18.890   1.954  0.1868  0.0672 -0.1708
    7W        W42998   3.879  29.508   5.081 -0.0599  0.2529  0.0925
    8W        W42999   8.400  11.755  10.426  0.2129  0.0038 -0.0257
    9W        W43000  13.602   3.590   7.160  0.2043 -0.1430  0.2054
   10W        W43001  20.812  11.195   2.769 -0.1426 -0.0658 -0.2007
   11W        W43002   8.414   0.321   8.543 -0.0499  0.0834 -0.2937
   12W        W43003  19.857   5.098   9.205  0.1094  0.0585  0.2010
   13W        W43004  21.033   8.709  26.502  0.1835 -0.1073 -0.1213
   14W        W43005  14.602  24.620   9.304  0.0114  0.1604 -0.0410
   15W        W43006  14.873   9.644   7.793  0.6415  0.0865  0.2394
   16W        W43007  19.776  30.448  28.239 -0.2296 -0.1337  0.0211
   17W        W43008  13.200  15.998   6.844 -0.1375  0.0647  0.1773
   18W        W43009  15.719   0.796  28.711  0.2973  0.1252 -0.4789
   19W        W43010  13.359   8.209   9.793 -0.1278  0.0325 -0.4101
   20W        W43011  15.590  16.620  27.554 -0.2619  0.0665 -0.2639
   21W        W43012  13.991   1.616   9.057  0.2017  0.2244 -0.2389
   22W        W43013  27.243   3.205   8.809 -0.1804 -0.2896 -0.0599
   23W        W43014  29.265   1.843  25.603 -0.0063  0.2157  0.1267
   24W        W43015  18.226  16.637   6.919  0.0997 -0.2139 -0.0920
   25W        W43016  12.314  30.255  28.358  0.2785 -0.1376 -0.1063
   26W        W43017  13.766   1.692   0.543 -0.2116  0.3404  0.1148
   27W        W43018  30.762  31.203   8.267 -0.1936  0.1237 -0.0101
   28W        W43019  16.398   9.726  27.301 -0.0445 -0.2302  0.2191
   29W        W43020   8.065  20.811   9.873 -0.3361 -0.0159 -0.1141
   30W        W43021  29.160  30.694   1.764 -0.2780 -0.0099  0.0637
   31W        W43022   8.458  19.987   0.212  0.5587  0.1699  0.2997
   32W        W43023   6.394   4.060   9.942  0.2816 -0.2438  0.0505
   33W        W43024   4.607  15.078   2.600 -0.3957  0.2502 -0.1191
   34W        W43025   2.603   6.764   3.075 -0.0498 -0.0983 -0.3273
   35W        W43026  18.145   2.328   3.313 -0.2276  0.3438 -0.2380
   36W        W43027  20.428   5.564   9.764 -0.0582 -0.1106  0.0477
   37W        W43028  17.124  12.292  27.143 -0.0471  0.0117 -0.0325
   38W        W43029  19.259  20.053   0.419 -0.0593 -0.3213 -0.1300
   39W        W43030  10.114   3.834  28.004  0.0766  0.2662 -0.2194
   40W        W43031  13.442  13.027   0.179 -0.2227 -0.1091  0.0821
   41W        W43032  25.293   8.654   8.760  0.1390  0.2207  0.2613
   42W        W43033  20.099  11.864   7.660 -0.1084  0.1352  0.0236
   43W        W43034  22.746  13.085   5.793 -0.0526 -0.0861 -0.0228
   44W        W43035  10.846  11.590  24.097 -0.3114 -0.1301 -0.0658
   45W        W43036  11.359   4.006  21.176  0.1345 -0.0063 -0.1099
   46W        W43037   5.027   0.654   2.277 -0.2695  0.0513 -0.2924
   47W        W43038  18.252   2.918   1.056 -0.1566  0.1194 -0.0073
   48W        W43039   9.476  18.026  24.895 -0.0194 -0.1008  0.0016
   49W        W43040  20.293   7.061  28.638  0.1130  0.0150 -0.1350
   50W        W43041  19.622  33.548   3.855  0.1512  0.1816  0.1032
   51W        W43042  14.619  33.742   7.522 -0.1567  0.1697 -0.1260
   52W        W43043  18.705   7.851   5.612  0.0809  0.1103 -0.1694
   53W        W43044  17.596  17.925  28.678 -0.2203 -0.1263 -0.0831
   54W        W43045  14.945  34.668   4.208 -0.1430 -0.0216 -0.1004
   55W        W43046   9.294  17.159  10.608  0.2095 -0.0329 -0.0151
   56W        W43047  20.704   7.810   5.806  0.0236  0.0684  0.2834
   57W        W43048  30.830  14.753   4.660  0.1704 -0.0180 -0.0549
   58W        W43049   0.186   2.816   9.680 -0.2298 -0.1400 -0.2973
   59W        W43050  23.737   4.446   9.399  0.0116  0.3707 -0.1299
   60W        W43051  23.535  20.586  23.439  0.2660 -0.2845 -0.2069
   61W        W43052  25.235   6.381  27.504  0.1132  0.2593 -0.1207
   62W        W43053  19.220   7.871   7.681 -0.0605  0.1165  0.3642
   63W        W43054  24.965   2.877   6.085 -0.1910  0.1787 -0.0165
   64W        W43055  13.944   8.536   9.754  0.2149  0.5569 -0.0337
   65W        W43056  24.316  30.094   3.023 -0.1042  0.1698  0.0774
   66W        W43057  17.415  13.211   4.745 -0.1168 -0.1684  0.2947
   67W        W43058   9.423   3.451   9.696 -0.0407 -0.2927 -0.0027
   68W        W43059  26.850   0.293  28.185 -0.0588  0.0134 -0.2548
   69W        W43060  23.114   9.966   5.168  0.0913 -0.0678 -0.1241
   70W        W43061  10.442  28.869   0.016  0.0783  0.1401  0.1076
   71W        W43062   9.311   8.628   4.758  0.0769  0.1235  0.1826
   72W        W43063  13.020  33.677   1.736  0.0491  0.0671  0.1765
   73W        W43064  30.647   2.022   3.761 -0.2159 -0.1116 -0.1200
   74W        W43065  10.199   4.131   4.389 -0.2080 -0.0171  0.1178
   75W        W43066  11.395   9.189  26.289 -0.0201 -0.1380 -0.1008
   76W        W43067  19.436  13.165   4.660  0.4595 -0.1631  0.0097
   77W        W43068  18.291  29.746   4.934 -0.4534 -0.1929  0.2021
   78W        W43069  18.180  34.636  26.742 -0.1652 -0.2485  0.1118
   79W        W43070  20.375  11.291   1.605 -0.2184 -0.2078  0.1515
   80W        W43071  22.873  19.326   1.892  0.0404 -0.1453  0.1320
   81W        W43072  13.143   0.839   7.865  0.1009  0.1396 -0.1203
   82W        W43073  11.553  17.443   6.615  0.2278 -0.2921  0.0792
   83W        W43074   9.993   3.449   9.918 -0.1665  0.1523  0.0515
   84W        W43075  24.887  33.285   5.777  0.2483  0.1033  0.2121
   85W        W43076  13.490  15.344  26.189 -0.2721  0.1599 -0.1713
   86W        W43077  23.723  17.572  28.811 -0.1392 -0.2974 -0.1551
   87W        W43078   1.308  13.246   3.723  0.4750 -0.1063  0.0473
   88W        W43079   1.349   6.291   8.661  0.2458 -0.1516  0.1181
   89W        W43080  22.994  22.809   6.136  0.3038 -0.0077  0.1657
   90W        W43081  17.391  11.310   6.064  0.2361  0.1513  0.0047
   91W        W43082  30.458  13.638  29.127 -0.1256 -0.0860 -0.2615
   92W        W43083  25.563  14.661   8.640 -0.1041  0.2857 -0.1168
   93W        W43084  13.637  12.068  21.679  0.1025 -0.0742  0.0514
   94W        W43085  18.490   3.466   5.717  0.0189  0.1710  0.2081
   95W        W43086   6.401  22.077  18.721 -0.0640 -0.2096  0.1324
   96W        W43087  18.808  25.469  27.348  0.1490  0.1244 -0.5033
   97W        W43088   2.729  11.336   5.633 -0.1352  0.3070 -0.0146
   98W        W43089  20.866  33.168  19.143 -0.1894  0.3495 -0.3516
   99W        W43090  27.617  19.215   0.244 -0.0094 -0.1180 -0.0911
  100W        W43091  27.961  11.004   9.421 -0.0703 -0.2957 -0.1214
  101W        W43092  23.116   7.539   6.623 -0.2088  0.1401 -0.0014
  102W        W43093  11.255  14.992  17.209  0.1070  0.1267 -0.0709
  103W        W43094  12.024  32.440   3.944  0.0051  0.0074 -0.1101
  104W        W43095  19.030  18.441   2.021  0.0893 -0.0351  0.0312
  105W        W43096  22.884   7.230  17.396 -0.0784 -0.1861  0.1067
  106W        W43097  22.582  15.628   0.955  0.0189 -0.2301  0.0999
  107W        W43098  21.370  11.275   6.950  0.2170 -0.3492  0.2082
  108W        W43099  11.035  28.512  26.939 -0.2306  0.1488 -0.0086
  109W        W43100  30.305  26.748  24.512 -0.2705  0.0916 -0.0516
  110W        W43101  27.797   2.524   1.660  0.1359  0.3268  0.1267
  111W        W43102  21.000  14.657   3.484  0.0236  0.0997  0.3682
  112W        W43103  29.297  16.511  26.374  0.3667 -0.0440 -0.2872
  113W        W43104   6.522   4.608   8.819  0.0934 -0.0100 -0.2818
  114W        W43105  17.816  17.904  25.788 -0.1312 -0.1539  0.2049
  115W        W43106   2.844   7.691   4.212  0.1594 -0.1677 -0.5407
  116W        W43107  22.709  31.836  17.873  0.0328 -0.2915 -0.1011
  117W        W43108  16.835  17.617  26.517 -0.0674 -0.1182 -0.1166
  118W        W43109  20.484  14.734   7.103 -0.2079  0.0350 -0.0824
  119W        W43110  16.612   4.279  24.186 -0.0683  0.0213 -0.0935
  120W        W43111  34.555  18.283  25.862 -0.1760 -0.0815 -0.2912
  121W        W43112  16.880   5.274   1.123 -0.1945  0.0438 -0.1257
  122W        W43113   6.875   3.412   4.493  0.3845 -0.0181  0.0882
  123W        W43114  23.048  22.950  13.143  0.0910 -0.2959  0.0369
  124W        W43115  14.731  30.296  24.915  0.0029  0.0994  0.1630
  125W        W43116  27.166   5.706  23.631 -0.1192 -0.0247 -0.0654
  126W        W43117  12.451  27.967  16.370 -0.1765 -0.1175  0.1298
  127W        W43118  33.833  19.974   0.909 -0.5121 -0.2563 -0.1571
  128W        W43119  11.337  23.774   3.650  0.2932  0.0288 -0.1408
  129W        W43120  19.145  17.174   2.655  0.0448  0.0109 -0.1451
  130W        W43121  18.379   0.991   5.176  0.0408  0.1073 -0.1959
  131W        W43122   8.393  11.841  10.908 -0.0155 -0.1739  0.0053
  132W        W43123  21.951   2.587   4.712  0.0296 -0.2048  0.0912
  133W        W43124   5.530   9.226   4.539  0.1921 -0.0171 -0.0838
  134W        W43125  31.762  18.306   3.638  0.4110 -0.1165 -0.0023
  135W        W43126  12.798  21.829   2.037  0.4012 -0.0719 -0.2549
  136W        W43127   9.364  33.693  26.167  0.0448  0.0470 -0.2805
  137W        W43128  26.585  25.982  20.128  0.0540 -0.0933  0.2817
  138W        W43129   9.527  16.414  19.785 -0.0764  0.0708  0.0010
  139W        W43130  15.677  10.852   7.118 -0.2259 -0.0875 -0.4604
  140W        W43131   8.355   5.440  25.688 -0.0321  0.1548 -0.2321
  141W        W43132  23.944  16.314   8.136 -0.0354 -0.3003  0.1330
  142W        W43133   6.104  24.263  23.966  0.1342  0.0663 -0.2382
  143W        W43134  15.528  22.264  25.869  0.1862 -0.0507  0.0938
  144W        W43135  14.739  33.941   0.893 -0.0789 -0.3177 -0.0179
  145W        W43136  21.885  22.521  24.967  0.0924  0.1239 -0.0654
  146W        W43137  12.886  31.427  20.556 -0.2598  0.1208 -0.2311
  147W        W43138  20.753  22.195  15.979 -0.2177  0.5226 -0.0859
  148W        W43139  22.651  20.494   4.965  0.1615 -0.0536  0.0709
  149W        W43140  16.882   3.604   5.626 -0.0080  0.0435  0.0099
  150W        W43141   2.892   5.906   5.416 -0.0017  0.1253 -0.0338
  151W        W43142  11.087  33.140  26.369 -0.3941  0.0455 -0.1909
  152W        W43143  20.396  27.949   3.121 -0.2880 -0.3146 -0.0411
  153W        W43144  31.063   4.205  24.950 -0.1545 -0.0687 -0.0166
  154W        W43145  14.590  11.343   4.277 -0.0995 -0.1610  0.0841
  155W        W43146   5.172  22.160  16.174 -0.2096 -0.0733  0.0827
  156W        W43147   9.643  13.519   3.299  0.2877  0.0182  0.0701
  157W        W43148  13.957  26.768  27.432  0.1511 -0.1547 -0.0077
  158W        W43149  10.611  17.789   0.529 -0.1201 -0.2348 -0.0908
  159W        W43150   9.327   7.446  24.418  0.1870 -0.1832  0.0157
  160W        W43151   3.425  28.408   5.463 -0.2372 -0.1813 -0.2622
  161W        W43152  18.123   9.167  27.017 -0.1594  0.1579 -0.2375
  162W        W43153  11.892  23.337   1.269  0.1779 -0.0203  0.1170
  163W        W43154  20.472  11.539   8.977  0.0527 -0.0960 -0.2246
  164W        W43155  24.388   4.771  24.490 -0.1474 -0.2093 -0.0004
  165W        W43156   9.610  13.738   2.075 -0.0666 -0.1305  0.3268
  166W        W43157  10.567   3.279   4.806  0.1904 -0.1283  0.0535
  167W        W43158   7.647  13.020   2.704 -0.0793  0.2215  0.1522
  168W        W43159  11.557   4.915  21.169 -0.2872  0.1544  0.0598
  169W        W43160  16.825  13.493  29.135  0.0070 -0.0072 -0.1514
  170W        W43161  16.257   1.743  27.558  0.0961 -0.0052  0.2588
  171W        W43162  22.651  31.527   6.907  0.0179 -0.0495  0.2322
  172W        W43163  21.662  17.003  23.165  0.3340  0.3239  0.1429
  173W        W43164   8.949  10.603   2.548  0.0967 -0.0056  0.4927
  174W        W43165   4.501  27.567   1.420 -0.0308  0.0399  0.2309
  175W        W43166  17.702   8.710  26.252 -0.0369 -0.2223 -0.0664
  176W        W43167  10.082  17.917   3.836  0.0370 -0.0538 -0.1162
  177W        W43168   9.079   9.213  28.640  0.1187  0.0274 -0.2684
  178W        W43169  12.961  13.509  25.049 -0.1889  0.0818  0.0022
  179W        W43170   6.694  24.602   9.108  0.0914 -0.0965  0.1084
  180W        W43171  20.843   0.765   8.052 -0.1725  0.0222  0.1425
  181W        W43172   1.668   1.065   1.531 -0.1154  0.1463 -0.2258
  182W        W43173  21.564  13.852   7.195 -0.3349 -0.0643 -0.0429
  183W        W43174   4.974   2.109   3.881 -0.0271  0.0342  0.1438
  184W        W43175  18.039  10.637   0.291  0.1073 -0.0441 -0.2702
  185W        W43176  23.925  33.925   9.481  0.0556 -0.0436  0.2092
  186W        W43177  20.143   5.734   8.937  0.1124 -0.3462  0.2424
  187W        W43178  17.057  21.558   1.853 -0.0829  0.2199 -0.2060
  188W        W43179  11.248   4.402   7.255 -0.1092  0.3271 -0.0392
  189W        W43180  23.331  28.242   0.634 -0.1311 -0.1966 -0.6009
  190W        W43181  25.342  13.593   5.108 -0.3222 -0.0534  0.0409
  191W        W43182  24.693  14.791   0.268 -0.1986 -0.0926 -0.1837
  192W        W43183   2.602   4.643   5.631  0.0625 -0.1693 -0.1130
  193W        W43184  31.647  28.823   0.629 -0.1739 -0.1130  0.1477
  194W        W43185  24.885  19.431   1.246 -0.0536 -0.0149  0.1899
  195W        W43186  14.722   3.150   8.873  0.0441  0.1283 -0.0067
  196W        W43187   4.521  17.460   1.977  0.0257 -0.0756  0.0888
  197W        W43188  24.797  13.004   5.076 -0.1742 -0.0923  0.1157
  198W        W43189  15.184  21.438   5.270  0.1515 -0.0963 -0.1903
  199W        W43190  18.866  26.571  29.043 -0.1687  0.2381 -0.1498
  200W        W43191  11.129  21.028  24.516 -0.1491  0.0654  0.3379
  201W        W43192  16.868   7.278   0.544 -0.0393 -0.1304 -0.3369
  202W        W43193  22.068  11.842  28.873 -0.0116  0.0193  0.0800
  203W        W43194   7.363   8.819   4.478 -0.5121  0.2060 -0.0485
  204W        W43195  26.734  13.795   0.961  0.1782  0.4539 -0.0041
  205W        W43196  12.031  34.425   4.495  0.1095 -0.0016  0.0302
  206W        W43197  17.485   0.428   4.594 -0.2641  0.2821  0.0808
  207W        W43198  29.509   4.008  16.980  0.1649 -0.1982  0.0269
  208W        W43199  13.075   9.840   0.699  0.0099 -0.1634 -0.1578
  209W        W43200  13.298   4.058  11.850  0.3243 -0.0794  0.2446
  210W        W43201   9.434  32.068  26.881  0.0079 -0.0216 -0.1362
  211W        W43202  20.649  16.628  16.000 -0.3565  0.0529  0.2311
  212W        W43203  15.946  11.567   4.113 -0.1372  0.3427  0.4131
  213W        W43204  19.530   2.501  26.154 -0.2496  0.1224  0.0752
  214W        W43205  20.655  19.117   6.630  0.0738 -0.1755  0.3391
  215W        W43206  13.679  11.869  28.326  0.0347  0.0250  0.2404
  216W        W43207  25.367   6.105  24.678  0.2843 -0.0505  0.0155
  217W        W43208  15.153   1.543  10.297  0.4901 -0.1099  0.0091
  218W        W43209  15.200  12.169  26.714  0.0550  0.1716  0.1170
  219W        W43210   5.705   5.786   8.885 -0.1691  0.0507 -0.2516
  220W        W43211  20.264  12.892  20.978 -0.1815 -0.1967  0.0444
  221W        W43212  26.568  29.495   0.184  0.2137 -0.4131 -0.2618
  222W        W43213  17.646   4.148  25.812 -0.0700  0.3155  0.2709
  223W        W43214   7.181  12.832   9.102 -0.1632 -0.0209  0.0427
  224W        W43215  20.159   7.907  27.509  0.0405 -0.0041  0.0855
  225W        W43216  30.742   7.419   3.031 -0.1122 -0.4487  0.1681
  226W        W43217  18.056  28.195  20.549  0.1474  0.1799 -0.1292
  227W        W43218  29.875  23.006  26.441 -0.2865 -0.2146 -0.3174
  228W        W43219  24.100  32.889  21.756  0.0575  0.0167  0.0964
  229W        W43220  26.625  17.110   4.674  0.3272  0.5051  0.0539
  230W        W43221  27.629   2.360  23.808  0.2443  0.0906 -0.0915
  231W        W43222  16.623   1.898   5.649  0.0982  0.1132  0.0960
  232W        W43223   7.098  19.113  24.935 -0.3013  0.1907  0.3427
  233W        W43224  20.314  13.429  16.640 -0.0017 -0.1055  0.1518
  234W        W43225  15.663  29.166  28.334 -0.0162 -0.0568 -0.0949
  235W        W43226  14.669   6.954   7.236  0.0243 -0.3309 -0.2806
  236W        W43227   8.922   8.920   0.248  0.0398  0.1338  0.3996
  237W        W43228  17.781   0.248  27.094 -0.0865 -0.1166 -0.0803
  238W        W43229  18.350  32.268   4.296 -0.0735 -0.1560  0.0008
  239W        W43230   5.430  14.451   7.349  0.1730  0.1544  0.0105
  240W        W43231  30.432   4.058   0.808 -0.1223 -0.0852 -0.2069
  241W        W43232  21.962   9.340  28.968  0.1409 -0.2023  0.0770
  242W        W43233  19.929  14.983   5.777 -0.2108 -0.1980 -0.0975
  243W        W43234  11.708  33.037   7.207 -0.3490 -0.0250  0.0908
  244W        W43235   4.369  26.578   0.852  0.3570  0.2406 -0.1200
  245W        W43236  20.685  15.393   1.518 -0.0750  0.1241  0.0142
  246W        W43237  17.449  30.874   5.018  0.2794  0.4475  0.4044
  247W        W43238  30.591   3.769  28.913 -0.1877 -0.4720  0.1966
  248W        W43239  12.801  13.116  27.717 -0.2213 -0.0133 -0.2324
  249W        W43240  13.009   0.741   2.591 -0.0212 -0.1218  0.1762
  250W        W43241  30.210   6.350  24.642  0.1365 -0.0507 -0.0137
  251W        W43242  10.961  17.353  13.803 -0.0193  0.1329  0.2754
  252W        W43243  13.059   2.230  27.906  0.1405  0.2950  0.1450
  253W        W43244   5.274   9.183   9.320  0.0125  0.1808  0.2789
  254W        W43245  20.869  27.197   0.286 -0.0923 -0.0121  0.0926
  255W        W43246  32.217  13.069   6.027  0.1824 -0.0635 -0.0320
  256W        W43247  13.849  28.613  28.282  0.2696 -0.4191  0.1643
  257W        W43248   6.008  21.877   6.075 -0.0122 -0.1756 -0.1413
  258W        W43249  27.602  22.429  19.730 -0.0651  0.0493 -0.0654
  259W        W43250  28.494  30.743   5.340  0.1170  0.1280 -0.2572
  260W        W43251   9.142  13.630   3.999  0.2189 -0.1857  0.0465
  261W        W43252  16.000   0.083   7.109 -0.0166 -0.1345  0.0921
  262W        W43253  30.513   7.575  20.899  0.0501  0.1549  0.3841
  263W        W43254  31.648  31.721   9.676  0.0454 -0.0676 -0.1522
  264W        W43255  24.301  14.205   6.187  0.1253 -0.0638  0.1039
  265W        W43256  22.249  11.276   7.105 -0.0386  0.2955  0.0782
  266W        W43257  14.858   7.090  22.859 -0.1081 -0.0150  0.0718
  267W        W43258   3.945   9.897  16.756 -0.1264  0.1763  0.0932
  268W        W43259  13.818  20.639  27.919 -0.1179  0.4615  0.0163
  269W        W43260   3.210  30.355  21.276 -0.0265 -0.1161  0.1290
  270W        W43261  29.549  24.522   1.580  0.0904  0.3768  0.0654
  271W        W43262  11.850  18.364   6.782 -0.1410 -0.2274 -0.0356
  272W        W43263  15.857   3.472  17.377  0.1166 -0.0485 -0.0041
  273W        W43264  19.553   9.121  27.375  0.1204 -0.1410 -0.1283
  274W        W43265  22.029   8.929  17.977  0.1128 -0.4314 -0.2355
  275W        W43266  34.710  34.017  22.804 -0.2168 -0.1043 -0.2039
  276W        W43267  18.854   5.739   2.871 -0.0484 -0.1168 -0.0509
  277W        W43268  10.691  19.170   1.341  0.2007  0.2992  0.4104
  278W        W43269  10.900   9.270  22.306  0.0403  0.1561  0.1079
  279W        W43270  20.925   7.468  22.016 -0.0856  0.2256  0.0060
  280W        W43271  20.229  13.699   2.941 -0.2169 -0.1784  0.0982
  281W        W43272  15.795  10.187   6.365 -0.1282 -0.1285  0.5125
  282W        W43273   1.464   8.287  16.912  0.1618 -0.1847 -0.1469
  283W        W43274  13.492   0.964  22.798 -0.0218  0.0279 -0.1900
  284W        W43275   5.606  15.086  19.382 -0.0592 -0.2326  0.1226
  285W        W43276  16.926  17.049   4.164 -0.0344 -0.0468  0.1809
  286W        W43277  28.137  20.468  10.413  0.0049 -0.1373  0.1213
  287W        W43278  33.955  10.632   8.809  0.1949  0.3304  0.2494
  288W        W43279  33.802   0.169  24.387 -0.1017 -0.1616  0.1645
  289W        W43280   9.251  20.028   5.060 -0.1338 -0.0299  0.3968
  290W        W43281  24.485  27.175   6.277  0.2607 -0.3038 -0.0532
  291W        W43282   0.140  24.321   2.493 -0.3799 -0.0200  0.4201
  292W        W43283  11.266  13.638   2.284 -0.1127 -0.2478 -0.0322
  293W        W43284  19.723   4.979  26.397  0.1501  0.1807 -0.2405
  294W        W43285  21.977  29.743   3.555  0.0626 -0.0032  0.2110
  295W        W43286  16.523  12.856  28.279  0.0415 -0.0442  0.2671
  296W        W43287  29.486  29.230   4.852 -0.0288 -0.1587 -0.1025
  297W        W43288  18.486   0.616  27.589  0.1400 -0.1589  0.0817
  298W        W43289   2.298   8.371   2.032  0.1342  0.1494  0.0386
  299W        W43290  16.213  32.520   5.439 -0.0989 -0.0824 -0.2941
  300W        W43291  10.820  20.183   1.680 -0.0249  0.1572 -0.0059
  301W        W43292  33.822   6.815   3.414 -0.1612  0.4785  0.2375
  302W        W43293  16.608   3.983   1.456 -0.0073 -0.4271 -0.0284
  303W        W43294  16.649  12.601  23.636 -0.2349 -0.3073  0.0065
  304W        W43295  22.439   0.602   5.180 -0.0692 -0.0037  0.1901
  305W        W43296  33.226   9.058   9.357 -0.0086 -0.3523 -0.4631
  306W        W43297   8.411  12.999   1.410 -0.2013  0.0040  0.0400
  307W        W43298  21.742   2.732  18.696  0.0656 -0.0957  0.0935
  308W        W43299  11.902  20.394   1.666 -0.0351 -0.2010 -0.0779
  309W        W43300  15.947  10.180   5.121  0.0676  0.2482  0.0165
  310W        W43301  12.270  30.765   9.847  0.0369 -0.1262  0.0044
  311W        W43302  19.857   8.243  23.740  0.2282  0.0223 -0.0490
  312W        W43303   0.618  16.810   5.145  0.1924  0.0624 -0.2553
  313W        W43304   5.703  12.120  27.615 -0.1393  0.2757  0.2211
  314W        W43305  26.685  13.090  26.594 -0.0253  0.1548  0.2860
  315W        W43306  17.271   1.391   5.180  0.1305 -0.3010  0.3588
  316W        W43307  23.561  14.924   7.927 -0.3265 -0.1774 -0.0104
  317W        W43308  33.705  18.990  16.216  0.2678 -0.2043 -0.2298
  318W        W43309  17.172   6.715   4.903 -0.0582 -0.1246  0.1400
  319W        W43310  12.867  20.672   3.971 -0.0114  0.0377  0.0348
  320W        W43311  12.343  11.678   8.219 -0.2442 -0.0208 -0.0404
  321W        W43312  21.598  15.087   4.856 -0.1897 -0.0419 -0.1026
  322W        W43313  22.556   3.458  22.261  0.1928  0.1691  0.1298
  323W        W43314  21.703   3.692  22.869  0.3921 -0.2039 -0.1646
  324W        W43315  21.662  16.541   6.764  0.0373  0.4633  0.1564
  325W        W43316  28.611   2.209   2.381  0.1798  0.2335  0.2518
  326W        W43317  24.954  32.949   4.928 -0.1206 -0.0205  0.2162
  327W        W43318  11.697   6.443   3.119 -0.0417 -0.0646  0.1861
  328W        W43319  16.543  12.375  26.311 -0.1483 -0.5490 -0.1373
  329W        W43320   6.250  14.372   9.551 -0.0458  0.1218 -0.1886
  330W        W43321   9.039   2.813  10.595 -0.0228 -0.1237 -0.2248
  331W        W43322  21.043  11.398  21.643 -0.4183  0.3685  0.1603
  332W        W43323  11.355   3.898  10.559  0.0827  0.0395  0.1337
  333W        W43324  25.505  18.060   0.814  0.2032  0.4695 -0.0386
  334W        W43325  14.690  14.740  27.429  0.0403 -0.1911 -0.0481
  335W        W43326   4.251  33.921   9.592  0.1734  0.3505 -0.3777
  336W        W43327   5.334  30.670  28.215  0.2295  0.1190 -0.1029
  337W        W43328  18.241  25.772   0.842 -0.0882 -0.3534 -0.2381
  338W        W43329  12.875  15.182  13.990  0.0814 -0.2404 -0.0223
  339W        W43330   3.214   4.114  20.909 -0.0853 -0.1321  0.1034
  340W        W43331   4.591  16.281  26.205  0.1692 -0.3265  0.1394
  341W        W43332  12.094  10.513   4.064 -0.0582 -0.3015 -0.1522
  342W        W43333  17.526  19.622   6.121  0.6322  0.2138  0.0316
  343W        W43334   7.959  30.051  28.495 -0.0793  0.0165 -0.0551
  344W        W43335   6.410  31.618   4.608 -0.1658  0.2364  0.2014
  345W        W43336  34.536  32.094  21.238  0.0953  0.0956 -0.1886
  346W        W43337  11.947  21.079  16.165 -0.1371 -0.1524  0.0851
  347W        W43338  21.974   7.645  18.231 -0.3265 -0.3202  0.2559
  348W        W43339  23.409  21.388  22.240  0.0265 -0.0310 -0.0251
  349W        W43340  16.310  24.704   9.632 -0.1052 -0.0781 -0.0379
  350W        W43341  22.704  11.991   3.807 -0.0335  0.2224  0.1779
  351W        W43342  12.042   7.309  21.432  0.2482 -0.4251 -0.0624
  352W        W43343   9.386  32.638  17.327  0.0287  0.2541 -0.0062
  353W        W43344  12.271  13.417   6.273 -0.2000  0.0209 -0.2251
  354W        W43345  25.941  11.795   4.677 -0.1026 -0.1626  0.1270
  355W        W43346   7.323  21.446   9.009 -0.0368  0.0048  0.4807
  356W        W43347  13.565   9.349  25.089 -0.1006 -0.1583  0.0660
  357W        W43348  19.462   2.131   0.532  0.2240 -0.1381 -0.0038
  358W        W43349  20.620   5.445  27.375 -0.1416 -0.1436  0.1459
  359W        W43350   8.059  33.293   8.539 -0.1679  0.0350  0.4425
  360W        W43351   4.863  19.374   0.285  0.0935  0.3460 -0.0296
  361W        W43352  28.478  33.103   1.525  0.1492 -0.0514 -0.2227
  362W        W43353  20.062   8.275  24.339  0.1892  0.0274 -0.0409
  363W        W43354   5.866  17.203   0.303  0.2727  0.1576  0.1064
  364W        W43355  27.735  17.952  22.392 -0.1304  0.0656  0.0171
  365W        W43356  24.239   5.739  17.559  0.0309  0.0622  0.1120
  366W        W43357   5.917  21.068   6.367 -0.1472 -0.4170  0.0087
  367W        W43358  18.091  15.173  25.215 -0.0447 -0.2325  0.0546
  368W        W43359  13.238   7.385   5.523  0.0918 -0.1527 -0.0135
  369W        W43360  18.256  22.762  21.873 -0.3942  0.1484 -0.2055
  370W        W43361  16.240  20.364   2.706 -0.1154 -0.2368 -0.0935
  371W        W43362  20.046  16.004  16.352 -0.3618 -0.1195  0.1220
  372W        W43363  24.703   5.545   7.229 -0.0012  0.0290  0.1812
  373W        W43364   7.159  23.233  23.404 -0.0829 -0.0403 -0.0695
  374W        W43365  25.475  16.593   9.990 -0.0614 -0.0120 -0.1286
  375W        W43366  14.349   8.374  23.377  0.1695 -0.2335  0.0456
  376W        W43367  33.426   1.485  28.940 -0.0253 -0.2875  0.2149
  377W        W43368   9.427  31.101   7.003 -0.0207 -0.1447  0.3099
  378W        W43369  12.564   4.862  20.331 -0.1109  0.1483 -0.2322
  379W        W43370  33.343   6.975   3.632 -0.0159  0.0283  0.1700
  380W        W43371  31.096   1.556  20.918  0.2199  0.0952  0.0929
  381W        W43372  26.224   2.068   5.212 -0.0266 -0.1433  0.1890
  382W        W43373   2.053   1.075   5.600 -0.0514 -0.2440  0.3333
  383W        W43374  16.904   0.378   0.298  0.0416 -0.2977 -0.2352
  384W        W43375   3.882  30.553  27.479  0.0845 -0.0268  0.1008
  385W        W43376  15.953   7.804   8.523 -0.1060  0.0630  0.1035
  386W        W43377  12.480  12.416   9.318 -0.1128  0.0370 -0.1923
  387W        W43378  30.583   7.482   3.587 -0.3057 -0.0891  0.3213
  388W        W43379   5.212  14.937   7.329 -0.1711  0.1775  0.0559
  389W        W43380   5.360  12.506   9.250 -0.0340 -0.3583  0.0566
  390W        W43381   8.729  17.187   4.953  0.4371  0.1352  0.0912
  391W        W43382  13.998   5.668  17.487 -0.0309  0.0201  0.2114
  392W        W43383  30.908  34.403   3.959  0.0126  0.0988 -0.1476
  393W        W43384  22.033  17.974   3.547  0.1265 -0.0570 -0.1296
  394W        W43385  19.558   8.226   0.265  0.1137  0.0499 -0.1690
  395W        W43386   2.681  14.081  16.953  0.1635 -0.1526  0.0391
  396W        W43387  23.804   2.326  24.053 -0.0656  0.2230 -0.0222
  397W        W43388  27.907  25.057   4.385  0.4238 -0.0685  0.2200
  398W        W43389  26.641   9.179   1.802 -0.0197 -0.1177 -0.1754
  399W        W43390  28.487   6.771  16.767  0.0055 -0.1010 -0.0020
  400W        W43391  15.913  14.086   8.895  0.0103  0.1931  0.0600
  401W        W43392   7.390  18.797  23.990 -0.0589  0.1618 -0.1209
  402W        W43393  14.335   4.023  20.247  0.1556 -0.0175 -0.0761
  403W        W43394  21.241  17.084   6.957  0.1090  0.0607 -0.1182
  404W        W43395  13.955   5.305   5.516  0.0192 -0.1501  0.0467
  405W        W43396  14.859  12.778  17.179 -0.0449  0.1101  0.0938
  406W        W43397   9.975   6.041   8.576 -0.2639  0.0870  0.2718
  407W        W43398  20.959   7.077   2.597 -0.0258 -0.1789 -0.4313
  408W        W43399  18.395  16.568   4.429  0.2154  0.1895  0.0359
  409W        W43400  15.409  17.258  26.932 -0.3446 -0.2868 -0.0329
  410W        W43401  16.190  25.580  20.856  0.2832 -0.0072 -0.3296
  411W        W43402   8.934   6.460  24.006 -0.1265  0.0639 -0.1504
  412W        W43403  21.056   3.529   0.030 -0.1994  0.0799 -0.2339
  413W        W43404   9.308   5.823   2.242  0.0525 -0.0979 -0.0446
  414W        W43405   5.513  11.566  22.415  0.0516  0.1932  0.2247
  415W        W43406  14.440  28.278   1.391 -0.0040 -0.1072  0.0020
  416W        W43407  26.808  10.512   4.934  0.0338  0.3595 -0.3393
  417W        W43408  13.554   8.285   2.862 -0.0696  0.0938 -0.2518
  418W        W43409  22.352  25.893   0.834  0.3730  0.1984 -0.1680
  419W        W43410  32.258  30.481  23.088 -0.0029 -0.0099  0.1391
  420W        W43411  28.622  14.451   5.159  0.1018 -0.1587  0.2663
  421W        W43412  23.076  25.931   6.937 -0.2604  0.0330 -0.0808
  422W        W43413  16.240   8.914  17.006  0.0374  0.1753 -0.1112
  423W        W43414   5.777  29.092   0.486  0.3260  0.1328 -0.3985
  424W        W43415   3.926  33.533  16.719 -0.1018  0.1768  0.1986
  425W        W43416   5.807  20.191   3.575 -0.1668 -0.0073  0.1868
  426W        W43417  17.257   7.695   3.945  0.0564  0.0573  0.1184
  427W        W43418   1.945   3.962  10.013  0.0166 -0.1927  0.0528
  428W        W43419  32.417  16.834   7.220 -0.1883  0.4352 -0.2246
  429W        W43420  17.496  32.494   7.877 -0.1417  0.1392 -0.1717
  430W        W43421   8.906  11.448   8.598  0.1774  0.0213  0.1976
  431W        W43422  27.348   8.803  19.687  0.1217 -0.0459 -0.2995
  432W        W43423   6.866   7.186  23.902  0.0407 -0.1215 -0.0494
  433W        W43424  32.881  13.504  16.841 -0.1998  0.1080  0.1281
  434W        W43425  17.879   1.610  20.016  0.2660  0.0241 -0.1579
  435W        W43426  12.992   7.650   5.066  0.2906 -0.0116  0.0049
  436W        W43427   5.290  27.439   1.083 -0.2301 -0.0839  0.0497
  437W        W43428  21.008  13.458  27.690  0.0216  0.3696 -0.0063
  438W        W43429  26.386   8.976   5.223 -0.4847  0.3836 -0.0947
  439W        W43430  21.439  25.217  18.991  0.1217  0.1108 -0.2345
  440W        W43431   8.879  17.039  25.632  0.3074 -0.2877 -0.0098
  441W        W43432  16.625  20.173   0.153 -0.1453  0.3656 -0.1113
  442W        W43433  21.291  12.343   0.334  0.0992 -0.3320 -0.1204
  443W        W43434  13.234   2.450   3.430  0.2329  0.0468 -0.0361
  444W        W43435  16.569  18.875   7.017  0.1698 -0.1233 -0.1354
  445W        W43436   8.626   4.902  26.630  0.0862  0.3777  0.0700
  446W        W43437  21.901  12.599  18.752 -0.0220  0.2660 -0.2248
  447W        W43438  21.529  20.025  20.633 -0.0339 -0.1858  0.3540
  448W        W43439   8.165  27.012   9.003 -0.2346 -0.0258  0.2185
  449W        W43440  26.641  22.058   6.336  0.0639 -0.1642  0.1794
  450W        W43441  19.494  25.357   4.561 -0.0511  0.1382  0.1236
  451W        W43442  21.321  10.244  22.734  0.2057 -0.4217  0.1161
  452W        W43443   8.928  13.940   4.373 -0.0738 -0.1622  0.1751
  453W        W43444  14.981  16.921   0.048 -0.0099  0.0068 -0.1996
  454W        W43445  24.229  23.931  24.576  0.1710 -0.0522  0.3158
  455W        W43446  17.350   9.551  16.947 -0.0179  0.1338 -0.0726
  456W        W43447  29.627  18.386  26.319  0.0563  0.3305  0.1330
  457W        W43448  14.311  24.721  28.940  0.1757 -0.0792 -0.0281
  458W        W43449   6.541  14.856  10.861  0.2388 -0.2599  0.2599
  459W        W43450   4.395  12.526   9.239  0.1946  0.0572 -0.0127
  460W        W43451  34.169  19.186   0.283  0.1339 -0.0658 -0.0834
  461W        W43452   7.589   0.664   0.888  0.1414  0.0685  0.1638
  462W        W43453  20.247  15.697   6.434 -0.1919 -0.1696  0.0127
  463W        W43454  16.489  20.888  21.310 -0.1073  0.0363  0.3496
  464W        W43455  19.955   4.988  13.701  0.1595 -0.0499 -0.2697
  465W        W43456  21.925   4.045   0.602  0.0833  0.0157  0.0838
  466W        W43457  12.255   8.214  17.254 -0.1286 -0.1130 -0.1797
  467W        W43458  16.426  11.871  24.468  0.1816  0.2261 -0.1207
  468W        W43459  14.397  27.783  28.314 -0.3245 -0.1671 -0.1608
  469W        W43460  18.169   9.854  27.227 -0.3218 -0.0494  0.0343
  470W        W43461   9.752  19.008   2.679  0.1721  0.0381  0.0644
  471W        W43462  15.861  21.733   4.786 -0.1114  0.1750 -0.2860
  472W        W43463  18.836  14.501  23.322 -0.0541  0.2208  0.1401
  473W        W43464  18.875  10.042   4.436 -0.2383 -0.2331 -0.1019
  474W        W43465  23.835   1.143  26.002 -0.0644  0.1464 -0.3281
  475W        W43466   1.407   9.992   9.678  0.1108 -0.1535 -0.2133
  476W        W43467   8.161   6.236  10.979  0.1400 -0.0736  0.0299
  477W        W43468   6.620  32.109   9.303 -0.0229 -0.1304 -0.1388
  478W        W43469  22.098  10.173  19.171 -0.0943 -0.0185  0.3149
  479W        W43470  13.130   1.154   7.449 -0.1972  0.0409  0.1965
  480W        W43471  17.214  19.608   8.975  0.1019  0.1140 -0.1685
  481W        W43472  13.649  10.669   0.231  0.1414  0.1787  0.0100
  482W        W43473  13.872  25.092  22.114 -0.0226  0.0143 -0.1447
  483W        W43474  17.221  15.835   2.217 -0.2374  0.0562  0.0920
  484W        W43475  28.272  14.636   8.544 -0.1198  0.0006 -0.1443
  485W        W43476  18.123  23.292   0.953  0.2319 -0.0418 -0.1357
  486W        W43477  18.311   3.394   8.889 -0.2171 -0.2488 -0.3256
  487W        W43478  12.074  20.339   2.170  0.3305 -0.0338  0.0146
  488W        W43479   9.163  20.245  20.778 -0.2289  0.0017  0.2143
  489W        W43480   6.111  11.006   6.980 -0.1817  0.0038  0.1446
  490W        W43481  10.449  19.718   3.764 -0.0414 -0.1638 -0.0499
  491W        W43482  21.333  27.407  17.519  0.1868 -0.1772  0.2709
  492W        W43483  18.279  22.660   8.679  0.1061  0.2948  0.0960
  493W        W43484  30.664  15.072  25.336  0.1041  0.2686 -0.2059
  494W        W43485   8.968   3.727   6.135  0.0801 -0.0378 -0.4396
  495W        W43486  17.637   0.869  28.640  0.2240 -0.1555  0.2201
  496W        W43487  14.895   7.409   7.252  0.2538  0.3106 -0.2196
  497W        W43488  13.131  15.960   3.373  0.0848  0.0306 -0.3687
  498W        W43489  13.485  33.604   3.738 -0.1903 -0.0403 -0.0762
  499W        W43490  15.885  10.696  28.000 -0.1641 -0.0945  0.1836
  500W        W43491  32.750  16.431  11.651 -0.0758 -0.0939 -0.1576
  501W        W43492  25.533   9.043  21.555  0.0078  0.0652 -0.0127
  502W        W43493   2.295  20.983   7.535  0.0902 -0.2230  0.2687
  503W        W43494  21.376   6.902   4.292 -0.0762  0.0947  0.2102
  504W        W43495  33.037  19.449  26.976  0.0284 -0.2361 -0.3006
  505W        W43496  15.317  32.336  27.486  0.0855 -0.0209 -0.1492
  506W        W43497  23.644  32.386  27.473  0.3202  0.0081  0.1640
  507W        W43498  20.824   5.436   9.239  0.2072 -0.0610 -0.0940
  508W        W43499  24.019  16.999   9.270  0.0659 -0.0147  0.1891
  509W        W43500  25.189  33.608   5.301 -0.1080  0.2407 -0.0352
  510W        W43501  22.571  19.819   3.861 -0.3664 -0.0500  0.2415
  511W        W43502   8.799   8.789   6.656 -0.0831  0.1764  0.0891
  512W        W43503  22.530  28.407   6.545  0.3664  0.0493  0.1315
  513W        W43504  14.424  15.185  16.685  0.1627  0.1713  0.0583
  514W        W43505  15.285  17.236   4.368  0.1739 -0.0619 -0.3425
  515W        W43506  20.580  10.612   6.078 -0.0058 -0.0546  0.1089
  516W        W43507  32.336  11.712   8.822 -0.1857  0.0427  0.0785
  517W        W43508   3.626  12.124   2.970  0.1391  0.0796 -0.0174
  518W        W43509  11.604   8.934   9.900  0.1914  0.1715 -0.2421
  519W        W43510   0.260   7.600   6.709  0.0594 -0.3142  0.1335
  520W        W43511   1.049  18.345   7.025  0.2870 -0.3655 -0.0414
  521W        W43512   6.321  13.640   8.808  0.2106 -0.2115  0.1958
  522W        W43513  21.140   9.201   9.566 -0.0353  0.0359 -0.0694
  523W        W43514  13.594  22.966   7.384 -0.1430 -0.1402  0.2375
  524W        W43515  21.493  17.433   4.604 -0.0264 -0.1874  0.2602
  525W        W43516  17.638  14.044   2.473  0.1238 -0.0943 -0.0101
  526W        W43517   9.756  10.727  27.288  0.2080  0.4042 -0.0433
  527W        W43518  10.866  11.014  10.260 -0.2952 -0.1512 -0.0277
  528W        W43519  21.622  18.180   5.199  0.0408 -0.2609  0.0124
  529W        W43520  12.608  25.557  10.321 -0.3245 -0.1986 -0.1161
  530W        W43521   9.561  12.080   2.433 -0.0455  0.2079  0.0198
  531W        W43522  20.213   1.884   6.073 -0.0634 -0.0636  0.1937
  532W        W43523  12.146  15.125   9.064  0.0927 -0.0695  0.1380
  533W        W43524   5.908  25.093   3.224 -0.0381  0.1017  0.1105
  534W        W43525   2.448   8.211  21.473 -0.0369 -0.0517 -0.1280
  535W        W43526  22.296  15.960  25.065 -0.3536  0.0606 -0.2412
  536W        W43527  22.995  13.748   6.211  0.1132  0.0840  0.0822
  537W        W43528  14.230   0.104   0.808 -0.1084  0.3133 -0.0575
  538W        W43529  28.625  18.237  10.848 -0.0625 -0.0483 -0.1649
  539W        W43530  12.979   4.265  10.557  0.1106  0.0784 -0.1454
  540W        W43531  10.990  29.624  28.338 -0.0140  0.1315  0.3856
  541W        W43532  12.083   1.008   8.625 -0.1984  0.0917  0.1683
  542W        W43533  16.213  12.576  24.467  0.1543 -0.3749  0.0148
  543W        W43534   6.271   5.765  19.626  0.0673  0.1864 -0.2600
  544W        W43535  33.627  16.376   9.468 -0.0547 -0.0808 -0.1535
  545W        W43536   5.980  18.753  25.565 -0.1988  0.2006  0.2807
  546W        W43537  31.769  33.431   3.243  0.0361  0.2496  0.0369
  547W        W43538  23.807  20.424  25.331  0.1960 -0.1287  0.1005
  548W        W43539  34.192   4.438  16.800 -0.0389 -0.2696  0.0947
  549W        W43540  13.567  22.688   0.720  0.1589  0.0610  0.1150
  550W        W43541   9.796  25.447  29.219  0.1960  0.2493 -0.0088
  551W        W43542  16.031   6.973  10.169 -0.1462  0.1990 -0.3357
  552W        W43543  32.084  33.298   6.612  0.1861  0.0296  0.1063
  553W        W43544  18.772  33.998   5.860  0.0685  0.2488 -0.3682
  554W        W43545  24.165  22.680  26.159  0.0363 -0.0602 -0.0011
  555W        W43546   6.644   5.195  23.274  0.1605 -0.0231 -0.2460
  556W        W43547  31.043  29.760  21.606  0.2646  0.1848 -0.0445
  557W        W43548   1.572  30.188   6.013  0.3430  0.2237 -0.1921
  558W        W43549  17.886   7.138   9.862 -0.1764  0.1269 -0.0137
  559W        W43550  32.976  12.992  26.243 -0.3946 -0.1615 -0.2475
  560W        W43551  10.983   6.650  25.943  0.2011 -0.2182  0.0224
  561W        W43552   1.580  13.379   8.651  0.1071  0.0424 -0.0105
  562W        W43553  18.886  21.710   6.905 -0.1939 -0.1112  0.2135
  563W        W43554   8.720   4.322   5.943 -0.0089 -0.0134  0.4250
  564W        W43555  11.339  23.441  16.639  0.0091 -0.1712  0.0421
  565W        W43556  29.551  23.665   5.068  0.1436 -0.0857  0.0865
  566W        W43557  14.374   4.426   8.433 -0.0527  0.1182 -0.2164
  567W        W43558  20.965  30.477   0.507  0.0695  0.0482  0.0570
  568W        W43559   1.054  26.131   3.880 -0.1336 -0.2400 -0.0266
  569W        W43560  32.549  15.057   7.441  0.1362 -0.0635  0.0221
  570W        W43561  34.728  12.742  28.710  0.0237  0.2489 -0.0123
  571W        W43562  11.841  11.030  28.636  0.1150 -0.0592  0.1929
  572W        W43563  21.412   7.777   7.898  0.2258 -0.1127 -0.1895
  573W        W43564  15.586  26.333   7.592  0.0707 -0.2550  0.0926
  574W        W43565   2.480  11.276   4.612 -0.1254  0.2540  0.2637
  575W        W43566  27.157  24.658   5.172  0.0663  0.4187 -0.0334
  576W        W43567   0.166   9.099   8.261  0.1724 -0.1190 -0.1746
  577W        W43568  22.135   0.502   8.060  0.1849 -0.0195  0.1487
  578W        W43569  18.048   8.567   4.023 -0.0615  0.0261  0.1577
  579W        W43570   6.915  33.905  27.920  0.1033 -0.1507 -0.1402
  580W        W43571  16.613   3.507   6.859  0.1093  0.0995 -0.1968
  581W        W43572  15.674   2.091   9.585  0.0971 -0.2870  0.0253
  582W        W43573  17.681  20.241  27.232 -0.0848 -0.0461 -0.1901
  583W        W43574  13.684   9.863  17.866  0.0854  0.1025 -0.0097
  584W        W43575  20.635  11.247  18.905 -0.1430 -0.0459  0.2673
  585W        W43576  26.304   5.918  24.087 -0.0035  0.0978 -0.2633
  586W        W43577  14.885  13.567   4.512 -0.0951  0.0189 -0.0086
  587W        W43578   4.889  10.747   6.387  0.0277  0.3775 -0.1120
  588W        W43579   6.664   8.145  19.604 -0.0062  0.1107 -0.2675
  589W        W43580  21.876   1.432   9.253  0.2626  0.0142  0.1216
  590W        W43581  12.468  19.749  28.598  0.4016  0.1662 -0.0135
  591W        W43582  25.626   8.108   4.758 -0.3756  0.2523 -0.2510
  592W        W43583  22.508   6.506   3.341  0.0832  0.0451 -0.2158
  593W        W43584  18.909  21.249   3.068  0.2125 -0.2187  0.0345
  594W        W43585  28.583   8.304  28.887  0.0355 -0.0573 -0.0175
  595W        W43586  15.014  11.372  20.367 -0.1095 -0.4345 -0.1140
  596W        W43587  31.610  23.249  23.693  0.0934  0.0068 -0.0479
  597W        W43588  13.399  13.648  27.393  0.1051  0.1486 -0.0333
  598W        W43589  19.918   4.173   2.884 -0.1603 -0.0145  0.0195
  599W        W43590  17.587   4.765   1.707  0.1812  0.1339 -0.0264
  600W        W43591  31.345   8.945  17.950 -0.2524 -0.1441 -0.2483
  601W        W43592   8.448  15.923  23.656  0.0927  0.2202  0.0129
  602W        W43593  31.844   5.428   0.980  0.0247  0.5301  0.1890
  603W        W43594  21.946  20.257   2.220 -0.0909  0.0165  0.0966
  604W        W43595  17.593   8.745   2.670  0.0458  0.1485  0.2409
  605W        W43596  14.619  13.861  26.623 -0.0809  0.3584 -0.0464
  606W        W43597  33.243  32.216  18.278  0.0729  0.0273  0.1492
  607W        W43598  23.345  23.765  25.075  0.0149 -0.1424 -0.0009
  608W        W43599  10.781  11.035   8.070 -0.0632  0.2081 -0.0449
  609W        W43600  14.862   4.144  28.221 -0.1157  0.1916 -0.1273
  610W        W43601  25.138  17.549  25.497 -0.0905  0.4994  0.0553
  611W        W43602   9.462   3.484   3.461  0.1433 -0.2748  0.0843
  612W        W43603  19.861  27.422   1.865  0.1694 -0.2703 -0.1306
  613W        W43604  10.770   1.024   5.598  0.0209 -0.2308 -0.0928
  614W        W43605  20.933  29.855   6.243  0.1562 -0.1601  0.0030
  615W        W43606  17.265   4.732  22.688 -0.1852  0.3806 -0.1049
  616W        W43607  33.885  26.597   0.050  0.1668 -0.3612  0.2503
  617W        W43608   9.355  16.980   1.831  0.0131 -0.1709  0.2508
  618W        W43609  28.987   6.375   9.225  0.1781  0.2509  0.0114
  619W        W43610  18.534   3.104  27.708  0.0426 -0.1530  0.1442
  620W        W43611  20.630   4.877   1.004 -0.2501 -0.1237 -0.1385
  621W        W43612   8.965  24.544  27.982  0.3040 -0.0216 -0.0836
  622W        W43613  23.557  24.726   2.572 -0.1453 -0.2528 -0.3369
  623W        W43614  18.130  18.802   1.891 -0.0449  0.0404  0.3004
  624W        W43615   4.705  18.403  24.959 -0.1652  0.2446 -0.0942
  625W        W43616  19.278  13.604   2.018  0.0248  0.0619 -0.1204
  626W        W43617  15.626   7.555   6.475  0.0614 -0.0119  0.1048
  627W        W43618  20.351  18.653   4.812 -0.1873  0.3039  0.0204
  628W        W43619  23.033  29.780  22.393 -0.1366  0.4915 -0.0937
  629W        W43620  26.669   8.805   1.110 -0.1208  0.0827 -0.0781
  630W        W43621  34.478  34.321  23.298 -0.3271 -0.1334  0.3015
  631W        W43622  17.449  14.083  25.900  0.0875 -0.0897  0.2758
  632W        W43623  13.643   1.235   9.665 -0.4044  0.1295  0.2666
  633W        W43624  29.811  15.152   6.324  0.1256 -0.3441  0.0873
  634W        W43625  13.013  14.001  22.721 -0.1542  0.0836  0.1475
  635W        W43626  21.499   4.726  26.392 -0.0058 -0.3500  0.1746
  636W        W43627  28.534  16.831  24.510 -0.2543 -0.0566  0.0948
  637W        W43628  23.838  12.521   4.161  0.4393  0.1579  0.5209
  638W        W43629  19.590  16.126   4.180  0.1152  0.2636 -0.1489
  639W        W43630  25.651  19.728   3.209  0.0531  0.1673 -0.0802
  640W        W43631  34.449  12.375   3.255  0.2876  0.0934 -0.1232
  641W        W43632  21.870  29.651  23.279 -0.2468 -0.3170  0.3501
  642W        W43633  10.022   4.800   5.562 -0.0967  0.0001 -0.3604
  643W        W43634   8.511  11.112  24.225  0.0386 -0.2341  0.1375
  644W        W43635  33.006   6.051   8.778 -0.1688  0.3031 -0.1196
  645W        W43636   4.185   7.089   6.690  0.1065 -0.0637 -0.0906
  646W        W43637  26.917   1.883   0.911 -0.3223  0.1737  0.3492
  647W        W43638  24.424   8.178   6.112  0.1460  0.1824 -0.0380
  648W        W43639  13.944  12.125   2.444 -0.0985  0.1279  0.2188
  649W        W43640   9.978  34.734   6.175 -0.3882  0.2619 -0.0205
  650W        W43641  16.009  22.312  16.703 -0.0462  0.0162  0.2014
  651W        W43642  10.664  12.299  28.291 -0.1763 -0.1678 -0.0100
  652W        W43643  14.579  32.636  21.764 -0.4138 -0.2006  0.2843
  653W        W43644  26.168  33.741   8.011  0.1555  0.0389  0.0675
  654W        W43645  19.787  33.728  21.965 -0.0981  0.1776  0.2485
  655W        W43646  10.429   3.711   9.776 -0.2521  0.0998  0.2344
  656W        W43647  12.056   8.251   9.383  0.1623  0.1339 -0.3906
  657W        W43648  13.526   8.754  28.634  0.1065 -0.1262  0.2029
  658W        W43649  10.958   9.151   6.065  0.0356  0.0599 -0.2812
  659W        W43650  22.782  18.532   2.331  0.3053  0.4300 -0.1119
  660W        W43651  15.572  33.375  25.264  0.0820  0.4153  0.0137
  661W        W43652   8.842  27.524  14.828 -0.1216  0.0806 -0.1000
  662W        W43653  19.938  10.495   9.706  0.0023 -0.0793 -0.1826
  663W        W43654  16.293  10.898   1.815  0.1214  0.4251  0.0760
  664W        W43655  18.883   8.640  26.301 -0.1748  0.3597  0.0393
  665W        W43656  12.720  18.673   5.521 -0.1094  0.2157  0.0199
  666W        W43657  14.358  12.177  27.845 -0.0686  0.0394 -0.3089
  667W        W43658   5.173  11.208   8.560  0.1515 -0.0569  0.0038
  668W        W43659  15.705  13.657   5.696 -0.1959  0.0018 -0.0611
  669W        W43660  11.983   9.544   7.010  0.0871  0.1056  0.1060
  670W        W43661  21.699   9.627   3.846 -0.0822  0.2447  0.0446
  671W        W43662  19.400  34.626   4.430  0.0216 -0.1879 -0.1383
  672W        W43663  15.472   0.848   0.978  0.1395  0.1342 -0.1897
  673W        W43664  20.376  20.720   2.383 -0.0251 -0.0615 -0.1521
  674W        W43665   2.204  10.526   7.569  0.4116 -0.0978  0.0973
  675W        W43666  14.988  16.485  24.527  0.0337  0.0381  0.2793
  676W        W43667   9.278   6.582   6.531  0.2990  0.0771  0.2673
  677W        W43668  12.469   7.752  28.374  0.1213  0.2752  0.1923
  678W        W43669  30.920  33.262  21.760  0.0776 -0.0756 -0.5659
  679W        W43670  26.257   4.036   3.822  0.0635 -0.1457  0.2112
  680W        W43671  19.387  13.144  23.642  0.3042 -0.4070  0.1789
  681W        W43672  10.386  11.054  10.538 -0.0840  0.1047  0.0468
  682W        W43673  34.187  12.708   6.605  0.1027  0.0124  0.2313
  683W        W43674  19.372   2.586  24.935 -0.0837 -0.1266 -0.4933
  684W        W43675  23.098  10.214  20.891 -0.1438  0.1828  0.2030
  685W        W43676  22.798   5.982   3.429  0.0280  0.2703  0.1441
  686W        W43677  23.577  24.301   5.199  0.1184 -0.0100 -0.0027
  687W        W43678  30.281  15.042   6.141  0.1219  0.0424  0.2026
  688W        W43679  27.313   6.294   2.568 -0.1760 -0.1234  0.4070
  689W        W43680   0.467  14.908   5.546 -0.5502  0.0604 -0.0553
  690W        W43681  14.528  17.053  23.086 -0.2460  0.0599 -0.3012
  691W        W43682  17.983   5.119   4.151 -0.0333  0.0181 -0.0655
  692W        W43683  30.824  25.739   8.283  0.2343 -0.0315  0.0701
  693W        W43684  13.646   3.778  22.543 -0.1487  0.1523  0.1534
  694W        W43685   7.100  28.663   9.145  0.0751  0.0036  0.0362
  695W        W43686  17.345   5.475   6.509  0.1879  0.0962 -0.3686
  696W        W43687  10.082  34.179   8.009 -0.5078  0.1674 -0.0317
  697W        W43688  33.154   7.867   5.531 -0.3374  0.2011 -0.1593
  698W        W43689  23.549   6.215   7.397  0.0252 -0.4964  0.0969
  699W        W43690  33.359   9.276   6.696  0.1673 -0.0458 -0.0904
  700W        W43691   5.928  27.919   6.925  0.2540  0.0395 -0.2324
  701W        W43692  16.027  16.014   1.303  0.2378  0.3581  0.0763
  702W        W43693  21.615  10.187  19.327  0.1605  0.1504 -0.1468
  703W        W43694  16.846   5.383   9.319 -0.2624 -0.3057 -0.1917
  704W        W43695  12.973  26.782   1.118  0.1162 -0.0682  0.1366
  705W        W43696  14.389   2.558  28.188  0.1431  0.1679  0.1666
  706W        W43697  32.825  18.648  26.502 -0.2467  0.1765 -0.0206
  707W        W43698   6.741   7.393   1.516  0.1504 -0.0684 -0.2088
  708W        W43699  22.606  14.976   9.429 -0.0867 -0.2054 -0.2411
  709W        W43700  32.917  17.045   1.322 -0.1488  0.1769  0.0845
  710W        W43701  21.408  25.684   2.584 -0.0727 -0.3750  0.1055
  711W        W43702  23.350  32.670  28.344 -0.0768 -0.0133  0.0984
  712W        W43703  24.790  31.403  14.757  0.2704  0.1743  0.5606
  713W        W43704  23.406   6.379  26.134  0.2590 -0.0078 -0.3624
  714W        W43705  34.317  15.291   3.880  0.0602 -0.3598  0.1047
  715W        W43706  31.884  15.085  10.986 -0.1953  0.0643  0.0950
  716W        W43707  18.768   4.484   5.591  0.0651  0.0052  0.0842
  717W        W43708  15.018   1.876   3.196  0.0963 -0.0368  0.3030
  718W        W43709  24.342   5.731   9.177 -0.2045  0.0793  0.0769
  719W        W43710  12.336   0.143  26.205  0.0191  0.0559 -0.2159
  720W        W43711   0.710  24.588  14.512 -0.1014 -0.2453 -0.3535
  721W        W43712  24.938  26.999   6.192  0.0337  0.0604  0.0363
  722W        W43713  11.564  13.271  22.343 -0.0376 -0.0463  0.2761
  723W        W43714  14.328  21.735  25.439 -0.0804  0.1332 -0.1005
  724W        W43715   6.554  28.988   5.512 -0.0077  0.1560  0.2549
  725W        W43716  22.130  34.136   2.796 -0.1292  0.0950  0.3221
  726W        W43717  14.729  20.423   0.800 -0.0389  0.2883  0.0034
  727W        W43718   7.248   8.924   5.692 -0.2328  0.1458 -0.0358
  728W        W43719   3.908   4.488   8.241  0.1866  0.2014  0.1643
  729W        W43720   0.233   8.587  18.685  0.1672  0.0616 -0.0757
  730W        W43721   3.933   5.295   7.672 -0.2653  0.0420 -0.0146
  731W        W43722  24.257   7.470   2.723 -0.0828 -0.0005 -0.0675
  732W        W43723   5.889   2.716   3.898  0.3214  0.0168  0.1848
  733W        W43724  12.175  33.658  28.719 -0.0536 -0.1120  0.0146
  734W        W43725  30.847   3.788   0.581 -0.0223  0.3164 -0.0189
  735W        W43726  21.869   4.123   8.739 -0.2182  0.2748  0.0767
  736W        W43727  23.454  19.915   5.592 -0.3039 -0.2164 -0.1275
  737W        W43728  19.420   9.727  26.534 -0.1679 -0.0065  0.1741
  738W        W43729  17.199  11.467   9.223 -0.2312  0.0627 -0.2696
  739W        W43730  19.158   5.585   9.633  0.2748  0.0613  0.0487
  740W        W43731   5.197  17.933   9.477 -0.2536  0.1912 -0.1271
  741W        W43732  24.071   9.274   0.304  0.0814  0.2975 -0.1076
  742W        W43733   6.230  11.971   8.205  0.1353 -0.4907 -0.3468
  743W        W43734   5.591  19.032  25.270  0.0603  0.1495  0.2339
  744W        W43735  14.414   5.966   4.578 -0.2825 -0.1909  0.0756
  745W        W43736  32.071  11.742   0.669 -0.1333  0.2830  0.2348
  746W        W43737   7.570   1.966  25.862  0.2707 -0.0973  0.1834
  747W        W43738  27.654   4.034   8.441  0.0576 -0.0213  0.0372
  748W        W43739  10.066  13.755   8.648  0.0899 -0.1787 -0.0581
  749W        W43740  11.810   6.967   1.893  0.0131  0.1966  0.1068
  750W        W43741  18.796  34.455   4.629 -0.1130  0.0866  0.2066
  751W        W43742  19.051   6.548  17.815  0.1214  0.2395  0.1320
  752W        W43743  15.853  14.630   1.398  0.1263 -0.3031  0.2791
  753W        W43744   8.379  34.600   5.215 -0.1889  0.1112 -0.1016
  754W        W43745  15.846  20.436   4.437  0.0755 -0.1136 -0.1376
  755W        W43746  32.719   3.028   6.733 -0.2620  0.2098  0.2129
  756W        W43747   1.049  10.322   6.148  0.1401  0.0367 -0.1592
  757W        W43748  17.358   9.189   5.030 -0.0998  0.2569  0.1891
  758W        W43749  11.074   5.120  10.536 -0.1923 -0.1614 -0.0181
  759W        W43750   8.754   8.432  25.297  0.2779 -0.1046  0.0585
  760W        W43751   4.150   0.486  26.144  0.1785 -0.1893 -0.2015
  761W        W43752  28.170  16.486   5.122  0.3219 -0.3501 -0.0916
  762W        W43753  13.016  19.276   6.098  0.2156  0.2141 -0.0652
  763W        W43754  15.055   2.857  26.887  0.1138 -0.2485  0.0216
  764W        W43755  24.527  13.442   7.911 -0.0661 -0.0648 -0.0091
  765W        W43756  14.151  19.301  25.466  0.2606 -0.1973 -0.0162
  766W        W43757  29.889   8.229   5.743 -0.0327 -0.1924  0.0135
  767W        W43758  20.022   0.945  28.721 -0.2734  0.2486 -0.0999
  768W        W43759   6.201  21.814  15.230 -0.0497 -0.2731  0.0808
  769W        W43760  31.112   7.717   4.552  0.1264  0.0696  0.1223
  770W        W43761  34.750  11.224   9.150  0.1629  0.1570  0.0956
  771W        W43762   2.345  19.768  21.937  0.1464  0.0119 -0.1836
  772W        W43763   3.562  26.353   3.659  0.1270 -0.2707  0.0666
  773W        W43764  28.450   9.388  28.451  0.0386 -0.1562 -0.0649
  774W        W43765   9.679  14.803   7.021  0.0081 -0.1120 -0.1855
  775W        W43766  20.296   3.457  17.901 -0.0489  0.3575 -0.0335
  776W        W43767   3.086  14.169   0.141 -0.0898 -0.0068 -0.0256
  777W        W43768  14.252  31.805   9.154 -0.0747 -0.0836  0.3768
  778W        W43769  20.397   4.332  22.469  0.1660  0.1810 -0.0008
  779W        W43770   3.379  24.282  19.706 -0.0226  0.1393 -0.4179
  780W        W43771   5.533   8.061   1.686  0.1086  0.0290 -0.2118
  781W        W43772   4.909  20.270  26.773  0.1360  0.3108  0.0425
  782W        W43773  18.253  19.424   4.303 -0.3483 -0.0992 -0.1507
  783W        W43774  31.414  18.260  10.193  0.0257  0.0108 -0.2028
  784W        W43775   0.763  14.733   6.200 -0.1960  0.0987 -0.2399
  785W        W43776   5.305   2.041  25.945 -0.1026 -0.1180  0.2621
  786W        W43777  12.779   4.711  10.687  0.3661  0.1742 -0.0674
  787W        W43778   7.994  13.754   0.524  0.0628  0.3811  0.1239
  788W        W43779  14.564  11.090   7.479 -0.0337  0.3478 -0.2289
  789W        W43780   0.968  11.132   5.597  0.0955  0.0168  0.0883
  790W        W43781  31.477   4.562   3.694  0.1759 -0.0892  0.3472
  791W        W43782  14.190   9.391   4.867  0.0474 -0.0088 -0.2763
  792W        W43783  17.653   1.575   9.150  0.2440 -0.0728 -0.0574
  793W        W43784  10.560  26.989   0.779 -0.0363 -0.0095  0.0302
  794W        W43785  14.496  13.002  28.118  0.1873  0.2389 -0.0982
  795W        W43786   7.592  16.235  10.403  0.0259  0.0376  0.0755
  796W        W43787  13.984  14.213  10.044  0.2563  0.2760  0.1909
  797W        W43788  28.194  10.007   2.092  0.0033  0.0011  0.3753
  798W        W43789  18.501  11.404   6.214 -0.2579 -0.0643  0.0998
  799W        W43790  17.362   0.413   9.387 -0.1923  0.3957  0.1823
  800W        W43791  23.057   5.346  26.055  0.1931 -0.0489  0.2170
  801W        W43792   5.777  18.283   1.747  0.1253 -0.0308  0.0848
  802W        W43793  20.146   2.537   7.449 -0.0247  0.2502 -0.0566
  803W        W43794   6.461   5.800  11.238 -0.0698  0.0380  0.1774
  804W        W43795  20.312  11.234   6.966  0.1197 -0.3389 -0.0015
  805W        W43796  24.148   4.286  21.451 -0.2093  0.0049  0.0367
  806W        W43797  11.294  18.833  25.994 -0.0651  0.0791  0.1330
  807W        W43798  26.334  34.162   1.165  0.1041 -0.1965 -0.1085
  808W        W43799  18.666  12.512  25.177 -0.2876 -0.2440 -0.1321
  809W        W43800  28.979  33.368  24.840  0.0563 -0.1607  0.0958
  810W        W43801  11.454  31.435   8.183 -0.0394 -0.1998  0.0869
  811W        W43802  16.612  18.095  26.696 -0.2338 -0.0610  0.2513
  812W        W43803  10.865  22.113  27.946  0.4307  0.0315  0.1360
  813W        W43804   8.043   4.529   2.142  0.2140  0.4207 -0.1933
  814W        W43805  10.078  32.372   4.270  0.0911 -0.1066 -0.1559
  815W        W43806  17.712   8.509   4.767 -0.1988 -0.1356 -0.0515
  816W        W43807  15.817   3.572   6.844 -0.1271  0.0282  0.1648
  817W        W43808  17.353  18.768   3.341  0.3513  0.1521  0.1586
  818W        W43809  27.455  10.671   9.172 -0.2491  0.1691 -0.1067
  819W        W43810   8.349  32.097   6.421  0.0003  0.1540 -0.1422
  820W        W43811  16.834   0.450   8.541  0.1256  0.0580 -0.0403
  821W        W43812  20.299  14.903   6.619 -0.1811  0.0667 -0.1338
  822W        W43813   9.606  16.929   6.971 -0.3526 -0.1474 -0.2336
  823W        W43814  16.033  19.859   3.784  0.0498 -0.3212 -0.1232
  824W        W43815  31.475  21.386  10.884 -0.0980  0.1858 -0.0628
  825W        W43816   3.299   5.158   5.658  0.1617 -0.0204  0.0319
  826W        W43817  13.805  18.575  24.884  0.1225 -0.1611 -0.0480
  827W        W43818  29.109   5.490   4.613  0.4158  0.2362 -0.0063
  828W        W43819   8.947  13.377   6.134 -0.1965 -0.0668 -0.1253
  829W        W43820   8.305  10.126  29.151 -0.1967  0.1493  0.1738
  830W        W43821   5.806  29.522  22.939 -0.2542  0.0481  0.0026
  831W        W43822  17.535  31.521   5.604  0.0878 -0.0675 -0.0653
  832W        W43823   0.453   4.005   1.338 -0.1960 -0.0820 -0.1105
  833W        W43824  10.864  17.041   9.249 -0.2624 -0.0092 -0.0916
  834W        W43825  14.229   2.926   2.721  0.2400  0.1324  0.3369
  835W        W43826  10.832  19.157   7.154  0.1578  0.1553 -0.0932
  836W        W43827  12.414  33.289   5.733  0.1103  0.2926  0.3284
  837W        W43828  20.249  17.704   6.207 -0.1760  0.1125 -0.2156
  838W        W43829  13.988  21.624  23.692  0.0958  0.0579 -0.1290
  839W        W43830  13.877  10.121   9.801 -0.3331  0.1343 -0.1676
  840W        W43831  10.213  17.238   2.746 -0.4714 -0.0005 -0.1562
  841W        W43832   1.794   6.784  28.899 -0.2972 -0.1764  0.0823
  842W        W43833  25.260   5.929  18.451 -0.2085 -0.1070 -0.4715
  843W        W43834   9.960  13.273  26.771  0.1505 -0.0128  0.0184
  844W        W43835  17.230  21.625   5.639  0.3371  0.0585  0.2185
  845W        W43836   9.603   4.326  10.620  0.2193  0.2391  0.0201
  846W        W43837  34.721   7.199   0.901  0.1516 -0.2462  0.1149
  847W        W43838  16.214  32.518  24.570  0.0833  0.0153  0.1101
  848W        W43839   9.141   9.434  10.773  0.0288  0.4322 -0.1418
  849W        W43840  33.203  10.933  28.049 -0.2889 -0.0268 -0.0946
  850W        W43841  11.698  33.658   0.399  0.0256 -0.0479  0.0990
  851W        W43842  16.818  16.954   3.659 -0.0686 -0.1312  0.2295
  852W        W43843   2.235   9.415   5.975  0.1124  0.1038 -0.2928
  853W        W43844  22.259  23.259  18.698 -0.1456  0.1694  0.3880
  854W        W43845  16.729  34.421   9.514 -0.0870 -0.1744  0.0723
  855W        W43846  22.466   1.832   8.038  0.1295 -0.0284 -0.3485
  856W        W43847  20.933  12.728  28.110  0.0366 -0.0527  0.1897
  857W        W43848   9.238  31.616  26.834  0.2003  0.0213  0.0627
  858W        W43849  22.441  29.143   4.043  0.1517 -0.1646  0.0412
  859W        W43850   9.035  20.005   0.309 -0.1134  0.1446  0.2861
  860W        W43851   5.947  10.515  10.571 -0.2742  0.0978  0.0684
  861W        W43852  18.220  31.624  22.446  0.3874 -0.1964 -0.2662
  862W        W43853  10.280   4.105   6.036 -0.0397  0.1580  0.0351
  863W        W43854  17.525   7.897   9.236  0.1409 -0.3663  0.2654
  864W        W43855  31.314   5.056   5.688  0.0708 -0.1421 -0.1750
  865W        W43856  22.866  16.701   7.963  0.3288 -0.1847 -0.0067
  866W        W43857  31.309   5.962  22.292  0.1018  0.3267 -0.0530
  867W        W43858  28.473  16.862  25.675 -0.0044  0.1714  0.0841
  868W        W43859  11.337   7.628  11.273  0.0892  0.0632  0.0664
  869W        W43860   7.992  10.529   9.279 -0.1173 -0.2697 -0.1211
  870W        W43861  11.237   1.842   9.639  0.4108  0.0244  0.3185
  871W        W43862  24.910   6.531   3.668 -0.3810  0.0138 -0.0218
  872W        W43863  15.525   9.757  22.991 -0.3443  0.0204 -0.1413
  873W        W43864  23.556  33.447   5.427  0.1812  0.2786 -0.1851
  874W        W43865  13.361  11.054   0.533 -0.3429  0.0550  0.0656
  875W        W43866  14.875   2.480   6.434  0.0106 -0.4311 -0.0032
  876W        W43867  17.716  18.776   0.187 -0.1921 -0.1172 -0.1997
  877W        W43868   4.829   5.885   2.745 -0.1423  0.1012 -0.1623
  878W        W43869  11.536  13.576   7.743 -0.0324 -0.2311  0.1453
  879W        W43870  32.133  26.826   3.319 -0.1888 -0.0117 -0.0992
  880W        W43871  20.906  25.990  24.099  0.1676 -0.1694 -0.2229
  881W        W43872  26.849  24.029   8.456 -0.0491 -0.2808  0.0355
  882W        W43873  14.925  33.208   2.138 -0.0578 -0.2435  0.0808
  883W        W43874  20.988  11.651   2.788 -0.0863 -0.1929 -0.2383
  884W        W43875  32.478  23.877   0.364  0.0864  0.1348 -0.1445
  885W        W43876  21.742   6.932   7.318  0.2737  0.2256 -0.1515
  886W        W43877  16.360  24.708   2.569 -0.1590  0.2202  0.1054
  887W        W43878  11.692   5.274  23.696  0.2926  0.0215  0.1352
  888W        W43879  22.360   8.958  20.707 -0.4445 -0.0259  0.0167
  889W        W43880  21.374   7.443  16.692  0.1993  0.0226 -0.2243
  890W        W43881  26.778   3.477   3.663  0.0038  0.1567  0.2098
  891W        W43882  15.632  34.643  26.244  0.0050 -0.0018  0.0007
  892W        W43883  15.468  18.302   3.629  0.1980 -0.1885 -0.0939
  893W        W43884  15.160  14.431  26.770 -0.0430 -0.3711 -0.0867
  894W        W43885   6.491  13.100  29.203  0.1431  0.0775 -0.1737
  895W        W43886  26.157   8.938  28.878  0.0223 -0.0734  0.0420
  896W        W43887  13.661   7.242  28.908  0.1969 -0.0094  0.0766
  897W        W43888   5.136  28.303  25.707  0.0363  0.1056 -0.1827
  898W        W43889  28.060   9.002   7.870 -0.0446 -0.1284 -0.0686
  899W        W43890  20.862   9.353   4.317 -0.1127 -0.1302 -0.1197
  900W        W43891   5.071  15.018  10.840 -0.1403 -0.0462  0.1900
  901W        W43892  22.329  21.000  26.839  0.1066 -0.0205  0.1056
  902W        W43893   0.940   5.016   3.826  0.0903 -0.2298 -0.2479
  903W        W43894  22.583  27.678  27.876  0.0328  0.0734  0.3253
  904W        W43895  17.650  30.523  22.753 -0.1973 -0.0350  0.0303
  905W        W43896  14.765  14.325   8.286 -0.2825  0.1122  0.1984
  906W        W43897  24.075  19.346  24.861 -0.0074  0.1863 -0.3278
  907W        W43898  29.723  21.869   2.436  0.0274  0.0195 -0.0072
  908W        W43899  16.531   8.648   0.900  0.1677  0.1444 -0.2856
  909W        W43900   0.856  18.101   8.042  0.0878  0.2842  0.0115
  910W        W43901  19.241  15.631  26.075  0.1354  0.2198  0.3124
  911W        W43902  22.620  32.072   7.996  0.2351  0.1516  0.0071
  912W        W43903   7.778   6.100   1.557  0.0228  0.1013 -0.0018
  913W        W43904  16.027  33.617   7.636 -0.1082  0.2436 -0.0919
  914W        W43905  11.232   6.260   7.243  0.1082  0.1022  0.1705
  915W        W43906  27.977  17.321  17.097 -0.0138 -0.2078 -0.0542
  916W        W43907  12.486  18.710   8.753 -0.1739 -0.1478  0.0223
  917W        W43908  11.019  28.072  27.442  0.1881  0.2764  0.0577
  918W        W43909  26.538  21.888   8.138  0.3604 -0.0606  0.0482
  919W        W43910   7.100  18.219   7.631 -0.0916  0.2024 -0.0660
  920W        W43911  18.450  31.961   2.230 -0.2493 -0.4083  0.3106
  921W        W43912   0.422   5.263  19.589 -0.1447  0.2625  0.1336
  922W        W43913  34.486   4.517   8.477  0.0290 -0.0687 -0.1410
  923W        W43914  21.627   2.066   0.917 -0.1933 -0.0954 -0.2339
  924W        W43915  22.461  22.016   2.851  0.1278  0.1011 -0.1647
  925W        W43916   6.129  11.996  10.844 -0.0548  0.2859 -0.1108
  926W        W43917  22.919   7.705   1.904  0.3157 -0.0353  0.2525
  927W        W43918  24.748  24.254   6.746  0.0307  0.2556  0.2402
  928W        W43919   7.291  16.844   3.368  0.2820  0.2304 -0.1858
  929W        W43920   8.623  10.018   2.865 -0.1911 -0.0434 -0.0465
  930W        W43921   7.069  14.750  28.165 -0.0332  0.2216  0.1467
  931W        W43922  10.367  19.494   4.185  0.3184 -0.0937  0.4401
  932W        W43923  16.589   3.963   2.355 -0.1045  0.1755 -0.0753
  933W        W43924  21.247   8.062   2.328  0.1659  0.0584 -0.0837
  934W        W43925  19.990   2.264   4.664  0.1024 -0.0808 -0.0332
  935W        W43926   6.979   2.874   8.984  0.0257  0.0375  0.1925
  936W        W43927  10.540  26.982   8.383 -0.2875  0.1088 -0.0022
  937W        W43928   4.151  19.089   6.398 -0.1340  0.3045  0.0421
  938W        W43929  11.699  24.038   3.886 -0.3646 -0.0941  0.1955
  939W        W43930   9.056  12.547   4.936 -0.2445 -0.0407 -0.0401
  940W        W43931  16.117  17.946   6.164  0.1103 -0.0179  0.2343
  941W        W43932  10.624  13.722   6.644 -0.0776  0.0236 -0.1389
  942W        W43933  24.901  25.709  20.640 -0.1588  0.0200  0.1025
  943W        W43934  18.635   6.651   4.163 -0.0518 -0.1878  0.1108
  944W        W43935  13.627  19.948   4.510 -0.1038  0.0747 -0.2258
  945W        W43936   6.915  33.807   0.428 -0.3851  0.3083 -0.0309
  946W        W43937  17.765   0.778   6.378 -0.0266  0.3376 -0.2037
  947W        W43938  26.816  15.476   5.733 -0.0036 -0.1686  0.2188
  948W        W43939  19.702  13.481  18.184  0.1567  0.0049  0.0105
  949W        W43940  20.562   5.516  24.071 -0.0486  0.0159  0.0620
  950W        W43941   1.097   9.410   9.965 -0.0100  0.0283 -0.0056
  951W        W43942  15.127   1.432   7.731  0.1415 -0.0636 -0.3878
  952W        W43943  10.625  13.070  10.034  0.0318 -0.0259 -0.0540
  953W        W43944  22.519  26.021   8.926 -0.1218 -0.2204 -0.1435
  954W        W43945  19.649  17.746  26.960 -0.3186 -0.0957  0.0794
  955W        W43946  15.428  26.800  19.379  0.0746 -0.1544  0.0019
  956W        W43947  15.294   7.201  25.221  0.2758 -0.0599  0.3005
  957W        W43948  24.763  14.585   5.313  0.0164  0.4380  0.1989
  958W        W43949   9.360   5.216   1.644 -0.1170 -0.1724 -0.0293
  959W        W43950  15.200   3.813   9.211 -0.1778  0.1519  0.1302
  960W        W43951   2.285   5.775  10.489 -0.2408  0.0066  0.0050
  961W        W43952   4.276  11.032   9.008 -0.1240 -0.0283 -0.0611
  962W        W43953  20.726  11.872  27.795  0.0925  0.1901  0.0583
  963W        W43954   4.425  15.346  11.889  0.1777 -0.0050 -0.1243
  964W        W43955  18.974  10.339   3.498  0.0234  0.0172 -0.0050
  965W        W43956  21.620   2.353   3.205 -0.0775 -0.1524 -0.2037
  966W        W43957   9.054   4.820  29.219  0.3720  0.1400  0.1710
  967W        W43958   7.907  15.927   5.925  0.0558 -0.0405 -0.3479
  968W        W43959  14.192  15.983   0.523 -0.2094 -0.0766  0.0808
  969W        W43960  16.625  12.511  20.850  0.1498  0.3104 -0.1949
  970W        W43961   8.674  11.702   9.921 -0.2053  0.1239 -0.1194
  971W        W43962  20.454  16.530  27.320 -0.3589 -0.1523 -0.0971
  972W        W43963  14.396   0.236   3.142  0.1385  0.1074  0.2615
  973W        W43964   3.304  19.594  27.488 -0.0230 -0.0661  0.0923
  974W        W43965  12.029  14.942  20.825 -0.0423  0.1798  0.0034
  975W        W43966  23.286  17.949  25.146  0.1898  0.2607 -0.2948
  976W        W43967   5.643  10.368   8.577 -0.0979 -0.4019 -0.2024
  977W        W43968  21.352  15.745   6.179  0.4087  0.1568 -0.4449
  978W        W43969   5.597  17.884  28.241 -0.1788 -0.3170  0.1172
  979W        W43970  14.363   0.607   7.117  0.1870 -0.4661 -0.1323
  980W        W43971  30.603  20.775  22.179 -0.0815 -0.1231  0.0699
  981W        W43972  13.591  25.690   6.437  0.1105 -0.1541 -0.0679
  982W        W43973   7.325  24.903  15.252  0.2396 -0.1781 -0.1203
  983W        W43974  17.429  17.712   1.064 -0.1244  0.0599  0.1618
  984W        W43975  11.109  17.173  28.558  0.0150 -0.0959  0.0590
  985W        W43976  10.354  12.712  27.176  0.2021 -0.0103  0.0797
  986W        W43977  20.520  10.162   4.751 -0.3813 -0.2980  0.2151
  987W        W43978   9.528   9.617   7.747  0.0051  0.2349 -0.1401
  988W        W43979  27.052  15.130   2.171 -0.3548  0.1988  0.1178
  989W        W43980   1.226   9.280   3.195  0.2806  0.0189 -0.0567
  990W        W43981  18.871  17.979  27.809 -0.3760 -0.1177 -0.0433
  991W        W43982   9.800  13.382   6.467  0.0888  0.1337  0.1794
  992W        W43983  22.627  16.574   2.916 -0.1070 -0.0460  0.0978
  993W        W43984  25.191  17.559   2.367  0.0328  0.4400  0.2450
  994W        W43985   8.483  20.503   9.576  0.0582 -0.0491  0.4663
  995W        W43986  21.357  27.507   6.209 -0.0643 -0.0703 -0.0326
  996W        W43987   8.197  13.461   3.152  0.1059 -0.1073 -0.1767
  997W        W43988  26.888  34.573   4.734 -0.2872  0.0457 -0.0932
  998W        W43989  19.471   7.975   1.633  0.0342 -0.0655  0.0759
  999W        W43990  28.093   7.025  22.803 -0.2858  0.1629 -0.2317
 1000W        W43991  15.040  33.477   3.564 -0.1078 -0.2379 -0.1767
 1001W        W43992  18.136  31.324   3.771 -0.1378  0.0980 -0.0653
 1002W        W43993  10.249  17.204   9.275  0.0824  0.4385  0.0157
 1003W        W43994   9.799  32.792   3.211 -0.1961  0.0958  0.1010
 1004W        W43995  24.129  16.575   1.588  0.3739  0.0528 -0.0161
 1005W        W43996  12.167  10.040   3.838  0.0941 -0.0070 -0.0370
 1006W        W43997  12.286  12.633  25.394 -0.1231  0.0810  0.4184
 1007W        W43998  17.815  14.246  26.211  0.2402 -0.0960 -0.3996
 1008W        W43999  10.431  29.809   3.237 -0.2472  0.2181 -0.0158
 1009W        W44000   8.589  16.963   7.538  0.1921  0.1035  0.0104
 1010W        W44001  24.605  11.720  27.093 -0.1784  0.1945 -0.2398
 1011W        W44002  13.944  32.383   9.733  0.0008  0.0932  0.0601
 1012W        W44003  25.831   6.217   8.082 -0.0318 -0.0322  0.0217
 1013W        W44004  17.077  22.746   3.431 -0.0253 -0.0741 -0.1454
 1014W        W44005  12.231  29.973  25.549 -0.1257 -0.0680 -0.0856
 1015W        W44006   6.090  24.064  28.616  0.1240  0.1974  0.1392
 1016W        W44007  13.743   5.964  20.878 -0.0864  0.2088 -0.1088
 1017W        W44008  19.918  19.142  28.789 -0.0185 -0.1472 -0.0946
 1018W        W44009   1.664  22.399  26.900  0.0145 -0.1722  0.0062
 1019W        W44010  24.174  30.137  20.449 -0.0176  0.1944  0.0559
 1020W        W44011  17.693  14.172   8.493 -0.0418  0.1020  0.2359
 1021W        W44012   1.773  19.201  11.067 -0.2852 -0.0152  0.2038
 1022W        W44013  15.578  33.310   9.386 -0.0630 -0.0889 -0.0223
 1023W        W44014  12.465  14.394   6.018 -0.0791  0.1790 -0.0868
 1024W        W44015  14.029  14.005   7.548  0.2549 -0.2460 -0.1164
 1025W        W44016   3.694  18.271  26.343 -0.2766  0.0340  0.1039
 1026W        W44017   8.340   5.134   6.768  0.1148  0.0559 -0.3660
 1027W        W44018  33.310  33.032  26.650 -0.1132  0.0768  0.1638
 1028W        W44019  10.000  18.872   4.669 -0.2902  0.2764  0.2348
 1029W        W44020  21.286  26.298   3.333 -0.3244 -0.1808  0.1676
 1030W        W44021  13.329   4.514  11.411 -0.2722  0.3212 -0.1917
 1031W        W44022  14.614  20.616   5.999  0.1294  0.2121  0.0014
 1032W        W44023  18.346  33.192  16.761 -0.2018 -0.1377 -0.1792
 1033W        W44024   0.659   6.893  19.157  0.4310  0.2099  0.2714
 1034W        W44025  23.657   0.249   7.379 -0.0171 -0.1837  0.0025
 1035W        W44026   7.883  33.757  10.723 -0.0044 -0.1671 -0.4259
 1036W        W44027  21.818  20.458   1.011 -0.0887 -0.0347 -0.0171
 1037W        W44028  16.137   4.843  21.996 -0.0942  0.2313 -0.2075
 1038W        W44029  16.417  15.642   7.111 -0.2132  0.3542  0.3666
 1039W        W44030  12.273   4.049  11.247  0.0153 -0.2061  0.0178
 1040W        W44031  22.895   5.696   7.903  0.0264  0.1657 -0.2286
 1041W        W44032   4.653  23.915   6.583 -0.3541 -0.1096 -0.0250
 1042W        W44033  25.314  19.469   6.859 -0.1363 -0.3621 -0.3122
 1043W        W44034  13.748   7.509   8.425 -0.0860  0.0396  0.3959
 1044W        W44035   6.184  22.691   9.099  0.0899 -0.3504  0.0450
 1045W        W44036  15.112   8.737   7.685  0.1198 -0.1430 -0.0524
 1046W        W44037  14.181  11.251   3.479 -0.0940 -0.0309  0.3751
 1047W        W44038  19.964  27.119   9.402 -0.3475  0.1317  0.0748
 1048W        W44039   1.696  16.301   5.931 -0.2215 -0.1960  0.0445
 1049W        W44040  30.749  31.229  20.969 -0.1604  0.2567 -0.3164
 1050W        W44041   5.725  26.861   8.480 -0.1683 -0.5516 -0.0457
 1051W        W44042  11.291  14.935   4.618 -0.0215 -0.3068 -0.1753
 1052W        W44043   8.250   0.729   3.069 -0.1509 -0.2040  0.0855
 1053W        W44044  18.021  15.598  22.885  0.0126  0.0866  0.1210
 1054W        W44045   8.692  14.016   9.315  0.2998  0.1551  0.1022
 1055W        W44046   9.976   2.273   8.086  0.0403  0.0981  0.0705
 1056W        W44047  12.623  16.995   7.291  0.0035  0.0342 -0.0801
 1057W        W44048   5.240  14.547  26.857  0.1495  0.2048 -0.0681
 1058W        W44049  28.766  15.202   7.801  0.1344 -0.1500 -0.0451
 1059W        W44050  15.736  10.212   2.787  0.1061 -0.1226 -0.3946
 1060W        W44051  19.230  22.768   1.945  0.1005 -0.0335  0.4609
 1061W        W44052   1.743   0.102   2.073  0.1335 -0.1498  0.1071
 1062W        W44053  17.713  13.699   5.811 -0.1887  0.1496  0.0613
 1063W        W44054  26.711  18.206   5.799  0.4346 -0.2103 -0.0193
 1064W        W44055  30.162  21.341   4.076 -0.1666  0.0153 -0.1200
 1065W        W44056  18.192  10.701   7.245  0.3316 -0.0020 -0.1144
 1066W        W44057   8.000   2.806   6.734  0.3552  0.0736  0.1562
 1067W        W44058  19.653   5.873  28.811  0.1722 -0.1074 -0.3294
 1068W        W44059  33.555   4.373   8.595 -0.0852 -0.0007  0.0963
 1069W        W44060  14.963  15.068   3.163  0.2822  0.0805 -0.0117
 1070W        W44061  12.342   6.324  10.362 -0.0825  0.1967 -0.2211
 1071W        W44062  12.928  24.854   2.366 -0.3745  0.1032  0.1903
 1072W        W44063   9.672  10.691   5.514 -0.1870 -0.1910 -0.0465
 1073W        W44064  14.299  11.780   3.622  0.1867 -0.2253  0.0704
 1074W        W44065  29.995  19.516   3.603 -0.0131 -0.0534  0.5138
 1075W        W44066   7.383   8.537   8.429 -0.0134 -0.2426 -0.1477
 1076W        W44067   6.999  33.716   5.953  0.1544 -0.0401  0.0914
 1077W        W44068  13.340  15.463  18.972 -0.2208 -0.2271 -0.1697
 1078W        W44069  15.422   4.560   2.949  0.0744 -0.1539 -0.2297
 1079W        W44070  10.232  12.513   4.804  0.0945  0.1357 -0.0275
 1080W        W44071   3.762   6.793  23.159  0.1006  0.2871  0.0360
 1081W        W44072   5.175  12.267   3.760 -0.1551  0.1053  0.1421
 1082W        W44073  10.960  32.810   1.875  0.1282  0.2784 -0.2447
 1083W        W44074  12.468   5.929   2.462 -0.0240  0.3965  0.0864
 1084W        W44075   0.292   2.716   7.470  0.1212  0.1098 -0.1263
 1085W        W44076  28.745   8.503  23.089  0.1425 -0.0734 -0.1322
 1086W        W44077  11.112   2.296  10.780  0.4466 -0.0486 -0.1429
 1087W        W44078  12.608  20.248   4.001  0.0189 -0.1413 -0.1448
 1088W        W44079  16.753  11.873   3.873  0.1866 -0.2189 -0.0549
 1089W        W44080  14.186  33.567   2.560  0.0553  0.2567 -0.0356
 1090W        W44081  16.768   6.398   8.392  0.2187  0.4054 -0.2767
 1091W        W44082   5.648  32.944   5.677 -0.2555  0.1409 -0.1827
 1092W        W44083  13.879   9.540   5.896 -0.2427 -0.0593  0.0184
 1093W        W44084   9.507   9.927   6.229 -0.2425 -0.1147  0.0766
 1094W        W44085  24.534   2.661  23.403  0.0705  0.0079  0.1040
 1095W        W44086  30.012  14.718  10.541  0.3288  0.0170  0.0383
 1096W        W44087   7.586  11.399  20.755 -0.1421 -0.2602  0.1645
 1097W        W44088  21.538  16.627   5.359 -0.0680  0.2878 -0.2708
 1098W        W44089   7.427   9.908   6.398  0.6904  0.1166  0.3003
 1099W        W44090  13.405   9.222  10.896  0.2204 -0.4478 -0.1411
 1100W        W44091  26.881  22.437   7.096  0.0226 -0.4240  0.0976
 1101W        W44092  18.857  18.219  25.149  0.1071  0.0503 -0.2676
 1102W        W44093   0.921   4.269   5.048  0.4146 -0.1066  0.0077
 1103W        W44094  13.462   8.640  19.110  0.2932 -0.2532  0.0732
 1104W        W44095   6.983   7.013  18.139  0.1124  0.3999 -0.0217
 1105W        W44096  24.631  14.498   1.726  0.0723 -0.0897  0.1718
 1106W        W44097  31.743  22.480   8.709 -0.0531 -0.0512 -0.4018
 1107W        W44098  14.912  10.549   3.693  0.0396 -0.0051 -0.0323
 1108W        W44099  23.083  19.117   4.552 -0.0846 -0.2253 -0.0647
 1109W        W44100   1.715  16.153   8.016 -0.0642 -0.0649 -0.0615
 1110W        W44101  13.724   9.955  10.633  0.0883 -0.3886  0.0339
 1111W        W44102  17.806  21.792   8.743 -0.0918 -0.0400  0.0121
 1112W        W44103  19.072  20.087   8.800 -0.0059 -0.0460 -0.0295
 1113W        W44104  12.430  22.073  18.526 -0.1444  0.0989  0.0331
 1114W        W44105  11.670  29.167   7.580 -0.0908  0.0227 -0.0702
 1115W        W44106   2.152  20.924  26.542  0.2091 -0.2566 -0.0607
 1116W        W44107  16.075  21.183   0.214  0.0000  0.1530 -0.2823
 1117W        W44108  12.203  26.295   2.448 -0.1269  0.0988  0.0737
 1118W        W44109  15.488  30.989   7.059 -0.0232  0.0449 -0.2138
 1119W        W44110  25.140   1.960  27.112  0.2257  0.2427  0.2880
 1120W        W44111  20.549   4.761   2.905  0.3684  0.0098  0.0447
 1121W        W44112  26.403  14.005   5.758 -0.1061  0.2780  0.1836
 1122W        W44113  11.627  22.171  27.383 -0.0129  0.2353  0.2548
 1123W        W44114  23.568  19.986  26.630 -0.1234  0.1343  0.1854
 1124W        W44115  22.664   7.017   2.436  0.1037  0.0541 -0.0983
 1125W        W44116  17.212  27.322   4.443 -0.1284 -0.3203 -0.0096
 1126W        W44117  21.617  10.205   3.603 -0.0253 -0.2495 -0.0119
 1127W        W44118  24.375   1.777  13.280  0.1740  0.2189  0.0989
 1128W        W44119  14.848  21.171   0.274 -0.1099  0.0911 -0.0670
 1129W        W44120  12.660   2.170   7.552 -0.0602 -0.1101 -0.0384
 1130W        W44121  18.465  20.037  23.412 -0.1165 -0.1624 -0.0226
 1131W        W44122  32.201  12.802   3.733 -0.1535 -0.1100 -0.1026
 1132W        W44123   7.907   7.621  29.005 -0.0211 -0.0247 -0.1793
 1133W        W44124  13.339   2.166   3.898 -0.0988  0.0130 -0.1431
 1134W        W44125   9.790  15.765   5.486 -0.1468 -0.0479 -0.2401
 1135W        W44126   8.870  13.329   8.193  0.2124 -0.0629  0.1826
 1136W        W44127  24.029  16.347  15.750 -0.0804  0.1149 -0.0039
 1137W        W44128  11.757   0.154   5.621  0.0600 -0.0443  0.2765
 1138W        W44129  15.222   9.945   7.130  0.0175  0.1745  0.1549
 1139W        W44130  24.010  31.694   6.924  0.1372  0.2091  0.0903
 1140W        W44131  10.953   0.341  25.835  0.2412 -0.1059 -0.0274
 1141W        W44132   7.073   8.591   1.945 -0.1206 -0.2291  0.3275
 1142W        W44133  12.857   7.485   9.469  0.1361 -0.0068 -0.0440
 1143W        W44134  31.334  14.170  25.060  0.2854  0.1629 -0.2170
 1144W        W44135  18.359  13.512   9.489 -0.3307 -0.1666 -0.1065
 1145W        W44136  22.987  11.980   9.048  0.1400  0.1454 -0.0696
 1146W        W44137   1.699  33.781   8.670  0.0364 -0.5231  0.0935
 1147W        W44138  23.514   0.912   1.509  0.2610  0.0190 -0.2934
 1148W        W44139   9.873   8.445   8.007  0.3259 -0.3871 -0.1468
 1149W        W44140  16.080   5.300   2.074 -0.2965 -0.1195  0.0436
 1150W        W44141  29.777  34.585   5.800  0.1233  0.0838  0.0202
 1151W        W44142  23.651  14.114   4.021  0.3431  0.1189 -0.0807
 1152W        W44143  20.549  14.580   6.337  0.3276  0.3647  0.3121
 1153W        W44144   7.914  32.390   9.846 -0.0551  0.1091 -0.1890
 1154W        W44145   2.042  11.998  28.725 -0.0462  0.2484  0.1361
 1155W        W44146  13.989  32.798   8.775  0.6212 -0.0618  0.0511
 1156W        W44147  16.160  13.919  18.490 -0.3101  0.1363 -0.0877
 1157W        W44148   3.439  16.440   1.203  0.2926  0.4219  0.3691
 1158W        W44149   6.409   7.938   8.500 -0.0758 -0.1301 -0.3409
 1159W        W44150  16.050  18.255   3.771  0.0165 -0.0232 -0.1114
 1160W        W44151   8.391   8.859   9.255  0.2196  0.0994  0.0441
 1161W        W44152  13.242   3.526   1.737  0.0902 -0.1788 -0.2885
 1162W        W44153  22.299  30.204   4.987 -0.2129 -0.2948 -0.2563
 1163W        W44154  27.163  11.752  25.123  0.1916  0.0867 -0.1565
 1164W        W44155  15.594   8.926   4.837 -0.2451  0.0399 -0.1334
 1165W        W44156  30.229  17.304  10.006  0.0340 -0.3189 -0.1791
 1166W        W44157  21.435  20.231   8.678 -0.0573  0.5111  0.2006
 1167W        W44158  18.732  33.397   0.865 -0.0541  0.0062 -0.2227
 1168W        W44159  12.024  29.721  29.093  0.2213 -0.0627  0.0835
 1169W        W44160  26.727   5.582  26.674 -0.0128  0.2223  0.1710
 1170W        W44161  17.609  10.497   8.114  0.0182 -0.3491 -0.0281
 1171W        W44162  18.716   1.268  17.789  0.3821 -0.0674 -0.0639
 1172W        W44163  18.436  10.596   8.414 -0.0054 -0.0807 -0.0536
 1173W        W44164   4.440  25.723   7.170  0.0367 -0.1688 -0.0393
 1174W        W44165   5.206  17.648  18.883  0.3748 -0.2684  0.0847
 1175W        W44166  16.351  13.682  26.517  0.1752 -0.3271  0.2506
 1176W        W44167  14.851   3.622   8.922  0.3712  0.0625  0.2139
 1177W        W44168  24.272  15.753   5.292  0.1143 -0.0001 -0.0151
 1178W        W44169  12.472   8.088  11.035  0.1019 -0.0217  0.0609
 1179W        W44170  15.558   0.893   6.513  0.0109  0.0378  0.0713
 1180W        W44171   2.430  34.553  28.412 -0.0938  0.0877  0.1784
 1181W        W44172  22.106   6.611   6.969 -0.0040 -0.1674  0.1277
 1182W        W44173  16.960  18.618   8.438 -0.2004 -0.2077 -0.2939
 1183W        W44174   8.101   0.079   7.085  0.1950 -0.0373  0.2078
 1184W        W44175  18.763  20.083  24.140  0.0623 -0.0763  0.2206
 1185W        W44176  15.524  12.306   5.760  0.2226  0.1120 -0.3631
 1186W        W44177  27.788   8.174   6.756 -0.0352 -0.1662 -0.1565
 1187W        W44178  14.390  25.323   1.880  0.1326  0.0667 -0.0258
 1188W        W44179  19.995   8.390   5.942 -0.2256 -0.0955  0.1448
 1189W        W44180   5.654   5.371  10.280  0.0436  0.1990 -0.1885
 1190W        W44181  11.840   2.045   0.679  0.2133  0.1080  0.3326
 1191W        W44182  32.906  20.881   8.189  0.0786  0.1082 -0.1488
 1192W        W44183  10.570   7.224   7.866 -0.2100  0.1468 -0.0308
 1193W        W44184  16.273   7.955   7.173 -0.1497 -0.1277  0.2171
 1194W        W44185  20.598  18.472   7.211  0.0848  0.1450  0.1178
 1195W        W44186  10.327  11.338   6.666  0.0240 -0.0744 -0.0039
 1196W        W44187  31.263  33.386   0.656  0.2341  0.0575  0.4222
 1197W        W44188  18.766  23.594   4.588  0.2033  0.2549  0.5102
 1198W        W44189  21.383  10.323  24.080 -0.0659  0.0514  0.4664
 1199W        W44190  30.251  22.391  28.104  0.1520  0.1548  0.1871
 1200W        W44191  15.399   8.906   3.952  0.0798  0.2046 -0.1267
 1201W        W44192   7.598  18.233   8.239 -0.0954 -0.1297 -0.1716
 1202W        W44193  20.770  22.153   0.031 -0.1118  0.0486 -0.0918
 1203W        W44194  16.925   7.875   0.947  0.0390  0.1181  0.0133
 1204W        W44195   9.250  14.843   0.415  0.0998  0.0118 -0.0868
 1205W        W44196  21.681   2.912   6.825  0.0530 -0.1770 -0.1382
 1206W        W44197   6.798   4.213  10.731  0.1759  0.0121  0.1241
 1207W        W44198   5.652   8.080   8.653 -0.0185 -0.0890 -0.1411
 1208W        W44199   7.311  18.812   2.511  0.3520  0.2001 -0.3043
 1209W        W44200   9.234  24.286  25.884 -0.3480  0.0654 -0.1731
 1210W        W44201  21.277  25.802   8.846 -0.3423  0.1091 -0.1662
 1211W        W44202  17.851  10.564  10.465  0.0942 -0.0529  0.2895
 1212W        W44203  17.519   3.013   0.289  0.1389 -0.1486 -0.0847
 1213W        W44204  21.478  19.994  25.484 -0.2191  0.2521 -0.0063
 1214W        W44205  17.412  32.219   9.839  0.0701 -0.1934  0.0173
 1215W        W44206  15.281  16.867  27.935 -0.2560 -0.0429 -0.2180
 1216W        W44207  12.782  14.570  28.898  0.2644  0.0543 -0.0082
 1217W        W44208   9.413   6.643  17.107  0.0514 -0.4137  0.1161
 1218W        W44209  14.823  31.340   4.614  0.0193  0.1647  0.1539
 1219W        W44210  16.177  25.631  19.235 -0.1859 -0.1071  0.1492
 1220W        W44211  13.365  10.178   1.536  0.2813  0.1246 -0.1112
 1221W        W44212  16.425  34.123   9.895  0.0169  0.1743  0.2179
 1222W        W44213   8.768  21.312  10.168  0.5407  0.1773  0.2618
 1223W        W44214  10.262  10.384  20.253  0.0841  0.1542 -0.0521
 1224W        W44215   9.253  34.255   8.599  0.0517 -0.3359  0.3123
 1225W        W44216  27.430  32.260  15.332  0.2077 -0.4357  0.1843
 1226W        W44217  11.577  18.099  14.879  0.2894  0.3473  0.0334
 1227W        W44218  22.641  11.782  20.281  0.0018  0.0393  0.0710
 1228W        W44219  26.098  21.954  26.571  0.3777 -0.1577 -0.1786
 1229W        W44220   5.061  16.744  11.089  0.0752 -0.2095 -0.1480
 1230W        W44221  13.587   5.005  27.465 -0.2318 -0.0753  0.2876
 1231W        W44222  19.752   0.792   6.654 -0.1640  0.6841 -0.2562
 1232W        W44223  23.133  32.949  12.833  0.0445 -0.0955  0.1167
 1233W        W44224  33.523  14.381  11.522  0.1797 -0.0006  0.0707
 1234W        W44225  19.361  12.926  27.243 -0.0691  0.0735  0.2082
 1235W        W44226  11.846  17.978   9.940 -0.2005  0.0420 -0.1187
 1236W        W44227  19.536  24.620   9.269 -0.1169  0.2134  0.2441
 1237W        W44228  23.457  13.545   2.885 -0.0498  0.3276 -0.1731
 1238W        W44229  21.180   9.617  23.375  0.3718  0.0105 -0.0926
 1239W        W44230  16.266  13.962  25.861 -0.0434 -0.0742 -0.0405
 1240W        W44231  11.346  33.385   0.823 -0.1296 -0.0432 -0.0287
 1241W        W44232   2.520  12.321   9.190 -0.4815 -0.1750 -0.1192
 1242W        W44233   9.569   9.321   0.991 -0.0991 -0.3196  0.0938
 1243W        W44234   3.974  14.003  10.665 -0.1907  0.0503  0.2136
 1244W        W44235  15.740   2.988   3.808 -0.1151  0.0408  0.1362
 1245W        W44236  19.665  22.641   8.170 -0.1286  0.1109  0.2014
 1246W        W44237   2.204   7.040  28.963  0.1134  0.0811 -0.0506
 1247W        W44238   4.572   4.785   6.003 -0.0778  0.2349  0.1538
 1248W        W44239  13.130  17.854  21.465  0.2281 -0.0764  0.2633
 1249W        W44240  16.551  17.649   3.133 -0.0971  0.2644  0.1964
 1250W        W44241  32.066  16.240  27.093  0.0922 -0.1756  0.0248
 1251W        W44242   8.708   8.576  19.090  0.1757  0.1019  0.1541
 1252W        W44243   6.837   7.816   7.892 -0.0739 -0.0674  0.0087
 1253W        W44244  10.810   8.028   8.238 -0.1040  0.0524  0.0131
 1254W        W44245   7.206   4.273   0.603 -0.0449 -0.3159 -0.0494
 1255W        W44246  28.627  30.074  22.481  0.0199 -0.0703  0.1242
 1256W        W44247  18.548   9.884  17.323 -0.0514  0.0009  0.3270
 1257W        W44248  26.051  17.600   8.846 -0.1674  0.3189  0.1462
 1258W        W44249   9.929  12.612   2.348 -0.1181  0.0557  0.2367
 1259W        W44250  19.686  13.307  13.328 -0.0950 -0.0361 -0.3076
 1260W        W44251  12.969  14.955   9.194 -0.2768  0.1037  0.0808
 1261W        W44252  24.416  18.015  25.213 -0.0175  0.0780 -0.1677
 1262W        W44253  34.727  23.218  22.769 -0.2991  0.1274 -0.0325
 1263W        W44254  25.035  11.472  21.209  0.3150  0.1096  0.2670
 1264W        W44255   3.113  32.453   6.462 -0.0917 -0.2198 -0.3276
 1265W        W44256  18.146   0.946   5.960 -0.1095 -0.0529 -0.1470
 1266W        W44257  17.002   5.968   8.180  0.1753  0.1136  0.0058
 1267W        W44258  14.084  17.073   4.807  0.3091 -0.0499  0.0594
 1268W        W44259  22.891  26.443   6.781  0.1553  0.1812  0.2061
 1269W        W44260   1.723  11.792  24.074 -0.1286 -0.0202  0.1937
 1270W        W44261  19.455  22.939  25.571  0.0250  0.1852 -0.2194
 1271W        W44262  13.030   8.172   4.141  0.0030  0.0742  0.5170
 1272W        W44263  20.265  32.573   0.284  0.1227  0.2711 -0.2004
 1273W        W44264   5.485   0.973  27.492  0.0450  0.1624  0.2693
 1274W        W44265   6.625   7.328  24.969  0.1545 -0.2163 -0.2838
 1275W        W44266  24.762  18.451  27.752 -0.4510 -0.0860  0.2096
 1276W        W44267   7.620  19.108  10.004 -0.1049  0.1509 -0.1191
 1277W        W44268  26.721  18.059   4.396 -0.1089 -0.1357 -0.3157
 1278W        W44269  18.112  10.689   5.115 -0.1343  0.0977  0.1464
 1279W        W44270  11.526   9.538   0.762 -0.2325  0.1139 -0.3616
 1280W        W44271   1.460  28.136   0.032  0.4730 -0.1408 -0.0257
 1281W        W44272   4.879   2.640  24.408  0.2985 -0.0560 -0.0883
 1282W        W44273  25.694  29.276  26.725  0.2616 -0.1934  0.4254
 1283W        W44274   5.727   5.499   9.270 -0.0129  0.1809 -0.0590
 1284W        W44275   5.024   4.227   8.091 -0.4921  0.0936  0.0924
 1285W        W44276  18.951   9.249   5.216 -0.0394 -0.0243  0.1484
 1286W        W44277  15.777  16.175  24.969  0.3336 -0.0474 -0.0204
 1287W        W44278  16.831  14.488  25.291 -0.4184  0.1150  0.0230
 1288W        W44279  14.785  18.081   5.348 -0.1610  0.2173 -0.0295
 1289W        W44280  11.094   3.256   3.894 -0.2493  0.1616 -0.1709
 1290W        W44281   5.970  16.152  11.087 -0.4036 -0.1353 -0.3980
 1291W        W44282  19.237  33.374   6.031  0.0144 -0.0875 -0.1004
 1292W        W44283   1.715   0.910   5.945 -0.0445  0.1034  0.3007
 1293W        W44284  15.781  11.493   5.850  0.0380 -0.2273 -0.4519
 1294W        W44285   6.009   4.837  27.841 -0.0433 -0.1658 -0.1207
 1295W        W44286  15.688   6.018   7.561  0.0660 -0.0101 -0.3440
 1296W        W44287  16.174  16.993  26.271  0.2960 -0.2362  0.3351
 1297W        W44288  29.151  27.185   2.155 -0.0274 -0.1863  0.0766
 1298W        W44289   4.217  10.164  20.913 -0.2088  0.3091 -0.0594
 1299W        W44290  21.300  15.369  15.256 -0.0218 -0.0479  0.1529
 1300W        W44291  30.855  17.602  17.899 -0.3100  0.0861  0.0887
 1301W        W44292   0.799  20.468  20.522  0.1505  0.1854  0.0490
 1302W        W44293  10.615   7.326  22.125  0.0357  0.2923 -0.3664
 1303W        W44294  16.708   0.488   5.537  0.2769  0.2298 -0.2407
 1304W        W44295  27.017  25.991   4.775  0.0610 -0.0282  0.1153
 1305W        W44296  21.114   9.594   7.490 -0.0040  0.2249 -0.4367
 1306W        W44297  28.046  16.405   2.213  0.0564 -0.1207 -0.3331
 1307W        W44298  10.563  17.340   8.211 -0.1830 -0.0440 -0.1294
 1308W        W44299  33.864  13.126   6.474  0.0409 -0.1790 -0.4275
 1309W        W44300  14.196   7.718   1.773 -0.4004  0.0104  0.0529
 1310W        W44301   8.062   4.384  10.416  0.3704  0.2364 -0.1992
 1311W        W44302   9.126  13.449  21.937  0.1021  0.1851  0.3538
 1312W        W44303  19.719  15.908   8.053  0.1674 -0.0965 -0.0337
 1313W        W44304   0.523  13.795   9.043  0.0593 -0.0723  0.0171
 1314W        W44305   8.221  13.905   1.370  0.0870  0.0536  0.0420
 1315W        W44306  14.056  19.977  22.280  0.0034 -0.2596 -0.0405
 1316W        W44307  14.529  14.694   1.790  0.1431  0.1215 -0.1116
 1317W        W44308  10.957  23.668  26.881  0.4087 -0.0976  0.0893
 1318W        W44309  20.456  24.678  20.413 -0.3241 -0.2735 -0.0469
 1319W        W44310  32.618  21.499   5.307  0.4573 -0.1642 -0.0787
 1320W        W44311  29.933  27.966  19.646  0.3694 -0.0736 -0.1614
 1321W        W44312  14.625  21.599  22.023  0.2301 -0.1328  0.2943
 1322W        W44313  12.345   5.825  10.562  0.1538 -0.0512 -0.1063
 1323W        W44314  27.652  13.901  25.267  0.4646  0.0345 -0.1040
 1324W        W44315   8.953  19.895  25.952 -0.1114  0.1685 -0.0510
 1325W        W44316  34.311  12.949  21.242  0.3095 -0.3071 -0.3615
 1326W        W44317  12.149  25.137  20.592  0.2064 -0.3137 -0.2364
 1327W        W44318  25.130  18.412  22.698  0.1546  0.0622 -0.0353
 1328W        W44319  14.058  29.763  28.043 -0.1727 -0.3612  0.0528
 1329W        W44320  18.622  25.955  20.045 -0.1196  0.1216 -0.1720
 1330W        W44321  16.447   8.839   1.415  0.1770  0.2521  0.0648
 1331W        W44322  15.780   9.408   1.873 -0.0785  0.3014 -0.1443
 1332W        W44323  32.237  13.743   2.171 -0.0257 -0.2856 -0.1147
 1333W        W44324   8.413   9.142  14.858 -0.1104  0.0522  0.0386
 1334W        W44325  17.761  21.493   7.775 -0.1354  0.2479 -0.2354
 1335W        W44326  19.244   7.680  18.729  0.0093  0.2348 -0.0950
 1336W        W44327   8.396  13.538  28.396 -0.1116 -0.1422  0.1850
 1337W        W44328  26.785  14.647   8.229 -0.0086 -0.0870  0.1319
 1338W        W44329  18.129  14.798  27.446 -0.2755 -0.2665 -0.3123
 1339W        W44330  15.004   2.620   3.862  0.0421 -0.0844 -0.2251
 1340W        W44331  14.912   1.782   5.464 -0.3012 -0.1497 -0.3708
 1341W        W44332  17.446  20.963  27.146  0.0744 -0.0054  0.0487
 1342W        W44333  13.798  17.682  27.959 -0.0378  0.1973  0.0331
 1343W        W44334  12.774  28.734   8.286  0.1833  0.0152 -0.0557
 1344W        W44335   9.032   4.334  18.638 -0.2026 -0.1097  0.0385
 1345W        W44336  15.452   8.606  10.066 -0.2149  0.1574  0.2049
 1346W        W44337   8.464  33.671   8.647 -0.1805  0.2485 -0.2317
 1347W        W44338   6.933  11.013   8.882 -0.0649 -0.0815  0.0805
 1348W        W44339   8.813  16.923  17.298 -0.1056  0.0586  0.1501
 1349W        W44340   5.671  10.164   3.050 -0.0620 -0.1563  0.0348
 1350W        W44341   2.530  12.420   6.534 -0.1862  0.0937  0.0705
 1351W        W44342  21.402  10.675  17.926  0.2088  0.0906 -0.1188
 1352W        W44343  11.780   5.858  28.660  0.0101 -0.1007  0.1753
 1353W        W44344  13.866  13.601   6.634  0.1743  0.2876  0.2316
 1354W        W44345  22.675  22.522  20.110  0.5111  0.2369  0.1511
 1355W        W44346  11.435   5.322  28.315 -0.0400 -0.0495  0.4845
 1356W        W44347  12.515   7.924  23.213 -0.0624  0.0078 -0.0776
 1357W        W44348  18.844  16.141  25.566 -0.0084 -0.2783  0.3549
 1358W        W44349  24.756  16.665  27.313 -0.0634 -0.1253  0.1190
 1359W        W44350  10.210  15.181  17.107  0.0371 -0.0487  0.2379
 1360W        W44351   7.172  25.998  23.933  0.0362  0.1945  0.1067
 1361W        W44352  33.363  15.681   8.463  0.0181 -0.2809 -0.4803
 1362W        W44353  10.468  30.409   1.578 -0.1602  0.0495 -0.1966
 1363W        W44354   5.891  14.402   0.384  0.1152  0.2237  0.0082
 1364W        W44355  14.702  14.567   1.139  0.0678  0.1847  0.3690
 1365W        W44356  18.941  12.113  23.097 -0.3492  0.0674 -0.0551
 1366W        W44357  21.153   2.754  19.411 -0.0709  0.5214 -0.2332
 1367W        W44358   8.178  19.833  10.459 -0.0395  0.2767 -0.1434
 1368W        W44359  12.805  23.923   0.184 -0.2649  0.2188 -0.1073
 1369W        W44360  26.741  18.356  24.093  0.2435 -0.1807 -0.0671
 1370W        W44361  14.256   5.825   9.363  0.0297  0.1537 -0.2056
 1371W        W44362  18.971   2.261  23.386  0.0827 -0.0933  0.0102
 1372W        W44363   7.983  26.882  25.076  0.0631 -0.3447  0.0035
 1373W        W44364  15.173   6.120   8.951  0.0593  0.3932 -0.4338
 1374W        W44365   7.661   7.985   5.736 -0.1618  0.1201 -0.1945
 1375W        W44366  18.272  15.019   6.567 -0.0059 -0.0809  0.0938
 1376W        W44367  19.150  17.981  23.508  0.2142 -0.0427 -0.2348
 1377W        W44368   4.143  20.072  25.625 -0.0040 -0.2997 -0.0141
 1378W        W44369   4.300   6.410   4.134  0.1664 -0.2304 -0.1749
 1379W        W44370  18.241  10.222   4.956 -0.0006 -0.2343  0.1520
 1380W        W44371  30.217  19.956   2.498  0.0421  0.0493  0.0451
 1381W        W44372  33.630  14.247  10.347  0.1503 -0.2726  0.3331
 1382W        W44373  34.764  10.291  26.702 -0.0578 -0.3324 -0.1368
 1383W        W44374  10.859  25.135   6.027  0.0425  0.2020 -0.2701
 1384W        W44375  19.477  11.800   5.982  0.0187  0.0637  0.0305
 1385W        W44376  16.104   5.129  27.584  0.2228 -0.1683  0.0875
 1386W        W44377   6.068  13.871   5.678  0.1892  0.2110  0.2088
 1387W        W44378  11.360   3.866  17.530  0.3086  0.3048  0.1596
 1388W        W44379  12.427  13.590   9.322 -0.2406  0.1285 -0.4180
 1389W        W44380   1.268  12.685   8.067  0.3590 -0.2360  0.3609
 1390W        W44381   3.809  18.793  10.175 -0.0159 -0.1291  0.2444
 1391W        W44382  18.736  11.953   9.867 -0.2453 -0.1145  0.0264
 1392W        W44383  14.142   1.874  18.467  0.1117  0.0930 -0.1840
 1393W        W44384  22.524   6.043  29.156 -0.0183 -0.1115  0.0943
 1394W        W44385   4.991  28.462   5.490 -0.1199 -0.0338  0.2517
 1395W        W44386  18.170  12.208  27.803 -0.1045  0.1478  0.0860
 1396W        W44387  11.366  11.527  25.207 -0.1216  0.1180 -0.3093
 1397W        W44388  26.670  16.167   9.571  0.0535  0.0339 -0.2256
 1398W        W44389  24.963  25.248   0.917 -0.1224  0.3131  0.2788
 1399W        W44390  30.734  34.619  19.557 -0.2969  0.1815 -0.1319
 1400W        W44391  25.667  20.718  25.946  0.0932 -0.0075 -0.1564
 1401W        W44392  13.293   3.043   6.001  0.3715 -0.0451 -0.0256
 1402W        W44393  17.993  12.380   2.923 -0.3436 -0.3109  0.0663
 1403W        W44394  11.686   0.631  10.628 -0.2037  0.0508  0.1919
 1404W        W44395  12.921  15.726  23.166  0.1853 -0.3221 -0.1868
 1405W        W44396  14.024  26.607   3.639  0.1487 -0.2234 -0.0726
 1406W        W44397   5.042  12.928   3.020  0.0546  0.4085 -0.1580
 1407W        W44398   8.686  23.166  28.162 -0.2049 -0.3487 -0.1610
 1408W        W44399   7.786  28.756  17.503  0.0476  0.0774 -0.3104
 1409W        W44400  19.077  14.509   7.015 -0.2222 -0.2380 -0.0744
 1410W        W44401  31.096  13.065  22.145  0.1682 -0.0470  0.0515
 1411W        W44402  17.860  12.819   4.282  0.1981 -0.0370 -0.0031
 1412W        W44403   1.677  10.512   2.522  0.3053  0.0959  0.2418
 1413W        W44404   9.352  21.314  26.171 -0.1332  0.1221 -0.1083
 1414W        W44405  17.193  15.539   1.204  0.0103 -0.0099  0.2996
 1415W        W44406  19.401   1.312   2.668  0.0809 -0.1059 -0.1543
 1416W        W44407   8.077   0.280   8.155 -0.0443 -0.0994  0.0196
 1417W        W44408  20.308   3.756   2.046  0.0942 -0.2446  0.2545
 1418W        W44409  20.294  19.280   2.223 -0.1196 -0.1258 -0.2848
 1419W        W44410   8.837  11.141   7.222 -0.0753 -0.0316 -0.3856
 1420W        W44411  19.927   7.336  27.722 -0.3233 -0.0193 -0.2308
 1421W        W44412  28.639  15.392  27.183 -0.0132 -0.0662  0.3247
 1422W        W44413  24.114  20.428  28.813 -0.1280 -0.2021  0.1889
 1423W        W44414  19.851  33.922   2.771 -0.1940  0.2103  0.2245
 1424W        W44415  10.825   8.982  17.050  0.1648 -0.5080  0.1872
 1425W        W44416  18.437  27.913  24.288  0.2467 -0.4086  0.0084
 1426W        W44417  14.670  10.490  11.065  0.2133  0.1601 -0.0350
 1427W        W44418   9.157  30.975   0.681  0.0113 -0.0414  0.0131
 1428W        W44419  17.577  13.385  23.688 -0.1313 -0.2057  0.0323
 1429W        W44420  20.059  23.207   0.301  0.0696  0.3715 -0.0959
 1430W        W44421   8.080  17.974  21.982  0.1239 -0.0014 -0.2206
 1431W        W44422  13.906  17.552  25.350  0.0536 -0.1645  0.0412
 1432W        W44423  32.324  17.336   8.746  0.0732  0.2413 -0.1288
 1433W        W44424  31.277   8.375  18.853 -0.1991  0.1976 -0.3225
 1434W        W44425   7.544   7.521   3.169 -0.1112  0.3414 -0.1108
 1435W        W44426  15.146   7.294   5.387  0.0098  0.1308  0.2646
 1436W        W44427  26.652  14.937  22.772  0.0090  0.0202 -0.0859
 1437W        W44428   7.266  26.353  22.606 -0.1527 -0.2938 -0.2866
 1438W        W44429  23.575   9.158   5.200 -0.1165  0.0294 -0.1159
 1439W        W44430  16.555   0.774   0.651 -0.1297 -0.0969  0.1684
 1440W        W44431  10.745  21.591   3.073 -0.0539  0.0200  0.0493
 1441W        W44432  21.875  30.393  21.976 -0.1531 -0.0931  0.1114
 1442W        W44433  14.602  21.770  21.489  0.1073 -0.0195 -0.2039
 1443W        W44434  18.359   1.596   9.733 -0.0564 -0.0674 -0.0136
 1444W        W44435  25.094   7.714  24.823 -0.0989 -0.0224  0.1458
 1445W        W44436  15.698  13.428  28.015 -0.2062  0.0002  0.2274
 1446W        W44437   8.089  18.619   0.922  0.3979  0.0046 -0.2637
 1447W        W44438  28.573  22.073  18.340  0.0656 -0.2103  0.2186
 1448W        W44439  21.163   8.989   0.011 -0.1897 -0.1253  0.0923
 1449W        W44440   2.661   7.831   2.842 -0.0027 -0.2742  0.1076
 1450W        W44441   5.302  31.095  26.884  0.1056 -0.2406  0.2581
 1451W        W44442  10.856  18.216  23.560  0.1273 -0.1093  0.2540
 1452W        W44443  23.343  20.202   7.598 -0.1675 -0.2486  0.1672
 1453W        W44444  12.452   0.361  25.059 -0.1379 -0.1450  0.1833
 1454W        W44445   7.427   3.716  19.336 -0.2059 -0.1907 -0.1108
 1455W        W44446   5.461  24.268  19.979  0.0011  0.3466  0.0800
 1456W        W44447  34.014   7.031   6.268 -0.1835  0.0252  0.2723
 1457W        W44448  24.535  17.442   6.413  0.0645  0.1095 -0.0532
 1458W        W44449  22.582  15.579   1.595 -0.1504 -0.5607 -0.1853
 1459W        W44450   2.862  25.356   9.050  0.4040  0.0255  0.0252
 1460W        W44451   8.924  15.655   7.175 -0.0107 -0.0147  0.0530
 1461W        W44452   2.201  24.708  27.140 -0.0306  0.0904  0.0052
 1462W        W44453   5.973   7.662   5.572  0.0214  0.0357 -0.1362
 1463W        W44454  29.838   5.489   0.165 -0.4750  0.1827 -0.3915
 1464W        W44455   7.776  14.759   5.333 -0.0528  0.0535 -0.0215
 1465W        W44456   0.303  17.338   3.649  0.2264  0.0499  0.1699
 1466W        W44457  17.922   4.659  23.977  0.0807  0.2304  0.1481
 1467W        W44458  11.473   6.541  16.334 -0.0768  0.2784 -0.1585
 1468W        W44459  27.313  16.136  11.130 -0.0618 -0.1594 -0.0169
 1469W        W44460  25.621  31.766   4.670 -0.0619  0.0166 -0.0423
 1470W        W44461  21.159  14.903   3.079 -0.0947 -0.1248  0.0607
 1471W        W44462  21.686  17.929  21.822  0.2851 -0.1785 -0.1061
 1472W        W44463  29.038  10.115  28.563  0.2160  0.0451 -0.1678
 1473W        W44464   6.953  25.079   9.092 -0.3511 -0.0412  0.0646
 1474W        W44465  10.948  17.274  27.041 -0.0886  0.0992  0.1398
 1475W        W44466  16.188  13.476  28.014  0.3240 -0.1614 -0.0288
 1476W        W44467  18.828  15.958   4.496  0.3455  0.1062  0.1666
 1477W        W44468  26.079   6.132  23.207 -0.2045  0.0991 -0.0901
 1478W        W44469  13.312   2.021  15.929 -0.2536 -0.0183  0.1576
 1479W        W44470   5.766  13.192   7.849  0.0547 -0.0154 -0.1567
 1480W        W44471  14.931  16.584  26.511 -0.2712 -0.1399 -0.2746
 1481W        W44472  13.227   5.765  19.133 -0.0927  0.0532 -0.2255
 1482W        W44473  24.100  10.304  23.789 -0.1734  0.2146 -0.1049
 1483W        W44474  32.764   7.464   5.519 -0.0540  0.0532  0.1662
 1484W        W44475  25.760  21.278  20.677  0.0906 -0.3968  0.1042
 1485W        W44476   7.578   1.841  17.100 -0.0963 -0.1961 -0.0674
 1486W        W44477  23.237   7.909   8.301  0.2267 -0.2695 -0.1212
 1487W        W44478  27.794  10.447   6.742 -0.0823 -0.2523 -0.0313
 1488W        W44479  13.915   2.920   6.356 -0.1813  0.4662 -0.0331
 1489W        W44480  15.336  13.899   8.364 -0.1212  0.0350 -0.0925
 1490W        W44481  18.334  11.649  29.008  0.1421  0.1854 -0.0329
 1491W        W44482  25.620  21.685   8.226 -0.3456  0.1769  0.0629
 1492W        W44483  34.489  28.845  18.504  0.0285  0.2459 -0.1471
 1493W        W44484   1.840  31.063   6.321 -0.1375  0.2199 -0.1089
 1494W        W44485  17.314   1.414   6.347  0.0999 -0.1155 -0.1279
 1495W        W44486  19.455  15.847   7.286  0.0338  0.0702  0.1840
 1496W        W44487  18.101  14.653   0.361  0.0391 -0.3231  0.2502
 1497W        W44488  15.122  11.527  26.835 -0.2718 -0.1067 -0.0445
 1498W        W44489  33.903   1.683  29.125  0.0870  0.3589  0.0602
 1499W        W44490  15.339  31.855   2.728 -0.0771  0.0085 -0.0474
 1500W        W44491  25.004   3.659   2.757  0.1315  0.0658 -0.2892
 1501W        W44492   6.360  10.225  28.435 -0.0969  0.0379  0.1212
 1502W        W44493  28.274  10.494  26.059 -0.0045  0.1615  0.2753
 1503W        W44494  17.571  13.933   6.753  0.1768  0.1675  0.0344
 1504W        W44495  11.877  14.728   9.961 -0.0432 -0.0713 -0.1395
 1505W        W44496   9.806   9.471   3.555 -0.1187  0.2008  0.3683
 1506W        W44497  33.514  18.977   8.813 -0.0152  0.0091  0.0773
 1507W        W44498  34.598  13.214   1.008 -0.1221  0.2803 -0.0675
 1508W        W44499  11.047  21.392   1.803 -0.0091 -0.1855  0.1142
 1509W        W44500   0.655  19.959   5.565  0.0042  0.1525 -0.0227
 1510W        W44501  11.819   8.740   9.475 -0.0153  0.2816  0.1923
 1511W        W44502  10.148  22.093   2.575  0.0433  0.0632  0.0118
 1512W        W44503   9.161  32.159   7.870 -0.2003  0.0590 -0.0881
 1513W        W44504   5.545  33.044  28.431  0.1827  0.0327 -0.4825
 1514W        W44505  18.272  12.145  28.784 -0.2431 -0.0996 -0.0961
 1515W        W44506  16.923  22.833   9.156 -0.1836  0.1465 -0.1330
 1516W        W44507  18.423  11.011  18.827 -0.1242 -0.1551  0.2804
 1517W        W44508   7.262  25.746  24.959  0.1746  0.0846  0.1174
 1518W        W44509  11.268   4.852  23.500 -0.0504  0.2049 -0.0864
 1519W        W44510  22.025  18.873   7.988  0.1698  0.2346  0.1313
 1520W        W44511  14.252  10.960   1.338 -0.2541  0.1582  0.1936
 1521W        W44512  15.096  20.668   1.051  0.2444  0.0644 -0.0414
 1522W        W44513   8.114   2.255   3.781 -0.2396 -0.0135 -0.0694
 1523W        W44514  21.426   5.193   7.560  0.5485 -0.2729 -0.0912
 1524W        W44515  13.357  25.334  23.198 -0.1384  0.0196  0.1520
 1525W        W44516  18.876   7.288   8.610  0.0022 -0.2327 -0.1883
 1526W        W44517  13.061  33.603   0.134  0.3591 -0.0093 -0.0715
 1527W        W44518  34.481  13.814   6.762 -0.1772 -0.1654 -0.0904
 1528W        W44519  19.165  28.532   9.369  0.0956 -0.1373  0.0455
 1529W        W44520  28.890   7.342   2.999  0.0491  0.0937  0.0191
 1530W        W44521   7.759  10.115  10.038  0.1049  0.0753  0.0331
 1531W        W44522  17.270  20.738  17.393  0.1679 -0.2933  0.0839
 1532W        W44523  12.281   9.917  10.606  0.0540  0.0163  0.1241
 1533W        W44524  15.772   4.162   5.099  0.0008 -0.0495 -0.1405
 1534W        W44525   7.938  23.971  15.028 -0.4883 -0.0427  0.0819
 1535W        W44526  31.272  14.595   2.453  0.0493  0.1616  0.0252
 1536W        W44527  23.775   8.032  19.488 -0.0651  0.0538 -0.1010
 1537W        W44528  20.898  15.343  22.465  0.1585  0.3024 -0.1596
 1538W        W44529   9.051   7.855   3.624 -0.4726 -0.0540 -0.0321
 1539W        W44530  11.244   4.734  17.935 -0.1585  0.0341  0.0799
 1540W        W44531  26.030  24.360  24.066  0.1867 -0.1203 -0.1885
 1541W        W44532  34.488   2.668  18.060 -0.2142  0.0814 -0.2076
 1542W        W44533  13.864  18.449  16.493 -0.1577 -0.0283 -0.1502
 1543W        W44534   5.639   7.211   8.466 -0.3584  0.0175 -0.3118
 1544W        W44535  24.114  14.572  15.628  0.1778  0.2089 -0.2916
 1545W        W44536   7.613  19.075  10.769 -0.2015 -0.0655 -0.0254
 1546W        W44537  16.065  17.863   4.731  0.2765  0.1027 -0.0245
 1547W        W44538  11.191  15.926  25.099 -0.0036 -0.1547 -0.1742
 1548W        W44539  15.372  20.170  24.693 -0.1592  0.0133 -0.1061
 1549W        W44540  15.843   8.328  25.755 -0.1794 -0.1230  0.2045
 1550W        W44541  15.381  15.209  27.018 -0.0012 -0.1405 -0.1122
 1551W        W44542  12.776   4.137  26.230  0.0537 -0.1960  0.4335
 1552W        W44543  12.299   0.433  28.970  0.0161 -0.4660 -0.2885
 1553W        W44544   1.302  10.761   0.987 -0.3245 -0.0478  0.1704
 1554W        W44545  10.436  21.942  23.527  0.0047  0.0682 -0.1235
 1555W        W44546   4.799  12.945  17.154  0.0100 -0.0453  0.1215
 1556W        W44547  15.333  25.298  18.965  0.2665  0.1770  0.1136
 1557W        W44548   7.357   5.107   8.066  0.1387  0.2168 -0.3050
 1558W        W44549  32.472  14.313  20.421  0.3763  0.1385  0.1218
 1559W        W44550  32.022  24.390   8.985 -0.0673 -0.0502 -0.2970
 1560W        W44551  12.681  16.337  21.009 -0.0664  0.1972  0.0541
 1561W        W44552  13.857   6.841   8.008  0.2931 -0.1759  0.0023
 1562W        W44553  29.975  25.520  18.327 -0.0264  0.4329 -0.1317
 1563W        W44554   9.096   2.368   0.037  0.0298 -0.2069  0.0180
 1564W        W44555  19.862   8.912   2.324  0.1272  0.4205  0.3348
 1565W        W44556  16.702  16.255  26.715 -0.1157  0.2722 -0.0096
 1566W        W44557  23.734  18.267  19.746  0.1193  0.0413 -0.1413
 1567W        W44558   7.618   4.582   7.853  0.2719  0.3955  0.1014
 1568W        W44559  26.846   2.093  23.137  0.0165 -0.2424  0.1427
 1569W        W44560  16.712  27.609   7.253 -0.0185  0.0053  0.0990
 1570W        W44561  15.873  28.590   0.658  0.3793 -0.1508  0.0649
 1571W        W44562   1.767  13.285  10.314  0.1343  0.0827 -0.2510
 1572W        W44563   7.891  16.258   4.546 -0.1122  0.1059  0.1151
 1573W        W44564   7.129  16.293   8.408 -0.1480 -0.1281 -0.1387
 1574W        W44565  23.975  33.797   3.380 -0.2259  0.3688  0.0015
 1575W        W44566  26.027  34.773   5.404 -0.1160  0.1163  0.1366
 1576W        W44567  24.897  24.249   4.564 -0.2134  0.4021 -0.1261
 1577W        W44568   2.011  15.273  28.002  0.2342  0.1158 -0.3980
 1578W        W44569  29.349   5.641  17.925  0.0031  0.0093 -0.1884
 1579W        W44570  29.687   7.203  24.881 -0.2700  0.0103 -0.5090
 1580W        W44571  14.750  10.413   9.386 -0.1668 -0.1671 -0.1497
 1581W        W44572  16.078  19.032  29.168  0.1491 -0.1105  0.0048
 1582W        W44573   6.437  26.439   9.037  0.1469  0.0484 -0.0253
 1583W        W44574  29.367   3.676   9.672  0.0733  0.1455 -0.0387
 1584W        W44575  20.232  32.309   0.741  0.0398  0.0896 -0.1030
 1585W        W44576   8.292  27.353   8.070  0.1268  0.0102  0.0417
 1586W        W44577  24.503  13.819  28.138 -0.0355  0.1438  0.1642
 1587W        W44578  10.771   4.505   1.759 -0.1196  0.1847 -0.0134
 1588W        W44579  13.791  19.617  14.352 -0.1867  0.1522  0.0787
 1589W        W44580   7.354  10.635   2.348 -0.3101 -0.1421 -0.2116
 1590W        W44581  17.728  29.532   7.936 -0.1695 -0.6141 -0.2036
 1591W        W44582  18.232   6.031   5.458  0.0663  0.0839  0.2974
 1592W        W44583  15.421  16.468  23.414  0.3109  0.0706  0.1011
 1593W        W44584  27.428  20.386   5.783  0.1805 -0.0654 -0.2407
 1594W        W44585   9.071   7.032  28.592 -0.1502  0.0386  0.4801
 1595W        W44586  12.395   7.772   2.622 -0.1534  0.1727  0.1502
 1596W        W44587  13.341   7.431   3.186 -0.3229  0.0146  0.3356
 1597W        W44588  12.927   3.452   8.761 -0.2013 -0.1391  0.0344
 1598W        W44589  19.139   9.853  20.503  0.0008 -0.3437  0.1303
 1599W        W44590  33.114  18.222  10.414  0.0322 -0.1538 -0.2092
 1600W        W44591  11.206  13.928  26.927 -0.0125 -0.1144 -0.3105
 1601W        W44592  10.457  18.155   9.568  0.0252 -0.1915  0.0260
 1602W        W44593  19.991  22.378   4.942 -0.1728 -0.2003 -0.1577
 1603W        W44594  25.126   5.194   5.592  0.0432  0.1448 -0.1429
 1604W        W44595  26.045  30.009   7.864 -0.2625  0.0048  0.2643
 1605W        W44596  31.878  23.448   1.767  0.0272 -0.1266 -0.3293
 1606W        W44597  20.500  33.785   8.593 -0.0681  0.0818  0.0122
 1607W        W44598  34.280  33.190  25.623  0.0981  0.0579  0.1519
 1608W        W44599   9.623  14.380   7.773 -0.0290  0.0426 -0.0643
 1609W        W44600   1.831  31.562  28.731 -0.2666 -0.0171 -0.3454
 1610W        W44601   7.215  21.285  24.981 -0.2177 -0.0834 -0.1246
 1611W        W44602  14.974  13.537   5.562 -0.0663  0.0633  0.3019
 1612W        W44603  14.556  21.960   5.687 -0.2443  0.1381  0.0869
 1613W        W44604  20.802  31.352   3.690  0.0980  0.4234  0.3195
 1614W        W44605   7.398  22.144  28.305 -0.2022 -0.0688  0.1457
 1615W        W44606  12.488   4.688  27.908  0.2248 -0.1077 -0.0879
 1616W        W44607  16.196  25.467   3.549  0.2263 -0.0097 -0.1477
 1617W        W44608  30.940  32.591   1.703  0.2398 -0.1072  0.0467
 1618W        W44609  24.568  12.227  10.168  0.1828 -0.1876  0.3915
 1619W        W44610   5.550   6.615   9.839  0.1177 -0.2371  0.1550
 1620W        W44611  29.013   3.370  28.034 -0.0601 -0.0581 -0.0216
 1621W        W44612   7.513  13.511  27.201  0.1473 -0.2290 -0.1451
 1622W        W44613   7.173   4.812   7.129  0.1181 -0.3391  0.0575
 1623W        W44614  18.056   1.375  25.809  0.2935  0.1231  0.0426
 1624W        W44615  11.781  20.773   1.970  0.0708 -0.1149 -0.2024
 1625W        W44616  12.807   1.266   7.807 -0.0603  0.0010  0.4003
 1626W        W44617   8.262  29.268   8.343  0.0743  0.1757  0.1157
 1627W        W44618  30.636  15.226   6.843  0.1655  0.3304 -0.0427
 1628W        W44619   6.738  15.242   4.704  0.0457 -0.0455  0.0191
 1629W        W44620   6.388  14.743   2.289  0.1149 -0.0999 -0.2831
 1630W        W44621  23.620  16.833   5.931  0.1524 -0.1806 -0.4487
 1631W        W44622   0.485  13.393   3.606  0.0642 -0.0545 -0.1767
 1632W        W44623   8.027  24.577  23.908 -0.0805 -0.0456 -0.1005
 1633W        W44624   9.290   9.216   2.451  0.1176 -0.1276 -0.1752
 1634W        W44625  15.062  20.144   1.187 -0.0512 -0.0677  0.0171
 1635W        W44626  12.154  12.113   9.786  0.1775  0.3739  0.0170
 1636W        W44627   3.578   2.566   1.582  0.2543 -0.4643 -0.2949
 1637W        W44628  13.744  32.126   3.484  0.2114 -0.1326 -0.1186
 1638W        W44629  26.869  22.956   1.400  0.1641 -0.3989 -0.2511
 1639W        W44630  18.112  11.590  27.968  0.0162  0.1233 -0.0326
 1640W        W44631   2.151   9.497   8.573  0.1779 -0.1646 -0.3617
 1641W        W44632  20.292   8.082   8.875  0.2322 -0.1682 -0.3121
 1642W        W44633   8.762  11.270   4.703  0.1895 -0.2647  0.3081
 1643W        W44634  15.146   2.418   9.424 -0.1558  0.1480  0.0258
 1644W        W44635  10.032   8.645   3.002  0.1579  0.2829 -0.0613
 1645W        W44636  13.131  22.541   3.847 -0.1438  0.0789  0.0293
 1646W        W44637  27.070  16.490   1.754 -0.0874  0.1230 -0.1360
 1647W        W44638  19.346  13.128   2.410  0.1232  0.2890 -0.1149
 1648W        W44639   5.951   9.735   9.115  0.0191 -0.1980  0.0206
 1649W        W44640  22.952  18.205  26.774  0.2687 -0.0128  0.3680
 1650W        W44641  20.344  27.732  28.109 -0.1087 -0.0681  0.0370
 1651W        W44642  26.707  15.005  10.155 -0.4161 -0.1686  0.0718
 1652W        W44643  16.048   5.038   1.550  0.1792 -0.1354 -0.3178
 1653W        W44644  11.218  32.586  25.655 -0.1199  0.2099 -0.0783
 1654W        W44645  26.247   7.859  24.123 -0.0267 -0.0473  0.0170
 1655W        W44646  14.182  14.599   0.219 -0.4738 -0.1306  0.0691
 1656W        W44647   4.351  34.161  22.412 -0.2090 -0.0745  0.0129
 1657W        W44648  16.262   9.251  25.856  0.2593  0.0501 -0.1261
 1658W        W44649   4.987  13.125   4.009 -0.2769  0.0456  0.1917
 1659W        W44650   1.686  29.921   0.940  0.2562  0.1997  0.0612
 1660W        W44651   1.776  33.720  22.680  0.1856  0.0419 -0.0580
 1661W        W44652   6.110   2.645  27.649 -0.0832  0.0735 -0.3389
 1662W        W44653   9.014   6.828   7.105 -0.3056  0.0340 -0.2399
 1663W        W44654  12.022  16.125   3.812  0.0691 -0.0429  0.2065
 1664W        W44655  17.017   5.166   5.757 -0.2691  0.2655  0.2800
 1665W        W44656  34.380   4.102   9.602 -0.1816 -0.3917 -0.0036
 1666W        W44657  10.643  21.254   4.895  0.1059 -0.0699 -0.1288
 1667W        W44658  25.209  16.059   0.333  0.0565 -0.2948  0.1917
 1668W        W44659  24.284  11.626  23.424  0.1293 -0.1576 -0.0773
 1669W        W44660  15.340   0.390  22.741 -0.1123 -0.0049 -0.0785
 1670W        W44661   3.840   4.716   9.165  0.2431 -0.0422  0.1058
 1671W        W44662  24.994   6.575   7.029  0.1067  0.0042  0.0709
 1672W        W44663  24.103  27.558  19.743 -0.0196 -0.0177  0.0328
 1673W        W44664  12.361  32.074   6.965 -0.0309  0.1721 -0.1333
 1674W        W44665  14.260  26.333   4.608  0.2004 -0.0047 -0.1857
 1675W        W44666  14.457  17.562   0.373  0.0461  0.1564  0.1066
 1676W        W44667  20.270  15.560   0.699  0.1831 -0.1281 -0.0108
 1677W        W44668  13.056   2.306  20.183  0.0065 -0.4870  0.1974
 1678W        W44669   2.932  24.133  28.905  0.2713  0.2561 -0.0447
 1679W        W44670  19.872  13.163  27.537  0.2806 -0.3489 -0.0147
 1680W        W44671  21.269   9.595  14.123 -0.0147 -0.1169  0.0277
 1681W        W44672  17.700  20.546   7.670 -0.0210 -0.1358  0.1913
 1682W        W44673  12.863   4.410   8.754  0.1432 -0.0449 -0.1445
 1683W        W44674  23.260  11.375   1.495 -0.0736 -0.1294 -0.1467
 1684W        W44675  17.513   2.228   7.423 -0.0521  0.0539 -0.0579
 1685W        W44676  20.528  19.752   2.473  0.2643  0.2935  0.1547
 1686W        W44677  30.495  20.277  28.693  0.3285  0.0343 -0.3367
 1687W        W44678  19.972   7.280  26.042  0.3590 -0.1170  0.1074
 1688W        W44679  34.526  30.666   6.126  0.4071 -0.3121 -0.0380
 1689W        W44680  16.498   2.763  25.795  0.3780 -0.0671 -0.0410
 1690W        W44681  19.876   9.485  27.740  0.0215 -0.0896 -0.0869
 1691W        W44682  28.739  23.693   1.932 -0.2399 -0.2489 -0.2202
 1692W        W44683  20.569  15.302  27.220 -0.1909  0.1106 -0.0722
 1693W        W44684  29.167   8.583  28.139  0.0312  0.0708 -0.2953
 1694W        W44685  21.983  32.108  21.278  0.2997 -0.1467  0.0311
 1695W        W44686  21.946  15.527   2.370  0.2324  0.2084 -0.0970
 1696W        W44687  28.694  19.834   8.980 -0.2015  0.0191 -0.1954
 1697W        W44688   9.972   3.479   7.055 -0.4593  0.3376 -0.1231
 1698W        W44689  14.131  21.076   2.390  0.3446 -0.1599 -0.0360
 1699W        W44690  12.772  17.085  25.480  0.0331  0.0501  0.3912
 1700W        W44691  29.781  22.460   6.073  0.0051 -0.0090 -0.0462
 1701W        W44692  11.786  20.973  19.171  0.2030 -0.0428  0.2273
 1702W        W44693  30.739  15.950   9.577  0.1898  0.1185 -0.5013
 1703W        W44694  18.810   2.589   7.406 -0.1630 -0.1024  0.0115
 1704W        W44695  14.688   8.223  23.679 -0.1125  0.0748 -0.0459
 1705W        W44696  31.971  24.272  24.059 -0.2852  0.1334  0.0810
 1706W        W44697  33.617  33.940   2.791  0.1553  0.1307  0.3569
 1707W        W44698  21.228  20.748   5.027  0.0093  0.3404 -0.5646
 1708W        W44699  34.750   2.496  28.321  0.1181 -0.0952  0.0939
 1709W        W44700  17.383   7.734   6.573 -0.1020  0.0470  0.0286
 1710W        W44701   8.734  31.794   8.336  0.1417  0.1530  0.1433
 1711W        W44702  25.634  19.056  25.640 -0.1760 -0.0834 -0.0244
 1712W        W44703  14.463  11.894   1.095  0.1492 -0.1323 -0.2008
 1713W        W44704  16.814  27.381   6.789 -0.0993 -0.0572 -0.0078
 1714W        W44705  14.906  13.565   9.182 -0.3103  0.1796 -0.1499
 1715W        W44706   9.716  17.586   3.697  0.3695 -0.1609  0.2076
 1716W        W44707  13.866  27.854   2.910  0.2334 -0.0406 -0.2134
 1717W        W44708  12.939  21.529   0.385 -0.1794  0.4415 -0.1083
 1718W        W44709  15.320  17.345  15.885 -0.1672 -0.0507  0.0955
 1719W        W44710  14.849  16.215   2.485  0.1788  0.0450  0.1880
 1720W        W44711  10.933   0.968  20.694 -0.1291  0.0157 -0.1391
 1721W        W44712   2.375   8.984  10.498 -0.0350 -0.1277  0.4539
 1722W        W44713  29.566  10.993   7.834  0.0392 -0.0834 -0.0108
 1723W        W44714  34.470  15.291   8.064  0.1292  0.0560  0.0120
 1724W        W44715  14.484  17.184   6.826  0.0223  0.0465 -0.0732
 1725W        W44716  15.133  23.589  19.500  0.2330 -0.1774  0.0870
 1726W        W44717  34.230  10.486   9.197 -0.0682 -0.1690 -0.0343
 1727W        W44718  21.704  12.637   3.051 -0.0822  0.1772 -0.1795
 1728W        W44719  31.041  16.438   3.429  0.1205 -0.0790 -0.0156
 1729W        W44720  30.714  18.964   2.751  0.0177  0.0913 -0.0016
 1730W        W44721  16.406  30.837   3.941  0.0734  0.2514 -0.1947
 1731W        W44722   4.906  32.869  21.890  0.1779  0.1468 -0.1441
 1732W        W44723  10.869  24.831   6.419  0.2367  0.1167  0.0833
 1733W        W44724  33.297  31.588   0.360  0.0848  0.2605  0.1616
 1734W        W44725  10.054  27.249  10.101  0.0114 -0.1953 -0.0864
 1735W        W44726   4.758   9.403   8.544  0.2172 -0.0498 -0.0446
 1736W        W44727  21.695  32.992   2.483  0.0879  0.0323  0.2056
 1737W        W44728  17.527  21.105   8.554 -0.0361  0.0709  0.0544
 1738W        W44729  24.734  14.867   1.399  0.0759 -0.2984  0.2217
 1739W        W44730  26.799   7.198  28.172 -0.1173 -0.1106 -0.0714
 1740W        W44731  24.480   2.324   9.076 -0.0191 -0.1145 -0.4918
 1741W        W44732   0.900  23.563   5.011  0.1188  0.0776  0.2410
 1742W        W44733  10.351   8.575   8.696  0.0489  0.3337 -0.1776
 1743W        W44734  20.434  14.764   5.677 -0.2082 -0.0475  0.4341
 1744W        W44735  11.603   5.807   6.288 -0.1400  0.0037 -0.0047
 1745W        W44736   6.071  21.643   9.238 -0.5212 -0.0729  0.0334
 1746W        W44737  27.041   6.392  26.078  0.1376 -0.1449  0.0490
 1747W        W44738  32.327  29.344  27.813 -0.4332 -0.1135  0.1365
 1748W        W44739  14.338   0.754   3.548 -0.0072  0.3073  0.2023
 1749W        W44740  10.483   5.784   9.740 -0.2438  0.1051  0.2724
 1750W        W44741  33.048  14.555   4.274  0.2685  0.3430 -0.2287
 1751W        W44742  12.551   7.712   3.567 -0.3023 -0.1721 -0.2451
 1752W        W44743   5.904   7.267  10.290  0.3462  0.1300  0.1314
 1753W        W44744  13.069  10.335   0.537 -0.1249 -0.1158 -0.0003
 1754W        W44745  13.713  16.577   8.037 -0.2454 -0.1197 -0.4275
 1755W        W44746  34.606  15.474   5.429 -0.1522 -0.0412  0.3223
 1756W        W44747  28.754   8.665   4.441  0.0835 -0.2201  0.0940
 1757W        W44748  11.399  10.344   1.904  0.0327 -0.0484 -0.0173
 1758W        W44749  33.903   4.806  26.997  0.3703  0.0796 -0.2778
 1759W        W44750  20.199  28.860  23.700  0.2374 -0.1203  0.2537
 1760W        W44751  28.080  22.441  21.427  0.1860  0.1192  0.0355
 1761W        W44752  18.098  14.915  22.601 -0.1911 -0.1394  0.0465
 1762W        W44753   5.341  24.104   3.988  0.1114 -0.0790  0.1676
 1763W        W44754  32.544  17.752   5.345 -0.0284  0.0317 -0.1078
 1764W        W44755  14.845  16.742   8.946  0.1495 -0.0663 -0.3705
 1765W        W44756  20.060  13.083  25.230 -0.0053 -0.1702  0.2428
 1766W        W44757  20.769  19.165  29.012 -0.0461 -0.2601  0.3430
 1767W        W44758   5.927   4.642  19.565  0.1113 -0.1338 -0.0785
 1768W        W44759   9.427  23.647   6.927  0.0563 -0.1302  0.0846
 1769W        W44760  17.937  18.863   7.361 -0.0022  0.2169  0.2983
 1770W        W44761  12.875  10.558   8.915 -0.3362 -0.2595  0.1005
 1771W        W44762  15.762  24.210  25.120 -0.0200 -0.0216  0.4429
 1772W        W44763  13.000  24.894   0.040 -0.0256  0.1825  0.1503
 1773W        W44764   5.250  26.055  19.551  0.2161  0.0470 -0.0094
 1774W        W44765  22.702  24.220   2.794 -0.0505  0.0635  0.0809
 1775W        W44766  22.430  18.711   8.808  0.0144  0.4343  0.1682
 1776W        W44767   7.972  25.566  21.958  0.0155  0.0426 -0.0262
 1777W        W44768   1.440  16.755  11.228 -0.0530 -0.0242  0.0557
 1778W        W44769   9.270   4.700   8.346  0.2406  0.3933  0.2201
 1779W        W44770  34.752   9.213  18.448 -0.0212 -0.1077 -0.3176
 1780W        W44771   5.665   2.727   4.881 -0.0060  0.0358 -0.1000
 1781W        W44772   8.453  21.167  25.194 -0.0118  0.0623 -0.0528
 1782W        W44773   4.006  23.180   0.649  0.1816  0.1469 -0.1324
 1783W        W44774  26.558  12.678   9.482 -0.1742 -0.2656 -0.2427
 1784W        W44775   4.349  13.753   5.362  0.1972  0.1105 -0.1392
 1785W        W44776   3.580   1.370   6.180  0.1848 -0.2492  0.0259
 1786W        W44777  20.342  20.341  16.407 -0.0611  0.1680 -0.1456
 1787W        W44778  18.277   2.397  22.614  0.3728  0.0031 -0.2288
 1788W        W44779  18.646  34.414  22.781 -0.2569 -0.1131  0.1837
 1789W        W44780  30.111  19.464   4.640  0.2483 -0.1532 -0.1670
 1790W        W44781  14.289  23.363  28.860  0.2422 -0.0042 -0.2428
 1791W        W44782  12.999   5.109   2.464 -0.1831 -0.0795  0.1536
 1792W        W44783   6.503  33.676  25.317 -0.0841  0.3121  0.3159
 1793W        W44784  28.710  15.635  26.035  0.0857  0.0589  0.2563
 1794W        W44785  23.771  14.550   2.939  0.2496 -0.1993  0.2687
 1795W        W44786   4.565  16.023  10.992 -0.0520 -0.1778  0.0952
 1796W        W44787   5.226  17.338   9.486 -0.1382 -0.1697 -0.1444
 1797W        W44788  13.932   8.461   5.945 -0.1477 -0.1037 -0.0232
 1798W        W44789  29.878  18.652   2.846  0.2627  0.4080 -0.1102
 1799W        W44790   1.940  12.822   2.417  0.1005  0.0200  0.0167
 1800W        W44791  31.779  18.256  28.739  0.2246  0.0066 -0.1310
 1801W        W44792   5.179  24.441   3.459  0.0411  0.0072 -0.2141
 1802W        W44793  14.759   0.544  10.943  0.1624  0.0300 -0.1091
 1803W        W44794  18.621  34.310  19.794 -0.0211  0.1522  0.0804
 1804W        W44795   8.892  32.290   6.387  0.1476  0.0746  0.1340
 1805W        W44796  27.833  31.369   3.617  0.3245 -0.1251 -0.0285
 1806W        W44797   3.937   0.710  20.018  0.4744 -0.4101  0.0383
 1807W        W44798  19.409   9.286  24.199 -0.1721 -0.0414 -0.1732
 1808W        W44799   9.271  22.845  16.562 -0.2975  0.2545 -0.4067
 1809W        W44800  15.663   4.186   0.362 -0.0842 -0.3922  0.0417
 1810W        W44801  21.840  33.575   2.504 -0.2090 -0.1170 -0.0400
 1811W        W44802   0.027  27.971   5.113  0.0544 -0.0443  0.0456
 1812W        W44803  15.203  29.328   6.802  0.2021 -0.1566 -0.2396
 1813W        W44804  11.069  28.095  19.136 -0.0135  0.0540  0.0104
 1814W        W44805  32.191  21.744   5.334 -0.0312 -0.0796  0.1016
 1815W        W44806   0.786   5.880   6.988 -0.1705 -0.0514 -0.0415
 1816W        W44807   8.582  17.902  28.876 -0.0017 -0.2626  0.0701
 1817W        W44808   5.262   8.345   8.249  0.1982  0.0085 -0.1846
 1818W        W44809  23.381  24.084  20.137  0.2413 -0.3498  0.1293
 1819W        W44810  16.049  10.657   9.573 -0.0589  0.0019 -0.1787
 1820W        W44811  22.530  23.021   4.388  0.0939  0.2990  0.0461
 1821W        W44812   9.912  21.445   3.181  0.2368 -0.0537 -0.2813
 1822W        W44813  34.035  10.821  25.509  0.1623  0.0865  0.6164
 1823W        W44814  19.326   4.502   8.664 -0.0153 -0.3086  0.4363
 1824W        W44815  17.418   1.176   8.865  0.0144 -0.0238  0.0679
 1825W        W44816   0.226  17.296   2.691 -0.0079  0.5827  0.0378
 1826W        W44817   8.691   9.502   4.610  0.2381 -0.1779  0.3895
 1827W        W44818  19.193  18.542   3.900  0.1685 -0.2576 -0.2411
 1828W        W44819   3.977  12.882   6.671 -0.1993 -0.0101 -0.1496
 1829W        W44820  11.200   7.841  10.271 -0.0248 -0.2909 -0.0657
 1830W        W44821  19.857   8.919   4.144 -0.0974 -0.3745  0.3689
 1831W        W44822  11.932  22.900  28.099  0.0290  0.2814  0.0687
 1832W        W44823   3.767   6.160   5.724 -0.2907  0.2215  0.0407
 1833W        W44824  20.734  18.198  25.925  0.0803  0.4549  0.1596
 1834W        W44825  28.483  11.466   1.470 -0.1234  0.1028 -0.2326
 1835W        W44826   3.919  18.055   4.365  0.1634 -0.0468  0.1791
 1836W        W44827  15.959  27.340  25.439  0.1683 -0.1129 -0.0210
 1837W        W44828  23.457  13.886  25.947 -0.0229  0.1506  0.1184
 1838W        W44829  19.268  13.363   0.841 -0.0607 -0.3599 -0.1693
 1839W        W44830   3.554  34.290   1.744 -0.0772 -0.1615  0.0659
 1840W        W44831  26.517  12.416   7.687 -0.1103 -0.2689 -0.0229
 1841W        W44832  32.768   2.629   3.809  0.1046 -0.3033 -0.0829
 1842W        W44833  18.426   2.019  21.340 -0.0928  0.1649  0.0513
 1843W        W44834  13.263   7.481   9.806 -0.0992  0.0256  0.1015
 1844W        W44835  31.971  27.815   2.591 -0.0799  0.0106  0.0990
 1845W        W44836  16.753   4.119   6.028 -0.0409  0.0949 -0.2690
 1846W        W44837   5.975  16.075  26.441 -0.0411 -0.1799  0.0042
 1847W        W44838  21.467   6.026   2.685 -0.4155  0.3042 -0.0006
 1848W        W44839  13.586  16.465  26.405 -0.0457 -0.1933 -0.2848
 1849W        W44840  29.006   1.734  28.717  0.3147  0.1745  0.0265
 1850W        W44841   1.904  16.173   3.587  0.0641  0.1827  0.1093
 1851W        W44842  14.622  10.858  28.579  0.0473 -0.5008  0.3753
 1852W        W44843  11.038  15.276   5.165  0.0077 -0.0501  0.1986
 1853W        W44844  12.488  22.243   5.578 -0.1621  0.1343 -0.1974
 1854W        W44845  26.040  10.954   1.288  0.0937  0.1183 -0.0176
 1855W        W44846  11.415  29.393   6.940  0.1092 -0.0578  0.0728
 1856W        W44847  27.875  17.435   9.696  0.1813 -0.1936 -0.2165
 1857W        W44848  28.586  11.703  25.229  0.1634  0.1879 -0.2527
 1858W        W44849  13.311   4.686   8.914  0.1159 -0.0854  0.0139
 1859W        W44850   6.486  15.478  10.843 -0.1868  0.2005  0.0218
 1860W        W44851  18.961  20.788   8.291  0.5171 -0.1336 -0.1582
 1861W        W44852  10.105  28.484  15.144  0.1106 -0.1515 -0.0751
 1862W        W44853  15.073  19.223   0.296 -0.2036  0.0223  0.0994
 1863W        W44854  25.634   9.837  25.677  0.1460 -0.2224 -0.1804
 1864W        W44855   8.541   1.969   9.266  0.3242  0.0420 -0.2226
 1865W        W44856  25.991  17.284   7.806  0.1827 -0.0036  0.0862
 1866W        W44857  15.830  29.434   1.715 -0.4112  0.3312  0.4120
 1867W        W44858  26.217   9.274  17.547 -0.0234 -0.1248 -0.0661
 1868W        W44859  14.116  15.862   7.013  0.2642  0.2373  0.1701
 1869W        W44860   1.232  17.276  27.450 -0.1649  0.1554  0.0747
 1870W        W44861   9.600   1.366   2.112  0.1993  0.0779  0.0555
 1871W        W44862  17.338   7.347   7.338 -0.0716 -0.0079  0.0321
 1872W        W44863   4.035  15.176   9.927  0.0287 -0.1273 -0.1765
 1873W        W44864  16.319  17.506   5.051  0.3073 -0.1594  0.1486
 1874W        W44865  26.019  16.572   2.036 -0.4063  0.2304 -0.0201
 1875W        W44866  13.763   3.128  29.062  0.1032 -0.2579 -0.0835
 1876W        W44867   1.993  24.321   8.248  0.0573 -0.0153 -0.4731
 1877W        W44868  13.307   0.079   8.091 -0.3737 -0.2717 -0.1829
 1878W        W44869   7.634  27.309  28.298 -0.3068  0.0129 -0.3055
 1879W        W44870  12.072  24.814   8.075 -0.0761 -0.3393  0.0539
 1880W        W44871  16.316  20.981  24.690  0.1683  0.1843 -0.0095
 1881W        W44872  18.583  10.597   6.904  0.3077  0.0468 -0.2815
 1882W        W44873   8.383  23.286   7.477  0.2109  0.1283  0.1824
 1883W        W44874  23.562  20.299   9.552 -0.0642 -0.1491 -0.2184
 1884W        W44875   7.077  16.810   1.024 -0.2425  0.1548 -0.2299
 1885W        W44876  34.372   9.447   2.524  0.2274  0.0631 -0.2625
 1886W        W44877   6.648   5.270   6.893  0.0540 -0.0025  0.0664
 1887W        W44878  15.240   9.138   8.487  0.1757  0.0036  0.2652
 1888W        W44879  10.358  16.382   1.168  0.0726  0.0573  0.3656
 1889W        W44880  24.157   1.076   2.757  0.2171  0.2295 -0.3816
 1890W        W44881  19.199  14.083  25.489 -0.2065 -0.0597 -0.1717
 1891W        W44882  13.300  17.604   8.083 -0.1720 -0.1318  0.3152
 1892W        W44883   6.602  11.555  21.142 -0.2037 -0.0338 -0.0498
 1893W        W44884   2.193  15.157   6.576 -0.0397 -0.2424  0.2594
 1894W        W44885  26.654  12.775   5.013 -0.2142  0.0429 -0.0498
 1895W        W44886  17.442  27.751  19.638 -0.1148 -0.0621 -0.3117
 1896W        W44887  28.619  13.291  10.650  0.0602  0.2260  0.2263
 1897W        W44888  20.474  12.835   7.397 -0.0803 -0.0243  0.2458
 1898W        W44889   1.754   0.490   1.390  0.1192 -0.3665 -0.1024
 1899W        W44890  15.485  32.360   6.617  0.1983 -0.0240 -0.0198
 1900W        W44891  15.993  14.543   1.893  0.2288 -0.1204  0.0430
 1901W        W44892  15.750   3.779   8.583 -0.1696 -0.3140 -0.1081
 1902W        W44893  25.158  20.552   2.158  0.1015  0.2654 -0.0814
 1903W        W44894  23.523  19.383  12.645 -0.1920  0.1415 -0.0348
 1904W        W44895  25.538   1.685   3.396 -0.0418  0.3821  0.2107
 1905W        W44896   6.607  17.326   5.766 -0.1625  0.1396  0.0055
 1906W        W44897  21.012  13.103   6.087 -0.1084  0.0089 -0.0249
 1907W        W44898   5.174  19.886   6.787  0.1206 -0.0520  0.0303
 1908W        W44899  15.246   7.787  18.276 -0.3061 -0.0611 -0.2245
 1909W        W44900  33.754  19.955  25.332  0.0676  0.2668  0.1774
 1910W        W44901  31.193  12.854  25.867 -0.4502  0.0078  0.2284
 1911W        W44902   9.111  13.217  27.839  0.0495 -0.4854  0.2624
 1912W        W44903  17.905  17.540   4.349 -0.0658  0.0263  0.1107
 1913W        W44904  32.663  17.747   2.892  0.3406  0.1747 -0.1204
 1914W        W44905  21.563  10.827  24.038  0.0660  0.4488 -0.1689
 1915W        W44906  18.693   2.659  26.613 -0.1155  0.3116  0.2084
 1916W        W44907  15.604  26.269  25.225 -0.2745  0.1077  0.0579
 1917W        W44908  12.858   8.467   5.608  0.1435  0.0433  0.4278
 1918W        W44909  32.964   1.576   5.434  0.0278 -0.1570 -0.0057
 1919W        W44910   5.278  14.876   9.635 -0.0554 -0.1349  0.0997
 1920W        W44911   7.314  11.623  10.132  0.0344 -0.2161 -0.0507
 1921W        W44912  17.310  34.420  28.260 -0.2049  0.0460 -0.1886
 1922W        W44913  12.943  11.696   1.012  0.1801 -0.1824  0.1179
 1923W        W44914  13.874  10.754  10.487 -0.2700  0.2363  0.1282
 1924W        W44915   5.402  13.963  10.185  0.1182  0.1374  0.0886
 1925W        W44916   7.563  13.734   2.035  0.0999 -0.0986 -0.1565
 1926W        W44917  16.895  11.103   4.867 -0.0244 -0.0111 -0.0117
 1927W        W44918  13.342  24.910   6.186 -0.2502 -0.0428  0.0057
 1928W        W44919  33.328   4.312  21.607  0.0605 -0.2241  0.1423
 1929W        W44920  15.264  25.974  20.698 -0.4123  0.0833  0.0487
 1930W        W44921  14.437  15.812  15.809 -0.0164 -0.2667 -0.0838
 1931W        W44922   2.173  18.599   9.505 -0.1697 -0.1435  0.0767
 1932W        W44923  10.164  26.850   2.893 -0.1491 -0.2555 -0.0864
 1933W        W44924  29.969   1.677  26.345  0.0303 -0.0657 -0.0994
 1934W        W44925  26.362  14.557   7.453  0.4073 -0.1850  0.2410
 1935W        W44926   6.921  24.898  10.019  0.0781  0.2922 -0.2998
 1936W        W44927   8.721  31.369  23.708 -0.1608  0.0682  0.3106
 1937W        W44928  20.149  19.357   3.160 -0.0084  0.0494 -0.2778
 1938W        W44929   7.589  34.302   6.794  0.2052  0.1171 -0.2159
 1939W        W44930  27.274   5.949  24.064 -0.0743  0.0712  0.2265
 1940W        W44931   9.481   2.259   4.355 -0.2467  0.1756 -0.0145
 1941W        W44932  32.006  10.452   9.552  0.0574 -0.2640 -0.0687
 1942W        W44933   3.096  29.085   4.037  0.0938  0.0745  0.0747
 1943W        W44934   8.830   2.936  11.006 -0.0334  0.0867 -0.0413
 1944W        W44935  21.110  20.272  23.211  0.1766 -0.0951 -0.0125
 1945W        W44936  28.553  19.651   2.045 -0.0046 -0.0414  0.0657
 1946W        W44937  22.270   0.976   2.964 -0.1394  0.1787 -0.0532
 1947W        W44938  11.271  22.247   8.821 -0.5760  0.2766 -0.0561
 1948W        W44939  11.698  22.225   8.473 -0.1682 -0.2810  0.1545
 1949W        W44940  10.676  10.691   2.481 -0.0601  0.1884 -0.3925
 1950W        W44941  18.926  11.010   8.541  0.0846  0.0316  0.2278
 1951W        W44942  26.693   7.439  26.150  0.2117  0.1302 -0.2297
 1952W        W44943  14.482   6.912  10.470 -0.0444 -0.0907  0.1875
 1953W        W44944  20.346  13.658   7.481  0.0391  0.2681  0.0542
 1954W        W44945  14.640  14.229   6.616 -0.0428 -0.1476  0.0614
 1955W        W44946  17.922  20.215  24.526 -0.2250 -0.0622 -0.1660
 1956W        W44947   9.227   1.855  25.042 -0.0827  0.5604  0.0065
 1957W        W44948  18.613   7.129   7.565  0.2771  0.0911 -0.0784
 1958W        W44949  12.794  27.227   3.479 -0.1578 -0.0963 -0.1677
 1959W        W44950  28.154  18.485   2.893 -0.0103  0.0075  0.1590
 1960W        W44951   7.879  10.388  11.597 -0.1734  0.0204  0.4950
 1961W        W44952  27.062   9.975   4.042 -0.0676 -0.3159 -0.1578
 1962W        W44953  24.778   6.878   9.285  0.1320 -0.0494 -0.3734
 1963W        W44954   5.540  14.059   1.380  0.0200 -0.0026 -0.3473
 1964W        W44955  26.991  11.275   0.801 -0.2245  0.0349  0.1281
 1965W        W44956  12.276  24.591   2.808  0.4533  0.2054  0.0009
 1966W        W44957   2.233  18.869   2.415  0.1891 -0.2989 -0.1457
 1967W        W44958  23.050  10.232  23.027  0.1929 -0.0886  0.2507
 1968W        W44959   7.796  25.712   6.724  0.0154 -0.2460  0.0472
 1969W        W44960  24.551   7.763   8.258 -0.2309 -0.1443 -0.3079
 1970W        W44961  27.623  15.130   5.461 -0.2291 -0.1864  0.0989
 1971W        W44962  31.980  16.656   7.955  0.1875 -0.0216 -0.2151
 1972W        W44963  17.203   6.751   3.887  0.2285 -0.0287  0.1947
 1973W        W44964   7.749  22.400  27.520 -0.0324 -0.1590  0.2583
 1974W        W44965  18.599  21.040   2.554 -0.1104 -0.2169  0.1620
 1975W        W44966  21.910   9.777   2.597  0.0908  0.0792 -0.1015
 1976W        W44967  24.871  15.915  25.172  0.1465 -0.1512  0.1839
 1977W        W44968  16.697  15.660   3.003 -0.1014  0.0890 -0.3314
 1978W        W44969  12.956  30.486  27.653  0.0037  0.0775 -0.1929
 1979W        W44970  34.739  28.128   1.405  0.2449  0.0075  0.0104
 1980W        W44971  23.620  26.772  21.950 -0.2728  0.0137  0.1248
 1981W        W44972  27.942  30.445  14.475  0.0374  0.2995  0.0661
 1982W        W44973  17.729  13.398  27.266  0.4467  0.2545 -0.0041
 1983W        W44974  16.612   1.746  28.447  0.1321 -0.1593  0.1253
 1984W        W44975  13.590  17.178   3.477  0.1202 -0.2910 -0.1670
 1985W        W44976   8.451  20.280  21.369 -0.0367  0.0089 -0.2309
 1986W        W44977  12.535  19.882   7.035  0.0572  0.2186  0.1445
 1987W        W44978  20.790  28.038   2.223  0.0735 -0.2043 -0.2882
 1988W        W44979  14.113  15.971  26.713  0.0266 -0.1473  0.3538
 1989W        W44980  24.144   5.085   3.562 -0.0180  0.1770  0.0321
 1990W        W44981   6.805  23.274   2.138 -0.2549  0.3134 -0.3901
 1991W        W44982  13.475  15.839   8.277 -0.5824 -0.0393  0.2936
 1992W        W44983  24.105  12.723  19.180  0.0393  0.0548  0.0836
 1993W        W44984  23.032  18.189   8.161 -0.0379 -0.5124  0.1300
 1994W        W44985  24.363  12.525   8.058  0.1311  0.1393  0.1780
 1995W        W44986  24.357  13.905   8.038 -0.1219  0.1146  0.1371
 1996W        W44987  33.272  20.803  10.326 -0.2357 -0.1283  0.0399
 1997W        W44988  29.502   2.697   1.690  0.0278  0.0705 -0.0735
 1998W        W44989  15.117  14.678   4.454  0.2296  0.0685 -0.0656
 1999W        W44990  25.039   6.993   4.515 -0.0732 -0.2847 -0.1415
 2000W        W44991   9.558   5.771  28.462 -0.2169 -0.0172  0.4682
 2001W        W44992  21.429  10.580  25.567 -0.0787  0.0211 -0.0118
 2002W        W44993  32.966  17.109  26.743 -0.1753 -0.2568  0.0521
 2003W        W44994  15.433  22.267   7.409  0.1524 -0.1667 -0.2708
 2004W        W44995  11.103   3.201  24.138 -0.3847 -0.1357  0.0586
 2005W        W44996  20.600   5.821   1.207 -0.0331 -0.2167  0.3084
 2006W        W44997  17.888  34.249   4.328  0.0078 -0.1306 -0.0289
 2007W        W44998  20.770   5.080   1.414  0.0431  0.0896 -0.1530
 2008W        W44999   1.477   7.102   2.100 -0.0659 -0.0941 -0.0662
 2009W        W45000  11.701  12.285  11.040  0.2600 -0.1498 -0.2602
 2010W        W45001  23.853  20.311   4.186  0.0167  0.0345  0.0142
 2011W        W45002  20.429   8.490  28.610 -0.0316  0.2775 -0.1777
 2012W        W45003  19.637  18.729   0.293 -0.0472  0.1098 -0.1228
 2013W        W45004  21.485  16.755   6.209  0.3239  0.0676 -0.0924
 2014W        W45005  18.420   7.708   9.202  0.0300 -0.2202  0.0145
 2015W        W45006  21.965  26.935   8.651 -0.1599  0.0014  0.0602
 2016W        W45007  21.018   5.516  20.487  0.4294 -0.1446  0.2769
 2017W        W45008  32.477  18.931   0.992 -0.0218 -0.1050  0.1771
 2018W        W45009  33.322  17.020   9.776 -0.3315  0.2564  0.4169
 2019W        W45010  34.346  12.032  27.372  0.0291 -0.2367  0.1403
 2020W        W45011  24.502   7.897   1.296 -0.3166  0.0577  0.0140
 2021W        W45012  27.075   3.962   6.668 -0.0203  0.2037  0.2174
 2022W        W45013  19.751  11.324  26.957 -0.1202  0.1425 -0.0684
 2023W        W45014  26.781  18.335  29.222 -0.1804 -0.0599 -0.2715
 2024W        W45015  30.527   9.654  10.004  0.0796  0.0658  0.1671
 2025W        W45016  27.623   4.140  25.706  0.2134  0.0528  0.1277
 2026W        W45017   6.007  15.120   9.937 -0.1037 -0.1072 -0.4237
 2027W        W45018   9.180  14.925  14.828 -0.1417  0.1616  0.1770
 2028W        W45019  20.171  15.277   0.299  0.4561 -0.2283  0.2787
 2029W        W45020  19.297  10.266   8.684 -0.2827 -0.2594  0.2152
 2030W        W45021   7.961  13.498  10.593  0.1133 -0.0346  0.1363
 2031W        W45022  16.476  32.675   2.024  0.0499  0.1527 -0.1299
 2032W        W45023  13.874  25.881   6.035  0.3047  0.1608  0.1918
 2033W        W45024   9.385  24.085   3.794  0.0296 -0.2675 -0.0231
 2034W        W45025  27.333  17.149   8.926 -0.2433  0.2165 -0.0511
 2035W        W45026  14.972  20.373   7.673  0.3220 -0.0131 -0.3807
 2036W        W45027  16.343  11.457   9.308  0.0128 -0.3175  0.0813
 2037W        W45028  23.642   1.072   3.392 -0.0540  0.1092  0.0635
 2038W        W45029   0.747  12.848   7.162 -0.2375  0.1390  0.1389
 2039W        W45030   7.028  13.605   5.932  0.0842  0.2685 -0.0664
 2040W        W45031  14.716  16.458   1.416 -0.0164  0.1029  0.1643
 2041W        W45032   4.035  22.259   0.357 -0.1957  0.1742 -0.3627
 2042W        W45033   8.795   1.154   8.363 -0.0881  0.2526 -0.0788
 2043W        W45034   7.612  18.573   7.249 -0.0474 -0.1003  0.1794
 2044W        W45035  13.277  11.949   1.637  0.0473  0.0591  0.3040
 2045W        W45036  10.397  17.011   5.484  0.0217  0.1091 -0.3684
 2046W        W45037   6.041  34.142   2.637 -0.1880 -0.0840  0.0937
 2047W        W45038  14.206   3.537   9.044  0.0624  0.2019  0.0830
 2048W        W45039  17.870  10.240   2.763  0.0433 -0.4146 -0.2633
 2049W        W45040  32.507  12.712  23.629 -0.3270  0.2325 -0.2477
 2050W        W45041  11.314  11.816  22.697 -0.0735 -0.1241 -0.2806
 2051W        W45042  20.628  17.818   6.535 -0.1122 -0.4595 -0.3084
 2052W        W45043  16.538  21.409  21.222 -0.1916  0.1329 -0.0056
 2053W        W45044  17.140  19.284  28.843  0.1788  0.2981 -0.1456
 2054W        W45045  11.808  14.908  27.483  0.1171 -0.2015  0.1711
 2055W        W45046   6.661   3.287   0.866  0.0336 -0.0677 -0.0267
 2056W        W45047  31.333  21.075   2.642  0.0630 -0.0609  0.2176
 2057W        W45048   3.867  16.127   3.764 -0.3667 -0.0434 -0.3968
 2058W        W45049  25.574   6.261   5.858  0.0092 -0.3129 -0.1553
 2059W        W45050  15.146  33.473   0.189  0.2012 -0.0086 -0.1501
 2060W        W45051  30.030  22.293   1.544  0.1652 -0.0646  0.2473
 2061W        W45052  25.843   6.959   3.535 -0.0108 -0.2409  0.0709
 2062W        W45053  16.208  13.348   3.779  0.0269 -0.2643  0.0044
 2063W        W45054  10.102   4.320   7.159  0.0887  0.2185 -0.2523
 2064W        W45055  26.541  21.862  24.946  0.0767 -0.1829 -0.2246
 2065W        W45056  28.132  22.779   5.823  0.2285  0.2357 -0.1534
 2066W        W45057   9.878  12.035   6.716 -0.2455 -0.0424 -0.0754
 2067W        W45058  13.326  17.616   5.560 -0.0383  0.2136 -0.4705
 2068W        W45059  20.755  18.119  21.945 -0.0542 -0.0355 -0.5466
 2069W        W45060  13.045  28.092  24.910 -0.0933  0.0071  0.0921
 2070W        W45061   8.100  23.017   2.132 -0.1653  0.0351 -0.0612
 2071W        W45062  18.376  17.695   4.848  0.0160  0.1987  0.1054
 2072W        W45063  13.070   2.999   0.408  0.4701 -0.2501 -0.0020
 2073W        W45064   4.735   4.018  10.005 -0.1469 -0.2657  0.0497
 2074W        W45065   6.966  10.286   5.767  0.0952  0.2833  0.0683
 2075W        W45066  14.666  13.161   2.209  0.2213 -0.0230  0.0733
 2076W        W45067  26.218  14.167   1.036 -0.5167  0.0455  0.1576
 2077W        W45068  17.497   5.935   7.425 -0.2237  0.1070 -0.3639
 2078W        W45069  25.641  22.257  27.213 -0.3367  0.0883 -0.0017
 2079W        W45070  19.424  23.316  26.356 -0.0973  0.2068  0.1117
 2080W        W45071  18.085   2.625   9.984  0.3230 -0.3331  0.0481
 2081W        W45072  24.182  19.646   0.094 -0.0072  0.0749  0.2586
 2082W        W45073  22.289  19.302   7.027  0.0001  0.1865 -0.2520
 2083W        W45074  22.242  12.127   5.744  0.0723  0.1366 -0.0085
 2084W        W45075   7.927   8.293  22.739  0.1435 -0.0168 -0.1586
 2085W        W45076  13.200  28.329   1.899 -0.0102 -0.1119  0.2023
 2086W        W45077  24.684  17.851   4.862 -0.6177  0.0424  0.2521
 2087W        W45078  22.130   8.956   4.548 -0.1911  0.2056 -0.0665
 2088W        W45079  16.668  15.763   7.607 -0.1961  0.0003  0.2177
 2089W        W45080  18.863  12.111   6.655 -0.0194  0.0391 -0.0719
 2090W        W45081  21.956  11.702   6.574 -0.3759 -0.3475  0.3448
 2091W        W45082   7.748  26.031  29.057  0.0768  0.1730  0.0984
 2092W        W45083   1.847  16.947   8.551 -0.1181  0.2304 -0.1432
 2093W        W45084  13.086   6.380   3.685  0.1569  0.2668  0.1890
 2094W        W45085  23.809  12.795   3.641  0.0772  0.2359 -0.1770
 2095W        W45086   6.096  23.907  10.521 -0.1429  0.2339 -0.1940
 2096W        W45087  11.030  11.524   8.290  0.1625  0.1539  0.0017
 2097W        W45088  19.236  19.933  27.468 -0.1101  0.2067  0.0138
 2098W        W45089  15.950   1.584   5.485 -0.1507  0.0674 -0.3324
 2099W        W45090  16.872  11.796  26.997  0.1875  0.2984 -0.0170
 2100W        W45091  19.427  23.919   0.919  0.1565 -0.1679  0.0349
 2101W        W45092  33.528  32.050  20.048 -0.1319 -0.1333 -0.0662
 2102W        W45093  16.134   6.004  19.438 -0.2772 -0.1725 -0.2093
 2103W        W45094   7.994   4.971   9.513 -0.0625 -0.0189 -0.2207
 2104W        W45095   5.076  25.579   7.197  0.2943  0.0881 -0.1099
 2105W        W45096  11.791  23.159   8.299 -0.2450  0.0044 -0.0269
 2106W        W45097  19.080  12.441   7.984  0.0992 -0.2311 -0.0759
 2107W        W45098  17.169  25.097  27.086  0.1714 -0.1120  0.0521
 2108W        W45099  18.767   8.042  26.182 -0.0359 -0.1580 -0.0118
 2109W        W45100   4.163  16.953   0.660 -0.0168  0.2146  0.0548
 2110W        W45101  15.892  29.174   3.620  0.4016 -0.2019 -0.1065
 2111W        W45102   5.801  18.139   4.318  0.2183 -0.3309  0.2121
 2112W        W45103  22.102  10.595   7.617 -0.0617  0.2463 -0.1186
 2113W        W45104  13.628  24.657   4.806  0.2209 -0.1110 -0.1495
 2114W        W45105  33.077  15.111   4.219  0.0129 -0.2461  0.0637
 2115W        W45106  18.675  27.710   6.335  0.1450  0.2164 -0.0008
 2116W        W45107  22.942  32.874   6.410  0.1766 -0.1228 -0.0529
 2117W        W45108  14.526   1.931  26.174 -0.0025 -0.1475  0.1869
 2118W        W45109  24.070  13.490   0.197 -0.0833  0.2820  0.1401
 2119W        W45110  10.851  25.368   0.389  0.1320 -0.1070  0.1108
 2120W        W45111  34.411   3.175   4.057  0.0652 -0.0617  0.0325
 2121W        W45112   4.162  19.528   4.802 -0.2948 -0.0395 -0.1222
 2122W        W45113   8.203  23.063  23.807  0.0650  0.1642  0.1853
 2123W        W45114  10.523  20.094  28.321 -0.0596  0.1096 -0.1201
 2124W        W45115  10.502   5.364   8.554 -0.2732 -0.1916 -0.0088
 2125W        W45116  22.261  27.504   1.080  0.2611 -0.0240 -0.2531
 2126W        W45117  10.306  14.947  26.503 -0.2169  0.0284  0.1933
 2127W        W45118   9.577  10.303   8.448 -0.1632  0.1579 -0.2206
 2128W        W45119  21.537  15.150   4.048 -0.0238 -0.0800  0.4710
 2129W        W45120  15.157  20.583   8.114 -0.2047  0.3769  0.1012
 2130W        W45121  17.340  20.435   0.865  0.1761 -0.1807  0.2531
 2131W        W45122   2.500  14.669   3.628 -0.3191 -0.0119 -0.1883
 2132W        W45123  16.854  14.030   4.219  0.3419  0.2495 -0.0653
 2133W        W45124  15.261  20.254   6.273 -0.1306 -0.1280 -0.0680
 2134W        W45125  12.194  24.032   5.196 -0.0597  0.0653 -0.1187
 2135W        W45126  12.735  30.177   4.798 -0.2014  0.0315 -0.1217
 2136W        W45127  29.862  15.182   3.834  0.0779  0.2415 -0.2303
 2137W        W45128  18.370  26.443   7.781  0.1216 -0.2140  0.0867
 2138W        W45129  33.229  22.177   4.635  0.2575  0.0192 -0.2292
 2139W        W45130  17.499  17.317   6.545 -0.2033 -0.0388  0.1404
 2140W        W45131   3.541  19.373  17.502  0.1033  0.5011 -0.1832
 2141W        W45132  13.194  27.422   4.719  0.0071  0.1961  0.4294
 2142W        W45133  33.800  14.246  23.966 -0.0431 -0.1198  0.0506
 2143W        W45134  14.521  15.811  28.518 -0.3151 -0.2073  0.1834
 2144W        W45135  16.316  16.594   9.509  0.1421 -0.0911 -0.3789
 2145W        W45136  12.372  20.351   6.060  0.0641 -0.0372 -0.0900
 2146W        W45137  18.151   9.779   4.781 -0.1078  0.0616  0.1721
 2147W        W45138  28.840  34.758   2.093  0.1701  0.0451 -0.0204
 2148W        W45139  34.434  28.229   1.792 -0.0462 -0.0371 -0.1509
 2149W        W45140  19.248  13.405   9.547 -0.0027 -0.2816  0.1362
 2150W        W45141  13.798  11.076  23.641 -0.0431  0.2120  0.0073
 2151W        W45142   4.915  21.342   2.893 -0.0930 -0.3184 -0.0022
 2152W        W45143  25.378   4.542   7.093 -0.0807  0.2552  0.0838
 2153W        W45144  33.766  28.515  21.517 -0.1377 -0.0067  0.0036
 2154W        W45145  15.257  11.349   5.955  0.1990  0.1258  0.0461
 2155W        W45146   7.400   0.552  10.760  0.1733 -0.0062 -0.0355
 2156W        W45147   7.257  12.450   3.558  0.1136  0.1740 -0.0243
 2157W        W45148  18.828  13.410  19.821 -0.2199 -0.0815  0.4617
 2158W        W45149   5.134   1.297   8.142  0.1885  0.0800  0.1769
 2159W        W45150  33.648   9.942   3.437  0.0967  0.0246 -0.1512
 2160W        W45151  15.919  34.605  28.075 -0.2861 -0.0285 -0.1077
 2161W        W45152  16.560  11.474  26.325  0.2802  0.1415  0.0717
 2162W        W45153  32.032  11.104   3.711 -0.0681  0.1109 -0.0970
 2163W        W45154  12.513   9.501   1.309  0.0784 -0.1802  0.0907
 2164W        W45155   4.873   8.099  10.949  0.1361  0.1998  0.0033
 2165W        W45156   2.846   2.665   6.521  0.1245 -0.2314 -0.1162
 2166W        W45157  25.512  10.018   5.835  0.3477 -0.2907 -0.2220
 2167W        W45158   5.795  12.372   7.789  0.0317  0.4959  0.1382
 2168W        W45159  19.515  13.213  27.938  0.0387 -0.2715 -0.2187
 2169W        W45160  30.139  17.197   6.546  0.0530 -0.2336 -0.2403
 2170W        W45161  14.656  10.097   4.375 -0.1705 -0.0693  0.0415
 2171W        W45162  17.107  33.100   3.585  0.0649  0.1886 -0.2663
 2172W        W45163  22.439  13.249   7.815 -0.0307 -0.2362 -0.1016
 2173W        W45164  14.960  20.224   4.847  0.1862  0.1791 -0.1373
 2174W        W45165  13.323   5.465  27.519  0.0707 -0.0722  0.0460
 2175W        W45166   8.291  11.702  23.617 -0.4771  0.3098 -0.1480
 2176W        W45167  18.835  16.348   7.497 -0.4098 -0.0039  0.3018
 2177W        W45168  16.649  21.088  27.973 -0.2070  0.1385  0.3886
 2178W        W45169   8.147  10.866   3.008 -0.1934 -0.1521 -0.1220
 2179W        W45170   6.959  15.756  25.811 -0.3390 -0.0315 -0.0596
 2180W        W45171  24.705   6.532   6.017  0.4253  0.1201  0.2374
 2181W        W45172  15.194   3.940   5.221  0.0101 -0.2115 -0.0759
 2182W        W45173  27.717  15.494   4.945  0.4170 -0.1547 -0.0246
 2183W        W45174  21.537  15.447  26.772 -0.1617 -0.3763 -0.4613
 2184W        W45175   9.805  13.175  20.551 -0.0771 -0.2556 -0.0336
 2185W        W45176   7.427  22.007   0.819  0.0231 -0.2096  0.1996
 2186W        W45177  12.929  12.558   8.302  0.2006  0.2269  0.1159
 2187W        W45178   3.002  23.705   3.159  0.0810  0.1866  0.0407
 2188W        W45179   1.670  27.061  27.859 -0.0263 -0.1536  0.2077
 2189W        W45180  19.741  12.174   9.623 -0.0905  0.2073  0.0207
 2190W        W45181  15.427  31.847   9.635  0.0029  0.1982 -0.1509
 2191W        W45182  11.865  17.411   8.815  0.0963 -0.1217  0.4252
 2192W        W45183   5.156  13.933   7.906  0.3399  0.1520  0.1593
 2193W        W45184  13.556   7.322   7.147 -0.1977  0.0341 -0.0691
 2194W        W45185  19.904   7.611  26.768 -0.1413 -0.1433 -0.1256
 2195W        W45186  12.958  16.710   0.345 -0.0820  0.0454  0.2495
 2196W        W45187   4.684  20.603  28.056  0.0122 -0.1040 -0.2872
 2197W        W45188  29.199   8.775  25.595 -0.0512 -0.0537  0.1460
 2198W        W45189  14.220  29.238   4.684  0.0275 -0.1452 -0.1033
 2199W        W45190   4.611  11.227  25.448  0.0308 -0.3246  0.0432
 2200W        W45191   3.332  16.475   8.153 -0.2564  0.3519  0.1280
 2201W        W45192  27.431  13.387  29.240  0.2754  0.0387 -0.0116
 2202W        W45193   8.239   5.687   5.706 -0.0250 -0.1629  0.1190
 2203W        W45194   5.152   9.330   8.086  0.0195 -0.1528 -0.0737
 2204W        W45195   1.760   4.694   7.133 -0.2349  0.0308  0.0581
 2205W        W45196  17.607  25.888   9.025 -0.2809  0.5183 -0.1556
 2206W        W45197   3.830  20.893   1.986 -0.0403  0.1539  0.2678
 2207W        W45198  34.693  14.133   5.407  0.2946  0.0215 -0.1825
 2208W        W45199  24.903   8.782   9.685  0.3267 -0.2249 -0.2121
 2209W        W45200  16.408  27.917   0.397  0.2183  0.2749  0.1461
 2210W        W45201  14.885  26.585  27.775 -0.3166  0.1833 -0.0730
 2211W        W45202  14.712  16.133  24.761  0.0257  0.1890 -0.4626
 2212W        W45203  18.265  13.246  23.893 -0.1049  0.2568 -0.2311
 2213W        W45204   8.519  22.661   1.492  0.0563  0.2708  0.0979
 2214W        W45205  16.342  20.324  27.711 -0.2133 -0.0042  0.0714
 2215W        W45206  20.446  24.307   7.351 -0.2333  0.2716 -0.2306
 2216W        W45207  33.146   1.222   8.787  0.3235  0.0545 -0.1043
 2217W        W45208   7.024   2.237   6.397 -0.1292  0.1096  0.4201
 2218W        W45209  10.264  29.500  25.549 -0.0200 -0.1182  0.1603
 2219W        W45210  17.672  23.584   3.992  0.0167 -0.1405 -0.0259
 2220W        W45211  15.170  13.579  21.798  0.0580  0.0364  0.1797
 2221W        W45212   9.946  10.919  10.251  0.1261  0.0662 -0.2368
 2222W        W45213  19.146   3.670   5.210 -0.1993  0.0274 -0.0754
 2223W        W45214  12.668  22.097   1.223 -0.0684  0.1192 -0.0534
 2224W        W45215   2.288   5.837  26.769  0.0786  0.1786 -0.2289
 2225W        W45216  15.319  32.778  21.202 -0.1390 -0.2448  0.1519
 2226W        W45217   7.347  13.578   8.773  0.0941 -0.1309 -0.3918
 2227W        W45218  11.998  10.385  10.808  0.5661 -0.0211  0.2486
 2228W        W45219  16.744   4.452   8.350 -0.3302  0.0895 -0.0874
 2229W        W45220   8.757  29.831   7.008  0.2006 -0.5083  0.0531
 2230W        W45221  17.323  33.947   3.582 -0.2448  0.2092 -0.1770
 2231W        W45222  15.053  17.039   6.936  0.0839  0.0995  0.0547
 2232W        W45223   4.869   6.772   6.318  0.0438  0.1346  0.2244
 2233W        W45224  26.423  14.756   8.644  0.3202  0.1696  0.4816
 2234W        W45225  10.726  10.323   5.606 -0.1996 -0.0034 -0.3112
 2235W        W45226  29.056   7.775  20.558  0.0290  0.1071 -0.0286
 2236W        W45227  10.842  32.673   8.226  0.0375  0.5633  0.0440
 2237W        W45228  22.850  14.447   0.495 -0.0461 -0.0399  0.0539
 2238W        W45229   1.478  10.049   5.991 -0.2206 -0.2938  0.1416
 2239W        W45230  22.001  16.264   7.036  0.1726 -0.2390 -0.1612
 2240W        W45231  10.603   5.814   3.025 -0.0464 -0.0840 -0.1474
 2241W        W45232   3.065  31.554   3.074 -0.1428  0.1684  0.0365
 2242W        W45233  27.544  16.100   4.412  0.2116  0.0484 -0.0165
 2243W        W45234  15.047  23.888   3.106 -0.3110 -0.3142 -0.0828
 2244W        W45235  10.087   2.639   6.560 -0.0746 -0.1082  0.2245
 2245W        W45236  24.423   8.573   1.867 -0.3830  0.1935 -0.0992
 2246W        W45237  15.328   9.847   7.606  0.0408  0.1005  0.0774
 2247W        W45238  19.588  20.021  25.612  0.0523  0.0366 -0.1186
 2248W        W45239  19.317  15.863  24.706  0.1195  0.2091 -0.0333
 2249W        W45240  12.258  29.501   3.422  0.1582  0.3682  0.4366
 2250W        W45241  17.209   9.359  26.532  0.0846  0.0871  0.2964
 2251W        W45242   9.434   1.328   0.391  0.1297 -0.3400 -0.1825
 2252W        W45243  15.991  21.961  23.264 -0.1125 -0.1504 -0.2481
 2253W        W45244  12.825   3.614   2.051 -0.0276 -0.2696  0.1783
 2254W        W45245  13.103  19.194   4.347  0.2340 -0.1246  0.1007
 2255W        W45246  26.515  16.742  24.508  0.0857 -0.0912  0.1655
 2256W        W45247  23.054  17.304   8.749  0.0361  0.0029 -0.2496
 2257W        W45248  15.709  20.477   0.396  0.0325  0.2500  0.0727
 2258W        W45249   7.101  16.793   3.906  0.1732 -0.3632 -0.0414
 2259W        W45250   1.284   2.308   8.407  0.0191  0.3342 -0.1046
 2260W        W45251   7.074  33.924  28.475  0.0262 -0.1554  0.1129
 2261W        W45252  26.203  19.540  25.759 -0.1846  0.1696  0.0744
 2262W        W45253  10.149  18.392   8.247 -0.1513 -0.1364  0.1668
 2263W        W45254  24.256  11.752   8.739  0.0687  0.0294  0.1481
 2264W        W45255  10.473   8.311   9.439 -0.3406 -0.4162  0.3452
 2265W        W45256  34.245  13.630   0.780  0.2077 -0.0378  0.0341
 2266W        W45257  20.830  16.155   0.515  0.1714  0.4878  0.1423
 2267W        W45258  13.229  18.115   7.946  0.1396  0.4127  0.0705
 2268W        W45259  33.320   9.126   8.783 -0.1503  0.2424 -0.2242
 2269W        W45260   8.995  24.378  14.262  0.3226  0.4196  0.1599
 2270W        W45261  30.973  11.134   8.629 -0.1138 -0.1649 -0.2441
 2271W        W45262   2.982  32.425  29.003 -0.2009  0.1334  0.0864
 2272W        W45263   5.847   8.218   7.262 -0.0562  0.2468 -0.0424
 2273W        W45264  16.954   9.361   5.295  0.1654 -0.1571  0.2324
 2274W        W45265  19.925   6.165  27.651  0.1690 -0.0131 -0.0690
 2275W        W45266  13.541   4.821  28.656 -0.0183 -0.1262  0.0244
 2276W        W45267  21.003   4.366   7.400  0.2484 -0.0805  0.5908
 2277W        W45268  33.775   9.134   3.033  0.0729 -0.0156 -0.0389
 2278W        W45269  24.757  20.490  26.242 -0.1945 -0.1389  0.2814
 2279W        W45270  10.929  19.849  28.208 -0.4393 -0.1872 -0.0141
 2280W        W45271  21.546   2.111  25.201  0.0690  0.0357 -0.1099
 2281W        W45272  10.377   4.525   9.975 -0.0671  0.0348  0.0815
 2282W        W45273  18.686  15.259   7.562 -0.3734 -0.1077 -0.2302
 2283W        W45274  28.870  11.235   3.674  0.1004  0.2707  0.0548
 2284W        W45275  15.527  18.489  27.768  0.2094 -0.0170 -0.2108
 2285W        W45276   0.131  17.465   6.709  0.1756 -0.0121  0.0623
 2286W        W45277   7.547  25.637  24.150 -0.0743  0.1777 -0.0627
 2287W        W45278  15.982  14.052  23.154  0.5095 -0.0810 -0.0296
 2288W        W45279   6.426  29.839   0.545 -0.0930  0.2447 -0.1861
 2289W        W45280  19.123  22.842   4.973  0.0383 -0.0972 -0.1140
 2290W        W45281  19.233  34.068  10.098 -0.2755  0.1170 -0.0708
 2291W        W45282   9.620   8.454   6.534  0.1686 -0.0840 -0.2330
 2292W        W45283  12.041  33.063   2.757  0.0183  0.0110 -0.1257
 2293W        W45284  34.130  20.154   8.880 -0.2484  0.4730  0.0564
 2294W        W45285  13.823   1.488   8.057  0.1396 -0.0119  0.5167
 2295W        W45286  26.842  15.713   2.786  0.0794 -0.2792 -0.1903
 2296W        W45287  12.413  28.268   2.902 -0.2947  0.0339  0.1277
 2297W        W45288   6.358   4.588   6.880 -0.0073 -0.1267 -0.2336
 2298W        W45289  14.984  13.150  10.109 -0.2319 -0.1246  0.1666
 2299W        W45290  16.646  29.698  21.350  0.0830  0.1878 -0.1156
 2300W        W45291   7.639   2.666  28.563 -0.3919  0.0046 -0.1941
 2301W        W45292   9.979  23.611  18.712 -0.3008  0.0389 -0.1909
 2302W        W45293  15.563  12.063  22.952 -0.0712  0.2251  0.0498
 2303W        W45294  17.763  18.902  27.128 -0.0035 -0.0210 -0.0228
 2304W        W45295  26.662  24.509  26.684  0.0021 -0.1993 -0.2702
 2305W        W45296   7.103  27.576  19.503 -0.0732  0.0529  0.3197
 2306W        W45297  29.725  26.039  27.116 -0.0480 -0.1146  0.2335
 2307W        W45298   8.794  22.455  26.528 -0.1428  0.1295  0.3913
 2308W        W45299   7.361  15.906  23.334 -0.4418  0.0423  0.3385
 2309W        W45300  16.387  30.012  22.192 -0.0505  0.1747 -0.0864
 2310W        W45301  21.896   9.508   8.652  0.0952 -0.0674 -0.3443
 2311W        W45302   9.848  32.521   6.747  0.1401  0.0013  0.3017
 2312W        W45303  16.268  11.029  15.494 -0.2151  0.0037 -0.1356
 2313W        W45304  14.988  24.037   7.813  0.3845  0.0530 -0.0812
 2314W        W45305  21.191   9.570   6.691  0.2854 -0.0913  0.1303
 2315W        W45306  22.539  28.929   7.780  0.1110 -0.2376 -0.1332
 2316W        W45307   0.306  13.383  23.891  0.0819 -0.0295  0.2150
 2317W        W45308  31.274  14.965   3.877  0.0316 -0.0865 -0.0399
 2318W        W45309   9.256  22.792   9.181 -0.0023 -0.1721  0.0187
 2319W        W45310  21.924  16.732  25.116  0.3176 -0.0140  0.1299
 2320W        W45311   9.470  12.781  20.742  0.1706 -0.0959 -0.1992
 2321W        W45312  33.480   6.258  25.020  0.2048 -0.0983  0.0874
 2322W        W45313   5.203  13.454   6.040  0.1461 -0.2109  0.2964
 2323W        W45314  29.669  33.488  14.182  0.4530 -0.3608  0.1210
 2324W        W45315  10.438   8.391   8.135 -0.0122  0.2973  0.4103
 2325W        W45316  34.394   5.068  25.004  0.4088 -0.0054 -0.1245
 2326W        W45317   8.315  29.397  18.294 -0.0171  0.2234  0.0549
 2327W        W45318  25.334  17.149  24.085  0.0660  0.0685 -0.2551
 2328W        W45319  18.437  14.225   6.808  0.1306  0.1623  0.2195
 2329W        W45320  14.545  19.000   4.555  0.1822 -0.0212  0.0920
 2330W        W45321  28.295   5.256  15.310  0.1015 -0.0415  0.2594
 2331W        W45322   8.670   7.734  29.117  0.2116 -0.2544  0.1494
 2332W        W45323  17.731  24.002   2.404  0.1156  0.1322 -0.2683
 2333W        W45324  10.581  24.377  28.878  0.1822 -0.2003 -0.4090
 2334W        W45325  22.440  27.805  25.997  0.1465 -0.2325  0.1644
 2335W        W45326  15.466  15.928  25.343 -0.0095  0.0770  0.2925
 2336W        W45327  14.232  16.730   6.993 -0.1586 -0.1543 -0.1833
 2337W        W45328  20.420   5.254  22.129 -0.3781  0.1352 -0.0555
 2338W        W45329  33.828  10.463   2.509 -0.1278 -0.0387 -0.2320
 2339W        W45330  31.185  15.519  15.247 -0.4779  0.1222  0.1398
 2340W        W45331   2.159  30.255  24.906 -0.2314 -0.0764 -0.0196
 2341W        W45332  24.348  11.865   8.106  0.0690 -0.0764  0.1188
 2342W        W45333  11.302  24.102   6.887 -0.0680 -0.0846  0.0543
 2343W        W45334   7.250   8.128  27.816  0.4101  0.0640  0.0835
 2344W        W45335  18.225  29.592  18.074  0.0020  0.1307 -0.3187
 2345W        W45336  22.558  28.951   5.864  0.2313  0.3155  0.0477
 2346W        W45337  17.828  26.934   6.723 -0.4944 -0.0393 -0.0894
 2347W        W45338   2.518  14.912   8.404 -0.2846 -0.1353 -0.0052
 2348W        W45339  22.055   8.590   7.546  0.3030 -0.0019  0.0583
 2349W        W45340  32.764  14.607   0.426  0.3376 -0.3448  0.1944
 2350W        W45341  10.901  20.711  10.147  0.1763 -0.0006  0.1754
 2351W        W45342   7.781  21.254   1.738  0.1915  0.4050  0.0635
 2352W        W45343  12.416  32.762   5.122  0.0969  0.1340 -0.0326
 2353W        W45344  19.640  18.775   8.521 -0.3322  0.1180 -0.0432
 2354W        W45345  12.713  29.928   8.585  0.1844  0.2125  0.0061
 2355W        W45346  14.635  25.374   4.448  0.1579  0.2095 -0.0134
 2356W        W45347  10.846  28.515   5.111  0.0823  0.0254  0.0489
 2357W        W45348   9.470   7.484  25.638 -0.0004 -0.0362 -0.1653
 2358W        W45349  17.039  11.964   7.561 -0.0901  0.1571  0.3272
 2359W        W45350  16.432  24.045  17.855  0.1411  0.3227 -0.0629
 2360W        W45351  34.687  20.516  24.283 -0.0887  0.0227 -0.0305
 2361W        W45352  10.082  24.117   7.098 -0.5302  0.1573 -0.1082
 2362W        W45353  24.933   6.880  29.163  0.0437 -0.1164  0.1553
 2363W        W45354  13.733  19.757  27.098 -0.0808 -0.1118 -0.0776
 2364W        W45355  14.123  20.201   1.376  0.1420  0.0049  0.0730
 2365W        W45356  17.576  23.883  26.022  0.1894  0.0882  0.0768
 2366W        W45357  11.507  18.620  24.012  0.1528  0.3539 -0.1942
 2367W        W45358  11.503  17.311   1.524 -0.1803  0.1172 -0.1197
 2368W        W45359  23.440  11.217   0.613  0.0528 -0.1187 -0.1578
 2369W        W45360  23.786  27.198   7.237 -0.0598 -0.0906  0.0087
 2370W        W45361  33.137  20.541   0.117 -0.1233 -0.1500  0.0486
 2371W        W45362  13.890   5.944  10.922  0.1609  0.1880  0.1799
 2372W        W45363  11.363  33.464  18.634  0.2813  0.0007 -0.3398
 2373W        W45364   6.250  13.924   4.805 -0.0672  0.0409 -0.2459
 2374W        W45365  12.603   8.880   5.660  0.0281  0.1314 -0.1465
 2375W        W45366  20.326  10.904  28.596 -0.2959 -0.1629 -0.0246
 2376W        W45367   8.784   9.634  24.492 -0.2685 -0.0820 -0.1276
 2377W        W45368   8.392  15.710  19.757 -0.1541  0.1835  0.1565
 2378W        W45369   6.487  12.756   6.272 -0.1380 -0.0528 -0.0975
 2379W        W45370  16.431  18.165  27.568  0.0894 -0.1908  0.1681
 2380W        W45371   6.848  33.160  24.532  0.4194 -0.1403 -0.1398
 2381W        W45372  14.515  20.731  18.787 -0.1349  0.2772 -0.1224
 2382W        W45373  21.256  19.969   8.218 -0.2388  0.1295  0.1707
 2383W        W45374  14.894  34.396  26.241  0.3078 -0.0281  0.0213
 2384W        W45375   7.187   7.310   0.587 -0.0328 -0.2269 -0.2808
 2385W        W45376  29.261   7.557   0.533 -0.1595 -0.0254  0.2751
 2386W        W45377  18.675  25.036   6.146  0.0523 -0.1795 -0.0470
 2387W        W45378  26.235  19.618   7.440 -0.0867 -0.0857 -0.0073
 2388W        W45379  23.748  34.206   0.875  0.2206  0.3616  0.1722
 2389W        W45380  19.539  32.093  13.123  0.0190  0.4548  0.1172
 2390W        W45381  11.555  23.703   6.669 -0.0394  0.0006 -0.0397
 2391W        W45382  20.759  23.869   3.025  0.1783 -0.3089  0.0844
 2392W        W45383   1.570  15.140   4.921 -0.1797 -0.0026 -0.3048
 2393W        W45384   6.306   1.888   7.718  0.3885  0.1095  0.1012
 2394W        W45385   4.386  15.903   6.882 -0.1120 -0.2104  0.1539
 2395W        W45386  11.408   5.989  10.749  0.1242  0.3030  0.0007
 2396W        W45387   7.755  13.648   5.843  0.0907 -0.1548 -0.2946
 2397W        W45388  20.030   5.133  23.389  0.2875  0.0168  0.4039
 2398W        W45389  18.245  21.266  20.978  0.1911 -0.0033 -0.1455
 2399W        W45390  23.889  19.594   5.415 -0.0281 -0.1555  0.0030
 2400W        W45391   4.524  21.511   5.737 -0.2035  0.2124  0.0569
 2401W        W45392   3.010  26.304   8.689 -0.0490  0.0200 -0.1093
 2402W        W45393   7.653  27.787  10.703  0.1121 -0.0280 -0.1913
 2403W        W45394  10.412  20.491   1.285 -0.0313  0.1743  0.1397
 2404W        W45395   0.558   7.120   5.759 -0.0990 -0.2835 -0.3113
 2405W        W45396   2.721   4.272   2.243  0.3679  0.0899  0.1826
 2406W        W45397  29.130   6.246  22.549  0.4865  0.2508 -0.0216
 2407W        W45398  22.540  25.371  24.272 -0.2116  0.0304  0.0183
 2408W        W45399  23.378  23.140   3.565  0.0102 -0.2459 -0.1545
 2409W        W45400  24.006  16.594  21.561  0.4303  0.1110  0.1577
 2410W        W45401  18.538  16.272  28.229  0.2972  0.1656 -0.1062
 2411W        W45402  12.548  20.945   2.705  0.3409  0.1102 -0.1732
 2412W        W45403  19.069  21.835  20.481  0.1437 -0.2086 -0.0417
 2413W        W45404  17.566   8.669  19.601 -0.1081  0.0425 -0.2836
 2414W        W45405   8.020  30.769  25.056 -0.0482 -0.1355  0.2089
 2415W        W45406  33.275  15.280   8.123  0.1877  0.3679  0.1623
 2416W        W45407  27.712   2.622   4.509  0.1456  0.2566 -0.0860
 2417W        W45408  17.813  10.651  26.336 -0.0522  0.1270  0.3881
 2418W        W45409  18.463  25.368  25.892 -0.1643 -0.1435 -0.1038
 2419W        W45410  23.360  15.105   7.482 -0.3524  0.1281 -0.1930
 2420W        W45411  22.159  15.324  24.243 -0.0200  0.3754  0.1401
 2421W        W45412  14.761  27.845   8.817 -0.0024 -0.2617 -0.2425
 2422W        W45413  31.502  12.386   6.558 -0.0264 -0.1370 -0.4108
 2423W        W45414  18.341   3.613   3.251  0.1040 -0.0806  0.0631
 2424W        W45415  12.509  25.262   8.724 -0.2449  0.2345  0.0101
 2425W        W45416   7.532  14.868   2.817  0.3862  0.0603 -0.0706
 2426W        W45417  11.903   7.048   8.665  0.1228 -0.2226 -0.1401
 2427W        W45418   6.191  16.258   0.722 -0.0848 -0.1918  0.1881
 2428W        W45419  11.898  13.123   3.346  0.0949  0.0885 -0.1224
 2429W        W45420  10.634  32.230  19.157 -0.2095 -0.2665  0.0170
 2430W        W45421  27.113   3.193   6.453  0.3502 -0.2082  0.1952
 2431W        W45422  15.556  33.990   1.379  0.1143 -0.1461  0.3363
 2432W        W45423   6.231  13.822   9.740  0.1241  0.0982 -0.0780
 2433W        W45424   3.983  24.285   3.416  0.2905 -0.2249 -0.1205
 2434W        W45425  15.493  12.535  10.531 -0.1229  0.0531  0.2772
 2435W        W45426  28.999  25.447   6.228  0.1557  0.0668 -0.3148
 2436W        W45427  16.708   7.022  10.906 -0.2009 -0.0555 -0.3532
 2437W        W45428  15.001  31.738   5.266  0.0837  0.5443 -0.0600
 2438W        W45429   2.454  14.158   6.806  0.0805 -0.1645  0.3567
 2439W        W45430   2.819  10.947   4.972  0.1498  0.0581 -0.2910
 2440W        W45431   6.360  13.538   2.033 -0.0325 -0.2172 -0.0786
 2441W        W45432  20.298  16.969   4.951 -0.2515 -0.1679  0.4626
 2442W        W45433  14.237   9.080   8.292  0.2669  0.0934 -0.1151
 2443W        W45434  27.468   9.725  16.945 -0.1408  0.0385 -0.0402
 2444W        W45435  16.556  14.707   1.846 -0.3731 -0.0279 -0.2100
 2445W        W45436  12.111   1.058   6.463  0.3313  0.1780  0.2517
 2446W        W45437  10.623  19.777   0.303  0.1790 -0.1110  0.0596
 2447W        W45438  30.815  17.365  10.073 -0.0813 -0.1797 -0.1714
 2448W        W45439  11.694  20.835   3.414  0.0322 -0.1416  0.2408
 2449W        W45440   9.664  18.903   9.449 -0.5259  0.0011 -0.0401
 2450W        W45441  27.235   6.212   1.305 -0.2939 -0.1485 -0.0494
 2451W        W45442  28.203   4.233   4.849  0.2063  0.1213 -0.0091
 2452W        W45443  14.022  17.015   9.499  0.0027  0.2133 -0.0999
 2453W        W45444  17.029  16.470   7.797  0.2756 -0.0167 -0.3432
 2454W        W45445  16.023  21.367  27.225 -0.1954 -0.1226  0.1588
 2455W        W45446   2.186  18.976  15.473 -0.2391  0.0768 -0.0023
 2456W        W45447  20.549  23.912   4.397  0.1333  0.0865  0.2852
 2457W        W45448   5.222  28.225  19.230 -0.0620 -0.0149 -0.3894
 2458W        W45449   2.043  17.496  27.539  0.0950  0.1857 -0.0930
 2459W        W45450  30.182  26.248   9.120 -0.2195  0.3873  0.0072
 2460W        W45451  21.492  13.408  12.913  0.2323 -0.0007  0.2390
 2461W        W45452  13.174  20.543  26.617  0.0835  0.0636 -0.1587
 2462W        W45453  18.391  20.270  27.931  0.2037 -0.1097  0.2171
 2463W        W45454  29.858  13.329   6.553  0.0280  0.0534  0.1094
 2464W        W45455  12.013   1.955  17.607 -0.2737 -0.0559  0.3180
 2465W        W45456  27.537  14.092   5.658  0.0848 -0.1355 -0.1566
 2466W        W45457  10.943  18.249  26.758  0.2846 -0.0282  0.0558
 2467W        W45458  22.724   2.484   3.230  0.0713  0.2150  0.4031
 2468W        W45459  22.048   8.676  23.310  0.3382  0.0564  0.0121
 2469W        W45460   0.077  17.079   5.281  0.0655 -0.0641 -0.1237
 2470W        W45461  28.251   5.037   6.569 -0.2939  0.3099  0.2255
 2471W        W45462  19.324  16.701   7.414  0.1464 -0.0348 -0.0692
 2472W        W45463   6.945  22.872   0.461 -0.0307  0.1919 -0.0321
 2473W        W45464  20.283  22.207   8.232  0.0070  0.2608  0.0743
 2474W        W45465  23.457  25.623  20.973  0.0394 -0.4429  0.3514
 2475W        W45466  15.512  18.563   5.893 -0.0382 -0.0469 -0.0499
 2476W        W45467   0.410   8.888   0.326  0.1995  0.1174 -0.0311
 2477W        W45468   2.983  20.367  27.476 -0.1477 -0.2804 -0.2467
 2478W        W45469  13.591  22.617   8.175 -0.1866  0.1895  0.0994
 2479W        W45470  34.064  18.582   8.873 -0.4394  0.3698 -0.2977
 2480W        W45471  27.785  23.264  27.276  0.2256  0.1999 -0.3031
 2481W        W45472  25.969   2.589   7.633 -0.0840 -0.0377 -0.2109
 2482W        W45473   5.678  10.914   0.867  0.0213 -0.1362 -0.0106
 2483W        W45474  11.526  19.345   2.674 -0.2205 -0.0532 -0.1041
 2484W        W45475   1.942  21.480  10.269 -0.1903  0.1186 -0.2944
 2485W        W45476  12.783  25.132   8.267 -0.1413  0.1825  0.0679
 2486W        W45477  33.009  30.981   7.841 -0.0433  0.4648 -0.2340
 2487W        W45478  12.425  15.190   4.091 -0.3556  0.0238  0.0587
 2488W        W45479   9.655  11.539  26.092  0.1660  0.0404  0.1850
 2489W        W45480  32.438  16.636   8.187 -0.2891  0.0338 -0.2901
 2490W        W45481   9.862  23.466   2.460  0.0569 -0.1830 -0.0496
 2491W        W45482  22.724  13.687  17.930 -0.0074  0.0853  0.0569
 2492W        W45483   5.171  16.851  24.760  0.0086 -0.1032  0.1265
 2493W        W45484  26.479  32.427  25.032 -0.0525 -0.1184  0.3021
 2494W        W45485   3.780  13.776   6.140 -0.2897 -0.0250  0.0476
 2495W        W45486  21.335  12.189  27.091  0.0658 -0.2490  0.1255
 2496W        W45487  18.231  18.331   8.417  0.0459 -0.1725  0.0979
 2497W        W45488  17.303   2.181  10.472  0.3779 -0.4355 -0.2390
 2498W        W45489   0.387  16.482   0.169 -0.0323  0.2924  0.0545
 2499W        W45490   8.904  13.593  24.309 -0.1025  0.1728  0.1823
 2500W        W45491  33.359  21.227   8.357 -0.1548 -0.3786  0.2834
 2501W        W45492  17.103   6.993   2.952  0.1063 -0.0629  0.0946
 2502W        W45493  24.854   5.994   7.028  0.1004  0.0616 -0.1187
 2503W        W45494  15.830   4.411   2.602 -0.2021 -0.1356  0.1376
 2504W        W45495  22.624  14.954   5.571 -0.1306  0.1108 -0.2622
 2505W        W45496  21.889  21.544  23.176  0.1445 -0.1757 -0.1687
 2506W        W45497  18.304  12.959   9.134  0.1662 -0.0956  0.1542
 2507W        W45498  16.532   5.202   1.879 -0.3048  0.1574 -0.1907
 2508W        W45499  10.861   8.705  28.879 -0.3641  0.1528 -0.0365
 2509W        W45500  10.698  26.977  20.061  0.1729  0.1956  0.2825
 2510W        W45501   8.068  25.122   4.562  0.0148  0.0580 -0.2682
 2511W        W45502  34.456  31.733   5.901  0.1165 -0.1317  0.2207
 2512W        W45503  27.707   1.389   3.583  0.1306 -0.2337 -0.0250
 2513W        W45504  14.917  16.522   0.924 -0.0988 -0.2068 -0.2114
 2514W        W45505  19.937  21.689   4.571  0.1262 -0.2637  0.0664
 2515W        W45506  15.350   4.488  10.227 -0.0743  0.0945  0.3679
 2516W        W45507  13.413  14.497  24.862 -0.2907 -0.3495  0.0040
 2517W        W45508  15.715  10.188   3.347  0.2340 -0.1957 -0.1291
 2518W        W45509   6.566  23.916   2.430  0.0290  0.0210  0.0695
 2519W        W45510  25.261  10.116   2.835  0.0633 -0.2254  0.0328
 2520W        W45511  15.131  10.252  10.357 -0.0304 -0.1066 -0.0639
 2521W        W45512  18.504  18.058   7.355 -0.1090  0.0178  0.1175
 2522W        W45513  26.424  12.444   0.601 -0.1171 -0.1901 -0.1556
 2523W        W45514   7.257  13.647   8.025 -0.1494 -0.3374  0.2497
 2524W        W45515  27.645  15.833  19.859 -0.0542  0.0421  0.0013
 2525W        W45516  19.086   4.464   7.807 -0.2220  0.0065  0.1550
 2526W        W45517  18.336  24.498  28.720 -0.1950 -0.1089 -0.2278
 2527W        W45518  18.457   9.221  21.124  0.0831 -0.1685 -0.2833
 2528W        W45519  21.657   7.787   7.415  0.2793  0.0445 -0.0675
 2529W        W45520  11.123  26.009   5.817 -0.1175 -0.0357  0.1657
 2530W        W45521  25.301   4.318  18.554  0.0474  0.0479  0.1390
 2531W        W45522  13.153  29.404   3.356 -0.0809  0.0315  0.1517
 2532W        W45523  21.948   5.675   7.817  0.2785  0.1667 -0.1464
 2533W        W45524  29.311   0.023  16.977  0.1131 -0.0796 -0.0212
 2534W        W45525  10.371  16.928  21.393 -0.0117 -0.4211  0.1329
 2535W        W45526  26.125  14.102   8.315 -0.1224  0.2908 -0.0254
 2536W        W45527   7.462   8.336  21.776 -0.0560 -0.0375  0.1822
 2537W        W45528  16.979  17.651  28.437  0.1652 -0.1541 -0.1203
 2538W        W45529   8.929  16.617   4.905  0.1694  0.4569 -0.0341
 2539W        W45530  24.040  13.413  20.958 -0.0472  0.1789 -0.0613
 2540W        W45531  10.735  11.628  27.633 -0.1829  0.3045 -0.1509
 2541W        W45532  14.930  12.219   8.849  0.1890  0.2820  0.1974
 2542W        W45533  11.217  26.949   2.017 -0.0944 -0.0714 -0.0186
 2543W        W45534   2.789   3.460  17.777 -0.1190  0.0851  0.0056
 2544W        W45535   7.249  18.955  24.454 -0.4385 -0.1081  0.0142
 2545W        W45536   8.434  25.452   8.216 -0.1851  0.5418  0.0629
 2546W        W45537  21.950   8.811   5.049  0.0340  0.1532 -0.0094
 2547W        W45538  14.877   9.298  17.905  0.1686 -0.1245 -0.3195
 2548W        W45539   5.026  18.277   2.507 -0.0567 -0.1761 -0.0125
 2549W        W45540  23.635  12.299  22.876  0.1867 -0.0625 -0.2017
 2550W        W45541  18.878  29.204  13.884 -0.3047  0.5422 -0.2236
 2551W        W45542  18.059   9.984   0.335  0.1420  0.1955  0.1227
 2552W        W45543  23.823  20.849   1.973 -0.1049 -0.2006  0.1081
 2553W        W45544  10.767   5.669   8.247 -0.0978 -0.0489 -0.1229
 2554W        W45545  12.211  10.744   7.728  0.0705  0.4984 -0.0509
 2555W        W45546  22.674  10.284  21.799 -0.1018 -0.2072 -0.1254
 2556W        W45547   6.740   4.333   7.930  0.0494  0.1670 -0.1931
 2557W        W45548   0.866  20.790   9.992 -0.1591  0.1717  0.1796
 2558W        W45549  12.540  21.631   3.381  0.0072  0.1243  0.3135
 2559W        W45550  12.033   1.963  26.145 -0.2497  0.0568 -0.1764
 2560W        W45551  25.973  19.747  15.477  0.0037  0.0115 -0.0568
 2561W        W45552  15.715   9.573  26.709  0.2565  0.0914  0.0529
 2562W        W45553  34.559  30.446   1.946  0.0858  0.2145  0.1033
 2563W        W45554  30.184  18.269  28.260 -0.2152 -0.0591  0.1176
 2564W        W45555  17.830  25.916   1.091 -0.0292  0.1506 -0.2261
 2565W        W45556  33.195  22.209  28.582 -0.0401 -0.0145  0.0011
 2566W        W45557  23.867  23.112   3.479 -0.1398  0.1200  0.2631
 2567W        W45558  26.937  12.244   9.477  0.1136  0.3123 -0.0626
 2568W        W45559  23.909  17.742  17.796  0.3508  0.0505 -0.0479
 2569W        W45560  14.793  23.787   4.177  0.5674 -0.0716 -0.0331
 2570W        W45561  13.856  17.962  26.607  0.2725 -0.1141  0.0419
 2571W        W45562  28.037  18.284  19.299 -0.1435  0.1759  0.0790
 2572W        W45563   0.244  17.431   9.843 -0.1734 -0.1017 -0.1598
 2573W        W45564  13.086  24.024  25.870  0.2020 -0.0994  0.1833
 2574W        W45565  15.150  25.031  17.887  0.0166  0.1863  0.0970
 2575W        W45566  31.504   3.616   6.692 -0.0818 -0.1498  0.1873
 2576W        W45567   9.327  16.166   0.529  0.0263 -0.2156  0.1198
 2577W        W45568   4.400  14.075  16.919 -0.1567  0.0861 -0.5469
 2578W        W45569  23.774  19.789   5.938 -0.0970 -0.0256 -0.2664
 2579W        W45570  16.859  23.821   5.837  0.2795  0.0752 -0.1586
 2580W        W45571  16.087  15.669  23.122  0.5308  0.2538  0.2684
 2581W        W45572  16.108  24.153  22.280  0.1913 -0.0773  0.0679
 2582W        W45573  12.173  29.818   2.267 -0.1018 -0.1385 -0.3084
 2583W        W45574   0.968  29.856   8.009 -0.5186 -0.3012 -0.0469
 2584W        W45575   5.794  26.180  23.722 -0.2390 -0.0002  0.1647
 2585W        W45576   5.860  22.466   9.564  0.0241  0.4274  0.0740
 2586W        W45577   0.121  21.690  25.392  0.1353  0.1215 -0.2687
 2587W        W45578   4.603  21.768   1.267 -0.3876 -0.1208 -0.0931
 2588W        W45579  14.716  25.907   0.670  0.3619  0.0530 -0.3402
 2589W        W45580  10.824  14.759   1.007  0.4702 -0.1471  0.1815
 2590W        W45581  18.491   3.858  28.152 -0.2239 -0.1102  0.1494
 2591W        W45582   4.932  19.771   9.852 -0.0051 -0.1358  0.1904
 2592W        W45583   9.806  18.711   5.990 -0.4784  0.3425  0.1227
 2593W        W45584  23.293  25.794   0.668  0.1294 -0.1145 -0.1622
 2594W        W45585   3.859  18.667  10.689  0.3144 -0.0186 -0.0992
 2595W        W45586  28.501  21.260  27.940 -0.1040 -0.1877 -0.2158
 2596W        W45587   6.982  13.675  25.369 -0.0664  0.1060  0.1910
 2597W        W45588  11.915  30.367  25.313 -0.1719  0.0732 -0.2989
 2598W        W45589  10.877  13.689  19.744 -0.0339  0.1157  0.1624
 2599W        W45590  16.961  32.941   0.278 -0.0443 -0.0266 -0.2430
 2600W        W45591  18.520  13.299   3.730 -0.1971 -0.0098 -0.0098
 2601W        W45592   4.233  16.219  10.196  0.1566  0.3175 -0.2036
 2602W        W45593  32.611  18.674   6.520  0.0216  0.2043 -0.3683
 2603W        W45594  28.373  25.193  28.559  0.4584 -0.2329  0.0864
 2604W        W45595  26.272   5.777   6.752  0.2993 -0.3214  0.1305
 2605W        W45596  27.921  21.786   2.419  0.0915 -0.1415 -0.1569
 2606W        W45597  10.578  17.050  27.928  0.0990 -0.1255  0.4385
 2607W        W45598  10.116  27.519   9.669 -0.0806 -0.1009 -0.0162
 2608W        W45599   5.495   9.067   5.236  0.0873 -0.1526 -0.4607
 2609W        W45600  11.391  11.503  23.452 -0.1319  0.2493  0.3038
 2610W        W45601  10.137  14.220  10.206 -0.1188  0.1783  0.4283
 2611W        W45602  14.584  13.541   2.516  0.0237 -0.0616 -0.1023
 2612W        W45603  30.652  28.737  24.053 -0.1155 -0.4375 -0.1625
 2613W        W45604  15.970  23.075  14.583  0.1416  0.2281  0.1831
 2614W        W45605   8.640   6.802   6.799  0.1160  0.3396  0.1865
 2615W        W45606   1.655  26.521  17.297 -0.0433 -0.0853 -0.2358
 2616W        W45607  19.772  21.399   0.368 -0.2878 -0.1851 -0.0785
 2617W        W45608  16.678  28.279   9.002 -0.1555 -0.2717 -0.1867
 2618W        W45609  27.548  30.315   0.562 -0.1794  0.0915 -0.1373
 2619W        W45610  20.020  11.067  19.454  0.1161  0.1142 -0.3628
 2620W        W45611  16.424  11.844  28.679  0.2095  0.0338 -0.2113
 2621W        W45612  10.590  17.521  15.241  0.0321 -0.1484  0.1271
 2622W        W45613  20.954  31.856  25.942  0.3077 -0.0660 -0.0789
 2623W        W45614  16.985  20.374   3.656 -0.1664 -0.0201 -0.1523
 2624W        W45615  26.635  21.992  17.549  0.2393 -0.0801 -0.2262
 2625W        W45616  17.029  12.945  28.063  0.0839  0.3769 -0.3810
 2626W        W45617  16.542  13.944   3.790 -0.3143  0.0075 -0.0024
 2627W        W45618  13.552   3.428  16.550 -0.0736  0.2239  0.2550
 2628W        W45619  31.334  14.245  27.387  0.1072  0.1632 -0.4654
 2629W        W45620  17.824  34.619   5.287  0.1737 -0.0138  0.0877
 2630W        W45621  28.206  13.462   3.639  0.1295 -0.1108 -0.2115
 2631W        W45622  19.563   6.486   9.268 -0.0502 -0.0599  0.2388
 2632W        W45623  15.102  10.283  28.893  0.0803  0.0246  0.2702
 2633W        W45624   6.665  27.799  28.295 -0.2469  0.4529  0.1644
 2634W        W45625   8.488   9.913   8.938 -0.1405  0.0234  0.2155
 2635W        W45626  15.816  15.941   6.613 -0.1440  0.1347  0.2559
 2636W        W45627  27.979  22.057  25.795  0.2506  0.0094  0.1149
 2637W        W45628   4.079   7.796  26.743 -0.2942 -0.1321 -0.3058
 2638W        W45629  16.973   0.044  28.215 -0.0471 -0.0268  0.1009
 2639W        W45630  27.468  15.811   4.015 -0.4052  0.0619 -0.0192
 2640W        W45631  23.763  22.716   4.916 -0.0590 -0.3002  0.4398
 2641W        W45632  18.067  26.537  16.720  0.0967 -0.3226 -0.1008
 2642W        W45633  30.514   5.476   0.284 -0.1456 -0.2329  0.0637
 2643W        W45634   7.887  14.472   9.452  0.0190 -0.3616 -0.4160
 2644W        W45635  13.593  23.583   1.893 -0.3650 -0.0200 -0.3865
 2645W        W45636  20.069  12.379   2.590 -0.1032 -0.1812  0.2326
 2646W        W45637  22.082  14.075   6.640 -0.1688 -0.0133  0.0119
 2647W        W45638  18.362   7.453   0.826 -0.0622 -0.0143 -0.3231
 2648W        W45639  16.471  18.386  25.500 -0.0764 -0.0646  0.1054
 2649W        W45640  33.213  34.483  13.812 -0.4366  0.2530  0.1927
 2650W        W45641   6.337  25.170  14.908 -0.0643 -0.1664  0.0750
 2651W        W45642   8.816  23.170  15.159 -0.1322  0.0869  0.0090
 2652W        W45643  13.775  21.228  24.112  0.0105  0.0506 -0.0989
 2653W        W45644  18.954   6.682   3.325 -0.1127 -0.0747  0.0499
 2654W        W45645  33.586   6.653  28.133 -0.0375 -0.1071 -0.3548
 2655W        W45646  19.109  16.100  26.571  0.3374  0.0073  0.3731
 2656W        W45647  23.176  12.588   5.076 -0.2402  0.4390  0.1963
 2657W        W45648  30.490  18.869   5.382 -0.1585  0.0473 -0.0238
 2658W        W45649   8.263  24.113  21.703  0.0582 -0.1528 -0.1680
 2659W        W45650   5.627  30.267  23.200  0.2580 -0.0859  0.0716
 2660W        W45651  14.450  30.370  26.865 -0.4592 -0.2328 -0.0314
 2661W        W45652   9.430   4.272  28.834  0.1192  0.0503 -0.1738
 2662W        W45653  13.717  14.141  19.904  0.0358  0.3496  0.3399
 2663W        W45654   0.088  14.668   4.999  0.0513 -0.0517  0.0354
 2664W        W45655  28.668  10.509   4.533 -0.0401 -0.0685 -0.2205
 2665W        W45656  16.777   8.481  16.828 -0.1108  0.0433 -0.0871
 2666W        W45657   4.214   0.252   8.237 -0.1700 -0.0257 -0.0840
 2667W        W45658   2.512  17.018   4.797  0.3337  0.0968 -0.3521
 2668W        W45659  11.359   1.128   1.571 -0.3056 -0.1572 -0.0194
 2669W        W45660  19.488   8.856  19.424 -0.0416 -0.1680  0.2692
 2670W        W45661  26.613  25.615  27.335 -0.3286 -0.1392 -0.4525
 2671W        W45662  12.164  10.387  18.557  0.1375 -0.0805 -0.0933
 2672W        W45663   5.837  18.625  21.179  0.0726 -0.1472 -0.2663
 2673W        W45664   1.417  28.811   2.795 -0.0838  0.1586  0.3552
 2674W        W45665   8.139   9.397   2.170  0.1155 -0.1084 -0.1321
 2675W        W45666  13.208  26.817   1.560 -0.3925  0.3584  0.1253
 2676W        W45667  13.857   9.360   0.808  0.2363 -0.1318 -0.0425
 2677W        W45668  21.147  15.439   6.732 -0.0281  0.0331  0.1671
 2678W        W45669   4.534  17.682   4.492  0.1354  0.0953 -0.1539
 2679W        W45670   0.741  16.057   9.404  0.0904 -0.0149 -0.0247
 2680W        W45671  16.672  19.196   4.998  0.1482  0.1287  0.2355
 2681W        W45672  14.963  22.788  20.948  0.0286  0.2344  0.1635
 2682W        W45673   2.930  18.099  25.064 -0.1436  0.1180 -0.1822
 2683W        W45674  14.381   7.376   9.488  0.0831  0.2571  0.0025
 2684W        W45675   9.653  18.243  29.244 -0.0684  0.1115 -0.1774
 2685W        W45676  11.484  18.938   3.048  0.0182  0.0206  0.1244
 2686W        W45677  17.524  10.214  14.958 -0.2140  0.0577  0.0547
 2687W        W45678  28.958  22.862   2.513 -0.0886 -0.3275 -0.1110
 2688W        W45679  12.253   7.652   0.497  0.1897 -0.0493 -0.0223
 2689W        W45680   1.730  17.999   5.381  0.3525 -0.3207  0.1013
 2690W        W45681   0.123  22.557   7.989  0.3237  0.1491 -0.0047
 2691W        W45682  30.277  14.559  15.187  0.2542 -0.1553 -0.0957
 2692W        W45683  10.254   1.218   8.844 -0.1520 -0.4602 -0.4530
 2693W        W45684   9.973  30.486   4.436 -0.1654 -0.0787  0.2317
 2694W        W45685   6.413   4.141   4.905 -0.2914  0.1319  0.0960
 2695W        W45686  12.457  12.562  21.342  0.1600  0.1751  0.1940
 2696W        W45687  13.884   6.682   0.572 -0.1740 -0.2901  0.1250
 2697W        W45688  20.826  15.862  27.055  0.2443  0.2603 -0.0061
 2698W        W45689  28.690   9.992   7.016 -0.3341 -0.0518  0.0687
 2699W        W45690  19.875   0.685  17.122 -0.0793  0.2110  0.0258
 2700W        W45691  15.007  15.680   8.156  0.0251  0.2128 -0.0425
 2701W        W45692   4.331   4.765   0.243 -0.1000 -0.1812 -0.1148
 2702W        W45693  12.629  21.408  27.585 -0.2337 -0.1634  0.0067
 2703W        W45694   9.706  24.948   5.816  0.1991  0.0805 -0.0864
 2704W        W45695  34.470  30.975  10.019  0.3410  0.0888 -0.0405
 2705W        W45696  12.675   2.268  11.218  0.0143 -0.0104  0.2035
 2706W        W45697  12.860   2.404   3.907  0.0335  0.0107  0.3161
 2707W        W45698   3.369  13.330   4.838  0.0321  0.3507  0.0108
 2708W        W45699  12.047  14.493   8.232 -0.2994 -0.0243  0.2057
 2709W        W45700  17.083  15.507  25.269  0.2508 -0.2619  0.0524
 2710W        W45701  11.890  14.958   7.271  0.0742 -0.0792  0.0503
 2711W        W45702   5.262  15.609  23.526 -0.1851 -0.0685 -0.1546
 2712W        W45703   6.525  19.419   9.842  0.4385  0.1477 -0.1662
 2713W        W45704  19.511  13.485  27.457  0.2180 -0.0100 -0.0619
 2714W        W45705  32.301  12.091   8.024 -0.0397  0.2083  0.0109
 2715W        W45706  24.633  34.007  27.692 -0.0860  0.0920 -0.3986
 2716W        W45707  33.475  13.379   2.986  0.2222  0.2644 -0.1302
 2717W        W45708   6.320  22.442   3.639 -0.1409  0.2466  0.0538
 2718W        W45709  11.628  16.811   5.740  0.0005 -0.2750 -0.3139
 2719W        W45710  32.792  25.072   1.268 -0.4074  0.0181  0.1902
 2720W        W45711  17.141   8.563   2.690  0.3079  0.0644 -0.0167
 2721W        W45712  12.558  10.575   1.729  0.4063  0.0598 -0.2906
 2722W        W45713   6.488  21.980  10.893  0.1566 -0.0871  0.0342
 2723W        W45714  22.384  32.791   7.373  0.0435 -0.0652 -0.2565
 2724W        W45715   5.855   2.849   6.841 -0.1884  0.1011 -0.0134
 2725W        W45716  24.618  14.863   9.429 -0.0792 -0.1853 -0.1190
 2726W        W45717  23.152  30.978  18.112 -0.1933 -0.1115  0.2693
 2727W        W45718  12.610  17.059  20.346  0.2250  0.0789  0.0053
 2728W        W45719   6.364  23.568  26.430 -0.0934  0.0540  0.0580
 2729W        W45720  14.076  13.104   7.815  0.1568 -0.2227 -0.0143
 2730W        W45721  14.515  19.579   3.815 -0.0415 -0.4633 -0.2161
 2731W        W45722  21.105   3.332   5.688 -0.0091 -0.3344  0.0658
 2732W        W45723  16.257  19.069   1.915 -0.1935  0.1119 -0.1353
 2733W        W45724   8.369   5.555  28.892 -0.0692  0.1508 -0.4267
 2734W        W45725   3.413  29.476   9.290 -0.0714  0.3322 -0.2175
 2735W        W45726  13.962  16.558   2.039 -0.1839 -0.2900 -0.1601
 2736W        W45727  22.081  30.173  26.492 -0.3245 -0.2924  0.1533
 2737W        W45728   8.417  23.395   1.845  0.0440 -0.3401  0.1123
 2738W        W45729   6.825  10.200   8.334 -0.0625  0.1449  0.0221
 2739W        W45730  28.937   8.772   9.592  0.0104  0.0469  0.1100
 2740W        W45731   0.663  22.603  21.555  0.2718  0.1127 -0.1994
 2741W        W45732  29.376  18.618   7.912  0.4685  0.1506  0.0713
 2742W        W45733   0.799  16.947   8.113 -0.4630 -0.1320 -0.1789
 2743W        W45734  10.437  13.191   9.236 -0.1339 -0.2064  0.2224
 2744W        W45735   1.398   4.194   8.519  0.2638  0.1875  0.3535
 2745W        W45736  22.504  13.735  20.742 -0.1219 -0.1105 -0.1128
 2746W        W45737  14.242  24.524  27.830 -0.0315  0.0809 -0.1893
 2747W        W45738  12.258  21.030  28.125 -0.5382  0.2964  0.1762
 2748W        W45739   7.683   2.679  29.083  0.0242 -0.1162 -0.0043
 2749W        W45740  18.327   7.574   7.522 -0.0163 -0.1197 -0.1119
 2750W        W45741   3.638  20.824   5.260 -0.0048  0.0049 -0.2689
 2751W        W45742  34.497  19.352   4.257  0.1001 -0.1301  0.0191
 2752W        W45743   0.480  20.002  16.887  0.2281 -0.1027 -0.1943
 2753W        W45744  21.976  25.057   2.943  0.1945 -0.0501  0.0498
 2754W        W45745  34.324  15.293   8.936 -0.1211 -0.1846  0.0480
 2755W        W45746  34.779   5.927  27.382  0.2738 -0.3316 -0.1604
 2756W        W45747  12.428  33.816   5.814  0.0283  0.1326 -0.0611
 2757W        W45748  29.631  30.815   1.744 -0.2193  0.2290 -0.1433
 2758W        W45749  19.645   6.336   3.798  0.3413  0.0274 -0.3488
 2759W        W45750  12.479  11.877   1.166  0.1897  0.3073  0.0516
 2760W        W45751  11.601  11.503   1.335 -0.1558 -0.0645 -0.2403
 2761W        W45752  17.134  22.019  27.625  0.0667 -0.1078 -0.1086
 2762W        W45753   9.533  18.397  27.399  0.1248  0.1386 -0.0092
 2763W        W45754  28.805   0.720   8.831 -0.0928  0.0542 -0.0333
 2764W        W45755  29.287  33.653  21.135  0.2545 -0.0541  0.0722
 2765W        W45756   2.514   6.316   2.861 -0.1187 -0.4942  0.1219
 2766W        W45757   0.695  31.946   1.774  0.0308  0.0630 -0.4109
 2767W        W45758   0.584  25.575  19.674 -0.0797 -0.2809 -0.0128
 2768W        W45759  24.553  12.112   3.682  0.4024 -0.1883  0.1018
 2769W        W45760  11.955  18.951   3.573 -0.0862 -0.1119 -0.0656
 2770W        W45761  21.126  34.487  17.831  0.1169 -0.0896  0.0682
 2771W        W45762  30.017  12.849   7.808  0.0718  0.1720  0.3338
 2772W        W45763  16.816  17.732   8.168 -0.0226 -0.1940 -0.0168
 2773W        W45764  10.267  13.726   8.213  0.0279 -0.2874  0.0414
 2774W        W45765  11.644  14.482   8.542 -0.1440  0.0636 -0.0327
 2775W        W45766   1.679  25.387   7.358  0.2925 -0.0709  0.1357
 2776W        W45767   9.840  27.073   9.558 -0.2790  0.1211  0.2853
 2777W        W45768  18.948  10.713  24.839  0.0120 -0.1281 -0.1767
 2778W        W45769  33.553  23.560   6.449 -0.1376 -0.3213 -0.1012
 2779W        W45770  12.111  27.943   3.190  0.0005  0.2063  0.0560
 2780W        W45771  14.792   8.461  21.200 -0.0388  0.1066 -0.0678
 2781W        W45772  12.576  23.169  22.411  0.2331  0.1545  0.0161
 2782W        W45773  22.742  12.412   4.992 -0.0311 -0.0611 -0.0377
 2783W        W45774  16.075  19.315   0.396 -0.0343  0.3428  0.2242
 2784W        W45775  33.281  18.439   9.608 -0.2965 -0.1575  0.0802
 2785W        W45776  19.952  14.750  22.389 -0.0985  0.0267 -0.0876
 2786W        W45777  12.027  10.275   0.608  0.0062  0.0159  0.1883
 2787W        W45778  16.733  23.393   4.813  0.0146 -0.0390  0.1954
 2788W        W45779  32.863  32.459   6.532  0.0607 -0.2038 -0.0915
 2789W        W45780  12.463  23.388   2.767 -0.0317 -0.2283 -0.0996
 2790W        W45781  18.904  24.552   6.902 -0.1725  0.1698 -0.0127
 2791W        W45782  14.458   8.375   1.459 -0.1470 -0.0169  0.0159
 2792W        W45783  16.464  16.449   6.465  0.2360  0.0302  0.0789
 2793W        W45784  10.097   8.240  19.158  0.1085 -0.3220 -0.0106
 2794W        W45785  13.390  16.859   4.978  0.0622 -0.0972  0.2502
 2795W        W45786  13.172  26.238   9.304 -0.0918 -0.1472  0.2476
 2796W        W45787  17.278  14.508   1.246  0.2809 -0.0632  0.1228
 2797W        W45788   7.114  34.374   1.841 -0.0888  0.0599  0.0864
 2798W        W45789  24.274   6.487  25.225  0.3016  0.0181  0.1035
 2799W        W45790  17.258  29.826   7.557  0.2936  0.2756 -0.2094
 2800W        W45791  19.090  18.386   6.798 -0.0143 -0.1968 -0.0620
 2801W        W45792   0.655  14.894   6.722  0.0327 -0.2306 -0.1030
 2802W        W45793  11.323   8.890  22.217 -0.0029  0.0436 -0.1124
 2803W        W45794  15.887  18.638  23.293  0.0519  0.0096 -0.1660
 2804W        W45795  29.710  11.469  28.981  0.0482 -0.0586 -0.1621
 2805W        W45796  11.764   2.019   3.175 -0.1019  0.2599 -0.4375
 2806W        W45797  17.671   2.449   5.053  0.2605 -0.1049 -0.1643
 2807W        W45798  11.301  15.334  18.900 -0.0833 -0.1846  0.1571
 2808W        W45799  25.636  33.870   5.655  0.0675  0.2159  0.2123
 2809W        W45800  31.697  32.128   0.698  0.0900  0.0074 -0.1802
 2810W        W45801  25.971   4.454   2.814 -0.0652 -0.0078 -0.1071
 2811W        W45802  34.069   5.749  20.216 -0.1232 -0.1919  0.2274
 2812W        W45803   7.176  24.177  24.195  0.0347  0.0475  0.1855
 2813W        W45804  16.488  19.226   2.730  0.1613 -0.2062  0.0318
 2814W        W45805   1.571  34.013  18.015 -0.0394 -0.1435 -0.0829
 2815W        W45806   9.707  22.383   4.637 -0.1853  0.5233 -0.0188
 2816W        W45807  31.080  21.561   2.377 -0.2326  0.2905 -0.0312
 2817W        W45808   8.871   2.444  20.332 -0.3270 -0.0459  0.0183
 2818W        W45809  17.640  10.444   1.108 -0.2322  0.2481  0.1992
 2819W        W45810  16.614   1.941   7.072  0.0460 -0.0613  0.0320
 2820W        W45811  27.995  13.117   9.091  0.3138 -0.1126 -0.1135
 2821W        W45812  26.893  17.122   9.271 -0.0395  0.2206  0.0393
 2822W        W45813   2.243  23.022  28.511 -0.2913  0.0881 -0.1138
 2823W        W45814  13.357   1.629   8.359 -0.0403 -0.1917  0.0833
 2824W        W45815   7.026  18.894   8.417  0.1133 -0.0949 -0.1748
 2825W        W45816  15.837  28.506  16.528 -0.2512  0.2110 -0.2912
 2826W        W45817  12.512  31.618  17.769  0.1021  0.3819 -0.2980
 2827W        W45818   5.819  23.503   7.983 -0.1040  0.1243  0.0344
 2828W        W45819  14.005   5.929  15.600 -0.0656  0.2847  0.0217
 2829W        W45820   3.080  17.980   7.772 -0.1167 -0.1358  0.0275
 2830W        W45821  18.721   7.709   7.323 -0.2877  0.2741  0.3047
 2831W        W45822  13.981  25.073   8.884 -0.1086 -0.0447 -0.0857
 2832W        W45823  15.658   5.918  27.678 -0.1862 -0.1755  0.0834
 2833W        W45824  25.004  26.536  24.792 -0.0139 -0.1411 -0.1660
 2834W        W45825  18.515   9.088   6.413  0.2086 -0.0106  0.1354
 2835W        W45826  17.093  18.862   4.897  0.1131 -0.0142 -0.2020
 2836W        W45827  22.495  15.232   6.144 -0.2937 -0.0925 -0.1426
 2837W        W45828  11.331  22.322   2.850 -0.0445 -0.2927  0.2534
 2838W        W45829  23.968  24.517   1.159  0.2386 -0.0916  0.1718
 2839W        W45830   4.670  10.485   1.263 -0.2332 -0.1410  0.0169
 2840W        W45831  18.154  17.169   9.007 -0.0758 -0.0060  0.0884
 2841W        W45832  14.771  13.181   8.710  0.1013  0.1179 -0.2514
 2842W        W45833  27.210  16.915   8.026 -0.2541  0.5098  0.0888
 2843W        W45834  11.310  11.752  24.226  0.0896  0.4289 -0.2044
 2844W        W45835  26.222  23.479   5.415  0.3113 -0.1495  0.1587
 2845W        W45836  20.960   4.711  28.437  0.2701  0.0853  0.1907
 2846W        W45837   0.493  12.753  25.545  0.4082 -0.1155 -0.1669
 2847W        W45838  32.758  32.910   8.496 -0.0233 -0.1546  0.0600
 2848W        W45839  31.879  11.760   0.209 -0.2344 -0.0724  0.0960
 2849W        W45840  11.141  19.286  26.642 -0.1942 -0.2381  0.2785
 2850W        W45841  17.034  17.595   9.449  0.1466 -0.0368  0.2477
 2851W        W45842  32.191  33.665   1.741 -0.1446  0.4563  0.0021
 2852W        W45843  11.084  17.947  19.015  0.0946  0.0676 -0.0713
 2853W        W45844  18.382  12.570  13.700 -0.1893  0.0466 -0.2001
 2854W        W45845  12.071   7.225  24.581  0.2515 -0.0151 -0.1236
 2855W        W45846  20.851  13.974   0.570  0.2183  0.2810  0.0883
 2856W        W45847  26.857  21.579   6.501  0.1231  0.0235  0.0306
 2857W        W45848   6.584  15.213   6.543 -0.0126  0.0302 -0.1577
 2858W        W45849   3.561  20.155  17.499  0.1208 -0.0559  0.1097
 2859W        W45850  20.519  24.830   7.075 -0.0083 -0.1173 -0.1764
 2860W        W45851  11.848  16.170   6.494  0.0580  0.0902 -0.0563
 2861W        W45852  23.798   7.874   7.693  0.0357  0.1339  0.2777
 2862W        W45853  34.075  15.596  27.640 -0.1315  0.0511 -0.0022
 2863W        W45854  12.287  21.383   4.630  0.0928  0.0738 -0.2014
 2864W        W45855   7.064  23.840   4.104 -0.0638  0.0018  0.2213
 2865W        W45856   8.361  20.913  17.597  0.0134  0.0383  0.0038
 2866W        W45857  21.720   0.343  25.375  0.1514 -0.0176  0.2471
 2867W        W45858  17.455  12.930  23.182  0.0833  0.0786  0.1533
 2868W        W45859  13.311  22.536   7.269 -0.0174  0.1248  0.0012
 2869W        W45860  32.046  16.784  23.392 -0.0416  0.1533 -0.1934
 2870W        W45861  26.736  24.082   4.453  0.0693 -0.0710  0.2755
 2871W        W45862   5.188  19.201   8.214  0.0261 -0.0875 -0.1188
 2872W        W45863  13.062   4.869  19.479  0.0569 -0.0810  0.0252
 2873W        W45864  27.322  18.858   5.879 -0.1585 -0.1398 -0.0012
 2874W        W45865  17.445  16.114   6.655  0.2235  0.0704 -0.1245
 2875W        W45866  28.377  10.517  19.134 -0.2407 -0.1481 -0.0335
 2876W        W45867  31.053  29.849   5.808 -0.0286  0.1265  0.1101
 2877W        W45868   4.023   3.227   4.206  0.1338 -0.0533  0.1894
 2878W        W45869   5.204  24.383  23.462  0.3671 -0.1986 -0.1998
 2879W        W45870  17.589  17.368   0.687 -0.0686  0.1392 -0.1687
 2880W        W45871  33.038  28.498   7.099  0.0961 -0.2168  0.0277
 2881W        W45872  15.224   1.754  26.174  0.1442 -0.0360  0.0005
 2882W        W45873   8.669  17.227   3.592 -0.1786  0.1368  0.2030
 2883W        W45874  10.039   0.742   4.710  0.2735 -0.1164 -0.1755
 2884W        W45875  13.202   5.916   6.667  0.0215  0.0162 -0.0186
 2885W        W45876   2.584  20.595   3.767  0.0422  0.1529 -0.1326
 2886W        W45877   5.589  22.117  22.967 -0.0231 -0.1340  0.0274
 2887W        W45878  28.268  12.189  15.196  0.0591  0.1718 -0.1477
 2888W        W45879   2.422  13.719  18.707  0.0442 -0.3733 -0.1243
 2889W        W45880  24.459  21.031   6.801  0.0566 -0.0584 -0.1102
 2890W        W45881   4.893   5.786   7.035  0.1797 -0.2671  0.0180
 2891W        W45882  34.333  11.445   3.284  0.1601 -0.4037  0.0332
 2892W        W45883  13.731   3.832   8.155  0.0332  0.0423  0.0701
 2893W        W45884   9.565  11.850   1.910 -0.0282 -0.3354 -0.0200
 2894W        W45885  19.930  16.538  13.749 -0.1797  0.3346 -0.3379
 2895W        W45886  12.064  12.479   8.016 -0.0072 -0.0754  0.0581
 2896W        W45887  32.854  24.596   6.601 -0.1582  0.0844 -0.0941
 2897W        W45888   2.815  22.546  17.942  0.0514 -0.2628  0.0805
 2898W        W45889   5.211  20.644   9.993  0.0049  0.0694 -0.1692
 2899W        W45890  31.338  20.284   6.731  0.1529  0.2760 -0.0630
 2900W        W45891  34.565  17.542   1.257 -0.0193  0.1180  0.0430
 2901W        W45892  19.154  22.694   0.101 -0.2999 -0.2124  0.0293
 2902W        W45893  18.266  14.122   3.465  0.1107 -0.2590  0.0387
 2903W        W45894  18.853  15.568  24.722 -0.1481 -0.1400  0.2220
 2904W        W45895  10.146  17.725   9.628  0.0489  0.2605  0.1181
 2905W        W45896  19.138  12.625  25.280 -0.1192 -0.1396  0.0498
 2906W        W45897  23.559  22.992   5.277  0.1576 -0.0783 -0.1654
 2907W        W45898   2.949  18.937   8.763  0.2490 -0.0629 -0.0135
 2908W        W45899  32.137  18.137   4.597 -0.3054  0.3356  0.0879
 2909W        W45900  21.699   3.596   6.402  0.0376 -0.0169  0.1075
 2910W        W45901   7.738  17.697   8.164 -0.0244  0.0998  0.1844
 2911W        W45902  31.721  19.897  28.019 -0.3768  0.1042  0.0977
 2912W        W45903  16.374  18.063  23.312  0.2313 -0.4126  0.0100
 2913W        W45904  27.887  25.149   5.113  0.1604  0.2635  0.0300
 2914W        W45905   4.907  10.270   5.583 -0.2067  0.2212  0.0259
 2915W        W45906  13.875   4.354  25.680 -0.2173 -0.0851 -0.1347
 2916W        W45907  21.981  23.200   3.817 -0.1729 -0.2137 -0.0186
 2917W        W45908  19.519  18.350   2.164  0.2041  0.0146 -0.2561
 2918W        W45909  27.535   2.878   3.500 -0.3582  0.3495 -0.0389
 2919W        W45910  19.052  23.039  15.560 -0.0569  0.2011 -0.3107
 2920W        W45911  16.083  25.196  25.919 -0.0891 -0.2802  0.0637
 2921W        W45912  14.080  34.645   7.570  0.1147  0.0329  0.0599
 2922W        W45913  22.511  27.488  17.306  0.1378  0.2305  0.0608
 2923W        W45914   1.583  17.248   6.071  0.1693 -0.1512  0.2260
 2924W        W45915  22.442  17.841  21.166  0.1469  0.3949  0.1466
 2925W        W45916  16.775  29.677   8.362 -0.0972  0.0794 -0.1075
 2926W        W45917  18.318  10.763   7.738 -0.1161 -0.1343  0.1947
 2927W        W45918   0.587  32.476   8.415  0.2885 -0.1757  0.2425
 2928W        W45919   9.894   9.803   4.354 -0.0969  0.2938  0.0823
 2929W        W45920  16.405   8.216  25.345 -0.0563 -0.0278 -0.2818
 2930W        W45921  10.506  20.262   3.864  0.3008 -0.0839  0.0914
 2931W        W45922  21.980   8.102   9.894 -0.1836 -0.0314  0.1164
 2932W        W45923  13.472   9.615   7.471  0.1866 -0.0521  0.0857
 2933W        W45924   6.283  22.508  26.214  0.1093 -0.0503  0.1842
 2934W        W45925  20.064  16.405   6.082  0.3353  0.0253  0.2406
 2935W        W45926  18.758  19.043  26.179  0.1363 -0.0948 -0.0388
 2936W        W45927   4.247   2.717  10.591  0.0429 -0.0608 -0.3277
 2937W        W45928  26.746  19.467   4.045  0.3794 -0.0858 -0.0086
 2938W        W45929  16.006  10.953  20.714 -0.3014 -0.0156  0.0334
 2939W        W45930  24.590   5.363   8.273  0.0612  0.1509  0.0630
 2940W        W45931   8.900  14.708   3.342 -0.0023  0.2296 -0.0326
 2941W        W45932   2.225  24.949  21.265  0.2242  0.0556 -0.0547
 2942W        W45933   3.431  22.933   9.207 -0.1727  0.1318 -0.0820
 2943W        W45934  23.549  31.519   6.972  0.1543 -0.0812  0.3343
 2944W        W45935   7.956  12.365   2.656  0.0917  0.0276 -0.2089
 2945W        W45936   8.811  12.192   9.913 -0.2171  0.2079  0.1199
 2946W        W45937  18.297   8.773   3.155 -0.0087 -0.2595  0.1998
 2947W        W45938  19.860   5.427   6.523  0.1222  0.1667 -0.1699
 2948W        W45939   9.985  18.275   5.762 -0.1035 -0.0621  0.0304
 2949W        W45940   4.520   9.666   2.147 -0.1201 -0.3002 -0.1336
 2950W        W45941  10.499  10.782   9.396  0.0466  0.0593  0.1551
 2951W        W45942  27.307  32.465   5.499 -0.0661 -0.1874  0.0983
 2952W        W45943  11.866  24.751   7.138  0.0915  0.0735  0.0907
 2953W        W45944   4.512  16.725  26.565  0.0588  0.1972 -0.1778
 2954W        W45945  14.320  24.493   2.083 -0.1493  0.0689  0.1846
 2955W        W45946  15.756  11.252   5.255 -0.1390 -0.1703  0.0329
 2956W        W45947   6.037  30.384  23.480 -0.0756  0.2307  0.0517
 2957W        W45948  15.448  28.444   4.979  0.1223  0.1325 -0.0820
 2958W        W45949  14.323  28.410  27.442 -0.3295 -0.1028 -0.0771
 2959W        W45950  15.921  21.563  18.876  0.1690 -0.2025 -0.0441
 2960W        W45951  25.347   7.327   7.654  0.1150  0.0027  0.1268
 2961W        W45952  12.578  21.309  28.955 -0.1913 -0.0332  0.1584
 2962W        W45953   8.752  24.481   9.599 -0.1632  0.0706  0.0401
 2963W        W45954   8.243  23.636   1.334 -0.0878 -0.3628  0.0215
 2964W        W45955  21.786   5.495  23.805 -0.1708  0.2074  0.2124
 2965W        W45956  19.168   3.822   1.049  0.0143  0.0924 -0.0329
 2966W        W45957  14.679   2.304  10.092 -0.0710 -0.0007 -0.1846
 2967W        W45958  25.512  23.474  26.579 -0.0392  0.1911 -0.1350
 2968W        W45959  23.681  24.029   0.466  0.3013  0.0870 -0.1172
 2969W        W45960  10.639  14.797   6.775 -0.0720  0.1159 -0.0689
 2970W        W45961  29.584  10.250   9.247 -0.0175 -0.1485  0.1329
 2971W        W45962  14.917  13.359   6.089  0.1651 -0.0496 -0.0497
 2972W        W45963   8.136   2.877   0.815 -0.0530 -0.1257  0.0723
 2973W        W45964   6.838  29.323  29.241  0.1156  0.1865 -0.0275
 2974W        W45965  23.479  16.087  26.565 -0.1226 -0.1348  0.2121
 2975W        W45966  14.311   8.586   8.251  0.2345  0.0276 -0.0017
 2976W        W45967  28.580  15.834   6.194  0.0194  0.0221 -0.1803
 2977W        W45968   5.849   7.959  25.554  0.2762  0.4201 -0.0989
 2978W        W45969  23.602  12.068  22.454  0.3405 -0.1441  0.1500
 2979W        W45970  16.846  22.020   1.652 -0.0712  0.1374 -0.0385
 2980W        W45971  19.561  13.924   7.940  0.0361 -0.1813 -0.0981
 2981W        W45972  22.295  22.023   6.306  0.2624  0.3709 -0.2057
 2982W        W45973  13.499  11.523   7.359 -0.0994  0.1825 -0.3136
 2983W        W45974  21.365   9.488  29.241 -0.5348 -0.0691 -0.2375
 2984W        W45975   8.902  19.928   2.854 -0.0015 -0.5062  0.0782
 2985W        W45976  24.019  20.760  21.595 -0.0315 -0.0694  0.1278
 2986W        W45977  15.755  25.705  10.156  0.2578  0.1226 -0.0819
 2987W        W45978  20.075  25.483   5.668  0.2850 -0.1641  0.3059
 2988W        W45979  23.511  16.888  25.031  0.1352  0.2017 -0.4473
 2989W        W45980  27.557  21.074   5.401  0.0086 -0.1280  0.3081
 2990W        W45981  13.560  14.987   8.307  0.1860 -0.0122  0.0309
 2991W        W45982   9.567   6.819   1.862  0.3498 -0.3898  0.0117
 2992W        W45983  33.812  14.521  29.079  0.0210 -0.3484 -0.1861
 2993W        W45984  31.695  10.831  27.221 -0.0662  0.1148  0.1199
 2994W        W45985  14.940  24.757   8.934  0.0556  0.2006 -0.3059
 2995W        W45986  12.863  16.038   1.687 -0.1038  0.1120  0.1040
 2996W        W45987  25.671   8.812   7.863  0.0440 -0.2437 -0.1761
 2997W        W45988  13.135  11.533  19.694  0.0757  0.3139  0.2067
 2998W        W45989  20.118  23.151   4.315  0.0075 -0.0840  0.1481
 2999W        W45990  10.289   8.595   4.113 -0.2003  0.0081 -0.2769
 3000W        W45991   9.821  11.772  21.865  0.1098  0.3437  0.1398
 3001W        W45992  32.069   0.599   5.973 -0.4929  0.0604  0.4187
 3002W        W45993   9.594  15.443   5.184 -0.3802 -0.0848  0.1267
 3003W        W45994  20.601  12.055   4.969  0.0682 -0.1789 -0.0766
 3004W        W45995  17.473  20.257  23.089 -0.0501  0.4117  0.2774
 3005W        W45996   1.280  10.378   0.157 -0.0455 -0.3603  0.1918
 3006W        W45997   8.041  18.330   2.435 -0.1540  0.0803 -0.0374
 3007W        W45998  24.281  15.103   0.753 -0.0781  0.1498 -0.2100
 3008W        W45999  10.104   6.741   5.567 -0.1452 -0.2499  0.0264
 3009W        W46000  15.045  13.573   2.876  0.0520  0.1235 -0.2269
 3010W        W46001   9.479  11.079  26.103  0.0195 -0.1448 -0.2986
 3011W        W46002   1.276   7.316  25.243  0.0112 -0.2110 -0.0764
 3012W        W46003  20.456  21.589   6.602  0.1684  0.2314  0.0554
 3013W        W46004  11.946  18.669  29.047 -0.0811 -0.1450 -0.1257
 3014W        W46005  12.213  13.853   5.588  0.1728  0.0653  0.0020
 3015W        W46006  19.825   3.862  25.797  0.2895 -0.0746  0.0891
 3016W        W46007   3.716  22.597   2.938  0.1217 -0.0813 -0.0961
 3017W        W46008  16.970   7.113   9.921 -0.0409  0.3380  0.3748
 3018W        W46009  26.819   5.276  21.713 -0.0169 -0.1708 -0.2000
 3019W        W46010  13.551  29.915   0.565  0.0227 -0.0140 -0.3018
 3020W        W46011  12.251   7.026  26.826 -0.0150 -0.3458 -0.2742
 3021W        W46012  28.190  21.303   7.103  0.0701  0.2998  0.0085
 3022W        W46013  23.864  12.833  22.791  0.1349 -0.3306  0.0229
 3023W        W46014   7.788  32.227  28.692 -0.0230 -0.0800 -0.4784
 3024W        W46015   9.043  25.460   5.932  0.0327 -0.2121  0.0421
 3025W        W46016  20.108  17.030   2.936 -0.4088  0.1598  0.1935
 3026W        W46017   4.976  11.547   9.479  0.0556  0.0283 -0.1082
 3027W        W46018  14.025  22.211  16.554  0.1261 -0.0569 -0.0261
 3028W        W46019  14.109  15.264   9.401  0.0498  0.0041  0.1429
 3029W        W46020  11.947   7.701  26.529  0.2839 -0.0309  0.0723
 3030W        W46021   9.103  17.449   6.421  0.1790 -0.2109  0.0594
 3031W        W46022  13.754  25.536   1.648 -0.0850  0.0680 -0.0030
 3032W        W46023  22.320  13.459  28.097  0.0400 -0.0189  0.2356
 3033W        W46024   9.363  13.848  24.959 -0.0246 -0.3547  0.0753
 3034W        W46025  11.494  29.435   6.112  0.0427  0.0042 -0.0579
 3035W        W46026   2.315  20.727  27.983 -0.1957  0.3317  0.3792
 3036W        W46027  24.307  28.593  14.751  0.0862 -0.2233 -0.0244
 3037W        W46028  24.074  14.207   1.180 -0.1169  0.0687 -0.0929
 3038W        W46029  32.204   3.321  21.888  0.0394 -0.5258 -0.0752
 3039W        W46030  26.617  16.373  26.460 -0.1479  0.1661  0.0345
 3040W        W46031  11.701  21.937   3.970  0.2050  0.0583 -0.0008
 3041W        W46032   2.140  15.176  10.994  0.0382 -0.0987  0.1533
 3042W        W46033  12.054  19.454   0.962 -0.0143 -0.1524 -0.0316
 3043W        W46034  11.672  12.170   0.720  0.1814  0.1961  0.1062
 3044W        W46035  10.007  23.668  25.801  0.0773 -0.0213  0.3145
 3045W        W46036   6.129  28.695   0.095  0.1282 -0.2830 -0.1748
 3046W        W46037  12.085  21.095   6.398  0.1185 -0.1023  0.1179
 3047W        W46038   3.782   8.035   2.338 -0.1054 -0.4111  0.3944
 3048W        W46039  10.346   7.122  26.764  0.2109  0.0256 -0.1859
 3049W        W46040  18.844   9.882   6.377  0.2117 -0.2501  0.0292
 3050W        W46041  12.216  18.968   6.657 -0.0213 -0.1275 -0.3715
 3051W        W46042  17.732  23.611   0.483  0.0694 -0.0316 -0.2309
 3052W        W46043  17.345   0.038   3.281 -0.1137 -0.0421  0.0528
 3053W        W46044  10.035  23.835   7.702 -0.1815  0.1490 -0.1653
 3054W        W46045   6.809  29.933  10.131  0.0834 -0.1502 -0.1592
 3055W        W46046  20.182  33.751  10.042 -0.3562 -0.1328  0.1128
 3056W        W46047   8.191  25.867   4.558 -0.1408  0.3062 -0.3058
 3057W        W46048  19.016  31.567   4.244  0.0131 -0.0891 -0.1518
 3058W        W46049  13.453  29.602   8.251 -0.0826 -0.0235  0.0366
 3059W        W46050  13.885   5.324  25.222 -0.1132  0.2055 -0.0037
 3060W        W46051  11.308  31.253   8.633  0.0861 -0.0856 -0.0207
 3061W        W46052  26.974  19.969   0.638 -0.0782  0.0860  0.4301
 3062W        W46053  20.847   9.662  14.361 -0.3257 -0.3855 -0.1264
 3063W        W46054  29.825  21.775   6.809 -0.1429 -0.0506 -0.0265
 3064W        W46055  15.776  12.134  26.498 -0.1214 -0.0605  0.1614
 3065W        W46056  28.261  21.205  22.930 -0.1453  0.3556  0.2615
 3066W        W46057  27.565   6.263   0.515 -0.0815  0.0160 -0.0656
 3067W        W46058  12.984  23.955   7.218 -0.1849 -0.1467 -0.0811
 3068W        W46059  33.971  22.095  10.435  0.0816 -0.0318 -0.0099
 3069W        W46060  19.728   5.739   2.509  0.0696  0.0599  0.2921
 3070W        W46061   1.508  22.278   8.751 -0.3196  0.1736 -0.0349
 3071W        W46062   4.613   9.648   7.104  0.1383 -0.1158  0.1066
 3072W        W46063   7.641  12.671   9.362 -0.1162 -0.0618  0.0424
 3073W        W46064   7.346  30.743  23.148  0.0460 -0.0985  0.5342
 3074W        W46065  18.972  26.012   8.784 -0.5779 -0.0707 -0.1233
 3075W        W46066  14.746  15.336  23.953 -0.2020  0.0208  0.2290
 3076W        W46067   4.342  11.798   5.990 -0.0345 -0.2512  0.2236
 3077W        W46068   1.670  15.614   2.366  0.0212 -0.2299  0.0031
 3078W        W46069  17.793   6.865   7.767 -0.3513  0.0024  0.2275
 3079W        W46070  22.818  16.050   4.519  0.1805 -0.2082 -0.1715
 3080W        W46071   5.492  30.392   1.963  0.0002 -0.0940  0.0435
 3081W        W46072  16.389  12.576   0.049 -0.1425 -0.1881 -0.0561
 3082W        W46073  34.216   2.838   6.933 -0.0741  0.0435 -0.3241
 3083W        W46074  15.889  26.724   7.598  0.0393 -0.0922  0.2037
 3084W        W46075  30.075  26.702   6.038 -0.1171  0.3274 -0.1943
 3085W        W46076   4.670   5.904   5.885  0.2577 -0.2667  0.1031
 3086W        W46077   5.795  23.263  25.801 -0.2015 -0.2559  0.0054
 3087W        W46078  10.571  32.810   8.658  0.0325 -0.5636 -0.1099
 3088W        W46079   0.767  18.688  28.077  0.0157  0.0530  0.1597
 3089W        W46080  16.816  12.103  27.483 -0.3766  0.0224 -0.1990
 3090W        W46081  19.406  28.128   7.173 -0.2403 -0.1809  0.1079
 3091W        W46082  10.197   6.767   8.127 -0.1275 -0.1224  0.0804
 3092W        W46083   9.629  26.106   2.845  0.1721 -0.0966  0.4251
 3093W        W46084  16.489  12.562   4.185  0.1543 -0.1893  0.1190
 3094W        W46085   9.296  22.541   6.664  0.1679  0.1767 -0.1836
 3095W        W46086   9.129  23.839   7.393  0.5573 -0.0583 -0.2082
 3096W        W46087  24.796  18.902   8.126  0.1932 -0.1054  0.0474
 3097W        W46088  18.212  26.848   6.410 -0.2473  0.2210  0.1808
 3098W        W46089   1.309  10.432  10.350 -0.0306  0.0621 -0.1494
 3099W        W46090   9.981  19.914   5.880 -0.3017 -0.0590 -0.0549
 3100W        W46091   4.221   7.603  27.819  0.2502  0.0165  0.2956
 3101W        W46092  11.972  22.889  15.966 -0.2054  0.1408 -0.1073
 3102W        W46093  25.991  21.573   7.891 -0.0341  0.3411  0.0998
 3103W        W46094  32.744   5.276   4.369 -0.0424 -0.0021  0.2652
 3104W        W46095  19.479  17.811   7.382 -0.0400 -0.0646 -0.0635
 3105W        W46096  16.607  19.013  26.268 -0.0661  0.0135  0.1027
 3106W        W46097  15.235  20.548   6.690  0.2083 -0.3112  0.0692
 3107W        W46098   7.702  13.250   1.884  0.0209  0.1459 -0.4397
 3108W        W46099  28.024  32.865  20.777 -0.1757  0.3879  0.0548
 3109W        W46100  32.505   3.308   9.493 -0.1885 -0.0869 -0.2157
 3110W        W46101   1.160   6.532   5.608 -0.0786  0.2003  0.3081
 3111W        W46102   3.233  25.728  27.225  0.2226  0.1609  0.1971
 3112W        W46103   7.456  15.608  28.542  0.0736  0.1415 -0.0408
 3113W        W46104  14.366  27.228   9.322  0.2322  0.1746  0.1132
 3114W        W46105  15.364  10.058   6.641 -0.2957 -0.2841  0.3338
 3115W        W46106  18.044   5.382   9.864  0.1003  0.3673  0.0888
 3116W        W46107   9.451  26.824  23.186  0.3462  0.2330  0.2492
 3117W        W46108  17.981  20.652  25.625 -0.2960 -0.0450 -0.4020
 3118W        W46109  13.000  12.569  24.318  0.0827  0.0235  0.0131
 3119W        W46110  12.588  26.163  23.728  0.1670  0.2784  0.1174
 3120W        W46111  17.567  15.301  25.415  0.1776  0.0104  0.2153
 3121W        W46112  15.134  13.758   1.262 -0.1534 -0.1156  0.1281
 3122W        W46113  10.663  27.304   8.750  0.0307 -0.1067 -0.1337
 3123W        W46114  19.706  18.381   8.183 -0.0982  0.2016  0.2593
 3124W        W46115  25.111   6.964   9.729  0.1236  0.1820  0.1742
 3125W        W46116  31.649  25.375   7.471  0.1370 -0.0937 -0.1054
 3126W        W46117  28.490  33.276  23.052  0.2953 -0.0494  0.0099
 3127W        W46118  10.247  29.994   2.769  0.2838  0.0258  0.1505
 3128W        W46119  32.470  12.739   2.097 -0.0706 -0.2083  0.5155
 3129W        W46120   8.832  12.231   1.741  0.2116  0.1282 -0.2959
 3130W        W46121   0.254  24.090   7.997 -0.0066  0.0908  0.0118
 3131W        W46122  24.151  30.533   2.766  0.0683  0.0519  0.0886
 3132W        W46123  16.440   2.735  28.895  0.3389  0.0433  0.2277
 3133W        W46124  16.663  32.064   0.914 -0.1631  0.1027  0.1861
 3134W        W46125  30.155  20.931   3.137 -0.1659 -0.0203 -0.1539
 3135W        W46126  20.762  26.539  23.991  0.1385 -0.0751  0.0364
 3136W        W46127  15.177   3.444   6.590 -0.1369  0.1818  0.0415
 3137W        W46128  30.105  23.215   4.252 -0.1058 -0.2449 -0.0503
 3138W        W46129   6.760   9.357   6.410  0.1231 -0.0727  0.2647
 3139W        W46130   9.534  19.801   8.038 -0.0088 -0.0885  0.1700
 3140W        W46131  20.601   9.283   9.236 -0.1693  0.0116 -0.1351
 3141W        W46132  15.382  17.736  26.659 -0.1187 -0.1448 -0.2201
 3142W        W46133  19.651   8.185   8.036 -0.3684 -0.0137  0.2510
 3143W        W46134   8.801  18.087   8.148  0.0638  0.1143 -0.1010
 3144W        W46135  10.464  26.335   5.365 -0.2265 -0.1001  0.2780
 3145W        W46136   1.846   9.181   9.275  0.2399  0.3533  0.0795
 3146W        W46137  17.325  20.753   3.194  0.1971 -0.1611  0.0690
 3147W        W46138  16.244  21.039   5.301  0.1310 -0.0906  0.2052
 3148W        W46139  28.750   5.844   1.471 -0.0397 -0.2450 -0.0134
 3149W        W46140   8.164  22.183   8.342  0.1152  0.1972  0.2785
 3150W        W46141  26.340  12.725  26.043 -0.3117 -0.1619 -0.1327
 3151W        W46142  20.748  20.134   8.147 -0.0806 -0.0503  0.0550
 3152W        W46143  26.550  14.288   0.675  0.3423 -0.0539  0.0969
 3153W        W46144   9.022  17.068   2.631 -0.1484  0.0199  0.1452
 3154W        W46145  29.718  16.862   4.158  0.0257  0.0534  0.0359
 3155W        W46146  17.140  21.023   4.055  0.1529 -0.0425 -0.0944
 3156W        W46147   8.999  30.090  27.233 -0.2481  0.0755 -0.3659
 3157W        W46148   7.259  21.598   5.136  0.0780  0.1899  0.5114
 3158W        W46149  11.039  34.393   2.552 -0.2886  0.0369 -0.0389
 3159W        W46150  15.461  13.952  23.087 -0.0898 -0.0437  0.3963
 3160W        W46151   7.131  10.736   7.007  0.1723 -0.1568 -0.1264
 3161W        W46152  25.807   1.227  20.038  0.3434  0.0422  0.0860
 3162W        W46153  16.789  19.562   2.785  0.1233  0.1728  0.0213
 3163W        W46154  20.814  17.048   5.307  0.1693 -0.3382  0.3673
 3164W        W46155  17.097  14.314   0.395  0.1160  0.1124  0.0163
 3165W        W46156  16.164  20.247   4.069 -0.2096  0.2147  0.4327
 3166W        W46157  15.798  15.534   7.321 -0.1410 -0.0836  0.2747
 3167W        W46158  18.466  22.510   5.250  0.2851  0.0276  0.0112
 3168W        W46159  23.885  23.549  27.447 -0.0884  0.1653  0.1114
 3169W        W46160  18.292  12.119   5.562  0.3140  0.0675 -0.1548
 3170W        W46161  23.141  27.503   1.910  0.2068  0.2201  0.1315
 3171W        W46162   9.008  20.550   9.536  0.1405  0.1618 -0.0281
 3172W        W46163  23.456  14.782  21.010  0.0223 -0.0389 -0.1260
 3173W        W46164  10.442  25.910   9.498 -0.0945  0.1172  0.2652
 3174W        W46165  16.255  24.279   6.518  0.1205 -0.1467  0.2746
 3175W        W46166  29.502   1.301   0.042  0.0936  0.1471  0.2307
 3176W        W46167  28.682  15.609   4.158  0.3005 -0.0329  0.0308
 3177W        W46168  18.684  15.936   6.454  0.0880 -0.0028 -0.2192
 3178W        W46169  24.002  20.083   8.375 -0.2111 -0.3725 -0.3483
 3179W        W46170  14.020  17.594  26.359 -0.0204 -0.0450 -0.0133
 3180W        W46171  10.564   6.225  11.042 -0.0999 -0.3002  0.1295
 3181W        W46172   2.147  10.492   1.325 -0.0156 -0.0318  0.5012
 3182W        W46173  20.459  15.208   5.452 -0.4425  0.1004  0.5380
 3183W        W46174  25.512  13.224   3.457 -0.1128  0.0724 -0.1956
 3184W        W46175  15.170   1.313   3.476 -0.1197  0.2063 -0.0776
 3185W        W46176   9.497  15.011   4.861  0.1329 -0.0267 -0.4844
 3186W        W46177   7.554  30.300   6.803 -0.0230 -0.3017  0.0373
 3187W        W46178  20.556  34.389   4.879 -0.0694  0.1626 -0.1203
 3188W        W46179   8.389  16.865   4.835 -0.2583  0.1301  0.1318
 3189W        W46180  12.508   7.292   5.746  0.0001  0.0057 -0.1040
 3190W        W46181  19.048  15.720   3.700  0.0466  0.1966 -0.0012
 3191W        W46182  21.014  27.882   4.624  0.1861  0.0180 -0.1770
 3192W        W46183   5.030  17.266  28.369 -0.0276  0.1669  0.0789
 3193W        W46184   4.070  12.680   2.602 -0.0937  0.0525  0.2181
 3194W        W46185   6.766   2.435   4.460 -0.1325 -0.1235 -0.1951
 3195W        W46186   1.727  16.274  10.783 -0.2273  0.1130  0.1690
 3196W        W46187  18.481  23.690   4.156  0.1343 -0.0665 -0.2665
 3197W        W46188   0.330   8.607   2.384  0.1735  0.0264  0.0735
 3198W        W46189  12.729   3.816   4.072 -0.1385  0.0910  0.0668
 3199W        W46190  17.065  23.821   3.181  0.0650  0.4727  0.0587
 3200W        W46191  16.306  18.493   6.240 -0.1911 -0.2915  0.0699
 3201W        W46192   5.217  10.680   1.005 -0.0853  0.0069 -0.1717
 3202W        W46193  11.220   6.817  23.681 -0.0368  0.1487 -0.1022
 3203W        W46194  11.388  27.766   4.252 -0.0007  0.0079 -0.1120
 3204W        W46195  11.257  21.320  27.437  0.1984  0.0444 -0.1463
 3205W        W46196  16.748  17.971   3.422 -0.0517  0.0618 -0.0078
 3206W        W46197  34.241  32.071  26.438  0.1267 -0.0108 -0.1782
 3207W        W46198  12.259   7.843   6.548 -0.0066  0.1229 -0.0254
 3208W        W46199  15.513  33.768   2.808  0.0815 -0.0426  0.0785
 3209W        W46200   6.094  14.120   0.737 -0.0445  0.1508  0.0323
 3210W        W46201  12.357  28.506   8.405 -0.0282 -0.0141  0.1970
 3211W        W46202  28.452  32.405  27.280 -0.0388  0.3326  0.0745
 3212W        W46203  30.706  14.767   7.039  0.0355  0.0614 -0.0287
 3213W        W46204   6.743  27.302   4.850  0.2393 -0.0565 -0.3869
 3214W        W46205  24.239  19.771   8.737  0.0832 -0.0866 -0.2327
 3215W        W46206  16.613  10.614   7.748 -0.2220  0.1329 -0.0332
 3216W        W46207   4.365  14.166   7.267  0.2564  0.0124 -0.1500
 3217W        W46208  11.697  26.496   3.340 -0.0613  0.0692  0.2303
 3218W        W46209  23.863  25.286   7.845  0.1453  0.0693 -0.1623
 3219W        W46210  13.308  23.191   0.165 -0.2718  0.0444 -0.2898
 3220W        W46211  14.841  32.284   4.353 -0.1222 -0.1491 -0.0008
 3221W        W46212  16.863  19.639   4.231 -0.5271  0.4362 -0.3652
 3222W        W46213  12.657   0.395   2.646 -0.0344 -0.0218 -0.1280
 3223W        W46214  31.063  23.356  10.144 -0.1020 -0.2366  0.1426
 3224W        W46215  13.210  17.909   3.034 -0.0335  0.0458 -0.0113
 3225W        W46216  24.577  32.310  28.572  0.0119 -0.0481 -0.1488
 3226W        W46217  17.893  17.643   9.069  0.0941  0.3806  0.1852
 3227W        W46218  31.491  31.653  24.286  0.1832 -0.0508  0.0347
 3228W        W46219  19.833  11.016   6.213  0.1684 -0.1869 -0.1349
 3229W        W46220  30.297  23.120  22.047  0.1917 -0.0172  0.1860
 3230W        W46221  16.453  16.612  26.493  0.0759  0.1172  0.0012
 3231W        W46222  26.643  14.812   6.883 -0.0425  0.0649  0.3187
 3232W        W46223  19.873  16.395   8.979 -0.0046 -0.1088  0.0480
 3233W        W46224  19.650  15.766   3.830 -0.0560  0.3493 -0.0302
 3234W        W46225  17.211  16.160  28.322 -0.1743 -0.0934  0.3801
 3235W        W46226  15.360  13.319   6.384 -0.1728 -0.5461  0.1010
 3236W        W46227  27.969  14.730  28.129 -0.2360  0.0769 -0.0870
 3237W        W46228  20.021  10.853  23.188  0.5312  0.2256  0.1239
 3238W        W46229  20.081  10.151  23.824 -0.2452  0.0395 -0.0395
 3239W        W46230   5.799  24.968   4.262 -0.0390 -0.2054 -0.2247
 3240W        W46231  21.054  18.601   9.239 -0.0232 -0.3590 -0.0592
 3241W        W46232   9.170  19.283  22.545 -0.0705  0.2166  0.1847
 3242W        W46233   2.728  17.478  24.453 -0.0012  0.1159 -0.1168
 3243W        W46234  22.793  14.696  21.762 -0.0318 -0.2744 -0.1718
 3244W        W46235   7.180  14.981   8.343 -0.2305  0.1978 -0.1816
 3245W        W46236  20.100  27.030   5.626  0.1329 -0.2061  0.4371
 3246W        W46237  29.569   0.461  28.277  0.0051 -0.3208  0.3094
 3247W        W46238   4.182  18.078  15.866 -0.2711 -0.2575  0.3234
 3248W        W46239   8.793  29.139   7.678 -0.0895 -0.0681 -0.0870
 3249W        W46240  19.458  24.401   4.138 -0.0948  0.2502  0.1440
 3250W        W46241  28.720  13.579  26.321  0.0636  0.3932 -0.0627
 3251W        W46242   7.425  13.433   2.853 -0.1533 -0.1523  0.0393
 3252W        W46243  15.391   1.859  10.596 -0.0526 -0.0673 -0.1907
 3253W        W46244   8.653  30.769   2.307 -0.2998  0.2487  0.0839
 3254W        W46245   1.817  22.109   1.052  0.2058 -0.4320  0.3812
 3255W        W46246  18.066  26.212   7.426  0.0795 -0.1328  0.2226
 3256W        W46247  29.115  10.456   6.502 -0.0632  0.1170  0.0968
 3257W        W46248   8.272  16.032   4.311 -0.0532 -0.0910  0.0887
 3258W        W46249  21.584  21.830  23.582 -0.0552  0.2851  0.0670
 3259W        W46250   2.649  13.920  10.960  0.1380 -0.2319  0.2174
 3260W        W46251   4.612   4.632  28.914 -0.0901 -0.1790 -0.1520
 3261W        W46252   6.406  16.547   9.304  0.0274 -0.1138 -0.1414
 3262W        W46253  21.275   4.707   4.282 -0.1876 -0.0512  0.0825
 3263W        W46254  16.483   6.723   8.623  0.0350 -0.1951 -0.1582
 3264W        W46255  11.782   9.624   3.917  0.0304 -0.1409 -0.3392
 3265W        W46256  11.124  30.431   7.817 -0.0950 -0.1160 -0.0627
 3266W        W46257  11.673  20.558   3.830 -0.0701 -0.2670  0.1399
 3267W        W46258  24.212   8.124   8.005  0.0389 -0.2433  0.3433
 3268W        W46259   8.899  33.670  20.516  0.3913 -0.0226  0.0726
 3269W        W46260  13.263  13.319   2.296  0.0684 -0.1645 -0.0758
 3270W        W46261  21.285  14.186   9.002 -0.0561  0.2085 -0.0292
 3271W        W46262  30.598  21.290   6.365  0.3091  0.1365 -0.1039
 3272W        W46263  14.502  19.729  24.622  0.3841  0.1341 -0.2377
 3273W        W46264  10.944  14.355   6.858  0.1212  0.2035  0.1670
 3274W        W46265  16.838   2.143   7.798  0.0432 -0.1165  0.2480
 3275W        W46266  22.504  11.371   8.077 -0.1386  0.0149  0.3090
 3276W        W46267   6.273  21.879   7.041  0.1960 -0.0266 -0.0270
 3277W        W46268  16.109   9.543   4.195 -0.3613  0.0708  0.6036
 3278W        W46269  26.358   3.706   7.799 -0.1969 -0.2489  0.1759
 3279W        W46270  15.951  13.174   7.299  0.2713  0.0107  0.1022
 3280W        W46271  11.424  10.707   8.845  0.1314  0.3524 -0.0627
 3281W        W46272  10.719  24.502   2.258 -0.1243  0.2400 -0.1268
 3282W        W46273   2.454   4.724   6.420 -0.0427  0.4977  0.1502
 3283W        W46274  21.542   3.382  19.207 -0.0504  0.1424  0.0038
 3284W        W46275  26.799  34.677  28.900 -0.2167 -0.3590 -0.1827
 3285W        W46276  22.274   2.330   8.127 -0.2447 -0.1441  0.1811
 3286W        W46277   9.223  24.402   4.217 -0.1578 -0.1538 -0.0785
 3287W        W46278  25.426  16.674   8.478  0.0439  0.2172 -0.1724
 3288W        W46279   3.726  24.244   8.508  0.2715  0.1404 -0.2842
 3289W        W46280  13.304  15.856   1.975 -0.1988  0.0572  0.0714
 3290W        W46281  27.945  11.242   1.900 -0.0093 -0.0062 -0.0546
 3291W        W46282   6.502  23.663   1.982 -0.0185  0.0811 -0.1867
 3292W        W46283  11.810  24.066   5.565  0.1232  0.0259 -0.0885
 3293W        W46284  17.453  25.473  27.349 -0.0314 -0.2115 -0.1563
 3294W        W46285  13.014  24.453  29.122  0.0011  0.0941 -0.0950
 3295W        W46286  12.116  21.318  27.620 -0.1063 -0.0613  0.3371
 3296W        W46287  30.127   8.944  22.775 -0.0356 -0.0021 -0.1834
 3297W        W46288  17.653  18.391  28.518 -0.2159  0.1688 -0.0451
 3298W        W46289  21.467   9.348  23.093 -0.0562  0.0716  0.2376
 3299W        W46290  20.992  28.589  17.507  0.1755  0.0503  0.0422
 3300W        W46291  14.702  25.708   8.689  0.0881  0.1191 -0.0715
 3301W        W46292  27.942  14.557   6.354 -0.0252 -0.3002  0.1250
 3302W        W46293  14.742  12.405   9.799 -0.0173  0.1994 -0.3125
 3303W        W46294   8.949  23.329   7.917 -0.1066  0.1198 -0.1538
 3304W        W46295  10.031  14.371   1.126  0.2010  0.1695  0.3069
 3305W        W46296  14.264  28.842   8.077 -0.0011  0.0400 -0.0758
 3306W        W46297  14.210  28.363   5.740  0.1797 -0.3984 -0.3150
 3307W        W46298  23.008  13.396  28.573  0.0810  0.2339 -0.2421
 3308W        W46299  28.390   0.351   5.048 -0.1493 -0.3596  0.2998
 3309W        W46300  10.560  32.070   5.741  0.0379 -0.1274  0.1847
 3310W        W46301  22.160   5.829   6.384 -0.1096 -0.1064  0.1123
 3311W        W46302  31.276  29.053   2.604  0.1816 -0.0239 -0.1792
 3312W        W46303  25.900  15.569   6.659 -0.1677 -0.1384 -0.2771
 3313W        W46304  15.046  16.978  28.395  0.0267 -0.0776  0.0198
 3314W        W46305  22.673   9.391  25.433  0.0440 -0.0930 -0.1566
 3315W        W46306   6.771  23.987   8.891  0.0161 -0.0844 -0.0680
 3316W        W46307   6.101   6.034   5.189  0.2976  0.0774  0.0982
 3317W        W46308  18.311  18.385   4.820  0.0174 -0.2528 -0.0909
 3318W        W46309   4.460   4.280   2.712 -0.4421  0.0148 -0.2083
 3319W        W46310  20.216  26.186   9.136  0.0087  0.1087  0.3413
 3320W        W46311  24.610  21.962   8.711 -0.0290  0.0351 -0.0640
 3321W        W46312   7.999  27.887   2.972  0.3133  0.1178  0.0979
 3322W        W46313  23.785  22.048  17.119  0.1311  0.2714  0.3487
 3323W        W46314  11.310  23.410   9.382 -0.1091  0.1260  0.2585
 3324W        W46315  14.021  13.492   4.117  0.1005  0.2291 -0.0470
 3325W        W46316  11.732  24.868   5.028 -0.3304 -0.1734 -0.3046
 3326W        W46317  24.660   1.457  27.020 -0.0386  0.0999  0.2249
 3327W        W46318   7.469   6.292   7.360  0.0256  0.3330  0.0695
 3328W        W46319   8.440  32.635   8.662  0.2440 -0.1826  0.3552
 3329W        W46320   9.165  19.391   8.615 -0.1362 -0.0349  0.0008
 3330W        W46321  25.808  12.223   6.678 -0.1670  0.0505  0.1480
 3331W        W46322  24.014  19.878  25.621 -0.3869 -0.1482 -0.0387
 3332W        W46323  18.436   2.903   3.838  0.1749  0.1571  0.0524
 3333W        W46324   4.857  27.273   3.168 -0.2886  0.0242  0.0867
 3334W        W46325   5.953  32.391   4.764 -0.3429 -0.0095  0.1983
 3335W        W46326  32.780   9.360  20.136  0.0779  0.0281 -0.2627
 3336W        W46327  30.184  14.332   6.548  0.0543 -0.2335 -0.1777
 3337W        W46328  13.272  14.925   7.279  0.0409 -0.0564  0.1590
 3338W        W46329  21.835  23.746   4.476 -0.3707  0.1148 -0.1809
 3339W        W46330   5.684  20.824   9.574 -0.0498  0.2224 -0.0256
 3340W        W46331  25.336  11.178   0.510  0.3227  0.0241 -0.0052
 3341W        W46332  10.943  22.063   9.534  0.0697 -0.0851 -0.3475
 3342W        W46333  32.810  23.900  10.350  0.3373  0.3495 -0.2908
 3343W        W46334  18.142  17.134  24.346  0.0509  0.1298  0.3184
 3344W        W46335  28.349  18.052   6.821  0.2091  0.2836 -0.0014
 3345W        W46336  16.009  19.003   8.381 -0.3396 -0.4876 -0.1414
 3346W        W46337  32.972  22.603   6.057  0.4204 -0.0055 -0.0188
 3347W        W46338  17.916   8.524   6.961 -0.0473 -0.1607  0.2283
 3348W        W46339  10.865   0.716   7.827  0.0314  0.0080 -0.0576
 3349W        W46340  19.980  12.135  24.045  0.0962 -0.0276 -0.0562
 3350W        W46341  12.557  16.217   7.972  0.0703 -0.0323 -0.2780
 3351W        W46342  13.432  19.409   6.367  0.0172  0.2057  0.0109
 3352W        W46343   3.029  20.750   0.098 -0.0706 -0.0017 -0.0452
 3353W        W46344  11.334  11.934   7.887 -0.0548  0.2212 -0.1284
 3354W        W46345   5.858  12.742   0.546 -0.0007 -0.2419  0.1206
 3355W        W46346  30.780  21.019  24.437  0.1429 -0.4342 -0.0326
 3356W        W46347  21.419  11.662   2.568  0.0300  0.0631  0.1035
 3357W        W46348  13.325   6.500   8.691 -0.0097 -0.0815  0.0886
 3358W        W46349  18.110  16.729  28.576 -0.0857 -0.3827  0.1304
 3359W        W46350  13.037   6.944   1.218 -0.1362 -0.0560 -0.1249
 3360W        W46351  26.946  26.388   1.618 -0.4957 -0.1792  0.0036
 3361W        W46352  15.664  22.022   5.850  0.1484 -0.2444  0.0277
 3362W        W46353  16.452  18.959   6.008  0.1276 -0.1356  0.2881
 3363W        W46354  12.442   2.505   1.377 -0.1742  0.2292 -0.0263
 3364W        W46355   0.185  19.144   5.584  0.0446  0.3693  0.0954
 3365W        W46356  18.475  16.845  27.549  0.1174 -0.1575 -0.1250
 3366W        W46357  12.245  12.804   7.023  0.0983 -0.0153 -0.0716
 3367W        W46358  19.120   6.864   7.658 -0.0244  0.0922 -0.2527
 3368W        W46359   6.966   7.222   8.895  0.2225 -0.1181 -0.1199
 3369W        W46360  24.813   5.409  23.718  0.1128  0.1209 -0.0933
 3370W        W46361  12.163   9.042  19.351  0.0546 -0.5438 -0.0151
 3371W        W46362   3.707  12.027  23.564 -0.2934 -0.1252  0.0998
 3372W        W46363  23.555  15.515   3.714 -0.0214  0.1531 -0.1453
 3373W        W46364   0.777  25.339  24.861  0.1602  0.1424 -0.0163
 3374W        W46365  14.916  18.870  27.042  0.2226  0.2164 -0.0273
 3375W        W46366  11.742   8.540   2.500  0.0642 -0.1228 -0.0256
 3376W        W46367  11.656   8.482   4.983  0.0700  0.1434 -0.2086
 3377W        W46368  13.806  21.511   9.569  0.0222  0.0714 -0.0668
 3378W        W46369  25.332  26.096   6.943  0.0370 -0.2704 -0.1092
 3379W        W46370  16.202   2.926   7.289 -0.0820  0.0308 -0.0640
 3380W        W46371  19.597  16.371  23.312 -0.1438 -0.0558  0.1759
 3381W        W46372  20.194  23.037   8.671  0.3723 -0.1740 -0.0349
 3382W        W46373  16.641  17.590   6.466 -0.0174  0.1678 -0.0423
 3383W        W46374  28.398  10.268   7.433 -0.0287 -0.0589 -0.0542
 3384W        W46375  26.699   7.558   9.141 -0.3005  0.3142  0.2703
 3385W        W46376  14.584   5.587  22.757  0.2526 -0.3504 -0.4154
 3386W        W46377  26.397   9.107   3.432 -0.2751  0.2565  0.2978
 3387W        W46378   8.533  10.403  10.004 -0.0983  0.2587 -0.0105
 3388W        W46379  10.695  29.617  25.178  0.2657  0.0676  0.2449
 3389W        W46380   5.306  10.542   4.235  0.0110 -0.0697 -0.0122
 3390W        W46381   3.438  32.540   3.182 -0.2796  0.0832  0.3964
 3391W        W46382  11.632  21.670   3.530  0.2159 -0.0289 -0.3088
 3392W        W46383  20.959  20.276  17.307  0.0796 -0.2310 -0.0190
 3393W        W46384  18.989  10.859   9.460  0.5560  0.3701  0.0684
 3394W        W46385  14.117   1.816  25.813  0.1072 -0.2040 -0.0310
 3395W        W46386  15.508  15.965   1.359  0.1184 -0.0529 -0.1565
 3396W        W46387   8.269  24.538   0.583 -0.2934 -0.3823  0.2260
 3397W        W46388  16.828  30.790  26.618 -0.2432  0.1614  0.0128
 3398W        W46389   1.152  11.506   9.395  0.4886 -0.1218  0.1213
 3399W        W46390  32.103   7.247   1.640  0.0701  0.2101 -0.1396
 3400W        W46391   9.183   9.706   2.323  0.0398 -0.0483  0.2577
 3401W        W46392  18.472  17.545  28.761  0.0389  0.1439 -0.3015
 3402W        W46393   7.140  18.296   9.329 -0.0106  0.1280  0.1798
 3403W        W46394   1.999   2.303   9.619  0.0403  0.2438  0.1958
 3404W        W46395  22.682  27.907   8.686 -0.2805  0.1963 -0.2468
 3405W        W46396  18.799  33.290   2.360 -0.1018  0.3142 -0.0577
 3406W        W46397  27.434  28.878   0.661  0.3953 -0.2315  0.1747
 3407W        W46398   7.327   2.445   8.093  0.1774 -0.0128 -0.1511
 3408W        W46399  33.496  29.165   0.344 -0.1085 -0.0291 -0.0998
 3409W        W46400  11.029  21.395   8.803  0.1187 -0.1273  0.0189
 3410W        W46401  15.228   4.873   6.479 -0.0738 -0.4108 -0.2248
 3411W        W46402  10.249  10.413   5.954 -0.0279  0.3756  0.0432
 3412W        W46403  14.823   9.970   7.385  0.2628 -0.0543  0.0861
 3413W        W46404  19.705   7.698  26.221  0.1509  0.2886  0.1848
 3414W        W46405  12.531   7.257   6.711 -0.0962  0.2574 -0.1428
 3415W        W46406   5.033  18.276   1.726  0.2432  0.1842 -0.1531
 3416W        W46407   5.495  33.744   7.008 -0.2133  0.4307 -0.0990
 3417W        W46408   9.159  21.224  25.777  0.1076  0.0681 -0.0195
 3418W        W46409  20.271  17.172   1.371 -0.2317  0.2836  0.1551
 3419W        W46410   3.395  24.864   8.398  0.2187 -0.0436  0.2274
 3420W        W46411  16.874  34.592   4.075 -0.3167 -0.2583 -0.1311
 3421W        W46412  21.849  10.398  28.013  0.1003  0.1102  0.0557
 3422W        W46413   9.627  22.805   8.858 -0.0630 -0.1843 -0.0178
 3423W        W46414  13.901  29.865  27.382 -0.1389  0.2429  0.2744
 3424W        W46415  12.833  20.224  19.370 -0.2317  0.0675  0.0571
 3425W        W46416  10.759  10.266  28.411  0.1391  0.0852  0.2421
 3426W        W46417   8.164   2.824   9.067  0.0996  0.0951 -0.2438
 3427W        W46418  13.853  27.376  28.512 -0.2234 -0.0329  0.1172
 3428W        W46419   5.373  27.211  25.848 -0.1779 -0.0327 -0.2061
 3429W        W46420   1.640  30.349   5.067 -0.0097 -0.1101  0.1106
 3430W        W46421  10.555  10.505  22.257 -0.0471  0.0127 -0.0253
 3431W        W46422   0.111  24.726  27.194  0.1558  0.0201  0.1323
 3432W        W46423  27.942  22.312   2.268  0.4727 -0.2585 -0.0993
 3433W        W46424   7.158  17.275   2.165 -0.0834 -0.0560 -0.0214
 3434W        W46425   3.608  30.965   4.728 -0.0098  0.1431  0.0957
 3435W        W46426  26.314  19.909  22.634  0.1797 -0.3905 -0.2366
 3436W        W46427  22.152   5.251   4.002  0.0885  0.2848  0.0186
 3437W        W46428  20.981  22.054   3.004  0.1948  0.1550  0.1267
 3438W        W46429  23.333  14.101  17.970  0.0003  0.0994 -0.1443
 3439W        W46430   9.394  19.115  28.106  0.1524 -0.1177  0.1795
 3440W        W46431  19.181  22.270   6.098  0.0363  0.1993  0.2486
 3441W        W46432   7.763  23.446   1.517 -0.4269 -0.0050  0.1427
 3442W        W46433  21.234  13.930  25.357 -0.2012  0.1015 -0.1260
 3443W        W46434   5.115  32.241  28.224 -0.2497 -0.2655 -0.3412
 3444W        W46435  13.508  12.731   4.389  0.1018 -0.2036  0.0762
 3445W        W46436   1.361  26.858   1.127  0.1097 -0.1919  0.1679
 3446W        W46437  27.593  14.141   4.645 -0.3189 -0.0220 -0.0555
 3447W        W46438   5.390  13.053  28.521  0.0157 -0.2451  0.1673
 3448W        W46439   0.434  28.091  23.200  0.3437  0.1973 -0.4183
 3449W        W46440  10.987  31.919  27.167  0.2835 -0.3470  0.1084
 3450W        W46441  11.768  13.255  22.940  0.0953 -0.1626  0.4289
 3451W        W46442  28.311  16.266  25.347  0.1902 -0.1866  0.2285
 3452W        W46443  21.463  32.187   7.604  0.1718 -0.1206 -0.1489
 3453W        W46444  17.924   9.660   6.098 -0.2886 -0.0570  0.0363
 3454W        W46445  34.369  21.606  14.506  0.0974 -0.0946 -0.7608
 3455W        W46446  22.932   4.316   6.516  0.1363  0.0003 -0.1629
 3456W        W46447  11.232  27.011   7.607  0.1753  0.1844  0.1419
 3457W        W46448  10.784  12.556  26.930  0.0504  0.0851  0.0158
 3458W        W46449  14.795  28.529  28.408  0.1840 -0.0065 -0.0017
 3459W        W46450  15.512  26.138  28.892 -0.0243 -0.1952  0.1184
 3460W        W46451   9.081   3.571  24.186  0.0577  0.0622 -0.0028
 3461W        W46452  32.683  22.653   8.082 -0.0496 -0.1473 -0.3017
 3462W        W46453  20.870  12.182   6.373  0.0611 -0.4824 -0.0323
 3463W        W46454  34.739  26.410  17.667 -0.0315  0.0904 -0.0296
 3464W        W46455  12.014  33.453  18.055 -0.1765  0.2444  0.4879
 3465W        W46456  24.126  15.622  23.809  0.0796  0.0704 -0.3370
 3466W        W46457  24.495  16.241  27.336  0.0455  0.0129 -0.0908
 3467W        W46458   7.664  15.670   8.470  0.0069 -0.1344 -0.0289
 3468W        W46459  12.753  32.127   8.014  0.0138 -0.0185 -0.0486
 3469W        W46460  17.760   8.295  25.491 -0.1371 -0.3149  0.0825
 3470W        W46461  15.855  11.257  15.599  0.0978 -0.1453  0.2725
 3471W        W46462  24.475  33.877   3.534  0.1387 -0.0715 -0.1337
 3472W        W46463   4.194  27.866   3.763 -0.0697  0.1999  0.3732
 3473W        W46464  12.872  15.064  22.404 -0.2025  0.0367  0.2566
 3474W        W46465  19.954  12.222   3.646  0.1881 -0.1615 -0.0449
 3475W        W46466  25.169  26.045  21.237 -0.1448 -0.1561 -0.3673
 3476W        W46467  31.306  17.669   2.197 -0.0716  0.1879  0.1957
 3477W        W46468   4.161  21.308  27.844  0.0295  0.0045  0.2749
 3478W        W46469  22.858  10.335  17.062  0.3154 -0.1381 -0.0158
 3479W        W46470   6.213  19.640  25.971  0.0732 -0.0818 -0.0835
 3480W        W46471  27.050  31.279   1.612 -0.3075  0.0124 -0.0321
 3481W        W46472  10.368   4.368  22.783  0.0085 -0.1077 -0.0624
 3482W        W46473  18.675  23.244   3.729  0.1073 -0.0863 -0.0322
 3483W        W46474  20.884  24.954   6.160 -0.1232 -0.1656 -0.0600
 3484W        W46475  10.649  18.256   8.081 -0.0521 -0.1664  0.2966
 3485W        W46476  18.872  20.179  23.670  0.2265 -0.0593 -0.3164
 3486W        W46477   2.886   5.942  25.208 -0.0701  0.0022  0.0235
 3487W        W46478  19.142  25.949  22.363 -0.2890 -0.5096  0.3464
 3488W        W46479   0.726  14.426  19.558  0.0459  0.3882 -0.1407
 3489W        W46480   6.751  31.405   3.356  0.0759  0.0604 -0.0529
 3490W        W46481  12.004  18.564  24.908  0.1157  0.0431 -0.1177
 3491W        W46482  16.421  10.743  27.258 -0.1558  0.1213 -0.1234
 3492W        W46483   3.093  16.178  27.067  0.3750 -0.0402 -0.1211
 3493W        W46484  14.171  28.455   7.668  0.1701  0.1502  0.1132
 3494W        W46485   9.222  32.666  23.529  0.1574  0.1528  0.1074
 3495W        W46486  10.938  15.829   7.969 -0.0371  0.1420  0.0585
 3496W        W46487  28.015  21.607   6.139  0.1573 -0.0738  0.0767
 3497W        W46488  16.580  20.146  21.904  0.1900  0.0880 -0.1423
 3498W        W46489  23.162  27.813   6.714 -0.0162  0.2950  0.1054
 3499W        W46490  17.982  23.492   1.867 -0.1484 -0.1171 -0.1440
 3500W        W46491  28.499  29.164   6.465 -0.3934  0.2690 -0.1584
 3501W        W46492  13.039  13.034   1.870  0.0809  0.3791  0.0632
 3502W        W46493  32.894  12.443  25.449  0.2094  0.0954 -0.2209
 3503W        W46494  34.444  19.964  26.905 -0.3799 -0.0521 -0.2935
 3504W        W46495  11.374  12.086   4.428  0.1439 -0.0863 -0.0987
 3505W        W46496  13.030  29.869  10.169  0.3681 -0.2436 -0.1117
 3506W        W46497  23.232   8.295  27.572  0.1079 -0.0859 -0.2719
 3507W        W46498   5.694  24.365   9.852  0.2011 -0.0837  0.0346
 3508W        W46499  17.990  22.299   4.273 -0.1874  0.0982  0.2952
 3509W        W46500  24.480  30.348   1.525 -0.1150  0.1220  0.0759
 3510W        W46501  33.916  31.000  25.576  0.1638 -0.3333 -0.3388
 3511W        W46502  34.178  20.267  16.211 -0.0874 -0.1459  0.0055
 3512W        W46503   5.484  15.539   5.051  0.0915  0.2528 -0.1561
 3513W        W46504   0.392  17.125  27.025  0.3841 -0.2347 -0.1817
 3514W        W46505  16.698  19.084  27.693 -0.2281 -0.1062  0.2584
 3515W        W46506  18.300   9.605   1.301 -0.1300  0.1851  0.1877
 3516W        W46507  10.388  23.817   4.070  0.0188  0.2762  0.3201
 3517W        W46508   1.698  32.072   1.857  0.2594  0.1519  0.0559
 3518W        W46509  16.788  21.390   7.365 -0.1391  0.1923 -0.2232
 3519W        W46510  16.387  27.349  27.264 -0.3695  0.0572  0.0019
 3520W        W46511   7.483  19.496   1.190 -0.3060  0.1683  0.2944
 3521W        W46512  15.555  19.089   0.032  0.0206  0.0681  0.0872
 3522W        W46513  25.215  23.323  28.129  0.1940  0.0047  0.1612
 3523W        W46514   9.203  33.649   5.907 -0.1069 -0.1628  0.2064
 3524W        W46515   3.838   0.701  26.822 -0.0015  0.1756 -0.0626
 3525W        W46516  11.919  33.099   4.328  0.0813  0.2913 -0.0538
 3526W        W46517  23.215  17.725  22.805 -0.0587  0.2078 -0.0817
 3527W        W46518  19.364  19.474   0.552  0.1186 -0.1047 -0.0536
 3528W        W46519  13.730  24.340   7.320 -0.2574 -0.0176  0.1379
 3529W        W46520  22.884  23.177  22.179 -0.1185  0.1382  0.1418
 3530W        W46521  23.861  21.073   0.992  0.0543  0.3612 -0.3248
 3531W        W46522   8.102  30.891  29.047  0.0351 -0.2274 -0.0044
 3532W        W46523  13.859  21.468   1.929  0.1087  0.1938 -0.0612
 3533W        W46524  24.355  27.804  26.347 -0.0551 -0.2271 -0.0136
 3534W        W46525  14.448  16.954   2.653 -0.1874  0.2283 -0.0851
 3535W        W46526  22.793  12.858  17.570  0.0520 -0.2624  0.2023
 3536W        W46527  33.393  13.091  11.191  0.1355  0.1119 -0.0497
 3537W        W46528   7.383  23.309   6.975 -0.0048  0.2391  0.0255
 3538W        W46529   5.189  13.646  23.445  0.0763 -0.0789  0.0939
 3539W        W46530  14.975  27.495  14.204 -0.0268  0.0213  0.3303
 3540W        W46531  29.714  32.233  17.775  0.2844  0.1307  0.2839
 3541W        W46532  18.766  18.433   4.974 -0.0197 -0.3995  0.1125
 3542W        W46533  15.468  19.113   7.590  0.2320  0.0499  0.4996
 3543W        W46534   5.910  30.141  27.587 -0.0491  0.1269 -0.1854
 3544W        W46535  13.951  18.485   6.800 -0.3230 -0.3180  0.0899
 3545W        W46536  10.076  20.882   9.690 -0.0685  0.0396 -0.2789
 3546W        W46537   8.228  24.123  26.028 -0.0029  0.0205  0.1591
 3547W        W46538   0.958  11.581   6.449 -0.5328 -0.0918  0.0197
 3548W        W46539   0.771  20.456   2.991 -0.0183  0.0443 -0.1173
 3549W        W46540  18.935  33.182   4.712  0.1207  0.0231  0.2815
 3550W        W46541  19.692   2.195  21.264 -0.0279  0.2408  0.0763
 3551W        W46542  16.166  18.544  28.234 -0.2666 -0.0352 -0.0473
 3552W        W46543  19.436  12.960  28.516 -0.2012 -0.2744 -0.0062
 3553W        W46544  26.596  12.856   7.323  0.2493  0.0498 -0.0303
 3554W        W46545   1.044  28.378   3.461  0.0156  0.2615 -0.0080
 3555W        W46546  11.812  26.295  25.894 -0.0256  0.0258  0.1257
 3556W        W46547  13.645  19.016  14.354 -0.0800  0.2999  0.0201
 3557W        W46548  10.076  32.027  23.364  0.0603 -0.0705 -0.2509
 3558W        W46549  24.998  10.864   2.091  0.2385  0.0574 -0.0626
 3559W        W46550  12.308  29.986   0.097  0.0456  0.0456 -0.4168
 3560W        W46551  11.618  11.042   8.562 -0.0296  0.0737  0.1274
 3561W        W46552  18.795   9.167  26.397  0.0568 -0.4508  0.2059
 3562W        W46553   3.610  30.460   6.199  0.1005 -0.0311 -0.1992
 3563W        W46554  18.622   7.690   2.216 -0.0382  0.1117 -0.0738
 3564W        W46555  14.903   9.775   5.925 -0.1848 -0.1257 -0.0010
 3565W        W46556  14.975  10.365  17.078 -0.1065 -0.0104 -0.0239
 3566W        W46557  31.426  15.619  11.084 -0.1389 -0.1195  0.0729
 3567W        W46558   9.461  34.095   3.185 -0.1377  0.1222  0.0798
 3568W        W46559   6.922  19.402  10.116  0.2278  0.0078 -0.1650
 3569W        W46560  11.124  30.145   9.206  0.1097  0.0433  0.1294
 3570W        W46561   0.174  30.168   4.881  0.0371 -0.2083 -0.2364
 3571W        W46562   4.609  32.833  29.018  0.0626  0.1155 -0.2646
 3572W        W46563   7.834  14.080  25.431  0.0483 -0.1418 -0.3715
 3573W        W46564  17.698  13.613  28.668  0.0186 -0.5570  0.0886
 3574W        W46565  34.020  16.888  27.467 -0.2194  0.2434 -0.0021
 3575W        W46566  17.501   3.410   5.866  0.0260  0.2995  0.2207
 3576W        W46567  27.020  14.552   0.064 -0.3492  0.0148 -0.0220
 3577W        W46568  31.255   0.943   6.209 -0.1908  0.0026 -0.0391
 3578W        W46569  12.520  32.255  22.665 -0.3257 -0.1320  0.1500
 3579W        W46570  12.820  17.359   0.785  0.0084 -0.1134 -0.0710
 3580W        W46571  19.106  23.940  22.174 -0.1165  0.1870 -0.3246
 3581W        W46572  23.707  30.895   2.647  0.0220  0.0966 -0.0202
 3582W        W46573  23.516  19.733  25.639 -0.1978  0.1016 -0.0196
 3583W        W46574  14.922   3.435   8.448  0.0441  0.3237  0.0275
 3584W        W46575   8.822  19.767  18.228 -0.1356  0.3114 -0.0443
 3585W        W46576  20.274  20.971   7.588  0.0640 -0.3071 -0.1292
 3586W        W46577  17.752  20.681  26.328 -0.1465 -0.1828  0.1323
 3587W        W46578  18.070  25.673  15.777 -0.1180  0.0598  0.0033
 3588W        W46579  19.808  15.409   4.203 -0.1150  0.0889 -0.0443
 3589W        W46580  19.968  32.925   3.377  0.3463 -0.3518  0.0694
 3590W        W46581  10.400  33.163  25.654 -0.2453 -0.2931  0.0350
 3591W        W46582  27.118  10.136   8.084 -0.0338  0.0782  0.1693
 3592W        W46583  30.723  34.627   2.318 -0.1807 -0.0304 -0.0412
 3593W        W46584   9.163  20.541   6.876 -0.0727 -0.0571  0.1640
 3594W        W46585  20.351   5.567   8.054  0.0618 -0.0704  0.0373
 3595W        W46586  33.342   9.082   4.135 -0.2021 -0.0093 -0.3941
 3596W        W46587   5.106  11.905  24.247 -0.1703  0.1345  0.2549
 3597W        W46588  31.934  17.550   7.659 -0.1668 -0.0664 -0.3848
 3598W        W46589  18.811  18.221   8.190  0.1399 -0.4437 -0.0508
 3599W        W46590  14.960  19.070   2.735 -0.1761 -0.5887 -0.1717
 3600W        W46591  28.337  17.134   1.369 -0.1040  0.1300 -0.1505
 3601W        W46592  15.416   6.939  26.704 -0.0546 -0.0920  0.4868
 3602W        W46593  34.265   3.661   4.256 -0.0235  0.0602  0.2941
 3603W        W46594   4.938  12.996   1.240 -0.0720  0.3183 -0.1607
 3604W        W46595   6.303  15.588  10.395 -0.2868  0.2603 -0.4779
 3605W        W46596  21.276  21.811   7.115  0.1338  0.2572 -0.0912
 3606W        W46597   0.321  11.569   9.842 -0.0070 -0.2816  0.1870
 3607W        W46598   3.990  16.174   7.765 -0.3622 -0.0726 -0.0188
 3608W        W46599  16.484  16.337   7.655 -0.3732  0.0410  0.2503
 3609W        W46600  22.676  26.355  18.356 -0.1845  0.0480 -0.1170
 3610W        W46601   0.937  21.653   1.751  0.1305  0.0557 -0.0707
 3611W        W46602  17.101  17.618  25.070 -0.0645  0.4849  0.3233
 3612W        W46603   4.987  14.935  29.205 -0.0399  0.1941 -0.1043
 3613W        W46604  21.749   6.232   7.216  0.0228  0.0448 -0.0742
 3614W        W46605  10.517   4.476   2.733 -0.0094  0.1913 -0.1143
 3615W        W46606  16.286  16.342   2.626  0.1474 -0.2170  0.0404
 3616W        W46607  14.551  26.942  28.671  0.0497  0.1563 -0.1397
 3617W        W46608   3.390  20.842  24.001 -0.3299  0.0874 -0.2192
 3618W        W46609  34.428  26.313   8.953 -0.0987 -0.1054  0.0431
 3619W        W46610  21.904  15.936  28.412 -0.1690 -0.0452  0.1106
 3620W        W46611  34.141  24.440  29.045 -0.0858 -0.0459 -0.1233
 3621W        W46612  28.195  14.094   6.504  0.1983  0.0123 -0.1061
 3622W        W46613   4.693  25.649  28.757  0.0068  0.1272  0.1663
 3623W        W46614   3.717  22.331   8.681 -0.2487  0.0402 -0.1882
 3624W        W46615  31.939  18.139   6.170 -0.0478  0.0492 -0.0590
 3625W        W46616  10.300   7.963   9.954  0.3488 -0.3195  0.1228
 3626W        W46617  19.492  21.838   3.622  0.1441  0.1395 -0.0621
 3627W        W46618   5.848  24.400  27.331  0.0817  0.0144 -0.1267
 3628W        W46619   0.819  20.113  24.330 -0.0582  0.1600  0.1977
 3629W        W46620  28.732  32.009  15.179 -0.1465 -0.0993  0.0476
 3630W        W46621  13.347  23.549  22.182 -0.1814  0.0599 -0.0057
 3631W        W46622  24.034  23.676   0.561 -0.1127  0.2898 -0.1331
 3632W        W46623  16.796  17.924  25.564 -0.0571 -0.0463 -0.0623
 3633W        W46624   7.205  31.028   4.587  0.3997  0.0419 -0.3922
 3634W        W46625   3.121  23.238  24.633  0.2976 -0.1376  0.1003
 3635W        W46626  16.057  21.291  26.324 -0.2966 -0.0984  0.0679
 3636W        W46627  28.107  19.451  17.967  0.1060  0.1704  0.0990
 3637W        W46628  11.027  14.670  25.336 -0.0584  0.2219  0.0497
 3638W        W46629   2.532   2.972   6.224 -0.0935  0.2123 -0.4917
 3639W        W46630   3.655  15.771   3.484 -0.2728  0.0043  0.1141
 3640W        W46631  25.260  24.990  27.895 -0.1137 -0.3123  0.0843
 3641W        W46632  27.874  24.975  22.144 -0.0894  0.0812 -0.0912
 3642W        W46633  17.688  23.890  17.142 -0.1189  0.1375 -0.0060
 3643W        W46634  14.355  11.786  25.717 -0.5137  0.1234 -0.0323
 3644W        W46635   7.510  16.981  26.356  0.0701 -0.1305  0.0477
 3645W        W46636   4.983  22.421  26.430  0.1261  0.1863  0.1849
 3646W        W46637  21.817  19.700  23.766  0.0962 -0.3194  0.0344
 3647W        W46638   9.947   9.894   3.261  0.1051 -0.2305  0.1079
 3648W        W46639  15.397  23.959   6.492  0.1552  0.0301  0.1404
 3649W        W46640  11.939  28.060   4.543 -0.0101  0.1939  0.1471
 3650W        W46641  23.261  20.577  27.067  0.1043  0.2641 -0.3178
 3651W        W46642  19.789  23.239  29.117 -0.0515 -0.1184 -0.4393
 3652W        W46643  13.169  15.589   2.383 -0.2990  0.0642  0.2049
 3653W        W46644  14.925  25.940  23.328 -0.0789 -0.0596 -0.1880
 3654W        W46645  20.006  21.065   2.870  0.0463 -0.0772  0.0420
 3655W        W46646  33.035  29.463  27.553 -0.0647  0.0443  0.1810
 3656W        W46647   1.751  19.777  21.414 -0.0601 -0.0323  0.0213
 3657W        W46648  16.260  22.222  28.503 -0.0457  0.1912 -0.1145
 3658W        W46649  21.699  11.222  18.921  0.3393 -0.4120  0.2428
 3659W        W46650  13.022   1.196  19.062  0.0459 -0.3882  0.2860
 3660W        W46651   9.415  25.227   8.328 -0.0480  0.1051 -0.1592
 3661W        W46652  25.392  33.460   1.822  0.0747 -0.1181 -0.1860
 3662W        W46653  15.906  15.600   6.301 -0.0453 -0.0841  0.0197
 3663W        W46654  33.521  14.697   3.278  0.0730  0.2330  0.0604
 3664W        W46655  16.090  23.790   7.627 -0.4503  0.0359  0.0972
 3665W        W46656  12.457  11.471  22.004 -0.3911 -0.2006  0.2828
 3666W        W46657  12.428  10.671  24.645 -0.0797 -0.0271 -0.4377
 3667W        W46658   6.346  20.846   9.724  0.0206 -0.2527  0.2169
 3668W        W46659  25.758  23.982   3.561 -0.2205 -0.0393 -0.0179
 3669W        W46660  11.324  18.534   2.510 -0.2351  0.1747 -0.0504
 3670W        W46661  18.181  32.276  26.122 -0.0199  0.0697  0.1723
 3671W        W46662  13.354  33.250  10.001  0.0738  0.0977  0.2819
 3672W        W46663  16.404  28.997  17.622  0.0504 -0.0052  0.2437
 3673W        W46664  17.988  27.021   2.923  0.3261  0.2865  0.0750
 3674W        W46665  32.974  17.159  25.315  0.0720 -0.0080 -0.1624
 3675W        W46666  13.641   2.622  17.207 -0.1327 -0.2458  0.0607
 3676W        W46667  17.339  28.521   7.781 -0.0551  0.2564  0.0827
 3677W        W46668  18.715  22.854  24.390  0.0747  0.2197 -0.0948
 3678W        W46669  10.161  23.199  25.774 -0.0006  0.0919  0.2228
 3679W        W46670   9.217  16.351   8.334 -0.1376  0.3471  0.0224
 3680W        W46671  17.390  28.421   3.344  0.0806 -0.1076  0.0587
 3681W        W46672   1.956  28.380   0.117  0.3018  0.0126 -0.2051
 3682W        W46673  11.424  31.565  14.219  0.0917 -0.3583  0.0789
 3683W        W46674  13.613  29.926  23.819 -0.3036  0.0253  0.3341
 3684W        W46675  19.271   1.211   7.845  0.0082  0.2157 -0.1751
 3685W        W46676  32.927  14.820  10.892  0.1934  0.0353 -0.2927
 3686W        W46677  16.936   8.616   3.215  0.1292 -0.0651 -0.6010
 3687W        W46678  11.542  18.423   6.414  0.1193  0.0058  0.0205
 3688W        W46679   1.088  14.943  12.115  0.1709 -0.1825 -0.1237
 3689W        W46680   3.917  22.662  27.560  0.0353 -0.0409 -0.1550
 3690W        W46681  26.253   9.798  28.618  0.0467 -0.1009  0.0722
 3691W        W46682  20.037  22.261   4.065 -0.3838  0.5677 -0.3382
 3692W        W46683  10.473  12.620  26.129  0.1668 -0.1971 -0.1582
 3693W        W46684  31.401  29.834  28.006 -0.0057 -0.0846 -0.1015
 3694W        W46685  16.404  34.042   8.211 -0.0908  0.2498  0.1054
 3695W        W46686   4.439  25.761   2.095  0.2177 -0.1583 -0.1760
 3696W        W46687  14.087  22.584   5.886 -0.0817  0.1185 -0.1189
 3697W        W46688  25.538  21.323   8.640 -0.1133 -0.1666  0.1695
 3698W        W46689  30.698  26.647   7.510  0.1912  0.3258 -0.0172
 3699W        W46690  24.215  32.491   3.109 -0.1217  0.0245 -0.2771
 3700W        W46691  14.037  13.399   1.829 -0.1429  0.3528  0.0075
 3701W        W46692  21.213  27.331  27.356 -0.1008 -0.0259 -0.1349
 3702W        W46693  14.657  12.468  15.061 -0.3297 -0.1136  0.0242
 3703W        W46694   3.209  12.744  20.696 -0.1233  0.2063  0.0632
 3704W        W46695  21.857  24.935  28.143  0.1402  0.0773  0.0007
 3705W        W46696  10.979  12.570  25.932 -0.2639 -0.1139  0.0893
 3706W        W46697  28.804  31.614   7.847 -0.2467  0.0272  0.1064
 3707W        W46698  10.448  20.041   3.351  0.0907 -0.2515  0.0096
 3708W        W46699  13.941  27.235  10.298  0.2461 -0.0252  0.3635
 3709W        W46700  14.326  15.468  16.325 -0.2893 -0.0111 -0.3936
 3710W        W46701  29.017  21.788   5.298 -0.2933  0.3833 -0.0929
 3711W        W46702  22.379  21.962   7.299 -0.0952  0.0970 -0.0166
 3712W        W46703  18.133  13.051   1.544  0.2220  0.0036 -0.0520
 3713W        W46704  28.139  25.381   6.586 -0.0606 -0.3462 -0.3178
 3714W        W46705   6.282  19.701  11.199  0.2765 -0.0658  0.0126
 3715W        W46706   3.268  16.771   2.159 -0.2278 -0.1627  0.1385
 3716W        W46707  15.285   8.043  24.006 -0.2043 -0.1693 -0.3571
 3717W        W46708  23.049  25.536   0.250 -0.0917 -0.3200  0.2591
 3718W        W46709  11.067  29.376   4.319  0.1084  0.0157 -0.0942
 3719W        W46710  19.546  18.481  29.094  0.1254  0.5415 -0.3235
 3720W        W46711  25.805  32.028   8.154 -0.0360 -0.1496  0.1021
 3721W        W46712  22.695  31.654  21.856  0.1763  0.2741  0.2528
 3722W        W46713  23.170  27.871  27.742 -0.1122  0.1551 -0.2541
 3723W        W46714  24.812  15.310   0.409 -0.0782 -0.1232  0.1498
 3724W        W46715  10.958  21.884   4.091  0.2494 -0.0788  0.0987
 3725W        W46716  20.215  22.888  28.285  0.1335  0.0876  0.1966
 3726W        W46717  29.971  12.859   6.998  0.0129 -0.3031 -0.0226
 3727W        W46718  25.540  30.343   1.805 -0.0263 -0.3247  0.2071
 3728W        W46719  21.279  33.359   8.041 -0.0025 -0.0502 -0.0046
 3729W        W46720  17.517  18.250   0.796 -0.1026 -0.0399 -0.0918
 3730W        W46721  32.105   0.270  28.238  0.0064 -0.2224 -0.2288
 3731W        W46722   4.964  17.956  22.639  0.0915 -0.1552 -0.2813
 3732W        W46723  17.605  13.403   9.678 -0.1423  0.1601  0.3036
 3733W        W46724  12.458  18.574   4.015 -0.1064 -0.0795  0.0028
 3734W        W46725  30.710  22.637  17.504 -0.1855  0.0690 -0.3192
 3735W        W46726   3.116   5.157  17.688 -0.1705 -0.1610 -0.3754
 3736W        W46727   7.466   0.572   3.414 -0.0568 -0.2950  0.0959
 3737W        W46728  13.709  31.150   8.804 -0.1056  0.1019  0.0980
 3738W        W46729  11.612  20.269   4.804  0.0497 -0.0447  0.1297
 3739W        W46730  11.668  32.891  10.134  0.0810 -0.1682  0.0408
 3740W        W46731  11.646  19.348   3.783 -0.0783 -0.2303  0.4413
 3741W        W46732  18.357   8.155  17.608 -0.2459  0.0748 -0.0181
 3742W        W46733  12.503  26.936  17.160  0.0808  0.4196 -0.0158
 3743W        W46734  33.558  27.420   9.206 -0.0212  0.0917  0.0022
 3744W        W46735   8.378  32.995   1.500  0.1212  0.0518 -0.1255
 3745W        W46736   6.806  16.055   7.592  0.1204 -0.0917 -0.3728
 3746W        W46737  21.849  30.356   8.877 -0.1646 -0.1236 -0.1388
 3747W        W46738  12.792  21.577   2.725 -0.1030 -0.2569 -0.3119
 3748W        W46739  12.167  11.450   1.382 -0.0563  0.0624 -0.3139
 3749W        W46740  22.478  15.158   2.991  0.0165  0.1090  0.0840
 3750W        W46741  16.580  16.165   3.487 -0.2843 -0.0843  0.0412
 3751W        W46742  12.494  12.418  10.029  0.1036 -0.0042 -0.0300
 3752W        W46743   3.377  21.521  27.743 -0.3532  0.1413 -0.0566
 3753W        W46744  24.978  30.705   9.186 -0.1071 -0.2108  0.0851
 3754W        W46745  20.652   1.128  26.577 -0.2599 -0.1290  0.0592
 3755W        W46746  24.652  30.431   4.659 -0.3853  0.0920 -0.0134
 3756W        W46747   9.154  30.692   3.153  0.0525  0.0751  0.0211
 3757W        W46748  14.896  31.508  28.133 -0.1977  0.0691  0.0625
 3758W        W46749  28.972   3.838  10.179  0.0463  0.3285  0.2334
 3759W        W46750  13.988  17.103   6.704 -0.0698 -0.5030 -0.0398
 3760W        W46751  22.388  16.019  27.410 -0.3605  0.0726  0.4069
 3761W        W46752  12.231   4.203   9.488  0.1228  0.1166 -0.5393
 3762W        W46753  34.742  15.830   3.268 -0.4010  0.0267  0.2086
 3763W        W46754  10.893  28.298   6.075 -0.4053 -0.1074  0.1642
 3764W        W46755   1.817  14.787  10.322 -0.2343  0.0429 -0.2840
 3765W        W46756   8.806  21.991  24.857 -0.2112 -0.1099 -0.2379
 3766W        W46757  23.740  28.398  14.819 -0.1887  0.0218  0.0340
 3767W        W46758  26.214  27.742  18.949  0.0621 -0.0847 -0.0036
 3768W        W46759  13.302  19.005   7.348 -0.1378 -0.3031  0.3110
 3769W        W46760  19.402   9.196  23.150  0.1061  0.1163 -0.0785
 3770W        W46761  33.981  23.679  23.675  0.1479 -0.4909  0.2381
 3771W        W46762  23.912   7.107   5.666 -0.0874 -0.0557  0.0890
 3772W        W46763  12.981  26.112  26.420 -0.1139  0.2326  0.1229
 3773W        W46764   9.952  22.141  29.146 -0.0701 -0.1491 -0.0390
 3774W        W46765  26.267  22.900   5.267 -0.4654  0.2177 -0.0531
 3775W        W46766  14.779  33.038   9.546 -0.0211 -0.1063  0.1802
 3776W        W46767  15.927   2.506   9.070 -0.1989 -0.2722  0.2857
 3777W        W46768  16.933  19.955  15.167  0.2096  0.0965  0.2747
 3778W        W46769  16.377  11.806   4.370  0.0479  0.2871  0.2222
 3779W        W46770  18.172  30.713  23.593 -0.1314  0.3130  0.2897
 3780W        W46771  16.043  22.240  25.297 -0.0407  0.0806  0.2261
 3781W        W46772   9.223  16.260   3.693  0.0036 -0.1845 -0.3323
 3782W        W46773  11.257  15.547  29.169  0.1173 -0.1983 -0.0649
 3783W        W46774  19.308   2.940   1.839 -0.4752 -0.2598 -0.1580
 3784W        W46775   1.325  31.706   7.849 -0.1285 -0.0267  0.1356
 3785W        W46776  28.836   9.055  20.724  0.4342  0.1364 -0.0312
 3786W        W46777  16.164  13.093   8.917  0.0608  0.1402 -0.1244
 3787W        W46778  19.249  24.310  26.720 -0.0695  0.0954  0.2763
 3788W        W46779  18.309  18.763   8.705  0.2219  0.1682 -0.0173
 3789W        W46780  20.035  16.662   5.633 -0.0079 -0.0702 -0.0143
 3790W        W46781  15.609  28.159   7.874  0.2307 -0.2527 -0.0665
 3791W        W46782  12.458  31.625   3.668  0.2343  0.0996 -0.3663
 3792W        W46783   6.968  28.012   6.403 -0.1454 -0.3169 -0.1140
 3793W        W46784  22.857  21.322  23.556  0.2012  0.1589  0.0854
 3794W        W46785   0.307  21.355  28.521 -0.3883 -0.1384  0.1159
 3795W        W46786  27.503  16.645  20.572 -0.1401  0.1047  0.2092
 3796W        W46787  10.280  26.780  10.384  0.0865  0.3081  0.1833
 3797W        W46788  23.193  16.427   4.695 -0.0864 -0.0631  0.1034
 3798W        W46789   6.600  23.341   0.711 -0.1918 -0.0264  0.6557
 3799W        W46790   0.646  24.860   7.717 -0.3552  0.0890  0.0338
 3800W        W46791  17.178  18.687   2.211 -0.0104  0.2053  0.2611
 3801W        W46792  23.973  26.396   0.251  0.2971 -0.1928  0.0490
 3802W        W46793   2.330  13.392   3.227 -0.0181  0.2776  0.1533
 3803W        W46794  11.209  12.418  23.464 -0.1199  0.1647  0.0667
 3804W        W46795  18.436   3.750   7.472 -0.0706  0.0232 -0.2467
 3805W        W46796  14.951  28.630   4.657  0.1104 -0.0760  0.0916
 3806W        W46797  13.406   3.011   9.335  0.2844 -0.1348  0.2088
 3807W        W46798   9.380  20.837  26.197 -0.1012 -0.0204 -0.2958
 3808W        W46799  21.078  15.548  24.991  0.1475 -0.0263  0.0098
 3809W        W46800  18.887   6.541   8.140 -0.3550 -0.0457  0.1358
 3810W        W46801  13.729  11.070   7.321  0.0321  0.1835 -0.2603
 3811W        W46802  12.864   1.385  28.321 -0.0897  0.2160  0.0172
 3812W        W46803  28.980  23.985  26.686 -0.2508  0.0624  0.3597
 3813W        W46804  21.010  23.114   0.300 -0.0799  0.2697  0.0197
 3814W        W46805   8.566  24.921  10.014 -0.0838  0.1044  0.0985
 3815W        W46806  22.655  14.277   8.996  0.2542 -0.0659  0.1555
 3816W        W46807  20.218  14.901  21.654 -0.0067 -0.0371  0.2030
 3817W        W46808   3.501  27.925   4.298  0.2271 -0.1667 -0.1266
 3818W        W46809   2.799   0.274   4.400  0.5702  0.1462  0.1082
 3819W        W46810   4.748  32.192   0.361 -0.0227  0.0677 -0.1921
 3820W        W46811   8.028  11.654  20.010  0.1349  0.2009 -0.1185
 3821W        W46812   7.478  13.209   7.905 -0.0488 -0.1821 -0.2702
 3822W        W46813  10.203  17.161  17.253  0.0275  0.2876  0.2785
 3823W        W46814  33.416  26.652  27.221 -0.1219  0.0660 -0.1222
 3824W        W46815  17.836  14.385   5.942 -0.2838 -0.0614 -0.2269
 3825W        W46816   0.775  27.748   6.573 -0.2400  0.1205  0.0637
 3826W        W46817  23.343  11.833   2.484 -0.0594  0.1367  0.1760
 3827W        W46818   8.947  22.521   4.811 -0.0865 -0.0694 -0.0967
 3828W        W46819  10.716  18.859   4.773  0.0711 -0.0054 -0.2297
 3829W        W46820  10.403  22.759   1.235  0.2441 -0.2257  0.2815
 3830W        W46821  17.552  19.182   3.868  0.0671 -0.4960 -0.2967
 3831W        W46822  12.436  26.065   2.092  0.1284  0.0107  0.1951
 3832W        W46823  18.833  30.611   8.896  0.0676  0.0658 -0.1517
 3833W        W46824   6.911  22.017  26.627 -0.1323 -0.3002 -0.1003
 3834W        W46825  18.725  11.121   3.390  0.0089  0.1136 -0.0409
 3835W        W46826  10.889  20.285   7.316 -0.2290  0.0601 -0.0465
 3836W        W46827   1.898   8.955   6.460 -0.2999 -0.2235 -0.1202
 3837W        W46828  16.921  19.228  24.044  0.2638  0.2494  0.3455
 3838W        W46829  29.616   9.355  22.545 -0.3235 -0.1487  0.0356
 3839W        W46830  19.277  16.772  26.944  0.0373 -0.1093  0.1947
 3840W        W46831  22.464  16.723  19.416  0.3350  0.0359  0.0985
 3841W        W46832  11.871   4.496  27.188  0.1250 -0.3196  0.0764
 3842W        W46833  10.667  23.767   6.016 -0.0990 -0.1587  0.0375
 3843W        W46834  19.564  11.317  24.210  0.0182  0.0217 -0.0702
 3844W        W46835  23.339  15.274  20.097 -0.1140  0.1082 -0.0024
 3845W        W46836   8.522   0.778   3.522 -0.2465  0.1900  0.3585
 3846W        W46837   8.360   8.991  10.341 -0.1078 -0.0569 -0.0958
 3847W        W46838  19.524  24.922   0.436 -0.0100 -0.1172 -0.0372
 3848W        W46839  13.296  21.970  25.972  0.1524  0.1751 -0.3864
 3849W        W46840   0.167  17.009   0.805 -0.0145  0.1871 -0.3636
 3850W        W46841  30.227   0.802   3.641  0.1657 -0.2620  0.0553
 3851W        W46842   7.057  18.520   2.068  0.0757 -0.1386 -0.3244
 3852W        W46843  23.151  11.109   3.303  0.3182  0.3421 -0.1385
 3853W        W46844  16.300  23.807   1.543  0.0717  0.0220 -0.2287
 3854W        W46845  23.698  29.348  29.108  0.0786  0.1367  0.0546
 3855W        W46846  32.450   0.597   7.571 -0.1064  0.0090  0.0719
 3856W        W46847  16.277  15.495  28.827  0.1899 -0.0407 -0.2578
 3857W        W46848  17.754  19.225   4.319 -0.1606  0.3705  0.1530
 3858W        W46849  23.532  34.591  26.488 -0.2107  0.0537 -0.3940
 3859W        W46850  34.479  20.804  29.224 -0.3476 -0.3970 -0.1750
 3860W        W46851   9.821  12.355   8.108 -0.4436  0.2222 -0.3214
 3861W        W46852  17.985  29.067   7.869  0.2463  0.1233 -0.0537
 3862W        W46853  15.500  24.734  26.581 -0.0404 -0.1081  0.3817
 3863W        W46854   9.165  15.348  28.989  0.1044  0.0113  0.3447
 3864W        W46855  10.043  31.136   0.410  0.1297 -0.2062  0.0334
 3865W        W46856   3.949  16.574  25.073 -0.0837 -0.0985 -0.1784
 3866W        W46857   1.739  11.218   1.321 -0.1174 -0.1097  0.2606
 3867W        W46858  24.419  15.987  27.797  0.2914 -0.0193  0.2899
 3868W        W46859   9.466   8.331  26.919  0.0336  0.0477  0.0387
 3869W        W46860  14.075   6.998  17.879 -0.0725 -0.0345  0.0998
 3870W        W46861  24.763  23.695   9.068 -0.0150  0.2963 -0.0954
 3871W        W46862   8.226  20.895  14.687  0.0813  0.4337  0.4129
 3872W        W46863   9.171  27.197   1.228  0.0458  0.1142  0.1466
 3873W        W46864  25.616  13.964  28.751  0.1454 -0.0256 -0.1164
 3874W        W46865  15.656   0.738  22.542  0.3271  0.1582  0.2774
 3875W        W46866  10.475  13.999   3.160 -0.0153  0.0074  0.0793
 3876W        W46867   5.355  18.210   2.101  0.1200 -0.1689 -0.1301
 3877W        W46868   3.491  21.719  23.755 -0.0345  0.2662 -0.3554
 3878W        W46869  26.239  29.340  25.768  0.1092 -0.0132  0.0874
 3879W        W46870  10.049  11.742   6.363  0.0409 -0.2163 -0.2901
 3880W        W46871   1.828  14.200  11.722  0.3834  0.2117  0.2948
 3881W        W46872   9.314  18.197   6.306  0.0846 -0.2488  0.0121
 3882W        W46873  30.838  13.071   7.673  0.0125  0.1073 -0.0139
 3883W        W46874  17.799  18.188  21.179 -0.1913 -0.1596  0.2224
 3884W        W46875  29.801  24.682   2.482 -0.0538  0.2718 -0.2039
 3885W        W46876  14.184  14.164  21.760  0.2082  0.2024 -0.0214
 3886W        W46877   8.289  14.194   3.329  0.1977 -0.0108 -0.1936
 3887W        W46878  13.196  23.357   4.336  0.3211  0.1981  0.0085
 3888W        W46879  19.080   5.845   0.189 -0.1282  0.2236  0.0446
 3889W        W46880  14.063  30.003   0.564  0.2163 -0.3735  0.2372
 3890W        W46881   0.635  34.229   6.377 -0.1895 -0.0459  0.1487
 3891W        W46882  24.323   9.769   8.662 -0.1568 -0.0314 -0.1383
 3892W        W46883  28.837  27.657   8.640  0.4341 -0.0896 -0.1158
 3893W        W46884  16.282  34.537   9.573  0.2460 -0.0362 -0.0685
 3894W        W46885  24.967   1.562   3.268  0.1391  0.1506  0.1362
 3895W        W46886  24.699  16.287   0.393 -0.0813  0.2736  0.1910
 3896W        W46887  11.678  20.424   9.629  0.3298  0.1886 -0.2744
 3897W        W46888  13.984  17.248  22.448 -0.2746 -0.0402  0.1139
 3898W        W46889  18.042  25.876   6.446  0.1629  0.1058  0.3988
 3899W        W46890  32.708  10.208   4.363 -0.0629 -0.2155 -0.1084
 3900W        W46891  13.322  26.534  23.872 -0.1187 -0.0583  0.1417
 3901W        W46892  11.431  24.363   9.189  0.1337  0.3093  0.2645
 3902W        W46893   9.553  23.460  28.451  0.2837  0.0725 -0.1797
 3903W        W46894  24.278  16.381   6.562 -0.1596 -0.0640 -0.0168
 3904W        W46895  15.189  19.618  22.444  0.1089 -0.0571 -0.1719
 3905W        W46896  29.318  15.915   8.200  0.2990 -0.0935  0.2464
 3906W        W46897  17.437  20.118   6.656 -0.0363 -0.1984 -0.2154
 3907W        W46898  11.964  28.705  24.137 -0.1579  0.2363  0.2236
 3908W        W46899  10.750  26.417  20.887  0.1736 -0.1988 -0.0908
 3909W        W46900  31.989  23.947   0.251  0.0470  0.1535 -0.1889
 3910W        W46901  26.597  28.101  28.276 -0.2278  0.1169  0.1202
 3911W        W46902  28.170  27.347   2.721  0.0386  0.4591 -0.0557
 3912W        W46903   4.207  20.265  27.989 -0.1110  0.0907 -0.1258
 3913W        W46904  22.541  10.288  23.344  0.0058 -0.0297  0.0604
 3914W        W46905  11.481   2.529   6.947 -0.0716 -0.1941 -0.1111
 3915W        W46906  13.404  17.015   2.813 -0.1217  0.0950  0.1781
 3916W        W46907  13.763   6.927   5.159 -0.2054 -0.0292  0.0993
 3917W        W46908   9.953  18.022  26.089  0.3216  0.2507 -0.0958
 3918W        W46909  23.135  22.523  18.267 -0.4267 -0.1026 -0.1289
 3919W        W46910   9.790  30.160   1.374 -0.1988  0.1817  0.2311
 3920W        W46911   7.396  21.351   6.294 -0.1113  0.4019  0.0237
 3921W        W46912  23.112  32.309   2.371 -0.1037  0.5463  0.2410
 3922W        W46913  12.711   8.767   3.548  0.1056  0.3083 -0.0874
 3923W        W46914   3.851  20.734   1.141 -0.1063  0.3043  0.1479
 3924W        W46915  16.005  20.929   1.139 -0.1573 -0.1858  0.0758
 3925W        W46916  14.200  13.963   6.028 -0.0359 -0.4452 -0.0266
 3926W        W46917  16.561   4.724   3.288 -0.3244  0.0337 -0.0901
 3927W        W46918  12.074  22.121   8.182  0.1878 -0.1324  0.2475
 3928W        W46919  32.284  24.794  28.693  0.1919  0.0103 -0.0084
 3929W        W46920  21.194  22.310   3.908  0.1448  0.1653 -0.0123
 3930W        W46921   9.031  26.909  24.472 -0.1576 -0.2159  0.2537
 3931W        W46922  11.354  14.060   9.328  0.0322  0.1223 -0.1366
 3932W        W46923  22.835  31.047  28.934  0.0289  0.0957  0.1853
 3933W        W46924  21.075  15.369   0.577 -0.2898  0.0470  0.1977
 3934W        W46925  27.046  18.637   3.932 -0.1180  0.0907  0.2829
 3935W        W46926  14.304  15.190   4.099  0.0986 -0.0104 -0.1081
 3936W        W46927   9.790   8.251  28.774 -0.0451 -0.1701  0.2853
 3937W        W46928  14.910  25.576   7.406 -0.1235 -0.0562 -0.3126
 3938W        W46929  22.718  15.140  26.103 -0.1785  0.0328 -0.3167
 3939W        W46930  20.064  29.793   5.970 -0.1726  0.0351  0.0747
 3940W        W46931  16.171  21.369   4.907 -0.2392 -0.0936  0.1455
 3941W        W46932   6.901  25.995  19.724 -0.2545 -0.2501  0.1398
 3942W        W46933  11.961  22.765   2.213 -0.1272  0.2926 -0.2210
 3943W        W46934   6.601  26.656  16.061 -0.0761  0.3000 -0.1936
 3944W        W46935  26.067  16.932   5.770 -0.1745 -0.0284  0.2221
 3945W        W46936  21.785  22.306   2.165  0.2889 -0.0791  0.2334
 3946W        W46937  34.134  24.241   4.066 -0.1219  0.0070 -0.1656
 3947W        W46938   7.017  17.984  15.305 -0.3194  0.2529  0.3289
 3948W        W46939  13.699  18.609   3.943 -0.0081  0.0562 -0.4110
 3949W        W46940  14.867  22.157   8.316  0.2315 -0.5595 -0.0984
 3950W        W46941   5.625  22.742   9.145 -0.0803 -0.0902 -0.1660
 3951W        W46942   9.329  26.313  10.560 -0.0541  0.0268 -0.0138
 3952W        W46943   5.254  21.700   4.304 -0.1219 -0.1049 -0.3387
 3953W        W46944  34.134  13.585  16.661 -0.1674  0.2667  0.0165
 3954W        W46945  20.528  26.045  19.534  0.1149  0.4229  0.1146
 3955W        W46946  10.514   8.766  23.095  0.1776  0.1305  0.0589
 3956W        W46947  21.199  28.510   0.316 -0.0559  0.0369 -0.3698
 3957W        W46948  18.479  22.253   0.506  0.1645  0.0758  0.0336
 3958W        W46949  18.676   3.757   8.573 -0.0337  0.1338 -0.2024
 3959W        W46950  24.581  21.099   4.344  0.0561 -0.0448  0.0022
 3960W        W46951  14.543  23.673   7.834 -0.1429  0.3064  0.1901
 3961W        W46952   8.378  29.096   4.943  0.0956  0.1155 -0.2905
 3962W        W46953  21.117  22.167  28.226 -0.3649  0.1122  0.0168
 3963W        W46954  13.634  33.649   9.834  0.1060  0.0995 -0.2020
 3964W        W46955  33.752  25.467  28.209  0.1328  0.3123  0.0768
 3965W        W46956  14.292  14.044   5.463 -0.0721 -0.0851 -0.3304
 3966W        W46957  14.093  23.147  24.320 -0.4445  0.1153 -0.1289
 3967W        W46958  18.288  19.785  29.204 -0.0893 -0.3366  0.2685
 3968W        W46959   9.708   2.186   7.182  0.3437 -0.3669 -0.0224
 3969W        W46960  17.220  28.534  29.099  0.1830  0.1605 -0.1458
 3970W        W46961  22.866  18.128  26.106 -0.0367  0.4875 -0.1503
 3971W        W46962  25.708  26.770   4.764  0.2038 -0.1088  0.2874
 3972W        W46963   7.869  25.335   7.086  0.0381  0.1548  0.0399
 3973W        W46964  13.894  19.186  28.792 -0.3327  0.3560 -0.1326
 3974W        W46965   9.427  22.379  27.109 -0.2243  0.0019 -0.2573
 3975W        W46966   8.506   4.482  10.225  0.3241  0.1909 -0.2339
 3976W        W46967  16.751  16.079   7.994  0.0754 -0.0425 -0.2461
 3977W        W46968  15.226   4.659   5.900  0.2610  0.1434  0.0105
 3978W        W46969   8.263  34.446  21.911 -0.0330 -0.1378  0.1807
 3979W        W46970  20.969  26.838   1.766  0.0892 -0.0101  0.1234
 3980W        W46971  17.271  21.898  23.710 -0.0974  0.0763 -0.1844
 3981W        W46972  23.461  20.089   4.523  0.1004  0.1010  0.1801
 3982W        W46973   8.357  21.499   7.297 -0.1127  0.2428  0.0446
 3983W        W46974   2.321   9.072   6.752 -0.3061 -0.1566  0.0557
 3984W        W46975  12.058  23.489  23.997 -0.1500 -0.1316  0.0938
 3985W        W46976   2.633  18.266   6.757 -0.3094 -0.0878  0.1237
 3986W        W46977  33.123  32.668   5.545 -0.2705  0.3538 -0.3667
 3987W        W46978  11.118  19.171  27.201  0.1249 -0.0502 -0.1795
 3988W        W46979   3.948  34.250   3.951  0.0304 -0.3812  0.3532
 3989W        W46980  13.962  23.906   4.593  0.1591 -0.0723  0.1752
 3990W        W46981   2.881   5.883   2.052  0.0438 -0.0165 -0.0168
 3991W        W46982  19.849  18.657   6.965 -0.2328 -0.0592 -0.1480
 3992W        W46983   3.446  32.238   5.067  0.4247  0.4089 -0.0456
 3993W        W46984  15.998  27.209   7.646 -0.2362  0.1066 -0.0285
 3994W        W46985   2.085  24.211   6.885 -0.0437 -0.2162  0.2483
 3995W        W46986  29.653  34.133   3.573  0.0932 -0.1284 -0.2778
 3996W        W46987  21.709  10.304   7.803  0.2025 -0.0625  0.1677
 3997W        W46988  22.906   2.235   7.211  0.1257 -0.0897 -0.1388
 3998W        W46989  24.756  14.944   7.203  0.4555  0.0179  0.1409
 3999W        W46990  33.147   4.061   1.118 -0.1272  0.1074 -0.0932
 4000W        W46991  14.604   6.236   2.796  0.2216  0.1606 -0.3779
 4001W        W46992   7.812  17.866  10.404  0.0332 -0.2170  0.1037
 4002W        W46993  10.444  13.172   5.484  0.2687 -0.0585 -0.2041
 4003W        W46994  12.422   6.268  10.866 -0.0959 -0.1023  0.2419
 4004W        W46995  16.942   7.671  26.105  0.3874 -0.2881  0.0229
 4005W        W46996  22.332  14.627   9.210 -0.3094 -0.0556 -0.0030
 4006W        W46997  11.225  30.522  28.263 -0.0433 -0.1408  0.2217
 4007W        W46998  27.542  17.583   8.645 -0.2942 -0.0051 -0.0188
 4008W        W46999  14.532  15.065   1.002 -0.3108 -0.0705 -0.0063
 4009W        W47000  12.284  33.197  21.417  0.0741 -0.4370  0.0750
 4010W        W47001   9.264  20.120  25.536 -0.4370 -0.0779 -0.1315
 4011W        W47002  12.071   2.818   8.216  0.1762  0.1316  0.1260
 4012W        W47003  15.204  26.072   6.584 -0.1074 -0.1010 -0.2002
 4013W        W47004  13.416   6.833   2.578  0.2271  0.2200 -0.0088
 4014W        W47005  19.357   6.010   1.201  0.0759 -0.2882  0.3442
 4015W        W47006  20.253  34.058   5.038 -0.0312 -0.3663 -0.2075
 4016W        W47007   8.310  20.796  24.908 -0.1702 -0.2019  0.0772
 4017W        W47008  22.162  29.382  22.069  0.3591 -0.1447  0.1952
 4018W        W47009  13.587  20.131  28.110 -0.0535  0.0820  0.1266
 4019W        W47010  11.420  24.195   8.685 -0.1794 -0.0505 -0.1177
 4020W        W47011  15.035  25.064   6.587  0.0138 -0.3280 -0.2028
 4021W        W47012  17.616  14.688   3.828 -0.1065 -0.0288  0.2330
 4022W        W47013   6.215   3.423   0.239  0.0741 -0.1397  0.3876
 4023W        W47014  10.493  21.868   9.112  0.0754 -0.0203  0.0762
 4024W        W47015  19.325  23.035  20.950  0.1423 -0.2055  0.1367
 4025W        W47016  13.073  27.171   9.196 -0.1246  0.1186  0.0021
 4026W        W47017  18.961   2.831  26.217  0.0148 -0.0042 -0.2736
 4027W        W47018   1.963  22.359  10.049 -0.0973 -0.0356 -0.2598
 4028W        W47019  21.530  29.531   3.330  0.0472 -0.0625 -0.1542
 4029W        W47020  25.851  11.442   9.142  0.0743  0.2610 -0.2143
 4030W        W47021  15.406  25.434   6.667  0.2536  0.3805  0.0513
 4031W        W47022  32.355  21.425   4.814 -0.1278 -0.0384  0.2092
 4032W        W47023  31.870  12.377   8.095  0.2121 -0.0776 -0.0846
 4033W        W47024   6.934  32.806   2.678 -0.1478 -0.2373 -0.0501
 4034W        W47025  27.319  33.516   5.527  0.2192  0.0598  0.1546
 4035W        W47026   9.435  29.129  10.364  0.0420 -0.0783 -0.0942
 4036W        W47027  23.503  25.883   8.796 -0.0191 -0.1831 -0.3034
 4037W        W47028  28.081  10.565   9.587 -0.0725  0.4064  0.0445
 4038W        W47029   9.420  30.566  18.452  0.4731 -0.1548  0.0077
 4039W        W47030  12.021  18.073  28.395  0.3984  0.3626  0.0084
 4040W        W47031  10.085  24.102   3.138  0.4432  0.3109 -0.0450
 4041W        W47032  18.501  15.254   6.976 -0.3449 -0.3668  0.1507
 4042W        W47033  17.230  20.000  14.082  0.0974 -0.1262 -0.0294
 4043W        W47034  15.189  29.095   9.187 -0.2184  0.1091  0.0713
 4044W        W47035  11.912  28.828   9.844 -0.1079  0.1025  0.1046
 4045W        W47036  12.179  20.637  28.445  0.0767 -0.0149  0.3305
 4046W        W47037   9.574   2.125   8.340 -0.1507  0.0163 -0.2270
 4047W        W47038  15.900  20.929  25.038 -0.2450 -0.0034 -0.0378
 4048W        W47039  24.885  18.947   6.069 -0.0421  0.0403 -0.1752
 4049W        W47040  27.312  22.115  27.180  0.1001  0.3048  0.0994
 4050W        W47041  17.198  11.065   5.279 -0.0856 -0.0036 -0.1688
 4051W        W47042  11.245  25.530   6.826 -0.1114  0.0924  0.0030
 4052W        W47043   9.209  18.402   7.973  0.1971 -0.0798  0.1681
 4053W        W47044  29.555  17.742   8.718  0.1450 -0.1461 -0.1015
 4054W        W47045  11.164  18.235   8.395  0.3147  0.2002 -0.3739
 4055W        W47046  17.653  15.379  18.768 -0.1981  0.0091  0.0055
 4056W        W47047   2.196  20.618  20.972  0.2052  0.1813 -0.2604
 4057W        W47048  29.911   6.952  22.730  0.1244 -0.0040 -0.0472
 4058W        W47049  27.157  13.189   8.576  0.1052 -0.0005 -0.0154
 4059W        W47050  34.288  14.351   5.730 -0.0584 -0.1212 -0.0577
 4060W        W47051   1.610  15.395  21.996 -0.1545 -0.2126  0.1474
 4061W        W47052  23.453  15.196  21.528 -0.0000  0.1978 -0.2797
 4062W        W47053   6.908   6.816   4.997 -0.1171 -0.0237 -0.0618
 4063W        W47054   9.323  10.705   2.866  0.0814 -0.0647 -0.2271
 4064W        W47055  11.528  20.144  27.206  0.1369 -0.0237 -0.3322
 4065W        W47056   6.337  29.042  15.705  0.1937  0.1636  0.4130
 4066W        W47057  16.054  22.125   2.881  0.2928 -0.2715 -0.0196
 4067W        W47058  18.229  25.820   0.059  0.3436 -0.1536 -0.0731
 4068W        W47059   3.881  10.884   3.098 -0.2109  0.0352 -0.0649
 4069W        W47060  26.407  24.533  27.876 -0.2782  0.1441 -0.2511
 4070W        W47061  22.794   7.423   7.802 -0.0055  0.3942 -0.0443
 4071W        W47062  20.818  14.156  24.682  0.0186 -0.3708  0.0598
 4072W        W47063   9.737  32.867   9.617  0.2054 -0.0437 -0.1587
 4073W        W47064   2.256  34.419   5.898  0.0825 -0.0487 -0.1908
 4074W        W47065  24.688   8.004  26.176  0.1485  0.0458  0.1709
 4075W        W47066  13.933  21.255   7.433 -0.0509 -0.2060  0.3121
 4076W        W47067  19.858  25.411   1.958 -0.3648  0.5781 -0.2297
 4077W        W47068   5.156  18.704   3.840  0.2090  0.0595 -0.0023
 4078W        W47069  14.626  23.418   6.648 -0.1070 -0.1944 -0.0281
 4079W        W47070   2.610   2.659   1.210 -0.0712  0.2223 -0.0282
 4080W        W47071  33.845  12.740   3.977  0.3752  0.3677 -0.2432
 4081W        W47072  34.696  10.760   8.977 -0.1939  0.0722  0.1540
 4082W        W47073  15.702  22.434   4.352 -0.1674 -0.2659 -0.2709
 4083W        W47074   8.924   9.476  25.928  0.1008 -0.0033  0.0058
 4084W        W47075   4.705  21.849   3.953 -0.0883 -0.0739  0.1020
 4085W        W47076  14.804  24.265   5.208 -0.4768  0.1956  0.2073
 4086W        W47077  27.451  33.971   3.118 -0.2488  0.0875 -0.2873
 4087W        W47078  14.123   3.711  10.495 -0.1248  0.0864 -0.2959
 4088W        W47079  14.538  19.802  20.232  0.0036 -0.1787  0.0488
 4089W        W47080  15.262  26.412   5.937 -0.0878  0.1344  0.1124
 4090W        W47081  31.017  26.165   6.672  0.3671 -0.2089  0.2908
 4091W        W47082   1.111   9.377   4.044 -0.0707 -0.2372 -0.0026
 4092W        W47083  17.049   7.385   2.661  0.0904 -0.0915 -0.0254
 4093W        W47084  13.091  22.454   8.271 -0.3299  0.1229  0.1127
 4094W        W47085  10.768  23.837   9.734 -0.4226  0.0968 -0.1715
 4095W        W47086  16.228  28.103   9.703 -0.1563  0.0469  0.0051
 4096W        W47087   7.914  32.654  10.394 -0.0792 -0.1452 -0.1367
 4097W        W47088  16.377   8.666  25.688  0.0988  0.1515 -0.1073
 4098W        W47089  16.991  23.228   8.317 -0.3370 -0.1198  0.1736
 4099W        W47090  27.010   5.547   7.367  0.3184  0.1543  0.2806
 4100W        W47091  19.060  10.478   7.020 -0.3264 -0.2350 -0.0839
 4101W        W47092  22.943  16.092   1.897  0.3851 -0.0852  0.3510
 4102W        W47093  12.249  26.957   5.102 -0.4802 -0.1366  0.1392
 4103W        W47094  25.631   5.883  26.690  0.1860 -0.2096 -0.1297
 4104W        W47095  23.080  19.047  22.147 -0.1933  0.2202 -0.0117
 4105W        W47096  22.059  19.944   0.787  0.1257 -0.4097  0.0036
 4106W        W47097   2.509  32.216  28.712  0.0522 -0.1762  0.1924
 4107W        W47098  13.043  31.415  28.766  0.1922  0.1592 -0.0404
 4108W        W47099   9.097  15.357   9.156  0.0108  0.0962  0.0906
 4109W        W47100  16.646  25.450  21.715  0.2129 -0.2935 -0.1797
 4110W        W47101  24.201  30.101   4.627  0.2296 -0.0029  0.0265
 4111W        W47102  20.565  28.399   1.261 -0.1684  0.4780  0.1866
 4112W        W47103  20.803  33.707  19.970  0.1154 -0.3148 -0.0263
 4113W        W47104   4.588  21.198   6.685  0.1173  0.2444 -0.1750
 4114W        W47105   7.352  24.303   5.236  0.0815  0.3811  0.1017
 4115W        W47106  28.749  13.483   3.822 -0.1680  0.1103  0.1857
 4116W        W47107  11.604  16.767   8.285 -0.1499 -0.2357 -0.0132
 4117W        W47108  10.753  10.777  23.585 -0.0572  0.4590 -0.1568
 4118W        W47109  18.422  29.657   5.438 -0.2244 -0.1586  0.0368
 4119W        W47110  19.478  13.453  28.416  0.0612  0.4065 -0.2330
 4120W        W47111   6.668  20.705   3.788  0.2835  0.1156  0.0152
 4121W        W47112   4.386  17.699   3.995 -0.0093 -0.0313  0.2490
 4122W        W47113   9.639  26.675  21.593 -0.3838 -0.2674 -0.2294
 4123W        W47114   0.113   8.434  16.117  0.1800 -0.1211  0.1331
 4124W        W47115   1.986  27.710   8.633 -0.1720  0.4128  0.1192
 4125W        W47116   5.366  10.245   5.975  0.2540  0.1857  0.0241
 4126W        W47117  15.588  26.427   5.510 -0.1751 -0.1661 -0.2154
 4127W        W47118  17.743  16.563   1.533  0.3353  0.2599  0.1879
 4128W        W47119  10.549   2.531  25.093 -0.0855  0.4647 -0.3660
 4129W        W47120  16.124  16.677   3.728 -0.2373  0.0014 -0.3267
 4130W        W47121  28.899  21.733   4.691  0.2074 -0.0258  0.4034
 4131W        W47122  11.444  29.922  26.336 -0.1078  0.2199  0.1561
 4132W        W47123  12.958   6.052  26.678  0.0148 -0.1086 -0.1280
 4133W        W47124  13.442  17.376  23.373 -0.0898 -0.1049  0.2533
 4134W        W47125  32.039  25.264   9.292  0.2728 -0.2014 -0.0148
 4135W        W47126   4.619  12.932  11.863  0.3909  0.0789 -0.0942
 4136W        W47127   4.061  31.510   7.596 -0.3916  0.0410 -0.1885
 4137W        W47128  22.914  14.000   9.506 -0.1208  0.2255  0.1139
 4138W        W47129  10.933  27.145   9.722  0.1180 -0.1235  0.0310
 4139W        W47130  23.060  23.048  23.871 -0.0277  0.3513 -0.1415
 4140W        W47131   4.178  24.686   3.214 -0.0140  0.3775 -0.1631
 4141W        W47132  19.156  26.996   3.772  0.1963  0.0436 -0.0615
 4142W        W47133  23.294   6.661   1.402 -0.1367 -0.3033 -0.0078
 4143W        W47134  13.552  10.203   0.462 -0.1209  0.1513  0.0613
 4144W        W47135   8.083  15.099  28.189 -0.0514  0.1170  0.1560
 4145W        W47136  26.131  25.409   6.159  0.2389  0.0067  0.1577
 4146W        W47137  18.568  12.325   7.006 -0.1744  0.3584 -0.3406
 4147W        W47138   2.547  27.724  25.844  0.4082  0.4868 -0.2141
 4148W        W47139  15.436  16.384  24.343 -0.0892  0.1774  0.1405
 4149W        W47140  15.709  15.147   2.646 -0.1825  0.3246 -0.0319
 4150W        W47141   8.563  15.878  17.848 -0.0623  0.1967  0.1067
 4151W        W47142   7.581  19.707   3.734  0.2173  0.0893 -0.0250
 4152W        W47143  21.679  21.424   2.111  0.0202 -0.1224 -0.0582
 4153W        W47144  33.095  28.726   2.636  0.1081  0.0653 -0.1959
 4154W        W47145  10.382  16.113  26.243 -0.0720 -0.0221 -0.3389
 4155W        W47146  33.646  26.265   0.323 -0.2748 -0.1469  0.2386
 4156W        W47147  12.602  29.195   3.073  0.2660 -0.1248  0.3047
 4157W        W47148  13.076  23.516   8.372 -0.0999  0.0283  0.0273
 4158W        W47149   8.200  23.641   8.835  0.0011 -0.2253  0.1843
 4159W        W47150  27.634  26.958   9.724  0.1168 -0.1456 -0.4233
 4160W        W47151   5.803  18.636  29.052 -0.0604  0.2457 -0.1122
 4161W        W47152   6.286   7.047   8.590  0.0516  0.1352  0.1968
 4162W        W47153  28.424  25.782  20.758  0.2312  0.0322  0.1319
 4163W        W47154  21.743  23.485   4.978  0.2637 -0.0911 -0.1096
 4164W        W47155  13.239  23.856   9.221  0.1612  0.3785  0.1015
 4165W        W47156   8.956  18.407   3.025  0.2256 -0.1765 -0.1191
 4166W        W47157  13.025   8.815   4.335 -0.1967  0.0072 -0.1023
 4167W        W47158  17.559  23.385   8.748  0.2876 -0.2026 -0.0227
 4168W        W47159   6.005  20.961   0.681  0.1041 -0.0317 -0.2606
 4169W        W47160  18.725  11.650  19.580  0.0078 -0.1486  0.1476
 4170W        W47161  22.842  28.251   4.181  0.1381  0.0070  0.5566
 4171W        W47162  10.557   7.334   2.715 -0.1272 -0.2627  0.0108
 4172W        W47163  23.774  17.424   9.125 -0.1140  0.1234  0.0821
 4173W        W47164   1.555  22.815   3.501 -0.0280 -0.1962  0.1281
 4174W        W47165   9.597  14.841  27.266 -0.2377  0.2217  0.0635
 4175W        W47166   1.575  20.648  29.016  0.0247  0.0637  0.0914
 4176W        W47167  12.532  17.401   7.635 -0.2123 -0.1247 -0.0573
 4177W        W47168  11.055  28.950  10.019 -0.3220  0.0224  0.1714
 4178W        W47169   8.002  14.841   4.928 -0.0563  0.4076 -0.2133
 4179W        W47170   6.709  21.707  10.164 -0.0556  0.0276 -0.0575
 4180W        W47171   8.433  12.573   0.714  0.1655  0.2580 -0.0129
 4181W        W47172  12.784  34.243   1.809 -0.2805  0.0476 -0.1188
 4182W        W47173  24.940  19.547   0.474 -0.0588  0.1036 -0.1559
 4183W        W47174  11.381  10.244   3.366  0.1301  0.2050 -0.2534
 4184W        W47175  13.320  23.242  23.293  0.1626  0.2582 -0.3318
 4185W        W47176  25.929  31.696   5.146 -0.2972  0.0750  0.1722
 4186W        W47177  14.336  23.029  27.050 -0.1413 -0.2039  0.1629
 4187W        W47178   7.471  14.595  28.440  0.1252  0.2341 -0.3560
 4188W        W47179  15.825  33.596   6.055  0.0977 -0.0475  0.2759
 4189W        W47180  16.356  14.810  26.832  0.0267  0.1287 -0.4079
 4190W        W47181   3.585  16.228  26.805 -0.1275  0.4533  0.0889
 4191W        W47182  13.370  20.565   9.255 -0.3865  0.3826  0.0063
 4192W        W47183  31.488  19.520  28.987 -0.1058 -0.1876  0.0832
 4193W        W47184  29.402  10.147   6.256 -0.1169 -0.1001  0.1023
 4194W        W47185   6.820   6.935  27.685  0.2613 -0.1414  0.0893
 4195W        W47186  26.412  22.079  25.801  0.0195 -0.2212 -0.2113
 4196W        W47187   6.608  26.982   6.347 -0.1498 -0.1527 -0.1800
 4197W        W47188   8.905   0.814  28.984 -0.1877  0.1316 -0.0071
 4198W        W47189   6.346  29.857  27.495 -0.1609 -0.2826 -0.1095
 4199W        W47190  13.704  19.606   0.623 -0.0979 -0.0885 -0.0185
 4200W        W47191  12.575   9.498  25.157 -0.1603  0.1419  0.0135
 4201W        W47192  24.258  10.112  25.254 -0.3266 -0.3708  0.1696
 4202W        W47193   8.961  25.829   2.356 -0.1618  0.2071  0.1935
 4203W        W47194  26.013  32.723   6.929 -0.4558  0.3384  0.0773
 4204W        W47195  23.727  10.237   6.828 -0.2392  0.0433  0.1462
 4205W        W47196   4.485  21.698   8.750  0.2720  0.1237 -0.1225
 4206W        W47197  33.842  15.781   1.830  0.1080 -0.1022  0.1256
 4207W        W47198   2.944   4.652  15.464 -0.2048  0.3857 -0.2507
 4208W        W47199   2.708  12.907  26.467  0.1212  0.2149 -0.0021
 4209W        W47200  23.547   0.779  29.053  0.2504  0.0574 -0.1160
 4210W        W47201  14.508  15.635  26.755  0.0276  0.1348 -0.1377
 4211W        W47202   5.618  17.084  27.724 -0.0807  0.1511 -0.1929
 4212W        W47203  15.882  16.155  23.963 -0.0699 -0.0276  0.0975
 4213W        W47204  33.730  18.177   1.378  0.0273 -0.2528  0.0811
 4214W        W47205  13.735  24.881  27.043  0.2555 -0.2853  0.1801
 4215W        W47206  24.481  14.782  25.891  0.2853 -0.2559  0.1344
 4216W        W47207  18.587   9.371  28.346  0.0850 -0.0625  0.2961
 4217W        W47208  17.730  13.049  25.897  0.2470  0.1164  0.0282
 4218W        W47209  25.699  21.156   9.668 -0.0215  0.0632 -0.4243
 4219W        W47210  26.828  12.961  22.582  0.0716 -0.4019  0.1203
 4220W        W47211  21.573   5.849   7.485 -0.1243 -0.0153 -0.0795
 4221W        W47212  13.750   6.625   6.869  0.1384 -0.2106  0.4180
 4222W        W47213  22.711  20.652   8.269 -0.1942 -0.1052 -0.0397
 4223W        W47214  18.737   9.646   5.525  0.0459 -0.3481 -0.1326
 4224W        W47215  10.071  24.064   9.204 -0.0597  0.2186 -0.1816
 4225W        W47216  21.276  19.541  23.592  0.1671 -0.0253  0.1483
 4226W        W47217   9.443  32.270  25.031  0.2842  0.1090  0.2497
 4227W        W47218   5.186  27.042   4.596 -0.0542  0.1645  0.3734
 4228W        W47219  16.928  23.222   9.741 -0.1071  0.0696  0.2671
 4229W        W47220  14.205  19.431   1.591  0.1982  0.2463  0.0064
 4230W        W47221  23.341  18.083   2.458  0.0502 -0.2796 -0.1682
 4231W        W47222   1.365  32.614   5.017  0.0577 -0.1522  0.0387
 4232W        W47223  27.474  16.404  19.597 -0.0531 -0.2348  0.1073
 4233W        W47224   0.091  15.102   0.004  0.0009  0.0958  0.1003
 4234W        W47225  28.293  24.496   1.332 -0.0547 -0.1824 -0.0006
 4235W        W47226  11.930  14.952   7.786  0.0363 -0.0513 -0.0662
 4236W        W47227  14.406   9.206  27.006  0.3506  0.1434  0.0421
 4237W        W47228  13.823  14.543   8.851  0.0924 -0.0097  0.3572
 4238W        W47229  28.518  18.496   9.973  0.0661 -0.2849  0.1825
 4239W        W47230  33.970  21.938   4.609 -0.0160 -0.0121 -0.0204
 4240W        W47231   5.917  18.692   6.518  0.0239  0.1989 -0.2139
 4241W        W47232   6.738   6.951   1.207  0.0282 -0.2001 -0.4410
 4242W        W47233   1.850  16.023   4.627  0.0173 -0.1476 -0.0003
 4243W        W47234   7.557  20.556   1.944  0.0713  0.0388  0.1049
 4244W        W47235  22.207  17.834   6.443  0.3704  0.1126  0.1731
 4245W        W47236  18.027  22.569  26.120 -0.1561 -0.0136  0.1242
 4246W        W47237  22.948  27.892   4.603  0.1617 -0.3386  0.1414
 4247W        W47238  20.122  24.940   5.797 -0.1476 -0.1838 -0.0547
 4248W        W47239  10.194  17.251   0.910  0.1455 -0.1347 -0.1563
 4249W        W47240   9.593  20.900   9.383  0.1303 -0.1871 -0.0547
 4250W        W47241  16.842  24.531   9.779 -0.1132  0.2413 -0.2005
 4251W        W47242   6.034   8.135   5.430  0.0263  0.1705 -0.2141
 4252W        W47243  10.430  14.660   6.210  0.1035 -0.1302  0.1511
 4253W        W47244  26.212  19.405  27.069  0.2927 -0.0663  0.0352
 4254W        W47245  32.952  20.820   3.656 -0.0858  0.0352  0.1638
 4255W        W47246  17.458  29.426  25.365 -0.1932 -0.0462 -0.0094
 4256W        W47247   9.984  10.824   0.674 -0.0844 -0.2355  0.1093
 4257W        W47248   3.998  23.640  27.368 -0.0397 -0.0778  0.2628
 4258W        W47249   5.840  19.230   8.116 -0.0290 -0.1964 -0.1714
 4259W        W47250  23.871  13.570  25.827  0.1703 -0.2607  0.0128
 4260W        W47251  20.181  31.511  25.102 -0.0531  0.0048  0.1546
 4261W        W47252  30.695  25.031  29.219  0.0948 -0.1577 -0.0360
 4262W        W47253  28.813  18.692  29.056 -0.0946  0.1480 -0.2304
 4263W        W47254   7.852  13.063  10.458 -0.1944 -0.2528  0.2295
 4264W        W47255   2.352   3.856   2.199  0.1567 -0.0855  0.1841
 4265W        W47256  11.805   9.941   2.765  0.0143 -0.0205 -0.1095
 4266W        W47257  19.430  14.149  20.367  0.1178  0.0650  0.0746
 4267W        W47258   9.359  10.129   5.048 -0.2570 -0.1487 -0.0629
 4268W        W47259  17.332  25.165  17.215  0.1856  0.2536  0.1582
 4269W        W47260  10.643  13.218  11.027 -0.1821  0.3064 -0.0007
 4270W        W47261  16.797  12.452   5.684 -0.3582  0.0613  0.4166
 4271W        W47262  30.847  16.170   5.637  0.0339  0.0223 -0.1992
 4272W        W47263  22.862  16.744   3.509  0.1077 -0.0879 -0.1649
 4273W        W47264  25.416  14.707  28.632 -0.0719 -0.2061  0.1929
 4274W        W47265  31.333  14.151   9.115 -0.1280 -0.0553  0.3719
 4275W        W47266  19.089  15.851  27.581 -0.0083  0.0249  0.1167
 4276W        W47267  14.264  22.528   4.499 -0.2344 -0.0282 -0.1563
 4277W        W47268  24.067  11.561  29.176  0.1537 -0.1543 -0.0009
 4278W        W47269  11.330  13.086  26.483  0.1718 -0.2366  0.0884
 4279W        W47270  11.319  30.162   3.635 -0.0309  0.2512  0.2903
 4280W        W47271   5.803  26.350   9.686 -0.0132 -0.1696 -0.0417
 4281W        W47272  11.173  21.710   7.767  0.0037  0.0724  0.0697
 4282W        W47273   5.777  28.130   8.312 -0.0255 -0.0651 -0.0232
 4283W        W47274  17.323  10.542  22.493  0.0916 -0.0158  0.3794
 4284W        W47275   7.640   3.779  24.385  0.3781  0.1616 -0.1838
 4285W        W47276  27.161  13.890   5.390 -0.1473 -0.0826  0.2211
 4286W        W47277   6.829  14.456   6.216  0.0228  0.0466 -0.0727
 4287W        W47278  13.603  12.657   8.578  0.0425  0.1824 -0.1833
 4288W        W47279  15.081  30.540   9.524 -0.0909 -0.1083  0.1703
 4289W        W47280  16.546  18.080   6.364  0.2137 -0.0375 -0.0972
 4290W        W47281  11.872  29.410  27.599  0.1358 -0.0174  0.0653
 4291W        W47282  14.184  18.199   9.236 -0.1379  0.1947  0.0372
 4292W        W47283  17.473  12.620  25.650  0.1581 -0.0758 -0.0998
 4293W        W47284  28.982   8.498  29.228 -0.2131 -0.1452 -0.1104
 4294W        W47285   4.021   5.715   0.428 -0.6327 -0.0328  0.0509
 4295W        W47286  20.352  19.973   6.071 -0.1086 -0.0739 -0.1639
 4296W        W47287  31.677  16.453   2.675 -0.4634  0.0792 -0.3707
 4297W        W47288   7.867   5.036   6.449  0.1967  0.1502 -0.1917
 4298W        W47289   4.144  24.279  18.166 -0.1986 -0.0338  0.1504
 4299W        W47290   8.007  14.276  11.245 -0.1103  0.1376  0.0052
 4300W        W47291   7.669  25.262   4.190 -0.0100 -0.2842 -0.0038
 4301W        W47292  16.248  10.633   0.937 -0.1730 -0.2749  0.3328
 4302W        W47293  11.770  31.613   6.069 -0.0963  0.0021  0.0519
 4303W        W47294   5.144  22.859  10.027  0.0306 -0.0859 -0.0830
 4304W        W47295  33.852  19.568  10.037 -0.0102 -0.0577  0.1123
 4305W        W47296  17.886  18.123   6.170 -0.1002 -0.0453  0.2933
 4306W        W47297   6.712  21.747   0.859  0.0772  0.0420 -0.1280
 4307W        W47298  18.147  24.269  26.564 -0.2904  0.3034  0.2309
 4308W        W47299  18.399  32.453   2.423  0.0682  0.2995  0.0985
 4309W        W47300  16.660  15.320   8.004  0.1086 -0.4011  0.3283
 4310W        W47301  15.252  23.424   6.549 -0.3157  0.2912 -0.2947
 4311W        W47302  14.506  21.602  28.210 -0.2046  0.0776 -0.0778
 4312W        W47303  20.351  14.008   1.729  0.0570 -0.3519  0.1280
 4313W        W47304  11.033  33.570   8.725  0.1369 -0.2337 -0.0745
 4314W        W47305  18.760  26.939   1.265  0.0631  0.2000  0.1030
 4315W        W47306  24.810  33.116  24.364  0.1649 -0.1262  0.0728
 4316W        W47307  10.245  10.968   8.132 -0.1133  0.1948 -0.2590
 4317W        W47308   9.608  17.082   3.895  0.0186 -0.0202  0.0272
 4318W        W47309  26.106  21.192   9.233  0.0571 -0.0519  0.3450
 4319W        W47310  28.772   0.464  22.280  0.0844  0.3972 -0.0281
 4320W        W47311  17.356  18.440   4.744 -0.0260 -0.3494  0.0889
 4321W        W47312  18.114  10.620   0.836 -0.0276 -0.1530 -0.0749
 4322W        W47313  18.447   7.387   7.061  0.0136  0.0271 -0.1171
 4323W        W47314  10.766  16.543  27.873 -0.0895 -0.3597 -0.0591
 4324W        W47315  15.088  13.279   3.261 -0.1799 -0.1351 -0.0706
 4325W        W47316   4.807  22.927  28.421 -0.0509 -0.0553  0.0855
 4326W        W47317  22.995  25.560   2.246 -0.1175  0.0128  0.2889
 4327W        W47318  17.896   7.906  26.529  0.0113  0.0851  0.0238
 4328W        W47319  31.183  17.077   5.701  0.3161 -0.2126  0.0349
 4329W        W47320   9.479   6.900  19.511  0.1666 -0.1743 -0.1785
 4330W        W47321  20.196  10.753  29.197  0.1297  0.1079  0.2876
 4331W        W47322   3.231   5.163  10.147 -0.0658 -0.0711 -0.0521
 4332W        W47323  14.070  34.679  28.605 -0.2172 -0.0489  0.4527
 4333W        W47324  31.304  13.351   7.044  0.3292  0.2364 -0.1952
 4334W        W47325  16.943  15.388   1.601 -0.0355 -0.2158  0.4196
 4335W        W47326  11.481   8.391   5.672  0.0038  0.1655 -0.0472
 4336W        W47327  18.440  22.471   8.179 -0.1558 -0.0670 -0.1127
 4337W        W47328  12.845  32.272   5.197 -0.0143 -0.1977 -0.1757
 4338W        W47329  19.778  18.039  28.919 -0.1644 -0.3591  0.0271
 4339W        W47330  16.076  11.200   3.477  0.1017  0.2306 -0.1660
 4340W        W47331  19.644  10.687   2.492 -0.2264  0.0083  0.0381
 4341W        W47332   7.368  28.559   6.926 -0.0836  0.2905 -0.1461
 4342W        W47333  22.424  27.399  26.683  0.1364 -0.1204 -0.2301
 4343W        W47334  20.122  12.313   1.462 -0.2183  0.1409 -0.1951
 4344W        W47335  11.953  32.613  22.053  0.1069 -0.0724 -0.1217
 4345W        W47336  17.953  21.619   1.586 -0.0808  0.0897  0.3644
 4346W        W47337  18.896   3.413  26.858 -0.0928  0.0986  0.2541
 4347W        W47338  24.320  32.068   8.579  0.2739  0.5715 -0.1359
 4348W        W47339  15.809   7.153  10.954 -0.1520 -0.4011 -0.1256
 4349W        W47340   3.323  17.371  25.314  0.3267  0.1464  0.1370
 4350W        W47341  27.791   4.942   7.865 -0.0659 -0.3341 -0.2515
 4351W        W47342   0.674  19.703  26.736  0.0841  0.2815  0.1138
 4352W        W47343  33.881   0.667   7.962  0.4217  0.1519 -0.1057
 4353W        W47344  13.714  22.322   9.936  0.0724 -0.1654  0.1198
 4354W        W47345  23.026  25.547   3.668  0.0049  0.3356 -0.2193
 4355W        W47346  10.057  12.759  10.745  0.0900  0.1763 -0.2919
 4356W        W47347  14.430  18.185   8.205 -0.2409  0.1901  0.0410
 4357W        W47348  20.001  25.745  25.621  0.1686  0.0603  0.2318
 4358W        W47349  12.063  14.932   5.374 -0.0802 -0.2374 -0.1179
 4359W        W47350  12.183  16.360  26.946  0.1814  0.1178 -0.1226
 4360W        W47351  16.949  14.163  23.785  0.1820  0.2603 -0.1277
 4361W        W47352   8.758  25.290   5.582  0.1702 -0.0863  0.0490
 4362W        W47353  18.494  15.875   1.894 -0.1416 -0.0873 -0.0723
 4363W        W47354  31.840   1.328   3.425  0.4119 -0.1003  0.0575
 4364W        W47355  24.503  30.890   6.966 -0.1118  0.4665  0.2254
 4365W        W47356  19.156  23.179  27.574  0.1916 -0.1203  0.3259
 4366W        W47357  13.228  28.134   7.526  0.0677  0.0476  0.0606
 4367W        W47358  21.720   8.310   1.454  0.1841  0.0173 -0.0158
 4368W        W47359  15.540  22.714   6.743 -0.2932  0.0717  0.3508
 4369W        W47360  15.394  18.779  24.207 -0.1016 -0.1572 -0.0782
 4370W        W47361  22.509  18.022   8.013 -0.1587 -0.1033  0.0073
 4371W        W47362  15.032   8.430   6.266 -0.0902  0.1805 -0.1013
 4372W        W47363  14.640  22.639  17.943  0.2640  0.3130  0.0145
 4373W        W47364   6.403  29.558   2.349 -0.1685 -0.1876 -0.1929
 4374W        W47365  12.129  16.951   8.949  0.1799 -0.0065  0.2938
 4375W        W47366  27.743   5.090   4.096  0.2058 -0.1675  0.1839
 4376W        W47367   9.929   6.211  22.339 -0.2111  0.1104  0.2299
 4377W        W47368  10.952  15.826   7.466  0.1698  0.0680  0.1379
 4378W        W47369  12.160  16.462   9.107 -0.3738 -0.0069 -0.2337
 4379W        W47370   9.432   8.615   7.815  0.0375 -0.0707 -0.2177
 4380W        W47371  19.325   8.281   2.959 -0.2647  0.0044 -0.0065
 4381W        W47372  21.045  13.252  29.261  0.2050  0.1531 -0.2603
 4382W        W47373  12.199  11.290   5.750 -0.0627  0.0508 -0.3450
 4383W        W47374   2.725  28.843  19.929  0.1046  0.3191 -0.0902
 4384W        W47375  13.567   8.647   8.880 -0.1475  0.0164  0.0555
 4385W        W47376   6.291  17.836   3.501  0.1723 -0.0074 -0.0835
 4386W        W47377   9.174  21.550   6.779 -0.0263 -0.2240  0.0269
 4387W        W47378  19.814  12.971   8.964  0.0227  0.2944 -0.1009
 4388W        W47379  17.353  28.341  26.384  0.1529  0.2299 -0.3532
 4389W        W47380  29.406  19.467   5.379  0.0130  0.3361  0.0854
 4390W        W47381  17.566  23.747   1.497 -0.0503 -0.0290  0.5767
 4391W        W47382   8.738  21.322   9.117  0.2196  0.0621 -0.0588
 4392W        W47383  26.853  22.793   6.642 -0.2321  0.1872 -0.0733
 4393W        W47384  32.508  26.884   4.741  0.0406  0.0755 -0.2907
 4394W        W47385  15.342  20.365   0.722 -0.0995 -0.2349 -0.0232
 4395W        W47386   6.664  17.982  25.924  0.2268 -0.3293  0.1920
 4396W        W47387  10.350  18.653   6.006 -0.0349  0.0584  0.2095
 4397W        W47388   8.876  30.075  19.033  0.1865  0.0208  0.4836
 4398W        W47389  21.805  25.954   8.649  0.0024  0.0128 -0.0406
 4399W        W47390  30.663  28.359  28.358 -0.2353 -0.3403  0.4094
 4400W        W47391  10.422  27.042  26.813 -0.2816 -0.0136  0.0089
 4401W        W47392  12.152  21.732   1.716 -0.0293 -0.2170 -0.1724
 4402W        W47393  16.649  15.866  23.296 -0.2642 -0.1896 -0.5303
 4403W        W47394  16.372   9.049  10.251  0.0238  0.1806 -0.1009
 4404W        W47395   7.411  18.458   6.262  0.0178  0.2428 -0.1584
 4405W        W47396   5.123  24.202  29.186  0.0148 -0.1802 -0.0835
 4406W        W47397   0.297  19.184   1.441 -0.1414  0.1883  0.2794
 4407W        W47398  24.507  15.258   9.919 -0.1881 -0.1131 -0.1648
 4408W        W47399  14.946  11.631  22.192 -0.0885  0.2553 -0.0380
 4409W        W47400  30.339  21.097  10.905 -0.2123  0.0469  0.0568
 4410W        W47401  22.121  16.046   9.274  0.4475 -0.1289 -0.1635
 4411W        W47402   2.024  30.024   5.175  0.0420 -0.2292  0.1555
 4412W        W47403  25.417  15.474  19.410  0.0203 -0.0061  0.0116
 4413W        W47404  16.469  22.225  25.582 -0.2384 -0.0396  0.0953
 4414W        W47405   5.686  15.940   4.684 -0.0348 -0.0521 -0.3773
 4415W        W47406   8.037  24.964  27.174  0.1204 -0.1785 -0.2299
 4416W        W47407  15.834  23.134   3.050 -0.2578 -0.3066  0.1967
 4417W        W47408   1.918  17.190   9.617  0.2724 -0.2684  0.1759
 4418W        W47409  17.487  32.039  17.456 -0.2134  0.1366  0.1042
 4419W        W47410   5.920  25.066   9.190 -0.1959 -0.1156 -0.3527
 4420W        W47411  17.076  19.475   1.645 -0.1460 -0.0053  0.0774
 4421W        W47412   4.066   2.113   9.523  0.0550 -0.1868  0.1120
 4422W        W47413   8.743  15.014  10.345 -0.2504  0.1359 -0.0006
 4423W        W47414  10.445  14.784   1.383  0.1944 -0.0508  0.2363
 4424W        W47415  10.345  20.269   8.475 -0.1681  0.1746 -0.1581
 4425W        W47416   5.545  20.240   6.613  0.1250 -0.2208 -0.0775
 4426W        W47417  20.915  12.114   7.818 -0.3100 -0.2119  0.0219
 4427W        W47418  15.909  29.356   5.997  0.1926  0.3617  0.4279
 4428W        W47419   9.524  14.780   7.509  0.1278 -0.3824  0.2571
 4429W        W47420  15.399  13.313  27.624 -0.1453  0.1723  0.2175
 4430W        W47421   0.417  31.340  23.372  0.1172  0.2661  0.1453
 4431W        W47422  11.333   9.765   0.318  0.3238 -0.0299 -0.3270
 4432W        W47423  26.612  32.827  28.096  0.2591 -0.1055 -0.1076
 4433W        W47424  32.489  20.971  28.964  0.1494  0.3384  0.1184
 4434W        W47425  25.640  12.559   9.611  0.3015  0.0241 -0.1228
 4435W        W47426  12.687  11.879   5.998 -0.2256  0.0507 -0.1537
 4436W        W47427   9.151   9.623   6.356  0.0982  0.1120 -0.1584
 4437W        W47428  23.409   4.772   8.536 -0.0100  0.1038 -0.0224
 4438W        W47429  12.782  27.572   8.332 -0.2428  0.4240 -0.1963
 4439W        W47430   4.010  18.288  24.710 -0.2214  0.3108  0.1420
 4440W        W47431  18.256  20.196   1.877  0.0590 -0.3682 -0.0767
 4441W        W47432  10.242  10.076   5.401 -0.0583 -0.1651  0.1840
 4442W        W47433   3.140  12.617   2.700  0.1213  0.5732  0.1015
 4443W        W47434  11.985   6.484   4.717 -0.0740 -0.1268 -0.0660
 4444W        W47435   6.915  12.204   0.078  0.1098  0.2906 -0.2500
 4445W        W47436  11.989   0.009   2.690 -0.0565 -0.1223 -0.2700
 4446W        W47437   8.574  28.100   7.169 -0.0234 -0.0332  0.0220
 4447W        W47438  24.642  26.036   6.442  0.2976 -0.2448  0.0351
 4448W        W47439   4.992  20.454   0.834 -0.2429 -0.3812  0.0862
 4449W        W47440   7.773  14.980  28.575  0.0164 -0.2618  0.3484
 4450W        W47441  12.355   7.540   3.171  0.0811  0.2794  0.0567
 4451W        W47442  24.895  20.846   5.647  0.4657  0.2395 -0.0200
 4452W        W47443  13.068  21.143   2.595  0.0798  0.0499 -0.1699
 4453W        W47444   6.696  32.768   4.834  0.1002 -0.1748 -0.3536
 4454W        W47445  34.718   8.174  21.843  0.0493  0.1390 -0.3402
 4455W        W47446   3.869  21.684  27.738 -0.2024  0.1219 -0.3156
 4456W        W47447  10.130  10.365  26.442 -0.1019  0.2801  0.1458
 4457W        W47448  23.849  26.117   5.696 -0.2308 -0.0735  0.0911
 4458W        W47449  24.771  18.236   5.227 -0.0805 -0.0287 -0.1926
 4459W        W47450  14.983  14.720   5.802 -0.1960 -0.1814 -0.0654
 4460W        W47451   6.037  25.332   5.560 -0.0956  0.2551  0.1470
 4461W        W47452  25.553  26.534  23.217  0.4927 -0.0580  0.0911
 4462W        W47453   3.592   6.075  26.437  0.2002  0.0073  0.0801
 4463W        W47454  10.895  19.221   8.452  0.1830  0.1491 -0.3715
 4464W        W47455  16.068   7.841   5.406 -0.2994 -0.2367 -0.0391
 4465W        W47456  22.377  28.466  27.608 -0.3108 -0.2598 -0.1363
 4466W        W47457  10.542  25.286   4.792  0.1462 -0.4218 -0.0523
 4467W        W47458  24.318   6.284  24.730  0.1192  0.1051  0.1582
 4468W        W47459  13.846  16.676  27.364  0.1506  0.0312 -0.0007
 4469W        W47460  33.025  17.288   5.388 -0.3492 -0.1954  0.0320
 4470W        W47461  31.759  20.857   7.774  0.0027  0.0216 -0.0143
 4471W        W47462  22.602   4.286  22.848 -0.0034  0.2556 -0.2625
 4472W        W47463  17.202  10.264  28.297  0.2349 -0.0351 -0.5969
 4473W        W47464  27.715   8.153   2.391  0.0273 -0.0272  0.0597
 4474W        W47465  18.609  16.867   4.894  0.0431  0.2515 -0.1704
 4475W        W47466   9.961  19.310   9.043  0.0901  0.1461  0.3455
 4476W        W47467  13.625  11.815   9.547  0.1061  0.1126 -0.4125
 4477W        W47468  22.348  14.931   6.537  0.3874 -0.4280  0.0973
 4478W        W47469  12.580  27.211   6.607  0.2367 -0.3574 -0.0645
 4479W        W47470  11.095  24.036  22.708 -0.0545 -0.3542  0.0681
 4480W        W47471  11.262  21.060   2.702  0.1246 -0.2749 -0.0847
 4481W        W47472  20.327  12.495   3.467  0.2053  0.1331 -0.1460
 4482W        W47473  11.221  24.481   6.242  0.0663 -0.2275 -0.0627
 4483W        W47474   9.635  26.914   9.124  0.1001 -0.2228  0.0772
 4484W        W47475  15.033  14.979  28.724  0.0721 -0.1286  0.0726
 4485W        W47476  20.442  31.333   4.104 -0.0103 -0.0703 -0.3595
 4486W        W47477   6.871  32.537   8.209 -0.0093 -0.1765  0.0068
 4487W        W47478  24.428  20.092  25.446 -0.1571 -0.1565  0.0101
 4488W        W47479   2.845  25.977   6.939 -0.1842  0.1646  0.0030
 4489W        W47480  34.532   9.584   8.989  0.2652  0.1783  0.2634
 4490W        W47481   0.048  17.274   4.446  0.1090 -0.1134  0.1547
 4491W        W47482  17.641   8.036   6.231  0.0414  0.1517 -0.2605
 4492W        W47483  13.108  25.210   3.743 -0.1751 -0.0509 -0.0542
 4493W        W47484  33.578  32.285   9.505 -0.0174 -0.0180 -0.1972
 4494W        W47485  18.980  33.472   0.412 -0.1044 -0.1520 -0.2674
 4495W        W47486  18.747  24.633  18.491  0.5062 -0.1068  0.0636
 4496W        W47487  16.651   4.450   0.225 -0.0497 -0.3032 -0.0944
 4497W        W47488  14.526   4.354   7.720  0.1074  0.0894  0.0134
 4498W        W47489  14.972  14.095   7.853  0.2996 -0.2305  0.0101
 4499W        W47490  10.352   8.787  18.363 -0.1667  0.1466  0.2433
 4500W        W47491  32.667  23.160   1.062  0.4610 -0.1987  0.1743
 4501W        W47492  11.986  22.631   8.465  0.0060  0.0523  0.0043
 4502W        W47493  13.237  16.106  22.344 -0.0262 -0.2726 -0.0983
 4503W        W47494  18.619   8.742   7.683 -0.0113  0.1990 -0.1709
 4504W        W47495  33.714  20.699   1.296  0.0930 -0.0630  0.0656
 4505W        W47496   8.840  22.305   5.310  0.3239 -0.0501 -0.1100
 4506W        W47497  17.888  22.964   3.982 -0.5528  0.1954 -0.0400
 4507W        W47498  21.208   8.800   3.127  0.2424 -0.0500 -0.1439
 4508W        W47499  15.018  24.371   9.255  0.2632 -0.1053 -0.1740
 4509W        W47500  10.903  14.503  24.185  0.0916  0.2970 -0.0722
 4510W        W47501   3.821   8.597   3.698  0.1465 -0.2987  0.0303
 4511W        W47502   7.805  27.127  23.945  0.1649  0.0640 -0.4544
 4512W        W47503  19.903  29.456   8.720 -0.1663  0.0188  0.0175
 4513W        W47504  27.830  29.018  28.429 -0.0688  0.3006  0.0378
 4514W        W47505   5.930  19.463   1.048 -0.0281 -0.0312 -0.3384
 4515W        W47506  13.758  23.403   1.066 -0.1968 -0.3010  0.2644
 4516W        W47507   8.568  20.695  25.312 -0.0953  0.2068 -0.1988
 4517W        W47508   1.443   4.100  28.702 -0.3138  0.2109 -0.4985
 4518W        W47509  16.547  20.002   3.619  0.0224 -0.0694  0.0309
 4519W        W47510  13.370  15.128  22.905  0.0166  0.0914 -0.1283
 4520W        W47511  20.992   9.370   6.100 -0.1495 -0.2213  0.2320
 4521W        W47512  22.646  22.472   6.430  0.4328  0.2313  0.1785
 4522W        W47513  23.312  23.040   7.963 -0.1181  0.0445 -0.2208
 4523W        W47514  11.234  20.895   6.079  0.0899 -0.0020  0.2230
 4524W        W47515  13.891   1.847   6.970  0.3415  0.0256 -0.3370
 4525W        W47516   7.852  16.348   7.943 -0.2709 -0.1135  0.1389
 4526W        W47517   6.194  19.203   1.486 -0.0401 -0.2646 -0.1085
 4527W        W47518   5.468  21.567   0.128  0.0895  0.0540 -0.0996
 4528W        W47519   6.572  25.715  18.377 -0.1725  0.0454 -0.0803
 4529W        W47520  20.689  15.402   8.554  0.4159 -0.2560  0.2596
 4530W        W47521  14.066  21.680   9.132  0.0768  0.3084 -0.0700
 4531W        W47522   6.197  26.605   3.401  0.1049  0.1131  0.1528
 4532W        W47523  27.855  28.023  25.615  0.2591 -0.3193  0.1850
 4533W        W47524  21.327  16.229   7.483  0.0514  0.1137  0.0670
 4534W        W47525   2.804  17.743   6.663 -0.0973 -0.1213  0.0057
 4535W        W47526   3.060  17.940   5.226  0.3621 -0.4956 -0.2379
 4536W        W47527  16.334   2.230   1.373 -0.3945  0.2794 -0.1572
 4537W        W47528  18.391   9.739   4.360  0.2229  0.0300  0.1669
 4538W        W47529  13.922   7.489   1.002  0.0834 -0.0980 -0.1958
 4539W        W47530   5.855   3.704  28.703  0.1675 -0.2627  0.0120
 4540W        W47531  31.767  30.986   4.960  0.1085 -0.0368  0.1122
 4541W        W47532   5.165  22.490  22.814  0.1720  0.1124  0.0333
 4542W        W47533  19.818  29.195  25.663  0.0314 -0.1697 -0.0396
 4543W        W47534   7.647  31.039  23.420 -0.1206 -0.2082 -0.1177
 4544W        W47535   9.056  25.907   4.139 -0.0279  0.0776 -0.2385
 4545W        W47536  23.866  21.226  23.380  0.2596 -0.0259  0.0939
 4546W        W47537  10.796  19.265   6.653 -0.2679 -0.0790  0.2958
 4547W        W47538  21.039  25.372   5.907  0.4244  0.2210  0.6553
 4548W        W47539   8.178  30.941  20.792  0.1939  0.1940  0.1283
 4549W        W47540   0.399   7.679   4.033 -0.0874  0.1204 -0.1632
 4550W        W47541   1.189  23.437  20.496 -0.0838  0.3316 -0.3195
 4551W        W47542  16.688  27.831  25.736  0.0744 -0.0828  0.5561
 4552W        W47543  26.720  24.028  26.803  0.2926  0.0337 -0.0213
 4553W        W47544   3.757  17.753  27.149  0.0976  0.0040  0.3175
 4554W        W47545   8.046   0.208   5.287 -0.0316 -0.1306 -0.2675
 4555W        W47546   3.689  27.953  24.111 -0.3228 -0.2567  0.1903
 4556W        W47547  24.772  22.386   6.491  0.1359 -0.0124 -0.1098
 4557W        W47548  13.091   5.888  18.341 -0.2670 -0.0015  0.2186
 4558W        W47549   2.660   5.206   9.510  0.1311  0.0526  0.1202
 4559W        W47550  21.367   8.338  14.801 -0.3042 -0.2452  0.2107
 4560W        W47551  15.050  28.805  17.635 -0.1156 -0.1183 -0.2277
 4561W        W47552   8.779  30.866   8.921  0.4499  0.1635  0.1429
 4562W        W47553  15.218  27.189   2.987 -0.0420 -0.1047 -0.0868
 4563W        W47554  30.965  27.199  25.156 -0.3033  0.1594  0.1977
 4564W        W47555   6.853  22.212   4.296  0.1280 -0.2601  0.0944
 4565W        W47556   8.537  22.850   1.956 -0.1244  0.0214 -0.1214
 4566W        W47557  33.402  24.585   9.297 -0.2095  0.1254  0.1403
 4567W        W47558  12.982  29.429  16.893 -0.1549 -0.2303  0.1373
 4568W        W47559  19.245  14.967  25.901  0.1309  0.1192  0.2631
 4569W        W47560  23.575  29.679   6.541 -0.0152  0.0970  0.1440
 4570W        W47561  13.126  30.238   6.650  0.1523  0.4060 -0.1355
 4571W        W47562   4.696  20.875  26.756 -0.1606  0.0977  0.2645
 4572W        W47563  30.543   6.836   7.539 -0.1449  0.5242  0.0575
 4573W        W47564  19.093  18.456   0.428 -0.0799  0.2565  0.0427
 4574W        W47565   8.436  21.688  28.336 -0.2167 -0.1803  0.1295
 4575W        W47566  13.709  31.056   2.512  0.0446 -0.0104  0.0938
 4576W        W47567  12.760  23.514   4.591  0.2029 -0.0709 -0.1697
 4577W        W47568   1.997   1.945  27.078  0.5342 -0.0016  0.2355
 4578W        W47569   8.747  22.929   3.832  0.1798  0.3743  0.1070
 4579W        W47570   8.192  30.688  27.103  0.1541 -0.1933 -0.3665
 4580W        W47571  11.106  17.401  19.294 -0.0862  0.0087 -0.2385
 4581W        W47572  29.135  22.455  20.400  0.0799  0.0807 -0.0907
 4582W        W47573  11.921  30.701   7.298  0.0847  0.0372 -0.1547
 4583W        W47574   4.932  12.920  21.616  0.0182 -0.0356  0.2152
 4584W        W47575  33.635  20.293   9.558 -0.0444 -0.1260 -0.1167
 4585W        W47576  16.002  34.429  23.663 -0.1641 -0.1987  0.0231
 4586W        W47577  15.016  27.489   6.692  0.0828 -0.1852 -0.1978
 4587W        W47578  14.277  18.478   1.775  0.0012  0.0652 -0.0223
 4588W        W47579   8.884  32.270   5.831 -0.0142  0.0285  0.1281
 4589W        W47580  23.855  21.580   6.433 -0.0920  0.1916 -0.1364
 4590W        W47581  18.240   3.453   9.980 -0.0612 -0.2091  0.0794
 4591W        W47582   4.656  24.061  29.124 -0.2080  0.0355 -0.3417
 4592W        W47583   6.855  25.903  15.252 -0.1476  0.2316 -0.1911
 4593W        W47584   4.170  34.102   6.624  0.1513  0.1288 -0.2550
 4594W        W47585  14.728  15.672   0.462 -0.2248 -0.1934 -0.3196
 4595W        W47586  31.380  18.900  28.200  0.0241  0.1337 -0.0974
 4596W        W47587  24.123  24.587  27.054  0.0854  0.0371  0.3309
 4597W        W47588   9.369  28.899  26.573  0.1082 -0.1166  0.3231
 4598W        W47589  26.215  21.368   1.557  0.0194 -0.0763  0.0133
 4599W        W47590   8.703  20.724  23.795  0.0288  0.0588  0.1906
 4600W        W47591  15.796  23.060   3.561 -0.1665 -0.0376  0.2205
 4601W        W47592   4.562  32.816  22.896 -0.0633  0.5185  0.0644
 4602W        W47593  21.377  14.056  19.908 -0.0441 -0.2630  0.3625
 4603W        W47594  22.427  24.674   2.585  0.2376 -0.1867 -0.2224
 4604W        W47595  23.803  26.588  17.740  0.2245  0.2700  0.1213
 4605W        W47596  20.040  31.040   7.981 -0.4040  0.0669  0.1648
 4606W        W47597  13.909  19.522  17.296 -0.1182 -0.3729  0.1314
 4607W        W47598  15.774  13.112   1.207  0.0804 -0.0384 -0.0101
 4608W        W47599  20.593  13.086  13.340 -0.0602 -0.2327 -0.0041
 4609W        W47600  19.200   7.161   2.742  0.1825 -0.0010 -0.2497
 4610W        W47601   1.422  19.942  10.041  0.3596 -0.0604  0.1313
 4611W        W47602  10.436  29.488   9.517  0.2383 -0.0377 -0.0586
 4612W        W47603  12.565  18.308   1.051 -0.1925  0.1216 -0.0333
 4613W        W47604  15.373  16.592  14.844  0.2579  0.0573  0.2237
 4614W        W47605   5.563  27.583  21.142  0.0062 -0.0766 -0.4496
 4615W        W47606  11.002  26.921  18.698  0.0424  0.2369  0.0312
 4616W        W47607  23.350  10.707   9.100  0.2848 -0.0850  0.0046
 4617W        W47608  16.345  17.555  26.660 -0.0479 -0.1156  0.0904
 4618W        W47609  32.984  32.283  13.968  0.2537 -0.0470 -0.1353
 4619W        W47610  14.305  22.927  29.155 -0.1145 -0.0728 -0.0667
 4620W        W47611   1.098  29.651   4.098 -0.2669  0.5176 -0.0297
 4621W        W47612   5.895  22.660  19.369 -0.0407  0.3497 -0.1687
 4622W        W47613  19.355  30.012  25.018  0.0006  0.0428  0.3182
 4623W        W47614  25.487  22.869  20.067  0.4843  0.4984 -0.0556
 4624W        W47615   7.085  13.561  10.912 -0.2601 -0.1360 -0.1120
 4625W        W47616  19.534  30.952   8.658  0.1362 -0.0231 -0.0983
 4626W        W47617  29.885  29.776  13.165  0.0146  0.2381  0.2884
 4627W        W47618  16.735  23.065  27.632 -0.0779 -0.0132  0.2377
 4628W        W47619  27.101  25.246  15.685  0.0936  0.0833 -0.1454
 4629W        W47620  18.361  21.547  14.157  0.2666 -0.0812 -0.1045
 4630W        W47621  28.339  11.899   8.197 -0.2619 -0.0384 -0.3426
 4631W        W47622  24.828  23.165  21.715 -0.2962  0.0826  0.2459
 4632W        W47623   9.214  28.523  19.024  0.0462 -0.3782  0.0544
 4633W        W47624  18.699   0.578  28.471  0.0129  0.1479 -0.0783
 4634W        W47625   2.822  23.225   7.874 -0.2250 -0.3219  0.0113
 4635W        W47626  14.475  29.478   2.122 -0.1370  0.1678 -0.2017
 4636W        W47627   0.500  12.223   0.680 -0.1136 -0.1865  0.2489
 4637W        W47628  27.468  25.492   6.912  0.1899  0.1959 -0.0011
 4638W        W47629   1.954  14.559  24.334  0.1492  0.1721  0.2226
 4639W        W47630  17.883  24.900  24.951  0.0597  0.1404  0.1102
 4640W        W47631   2.298  20.066  29.100  0.2995 -0.5595  0.2278
 4641W        W47632  25.462   2.964  17.122 -0.1863 -0.0829  0.3774
 4642W        W47633   9.626  14.486   8.858 -0.1906  0.1438  0.1442
 4643W        W47634  17.561  21.105   2.320 -0.1855  0.0971  0.2320
 4644W        W47635  13.904  22.222   7.722 -0.0687  0.2115  0.0868
 4645W        W47636  28.870  11.520   9.639 -0.3579  0.3105  0.1295
 4646W        W47637   3.626  16.522  29.187 -0.0271 -0.2023  0.0936
 4647W        W47638  22.087  16.472  27.363 -0.0948  0.1834 -0.0600
 4648W        W47639   2.957   6.740  26.081  0.2036 -0.2054 -0.4046
 4649W        W47640  25.709  25.905  20.621 -0.2466 -0.1679  0.0609
 4650W        W47641  31.270   6.560   0.274 -0.0070  0.0342  0.0950
 4651W        W47642   7.000  23.360   5.886  0.3084 -0.0288 -0.2121
 4652W        W47643  17.864  27.674  10.311  0.4188 -0.2998  0.2118
 4653W        W47644   8.234  16.598   0.875 -0.1229  0.1156 -0.0175
 4654W        W47645  23.927  26.977  15.127  0.1699 -0.1689  0.2219
 4655W        W47646  24.480  27.803   9.425 -0.3504  0.1379  0.1660
 4656W        W47647  11.369  20.729  22.753  0.1477  0.1093  0.1717
 4657W        W47648   1.566  12.304  25.398  0.0162 -0.1569 -0.0733
 4658W        W47649  13.468   9.739   9.773  0.0277 -0.0912 -0.0941
 4659W        W47650  25.374  26.747   6.207  0.1751  0.2238  0.1733
 4660W        W47651   5.405  19.093   7.769 -0.0053 -0.1838  0.1722
 4661W        W47652  22.345  23.267  19.517  0.2373  0.0193  0.1109
 4662W        W47653  15.941  27.467  20.541  0.1684  0.2300  0.1735
 4663W        W47654  10.033  20.311   3.982 -0.1604 -0.0542  0.1418
 4664W        W47655  26.201  32.984  20.665  0.3935  0.1460 -0.0847
 4665W        W47656  13.524  23.921   0.205 -0.0679  0.4111  0.0521
 4666W        W47657  21.031  12.634   6.557 -0.0994  0.1444 -0.0348
 4667W        W47658   6.303  17.458  17.307 -0.0488 -0.0080  0.0494
 4668W        W47659   9.919  30.685  17.406 -0.0472 -0.0649 -0.1497
 4669W        W47660  33.153  21.789  21.590 -0.2627 -0.0003  0.0664
 4670W        W47661   9.766  23.272   1.571 -0.1675 -0.1885  0.0781
 4671W        W47662  18.236  24.210   7.538  0.0392 -0.1137 -0.1404
 4672W        W47663   8.162  23.049   1.612 -0.3968  0.1807  0.0460
 4673W        W47664  15.728  31.467  10.196 -0.0982 -0.2773 -0.0902
 4674W        W47665  10.367   6.591  27.945  0.2515  0.1167 -0.0431
 4675W        W47666  18.252  26.919   9.578 -0.2384 -0.1493 -0.2330
 4676W        W47667  14.427   5.081  10.990 -0.1736  0.2158 -0.3513
 4677W        W47668  29.879   3.636  25.480 -0.0136  0.0069 -0.2820
 4678W        W47669  13.015  22.103  26.781 -0.0400  0.1632  0.0034
 4679W        W47670  20.305  31.750  21.852 -0.1930  0.0772 -0.2098
 4680W        W47671  13.661  21.881  29.141  0.2590  0.1460 -0.0903
 4681W        W47672   8.015   6.577   7.806  0.0233  0.1016  0.3062
 4682W        W47673  13.845   2.370   9.846  0.1242 -0.1211  0.3983
 4683W        W47674   7.670  24.419  24.993 -0.0867 -0.1371 -0.0085
 4684W        W47675  14.976  33.553   9.421  0.3580 -0.1274  0.0918
 4685W        W47676   7.006   1.574   8.477 -0.0579 -0.0577 -0.1112
 4686W        W47677  18.168  29.890   0.723 -0.0082  0.2758 -0.1329
 4687W        W47678   9.502  22.903   5.625 -0.1061 -0.0039  0.0443
 4688W        W47679  24.093  30.601  25.533  0.1488 -0.0567  0.0214
 4689W        W47680  15.940  19.127  25.036  0.1237 -0.2367  0.1623
 4690W        W47681  27.681  22.771  28.530 -0.2374  0.0137 -0.0086
 4691W        W47682  15.656  19.035  26.092 -0.0043 -0.2455  0.0907
 4692W        W47683  11.594  21.259   1.371 -0.3461 -0.0905 -0.4462
 4693W        W47684  15.364  10.139   9.114 -0.4264 -0.3894 -0.0391
 4694W        W47685  10.379  17.307   5.979  0.0074  0.1035 -0.0044
 4695W        W47686  20.571  22.600  17.150 -0.0465  0.3501  0.1374
 4696W        W47687  21.275  24.527   9.261  0.0148 -0.1523 -0.1874
 4697W        W47688  22.902  25.238  22.451 -0.1300 -0.2593 -0.0073
 4698W        W47689  23.520  11.938   9.386  0.0277  0.1733  0.1650
 4699W        W47690  16.713  33.029  27.480  0.1903  0.1645  0.1887
 4700W        W47691  10.328  25.870   5.482  0.1344  0.0951  0.3992
 4701W        W47692   4.954  29.787   3.195 -0.0009 -0.1941  0.2020
 4702W        W47693  16.259  22.465  21.306  0.1789 -0.0791 -0.3287
 4703W        W47694   2.535   4.983   3.677  0.4352 -0.0891 -0.3481
 4704W        W47695   4.879   6.588   8.705 -0.0133  0.1127 -0.0283
 4705W        W47696   6.693  28.289   0.819  0.0040  0.1938 -0.1938
 4706W        W47697  25.334  17.355  24.592 -0.0937  0.0222 -0.4819
 4707W        W47698  11.582  16.031  21.357 -0.0410 -0.1176  0.2134
 4708W        W47699  14.396  22.908   5.642  0.0742 -0.0334  0.2549
 4709W        W47700  14.362  29.255   5.626  0.1245  0.2525 -0.2380
 4710W        W47701   9.639  29.575   8.910  0.3868  0.0894  0.0522
 4711W        W47702  26.376   2.254  15.371 -0.0779  0.1262  0.0677
 4712W        W47703  15.315  32.806  10.571  0.0205  0.0330  0.0251
 4713W        W47704   9.634  24.906   8.639  0.1150 -0.0093  0.2454
 4714W        W47705   9.758  24.842  29.154 -0.2348 -0.1109  0.3315
 4715W        W47706  24.557  33.558   6.144 -0.1221  0.1783  0.0206
 4716W        W47707  11.597  16.225   2.831  0.0663 -0.2256  0.1565
 4717W        W47708  18.282  25.141   5.846  0.0139 -0.3871  0.1339
 4718W        W47709  34.618  18.762  21.326  0.1954 -0.2630 -0.3179
 4719W        W47710  20.655   6.280  25.378  0.1486  0.0079  0.1249
 4720W        W47711  21.460  14.453   0.909 -0.0340 -0.2242  0.1273
 4721W        W47712  20.834  21.114  22.244  0.0790 -0.2329 -0.0946
 4722W        W47713  20.223  18.886   1.922 -0.2019 -0.0196  0.1479
 4723W        W47714   5.299  23.173  27.879 -0.0229 -0.2718  0.0243
 4724W        W47715  15.941  19.253   6.690  0.1831 -0.1874  0.1693
 4725W        W47716   6.662  18.815  27.191 -0.3075 -0.2695 -0.0835
 4726W        W47717   4.038  33.170   4.275  0.1194  0.0129  0.1870
 4727W        W47718   7.948  27.584   6.776  0.0918  0.0681  0.3359
 4728W        W47719   5.338   1.464  27.281 -0.0789 -0.3699 -0.5192
 4729W        W47720  33.463  30.026  22.934  0.1628  0.1673  0.0571
 4730W        W47721   7.445  29.453   9.525  0.2246 -0.1339 -0.1861
 4731W        W47722  18.313  27.531  21.482  0.0970 -0.1221 -0.0177
 4732W        W47723  12.363  24.785  26.701 -0.1030  0.0023  0.0687
 4733W        W47724  16.385   2.544  23.913  0.0714  0.1089 -0.1005
 4734W        W47725   7.748  28.144  16.362 -0.0283  0.0263 -0.0470
 4735W        W47726  19.390  25.828  20.645  0.0056  0.1400  0.1138
 4736W        W47727  11.084   4.184   8.967  0.1196  0.0438 -0.0246
 4737W        W47728  32.011  26.235   5.771  0.0605 -0.0055 -0.0199
 4738W        W47729  24.595   3.834   1.179  0.1071  0.2252 -0.0561
 4739W        W47730  33.189   1.530  16.194  0.2382 -0.2619  0.3370
 4740W        W47731   6.109  13.673   0.558 -0.0420 -0.1549  0.1821
 4741W        W47732  18.591  27.332  20.077  0.1008 -0.0918 -0.0156
 4742W        W47733  14.772  32.158  19.907 -0.0509 -0.1622 -0.0627
 4743W        W47734   9.986  11.334   1.300  0.3015 -0.2906  0.3692
 4744W        W47735  18.573  15.725   3.041 -0.1159  0.2525 -0.1412
 4745W        W47736  24.090  22.374   6.443 -0.3024  0.2006  0.1656
 4746W        W47737  19.444  31.639  29.181 -0.2857  0.2346 -0.1153
 4747W        W47738  17.134   8.561  21.403 -0.1169 -0.3326  0.1260
 4748W        W47739   8.991  25.548   3.119  0.1509 -0.2508 -0.0648
 4749W        W47740  16.318  20.709  25.687 -0.1750 -0.0788 -0.0022
 4750W        W47741   8.370  11.245   6.217 -0.1233  0.1154 -0.0234
 4751W        W47742  22.247  14.177   0.126 -0.1300  0.1688  0.2382
 4752W        W47743  15.186   6.455  21.362  0.2393 -0.1496  0.2235
 4753W        W47744  10.706   1.851  17.336  0.3345 -0.4131  0.0185
 4754W        W47745  16.993  22.881   4.309  0.0232 -0.1971 -0.1475
 4755W        W47746  15.588  18.438   0.546 -0.0476  0.1571 -0.2013
 4756W        W47747   5.612  33.224  22.954  0.1387  0.1101 -0.0604
 4757W        W47748  22.821  29.430  26.603 -0.0375  0.0051 -0.1407
 4758W        W47749  34.176  22.022  22.070 -0.4078  0.0060 -0.2563
 4759W        W47750   7.592  30.441  25.425  0.5383 -0.1516 -0.0413
 4760W        W47751  20.711  20.151  24.005  0.3487 -0.2380  0.0089
 4761W        W47752  21.057  10.373   4.473 -0.3732 -0.0153  0.0759
 4762W        W47753  34.407  25.151  28.785  0.2757  0.0185 -0.0802
 4763W        W47754  10.346   6.378  21.589  0.1038  0.1770 -0.0849
 4764W        W47755  27.217  20.624  23.214 -0.1663  0.2302 -0.0242
 4765W        W47756  27.239  22.481   7.899  0.2577 -0.2593  0.2386
 4766W        W47757  12.454   3.535   8.721 -0.2904  0.0440  0.1203
 4767W        W47758  12.650  16.520   1.774  0.2380  0.2260  0.0711
 4768W        W47759  19.475  32.793   3.430  0.1668  0.0656 -0.1224
 4769W        W47760  30.135  30.973   7.300 -0.0883 -0.1639 -0.1597
 4770W        W47761  12.533  28.048   5.720 -0.1481 -0.0585 -0.0140
 4771W        W47762  13.428  18.126   3.531 -0.2304 -0.3165  0.0929
 4772W        W47763  34.405  28.656   6.259  0.0656 -0.3130  0.1006
 4773W        W47764  30.837  23.247   4.784 -0.3124  0.2356  0.0230
 4774W        W47765  22.225  33.013  24.037 -0.2197 -0.1875  0.2432
 4775W        W47766   6.603  22.734   0.937  0.1957 -0.1415  0.0418
 4776W        W47767  22.017  11.460   3.692 -0.3329 -0.0688 -0.1322
 4777W        W47768  26.978  25.932  17.953  0.1491 -0.0252 -0.2889
 4778W        W47769  14.446  24.712   3.732 -0.4289  0.0981  0.3017
 4779W        W47770  10.248  14.735  28.997  0.2418  0.0660  0.0086
 4780W        W47771  18.320  30.870  14.619 -0.3468  0.2359 -0.1562
 4781W        W47772  11.503  17.214   4.048  0.1629  0.0572 -0.2485
 4782W        W47773  19.567   2.743   9.009 -0.0803  0.1855 -0.3877
 4783W        W47774  21.430  23.771   8.298 -0.3953  0.1152  0.0278
 4784W        W47775   8.090  20.888   2.577 -0.2347  0.0086 -0.1532
 4785W        W47776   4.873  15.529  11.803  0.1866 -0.1809  0.0403
 4786W        W47777  19.417  21.103   4.630 -0.0385  0.3377 -0.0699
 4787W        W47778  27.076  24.347   4.199 -0.0680  0.3917 -0.0166
 4788W        W47779  11.619  16.383   6.876 -0.0111  0.0711  0.3889
 4789W        W47780  23.997  20.402   1.817 -0.1363 -0.1102  0.0914
 4790W        W47781  34.591  18.744   8.971 -0.3978  0.0067 -0.0587
 4791W        W47782  16.551  30.834  20.242 -0.4543 -0.1142  0.0251
 4792W        W47783   9.477   0.753  19.802  0.0492  0.2363 -0.0706
 4793W        W47784  16.009  14.027  23.874 -0.1713  0.1879 -0.1417
 4794W        W47785  13.194  16.061   0.942  0.1830 -0.0599 -0.0661
 4795W        W47786   9.318  27.187   0.186  0.2118  0.1581 -0.3279
 4796W        W47787  11.496   5.310  21.644  0.3413  0.1849 -0.1837
 4797W        W47788  17.554  22.137   4.193  0.3280  0.0257 -0.1636
 4798W        W47789  18.120  23.530   0.089  0.1353 -0.2545 -0.2438
 4799W        W47790  19.006  11.045   4.485 -0.0262  0.0265  0.2310
 4800W        W47791  32.542   6.558   8.344  0.0154  0.0033  0.0482
 4801W        W47792  18.643  25.044   2.002  0.0526 -0.2546 -0.0877
 4802W        W47793  32.200  14.595   4.744 -0.2107 -0.1144  0.4269
 4803W        W47794  11.498  14.493   4.440  0.0012 -0.1950  0.2179
 4804W        W47795  13.182  12.859   1.100 -0.0929 -0.1340  0.1854
 4805W        W47796   6.568  24.724  17.172 -0.1661  0.0809  0.1949
 4806W        W47797  32.520   7.905   6.830  0.1594 -0.1779  0.1274
 4807W        W47798   9.303  23.724   5.672 -0.1038 -0.4662 -0.0601
 4808W        W47799  10.558  20.335  22.476 -0.1913 -0.3832  0.5378
 4809W        W47800   7.018  19.731   8.742 -0.1664  0.1071 -0.1317
 4810W        W47801  31.137  19.426   6.382 -0.4374  0.1180  0.1766
 4811W        W47802   7.370  20.399  21.527 -0.1416 -0.1493 -0.1302
 4812W        W47803  14.252  13.065  28.538  0.1433  0.0808 -0.0842
 4813W        W47804   5.491  16.991  23.773 -0.0984 -0.2177 -0.2281
 4814W        W47805  16.337  30.068   6.511  0.0993  0.0623  0.0856
 4815W        W47806  33.935  33.368   3.370  0.1383  0.0600 -0.1458
 4816W        W47807  17.496  26.360   9.375  0.2078 -0.0533 -0.1408
 4817W        W47808   6.098  16.163  24.831 -0.2650  0.0382  0.0803
 4818W        W47809  20.270  25.126   2.149 -0.1186 -0.0709 -0.0799
 4819W        W47810  32.670  19.222   5.057 -0.0510  0.2053  0.1594
 4820W        W47811   9.129  23.010   8.695 -0.0210 -0.2308  0.4949
 4821W        W47812  12.553  24.739   7.971 -0.1017  0.2558 -0.0919
 4822W        W47813   9.923  30.341  29.010  0.0860 -0.2546  0.1116
 4823W        W47814   6.188   7.318  24.095  0.0113 -0.0835 -0.2681
 4824W        W47815  11.178  16.843   8.540 -0.0012  0.1143 -0.0484
 4825W        W47816  16.931  25.539  16.898 -0.1510  0.0128 -0.1866
 4826W        W47817   7.727  33.248  27.952 -0.1901 -0.1261 -0.0666
 4827W        W47818  25.072  25.679  18.605 -0.4377 -0.0223  0.0484
 4828W        W47819  20.809  13.031  26.873 -0.0777 -0.0093 -0.1918
 4829W        W47820  17.207  12.699  26.312  0.0847 -0.0967  0.0033
 4830W        W47821  20.551  18.510   2.978  0.2088  0.1694 -0.0009
 4831W        W47822  17.652   6.103   6.133 -0.3665 -0.0760 -0.4301
 4832W        W47823  28.195  22.936   5.354  0.1145 -0.1604 -0.3489
 4833W        W47824  26.293  15.713   2.063  0.0626 -0.2404  0.1349
 4834W        W47825  23.734  29.178   3.419 -0.2578 -0.0628 -0.3298
 4835W        W47826  33.110  29.824  16.258 -0.0329  0.0766  0.1662
 4836W        W47827  22.344  32.618   2.023  0.4967  0.2116  0.0456
 4837W        W47828  21.513  26.532  22.981 -0.3091 -0.1893  0.0494
 4838W        W47829   9.615  30.105   7.292 -0.2241  0.1238  0.1600
 4839W        W47830  15.510  17.535  28.648 -0.2834 -0.2583 -0.0299
 4840W        W47831  30.840  29.105   3.601 -0.0427 -0.2514 -0.1515
 4841W        W47832  28.752   2.483  27.605  0.0215  0.4546  0.1462
 4842W        W47833   5.688  26.057   2.294  0.0757  0.1138 -0.1108
 4843W        W47834   9.418  14.503   9.773  0.2894 -0.2189  0.1126
 4844W        W47835  18.009  33.293   7.563 -0.0701 -0.1306 -0.0751
 4845W        W47836   0.025  23.564   9.769 -0.0995 -0.1824 -0.1061
 4846W        W47837   2.505  13.263   7.762  0.1478 -0.1682 -0.1889
 4847W        W47838  18.799   8.179  25.095 -0.0350 -0.2085  0.2588
 4848W        W47839  17.000  27.019   1.219 -0.1307 -0.2585  0.1338
 4849W        W47840  27.400  23.161  27.642 -0.3124 -0.1374 -0.0685
 4850W        W47841  22.615  19.152   8.929 -0.1201 -0.3643  0.2185
 4851W        W47842   0.415  26.219  20.578 -0.0091 -0.4312  0.2913
 4852W        W47843  18.843  19.434  25.782 -0.0645  0.0104  0.1127
 4853W        W47844   7.453   9.547  10.398  0.0232 -0.0569  0.1261
 4854W        W47845  12.092  33.975   3.917 -0.0757 -0.2330  0.2043
 4855W        W47846  20.026  33.941   5.916  0.1351 -0.3447 -0.2240
 4856W        W47847  30.976   8.682  21.492  0.0627 -0.0985  0.1387
 4857W        W47848  34.412  23.598  25.519 -0.0194 -0.0498  0.1117
 4858W        W47849  27.511  21.969   4.783  0.0168 -0.1776  0.0206
 4859W        W47850  32.026  22.623  28.455  0.1973  0.0262 -0.1839
 4860W        W47851  14.586  20.763   8.033  0.1160 -0.3236  0.0744
 4861W        W47852  28.436  20.222   7.175 -0.0531  0.4396 -0.2241
 4862W        W47853  12.189   2.040   8.206  0.0065  0.0743  0.2715
 4863W        W47854  19.463  14.628   5.938  0.0626 -0.2434  0.0686
 4864W        W47855  27.521  19.505   8.017  0.0923  0.1851  0.1339
 4865W        W47856  15.708  17.906  25.326  0.1346  0.1591  0.1621
 4866W        W47857  19.954  13.483   3.374 -0.1738  0.3645 -0.3344
 4867W        W47858  11.391  14.609   2.387 -0.1538  0.1622 -0.0857
 4868W        W47859  11.025  25.077   6.866  0.1341  0.0314  0.0634
 4869W        W47860  25.340  14.543   5.608 -0.2420  0.2469  0.1141
 4870W        W47861   0.119  24.337  26.851  0.0204 -0.0639 -0.0898
 4871W        W47862  13.871  17.456   1.636 -0.3547 -0.0310 -0.1301
 4872W        W47863  19.508  20.637  28.896 -0.1003  0.1047  0.1711
 4873W        W47864  21.354  21.585   6.371  0.0055 -0.0567 -0.0375
 4874W        W47865  21.592  26.774  29.180  0.1852 -0.0159 -0.0123
 4875W        W47866  12.881  25.388   5.381 -0.0122 -0.4279  0.1642
 4876W        W47867   4.881  15.570  24.235  0.3280  0.0795 -0.3224
 4877W        W47868   9.830  21.971   3.906  0.0042 -0.1993  0.0597
 4878W        W47869  30.967  17.132   2.829 -0.1078  0.0604 -0.0269
 4879W        W47870  10.798  27.564   6.276  0.0296  0.1110  0.0098
 4880W        W47871   2.505  24.127  22.837 -0.0015 -0.1240 -0.0607
 4881W        W47872  31.167  30.173   1.520 -0.2083 -0.0032  0.2579
 4882W        W47873  21.334  30.026   3.390 -0.2258 -0.0150 -0.1098
 4883W        W47874   8.327  23.372  22.330  0.1522  0.2300  0.1831
 4884W        W47875  10.689  29.497  22.754 -0.0356 -0.0779  0.1739
 4885W        W47876  28.833  31.195   8.576 -0.0926  0.1807 -0.2154
 4886W        W47877  12.332  25.229   6.141  0.0121  0.1334 -0.0239
 4887W        W47878  31.816  22.912   4.807 -0.3229 -0.0573  0.0127
 4888W        W47879  19.263  26.030  25.855 -0.2907 -0.2814 -0.1825
 4889W        W47880   0.472  12.976  23.497 -0.2627 -0.2065  0.2285
 4890W        W47881   7.737  15.445  28.159 -0.2409 -0.1211 -0.0781
 4891W        W47882   9.330   6.351  10.188  0.2080 -0.2195 -0.1535
 4892W        W47883   7.578  23.761  10.031 -0.0470  0.0436 -0.1145
 4893W        W47884  31.563  27.456  26.208 -0.0424  0.0140  0.0779
 4894W        W47885  12.151  28.080   6.045  0.0962  0.2818  0.0002
 4895W        W47886  24.220  32.557  24.131 -0.0595 -0.0467  0.1199
 4896W        W47887  23.883  30.345  28.963 -0.1760 -0.0673  0.0905
 4897W        W47888  26.511  33.401  24.279 -0.3564 -0.0646  0.4947
 4898W        W47889  27.542  16.683  26.988  0.0923 -0.1065 -0.1180
 4899W        W47890  15.080   3.444   6.072 -0.1207 -0.1229 -0.0491
 4900W        W47891  17.502  23.591   6.516  0.0625  0.2544  0.2476
 4901W        W47892  15.973   3.880   0.798  0.3237 -0.1323  0.2031
 4902W        W47893  20.325  20.453   5.152  0.0383 -0.1829  0.0853
 4903W        W47894  14.495  25.482   3.194  0.0933 -0.1517  0.3417
 4904W        W47895  14.963   4.261   7.471  0.0062 -0.1826  0.4574
 4905W        W47896   5.902  21.055   8.286 -0.0124  0.1876 -0.2454
 4906W        W47897   5.841  33.960  15.889 -0.0536  0.1633  0.3279
 4907W        W47898  10.162  23.253   9.065  0.1339  0.0498  0.0182
 4908W        W47899   9.851  16.818  27.600 -0.1533 -0.1519  0.2391
 4909W        W47900   1.741  24.605  22.332 -0.1121  0.2107 -0.0198
 4910W        W47901  18.750   4.526   7.015  0.1253  0.1467 -0.3882
 4911W        W47902  34.578  15.310   9.707  0.1861 -0.3055  0.0306
 4912W        W47903  13.248  28.041  18.264 -0.0814  0.1042  0.1242
 4913W        W47904  11.571  24.160   7.300  0.0226  0.3595  0.2097
 4914W        W47905  21.137  13.110   2.258  0.1329 -0.0443 -0.2943
 4915W        W47906   3.320  14.805  15.985  0.1447  0.2774  0.0220
 4916W        W47907  25.641  22.291   1.453  0.2979  0.0544  0.0374
 4917W        W47908  24.974  17.942   7.829 -0.1135  0.0800  0.0579
 4918W        W47909  11.107  26.653  27.998 -0.0605 -0.2549  0.0019
 4919W        W47910   3.187   8.095  18.157 -0.0459 -0.1386 -0.1491
 4920W        W47911  16.978  12.703  28.496 -0.0652  0.1493  0.0395
 4921W        W47912   5.051  18.981  28.158  0.2970 -0.1223  0.0068
 4922W        W47913  17.809   5.071  28.410 -0.1369  0.2564  0.0693
 4923W        W47914  28.183  31.812   8.455 -0.0926  0.2315  0.0837
 4924W        W47915  17.496  22.862   1.296 -0.1049 -0.3083  0.1232
 4925W        W47916   7.107  25.368   7.855 -0.3472 -0.0597  0.2213
 4926W        W47917  25.544   8.335   6.892 -0.0806  0.1002 -0.1015
 4927W        W47918   8.864   4.556   1.001  0.0051 -0.1524 -0.4064
 4928W        W47919  28.603  26.935   1.032 -0.2712 -0.1856 -0.0114
 4929W        W47920  11.106  24.489  19.565  0.0437  0.0561  0.0788
 4930W        W47921  10.573  22.976   4.928  0.1657 -0.0099 -0.2811
 4931W        W47922   8.662  32.099  27.920 -0.0678  0.2726  0.1527
 4932W        W47923   9.991  20.152   4.472  0.0952  0.1519  0.2304
 4933W        W47924   7.476  27.199  16.897  0.0744 -0.0698 -0.0217
 4934W        W47925  12.760  26.811   5.199  0.0216 -0.2227 -0.0440
 4935W        W47926  21.920  31.007   8.443  0.1032  0.0741 -0.2340
 4936W        W47927  24.573  30.088  23.722 -0.1312  0.1953 -0.1574
 4937W        W47928  30.876  28.636   2.907  0.1365  0.0929 -0.0656
 4938W        W47929   9.950  23.216  15.595 -0.2908  0.1361  0.1335
 4939W        W47930  13.324  25.707  27.610 -0.0273 -0.3145  0.0283
 4940W        W47931  15.591  15.841  27.840 -0.0928 -0.0744 -0.1676
 4941W        W47932  15.718  24.509  22.062  0.1788  0.1482  0.0688
 4942W        W47933  16.290   0.526   1.544 -0.0007  0.1556  0.1016
 4943W        W47934  10.060  17.407   8.241  0.1405 -0.0213  0.0683
 4944W        W47935  15.282  23.784   2.647  0.0540  0.0364 -0.1389
 4945W        W47936  24.926  17.711  17.881  0.1671  0.1431 -0.0689
 4946W        W47937  15.581  27.205   4.383  0.0895 -0.0267 -0.1217
 4947W        W47938  17.231  22.557   8.830 -0.3377 -0.0781 -0.2867
 4948W        W47939  15.886  24.894  26.346 -0.3594  0.1440 -0.0000
 4949W        W47940  11.065   1.516  28.931 -0.0967 -0.0062 -0.3238
 4950W        W47941   4.074  33.327  27.953 -0.0101 -0.3000 -0.0091
 4951W        W47942  12.975  13.224   3.354 -0.1069 -0.3523 -0.1181
 4952W        W47943   9.648  29.710   5.455  0.3285 -0.2077 -0.0221
 4953W        W47944  18.335  18.582   5.297 -0.2004  0.1567  0.2559
 4954W        W47945  15.181  16.633   1.358 -0.1107  0.1251  0.0743
 4955W        W47946  34.247   2.180   7.934  0.0066 -0.0678 -0.2835
 4956W        W47947  12.958  26.444   4.865 -0.0630  0.1438  0.0699
 4957W        W47948  28.585  26.107   7.624 -0.1508  0.0812  0.1661
 4958W        W47949  16.626  21.934   0.136  0.0200 -0.1699 -0.1108
 4959W        W47950  31.495  14.226   2.756 -0.2983 -0.2141  0.1388
 4960W        W47951   8.491  10.300  10.549  0.0019  0.2284  0.0351
 4961W        W47952  10.253  25.567  29.259 -0.2047  0.1502 -0.1107
 4962W        W47953   9.965  28.586  28.237  0.0324 -0.3387 -0.3065
 4963W        W47954  19.209   5.397   2.699  0.2252  0.0246 -0.1957
 4964W        W47955   3.076  24.988   2.946  0.0519 -0.2465 -0.4286
 4965W        W47956   8.381  22.222   9.567  0.0905 -0.4375 -0.0381
 4966W        W47957  30.190  20.015   8.099  0.6284 -0.3617 -0.2254
 4967W        W47958  15.245  17.223   1.257 -0.3394  0.1996 -0.0341
 4968W        W47959  18.179  24.527  27.918 -0.0413  0.2293 -0.0894
 4969W        W47960   6.203  28.893  26.972  0.0936  0.1350 -0.0596
 4970W        W47961  15.461  24.123   2.933 -0.1143 -0.1272  0.4844
 4971W        W47962  13.280  21.854  27.563  0.0126 -0.1063 -0.0932
 4972W        W47963  31.447  30.101  21.434 -0.0444 -0.2648 -0.1540
 4973W        W47964  20.438  25.857  25.321  0.1085 -0.1907 -0.1137
 4974W        W47965  19.478  18.914  25.612 -0.1246 -0.1009  0.1551
 4975W        W47966  14.064  25.764   1.327 -0.2492  0.0730  0.0081
 4976W        W47967  24.005  29.247   2.618  0.1024 -0.2278  0.0334
 4977W        W47968  20.574   3.290   3.409  0.1978 -0.2376  0.0038
 4978W        W47969  12.026  25.876   6.449 -0.0277 -0.0835 -0.0970
 4979W        W47970  14.811  16.409  23.673  0.2874  0.1664 -0.0487
 4980W        W47971   1.829  18.947  25.760  0.0933  0.1664 -0.1409
 4981W        W47972  22.713  17.621   8.928 -0.2365 -0.0170  0.0995
 4982W        W47973   8.495  23.363  18.962 -0.0463  0.1168 -0.1479
 4983W        W47974  10.886   8.310   7.811  0.1708 -0.2901 -0.1159
 4984W        W47975  12.627  25.001   0.324  0.1179 -0.2450  0.0299
 4985W        W47976  14.844  27.090   6.440  0.0314  0.1415 -0.0395
 4986W        W47977   8.633  28.526  10.991  0.4388  0.2137 -0.0552
 4987W        W47978   8.891  16.186   7.807  0.1764  0.0493 -0.2713
 4988W        W47979  11.831  23.467   7.085  0.1637 -0.0813 -0.3277
 4989W        W47980  29.360  16.246   6.729 -0.2367  0.0787 -0.0245
 4990W        W47981   0.453  12.326   6.467 -0.0453 -0.0254  0.2678
 4991W        W47982  12.001  27.654   6.738 -0.0050 -0.2596  0.0418
 4992W        W47983  21.043  29.483   7.539  0.1505 -0.0068 -0.1281
 4993W        W47984  27.602  29.722   5.765  0.3107 -0.1030 -0.1223
 4994W        W47985  17.379  17.710  24.306 -0.0080  0.1192  0.1594
 4995W        W47986  17.464  21.502   4.006 -0.1828 -0.1293  0.0947
 4996W        W47987   7.127  16.016  10.812 -0.2022 -0.3273  0.3842
 4997W        W47988  21.274   0.101  24.597 -0.0712  0.2745  0.1494
 4998W        W47989  14.733  32.543  28.163 -0.1477  0.4303 -0.1659
 4999W        W47990  11.082  24.805   3.001 -0.3973  0.0594  0.1198
 5000W        W47991   8.380  33.805   9.288 -0.0922  0.2958  0.1255
 5001W        W47992   5.045  13.239  28.134  0.2904 -0.0427 -0.2629
 5002W        W47993  10.369  18.446  27.969  0.2766  0.1311 -0.3746
 5003W        W47994   1.768  33.233  23.797 -0.0880 -0.0592  0.2366
 5004W        W47995   8.781   9.840   1.227  0.0670 -0.4104 -0.1378
 5005W        W47996  28.039  25.865  22.019  0.0698  0.0569  0.2648
 5006W        W47997  25.996  25.922   8.713 -0.1503  0.2423 -0.1033
 5007W        W47998  15.731  22.679   7.336 -0.1444  0.0031  0.0132
 5008W        W47999  25.987  29.529  27.141  0.0875  0.2218 -0.1377
 5009W        W48000  16.491  17.640   2.032 -0.3983 -0.2551  0.1558
 5010W        W48001   1.496  11.793  11.034  0.0170  0.0500 -0.0373
 5011W        W48002  10.181   2.189   6.325  0.0234 -0.0954  0.1661
 5012W        W48003  21.419  29.397  20.120 -0.1494 -0.1412 -0.1203
 5013W        W48004  20.389  21.789  23.009  0.0246  0.0796 -0.0313
 5014W        W48005  13.523  23.708   2.953 -0.1446  0.0684 -0.0540
 5015W        W48006   5.655  18.724   7.302  0.1476  0.0934  0.1312
 5016W        W48007   2.082  18.407  11.516 -0.0815  0.0626 -0.0368
 5017W        W48008  22.078  30.814   8.012  0.0418 -0.0381 -0.0986
 5018W        W48009   9.198  29.194  21.563 -0.1722 -0.1283 -0.1510
 5019W        W48010  11.313   9.410   8.247 -0.1520 -0.3022  0.1096
 5020W        W48011   2.759  17.055   0.922  0.2059 -0.1511  0.0913
 5021W        W48012  25.050  24.718   3.098  0.2826  0.0857 -0.0122
 5022W        W48013   9.150  31.926   2.756 -0.2641 -0.1652  0.4065
 5023W        W48014   1.184  20.880   3.729  0.1531  0.0458  0.1350
 5024W        W48015  10.950  20.444   6.008 -0.1125 -0.2343 -0.1238
 5025W        W48016   4.363  33.754  22.756 -0.2053  0.0595  0.2367
 5026W        W48017  30.648  19.263   9.195 -0.0317 -0.0491  0.2865
 5027W        W48018  13.921  20.956   6.070  0.0271 -0.3652  0.0239
 5028W        W48019  16.714  18.496   6.580 -0.1458  0.0655  0.1413
 5029W        W48020  10.916  22.565   9.801  0.2300  0.1272 -0.2351
 5030W        W48021  10.933  16.799   9.676  0.2098 -0.1387  0.0603
 5031W        W48022  13.569  12.897   3.054 -0.1343  0.1189  0.2280
 5032W        W48023   6.916   8.997   5.261 -0.2355 -0.2069 -0.1185
 5033W        W48024  11.182   6.704   8.286 -0.1697 -0.0119  0.1508
 5034W        W48025  17.046  29.246   5.366  0.1800 -0.2259  0.3979
 5035W        W48026  10.188  21.938  26.701 -0.4026 -0.1941 -0.0303
 5036W        W48027  12.673  26.384   0.695  0.2251 -0.2422 -0.2748
 5037W        W48028  11.889  23.704  28.245  0.3250 -0.2345 -0.2065
 5038W        W48029  17.408  24.675  16.501  0.0587 -0.3982  0.0257
 5039W        W48030   1.252  23.464   2.916 -0.1283 -0.1667 -0.2631
 5040W        W48031  14.408  25.344   3.898 -0.1335 -0.1385  0.0437
 5041W        W48032  21.665  15.271   6.089  0.2089 -0.0974  0.2139
 5042W        W48033  11.251  23.856   9.610  0.0660  0.3575 -0.1626
 5043W        W48034  32.719  19.613  28.867 -0.0634 -0.3810  0.2477
 5044W        W48035   9.855  20.625  25.873  0.3247 -0.2076 -0.0964
 5045W        W48036   3.263  23.596   3.676 -0.0167 -0.2005 -0.0745
 5046W        W48037  13.692  24.934   7.968 -0.1609 -0.0988 -0.3172
 5047W        W48038  24.813  15.875   4.575 -0.0228 -0.1219  0.3559
 5048W        W48039  17.105  13.583   0.747 -0.0918  0.5017 -0.1481
 5049W        W48040   7.768  15.367   8.885  0.2486 -0.0836 -0.1413
 5050W        W48041   5.314  33.077  27.912  0.5110 -0.1021 -0.0938
 5051W        W48042   8.363  15.963   9.172 -0.0257  0.2805  0.1496
 5052W        W48043  10.736  27.361   6.862  0.1996  0.0818 -0.2152
 5053W        W48044   6.189  19.181  11.305 -0.1287  0.1731  0.1799
 5054W        W48045  21.548  30.927  20.138 -0.2003 -0.0732 -0.0918
 5055W        W48046  12.523  29.494   9.918 -0.0620  0.1657  0.1262
 5056W        W48047   7.350  24.771  10.239 -0.1870  0.3219 -0.0160
 5057W        W48048   5.629  29.252   1.901 -0.1973  0.1260 -0.3338
 5058W        W48049  11.328   7.138   9.080 -0.1922 -0.1357  0.0111
 5059W        W48050  13.529  28.350   7.125 -0.0653 -0.0121 -0.0874
 5060W        W48051   4.265   8.551  23.700  0.3468  0.2774 -0.0218
 5061W        W48052  23.790  32.077   5.861 -0.2338  0.0031  0.0703
 5062W        W48053  10.275  31.736   7.271  0.4957  0.0199  0.0053
 5063W        W48054  10.533   8.670   1.613 -0.0691  0.3017 -0.4546
 5064W        W48055  22.184  22.755   5.759 -0.0215  0.2004 -0.3085
 5065W        W48056   2.461  24.732  26.687  0.0642 -0.2477 -0.1814
 5066W        W48057  15.643  32.235  28.307 -0.1011  0.0367 -0.0711
 5067W        W48058   7.356  26.339   8.687  0.0253  0.2042 -0.1536
 5068W        W48059  30.366  15.994   5.356  0.0642  0.1367 -0.1521
 5069W        W48060  16.665  19.299   7.334  0.3055  0.3086  0.0468
 5070W        W48061  11.073  27.469   7.400 -0.3690  0.3524  0.0107
 5071W        W48062   9.742   5.985   6.964  0.1012  0.3297 -0.0278
 5072W        W48063  12.448  17.778  28.809  0.2429  0.0898 -0.2862
 5073W        W48064  13.407  29.053   9.289  0.2904  0.0740 -0.0895
 5074W        W48065  30.653  23.409   8.763  0.0761 -0.3558 -0.2117
 5075W        W48066  18.831  23.367  21.640  0.1517 -0.0256 -0.1558
 5076W        W48067  19.194  27.683   1.539 -0.1837  0.1227  0.1927
 5077W        W48068  10.018  25.244  17.538  0.2194 -0.0002  0.0930
 5078W        W48069  22.136  26.752  21.641 -0.2701 -0.1000 -0.0587
 5079W        W48070   7.294  23.930   3.124 -0.2351  0.1195 -0.0847
 5080W        W48071   9.386   7.064   6.124 -0.1409  0.2145  0.0014
 5081W        W48072  13.769  32.643  22.772  0.0305 -0.2625 -0.1102
 5082W        W48073  11.234  20.078  27.636 -0.3146 -0.1995 -0.0158
 5083W        W48074  13.428  29.624   9.119  0.1435 -0.1393  0.0875
 5084W        W48075   2.124  18.814   8.044  0.1438 -0.2157 -0.0174
 5085W        W48076  12.962  19.406  28.750 -0.2234  0.0516  0.2142
 5086W        W48077  31.841  19.508  10.004  0.0960 -0.1449 -0.2009
 5087W        W48078  26.605   0.422  28.826 -0.3978 -0.1622  0.2753
 5088W        W48079  26.363  22.795   5.905 -0.0557  0.1184 -0.1108
 5089W        W48080   4.464  15.554  17.949 -0.0373 -0.0232 -0.1616
 5090W        W48081  33.018  21.418   6.848 -0.0426  0.1058 -0.0741
 5091W        W48082  11.057  22.874  19.985  0.0075 -0.0041  0.4154
 5092W        W48083   1.332  31.760  26.922 -0.0598  0.0096  0.0644
 5093W        W48084  25.978  29.873   6.545 -0.1628  0.2020  0.1042
 5094W        W48085   5.409  28.582   6.879 -0.0098  0.2238 -0.1618
 5095W        W48086  16.126  25.510  27.589 -0.0709  0.0647  0.3082
 5096W        W48087  12.319   4.807   9.475  0.0873  0.2442  0.1136
 5097W        W48088  11.127  16.150   6.398  0.0013 -0.1521  0.2608
 5098W        W48089  15.765  12.834   3.722  0.0654 -0.2157 -0.0562
 5099W        W48090  14.274  31.288   6.682  0.2103  0.2092  0.2974
 5100W        W48091   9.489  20.286  24.947 -0.3352  0.0260 -0.1231
 5101W        W48092  16.712  20.554   0.562  0.2658 -0.0317  0.1814
 5102W        W48093  16.571  18.834   1.173  0.2610  0.1093 -0.0684
 5103W        W48094  24.920  29.300   4.337  0.1345 -0.1015  0.1492
 5104W        W48095   6.225  18.272   5.461 -0.3089 -0.2281 -0.0511
 5105W        W48096   9.930  32.460   8.099  0.1323  0.1383 -0.3128
 5106W        W48097   6.603  17.224  24.258 -0.1832 -0.1237  0.0665
 5107W        W48098   9.826  26.481   2.587  0.4178 -0.2471  0.0372
 5108W        W48099  20.057  10.153   5.183 -0.0332  0.0692  0.0435
 5109W        W48100  11.012  29.798   2.124  0.0959  0.0637  0.2019
 5110W        W48101  11.171  19.037   2.339 -0.0525  0.2952  0.0600
 5111W        W48102   8.577   7.121  10.923 -0.2723  0.1238  0.1178
 5112W        W48103  25.334  18.936   8.772  0.4521 -0.1297 -0.1239
 5113W        W48104   8.820  25.536   1.024  0.2553  0.0779  0.6051
 5114W        W48105   6.566  32.485  24.428  0.0007  0.4344  0.1494
 5115W        W48106  15.707  23.191  27.489 -0.0686  0.1427 -0.0577
 5116W        W48107  20.510  24.417  28.619 -0.2531 -0.3326 -0.5394
 5117W        W48108  20.775  18.933   6.075  0.1659 -0.2146  0.2602
 5118W        W48109  18.102  18.202   6.668 -0.0336 -0.0427  0.0420
 5119W        W48110  11.442  17.632  26.448 -0.1515 -0.1431 -0.2464
 5120W        W48111   9.311  18.428  23.900  0.0242 -0.3974 -0.0110
 5121W        W48112  32.824  27.448  27.486 -0.2172  0.3926 -0.2195
 5122W        W48113  22.038  21.414   9.045 -0.1018 -0.1163 -0.0074
 5123W        W48114   6.205  19.519   4.707  0.2018 -0.1383  0.1132
 5124W        W48115  16.436  26.473   7.512  0.1084  0.1022 -0.0948
 5125W        W48116  23.579  19.080  21.934  0.0048  0.2684  0.0722
 5126W        W48117   7.922  18.253  24.449  0.1866  0.4845 -0.0301
 5127W        W48118  19.206  27.568   3.797  0.0936 -0.4618 -0.1925
 5128W        W48119  25.205  28.044   7.632  0.1889  0.2077 -0.5500
 5129W        W48120  16.277  23.554   5.152  0.0832 -0.2458 -0.0559
 5130W        W48121  24.806  27.065   2.292 -0.2263 -0.0883 -0.2673
 5131W        W48122  25.806  26.656   1.025  0.1246  0.0568 -0.2172
 5132W        W48123  30.993  31.193  18.267 -0.0582 -0.0799  0.2228
 5133W        W48124  22.247  22.068   4.399 -0.2547  0.1409  0.1890
 5134W        W48125  27.413  31.072   3.845  0.0735  0.3704  0.1169
 5135W        W48126   5.500  28.857  26.586  0.1975 -0.0045  0.2037
 5136W        W48127   5.957  27.582   8.131 -0.0605  0.2005 -0.0182
 5137W        W48128  27.314  24.316   9.282  0.1233  0.0277  0.3692
 5138W        W48129  11.229   7.489  25.548  0.2041  0.1820 -0.2273
 5139W        W48130  24.748  25.800   8.575  0.2062  0.2383 -0.2474
 5140W        W48131   9.134  19.340  20.702  0.2118  0.1038 -0.0244
 5141W        W48132   5.416  23.561  22.117  0.0400 -0.1497 -0.0416
 5142W        W48133  25.432   1.520   4.931 -0.0793  0.0653 -0.0227
 5143W        W48134  18.028  22.572   5.476 -0.4196 -0.2681  0.0003
 5144W        W48135  10.484  21.863  24.920  0.0891 -0.2730  0.1612
 5145W        W48136  17.374  11.416   8.284 -0.1928 -0.0005 -0.1745
 5146W        W48137  19.854  22.414   0.287  0.0432 -0.1006  0.3197
 5147W        W48138  29.009  10.381  26.369 -0.0287  0.0044 -0.0122
 5148W        W48139  11.313  22.882   9.511 -0.0297  0.0469  0.1398
 5149W        W48140  11.778  34.685  21.306  0.0280  0.0116 -0.1050
 5150W        W48141  19.227  17.976  13.203 -0.2957  0.0128  0.1039
 5151W        W48142  12.020   1.340  23.894  0.0257 -0.2665  0.4307
 5152W        W48143  11.891  22.720   3.319 -0.0573 -0.1953 -0.3157
 5153W        W48144  12.403   6.314  20.809 -0.2081 -0.1735 -0.3585
 5154W        W48145   6.954  21.381  10.654 -0.0012  0.2794  0.0771
 5155W        W48146   0.852   6.458  25.009  0.0327  0.0264 -0.3233
 5156W        W48147  31.337  27.462   2.338 -0.0877  0.2261  0.0048
 5157W        W48148   1.522   7.297   8.745  0.2760  0.1980 -0.3267
 5158W        W48149  17.903  27.463  23.393 -0.0633 -0.0535 -0.3070
 5159W        W48150  23.642  20.665   6.462  0.1010  0.1385  0.0364
 5160W        W48151   5.079  21.376  23.513  0.2929  0.0416  0.3016
 5161W        W48152  12.965   5.219   6.084  0.2903  0.0048  0.1360
 5162W        W48153   3.173   9.924   9.173 -0.2083 -0.2270  0.1626
 5163W        W48154   7.886  17.226  17.050  0.0065  0.0457  0.1212
 5164W        W48155  27.519  20.675   7.404  0.1835 -0.2832  0.2035
 5165W        W48156   6.797  26.274   6.565 -0.0022  0.0348 -0.2474
 5166W        W48157  13.574  14.023   6.852 -0.1721 -0.2193 -0.0246
 5167W        W48158  13.701  17.127  23.056 -0.0443 -0.4057 -0.3194
 5168W        W48159  33.322  28.187   7.794 -0.3038  0.2582  0.0215
 5169W        W48160   6.610  32.602   3.574  0.1983  0.4279  0.3252
 5170W        W48161  15.922  29.705   7.035 -0.0489 -0.2804 -0.1434
 5171W        W48162  18.608  24.725  26.571 -0.0479 -0.2369  0.3392
 5172W        W48163  17.891  23.810  22.291  0.1406 -0.0107  0.0676
 5173W        W48164  20.817  19.172  22.691 -0.0169  0.2333  0.2100
 5174W        W48165  15.845  25.190  26.720 -0.0741 -0.0800  0.2413
 5175W        W48166  15.609  23.816   0.755  0.2146  0.0104 -0.2487
 5176W        W48167   3.478  23.310  29.003  0.0219  0.3226 -0.2054
 5177W        W48168   1.297  33.717   1.403 -0.0935 -0.3107 -0.5130
 5178W        W48169  18.769  28.992   5.900 -0.2097  0.0706 -0.2200
 5179W        W48170  17.717   7.317   5.942  0.1256 -0.4204 -0.3151
 5180W        W48171  16.778  34.530   7.404 -0.1792  0.0276  0.1171
 5181W        W48172  18.264   5.803   1.665 -0.1638  0.0267 -0.2348
 5182W        W48173  29.822  25.734   7.841 -0.3090 -0.1832  0.3422
 5183W        W48174   7.854  27.027   9.402  0.1034 -0.0764 -0.4238
 5184W        W48175  11.612  25.093   3.879 -0.1678  0.2452  0.2375
 5185W        W48176  12.313  19.240   0.500  0.0362  0.3277  0.1376
 5186W        W48177  15.638  19.078   1.241  0.0214  0.0146 -0.0324
 5187W        W48178   6.449  24.510   4.998  0.2684  0.3795 -0.2115
 5188W        W48179  18.253  21.083  28.864 -0.2756  0.1163  0.0658
 5189W        W48180  21.238  17.559   0.039 -0.2570 -0.0853  0.0930
 5190W        W48181  12.813  15.629  18.943 -0.1947  0.3660 -0.0069
 5191W        W48182  27.386  32.836   3.606  0.2093  0.1585 -0.0697
 5192W        W48183   9.106  24.159   7.016 -0.0002  0.1357 -0.1131
 5193W        W48184  20.775  19.899   3.234 -0.0657 -0.2419  0.1488
 5194W        W48185  19.922   0.957   5.341  0.3919 -0.0415 -0.0146
 5195W        W48186  17.208  24.214   5.860 -0.0019  0.2925 -0.0562
 5196W        W48187   3.177  30.597   8.471 -0.2436 -0.2182 -0.3492
 5197W        W48188  17.015  24.951  10.022 -0.0173  0.0763 -0.1235
 5198W        W48189   3.655  23.345   8.999 -0.0742 -0.2063 -0.1114
 5199W        W48190   9.342  25.166  23.911  0.2994  0.0131 -0.0996
 5200W        W48191   3.656   5.150  16.948 -0.0263  0.1234  0.1572
 5201W        W48192  19.108  25.449   1.111  0.1915 -0.0465  0.2764
 5202W        W48193   0.035   1.620   6.771 -0.0291  0.0571 -0.2120
 5203W        W48194  25.891  28.096   7.209 -0.0046  0.1056  0.3512
 5204W        W48195   7.611  20.662   2.538  0.1601  0.0213 -0.0477
 5205W        W48196  11.769  33.620  10.252  0.2484 -0.0358 -0.1421
 5206W        W48197   6.418  18.971   6.688 -0.1831  0.0727  0.2754
 5207W        W48198  18.855  25.164   3.816  0.0064  0.2444 -0.1982
 5208W        W48199   7.127  24.512   9.779 -0.1394 -0.0313  0.1945
 5209W        W48200  17.657  16.922   5.921 -0.0940  0.0260  0.2660
 5210W        W48201  27.746  24.698   8.606 -0.0621 -0.2930 -0.0557
 5211W        W48202  13.593  23.075   9.427  0.0374  0.3510  0.3225
 5212W        W48203   4.803  33.037  27.784  0.0741 -0.1138  0.0748
 5213W        W48204   9.816  28.968  10.098 -0.1695 -0.1991  0.0751
 5214W        W48205  16.318  26.220   0.711 -0.2632 -0.1447 -0.0858
 5215W        W48206   4.832  27.217   0.147  0.0428  0.2047 -0.0259
 5216W        W48207  20.908  26.246   8.322  0.1675  0.1531  0.1333
 5217W        W48208  16.632  17.214  29.122 -0.1744  0.0709  0.0407
 5218W        W48209  15.947  20.055  21.260  0.1783  0.4791 -0.0660
 5219W        W48210  23.463  25.373   5.678  0.0680  0.1166 -0.2497
 5220W        W48211  29.373  19.571  10.022 -0.1289 -0.0545  0.1444
 5221W        W48212  29.825  18.860   3.298 -0.0717 -0.3079  0.0774
 5222W        W48213  16.139  22.441   5.266  0.2148  0.1783 -0.2650
 5223W        W48214  19.792   2.752  29.013 -0.1962  0.0541  0.1473
 5224W        W48215   6.688  22.838   9.131 -0.3099 -0.4287 -0.1668
 5225W        W48216  21.689  12.510   0.571  0.1330  0.3306  0.2349
 5226W        W48217  19.097  14.725   7.537  0.2613 -0.4851  0.0772
 5227W        W48218  23.318  20.319  20.582 -0.1443 -0.2145  0.2042
 5228W        W48219   9.919  21.996  22.879 -0.0732 -0.3427  0.3075
 5229W        W48220   5.649   5.526   3.654 -0.0040  0.0369 -0.0437
 5230W        W48221   6.376  11.811  11.724 -0.0361  0.0658 -0.2805
 5231W        W48222   1.874   7.941   2.265 -0.0780  0.3434 -0.1075
 5232W        W48223  14.754  21.765   8.524 -0.0360 -0.2195 -0.0004
 5233W        W48224   8.680  12.270   3.963  0.0731 -0.1386  0.0097
 5234W        W48225  26.722   0.418   7.692  0.0898 -0.0400 -0.1376
 5235W        W48226  16.593  19.245   5.520 -0.0614  0.0030  0.3687
 5236W        W48227   8.172  20.874   6.107 -0.1840  0.3556 -0.1670
 5237W        W48228  11.048  25.700   7.531  0.0042  0.2640 -0.0100
 5238W        W48229  19.350  17.356  26.805  0.0405  0.0289 -0.2154
 5239W        W48230  17.051  14.337  28.422 -0.3099 -0.3458  0.0231
 5240W        W48231  15.655  16.790   7.730 -0.2109 -0.1127  0.1508
 5241W        W48232  24.273  30.699  27.552 -0.0797 -0.2183  0.2263
 5242W        W48233  20.857  24.738   7.513  0.2247 -0.1964 -0.3281
 5243W        W48234  26.346  20.480   8.198 -0.1314 -0.2454  0.2695
 5244W        W48235   5.413  29.970   0.093  0.1080  0.2414  0.2119
 5245W        W48236  20.255  20.110  26.092 -0.0462 -0.2132  0.0373
 5246W        W48237  25.581  23.476  16.892  0.0959 -0.2276  0.1149
 5247W        W48238  16.914  24.729   6.688 -0.1100 -0.0521 -0.2551
 5248W        W48239   0.080  22.077  27.990  0.2460 -0.4452  0.2306
 5249W        W48240  25.137  25.392   8.540 -0.1344  0.0780 -0.1103
 5250W        W48241  30.550  27.092   3.693  0.1367  0.4440  0.2702
 5251W        W48242  19.536  20.023   1.346  0.1771  0.1720  0.2620
 5252W        W48243  34.068   9.343   8.171  0.4288  0.0859 -0.2348
 5253W        W48244  24.640  22.988   1.723  0.3689  0.0096 -0.1246
 5254W        W48245  16.978   0.438   3.422 -0.1108  0.0687 -0.0354
 5255W        W48246  12.224  15.663  27.850  0.1138  0.0086 -0.0134
 5256W        W48247  14.838  23.437   4.999  0.0823 -0.1898  0.0055
 5257W        W48248   6.251  25.474   7.207  0.2547  0.1666  0.0298
 5258W        W48249  22.428  24.491   0.714  0.0761  0.0972 -0.1495
 5259W        W48250  27.252   7.381   6.479 -0.0504  0.2301  0.1041
 5260W        W48251  12.130  32.914   8.118 -0.0826 -0.1414 -0.0596
 5261W        W48252  23.001  16.909  24.330 -0.1213  0.1010 -0.1803
 5262W        W48253  17.084   3.506  25.263 -0.0821 -0.2233  0.2573
 5263W        W48254  12.710  14.538  19.978  0.1165  0.2275  0.0040
 5264W        W48255   8.008  28.094   1.201  0.2392  0.0550  0.2198
 5265W        W48256   3.791  13.038   9.843 -0.0290  0.0281  0.3739
 5266W        W48257  21.730  16.443   0.165 -0.0341 -0.0449 -0.0264
 5267W        W48258  33.288  33.304   1.486 -0.1446  0.0597  0.1314
 5268W        W48259  12.989  22.631  19.453 -0.1570  0.0659 -0.4583
 5269W        W48260  17.709  12.786   4.765 -0.0315  0.1730 -0.0825
 5270W        W48261  20.538  24.091   8.991  0.0979 -0.2161  0.1683
 5271W        W48262  10.423   3.166   0.406 -0.1841 -0.0352  0.3032
 5272W        W48263   5.695  25.595   9.193 -0.4649 -0.0214  0.2377
 5273W        W48264   7.014  18.330   6.628  0.2261 -0.2837  0.3544
 5274W        W48265  33.496  27.532   4.421  0.1538 -0.0422 -0.0520
 5275W        W48266   9.906  22.072   7.681 -0.3244  0.0304  0.3167
 5276W        W48267  12.391  20.047  18.904 -0.1224 -0.1930 -0.4427
 5277W        W48268  12.119  27.437   1.664 -0.0156 -0.2916  0.0870
 5278W        W48269  34.236  12.826   4.284  0.2637 -0.1128 -0.0124
 5279W        W48270  16.475  26.044   7.336  0.1996 -0.2743  0.0361
 5280W        W48271   0.103  25.886  27.817 -0.1860  0.1633 -0.1522
 5281W        W48272  17.183  20.151  23.912 -0.0080  0.3990  0.0564
 5282W        W48273  23.999  25.711  28.425  0.0609  0.0948  0.0624
 5283W        W48274  13.448  34.507   9.375  0.0759 -0.0501 -0.3396
 5284W        W48275   6.961  33.287   9.844 -0.2727 -0.1952  0.2294
 5285W        W48276   3.601  14.392   9.432 -0.0904  0.0609  0.0898
 5286W        W48277  25.729  12.963  10.105 -0.0192  0.1952 -0.3979
 5287W        W48278  18.039  22.769   8.188  0.1410 -0.0321 -0.1684
 5288W        W48279  23.177  25.763   3.086 -0.2531 -0.1424 -0.0460
 5289W        W48280   7.634  12.078   8.799  0.0384  0.2910  0.1493
 5290W        W48281  21.322  26.423   6.058 -0.1986  0.2515 -0.3300
 5291W        W48282   3.883  14.160   8.947  0.0376  0.0548 -0.3475
 5292W        W48283  15.618  21.676  26.337  0.1303 -0.0951 -0.2502
 5293W        W48284  30.537   9.143   8.898 -0.1303 -0.1847  0.4934
 5294W        W48285  17.949  29.783   8.428 -0.1408  0.1049 -0.0395
 5295W        W48286   9.630  30.051   6.045 -0.0638 -0.2078 -0.2177
 5296W        W48287   3.475   3.594  10.543 -0.0435 -0.0826  0.0842
 5297W        W48288  33.159  32.477   9.314 -0.1933  0.1225 -0.0727
 5298W        W48289  16.682  21.224   1.606 -0.0296 -0.2533  0.0217
 5299W        W48290  30.922  17.589  22.298  0.2165  0.2260  0.1741
 5300W        W48291   8.640  31.061  23.139 -0.1729  0.0246  0.1707
 5301W        W48292  12.375  31.230  21.355  0.2171 -0.0379  0.2663
 5302W        W48293  21.850  31.892  22.734  0.0722  0.1138 -0.3680
 5303W        W48294  23.706   0.455   5.944 -0.0797 -0.3815 -0.3004
 5304W        W48295  25.039  27.057   3.502  0.2469  0.2827 -0.1148
 5305W        W48296  19.654  27.202   7.163 -0.2922 -0.1628  0.0480
 5306W        W48297  14.784  26.290  27.388 -0.3637 -0.0638  0.1415
 5307W        W48298  11.545   0.760   8.176  0.1766  0.2590  0.2530
 5308W        W48299   9.679   7.135   9.288  0.1992  0.3798  0.0904
 5309W        W48300   7.759  22.392  25.532  0.1192 -0.0246 -0.1647
 5310W        W48301  34.186  26.463  24.232 -0.2571 -0.1036  0.1470
 5311W        W48302  12.428  22.781   4.274  0.1984 -0.3221 -0.1248
 5312W        W48303  14.366  17.804   2.629 -0.0787  0.1099 -0.1336
 5313W        W48304  28.379  14.478   9.737 -0.2870  0.1854  0.1888
 5314W        W48305   3.107  30.115   8.634  0.2199  0.0298 -0.3679
 5315W        W48306  17.522  24.241   8.614  0.0921 -0.0869  0.0764
 5316W        W48307   2.837  28.842   1.841 -0.2339  0.1441 -0.0531
 5317W        W48308   6.459  25.776  28.803  0.1979  0.1756  0.2320
 5318W        W48309  13.390  26.507  28.800 -0.0647 -0.0492  0.3461
 5319W        W48310   7.003  11.382  11.204 -0.0459  0.0316 -0.0307
 5320W        W48311  29.809   1.684   0.192 -0.2266  0.1105 -0.2262
 5321W        W48312  23.973  29.439   7.840  0.0862  0.1964  0.3318
 5322W        W48313  26.042  22.975  28.751 -0.0339  0.2237 -0.1293
 5323W        W48314   7.262  26.039  29.065  0.3256 -0.1003 -0.0252
 5324W        W48315  10.920  26.251  27.709 -0.3305 -0.0100  0.0008
 5325W        W48316  15.916  13.309   4.861 -0.0048  0.0604 -0.0744
 5326W        W48317  13.868  13.136   8.498 -0.0023  0.0909  0.0604
 5327W        W48318  16.774  27.604   5.055 -0.0304 -0.0303 -0.2658
 5328W        W48319  10.225  30.753  27.216  0.1190 -0.3269  0.0176
 5329W        W48320  16.136   7.869   8.967  0.0750  0.2031 -0.2357
 5330W        W48321  18.588   9.431  23.896 -0.0336  0.1500 -0.2364
 5331W        W48322   9.313  25.791   4.723  0.1708 -0.0844 -0.0975
 5332W        W48323  11.283  22.298  26.926 -0.1966  0.0962 -0.0073
 5333W        W48324  16.208   2.512  26.309  0.0881 -0.1022  0.0232
 5334W        W48325   9.871   1.791  15.830  0.1112 -0.0609  0.0414
 5335W        W48326  20.673  27.791   4.004  0.0937 -0.1682 -0.0430
 5336W        W48327   2.658  14.286  29.171  0.0260  0.0999 -0.1272
 5337W        W48328  12.606   4.965   3.418  0.0584 -0.2911  0.4088
 5338W        W48329  18.015  15.534   3.524  0.0406 -0.1158 -0.0763
 5339W        W48330   4.714  20.373   3.377 -0.2330  0.1313 -0.1002
 5340W        W48331  21.984  21.946  22.856 -0.0287  0.1865  0.1255
 5341W        W48332   0.054  22.198  19.844 -0.1265 -0.0675  0.0824
 5342W        W48333  15.447  25.248   3.921 -0.0784 -0.1418  0.2037
 5343W        W48334  29.605  25.583   5.512 -0.0891  0.1155 -0.1916
 5344W        W48335  12.645  13.235  20.497 -0.1816  0.1586 -0.0325
 5345W        W48336  12.383  29.148  23.208  0.1998  0.0960 -0.3823
 5346W        W48337  31.541  24.762   0.003 -0.1696 -0.0094  0.3055
 5347W        W48338   7.229   8.726   7.987  0.2137 -0.1876  0.0720
 5348W        W48339  34.008  22.375  28.322 -0.1930 -0.0496  0.5400
 5349W        W48340  16.203  29.897   1.426 -0.1603  0.1602  0.1166
 5350W        W48341  32.174  31.836   8.364  0.0304  0.0409  0.3224
 5351W        W48342   5.544  19.044   4.265 -0.0233  0.2363  0.3075
 5352W        W48343  17.360  26.226  25.970  0.1417  0.1555  0.0173
 5353W        W48344  19.551   1.466   8.433 -0.1021  0.2440 -0.4335
 5354W        W48345   9.452  16.120   5.440  0.4548 -0.0339 -0.3641
 5355W        W48346  25.288  33.445  29.221  0.1958 -0.0436 -0.0467
 5356W        W48347  16.145  32.559   9.275 -0.1790  0.0594 -0.0242
 5357W        W48348   4.316  25.311  18.931  0.2019 -0.1539 -0.0867
 5358W        W48349  19.234  22.449  28.092 -0.0917 -0.1731 -0.0105
 5359W        W48350  15.266  11.811   5.913 -0.1550 -0.0785  0.0868
 5360W        W48351  11.873  22.705   7.141  0.0955  0.3817  0.1097
 5361W        W48352  34.343  23.634   5.323 -0.0600  0.2995 -0.0180
 5362W        W48353  15.892   9.797   1.117  0.3159  0.1110  0.0081
 5363W        W48354   6.029  29.730   3.395  0.1359 -0.1599 -0.2054
 5364W        W48355  12.228  21.889   9.612 -0.0080  0.1946  0.0369
 5365W        W48356   3.718   4.720   2.796  0.2580  0.5060 -0.1083
 5366W        W48357   5.165  16.849   5.690  0.1517 -0.1344 -0.0730
 5367W        W48358  25.417  20.790   4.294 -0.1089  0.3976 -0.3676
 5368W        W48359  13.155  22.119   2.521 -0.1506  0.6009 -0.0065
 5369W        W48360  11.231  18.323   4.632  0.2354  0.5048  0.1727
 5370W        W48361  15.537   7.301   0.558  0.0063 -0.0958  0.2170
 5371W        W48362  31.539  12.775   4.564 -0.1446 -0.1199 -0.0405
 5372W        W48363  13.588   8.203   1.886  0.0197  0.1215 -0.0534
 5373W        W48364  14.323   2.174   1.451  0.0545 -0.0456 -0.1751
 5374W        W48365  21.345  21.256   7.149 -0.0162 -0.1140  0.0176
 5375W        W48366  14.261  21.683   8.582  0.0271  0.0051  0.0408
 5376W        W48367   9.677  27.537   1.237  0.2082  0.3366 -0.0308
 5377W        W48368  15.400  16.649  29.129  0.2273  0.1182  0.2547
 5378W        W48369  24.006  17.596   1.600 -0.0180 -0.0379  0.0082
 5379W        W48370  15.253  32.487  28.408 -0.0127  0.3944  0.0151
 5380W        W48371  27.496  32.400  26.298 -0.0096  0.0531 -0.1655
 5381W        W48372  14.351  20.843  28.890 -0.0323  0.1045 -0.2331
 5382W        W48373  13.049  20.381   8.777  0.2790 -0.4114 -0.0882
 5383W        W48374  16.918   9.120   5.755 -0.0996 -0.2132  0.0651
 5384W        W48375  28.358   4.824  26.901  0.0313  0.0870  0.1833
 5385W        W48376   9.619  23.409  27.768  0.0787 -0.2088 -0.0756
 5386W        W48377   9.962  21.388   7.543 -0.4257 -0.0121  0.0497
 5387W        W48378  16.357  21.796   4.495  0.1102 -0.1449  0.0157
 5388W        W48379  25.877  27.187   5.157  0.1769 -0.2633  0.1329
 5389W        W48380   5.866  29.504   1.435 -0.2839 -0.1824 -0.1436
 5390W        W48381  13.501  26.988   6.857  0.4218  0.0205 -0.2531
 5391W        W48382   8.031  18.402   6.983 -0.5058 -0.0406 -0.3393
 5392W        W48383   8.453  18.136  10.378  0.1388 -0.3520  0.0249
 5393W        W48384   4.289  11.024   2.791  0.0215 -0.1126 -0.0485
 5394W        W48385  14.731   8.767   8.454  0.2323  0.3826 -0.3436
 5395W        W48386  33.306  23.325   8.316 -0.1494  0.3172  0.4757
 5396W        W48387  14.544  27.542   8.405  0.3207 -0.1262  0.2685
 5397W        W48388  15.668  19.356   8.533 -0.0392 -0.0479 -0.2623
 5398W        W48389  13.105  17.514   9.760  0.1016  0.1340 -0.0411
 5399W        W48390   4.427  24.318   5.200 -0.0335 -0.3339 -0.0169
 5400W        W48391  11.814  12.863  25.638  0.1123  0.1660  0.2050
 5401W        W48392   7.090   7.987  10.595 -0.1169  0.2373 -0.0686
 5402W        W48393  12.261  29.127  25.719  0.3791  0.0997 -0.3166
 5403W        W48394   6.958  12.144   5.754  0.1844  0.1623 -0.0510
 5404W        W48395  13.834  29.781   4.510  0.1081 -0.0129  0.0253
 5405W        W48396   6.549   7.322   4.023  0.1577 -0.0065  0.2556
 5406W        W48397  16.997  22.732   5.958 -0.0986 -0.1097 -0.0365
 5407W        W48398  11.818  16.680  24.620  0.1512  0.1232  0.0040
 5408W        W48399  32.436  20.283   0.800  0.0390 -0.2152 -0.0738
 5409W        W48400  15.958  16.247   7.065  0.1745  0.2523  0.3139
 5410W        W48401   7.171  24.540  29.049  0.1208 -0.1907 -0.2564
 5411W        W48402  14.930  25.636   6.864  0.0421  0.3345 -0.0200
 5412W        W48403  10.803  12.797   8.564  0.1306  0.0291 -0.1533
 5413W        W48404   2.949  29.330   9.526  0.0422  0.0038  0.4178
 5414W        W48405   2.515  20.286   4.638 -0.1643  0.0471  0.2236
 5415W        W48406  10.631  22.687  26.312  0.2144 -0.3404  0.2407
 5416W        W48407   5.899  24.919  25.909 -0.0427  0.0644  0.2132
 5417W        W48408  13.723  17.318   4.567 -0.0670  0.0095 -0.3153
 5418W        W48409  13.590  19.957   6.475 -0.2378 -0.0095 -0.1897
 5419W        W48410  21.887  25.053   6.806  0.1907 -0.0270  0.1172
 5420W        W48411  33.365  21.499  25.459 -0.0577  0.0045 -0.1785
 5421W        W48412   8.022  16.395   3.967 -0.0731  0.0033 -0.2564
 5422W        W48413  23.754  29.500   3.022 -0.0537 -0.2811  0.0544
 5423W        W48414  32.603  24.941  22.652 -0.0157 -0.5114 -0.0542
 5424W        W48415  28.094  14.988   3.373 -0.0548 -0.0376  0.1424
 5425W        W48416  14.809  22.890   8.823  0.1646  0.0437  0.1375
 5426W        W48417   0.694   9.305   0.527  0.0253  0.0207  0.4316
 5427W        W48418  34.587  18.342   9.311 -0.3718 -0.0595  0.0815
 5428W        W48419   9.212  18.634   0.522 -0.2769 -0.1797  0.1392
 5429W        W48420  24.018  14.630   0.846  0.0441 -0.1661 -0.0516
 5430W        W48421  33.171  23.690   9.297 -0.3870 -0.0201  0.1409
 5431W        W48422  25.565  22.493   9.594  0.0323  0.2776  0.0166
 5432W        W48423   8.711  19.466  25.848  0.0553 -0.0316 -0.1741
 5433W        W48424  18.353  23.904   4.626 -0.4617  0.0340  0.2780
 5434W        W48425  19.247   5.723   0.635 -0.0816 -0.3064  0.1208
 5435W        W48426   7.149   7.159  24.417  0.0537 -0.0109 -0.1404
 5436W        W48427  15.775  32.735  19.952 -0.2727  0.0476  0.2526
 5437W        W48428  16.410  14.318  23.993 -0.1992  0.1472  0.3911
 5438W        W48429  16.173  10.721   7.612  0.0854 -0.0653 -0.2301
 5439W        W48430  22.193   1.342   9.731 -0.2660  0.0477  0.0616
 5440W        W48431  16.685  14.877   0.830 -0.0046  0.5405 -0.4104
 5441W        W48432  17.732   5.748   7.906 -0.0384  0.0483 -0.0031
 5442W        W48433  18.073  29.611   9.762  0.0859 -0.0807  0.0259
 5443W        W48434  19.373  17.408  25.255 -0.0705 -0.3378 -0.2665
 5444W        W48435  25.567  16.908   9.125  0.1263 -0.2139 -0.0634
 5445W        W48436  11.582  15.949  21.923  0.4697  0.0082 -0.2155
 5446W        W48437  22.373  15.396  23.346  0.1627 -0.1008 -0.0690
 5447W        W48438  15.323   5.911  23.052  0.0844 -0.0800 -0.0599
 5448W        W48439   7.877  26.187   6.708  0.1361  0.2534  0.2665
 5449W        W48440  13.590  24.336   9.348 -0.1339 -0.1356 -0.1326
 5450W        W48441   9.563   6.818  10.977 -0.1795  0.3088 -0.2953
 5451W        W48442   6.833  15.946   3.685 -0.2028  0.4072  0.2778
 5452W        W48443   8.509   5.809   3.570 -0.0132  0.2241 -0.2423
 5453W        W48444   9.731  25.346  27.324 -0.0305 -0.0829  0.1780
 5454W        W48445  21.811   1.598   8.724  0.0824  0.0908 -0.1461
 5455W        W48446  15.515  26.421   1.643 -0.1386 -0.0307  0.0516
 5456W        W48447  19.473  20.165   7.428 -0.0854 -0.3504 -0.2240
 5457W        W48448   8.347   9.166  22.550  0.0659 -0.2206 -0.0344
 5458W        W48449  20.748  28.971  26.052 -0.2531  0.1632  0.0528
 5459W        W48450  12.220  17.116   5.978 -0.0572 -0.1713 -0.0956
 5460W        W48451  27.788  23.399  23.451  0.1948 -0.0173 -0.2784
 5461W        W48452   8.878  11.228  23.797  0.1963 -0.0534 -0.1406
 5462W        W48453   3.766  31.270   6.573  0.0352 -0.3109  0.2861
 5463W        W48454   4.726   6.714  10.834  0.0389 -0.0499  0.1361
 5464W        W48455  17.647  27.014  25.669  0.1717 -0.1205 -0.1237
 5465W        W48456   9.644  18.902  22.694 -0.4611 -0.3641 -0.1636
 5466W        W48457  17.686  15.115   8.330  0.0257 -0.1315 -0.2779
 5467W        W48458  25.136  27.027   8.185 -0.0751  0.3518  0.0455
 5468W        W48459   9.426   2.773   4.874 -0.2302 -0.0907  0.0786
 5469W        W48460  26.074  22.996   0.908 -0.2074 -0.1382 -0.0039
 5470W        W48461   8.962   2.464   8.685  0.3076  0.1877 -0.0821
 5471W        W48462  19.646   1.569   9.941  0.1339  0.0147  0.0061
 5472W        W48463  19.351  16.123  24.227 -0.0046  0.0441  0.1567
 5473W        W48464  16.557  12.981   5.670 -0.0341  0.1207 -0.1606
 5474W        W48465   7.148  19.646   6.944  0.0158  0.1051 -0.0343
 5475W        W48466  21.840  23.823  28.864 -0.1027  0.2425 -0.3639
 5476W        W48467  15.944  28.653   4.854 -0.0770  0.0558  0.0094
 5477W        W48468   9.745  15.284   5.719  0.3165  0.0938  0.0075
 5478W        W48469  20.712   1.118   6.810  0.1221  0.5353  0.1375
 5479W        W48470  24.662  25.415  15.075  0.2467  0.1211  0.5344
 5480W        W48471  11.071   6.788   4.431  0.1882 -0.0112 -0.2188
 5481W        W48472   4.322  25.181   7.024  0.1357  0.1167 -0.0055
 5482W        W48473  10.432  30.401  28.640  0.2357  0.0482  0.0250
 5483W        W48474   1.131  34.029  28.537 -0.1991  0.0720 -0.2499
 5484W        W48475  10.761  23.483   6.437  0.0894  0.0112  0.0739
 5485W        W48476  12.784   5.501   9.832 -0.1079  0.0792  0.0624
 5486W        W48477  14.447  13.772  21.252 -0.1480  0.0286 -0.0456
 5487W        W48478  27.558  13.969   4.042 -0.1472 -0.0245  0.0433
 5488W        W48479  30.080  14.182   7.037  0.2740 -0.2685  0.3885
 5489W        W48480   4.559  13.178  28.274  0.0070  0.2058  0.2390
 5490W        W48481  24.162  18.861   3.953  0.1769  0.0160  0.1969
 5491W        W48482  28.606  16.052  21.618  0.1056 -0.2606 -0.2570
 5492W        W48483  34.183  28.921  16.301 -0.0875 -0.0909  0.1193
 5493W        W48484  19.471  13.743   2.568  0.3230 -0.0123 -0.0236
 5494W        W48485  11.597  23.338  23.245  0.0674 -0.0218 -0.0541
 5495W        W48486   9.322  18.290   1.498 -0.4300  0.1827 -0.5996
 5496W        W48487  18.533  18.191  28.115 -0.2348  0.2278 -0.0096
 5497W        W48488   1.218  21.456  14.649 -0.1404 -0.1148  0.1507
 5498W        W48489  11.706   8.276   4.464 -0.1676 -0.1346 -0.1657
 5499W        W48490  11.760  25.758  22.836  0.0177 -0.1211  0.0886
 5500W        W48491  14.662  18.891   0.433 -0.4170  0.3375 -0.1161
 5501W        W48492  10.618   5.760  28.624 -0.0307 -0.2415  0.0120
 5502W        W48493  23.637  25.038  25.939 -0.0054  0.2619  0.2049
 5503W        W48494  12.550  29.711   4.931 -0.0097  0.1141  0.1135
 5504W        W48495  23.979  14.833  22.974  0.1208  0.0994  0.0324
 5505W        W48496  27.618   9.673   1.278  0.2141  0.3642  0.1808
 5506W        W48497  19.271   9.979   6.683  0.1369  0.2247 -0.1520
 5507W        W48498  18.858  12.380   5.283  0.2892 -0.1720 -0.0761
 5508W        W48499  18.748  24.327  29.134 -0.3839  0.1177 -0.0998
 5509W        W48500  14.835  15.396   4.173 -0.0608  0.1547  0.0369
 5510W        W48501  25.467  16.881   7.684 -0.1829  0.1101  0.1238
 5511W        W48502  15.653   3.376  14.278 -0.2201  0.0496 -0.1022
 5512W        W48503  11.573   8.680  28.289  0.0397 -0.0252 -0.0197
 5513W        W48504  17.145  13.560   4.382 -0.0708 -0.1911  0.0946
 5514W        W48505  27.007  23.890   4.069  0.0201 -0.0255 -0.1948
 5515W        W48506  32.463  14.974   6.946  0.1619  0.2087 -0.4557
 5516W        W48507  25.686  21.787  22.309 -0.1364 -0.3027  0.1314
 5517W        W48508   3.203  25.631  19.274 -0.1941 -0.4417  0.1136
 5518W        W48509   9.987   9.199   6.874 -0.0189 -0.3271 -0.0606
 5519W        W48510  23.444  17.416  25.106 -0.0393 -0.0746 -0.1012
 5520W        W48511  15.562  15.294   8.853 -0.0178  0.0516  0.3256
 5521W        W48512  20.711  23.673   5.430 -0.2529 -0.1335  0.0641
 5522W        W48513  32.300  26.549   6.202 -0.0218 -0.1120 -0.0179
 5523W        W48514   7.277  20.559   2.901  0.1659 -0.0813 -0.0610
 5524W        W48515  34.172  33.083   3.053  0.0723  0.0694 -0.1196
 5525W        W48516   7.841  30.054  19.977  0.1891 -0.2459  0.0349
 5526W        W48517  12.884  33.482   5.849  0.1710  0.2843 -0.0218
 5527W        W48518  21.564   2.063   9.882 -0.1802 -0.2043 -0.0398
 5528W        W48519   8.192  29.006   6.397 -0.0672  0.0215 -0.1624
 5529W        W48520  12.796  15.900  21.691 -0.2949  0.0346  0.1747
 5530W        W48521  19.575  23.485   6.985  0.0429 -0.1547 -0.1856
 5531W        W48522  12.357  25.244   9.354  0.0653  0.0522 -0.0690
 5532W        W48523  10.773  20.589  23.622 -0.1565 -0.2799  0.1436
 5533W        W48524  14.052   1.711   9.586  0.2103  0.1287  0.0241
 5534W        W48525  14.303   9.090   3.297 -0.2773  0.0580  0.0455
 5535W        W48526  25.264  25.685   1.685 -0.0638  0.1246 -0.1419
 5536W        W48527  13.438  21.209   4.181  0.3497 -0.0767 -0.0030
 5537W        W48528   6.534  25.879   8.697 -0.1521  0.0599 -0.1805
 5538W        W48529  14.355  29.810  25.620  0.1656  0.2072  0.3437
 5539W        W48530  32.176  23.529   6.063 -0.0183 -0.2348  0.2713
 5540W        W48531  21.128  22.518  26.030 -0.1515 -0.1502 -0.2110
 5541W        W48532  27.169  25.769   3.449  0.0995  0.5573 -0.0023
 5542W        W48533   3.632  29.253   1.451 -0.1058  0.0738 -0.2028
 5543W        W48534  23.218  11.911   2.967 -0.0173 -0.0879 -0.0278
 5544W        W48535  23.335  22.508   0.746  0.0495 -0.0409 -0.1003
 5545W        W48536  15.736   1.597  10.949 -0.1643  0.2287  0.2235
 5546W        W48537  11.734   7.046   6.136 -0.1431 -0.0604  0.0589
 5547W        W48538   9.189  15.779  22.454 -0.1074 -0.3709 -0.0565
 5548W        W48539  31.664  17.126   1.625 -0.2902 -0.0619 -0.1655
 5549W        W48540  21.048  25.887   6.627 -0.1979  0.1144 -0.0640
 5550W        W48541  26.686  27.059  24.067  0.1996 -0.0671  0.1103
 5551W        W48542  30.999  28.888   8.691 -0.0335  0.1639  0.0175
 5552W        W48543  21.270  24.799  23.825  0.3123 -0.1697 -0.2935
 5553W        W48544  20.856  14.959   3.996 -0.0032  0.0056  0.0948
 5554W        W48545  19.627  10.533   6.124  0.0342  0.2544  0.2661
 5555W        W48546  14.300  19.416  28.959  0.1843 -0.1247 -0.0524
 5556W        W48547  30.144  24.142  27.488 -0.0400 -0.3242  0.1781
 5557W        W48548  21.050  22.565   4.339  0.2334 -0.1716  0.2638
 5558W        W48549  32.703   2.460  15.000  0.0838  0.2533  0.3685
 5559W        W48550  18.050  19.338   0.201 -0.2462  0.1291 -0.0925
 5560W        W48551   4.493  21.180   8.979 -0.0022 -0.3158 -0.1071
 5561W        W48552   9.598  18.472   8.612 -0.1442 -0.2243  0.2213
 5562W        W48553  11.393  25.354   0.955  0.0047  0.1962 -0.1914
 5563W        W48554  18.260  11.073  28.218 -0.0719  0.1676 -0.0931
 5564W        W48555  25.764  19.037   4.490 -0.2203  0.1735  0.1653
 5565W        W48556  12.472  24.188   1.130  0.1934 -0.3016  0.1311
 5566W        W48557   0.087   0.145   6.247 -0.3181  0.0817 -0.0281
 5567W        W48558   9.218   3.078   8.755 -0.3768  0.2042  0.1526
 5568W        W48559  23.084  23.836   0.906 -0.0365 -0.2705 -0.2125
 5569W        W48560  34.637  17.421   4.912 -0.2190  0.4710 -0.1765
 5570W        W48561  28.426  22.112   8.244  0.2141 -0.1547  0.2146
 5571W        W48562  15.613  14.153   5.823 -0.0629  0.0580 -0.4668
 5572W        W48563  23.491  18.566  27.456 -0.1119 -0.2630  0.0289
 5573W        W48564  15.562  28.501   6.750  0.1159 -0.1849 -0.1116
 5574W        W48565  17.088  22.680   2.357  0.0037  0.1804  0.1131
 5575W        W48566  12.410  29.095   6.093  0.0175 -0.5672 -0.0961
 5576W        W48567   6.345  27.936   6.558 -0.0344  0.0530 -0.2499
 5577W        W48568   6.479   0.663   0.711 -0.0667 -0.0539  0.1820
 5578W        W48569  11.213  19.463   5.224 -0.3261  0.0579  0.1051
 5579W        W48570   8.558  21.652  10.806  0.3056  0.1219  0.0181
 5580W        W48571  12.798  32.751  27.917 -0.1657 -0.1368 -0.2852
 5581W        W48572  29.037  23.284  21.027  0.1153  0.0536 -0.2243
 5582W        W48573  29.426  18.064   0.249  0.2038 -0.0858 -0.2150
 5583W        W48574  15.187  16.710   4.170  0.3694 -0.0832 -0.0305
 5584W        W48575  13.062  23.951   3.729 -0.1320 -0.0570 -0.0497
 5585W        W48576  19.750  25.900   9.111 -0.1268 -0.1282 -0.0615
 5586W        W48577   8.858  15.221   1.594  0.0319  0.3593 -0.0344
 5587W        W48578  25.815   7.820   6.858 -0.0376  0.0589  0.0610
 5588W        W48579  25.345  18.077  18.759  0.3575  0.3243  0.1319
 5589W        W48580  23.834  20.975   7.420 -0.0192 -0.1686  0.0872
 5590W        W48581  27.538  19.864   1.138  0.0438 -0.3033  0.1897
 5591W        W48582  20.375  23.946   1.312 -0.2453 -0.0464 -0.0400
 5592W        W48583   7.429   9.873   4.724 -0.0850  0.0132 -0.1237
 5593W        W48584  14.932  12.307   4.077 -0.1050  0.3497  0.2143
 5594W        W48585  23.635  26.418   7.677  0.2152 -0.3446  0.0877
 5595W        W48586  15.915  14.791   6.322 -0.2187 -0.3061  0.1454
 5596W        W48587  30.860  13.071   9.880 -0.3555 -0.2765 -0.2221
 5597W        W48588  21.870  10.635   3.967  0.2347 -0.1235 -0.2485
 5598W        W48589  18.044  28.484   9.490  0.0686  0.2411  0.1786
 5599W        W48590   6.076  15.562   2.639  0.2770  0.3919 -0.1105
 5600W        W48591   6.580  13.110   7.620 -0.0192 -0.4819  0.0128
 5601W        W48592  24.770  20.569  21.918 -0.0132 -0.0424 -0.1408
 5602W        W48593  31.165  17.947   4.509  0.1300 -0.2364  0.0600
 5603W        W48594  24.879   5.070   1.901  0.0671 -0.5914 -0.2328
 5604W        W48595  25.609  15.606   4.784  0.0481  0.0149 -0.2720
 5605W        W48596  15.617  33.780  29.057 -0.3958 -0.2691  0.0078
 5606W        W48597  29.860  27.112   8.300 -0.0004  0.0585  0.2049
 5607W        W48598  17.219  19.255   4.464 -0.4126 -0.0511 -0.1368
 5608W        W48599  20.639  17.422   4.935  0.4560 -0.0693 -0.2619
 5609W        W48600  24.386  30.288   6.330  0.4147 -0.0809 -0.1167
 5610W        W48601  22.630  24.527  27.522 -0.0069 -0.2863  0.2172
 5611W        W48602  15.119  29.491  26.634 -0.1675  0.2657 -0.0887
 5612W        W48603  10.610  16.057   3.488 -0.2025  0.2919  0.2632
 5613W        W48604   0.800  18.984  25.812 -0.0418  0.4508  0.2172
 5614W        W48605  22.527  15.659   7.762 -0.2454  0.0282  0.3401
 5615W        W48606  24.962  14.986  28.699  0.3040 -0.3627  0.2247
 5616W        W48607  16.393  13.132   1.234 -0.3729 -0.0583 -0.1833
 5617W        W48608   1.221  26.799   6.654  0.2218  0.1793 -0.0579
 5618W        W48609  12.851  19.592   8.474  0.0985 -0.2885 -0.0258
 5619W        W48610  16.737  12.979  25.207 -0.0603 -0.2159 -0.1119
 5620W        W48611  11.185  17.257   8.875 -0.3855 -0.2160 -0.0130
 5621W        W48612  14.416  31.730  23.372  0.0447 -0.2862  0.0966
 5622W        W48613   4.528   5.996  11.388 -0.1732 -0.1080  0.0675
 5623W        W48614   1.459  20.661  28.273 -0.1963  0.3160  0.0992
 5624W        W48615  16.985  18.904  26.673 -0.2373 -0.0011  0.1106
 5625W        W48616  21.828  19.541   6.045  0.3081  0.1545 -0.1436
 5626W        W48617   9.412  24.157   5.398 -0.2073 -0.0407 -0.2657
 5627W        W48618   8.936   5.844  21.012  0.0768 -0.2318 -0.0290
 5628W        W48619  17.146   7.797  29.182  0.1320 -0.0422 -0.2268
 5629W        W48620  14.603  26.129   9.532  0.2760 -0.2655 -0.1555
 5630W        W48621   8.797  12.892   1.691 -0.2515 -0.0013  0.4161
 5631W        W48622  26.982  27.661   7.586 -0.1349  0.1018 -0.0445
 5632W        W48623  22.758  31.541  28.824  0.0987 -0.1351 -0.0397
 5633W        W48624  18.971  25.447   5.817 -0.2216 -0.3120  0.0152
 5634W        W48625  27.171  26.756   1.831 -0.0208 -0.0048 -0.2838
 5635W        W48626   9.377   0.534  29.070  0.2643  0.0471 -0.2002
 5636W        W48627   7.741  32.207   7.295 -0.0599 -0.0243  0.1637
 5637W        W48628  20.363  20.968  29.169 -0.3526 -0.2337 -0.0152
 5638W        W48629  19.321  25.832   5.984  0.0356 -0.1436  0.3332
 5639W        W48630  23.644  15.498  22.485 -0.2980 -0.2397  0.0016
 5640W        W48631  15.571  33.409   7.467  0.1006  0.2104  0.1396
 5641W        W48632   5.569  18.417   3.366  0.1136  0.0191 -0.0410
 5642W        W48633  17.251  32.346  28.506  0.0643 -0.1349 -0.1768
 5643W        W48634   0.646   8.576   6.030 -0.2083  0.0785  0.1105
 5644W        W48635   6.081  21.390   5.964 -0.4978  0.2229 -0.2214
 5645W        W48636   9.850  19.143  21.222  0.1385 -0.3818  0.1450
 5646W        W48637  23.871  16.529   9.449  0.0088  0.0788  0.0197
 5647W        W48638  15.734  16.122   1.754 -0.0497  0.1768  0.1927
 5648W        W48639  25.926  28.706   1.094 -0.1948  0.2350 -0.0214
 5649W        W48640  15.716  13.184  19.484  0.1310  0.2009 -0.0932
 5650W        W48641  18.953  22.179  22.235  0.0280  0.1786 -0.2570
 5651W        W48642   5.271  32.985   2.776 -0.0235  0.0676  0.4686
 5652W        W48643  20.698  29.226  18.642 -0.2247  0.1877 -0.2699
 5653W        W48644  33.766  30.350   3.906 -0.1507 -0.0478 -0.1644
 5654W        W48645  16.418  10.625  22.029  0.2219 -0.3991 -0.1180
 5655W        W48646  25.012  19.659  26.019 -0.1017  0.0359  0.1198
 5656W        W48647   5.815  24.658   5.119 -0.0379 -0.1048  0.1632
 5657W        W48648   8.467  29.588  28.621 -0.0898 -0.3446 -0.1969
 5658W        W48649  14.924   2.069   4.527 -0.1181  0.3994  0.1379
 5659W        W48650   0.891  31.089   6.624 -0.0238 -0.2168  0.0159
 5660W        W48651  26.282   4.701   5.980  0.0663  0.2383 -0.0684
 5661W        W48652  21.634  15.635   6.706  0.0513 -0.1524 -0.1049
 5662W        W48653   6.610  28.469   5.473 -0.2544 -0.0162 -0.0982
 5663W        W48654  28.156  33.585   0.253  0.1944  0.0796 -0.0566
 5664W        W48655   4.096  26.554  26.011 -0.3342 -0.4529  0.1984
 5665W        W48656   1.331   2.626   6.101  0.0068  0.1130 -0.0084
 5666W        W48657  13.297  20.284  25.748  0.0043 -0.1902  0.0166
 5667W        W48658   8.126   4.114   2.520  0.3544 -0.2127 -0.1235
 5668W        W48659  15.060  31.274  21.614 -0.0668  0.0793  0.2290
 5669W        W48660  17.664  18.308  27.226  0.2037  0.0789  0.1389
 5670W        W48661  27.560  22.226  24.297 -0.0666 -0.2211 -0.0425
 5671W        W48662  13.085  27.873  19.545 -0.1207 -0.0729  0.3838
 5672W        W48663   2.602  30.008   1.053  0.1506  0.1751  0.0608
 5673W        W48664  12.158  18.761   0.586  0.0895 -0.1822 -0.0154
 5674W        W48665  20.789  25.239   4.930 -0.3776  0.1314  0.0483
 5675W        W48666  10.834  19.726   6.548 -0.0046 -0.2797 -0.2832
 5676W        W48667  21.778  30.603   2.446  0.0331  0.0411 -0.2134
 5677W        W48668  21.173   3.043  21.758  0.2679 -0.1360 -0.0712
 5678W        W48669  33.639  23.083   0.768  0.1789 -0.0019  0.0048
 5679W        W48670  22.772  26.818  14.225 -0.0462  0.1249  0.1521
 5680W        W48671  14.067  22.583   1.550 -0.1551  0.2986  0.2390
 5681W        W48672  31.834   5.614   5.265  0.1948 -0.1980  0.1397
 5682W        W48673   6.697  22.907  19.909  0.0628 -0.1204 -0.4052
 5683W        W48674  17.800  11.501   7.890  0.0653  0.2348 -0.1410
 5684W        W48675  24.869   2.771  26.857 -0.1728 -0.3231 -0.2589
 5685W        W48676   6.806  23.048   4.046  0.2857 -0.0470  0.2463
 5686W        W48677  27.464  25.824   7.975 -0.0315 -0.3012 -0.0688
 5687W        W48678  33.891  32.447  26.419 -0.0032 -0.0354 -0.0160
 5688W        W48679  29.106  21.291   0.460 -0.1349 -0.1871  0.0232
 5689W        W48680  18.879  33.737   6.236 -0.4612 -0.0258 -0.0787
 5690W        W48681   0.428  21.394  14.296  0.0320 -0.0127 -0.3217
 5691W        W48682  15.097  28.543  26.847 -0.1054 -0.0518  0.1992
 5692W        W48683   3.560  25.586  27.652 -0.2365  0.0796 -0.1543
 5693W        W48684   2.501  23.067   2.407  0.3366  0.0565 -0.4320
 5694W        W48685  16.881  21.584  22.903 -0.1114  0.1807 -0.1580
 5695W        W48686   0.002  15.374  26.589 -0.1153 -0.2352 -0.1164
 5696W        W48687   8.028  28.401  25.324  0.0319  0.0652 -0.0259
 5697W        W48688   1.040  31.399   4.091  0.1887 -0.1255 -0.0728
 5698W        W48689  18.071  23.200  24.436  0.1243  0.0795 -0.0228
 5699W        W48690   1.147   1.391   1.644  0.1428  0.0342  0.2829
 5700W        W48691  20.271  34.564   4.462 -0.3352 -0.3479  0.0461
 5701W        W48692   7.357  19.760  10.096  0.0949  0.0321  0.0353
 5702W        W48693  20.402  26.637   3.560  0.4146  0.0615 -0.2010
 5703W        W48694  11.320  32.839   1.155  0.4778  0.1174 -0.0113
 5704W        W48695  18.329  32.061   1.312  0.2924  0.3692  0.0435
 5705W        W48696  13.598   2.101   0.915  0.0859 -0.0993  0.2376
 5706W        W48697  20.761  29.297  25.641  0.3249  0.0867 -0.0452
 5707W        W48698  19.378  25.526  22.017 -0.2887  0.2925  0.2625
 5708W        W48699  10.890   0.495   0.563 -0.2025  0.1125  0.0119
 5709W        W48700   9.503  28.449  17.950  0.0683  0.0006  0.1543
 5710W        W48701  14.909  18.694   4.730  0.0851  0.0710 -0.2570
 5711W        W48702  22.149  26.547   0.047  0.0411 -0.2605 -0.0819
 5712W        W48703  14.000   9.379   7.237 -0.0933 -0.2265  0.0926
 5713W        W48704  24.673   8.757   7.363  0.1818  0.0046  0.1540
 5714W        W48705  14.478  17.706  13.033  0.3335  0.1062  0.0647
 5715W        W48706  27.508  16.938   0.550 -0.3271 -0.0741 -0.1804
 5716W        W48707  16.911  16.087   0.428  0.0735 -0.2073  0.2660
 5717W        W48708  23.503  24.964   1.043  0.3037 -0.1221  0.0074
 5718W        W48709  29.590  23.860   3.210 -0.0442 -0.2779 -0.0307
 5719W        W48710  21.469  24.464   6.886 -0.0509  0.1104 -0.0874
 5720W        W48711   5.726  18.208  25.711 -0.2148 -0.3042 -0.3030
 5721W        W48712   8.794  27.383   7.828  0.0224  0.3119 -0.0098
 5722W        W48713   3.682   3.586  14.895  0.0699  0.1611  0.1380
 5723W        W48714   7.198  31.450   2.336  0.2556 -0.0002 -0.0735
 5724W        W48715  26.097  20.617   6.372 -0.1769 -0.0248 -0.1366
 5725W        W48716  27.828  27.959   4.168  0.4305  0.2076  0.1105
 5726W        W48717  16.478  34.604   9.999  0.0958  0.0969  0.0514
 5727W        W48718  25.990   1.994   8.531  0.0026  0.1123 -0.1246
 5728W        W48719  21.582  18.003   7.644  0.1517  0.1120 -0.3749
 5729W        W48720  14.619  19.867  21.609 -0.0571  0.0707  0.1160
 5730W        W48721   7.640  28.255   6.573 -0.0923  0.1671  0.0266
 5731W        W48722   5.760  34.051  26.577 -0.2283 -0.1612  0.1276
 5732W        W48723  17.014  20.089   2.361  0.1864 -0.1601 -0.0729
 5733W        W48724   2.463  22.024  10.099  0.1559  0.0247  0.1116
 5734W        W48725  12.799  30.643  28.375 -0.2008 -0.2600 -0.1643
 5735W        W48726  25.219   7.711  21.861 -0.0248  0.2455  0.0848
 5736W        W48727  15.750  22.344  27.712 -0.0536 -0.2089  0.1038
 5737W        W48728  25.559  22.375  26.692 -0.0680 -0.1191  0.1642
 5738W        W48729  25.855  10.610  27.908 -0.0377 -0.0158 -0.1527
 5739W        W48730  34.401  17.739  17.757 -0.1793 -0.2358  0.0191
 5740W        W48731  17.382  21.586   2.259  0.1504 -0.0684  0.1124
 5741W        W48732  18.941   1.474  24.006  0.1511 -0.0323 -0.2016
 5742W        W48733  21.897  15.807  14.450 -0.2038  0.1780 -0.0363
 5743W        W48734   4.081  22.884  22.440 -0.1029 -0.2860  0.1045
 5744W        W48735  16.859   4.525   9.082 -0.2794  0.1160 -0.0220
 5745W        W48736  16.954  19.594  13.544  0.0910 -0.0071  0.1700
 5746W        W48737  21.312  31.777  24.421  0.0652 -0.3203 -0.1726
 5747W        W48738  29.543  31.041   0.615 -0.3436 -0.0098 -0.1155
 5748W        W48739  11.705  26.207  25.229  0.2079  0.0847  0.0489
 5749W        W48740  11.226  19.884  29.065 -0.0506  0.1450 -0.0530
 5750W        W48741  24.138  23.341   2.439  0.0058  0.1324  0.1457
 5751W        W48742  32.027  29.334   2.582 -0.0856  0.0534 -0.1613
 5752W        W48743  20.707  22.082   7.449  0.2975  0.1557  0.0734
 5753W        W48744  17.683  16.582   3.599 -0.2848 -0.0640 -0.0979
 5754W        W48745   7.312  29.197  25.681 -0.0742  0.3093  0.1561
 5755W        W48746  33.941  28.540  26.277  0.1212  0.1016 -0.1802
 5756W        W48747  25.262  11.431  20.803 -0.1640  0.0585 -0.1337
 5757W        W48748  24.398   7.340  20.501  0.4883  0.3268 -0.0528
 5758W        W48749  18.650  31.303   8.034 -0.2978  0.1290 -0.0915
 5759W        W48750  25.253  13.620   7.698 -0.1260  0.0969 -0.2814
 5760W        W48751  30.458  28.395  22.291 -0.2322  0.2718  0.0439
 5761W        W48752  24.467  25.602   3.145 -0.0665  0.1882  0.0980
 5762W        W48753  19.682  22.833   3.832  0.0868  0.0204  0.0781
 5763W        W48754  25.175  15.039  17.682 -0.1027 -0.1249 -0.1494
 5764W        W48755  25.642  22.499  19.164 -0.2637  0.0185 -0.4077
 5765W        W48756   0.350  26.844  21.143  0.2319  0.1705  0.1766
 5766W        W48757   0.060  32.608   4.297  0.2876 -0.0241  0.1990
 5767W        W48758  10.105  28.979   7.871  0.0556  0.2224  0.2791
 5768W        W48759   4.353  16.426   0.275 -0.1494  0.1891 -0.0761
 5769W        W48760   8.579  32.104  17.777 -0.0023  0.1773 -0.1813
 5770W        W48761  13.136  28.762   4.249  0.2915  0.1668 -0.2329
 5771W        W48762  10.869  30.184   4.522 -0.2302 -0.4282 -0.1619
 5772W        W48763  16.137  18.508  27.755  0.2394 -0.1422 -0.2354
 5773W        W48764  11.954  28.939  22.090  0.1759 -0.3395  0.1601
 5774W        W48765   3.948  27.119  20.182  0.1640 -0.2695 -0.1823
 5775W        W48766  25.202  31.565  22.372  0.0094 -0.1221  0.1415
 5776W        W48767  18.740   0.414   6.133  0.0466  0.1048  0.1706
 5777W        W48768  24.160  20.532   2.447  0.1041  0.1690 -0.4621
 5778W        W48769  10.411   4.723  27.787  0.0691  0.0623 -0.2174
 5779W        W48770  33.627  26.181  19.357  0.2239  0.0678  0.0292
 5780W        W48771  14.501  27.438   5.300  0.0960 -0.3175 -0.1289
 5781W        W48772   2.733  21.759  25.501 -0.3797  0.2969 -0.1058
 5782W        W48773  15.829  17.641   5.121  0.2048  0.2996  0.1340
 5783W        W48774  19.415  32.467   6.883  0.2224  0.4663  0.1503
 5784W        W48775  11.538  22.069  21.413 -0.2827 -0.0479 -0.2273
 5785W        W48776   4.627  22.926  17.634 -0.0413  0.0016 -0.0695
 5786W        W48777   8.244  21.828   6.500  0.1915 -0.2452 -0.3148
 5787W        W48778  17.914  21.323   4.109  0.0698  0.0284 -0.0264
 5788W        W48779  20.897   4.595  21.569 -0.2052  0.2270 -0.4595
 5789W        W48780   8.698  12.112   7.142  0.1749 -0.3128  0.1862
 5790W        W48781  14.535  15.951  23.253 -0.1825 -0.0541 -0.1456
 5791W        W48782  11.394   2.169   7.396  0.1796 -0.0700 -0.2182
 5792W        W48783  33.358   2.821  20.899  0.1211 -0.1359 -0.1586
 5793W        W48784  23.795  16.087  17.924  0.0282  0.2269 -0.3141
 5794W        W48785  15.989  21.637  24.135  0.0005 -0.0181  0.1339
 5795W        W48786   8.708  10.437   6.213 -0.2000  0.2023 -0.1665
 5796W        W48787  15.386  11.162  18.457  0.1800 -0.0457  0.0719
 5797W        W48788  13.507  32.537   2.118 -0.1686  0.1470  0.2554
 5798W        W48789  21.993  19.008  23.209  0.0417  0.0122  0.1099
 5799W        W48790  21.652  30.496   6.172 -0.1522  0.0372  0.2832
 5800W        W48791  26.993  17.019  29.122  0.2493  0.1214  0.0434
 5801W        W48792   6.189  20.472  14.862 -0.0569 -0.0118  0.1396
 5802W        W48793   7.692   9.345   9.815  0.1773 -0.0511 -0.0191
 5803W        W48794  22.238  23.218   6.633  0.0296  0.0263 -0.1193
 5804W        W48795  18.387  34.163   0.264  0.1168  0.2533  0.0468
 5805W        W48796  19.482  27.514   6.113 -0.0292 -0.1451  0.0384
 5806W        W48797  31.087   2.191   1.552 -0.0500  0.3096  0.1474
 5807W        W48798  18.628   4.495  29.135 -0.1681 -0.0304 -0.0330
 5808W        W48799   8.776  29.125   2.871 -0.0086 -0.0069 -0.1467
 5809W        W48800  23.913  27.435   1.474 -0.2697 -0.0890  0.0721
 5810W        W48801  23.691  28.201  24.143  0.2954 -0.0492 -0.1525
 5811W        W48802  31.307   3.020  22.856  0.3125  0.1044 -0.0876
 5812W        W48803   8.583  17.310   9.425  0.0796 -0.0065  0.0666
 5813W        W48804  22.790  10.104  27.607 -0.1786  0.0613 -0.1224
 5814W        W48805  26.819  24.084   6.620  0.0684 -0.1632  0.3938
 5815W        W48806  19.895  23.524  22.812  0.1656 -0.3352 -0.0961
 5816W        W48807  19.496  28.552   1.211  0.3464  0.1311  0.1183
 5817W        W48808  21.437  16.523   4.314 -0.2485  0.3819 -0.2256
 5818W        W48809  18.194  16.728  13.568  0.2064 -0.0975 -0.1106
 5819W        W48810  25.922   1.268   0.244  0.1154  0.1546 -0.1247
 5820W        W48811  14.782  26.732   8.842 -0.0221 -0.1592 -0.0581
 5821W        W48812  33.213  14.958   5.669 -0.0456  0.3487  0.0727
 5822W        W48813  15.032   7.297  23.467  0.4712 -0.1359  0.0230
 5823W        W48814  16.427  28.823   5.815  0.2394 -0.2303  0.1158
 5824W        W48815   2.709  20.644  25.107  0.2452 -0.0399  0.0880
 5825W        W48816   5.239  33.190  24.708 -0.0273 -0.0438 -0.2253
 5826W        W48817  12.260  31.445   7.688 -0.1999 -0.0110  0.4363
 5827W        W48818  18.364  20.621   2.417  0.0130 -0.4082  0.1094
 5828W        W48819  18.913  19.978   6.220  0.2054 -0.1770 -0.3834
 5829W        W48820   9.231   5.962   1.750 -0.0972 -0.0154  0.2131
 5830W        W48821  19.734  28.012  16.207  0.0918 -0.1389  0.3667
 5831W        W48822  27.173  24.879   3.841  0.1056  0.2095 -0.5294
 5832W        W48823   9.362   5.644   6.278  0.2643  0.0912  0.0799
 5833W        W48824  32.293   9.642   9.526  0.2090 -0.0934  0.1520
 5834W        W48825  28.971  24.567  27.876 -0.0948  0.1160  0.2930
 5835W        W48826  14.568  21.516   6.084 -0.1002 -0.0096 -0.3849
 5836W        W48827  10.805  29.146   7.695  0.1637 -0.1550  0.1006
 5837W        W48828  12.927  30.000   2.767  0.2824  0.2171 -0.2394
 5838W        W48829  23.846  24.448  14.693 -0.0547 -0.2095  0.0154
 5839W        W48830   5.414   8.738   2.178 -0.2550 -0.0625 -0.1008
 5840W        W48831  20.632  21.093   6.405  0.0136 -0.2614 -0.2321
 5841W        W48832  17.958  17.277  28.225  0.3505  0.0951  0.4711
 5842W        W48833  18.667  24.198  21.409  0.2833  0.0498  0.3245
 5843W        W48834  18.596  15.988  27.312 -0.2121 -0.1206  0.3442
 5844W        W48835  26.223  19.478   6.492 -0.1697  0.1573  0.1800
 5845W        W48836  23.102  19.546  26.355 -0.2109 -0.1702 -0.1882
 5846W        W48837   0.051   2.332  20.958  0.0516 -0.0181  0.3490
 5847W        W48838  13.627   8.038   0.558  0.2162  0.2162 -0.3024
 5848W        W48839  32.117   6.161  16.403  0.2595 -0.2476  0.0371
 5849W        W48840  13.738  22.055   2.795  0.1399 -0.1682  0.1490
 5850W        W48841   8.299  33.944  25.701  0.0822  0.0434 -0.0223
 5851W        W48842  34.259  17.083   1.107  0.1694 -0.0394 -0.1409
 5852W        W48843  25.937  31.098  20.291  0.0085 -0.0765 -0.1100
 5853W        W48844  27.161  31.697  23.381  0.2655 -0.0271 -0.0587
 5854W        W48845  13.512  17.719  13.761  0.1032 -0.0149  0.3235
 5855W        W48846  10.366  31.961  25.984 -0.4168  0.0371  0.2653
 5856W        W48847  14.617  24.625  22.207 -0.0767  0.0679  0.1227
 5857W        W48848  14.970  19.779   0.180 -0.0814 -0.1919 -0.0170
 5858W        W48849  26.318  29.771   0.521  0.1381  0.2262 -0.0611
 5859W        W48850  24.146  27.950   8.401  0.0878 -0.1563  0.0564
 5860W        W48851  14.429  19.295  21.629  0.0512  0.2633 -0.1161
 5861W        W48852  12.290  31.575   8.478 -0.1397  0.1736 -0.0610
 5862W        W48853  27.832   0.891  28.531  0.0476  0.3516 -0.0997
 5863W        W48854  15.667  24.058   4.251  0.0740 -0.0947  0.0012
 5864W        W48855   4.620  29.672   6.889  0.0136 -0.0657 -0.0272
 5865W        W48856  20.849  29.594  21.794  0.0596  0.0380 -0.1732
 5866W        W48857   5.252  27.232   2.768 -0.0527 -0.2404  0.1857
 5867W        W48858  19.381   2.994   7.682 -0.4829 -0.1746 -0.3135
 5868W        W48859  33.893  33.777  24.151 -0.0853 -0.0180  0.2712
 5869W        W48860   8.481   5.511  23.029 -0.1401  0.4683  0.1737
 5870W        W48861  28.174   9.167  24.853  0.0385 -0.2618 -0.1889
 5871W        W48862  10.723  14.377   1.488 -0.0300 -0.1121 -0.0285
 5872W        W48863  14.380  22.098  22.999  0.0334 -0.1350 -0.0352
 5873W        W48864  17.484  20.568   9.286 -0.3806 -0.1391 -0.0237
 5874W        W48865  34.517  22.570   5.273 -0.2789 -0.2135  0.2006
 5875W        W48866  22.213  21.500  13.424 -0.0144 -0.2187 -0.0908
 5876W        W48867  18.170  28.471  16.976  0.2490  0.0454  0.2337
 5877W        W48868  17.115  30.620   3.331  0.0346 -0.2028 -0.0913
 5878W        W48869  26.306  11.426   1.989 -0.2170  0.0374  0.0975
 5879W        W48870  21.807   3.971  19.138 -0.1511 -0.1706 -0.1181
 5880W        W48871   9.053  12.541  24.658 -0.1441  0.3446 -0.2023
 5881W        W48872  15.934  32.641   7.917 -0.0881  0.1627  0.4589
 5882W        W48873   7.311  30.962   2.502  0.2025  0.1002 -0.2756
 5883W        W48874   3.653  10.722  10.011 -0.0548  0.1575 -0.0996
 5884W        W48875  23.948   2.464  21.152 -0.1097  0.0290  0.5256
 5885W        W48876   5.515  15.937   7.819 -0.0531 -0.0819 -0.3276
 5886W        W48877  18.522  25.041   0.698  0.1020 -0.0442 -0.1087
 5887W        W48878  17.224   7.768   3.481  0.0267  0.0333 -0.0744
 5888W        W48879  19.324  24.754   7.248 -0.0874 -0.2377 -0.1198
 5889W        W48880  14.740  28.545  18.744 -0.1763 -0.0928 -0.2182
 5890W        W48881  12.668  27.168   0.869 -0.1030  0.0956  0.2948
 5891W        W48882  21.274  28.494  19.331 -0.0182  0.0820 -0.0498
 5892W        W48883  22.875  31.249   8.654  0.1931 -0.0129  0.2512
 5893W        W48884  27.302   9.428  18.332 -0.1684 -0.1395  0.1457
 5894W        W48885  14.162   6.372  10.852  0.2078  0.1427  0.0851
 5895W        W48886  18.793  31.450  15.428  0.1402 -0.4308  0.2324
 5896W        W48887  14.085  26.308   1.746 -0.0464 -0.2408  0.3059
 5897W        W48888  28.062   0.476  18.257  0.0828 -0.1612 -0.0929
 5898W        W48889  14.117  27.663   0.753  0.2814  0.0541  0.1608
 5899W        W48890  19.585  19.882  26.127 -0.0018 -0.1786 -0.1646
 5900W        W48891   7.185  17.500  19.439 -0.0929  0.0576 -0.0996
 5901W        W48892  13.042  29.436   5.187  0.0609  0.0324 -0.2053
 5902W        W48893  10.567  14.684   2.538 -0.3006  0.0409  0.1633
 5903W        W48894   6.622  26.778  27.522  0.2172  0.0466  0.0191
 5904W        W48895   2.924  27.774   4.339  0.1081  0.1609 -0.0259
 5905W        W48896   4.182  29.114  22.611  0.0040 -0.2056  0.0604
 5906W        W48897   8.559  20.532  26.915  0.3330 -0.0760 -0.4542
 5907W        W48898   9.439  26.305  17.435  0.0718 -0.2129  0.1611
 5908W        W48899   5.305  25.624   9.545 -0.1615 -0.0457 -0.3731
 5909W        W48900   2.712  34.089   2.157  0.1141 -0.2650  0.1834
 5910W        W48901  15.005  13.805  14.909  0.0295 -0.2679 -0.0472
 5911W        W48902  24.409  32.999   7.643 -0.1119 -0.0533 -0.3024
 5912W        W48903  33.400  10.936   4.204  0.2370 -0.1260  0.3058
 5913W        W48904  14.020  26.603  16.724 -0.4173  0.0558  0.0154
 5914W        W48905  21.159   4.566   8.440 -0.0727  0.2213  0.0432
 5915W        W48906  12.596   7.354  29.103  0.0088  0.1415 -0.1168
 5916W        W48907  23.140  19.162   7.461  0.2106  0.1424  0.1177
 5917W        W48908  20.623  30.033  28.977 -0.2183  0.2141 -0.2339
 5918W        W48909  30.888  16.821  26.183 -0.0994  0.1648  0.2023
 5919W        W48910  20.895  19.261   3.128 -0.0371 -0.1206 -0.1036
 5920W        W48911   7.682  23.545   3.030  0.1259 -0.0207 -0.0247
 5921W        W48912   3.686  23.860  28.260 -0.0881 -0.1617 -0.0182
 5922W        W48913   2.463  23.273  29.258  0.0736 -0.1763 -0.2353
 5923W        W48914  21.150  23.885   4.265 -0.0232  0.2734  0.1793
 5924W        W48915  26.069   5.457   9.301 -0.0075 -0.1861 -0.0312
 5925W        W48916   6.858  24.281   0.136  0.2771  0.1189 -0.2406
 5926W        W48917  17.943  34.103  21.405  0.1318 -0.2294 -0.0853
 5927W        W48918  23.346   0.850  21.146  0.3731  0.0429  0.2086
 5928W        W48919  20.629   4.540   1.945  0.2103  0.0970 -0.0433
 5929W        W48920  31.593  21.296   5.642  0.1942  0.0564  0.2154
 5930W        W48921  34.478  28.416   5.265 -0.3160 -0.2528  0.1850
 5931W        W48922  30.497  29.707   2.974 -0.0192 -0.0870 -0.2647
 5932W        W48923  17.036  12.755   5.386 -0.0364  0.3859  0.0945
 5933W        W48924  22.680  22.688   5.732 -0.2713  0.2067 -0.1769
 5934W        W48925  18.315  23.943  25.806  0.2406  0.0698  0.3610
 5935W        W48926  12.402  25.934  28.048  0.1542 -0.2199 -0.1217
 5936W        W48927  15.467  12.297  23.883 -0.0841  0.3055  0.4421
 5937W        W48928  14.161  18.755   4.333 -0.3639 -0.0415 -0.0229
 5938W        W48929  28.849  21.003   4.599 -0.0908  0.0662 -0.0262
 5939W        W48930  11.213  12.545   2.312  0.3425 -0.3286  0.0419
 5940W        W48931  24.697  33.841  28.948  0.2674 -0.4360  0.5214
 5941W        W48932  18.127  27.697   4.752 -0.0452 -0.0934  0.0449
 5942W        W48933  18.678  26.724  28.487  0.0279  0.4764  0.0888
 5943W        W48934  28.827   4.421   5.374  0.0147 -0.0317  0.4609
 5944W        W48935   4.119  11.784   5.522 -0.0598 -0.0813  0.0439
 5945W        W48936  11.797  25.490   2.869  0.1906  0.2681  0.2455
 5946W        W48937   7.848  31.350   0.099 -0.3156 -0.0355  0.0301
 5947W        W48938   1.320  24.960  21.308 -0.1577  0.0466 -0.4792
 5948W        W48939  16.746  10.685   8.994 -0.0484 -0.1448  0.5330
 5949W        W48940  32.854  18.659  24.874 -0.0822  0.0874  0.0737
 5950W        W48941   9.650   9.924  22.939  0.2973 -0.1178 -0.0185
 5951W        W48942  32.280   8.303   9.198 -0.0439 -0.0338 -0.3355
 5952W        W48943  25.088  10.786   4.641 -0.1310 -0.0674 -0.0897
 5953W        W48944  19.122  27.108   5.683  0.0810 -0.1886  0.0066
 5954W        W48945  32.208  26.592  20.383 -0.3697 -0.0796 -0.2601
 5955W        W48946  10.354  18.974  29.233  0.1933  0.1271  0.1060
 5956W        W48947  10.510  18.455  16.569 -0.1296  0.2326  0.1086
 5957W        W48948  16.109  31.912  29.084 -0.1520 -0.0291 -0.0824
 5958W        W48949  17.013  23.038   5.525  0.1281 -0.0714 -0.0394
 5959W        W48950  15.130  15.682  12.970  0.2640 -0.2313 -0.3734
 5960W        W48951  24.183   7.224  18.535  0.2087 -0.1768 -0.1933
 5961W        W48952  10.635  17.454   5.575  0.1605 -0.0592 -0.1202
 5962W        W48953  12.645  27.389  21.994  0.1341  0.0258  0.0884
 5963W        W48954  33.756  22.314  23.282 -0.4668 -0.0770  0.1031
 5964W        W48955   3.514  29.650  22.743 -0.1955  0.1551  0.0848
 5965W        W48956  11.999   3.728   8.063 -0.0348  0.1218  0.0179
 5966W        W48957   3.810  27.228  27.748 -0.0858 -0.2534  0.1066
 5967W        W48958   7.067  32.499  24.058 -0.0168  0.0408  0.3659
 5968W        W48959  27.185   3.295  24.667 -0.0142  0.2188  0.0759
 5969W        W48960  15.329  34.312  23.556 -0.1033  0.1901 -0.0258
 5970W        W48961  15.261  14.720   3.628 -0.0811 -0.2873 -0.1938
 5971W        W48962  14.522  30.484   7.088  0.1231 -0.1768 -0.0129
 5972W        W48963  30.945  23.524  28.967  0.1964 -0.0637 -0.3217
 5973W        W48964   7.567  24.082  20.913  0.1910 -0.2405  0.3594
 5974W        W48965  17.514  31.250   4.431 -0.3415 -0.1884  0.1918
 5975W        W48966   7.154  18.071   3.515 -0.0640 -0.4354  0.4385
 5976W        W48967   4.809  31.032   4.503 -0.2068  0.0977 -0.1463
 5977W        W48968  23.191   9.597  20.115 -0.0328  0.0242 -0.0633
 5978W        W48969  13.522   8.804   4.695  0.2017  0.0180 -0.1165
 5979W        W48970  12.212  24.894  28.724  0.1760  0.0817 -0.1707
 5980W        W48971  32.868  34.365   1.281 -0.0515 -0.0285 -0.0498
 5981W        W48972  14.206   3.165  28.394  0.0462 -0.2074  0.0551
 5982W        W48973  22.895  33.162   6.855  0.0018  0.0779  0.0311
 5983W        W48974  25.260  21.136   6.552 -0.1423  0.1417 -0.2119
 5984W        W48975  18.613  26.211  23.897  0.2329 -0.1897  0.1609
 5985W        W48976   0.680   4.093   5.444  0.2841  0.1307  0.3251
 5986W        W48977  15.466  30.703   8.160  0.1244 -0.0204  0.0650
 5987W        W48978  33.484  12.241   3.198 -0.1378 -0.2767  0.0459
 5988W        W48979  10.691   0.969   0.810 -0.1735  0.0551  0.1336
 5989W        W48980  16.679  21.061  25.733  0.2346  0.2241 -0.1621
 5990W        W48981  27.917  19.676   0.255 -0.2236 -0.4540  0.0597
 5991W        W48982  16.904  18.293   5.607  0.0367 -0.2492 -0.0387
 5992W        W48983  30.739  32.311  23.097 -0.2082 -0.0441  0.1825
 5993W        W48984  16.883  23.380  25.028 -0.1484 -0.0009 -0.0382
 5994W        W48985  28.273  14.315  10.229  0.1731  0.1833  0.1645
 5995W        W48986   1.731  15.941  27.032 -0.2054  0.0312  0.1027
 5996W        W48987  33.916  21.508  27.378 -0.1616  0.0458 -0.0672
 5997W        W48988  20.722  12.949   5.297 -0.0327 -0.1278  0.2412
 5998W        W48989  24.216  10.484  22.452  0.1244  0.0627 -0.2637
 5999W        W48990  15.757  23.617   9.409  0.0506 -0.2642  0.1354
 6000W        W48991  10.230  17.220   7.823  0.1798  0.1705  0.1084
 6001W        W48992  25.025  30.727  13.667  0.4592 -0.0339  0.1549
 6002W        W48993  18.023  33.629  19.435  0.1665  0.1896 -0.0857
 6003W        W48994  14.174  31.473  26.223  0.1526 -0.0807  0.1262
 6004W        W48995  15.467  25.995   5.686 -0.1015 -0.1592  0.0941
 6005W        W48996  24.575  29.669  10.029  0.4123  0.1415  0.2148
 6006W        W48997  11.430  20.136   3.940 -0.1602  0.1444  0.0842
 6007W        W48998   9.112  30.107  24.346  0.0510 -0.2253 -0.1977
 6008W        W48999  23.794  32.397   0.406  0.0318  0.0683  0.0486
 6009W        W49000   5.650  30.397  27.233 -0.0486  0.0212 -0.0222
 6010W        W49001  23.067  19.807  26.820 -0.1390  0.3580 -0.1587
 6011W        W49002  16.621   9.970   4.907 -0.3933 -0.2263 -0.0721
 6012W        W49003  18.740  20.207  26.552 -0.1992  0.1291  0.4809
 6013W        W49004  20.691  24.991   8.712  0.1726 -0.3292 -0.3237
 6014W        W49005  15.738  21.771  27.745 -0.4147  0.1752  0.1257
 6015W        W49006  22.759  16.598   9.231 -0.3725 -0.0504  0.1961
 6016W        W49007  18.033   8.778   3.570 -0.2453  0.2541 -0.0508
 6017W        W49008   4.443   8.812  13.573  0.1657  0.1742  0.2066
 6018W        W49009  15.486  15.516  28.223  0.1234 -0.3429  0.0565
 6019W        W49010  17.386   2.589   7.000  0.2106 -0.0776  0.3056
 6020W        W49011  30.291  21.479  27.278  0.0473 -0.0262 -0.0389
 6021W        W49012  14.796  32.229   9.150  0.0233 -0.0450 -0.0654
 6022W        W49013   8.918  21.852  26.887  0.1364  0.1697  0.1711
 6023W        W49014  19.505  16.581  27.827 -0.0258 -0.3072  0.1354
 6024W        W49015  11.720  30.047   9.653 -0.0417 -0.0027 -0.0819
 6025W        W49016   7.486  23.641  22.633 -0.1225  0.1069  0.0099
 6026W        W49017  15.510   5.012  21.539  0.0990  0.2174  0.0883
 6027W        W49018  20.898  15.001   7.368 -0.0461  0.0492  0.1412
 6028W        W49019  31.087  24.941  20.571 -0.2278  0.1482  0.1786
 6029W        W49020  16.927  27.735   8.817 -0.0039  0.1482 -0.2451
 6030W        W49021   3.203  20.920   0.539  0.2968  0.3348  0.1662
 6031W        W49022   6.516  25.023  25.021 -0.1748 -0.2191 -0.1235
 6032W        W49023   2.362  19.687  23.794 -0.1583 -0.0454 -0.2502
 6033W        W49024  23.316  22.311  17.015  0.2980  0.0444  0.1179
 6034W        W49025  21.079   4.985   4.668 -0.0705 -0.0185 -0.1600
 6035W        W49026  23.992  22.763   4.459  0.2026 -0.3072 -0.1104
 6036W        W49027  10.837  32.950  23.223 -0.0757  0.0658 -0.1921
 6037W        W49028  26.611  34.420   6.531 -0.3217  0.1855 -0.3454
 6038W        W49029  26.705   3.889  19.065  0.3067  0.2818 -0.2014
 6039W        W49030  23.390  22.219  22.784  0.0072 -0.0831 -0.0412
 6040W        W49031  12.587  27.132   6.074  0.1611  0.1858 -0.0915
 6041W        W49032  34.503   0.423   0.551 -0.0336  0.0700 -0.2319
 6042W        W49033  23.225  34.509   3.871  0.1263  0.1186 -0.1542
 6043W        W49034  29.986  33.529   4.789  0.0704  0.0001  0.0387
 6044W        W49035  29.966  16.458  21.723 -0.0714  0.0745 -0.2830
 6045W        W49036  17.235  28.801   8.382  0.2252  0.4432 -0.1518
 6046W        W49037   3.488  17.313   7.126 -0.3930  0.0269  0.2745
 6047W        W49038  19.838  25.880   7.525  0.0657  0.4103 -0.2549
 6048W        W49039   3.973  33.740  28.157  0.2697  0.0101  0.4066
 6049W        W49040  10.992  23.419  25.865 -0.0164 -0.2830  0.2469
 6050W        W49041  32.273  20.880  23.669  0.0093  0.2855 -0.2519
 6051W        W49042   9.629  20.024   2.618 -0.1653  0.0491 -0.4234
 6052W        W49043  13.046  17.059  23.403 -0.5781 -0.1314  0.1181
 6053W        W49044   3.562  18.543  25.974  0.0325 -0.0015 -0.2990
 6054W        W49045  23.754  19.715   9.210 -0.1065  0.0397  0.0088
 6055W        W49046  10.594  24.412   6.122  0.0065  0.1085 -0.0804
 6056W        W49047  12.458  21.913  25.789  0.0481  0.1616 -0.1873
 6057W        W49048  32.893  24.977   9.873  0.1645  0.0182 -0.0038
 6058W        W49049   0.022  26.741   8.609 -0.1173 -0.0511  0.2470
 6059W        W49050  14.184  14.027  23.128 -0.1114 -0.1226 -0.0506
 6060W        W49051   9.198  14.945   0.909 -0.1394 -0.1902  0.1765
 6061W        W49052  16.281   0.840   7.790  0.1702  0.1379 -0.0880
 6062W        W49053   1.816  11.142  10.385  0.1497 -0.0078  0.1764
 6063W        W49054  21.523  17.695  19.140  0.3648  0.1367 -0.0557
 6064W        W49055  16.713  16.152  12.625  0.1011  0.1289 -0.0806
 6065W        W49056   8.109   0.738   2.127 -0.1024  0.2873 -0.1482
 6066W        W49057  20.536  17.939   5.305  0.0850 -0.1337 -0.0120
 6067W        W49058  20.707  34.335   4.351 -0.1462  0.2105  0.1003
 6068W        W49059   2.001  12.232   3.916  0.1410 -0.2000  0.0565
 6069W        W49060  21.717  16.675   2.468  0.0205 -0.3923  0.0738
 6070W        W49061   9.964  26.503   1.240  0.0902 -0.1565 -0.1277
 6071W        W49062   8.039  21.918  28.477 -0.0616  0.0019 -0.0296
 6072W        W49063   5.052  25.209  10.165 -0.0989  0.0930 -0.0055
 6073W        W49064  12.708  32.121  28.522  0.1694  0.1300 -0.4414
 6074W        W49065  27.729  11.648   4.032 -0.0247 -0.0083  0.1755
 6075W        W49066  15.821  27.589   2.194  0.1729  0.1077 -0.3953
 6076W        W49067  13.800  31.758  24.084 -0.0774  0.0320 -0.1136
 6077W        W49068  30.539  32.061   7.373  0.3440 -0.1757  0.1413
 6078W        W49069  20.350   1.989   1.398  0.1158  0.0508 -0.2112
 6079W        W49070   3.935   3.860   7.357 -0.1928  0.0060 -0.2134
 6080W        W49071  17.575  18.395   6.574  0.0824  0.2190 -0.2425
 6081W        W49072  10.377   0.203   8.378 -0.0658  0.0854  0.0326
 6082W        W49073  18.381  27.175   0.649 -0.0421 -0.2253 -0.0858
 6083W        W49074   3.878  25.647  17.845 -0.0909  0.1728  0.1942
 6084W        W49075  18.536  23.587   1.726  0.0568 -0.1309  0.0407
 6085W        W49076  16.808  27.064  21.136 -0.2398  0.4243 -0.0914
 6086W        W49077  14.118  30.982   3.802 -0.2280  0.0026 -0.0129
 6087W        W49078  14.199  16.266   9.339 -0.2038 -0.0655 -0.1512
 6088W        W49079   3.943  26.706  29.116 -0.0173  0.1408 -0.2114
 6089W        W49080  29.844  15.198  25.834 -0.2201 -0.0484 -0.3497
 6090W        W49081  13.844  22.775   5.435  0.1381  0.3252  0.1268
 6091W        W49082   0.454  20.430   0.431 -0.0063  0.0184 -0.0053
 6092W        W49083  32.036  31.526   5.057  0.1146 -0.0911  0.1262
 6093W        W49084  13.445  26.984   2.444 -0.0244  0.0810 -0.0982
 6094W        W49085  21.851  27.098  27.518 -0.2191  0.0495  0.2948
 6095W        W49086  26.636  27.311   8.900 -0.1313 -0.0935  0.1160
 6096W        W49087  25.606   1.338   6.778 -0.1587  0.1098 -0.0785
 6097W        W49088   4.809  20.050   7.079 -0.0813  0.3214  0.2103
 6098W        W49089  10.559  17.821  28.287  0.5297 -0.1026  0.0792
 6099W        W49090  20.705  27.679   0.461 -0.0011  0.0443  0.0169
 6100W        W49091  15.682  25.678   3.292  0.0838  0.1257 -0.2518
 6101W        W49092   7.987  22.388   9.333 -0.1464 -0.2827 -0.1712
 6102W        W49093  16.442  30.434  21.995 -0.0141 -0.1074 -0.1276
 6103W        W49094  27.067  29.533   2.270  0.0539 -0.1130  0.1962
 6104W        W49095  23.065  17.911  27.645  0.1092  0.0708 -0.0354
 6105W        W49096  20.324  23.841  27.006 -0.0508  0.0288  0.0342
 6106W        W49097  14.651  34.205  27.452  0.1693 -0.0699 -0.2410
 6107W        W49098  11.668  23.937  26.544  0.0415  0.3386 -0.1138
 6108W        W49099  15.594  25.925  28.355  0.0317  0.0286  0.0654
 6109W        W49100   4.398  14.606   7.040 -0.2031 -0.2206 -0.2383
 6110W        W49101  16.878  34.708   8.715 -0.4104 -0.3079  0.0175
 6111W        W49102  11.657  18.101   8.574  0.1053 -0.0407 -0.1589
 6112W        W49103  16.607  29.808  27.569 -0.0177  0.3036  0.0940
 6113W        W49104  11.113  10.810   6.424 -0.0653 -0.0431  0.0481
 6114W        W49105  19.420  28.592   3.670 -0.2804 -0.2879  0.0076
 6115W        W49106   1.334  31.420   0.713 -0.0689 -0.0759  0.2824
 6116W        W49107  31.809  33.030  24.060 -0.2293  0.1992  0.4883
 6117W        W49108  23.376  20.133  28.765  0.0796  0.1054 -0.0507
 6118W        W49109  15.858   3.025  16.286 -0.0453 -0.2772  0.2344
 6119W        W49110  11.779  14.488   5.672  0.0690 -0.0382  0.0458
 6120W        W49111  16.732  28.566   3.862 -0.1834 -0.2565  0.0264
 6121W        W49112   6.290  33.060   3.534  0.2126  0.1380  0.1627
 6122W        W49113  31.702  26.445   2.230 -0.1448 -0.1385 -0.0556
 6123W        W49114  27.373  24.755   1.684 -0.0523  0.2296  0.2251
 6124W        W49115  13.338  17.674   8.937 -0.2180  0.2208  0.2424
 6125W        W49116   4.760  31.548   8.619 -0.4602 -0.1511  0.0838
 6126W        W49117   8.049   7.711  21.689 -0.1724  0.1105  0.0480
 6127W        W49118  18.642  23.004   8.907 -0.0523  0.2080  0.1175
 6128W        W49119  34.055  20.390  25.407 -0.0192  0.0360  0.1360
 6129W        W49120  15.020  27.282  21.773  0.4253 -0.0875 -0.3022
 6130W        W49121  13.782  24.810   5.250  0.1328 -0.0988 -0.0955
 6131W        W49122  14.795  19.998   3.662  0.0832  0.1408 -0.3386
 6132W        W49123  34.713  17.242  29.045 -0.1304 -0.1799 -0.3376
 6133W        W49124  30.418  28.449   8.768  0.0682  0.0313  0.0491
 6134W        W49125  22.290   3.981   7.934 -0.1176  0.0054 -0.4062
 6135W        W49126  17.327  21.131   0.799  0.1532 -0.1903  0.0063
 6136W        W49127   8.644   5.881  14.924  0.2397 -0.0222 -0.0349
 6137W        W49128  14.325   3.121  25.608 -0.0548  0.1605 -0.1860
 6138W        W49129  17.773  23.596   5.763  0.0250 -0.2326  0.0259
 6139W        W49130  28.766  16.413  10.265  0.1292  0.2255 -0.2219
 6140W        W49131  19.660  20.641   0.997  0.0517 -0.1069  0.0389
 6141W        W49132   1.655   3.051  22.653 -0.3753  0.3986 -0.2289
 6142W        W49133  15.212  13.674  28.373  0.1805 -0.2581  0.2006
 6143W        W49134  31.352  25.748  18.605  0.2479  0.1827  0.2613
 6144W        W49135  19.630  22.294  27.348 -0.1249  0.0453 -0.0254
 6145W        W49136  22.609  30.640  25.735 -0.0910 -0.0509  0.1097
 6146W        W49137   8.331  26.669  22.506  0.2868 -0.0423  0.1260
 6147W        W49138  20.492   8.644   9.719 -0.4193  0.1837 -0.0678
 6148W        W49139   8.509   3.139  27.406 -0.2529  0.0387 -0.2993
 6149W        W49140  18.751  20.391  22.379 -0.0763  0.0595  0.0066
 6150W        W49141  31.248  21.412  27.469  0.0537  0.1659  0.0397
 6151W        W49142  20.723  15.122  28.972 -0.2605 -0.3991 -0.1236
 6152W        W49143  28.231   8.798  26.071 -0.2232  0.0034 -0.0048
 6153W        W49144  17.377  27.711   7.721  0.2614  0.3312 -0.1572
 6154W        W49145  20.500  34.703  28.596  0.2068  0.2123  0.0403
 6155W        W49146  17.597   2.308  24.296 -0.0725 -0.1121  0.2778
 6156W        W49147  15.241  18.190   3.069 -0.1522 -0.2476  0.2361
 6157W        W49148   8.482  16.484   7.688 -0.3833 -0.2335  0.0972
 6158W        W49149  22.600  29.142   8.359 -0.1166 -0.3480 -0.0914
 6159W        W49150   8.115  24.208  16.690  0.2027  0.0614  0.1554
 6160W        W49151  23.949  23.704  28.791  0.0490  0.1149  0.0421
 6161W        W49152  13.963  22.288  24.207  0.1024  0.0921  0.1329
 6162W        W49153  27.161   8.815   7.781  0.0363  0.4216 -0.4973
 6163W        W49154   8.139  18.349  27.362 -0.0136  0.1668 -0.3378
 6164W        W49155  12.884  20.521   0.643 -0.2195  0.1035  0.0463
 6165W        W49156   6.617   3.488   4.962 -0.0845  0.3156 -0.2654
 6166W        W49157   7.125   2.135   3.762 -0.0402  0.1321 -0.1582
 6167W        W49158   8.077  29.919  27.211  0.1162  0.0797  0.2326
 6168W        W49159   9.363  17.776   1.196 -0.1756 -0.1170 -0.2437
 6169W        W49160   7.406  17.871   8.484  0.1836 -0.0888 -0.2777
 6170W        W49161  10.999  27.842  28.022  0.0414 -0.0594  0.1388
 6171W        W49162  22.518  17.413  17.571  0.0010 -0.0960  0.0428
 6172W        W49163  16.806  27.071   0.739  0.0488 -0.1944 -0.2328
 6173W        W49164   3.373   8.242   6.354  0.1721  0.2629 -0.0040
 6174W        W49165   9.070  31.937  28.777  0.6414  0.0322 -0.4763
 6175W        W49166  26.810  16.391  24.286 -0.1578  0.2815  0.1010
 6176W        W49167  11.397  33.935  19.416  0.4098  0.0905  0.0200
 6177W        W49168  29.894   1.255   5.918  0.0981  0.0404  0.0111
 6178W        W49169  17.039  21.987  20.726 -0.1263  0.0698  0.2750
 6179W        W49170  17.528  11.912   5.096 -0.3349 -0.0034 -0.0948
 6180W        W49171   5.562  19.141  10.848 -0.2148 -0.1255  0.1988
 6181W        W49172  15.054  13.864  16.527 -0.1170 -0.2561 -0.1202
 6182W        W49173   4.243  26.696  15.928  0.0177 -0.0358  0.2769
 6183W        W49174  25.209  16.290  19.250 -0.0013 -0.1622  0.0105
 6184W        W49175  16.149  17.490  15.491  0.0940  0.0492  0.1203
 6185W        W49176   9.317   8.540   1.327  0.1257 -0.1240 -0.0712
 6186W        W49177  30.108  27.374   6.647 -0.0992 -0.1694  0.0136
 6187W        W49178  19.661   1.936   0.033 -0.2503  0.2468 -0.1055
 6188W        W49179   3.881  15.564   9.571  0.1765  0.3068 -0.0363
 6189W        W49180  30.432  18.688   6.865 -0.0213 -0.0534  0.1310
 6190W        W49181  30.710  23.974   3.222  0.2499 -0.2377  0.1895
 6191W        W49182  32.093   0.003  25.914 -0.2279  0.1540  0.0310
 6192W        W49183  11.667  16.499  21.774 -0.1422 -0.0703 -0.0147
 6193W        W49184  15.152  30.110   5.804 -0.1546 -0.1131 -0.1193
 6194W        W49185  26.215  19.475   9.110 -0.1958 -0.0193 -0.1656
 6195W        W49186  34.400  27.315  21.009  0.0105  0.0069  0.0405
 6196W        W49187  16.810  15.459   6.245 -0.0889 -0.0010 -0.1144
 6197W        W49188  18.879  30.804  20.181  0.0747  0.1949 -0.0767
 6198W        W49189  20.580  22.378   3.936 -0.1139 -0.2386 -0.0851
 6199W        W49190  15.294  16.060   6.734  0.2721  0.0753  0.1256
 6200W        W49191  12.907  27.982   3.954  0.2848 -0.1915  0.2115
 6201W        W49192  10.301  16.219   0.156  0.0212  0.2583 -0.1894
 6202W        W49193   7.529  20.078  26.905 -0.1651  0.0667 -0.0573
 6203W        W49194  20.787  26.533  26.862  0.2616  0.0153 -0.2055
 6204W        W49195   5.294  34.114   6.666  0.1692 -0.0414  0.0849
 6205W        W49196  20.397  33.481   8.192  0.1779  0.2219  0.2612
 6206W        W49197  17.648  28.353   1.289  0.0749 -0.0425  0.2308
 6207W        W49198  13.821  28.869   3.853  0.0582  0.0477  0.0323
 6208W        W49199  18.580  28.064   4.533 -0.0802 -0.1620 -0.2166
 6209W        W49200  32.474  30.969   2.214  0.0715 -0.4418 -0.0020
 6210W        W49201  10.476   8.827  10.908 -0.0184  0.2145 -0.2434
 6211W        W49202  30.751  25.562   9.452 -0.2266 -0.1533  0.0877
 6212W        W49203   8.735  23.292   2.265 -0.0525 -0.2321 -0.2476
 6213W        W49204  19.113  16.683   2.824  0.2135  0.1962 -0.1041
 6214W        W49205  11.778  29.484  23.283 -0.1301 -0.2810 -0.2172
 6215W        W49206  30.963  24.741   4.903  0.0313 -0.0192 -0.2624
 6216W        W49207  10.769  28.209   8.688  0.1840 -0.4262  0.1107
 6217W        W49208  21.403   7.178   2.436 -0.0935 -0.2429  0.2177
 6218W        W49209  15.441   0.741   1.481  0.2640  0.0550  0.1783
 6219W        W49210   4.570   9.562   9.138 -0.0930 -0.0116 -0.1955
 6220W        W49211  26.613  21.786  27.238 -0.3778  0.0821  0.0861
 6221W        W49212  24.812  27.194  22.619 -0.0282 -0.1092 -0.2472
 6222W        W49213  13.588  29.080   5.573 -0.0230  0.1040  0.1169
 6223W        W49214  22.566  30.666   7.824  0.0358 -0.1558  0.2726
 6224W        W49215   7.833   8.667  20.853  0.0008 -0.1601 -0.3376
 6225W        W49216  25.554  32.525   7.076 -0.1241 -0.0055 -0.1096
 6226W        W49217  11.598  29.214  26.813 -0.2055  0.3465  0.0165
 6227W        W49218  23.767   6.656  24.798  0.3044  0.0602  0.2345
 6228W        W49219   3.201  30.471  17.357  0.3052  0.1251  0.0637
 6229W        W49220  19.914  30.411   2.444 -0.2794  0.0591  0.1205
 6230W        W49221  15.801  26.105   1.866 -0.1008 -0.2730  0.0855
 6231W        W49222  21.757  34.775  24.834  0.0836  0.1139  0.0841
 6232W        W49223  18.521  30.443  23.246 -0.0242 -0.0640  0.2872
 6233W        W49224  34.109  27.108   8.480 -0.2838  0.0954 -0.0744
 6234W        W49225  21.418  30.051   7.005 -0.1547 -0.0117  0.0365
 6235W        W49226  10.083  23.772   8.184 -0.0169 -0.1224 -0.4644
 6236W        W49227  20.665  29.132  25.131  0.3612 -0.0428 -0.0733
 6237W        W49228  11.886  24.369   2.544 -0.2774  0.0412 -0.1646
 6238W        W49229   8.624  26.800  25.731 -0.3174 -0.0160 -0.2284
 6239W        W49230  11.566  30.080   7.269  0.1344 -0.0306 -0.0718
 6240W        W49231  10.510  24.230  25.213 -0.1340  0.0967  0.2613
 6241W        W49232  25.648  31.543   2.116 -0.3827  0.0826 -0.2024
 6242W        W49233  24.930  31.710   6.426  0.0183 -0.2477 -0.1065
 6243W        W49234  14.822  22.177   0.505  0.1249 -0.1924 -0.2330
 6244W        W49235  13.826   6.574  18.076  0.0377  0.2307  0.4156
 6245W        W49236   9.567  13.506  28.882  0.0721 -0.2896  0.0179
 6246W        W49237   5.946  30.884   8.261 -0.2285 -0.1049  0.0336
 6247W        W49238   8.684  10.730   2.984  0.3815 -0.1040  0.2738
 6248W        W49239  16.272  30.273  17.735  0.1500 -0.0131 -0.2769
 6249W        W49240  12.607  33.582   3.810  0.0563  0.1357  0.2817
 6250W        W49241  10.462  17.964   9.038  0.0474 -0.1770  0.0898
 6251W        W49242   4.218  25.481   9.146  0.2394  0.0478  0.2107
 6252W        W49243   5.294  26.624   6.329 -0.3985 -0.1087 -0.2538
 6253W        W49244   7.610  16.059   1.353  0.1065 -0.0970 -0.0880
 6254W        W49245  16.450   8.520   2.729  0.0262  0.2004  0.1086
 6255W        W49246  11.438  34.251   7.823  0.0607  0.0039  0.1894
 6256W        W49247   3.756   8.659  19.300  0.1413 -0.0554  0.0978
 6257W        W49248   4.960  26.054   5.374  0.1827 -0.1807  0.0307
 6258W        W49249  10.833   7.917   6.058 -0.0371  0.0609 -0.0638
 6259W        W49250  22.394  18.833  27.445  0.2728 -0.1123 -0.0596
 6260W        W49251  32.793   2.497   2.606 -0.3513  0.1979 -0.0937
 6261W        W49252  22.552  15.422   5.172  0.0298 -0.0718 -0.4367
 6262W        W49253  10.776  18.948  28.446 -0.0020 -0.1545  0.1533
 6263W        W49254  12.139  23.153   7.241  0.0597 -0.0486 -0.0180
 6264W        W49255  13.387  20.799   2.880  0.0737 -0.3197 -0.0002
 6265W        W49256   5.945  11.991   9.114 -0.2075 -0.0885 -0.1499
 6266W        W49257  20.504  26.976   8.111 -0.3309  0.1763  0.2885
 6267W        W49258  16.970  31.712  25.131 -0.0079 -0.0605  0.2125
 6268W        W49259  25.576  32.843   0.727 -0.3032 -0.1891 -0.0962
 6269W        W49260  17.867  28.664   0.987  0.0730  0.3857 -0.0485
 6270W        W49261  16.688  17.112   0.348 -0.0742 -0.2228 -0.2659
 6271W        W49262  20.636  33.981   6.857 -0.4088 -0.0205 -0.0963
 6272W        W49263  12.841  19.789   6.504 -0.0562 -0.3048 -0.3390
 6273W        W49264  22.013   0.046   3.904 -0.0868  0.3652  0.0737
 6274W        W49265   9.431  16.641   2.507  0.4652 -0.0062 -0.1285
 6275W        W49266  19.821   9.043  27.967 -0.0900 -0.0145 -0.0080
 6276W        W49267  17.746  21.756   9.704  0.1204 -0.0988 -0.1254
 6277W        W49268   8.441  30.370   7.862 -0.3098 -0.0819 -0.1343
 6278W        W49269   3.643  27.183   5.962 -0.1779 -0.1663  0.3066
 6279W        W49270  19.071   1.732   3.290 -0.1205  0.0925 -0.1038
 6280W        W49271  25.505  20.715  28.747  0.0251 -0.0764  0.1598
 6281W        W49272   3.829  34.489   6.308  0.3994  0.0730  0.2474
 6282W        W49273  16.032  12.424   1.596  0.3280 -0.0955 -0.1128
 6283W        W49274  20.509  23.288  24.454  0.1271  0.0636  0.0513
 6284W        W49275  17.075  26.202  24.171  0.0736  0.1196 -0.1018
 6285W        W49276   1.325  19.482  28.381 -0.0417 -0.0270 -0.0553
 6286W        W49277  20.850  13.382  16.754  0.3845 -0.1109 -0.0719
 6287W        W49278   3.526  29.278   5.275 -0.0540  0.2273 -0.2801
 6288W        W49279  15.258  18.945  28.940 -0.3072  0.0427  0.0855
 6289W        W49280  10.726   1.404   3.952  0.2738  0.3665  0.0325
 6290W        W49281  25.723  22.886   2.219  0.3723 -0.1473 -0.0370
 6291W        W49282  28.590  31.343   1.529  0.2252  0.1963  0.1509
 6292W        W49283  11.961  30.650   1.032  0.0989  0.0433  0.0457
 6293W        W49284   9.114  15.797  28.755  0.2813  0.3519  0.1303
 6294W        W49285  22.066  24.067   3.991 -0.0844  0.0793 -0.0956
 6295W        W49286  22.057  33.964   2.126  0.0970 -0.1990  0.0206
 6296W        W49287   9.107  16.830  27.666 -0.1041  0.0361  0.1393
 6297W        W49288  27.371  20.913  26.089 -0.1736  0.0288 -0.1837
 6298W        W49289  19.253  31.456   8.517  0.1400  0.3224 -0.1182
 6299W        W49290  10.130  34.571   5.193 -0.1839  0.2603 -0.2195
 6300W        W49291  20.837  23.677   9.037 -0.0706  0.0953  0.2589
 6301W        W49292   5.538  21.391  26.643  0.1356 -0.3211  0.0603
 6302W        W49293  15.734  19.489  26.342 -0.0315  0.4274 -0.0791
 6303W        W49294  19.579   0.410   6.195 -0.1416 -0.0039 -0.1291
 6304W        W49295   4.570  19.229  10.541  0.2749  0.0206  0.2137
 6305W        W49296   7.863   7.939   7.923  0.0197 -0.1014 -0.0658
 6306W        W49297  24.634  34.012  16.112  0.0095 -0.0064 -0.1281
 6307W        W49298  17.483  16.260   3.948  0.1067 -0.1773  0.2879
 6308W        W49299  21.953  29.431  28.969  0.0151  0.0560 -0.1013
 6309W        W49300  12.513   1.749   7.861  0.1647 -0.0152 -0.1629
 6310W        W49301  21.801  29.402   2.036 -0.3689  0.0335 -0.0588
 6311W        W49302  13.474  12.481  10.344  0.0825 -0.1295 -0.1235
 6312W        W49303  14.767  16.302  27.513 -0.1710  0.0122 -0.5158
 6313W        W49304  19.856  24.140   1.383 -0.1312 -0.0189 -0.2429
 6314W        W49305  31.202  29.799  25.304  0.0069  0.1036  0.1906
 6315W        W49306  29.144   8.940   7.706 -0.0715  0.2490  0.0575
 6316W        W49307   7.293  26.212  24.807  0.0310  0.0349 -0.4413
 6317W        W49308  16.625   7.865   9.683  0.0786  0.3959  0.4044
 6318W        W49309   6.796  22.433  19.591  0.4262  0.0265  0.1823
 6319W        W49310  17.667  17.965  25.310 -0.4646 -0.2901  0.0044
 6320W        W49311  20.389  24.905  29.073 -0.0849 -0.0930  0.1101
 6321W        W49312  16.092  32.516   2.230 -0.0499 -0.2484  0.0631
 6322W        W49313  21.430  25.296   4.075 -0.1141  0.0074 -0.2694
 6323W        W49314  21.099  31.817   6.668  0.1836  0.1519 -0.3766
 6324W        W49315  23.933  14.300  27.354 -0.0730 -0.0388  0.0756
 6325W        W49316  22.252  10.007  23.036 -0.0220  0.1343 -0.0134
 6326W        W49317  11.315  32.223   5.617  0.0964  0.0270 -0.0265
 6327W        W49318  26.660  15.556   6.502 -0.0170 -0.2812 -0.1082
 6328W        W49319  13.153   0.889  18.699  0.1065 -0.2203 -0.0145
 6329W        W49320  17.743  25.434   5.422  0.1753 -0.1170 -0.1740
 6330W        W49321  23.948  28.042  28.424 -0.0682 -0.2248 -0.1025
 6331W        W49322  23.030  28.823   7.848  0.2308  0.1810  0.1048
 6332W        W49323  34.793  27.946  23.952  0.1658  0.0721 -0.2399
 6333W        W49324  32.388  33.692  24.959 -0.2143 -0.2272  0.0638
 6334W        W49325  33.621   0.635   7.441  0.2716 -0.3349  0.4228
 6335W        W49326  24.002  30.908   5.692  0.2954  0.0111  0.1075
 6336W        W49327  19.562  26.423   4.828  0.1794 -0.0932  0.0669
 6337W        W49328  13.171  19.507   2.613  0.3132 -0.1679  0.0603
 6338W        W49329   2.926  13.359   4.518 -0.1002  0.3360 -0.0848
 6339W        W49330  16.645  25.068   7.594 -0.1937  0.1547 -0.0468
 6340W        W49331  21.268  26.073  25.759 -0.0281  0.0969  0.1074
 6341W        W49332  28.113   6.208  18.554  0.5442  0.0731  0.2189
 6342W        W49333  13.915  29.474   9.033  0.0770  0.1819  0.0464
 6343W        W49334  10.560  26.136   4.181  0.0129 -0.1669  0.3857
 6344W        W49335  26.762  22.526   8.803 -0.0157 -0.2184  0.4310
 6345W        W49336   9.816  20.468   9.449 -0.2863 -0.2726 -0.0090
 6346W        W49337  26.329  24.256  28.413  0.0726 -0.1134 -0.3775
 6347W        W49338  25.915  19.254  16.741 -0.0939  0.0127  0.0758
 6348W        W49339   2.998  19.590  22.602  0.0445 -0.2340  0.0089
 6349W        W49340   3.624  23.176   8.422 -0.3151 -0.0795 -0.1101
 6350W        W49341  16.370  10.661   0.022  0.2154  0.5024 -0.2027
 6351W        W49342  17.248  10.559   7.680  0.0355  0.0173  0.1454
 6352W        W49343  27.024  27.919  26.516  0.1470  0.0123  0.0180
 6353W        W49344  11.767  32.113  28.332 -0.0313 -0.2002  0.5482
 6354W        W49345  18.141  25.363  28.239  0.1416  0.2373  0.2190
 6355W        W49346   3.002   0.187   1.084  0.2040  0.0078 -0.0905
 6356W        W49347  29.130  25.400   7.283  0.1281  0.1223 -0.1054
 6357W        W49348  15.816   3.830   7.792 -0.1241 -0.1769 -0.0471
 6358W        W49349   4.152  34.063  19.250 -0.0841 -0.2823  0.1466
 6359W        W49350  28.512  25.844   9.583  0.1905  0.0210  0.0616
 6360W        W49351  14.523  11.460   7.122 -0.2554 -0.0159 -0.0994
 6361W        W49352  18.659  18.327   2.385 -0.0384 -0.1000 -0.0178
 6362W        W49353  15.714   6.474  27.624  0.1875 -0.1153 -0.0647
 6363W        W49354  22.542  27.887   4.103 -0.3105  0.0265 -0.1624
 6364W        W49355  34.214  30.606   5.711  0.1134  0.0454 -0.0630
 6365W        W49356  20.189  25.698   2.221  0.2602  0.1921  0.1435
 6366W        W49357   4.261  31.964  15.102  0.0197 -0.0263 -0.1655
 6367W        W49358  23.863  23.340  28.006 -0.0556  0.1714 -0.0143
 6368W        W49359   3.210  25.323  16.303 -0.0878  0.3954 -0.0932
 6369W        W49360  14.944   2.974   6.359  0.1284  0.1383  0.1346
 6370W        W49361  13.374  19.922  28.986 -0.2291 -0.0503  0.1172
 6371W        W49362  25.841   2.576   4.291  0.1876 -0.2256  0.1976
 6372W        W49363  16.792  22.040  21.133 -0.2773  0.2413 -0.1541
 6373W        W49364  13.837  32.935   6.500 -0.2411 -0.2313  0.3530
 6374W        W49365  13.304  24.267  28.126 -0.1820  0.1059 -0.1870
 6375W        W49366  16.255  32.811  10.400  0.0286  0.0856  0.3059
 6376W        W49367  13.928  24.794   9.334  0.0102  0.2200 -0.1417
 6377W        W49368  17.461  24.261  13.252 -0.2337  0.1859  0.0451
 6378W        W49369  29.676   3.767   4.253 -0.1931 -0.2399  0.0432
 6379W        W49370  13.669   0.033   1.687 -0.1715 -0.0404  0.1485
 6380W        W49371   7.382  23.255   8.835 -0.0259 -0.1733 -0.0327
 6381W        W49372  10.532  25.537  27.661  0.0324 -0.2841 -0.1511
 6382W        W49373  25.437  32.270   7.640  0.0413 -0.0412  0.0726
 6383W        W49374  13.542  15.716   4.812 -0.0351 -0.0214 -0.0073
 6384W        W49375  16.669   0.497   7.066 -0.1811 -0.2307 -0.3318
 6385W        W49376   4.290   3.902  25.436 -0.0788 -0.1361 -0.2822
 6386W        W49377  14.854  28.912  23.838  0.5495  0.0516  0.1888
 6387W        W49378  26.243   4.792  24.076  0.0314  0.1699  0.3664
 6388W        W49379  10.078  31.290   9.128 -0.2089  0.3400 -0.1193
 6389W        W49380  18.620  24.744   4.125 -0.3520 -0.1084  0.0584
 6390W        W49381  20.254  17.098  27.899 -0.2237 -0.1250 -0.2758
 6391W        W49382  15.275  15.161   2.347 -0.2954 -0.1920 -0.4661
 6392W        W49383  23.628  19.887   0.931  0.0443  0.2274  0.0339
 6393W        W49384  18.172  21.050   2.295 -0.0912 -0.0875  0.1056
 6394W        W49385  15.502  34.451   1.036  0.2099 -0.0062 -0.3138
 6395W        W49386  19.257   8.741   0.246 -0.0639 -0.0677 -0.2411
 6396W        W49387  11.223  28.917   7.504  0.1825 -0.0142  0.0089
 6397W        W49388  10.019  24.076  28.786  0.1464  0.2018 -0.1339
 6398W        W49389  23.869   2.462  27.306  0.0748  0.0458 -0.1093
 6399W        W49390  18.421  24.630  27.051 -0.3656 -0.0349  0.1288
 6400W        W49391  19.406  32.888   9.723 -0.2375 -0.0439  0.2035
 6401W        W49392  23.479  28.894   5.757 -0.2954 -0.2636 -0.0177
 6402W        W49393   4.980  32.028  23.897  0.0588 -0.0555  0.0852
 6403W        W49394  29.866  28.811   7.212  0.2590 -0.1972  0.0696
 6404W        W49395  22.197   2.237   6.153 -0.0354  0.1667 -0.5548
 6405W        W49396  20.046  30.557  25.215  0.1195 -0.1201 -0.2542
 6406W        W49397  16.784   1.233   5.119  0.0072 -0.1647 -0.0872
 6407W        W49398   3.772   6.513  27.870 -0.1420 -0.0717 -0.0378
 6408W        W49399   8.676  28.475  10.092  0.1146 -0.1308 -0.1558
 6409W        W49400  27.458   0.618   6.371 -0.3882  0.0505 -0.0971
 6410W        W49401  16.269  27.051  25.221 -0.0807  0.0628 -0.0323
 6411W        W49402  10.610  17.184   0.434  0.0059 -0.4234 -0.0848
 6412W        W49403  23.534  33.927   7.185 -0.1252  0.1924 -0.1434
 6413W        W49404  10.615   8.168  21.153  0.1837  0.0786 -0.0249
 6414W        W49405  17.356   0.124  10.355 -0.0365  0.1418  0.3268
 6415W        W49406  10.279  14.750  17.999 -0.1026 -0.0711  0.3055
 6416W        W49407   5.027  20.691   3.519 -0.1422  0.0929 -0.0786
 6417W        W49408  20.784   6.722  25.145 -0.2948 -0.0968 -0.0737
 6418W        W49409  27.813   4.607   7.303 -0.3224  0.1910 -0.1152
 6419W        W49410   7.853  21.446  10.582  0.0094 -0.1809 -0.0827
 6420W        W49411   0.654  18.433   6.215 -0.2933 -0.2646  0.0509
 6421W        W49412  28.754  16.883   0.445 -0.1260  0.0663 -0.1621
 6422W        W49413   9.519   0.080  10.879 -0.0221  0.0793 -0.1078
 6423W        W49414  16.405  14.717   9.085 -0.2068  0.3289  0.1210
 6424W        W49415  16.396  24.365  18.759 -0.1724 -0.2440 -0.3781
 6425W        W49416  28.685  22.450  27.097 -0.0832  0.1332 -0.0425
 6426W        W49417   5.258  25.782   2.081 -0.0224 -0.4762 -0.2582
 6427W        W49418  13.191  18.592   9.157 -0.1005 -0.1053  0.3114
 6428W        W49419   0.993  17.299   8.581  0.5685 -0.0174  0.0185
 6429W        W49420  27.150  14.635   3.386  0.3395 -0.3187 -0.0443
 6430W        W49421  34.061  34.711  18.617 -0.2237  0.0556 -0.1903
 6431W        W49422  10.594   0.055  28.059 -0.3442 -0.0450  0.1151
 6432W        W49423   3.548  22.238   0.118 -0.2709 -0.0496  0.0341
 6433W        W49424  23.934  13.372   2.738  0.0604 -0.2932 -0.3889
 6434W        W49425  24.861  31.584   3.649  0.0320  0.4529 -0.0154
 6435W        W49426  21.704  25.858   6.934  0.0508 -0.2931 -0.0057
 6436W        W49427  10.450  19.498   6.335 -0.0571 -0.1232  0.2062
 6437W        W49428  12.872  14.339   4.758  0.2716  0.0028 -0.0104
 6438W        W49429  14.332  24.973  25.620 -0.1494 -0.3033  0.2308
 6439W        W49430   5.571  31.458  26.587  0.1351  0.0326  0.0181
 6440W        W49431  31.516  29.784   3.303 -0.2898 -0.0246 -0.3018
 6441W        W49432  28.958  32.723   2.403  0.0145  0.0426 -0.0633
 6442W        W49433  26.980  34.372   5.387  0.0721 -0.0968 -0.3079
 6443W        W49434  15.064  21.719  22.012 -0.0483 -0.0452  0.2869
 6444W        W49435  16.038  19.876   6.247  0.1203  0.0175 -0.1816
 6445W        W49436  24.910   7.373   2.056 -0.1731  0.1791  0.2020
 6446W        W49437  17.812  29.591  19.222 -0.0615  0.0425  0.1230
 6447W        W49438  31.360  23.225   4.946  0.1904  0.1723 -0.0247
 6448W        W49439   2.323  14.442   7.332  0.2611 -0.2154  0.5538
 6449W        W49440  31.376  29.407   1.230  0.1064 -0.2725  0.3042
 6450W        W49441  26.203   3.383   0.716  0.0903 -0.1396  0.1870
 6451W        W49442  25.962  26.612   2.693 -0.0688  0.0928  0.1322
 6452W        W49443   0.382  16.955  19.830  0.0667  0.0284 -0.0245
 6453W        W49444  24.593  13.617   1.901 -0.3469 -0.2080  0.1077
 6454W        W49445  13.996  31.231   9.657  0.3078  0.0107  0.2553
 6455W        W49446  29.375  24.645   8.213 -0.0613  0.2028  0.2481
 6456W        W49447  11.391  30.328  26.615  0.1324 -0.0139 -0.1777
 6457W        W49448  27.352  32.297   2.880  0.1092 -0.1831  0.2141
 6458W        W49449  10.586  28.116   2.600 -0.0838  0.2223  0.1328
 6459W        W49450  16.991  31.365   6.191  0.1996 -0.0200 -0.0387
 6460W        W49451  11.326  22.099   4.314 -0.2178  0.3094 -0.2202
 6461W        W49452   5.748   7.124  28.946  0.4864 -0.2583 -0.0527
 6462W        W49453  24.595  19.803   7.574  0.0018 -0.1375  0.0793
 6463W        W49454  18.410  25.167   9.518  0.0109 -0.2633 -0.0716
 6464W        W49455  31.746  30.386   7.880  0.2017  0.2053  0.1993
 6465W        W49456  29.830  13.556   9.463  0.2211  0.2271 -0.2054
 6466W        W49457   8.795   4.122  10.035 -0.0987 -0.1591 -0.1685
 6467W        W49458  14.256  25.930   8.531  0.0779 -0.0173 -0.0817
 6468W        W49459  19.160  25.053  27.269 -0.1820  0.3263  0.3594
 6469W        W49460  26.905  18.506   4.482  0.2176 -0.2002 -0.0867
 6470W        W49461   9.104  14.755   7.819  0.2166  0.1659 -0.0257
 6471W        W49462   3.971  23.536  23.181 -0.1945 -0.0730 -0.0869
 6472W        W49463  28.055  11.811   1.476  0.0782  0.1288  0.1320
 6473W        W49464  22.040  19.924   9.264  0.1413  0.0506 -0.1768
 6474W        W49465  15.185  23.228   3.647 -0.1228  0.3933 -0.0250
 6475W        W49466   2.200  19.300  10.001 -0.0601 -0.2698  0.1340
 6476W        W49467  26.295   0.497   4.882 -0.1171 -0.0028 -0.1139
 6477W        W49468  21.910  29.307   5.397  0.0605  0.5432  0.2213
 6478W        W49469  32.265   1.712  20.788 -0.0662 -0.1361  0.0426
 6479W        W49470  21.657   1.074  13.993  0.1615 -0.1361  0.1694
 6480W        W49471  15.646  24.405  20.145  0.3690  0.0822 -0.1596
 6481W        W49472   8.708  29.121   6.458  0.0120  0.3845  0.2614
 6482W        W49473  13.626  23.942   5.422  0.0996  0.3035  0.0153
 6483W        W49474  17.995   8.616   2.297  0.1786 -0.4029  0.1517
 6484W        W49475   2.678  12.798   9.057  0.0176 -0.2992 -0.2525
 6485W        W49476  21.941  27.724  27.958 -0.2152  0.1020  0.1754
 6486W        W49477  11.179   2.468  27.684  0.2054 -0.3021 -0.1933
 6487W        W49478   9.010  32.184  26.657  0.0299  0.1814  0.1885
 6488W        W49479  15.711  22.451  19.914  0.1222 -0.1266 -0.2733
 6489W        W49480  16.007  25.864  23.770  0.1200  0.3202  0.1507
 6490W        W49481  11.922  16.607   3.777 -0.0529  0.0989 -0.1588
 6491W        W49482  18.109  15.292  26.582 -0.0258 -0.0775 -0.0561
 6492W        W49483  17.320   0.059   0.284  0.3682 -0.2606  0.2945
 6493W        W49484  15.047  34.524  26.845 -0.1382  0.0186  0.3430
 6494W        W49485  19.379  27.629   6.964 -0.2432 -0.0289  0.1007
 6495W        W49486   0.513   1.395   3.728 -0.0588  0.0333  0.2973
 6496W        W49487  14.499  31.078   4.930  0.1607 -0.1248 -0.0591
 6497W        W49488  27.862  15.632   7.705  0.1887 -0.1335 -0.0046
 6498W        W49489  29.272  22.120  14.580  0.1984 -0.1269 -0.1451
 6499W        W49490  20.086  16.688  23.242  0.0768 -0.2085  0.1038
 6500W        W49491   9.625  31.957   1.797 -0.1553  0.1059  0.1968
 6501W        W49492  12.756  31.588  26.397 -0.2703 -0.2183 -0.0114
 6502W        W49493  20.406  10.759   2.995  0.1357 -0.2085  0.1117
 6503W        W49494  31.216  31.604  22.896 -0.2003  0.3436 -0.0784
 6504W        W49495   2.242  30.075  23.695  0.1403  0.1152 -0.1152
 6505W        W49496  32.103  20.538   7.572 -0.0510 -0.0521 -0.3246
 6506W        W49497  31.794  16.068   4.913  0.0792  0.2290  0.2085
 6507W        W49498   4.802  23.770  22.976 -0.0676  0.2658  0.1378
 6508W        W49499   8.946  19.170   6.292 -0.2474 -0.3464  0.0077
 6509W        W49500  18.224  11.338  27.242  0.1075  0.2802  0.2332
 6510W        W49501  17.636  20.683  24.563 -0.2201  0.2017  0.0326
 6511W        W49502  11.019  31.829   2.440  0.0023  0.2483 -0.0124
 6512W        W49503   9.911   7.560   3.797  0.0740  0.1150 -0.1001
 6513W        W49504  23.514  16.777  24.416  0.2941 -0.0259 -0.0313
 6514W        W49505   2.954  20.926   3.093 -0.4623  0.0963 -0.0143
 6515W        W49506  23.054  25.393   7.007  0.0990 -0.0826  0.1669
 6516W        W49507  12.548  20.495   3.054 -0.1348 -0.0097  0.0136
 6517W        W49508  17.826  30.241  26.824  0.3768 -0.2579 -0.0178
 6518W        W49509   0.998  24.275  19.089 -0.1119  0.0029  0.0145
 6519W        W49510  17.065  21.932   2.729  0.0026  0.0643 -0.0735
 6520W        W49511  16.165   3.032  10.890 -0.1818  0.1727  0.1177
 6521W        W49512  11.611  15.364   5.365  0.2569 -0.1196  0.0465
 6522W        W49513  11.190  16.966   8.039  0.1149 -0.0620  0.0170
 6523W        W49514  23.304  10.371   2.551  0.2799  0.0212  0.2269
 6524W        W49515  15.426  21.706  26.796  0.1108  0.1757 -0.2334
 6525W        W49516  25.481  29.564   1.623  0.2572 -0.0974 -0.1129
 6526W        W49517  20.498  19.545   6.454 -0.0028  0.4717  0.0237
 6527W        W49518  15.905   8.195   4.403 -0.0358  0.0319 -0.1387
 6528W        W49519  26.598   9.357   0.185 -0.0522 -0.2284 -0.0729
 6529W        W49520   2.475  28.323  23.667 -0.1133 -0.1442  0.0413
 6530W        W49521  15.424  28.408  10.364  0.3867 -0.1064 -0.1381
 6531W        W49522  14.284  17.907   3.109  0.0500  0.0808  0.1522
 6532W        W49523  13.356  25.973  16.283 -0.4111 -0.0399  0.0376
 6533W        W49524  19.160  24.165   5.941  0.0671 -0.0960  0.0122
 6534W        W49525  17.231  33.742   5.251  0.2193  0.1570 -0.0922
 6535W        W49526  12.211  20.818   5.997  0.0907  0.2083 -0.1186
 6536W        W49527  21.559  27.583   2.693 -0.1341 -0.0709 -0.2372
 6537W        W49528   9.617  23.803  27.195  0.3171  0.0197 -0.1649
 6538W        W49529  11.139  29.391   8.843  0.3351 -0.0216  0.4834
 6539W        W49530   2.875  15.273   0.650  0.0385 -0.2656  0.4399
 6540W        W49531   5.047  19.388   2.541 -0.0653 -0.0317 -0.2057
 6541W        W49532  11.764  26.489   8.601  0.3378  0.2255  0.1756
 6542W        W49533  27.350  22.655   0.031 -0.0423 -0.0181 -0.2491
 6543W        W49534  14.395  32.666  27.542  0.1576 -0.1040  0.0819
 6544W        W49535  20.141  30.892   4.967  0.3709  0.3827 -0.2523
 6545W        W49536  21.054  30.019   4.299 -0.2024  0.2404 -0.0620
 6546W        W49537  13.022  22.325   0.116  0.1313 -0.2727 -0.1860
 6547W        W49538  15.593  20.950  22.071 -0.1717  0.0790 -0.3269
 6548W        W49539  30.134   6.641  24.144 -0.2423  0.0963 -0.0412
 6549W        W49540  23.813  28.942   0.132  0.2263 -0.2550 -0.0901
 6550W        W49541  20.460  20.229  27.869  0.1668  0.0729 -0.0552
 6551W        W49542  33.401  11.116  15.796  0.1072 -0.1346 -0.2302
 6552W        W49543  23.454   0.851   9.639 -0.0088 -0.1357 -0.2198
 6553W        W49544  28.653  24.937  20.330  0.0845  0.0366  0.0552
 6554W        W49545  17.389  23.976  24.539 -0.2141  0.1750  0.0745
 6555W        W49546   0.918   9.220   1.011 -0.0218  0.1122 -0.1791
 6556W        W49547  18.030  18.080  24.844  0.0832 -0.1796 -0.1356
 6557W        W49548  14.927  23.590  15.941  0.0047 -0.0092 -0.2353
 6558W        W49549  11.153  13.422  23.416 -0.2146  0.3438  0.2160
 6559W        W49550  33.371  12.779  27.686  0.2921  0.0138  0.0756
 6560W        W49551   9.688  31.271   0.003 -0.0929  0.0270 -0.1095
 6561W        W49552  26.453  20.832  20.968  0.2828  0.1546  0.4117
 6562W        W49553  23.599  10.631   5.931  0.2643 -0.1490 -0.4448
 6563W        W49554   4.096  26.409   3.626  0.0452  0.1053  0.2597
 6564W        W49555  21.872   7.842  27.375 -0.2211 -0.0464 -0.0129
 6565W        W49556  30.081  14.932  10.014 -0.1487  0.1912 -0.1212
 6566W        W49557  18.976   3.790   6.514 -0.1278  0.0028  0.1383
 6567W        W49558  21.307  12.462  23.097 -0.0356  0.3308 -0.0585
 6568W        W49559  28.887  14.037  26.140 -0.1921  0.2053 -0.1477
 6569W        W49560  28.464   0.607   8.120  0.0298 -0.2342 -0.0275
 6570W        W49561  12.120   0.151   8.593  0.1664  0.0623  0.1618
 6571W        W49562  11.237  18.331   5.978 -0.0278 -0.1367 -0.2000
 6572W        W49563   7.784  28.340   3.084  0.1212 -0.0067  0.1722
 6573W        W49564  13.054  21.107  29.251 -0.3089 -0.0869 -0.0146
 6574W        W49565  11.902   1.227  29.192  0.2977  0.0565  0.2707
 6575W        W49566  33.453  16.676   3.066 -0.0320 -0.0236  0.1012
 6576W        W49567  25.261  18.283   1.336  0.0176  0.4153  0.2361
 6577W        W49568  28.492  24.879   5.848 -0.0756  0.0414 -0.0202
 6578W        W49569  10.915  11.886   4.711 -0.1745  0.1302  0.2700
 6579W        W49570   1.391  23.978   2.121 -0.2375 -0.0246  0.0355
 6580W        W49571  22.145   6.336  14.753  0.0160  0.1312  0.1917
 6581W        W49572  13.357  13.888   1.291 -0.0967  0.0170  0.1345
 6582W        W49573   0.725  27.054   8.920  0.0881  0.4540  0.0446
 6583W        W49574   8.374  22.181   4.735  0.2759 -0.1704  0.1666
 6584W        W49575  12.239  29.912   3.128 -0.0827 -0.1682 -0.1344
 6585W        W49576  14.502  24.717   3.089  0.0053  0.2388 -0.0407
 6586W        W49577  28.061  28.817   8.272  0.1388 -0.0663  0.0948
 6587W        W49578  31.800   8.228   7.489  0.0279 -0.0489  0.0590
 6588W        W49579  20.926  23.545  17.400 -0.1758  0.0156 -0.0009
 6589W        W49580  16.320  28.797  10.390 -0.1128  0.0613 -0.1107
 6590W        W49581  23.750  11.604   5.875  0.3816  0.2741  0.0666
 6591W        W49582  13.684  32.139  29.185  0.0814 -0.0650  0.1579
 6592W        W49583  13.748  34.655   7.045 -0.0694  0.0970  0.1680
 6593W        W49584   9.074  22.392  25.804  0.0821 -0.0738 -0.0228
 6594W        W49585   1.586  31.998   8.131  0.0078 -0.1635 -0.1742
 6595W        W49586  25.770  20.512   3.139  0.0535 -0.0127  0.1256
 6596W        W49587  10.619   5.433   6.942  0.1310  0.3252 -0.2861
 6597W        W49588  11.271  16.741  28.612  0.0596  0.2073  0.3443
 6598W        W49589  18.557  19.412   6.100  0.1169 -0.1288  0.1571
 6599W        W49590  10.673  27.591   9.732 -0.0010  0.0794 -0.3514
 6600W        W49591  29.194  22.860   5.783  0.2043 -0.1161 -0.0986
 6601W        W49592  26.501  19.098  10.159  0.3149 -0.1166  0.1867
 6602W        W49593  23.546   1.530   7.917 -0.0428  0.0924  0.0437
 6603W        W49594   9.343  20.694   7.946  0.0700  0.2003 -0.0273
 6604W        W49595  18.489  27.187  14.478 -0.0246  0.1190 -0.0330
 6605W        W49596  28.592  28.291   4.384  0.1029 -0.1521 -0.0862
 6606W        W49597  13.152  28.457   3.849 -0.0449  0.1374 -0.2308
 6607W        W49598  14.119  20.528  13.345  0.0284 -0.0494 -0.0242
 6608W        W49599  21.981   9.116   8.982  0.1009 -0.1100  0.2325
 6609W        W49600  29.725  20.394  14.793 -0.3465  0.0521 -0.1648
 6610W        W49601  24.482  27.404  24.864  0.2375  0.1154 -0.1207
 6611W        W49602  32.082   0.158  25.474 -0.3254  0.0245  0.2858
 6612W        W49603  11.233  27.049  26.303 -0.0782 -0.2255 -0.1321
 6613W        W49604  19.898  10.288   4.659  0.0944  0.3141 -0.0823
 6614W        W49605  22.353  18.327   9.199 -0.2407 -0.2598  0.2192
 6615W        W49606  15.706  26.536   0.373 -0.2460  0.0233  0.0733
 6616W        W49607  30.913  26.847  26.524 -0.2218  0.2510 -0.0400
 6617W        W49608  16.542  13.643   1.685 -0.2106 -0.1100  0.0568
 6618W        W49609  16.178  30.460  28.780  0.1341 -0.0350  0.2236
 6619W        W49610  23.885  17.176   3.657 -0.3596 -0.0256  0.1665
 6620W        W49611  19.190   0.029  14.964  0.0765  0.0082 -0.2889
 6621W        W49612  15.152  27.375   4.174 -0.0162  0.1567 -0.1326
 6622W        W49613  19.510  23.628  24.680  0.0599 -0.0437 -0.3146
 6623W        W49614  28.492  14.837   5.775 -0.3076  0.2128  0.1130
 6624W        W49615  10.651  20.810   7.273  0.1522 -0.7629 -0.0752
 6625W        W49616  21.823   5.690  25.284  0.3044 -0.0614  0.2606
 6626W        W49617   8.113  22.800   6.861  0.0861  0.2076 -0.2773
 6627W        W49618  23.506   0.712   8.639  0.0287  0.0717  0.0212
 6628W        W49619  24.474  26.812  24.396  0.1235 -0.0867 -0.0507
 6629W        W49620  20.365  13.553   0.561  0.0662  0.0896  0.0965
 6630W        W49621  14.313  17.263   6.229 -0.1986  0.0615 -0.2485
 6631W        W49622  25.265  15.940   7.829  0.0442  0.3246  0.4292
 6632W        W49623  27.355  25.963  27.018 -0.0179  0.1726 -0.2907
 6633W        W49624   7.743  33.202   9.600  0.1535 -0.2711 -0.2340
 6634W        W49625   9.916  13.383   7.277  0.1964 -0.0348 -0.2027
 6635W        W49626  10.954   4.186  10.598 -0.1074  0.1090 -0.1769
 6636W        W49627  33.417  20.812   6.487 -0.4344  0.0624  0.0752
 6637W        W49628   4.413  18.305   9.010 -0.1581  0.1667  0.1630
 6638W        W49629  34.229  23.220   6.889  0.1176  0.1451  0.2024
 6639W        W49630  12.167  27.112   0.567 -0.2404  0.0987  0.0012
 6640W        W49631  14.019  22.599   3.510 -0.0815  0.1026  0.1230
 6641W        W49632   8.548   9.728  26.454 -0.0632 -0.0766  0.1055
 6642W        W49633  33.071  21.892  23.990 -0.0492  0.0890  0.1053
 6643W        W49634   3.654  25.790  28.174 -0.3583  0.1403 -0.1305
 6644W        W49635  25.830  30.286  29.176 -0.0116  0.0870  0.1607
 6645W        W49636  12.238  30.134   8.667  0.0492 -0.0044  0.0152
 6646W        W49637  17.836  23.051   2.099 -0.0678  0.2329  0.0857
 6647W        W49638  22.144  32.093  22.241  0.2803  0.0688 -0.0733
 6648W        W49639  18.095  20.729   5.043 -0.0673 -0.0420 -0.0146
 6649W        W49640   9.218  29.990   5.652 -0.0207  0.2025  0.1648
 6650W        W49641  11.421  28.617   8.177  0.2166 -0.2579 -0.0507
 6651W        W49642   2.874  26.650   2.460 -0.0203  0.1889  0.3535
 6652W        W49643  32.487   6.164   2.818  0.1878  0.2906  0.0037
 6653W        W49644  21.938  21.373   0.036  0.1164  0.3590  0.1603
 6654W        W49645  12.567  24.990  27.834 -0.0577  0.3353  0.0288
 6655W        W49646  29.255  33.078   5.409 -0.0975  0.1711 -0.3299
 6656W        W49647  11.372  29.722   0.510 -0.3799 -0.0193 -0.0094
 6657W        W49648  32.053   4.283   4.505  0.0085  0.1519 -0.0755
 6658W        W49649  15.375   0.009  28.895 -0.0971  0.2020 -0.2433
 6659W        W49650  24.240  23.777  25.123  0.0341 -0.1890  0.2278
 6660W        W49651  12.784  10.928  18.912 -0.2589  0.2360  0.1307
 6661W        W49652  26.612  23.283   5.661  0.0367  0.1658  0.1102
 6662W        W49653  13.655  23.893  23.961  0.0366 -0.0129  0.0317
 6663W        W49654  20.415  19.972   7.175 -0.2772 -0.0252 -0.5067
 6664W        W49655   2.326  27.777   4.058 -0.0564  0.3964 -0.1381
 6665W        W49656  10.472  22.885   8.321  0.1594 -0.0623 -0.4165
 6666W        W49657   5.497  13.285   4.363 -0.1231 -0.0090 -0.1409
 6667W        W49658  18.566   9.950  10.162  0.1607 -0.1993  0.0747
 6668W        W49659  30.959  30.239  25.412 -0.1145 -0.1585 -0.0898
 6669W        W49660  20.840  10.220  27.091 -0.1396  0.0324  0.0169
 6670W        W49661   6.806   4.917   5.474  0.0805  0.2038  0.1199
 6671W        W49662  20.245   0.146   6.405  0.1746  0.2401  0.1009
 6672W        W49663  23.296  33.570  27.173  0.0597  0.0987  0.1416
 6673W        W49664  20.540  23.114   1.781 -0.2073  0.0484 -0.2914
 6674W        W49665  12.323  28.390  26.957 -0.0177  0.2115 -0.0526
 6675W        W49666  17.834  13.157   0.437 -0.1454 -0.2004  0.1124
 6676W        W49667  15.326  22.069   0.651 -0.1985 -0.1451 -0.4534
 6677W        W49668  24.973  29.592  20.630 -0.0020  0.2634 -0.2623
 6678W        W49669   9.786  29.570   7.913 -0.2301  0.1180 -0.0668
 6679W        W49670   7.575  28.568  28.242  0.0198  0.1827  0.1221
 6680W        W49671  11.974  23.503   9.029  0.1156 -0.0084  0.0219
 6681W        W49672  17.847  29.444  27.012 -0.2222  0.0425 -0.0766
 6682W        W49673  24.043  21.833   3.950  0.1283 -0.3936  0.2365
 6683W        W49674  14.546  26.792   6.207 -0.3262  0.3871  0.1694
 6684W        W49675  26.807  16.813   7.105 -0.2419  0.2468  0.0780
 6685W        W49676   6.104   6.379  28.322  0.2367  0.1809 -0.3071
 6686W        W49677  20.188  29.278   6.011  0.2631 -0.1023  0.0108
 6687W        W49678  16.970  11.739   9.691  0.1333  0.0836 -0.3060
 6688W        W49679  26.341  18.028   3.454 -0.0123 -0.2150  0.0155
 6689W        W49680  34.498  31.139   3.923  0.0788  0.1347  0.1382
 6690W        W49681   8.812  14.086  26.758 -0.0199 -0.0383 -0.1397
 6691W        W49682   9.731  17.797   4.247 -0.1910 -0.0797  0.1030
 6692W        W49683  16.915  21.340  25.319  0.1362 -0.0557  0.0336
 6693W        W49684  26.007  28.854   6.586  0.0024  0.1374  0.1423
 6694W        W49685  24.285  18.260   2.316  0.1441 -0.1431 -0.1925
 6695W        W49686  19.346   3.756   4.435 -0.0855 -0.0398 -0.3337
 6696W        W49687  32.188  17.873  19.770  0.1606 -0.1333  0.2740
 6697W        W49688  16.023  25.038   0.828 -0.1174 -0.2824 -0.2433
 6698W        W49689  17.364  33.649   9.321  0.1656 -0.1882  0.3147
 6699W        W49690  14.938  31.929  25.752  0.0185 -0.2251  0.2580
 6700W        W49691  16.943   6.330   1.698 -0.1356 -0.0295 -0.0434
 6701W        W49692  17.104   4.884  26.790  0.0299  0.3402 -0.0579
 6702W        W49693   6.891  21.830   1.984 -0.2422 -0.1896  0.0144
 6703W        W49694  21.756  29.130   9.368 -0.2307 -0.2593  0.1106
 6704W        W49695  18.319  18.345  13.379 -0.2970  0.1102 -0.3445
 6705W        W49696  31.512  21.891   0.446 -0.2076 -0.3276 -0.0504
 6706W        W49697  18.103  22.370   0.878 -0.0566 -0.2278 -0.0502
 6707W        W49698  28.279  30.189   7.981 -0.2381  0.3224 -0.0553
 6708W        W49699  19.594  18.666   4.799  0.0824 -0.2387  0.1231
 6709W        W49700  13.711  14.485   6.599 -0.1305  0.2776 -0.2017
 6710W        W49701  24.655  30.867  19.206 -0.0114 -0.1639 -0.1421
 6711W        W49702  12.432  28.173   0.519  0.0161  0.1070 -0.0913
 6712W        W49703  11.630  29.292   5.437  0.5202  0.1941  0.2442
 6713W        W49704  32.896  19.267   9.755  0.1208 -0.1504  0.2305
 6714W        W49705  25.475  31.745   6.494 -0.1143  0.1026 -0.3354
 6715W        W49706  12.536  25.634   1.025 -0.0409  0.2178 -0.2189
 6716W        W49707  28.013  27.125  26.555  0.2169  0.1365 -0.0063
 6717W        W49708  26.719  28.551   9.220  0.2661 -0.1067  0.2222
 6718W        W49709  33.833  33.495  17.673  0.3753 -0.0305  0.3279
 6719W        W49710  17.085  26.823   0.064 -0.0257 -0.0901  0.0715
 6720W        W49711  22.885   4.298  18.748 -0.2343 -0.0044  0.2834
 6721W        W49712   8.389  27.386   2.001  0.1250 -0.1422  0.0428
 6722W        W49713   8.464  25.950  23.683  0.0737 -0.0232  0.2900
 6723W        W49714   7.488  26.432   6.988 -0.0182 -0.1254 -0.2920
 6724W        W49715  28.703  30.422   4.459  0.0386  0.2086 -0.3507
 6725W        W49716  14.089  23.554   0.280 -0.0246  0.0753  0.1239
 6726W        W49717  14.724  33.686   6.411  0.1948  0.0180  0.0753
 6727W        W49718   5.284  12.582   2.185  0.0298  0.1039 -0.5899
 6728W        W49719  17.757  22.784   7.055  0.1744 -0.2889 -0.0519
 6729W        W49720  16.245  18.444   7.649  0.0067 -0.1480 -0.1749
 6730W        W49721   8.257  32.863   1.982  0.0157 -0.0797 -0.3237
 6731W        W49722  15.886  23.456   8.936 -0.1119 -0.1945 -0.1912
 6732W        W49723  15.159  26.614   6.916 -0.1372  0.1195 -0.1389
 6733W        W49724   2.756  29.372   5.649  0.2532 -0.1391  0.1102
 6734W        W49725   5.690  27.037   2.818 -0.0955  0.4303  0.1283
 6735W        W49726  18.275   3.872   9.582  0.0350 -0.6292 -0.2181
 6736W        W49727  21.659  17.500   8.500  0.0413 -0.1174 -0.0516
 6737W        W49728   6.100  23.006   6.614  0.1536 -0.0109 -0.0657
 6738W        W49729  21.845  29.701  20.116 -0.0710  0.0728 -0.0232
 6739W        W49730  13.455   7.709  28.881  0.0983  0.4370 -0.0246
 6740W        W49731  19.418   8.500   6.345  0.2246  0.0058  0.0421
 6741W        W49732  16.326  23.791   2.987 -0.3791  0.1017  0.1146
 6742W        W49733  11.570  27.078   2.431  0.3605 -0.0729 -0.1273
 6743W        W49734  31.516   3.695   9.292 -0.0319 -0.2600  0.1905
 6744W        W49735  31.030  24.627  24.143  0.2359  0.2605 -0.2474
 6745W        W49736  17.327  29.273   0.679  0.0582 -0.0547  0.0467
 6746W        W49737  16.664  31.241   3.924  0.0184  0.0379 -0.0280
 6747W        W49738  33.148  23.202   6.243 -0.0230 -0.0755 -0.0770
 6748W        W49739  21.271  34.421  29.162  0.0037  0.3031  0.0844
 6749W        W49740  10.994  19.765   8.330  0.0310  0.1442 -0.0324
 6750W        W49741  20.608  27.499   8.994  0.0376  0.2940 -0.0364
 6751W        W49742  26.490  19.430   5.017 -0.0593 -0.1278  0.2358
 6752W        W49743  12.590   1.873   4.846 -0.2218  0.0066 -0.0666
 6753W        W49744  16.566   6.306   1.323 -0.0759  0.3739  0.1845
 6754W        W49745  24.451  26.364   0.567  0.1186 -0.2394 -0.1702
 6755W        W49746   7.278  21.906  27.861 -0.0167 -0.3531  0.0679
 6756W        W49747  13.651  26.586   7.109  0.1079 -0.0535 -0.0728
 6757W        W49748  13.903  23.306  10.351 -0.0869 -0.5183 -0.1958
 6758W        W49749   5.113  34.543   1.403  0.0221  0.0022  0.0142
 6759W        W49750  16.860  24.405  18.946  0.0782  0.3006  0.0826
 6760W        W49751  27.255   0.606  27.938  0.0650  0.0132  0.1510
 6761W        W49752  21.787   0.730   5.144 -0.1401  0.2231 -0.0645
 6762W        W49753   5.829  22.324  26.875 -0.0806  0.6362 -0.2265
 6763W        W49754  16.872   9.335   8.149  0.0503  0.0414 -0.2296
 6764W        W49755  27.563  28.916  16.005  0.3432 -0.1360  0.2152
 6765W        W49756  21.320  31.395  28.418  0.0758  0.0518  0.1096
 6766W        W49757  22.767  27.576   3.340  0.0054 -0.0374  0.3860
 6767W        W49758  20.363  29.028  27.252  0.0158 -0.1378 -0.1778
 6768W        W49759  11.250  12.983   8.781  0.1540  0.1901 -0.1038
 6769W        W49760  18.908  19.088  22.664  0.1678  0.2330 -0.1073
 6770W        W49761   6.792  31.892   5.446  0.4752  0.2443  0.0689
 6771W        W49762  20.919  32.548  14.717  0.0273  0.0650 -0.2192
 6772W        W49763  20.620  20.998  28.182 -0.0371 -0.0008  0.2209
 6773W        W49764   2.778   8.467  10.511 -0.1309 -0.3494 -0.1279
 6774W        W49765  22.608  33.986  18.902  0.2588  0.1634  0.2370
 6775W        W49766  11.738  28.582  25.731 -0.2236  0.0605  0.1204
 6776W        W49767  26.985  22.020   2.421  0.1369 -0.0465  0.0404
 6777W        W49768   3.914   5.876  26.026 -0.2362 -0.0151 -0.4333
 6778W        W49769   2.753   8.462   8.011 -0.1689  0.0930  0.2259
 6779W        W49770  21.403  17.107   5.313 -0.1752 -0.1196  0.1799
 6780W        W49771  17.646   3.489  26.352  0.3514 -0.2611 -0.0852
 6781W        W49772  21.899  26.091  15.694  0.0130 -0.0430 -0.2122
 6782W        W49773  33.745  19.754   5.373  0.2219  0.1714  0.0017
 6783W        W49774  16.576  25.973   2.259 -0.1858  0.1165 -0.0107
 6784W        W49775  14.557  25.038  27.081 -0.1773 -0.1867 -0.1601
 6785W        W49776  19.342  16.436  23.761  0.2036  0.1079 -0.0106
 6786W        W49777  21.838  28.232   1.132 -0.0580 -0.2716 -0.2644
 6787W        W49778   9.240  24.985   6.738  0.4443 -0.2753  0.2689
 6788W        W49779   0.079   1.629  26.127  0.1620 -0.0579  0.0248
 6789W        W49780  20.343  32.073   7.398 -0.3389  0.1865  0.2067
 6790W        W49781  17.155  27.751  27.195 -0.1572 -0.6495  0.2399
 6791W        W49782  22.245   3.558   2.781  0.1266 -0.3485  0.0932
 6792W        W49783  12.208   8.738  17.101  0.0177  0.4049 -0.1916
 6793W        W49784  11.715  27.264   0.536  0.1880  0.1851  0.0197
 6794W        W49785  10.166  20.924   7.244 -0.2179 -0.1543 -0.1974
 6795W        W49786  11.362  19.318   6.882  0.0610 -0.1836  0.1605
 6796W        W49787   7.487  23.140   3.345  0.0369 -0.3602 -0.0167
 6797W        W49788  11.122  20.518  19.722 -0.0628 -0.2160  0.0091
 6798W        W49789   8.566  13.073   0.505  0.4009  0.1554  0.4102
 6799W        W49790  23.382  21.119   2.423  0.2424 -0.1347  0.1976
 6800W        W49791  29.063  26.037   0.307 -0.0303 -0.3118  0.2872
 6801W        W49792  16.647  24.209  14.401 -0.3266  0.1178  0.2881
 6802W        W49793   8.286  23.259  18.284 -0.3055  0.0309  0.1049
 6803W        W49794  15.048  30.511   3.644 -0.2214  0.1232  0.0824
 6804W        W49795   7.971  29.421   4.992  0.2976  0.0451  0.3674
 6805W        W49796  23.655  31.078   0.145 -0.2155 -0.1954 -0.1724
 6806W        W49797  31.492  12.278  21.832 -0.2311 -0.2142 -0.0601
 6807W        W49798  15.489  12.969  29.221 -0.0664 -0.1013 -0.1742
 6808W        W49799  22.708  31.774   0.009  0.0172 -0.0261 -0.0350
 6809W        W49800  20.648  26.190   5.704  0.2037  0.0678  0.1304
 6810W        W49801  17.447  30.576  23.976 -0.2738  0.2602 -0.0401
 6811W        W49802  10.493   9.336  21.975 -0.1900  0.1044  0.1331
 6812W        W49803  10.082  28.607  10.459  0.1298 -0.0692 -0.0935
 6813W        W49804  14.993  19.468   5.749  0.1237  0.1806  0.2208
 6814W        W49805  13.596  30.012   8.849  0.1168 -0.4042  0.2178
 6815W        W49806  15.191   1.828  17.638  0.1778 -0.0122 -0.2759
 6816W        W49807  15.603  29.260   7.706 -0.0313 -0.0741  0.0819
 6817W        W49808  10.252  32.496  10.324  0.0701 -0.0408 -0.0294
 6818W        W49809  25.017   6.294   7.963  0.2900 -0.3202 -0.4961
 6819W        W49810  29.537  10.667  17.048 -0.0523  0.1015 -0.0879
 6820W        W49811  14.475  10.585  15.555  0.1592  0.0656 -0.2922
 6821W        W49812  25.089  18.362  24.892  0.0071 -0.0469 -0.0071
 6822W        W49813   9.904  18.310   3.524 -0.0511 -0.1971 -0.2202
 6823W        W49814  19.173  30.393  26.221 -0.3513 -0.0177 -0.0189
 6824W        W49815  12.150   1.614   0.057 -0.1010  0.2787 -0.1451
 6825W        W49816  20.012  20.121   0.627 -0.2614  0.1299  0.1473
 6826W        W49817   5.143  23.094  17.673 -0.0578 -0.0437  0.0795
 6827W        W49818  17.642  22.584  24.254  0.2150  0.2250 -0.1481
 6828W        W49819  13.100  34.770   0.771  0.0067  0.0998  0.2665
 6829W        W49820  20.220  31.281   1.879 -0.1144  0.2401 -0.0083
 6830W        W49821  33.513  28.855   3.960  0.1281 -0.0875 -0.0803
 6831W        W49822  30.985  22.597  15.785  0.2065  0.0459  0.0640
 6832W        W49823  27.142  28.978   6.113 -0.1850  0.0279  0.0675
 6833W        W49824  20.141  29.865  20.410 -0.0018 -0.1094  0.1166
 6834W        W49825  33.885  31.422  25.885 -0.0223 -0.0121  0.0643
 6835W        W49826  18.232  26.442  21.250 -0.1997  0.0865  0.0594
 6836W        W49827  16.149  19.903  27.543 -0.1918  0.0163  0.2183
 6837W        W49828  30.067  22.651   1.137  0.0086 -0.0895 -0.1209
 6838W        W49829   8.391   7.315   3.657 -0.0989 -0.0731 -0.1426
 6839W        W49830  17.090  32.264   8.126 -0.1734  0.1719  0.1571
 6840W        W49831  14.062  13.189   0.436  0.2197  0.2625  0.1525
 6841W        W49832  14.383   9.523  27.951  0.2747  0.0273 -0.1655
 6842W        W49833   7.914   1.088   8.864  0.1110  0.4330 -0.2848
 6843W        W49834   5.686   1.433   5.817 -0.3520  0.1711  0.2849
 6844W        W49835  18.580   8.260   0.191  0.1238 -0.1367  0.1602
 6845W        W49836   2.263   0.063  28.032  0.0417  0.2016 -0.0745
 6846W        W49837  24.355   6.994  19.495  0.1199 -0.2659 -0.0087
 6847W        W49838  12.834  24.161   5.765 -0.0061  0.3056 -0.1212
 6848W        W49839   2.148   6.519  15.692 -0.0648 -0.1932  0.0667
 6849W        W49840  16.527   0.742   9.864 -0.1673 -0.2085 -0.1119
 6850W        W49841   5.881  32.446  22.348 -0.0797 -0.1831  0.0284
 6851W        W49842   1.116   3.752   1.866 -0.1025 -0.1497 -0.0585
 6852W        W49843   6.555  26.550  29.252  0.0694  0.0740  0.2903
 6853W        W49844  12.977  26.618  10.385  0.0136 -0.0277 -0.0085
 6854W        W49845   6.546  34.751  23.997 -0.0431 -0.1376 -0.2412
 6855W        W49846  19.800   9.405  28.300 -0.2355 -0.2373  0.0915
 6856W        W49847  33.179   1.850   4.729  0.1632 -0.2245  0.4171
 6857W        W49848  26.469   2.120   6.079 -0.1291 -0.0161 -0.4719
 6858W        W49849  17.691  33.729  23.257  0.1197 -0.3497 -0.0284
 6859W        W49850  17.605   4.276  25.344  0.1854  0.2282 -0.2490
 6860W        W49851   7.512  16.562  21.550  0.0244  0.0486 -0.1612
 6861W        W49852  11.989  20.531  24.673  0.0368 -0.2512 -0.0209
 6862W        W49853  22.616   3.375   0.915  0.3683 -0.0141  0.0171
 6863W        W49854  21.429  19.851  13.607  0.1914 -0.2240  0.1192
 6864W        W49855   7.949  34.264   1.878 -0.2003 -0.1819  0.0108
 6865W        W49856   5.123  30.530  19.381  0.2274  0.0911 -0.0522
 6866W        W49857  14.765  30.255  22.289 -0.2424 -0.2147  0.1169
 6867W        W49858   4.146  33.873   4.757 -0.0163  0.1130  0.0774
 6868W        W49859   9.941  31.739  27.189 -0.0303 -0.0759 -0.0417
 6869W        W49860   4.321  20.585   0.391  0.1116  0.1151  0.2601
 6870W        W49861  10.652  28.605  10.139 -0.0317  0.1090  0.1610
 6871W        W49862  17.577   7.196   5.331  0.1437  0.1460 -0.3950
 6872W        W49863  28.480  19.435   6.330  0.0157 -0.1043  0.0839
 6873W        W49864  17.618   4.304  27.938 -0.1895 -0.0768 -0.0229
 6874W        W49865  18.384  24.400  24.400 -0.1628  0.1045  0.1805
 6875W        W49866  15.923  16.249  27.759 -0.1881 -0.0558 -0.2784
 6876W        W49867  25.920   6.295  26.795  0.0408  0.2489  0.2537
 6877W        W49868  28.903  26.001  24.483 -0.0937 -0.1094  0.1428
 6878W        W49869  10.594  24.630   1.221 -0.2174  0.0607  0.1810
 6879W        W49870  17.112   5.857   3.585  0.0763 -0.0303 -0.3528
 6880W        W49871  18.367  16.277   2.303 -0.1675 -0.2055  0.1304
 6881W        W49872  12.106  31.522   9.109 -0.2685  0.2540 -0.0038
 6882W        W49873   4.548   1.821   6.187  0.0265 -0.1587  0.2791
 6883W        W49874   2.686  30.385  17.279  0.0218  0.1653 -0.0666
 6884W        W49875  32.319   4.751  25.119 -0.1885  0.0507  0.3135
 6885W        W49876   9.074  27.880  27.066  0.2483 -0.0732 -0.3474
 6886W        W49877  19.249  27.481  21.069 -0.0741  0.1447 -0.2126
 6887W        W49878  34.523  16.009   7.845  0.2935  0.0676  0.2346
 6888W        W49879   0.676  33.317  27.206 -0.1114 -0.1948  0.0678
 6889W        W49880  13.285  28.703   1.364  0.0794  0.0766  0.1436
 6890W        W49881   2.947   0.349  24.578  0.1541  0.0774 -0.0213
 6891W        W49882  15.034   7.115   1.952  0.3310  0.0131  0.0884
 6892W        W49883  24.105  24.577  14.204 -0.4297 -0.2191 -0.3302
 6893W        W49884  29.710  31.506  19.027  0.2454 -0.1520 -0.2830
 6894W        W49885  13.031  12.768  29.232  0.0210 -0.0589  0.2244
 6895W        W49886  23.568  33.116  23.831  0.0360 -0.2708  0.0006
 6896W        W49887  11.368  13.258   1.159 -0.0551  0.0125  0.2278
 6897W        W49888   5.861   9.034  20.050  0.1016 -0.0308 -0.1188
 6898W        W49889  13.605  26.470   5.195 -0.0934  0.0743  0.3512
 6899W        W49890  16.055  26.064  27.947 -0.3123 -0.0363 -0.1166
 6900W        W49891  25.222  25.644  22.078 -0.1283  0.1657  0.1483
 6901W        W49892  11.552  33.717  24.660  0.1710  0.1042  0.1016
 6902W        W49893  25.366  30.187   7.037 -0.0226 -0.1944  0.2220
 6903W        W49894   4.224  20.696  27.752  0.1037 -0.0171 -0.0526
 6904W        W49895  13.228  16.699  15.259 -0.0708  0.1148  0.1509
 6905W        W49896   6.616  25.857   3.504  0.0953 -0.1772  0.0900
 6906W        W49897   8.898  28.964   9.126  0.1669 -0.3135 -0.3386
 6907W        W49898  32.166  22.719  19.425  0.0988 -0.2765  0.2374
 6908W        W49899  17.113  34.031  29.094  0.0161 -0.1011 -0.1328
 6909W        W49900   8.461  21.330  21.566 -0.1122 -0.0016 -0.1092
 6910W        W49901   7.503   2.267  10.141  0.3465  0.0899 -0.4269
 6911W        W49902  28.741  30.394   7.098  0.3208  0.1301 -0.0187
 6912W        W49903  24.596  21.627   7.435 -0.1327 -0.0843  0.4294
 6913W        W49904  24.247  15.014  27.394  0.0996  0.1383 -0.0016
 6914W        W49905   9.904   5.909   3.830 -0.4489 -0.0493  0.1409
 6915W        W49906   0.400  28.868  22.574 -0.0082  0.2879  0.2399
 6916W        W49907  33.047  33.869   2.133  0.4818 -0.0803 -0.2770
 6917W        W49908  13.251   8.312   9.308  0.2624  0.0012 -0.0306
 6918W        W49909  16.932  12.800  15.993 -0.0281  0.3752 -0.1707
 6919W        W49910  26.753  34.449  27.077 -0.1960  0.0864  0.0457
 6920W        W49911  26.333   4.581   8.713 -0.0226 -0.0210 -0.1621
 6921W        W49912  18.674   1.905  22.904  0.2361 -0.0146  0.0212
 6922W        W49913  18.088  26.825   8.121 -0.2285 -0.0186  0.1381
 6923W        W49914  18.900  33.625   4.957  0.3533  0.0368 -0.3878
 6924W        W49915  21.346   6.547  19.859 -0.0038  0.0892  0.5067
 6925W        W49916   6.142  19.837   4.139  0.0153 -0.0116  0.2440
 6926W        W49917   1.465  31.719  16.034  0.0253  0.0119 -0.2125
 6927W        W49918  22.770  34.168   5.457  0.2915  0.1317 -0.0070
 6928W        W49919  30.088  23.425  18.336  0.3563 -0.2569  0.1982
 6929W        W49920  15.137  27.334   7.194  0.0219 -0.0615 -0.1591
 6930W        W49921  17.235   0.939   6.347  0.1012 -0.1481  0.0027
 6931W        W49922   9.109  24.789   9.790  0.3722  0.2672  0.1434
 6932W        W49923  15.741  15.296   2.160  0.1025 -0.1491  0.1068
 6933W        W49924  11.760  26.392   0.021 -0.1127 -0.0464 -0.0788
 6934W        W49925  15.111  13.714  23.488 -0.0563 -0.0511 -0.0212
 6935W        W49926  13.866   2.124   4.575  0.0953  0.5089 -0.3409
 6936W        W49927  12.339  26.748  24.018 -0.3074  0.0190  0.1737
 6937W        W49928   0.025  28.305  13.740  0.2335  0.1240 -0.2327
 6938W        W49929   8.074  29.280  18.850  0.0590 -0.0494 -0.1183
 6939W        W49930  26.843  24.638   6.658 -0.1306 -0.2651 -0.0773
 6940W        W49931  10.708   3.937   8.851  0.0244  0.0480 -0.3023
 6941W        W49932  11.224  27.110   7.085 -0.1099  0.0304 -0.2045
 6942W        W49933   9.465  32.863   7.799  0.1091 -0.0853  0.2342
 6943W        W49934  32.266   9.020   8.730 -0.0011 -0.4053 -0.0127
 6944W        W49935  17.949  31.074  21.016 -0.0739 -0.1029  0.2017
 6945W        W49936  22.139  28.033   3.840 -0.0405 -0.0425 -0.1572
 6946W        W49937   7.821  15.188  18.280  0.2181 -0.0021 -0.0928
 6947W        W49938  27.928  22.708  16.314 -0.0868 -0.0131 -0.0088
 6948W        W49939  32.591   2.041  16.935 -0.3221 -0.1536  0.0987
 6949W        W49940   5.341   3.779  23.654 -0.0826  0.0071 -0.0430
 6950W        W49941  13.247  11.983  15.433 -0.2089 -0.0445  0.0842
 6951W        W49942  16.966   6.514  10.703 -0.1902  0.0246  0.0041
 6952W        W49943  32.777  24.702  25.904 -0.1425  0.2450  0.2662
 6953W        W49944   4.996  31.491  16.392  0.1976 -0.1349 -0.0229
 6954W        W49945  34.565   5.392  17.328  0.5815 -0.1371  0.0522
 6955W        W49946  28.239  25.040   1.301 -0.0281  0.0922 -0.0525
 6956W        W49947  10.891  24.063   1.860 -0.3706  0.2771 -0.1025
 6957W        W49948  28.782  26.168  23.997  0.3660  0.3675  0.0395
 6958W        W49949  18.113  20.638   1.122  0.3007 -0.0487 -0.1057
 6959W        W49950   4.289  33.404  29.058 -0.1720 -0.2145 -0.0543
 6960W        W49951  20.089  32.697  27.617  0.2901  0.0550 -0.0526
 6961W        W49952   1.908  28.499  16.405  0.1152  0.0869 -0.0354
 6962W        W49953  26.624  33.505   2.180 -0.2476 -0.0913  0.1189
 6963W        W49954  19.139  30.442  22.621 -0.3087 -0.1885 -0.1005
 6964W        W49955  23.074  31.305   0.845 -0.0578  0.1582 -0.3410
 6965W        W49956  25.690   8.023   2.843  0.2543 -0.0489 -0.1854
 6966W        W49957  28.791  31.709   5.210 -0.0143 -0.0581 -0.2006
 6967W        W49958  12.444  17.930  18.968  0.1209  0.0999 -0.0308
 6968W        W49959  30.103  20.263  28.088  0.0315  0.0828 -0.2045
 6969W        W49960  16.541  33.114  18.216  0.0420 -0.0188 -0.0029
 6970W        W49961   8.635  13.792   5.457  0.0468 -0.0084 -0.2795
 6971W        W49962   8.282  29.791   7.110  0.2111  0.2043  0.3336
 6972W        W49963  23.241  15.578   2.208 -0.4193  0.2667 -0.2860
 6973W        W49964  21.653  27.272  28.927 -0.0025 -0.2035  0.1727
 6974W        W49965  18.860   3.936  15.322 -0.1037  0.4480  0.3985
 6975W        W49966  22.628   1.192  24.932  0.1199 -0.0779  0.0148
 6976W        W49967  25.430  17.727  22.879 -0.1336 -0.0441 -0.0663
 6977W        W49968  23.909  13.250  22.497  0.4089  0.0428  0.3254
 6978W        W49969  15.862   1.079   6.158 -0.0201  0.2055  0.2467
 6979W        W49970  10.379  27.679  10.119 -0.2340 -0.2696 -0.4647
 6980W        W49971  16.777  25.828  16.296 -0.0175  0.2837 -0.0633
 6981W        W49972  23.309  26.058  20.609  0.0176  0.1764  0.0989
 6982W        W49973   2.161  29.323   4.820 -0.0679 -0.2220 -0.0559
 6983W        W49974  13.504  19.431   9.027 -0.2237 -0.0436 -0.1120
 6984W        W49975   9.283  15.134  10.119  0.2192 -0.0403  0.1152
 6985W        W49976  13.825  24.102  26.176  0.1968  0.1931 -0.1630
 6986W        W49977  18.846  23.049   4.509 -0.2320  0.0300  0.0555
 6987W        W49978  31.436  29.461  19.309 -0.0765 -0.2667 -0.1484
 6988W        W49979  30.153  18.937  10.455 -0.0466 -0.0977  0.0548
 6989W        W49980  10.173  26.398  25.094  0.0632  0.1303 -0.0844
 6990W        W49981  29.013  24.758  18.577  0.2766 -0.1003  0.0417
 6991W        W49982  30.153  20.821   2.053  0.1791 -0.0734 -0.1756
 6992W        W49983  26.860  11.323   8.550 -0.0380 -0.1430 -0.0734
 6993W        W49984  26.776   0.151  17.355  0.1093  0.1309  0.1202
 6994W        W49985  15.148   1.974  19.105  0.0615 -0.1929  0.1170
 6995W        W49986  19.205  26.349   0.207 -0.1148 -0.3854  0.2658
 6996W        W49987  12.022   0.266   8.072  0.1973  0.0202 -0.5794
 6997W        W49988  17.600   6.851   6.548  0.0961  0.0517  0.1596
 6998W        W49989   1.593  29.294   8.949 -0.1797  0.1792  0.0354
 6999W        W49990  24.933  20.910  18.275 -0.2908 -0.1024 -0.0117
 7000W        W49991  29.260   8.877  23.989 -0.0386 -0.1896 -0.0368
 7001W        W49992  19.004  27.003  19.563 -0.1727  0.2818 -0.2185
 7002W        W49993  17.805  17.237   7.658  0.1558  0.0084 -0.1545
 7003W        W49994  18.222  13.468  18.171 -0.0353 -0.0262  0.0714
 7004W        W49995  25.772  25.886  14.482  0.3457  0.1996 -0.1837
 7005W        W49996   9.782  28.705  26.944 -0.1903 -0.1054  0.2925
 7006W        W49997  19.516  33.859   6.625  0.1318  0.0455  0.1086
 7007W        W49998  19.304  32.610  27.719 -0.0060  0.0969 -0.2255
 7008W        W49999  23.137  18.419  28.500  0.0336  0.2645  0.3073
 7009W        W50000  11.904  17.215  16.497  0.0559 -0.0375  0.0117
 7010W        W50001  24.843  14.877   9.907 -0.0522 -0.6536  0.2293
 7011W        W50002  17.449  33.412  26.743 -0.1860  0.0848 -0.2695
 7012W        W50003   8.094  24.652   7.442  0.4142 -0.2629  0.0932
 7013W        W50004   7.129  26.902   3.558 -0.1403  0.2311 -0.4101
 7014W        W50005   8.635  31.910  27.085  0.0855  0.0451  0.2998
 7015W        W50006  12.584  25.228  28.759 -0.0844 -0.1396  0.0679
 7016W        W50007   5.194  13.152   2.569 -0.2459  0.0770  0.0796
 7017W        W50008  25.895  30.300   6.858 -0.0053 -0.1567 -0.3279
 7018W        W50009   2.153  19.223   8.349 -0.3337  0.1568  0.1588
 7019W        W50010  19.214   0.035  26.408  0.1305  0.2008 -0.1782
 7020W        W50011   9.801  32.424   8.833 -0.1902  0.0677  0.1093
 7021W        W50012  13.834  32.295   6.154 -0.0119  0.1862 -0.1126
 7022W        W50013  27.957  31.805   6.395  0.2153  0.0872 -0.0138
 7023W        W50014  10.284  10.649  27.383  0.3370 -0.1186  0.0745
 7024W        W50015  14.092  30.463   7.971 -0.2315 -0.1205  0.2499
 7025W        W50016  10.635  25.657  14.922 -0.3933 -0.1247  0.0342
 7026W        W50017  19.158  12.786   5.035 -0.1434 -0.1149  0.1915
 7027W        W50018  27.023  27.713   3.688  0.0250 -0.1642  0.1514
 7028W        W50019  16.961  21.712  22.412 -0.1033  0.0829 -0.0904
 7029W        W50020  17.636  23.735  21.369 -0.0259  0.1557 -0.2370
 7030W        W50021  13.176  18.541  22.707  0.3362 -0.1488 -0.0741
 7031W        W50022  27.079  32.237   7.819 -0.3423  0.1877  0.1020
 7032W        W50023  10.628   1.911  10.727 -0.0701 -0.0058  0.1098
 7033W        W50024  24.649  26.880   6.688 -0.0508 -0.1062  0.1828
 7034W        W50025   9.750  24.974  19.130  0.3980  0.0385  0.0878
 7035W        W50026  19.767  29.677   6.948 -0.1187 -0.0789 -0.2569
 7036W        W50027  22.778   9.556  29.089  0.1258 -0.0353  0.1043
 7037W        W50028  34.584  27.510  16.555 -0.1038 -0.0877  0.1231
 7038W        W50029  13.350   9.823   5.386  0.1130  0.1246 -0.0865
 7039W        W50030   4.510   1.685   7.458  0.1588 -0.0784  0.0582
 7040W        W50031  16.167  26.276   2.178 -0.2298 -0.2512  0.0341
 7041W        W50032  21.842  31.038  28.780  0.1144 -0.0007 -0.1708
 7042W        W50033  24.614  17.171  27.492  0.3492 -0.1870 -0.0729
 7043W        W50034  12.191  30.389   3.950  0.3418  0.0032  0.0844
 7044W        W50035  21.563  30.239  29.110  0.3786 -0.2816 -0.1369
 7045W        W50036  22.943  22.402   1.071  0.1164 -0.2099  0.1039
 7046W        W50037   8.634  27.815  27.689  0.3726  0.2122  0.0694
 7047W        W50038  10.115  22.009  22.116  0.0685 -0.0017 -0.2231
 7048W        W50039  25.462  17.415  26.495 -0.3035 -0.1700 -0.1289
 7049W        W50040  30.011  18.733   9.684 -0.0008 -0.2106 -0.0975
 7050W        W50041   7.168   2.251  20.845 -0.3726 -0.1413  0.3155
 7051W        W50042  32.105   0.199   7.287 -0.0444 -0.2663  0.0029
 7052W        W50043  16.961   2.641  10.746  0.1856  0.0413 -0.1441
 7053W        W50044  21.743  32.379  14.324 -0.0462  0.1121 -0.2387
 7054W        W50045   6.227   4.331   7.870 -0.2257  0.0293 -0.1469
 7055W        W50046  20.950   5.186   3.657 -0.1395  0.1105 -0.2382
 7056W        W50047  34.635  32.248  19.002  0.1312  0.0067 -0.1747
 7057W        W50048  21.621  13.515   4.880  0.2415  0.0150  0.0076
 7058W        W50049   2.228  32.773   1.882  0.1353  0.0950 -0.0580
 7059W        W50050   7.099  30.198   7.046 -0.0603  0.2983  0.1419
 7060W        W50051  22.654  12.174   4.258  0.3345 -0.1719  0.0032
 7061W        W50052  13.738  29.350   4.820 -0.1347  0.0532  0.0671
 7062W        W50053   2.624  15.537   9.051  0.3161  0.3483 -0.2758
 7063W        W50054  12.742   7.418   8.623 -0.2670 -0.0692 -0.3775
 7064W        W50055  22.967  32.940  29.258  0.0918  0.0399 -0.0884
 7065W        W50056  18.676  11.647  23.381  0.1389 -0.1079 -0.0733
 7066W        W50057   7.188  18.673   5.893  0.0164  0.3197  0.1384
 7067W        W50058  16.485   0.096   7.235  0.0881 -0.1765  0.1858
 7068W        W50059  10.320  23.251  21.363  0.1090 -0.1998  0.2519
 7069W        W50060  12.587  26.797  17.840 -0.1218 -0.4425  0.0733
 7070W        W50061  30.958  33.775  15.376 -0.0138  0.1385  0.0537
 7071W        W50062   9.754  11.774  10.313  0.2569  0.1258  0.0028
 7072W        W50063  17.655   8.748  28.572 -0.3943  0.0865  0.1556
 7073W        W50064   7.354   0.297  25.308 -0.0513 -0.2499 -0.1981
 7074W        W50065  28.022  10.734   8.903 -0.2850  0.0697 -0.1288
 7075W        W50066  16.913   5.291  25.870  0.2582 -0.1192  0.0807
 7076W        W50067  14.490  22.355  24.236 -0.2525  0.0082 -0.2187
 7077W        W50068  31.017   2.467  17.672 -0.0914 -0.1006  0.2139
 7078W        W50069  16.924  22.982   5.026 -0.2562  0.1719 -0.0977
 7079W        W50070  19.921  26.009  13.894  0.0107 -0.0259  0.1759
 7080W        W50071  34.500  24.575  22.474 -0.3354  0.1454  0.1519
 7081W        W50072  11.809  31.095   9.755 -0.1186  0.2153 -0.0731
 7082W        W50073   0.350   2.178  22.271  0.1689 -0.0499  0.3126
 7083W        W50074   5.626  28.636  25.646  0.1348  0.1809  0.0894
 7084W        W50075  27.032  21.045  25.053 -0.3420 -0.1052  0.1433
 7085W        W50076  10.845  16.921  25.633  0.2318  0.2350 -0.0867
 7086W        W50077  24.566  23.162  14.850  0.0009  0.1353 -0.0506
 7087W        W50078   5.430  16.216   1.134  0.0872 -0.0885 -0.0382
 7088W        W50079  19.828   3.909  24.910 -0.0804 -0.0203 -0.1135
 7089W        W50080  14.799   7.364   2.572  0.0969 -0.0063 -0.2189
 7090W        W50081  18.902  23.724   3.748  0.0215  0.0559  0.0883
 7091W        W50082  27.965  10.964   1.439 -0.0313  0.0131 -0.5683
 7092W        W50083  23.693  23.996   7.810  0.0380 -0.1341 -0.0999
 7093W        W50084   9.591   5.628   4.698  0.0242 -0.0636  0.3570
 7094W        W50085  13.677  22.482  25.113  0.2670 -0.1552 -0.1270
 7095W        W50086  16.657  32.444  22.831  0.0731 -0.0268 -0.0251
 7096W        W50087  30.078  31.833   5.570 -0.0385  0.0191 -0.0846
 7097W        W50088  12.181  14.292  21.762 -0.1523 -0.0412  0.1235
 7098W        W50089   1.602  10.294  24.167  0.2756 -0.1352  0.0763
 7099W        W50090  14.924  30.304   4.852 -0.0166  0.3448 -0.0925
 7100W        W50091  17.656  27.120   5.343 -0.2179 -0.0735 -0.1526
 7101W        W50092   7.727  31.063  17.986  0.0806  0.1807  0.0423
 7102W        W50093   8.705  31.876  20.460  0.1632  0.0709  0.1380
 7103W        W50094  13.740  31.499   5.926  0.2324 -0.2157  0.2325
 7104W        W50095  17.960   9.203  18.553 -0.2076  0.0880  0.4814
 7105W        W50096   9.704  29.478   2.226 -0.2025 -0.1203 -0.1411
 7106W        W50097  10.062  32.875   4.362  0.0186 -0.4560  0.4027
 7107W        W50098  22.369  21.640  24.788 -0.2502  0.1098 -0.1431
 7108W        W50099   0.241  34.595   1.301  0.1113  0.1694 -0.1655
 7109W        W50100  23.505  30.410  15.203  0.0247  0.0372  0.0427
 7110W        W50101   3.550  11.669   0.748  0.0071  0.1273  0.0712
 7111W        W50102  11.328   6.167  28.620  0.1478 -0.1843  0.3922
 7112W        W50103   7.780  33.608  26.525  0.0377  0.1400  0.4924
 7113W        W50104  22.814  32.936  21.720 -0.0967  0.0410 -0.0030
 7114W        W50105   3.478   8.293   1.430  0.1853 -0.0074  0.2722
 7115W        W50106  12.619  33.369  24.402  0.3954 -0.2469  0.1309
 7116W        W50107  28.926   8.129   8.442 -0.1622  0.1238  0.0532
 7117W        W50108   0.740   8.640  22.951 -0.0312 -0.1116 -0.1645
 7118W        W50109  14.552   2.128   8.808 -0.2140  0.0304  0.3388
 7119W        W50110   9.810  33.252   0.381 -0.0967  0.1556 -0.2488
 7120W        W50111  17.348  19.389   6.699  0.1538  0.0659 -0.0195
 7121W        W50112   5.814  24.037  20.276 -0.1030  0.1720  0.1094
 7122W        W50113   9.932  15.126  27.048  0.1360 -0.0797 -0.4232
 7123W        W50114  25.247  26.100  18.813 -0.2202 -0.0157  0.3092
 7124W        W50115  27.488   5.233   8.618 -0.1520 -0.2186  0.1145
 7125W        W50116  19.083  23.991   3.327 -0.1330 -0.0073 -0.0644
 7126W        W50117  28.538  29.548   2.857 -0.4095 -0.0657 -0.0946
 7127W        W50118   2.373  29.383   6.587 -0.5693 -0.2354 -0.0901
 7128W        W50119  11.571  16.577   5.181 -0.0535  0.1478 -0.2348
 7129W        W50120   8.542  19.355   6.081  0.0701  0.0267 -0.0386
 7130W        W50121  30.081  33.029   4.520 -0.0845 -0.0897 -0.0059
 7131W        W50122  27.476   2.622  17.839  0.1953  0.0183 -0.1535
 7132W        W50123  27.691   2.554   8.753 -0.3019 -0.0276  0.0078
 7133W        W50124  15.768  10.918   9.954 -0.2559  0.1142  0.5351
 7134W        W50125   0.926  33.075  18.093 -0.0786  0.0958 -0.3264
 7135W        W50126  32.444  25.277  20.979  0.3570  0.1251 -0.2228
 7136W        W50127  27.543  29.214  27.562 -0.0324 -0.0912  0.0245
 7137W        W50128  24.759  32.830   1.347  0.2914 -0.1644 -0.1211
 7138W        W50129  19.439   2.620  20.389  0.2098 -0.1121 -0.0720
 7139W        W50130  19.787  32.937   4.296  0.0525  0.1398  0.0696
 7140W        W50131  16.984  17.095  27.231  0.0302 -0.1440 -0.0018
 7141W        W50132   6.952  15.166  21.581  0.0758 -0.1537 -0.3982
 7142W        W50133   9.365   2.844   2.783 -0.0437  0.0961 -0.0204
 7143W        W50134  11.296  32.791   5.806 -0.1869 -0.0335 -0.0138
 7144W        W50135  29.952  23.861   1.541 -0.0016  0.0792  0.2651
 7145W        W50136  33.821  13.878  18.176  0.2905  0.0294  0.4188
 7146W        W50137   6.696  31.223   0.530  0.0781 -0.0291  0.1824
 7147W        W50138   2.512   5.323   2.742 -0.0473  0.2714  0.1638
 7148W        W50139   7.030  28.268   9.435 -0.1410 -0.1291 -0.1633
 7149W        W50140  10.618  26.532  25.277 -0.4080  0.3201  0.1168
 7150W        W50141   8.493  30.402   1.491 -0.1127 -0.0720  0.2235
 7151W        W50142  10.555  13.307  25.354 -0.0291  0.1059 -0.0469
 7152W        W50143   6.432  17.058  18.780 -0.1525 -0.0601  0.0082
 7153W        W50144  12.275  34.439   4.902  0.0834  0.1694  0.1467
 7154W        W50145  14.799  28.444  24.934  0.0361  0.2834 -0.1771
 7155W        W50146   5.386  20.957   3.779 -0.0849  0.0092  0.0425
 7156W        W50147  20.508   0.612  24.905 -0.0687 -0.2940 -0.2141
 7157W        W50148   7.584  18.871   5.012  0.0870 -0.1892 -0.0986
 7158W        W50149  12.460  28.303   6.646  0.1763  0.0025 -0.0689
 7159W        W50150   9.060  12.587  20.971  0.1016 -0.0341 -0.0485
 7160W        W50151  13.473  20.226   6.875 -0.0804 -0.0189  0.3957
 7161W        W50152  30.525  23.527   6.625 -0.2127 -0.0804  0.0661
 7162W        W50153  33.399  33.474  27.459 -0.1159  0.0743 -0.0633
 7163W        W50154  13.368  31.248   0.925 -0.1496  0.1223  0.1352
 7164W        W50155  27.654  32.045   5.341  0.1247 -0.0208 -0.2756
 7165W        W50156  11.112   0.588  10.561  0.0308  0.0398  0.3106
 7166W        W50157  34.046  30.654  22.650 -0.3952 -0.2091  0.1962
 7167W        W50158  14.768  17.385   6.050 -0.0868 -0.0715  0.0450
 7168W        W50159  18.733  29.906   5.704 -0.0528  0.1512 -0.0466
 7169W        W50160  22.621   2.663   7.188 -0.1197 -0.0323 -0.1155
 7170W        W50161  19.761  29.034   7.232  0.0903  0.0933 -0.1625
 7171W        W50162  23.377   4.818   3.048  0.0876 -0.0596  0.0828
 7172W        W50163  17.199  30.827  28.747 -0.2109  0.3509  0.0803
 7173W        W50164  15.038  26.009   6.083 -0.1817  0.0684  0.1026
 7174W        W50165  21.185  26.813  24.992 -0.2117  0.2877 -0.1751
 7175W        W50166  18.967  22.361   0.749  0.1588  0.0116 -0.0381
 7176W        W50167   8.466  26.571  24.326 -0.2278 -0.0344  0.0797
 7177W        W50168  16.489  23.121   5.210  0.2276  0.0166  0.1143
 7178W        W50169  22.438   0.991  27.184  0.0344  0.2742 -0.1563
 7179W        W50170   1.089  21.570   6.898  0.4965 -0.0536 -0.1041
 7180W        W50171  20.862  22.575   2.875 -0.1118  0.1425  0.4120
 7181W        W50172  20.045  23.957   8.577 -0.0566  0.0509 -0.3829
 7182W        W50173  16.839  28.165   3.591  0.0814  0.2294 -0.1545
 7183W        W50174  22.049  25.484  14.638 -0.1526  0.0404  0.0715
 7184W        W50175  28.333  24.220   0.190 -0.2505 -0.0012 -0.0632
 7185W        W50176  14.683  28.094   8.394  0.4433  0.0119  0.1324
 7186W        W50177   9.473  33.382  10.941  0.1787  0.1478  0.2100
 7187W        W50178  13.267  23.909  26.418  0.3120 -0.0761 -0.0899
 7188W        W50179  11.298  11.593  26.229 -0.1634  0.2899  0.1432
 7189W        W50180  24.277   4.391   2.837 -0.0096 -0.0490 -0.0876
 7190W        W50181  15.782  29.958   1.111  0.0259  0.1775 -0.2109
 7191W        W50182  31.170   8.025   6.628  0.1505 -0.0102 -0.1519
 7192W        W50183  23.353  15.667  19.804  0.0415  0.2388 -0.3602
 7193W        W50184   1.151   6.127  11.304  0.1087 -0.2088  0.3216
 7194W        W50185   9.099  11.183  28.788  0.1409 -0.0031  0.0088
 7195W        W50186   6.558  34.242  28.066 -0.0025 -0.0095 -0.2148
 7196W        W50187   0.216  19.326   8.674 -0.0655  0.2134  0.1044
 7197W        W50188  14.268  19.181   2.240 -0.1175  0.3321 -0.2531
 7198W        W50189  23.177  17.052  29.259 -0.0381 -0.2497  0.0484
 7199W        W50190  18.736  24.731  13.349  0.2266  0.0788 -0.1121
 7200W        W50191  16.945  30.980  26.137 -0.2529 -0.0639 -0.0363
 7201W        W50192  26.493   3.151   1.357 -0.1949  0.1011  0.0163
 7202W        W50193  17.246  29.740   4.334 -0.0020  0.1021 -0.1883
 7203W        W50194   6.759  30.723   7.186  0.2342  0.0453  0.2733
 7204W        W50195  14.855  28.740  24.538 -0.0134  0.3897 -0.0585
 7205W        W50196  15.380  30.186   1.322  0.0953 -0.0333 -0.0668
 7206W        W50197  29.676  32.524   1.147  0.0666 -0.1589  0.1355
 7207W        W50198   0.136  17.515  25.420 -0.1258 -0.0362 -0.2321
 7208W        W50199  27.077  28.389   1.631 -0.1603 -0.2901  0.0002
 7209W        W50200  16.931  32.587   4.874  0.0501  0.2526 -0.0829
 7210W        W50201  23.055  28.583  29.032 -0.1979 -0.1143 -0.1424
 7211W        W50202  16.289  31.120   6.551  0.2236 -0.1098 -0.3934
 7212W        W50203  26.212  31.426   1.304  0.0087  0.0449  0.3585
 7213W        W50204  10.199  34.175   0.663  0.3872  0.1524  0.2724
 7214W        W50205  18.140  34.415   6.472 -0.0980 -0.0484  0.1085
 7215W        W50206  21.258  22.232   8.084 -0.0909 -0.0189 -0.0669
 7216W        W50207  10.848  34.537  26.609 -0.1130  0.1515  0.1214
 7217W        W50208  13.191  31.160   6.239 -0.0076 -0.0279  0.0796
 7218W        W50209  31.337  23.949   9.423  0.1625 -0.0389  0.1192
 7219W        W50210  19.421  27.260   9.315 -0.4174  0.1268  0.1349
 7220W        W50211  22.536   4.767  25.989 -0.0214 -0.0195 -0.1951
 7221W        W50212   8.334  29.874  11.133 -0.2289 -0.4203 -0.0464
 7222W        W50213  10.157  23.846  23.337  0.0163  0.1345 -0.0675
 7223W        W50214   0.963  33.050  23.371 -0.2529  0.0650  0.0255
 7224W        W50215  33.788   1.066  28.076 -0.1201 -0.1332 -0.0249
 7225W        W50216  13.345   8.265   0.893 -0.2120 -0.1801 -0.0022
 7226W        W50217  10.811  27.373   8.144  0.0809 -0.2165  0.0810
 7227W        W50218  18.800  12.809   1.736 -0.2121 -0.1051  0.0658
 7228W        W50219   8.676   7.831   7.759 -0.3249 -0.0049 -0.2307
 7229W        W50220  17.093   3.561  27.617  0.0328  0.1441  0.1983
 7230W        W50221  20.593  25.598   5.689  0.0736 -0.4390  0.0071
 7231W        W50222   8.937  33.411  23.792 -0.0429 -0.2282 -0.1219
 7232W        W50223   7.086   2.811   8.401 -0.1741 -0.2144 -0.1374
 7233W        W50224  16.664   1.182   8.960 -0.0601 -0.0257 -0.1452
 7234W        W50225  28.946  26.135   2.645 -0.0927 -0.2085  0.0309
 7235W        W50226  12.470  17.925   5.762  0.1804 -0.0646 -0.1664
 7236W        W50227  21.772  32.783  28.840 -0.0124 -0.3674 -0.0360
 7237W        W50228  19.989  21.766  25.437 -0.1322 -0.1414 -0.0328
 7238W        W50229   5.564  23.007  23.141  0.1122  0.2195 -0.0453
 7239W        W50230  22.385  21.969   1.894  0.1368  0.1482 -0.0469
 7240W        W50231   3.414  30.903  25.261 -0.4539  0.1189  0.0389
 7241W        W50232  12.510  24.367  26.485  0.0304 -0.0562 -0.1006
 7242W        W50233  21.077  20.276  28.122 -0.0163 -0.0226 -0.1238
 7243W        W50234   8.530   1.137   2.863 -0.1368 -0.0691 -0.3090
 7244W        W50235  17.520  26.452   4.214  0.0517 -0.0427 -0.0219
 7245W        W50236  24.446   0.746   6.172  0.0841 -0.2187 -0.2066
 7246W        W50237   1.630  25.691  28.423 -0.0704 -0.1043 -0.1183
 7247W        W50238  20.881  34.624   3.554 -0.1218  0.2422  0.0563
 7248W        W50239   1.163  33.535   5.673 -0.1839 -0.0788  0.2045
 7249W        W50240   8.894   2.232   9.111 -0.2264  0.0423  0.2127
 7250W        W50241  22.055  26.069   6.463  0.1656  0.0756  0.1617
 7251W        W50242   9.041  19.232  23.454 -0.1299 -0.0830  0.1384
 7252W        W50243   8.703  13.478  21.749 -0.2502  0.1964 -0.1063
 7253W        W50244  15.633  16.400  28.161  0.2255  0.0642 -0.1894
 7254W        W50245  20.550  24.857  21.459  0.1079 -0.0095 -0.1879
 7255W        W50246   5.612  28.402  22.577  0.2486 -0.0085 -0.1531
 7256W        W50247  26.683  10.320   4.084 -0.0715  0.1301 -0.0294
 7257W        W50248  23.001  25.970   4.451 -0.2882 -0.2694  0.2763
 7258W        W50249   4.217  31.515   2.882  0.0725 -0.2987  0.0073
 7259W        W50250  19.070   5.108   0.241  0.2200  0.0400  0.0461
 7260W        W50251  33.495  31.399  25.556 -0.0061  0.1114 -0.2543
 7261W        W50252  22.473   3.526  29.093 -0.0971 -0.0471 -0.0229
 7262W        W50253  34.793  20.107   1.164  0.0349  0.1293 -0.2017
 7263W        W50254   8.426  25.858  10.234 -0.2316  0.0416  0.4816
 7264W        W50255  15.152  32.804   2.962  0.1855  0.0719  0.1730
 7265W        W50256  22.684  28.363   9.493  0.1100 -0.0300 -0.0494
 7266W        W50257   1.835   8.837   4.412 -0.2171 -0.0631 -0.1629
 7267W        W50258   6.026  17.776   4.762  0.0401 -0.0086 -0.0528
 7268W        W50259  25.027  25.461   4.886 -0.3367 -0.2110 -0.0554
 7269W        W50260  11.138  22.746  21.823 -0.0145 -0.0882 -0.1762
 7270W        W50261  29.239  28.553   8.543  0.4039  0.2063 -0.0338
 7271W        W50262  33.049  14.526   5.300  0.1374 -0.0158 -0.1487
 7272W        W50263  17.310  15.924   2.885 -0.0278  0.2482 -0.1344
 7273W        W50264  26.112  24.672   4.836 -0.0939 -0.3619 -0.2059
 7274W        W50265  26.580   1.560  15.732  0.2020  0.1419  0.0911
 7275W        W50266   9.713  23.701   8.525  0.0068  0.1649 -0.2104
 7276W        W50267  28.245  17.039  23.497 -0.1207  0.2318  0.1564
 7277W        W50268   7.974  20.434   9.464  0.1161  0.2685  0.2021
 7278W        W50269  21.401  19.980   0.678  0.4018 -0.2509 -0.0606
 7279W        W50270  26.502  23.893   8.863  0.2516  0.0107 -0.4499
 7280W        W50271  32.507  19.900  27.534  0.1445  0.3593  0.0307
 7281W        W50272  25.345  11.303   8.090  0.0451 -0.1799 -0.1506
 7282W        W50273  28.555   2.917   7.128 -0.0626 -0.2221 -0.0014
 7283W        W50274   8.824  29.171  27.459  0.1152  0.1995 -0.1412
 7284W        W50275  17.490   1.686  26.289  0.0443  0.0260 -0.0498
 7285W        W50276  21.143  32.464   7.814  0.1781 -0.0926 -0.1397
 7286W        W50277  15.125  28.273   9.213  0.0089 -0.1590 -0.0261
 7287W        W50278  32.156  23.498  14.701 -0.0534 -0.4033 -0.2341
 7288W        W50279  29.722  25.907  16.466 -0.1854  0.1810  0.0713
 7289W        W50280  19.171   5.957   7.974  0.3664  0.0404  0.0722
 7290W        W50281  14.004  25.661   6.917  0.0377  0.0724 -0.2428
 7291W        W50282  13.288  25.706   0.497 -0.0094 -0.0656 -0.2095
 7292W        W50283  15.118  30.363  18.619 -0.4282  0.0923 -0.0422
 7293W        W50284  24.682   4.643  23.239  0.0212 -0.4181  0.0526
 7294W        W50285  32.397  26.090   0.734 -0.2694  0.2035 -0.0062
 7295W        W50286  12.130  24.827   8.902 -0.0831  0.1030 -0.1217
 7296W        W50287  29.308  12.372   1.212  0.1688 -0.0268  0.2077
 7297W        W50288  20.276  18.123   3.179 -0.1662  0.0146 -0.2278
 7298W        W50289  19.678   7.105  24.795  0.0053 -0.0233 -0.3565
 7299W        W50290  20.042   2.740   7.944  0.1478  0.4762 -0.0467
 7300W        W50291  16.297  31.362   3.510  0.0390 -0.1341  0.0326
 7301W        W50292  24.440  31.100   5.406 -0.0705  0.0989 -0.3283
 7302W        W50293  12.360   8.007   8.301 -0.3000  0.2046  0.1161
 7303W        W50294  34.126  20.358  29.253 -0.0299  0.1766  0.0530
 7304W        W50295  17.202  20.220  25.687  0.2898 -0.1668 -0.0458
 7305W        W50296  23.478   4.605   5.636  0.2417  0.5475  0.2511
 7306W        W50297  20.137  30.729   7.582 -0.1124 -0.0085  0.1583
 7307W        W50298  16.533  34.480   2.714  0.1102 -0.3238  0.0552
 7308W        W50299  24.262  24.842   7.439 -0.0774 -0.2589 -0.0919
 7309W        W50300  23.878   1.725  17.105  0.1366 -0.1188 -0.0980
 7310W        W50301  16.120   2.112  28.390 -0.1125 -0.3783  0.0157
 7311W        W50302  25.203  33.660   5.791  0.1830 -0.0321 -0.0050
 7312W        W50303   4.432   5.131   3.230  0.2663 -0.2470  0.1986
 7313W        W50304  25.175  27.557   4.945  0.1339 -0.0348 -0.1620
 7314W        W50305   3.035  21.448   1.262 -0.3848 -0.0485 -0.0772
 7315W        W50306  29.481  25.730   4.394  0.2452 -0.0106  0.0210
 7316W        W50307  26.704   7.150  23.880  0.2354 -0.1167 -0.4781
 7317W        W50308  17.147  12.138   0.286 -0.0426 -0.1658 -0.0102
 7318W        W50309   2.046   0.575   2.275  0.0948 -0.0103  0.0793
 7319W        W50310  28.704   0.823   4.888  0.1050 -0.1176 -0.2503
 7320W        W50311  14.841  32.753   0.078  0.0281 -0.4501  0.1202
 7321W        W50312   7.974  16.100  25.160 -0.2576  0.0278  0.3873
 7322W        W50313  17.259  18.567  27.231 -0.1071  0.3025 -0.1316
 7323W        W50314   6.139  14.032   2.304  0.0752 -0.0482 -0.0319
 7324W        W50315  22.900  32.402  29.187  0.0436 -0.2062 -0.1472
 7325W        W50316   1.864  33.587   2.882 -0.0868 -0.0243  0.4236
 7326W        W50317  20.616  31.405  24.877 -0.1182  0.2860  0.0621
 7327W        W50318   6.986  34.199   9.370  0.0194  0.2660  0.4158
 7328W        W50319  28.980  34.410   8.854 -0.2878  0.1364  0.4049
 7329W        W50320  17.802  15.416   2.617 -0.0140  0.0242 -0.0248
 7330W        W50321  21.207  20.983  26.239  0.0488  0.1550  0.3728
 7331W        W50322   1.489  32.097   8.655 -0.0970 -0.1493  0.1396
 7332W        W50323  25.026  17.706   5.212 -0.1598  0.0990 -0.0743
 7333W        W50324  29.755  34.273   7.279  0.0195 -0.3106 -0.0993
 7334W        W50325  18.764  30.277   7.689 -0.1761  0.0781 -0.0185
 7335W        W50326  29.161   2.582   5.735 -0.1351  0.1024  0.0593
 7336W        W50327   4.154   8.155   2.628  0.1269  0.0275 -0.0919
 7337W        W50328   2.722  32.826   6.494 -0.3397  0.0370  0.0576
 7338W        W50329  32.377   2.395   7.189 -0.1815  0.1294 -0.1781
 7339W        W50330  21.658  15.644  24.331 -0.0534 -0.0702  0.0693
 7340W        W50331  29.033   6.745   8.474  0.3581  0.2604  0.0407
 7341W        W50332  24.141  23.782   9.099 -0.0555  0.1098 -0.0882
 7342W        W50333  32.061  30.458  16.704  0.0286  0.1705 -0.0543
 7343W        W50334   9.989  32.038   9.075  0.1738  0.0900 -0.1332
 7344W        W50335  11.386  16.628   7.730  0.0722 -0.3590 -0.1290
 7345W        W50336   5.940  24.204  29.178 -0.1362 -0.1247  0.1974
 7346W        W50337  11.626   8.801   7.600 -0.0676  0.3896 -0.1241
 7347W        W50338   0.822  31.350   4.533  0.1472  0.3875  0.0565
 7348W        W50339  17.588   9.360  25.622  0.0150 -0.1317  0.2135
 7349W        W50340  11.720   6.969   2.507 -0.0698  0.1292  0.0979
 7350W        W50341  11.979  28.709   3.855 -0.0420 -0.1449  0.2398
 7351W        W50342   2.826  19.129  24.022 -0.1924  0.5151  0.2044
 7352W        W50343  13.393   8.270   7.999 -0.2977  0.1558 -0.1610
 7353W        W50344   8.134   2.753  24.903  0.2666  0.2549  0.2094
 7354W        W50345  18.992  24.051  26.389 -0.0635 -0.1348  0.0845
 7355W        W50346   6.733   2.486   8.125  0.2113  0.0579  0.0907
 7356W        W50347  22.246  30.657  26.029  0.1337 -0.1762  0.1420
 7357W        W50348   3.373  30.383  29.177 -0.1618  0.0773 -0.1803
 7358W        W50349  22.032  15.016   0.152 -0.0556  0.0407  0.2316
 7359W        W50350  17.042  20.947  13.776 -0.2745  0.0620 -0.3346
 7360W        W50351   8.334  12.902  26.212  0.0516 -0.1095  0.1651
 7361W        W50352  29.138  33.514  19.249 -0.0748  0.0794  0.2039
 7362W        W50353  18.550  25.636  25.475  0.0111 -0.1473  0.1675
 7363W        W50354  19.662   6.669   7.525 -0.0513  0.3430 -0.2230
 7364W        W50355  15.542  17.484   8.658 -0.0343 -0.3328 -0.0657
 7365W        W50356  18.982   6.932   9.341 -0.0109  0.1011 -0.1877
 7366W        W50357   7.291  30.676   0.184 -0.0555  0.2045  0.2816
 7367W        W50358  12.294  17.904  19.500 -0.0372  0.2615 -0.1673
 7368W        W50359  15.776   4.232  22.590 -0.3251 -0.0426  0.1198
 7369W        W50360   5.496  32.781  27.546 -0.0577 -0.0769 -0.4067
 7370W        W50361  21.431  28.370   1.593 -0.1623  0.1137 -0.1765
 7371W        W50362  21.968   0.271   5.005 -0.2481  0.2890 -0.0326
 7372W        W50363  24.005   2.863   7.931  0.0138  0.1038 -0.0627
 7373W        W50364  19.558  18.354  26.273  0.0098 -0.0532 -0.0150
 7374W        W50365  21.450  34.523   7.829  0.3473  0.0264 -0.3903
 7375W        W50366  17.626  28.000  26.077 -0.3563  0.2966  0.1021
 7376W        W50367  21.666  24.394  23.715 -0.0884  0.0733  0.1358
 7377W        W50368  29.146  25.890   6.367 -0.0531  0.1125  0.1621
 7378W        W50369  23.277  12.827   8.556 -0.1217  0.0597 -0.0723
 7379W        W50370   9.029   6.521   8.360  0.2365 -0.0538  0.3112
 7380W        W50371  16.568   6.608  28.057  0.1738 -0.1848 -0.0846
 7381W        W50372  18.419   8.664   0.640 -0.2162 -0.1260  0.1382
 7382W        W50373  11.110  20.817   3.252 -0.0008 -0.3149 -0.2798
 7383W        W50374  27.058  20.423   9.416  0.2845 -0.1482 -0.0127
 7384W        W50375  13.096  29.568   8.745  0.0420  0.1383 -0.0063
 7385W        W50376   9.277  21.256   8.407  0.2942  0.3083 -0.0140
 7386W        W50377  23.504  27.178   3.947  0.0842 -0.2561  0.2827
 7387W        W50378  15.910   5.917   4.224 -0.1261 -0.1397 -0.3852
 7388W        W50379  16.902  18.575   1.440  0.4004 -0.4231  0.2493
 7389W        W50380  13.321   8.065   4.995  0.1097 -0.0480  0.1590
 7390W        W50381  19.290  33.359   7.613 -0.2004 -0.1822  0.0681
 7391W        W50382   5.312  30.853   1.970 -0.0706 -0.1597  0.0948
 7392W        W50383  24.311  25.884   5.788 -0.0207 -0.2918 -0.0180
 7393W        W50384  15.113   2.934   1.125  0.2804  0.0014  0.0553
 7394W        W50385  23.605  14.115   8.504 -0.0393 -0.0701  0.1341
 7395W        W50386   4.748  18.575   7.506 -0.0896 -0.0309  0.0659
 7396W        W50387  11.277  30.980   3.204 -0.1437 -0.1129 -0.1981
 7397W        W50388  32.808  32.374  23.344 -0.2962  0.3847  0.0368
 7398W        W50389  20.649  28.661  27.708  0.0711  0.0491 -0.3769
 7399W        W50390  14.387   4.259   2.091  0.0323  0.0808  0.2131
 7400W        W50391  13.432  17.499   7.644 -0.0198 -0.0813 -0.2455
 7401W        W50392  33.642  12.274  17.348 -0.3032  0.0084  0.1998
 7402W        W50393  13.524  27.835   4.554 -0.0278 -0.1098  0.2366
 7403W        W50394   3.429   9.254  26.123 -0.0272  0.1245 -0.0668
 7404W        W50395  20.120  34.771   7.199  0.0046 -0.1037 -0.0461
 7405W        W50396  19.454  14.975   2.090  0.0803 -0.2921  0.0684
 7406W        W50397  21.638   2.607   9.711 -0.0384 -0.0483 -0.1086
 7407W        W50398  13.042  21.864   1.405  0.1042  0.4315  0.1728
 7408W        W50399  31.976  21.823  27.664  0.2676  0.5032 -0.1194
 7409W        W50400  17.578  31.964   6.418 -0.0141 -0.3135 -0.2107
 7410W        W50401  18.245  28.094   0.124 -0.2290  0.3810 -0.2740
 7411W        W50402  21.246  33.321   1.607 -0.0146 -0.0933  0.1245
 7412W        W50403   1.298   4.624  24.127 -0.0737  0.1418 -0.1194
 7413W        W50404  24.302  25.453   7.572 -0.0998 -0.0985  0.0768
 7414W        W50405  10.630  17.306   3.948 -0.1378 -0.3108  0.0285
 7415W        W50406   5.056  20.693  20.265  0.0458  0.2286 -0.0726
 7416W        W50407   4.456  26.594  27.180 -0.2426 -0.1477 -0.1359
 7417W        W50408   5.170   1.603   2.362  0.0045 -0.0038  0.1567
 7418W        W50409  16.308   5.109   6.741  0.1086 -0.3405  0.0228
 7419W        W50410  18.122  22.160   8.979  0.2238 -0.1016  0.2593
 7420W        W50411  27.859   4.868  26.130  0.3425  0.1042  0.0438
 7421W        W50412  18.348  30.283   4.200 -0.0970  0.4002  0.1918
 7422W        W50413  33.436  32.022   0.057 -0.2086  0.1403 -0.0034
 7423W        W50414  30.726  27.776   3.234 -0.0680 -0.1482  0.2120
 7424W        W50415  17.689  30.829   6.903  0.2064  0.2136  0.1025
 7425W        W50416  34.076  33.488   7.935  0.2115 -0.0232  0.3162
 7426W        W50417  15.057  17.981   1.167 -0.0834 -0.3730 -0.0737
 7427W        W50418  11.967  34.145  23.474 -0.3168 -0.0959  0.3341
 7428W        W50419  28.616  30.536  20.448  0.0005 -0.0640  0.0606
 7429W        W50420  25.377  25.419   7.593  0.0195  0.2384  0.0293
 7430W        W50421  12.459  33.816   8.466 -0.1558  0.1237  0.1100
 7431W        W50422   8.662  21.564  26.519 -0.1943 -0.1419 -0.2824
 7432W        W50423  10.087  18.748   8.589  0.0209 -0.1310 -0.2428
 7433W        W50424   4.881   2.983  26.643 -0.0896 -0.4060  0.1663
 7434W        W50425  16.753  29.030   6.190  0.0388 -0.0022  0.0523
 7435W        W50426  19.788  20.243  21.391 -0.0179  0.1966  0.2316
 7436W        W50427  15.298  25.594  23.633 -0.3485  0.0022  0.4642
 7437W        W50428  22.077   0.182  24.533  0.0632  0.0611 -0.0530
 7438W        W50429   7.817  24.638   1.016 -0.2025  0.3054  0.1713
 7439W        W50430   0.274   6.964   7.619 -0.0870 -0.0497 -0.1422
 7440W        W50431  25.891  28.421   8.597 -0.2059  0.2512 -0.1985
 7441W        W50432  22.357  33.096   8.633  0.0372 -0.0766 -0.0919
 7442W        W50433  21.033  19.365   7.017 -0.0753  0.0178  0.1066
 7443W        W50434  20.439   3.327   8.689 -0.1682  0.0201 -0.3730
 7444W        W50435  15.063  25.416   4.157  0.0820  0.1584 -0.4181
 7445W        W50436  30.648  24.264  26.978 -0.4565 -0.1932 -0.1087
 7446W        W50437  16.128  31.855   2.460  0.0463  0.0666 -0.0555
 7447W        W50438   1.231  25.908  24.179 -0.1165  0.2597  0.3120
 7448W        W50439  21.297   6.783   8.458 -0.0368 -0.2300 -0.0708
 7449W        W50440  22.119  31.800   2.493 -0.1998  0.3512  0.0316
 7450W        W50441  22.179  30.515   1.817 -0.1936 -0.1737  0.0353
 7451W        W50442   4.513  19.362  17.707  0.1817  0.0454  0.0934
 7452W        W50443   5.541   6.282  26.370 -0.1625  0.0213  0.1174
 7453W        W50444  30.905  28.087   9.322 -0.0788 -0.2573 -0.0194
 7454W        W50445  24.449   5.051   6.042  0.1620  0.3994 -0.3241
 7455W        W50446  22.662  11.893   5.872  0.2572 -0.0347  0.2895
 7456W        W50447  17.627  14.942  25.103 -0.1105  0.0131 -0.0860
 7457W        W50448   6.788  30.726   1.255 -0.2152  0.4205  0.3175
 7458W        W50449  20.426   2.831  27.497 -0.3739 -0.3728  0.0534
 7459W        W50450   5.414  29.942   9.149 -0.1655 -0.0543  0.0757
 7460W        W50451  20.099  18.323   7.228 -0.0589 -0.1334 -0.0335
 7461W        W50452  26.396   2.667   3.111  0.0429  0.0792 -0.3561
 7462W        W50453  26.727  30.039   0.058  0.0747  0.3063 -0.0998
 7463W        W50454   5.320   3.276   0.519 -0.1097 -0.0051  0.1687
 7464W        W50455  31.007  25.732  24.587 -0.1529 -0.1454 -0.0991
 7465W        W50456  16.701  34.188   5.304 -0.1030 -0.1597  0.2290
 7466W        W50457  14.060  32.745  10.065 -0.3223  0.1651  0.1735
 7467W        W50458  20.878  22.161  22.242 -0.1075  0.2215 -0.1361
 7468W        W50459   1.977  30.228   6.437 -0.0046 -0.0604  0.0245
 7469W        W50460  24.223  34.138   7.236  0.3555 -0.1966  0.1507
 7470W        W50461  20.521  26.760   1.511  0.1165 -0.0044 -0.1995
 7471W        W50462   2.133  28.796  26.284 -0.4138  0.0939  0.0439
 7472W        W50463   3.428   6.619  26.161  0.2132 -0.0981 -0.1066
 7473W        W50464  21.533   2.350   6.673  0.1972  0.0891  0.0828
 7474W        W50465  27.907  21.083   7.541  0.0391 -0.2636  0.0039
 7475W        W50466  13.991   7.690   9.655  0.0564 -0.0884  0.0919
 7476W        W50467  11.480   4.825  25.779  0.0972  0.0028 -0.0492
 7477W        W50468  31.389  24.651  15.999 -0.1814  0.0376 -0.1311
 7478W        W50469   5.625  20.744  25.677  0.2080  0.0725 -0.0567
 7479W        W50470   3.021  31.174   7.995  0.2348  0.1938 -0.3055
 7480W        W50471  14.454  31.974   9.886 -0.2522  0.0455 -0.0644
 7481W        W50472  17.967   2.718  25.094 -0.1566  0.1546  0.0472
 7482W        W50473  12.347  28.781   2.843 -0.0969 -0.2590  0.1366
 7483W        W50474   9.683   0.126   0.949 -0.0711  0.2569  0.0984
 7484W        W50475  25.095  12.202   7.176 -0.3309  0.0347 -0.0143
 7485W        W50476  30.165  28.219  29.002 -0.0337  0.1455  0.0905
 7486W        W50477  13.719  16.921  26.939  0.1086  0.0220  0.1342
 7487W        W50478   5.032  22.909   6.199 -0.0883 -0.3369  0.0527
 7488W        W50479  16.250  12.612   2.011  0.4092 -0.0915 -0.2649
 7489W        W50480  20.128  28.009   8.338  0.2091 -0.2242 -0.0655
 7490W        W50481  13.313  23.376   7.927  0.2322 -0.0937 -0.0788
 7491W        W50482   9.226  12.701   5.821 -0.2343  0.2911 -0.0446
 7492W        W50483  17.770  19.934   0.000  0.0462 -0.1266 -0.0372
 7493W        W50484  20.239  25.020   4.347 -0.0772 -0.0940  0.0805
 7494W        W50485  22.112  14.281  17.639  0.0262  0.2800  0.2566
 7495W        W50486  13.948  32.804  28.209  0.0502  0.2361 -0.2402
 7496W        W50487  28.256   4.226  10.446 -0.0186 -0.0338 -0.2371
 7497W        W50488  28.406  21.160  21.508 -0.3035 -0.1584  0.1382
 7498W        W50489  18.800   5.141   6.422  0.3864 -0.0925 -0.0116
 7499W        W50490  23.827  28.972   8.941 -0.2202  0.1900 -0.1701
 7500W        W50491  21.886   9.162   1.954 -0.0923 -0.1879  0.1246
 7501W        W50492  13.868  22.479  26.176  0.0368 -0.1252 -0.1539
 7502W        W50493  29.451  26.094   5.637  0.2988  0.1626  0.4349
 7503W        W50494   8.470  20.455   8.162 -0.2485 -0.1202  0.0446
 7504W        W50495  27.281  20.562  20.202 -0.1561 -0.1706 -0.3867
 7505W        W50496  23.380  21.546  24.551 -0.1799 -0.0187 -0.2079
 7506W        W50497  14.300   5.933  24.538  0.2236  0.1162  0.1610
 7507W        W50498  12.138  15.727   2.917  0.0627  0.0517 -0.0959
 7508W        W50499  13.817   0.717  22.466 -0.1880  0.1224  0.1039
 7509W        W50500   8.685  27.396  10.062  0.1462 -0.1586  0.1530
 7510W        W50501   1.105  15.174  27.615 -0.0312  0.0621 -0.0254
 7511W        W50502  29.202   2.280  27.188 -0.1376  0.0739 -0.0638
 7512W        W50503  13.302  24.293  27.617 -0.1031  0.2453 -0.5302
 7513W        W50504  20.011   0.895   9.557  0.0227 -0.0400 -0.1389
 7514W        W50505  31.871  32.284  21.161  0.1681 -0.0949  0.0695
 7515W        W50506  19.486  21.338  17.571 -0.0617 -0.2038 -0.2708
 7516W        W50507  27.554  30.730   8.683  0.4647 -0.0658 -0.0925
 7517W        W50508  21.643   4.524  13.245 -0.1691 -0.0809 -0.1359
 7518W        W50509  19.032  12.863   3.616 -0.1124  0.1499  0.0023
 7519W        W50510  32.308  26.816  22.248 -0.0223  0.2509 -0.2864
 7520W        W50511   9.111  28.106  28.507  0.0556 -0.0411 -0.2268
 7521W        W50512  19.913  30.369  16.839  0.0932 -0.0285  0.0727
 7522W        W50513  13.371   3.601  11.701 -0.2051  0.0021 -0.0334
 7523W        W50514  15.148  19.864   8.957  0.1956 -0.0920  0.1636
 7524W        W50515   6.698  19.851  28.327  0.0280  0.1210 -0.0240
 7525W        W50516  13.210  26.645   4.002  0.0738 -0.1370  0.0112
 7526W        W50517  18.035  34.487   7.394 -0.0090 -0.0130  0.0084
 7527W        W50518  23.451   8.929  28.339  0.1669 -0.2357 -0.0501
 7528W        W50519  11.050  15.176   5.836 -0.1319 -0.0304  0.3750
 7529W        W50520  22.613  34.243   6.661 -0.0199  0.0166  0.2749
 7530W        W50521  24.067  31.127   8.482  0.0932  0.0607  0.1524
 7531W        W50522  18.932   0.281  26.700  0.2623  0.2287 -0.0297
 7532W        W50523  18.717  25.046   5.580 -0.0348  0.1203 -0.1351
 7533W        W50524  16.981  25.595  23.125 -0.1353 -0.1617  0.3041
 7534W        W50525   2.428  32.500   3.671  0.2646 -0.3442  0.0808
 7535W        W50526  10.313  19.965   7.913 -0.1438 -0.2303 -0.2193
 7536W        W50527  21.353   3.677   2.459 -0.3565 -0.3450  0.1495
 7537W        W50528  19.925  32.060  28.766  0.4134 -0.2593 -0.1071
 7538W        W50529  11.577  26.785  10.518  0.2885 -0.1398 -0.0293
 7539W        W50530   1.123   5.797   0.301 -0.0871  0.1388 -0.1081
 7540W        W50531  11.952  25.501   0.490 -0.1561  0.1670  0.2228
 7541W        W50532  12.796  21.160  25.496  0.0684 -0.4145  0.1010
 7542W        W50533  11.475   2.328  26.681 -0.0447  0.2098  0.0504
 7543W        W50534  29.698  14.042  21.870 -0.2196  0.2086  0.2706
 7544W        W50535  18.380  29.378   8.505 -0.0651 -0.2492 -0.3977
 7545W        W50536  10.182   6.785  27.479 -0.0025  0.0182  0.0981
 7546W        W50537  23.347  18.254   8.636  0.1684  0.3911  0.0823
 7547W        W50538   8.940  23.580  24.875 -0.1340  0.2133 -0.1489
 7548W        W50539  15.107   3.535   4.100  0.1247 -0.0203  0.2608
 7549W        W50540   5.507  10.910  16.872 -0.1563 -0.1202 -0.1163
 7550W        W50541  16.977  11.667   8.395 -0.1359  0.0718  0.2976
 7551W        W50542   1.397  23.233   4.416  0.2940 -0.1043 -0.1729
 7552W        W50543  17.348   4.436   6.904  0.1710 -0.3613 -0.1003
 7553W        W50544  10.252  31.839  16.851  0.1469  0.3492  0.2821
 7554W        W50545  19.703  26.092  25.763  0.0033  0.1929 -0.4136
 7555W        W50546   1.681  33.066   5.005  0.1213  0.0453  0.0112
 7556W        W50547  14.783  28.068  28.221 -0.0950  0.0946 -0.1080
 7557W        W50548  26.861   0.607   3.810  0.0247  0.0612 -0.0179
 7558W        W50549  23.595  22.577   5.575  0.2606 -0.1149 -0.1599
 7559W        W50550  20.818  22.286   5.866 -0.0756  0.0058 -0.2352
 7560W        W50551  16.284  20.219   6.521  0.3686  0.1163  0.0158
 7561W        W50552  24.423  20.684   0.256  0.0443  0.0836  0.1889
 7562W        W50553  14.019  28.868  22.204 -0.1220  0.2678 -0.1452
 7563W        W50554  17.506  26.090   3.864 -0.0599  0.1912 -0.1007
 7564W        W50555  11.968  18.931   7.545  0.0502 -0.2819 -0.0979
 7565W        W50556  12.597   1.542   3.944  0.0573 -0.0096  0.0561
 7566W        W50557  14.777  29.556  28.406  0.1008 -0.1437  0.0266
 7567W        W50558  20.604  29.806   3.061 -0.0920  0.0967  0.2135
 7568W        W50559  10.461  21.410  24.392 -0.1599  0.2233 -0.3378
 7569W        W50560   9.492  24.317   8.560  0.0940 -0.0550  0.2684
 7570W        W50561  34.700   6.421  10.040 -0.2901  0.1904 -0.1529
 7571W        W50562  21.323  32.285   5.404 -0.1610 -0.0080  0.3350
 7572W        W50563  18.729  32.856  28.831  0.2670 -0.1290  0.1310
 7573W        W50564  14.446  28.514   0.527  0.0451  0.1418  0.0133
 7574W        W50565  25.369  21.424  21.369 -0.2769  0.3569 -0.0978
 7575W        W50566  25.647  15.730  28.128 -0.2047  0.1539  0.1887
 7576W        W50567   7.507  22.611   4.886 -0.0448 -0.1860 -0.2666
 7577W        W50568  23.480  11.804  28.427  0.2246  0.2931  0.0049
 7578W        W50569  10.286  29.472   5.478  0.0978  0.0427 -0.0346
 7579W        W50570  10.283  16.898   8.176 -0.0754 -0.4298 -0.0407
 7580W        W50571  27.300  17.639   4.228 -0.0807 -0.0069 -0.1787
 7581W        W50572   0.966   6.234   4.757  0.1047 -0.1494  0.1827
 7582W        W50573  26.502  15.833   5.543  0.3038  0.0232 -0.0162
 7583W        W50574   7.807  19.915   6.304 -0.0930 -0.1436  0.3559
 7584W        W50575  10.963  33.557  23.858  0.0230 -0.0874  0.1658
 7585W        W50576  13.241   3.525  18.898  0.0338  0.0638  0.0342
 7586W        W50577  14.545  12.176  15.478 -0.2919  0.0012  0.0850
 7587W        W50578  18.152  30.401  25.619 -0.0121 -0.1087 -0.1690
 7588W        W50579  15.771   2.670   8.249  0.0281  0.2524 -0.2157
 7589W        W50580  23.067   7.088   8.628 -0.3432 -0.4380 -0.3655
 7590W        W50581  16.491  18.200   4.134 -0.0656 -0.0788 -0.1049
 7591W        W50582  14.744  29.075   3.975 -0.0851 -0.1475  0.1148
 7592W        W50583   8.114  29.655   3.248 -0.1682  0.1594 -0.1304
 7593W        W50584  32.331  22.208   5.161  0.0160  0.3604 -0.2137
 7594W        W50585  13.711  32.102   6.683  0.0921  0.1505  0.2945
 7595W        W50586  23.531  11.485   9.221  0.0961 -0.1294  0.0094
 7596W        W50587   1.142   3.050   6.850 -0.0861 -0.0989 -0.1483
 7597W        W50588  11.033  18.226   2.911 -0.3196  0.0283 -0.0610
 7598W        W50589  28.942  27.157   4.805 -0.2466  0.1179  0.1319
 7599W        W50590   8.448  24.026   8.564  0.1965  0.3154  0.0729
 7600W        W50591  13.537  20.446   4.246 -0.0774  0.0771  0.1211
 7601W        W50592  11.701   4.628  25.349 -0.0099  0.1791  0.1100
 7602W        W50593  10.154  30.401   4.893  0.3717 -0.1845 -0.2900
 7603W        W50594  25.475  30.727   7.694 -0.0010 -0.1122  0.0280
 7604W        W50595  15.249   1.903   9.499  0.2835 -0.1128  0.1222
 7605W        W50596  22.255  20.744  22.023 -0.0758  0.0866  0.0140
 7606W        W50597  15.622  13.579   1.478  0.0861  0.2387  0.1564
 7607W        W50598  14.498   2.360   1.998  0.0824  0.0469  0.1066
 7608W        W50599  19.307   3.530   2.643 -0.0356 -0.1819  0.1354
 7609W        W50600  14.477  17.616  27.759  0.2723  0.0355  0.1185
 7610W        W50601  22.018   3.249  19.111  0.2390 -0.0908  0.1046
 7611W        W50602   5.180  20.396   9.402  0.1114 -0.0813  0.1257
 7612W        W50603  14.846   9.894  10.223 -0.0194 -0.1356  0.0451
 7613W        W50604  13.577  15.845   4.103  0.0310 -0.2698 -0.2795
 7614W        W50605  10.078  31.011  10.936  0.0808  0.4502 -0.1303
 7615W        W50606  12.340  16.568   5.294 -0.2100 -0.1707  0.2030
 7616W        W50607  14.051   1.524  28.309 -0.0989 -0.0444  0.0087
 7617W        W50608  21.368  19.941   9.136  0.1183 -0.2821 -0.0379
 7618W        W50609  10.969  25.990   8.432  0.1988  0.1390  0.3145
 7619W        W50610  32.796   2.138   7.347 -0.0169 -0.3040  0.0847
 7620W        W50611   1.391  30.164   9.845  0.2149  0.3122  0.0362
 7621W        W50612  26.755   6.864   0.814  0.2124  0.4046  0.0120
 7622W        W50613  33.363  29.195   7.864 -0.0601 -0.0229 -0.2407
 7623W        W50614  22.513  34.731  23.233 -0.2199  0.0937 -0.1734
 7624W        W50615  32.749  30.834  28.216  0.0240 -0.1603  0.1658
 7625W        W50616   9.900  24.477   8.317  0.1728  0.1977  0.1167
 7626W        W50617  15.349  27.241   5.861 -0.0452  0.0985  0.0672
 7627W        W50618  31.477  30.360  28.035 -0.0437 -0.1067 -0.1207
 7628W        W50619  16.874  32.119   5.270 -0.0155  0.0732  0.3812
 7629W        W50620  26.807  32.806  25.603  0.3577 -0.1261  0.4376
 7630W        W50621  19.854  34.486   8.200 -0.1369 -0.1882 -0.2346
 7631W        W50622  10.098   3.894   0.871  0.4062  0.0372 -0.0784
 7632W        W50623  18.683  24.531   0.369 -0.1713  0.1186  0.1148
 7633W        W50624  21.714  32.052   9.108  0.3595 -0.1311  0.0861
 7634W        W50625  23.774  23.311   0.912 -0.1852 -0.4509 -0.0182
 7635W        W50626   7.909   6.536   3.071  0.1444  0.1369  0.0300
 7636W        W50627  33.033  21.351   2.987 -0.2578  0.4182 -0.3120
 7637W        W50628  11.279   0.533   9.711 -0.1578 -0.2676  0.0031
 7638W        W50629  18.437  22.304   1.278 -0.3774 -0.1279 -0.0202
 7639W        W50630   5.224  28.216   7.180  0.0144  0.2866  0.1140
 7640W        W50631   2.601  31.334   8.427 -0.0383 -0.0633  0.1832
 7641W        W50632  12.343  18.828   5.885 -0.3569 -0.0171 -0.2670
 7642W        W50633   2.068   4.780  24.792 -0.3965  0.0831 -0.0264
 7643W        W50634  22.798  20.735  28.623 -0.2165 -0.3379  0.1662
 7644W        W50635  14.002  18.549   3.177 -0.1570  0.1499 -0.1224
 7645W        W50636   8.327  28.207  26.583  0.0285 -0.0580 -0.2703
 7646W        W50637  10.468  31.715   7.747  0.1251  0.0371  0.0034
 7647W        W50638  10.532  31.315   8.021 -0.0369  0.0460  0.1281
 7648W        W50639  15.657  25.513   9.012  0.1754  0.0453 -0.2050
 7649W        W50640  23.799  10.284  17.203 -0.1796  0.2348  0.3100
 7650W        W50641  14.751   7.335   9.010  0.3230  0.2555  0.1600
 7651W        W50642  16.086   7.600   9.468 -0.3234 -0.1820 -0.1262
 7652W        W50643  10.534  32.214   7.549  0.0352 -0.2122  0.0230
 7653W        W50644  31.340  22.959   3.246 -0.2083  0.1135 -0.1550
 7654W        W50645   6.404  21.593   7.890  0.0954 -0.1080 -0.1235
 7655W        W50646   0.389  27.390   3.211  0.0198  0.2605  0.0046
 7656W        W50647  23.949   6.614   2.691 -0.2534 -0.1188  0.0289
 7657W        W50648  24.521  29.230  27.921  0.1888  0.0446  0.0213
 7658W        W50649   3.931  25.637   4.216  0.0902 -0.2122 -0.0409
 7659W        W50650  33.189  24.499   8.220 -0.0882  0.1460  0.0021
 7660W        W50651  13.947  22.086   4.536  0.0643 -0.2185  0.1542
 7661W        W50652  26.890   7.654   3.774  0.0051 -0.1174  0.4157
 7662W        W50653  20.423  16.741   1.563 -0.0101  0.2697 -0.0702
 7663W        W50654  34.377  30.725   5.256  0.2931 -0.0299 -0.3046
 7664W        W50655  24.164  33.450  19.376  0.2486 -0.1617  0.0034
 7665W        W50656  27.512   9.357   2.146 -0.2208 -0.1923  0.0180
 7666W        W50657   6.038  13.910   7.501  0.3018 -0.0094 -0.1350
 7667W        W50658  24.548  31.680   1.410  0.1181  0.0247 -0.1441
 7668W        W50659   3.613   7.023   1.109 -0.1772 -0.0693  0.0026
 7669W        W50660  13.787   5.529   5.998  0.5054 -0.0795  0.1702
 7670W        W50661  16.837   4.134   4.321 -0.1047 -0.1436 -0.0856
 7671W        W50662  18.433  19.671   8.739 -0.2170 -0.5231 -0.2327
 7672W        W50663  16.050  33.111   9.276  0.2914 -0.3856  0.1522
 7673W        W50664   8.732  26.190   9.453  0.0093  0.2424 -0.1015
 7674W        W50665   7.188   0.325   6.971 -0.0466 -0.0595  0.1047
 7675W        W50666  21.500  31.135  27.199  0.0993  0.0864 -0.1183
 7676W        W50667   8.275  34.138   8.933  0.2079  0.0156  0.1866
 7677W        W50668  23.464  19.796  24.494  0.0148 -0.1302  0.2297
 7678W        W50669   8.507  30.645   7.465  0.1931 -0.0164  0.0189
 7679W        W50670  14.423  23.564  26.788  0.0196 -0.0146  0.2424
 7680W        W50671  26.756  31.873   3.431  0.0631  0.6838 -0.2367
 7681W        W50672  16.893  27.329  23.039 -0.0558 -0.3010 -0.1794
 7682W        W50673  13.247   6.713  18.708  0.0943 -0.0033  0.3013
 7683W        W50674  24.303  32.838   9.642  0.3252  0.3217 -0.1153
 7684W        W50675  13.366   7.185  11.095  0.0666 -0.3440 -0.1918
 7685W        W50676  28.835  31.513   0.525  0.0616  0.0995 -0.0125
 7686W        W50677   3.871  26.056   9.450 -0.4146  0.1636 -0.0041
 7687W        W50678  14.263  30.098  28.957 -0.5152  0.2398 -0.0125
 7688W        W50679  10.215   0.455  27.548  0.0203 -0.2153 -0.0215
 7689W        W50680  26.708   7.254   1.800 -0.1397 -0.1012 -0.2144
 7690W        W50681   5.974  34.589   8.579 -0.0776 -0.0211  0.1161
 7691W        W50682  28.662  26.184   2.221 -0.2691  0.1659 -0.0663
 7692W        W50683  20.712  23.325   1.330 -0.2337  0.0701  0.0237
 7693W        W50684  20.117  22.756   2.663  0.2081 -0.1927  0.0795
 7694W        W50685  11.513  32.566   1.834  0.3400  0.0722 -0.3915
 7695W        W50686  15.670   2.939   5.825 -0.2740  0.1408 -0.0287
 7696W        W50687  21.209  32.309   6.348  0.3854 -0.2179  0.1896
 7697W        W50688  26.572  32.723  21.311 -0.1349  0.1382  0.1064
 7698W        W50689   5.204  30.517   1.593  0.1496  0.3260  0.0981
 7699W        W50690   9.037  31.410   6.817  0.1390  0.0863 -0.2972
 7700W        W50691   2.534  21.241  27.520 -0.1307  0.0364 -0.0184
 7701W        W50692  20.461  30.351   2.265  0.0804 -0.3299 -0.1642
 7702W        W50693  26.903  32.414   6.778 -0.0703 -0.3919  0.1459
 7703W        W50694  15.038   6.188   5.233  0.0213 -0.1209  0.0036
 7704W        W50695  22.220  20.634  28.145 -0.2169 -0.1752 -0.2192
 7705W        W50696   3.002  14.226   8.097  0.0037  0.2271  0.0155
 7706W        W50697  10.545  26.662   6.992  0.0582  0.0018  0.3613
 7707W        W50698   1.836  32.819   6.046 -0.2940  0.1505  0.3897
 7708W        W50699   9.367  34.093  25.883 -0.1417 -0.0490 -0.1715
 7709W        W50700  20.158  34.544   9.060  0.1945 -0.0889  0.1874
 7710W        W50701  19.408  33.011   3.892 -0.2224  0.4556  0.0148
 7711W        W50702  25.106  23.132  26.034  0.4634 -0.0985 -0.0787
 7712W        W50703   1.678  30.099  23.601  0.2248 -0.0731 -0.2561
 7713W        W50704  22.717  23.507   4.445  0.1649 -0.3538  0.1543
 7714W        W50705  14.811  26.682  18.055 -0.0426  0.0837  0.1885
 7715W        W50706  20.504  23.964  28.351 -0.3490  0.1481 -0.1567
 7716W        W50707   4.249   0.357   8.880 -0.4493 -0.0165 -0.0671
 7717W        W50708  21.248  16.732   2.187  0.0751 -0.1562  0.0922
 7718W        W50709  17.163   0.241  27.800 -0.2660  0.0004  0.1399
 7719W        W50710  17.407  27.687  25.120  0.2702  0.3671 -0.0580
 7720W        W50711   3.962   3.923   3.221  0.0656 -0.2784  0.0600
 7721W        W50712  11.850  16.596   0.161  0.1791  0.5443  0.0364
 7722W        W50713  12.012  18.167   7.207 -0.0293 -0.0736  0.1163
 7723W        W50714  19.256  24.857   1.568  0.1586 -0.0334  0.1916
 7724W        W50715  18.875  21.382   1.414 -0.2115 -0.0289 -0.2228
 7725W        W50716  10.106  21.142  22.246 -0.1316 -0.0042 -0.2819
 7726W        W50717  30.072  30.706   8.069  0.2089  0.0209 -0.1600
 7727W        W50718  17.169  22.412   4.352  0.1260  0.2666 -0.3127
 7728W        W50719   3.713  27.244  17.680  0.1872  0.2602 -0.1161
 7729W        W50720  32.507  22.633  22.511  0.0108  0.1616  0.3529
 7730W        W50721  26.378  27.331   6.429  0.2907  0.2693  0.0582
 7731W        W50722  18.288  34.054   5.666  0.0669 -0.2199  0.1643
 7732W        W50723  18.288  28.088   6.420  0.0370  0.0254  0.0126
 7733W        W50724   6.775  29.586  26.413  0.0441  0.1168 -0.2159
 7734W        W50725   1.773  30.758  21.399  0.1683  0.2059  0.2201
 7735W        W50726  20.697  17.664   4.490  0.0837  0.0149 -0.0126
 7736W        W50727  23.689  23.433   6.388 -0.2849 -0.0036  0.1052
 7737W        W50728  34.467  11.948   0.355 -0.0322 -0.2135  0.1438
 7738W        W50729  19.514   9.284   2.499  0.1252 -0.1691 -0.2389
 7739W        W50730   7.125  14.262   7.304 -0.2030  0.0737  0.2401
 7740W        W50731   8.212  21.783   5.979  0.1167 -0.0156  0.3224
 7741W        W50732  30.193  31.078  28.350 -0.2859 -0.1072 -0.0576
 7742W        W50733  28.687  29.352   0.662  0.2707  0.0090 -0.0144
 7743W        W50734  21.156  22.454   1.507 -0.2435  0.4228 -0.1862
 7744W        W50735  16.879  23.900  27.662 -0.1784 -0.1615 -0.1789
 7745W        W50736  10.491  26.510  28.023 -0.2183 -0.0046 -0.2916
 7746W        W50737   7.580  17.618   2.246  0.0161  0.0705  0.1974
 7747W        W50738  26.293   2.538   8.543 -0.0507 -0.0106 -0.3194
 7748W        W50739  31.673   0.252   2.318  0.1338  0.2971  0.2901
 7749W        W50740  17.251  24.280  28.552  0.0951  0.0868  0.1950
 7750W        W50741  13.525  17.609   1.921  0.1816  0.0724 -0.1770
 7751W        W50742  28.343   7.428  10.450 -0.0040  0.0534  0.1014
 7752W        W50743   9.434   6.804   0.814 -0.0656  0.0598  0.0456
 7753W        W50744  33.232  28.963   1.832 -0.0104 -0.0891  0.0744
 7754W        W50745   8.826  12.033   6.684  0.1570  0.1498 -0.0005
 7755W        W50746  21.992   8.614   6.541 -0.1378  0.1662  0.1177
 7756W        W50747  23.652  26.744   2.956 -0.2649  0.1444  0.1759
 7757W        W50748   5.741   2.563  10.218 -0.2078  0.3070 -0.1088
 7758W        W50749  17.623   0.645   1.135  0.0919 -0.3959  0.5018
 7759W        W50750   9.465  27.627   6.800  0.0615 -0.1186 -0.1332
 7760W        W50751  21.302  23.631   8.850 -0.0848  0.1211 -0.0106
 7761W        W50752  19.098  29.007   6.696 -0.0853 -0.1215  0.1146
 7762W        W50753  23.140   4.513   3.591 -0.1572 -0.3060  0.3101
 7763W        W50754  15.371   1.126   5.237  0.0289  0.1262 -0.0096
 7764W        W50755  12.453   3.448  10.033 -0.0205 -0.0599  0.1157
 7765W        W50756  21.986  24.383   5.130  0.1686  0.2459 -0.0176
 7766W        W50757  24.890   6.052   0.792 -0.0365 -0.0098  0.0351
 7767W        W50758  22.441  10.990  21.456 -0.2079  0.2538  0.0637
 7768W        W50759  14.005  11.010   6.462 -0.2372 -0.2423 -0.2217
 7769W        W50760  10.474  23.121   6.005 -0.0643 -0.2830  0.0114
 7770W        W50761  33.208  19.461   6.455 -0.0118 -0.1013 -0.1689
 7771W        W50762  18.252  25.764  22.730  0.4485  0.1973 -0.0319
 7772W        W50763  16.730  29.237   9.704 -0.1081  0.4147 -0.3336
 7773W        W50764  15.053  28.105   4.832  0.0179 -0.0404  0.1865
 7774W        W50765  17.576   6.070   3.268  0.1439  0.2373  0.1875
 7775W        W50766  17.465  29.689   8.489 -0.0503  0.0334  0.0975
 7776W        W50767  32.227  10.530   9.118  0.0078 -0.1271  0.3056
 7777W        W50768   1.063  11.700   2.426  0.1257  0.2150  0.1037
 7778W        W50769  12.184  23.084   9.220  0.0586  0.0223 -0.1413
 7779W        W50770  21.439  24.933   6.876  0.1260  0.2801 -0.0903
 7780W        W50771  21.213  28.168   4.242 -0.0921  0.1156 -0.2332
 7781W        W50772  21.228   2.652   4.045  0.2061 -0.0803  0.0367
 7782W        W50773  11.996  19.039  28.379  0.0136  0.1077  0.1162
 7783W        W50774   2.854  27.877   8.912 -0.2621 -0.1156 -0.2355
 7784W        W50775  21.271   5.483  24.195 -0.2654  0.0776  0.1028
 7785W        W50776  26.480  25.943   8.284 -0.1514  0.1209  0.2027
 7786W        W50777   9.034  28.745  24.714  0.1971 -0.2648  0.0979
 7787W        W50778  18.897  31.247  26.763  0.2047 -0.0717 -0.0476
 7788W        W50779  19.167   7.757   0.148  0.0557 -0.0550 -0.0702
 7789W        W50780  14.287   9.434   1.875  0.1721  0.0805  0.0373
 7790W        W50781  18.527   2.535   5.953 -0.1948  0.1518  0.0689
 7791W        W50782  11.960  25.405   7.348  0.2060  0.0111 -0.1115
 7792W        W50783   2.080  31.446  25.734  0.0149  0.1319  0.2002
 7793W        W50784  26.524  32.994   8.486  0.1445 -0.0502 -0.0059
 7794W        W50785  32.901  23.545   8.498  0.0196  0.0753  0.2232
 7795W        W50786  20.678  26.239  28.393 -0.2423 -0.1009  0.0563
 7796W        W50787  25.064  23.247   8.940  0.0248 -0.0295  0.1201
 7797W        W50788  17.189  24.288  26.947  0.1779  0.2608 -0.1196
 7798W        W50789   3.805   8.574  10.047  0.0141 -0.1159 -0.1211
 7799W        W50790  27.691  30.220   6.541 -0.1908  0.1435  0.0976
 7800W        W50791   3.236   6.500  28.444 -0.0495  0.0731  0.0280
 7801W        W50792  30.466  33.820   0.115  0.0408 -0.4151 -0.2073
 7802W        W50793  12.571  23.168  21.299  0.2495  0.0012  0.1351
 7803W        W50794  10.839   4.795  28.599 -0.0056 -0.0980  0.2923
 7804W        W50795   1.845  27.049  22.991 -0.3503  0.0325  0.1399
 7805W        W50796  26.507  26.087   5.561  0.0247 -0.0927 -0.2465
 7806W        W50797  25.272  26.713  26.275  0.1734 -0.2224 -0.1186
 7807W        W50798  26.641  25.943   6.337 -0.1122 -0.6075 -0.0552
 7808W        W50799   6.069   4.521  22.770  0.0416 -0.0865 -0.1126
 7809W        W50800  10.202  27.064  21.820 -0.1863  0.2047 -0.0038
 7810W        W50801  12.251   4.803  22.337  0.2294  0.1610  0.1066
 7811W        W50802  10.543  26.949   1.387 -0.1259  0.1291  0.0013
 7812W        W50803  21.934  31.267   6.250 -0.0071 -0.1600  0.0462
 7813W        W50804  28.366   8.523  23.709  0.3599 -0.1443  0.2291
 7814W        W50805  26.658   1.920   1.750  0.0904  0.1242  0.0131
 7815W        W50806  18.530  25.687   3.271  0.0431 -0.2793  0.0494
 7816W        W50807   9.385  29.347  17.587 -0.0415  0.2289  0.2745
 7817W        W50808   9.275  27.175   4.120  0.3774 -0.1425  0.2630
 7818W        W50809  22.756  30.598   5.403  0.5180  0.2352  0.0047
 7819W        W50810  20.760  25.914   0.424 -0.0756 -0.0878  0.0491
 7820W        W50811   6.673  19.040   0.157 -0.1675  0.1500 -0.1052
 7821W        W50812  25.380  26.435   1.004 -0.1413 -0.0334 -0.1292
 7822W        W50813   3.401  33.008  22.367  0.1688  0.1840 -0.0441
 7823W        W50814  27.490  33.310   1.812 -0.0308 -0.2266  0.1026
 7824W        W50815  28.990  23.670  17.105  0.1892 -0.0307  0.0071
 7825W        W50816  16.804  20.875  25.266  0.2341  0.1069 -0.2085
 7826W        W50817  15.960  16.702   8.182  0.1918 -0.4546 -0.0491
 7827W        W50818  11.511  15.554  27.266 -0.2132  0.0702 -0.3757
 7828W        W50819  14.813  10.552  16.568  0.3532 -0.3485  0.4715
 7829W        W50820  21.109  28.819   6.129  0.0515  0.0874  0.3072
 7830W        W50821  22.226  15.368  16.344  0.0917  0.2384 -0.1142
 7831W        W50822   6.792  15.497   7.421 -0.2530  0.5581  0.2285
 7832W        W50823  10.209   3.737  10.238  0.1717  0.1083  0.2583
 7833W        W50824  16.907  29.271   2.530 -0.1078  0.0424  0.0165
 7834W        W50825  14.938   7.748   5.155 -0.5008  0.3327  0.0496
 7835W        W50826   4.604  29.344   8.742 -0.0013 -0.2533 -0.0741
 7836W        W50827  16.422   1.425   3.334 -0.1988  0.0924 -0.0336
 7837W        W50828   4.706   3.754   2.016 -0.2799 -0.0720  0.0893
 7838W        W50829  18.174  17.476   2.561 -0.2174  0.1415  0.2531
 7839W        W50830  25.990   6.354   4.669  0.0744  0.2230 -0.1762
 7840W        W50831  25.896  29.096   4.747  0.0068 -0.4052 -0.1831
 7841W        W50832  15.262   3.385   1.282 -0.0870  0.0396 -0.4392
 7842W        W50833  17.511  28.847   9.744  0.1257  0.4358  0.1106
 7843W        W50834  24.932  21.351   8.642 -0.1106  0.2704 -0.1246
 7844W        W50835  22.890  22.009  28.507 -0.1616 -0.3197  0.0162
 7845W        W50836  18.354  19.570   7.044  0.2246  0.1462  0.2885
 7846W        W50837  23.963  34.241   1.351 -0.2354 -0.1497 -0.0032
 7847W        W50838   9.727  31.836  22.316 -0.2300  0.0842 -0.0720
 7848W        W50839  14.886   2.046  26.491  0.0581  0.0075  0.5837
 7849W        W50840   8.626  29.595  23.681  0.2239 -0.0041 -0.1500
 7850W        W50841  11.098  32.403   7.293  0.0523 -0.4354 -0.3242
 7851W        W50842  12.516  17.883   7.377  0.1643  0.1900 -0.0747
 7852W        W50843   6.228  24.542   1.668 -0.0520  0.0977  0.0493
 7853W        W50844  14.443  10.901   2.282 -0.2337 -0.1647  0.1245
 7854W        W50845  20.064  32.885  28.109  0.1550  0.0715 -0.0426
 7855W        W50846  22.803  31.059   5.100  0.0001  0.1801  0.0021
 7856W        W50847  15.236  18.504  24.755  0.3301  0.1125  0.0323
 7857W        W50848  11.975  22.863   6.165 -0.0194  0.0470  0.0211
 7858W        W50849  15.265  22.028   8.833 -0.1523 -0.1077  0.1751
 7859W        W50850   2.428  19.839   4.167 -0.0353 -0.2314 -0.2756
 7860W        W50851  23.286  11.065  27.438  0.0714 -0.1313 -0.0590
 7861W        W50852   6.052  15.194   7.021 -0.0683  0.1821  0.3114
 7862W        W50853  18.481  19.858  22.400 -0.2260 -0.4046 -0.3519
 7863W        W50854   2.422   8.669   7.012  0.0708 -0.0777 -0.3280
 7864W        W50855  13.397  30.228  20.445  0.0395 -0.2609  0.2466
 7865W        W50856   5.339   8.610  28.748  0.1645  0.0353  0.1658
 7866W        W50857   2.877  30.587   3.099 -0.1004  0.1951  0.0937
 7867W        W50858  25.713  24.022   1.821 -0.3358  0.2006  0.0723
 7868W        W50859  14.568  16.885   4.928 -0.1994 -0.1183  0.3232
 7869W        W50860  24.838  18.896   0.530  0.0462 -0.0660  0.0190
 7870W        W50861   8.761  32.926  27.246  0.1223 -0.2681 -0.2447
 7871W        W50862  17.286  33.965   3.080 -0.0475 -0.2716 -0.0849
 7872W        W50863  14.600   6.031   3.238  0.0819  0.2770 -0.0401
 7873W        W50864  11.667  22.103  19.139 -0.0119  0.3076  0.1949
 7874W        W50865  16.282  24.562  29.177  0.0504  0.1913  0.1083
 7875W        W50866  32.158   4.656   6.885  0.1386  0.1404 -0.2929
 7876W        W50867  25.523  25.283   2.606  0.0858  0.0588  0.0273
 7877W        W50868  22.411  29.346   5.596 -0.2079  0.2228 -0.1337
 7878W        W50869  28.457  30.164   0.454  0.2540 -0.0648 -0.0012
 7879W        W50870  23.000   4.598   2.146  0.2270  0.0162 -0.1443
 7880W        W50871   3.091  23.340   7.307 -0.1192 -0.1022 -0.2411
 7881W        W50872  27.218  32.376   3.402  0.4336  0.0391  0.2835
 7882W        W50873  16.014   0.540   0.583 -0.2924  0.2617  0.2387
 7883W        W50874  14.856  11.341   1.968  0.3695 -0.0295  0.2592
 7884W        W50875  17.983   7.213   7.343  0.0395  0.1257 -0.0726
 7885W        W50876  15.206   4.237   2.255 -0.0349 -0.0882  0.1841
 7886W        W50877   1.694  30.682   7.872 -0.3392 -0.3475  0.1724
 7887W        W50878  12.596  18.421  20.933 -0.1239 -0.2786  0.0722
 7888W        W50879  28.648  23.439   7.134 -0.0893 -0.1353  0.0670
 7889W        W50880   8.726  19.706   9.376  0.0192  0.0805  0.0451
 7890W        W50881  31.791  14.191  27.753 -0.1240  0.0872  0.2958
 7891W        W50882  23.446   0.948   4.529  0.1975 -0.5925  0.2442
 7892W        W50883  13.767   1.580  10.023  0.1210 -0.2389  0.1690
 7893W        W50884   4.940  23.891  26.641  0.1187  0.0013 -0.0527
 7894W        W50885   7.819  34.283   1.226 -0.1061 -0.1188  0.2011
 7895W        W50886  15.054  32.198   5.399  0.4648 -0.3082  0.2187
 7896W        W50887  28.315  18.548  15.383 -0.1835  0.1215  0.0123
 7897W        W50888  34.028   1.229  17.677 -0.2690 -0.0320  0.1317
 7898W        W50889  25.099  27.644   3.878 -0.0270 -0.0958  0.1326
 7899W        W50890  30.299  30.181  26.116  0.0421 -0.4906 -0.0591
 7900W        W50891  12.796  33.624  10.156 -0.2113 -0.2741  0.0966
 7901W        W50892  22.336  25.659   6.422  0.1337  0.0619 -0.1404
 7902W        W50893  20.990   3.233   3.676  0.1539  0.0551  0.1266
 7903W        W50894  19.273  21.484   0.494 -0.2268 -0.0203 -0.3063
 7904W        W50895  11.341   7.062  27.791  0.0392  0.0939 -0.0233
 7905W        W50896  21.339  24.272   8.335 -0.3489  0.1580  0.1984
 7906W        W50897  16.024  25.729   6.240 -0.3270 -0.1967 -0.1455
 7907W        W50898  18.107   3.609  22.288  0.0724 -0.0295 -0.0557
 7908W        W50899  18.417  27.998  27.217 -0.1417  0.1613  0.2774
 7909W        W50900   3.630   8.037   3.449  0.0365  0.3543  0.2619
 7910W        W50901  33.823   6.836  17.961  0.0181 -0.0217 -0.0228
 7911W        W50902  17.057  32.669   3.265  0.0817  0.0689 -0.7187
 7912W        W50903   6.731   0.570   6.983  0.1130 -0.0082 -0.2450
 7913W        W50904  15.283  31.873  27.396 -0.2265 -0.1853  0.1070
 7914W        W50905  19.356   8.321  19.334 -0.2724  0.2282  0.1685
 7915W        W50906  12.654  21.809   7.412 -0.0660 -0.3408  0.0968
 7916W        W50907  10.289  34.671  16.985 -0.1201 -0.3190  0.0499
 7917W        W50908   7.222  27.564  21.953 -0.0039 -0.1682 -0.1055
 7918W        W50909  28.741   5.750  20.586 -0.3315  0.2011  0.3109
 7919W        W50910   1.375  22.590  24.632  0.1347  0.1494 -0.0551
 7920W        W50911  12.441   3.281   5.198 -0.4334 -0.4407 -0.4769
 7921W        W50912  18.091   1.638   7.792 -0.1306 -0.2090 -0.2284
 7922W        W50913  34.295  25.890   9.350  0.1549 -0.0434  0.1649
 7923W        W50914  26.961  23.717   0.542 -0.3776 -0.0798 -0.1700
 7924W        W50915   3.954   2.785   7.372 -0.0928  0.0777 -0.0671
 7925W        W50916  33.166  30.694  28.462 -0.0299  0.1389 -0.1235
 7926W        W50917   2.406  29.968   1.881 -0.2941 -0.0624 -0.1867
 7927W        W50918  15.939  27.618   4.600 -0.1108  0.1982 -0.2294
 7928W        W50919  23.657  34.682   6.483 -0.1166 -0.1082 -0.1117
 7929W        W50920  12.931  24.324   7.750  0.0251 -0.0284 -0.2595
 7930W        W50921  33.594  11.810  27.738  0.0342 -0.1323  0.0221
 7931W        W50922  25.494  32.286  20.008  0.0687 -0.2289  0.1264
 7932W        W50923   9.820  11.518  27.527  0.3359  0.2394 -0.0950
 7933W        W50924  34.214   5.659  25.953  0.2014  0.2940  0.4021
 7934W        W50925  25.076  23.823   0.483  0.2851  0.2469  0.2622
 7935W        W50926  11.236   3.027   7.094  0.0841 -0.0226 -0.0072
 7936W        W50927  29.174  22.469   6.221  0.3170  0.2094 -0.1204
 7937W        W50928  13.663  28.732   6.477  0.2342  0.2707 -0.1262
 7938W        W50929  27.557  31.852   0.510 -0.0191  0.2397 -0.0983
 7939W        W50930  12.222  33.138  26.080  0.0195 -0.3372  0.0755
 7940W        W50931  22.264  20.436   5.721 -0.0805  0.0099 -0.2620
 7941W        W50932   3.159  19.557  24.291  0.0096  0.2284  0.0927
 7942W        W50933  15.539  16.187  27.039 -0.0125  0.0029 -0.1878
 7943W        W50934  25.574  26.705  20.654 -0.1631 -0.2141 -0.0751
 7944W        W50935  12.784   3.130   6.525 -0.3018 -0.1888 -0.1062
 7945W        W50936   0.302  21.949   7.320 -0.2456  0.3175 -0.1390
 7946W        W50937  12.094  34.472  29.256  0.3091 -0.1386 -0.0946
 7947W        W50938  34.039  25.141   9.513  0.0825 -0.2143 -0.2934
 7948W        W50939  21.785  23.827  20.685  0.1657 -0.1622 -0.0450
 7949W        W50940  34.250  26.924   9.793 -0.0696 -0.2386  0.0838
 7950W        W50941  21.088   1.546  24.222  0.2069 -0.0909 -0.1430
 7951W        W50942  23.465   8.517  25.532 -0.1823 -0.2740  0.1519
 7952W        W50943  11.508   3.987   4.434 -0.1048 -0.1098 -0.0501
 7953W        W50944  22.518  22.746   8.270  0.0131 -0.3006 -0.1450
 7954W        W50945  18.896  34.207  21.838  0.0156 -0.2062 -0.1176
 7955W        W50946   8.472  32.100   0.132  0.2827  0.2081  0.2587
 7956W        W50947  33.426  28.213   2.409  0.2300 -0.0708 -0.0515
 7957W        W50948  11.398  22.909  15.839 -0.0354  0.0711  0.4621
 7958W        W50949  15.907  30.707   9.088 -0.1796 -0.0056 -0.0155
 7959W        W50950  18.326   4.002  23.552 -0.2515 -0.1130  0.1323
 7960W        W50951   6.201  30.835   4.311  0.0537  0.1124  0.0761
 7961W        W50952  12.759  34.683  28.168  0.1439 -0.3001  0.3551
 7962W        W50953  32.079  22.336  10.614 -0.3202 -0.1583  0.0870
 7963W        W50954  23.337  25.872   8.254 -0.1888  0.1689 -0.2196
 7964W        W50955  20.782  19.903  15.799 -0.0590  0.2805  0.0369
 7965W        W50956  21.306  20.623  22.730 -0.0262 -0.0067  0.1757
 7966W        W50957  10.550  30.860  28.513 -0.0621  0.3933  0.1213
 7967W        W50958  18.502  25.882   7.557 -0.5106  0.0494 -0.0474
 7968W        W50959  22.585  11.288   2.477 -0.0641 -0.2268  0.1189
 7969W        W50960  12.697  26.089   4.655 -0.1433 -0.2114 -0.0130
 7970W        W50961  13.138   8.416  22.215  0.0427 -0.0048  0.0039
 7971W        W50962  11.338  32.601  20.964 -0.2517 -0.1371  0.0161
 7972W        W50963  15.253  14.367   7.482  0.0193  0.1048  0.1290
 7973W        W50964  15.503  23.591  25.148  0.0250 -0.5157  0.1907
 7974W        W50965   0.172  29.446   0.375  0.2142  0.1652  0.2727
 7975W        W50966  15.719  23.250   6.705 -0.1830  0.1597 -0.3414
 7976W        W50967   5.676  21.136   1.553 -0.3212 -0.2739 -0.1937
 7977W        W50968  23.196  29.044  19.307 -0.2798  0.0615  0.0065
 7978W        W50969  17.331  23.404  13.139 -0.4634  0.2255 -0.0098
 7979W        W50970  19.649  27.101  28.312  0.0510  0.0179 -0.2236
 7980W        W50971   1.126  30.961  27.283  0.0419 -0.1185 -0.1597
 7981W        W50972  30.463  22.984   6.439  0.0965  0.1992  0.0699
 7982W        W50973  18.054  28.638  20.298  0.2920  0.2110 -0.4262
 7983W        W50974  14.945   4.983  15.060 -0.1773 -0.3753  0.2351
 7984W        W50975  13.570   2.081   1.758  0.2817  0.1805 -0.0330
 7985W        W50976  16.403   0.713  19.274 -0.0285  0.0547 -0.0840
 7986W        W50977   6.858   6.086  26.289  0.4343  0.0735  0.0222
 7987W        W50978  19.710   3.216   6.660  0.0373 -0.0882  0.0613
 7988W        W50979  23.852  12.162  27.406 -0.0747  0.0707  0.0244
 7989W        W50980  16.288  27.955   2.576 -0.2561  0.2018  0.2249
 7990W        W50981  27.704  31.684  23.446  0.0710  0.1346  0.0908
 7991W        W50982   2.724  30.748   4.373  0.0718  0.0305 -0.1508
 7992W        W50983  28.400  23.416   0.589  0.2674  0.0203 -0.2763
 7993W        W50984   9.615  15.496  10.436  0.3028  0.2244  0.3870
 7994W        W50985  17.778   1.562  16.294  0.3007  0.1578  0.2509
 7995W        W50986  16.974  26.024  28.155  0.1795 -0.1239 -0.2448
 7996W        W50987   2.798   7.551   9.061 -0.0301 -0.0503 -0.1290
 7997W        W50988  32.219  27.780  24.788 -0.0409  0.2152  0.3077
 7998W        W50989  12.157   0.809   0.877  0.0013  0.2007  0.1169
 7999W        W50990  29.507  22.851  23.327  0.0853  0.3334  0.2229
 8000W        W50991  14.647  25.256   6.944  0.0656  0.1601  0.0373
 8001W        W50992  30.373  31.137  21.324  0.0943 -0.1568 -0.1378
 8002W        W50993  12.206   6.595  28.491  0.2093  0.1171 -0.0645
 8003W        W50994  25.135  31.442  28.124 -0.0750 -0.1055 -0.0053
 8004W        W50995   6.913   1.358   3.697  0.0063 -0.1282 -0.1578
 8005W        W50996  26.541  17.223   5.225 -0.1575 -0.1424 -0.0092
 8006W        W50997   0.497  10.727   4.198 -0.3488 -0.1243  0.0018
 8007W        W50998  17.517   9.110  19.332  0.1203  0.1766 -0.1092
 8008W        W50999   7.707  24.448   2.021 -0.2013 -0.0052 -0.2526
 8009W        W51000  21.285  24.476   4.222 -0.1632  0.2867 -0.3187
 8010W        W51001  30.657  26.123   4.015 -0.0620 -0.4587  0.0932
 8011W        W51002   1.397  33.266  21.795 -0.1647 -0.1008 -0.1000
 8012W        W51003  16.760   2.819  28.524 -0.0485 -0.0631  0.1615
 8013W        W51004  16.236  22.296  24.053  0.0626 -0.3026  0.1479
 8014W        W51005   5.712  30.263  19.445  0.1152 -0.1296  0.3030
 8015W        W51006  18.079  33.865   8.054 -0.0909  0.0827 -0.1559
 8016W        W51007  20.910  28.856   6.601 -0.1177  0.0155 -0.0218
 8017W        W51008  15.387  34.174  26.182  0.1351  0.0143 -0.0194
 8018W        W51009  16.727  30.934   6.313  0.2692 -0.1748 -0.0396
 8019W        W51010  15.884   2.812  19.367  0.1672  0.1539  0.3118
 8020W        W51011  13.503  26.162  25.534  0.0932 -0.1613  0.3121
 8021W        W51012  17.168  28.285   5.655 -0.1727 -0.4733 -0.1529
 8022W        W51013  27.204  25.336   4.079  0.2392 -0.3611 -0.5657
 8023W        W51014  15.338  18.005  25.752 -0.2085 -0.2294  0.4508
 8024W        W51015  12.038  32.789  14.219  0.0787 -0.1424  0.0935
 8025W        W51016  16.592   4.881   7.684 -0.1823 -0.4425 -0.1010
 8026W        W51017  29.906  23.605   6.888  0.1630  0.0276  0.0218
 8027W        W51018   8.167  23.323  20.516 -0.0322 -0.2382 -0.1717
 8028W        W51019  19.633  10.058   0.695 -0.1744 -0.3070 -0.1601
 8029W        W51020  13.555   3.152   0.768  0.0047 -0.1748  0.0568
 8030W        W51021  22.045  33.291   8.098 -0.1311  0.0349 -0.0440
 8031W        W51022  23.283  26.697   3.722  0.0530  0.0819 -0.3903
 8032W        W51023  16.104  15.041   5.892  0.0031  0.0339 -0.5114
 8033W        W51024  24.481   4.189   5.590 -0.2525 -0.0878 -0.1306
 8034W        W51025  28.980   1.343   8.215 -0.1059  0.0683 -0.2078
 8035W        W51026  17.573  22.699   9.645  0.3011 -0.0867  0.0576
 8036W        W51027  10.019   6.702  24.229 -0.0370  0.0212  0.0196
 8037W        W51028  32.351   0.695  16.959  0.3831 -0.0692  0.1120
 8038W        W51029  15.089  34.608   0.249 -0.2454 -0.0086  0.3163
 8039W        W51030  16.606   8.391   7.944 -0.1111 -0.0185 -0.0934
 8040W        W51031  11.714   1.434   9.850 -0.0225  0.1114  0.0695
 8041W        W51032  15.864  16.922   1.247  0.0501 -0.2507 -0.2241
 8042W        W51033   1.828   6.794  16.040  0.1476  0.2879  0.1065
 8043W        W51034  32.262  30.546  22.124 -0.0115  0.0761 -0.0176
 8044W        W51035  18.643   6.089   9.930 -0.2163  0.0047 -0.0766
 8045W        W51036  16.599   1.684  19.426 -0.1172  0.4912  0.0281
 8046W        W51037  10.849   0.075   5.399 -0.0694 -0.4159  0.0549
 8047W        W51038  18.401   2.903  29.040 -0.3121  0.3068  0.1057
 8048W        W51039  24.876  33.352  12.790  0.0997 -0.1186  0.2865
 8049W        W51040  19.109  32.055  28.400  0.1545 -0.0538  0.1210
 8050W        W51041  20.253   6.374  23.573  0.2414  0.3472 -0.3797
 8051W        W51042  19.016  18.533  24.688 -0.1313 -0.2129 -0.1508
 8052W        W51043   4.537  12.939  10.123 -0.1905  0.0077 -0.0680
 8053W        W51044  24.917  16.733  26.205 -0.0310  0.1161 -0.3177
 8054W        W51045  12.864  27.977  27.742  0.0842  0.0601 -0.2460
 8055W        W51046  13.369  26.335  22.655  0.2805 -0.1037 -0.1274
 8056W        W51047  30.723   3.303  29.047  0.1809  0.0974  0.0321
 8057W        W51048  16.225  19.641  14.986 -0.0671 -0.1083 -0.3269
 8058W        W51049   3.350  23.555  25.216  0.1974  0.1830 -0.0145
 8059W        W51050  16.773  30.128  22.751  0.0144  0.0279  0.0035
 8060W        W51051  13.389  28.271  16.306 -0.2467  0.0085  0.0722
 8061W        W51052  13.610  28.921  27.589 -0.2137 -0.0940 -0.1133
 8062W        W51053  20.862   5.518   5.383  0.0307  0.1392 -0.0247
 8063W        W51054   6.569  32.830   0.241  0.3183  0.0142 -0.0740
 8064W        W51055  18.675  29.735   9.336 -0.0771 -0.2034  0.1548
 8065W        W51056  20.972  32.695   3.804 -0.3945  0.4974 -0.0790
 8066W        W51057  19.048  14.079   6.360 -0.0628  0.0090 -0.3456
 8067W        W51058  29.252   7.397   5.091 -0.0498  0.1154  0.3059
 8068W        W51059  30.285   7.575   2.697 -0.0809  0.1537 -0.0622
 8069W        W51060  15.536  34.322   3.689 -0.2876 -0.0338 -0.4039
 8070W        W51061  31.137  24.559  27.611 -0.2887  0.0324 -0.2504
 8071W        W51062  33.351  33.235  24.600 -0.0094  0.0880 -0.1379
 8072W        W51063  19.548  20.268   2.719  0.0772 -0.1168  0.1766
 8073W        W51064   7.059  18.267  26.053 -0.3908 -0.0094  0.1780
 8074W        W51065  31.528  29.563  17.683  0.1764  0.2944 -0.3512
 8075W        W51066  18.327  32.800  25.980  0.2000  0.1139  0.0602
 8076W        W51067  13.054  21.291  15.568 -0.2815  0.0723 -0.1509
 8077W        W51068  26.283  22.115   9.313  0.0073 -0.1999  0.3609
 8078W        W51069  10.020   6.097   0.682 -0.2339 -0.3031  0.0861
 8079W        W51070  13.397  34.383   8.061 -0.0925 -0.2132 -0.0491
 8080W        W51071  23.925  32.979  28.303 -0.2364  0.1195  0.2693
 8081W        W51072  21.296  33.987  17.119 -0.1813  0.0336  0.0923
 8082W        W51073   9.055  15.739  20.686  0.2137  0.0209  0.0685
 8083W        W51074  23.337  25.611  24.738 -0.0040  0.3552 -0.0458
 8084W        W51075   7.883   9.547   1.639 -0.1478 -0.1067 -0.1673
 8085W        W51076   2.481   1.822  27.448  0.4453  0.3001  0.0799
 8086W        W51077  23.637  23.511  28.429  0.0413  0.5276  0.0567
 8087W        W51078  17.673   1.154   6.724  0.1436 -0.2100 -0.1587
 8088W        W51079  29.975  26.273  23.042 -0.2009 -0.1945 -0.2136
 8089W        W51080  17.544   0.767   2.136  0.0126  0.3369  0.1848
 8090W        W51081  12.676  25.208  22.790  0.2064 -0.1443 -0.0637
 8091W        W51082  14.009   1.724  28.960 -0.4567 -0.2683  0.5105
 8092W        W51083   9.048  26.614  10.204 -0.1078  0.1513 -0.2789
 8093W        W51084  22.447  12.173   9.755  0.2046  0.1679 -0.3134
 8094W        W51085  34.452  13.654   7.684  0.0886  0.2999 -0.1146
 8095W        W51086  19.384   2.420   6.389 -0.1561  0.0702 -0.0218
 8096W        W51087  31.499  10.605   0.415  0.4408  0.1301 -0.0395
 8097W        W51088  24.770  32.824   8.797  0.1526 -0.2358  0.3973
 8098W        W51089   9.849  33.646   0.021 -0.0884 -0.0910  0.3678
 8099W        W51090  11.829  33.316  26.765  0.1052  0.0370 -0.0960
 8100W        W51091  19.401   2.620  27.608  0.0738  0.0870  0.0924
 8101W        W51092  11.839   1.652   4.312 -0.0247 -0.0940  0.1262
 8102W        W51093   2.046   5.675  28.519 -0.1216  0.0464 -0.4083
 8103W        W51094  20.534  13.068  16.382 -0.1634 -0.3234  0.1943
 8104W        W51095   6.053  12.828   0.050  0.0995  0.1901  0.0057
 8105W        W51096  11.830  14.120  10.884 -0.0302  0.0204 -0.4369
 8106W        W51097  33.170   9.651   3.145  0.3841  0.2857 -0.2769
 8107W        W51098  27.251  29.443  26.812 -0.1857 -0.1810 -0.0556
 8108W        W51099  26.261  17.852   8.451  0.1968  0.0823 -0.1968
 8109W        W51100  18.019  31.910   2.381  0.2470 -0.1791  0.2299
 8110W        W51101  14.530  34.627  28.331 -0.2015  0.0367 -0.2678
 8111W        W51102   9.069  24.060   1.432  0.2560  0.0226  0.2950
 8112W        W51103  16.912  26.372   3.065  0.0544  0.2325 -0.0918
 8113W        W51104  17.496  26.146  14.528  0.0056  0.1999 -0.2782
 8114W        W51105  20.887   5.072   4.139 -0.2608  0.1427  0.1599
 8115W        W51106   5.362  18.428   8.347  0.2568 -0.1964 -0.1747
 8116W        W51107  20.714  28.032   5.631  0.0955  0.1658  0.2337
 8117W        W51108  13.130   1.110  22.473  0.1590  0.1232 -0.1301
 8118W        W51109   9.889  34.745   7.703  0.0063  0.1240  0.1800
 8119W        W51110   0.933  17.858  23.774  0.0310 -0.1263  0.4640
 8120W        W51111  24.395  26.516   4.155 -0.0847 -0.1636  0.1609
 8121W        W51112  31.953   3.569  19.297 -0.1451 -0.0740  0.4452
 8122W        W51113  19.152  33.441   3.729  0.2953  0.0316  0.0932
 8123W        W51114  28.010  21.588   4.836 -0.0409 -0.0353  0.1495
 8124W        W51115  29.005   2.507  28.129  0.0615 -0.3710 -0.2502
 8125W        W51116  21.493  28.010   4.847  0.4048 -0.2397 -0.0012
 8126W        W51117  12.251   3.349   8.284  0.0844  0.3073  0.1039
 8127W        W51118  13.336  34.800  10.970  0.0102 -0.0060  0.0291
 8128W        W51119  16.389   2.133   8.018  0.0204  0.0444  0.1508
 8129W        W51120   4.312  29.500  27.173 -0.1357  0.0505 -0.0092
 8130W        W51121  10.611   1.145  27.675  0.1401 -0.0678 -0.0892
 8131W        W51122   0.628  23.154   8.445  0.4168 -0.2468  0.1733
 8132W        W51123  28.712  28.568   4.007  0.0789  0.1112 -0.0760
 8133W        W51124  31.406  28.469   5.385 -0.1413  0.2428 -0.1853
 8134W        W51125   4.456   4.953   1.445 -0.2360  0.1329  0.0586
 8135W        W51126  33.662   2.295   5.551 -0.0880  0.0328  0.3287
 8136W        W51127  30.416  31.720   4.357  0.2035  0.1901 -0.3977
 8137W        W51128  13.144  12.607   2.811 -0.1498  0.1540 -0.0615
 8138W        W51129  17.800  30.197   2.248  0.1180  0.1194 -0.0526
 8139W        W51130   5.098   0.387   3.209  0.0673  0.0206  0.1190
 8140W        W51131  20.097   4.896   5.797 -0.1267  0.3246 -0.0529
 8141W        W51132  15.316  25.055  28.196  0.0338 -0.0343 -0.2466
 8142W        W51133  32.027  28.815   1.681  0.2153 -0.0951  0.1537
 8143W        W51134  33.350   0.226   0.775 -0.7624 -0.1732  0.3001
 8144W        W51135  28.856  26.939  21.553  0.0599  0.1453 -0.2351
 8145W        W51136  14.052  32.908  27.220  0.0720  0.2919  0.4827
 8146W        W51137  33.229  24.143   7.824  0.2716  0.1061 -0.3000
 8147W        W51138  29.962  32.501  17.362  0.4145 -0.0860 -0.3686
 8148W        W51139  23.611  26.247  24.258  0.1161 -0.0657  0.0547
 8149W        W51140  19.649  11.427   2.060  0.3043  0.0641 -0.4337
 8150W        W51141   7.531  23.376  26.314 -0.0913  0.0790  0.1929
 8151W        W51142   6.034  33.782   8.180 -0.1822 -0.1901  0.2695
 8152W        W51143   8.088  13.952   2.845 -0.2061 -0.4776  0.1420
 8153W        W51144  19.809  28.979   8.562  0.2041  0.2864 -0.5630
 8154W        W51145  14.860   4.990  16.933 -0.2252  0.0662 -0.0294
 8155W        W51146  14.890  29.919   5.251  0.0241 -0.0995  0.2564
 8156W        W51147  17.017  16.162   2.527 -0.0406 -0.2305  0.2217
 8157W        W51148  17.637   9.252  26.872 -0.3413  0.2694  0.1730
 8158W        W51149  21.678  26.857  21.519  0.2030  0.2515  0.0848
 8159W        W51150  15.061   2.997   4.244  0.2020  0.0308 -0.0631
 8160W        W51151  22.126  16.768  25.573 -0.1801 -0.0380 -0.1021
 8161W        W51152  17.655  22.115  23.001  0.1113 -0.1220  0.1168
 8162W        W51153  28.745   1.623   5.391 -0.3736  0.1167 -0.0423
 8163W        W51154  30.520  25.679   1.553  0.1835 -0.2108  0.1756
 8164W        W51155  24.470   4.386   7.119 -0.0904  0.1228  0.1498
 8165W        W51156  32.607  23.508  28.304  0.2586 -0.0612  0.2183
 8166W        W51157   8.153  26.605   5.317  0.0359 -0.1170 -0.3896
 8167W        W51158   0.331  31.799   7.761 -0.4165 -0.0709 -0.0077
 8168W        W51159  10.547   4.928  26.345 -0.4208  0.0975  0.1712
 8169W        W51160  23.700   3.526   9.011  0.0571  0.5042  0.0067
 8170W        W51161  22.677  12.432  25.375 -0.0266  0.0292  0.0649
 8171W        W51162   7.472  22.794  26.270  0.0375 -0.2938  0.1485
 8172W        W51163  19.247  23.977  23.218  0.2599  0.0647 -0.2166
 8173W        W51164  12.059   6.688  11.186  0.3673 -0.0259 -0.2283
 8174W        W51165   3.095   1.005  18.859 -0.2808 -0.0782 -0.1460
 8175W        W51166  20.718  30.913  17.138  0.1695 -0.1681  0.0088
 8176W        W51167   9.806  22.385   1.294  0.0456  0.2075  0.1356
 8177W        W51168   4.926   6.648   7.610  0.1913  0.0607 -0.0030
 8178W        W51169  22.612  30.331   0.480 -0.1673 -0.2375  0.2233
 8179W        W51170  22.382   5.675   3.605 -0.2663  0.1064  0.1760
 8180W        W51171  19.638  28.782  22.301  0.1761  0.0906 -0.0398
 8181W        W51172  24.667  26.215   5.976  0.2792  0.5863 -0.3409
 8182W        W51173   4.162  30.407  17.474 -0.1431  0.2245  0.0458
 8183W        W51174  13.110   9.033  28.811  0.2424 -0.4748  0.1585
 8184W        W51175  20.966  32.289   5.840 -0.0557 -0.3065  0.3524
 8185W        W51176  16.684  34.790   3.480  0.1288  0.0404 -0.0625
 8186W        W51177  31.962  31.498  28.367  0.1219 -0.0059  0.0680
 8187W        W51178  29.156   6.366   1.072  0.1313 -0.1527 -0.4037
 8188W        W51179  26.469  13.532   9.276 -0.1300  0.0938  0.0478
 8189W        W51180  22.503   2.015   8.989  0.0102  0.0319 -0.0713
 8190W        W51181  12.821   4.837   7.368 -0.1842  0.1206 -0.1363
 8191W        W51182  12.911   6.641   9.670  0.3369  0.0581  0.0543
 8192W        W51183  19.569  30.226   6.916  0.1443 -0.1325 -0.0959
 8193W        W51184  14.318   6.281  28.335 -0.1306 -0.1172 -0.0197
 8194W        W51185   2.722   0.012   4.772  0.2882 -0.1580 -0.1053
 8195W        W51186  20.058  32.550   4.271  0.0548  0.0637 -0.3956
 8196W        W51187  20.972   0.923   5.272  0.0900 -0.0614 -0.2749
 8197W        W51188  14.410  28.356   7.194  0.1513 -0.0469 -0.0636
 8198W        W51189  19.648  10.865   3.382  0.0870 -0.0767 -0.0756
 8199W        W51190  32.525  23.899  26.335  0.2881 -0.2663  0.1777
 8200W        W51191  32.991  13.340  20.538  0.0061 -0.1445  0.0044
 8201W        W51192  29.327   0.464   5.349 -0.0713 -0.2064  0.1532
 8202W        W51193  24.690   6.761   2.576 -0.0497  0.0603 -0.0623
 8203W        W51194  12.021  27.414  25.985  0.1918 -0.0671  0.1988
 8204W        W51195  18.791  33.857  15.260 -0.0674  0.1450 -0.0804
 8205W        W51196  15.270  11.490   9.547  0.0549 -0.0936  0.3002
 8206W        W51197  20.139  29.109  17.386 -0.1808 -0.0333  0.1789
 8207W        W51198  25.045  13.715  23.890  0.1937  0.0011  0.0770
 8208W        W51199   1.137  30.988  28.291 -0.0648  0.1390  0.0772
 8209W        W51200  23.332  34.409   0.126 -0.1621 -0.1703  0.0684
 8210W        W51201   3.711  31.967  16.795 -0.5308 -0.1576  0.2364
 8211W        W51202  28.057  26.891  23.388  0.1875  0.1761 -0.1276
 8212W        W51203  14.612  14.767   0.004  0.1206 -0.0965  0.1252
 8213W        W51204  13.384  33.090   5.331 -0.0007 -0.1596 -0.0056
 8214W        W51205  17.364  17.677   2.035  0.1701 -0.3282 -0.0869
 8215W        W51206  17.686  31.232  25.560  0.0577 -0.0539  0.1970
 8216W        W51207  25.838   4.264  28.209  0.4646 -0.2004  0.0187
 8217W        W51208  13.659   2.816   0.352 -0.0009  0.1950 -0.3499
 8218W        W51209   5.879   1.662   3.364 -0.2054 -0.3315 -0.2560
 8219W        W51210  18.611   3.160   9.199 -0.3510 -0.0589 -0.0011
 8220W        W51211  17.645   8.756   7.698 -0.1777  0.0220  0.0082
 8221W        W51212  14.468   2.210   7.764 -0.0775  0.0249  0.0757
 8222W        W51213  21.863   1.937   3.394 -0.2390  0.1570  0.0357
 8223W        W51214  14.955   3.001   7.910 -0.0594  0.0415 -0.1091
 8224W        W51215  15.653  34.541   6.055 -0.0547  0.0566 -0.1523
 8225W        W51216  14.722  30.039  25.344  0.1470  0.4266  0.3510
 8226W        W51217   6.608  26.822  19.506 -0.1989 -0.0004  0.1366
 8227W        W51218  18.822  30.768  28.167  0.0723 -0.0651  0.1400
 8228W        W51219  25.335  27.197  27.860 -0.0418  0.2381  0.0090
 8229W        W51220  19.474  27.660   0.011  0.1732  0.3563 -0.0667
 8230W        W51221  15.931   7.600  15.957  0.0737 -0.1455 -0.1098
 8231W        W51222   6.336  15.170   8.642 -0.3169  0.1626  0.2402
 8232W        W51223  28.105  24.222  19.693 -0.3267  0.0699  0.1401
 8233W        W51224  23.933   7.319  25.455  0.0812 -0.0258  0.3324
 8234W        W51225   5.642  21.278   7.283 -0.0906  0.0152  0.1636
 8235W        W51226  34.390  23.249   4.679 -0.0737 -0.0806  0.2093
 8236W        W51227  20.325  28.868  20.350 -0.0223  0.0724 -0.0135
 8237W        W51228  23.453  12.250   9.044  0.1780 -0.1863  0.2363
 8238W        W51229  17.215  24.623   6.279  0.0831  0.3744  0.3120
 8239W        W51230  19.738  22.527   2.433  0.1352 -0.1459  0.0184
 8240W        W51231   9.031   5.118   2.583  0.5606  0.1609 -0.0627
 8241W        W51232   0.280  32.920  28.220 -0.0438 -0.0488  0.3960
 8242W        W51233  20.872   9.706  27.164  0.0571 -0.1364  0.3601
 8243W        W51234  28.331   0.608   8.944 -0.0479 -0.0689 -0.0983
 8244W        W51235  17.589   2.834  24.192  0.0636 -0.2068  0.1245
 8245W        W51236  14.221  16.725   8.131  0.0471 -0.0010  0.1577
 8246W        W51237  10.017   8.750   1.535 -0.1460 -0.1959  0.2387
 8247W        W51238  16.127   8.915   6.332 -0.0717  0.2011  0.1441
 8248W        W51239  15.892   9.123  16.161  0.0072  0.1757 -0.0925
 8249W        W51240  11.437   5.258   4.274  0.2707  0.1641  0.0667
 8250W        W51241  33.227  25.741   9.872  0.0913 -0.2224  0.0519
 8251W        W51242  14.989  27.555  24.834  0.2849  0.0751  0.2708
 8252W        W51243   7.504   9.899   2.040  0.0594 -0.0261  0.2542
 8253W        W51244  23.067  21.081  28.173 -0.1243 -0.3128  0.3425
 8254W        W51245  13.987  33.265   6.802  0.2263  0.3496  0.0463
 8255W        W51246  17.217  23.081   8.791 -0.2001  0.0651  0.4285
 8256W        W51247  34.349  28.321   2.643 -0.2115 -0.0296 -0.0918
 8257W        W51248  16.776   3.658  20.308  0.1138 -0.0284  0.3032
 8258W        W51249   4.946  29.693  27.061 -0.0568  0.0410 -0.3269
 8259W        W51250   4.757   2.201   1.968  0.0555 -0.1703  0.1418
 8260W        W51251  12.254  30.250   7.284 -0.0481  0.0092 -0.0880
 8261W        W51252  23.981  34.656   7.336 -0.0082  0.0788 -0.0843
 8262W        W51253  12.832  27.768   2.606 -0.2813 -0.2202 -0.1883
 8263W        W51254  32.743   9.292   8.846 -0.0425 -0.0973 -0.0055
 8264W        W51255  14.766   0.522   3.403  0.0872 -0.1008  0.1127
 8265W        W51256   5.888   5.575   2.981  0.2510  0.2995  0.1482
 8266W        W51257   9.897   4.319  18.067 -0.0127 -0.0352 -0.1298
 8267W        W51258   8.794  32.448  28.307 -0.1024 -0.0111  0.0148
 8268W        W51259  25.677   2.673  14.198 -0.0896  0.0950  0.0425
 8269W        W51260  14.488  15.447   1.532  0.1505  0.0358  0.1864
 8270W        W51261  30.544  31.079   5.554  0.0905  0.1704 -0.2084
 8271W        W51262   5.762  13.277  25.281  0.1866 -0.0317 -0.0825
 8272W        W51263  28.113  30.817   8.421  0.2442 -0.0751 -0.3633
 8273W        W51264   7.523   0.509   4.372  0.3163 -0.0132  0.4618
 8274W        W51265  19.333   3.580  21.147 -0.0059 -0.1099  0.1385
 8275W        W51266  23.042  15.701  21.790  0.1240 -0.2262  0.0789
 8276W        W51267  17.025   4.112   6.410  0.0885 -0.0128 -0.6271
 8277W        W51268  14.603  31.537   2.713  0.3677  0.0459  0.0123
 8278W        W51269   7.612  17.214   3.512 -0.2928  0.1719 -0.2763
 8279W        W51270  23.235  25.424   4.282  0.1369  0.1235  0.1305
 8280W        W51271  17.259  32.392   6.144  0.1546  0.0599 -0.1010
 8281W        W51272  13.481  12.408   2.503 -0.0394  0.0558  0.3663
 8282W        W51273  10.539  19.003   7.672  0.2978  0.1320 -0.0060
 8283W        W51274   9.648  13.137   7.735  0.2045 -0.4018  0.0220
 8284W        W51275   6.537   9.533   3.591 -0.1874  0.1052  0.0082
 8285W        W51276  19.946  31.786  27.985  0.3943  0.0332 -0.4387
 8286W        W51277  28.934  32.949   8.892  0.0890  0.1221  0.0868
 8287W        W51278  33.896  10.776   0.580 -0.2023 -0.0157 -0.0807
 8288W        W51279   9.257  33.745   7.175  0.0949  0.3634  0.0795
 8289W        W51280  20.866  28.825   4.782 -0.1741  0.2096 -0.1360
 8290W        W51281  10.247  10.308  10.379 -0.0697  0.0591 -0.1827
 8291W        W51282  20.756   0.218   1.607 -0.0852  0.1127 -0.0709
 8292W        W51283  34.534   4.710  26.272  0.1223  0.0801  0.0420
 8293W        W51284  12.294  22.490  28.081  0.6109 -0.4001 -0.0473
 8294W        W51285  29.008  26.581  26.506  0.1590 -0.0144 -0.1929
 8295W        W51286  17.918   2.374  29.142  0.0022  0.3583  0.0431
 8296W        W51287  19.162  25.952   7.109 -0.2936 -0.0555  0.3261
 8297W        W51288  23.934  26.093  21.349  0.3069  0.2371  0.1063
 8298W        W51289   3.925  11.194   7.239 -0.1545 -0.1156  0.2667
 8299W        W51290  13.556  27.962   5.068  0.1868 -0.0233  0.3299
 8300W        W51291  32.927  33.332  28.779  0.2107  0.5175 -0.2591
 8301W        W51292  14.318  10.231   4.704  0.0213  0.0805 -0.1451
 8302W        W51293  18.712  32.170  24.270  0.0147 -0.0063  0.0896
 8303W        W51294  17.814  12.228  28.453 -0.1283  0.1222  0.1520
 8304W        W51295  25.537  27.272   4.720 -0.0928  0.3932  0.1426
 8305W        W51296  24.279  28.821   2.563  0.0562 -0.0068  0.0410
 8306W        W51297  12.208   7.857  22.277 -0.0929  0.0851  0.0468
 8307W        W51298  18.380  31.168  26.822 -0.0376 -0.0420  0.0343
 8308W        W51299  25.857   7.841   3.521  0.0595  0.0870  0.0851
 8309W        W51300   6.563  27.230  25.518  0.2240 -0.0259  0.0084
 8310W        W51301   9.358   1.094   5.242  0.3590  0.0079  0.4933
 8311W        W51302   8.180  30.842   7.056  0.4678 -0.1827  0.0856
 8312W        W51303  15.690  20.039  27.344  0.0012  0.1411  0.3194
 8313W        W51304  29.591  19.962   5.236  0.1594 -0.1156 -0.3387
 8314W        W51305  25.944  31.739   6.934 -0.0382  0.1332  0.4100
 8315W        W51306   4.592   7.731  25.555 -0.1165  0.1174  0.0990
 8316W        W51307  23.556   5.234   8.324  0.3198  0.1777 -0.2854
 8317W        W51308   1.697   9.061   1.473  0.1942  0.0297  0.1030
 8318W        W51309  31.253   7.533  23.600  0.3053 -0.0436 -0.2471
 8319W        W51310   5.579   4.157  28.948 -0.3898 -0.1278  0.1280
 8320W        W51311  20.529   7.849  21.899 -0.0777 -0.1675  0.3948
 8321W        W51312  26.099  29.351  27.604 -0.2929 -0.1773 -0.4957
 8322W        W51313  32.344   2.582   2.348 -0.0077  0.0102  0.1942
 8323W        W51314  29.759  15.738   7.105 -0.0479 -0.2608  0.0667
 8324W        W51315  29.951  19.144   6.148 -0.1441 -0.1664  0.1700
 8325W        W51316   8.675  27.165   8.733 -0.0007 -0.3798  0.0263
 8326W        W51317  25.776  26.974   6.640  0.3337  0.0966  0.0518
 8327W        W51318  23.707   0.134   6.926  0.2525 -0.1637 -0.1999
 8328W        W51319  16.522  13.458   6.512  0.2306 -0.0871 -0.2038
 8329W        W51320  32.076   5.195  22.879  0.1503 -0.2601  0.1617
 8330W        W51321  18.537  31.118  10.007 -0.2048 -0.1326  0.0996
 8331W        W51322   9.678  29.870  19.043 -0.0004 -0.2464  0.0852
 8332W        W51323   5.665   9.105  24.009 -0.3906  0.0230 -0.0968
 8333W        W51324  20.374  31.525  27.661  0.1339  0.0333 -0.0432
 8334W        W51325  14.769   9.124   3.466 -0.0616  0.0463  0.0828
 8335W        W51326  12.821  31.087   6.566  0.1754 -0.3094  0.1443
 8336W        W51327  20.693  13.585   0.098 -0.1679  0.1024  0.0076
 8337W        W51328  14.159  10.048  21.660  0.3673 -0.0991  0.3301
 8338W        W51329   4.255   1.730  26.101  0.0778 -0.1542 -0.0916
 8339W        W51330  11.230   7.925   7.959  0.3455  0.2140  0.0391
 8340W        W51331  23.658  32.121  25.274 -0.1247 -0.0435 -0.2722
 8341W        W51332  19.689   1.262   4.312  0.1261 -0.1974 -0.1693
 8342W        W51333  32.448   7.325   0.454  0.2424 -0.0198 -0.0351
 8343W        W51334   7.968  34.125   7.932 -0.0960  0.1117 -0.0190
 8344W        W51335  10.410   5.962   4.687  0.0226  0.1099  0.0210
 8345W        W51336  15.813  24.495   2.710 -0.0991 -0.0143 -0.2404
 8346W        W51337  22.686  32.847   2.638 -0.1996  0.1219  0.0057
 8347W        W51338  27.590  28.702   8.493 -0.0134  0.1558 -0.1955
 8348W        W51339  31.664   0.355  28.300 -0.2574  0.0412 -0.0517
 8349W        W51340  24.319  31.007   6.471 -0.0642 -0.0910  0.0397
 8350W        W51341  12.750  32.522   5.744 -0.1171 -0.2046 -0.2838
 8351W        W51342   0.095   1.968  21.327 -0.2160 -0.0071 -0.0843
 8352W        W51343  22.198  26.813   1.174  0.0112 -0.3143  0.0099
 8353W        W51344   8.972  25.518  11.021 -0.2185  0.0851  0.1884
 8354W        W51345   3.161  27.770  27.304 -0.1796 -0.4071  0.0526
 8355W        W51346  17.543  22.828  28.937 -0.3387  0.0284  0.0077
 8356W        W51347  15.379  31.794  28.308  0.1678  0.0576 -0.2867
 8357W        W51348  26.359  29.548   7.819  0.1793  0.2622  0.2619
 8358W        W51349   2.047  29.179   1.282  0.1868 -0.1513  0.3032
 8359W        W51350  23.017   1.649   2.790 -0.0096 -0.3259 -0.0747
 8360W        W51351  15.406   3.809   2.148  0.1361 -0.2992 -0.1579
 8361W        W51352  13.086  21.789  23.206  0.4195 -0.0281  0.2732
 8362W        W51353  11.188   8.034   1.632  0.0280  0.0552 -0.3920
 8363W        W51354  30.932  22.738   7.131  0.1111  0.2511 -0.3625
 8364W        W51355  17.604  11.576   3.492 -0.0015 -0.0093 -0.1307
 8365W        W51356  25.265  34.055   6.234  0.2361 -0.4274 -0.1097
 8366W        W51357  20.141  17.162   0.155 -0.0830 -0.1371  0.3266
 8367W        W51358  24.034  18.281   8.077  0.1273  0.2812  0.2808
 8368W        W51359  14.544  12.914   7.407 -0.2568  0.0779 -0.0460
 8369W        W51360  21.789  10.674   5.095 -0.1594 -0.2969  0.3528
 8370W        W51361   4.948  32.949  19.206 -0.2756 -0.0228 -0.0328
 8371W        W51362  15.707   7.480   1.214 -0.0684 -0.0627  0.1509
 8372W        W51363  23.427  21.863  13.468 -0.3779  0.0180  0.3532
 8373W        W51364  15.125  25.598  25.769  0.1515 -0.0215 -0.2792
 8374W        W51365   8.155  27.120   6.649  0.1527 -0.0415  0.3310
 8375W        W51366   6.775  26.347   4.722  0.1182 -0.4184 -0.1997
 8376W        W51367  12.346  21.038  24.282 -0.4012  0.1077  0.1861
 8377W        W51368  24.276  24.860   5.241  0.0088  0.2528 -0.1738
 8378W        W51369  27.106   5.091   8.271  0.0792 -0.0208  0.3227
 8379W        W51370  20.622  22.029  17.959 -0.0896  0.0510 -0.1204
 8380W        W51371  23.662  29.179  19.204  0.2668  0.0468 -0.2709
 8381W        W51372  30.920  31.291   0.389  0.0811  0.2894  0.0040
 8382W        W51373  21.087  32.389   7.266  0.0665 -0.1007 -0.1668
 8383W        W51374  15.708  27.295   3.044 -0.0574 -0.0822  0.0189
 8384W        W51375  14.727  28.970   6.457  0.1125  0.2990 -0.0927
 8385W        W51376   6.337  15.248  24.549 -0.3212  0.1905  0.4075
 8386W        W51377  32.966  22.267   5.625  0.4332  0.0672  0.1420
 8387W        W51378  20.832  30.842  27.401  0.0287  0.0853  0.3618
 8388W        W51379   3.861  31.039   1.705  0.0723 -0.0633 -0.0182
 8389W        W51380  15.431  28.532   6.294 -0.0817  0.2384 -0.0537
 8390W        W51381  19.353  15.478   5.980  0.4766 -0.2837 -0.0789
 8391W        W51382  14.206   8.107   8.349  0.1859  0.1419  0.0155
 8392W        W51383   7.604   6.874   5.140  0.0027  0.0843 -0.1145
 8393W        W51384  29.253   6.936   7.134  0.3405  0.0290 -0.2298
 8394W        W51385  18.154  27.453   4.285  0.3420 -0.0900  0.2489
 8395W        W51386  10.548   0.862   8.636  0.4497 -0.2147  0.2531
 8396W        W51387  32.716  20.564   7.861  0.0344 -0.1552 -0.0065
 8397W        W51388  24.924  31.183   8.931  0.1302 -0.3256  0.4757
 8398W        W51389  22.742   7.120  24.543  0.0071 -0.2608 -0.2103
 8399W        W51390  31.592   1.829   5.460 -0.0683  0.1191 -0.2428
 8400W        W51391   7.494  27.163  19.907 -0.1375  0.1015  0.2000
 8401W        W51392  21.847   8.690   9.213  0.1611 -0.2838 -0.0014
 8402W        W51393   6.408  12.420  19.858 -0.2233 -0.1787  0.1145
 8403W        W51394  14.677   1.472  10.474 -0.3045 -0.0587  0.0139
 8404W        W51395  33.340   2.513   8.589 -0.1328  0.2541 -0.0611
 8405W        W51396  15.175  12.228   3.615  0.1740 -0.1106  0.3478
 8406W        W51397  26.518  20.874  28.456 -0.0495 -0.0717  0.2520
 8407W        W51398   8.218  34.403  18.578 -0.1017 -0.2596 -0.0080
 8408W        W51399   8.198  25.391   6.619 -0.0074  0.1988  0.2765
 8409W        W51400  17.294  26.104   8.610  0.2572 -0.2536  0.0541
 8410W        W51401  21.522   1.447   5.891  0.0709  0.3514  0.0638
 8411W        W51402   5.328  32.209  26.809 -0.3179  0.1774 -0.1863
 8412W        W51403  16.206  15.478   9.615 -0.2313  0.0371  0.0172
 8413W        W51404   7.815  32.048   6.526  0.3473  0.0825  0.0864
 8414W        W51405  25.974  30.910   1.164  0.1276  0.1988 -0.2231
 8415W        W51406  16.692  28.454   1.051 -0.1816 -0.1989 -0.0295
 8416W        W51407  31.932  29.535   1.267  0.0944 -0.4398 -0.1903
 8417W        W51408  18.236   3.951   3.596 -0.0903 -0.1520 -0.1807
 8418W        W51409  21.247  32.446   3.008 -0.1766  0.0550  0.2010
 8419W        W51410  25.889  32.638   7.446  0.0735  0.4329 -0.0489
 8420W        W51411  18.859  31.005   7.738  0.0357 -0.1114  0.2661
 8421W        W51412  21.330  31.095   5.040 -0.0568 -0.0871  0.2275
 8422W        W51413  24.425   5.162   7.869  0.5476 -0.2300  0.0383
 8423W        W51414  24.709  27.611   3.045  0.2348 -0.0163  0.0946
 8424W        W51415   6.909   6.343   7.285  0.1476  0.3099 -0.4783
 8425W        W51416   4.966  25.495   0.068  0.0473  0.4674  0.1222
 8426W        W51417   0.473  32.272   3.399 -0.2523  0.1237  0.0349
 8427W        W51418  11.097  31.785   9.925  0.0612 -0.1326 -0.0105
 8428W        W51419  17.034  17.435   1.171  0.1350  0.2241 -0.0362
 8429W        W51420  17.998   2.788   6.402  0.0352 -0.5361  0.3174
 8430W        W51421  18.054   8.070  20.044  0.0382 -0.3016 -0.0679
 8431W        W51422  15.148   9.754  20.938  0.1719  0.0853 -0.1048
 8432W        W51423  10.237  28.715  10.872 -0.0478 -0.0942 -0.1214
 8433W        W51424  23.833   3.016   2.053  0.1934  0.1855  0.3186
 8434W        W51425  29.616  26.534  28.626  0.0287 -0.0257  0.2196
 8435W        W51426   7.509   1.729   2.546 -0.1465  0.0895  0.0959
 8436W        W51427   5.053  23.567   3.803  0.1408 -0.0767  0.0088
 8437W        W51428  31.860  29.248  19.361  0.0665 -0.3185 -0.2177
 8438W        W51429  12.661  29.698   3.082  0.1147 -0.0542 -0.0889
 8439W        W51430  19.575  32.030  25.536 -0.2009 -0.0649  0.1038
 8440W        W51431  13.626  27.758   6.501 -0.1046 -0.0601 -0.0436
 8441W        W51432  21.926  31.751   5.176 -0.0931  0.0192 -0.1256
 8442W        W51433  21.852   9.513   3.007 -0.2428  0.0612 -0.0423
 8443W        W51434  13.014  28.487  14.545 -0.3211  0.1386 -0.0109
 8444W        W51435  17.827  29.967   4.197  0.0910  0.1716  0.1071
 8445W        W51436  15.055   2.030   5.031 -0.1303  0.0517 -0.0368
 8446W        W51437  13.879   4.357   2.084  0.2028  0.1303  0.2088
 8447W        W51438  17.975   8.302   8.360  0.2628  0.0455  0.0511
 8448W        W51439   7.016  16.547   0.597  0.0577 -0.2078 -0.0493
 8449W        W51440  26.342  27.559   5.124  0.1296  0.0512  0.1718
 8450W        W51441  16.976  21.379  25.990 -0.1605  0.0963 -0.0432
 8451W        W51442  12.643  27.039   8.966 -0.3046  0.0458 -0.1035
 8452W        W51443  28.457  10.937   1.229  0.1286  0.3916  0.2121
 8453W        W51444  24.597  25.211   5.038  0.0118  0.4189 -0.2135
 8454W        W51445   4.792  27.933   8.730 -0.0061 -0.2485 -0.0532
 8455W        W51446  14.493  30.531   9.492 -0.1899 -0.3321 -0.1509
 8456W        W51447  13.200   8.119  23.938  0.0148  0.3052  0.0986
 8457W        W51448  12.520  26.127  19.410  0.0308 -0.2115 -0.0495
 8458W        W51449   9.247  23.469   0.075 -0.1201  0.1626 -0.3213
 8459W        W51450  23.947   7.426  19.628 -0.0795 -0.0865  0.6461
 8460W        W51451  22.202   1.268   6.015  0.0832  0.0465  0.0358
 8461W        W51452  24.829  27.781   1.057 -0.3409  0.0630 -0.0627
 8462W        W51453  29.046  11.129   7.836 -0.0533  0.1169 -0.1031
 8463W        W51454  23.669  25.959   0.986 -0.0383  0.0210 -0.3257
 8464W        W51455  17.632   0.223   8.513  0.1339 -0.1110 -0.1830
 8465W        W51456  16.041  28.805   6.959 -0.0624  0.0624  0.0701
 8466W        W51457  16.158  31.620  28.572 -0.1270 -0.0239  0.1273
 8467W        W51458  20.127   6.403   4.565 -0.0860  0.0297 -0.0108
 8468W        W51459  30.504  32.598   8.198  0.0037 -0.0788 -0.0335
 8469W        W51460  23.148  29.902   3.878 -0.0490 -0.1922  0.0870
 8470W        W51461   8.345  15.949   7.949  0.0616 -0.1888 -0.1194
 8471W        W51462  18.710  34.730   2.730  0.0165  0.3511 -0.2535
 8472W        W51463  25.782   0.916  29.166  0.1888  0.1279  0.0040
 8473W        W51464  31.970  12.697   1.561 -0.0604  0.1491  0.1785
 8474W        W51465  16.861  26.379   2.046  0.1331  0.1586  0.0569
 8475W        W51466  30.029   6.840  15.672  0.0672 -0.1819  0.1003
 8476W        W51467  33.861   4.925   9.366 -0.1084 -0.3144  0.1160
 8477W        W51468  12.041  27.798  26.379  0.2163  0.0760  0.0888
 8478W        W51469  27.696  24.129   7.027  0.3288  0.1595  0.2408
 8479W        W51470  10.995  30.065   5.511  0.2554 -0.2546 -0.1732
 8480W        W51471  19.712  31.314   1.011  0.1336  0.1202 -0.1018
 8481W        W51472   4.784  12.111  27.871  0.2273 -0.0469  0.1810
 8482W        W51473  26.771  11.956   0.821  0.0629  0.1947  0.1401
 8483W        W51474  13.759   4.553   6.933 -0.1615  0.3468  0.0669
 8484W        W51475  25.388  26.997  28.361  0.1295 -0.3361  0.0340
 8485W        W51476  30.242  18.264   0.313 -0.0216  0.1864  0.1979
 8486W        W51477  20.944  14.144   2.539  0.2436  0.2194  0.0171
 8487W        W51478  15.811   8.982  29.144  0.1221  0.0420  0.0921
 8488W        W51479  32.288  24.385   1.729 -0.0689  0.1795  0.1854
 8489W        W51480  25.573  23.232   5.901 -0.0435 -0.0298 -0.4972
 8490W        W51481  13.637  25.488  18.256  0.0589  0.0257  0.1700
 8491W        W51482  17.021  12.656  25.499  0.0775 -0.2330  0.3787
 8492W        W51483  14.068   9.641  24.977 -0.0765 -0.1535  0.0787
 8493W        W51484  19.022  13.360   7.607  0.1542 -0.4397 -0.2586
 8494W        W51485   8.701  32.727   2.240  0.1311  0.0573 -0.0143
 8495W        W51486   3.770   0.977   2.934  0.0105  0.1046  0.0993
 8496W        W51487  27.604  31.343  27.995  0.1320  0.0664 -0.0716
 8497W        W51488  21.608   6.780   3.349 -0.0595 -0.1785  0.3242
 8498W        W51489  17.280   7.217   6.693 -0.0106  0.2742  0.1579
 8499W        W51490  27.282   1.486  16.770 -0.1543 -0.4739 -0.0131
 8500W        W51491   4.985   5.070   7.049  0.2008  0.1525 -0.2550
 8501W        W51492  15.985  27.308  27.677 -0.2963 -0.1388  0.4060
 8502W        W51493   3.153   2.798   2.612 -0.3593  0.4412  0.0845
 8503W        W51494   0.349  24.691   7.081 -0.1830  0.0114  0.0787
 8504W        W51495  16.318  15.543  22.621 -0.1407  0.0903  0.2103
 8505W        W51496  22.206  11.956  25.441 -0.4092 -0.0415 -0.2974
 8506W        W51497   8.360   4.624   5.721 -0.2588 -0.0896  0.0643
 8507W        W51498  19.151  32.969   6.713  0.1418  0.1066 -0.2553
 8508W        W51499  16.827  27.557   2.919 -0.1296 -0.1901 -0.1349
 8509W        W51500  19.054   9.540  23.889 -0.2054 -0.1719 -0.0435
 8510W        W51501  12.746   0.426  21.024 -0.2475  0.1072 -0.3416
 8511W        W51502  28.022   1.293  24.926  0.1085  0.0352  0.0766
 8512W        W51503   2.140  11.893  11.759 -0.1426  0.0734  0.2282
 8513W        W51504  12.821  34.116  27.397  0.0911 -0.0613 -0.3136
 8514W        W51505  20.895  34.517   1.619 -0.2246 -0.2645  0.3145
 8515W        W51506  24.135   7.949   4.958 -0.3639 -0.1460  0.2133
 8516W        W51507   7.754   9.187  10.923 -0.2500 -0.0528 -0.0926
 8517W        W51508  16.622  14.133  14.070  0.1099 -0.0754  0.2536
 8518W        W51509  17.270   1.639   9.715 -0.4064 -0.0558 -0.0497
 8519W        W51510  17.567  11.214   4.386  0.2766 -0.5419 -0.4276
 8520W        W51511  15.564   8.502   2.226  0.1290  0.1049  0.1854
 8521W        W51512  29.703  15.719   2.011 -0.0257  0.1764 -0.1131
 8522W        W51513   9.489  29.039   6.316  0.2542 -0.0608 -0.2888
 8523W        W51514  34.364  23.939   2.669  0.0345 -0.4798  0.1270
 8524W        W51515  21.679  22.277   5.229  0.3142 -0.1227 -0.1985
 8525W        W51516   9.099   9.243   6.030  0.3140 -0.0270  0.2565
 8526W        W51517  20.501  10.242   1.060 -0.1111 -0.1982 -0.1467
 8527W        W51518  29.341  26.829  21.525 -0.2869 -0.2144 -0.0167
 8528W        W51519  25.701   2.600   7.224  0.0201  0.1321  0.2522
 8529W        W51520  11.305  34.692  24.230 -0.1033 -0.1669  0.1505
 8530W        W51521  17.823  23.489  26.235 -0.2348 -0.1760 -0.1462
 8531W        W51522  16.076   7.040  14.946 -0.0210  0.3610  0.1910
 8532W        W51523   5.355   9.790  17.151 -0.0410 -0.2367  0.0913
 8533W        W51524  14.916  28.318  23.768 -0.0546 -0.2564  0.2724
 8534W        W51525  30.560   8.504  19.194  0.0031  0.1535 -0.3892
 8535W        W51526  26.270   6.510   5.133 -0.4365 -0.2481 -0.2207
 8536W        W51527  23.843  25.928   3.729  0.2136 -0.0282 -0.1089
 8537W        W51528  21.203  29.173   4.801  0.4043  0.1695 -0.0222
 8538W        W51529  25.174   5.201  27.807 -0.1209 -0.1165 -0.1439
 8539W        W51530  18.178  31.212  19.555 -0.0819 -0.1058  0.1713
 8540W        W51531  26.547   3.652   6.092  0.1445  0.2222  0.0148
 8541W        W51532  15.844   2.486  23.408 -0.0008 -0.2034 -0.0129
 8542W        W51533   2.004  14.750  27.242 -0.0423  0.2558 -0.1976
 8543W        W51534  18.045   9.189   8.942  0.0184 -0.3904 -0.4641
 8544W        W51535  26.850  22.503   2.152 -0.0498 -0.1455  0.0489
 8545W        W51536   4.132   7.042  11.504 -0.1827  0.1141  0.1073
 8546W        W51537  18.098  12.666   0.655 -0.3130 -0.0452  0.2945
 8547W        W51538  17.563  12.472  26.751  0.0234 -0.3816  0.0222
 8548W        W51539  10.228  10.510  10.834  0.0673 -0.1773  0.3915
 8549W        W51540   4.132  23.269   5.175  0.0057 -0.1550  0.2183
 8550W        W51541  27.266   6.756  20.584  0.1989  0.1327  0.2237
 8551W        W51542   4.188  23.183  27.691 -0.2003  0.1610 -0.0689
 8552W        W51543  20.520  32.736  27.828  0.1735 -0.0146 -0.1960
 8553W        W51544   6.052  25.016  26.389  0.2377 -0.0835 -0.5318
 8554W        W51545  16.946  28.499  22.171  0.1047  0.2346  0.1960
 8555W        W51546  13.911  26.025  16.373 -0.1462 -0.0058  0.1405
 8556W        W51547   7.531   6.014  10.395  0.1084  0.0063 -0.0797
 8557W        W51548   7.118  26.902  22.813  0.5402  0.1226 -0.2195
 8558W        W51549  13.809  25.516  23.042 -0.1283 -0.2512  0.1179
 8559W        W51550  15.120   8.055   3.441 -0.1609 -0.0047  0.2174
 8560W        W51551  27.045   6.018   3.293 -0.2328  0.0270  0.1214
 8561W        W51552  17.030   0.388  24.133 -0.1251  0.1153 -0.3328
 8562W        W51553  17.089  34.161   4.907  0.0650 -0.2600  0.0051
 8563W        W51554  31.668  24.846  16.974  0.2349 -0.2757 -0.2134
 8564W        W51555   3.660  13.454   6.579  0.2401  0.0315  0.1423
 8565W        W51556   7.773  14.086  24.096 -0.1854 -0.3397 -0.0101
 8566W        W51557  25.748  19.206  28.757  0.1335  0.0113 -0.4506
 8567W        W51558  25.162   9.569   6.867 -0.0146  0.0286 -0.0916
 8568W        W51559  26.735   1.839  18.216 -0.4532  0.1035  0.0807
 8569W        W51560  23.834  16.925   8.289  0.0222  0.0032 -0.4321
 8570W        W51561  17.618  32.764  22.558  0.1249  0.0296 -0.1382
 8571W        W51562  10.674  26.041   0.109 -0.0091 -0.1172  0.0935
 8572W        W51563  29.804  29.891  27.698  0.1803  0.1761 -0.0044
 8573W        W51564  34.621  33.500  21.527 -0.0363  0.2249 -0.1166
 8574W        W51565  30.259  31.398   3.026  0.2628 -0.0139  0.0728
 8575W        W51566  25.604  14.733   9.499 -0.0263 -0.0351  0.2625
 8576W        W51567  14.592  27.498   9.726 -0.0543 -0.0295  0.2132
 8577W        W51568  14.838  11.033   3.506 -0.3619 -0.0892 -0.0815
 8578W        W51569   8.720  15.690   9.420  0.2689  0.0303  0.0428
 8579W        W51570  22.971  15.617  17.820 -0.0108 -0.0325  0.1475
 8580W        W51571  16.553  29.105   4.007  0.0117 -0.0531  0.1669
 8581W        W51572  14.416  27.433   7.913 -0.0267 -0.1356  0.2398
 8582W        W51573  23.942  31.582   5.786 -0.0193  0.0314 -0.2041
 8583W        W51574  33.197   8.668   8.952  0.1885 -0.1543  0.0803
 8584W        W51575  30.124  17.192   3.296 -0.4329  0.1504  0.2515
 8585W        W51576  25.642  21.428   7.236  0.2378 -0.2434 -0.4417
 8586W        W51577  17.226   1.695  26.748 -0.1236  0.1545 -0.1246
 8587W        W51578  25.461   6.830  26.145 -0.0337  0.2244 -0.0152
 8588W        W51579   7.372  22.263  27.186  0.0527 -0.2423 -0.1609
 8589W        W51580  21.101  24.020   5.519  0.1492  0.1909 -0.0429
 8590W        W51581  17.829  28.806   5.326  0.0033 -0.3947  0.0512
 8591W        W51582  10.153  33.793   5.815 -0.1323  0.2692  0.1104
 8592W        W51583  14.705   3.794  15.897 -0.1490 -0.0206  0.1530
 8593W        W51584  21.442  29.169  23.343  0.0893  0.0912 -0.0205
 8594W        W51585  17.209  31.792  13.980 -0.2780  0.1263  0.0153
 8595W        W51586  11.022   0.817  17.413 -0.0144  0.0401 -0.0350
 8596W        W51587  25.232  33.874   9.390 -0.1224 -0.2536  0.0325
 8597W        W51588  16.815   2.685  19.531  0.1301  0.3113  0.0181
 8598W        W51589   6.453   9.939  29.252 -0.1570  0.1503  0.0652
 8599W        W51590  13.020  14.820   1.294 -0.0845  0.3028  0.2050
 8600W        W51591  26.524  31.834  24.764  0.2057 -0.3563 -0.0300
 8601W        W51592  15.326  30.277   7.923  0.1720 -0.1272  0.0281
 8602W        W51593  24.584  29.390  20.929  0.0624  0.2496 -0.2281
 8603W        W51594  14.299   2.118   5.170 -0.1965 -0.1423  0.1512
 8604W        W51595  18.487  26.562  21.770  0.0047  0.0920 -0.2074
 8605W        W51596  18.399   9.095   6.940  0.1378  0.3026 -0.1491
 8606W        W51597  25.388  29.522  21.093  0.1637  0.3087 -0.0777
 8607W        W51598  13.176   7.306  29.088 -0.1898 -0.0219  0.1467
 8608W        W51599  24.430  31.865   2.544  0.0850  0.1052  0.1389
 8609W        W51600  24.001   4.877   6.316  0.2580 -0.0805  0.4118
 8610W        W51601  15.712  33.050   7.727  0.2249 -0.0822 -0.2015
 8611W        W51602  31.091  29.636   4.838  0.2889 -0.1159 -0.1960
 8612W        W51603  28.312   0.722   2.740 -0.0448 -0.2227 -0.0362
 8613W        W51604  18.911  23.299  26.221 -0.1005 -0.1254 -0.4040
 8614W        W51605  13.103   5.031   8.625  0.4012  0.3347  0.0131
 8615W        W51606  19.006   5.857  16.642  0.1769  0.0426 -0.0319
 8616W        W51607  23.489  34.544   1.421 -0.2201 -0.0768 -0.0626
 8617W        W51608   9.973  25.863   4.186 -0.2533 -0.0580 -0.6429
 8618W        W51609  13.445   1.310  24.931  0.0678 -0.1274 -0.2421
 8619W        W51610  31.110  33.590   2.258 -0.2023 -0.0914  0.0319
 8620W        W51611  21.922  15.005   6.407 -0.2571  0.4464 -0.1199
 8621W        W51612  27.246  29.034  23.434 -0.0589  0.1246  0.1559
 8622W        W51613  19.672  23.159  26.825 -0.0769  0.1281 -0.0735
 8623W        W51614  29.797   9.028  19.128 -0.1443  0.0769 -0.2007
 8624W        W51615  10.478  32.222   8.018  0.0203 -0.0347  0.3263
 8625W        W51616   6.932  13.949   7.702 -0.0652  0.2787 -0.4915
 8626W        W51617  15.443   0.438   6.577  0.0990 -0.0252 -0.1209
 8627W        W51618  19.355  22.835  18.428 -0.3113  0.3373 -0.2386
 8628W        W51619  22.171  16.336  29.148  0.5023  0.1704 -0.0466
 8629W        W51620  25.936  33.454  26.287 -0.1266  0.1932  0.2680
 8630W        W51621  24.543   7.905  28.832 -0.3210 -0.0453 -0.3936
 8631W        W51622  13.355  14.189  23.900  0.1583  0.3341 -0.0417
 8632W        W51623  31.590  30.454  24.089  0.1063 -0.2771 -0.0791
 8633W        W51624   0.801  23.084  10.262  0.1164  0.2133  0.2331
 8634W        W51625  34.026  26.615   2.736 -0.2189 -0.0880  0.0041
 8635W        W51626  29.746  25.857  17.975  0.1566 -0.1756  0.0301
 8636W        W51627   0.516  22.582  21.056  0.3409 -0.0295 -0.0033
 8637W        W51628  29.109  31.559   5.621 -0.2027 -0.1010 -0.0135
 8638W        W51629  20.057   0.657   6.241  0.2798 -0.0214  0.1771
 8639W        W51630  15.367  28.502  25.116  0.2258 -0.1853 -0.2371
 8640W        W51631   7.220  22.057  24.427  0.0852  0.1233 -0.0707
 8641W        W51632  16.372  11.633  29.189  0.0322 -0.1558  0.4534
 8642W        W51633  27.813  28.832   4.790 -0.2057 -0.0159 -0.1399
 8643W        W51634   9.865  12.104  20.361  0.0217 -0.1171 -0.0113
 8644W        W51635  14.388   7.589  28.595  0.0799 -0.5012  0.2703
 8645W        W51636  31.199  30.674  18.349  0.0712 -0.0940 -0.3663
 8646W        W51637  12.277  33.369   7.929 -0.0954  0.0765 -0.2789
 8647W        W51638  24.071  19.665  26.664 -0.2664  0.1706 -0.1612
 8648W        W51639  16.077  26.140   4.317 -0.0514 -0.2239 -0.0978
 8649W        W51640  26.316  18.368  19.563  0.0120  0.2701 -0.0770
 8650W        W51641   0.236  27.207  23.362 -0.1036  0.3209  0.1802
 8651W        W51642  14.526   1.052   6.356  0.2048  0.2063 -0.3869
 8652W        W51643  25.868  19.067  27.169  0.2313 -0.0963 -0.1730
 8653W        W51644   5.389  17.817   2.459  0.2971 -0.2044 -0.0784
 8654W        W51645  12.437  21.666   1.264 -0.0065  0.1265 -0.2302
 8655W        W51646  29.950   6.010   5.126 -0.0334  0.2983 -0.1370
 8656W        W51647   9.166  16.529   6.893 -0.3463 -0.0044 -0.2117
 8657W        W51648  18.071  31.941  15.444 -0.1838 -0.0906  0.0687
 8658W        W51649  32.246  13.284   3.503  0.2640  0.1832 -0.2833
 8659W        W51650  20.215  21.204   2.422 -0.2548  0.0879  0.0592
 8660W        W51651  12.419  22.447  16.783 -0.2244  0.0266 -0.0228
 8661W        W51652  26.993  29.023   7.290 -0.1488 -0.1780 -0.1538
 8662W        W51653   0.996  28.047  26.689 -0.2775 -0.1384  0.1896
 8663W        W51654   6.458  23.842  19.531 -0.3771 -0.0928 -0.2607
 8664W        W51655  16.338  12.636   0.712 -0.0940 -0.1271 -0.6784
 8665W        W51656  22.414  29.519   5.041 -0.5229 -0.2097 -0.3364
 8666W        W51657  16.807   4.526   4.741 -0.1623 -0.1416  0.5783
 8667W        W51658  14.331  27.238   6.156  0.3220 -0.0974 -0.0537
 8668W        W51659  23.235  21.947  24.895 -0.1331 -0.1019  0.1910
 8669W        W51660   7.123  32.792  15.406 -0.0419 -0.2550  0.0463
 8670W        W51661  25.024  17.301  22.843  0.2294 -0.0359  0.2306
 8671W        W51662  10.710   7.964   6.821 -0.2839  0.1668 -0.0291
 8672W        W51663  27.560   3.660   2.607 -0.0192  0.1063  0.1865
 8673W        W51664  13.083  32.945   3.226 -0.0334 -0.0788  0.0310
 8674W        W51665  16.555  25.481   3.266 -0.0259 -0.0249 -0.0579
 8675W        W51666  34.349   9.286   6.540 -0.0393 -0.2232  0.0487
 8676W        W51667  13.005   9.006  10.130  0.2110  0.1021 -0.2738
 8677W        W51668   0.149  31.156  27.481  0.0972 -0.1127  0.0903
 8678W        W51669  31.836  11.132  21.364  0.3788  0.0373 -0.1809
 8679W        W51670  19.349  33.345   5.036  0.0642  0.0622 -0.1578
 8680W        W51671  16.351   3.403  17.572  0.3009  0.1510  0.0802
 8681W        W51672  19.429  33.529   4.618  0.0686  0.3523 -0.2782
 8682W        W51673  27.425  27.721   2.481  0.1112  0.0961  0.0500
 8683W        W51674  22.253  32.232   1.156  0.2875  0.0247  0.2233
 8684W        W51675  12.090  27.700   0.084  0.0254 -0.1693 -0.0294
 8685W        W51676  14.896  30.124   8.262  0.0003  0.2200  0.0494
 8686W        W51677  14.791   0.108   6.174 -0.1705 -0.1976 -0.0259
 8687W        W51678   2.461  12.611  10.522 -0.3341 -0.0780 -0.1491
 8688W        W51679  15.186  30.562  27.219  0.0830 -0.0421  0.1549
 8689W        W51680  10.835  18.997   1.799 -0.1196 -0.0569 -0.0027
 8690W        W51681  29.226  18.008   5.392  0.3928  0.3419  0.0975
 8691W        W51682  13.167  33.657   1.236 -0.2427 -0.0685 -0.3914
 8692W        W51683  18.540  34.795   6.372  0.2208  0.3728 -0.1302
 8693W        W51684  16.095  19.205  15.365  0.2900 -0.0180  0.2999
 8694W        W51685  29.751  31.986  29.043  0.0128 -0.1522  0.4016
 8695W        W51686  13.417  21.601  25.556  0.0484  0.1675 -0.5320
 8696W        W51687   3.201   5.104  24.921  0.0045  0.3047 -0.0044
 8697W        W51688  32.467  32.676   0.814  0.2656  0.0769  0.0341
 8698W        W51689   0.071  32.782  26.204  0.0604 -0.0047  0.0385
 8699W        W51690  18.190   7.219   6.146  0.1309 -0.1329  0.4533
 8700W        W51691  19.130   9.825  17.928  0.0572  0.1082  0.0096
 8701W        W51692  20.767   8.218  17.589  0.2379 -0.3829  0.3576
 8702W        W51693  24.041  26.122   7.587 -0.3682 -0.0117 -0.2199
 8703W        W51694  28.818  10.809  24.671 -0.2785 -0.2555 -0.1820
 8704W        W51695  32.656   9.442   2.096  0.0992  0.2685 -0.0239
 8705W        W51696   0.302  27.302  26.413  0.3554  0.1880 -0.1975
 8706W        W51697  21.716   2.470  16.417 -0.1481 -0.2343 -0.0313
 8707W        W51698  19.239   0.526   7.765  0.2660  0.0315  0.3295
 8708W        W51699  14.010   3.254   9.464  0.2359  0.1832 -0.1126
 8709W        W51700  20.815  33.257   2.702 -0.1383 -0.1348 -0.0219
 8710W        W51701  13.872  29.470   5.714 -0.3306 -0.4877 -0.4818
 8711W        W51702  16.881   9.332  17.650  0.0514  0.3051  0.1521
 8712W        W51703  15.379  14.476  21.402  0.1551 -0.1349 -0.2578
 8713W        W51704  32.291   0.010   1.691  0.1805  0.2544  0.1000
 8714W        W51705  22.115  32.681  26.550 -0.4147 -0.1042 -0.0191
 8715W        W51706  28.707   6.515   3.110  0.1447 -0.0761  0.0686
 8716W        W51707  29.973  32.291   8.855  0.2966 -0.1346 -0.2212
 8717W        W51708  32.173  30.644   8.187 -0.0866 -0.1032 -0.3116
 8718W        W51709  12.188  21.647   0.368 -0.2518  0.0943 -0.0034
 8719W        W51710  16.638   8.514  29.181 -0.1129  0.0978  0.2460
 8720W        W51711  31.823   4.231  19.107 -0.1170 -0.0914 -0.2038
 8721W        W51712  26.939  18.775  23.085  0.1897  0.3615  0.1856
 8722W        W51713  17.142   6.290   9.439  0.1385 -0.1287  0.0107
 8723W        W51714  11.260  23.483  28.873  0.0454  0.0751  0.1970
 8724W        W51715   4.780  26.782  16.804 -0.1045  0.0254  0.1409
 8725W        W51716  19.313  25.980   4.017  0.0953 -0.2011  0.1234
 8726W        W51717  19.564  13.502  21.295 -0.2282  0.0515  0.2191
 8727W        W51718  21.793   6.620  19.443 -0.1154 -0.1115  0.1299
 8728W        W51719  16.322   3.306   8.065 -0.0759  0.1583 -0.2455
 8729W        W51720  24.032  25.007   1.009  0.0994 -0.0257 -0.0344
 8730W        W51721   1.217  18.847  23.968  0.2884  0.2782 -0.0958
 8731W        W51722  15.527   6.911   4.167  0.1752  0.0344 -0.0979
 8732W        W51723  31.254   0.785   4.332  0.0078  0.0885 -0.2431
 8733W        W51724   8.970  18.828   4.158 -0.2893 -0.1610  0.0758
 8734W        W51725  17.505   8.253   1.092  0.1682 -0.1375 -0.0810
 8735W        W51726  19.061  10.078  18.968  0.2696  0.1156  0.0125
 8736W        W51727   5.934  30.531  21.814 -0.0882  0.0623  0.0224
 8737W        W51728  33.748  27.186   2.533  0.1102  0.0762 -0.0848
 8738W        W51729  21.845  14.395   7.624  0.1755  0.4430 -0.0830
 8739W        W51730  24.414   2.413   4.167 -0.1582  0.1144 -0.3064
 8740W        W51731  23.626   5.023   5.519 -0.1839 -0.1124  0.2312
 8741W        W51732  17.147  16.298  12.807 -0.0649  0.0398  0.3868
 8742W        W51733  10.295  16.998   3.242  0.0493  0.1301 -0.0875
 8743W        W51734  30.159  28.526  27.197 -0.1324 -0.0102  0.2537
 8744W        W51735  24.255   0.526   2.796  0.1707  0.0844 -0.2083
 8745W        W51736  27.397  25.998   4.384  0.2104  0.4167 -0.1440
 8746W        W51737   2.747  29.542   1.838  0.2420  0.0719  0.0187
 8747W        W51738  20.378  14.636  21.228 -0.2191 -0.0766  0.3232
 8748W        W51739  30.729  29.867   1.368  0.1958  0.0449 -0.1169
 8749W        W51740  16.336  11.123  28.147 -0.1072 -0.0549 -0.3002
 8750W        W51741  12.311  26.734  20.909  0.0644 -0.0005  0.2880
 8751W        W51742  31.350  17.315  15.404  0.1345  0.2401 -0.2095
 8752W        W51743   7.360  24.768   0.905  0.0160 -0.0899 -0.0737
 8753W        W51744   9.807  33.865  10.649  0.1568  0.1041  0.2869
 8754W        W51745  20.851  17.979  27.668 -0.0439 -0.0551 -0.1595
 8755W        W51746  14.251  12.376   9.535  0.2717  0.0081  0.2817
 8756W        W51747  16.290   8.720  20.108  0.0891  0.0645  0.0280
 8757W        W51748  20.813  31.315   7.073 -0.2630  0.1747 -0.3409
 8758W        W51749  22.990  32.425   1.249  0.0595  0.0563 -0.1459
 8759W        W51750  27.936  29.618   2.522  0.0336 -0.1616  0.4101
 8760W        W51751   3.319   3.759   0.349 -0.3961 -0.1496  0.1019
 8761W        W51752  26.349   0.277  22.183  0.1658  0.0214  0.0682
 8762W        W51753  29.616   7.161  13.795 -0.2112  0.0875  0.3791
 8763W        W51754  26.769  33.126   1.546  0.2060 -0.2611 -0.0249
 8764W        W51755  24.453  13.082  24.095  0.0436  0.0278  0.1186
 8765W        W51756  15.371   0.976   6.039  0.3190  0.0738  0.4052
 8766W        W51757  14.088  28.996  25.469 -0.0217 -0.2067  0.3187
 8767W        W51758  13.827  32.276  23.916 -0.1457 -0.1467 -0.0918
 8768W        W51759  18.437   1.229  22.158 -0.0393 -0.1711  0.1497
 8769W        W51760  16.318  25.065  25.501  0.2757  0.0529 -0.0131
 8770W        W51761  17.203   3.284  21.275 -0.2527  0.0046  0.0178
 8771W        W51762  25.408  25.584  21.039  0.5317  0.1391 -0.0695
 8772W        W51763  22.439  21.570   4.346  0.1163 -0.0064  0.1214
 8773W        W51764  24.021  34.596   2.273  0.1598  0.0830 -0.2225
 8774W        W51765   9.768  18.816   5.137  0.4311 -0.4096  0.1233
 8775W        W51766   3.868  32.235   7.796 -0.0585  0.1143 -0.2666
 8776W        W51767  26.511   6.647   5.665 -0.3088 -0.0671  0.0081
 8777W        W51768  32.199  30.563  19.279 -0.3241 -0.1064 -0.2363
 8778W        W51769   5.520  10.740   5.671 -0.0516 -0.0749  0.0390
 8779W        W51770  14.816  23.738   9.131 -0.0007 -0.2339  0.0824
 8780W        W51771  21.157  30.792   3.388 -0.2851  0.0099  0.0435
 8781W        W51772  24.271  30.150   8.442  0.3482  0.2117  0.0720
 8782W        W51773  29.520  15.752   4.683  0.2117 -0.0798 -0.1077
 8783W        W51774  21.670   0.077   8.988  0.1715 -0.0568 -0.2293
 8784W        W51775  19.238  33.203   2.068 -0.1330  0.3737 -0.0209
 8785W        W51776  11.332   8.815   1.298  0.0046  0.0349 -0.0974
 8786W        W51777  17.424  15.581  23.715  0.0409  0.0276  0.0933
 8787W        W51778  21.496  32.184   5.850 -0.0357  0.1897  0.0099
 8788W        W51779   5.935   2.094   3.114 -0.1490 -0.0691  0.2109
 8789W        W51780  30.099   6.631  14.795  0.0992 -0.1259 -0.3442
 8790W        W51781  16.209   6.387   9.779 -0.2008  0.1888  0.2072
 8791W        W51782   7.586  29.947   8.818 -0.2146 -0.1266 -0.1319
 8792W        W51783  21.067   4.795   6.025 -0.0311  0.0435  0.0637
 8793W        W51784  13.055  12.310   7.847  0.0774  0.0538 -0.1302
 8794W        W51785   9.574  10.014   7.406 -0.0704  0.1509  0.3026
 8795W        W51786  23.552  12.715   9.066  0.3793  0.1316  0.1486
 8796W        W51787   1.423  19.639  27.465 -0.2132 -0.0359 -0.2075
 8797W        W51788  32.960   8.079   1.546 -0.3643  0.0737  0.2156
 8798W        W51789  10.634  12.693   1.603  0.1673  0.0244  0.0566
 8799W        W51790  24.088  11.695  26.441  0.1731  0.3915  0.3416
 8800W        W51791   0.653   5.185   2.598  0.0753  0.0657  0.1926
 8801W        W51792  16.098  26.717   8.916 -0.2414 -0.0307 -0.0542
 8802W        W51793  16.116  30.024   3.783 -0.3354 -0.0883  0.0196
 8803W        W51794   9.789  34.364  16.252  0.0318 -0.0500 -0.1510
 8804W        W51795  28.174  25.069  23.918 -0.0587  0.1373 -0.1118
 8805W        W51796  18.268   2.931   6.006 -0.1469 -0.0501  0.0120
 8806W        W51797  15.315   9.989   6.154  0.2662  0.0173  0.1313
 8807W        W51798  28.246  26.665  22.407  0.0746  0.4708 -0.0895
 8808W        W51799  13.833   4.117  10.598  0.0134  0.4529 -0.0454
 8809W        W51800   1.155  16.876   1.902 -0.0175  0.0442  0.0392
 8810W        W51801  24.482   7.808  27.477  0.0491  0.0091 -0.0567
 8811W        W51802  18.796   6.474   9.136 -0.0723  0.0717  0.2274
 8812W        W51803  20.863  31.320  27.581 -0.0266 -0.3707 -0.0141
 8813W        W51804  15.224  23.337   5.920  0.0675 -0.3016 -0.0549
 8814W        W51805  25.927   0.236  25.545 -0.1476  0.0678  0.0139
 8815W        W51806  30.134  31.779  24.594  0.2264 -0.3603 -0.0982
 8816W        W51807   1.326   9.523   6.187  0.4149 -0.2767  0.1573
 8817W        W51808  19.865  33.477   4.272  0.0924 -0.0439  0.0785
 8818W        W51809  11.217  32.875   7.076  0.2611 -0.1559  0.0613
 8819W        W51810  19.446  30.897   7.673 -0.0501 -0.0736  0.3777
 8820W        W51811  32.520   3.475   0.543 -0.1167 -0.0384  0.4086
 8821W        W51812  10.947  17.113  21.775  0.1479 -0.0693 -0.0530
 8822W        W51813  26.962  34.754   8.754 -0.1858  0.1554  0.3594
 8823W        W51814  13.654  28.122   2.100 -0.1903  0.0670  0.3357
 8824W        W51815  17.539  10.949  28.631 -0.2433  0.1800  0.1823
 8825W        W51816   2.073   0.849  23.933  0.2960 -0.1262  0.2004
 8826W        W51817  10.133  13.019  22.010  0.1207 -0.0737  0.1989
 8827W        W51818   6.979  27.479  24.931  0.0003 -0.1361 -0.0975
 8828W        W51819   5.102   3.107  21.210  0.1120 -0.0308  0.1512
 8829W        W51820  14.774  29.580   0.997  0.3729  0.0115  0.4166
 8830W        W51821  15.851   1.165  24.893  0.1950 -0.2481  0.3388
 8831W        W51822  20.506  19.486  15.793  0.2052  0.0393 -0.0587
 8832W        W51823  21.414  32.003   4.528 -0.1421 -0.0190 -0.0071
 8833W        W51824   8.234  14.888   7.719 -0.0746  0.0074  0.3035
 8834W        W51825  33.570  30.867  22.434 -0.1323  0.3466  0.0654
 8835W        W51826  33.804  31.901  17.482 -0.0155 -0.0215  0.0542
 8836W        W51827  34.446  27.172  25.370 -0.0423 -0.0686 -0.2426
 8837W        W51828  10.721   1.279   6.635  0.1539  0.1729 -0.1242
 8838W        W51829  30.967  33.905   8.722  0.1474  0.0569  0.0769
 8839W        W51830  23.212  29.175   2.346  0.1563  0.1122  0.1417
 8840W        W51831  13.267  14.201   8.193  0.3747  0.0717 -0.1236
 8841W        W51832  21.838  14.565  29.217  0.2934  0.0486  0.6462
 8842W        W51833  20.352  23.531   1.712  0.0479 -0.1799 -0.0435
 8843W        W51834  20.044  19.157   7.144 -0.0187  0.3212 -0.2751
 8844W        W51835  21.862   2.113   4.210 -0.0789  0.1091  0.0222
 8845W        W51836  21.955  32.096   6.081 -0.2364  0.0241  0.1587
 8846W        W51837  26.688  18.307  18.591  0.0880  0.4080 -0.0458
 8847W        W51838  22.183   2.330   0.104 -0.0980 -0.2337  0.0431
 8848W        W51839  23.544  27.495  27.791 -0.1989 -0.0833  0.1521
 8849W        W51840  24.867  32.771  23.024  0.0069 -0.0845 -0.0998
 8850W        W51841  15.526  15.137   7.536  0.0566  0.1966  0.0557
 8851W        W51842  34.639   1.665   8.109 -0.1820  0.0561 -0.1147
 8852W        W51843  26.292   2.643   2.252  0.1466  0.4167 -0.0850
 8853W        W51844  27.453  19.078  25.615 -0.1309  0.0602  0.1165
 8854W        W51845  30.469   7.347   4.973 -0.1273  0.0760 -0.0664
 8855W        W51846   3.104  14.122  27.958 -0.2085 -0.0662 -0.0747
 8856W        W51847  14.508  34.712  25.351 -0.0527 -0.0232  0.1879
 8857W        W51848  26.446  20.960   3.617  0.0038  0.3528  0.3213
 8858W        W51849  20.056  19.544  26.205  0.0782  0.0852 -0.2699
 8859W        W51850   3.093   5.079  29.186 -0.1146 -0.1815  0.0501
 8860W        W51851   6.593   2.992   6.125  0.0509  0.0789 -0.0816
 8861W        W51852   4.848  32.415  25.900 -0.0526 -0.0001  0.0422
 8862W        W51853  30.014   6.444  27.193  0.1848 -0.5065  0.0728
 8863W        W51854  14.205   1.415   3.549  0.1395 -0.2236 -0.2758
 8864W        W51855  23.434  34.462   6.027  0.1259 -0.1166  0.1373
 8865W        W51856  19.359  19.469   5.168  0.0762 -0.4404 -0.0936
 8866W        W51857   2.014  33.354   3.617  0.1867  0.0612 -0.1380
 8867W        W51858  27.923   8.675  20.753 -0.3800 -0.0295 -0.0764
 8868W        W51859  17.716  28.379  16.185 -0.0842  0.2064  0.0601
 8869W        W51860  21.756  17.140   4.909  0.1051 -0.0571 -0.0399
 8870W        W51861  12.738  31.164   9.101 -0.3341  0.1085 -0.0104
 8871W        W51862  27.316   1.298   8.198 -0.0719  0.1969  0.2681
 8872W        W51863  20.831  10.499  23.214  0.2381  0.0752  0.1124
 8873W        W51864   2.985  25.000  29.245  0.0283  0.3849  0.1383
 8874W        W51865   5.268  26.601  20.216 -0.0081 -0.0055  0.0173
 8875W        W51866  14.282   1.848  10.859  0.2981 -0.2495  0.1411
 8876W        W51867  17.778   8.549   1.403 -0.0925  0.0190 -0.0424
 8877W        W51868  29.860  21.069  20.747 -0.0332  0.1071 -0.1470
 8878W        W51869  11.196  24.754   9.912 -0.0390  0.0048 -0.0610
 8879W        W51870  22.400   3.851   8.664  0.2539  0.1307 -0.1918
 8880W        W51871  23.489  32.522   3.871 -0.1768  0.1651 -0.0898
 8881W        W51872  17.107  31.082   5.431 -0.1662 -0.2813  0.0189
 8882W        W51873  13.398  30.738   1.027  0.3103 -0.2705  0.2046
 8883W        W51874  21.664  14.045   1.950  0.0552 -0.0435 -0.0388
 8884W        W51875  30.879  25.451   0.180 -0.2538  0.0402 -0.0575
 8885W        W51876  12.208   5.705   2.127 -0.0252  0.3710  0.1272
 8886W        W51877  15.997  29.886   0.315  0.2220  0.1399  0.1035
 8887W        W51878  15.987   3.743   3.978 -0.0014  0.0891 -0.2794
 8888W        W51879  21.428  20.538   6.142  0.0155  0.0237 -0.0815
 8889W        W51880  19.671  24.029   3.407  0.1399 -0.2887 -0.2375
 8890W        W51881   7.816  16.274   5.024  0.1770  0.2332  0.2382
 8891W        W51882  16.287   0.694  28.597  0.1010 -0.0135 -0.2691
 8892W        W51883  32.229   9.776   3.811  0.2475 -0.2273 -0.0170
 8893W        W51884  27.347  21.035   2.054 -0.0388  0.1575 -0.1703
 8894W        W51885   3.276  28.618   7.039  0.0145 -0.4124 -0.0165
 8895W        W51886   6.242   7.744  17.922 -0.3429  0.0194 -0.0779
 8896W        W51887  21.620  32.451   9.484  0.1092  0.3022  0.0387
 8897W        W51888  11.680  22.527   7.605 -0.3745  0.0559  0.1314
 8898W        W51889   2.029  32.331   8.262 -0.2351 -0.0799 -0.0049
 8899W        W51890  15.495  21.923   4.014 -0.2512 -0.1251 -0.1334
 8900W        W51891   7.318   9.630   5.142  0.3326 -0.0154 -0.0067
 8901W        W51892  31.672  32.962   3.601 -0.0891 -0.1359 -0.0556
 8902W        W51893  19.299  26.638  18.271 -0.0203 -0.0476 -0.0319
 8903W        W51894  21.078   1.509  27.803  0.2113  0.7233 -0.1160
 8904W        W51895  26.767  33.614  25.999 -0.2433 -0.1231 -0.0647
 8905W        W51896  23.862  12.851   7.088  0.0707 -0.2034 -0.0333
 8906W        W51897   2.392  29.112  28.061 -0.2040 -0.1887 -0.0145
 8907W        W51898  14.437   5.459  19.214  0.4132  0.0639 -0.1281
 8908W        W51899  18.835  26.207   2.481 -0.5278  0.0503 -0.0228
 8909W        W51900  17.994   7.385   3.204 -0.0845  0.0852  0.2818
 8910W        W51901  15.242  32.949   4.401 -0.0247 -0.2924 -0.2885
 8911W        W51902  23.434  13.548  25.544 -0.3156  0.2027  0.2287
 8912W        W51903  12.514   4.508   4.068  0.1201 -0.0957  0.0830
 8913W        W51904  13.464   7.939   4.121  0.1817 -0.1844 -0.0982
 8914W        W51905  24.958   1.002  27.216 -0.1730  0.1076 -0.2447
 8915W        W51906  29.245  15.701   9.939  0.0330  0.2553  0.0329
 8916W        W51907  14.495  20.642  19.329 -0.0260 -0.0606  0.2078
 8917W        W51908  15.915  32.385   0.536 -0.1377  0.1905  0.1886
 8918W        W51909  22.567  24.337   7.351 -0.0061  0.0098  0.1181
 8919W        W51910  22.145  31.888  27.011 -0.1202 -0.0774 -0.2242
 8920W        W51911  25.556   0.398   8.960 -0.3168 -0.1910 -0.0307
 8921W        W51912   6.503   1.839   6.913 -0.2085  0.2301 -0.1665
 8922W        W51913  26.434   6.275   7.772 -0.1551 -0.5425  0.0890
 8923W        W51914  25.466  22.352   5.188 -0.1978 -0.0518  0.0187
 8924W        W51915  12.724   7.598  23.677 -0.0245  0.3911 -0.2703
 8925W        W51916  17.969  25.953   2.939 -0.3435 -0.0598  0.0453
 8926W        W51917  16.955  24.269   0.586  0.0716 -0.0915 -0.0507
 8927W        W51918  22.948  27.668  26.923  0.2416  0.2049  0.0903
 8928W        W51919  22.855   7.497  14.003  0.0059  0.2815 -0.2334
 8929W        W51920  17.979  13.301   4.595 -0.0370 -0.0936  0.0802
 8930W        W51921  26.694  31.116   5.441 -0.5031 -0.2570  0.3221
 8931W        W51922  20.805  24.273   4.173 -0.0589  0.1521  0.0290
 8932W        W51923  23.118   0.856   7.690 -0.1989 -0.0391  0.0061
 8933W        W51924  25.906   4.272   3.560  0.3173 -0.0937 -0.1118
 8934W        W51925  20.998  18.561   4.189  0.0477  0.0396  0.1391
 8935W        W51926  23.889  33.375   8.395  0.0090  0.0328  0.2454
 8936W        W51927  14.846   0.162  10.056  0.3009 -0.1805  0.0347
 8937W        W51928  26.330  30.944   5.075  0.0383 -0.1255  0.2306
 8938W        W51929  29.748  21.394   2.688  0.1109 -0.2391  0.2771
 8939W        W51930  16.446  31.886   5.214  0.1281  0.0608 -0.3287
 8940W        W51931  27.412  13.441  28.150  0.1956 -0.1028  0.0965
 8941W        W51932  10.689  12.825  25.610  0.1901 -0.3583 -0.0070
 8942W        W51933  31.292   2.964   5.965  0.0339  0.2893  0.2716
 8943W        W51934  14.061  28.401   4.020 -0.2777  0.1230  0.0699
 8944W        W51935  27.219   1.844  26.069 -0.3770 -0.1022  0.0099
 8945W        W51936  13.135  25.624   3.219  0.1970 -0.1030  0.1672
 8946W        W51937  18.032  10.613  22.209  0.3754 -0.1435 -0.0692
 8947W        W51938  28.253  25.996   6.624 -0.0401 -0.0622 -0.2132
 8948W        W51939  16.613   9.165   7.130 -0.1951 -0.0462  0.0644
 8949W        W51940  30.677   1.229   5.030 -0.0219 -0.0232  0.0268
 8950W        W51941  16.581  28.415   6.919  0.1667 -0.0367 -0.0936
 8951W        W51942  27.373  28.664   7.414 -0.1061 -0.2263 -0.1170
 8952W        W51943  30.716  30.781   5.920  0.0958 -0.1322 -0.1028
 8953W        W51944  15.748   4.688   8.224  0.2756  0.0852 -0.0422
 8954W        W51945  14.483  18.936   7.532  0.0422  0.0681 -0.0756
 8955W        W51946   4.460  29.347  29.222  0.1505  0.0409  0.2074
 8956W        W51947   0.642   6.629   5.777  0.0594 -0.0345 -0.0218
 8957W        W51948  18.909  15.037   1.297 -0.1455 -0.0924  0.0406
 8958W        W51949  25.966  34.300   5.619  0.1269  0.1625 -0.0202
 8959W        W51950   4.986  11.861   5.256 -0.1652 -0.3750 -0.0384
 8960W        W51951  27.561  31.846  22.995 -0.1294 -0.2134  0.0510
 8961W        W51952  27.279  34.061  26.342 -0.2399 -0.0935  0.1945
 8962W        W51953  20.687  18.748   8.355  0.0497 -0.1122  0.1269
 8963W        W51954  31.135  32.586   0.550  0.1414  0.0316 -0.2956
 8964W        W51955  22.491  18.936  23.218  0.0431 -0.0504 -0.1867
 8965W        W51956  26.407  34.321  26.544 -0.1662 -0.1766 -0.0438
 8966W        W51957  16.795   7.518   3.715  0.0612  0.0857  0.0436
 8967W        W51958   6.172  32.959  29.228  0.3309  0.0062  0.0864
 8968W        W51959  32.552   0.796   8.399  0.0538 -0.0466 -0.0710
 8969W        W51960  19.807  26.463   9.177  0.2235 -0.1689  0.2528
 8970W        W51961  31.877   4.910   9.970  0.0838 -0.1454  0.2635
 8971W        W51962  20.656  32.987  22.403 -0.1067  0.0584  0.1473
 8972W        W51963  15.005  24.080   5.674 -0.0755  0.1523 -0.2169
 8973W        W51964  26.877  25.440   1.795  0.3032 -0.0889 -0.3999
 8974W        W51965  27.700  13.562  27.795  0.1261  0.3693  0.0314
 8975W        W51966  11.525  21.270   3.100 -0.0011 -0.1439 -0.2490
 8976W        W51967  27.071  21.674   4.702  0.0401 -0.1708 -0.1628
 8977W        W51968  13.641  28.217   0.902 -0.1089 -0.0599 -0.3020
 8978W        W51969  15.122   1.090   9.160  0.1936 -0.1922  0.2679
 8979W        W51970  18.051  25.110  19.041  0.0169 -0.3266 -0.1919
 8980W        W51971  15.214  33.986   0.025 -0.1397  0.1738  0.1181
 8981W        W51972  17.682   6.094   2.392 -0.2518  0.1494 -0.2279
 8982W        W51973  16.925  18.115   8.505  0.0142 -0.1467 -0.0582
 8983W        W51974   8.626  10.870   8.753 -0.1603 -0.2421  0.2232
 8984W        W51975   4.543  30.790  24.791  0.1327  0.3228 -0.2666
 8985W        W51976  13.454  33.831  26.962 -0.1674  0.0908 -0.0534
 8986W        W51977  25.410  24.702  24.317 -0.2224 -0.1233  0.2491
 8987W        W51978  24.133  34.801   3.524  0.0525  0.1135 -0.0140
 8988W        W51979  22.871  17.937   4.159  0.4439  0.3559  0.0981
 8989W        W51980  11.957  24.459   1.891  0.1696 -0.2212  0.1116
 8990W        W51981  15.658  12.813  23.232  0.2222  0.0416  0.1194
 8991W        W51982  18.222  10.106   2.235  0.2570 -0.2071  0.1298
 8992W        W51983   4.517   1.699  10.048  0.3240  0.0947 -0.0877
 8993W        W51984  20.213  16.159   2.444 -0.2950  0.1239  0.1027
 8994W        W51985  16.845   6.072  11.013  0.0122  0.3433  0.5042
 8995W        W51986  18.058  14.954  24.764  0.0435 -0.1177 -0.0717
 8996W        W51987  23.888  12.783   2.747 -0.0670 -0.4238 -0.0281
 8997W        W51988  16.367   2.423   6.988  0.1462 -0.1038 -0.3723
 8998W        W51989  23.653   0.363  24.711 -0.1301 -0.3798 -0.0581
 8999W        W51990  18.374   5.539  23.743 -0.2737 -0.1008 -0.1871
 9000W        W51991   6.973   4.406   8.382  0.0887  0.1553 -0.0908
 9001W        W51992   9.101  25.458  26.449 -0.0103 -0.0594  0.3073
 9002W        W51993  20.813   4.048   3.031  0.0045  0.0682 -0.1438
 9003W        W51994  18.634  30.657   4.417 -0.0686 -0.1571  0.0837
 9004W        W51995  17.659  17.552   8.446 -0.2823  0.0487 -0.0851
 9005W        W51996  13.365  10.654   2.681  0.3560  0.2694  0.2239
 9006W        W51997  26.011   7.907  27.280 -0.1213 -0.1144  0.0696
 9007W        W51998  25.341  32.781   7.544  0.1416 -0.1090 -0.2506
 9008W        W51999   0.527  18.987   8.366  0.2232  0.3607  0.2309
 9009W        W52000   4.510  10.101   7.855  0.2030  0.1224 -0.2453
 9010W        W52001  23.159  17.029   6.090  0.3005 -0.1814 -0.0607
 9011W        W52002  18.055   3.629  28.379  0.0972 -0.1933  0.1556
 9012W        W52003  22.925  28.159   6.421 -0.1590  0.0155  0.0107
 9013W        W52004  17.847  16.508   6.518 -0.1952 -0.0044  0.1440
 9014W        W52005   8.991   3.410   3.566 -0.0430  0.3201  0.0427
 9015W        W52006  13.509   2.723   2.288 -0.0742  0.0335  0.0426
 9016W        W52007  22.515   9.918   5.011  0.1319  0.0599  0.0476
 9017W        W52008   3.085   9.207  24.553  0.0561  0.2171 -0.1335
 9018W        W52009   1.476  32.045   9.602  0.2776  0.2958 -0.0955
 9019W        W52010   6.932  14.490   7.680 -0.0400 -0.0647  0.2611
 9020W        W52011   5.483  20.307   8.116  0.0005 -0.0938  0.0492
 9021W        W52012  21.950  28.726   7.233  0.1125  0.0911  0.3608
 9022W        W52013  19.185  23.487  28.411 -0.1696  0.1333  0.1170
 9023W        W52014  26.545  19.124   2.175  0.1706 -0.2105  0.2587
 9024W        W52015  28.663   7.561   3.499 -0.0399  0.1035  0.3226
 9025W        W52016  18.804  22.409   7.675  0.1671 -0.2320 -0.0855
 9026W        W52017  28.790   0.194  26.022 -0.1812 -0.0629 -0.1118
 9027W        W52018  18.549  30.263  25.270  0.0216 -0.0864  0.2359
 9028W        W52019  24.790  19.448   5.569  0.0523  0.1156  0.1574
 9029W        W52020  21.151  20.410   0.179  0.3251  0.0060 -0.3596
 9030W        W52021   4.178   8.325  28.904 -0.1636  0.2794  0.0976
 9031W        W52022  18.534  28.316   3.385  0.0874  0.2073  0.1541
 9032W        W52023  22.364   4.757  26.521  0.1000  0.1459  0.2280
 9033W        W52024  28.144  30.440   6.322 -0.0211 -0.0833  0.1980
 9034W        W52025   7.738  31.453   6.661  0.2893 -0.1594 -0.0757
 9035W        W52026  34.576   7.112   1.793  0.0788 -0.1998 -0.1060
 9036W        W52027  26.052  28.881  20.459 -0.0855 -0.3346 -0.0409
 9037W        W52028  23.129   0.340  24.891 -0.0079  0.0284 -0.2986
 9038W        W52029  20.826  16.353  26.938 -0.1308  0.2642  0.0554
 9039W        W52030  16.311   9.104  24.716 -0.0760 -0.1854  0.0299
 9040W        W52031   9.984   5.848   7.938 -0.2498  0.1317  0.0908
 9041W        W52032  21.039  32.039  20.602  0.4573 -0.1213 -0.1462
 9042W        W52033  28.877  18.702   3.751  0.0462 -0.2428 -0.2743
 9043W        W52034   5.670   9.988  11.184 -0.0279 -0.1605  0.0305
 9044W        W52035  27.758  29.641  28.449  0.2397  0.2598 -0.0121
 9045W        W52036  17.910  26.684  23.080 -0.1651 -0.1334  0.2824
 9046W        W52037   2.095  20.772   3.604 -0.1277 -0.0004  0.0195
 9047W        W52038   5.538   2.205  27.060 -0.0229  0.2334 -0.4219
 9048W        W52039  18.456  12.504   4.267 -0.1665  0.0417 -0.1827
 9049W        W52040  32.771  14.153   9.881  0.1673 -0.1141 -0.0231
 9050W        W52041  10.732  29.173   5.791 -0.1839  0.1212  0.0014
 9051W        W52042  15.926  13.856   2.937 -0.0878 -0.0551  0.0814
 9052W        W52043  26.268  32.170  26.781 -0.0631 -0.0522 -0.1862
 9053W        W52044  22.981  32.447  21.498  0.2105  0.0171 -0.0192
 9054W        W52045  31.795  19.248  17.748 -0.1678 -0.0582 -0.0977
 9055W        W52046  29.343   2.953   5.388 -0.0230  0.0145  0.0128
 9056W        W52047  17.690  33.525  23.747  0.4818 -0.0348  0.0753
 9057W        W52048  28.525   4.076   7.683 -0.0130 -0.1503  0.1234
 9058W        W52049  33.414  21.808   7.655  0.0578 -0.0660 -0.1813
 9059W        W52050   7.959  27.304  16.724  0.0073 -0.1508 -0.1887
 9060W        W52051  26.116   7.959   4.100 -0.1361  0.1208 -0.0485
 9061W        W52052   0.824  29.989   2.082 -0.1860 -0.0698  0.1409
 9062W        W52053  20.583   3.589   4.897 -0.0664 -0.2382  0.3446
 9063W        W52054  20.889  25.056  28.035 -0.0319  0.3196  0.0397
 9064W        W52055  25.873   2.533   3.300 -0.0053 -0.0563 -0.1103
 9065W        W52056  11.030   2.001   3.736  0.0232  0.0422  0.5546
 9066W        W52057   4.007   4.994   8.780 -0.3464  0.0128 -0.0028
 9067W        W52058   8.881  30.659  27.688 -0.0342  0.0888  0.2688
 9068W        W52059   8.595  33.375  20.208 -0.0298 -0.1293  0.0007
 9069W        W52060  23.966  17.112  28.788  0.3440  0.0112 -0.3425
 9070W        W52061  19.386  31.178   7.087 -0.1073 -0.0439 -0.2306
 9071W        W52062  24.685  27.687   6.336  0.0834  0.3422 -0.1932
 9072W        W52063  23.423  27.069  20.953 -0.1015  0.2671 -0.0341
 9073W        W52064  26.498   4.129   8.054 -0.0260  0.1930 -0.1304
 9074W        W52065   6.649   2.554   8.599  0.0565  0.2992  0.1582
 9075W        W52066  24.908   6.972  15.495 -0.2370  0.0472 -0.0710
 9076W        W52067  26.451   7.885   5.259  0.0431 -0.0308 -0.2623
 9077W        W52068  13.326   5.040   7.465 -0.0487  0.3165  0.1249
 9078W        W52069  19.201   1.889  23.008  0.3494  0.0602 -0.1918
 9079W        W52070  30.154   2.867   2.137 -0.4127 -0.1336 -0.0228
 9080W        W52071   7.869  10.522   2.469  0.3103 -0.3044 -0.1531
 9081W        W52072  24.040  34.187   8.385 -0.1570  0.1832 -0.0016
 9082W        W52073  25.079   3.832   7.138 -0.0551 -0.0652 -0.2717
 9083W        W52074  22.954  20.624   5.712 -0.2756  0.1027 -0.1565
 9084W        W52075  22.833  19.078  26.346  0.1424  0.2152  0.3979
 9085W        W52076  20.714  34.654   6.393 -0.0001 -0.0668 -0.4005
 9086W        W52077   2.374  29.015   6.949 -0.0040  0.0065 -0.2339
 9087W        W52078  11.829  10.363   8.915 -0.1186  0.2270  0.1367
 9088W        W52079  15.688  11.296  26.001  0.1184 -0.0373 -0.3189
 9089W        W52080   0.157  32.806   5.254 -0.0718 -0.0625 -0.0506
 9090W        W52081  21.441   2.671  26.959 -0.1817  0.4026  0.1025
 9091W        W52082   0.042   9.193   7.769 -0.3565  0.0097 -0.2078
 9092W        W52083  25.694  27.318   8.808  0.1400 -0.1430  0.0771
 9093W        W52084  10.784  31.881   3.476  0.1674 -0.1950  0.1130
 9094W        W52085  16.942  31.860   4.334 -0.0752  0.1853 -0.2236
 9095W        W52086  17.024  15.119  28.743 -0.3052 -0.1829 -0.4114
 9096W        W52087   6.853   0.951   1.087  0.0821  0.0575  0.0465
 9097W        W52088  18.190  24.764   3.823  0.0192 -0.0747  0.1374
 9098W        W52089  23.691  22.292  26.437 -0.3845 -0.0119 -0.1352
 9099W        W52090  24.306   3.770   3.714 -0.0311  0.1483 -0.0289
 9100W        W52091  14.336  12.835  25.199 -0.2244 -0.2652  0.1193
 9101W        W52092   9.308   5.782   9.964 -0.0392 -0.1527  0.1022
 9102W        W52093  30.991  33.610  17.078 -0.3501  0.2768  0.2436
 9103W        W52094  29.914  30.596   4.785 -0.2111 -0.1593 -0.0357
 9104W        W52095  19.465   8.950  28.302 -0.0739  0.1964  0.0316
 9105W        W52096  15.608  26.588   3.701  0.2203  0.1710 -0.1706
 9106W        W52097  28.932   4.904   5.881 -0.0235 -0.0422 -0.1463
 9107W        W52098  17.449  22.838  26.783 -0.0519 -0.1351  0.2045
 9108W        W52099   5.947  20.787  10.090 -0.0387  0.0453  0.1061
 9109W        W52100   3.063  17.192   4.711  0.1289  0.1248  0.2572
 9110W        W52101  15.930  23.039  25.955  0.0804  0.0181  0.0518
 9111W        W52102  17.822  29.839   4.667 -0.1233  0.1043  0.0292
 9112W        W52103  14.954  30.921  28.173  0.0234  0.1138  0.0991
 9113W        W52104  13.163   1.406  16.876  0.0764  0.0862  0.0222
 9114W        W52105  30.912   2.383   2.661  0.0333 -0.2180 -0.0265
 9115W        W52106  23.194   5.292   0.460 -0.2117 -0.2186 -0.0012
 9116W        W52107  17.405  27.218   9.564 -0.1837 -0.0629  0.0247
 9117W        W52108  19.319  10.688  26.385  0.0349 -0.0849 -0.0955
 9118W        W52109  19.641  25.878  27.687 -0.3652  0.0049  0.1287
 9119W        W52110   8.312   1.392   7.154 -0.1799  0.0188 -0.2509
 9120W        W52111  17.619   5.297   6.871 -0.3269  0.0601  0.2315
 9121W        W52112  13.902  32.780   9.365  0.1034  0.3960  0.0541
 9122W        W52113  14.446   3.235   7.121 -0.3825 -0.1674  0.1206
 9123W        W52114  18.101  32.151  22.585 -0.2326  0.1044 -0.1055
 9124W        W52115  23.908   4.401   7.158  0.1144 -0.1030 -0.1616
 9125W        W52116  25.867   5.389   6.441 -0.2332 -0.0267  0.0323
 9126W        W52117   7.340  30.345  28.327  0.1074  0.2320 -0.2316
 9127W        W52118  32.678  26.160   2.609 -0.1155  0.4136 -0.1926
 9128W        W52119   2.551   5.168   5.434 -0.2115 -0.0122  0.1112
 9129W        W52120  32.609   7.083   8.174 -0.3982 -0.2474  0.2147
 9130W        W52121  23.204   1.231  21.667 -0.4046 -0.0784  0.1857
 9131W        W52122  19.147  33.092  14.065 -0.0193  0.2536  0.4419
 9132W        W52123  30.738  28.293  27.686  0.2151  0.0174 -0.0494
 9133W        W52124   1.662  19.128   4.587  0.1578 -0.4180  0.0930
 9134W        W52125  26.628  21.290  23.783  0.0999 -0.0122 -0.3336
 9135W        W52126  12.127  33.666   5.428  0.0966  0.0331 -0.0426
 9136W        W52127   6.700  22.487   8.235 -0.1490 -0.1670  0.0677
 9137W        W52128  17.443  16.895  26.824  0.3227  0.1023 -0.0208
 9138W        W52129  19.246  34.147   4.589  0.2220 -0.0343 -0.3020
 9139W        W52130  21.469   1.316  14.897  0.3175 -0.0407  0.0551
 9140W        W52131  21.906   7.305  27.451 -0.0258 -0.0168  0.1585
 9141W        W52132  14.194  15.815   8.485  0.1625  0.0733 -0.0912
 9142W        W52133  30.392  32.317   7.817 -0.1663  0.0163  0.3705
 9143W        W52134  25.835  18.773   0.408  0.1734  0.1812  0.0068
 9144W        W52135   5.855   1.877  21.584  0.0417 -0.3762  0.0173
 9145W        W52136  34.026  22.496   7.575  0.1209  0.1714 -0.0755
 9146W        W52137  14.748  27.570   0.187 -0.0568  0.4109  0.1595
 9147W        W52138  11.796  33.642  27.198 -0.3685  0.0910 -0.2690
 9148W        W52139  29.626  32.099   2.949 -0.1195 -0.1328  0.2653
 9149W        W52140  11.149  32.394  17.694  0.1615 -0.0088  0.4793
 9150W        W52141  25.262  30.812  22.827  0.0260  0.4250 -0.0829
 9151W        W52142   4.204  27.334   7.365 -0.1679  0.1731  0.0747
 9152W        W52143   0.480  33.546  20.897 -0.0841  0.0591 -0.0835
 9153W        W52144  12.071   8.104   3.894 -0.0678 -0.0685  0.0713
 9154W        W52145  26.635  15.982   0.553 -0.2411 -0.1267 -0.0070
 9155W        W52146  12.835  28.373   3.490 -0.1069  0.2222  0.0520
 9156W        W52147  16.387   3.793   7.829  0.0418  0.2115  0.0800
 9157W        W52148  33.297  33.443   2.882 -0.0887 -0.0499 -0.2736
 9158W        W52149  12.851  30.857   6.069  0.0038 -0.1727  0.0686
 9159W        W52150  13.821   4.913   2.083 -0.1344 -0.0356 -0.0926
 9160W        W52151  14.342  17.197   8.272 -0.1813  0.4007 -0.0617
 9161W        W52152  26.732  11.488  20.741 -0.3116 -0.0194 -0.1459
 9162W        W52153  16.046  27.834   6.014  0.0971  0.0916  0.2705
 9163W        W52154  20.204  27.816   4.420  0.5807 -0.2155 -0.0424
 9164W        W52155  10.036  28.866   0.337 -0.3003 -0.1584 -0.4456
 9165W        W52156  21.732   6.567   8.800  0.0272 -0.0357 -0.1243
 9166W        W52157  18.957  13.446  28.173  0.4369 -0.3006  0.3927
 9167W        W52158  18.570  12.047   4.013 -0.2244  0.4806  0.3114
 9168W        W52159  31.347  29.116  28.498 -0.2444  0.0358  0.3967
 9169W        W52160  23.452  19.738   6.306  0.0096  0.0115  0.0371
 9170W        W52161  21.355  32.487  28.874  0.0669 -0.2156 -0.2580
 9171W        W52162  15.971  26.900   3.311 -0.1601 -0.1641  0.1227
 9172W        W52163   6.803   1.239   2.003 -0.0663 -0.2389  0.4127
 9173W        W52164  16.818  29.406  19.205 -0.1365  0.0407  0.1169
 9174W        W52165  13.080   5.063   9.960 -0.1114  0.0918 -0.2728
 9175W        W52166   4.801  28.874   7.836 -0.2380  0.0105  0.0406
 9176W        W52167  12.271  27.475   5.237 -0.1243 -0.1947 -0.2961
 9177W        W52168  10.192  26.271   6.288  0.2053 -0.2049  0.4981
 9178W        W52169  23.221  22.219  23.855  0.1792  0.1571 -0.0090
 9179W        W52170  12.790  33.151  10.193 -0.1818  0.2267 -0.0350
 9180W        W52171   9.853  28.295   8.553  0.2306 -0.0289  0.1313
 9181W        W52172  10.739  19.340   3.884  0.1508 -0.0658 -0.1678
 9182W        W52173  11.639   3.273  11.058 -0.1866  0.2725 -0.2189
 9183W        W52174  32.954  29.045   2.244 -0.3545 -0.1176  0.0387
 9184W        W52175  15.663   3.585   9.141 -0.3477  0.0324 -0.0504
 9185W        W52176  18.024   7.350   5.584 -0.2521  0.2567 -0.0079
 9186W        W52177   6.404  25.390   6.288  0.3176  0.1362 -0.0460
 9187W        W52178  17.884  27.585   1.325 -0.1039 -0.1827  0.0110
 9188W        W52179  34.780  33.072   4.753  0.0841 -0.3942 -0.0951
 9189W        W52180  12.865  21.099  26.250  0.0531  0.0375  0.2546
 9190W        W52181   3.643  30.677  26.824  0.0504  0.1412 -0.0534
 9191W        W52182  30.271   8.593   7.149 -0.1452  0.3377  0.0949
 9192W        W52183  17.152  24.693   8.562 -0.0137  0.2047 -0.3198
 9193W        W52184  11.982  15.859   3.390 -0.3150 -0.1308  0.5994
 9194W        W52185  25.755   6.636   6.364 -0.0984 -0.2679  0.2021
 9195W        W52186  32.408  30.227   7.814  0.1695 -0.1873 -0.1213
 9196W        W52187  11.106   0.774  27.995  0.1782 -0.3810  0.0192
 9197W        W52188  20.781   9.989   6.684 -0.1780 -0.4076 -0.1131
 9198W        W52189  26.929  26.699   3.825  0.1076  0.1484 -0.2243
 9199W        W52190  13.364  12.302   5.420 -0.1367 -0.1249 -0.3236
 9200W        W52191  24.615   4.314   3.632 -0.2105 -0.2669 -0.1098
 9201W        W52192  29.283   1.602  20.965  0.0336  0.0062  0.2436
 9202W        W52193  32.276  25.255   4.662 -0.2850  0.1325 -0.3978
 9203W        W52194   9.434  10.838  10.123 -0.0425 -0.0046 -0.2303
 9204W        W52195  24.046  32.080  23.930 -0.1482  0.0655  0.0338
 9205W        W52196  19.900  23.645  27.307 -0.0820 -0.3385 -0.1205
 9206W        W52197   9.198  10.260   2.067 -0.3597  0.0365 -0.0013
 9207W        W52198  25.296  25.621   6.743  0.0899  0.1109  0.1575
 9208W        W52199  13.478  28.136   2.736 -0.3784 -0.3702 -0.0639
 9209W        W52200  30.024  18.231   2.636 -0.0284 -0.0004 -0.2737
 9210W        W52201   6.301  28.056   5.560 -0.3353 -0.0536 -0.0480
 9211W        W52202  30.789  30.183  20.618 -0.0776  0.0751  0.0392
 9212W        W52203  16.515  33.515  24.159 -0.0576  0.3466  0.0214
 9213W        W52204  12.949   9.414  11.130  0.0861  0.1694  0.0611
 9214W        W52205  14.703   7.195   5.994 -0.1298  0.0061 -0.4290
 9215W        W52206  19.280  25.578   8.383  0.1409  0.3525  0.0983
 9216W        W52207  27.418  33.995   6.298 -0.0797 -0.4012 -0.0688
 9217W        W52208  14.498  20.660  23.564 -0.2109  0.0918 -0.1325
 9218W        W52209  10.889  31.910   4.800  0.0910 -0.1339  0.0689
 9219W        W52210  22.903  23.578   8.628 -0.1345 -0.1108  0.1274
 9220W        W52211  11.060  25.074   0.713  0.1548  0.0622 -0.0694
 9221W        W52212  12.279   1.711   0.596  0.0578 -0.0996 -0.0598
 9222W        W52213  16.097  24.313   7.776 -0.2900 -0.2806 -0.0053
 9223W        W52214  18.692   0.163   5.600 -0.0650 -0.2171  0.3345
 9224W        W52215  22.496   3.890   1.396  0.0781 -0.1093 -0.0108
 9225W        W52216  25.470   5.540  27.146  0.4019  0.2950  0.0152
 9226W        W52217  14.605   9.497  28.966  0.0521  0.1959 -0.1107
 9227W        W52218  14.704  25.795  25.125 -0.0522 -0.0647 -0.1189
 9228W        W52219  12.592   9.474   5.378  0.4427 -0.1645  0.1481
 9229W        W52220  27.489  23.554  28.815 -0.1816  0.2432 -0.3072
 9230W        W52221  28.082  29.957   6.572  0.0013  0.2148  0.3392
 9231W        W52222  24.306   0.332  21.109 -0.5427 -0.3999  0.2523
 9232W        W52223  17.633   0.712   8.998 -0.0845  0.0662 -0.0488
 9233W        W52224  16.984   6.044  20.595  0.4772  0.4627  0.1242
 9234W        W52225  19.509  30.447   6.435 -0.1874  0.1278  0.2086
 9235W        W52226  11.750   9.196   6.684 -0.0270  0.3518 -0.2228
 9236W        W52227  17.163   5.788   4.616 -0.0794  0.2310 -0.1791
 9237W        W52228  13.719  20.933  20.438  0.0458  0.2567  0.0905
 9238W        W52229  10.543  12.146   4.899  0.0438  0.2225  0.2396
 9239W        W52230  27.770  29.532   0.398 -0.0644 -0.1709 -0.2834
 9240W        W52231  14.933  21.201   8.831  0.0488 -0.0513  0.0436
 9241W        W52232  20.966   4.216  27.557 -0.0157 -0.1415 -0.1737
 9242W        W52233  10.229  12.116   5.268  0.1703  0.1900  0.2025
 9243W        W52234  23.865   0.848  24.648 -0.0063 -0.0662  0.1155
 9244W        W52235   9.357   0.351   0.570 -0.0880 -0.0243 -0.0645
 9245W        W52236  23.224   6.515   2.768  0.0209  0.1191 -0.0452
 9246W        W52237  13.800  30.945   0.758  0.0006 -0.2657 -0.0338
 9247W        W52238  21.919  28.937   0.932  0.3646  0.1140 -0.2470
 9248W        W52239  25.696   2.335   4.699  0.1226  0.0453  0.0457
 9249W        W52240   8.363   1.591   2.636  0.0654 -0.0375  0.0964
 9250W        W52241  14.395  15.945   2.677 -0.3371 -0.2615 -0.3055
 9251W        W52242   5.712   0.796  16.559  0.0091  0.2746  0.0341
 9252W        W52243  12.924  22.353   5.219 -0.1438 -0.0300  0.0801
 9253W        W52244  16.324  33.715   6.164  0.1172 -0.1915 -0.1818
 9254W        W52245  13.452   9.200   1.477 -0.0041 -0.2846 -0.2923
 9255W        W52246  19.569  13.992   7.091  0.2159 -0.1397  0.0250
 9256W        W52247  14.716  25.229  24.497  0.3431  0.3497  0.0503
 9257W        W52248  24.500   6.118   6.247  0.2492  0.3636  0.2273
 9258W        W52249  20.329  30.636   7.126 -0.0361  0.0429 -0.1648
 9259W        W52250  13.375  26.930  27.375  0.0606 -0.0179 -0.1199
 9260W        W52251   8.179  14.465   8.980  0.2511 -0.2163  0.0507
 9261W        W52252   2.419  27.531  21.204  0.0287 -0.0951 -0.3071
 9262W        W52253  24.356  10.083   5.681  0.3320  0.2477 -0.1777
 9263W        W52254  16.850   1.040  27.205  0.2186 -0.0375 -0.0778
 9264W        W52255  29.473  22.512   7.057  0.2509  0.1154 -0.0218
 9265W        W52256  25.865  10.449   7.178 -0.2053 -0.2447 -0.1518
 9266W        W52257  12.575   1.350   0.216  0.0025  0.1389  0.1351
 9267W        W52258   7.191   1.757   7.529  0.0087  0.1125  0.1089
 9268W        W52259  14.077  33.818  21.856 -0.3218 -0.0723 -0.3360
 9269W        W52260   5.605  32.884  10.055 -0.1689  0.0014  0.1686
 9270W        W52261  20.356   3.836   0.355 -0.0859  0.1681 -0.3295
 9271W        W52262  26.062  33.019   3.707  0.2634  0.0025  0.0493
 9272W        W52263   9.232   1.331   8.550 -0.1667  0.3419 -0.0756
 9273W        W52264  24.018  28.496  29.234  0.0125 -0.1791 -0.1016
 9274W        W52265  26.732  27.589   6.158 -0.1488  0.2062  0.1695
 9275W        W52266  31.694  34.107   1.834  0.0559  0.1168  0.0197
 9276W        W52267  14.491  32.705  26.940 -0.0205  0.3416 -0.0851
 9277W        W52268  31.693  34.760   3.186 -0.1376  0.5582  0.0892
 9278W        W52269  28.298  33.151   5.389  0.1842  0.2534 -0.0920
 9279W        W52270  24.091   3.315   8.751 -0.3301  0.4064  0.3193
 9280W        W52271  33.433   2.383   4.615 -0.1496 -0.0070 -0.1038
 9281W        W52272  24.632   7.192   2.985 -0.0901 -0.1913  0.1160
 9282W        W52273   8.981  34.758   7.257  0.1996 -0.2925  0.1572
 9283W        W52274  26.936  33.183   7.970 -0.1090 -0.2261 -0.0082
 9284W        W52275  14.846   7.994   9.118 -0.1300  0.1345 -0.1728
 9285W        W52276   7.897  19.200   8.511 -0.2909  0.1442  0.0225
 9286W        W52277  18.729  27.172   8.585 -0.0392  0.0346  0.0928
 9287W        W52278  31.338  32.713   4.473  0.0984  0.0815 -0.0712
 9288W        W52279   3.584  34.450   9.500 -0.4183 -0.2808 -0.3478
 9289W        W52280  14.358   9.387   6.836 -0.1083  0.1431  0.0050
 9290W        W52281  14.682  30.362   5.270 -0.0563  0.1260 -0.0275
 9291W        W52282  32.730   8.400  25.708 -0.0037 -0.0745 -0.2913
 9292W        W52283  21.971  26.973  26.324  0.0396 -0.3698 -0.2297
 9293W        W52284  17.166   1.439   0.344 -0.1262  0.0153 -0.0188
 9294W        W52285   1.284  26.562  16.499  0.0162 -0.1504 -0.2026
 9295W        W52286  26.712  28.226  23.779  0.0204  0.2816  0.1406
 9296W        W52287  14.394  13.307   9.135  0.0628 -0.0444 -0.0894
 9297W        W52288  10.371  30.924   6.706 -0.2513 -0.0257 -0.1613
 9298W        W52289  23.279  28.331  23.785 -0.1416  0.1239  0.1279
 9299W        W52290  13.475   7.616   0.723 -0.1635 -0.0968 -0.0120
 9300W        W52291  23.072  26.073   6.452 -0.0089 -0.0210  0.2992
 9301W        W52292   2.732  16.922  21.405  0.0257  0.3358  0.4327
 9302W        W52293  20.216  33.505  28.654 -0.3709  0.2514 -0.0245
 9303W        W52294  30.431   8.652   7.621 -0.1515  0.1562 -0.0659
 9304W        W52295  23.266   4.370   1.614  0.0326 -0.2199 -0.0463
 9305W        W52296  22.412  29.797   8.918  0.2238 -0.0898  0.0120
 9306W        W52297  14.454   6.212   9.701  0.0197 -0.2735  0.0514
 9307W        W52298  10.282  27.664   0.473  0.1522  0.0509  0.0422
 9308W        W52299  13.845  11.655   4.899  0.1473  0.1557 -0.1554
 9309W        W52300  11.900   4.602   5.891  0.1699  0.0464 -0.0088
 9310W        W52301  25.984  29.348   1.462  0.0510  0.2637 -0.1588
 9311W        W52302  15.534  19.098  24.711 -0.1799 -0.0427  0.2388
 9312W        W52303  18.789  26.344   8.423  0.0899 -0.0557  0.0198
 9313W        W52304   4.084   2.471   4.383  0.0556 -0.3393  0.2690
 9314W        W52305  23.920  27.517  24.499  0.0912 -0.0539  0.2025
 9315W        W52306  31.575  34.186   2.919  0.0698  0.1992 -0.3350
 9316W        W52307  27.856  31.900   3.577 -0.1005  0.2829 -0.2434
 9317W        W52308  23.591  21.619  23.583 -0.1914  0.0048  0.0510
 9318W        W52309  14.782  15.251   5.850 -0.2477  0.1671 -0.1156
 9319W        W52310  24.331  25.545   8.723  0.0987 -0.0399  0.2276
 9320W        W52311  13.098  24.549  24.403 -0.0894  0.0898 -0.0380
 9321W        W52312   6.653  25.353  22.695  0.1137  0.1984 -0.0044
 9322W        W52313  30.608   0.947  26.628 -0.2539  0.0028  0.0179
 9323W        W52314   9.326  33.264   0.236  0.1644 -0.1566  0.2202
 9324W        W52315  18.656  18.073  26.755  0.1616 -0.1441  0.0466
 9325W        W52316  16.139  22.754  25.332 -0.0355  0.0003  0.0485
 9326W        W52317  11.561   4.050   7.100  0.2086  0.0102  0.0010
 9327W        W52318  14.442   3.675   6.898 -0.2639 -0.3680 -0.1178
 9328W        W52319  15.182  14.243   3.592 -0.3085  0.0595 -0.1420
 9329W        W52320   5.418   5.741  24.125  0.0195 -0.0565 -0.3574
 9330W        W52321  11.959  21.940   6.695 -0.0912  0.2679  0.0801
 9331W        W52322  26.199  23.623  19.101 -0.0688 -0.1986 -0.1184
 9332W        W52323  22.830  11.443   3.085  0.3340  0.1617  0.1313
 9333W        W52324  16.874   9.558   4.785 -0.0949 -0.2109 -0.3876
 9334W        W52325  25.441  17.326   3.064  0.1890  0.2699  0.0471
 9335W        W52326  11.465  29.541   9.519 -0.0449 -0.0611  0.0554
 9336W        W52327  21.975  12.967   4.331  0.0248 -0.0619  0.0168
 9337W        W52328   4.024  13.468   2.858 -0.1000 -0.2677 -0.1425
 9338W        W52329  19.934   4.555   9.200  0.0105  0.1996 -0.0188
 9339W        W52330  11.793  11.392  26.120  0.0081 -0.2662 -0.0715
 9340W        W52331  16.365  30.196  16.729 -0.0694 -0.2301 -0.1750
 9341W        W52332  27.500  17.052   1.900 -0.0738  0.0818 -0.0326
 9342W        W52333   5.708   1.118  14.913  0.2331  0.1119 -0.0510
 9343W        W52334  30.361  20.500   3.264  0.5267 -0.0147  0.0356
 9344W        W52335  14.032   7.662   9.185  0.1405 -0.3124 -0.1698
 9345W        W52336  22.055   6.175   8.820  0.0382  0.2176 -0.1655
 9346W        W52337   3.633   1.323   9.938  0.2212  0.2464  0.0865
 9347W        W52338  22.581  25.764   6.901 -0.0520  0.2248 -0.0480
 9348W        W52339  27.631  10.091   5.166  0.0990  0.1974  0.1750
 9349W        W52340  12.064   3.087   5.416 -0.1203 -0.0533 -0.1407
 9350W        W52341  22.626  10.713   5.763  0.0295  0.0279 -0.0254
 9351W        W52342  20.091   5.696   7.064 -0.0487  0.1062  0.1038
 9352W        W52343  13.283   7.219   8.525 -0.1351 -0.3388 -0.1220
 9353W        W52344  13.135   5.351   2.005 -0.0590 -0.4068 -0.1245
 9354W        W52345  13.467  18.498   0.570  0.2241  0.1955 -0.4031
 9355W        W52346  15.691   5.606   8.554 -0.0275  0.1290  0.2706
 9356W        W52347  22.554  27.966   7.362  0.1315  0.2971 -0.1371
 9357W        W52348  26.532  30.881   1.920 -0.1357  0.2850  0.2013
 9358W        W52349  20.508  31.974   2.783  0.0860  0.1604  0.1661
 9359W        W52350  18.130   9.056  19.004 -0.2567  0.1058 -0.0693
 9360W        W52351  11.682   1.123   0.504 -0.0566  0.2832  0.4033
 9361W        W52352  13.832  21.390   8.279  0.4260 -0.3156  0.2167
 9362W        W52353  12.867  27.173  23.758  0.2696  0.4601  0.0965
 9363W        W52354  13.422   9.574  11.325 -0.0496 -0.0984  0.1000
 9364W        W52355   9.697  15.501  26.087 -0.3736  0.2235 -0.2995
 9365W        W52356  15.409  30.972   5.186  0.2394 -0.2020  0.1122
 9366W        W52357  16.334  22.158  22.125  0.5564  0.1768  0.0916
 9367W        W52358  18.694  24.821  22.244 -0.1913  0.2675  0.0804
 9368W        W52359  26.012   6.641   6.806  0.2263 -0.1687 -0.2059
 9369W        W52360  13.945  22.752   7.699  0.3437  0.0184  0.2734
 9370W        W52361  28.271   5.664  10.072  0.1628  0.0469 -0.0960
 9371W        W52362  20.560  18.244   8.495  0.0136 -0.0691 -0.1799
 9372W        W52363  12.186  26.612   1.573  0.0932  0.1087 -0.1621
 9373W        W52364  18.116  31.549   8.790 -0.1195 -0.2085  0.1182
 9374W        W52365  14.543   5.701  26.935  0.3212  0.2633  0.2760
 9375W        W52366  19.268  25.335  22.869  0.3782 -0.0287  0.0890
 9376W        W52367   1.957  29.478   0.036  0.2020  0.1618 -0.1464
 9377W        W52368   2.795  12.313  11.348 -0.0966 -0.1230  0.1612
 9378W        W52369  19.496   1.791   7.049 -0.1302 -0.2598  0.1774
 9379W        W52370  18.983  15.782  28.333  0.1120 -0.1200  0.0990
 9380W        W52371  12.495  10.330   3.635  0.0264 -0.3944  0.1566
 9381W        W52372  12.684  26.690   6.705 -0.1256 -0.0068 -0.0298
 9382W        W52373  10.390  22.316  20.550 -0.3681  0.3192 -0.0209
 9383W        W52374   8.361  33.999  28.191  0.0304 -0.0890  0.1594
 9384W        W52375  11.510  12.322   4.860 -0.1507  0.0293 -0.2019
 9385W        W52376  20.124   6.742   0.036  0.1253 -0.0148 -0.5309
 9386W        W52377  25.491  33.877   0.020 -0.1418  0.1459 -0.3694
 9387W        W52378  20.510   1.976  27.443  0.1513  0.0704  0.0376
 9388W        W52379  23.228  19.309   6.143 -0.2282  0.1991  0.0945
 9389W        W52380  26.436   2.562   5.384 -0.0224 -0.1369 -0.2026
 9390W        W52381  30.007   6.212  22.857 -0.0247 -0.2450  0.2095
 9391W        W52382  14.864  11.403   9.203 -0.0436 -0.1218 -0.1254
 9392W        W52383  17.640  32.592  19.552 -0.1226  0.1693  0.0692
 9393W        W52384  15.208  34.628  24.577  0.1967 -0.2746 -0.0296
 9394W        W52385  13.022   5.539  27.980 -0.2651 -0.1877 -0.3560
 9395W        W52386  14.494   0.359   1.185  0.1939  0.1009 -0.2952
 9396W        W52387  32.998   2.072   5.578 -0.3132  0.1389 -0.4417
 9397W        W52388  24.370   1.465   9.455 -0.0078 -0.0860 -0.2700
 9398W        W52389  30.272  33.543   1.950  0.1019  0.5654  0.1229
 9399W        W52390  30.801  14.253   5.853  0.2607  0.1886  0.2857
 9400W        W52391  24.810   1.616   0.696  0.1347 -0.3672 -0.1392
 9401W        W52392  24.543  34.393  28.909  0.0513  0.0873 -0.1263
 9402W        W52393  17.288  31.094   5.908 -0.0716  0.1010 -0.2883
 9403W        W52394  24.767  30.647  17.856 -0.0315 -0.0865 -0.1926
 9404W        W52395  12.302  24.755   9.491 -0.0477  0.2548 -0.2020
 9405W        W52396  21.338  11.101   4.961  0.3563 -0.0408  0.0152
 9406W        W52397  10.792   7.087  28.382  0.0288  0.0362  0.1683
 9407W        W52398  15.641  20.281   1.389 -0.2343 -0.1974 -0.0662
 9408W        W52399  21.796  28.077  28.380 -0.3637 -0.0639  0.1437
 9409W        W52400  30.093   9.803  28.328 -0.1001 -0.0942 -0.0845
 9410W        W52401   5.521  34.520  27.775 -0.2238 -0.0046 -0.2100
 9411W        W52402  14.220  30.120   8.416  0.1798  0.3014  0.0000
 9412W        W52403  11.730  21.711   0.564 -0.0411  0.3746  0.0331
 9413W        W52404  25.558   5.641   8.083  0.0690 -0.0281  0.0681
 9414W        W52405  10.828  10.496  10.061  0.1792 -0.1639  0.4279
 9415W        W52406  21.174  19.069  23.033  0.0489  0.0818 -0.1220
 9416W        W52407  19.956  14.619  24.019  0.0037 -0.0034  0.1837
 9417W        W52408  22.606   4.147   6.914  0.1263 -0.1041 -0.2801
 9418W        W52409  22.741   4.811   3.632  0.1123 -0.1674 -0.1175
 9419W        W52410  10.711   4.131   8.000 -0.0394 -0.0726  0.3403
 9420W        W52411  28.955  20.976   1.772 -0.1100  0.1795  0.1457
 9421W        W52412   8.976  28.186   6.180  0.0917  0.0184  0.0988
 9422W        W52413  24.143   7.419   4.736  0.1288  0.0658 -0.0262
 9423W        W52414   9.303   3.605   8.692 -0.2506 -0.1257 -0.0139
 9424W        W52415  17.101  10.604   4.969 -0.1101  0.2421 -0.4108
 9425W        W52416  32.615  26.663   0.105  0.0383  0.1768  0.0306
 9426W        W52417  17.874  30.684  27.225  0.3460  0.0284 -0.3578
 9427W        W52418  27.889   5.352   9.818  0.0910  0.0709  0.1296
 9428W        W52419  33.343  34.466   4.751  0.2454 -0.0600 -0.0229
 9429W        W52420  17.170  32.113   5.660  0.2509 -0.0298  0.1384
 9430W        W52421  19.672   8.198   9.604 -0.0763  0.1420 -0.2171
 9431W        W52422   1.740  12.284   4.552  0.1777  0.0041 -0.3431
 9432W        W52423  17.385  25.739  26.304 -0.0699  0.2543 -0.3307
 9433W        W52424  24.982   1.333   4.648 -0.1582  0.1454  0.2782
 9434W        W52425   9.133  33.659  24.269  0.1373  0.2401 -0.0080
 9435W        W52426  20.430  29.410   7.867  0.2758 -0.2668 -0.0530
 9436W        W52427   6.093   8.516   9.411 -0.0976  0.4082  0.3365
 9437W        W52428  22.587  18.897   2.007  0.0842 -0.0683  0.3016
 9438W        W52429   3.495  32.444   8.835  0.2441 -0.6957  0.1352
 9439W        W52430  19.526   5.628   3.554 -0.0267 -0.0519 -0.0934
 9440W        W52431  31.297  34.560   7.890 -0.2515 -0.3373  0.1470
 9441W        W52432  26.052  21.977  15.838 -0.4213  0.0811  0.1349
 9442W        W52433  10.055  31.908  19.071 -0.1447  0.0386  0.1605
 9443W        W52434  18.934  28.720  27.129  0.0371  0.0280  0.1814
 9444W        W52435  26.795   7.834  22.650 -0.0978  0.1999  0.1502
 9445W        W52436  22.330   8.191   5.145 -0.1758  0.2101  0.2540
 9446W        W52437  33.956   1.920  27.255  0.2935 -0.0540  0.0824
 9447W        W52438  25.479  29.897   6.518  0.0429 -0.1078  0.0139
 9448W        W52439   9.606   6.346   8.708 -0.1433 -0.0639  0.1734
 9449W        W52440   8.600  18.318   8.538  0.1662 -0.0891  0.0586
 9450W        W52441  24.909  17.036  25.255  0.0930  0.0521  0.2697
 9451W        W52442  29.284  32.718   4.094  0.1365  0.0085 -0.0965
 9452W        W52443  18.611  32.184  22.307 -0.0778 -0.2877 -0.2134
 9453W        W52444  17.714  34.355   9.825  0.1116  0.3670 -0.0455
 9454W        W52445  11.644   2.998   0.945  0.3894 -0.1804 -0.1127
 9455W        W52446  13.854  18.565  27.391 -0.0512  0.2643  0.1445
 9456W        W52447  11.820  29.013   0.705  0.1012 -0.2522  0.0269
 9457W        W52448   5.200   3.151  28.036 -0.0319 -0.2089  0.0480
 9458W        W52449  18.191  23.574   5.419 -0.0070 -0.1756  0.2159
 9459W        W52450  13.673  31.011  25.368 -0.0467 -0.0751 -0.2393
 9460W        W52451  19.570  32.867  27.303 -0.2631 -0.0523 -0.1569
 9461W        W52452  13.481  26.620  27.013  0.1074 -0.3432  0.1049
 9462W        W52453  27.314  30.235   2.980 -0.0291 -0.0390  0.1387
 9463W        W52454  25.678   9.471   9.169  0.3131 -0.0203  0.0015
 9464W        W52455   0.073   0.996   0.425  0.1292 -0.3775  0.4046
 9465W        W52456  11.392  31.878  27.440 -0.1324  0.1708  0.4149
 9466W        W52457   8.034  21.244   7.599 -0.0567  0.2222 -0.1383
 9467W        W52458   3.276  31.723  26.439 -0.1509  0.0809  0.2169
 9468W        W52459  32.111   7.351  14.470 -0.0200 -0.2188  0.2879
 9469W        W52460  28.823  22.077  26.454 -0.1720 -0.3602 -0.1913
 9470W        W52461  14.130   1.974  10.035  0.0435  0.2530 -0.0295
 9471W        W52462  18.221   5.252   3.716 -0.0145  0.0990 -0.1366
 9472W        W52463  32.374  11.958  20.348  0.2175  0.1216 -0.0453
 9473W        W52464  25.874   4.522   6.377 -0.2326 -0.2658 -0.1520
 9474W        W52465  25.282  18.189   6.664 -0.1252 -0.1237  0.2123
 9475W        W52466  18.156  28.538  22.384 -0.1784 -0.1080  0.1625
 9476W        W52467  13.524   1.701   3.110 -0.0659 -0.2292  0.1409
 9477W        W52468  34.657   5.572   2.444 -0.2689 -0.1038  0.1522
 9478W        W52469  17.185  31.823   9.609 -0.2887  0.0587 -0.3935
 9479W        W52470  15.903  10.780   8.973 -0.3173  0.2704  0.1557
 9480W        W52471  17.590  15.750  26.488  0.1965  0.2380  0.0242
 9481W        W52472  31.057  10.535   0.224 -0.4279 -0.0149  0.1524
 9482W        W52473  10.354   7.942   5.965  0.0252  0.2590  0.4084
 9483W        W52474  17.842  29.857   3.143 -0.0614 -0.1842  0.2881
 9484W        W52475  30.899   2.450   3.645 -0.3343  0.2883 -0.1660
 9485W        W52476  25.998  24.504   1.292 -0.2331 -0.3292  0.1570
 9486W        W52477  18.688  28.773   4.640  0.0421  0.1539 -0.1784
 9487W        W52478  10.209   6.791   9.168  0.3690 -0.1193  0.1314
 9488W        W52479  18.716  27.794  26.834  0.4427  0.2279 -0.1380
 9489W        W52480   5.992  20.155  23.124 -0.0388 -0.2113  0.3771
 9490W        W52481  14.764  18.247   3.349  0.2260  0.3005  0.1919
 9491W        W52482  26.479  34.279  23.703  0.1332 -0.0966 -0.0711
 9492W        W52483   6.691  26.286   7.859 -0.2357  0.1266 -0.1426
 9493W        W52484  25.114  22.793   8.737  0.0469  0.0076 -0.3365
 9494W        W52485  26.552  28.983   6.538 -0.3451  0.1011  0.1225
 9495W        W52486  17.342  34.450  27.766  0.0609 -0.1590  0.6108
 9496W        W52487  15.937  14.897  14.777  0.3157  0.0750 -0.2337
 9497W        W52488  21.779  21.765  19.810 -0.0103 -0.1631  0.1624
 9498W        W52489   6.164  27.002   6.661 -0.0865 -0.1591 -0.2339
 9499W        W52490  24.272  18.308  26.701  0.0673  0.0278  0.1197
 9500W        W52491  16.306  12.855   3.476  0.1244 -0.3948 -0.0991
 9501W        W52492  19.316   1.471   9.059  0.1165 -0.3335  0.2056
 9502W        W52493  11.517  12.294   7.442  0.5774  0.0588  0.0785
 9503W        W52494  15.075  16.168  24.069  0.2368  0.1029  0.3049
 9504W        W52495   9.755  13.487  10.226  0.2949  0.1241 -0.0414
 9505W        W52496  17.304  28.853   6.912 -0.0389 -0.0482 -0.0993
 9506W        W52497  19.209  12.776  27.955  0.2529  0.3233  0.0861
 9507W        W52498  34.218  33.851   5.954 -0.3197  0.0281 -0.0212
 9508W        W52499  32.459  33.142   7.212 -0.6086  0.1294 -0.1998
 9509W        W52500  28.826  26.604   8.862  0.1951  0.2184 -0.1058
 9510W        W52501  14.720  23.081  24.367 -0.1773 -0.1113  0.1359
 9511W        W52502  17.433  31.390   5.114  0.0332  0.0407  0.0869
 9512W        W52503  26.837  33.684   3.138  0.0146  0.2820  0.1571
 9513W        W52504   2.644  18.242   4.039 -0.1851  0.1660 -0.3044
 9514W        W52505  14.584   2.299   4.070 -0.1018  0.0232  0.2047
 9515W        W52506  10.884  24.264   6.569  0.1454  0.0164  0.0525
 9516W        W52507  18.643  16.954   8.047  0.0525  0.2208 -0.0041
 9517W        W52508  13.348  12.741  27.702 -0.2806  0.0476 -0.3013
 9518W        W52509  12.770  15.660   2.091  0.0791 -0.0379 -0.0511
 9519W        W52510  16.076   1.977   9.261  0.0822  0.0611  0.5519
 9520W        W52511   9.128   6.128  10.567  0.1059  0.0856  0.1755
 9521W        W52512  14.534  19.368   5.795  0.0256 -0.2724 -0.2338
 9522W        W52513   7.071  28.485  10.535  0.0759  0.0259 -0.0087
 9523W        W52514  18.149  19.316   8.378 -0.1119  0.1520 -0.2714
 9524W        W52515  14.802  30.203   9.884  0.0296 -0.0952  0.1109
 9525W        W52516  29.475  29.622   4.488 -0.0864  0.0937 -0.0793
 9526W        W52517  17.458  30.725   5.523 -0.1479  0.3669  0.2036
 9527W        W52518  18.881  34.362   0.654 -0.0515 -0.0503  0.3338
 9528W        W52519  23.214   5.635  24.756  0.0447  0.1157  0.0447
 9529W        W52520  16.308  34.289  25.605  0.2081 -0.1658  0.1417
 9530W        W52521  11.264   0.015  28.619  0.1124  0.1688 -0.3514
 9531W        W52522  11.206   5.812   8.453  0.1927  0.1469  0.2088
 9532W        W52523  27.400  22.527   4.882  0.2256 -0.2200 -0.0815
 9533W        W52524  22.685  12.435   0.732 -0.0178  0.0974 -0.4026
 9534W        W52525  33.146   3.361   7.675 -0.1015 -0.1423  0.0971
 9535W        W52526  14.755   6.577  22.747  0.1830  0.0498  0.0701
 9536W        W52527  22.884   1.499  23.759  0.0314 -0.1236  0.5007
 9537W        W52528   4.648  22.190  10.122  0.1688  0.0606  0.1092
 9538W        W52529  25.717  22.362  19.717  0.0235 -0.3386  0.1588
 9539W        W52530  22.464   7.690   3.049  0.1155  0.1207 -0.0522
 9540W        W52531  16.678  22.908   1.038  0.1424  0.0757  0.1191
 9541W        W52532  26.855   2.858   5.443  0.2205 -0.3128 -0.1427
 9542W        W52533  26.571   0.774   4.257 -0.0207  0.0115  0.0983
 9543W        W52534   2.729  30.823   8.240 -0.2814 -0.1257  0.1376
 9544W        W52535  10.837  20.863   6.479  0.0041  0.3844 -0.1712
 9545W        W52536  24.015   2.557   1.737 -0.0032  0.2082  0.2622
 9546W        W52537  23.641  29.393   5.785 -0.3409  0.1357  0.1515
 9547W        W52538  15.011   1.192  27.470 -0.0534  0.1169 -0.1045
 9548W        W52539  25.635  33.348   5.703 -0.0723 -0.1561  0.0482
 9549W        W52540   4.751  15.676   4.201 -0.1584 -0.0006  0.1890
 9550W        W52541  15.884  26.437   3.284  0.0773  0.2886 -0.1800
 9551W        W52542  14.470  32.938   5.153 -0.0029  0.0213 -0.0351
 9552W        W52543   5.693  31.057  28.114 -0.0088  0.2547 -0.0333
 9553W        W52544  29.483   6.140   3.353  0.1974  0.0869  0.0678
 9554W        W52545  27.313  30.303   5.741 -0.5072  0.1896 -0.2678
 9555W        W52546  24.276  18.729  22.606 -0.2850 -0.0578  0.2236
 9556W        W52547   8.219  28.783  24.748  0.0709  0.1167  0.1442
 9557W        W52548  10.576  31.772   8.373 -0.0239 -0.0853  0.2213
 9558W        W52549  17.150   7.252   9.236 -0.1861  0.2956  0.0151
 9559W        W52550  30.129  22.679  28.529  0.0543 -0.0806 -0.0211
 9560W        W52551  33.862   8.225  11.338  0.0863  0.1519  0.2050
 9561W        W52552   6.469  12.715   8.807  0.0453  0.0311 -0.1474
 9562W        W52553  29.366  16.924   1.860  0.0473  0.5979  0.2244
 9563W        W52554  15.285  16.349   2.733 -0.2490  0.3193 -0.0286
 9564W        W52555  34.158   8.329  27.612  0.2063 -0.1450  0.3178
 9565W        W52556  10.216   4.171   2.972 -0.2109 -0.4488  0.3784
 9566W        W52557   6.611   6.603   9.531  0.3889 -0.0142  0.1573
 9567W        W52558  13.297  18.480   7.417 -0.0937  0.1563 -0.3186
 9568W        W52559  18.870   8.371   1.424 -0.3136  0.0995  0.0978
 9569W        W52560  20.887   6.079   8.404  0.1391  0.1143 -0.3489
 9570W        W52561   0.367  16.792   5.575 -0.1762 -0.0301 -0.1853
 9571W        W52562  13.333  33.271   4.178 -0.1250 -0.1110  0.0085
 9572W        W52563   2.275  12.055   3.159  0.1779 -0.1203 -0.0517
 9573W        W52564  11.522  24.858  29.032  0.1655  0.1720 -0.3240
 9574W        W52565  17.141  10.609   2.352  0.0490 -0.0202 -0.2038
 9575W        W52566  17.857   4.857  24.425 -0.1398  0.0358 -0.0340
 9576W        W52567  26.075  18.902  26.374  0.1181  0.2789 -0.4086
 9577W        W52568  28.896   3.917   6.168  0.0878  0.0591 -0.2298
 9578W        W52569   0.991  27.914   5.290  0.1332  0.1369  0.1999
 9579W        W52570  23.189  12.083  25.308  0.1415  0.1812 -0.0496
 9580W        W52571  26.398   3.970  28.453 -0.0847 -0.1273 -0.2752
 9581W        W52572   3.892  25.197   3.849  0.0601 -0.0548  0.3816
 9582W        W52573  29.496  24.649   7.747 -0.2341 -0.1823  0.5363
 9583W        W52574  28.311  21.953   5.759 -0.0024  0.3399  0.1081
 9584W        W52575  22.819   5.922   8.502 -0.1300  0.0061 -0.0301
 9585W        W52576  19.882  26.059  28.148 -0.2232  0.0789 -0.1059
 9586W        W52577  15.208  17.147   8.788  0.0025 -0.2585  0.1760
 9587W        W52578  18.768   1.779   4.177  0.1244 -0.1042  0.1566
 9588W        W52579  26.063  21.291   6.950  0.1223 -0.2032  0.0808
 9589W        W52580  19.852   3.600  15.023 -0.1384  0.0893 -0.0405
 9590W        W52581  25.172  19.150  26.033  0.0622  0.1168 -0.0079
 9591W        W52582  22.683  30.610   3.122  0.0456  0.0450 -0.0531
 9592W        W52583  22.590   5.781   6.019 -0.2331 -0.1225 -0.2431
 9593W        W52584  11.399   3.589   5.284  0.0319  0.2880  0.2308
 9594W        W52585  15.795   0.898   7.965 -0.0603  0.2649  0.2383
 9595W        W52586   2.822  26.163   2.639 -0.0309 -0.2203  0.1427
 9596W        W52587  23.512  33.343   4.346 -0.0266  0.1233  0.0187
 9597W        W52588  17.907  17.399  26.091  0.1530  0.1149  0.2099
 9598W        W52589  29.655  33.699   0.329  0.2254  0.3680 -0.0399
 9599W        W52590  30.123  33.598  15.204  0.0223 -0.0746  0.1335
 9600W        W52591  20.539  20.839  21.527  0.5346  0.2740 -0.0847
 9601W        W52592  15.477  11.298   7.364  0.1153  0.2645 -0.1092
 9602W        W52593  33.380  31.115  27.125  0.0039 -0.2069 -0.3073
 9603W        W52594  27.267  15.140  10.233  0.0428 -0.1506 -0.0820
 9604W        W52595  19.157   1.460  21.195 -0.1888  0.2251 -0.1650
 9605W        W52596  16.093  14.785   4.710 -0.0851  0.4783 -0.2986
 9606W        W52597  17.772   7.799   7.479 -0.0838  0.2693 -0.2842
 9607W        W52598  13.428   1.985  24.225 -0.0331  0.1533 -0.0052
 9608W        W52599  21.315   1.702  20.572 -0.0189  0.1323  0.0240
 9609W        W52600  18.132   0.199   5.489 -0.2308  0.4269  0.0339
 9610W        W52601   6.750  23.834   0.421 -0.0412  0.0171 -0.3308
 9611W        W52602   7.754  34.744  24.358 -0.1048 -0.2761 -0.0208
 9612W        W52603   0.928   6.453   6.184 -0.3443  0.0825 -0.0659
 9613W        W52604  27.860  10.458   7.265 -0.0339  0.2557  0.1930
 9614W        W52605  20.739  16.501   6.740  0.0780  0.0934  0.3915
 9615W        W52606   9.090   6.472  16.192  0.1964 -0.0662 -0.3078
 9616W        W52607  14.994   9.385  20.444  0.0799  0.0618 -0.0402
 9617W        W52608   9.243  15.941   5.859 -0.2219  0.0234 -0.2263
 9618W        W52609  14.322  10.083  24.299  0.0984  0.0124 -0.3608
 9619W        W52610  32.794  21.242   7.279  0.0675 -0.1232 -0.0890
 9620W        W52611  13.056   5.973   7.739  0.0719 -0.1187  0.3174
 9621W        W52612  23.853   5.083   6.774  0.2644 -0.0113  0.1479
 9622W        W52613  20.883   1.539  26.260  0.0200 -0.2102  0.0574
 9623W        W52614  14.937  10.410   6.098  0.0632 -0.0100 -0.0517
 9624W        W52615  12.894  18.047  28.869  0.0985 -0.0767  0.3064
 9625W        W52616   9.223  28.460   2.159 -0.2397  0.1000  0.2749
 9626W        W52617  12.685   8.340   2.702  0.1051  0.1395  0.2194
 9627W        W52618  16.687  11.907  15.674  0.0538  0.2791 -0.0238
 9628W        W52619  17.965  10.584   2.358  0.0183  0.3815 -0.0954
 9629W        W52620   5.213   0.836   5.834 -0.1434 -0.1101 -0.0498
 9630W        W52621  29.710  30.549   6.673 -0.0131 -0.3098  0.1069
 9631W        W52622  24.721  11.775   5.407  0.0654  0.1952  0.0063
 9632W        W52623  24.045  31.139   4.245 -0.0028 -0.0229  0.3047
 9633W        W52624  27.441  28.549  23.409 -0.1019 -0.1564 -0.0119
 9634W        W52625   1.623  23.198  22.907 -0.1919  0.0380 -0.3500
 9635W        W52626  14.895  11.355   6.629  0.3222  0.2058 -0.2285
 9636W        W52627  29.446  33.133  23.168  0.0708 -0.1314  0.3595
 9637W        W52628  10.683  23.957   5.556  0.1395  0.2004  0.0126
 9638W        W52629  21.403  21.879   4.967  0.1115 -0.1824  0.0242
 9639W        W52630  16.065   8.583  28.243  0.0407  0.1472  0.1899
 9640W        W52631  28.393   1.923  21.541 -0.2356 -0.2443 -0.1703
 9641W        W52632  33.354  34.631   7.970  0.3524 -0.2275  0.1236
 9642W        W52633  11.453  11.297   5.089 -0.1376  0.0590 -0.0265
 9643W        W52634  27.888   5.001   6.163  0.3604 -0.0944 -0.2003
 9644W        W52635  16.458  24.100  27.344 -0.0856  0.0451 -0.2831
 9645W        W52636  30.957  10.535   3.386 -0.0093 -0.1173  0.0952
 9646W        W52637  17.330  26.431  29.011 -0.1402  0.1615  0.0403
 9647W        W52638  15.914  33.076   4.886  0.0053 -0.2288 -0.2121
 9648W        W52639  22.384  31.626   3.511  0.0044  0.0754  0.1480
 9649W        W52640  29.860  16.866   1.663 -0.0488  0.1060 -0.0163
 9650W        W52641  18.505   2.298   3.745 -0.2554  0.3796 -0.1261
 9651W        W52642  26.636   7.955  25.363  0.1145 -0.0425  0.1676
 9652W        W52643  33.956   0.951   4.728  0.4154  0.1137 -0.0729
 9653W        W52644  14.894   8.694   2.576  0.2917  0.0173  0.1809
 9654W        W52645  31.535  10.588   9.495 -0.5276 -0.0079 -0.0749
 9655W        W52646  18.731   7.889  24.293  0.1448  0.1322 -0.0924
 9656W        W52647  28.106   7.789  21.695 -0.0165 -0.2400 -0.0163
 9657W        W52648  13.396   0.928   3.581  0.1916 -0.2834 -0.0719
 9658W        W52649  15.818   3.334  24.013  0.0577  0.1438 -0.0824
 9659W        W52650  14.697  20.517   5.224  0.1858 -0.0686 -0.1705
 9660W        W52651  17.770  23.115  28.054  0.0132 -0.1424 -0.0107
 9661W        W52652  29.600  21.065  24.431  0.1023  0.2709 -0.1212
 9662W        W52653  16.381   6.950  23.546 -0.1408  0.1632 -0.1389
 9663W        W52654  19.288  29.150   5.813 -0.3531 -0.3925  0.3881
 9664W        W52655  29.280   2.800   4.530  0.1217 -0.0982  0.1697
 9665W        W52656  19.109   1.906  24.176 -0.1668  0.0443 -0.2952
 9666W        W52657  30.595   0.837  27.216 -0.0466 -0.4019 -0.0750
 9667W        W52658   1.994  24.375  27.916  0.2269 -0.2558 -0.1534
 9668W        W52659  24.721  24.843   8.838  0.0013  0.1769 -0.1894
 9669W        W52660   7.913   5.528  18.468 -0.1107  0.0473 -0.1701
 9670W        W52661  17.542   7.846  19.911  0.0035  0.1172 -0.0161
 9671W        W52662  11.535  29.992   5.500 -0.3732 -0.3978 -0.0358
 9672W        W52663  16.469  14.604  22.507  0.2697 -0.3856 -0.2940
 9673W        W52664   9.432  15.752  27.340 -0.2101  0.0519  0.3462
 9674W        W52665  28.453  21.935   2.261 -0.1576 -0.0538 -0.1262
 9675W        W52666   8.258  33.096   7.313 -0.1071 -0.3399 -0.4661
 9676W        W52667  20.976   5.553   4.912  0.1030 -0.1732  0.0119
 9677W        W52668  24.034  27.752   6.744  0.0912  0.2718  0.2429
 9678W        W52669  13.016  28.610   9.225  0.1638 -0.0131 -0.2375
 9679W        W52670   8.589  19.850  24.723 -0.0193  0.3931  0.1634
 9680W        W52671   4.423  21.037   5.377 -0.1628 -0.2533 -0.0496
 9681W        W52672  28.484  34.226   5.192  0.0670  0.4106  0.0800
 9682W        W52673  20.776   1.911  19.729 -0.2886 -0.1956 -0.2717
 9683W        W52674  13.613   4.478  28.206  0.1210  0.4216  0.1304
 9684W        W52675   4.630   4.803   2.344 -0.4845  0.0275 -0.1995
 9685W        W52676  12.020  30.343  24.698  0.0147  0.2901 -0.0761
 9686W        W52677  23.480   4.235   3.342 -0.0641 -0.1237 -0.0681
 9687W        W52678  16.866  13.887   8.759 -0.2579 -0.0257  0.1497
 9688W        W52679  25.532  20.508   4.853 -0.5387  0.1748  0.0536
 9689W        W52680   7.539  34.310  19.462  0.1522 -0.2734 -0.0398
 9690W        W52681  30.558   0.806  24.321  0.0578 -0.3413 -0.1889
 9691W        W52682  16.944  11.729  22.393 -0.2522 -0.3202  0.2154
 9692W        W52683  16.623   7.678   2.286 -0.0023  0.2288  0.4800
 9693W        W52684   2.501   0.764   1.353  0.1838 -0.1151 -0.0582
 9694W        W52685   8.077  10.361   9.757  0.0299 -0.2160  0.2086
 9695W        W52686  18.068  11.929   0.591  0.1380  0.1832  0.2067
 9696W        W52687   9.312  34.587   4.474 -0.0604 -0.2469  0.0187
 9697W        W52688  25.414  11.817  17.988 -0.2125  0.6237 -0.2990
 9698W        W52689  17.211  20.145   4.984 -0.0268  0.1098  0.0516
 9699W        W52690  27.864   6.515   7.707  0.2731  0.1841 -0.0075
 9700W        W52691   6.409   4.152   5.448  0.1502 -0.1929  0.0360
 9701W        W52692  16.838  22.446   3.157 -0.2787 -0.0034  0.5122
 9702W        W52693  19.888   6.143  10.121  0.0946 -0.0355 -0.0153
 9703W        W52694  24.123  25.760  17.919 -0.0043  0.2503  0.0559
 9704W        W52695  21.740   1.735  27.210  0.2754 -0.1138 -0.1702
 9705W        W52696  21.276   5.696   5.670 -0.0187 -0.0480 -0.1569
 9706W        W52697  26.544  31.111  21.347  0.2091  0.2255 -0.0382
 9707W        W52698  13.077   8.631   9.626 -0.2296  0.0416 -0.3053
 9708W        W52699   8.899  11.410  28.329  0.3203  0.1198 -0.2987
 9709W        W52700  18.460  33.972  17.335 -0.2879 -0.1082 -0.0658
 9710W        W52701  20.944   9.949   7.834 -0.0175 -0.1803 -0.0501
 9711W        W52702  34.150  27.404   3.793 -0.3018  0.0783 -0.0677
 9712W        W52703  11.361  26.937   6.490  0.3558 -0.1427  0.2015
 9713W        W52704  17.068  33.217  19.076 -0.2014  0.1537 -0.1208
 9714W        W52705  23.555  10.180  23.949  0.0037 -0.3572  0.0077
 9715W        W52706  32.760   7.120   1.982 -0.1493 -0.0806 -0.1760
 9716W        W52707  31.930  13.200  15.787 -0.0683  0.1075  0.1443
 9717W        W52708   7.385  10.102   0.941 -0.0017 -0.1504 -0.0431
 9718W        W52709   6.670  20.282   4.098  0.2027 -0.1247  0.1528
 9719W        W52710  33.993   6.889   5.773 -0.2212  0.0247  0.1016
 9720W        W52711  17.903  18.469   0.586 -0.2015  0.3615 -0.0324
 9721W        W52712  16.594  30.405   3.211  0.1225  0.0135 -0.1042
 9722W        W52713  10.404   4.624  26.772 -0.1681 -0.1808  0.0342
 9723W        W52714  25.779   3.583  23.984  0.2020  0.0336  0.3301
 9724W        W52715  19.906   4.413   6.434  0.2275  0.0147 -0.0848
 9725W        W52716  29.016   2.181   2.663  0.0804  0.0938  0.1091
 9726W        W52717  21.539   1.576   3.167  0.0629  0.1921 -0.2495
 9727W        W52718  10.438  17.090  29.082  0.2150  0.2339 -0.0298
 9728W        W52719  24.514   8.080  18.514 -0.2922  0.4511 -0.0788
 9729W        W52720   4.272   2.547   6.430 -0.0646  0.1786  0.0730
 9730W        W52721   6.157  18.263  16.303 -0.0603  0.1659  0.0174
 9731W        W52722  28.013  26.264   2.961  0.0193  0.0895 -0.0486
 9732W        W52723  20.560   6.652  25.740 -0.2269 -0.3306 -0.0179
 9733W        W52724  23.504   1.616  23.008  0.0449 -0.0018 -0.0280
 9734W        W52725  26.021  16.731   6.896 -0.2037 -0.2207 -0.2648
 9735W        W52726  22.111  33.936   3.395  0.1692 -0.0202 -0.1746
 9736W        W52727   0.425  15.328   4.358  0.0894  0.1671 -0.0796
 9737W        W52728  21.624  13.828   1.316  0.3651  0.2948  0.0544
 9738W        W52729  26.431   5.379   6.495 -0.1410 -0.3578 -0.1828
 9739W        W52730  10.976   1.603   8.173 -0.2033  0.0212  0.0033
 9740W        W52731  15.245  11.220  27.710  0.1074 -0.0680 -0.3511
 9741W        W52732   0.076  29.932   4.465  0.0669 -0.1080 -0.0645
 9742W        W52733  14.798  34.234   6.338  0.2131 -0.4140 -0.1241
 9743W        W52734  27.881  19.575   5.514 -0.2811 -0.0224 -0.1838
 9744W        W52735  11.748  30.514  27.406  0.1504  0.3547 -0.0861
 9745W        W52736  12.974   9.643   7.377 -0.2150 -0.3723  0.2773
 9746W        W52737  18.647   2.140  26.025 -0.2216  0.0018  0.0085
 9747W        W52738  15.394   7.015  10.574  0.0931  0.0877  0.1658
 9748W        W52739   1.756   0.148   5.414 -0.1170 -0.0099 -0.1680
 9749W        W52740  22.186   8.204  24.522 -0.4208 -0.3475  0.1320
 9750W        W52741  11.780  32.610  28.786 -0.2526  0.1679  0.0468
 9751W        W52742  13.913   6.205   3.939 -0.5239  0.1232  0.2101
 9752W        W52743  20.376   1.832   0.746  0.2224 -0.1192  0.2958
 9753W        W52744  28.351   9.679  19.115  0.1096  0.1507  0.3464
 9754W        W52745  28.017   1.363  18.278 -0.1275 -0.3513 -0.0011
 9755W        W52746  26.261   7.010   1.723  0.4114 -0.2783  0.0944
 9756W        W52747  27.949  30.743   5.513 -0.1565 -0.0340  0.1832
 9757W        W52748  18.337   5.277  29.144  0.1278  0.1135  0.2980
 9758W        W52749  21.894  13.575   2.764 -0.2343 -0.0689 -0.0235
 9759W        W52750  15.306  18.294   6.599 -0.0932  0.1106  0.2473
 9760W        W52751  12.373   3.360  18.681 -0.0630 -0.0668  0.0400
 9761W        W52752   2.153   2.098   6.463 -0.1247  0.0030 -0.3345
 9762W        W52753   5.304  16.111   9.047 -0.1273 -0.0800 -0.0694
 9763W        W52754  11.880  25.944   3.390 -0.0456 -0.0738  0.0936
 9764W        W52755  21.881   3.137   9.069 -0.1268  0.0292 -0.3140
 9765W        W52756  13.528   9.241   9.630 -0.3770  0.0667 -0.0794
 9766W        W52757  28.880  21.465   6.606  0.0694 -0.0164  0.0083
 9767W        W52758  21.007  19.448  27.658 -0.0456  0.3098 -0.0607
 9768W        W52759  17.007   2.100  21.160 -0.0685 -0.2591 -0.1905
 9769W        W52760  23.033   8.415  19.504 -0.0663 -0.1039 -0.0917
 9770W        W52761   8.595   2.106  23.815  0.1700 -0.4453  0.3702
 9771W        W52762  16.562  21.066   0.123  0.2339  0.1239  0.0674
 9772W        W52763  23.307  29.075  20.840  0.0461  0.1434 -0.2176
 9773W        W52764  18.372   0.667  28.093 -0.0838 -0.1395  0.1429
 9774W        W52765  11.858  23.344  27.903 -0.4230 -0.3569  0.0952
 9775W        W52766  19.882  22.452  20.597  0.0231  0.2923  0.1965
 9776W        W52767  16.698  17.740   4.821  0.1207  0.0735 -0.0939
 9777W        W52768   7.296   4.079   5.030 -0.0452  0.2617  0.0003
 9778W        W52769  30.207  27.149   8.698  0.1162 -0.0721  0.3145
 9779W        W52770  16.378  19.079   7.918 -0.0826  0.1229 -0.0697
 9780W        W52771  13.871  22.323   6.310 -0.0894  0.1546 -0.1271
 9781W        W52772  33.562   8.440  10.002  0.3518  0.0888  0.0197
 9782W        W52773  17.704  12.124   1.447 -0.1467 -0.1076  0.1502
 9783W        W52774   6.563  12.304   2.743  0.0354 -0.1690  0.4997
 9784W        W52775  19.512   1.845   1.344  0.0279  0.1722  0.0688
 9785W        W52776   5.325   0.292  26.314 -0.0612 -0.2936  0.0418
 9786W        W52777  26.904  26.114  25.964 -0.1134 -0.0478 -0.0228
 9787W        W52778  29.556  34.121  20.955 -0.0018  0.1459 -0.1045
 9788W        W52779  24.165  10.480  28.029 -0.1208 -0.2169 -0.0043
 9789W        W52780  10.957  34.403   5.533  0.0608 -0.0757  0.1408
 9790W        W52781  20.401   8.273  21.597  0.1963  0.4186  0.0205
 9791W        W52782  11.221   4.839   3.978  0.0368 -0.0941 -0.0343
 9792W        W52783  13.368  24.538   0.228  0.2158  0.0214 -0.3277
 9793W        W52784   7.056  18.469  27.324 -0.1496 -0.0720 -0.0973
 9794W        W52785  20.846  27.815   7.824 -0.0929 -0.0395  0.1296
 9795W        W52786  31.417  12.389   8.360  0.2202 -0.1303  0.3698
 9796W        W52787  14.813  23.515  26.321 -0.1029 -0.2005  0.0990
 9797W        W52788  14.386  12.280  23.890 -0.2193  0.1603  0.0763
 9798W        W52789   9.997  30.905   5.038 -0.2031 -0.0134  0.2205
 9799W        W52790  18.539  10.257   0.497 -0.0902 -0.3313 -0.0509
 9800W        W52791  19.484  31.636   1.347 -0.0483 -0.1436 -0.2221
 9801W        W52792  21.032   9.153   1.502 -0.0200  0.0857 -0.1891
 9802W        W52793  19.570  12.167   3.275  0.0810 -0.1510  0.2458
 9803W        W52794   9.809   5.817   5.925  0.0265 -0.0187 -0.3091
 9804W        W52795  23.855  18.380  28.225  0.0161 -0.2142 -0.0556
 9805W        W52796  22.017  26.512  26.522 -0.1421 -0.0063  0.0477
 9806W        W52797  22.232  16.061   4.325 -0.0630  0.1580 -0.0122
 9807W        W52798  26.683   8.869  24.323  0.0199  0.0450 -0.1289
 9808W        W52799  24.202  29.445  26.903  0.1343  0.0805  0.0505
 9809W        W52800  12.677  11.349   2.238  0.2164  0.0833  0.0208
 9810W        W52801  10.597  10.046   4.547  0.0091  0.0343  0.1497
 9811W        W52802  26.492   3.977  13.298 -0.0256 -0.1577 -0.0285
 9812W        W52803  20.465   2.428  26.368  0.1421  0.0954  0.2300
 9813W        W52804  15.872  19.142  27.299  0.0649 -0.0184 -0.1217
 9814W        W52805  33.797  11.616   7.415  0.2054 -0.0971  0.2191
 9815W        W52806  21.486  22.147   1.211 -0.0911 -0.0548  0.0048
 9816W        W52807  23.065   1.798   3.933  0.1768 -0.2235  0.1827
 9817W        W52808   2.710  32.749  28.708 -0.1310  0.0409  0.0133
 9818W        W52809   4.766   3.098   3.255  0.2734  0.0300 -0.1473
 9819W        W52810  19.373  10.090  21.354 -0.1471 -0.1308 -0.0364
 9820W        W52811   5.566  21.906  27.069 -0.2408 -0.1466 -0.3553
 9821W        W52812  31.339  20.019   7.157  0.0544 -0.1234  0.2281
 9822W        W52813  32.898   9.812  25.872  0.0536  0.0159  0.3904
 9823W        W52814   5.527  24.960  16.640 -0.1461  0.1037  0.2234
 9824W        W52815  12.650  34.430  26.164  0.1686 -0.3469 -0.5316
 9825W        W52816  26.959   5.393   9.383 -0.2650  0.0458  0.1992
 9826W        W52817  29.715  33.906   8.657 -0.3310  0.0572  0.1356
 9827W        W52818  19.469   2.562   5.610 -0.1462 -0.2207  0.2294
 9828W        W52819  23.070  29.674  14.643 -0.1320  0.4543 -0.5768
 9829W        W52820  24.392   4.275  19.633 -0.1648 -0.0084 -0.0288
 9830W        W52821   5.119  34.350  25.705 -0.1897 -0.2583  0.0884
 9831W        W52822  25.263  11.174  15.173 -0.1072 -0.0807 -0.1009
 9832W        W52823   6.780   1.729  28.501  0.2547  0.2078 -0.0603
 9833W        W52824  17.338   9.887  27.990 -0.0164  0.1824 -0.3541
 9834W        W52825  24.414   2.982  26.925 -0.1694  0.1322 -0.0212
 9835W        W52826   5.866  31.133   6.846 -0.0417  0.0668  0.2437
 9836W        W52827  15.465   8.455   3.223 -0.2662  0.1929 -0.0014
 9837W        W52828  34.568   0.435  15.838  0.4942 -0.1300  0.0257
 9838W        W52829  25.015  31.565   7.993 -0.2573 -0.1209 -0.1014
 9839W        W52830  33.198  15.991   5.080  0.4118 -0.1921 -0.1562
 9840W        W52831  23.060   2.043   6.771 -0.2900  0.0142  0.0526
 9841W        W52832  23.661  27.031   8.661 -0.0268  0.1107 -0.1897
 9842W        W52833  24.857   1.873  23.340  0.3056 -0.2809  0.1855
 9843W        W52834   2.032   0.588   9.068  0.0511 -0.2139  0.0022
 9844W        W52835  23.553  32.607  14.350 -0.1495 -0.0610 -0.0889
 9845W        W52836  28.613  11.893  28.569 -0.0563  0.1808  0.0066
 9846W        W52837  13.046  34.553  20.144 -0.0468  0.1112  0.5136
 9847W        W52838  18.057  22.792   4.444 -0.1946  0.1188 -0.2582
 9848W        W52839  16.193   5.104  25.197 -0.3506 -0.0985 -0.2067
 9849W        W52840  22.466   7.989  24.154  0.0045 -0.0494  0.0449
 9850W        W52841  19.527  10.204  28.315 -0.1267  0.0065 -0.2063
 9851W        W52842  10.765   6.976   9.132 -0.3274  0.2023  0.0985
 9852W        W52843  23.361   0.933  22.581  0.1701 -0.1130  0.1682
 9853W        W52844  19.602  34.673   2.339 -0.0033  0.0632  0.0896
 9854W        W52845  31.069  30.101   3.522  0.1153  0.1114  0.1084
 9855W        W52846  17.151   2.906   9.837  0.0348 -0.0290 -0.0861
 9856W        W52847   2.334  18.998   5.906 -0.2575 -0.2824 -0.0708
 9857W        W52848   1.625  32.169   6.277 -0.0989  0.0720 -0.1280
 9858W        W52849  15.703  31.308   8.369  0.1756 -0.0291 -0.0660
 9859W        W52850  34.175  13.578   4.317 -0.0182  0.0677 -0.0120
 9860W        W52851  30.952  20.444   4.074  0.0327  0.3635  0.0438
 9861W        W52852  22.787   7.501  26.024  0.0640 -0.1189  0.1488
 9862W        W52853  17.933   1.293   2.905 -0.0969 -0.1614 -0.0908
 9863W        W52854   5.947  32.469   7.804  0.2792 -0.0123 -0.1082
 9864W        W52855  21.029  14.766  25.647 -0.1724  0.2652 -0.0738
 9865W        W52856  22.218  15.499   4.294  0.1494 -0.0408 -0.1195
 9866W        W52857  31.427   7.353   8.397  0.1388 -0.2067  0.0727
 9867W        W52858  15.201  22.706  20.309 -0.3301 -0.0049  0.2186
 9868W        W52859  18.335   9.117   2.201  0.3232 -0.2997  0.1241
 9869W        W52860  10.844  25.132   1.171  0.1025 -0.0127  0.0615
 9870W        W52861  16.939  22.798  20.891  0.0223 -0.0654 -0.0667
 9871W        W52862  24.809  21.814  19.520 -0.1827  0.1611  0.2342
 9872W        W52863  13.710   8.138  16.710 -0.2133 -0.0313  0.0405
 9873W        W52864  21.437  10.825   8.678  0.2221  0.0767  0.0734
 9874W        W52865  11.044  14.803  10.814  0.0693  0.0456 -0.4055
 9875W        W52866  11.245  16.011   1.506  0.0902  0.1702 -0.3779
 9876W        W52867  29.835  34.048   5.822  0.0267 -0.0495 -0.1903
 9877W        W52868  17.540  23.053   3.165 -0.0668 -0.1396 -0.0619
 9878W        W52869  10.095  17.124   4.717  0.0428  0.0222  0.0269
 9879W        W52870  20.795  29.478   0.464  0.1587  0.2257 -0.2025
 9880W        W52871   0.168  12.606   9.703  0.0286 -0.0631 -0.2089
 9881W        W52872  31.559  28.526  19.575  0.1219  0.1008  0.0205
 9882W        W52873   4.920   7.192   2.929 -0.0525 -0.3935 -0.2322
 9883W        W52874  14.704  28.348   7.939 -0.1680 -0.0967 -0.1959
 9884W        W52875  15.491  15.635   4.693 -0.0645 -0.0016 -0.3018
 9885W        W52876  21.223  26.111   0.345  0.0603  0.0023 -0.0020
 9886W        W52877  15.021   3.126  11.304  0.0404  0.3655 -0.0173
 9887W        W52878   8.223   6.243   8.140  0.3034  0.1775  0.0981
 9888W        W52879  19.886  15.866  17.206  0.3149  0.0131  0.0946
 9889W        W52880  16.973  11.099   8.233 -0.0984 -0.0100  0.0238
 9890W        W52881  30.456   8.075   9.955  0.1454  0.2339  0.1060
 9891W        W52882  13.162  13.819  25.422  0.0567 -0.0320 -0.1546
 9892W        W52883  10.364  32.063  29.178  0.0607 -0.2316  0.4138
 9893W        W52884   1.492   4.020   9.008  0.0836 -0.1305 -0.1564
 9894W        W52885  24.334  34.347   8.775  0.0579 -0.0585 -0.0417
 9895W        W52886  25.738  17.224  20.739 -0.0555  0.0467 -0.0949
 9896W        W52887  26.746  21.842  13.425  0.0619  0.2760 -0.1073
 9897W        W52888  26.433  18.454  20.027  0.0226 -0.2284  0.2390
 9898W        W52889   4.803  26.052   3.870 -0.3649  0.1325  0.0801
 9899W        W52890  20.183   4.173   1.713  0.1359  0.1049 -0.3325
 9900W        W52891   9.708  24.872   3.445  0.0254  0.2301 -0.1885
 9901W        W52892  10.231  10.697   6.895 -0.3113 -0.0197 -0.1672
 9902W        W52893  23.908  32.815   0.178  0.1857 -0.4189  0.1252
 9903W        W52894   7.838  33.667  24.734 -0.1303  0.1580  0.2789
 9904W        W52895  30.776  30.787   0.475 -0.1730  0.2736 -0.3360
 9905W        W52896  19.893  28.618  21.426  0.1301 -0.0735 -0.0239
 9906W        W52897  19.401   9.810  28.602 -0.3053 -0.2355 -0.1673
 9907W        W52898  14.585  34.256   4.684  0.2981  0.0814 -0.1649
 9908W        W52899  18.468   1.599  27.388  0.0704 -0.3013  0.2587
 9909W        W52900  19.211   7.778   7.091 -0.2974 -0.1397 -0.0250
 9910W        W52901  11.772   0.096   3.133  0.0321 -0.1456  0.0977
 9911W        W52902   9.860   5.428  27.466 -0.2751  0.1875  0.2314
 9912W        W52903  12.820   6.839   5.801  0.2278 -0.0253 -0.0416
 9913W        W52904  24.237  25.901   2.711 -0.0313 -0.4461  0.4964
 9914W        W52905   4.089  31.634  27.577 -0.0591 -0.1122 -0.2521
 9915W        W52906  30.459   4.026   8.060 -0.1081  0.1499 -0.0670
 9916W        W52907   0.369  10.684  10.436  0.1094 -0.1416  0.2802
 9917W        W52908  18.704  33.338   3.974  0.1789  0.1370  0.2108
 9918W        W52909  30.295   9.954  24.302 -0.0047  0.2339 -0.0947
 9919W        W52910  33.331   6.830   1.217 -0.0010 -0.0159  0.0521
 9920W        W52911  17.909  10.814   1.890  0.1545  0.0092  0.2408
 9921W        W52912  28.910   5.489  27.245 -0.1673  0.0564 -0.1638
 9922W        W52913  33.358  14.280  27.489 -0.1292  0.2403  0.0407
 9923W        W52914  24.278  19.148   1.242 -0.0583 -0.4197 -0.3040
 9924W        W52915  22.513   6.823  18.661  0.2499  0.1378 -0.0114
 9925W        W52916  12.973   2.926  24.731  0.2862  0.1060  0.0990
 9926W        W52917  31.894  24.372   4.643 -0.0548  0.4820  0.0523
 9927W        W52918  19.606  31.846   7.910  0.1982 -0.0336  0.2493
 9928W        W52919  28.252  31.559   2.237 -0.4010 -0.0816 -0.1466
 9929W        W52920  20.783   3.510   6.148  0.1242  0.0667  0.2454
 9930W        W52921  31.612   9.765  28.496 -0.2582 -0.0418  0.0434
 9931W        W52922  33.732   4.818  26.480  0.0006 -0.0248  0.1339
 9932W        W52923   4.531   5.060  10.299  0.1491 -0.3653 -0.0892
 9933W        W52924  16.512   8.363   9.825  0.1688 -0.2340  0.1289
 9934W        W52925  17.581   9.998  20.993 -0.0607 -0.0682 -0.0326
 9935W        W52926  31.315  13.805   9.561 -0.0872  0.3114  0.1024
 9936W        W52927  14.931   4.824  25.785 -0.2521  0.0741  0.0542
 9937W        W52928  19.896  31.180  27.574 -0.1623  0.2235  0.0004
 9938W        W52929  14.125  18.965   5.779  0.2270 -0.0469 -0.1018
 9939W        W52930  17.237  32.371  10.228 -0.0932  0.0360 -0.0969
 9940W        W52931   9.970   9.053  10.293 -0.4941  0.0318  0.4043
 9941W        W52932  12.751  11.828  27.353  0.0306 -0.1108 -0.1751
 9942W        W52933  15.345   5.074   2.769  0.1179 -0.0825  0.0590
 9943W        W52934  23.562  25.395   1.930  0.0905 -0.1826  0.0500
 9944W        W52935  14.370  10.040   6.627 -0.0049 -0.1887 -0.3406
 9945W        W52936  25.991   0.835  25.810  0.2465  0.1152  0.0104
 9946W        W52937  11.926  25.013   2.727  0.3450 -0.1491 -0.0712
 9947W        W52938  30.220  19.903   3.973  0.0198 -0.0159 -0.0685
 9948W        W52939  29.288   8.616  27.373 -0.0145 -0.1044  0.0797
 9949W        W52940  18.147  10.302  14.349 -0.0898  0.1951  0.0661
 9950W        W52941  19.687  27.977   4.506 -0.0968 -0.2057 -0.3148
 9951W        W52942  17.408  17.277  25.859  0.0293  0.3895  0.2550
 9952W        W52943  15.848   8.375  20.196 -0.2411  0.2725 -0.2724
 9953W        W52944  13.397  20.470  27.656 -0.2613  0.0694  0.2133
 9954W        W52945  24.714  11.033  15.725  0.3841 -0.0319  0.0206
 9955W        W52946  26.669  19.772   3.534 -0.1834 -0.0142  0.2273
 9956W        W52947  13.980   6.409   4.442 -0.1184 -0.0448  0.0333
 9957W        W52948  26.373  16.119  22.908  0.1214 -0.2365  0.0506
 9958W        W52949  27.547  30.725  14.886 -0.3981 -0.1548  0.4147
 9959W        W52950  20.333  17.207  28.749  0.2631  0.1357  0.2503
 9960W        W52951  10.486  14.238  28.948  0.0916 -0.0814 -0.1362
 9961W        W52952  19.758  30.266   9.172 -0.0897 -0.1746 -0.3765
 9962W        W52953  28.785   9.429   1.878  0.3678 -0.1428  0.1961
 9963W        W52954  22.953  29.296   5.765  0.0639 -0.0594 -0.0067
 9964W        W52955  33.012   1.521  21.739 -0.0480  0.1561 -0.4095
 9965W        W52956  12.332  15.913   9.307  0.2385  0.2179 -0.0350
 9966W        W52957   9.870   0.023  21.400 -0.0482  0.0746  0.0562
 9967W        W52958  22.155   1.011  16.575 -0.2666  0.0870 -0.1704
 9968W        W52959  23.288  28.633   2.324  0.0621 -0.1572 -0.2192
 9969W        W52960  18.826  20.463  18.664  0.0573  0.2599 -0.0122
 9970W        W52961  21.188  15.981   0.927  0.0991  0.0613  0.4536
 9971W        W52962  27.774  23.573   3.246 -0.3565  0.3724 -0.0299
 9972W        W52963  30.999   2.781  15.084 -0.2237 -0.0572  0.1430
 9973W        W52964  16.065  30.540   3.623 -0.1618 -0.0666  0.0879
 9974W        W52965  15.256  16.258  27.890  0.0856  0.1586  0.3607
 9975W        W52966  14.996   8.519  23.387  0.2356 -0.2244 -0.0966
 9976W        W52967  25.848   3.507  19.035 -0.0801 -0.2966  0.1617
 9977W        W52968  32.776   2.700  22.521  0.1011  0.2443 -0.2386
 9978W        W52969  25.124   0.092  23.708 -0.0208 -0.0630 -0.1998
 9979W        W52970  18.848  10.624   8.912  0.2397  0.0278 -0.2803
 9980W        W52971  32.611  25.836  22.382 -0.0932  0.0199  0.0820
 9981W        W52972  10.694  28.093   1.254 -0.0591  0.0509 -0.2230
 9982W        W52973   4.486  10.410  23.360  0.0871  0.1121 -0.2997
 9983W        W52974  32.537  33.710   9.064  0.1710  0.3121  0.1035
 9984W        W52975   7.070  32.780  28.489  0.0106  0.0701 -0.2459
 9985W        W52976   4.390   0.719  20.660 -0.0462 -0.0007  0.0119
 9986W        W52977  16.623  31.732   3.326 -0.2304 -0.3712 -0.0899
 9987W        W52978   2.689  19.710   8.718 -0.0542  0.0105  0.0266
 9988W        W52979  19.175  17.067   4.315 -0.2651  0.0121  0.1952
 9989W        W52980  24.960   5.646   3.250 -0.0564 -0.0464 -0.2239
 9990W        W52981  11.607   1.524  27.426  0.3022  0.0402 -0.0193
 9991W        W52982  30.704  30.427   3.764  0.1147 -0.3749  0.1644
 9992W        W52983  15.421  27.609   4.600 -0.1341 -0.1787  0.1055
 9993W        W52984  18.326   1.865  15.438 -0.1547  0.0508  0.3078
 9994W        W52985  24.119  11.687   4.428  0.2473 -0.1220 -0.0411
 9995W        W52986  19.348  11.164   4.198  0.1586 -0.1697 -0.2783
 9996W        W52987  29.484   9.091  26.659  0.0950  0.0363  0.1567
 9997W        W52988  26.713  17.586   4.463  0.1359  0.0090 -0.0847
 9998W        W52989  16.370  25.388   6.901 -0.2848  0.1426  0.0943
 9999W        W52990  14.306   4.246  29.001  0.0454  0.1116 -0.0069
10000W        W52991  18.220  30.299   5.064 -0.3371 -0.0123 -0.1707
10001W        W52992  19.919   2.097   7.331 -0.0430  0.1777  0.2194
10002W        W52993  28.655  21.767   8.559  0.0161  0.3956 -0.2443
10003W        W52994  27.025  33.638   4.210  0.0336 -0.0284 -0.0273
10004W        W52995  25.518  23.793   2.823 -0.0073 -0.1407 -0.0327
10005W        W52996  25.739  19.265   8.591 -0.1143  0.0525 -0.2556
10006W        W52997   1.785  19.154   5.854  0.2150 -0.0576  0.0432
10007W        W52998  22.605  16.766   2.352  0.2852  0.2233 -0.3881
10008W        W52999  16.533   4.375   6.432  0.2109  0.3961 -0.1081
10009W        W53000  16.401  12.902   4.708 -0.0019  0.0432  0.0405
10010W        W53001  23.143   5.446  28.816  0.1212  0.1602 -0.2616
10011W        W53002   8.242  15.791  10.983  0.3320  0.1740 -0.1210
10012W        W53003  15.012  18.105  25.302  0.1666 -0.0553 -0.1576
10013W        W53004  25.677  11.407  26.547 -0.2132  0.2561 -0.0146
10014W        W53005  18.367   2.996   5.062 -0.0074  0.3499  0.1389
10015W        W53006  10.940   2.869   5.636 -0.2315 -0.0066  0.0119
10016W        W53007  20.968  19.405   6.273 -0.1037 -0.0881 -0.1523
10017W        W53008  16.562  33.591   0.705 -0.1243 -0.0353  0.0102
10018W        W53009  21.273  15.621   7.811  0.1763 -0.1086  0.4088
10019W        W53010  18.334   8.361   3.591 -0.0092  0.1329 -0.0767
10020W        W53011   7.357  13.639  28.314  0.2279  0.0735  0.0580
10021W        W53012  12.259  27.711   9.413  0.1739 -0.0443 -0.2003
10022W        W53013  14.958  19.655  26.949 -0.2325  0.1815  0.1307
10023W        W53014  11.259   5.680  27.454 -0.0490  0.2336 -0.0284
10024W        W53015  21.471  26.088   6.530 -0.5430 -0.1545  0.0727
10025W        W53016  15.126  31.181  19.563 -0.1352 -0.2530 -0.0393
10026W        W53017  21.199  32.273  28.371 -0.1810 -0.3550 -0.1293
10027W        W53018  30.274   6.796   5.604  0.1634  0.2518  0.0723
10028W        W53019   5.827   1.163   3.291  0.1893  0.1591  0.0929
10029W        W53020   8.160  10.803  10.634  0.1172  0.0393 -0.1775
10030W        W53021  17.315   1.982   6.498 -0.2892 -0.1037  0.0234
10031W        W53022   5.991   5.992   2.084  0.2340  0.1913 -0.0760
10032W        W53023  21.017  27.348  25.243  0.2796 -0.2802 -0.1073
10033W        W53024  15.861  10.976   4.419  0.1736 -0.4226  0.1174
10034W        W53025  19.980   8.117  29.217 -0.1160  0.2889  0.1245
10035W        W53026   2.232   2.638   6.471  0.0236 -0.0408  0.1238
10036W        W53027  31.068   1.090   0.650 -0.0330 -0.1391  0.1887
10037W        W53028  14.721  29.354   3.031  0.0781  0.1932 -0.3897
10038W        W53029  14.872   9.959  26.899  0.0800 -0.0219 -0.2812
10039W        W53030   7.361  33.518   5.675 -0.0082 -0.1310  0.0197
10040W        W53031  23.045   8.914  26.888 -0.1754  0.1581  0.1869
10041W        W53032  32.950  29.592   2.377  0.2593 -0.2637  0.2532
10042W        W53033  29.218  13.301   2.815  0.1147 -0.0619  0.1421
10043W        W53034  17.660  30.401  16.258  0.4416  0.0191 -0.1296
10044W        W53035  17.010   3.551   6.541 -0.1645 -0.0150 -0.1823
10045W        W53036  16.248   7.488  28.272 -0.0633 -0.0924 -0.1566
10046W        W53037  10.964  12.845  27.795 -0.0845 -0.0744 -0.3151
10047W        W53038  13.617  18.551   7.786 -0.1032  0.1056 -0.0150
10048W        W53039  28.171  17.224  18.669  0.0236 -0.3098  0.4673
10049W        W53040  20.899  25.694  22.149  0.1654  0.2410 -0.0870
10050W        W53041   7.462  10.621  28.927 -0.2995 -0.0298 -0.4912
10051W        W53042  22.760   1.588  22.621  0.0361 -0.2822 -0.2131
10052W        W53043   3.460  16.498   9.721 -0.2251  0.1790 -0.1267
10053W        W53044  19.875  33.839   9.613 -0.1691  0.0057  0.0151
10054W        W53045  29.786   3.126   1.861  0.0591 -0.0686  0.2394
10055W        W53046  19.858  10.725  17.240 -0.2079  0.6424  0.0105
10056W        W53047   6.814  13.762   4.938  0.0235  0.1867  0.1287
10057W        W53048  26.965   7.691  25.563 -0.2438 -0.0010  0.1481
10058W        W53049  10.588  19.498   8.844 -0.0713  0.0799 -0.1855
10059W        W53050   7.774   9.900   3.948  0.0119 -0.0232 -0.0083
10060W        W53051  24.378   2.949  17.561  0.0244 -0.0366  0.0867
10061W        W53052  22.276  23.586  20.838 -0.1516  0.1454 -0.1831
10062W        W53053   6.379  16.372  11.280  0.0689  0.1469 -0.0774
10063W        W53054  14.700  14.957   5.378  0.2780 -0.0599  0.0757
10064W        W53055  26.947   8.462   3.699 -0.0135  0.0053  0.2396
10065W        W53056  25.845  16.950  10.192 -0.1646  0.1382 -0.0813
10066W        W53057   8.069  17.542   1.817  0.1123 -0.6430  0.2681
10067W        W53058  22.927   5.009   4.810  0.3321 -0.1084  0.0163
10068W        W53059  13.963  10.288   0.070 -0.0600 -0.1828  0.3242
10069W        W53060   8.297  10.661  22.089  0.1328  0.1793 -0.0756
10070W        W53061  18.596  13.988   4.365  0.0513 -0.0372  0.1100
10071W        W53062   1.406  15.205  10.419 -0.1343 -0.0986 -0.0201
10072W        W53063  30.700   8.332   7.237 -0.1379  0.1204 -0.0872
10073W        W53064  13.020   4.343   7.026 -0.0187 -0.2172  0.1386
10074W        W53065  17.716  15.360   4.903 -0.0815  0.0197  0.0432
10075W        W53066  22.191  11.372   9.559 -0.1593 -0.3528  0.1877
10076W        W53067   6.695  24.389   8.642  0.0072 -0.0758  0.3256
10077W        W53068  13.389  32.220   5.260 -0.0628 -0.1802  0.2000
10078W        W53069  18.480  23.881  22.379  0.0179 -0.0626 -0.0489
10079W        W53070  19.048  19.518   6.203  0.1103 -0.1166 -0.1407
10080W        W53071  20.029  22.906   3.324  0.0260  0.1038  0.1727
10081W        W53072  14.515  13.796   3.673  0.1010 -0.0170 -0.0906
10082W        W53073   0.955  10.241  10.905  0.0973 -0.0445 -0.0365
10083W        W53074  24.391   2.935   6.060  0.3023 -0.0845  0.0568
10084W        W53075   1.631   7.548   0.328  0.0815 -0.2166  0.0402
10085W        W53076  18.384  19.489  25.826 -0.0818 -0.0724 -0.0116
10086W        W53077  16.700   0.459   2.932  0.2339  0.0898  0.0526
10087W        W53078   5.980  21.558   2.009 -0.0107  0.1960  0.1163
10088W        W53079  21.723  15.780   4.296  0.1212 -0.0480  0.1283
10089W        W53080  13.091  30.597  20.199  0.2133  0.0411 -0.2492
10090W        W53081  11.671  32.090   5.949  0.1248  0.2996  0.5978
10091W        W53082   8.986  20.862  16.960 -0.0655 -0.0932 -0.1910
10092W        W53083  13.746  15.422   6.937 -0.3025  0.2199  0.1457
10093W        W53084   9.443  30.509   7.671 -0.1015 -0.0473 -0.2503
10094W        W53085  19.350  18.741  23.508  0.0892 -0.1108  0.1826
10095W        W53086  31.353  13.082  23.027 -0.0790  0.0076 -0.1610
10096W        W53087   5.553   3.182   6.057  0.0509  0.0605  0.1472
10097W        W53088  32.256  12.506   6.723 -0.0798  0.0051 -0.0795
10098W        W53089  20.309  16.169  28.138  0.4241  0.1835 -0.0720
10099W        W53090  15.978  15.092   0.549 -0.1214 -0.0171 -0.2980
10100W        W53091  13.805  27.275   6.488  0.0772 -0.1822  0.1036
10101W        W53092  19.841  24.360   6.585  0.4011  0.1341  0.4353
10102W        W53093  16.686  15.164  23.582  0.1167  0.0880  0.1014
10103W        W53094  21.314  28.131   7.966  0.2745  0.0347  0.0989
10104W        W53095  12.077  13.453  18.235  0.0871  0.1068 -0.0872
10105W        W53096  19.536  15.883   6.730 -0.2060 -0.2299 -0.0976
10106W        W53097  29.617  33.323   0.738 -0.2192  0.0348  0.0443
10107W        W53098  18.814  14.626  13.511 -0.3919  0.3881  0.0550
10108W        W53099  23.298   7.422   0.386  0.0767  0.0184  0.1380
10109W        W53100  13.848  21.564   3.517  0.1121  0.0377 -0.1651
10110W        W53101   8.287   2.032  24.289  0.2508  0.1003  0.2088
10111W        W53102  21.062  21.849  28.705  0.0674 -0.0322  0.0940
10112W        W53103   1.161  23.087   2.240  0.2514  0.2194 -0.1103
10113W        W53104  25.652  22.286  17.755 -0.0384 -0.1531  0.0563
10114W        W53105  22.100  11.728  18.676 -0.3039  0.0354  0.1312
10115W        W53106   9.428   7.086   2.999  0.2012 -0.0372  0.1315
10116W        W53107  13.525  18.834   1.856  0.3048  0.0123 -0.5686
10117W        W53108  22.722  23.015   6.487  0.1895  0.2535 -0.0184
10118W        W53109  26.809  34.559  25.907 -0.0309 -0.0611  0.0525
10119W        W53110   8.162  27.839   0.229 -0.2349 -0.0455 -0.0447
10120W        W53111  26.836  20.910   4.413 -0.1232 -0.1431  0.2228
10121W        W53112  11.993  34.440   1.351 -0.2302  0.1680  0.2026
10122W        W53113  23.683   2.790   5.369  0.1329 -0.0398  0.0810
10123W        W53114  18.437  16.290   4.000  0.0625 -0.2278 -0.3918
10124W        W53115  17.536   4.959   2.709 -0.0624  0.2039  0.1620
10125W        W53116   0.893   2.616   4.344  0.1654 -0.0796  0.1515
10126W        W53117  13.493   8.655   7.614  0.0869 -0.4496  0.0662
10127W        W53118  14.392   9.747   4.562  0.1623 -0.0774 -0.2584
10128W        W53119   7.824  14.763  23.707 -0.0248 -0.0300  0.1838
10129W        W53120  16.671   7.164  28.332 -0.1525 -0.0905 -0.1709
10130W        W53121  21.639   7.282   1.474 -0.1659 -0.1435  0.0086
10131W        W53122  18.138  16.209  15.156  0.1321 -0.3299 -0.2034
10132W        W53123  33.576  13.889  11.592 -0.0325  0.2628 -0.1473
10133W        W53124  17.769  10.786   4.255 -0.0788 -0.2599  0.2852
10134W        W53125  28.493   2.944   1.657  0.2220 -0.0814 -0.0341
10135W        W53126  23.211   2.104   6.204  0.0942  0.0631  0.2757
10136W        W53127  17.634  20.222  27.679 -0.1219 -0.0060 -0.0125
10137W        W53128  15.737  22.264  24.039  0.0286 -0.1696  0.0754
10138W        W53129  26.439  15.485   3.098  0.1738  0.1038  0.1310
10139W        W53130  24.585   9.884   6.099  0.1043 -0.1184  0.2442
10140W        W53131  13.310   3.935   7.599 -0.0379  0.1840  0.1887
10141W        W53132   6.156  23.960  17.883 -0.0650 -0.0573  0.1974
10142W        W53133  20.269   6.227   8.841  0.0165 -0.1223  0.0336
10143W        W53134  21.361  12.552  27.558 -0.2554 -0.1156 -0.2440
10144W        W53135  15.774   6.178  28.052  0.0865 -0.0339  0.1096
10145W        W53136  32.418   3.787  28.888  0.3737 -0.0356 -0.2125
10146W        W53137  22.840  33.184   7.404  0.2579 -0.0472 -0.0328
10147W        W53138  17.328  34.684   7.196  0.2782  0.0068  0.0836
10148W        W53139   9.953  23.430  21.708 -0.2904 -0.0881 -0.1901
10149W        W53140  18.823   2.293   3.361  0.1351 -0.0978 -0.0841
10150W        W53141  20.707  34.650  18.811  0.0204  0.0877  0.1073
10151W        W53142  33.514  10.346   4.209 -0.2128  0.0129 -0.1703
10152W        W53143  19.239  34.692   7.022 -0.0167 -0.0542  0.3931
10153W        W53144  14.247   6.920   2.182  0.2772 -0.1230  0.2228
10154W        W53145  15.236   5.253  29.085  0.1486  0.0090  0.0251
10155W        W53146  31.125  34.248   5.446 -0.0903  0.1300 -0.0089
10156W        W53147  26.133   1.148  28.791  0.3528  0.0046  0.4205
10157W        W53148  23.537  33.170   2.612  0.0007 -0.1900  0.0645
10158W        W53149  28.688  14.809   8.252  0.1076 -0.0522  0.0386
10159W        W53150  18.696  31.983   0.368  0.1297 -0.1002 -0.1383
10160W        W53151  20.281  30.672   1.229 -0.0631  0.2772  0.1845
10161W        W53152  32.523  29.245   2.420  0.1233  0.1648  0.1013
10162W        W53153  25.282   2.916   4.658 -0.1119  0.0539 -0.0163
10163W        W53154  22.477  23.258  28.588 -0.0139 -0.0630  0.1301
10164W        W53155   1.588  15.306   8.412 -0.1253  0.1256 -0.2414
10165W        W53156  17.640  12.141  25.648  0.2133 -0.3766  0.2344
10166W        W53157  23.308   3.956   1.344 -0.1327  0.0215 -0.1762
10167W        W53158  21.359  11.428   3.023 -0.0188 -0.4390 -0.1927
10168W        W53159  24.359  20.878  23.253 -0.1343  0.0691  0.0639
10169W        W53160   0.861  15.098   4.205 -0.0988 -0.0584 -0.1261
10170W        W53161  24.735  15.580  27.925  0.4319  0.1557  0.2159
10171W        W53162  13.008  12.799  27.046  0.3983  0.3966  0.1110
10172W        W53163  20.788  12.336  20.510  0.0521 -0.0302  0.4043
10173W        W53164  29.278   2.243   1.576 -0.2221 -0.3510 -0.2667
10174W        W53165  19.202  23.543  14.388  0.2088  0.1696 -0.1373
10175W        W53166  18.369   8.604   7.276 -0.2622 -0.2259  0.1919
10176W        W53167  16.303   5.400   3.630 -0.0884  0.0769 -0.0853
10177W        W53168  29.103   5.266   7.717 -0.3089 -0.1438 -0.1344
10178W        W53169  16.887  33.917   7.750 -0.1067 -0.0346 -0.2125
10179W        W53170  20.437  15.983  25.217 -0.3006 -0.3459  0.0902
10180W        W53171   5.073  18.476   2.976  0.1205 -0.2817 -0.1609
10181W        W53172  19.535   5.471  21.290 -0.3698  0.0850 -0.1542
10182W        W53173  25.175   9.066  23.288 -0.0742 -0.0095 -0.0361
10183W        W53174   9.259  11.925   8.614 -0.0560 -0.2154 -0.0742
10184W        W53175  13.100  29.105   5.601  0.0065 -0.2682 -0.0462
10185W        W53176  21.804  29.872  28.146  0.1058  0.2207  0.3611
10186W        W53177  30.169  28.000   2.173  0.1181 -0.1295 -0.0228
10187W        W53178  22.348  26.928   6.219 -0.0773 -0.3234 -0.3268
10188W        W53179   9.231   9.309   2.997 -0.3129  0.4838 -0.0003
10189W        W53180  15.904  17.493   2.535  0.1817  0.0628  0.0938
10190W        W53181  25.927   0.407   5.863 -0.1063 -0.3466  0.0565
10191W        W53182  14.842   7.673  10.446 -0.3996  0.0116 -0.1925
10192W        W53183  25.134  30.230   2.733 -0.0382  0.0783 -0.4156
10193W        W53184  26.471  33.469  16.411  0.2627  0.2316 -0.1286
10194W        W53185   1.766   6.003   7.432  0.2335 -0.1910  0.0358
10195W        W53186  27.352  10.020   8.833 -0.1298 -0.0873  0.1372
10196W        W53187   5.314  20.150  11.811  0.0463  0.3622  0.1446
10197W        W53188  25.689  30.991   0.704 -0.0420  0.1061  0.4420
10198W        W53189   7.316  25.988   9.185 -0.1113 -0.2118 -0.1924
10199W        W53190   4.816  25.174   4.958  0.1484 -0.3190 -0.1599
10200W        W53191  15.033   4.050   6.174 -0.0974  0.0066 -0.2976
10201W        W53192  25.308  27.677   2.384  0.0366  0.0820  0.0072
10202W        W53193  21.063   4.924  25.047 -0.0669  0.0804 -0.0311
10203W        W53194  22.326  14.236  26.939 -0.3892 -0.1454 -0.2127
10204W        W53195  23.713  17.108   6.703 -0.1090  0.0695 -0.2336
10205W        W53196  21.686  33.981   3.680 -0.0007  0.2603  0.2297
10206W        W53197  23.451  10.868   5.476 -0.0958 -0.2956  0.2367
10207W        W53198  26.269   3.492  24.503  0.0829 -0.1215  0.2274
10208W        W53199  10.525  34.438  27.079  0.1721 -0.2903  0.0080
10209W        W53200   8.698  34.614   9.234 -0.1202 -0.0747  0.0742
10210W        W53201  21.581   8.283  26.402  0.2028 -0.0234 -0.0348
10211W        W53202  16.046   7.794  23.445  0.1578 -0.1931 -0.2432
10212W        W53203  32.929  10.528   7.030 -0.1120 -0.0718 -0.0481
10213W        W53204  15.685  24.916  22.989 -0.2851  0.0864 -0.2134
10214W        W53205  30.580   0.034  21.913 -0.1017 -0.1517 -0.1325
10215W        W53206  30.695  12.171   6.570  0.1210  0.0490 -0.0071
10216W        W53207  14.880  32.726  25.168  0.1036 -0.0998 -0.2520
10217W        W53208  31.772   5.370   5.785 -0.3047 -0.0353  0.2080
10218W        W53209   9.100   0.405   7.607  0.2380 -0.3174 -0.1240
10219W        W53210  12.488   9.061  27.012  0.3479  0.0205 -0.0566
10220W        W53211  21.032  33.018  17.530  0.0765  0.3332 -0.2005
10221W        W53212  21.054  11.173   8.849 -0.1109 -0.0514  0.3896
10222W        W53213  19.598   8.236  24.192 -0.0415 -0.0321 -0.0640
10223W        W53214  12.017  11.819  26.442  0.0030  0.4147  0.4544
10224W        W53215  16.833  10.207   2.157  0.0280 -0.1034  0.0225
10225W        W53216   1.656  11.285   0.092 -0.1853 -0.2016  0.1622
10226W        W53217  12.235  14.277   0.861 -0.0714  0.0315 -0.1326
10227W        W53218  12.658  31.529   6.786 -0.0483  0.1513 -0.2740
10228W        W53219  26.854  13.255   7.369 -0.2633  0.2986 -0.2776
10229W        W53220  24.358  26.484   3.151  0.1059  0.0928  0.1217
10230W        W53221  13.481   6.263  27.698 -0.0803  0.0405 -0.1019
10231W        W53222  31.052   7.175   3.357  0.2970  0.2163  0.0078
10232W        W53223  33.298  13.375  27.981  0.1599 -0.2896 -0.1725
10233W        W53224  26.994  18.158  28.030 -0.1034 -0.0969 -0.0013
10234W        W53225  17.146  18.630   2.910  0.2225  0.2776 -0.1614
10235W        W53226  21.735  31.948   2.205  0.3349  0.0410  0.1413
10236W        W53227   9.324  31.048  25.886 -0.0779 -0.4043  0.0756
10237W        W53228  17.421  17.308   7.050  0.1730  0.3892  0.0509
10238W        W53229   7.438  30.437   2.383  0.1996 -0.0663 -0.0378
10239W        W53230   7.946  16.395   0.283 -0.1686  0.2023  0.1839
10240W        W53231  25.804   5.231   1.466 -0.1892 -0.0689 -0.0602
10241W        W53232   6.268   9.222   6.463  0.1283  0.3720  0.0332
10242W        W53233   2.209   7.460   9.938 -0.2101 -0.0975 -0.0015
10243W        W53234  24.869  15.325  21.913 -0.1496 -0.0507 -0.0595
10244W        W53235  28.679  23.939   3.024 -0.0135 -0.0314 -0.1234
10245W        W53236  27.157   6.278   9.363  0.0752 -0.0422 -0.2191
10246W        W53237  26.247  16.175   4.292  0.0899 -0.0312  0.0151
10247W        W53238  18.012  27.322  17.434  0.3045 -0.0076  0.0265
10248W        W53239  31.389  17.862   9.419  0.1447  0.3149  0.0236
10249W        W53240  10.401  31.200  20.617  0.3287  0.1815  0.2688
10250W        W53241  24.414  16.896   6.460  0.0089 -0.0239 -0.1740
10251W        W53242   2.241  25.668  25.533  0.2334  0.1639  0.1688
10252W        W53243  27.448  29.017  27.092  0.0525 -0.1601  0.3512
10253W        W53244  22.407   9.074  19.744  0.0124  0.0353 -0.0613
10254W        W53245  25.385  14.293   6.371 -0.2428 -0.0853  0.0920
10255W        W53246  29.904   7.398   0.452 -0.0185 -0.2655  0.0709
10256W        W53247  17.207  15.816   1.618  0.0489 -0.1891 -0.1506
10257W        W53248  14.408  16.025   4.558 -0.0788 -0.2674  0.1361
10258W        W53249  14.046   0.243   2.761 -0.0942 -0.0153  0.2773
10259W        W53250  26.516   1.886   0.313  0.0243 -0.0076 -0.1738
10260W        W53251   1.201   8.229   2.982  0.0793  0.0499 -0.4439
10261W        W53252  13.472   9.732  29.037  0.1158 -0.3308 -0.2903
10262W        W53253  19.992  28.169  20.485  0.2099 -0.0722 -0.1788
10263W        W53254  18.311  22.471   0.076 -0.0302  0.2239 -0.0097
10264W        W53255  18.922  34.475   8.280  0.1671 -0.1938  0.4261
10265W        W53256  15.192  11.438   1.532  0.1303  0.1033 -0.1208
10266W        W53257  21.130  19.964  20.974  0.2468  0.3583  0.0420
10267W        W53258  31.925  34.284   4.543 -0.1947 -0.2845 -0.0725
10268W        W53259   5.419  11.345  28.564  0.0045 -0.1309 -0.3220
10269W        W53260  11.907  22.957   0.915  0.0997  0.1529  0.1047
10270W        W53261  20.415  13.327   3.549 -0.0721 -0.0334  0.1285
10271W        W53262   1.005  34.579   6.394  0.1249  0.1164 -0.3584
10272W        W53263  13.480  16.700  28.141 -0.0583  0.0159  0.1676
10273W        W53264  30.702   4.614   0.660 -0.0170 -0.2366  0.0745
10274W        W53265  10.035   9.371   4.027  0.0038  0.4296 -0.2489
10275W        W53266  24.761   8.706   7.955 -0.0463 -0.2252 -0.2495
10276W        W53267  20.549   7.525   4.664 -0.0821  0.0187  0.4049
10277W        W53268  19.478   0.779   9.511  0.0657  0.0870  0.0896
10278W        W53269  25.643   2.790   3.737 -0.2509  0.0675 -0.0838
10279W        W53270  30.890   2.639   8.209 -0.0097  0.2441 -0.1433
10280W        W53271  19.319  15.125  25.344 -0.1644  0.0479 -0.0267
10281W        W53272  24.313  11.163   4.358  0.2093  0.2399 -0.1101
10282W        W53273  10.202  26.541   0.402  0.2594 -0.0854  0.4016
10283W        W53274  32.360  25.135  23.882  0.0352  0.0651  0.3772
10284W        W53275  26.518  11.691   6.982  0.5491  0.1218  0.0371
10285W        W53276   1.251  19.331   3.599 -0.1533  0.0896 -0.4148
10286W        W53277  31.372   2.100   9.459 -0.3522 -0.2459  0.1020
10287W        W53278  28.128   2.713   5.486  0.2576  0.2548  0.0628
10288W        W53279  15.242  24.585   6.562  0.0320  0.2030  0.0579
10289W        W53280  15.011   6.018  19.516 -0.1542  0.0099 -0.0781
10290W        W53281  23.132   5.236   9.440 -0.2465  0.3460 -0.1828
10291W        W53282   5.723  10.951   7.418  0.1451 -0.0480 -0.0291
10292W        W53283  17.496   3.238   3.566  0.3011  0.0511 -0.0439
10293W        W53284  13.599  15.049  24.312  0.0998 -0.2264 -0.0100
10294W        W53285  15.274  17.392   0.547 -0.2341  0.3473 -0.1938
10295W        W53286  27.007  34.506   7.295 -0.1170  0.0641  0.2883
10296W        W53287  12.150   5.433   8.189 -0.1929  0.0500 -0.1989
10297W        W53288  20.738   6.841   1.176 -0.0250 -0.0277 -0.0872
10298W        W53289  19.263  30.566  28.276  0.1156 -0.1198  0.3193
10299W        W53290   1.082   0.135  22.430  0.2394 -0.0130  0.1924
10300W        W53291  11.931  32.353  27.016 -0.2555 -0.0609 -0.1895
10301W        W53292  29.269  13.386  25.571 -0.0140  0.1880 -0.2497
10302W        W53293   8.527   3.287   0.180 -0.1794  0.1028 -0.3023
10303W        W53294  12.730   8.113   7.319  0.1457  0.2155 -0.0096
10304W        W53295  17.929  33.324   6.005  0.2132  0.0558 -0.3914
10305W        W53296  18.565   7.061   9.520 -0.2024  0.2068  0.0503
10306W        W53297  23.355  26.157  22.360  0.1275 -0.2660  0.2834
10307W        W53298  22.748  28.776  27.650 -0.0432 -0.1951 -0.3185
10308W        W53299  14.617   8.134   3.563  0.1638 -0.0253  0.0116
10309W        W53300  23.331   6.022   4.342 -0.0900  0.0306  0.2067
10310W        W53301  16.600  17.732   7.263 -0.1244  0.1448  0.1432
10311W        W53302  23.712   7.383   4.493  0.0614 -0.1924 -0.0589
10312W        W53303  16.488   1.184  26.490  0.0848  0.0848 -0.1612
10313W        W53304  15.919  33.558   4.646  0.0609 -0.2012  0.2371
10314W        W53305  31.027   7.337   5.835 -0.3933  0.0383  0.1448
10315W        W53306  11.860  12.541  26.112  0.1121  0.1365  0.1646
10316W        W53307   5.906   3.223  24.793  0.1352 -0.1696 -0.1810
10317W        W53308  27.558   6.185  28.130 -0.0474  0.0681 -0.1036
10318W        W53309  16.896  14.960   3.368 -0.0221 -0.4333 -0.2542
10319W        W53310  15.157  10.976   8.452 -0.1844  0.1467 -0.3588
10320W        W53311  26.351   6.155  20.595 -0.4210 -0.0393  0.1489
10321W        W53312  17.664   3.086  15.959  0.2178 -0.3226  0.0943
10322W        W53313  16.702   6.935  24.723  0.0712 -0.1494 -0.1255
10323W        W53314  18.242  30.423   2.312  0.0581 -0.1151  0.2202
10324W        W53315  26.279   3.947   2.736  0.0089  0.0318 -0.0944
10325W        W53316  17.798   3.986   9.528 -0.0887  0.0217 -0.2465
10326W        W53317  11.078  33.141   3.748  0.0117 -0.1971  0.2136
10327W        W53318  12.426   8.326   3.574  0.1170 -0.0147 -0.0832
10328W        W53319  20.532  34.205   1.015 -0.3177  0.1915  0.2571
10329W        W53320  16.226  25.131   3.934 -0.1497 -0.3256  0.2766
10330W        W53321  23.607   4.819  28.917 -0.0487 -0.6789 -0.0435
10331W        W53322  24.226  25.016   8.787  0.0981 -0.0547  0.4065
10332W        W53323  19.813   4.116   5.241  0.0604  0.0621 -0.0989
10333W        W53324   4.373  24.281   6.260  0.0370  0.4260 -0.0339
10334W        W53325  28.551  24.353   2.519  0.1487 -0.4018  0.1538
10335W        W53326  16.056  17.234  28.431  0.2779  0.1178  0.2522
10336W        W53327  17.248   4.343   8.338  0.2220  0.0769  0.3090
10337W        W53328   4.504   4.573   7.338  0.0614  0.1677  0.1347
10338W        W53329   8.130  31.730   3.225 -0.0073  0.0052  0.0995
10339W        W53330  18.308  13.285   7.027 -0.0760  0.1982  0.1608
10340W        W53331  25.338  17.324   1.261 -0.3617 -0.3095  0.0851
10341W        W53332  18.080  20.413  24.927 -0.1822 -0.0837  0.0825
10342W        W53333   9.482   9.262  24.594  0.1217 -0.0658 -0.2278
10343W        W53334  21.083   1.321   1.202  0.0787  0.2199  0.2655
10344W        W53335  16.219  15.159   2.743 -0.0497 -0.0894 -0.2302
10345W        W53336  25.311  33.347   3.045  0.3578 -0.0168  0.0004
10346W        W53337  15.588  25.636   1.998  0.2146  0.2363 -0.2244
10347W        W53338  26.306   5.118   5.160  0.0753 -0.0579 -0.1409
10348W        W53339  22.114  22.189   7.644  0.3880 -0.2774 -0.3041
10349W        W53340  23.563   0.679   2.105 -0.2509  0.0585  0.2082
10350W        W53341   6.589  25.519  28.411 -0.0496 -0.1064 -0.3885
10351W        W53342  34.021  17.000  21.072  0.0568  0.1890 -0.4082
10352W        W53343  24.393  33.037  29.239  0.0993 -0.1285 -0.1802
10353W        W53344  22.421  26.874   7.411  0.2348 -0.2556  0.1213
10354W        W53345  18.842   9.426  25.700 -0.0360 -0.2645 -0.0490
10355W        W53346  16.367  16.504   7.165 -0.2015  0.1438 -0.4221
10356W        W53347  18.947   5.484   4.556  0.2803  0.1450  0.0516
10357W        W53348  21.105   8.918  23.894 -0.0713  0.2401  0.2239
10358W        W53349  29.191   2.866  21.260  0.1310 -0.4375 -0.0594
10359W        W53350  19.076   0.874  27.583  0.0031 -0.3279 -0.1519
10360W        W53351  18.261  12.764  24.059  0.1701  0.0253  0.0502
10361W        W53352  12.623  29.089   7.959 -0.3311 -0.1247  0.0180
10362W        W53353  31.910  34.562   1.604 -0.0942  0.3495  0.0853
10363W        W53354  22.649  17.682   6.470  0.2059 -0.0859 -0.0736
10364W        W53355   7.162  26.500  23.088  0.2678  0.1449  0.2385
10365W        W53356   6.153   4.479  14.927 -0.0308  0.1571  0.1343
10366W        W53357  21.595  20.381  23.128 -0.1213 -0.1766  0.0389
10367W        W53358  24.181  32.103   7.934  0.0397  0.0866  0.2549
10368W        W53359  26.874   5.442   5.076  0.1076 -0.1606  0.1781
10369W        W53360   9.731  12.910   7.300 -0.1407  0.0352  0.1001
10370W        W53361  22.767   7.525   0.928  0.0234 -0.0176 -0.1058
10371W        W53362  17.105   4.155  24.104 -0.2174  0.0849  0.0349
10372W        W53363  25.933  15.497  13.993  0.1630  0.0434  0.2581
10373W        W53364   8.266   6.192  25.722 -0.2656 -0.1735 -0.0399
10374W        W53365  16.114   1.806   4.194  0.3063 -0.2334  0.1549
10375W        W53366  21.913  19.696   6.644 -0.3698 -0.3262 -0.1298
10376W        W53367  26.602  10.185   7.671  0.2116 -0.1449  0.2038
10377W        W53368  12.656  27.986   0.069 -0.1301  0.0174 -0.0794
10378W        W53369  18.448   4.773   2.559  0.2799 -0.1577  0.0546
10379W        W53370  17.223  17.215   6.064 -0.0857 -0.2637  0.0998
10380W        W53371  32.864  31.665  23.548 -0.2248  0.1673  0.1049
10381W        W53372  21.381  10.107  27.973  0.0565 -0.1813 -0.2250
10382W        W53373  22.009  14.937   8.261 -0.1311 -0.0111 -0.2056
10383W        W53374  34.391   6.377   0.425 -0.2439  0.0383  0.1047
10384W        W53375   4.736   6.679  26.806 -0.3050  0.2574 -0.0081
10385W        W53376  11.628  10.609   9.912  0.0770  0.0021  0.0560
10386W        W53377  20.567   3.771   8.615 -0.1744  0.0013 -0.0635
10387W        W53378  15.919  12.775   6.983  0.3410  0.0865  0.1077
10388W        W53379  10.059  19.612   7.236 -0.0023  0.0284 -0.0716
10389W        W53380  19.438   7.621  27.728  0.2313  0.0360  0.0630
10390W        W53381   5.809  21.222  10.324  0.2363 -0.1378 -0.0118
10391W        W53382  21.610  16.964   1.368  0.2226 -0.0375 -0.0567
10392W        W53383  27.365  14.270   8.695 -0.1401 -0.0566  0.0678
10393W        W53384  14.090   4.511   2.626 -0.0143  0.1807  0.0304
10394W        W53385  23.259  22.862   4.790 -0.0151 -0.0711  0.3200
10395W        W53386  20.013  14.870   8.634 -0.0011 -0.1174  0.1284
10396W        W53387  18.118   7.596   2.360 -0.1653  0.1396 -0.1055
10397W        W53388  17.875   1.255  29.001 -0.0503  0.0054  0.0712
10398W        W53389  15.249   9.540   1.843  0.2991  0.2134 -0.3720
10399W        W53390  33.487  24.815  27.136 -0.1285 -0.0124  0.2204
10400W        W53391  31.152  11.329   3.612  0.3741 -0.0690 -0.1498
10401W        W53392   9.176  25.926   2.779 -0.0270 -0.0167  0.1290
10402W        W53393  13.292  13.216  23.885 -0.0455  0.1764 -0.0656
10403W        W53394  22.767  11.314   9.642 -0.1905 -0.1949 -0.1457
10404W        W53395   7.025   0.060   4.277  0.1956  0.0085 -0.0363
10405W        W53396  24.012  15.007  23.786 -0.1202 -0.0376 -0.1966
10406W        W53397  19.925  26.806  27.940 -0.0215  0.1843 -0.4614
10407W        W53398  26.145   2.741  27.692 -0.2605 -0.3631 -0.1645
10408W        W53399  23.381  17.279   7.096  0.1725 -0.2969  0.0019
10409W        W53400   5.987   4.240   7.243 -0.2204 -0.3255  0.0998
10410W        W53401  13.888  17.442  23.874 -0.0780  0.0965  0.0674
10411W        W53402  14.291   2.051   9.261  0.0358  0.1053  0.0305
10412W        W53403  15.731   2.356   5.847 -0.0377 -0.0881 -0.2320
10413W        W53404  11.010  14.631   6.266 -0.1089 -0.0814 -0.3504
10414W        W53405  17.381   5.674  25.693  0.4248 -0.3523  0.2492
10415W        W53406  26.680  12.754  25.648  0.1297 -0.0053 -0.0249
10416W        W53407  22.590   7.097   9.045  0.0004 -0.0723  0.1461
10417W        W53408  27.688   3.823   3.370 -0.0685  0.2887  0.0736
10418W        W53409  13.989   9.047   9.611  0.1455  0.0029 -0.5802
10419W        W53410  18.833  16.278   1.724  0.1701 -0.1438  0.0993
10420W        W53411  12.559  12.414   6.204 -0.0589 -0.3571 -0.1446
10421W        W53412  29.805  11.411  10.158 -0.0674  0.3340  0.0680
10422W        W53413  32.890  27.029   8.733 -0.1083 -0.0997 -0.2134
10423W        W53414   0.132  19.223  25.473  0.2476  0.0893 -0.1920
10424W        W53415  10.507  31.148   8.932  0.2386 -0.0817 -0.2003
10425W        W53416  17.736  34.512  10.366  0.1680  0.0115 -0.2861
10426W        W53417  22.100   7.314   3.089  0.2189  0.3059 -0.1539
10427W        W53418  11.663  33.807   4.153  0.0285  0.0284 -0.0522
10428W        W53419  23.622   6.467   7.792  0.0657 -0.1286 -0.0980
10429W        W53420  26.707   2.287   7.235  0.1983 -0.0068  0.0572
10430W        W53421  19.229   5.888   2.540 -0.2165  0.0767 -0.1575
10431W        W53422  12.656  13.682   3.496  0.0264 -0.3709 -0.3578
10432W        W53423  25.027  15.160   4.001  0.0999 -0.1127 -0.1041
10433W        W53424  30.489   3.751  17.967 -0.2310  0.0427 -0.0997
10434W        W53425  19.330  27.747   9.098 -0.3694  0.1053  0.2272
10435W        W53426  21.156  15.142   3.578  0.1191 -0.0605 -0.1564
10436W        W53427  13.205   7.357  11.587  0.0818  0.0623  0.1711
10437W        W53428  21.383  20.676  28.086 -0.0253  0.1024  0.0308
10438W        W53429  34.766   5.125  20.635 -0.0475 -0.1342 -0.1124
10439W        W53430   7.904   3.910   3.866 -0.0573 -0.3211  0.2168
10440W        W53431  14.677   4.760   8.552 -0.1431 -0.0254 -0.2620
10441W        W53432  22.033  19.747  24.616 -0.0707 -0.1624  0.0755
10442W        W53433  15.818  15.571   1.584 -0.0427  0.0196 -0.0180
10443W        W53434  30.518  12.120   2.479 -0.0086 -0.0542  0.3172
10444W        W53435   9.232   1.425   3.922  0.0906  0.0307  0.3101
10445W        W53436   4.769   4.940   2.827 -0.1893 -0.1436  0.4187
10446W        W53437  32.405  14.762  10.169  0.0619 -0.0363  0.2893
10447W        W53438  10.870  32.535   6.763  0.0893  0.2167  0.2853
10448W        W53439  10.197  14.155  20.676 -0.0040  0.1456  0.1998
10449W        W53440  16.062  13.907   9.582  0.2546  0.0629  0.0929
10450W        W53441  25.857  29.609   0.795  0.1905  0.0484  0.1144
10451W        W53442  20.228   2.767   5.000  0.3761  0.0148 -0.0868
10452W        W53443  17.145   3.507  24.759 -0.0253 -0.0359 -0.1298
10453W        W53444  21.789  11.200   2.710  0.1800 -0.0080 -0.0805
10454W        W53445  13.120  10.160   7.335  0.0176  0.0796  0.0054
10455W        W53446  18.184  34.494   2.661  0.0253  0.0036  0.1405
10456W        W53447   8.635   6.338  10.377 -0.2231  0.0579  0.1045
10457W        W53448  22.289  15.324  28.808  0.2109  0.2981  0.0325
10458W        W53449   3.935   4.347   7.338  0.3390 -0.2540  0.0463
10459W        W53450  27.433  30.066   6.955  0.1222 -0.2598  0.2532
10460W        W53451   7.497   2.118   5.181  0.1656 -0.1457 -0.2458
10461W        W53452  24.837   0.937  22.657 -0.1600  0.1200 -0.0383
10462W        W53453   9.739  10.014  22.066  0.1554 -0.1217 -0.1927
10463W        W53454  22.401  22.467   0.819  0.1175  0.0239  0.0530
10464W        W53455  30.089  11.456  27.953 -0.1944 -0.1356  0.1936
10465W        W53456  27.484  31.634  28.532 -0.0713 -0.3766  0.1185
10466W        W53457  27.462  19.413  26.616  0.1185  0.1167 -0.0093
10467W        W53458  26.295  26.731   1.216  0.1201 -0.4832  0.1839
10468W        W53459  21.635  33.413   5.179 -0.3496 -0.1121 -0.0632
10469W        W53460  19.956   6.377  21.661  0.4771 -0.1969 -0.0965
10470W        W53461  29.139   9.371   7.513  0.1200  0.1391  0.2258
10471W        W53462  15.089  17.041   8.293 -0.1219  0.2092  0.3729
10472W        W53463  21.939   7.826   5.163 -0.0779 -0.0095  0.2299
10473W        W53464  28.943  19.553   5.577 -0.0011 -0.3594 -0.0313
10474W        W53465  32.371  10.722   8.267 -0.0036  0.1812  0.0846
10475W        W53466  21.605   2.491   5.768 -0.2030  0.0441  0.4869
10476W        W53467  32.216  32.112  24.557 -0.3567  0.0400 -0.1182
10477W        W53468   6.151   5.875   5.670  0.2927 -0.3966 -0.3962
10478W        W53469  16.049  32.307   8.579  0.4156 -0.1542 -0.0619
10479W        W53470  28.930  15.970   4.541  0.2503 -0.0441  0.1158
10480W        W53471   7.133  20.603   3.432  0.1023  0.2759  0.4816
10481W        W53472  21.011   3.172   1.436  0.1927  0.1579 -0.2375
10482W        W53473   9.405   9.339  26.254 -0.1935 -0.1865  0.1322
10483W        W53474  21.713   6.385  20.330 -0.2592  0.1554 -0.0881
10484W        W53475  25.557  22.827  17.780 -0.1917  0.1114  0.2813
10485W        W53476  26.245   0.742   7.501 -0.0111 -0.2016  0.1714
10486W        W53477  10.404  15.107   0.031  0.0820  0.0017  0.0198
10487W        W53478  31.676  13.762   6.449  0.1772 -0.1924 -0.0138
10488W        W53479  12.756   8.837   6.116 -0.3035 -0.0028 -0.1884
10489W        W53480  21.081  24.415   7.906 -0.4617  0.0319  0.1959
10490W        W53481  20.532   1.243   8.213 -0.4762  0.0087  0.2577
10491W        W53482  19.854  12.404  24.862 -0.0420  0.0109 -0.0918
10492W        W53483  24.231  28.832  26.174 -0.0651  0.1521 -0.0634
10493W        W53484  22.198  13.296   2.436 -0.0847  0.3708  0.1507
10494W        W53485   7.060  29.123   4.705  0.2031 -0.1845 -0.0326
10495W        W53486  17.391   5.612   8.303 -0.0522 -0.2191 -0.1320
10496W        W53487  20.209   5.695   0.911 -0.0401 -0.1410 -0.2402
10497W        W53488  21.381   1.672  28.759  0.1375  0.1338 -0.0817
10498W        W53489  20.948  32.964  27.371 -0.0479  0.0737  0.0775
10499W        W53490  22.363  23.258   1.272  0.0054 -0.0566 -0.0804
10500W        W53491  27.949   5.042   5.614  0.0397 -0.0673 -0.0169
10501W        W53492  15.011   5.464   2.836  0.4970 -0.3122 -0.0832
10502W        W53493  28.240  34.503   5.564  0.2613  0.1318 -0.2583
10503W        W53494  10.973   1.150   4.367  0.0015  0.1394 -0.1761
10504W        W53495  27.563   7.505   6.885  0.0793  0.0029 -0.1468
10505W        W53496  21.897  33.289   4.277  0.0777  0.1813  0.0850
10506W        W53497  13.363  13.014   3.553  0.1409  0.2351 -0.0437
10507W        W53498  15.435  32.646   8.026  0.2844 -0.2580 -0.2074
10508W        W53499  30.494   9.350   3.652  0.0488  0.1904  0.0038
10509W        W53500  17.506   3.073   4.946  0.0072  0.1816  0.0473
10510W        W53501  15.240   3.054   5.049  0.2597 -0.1701  0.1782
10511W        W53502   5.254  29.584  25.432 -0.0295 -0.0237  0.2119
10512W        W53503  31.282   1.237   4.745 -0.3954  0.0952 -0.0533
10513W        W53504  13.151  18.589  16.950  0.0592 -0.2957 -0.1586
10514W        W53505  14.865   1.848  10.029 -0.0437  0.0347 -0.3488
10515W        W53506  13.807  20.181   0.013 -0.0210 -0.0614 -0.3681
10516W        W53507   6.029  17.927  26.554 -0.1791  0.1452 -0.0729
10517W        W53508  33.069   4.228   9.057  0.0264 -0.0268  0.0747
10518W        W53509  34.585  32.753  28.180 -0.0641 -0.1481 -0.0674
10519W        W53510  22.971  30.983   5.775  0.0961 -0.0761  0.0668
10520W        W53511   1.637  31.311   4.908 -0.0300  0.1425  0.1050
10521W        W53512  12.192  17.929   1.567 -0.4839  0.0774  0.0154
10522W        W53513  26.242   6.753  25.750  0.2050 -0.1563 -0.2576
10523W        W53514  21.290  34.552   7.304  0.1287  0.1074 -0.3987
10524W        W53515   9.590   8.667   0.362  0.1824 -0.1980 -0.1770
10525W        W53516  17.405   8.094   8.580  0.5043  0.1130  0.2356
10526W        W53517  15.830  31.302   0.292  0.3006  0.1303 -0.1240
10527W        W53518  17.185   6.966   0.885  0.2066 -0.0846 -0.0389
10528W        W53519  15.536   4.054   5.571 -0.2510 -0.1129 -0.0462
10529W        W53520   6.729   1.581   4.604 -0.2695  0.0796 -0.3179
10530W        W53521  14.586   2.433   9.261  0.2646 -0.2196 -0.1099
10531W        W53522  19.765  27.528  21.202 -0.1322  0.1330  0.0635
10532W        W53523   8.475   2.715   3.681 -0.1012 -0.2681  0.0069
10533W        W53524  32.253   3.432   0.041 -0.0450 -0.0104  0.0881
10534W        W53525  11.492   5.508  25.538  0.0565  0.2734 -0.0063
10535W        W53526  22.579   9.178   6.456  0.0676  0.2166  0.0530
10536W        W53527  23.785  11.088  27.159 -0.1073  0.0983  0.3098
10537W        W53528  29.675  18.980   9.986 -0.2075  0.0210  0.0706
10538W        W53529   9.980   2.479   0.922 -0.2791 -0.0385  0.0135
10539W        W53530  20.023  22.348   1.954 -0.1897 -0.0073  0.1033
10540W        W53531  27.186  27.341  25.708 -0.3380 -0.0042 -0.2534
10541W        W53532   6.097   0.687   2.206  0.2723 -0.4387  0.1751
10542W        W53533  20.724   8.353  10.120  0.0673  0.0347  0.0221
10543W        W53534  29.874  26.258  21.919 -0.0858  0.1748  0.2388
10544W        W53535  23.171  23.803  29.076  0.0319 -0.4731 -0.1879
10545W        W53536  15.355   9.071   9.955  0.1323  0.0029  0.0027
10546W        W53537  11.136   2.846   9.591 -0.1084 -0.1734 -0.1863
10547W        W53538  30.421  28.521   2.417 -0.0982  0.0134 -0.2631
10548W        W53539  20.289   5.320   6.745 -0.1115  0.1868 -0.0026
10549W        W53540  26.288  25.047  28.841 -0.0549 -0.2885  0.2731
10550W        W53541  13.622   7.811   5.847 -0.0021 -0.2006  0.0525
10551W        W53542  25.458  10.683   2.265  0.1257  0.0444  0.0221
10552W        W53543  10.264  10.445  26.877 -0.2656  0.0370  0.3722
10553W        W53544  24.733   2.946   1.591  0.2125  0.2045  0.1253
10554W        W53545  26.067  17.173   9.309 -0.1054 -0.1402 -0.1681
10555W        W53546  32.002   7.081   9.741  0.1237  0.1458 -0.1398
10556W        W53547  26.590  14.001  10.073  0.0654  0.0758 -0.0796
10557W        W53548  20.022  32.130   0.314 -0.3486  0.1209  0.1742
10558W        W53549  20.929  18.762   3.285 -0.1787 -0.2280  0.2338
10559W        W53550   9.169  34.058  24.530  0.1547  0.0488 -0.3875
10560W        W53551  20.020  29.905   9.001 -0.1904 -0.0166 -0.1312
10561W        W53552  11.487  23.247  26.028 -0.1449  0.0595 -0.1084
10562W        W53553   5.616   5.498   0.541  0.1817  0.1048 -0.0866
10563W        W53554   3.506   5.501   4.690  0.0143 -0.1346  0.1167
10564W        W53555  21.197   9.697   2.250 -0.1338  0.3193  0.0383
10565W        W53556  22.463  15.477   5.684  0.0212 -0.1123  0.0107
10566W        W53557   8.313   8.683   6.760  0.0050 -0.0234  0.1023
10567W        W53558   0.387   0.841   8.009 -0.0336 -0.0693 -0.0149
10568W        W53559   2.826   9.023   6.721 -0.3230 -0.1012  0.1426
10569W        W53560  19.821   2.320   9.145 -0.1578 -0.0063  0.0076
10570W        W53561   9.999   1.686   6.435  0.0771  0.0287 -0.0582
10571W        W53562   9.637  29.749   1.009  0.2225  0.0879  0.0447
10572W        W53563   6.941   7.067   9.467  0.0123 -0.0713 -0.2507
10573W        W53564  31.365  29.808   8.653 -0.1952  0.0973 -0.1552
10574W        W53565   9.705  19.975   9.727 -0.1051  0.1153 -0.0370
10575W        W53566  24.224  13.027   3.991  0.1669  0.1976  0.0552
10576W        W53567   8.980   0.741  27.473 -0.0776 -0.0812 -0.0821
10577W        W53568   8.798  17.733  27.267  0.0351  0.0736  0.2237
10578W        W53569  16.453   3.031   8.779 -0.3216 -0.0075 -0.1012
10579W        W53570  13.362   0.668   8.386 -0.0612  0.1554 -0.0413
10580W        W53571  18.615  14.643   6.437 -0.1033 -0.0565  0.2720
10581W        W53572  24.362  15.955   7.819  0.1678 -0.3157 -0.2005
10582W        W53573  13.331   6.700   2.025  0.1427 -0.2267 -0.0362
10583W        W53574  22.653   0.174   0.030 -0.0026  0.1071  0.2930
10584W        W53575  16.342   8.947  29.230 -0.3403 -0.1566  0.1305
10585W        W53576   8.010  23.044   3.078  0.4430 -0.0971 -0.2777
10586W        W53577  13.195   8.831   9.141  0.0447 -0.1942 -0.0052
10587W        W53578  30.580   5.192  25.036  0.3130 -0.1435  0.0777
10588W        W53579  13.424  13.312   6.172 -0.0319 -0.0257  0.1395
10589W        W53580  21.354  10.393   5.290 -0.0661  0.0176  0.0696
10590W        W53581  27.912  15.796   4.581 -0.2083 -0.2263  0.0935
10591W        W53582  22.269  10.944   4.005 -0.0411 -0.1076  0.0420
10592W        W53583   2.395  26.809   7.933 -0.1055  0.2002  0.1695
10593W        W53584   8.195   4.160   6.671 -0.3007 -0.0174 -0.4982
10594W        W53585  25.004  17.443  18.288 -0.1438 -0.0643  0.0604
10595W        W53586  11.834   6.842  21.484 -0.1931  0.2857 -0.1103
10596W        W53587  10.952   2.126   9.191 -0.0715 -0.1072  0.1506
10597W        W53588  10.348  19.187  27.905 -0.2208  0.0670  0.0649
10598W        W53589  20.963  22.341   1.925  0.0908  0.0806  0.1189
10599W        W53590  15.393  15.679   8.502  0.0064  0.0001  0.2874
10600W        W53591  16.940  29.915  24.468 -0.1433  0.1954  0.3211
10601W        W53592  11.522  26.168   7.248  0.3058 -0.0512  0.0896
10602W        W53593  21.444  21.083   2.468  0.1581 -0.0341  0.1168
10603W        W53594  18.325  16.081  25.990 -0.2282  0.1011  0.2045
10604W        W53595  19.472  12.891   8.352  0.0075  0.0094  0.2481
10605W        W53596   1.288  26.383  23.186 -0.2070 -0.4003  0.1595
10606W        W53597  10.863  33.151   7.527  0.0722  0.0590  0.1476
10607W        W53598  25.917  13.728  22.721 -0.2410  0.1911  0.3235
10608W        W53599  26.851  27.922   1.527  0.1320  0.1662 -0.1675
10609W        W53600  32.319  19.204  10.902 -0.4089 -0.0489  0.3512
10610W        W53601   8.412  31.488   5.803 -0.0551  0.0137 -0.0410
10611W        W53602  30.544  29.439   5.706  0.0568  0.3501  0.2136
10612W        W53603   8.118   0.452   7.498 -0.0709 -0.2400 -0.1761
10613W        W53604  22.465  14.444   6.556 -0.0891  0.0308 -0.0247
10614W        W53605   8.082  18.226   2.944 -0.1652 -0.2298  0.2479
10615W        W53606  20.702  26.373   0.250  0.2767 -0.0525 -0.3419
10616W        W53607  28.298  20.425   2.696  0.1495  0.3756  0.1104
10617W        W53608  16.476   9.426   5.553  0.2024 -0.2299  0.1197
10618W        W53609  33.697   9.900   0.938  0.1843 -0.2057 -0.0784
10619W        W53610  16.873  30.076   3.394  0.2620  0.2096 -0.1111
10620W        W53611   9.622  32.100   2.688  0.0385 -0.0988 -0.0309
10621W        W53612  18.769   4.046   2.293  0.0588  0.4767  0.3355
10622W        W53613  27.340  13.876  27.820 -0.1830  0.2187  0.0629
10623W        W53614  14.433  29.997   5.039  0.1939  0.2041 -0.0772
10624W        W53615  14.600  10.948  26.279 -0.3123  0.0110  0.0481
10625W        W53616  29.744  10.461  18.702 -0.0130 -0.3553  0.1176
10626W        W53617  28.556  17.672  20.671  0.3429  0.0298 -0.1781
10627W        W53618  19.342  14.292  27.053  0.2074  0.2452 -0.2313
10628W        W53619  29.231  11.822   9.780 -0.1464 -0.0280 -0.1451
10629W        W53620  22.513  21.806   8.460 -0.0217 -0.0608  0.3273
10630W        W53621  16.408  11.166   5.097  0.2233 -0.0758 -0.3008
10631W        W53622  30.942   6.651   7.975 -0.1196 -0.0041  0.2282
10632W        W53623  19.105   6.315  25.381 -0.0876 -0.2056  0.1187
10633W        W53624  29.267  27.132   1.506 -0.0776 -0.1994  0.0870
10634W        W53625  17.685  26.782   2.557  0.0247  0.1880  0.0497
10635W        W53626  20.488   9.821   7.928 -0.1973  0.2507  0.2711
10636W        W53627  29.631   5.070   1.619  0.1190  0.1171  0.3010
10637W        W53628  11.668   4.126   6.134  0.1054 -0.2695  0.0510
10638W        W53629   8.937   2.307   9.568 -0.4508  0.1195  0.1051
10639W        W53630  11.913  28.940   8.573 -0.0251 -0.2228 -0.0718
10640W        W53631  27.406   9.529   3.782  0.0683 -0.0221  0.0884
10641W        W53632  25.126  17.231   7.933 -0.0348 -0.0516 -0.1396
10642W        W53633  30.753   7.071   4.680 -0.2962 -0.1138 -0.1623
10643W        W53634  27.526  32.946   8.124 -0.0103  0.0024  0.0514
10644W        W53635  14.111   4.230   7.995 -0.1011  0.1381 -0.2922
10645W        W53636  12.068   7.289   3.588  0.0441  0.0540 -0.1037
10646W        W53637  21.248  11.649   6.060 -0.0024 -0.0298 -0.2562
10647W        W53638  21.900  29.894  22.040 -0.0351 -0.1177 -0.1489
10648W        W53639   7.197   7.296   5.904 -0.0234 -0.1108  0.1048
10649W        W53640  10.484   0.830   9.132 -0.1782 -0.0346 -0.0414
10650W        W53641  25.114   0.168  25.125 -0.0710  0.0662  0.0037
10651W        W53642  25.974  19.948  25.299  0.0493  0.0341  0.0329
10652W        W53643  21.916  22.514   4.545 -0.3103  0.1703 -0.0012
10653W        W53644  11.002  34.106   7.612  0.2748  0.0852 -0.0331
10654W        W53645  27.999   7.138  10.313  0.6186  0.0572  0.1916
10655W        W53646   8.310  18.594  10.589  0.0173  0.0311  0.3484
10656W        W53647  22.839  28.087   8.233 -0.1617  0.0300  0.0705
10657W        W53648  23.741  21.856   3.472 -0.2241  0.2113  0.2483
10658W        W53649  30.293  27.576   5.779 -0.0145  0.0406 -0.1278
10659W        W53650  13.946  12.650  24.996  0.1835 -0.0176  0.0531
10660W        W53651  34.020   4.455   4.107  0.2977 -0.0105  0.0827
10661W        W53652  16.192  14.264   9.266  0.2768  0.3763  0.1845
10662W        W53653  15.281  15.610   7.471 -0.2086 -0.2119  0.1224
10663W        W53654   0.761   6.956  26.005 -0.2559  0.3067  0.0021
10664W        W53655  15.852  10.806   0.689  0.1092 -0.0102 -0.2102
10665W        W53656   9.806  32.478   7.582  0.3850  0.2611  0.3823
10666W        W53657   3.668  12.896  28.662 -0.2551 -0.0528  0.1734
10667W        W53658   7.627  34.799   1.175  0.0451 -0.2440 -0.2510
10668W        W53659  21.089   7.901   3.327  0.0560 -0.0338 -0.0239
10669W        W53660   9.998  15.930  15.865 -0.2580  0.0350 -0.1013
10670W        W53661   0.088   5.525  20.376 -0.0960 -0.0198 -0.2054
10671W        W53662  20.926  32.472   1.968  0.0634  0.2672  0.0582
10672W        W53663  14.252  31.093   7.699  0.1538 -0.0217  0.0330
10673W        W53664   9.653   8.998   3.406 -0.0298 -0.0358  0.1620
10674W        W53665  17.310  17.107   5.584  0.1216 -0.0142 -0.0520
10675W        W53666  12.032  24.243   6.485 -0.0306 -0.1780 -0.2474
10676W        W53667  16.714  29.702  25.671  0.2967  0.1408  0.1396
10677W        W53668  24.114  10.801   4.694 -0.0191  0.1935 -0.0601
10678W        W53669  26.828  16.557   8.881 -0.0532 -0.0483  0.2833
10679W        W53670  23.491   8.258   5.843  0.0834  0.3627 -0.1558
10680W        W53671  24.396  11.207   8.619  0.0344 -0.0300 -0.7728
10681W        W53672  30.331   5.545   8.238 -0.2643  0.1175  0.1673
10682W        W53673   9.787  30.553   3.155  0.2598  0.2530 -0.1813
10683W        W53674  21.406   5.097   3.861  0.1306  0.0108 -0.2073
10684W        W53675  15.092  32.833   0.899 -0.0027  0.1076 -0.3333
10685W        W53676  32.395  15.371   2.075  0.0200  0.1218 -0.0733
10686W        W53677   9.823   8.841   6.281  0.0703 -0.1189  0.3959
10687W        W53678  34.404  17.643   6.538  0.0843  0.1379  0.0418
10688W        W53679  13.161  20.309   6.389 -0.0536 -0.1474  0.1310
10689W        W53680   8.193   1.912   1.199 -0.0744  0.1984  0.0068
10690W        W53681  23.914   8.990   8.911  0.0449  0.1883 -0.0389
10691W        W53682  29.730   3.897  24.922  0.1428  0.0198 -0.1702
10692W        W53683  17.806  16.408  25.966 -0.0463 -0.1286  0.1135
10693W        W53684  23.134  33.281  27.612  0.0449  0.4229 -0.1016
10694W        W53685   1.307  27.358   4.445 -0.2359  0.2549 -0.2076
10695W        W53686   9.707  10.327   0.826 -0.1441  0.1402  0.0688
10696W        W53687  33.377  15.966  25.358 -0.1404  0.3628  0.2220
10697W        W53688  18.786  10.072   8.908 -0.1453 -0.2947 -0.0024
10698W        W53689  13.837  33.193   9.683 -0.1072 -0.1455  0.1787
10699W        W53690  17.992   3.181  29.201  0.0089  0.1168  0.5187
10700W        W53691  26.146   0.470  29.143 -0.1459 -0.0647  0.0354
10701W        W53692  23.595  25.620  16.164 -0.2065 -0.1040 -0.1013
10702W        W53693  16.029   3.347   8.921  0.1524  0.0946  0.1157
10703W        W53694  30.642   8.817  24.859  0.2481  0.1387  0.3066
10704W        W53695   3.560  25.697   8.370  0.0506 -0.1988 -0.0620
10705W        W53696  19.092   6.463   6.164 -0.0952 -0.2286  0.1070
10706W        W53697   2.828  32.439  28.308 -0.0002 -0.2268  0.1399
10707W        W53698  21.538   3.097   1.288 -0.1713  0.3928 -0.1371
10708W        W53699  24.961  12.626   5.370 -0.0194  0.1389 -0.1213
10709W        W53700  21.134   7.155   5.959 -0.0982 -0.2105  0.0316
10710W        W53701  23.578  12.310   4.999 -0.0041  0.1977  0.0672
10711W        W53702  20.570  22.363  27.850 -0.2457  0.0396 -0.0589
10712W        W53703  11.065   9.122   3.095  0.0041  0.0073 -0.1430
10713W        W53704  16.755  14.311   5.254  0.1610 -0.1014 -0.0237
10714W        W53705  14.331   3.453   0.703  0.0928 -0.0350 -0.0033
10715W        W53706  19.809  15.223  21.942  0.0941 -0.0698 -0.1500
10716W        W53707  28.847  13.057   9.614 -0.0951 -0.1160 -0.2354
10717W        W53708  22.308   5.449   1.518  0.1286  0.0105 -0.0446
10718W        W53709   7.493   5.180   9.842 -0.0147 -0.4154  0.2013
10719W        W53710  10.248  21.033  13.416  0.2155 -0.0214  0.0386
10720W        W53711  27.536  19.582  29.079 -0.1801  0.2108 -0.1445
10721W        W53712  16.697  12.708   1.130  0.0311 -0.1795 -0.1034
10722W        W53713  16.667  13.686  27.887  0.0891  0.0614  0.2310
10723W        W53714  22.415  17.511   4.899 -0.1155  0.4167  0.0987
10724W        W53715  18.524  28.342  15.188 -0.0491 -0.0066  0.2221
10725W        W53716  19.385   4.828   1.771  0.2255  0.0216  0.0651
10726W        W53717   9.637  14.069   9.987 -0.1779  0.2008 -0.2097
10727W        W53718  12.604  27.484   8.792 -0.0606  0.0014 -0.0973
10728W        W53719   8.183   8.254  24.772 -0.5417  0.4987 -0.0699
10729W        W53720  11.631   5.930   8.759  0.1569  0.2964  0.0086
10730W        W53721  17.464   8.036   1.950  0.0019  0.2252  0.0558
10731W        W53722  19.400  28.892  25.648  0.2234 -0.2329 -0.0255
10732W        W53723  23.691  29.767  28.470 -0.0323 -0.0646 -0.2714
10733W        W53724  15.788  29.014   5.164 -0.2790 -0.1859 -0.1076
10734W        W53725  19.840  13.319   4.855 -0.1761  0.3756 -0.0643
10735W        W53726   4.883   5.695  20.739 -0.2372  0.0845 -0.2010
10736W        W53727  17.766  21.823  23.461  0.1386  0.1426 -0.3212
10737W        W53728  17.331   7.236   1.879 -0.0804 -0.0438  0.1878
10738W        W53729   2.426   1.524   5.196 -0.1978  0.0172 -0.1654
10739W        W53730  23.756  22.062   6.243 -0.0220 -0.1909  0.0055
10740W        W53731  13.522   9.667   0.537 -0.0641  0.1219  0.0416
10741W        W53732  10.646   9.704  21.628  0.0395 -0.2628 -0.0325
10742W        W53733  18.461   7.714  19.216 -0.0292 -0.1153  0.3069
10743W        W53734  15.185  34.321   6.695  0.1037 -0.0917  0.0773
10744W        W53735  31.090  27.929   7.132 -0.0050  0.0446  0.1236
10745W        W53736   8.810  31.838   6.157  0.1220  0.0744 -0.0697
10746W        W53737  30.874  21.760   8.792 -0.3135 -0.1309 -0.0471
10747W        W53738  18.107  15.634   9.127 -0.0771 -0.2755 -0.1040
10748W        W53739  17.347   8.496   6.139  0.4615  0.1266 -0.1080
10749W        W53740  18.129  11.295  17.440 -0.0012 -0.0933  0.5609
10750W        W53741  17.307   2.977  17.526  0.0744  0.4170  0.0959
10751W        W53742  26.217  12.518   2.531  0.0315  0.0751  0.0670
10752W        W53743  21.108  31.777  19.775  0.0879 -0.0243 -0.0018
10753W        W53744  13.222   9.350   1.922  0.1117  0.3339  0.0837
10754W        W53745  15.557   2.043   4.300 -0.2978  0.0819  0.0960
10755W        W53746  29.147  25.041   7.798  0.1114 -0.0621 -0.0288
10756W        W53747  25.385  16.967  14.589  0.1899 -0.1359 -0.0792
10757W        W53748  29.177  27.556  20.515  0.0524 -0.3058 -0.1891
10758W        W53749  18.495   8.443   4.991 -0.1002 -0.1889  0.1903
10759W        W53750  18.904   7.688   5.149  0.0932  0.1604 -0.0474
10760W        W53751  22.597  26.039   2.248 -0.6988  0.0689  0.1061
10761W        W53752  26.566  13.880   9.600  0.0490 -0.3608 -0.0162
10762W        W53753  18.206  27.598   7.267  0.1459 -0.0241 -0.3052
10763W        W53754  19.378  17.548   8.283 -0.1766 -0.3430  0.1831
10764W        W53755   1.438   8.918   6.272 -0.2109 -0.0680 -0.2599
10765W        W53756  30.540   9.317   4.564  0.0492  0.3511 -0.2176
10766W        W53757  31.936   6.018   9.752  0.1173 -0.1326 -0.1622
10767W        W53758  30.867  29.155  20.549  0.0651  0.1335  0.2282
10768W        W53759  20.308   0.864  29.090 -0.2057 -0.0964  0.2520
10769W        W53760   4.053  15.462  11.633  0.0033 -0.0488  0.0938
10770W        W53761  20.601   5.955   2.461  0.0420  0.2006 -0.1863
10771W        W53762  18.800   0.634  18.972 -0.1134  0.1107 -0.1077
10772W        W53763  13.377   8.382   5.745  0.0871 -0.1095  0.3071
10773W        W53764  33.953   7.970  17.578 -0.1036 -0.0526 -0.0111
10774W        W53765  23.662   7.985   4.721  0.2646 -0.0865  0.0479
10775W        W53766  19.458  26.077  24.162  0.0327 -0.2419  0.1549
10776W        W53767  14.081  12.816  26.810 -0.0036  0.0921  0.0785
10777W        W53768  16.703  32.234  10.382  0.4924  0.0375 -0.2047
10778W        W53769  18.381  24.872   0.217 -0.0280  0.1059 -0.1727
10779W        W53770  12.255  17.713   4.840 -0.1329 -0.0393 -0.1106
10780W        W53771  21.641  33.125   8.382  0.2027 -0.1810 -0.0449
10781W        W53772  25.978  18.922   8.916  0.1369  0.1089 -0.0231
10782W        W53773  12.485   7.682   6.941 -0.0117 -0.2947  0.3715
10783W        W53774   2.732  11.521  26.422 -0.3072 -0.0925  0.2123
10784W        W53775  22.083  17.887   2.142 -0.2364 -0.0632  0.0580
10785W        W53776  29.309   2.992   7.877 -0.1136 -0.2653 -0.0528
10786W        W53777  26.945  12.892  25.178 -0.2749  0.2526  0.5597
10787W        W53778  18.787  29.657   8.013 -0.1468 -0.0747 -0.1643
10788W        W53779  15.247  15.443  24.532  0.0922  0.1741  0.2306
10789W        W53780  15.147  34.659   2.636  0.1509  0.0147 -0.0238
10790W        W53781  24.473   0.245   5.140  0.3007  0.2553 -0.1020
10791W        W53782  26.316  29.748   2.507  0.0307  0.2382 -0.0120
10792W        W53783  19.572  19.983  22.961 -0.1190  0.0772 -0.1189
10793W        W53784  28.957   5.804  28.437  0.1355 -0.1138 -0.1400
10794W        W53785  25.596  22.752  27.082  0.1639  0.1385  0.0958
10795W        W53786  23.067   0.051   1.462  0.0978 -0.1175  0.1306
10796W        W53787   0.555   3.253   7.996 -0.1327  0.0446  0.2227
10797W        W53788  26.116  12.842  21.641  0.2349  0.1092 -0.0420
10798W        W53789  31.453   3.893  29.208  0.0215  0.0799 -0.0259
10799W        W53790  13.431  10.925  20.058 -0.3551 -0.2143 -0.0198
10800W        W53791  20.055  29.385   7.343  0.1059 -0.0780 -0.0956
10801W        W53792  28.584  13.846  21.648  0.3090  0.2182  0.1826
10802W        W53793  24.575  20.659  27.310 -0.1638  0.1056  0.3698
10803W        W53794  32.520  11.303  28.468  0.1138  0.1370  0.2119
10804W        W53795   8.541   4.478   5.233  0.2156  0.1633  0.0187
10805W        W53796  13.785   2.446  24.392  0.0206 -0.2999  0.0868
10806W        W53797  20.689   2.837   1.310 -0.0260  0.1911 -0.0771
10807W        W53798   6.957  12.588   8.440 -0.3268 -0.3052  0.0583
10808W        W53799  15.877   0.369   5.301 -0.0685  0.2146  0.1368
10809W        W53800  20.811  22.118   2.465 -0.2159  0.1538 -0.3093
10810W        W53801  12.453  10.661  21.765  0.1580  0.0639  0.0911
10811W        W53802  14.017  10.246   5.235 -0.1101 -0.0919 -0.1006
10812W        W53803  24.568   8.238   4.862  0.1903 -0.1070 -0.0943
10813W        W53804  19.375   3.726  15.303 -0.1916 -0.0738  0.0972
10814W        W53805  29.354  21.157  29.203 -0.0353 -0.3636  0.0097
10815W        W53806  11.425  13.171   6.099  0.1272 -0.0787  0.0213
10816W        W53807  15.735   8.154  25.206  0.0532 -0.1621 -0.0660
10817W        W53808  24.278   8.059  27.965 -0.2063  0.0169 -0.0590
10818W        W53809  13.345  25.883   1.798  0.1985 -0.0153 -0.2447
10819W        W53810   2.388   4.060   6.073 -0.0502 -0.1752  0.2429
10820W        W53811  12.643  17.003  16.901  0.3878  0.0298  0.0073
10821W        W53812  21.747   5.876  28.779  0.2059  0.1003  0.0310
10822W        W53813  23.023  18.670   8.287 -0.0174 -0.0306 -0.0033
10823W        W53814  33.687   9.543   9.641 -0.1395 -0.2582  0.1834
10824W        W53815  20.926   5.846  24.088  0.1086  0.2047  0.3112
10825W        W53816   6.500  17.492   9.391  0.0969  0.1265 -0.1058
10826W        W53817   6.987   4.580   7.521  0.1257 -0.3627  0.2341
10827W        W53818  16.598   8.916   9.056 -0.1376  0.0711  0.0069
10828W        W53819  20.863  11.630   8.691  0.0213 -0.3265 -0.0160
10829W        W53820  14.492  20.222   7.764  0.2384 -0.1523  0.0357
10830W        W53821  21.497   5.365  26.958  0.0748 -0.1339 -0.1254
10831W        W53822  19.082  21.058   7.295 -0.2718  0.2196 -0.1409
10832W        W53823  21.615   6.298   1.019  0.0779  0.0425  0.2362
10833W        W53824  21.940  19.839  21.406 -0.0428  0.0888 -0.1663
10834W        W53825   1.783   4.830   0.639  0.0448  0.2096  0.1610
10835W        W53826  18.953   8.128   8.038 -0.1306 -0.1530  0.3984
10836W        W53827   6.250  12.249   8.869 -0.0844 -0.0866  0.3547
10837W        W53828  13.466   7.108  25.622 -0.1640  0.2093 -0.1153
10838W        W53829  29.891   7.154  24.242 -0.4391  0.0062  0.2209
10839W        W53830  16.751  32.359   4.373  0.0042 -0.2201  0.0380
10840W        W53831  10.403  23.243   3.095 -0.3597  0.1140 -0.1309
10841W        W53832  16.090  20.344   6.077  0.1171  0.0974 -0.2494
10842W        W53833   5.580  32.413  10.024  0.3233 -0.0950  0.1345
10843W        W53834  24.613  13.100   2.232 -0.1594 -0.0727  0.1055
10844W        W53835  15.177  10.103   4.513 -0.0446 -0.0590  0.0613
10845W        W53836   9.673   9.898   8.965  0.1500 -0.1179  0.0803
10846W        W53837   2.266   1.330   6.024  0.0147  0.0570 -0.0843
10847W        W53838  18.086   6.686   4.288  0.1827 -0.0066 -0.3627
10848W        W53839  18.196  15.034   7.338  0.1189  0.0456 -0.0104
10849W        W53840   0.578  32.336   6.645  0.1697 -0.1842  0.0805
10850W        W53841  19.468   9.634  27.499  0.1244  0.0609 -0.0711
10851W        W53842  29.633   1.706  24.877  0.0911 -0.1642  0.0298
10852W        W53843  12.053   3.818   0.136  0.1395  0.0056  0.0742
10853W        W53844  17.628  12.221   2.633  0.0445 -0.0278 -0.2502
10854W        W53845  22.311   4.081   6.062  0.0054 -0.0711  0.0998
10855W        W53846  23.295  11.026   1.108 -0.2624  0.1583 -0.0058
10856W        W53847  19.908  28.188  14.825 -0.2788 -0.0485  0.0846
10857W        W53848  17.565  11.741   0.426 -0.0079  0.1255  0.0669
10858W        W53849  24.178   6.037   4.071 -0.2021 -0.0351 -0.2338
10859W        W53850  26.252  27.765   4.207 -0.0880  0.1030 -0.2578
10860W        W53851  19.090  17.094  25.553  0.0125  0.1300  0.0118
10861W        W53852  14.375  12.450   7.227  0.3273 -0.1124  0.1678
10862W        W53853  12.137  29.644  10.310 -0.0099  0.0177  0.1244
10863W        W53854  28.531  21.526   7.378 -0.2155 -0.2133  0.1242
10864W        W53855  25.933  33.975   3.329 -0.2500 -0.2488 -0.0831
10865W        W53856  14.276  32.313  10.738 -0.2693  0.0418  0.1865
10866W        W53857  19.759  16.044   2.587  0.0623  0.1435 -0.2631
10867W        W53858  32.890  17.436   8.951 -0.1268  0.0863 -0.0701
10868W        W53859   8.378   4.642  20.672 -0.1241 -0.0012  0.0451
10869W        W53860  18.498  15.995   7.851  0.1653  0.1707  0.3517
10870W        W53861  16.024  10.400   7.217  0.0289  0.2315 -0.0620
10871W        W53862   0.145   5.332  28.055 -0.0152  0.2276 -0.5438
10872W        W53863   1.433  27.163   7.842  0.1397 -0.0836 -0.1442
10873W        W53864  26.788  15.951   3.263  0.1453 -0.1465  0.2182
10874W        W53865  25.337  25.966  22.442  0.1769  0.1502 -0.2738
10875W        W53866  22.553   0.493   1.370  0.0708 -0.0280  0.0490
10876W        W53867  30.515  32.088   4.829  0.4573 -0.2129  0.0720
10877W        W53868  31.793  19.288   3.917  0.0017 -0.1120  0.1098
10878W        W53869  21.591  15.290   7.551  0.0808 -0.2680  0.1088
10879W        W53870  28.390  18.293  26.502  0.0116 -0.0236 -0.4789
10880W        W53871  17.234  27.942  26.589  0.2802  0.1541  0.2673
10881W        W53872  13.739  25.775  27.004  0.0112 -0.0513  0.2909
10882W        W53873  23.878   7.616   8.980 -0.1810 -0.1061  0.1375
10883W        W53874  28.016  17.461  19.117  0.1218  0.0709  0.1142
10884W        W53875  24.310  23.911  29.088  0.0090 -0.0173 -0.0212
10885W        W53876  16.094  10.498  14.648 -0.0571  0.2300  0.1255
10886W        W53877   6.059  18.666   2.649  0.0836  0.0644  0.1504
10887W        W53878   4.775  10.927  29.061 -0.0243 -0.1585 -0.2983
10888W        W53879   9.040   3.843   3.754  0.5057  0.0210  0.2375
10889W        W53880  12.066  30.416   3.469 -0.2627  0.0126  0.1782
10890W        W53881  15.115  14.526  28.374  0.1627  0.1384  0.0694
10891W        W53882  25.787  33.501   2.558 -0.0369  0.1835  0.0378
10892W        W53883  31.274  17.455  10.736  0.1447 -0.1037  0.3162
10893W        W53884  26.485  24.500   7.217 -0.1459 -0.0755  0.0252
10894W        W53885  20.291  10.790   8.780 -0.0691  0.0109  0.1730
10895W        W53886   8.864  34.132  22.497 -0.2744 -0.0302  0.3061
10896W        W53887  18.777  16.691   1.970 -0.1051 -0.2393 -0.3030
10897W        W53888  13.516   1.182   8.744 -0.0013  0.1607 -0.3186
10898W        W53889  18.872   9.581  26.655 -0.0406  0.0191 -0.1516
10899W        W53890   4.281  19.960   8.337 -0.2059  0.2085  0.0101
10900W        W53891  19.654  20.863   3.951 -0.0069 -0.1091  0.2440
10901W        W53892  16.836  33.097   5.340 -0.1722 -0.0308 -0.2314
10902W        W53893  21.269  29.087   1.432  0.1480 -0.1061 -0.3158
10903W        W53894  26.369  18.880   1.724 -0.0420  0.2423 -0.2661
10904W        W53895   3.414   0.627  26.573  0.0414  0.0376 -0.3114
10905W        W53896  22.673  16.648   8.692  0.1430 -0.1698  0.0737
10906W        W53897  15.988  21.955   2.386 -0.2001 -0.2543  0.0424
10907W        W53898  17.187  11.795   5.417  0.0469 -0.1281 -0.0078
10908W        W53899  28.073  33.657  16.031 -0.2565  0.0747 -0.0536
10909W        W53900  27.960  27.534   3.409  0.1828 -0.2330  0.2893
10910W        W53901  25.634  27.248   7.060 -0.0476 -0.1028  0.1510
10911W        W53902  25.459  21.595   3.054 -0.0020 -0.0794 -0.3435
10912W        W53903  21.099   8.564   0.187 -0.1112 -0.0020 -0.0705
10913W        W53904  15.715  14.009   4.291  0.2176 -0.0577  0.1893
10914W        W53905  15.585   7.848   1.589  0.1011  0.0817  0.2583
10915W        W53906   5.321   9.336   6.152 -0.1149  0.2255 -0.1585
10916W        W53907   1.762  30.123   6.878 -0.0085  0.0080 -0.1680
10917W        W53908  16.103  12.901   9.734 -0.0724  0.1631  0.0929
10918W        W53909  22.170  18.072   6.857  0.0390 -0.1310  0.2291
10919W        W53910  29.728   9.906  22.663  0.0172 -0.1365 -0.0203
10920W        W53911  22.544  11.007  24.588 -0.2427  0.1051 -0.1226
10921W        W53912  15.704   0.043   9.860  0.0502 -0.1588  0.3483
10922W        W53913  19.154   9.509   8.134 -0.0091  0.0740  0.4726
10923W        W53914  33.532  17.211   6.509  0.1410  0.2329 -0.1601
10924W        W53915  12.865   0.101   0.351  0.1597  0.0759 -0.1662
10925W        W53916  17.713  11.513  27.475  0.1338 -0.2400  0.0591
10926W        W53917  17.298   1.604  29.045 -0.0883 -0.2563  0.0138
10927W        W53918  12.795   1.065   3.223  0.1504  0.0751  0.1009
10928W        W53919  19.309  19.276   1.535  0.0237  0.0520  0.2854
10929W        W53920  23.010   1.938   9.031 -0.0817 -0.2268  0.2928
10930W        W53921  23.192  12.304  16.855  0.1374 -0.3836  0.0023
10931W        W53922  16.736  12.889   7.914  0.0890 -0.1461  0.0444
10932W        W53923  23.410   3.433  14.605 -0.3469  0.0537  0.1198
10933W        W53924  12.547  21.673   0.824  0.1042 -0.0392  0.1249
10934W        W53925   1.973  16.183   7.014 -0.1597  0.1064  0.3327
10935W        W53926  17.574  15.555   8.107  0.2656 -0.1152  0.0604
10936W        W53927  18.546  20.039   5.367  0.0341  0.3619  0.1090
10937W        W53928  20.512  13.334   6.230  0.4724  0.0661  0.1427
10938W        W53929  20.343  14.126   6.400  0.2039 -0.2260 -0.0274
10939W        W53930  29.645  20.683   9.615 -0.1278 -0.1209  0.4149
10940W        W53931  25.630  25.728   0.226  0.1035 -0.2862  0.0164
10941W        W53932  31.161  31.628   8.093 -0.0615 -0.4035  0.0753
10942W        W53933  18.905  10.572   4.468 -0.0647  0.1925  0.0454
10943W        W53934   3.383  14.802   6.654 -0.1365 -0.1028 -0.0940
10944W        W53935   4.577  17.872  18.880 -0.0725 -0.0228 -0.1267
10945W        W53936  15.133  29.579   6.349  0.0055 -0.1546 -0.2617
10946W        W53937  14.209  33.191   1.236 -0.1897  0.0960  0.0525
10947W        W53938  22.166   2.822   8.804 -0.3178 -0.4310 -0.0257
10948W        W53939  28.662   9.506  21.699 -0.2233  0.2761  0.1489
10949W        W53940  19.798  11.968  26.228  0.0681 -0.0562  0.1468
10950W        W53941  30.533  16.799   7.224  0.4332 -0.1293  0.1472
10951W        W53942  22.103  26.766  28.379 -0.2154 -0.2408  0.2938
10952W        W53943   8.958   9.326   1.964 -0.0718 -0.3679 -0.3091
10953W        W53944  34.641   7.393   9.238 -0.2467  0.3330 -0.0365
10954W        W53945  26.864  22.047  13.981  0.1156 -0.0920  0.5179
10955W        W53946  31.610   2.901  29.053  0.1197  0.0846 -0.1229
10956W        W53947   1.884   2.659  28.264  0.1417  0.1018  0.0740
10957W        W53948  25.770   5.334   7.175 -0.1771  0.0260 -0.0865
10958W        W53949  21.369  12.238  28.891  0.0474 -0.2715  0.1747
10959W        W53950  21.189   9.395  25.927 -0.1318 -0.1246  0.1669
10960W        W53951   7.211   9.353   8.531  0.0129 -0.4621  0.2540
10961W        W53952  22.458   5.646  22.613  0.1433  0.1714  0.3471
10962W        W53953  18.399  16.262  24.078  0.0029 -0.0338 -0.1117
10963W        W53954  30.533   2.441   1.565  0.2743 -0.1995  0.0808
10964W        W53955  32.264   5.309   9.045  0.2678  0.6883 -0.0485
10965W        W53956  31.549  26.325   7.238  0.0120 -0.3537 -0.0883
10966W        W53957  21.626   8.845  21.507 -0.0928 -0.1934 -0.0325
10967W        W53958   7.343  14.855  17.193 -0.1526  0.2591  0.0260
10968W        W53959  10.747   7.496   8.520 -0.2341 -0.0830 -0.0801
10969W        W53960   7.139   8.145   5.417 -0.1215 -0.3065 -0.2089
10970W        W53961  27.252   6.694  22.036  0.2321 -0.0930 -0.0363
10971W        W53962  21.197  11.913   3.249 -0.0602  0.1029  0.3411
10972W        W53963   3.860  15.341  28.351 -0.0770 -0.1356  0.1206
10973W        W53964  21.862  15.356  22.455 -0.2089 -0.0093 -0.2183
10974W        W53965   0.611  11.106  22.398  0.2635 -0.0589  0.1594
10975W        W53966  25.738   8.715   4.263  0.0424 -0.2329  0.2375
10976W        W53967   9.232  17.480  27.544 -0.1071 -0.0286 -0.0075
10977W        W53968  16.967   2.345  19.014  0.0845 -0.3549  0.0035
10978W        W53969  16.542  13.518  25.329 -0.0217 -0.1493  0.2072
10979W        W53970   3.602   4.168  28.108 -0.0233 -0.2720 -0.0084
10980W        W53971  29.240  14.455  15.890  0.2007  0.0112  0.1096
10981W        W53972  28.278  23.452   8.703  0.0195 -0.0904  0.1545
10982W        W53973  25.658   1.759   0.469  0.2116  0.1810 -0.1640
10983W        W53974  21.615   8.276   4.239  0.0898  0.1259  0.2242
10984W        W53975   8.028   5.313  26.840 -0.1636  0.0800  0.0847
10985W        W53976  15.342  10.563   3.357 -0.0588 -0.1281  0.1869
10986W        W53977  12.921   9.696  20.236 -0.0278  0.0863 -0.2040
10987W        W53978  21.552  14.992  24.465  0.3409  0.1980 -0.1057
10988W        W53979   1.667  20.203  18.552  0.2495  0.3284 -0.1874
10989W        W53980  10.257  23.143  18.479 -0.0624 -0.2571 -0.0445
10990W        W53981  30.693  14.473  25.376  0.1263  0.2286 -0.0944
10991W        W53982  10.663  17.007  15.449 -0.0993 -0.1825  0.2281
10992W        W53983  20.484  32.017  28.764  0.1287  0.1619 -0.0793
10993W        W53984   8.124   5.499  22.701  0.1469  0.0353  0.0583
10994W        W53985   0.214  13.370  21.982  0.1387 -0.3872 -0.1615
10995W        W53986  23.194  16.476  23.146 -0.1973 -0.1552 -0.0252
10996W        W53987   0.733  31.651  21.136  0.3205  0.0099  0.0055
10997W        W53988   0.274   9.471  26.930  0.3630  0.1052 -0.0335
10998W        W53989   3.114   3.515   7.863  0.4882  0.1515 -0.0096
10999W        W53990  20.977   0.053   2.768 -0.2706 -0.1865 -0.1978
11000W        W53991  13.563  13.336   1.894  0.1088  0.0500 -0.1060
11001W        W53992  11.159  24.370   7.561 -0.1127 -0.1024 -0.1169
11002W        W53993  27.083   5.753  19.398  0.4016 -0.1088  0.3315
11003W        W53994   7.928  29.451  27.464  0.1190 -0.2084  0.1289
11004W        W53995   8.823   9.943  25.481 -0.1907 -0.2455  0.2544
11005W        W53996   3.999  13.752   9.299  0.0636 -0.2128  0.1185
11006W        W53997  29.412   4.382  14.546 -0.4245 -0.0277  0.2110
11007W        W53998  11.027  11.475  22.908 -0.0172 -0.0327  0.1282
11008W        W53999  18.638   8.515  22.459  0.0412  0.0862  0.0123
11009W        W54000   0.287  11.808  26.887 -0.0744  0.3531 -0.2784
11010W        W54001   8.567  34.025   3.297 -0.1350  0.1294 -0.3099
11011W        W54002  10.563  27.953   9.430  0.1161 -0.2545 -0.0024
11012W        W54003  15.783  27.850   7.465  0.1468  0.3099  0.2089
11013W        W54004  20.734  15.555   5.881  0.0702  0.2183 -0.1447
11014W        W54005   3.886  31.031   8.399 -0.0915  0.0835  0.4329
11015W        W54006  12.427  34.170   3.492 -0.0631 -0.2056 -0.1066
11016W        W54007  11.344  32.177   6.433 -0.2315 -0.2126  0.0343
11017W        W54008   5.729  10.946  20.777  0.1924  0.2117  0.0830
11018W        W54009  10.652   2.388   2.666  0.2623 -0.0528 -0.0164
11019W        W54010   7.358  17.276  18.234  0.3078  0.1269  0.1587
11020W        W54011  12.392   9.918   5.656  0.0378  0.1642 -0.1478
11021W        W54012  27.461  14.218   5.121  0.0020 -0.1804  0.2064
11022W        W54013  29.903  25.801  21.262 -0.0735 -0.0106 -0.1930
11023W        W54014  32.754   6.703   5.732  0.0533 -0.2572  0.0796
11024W        W54015  29.998  27.368   1.154 -0.1074 -0.2919 -0.0950
11025W        W54016  31.071  27.691  25.122 -0.0700 -0.1559  0.0989
11026W        W54017  26.403  12.224  25.823 -0.2145  0.2162 -0.2687
11027W        W54018  21.091  15.024   8.498  0.3036  0.2389  0.1173
11028W        W54019  16.156  34.195   2.929  0.3396 -0.0070  0.1609
11029W        W54020  29.701  15.168  23.556  0.1968  0.3063 -0.0847
11030W        W54021  30.504  16.109  15.169 -0.0984 -0.1131 -0.0832
11031W        W54022  14.874   1.198  10.077 -0.1929  0.1497 -0.1269
11032W        W54023  10.995  33.515   3.461  0.2150 -0.2199  0.0704
11033W        W54024  14.146  15.060   3.601  0.0123 -0.0261 -0.1386
11034W        W54025  14.715   4.847   4.040  0.0816  0.1888 -0.1733
11035W        W54026  18.516   7.874  25.749  0.2024 -0.2172 -0.1307
11036W        W54027  20.302  19.467   4.968 -0.2337 -0.1660 -0.6108
11037W        W54028  17.856   7.121   4.380  0.2251 -0.3044 -0.0315
11038W        W54029  23.390   4.993  24.231 -0.0360  0.0862  0.0026
11039W        W54030  12.813   7.051   8.188  0.0877 -0.0424 -0.0756
11040W        W54031   6.696   8.772  26.179 -0.1569 -0.0227  0.1234
11041W        W54032  33.850  20.729   4.066 -0.3858 -0.4425 -0.0469
11042W        W54033  19.803  28.371  27.523 -0.0040  0.3079  0.0769
11043W        W54034  14.931   2.558   2.249 -0.3524 -0.0955 -0.2651
11044W        W54035  10.673  20.366  24.931  0.0484 -0.1230 -0.1794
11045W        W54036  13.155   1.872  10.173  0.2368 -0.3839  0.0443
11046W        W54037  14.303  13.035   4.076  0.1264  0.1390  0.2255
11047W        W54038   8.281  18.334   9.485  0.1108  0.1542  0.0610
11048W        W54039   0.221  19.466  28.653  0.0882  0.2313 -0.0172
11049W        W54040  12.691   2.566  23.464  0.1243 -0.0127  0.0944
11050W        W54041  25.637   7.622   9.993 -0.0810  0.1286 -0.3300
11051W        W54042  26.867  14.938   5.587  0.2563  0.1745  0.2566
11052W        W54043  24.114   1.284   3.233 -0.0907  0.0179  0.1812
11053W        W54044   2.410  11.236   4.007  0.3891  0.0618  0.0686
11054W        W54045  14.515   4.393  16.478 -0.0526 -0.0863 -0.4000
11055W        W54046  23.354   6.696  26.510 -0.0307 -0.0258  0.1678
11056W        W54047  14.053   4.482   6.293 -0.0080 -0.0326  0.0424
11057W        W54048  22.040  11.465   8.306 -0.1138  0.1455 -0.2156
11058W        W54049  20.848  33.534  23.069 -0.3076  0.0443  0.2543
11059W        W54050  24.855  12.144   9.219 -0.2261 -0.1070 -0.3350
11060W        W54051  13.286  16.268   5.884  0.0537 -0.0862  0.4455
11061W        W54052  12.212   6.730   3.636  0.0124  0.3349  0.3209
11062W        W54053  24.424  10.348   6.977  0.0038 -0.1213 -0.2971
11063W        W54054  26.473  19.844   2.482 -0.2674 -0.3813  0.4568
11064W        W54055  20.223  27.557   0.608 -0.1746 -0.0751  0.0854
11065W        W54056  23.703   9.533   8.197 -0.1868 -0.1608 -0.0727
11066W        W54057   0.380   4.979  28.920  0.1371  0.0154  0.0758
11067W        W54058  30.504  11.229  27.828 -0.0841 -0.0105 -0.0680
11068W        W54059  30.510  10.804  28.659  0.2525  0.2521 -0.2598
11069W        W54060   0.166  23.131   0.650  0.2119  0.3093  0.0801
11070W        W54061   0.850  27.414   3.291 -0.0500  0.2083  0.4779
11071W        W54062  15.033   7.578  25.573  0.0115  0.0796  0.1667
11072W        W54063   5.114   7.890   4.131  0.0355  0.2095 -0.1857
11073W        W54064  21.265  11.530  13.401  0.1488 -0.1080 -0.0356
11074W        W54065  21.823   0.145   3.381  0.0405 -0.1223  0.2891
11075W        W54066  14.937  13.401   6.605 -0.0948  0.0728 -0.1376
11076W        W54067  28.499  18.478  28.292 -0.4746  0.0399 -0.3160
11077W        W54068  17.824  10.800   7.626  0.1284 -0.1709  0.1079
11078W        W54069   3.119  15.854   3.347 -0.2489 -0.1228 -0.0074
11079W        W54070  19.834   3.679   0.330  0.0680 -0.4659 -0.2706
11080W        W54071  25.412  30.258   7.709 -0.0205  0.1427  0.1034
11081W        W54072  26.859   1.461  12.659 -0.1964 -0.1538 -0.3714
11082W        W54073   4.031  19.133   1.340 -0.0644  0.1355  0.1922
11083W        W54074  11.324  32.158  25.469 -0.5992 -0.0876  0.0000
11084W        W54075  16.760  24.160   4.036  0.2859  0.1568  0.0896
11085W        W54076  18.753  15.260  24.311  0.2194 -0.1521  0.2257
11086W        W54077   9.544  13.308   5.286 -0.4264  0.3471  0.0645
11087W        W54078  21.098  26.660  28.645  0.0484 -0.0625  0.2296
11088W        W54079  24.696  15.600  24.748  0.2305 -0.0699  0.0509
11089W        W54080  19.839  30.428   1.387  0.0485  0.2081 -0.1261
11090W        W54081  15.681  20.012  22.522 -0.5314 -0.1879  0.1700
11091W        W54082  23.976  24.036   5.032  0.0042  0.0298 -0.3364
11092W        W54083  27.818   0.061   5.628 -0.0582  0.1579  0.3139
11093W        W54084  10.553  33.121  29.063 -0.2170  0.2528  0.2357
11094W        W54085  17.146  27.983  19.991  0.3740 -0.3749  0.1743
11095W        W54086  24.722  15.845   9.344  0.2494 -0.0093  0.0370
11096W        W54087  29.131  23.234  27.470 -0.1683  0.0345 -0.0093
11097W        W54088  16.162   9.723   5.001  0.0184  0.0022  0.0362
11098W        W54089   7.576  33.505   2.527  0.0611  0.0274  0.2433
11099W        W54090  29.846  34.323  28.889  0.1889 -0.1383 -0.2257
11100W        W54091  29.190  16.649  27.894  0.1816  0.1036 -0.0304
11101W        W54092  15.200  26.243   5.237  0.2003  0.0093 -0.0612
11102W        W54093  21.609  17.817   4.307 -0.0951 -0.2163  0.0355
11103W        W54094  13.581  20.150   5.922  0.2319 -0.0170  0.2181
11104W        W54095  13.174   3.260  26.869  0.1142  0.2482  0.1612
11105W        W54096   0.721   0.893   6.361  0.1861 -0.1836  0.2385
11106W        W54097  17.012   7.472   3.163 -0.1874 -0.1263  0.4086
11107W        W54098  34.079   0.338   1.513 -0.2593  0.2696  0.2487
11108W        W54099   3.890   9.578   8.455  0.1789 -0.0564  0.1100
11109W        W54100  32.007   9.537  10.429  0.3350  0.0178 -0.0506
11110W        W54101  22.405   0.897   8.630  0.1757  0.5322 -0.1854
11111W        W54102  34.330  10.742  23.983  0.0130 -0.1429 -0.1326
11112W        W54103   7.553  10.082  10.520 -0.0777 -0.0502 -0.0090
11113W        W54104  29.018  14.013   8.643 -0.0138  0.1304 -0.1878
11114W        W54105  17.026  12.702   0.586  0.0925  0.1082 -0.2219
11115W        W54106  11.343  19.972   7.477 -0.0054  0.1203 -0.1129
11116W        W54107  15.400   0.962   2.638 -0.1707  0.1189  0.1125
11117W        W54108  22.487   7.342  26.396 -0.0701 -0.2486  0.3353
11118W        W54109  25.697   6.790  23.723 -0.1661  0.1240  0.0249
11119W        W54110  20.367   5.974   3.484  0.0397  0.0279  0.6015
11120W        W54111   5.152   6.390  11.778 -0.1411  0.2470 -0.0872
11121W        W54112  25.539   8.348   7.423 -0.0366 -0.0401  0.0033
11122W        W54113  30.444  22.161  20.540 -0.2841  0.0897  0.1801
11123W        W54114  31.424  18.162   8.531 -0.1725  0.3220  0.2914
11124W        W54115  10.718  17.911   5.388 -0.1894  0.2600 -0.0845
11125W        W54116  23.485  13.234   3.589  0.2553 -0.4231  0.1114
11126W        W54117   7.877  19.228  27.835 -0.3459  0.3308 -0.0738
11127W        W54118  10.652  15.395   7.776  0.0494  0.2018  0.1344
11128W        W54119   8.904  33.574  23.008 -0.2875 -0.1466 -0.1094
11129W        W54120  13.501   5.243  22.362 -0.2727  0.1218  0.2280
11130W        W54121  12.353  17.230   9.385  0.0455 -0.0737  0.1298
11131W        W54122  23.342   5.820   0.537 -0.1643 -0.1211 -0.2252
11132W        W54123  12.372   1.211   8.144  0.2577  0.2697 -0.2013
11133W        W54124  25.339   6.309  23.905  0.0431  0.0564  0.0634
11134W        W54125  33.083  14.176  24.024 -0.1435  0.1879  0.1264
11135W        W54126  23.338   7.601   3.156 -0.0586  0.2584 -0.1126
11136W        W54127  30.176  26.480   7.538  0.0897 -0.1352 -0.0997
11137W        W54128  18.085  18.069   5.143 -0.1513  0.1882 -0.0194
11138W        W54129  31.641   5.482   9.730  0.1933  0.0240  0.2041
11139W        W54130  22.389   9.163   1.907 -0.0442 -0.0491  0.0731
11140W        W54131  25.065  13.808   2.132 -0.0723  0.0553  0.0437
11141W        W54132  27.498  10.369   5.821 -0.2013  0.1142  0.0981
11142W        W54133   0.579  22.787   5.461 -0.2366 -0.2194 -0.0827
11143W        W54134   8.139  29.656   4.267 -0.0139  0.1214 -0.1877
11144W        W54135  30.463  20.354   9.968 -0.2488 -0.0424 -0.0963
11145W        W54136  22.727  18.713   0.377 -0.1845 -0.2775 -0.1570
11146W        W54137   7.440   3.728   9.051  0.0379 -0.0437 -0.0266
11147W        W54138  19.782  11.241   8.419 -0.0400 -0.1499 -0.1602
11148W        W54139   1.709  18.720   7.778  0.1904 -0.2286 -0.2365
11149W        W54140  17.628  12.618  24.092  0.2932 -0.0173 -0.1001
11150W        W54141  23.313  33.412   1.341  0.0239 -0.1319  0.0235
11151W        W54142  21.046   7.486   3.965  0.1318  0.1185  0.1805
11152W        W54143  23.639  31.771   6.322 -0.2424 -0.1395 -0.0135
11153W        W54144   8.024   3.546   5.981  0.2459  0.2209  0.2817
11154W        W54145  25.087   2.411   6.005  0.1311  0.4469 -0.1203
11155W        W54146  22.265  12.721   3.083  0.1372  0.2980  0.0978
11156W        W54147  21.389   6.367   7.630 -0.1531  0.0748  0.1665
11157W        W54148  14.745   4.582   0.289  0.0826  0.0792 -0.1570
11158W        W54149   9.282  28.387  22.539 -0.1210  0.1065  0.0951
11159W        W54150  26.751   6.346   9.815 -0.0955 -0.2867  0.1930
11160W        W54151   6.284   2.154   7.256 -0.2452  0.2965  0.1700
11161W        W54152  13.352   0.718   9.473 -0.0496 -0.1200 -0.1523
11162W        W54153  31.067   5.008   8.272  0.0656  0.2831 -0.3693
11163W        W54154  18.989  16.587   5.230  0.0679 -0.0446 -0.2650
11164W        W54155  21.314  19.478  25.531  0.2079  0.0498  0.2130
11165W        W54156  21.008  16.105  23.933  0.2887 -0.1271 -0.0679
11166W        W54157   1.714  33.845  28.844  0.1130  0.0070 -0.0372
11167W        W54158   7.951   8.955   1.811  0.0491 -0.0781 -0.0915
11168W        W54159  21.613   6.207   2.208  0.2476  0.1855  0.1906
11169W        W54160  25.446   5.774   0.449  0.3703  0.2494 -0.1512
11170W        W54161  20.407  28.646   3.913 -0.3595  0.2020 -0.1419
11171W        W54162  34.463   4.941   9.437 -0.3413 -0.2997  0.4805
11172W        W54163  33.796  16.432  19.355  0.2481  0.1581 -0.0396
11173W        W54164  25.745  24.819  25.259 -0.0338 -0.2240  0.0417
11174W        W54165  18.838  18.702   8.462  0.1094 -0.0183  0.3718
11175W        W54166  18.327  32.107   9.980 -0.1426  0.2165 -0.0655
11176W        W54167  17.552  29.993   8.028  0.0728  0.0095  0.3172
11177W        W54168  23.330  10.571   2.040  0.0882  0.2704 -0.0743
11178W        W54169  21.213  29.373   7.968 -0.1523 -0.1000 -0.2260
11179W        W54170  30.344   7.374   8.247 -0.3980  0.0104 -0.1471
11180W        W54171  14.939   9.473  23.808  0.1419  0.1965  0.1466
11181W        W54172   6.535  13.381  28.112 -0.1813  0.0231 -0.0167
11182W        W54173  31.344  15.683   8.829 -0.1261  0.2298  0.0240
11183W        W54174  15.759   6.560  25.818  0.2224 -0.0128  0.0381
11184W        W54175   3.458  13.407   3.329  0.0945  0.0207 -0.1547
11185W        W54176   1.064  28.324  27.396 -0.1656  0.0348  0.1904
11186W        W54177  27.766  28.575  27.030 -0.0354  0.0358  0.1019
11187W        W54178  30.371   0.660   2.755 -0.0628 -0.1065 -0.0046
11188W        W54179  10.341   1.285   5.450 -0.2473  0.0516  0.1001
11189W        W54180  14.491   2.187   5.689 -0.3863 -0.0808 -0.1829
11190W        W54181  29.939  19.578   5.111  0.0358 -0.4718 -0.3240
11191W        W54182   4.593  28.736  29.102  0.2915  0.4596 -0.2096
11192W        W54183  28.636   6.949   7.563  0.1560  0.2180 -0.0715
11193W        W54184  24.847   1.477   8.635 -0.0132 -0.1525 -0.3389
11194W        W54185  16.208   5.504  20.951  0.0605 -0.2011 -0.0281
11195W        W54186  11.769   9.291   5.244 -0.5227 -0.1939  0.0477
11196W        W54187  16.861   5.929   9.192 -0.1553 -0.0422 -0.0849
11197W        W54188  13.053   5.015  24.679 -0.0175 -0.1229  0.1619
11198W        W54189  30.056  14.001   6.116  0.1706 -0.1573  0.0267
11199W        W54190  20.503  13.672  14.542 -0.2354  0.0340  0.0977
11200W        W54191  25.722  21.175   1.394  0.1261 -0.0205  0.3281
11201W        W54192   3.114  18.657   4.132 -0.0393  0.3531 -0.1968
11202W        W54193  32.196  31.854   7.195  0.1403  0.0046 -0.0448
11203W        W54194  16.245  10.613  26.133  0.0828 -0.0772 -0.1721
11204W        W54195   4.358  15.529   9.366 -0.2152  0.0959  0.0334
11205W        W54196  14.704   3.463   8.000  0.1149  0.1852 -0.1464
11206W        W54197  29.373  18.461   7.419  0.0598 -0.3518 -0.2644
11207W        W54198   4.332   4.479  22.974 -0.0461  0.0912  0.0358
11208W        W54199  12.697   6.604  10.561  0.1487  0.2264  0.2777
11209W        W54200  24.148  13.494   4.991 -0.2710 -0.4800  0.0175
11210W        W54201  19.078   9.605   7.045  0.1673 -0.1289  0.1303
11211W        W54202  27.871   2.544   4.024 -0.1397 -0.1758  0.3060
11212W        W54203  22.441  33.586  29.198 -0.2359  0.4122 -0.1936
11213W        W54204  11.918  25.892   8.983 -0.1146  0.1742 -0.0402
11214W        W54205  10.576   1.106   9.975  0.0208 -0.1537 -0.0454
11215W        W54206  21.259  15.519   8.404 -0.0567  0.3309 -0.1453
11216W        W54207  13.265  29.471   9.616  0.2548 -0.0431  0.3242
11217W        W54208  13.551   3.489  11.238 -0.0540  0.0126 -0.1108
11218W        W54209  24.835  20.758   4.104 -0.1737 -0.4387  0.2176
11219W        W54210   3.230  10.792   9.695  0.0569  0.1775  0.1034
11220W        W54211  24.854  14.553   3.954 -0.3374  0.1120 -0.2518
11221W        W54212  26.148   4.024  26.627  0.0307  0.1728 -0.0969
11222W        W54213  29.493   9.700  24.532  0.1813 -0.0448  0.1826
11223W        W54214   0.818  22.147   7.193 -0.1780  0.0415 -0.2477
11224W        W54215  27.483  28.078   0.578  0.0693 -0.0567 -0.0699
11225W        W54216  16.436   0.462   8.165 -0.0512  0.1845 -0.0385
11226W        W54217   6.225  10.763   3.712 -0.2786 -0.1637 -0.0563
11227W        W54218  13.595   8.904  28.095  0.0176  0.0056 -0.0356
11228W        W54219  34.012  24.443  23.583 -0.3007  0.1710  0.1083
11229W        W54220  21.586  32.783   1.542  0.1946  0.1788 -0.0879
11230W        W54221   1.750  34.134   7.969 -0.3624 -0.0604 -0.0031
11231W        W54222  19.545   1.585   3.134  0.0563 -0.1318  0.0113
11232W        W54223  22.543  29.663   3.267 -0.0230  0.1585  0.0508
11233W        W54224  25.962  27.082   4.415  0.0574 -0.4695 -0.1574
11234W        W54225  22.532  17.334   3.978 -0.2489 -0.2262 -0.0725
11235W        W54226  21.460  25.570   8.447 -0.0061 -0.3370  0.0949
11236W        W54227  16.436  16.752  20.538 -0.0560  0.0552 -0.0230
11237W        W54228  15.276  14.778   8.844 -0.0601  0.2127 -0.0121
11238W        W54229   6.821  20.236  25.749  0.1700 -0.0352 -0.2361
11239W        W54230   4.409  22.459   5.688 -0.0053  0.1720  0.0013
11240W        W54231  34.229   5.936   5.127 -0.3579  0.1323 -0.1421
11241W        W54232  27.384  24.242   5.016  0.0263  0.2756 -0.1161
11242W        W54233  10.389  11.888  11.053 -0.3695 -0.1314  0.1088
11243W        W54234  12.618  11.395  10.774  0.1680 -0.0221  0.0453
11244W        W54235  14.947   2.303  20.107 -0.0322  0.1002  0.0769
11245W        W54236  17.213  12.475   7.211 -0.0962 -0.0861  0.1030
11246W        W54237  18.068  25.870   7.745  0.0187 -0.3190 -0.0769
11247W        W54238   4.917  18.980  26.368 -0.2474  0.1409 -0.0563
11248W        W54239  20.622  30.614  17.755 -0.0285 -0.0690  0.2826
11249W        W54240  22.471   9.938   0.867  0.4277  0.2098  0.0820
11250W        W54241   7.376   6.999  21.397  0.1810 -0.1870 -0.0095
11251W        W54242  16.606  15.811   5.256 -0.1006  0.0928  0.2663
11252W        W54243  17.379   7.739   7.792  0.1081 -0.0546 -0.1028
11253W        W54244  18.896  16.059  28.843  0.0895  0.1479 -0.0737
11254W        W54245  28.058  21.042   6.148  0.0427  0.1482 -0.2596
11255W        W54246  11.513  31.787   5.010 -0.2905  0.1499 -0.0657
11256W        W54247  17.027  32.373  26.600  0.2178 -0.2634  0.0491
11257W        W54248  13.750  14.747  26.927  0.1051 -0.1876  0.0517
11258W        W54249   0.477  16.498   9.238  0.1179 -0.1133  0.0411
11259W        W54250  19.643   5.077   4.909 -0.1155  0.0855  0.2261
11260W        W54251  14.153  25.968   6.488  0.3402 -0.2590  0.1817
11261W        W54252  14.941  14.146  28.092  0.1435  0.0467  0.0685
11262W        W54253  20.541   4.515   1.492 -0.0990  0.3746  0.1252
11263W        W54254  21.599  27.442  25.757  0.0647  0.1142 -0.2603
11264W        W54255  33.756  15.401   2.856  0.0866 -0.0024  0.2605
11265W        W54256  26.008   2.132   0.474 -0.1908 -0.0332 -0.1315
11266W        W54257  25.841   6.765   4.917  0.0154  0.0678  0.0494
11267W        W54258  13.593  32.624  15.699 -0.0594  0.4284  0.0110
11268W        W54259  15.595   5.109   9.652 -0.0229 -0.1244  0.0943
11269W        W54260   7.889   9.321  28.817  0.1893  0.1513  0.2418
11270W        W54261  29.456  20.213   3.492  0.1620 -0.2079 -0.0900
11271W        W54262  30.762  31.756  27.447  0.0436 -0.0030  0.1610
11272W        W54263  25.830  25.769   4.446  0.1214 -0.1227  0.1664
11273W        W54264   9.667   2.766  28.218  0.1118  0.1448  0.0713
11274W        W54265  22.621  18.894   4.450 -0.0487 -0.1471 -0.1157
11275W        W54266  14.369   6.545   7.612  0.0795  0.0032 -0.1949
11276W        W54267  12.741  22.798   8.145 -0.0340 -0.0307 -0.0207
11277W        W54268  21.049  20.308   3.545 -0.0470  0.1976  0.1584
11278W        W54269  26.313  30.229   4.070  0.0913 -0.1411 -0.1957
11279W        W54270  28.136  11.974   4.265  0.1855 -0.2591 -0.2625
11280W        W54271  19.342   0.474  16.605  0.0178  0.2858  0.2081
11281W        W54272  15.983  10.138   9.344 -0.0279  0.3275 -0.1609
11282W        W54273  17.375  10.470   9.179 -0.0830 -0.1143  0.2141
11283W        W54274  24.323  21.406  22.534 -0.3017  0.2652 -0.3779
11284W        W54275  22.490  22.835  28.239  0.2903 -0.1582 -0.3369
11285W        W54276  23.665  16.131   7.500  0.1441 -0.3540 -0.3405
11286W        W54277  23.100  21.827   0.984 -0.1029 -0.0921  0.0285
11287W        W54278   7.840  12.390  27.864  0.0696  0.1061  0.4300
11288W        W54279  13.180   7.579  23.886 -0.2762 -0.0474  0.1496
11289W        W54280  21.655   8.684   5.402  0.3788  0.1845  0.0393
11290W        W54281  19.788  16.925   5.957  0.0398 -0.3857  0.1873
11291W        W54282  18.294   1.962   1.837  0.2164  0.1481 -0.2144
11292W        W54283  29.960  18.167  21.046  0.5319 -0.0264 -0.0949
11293W        W54284  12.108   1.938  27.918 -0.0394 -0.2663 -0.0487
11294W        W54285  28.554  15.473  25.013  0.1328 -0.1837 -0.0037
11295W        W54286  11.470  11.957  27.082  0.0090 -0.1564 -0.2550
11296W        W54287   8.295  20.806  15.711 -0.1909 -0.0067  0.1604
11297W        W54288   7.056  33.623   5.006 -0.1235 -0.2210  0.2623
11298W        W54289   2.369   2.940   2.222 -0.0929 -0.1504 -0.1201
11299W        W54290   8.461  10.676   9.524 -0.2132  0.0335  0.0038
11300W        W54291  15.907   6.704   5.284 -0.5177 -0.0596 -0.3472
11301W        W54292   8.437  34.061   4.801 -0.2259  0.2055 -0.3488
11302W        W54293   6.534   9.244  27.960 -0.1714 -0.1591 -0.1389
11303W        W54294   4.743   5.400   2.534  0.1966 -0.0098  0.0410
11304W        W54295  22.372  16.514  23.665  0.0292 -0.0275 -0.0581
11305W        W54296  25.479  22.645  18.316 -0.2224 -0.2701  0.1525
11306W        W54297  26.728   3.219  20.824  0.2500 -0.2363 -0.1467
11307W        W54298  14.296  11.448  29.208  0.2863  0.2570  0.2627
11308W        W54299  13.004  29.060   1.488  0.1901  0.0847 -0.0408
11309W        W54300   9.680   9.861   8.169 -0.1263  0.1115  0.2831
11310W        W54301  32.577  19.940   8.193 -0.0493 -0.2395 -0.0651
11311W        W54302  15.581   7.797   8.906 -0.1011  0.1982 -0.1171
11312W        W54303  15.746  13.103   6.636  0.1656  0.3453 -0.2228
11313W        W54304  30.450  10.725  18.063  0.2193  0.1629  0.0963
11314W        W54305  20.779   8.342  22.598  0.4402 -0.1777  0.3781
11315W        W54306  10.351  32.833  22.587  0.0769 -0.2112  0.3730
11316W        W54307  22.392  28.187   4.756  0.0690 -0.5215  0.1854
11317W        W54308  28.952  23.833   7.113  0.0284 -0.0481 -0.0384
11318W        W54309  16.831   5.482   6.171 -0.0566  0.2632 -0.0520
11319W        W54310   8.570  13.918   2.501  0.2418 -0.0043  0.0613
11320W        W54311  10.408   1.135   7.064 -0.0997 -0.0494  0.2503
11321W        W54312  22.488   7.238  29.051  0.0005  0.0125 -0.3138
11322W        W54313  12.795  27.798   4.632  0.0603 -0.1371  0.0216
11323W        W54314  16.743   4.903   9.510 -0.0710  0.0419  0.1696
11324W        W54315  21.022  13.331   1.764  0.2199  0.2839  0.1896
11325W        W54316  18.229   2.357  27.650  0.0304 -0.0918  0.1487
11326W        W54317  14.513  13.122   5.973  0.2645 -0.0480 -0.2121
11327W        W54318   6.678  13.725   2.909 -0.1363  0.1983 -0.0046
11328W        W54319  23.399   8.336   7.021 -0.1843  0.0249  0.1571
11329W        W54320  28.832  22.230   3.497  0.1793 -0.2662 -0.1596
11330W        W54321  17.316  11.174   9.671  0.3085  0.1727 -0.1066
11331W        W54322  16.855   9.631   8.586 -0.0149 -0.0097 -0.2358
11332W        W54323  11.435  26.909   0.875  0.1459 -0.0795 -0.0779
11333W        W54324  16.972   2.818   6.873 -0.1220  0.0870 -0.2323
11334W        W54325  23.607   8.473   1.312 -0.0868 -0.3436 -0.1069
11335W        W54326  27.927  30.270   5.126 -0.0604 -0.1102 -0.0978
11336W        W54327  17.376  11.793  28.688 -0.0533  0.3905 -0.3170
11337W        W54328  29.178  18.031   8.079 -0.1343  0.0034  0.1351
11338W        W54329   7.491   2.848  17.658 -0.2400 -0.0371  0.0474
11339W        W54330  18.266  25.470   2.016  0.4108  0.3936  0.0656
11340W        W54331  12.297   8.847  10.233  0.1782 -0.0706  0.0791
11341W        W54332  13.202  31.488   4.939 -0.3280 -0.1700 -0.1569
11342W        W54333  29.740   9.527  28.599  0.1158 -0.1440 -0.1968
11343W        W54334  20.697  22.316   1.450  0.2962 -0.1710  0.0937
11344W        W54335  22.820   3.695  19.362 -0.1502 -0.1987 -0.3083
11345W        W54336  10.832   5.375  27.380  0.2041 -0.1248 -0.0569
11346W        W54337   9.997   2.163  28.910 -0.1992 -0.0587 -0.0226
11347W        W54338   9.948   9.641  29.017 -0.1415  0.0712  0.2181
11348W        W54339   8.546   2.125   8.741  0.0865  0.0581 -0.1892
11349W        W54340  21.100   7.681  25.931 -0.1721  0.0597  0.1396
11350W        W54341  17.935  11.831   4.435 -0.0905  0.2069  0.1104
11351W        W54342  11.630  33.168  25.472 -0.1104  0.3241 -0.0385
11352W        W54343  21.960   8.692   3.595  0.2721 -0.2278 -0.1134
11353W        W54344   4.420  29.039   2.123  0.2847  0.0534  0.1074
11354W        W54345   7.220  17.264  28.516  0.1548 -0.1589 -0.0648
11355W        W54346  18.640  26.789   0.776  0.0608  0.2100 -0.3927
11356W        W54347  21.879   4.714   6.690  0.0691 -0.4315  0.0285
11357W        W54348   6.638  32.085   8.353 -0.2419 -0.1196 -0.2039
11358W        W54349  17.906  13.432  22.634  0.1692 -0.0515 -0.3526
11359W        W54350  20.109  14.011   8.103  0.2616  0.0637 -0.0609
11360W        W54351  21.139  13.849   7.358 -0.0233  0.0357  0.2898
11361W        W54352  13.455   2.346   7.476  0.0933  0.0973  0.1078
11362W        W54353  22.367  25.403   1.052  0.0435 -0.1498  0.0337
11363W        W54354  21.452   6.079   3.622 -0.0545 -0.1117 -0.0314
11364W        W54355  21.711   8.627  18.989  0.2488 -0.0778  0.1883
11365W        W54356  18.299  18.187   0.678  0.0769  0.0438  0.2281
11366W        W54357  16.333  16.416   0.308  0.0232  0.0375 -0.2412
11367W        W54358   9.474  13.728  19.138  0.2025  0.1871 -0.2736
11368W        W54359  16.363  17.487  25.660  0.0274 -0.2354 -0.0986
11369W        W54360   8.254  33.407   2.729  0.1817 -0.0092 -0.0376
11370W        W54361  20.111   9.096   3.167  0.1557 -0.0599  0.2109
11371W        W54362   6.124   6.555  10.950  0.0510  0.1198 -0.0724
11372W        W54363  20.235  14.164  20.258 -0.3164 -0.2752 -0.1280
11373W        W54364  13.891   6.445   1.002  0.1980  0.0817 -0.0857
11374W        W54365  12.575  12.214   5.089  0.1176 -0.2201 -0.0312
11375W        W54366  12.378  22.547  18.949 -0.3774 -0.0457 -0.1248
11376W        W54367   1.594  13.070  24.167 -0.1851 -0.1752  0.1568
11377W        W54368  33.346   6.078   4.052  0.0612 -0.0561 -0.0464
11378W        W54369   7.536   5.599  15.993 -0.1067 -0.1275  0.0856
11379W        W54370   7.218  30.712   6.980 -0.0493  0.2632  0.1309
11380W        W54371   9.062   4.799  27.022  0.1604 -0.0544 -0.0312
11381W        W54372   4.693  20.984   5.853  0.1433 -0.3134  0.1304
11382W        W54373  29.015   4.431  27.138  0.1351 -0.2065 -0.1134
11383W        W54374  30.735  32.122   0.186 -0.0666 -0.1102 -0.2089
11384W        W54375  14.310   2.838   7.582  0.0798 -0.1814  0.0510
11385W        W54376  15.421  11.271  28.475 -0.0683 -0.0875  0.1912
11386W        W54377  33.300  16.203  26.853 -0.0427 -0.1080  0.2019
11387W        W54378   2.410  13.137  28.539  0.1805 -0.0703  0.2589
11388W        W54379  25.247  12.006  14.844 -0.1451  0.6295 -0.2801
11389W        W54380  19.752  10.686   4.967  0.0462 -0.2244 -0.1339
11390W        W54381  25.569  19.084  29.228 -0.2466 -0.3342  0.0173
11391W        W54382  29.068   7.810   1.791 -0.1195  0.2557 -0.1778
11392W        W54383  23.646   6.252   2.914  0.0232  0.1914 -0.0750
11393W        W54384  17.585  19.858   4.874 -0.2556  0.3052  0.3992
11394W        W54385  24.336   9.990  24.673 -0.1138 -0.1001 -0.5069
11395W        W54386  13.173  11.086   7.995  0.0094 -0.0792  0.0239
11396W        W54387  15.187  18.141  26.244  0.2873 -0.0218 -0.0908
11397W        W54388  25.317   4.840   5.138 -0.0993 -0.2382  0.1009
11398W        W54389   3.867  25.377   6.408 -0.1965 -0.1827  0.0425
11399W        W54390  18.698  12.830   4.880  0.3444 -0.1182  0.1843
11400W        W54391   8.265  10.572  28.746 -0.0713 -0.1584 -0.0266
11401W        W54392  21.821   3.963  18.593  0.2096 -0.4015 -0.0397
11402W        W54393  34.291  12.105  10.058  0.2452  0.0512  0.1604
11403W        W54394  20.865  32.918   1.693  0.1423 -0.1879  0.2003
11404W        W54395   9.026  25.446   6.492  0.1647 -0.1089  0.2222
11405W        W54396  31.137   0.758   1.110 -0.0689  0.1551 -0.0600
11406W        W54397  34.565  32.167   9.658 -0.0960  0.2105  0.1081
11407W        W54398   3.129  18.508   6.640 -0.0212 -0.1916 -0.1006
11408W        W54399   8.104  16.548  28.562  0.0723 -0.2577  0.1001
11409W        W54400  20.583   6.378   4.270 -0.1895  0.2871 -0.0958
11410W        W54401  21.979  32.349  28.499  0.3312 -0.1845 -0.0481
11411W        W54402  24.689  10.828  23.255  0.4091 -0.0377  0.0648
11412W        W54403  10.103  11.698   7.824  0.4532  0.0946 -0.1130
11413W        W54404  25.320  14.682  27.778 -0.0314  0.0262 -0.0382
11414W        W54405  28.562   5.318   7.644  0.2845  0.0103  0.2001
11415W        W54406  25.682  28.370   8.114 -0.1290 -0.3330  0.1489
11416W        W54407  10.682   9.358   4.849 -0.1438 -0.0359  0.2264
11417W        W54408  23.135  21.217  24.938  0.0470 -0.0079  0.1818
11418W        W54409  24.547  22.591   3.706 -0.3518 -0.0348  0.3051
11419W        W54410  22.084   2.823   8.303 -0.1289 -0.0049  0.5505
11420W        W54411  31.816  22.305  15.233 -0.0433 -0.0834 -0.2266
11421W        W54412  16.767  11.966   7.957 -0.2122  0.2851 -0.2987
11422W        W54413  26.098  16.153   3.852 -0.2601  0.3256  0.1714
11423W        W54414  20.376  10.264  16.054  0.0608 -0.5360 -0.3313
11424W        W54415  24.554   2.086   5.479 -0.1280 -0.0846 -0.0550
11425W        W54416  19.289   1.725  27.676 -0.0548 -0.1011  0.2566
11426W        W54417   4.598   7.016   4.771 -0.1749  0.2716 -0.0665
11427W        W54418  13.671  10.106   7.117  0.0519  0.0608  0.0598
11428W        W54419  21.574   1.494   1.336 -0.5145  0.3391  0.1687
11429W        W54420  20.640   5.300   1.866 -0.0718 -0.3184 -0.0883
11430W        W54421  21.363   4.376   3.714 -0.0216 -0.1116  0.1076
11431W        W54422   7.292   9.772  11.512  0.1377  0.3127 -0.0157
11432W        W54423  11.953  16.775   7.750 -0.2832 -0.1684  0.0217
11433W        W54424  11.074  12.960   6.396 -0.2056 -0.0785 -0.3712
11434W        W54425  12.938  18.972  24.791  0.2804  0.0641 -0.0209
11435W        W54426  16.188   8.004  10.010  0.2112  0.0427  0.0115
11436W        W54427  10.723  22.529   7.442  0.1755 -0.2188  0.0043
11437W        W54428   2.978   3.724  23.161 -0.0763  0.0893  0.1572
11438W        W54429  18.377  16.707   9.302 -0.1673 -0.0160  0.0480
11439W        W54430  15.782  31.386   4.365  0.0698  0.0163 -0.1910
11440W        W54431   9.431  30.524   9.606  0.1359  0.0015  0.2584
11441W        W54432  17.885   5.709   7.125  0.1768  0.0383 -0.0185
11442W        W54433  16.708   9.049   3.418 -0.0025 -0.0154 -0.1209
11443W        W54434   7.017  27.380   2.257 -0.0248  0.1849  0.2105
11444W        W54435   8.553   6.112   4.568  0.2503 -0.4088  0.0321
11445W        W54436  22.469  16.059   1.778  0.1494  0.2160 -0.0233
11446W        W54437  32.202  17.664   4.407 -0.0159  0.0041  0.0132
11447W        W54438  25.020  24.343   6.341 -0.1433  0.2171  0.1334
11448W        W54439  18.795  19.355   9.459 -0.2623  0.1531 -0.1923
11449W        W54440  19.544   4.913   2.827  0.2535 -0.2313  0.0348
11450W        W54441  24.663   4.730  19.851  0.0873 -0.0254  0.1822
11451W        W54442  15.063  13.810   3.958  0.1880 -0.3032 -0.0718
11452W        W54443  23.814   9.359   3.891 -0.1210 -0.1020  0.0975
11453W        W54444  11.410  33.624   7.065  0.2383  0.0625 -0.0712
11454W        W54445  22.097  30.764   4.683  0.0082  0.0859  0.1861
11455W        W54446  29.775   3.609   6.791  0.2195  0.1999 -0.0253
11456W        W54447  12.446   9.437   0.693  0.1553 -0.3816 -0.0377
11457W        W54448  25.722  12.129   8.059 -0.2039 -0.0401 -0.0098
11458W        W54449  14.429  23.339   1.846 -0.0317  0.0464  0.1015
11459W        W54450  14.716  11.521   9.646  0.0228 -0.0819 -0.0099
11460W        W54451  19.552   9.343   6.819  0.1374 -0.0341 -0.0918
11461W        W54452  20.050  23.671   7.003  0.3334  0.1259  0.4387
11462W        W54453  23.228  15.881   3.059 -0.2288  0.0045 -0.0324
11463W        W54454  20.879   8.505   8.407 -0.5537  0.3847  0.2337
11464W        W54455  24.426  13.172   6.303  0.1900 -0.1768  0.1150
11465W        W54456  16.234  23.219   0.614 -0.0542 -0.0235  0.2381
11466W        W54457  28.347   0.110  22.599 -0.0777 -0.0946 -0.1085
11467W        W54458  20.773  18.669  22.639 -0.0314 -0.0469 -0.1829
11468W        W54459  22.874  20.278   4.527  0.2062 -0.2809 -0.2860
11469W        W54460  12.996  29.284   3.825  0.0279 -0.2341  0.2508
11470W        W54461  34.328  24.070   7.323 -0.2059  0.0621 -0.1779
11471W        W54462  20.645   4.680   8.399 -0.0395 -0.1238 -0.1586
11472W        W54463  16.363  24.649  23.639 -0.3013 -0.0969  0.0110
11473W        W54464  21.642  10.595   9.867 -0.1340 -0.0960 -0.0368
11474W        W54465  12.456  13.203   3.066 -0.0059  0.0845 -0.1329
11475W        W54466   9.929  30.104   8.234 -0.3120  0.0817  0.0410
11476W        W54467  14.785  21.849   2.383  0.1727 -0.0185  0.1335
11477W        W54468  11.493  13.514   3.373 -0.1222  0.3624 -0.3231
11478W        W54469  26.491   4.112   0.900 -0.0421  0.0087 -0.2585
11479W        W54470  13.544   1.986   9.800  0.1643  0.3132  0.0450
11480W        W54471  11.308  12.534   6.639 -0.0083 -0.0932  0.0312
11481W        W54472  11.873  30.028  26.691 -0.1648  0.1450 -0.1054
11482W        W54473  18.373   5.632   9.055  0.1225 -0.1308 -0.0524
11483W        W54474  16.069  19.218   8.887 -0.2556 -0.1510  0.1136
11484W        W54475  12.894  33.665  22.896  0.1339 -0.0963 -0.0032
11485W        W54476  29.354  14.011   4.011  0.2765  0.2111  0.1331
11486W        W54477  24.883  19.413   7.613  0.1290  0.0552 -0.2840
11487W        W54478   3.902  20.281   0.326 -0.0976 -0.0713  0.0176
11488W        W54479  13.341  21.533   3.708  0.0639  0.1617 -0.1846
11489W        W54480  23.636   7.013  25.712  0.0806 -0.1128  0.1409
11490W        W54481  12.267  16.919  22.665 -0.1250  0.0872  0.2471
11491W        W54482   2.500  18.853  24.289  0.2749 -0.3947  0.1829
11492W        W54483  14.741   2.998   1.726 -0.2881 -0.0921  0.0223
11493W        W54484  24.680  28.315  28.315 -0.1416 -0.1009  0.5674
11494W        W54485  33.919  16.691  28.859 -0.3896 -0.1934 -0.0577
11495W        W54486   3.903  16.624  28.174  0.0183  0.0720  0.0779
11496W        W54487  16.165   5.596  23.462  0.2507  0.0446  0.1315
11497W        W54488  15.393  11.463   5.511  0.1162 -0.0146 -0.1144
11498W        W54489  19.187   8.916   3.645 -0.1227 -0.2190  0.0469
11499W        W54490  17.822  15.614   0.665  0.0137 -0.0897  0.1314
11500W        W54491  19.230   1.325   9.931 -0.0845  0.0015 -0.2045
11501W        W54492   5.367  21.114   4.989  0.0322 -0.3048 -0.1377
11502W        W54493  32.671  17.989   4.358  0.0868 -0.0808 -0.1293
11503W        W54494  22.132  13.240  24.510  0.1439 -0.3461 -0.0448
11504W        W54495  20.112   9.592   6.310 -0.1007 -0.1511  0.2328
11505W        W54496  13.628  14.029   7.873 -0.0034  0.3256 -0.0125
11506W        W54497  23.456   9.032   5.686  0.4146 -0.0604  0.1417
11507W        W54498   3.628   9.303  11.703  0.2972 -0.0274 -0.0270
11508W        W54499  34.797  21.801  27.478  0.2644  0.1880  0.0563
11509W        W54500  23.368  12.794   0.198 -0.0566 -0.1564  0.1528
11510W        W54501  23.094   5.104   8.293  0.3056  0.0218  0.0463
11511W        W54502  32.284   6.979  10.321 -0.0702 -0.1218  0.0987
11512W        W54503  19.894  10.009   3.131  0.2658  0.2036 -0.3027
11513W        W54504  32.689  14.592  25.878  0.2078  0.1422 -0.2316
11514W        W54505  10.369  10.914   3.267  0.0053 -0.1392 -0.0845
11515W        W54506  20.854  19.947  25.117  0.0216  0.1449  0.3281
11516W        W54507   1.471  17.363   9.321 -0.1180  0.1020  0.2095
11517W        W54508  17.908  32.133   4.591 -0.0035 -0.0468  0.0541
11518W        W54509  16.116   4.060   6.929 -0.1779  0.1681 -0.1032
11519W        W54510   2.226   2.033   5.089  0.0845 -0.0769  0.1228
11520W        W54511   8.040  12.822   8.596 -0.1297 -0.0123  0.0921
11521W        W54512  31.743  16.318  27.906 -0.0446  0.0435  0.1140
11522W        W54513  16.580   4.817  22.962  0.0086  0.0152 -0.1228
11523W        W54514   0.674  15.058  10.809 -0.0019 -0.3228  0.0400
11524W        W54515  27.697   9.148   3.828  0.1283 -0.0223 -0.1454
11525W        W54516  18.983  16.449   7.973  0.0753 -0.1352 -0.0197
11526W        W54517  23.745  18.449  29.229  0.3241 -0.0362  0.4964
11527W        W54518  18.383   1.019   2.613 -0.2087 -0.1378  0.1620
11528W        W54519  22.792   1.457   9.173  0.2411  0.3505 -0.2912
11529W        W54520  12.990  20.633   9.671  0.1896 -0.1062  0.1759
11530W        W54521  10.686  27.995  10.863  0.0684 -0.0739  0.1056
11531W        W54522  18.316  11.609   4.126  0.2570  0.0280 -0.1303
11532W        W54523  32.893   0.447  25.833  0.1949 -0.0473  0.1112
11533W        W54524  20.536  16.073  23.618 -0.0167 -0.1525 -0.5250
11534W        W54525  25.647   5.665   7.568 -0.1372 -0.3280  0.1665
11535W        W54526  20.314  28.002   2.492  0.2060 -0.1788 -0.1180
11536W        W54527  11.847  11.380   4.799  0.1346 -0.1358  0.0675
11537W        W54528   8.888  16.077   1.477 -0.2216 -0.1168  0.1108
11538W        W54529  23.786  10.966  23.158 -0.0597 -0.1363 -0.2393
11539W        W54530   5.731  17.451  11.509  0.0194  0.0048  0.3003
11540W        W54531  11.584  23.741  26.089  0.0323 -0.3850 -0.3364
11541W        W54532  34.000  12.457   8.864 -0.0027  0.0702  0.0740
11542W        W54533  16.193   0.980   9.007 -0.0611 -0.0731 -0.1718
11543W        W54534  29.352  24.433   2.070  0.1281  0.1116 -0.0562
11544W        W54535  30.079  34.704   6.283 -0.0861 -0.1517  0.0028
11545W        W54536  21.578  18.291   5.660  0.0846 -0.3303  0.0422
11546W        W54537  15.902  32.492   5.065  0.3520 -0.2294 -0.1693
11547W        W54538  19.428  14.635   4.190 -0.2403  0.1860 -0.3684
11548W        W54539  22.713  11.416  25.004 -0.1994 -0.0390 -0.2001
11549W        W54540  12.907   8.060   9.705 -0.1445  0.0352 -0.1443
11550W        W54541  24.059  14.411   1.659  0.0373  0.3332 -0.1132
11551W        W54542   5.191  23.364   8.840  0.2771 -0.1402  0.2515
11552W        W54543  14.239  10.631   6.683  0.0473 -0.0420  0.1497
11553W        W54544   3.618  15.905   7.149  0.0665 -0.0202  0.1977
11554W        W54545  33.669  22.700   2.713  0.2231 -0.0713 -0.0756
11555W        W54546   9.762   1.586   9.417 -0.0953  0.2013 -0.0863
11556W        W54547   5.679  25.764   4.743  0.2768 -0.2513 -0.0575
11557W        W54548  33.617  10.426  10.892  0.1927 -0.0915  0.1730
11558W        W54549   5.187   1.059   2.621  0.3292 -0.0485  0.1521
11559W        W54550  16.332   4.884   4.801 -0.2409  0.0727  0.0504
11560W        W54551   6.759   8.761  21.934 -0.0606  0.0162 -0.0947
11561W        W54552  17.925  25.529   1.413  0.1883 -0.3517 -0.0753
11562W        W54553  15.162   5.428  27.017 -0.1950 -0.0812 -0.0922
11563W        W54554   1.468  18.116   5.848  0.2871  0.1180  0.0192
11564W        W54555   2.452  16.765   9.720  0.4013  0.1524 -0.2420
11565W        W54556  33.213  19.794  28.822  0.0571  0.0206 -0.0801
11566W        W54557  13.331  17.140  27.832 -0.1880  0.0677 -0.0637
11567W        W54558  23.439  10.112   5.887 -0.0230 -0.0152 -0.0531
11568W        W54559  27.950  33.872   4.418  0.0715  0.1884  0.0281
11569W        W54560  15.334   4.624   7.402 -0.0862  0.0661 -0.0026
11570W        W54561  20.514   5.337   3.852 -0.1179  0.0050  0.0158
11571W        W54562  21.087  16.263   0.003  0.0418 -0.1575 -0.1172
11572W        W54563  30.250  19.084   8.360  0.3291  0.0518  0.0790
11573W        W54564  26.082  29.127   0.941  0.0023  0.0757  0.0656
11574W        W54565  25.062   9.834  15.418 -0.1351  0.1809 -0.4298
11575W        W54566  28.980  10.263   7.957 -0.2536  0.1933 -0.1138
11576W        W54567  21.452  20.239  17.454 -0.0636 -0.1366  0.0536
11577W        W54568  16.407  15.080   7.254 -0.2969  0.2298  0.0143
11578W        W54569  23.247  14.541   0.260 -0.1094  0.0311  0.2284
11579W        W54570  18.629  14.740   7.513  0.0725 -0.2940  0.2531
11580W        W54571  23.768  24.486  16.730  0.4242 -0.3322 -0.1618
11581W        W54572  20.189   5.174   7.227 -0.0537 -0.0174 -0.0820
11582W        W54573  22.041   8.216  27.699 -0.4600  0.3480  0.1371
11583W        W54574   4.729  18.817   5.651  0.2667 -0.2214 -0.4819
11584W        W54575  19.404   6.246   8.383 -0.0542 -0.1834  0.0519
11585W        W54576  18.011  16.432   9.333  0.3162  0.0680  0.0866
11586W        W54577  16.164  20.795   2.342 -0.2578  0.1083 -0.0886
11587W        W54578  22.987  30.802   2.780 -0.1021 -0.2103 -0.0054
11588W        W54579  13.847  10.646  26.928 -0.1048 -0.1028 -0.0160
11589W        W54580   4.627  28.873  26.408  0.1476  0.0721  0.4082
11590W        W54581   6.332  32.377   6.122 -0.0704 -0.0106  0.0968
11591W        W54582  27.801  11.545   9.793  0.0868 -0.2110 -0.1792
11592W        W54583  27.653   9.253   9.702  0.3396 -0.1708 -0.1689
11593W        W54584  27.117  14.584  10.566  0.1214 -0.1298  0.3786
11594W        W54585  18.431  16.698   7.362  0.0731 -0.0706  0.1743
11595W        W54586  32.231  19.490   0.026 -0.0305 -0.0385  0.1485
11596W        W54587   5.058   1.915   9.849 -0.0250  0.1664 -0.2490
11597W        W54588  27.032  31.064   7.066 -0.1322 -0.1229 -0.0233
11598W        W54589  24.732  14.689   8.276  0.0941  0.2287  0.3127
11599W        W54590  26.632  15.786  21.957 -0.1279 -0.0260  0.4704
11600W        W54591  18.072  15.919   7.635  0.0326 -0.0345 -0.1544
11601W        W54592   6.549   6.962  27.250 -0.1260 -0.1604  0.0566
11602W        W54593  26.163  27.854   8.089  0.0874  0.0006  0.2369
11603W        W54594  17.930  24.617  24.520 -0.1627 -0.0566 -0.0893
11604W        W54595  13.504  11.884   7.946  0.1578  0.0754  0.2748
11605W        W54596  16.668  10.555   8.454  0.3296  0.0057  0.2748
11606W        W54597  21.390  13.239   0.908  0.0553 -0.1589  0.0976
11607W        W54598  14.528  19.844   4.961 -0.2710 -0.0314 -0.3418
11608W        W54599   6.543   6.533  27.504  0.0377  0.1448 -0.0987
11609W        W54600  23.404   4.715  21.814 -0.1899 -0.1389 -0.2163
11610W        W54601   8.359  12.335   2.990 -0.0899 -0.1657  0.0625
11611W        W54602   7.088   3.377   3.918  0.1892  0.0509  0.0455
11612W        W54603  27.047   4.387   6.960  0.0332  0.0887  0.0436
11613W        W54604  28.456  23.037   1.588  0.2955  0.3227  0.2686
11614W        W54605  22.412  26.569   4.000  0.2230  0.1935 -0.2641
11615W        W54606  32.126  11.286   5.073 -0.0181  0.0133  0.0394
11616W        W54607  14.374  12.711  27.725 -0.2065  0.3072  0.0639
11617W        W54608  11.651   7.925   5.637  0.1588 -0.1781 -0.1745
11618W        W54609  19.406   6.295   3.299  0.0793 -0.0016  0.1816
11619W        W54610  18.023  13.740   0.620 -0.1792  0.1811 -0.3039
11620W        W54611  20.038  26.149  26.135 -0.0011  0.1000 -0.0054
11621W        W54612  29.527   9.072   3.824 -0.0087  0.1235  0.0011
11622W        W54613  27.770  18.019  21.422 -0.1453  0.1587  0.0333
11623W        W54614  24.728  34.595   8.554  0.1344 -0.0004  0.0171
11624W        W54615  27.218   1.453  28.822 -0.3021  0.0608  0.0780
11625W        W54616  22.989  14.158  27.759 -0.1464 -0.3114 -0.0956
11626W        W54617  17.039   6.810   8.874 -0.1833 -0.3586 -0.0757
11627W        W54618   8.741   2.741   1.499  0.2983  0.4208 -0.1980
11628W        W54619  34.768  16.273   2.607 -0.3253  0.1250  0.0834
11629W        W54620  17.895  30.686   8.655 -0.2138  0.1720  0.0853
11630W        W54621   9.270   8.677  25.717  0.3339  0.1663  0.1247
11631W        W54622  14.168  20.966  25.886  0.5472  0.1035 -0.2118
11632W        W54623  31.448  12.038   4.711  0.2226 -0.2133 -0.1674
11633W        W54624   8.404  19.155   0.118 -0.1302  0.0305  0.3068
11634W        W54625  27.388  14.744   3.836  0.1108 -0.4752  0.1392
11635W        W54626  13.591  30.777   3.981  0.2635 -0.2313  0.0004
11636W        W54627   8.135  24.536  28.838 -0.0553 -0.2600 -0.0200
11637W        W54628   4.577   5.852   4.765  0.1007  0.0380  0.4113
11638W        W54629  30.543  11.779  23.651 -0.1063  0.0139  0.1071
11639W        W54630  20.312  23.510   6.412  0.2157  0.0099 -0.0482
11640W        W54631  15.858   4.276   8.524  0.3860 -0.5471 -0.0137
11641W        W54632  16.614  23.427  28.021 -0.1098  0.2824  0.0473
11642W        W54633  11.338  18.123   9.896  0.1178 -0.0042 -0.1426
11643W        W54634  28.453  17.636  26.809 -0.1768 -0.1404  0.1740
11644W        W54635  17.648   2.762   8.273 -0.0871  0.2230  0.1681
11645W        W54636  18.784   8.090   3.660  0.0558 -0.0358  0.1791
11646W        W54637  28.729   0.710  26.201 -0.0203  0.0912  0.0467
11647W        W54638  21.353  13.346   7.145  0.0828 -0.0836  0.0420
11648W        W54639  16.197  30.625   7.818 -0.0887 -0.1153 -0.2327
11649W        W54640  28.773  12.124   4.097 -0.0196  0.0126  0.0788
11650W        W54641   2.687  12.957   5.414  0.2266 -0.0397 -0.1735
11651W        W54642  24.289  12.857   4.450  0.0763 -0.0992  0.1320
11652W        W54643  19.103  18.990  15.143  0.0040  0.1613  0.4825
11653W        W54644   7.606  18.696   7.809  0.3953  0.1629  0.2718
11654W        W54645  28.685  28.852   8.116  0.2229  0.2370  0.1770
11655W        W54646  19.443  16.289  26.792 -0.0883 -0.1937 -0.2118
11656W        W54647  26.088  13.043   2.661  0.2499  0.1418 -0.0512
11657W        W54648   8.423  21.560  27.023  0.3137 -0.0856 -0.1584
11658W        W54649  19.187  17.626  29.232  0.2651  0.1130  0.2805
11659W        W54650  13.489   0.640   6.457  0.1657  0.0668 -0.3217
11660W        W54651  18.094  32.666   4.084  0.0140 -0.2798 -0.1686
11661W        W54652   1.889   8.006   7.302  0.1243 -0.0032 -0.2915
11662W        W54653  22.581  11.887   7.808 -0.3034  0.0718  0.2086
11663W        W54654  15.493   6.468  23.285 -0.1290  0.0047  0.0075
11664W        W54655  21.559  30.091  18.331 -0.0492  0.0794 -0.1079
11665W        W54656  25.156  28.836   3.421 -0.1670 -0.2444  0.1796
11666W        W54657  28.741  22.736   9.814  0.0533  0.1299  0.0855
11667W        W54658   9.431   6.582  23.610 -0.2290 -0.2681  0.2707
11668W        W54659  12.455   8.540  28.566 -0.1182  0.0658  0.1174
11669W        W54660  22.586  23.567  27.309  0.2625  0.0641  0.3151
11670W        W54661  21.604   5.943   8.720 -0.0138  0.2635  0.1492
11671W        W54662   0.505   6.524   4.540  0.2707  0.1322  0.0839
11672W        W54663  21.136  28.698   7.281  0.0818  0.2110 -0.1652
11673W        W54664  12.847   3.908  20.385  0.4179 -0.0836  0.1735
11674W        W54665  20.780  16.274   9.129  0.1206  0.1248 -0.1276
11675W        W54666  17.195   2.133  26.424  0.0012  0.0406  0.0553
11676W        W54667  13.919   8.738   7.933  0.1924 -0.5085  0.0799
11677W        W54668  12.992   9.396  10.549  0.0332 -0.2181  0.2698
11678W        W54669  23.807  13.083  21.865  0.1279  0.0563  0.3030
11679W        W54670   9.555  12.465   7.263  0.0547  0.2669 -0.2489
11680W        W54671  17.891  21.467  19.758 -0.4193  0.0595 -0.1362
11681W        W54672  18.299  17.322  27.857  0.1306 -0.2743  0.0083
11682W        W54673   1.283  12.374  10.627 -0.0939 -0.0130  0.1311
11683W        W54674  15.336  11.817  25.644  0.1430 -0.2595 -0.4189
11684W        W54675  22.109  10.693  26.226  0.1036 -0.3473  0.0742
11685W        W54676   8.631  15.179   7.420 -0.1591 -0.0461 -0.3235
11686W        W54677   8.770  20.092   6.303 -0.1658 -0.2949 -0.0044
11687W        W54678  19.943  17.938   7.723 -0.2190  0.1384 -0.0964
11688W        W54679  30.678  10.440   4.591  0.3151  0.2716  0.0832
11689W        W54680  15.594   9.183   8.944  0.1597  0.0493  0.1841
11690W        W54681   1.983   5.623  10.172 -0.0876 -0.1116  0.1059
11691W        W54682  21.794  30.020   6.487  0.1958 -0.0057  0.0085
11692W        W54683   3.190  28.600   0.767 -0.4722 -0.0374  0.3139
11693W        W54684  24.860  11.185  25.399 -0.2313 -0.0237 -0.3138
11694W        W54685  32.767  14.125   8.886 -0.1077  0.2496 -0.3299
11695W        W54686  16.165   0.165  20.727 -0.2527  0.1284  0.2967
11696W        W54687  23.414  14.357  16.129  0.0216 -0.1538 -0.1760
11697W        W54688  20.917  19.015   9.528  0.0559 -0.0062  0.3981
11698W        W54689  19.625  13.032   3.197 -0.0408 -0.0208  0.2349
11699W        W54690  13.075  12.895   4.553  0.0718  0.1691 -0.1419
11700W        W54691  26.099  16.017   2.470  0.3704 -0.0941  0.1091
11701W        W54692   7.623  24.366   6.095 -0.0374 -0.3409 -0.0560
11702W        W54693  16.394  16.039   1.654  0.1241  0.1438 -0.2500
11703W        W54694  32.621  12.009   7.624  0.2192 -0.0693 -0.3626
11704W        W54695  25.744  13.589   6.424  0.0403  0.0914  0.0813
11705W        W54696   9.935   6.663   8.526  0.2822  0.1058  0.3702
11706W        W54697  25.649  29.017   6.128  0.1116 -0.0370  0.0295
11707W        W54698   8.113  31.792  28.633  0.1398 -0.1362  0.1260
11708W        W54699  12.366  13.843  23.835  0.0223 -0.0127  0.1436
11709W        W54700  25.304  19.926  25.781  0.1180 -0.1595 -0.3441
11710W        W54701  11.802   2.798  22.853 -0.0687 -0.0304  0.1956
11711W        W54702  19.358   6.156   8.964  0.2481 -0.0670 -0.0328
11712W        W54703  12.264  15.238   6.576 -0.3197  0.0165  0.0628
11713W        W54704  16.289  21.798   8.230  0.2346 -0.2158  0.0405
11714W        W54705  27.242   6.705  27.315  0.2109  0.3394  0.1910
11715W        W54706  21.418  21.941  19.337 -0.1862 -0.0146  0.0811
11716W        W54707  12.650  15.538   7.959  0.1393 -0.2134  0.2554
11717W        W54708  15.102  12.148  20.859 -0.2269 -0.2457  0.2750
11718W        W54709  33.051  32.010   8.314  0.0134 -0.2111 -0.1115
11719W        W54710  28.673  13.563   4.629 -0.0738  0.0658 -0.0945
11720W        W54711  13.401   1.798   7.084 -0.1252  0.1604  0.1506
11721W        W54712  29.124  30.378   3.208  0.0108  0.2207 -0.0885
11722W        W54713  22.708  26.244   5.534  0.0074 -0.0868  0.5158
11723W        W54714  13.089  21.647   4.142 -0.0655  0.1495 -0.3709
11724W        W54715  22.866  23.339  28.218 -0.1271  0.2737 -0.0437
11725W        W54716   9.713   2.354  10.995  0.2590 -0.0573  0.1515
11726W        W54717  13.858  20.074   3.394  0.1171 -0.0898 -0.0305
11727W        W54718  15.979  21.920   4.227 -0.2026 -0.1662  0.1029
11728W        W54719  20.959  12.950   8.453 -0.1058  0.0322  0.2427
11729W        W54720  28.554   5.061  24.290  0.2783 -0.0284  0.0524
11730W        W54721  18.505   9.059  23.639  0.1139 -0.0145  0.0826
11731W        W54722  17.204  12.455   2.396 -0.1543 -0.1325 -0.0904
11732W        W54723  26.973   0.510   2.112 -0.2474  0.2196 -0.2363
11733W        W54724   8.997  30.906   5.550 -0.0476 -0.0225  0.1799
11734W        W54725   5.641  17.738  14.976  0.1652 -0.3243  0.0332
11735W        W54726  21.247  24.760   0.473 -0.0146 -0.0991  0.0238
11736W        W54727   8.222  11.378   5.742 -0.2913 -0.2403  0.2044
11737W        W54728  22.234  19.154   3.420 -0.2260  0.2677  0.0789
11738W        W54729  26.813   6.659   7.789  0.0092 -0.3645  0.0454
11739W        W54730   2.757  18.275   6.150 -0.1793 -0.3194  0.2266
11740W        W54731  29.558  25.641  25.666  0.0629  0.1075 -0.0800
11741W        W54732  24.927  17.977  22.646 -0.2344  0.1137 -0.0387
11742W        W54733  17.308   8.716   9.234  0.0608  0.1694  0.3776
11743W        W54734  21.421   4.815   6.908  0.0363  0.0792  0.4017
11744W        W54735  21.329  19.520   2.181 -0.1272 -0.0985  0.0869
11745W        W54736  21.073  23.586  23.732 -0.3171  0.1016 -0.2590
11746W        W54737  22.495   9.073   5.191 -0.2486  0.1710 -0.0256
11747W        W54738  13.782   9.809   2.168 -0.0148 -0.0861 -0.2554
11748W        W54739   8.917   6.796  18.681 -0.3742 -0.1186  0.3334
11749W        W54740  27.265  10.872   7.302 -0.1374  0.0436  0.2934
11750W        W54741  19.216  34.345   8.647  0.2281 -0.0626 -0.0516
11751W        W54742  22.464   5.451   6.555  0.3186 -0.0664 -0.1561
11752W        W54743   9.379   5.544  17.232 -0.0443 -0.0239 -0.0917
11753W        W54744  19.065  20.076   7.782  0.1885  0.2871  0.0839
11754W        W54745  21.421   7.204  25.735  0.1813 -0.1925 -0.1243
11755W        W54746  25.246  34.126   5.226 -0.0317 -0.5044 -0.1266
11756W        W54747  17.826   4.873   5.446 -0.2987  0.2795  0.2567
11757W        W54748   8.966  25.456  27.860 -0.0945 -0.0305 -0.0272
11758W        W54749  14.738  12.523  29.100 -0.3243 -0.1785 -0.2284
11759W        W54750  28.381   0.364   6.715  0.1394  0.2521 -0.1160
11760W        W54751  14.679   5.569   7.143  0.0885  0.1555  0.0302
11761W        W54752   6.624  10.786   1.326  0.2214  0.3186  0.2411
11762W        W54753   6.892  14.147  25.232  0.2192 -0.1438  0.4428
11763W        W54754  20.733   3.322   7.077  0.0548  0.0704  0.0223
11764W        W54755  14.978  11.582  25.170  0.4173  0.2062 -0.2488
11765W        W54756  20.283  10.313   3.265 -0.1807  0.1624  0.1417
11766W        W54757   3.938  20.597   2.978 -0.0804 -0.2572  0.2218
11767W        W54758  12.905   6.356  24.134  0.0188  0.2651 -0.5816
11768W        W54759   8.988   5.667  11.359  0.2060  0.1861 -0.2871
11769W        W54760  20.061  11.937   3.225 -0.2480 -0.0032  0.1382
11770W        W54761  13.080  16.883   8.647 -0.0688 -0.2109  0.2246
11771W        W54762  14.661   9.735   0.195 -0.2914  0.2360 -0.1087
11772W        W54763   1.430  32.846   5.427  0.0305  0.1860  0.1622
11773W        W54764  27.333  34.515   3.829 -0.0600 -0.0907 -0.1501
11774W        W54765  14.238   0.247   6.209 -0.3376  0.1230 -0.2926
11775W        W54766  31.996  15.384   7.058 -0.0567  0.3102 -0.3894
11776W        W54767  12.411   7.033   8.833  0.1029 -0.2860  0.1567
11777W        W54768  27.536  10.719   4.488 -0.3656  0.0512 -0.0311
11778W        W54769   7.909   5.127   7.116 -0.0536  0.2915  0.0455
11779W        W54770  10.350   7.569   4.771 -0.2468  0.1234  0.1080
11780W        W54771  16.755  14.741   7.409  0.3609  0.0041 -0.1261
11781W        W54772  14.986  33.531   8.232  0.2271  0.2228 -0.2296
11782W        W54773  22.036  11.577   4.239 -0.2133 -0.2197  0.0725
11783W        W54774  28.092  16.646   2.698 -0.3750 -0.1079  0.1308
11784W        W54775  30.278  12.640   4.494  0.0871  0.1126 -0.1910
11785W        W54776  22.762  27.845  20.293 -0.3735 -0.0622  0.2880
11786W        W54777  26.211  18.276   8.257  0.2305  0.0828 -0.0803
11787W        W54778  32.717  31.935   8.666 -0.0413 -0.0362  0.1645
11788W        W54779  33.011  16.024   4.552  0.0528  0.0946  0.2407
11789W        W54780  27.253  18.159   0.149 -0.1169 -0.2452 -0.0404
11790W        W54781  28.102  14.802   5.409 -0.2795 -0.1883  0.3104
11791W        W54782  20.454  13.519   9.159 -0.2277  0.1124  0.0449
11792W        W54783  24.335  10.852   0.814  0.2485  0.3240 -0.1877
11793W        W54784  19.781  27.233   3.267  0.2157  0.0981 -0.2879
11794W        W54785  22.181  32.793   7.847  0.2553  0.0797 -0.1586
11795W        W54786  19.075  13.033   8.056  0.1799  0.1943  0.2562
11796W        W54787   4.103   8.659  11.243 -0.0719  0.2529 -0.1550
11797W        W54788  14.994   1.243   8.288  0.2222 -0.0200 -0.0857
11798W        W54789  33.545  11.995  28.558  0.0428  0.1388 -0.1547
11799W        W54790   7.475   7.522  10.025 -0.1435 -0.0869 -0.0494
11800W        W54791  12.154  33.786   2.707 -0.1778  0.0118  0.0313
11801W        W54792  13.195   9.381   9.038 -0.0674  0.2132  0.0875
11802W        W54793  29.177   3.922   5.717  0.2553 -0.0676  0.1280
11803W        W54794   7.824   8.752   9.395  0.1203 -0.1489 -0.2280
11804W        W54795  11.697  31.048   7.587  0.1105  0.1895  0.2636
11805W        W54796  28.879  13.089   5.519 -0.0011  0.0263 -0.1773
11806W        W54797  12.602   3.674  11.213  0.0128  0.0898 -0.0044
11807W        W54798  16.299   0.672  21.323  0.2589  0.4728 -0.3687
11808W        W54799  14.825  32.368   1.043 -0.1425  0.4889 -0.0278
11809W        W54800  28.597  14.906   9.830  0.2734  0.0748 -0.0317
11810W        W54801  33.007  11.263  18.039  0.0688 -0.0499  0.1727
11811W        W54802  21.144   2.826   9.704  0.1541 -0.0276 -0.1823
11812W        W54803  19.982  28.077   0.656  0.0297 -0.2663 -0.2703
11813W        W54804  31.328  13.285  26.310 -0.3060  0.2651 -0.0701
11814W        W54805  19.653  15.862  27.665 -0.1095 -0.2637 -0.1429
11815W        W54806  34.123  10.712  29.193  0.1658  0.0006 -0.1064
11816W        W54807   3.635   8.330  27.939 -0.0966 -0.1959  0.0989
11817W        W54808  13.097   3.172   8.365 -0.0992 -0.1668 -0.0977
11818W        W54809  31.614  19.622  27.610 -0.1880 -0.0619 -0.1598
11819W        W54810  19.506   0.975   3.014 -0.0345  0.1254  0.0507
11820W        W54811  21.862  20.818  26.493 -0.1517 -0.0384 -0.2321
11821W        W54812  17.194  25.566   7.138 -0.2124  0.2632 -0.0176
11822W        W54813  16.364  14.903  24.882 -0.0930  0.1434 -0.0526
11823W        W54814  11.505   9.283   3.325 -0.1688 -0.0535 -0.1591
11824W        W54815  23.066  17.283  22.507 -0.1144 -0.1703 -0.1208
11825W        W54816  26.930  27.309  21.658  0.1296  0.0939  0.1374
11826W        W54817  27.773  23.315   4.240 -0.3162 -0.1159 -0.1534
11827W        W54818  22.654  24.092  15.287 -0.0207 -0.0115  0.1564
11828W        W54819  19.542  32.573  25.648  0.1648  0.1229 -0.0298
11829W        W54820  22.833  14.924  28.437  0.1547 -0.0932  0.0541
11830W        W54821  29.484  33.804   7.033 -0.1288  0.3851 -0.4693
11831W        W54822  19.872  13.485   8.228  0.0589  0.1470 -0.0829
11832W        W54823  21.305   5.840   6.127  0.2041  0.0400  0.0435
11833W        W54824  27.839  27.567   6.792  0.0183  0.0459 -0.0818
11834W        W54825  20.347  10.761   1.792 -0.2266  0.0108 -0.4020
11835W        W54826  31.631   2.558   6.823  0.0694 -0.1597  0.1155
11836W        W54827  15.749  23.705   6.833  0.0595 -0.0015  0.0865
11837W        W54828  18.985  11.847   2.186  0.0198 -0.2293  0.1000
11838W        W54829  24.386  24.933   4.238 -0.0260 -0.1734  0.4480
11839W        W54830  14.645  23.229  23.829  0.0086  0.1875  0.3415
11840W        W54831  15.129  20.642  23.511  0.0306 -0.1450 -0.1464
11841W        W54832  15.439  29.478   8.527 -0.0852 -0.1044 -0.1699
11842W        W54833  15.177  31.810  29.192 -0.1759 -0.2020 -0.2850
11843W        W54834   3.820  17.573  28.134  0.0647  0.5371  0.0472
11844W        W54835  16.166  29.301  24.110  0.0478 -0.0454  0.0659
11845W        W54836   0.435   2.064  18.691 -0.3971  0.1688  0.0588
11846W        W54837  21.329  17.530   5.581 -0.0014 -0.2585 -0.3078
11847W        W54838  11.652   5.417   8.537 -0.1277 -0.1156 -0.0106
11848W        W54839  14.289  20.993   7.734  0.2507  0.0703 -0.1033
11849W        W54840  21.779  26.384   6.741 -0.3187 -0.2260 -0.0126
11850W        W54841  11.068   1.092   3.886 -0.2657  0.1863 -0.1943
11851W        W54842  11.153   1.284  21.644  0.1963  0.0449  0.5584
11852W        W54843  24.702   1.886  19.540  0.1449  0.1925 -0.2655
11853W        W54844  17.393  32.765  21.589 -0.3290 -0.0636  0.1706
11854W        W54845  24.168  34.297   4.268 -0.0477  0.1853  0.2082
11855W        W54846  22.905   6.211   8.978  0.1958 -0.1190  0.0876
11856W        W54847   8.661  23.675   9.926  0.3305 -0.2196 -0.0123
11857W        W54848  16.508  23.151  23.543  0.3089 -0.1190  0.1430
11858W        W54849  21.123  14.032   3.135  0.0270 -0.0868 -0.3320
11859W        W54850  16.834  13.745  25.661 -0.0479 -0.3289  0.1193
11860W        W54851  23.553  20.565   1.581  0.0737 -0.0239  0.1295
11861W        W54852  13.901  14.267   0.589  0.0503 -0.6447  0.2355
11862W        W54853  31.864  13.551  21.320  0.0059 -0.1501  0.0696
11863W        W54854  34.514   2.764   3.764 -0.2661  0.0077 -0.2491
11864W        W54855   8.329   4.921  24.855 -0.0023  0.1606  0.1641
11865W        W54856  26.359  12.621   9.018 -0.0693 -0.1335 -0.0337
11866W        W54857  26.997  10.836   4.559  0.0792 -0.1037  0.1146
11867W        W54858  31.994  27.423  24.971  0.2009 -0.0928  0.1142
11868W        W54859   3.599  21.614  17.434 -0.1803  0.1043  0.1035
11869W        W54860  22.830  29.864   1.886 -0.0793 -0.2024  0.0103
11870W        W54861  19.809   8.868   6.072  0.0819  0.2353 -0.0673
11871W        W54862   5.050  31.420   5.838 -0.2514  0.5100  0.1569
11872W        W54863  28.838  11.860   5.960  0.4257  0.0830 -0.2252
11873W        W54864  17.631  14.895  28.949  0.2473  0.2615 -0.0257
11874W        W54865  26.662  17.659   8.652 -0.0810  0.1213 -0.0020
11875W        W54866  20.566  32.167   1.728 -0.0618 -0.0843  0.1259
11876W        W54867   3.679  11.775  10.057 -0.5039  0.0757  0.3256
11877W        W54868  26.207  30.877   0.613 -0.3437  0.2367 -0.2284
11878W        W54869   7.022  26.414  27.382 -0.1364 -0.0997 -0.1080
11879W        W54870  21.896   5.208   8.123  0.0911  0.2538  0.1429
11880W        W54871   3.489   9.877  15.787 -0.3927 -0.0499  0.0395
11881W        W54872  21.900  26.549   6.287 -0.0890  0.0082 -0.0703
11882W        W54873  32.753   9.601   5.157  0.1996  0.1735 -0.3453
11883W        W54874  20.858  29.299   3.442  0.2364  0.4891 -0.0709
11884W        W54875  17.943   8.253   7.361  0.3427 -0.2036  0.2784
11885W        W54876  11.634  28.143  27.389 -0.1449  0.1580 -0.1999
11886W        W54877  16.475  25.092   5.430  0.0018 -0.0182  0.0170
11887W        W54878  13.071  20.121  24.801  0.1393 -0.0785 -0.1547
11888W        W54879  23.533  11.997  18.221 -0.1640  0.1047 -0.0913
11889W        W54880  13.847  16.032   4.516  0.0014 -0.1570 -0.1482
11890W        W54881  16.910   3.775  23.851  0.0729 -0.2524 -0.0294
11891W        W54882  17.926  27.237   4.707  0.0126 -0.0751  0.1278
11892W        W54883  17.600  12.141  24.840  0.3791 -0.1001 -0.1438
11893W        W54884  17.443  19.013   7.113 -0.1689  0.0928  0.3250
11894W        W54885  25.701  21.346  24.106 -0.4074  0.0289 -0.0623
11895W        W54886  31.616  19.490  26.751  0.3045 -0.2734 -0.0696
11896W        W54887  17.842  17.467  27.180 -0.0349  0.1750  0.3911
11897W        W54888  11.230   6.355   2.844 -0.3325  0.1870 -0.0269
11898W        W54889   2.773  26.090  27.943 -0.1638  0.4984 -0.1828
11899W        W54890  20.165  31.430   9.405 -0.3599 -0.2017  0.1330
11900W        W54891   7.480  16.761   8.723 -0.0435  0.0147 -0.2601
11901W        W54892  18.357  12.278   9.207 -0.2171 -0.2834  0.0203
11902W        W54893  16.452   6.078   8.099 -0.0277  0.0086 -0.1233
11903W        W54894  18.522  29.051   3.620  0.2388  0.0071 -0.1337
11904W        W54895  13.788   7.194   0.610 -0.2363 -0.4144  0.0942
11905W        W54896  29.634  18.815  17.902  0.3275 -0.2352 -0.1452
11906W        W54897  10.894   1.331  28.142 -0.0948 -0.1549 -0.1123
11907W        W54898  30.452  26.678  16.220 -0.0376  0.0138 -0.2336
11908W        W54899  15.244   7.428   4.886  0.0034 -0.0532 -0.0352
11909W        W54900  33.707  13.816  10.133 -0.0846  0.1645  0.2456
11910W        W54901  16.106  13.654  23.528  0.1686  0.1575 -0.1047
11911W        W54902  16.973  15.266   0.660 -0.0113  0.0116  0.0040
11912W        W54903   6.519   5.244   9.787 -0.2810 -0.0184  0.0084
11913W        W54904  14.624  33.245  19.556  0.2772 -0.1263 -0.2282
11914W        W54905  12.387  17.111   9.990  0.0648  0.0045  0.0593
11915W        W54906   4.673  14.192   0.350  0.1888  0.0971  0.6354
11916W        W54907  22.689  21.785  16.581  0.0051 -0.4403 -0.2280
11917W        W54908  27.578  16.563   1.921 -0.0430 -0.4059 -0.1794
11918W        W54909  16.044  16.227   3.968 -0.1113  0.1854  0.1139
11919W        W54910   8.885  16.459   8.840 -0.0244  0.1984 -0.0954
11920W        W54911  14.499  15.502   2.459 -0.6096 -0.0964 -0.0867
11921W        W54912  21.112   4.715   5.141  0.1505 -0.3021  0.2131
11922W        W54913  20.795   8.458   4.998  0.0705  0.2397 -0.0527
11923W        W54914  12.167  18.163  26.949 -0.4372  0.1274  0.1374
11924W        W54915   7.556   7.706   0.536  0.0117 -0.3178  0.0750
11925W        W54916   9.199  11.290  29.260 -0.4429  0.1068  0.3478
11926W        W54917  11.960   0.239  27.399 -0.2117  0.1833  0.0322
11927W        W54918  16.981  22.444  27.402 -0.0533 -0.2946 -0.2876
11928W        W54919  16.994  25.860  21.815 -0.0244  0.2551 -0.0112
11929W        W54920  19.946  18.774  27.533  0.0499  0.0413  0.1230
11930W        W54921   9.424  20.409   9.823  0.1376 -0.0703  0.0264
11931W        W54922  19.696  20.372   7.827  0.0543  0.2029 -0.2526
11932W        W54923  11.223  23.659   0.926 -0.0485 -0.2178  0.0269
11933W        W54924  25.498  33.730   7.652 -0.2388  0.1890 -0.1372
11934W        W54925  19.919   4.008   6.192  0.1099 -0.1591  0.1959
11935W        W54926   7.250   2.765   5.812  0.2930 -0.3158  0.1098
11936W        W54927  20.703  16.907   9.767  0.0847  0.1075  0.1188
11937W        W54928  26.994  10.372   9.089  0.3222  0.0445  0.3521
11938W        W54929  22.045  32.494   3.292 -0.1702  0.1803 -0.1267
11939W        W54930  26.466  18.397  28.000 -0.0673 -0.4111  0.0499
11940W        W54931  25.219   8.956   7.683 -0.1896  0.2725 -0.1191
11941W        W54932  14.023  12.577   6.785 -0.1055 -0.1336 -0.0584
11942W        W54933  21.053   5.154  22.932 -0.3786 -0.0805 -0.0658
11943W        W54934  25.338  20.132   6.024  0.1478  0.0433 -0.0429
11944W        W54935   9.604  14.275   1.506  0.0611  0.1866 -0.0321
11945W        W54936  15.945   8.528   4.898  0.0514  0.2042 -0.0809
11946W        W54937  18.619  31.504   6.719 -0.1704 -0.2101  0.2031
11947W        W54938  30.405  32.346   1.872 -0.0721  0.1402  0.0673
11948W        W54939  26.323  26.245  28.168 -0.1894 -0.0179 -0.3733
11949W        W54940  12.931  18.954  28.429 -0.0431 -0.1044  0.0213
11950W        W54941  27.558  19.837   5.748 -0.0666  0.1770 -0.0464
11951W        W54942  24.349  33.443   1.381 -0.2997 -0.0427  0.2502
11952W        W54943  20.373   0.972   4.913  0.0792  0.0401 -0.1577
11953W        W54944  12.433  10.175  18.940  0.0218  0.0191 -0.0838
11954W        W54945  22.798  17.675   3.636  0.0716 -0.2798 -0.1737
11955W        W54946  12.541  34.770  18.094  0.0144 -0.0627 -0.4449
11956W        W54947   7.390  22.446   2.569 -0.0558 -0.2481 -0.2344
11957W        W54948  26.968  19.660   5.147 -0.0747 -0.0693 -0.1964
11958W        W54949  24.934  14.886   2.212  0.2639  0.3545  0.0963
11959W        W54950  13.672  27.328   8.510 -0.0269 -0.0309  0.0412
11960W        W54951  18.775  12.804   8.905  0.2397  0.0327  0.0438
11961W        W54952  26.742  30.938   3.230  0.0929  0.3081  0.0391
11962W        W54953   3.499   5.608  10.470  0.2368 -0.0516 -0.3120
11963W        W54954  28.749   8.003  21.588  0.0693  0.1136 -0.1508
11964W        W54955  31.474  17.296   9.144 -0.2747  0.2077  0.0198
11965W        W54956  25.539  15.158   2.388  0.2725  0.1235 -0.1724
11966W        W54957  15.632  13.690  27.109  0.3133  0.2848  0.3067
11967W        W54958  18.507  10.170  21.467  0.0768 -0.1416 -0.0607
11968W        W54959  13.932  12.662   9.046  0.1489 -0.2429  0.1548
11969W        W54960  24.885  12.019  25.493  0.0897 -0.1418 -0.0665
11970W        W54961  19.905  17.008  23.990  0.0202 -0.0655  0.1726
11971W        W54962   5.094  16.884   8.069  0.1338 -0.0398  0.3286
11972W        W54963  18.745   6.027  28.924 -0.0463  0.1715 -0.3804
11973W        W54964  17.449  10.866   4.696  0.2683 -0.3090  0.1525
11974W        W54965  15.263   8.022   8.007  0.2740  0.0862  0.0944
11975W        W54966  22.426  12.590  15.278  0.1860 -0.1826 -0.1937
11976W        W54967  29.547   8.196   6.643 -0.0526 -0.0660  0.1244
11977W        W54968  25.893   2.609   0.382  0.0213 -0.1252 -0.0025
11978W        W54969  18.379  30.101   7.277  0.0308  0.2451 -0.1726
11979W        W54970  15.327  12.806   0.408  0.2185 -0.0023 -0.1253
11980W        W54971   4.638  15.099   4.793 -0.0424 -0.2631 -0.2966
11981W        W54972  24.073  16.485   2.861  0.0437  0.0698 -0.2699
11982W        W54973   3.176  18.525   0.414 -0.0028  0.3448  0.2359
11983W        W54974  19.653  15.881  23.484 -0.0621  0.0015 -0.0233
11984W        W54975   6.820  12.363   9.357  0.2336 -0.0352  0.2147
11985W        W54976  16.657   2.842  20.047 -0.2169  0.0962 -0.0970
11986W        W54977   5.375  21.088   3.282  0.1027  0.0763 -0.0373
11987W        W54978   4.248  23.538   6.377 -0.0567 -0.0591  0.2025
11988W        W54979   2.709  31.024   9.092  0.0600  0.1561  0.2143
11989W        W54980  31.738  11.252   2.719  0.1250  0.1547 -0.1687
11990W        W54981  29.139  15.516   1.604  0.1029 -0.0237  0.1744
11991W        W54982   9.619   8.009   8.168 -0.2923  0.1723 -0.1433
11992W        W54983  34.617  20.539   9.000 -0.0797  0.0547 -0.1591
11993W        W54984  19.318  13.393   3.397 -0.2125  0.1862  0.1670
11994W        W54985  12.313  14.899  24.396 -0.1516 -0.1206 -0.2853
11995W        W54986  18.523   5.956  27.635 -0.1855  0.2366  0.4636
11996W        W54987  20.583  19.602  22.740 -0.1600 -0.0017  0.0458
11997W        W54988  33.998   0.582   6.302  0.0432 -0.0338 -0.1604
11998W        W54989  26.795  18.873   8.566 -0.1742  0.0228 -0.2634
11999W        W54990   6.803   4.350  27.650 -0.3815 -0.0110  0.1726
12000W        W54991  16.862  29.403   0.330  0.2551  0.1820  0.2616
12001W        W54992  10.678  32.175   6.504  0.1127 -0.0144  0.1447
12002W        W54993  11.555  27.703  10.615 -0.1144 -0.1297  0.0132
12003W        W54994   6.722  11.184  20.829 -0.0109  0.2151 -0.0408
12004W        W54995  18.359  11.253   6.793  0.1652 -0.0358  0.2194
12005W        W54996   8.659   5.808   5.180 -0.2029 -0.0526  0.1967
12006W        W54997   1.238  15.375   7.987 -0.0816  0.1385  0.1657
12007W        W54998  18.629   5.288  14.202 -0.0627  0.3383  0.2404
12008W        W54999  12.828   4.039   7.349 -0.3581  0.0327 -0.0168
12009W        W55000  11.496  24.384  28.262  0.1873  0.0928  0.0757
12010W        W55001  24.956   6.521  15.008  0.1116 -0.1080 -0.3027
12011W        W55002  13.559   8.868  29.183  0.0441 -0.1192  0.0406
12012W        W55003  33.342  14.467   8.404 -0.2318 -0.0704 -0.1775
12013W        W55004  23.273  11.067   8.407  0.0789 -0.1536 -0.1080
12014W        W55005  25.296  23.967  19.663  0.0355  0.2918 -0.0177
12015W        W55006  22.698   4.951   8.061 -0.0640  0.0671  0.1547
12016W        W55007   6.076  13.231   5.585  0.1114  0.0952  0.1748
12017W        W55008   9.382  18.668  28.944 -0.2226  0.0089  0.2372
12018W        W55009  29.007  13.849  22.729 -0.1424  0.0258 -0.1936
12019W        W55010  18.197   2.527   8.293 -0.2862 -0.0272 -0.0872
12020W        W55011  22.936  24.302   0.849 -0.2316  0.0085 -0.1715
12021W        W55012  33.562  18.808  18.799  0.2808 -0.1923 -0.0858
12022W        W55013   6.040   2.436   1.113 -0.1022  0.2454  0.0364
12023W        W55014  16.043  12.304   9.554  0.2519  0.2411 -0.1040
12024W        W55015  20.518  12.605  21.418 -0.3876 -0.0089  0.0036
12025W        W55016  16.551  11.910  26.619 -0.0122 -0.0976  0.0857
12026W        W55017  26.215  19.032  22.831 -0.1814  0.1181  0.1508
12027W        W55018   2.850  19.492   3.448 -0.0230  0.2158 -0.1224
12028W        W55019   3.176  30.699   7.831 -0.2584  0.1108 -0.2328
12029W        W55020  23.639  22.063   4.853 -0.1113 -0.3903  0.0008
12030W        W55021  10.378  21.810  22.498 -0.0020 -0.1931  0.0754
12031W        W55022  20.695  21.956   6.285  0.2090  0.0236  0.1792
12032W        W55023   3.936   7.454  19.393  0.0061 -0.0485  0.0287
12033W        W55024   2.771  26.101   7.884  0.0838  0.0962  0.2723
12034W        W55025   6.275  11.600  15.950  0.2320 -0.1389 -0.1899
12035W        W55026   6.455  14.641   5.852  0.1106  0.1794  0.1509
12036W        W55027  26.576  13.078   9.167  0.3626 -0.0466 -0.1533
12037W        W55028   8.546   5.631   1.241  0.1037 -0.0888 -0.0576
12038W        W55029  20.563   1.589   6.278  0.1893  0.0512  0.1635
12039W        W55030  31.198  25.261  16.806  0.0822 -0.3590  0.0889
12040W        W55031  15.513  13.975   1.061 -0.1979 -0.1899  0.2096
12041W        W55032  16.494   0.348   5.101 -0.1662  0.0844 -0.1024
12042W        W55033  26.473   1.582  27.970  0.1466  0.0469  0.1926
12043W        W55034  24.815  23.840   2.075 -0.0146 -0.1527  0.1048
12044W        W55035  24.103  25.688  25.413  0.0278  0.3307  0.0813
12045W        W55036  18.819  12.953   4.431 -0.1080 -0.1792 -0.0669
12046W        W55037  34.020  30.117  25.567 -0.1733  0.2618  0.1713
12047W        W55038  27.600  19.518  17.393 -0.0345 -0.1630  0.1866
12048W        W55039  32.742   9.830  21.330 -0.0518  0.0454  0.1224
12049W        W55040  22.065   4.301   1.527  0.1813 -0.0871  0.3000
12050W        W55041  21.699   5.571   4.604 -0.1337  0.0044 -0.0879
12051W        W55042  27.819  20.026   3.964 -0.1197 -0.2527  0.0403
12052W        W55043  18.977  20.978   1.655  0.1505  0.1378  0.0611
12053W        W55044  31.689  10.505  17.546 -0.2500  0.3289  0.1155
12054W        W55045  16.424   5.131  10.430 -0.1313 -0.0144 -0.0884
12055W        W55046  23.568  17.545   7.659  0.1263 -0.3473  0.0924
12056W        W55047  30.251  28.997   4.022  0.1718  0.2296 -0.0538
12057W        W55048  26.910  25.860   0.202  0.0854  0.3935 -0.1040
12058W        W55049  15.535   7.813  23.092 -0.0210 -0.0489  0.0068
12059W        W55050  25.116  32.426   8.495  0.0606 -0.2394  0.1312
12060W        W55051   9.588  23.426   2.944 -0.2187 -0.1260 -0.1231
12061W        W55052   6.359   5.743  23.357 -0.1821 -0.2030 -0.2295
12062W        W55053  28.403   5.967  23.199 -0.1201  0.2529 -0.2640
12063W        W55054   0.834  16.510  24.566  0.0750  0.1342 -0.0700
12064W        W55055  14.546  14.007  25.230  0.1814  0.4317 -0.1466
12065W        W55056   7.661  27.290  28.770  0.0352  0.2580  0.0290
12066W        W55057  21.958   7.019   8.249 -0.0492  0.0215  0.3248
12067W        W55058  10.075  22.620   2.661 -0.2169  0.1018  0.1663
12068W        W55059   0.307  10.711   7.392  0.1161 -0.0471 -0.0097
12069W        W55060   6.750  19.868   4.876  0.0524 -0.0665 -0.1628
12070W        W55061   4.812  24.364  11.029  0.3381  0.3907  0.4029
12071W        W55062  21.737   4.402   7.016  0.2383  0.2896  0.2326
12072W        W55063  28.488   5.450   0.993  0.3316 -0.1381  0.0127
12073W        W55064  14.175  15.397   1.953 -0.1426  0.2318 -0.2053
12074W        W55065  27.796  15.706  24.568  0.0571 -0.0111 -0.0587
12075W        W55066   7.742  25.466   6.299  0.0270 -0.0803  0.1888
12076W        W55067   6.763   8.961  20.554 -0.0959 -0.0483 -0.0178
12077W        W55068   9.381  12.359   8.810  0.2764  0.2398  0.1807
12078W        W55069   3.046   3.555  26.903 -0.1195  0.0419  0.1881
12079W        W55070  23.737   2.046  25.399 -0.1656 -0.0746 -0.1581
12080W        W55071  34.736   7.123   9.776 -0.0360  0.0677 -0.2558
12081W        W55072  27.722  22.095  17.045 -0.0764  0.1260  0.1130
12082W        W55073  22.128  23.223  28.244 -0.2874  0.2505  0.0185
12083W        W55074  31.561   4.820  27.329  0.1294  0.2428  0.0688
12084W        W55075  34.619   2.400   4.150  0.2501 -0.2130 -0.2328
12085W        W55076  28.654   3.946   1.946  0.0262 -0.3210  0.1601
12086W        W55077  17.678   2.455  26.321  0.0256  0.2570 -0.0014
12087W        W55078   7.855  13.099   3.997 -0.0293  0.0622 -0.0606
12088W        W55079  18.595   2.222  25.523 -0.1288 -0.1864  0.1702
12089W        W55080  24.516  31.210   8.682 -0.0541  0.1151  0.1084
12090W        W55081  30.785  22.076  22.256  0.0706 -0.3066  0.2851
12091W        W55082  13.766   2.656  10.275 -0.0126 -0.1984 -0.1578
12092W        W55083  14.807  24.544  25.258  0.0879  0.1745  0.2088
12093W        W55084  19.361  25.572   9.569  0.0226  0.0239  0.1790
12094W        W55085  18.593  31.361   7.549  0.0146 -0.1144  0.2023
12095W        W55086   8.246  16.156  28.265 -0.0842 -0.0473 -0.1568
12096W        W55087  17.754  14.897   6.529  0.0812 -0.0102 -0.1150
12097W        W55088  23.858  22.162  22.130 -0.0649 -0.0517  0.0376
12098W        W55089  31.292   8.655   0.299 -0.0915  0.0238 -0.1629
12099W        W55090   4.722  17.910   0.171  0.0112 -0.0133  0.1693
12100W        W55091   1.114   9.767   3.557  0.0414 -0.2648 -0.0083
12101W        W55092  10.729  29.152  24.927 -0.0196  0.0193 -0.3247
12102W        W55093  19.438   4.213   1.508  0.1640 -0.1796  0.0885
12103W        W55094  19.105  20.388  27.399 -0.1239  0.2726  0.0451
12104W        W55095   1.480   6.653   6.027 -0.2976 -0.1317 -0.0621
12105W        W55096  25.630  21.928   8.649  0.1598  0.3397 -0.0340
12106W        W55097   6.941  28.391   0.313  0.0607  0.1811  0.1633
12107W        W55098  21.827  14.610   5.724  0.1087  0.4042 -0.0194
12108W        W55099  11.509  13.914   8.740  0.2640 -0.0995 -0.1180
12109W        W55100  19.865  17.513  16.909  0.1930  0.3291  0.3045
12110W        W55101  20.618   8.790  23.712 -0.2646 -0.0368 -0.2956
12111W        W55102  14.338  22.254   1.903  0.0539 -0.0334  0.1898
12112W        W55103  10.204   9.290  26.837  0.1754  0.2492  0.3593
12113W        W55104   3.539   6.580  27.381 -0.1762  0.2841  0.1064
12114W        W55105  28.639   1.598   6.813 -0.5532 -0.0863 -0.2694
12115W        W55106  20.098  31.997   2.533  0.1492  0.1734 -0.0174
12116W        W55107  21.520  19.555  16.694 -0.0849 -0.0386 -0.3294
12117W        W55108  18.184  31.612   0.124  0.1505  0.1150  0.0536
12118W        W55109  21.543  29.243  26.686  0.1440  0.0009  0.1196
12119W        W55110  23.844   2.541  28.372 -0.0987  0.0757 -0.4932
12120W        W55111  13.503  25.599   5.800 -0.0831 -0.0359 -0.2077
12121W        W55112   8.051   6.045   6.539  0.0185 -0.3687  0.2559
12122W        W55113   9.745  23.374   5.609  0.0287 -0.1440 -0.1809
12123W        W55114   9.527  24.907  28.195  0.0640  0.1964  0.0456
12124W        W55115  30.329  12.630   6.630 -0.1887  0.2370 -0.1289
12125W        W55116  14.739  33.881   2.806 -0.0013  0.0426  0.0285
12126W        W55117  11.143  24.244   4.828 -0.0667  0.3025  0.1228
12127W        W55118  14.262   3.771  20.899  0.0509  0.0439  0.0870
12128W        W55119  15.511   4.502   6.799  0.1684 -0.0596 -0.0800
12129W        W55120  28.204  12.579   8.018  0.0588  0.1329 -0.0312
12130W        W55121   9.954  14.742  25.359  0.0531  0.0224 -0.1696
12131W        W55122  27.154   4.447  26.463 -0.0826 -0.1401 -0.0408
12132W        W55123  16.757  15.086   5.886  0.0767  0.0932  0.0277
12133W        W55124  26.031  11.368   6.237 -0.1017  0.0248 -0.0488
12134W        W55125  24.046  24.279  28.941  0.0017  0.1223  0.2322
12135W        W55126  21.701   6.520   8.210  0.3858  0.0471  0.0711
12136W        W55127  31.350   3.078   7.576 -0.0330  0.3086  0.3165
12137W        W55128  33.844  18.550   0.980  0.2304  0.2427  0.0038
12138W        W55129  20.782  29.379  26.377 -0.1131 -0.4482  0.0328
12139W        W55130   5.727   5.872   2.487 -0.0311 -0.1329 -0.0449
12140W        W55131  33.542   6.331   7.140  0.0719 -0.0062 -0.0243
12141W        W55132  21.135  27.657   4.162 -0.2356 -0.1824 -0.0802
12142W        W55133  23.680  26.208   4.415  0.0345 -0.4024 -0.0311
12143W        W55134  10.674  34.522   7.665  0.1374 -0.1402 -0.1077
12144W        W55135  21.047  14.838  21.542 -0.1410 -0.4906 -0.2586
12145W        W55136   7.052  20.111  10.246 -0.3466 -0.2903  0.1494
12146W        W55137  16.378   6.177  28.777 -0.3553 -0.2432 -0.0149
12147W        W55138   6.483  10.534   0.227  0.3405 -0.0196 -0.0156
12148W        W55139  16.599   2.660   6.599  0.2012 -0.1697 -0.1069
12149W        W55140   7.736   1.698   5.466  0.0006  0.0428  0.0433
12150W        W55141  22.244  16.516   4.567 -0.2760 -0.3422  0.0947
12151W        W55142   3.336  15.567  21.712  0.0170  0.2541  0.1228
12152W        W55143  26.655  17.163  22.465 -0.1017 -0.0859  0.2124
12153W        W55144  20.580  16.990  17.199  0.0797 -0.0127 -0.2703
12154W        W55145  29.043  17.177   0.815 -0.2186 -0.2716 -0.0294
12155W        W55146  10.687  13.653   5.559 -0.1026 -0.2188  0.0952
12156W        W55147  27.959  10.817   5.824  0.0447 -0.1307 -0.1055
12157W        W55148  22.852  17.600  16.380 -0.1597  0.1349 -0.3312
12158W        W55149  21.083  15.173  25.428  0.1838  0.0398  0.3527
12159W        W55150  10.187   8.239   1.463 -0.4620  0.1277  0.1677
12160W        W55151   5.387  19.750   4.932  0.1274  0.1161 -0.1342
12161W        W55152   7.128  19.571   8.062 -0.0677  0.0187  0.1599
12162W        W55153  12.757  28.391   5.091 -0.4426 -0.0700  0.0148
12163W        W55154  21.216  20.145   6.377  0.0438 -0.4266 -0.1511
12164W        W55155  26.735  33.029  19.189  0.1355 -0.1282 -0.2565
12165W        W55156  29.590   3.676   8.381 -0.0107 -0.2341  0.0961
12166W        W55157  33.733  13.310   8.633  0.3806  0.0762  0.1444
12167W        W55158  29.345  30.836  26.144  0.2145  0.0075 -0.0121
12168W        W55159   5.459  14.357  26.375 -0.4486 -0.0466  0.2756
12169W        W55160   6.513  14.151  10.056 -0.0852 -0.0718 -0.1383
12170W        W55161  29.248  16.808   4.221 -0.1219 -0.0695 -0.1637
12171W        W55162  16.896   4.578   6.690 -0.1807  0.0938  0.0496
12172W        W55163  16.655  21.939   6.497 -0.2079 -0.0320 -0.1204
12173W        W55164  19.729  12.615  28.093 -0.1907 -0.1262  0.1039
12174W        W55165  20.402  34.672  25.683 -0.0514  0.1068  0.1273
12175W        W55166  25.880  21.015   4.877  0.1354 -0.0343  0.2508
12176W        W55167  19.273  25.910   2.530  0.0398 -0.2510 -0.0383
12177W        W55168  17.953   3.661  20.052  0.2609 -0.0120 -0.0762
12178W        W55169  12.454   7.728  26.644 -0.1228 -0.2653 -0.0696
12179W        W55170  22.877  12.834  25.537  0.2343 -0.2000  0.0319
12180W        W55171  27.205   3.925   9.002  0.0529  0.0042 -0.0901
12181W        W55172   6.831   0.273  24.300 -0.1840  0.4244 -0.0866
12182W        W55173   9.396   2.124  26.484 -0.1229  0.1250  0.1079
12183W        W55174  21.784  24.251  27.205  0.0353 -0.4112 -0.1358
12184W        W55175  22.906  13.703   8.495  0.3762 -0.0092  0.1882
12185W        W55176  25.516  26.032   5.478  0.0617  0.0521  0.2165
12186W        W55177  24.990  19.030  24.166  0.2154  0.1411 -0.0546
12187W        W55178   5.971  16.270   9.355 -0.0760  0.0745  0.0974
12188W        W55179  10.053  15.993   9.813 -0.1243  0.1253 -0.0724
12189W        W55180   2.489   5.848  20.683  0.2906  0.1817 -0.0734
12190W        W55181  18.835   9.640  28.660 -0.2372 -0.2525 -0.1804
12191W        W55182  16.811  22.057  16.772 -0.3303 -0.0664 -0.2315
12192W        W55183  28.080  19.643   4.336  0.0470 -0.0667  0.0773
12193W        W55184  17.042   5.301  18.412  0.0218 -0.2547  0.1323
12194W        W55185   0.271  20.465   8.300 -0.2101  0.1228  0.1517
12195W        W55186  25.070  14.376   8.385  0.0607 -0.1686 -0.2842
12196W        W55187  19.990  18.595  24.393 -0.1351 -0.1305  0.0655
12197W        W55188  12.126   5.511   2.733  0.1799  0.1944  0.2745
12198W        W55189  29.742  27.300   5.196 -0.0956  0.0117  0.1352
12199W        W55190  15.230  12.848  23.758  0.0141  0.2188 -0.1931
12200W        W55191  15.963   9.035   3.873  0.2011  0.1329 -0.2437
12201W        W55192  28.257   6.883   8.919  0.1008  0.0039  0.0116
12202W        W55193  13.127  17.952  26.443 -0.1572 -0.0722  0.0598
12203W        W55194  19.395   6.856   5.452  0.0970  0.0323  0.0262
12204W        W55195  14.260  19.400   4.950  0.1254  0.1197  0.2169
12205W        W55196  13.432   1.464   7.709  0.3251  0.0195 -0.1733
12206W        W55197   9.692  12.010  27.442  0.3156  0.1341 -0.2034
12207W        W55198  21.917  16.243   9.681 -0.1649  0.2456  0.1524
12208W        W55199  12.693   1.648   5.774  0.2079  0.1573  0.2271
12209W        W55200  19.099  24.549   8.440 -0.0572 -0.1626  0.0216
12210W        W55201  22.064  18.849  27.005  0.0063 -0.0671  0.0158
12211W        W55202  19.089  27.515   6.507  0.1048 -0.0028  0.2935
12212W        W55203  22.161  28.633   4.724  0.1319 -0.1809 -0.0773
12213W        W55204  23.451  22.395   2.707 -0.3907  0.3985 -0.2188
12214W        W55205  19.940   3.519  23.941 -0.1121 -0.0517 -0.1336
12215W        W55206  18.693  22.728   3.682  0.0416 -0.2321  0.0874
12216W        W55207  10.631  20.553   1.917 -0.0409 -0.1534  0.2422
12217W        W55208  20.678  18.669   0.604 -0.1069  0.0918 -0.2108
12218W        W55209  23.680   9.771   1.993  0.0423 -0.1931  0.1648
12219W        W55210  15.826  11.515   7.675 -0.0502  0.2341 -0.1103
12220W        W55211   2.757  16.846   4.381 -0.1200  0.0454 -0.2093
12221W        W55212  19.861   4.685   1.556 -0.0175  0.1293 -0.1004
12222W        W55213   8.275   3.373  27.033 -0.2596 -0.1190  0.3616
12223W        W55214  24.524  24.229   9.126  0.0144  0.0771 -0.1794
12224W        W55215  17.166   7.901  17.682  0.0641  0.0323 -0.3798
12225W        W55216  15.450  13.577  26.634 -0.3148  0.0202 -0.1692
12226W        W55217  16.667   2.719   0.142  0.1865  0.0138 -0.3657
12227W        W55218  18.014   3.990  27.830 -0.1249  0.0811 -0.0315
12228W        W55219  28.878  27.341   5.762  0.1804 -0.0630 -0.0499
12229W        W55220  24.360  22.959   3.185  0.1619  0.2796 -0.1374
12230W        W55221  17.847  18.649  22.920 -0.1451  0.0121 -0.1091
12231W        W55222  16.510  21.583  25.996 -0.1477  0.3937 -0.0478
12232W        W55223  27.195  13.529   3.914 -0.4247  0.2110 -0.0130
12233W        W55224  32.521  17.444   5.817 -0.1324  0.3999  0.0306
12234W        W55225  27.935  20.069   9.066 -0.2189  0.0604  0.0901
12235W        W55226   5.673  16.429   8.858  0.1421  0.0653 -0.2528
12236W        W55227  27.231  15.568  19.074 -0.1240 -0.0897  0.2506
12237W        W55228   5.342   2.553   2.598  0.3395 -0.1572 -0.0418
12238W        W55229  27.648  18.350   0.404 -0.2040  0.1884  0.0738
12239W        W55230   0.615  18.561  29.034 -0.1876 -0.0457 -0.1764
12240W        W55231  33.995   7.180   2.699  0.0473  0.0697 -0.4249
12241W        W55232  17.832   8.443  26.662  0.2324 -0.3808  0.0897
12242W        W55233  12.279   8.759   9.392  0.0504  0.1547 -0.2982
12243W        W55234  15.057  10.613   5.250 -0.1869 -0.0202 -0.0047
12244W        W55235  26.359  20.613  24.367 -0.0804 -0.0745  0.2373
12245W        W55236  11.217  12.067  10.852  0.0132 -0.1554  0.0693
12246W        W55237   3.808  34.428  21.752  0.0257  0.1439  0.1521
12247W        W55238  23.025  17.514   1.701  0.2728 -0.1460 -0.3129
12248W        W55239  29.029  22.828  17.762  0.1976  0.1166  0.2827
12249W        W55240  28.670  19.649   5.141 -0.0759  0.2103  0.2172
12250W        W55241  21.326   5.808  28.496  0.0159 -0.1890  0.1947
12251W        W55242  18.983  25.445   5.336 -0.0027 -0.2812  0.1597
12252W        W55243  20.956  12.374   4.858  0.0479 -0.0938  0.1126
12253W        W55244  16.888  30.461   9.179  0.0415 -0.1519 -0.0292
12254W        W55245   6.459  12.940  26.669 -0.0796  0.0403 -0.1481
12255W        W55246  23.008  20.218   9.548 -0.3416 -0.0373 -0.1207
12256W        W55247  18.875   1.627   9.713  0.2447  0.2478 -0.0270
12257W        W55248   4.328  28.320   9.399  0.0005 -0.3329 -0.2861
12258W        W55249   4.133   9.601  28.054  0.0580  0.3087 -0.1070
12259W        W55250  19.444  24.758  18.794 -0.0191  0.0967 -0.0580
12260W        W55251   6.256   4.472  25.141  0.1484 -0.1646  0.1328
12261W        W55252  16.878  30.467  28.240 -0.1971 -0.0920  0.2406
12262W        W55253  23.329   2.742   4.128  0.0113  0.1590  0.1129
12263W        W55254  25.781  15.469  27.174  0.1685  0.4918 -0.0549
12264W        W55255  10.604  19.951   9.173  0.1406  0.2459  0.0796
12265W        W55256  25.914  12.419   4.314  0.1744  0.2424  0.0417
12266W        W55257  29.032  18.154   7.214  0.0169  0.0041  0.0425
12267W        W55258  25.425  13.554   3.063  0.2892 -0.2051  0.1855
12268W        W55259  23.381   0.550  27.682  0.2259  0.1462 -0.0239
12269W        W55260  27.184   9.787   2.123 -0.3628 -0.0171  0.1925
12270W        W55261  21.712   4.892   8.449 -0.1493 -0.3813  0.0207
12271W        W55262  21.886  14.360   7.136 -0.0378 -0.0091  0.1959
12272W        W55263  14.507   8.670   3.487 -0.0695 -0.1899  0.1741
12273W        W55264  21.981   6.599  26.882 -0.2855 -0.0800 -0.1084
12274W        W55265  17.589   4.543   9.700 -0.0412 -0.0729  0.0503
12275W        W55266  13.458   7.146  20.870 -0.2218  0.1208  0.3199
12276W        W55267  29.905   6.262   3.048 -0.3298  0.1360  0.2399
12277W        W55268  16.140  29.439   5.138  0.2914 -0.1874  0.0620
12278W        W55269  11.172   3.454  27.639  0.0761 -0.0826 -0.3287
12279W        W55270  29.867  10.766   1.992 -0.0844  0.3507 -0.0447
12280W        W55271  19.395   2.696  28.647  0.2216  0.3142 -0.0904
12281W        W55272  26.584  23.585   3.908  0.2625 -0.1030 -0.1848
12282W        W55273  19.938  14.088   2.956  0.1124  0.1227 -0.0378
12283W        W55274  13.010  14.902  21.891 -0.3880 -0.0978  0.1427
12284W        W55275  14.792   5.730   8.669 -0.0836  0.1774 -0.1115
12285W        W55276   8.958   5.036   1.401  0.0551  0.0489 -0.0724
12286W        W55277  20.204   8.024   4.766 -0.1086  0.2270  0.0692
12287W        W55278  18.706   8.408   4.498  0.2524  0.3018 -0.2315
12288W        W55279  21.737   9.384  24.484  0.0477  0.1408 -0.1077
12289W        W55280  10.256  19.216   3.639 -0.0182  0.2284 -0.2159
12290W        W55281   7.492   8.595  10.216  0.2143  0.6132 -0.1233
12291W        W55282  34.333   9.234   5.580  0.0656 -0.1320  0.0801
12292W        W55283   2.189  33.608   8.530  0.0079  0.1582  0.1376
12293W        W55284   5.417   2.769   0.678 -0.2000 -0.2925  0.1687
12294W        W55285  17.247   9.323  10.030  0.2017 -0.1437  0.3098
12295W        W55286  20.717  16.041  26.524 -0.4122 -0.0518  0.0007
12296W        W55287  11.149  20.497   0.020  0.2563 -0.0417 -0.3431
12297W        W55288  29.681  32.455   7.600 -0.4119 -0.0314  0.0778
12298W        W55289  24.082  25.657  21.696  0.0325 -0.1337 -0.0417
12299W        W55290  25.678  33.990   2.494  0.3349  0.2666  0.0373
12300W        W55291  16.980   5.794  27.172 -0.0459 -0.2521 -0.0043
12301W        W55292  28.168  19.152   8.940 -0.0172  0.0062 -0.2171
12302W        W55293   1.430  11.927  19.549  0.0808 -0.1098  0.1848
12303W        W55294   5.082  17.177  27.413  0.4384  0.2499  0.0936
12304W        W55295  32.149  24.957   3.912 -0.5885 -0.1377 -0.0862
12305W        W55296  21.356  10.657   4.783 -0.2384  0.0283  0.0020
12306W        W55297  15.428  12.497   4.133 -0.0968  0.3078 -0.1616
12307W        W55298  27.861  13.784   8.344  0.2450 -0.0697 -0.0303
12308W        W55299  21.568  14.504  17.548 -0.2046  0.1310 -0.2588
12309W        W55300  27.852  17.798   1.774 -0.1432 -0.1748 -0.0169
12310W        W55301  24.024  25.865  27.308  0.0238  0.0350 -0.5725
12311W        W55302  31.757  28.948   7.119  0.1081 -0.1231 -0.0011
12312W        W55303   8.266   3.010   4.155  0.1314  0.0639  0.3554
12313W        W55304  11.954  13.569   8.667  0.0879 -0.0269  0.1176
12314W        W55305  26.058  16.551  24.624  0.0779 -0.3821 -0.2269
12315W        W55306  19.898   8.359   2.796  0.0411  0.1772 -0.0275
12316W        W55307   6.776  15.886   7.121 -0.2123 -0.1636  0.3926
12317W        W55308  24.199   8.022   7.015 -0.0394 -0.0512  0.0843
12318W        W55309  21.954  17.120  26.572  0.2768 -0.1932  0.1360
12319W        W55310  21.601  26.679   3.383  0.0990 -0.0221 -0.1722
12320W        W55311  20.923  34.118   1.271  0.0008 -0.2798 -0.0732
12321W        W55312  30.170   1.717  25.478 -0.1085 -0.0433 -0.0194
12322W        W55313  24.863  25.979  27.019 -0.0535 -0.1443  0.2148
12323W        W55314  22.263  24.641  27.943  0.1975  0.1808 -0.1185
12324W        W55315  23.573  12.144  25.716  0.0769 -0.3535  0.1169
12325W        W55316  31.378  27.961   2.488 -0.0919  0.3252  0.1175
12326W        W55317  31.900   0.209   2.732 -0.0386 -0.0458  0.0733
12327W        W55318   9.775  18.837  27.442  0.1319 -0.2243  0.1061
12328W        W55319  12.407  24.035  27.354  0.0484 -0.2142  0.1811
12329W        W55320  32.022  33.045  19.648  0.0076 -0.1221 -0.2337
12330W        W55321  25.843  16.444   7.284  0.0940 -0.2723 -0.0012
12331W        W55322   5.842   2.363   7.189  0.1976 -0.0014 -0.1996
12332W        W55323  14.528  12.504   0.945 -0.1825  0.1443  0.0255
12333W        W55324  34.722  12.121  11.254  0.2285  0.1252 -0.0177
12334W        W55325  10.543  25.884  23.898  0.1262 -0.0543 -0.0660
12335W        W55326  18.541  25.742   6.542  0.0053  0.2668 -0.3850
12336W        W55327  11.076  15.498  14.557 -0.2887  0.1026  0.2007
12337W        W55328  10.076   8.426   6.301 -0.0759  0.0273 -0.5497
12338W        W55329  32.326  19.003   9.414 -0.1363 -0.3120 -0.0116
12339W        W55330  24.467  24.211  19.745  0.1455  0.1614 -0.1068
12340W        W55331   8.426  10.303   6.838  0.0431 -0.1228  0.2396
12341W        W55332  13.083  10.986   9.253 -0.1979 -0.2536 -0.1577
12342W        W55333  29.251  15.179  29.003  0.1673  0.1628 -0.1943
12343W        W55334  23.095  33.685  27.945 -0.0790  0.1480 -0.1472
12344W        W55335  32.309  23.556   1.570 -0.2255 -0.0738 -0.0748
12345W        W55336  17.396  24.261   1.607 -0.0154  0.1128  0.1022
12346W        W55337  23.823   9.928   9.121 -0.1064 -0.0315  0.1509
12347W        W55338  20.637  10.043  25.735  0.0484 -0.0435  0.1524
12348W        W55339  15.351  12.161  13.759 -0.0740 -0.0795  0.3155
12349W        W55340  19.215  21.223   6.522 -0.0342 -0.1225 -0.0191
12350W        W55341  20.067  21.040  26.467  0.1443 -0.1280  0.1762
12351W        W55342  33.088   7.048   4.699 -0.2022 -0.0668  0.1931
12352W        W55343  28.267  20.929   9.120  0.0764  0.1548  0.0100
12353W        W55344  16.341  14.103  27.822  0.0005  0.0941 -0.2345
12354W        W55345  22.821  14.916   7.272 -0.0261 -0.3577  0.0396
12355W        W55346  33.536  11.627   5.633 -0.1019 -0.2293 -0.1207
12356W        W55347  23.120  17.764   7.253  0.2531  0.1613 -0.1537
12357W        W55348  30.838  22.698   4.254 -0.3310 -0.3072  0.2069
12358W        W55349   9.947  31.481   5.917 -0.1683 -0.2537 -0.0570
12359W        W55350  34.779   8.410   9.050 -0.2757  0.1370  0.1310
12360W        W55351  22.878   7.644  26.519  0.0627 -0.2396  0.1363
12361W        W55352  24.360  16.728  26.005  0.1242  0.0434 -0.0415
12362W        W55353  25.403  17.961  29.065  0.1565  0.1138 -0.0452
12363W        W55354   6.758  21.840  24.138 -0.1316 -0.1933 -0.4255
12364W        W55355  23.008   1.917  22.207  0.1809  0.1238 -0.3251
12365W        W55356  13.059   1.464  20.114 -0.0771 -0.2950 -0.0103
12366W        W55357  26.415  30.561   6.558  0.1190  0.3272  0.0829
12367W        W55358   1.711  17.875  28.978 -0.0088  0.2405  0.0844
12368W        W55359   7.476   9.257   3.186 -0.0666 -0.3317  0.0577
12369W        W55360  28.391   2.359   7.283  0.0209  0.1989 -0.0098
12370W        W55361  24.023  26.073  25.823  0.0220  0.1919 -0.1003
12371W        W55362   8.099  19.629   2.242  0.1568  0.4550  0.3452
12372W        W55363  15.848  17.356   6.689 -0.1467 -0.0921  0.0082
12373W        W55364  24.700  20.083   8.912  0.1132 -0.0984  0.0450
12374W        W55365   6.131   0.862  27.108 -0.3213 -0.0418  0.1286
12375W        W55366   0.500  33.878  22.279  0.1798 -0.0904 -0.0810
12376W        W55367  33.797  16.886   7.483  0.0026  0.2021  0.2569
12377W        W55368  23.998   8.753   2.084  0.1969  0.0001 -0.1445
12378W        W55369  12.778  19.370   2.319 -0.0548 -0.1195 -0.2692
12379W        W55370  11.836  12.088   0.204 -0.1876 -0.2461 -0.0170
12380W        W55371   1.070  27.893   4.325  0.2949  0.0701 -0.1250
12381W        W55372  15.397  12.822  27.756 -0.0040  0.2574 -0.1178
12382W        W55373  26.765  19.802   6.696 -0.0764 -0.0100  0.1366
12383W        W55374  34.205  10.385   9.673  0.3667  0.1454 -0.1510
12384W        W55375  21.163  27.073   6.500 -0.0665 -0.2798 -0.1062
12385W        W55376   9.880  11.270   5.805  0.2463  0.1638  0.1237
12386W        W55377  25.647  21.161   4.100  0.1003 -0.0036  0.5053
12387W        W55378  22.892  25.708  29.066 -0.1729  0.3111 -0.0868
12388W        W55379  15.681   2.061  24.907 -0.3144 -0.0813 -0.1466
12389W        W55380   9.995  16.428  27.336 -0.1599 -0.2356  0.0468
12390W        W55381  20.809  23.373   3.061  0.1480  0.1046 -0.1903
12391W        W55382  11.135   4.816   6.444  0.2260 -0.0935  0.1088
12392W        W55383  20.379  13.334  27.367  0.4519  0.1871  0.0685
12393W        W55384  11.333   7.049  29.019  0.1173 -0.2425  0.0580
12394W        W55385  11.218   8.957  27.106 -0.1568 -0.2894 -0.0118
12395W        W55386  13.727  15.412   7.936  0.3741  0.2645 -0.0407
12396W        W55387  26.461  31.544  18.093 -0.1352 -0.2830 -0.1196
12397W        W55388  18.348  21.285  27.607  0.1406 -0.0534 -0.3200
12398W        W55389   5.204  16.389  25.206 -0.0957 -0.0837  0.4440
12399W        W55390  19.371  15.659   7.845  0.0965 -0.0739 -0.2246
12400W        W55391   0.797   6.165   9.638  0.2893  0.1678 -0.0110
12401W        W55392  21.130  15.994   8.061 -0.4299 -0.2377  0.0490
12402W        W55393  28.605  14.072  28.009  0.0960 -0.0871  0.0030
12403W        W55394  10.384   0.252  25.142 -0.1280 -0.1182 -0.1016
12404W        W55395   6.517  15.797  28.641 -0.1267 -0.0512 -0.3487
12405W        W55396  13.041  18.408  20.761 -0.0051 -0.2216 -0.1249
12406W        W55397  13.061  25.922   2.738  0.0420 -0.1196 -0.1007
12407W        W55398  16.065  23.886   8.106  0.2778  0.1562  0.1744
12408W        W55399  13.529   0.539   7.940  0.0523  0.1081  0.0686
12409W        W55400  13.438  13.360   6.704 -0.0968 -0.2493 -0.3065
12410W        W55401   9.767  29.855   6.878  0.0212 -0.1124  0.2402
12411W        W55402  30.349  21.127   1.303  0.5589 -0.1261  0.3194
12412W        W55403  29.442  11.992   5.350  0.1114  0.1445  0.0273
12413W        W55404  21.975   3.580   8.653 -0.2389  0.0631  0.1965
12414W        W55405  22.212  10.609   0.410  0.0582 -0.0499 -0.2169
12415W        W55406  17.809   6.892   9.367 -0.1552  0.4737 -0.0213
12416W        W55407  29.020  30.753   8.087 -0.0252  0.0373 -0.1658
12417W        W55408  34.337  33.345   5.817  0.2432 -0.2783 -0.0105
12418W        W55409  21.342  29.061  25.397  0.2874  0.1392  0.2082
12419W        W55410  29.717  24.314   2.902 -0.3215 -0.0283 -0.0139
12420W        W55411  11.683   6.520  22.373 -0.1404 -0.1586  0.1109
12421W        W55412  14.082  14.166  25.577  0.0303  0.2048  0.0471
12422W        W55413  27.665  30.255   1.053 -0.2274  0.0356  0.3142
12423W        W55414   0.048  13.995   9.651  0.1214  0.0160  0.0067
12424W        W55415  14.942   1.568  25.084  0.1618  0.1753 -0.4270
12425W        W55416  27.111   3.959  24.634  0.1495 -0.2315  0.1066
12426W        W55417  24.078   5.362  22.096 -0.2918 -0.0699 -0.1416
12427W        W55418  21.217  26.696  18.236  0.1162 -0.1094  0.0272
12428W        W55419  28.614  16.249   1.015  0.1651 -0.0232 -0.2593
12429W        W55420  15.455  17.814   0.948  0.2493  0.0377 -0.0199
12430W        W55421  22.287   6.760   7.413  0.0132  0.0952 -0.0904
12431W        W55422  34.688  14.906  18.107 -0.1493  0.4624  0.0502
12432W        W55423  10.663   3.598   1.638  0.2483 -0.0393  0.2004
12433W        W55424   0.163   9.117   6.734 -0.3630 -0.0485 -0.0392
12434W        W55425  14.696   0.653   6.781 -0.1034  0.0596 -0.3080
12435W        W55426  16.597  16.525  25.380 -0.3863  0.1172 -0.0099
12436W        W55427  13.082  15.022   0.383 -0.2960 -0.1038  0.0958
12437W        W55428  19.204  16.492   4.551  0.1915  0.0046 -0.2368
12438W        W55429  18.449   9.561   6.057 -0.1101 -0.0510 -0.3198
12439W        W55430   1.873  10.216  27.008  0.0573 -0.1482 -0.1106
12440W        W55431   8.589   5.763  19.996  0.0603  0.1188  0.0588
12441W        W55432  22.516  33.022   8.192 -0.0585 -0.1274 -0.4373
12442W        W55433  11.372  22.193   1.521  0.1576  0.0409 -0.2821
12443W        W55434  12.476  20.408   9.288 -0.0872 -0.2923  0.1255
12444W        W55435  16.697  24.486   0.938  0.0579  0.0599  0.2160
12445W        W55436   1.346  31.806  21.801 -0.0317  0.1467 -0.1271
12446W        W55437  24.299  14.117  22.010 -0.1565  0.0038 -0.1080
12447W        W55438   8.004  27.830   5.206  0.0060  0.0693  0.1591
12448W        W55439  20.314  14.848  27.827  0.0508  0.0101 -0.0139
12449W        W55440  33.232  18.553  10.921  0.4748  0.3177 -0.0241
12450W        W55441  11.387  21.744   8.722 -0.0165 -0.0957 -0.0277
12451W        W55442  24.396  33.047  23.393  0.0022  0.2385 -0.1293
12452W        W55443  23.948   8.192  10.435 -0.0282 -0.1603  0.1513
12453W        W55444  18.224   3.551  17.007  0.2574 -0.2328 -0.1365
12454W        W55445  18.567   3.025   7.434 -0.2026  0.0082 -0.0212
12455W        W55446  15.161  14.952   5.411  0.0214  0.0798 -0.0941
12456W        W55447  15.724  32.002  21.110 -0.1596  0.4002 -0.0971
12457W        W55448  18.208   7.044   2.358  0.1737  0.3109 -0.0007
12458W        W55449  19.382  20.273   6.338  0.0489 -0.2156  0.0641
12459W        W55450  21.970  16.048   1.766 -0.2494 -0.1079  0.0267
12460W        W55451  13.581  15.940   1.306 -0.0475 -0.1096  0.3960
12461W        W55452   9.088  25.705   9.452  0.1199 -0.0177  0.2898
12462W        W55453  18.116  23.254  23.393  0.2062 -0.1202  0.0426
12463W        W55454  19.265  10.716   8.583 -0.0947  0.1567 -0.3317
12464W        W55455  10.860  19.586   9.399  0.0760  0.0579  0.2017
12465W        W55456  28.709   8.511  21.662  0.1657  0.2134 -0.1964
12466W        W55457  22.424   8.633   8.343  0.3063  0.1812 -0.2209
12467W        W55458  24.373  26.776  28.773 -0.3138  0.0553  0.0700
12468W        W55459  21.435  21.164  26.667 -0.1372  0.1620 -0.0230
12469W        W55460  22.621  25.942  21.026  0.1369  0.0944 -0.1599
12470W        W55461  21.766   8.445   2.443 -0.1039 -0.1035  0.4154
12471W        W55462  21.040  14.783  15.141 -0.3369 -0.3042  0.0552
12472W        W55463  29.133  15.912  14.954 -0.0078 -0.0117  0.0920
12473W        W55464  23.428  21.786   1.642  0.2129  0.4432 -0.0955
12474W        W55465   3.101  13.709   9.012  0.3801 -0.0698  0.2110
12475W        W55466  10.532  10.170   2.999  0.1225  0.0167  0.0286
12476W        W55467  27.443   9.091  28.072  0.0770  0.1467 -0.1768
12477W        W55468   2.474  30.715  27.785  0.1280  0.2013 -0.2945
12478W        W55469   2.530  30.531   7.357  0.2933  0.1149  0.2167
12479W        W55470  18.869  14.901   2.029  0.0542  0.2092  0.0623
12480W        W55471  30.291  14.878   0.634 -0.1646  0.0390  0.1808
12481W        W55472  24.186  17.410   5.192  0.0799  0.0750  0.0892
12482W        W55473  21.451   3.736   8.773 -0.0042  0.1643 -0.0179
12483W        W55474  17.089  19.047   2.590 -0.1405 -0.5188 -0.0071
12484W        W55475  13.294  34.620   5.523 -0.2836  0.3028  0.2162
12485W        W55476  30.456  17.275   6.168  0.2555 -0.2025  0.1592
12486W        W55477  27.099   2.002  24.518 -0.0012  0.1294 -0.0277
12487W        W55478   8.248  30.449   5.637 -0.1559  0.0809 -0.2014
12488W        W55479  15.085  21.715  22.564  0.3061 -0.0366  0.3106
12489W        W55480  31.657  17.834   4.548  0.2246  0.1962 -0.0462
12490W        W55481  32.500  26.947   7.646  0.2285 -0.0369 -0.0754
12491W        W55482  25.186   5.735   1.364 -0.0298  0.1775 -0.2500
12492W        W55483   8.599  21.530   2.085  0.0442 -0.0466 -0.0077
12493W        W55484   4.437  33.054  28.160 -0.1952 -0.1779 -0.0965
12494W        W55485  17.771   5.940   5.210 -0.1916  0.1646 -0.1139
12495W        W55486  11.332  22.994  15.058 -0.1092  0.1626  0.0703
12496W        W55487  18.613  13.613  22.942  0.0538  0.1648  0.0239
12497W        W55488  15.283  22.366  22.835 -0.0501  0.2620  0.0637
12498W        W55489  18.560  21.871   7.980 -0.1043 -0.1583 -0.0924
12499W        W55490  12.658  18.709   6.881 -0.1206 -0.2291 -0.3555
12500W        W55491  12.104  21.784   4.369 -0.0985  0.2556  0.0540
12501W        W55492  19.459  14.854   7.293 -0.2703  0.2595 -0.2073
12502W        W55493  21.513  18.882  24.352  0.1688 -0.0677 -0.0154
12503W        W55494  30.660  18.179  28.062 -0.0473  0.1744  0.1094
12504W        W55495  15.440  19.811   0.987 -0.0267  0.0523 -0.4208
12505W        W55496  21.522   6.869   7.855  0.0547  0.1463 -0.1416
12506W        W55497  19.708  14.624  29.106  0.1823 -0.3795 -0.3404
12507W        W55498  20.637   9.290   8.725  0.0043  0.3646  0.0228
12508W        W55499  14.631   7.342   1.720  0.0262 -0.1094 -0.1267
12509W        W55500  15.951  18.778   5.745 -0.1492  0.1622  0.0834
12510W        W55501  16.074   8.436   0.814 -0.1386 -0.2226 -0.0507
12511W        W55502  13.047  13.406  26.410  0.0294 -0.0878 -0.0637
12512W        W55503  32.820  19.856   8.711  0.1464  0.0855 -0.2399
12513W        W55504   6.950  22.349   8.683 -0.4643  0.3116  0.0553
12514W        W55505  23.532   4.423   0.470  0.0663  0.2548 -0.0696
12515W        W55506  16.354   8.803   9.866  0.0406  0.0926 -0.0475
12516W        W55507   0.213  22.925   2.086 -0.2400  0.0294  0.0026
12517W        W55508  25.539  19.022   6.899 -0.2800 -0.1722 -0.0263
12518W        W55509  22.664  12.013  27.523 -0.0657 -0.2687 -0.4715
12519W        W55510  29.309  12.489   2.980  0.1321 -0.0501 -0.1228
12520W        W55511  13.977  29.171   5.248 -0.1041 -0.2859 -0.0955
12521W        W55512  17.692   5.677  25.116 -0.2259  0.1581 -0.0352
12522W        W55513  18.568  13.946   2.718 -0.0484 -0.1068 -0.3308
12523W        W55514  25.156  15.153  26.954 -0.0453 -0.0094  0.1235
12524W        W55515  17.502  14.656  26.147  0.0461 -0.0070  0.0717
12525W        W55516  22.905   4.569  25.123 -0.2807 -0.0625 -0.2720
12526W        W55517  33.276   8.408   3.520  0.0795  0.0624 -0.2784
12527W        W55518   3.753  15.394  23.347  0.0471 -0.1477 -0.0974
12528W        W55519  23.200  18.779  25.444 -0.0846 -0.1872  0.2904
12529W        W55520  13.651   4.545  10.445 -0.0466  0.0907 -0.2467
12530W        W55521  11.105   9.384  21.318  0.0427 -0.1855 -0.2184
12531W        W55522  11.579   6.633   7.375 -0.1048 -0.1333  0.2254
12532W        W55523  17.853  30.431  15.279  0.1477 -0.0472 -0.1997
12533W        W55524  29.915  18.839   8.709 -0.2459 -0.3389  0.1430
12534W        W55525  21.658   6.273  28.509 -0.0913  0.1351 -0.0985
12535W        W55526  29.804  19.166   5.473  0.2479  0.1309  0.0601
12536W        W55527  27.773  28.791  25.927 -0.1277  0.1251  0.4888
12537W        W55528  12.136  15.986  25.964  0.1196 -0.1580 -0.2208
12538W        W55529  18.841  11.066  26.502 -0.0762 -0.1506 -0.0878
12539W        W55530   0.413  12.415  10.323  0.1043 -0.2666 -0.1347
12540W        W55531   3.833  29.866   5.417 -0.1896 -0.2795  0.0538
12541W        W55532  19.274  10.725   4.856  0.0364  0.2929  0.0517
12542W        W55533  25.074  15.657  26.898  0.0268  0.0384 -0.1136
12543W        W55534  17.192   5.808   9.556 -0.1671  0.0837  0.0545
12544W        W55535  19.369  30.492   5.213 -0.0238  0.3758 -0.3099
12545W        W55536   3.655  17.146   2.130 -0.1016 -0.2568  0.0305
12546W        W55537   9.222  32.522   9.037 -0.0106 -0.1318  0.0087
12547W        W55538  19.473  32.186   5.429 -0.1228 -0.0762  0.1051
12548W        W55539  12.765   6.858   0.596 -0.0626  0.0326 -0.2052
12549W        W55540   7.810   7.029   7.068 -0.0007  0.1026 -0.5042
12550W        W55541  18.992   6.149  24.143  0.0501 -0.2532  0.2846
12551W        W55542  30.774  33.725  18.945  0.0762 -0.2817  0.3262
12552W        W55543   8.139  12.757   9.448 -0.0862 -0.1864 -0.0524
12553W        W55544  20.206   3.613   6.025 -0.0179 -0.1759  0.0906
12554W        W55545   5.883   5.036  20.423 -0.1769  0.1165 -0.0926
12555W        W55546  11.161   8.444  29.145  0.2211 -0.2124 -0.1495
12556W        W55547  11.639  15.225  29.107 -0.0857  0.0475 -0.0365
12557W        W55548  14.457   6.282  27.853 -0.1321  0.0184 -0.2423
12558W        W55549  11.926  21.640  14.376 -0.0272  0.1656  0.2226
12559W        W55550  32.961  19.523   2.398  0.0003 -0.0101 -0.1103
12560W        W55551  26.326  13.567  10.348  0.1797  0.2634 -0.1320
12561W        W55552  22.725  16.768   5.829  0.0177 -0.0976 -0.0768
12562W        W55553  17.819  15.195   3.841  0.0602 -0.0847  0.1076
12563W        W55554   0.739  30.684  28.544  0.0553  0.3811  0.2677
12564W        W55555   0.879  28.096   2.221  0.0090  0.0245  0.2109
12565W        W55556   3.377   5.082   3.965  0.1244  0.1188  0.1657
12566W        W55557  30.365   4.102   1.363 -0.2754  0.1177  0.0052
12567W        W55558   7.174  22.088   5.338  0.0413 -0.0124 -0.1743
12568W        W55559   3.792   4.586   4.208 -0.0662 -0.0747  0.1591
12569W        W55560  24.158  14.539   7.204 -0.0945  0.1241  0.2045
12570W        W55561  19.547   9.192  25.737 -0.0315 -0.1820 -0.2755
12571W        W55562  18.901  30.916  17.717 -0.0436 -0.0655  0.2527
12572W        W55563  27.337  10.181  24.754 -0.0288 -0.2447  0.0844
12573W        W55564  22.201  18.205  29.169  0.1454 -0.0898 -0.2326
12574W        W55565  27.528  15.083  26.709 -0.3631  0.0467  0.0799
12575W        W55566  20.322  18.126  25.323  0.0718  0.3191 -0.1951
12576W        W55567   7.400  15.921  24.422  0.0520 -0.0474 -0.0730
12577W        W55568  25.217  15.990   5.478  0.5005 -0.2190  0.0085
12578W        W55569  16.888  33.189  24.193  0.0352 -0.4494 -0.1884
12579W        W55570  14.189   8.310  10.704 -0.0381  0.1725  0.0001
12580W        W55571   6.935  32.665  10.603  0.0864  0.4123 -0.0852
12581W        W55572  23.796  19.537   2.816  0.0256 -0.0540 -0.2624
12582W        W55573  22.083   9.855   4.802  0.5459  0.0521 -0.2933
12583W        W55574  10.263  31.296  22.678  0.1344 -0.3387 -0.0179
12584W        W55575   6.271  21.805   4.344  0.2183 -0.0140  0.0949
12585W        W55576  15.178  11.191   1.122  0.2855 -0.0607 -0.0148
12586W        W55577  15.597  33.561   6.482 -0.5971  0.1553 -0.0187
12587W        W55578  33.530  12.893  10.100 -0.0958 -0.1245  0.1036
12588W        W55579   8.178  14.145   3.827 -0.1325 -0.1517  0.0855
12589W        W55580  23.134  21.007   8.483  0.0453  0.2493  0.2413
12590W        W55581   0.090  28.060   6.156 -0.1295  0.0402 -0.0353
12591W        W55582  22.055  12.099   3.085  0.1155  0.2359  0.0353
12592W        W55583  22.752  18.140  25.342  0.0076 -0.1789  0.1868
12593W        W55584   0.475   5.135   0.596  0.0986  0.0513  0.5247
12594W        W55585   1.446  26.945   6.238 -0.2689 -0.1600 -0.0387
12595W        W55586  15.748  31.481  24.687 -0.3688 -0.0965 -0.2449
12596W        W55587  25.485  16.156   7.008 -0.0996  0.0834 -0.0593
12597W        W55588  33.675   7.887   3.747  0.4878 -0.1220 -0.1030
12598W        W55589  12.831  30.314  25.845 -0.1810 -0.1808 -0.0977
12599W        W55590  23.609  17.176  26.740  0.1928  0.3509  0.0675
12600W        W55591  21.005  15.352   0.070  0.2408  0.0647  0.1797
12601W        W55592  32.854  10.144  20.409  0.0993 -0.0283 -0.0420
12602W        W55593  20.289  13.929   3.403 -0.0682 -0.0459 -0.0984
12603W        W55594  17.779  19.376   8.773 -0.4110  0.1599 -0.0229
12604W        W55595  26.787  11.920   2.982 -0.2912  0.1063 -0.0549
12605W        W55596  15.537   9.389  27.176 -0.1556 -0.0393  0.2561
12606W        W55597  21.596  19.121   1.898  0.2370 -0.1273  0.0986
12607W        W55598  17.011   2.726   4.688  0.1991  0.0102  0.2069
12608W        W55599  24.472   5.387   2.069  0.0474 -0.0837  0.2646
12609W        W55600  13.800  18.816  20.755 -0.3103  0.2909  0.1203
12610W        W55601  32.853  19.067   5.866 -0.2808  0.0659  0.0809
12611W        W55602  23.086  10.338  29.257 -0.0763 -0.2319 -0.1660
12612W        W55603  15.795  12.730  26.610  0.1196  0.0629 -0.1628
12613W        W55604  12.076  13.262   9.047 -0.0484 -0.2257  0.2886
12614W        W55605  25.266  22.319   7.862 -0.2118  0.0241  0.0818
12615W        W55606  27.555  24.940   6.063  0.2413  0.0122  0.2184
12616W        W55607  22.585   7.480  28.652  0.0202  0.0502 -0.0229
12617W        W55608   9.684  12.352   2.845  0.1941 -0.1643 -0.0791
12618W        W55609   7.583  23.748  25.646  0.0942 -0.1318  0.0120
12619W        W55610  12.332  12.527  26.969  0.1873  0.0074  0.4184
12620W        W55611  13.600   3.807   8.925 -0.4386  0.0032  0.1753
12621W        W55612  12.977  17.868   3.562  0.0561 -0.0642 -0.3455
12622W        W55613  14.290  12.565   5.785 -0.1162  0.4125 -0.2880
12623W        W55614  31.366  15.465   7.050 -0.3825 -0.1506  0.0366
12624W        W55615  20.719  20.467  25.024 -0.1105  0.1921 -0.1113
12625W        W55616  24.007  17.542   8.604 -0.1458  0.1561  0.2346
12626W        W55617  22.096  15.237   5.390  0.0991 -0.0908 -0.0152
12627W        W55618  20.836  20.594   2.579  0.0146 -0.0953  0.0002
12628W        W55619  12.982  15.536   6.497  0.2985  0.1384 -0.1487
12629W        W55620   2.615  27.866  20.538  0.2607 -0.0335  0.2573
12630W        W55621  10.233   6.773   6.056  0.1951  0.1626 -0.0413
12631W        W55622  12.993   7.901   9.142  0.2496  0.4743  0.4644
12632W        W55623  20.683  31.099   6.522 -0.2046 -0.0948 -0.2120
12633W        W55624  18.009   8.526   6.465 -0.1281 -0.1077 -0.1646
12634W        W55625  25.849  21.389  23.225 -0.0676  0.2010  0.2489
12635W        W55626  21.384  16.295   0.470  0.2102  0.0515  0.0847
12636W        W55627   6.455  23.611   9.099  0.0956 -0.2398  0.3037
12637W        W55628  18.223  28.620   3.645 -0.1640 -0.1740 -0.0588
12638W        W55629  28.406  21.845   9.529  0.3195 -0.0181 -0.2400
12639W        W55630  16.775  11.213  24.107 -0.2072 -0.3293 -0.1950
12640W        W55631  15.277   8.835  26.343 -0.0282  0.1454  0.1259
12641W        W55632   5.026   3.506   4.049  0.0719  0.0194 -0.3897
12642W        W55633  13.369   5.618   5.230  0.0229  0.0315 -0.0618
12643W        W55634  18.951  18.094   5.914 -0.3245 -0.0690  0.0777
12644W        W55635  25.271  15.978  21.308  0.0890 -0.2455 -0.0024
12645W        W55636  18.226   8.409  26.339 -0.1812  0.0339 -0.0866
12646W        W55637  25.176   0.119   0.743  0.1154  0.0617 -0.0578
12647W        W55638  26.167  20.037   2.827 -0.1595 -0.1381  0.0585
12648W        W55639   6.271  12.553  25.783  0.0050 -0.3053  0.3671
12649W        W55640  10.201  21.147   3.444 -0.0665 -0.0084  0.4069
12650W        W55641  33.632  10.876   6.708 -0.4128 -0.2963  0.2227
12651W        W55642  18.860   4.977   6.876  0.0016 -0.1627  0.0072
12652W        W55643  21.612  24.661  18.414  0.2058 -0.3252  0.0629
12653W        W55644  20.032  12.368  26.925  0.0023  0.0510  0.3447
12654W        W55645  28.975  16.440  24.997  0.0952  0.0451 -0.0185
12655W        W55646   5.557  25.750  25.877  0.2425  0.1245  0.1318
12656W        W55647  17.140  19.546   3.186 -0.0751  0.0890  0.0737
12657W        W55648  16.412   2.084   7.507  0.1541  0.5668  0.2088
12658W        W55649  17.247   0.278   1.317  0.1585 -0.2270 -0.0830
12659W        W55650   3.425   9.226   2.902  0.5252 -0.0421  0.0382
12660W        W55651  17.436  17.180   1.967  0.2039  0.4187  0.0141
12661W        W55652  24.817  19.812   0.870  0.0059  0.1148 -0.0186
12662W        W55653  26.822  13.745  25.935  0.1450 -0.0387 -0.3170
12663W        W55654  23.925   4.330   8.018  0.2342 -0.0189  0.0822
12664W        W55655  12.020  22.881   6.675  0.1172 -0.1444 -0.1175
12665W        W55656  25.923  12.959   4.453  0.0918 -0.1137  0.0322
12666W        W55657  32.980  12.584  17.765  0.3609 -0.1312 -0.3748
12667W        W55658  30.434   5.266  27.214  0.0364 -0.1979 -0.0564
12668W        W55659   9.500  27.650   5.392 -0.0858  0.1376  0.2301
12669W        W55660  32.660  10.708   3.441  0.2593  0.0555 -0.0904
12670W        W55661   5.944   5.653   4.741 -0.1103 -0.0550 -0.2008
12671W        W55662  18.806  24.112   4.842 -0.0572 -0.0187  0.1875
12672W        W55663  13.127  13.953   4.994  0.0584  0.0127 -0.0931
12673W        W55664  19.519  20.838  26.349  0.2792  0.2435  0.1417
12674W        W55665  16.632  20.573   7.237 -0.5653  0.2177  0.1613
12675W        W55666  28.903   3.881  27.789  0.0909 -0.0718  0.0871
12676W        W55667  25.816  14.837   4.117 -0.0937 -0.3016 -0.1060
12677W        W55668  18.968   0.715   5.740  0.2594  0.0646 -0.0637
12678W        W55669  25.998  17.960  14.224 -0.1487 -0.4375  0.1500
12679W        W55670  13.100  23.780   6.745  0.2095  0.4218  0.2301
12680W        W55671  16.957  10.471   2.839 -0.1939  0.1776  0.1243
12681W        W55672   8.490   8.372   4.661  0.0440 -0.2504  0.0773
12682W        W55673  10.679  32.891   3.982  0.0888  0.0457  0.1876
12683W        W55674  18.073   9.710  28.295  0.1138 -0.1464  0.2632
12684W        W55675  18.397   1.485  20.752  0.3787  0.0735 -0.0174
12685W        W55676  31.961  11.408   4.159  0.0716  0.1416  0.1066
12686W        W55677   5.579  24.520  25.756  0.2239  0.1820 -0.1667
12687W        W55678  14.392  10.346  10.315  0.2303 -0.0064  0.0926
12688W        W55679  16.281  30.403  25.542  0.0096  0.3694 -0.2621
12689W        W55680  20.773  10.585   1.989  0.2521  0.3288  0.2400
12690W        W55681   8.964  28.467  25.772 -0.0687  0.2020  0.1400
12691W        W55682  18.062  10.992   4.574  0.1456 -0.0069  0.1972
12692W        W55683  30.170  26.818   6.554  0.3925 -0.2674  0.3487
12693W        W55684  10.611  14.738   8.928 -0.0003 -0.0884  0.1321
12694W        W55685  17.009  10.377   5.713 -0.1378  0.2111 -0.0909
12695W        W55686  19.588  15.417   7.037  0.1421 -0.0682  0.2333
12696W        W55687  32.370  18.998  23.481  0.3363 -0.0146 -0.0507
12697W        W55688  29.657  20.323   1.308  0.0488  0.1746  0.1640
12698W        W55689  31.648  18.922   2.332 -0.0737 -0.1603 -0.1120
12699W        W55690  19.564   9.261  29.167 -0.0879  0.1006 -0.0625
12700W        W55691  28.838  12.335  25.933  0.2658 -0.2013  0.1219
12701W        W55692  10.044  12.960  11.207 -0.3357 -0.1657 -0.1186
12702W        W55693   9.511   8.618  10.821  0.0645 -0.1356 -0.0063
12703W        W55694  14.224  16.423   0.845 -0.1076  0.0110 -0.2938
12704W        W55695   5.043  22.670  27.935 -0.1146  0.2961  0.0973
12705W        W55696  33.697   3.402   2.931  0.0754  0.0537  0.2355
12706W        W55697  33.492  14.467   5.851 -0.2541  0.0916  0.1272
12707W        W55698  12.698   8.526   5.014 -0.1080 -0.0557 -0.4068
12708W        W55699  17.707  20.755   5.405  0.1214 -0.4096 -0.2441
12709W        W55700  19.146   9.415  25.279 -0.1009  0.0271 -0.0106
12710W        W55701  17.205  10.732  26.561 -0.1902  0.0952 -0.1390
12711W        W55702  21.978  17.859  22.218 -0.0214  0.0328 -0.1432
12712W        W55703  32.339   8.867  18.176  0.1650 -0.2257 -0.1197
12713W        W55704   4.452  25.488   2.545 -0.1344  0.1492  0.0886
12714W        W55705  34.285   3.434  25.680 -0.1553  0.1450 -0.0671
12715W        W55706   4.977  13.196  10.164  0.0989  0.2113 -0.0956
12716W        W55707  22.528  21.262   2.569 -0.2275 -0.0187  0.1350
12717W        W55708  25.507   7.263  25.735  0.2733  0.1584 -0.3184
12718W        W55709  14.349  16.306   8.438  0.0309  0.0025  0.0665
12719W        W55710  33.798  27.951   4.661 -0.1247  0.1115  0.0820
12720W        W55711   5.844  12.747   1.958  0.1208 -0.1955  0.0824
12721W        W55712  17.903  22.287   2.373 -0.3218  0.2151 -0.0347
12722W        W55713  28.451  34.109   7.226  0.3129 -0.2699 -0.0721
12723W        W55714  30.145  24.154   3.920 -0.4388 -0.3188 -0.3062
12724W        W55715  25.841  12.248   3.382  0.0138  0.1101 -0.0401
12725W        W55716  29.638  20.416   4.392 -0.0363  0.0192 -0.0049
12726W        W55717  10.562   6.251  20.454  0.1372  0.1109 -0.2105
12727W        W55718   6.017  17.418   3.424  0.3823 -0.0453  0.2569
12728W        W55719   3.136  13.335   7.654  0.0446 -0.0499  0.1451
12729W        W55720  24.697  25.287  24.018 -0.0604  0.3216  0.0562
12730W        W55721  19.085  13.499  17.694  0.0501  0.3130  0.2332
12731W        W55722  17.884  14.145   7.105 -0.1257 -0.1604  0.2787
12732W        W55723   8.754  20.855   4.712  0.2260 -0.3911  0.0254
12733W        W55724  13.700  14.492   4.210 -0.0462  0.1430  0.2310
12734W        W55725  16.951  13.305  26.162 -0.4223  0.0876  0.2826
12735W        W55726  28.877  15.992   3.941 -0.0517  0.1325  0.1778
12736W        W55727  24.878  24.118  22.097 -0.3392  0.3202 -0.1493
12737W        W55728  21.284  21.002   8.394  0.2384  0.1681  0.1540
12738W        W55729  33.954  22.415  26.922  0.3325  0.3686 -0.0510
12739W        W55730  17.776  11.299   8.658  0.2091  0.1337  0.0877
12740W        W55731  27.579  21.452   3.606  0.0266  0.1858  0.0949
12741W        W55732  15.399   8.740   7.156 -0.0075  0.3079  0.0670
12742W        W55733  23.920  16.832   6.282  0.0014  0.1134 -0.1564
12743W        W55734  15.872  23.033   4.443  0.3512  0.0428  0.1028
12744W        W55735  31.482  14.230  22.956 -0.1368 -0.1864  0.0432
12745W        W55736   7.445  14.974   6.058  0.0532  0.1065  0.3048
12746W        W55737  14.716  13.327  23.387 -0.0968  0.0383  0.1649
12747W        W55738  19.003   1.240  19.859 -0.1887 -0.0821 -0.1302
12748W        W55739   2.510  17.455  25.069 -0.0818  0.0240 -0.1901
12749W        W55740  27.633   2.401   5.404 -0.4043 -0.0137  0.1659
12750W        W55741  20.050  31.753   3.544 -0.0897  0.0496  0.0148
12751W        W55742   9.476  26.718  28.763 -0.1003  0.0471  0.1513
12752W        W55743  33.860  12.552   1.733  0.4015  0.1290  0.0076
12753W        W55744  26.073  10.983  27.149 -0.3792  0.2189  0.0981
12754W        W55745  12.773   4.481  26.598  0.0655 -0.0684  0.1918
12755W        W55746  23.217  20.770   5.351 -0.0821 -0.0102 -0.3546
12756W        W55747   3.729  15.156   8.651 -0.0033 -0.1200 -0.0630
12757W        W55748  12.524  17.412   6.539 -0.1660  0.3581  0.2168
12758W        W55749  15.313  21.244  26.567 -0.2168  0.0696 -0.0547
12759W        W55750  18.380   7.511   4.392  0.2676 -0.0575 -0.0483
12760W        W55751  26.833  20.778   2.163  0.2197 -0.2088  0.0373
12761W        W55752   5.389   8.446   7.366  0.1200  0.0649 -0.0170
12762W        W55753  10.012  10.416   0.396  0.1119 -0.0318  0.2814
12763W        W55754   5.984  19.128   5.242  0.1214  0.1116 -0.1272
12764W        W55755  18.928  13.772   5.093  0.0786  0.1980 -0.0355
12765W        W55756  24.559  26.681   6.150 -0.0415 -0.0302 -0.0390
12766W        W55757  15.251   5.192  28.116  0.0329 -0.0309  0.1053
12767W        W55758  18.754  16.840  27.117  0.2555  0.4532  0.0651
12768W        W55759  13.892  24.486  15.434  0.3647 -0.0716  0.3539
12769W        W55760  15.312  15.210   5.011  0.1087  0.1870  0.0145
12770W        W55761  19.091  33.455   3.199 -0.1923  0.0470  0.2606
12771W        W55762   5.819   2.348   5.335 -0.0962 -0.0372 -0.0026
12772W        W55763  15.100   1.951  18.626  0.0606 -0.4822 -0.1564
12773W        W55764   5.270  29.988   3.570  0.1078  0.1194 -0.1621
12774W        W55765  19.957  14.986   8.104 -0.1084  0.1571 -0.2643
12775W        W55766   5.669  15.642  26.421 -0.0887 -0.2025  0.2409
12776W        W55767  22.423  11.141   3.538  0.0922  0.0808 -0.0834
12777W        W55768  10.657  14.589   0.018  0.0067 -0.0016  0.0579
12778W        W55769  11.389  15.802   9.493  0.1296  0.2173  0.2549
12779W        W55770  32.592   5.625   7.237  0.1565 -0.0934  0.0980
12780W        W55771  12.735  10.669   7.923  0.2315  0.0090  0.0468
12781W        W55772  18.372  26.236  24.359 -0.0635  0.1219  0.2643
12782W        W55773  31.171  18.151   9.764  0.2937  0.1326  0.4059
12783W        W55774   1.582  12.297   9.624  0.1695 -0.0802  0.0228
12784W        W55775  30.353  23.758  26.758  0.0931 -0.2308 -0.2166
12785W        W55776  28.240   0.473  20.033 -0.1482  0.1353 -0.0807
12786W        W55777  18.258  17.784   2.004  0.2208  0.0274  0.1162
12787W        W55778  28.621  31.518  24.603 -0.0723 -0.3459 -0.2061
12788W        W55779  31.723  30.972   3.216 -0.0682  0.2162  0.0764
12789W        W55780  16.955  33.719   4.228 -0.0816  0.2939 -0.2424
12790W        W55781  26.446  33.134   6.624  0.0176 -0.1277 -0.0324
12791W        W55782  20.696  10.995   9.682 -0.1644 -0.1143 -0.0327
12792W        W55783  14.726   4.868   3.532 -0.0485 -0.1068 -0.1038
12793W        W55784  28.957  19.991   1.090 -0.1114 -0.1303 -0.2514
12794W        W55785   9.191  21.458  29.076  0.0105 -0.1659 -0.0246
12795W        W55786  12.256  18.473   0.116 -0.0405 -0.1088 -0.1450
12796W        W55787   9.318  10.532  25.129  0.0245 -0.2414 -0.0981
12797W        W55788  15.861   1.198   9.885  0.1800  0.1875  0.1686
12798W        W55789  22.377  32.970   5.283 -0.1346 -0.2208 -0.0686
12799W        W55790   2.665  16.016   4.929  0.0355  0.3388 -0.1304
12800W        W55791  18.738  22.986   6.554 -0.0404  0.1135 -0.0805
12801W        W55792  23.966  21.891   7.934 -0.0800 -0.4217 -0.2725
12802W        W55793  32.381  18.995   3.720  0.0425 -0.0321 -0.2057
12803W        W55794  15.128  13.831   2.496  0.0128 -0.0726 -0.2651
12804W        W55795  25.125  12.421   9.558 -0.1149  0.2215 -0.2783
12805W        W55796  22.520  13.184  25.693  0.4268  0.0902 -0.0607
12806W        W55797  12.967  18.539   8.691 -0.1835 -0.3343  0.2496
12807W        W55798   7.631  17.800   4.987  0.2549  0.0591 -0.0926
12808W        W55799  31.798  10.560  23.476 -0.4320 -0.2953 -0.2728
12809W        W55800  16.387  19.331   6.421 -0.0965 -0.2689 -0.3028
12810W        W55801   3.435  18.820   7.854 -0.1590 -0.0758 -0.0398
12811W        W55802  13.008  26.078  28.883  0.0545 -0.1079 -0.1987
12812W        W55803  17.348   6.287   6.621 -0.1156 -0.1030  0.2424
12813W        W55804   9.045  18.983   0.837  0.0182  0.3717  0.1253
12814W        W55805  13.647   8.638  22.498  0.1188 -0.3469  0.0472
12815W        W55806  11.950  24.007   7.703 -0.0406 -0.0032 -0.0633
12816W        W55807  16.941  30.538  24.022 -0.0139  0.0086 -0.2985
12817W        W55808  19.439  31.857   6.351 -0.1230  0.0684 -0.0657
12818W        W55809  12.770   6.164   6.731 -0.3497  0.2383  0.1008
12819W        W55810  12.015  16.410  10.372  0.1193  0.1876  0.0467
12820W        W55811  20.532  16.020   7.738 -0.0861  0.0899 -0.2056
12821W        W55812  17.787  33.308   2.428  0.0019  0.0021 -0.0125
12822W        W55813  19.014   9.233  22.833  0.0327  0.2334  0.0809
12823W        W55814  16.804  26.032   4.516 -0.1525 -0.2116 -0.3082
12824W        W55815  14.562  27.172  29.156  0.3141 -0.2896  0.0549
12825W        W55816  34.400  17.828  25.997  0.0738  0.3412  0.1528
12826W        W55817  15.682   6.188  26.151  0.3041  0.2485  0.1898
12827W        W55818   5.306  11.729  22.935  0.2666  0.1151 -0.2232
12828W        W55819  22.162  19.973   5.735 -0.0126 -0.3897  0.0710
12829W        W55820  18.053  21.215   2.716  0.4007  0.0810 -0.0310
12830W        W55821  11.026  14.706   2.752  0.1940 -0.1778  0.0329
12831W        W55822  25.835  12.300   2.845 -0.0302 -0.0427  0.0710
12832W        W55823   6.427  22.197   4.084  0.1116  0.5721  0.0390
12833W        W55824   7.279  18.054   4.071  0.1304 -0.1127  0.0572
12834W        W55825  19.858   0.192   8.852 -0.1886 -0.0920 -0.1231
12835W        W55826   7.256  10.925  10.994 -0.1182 -0.2528 -0.1727
12836W        W55827  12.891   2.835  24.248 -0.2769 -0.0883 -0.0150
12837W        W55828  20.328   2.853   6.953 -0.0854  0.0085 -0.1067
12838W        W55829  20.519  26.297   5.244  0.2146  0.0427 -0.2066
12839W        W55830  20.476  15.363  23.587 -0.0797  0.1223  0.3012
12840W        W55831   9.380  34.265   4.824  0.0213 -0.0861  0.1618
12841W        W55832  13.776   9.680  27.030  0.2052 -0.2708 -0.2525
12842W        W55833  19.969   5.761   9.652  0.0355  0.1051  0.2614
12843W        W55834  29.823  33.665  28.800 -0.0668  0.1245 -0.0051
12844W        W55835   7.477   4.279   8.459 -0.1705 -0.0058  0.0580
12845W        W55836   5.147   4.042   8.579  0.0262  0.1193 -0.0674
12846W        W55837   0.607   3.134  28.170 -0.0178 -0.0608 -0.0291
12847W        W55838  12.801  11.663  10.032  0.0462 -0.0024 -0.1520
12848W        W55839  18.855   9.990   7.388  0.4706 -0.2058  0.2156
12849W        W55840  24.615  13.702   9.238  0.1149 -0.2036 -0.0820
12850W        W55841   7.452  18.151  10.662  0.0723 -0.0115 -0.0290
12851W        W55842   9.858  16.900   9.407 -0.0817 -0.0445 -0.0981
12852W        W55843  23.756  11.625   2.898 -0.0865 -0.2671 -0.0001
12853W        W55844  16.008  14.318   4.623 -0.1033  0.0448  0.0768
12854W        W55845  17.270   6.657   6.967 -0.2226 -0.0864  0.1117
12855W        W55846  19.210  19.026  26.519 -0.0058  0.2184 -0.1034
12856W        W55847   7.964  32.106   5.527 -0.1195  0.3330  0.2601
12857W        W55848  21.840  13.060   0.652  0.2641  0.1109  0.3757
12858W        W55849  11.817  17.709   4.638  0.1159  0.1380  0.0006
12859W        W55850   7.197  17.589  11.213 -0.1988 -0.0602 -0.1143
12860W        W55851   3.412  20.108   0.503 -0.0333  0.3648  0.2379
12861W        W55852  25.236  20.381   3.895 -0.0466 -0.0434  0.0715
12862W        W55853  19.196   0.420  20.329  0.3073  0.1285  0.0570
12863W        W55854  10.784   0.919   7.294 -0.0037 -0.1813  0.1423
12864W        W55855   1.530  20.280  20.299  0.1637  0.0074 -0.0534
12865W        W55856  23.827  25.572  21.245  0.1165 -0.0728  0.0470
12866W        W55857  16.271  19.204  26.885  0.4200  0.2950  0.2718
12867W        W55858  25.098   9.620  28.463 -0.0527  0.1623  0.1341
12868W        W55859  17.759  21.144  24.835 -0.1420  0.0723  0.1537
12869W        W55860  13.049   6.508   2.652 -0.0989  0.2306 -0.1583
12870W        W55861  16.646  16.828   7.566  0.0294  0.1814  0.1343
12871W        W55862  10.429  14.301   3.575  0.1990  0.0251 -0.2217
12872W        W55863  24.622  20.156  27.433 -0.4620 -0.0497  0.0373
12873W        W55864  20.164   3.767   8.292 -0.0190 -0.1650 -0.0152
12874W        W55865  30.567   6.879   0.912  0.1294 -0.0119 -0.0208
12875W        W55866  24.140  12.790   8.433 -0.1339  0.1099  0.1534
12876W        W55867   5.179  11.431  25.679  0.0878  0.1582  0.2530
12877W        W55868  13.933  20.503   5.583  0.1580  0.1865 -0.0167
12878W        W55869  14.381   5.852  11.665  0.2021  0.2152  0.1165
12879W        W55870  14.737  17.140   3.054 -0.1483 -0.1350  0.0913
12880W        W55871  20.798   9.344  23.612 -0.1148 -0.1169  0.0156
12881W        W55872  18.287  21.251   8.471 -0.2653 -0.1180  0.3209
12882W        W55873   8.244  11.354   4.754 -0.0592 -0.1654 -0.2951
12883W        W55874  21.574   9.711   6.063 -0.0433 -0.0418  0.2217
12884W        W55875   4.421  20.454   2.691  0.0301  0.1242  0.0366
12885W        W55876  11.806  17.262   1.062  0.3336 -0.2750 -0.1203
12886W        W55877   8.929  21.910   0.481 -0.0360  0.2071 -0.0932
12887W        W55878  23.731  22.212   9.529  0.3593  0.0497 -0.1756
12888W        W55879   7.810  12.364  25.643  0.0015  0.0089  0.0170
12889W        W55880  19.910   7.772   8.953 -0.1458  0.2246 -0.0495
12890W        W55881   5.717  30.465   8.523  0.1003 -0.0007  0.2681
12891W        W55882  24.769   5.182   6.497 -0.1291 -0.2667  0.2276
12892W        W55883  17.717  32.704   3.676  0.2638  0.2851  0.2140
12893W        W55884   7.613  18.899  29.065 -0.2348  0.1501 -0.1612
12894W        W55885  30.897  15.807  24.706 -0.2305 -0.0130 -0.2884
12895W        W55886  18.999  17.239   8.435 -0.1023 -0.0640 -0.0134
12896W        W55887  14.815  13.323   8.248  0.0532 -0.0100  0.1023
12897W        W55888  11.566  10.210   6.649 -0.1548  0.2271  0.2077
12898W        W55889  16.906  14.118   2.890 -0.4159  0.1306 -0.1108
12899W        W55890  16.216  27.185  23.745  0.0434 -0.0361  0.3127
12900W        W55891  10.855  25.987   9.213  0.0692  0.1382  0.2003
12901W        W55892  20.023  25.633   8.191  0.1500 -0.0592  0.1388
12902W        W55893  27.009  25.587   5.099  0.2642 -0.2850  0.0794
12903W        W55894  30.164  21.411  26.671  0.0458 -0.0780 -0.0695
12904W        W55895  28.677  22.354  16.319  0.1100  0.0443  0.0569
12905W        W55896  11.720   5.601   6.928 -0.1972  0.1450  0.0100
12906W        W55897  19.231  25.591  18.391 -0.0200  0.0096  0.0084
12907W        W55898  28.147   8.230   3.861 -0.1536 -0.0106 -0.2883
12908W        W55899  21.968   8.501   8.062  0.0450 -0.2302 -0.1725
12909W        W55900  19.304  10.389  28.694  0.1564 -0.2182  0.1206
12910W        W55901  27.368  21.193   1.525 -0.2052  0.0203 -0.1233
12911W        W55902  10.813  22.208   8.798  0.0952 -0.0815 -0.2159
12912W        W55903  27.553   9.248   1.599  0.0706 -0.4279  0.0159
12913W        W55904  26.464  16.540  21.607  0.0540  0.0508 -0.0183
12914W        W55905   3.549  15.619   5.599  0.0409 -0.2451 -0.2574
12915W        W55906  12.531   6.447   2.402  0.3319  0.2067  0.0494
12916W        W55907  25.541  15.122   1.548 -0.1572  0.1656 -0.0510
12917W        W55908  16.433  14.711  25.391  0.2472  0.1368  0.0962
12918W        W55909   5.387  23.376  18.391  0.0663 -0.2234 -0.1955
12919W        W55910   1.640  20.126   7.640 -0.2195 -0.0415  0.1702
12920W        W55911  11.513   0.365  24.416  0.1058  0.0394  0.3183
12921W        W55912  15.652  29.303   7.128  0.4111  0.0244 -0.0770
12922W        W55913  19.176  24.390  13.070  0.1498 -0.2824  0.0495
12923W        W55914  17.921   2.380  20.680  0.2185 -0.1164 -0.0205
12924W        W55915  26.126  20.675  21.369 -0.3040  0.0683 -0.0626
12925W        W55916   1.400  13.671   2.551 -0.1397  0.2314 -0.4678
12926W        W55917  17.575  15.035  24.582  0.0576  0.0267 -0.1915
12927W        W55918  23.446  11.175  26.640  0.1446  0.0959 -0.1337
12928W        W55919  20.402  20.483  24.016  0.0372  0.0732 -0.3018
12929W        W55920  18.576  11.802  25.988  0.0161  0.0459  0.1108
12930W        W55921  25.080  25.606  10.105 -0.1167  0.1091  0.0510
12931W        W55922  34.353  21.393  29.158 -0.0631 -0.0080  0.1251
12932W        W55923   7.238  14.036  10.567 -0.2528 -0.1511 -0.3099
12933W        W55924  32.688  27.312   1.607  0.0775  0.1099 -0.0319
12934W        W55925  16.577  10.685  25.804  0.1119 -0.1071 -0.3508
12935W        W55926   4.883  13.701  10.314 -0.1453  0.0126 -0.0436
12936W        W55927  13.437  26.289   8.484 -0.4115 -0.2992  0.1338
12937W        W55928  14.882  23.379   8.772 -0.1360 -0.0392  0.1034
12938W        W55929  17.528   4.791   2.197  0.4187  0.0988 -0.2056
12939W        W55930  17.604  25.531  19.299  0.0087 -0.0158  0.0153
12940W        W55931   5.849   5.678  28.808 -0.1901  0.1628 -0.2066
12941W        W55932  20.404  22.279   0.435 -0.0316 -0.0031 -0.0406
12942W        W55933  25.132  11.612   7.053 -0.0255 -0.0342 -0.0558
12943W        W55934  21.800   5.117   4.792  0.1350 -0.2813 -0.1143
12944W        W55935   3.401  13.879   2.103  0.1057  0.1466 -0.3475
12945W        W55936  14.676  14.196   2.936 -0.1483 -0.0687  0.1570
12946W        W55937  23.643  16.952  28.438  0.0260  0.0763  0.0247
12947W        W55938   7.863  19.475   6.022 -0.3856  0.0952 -0.0426
12948W        W55939  28.716   2.604   9.418  0.4225 -0.0475 -0.2211
12949W        W55940  12.806  31.876  26.791  0.4268  0.0838 -0.0089
12950W        W55941  11.631   2.444   2.737  0.0005  0.0599 -0.1169
12951W        W55942  11.658  15.038   0.812  0.0721 -0.0584 -0.0511
12952W        W55943  15.610  18.620   1.004  0.0341 -0.0329 -0.1756
12953W        W55944  12.890  12.654  25.269 -0.1270 -0.0465 -0.1566
12954W        W55945  28.404  31.208   0.465 -0.2063 -0.0452 -0.0857
12955W        W55946  21.208  15.372   5.811 -0.3552  0.0006 -0.0025
12956W        W55947  20.073  27.922   5.639  0.0086  0.0858 -0.0905
12957W        W55948  21.010  13.146   8.940 -0.0178 -0.0931  0.0315
12958W        W55949   8.540  17.593   8.212 -0.0845 -0.1238  0.0768
12959W        W55950  10.615  33.268   2.837  0.2224  0.0419  0.1587
12960W        W55951  17.066  17.853  26.940 -0.1464  0.2293  0.1364
12961W        W55952  28.757  23.879   2.431  0.1176  0.0265 -0.0795
12962W        W55953  26.612  16.144   0.092  0.3037 -0.1377 -0.0558
12963W        W55954  21.032   6.074   3.935  0.6044 -0.0841  0.0974
12964W        W55955  25.359  11.729   1.618  0.0385  0.0268 -0.1740
12965W        W55956  28.335  16.189   5.931  0.0681 -0.0642 -0.3112
12966W        W55957  29.112  27.937   6.410  0.2176 -0.1392  0.1028
12967W        W55958   6.451  14.078   0.397  0.1997 -0.2171  0.3543
12968W        W55959  18.771  17.792   3.848 -0.0451  0.0899  0.0395
12969W        W55960  31.904  12.851  11.176 -0.3133  0.0733 -0.1296
12970W        W55961   6.104  11.537   9.129 -0.2347  0.0142 -0.0718
12971W        W55962  25.256  28.496   7.809  0.2712 -0.0986 -0.0940
12972W        W55963  25.604   9.664  22.585  0.0360  0.3513 -0.0257
12973W        W55964  28.837  34.508   6.865  0.1571 -0.0701 -0.0189
12974W        W55965  21.577  18.425  27.052 -0.1735 -0.0252  0.3270
12975W        W55966  17.712   9.069  28.157  0.0590  0.1183 -0.1926
12976W        W55967   9.773  11.257  25.277 -0.1255  0.1565 -0.3902
12977W        W55968  16.938   9.647  27.216 -0.2208  0.3632  0.0184
12978W        W55969  18.781  31.927   4.972 -0.0628  0.0954  0.3538
12979W        W55970  19.918  16.542  29.206  0.0220  0.2602  0.1413
12980W        W55971  33.725  10.013   2.903  0.2614 -0.1540  0.1435
12981W        W55972  16.649  19.801   5.031 -0.5797  0.2319 -0.1121
12982W        W55973  13.474  33.956   5.712  0.2689 -0.1273  0.0188
12983W        W55974  14.309  10.729   0.205  0.1767  0.2067 -0.0473
12984W        W55975  28.849  33.964  27.133 -0.0991  0.0707  0.1844
12985W        W55976  14.699  13.826   6.846  0.0803 -0.0511  0.0499
12986W        W55977  24.357  25.982  23.620 -0.0936  0.0625  0.2100
12987W        W55978  10.148  30.502   1.232  0.1437 -0.0236  0.1292
12988W        W55979  32.095  24.949  22.889 -0.0990  0.1078 -0.3196
12989W        W55980  28.033  15.525  10.190 -0.2080  0.3172  0.1165
12990W        W55981  27.602  24.513  27.501  0.1918  0.2471 -0.0368
12991W        W55982  23.235  22.448   2.302  0.2293 -0.3061 -0.0446
12992W        W55983   6.970  23.742   2.275 -0.0970  0.0911  0.3335
12993W        W55984  16.027  19.669  27.098  0.2896 -0.3880 -0.1873
12994W        W55985  16.327  31.451   8.481  0.0019  0.2052 -0.0676
12995W        W55986   8.830  13.954   2.047  0.1886 -0.1778  0.0990
12996W        W55987  12.771  12.600   4.811 -0.0393  0.1694 -0.0656
12997W        W55988   6.307  21.458  23.461 -0.2208 -0.2586 -0.4098
12998W        W55989  18.001   2.257  21.273 -0.0943 -0.2286 -0.2299
12999W        W55990   7.481  20.434  26.082  0.1783 -0.0494  0.4694
13000W        W55991  11.944   3.508   8.777 -0.1238  0.2292 -0.0044
13001W        W55992  20.440  23.638   7.853 -0.2497 -0.2508  0.0423
13002W        W55993  24.056  33.030   3.003 -0.0140 -0.0610  0.0551
13003W        W55994  16.073  12.959   1.610 -0.0345  0.0356  0.4378
13004W        W55995   5.026  33.342  29.009  0.0707 -0.2420  0.3759
13005W        W55996  11.707   7.209   9.960  0.3189 -0.1541  0.2954
13006W        W55997  27.331  13.543   7.429  0.0010 -0.0716 -0.0879
13007W        W55998  23.873  20.732  24.130 -0.2645  0.0492  0.0304
13008W        W55999  24.620   1.191  27.545 -0.0223 -0.3139  0.4329
13009W        W56000   5.547   6.336   3.335  0.0560 -0.0996  0.0024
13010W        W56001  29.264  21.201  17.529  0.1695 -0.2204 -0.1435
13011W        W56002  24.989  29.770   4.485 -0.0738 -0.1190  0.0251
13012W        W56003  20.740  15.936   9.522 -0.2009  0.3360  0.1182
13013W        W56004   7.426  16.803   2.027 -0.1214 -0.0009 -0.1284
13014W        W56005  22.377  26.891  27.326  0.0655  0.4801  0.0578
13015W        W56006   6.656  11.731   7.633  0.0176  0.1810 -0.1722
13016W        W56007  13.239  20.671   7.911 -0.2330 -0.0715 -0.0416
13017W        W56008  11.762  32.922   2.349  0.1964 -0.3347 -0.0175
13018W        W56009  27.811  15.395  28.914 -0.0077 -0.2348  0.0074
13019W        W56010   3.678  11.309  26.651  0.1702  0.1341  0.0795
13020W        W56011  26.852  10.302  20.760  0.2345 -0.2593  0.2553
13021W        W56012  21.959  19.394  21.695  0.2803  0.1001  0.1354
13022W        W56013  26.496  17.815   2.067 -0.5267 -0.0330 -0.0449
13023W        W56014  14.292   7.894   6.573 -0.0099 -0.0344  0.0792
13024W        W56015  26.780  18.957   4.245  0.0725 -0.1632 -0.0969
13025W        W56016  10.532   9.150   3.965 -0.2348  0.1669 -0.3471
13026W        W56017  12.218   6.451   3.195 -0.1539 -0.0103 -0.0191
13027W        W56018   7.929  28.666  16.926 -0.0825  0.2751  0.0711
13028W        W56019  15.870  24.787   9.029  0.1527 -0.4616  0.4604
13029W        W56020  19.838  27.508   3.658 -0.0419  0.1255 -0.3294
13030W        W56021  32.655  17.052  10.883  0.2640 -0.1623 -0.0126
13031W        W56022  30.375  24.627  23.385 -0.2718  0.0791  0.2577
13032W        W56023  30.212  22.603   4.759  0.3138 -0.0998 -0.2653
13033W        W56024  25.352  23.247   1.145  0.0406 -0.2792  0.1066
13034W        W56025  17.850   3.510   2.272  0.1909 -0.0124 -0.0893
13035W        W56026  18.231  29.215  17.674 -0.0568 -0.0228 -0.1856
13036W        W56027  29.572  21.175   5.975 -0.4000  0.0237 -0.0753
13037W        W56028  17.736  21.617  25.250 -0.1313 -0.0948  0.2063
13038W        W56029  24.179   0.297  22.627  0.2994 -0.2480  0.0974
13039W        W56030   4.373  20.402   4.353  0.0142 -0.1266  0.2332
13040W        W56031  30.107  15.461  27.670  0.2811 -0.2075 -0.1157
13041W        W56032  18.960  12.962  19.252  0.1290 -0.0014 -0.0098
13042W        W56033  15.029  23.340   9.263 -0.4346  0.0008 -0.0584
13043W        W56034  31.409  15.893  10.052  0.1689 -0.1919 -0.2327
13044W        W56035  27.968  27.421   4.707 -0.1846  0.1737 -0.0264
13045W        W56036  27.972  20.098   0.771  0.0108 -0.1140 -0.1057
13046W        W56037   9.107  19.333   9.421 -0.3691 -0.0485  0.2180
13047W        W56038  22.055  10.593   2.030 -0.1334 -0.3244  0.0129
13048W        W56039  31.192  25.324   9.339  0.1432  0.2605  0.2835
13049W        W56040  17.753  15.875  24.825  0.1552  0.1237  0.4499
13050W        W56041  27.402  16.119   5.463  0.2576  0.5890 -0.0620
13051W        W56042  14.624   4.080   7.187 -0.1149  0.1287  0.3177
13052W        W56043  19.303  21.893   0.097 -0.0619 -0.3033 -0.0987
13053W        W56044   5.840  15.435  10.307  0.0338 -0.1183 -0.0957
13054W        W56045  24.527   9.855   2.337  0.2975  0.2553  0.1469
13055W        W56046   6.510  17.001   2.829  0.0626 -0.1376 -0.0179
13056W        W56047  18.297  17.786   6.955 -0.0888  0.2522  0.1370
13057W        W56048  15.057  14.533  24.107 -0.0865 -0.1367 -0.2889
13058W        W56049  29.548  20.338   6.942  0.2107  0.1848 -0.1619
13059W        W56050   8.344   7.794   1.237  0.1950 -0.3761  0.1749
13060W        W56051  31.438   9.564   0.188 -0.0476 -0.2464 -0.0722
13061W        W56052  22.838  15.649   6.896 -0.0198 -0.5279 -0.1436
13062W        W56053  32.847  32.818  28.739 -0.3255  0.2724 -0.2006
13063W        W56054  25.107   8.539   6.826  0.0389  0.2957 -0.2132
13064W        W56055  19.139  27.136  13.999 -0.1842  0.0082  0.1935
13065W        W56056  31.705  10.825  25.933  0.0722 -0.0307  0.1124
13066W        W56057  27.142  16.668  27.904  0.1914  0.1910 -0.3606
13067W        W56058  30.179  16.143  26.751 -0.1508  0.1745  0.0468
13068W        W56059  19.071  23.240   9.114 -0.3324  0.1984  0.0189
13069W        W56060  20.181  11.058  17.492  0.2206 -0.1937  0.0162
13070W        W56061  21.468  25.877   1.375 -0.0314  0.0487 -0.0068
13071W        W56062   8.220   9.565   7.217 -0.0151 -0.1295  0.0946
13072W        W56063  34.299  11.899   7.242  0.2655  0.3562 -0.2629
13073W        W56064  18.654   4.267  25.252  0.0283  0.0662  0.1131
13074W        W56065   0.461  28.073   8.598 -0.2349 -0.0508  0.0534
13075W        W56066  20.033  16.620   2.699  0.0119 -0.0882  0.1849
13076W        W56067  19.010  21.248   6.034 -0.1623 -0.2589 -0.2689
13077W        W56068  13.910  34.013   3.633 -0.1186  0.0725 -0.0200
13078W        W56069   5.313  16.826  26.952 -0.0673 -0.1276 -0.0456
13079W        W56070  16.126  12.379  13.851 -0.1980 -0.0017 -0.3535
13080W        W56071  23.690  15.224   2.266  0.0752  0.2498  0.2039
13081W        W56072  23.197  17.730   2.805 -0.1200 -0.1322  0.2666
13082W        W56073  15.757  12.720   1.879 -0.1000 -0.2612  0.1320
13083W        W56074  17.301  18.561  26.171 -0.0694  0.0773  0.0286
13084W        W56075   8.931  13.389   0.849  0.0351  0.3171  0.2545
13085W        W56076  14.234  10.109   0.937 -0.0558 -0.2843 -0.3270
13086W        W56077  34.557  27.663   6.995 -0.1482 -0.2511 -0.1563
13087W        W56078   6.307   4.073  24.503  0.1787  0.0047  0.2828
13088W        W56079  14.854   4.479  28.767  0.0174  0.3583  0.0697
13089W        W56080  10.622   3.702   6.753  0.1383  0.0035 -0.2814
13090W        W56081   7.144  11.532   6.296 -0.0476  0.2322 -0.2928
13091W        W56082  28.769   5.048   1.009  0.3522  0.2801 -0.3094
13092W        W56083  17.827  26.148   8.481  0.1258  0.1898 -0.2846
13093W        W56084  15.301  14.044   8.905 -0.1850 -0.0024 -0.0448
13094W        W56085  15.644   8.426   6.067  0.1283  0.3704 -0.0587
13095W        W56086  29.356  13.318   9.781 -0.1033 -0.1571 -0.0149
13096W        W56087  22.570  28.936   6.395  0.2123 -0.0827  0.0260
13097W        W56088   2.915  17.353  19.261 -0.0776  0.1961 -0.1963
13098W        W56089  33.891  16.496   3.199  0.0705 -0.0848 -0.1415
13099W        W56090  16.852   8.602  10.669  0.1554  0.1375  0.1923
13100W        W56091  29.568  30.363  25.222 -0.1829  0.2048 -0.2249
13101W        W56092  19.506   2.680  27.129  0.2269  0.1109 -0.1216
13102W        W56093  13.795  16.704  21.406  0.2210  0.0279  0.0366
13103W        W56094  22.920  21.573  27.935 -0.1918  0.0424  0.1198
13104W        W56095  11.445  19.701  21.708 -0.0643 -0.2226 -0.0562
13105W        W56096  14.193  18.079  27.059 -0.2013 -0.0270 -0.1062
13106W        W56097  18.168  17.648   3.836 -0.1089  0.2394  0.0558
13107W        W56098  23.651  17.695  24.747 -0.3199 -0.1855 -0.0083
13108W        W56099  33.346  27.504  28.897  0.0703 -0.0864 -0.1986
13109W        W56100  11.198   1.787   5.096  0.1267  0.4263 -0.1683
13110W        W56101   8.794  18.212  17.595  0.3167  0.0450 -0.2289
13111W        W56102  10.398  14.817  17.476 -0.1671  0.2596  0.3625
13112W        W56103  10.337  14.196   8.369  0.3650 -0.1155  0.1576
13113W        W56104  12.811  13.304  10.289  0.1153  0.3768 -0.5247
13114W        W56105  34.263  11.667  22.795  0.0490  0.2757  0.0106
13115W        W56106   5.255  18.114   1.166  0.3896  0.2706  0.2927
13116W        W56107  17.409  20.426   4.109 -0.0303  0.2731  0.0344
13117W        W56108  24.224  16.892   7.369 -0.2079  0.0396 -0.2502
13118W        W56109  24.221  12.986   0.186  0.2178  0.2301 -0.1118
13119W        W56110   7.621  18.231  10.105 -0.2316 -0.0529  0.0462
13120W        W56111  19.594  13.656   4.408  0.5462  0.0431  0.3455
13121W        W56112  18.283  12.082  26.339 -0.0599 -0.2296  0.0017
13122W        W56113  20.894  23.912  21.347  0.0805  0.0203  0.0015
13123W        W56114  31.423  14.738   6.421 -0.1481  0.0924 -0.0741
13124W        W56115  22.920   8.366   7.676  0.0087 -0.1074  0.1295
13125W        W56116   6.379  12.722  16.966  0.1712 -0.1285  0.3744
13126W        W56117  12.004   9.205   9.204 -0.0748 -0.2785  0.1262
13127W        W56118   4.524  17.465   4.991 -0.2808  0.1899  0.2254
13128W        W56119  30.478  21.839   7.389 -0.0171 -0.3375  0.3974
13129W        W56120  15.560  26.196   2.900  0.0619  0.0756  0.3564
13130W        W56121  21.804  23.605   3.088  0.0939 -0.1527 -0.1883
13131W        W56122  26.561  25.763  25.952  0.1912  0.2005 -0.2937
13132W        W56123   1.460  18.973  26.188 -0.1435  0.2422  0.1638
13133W        W56124  13.525  11.716   1.303  0.0373 -0.4676 -0.1994
13134W        W56125  15.058  15.877   9.464 -0.4462  0.0377  0.0310
13135W        W56126  19.034   1.969  22.065 -0.0425  0.1593  0.1601
13136W        W56127  16.128  10.360   8.495 -0.0556  0.0462 -0.2227
13137W        W56128  15.349  12.491   2.651 -0.0269  0.2680  0.2046
13138W        W56129  20.372   5.099  22.988 -0.3316 -0.1152  0.3015
13139W        W56130  19.671   2.920  21.747 -0.0444 -0.0353  0.0256
13140W        W56131  24.276   2.623  16.042 -0.3009  0.1150  0.1204
13141W        W56132  33.832  14.532  20.934  0.2824  0.0451 -0.3471
13142W        W56133  29.850  19.340  14.128  0.0353 -0.1344  0.1508
13143W        W56134  14.825  21.566  13.005 -0.2787  0.0613 -0.0624
13144W        W56135   8.743  22.726   8.920  0.1629  0.1294 -0.1974
13145W        W56136  19.305  14.145  24.398  0.0305 -0.0046 -0.3440
13146W        W56137  17.628  14.587  24.720 -0.2916  0.1377 -0.0351
13147W        W56138   8.224  12.509   3.880  0.1712  0.0920 -0.2549
13148W        W56139  20.082  14.714   6.147  0.1632  0.0668 -0.1020
13149W        W56140  34.479  13.514  23.307  0.2515  0.0209  0.1064
13150W        W56141  19.669  19.747  27.161  0.1058 -0.2497  0.1056
13151W        W56142  23.203  17.333   8.221 -0.2236 -0.0257  0.1176
13152W        W56143  21.760  12.895  27.185  0.1730  0.1302 -0.1294
13153W        W56144   5.820   9.038  11.195 -0.1626  0.1064 -0.1634
13154W        W56145   7.397  17.985   8.939  0.2409  0.1831  0.1641
13155W        W56146  24.122  25.732   4.565 -0.2169  0.1319 -0.3756
13156W        W56147  28.348  26.219  23.301 -0.0485  0.0682 -0.0473
13157W        W56148  20.795  18.768   3.752  0.0245  0.0498 -0.4417
13158W        W56149   5.152  24.959   8.894  0.3429  0.0255  0.0214
13159W        W56150  13.133  11.240  10.132 -0.1520 -0.2991 -0.1020
13160W        W56151  18.173  30.744   3.151 -0.1004 -0.0029  0.0255
13161W        W56152   4.129  17.362   2.387 -0.0172  0.0389 -0.3672
13162W        W56153  11.354   7.625   6.956  0.1483 -0.3145  0.0953
13163W        W56154  21.737  31.546   0.727  0.2541 -0.2680  0.2671
13164W        W56155   1.794  19.949  27.465  0.0246 -0.0912  0.1622
13165W        W56156  17.849  15.824   2.970 -0.1703 -0.2944  0.2921
13166W        W56157  27.389  11.810   7.415 -0.1085  0.0230  0.5391
13167W        W56158   4.036  18.179  29.010 -0.3011 -0.1971 -0.2586
13168W        W56159  12.959  23.296  23.683 -0.1464  0.0837 -0.0956
13169W        W56160  27.666  32.732  22.161 -0.1201 -0.0894  0.0893
13170W        W56161  19.872   4.715   3.493 -0.0401  0.1447 -0.0426
13171W        W56162  25.408  12.511   5.611  0.1281  0.0184  0.0494
13172W        W56163  31.927  15.022  19.977  0.3597 -0.1831  0.0727
13173W        W56164  15.221  18.189  24.219  0.1955  0.1358 -0.1334
13174W        W56165  13.559  20.283   5.351 -0.0753 -0.0273  0.3073
13175W        W56166   9.944  25.741   9.361 -0.0452  0.0651 -0.4265
13176W        W56167  15.679  10.752   3.710 -0.2011  0.1671  0.1508
13177W        W56168  18.062   8.006  27.702  0.2324  0.3520  0.1071
13178W        W56169  19.482  22.337  29.199 -0.1424  0.4740  0.1248
13179W        W56170  11.777   6.721   8.261 -0.2672 -0.1864 -0.1083
13180W        W56171  21.693  27.325   6.574  0.0051  0.0949 -0.2660
13181W        W56172  23.102  18.336  27.910 -0.2136  0.3880  0.2344
13182W        W56173  17.501  21.629   1.084  0.0439  0.0585 -0.1279
13183W        W56174  13.410  13.665   2.700  0.2086 -0.2611  0.2231
13184W        W56175  19.241  21.007  26.800  0.2087 -0.0507 -0.3632
13185W        W56176  34.633  12.242   2.237  0.1328  0.2864 -0.2596
13186W        W56177  33.881  12.942   3.499 -0.0555 -0.0810 -0.0046
13187W        W56178   1.042  26.018  19.030 -0.2177 -0.1586 -0.1013
13188W        W56179  34.234  21.118  27.377 -0.2028  0.1977 -0.1351
13189W        W56180  17.880   6.068   1.959  0.1153 -0.2200  0.1624
13190W        W56181   6.940  11.381   7.325  0.4999  0.1279 -0.2393
13191W        W56182   5.521  20.633  28.868 -0.0442 -0.1053  0.0688
13192W        W56183   2.585  33.488  20.776  0.0341 -0.0253  0.3042
13193W        W56184  10.712  28.056   9.909 -0.0520  0.0444  0.0683
13194W        W56185  17.493  14.064  18.799  0.0599  0.1873 -0.4114
13195W        W56186  27.461   7.398  22.842  0.0807 -0.0291  0.0216
13196W        W56187  12.670  15.162   8.858 -0.3332  0.2887  0.0514
13197W        W56188  13.833  16.807   7.249 -0.1099 -0.2651 -0.3263
13198W        W56189  16.633  34.523  26.424  0.0257 -0.1204  0.1395
13199W        W56190   0.174  17.691  26.407 -0.0177  0.0188  0.1815
13200W        W56191  10.610  13.001   7.693 -0.0727 -0.0354  0.1623
13201W        W56192  25.784  16.276   9.677  0.2931  0.1558  0.1147
13202W        W56193  23.981  23.443   8.678  0.0022  0.0365 -0.1709
13203W        W56194  23.786   1.978   7.909 -0.3159  0.2022  0.1307
13204W        W56195  28.632  27.958  28.815 -0.1660 -0.3887  0.2437
13205W        W56196   7.190   6.683   5.439 -0.3144 -0.2399  0.2273
13206W        W56197  29.046  22.660   4.108 -0.2955  0.0867  0.1929
13207W        W56198  18.749  10.694  19.078  0.0421  0.0228 -0.0784
13208W        W56199  18.148  26.410  23.931 -0.1581  0.0114 -0.2633
13209W        W56200  20.568  13.712  24.751 -0.2906  0.1139 -0.1427
13210W        W56201  18.594  32.681   5.109  0.2324 -0.0926  0.3053
13211W        W56202  15.995   6.960   8.308 -0.1111 -0.0376  0.2685
13212W        W56203  33.089   8.493   9.934 -0.0205  0.0497  0.1209
13213W        W56204  27.085  16.074  17.388 -0.1719 -0.0069 -0.1263
13214W        W56205  25.351   0.872   6.625  0.2217  0.2321  0.1655
13215W        W56206  15.295  20.466   9.041  0.1851  0.1269  0.0250
13216W        W56207  13.384  24.710   7.550 -0.0700 -0.0779  0.0972
13217W        W56208  14.211  23.459   4.387 -0.1639 -0.1878 -0.0650
13218W        W56209   8.433   4.802  28.591  0.0943  0.2792  0.1291
13219W        W56210  10.464  26.022   3.076 -0.0856 -0.0266 -0.0199
13220W        W56211   4.815  20.936   4.970  0.1072  0.1815 -0.4010
13221W        W56212  11.691  15.987   8.583  0.3531  0.1541  0.1744
13222W        W56213  32.528   7.260  18.640 -0.1212  0.0376 -0.0210
13223W        W56214  18.708  24.311  26.766  0.3186  0.2762  0.0834
13224W        W56215  14.899  21.382   5.662  0.3666 -0.0806  0.1872
13225W        W56216  26.651  19.706  23.270  0.0831 -0.0118 -0.1003
13226W        W56217  25.705  18.637  29.164  0.3185  0.1236  0.0179
13227W        W56218  15.391   1.913   8.628 -0.3320 -0.0980  0.2402
13228W        W56219  16.170  12.163   5.170  0.0143 -0.3033 -0.3125
13229W        W56220  22.566  15.882  23.658 -0.0175 -0.3122  0.2407
13230W        W56221  12.163  18.375   1.300  0.0658  0.2759 -0.2074
13231W        W56222  18.667  12.601   7.845  0.0894  0.0018 -0.2728
13232W        W56223  14.033   6.309  23.237  0.0962 -0.1320 -0.3623
13233W        W56224  21.431   6.934  23.014 -0.1380  0.0884  0.1449
13234W        W56225  16.596  18.214  28.979 -0.1443 -0.0049  0.1582
13235W        W56226   8.426  15.172   5.887  0.3171  0.1941 -0.3750
13236W        W56227   4.752  17.053   5.405  0.1028  0.2437 -0.2797
13237W        W56228  22.437  25.326   0.479  0.0077  0.0496 -0.0203
13238W        W56229  22.567  13.187   0.128  0.1127  0.0414  0.2829
13239W        W56230  13.874  19.909   5.146 -0.0422  0.1266  0.1297
13240W        W56231  10.452  22.648  26.817  0.0181  0.1843  0.1579
13241W        W56232   9.534   9.071  10.037 -0.0608  0.0015 -0.2001
13242W        W56233  10.457  21.922   1.599 -0.0037  0.2081  0.0372
13243W        W56234  22.432  31.892  27.971 -0.2663  0.0926  0.2059
13244W        W56235  15.694  26.575  25.750 -0.0195 -0.1859  0.0992
13245W        W56236  30.687  11.967   8.218 -0.3727  0.0890 -0.1380
13246W        W56237  14.502  19.033  24.447 -0.1612  0.0904  0.1784
13247W        W56238  23.774  23.007   8.853 -0.2567 -0.0026  0.2328
13248W        W56239   2.163  19.517   7.970  0.1125  0.0537  0.1289
13249W        W56240  17.269  18.358   7.948  0.0703  0.1674  0.4685
13250W        W56241  24.797  13.757   6.773 -0.2594 -0.2043 -0.0493
13251W        W56242   0.712  21.027  20.387 -0.1996 -0.0447 -0.4204
13252W        W56243  12.298  26.431  22.910  0.1143 -0.4173  0.1647
13253W        W56244  12.039   4.884  24.311 -0.0907 -0.1688  0.1269
13254W        W56245  16.679   6.592   6.309 -0.2014  0.2231 -0.0734
13255W        W56246  18.984  10.553   5.991  0.2252 -0.1214 -0.3309
13256W        W56247  32.874  32.188  22.056 -0.0871  0.3167 -0.1280
13257W        W56248  21.602  15.701  24.846 -0.1458  0.0886  0.0499
13258W        W56249  32.533  12.814   9.108 -0.1799 -0.2206  0.0829
13259W        W56250  24.956  16.746   8.234  0.0503 -0.2383  0.0123
13260W        W56251  34.267   4.847   5.929 -0.1306 -0.1801 -0.0979
13261W        W56252  22.301  33.277   7.588 -0.0806 -0.0719 -0.1709
13262W        W56253  22.253   6.143   3.520 -0.3705  0.2738  0.2275
13263W        W56254   3.697  21.790  10.267 -0.1940  0.0891 -0.2612
13264W        W56255   2.447   9.882   5.712 -0.3056 -0.0193  0.1766
13265W        W56256  11.063  16.240  23.656 -0.0175  0.2412  0.0419
13266W        W56257  25.203  25.233  15.800  0.0979 -0.2209 -0.0692
13267W        W56258  12.539   0.791   5.600  0.5367  0.2409 -0.0873
13268W        W56259  20.170  18.707   1.451 -0.3570  0.0395 -0.2093
13269W        W56260  12.712  25.492   1.574 -0.0170 -0.0226  0.2545
13270W        W56261   8.494   7.317   7.515  0.4457  0.0132 -0.1387
13271W        W56262  12.006  19.266  26.421 -0.0474 -0.3019  0.0388
13272W        W56263  34.702   8.901   5.762 -0.2492 -0.0447  0.2045
13273W        W56264  28.902  13.399  10.054  0.1819 -0.0933 -0.0783
13274W        W56265   1.641   8.942   3.366 -0.1823  0.1087 -0.0630
13275W        W56266  11.605  23.429   8.691 -0.0586 -0.1091 -0.0096
13276W        W56267  13.943  13.964   1.168  0.0352  0.0352 -0.2493
13277W        W56268  15.226  18.615   8.831 -0.4592 -0.1240 -0.3910
13278W        W56269  15.046  12.170  23.021  0.0122 -0.0735  0.2922
13279W        W56270   8.438  20.127   2.239  0.0706  0.1109  0.2968
13280W        W56271  28.936   7.178  28.069  0.0749 -0.2374 -0.1604
13281W        W56272   9.590  13.935  29.166  0.1034 -0.3264 -0.0512
13282W        W56273  14.973   4.807  29.114  0.1527 -0.0837  0.1002
13283W        W56274  21.199  34.081   0.301  0.0787  0.4936  0.1925
13284W        W56275  15.203  17.860   2.710  0.1329  0.1425 -0.1360
13285W        W56276  12.680  15.456  27.857 -0.2213 -0.0172  0.4198
13286W        W56277  19.821  18.369   1.187 -0.2176  0.1156 -0.0523
13287W        W56278   5.369  15.327  26.148  0.2882 -0.1166 -0.0283
13288W        W56279  29.999  31.206   0.578 -0.1180  0.3004  0.3949
13289W        W56280  30.541  28.875   0.355 -0.1498  0.2169  0.2578
13290W        W56281  29.838  16.343   6.581  0.0989 -0.0933 -0.0327
13291W        W56282  27.087  21.004  26.474 -0.2028  0.0850 -0.1903
13292W        W56283  13.824  12.751  29.013  0.0364  0.1522  0.1134
13293W        W56284  34.354   3.276   9.607  0.1036 -0.1908  0.0967
13294W        W56285  24.368  11.509  10.188  0.2440  0.1543 -0.1044
13295W        W56286  12.076   2.088   7.089  0.2048 -0.0098 -0.0915
13296W        W56287  21.524  10.300   6.959 -0.0386 -0.0127 -0.0094
13297W        W56288  16.566  17.396   1.366 -0.1471  0.0287  0.0058
13298W        W56289  10.852  19.973   7.784  0.0008  0.1226 -0.0122
13299W        W56290  15.903   5.529   9.560  0.0991 -0.0441  0.0919
13300W        W56291  21.507  26.717  24.479 -0.2481 -0.0394 -0.1745
13301W        W56292  10.466  15.296   2.379 -0.2923  0.0810 -0.1465
13302W        W56293  24.938   4.023  26.242 -0.0209  0.3310  0.2124
13303W        W56294  23.374  22.217   3.502  0.1595 -0.4707 -0.2254
13304W        W56295  18.013  10.686   1.355  0.1116 -0.4965 -0.1131
13305W        W56296  18.117   9.173  28.565 -0.2234  0.1695  0.1544
13306W        W56297  33.840  21.736   5.926  0.2108 -0.0405  0.4895
13307W        W56298   7.232  18.862  19.750  0.2106  0.0018 -0.0321
13308W        W56299  23.775  18.023   8.455  0.0723 -0.0061 -0.0264
13309W        W56300  21.368  18.666  18.904 -0.5857 -0.2681  0.0504
13310W        W56301   1.082  10.884   6.867 -0.0188  0.0276  0.4178
13311W        W56302   7.735  14.173   6.103  0.0061  0.0625  0.0938
13312W        W56303  21.766  18.711   6.612 -0.0768 -0.2652  0.1743
13313W        W56304  32.668  22.683   1.345 -0.3053  0.0467  0.3213
13314W        W56305  21.516  11.449  27.351 -0.1343 -0.0220  0.2825
13315W        W56306  32.025   1.974  25.953  0.2937  0.2000  0.3423
13316W        W56307  12.205   6.523  22.261 -0.4511 -0.4040  0.0254
13317W        W56308  24.322  34.789   4.170 -0.1202  0.0724  0.1877
13318W        W56309  22.119  15.764  22.387 -0.0331 -0.2917 -0.0861
13319W        W56310   5.265  29.291   4.987 -0.0282  0.0728  0.2515
13320W        W56311  32.464  13.164  28.075  0.2413 -0.3031  0.1949
13321W        W56312  19.715  34.599   9.261  0.0226  0.0875 -0.5358
13322W        W56313  12.353  11.076   9.395 -0.2621  0.0713 -0.2102
13323W        W56314  16.090  17.427  14.619 -0.2997  0.0943  0.0374
13324W        W56315  14.240  14.313   9.031  0.2171 -0.0533  0.0954
13325W        W56316  20.323   8.878   5.805  0.1135  0.0415 -0.2090
13326W        W56317   3.778   1.688   2.247 -0.0944  0.0387 -0.0996
13327W        W56318  14.001  30.406   9.442 -0.0390 -0.1719 -0.1929
13328W        W56319   7.949  18.268  29.241 -0.2013 -0.1174 -0.0309
13329W        W56320  24.355   9.932   6.732  0.0861 -0.1857 -0.0955
13330W        W56321  13.050  10.015  10.009 -0.0687 -0.0858  0.2366
13331W        W56322   4.203   9.238   6.000 -0.1065  0.1943 -0.4599
13332W        W56323  12.157  10.184   2.577 -0.0760  0.0491  0.1129
13333W        W56324  26.834  29.854   5.175 -0.1844 -0.0978  0.0594
13334W        W56325  19.289  19.633   7.521  0.0540  0.2138  0.1089
13335W        W56326  22.059  19.205  14.064 -0.2902 -0.2204 -0.3925
13336W        W56327  25.143  25.906  26.641  0.0081 -0.4608  0.0127
13337W        W56328  32.582   8.530   9.586  0.1112  0.0206  0.2012
13338W        W56329   2.626   8.978   5.091  0.1139 -0.0026 -0.0443
13339W        W56330  18.020  25.451   2.893  0.1790 -0.0892 -0.0039
13340W        W56331   6.710  24.351  26.649 -0.1613 -0.0130 -0.0610
13341W        W56332  14.490  22.482  28.976 -0.1291  0.4770 -0.2483
13342W        W56333  25.496  33.289   4.431  0.0869 -0.1751 -0.2979
13343W        W56334  18.345  17.221   6.123 -0.1349  0.0286 -0.0558
13344W        W56335  31.979  24.588   6.875  0.0547  0.0327  0.3711
13345W        W56336  26.798  18.153   6.311  0.0561 -0.0777  0.0697
13346W        W56337  30.804  19.401   5.704  0.1660 -0.2384  0.1531
13347W        W56338  25.904   7.336   9.413  0.2100  0.1105  0.0917
13348W        W56339  12.288  19.017   3.945 -0.0455 -0.0532  0.0664
13349W        W56340  15.815  10.674  27.441 -0.4403 -0.4187 -0.1569
13350W        W56341   9.497  16.186   4.223 -0.2508 -0.0474  0.2737
13351W        W56342   3.409  15.774   0.155  0.3719 -0.0792  0.6024
13352W        W56343  11.320  12.586  19.478 -0.1682  0.0329  0.1957
13353W        W56344   0.577  19.995   4.445 -0.3096  0.1042 -0.1909
13354W        W56345  17.467  20.645   6.797  0.0143  0.1743 -0.0076
13355W        W56346  19.291  23.639   6.628  0.1229  0.1914 -0.0569
13356W        W56347   5.456  18.806  28.406 -0.1411 -0.0611  0.3216
13357W        W56348  13.559  26.994   0.656  0.2753  0.1085 -0.2134
13358W        W56349  15.472  24.881   9.836  0.0705 -0.1003 -0.2338
13359W        W56350  27.674   1.420   5.814 -0.1999  0.2375  0.1739
13360W        W56351   3.657  27.339   3.496 -0.0151  0.2359 -0.3578
13361W        W56352  18.034   9.438   2.899  0.2794  0.1634 -0.2110
13362W        W56353  17.621  17.113   8.183  0.1232 -0.0223  0.2152
13363W        W56354  32.586  23.498  28.884  0.0394 -0.3061 -0.1457
13364W        W56355   7.646  16.568   7.313 -0.1873 -0.0757 -0.0374
13365W        W56356  28.217   0.579  14.085  0.1346 -0.1028 -0.0998
13366W        W56357   5.086   1.876  11.077  0.0144  0.0063 -0.1948
13367W        W56358  14.318  20.979   5.747 -0.1896  0.0734 -0.1446
13368W        W56359  26.916  20.087   8.965 -0.2617 -0.1220  0.0595
13369W        W56360   2.425  19.559   2.113 -0.0608 -0.2304 -0.1516
13370W        W56361  32.047   1.163   5.731  0.2687 -0.1488 -0.0034
13371W        W56362   2.924  32.541   5.979  0.3402 -0.0512  0.1757
13372W        W56363  21.483  20.408   6.760  0.1006 -0.3245  0.0694
13373W        W56364  18.846  23.739   5.993 -0.0240  0.0457 -0.0654
13374W        W56365   3.675   7.227   2.408  0.3880  0.2543 -0.2604
13375W        W56366  25.596  15.828  28.682 -0.2378  0.2856  0.0704
13376W        W56367  25.219  17.100   3.636 -0.2298 -0.2234  0.3162
13377W        W56368   9.664  11.971   7.193 -0.2083 -0.0833  0.1222
13378W        W56369  22.501  30.558   3.719  0.1196  0.0034  0.3061
13379W        W56370  12.153   9.844  10.093 -0.0010  0.3195  0.2322
13380W        W56371   5.617  12.037  15.477 -0.0353 -0.0890 -0.1007
13381W        W56372  13.304  11.645   3.015  0.4231 -0.1652  0.2198
13382W        W56373  10.037  11.521  10.937 -0.1174 -0.0958  0.0345
13383W        W56374  13.371   9.475   6.575 -0.0629  0.1422 -0.4500
13384W        W56375  25.765  14.386   1.889 -0.0153 -0.0182 -0.1118
13385W        W56376  16.178  17.325   2.924  0.1528 -0.2609  0.1179
13386W        W56377   8.816   7.615   5.043 -0.1420  0.2658  0.0865
13387W        W56378  13.190  32.564  21.011 -0.0046 -0.0746 -0.2040
13388W        W56379  14.391  10.423  28.196  0.1231 -0.0158 -0.4119
13389W        W56380  12.638  16.656   9.094  0.0945 -0.0556 -0.1697
13390W        W56381  29.887  15.848   8.926 -0.0363  0.1144 -0.1054
13391W        W56382  19.476  11.651   4.626 -0.1116  0.1530  0.3331
13392W        W56383   3.584  10.452   1.301 -0.1300  0.0760  0.1230
13393W        W56384   7.321  34.004   9.074  0.1060 -0.0802 -0.1001
13394W        W56385   8.688  28.227   9.629 -0.0471  0.1112 -0.1190
13395W        W56386  21.644  16.511  24.095 -0.1141  0.0981  0.1442
13396W        W56387  31.411  11.893   3.474  0.2971  0.0443  0.0593
13397W        W56388  20.619   5.908   5.184  0.1537 -0.1479  0.1767
13398W        W56389   9.230  18.668   1.155 -0.1172 -0.1437  0.0226
13399W        W56390  27.372  27.673  25.305  0.0765 -0.1649 -0.1275
13400W        W56391  19.511  33.298   3.394  0.0392 -0.0068 -0.0144
13401W        W56392  29.412   2.523   7.723  0.0303 -0.1254  0.1071
13402W        W56393  10.592  22.497   7.988  0.0199  0.2017 -0.1014
13403W        W56394  17.086  25.152  28.251 -0.0561 -0.0077 -0.1643
13404W        W56395  25.676   3.821   2.019 -0.0181 -0.0294  0.0717
13405W        W56396  11.679  14.828   9.507  0.0501  0.1414 -0.0139
13406W        W56397  24.023  11.940   9.378 -0.0681 -0.3344 -0.0099
13407W        W56398  14.386  19.626  25.803  0.1009 -0.0634  0.0804
13408W        W56399  19.731  14.940  23.709 -0.0040  0.1574 -0.2052
13409W        W56400  29.885  13.604   8.000  0.1953 -0.2698  0.0970
13410W        W56401  20.664  26.424   9.066 -0.0252  0.7099 -0.2514
13411W        W56402  31.734  17.596  10.874 -0.1383 -0.1012  0.4407
13412W        W56403  22.322  11.340   1.294 -0.3078  0.0919 -0.1172
13413W        W56404  32.243  26.544  26.467  0.1427  0.1470 -0.0366
13414W        W56405  26.256   4.315  23.228 -0.4911 -0.2562 -0.0984
13415W        W56406  21.982  18.638   8.968 -0.0348  0.0188  0.1755
13416W        W56407  33.857  18.568   4.621  0.3884 -0.1720  0.2368
13417W        W56408  21.244  20.642  26.644 -0.1539  0.0625 -0.2144
13418W        W56409   8.404  33.296  16.115  0.1008 -0.0475  0.3325
13419W        W56410   3.571  23.280   7.575 -0.0001 -0.1331 -0.4456
13420W        W56411  11.527  10.885   9.454 -0.1249 -0.0610 -0.0495
13421W        W56412   5.774  24.897   0.010 -0.0513 -0.2261 -0.1137
13422W        W56413  21.052  34.135  25.772 -0.1705 -0.2841 -0.2685
13423W        W56414  10.135  12.400   3.932  0.1389  0.0154  0.2450
13424W        W56415  18.273  13.074   9.653 -0.1451  0.2264  0.2671
13425W        W56416  11.840   9.695  27.826 -0.2225 -0.0993 -0.4773
13426W        W56417  20.598   3.861  27.019 -0.0249 -0.0998  0.1722
13427W        W56418  23.338   8.552   7.471 -0.0290  0.1628 -0.1612
13428W        W56419  25.880   1.580   7.749 -0.1674  0.1241  0.3211
13429W        W56420   8.255  23.227   9.602  0.0284 -0.1819 -0.0718
13430W        W56421  19.367  24.138   9.687  0.2325  0.0215 -0.0163
13431W        W56422  12.325  31.146  10.956 -0.1392  0.1768 -0.2171
13432W        W56423  34.003  17.271  10.972 -0.1305 -0.2212  0.3045
13433W        W56424  14.851  23.242   7.802 -0.1457 -0.0587 -0.1429
13434W        W56425   7.803   5.149  20.384 -0.3259  0.2611  0.2653
13435W        W56426  15.456  33.375   5.618 -0.1618  0.1925  0.0193
13436W        W56427  18.269   8.427  27.938 -0.2016 -0.2701  0.1418
13437W        W56428   8.897  21.805  10.004  0.2291  0.2698 -0.5069
13438W        W56429  10.171  16.383   8.074  0.1020 -0.0061  0.3097
13439W        W56430  10.821  34.705   2.953  0.0454 -0.0652  0.1445
13440W        W56431  11.268  11.998   5.164  0.0782 -0.0954  0.0378
13441W        W56432   9.253  23.880   4.243 -0.1536  0.0436 -0.0037
13442W        W56433  26.470  10.908  18.538  0.2318 -0.0505 -0.0029
13443W        W56434   3.344  17.843  10.761 -0.0937  0.1975  0.0741
13444W        W56435  19.353  29.753   8.386  0.1576  0.3004 -0.0275
13445W        W56436   3.484  18.250  11.457  0.3217 -0.1905 -0.1074
13446W        W56437  21.487  27.491   3.756  0.1020  0.0957  0.0118
13447W        W56438  19.908  13.118  23.628 -0.6331 -0.0126 -0.0654
13448W        W56439  10.736  20.387   6.481  0.0228  0.1133  0.2180
13449W        W56440  11.996  10.377  24.641 -0.3954  0.3025 -0.1181
13450W        W56441  23.650  12.021  26.981 -0.2899  0.1569 -0.3179
13451W        W56442  11.673  18.712  21.876 -0.0519 -0.4918  0.0593
13452W        W56443  17.926  31.183  27.151  0.1925 -0.0771  0.3883
13453W        W56444  24.861  20.488   7.801  0.2455  0.0466  0.0523
13454W        W56445  27.966  24.566  22.559  0.0695  0.0178 -0.1138
13455W        W56446   0.525   9.528  24.529  0.1275 -0.0855 -0.0097
13456W        W56447   3.138   7.104  10.947 -0.1294 -0.0478 -0.3019
13457W        W56448  10.651  17.716   9.545  0.1007 -0.2326 -0.0469
13458W        W56449  18.580   3.787   0.917 -0.0064 -0.2139  0.0980
13459W        W56450  12.021  19.894   6.973  0.1604  0.0658  0.1366
13460W        W56451  10.225  25.717  18.769 -0.0469 -0.1772 -0.0729
13461W        W56452  22.312  20.014  26.248  0.2482  0.2205 -0.2259
13462W        W56453  31.708  21.577   5.249  0.0670 -0.1419 -0.1770
13463W        W56454  26.703  33.786  16.747  0.1160  0.3058 -0.3597
13464W        W56455  19.598  13.786   8.867  0.0437 -0.3522 -0.0474
13465W        W56456  28.370  19.290  10.128 -0.0523  0.1142  0.0252
13466W        W56457  24.298  18.668   4.588 -0.0921 -0.0949  0.0605
13467W        W56458  12.889  26.644   0.263  0.3671  0.0613  0.1656
13468W        W56459  25.252  17.874  24.643 -0.0737  0.0597 -0.2314
13469W        W56460   5.379  17.736  11.861 -0.1891 -0.3702 -0.1525
13470W        W56461  19.209   5.573   1.339  0.1338 -0.0295  0.1160
13471W        W56462  11.956  30.317   0.412  0.0392  0.0778 -0.0793
13472W        W56463   5.874  24.645  27.901  0.1160  0.0813  0.0723
13473W        W56464  19.585  20.289  26.402  0.0426 -0.0249  0.0608
13474W        W56465  21.593  23.650   0.885 -0.1572  0.1580 -0.0873
13475W        W56466  24.335   0.951   0.365 -0.0146  0.0334 -0.3033
13476W        W56467  14.522  16.454  23.227 -0.0727 -0.0533  0.0447
13477W        W56468  22.926  13.679  26.847 -0.1621  0.2501  0.2485
13478W        W56469  16.129  18.399  23.724  0.0742  0.1652 -0.1330
13479W        W56470  13.673  13.726  27.012  0.1131  0.1088 -0.5336
13480W        W56471  10.862  17.613   2.118  0.0893  0.2086 -0.1243
13481W        W56472   8.907  32.379  25.731 -0.0512  0.1677 -0.2010
13482W        W56473   9.816  17.503  26.195 -0.0442  0.0896  0.1283
13483W        W56474  18.542  24.363   8.401  0.2111  0.0574  0.0491
13484W        W56475  13.286  12.053   2.187  0.0756  0.0247 -0.1628
13485W        W56476   3.993   8.525  22.852 -0.3527 -0.3170 -0.4683
13486W        W56477  22.400  16.596   7.689  0.1217  0.0184 -0.3655
13487W        W56478   6.420  27.484   0.392  0.1766 -0.2353 -0.1308
13488W        W56479  23.274  17.660   5.048 -0.1297 -0.1045  0.2792
13489W        W56480  12.201  13.962   7.128 -0.2522 -0.0882 -0.1282
13490W        W56481  31.149   6.700   3.011  0.2956  0.2794  0.0926
13491W        W56482  15.140  25.558   9.293  0.2994  0.0837 -0.1935
13492W        W56483  24.709  11.405  28.071 -0.1302 -0.1052  0.0766
13493W        W56484  27.147  20.127   6.728  0.1076 -0.0436 -0.1448
13494W        W56485   5.845   0.742   5.055  0.0829  0.2446  0.3435
13495W        W56486   8.509  24.139   9.253  0.0322  0.2613  0.0838
13496W        W56487  11.941  19.896   4.796  0.0068 -0.1572 -0.0574
13497W        W56488  34.372  19.232   1.751 -0.2288 -0.0408  0.1557
13498W        W56489  11.735  12.348   9.820 -0.2621  0.1765 -0.1429
13499W        W56490  22.576  16.775  25.963 -0.0890 -0.2851  0.2248
13500W        W56491  18.362   2.342  25.053  0.1208 -0.1154  0.1306
13501W        W56492  31.983  15.517   4.900  0.2342 -0.0138 -0.2242
13502W        W56493  10.329  17.137   8.703 -0.0179 -0.1415  0.4340
13503W        W56494  15.953  18.828   9.270 -0.1300  0.2061  0.0378
13504W        W56495  12.635  21.259   7.538 -0.0100  0.2706  0.2883
13505W        W56496  13.568  26.963   3.629 -0.0819 -0.1031  0.0785
13506W        W56497   9.223  18.351   5.295  0.0490 -0.0605  0.1316
13507W        W56498  15.807  12.965  26.210  0.1502  0.0478 -0.0749
13508W        W56499  11.100  11.521   3.215 -0.2507  0.1786 -0.3225
13509W        W56500  21.282  21.672   3.278  0.0026  0.1193 -0.0477
13510W        W56501   6.521  22.254   2.729  0.3915 -0.0123  0.0661
13511W        W56502  12.943   4.189  28.786  0.0247  0.1196  0.0263
13512W        W56503  15.238  19.145  28.343 -0.0568  0.0280  0.2593
13513W        W56504  15.464   6.424   5.071 -0.0483 -0.1714 -0.1958
13514W        W56505   0.384  17.072  10.816  0.0223 -0.0489  0.0919
13515W        W56506  13.345  20.254   9.679 -0.1856 -0.0669 -0.1989
13516W        W56507   8.882   3.402  27.934  0.3210  0.1657  0.1610
13517W        W56508  26.293   8.463  29.066 -0.2399 -0.1339 -0.0798
13518W        W56509   3.053   0.746   9.269 -0.1057  0.1885  0.2181
13519W        W56510  19.759   7.587   1.739 -0.0086 -0.1872 -0.1248
13520W        W56511  14.800  17.567   2.787 -0.1521 -0.3595  0.2831
13521W        W56512   5.493  24.746  27.243 -0.1666 -0.2732 -0.1945
13522W        W56513  16.856   9.759  21.891 -0.0869 -0.3883  0.5080
13523W        W56514  15.123   3.974   3.842  0.1109 -0.3701 -0.1334
13524W        W56515   8.927  19.466   6.692 -0.1174  0.0089  0.0115
13525W        W56516  16.925  10.696  29.112  0.2545 -0.2735 -0.2263
13526W        W56517  30.387  19.986  19.214 -0.2351  0.0360 -0.3655
13527W        W56518  22.282  16.925   1.257  0.1637  0.0241  0.1529
13528W        W56519  32.156   1.953   7.849 -0.0548  0.0247  0.3000
13529W        W56520  33.171  13.426   8.564  0.1040  0.1829 -0.1689
13530W        W56521  13.829  26.328  27.177 -0.3161  0.2482 -0.0138
13531W        W56522  11.315   0.825  26.430 -0.2069 -0.0182  0.2094
13532W        W56523  27.680   2.502   6.848 -0.4786  0.1379  0.2930
13533W        W56524  21.167  28.392   2.998  0.1833 -0.0535  0.2827
13534W        W56525  18.680  23.898   5.580 -0.0707 -0.1284 -0.0339
13535W        W56526   0.637  18.068  17.689  0.3058  0.1928 -0.0029
13536W        W56527  18.326  29.066   6.161 -0.0136 -0.1984  0.1721
13537W        W56528  11.875  27.508  23.331 -0.3664  0.2348 -0.2331
13538W        W56529  23.728  18.026   7.745 -0.2169 -0.1826 -0.1011
13539W        W56530  17.092  18.256  29.209 -0.3675  0.2509  0.1363
13540W        W56531  34.472   0.248   5.911  0.1773 -0.0390  0.1380
13541W        W56532  18.255  19.258   7.490 -0.0823  0.2603  0.2297
13542W        W56533  18.224  21.968  22.887  0.2701 -0.1218  0.0896
13543W        W56534  15.082  17.370   5.641  0.0886  0.1686  0.0143
13544W        W56535  11.781  21.101   8.259 -0.0199 -0.3460  0.1490
13545W        W56536  20.513  17.937  22.704 -0.2664 -0.2024  0.1698
13546W        W56537   4.428  21.858  21.581  0.0302 -0.1351 -0.0023
13547W        W56538  21.895   9.546   8.144 -0.0291 -0.0270 -0.0146
13548W        W56539  14.201  12.608   7.687 -0.1569  0.1276 -0.1437
13549W        W56540  26.572   5.534   4.684  0.0907 -0.0267 -0.0114
13550W        W56541  23.223  14.291   7.014 -0.2118 -0.0603  0.2039
13551W        W56542  14.234  14.943  26.037  0.1538  0.2261  0.0430
13552W        W56543   3.537  13.807  11.382 -0.0876  0.1751 -0.1440
13553W        W56544  29.952   3.004   5.554 -0.1789  0.3491 -0.1957
13554W        W56545   8.853  20.411  17.658  0.1386  0.0420 -0.0803
13555W        W56546  19.104   0.056   8.546  0.0061  0.2325 -0.3283
13556W        W56547   7.425  18.788   4.451  0.1881  0.0372  0.0746
13557W        W56548  23.361  13.600   7.854 -0.0016 -0.2280 -0.2690
13558W        W56549  17.882   9.385  19.295  0.0480  0.0848  0.4637
13559W        W56550  10.126  27.376  29.147 -0.0446  0.2885 -0.3384
13560W        W56551   5.003  21.345   7.315  0.1592  0.0076 -0.3542
13561W        W56552  18.811  14.788   0.897 -0.1805  0.0236  0.0446
13562W        W56553  28.232  31.007   1.323  0.0278  0.2062 -0.0610
13563W        W56554  33.605  11.664  11.475  0.3036  0.0865 -0.1471
13564W        W56555  10.780  26.136   7.950  0.2410  0.0191  0.4315
13565W        W56556  29.327  19.081   1.036  0.1326  0.3249 -0.0034
13566W        W56557  12.988  22.774  25.911 -0.1991 -0.1399  0.0547
13567W        W56558   7.690   8.338   3.213  0.0714  0.4139  0.1103
13568W        W56559  12.061  19.478   0.128 -0.0772 -0.0635  0.2785
13569W        W56560  12.576  13.813   2.434  0.2088  0.1776 -0.1112
13570W        W56561   4.303  25.280  28.928 -0.1184  0.1728 -0.0933
13571W        W56562   8.952   0.212   2.250  0.3796  0.2651 -0.1406
13572W        W56563  12.373   9.010   2.234  0.0153 -0.0400 -0.0485
13573W        W56564  17.423  29.416  26.414  0.1617 -0.0484  0.0243
13574W        W56565  23.770  15.970  21.599  0.6353 -0.0801  0.0387
13575W        W56566  26.305   9.237   9.689 -0.0568  0.2772 -0.1744
13576W        W56567  22.592  16.052  28.291  0.0779 -0.5600 -0.1237
13577W        W56568  28.601   7.173   1.886 -0.1122 -0.0960  0.0172
13578W        W56569  24.416  28.349  22.603  0.0212  0.1257 -0.1679
13579W        W56570  14.692  19.876  22.852  0.0339  0.3769  0.0128
13580W        W56571  18.835  23.504   7.560  0.0525 -0.0635 -0.4573
13581W        W56572  26.731  13.249  25.615 -0.1958 -0.0704 -0.0734
13582W        W56573  18.422  10.428   2.681 -0.1141 -0.2875 -0.3716
13583W        W56574   3.994  20.627   9.909 -0.0526 -0.2281 -0.2708
13584W        W56575  27.039  22.405  26.921  0.1353 -0.0091 -0.3763
13585W        W56576  15.293  32.176   2.338 -0.1789  0.2659  0.0782
13586W        W56577  22.384  20.026   4.384  0.1779 -0.1064  0.0195
13587W        W56578  21.597  11.068  10.036 -0.1056  0.4924 -0.0841
13588W        W56579  13.321  18.748   0.045 -0.1308 -0.1341  0.1245
13589W        W56580   7.531   2.964  19.953 -0.3639 -0.0919  0.0627
13590W        W56581  20.993  24.100  28.445  0.1489 -0.0796  0.1579
13591W        W56582  11.579  21.147   6.476 -0.0414  0.0405  0.2187
13592W        W56583  22.042  17.029  27.335 -0.1512 -0.0446  0.3526
13593W        W56584  25.759  17.412   5.115  0.0103  0.0764  0.0360
13594W        W56585   7.887  15.805   8.001  0.3358  0.3806 -0.1839
13595W        W56586  19.398   1.840   4.038 -0.1453 -0.0408  0.2823
13596W        W56587  22.086  17.294   4.519  0.1691  0.2738 -0.0930
13597W        W56588  18.252  28.399  21.478  0.0819  0.1933  0.3833
13598W        W56589  22.183  27.279  24.814 -0.1591  0.2446 -0.2502
13599W        W56590  24.810  19.138  23.707 -0.3093 -0.0377  0.1740
13600W        W56591   9.935  15.716   0.327 -0.0902  0.1457 -0.0239
13601W        W56592   0.251  19.544   8.090 -0.1596 -0.0806  0.1880
13602W        W56593  31.700   9.263   2.729 -0.1256 -0.1720  0.1951
13603W        W56594  29.669   7.997   9.376 -0.0627 -0.3846 -0.1346
13604W        W56595  22.136  17.440   7.318 -0.0085  0.1474 -0.1174
13605W        W56596   2.312   3.546   4.252  0.1086  0.2800  0.0236
13606W        W56597   3.696  12.845  28.172 -0.0170  0.1679  0.1820
13607W        W56598  21.888  14.120  23.758  0.0930 -0.3074  0.2504
13608W        W56599  21.168   0.279  25.507  0.1962 -0.0544  0.2696
13609W        W56600  21.292  13.698  28.918 -0.0095  0.0307  0.2716
13610W        W56601  30.719  29.469  27.560  0.3654 -0.1112  0.0810
13611W        W56602  13.422  28.807   7.959  0.2776 -0.2403  0.0755
13612W        W56603  13.184  16.275   7.859 -0.2142  0.1924 -0.1774
13613W        W56604  18.976   4.121  28.276  0.0398 -0.1596 -0.0202
13614W        W56605  16.490  34.472   0.724 -0.1815  0.3060  0.0007
13615W        W56606  26.719  10.706  27.469  0.0445 -0.1024 -0.1594
13616W        W56607  21.862  22.785  18.551  0.1690 -0.2473 -0.0054
13617W        W56608  24.166  10.413   0.656 -0.2412 -0.0843  0.2104
13618W        W56609  12.285  27.666  14.404  0.3324 -0.0838  0.2056
13619W        W56610  25.350  29.634   8.421 -0.1525  0.0228 -0.2334
13620W        W56611   0.710  15.087   8.696 -0.1287 -0.1104 -0.0382
13621W        W56612  19.516  20.042   4.973  0.3148  0.0288  0.3086
13622W        W56613  11.474  28.325  26.954  0.0496  0.4795  0.0945
13623W        W56614  23.923  12.257   8.063 -0.1508 -0.2720 -0.0420
13624W        W56615  33.455  14.856  27.510 -0.2882  0.0537 -0.0855
13625W        W56616  19.080  11.507   2.745  0.2129 -0.1599 -0.1282
13626W        W56617  25.948  10.335  28.834 -0.2807 -0.1274  0.0158
13627W        W56618  23.984  12.494   8.947  0.0599 -0.2204 -0.4366
13628W        W56619  19.360  12.933   5.469  0.3442 -0.3600 -0.2093
13629W        W56620  29.842  26.321   7.916  0.0139 -0.2673  0.0492
13630W        W56621  16.233  12.245   4.490  0.1296  0.2590 -0.0585
13631W        W56622   7.271   7.875   2.987 -0.2027 -0.1956  0.1747
13632W        W56623  18.785  28.009   1.422  0.0525  0.2657  0.3055
13633W        W56624   8.344  13.640   6.617 -0.1981 -0.0350 -0.1038
13634W        W56625  13.165  15.334   8.125  0.0666  0.0529 -0.0936
13635W        W56626  11.335  18.799   1.804 -0.0401 -0.2251 -0.1596
13636W        W56627  14.109  22.841  18.934 -0.1029 -0.0364  0.1093
13637W        W56628  15.972   2.369  25.220 -0.0639 -0.0697  0.1875
13638W        W56629  16.717  16.616   8.786 -0.0268  0.2322  0.1167
13639W        W56630   6.413  19.016  10.817  0.2284  0.1459  0.4311
13640W        W56631   1.365  18.015   7.890  0.0295  0.0159  0.3143
13641W        W56632   8.750  17.695  10.068 -0.1764  0.2070 -0.0552
13642W        W56633  15.305  10.993   9.610 -0.1909  0.2290 -0.0387
13643W        W56634  30.679  18.528   0.303  0.0742 -0.1032  0.0413
13644W        W56635  25.756   4.818   3.551 -0.2017 -0.1412  0.2717
13645W        W56636  19.815  20.328  21.899  0.0316 -0.0683 -0.0506
13646W        W56637   5.379   8.052   0.917 -0.0001  0.2087  0.3978
13647W        W56638  18.139  18.716   0.946 -0.3742  0.0321 -0.2715
13648W        W56639  12.554   3.855   9.719 -0.0696 -0.0609  0.2295
13649W        W56640  18.484  13.352   4.666  0.1154  0.2974  0.2685
13650W        W56641  10.459   3.367  10.108  0.2419 -0.0516 -0.1747
13651W        W56642  19.131  30.141   4.900 -0.1913 -0.2900 -0.1701
13652W        W56643  23.724   1.255   0.949  0.2818 -0.4114 -0.2135
13653W        W56644  16.063   9.352  23.022 -0.0802 -0.0794  0.0421
13654W        W56645  28.619  12.256   8.024  0.2482  0.4134 -0.2574
13655W        W56646  19.958  29.979   3.407 -0.0432 -0.0715  0.1192
13656W        W56647  20.020  16.464  27.206  0.2968  0.0774 -0.3639
13657W        W56648  16.813  21.606   0.825  0.0548 -0.2698 -0.0483
13658W        W56649   7.851   5.946   8.147  0.3055  0.0606  0.0864
13659W        W56650   2.031  28.169   5.988  0.0885  0.2209  0.1918
13660W        W56651  15.368  17.684   1.436 -0.2897 -0.1947 -0.3029
13661W        W56652  27.600  21.065  26.638  0.0629 -0.0137 -0.1931
13662W        W56653  26.563  15.480   1.621  0.0756 -0.0062  0.1117
13663W        W56654  23.975  12.610   4.726  0.1419  0.2504  0.0333
13664W        W56655  12.114  25.470  27.818 -0.1929 -0.1260 -0.0760
13665W        W56656  15.355   3.835  24.651  0.1192 -0.1717 -0.0827
13666W        W56657  19.319  17.869  27.403  0.0441  0.0843 -0.0449
13667W        W56658  12.649  20.625  28.098 -0.1138 -0.2328 -0.2950
13668W        W56659  16.235  13.558   7.287  0.2262 -0.1274 -0.0667
13669W        W56660   5.005  18.489  20.788 -0.0120 -0.0826  0.0774
13670W        W56661  11.692   8.702  24.658 -0.3232  0.3156  0.1488
13671W        W56662  32.566  18.846   9.892 -0.1776 -0.0333 -0.0796
13672W        W56663  11.067   8.114   3.872  0.0727 -0.0988  0.1023
13673W        W56664  25.751  19.774   8.593 -0.0131  0.6302 -0.0978
13674W        W56665  15.321   7.551   6.883 -0.0304 -0.1975 -0.0873
13675W        W56666  22.368   9.558   2.313 -0.0116 -0.0652  0.2294
13676W        W56667  24.489  19.902   6.021 -0.1484  0.1444  0.2515
13677W        W56668   7.190  16.575   0.043 -0.1833 -0.1514  0.1827
13678W        W56669   0.548   4.089   3.826 -0.0769 -0.0876 -0.2041
13679W        W56670  10.015  10.776   7.415  0.2392  0.1621 -0.0370
13680W        W56671  26.252   2.417  28.945 -0.0746 -0.0542  0.0496
13681W        W56672   2.512  23.809   3.011 -0.2083  0.1308  0.2189
13682W        W56673  32.013  29.623  17.428  0.0780 -0.1356  0.0370
13683W        W56674  12.724  17.436  23.514  0.1205  0.0612  0.1000
13684W        W56675   1.324  22.073  28.359 -0.2424  0.2203 -0.0604
13685W        W56676   3.980  26.521   9.428 -0.1243 -0.0407 -0.0452
13686W        W56677  19.184  17.649   6.451  0.2506  0.0650 -0.0127
13687W        W56678  16.701  20.777  23.209 -0.2590  0.1891  0.1177
13688W        W56679  15.209  17.665   7.304 -0.0934  0.1820 -0.2994
13689W        W56680  23.260  27.701   3.565  0.0897  0.0707 -0.0605
13690W        W56681  17.386  21.743  24.205  0.0136  0.0873 -0.1670
13691W        W56682  20.837   4.223  26.753  0.2865 -0.2655 -0.0296
13692W        W56683  23.617  22.832   1.701  0.0833 -0.1654 -0.1046
13693W        W56684  27.077  11.377   4.462 -0.1650  0.2531  0.2780
13694W        W56685  16.967  22.690  13.626 -0.0912 -0.1701 -0.2448
13695W        W56686  13.770   3.030  21.646  0.1469 -0.0634  0.1552
13696W        W56687   1.680  11.013   5.725  0.1643  0.0539  0.0103
13697W        W56688  21.234  10.206   2.008  0.2040  0.1848 -0.0321
13698W        W56689   9.720   8.006  10.059 -0.0544 -0.1281 -0.3058
13699W        W56690  13.145  26.465  24.659  0.3845  0.3188 -0.1584
13700W        W56691  17.398   5.818  26.651  0.1789  0.1615  0.1453
13701W        W56692  18.474  18.650  28.439 -0.0040 -0.1687 -0.2663
13702W        W56693  15.214  14.784  24.585 -0.1512  0.1499 -0.0098
13703W        W56694  19.939  14.168   9.716  0.0349  0.1671  0.0889
13704W        W56695  25.100   8.718   9.189 -0.0505  0.0824 -0.2862
13705W        W56696  23.276  28.891   3.773 -0.0765  0.1241 -0.3103
13706W        W56697  14.166  24.257  10.103 -0.2360  0.0047  0.0260
13707W        W56698  14.179  11.590   3.063 -0.0434 -0.0194 -0.1147
13708W        W56699  32.444  11.393   6.650 -0.0172  0.4118 -0.2872
13709W        W56700  21.594  16.801  19.710 -0.1226  0.4282  0.2763
13710W        W56701  22.178  21.353   3.974 -0.0318 -0.0008 -0.0013
13711W        W56702  13.720  21.033   3.560  0.1348  0.0254  0.1346
13712W        W56703  31.383  18.217   6.179 -0.0724  0.0640  0.0383
13713W        W56704  23.790  17.988   0.951 -0.0884 -0.1450  0.2708
13714W        W56705  11.187   6.815  27.251 -0.1239 -0.0980  0.0378
13715W        W56706  17.559  24.393   2.175 -0.1027 -0.0495  0.1971
13716W        W56707  23.743  22.445  28.272 -0.0588  0.3252 -0.0390
13717W        W56708   7.195  23.213  24.722 -0.2389 -0.0091 -0.2025
13718W        W56709   9.958  20.520   0.429 -0.2191 -0.2743  0.0642
13719W        W56710   6.659  23.811  10.321  0.1738 -0.1127  0.0503
13720W        W56711  16.202  24.288   2.962 -0.0614  0.2599 -0.0188
13721W        W56712  10.996  18.931   3.481  0.0184 -0.0281  0.0566
13722W        W56713  25.931  10.668   5.087  0.1973 -0.2553 -0.2877
13723W        W56714  18.090  15.847   8.160 -0.0375 -0.1773  0.1119
13724W        W56715  13.635  21.401   6.453 -0.1010 -0.1005 -0.1403
13725W        W56716  16.089   7.476  26.955 -0.1886 -0.0387  0.3246
13726W        W56717  24.419   8.224  10.271  0.0484 -0.1203  0.3932
13727W        W56718  12.842  20.685  26.955 -0.1698  0.2252  0.1954
13728W        W56719  13.238  16.847   9.778  0.6090 -0.2739 -0.0261
13729W        W56720  23.434  16.750   6.357 -0.0162  0.2286  0.0300
13730W        W56721   5.256  24.193  28.612  0.0191  0.0231  0.1857
13731W        W56722  23.519  27.232   8.185  0.2448 -0.2357 -0.1940
13732W        W56723  27.728  28.103   9.020  0.1063 -0.0267 -0.5180
13733W        W56724  20.363   4.227   3.069 -0.1502  0.0658 -0.2475
13734W        W56725  19.736  17.830   3.465  0.0790  0.1340 -0.1614
13735W        W56726  28.761  10.648   2.948  0.1705 -0.3960 -0.3655
13736W        W56727   6.494  13.333   0.607  0.1823 -0.1572 -0.0459
13737W        W56728  10.978   7.470   5.783 -0.3599 -0.1343 -0.2488
13738W        W56729  14.166  11.934  24.778  0.0231  0.1377  0.0575
13739W        W56730  34.386  12.402  10.488  0.1199 -0.2957  0.1379
13740W        W56731   8.744  11.036   4.231 -0.3718  0.1672  0.1186
13741W        W56732  15.498  17.089   3.964  0.1409  0.0516 -0.0744
13742W        W56733  24.546   4.854  25.417 -0.0009 -0.1809  0.0737
13743W        W56734  24.066   8.661   5.957 -0.0458 -0.0101 -0.0141
13744W        W56735  27.915  23.366   7.951 -0.1401  0.3197  0.1857
13745W        W56736  14.911  19.425   8.232 -0.1541  0.2303  0.1749
13746W        W56737  22.965   8.464  18.138 -0.1537 -0.0899 -0.0714
13747W        W56738  15.604  15.291  24.250  0.0020  0.2811  0.1076
13748W        W56739   8.473  18.388   2.260 -0.2505 -0.0638  0.1683
13749W        W56740  28.622  16.856   9.487  0.0149  0.0644  0.0371
13750W        W56741  19.010  13.894  19.730 -0.0586 -0.3733  0.0233
13751W        W56742  21.729  13.932   9.131 -0.3240  0.3201  0.0883
13752W        W56743  18.176  29.053   2.206 -0.2098  0.0640  0.1817
13753W        W56744  16.689  29.558  10.148 -0.2659  0.1703  0.1396
13754W        W56745  31.238  31.662   3.177 -0.1191  0.1349 -0.1853
13755W        W56746  29.414  24.357   0.398  0.0090  0.0989 -0.1742
13756W        W56747  24.518  13.007   8.145 -0.1713  0.2371 -0.3074
13757W        W56748   1.242  11.884   6.761 -0.0179 -0.1980  0.3498
13758W        W56749  31.626  20.509   1.317  0.3253  0.0795 -0.1187
13759W        W56750  16.713  12.582   3.319 -0.0849 -0.2849 -0.1419
13760W        W56751  13.280  19.939   9.140 -0.1487  0.3115 -0.1628
13761W        W56752  21.364   5.263   2.031  0.1275 -0.0924  0.0502
13762W        W56753   2.068  14.149   2.146 -0.0958  0.0415  0.0897
13763W        W56754  14.769  17.776   3.269 -0.1906 -0.0839  0.1070
13764W        W56755  15.749  15.495   0.042  0.0584  0.0865  0.2417
13765W        W56756  32.653  12.800  10.415 -0.1839  0.1926 -0.0500
13766W        W56757  14.013  24.650   3.001 -0.1273  0.1154  0.2773
13767W        W56758  26.935  31.930   4.779  0.0987  0.0367 -0.0269
13768W        W56759  12.453  21.757  22.460 -0.0040 -0.0676  0.3497
13769W        W56760   6.136  17.831   0.596 -0.1685 -0.3533 -0.1070
13770W        W56761   3.038  17.492   0.798 -0.0156  0.0810 -0.0950
13771W        W56762   0.743  32.755   9.109 -0.0484 -0.0105  0.2407
13772W        W56763  20.943  18.251   0.676 -0.3228 -0.0499  0.1011
13773W        W56764   3.187  14.873  24.692  0.0046 -0.0038 -0.1483
13774W        W56765  15.738   5.424   6.934 -0.2343 -0.0914 -0.2205
13775W        W56766  13.624  20.965   2.227  0.0719  0.0547  0.0426
13776W        W56767  28.628  15.856   3.099  0.0587 -0.2042 -0.2302
13777W        W56768  18.749  20.358   2.039 -0.2694 -0.1048  0.1930
13778W        W56769  24.958  10.531   9.439 -0.4538  0.0168 -0.1612
13779W        W56770   4.311  15.959  25.751  0.1794  0.2714  0.1430
13780W        W56771  24.498  26.026   7.907  0.1299 -0.0906 -0.2197
13781W        W56772  11.474  19.583   2.205 -0.1579  0.0856 -0.0002
13782W        W56773  18.057  22.439   6.879 -0.0409  0.0756  0.2871
13783W        W56774  12.610  20.119   8.496 -0.0545  0.0935 -0.1991
13784W        W56775  25.554   4.098   8.005 -0.0183  0.2342  0.0409
13785W        W56776  27.317   4.476  28.335  0.0952 -0.0561 -0.0093
13786W        W56777  10.531   4.138  10.256 -0.3890  0.1199 -0.1694
13787W        W56778  14.362  26.744  28.297  0.2212 -0.0179 -0.1117
13788W        W56779  24.354   4.391  21.919 -0.1064  0.1597 -0.2633
13789W        W56780  13.821   6.238  25.453 -0.3501 -0.1155  0.0092
13790W        W56781  21.930  12.613  28.204 -0.3458 -0.0111 -0.0680
13791W        W56782  18.004  13.736   1.129  0.0401  0.1439  0.1145
13792W        W56783  23.395  16.125   0.344  0.2006 -0.3837 -0.0303
13793W        W56784  16.583   7.583  19.607 -0.2920  0.1162  0.1465
13794W        W56785   9.170  13.709   9.259 -0.1640 -0.0557  0.4401
13795W        W56786   8.888  23.454   5.761  0.0397  0.0903 -0.2471
13796W        W56787  29.041  21.860  22.597 -0.0090  0.1258 -0.3354
13797W        W56788  14.117  22.053   3.512  0.1132  0.1883 -0.0561
13798W        W56789  27.420  16.301   6.671 -0.3216  0.1585 -0.1459
13799W        W56790  29.969   7.413   6.179  0.0423  0.0047  0.1094
13800W        W56791  19.825  16.157   0.385  0.1137  0.0515 -0.0645
13801W        W56792  19.078  12.326   7.002 -0.0201 -0.1380 -0.3433
13802W        W56793   1.872   7.293   2.312 -0.1999 -0.0128 -0.0481
13803W        W56794  23.256  34.119  26.917  0.1041  0.0896 -0.2214
13804W        W56795  23.571  26.237   5.244  0.3974 -0.4547 -0.1023
13805W        W56796  11.355  20.434   7.632  0.1094  0.0863  0.0215
13806W        W56797  20.819  14.771   4.561  0.0428 -0.0382 -0.2660
13807W        W56798   9.129   6.516   3.598 -0.4223 -0.0483  0.0583
13808W        W56799  26.170  19.555   3.343 -0.1564 -0.0112 -0.0863
13809W        W56800  27.550  13.578  24.730  0.2138 -0.0375 -0.0587
13810W        W56801  10.030  18.479   6.403  0.2040 -0.2912 -0.2701
13811W        W56802  14.664   0.686  10.005  0.1161 -0.2487  0.1408
13812W        W56803  23.659  16.920   1.565  0.0664  0.1084  0.0052
13813W        W56804  20.274  16.497   6.601 -0.1764 -0.4372  0.0851
13814W        W56805   9.216  22.432   5.698  0.1255 -0.2375  0.1831
13815W        W56806  13.483   2.994   8.099  0.0900 -0.3738  0.0234
13816W        W56807  18.667  19.119  24.429  0.4562  0.1960 -0.0515
13817W        W56808   6.729   1.034   4.644 -0.3212 -0.1578 -0.2884
13818W        W56809  19.359  26.298   9.034  0.0549 -0.1749  0.1505
13819W        W56810  30.783   6.330  18.863  0.0741  0.3426  0.2869
13820W        W56811  11.358   9.577   7.315 -0.0597  0.0718 -0.3910
13821W        W56812  25.262  10.551   7.212 -0.0517  0.0373  0.0220
13822W        W56813  14.915   9.893   8.945 -0.0379 -0.5492  0.2071
13823W        W56814  28.211  24.043   5.462  0.2467  0.1042  0.0535
13824W        W56815  22.706  22.509  24.476  0.5177 -0.1840  0.0595
13825W        W56816  26.210  34.457   6.025 -0.2154  0.1149  0.0822
13826W        W56817  12.008  13.145   9.890 -0.2093  0.1550  0.3488
13827W        W56818   6.590  21.806   9.346  0.3675  0.0969  0.1744
13828W        W56819  29.049  16.387   0.680 -0.1185 -0.1051  0.2178
13829W        W56820  29.252  18.344   6.232 -0.0594  0.0797 -0.0326
13830W        W56821  31.845  12.683  21.084  0.0069 -0.0044 -0.1604
13831W        W56822  23.548  23.519   7.821  0.1626 -0.0907 -0.2633
13832W        W56823   8.004  25.473  26.703  0.0031  0.1186 -0.1627
13833W        W56824  33.756  21.771  27.775 -0.1419  0.1017  0.2762
13834W        W56825  12.485  23.656   5.005  0.0301 -0.0253 -0.1308
13835W        W56826  14.969   8.512  24.814  0.0578 -0.0776 -0.1088
13836W        W56827  10.014  13.777   4.953  0.0719  0.0433 -0.2599
13837W        W56828   3.545  20.335   9.817 -0.0353 -0.2228  0.1338
13838W        W56829  11.421   5.309  26.059 -0.0791  0.0945 -0.0225
13839W        W56830  11.109   2.638  21.213  0.1873  0.3210  0.3637
13840W        W56831  32.080  18.698   8.851  0.1466  0.1139  0.0879
13841W        W56832   6.652  19.799   9.405 -0.4515  0.0812 -0.0975
13842W        W56833  20.707  17.891  23.886 -0.0271  0.0143 -0.0630
13843W        W56834  13.477  15.395   7.403  0.2759 -0.2268  0.1337
13844W        W56835  28.239   8.565   8.103  0.1045  0.2935 -0.0417
13845W        W56836  32.145  17.954   3.345  0.0937  0.1086  0.4594
13846W        W56837  17.820  17.101   4.476  0.4339  0.1373 -0.4557
13847W        W56838  14.392  30.560   8.405 -0.0393 -0.0147  0.0308
13848W        W56839  17.850  12.477   5.688 -0.1634  0.0661  0.0412
13849W        W56840  33.100  15.717   6.528 -0.0747  0.0529  0.1002
13850W        W56841  15.431  22.298   8.277  0.0785  0.2739  0.0035
13851W        W56842  33.315  16.951  28.799  0.3582  0.2055 -0.1023
13852W        W56843  26.646   7.447  25.277 -0.1474 -0.1700 -0.4657
13853W        W56844  14.661  32.851   4.253  0.2905  0.0254  0.0980
13854W        W56845  31.996  31.057  28.601  0.3760  0.1364  0.2181
13855W        W56846  18.760   9.956   3.931 -0.0722 -0.1045  0.1403
13856W        W56847  10.762   8.405   9.060 -0.0769 -0.1580  0.3971
13857W        W56848  21.182  24.384   3.777 -0.0399  0.1334  0.1440
13858W        W56849  23.125  31.243   8.004  0.0102 -0.0790  0.2065
13859W        W56850  16.844  29.849   7.832  0.1724 -0.1661  0.3487
13860W        W56851  16.409  21.257   7.991  0.0696 -0.0904 -0.1099
13861W        W56852   0.223  10.690  28.393 -0.2881  0.2518 -0.3014
13862W        W56853   6.024  20.094   4.568 -0.1222 -0.2807  0.0586
13863W        W56854  19.110  13.802   4.539  0.1935  0.0582 -0.0091
13864W        W56855   5.749  26.115   7.682  0.0620 -0.1602  0.2300
13865W        W56856  15.790  18.126   3.321  0.2687  0.1940 -0.0245
13866W        W56857  10.209  17.014   4.251 -0.2454 -0.0581  0.1835
13867W        W56858  25.257   0.752   5.098  0.0005 -0.0626 -0.1396
13868W        W56859   6.389   1.190   1.699 -0.0407  0.1837 -0.1607
13869W        W56860  11.973   5.658  24.849  0.2244  0.2300 -0.0283
13870W        W56861   9.778  26.627  27.439  0.0424 -0.1814  0.0901
13871W        W56862   1.735   3.954   4.028  0.2342  0.3447  0.2139
13872W        W56863  27.357   2.123   8.515  0.0993  0.0133  0.3490
13873W        W56864  33.485  28.114  22.812 -0.0197 -0.1541  0.1921
13874W        W56865  17.583  19.887   5.699 -0.0605 -0.0294  0.1414
13875W        W56866  25.352  29.300   0.065 -0.1514 -0.1336 -0.0860
13876W        W56867   9.196  25.262   4.701 -0.0727 -0.0469  0.0390
13877W        W56868  28.239  10.742   3.744 -0.0632  0.1696 -0.2190
13878W        W56869  26.236   6.273  27.751 -0.0316 -0.2095  0.1055
13879W        W56870  23.786  14.060   6.071  0.0645  0.1530  0.2429
13880W        W56871  27.023  17.458   5.493  0.2047  0.2356 -0.3670
13881W        W56872  22.362   8.955   9.879  0.1066 -0.2369  0.3938
13882W        W56873  15.334  15.696  26.934  0.0179  0.0749  0.1957
13883W        W56874  11.960  21.085   2.933  0.1072  0.2327  0.3505
13884W        W56875  11.955  17.105   1.784 -0.1631  0.0610 -0.0747
13885W        W56876  12.912  33.742  23.471  0.0313 -0.0716  0.2954
13886W        W56877   6.032  15.803  10.747  0.0221 -0.4312  0.0833
13887W        W56878   7.863   9.069   5.753  0.1415 -0.1367 -0.0417
13888W        W56879  27.832  13.536   9.360  0.1061 -0.0606 -0.0348
13889W        W56880  30.089  17.549   4.039  0.0873  0.1373 -0.0859
13890W        W56881  19.052  26.858   2.833 -0.0863 -0.2273 -0.0627
13891W        W56882  11.898  24.817   6.612  0.0508  0.0090  0.1612
13892W        W56883  19.772   1.271   8.873 -0.2436  0.2720  0.2585
13893W        W56884   7.993   9.225   7.532 -0.1045 -0.0601 -0.1367
13894W        W56885  23.118   5.898   1.973  0.1308  0.2182  0.2381
13895W        W56886  14.522  18.315   4.928  0.1395 -0.0333 -0.2419
13896W        W56887   4.537  23.970   5.622 -0.0318 -0.1093  0.0178
13897W        W56888  20.008  12.780  22.632 -0.2291 -0.1526 -0.1795
13898W        W56889   4.613  30.021   7.245 -0.0857 -0.0089  0.0808
13899W        W56890   2.136  19.275   3.441 -0.1109 -0.0612 -0.1057
13900W        W56891  33.443  28.335   8.879  0.0344  0.0939  0.0463
13901W        W56892  19.839  29.698  23.546  0.0038  0.1992 -0.2140
13902W        W56893  18.029  22.605  25.238 -0.0786 -0.1537 -0.2176
13903W        W56894   9.987  23.832   1.150  0.0685  0.0483  0.0047
13904W        W56895  22.665  17.118   4.518 -0.3764 -0.2002 -0.0239
13905W        W56896   8.248  34.150  24.894  0.1892  0.1097  0.0080
13906W        W56897  17.922   8.332   7.882  0.0992  0.0370  0.0270
13907W        W56898  23.026  17.552   5.579 -0.0394  0.3535  0.6842
13908W        W56899  33.130   3.286   9.300 -0.2014  0.2299 -0.0518
13909W        W56900  26.152   9.504  10.088 -0.0542  0.1817 -0.2163
13910W        W56901   7.526   6.906  10.660  0.0657  0.1778  0.0977
13911W        W56902  24.369  10.642  28.942 -0.1198 -0.1420 -0.1129
13912W        W56903  24.152  14.181  19.888 -0.2846  0.1203 -0.2394
13913W        W56904  14.296   6.883  10.955  0.1282 -0.1601  0.1891
13914W        W56905   3.732  16.003   5.910  0.2192  0.0538 -0.0683
13915W        W56906  24.577  24.453  25.330 -0.1608 -0.1314  0.2268
13916W        W56907  20.071  10.418   0.738  0.4797  0.0677  0.0399
13917W        W56908  22.859  19.674   5.998 -0.1482 -0.0594  0.1145
13918W        W56909  19.447  23.465   7.466 -0.1815  0.4193 -0.2689
13919W        W56910  21.643  20.386   1.475 -0.0160 -0.3661  0.0213
13920W        W56911  10.105  21.651  10.695 -0.1866 -0.0464 -0.1457
13921W        W56912  12.011  20.926  23.181 -0.1020  0.0548 -0.2761
13922W        W56913  18.416  11.253   0.551  0.0060 -0.0226 -0.3762
13923W        W56914  13.759  14.271   1.629 -0.1185  0.0697  0.1500
13924W        W56915  22.450  20.513   3.170 -0.1476 -0.1786 -0.2502
13925W        W56916   2.198  21.267   7.944 -0.1921  0.1576 -0.2006
13926W        W56917  21.543  15.619  28.181  0.1490  0.0361  0.0133
13927W        W56918  25.504   9.572  26.976 -0.2202  0.0491  0.1181
13928W        W56919   9.082   7.080  10.797 -0.0356 -0.3211 -0.0949
13929W        W56920  29.148  19.111   5.095  0.0171 -0.1637  0.1978
13930W        W56921  33.349   8.937   9.924  0.2009  0.0727  0.1303
13931W        W56922   1.276  19.789  28.032  0.3418 -0.3563  0.1993
13932W        W56923  13.652   6.798   9.894  0.1918  0.0827 -0.1803
13933W        W56924  14.531  26.176  24.817  0.2287 -0.1545  0.2012
13934W        W56925   9.641  22.575   2.347 -0.1263  0.1329 -0.0726
13935W        W56926  30.385  16.222   7.359 -0.0703  0.1118 -0.1796
13936W        W56927  11.596  12.507  28.502 -0.1605  0.3404  0.3440
13937W        W56928  16.912  18.239  27.790 -0.0880  0.0410  0.3702
13938W        W56929  11.998  22.257   5.822  0.1140  0.0684  0.1434
13939W        W56930  30.868  25.017   9.694 -0.3585  0.0556  0.1696
13940W        W56931   8.090  21.980  25.272  0.1783 -0.1909  0.0443
13941W        W56932  20.280  26.973   8.535  0.1939 -0.1242  0.3960
13942W        W56933  18.265  12.553   1.543  0.1103  0.0948  0.1345
13943W        W56934  33.100   7.213   0.919 -0.1013 -0.2078  0.7233
13944W        W56935  26.273  34.780   2.679 -0.1859 -0.2034 -0.1876
13945W        W56936  12.483  18.786  28.186 -0.0934 -0.2978  0.0701
13946W        W56937  16.327  25.482  28.881 -0.2666  0.1282 -0.2087
13947W        W56938  16.123  12.149   0.037 -0.0844 -0.0587  0.0668
13948W        W56939  16.678  16.865   6.965  0.2477  0.0566  0.2613
13949W        W56940  13.035   1.761  21.011 -0.0321 -0.2758  0.2050
13950W        W56941  19.674  33.018  23.617 -0.1473  0.3139 -0.0693
13951W        W56942  28.255  20.763  19.594  0.0382  0.1117  0.1268
13952W        W56943  17.747  22.402   3.813 -0.0674  0.2648  0.0050
13953W        W56944   9.067  11.821   9.628 -0.0980  0.1431  0.0395
13954W        W56945   3.611  10.968  11.141  0.3277  0.0797  0.1523
13955W        W56946  10.835  11.213  11.176  0.3029 -0.1332 -0.1194
13956W        W56947   3.603  14.939   8.118 -0.0391  0.1653 -0.1658
13957W        W56948  16.528  33.428   7.742 -0.1966 -0.2187 -0.1404
13958W        W56949   0.465  14.256   3.646  0.0559  0.1524 -0.0276
13959W        W56950   0.185  18.764   1.166 -0.0728  0.0384  0.2112
13960W        W56951  26.656  24.000  21.311 -0.0958 -0.0582  0.3055
13961W        W56952  27.955  12.528   7.473 -0.1633  0.2311  0.0501
13962W        W56953  14.710  28.721  10.145 -0.2317  0.0790  0.1635
13963W        W56954  29.130   3.462   3.617 -0.1182 -0.0252  0.1292
13964W        W56955   4.543  16.842   6.941  0.2499  0.0860  0.2510
13965W        W56956   9.255  31.092   3.839  0.0603  0.1329  0.1561
13966W        W56957   8.731  19.766  28.461 -0.0652  0.4337 -0.3267
13967W        W56958  10.023  14.378  28.082 -0.2156 -0.0673 -0.0169
13968W        W56959  14.566  14.951  25.425  0.0472  0.0489  0.0431
13969W        W56960  27.484  11.018   2.759 -0.2132  0.0327  0.2805
13970W        W56961  28.603  27.230   2.453  0.1739 -0.0966  0.0209
13971W        W56962  25.722   2.428   8.021 -0.0201 -0.1453  0.0360
13972W        W56963   2.930   4.748   6.467  0.3667  0.0988 -0.1174
13973W        W56964  24.507  14.899  24.387 -0.0126 -0.1529  0.2395
13974W        W56965   6.678  17.213   8.717 -0.0024  0.3852 -0.3531
13975W        W56966  11.987  15.019  28.358 -0.1020 -0.1140  0.1251
13976W        W56967  15.462   2.287   8.215 -0.2152  0.0350 -0.0042
13977W        W56968  18.534  17.487   3.454 -0.2814 -0.1630 -0.0890
13978W        W56969  28.703  11.621   4.530 -0.2217 -0.1592 -0.0571
13979W        W56970  31.905  26.111   0.483 -0.0230  0.2486  0.1343
13980W        W56971   6.794  26.764   7.847 -0.1227 -0.2922  0.0464
13981W        W56972  33.168  27.729  23.027  0.0018  0.2658 -0.0062
13982W        W56973  31.632  12.434   7.363 -0.1576 -0.2876 -0.0740
13983W        W56974   1.616  15.637   9.161  0.1558  0.3424  0.2330
13984W        W56975   8.103  22.578   1.180  0.0064  0.0401 -0.1090
13985W        W56976  30.169  17.053   4.207  0.3039  0.0268 -0.3376
13986W        W56977   8.758  16.675   1.407 -0.1936 -0.0770  0.1078
13987W        W56978  27.844  28.634   4.347 -0.0756  0.1100  0.1201
13988W        W56979  22.784  23.631   3.550 -0.2194 -0.0160  0.1447
13989W        W56980  21.377   2.377   8.415 -0.4434  0.1264  0.1480
13990W        W56981  30.872  24.055   4.610  0.1048  0.2438  0.2106
13991W        W56982  12.409   5.329  10.878  0.1091  0.0802  0.1541
13992W        W56983  20.806  18.929  22.170 -0.0245  0.0044  0.2117
13993W        W56984   6.602  26.091   1.835  0.1600  0.0235  0.2757
13994W        W56985  32.175  11.863   8.429  0.0900  0.2448 -0.0312
13995W        W56986  17.945  25.153   8.347  0.1529 -0.0361  0.1801
13996W        W56987  29.013  15.562   7.241  0.0107 -0.2798 -0.0738
13997W        W56988  19.379   2.657   8.059  0.1514  0.2968  0.1673
13998W        W56989  22.319  19.244   5.258 -0.0978  0.0221 -0.3153
13999W        W56990  21.167  19.915   3.814  0.4295  0.0120  0.0641
14000W        W56991  17.517  33.511   8.853 -0.5054 -0.2277 -0.3519
14001W        W56992  25.753  16.715   3.329 -0.1095 -0.1753 -0.3256
14002W        W56993  11.610  13.416   2.009  0.0793  0.2713 -0.0874
14003W        W56994  17.941  21.034  15.898 -0.0424 -0.3412 -0.0106
14004W        W56995   5.915  17.749  28.755 -0.1498 -0.1123 -0.2236
14005W        W56996   8.103  11.826   6.144  0.1468 -0.0627  0.3005
14006W        W56997  18.432  20.344  28.418 -0.1455 -0.1872 -0.0919
14007W        W56998  24.700  21.522   4.632 -0.0552 -0.1428 -0.1910
14008W        W56999  14.262   8.679  21.319  0.0845  0.0516  0.0250
14009W        W57000  25.855   4.045  25.133  0.2977 -0.0771  0.1902
14010W        W57001   8.829  12.332   3.106 -0.0726  0.1449 -0.0899
14011W        W57002   6.813  25.238   8.626 -0.1740 -0.1036  0.0694
14012W        W57003   1.941  12.730   1.087 -0.3275 -0.1920  0.2951
14013W        W57004  21.804  18.293  24.575  0.2839  0.0016  0.0281
14014W        W57005  23.694   3.340   4.839 -0.2046 -0.1688 -0.0064
14015W        W57006   6.080  20.651   5.502  0.1965 -0.0175 -0.0492
14016W        W57007  13.584  12.567   6.219 -0.1912  0.0202  0.2076
14017W        W57008  20.732  11.025  27.221 -0.0438  0.1895  0.0370
14018W        W57009  17.010   2.672  20.323 -0.1121 -0.0205 -0.2887
14019W        W57010  13.565  27.896  24.841 -0.1011 -0.0678 -0.0728
14020W        W57011  24.018   4.008   4.110  0.0068  0.0246  0.4319
14021W        W57012  32.565  24.739  26.395  0.2155  0.1968 -0.1791
14022W        W57013  25.872  21.687  10.069 -0.2359 -0.1980  0.1713
14023W        W57014   5.673  24.134   2.994 -0.0462  0.1037  0.1458
14024W        W57015  13.699  28.638   9.297  0.1214  0.0251  0.1143
14025W        W57016  18.160  19.878   0.974 -0.1137 -0.2545  0.0130
14026W        W57017  14.233  11.251   4.978  0.3068  0.3996 -0.3783
14027W        W57018  21.185  16.656  24.131  0.1002 -0.3025 -0.1178
14028W        W57019  19.109  17.464   4.936  0.0099  0.1222 -0.3199
14029W        W57020  22.394  10.125   1.334  0.2589 -0.3994  0.0518
14030W        W57021  12.767  22.798   6.131  0.2764  0.1685  0.2235
14031W        W57022  13.574  25.076   3.562 -0.0658 -0.0075  0.4806
14032W        W57023  27.644   8.195   1.819  0.4294  0.2564  0.2264
14033W        W57024   9.311  18.965   7.360  0.0125  0.0700  0.0611
14034W        W57025  21.756  28.733   9.738 -0.4720 -0.2251 -0.1423
14035W        W57026  22.561  21.942   0.696 -0.2141  0.3576  0.3194
14036W        W57027  15.010  12.883   2.386  0.0214 -0.3063  0.1748
14037W        W57028  21.603  22.830  20.907  0.1379 -0.0056 -0.0471
14038W        W57029  21.106  28.983  27.447 -0.1875  0.1630  0.2240
14039W        W57030  22.806  12.012  16.717  0.0219  0.1664 -0.0223
14040W        W57031  19.222  28.606   0.753 -0.1823  0.0081 -0.1618
14041W        W57032  27.917  28.457  24.607 -0.0078 -0.5552  0.0994
14042W        W57033  21.642   4.274  27.766 -0.0551  0.0671  0.0077
14043W        W57034   4.325  23.646   2.177 -0.1834  0.1523 -0.1162
14044W        W57035  24.037  22.803   5.370 -0.0456  0.0261 -0.1686
14045W        W57036   8.929  12.461  29.142 -0.1695  0.2530  0.0422
14046W        W57037   4.306  16.953   1.137 -0.2664 -0.1839  0.3367
14047W        W57038  34.260  20.855  10.001  0.0116 -0.1876  0.1215
14048W        W57039  21.457  23.961  27.932  0.1324  0.2488 -0.3890
14049W        W57040  18.205  29.510   8.017 -0.0747 -0.3059  0.0085
14050W        W57041  27.432  28.760  20.482 -0.1615  0.0311  0.2935
14051W        W57042  12.676  26.137   0.038  0.2012 -0.0393 -0.0339
14052W        W57043   4.985  24.218  24.503  0.0182 -0.1968  0.1482
14053W        W57044   1.651  18.590   5.929  0.1388  0.0399 -0.0203
14054W        W57045  26.992  28.228   3.901 -0.0766  0.2006  0.0839
14055W        W57046  32.861  12.260  24.436 -0.1728  0.2987  0.2961
14056W        W57047  29.729  33.724  21.881 -0.1408 -0.0950 -0.1450
14057W        W57048  19.002  16.926   3.692 -0.1348 -0.1463  0.1143
14058W        W57049  10.594  14.806   1.965  0.0086 -0.0738  0.1106
14059W        W57050  27.056  27.184  18.766 -0.1575  0.1399  0.0471
14060W        W57051   9.118   7.596  28.918 -0.1256 -0.1009 -0.1459
14061W        W57052  18.042  28.301  27.802 -0.0853 -0.1858 -0.3081
14062W        W57053   9.827   9.998  10.341  0.0252  0.1476 -0.0032
14063W        W57054  18.869   5.096   9.578  0.1523  0.1004  0.0435
14064W        W57055  27.101  19.624  18.880  0.2006  0.0225 -0.1751
14065W        W57056  24.515  20.087  23.157  0.1848  0.0392 -0.3053
14066W        W57057   9.721  26.021  25.700 -0.0474  0.5311  0.1428
14067W        W57058  14.700  18.947   8.697 -0.0567  0.0485  0.0280
14068W        W57059  15.160  17.959  28.599 -0.0326 -0.0217  0.1661
14069W        W57060  18.366  16.368  22.979 -0.1586 -0.1470 -0.4158
14070W        W57061  23.278  12.548   8.145  0.1547  0.1906  0.0473
14071W        W57062  16.926  11.693  28.431  0.2549  0.3688  0.1091
14072W        W57063  28.070  22.737   1.399 -0.0418 -0.1908 -0.2487
14073W        W57064  11.084   1.684  27.220  0.0400  0.1611 -0.1442
14074W        W57065  14.001  29.459   2.052  0.0248 -0.1198 -0.0657
14075W        W57066  28.433  26.134  15.865 -0.0059 -0.3350 -0.2352
14076W        W57067  16.371   9.709  28.759  0.1580  0.1183  0.1356
14077W        W57068  20.230   7.531   0.168 -0.0288 -0.1448 -0.3072
14078W        W57069  28.259   5.974  16.878 -0.0681 -0.1699  0.0440
14079W        W57070   7.753   0.856   6.605  0.0192 -0.1665  0.2554
14080W        W57071  15.522   9.793   0.745 -0.6106  0.1175  0.0393
14081W        W57072   5.887  23.031   5.674 -0.1658  0.0387 -0.0405
14082W        W57073   4.336  19.940   2.584 -0.3528 -0.2605  0.1702
14083W        W57074   5.216   8.627   9.567 -0.0454  0.0506  0.1669
14084W        W57075  13.245  18.368   4.012  0.0298 -0.0852  0.1580
14085W        W57076  19.860  11.442   0.317 -0.1130 -0.2718  0.2179
14086W        W57077   9.266  21.287  10.197 -0.1821  0.0831  0.0090
14087W        W57078   7.959  33.762   8.330 -0.2389  0.1195 -0.1681
14088W        W57079  32.271  27.133  27.319 -0.2162 -0.1455 -0.0623
14089W        W57080  24.718   9.395   5.963 -0.0265  0.0194 -0.2467
14090W        W57081  20.736  16.058  22.860  0.0068  0.0163  0.5039
14091W        W57082  14.455  21.575   6.797 -0.0835  0.1524  0.3070
14092W        W57083   0.981  22.989   9.208 -0.1069  0.1605  0.1893
14093W        W57084  17.309  19.501   2.515  0.2018 -0.0966 -0.0740
14094W        W57085   9.118  33.211  10.189 -0.1672 -0.1644  0.0038
14095W        W57086  20.346  21.749  25.004  0.1503 -0.1213 -0.3596
14096W        W57087  12.538  22.713  25.684  0.2583  0.0699  0.3212
14097W        W57088  30.198  24.195   2.552  0.1388  0.1625  0.0978
14098W        W57089  30.016  20.975   9.796 -0.0249  0.0638 -0.2834
14099W        W57090  26.648  18.526   7.142  0.0887  0.1152  0.2451
14100W        W57091  31.334   1.161  24.194 -0.2548 -0.0615 -0.0258
14101W        W57092   0.753  25.679   3.405 -0.2640 -0.1652  0.1317
14102W        W57093  22.960   8.572   4.633 -0.1322 -0.0522 -0.0335
14103W        W57094   3.654   9.409   9.750  0.2434  0.2762 -0.1366
14104W        W57095  20.674  13.576   5.192  0.0477  0.1869  0.1345
14105W        W57096  20.788   5.204   7.761 -0.2757  0.2102 -0.1252
14106W        W57097  13.168  12.342  15.998 -0.0266  0.0993 -0.0560
14107W        W57098   3.039  18.885   8.283  0.1097  0.1262  0.1123
14108W        W57099   5.751  26.736   7.957 -0.3314 -0.0108  0.0091
14109W        W57100  32.710   8.767   8.686 -0.0703  0.0947  0.0459
14110W        W57101   5.307  27.998   5.185  0.3393  0.2145  0.0243
14111W        W57102  16.002  12.990  17.953 -0.0954  0.0734 -0.2002
14112W        W57103   7.568  24.177  23.320 -0.0116 -0.1948 -0.0587
14113W        W57104  24.998  14.200  27.492 -0.2404 -0.1410 -0.3832
14114W        W57105  20.301  13.883  20.648 -0.0128  0.1712 -0.2886
14115W        W57106  28.909  13.729  20.587  0.1674 -0.0189  0.3692
14116W        W57107   0.485  10.673  25.513  0.0370  0.1480 -0.1252
14117W        W57108  30.562   5.419   8.706  0.0922 -0.1242 -0.0307
14118W        W57109  14.121  22.768  27.454  0.0972 -0.0341  0.0731
14119W        W57110  30.052  25.268  22.737  0.1008  0.2319 -0.2065
14120W        W57111  14.060  20.233  23.559 -0.2277 -0.0052 -0.0750
14121W        W57112  20.504  22.025   0.844 -0.1749 -0.1110  0.2056
14122W        W57113  26.892  33.613  21.530  0.3659  0.1874  0.1635
14123W        W57114  29.751  31.058  26.301 -0.2275 -0.2149  0.2081
14124W        W57115  14.965  17.354  25.993 -0.2645 -0.0573 -0.0241
14125W        W57116  18.286  28.617  24.365  0.0366  0.2677 -0.2183
14126W        W57117  19.959  12.342   4.321 -0.3026  0.0675 -0.3204
14127W        W57118   5.984  12.486  10.970  0.0481  0.1044 -0.1003
14128W        W57119  32.168  20.483  20.161  0.0193  0.1190  0.0732
14129W        W57120   3.047  26.683   8.974 -0.1529 -0.1189  0.0154
14130W        W57121  19.025  15.676   5.649  0.2813  0.0701  0.0981
14131W        W57122  22.327  11.698  24.930 -0.1074  0.0689 -0.3295
14132W        W57123  18.789   2.683  23.555  0.0487  0.1585 -0.0859
14133W        W57124   8.681  30.526  24.033 -0.0265 -0.0212  0.0475
14134W        W57125  29.087  15.461   4.770  0.2266 -0.0176 -0.2611
14135W        W57126  19.146  23.895  28.748 -0.2258 -0.2198  0.1387
14136W        W57127  30.535  20.651   2.796 -0.1120 -0.0551 -0.0363
14137W        W57128  10.335  19.482   1.606 -0.1009  0.0119 -0.0538
14138W        W57129  27.997  21.626  28.577  0.1756  0.0168  0.2464
14139W        W57130   6.058  28.874   2.145 -0.2192 -0.1949 -0.0003
14140W        W57131  21.746   9.864  21.687 -0.2320 -0.0282  0.0730
14141W        W57132   7.294  13.128  26.198 -0.3428 -0.0274 -0.1425
14142W        W57133  13.988  30.873   6.275  0.2176 -0.3365  0.2271
14143W        W57134  24.134   8.769   3.874  0.0351 -0.1140  0.0514
14144W        W57135  23.290  24.517   8.635  0.1609 -0.0341  0.0904
14145W        W57136  24.262  15.477   3.024  0.0469  0.4223  0.0209
14146W        W57137  23.153  29.512  15.129  0.1921 -0.0626 -0.1462
14147W        W57138   0.549  24.241   0.143  0.0626  0.0895  0.1053
14148W        W57139   2.986  29.309  10.048 -0.1120 -0.0336  0.0605
14149W        W57140  24.416  26.464  19.847  0.2455 -0.1678 -0.3451
14150W        W57141  28.139  13.613   0.443  0.3088  0.0352  0.1906
14151W        W57142  19.508  11.357  28.387  0.0404 -0.0146  0.0513
14152W        W57143   5.039  25.964  28.513  0.1520 -0.1448 -0.1949
14153W        W57144  24.545  20.486  26.727  0.2133  0.0202  0.2278
14154W        W57145  14.677  15.540   7.723 -0.1871 -0.0853  0.3068
14155W        W57146  16.179   9.194   6.804 -0.1904 -0.1519 -0.2064
14156W        W57147  11.009  16.692   4.645  0.1256  0.1147 -0.3219
14157W        W57148  29.337   4.992  23.663  0.2552 -0.0526 -0.0023
14158W        W57149   8.093  21.898   9.085  0.0363 -0.0335  0.0742
14159W        W57150  24.979  10.102  10.204 -0.0313 -0.1259  0.1486
14160W        W57151   9.095  26.570   0.307 -0.0898 -0.1155  0.0541
14161W        W57152   7.218  21.799  10.312  0.1792 -0.1061  0.0596
14162W        W57153  14.501  25.047   6.527 -0.4136 -0.2494  0.1257
14163W        W57154  10.228  18.846  16.753 -0.0748 -0.1388  0.1510
14164W        W57155   3.835  23.634   9.871  0.0016 -0.1705 -0.1755
14165W        W57156  23.512  20.502   3.303 -0.1860  0.0193 -0.0309
14166W        W57157  11.486   6.769  28.603 -0.3163 -0.0595  0.1312
14167W        W57158   1.768  32.859  26.158  0.1022 -0.3705  0.2320
14168W        W57159  25.253  22.514   6.056  0.1240 -0.0536 -0.2621
14169W        W57160  20.081  16.197  23.335  0.0461 -0.1150  0.0147
14170W        W57161  10.597   8.209  19.255  0.3000 -0.1221  0.0192
14171W        W57162   0.046   3.043  28.297  0.0755  0.0286 -0.0417
14172W        W57163  13.662  27.015   1.640 -0.0391  0.0258  0.0226
14173W        W57164  15.596  11.757  24.571 -0.0682  0.0569 -0.1987
14174W        W57165   8.647   3.462   7.765  0.1777 -0.0294 -0.3775
14175W        W57166  13.239  17.452   3.194  0.2308 -0.2533 -0.0400
14176W        W57167   9.669   2.593   7.876  0.0831 -0.0578  0.0990
14177W        W57168  11.231  27.381  20.044 -0.0751  0.0545  0.1310
14178W        W57169  22.860   0.255  20.852  0.4340  0.1403  0.0590
14179W        W57170  18.228  12.862   4.716  0.0190  0.0761  0.0720
14180W        W57171  13.367  27.958   3.355 -0.1153  0.3110 -0.0330
14181W        W57172  12.946  14.468   0.283 -0.1226  0.3883 -0.1657
14182W        W57173  11.897   5.309  21.327  0.3765 -0.1329 -0.2532
14183W        W57174   9.563  17.453  28.950  0.0178  0.0977  0.1020
14184W        W57175  15.017  28.677   7.377  0.1861  0.0076 -0.0089
14185W        W57176   5.362  25.626  25.108 -0.1986  0.1757 -0.3989
14186W        W57177  33.183  18.862   9.861  0.0077  0.0782 -0.1553
14187W        W57178   9.175   7.182   0.357 -0.0756  0.0407  0.0370
14188W        W57179  24.780  16.661  25.687  0.2370  0.0471  0.1637
14189W        W57180   7.708  25.782   5.025  0.2663 -0.0808 -0.1392
14190W        W57181  20.826   7.983   8.303 -0.0468 -0.1892 -0.0770
14191W        W57182  31.759  23.881  24.184 -0.0623 -0.2629 -0.2261
14192W        W57183  28.561  29.806  28.068 -0.0224 -0.4414  0.2415
14193W        W57184  11.613  26.955   3.781 -0.1682  0.0808 -0.0939
14194W        W57185   5.089  27.927  19.784 -0.0677 -0.2364  0.1136
14195W        W57186  15.413  30.841  23.058 -0.1565 -0.0043  0.2047
14196W        W57187   2.461  17.222   6.039 -0.1121  0.1462  0.1089
14197W        W57188  21.826  12.610  17.783 -0.1955 -0.0673 -0.0289
14198W        W57189  10.821  22.803  25.193 -0.0886  0.2592  0.0693
14199W        W57190  17.026  20.462  22.906  0.1064  0.1239 -0.0392
14200W        W57191  21.178  27.863   2.928 -0.0135  0.1637  0.0997
14201W        W57192  31.533  23.826   1.528 -0.2485  0.0349  0.0499
14202W        W57193  14.658   3.098  25.971  0.0161  0.1718  0.1112
14203W        W57194  18.456  24.425   2.277  0.3405  0.0542 -0.0482
14204W        W57195   9.213  14.203   6.474  0.0651 -0.0581 -0.0005
14205W        W57196  16.088  10.206   5.967  0.2558 -0.2099  0.4598
14206W        W57197  27.645  15.228   0.087  0.0290  0.0147  0.1247
14207W        W57198  22.606  11.714   7.317  0.0299 -0.0632  0.0016
14208W        W57199  24.474  19.210  27.370  0.2365  0.3242 -0.2587
14209W        W57200  18.779  16.439   4.742  0.1211 -0.2764  0.2831
14210W        W57201  16.283  14.430   6.451 -0.0765  0.0046  0.3031
14211W        W57202   2.351  26.597   5.714 -0.1885  0.0466  0.4557
14212W        W57203  34.653  20.924   4.670  0.0085  0.0436 -0.3177
14213W        W57204  29.386  10.583   3.929 -0.0432 -0.1113  0.1946
14214W        W57205  12.957  26.733   8.780 -0.0036  0.2485  0.1695
14215W        W57206  25.260  28.079   8.360 -0.0726 -0.0074 -0.3742
14216W        W57207  21.765  32.980   6.177  0.1140  0.1951  0.0259
14217W        W57208  12.277  23.875   9.874 -0.1208 -0.1206 -0.0729
14218W        W57209  12.921  17.338   6.953  0.1349 -0.0180 -0.0856
14219W        W57210  13.490  12.276   7.625 -0.2965  0.1513 -0.0781
14220W        W57211  19.004   9.457  14.497 -0.1711  0.0092  0.2009
14221W        W57212  29.261   3.759  24.171  0.1180 -0.0819  0.0619
14222W        W57213   5.008  10.883  25.637  0.2505 -0.1730  0.0790
14223W        W57214  12.894  22.196  28.903  0.0243  0.1289  0.1210
14224W        W57215  26.024  12.483   5.333  0.1862 -0.3138 -0.2002
14225W        W57216   2.508  18.709  26.383 -0.2324 -0.3019  0.1935
14226W        W57217   1.822  27.600  28.889 -0.0686  0.4423 -0.1411
14227W        W57218  12.649  34.573  27.671  0.0274 -0.3038 -0.0870
14228W        W57219  33.510  12.061   9.702  0.0019 -0.0618 -0.2274
14229W        W57220  23.846   8.370   4.029  0.0788  0.0409 -0.0451
14230W        W57221   7.635  30.130   0.084 -0.3372 -0.0415  0.2773
14231W        W57222  12.796   5.506  28.423  0.2472 -0.1977  0.3102
14232W        W57223  26.132  23.083   0.257  0.0711  0.2722  0.0600
14233W        W57224  14.734  19.891   8.546  0.1147  0.1005 -0.0839
14234W        W57225   1.983   5.968  17.650  0.3303  0.1449 -0.2050
14235W        W57226  19.755  16.623   0.709  0.1660  0.0947 -0.1643
14236W        W57227  27.465  31.938  26.176 -0.0372 -0.2786  0.1209
14237W        W57228  11.681   8.828   6.065  0.4357  0.0703  0.0198
14238W        W57229   7.937   4.039   0.222  0.2058  0.4138  0.3289
14239W        W57230  10.587  10.031   7.130 -0.0546  0.1325  0.1977
14240W        W57231   9.335  34.574  23.835  0.1844  0.3378 -0.1337
14241W        W57232   9.237   8.187  10.912  0.3238  0.1703  0.2026
14242W        W57233  16.487  16.686   0.762 -0.3954 -0.0746 -0.0987
14243W        W57234  28.588  17.073  17.921  0.0765  0.2821 -0.0338
14244W        W57235  13.239  29.251   4.694 -0.0142 -0.0733  0.1148
14245W        W57236  27.763  31.773   6.930 -0.0943  0.2565 -0.0086
14246W        W57237  21.305   1.670  27.014 -0.1371  0.2570 -0.0766
14247W        W57238  21.631  26.400  28.427  0.0698 -0.1852 -0.2936
14248W        W57239  20.296  33.976   0.157 -0.3088 -0.0459 -0.1418
14249W        W57240  24.281  20.576  28.226 -0.2400 -0.1255  0.2129
14250W        W57241  19.261  31.602   2.867  0.0340 -0.0859  0.2614
14251W        W57242  17.711  13.165  24.849  0.0401  0.1720  0.1441
14252W        W57243  18.218  26.167  19.652  0.1334 -0.2897  0.0795
14253W        W57244  21.656  27.876  21.127 -0.1157  0.0137 -0.1156
14254W        W57245   7.436   5.507  10.532  0.3272 -0.1618  0.2342
14255W        W57246  13.517  16.294  24.723 -0.0210 -0.0621  0.2248
14256W        W57247  17.765  29.050   5.845  0.1463 -0.5429 -0.0371
14257W        W57248  21.097   2.098  22.992 -0.3500 -0.2497 -0.0307
14258W        W57249   6.331  20.489  28.264 -0.0703  0.3111  0.0295
14259W        W57250  22.918  25.299  27.841  0.0252 -0.1141  0.1088
14260W        W57251  16.647  20.352   6.214 -0.0799  0.1738  0.2173
14261W        W57252  33.840  31.246   2.876 -0.1005  0.0123 -0.1754
14262W        W57253   5.670   9.915  28.709  0.6903  0.2414 -0.0192
14263W        W57254  15.506  12.799   5.771 -0.0723 -0.3207 -0.0106
14264W        W57255  11.642  23.526  27.533 -0.0540 -0.2349  0.3706
14265W        W57256   9.505  21.910   9.207  0.0191 -0.1114 -0.0934
14266W        W57257   3.760   2.245  10.855 -0.0533  0.0617  0.0185
14267W        W57258  15.330  20.913  20.885 -0.2773  0.1735  0.0340
14268W        W57259  23.153  14.548  22.575 -0.3048 -0.0261  0.1197
14269W        W57260   7.103  25.001   4.683 -0.0672  0.0363  0.0316
14270W        W57261  10.887  18.187   9.292 -0.0785 -0.0395  0.2300
14271W        W57262  27.187  13.582   1.145  0.0718  0.0340  0.3502
14272W        W57263  12.434  17.347  15.515 -0.2764 -0.1772 -0.1510
14273W        W57264  14.265  20.308   3.276  0.0898 -0.0824  0.3300
14274W        W57265   3.023  19.420   8.941 -0.0644  0.1386  0.2187
14275W        W57266  28.488  12.377   4.424 -0.2215  0.1670  0.1682
14276W        W57267   7.501  27.375  23.577  0.0338  0.0650  0.1253
14277W        W57268  18.422  17.606   4.304  0.3284 -0.1770 -0.1662
14278W        W57269   7.739   4.461   1.740 -0.0231 -0.2172 -0.1255
14279W        W57270  24.147  32.482   8.815  0.1639 -0.2646 -0.1977
14280W        W57271  25.660  22.396  20.236  0.2506 -0.0340  0.1125
14281W        W57272  18.944   7.366  24.423 -0.1793  0.1422 -0.0637
14282W        W57273   0.762  19.322  29.253 -0.2082 -0.1726  0.1411
14283W        W57274  22.458  18.640   3.374 -0.1481 -0.1304  0.1359
14284W        W57275  29.154  25.762  21.950  0.2214 -0.1087  0.1431
14285W        W57276   4.051  10.875   8.025 -0.1555  0.2246  0.2275
14286W        W57277  18.106  13.961   8.040 -0.0333 -0.0214 -0.0099
14287W        W57278  19.047  15.331   2.178 -0.0621 -0.0772  0.0008
14288W        W57279  20.091  17.575  24.703  0.0416  0.0561 -0.3010
14289W        W57280  33.200   6.026  24.063 -0.1083 -0.0895  0.4073
14290W        W57281  32.724  30.785   6.772  0.2127 -0.3171  0.2362
14291W        W57282  16.149  24.698   5.482  0.0999  0.3615 -0.0502
14292W        W57283  14.653   2.219  20.669  0.0203  0.1027  0.0792
14293W        W57284  16.094   6.359  10.754 -0.0828  0.0909 -0.0427
14294W        W57285  15.973   7.700  25.140  0.1442  0.1076  0.1944
14295W        W57286  22.306  15.441  20.322  0.1579  0.4959  0.0848
14296W        W57287  19.425  28.866  24.299  0.1251 -0.0179  0.3023
14297W        W57288  29.605  29.864  23.735  0.3274 -0.0149  0.2780
14298W        W57289  21.017  16.221   6.413 -0.1034  0.0890  0.1944
14299W        W57290  12.162   7.819   5.518 -0.2467 -0.0127 -0.2164
14300W        W57291  22.870  25.740  17.188  0.3256 -0.0170 -0.4020
14301W        W57292  18.328  26.684  18.845 -0.2447  0.1947 -0.1511
14302W        W57293  14.461  12.040   5.928 -0.1065 -0.3429 -0.1850
14303W        W57294  31.351  27.787  17.049 -0.1469  0.0449 -0.0837
14304W        W57295  33.422   4.031   9.383  0.1634 -0.0652  0.1622
14305W        W57296  22.794  21.753  27.136 -0.2170  0.0134  0.2500
14306W        W57297   5.566  34.672  28.958  0.1295  0.0775 -0.2253
14307W        W57298  13.299  14.737   2.508  0.1039  0.1381 -0.4980
14308W        W57299  34.777  26.726   4.430 -0.0026  0.0956 -0.2645
14309W        W57300  29.396  17.472   5.288  0.0984 -0.0701 -0.3936
14310W        W57301  20.770  14.853   2.097  0.0928 -0.0710  0.4619
14311W        W57302   9.393  12.245   5.945 -0.1931  0.0055  0.3840
14312W        W57303   3.362  26.728   1.145  0.0164 -0.1981  0.0552
14313W        W57304  31.733  22.164  26.156 -0.0528 -0.0600  0.0836
14314W        W57305  12.196  25.621  27.166 -0.3313 -0.0701  0.2910
14315W        W57306  21.034  27.280   9.600  0.1248 -0.2318 -0.0076
14316W        W57307  31.993  17.821   2.823  0.5219  0.1652 -0.1687
14317W        W57308  11.015   3.864  24.116  0.0925  0.0878 -0.1056
14318W        W57309  25.659  17.063   1.568 -0.2365  0.1806 -0.0309
14319W        W57310  21.711  26.686   9.049  0.0192  0.1761  0.1919
14320W        W57311   5.319  24.458  21.142 -0.1184 -0.0404 -0.0759
14321W        W57312   5.273   8.539   1.619 -0.4479 -0.1111 -0.0996
14322W        W57313   6.041   3.699   2.801 -0.1209 -0.1040  0.1480
14323W        W57314  12.478  25.864   9.458 -0.0257  0.1580 -0.0676
14324W        W57315  21.626  21.766   0.172 -0.0084 -0.1666 -0.0589
14325W        W57316  24.569  25.759  26.646  0.0068  0.1394 -0.2459
14326W        W57317  23.171  21.750  20.378 -0.0538  0.1471 -0.0972
14327W        W57318  33.675  21.888   0.488 -0.3106  0.0408 -0.0840
14328W        W57319  16.907  17.140   1.566 -0.0142 -0.2189  0.4412
14329W        W57320   0.950   7.191   6.476 -0.2480  0.1435  0.0237
14330W        W57321   3.774  21.863   0.306 -0.1675 -0.0253  0.0357
14331W        W57322  18.953  32.479  28.571  0.2561  0.1731 -0.2942
14332W        W57323  12.567   8.130  28.070  0.0496  0.0423 -0.0488
14333W        W57324   2.203  30.689   4.412 -0.5143 -0.2041 -0.3234
14334W        W57325  21.309  17.896   8.463 -0.0568  0.0798 -0.2516
14335W        W57326   0.936  29.554   1.760  0.2052 -0.0295 -0.0646
14336W        W57327  33.994   7.432   5.886  0.1002 -0.1113  0.1797
14337W        W57328  13.683  13.745  10.134  0.0320  0.3078 -0.0029
14338W        W57329   6.609  10.400  27.982  0.1676 -0.0281 -0.1263
14339W        W57330  18.879  17.293  28.169 -0.1785 -0.0586  0.0386
14340W        W57331  17.411  34.619   8.790 -0.0545 -0.1153 -0.3411
14341W        W57332  13.565  19.730   0.142 -0.0129  0.1046  0.1400
14342W        W57333  12.109  25.321  15.084  0.3011  0.2576  0.3520
14343W        W57334  15.068  33.107   9.159 -0.1055 -0.1758 -0.1400
14344W        W57335   2.903  12.453   7.731  0.3995  0.0284 -0.2331
14345W        W57336  25.817  19.434   1.038 -0.1444 -0.0894  0.2069
14346W        W57337  17.597  16.890  23.243 -0.2133  0.0929  0.0066
14347W        W57338  12.557  18.959  15.893 -0.0495 -0.0754 -0.2949
14348W        W57339  20.069  22.804  13.405  0.0490 -0.0063 -0.3043
14349W        W57340  23.504  32.110   7.737  0.2742  0.2107 -0.1087
14350W        W57341  15.324  23.866   1.548  0.2106 -0.1912 -0.0886
14351W        W57342   8.109  13.208  25.189 -0.1589  0.0398 -0.1234
14352W        W57343  16.013  14.251   7.962 -0.1798  0.0004  0.0245
14353W        W57344   5.614  21.400  28.408 -0.0992 -0.2957 -0.0952
14354W        W57345  13.056  11.597   1.936 -0.2180  0.3980 -0.0975
14355W        W57346  13.491  15.212  26.763 -0.1407 -0.0532  0.1299
14356W        W57347  19.578   1.018  25.706 -0.1409 -0.3798 -0.2350
14357W        W57348  31.289   0.035   8.397  0.0547 -0.3583 -0.3697
14358W        W57349  12.157  31.274   3.456 -0.0067 -0.2471  0.4407
14359W        W57350   5.368  19.040  22.333  0.1574 -0.0182 -0.1556
14360W        W57351  18.513  25.883   2.156 -0.2633  0.2391 -0.0766
14361W        W57352   3.417   5.168  21.354 -0.0628  0.0247  0.1094
14362W        W57353  26.277  21.857   1.653 -0.1758 -0.0223  0.0709
14363W        W57354  18.250  21.537  15.198  0.2074 -0.1721  0.0694
14364W        W57355   6.978  28.288   8.271  0.0863 -0.2243 -0.2334
14365W        W57356  10.466  18.266   6.670  0.0147  0.0376  0.2280
14366W        W57357  31.297   9.864   4.595  0.0156 -0.1013  0.0006
14367W        W57358  20.215  21.896   7.004 -0.3620 -0.2771  0.2791
14368W        W57359  12.173  18.532  28.480  0.0180  0.0485  0.2727
14369W        W57360  16.317  11.812   6.887  0.1357 -0.0091 -0.1165
14370W        W57361  17.518  13.605  26.910 -0.0484 -0.1947  0.1958
14371W        W57362  32.416  10.999  27.723 -0.1397  0.3770  0.1563
14372W        W57363   1.255   2.354  26.038 -0.0714  0.0021 -0.0556
14373W        W57364  17.891  23.114   7.750 -0.1453 -0.1826 -0.1039
14374W        W57365  12.698  29.140  17.540 -0.0145 -0.0567  0.0087
14375W        W57366   6.233  24.722  27.478 -0.0087 -0.0419 -0.0600
14376W        W57367  33.135   5.722   3.116  0.0155  0.1652 -0.0133
14377W        W57368  18.930  12.360   7.492 -0.0773 -0.2671  0.0052
14378W        W57369  21.946  13.528   3.638  0.0533  0.0652 -0.0650
14379W        W57370  30.885  21.601   4.966  0.2430 -0.1299 -0.1872
14380W        W57371  27.173  31.775  17.221 -0.2263 -0.1268 -0.2366
14381W        W57372  20.018  17.087  26.098  0.1625 -0.1774 -0.0069
14382W        W57373  21.698  26.675  27.883  0.0445  0.0008  0.0424
14383W        W57374  11.846  14.073  21.404  0.1637 -0.1162 -0.1472
14384W        W57375   0.652   8.741  21.820 -0.0528  0.0968  0.0586
14385W        W57376  18.904  25.030  26.880  0.0453  0.4068 -0.3084
14386W        W57377  20.687   6.843  15.790 -0.1561 -0.0124  0.0737
14387W        W57378   3.294  20.098  18.317  0.2322 -0.1816 -0.3038
14388W        W57379   2.146  27.534   5.211 -0.0316  0.0756  0.2332
14389W        W57380  24.597  26.470  22.986  0.1257 -0.0207  0.1382
14390W        W57381   5.824  11.910   7.154 -0.3128  0.1259 -0.1647
14391W        W57382  12.624  32.822  18.730  0.0041  0.5028 -0.2197
14392W        W57383  19.785  26.642  20.727  0.0202  0.0677 -0.3224
14393W        W57384  13.315  11.122   2.987 -0.0078 -0.0637  0.0690
14394W        W57385  21.016  15.166   7.996 -0.0675 -0.1241 -0.0321
14395W        W57386  34.455  30.667   6.620  0.1560 -0.1592 -0.2821
14396W        W57387  26.309  22.798  25.518 -0.0251  0.5291 -0.0550
14397W        W57388   7.512  33.726   0.473  0.3092 -0.0528 -0.0237
14398W        W57389  12.308  21.775   5.657 -0.1793 -0.0518 -0.2279
14399W        W57390   4.248   5.290  10.758 -0.1810  0.0199 -0.1617
14400W        W57391  11.977  30.436   2.996 -0.1453 -0.1582  0.4513
14401W        W57392  22.856  13.572   3.160  0.0525  0.0188 -0.0253
14402W        W57393  10.216   5.808   6.224  0.0420 -0.1558  0.2082
14403W        W57394  17.076  23.668  24.254 -0.5407 -0.1401  0.1611
14404W        W57395   1.516  17.246   2.653 -0.2012  0.0873 -0.1794
14405W        W57396   0.284  23.185  10.320 -0.1100  0.0851  0.2452
14406W        W57397  16.381  18.620   9.116 -0.1446 -0.0152  0.0197
14407W        W57398  22.996  29.083  26.899 -0.0180  0.0602  0.4145
14408W        W57399  22.094   4.445   7.668  0.2418 -0.0046  0.2982
14409W        W57400  19.769   9.018   5.591  0.1089 -0.0912  0.2164
14410W        W57401   4.617  22.482  17.359  0.0242  0.0199 -0.4833
14411W        W57402  28.978  13.171  28.525 -0.2353  0.2248  0.1114
14412W        W57403  26.564  19.354  29.095 -0.3755  0.0291 -0.2001
14413W        W57404  30.343  12.569   1.844  0.0766  0.3521  0.1830
14414W        W57405  18.268  26.310  22.335  0.1402 -0.0559 -0.1749
14415W        W57406  13.845  31.963   7.863 -0.0381  0.1561  0.3595
14416W        W57407  17.741  24.104   6.583 -0.0904  0.1327  0.0301
14417W        W57408  19.158  26.440   1.850 -0.0947 -0.0813  0.4686
14418W        W57409  24.494  29.043  25.764  0.1555 -0.2146 -0.1250
14419W        W57410  16.824  32.767   0.807 -0.1239 -0.0148 -0.1189
14420W        W57411  31.703  20.831   8.678  0.0400 -0.2188 -0.0890
14421W        W57412  17.915  26.753  27.239 -0.1339 -0.3193  0.1892
14422W        W57413  20.483  25.287   6.039  0.2342  0.0531 -0.0770
14423W        W57414   2.831   8.585   5.754  0.0322 -0.2939 -0.0368
14424W        W57415  15.174  26.684   0.321 -0.1169 -0.1546  0.2226
14425W        W57416  12.755  15.143   6.695  0.0042  0.0526 -0.1285
14426W        W57417  29.488   9.638   6.530  0.0023  0.1704 -0.2272
14427W        W57418   5.345  31.208  25.810 -0.0748  0.1160 -0.0693
14428W        W57419  22.625  11.684  20.919  0.1845 -0.0314  0.0131
14429W        W57420  24.349  16.624   4.266  0.0274 -0.0579  0.0788
14430W        W57421  27.323  25.651   1.998  0.1304  0.1740 -0.0099
14431W        W57422  21.730  27.094   3.788 -0.2437 -0.1440 -0.0268
14432W        W57423  21.621  29.559   8.344  0.1057 -0.2056  0.2563
14433W        W57424  26.847   2.202   2.909 -0.2831 -0.0720  0.2022
14434W        W57425  18.403  30.462  18.687 -0.2938  0.1257  0.0844
14435W        W57426  12.137  19.383   2.358 -0.2048 -0.1246  0.3148
14436W        W57427   2.318  30.938   0.614 -0.0626 -0.1666 -0.0885
14437W        W57428  30.753  22.080   6.988  0.3323  0.0593 -0.0002
14438W        W57429  26.869  21.875  23.791 -0.1280  0.3983  0.1899
14439W        W57430  12.025  16.735   4.956  0.3444 -0.2604  0.2727
14440W        W57431   1.362  22.248   9.473  0.2057  0.0168 -0.1168
14441W        W57432  11.945   8.384   6.279  0.1138  0.0159  0.2637
14442W        W57433  16.711   8.823   6.203  0.0921  0.1230  0.1200
14443W        W57434  27.361   8.331   6.214 -0.4648 -0.0525  0.2572
14444W        W57435  22.759  17.767  29.088 -0.2962 -0.1733  0.1194
14445W        W57436  17.561  16.912  26.347 -0.0660  0.2528  0.1313
14446W        W57437  10.047  28.889   5.208  0.1736  0.0030  0.1331
14447W        W57438  15.434  27.337   9.630 -0.0523 -0.2744 -0.2149
14448W        W57439  18.346  33.082  18.804  0.1451  0.0453  0.0194
14449W        W57440  26.405  25.320  24.698 -0.2713  0.1952  0.0324
14450W        W57441   5.842  29.272   3.674  0.2689 -0.0432  0.3427
14451W        W57442  14.082  12.379   4.398 -0.1957  0.0504  0.0115
14452W        W57443  26.126  15.528   7.091  0.1241  0.3036  0.2407
14453W        W57444   5.585  23.176  25.297  0.1123 -0.0143  0.0164
14454W        W57445   6.258  14.637  10.021  0.2704  0.3014 -0.0921
14455W        W57446  27.433  26.159   5.748 -0.0306  0.0282  0.1000
14456W        W57447  24.146  11.595   7.164 -0.0750  0.0657 -0.1437
14457W        W57448  18.718  29.202  23.735 -0.4077  0.4545  0.2558
14458W        W57449  27.926  13.606   1.071 -0.0867 -0.0807  0.1696
14459W        W57450  22.326  30.648   4.184  0.4284  0.2062  0.3114
14460W        W57451  12.667  27.404  28.464  0.3666  0.2185  0.2403
14461W        W57452  27.461  20.320  24.810  0.0992 -0.2851 -0.2189
14462W        W57453  10.944  33.050  19.673  0.1689 -0.0251 -0.0378
14463W        W57454  19.164   5.819  25.063  0.1846 -0.0663  0.3960
14464W        W57455  23.283  14.349   9.604 -0.1199  0.1693 -0.1451
14465W        W57456  28.441  26.736   0.071 -0.0580  0.3553  0.0527
14466W        W57457  17.646  25.623   8.549 -0.1100 -0.1307 -0.0436
14467W        W57458  24.137   8.462  28.924 -0.2499  0.3149  0.2627
14468W        W57459  12.083  26.870   2.477  0.1564  0.0505 -0.4389
14469W        W57460   2.413  19.216   5.414  0.2237  0.5331 -0.0404
14470W        W57461  23.043  18.064  19.426 -0.0406 -0.0354  0.3793
14471W        W57462  14.970  19.142  23.892 -0.1890 -0.1688  0.2768
14472W        W57463   6.796  20.422   0.227  0.1476 -0.1770 -0.3524
14473W        W57464  24.677  19.280   7.165 -0.2455 -0.0191  0.0654
14474W        W57465  25.343  16.616   3.607  0.2081  0.3188 -0.2862
14475W        W57466   5.423  17.504  18.441  0.2454  0.0111  0.1914
14476W        W57467  19.022  11.041   0.514 -0.2253  0.4127  0.0116
14477W        W57468   8.396  20.562   3.591  0.1704  0.0189  0.2577
14478W        W57469  26.256  21.644   9.182 -0.3065 -0.1028  0.0938
14479W        W57470  14.408   7.928   9.465 -0.1293  0.1088  0.0536
14480W        W57471  12.255  34.155   5.426 -0.1726  0.0485  0.0568
14481W        W57472  20.386  12.561  28.716  0.1444  0.0315  0.0226
14482W        W57473  20.305   1.636  27.819 -0.1070 -0.0546  0.0729
14483W        W57474  13.893   8.650  26.602  0.1938 -0.0047 -0.1130
14484W        W57475  21.368  13.428  27.990 -0.1272 -0.3871 -0.2204
14485W        W57476  15.627  27.691  25.597 -0.1825 -0.0304  0.3121
14486W        W57477  18.074   1.878   8.779  0.2211  0.0041  0.1117
14487W        W57478  30.985  18.830   7.850  0.0571  0.1690 -0.1153
14488W        W57479   7.234  27.906   6.831 -0.1072 -0.6063 -0.1850
14489W        W57480  32.682  15.059   0.640  0.0056 -0.1274 -0.6232
14490W        W57481  11.010  16.158  28.148  0.2921 -0.0679 -0.1057
14491W        W57482  15.553  16.972  28.314  0.1156  0.0298 -0.0304
14492W        W57483  10.577  25.514  14.225  0.1540 -0.0774 -0.2339
14493W        W57484  25.057  29.232   0.809  0.0223 -0.0563 -0.3842
14494W        W57485  19.374  29.627  23.765 -0.0225  0.1703 -0.3210
14495W        W57486  25.518  15.896   6.510 -0.1181  0.0002  0.0529
14496W        W57487  28.361   6.768  21.935  0.0706  0.0492  0.0601
14497W        W57488  14.633  14.989   3.816 -0.3176  0.1774  0.1074
14498W        W57489  19.454  17.350   6.087 -0.2013  0.0167  0.4427
14499W        W57490   9.632  18.399  26.324  0.1164  0.0222 -0.2417
14500W        W57491  18.860  22.998   0.978  0.0172 -0.0107  0.3170
14501W        W57492   6.245   4.342  20.773 -0.0798 -0.0264  0.1181
14502W        W57493  26.785  16.674   7.753 -0.1206 -0.2773 -0.0214
14503W        W57494   1.288  16.474   9.957  0.1306  0.3684  0.0444
14504W        W57495  24.415   5.992   9.617 -0.0393  0.1330 -0.2591
14505W        W57496  22.005  22.681  24.455 -0.0919 -0.0175  0.0846
14506W        W57497  32.540  29.857   7.375 -0.0236  0.0031 -0.2842
14507W        W57498  25.939  14.905   9.810 -0.0611  0.0967 -0.0983
14508W        W57499   7.859  34.289   8.747  0.3430 -0.1276  0.2891
14509W        W57500   5.261  18.363  24.845  0.2338  0.4503  0.0696
14510W        W57501  23.294  17.293   9.266  0.1170  0.0420 -0.1594
14511W        W57502   7.266   7.081   7.912  0.1072 -0.5665 -0.1528
14512W        W57503  15.697  17.245   2.166 -0.2947  0.0782  0.2679
14513W        W57504   7.068  31.439  27.572  0.1999 -0.1826  0.0530
14514W        W57505  27.980  18.313   5.972 -0.4260  0.0352  0.1177
14515W        W57506  10.504   7.900   1.228  0.0265  0.3305 -0.3186
14516W        W57507  13.517  22.134   4.270 -0.4070 -0.2167 -0.2272
14517W        W57508  11.600   5.684   8.103 -0.3396 -0.1478  0.0591
14518W        W57509  15.015  16.286   0.069  0.0307  0.0938  0.2157
14519W        W57510  24.995   7.596  22.614  0.4126  0.1472  0.1303
14520W        W57511  23.962  16.992   3.081  0.0147 -0.2085  0.0665
14521W        W57512  17.154  12.795   6.533  0.1399 -0.0027  0.0256
14522W        W57513  10.876  32.569   1.115 -0.1503 -0.1242  0.0110
14523W        W57514  34.609  12.270   3.717  0.2670  0.1513 -0.1362
14524W        W57515  10.061   4.570   6.098 -0.0037  0.1417  0.4680
14525W        W57516  27.689  17.412  18.669  0.3604  0.4400 -0.1497
14526W        W57517   1.529  24.032   6.972 -0.2443 -0.0003  0.0033
14527W        W57518  33.661  30.730  28.120  0.0856  0.2260 -0.1014
14528W        W57519  20.895  32.469  27.114 -0.1565  0.1804  0.1919
14529W        W57520  23.789  29.873   4.491 -0.1434 -0.0660  0.2892
14530W        W57521   3.557   0.293  25.290 -0.1435 -0.3051 -0.2137
14531W        W57522  29.424  18.509  21.040  0.2712  0.0312  0.2477
14532W        W57523  30.933  16.937   3.432  0.0106  0.2107  0.1047
14533W        W57524  16.877  29.046  27.928  0.0754 -0.3733  0.0500
14534W        W57525  28.911  27.036   8.156 -0.1211 -0.0546  0.1612
14535W        W57526  22.231  22.302   2.338  0.1489 -0.0284  0.2852
14536W        W57527  21.405  33.969  20.988 -0.0231  0.4043 -0.2655
14537W        W57528  34.585  15.337   3.051  0.0744  0.0767  0.1450
14538W        W57529  11.341  16.699   7.133 -0.2052 -0.1229  0.2094
14539W        W57530  14.757   6.935   2.322 -0.0378  0.1507 -0.3807
14540W        W57531  13.158  23.650   2.653 -0.1449 -0.1901 -0.1175
14541W        W57532  22.978  18.582  27.510  0.0816 -0.2163  0.3762
14542W        W57533  19.154  14.111   7.584 -0.0139  0.1328 -0.0660
14543W        W57534  16.025  17.531   7.240  0.1948 -0.0123  0.0511
14544W        W57535  19.702  29.451  20.977  0.1656  0.0467  0.0777
14545W        W57536  24.774  20.220   4.816  0.3412 -0.2195 -0.4826
14546W        W57537  16.431  21.433  13.197  0.1836  0.2094 -0.0263
14547W        W57538  14.661  33.302  26.948 -0.0406 -0.1015  0.1408
14548W        W57539  19.879  33.032   9.838  0.0994 -0.0127  0.1338
14549W        W57540   3.954  23.324  20.985  0.1018  0.2055 -0.2304
14550W        W57541  22.542   8.330  19.138  0.1610  0.2937  0.0647
14551W        W57542  20.991  33.321   3.250  0.0759  0.0553 -0.0320
14552W        W57543  24.642  17.493  22.599 -0.2229 -0.1109  0.2865
14553W        W57544  17.488  32.827   2.561  0.1939  0.0468  0.0976
14554W        W57545  21.190   9.361   4.732 -0.0196  0.1289 -0.0457
14555W        W57546  32.448  25.695   2.546  0.1468 -0.0030 -0.0757
14556W        W57547  22.293  26.954   5.378 -0.0408  0.0390 -0.0223
14557W        W57548  22.078  22.921  23.997 -0.2338  0.3029  0.1491
14558W        W57549  33.458  21.408   8.857 -0.2517  0.2522 -0.4744
14559W        W57550  33.348  14.507  21.085 -0.1472  0.0956 -0.0156
14560W        W57551  14.596  11.523   1.539  0.0747  0.2956 -0.1706
14561W        W57552  23.621  27.702   6.333  0.0583  0.1483  0.2864
14562W        W57553  10.160  26.231   1.662 -0.0148 -0.1655 -0.1379
14563W        W57554  11.287   7.532   8.711 -0.0797  0.2324  0.1759
14564W        W57555  14.358   9.084   7.254 -0.0648 -0.2616  0.1896
14565W        W57556   7.532  18.169  26.203 -0.0835 -0.0043 -0.0373
14566W        W57557  21.824  17.827   7.168 -0.0234  0.3264  0.3001
14567W        W57558   8.578   6.552   5.422  0.3884  0.2101 -0.2053
14568W        W57559  10.674   1.551   2.205 -0.3953 -0.1337  0.1870
14569W        W57560   1.245  16.496   3.144  0.1333  0.0746 -0.0888
14570W        W57561  14.541  13.298  21.099 -0.2371 -0.1150 -0.1500
14571W        W57562  26.929  13.946   5.854  0.1938 -0.1791 -0.0921
14572W        W57563   0.354   5.659   6.793  0.1630  0.2044  0.0795
14573W        W57564  29.424  23.839   9.782 -0.0501  0.0387 -0.3414
14574W        W57565  26.362  29.267  25.255 -0.2195 -0.0693 -0.0933
14575W        W57566  34.091   3.000   3.718  0.1460 -0.4908  0.0667
14576W        W57567  32.616  11.080   0.179 -0.1875  0.1882 -0.2579
14577W        W57568  27.827  16.959   9.690 -0.4424 -0.2340  0.1048
14578W        W57569  18.688  19.467   1.419 -0.1410 -0.2722 -0.2677
14579W        W57570  16.944  14.958   3.874  0.1833  0.0646 -0.4467
14580W        W57571   9.525   2.745  22.012  0.0384  0.1775  0.0437
14581W        W57572  13.237  23.906  28.579 -0.4086 -0.1097 -0.0972
14582W        W57573  25.178  20.788   9.285 -0.1602  0.1124  0.0540
14583W        W57574   9.101  15.556  10.438  0.1034  0.1404  0.2985
14584W        W57575   6.248  17.327   0.655 -0.1813  0.1358 -0.2360
14585W        W57576   6.772   2.617  24.184  0.1069  0.0493  0.2976
14586W        W57577  10.532  25.498  28.784 -0.3620  0.0641  0.0866
14587W        W57578  21.504  12.803   4.198  0.3127  0.2414 -0.0734
14588W        W57579   6.915  10.002   6.375 -0.1519 -0.1311 -0.1493
14589W        W57580   0.711   8.081   2.655 -0.0570  0.0379  0.0350
14590W        W57581  26.097  34.119   0.677  0.2798 -0.1915 -0.0377
14591W        W57582  17.782  20.042   7.651  0.2226 -0.1305 -0.0494
14592W        W57583  13.688   7.816   4.662  0.1371 -0.0471  0.1250
14593W        W57584  34.240  18.894   7.909 -0.0797  0.2082 -0.1812
14594W        W57585   7.201  20.931   8.740 -0.2147  0.2178  0.3210
14595W        W57586  21.850  26.471  22.585  0.0327  0.3290  0.0358
14596W        W57587  19.755   7.091   4.959  0.2458 -0.0681 -0.3909
14597W        W57588  21.400  24.573  27.008 -0.0315 -0.1868  0.2555
14598W        W57589  14.507  11.293  19.605 -0.2301 -0.1697 -0.3485
14599W        W57590  14.965  18.612   9.343 -0.2520  0.3021  0.3779
14600W        W57591  20.714  11.316  23.277 -0.0803  0.0818 -0.1404
14601W        W57592  28.462  19.264   4.742 -0.0674 -0.1805  0.0379
14602W        W57593   9.961  19.542   6.188 -0.2412  0.0248  0.0418
14603W        W57594  21.578  18.415   8.334  0.0449  0.1105 -0.2930
14604W        W57595  32.872   6.076   9.756  0.3148 -0.0008 -0.0848
14605W        W57596   7.215  14.021   6.216  0.0676 -0.0058  0.1194
14606W        W57597  16.006  13.610   0.877 -0.1017 -0.2018  0.3020
14607W        W57598  23.807  10.951   1.173  0.1057  0.0433  0.2898
14608W        W57599  30.418  25.126   2.104 -0.0128  0.1298 -0.0083
14609W        W57600  32.896  27.186   3.758  0.1876  0.5637  0.0136
14610W        W57601   7.809  11.569  27.286 -0.1160  0.0070  0.2685
14611W        W57602  14.217  20.136   2.190  0.1808  0.0760 -0.0284
14612W        W57603   3.255  34.281   8.536 -0.1777 -0.2147  0.1774
14613W        W57604  19.197  20.989  17.906  0.0870 -0.1119  0.2371
14614W        W57605  22.608  25.902   2.807 -0.4814 -0.0648 -0.0590
14615W        W57606  15.248  14.024   4.402 -0.0376  0.1415 -0.0593
14616W        W57607  29.459  23.109   6.860  0.2822  0.1307 -0.0708
14617W        W57608  21.333  15.297   2.787 -0.0244  0.2518 -0.0298
14618W        W57609  22.371  18.848   2.428  0.0314 -0.0841  0.0988
14619W        W57610  30.463  12.282   6.979  0.0864  0.2458  0.1315
14620W        W57611  11.645  23.469   5.599 -0.0352  0.2297  0.0734
14621W        W57612   5.474   4.855  10.800  0.3760  0.1063 -0.0331
14622W        W57613  25.435   1.684  28.699  0.1270 -0.1666  0.2468
14623W        W57614  20.155  19.688   8.739  0.1517  0.0422 -0.2121
14624W        W57615  19.484  16.456   6.269  0.0277  0.1496 -0.0126
14625W        W57616  17.981  27.230  22.972  0.0765 -0.2648  0.3363
14626W        W57617  18.776  10.079   6.846  0.1631  0.2547  0.1050
14627W        W57618   5.788  17.862   3.366 -0.1290 -0.1748 -0.2113
14628W        W57619  24.401  17.119   3.390 -0.2451 -0.2135 -0.0199
14629W        W57620  17.513   1.814   6.044  0.1449 -0.0546  0.3055
14630W        W57621  14.876  17.621   2.258  0.0646  0.0809  0.3488
14631W        W57622  20.610  12.608  10.104 -0.0465  0.3025  0.0245
14632W        W57623  21.433  11.840   5.616 -0.1812  0.1017  0.0815
14633W        W57624  13.690  18.060   6.369 -0.1861  0.0055  0.5323
14634W        W57625  20.274  27.446   5.449 -0.2070 -0.0125  0.0129
14635W        W57626  22.338   7.374  24.789  0.0998 -0.1668 -0.1204
14636W        W57627  14.037  13.500  21.274  0.0583 -0.0274 -0.2800
14637W        W57628  32.863   9.238   2.952  0.0956 -0.1169 -0.0449
14638W        W57629  21.083  15.879  26.139  0.1019 -0.0911  0.1362
14639W        W57630  10.560  18.545  24.298  0.3544  0.1492 -0.1772
14640W        W57631   4.564  23.560   7.334  0.5442 -0.2428 -0.3717
14641W        W57632   0.556  32.530   1.048  0.0028  0.0753 -0.0707
14642W        W57633  12.281   0.167   1.746 -0.3039 -0.2611 -0.1168
14643W        W57634  13.992  21.473  25.807 -0.0922 -0.1125 -0.0842
14644W        W57635   9.053  20.195   1.280 -0.0631 -0.0332 -0.2774
14645W        W57636   0.213  17.724   9.263 -0.2409  0.0565 -0.3900
14646W        W57637  21.262  27.075   2.467  0.0805 -0.0034 -0.0954
14647W        W57638  21.666   2.640  24.920  0.1474  0.0668  0.2062
14648W        W57639  15.265  21.671   9.557 -0.0472 -0.0335 -0.2250
14649W        W57640  16.046  30.047  24.951 -0.0357  0.0646 -0.5194
14650W        W57641  27.931  18.194   3.262 -0.1412 -0.0038 -0.2378
14651W        W57642  12.208  16.542  17.702  0.2250 -0.0107 -0.0734
14652W        W57643  19.907   4.647  24.319 -0.0801  0.1309 -0.1087
14653W        W57644  19.957  23.642   8.091  0.2612 -0.0503  0.2026
14654W        W57645  28.024   2.010  20.526  0.0509  0.1643 -0.0711
14655W        W57646  23.210  20.957   6.469  0.0467  0.1340  0.1832
14656W        W57647  26.509  21.564   6.112 -0.0220 -0.3085  0.4327
14657W        W57648   0.407  24.482   2.950 -0.0231 -0.5160 -0.1540
14658W        W57649  23.938  16.831  25.746  0.2575  0.1336 -0.0165
14659W        W57650  23.603  27.637   5.197  0.1861  0.0095  0.1204
14660W        W57651  17.140   2.721   8.307 -0.4324 -0.0435 -0.3436
14661W        W57652  23.169  20.038  24.034  0.2141 -0.1744  0.0463
14662W        W57653   5.208  11.833   3.977  0.0475 -0.0253  0.1772
14663W        W57654  18.033  20.947  18.344  0.2666  0.1945  0.1007
14664W        W57655  19.465  18.791   7.889 -0.2028 -0.0565 -0.2108
14665W        W57656  15.443  33.758  27.849  0.1029  0.0628  0.1543
14666W        W57657   3.927  17.429   5.646 -0.0396  0.0161  0.3429
14667W        W57658  16.176  12.228   6.327 -0.2298  0.2425 -0.0862
14668W        W57659  16.595  21.096   2.271 -0.0029  0.1352  0.1008
14669W        W57660  14.379   0.969  27.114  0.6795 -0.0702 -0.1758
14670W        W57661   8.779  19.654   8.781 -0.0736  0.0089  0.3878
14671W        W57662   6.410  15.462   0.069  0.4479 -0.1119 -0.2119
14672W        W57663   6.014  26.401  19.740 -0.0839 -0.2604 -0.1705
14673W        W57664   2.125  18.657   3.534  0.2033  0.1835 -0.2354
14674W        W57665  16.047  29.192  14.789 -0.2048  0.1203  0.1116
14675W        W57666  19.903  23.640   5.932 -0.1079 -0.1238 -0.1037
14676W        W57667  28.373  18.508  28.782  0.0091 -0.0414 -0.2082
14677W        W57668  30.035  24.419   1.529  0.2019 -0.1126  0.0197
14678W        W57669  20.109  17.913  14.682  0.1058 -0.3089 -0.0482
14679W        W57670  20.387  24.262   6.518 -0.0807 -0.1790 -0.2388
14680W        W57671  12.037  12.206   4.999 -0.1545  0.2471  0.1416
14681W        W57672   9.432  17.821   1.980  0.0818  0.1517 -0.1060
14682W        W57673  23.313  27.312  25.964 -0.0707  0.0417  0.0457
14683W        W57674   5.808  18.158   8.447  0.2525 -0.0918  0.2330
14684W        W57675  29.319   5.056  28.508 -0.0641  0.0381  0.0244
14685W        W57676  22.573  14.688  17.922  0.1176  0.3024  0.1992
14686W        W57677  23.124   8.060   9.820  0.0055 -0.1366 -0.0697
14687W        W57678  25.092  32.517   6.830  0.0241  0.3828  0.0408
14688W        W57679  21.203  10.729   6.769 -0.1128  0.1728  0.0446
14689W        W57680  23.376  25.825   3.967 -0.0918  0.0477 -0.1262
14690W        W57681  19.849  33.734  27.769 -0.1177 -0.0399 -0.1832
14691W        W57682  21.806  12.490   3.895 -0.0985 -0.0804  0.0809
14692W        W57683  31.912   3.308   7.427 -0.2743  0.2904 -0.1492
14693W        W57684  32.646  15.545   0.832  0.4618 -0.0637  0.1630
14694W        W57685  27.593  28.211  29.251  0.0490  0.1991  0.3621
14695W        W57686  19.563  25.477  20.324  0.0372  0.1190 -0.3528
14696W        W57687  13.153  27.944   6.421  0.1145 -0.0692  0.3104
14697W        W57688  31.504  16.555   2.184 -0.1126 -0.1315 -0.0471
14698W        W57689  23.496  30.671  20.312 -0.2016 -0.1777  0.1307
14699W        W57690  21.530   8.742  10.030 -0.2701 -0.1322  0.1226
14700W        W57691   7.372  32.692   7.176 -0.4306 -0.1352 -0.3299
14701W        W57692  20.978  21.557   4.475 -0.1646 -0.0582 -0.0324
14702W        W57693  19.151  29.969   2.824 -0.1877 -0.2423  0.0800
14703W        W57694  18.057  26.530   8.671  0.1893  0.2043 -0.4127
14704W        W57695  10.867  17.364   6.028 -0.0252 -0.2761  0.0333
14705W        W57696   8.801  14.264   4.725 -0.0456 -0.2134 -0.2384
14706W        W57697  21.494  23.041  19.231  0.0839 -0.3696  0.2073
14707W        W57698  18.266  15.717   6.148  0.1721 -0.1505 -0.1459
14708W        W57699  10.337  20.723  28.937 -0.0470 -0.0708  0.0553
14709W        W57700  19.351  19.285  25.014  0.1172 -0.1439 -0.2464
14710W        W57701  19.391  21.045  15.754 -0.3617  0.1737 -0.1340
14711W        W57702   7.240   5.571   8.213 -0.2231 -0.0380  0.0159
14712W        W57703  26.471  26.325   1.630 -0.0855 -0.1692 -0.1222
14713W        W57704  27.264  27.261   2.744 -0.3498  0.0080  0.3139
14714W        W57705  19.800  13.939  24.820  0.1283 -0.0120 -0.0796
14715W        W57706   1.062  25.930   8.418  0.2369  0.0740 -0.3557
14716W        W57707   9.213  20.343  28.174  0.1961  0.1494 -0.3314
14717W        W57708  20.578  20.262   2.257 -0.3965  0.3684  0.1012
14718W        W57709  26.108  25.221   7.109  0.1454  0.2358  0.1020
14719W        W57710   4.322  34.517   3.704 -0.2849 -0.0263  0.1368
14720W        W57711  10.062  30.334   5.813 -0.1481  0.1499 -0.1849
14721W        W57712  21.761  21.207   4.340  0.2132 -0.1467 -0.1986
14722W        W57713  18.237  11.516  28.536  0.1279  0.3235 -0.0126
14723W        W57714  27.740  11.830  28.102  0.2269  0.1314  0.1182
14724W        W57715  32.800  15.314  28.711 -0.1867 -0.0622  0.0250
14725W        W57716   6.522  29.251   1.938  0.2039 -0.0936 -0.0937
14726W        W57717  14.237  34.790   5.769 -0.1028  0.0602 -0.1838
14727W        W57718   0.624  13.780   5.063 -0.3554 -0.0160  0.1306
14728W        W57719  22.132   3.103   3.639 -0.0439 -0.1876  0.2980
14729W        W57720  31.070  27.310  27.498  0.1697 -0.1253  0.3682
14730W        W57721  31.337  17.538   4.819 -0.2574  0.0727  0.1279
14731W        W57722  16.864   7.031   6.331  0.2242  0.1086 -0.3528
14732W        W57723   1.703  20.005   4.828 -0.1527  0.1537  0.0958
14733W        W57724  22.310  10.170  24.305 -0.0748 -0.3147 -0.0146
14734W        W57725  21.230  20.221  25.885 -0.2629 -0.0514  0.0935
14735W        W57726  17.005  18.632  28.811 -0.1399 -0.1919  0.2984
14736W        W57727  19.826  15.555   6.119 -0.2201  0.3846  0.0680
14737W        W57728  20.846  24.457   6.209  0.1238 -0.0134  0.0039
14738W        W57729  19.886  19.981   5.780  0.1632 -0.1204  0.0681
14739W        W57730  33.895  25.635   6.323  0.3369 -0.3255 -0.0302
14740W        W57731   7.059   3.142  28.418 -0.2562  0.0854 -0.3117
14741W        W57732   5.813  14.547  28.084 -0.0904 -0.0693  0.1106
14742W        W57733  16.105  17.590   1.057 -0.0310  0.1567  0.2732
14743W        W57734  21.848  16.647   8.030 -0.1561 -0.0846  0.3497
14744W        W57735  19.762  14.073  19.278  0.1524 -0.3059 -0.1484
14745W        W57736  28.835   9.134   9.237 -0.0493  0.0969 -0.1637
14746W        W57737   6.657  30.302   5.280 -0.2071 -0.0239 -0.2330
14747W        W57738  23.784  14.760   8.338 -0.1239 -0.0509 -0.2299
14748W        W57739   6.138  28.803   8.545 -0.1142  0.0505  0.3218
14749W        W57740  15.607  29.979  24.668 -0.1576 -0.1256 -0.1039
14750W        W57741  15.006  21.175   4.764 -0.0619 -0.3463  0.0436
14751W        W57742  31.361  15.945  25.440 -0.0014  0.1781  0.2257
14752W        W57743  22.896   7.569   8.342 -0.3958  0.0910  0.3834
14753W        W57744  16.966  20.269  24.689  0.0681  0.0349  0.1073
14754W        W57745  24.466  14.159  24.060  0.2466 -0.0993  0.0185
14755W        W57746  16.337  22.771  18.585  0.0830  0.0516  0.2990
14756W        W57747  29.639  27.531   3.793  0.1119  0.1855  0.3347
14757W        W57748  31.530  24.284   8.631 -0.3369  0.0715 -0.1490
14758W        W57749   6.652  12.813   2.526 -0.2825 -0.0556  0.0067
14759W        W57750   8.964   4.280   5.499  0.1245 -0.0735 -0.0235
14760W        W57751  30.669  31.093  22.246  0.3468 -0.0341  0.2525
14761W        W57752   4.550  19.213   3.179 -0.0965  0.0175  0.1739
14762W        W57753  17.844   6.402   6.532  0.0884  0.3027 -0.0488
14763W        W57754   9.883   2.612   8.500  0.0091 -0.0208 -0.0620
14764W        W57755  29.374  25.033   9.203 -0.1939  0.3461  0.0962
14765W        W57756  24.004  27.480   2.673 -0.0681 -0.0396  0.0736
14766W        W57757  13.107  26.886  28.990  0.0450  0.0433 -0.3288
14767W        W57758  32.335  26.717   2.865 -0.2780 -0.1550  0.3418
14768W        W57759  27.924  15.291  22.418  0.3338  0.0734 -0.0988
14769W        W57760  19.956  29.267  22.231 -0.1331  0.3436 -0.2903
14770W        W57761  24.989  23.755   7.468  0.1961  0.0385  0.0841
14771W        W57762  25.888  10.228   4.173  0.0928 -0.1019 -0.0360
14772W        W57763  22.610  13.484   2.197 -0.2567 -0.1984  0.5332
14773W        W57764  12.131  23.303  24.492  0.1167  0.0357  0.1480
14774W        W57765  16.616  16.179   0.902  0.3784 -0.2102  0.1659
14775W        W57766  24.929   4.372  27.269 -0.0197 -0.0667 -0.1643
14776W        W57767  29.536  15.572  10.329  0.7457 -0.0465  0.3953
14777W        W57768  16.481   4.988   3.975 -0.0358  0.1568  0.1397
14778W        W57769  23.939  27.667   5.763  0.2176 -0.1098 -0.1091
14779W        W57770  11.150  23.552   7.769 -0.3507  0.0866 -0.1457
14780W        W57771  17.586  21.398   2.760  0.3319  0.0209 -0.1968
14781W        W57772  22.282  20.419   0.320 -0.0811  0.0283  0.1090
14782W        W57773  10.557  28.738   7.957 -0.1801  0.1850  0.0285
14783W        W57774  21.473  17.597   6.787  0.2494  0.5605  0.3559
14784W        W57775  31.744  15.450  20.332 -0.0840  0.0922  0.0728
14785W        W57776   8.779  13.487  22.282 -0.0527 -0.2778  0.1385
14786W        W57777  14.111  12.295   1.106  0.0713 -0.0145  0.3200
14787W        W57778   9.389  30.019   7.988 -0.3531  0.2379 -0.3201
14788W        W57779   3.723  21.546  25.185 -0.3617  0.0591  0.1131
14789W        W57780  18.326  11.881   2.876 -0.0367 -0.1107 -0.2614
14790W        W57781  27.411  20.408   6.494  0.0962 -0.0210  0.3079
14791W        W57782  23.140  22.138  28.893 -0.2106 -0.0390 -0.0048
14792W        W57783  19.414  12.074   7.289 -0.4923  0.1316  0.2127
14793W        W57784  14.612   3.936   8.241 -0.1997 -0.5055 -0.1901
14794W        W57785  17.833  15.481   7.301  0.2139  0.2227  0.2862
14795W        W57786   7.039  29.343   8.495 -0.0023  0.4030 -0.0972
14796W        W57787  22.832  23.209   1.541  0.0693  0.1139 -0.0593
14797W        W57788  13.150  25.117   5.755 -0.2986 -0.1290  0.2608
14798W        W57789   3.760  20.731  28.734 -0.2454  0.3279 -0.1078
14799W        W57790  27.713  30.093  24.963  0.0366 -0.1765  0.1764
14800W        W57791  30.164  17.731   8.047  0.0215  0.1194  0.1590
14801W        W57792  12.772  16.810  20.836 -0.0000  0.0458  0.0123
14802W        W57793   3.916  12.218  19.091 -0.0846  0.4501  0.0052
14803W        W57794  16.750   9.872   1.751 -0.2414 -0.0172 -0.2824
14804W        W57795  19.289  21.011   5.158  0.1983 -0.0251 -0.0186
14805W        W57796  29.096  15.848   1.164 -0.1101 -0.2908 -0.2318
14806W        W57797   8.422  16.741   6.210 -0.1539  0.0838  0.3209
14807W        W57798  24.047  22.123  18.429 -0.2534 -0.1115  0.1153
14808W        W57799  28.541  19.103   0.834  0.0351 -0.0814  0.0699
14809W        W57800  14.064  30.972   8.165  0.2980 -0.1070 -0.2400
14810W        W57801  15.438  18.781   5.439  0.1219  0.4403 -0.4801
14811W        W57802  14.623  17.972   4.117 -0.0512  0.1176 -0.3256
14812W        W57803  23.103  26.517   7.748  0.0631  0.2528  0.0563
14813W        W57804  12.273  24.584   4.362 -0.1993 -0.1669  0.0523
14814W        W57805  12.184   3.168  20.986  0.1137 -0.0499  0.0877
14815W        W57806   4.490   8.956   9.927  0.0293 -0.0389 -0.2192
14816W        W57807  28.048  21.494   0.322 -0.1063 -0.0766  0.2043
14817W        W57808   7.425  12.433   5.490  0.2054  0.2082  0.2136
14818W        W57809  29.237  26.520   5.756  0.0712 -0.0214 -0.0746
14819W        W57810  25.967  20.732  28.707  0.3753 -0.0343  0.0999
14820W        W57811  24.394   0.499   0.586  0.0761  0.0073 -0.3579
14821W        W57812  17.763  10.192   6.361 -0.1780 -0.0653 -0.1402
14822W        W57813  10.042  14.212   8.884 -0.0322 -0.0035  0.1416
14823W        W57814  11.542  28.454   2.551 -0.2916 -0.0262  0.0735
14824W        W57815  20.469  25.234  24.941  0.1043  0.1828 -0.0289
14825W        W57816  26.085  13.321   3.607 -0.1443  0.2228 -0.1994
14826W        W57817  26.040  16.926  28.119  0.1211 -0.0607 -0.1382
14827W        W57818  33.420  30.836   9.395 -0.1277 -0.2389 -0.2088
14828W        W57819   0.346  16.666   4.157  0.1292  0.1850  0.2391
14829W        W57820  33.893  20.737  10.303 -0.0273 -0.1103 -0.2164
14830W        W57821  16.666   3.644  24.968 -0.0280  0.0262 -0.0321
14831W        W57822   8.271  21.283   9.925  0.0885 -0.1980 -0.0442
14832W        W57823  16.718  14.844  28.284 -0.2138 -0.0711 -0.0104
14833W        W57824  14.308  21.062  19.098 -0.0806 -0.0675 -0.0767
14834W        W57825  10.283  23.377   3.520 -0.0491 -0.1027 -0.1117
14835W        W57826  31.196  25.141   2.477 -0.1627 -0.1621  0.1636
14836W        W57827  13.129  17.095   2.423 -0.1563  0.2145 -0.2347
14837W        W57828  29.032  10.205   2.969 -0.1821 -0.1027 -0.1113
14838W        W57829   8.626  22.212   3.811 -0.0750  0.2153 -0.1539
14839W        W57830  33.841   9.068   4.173 -0.0400 -0.3512 -0.1554
14840W        W57831   9.988   4.614  29.110 -0.0549 -0.1308  0.4141
14841W        W57832  33.445  14.690   4.000 -0.5404 -0.0183  0.1108
14842W        W57833  15.701  14.217   2.084 -0.3226  0.4112  0.1138
14843W        W57834  19.257  30.540   7.304 -0.1655  0.2421 -0.1328
14844W        W57835  20.883  30.562   5.704 -0.0683  0.1593  0.3125
14845W        W57836  10.486  26.113   9.914  0.2135  0.3091 -0.1618
14846W        W57837  31.923   9.713   9.188 -0.1248  0.4135 -0.0385
14847W        W57838   5.612  12.050  10.868  0.1730 -0.2771 -0.0729
14848W        W57839  22.356  24.444   4.851 -0.4340  0.1851  0.3928
14849W        W57840  13.864  22.493   7.258  0.0838  0.0986 -0.1755
14850W        W57841  11.946  30.669   6.480  0.1836  0.1542  0.0822
14851W        W57842  34.801  30.866   6.931 -0.0289 -0.2478  0.2769
14852W        W57843  27.643  26.793   1.063  0.2881  0.0890 -0.2376
14853W        W57844  12.345  27.877  23.199 -0.0343 -0.2163  0.0429
14854W        W57845  23.045  16.214  15.211 -0.4044  0.0234 -0.1855
14855W        W57846  21.388   5.423  22.238 -0.1408 -0.2251 -0.0302
14856W        W57847  27.426   1.662   0.773 -0.0245  0.0758  0.2093
14857W        W57848  27.509   5.349   7.989  0.3320 -0.2533  0.1871
14858W        W57849  21.624  25.325   7.161 -0.0145  0.0434 -0.0682
14859W        W57850  21.321  13.514  26.894 -0.3987 -0.1220  0.1893
14860W        W57851  15.748  33.879   7.330 -0.3070  0.2973  0.0954
14861W        W57852  29.159  26.126  26.509 -0.1194 -0.1092 -0.3390
14862W        W57853  25.971   4.037   4.208  0.3791 -0.1047  0.2166
14863W        W57854  24.441  22.440   2.503 -0.1800  0.0811 -0.1266
14864W        W57855  10.300   1.595  20.417 -0.0378 -0.4711  0.1762
14865W        W57856   4.982  19.668  11.033 -0.0716  0.1778 -0.2061
14866W        W57857  13.292  14.387  22.977 -0.4097 -0.0507  0.1893
14867W        W57858  14.721  22.812  28.160  0.0940 -0.1239  0.4006
14868W        W57859  26.588  24.463  24.426  0.3246 -0.3896  0.0763
14869W        W57860  18.733  25.499   7.438 -0.0222 -0.0409 -0.0931
14870W        W57861  20.912   3.984   6.283  0.1056 -0.2879 -0.0356
14871W        W57862  17.373  20.032  15.445  0.2309  0.0774 -0.2115
14872W        W57863  11.961  19.437   8.835  0.1069 -0.1505 -0.2785
14873W        W57864  20.093  18.144   3.641  0.1099 -0.0059  0.1866
14874W        W57865   1.306  34.301  21.280 -0.0024  0.2745 -0.3355
14875W        W57866  17.133  25.153  27.582 -0.1262 -0.1184  0.1734
14876W        W57867  16.036  19.900   7.668  0.0363  0.2046  0.1566
14877W        W57868  29.546  15.519  28.477 -0.1250 -0.0386 -0.1732
14878W        W57869  10.158  17.307   1.401 -0.3216  0.1999  0.0626
14879W        W57870  20.016  20.217   1.110  0.2350 -0.0109 -0.1103
14880W        W57871  32.376  32.734   8.797  0.1657  0.0835 -0.1978
14881W        W57872  26.455  27.164  27.973  0.1418  0.0150 -0.0722
14882W        W57873  24.723   5.371   5.813 -0.0760  0.1512  0.1776
14883W        W57874  19.892  19.018  22.282 -0.1220  0.0497 -0.0323
14884W        W57875  15.794  15.162   8.397  0.2122 -0.0035 -0.1261
14885W        W57876  18.355   4.494  27.475 -0.2105 -0.0101 -0.0104
14886W        W57877  15.697   5.119   7.332 -0.0772  0.0079  0.1757
14887W        W57878   0.899   3.949   2.374 -0.0617 -0.1178  0.0591
14888W        W57879   5.517   3.673   6.157  0.2541  0.0273 -0.3403
14889W        W57880  21.050  26.411   5.473  0.2630  0.0219  0.0686
14890W        W57881  13.723  30.562   9.860  0.0796  0.0177  0.3008
14891W        W57882  11.122   3.818   8.063  0.0111  0.0913  0.0649
14892W        W57883  24.532  19.404   8.046 -0.2032  0.0952 -0.0901
14893W        W57884  24.830  34.298  24.388 -0.0208  0.0520 -0.0499
14894W        W57885  25.481  16.974   6.571  0.1840  0.0085 -0.0715
14895W        W57886  13.667  20.244   8.160 -0.0954  0.0478  0.1599
14896W        W57887  10.820  28.021   4.813  0.2282 -0.0050  0.3891
14897W        W57888  25.395  24.687   6.456  0.1736 -0.0221 -0.0293
14898W        W57889  17.370  15.333  27.223 -0.1577 -0.0348 -0.0089
14899W        W57890  16.942  10.077   6.184 -0.3006  0.2049  0.0783
14900W        W57891  16.030  13.508   6.332 -0.5383  0.2552  0.4791
14901W        W57892  14.630   9.628   6.390  0.0173  0.1411 -0.0257
14902W        W57893  24.401  11.686   1.466 -0.1986 -0.1058 -0.4810
14903W        W57894   1.420  16.258  11.374 -0.1621  0.1863  0.1673
14904W        W57895  23.411  15.466   9.377 -0.0332 -0.0545 -0.1835
14905W        W57896  20.319  23.444   8.377 -0.0990  0.1791  0.2548
14906W        W57897  14.297  18.905  25.126  0.2647  0.1744 -0.1640
14907W        W57898  19.791  29.373   2.334 -0.0372 -0.1370  0.0439
14908W        W57899  19.510  21.530   4.886 -0.2736 -0.2107  0.1475
14909W        W57900   6.230  18.032  22.792  0.1861 -0.0857 -0.1976
14910W        W57901   9.338  28.127   8.792 -0.1256 -0.0407  0.0148
14911W        W57902  24.522  14.302   4.938  0.1651 -0.0250  0.2785
14912W        W57903  17.596   8.207  28.469 -0.0647 -0.0827  0.4440
14913W        W57904  27.358  22.581   6.846  0.0605  0.0098 -0.1282
14914W        W57905  28.226  27.449   3.784 -0.2654 -0.2078 -0.0520
14915W        W57906  16.278   8.829   7.173  0.0986 -0.0582  0.0084
14916W        W57907  33.722  15.697   2.330  0.1340 -0.2942  0.1459
14917W        W57908  18.527  28.435   2.556 -0.2501  0.1234 -0.2709
14918W        W57909  19.936  21.904   1.700  0.0974 -0.1862 -0.0230
14919W        W57910   0.113  21.796   3.725 -0.0497 -0.3294 -0.0167
14920W        W57911  18.987   1.771  26.234  0.1644  0.1551  0.0134
14921W        W57912  21.640  12.392   7.709  0.1949 -0.1919 -0.0793
14922W        W57913   8.917   3.749  10.365  0.1652 -0.1706 -0.3481
14923W        W57914  24.150  25.553  10.050  0.0400  0.3843 -0.1922
14924W        W57915  14.891  33.839   9.934 -0.3664 -0.0751 -0.0160
14925W        W57916  20.330  19.676   5.421  0.3793  0.2490 -0.0493
14926W        W57917  25.105  26.161  24.337 -0.0612  0.1491  0.1250
14927W        W57918  20.864   4.462   6.392  0.2176 -0.1352  0.3017
14928W        W57919   1.162  26.817   7.524 -0.1201 -0.5205  0.0640
14929W        W57920  29.106  26.304   8.601 -0.1163  0.2913 -0.1026
14930W        W57921   6.053  11.890   7.641  0.0196 -0.2217  0.2455
14931W        W57922  18.138  26.041  20.287  0.1919  0.1711 -0.0576
14932W        W57923  14.824   8.359   7.945  0.1915  0.0210  0.1986
14933W        W57924  30.442  25.312   4.109 -0.1838  0.3071  0.2266
14934W        W57925  19.441  26.267   0.904  0.1874 -0.3049 -0.0752
14935W        W57926  25.631  18.955   5.620 -0.2794 -0.0785  0.3290
14936W        W57927  13.780  19.105   6.108 -0.0863  0.2482 -0.0461
14937W        W57928  19.700  18.292   9.042  0.1061  0.0941 -0.3136
14938W        W57929  18.457   4.584  26.181 -0.2535  0.1800  0.0314
14939W        W57930  33.776  31.221   0.646  0.0003 -0.1152  0.1112
14940W        W57931  29.538   0.773   1.419 -0.4221 -0.0235  0.1271
14941W        W57932   6.416  25.267   4.659  0.0331 -0.1312 -0.0485
14942W        W57933  13.489   1.225  10.939  0.2394  0.0329  0.3933
14943W        W57934  34.775  17.275  17.091 -0.0652 -0.1384  0.1221
14944W        W57935   9.657  24.169   1.744  0.1379 -0.1484  0.0379
14945W        W57936  25.470  16.946  28.682 -0.0600  0.1105 -0.2813
14946W        W57937  16.664  30.574   4.776 -0.2315 -0.0459  0.1769
14947W        W57938  32.984  15.589   4.345  0.1039 -0.2262 -0.0585
14948W        W57939  21.401  20.628   3.163 -0.3111  0.0257  0.0194
14949W        W57940   8.442   4.763  24.106 -0.1284  0.0150  0.1647
14950W        W57941  25.290  18.730   6.588  0.1552  0.3584  0.0849
14951W        W57942  29.262  14.595  14.997 -0.0729  0.0175  0.0908
14952W        W57943  20.177  14.333  25.534  0.1871  0.1951  0.0306
14953W        W57944  16.082  19.108   4.385 -0.0291  0.0458  0.2443
14954W        W57945  32.654  11.658  28.143 -0.1723 -0.1638 -0.0666
14955W        W57946  17.340  33.426  25.832 -0.0908  0.0328 -0.1055
14956W        W57947  14.207  11.904  22.767  0.1106 -0.2460  0.0702
14957W        W57948  19.930  22.674   0.739  0.2717  0.0983 -0.0604
14958W        W57949  23.961   6.616  29.078  0.0626  0.2762  0.2452
14959W        W57950  22.221  15.344   8.635 -0.1666  0.2534 -0.0948
14960W        W57951  17.609  16.403   5.976  0.0184  0.2407  0.1599
14961W        W57952   9.561  14.058   5.806  0.1530 -0.1933  0.3523
14962W        W57953  28.996  21.401   3.811 -0.3057  0.0970  0.0453
14963W        W57954  22.972  14.972  20.889  0.2184 -0.0243  0.3362
14964W        W57955  17.199  31.285   9.893 -0.1475 -0.0863  0.0894
14965W        W57956  15.168   5.121   7.445  0.1131  0.3133 -0.0581
14966W        W57957  12.080  14.477  19.338 -0.3481 -0.3721 -0.0059
14967W        W57958  19.501  10.912   2.029 -0.2519 -0.0456  0.1756
14968W        W57959   5.433  20.744   9.136  0.2477  0.1095  0.1804
14969W        W57960  34.103  20.239   4.499  0.0630 -0.0933  0.1418
14970W        W57961  20.120  27.561   2.592 -0.2701  0.1942 -0.0317
14971W        W57962  21.586  18.380   6.149  0.2260 -0.3913  0.1780
14972W        W57963  13.713  28.655   2.818 -0.1211 -0.1333  0.1233
14973W        W57964  14.312  17.457   5.778  0.0722 -0.0607  0.1219
14974W        W57965  13.588  19.781  22.322  0.3462 -0.0744  0.1265
14975W        W57966  10.507  25.889   4.971  0.1927 -0.2474  0.1088
14976W        W57967  11.812  11.771   7.806  0.1649  0.0136 -0.0201
14977W        W57968  24.916  27.868   0.068  0.3198  0.0468 -0.0086
14978W        W57969  22.600  12.182   2.360  0.2820 -0.0478 -0.0611
14979W        W57970  28.738  29.333   5.739 -0.1187 -0.1311  0.2526
14980W        W57971   1.448  17.136   8.359 -0.2959 -0.2257  0.1181
14981W        W57972   9.708  14.229   2.496 -0.2532  0.0662 -0.2759
14982W        W57973  29.877  21.969  28.024 -0.0857  0.1602  0.1608
14983W        W57974   0.384  25.647   2.043  0.1868  0.1982 -0.2218
14984W        W57975  23.423  23.458  23.440 -0.1201  0.1631  0.0042
14985W        W57976   7.894  18.773   2.207 -0.1120  0.0960  0.0361
14986W        W57977  10.531  16.477   6.361 -0.1393  0.1071 -0.2286
14987W        W57978  24.646   6.971   8.765 -0.1858  0.1583  0.1893
14988W        W57979   0.384  23.240   7.543 -0.3094 -0.0872  0.0980
14989W        W57980  12.534  12.557   4.384 -0.0661 -0.1082  0.4357
14990W        W57981  20.097  16.054   5.012 -0.2000  0.0837 -0.2476
14991W        W57982  11.356  19.490   8.585  0.1510 -0.1464  0.1373
14992W        W57983  20.529  14.975   8.730  0.0108 -0.1142 -0.0410
14993W        W57984  19.389  20.533  27.831 -0.2900 -0.0358 -0.2839
14994W        W57985  20.476  29.083   4.892  0.3259  0.0066 -0.1902
14995W        W57986   2.489   2.656   6.878  0.0394  0.1415  0.1622
14996W        W57987   9.242  31.129   0.039 -0.1441  0.2336 -0.0433
14997W        W57988  24.061  13.986   6.514 -0.0019 -0.1001  0.4103
14998W        W57989  14.840  14.209   0.582  0.0917 -0.0764 -0.1838
14999W        W57990  23.964  14.491   5.816 -0.0447 -0.0658 -0.1130
15000W        W57991  15.235  25.834  18.555  0.1445  0.2746  0.0130
15001W        W57992  17.336  21.742   8.018 -0.1292  0.2123  0.1115
15002W        W57993  11.101   4.304  10.044 -0.2102 -0.2171  0.0163
15003W        W57994  18.645  23.884  15.819 -0.1060 -0.0563 -0.1116
15004W        W57995   9.778  19.237   3.272  0.0319  0.0894  0.0856
15005W        W57996  28.265  14.939   0.406 -0.1027 -0.0769 -0.0423
15006W        W57997  26.266  31.142   8.768 -0.0606  0.0876 -0.1328
15007W        W57998  32.353  14.423  28.609  0.0523  0.0157  0.1965
15008W        W57999  24.647  14.086  22.426 -0.2389 -0.0730  0.0492
15009W        W58000  27.525  19.938   4.401  0.2430  0.0763 -0.0127
15010W        W58001  24.881   9.100   0.571 -0.1665  0.3772 -0.1745
15011W        W58002  22.021  26.641   3.675  0.2472  0.1667 -0.1371
15012W        W58003  26.042  20.687   9.179 -0.3970 -0.1049  0.5841
15013W        W58004   6.059   6.495  23.941  0.1106  0.1902  0.0258
15014W        W58005  32.314  23.643   4.444  0.3973 -0.2260 -0.0814
15015W        W58006  31.849  17.466   6.644 -0.3298  0.0618 -0.1125
15016W        W58007  18.116   9.468   7.956  0.1363  0.1592 -0.0322
15017W        W58008  17.769   5.777   9.640 -0.2228 -0.1941 -0.1203
15018W        W58009   4.161  19.038   4.699  0.1234  0.3624 -0.1506
15019W        W58010  23.040  27.822   7.627 -0.0804 -0.1188  0.0450
15020W        W58011  33.633  22.472   5.498  0.0816 -0.5512 -0.5346
15021W        W58012   9.438  29.267   8.441 -0.2493 -0.2001 -0.1283
15022W        W58013  34.742  17.879  11.137 -0.1012 -0.2685  0.0526
15023W        W58014  20.867  10.871   4.750 -0.1348  0.1109  0.2260
15024W        W58015  17.871   3.560   9.696 -0.0294  0.0418  0.2225
15025W        W58016  12.264  22.621   7.535  0.3186  0.1272 -0.0222
15026W        W58017  23.433   7.334   8.916  0.0458  0.0038 -0.0255
15027W        W58018  25.807  22.026   9.136  0.1619 -0.0478  0.4063
15028W        W58019   7.773  21.380   5.165 -0.0991 -0.2373  0.0914
15029W        W58020  17.981  16.074   8.957 -0.0935  0.3340  0.0672
15030W        W58021  21.083  24.537   0.083 -0.1106 -0.2049 -0.1962
15031W        W58022  29.866  34.683   1.853  0.0658 -0.1193  0.0185
15032W        W58023  26.880   3.799   2.961  0.0747 -0.3115  0.1554
15033W        W58024   3.511  13.739  23.893 -0.2256 -0.0994 -0.1287
15034W        W58025  12.294  23.387   6.811 -0.1624  0.1286  0.0186
15035W        W58026  17.996  19.660   7.338 -0.1568 -0.0345 -0.2229
15036W        W58027   9.191  24.710   8.394 -0.0038 -0.1882 -0.1566
15037W        W58028  19.621  12.108   4.082  0.1274  0.0137  0.2350
15038W        W58029  18.319  23.448   3.366  0.0324 -0.1351 -0.0557
15039W        W58030   2.018  18.313  10.008  0.2404 -0.3169 -0.1467
15040W        W58031   8.638  25.172   1.690 -0.1841  0.2903  0.1381
15041W        W58032  23.586  28.547   7.121  0.3070 -0.2634 -0.0552
15042W        W58033  26.773  21.895   3.379 -0.1049 -0.1849  0.0341
15043W        W58034  11.507   2.900   6.634  0.3585 -0.1558 -0.5197
15044W        W58035  23.822  14.273  24.026  0.0719 -0.0672  0.1284
15045W        W58036  20.267  25.109  24.059 -0.2480 -0.0345  0.1924
15046W        W58037  32.338  21.629  16.019  0.2921 -0.0361 -0.0130
15047W        W58038  33.876  10.171  18.457 -0.1040 -0.0728 -0.2420
15048W        W58039  21.386  14.153  28.761  0.1713  0.1844  0.2585
15049W        W58040  13.221  21.800   8.760  0.0816  0.1732  0.0675
15050W        W58041  24.917  16.942   6.289 -0.0198  0.0171  0.1289
15051W        W58042  21.406  17.889   4.776 -0.1567 -0.0217  0.0916
15052W        W58043  16.202  25.335   8.952  0.1090  0.1041  0.0312
15053W        W58044  21.774  23.984  21.222  0.2310  0.0717 -0.2286
15054W        W58045  22.155  25.037   4.864 -0.2085  0.1169  0.1405
15055W        W58046  33.413   9.798  24.509  0.0529  0.0288 -0.3681
15056W        W58047  13.704  15.536   9.569  0.1898 -0.0987  0.1763
15057W        W58048  25.069  14.108   5.946 -0.1339  0.1076 -0.1095
15058W        W58049  14.697   0.019  27.028 -0.0132 -0.0503 -0.1680
15059W        W58050   2.947  28.398   3.044 -0.3169 -0.0440 -0.0071
15060W        W58051  29.431   7.179   4.626  0.1842 -0.0868  0.1342
15061W        W58052  22.406   9.351   4.259 -0.3149 -0.1622  0.3207
15062W        W58053  23.125   8.532   5.821 -0.0029  0.2033 -0.3655
15063W        W58054   2.257  23.722  22.577  0.0582  0.0606  0.1367
15064W        W58055  12.475  23.765   7.084 -0.0514  0.0135  0.0301
15065W        W58056  17.774  18.844  23.577  0.0467 -0.0644  0.1596
15066W        W58057  15.679  22.610  22.547 -0.5511 -0.2491  0.0703
15067W        W58058  14.415  17.366   2.401 -0.0387 -0.0287 -0.3213
15068W        W58059  25.738  13.482   5.457 -0.0220  0.2199  0.1013
15069W        W58060  19.353  17.850   6.035  0.3017  0.2135  0.2685
15070W        W58061  33.999  14.127   9.416 -0.0778 -0.2806 -0.0641
15071W        W58062   6.977   9.371   0.738 -0.1455 -0.1098 -0.0977
15072W        W58063  18.783  31.006   4.777 -0.0248 -0.0912 -0.2775
15073W        W58064  21.160   8.051   4.366  0.0786 -0.2572  0.0544
15074W        W58065  33.090  20.579  28.339  0.1615  0.0477 -0.0406
15075W        W58066  15.772  23.639   2.308  0.0371 -0.3215 -0.0164
15076W        W58067   4.911  27.797   4.799 -0.0014  0.0884  0.1041
15077W        W58068  31.376  18.377   9.288  0.0647 -0.0169  0.1543
15078W        W58069  32.822  33.439   5.236 -0.1821 -0.1213  0.2209
15079W        W58070   4.483  16.348   7.562  0.0227  0.3278  0.3706
15080W        W58071  30.509  25.762   3.058  0.2406  0.3193 -0.0656
15081W        W58072  29.976  16.099   5.633 -0.0539 -0.0636 -0.2108
15082W        W58073   3.269  23.914   5.395 -0.0194  0.3535 -0.1499
15083W        W58074  23.215  20.535   8.310 -0.1384  0.0920  0.1524
15084W        W58075   8.657  24.486   4.341 -0.0160  0.1142 -0.4707
15085W        W58076  27.776  27.111  27.507  0.1467  0.0313 -0.2622
15086W        W58077  12.695  17.933   9.666 -0.0038 -0.1921  0.1775
15087W        W58078   5.935  11.981  21.636 -0.2145  0.0289  0.0703
15088W        W58079  13.396   8.349  10.300  0.1275 -0.3608 -0.1025
15089W        W58080  21.701  17.520  26.844 -0.1823 -0.2703 -0.1219
15090W        W58081   9.953  19.330  28.153 -0.0836  0.1760  0.0747
15091W        W58082  15.548  14.436   2.755  0.0414 -0.1477  0.1866
15092W        W58083  29.999  23.418   6.165 -0.1484 -0.2015  0.0327
15093W        W58084  18.955  21.490  28.940  0.2929 -0.1633  0.1289
15094W        W58085  15.562  33.456   2.403 -0.2158  0.2841 -0.2224
15095W        W58086  12.745   6.175   1.782  0.0209 -0.0101  0.1288
15096W        W58087  24.673  22.693   8.528 -0.0123  0.0609 -0.1973
15097W        W58088  19.615  23.784   8.427  0.1087  0.3216  0.1888
15098W        W58089  19.334  19.512   5.778  0.0875 -0.1876  0.1598
15099W        W58090  22.614  17.054  26.928  0.0765  0.0286  0.1913
15100W        W58091  34.520  23.185  26.139  0.0881 -0.0646  0.0608
15101W        W58092  31.675  30.723  26.976 -0.1690  0.1148 -0.2635
15102W        W58093  10.799   6.156   3.410 -0.1072 -0.1048  0.1560
15103W        W58094  14.139  24.712  22.388  0.0704  0.0148 -0.4594
15104W        W58095   0.883  25.700   2.132  0.2507  0.0179  0.1301
15105W        W58096  18.439  23.738   7.762 -0.1977  0.0600 -0.2854
15106W        W58097  31.380  19.617   1.830 -0.0909  0.0008  0.0374
15107W        W58098  19.328  10.239   5.783  0.1212  0.4218 -0.1010
15108W        W58099  22.441   5.815   8.081  0.1145 -0.0158  0.0694
15109W        W58100   8.698  27.349  26.712  0.1327  0.1114  0.0710
15110W        W58101  19.090  17.049  24.488  0.3620 -0.1473 -0.0104
15111W        W58102  10.415  14.044   9.835 -0.2609  0.0997 -0.0035
15112W        W58103  15.639  18.330  22.814  0.1662 -0.0548 -0.1664
15113W        W58104   5.179  13.388  21.608  0.0449  0.0902  0.1912
15114W        W58105  20.156  20.456   7.545  0.0759  0.1548 -0.2125
15115W        W58106  18.870  25.966  23.307 -0.2154  0.0618 -0.0902
15116W        W58107   4.468  22.067  28.521 -0.0801 -0.1841 -0.0642
15117W        W58108  17.515  25.226   7.141 -0.0755 -0.1128 -0.1609
15118W        W58109  15.737  15.313  24.725 -0.2283  0.2158 -0.1674
15119W        W58110  20.149  32.229   3.886  0.0836 -0.0011  0.1683
15120W        W58111   6.991  20.220   3.121 -0.1048  0.0682  0.0720
15121W        W58112  15.083   9.333   8.908  0.0460  0.1701 -0.3037
15122W        W58113  14.626  12.203   3.589 -0.1351 -0.0548  0.5014
15123W        W58114  19.055  27.564   8.729  0.0937 -0.1486  0.0960
15124W        W58115  20.083   3.787   8.796  0.0991  0.3157  0.0011
15125W        W58116  33.821  19.249   1.602  0.0780 -0.1101  0.0512
15126W        W58117  12.741  16.407  22.643 -0.0994 -0.0174  0.0747
15127W        W58118  25.767  34.614   2.555  0.0326  0.3074 -0.1638
15128W        W58119  14.216  13.483  28.220 -0.1955 -0.2918 -0.0414
15129W        W58120  32.778  24.431   3.386 -0.0131  0.2595  0.2764
15130W        W58121  25.993  18.051  28.988  0.0718  0.2737  0.0927
15131W        W58122  20.199  20.856   6.487  0.1388 -0.0652  0.1712
15132W        W58123  17.264  27.827   4.283 -0.1018 -0.1810  0.2560
15133W        W58124  18.031  15.924   2.011  0.2066 -0.0501 -0.1083
15134W        W58125  12.093  17.750   7.554 -0.0641 -0.0621  0.0716
15135W        W58126  11.069  10.934   9.360 -0.0996  0.0050  0.3296
15136W        W58127  25.094  15.507   6.411  0.1395 -0.0131  0.3584
15137W        W58128   2.216  17.706   3.202  0.1322  0.0393 -0.1258
15138W        W58129  24.594  26.938   1.804 -0.3793 -0.1985 -0.0064
15139W        W58130  32.268  31.567   4.282 -0.0177 -0.0586  0.2728
15140W        W58131  28.753  18.667  22.867 -0.1701  0.3593  0.0677
15141W        W58132   7.121  12.092  28.441 -0.1824 -0.1064 -0.0184
15142W        W58133  18.524  16.545   7.842 -0.2949 -0.0673 -0.2366
15143W        W58134  27.314  33.212   4.344 -0.1085  0.1239 -0.3476
15144W        W58135  27.269   0.925  25.068  0.5969  0.1279  0.1153
15145W        W58136  24.715  10.305   7.520 -0.2136 -0.1643 -0.2014
15146W        W58137  16.498  18.162   2.122 -0.0892  0.0372  0.0466
15147W        W58138  20.806  16.841   4.280 -0.3049  0.2101 -0.2038
15148W        W58139  34.011  28.120   3.011  0.0876  0.1229 -0.0251
15149W        W58140   6.544  19.046   9.312 -0.2503  0.1477  0.0937
15150W        W58141  20.435  28.555   6.500  0.2210  0.0161  0.3974
15151W        W58142   2.020  23.406   1.587 -0.0393 -0.2300 -0.0154
15152W        W58143  14.045  16.388   1.323 -0.0798 -0.1763 -0.0018
15153W        W58144  32.757  31.941  19.851 -0.1049 -0.0949  0.3823
15154W        W58145  17.540  22.604  25.056  0.0873 -0.0368  0.0749
15155W        W58146  20.604   3.839   5.335  0.0651 -0.1836 -0.0716
15156W        W58147  24.602  18.004   2.570 -0.2982 -0.3691 -0.1053
15157W        W58148   9.623  11.207   2.761 -0.0493  0.1776 -0.1514
15158W        W58149   1.683  14.919   4.140 -0.4749 -0.0646  0.0772
15159W        W58150  23.390   6.104  25.137  0.2225  0.1385  0.1303
15160W        W58151   5.780   9.980  28.100  0.0191  0.2653  0.0631
15161W        W58152  14.778  25.358  25.363 -0.1127 -0.2902 -0.0546
15162W        W58153   8.707  32.734  29.000 -0.0175 -0.2420  0.5652
15163W        W58154  29.276   3.728  22.778  0.0606  0.0589 -0.1154
15164W        W58155  26.754  22.594  20.839  0.0672 -0.1471  0.1141
15165W        W58156  26.044  21.313   2.414 -0.0383 -0.4303  0.0494
15166W        W58157  19.385   2.966   2.953  0.1844 -0.0699 -0.0155
15167W        W58158  18.758  29.076  28.627 -0.1767  0.1828 -0.2838
15168W        W58159  11.280  10.537  23.099  0.1050 -0.0352 -0.0254
15169W        W58160  21.174  32.017  27.842 -0.2573  0.2491  0.2992
15170W        W58161  14.668  13.045   9.756  0.2323  0.3093 -0.0725
15171W        W58162  21.290  17.387  16.128 -0.0336 -0.1435  0.0077
15172W        W58163  20.970   5.369  21.395 -0.1147  0.1450 -0.2222
15173W        W58164  12.772   1.677   0.708 -0.2826 -0.0600 -0.0193
15174W        W58165  25.517  21.676  19.681 -0.1240 -0.1912  0.2148
15175W        W58166  23.169  33.134  15.198 -0.3656  0.0849  0.1244
15176W        W58167  10.293   0.765  29.205  0.1188  0.2070 -0.2590
15177W        W58168  18.892  29.297   3.318  0.2621 -0.2596  0.0201
15178W        W58169  23.660  31.785  23.732  0.1320 -0.3779  0.1443
15179W        W58170  19.481  14.096   6.127 -0.0104 -0.3067  0.3082
15180W        W58171   0.135  23.103  24.589  0.0595 -0.2326 -0.0028
15181W        W58172  11.586  23.753  25.017 -0.2455 -0.2620 -0.0158
15182W        W58173  21.092   9.128  18.590  0.0789  0.0379 -0.2577
15183W        W58174  28.958   3.764  21.377 -0.2044 -0.1216  0.2359
15184W        W58175  27.384  22.532   3.913 -0.1596  0.0284  0.1165
15185W        W58176  19.844  21.009  29.036  0.1260  0.1953 -0.4756
15186W        W58177   7.606  19.707   2.067 -0.0859  0.2130  0.0443
15187W        W58178  22.129  24.859   8.418  0.2862 -0.2676  0.2109
15188W        W58179  22.199  26.061  26.097 -0.0697  0.2112  0.0080
15189W        W58180  24.455   7.563   8.780  0.0940 -0.2212 -0.1937
15190W        W58181  28.929  23.703   5.281  0.0072  0.0858 -0.1204
15191W        W58182  21.565  14.328  18.854  0.1322  0.1669 -0.0843
15192W        W58183  21.338  24.544   7.355 -0.0430  0.2658 -0.2936
15193W        W58184  16.955  29.564   3.548  0.0912  0.0389  0.1366
15194W        W58185  21.089  21.899   7.704 -0.0951 -0.1315  0.0853
15195W        W58186  15.526  16.920   5.660  0.1161  0.1011 -0.4016
15196W        W58187  19.997  25.995   4.502  0.0612  0.0315 -0.2463
15197W        W58188  19.087  19.452   2.491 -0.1907  0.2960 -0.0645
15198W        W58189   3.946  18.620  28.758  0.1348 -0.1202 -0.1522
15199W        W58190  20.639  25.019  23.300 -0.0050 -0.2509  0.0397
15200W        W58191   8.522   7.605  19.102  0.0951 -0.0244 -0.0854
15201W        W58192  23.077  27.717   8.425 -0.0630  0.0220  0.1237
15202W        W58193  26.817  20.632   8.470 -0.1776 -0.1353 -0.0255
15203W        W58194  28.793  12.449   2.945  0.0882  0.3948 -0.0283
15204W        W58195   9.555   8.373   5.983 -0.4449  0.4316  0.3651
15205W        W58196  17.985  23.767  19.748  0.3452  0.0463  0.3050
15206W        W58197   9.930  20.708  16.189 -0.2977  0.1012 -0.1545
15207W        W58198   8.953   7.454  20.606  0.0016 -0.1201  0.0188
15208W        W58199  14.955   7.164   6.775 -0.2326  0.0766 -0.2277
15209W        W58200  17.845  34.012  19.089  0.0372  0.2256  0.1604
15210W        W58201  26.709  30.468   3.651 -0.4192 -0.4611 -0.1197
15211W        W58202  31.222  16.759   8.311 -0.0478  0.1101  0.1504
15212W        W58203  11.703  20.447  21.906  0.2769 -0.1725 -0.1896
15213W        W58204   9.154  14.895  22.520 -0.0835 -0.1782  0.0472
15214W        W58205  26.733   5.198  13.669  0.3495 -0.0005  0.3303
15215W        W58206  15.566   1.459   6.289  0.1172  0.2137  0.1219
15216W        W58207   6.178   4.524  18.413  0.3159  0.0629 -0.3565
15217W        W58208  20.156  10.075   7.674  0.2073  0.4062 -0.0222
15218W        W58209   9.599  27.314  10.756  0.5183 -0.4251 -0.0300
15219W        W58210  18.272  25.464   0.468 -0.2992  0.1453  0.0566
15220W        W58211  10.326  15.711   3.160  0.2049  0.1568 -0.0218
15221W        W58212  10.912  26.889  14.241  0.0129  0.2080 -0.1407
15222W        W58213  22.359  22.607  29.226  0.3950  0.1271 -0.0632
15223W        W58214  19.073  30.131   9.200 -0.1999 -0.3261 -0.2089
15224W        W58215  19.512  30.437   1.884  0.5038 -0.1161 -0.0566
15225W        W58216   6.355  13.275  27.606 -0.0588  0.1356 -0.3164
15226W        W58217  19.210  11.385   2.227 -0.0689 -0.2040 -0.2407
15227W        W58218  25.986  11.624  23.783 -0.4347 -0.2420  0.2802
15228W        W58219  15.705  29.727  27.221  0.3999  0.0389  0.1217
15229W        W58220  15.434  34.444  21.044  0.3941 -0.2667  0.0705
15230W        W58221  12.099  30.547  14.634 -0.0616 -0.1148 -0.2165
15231W        W58222   5.091  23.383   5.957 -0.0980  0.1428  0.0356
15232W        W58223   7.012   9.509  20.224 -0.1803  0.1114  0.0143
15233W        W58224  12.763   0.722   0.447 -0.0582 -0.2701  0.1331
15234W        W58225  10.292  13.293  27.193 -0.2746 -0.2087 -0.3553
15235W        W58226  24.329  20.464   4.813 -0.3826  0.1772  0.0681
15236W        W58227  15.440  26.016  25.682  0.0796  0.4247 -0.0838
15237W        W58228  10.003   6.530  25.744 -0.1264  0.0447 -0.3029
15238W        W58229  24.296  21.399   5.732  0.0567 -0.0128 -0.2055
15239W        W58230  27.676  22.412  25.915 -0.2138  0.0381  0.3529
15240W        W58231  34.221   2.469   1.415 -0.1187  0.2511  0.1822
15241W        W58232   2.677  24.785  25.365  0.2486 -0.1423  0.0055
15242W        W58233  26.933  11.162  27.586  0.4425  0.0352  0.2369
15243W        W58234  28.623  25.375   9.528  0.1431  0.1662 -0.1091
15244W        W58235   6.740  25.396   1.265 -0.3338  0.0145  0.1466
15245W        W58236  22.404  18.027  23.775 -0.4064  0.3350  0.1103
15246W        W58237  23.577  21.890  27.771  0.2885  0.1867  0.2155
15247W        W58238   1.630  18.479  24.153 -0.0073 -0.0327  0.0267
15248W        W58239  26.828  14.637   2.117 -0.2769  0.0722 -0.0280
15249W        W58240  18.989  30.383  27.903  0.0795 -0.1618  0.1632
15250W        W58241  23.301  15.433  27.336  0.5225 -0.1108 -0.2217
15251W        W58242   9.088  16.317  26.255  0.3419  0.0014  0.0130
15252W        W58243  16.736  20.251   5.212  0.0869  0.0448 -0.1197
15253W        W58244  15.885  16.669   7.280  0.0323  0.0607  0.1327
15254W        W58245   4.784  10.830  22.536  0.5670 -0.3776 -0.0969
15255W        W58246  14.678  25.613  13.946 -0.0131  0.0323 -0.1286
15256W        W58247  30.468   8.187  23.429  0.1098  0.0112  0.0461
15257W        W58248   3.361  15.588  20.133 -0.2192 -0.0707  0.0640
15258W        W58249  13.738   7.609  27.835 -0.0903  0.0964  0.2731
15259W        W58250  28.788  18.707  27.936  0.0652  0.0491  0.0559
15260W        W58251  13.238  26.756   5.405 -0.0889 -0.1599 -0.2555
15261W        W58252  22.217  25.177   5.331 -0.0388 -0.0898 -0.2196
15262W        W58253  23.006   6.289   7.074  0.3609 -0.2166  0.1924
15263W        W58254   9.833  10.194   2.268 -0.2047 -0.2715 -0.0315
15264W        W58255  21.396  19.182   0.565 -0.1029 -0.1154  0.0151
15265W        W58256  17.884  13.298   5.107  0.1689 -0.2920 -0.0141
15266W        W58257  20.215   5.269  25.542 -0.1793 -0.2342 -0.2716
15267W        W58258  26.258  18.176  24.141  0.2753  0.2378  0.0774
15268W        W58259  34.062   9.392   7.355  0.2212  0.1844  0.5197
15269W        W58260  32.304  16.924  24.862 -0.0200 -0.0979  0.0191
15270W        W58261  17.657  17.926   3.209 -0.0010  0.2197 -0.2671
15271W        W58262  20.605  27.872   1.344 -0.3322 -0.0932 -0.0774
15272W        W58263  22.954   6.425  26.349 -0.2281  0.0558 -0.1949
15273W        W58264  22.129  15.102  18.637  0.3257  0.0427  0.2134
15274W        W58265  10.497  22.810  22.661 -0.0641  0.2492  0.0804
15275W        W58266  28.718  13.685   1.336  0.0270 -0.1014 -0.0935
15276W        W58267  10.259   0.151   6.607  0.1144 -0.2326  0.2594
15277W        W58268  18.101  28.866  26.911  0.1525 -0.3740 -0.1194
15278W        W58269   0.913  29.442  16.778 -0.0100  0.1810  0.1917
15279W        W58270  18.190  11.242  20.269 -0.0518 -0.1289 -0.0930
15280W        W58271  17.654   4.117  26.368 -0.0211 -0.0343 -0.0315
15281W        W58272  12.022  21.284   3.388  0.2716 -0.1727  0.0796
15282W        W58273  27.864  19.196  19.983 -0.0330 -0.1469 -0.1543
15283W        W58274  19.264   7.724   8.709  0.1801 -0.0476 -0.2762
15284W        W58275  14.709  27.195  10.373  0.2076 -0.2543 -0.2379
15285W        W58276  10.441  15.513  18.584 -0.2166 -0.0427  0.2149
15286W        W58277  22.838  25.137   7.971  0.0061 -0.1554 -0.1978
15287W        W58278   4.225  11.953   7.841  0.1396  0.2478  0.2727
15288W        W58279  26.055  27.999  23.087 -0.2628  0.1205 -0.2463
15289W        W58280  25.055  17.157  26.401 -0.1185 -0.0490  0.0045
15290W        W58281  20.667   7.148   1.734  0.0087 -0.3325  0.0934
15291W        W58282  23.423  17.770  27.037 -0.4917  0.1745  0.2065
15292W        W58283  22.173  10.781   6.792  0.1737 -0.0635  0.2812
15293W        W58284  22.020  27.178  18.266  0.1639  0.2541 -0.1584
15294W        W58285   3.856  15.277   1.843  0.1690 -0.0794 -0.0818
15295W        W58286  10.585  18.664  23.599  0.0406 -0.0748  0.0012
15296W        W58287   6.952   7.765  26.544  0.1198 -0.0266 -0.0485
15297W        W58288  19.866   6.952   6.345 -0.0202  0.1230 -0.1794
15298W        W58289  15.090  26.839   1.907 -0.0052  0.2480  0.0995
15299W        W58290  28.329  19.133   2.239  0.2019 -0.1137  0.0840
15300W        W58291  16.905  18.965   8.798  0.2520  0.1153  0.1564
15301W        W58292  14.708  32.237  26.189 -0.1108 -0.0174 -0.1524
15302W        W58293  17.598   6.797   1.808 -0.2129  0.0526 -0.2313
15303W        W58294  31.012  13.744   6.139  0.1919  0.1450 -0.0252
15304W        W58295  29.681  16.416   7.532 -0.0130 -0.0417 -0.0633
15305W        W58296  32.384  23.162   4.413  0.0986 -0.0416 -0.1530
15306W        W58297  18.543   5.543  27.034  0.0200  0.0934  0.3915
15307W        W58298  19.217  20.838   8.713 -0.2200 -0.1348 -0.5660
15308W        W58299  18.127   5.819   6.250 -0.1334 -0.1837 -0.2230
15309W        W58300  30.261   9.671  20.741 -0.0423 -0.0259  0.0057
15310W        W58301  28.690   0.101  20.649  0.0564 -0.0490 -0.4113
15311W        W58302   5.122  18.714   4.311 -0.2017 -0.1694  0.0648
15312W        W58303  29.103  31.375   4.798 -0.1128  0.3088  0.4406
15313W        W58304   4.511  15.807  27.866  0.3666  0.3647  0.2102
15314W        W58305  33.327  14.611   1.429  0.2317 -0.0891  0.0322
15315W        W58306  29.683   9.412   1.712  0.0768 -0.0583  0.2172
15316W        W58307  12.030  28.182   8.647 -0.0856  0.0785 -0.4465
15317W        W58308  10.790  30.022   1.264 -0.0833 -0.1853  0.0408
15318W        W58309  24.791  18.901  26.620 -0.0693 -0.3815  0.1478
15319W        W58310  10.007  14.967   6.536 -0.1943 -0.0267 -0.0304
15320W        W58311  17.817  18.128   8.121 -0.1718 -0.1686  0.2694
15321W        W58312  28.236  20.034   0.316 -0.0686  0.0616  0.3353
15322W        W58313  22.114  20.120  23.848 -0.0904  0.0405 -0.3240
15323W        W58314  34.069  22.288   1.108 -0.0994 -0.0686  0.1433
15324W        W58315  13.960   4.943   9.483 -0.1122  0.0315  0.0873
15325W        W58316   1.468  15.599  26.197 -0.1915  0.0396 -0.0535
15326W        W58317  31.981  26.424   0.877 -0.1408  0.1383  0.2867
15327W        W58318  17.502  19.732  27.836  0.0719  0.2072 -0.2160
15328W        W58319  11.852  26.293  15.102 -0.1701 -0.1480  0.1580
15329W        W58320  24.671   5.322  21.715  0.1226  0.2288  0.1251
15330W        W58321   1.099  12.102  18.100 -0.0932 -0.2603 -0.2508
15331W        W58322  12.978  34.239  17.739 -0.0461 -0.1061 -0.3070
15332W        W58323   2.232  25.063   2.748  0.0845  0.2446  0.0471
15333W        W58324  20.390   5.991  23.911 -0.0361  0.3358  0.5379
15334W        W58325  30.095  25.460   3.706  0.1040 -0.2791 -0.3581
15335W        W58326  10.985  24.767  28.024 -0.1528  0.1596 -0.0839
15336W        W58327   9.292  24.893  26.511  0.0931 -0.2014  0.2244
15337W        W58328   7.595  33.454   4.008 -0.1298  0.0174 -0.0016
15338W        W58329  15.692  20.241   3.849 -0.1299  0.0312  0.1429
15339W        W58330  22.301  18.465   2.059  0.2637  0.2112  0.1811
15340W        W58331   3.706  20.677   7.796 -0.0703 -0.1572 -0.2108
15341W        W58332  17.926  17.001   8.554 -0.3111  0.1303 -0.1393
15342W        W58333  10.064  25.914  25.270 -0.1041 -0.0220 -0.1183
15343W        W58334  19.338  29.072   1.166  0.4069 -0.0699 -0.1569
15344W        W58335  24.068  12.083  28.206  0.0857 -0.0706 -0.1279
15345W        W58336   3.949  24.553  25.056  0.0793  0.0770 -0.1904
15346W        W58337  23.197   9.749   8.523 -0.1463  0.2332 -0.2189
15347W        W58338   4.735   6.253   7.859 -0.1510  0.0044 -0.0263
15348W        W58339   4.865  24.579   7.592  0.1055  0.0671 -0.1794
15349W        W58340  13.886   0.259   8.900  0.1449  0.0146 -0.2028
15350W        W58341  26.906  25.928   1.938 -0.1265 -0.1342  0.0075
15351W        W58342   5.992  24.468  23.469 -0.3161  0.2261  0.0044
15352W        W58343  21.122  19.581  19.035  0.3089 -0.0414  0.2691
15353W        W58344  32.767  15.567  28.286  0.1336  0.2150 -0.1666
15354W        W58345  16.559  20.768   5.020 -0.0804 -0.1229 -0.2392
15355W        W58346   4.732  20.875   8.132 -0.1003 -0.1409 -0.2694
15356W        W58347  18.834  17.624   7.284  0.4116 -0.4235  0.2050
15357W        W58348  19.708   4.703  25.961 -0.4698 -0.1668 -0.0381
15358W        W58349  11.925  26.575   7.379 -0.3219  0.2599 -0.1643
15359W        W58350  19.919  23.536   7.521  0.2629 -0.0451 -0.0278
15360W        W58351  15.980   3.520  28.406 -0.0962 -0.1536 -0.0488
15361W        W58352   8.617  26.678   3.798  0.2718 -0.2848  0.0999
15362W        W58353  16.712  26.800   5.392  0.1509 -0.0155 -0.0664
15363W        W58354  28.400  32.497   7.616  0.0529 -0.2512 -0.0212
15364W        W58355  19.277  19.658   4.699  0.2215 -0.0092 -0.0721
15365W        W58356  24.554  21.958  26.640  0.3263 -0.1751 -0.0555
15366W        W58357  17.276   8.348   1.593 -0.2505 -0.1107 -0.2934
15367W        W58358  32.927  30.994  23.923 -0.2157  0.0230  0.2954
15368W        W58359   1.737  31.761   4.671 -0.1064  0.1599  0.0391
15369W        W58360  28.049  26.647   4.702 -0.0031 -0.0813 -0.2043
15370W        W58361  15.029   1.918  28.083 -0.2725  0.0077 -0.0361
15371W        W58362   1.591  20.892   2.928 -0.2119  0.2529  0.0010
15372W        W58363  33.118  30.201   3.681 -0.2451  0.2511 -0.0098
15373W        W58364  15.105   0.437   3.718  0.5008 -0.4950 -0.1802
15374W        W58365  21.896  12.385   4.921  0.2895 -0.1987  0.1397
15375W        W58366  22.517  17.845   8.449 -0.0294 -0.0351  0.0521
15376W        W58367  23.233  25.982   7.792 -0.2132 -0.2676 -0.1099
15377W        W58368   2.220  32.016  23.959 -0.0704 -0.4255 -0.1682
15378W        W58369  13.445  19.520   7.605 -0.0186  0.0937 -0.0808
15379W        W58370   6.269   8.509   7.482  0.0455  0.3230  0.1792
15380W        W58371  19.742   7.965   3.906 -0.1727 -0.2369 -0.2591
15381W        W58372  13.777  26.720   4.084 -0.0585  0.1350  0.3922
15382W        W58373  29.209   6.434   9.987  0.0114 -0.1878 -0.1434
15383W        W58374  12.961  12.882   2.428 -0.0550  0.0349  0.3273
15384W        W58375  15.362  16.573   5.108  0.1620  0.0746 -0.0382
15385W        W58376  16.215   0.763  27.675 -0.2233  0.2305  0.1523
15386W        W58377  24.484  24.611  27.400 -0.0625  0.1359 -0.2210
15387W        W58378  13.584  10.849   9.235 -0.6101 -0.1153 -0.0101
15388W        W58379  27.823  25.044   9.488 -0.0133 -0.0868 -0.2632
15389W        W58380   2.069  26.893   0.472  0.1006  0.1179 -0.0687
15390W        W58381  24.003  24.912  22.540  0.2190 -0.2329  0.2045
15391W        W58382  18.418  23.744   1.277  0.1626 -0.2309 -0.2329
15392W        W58383  14.536   6.008   7.322 -0.1569  0.0625  0.0680
15393W        W58384  33.015  11.442   4.822  0.1091 -0.0141  0.0617
15394W        W58385  13.700  11.810  14.354  0.0171 -0.0777 -0.3067
15395W        W58386  34.348  26.517  10.024  0.0949 -0.1541  0.1233
15396W        W58387  20.839  28.587  23.093  0.3296 -0.0900 -0.3278
15397W        W58388  33.832  18.823   8.398  0.1365 -0.0580 -0.0145
15398W        W58389   5.638  11.287  25.817 -0.1368  0.1446 -0.2661
15399W        W58390  25.564  28.123   6.104  0.2218 -0.0826  0.0446
15400W        W58391  15.535  28.752   7.308  0.0380  0.0915  0.0065
15401W        W58392  25.497  25.184  26.770  0.0749 -0.1848  0.1340
15402W        W58393  11.705  33.931   5.559  0.0265 -0.3277  0.2111
15403W        W58394  14.674   0.470   8.694  0.1025 -0.0180 -0.0054
15404W        W58395  12.527   1.031   6.090  0.0432 -0.1766 -0.2078
15405W        W58396  21.847  23.660   8.655 -0.1667 -0.0207 -0.0789
15406W        W58397  24.294  21.026   3.300 -0.0668  0.3518  0.1445
15407W        W58398  30.752  21.140  22.466 -0.1185 -0.1652  0.2783
15408W        W58399  12.303   6.204   2.020  0.1176 -0.0928  0.0946
15409W        W58400  24.187  14.612  27.868  0.0670 -0.4143 -0.2610
15410W        W58401  32.695  13.068  22.008  0.0066  0.0421 -0.0258
15411W        W58402  24.936  25.689  28.807  0.0313  0.3148 -0.0330
15412W        W58403  23.258  29.859  13.677  0.0471  0.2604  0.0035
15413W        W58404  19.691  27.011   1.519  0.0387 -0.0753 -0.0502
15414W        W58405  27.417  20.012   1.661 -0.3472 -0.1558 -0.0170
15415W        W58406  22.161   9.983  26.018  0.0765 -0.6422  0.3017
15416W        W58407   1.577  33.440   5.377 -0.0204  0.0477 -0.0315
15417W        W58408  28.381  21.316  28.465 -0.0484 -0.0647  0.0232
15418W        W58409   3.189  22.553   7.018 -0.0823 -0.0169  0.2410
15419W        W58410   7.579  14.386   3.741  0.1690  0.3442 -0.0606
15420W        W58411  11.492  16.040   0.087  0.1855  0.0108  0.1237
15421W        W58412  17.992  22.877  26.933  0.1668  0.0016 -0.0254
15422W        W58413  12.381  17.124  21.777 -0.1863 -0.1701 -0.1079
15423W        W58414  27.670  28.383  21.306  0.0967 -0.1298 -0.4348
15424W        W58415   9.768  12.842   6.159  0.1504 -0.1021  0.1659
15425W        W58416  22.751  19.633  17.068  0.2895 -0.1734 -0.0539
15426W        W58417  25.041  18.712  28.497 -0.0585  0.1423 -0.5445
15427W        W58418   9.488  14.470   5.529 -0.0357 -0.0589 -0.0101
15428W        W58419  22.693  23.324  26.395 -0.1872  0.4507  0.1203
15429W        W58420  25.806  34.361  20.488  0.1758 -0.3604 -0.1415
15430W        W58421  10.314  34.520   9.915  0.1942 -0.1450 -0.2003
15431W        W58422  13.263  19.701  17.728  0.1418 -0.0987  0.1854
15432W        W58423  18.177  15.084   0.222  0.0666  0.2765 -0.1493
15433W        W58424   4.906  29.141   0.021  0.2147 -0.1134  0.0741
15434W        W58425  11.369  34.067   0.267  0.2499  0.0923 -0.0105
15435W        W58426   9.786  26.771   8.602 -0.0537 -0.1012 -0.2909
15436W        W58427  11.639  17.865  25.535  0.1882 -0.0192 -0.0388
15437W        W58428  23.725   9.488   0.935  0.0932  0.1497 -0.1518
15438W        W58429  15.673  21.809   0.952  0.0651  0.0182 -0.0240
15439W        W58430  32.605  32.537   0.371 -0.1186  0.2377  0.1640
15440W        W58431  21.278  10.950   2.643  0.1280  0.0137 -0.2365
15441W        W58432  22.765  15.633  27.378  0.1744 -0.3389  0.0041
15442W        W58433  25.833   2.360  20.042  0.0164  0.1309 -0.0779
15443W        W58434  18.840  28.553  24.951  0.1289 -0.4198 -0.1424
15444W        W58435  16.522   0.714   1.920 -0.0609 -0.1746  0.0824
15445W        W58436   5.238  29.844  21.524 -0.1382  0.0919  0.3164
15446W        W58437  12.067  24.368  26.671 -0.2084  0.0606 -0.2034
15447W        W58438  14.365  32.419   4.257 -0.0753  0.3152  0.2954
15448W        W58439  23.121  27.868   5.382  0.1935 -0.1890 -0.3878
15449W        W58440  16.784  21.395   6.605  0.1035 -0.2102 -0.2681
15450W        W58441  32.223  30.027  18.148  0.2386 -0.2259  0.4066
15451W        W58442  26.821  26.978   5.087  0.0288 -0.0333 -0.1196
15452W        W58443  31.594  15.018  16.925  0.1540  0.0404 -0.0328
15453W        W58444  12.220  20.177  28.195  0.0608 -0.1412  0.1129
15454W        W58445  25.498  14.329  27.461 -0.1043  0.0331 -0.0223
15455W        W58446  23.751  24.578  25.152 -0.1159 -0.1002  0.0295
15456W        W58447  13.843  23.891  20.442 -0.2681 -0.0310 -0.0872
15457W        W58448  18.821   1.891   8.462  0.2731  0.1000  0.0557
15458W        W58449  25.916  32.853  28.092 -0.2393  0.1729  0.1075
15459W        W58450  28.375  30.019  19.217 -0.3275  0.2298  0.0490
15460W        W58451  25.381  20.875   5.777  0.0143 -0.0540  0.1257
15461W        W58452  34.484  26.468   0.484 -0.1959 -0.1565 -0.2081
15462W        W58453  15.587   8.234  11.163  0.0055  0.0072  0.0389
15463W        W58454  22.693  28.014  23.930 -0.5851 -0.0021  0.3183
15464W        W58455   5.366  25.018  22.913 -0.1828 -0.2090  0.2495
15465W        W58456  22.073  19.297  22.533  0.0638  0.0098  0.3467
15466W        W58457  23.153  16.403   8.380  0.3374  0.1082 -0.3706
15467W        W58458  11.042  18.344  18.752  0.2163 -0.1242 -0.1353
15468W        W58459  14.574   7.577   5.660  0.2988 -0.1266 -0.1443
15469W        W58460  20.690  27.386   6.824 -0.1413  0.1230 -0.0772
15470W        W58461  27.308   8.980   6.012 -0.0275 -0.0285  0.4436
15471W        W58462  11.100  30.661   9.131 -0.2629 -0.0127 -0.3763
15472W        W58463  17.356   5.299   1.851  0.0142  0.0415  0.0238
15473W        W58464  29.739  34.651  25.376 -0.0415  0.0223  0.3007
15474W        W58465  18.237  26.950   4.205 -0.0948  0.3337  0.2070
15475W        W58466  29.334  20.646   2.930 -0.1070  0.0827 -0.1062
15476W        W58467  24.837  24.909  25.917 -0.1899 -0.1961 -0.0269
15477W        W58468   4.096  13.748   6.668 -0.1054 -0.0138  0.3268
15478W        W58469  13.285  21.349   2.092  0.0071  0.0222 -0.1531
15479W        W58470   6.805   8.058  24.790  0.0760  0.3495 -0.0086
15480W        W58471  15.450  23.010  24.977 -0.2034 -0.3200 -0.1322
15481W        W58472  17.973  13.872   0.075 -0.3301 -0.3775 -0.2569
15482W        W58473  12.793   0.359   5.532 -0.1011 -0.0346 -0.0030
15483W        W58474  33.501  18.408  24.258  0.2398 -0.2266 -0.0019
15484W        W58475  28.213  32.309   8.305 -0.2452 -0.3798 -0.1070
15485W        W58476   3.802  17.097   2.732 -0.3402  0.1178  0.2455
15486W        W58477   8.651  16.291   5.298  0.1918 -0.0255  0.2612
15487W        W58478  12.169  14.769   0.547  0.0696 -0.0752  0.0606
15488W        W58479  23.498  27.092  12.963 -0.2095  0.2103  0.4069
15489W        W58480  22.302   0.276   6.151  0.1656 -0.0514  0.1265
15490W        W58481   7.426  24.655  24.238 -0.3341 -0.1500  0.2782
15491W        W58482   7.324  25.698   2.505  0.1867  0.1450 -0.1610
15492W        W58483   7.643   0.096  19.934 -0.0650  0.1654  0.0659
15493W        W58484  13.016  19.830   7.567  0.1295 -0.0353  0.1182
15494W        W58485  27.604  16.954  17.257 -0.0625 -0.1111 -0.0765
15495W        W58486  23.366  24.216   8.293 -0.2689  0.1519  0.0743
15496W        W58487  29.197  18.421   5.723  0.2304 -0.0208 -0.0709
15497W        W58488   0.585   4.379  26.215  0.2637 -0.2644 -0.0005
15498W        W58489  31.349  22.977   7.422 -0.0968  0.1543  0.1687
15499W        W58490  31.791  22.613  21.356  0.0713 -0.0327 -0.0752
15500W        W58491   9.934  31.088   9.611  0.1281 -0.1792  0.0588
15501W        W58492  19.886  22.163  21.026 -0.0801 -0.1662  0.0727
15502W        W58493  33.444  19.684  10.343 -0.0414 -0.1864 -0.1936
15503W        W58494  32.224  19.853   5.767  0.0229 -0.0386  0.0531
15504W        W58495  20.392   0.260   4.451  0.0575  0.0227  0.0586
15505W        W58496   9.495  27.805   7.276  0.0287 -0.4353  0.1076
15506W        W58497  22.920   5.560   0.018  0.2391 -0.3748  0.0598
15507W        W58498   6.263   2.583   8.073  0.1950  0.0221  0.4069
15508W        W58499  19.152  21.431   1.842 -0.2040 -0.0609  0.3550
15509W        W58500  26.245  27.228   1.610  0.2679  0.0824 -0.5191
15510W        W58501  32.588  15.472   3.258  0.0817 -0.2511 -0.0462
15511W        W58502   8.411  34.541   0.582 -0.0026  0.0132  0.1947
15512W        W58503  10.389  16.327  20.103  0.0533  0.0219  0.2525
15513W        W58504   1.980  28.554   8.120 -0.1264  0.1686  0.0311
15514W        W58505   5.127  24.001   7.338  0.1041  0.0434  0.1193
15515W        W58506  25.637  27.010   8.041  0.0766  0.2174 -0.0298
15516W        W58507  27.455  10.723   3.870  0.0474  0.0032 -0.0061
15517W        W58508  13.890  14.810   9.313 -0.0312 -0.2312  0.1355
15518W        W58509   6.136  23.887  24.338  0.2199  0.2469  0.0571
15519W        W58510  18.608  22.083  20.640  0.1278 -0.0151  0.0019
15520W        W58511  18.783  26.156  14.388 -0.0231 -0.0472  0.2427
15521W        W58512  16.269  33.337  27.266  0.0864 -0.0600  0.0015
15522W        W58513  22.552   2.441  27.951 -0.2571 -0.0418 -0.0207
15523W        W58514  24.678  17.097  15.513  0.2076  0.1635 -0.2987
15524W        W58515  19.458  30.997  27.446 -0.0685 -0.0028 -0.0280
15525W        W58516  34.397  11.290  17.315  0.1433  0.0250 -0.0633
15526W        W58517  20.389  16.786  26.278 -0.2273  0.0864 -0.1504
15527W        W58518  25.739   3.916   0.024  0.1360  0.2123 -0.2718
15528W        W58519   4.465  18.068   8.011 -0.2064  0.3388 -0.1099
15529W        W58520  23.188  30.417   0.727 -0.3119  0.1124 -0.0083
15530W        W58521  15.306  26.283  24.217 -0.1369 -0.0436 -0.1723
15531W        W58522  29.500  11.151   9.454 -0.0388  0.1242 -0.0291
15532W        W58523  24.289   9.605   3.282  0.1071 -0.0123  0.2232
15533W        W58524   3.316   2.480   0.684  0.2308 -0.2221  0.2690
15534W        W58525  24.655  27.757   6.860 -0.0369  0.0659 -0.0872
15535W        W58526   0.345  22.509   9.009 -0.1452  0.1314  0.3238
15536W        W58527  10.833   4.510  11.021  0.1810 -0.2678  0.0214
15537W        W58528  14.492  19.193   3.534 -0.4839  0.1665  0.2325
15538W        W58529   5.857  20.731   7.963 -0.0310  0.0110  0.0781
15539W        W58530  17.034  19.643  26.562 -0.0326  0.0657  0.4014
15540W        W58531   9.849   6.471   0.386  0.0002  0.3264  0.0386
15541W        W58532  23.007  26.984  17.258  0.1661 -0.1319 -0.0595
15542W        W58533  19.420  10.081   4.622 -0.0306  0.2355  0.4499
15543W        W58534  18.576  18.769  29.010 -0.1715 -0.3932  0.1135
15544W        W58535  12.856  25.632   3.670  0.1413  0.1284  0.0663
15545W        W58536   2.307  21.211   6.640  0.2704  0.0254 -0.0267
15546W        W58537  26.712  14.598   6.272 -0.0541 -0.2460  0.0953
15547W        W58538  17.362  16.048   4.377 -0.0778  0.0696  0.0340
15548W        W58539  16.789  17.873  23.080 -0.0683  0.1342 -0.1391
15549W        W58540   2.781  28.057   7.665  0.4700 -0.2297 -0.0827
15550W        W58541  21.212  29.905   8.356 -0.0790 -0.0122 -0.0280
15551W        W58542  30.826  16.045   7.181  0.0345  0.0846 -0.1568
15552W        W58543  23.673  29.554  25.665  0.1347 -0.2626 -0.0448
15553W        W58544  15.549  20.800   1.382  0.2722  0.0054  0.0053
15554W        W58545   9.608  26.600   9.576 -0.2323  0.1293 -0.0988
15555W        W58546  29.265   4.755   7.664  0.0386  0.1408  0.0648
15556W        W58547  10.923  10.537  24.963 -0.3651 -0.0079  0.0785
15557W        W58548  27.034  17.217   1.784 -0.0205  0.0389  0.2750
15558W        W58549  19.859  18.191  23.006  0.0890  0.1875 -0.3017
15559W        W58550  13.959  15.129   1.019 -0.0154  0.1996 -0.2887
15560W        W58551  18.426  13.957  20.573 -0.1260  0.1611 -0.1107
15561W        W58552  18.564  27.723   6.876  0.0474  0.0298  0.1647
15562W        W58553  26.642  13.042  28.257 -0.0092 -0.2376 -0.0473
15563W        W58554  28.245  23.594   1.011 -0.1825  0.0316  0.0944
15564W        W58555  14.425   0.221   7.663  0.3173 -0.0685 -0.4881
15565W        W58556  28.961  23.871   8.130  0.0985  0.2328  0.0284
15566W        W58557  13.866  20.802   7.380 -0.0382  0.1270 -0.0461
15567W        W58558   9.191  20.646   4.465 -0.1124  0.3179 -0.0721
15568W        W58559   7.508  19.485   9.590  0.0392 -0.0407 -0.0239
15569W        W58560  23.080  21.450   1.344 -0.1081 -0.0917 -0.0758
15570W        W58561  21.206  20.840  29.104 -0.2465 -0.1758 -0.2172
15571W        W58562  24.372  25.628   6.273 -0.1390  0.0235 -0.3576
15572W        W58563  23.821  20.733   0.379 -0.0818  0.0591 -0.0760
15573W        W58564  25.970  33.910  27.212  0.1321  0.0931  0.0422
15574W        W58565  20.079  23.862   9.615 -0.0501  0.0035 -0.3033
15575W        W58566  24.790  21.272   5.870 -0.0238  0.2512 -0.2246
15576W        W58567  24.064  27.222   5.932 -0.3890 -0.0764 -0.1438
15577W        W58568  34.662  13.093  19.118  0.0508  0.2795 -0.2090
15578W        W58569   3.669  25.074   6.757 -0.1253 -0.1853 -0.1479
15579W        W58570  18.982  26.965  21.798 -0.1947 -0.1778  0.0162
15580W        W58571  25.557  20.313  29.067 -0.0098  0.2685  0.0547
15581W        W58572   3.561  13.925  10.111 -0.0910  0.1502 -0.0908
15582W        W58573  11.006  30.036   8.170  0.0173  0.0220  0.3708
15583W        W58574   2.915  11.556   1.836 -0.0497 -0.2907  0.1159
15584W        W58575  29.397  25.655   0.284  0.0724  0.1489  0.0589
15585W        W58576  24.005  16.584   4.666 -0.1498  0.2132 -0.1447
15586W        W58577  23.516  14.116   4.910  0.2131 -0.0667  0.0234
15587W        W58578  10.943  12.235   3.305  0.5446  0.1404  0.1189
15588W        W58579  15.045  28.844   4.239 -0.3533 -0.0851  0.2058
15589W        W58580  27.767  22.822   4.033 -0.0256 -0.0596  0.3376
15590W        W58581  16.086  28.996   1.705 -0.1076 -0.0289 -0.2474
15591W        W58582   6.528   4.568  10.974  0.0940 -0.1738 -0.0565
15592W        W58583   9.306  30.337  19.214 -0.2758 -0.2992 -0.1596
15593W        W58584  28.707  10.481  15.625  0.4352  0.2629  0.2887
15594W        W58585  21.358  33.852   1.267  0.0567 -0.5225  0.3677
15595W        W58586  13.237  18.391  28.979  0.0269  0.0014 -0.1877
15596W        W58587  19.765  13.063   7.958 -0.0849 -0.2650 -0.0119
15597W        W58588  13.494  19.067   7.923 -0.0148 -0.1926  0.1787
15598W        W58589  19.284  31.835   9.242 -0.0075  0.1027  0.0949
15599W        W58590  13.241  31.933   6.758  0.1071 -0.1014 -0.0826
15600W        W58591  15.306  27.605  28.833  0.2109  0.0905  0.1420
15601W        W58592  14.491  23.331   7.447 -0.0910 -0.1458  0.0966
15602W        W58593  32.993  17.299   6.446  0.2163  0.0833 -0.0924
15603W        W58594   2.823  23.909   8.603 -0.0318 -0.1109 -0.0465
15604W        W58595   7.735   8.352   0.259 -0.2129 -0.0876 -0.1964
15605W        W58596  29.323  29.070  26.422  0.1187 -0.3535 -0.0435
15606W        W58597  18.957  22.202   2.891  0.0474 -0.0847 -0.0522
15607W        W58598  34.230  26.581  14.018  0.2140  0.0032  0.0485
15608W        W58599  25.568  16.396  19.617  0.2797 -0.1248  0.1034
15609W        W58600  25.580  33.794  24.343  0.5087 -0.0743 -0.2349
15610W        W58601  27.727  22.561  19.175 -0.0746  0.0069 -0.3236
15611W        W58602  29.856  23.504   4.605 -0.3257 -0.0867  0.1867
15612W        W58603  20.209  23.966  22.975 -0.2443 -0.1599  0.0183
15613W        W58604  23.616  26.076  26.078  0.1474  0.2193 -0.0331
15614W        W58605  12.670  32.972   5.512 -0.1359  0.2127  0.0664
15615W        W58606  19.319  30.691   6.841  0.0175  0.0198  0.0765
15616W        W58607  26.835  19.760  19.376 -0.0958  0.0036 -0.0990
15617W        W58608  23.126   0.799  26.366 -0.1045  0.0971  0.1051
15618W        W58609   1.909  20.863   9.284 -0.1126  0.2209 -0.4450
15619W        W58610  19.854  21.061  22.609  0.0509 -0.2935  0.0825
15620W        W58611  24.222  31.615  21.091  0.1898 -0.0558  0.0071
15621W        W58612   2.275  26.295  26.780 -0.1510 -0.1343  0.0407
15622W        W58613   7.057  20.300   5.603 -0.1325  0.0468  0.1101
15623W        W58614  29.100  20.299  25.222 -0.0402  0.0718  0.2826
15624W        W58615  26.537  24.227   2.120  0.1548 -0.2696 -0.3430
15625W        W58616   9.749   7.640  27.483  0.0373 -0.4381 -0.0499
15626W        W58617  25.435  23.933   7.102 -0.1251 -0.1035  0.1652
15627W        W58618  21.487  25.362  15.746 -0.1426  0.0773 -0.2121
15628W        W58619  18.856   6.243   5.657 -0.2248 -0.0821  0.1551
15629W        W58620   7.595  29.757   4.254 -0.0011  0.1664 -0.2766
15630W        W58621  23.328  28.136  20.763 -0.2132  0.4003  0.0918
15631W        W58622   8.790  23.459   8.563 -0.4509  0.1595  0.0981
15632W        W58623  24.662  20.328   9.945 -0.0268 -0.1022 -0.1678
15633W        W58624  23.043  14.068  25.765  0.3005  0.0080  0.0392
15634W        W58625  20.167   2.343  27.632  0.1759  0.3633  0.2063
15635W        W58626  20.428  26.306  27.263  0.3764 -0.3090 -0.0023
15636W        W58627  30.707   4.185  26.182  0.2601  0.2967  0.3903
15637W        W58628  27.959  17.023   8.106 -0.3076  0.0003 -0.3160
15638W        W58629  17.765  24.486   0.155 -0.0233 -0.1099 -0.1228
15639W        W58630  20.856  13.334  25.138 -0.0302  0.2896 -0.2317
15640W        W58631   4.624  14.448   6.353  0.5046  0.1657  0.0269
15641W        W58632  23.240  13.163   3.090  0.2023 -0.0085  0.1360
15642W        W58633  19.837   1.051   7.087 -0.3060  0.1767 -0.0367
15643W        W58634  20.140  19.461  22.602 -0.0186 -0.2375  0.2876
15644W        W58635  13.466  22.130   8.196  0.2023 -0.1121  0.0289
15645W        W58636  23.601  22.682   7.653 -0.2928 -0.2315 -0.0781
15646W        W58637  12.233  22.324  25.012  0.0099  0.1120  0.0901
15647W        W58638  34.090  18.106   8.688 -0.0087  0.2962 -0.0235
15648W        W58639  29.309  34.788   1.874 -0.1440  0.0229 -0.0734
15649W        W58640  18.949   6.087   4.128  0.0611  0.2272 -0.1138
15650W        W58641  19.796   1.748   7.658 -0.1270 -0.2006 -0.0647
15651W        W58642  30.987  26.764  17.858 -0.0448 -0.1552  0.1773
15652W        W58643  17.985  26.782   9.123 -0.1224  0.4059 -0.2225
15653W        W58644  18.008  23.741   4.340 -0.0887 -0.1196 -0.0778
15654W        W58645  22.461  23.663   1.602  0.1746  0.0700  0.1672
15655W        W58646  13.205  34.042   3.836  0.1177  0.2181  0.1316
15656W        W58647   5.471  20.817   6.456  0.0182 -0.2448 -0.3384
15657W        W58648  21.132   5.251  15.481 -0.0481  0.0631  0.1023
15658W        W58649  25.712   3.749   9.711 -0.0070 -0.2889  0.1693
15659W        W58650   9.203  16.426   9.301 -0.1818 -0.2059 -0.3174
15660W        W58651  33.549  31.773  22.375  0.1579  0.1880 -0.2820
15661W        W58652  14.927  14.810   2.347  0.1511  0.1328  0.0895
15662W        W58653  20.291  22.112   5.763 -0.1262  0.3768  0.0841
15663W        W58654  15.574  20.004   9.201  0.2093  0.0874 -0.2224
15664W        W58655   7.444  26.932   0.395  0.1271  0.0184 -0.0586
15665W        W58656   5.517  18.841   9.122  0.1237 -0.2179  0.0105
15666W        W58657  34.369  19.744   8.047  0.1016  0.1105  0.0531
15667W        W58658  26.441  27.141   8.465 -0.2560  0.0960 -0.3786
15668W        W58659  11.564  17.675   5.460  0.1806  0.3633 -0.0346
15669W        W58660  24.120  13.016  26.947 -0.0864 -0.0727  0.1237
15670W        W58661  24.149   0.303   7.518  0.1537 -0.0355 -0.0190
15671W        W58662  14.574  27.499  27.858  0.0278  0.1056  0.0853
15672W        W58663  33.482  32.515  25.808 -0.1265 -0.3586  0.0218
15673W        W58664  24.366  19.560  25.778  0.1513  0.2600  0.0464
15674W        W58665   4.460   2.738   3.002  0.3685 -0.1323  0.0986
15675W        W58666   7.955   0.851   6.124 -0.0541  0.0169  0.1070
15676W        W58667  17.115  26.364   9.081  0.1242  0.2106  0.1894
15677W        W58668  34.153  30.322  13.377 -0.0414 -0.1176 -0.0545
15678W        W58669  15.988  22.101  21.726  0.1277  0.2167 -0.2954
15679W        W58670  16.442  18.689  26.616  0.2538  0.2784 -0.2529
15680W        W58671  11.820  11.719  27.984 -0.3275  0.4086 -0.2072
15681W        W58672   8.244  21.591  21.238  0.0717 -0.0120 -0.0325
15682W        W58673   0.287  23.794   4.772  0.2784 -0.0063 -0.2104
15683W        W58674  25.610  15.809   3.169 -0.3097  0.2362 -0.2742
15684W        W58675  11.018  22.173   7.874  0.0568  0.2432 -0.3934
15685W        W58676   3.129   4.324   2.520 -0.0728 -0.0335 -0.2097
15686W        W58677  13.016  19.608  19.391  0.0733 -0.1185  0.0051
15687W        W58678  34.049  15.210  10.580  0.1665 -0.1777  0.1856
15688W        W58679  17.193  24.470   5.375  0.2035 -0.0850 -0.1475
15689W        W58680   3.563  31.199   9.461 -0.1858  0.1732  0.1021
15690W        W58681  16.111  13.785   2.445  0.0884 -0.3368  0.0111
15691W        W58682  24.515  15.469  27.480  0.0153  0.0226 -0.0297
15692W        W58683  19.560  26.756   1.044  0.0298 -0.0375  0.0497
15693W        W58684  33.737  15.911  10.641  0.0519 -0.1186 -0.1069
15694W        W58685  28.718  29.427  25.611  0.0442 -0.2439 -0.2859
15695W        W58686  10.743  18.832  13.414  0.0021  0.1060 -0.0733
15696W        W58687  26.581   6.060   9.386 -0.1095  0.1023  0.0206
15697W        W58688  16.570   9.303   9.406  0.3786 -0.0797 -0.1051
15698W        W58689  16.636   5.559   8.345 -0.2055  0.0957 -0.1186
15699W        W58690  20.214  26.591  26.214 -0.1478  0.0539 -0.0247
15700W        W58691  23.426  17.242   5.680  0.2116  0.0781  0.1554
15701W        W58692   8.096  28.212   7.437 -0.0910 -0.1567 -0.2314
15702W        W58693  13.490  14.228   3.103 -0.0107  0.3649  0.2843
15703W        W58694  10.960   9.994   5.865 -0.4640 -0.0452  0.3346
15704W        W58695  13.285  23.016   3.865 -0.1632 -0.1117  0.0266
15705W        W58696  22.982  20.942   7.953  0.0686 -0.2276  0.3270
15706W        W58697  20.359  12.749   0.181  0.2020 -0.0577 -0.4352
15707W        W58698  17.841   6.408   8.630  0.0718  0.3548 -0.0930
15708W        W58699  11.372  19.224   6.364  0.3016 -0.0365  0.0560
15709W        W58700   4.309   4.401   9.914 -0.0322  0.0827 -0.1311
15710W        W58701   2.726  26.766   4.223  0.0636 -0.2111 -0.4046
15711W        W58702  24.609  33.435   4.385 -0.0327 -0.1152  0.4551
15712W        W58703   0.087  34.160   6.515 -0.0525  0.2023  0.2028
15713W        W58704  16.474  29.685   1.072  0.0378 -0.1073  0.2148
15714W        W58705  19.208  24.971   6.785 -0.1301  0.0769 -0.1166
15715W        W58706  15.463  22.831  27.610 -0.0970  0.0626 -0.0294
15716W        W58707  13.134  18.429   6.220 -0.0475 -0.2043  0.0083
15717W        W58708  29.709  27.936   2.490  0.2320  0.2163 -0.0205
15718W        W58709  33.480  28.711   5.293  0.1871 -0.0896  0.3244
15719W        W58710  11.664  27.364   7.424 -0.0687 -0.1699 -0.0329
15720W        W58711  20.064  17.552  27.172 -0.2317 -0.0253 -0.0016
15721W        W58712  18.136  12.816   7.058 -0.0344 -0.0092 -0.2367
15722W        W58713  18.462  31.418  27.306 -0.0431 -0.0917 -0.0004
15723W        W58714  16.195  23.895   9.200 -0.3190  0.1222 -0.0540
15724W        W58715  14.421  19.278   9.005  0.0911 -0.2959  0.3173
15725W        W58716  10.400  25.146  25.850 -0.1955 -0.3457 -0.0364
15726W        W58717  19.927  29.189   7.804 -0.0133 -0.1201  0.2911
15727W        W58718  18.391  32.526  20.390  0.1702  0.1786 -0.0571
15728W        W58719  13.452  27.012   8.920  0.2521 -0.0761 -0.0447
15729W        W58720  29.159  14.082   6.757  0.1703 -0.0222 -0.1327
15730W        W58721  34.267  29.515   1.746 -0.3051  0.2186 -0.0993
15731W        W58722  26.503  34.558   7.616  0.0178 -0.2634 -0.0016
15732W        W58723  15.428  26.831   7.348 -0.0694  0.1578  0.1576
15733W        W58724  15.438  19.005  26.560 -0.0628 -0.1359  0.0249
15734W        W58725  21.283  13.399   2.677  0.0314  0.1119 -0.2785
15735W        W58726  30.201  16.961   1.243 -0.0764 -0.2201  0.1337
15736W        W58727  21.086  29.969   5.133 -0.0395  0.0478 -0.0073
15737W        W58728  16.181  25.767   0.857 -0.0151 -0.1025  0.0832
15738W        W58729  23.899  14.535   6.337  0.2183  0.0033  0.0879
15739W        W58730  23.091  34.167   4.324  0.1250  0.0870 -0.0368
15740W        W58731  14.875  32.531  27.672  0.0844 -0.4145 -0.0535
15741W        W58732  30.492  22.477   2.283 -0.0146 -0.3258 -0.0899
15742W        W58733  20.990  27.214  26.340  0.0625  0.2111 -0.0007
15743W        W58734   9.776  19.951   3.586 -0.1162 -0.1243 -0.1023
15744W        W58735   6.459  25.442   8.433  0.2217  0.1321  0.0403
15745W        W58736  12.720  12.581   1.241  0.1520  0.4074  0.0858
15746W        W58737  23.744   9.662  22.846  0.2128  0.0735 -0.0187
15747W        W58738  27.855  25.200   3.511  0.1090 -0.1003  0.1090
15748W        W58739  14.578  15.632  24.705 -0.1674  0.0734  0.2017
15749W        W58740  14.731  23.712  28.187  0.1214  0.1305  0.1410
15750W        W58741  23.798  21.556   8.458 -0.3352 -0.1795 -0.0708
15751W        W58742   4.299  25.928   4.478 -0.1999  0.1520 -0.1900
15752W        W58743  24.923  17.217   3.161 -0.1622 -0.0809 -0.0287
15753W        W58744  17.726  22.983  21.964 -0.4597 -0.3081  0.1782
15754W        W58745  19.171  30.184  18.131  0.1230  0.0010 -0.2917
15755W        W58746  20.965  15.903   8.601 -0.2111 -0.4696  0.0648
15756W        W58747   9.447  18.159   2.948 -0.2133  0.0563  0.0657
15757W        W58748  12.386  28.789  28.816  0.2081  0.1453  0.0269
15758W        W58749  19.089  28.158  28.900 -0.1527  0.4348 -0.0886
15759W        W58750   9.122  28.220   4.160 -0.2279  0.0078 -0.0336
15760W        W58751  18.603  14.752   6.931  0.4045  0.1308  0.0200
15761W        W58752  14.295  29.305  25.821  0.1012 -0.1417 -0.1481
15762W        W58753  17.135  18.180  28.692  0.3244  0.0329  0.2303
15763W        W58754  14.875  23.530  27.118  0.2226  0.0812  0.2087
15764W        W58755  10.323  28.379   4.868 -0.2556  0.1169 -0.2239
15765W        W58756  17.726  16.540   8.324 -0.1474  0.1180  0.3369
15766W        W58757  22.021   5.558   6.828 -0.0175 -0.0064  0.4994
15767W        W58758  27.750  19.658   6.170  0.2097  0.0314  0.0807
15768W        W58759  14.055   2.129   8.743  0.0399  0.0287 -0.2594
15769W        W58760   8.803  24.213   5.187  0.0274  0.2528  0.1935
15770W        W58761  30.373  19.134   0.214  0.0199  0.0302 -0.2434
15771W        W58762   7.113  16.408   8.954 -0.0475  0.2981  0.2222
15772W        W58763  21.217   0.733   6.860 -0.1388 -0.0774  0.3817
15773W        W58764  32.159  19.141  25.975  0.1808 -0.0078  0.0016
15774W        W58765  33.684   0.832   3.408 -0.2801  0.0954 -0.3785
15775W        W58766   9.693  10.002   0.462  0.1672  0.0720 -0.2163
15776W        W58767   8.127  32.611   3.048 -0.0076  0.1474 -0.1586
15777W        W58768  18.728  15.985  27.866 -0.0102 -0.7753  0.0577
15778W        W58769  23.676   2.674  19.809 -0.4342  0.0203  0.1521
15779W        W58770   2.330  28.489   1.885  0.0398  0.1940  0.1381
15780W        W58771  26.763   7.398  21.683  0.2180 -0.2317 -0.1310
15781W        W58772  16.982  18.226   1.821  0.0540  0.1558  0.3628
15782W        W58773   6.450  21.969  25.512 -0.1587  0.2628 -0.0627
15783W        W58774  20.201  15.389   5.844 -0.2319 -0.1142  0.2443
15784W        W58775   9.530  15.479  23.323  0.0423  0.1829  0.3403
15785W        W58776  15.404  19.195   2.291 -0.0202  0.5638  0.0113
15786W        W58777  28.576  20.143   1.854  0.0214 -0.0453  0.0439
15787W        W58778   2.591   6.916  27.944 -0.0588 -0.1287  0.0270
15788W        W58779  33.514  13.594  11.129  0.1698 -0.1738 -0.2729
15789W        W58780  11.953  26.735  28.992 -0.4536  0.3259 -0.2578
15790W        W58781  13.156  27.716   9.356  0.0171 -0.0423 -0.0489
15791W        W58782  27.152  17.214   6.534 -0.0990 -0.1213  0.0021
15792W        W58783  30.305  13.088   9.736 -0.2319 -0.1020 -0.0471
15793W        W58784  30.652  25.710   3.718 -0.0171  0.1373 -0.0553
15794W        W58785  21.554  28.441   7.628  0.0084 -0.0092  0.0581
15795W        W58786  31.885  13.034   8.975 -0.1527  0.1026 -0.1423
15796W        W58787  25.021  20.289   9.225  0.1507  0.0198 -0.2245
15797W        W58788   8.782  19.906   0.719 -0.0405  0.2127  0.0587
15798W        W58789   8.114  25.849   6.333  0.0216 -0.0076 -0.0723
15799W        W58790  33.286   0.611  20.394 -0.0177 -0.1415  0.0610
15800W        W58791  20.871  19.421   5.770 -0.1400 -0.4214  0.0038
15801W        W58792  18.614  19.924   7.785 -0.0609  0.0470  0.2979
15802W        W58793  15.200  13.707   7.292 -0.1100  0.1096 -0.3218
15803W        W58794   4.581  22.424  10.573  0.0976  0.0939  0.0765
15804W        W58795  24.293  22.983  21.946  0.0150 -0.3737  0.1714
15805W        W58796   9.042  19.945  24.969  0.0000  0.3492 -0.2686
15806W        W58797  19.813  15.336  27.855 -0.3684  0.2045  0.0890
15807W        W58798  29.386  21.716   4.870 -0.1256 -0.2581 -0.4907
15808W        W58799   9.310   0.080  26.473 -0.0616  0.1636  0.2490
15809W        W58800  23.468  30.207   5.233 -0.1754 -0.2097 -0.1997
15810W        W58801   9.631  18.031   4.685  0.1072 -0.2964 -0.0091
15811W        W58802  23.168  26.223  28.929 -0.0293  0.1371 -0.1305
15812W        W58803  18.314  22.848  26.533  0.1121  0.1301 -0.0283
15813W        W58804   8.741   1.182   6.651  0.1711 -0.1005  0.0498
15814W        W58805   6.591  10.662   0.844  0.4081 -0.4402 -0.0580
15815W        W58806  13.500  26.491   8.912 -0.0770 -0.2883  0.1010
15816W        W58807  29.403  31.677   4.360 -0.0115 -0.2274 -0.2684
15817W        W58808  17.284  17.805  29.061 -0.2511 -0.1856  0.0037
15818W        W58809  27.949  20.682   7.155 -0.0449 -0.1874 -0.3965
15819W        W58810  26.389  20.972  22.708  0.0058 -0.0417  0.0972
15820W        W58811  20.089  13.672   9.723  0.0853 -0.2025 -0.1628
15821W        W58812  14.877  28.311   2.309 -0.1878  0.1213 -0.0116
15822W        W58813  23.713  32.247   6.309 -0.2889 -0.3144  0.2281
15823W        W58814  21.416  18.034  24.669 -0.0637  0.4035 -0.2501
15824W        W58815  31.610   8.303   3.382 -0.1729  0.1902 -0.1131
15825W        W58816   8.279  11.259   1.740  0.0532  0.0184  0.1741
15826W        W58817  25.484  23.034   5.410  0.2025 -0.2706  0.0818
15827W        W58818  12.964  14.938   5.355 -0.1803  0.3386  0.2419
15828W        W58819  25.998  23.072   5.667  0.2541 -0.0197 -0.1378
15829W        W58820  11.140  19.084   3.962 -0.4784 -0.0162  0.0883
15830W        W58821   9.167  23.616   1.047 -0.0995  0.1562  0.1047
15831W        W58822  12.975  26.959   4.315  0.0348  0.0784 -0.1373
15832W        W58823  30.802  32.955  23.594 -0.0336 -0.2473  0.0383
15833W        W58824  16.025   0.641  24.352 -0.0611  0.2846 -0.0968
15834W        W58825   4.052  25.884   6.469 -0.1171  0.2038 -0.1854
15835W        W58826  19.159  15.502   8.465 -0.0526 -0.3012  0.0720
15836W        W58827  18.002  26.741  23.605 -0.1526  0.0869  0.2711
15837W        W58828  20.793  12.795   5.781 -0.1213  0.0098  0.1666
15838W        W58829  23.079  10.516   8.191 -0.1400  0.1504  0.0510
15839W        W58830  30.437  32.458   0.428 -0.1756 -0.0801 -0.2473
15840W        W58831  25.256   9.775   8.448 -0.0757 -0.0448 -0.2195
15841W        W58832   5.576  23.850  28.972 -0.2128  0.2365 -0.2710
15842W        W58833  15.484  34.362  27.329  0.0982  0.1978  0.2415
15843W        W58834  11.107  25.985   4.064 -0.1391 -0.2866  0.1329
15844W        W58835  11.070  31.739   8.454  0.1521  0.2354  0.0468
15845W        W58836  29.336  16.227  21.131 -0.1765  0.2081 -0.2054
15846W        W58837  14.459  22.755   1.777 -0.2089 -0.2717 -0.0827
15847W        W58838  31.162  27.234   6.401  0.0425  0.1487 -0.0755
15848W        W58839  27.722  20.559   7.911  0.1396  0.0246  0.1238
15849W        W58840  21.294  29.071  20.635  0.2403 -0.2153 -0.3123
15850W        W58841  19.706  26.321   7.183 -0.1828  0.2438  0.0594
15851W        W58842  33.001  23.254   9.672 -0.0237 -0.1366  0.1241
15852W        W58843  17.182  21.907  24.644  0.2689 -0.1393  0.0133
15853W        W58844  17.595  34.104  24.351 -0.2797 -0.2753  0.1231
15854W        W58845  31.227  28.260  14.002 -0.0054 -0.0147  0.1119
15855W        W58846  20.866  18.284  22.988  0.2001 -0.1093 -0.1913
15856W        W58847  26.008  34.108  27.796  0.2068  0.1012 -0.2791
15857W        W58848  25.443  29.697  20.653 -0.0090 -0.0312  0.3218
15858W        W58849  27.017  22.972   9.133 -0.1144 -0.0405  0.1175
15859W        W58850  13.273  23.541   1.059 -0.0948  0.1179  0.1109
15860W        W58851   6.020  19.216  25.842 -0.0603  0.0274  0.2406
15861W        W58852  11.477  12.472   9.394 -0.0086  0.0423 -0.2128
15862W        W58853   5.413   6.949   5.063 -0.1695  0.0632  0.3299
15863W        W58854  16.366  25.174   2.280  0.2126  0.4080 -0.1283
15864W        W58855   5.958  23.385  24.058 -0.0300 -0.0754  0.0587
15865W        W58856   8.228   7.896  25.354 -0.4315 -0.1014 -0.1754
15866W        W58857  16.008  16.600   6.747  0.3952  0.4390 -0.0607
15867W        W58858  18.113  17.513  29.093  0.0207  0.1302  0.0328
15868W        W58859  25.328  28.597   5.369  0.0753 -0.0387 -0.0852
15869W        W58860   9.286  13.238   9.899 -0.2130  0.1074  0.0501
15870W        W58861  23.339  11.270   0.114  0.0048  0.0442  0.0844
15871W        W58862  10.413  15.542  28.307 -0.2257  0.0688 -0.0168
15872W        W58863  31.495  30.683   4.058  0.1606 -0.1705  0.0354
15873W        W58864  10.709  25.223   9.067  0.1789  0.0153 -0.2037
15874W        W58865  19.812   3.281  23.052  0.1356 -0.3766 -0.0943
15875W        W58866   6.359  10.287   4.918 -0.1161 -0.1454 -0.2223
15876W        W58867  18.958  24.255  16.251  0.0235  0.0028 -0.4648
15877W        W58868  32.124  19.123   8.500  0.1770 -0.0454  0.3872
15878W        W58869   9.852  16.320   5.080  0.3387 -0.3176  0.1345
15879W        W58870  28.117   8.472   1.142  0.0461  0.0543 -0.1037
15880W        W58871  31.700   9.705  16.483 -0.0239 -0.2290 -0.1618
15881W        W58872  29.295  13.854   9.528  0.0969  0.1149  0.0059
15882W        W58873  31.158  23.300   3.653  0.1089 -0.1725 -0.0938
15883W        W58874   5.390  33.454   3.181 -0.1784 -0.3883  0.1619
15884W        W58875  24.310   0.740   5.134 -0.0677 -0.0287  0.1921
15885W        W58876  25.954   9.928   0.447  0.1198 -0.1746 -0.0393
15886W        W58877  15.457  27.177   5.385  0.2396  0.0466  0.1611
15887W        W58878  15.481  27.366  27.326 -0.1667  0.2255  0.2491
15888W        W58879  14.477  21.291   8.193 -0.1902  0.0533  0.0155
15889W        W58880   0.069  23.884  24.724 -0.0644  0.0177  0.2948
15890W        W58881  25.419   5.359   2.666  0.1495 -0.0360 -0.3061
15891W        W58882  12.649  27.387   9.352  0.2738  0.0426 -0.3822
15892W        W58883  22.627   8.590   3.839 -0.0541 -0.1006  0.1082
15893W        W58884   7.992  25.184  17.573  0.1207  0.1626 -0.0287
15894W        W58885  22.323  22.499   2.810  0.0995  0.1148 -0.0619
15895W        W58886  31.652  22.921   6.390 -0.3344 -0.3051 -0.1549
15896W        W58887  19.222  22.161   3.366  0.0214  0.1221  0.0668
15897W        W58888  20.112  14.102   2.154 -0.3601  0.3180  0.0506
15898W        W58889  24.528  31.941   9.299 -0.1327  0.2270  0.3611
15899W        W58890  16.826  16.677   3.182 -0.0337 -0.1472 -0.0621
15900W        W58891  15.201  29.195   7.329  0.4319 -0.0908 -0.1423
15901W        W58892  13.795  27.038  24.336 -0.0073  0.0167 -0.0324
15902W        W58893  25.480  24.186  24.511  0.0019  0.2670 -0.1898
15903W        W58894  11.926  30.618   4.280  0.1024  0.1530  0.0316
15904W        W58895   0.056  15.175   7.434  0.0805 -0.1102  0.2191
15905W        W58896  18.716  11.780  21.425  0.5040  0.2512 -0.1641
15906W        W58897   5.709  30.441   3.025 -0.2417 -0.0414 -0.0011
15907W        W58898  13.842  21.088  27.168  0.1031  0.0318 -0.0319
15908W        W58899  20.361  18.953   2.993  0.0699  0.2387  0.1738
15909W        W58900  22.340  22.821  24.793 -0.2475  0.2591  0.2769
15910W        W58901  29.007  14.088   1.282 -0.0566 -0.0944 -0.2611
15911W        W58902  21.666  15.556  28.727  0.1060 -0.0372  0.0630
15912W        W58903  16.996   7.614   1.666  0.1734 -0.2061 -0.0198
15913W        W58904  16.868   9.520   3.424  0.1336 -0.1882  0.1880
15914W        W58905  20.731   6.361   1.042  0.1042  0.2293  0.0169
15915W        W58906  17.848  29.326  24.540 -0.1119 -0.2170  0.2474
15916W        W58907  14.090  18.066   7.043 -0.2670 -0.0321  0.1633
15917W        W58908  13.466  10.905   4.479  0.2065  0.2762 -0.3551
15918W        W58909  11.179  29.855   7.741 -0.0054 -0.3536  0.0453
15919W        W58910  19.893  17.483   2.676 -0.2026 -0.0447 -0.1183
15920W        W58911  19.838  24.569  28.260 -0.1015  0.1657  0.0797
15921W        W58912  14.498  28.068  23.921 -0.1991 -0.0591  0.2966
15922W        W58913  34.398  13.252  24.142 -0.1709 -0.0731 -0.1253
15923W        W58914  31.971  17.448  25.349  0.1131  0.4550  0.2524
15924W        W58915  10.535  20.820  22.607 -0.1968  0.2322 -0.2319
15925W        W58916  11.512  23.900   4.679  0.2104 -0.1697  0.2205
15926W        W58917   5.934   1.874   4.657 -0.0074  0.3207  0.2784
15927W        W58918   8.096  17.714   1.137 -0.1682  0.0985  0.3266
15928W        W58919  19.784  22.162   8.300 -0.2768 -0.0089 -0.1612
15929W        W58920   6.461  21.096   6.182 -0.0005 -0.0417 -0.1546
15930W        W58921  14.723  28.366   5.637  0.0095 -0.1702  0.1663
15931W        W58922  13.498  33.218   3.251 -0.0476 -0.1216 -0.2233
15932W        W58923  29.347  11.661  26.385  0.0045  0.0909 -0.2681
15933W        W58924  18.429  22.269   2.229  0.0035  0.1234  0.0928
15934W        W58925  23.705  31.673   1.748 -0.1867 -0.0103  0.0747
15935W        W58926  24.291  19.801  28.859  0.0222 -0.3863  0.3942
15936W        W58927   9.872  26.113   5.516  0.1675  0.5003 -0.0033
15937W        W58928  11.103  15.899   5.875  0.2124  0.2318  0.1405
15938W        W58929   2.165  15.424   9.355  0.0494 -0.1436  0.0114
15939W        W58930  30.489   6.036  24.386  0.1467 -0.1460 -0.0578
15940W        W58931  27.328  13.519   3.288  0.2486 -0.1244 -0.1187
15941W        W58932  29.977  26.304   2.388  0.0249 -0.1110  0.1165
15942W        W58933  22.993  33.201   4.676  0.1211 -0.5153  0.0389
15943W        W58934   2.312  21.348   5.402 -0.1125  0.3439  0.3206
15944W        W58935  33.064   0.266   6.013  0.0230 -0.0870 -0.1955
15945W        W58936  21.017   9.641   8.261  0.0242  0.0928 -0.1430
15946W        W58937  30.158  14.269  28.239 -0.0226  0.0883  0.2157
15947W        W58938   8.136  18.980  28.705 -0.1177 -0.0668  0.3510
15948W        W58939  29.127  34.666   8.453 -0.1723  0.0327 -0.0943
15949W        W58940  20.620   7.140   6.047  0.0240  0.0024 -0.0311
15950W        W58941  20.115  22.131  24.624 -0.1133 -0.0492  0.0610
15951W        W58942   3.271  25.331   9.847  0.4135 -0.2062  0.2305
15952W        W58943   2.750   4.417   6.994 -0.3100 -0.0363  0.0980
15953W        W58944  32.869  28.773   8.459  0.0061  0.0807 -0.4033
15954W        W58945  12.721  26.378   1.250  0.0372  0.3560  0.0129
15955W        W58946  20.378  26.305  26.591  0.4481 -0.1228  0.2611
15956W        W58947   6.737  28.287  26.910 -0.1732 -0.0540 -0.0446
15957W        W58948  18.751  19.811   9.155 -0.1609 -0.1088  0.4248
15958W        W58949  26.528  24.414  25.734 -0.2522  0.1304  0.4029
15959W        W58950  29.722  21.554   1.484  0.0563 -0.1574 -0.0684
15960W        W58951  20.718  14.332   6.747  0.2524 -0.1408 -0.1754
15961W        W58952  12.854  18.804  27.184  0.0306  0.0791  0.2494
15962W        W58953   5.553  26.595  28.752 -0.1231  0.0537 -0.0865
15963W        W58954  27.055  29.635  26.316  0.0010 -0.0672 -0.2500
15964W        W58955  26.764  34.110   6.865 -0.2020 -0.2371  0.1356
15965W        W58956  16.502   9.412   1.527 -0.0215  0.1110  0.2362
15966W        W58957  28.540  17.939  10.468  0.0663  0.0263 -0.0575
15967W        W58958   2.901  16.862   2.977  0.2010  0.0448 -0.0026
15968W        W58959  15.880  20.206   4.838  0.1042  0.3528 -0.0888
15969W        W58960  31.301  14.223  26.521  0.1383 -0.0281  0.0990
15970W        W58961   8.029  24.444  26.481  0.0537  0.0916  0.1213
15971W        W58962   9.529  19.394  26.337  0.1574 -0.0957  0.2182
15972W        W58963   5.987   9.974   1.708  0.0169 -0.0680 -0.1396
15973W        W58964   5.278   2.386  25.422  0.0252  0.2223  0.2065
15974W        W58965   9.654  12.906   8.153 -0.1364  0.3731 -0.2171
15975W        W58966   6.511  22.183   9.738 -0.2876  0.0883 -0.1459
15976W        W58967   1.208  29.443  26.372 -0.2350  0.1856 -0.2124
15977W        W58968  29.369  10.909   1.583 -0.0545 -0.0860  0.0293
15978W        W58969  13.256  22.080   1.862  0.1417 -0.0441 -0.0666
15979W        W58970  18.061  17.050  26.472 -0.0538  0.0530 -0.2680
15980W        W58971  30.069  25.072   8.571 -0.2076  0.0653 -0.0514
15981W        W58972  15.099  19.386   1.888 -0.4189  0.0474  0.2690
15982W        W58973  34.110  34.649   0.017  0.0080 -0.0356  0.0152
15983W        W58974  24.637   0.403   6.453 -0.0399  0.1126 -0.0760
15984W        W58975  14.956  21.525   6.933 -0.1923  0.3406 -0.1006
15985W        W58976  30.500   1.463   6.273 -0.1001 -0.2657  0.0463
15986W        W58977  31.482  19.655   1.293  0.0492  0.0174 -0.0689
15987W        W58978  18.387  21.534   3.301  0.1523  0.0368 -0.0347
15988W        W58979  19.815  13.501   5.319  0.1834 -0.0602  0.1713
15989W        W58980  11.962  26.310  26.440 -0.0509 -0.1459 -0.0691
15990W        W58981  15.286  22.960   0.065 -0.0359  0.0299 -0.2197
15991W        W58982  17.604  15.634   4.466  0.2473  0.2301 -0.1937
15992W        W58983  25.575  14.162   4.754  0.0487 -0.1718  0.1190
15993W        W58984  23.511  15.742   4.869  0.1088 -0.3757  0.0251
15994W        W58985  25.155  17.173   7.155 -0.0352 -0.3367 -0.2586
15995W        W58986  21.610  25.283   8.133  0.5931 -0.0866  0.2668
15996W        W58987  23.715  30.182   6.673  0.0903 -0.2292 -0.1524
15997W        W58988  16.804  22.512   0.800  0.2984 -0.2793 -0.2477
15998W        W58989   4.837  22.657  26.898 -0.0147  0.2558  0.0537
15999W        W58990  21.523  33.396  20.757  0.1974 -0.2741  0.0417
16000W        W58991  15.929  19.786  25.498 -0.1821  0.2233  0.1599
16001W        W58992   2.661  18.704   0.091  0.1932  0.1880 -0.1122
16002W        W58993  18.803  17.687  23.336 -0.0578 -0.1093 -0.0368
16003W        W58994  18.750  25.319  21.089 -0.1071  0.1198  0.3120
16004W        W58995  19.939  28.941   4.623  0.1565 -0.0400 -0.2563
16005W        W58996  18.041  26.920   0.229 -0.0214  0.0684 -0.1042
16006W        W58997  11.787  29.622   5.770  0.1059  0.1948  0.1574
16007W        W58998  13.312  27.903   6.926 -0.0899  0.0094  0.0759
16008W        W58999   7.910   0.259  27.932 -0.0168  0.2279  0.0320
16009W        W59000   3.920  23.831   3.090  0.2251  0.1078 -0.2409
16010W        W59001  17.787  30.210   0.030 -0.0114 -0.1157 -0.1806
16011W        W59002  16.091   2.844  19.917 -0.1239  0.1108  0.3144
16012W        W59003  22.308  24.886   3.271 -0.1833  0.1349 -0.1215
16013W        W59004  10.743  31.160  25.712  0.4438 -0.0125  0.0481
16014W        W59005  22.286  25.722   8.033 -0.0268 -0.1716  0.2307
16015W        W59006  27.932   4.140   1.104  0.1639 -0.1578  0.2194
16016W        W59007  19.900  32.209   9.329  0.3797  0.3333  0.1062
16017W        W59008   1.100  14.088   0.070 -0.1810  0.1527  0.0346
16018W        W59009  18.899  32.660   1.490 -0.0288  0.1162  0.0300
16019W        W59010   0.578  15.026   4.713 -0.2506  0.1516  0.1891
16020W        W59011  12.011  18.949   8.800 -0.0360  0.0125  0.1446
16021W        W59012  10.099  31.097  18.109 -0.2400 -0.1135  0.2062
16022W        W59013  24.955  16.680   1.205  0.4117  0.1453  0.2448
16023W        W59014  15.898  20.926   0.685 -0.0290 -0.3339 -0.0654
16024W        W59015   0.170  15.112   6.855 -0.0513 -0.0194 -0.1273
16025W        W59016  25.964  24.447   2.102 -0.0296 -0.0071  0.0142
16026W        W59017  13.403  16.651   5.574  0.0705  0.1097 -0.0965
16027W        W59018  15.679   4.570   1.007 -0.0828  0.0725  0.0479
16028W        W59019  16.623  24.236  28.366  0.0519 -0.3596  0.0797
16029W        W59020  17.825  29.802   1.550 -0.2428  0.2849  0.1419
16030W        W59021  10.610  34.017   6.073 -0.0666 -0.0605 -0.1292
16031W        W59022  19.084  26.520   7.263 -0.1465 -0.1145  0.0079
16032W        W59023  23.919  22.444   7.923  0.0246 -0.3087 -0.4094
16033W        W59024  33.108  31.962   7.053 -0.0892 -0.2744  0.1457
16034W        W59025   5.118  32.170  20.402 -0.1401 -0.0020 -0.1501
16035W        W59026  25.908  21.481  27.097 -0.1364 -0.0737  0.1722
16036W        W59027  25.199   1.940   0.547  0.1065 -0.3763 -0.0732
16037W        W59028   4.641  24.979  27.865  0.0278  0.1298  0.0183
16038W        W59029  11.645  14.575   7.563 -0.0329  0.0820  0.2504
16039W        W59030   3.024  17.251  16.480 -0.1760  0.2287 -0.1861
16040W        W59031  15.568  23.813  27.798 -0.0243  0.0722 -0.1655
16041W        W59032  27.266  21.788   3.221  0.1112  0.1086  0.0898
16042W        W59033  23.806  22.662  22.024  0.1205 -0.3335  0.0599
16043W        W59034  22.561  18.836   4.945  0.1167  0.0332  0.0628
16044W        W59035  16.787  18.706  25.847 -0.0949  0.2802 -0.0602
16045W        W59036   0.137   5.062   8.524 -0.2932  0.1429  0.1233
16046W        W59037  34.050  25.014   3.177 -0.4580 -0.0755  0.1388
16047W        W59038  15.810  30.019   9.279  0.1021 -0.1488 -0.4731
16048W        W59039  16.329  15.972  26.785  0.0203  0.0985  0.5063
16049W        W59040   9.090  27.863   2.873  0.2294  0.3024 -0.2450
16050W        W59041  19.092  20.469  24.453 -0.3029 -0.0838  0.2701
16051W        W59042   8.426  20.557  10.071  0.1966  0.1561 -0.2055
16052W        W59043  32.042  21.856   8.377  0.0562  0.4332  0.0474
16053W        W59044   0.298   9.688   2.656 -0.4195 -0.0120 -0.0055
16054W        W59045  13.654  16.645   3.616  0.5080  0.0967  0.0780
16055W        W59046  14.528  19.313   2.642  0.2659 -0.3839  0.1122
16056W        W59047   7.318  26.220  26.616 -0.0136 -0.2307 -0.0853
16057W        W59048  16.424   9.645   1.049 -0.2899 -0.2253 -0.0658
16058W        W59049  17.251  26.015   2.953  0.1667  0.4496 -0.0511
16059W        W59050  21.300  19.028   5.921 -0.1908 -0.0330  0.2326
16060W        W59051  26.996  14.051  29.259 -0.0482  0.1235 -0.1142
16061W        W59052  12.332  21.558   6.610  0.3324 -0.4105  0.0776
16062W        W59053  33.771  23.852   6.100  0.0136 -0.3759  0.0287
16063W        W59054  31.674  18.189  24.151 -0.1368  0.0957 -0.1686
16064W        W59055  28.397  16.819   9.040  0.1799 -0.0503  0.3402
16065W        W59056  20.677  18.338   5.093  0.2263  0.2239 -0.2360
16066W        W59057  26.071  25.803  28.105  0.1053  0.2707  0.1882
16067W        W59058   6.178  17.288   4.076  0.0072  0.1891  0.1541
16068W        W59059  25.952  17.025   8.714  0.2608  0.1309  0.0114
16069W        W59060   4.756  11.461   8.442 -0.0460  0.1482  0.2176
16070W        W59061   1.696  24.515   6.667 -0.0236 -0.1197  0.0585
16071W        W59062  26.189  15.207   1.099 -0.0396  0.0304 -0.2796
16072W        W59063  13.537   6.339   6.349 -0.1783  0.1344 -0.2977
16073W        W59064  13.429   8.385  17.959 -0.0841  0.1244 -0.2879
16074W        W59065  26.893  12.209   1.939  0.0504  0.0109  0.0502
16075W        W59066   0.837  17.301  24.065  0.1583  0.3903 -0.2453
16076W        W59067  19.563  28.114   3.239 -0.2567 -0.0371 -0.3007
16077W        W59068  21.147  24.116   9.035  0.3124  0.1452  0.0505
16078W        W59069  12.738  13.265  27.214 -0.2264  0.1699 -0.1040
16079W        W59070  25.065  23.200  26.605 -0.0559 -0.0465 -0.0428
16080W        W59071   0.413  26.983  16.770 -0.1286  0.0898  0.5525
16081W        W59072  14.625  25.815  27.308 -0.1360  0.0969 -0.0030
16082W        W59073  20.575   4.975  28.640 -0.0645  0.1105 -0.2179
16083W        W59074  17.032  14.515   2.630 -0.0915 -0.1542  0.2416
16084W        W59075  19.463  26.687   6.326  0.2337 -0.2425 -0.2145
16085W        W59076   0.791  18.254   3.280 -0.0338 -0.1429  0.1126
16086W        W59077  11.799  21.226   7.814 -0.2942  0.0327  0.0539
16087W        W59078  25.426  22.503   2.436 -0.2688  0.2781  0.2389
16088W        W59079  27.540   6.656   9.410 -0.0502 -0.0802 -0.2161
16089W        W59080  14.599   9.047   4.682  0.0583 -0.1780 -0.2175
16090W        W59081  25.335   9.292   8.154  0.0694  0.2913  0.1870
16091W        W59082  21.108  17.404   4.959 -0.0575  0.5295  0.0022
16092W        W59083  12.182  30.080   5.884  0.0238 -0.0063  0.2981
16093W        W59084  14.937  16.334   8.024  0.0204  0.0384 -0.1523
16094W        W59085  18.614  20.844   5.857 -0.1149  0.0823  0.1305
16095W        W59086  16.764  15.335  28.225  0.0594  0.1113 -0.0540
16096W        W59087  17.698  32.103  28.330  0.2924  0.1192  0.1092
16097W        W59088  16.335  20.947   8.948 -0.1402 -0.0733  0.2336
16098W        W59089  31.728  32.236  26.138 -0.0935 -0.3745  0.0642
16099W        W59090  15.960  11.329   2.005 -0.2950  0.1239  0.3017
16100W        W59091  24.591  15.525   3.411  0.1500  0.0989  0.0141
16101W        W59092  21.504  16.079   7.012  0.0217  0.6103  0.0426
16102W        W59093  21.929  13.019   9.464 -0.0201 -0.1285  0.1385
16103W        W59094  33.011  11.092   6.029 -0.1898 -0.2490  0.0033
16104W        W59095  15.202  26.142  26.190 -0.0044  0.3411 -0.3258
16105W        W59096   2.575  18.561  20.873 -0.0700 -0.0325 -0.2705
16106W        W59097  25.106   0.213   1.739  0.1435 -0.0185  0.0330
16107W        W59098  26.112  34.263   7.280 -0.0693 -0.0428  0.0032
16108W        W59099  20.652  16.400   8.608 -0.2429  0.0688 -0.1216
16109W        W59100   1.423  13.585   8.128  0.4767 -0.1967  0.2172
16110W        W59101  16.972  18.046   7.335  0.0217 -0.1886 -0.1990
16111W        W59102  15.050  34.313   3.734  0.0405 -0.0077 -0.4052
16112W        W59103   6.996  17.626   7.122 -0.2995  0.2557  0.1612
16113W        W59104  16.310  20.764   7.826  0.1463 -0.0721  0.3372
16114W        W59105  18.869  22.716  26.576  0.1495 -0.1561  0.1155
16115W        W59106  24.810  29.644   0.871 -0.1122  0.0343 -0.1268
16116W        W59107  13.909  22.260   0.674 -0.4499 -0.2118  0.0433
16117W        W59108  13.146  10.197   2.485 -0.0195  0.0013  0.0368
16118W        W59109  12.959  23.600   8.918  0.1330 -0.1825  0.2628
16119W        W59110  11.496  34.331   5.750  0.1186 -0.0037  0.4245
16120W        W59111  16.657  17.434   3.627  0.0045 -0.3327 -0.0191
16121W        W59112  24.061  26.746  23.184  0.1286  0.3546  0.4513
16122W        W59113   7.628  10.215   9.469 -0.3010 -0.1427 -0.0143
16123W        W59114  12.129  18.314   4.234 -0.0382  0.0844 -0.0005
16124W        W59115  14.205   0.069  26.893 -0.0678  0.3477  0.0105
16125W        W59116  29.432  16.797   3.688  0.3459 -0.0112  0.1237
16126W        W59117  20.474   3.877   0.866  0.0582  0.3510  0.0261
16127W        W59118  21.605  13.432   6.720  0.1474 -0.1257  0.0693
16128W        W59119  21.584  26.285   3.741  0.0468  0.1207  0.0302
16129W        W59120  20.526  22.406  24.593 -0.0005 -0.0628 -0.3380
16130W        W59121  14.512  24.937   2.216  0.0618  0.2598 -0.1412
16131W        W59122  11.694  16.253   8.055 -0.2328 -0.0206  0.0738
16132W        W59123  21.429  13.786  28.430  0.0629  0.2203 -0.0258
16133W        W59124  12.471  25.947  26.336  0.0012  0.3080 -0.0750
16134W        W59125  25.675  22.549   7.877 -0.1827 -0.2361 -0.1646
16135W        W59126  34.691  25.568   8.530  0.1385  0.0092  0.2646
16136W        W59127  13.795  10.219   4.707 -0.0745 -0.2322 -0.0056
16137W        W59128  20.927  21.228   3.158  0.0432  0.2742  0.0239
16138W        W59129  31.209  23.501  18.622  0.1120  0.1130 -0.1415
16139W        W59130   6.076  22.617   8.055 -0.0360 -0.1687  0.3880
16140W        W59131  33.175  20.426   1.288  0.0582 -0.1145 -0.1084
16141W        W59132  18.578  28.835   5.362 -0.0554  0.1000  0.2470
16142W        W59133  30.571   7.588  28.841  0.1254  0.0401  0.1520
16143W        W59134  10.285  20.049  20.091 -0.1399  0.0695  0.1943
16144W        W59135  10.410  14.926   9.349  0.2215 -0.1468  0.0041
16145W        W59136  21.036  17.658   9.096 -0.0076  0.2267  0.2485
16146W        W59137   8.865  13.793   7.980  0.2396 -0.0206  0.1657
16147W        W59138  18.572  15.385  26.669 -0.0099 -0.3400 -0.1468
16148W        W59139   6.521  23.733   1.016 -0.0087 -0.0324 -0.2474
16149W        W59140  22.655  14.401  29.260  0.1720  0.1960 -0.1427
16150W        W59141  15.101  17.375  27.800 -0.2049 -0.2196 -0.2946
16151W        W59142  15.162  17.610   3.974  0.2420  0.0860 -0.0179
16152W        W59143  33.024  19.237  22.922  0.0652 -0.0305  0.1096
16153W        W59144  27.294   6.875   8.677  0.0842 -0.1264 -0.2222
16154W        W59145  21.499  21.327   0.806  0.1376  0.0127 -0.0250
16155W        W59146  23.231  27.390   5.498 -0.1349  0.0468  0.1718
16156W        W59147   1.799  29.658  28.823  0.0341 -0.0927  0.0764
16157W        W59148  12.362  32.661   0.036  0.2854 -0.1924  0.0075
16158W        W59149  10.403  20.549   5.497 -0.0203  0.0016  0.0648
16159W        W59150  27.109  27.825   5.297 -0.0663 -0.1473 -0.0588
16160W        W59151  30.133  23.847   4.929  0.3448  0.1732 -0.0854
16161W        W59152  21.714  17.757  25.426  0.0222  0.0451 -0.1068
16162W        W59153  18.680  20.907  29.059  0.2617 -0.0237 -0.2829
16163W        W59154  13.852   9.042  10.695  0.0442 -0.0563  0.3148
16164W        W59155  24.316  27.805  19.312  0.0654  0.1866 -0.1754
16165W        W59156  29.274  23.582   0.655  0.0518 -0.2088 -0.1174
16166W        W59157  27.003  26.332  28.548  0.0408 -0.0829 -0.3393
16167W        W59158  27.680  15.206   7.442 -0.2026 -0.0577 -0.0192
16168W        W59159  29.849  14.737   2.863 -0.0347 -0.2498 -0.1158
16169W        W59160  11.492   9.919   2.097 -0.0839 -0.0243  0.2763
16170W        W59161  24.707  24.213   1.749 -0.1136  0.1213 -0.0397
16171W        W59162  15.264  25.669   3.005  0.0196  0.2877 -0.1465
16172W        W59163  29.023  31.887   4.728  0.3069 -0.1874 -0.0403
16173W        W59164  15.636  26.034   7.121  0.3496  0.2475 -0.0089
16174W        W59165  18.646  14.814  26.902  0.1565 -0.1943 -0.1569
16175W        W59166  13.305  25.450   5.253 -0.0663  0.0832 -0.2607
16176W        W59167   5.429  22.906   3.432  0.1728 -0.0611 -0.0199
16177W        W59168  15.968   8.484   3.127  0.0391  0.1424  0.3453
16178W        W59169   9.690  20.804   4.604 -0.0099  0.1141 -0.0397
16179W        W59170   7.939  13.585  11.045 -0.2215  0.0170 -0.1278
16180W        W59171  11.262  17.894  22.766  0.3059 -0.1259  0.1516
16181W        W59172  21.519  17.259   8.069  0.0509  0.0548  0.0486
16182W        W59173  27.864  25.315   5.597  0.0796  0.1392  0.1972
16183W        W59174  25.255  19.532   3.432 -0.1115  0.3035  0.1334
16184W        W59175  11.623  13.788   9.651 -0.0467  0.0056 -0.0795
16185W        W59176   7.373  19.222   3.666  0.0079 -0.2205  0.0149
16186W        W59177  18.391  24.032   5.106 -0.1314  0.1155  0.0899
16187W        W59178  26.456  19.239   6.053 -0.1994 -0.1654  0.0192
16188W        W59179  17.820  12.174   9.605  0.2254 -0.0803  0.1960
16189W        W59180   2.866   2.658  17.205  0.2572 -0.6559  0.0408
16190W        W59181  18.209  11.952  21.364  0.0561 -0.2313 -0.0203
16191W        W59182  30.436  25.542  27.704  0.1140  0.2255  0.0648
16192W        W59183  28.959  20.001   3.246  0.1297 -0.2076 -0.3895
16193W        W59184   4.513   0.330   1.809  0.2956 -0.2011  0.0799
16194W        W59185  22.646  31.158   7.956 -0.1340 -0.1686 -0.4317
16195W        W59186  32.399  28.358   7.924  0.1325 -0.1607  0.0180
16196W        W59187  20.631  25.038   7.966 -0.0022  0.0229 -0.2169
16197W        W59188  32.983  17.944   5.333 -0.0240 -0.1133 -0.1819
16198W        W59189  18.541  22.553   6.735 -0.1359  0.2082 -0.1887
16199W        W59190   1.548   0.004  28.505 -0.1019 -0.0511 -0.1049
16200W        W59191  34.327  18.706  26.468  0.2974  0.2136 -0.0855
16201W        W59192  30.103   6.583   1.772 -0.2136  0.0739 -0.1430
16202W        W59193  24.547  13.898   7.492  0.3259 -0.0705  0.0546
16203W        W59194  26.851  14.593   8.880  0.1141  0.0989  0.0549
16204W        W59195  26.129  19.150   0.547  0.0887 -0.1386 -0.0721
16205W        W59196  30.888  16.953   5.266  0.2237  0.0499 -0.2822
16206W        W59197  15.285  15.396   1.770  0.0191 -0.2275  0.1674
16207W        W59198  31.631  21.311  28.780 -0.2184 -0.2736  0.1851
16208W        W59199  16.009  23.050   7.068  0.2117 -0.0422 -0.3993
16209W        W59200  26.444  34.010   6.311  0.1117 -0.1374 -0.1824
16210W        W59201   7.516  28.792   2.377  0.1736 -0.1828 -0.0113
16211W        W59202  11.319  19.402  22.073  0.3209  0.0748  0.0276
16212W        W59203  14.900  28.907   5.079  0.0788 -0.0380 -0.4268
16213W        W59204  13.343  13.878   6.156 -0.1401 -0.0600  0.1828
16214W        W59205  20.403  15.937  20.896  0.0001 -0.2731 -0.0054
16215W        W59206  22.262  24.062   0.896  0.0387  0.0865  0.2032
16216W        W59207  20.039  28.735  19.904 -0.1602  0.2324  0.0261
16217W        W59208  18.274  17.870   0.195  0.0067 -0.0177  0.0427
16218W        W59209  22.480  21.001   7.938  0.2128  0.1401  0.0781
16219W        W59210  11.342   9.231  28.123 -0.1566 -0.1293  0.2263
16220W        W59211   2.506  14.653   6.927 -0.1291  0.0203  0.2193
16221W        W59212  12.929   0.515   8.211 -0.1253  0.1095  0.0965
16222W        W59213  23.659  13.616   4.877  0.1265 -0.2384  0.0710
16223W        W59214   3.153  19.666   5.861 -0.1564  0.2689 -0.0212
16224W        W59215  27.722   5.632   4.934  0.0706  0.0022 -0.0044
16225W        W59216  11.497   7.215  21.642  0.0593 -0.3167 -0.0231
16226W        W59217   6.442  19.707  15.479 -0.2485  0.3248  0.0842
16227W        W59218  24.511  26.865  21.074 -0.1143 -0.1349 -0.3278
16228W        W59219   7.068  22.576   7.047  0.1361  0.2308 -0.1441
16229W        W59220  28.473  15.169  11.017 -0.0348 -0.0045 -0.1110
16230W        W59221  15.002  25.389  19.537 -0.0499 -0.0189  0.7229
16231W        W59222  21.611  24.583   9.619 -0.0896  0.0542  0.2797
16232W        W59223  20.408  11.293   3.182  0.1285  0.3279 -0.3260
16233W        W59224  22.621  17.189   3.411  0.1077  0.1428 -0.3617
16234W        W59225  21.990  10.396  18.505 -0.1222  0.0698 -0.1103
16235W        W59226  13.851  19.112   4.085  0.1156 -0.4416  0.1522
16236W        W59227  19.852  12.200  17.434  0.2535  0.1814  0.2154
16237W        W59228  27.849  19.389   4.756 -0.0484  0.4665 -0.1712
16238W        W59229  14.890  16.478   7.438  0.1820 -0.0416  0.1489
16239W        W59230  31.921  30.674   5.363  0.1323 -0.2022  0.0718
16240W        W59231   1.759  24.842  27.330  0.1756  0.1894 -0.1619
16241W        W59232  13.182  15.896   8.738 -0.1326 -0.1840  0.1721
16242W        W59233   8.696   8.722  10.118 -0.3926 -0.1943 -0.3676
16243W        W59234  30.515   3.618   9.225 -0.0500 -0.2011  0.1578
16244W        W59235  11.038  16.520  10.034 -0.0563 -0.0260 -0.0797
16245W        W59236  18.005  34.107   1.897  0.0576  0.0571 -0.0477
16246W        W59237  26.437  11.101   6.623  0.1417 -0.2818  0.0101
16247W        W59238   2.121  24.599   9.121  0.1446 -0.0471  0.0516
16248W        W59239  22.937  34.395   0.556  0.1171 -0.1491  0.2505
16249W        W59240  14.922  27.498   5.630  0.3853  0.3691 -0.0779
16250W        W59241  26.795   2.958  19.255 -0.0622  0.1913  0.1219
16251W        W59242  24.309  29.742   8.112  0.3603  0.1390 -0.1856
16252W        W59243  24.878  18.759  15.904  0.1879 -0.0900 -0.1923
16253W        W59244  21.502   6.325  18.610 -0.1608  0.1646  0.1966
16254W        W59245  24.524  27.401  27.977  0.2296  0.3307  0.1020
16255W        W59246  19.843   8.586  28.220 -0.1319  0.0306 -0.0354
16256W        W59247  21.521  28.792   9.049  0.0660  0.0056  0.1922
16257W        W59248  26.658  26.596   9.440 -0.0611  0.0055  0.1716
16258W        W59249  19.495  33.938  27.379 -0.1638 -0.1015  0.0406
16259W        W59250  23.431  30.933   8.265 -0.2333 -0.0982  0.0973
16260W        W59251  11.877  20.497  28.004  0.0633 -0.0253  0.0849
16261W        W59252  14.497  29.480  27.928  0.4551 -0.2071 -0.0204
16262W        W59253  16.112   9.233   7.376 -0.0157 -0.1398 -0.1372
16263W        W59254  15.179  23.658  28.693 -0.1037  0.2004 -0.0544
16264W        W59255   5.987   0.976  27.634 -0.1238 -0.0763  0.1476
16265W        W59256   6.565  31.424  20.666 -0.0135 -0.1783 -0.1094
16266W        W59257  23.471  30.320   3.390 -0.1030 -0.0866  0.1806
16267W        W59258  24.058  24.306   4.007  0.1872 -0.2688 -0.1340
16268W        W59259  18.931  22.144  21.027  0.3052  0.3651 -0.0011
16269W        W59260  16.608  18.333   7.222 -0.1176 -0.1041  0.1012
16270W        W59261  14.082  30.607  26.583 -0.0368  0.0760  0.0679
16271W        W59262   8.425  15.102  17.192 -0.0049 -0.2400 -0.0572
16272W        W59263   5.200  21.026  27.525 -0.1100  0.0420  0.0800
16273W        W59264  26.906  31.766  27.228  0.2080 -0.1184  0.2313
16274W        W59265  17.793  29.217   1.335 -0.5049 -0.4683  0.0354
16275W        W59266  14.577   8.324  25.034  0.0528 -0.0219 -0.2623
16276W        W59267  18.155  12.100   2.436  0.2291  0.0491 -0.0300
16277W        W59268  24.430  25.105  19.555  0.6642 -0.0468  0.1408
16278W        W59269  19.172  15.809   1.534 -0.3582 -0.1419 -0.0720
16279W        W59270   2.126   4.237   1.914  0.1159  0.2530 -0.1147
16280W        W59271  24.597  25.637  20.295 -0.1244  0.3721  0.0232
16281W        W59272  15.408  30.271   8.437  0.0440 -0.2271  0.0429
16282W        W59273  21.715  16.516   1.281 -0.2194  0.2823 -0.0335
16283W        W59274  32.672  31.944   9.888 -0.1133  0.1396  0.0801
16284W        W59275  26.969  19.642   6.083 -0.0638 -0.1574  0.0296
16285W        W59276  17.457  27.409  28.234 -0.2181  0.2146  0.2572
16286W        W59277   0.940  33.075  22.846 -0.2644 -0.0520  0.0777
16287W        W59278  26.498  13.535  26.221  0.2739  0.0516 -0.0779
16288W        W59279   6.668  16.420   2.777 -0.1121  0.0483 -0.1776
16289W        W59280  20.205  12.695   9.184  0.1724 -0.2944 -0.1254
16290W        W59281  20.791  25.384  16.996  0.0393  0.0669  0.2123
16291W        W59282  10.878   4.713   3.638 -0.0510 -0.1957  0.0591
16292W        W59283  20.992  25.350  12.727 -0.0535 -0.2071 -0.0164
16293W        W59284   6.002  21.675   3.786 -0.0334  0.0104 -0.3179
16294W        W59285  26.873  29.463   8.884  0.1942 -0.2530 -0.0408
16295W        W59286   6.302  31.944   6.526 -0.1200 -0.4372  0.1479
16296W        W59287  23.440  30.404   7.522 -0.0404 -0.3425 -0.0826
16297W        W59288  17.840  29.764   5.667  0.0375 -0.2468  0.0462
16298W        W59289   9.836  24.285  27.008  0.1201  0.0940 -0.2588
16299W        W59290  25.253  29.333   6.061  0.0208  0.2880 -0.2493
16300W        W59291  26.125  26.428  17.039 -0.1459 -0.0046  0.1071
16301W        W59292  11.954  22.415  29.228  0.1940  0.1907 -0.1495
16302W        W59293   3.720  20.817  17.856 -0.1392  0.0198  0.5202
16303W        W59294  17.968   2.241   4.626  0.0413 -0.0004 -0.0606
16304W        W59295  16.687  33.978  24.896  0.0167 -0.0246 -0.1984
16305W        W59296  19.683  25.706   4.228  0.0253 -0.0560  0.1536
16306W        W59297  25.530  29.814   7.460  0.1741 -0.2839  0.1501
16307W        W59298  19.777  21.845  27.006 -0.1043 -0.1204 -0.2209
16308W        W59299  24.607  34.387   4.469  0.1633  0.0113 -0.1400
16309W        W59300  30.741   3.795  21.812  0.0334 -0.0836  0.0761
16310W        W59301  13.021  23.058   7.520  0.1657  0.0673  0.0076
16311W        W59302  12.993  25.178  21.850 -0.0704 -0.0959  0.1178
16312W        W59303   4.186  10.856   7.485 -0.1067  0.1598 -0.1047
16313W        W59304  30.216  26.515  23.627 -0.1600 -0.0024  0.2757
16314W        W59305  19.048  24.829   0.633 -0.1546  0.0419 -0.1683
16315W        W59306  21.100  18.765   7.355 -0.1667  0.1665 -0.0134
16316W        W59307  24.183   3.836   6.661 -0.3005  0.0897  0.1024
16317W        W59308  24.250  33.133   5.210 -0.0425 -0.0970  0.4812
16318W        W59309  11.034  22.990   5.732  0.3094 -0.0588 -0.2902
16319W        W59310  17.957  30.898  15.034  0.0373  0.0020 -0.0458
16320W        W59311  23.345   9.685   1.655 -0.1694 -0.1180 -0.1658
16321W        W59312  18.463  32.544  27.901  0.1489 -0.1348 -0.1661
16322W        W59313  22.373  22.714  28.712  0.3046  0.1958  0.3348
16323W        W59314  30.041  28.930  21.240  0.1048  0.2859  0.0113
16324W        W59315   1.085  33.804  23.976 -0.0812  0.0486  0.0096
16325W        W59316  15.963  19.603  21.410 -0.2653  0.1381  0.2752
16326W        W59317  16.455  32.340  28.997  0.0252 -0.1940 -0.3302
16327W        W59318  14.333  29.892   4.564 -0.1799 -0.0612  0.3337
16328W        W59319  21.350  13.798   6.202  0.2011  0.0107 -0.3704
16329W        W59320  13.659  22.948   1.171  0.1043  0.0091 -0.0572
16330W        W59321   6.746  14.752   5.434  0.0414 -0.0367  0.1245
16331W        W59322  10.051  15.511  23.012  0.0727 -0.0693 -0.2057
16332W        W59323  12.836  20.040  28.771  0.2559 -0.2053  0.0366
16333W        W59324  26.069  25.015   9.430 -0.4525 -0.0030  0.1676
16334W        W59325  21.954   3.922  25.825 -0.0203  0.1096  0.0961
16335W        W59326   4.177  31.791  25.565 -0.1731  0.0551 -0.1026
16336W        W59327  20.431  21.589   5.973  0.6813 -0.1263 -0.1044
16337W        W59328  26.186  28.256  24.023 -0.2298  0.2470  0.0150
16338W        W59329  31.785  16.969   4.887  0.2857  0.0705  0.2199
16339W        W59330  22.912  30.214  16.351  0.0270 -0.0707 -0.1169
16340W        W59331  32.370  23.694   5.348  0.0985  0.2711  0.0759
16341W        W59332  34.463  20.954  24.663 -0.2321 -0.1824 -0.0884
16342W        W59333  22.929  29.233   0.069  0.2694 -0.1643 -0.2745
16343W        W59334  10.665  27.414  19.826 -0.0516  0.1007  0.1338
16344W        W59335  16.494  24.997   6.554 -0.1401 -0.3899 -0.3350
16345W        W59336  14.797  21.063  26.209 -0.1283 -0.1261  0.0684
16346W        W59337  22.153  11.700   4.750 -0.0927 -0.2239 -0.1363
16347W        W59338  19.809  28.073  29.062  0.4873  0.0422 -0.2794
16348W        W59339  23.970  33.504  28.233 -0.1558  0.1050 -0.0321
16349W        W59340  20.434  17.088  16.303 -0.0865  0.0337  0.4269
16350W        W59341  30.753  12.194   4.602 -0.0544 -0.0219  0.0918
16351W        W59342  27.041  12.538  26.594  0.1766 -0.1960  0.2826
16352W        W59343  20.975   1.350  25.603  0.0002  0.0463 -0.0153
16353W        W59344   8.303  29.684  23.156 -0.1747 -0.0887  0.1296
16354W        W59345  11.840  28.583  27.183  0.3553  0.0134  0.1185
16355W        W59346   2.937  25.249  26.092  0.2068  0.2795  0.0687
16356W        W59347  27.592  28.599   5.218  0.0788 -0.0253  0.0145
16357W        W59348   6.896  25.418   4.881 -0.2283  0.0057 -0.2705
16358W        W59349  18.355   5.309  28.540 -0.1154 -0.0926  0.0434
16359W        W59350   0.362  20.052  27.838 -0.0308 -0.1100 -0.1096
16360W        W59351  16.378  18.399  27.086  0.1826  0.0561 -0.2676
16361W        W59352  21.390  22.427  16.170  0.0562  0.0382 -0.2691
16362W        W59353  12.659  22.402   6.791  0.1841  0.3141  0.0374
16363W        W59354  17.951  25.908   3.825  0.1823 -0.0826 -0.3190
16364W        W59355  25.717  14.700  20.070  0.4165 -0.0311  0.0365
16365W        W59356  15.746  18.086  26.075 -0.0218 -0.1755  0.0113
16366W        W59357  32.946   1.085   5.271  0.0456 -0.2970 -0.1076
16367W        W59358   4.694   2.004  20.169 -0.0259  0.0682 -0.0356
16368W        W59359  17.952  26.665   6.013 -0.0777  0.0195 -0.1057
16369W        W59360  21.393  32.740  28.443 -0.2323  0.2136 -0.4278
16370W        W59361  22.384  27.959   1.849 -0.1281 -0.0268 -0.3287
16371W        W59362  26.284  30.767   8.358  0.2817 -0.0303 -0.0402
16372W        W59363  12.054  23.776  15.513  0.4531  0.2427  0.0549
16373W        W59364   2.970   5.492   4.790 -0.0943  0.0259 -0.2856
16374W        W59365  18.253   3.017   4.263  0.2037  0.0043  0.0091
16375W        W59366  18.469  14.787  25.225 -0.2068 -0.1213  0.0143
16376W        W59367   1.470  24.883  19.529 -0.1185  0.2856 -0.0651
16377W        W59368  16.838  26.391  29.224  0.1117 -0.3911 -0.1880
16378W        W59369  32.580  25.772  25.621  0.0126 -0.0109 -0.1931
16379W        W59370  34.721  32.549   2.177  0.3853 -0.4604  0.0488
16380W        W59371  30.160  24.064   8.511  0.1385  0.0659  0.1664
16381W        W59372  20.981  12.651  27.245  0.0325 -0.1230  0.0541
16382W        W59373   5.217   5.333  10.820  0.1191 -0.1613 -0.1144
16383W        W59374  21.122  23.915  24.186  0.3252  0.0354 -0.1204
16384W        W59375  22.609  19.769   0.633 -0.0021  0.1503 -0.0194
16385W        W59376  33.128  31.042  17.381 -0.1385  0.2741 -0.0935
16386W        W59377  15.465  26.664  29.099 -0.3255 -0.0570  0.4122
16387W        W59378  15.795  23.274  22.993  0.0876 -0.2319 -0.1668
16388W        W59379  16.313  20.339  17.368 -0.3522 -0.0094  0.0902
16389W        W59380  22.449  25.911  26.644 -0.0965  0.0447  0.1330
16390W        W59381  28.201  20.668  28.685  0.3401 -0.1442 -0.4618
16391W        W59382   7.082   0.133  18.180  0.1807 -0.2183 -0.1321
16392W        W59383  24.040   1.414   7.784  0.0649  0.0499 -0.0556
16393W        W59384  16.231  16.277   5.763 -0.0400  0.0356  0.0793
16394W        W59385  11.359  22.803  28.165 -0.2153 -0.1468  0.0017
16395W        W59386  26.818  26.209  20.503 -0.1377 -0.1866  0.2870
16396W        W59387   5.127   2.705  22.210 -0.3386  0.0380  0.0337
16397W        W59388  21.174  14.676   2.446 -0.1892  0.0935  0.1901
16398W        W59389  11.246   8.669   7.899 -0.1897  0.1699 -0.3260
16399W        W59390  10.581  30.967  15.239  0.2121 -0.0782  0.2534
16400W        W59391  23.449  13.686  26.672  0.2844 -0.0747  0.2818
16401W        W59392   3.381  23.364  26.335  0.0603  0.2675  0.0075
16402W        W59393  12.568   0.104   4.977 -0.0506 -0.0034 -0.0798
16403W        W59394  31.278  34.297  23.544 -0.1477  0.2759 -0.2072
16404W        W59395   7.907  21.542  17.983 -0.0745 -0.1708 -0.2951
16405W        W59396  26.855   4.366  20.503 -0.1556 -0.1158 -0.1397
16406W        W59397  21.105   4.610  14.027  0.3319  0.5129  0.1830
16407W        W59398   9.622  33.315  25.990  0.1181 -0.2627  0.0189
16408W        W59399  12.065  17.090  28.207 -0.2510 -0.2659 -0.3548
16409W        W59400  17.805  16.918  25.337  0.0169 -0.0080  0.3684
16410W        W59401   1.999  16.138   7.560  0.1101 -0.1379  0.2211
16411W        W59402  31.744   6.508  20.021 -0.1386  0.0537  0.0527
16412W        W59403   9.696  27.721  15.385  0.0214  0.0592 -0.0766
16413W        W59404  26.254  24.792  28.307  0.1574 -0.1329 -0.0405
16414W        W59405   0.738   3.087   5.349  0.2532 -0.2455 -0.1203
16415W        W59406  22.665   6.751  20.079 -0.1901  0.3008 -0.0294
16416W        W59407  23.419  12.282   1.153  0.1097  0.0671  0.1274
16417W        W59408   7.861  27.114   4.755 -0.2491 -0.0947  0.0281
16418W        W59409  15.909  29.776  16.725  0.0026 -0.1080 -0.3092
16419W        W59410  21.109  25.955  27.411 -0.0788 -0.1065  0.3514
16420W        W59411   2.217   1.504  28.552  0.0052  0.0614  0.0521
16421W        W59412  20.035  10.660  26.564  0.2919 -0.0822  0.1622
16422W        W59413  33.750  34.605  22.714  0.0861  0.5768 -0.0549
16423W        W59414  25.202  19.705  28.683 -0.3782 -0.2071 -0.1946
16424W        W59415  25.373  32.844  22.693  0.4927 -0.1148  0.0171
16425W        W59416   9.813  29.115   8.729 -0.1058  0.0294  0.0707
16426W        W59417  21.198   9.374   8.655  0.0693  0.1575 -0.5824
16427W        W59418  13.663  20.377  23.204  0.0336  0.0412 -0.1813
16428W        W59419  19.248  20.061  27.965 -0.0414  0.1268 -0.1762
16429W        W59420  20.109  22.217  20.191  0.3516 -0.1658 -0.1066
16430W        W59421  30.496   0.066  13.876 -0.1074 -0.1712 -0.0705
16431W        W59422  16.504  32.897  28.054  0.0200  0.3977 -0.0326
16432W        W59423  15.382  18.933   5.018  0.1427  0.0841  0.1992
16433W        W59424  17.072  22.934  25.923  0.0382  0.2812  0.1495
16434W        W59425  32.421  22.245   5.997 -0.3235  0.4373 -0.1611
16435W        W59426  17.532  22.764  23.677 -0.2369  0.1224  0.0403
16436W        W59427  22.125  17.041  26.056  0.0689  0.1424  0.0607
16437W        W59428  18.267  20.227   8.495  0.2243 -0.0252  0.1034
16438W        W59429  31.215  19.144  25.960 -0.1853 -0.0986 -0.2677
16439W        W59430  14.889  27.006  18.716 -0.0053 -0.0199 -0.3073
16440W        W59431  18.757  27.594   1.154 -0.0006  0.1706 -0.1257
16441W        W59432   3.989   5.101   5.109 -0.1379  0.1750  0.1397
16442W        W59433   2.611  13.913   1.624  0.1255 -0.0194 -0.2413
16443W        W59434  21.632  34.014  24.583  0.0528 -0.2004 -0.2683
16444W        W59435  14.672  33.689  27.732 -0.3002  0.0022 -0.2842
16445W        W59436  27.026  30.518  22.705 -0.2432  0.0733  0.1749
16446W        W59437   7.052  25.322  28.579  0.2452  0.3340 -0.0606
16447W        W59438  15.265  29.691   1.083 -0.2364 -0.1833 -0.0330
16448W        W59439  20.611  24.798   1.770  0.1120 -0.1440 -0.1855
16449W        W59440  15.578  25.467  28.518  0.0539 -0.3472 -0.0194
16450W        W59441  18.713  18.003  28.548 -0.1063 -0.2460 -0.0350
16451W        W59442  24.343  28.928  17.657 -0.3472 -0.0804 -0.0630
16452W        W59443  10.631  17.592  26.675 -0.0344 -0.0542  0.2113
16453W        W59444  21.065  26.918   6.937 -0.0084  0.0051  0.1879
16454W        W59445   8.679  31.073  24.193  0.0054 -0.2129 -0.0297
16455W        W59446  17.810  23.866  17.971 -0.3928  0.2438 -0.0588
16456W        W59447  23.924  17.588  26.899  0.0531  0.0180  0.1310
16457W        W59448   0.852  34.605   9.871 -0.0974  0.4924  0.0282
16458W        W59449  20.652  23.386   2.184 -0.0440 -0.0168  0.3443
16459W        W59450   4.036  30.702   4.253 -0.2779  0.0314 -0.0849
16460W        W59451   1.579  10.167   3.932 -0.1307 -0.2697 -0.1758
16461W        W59452  34.234  20.553   5.918  0.3210  0.0070 -0.2001
16462W        W59453  21.819  25.320  17.783 -0.2088 -0.0494  0.0810
16463W        W59454  22.723  33.264  27.909 -0.3020  0.2487  0.2622
16464W        W59455  19.400  30.303   2.384  0.1697 -0.1896  0.0977
16465W        W59456  17.213  16.483  24.248  0.3104  0.0650 -0.1553
16466W        W59457  12.255  31.856   1.232 -0.2744 -0.2106  0.0065
16467W        W59458  13.675  22.375   0.261  0.1516  0.2350 -0.0713
16468W        W59459  28.814  10.109  19.851  0.1970 -0.0848 -0.1120
16469W        W59460   1.156  28.809  27.503  0.0686 -0.1339  0.0467
16470W        W59461  30.264  21.649  22.905 -0.1273 -0.0538 -0.1694
16471W        W59462  10.272  13.103   3.100 -0.0265  0.2700 -0.3142
16472W        W59463  22.590  28.623  24.382  0.1628  0.0136  0.0415
16473W        W59464   4.290  30.865  25.287 -0.0190  0.2016 -0.0597
16474W        W59465  28.665  17.544  28.356 -0.1153  0.1556 -0.0541
16475W        W59466   9.303  22.415  21.712  0.2158 -0.0483 -0.0374
16476W        W59467  18.183  17.766  23.148  0.0331  0.1383 -0.0629
16477W        W59468  26.419   7.362   2.393 -0.0839  0.2046 -0.0085
16478W        W59469  23.701  26.456   8.667  0.1928  0.0528 -0.2812
16479W        W59470  26.230  33.255  24.652  0.1728 -0.0772 -0.1072
16480W        W59471  21.177  21.968  25.174 -0.0410 -0.0103 -0.2616
16481W        W59472  20.243  27.252  26.878 -0.2496 -0.0764 -0.0741
16482W        W59473  20.606  16.561   5.293 -0.1432 -0.1857 -0.1383
16483W        W59474   7.779   6.018   5.621  0.3486 -0.0908 -0.0619
16484W        W59475  26.398  26.143   1.155  0.1972 -0.0695  0.0054
16485W        W59476  11.105  31.222   1.739  0.1083 -0.1956  0.3041
16486W        W59477  16.518  21.663  22.095  0.1770  0.1572  0.4144
16487W        W59478   9.137  20.844   7.408  0.1950 -0.0301  0.0023
16488W        W59479  25.725  29.499   0.329 -0.1178 -0.0052  0.1907
16489W        W59480  20.786   2.202  28.273  0.1388 -0.5046 -0.0765
16490W        W59481  25.181  22.607  24.379 -0.0586  0.0745 -0.0383
16491W        W59482  28.475  27.753   7.399 -0.1960  0.0104  0.1494
16492W        W59483  33.292  21.928  24.376  0.0977  0.3563  0.0021
16493W        W59484  18.019  31.359  24.411 -0.2127  0.1804 -0.2427
16494W        W59485  21.051  19.297   7.543  0.0464 -0.2394  0.0658
16495W        W59486  32.696  29.074   4.717 -0.2529 -0.1494  0.4049
16496W        W59487  32.802  24.417   7.934 -0.3133 -0.1374  0.1424
16497W        W59488  28.073   4.419   9.592  0.0798  0.2532  0.0860
16498W        W59489  22.042  28.956   9.038  0.1644  0.0118  0.2111
16499W        W59490  28.642  22.709   5.041 -0.2351 -0.2137 -0.0401
16500W        W59491  12.593  13.007  24.153  0.0834 -0.2175  0.0869
16501W        W59492  25.960  30.341   6.356  0.1375  0.0951  0.0475
16502W        W59493  27.125  28.927  27.574 -0.0314  0.2001  0.3904
16503W        W59494  24.506   6.322   1.272  0.0573 -0.2785 -0.0106
16504W        W59495  23.585  32.143  22.664 -0.0610 -0.0262  0.1020
16505W        W59496   5.276   2.855   2.215 -0.0757  0.2725  0.1141
16506W        W59497  19.673  30.008   0.172  0.1899  0.1721 -0.1933
16507W        W59498  33.136  18.464   6.603  0.0143 -0.0668 -0.1332
16508W        W59499  32.916  33.892   6.157  0.1432 -0.1715 -0.1892
16509W        W59500  30.441  32.999   7.958 -0.2608  0.1810  0.4802
16510W        W59501  18.720   5.256   0.561 -0.0312  0.0508  0.2970
16511W        W59502  13.495   5.021  24.433  0.0292  0.0247 -0.0395
16512W        W59503  22.577  19.725  27.048 -0.1100  0.0589  0.0818
16513W        W59504  22.639  14.103   8.289  0.2653  0.0117 -0.3905
16514W        W59505  16.964  15.157  15.020 -0.0978 -0.1451 -0.2733
16515W        W59506   2.926   6.008  18.541 -0.2072  0.1362  0.1043
16516W        W59507  16.758  17.210  27.659 -0.0960  0.0389 -0.1625
16517W        W59508  11.378   7.916  26.417 -0.0582  0.3535  0.2349
16518W        W59509  17.837  13.088  15.008 -0.4858 -0.0090  0.1237
16519W        W59510  29.580  17.503  26.860 -0.1507 -0.0526 -0.1543
16520W        W59511  11.012  20.184   1.227  0.1348  0.0392  0.3235
16521W        W59512  18.231  28.165  26.218 -0.0319  0.5013  0.0820
16522W        W59513   3.176  15.548  10.723 -0.0368  0.0409  0.0897
16523W        W59514  15.015  19.452  25.555  0.0431  0.1565 -0.0384
16524W        W59515   7.867  20.301   0.926  0.3270 -0.0522  0.3361
16525W        W59516  20.789  21.902  14.280 -0.1803  0.1704  0.1713
16526W        W59517  33.724  25.963  22.760 -0.0152  0.2596 -0.0559
16527W        W59518  28.053  27.934   3.710 -0.0066  0.1336 -0.2157
16528W        W59519  23.536   9.836   3.974 -0.2111 -0.3607 -0.0018
16529W        W59520  15.930  33.309   2.801 -0.0900 -0.0825  0.0360
16530W        W59521   2.793  23.735   1.597 -0.2150 -0.0614 -0.1980
16531W        W59522   5.836   1.851   5.164  0.3344  0.0858 -0.1905
16532W        W59523  23.840  31.349  27.890 -0.1802 -0.1851 -0.3278
16533W        W59524  28.056  23.014  16.939 -0.0669  0.2082 -0.1244
16534W        W59525  22.846  18.918   3.542  0.2753 -0.4455 -0.1669
16535W        W59526  21.963  20.674   7.003  0.0815  0.1363 -0.0947
16536W        W59527  20.584  22.964  25.626 -0.0846 -0.2924 -0.0172
16537W        W59528  30.765  15.240   1.787  0.0144  0.0102  0.1035
16538W        W59529  12.103  24.957  27.718  0.2283  0.1860 -0.2550
16539W        W59530  27.739  14.909   4.181 -0.0342  0.0036 -0.1013
16540W        W59531   3.813   3.762  25.610 -0.2835  0.3753  0.2057
16541W        W59532  27.642  30.631   2.995 -0.0269 -0.2761 -0.0670
16542W        W59533  19.468  24.154   9.082  0.1342 -0.2174  0.0089
16543W        W59534  24.046   1.667   3.649  0.0558  0.1154 -0.0939
16544W        W59535  24.198  20.144   9.142  0.1930 -0.0303  0.0861
16545W        W59536  29.471   3.460   1.375  0.1322 -0.4190  0.1523
16546W        W59537  26.198  25.546  20.075  0.0149 -0.1402 -0.0448
16547W        W59538  11.149   1.795  24.553  0.0596 -0.1850  0.0043
16548W        W59539  21.009  17.989  13.335 -0.3709 -0.1501  0.0810
16549W        W59540  29.834  24.241   0.252  0.0658 -0.0647  0.0518
16550W        W59541  23.828   7.973  26.868 -0.1945 -0.0015 -0.0569
16551W        W59542   8.557  27.586  23.163 -0.4284 -0.1616 -0.1983
16552W        W59543  29.200  17.672   3.544 -0.2593  0.1915  0.1172
16553W        W59544  14.806  28.081   7.467 -0.2343  0.1789 -0.0632
16554W        W59545  22.050   3.787   9.620 -0.3774  0.0595  0.1621
16555W        W59546  25.845  15.876   2.067  0.0123 -0.0179  0.0561
16556W        W59547  24.459  29.801  21.962  0.0823 -0.1297 -0.0546
16557W        W59548  24.646  32.022  24.223  0.0288 -0.3814 -0.0188
16558W        W59549  18.377   3.365   8.410 -0.0635  0.0553  0.1472
16559W        W59550  20.591  24.232  18.796  0.3467  0.2258 -0.4253
16560W        W59551  15.749  20.201  19.399 -0.1516  0.0597 -0.1549
16561W        W59552  14.884  32.289   9.616 -0.0501  0.1449 -0.0649
16562W        W59553  33.919  18.409   3.335  0.0236 -0.2083  0.3045
16563W        W59554  28.429  24.864  21.327  0.3158  0.1553 -0.1016
16564W        W59555  21.760  14.755  20.918 -0.1812  0.1722 -0.2260
16565W        W59556  22.009  25.444  15.147  0.1162  0.2699  0.2127
16566W        W59557  15.183  21.682  21.391 -0.0795 -0.0783  0.0895
16567W        W59558   2.198   1.017  20.983 -0.3661 -0.0741 -0.0615
16568W        W59559  15.923  19.222  23.382  0.1213  0.1416 -0.3761
16569W        W59560  19.009   7.902   1.930  0.0521 -0.0913 -0.0783
16570W        W59561  20.553  32.706  23.320 -0.1216  0.0994 -0.2077
16571W        W59562  34.727  21.222   0.191 -0.0683  0.1195 -0.0416
16572W        W59563   0.069  22.565  29.180  0.4834  0.1190 -0.0302
16573W        W59564  28.362  28.053  24.993 -0.0126  0.1504  0.1909
16574W        W59565  17.108  25.114  28.772 -0.0708 -0.0656 -0.1026
16575W        W59566  19.457  11.384  28.894  0.0136 -0.0814 -0.1327
16576W        W59567  10.626  20.046   5.537 -0.1202 -0.2644 -0.0329
16577W        W59568  24.367   0.248   5.951  0.2872 -0.2261 -0.1329
16578W        W59569  21.280   5.923  13.598  0.1344  0.0014 -0.4955
16579W        W59570  18.831  19.417   0.320 -0.1364 -0.1365 -0.2570
16580W        W59571  17.969  28.418   2.555 -0.0650 -0.2585 -0.1718
16581W        W59572  31.805  31.042   0.010 -0.0327 -0.0649 -0.2456
16582W        W59573   9.009  25.923  26.447 -0.0448  0.2361 -0.2770
16583W        W59574   8.637  13.856  19.336 -0.0048 -0.1083 -0.1606
16584W        W59575  31.088  32.570  20.615  0.1144 -0.0396  0.0407
16585W        W59576  15.086  25.929  27.133  0.0931 -0.0211  0.0801
16586W        W59577   7.983  19.074  23.477 -0.2864 -0.0843 -0.1025
16587W        W59578  10.372  30.652   2.116 -0.0339  0.0431  0.0990
16588W        W59579  17.084  18.456  19.451  0.3036  0.1675  0.0400
16589W        W59580  24.425  19.750   5.477 -0.0588  0.2921  0.3436
16590W        W59581  13.400  23.229   5.988 -0.2439  0.1860 -0.0027
16591W        W59582  34.620  31.173  21.224  0.2545 -0.3555 -0.1471
16592W        W59583  18.723  30.502   4.902 -0.3470  0.1905 -0.0242
16593W        W59584   3.572  30.122   5.737 -0.0257  0.1364 -0.3698
16594W        W59585   8.518  26.931   5.427  0.2674  0.0054  0.1676
16595W        W59586  31.857  13.851  20.292 -0.1520  0.2925 -0.0288
16596W        W59587  24.468  29.716  18.347  0.0739 -0.3433 -0.1078
16597W        W59588  26.511   9.643  17.931 -0.3133  0.0197 -0.0441
16598W        W59589  22.597  34.719   2.094 -0.0308 -0.2635  0.0477
16599W        W59590   3.277  31.832  23.979  0.1127 -0.2450  0.2894
16600W        W59591  12.505  19.597   4.986 -0.1536 -0.0297 -0.1489
16601W        W59592  19.592   8.961   0.818  0.0606 -0.0328  0.0987
16602W        W59593  24.753  18.835  18.908  0.0459  0.2160  0.0665
16603W        W59594  12.881   3.431  20.027  0.0641  0.3464 -0.0991
16604W        W59595  16.961  23.524   2.305  0.3123  0.0726 -0.0168
16605W        W59596  30.810   1.159  19.349  0.0731 -0.2901 -0.3050
16606W        W59597  24.469   2.326  25.623 -0.2739  0.0675 -0.0066
16607W        W59598  27.053  26.885  23.534  0.4983 -0.1948 -0.1085
16608W        W59599  23.668  13.804  17.865  0.2339  0.1390  0.2803
16609W        W59600  13.132  33.521  25.227  0.0303 -0.1027 -0.3564
16610W        W59601   1.131  20.741  27.074  0.1078  0.0309  0.3877
16611W        W59602  20.805   1.995   1.652 -0.0966  0.1211  0.0938
16612W        W59603  33.517  11.286   1.598  0.2920 -0.1441 -0.0797
16613W        W59604  21.269  25.442   9.833  0.1045  0.0574 -0.0648
16614W        W59605  26.514  23.977  22.294 -0.3607  0.0774  0.0441
16615W        W59606  20.488   0.264   3.738  0.0922 -0.3219  0.1088
16616W        W59607  20.007  27.935   3.456 -0.1041  0.0154 -0.3106
16617W        W59608  11.270  13.562  26.585 -0.1256 -0.1826  0.1664
16618W        W59609   8.935  17.455   5.940  0.2306  0.0162  0.1628
16619W        W59610  26.925  25.748   4.178  0.0421  0.0146  0.1333
16620W        W59611  13.335  31.597  27.921 -0.1094  0.0775 -0.0638
16621W        W59612  15.865  15.378  27.379 -0.2589 -0.2325  0.1181
16622W        W59613  20.790  24.998  22.836 -0.0821  0.1802 -0.2045
16623W        W59614  23.075  27.407  24.894 -0.4418  0.0912  0.0812
16624W        W59615  16.816  23.711   0.453  0.0596 -0.0210 -0.4109
16625W        W59616  16.820  14.850  27.095  0.1067  0.0184  0.0270
16626W        W59617  21.259  20.111  27.654  0.1016 -0.1346  0.3438
16627W        W59618  27.189  13.716  21.061 -0.2499  0.2817  0.2235
16628W        W59619  18.379  33.033  24.182  0.0678 -0.2041 -0.1949
16629W        W59620  32.188   0.959  28.879 -0.3123 -0.2670  0.0977
16630W        W59621   6.662  19.672  17.133  0.1429 -0.2121  0.0668
16631W        W59622  18.834   1.389   7.617  0.1283 -0.2660 -0.4082
16632W        W59623  13.156  34.494  25.043 -0.0779  0.0026  0.1307
16633W        W59624  29.035  28.557   0.088 -0.1469 -0.0687  0.0659
16634W        W59625  18.469   3.139  14.603  0.1328  0.0303  0.0903
16635W        W59626  24.452  29.355   5.874  0.2047 -0.2676  0.0355
16636W        W59627  10.102  24.348  17.555 -0.1916 -0.3512 -0.1822
16637W        W59628  15.091  33.182   1.328  0.2362  0.0986  0.0458
16638W        W59629  24.210  27.854  26.903  0.4945 -0.1865  0.0893
16639W        W59630   0.026  13.721   5.832  0.1283  0.1404  0.0064
16640W        W59631  19.538  23.916   6.259  0.2729  0.2482 -0.0156
16641W        W59632  12.130  25.516  21.014  0.1194  0.1584  0.0240
16642W        W59633  23.329  34.006  23.571 -0.1031  0.0212  0.0848
16643W        W59634  13.301  24.003   7.588 -0.1992 -0.3466 -0.1366
16644W        W59635  31.608  33.105   8.600 -0.2891 -0.1662  0.1390
16645W        W59636  23.396  32.174   0.579 -0.1388  0.0239 -0.0295
16646W        W59637  13.250   4.958  18.443 -0.1239 -0.2581  0.0346
16647W        W59638  30.810  25.733   7.274 -0.0395 -0.1356  0.1028
16648W        W59639  18.893  25.734  22.783 -0.3125 -0.2516  0.2087
16649W        W59640  26.189  16.026   9.378  0.2607  0.2628 -0.1564
16650W        W59641  18.582  23.191  28.283 -0.5361  0.2109  0.3666
16651W        W59642  25.293   4.876   3.808  0.0599  0.2157  0.0253
16652W        W59643   4.515   3.828  26.775  0.0158 -0.2079 -0.3858
16653W        W59644  19.585   1.878   6.433  0.3678  0.4278  0.2602
16654W        W59645  25.396  24.126   7.696 -0.0738  0.1350  0.0187
16655W        W59646   4.716  30.087  28.093  0.1175  0.4166 -0.2263
16656W        W59647  25.145  22.876   5.090  0.0130 -0.0978 -0.1433
16657W        W59648  23.107  24.046  20.613 -0.0607  0.1422  0.1741
16658W        W59649  32.449  28.066   0.463  0.1675 -0.1540  0.0680
16659W        W59650  27.010   5.231   5.916 -0.0292  0.0001  0.1547
16660W        W59651   4.041  18.845  21.932  0.0416  0.1586  0.0809
16661W        W59652  18.950  25.913  27.133 -0.0843 -0.1399  0.2195
16662W        W59653   6.937  20.578  10.226  0.0029 -0.0227 -0.2905
16663W        W59654   8.265  20.811   4.741  0.0818 -0.0010 -0.0427
16664W        W59655  20.351  34.494   0.195 -0.0130  0.0107  0.1417
16665W        W59656  24.607   1.104  17.317 -0.3758 -0.0875 -0.0472
16666W        W59657  27.273  21.050   4.537 -0.0502 -0.1371 -0.1208
16667W        W59658  25.211  18.932  25.342 -0.3033 -0.1676  0.1688
16668W        W59659   2.604  22.474   8.429 -0.0960 -0.4882  0.1638
16669W        W59660  18.802  26.305   6.775  0.1794 -0.0418  0.0812
16670W        W59661   7.736  15.321  25.521 -0.3983  0.0659  0.1172
16671W        W59662  25.844  10.222   1.695 -0.0138  0.0412  0.0354
16672W        W59663  14.895   4.374   9.277 -0.1287 -0.0721 -0.0039
16673W        W59664  23.585   3.013   8.717 -0.0633  0.1361 -0.0820
16674W        W59665  21.118   0.486  16.820 -0.1006  0.2992  0.0253
16675W        W59666  29.086  22.732   7.824  0.1016 -0.0104 -0.3147
16676W        W59667   7.679  28.790  28.887  0.0540  0.2094 -0.3756
16677W        W59668  27.202  21.186   3.359  0.1403  0.0609  0.1605
16678W        W59669  27.295  21.895   7.244  0.0969  0.1550 -0.0567
16679W        W59670  15.205  16.905  24.303  0.0880  0.0503 -0.2321
16680W        W59671  21.067  18.312   8.420  0.2231 -0.2953  0.0298
16681W        W59672   3.606   1.484   5.631 -0.2797 -0.1744 -0.3888
16682W        W59673   7.571  14.582   7.673  0.1488  0.0546  0.0389
16683W        W59674  23.736  22.228   6.802 -0.1754 -0.1824 -0.0278
16684W        W59675  17.541  31.096  28.373  0.3664 -0.1696  0.2694
16685W        W59676  15.406  23.568   9.029 -0.2350  0.2129 -0.1912
16686W        W59677  33.662  10.254  25.581  0.0193  0.4447  0.0632
16687W        W59678  18.806  32.692  24.159 -0.1809  0.1432  0.2240
16688W        W59679  24.050  17.703  18.649 -0.0651  0.1223 -0.0607
16689W        W59680  16.431  19.515   1.720 -0.3130 -0.1866  0.1745
16690W        W59681  21.299  17.238   3.821  0.0443  0.0376 -0.0905
16691W        W59682  27.103  11.770  16.560  0.0187 -0.1347 -0.0747
16692W        W59683   4.032  33.650  17.206  0.2732  0.0151 -0.0407
16693W        W59684  12.099  28.340  27.508 -0.0379  0.1027 -0.3246
16694W        W59685  32.056  24.517  26.547  0.1838 -0.1932  0.2340
16695W        W59686  22.671  24.435   6.090 -0.2500 -0.0580 -0.4911
16696W        W59687  27.392  17.232   2.840  0.0767 -0.1658 -0.2420
16697W        W59688  24.238  15.639  21.870 -0.4235 -0.1826 -0.0776
16698W        W59689  20.720  12.681  29.089  0.0045 -0.1305  0.0595
16699W        W59690   8.567  26.543  28.636  0.0923  0.1414 -0.0611
16700W        W59691  31.222  18.123   3.556 -0.1296 -0.0157 -0.3034
16701W        W59692  10.897  19.280   4.430 -0.2341  0.1186  0.0331
16702W        W59693  11.578  21.727   1.054  0.2435 -0.0585 -0.0036
16703W        W59694  27.978  25.726  19.656  0.2782 -0.0888  0.2718
16704W        W59695  14.039  33.315  16.257 -0.1867  0.2063  0.1429
16705W        W59696   9.893   3.534  26.057  0.3929  0.0925  0.4297
16706W        W59697  25.635  33.773  22.686  0.3192  0.0912 -0.2336
16707W        W59698  34.584  10.129  17.877 -0.0573  0.2605 -0.1166
16708W        W59699  17.733  26.957   8.748  0.0061 -0.1556 -0.2006
16709W        W59700  25.187  18.188   7.461  0.3867  0.2106  0.0968
16710W        W59701  15.635  26.204   8.293 -0.0970 -0.2354 -0.0130
16711W        W59702  12.120  32.797   0.987  0.0749  0.1100 -0.0176
16712W        W59703  15.782   6.139   6.268  0.1746  0.1869 -0.1740
16713W        W59704  32.855  17.725  28.113 -0.0825  0.2073 -0.1765
16714W        W59705  27.857  27.491  28.375 -0.0574 -0.1856  0.0902
16715W        W59706  32.175  26.324   2.358  0.1655  0.0009 -0.6153
16716W        W59707  16.752  17.772  27.810  0.1103 -0.1994 -0.0301
16717W        W59708   5.171  16.100  10.317  0.1747 -0.0311 -0.2368
16718W        W59709  15.896  15.724   8.272 -0.1541  0.0069 -0.1108
16719W        W59710  16.374  27.110   6.365  0.0249 -0.1602 -0.4076
16720W        W59711  26.254  16.654   3.397 -0.0818 -0.1383  0.1087
16721W        W59712  15.576   6.241   1.658 -0.0802  0.0594  0.0587
16722W        W59713  14.559   0.517   0.611 -0.4000 -0.0996 -0.1691
16723W        W59714  30.338  30.159   6.884 -0.0673 -0.1553 -0.0647
16724W        W59715  28.832  19.543  28.277 -0.2188  0.1882 -0.0610
16725W        W59716  24.908  24.492  27.225 -0.1909  0.0266  0.1268
16726W        W59717  23.874   0.120  28.659 -0.0377  0.2385 -0.1075
16727W        W59718  19.625   2.868   6.287 -0.0760  0.3688  0.1338
16728W        W59719  29.407  26.705   4.338  0.1706  0.0783 -0.1499
16729W        W59720  15.773  18.053   2.582 -0.0948 -0.3499  0.0351
16730W        W59721  12.909  20.888  22.905 -0.0193 -0.0687 -0.1987
16731W        W59722  19.360  11.422   5.561 -0.3789 -0.0222  0.2190
16732W        W59723  18.774  20.454  21.860  0.0431  0.0358  0.0793
16733W        W59724  10.863  21.497   8.300  0.1117  0.0334  0.0368
16734W        W59725  33.821   9.249  26.398 -0.1007 -0.3216  0.0835
16735W        W59726  13.521  23.757   4.347 -0.1628  0.2769 -0.1034
16736W        W59727  29.683  22.419   0.101 -0.1484 -0.0832  0.0728
16737W        W59728  31.942  26.857   9.045  0.1491 -0.1717 -0.0023
16738W        W59729  20.312  23.931   6.099  0.3575  0.1907 -0.0216
16739W        W59730  26.823  29.353   3.852  0.2823  0.0044 -0.1388
16740W        W59731  16.450   5.844  25.257 -0.2771 -0.1959 -0.0952
16741W        W59732  13.400  14.115  20.347  0.1111  0.1712 -0.1509
16742W        W59733  21.418  32.878   4.000 -0.0639 -0.4825 -0.4113
16743W        W59734   0.765  14.426   9.240 -0.1293  0.1898  0.0683
16744W        W59735   1.871  21.300   7.531  0.1941 -0.0559 -0.1177
16745W        W59736  22.714  18.538  28.138  0.1320  0.1164 -0.2622
16746W        W59737  30.873   6.548   5.336 -0.0288  0.3206 -0.0903
16747W        W59738  21.225  30.390   9.559  0.0722 -0.2087  0.1359
16748W        W59739  23.243  27.535  26.471 -0.0758  0.0553 -0.0776
16749W        W59740  11.759  14.967   4.980  0.2440  0.1720 -0.0336
16750W        W59741  18.053   2.795   4.724  0.3047 -0.1677 -0.1044
16751W        W59742  18.789  30.269   3.071  0.0292  0.4965 -0.1023
16752W        W59743  26.307  16.810  24.017  0.0205  0.2299  0.0170
16753W        W59744  13.245  32.626  16.596  0.2082 -0.0457 -0.1593
16754W        W59745   0.664  26.567  20.089 -0.1594  0.1756  0.3160
16755W        W59746  20.435  25.894  28.135  0.0403  0.4295  0.1565
16756W        W59747  29.973  16.191  15.831 -0.2616 -0.0200 -0.1895
16757W        W59748  29.347  14.428   4.434 -0.1080  0.0238 -0.1004
16758W        W59749  17.494  26.883   9.197 -0.0299 -0.0816 -0.0884
16759W        W59750   7.679  24.762   4.183 -0.1908  0.2048 -0.4050
16760W        W59751  28.638  34.619  23.493 -0.0168 -0.3370 -0.0194
16761W        W59752  19.946  13.840   2.498  0.1822  0.1745 -0.0143
16762W        W59753  30.779  14.989   3.290  0.2252  0.0863  0.0584
16763W        W59754  21.227  14.544  20.108  0.1528  0.1010  0.0571
16764W        W59755  13.690  25.902   8.330 -0.2696  0.2916  0.2139
16765W        W59756  19.911  32.140  14.810  0.3274  0.2123 -0.0082
16766W        W59757   1.887  27.758  24.763 -0.1049 -0.0516 -0.0597
16767W        W59758  26.170  24.673  26.755 -0.0491  0.1888  0.1992
16768W        W59759  16.339  30.989   5.126 -0.1710  0.1952 -0.2064
16769W        W59760   9.366  31.916  25.861  0.0141 -0.3654  0.0239
16770W        W59761  28.271  22.450   7.923 -0.1118  0.1130  0.4457
16771W        W59762  26.840   8.057   1.112  0.1267  0.0591 -0.2355
16772W        W59763  27.664  34.161   4.720  0.0160  0.0555 -0.1958
16773W        W59764  24.330  20.621  23.807 -0.0603 -0.2004 -0.1132
16774W        W59765  18.941  34.120   7.388  0.2373  0.1856  0.0492
16775W        W59766   7.651  32.510  26.395 -0.0314 -0.1495  0.0698
16776W        W59767  29.761   0.357   5.595 -0.1668  0.0410 -0.2682
16777W        W59768  26.789  14.471   1.618  0.0218 -0.5120  0.1498
16778W        W59769  20.588  21.883  24.475  0.2600 -0.5710  0.1386
16779W        W59770   4.527  28.036   3.043 -0.0855 -0.0439  0.2313
16780W        W59771  10.241  22.404  16.925 -0.1363 -0.0910  0.1142
16781W        W59772  29.242  19.005   3.371  0.0938  0.1172  0.0611
16782W        W59773   3.840  17.201   6.687 -0.1320  0.1864 -0.1187
16783W        W59774  13.536  33.449   1.729  0.2353  0.3962 -0.0830
16784W        W59775  22.754   3.716  28.670  0.2138 -0.0130  0.1421
16785W        W59776  25.214  31.739  22.982 -0.1549  0.2689  0.2573
16786W        W59777  25.307  26.566   7.065 -0.0343  0.1029 -0.0893
16787W        W59778  14.159  24.866   5.627  0.5139  0.0382  0.0783
16788W        W59779  23.294  29.701   5.712  0.2642 -0.0187  0.0114
16789W        W59780  23.623   3.754   0.616 -0.0573  0.3831  0.2708
16790W        W59781  23.486  32.506  26.160 -0.1837  0.0727 -0.0801
16791W        W59782  16.045  30.344   1.980 -0.2306  0.1622 -0.0354
16792W        W59783  14.099  25.630   8.048  0.2234  0.0161 -0.1566
16793W        W59784  18.175   2.469  16.017 -0.0276 -0.1318  0.3373
16794W        W59785  25.127   5.399   0.661 -0.2783 -0.1429 -0.0884
16795W        W59786  31.369  19.744   3.606 -0.2174  0.2103  0.0070
16796W        W59787  15.042  31.870   4.543  0.1397 -0.2047 -0.0159
16797W        W59788  21.965   1.609   1.586 -0.0366 -0.0187  0.2095
16798W        W59789   4.680  20.858  20.575 -0.2140  0.1568 -0.0820
16799W        W59790  11.996  23.893   6.896 -0.2802 -0.3191 -0.3152
16800W        W59791  20.526  23.373   4.060 -0.2733 -0.1417 -0.2878
16801W        W59792  10.313  29.417   3.522  0.1400  0.1647  0.0786
16802W        W59793  31.449   2.640  25.772  0.0796  0.0394  0.2275
16803W        W59794  11.362  30.331   4.166 -0.1433 -0.1129  0.5400
16804W        W59795   9.009  30.143  18.275 -0.1373 -0.1778  0.2779
16805W        W59796  10.859  28.905  23.216 -0.2449  0.2297 -0.1540
16806W        W59797  22.704  33.198   2.295  0.0009 -0.2720  0.0547
16807W        W59798  30.481  18.314   2.275 -0.0696  0.1335 -0.1809
16808W        W59799  20.751  30.071   5.795  0.0109 -0.1735 -0.2654
16809W        W59800  31.183  12.004   8.537 -0.1700  0.2335 -0.1792
16810W        W59801  25.257   0.953  21.134  0.0294 -0.1678 -0.2302
16811W        W59802  23.543  19.046   7.043  0.1190  0.2478  0.0263
16812W        W59803  23.877  31.339   6.577 -0.0507  0.0547  0.0069
16813W        W59804  20.758  32.154  22.177  0.4159  0.2030  0.1737
16814W        W59805  34.267  22.152   9.691 -0.0990  0.0306 -0.3117
16815W        W59806   3.761  16.886  27.281 -0.1197  0.0957 -0.3609
16816W        W59807  22.847   3.930  21.143  0.1099  0.3952 -0.0892
16817W        W59808  24.592  31.964   4.304  0.1042  0.1035  0.1428
16818W        W59809  22.808   5.162   6.811 -0.1386 -0.0464  0.1648
16819W        W59810  23.156  17.810   1.102 -0.1514  0.1977  0.3980
16820W        W59811   3.763  25.505  28.657  0.0755  0.1913 -0.1404
16821W        W59812  32.688  29.010  24.291  0.1521  0.0352 -0.2594
16822W        W59813  17.282   7.919   7.317  0.3142  0.2806 -0.2712
16823W        W59814  19.058  26.538   4.919 -0.0362  0.2711 -0.1419
16824W        W59815  17.928  28.080   4.383  0.1180 -0.3114  0.0034
16825W        W59816  19.067  21.522   5.045  0.1274 -0.0030  0.1019
16826W        W59817  22.738  23.493   6.479  0.0226  0.0490 -0.0834
16827W        W59818  31.910  19.170  23.711  0.1606  0.1460  0.1297
16828W        W59819  17.956  21.860  28.607  0.0475 -0.1172  0.0361
16829W        W59820  16.793  26.384  22.748  0.2922 -0.2813 -0.0912
16830W        W59821  12.475  23.021   3.080  0.0980  0.4085 -0.0642
16831W        W59822  14.431  27.356  17.345  0.0711 -0.2037 -0.0661
16832W        W59823  33.470  24.241   4.768  0.3275  0.0426 -0.0828
16833W        W59824  26.542   1.494  27.395 -0.0557 -0.1412  0.0274
16834W        W59825  19.402  18.815  27.396 -0.1459 -0.0973  0.0212
16835W        W59826  12.084  24.979   0.357 -0.0265  0.1568 -0.2438
16836W        W59827  28.100  14.096  20.747  0.0519  0.1525  0.1256
16837W        W59828  19.957  28.010   1.978 -0.3357 -0.0856  0.0368
16838W        W59829  22.156  16.452   5.297  0.2391 -0.0228 -0.1127
16839W        W59830  27.280   7.734   4.756  0.1922 -0.1276 -0.0769
16840W        W59831  25.506  26.053  29.120  0.0597  0.2157 -0.0876
16841W        W59832  19.784  22.842   7.679 -0.2948 -0.2282 -0.1256
16842W        W59833   4.965  12.635   7.876  0.0295 -0.0991 -0.0828
16843W        W59834  30.104  13.038  18.775 -0.0691  0.2658  0.0363
16844W        W59835   5.973  31.522   1.637 -0.1736 -0.1794  0.0905
16845W        W59836  25.783  18.804  23.091  0.1192 -0.1102 -0.1888
16846W        W59837  20.123  19.249   6.655  0.1994 -0.2155 -0.0101
16847W        W59838  18.558  33.375  27.480 -0.1619  0.2009 -0.0979
16848W        W59839  30.676  19.851   4.227 -0.0935  0.3129  0.2869
16849W        W59840  19.967  15.951   8.491  0.4292  0.0676 -0.1746
16850W        W59841  28.124  16.664  21.992 -0.0948  0.0363  0.0629
16851W        W59842  25.807  32.101  24.285 -0.1550  0.0601  0.3007
16852W        W59843  11.106  28.646  25.773  0.1879  0.2422  0.0789
16853W        W59844  30.844  33.927  23.209  0.1463  0.0988  0.0143
16854W        W59845  21.153  18.528  25.259  0.3965  0.1016  0.0198
16855W        W59846   0.028   2.246  10.875 -0.0035  0.0323 -0.0471
16856W        W59847  26.259   4.563   1.126  0.2454  0.1106  0.0003
16857W        W59848  21.183  24.334  28.905  0.2879  0.2596 -0.0946
16858W        W59849  25.943  21.904   7.452  0.2861  0.1022  0.0285
16859W        W59850  30.500   0.577   4.807 -0.0847  0.0915  0.2225
16860W        W59851  21.261  29.291  19.616  0.0874  0.1019  0.1568
16861W        W59852  12.915  31.969  25.389  0.0481 -0.0944  0.0904
16862W        W59853  24.116  21.825   5.312  0.1543  0.2266  0.2338
16863W        W59854  32.850   1.566   9.023 -0.0484 -0.0892 -0.2485
16864W        W59855  13.348  29.886   3.231  0.1954 -0.0996 -0.1120
16865W        W59856  19.002  20.923   6.858 -0.1260 -0.0927  0.0327
16866W        W59857  24.618  28.519  13.804 -0.0010  0.2046  0.0304
16867W        W59858  12.788  23.579  21.250  0.3122  0.2218 -0.1206
16868W        W59859  30.853  28.894  24.870 -0.3523  0.0936  0.4692
16869W        W59860  11.999  26.230   4.525  0.0281  0.1503 -0.1272
16870W        W59861   2.631  27.772   3.623 -0.0970 -0.3235 -0.0517
16871W        W59862  16.729  24.615   2.241 -0.1758  0.0603 -0.0805
16872W        W59863  18.002  20.259  23.351 -0.2763  0.0170 -0.1485
16873W        W59864  10.303  19.140   7.200  0.0878  0.2352  0.1934
16874W        W59865  32.085  12.404  27.177  0.0892  0.0345  0.1637
16875W        W59866  20.987  24.374  22.621  0.1260  0.5009  0.0744
16876W        W59867  16.158  27.132  28.086 -0.1608  0.1118 -0.1348
16877W        W59868  21.651  12.676  24.377  0.3001  0.1748 -0.2206
16878W        W59869  23.992  10.096   5.247 -0.3312  0.0550  0.1573
16879W        W59870  29.811  24.086   7.120 -0.0533 -0.2192  0.2635
16880W        W59871   5.595  16.816  10.913  0.1456 -0.0029 -0.2345
16881W        W59872   9.553  11.145  11.099 -0.0424 -0.1715  0.0612
16882W        W59873  20.904  24.533   2.124 -0.0301  0.1265  0.3122
16883W        W59874  11.772  11.504  20.676  0.1212 -0.0532 -0.3887
16884W        W59875  16.184  18.051   7.238  0.1386 -0.0502  0.0969
16885W        W59876  33.050  16.234   2.411 -0.0167  0.0957 -0.0382
16886W        W59877  20.593  22.107  20.196  0.0186 -0.0472  0.2238
16887W        W59878  24.543  29.471   4.657 -0.1312  0.0118 -0.0262
16888W        W59879  30.374  21.688   8.598  0.2520  0.4562  0.1544
16889W        W59880  28.053  15.200   5.893 -0.2118  0.0289 -0.0778
16890W        W59881  14.371   0.320   9.119 -0.0733 -0.3335 -0.0127
16891W        W59882  14.063   0.906  27.489 -0.0531  0.0692  0.4027
16892W        W59883  20.224  25.699  28.963 -0.0805  0.0949  0.0211
16893W        W59884  20.105  19.080   6.080  0.0777 -0.0558 -0.0120
16894W        W59885   5.659  17.644   5.761  0.2787  0.3784  0.0873
16895W        W59886  31.826  19.715  27.153  0.1518  0.1917  0.0220
16896W        W59887   8.225  34.749  25.226  0.0324  0.0204 -0.1959
16897W        W59888  10.286   5.093   5.243  0.0616 -0.1304 -0.0129
16898W        W59889  23.811  26.228  28.292 -0.3990 -0.1394  0.0900
16899W        W59890  24.658  16.806  29.231 -0.0404  0.2926 -0.1567
16900W        W59891   7.263  20.975  18.783  0.0560 -0.1342 -0.0090
16901W        W59892  24.523  12.528  25.123  0.1710  0.1686  0.0288
16902W        W59893  25.122  25.844   9.666  0.1258  0.1090  0.2947
16903W        W59894   5.854  27.712  10.129  0.3967  0.0877  0.1283
16904W        W59895  15.262  24.041   1.094 -0.0781  0.2463  0.2713
16905W        W59896  18.373  19.014  13.053  0.1817  0.1331 -0.0358
16906W        W59897  33.528  34.411   9.365  0.1998 -0.0568  0.0005
16907W        W59898  28.138  14.481   3.317 -0.0252 -0.1873 -0.0101
16908W        W59899  14.090  22.970   4.532  0.0199  0.0729 -0.1570
16909W        W59900  12.808  14.286  15.353 -0.2880  0.2670 -0.1733
16910W        W59901  27.927   0.188  14.547 -0.0545  0.0372 -0.0889
16911W        W59902  16.453  27.761  18.617  0.3060  0.0560 -0.0150
16912W        W59903  32.857  28.619  22.580  0.1658  0.0876 -0.0492
16913W        W59904  14.422  21.305  27.762  0.0722  0.1966  0.2783
16914W        W59905  19.890  20.177   5.288 -0.0465 -0.1989  0.0767
16915W        W59906  23.256  12.693  13.722 -0.2927 -0.1495  0.0178
16916W        W59907  10.353  19.151   2.024 -0.1530  0.4000 -0.0892
16917W        W59908  20.385  31.090   6.922 -0.1379  0.1813  0.0828
16918W        W59909  33.499  21.827   4.460  0.2721 -0.0864  0.2903
16919W        W59910  25.260  29.292   2.318  0.0019 -0.0814  0.1626
16920W        W59911  24.030  21.957  28.390 -0.0667  0.2682 -0.3501
16921W        W59912  17.736  22.766  28.456  0.0790 -0.0519  0.0420
16922W        W59913  34.580  33.031   1.154 -0.0710  0.0280  0.1091
16923W        W59914  11.316   9.118   5.344 -0.1925  0.1124 -0.1955
16924W        W59915  23.549  24.548  19.218  0.0326 -0.0951 -0.2664
16925W        W59916   0.030  21.028  17.808 -0.4240 -0.0893 -0.1770
16926W        W59917  26.737   0.898   3.394 -0.0054  0.1294 -0.1795
16927W        W59918  26.297  24.777   2.027  0.3155  0.0597  0.0403
16928W        W59919  10.843  29.311   1.566 -0.0025 -0.0083  0.0508
16929W        W59920  10.226  26.076   0.666 -0.1149  0.1502 -0.3105
16930W        W59921  29.781  23.660  25.995  0.1500 -0.0244  0.0398
16931W        W59922   8.487  22.608   5.000 -0.2823 -0.2465  0.0404
16932W        W59923  12.976  16.345   1.287 -0.3949 -0.1694  0.1007
16933W        W59924  34.203   8.336  23.054 -0.0787 -0.2722 -0.0013
16934W        W59925  16.209  24.295   4.338  0.1844  0.0661  0.1391
16935W        W59926  28.528   3.055   9.405  0.3712  0.1122 -0.0704
16936W        W59927   5.604  10.310   5.517 -0.4577  0.2431  0.0091
16937W        W59928  26.445  33.375   4.713 -0.2177  0.0447  0.1102
16938W        W59929  10.182   2.795   1.590 -0.0211  0.0450 -0.2995
16939W        W59930  16.726  20.611  27.553  0.0168 -0.2114 -0.1528
16940W        W59931  15.681  23.076   1.350 -0.0542  0.3549  0.0697
16941W        W59932  11.463   4.575   9.786 -0.1670  0.0878 -0.2392
16942W        W59933  16.115  19.820   5.677  0.1219  0.2775  0.2337
16943W        W59934   5.681  31.895   9.796  0.0687  0.0155 -0.0622
16944W        W59935  11.729   7.837   6.533  0.0164 -0.2692 -0.2623
16945W        W59936  15.920  28.487   8.266  0.0138  0.1652 -0.0730
16946W        W59937  18.016   3.829  26.248 -0.0402  0.0074 -0.3571
16947W        W59938  33.494   6.905   2.591 -0.0446 -0.2759  0.1433
16948W        W59939  12.147  21.733  21.023 -0.0814 -0.0016  0.0415
16949W        W59940  12.099  16.232   7.717 -0.1025  0.0031  0.1610
16950W        W59941   8.415  26.190  24.751 -0.1293 -0.1356  0.1490
16951W        W59942  33.199  25.422   7.715  0.0238 -0.0166 -0.1648
16952W        W59943  16.072  21.267  28.019 -0.1101  0.0007 -0.2397
16953W        W59944  14.350  32.861   9.164  0.1694  0.2049  0.2222
16954W        W59945  15.359  24.435  28.883 -0.1874 -0.1867 -0.1375
16955W        W59946  28.742   2.589  23.979  0.5841 -0.2192 -0.1591
16956W        W59947  18.685  32.955  23.681 -0.0346 -0.1373  0.2786
16957W        W59948  23.271   2.767   9.029 -0.1037 -0.0895  0.0128
16958W        W59949  34.699  16.897  23.923 -0.0495 -0.1802 -0.1847
16959W        W59950  19.910  11.848  23.098  0.1548 -0.0220 -0.1276
16960W        W59951  15.945   7.665  24.569  0.1905 -0.0730  0.2599
16961W        W59952   3.403  28.136   0.732  0.4585  0.5942 -0.0206
16962W        W59953  13.522  20.683   5.868  0.5781  0.0697 -0.0280
16963W        W59954   8.517  15.929  26.519 -0.0734 -0.0460  0.4070
16964W        W59955  17.355  30.338  25.164 -0.0732 -0.0966 -0.4589
16965W        W59956  28.918  30.453   3.634 -0.0358 -0.4908  0.0818
16966W        W59957  14.845  26.394   6.347 -0.1337 -0.0018 -0.0205
16967W        W59958  24.456  25.638   1.515  0.4755  0.1905  0.2824
16968W        W59959  19.030  15.521   6.528  0.0621  0.0818  0.0124
16969W        W59960  15.148  17.835   4.409  0.3443  0.0550 -0.0837
16970W        W59961  20.349  23.978  26.440  0.3152  0.2854  0.0254
16971W        W59962  31.952   1.478   0.294 -0.2186  0.0149 -0.2400
16972W        W59963  27.876  26.679  27.260 -0.2040  0.1855  0.2124
16973W        W59964  28.383  28.464   8.310  0.0997 -0.3120  0.1504
16974W        W59965   2.640  32.329   5.631 -0.0560 -0.1838  0.1201
16975W        W59966  17.809  34.796   6.303 -0.0087  0.0740  0.0588
16976W        W59967  17.114   7.995   5.043 -0.0856 -0.2152  0.3114
16977W        W59968  23.285  28.438   6.735  0.0844  0.0099 -0.0743
16978W        W59969  14.203  24.874   2.580  0.1974  0.1307 -0.0619
16979W        W59970  31.630  17.980  27.271 -0.0522  0.0462 -0.1179
16980W        W59971  19.662   1.219  22.509  0.0701 -0.2722  0.1910
16981W        W59972   0.269  11.544  22.410 -0.0295  0.0443 -0.4112
16982W        W59973  15.415  13.468   5.169 -0.2642  0.3167  0.2769
16983W        W59974  24.448   1.607   8.359  0.2835  0.0887  0.0603
16984W        W59975   4.700  29.771   2.213  0.0318 -0.0553  0.0384
16985W        W59976  18.693  32.284   6.368 -0.2557 -0.3251  0.2454
16986W        W59977  22.850   6.279  28.909 -0.1089  0.1720  0.1188
16987W        W59978   5.606  27.462   0.329  0.2499  0.2897 -0.0765
16988W        W59979   8.323  27.032   4.892 -0.1494 -0.0243 -0.0127
16989W        W59980  14.594  28.358   8.920  0.0254  0.2932  0.0176
16990W        W59981  10.926  23.095  28.350 -0.0692  0.6532 -0.2247
16991W        W59982  20.329   4.918   1.756  0.0634 -0.0503  0.0338
16992W        W59983   7.680   2.612   1.061 -0.0360  0.1289  0.1651
16993W        W59984  27.893  11.136   4.686  0.1045 -0.3249 -0.1567
16994W        W59985   5.042  28.706  23.491  0.0222 -0.0091  0.0869
16995W        W59986  31.954  21.879  10.493  0.0916 -0.1578 -0.2162
16996W        W59987  10.915  28.832  25.253 -0.0453  0.1001  0.1584
16997W        W59988  14.112  24.542  24.288 -0.3239  0.0970 -0.3568
16998W        W59989   2.728  18.067   1.009 -0.1026 -0.2002 -0.1137
16999W        W59990  14.446  18.854  23.099  0.1569 -0.0096 -0.1356
17000W        W59991   6.416  21.021   5.033 -0.1438  0.2014 -0.3408
17001W        W59992  18.058  32.776   4.808 -0.3767  0.1331 -0.0403
17002W        W59993  34.144  22.721   2.909 -0.1130  0.0347 -0.1799
17003W        W59994  26.550   1.432  26.424 -0.3051 -0.1754 -0.2583
17004W        W59995   8.392  14.421   8.519 -0.0184 -0.0770  0.3892
17005W        W59996   4.388  27.236   5.028 -0.2591  0.1875 -0.1999
17006W        W59997  33.785  29.940   5.662  0.1195  0.1264  0.0763
17007W        W59998  18.256  15.406   0.859 -0.1420 -0.4351  0.0598
17008W        W59999  26.831  23.621  17.521  0.2753  0.1927  0.0737
17009W        W60000  16.556  24.938   7.112 -0.1913 -0.0583 -0.2062
17010W        W60001  18.788  30.680  18.587  0.4376  0.1771  0.1770
17011W        W60002   8.342  27.867   8.298 -0.0722  0.2692  0.1326
17012W        W60003  15.071  26.230  28.694  0.0697  0.0009  0.0389
17013W        W60004   8.744  21.177  20.529 -0.2643 -0.1625 -0.2088
17014W        W60005  13.619  11.555  16.816 -0.0953  0.0164 -0.0792
17015W        W60006  20.779  17.074   3.083 -0.2225  0.2269 -0.1797
17016W        W60007  20.943   5.249   2.293  0.0099 -0.0907  0.0360
17017W        W60008  18.894  29.390   4.246  0.1278 -0.2279  0.0882
17018W        W60009  19.709  25.672   2.621  0.1854  0.2599 -0.1352
17019W        W60010  23.915  26.649   2.403 -0.1253  0.0397  0.1610
17020W        W60011  24.723  22.802  25.318  0.2086  0.1169  0.1515
17021W        W60012  28.703  13.618   8.638  0.1395 -0.0009  0.1807
17022W        W60013  28.120   5.152  25.391 -0.2094 -0.0452 -0.0149
17023W        W60014  20.995  25.998   1.190 -0.0804  0.2015 -0.1652
17024W        W60015  28.851  23.249   2.197 -0.2711 -0.0357  0.0451
17025W        W60016   5.030  28.758   9.523 -0.1334 -0.0861 -0.1604
17026W        W60017   0.986  33.267  27.547  0.0214  0.0302  0.1819
17027W        W60018   1.332  30.335  22.642  0.2931  0.1981 -0.0201
17028W        W60019  23.413  20.300  15.087 -0.2550 -0.2136  0.2645
17029W        W60020  17.986  17.671   0.986  0.3097 -0.0583  0.0098
17030W        W60021  33.851  30.745   6.657 -0.1083 -0.0849  0.1214
17031W        W60022  29.852  27.847   8.532  0.0207  0.1023 -0.3451
17032W        W60023  20.728  13.932   5.606 -0.1368 -0.3243  0.0590
17033W        W60024  16.444  11.831   8.312  0.2791  0.3509 -0.2026
17034W        W60025  29.412  18.870  24.845  0.4104 -0.1621  0.1792
17035W        W60026  28.337  30.734  27.401 -0.1951 -0.0496  0.0124
17036W        W60027  19.929  19.797   6.963  0.2847 -0.0825 -0.0848
17037W        W60028  25.621  23.564   4.907  0.2360 -0.0721 -0.2224
17038W        W60029  18.641  28.709   7.042 -0.3549  0.2747 -0.2671
17039W        W60030  29.951  34.542   3.644  0.0243 -0.1357 -0.3884
17040W        W60031  23.688  19.995   7.188 -0.0943 -0.2698 -0.1535
17041W        W60032  17.924  25.775  27.987 -0.1646  0.2150 -0.4086
17042W        W60033  31.610  18.688   1.262  0.1040 -0.4135 -0.0750
17043W        W60034   8.411  16.575  19.853  0.1413  0.2239  0.0502
17044W        W60035  14.041  27.814   4.636  0.0399  0.0956 -0.3052
17045W        W60036  24.080  12.466  19.615 -0.0790 -0.1378  0.2063
17046W        W60037  21.616  20.882   1.049  0.0754 -0.1112 -0.1522
17047W        W60038   3.369  15.357   7.835 -0.1270  0.1439  0.0803
17048W        W60039  17.900  23.334  27.550 -0.0406 -0.4324  0.0221
17049W        W60040  19.125  21.173   2.566  0.2120  0.3434  0.4258
17050W        W60041  18.542  20.885   6.732  0.1600  0.0913  0.1307
17051W        W60042  32.206   8.510   8.698  0.2824 -0.0226  0.1470
17052W        W60043  18.678  26.705  22.168  0.0324  0.0309  0.2243
17053W        W60044  20.412   7.584   3.843  0.0960 -0.1778 -0.0424
17054W        W60045  16.742   1.396   7.064 -0.1513 -0.1642  0.2968
17055W        W60046   9.958  24.312  26.458 -0.0095  0.1392  0.0149
17056W        W60047  23.418  19.177  25.641  0.2006  0.0362  0.0910
17057W        W60048  24.955   2.606   6.595  0.0505  0.0375 -0.0228
17058W        W60049  15.959  26.256   5.921  0.1762 -0.1736  0.2799
17059W        W60050  18.900  30.306  28.885  0.1457 -0.0174  0.2112
17060W        W60051  24.760  23.857   3.643  0.0552 -0.1892  0.4433
17061W        W60052  26.498  22.158  29.075  0.3800  0.0446  0.2442
17062W        W60053  22.029  33.033   6.952 -0.1679 -0.0298 -0.6084
17063W        W60054  28.384  13.428   9.404  0.2953 -0.2058 -0.0125
17064W        W60055   4.791  30.802   3.451 -0.0398 -0.0296 -0.1384
17065W        W60056  13.433  31.939  18.128  0.0530  0.2537  0.3202
17066W        W60057  30.727  24.896   3.913  0.1670  0.5170 -0.0711
17067W        W60058  13.180  21.794   7.602 -0.3206  0.0860 -0.5378
17068W        W60059  34.174  31.997   6.209  0.0552  0.2136  0.2083
17069W        W60060  11.957  32.410  20.993  0.0886 -0.0088 -0.2525
17070W        W60061  18.051  32.834   3.309 -0.1798  0.0876  0.1350
17071W        W60062  18.558  25.827  10.053 -0.1844  0.0570 -0.1810
17072W        W60063  27.382  34.409  28.561  0.1752 -0.2250 -0.0675
17073W        W60064  21.406  11.621  14.301  0.0168  0.3660 -0.2598
17074W        W60065  14.715  29.778   3.376 -0.2627  0.1147 -0.1159
17075W        W60066  18.931  24.635   9.968 -0.4242  0.1951  0.1842
17076W        W60067  23.496  26.758   0.283  0.0251 -0.0646  0.0459
17077W        W60068  22.245  24.307  15.451 -0.1288  0.0985  0.0972
17078W        W60069  17.908  15.520  23.840 -0.3414  0.0502  0.1550
17079W        W60070  25.030  33.885   1.809 -0.1981  0.0108 -0.0598
17080W        W60071   3.014   1.702   4.569 -0.2359 -0.3093  0.1661
17081W        W60072  11.874  10.842   4.675  0.1483  0.0445  0.0606
17082W        W60073  21.249  18.365  16.997  0.1141  0.1691 -0.3681
17083W        W60074  18.331  15.823   4.286  0.0140 -0.0992  0.2570
17084W        W60075  25.398  30.916   0.289 -0.0612  0.0369  0.1186
17085W        W60076  25.105   0.207   6.427  0.2412  0.1911 -0.0555
17086W        W60077  21.075  21.433   2.232 -0.1249 -0.2505 -0.3164
17087W        W60078   4.828  14.767   3.378 -0.0071  0.2624 -0.3324
17088W        W60079  28.798  13.396   1.969  0.1410 -0.1110  0.3000
17089W        W60080  20.438   8.815  26.958 -0.0480 -0.0611  0.0894
17090W        W60081   4.065  27.522  21.675 -0.0733  0.2386 -0.1292
17091W        W60082  23.584  26.449  23.833  0.0117  0.1338  0.0259
17092W        W60083  20.779  24.728  22.412  0.3131 -0.0178  0.2044
17093W        W60084  11.821  18.084   3.369 -0.0095 -0.2321  0.1404
17094W        W60085  14.725  34.442   8.226  0.0521 -0.2398  0.0643
17095W        W60086  21.125   3.666  20.958  0.0501 -0.2017  0.1058
17096W        W60087  21.141  20.836  18.099 -0.1869 -0.0980  0.1464
17097W        W60088  28.254   7.257   7.859 -0.1908 -0.2747 -0.2465
17098W        W60089   5.675  17.140   3.183 -0.1287 -0.2760  0.0565
17099W        W60090   0.983  27.060   2.974 -0.0568  0.0154 -0.0223
17100W        W60091  29.244  26.685  29.060  0.1172 -0.1438 -0.2707
17101W        W60092   3.141  22.204   1.869 -0.0902  0.3948  0.3772
17102W        W60093   7.819  15.872   9.046 -0.2803  0.1988 -0.1060
17103W        W60094  12.005  19.448  19.504 -0.0017 -0.0310  0.0885
17104W        W60095  18.077  12.751   3.897 -0.1577  0.0115  0.0576
17105W        W60096  13.324  29.430  28.135  0.0585  0.0764 -0.2546
17106W        W60097   6.829  27.485   6.235 -0.0517 -0.3953  0.1221
17107W        W60098  27.920  26.209  27.029 -0.3828  0.1977  0.0495
17108W        W60099  23.782  28.605   6.660 -0.3403  0.0454  0.0129
17109W        W60100  11.668  30.692  17.646  0.3779 -0.2102  0.1294
17110W        W60101   2.969  18.512   7.632  0.0891  0.0736  0.1945
17111W        W60102  18.074   7.734   7.122 -0.0472  0.3141  0.0728
17112W        W60103   9.738  25.585   8.549 -0.2341  0.3312  0.1921
17113W        W60104  32.388  25.854   6.692 -0.2099  0.1728  0.5420
17114W        W60105  21.789  11.644  22.704 -0.3790  0.0761 -0.0686
17115W        W60106  25.203   4.274   8.304  0.0046  0.0914  0.1153
17116W        W60107  26.498  27.932   2.395  0.0529 -0.1400  0.1138
17117W        W60108   5.764  33.813   5.109 -0.1592  0.0216  0.0922
17118W        W60109  11.380  15.719  26.696  0.1483  0.1864  0.1694
17119W        W60110  16.332  17.772   1.597 -0.1117 -0.1609 -0.0791
17120W        W60111  32.698  23.512   9.335 -0.2612 -0.0725  0.1010
17121W        W60112  34.117  21.255   3.332 -0.0112 -0.1653 -0.0978
17122W        W60113  16.843  28.577  24.556 -0.1896  0.0388  0.2495
17123W        W60114  13.093  17.795   1.806 -0.1410 -0.0755 -0.1744
17124W        W60115   2.169  22.496  27.007  0.1070 -0.3137  0.1862
17125W        W60116  27.727  30.100   7.871  0.0453 -0.0822  0.2439
17126W        W60117  16.660  12.066   5.933  0.1437  0.0838 -0.1086
17127W        W60118  11.820   6.853  27.263 -0.1983 -0.0862 -0.0419
17128W        W60119  27.632   9.699  25.918 -0.1551  0.2524  0.0737
17129W        W60120  31.370  28.408   0.573 -0.1212  0.0214 -0.0218
17130W        W60121  30.112  34.050   3.713 -0.1845  0.3261 -0.2828
17131W        W60122   7.892  12.104  10.984  0.1250 -0.1086  0.4309
17132W        W60123  21.305  34.571  25.636 -0.1339  0.0243  0.1076
17133W        W60124  23.922   7.413  22.217  0.0200  0.4823 -0.2003
17134W        W60125  27.654  19.833  21.680 -0.3000  0.2288 -0.1264
17135W        W60126  26.449  21.764   6.740  0.0937 -0.1256 -0.1359
17136W        W60127  24.664   7.423   3.986  0.0638 -0.0722 -0.0453
17137W        W60128  19.076  18.075   4.211  0.1863 -0.2374  0.0412
17138W        W60129  17.695  33.343   8.365 -0.1435  0.0144  0.0284
17139W        W60130  25.905  28.983  27.870  0.1180  0.2648 -0.1024
17140W        W60131  18.580  21.153   3.576  0.0547 -0.1175 -0.2391
17141W        W60132  15.006  26.808   8.036 -0.0310 -0.1542 -0.2038
17142W        W60133  34.723  34.503  24.612  0.0318 -0.0059  0.0494
17143W        W60134  16.186  22.944   6.536 -0.3830  0.2367  0.3235
17144W        W60135  31.888  25.080   6.555 -0.3157  0.0822  0.1047
17145W        W60136  14.382  22.167   0.881  0.3044 -0.0648  0.1494
17146W        W60137  24.266  19.434   5.851 -0.1222 -0.2598 -0.0167
17147W        W60138  26.935  11.416   6.541 -0.1185  0.2050  0.0863
17148W        W60139  19.747  17.441   7.279  0.0048  0.0376  0.0043
17149W        W60140   6.227   1.467   4.561  0.3546 -0.1383  0.1421
17150W        W60141   7.689  15.594  10.306  0.1172 -0.2035 -0.0847
17151W        W60142  31.754  30.500   8.398  0.0303 -0.0525  0.2958
17152W        W60143  23.314  13.341  19.714 -0.3397  0.1014 -0.1004
17153W        W60144  25.618  26.515   5.578 -0.0689 -0.4171  0.0076
17154W        W60145  29.184   0.031  21.378 -0.3018  0.0640  0.5473
17155W        W60146  16.378  28.086   3.299  0.3503 -0.0313 -0.0830
17156W        W60147   7.615  25.240   2.979  0.5175  0.1194  0.0253
17157W        W60148  14.474  17.521  24.395  0.2627  0.2582  0.4866
17158W        W60149  29.176  26.257   4.457 -0.0920  0.0188 -0.2461
17159W        W60150  12.525  27.996   8.756 -0.1927 -0.0604  0.0264
17160W        W60151   7.460  27.671  27.950  0.0064  0.2403 -0.0603
17161W        W60152  20.878   8.853  24.379  0.2464  0.0892  0.1505
17162W        W60153  26.833  10.875   9.038  0.0499 -0.0252  0.4781
17163W        W60154  22.444  21.010   9.232 -0.0521  0.0672 -0.0768
17164W        W60155   8.482  13.121   6.415 -0.2141 -0.1882 -0.0423
17165W        W60156  14.857  11.360   8.703 -0.0893  0.2095  0.1594
17166W        W60157  31.801  16.663  10.614  0.0253  0.2930  0.1253
17167W        W60158   0.297  25.285   8.391  0.0209  0.0000 -0.1180
17168W        W60159  26.366  28.664   5.538 -0.1458  0.1870  0.0225
17169W        W60160   0.145  22.257  23.220 -0.0841 -0.3251 -0.1240
17170W        W60161  17.168  23.221   6.397  0.1792 -0.1290  0.0859
17171W        W60162  18.256  27.140  28.494 -0.2232  0.2194 -0.0285
17172W        W60163  24.371  19.529   6.802  0.1172  0.0734 -0.2747
17173W        W60164  12.828  18.189   5.597  0.0056  0.0890 -0.0101
17174W        W60165  19.957   9.277   7.168 -0.2119 -0.0836 -0.0516
17175W        W60166  21.268  23.342   0.683 -0.1151 -0.3464  0.4525
17176W        W60167  34.739   1.899   3.212 -0.2274 -0.4173  0.0702
17177W        W60168  30.415  28.446   3.207 -0.2628 -0.0119 -0.0533
17178W        W60169  17.418  32.202  25.718 -0.0240 -0.1800 -0.0675
17179W        W60170   3.540   2.518   4.496 -0.0045 -0.0680  0.0751
17180W        W60171  20.941   8.158  29.184  0.0113 -0.1673 -0.0913
17181W        W60172  17.386  20.762  22.615  0.0765 -0.0065 -0.0737
17182W        W60173   5.038  15.433   4.615 -0.2437  0.0029  0.3584
17183W        W60174  23.250  32.316   2.855  0.1620  0.1959  0.1359
17184W        W60175  16.965  19.647  27.064  0.2945  0.1576  0.2333
17185W        W60176  23.296  30.735   1.132  0.1271 -0.1677  0.0242
17186W        W60177  27.203  20.387   1.995 -0.0960 -0.0577 -0.3596
17187W        W60178  22.804  27.086   5.748 -0.0883 -0.1038 -0.1352
17188W        W60179  10.737  17.058   4.354 -0.0355 -0.0267 -0.2299
17189W        W60180  10.997  25.177  27.742 -0.3018  0.0155  0.1969
17190W        W60181  21.074  16.558   5.074  0.0198  0.0703  0.0977
17191W        W60182  30.350   9.011   6.735 -0.0703 -0.0172 -0.1213
17192W        W60183  14.867  10.764   1.131  0.1252  0.1071  0.2177
17193W        W60184  22.396  15.296  27.679 -0.0176  0.2199  0.1210
17194W        W60185  14.223  19.681  22.699 -0.0957  0.1288  0.0123
17195W        W60186   6.062  22.744   4.643 -0.0556  0.2487  0.2558
17196W        W60187  25.538  33.900   0.557 -0.0728  0.0607  0.0455
17197W        W60188  11.289  25.497  22.563 -0.0527 -0.0238 -0.1453
17198W        W60189  19.862  19.816   2.950  0.0251 -0.1309  0.0198
17199W        W60190  19.714  19.339  28.179 -0.1758 -0.0079  0.0103
17200W        W60191  12.212  13.198   1.654 -0.0043 -0.0699  0.1362
17201W        W60192   8.299  20.391   9.023  0.2437  0.0927  0.1622
17202W        W60193   6.017  23.176   2.917 -0.1024 -0.1142  0.1498
17203W        W60194  21.967  21.491   7.693 -0.0272 -0.0344 -0.3838
17204W        W60195  27.796  21.184   3.244 -0.0071  0.1719  0.0880
17205W        W60196   9.421  10.491   1.181  0.0067  0.1667 -0.1343
17206W        W60197  28.926  25.728   6.930 -0.0756  0.1265  0.0419
17207W        W60198  17.029  22.179   5.795  0.0418  0.1620  0.2955
17208W        W60199   1.806  16.620   5.494 -0.1073  0.3348  0.5673
17209W        W60200  29.502  20.151  26.640  0.1674  0.0755 -0.0001
17210W        W60201  19.698  13.338   1.721 -0.0920 -0.4987 -0.0637
17211W        W60202  15.465  20.945  17.822 -0.4032 -0.2183  0.0444
17212W        W60203  11.287  21.341   9.226 -0.0291  0.0774  0.3470
17213W        W60204  28.509   1.381  18.005 -0.1623 -0.0161 -0.1375
17214W        W60205   0.301   0.243  23.868  0.0639  0.0472  0.4228
17215W        W60206   4.585   2.473   6.887 -0.1275  0.0072 -0.1829
17216W        W60207  33.723  30.351  27.805  0.0528 -0.3595  0.0897
17217W        W60208  10.557  26.494  29.245 -0.1731  0.0292  0.1974
17218W        W60209  31.836  13.393  26.392  0.0924  0.1737  0.0868
17219W        W60210  25.453   2.444   2.916 -0.3968 -0.2947 -0.0251
17220W        W60211  16.919  19.366   1.185  0.0839  0.0874 -0.0615
17221W        W60212   8.942  24.628   2.889  0.2958  0.2650  0.1256
17222W        W60213  20.075  15.833   6.991 -0.0933 -0.0108 -0.2232
17223W        W60214  21.314  23.538   5.424  0.3679 -0.1233  0.2542
17224W        W60215  12.761  23.359  27.549  0.0438  0.0047  0.2487
17225W        W60216  28.415  23.901   0.548 -0.2659 -0.0382  0.0414
17226W        W60217  18.860   4.130   3.683 -0.2083 -0.1228  0.3331
17227W        W60218  24.104  31.217   2.603 -0.1608 -0.1535  0.2976
17228W        W60219  21.200  31.147  20.770  0.4734  0.0634  0.0996
17229W        W60220  18.411  33.651   4.998  0.0870  0.0571  0.2485
17230W        W60221  10.375  31.070  28.042 -0.1016  0.1295  0.0097
17231W        W60222  11.867  16.220   5.017  0.1560 -0.1278 -0.2080
17232W        W60223   1.417  31.067   9.688  0.1713  0.2251 -0.3106
17233W        W60224   6.193  17.680  27.579 -0.1506 -0.0239  0.2995
17234W        W60225  17.038  17.294   8.247  0.3402 -0.3185 -0.0124
17235W        W60226  18.357  27.258   1.197  0.0300  0.1066 -0.3957
17236W        W60227   2.656  22.141   2.076  0.3522 -0.1053 -0.0432
17237W        W60228  10.007  26.799   9.906  0.0170  0.1555 -0.0288
17238W        W60229  10.966  17.633   3.613 -0.1379 -0.3814  0.0537
17239W        W60230  17.919  30.046   6.174 -0.1149 -0.1104  0.3154
17240W        W60231   0.223  13.107  11.052  0.0898 -0.2962  0.2382
17241W        W60232   6.022   0.296   5.873  0.2379  0.1258  0.2150
17242W        W60233  15.684  29.872   8.354 -0.2496 -0.2286 -0.3109
17243W        W60234  12.364  34.443   1.627 -0.4120 -0.4993 -0.0959
17244W        W60235  25.765  27.395   2.278  0.0764 -0.0329 -0.0724
17245W        W60236  16.943  17.006   8.623  0.1797 -0.0975 -0.0967
17246W        W60237  16.477  17.594  27.450 -0.4748  0.1065 -0.1875
17247W        W60238  26.684   1.464   2.069 -0.3104  0.1139  0.2674
17248W        W60239  27.140  32.026   5.670  0.0430 -0.2184 -0.0839
17249W        W60240  12.679  21.992   0.387  0.0150  0.5144  0.0485
17250W        W60241   7.886  24.027   8.411  0.0224 -0.1865  0.3064
17251W        W60242  26.252  13.097  26.395 -0.1728 -0.3812  0.1317
17252W        W60243   3.868  20.226   3.353  0.3617  0.1286 -0.0587
17253W        W60244  19.860  19.229   8.440 -0.1227 -0.0208  0.0382
17254W        W60245   9.277  19.660   5.774 -0.2631  0.0207 -0.2957
17255W        W60246  32.466  26.719   7.166  0.1587  0.2318  0.1532
17256W        W60247  14.019  31.878   0.719  0.2822 -0.1455 -0.0035
17257W        W60248  12.084  19.016   0.141  0.1012  0.1757  0.4687
17258W        W60249   5.978   6.700   9.544 -0.2002 -0.0158 -0.1799
17259W        W60250  19.294   2.823   9.441  0.2548 -0.2475  0.0794
17260W        W60251  23.378  30.076   4.310  0.0847 -0.0235 -0.0198
17261W        W60252  28.063  21.176   5.226  0.1395  0.0276 -0.3333
17262W        W60253  15.606  28.177  25.386 -0.3180  0.0374 -0.0191
17263W        W60254  25.510  28.740  28.577  0.0014  0.1464 -0.1127
17264W        W60255   4.998  31.356  27.413 -0.0855  0.0631 -0.1122
17265W        W60256  32.898   4.209   7.148  0.0700 -0.0802 -0.1992
17266W        W60257  18.354   0.046   4.810  0.2159 -0.4079  0.0157
17267W        W60258   2.823  16.475  10.320 -0.3430  0.2180  0.1521
17268W        W60259  17.297  17.301   7.801  0.2306 -0.3316 -0.1889
17269W        W60260  22.899  28.168  21.557  0.1781 -0.0103  0.0105
17270W        W60261  31.552   5.681   6.910 -0.2602 -0.0304 -0.1827
17271W        W60262  23.930  15.051   3.584  0.1731 -0.0636 -0.0909
17272W        W60263  16.442  26.858   4.815  0.3249  0.1339  0.0939
17273W        W60264  23.767  23.292   8.262 -0.2528 -0.2382 -0.1105
17274W        W60265  28.260  15.232   1.462  0.0169  0.0019  0.0372
17275W        W60266  17.346  30.716   4.277 -0.0059 -0.3276  0.1288
17276W        W60267   7.422   2.896   7.919  0.3612 -0.2182 -0.0381
17277W        W60268  25.347   6.557  25.756 -0.0190 -0.0644  0.2135
17278W        W60269  19.357   7.289   3.816  0.1117 -0.2038 -0.1043
17279W        W60270   9.068  25.787   5.252  0.0568 -0.1131 -0.0252
17280W        W60271   7.400  20.564   7.911 -0.3323 -0.1738  0.1913
17281W        W60272  15.562   1.891  28.213 -0.2058  0.2141 -0.0452
17282W        W60273  13.417  18.707   4.331  0.3166 -0.2616 -0.0271
17283W        W60274  24.110  18.360   4.108  0.1887  0.2215  0.1377
17284W        W60275  23.541  17.838   0.066 -0.3999  0.3131 -0.2400
17285W        W60276  10.420  26.833   3.617  0.3376  0.2783  0.0063
17286W        W60277  19.704  18.020   4.068 -0.1680 -0.2106  0.2316
17287W        W60278  13.229  30.960  25.142 -0.0001 -0.4324  0.0653
17288W        W60279  20.409  24.720   6.163  0.1863 -0.0871 -0.1857
17289W        W60280  22.293  16.876   4.253  0.1290 -0.1342  0.1329
17290W        W60281  27.629   4.971  14.459  0.2413 -0.1389 -0.0669
17291W        W60282   9.181  31.909   6.514 -0.0555  0.0305 -0.1492
17292W        W60283  13.464  32.318  17.797  0.1879 -0.1223  0.0398
17293W        W60284  23.326  24.686  27.666 -0.1240 -0.1273 -0.2855
17294W        W60285  21.321  24.938  26.570 -0.2688 -0.0874  0.0740
17295W        W60286   7.123  25.547   9.324  0.2088  0.0594  0.2660
17296W        W60287  13.800  25.672  24.493  0.2121  0.0414  0.0867
17297W        W60288  18.145  28.016   8.207 -0.4855 -0.0484 -0.2146
17298W        W60289  20.328  18.617  23.504 -0.1062  0.1479  0.1896
17299W        W60290  31.505  24.386   0.890 -0.0812  0.0984 -0.0688
17300W        W60291  33.476  34.486   5.267 -0.1981 -0.0950  0.0225
17301W        W60292  30.519  19.037  27.801 -0.2736 -0.3267 -0.0682
17302W        W60293  28.157   2.830   8.566  0.1301 -0.0750 -0.1389
17303W        W60294  30.604  20.935   8.948  0.2097  0.0122  0.0102
17304W        W60295  22.067  17.542   5.899  0.1017 -0.3782  0.1649
17305W        W60296  12.164  27.616   8.748  0.0195 -0.1055 -0.0721
17306W        W60297  30.445   2.539   0.627  0.0131 -0.0779 -0.0630
17307W        W60298  23.947  26.138   4.872  0.0279 -0.1963  0.0068
17308W        W60299   9.453  17.211   9.713 -0.1415  0.1622 -0.0625
17309W        W60300  27.487   6.856   7.582 -0.3297  0.0162 -0.1798
17310W        W60301  26.820  16.601   0.933 -0.0479  0.1202 -0.1233
17311W        W60302  31.978  29.641  23.240  0.3142  0.1888 -0.3968
17312W        W60303   7.559  22.093  21.092  0.2664 -0.2340  0.1562
17313W        W60304  20.557  22.920   9.359  0.1039 -0.0337  0.1923
17314W        W60305   7.714  26.158   4.618 -0.0109  0.1417 -0.1715
17315W        W60306  13.945  19.135  23.972 -0.0178  0.2183  0.0005
17316W        W60307   1.155  25.330   1.833  0.1362  0.4254 -0.1008
17317W        W60308  11.868  20.527   6.462 -0.0491  0.0071 -0.0281
17318W        W60309  23.532  28.176  27.538 -0.4003 -0.6094  0.2511
17319W        W60310  25.510  16.365   2.928 -0.0444  0.1479  0.1360
17320W        W60311  22.891   0.551   3.292 -0.0393 -0.2973  0.1745
17321W        W60312  17.485  27.336  26.033  0.1999 -0.0753 -0.1136
17322W        W60313  16.063  34.294  16.995  0.0032  0.1112  0.1104
17323W        W60314  24.116  16.771  28.390  0.0072 -0.1119  0.0141
17324W        W60315  23.233  20.397  23.770  0.1029 -0.1136  0.0786
17325W        W60316  13.145  19.021  27.517 -0.4755  0.2125  0.1358
17326W        W60317  23.257  33.785   0.058  0.0859  0.0296  0.0506
17327W        W60318  10.260  33.090  20.345 -0.3998  0.1101 -0.1151
17328W        W60319  14.249  21.764   4.764  0.0469  0.0344  0.1803
17329W        W60320   1.383  26.448   8.298 -0.0026 -0.2045  0.0501
17330W        W60321  18.164  20.501   5.993  0.1294  0.4619 -0.0534
17331W        W60322   2.205   4.939   6.789  0.1155 -0.0088 -0.2259
17332W        W60323  22.430  18.885  21.059  0.1679  0.3111  0.1825
17333W        W60324   6.920  31.048   2.887  0.2109  0.0301 -0.0666
17334W        W60325  17.214  31.648   4.684  0.3067  0.1024  0.0701
17335W        W60326  11.416  29.032   8.577 -0.1411  0.1835 -0.2375
17336W        W60327  25.456   4.527   1.696  0.2422  0.2433  0.0256
17337W        W60328   2.795  21.860  26.042 -0.0855 -0.3890 -0.1392
17338W        W60329  17.440  14.532   2.336  0.2704 -0.0893 -0.2960
17339W        W60330  19.958  22.201   0.720  0.1190 -0.3147  0.0242
17340W        W60331  11.601   9.742   5.576  0.1694 -0.1963 -0.0956
17341W        W60332  21.305  31.249   3.648 -0.0550  0.1543 -0.0434
17342W        W60333  13.258  31.882   2.940 -0.2943 -0.0617  0.1808
17343W        W60334  14.009  25.822  26.475 -0.0258 -0.0334  0.0109
17344W        W60335  23.692  25.717   4.968  0.0936 -0.2479  0.1115
17345W        W60336  29.750  32.033  25.505  0.2954 -0.1484  0.0667
17346W        W60337  16.232  24.077   2.008 -0.0720 -0.1074  0.0025
17347W        W60338  13.783  20.956   7.895  0.0489 -0.0862  0.0187
17348W        W60339  31.301  14.588   0.605 -0.2525 -0.0049  0.1986
17349W        W60340  32.772  30.224  29.133 -0.3285  0.1682  0.3180
17350W        W60341  14.856  24.754  27.944  0.0263 -0.3316  0.0570
17351W        W60342  29.226  24.526   0.882  0.2086  0.0899 -0.1372
17352W        W60343   9.441  21.750   7.604 -0.1383 -0.2842  0.2897
17353W        W60344  17.095  18.914   1.058  0.0751 -0.0115 -0.2203
17354W        W60345  21.779  22.510   7.880 -0.0399 -0.4868 -0.0279
17355W        W60346  17.813  12.147   8.060 -0.1201 -0.2173  0.1550
17356W        W60347  13.322   4.471   2.079 -0.1743 -0.0444  0.0312
17357W        W60348  20.270  17.661   3.462 -0.1170  0.2613  0.0098
17358W        W60349  17.984  23.339  22.298  0.0991 -0.2860 -0.3229
17359W        W60350   6.906  25.894   6.975  0.0725  0.1005  0.0364
17360W        W60351  14.279   4.722   1.968  0.0625 -0.4971  0.1796
17361W        W60352  28.890  26.224  26.893  0.0629 -0.0477  0.0176
17362W        W60353  30.724   8.573   3.371  0.1054 -0.0312  0.0110
17363W        W60354  12.901  31.045  10.195 -0.0390 -0.1073 -0.1451
17364W        W60355  30.546  20.535   5.637  0.0836  0.0414  0.3221
17365W        W60356   5.131  14.830  21.059 -0.1910 -0.0694 -0.1983
17366W        W60357   4.260  33.549  13.904 -0.2539  0.0820 -0.0757
17367W        W60358   4.731   4.853  28.054 -0.3071  0.1321  0.2848
17368W        W60359  24.949   0.648  13.320 -0.3477 -0.1621  0.0896
17369W        W60360  14.856  21.949  18.754  0.0922 -0.0336 -0.2815
17370W        W60361  26.941  17.640   7.075  0.1239  0.1037 -0.2153
17371W        W60362  33.368  22.897   9.731  0.1717  0.0720 -0.0367
17372W        W60363  18.188  28.732   5.733  0.2508 -0.0174 -0.0641
17373W        W60364  20.020   4.646  17.722  0.0190  0.0984  0.0053
17374W        W60365  17.163  29.547  20.046  0.0290 -0.0290 -0.1147
17375W        W60366  28.186  19.234   0.364  0.0995  0.0230 -0.3202
17376W        W60367  10.798   9.709   3.804 -0.0751 -0.0212  0.3098
17377W        W60368  12.770  23.656  22.156 -0.1944 -0.1149 -0.1932
17378W        W60369  29.857  30.806  20.738 -0.0460 -0.1121 -0.0481
17379W        W60370  13.783   2.017  16.504  0.0831 -0.0213  0.0454
17380W        W60371  18.100  12.941  22.354 -0.2758  0.1032  0.0560
17381W        W60372  15.794  27.926   4.140 -0.4195 -0.0212  0.1737
17382W        W60373   0.192   0.575  25.399  0.1425 -0.0501 -0.3315
17383W        W60374  13.005   0.912   6.103  0.0187 -0.1132 -0.3342
17384W        W60375  17.180  30.620   6.177  0.0211 -0.0209  0.1727
17385W        W60376  17.242  31.115   3.179 -0.0435  0.1538  0.0614
17386W        W60377  14.646   7.338  24.028  0.0866 -0.0644 -0.2741
17387W        W60378  25.402  29.797   5.016 -0.0080  0.2868 -0.1844
17388W        W60379   8.316  13.660  27.866 -0.0081  0.3752  0.0717
17389W        W60380   6.848  31.761  19.282 -0.1722 -0.0574  0.0987
17390W        W60381   8.498  21.919  25.660 -0.2047  0.1825 -0.2520
17391W        W60382  26.963   8.560   9.947  0.1447 -0.0857 -0.0668
17392W        W60383  18.561  14.263   1.878 -0.1349 -0.0883  0.0239
17393W        W60384  34.108  29.328  23.237 -0.2867 -0.0410  0.2329
17394W        W60385  31.194   1.715   5.667  0.1022  0.3659 -0.1045
17395W        W60386  27.227  11.900   9.771  0.0121 -0.0792 -0.0235
17396W        W60387  20.279  29.538   4.068 -0.1088  0.2850  0.2302
17397W        W60388  25.262  32.668  29.054  0.1041  0.0624  0.3231
17398W        W60389  18.643   2.455  23.047  0.0694 -0.1305  0.2574
17399W        W60390  27.458   1.480  20.977  0.0846 -0.3884 -0.1543
17400W        W60391  15.025   6.245  10.746 -0.1080  0.1969  0.1859
17401W        W60392   6.237   5.865   4.371  0.0130  0.1493  0.3257
17402W        W60393  17.877  18.023   1.845 -0.2762  0.1142  0.1155
17403W        W60394  23.615  30.161  21.472  0.0791  0.2922  0.0187
17404W        W60395  16.853   0.748  26.793  0.1520 -0.0479 -0.0429
17405W        W60396  32.663  21.170  17.969  0.0206  0.2724  0.3105
17406W        W60397  12.515  24.646  24.731  0.0012  0.2422  0.0806
17407W        W60398   7.222  22.878  22.596 -0.1541  0.3293  0.0465
17408W        W60399   3.195   4.073  22.570 -0.0797  0.0968 -0.0763
17409W        W60400  14.747   9.040   5.208 -0.2039 -0.3167 -0.0676
17410W        W60401  32.147   0.914   3.467  0.1023 -0.0010  0.0239
17411W        W60402  13.258   3.294   5.022 -0.2222  0.0174 -0.3048
17412W        W60403  21.478  23.392   6.034 -0.2573 -0.1019 -0.0281
17413W        W60404  22.923  26.340  14.136 -0.0735  0.2536  0.1250
17414W        W60405  11.087  27.941   0.925  0.0605  0.1014 -0.2567
17415W        W60406   9.624   9.372   8.206 -0.1022 -0.0848  0.0259
17416W        W60407  26.701   3.600   1.571  0.0619 -0.2118 -0.3266
17417W        W60408   8.564  32.039  22.049  0.0869  0.0735 -0.0348
17418W        W60409  23.704   7.417  28.382  0.0365  0.0575  0.0569
17419W        W60410  30.896  34.729  26.338  0.1986  0.0191 -0.0999
17420W        W60411  24.094  29.950  17.576  0.0809 -0.1677  0.2160
17421W        W60412  21.700   1.252  24.506 -0.0330 -0.1461 -0.1907
17422W        W60413  33.404   9.873   0.393 -0.2226 -0.0452 -0.1521
17423W        W60414   7.580  20.436   7.402  0.2104  0.2451 -0.0669
17424W        W60415  17.816   8.462   3.219  0.1195 -0.0410 -0.1161
17425W        W60416  32.520  21.077  22.489  0.2345 -0.2318 -0.0448
17426W        W60417  16.458   0.627  24.102  0.3154  0.0105  0.2426
17427W        W60418  23.737  33.731  19.448  0.0826 -0.0359  0.1721
17428W        W60419   0.322  25.080   1.186  0.1355 -0.1475 -0.1093
17429W        W60420  13.110   1.165   0.401 -0.2631  0.2594 -0.1090
17430W        W60421  19.689  31.591  15.887 -0.0330 -0.2028  0.0859
17431W        W60422  26.681  33.986  16.273  0.1229 -0.0839  0.2215
17432W        W60423  16.729  23.215   0.490 -0.3498  0.0999 -0.0046
17433W        W60424  32.869  15.486  10.366  0.1986  0.3053  0.3705
17434W        W60425  23.441  30.459  26.068 -0.1941 -0.0795  0.0639
17435W        W60426  27.579  25.489   9.519  0.3181  0.0742  0.2787
17436W        W60427  15.620   4.315   9.820 -0.0415  0.2371 -0.0065
17437W        W60428   7.224   4.955  11.421 -0.2878 -0.1508 -0.0047
17438W        W60429   7.288   3.350  21.749  0.0949  0.1808  0.1298
17439W        W60430  24.900  27.259  20.064  0.1331 -0.1531  0.1109
17440W        W60431  12.052  14.711  27.945  0.0085 -0.0451 -0.1217
17441W        W60432  17.358  29.355   1.144  0.1195 -0.1938  0.1365
17442W        W60433  23.610  13.914   7.606 -0.1022 -0.0182 -0.2226
17443W        W60434  19.464  20.821  17.378  0.0268 -0.0287 -0.0620
17444W        W60435  13.961  28.112  23.145  0.0045  0.2222  0.0267
17445W        W60436  12.736  33.813  17.733  0.2533  0.2400  0.5191
17446W        W60437  29.381  26.058  16.793 -0.0565  0.1353  0.0108
17447W        W60438   9.850  12.213   8.601  0.0114  0.0102  0.2376
17448W        W60439  28.962  28.171   5.169 -0.1060 -0.2673  0.0168
17449W        W60440  30.174  26.599  26.591 -0.0299 -0.1436  0.2220
17450W        W60441  12.894  23.308   2.419 -0.0715  0.4137 -0.1136
17451W        W60442  23.020   3.088   0.935  0.0481 -0.1128 -0.0746
17452W        W60443  11.633  10.324   7.186 -0.0507 -0.1968 -0.2266
17453W        W60444   7.741   7.210  17.183  0.0903 -0.1202 -0.2244
17454W        W60445  20.412  32.755   8.819 -0.0137 -0.0399  0.0331
17455W        W60446  32.533  27.369  20.671  0.1505  0.1414  0.1584
17456W        W60447  27.551   0.505   3.500 -0.0888 -0.1916  0.0496
17457W        W60448  14.388  24.246   0.651 -0.1254 -0.3592  0.1238
17458W        W60449  15.339  33.023   2.499  0.1517  0.2765 -0.0771
17459W        W60450  15.724  22.594   3.360  0.0594 -0.1796 -0.3080
17460W        W60451  19.131  18.853  27.846  0.1123 -0.0377 -0.2371
17461W        W60452  24.147  33.537  23.928  0.3084 -0.2782 -0.1166
17462W        W60453  15.245  15.883  26.146 -0.0704  0.1951 -0.3492
17463W        W60454  16.229  31.467  25.670  0.1636 -0.1748  0.1059
17464W        W60455   9.512  30.445   8.921  0.3608  0.3032 -0.2811
17465W        W60456  28.733  25.163  24.102 -0.2002 -0.0607  0.0003
17466W        W60457  25.650   3.117  13.551  0.0380  0.0127 -0.1790
17467W        W60458  21.173  23.578  28.275  0.2139  0.1239 -0.2938
17468W        W60459  17.713   7.549   2.656 -0.0315 -0.2336  0.1075
17469W        W60460  21.272  25.284   0.613 -0.4424  0.1178  0.0179
17470W        W60461  17.010  19.170  25.341  0.2289 -0.1053 -0.1615
17471W        W60462  12.264  17.048   1.023 -0.1609  0.1294 -0.1349
17472W        W60463  24.373   1.195  19.251  0.3254  0.0101 -0.1572
17473W        W60464   6.425  14.575  27.544  0.1666  0.1030  0.0138
17474W        W60465  11.225  24.224   2.258  0.1484 -0.2132  0.3228
17475W        W60466  22.371  28.708   5.469 -0.0336 -0.1808 -0.1049
17476W        W60467  15.668  20.591  26.021 -0.0484  0.3921 -0.0701
17477W        W60468  13.699  28.740   8.486 -0.1109  0.3359 -0.0956
17478W        W60469  29.185   1.774  26.154 -0.1405 -0.1873 -0.4092
17479W        W60470  13.098  28.183   9.514  0.1611 -0.2408  0.0504
17480W        W60471  21.200  34.325   2.222  0.2646 -0.0516 -0.3816
17481W        W60472   0.172  18.465  26.590  0.0070  0.1027  0.0422
17482W        W60473   7.618  32.545  22.907 -0.2835 -0.2525 -0.1189
17483W        W60474  10.229  33.993  21.009 -0.0749  0.1565  0.1076
17484W        W60475  19.392  21.641   7.816 -0.0137 -0.0277 -0.0707
17485W        W60476  13.736  31.611  18.335  0.0471  0.2165 -0.2082
17486W        W60477  23.133  25.755  27.999 -0.1866 -0.1558  0.2933
17487W        W60478  33.305  32.221   6.642  0.0136 -0.1756 -0.0002
17488W        W60479  16.042  17.948   4.242  0.0945 -0.0323 -0.2128
17489W        W60480   8.504  31.434  18.455 -0.1295  0.0654  0.3089
17490W        W60481  16.245   3.704   1.182 -0.0754  0.2759 -0.3225
17491W        W60482  20.854  25.559  27.164  0.1101  0.0964 -0.2945
17492W        W60483  10.963  31.641   3.875 -0.0752 -0.0561 -0.0444
17493W        W60484  25.886  32.125   5.386  0.2772 -0.1164 -0.3005
17494W        W60485   0.745  20.185   3.460 -0.0806 -0.1356 -0.0403
17495W        W60486  13.719  34.206   4.788  0.0975  0.2024 -0.0667
17496W        W60487  14.006  32.801   3.381  0.0389  0.3006  0.0350
17497W        W60488  22.503  24.748   8.081  0.0075 -0.2814  0.4203
17498W        W60489  26.245  29.902  24.104  0.1587 -0.0766  0.1886
17499W        W60490  17.322   1.955  22.816  0.0517  0.1254  0.1748
17500W        W60491   3.381  27.452  27.651  0.2821 -0.0252 -0.1193
17501W        W60492   2.595  29.110  21.491 -0.2058 -0.1238 -0.0890
17502W        W60493  19.587  19.790   7.864 -0.0800 -0.3611 -0.1837
17503W        W60494   3.843  25.300   1.759  0.1106  0.2840  0.1625
17504W        W60495  17.733  24.093   5.772  0.2939 -0.1612  0.3885
17505W        W60496  15.658  25.046  24.405  0.0175  0.0452  0.0233
17506W        W60497   3.854  32.817   7.004  0.4541  0.0015  0.0709
17507W        W60498  34.130   1.976   3.309 -0.3754  0.0247 -0.4746
17508W        W60499  24.675  18.717  25.914  0.3581  0.0337 -0.2446
17509W        W60500  24.957  28.009  24.376  0.0689  0.0474  0.1034
17510W        W60501  31.015  31.033  26.410 -0.0445 -0.0872  0.2473
17511W        W60502  32.749  24.145  29.235 -0.2030 -0.0682 -0.0665
17512W        W60503  23.113   4.191   5.515  0.0905 -0.1089 -0.0502
17513W        W60504  18.466  17.692  27.013 -0.2375  0.2454 -0.0066
17514W        W60505  17.210  14.584  19.021  0.1133  0.2541 -0.2454
17515W        W60506  30.883   7.024  24.653 -0.1689 -0.1251 -0.0695
17516W        W60507  24.749  31.673   8.809  0.0132 -0.1520  0.2556
17517W        W60508  15.870  17.763   0.664 -0.0918  0.0171 -0.0487
17518W        W60509  28.011   4.505   5.913  0.0578  0.2490  0.0571
17519W        W60510  22.447  27.019  21.908 -0.1458  0.0141  0.0127
17520W        W60511   9.751   0.624  24.805 -0.0384 -0.0356  0.1295
17521W        W60512  30.817  29.725  26.845 -0.5507  0.1091  0.0557
17522W        W60513  13.207  22.413  24.911  0.0849 -0.1267 -0.1023
17523W        W60514   5.158   8.763  26.226  0.0687  0.3166 -0.0490
17524W        W60515   1.812  13.430  29.111  0.1406 -0.1812  0.1374
17525W        W60516  22.609   4.509   6.201  0.3011  0.2763  0.1745
17526W        W60517   5.394  24.630  23.873  0.2647 -0.1813 -0.1496
17527W        W60518   5.577   2.650   1.750 -0.1648  0.3267 -0.0431
17528W        W60519  10.909  22.107   7.339 -0.0567 -0.4496 -0.0577
17529W        W60520  14.652  23.281  21.941 -0.2184 -0.3060 -0.2539
17530W        W60521  22.636  16.912   7.230  0.0291 -0.1594  0.0335
17531W        W60522  11.406  10.921   5.425  0.0650 -0.2510  0.2659
17532W        W60523  10.694  15.204  27.323 -0.1222  0.0255  0.1214
17533W        W60524  23.551  33.879   4.079 -0.1704  0.2112 -0.2180
17534W        W60525  19.360  10.387   3.821  0.4246  0.2730 -0.1780
17535W        W60526  15.995   7.517  26.026  0.2792  0.1047  0.1404
17536W        W60527  24.795  14.547  29.083 -0.1740  0.0889  0.1437
17537W        W60528  11.455  26.052   6.734 -0.2665  0.0047  0.3401
17538W        W60529   8.083   3.324  15.929 -0.1445 -0.0323  0.2841
17539W        W60530  17.342  23.971  28.924 -0.0963 -0.1689 -0.1381
17540W        W60531  21.906  25.921  23.108  0.0799  0.0015  0.0910
17541W        W60532  22.923  26.793   0.121  0.1064  0.2801 -0.2255
17542W        W60533  21.083  27.532   2.520  0.0948  0.0259  0.3134
17543W        W60534  27.160   4.859   9.985  0.0141  0.0672  0.0374
17544W        W60535  23.037   8.069   6.747  0.0062 -0.0605  0.2106
17545W        W60536  23.297  25.689  15.776 -0.1874 -0.0139  0.1894
17546W        W60537   0.299  21.704  19.559 -0.3196 -0.2397 -0.1360
17547W        W60538  29.067  21.902   3.787  0.0747  0.0669  0.1120
17548W        W60539  14.976   2.476  25.648  0.0967 -0.1229 -0.1127
17549W        W60540  24.326  23.446  24.777  0.2305  0.0735 -0.0751
17550W        W60541  28.064   7.496  22.717  0.0506  0.0779  0.1147
17551W        W60542  18.848  22.769  22.976 -0.1818  0.0106 -0.2150
17552W        W60543  20.190   1.214   9.192 -0.0061  0.0365 -0.3039
17553W        W60544  27.119  32.315  27.061  0.1392 -0.3155  0.2044
17554W        W60545  14.499  25.600   7.700  0.0022  0.0900  0.1065
17555W        W60546   2.761  28.336   6.384 -0.0576 -0.2391  0.0553
17556W        W60547  27.248  33.637  26.098  0.3025 -0.0368 -0.1829
17557W        W60548  11.441  17.484  28.214 -0.0533 -0.1394 -0.0473
17558W        W60549  15.899  11.515   3.141  0.2791  0.0164  0.1274
17559W        W60550  17.214  19.373   0.767  0.1179 -0.1218  0.4571
17560W        W60551   3.527  16.637   5.515  0.1956  0.1863 -0.2983
17561W        W60552   0.949  27.039  14.748 -0.1139  0.0909 -0.0526
17562W        W60553  22.560   4.102   4.751  0.0258 -0.2614 -0.0181
17563W        W60554   2.939   0.058  29.255 -0.1084 -0.0549  0.2755
17564W        W60555   3.907   1.151   4.594  0.0901  0.2788 -0.0621
17565W        W60556  18.900  30.121   7.162  0.1334 -0.4526 -0.0307
17566W        W60557  22.944  18.864  25.008  0.0904 -0.1571  0.1542
17567W        W60558  31.152  22.237   4.394  0.1050 -0.0535  0.0427
17568W        W60559  18.721  25.786   7.073  0.0683 -0.1750  0.2636
17569W        W60560  25.706  26.664  26.451 -0.0793  0.0310 -0.1312
17570W        W60561  17.311  21.351  24.660  0.3091 -0.1161 -0.0283
17571W        W60562  32.127  22.543  23.661  0.1486  0.0034 -0.3120
17572W        W60563  10.848   3.097  21.267 -0.1165 -0.1264  0.0762
17573W        W60564  31.929  21.483  22.143 -0.2846  0.2074 -0.2342
17574W        W60565  30.332  23.919   6.832  0.1803 -0.0498 -0.1431
17575W        W60566  33.452   0.685   6.959 -0.2904 -0.0796 -0.1534
17576W        W60567  10.006  20.054   3.005  0.1060 -0.1123  0.1367
17577W        W60568  15.575  21.681  13.357 -0.4330  0.0708 -0.0214
17578W        W60569  17.768  23.664  20.612 -0.0040  0.1029 -0.1544
17579W        W60570  15.809  15.749  26.114  0.0720 -0.0415  0.2145
17580W        W60571   9.326  12.206   0.048  0.0698 -0.0181 -0.0923
17581W        W60572  26.863  15.065  24.268  0.1447 -0.2027  0.1299
17582W        W60573   9.546   4.818   3.066  0.0131  0.0115  0.1119
17583W        W60574   8.491  32.448   6.090  0.2098  0.1928  0.3044
17584W        W60575  12.451  18.511   3.390  0.0766  0.3483 -0.2377
17585W        W60576  22.101  28.495  20.551  0.0147  0.0572 -0.0045
17586W        W60577   6.509  28.471  29.210  0.1286  0.1635 -0.2564
17587W        W60578  14.555  30.066  23.490 -0.0317 -0.0182  0.3501
17588W        W60579   8.397  24.351   4.772  0.0445 -0.1639 -0.2492
17589W        W60580  20.003  25.263  20.048 -0.1704 -0.2116  0.0079
17590W        W60581  28.810  31.933  26.596 -0.1645  0.0425  0.2062
17591W        W60582  21.574  25.459  29.115  0.0632 -0.4479  0.3105
17592W        W60583  24.210  27.822   0.231 -0.0145  0.1426  0.0632
17593W        W60584  18.308  34.096   9.123  0.0038  0.0150  0.7330
17594W        W60585  34.425  17.867   9.023  0.2113  0.1072 -0.1011
17595W        W60586  15.904  16.408  14.852  0.0266  0.0216 -0.1366
17596W        W60587   4.666  22.619  23.117  0.1047 -0.2737  0.1609
17597W        W60588  26.550  29.270   2.674  0.0437  0.2465 -0.3284
17598W        W60589  24.746  31.857  28.357 -0.2019  0.0261 -0.2256
17599W        W60590  26.370  27.474  25.856 -0.0957  0.0295 -0.0381
17600W        W60591  14.090  18.399  23.156  0.4062  0.5201 -0.0336
17601W        W60592  15.425   7.347   4.460  0.2210 -0.0007 -0.1163
17602W        W60593  20.564   0.167  19.167  0.2603  0.1310 -0.2346
17603W        W60594  24.688  27.728  27.198 -0.0727  0.0227  0.0900
17604W        W60595  26.860  26.560   6.833  0.0113  0.1976  0.0561
17605W        W60596  20.341   3.167  27.016 -0.1236  0.2176  0.1355
17606W        W60597  12.286  31.297  28.446  0.1400 -0.1765 -0.1170
17607W        W60598   9.041  19.835  27.788  0.0006  0.2661 -0.1625
17608W        W60599  26.276  32.647  22.195 -0.0585  0.0903  0.1676
17609W        W60600  31.649  32.099  23.389 -0.0459  0.0461 -0.0330
17610W        W60601  22.924  28.746  23.931  0.1294  0.3817 -0.2721
17611W        W60602   6.228  27.624  29.236  0.0641 -0.1302 -0.0735
17612W        W60603  14.295  22.782  15.032 -0.1461 -0.2911  0.1682
17613W        W60604  19.643  17.107   4.182 -0.1610  0.0633 -0.1570
17614W        W60605  13.137  24.550  23.837 -0.1447  0.0042  0.3047
17615W        W60606  18.023  19.585   5.923  0.0875  0.1155  0.1895
17616W        W60607  30.804  31.283   1.996  0.2024 -0.1333  0.1451
17617W        W60608  14.281   2.934  26.268 -0.3598  0.4362 -0.0388
17618W        W60609  31.800   3.970   8.553  0.0256  0.1348 -0.0443
17619W        W60610   3.824  12.097   4.672  0.3076 -0.0757 -0.0731
17620W        W60611  20.064  32.970   3.900 -0.2847 -0.3595  0.2647
17621W        W60612  12.069  34.291  10.429  0.1053 -0.1104  0.1159
17622W        W60613  16.121  14.298   2.590  0.3994  0.1433 -0.0559
17623W        W60614  10.014  31.775  10.842  0.5257 -0.0198  0.1291
17624W        W60615  10.315  27.373  14.755  0.0566  0.1871  0.1238
17625W        W60616   7.970  25.799  28.270  0.1516 -0.1489  0.2542
17626W        W60617  10.962   1.157  19.901 -0.1115 -0.4862  0.2267
17627W        W60618  13.606  20.346   3.017  0.4463  0.1787 -0.2443
17628W        W60619  25.400  28.361  21.309 -0.0361  0.2754 -0.2425
17629W        W60620  24.652  32.785  25.740  0.2634 -0.1688 -0.0897
17630W        W60621  15.401  33.384   4.640 -0.0534  0.0587  0.1649
17631W        W60622  26.326  28.854  26.086 -0.0184 -0.2307  0.2001
17632W        W60623  32.027  23.126  15.135  0.1270  0.0919  0.0909
17633W        W60624  13.388  31.153  25.721  0.3244 -0.2706  0.2005
17634W        W60625  10.812  18.553   7.714  0.2340 -0.3769  0.0029
17635W        W60626  14.914  27.681   4.475 -0.0099 -0.2590  0.2422
17636W        W60627  19.057  22.355  27.345 -0.0232  0.1559 -0.1235
17637W        W60628  17.580  34.292   3.828 -0.2739  0.0474 -0.1116
17638W        W60629  11.200   2.068   0.823 -0.1532 -0.1124 -0.2819
17639W        W60630   7.283  29.583  16.191  0.0656 -0.2105 -0.0420
17640W        W60631  34.072   4.935  18.915  0.0745  0.1109  0.0698
17641W        W60632  30.526  24.870   1.305 -0.1726  0.0255  0.2044
17642W        W60633  26.114   5.472  21.243  0.0227 -0.4209  0.1538
17643W        W60634  25.311   9.008  28.887 -0.0497  0.1214 -0.1639
17644W        W60635  10.116  32.330  26.220  0.3177 -0.0874 -0.0305
17645W        W60636   5.566  18.105  26.296  0.3507  0.3138  0.0354
17646W        W60637  28.655   7.684  27.306 -0.4123 -0.0999 -0.0988
17647W        W60638  21.245  18.839   8.337  0.1404  0.1353  0.0861
17648W        W60639  29.428  32.526  27.552 -0.3204  0.1630 -0.0339
17649W        W60640   1.645  23.210  14.101  0.2648  0.1510 -0.0001
17650W        W60641  22.278  20.480   8.091 -0.0889 -0.1596 -0.1461
17651W        W60642  19.307  33.156   9.278  0.5250  0.1373 -0.3678
17652W        W60643  30.389  11.538  26.461  0.2058 -0.2345 -0.2295
17653W        W60644  17.549   0.985  21.944 -0.1981  0.0352 -0.0591
17654W        W60645   2.483  22.980  21.655  0.0409  0.0043 -0.2231
17655W        W60646   2.389  32.875   0.439  0.1963 -0.0070  0.0321
17656W        W60647  23.348  31.776   7.342 -0.1074  0.0466 -0.1673
17657W        W60648   0.672  28.616  16.027  0.1886 -0.0625 -0.2427
17658W        W60649  10.611  18.211   1.474 -0.0496  0.3587  0.4137
17659W        W60650  26.880   2.541   4.113  0.3203  0.0673 -0.1821
17660W        W60651  12.981  28.211   2.968 -0.1321  0.2116  0.1156
17661W        W60652  15.437  29.244  19.110  0.0532  0.1160 -0.2470
17662W        W60653   3.817  25.455   9.539  0.1094  0.0663 -0.0498
17663W        W60654  11.526  32.244  18.045  0.0873 -0.0340  0.1786
17664W        W60655  12.347  32.298  28.903  0.1963  0.1174 -0.0819
17665W        W60656  14.991  26.167  15.075 -0.0155  0.0003 -0.1759
17666W        W60657  15.820   5.605   5.132 -0.0262 -0.0870  0.0174
17667W        W60658  11.614  25.129  21.741  0.0520  0.0108 -0.0669
17668W        W60659  24.368  27.394   1.139 -0.2643  0.1950  0.0769
17669W        W60660  24.864  20.583  15.096 -0.2567  0.1619 -0.0128
17670W        W60661  33.512  23.624   7.949 -0.0343  0.1393 -0.1067
17671W        W60662  15.856  19.604  22.742  0.1382  0.1053  0.1018
17672W        W60663  15.542   4.228   4.645 -0.1084  0.0229  0.0794
17673W        W60664   6.966   2.737   2.939 -0.0662  0.0188 -0.1169
17674W        W60665  28.105   7.654   6.598 -0.1370 -0.3548  0.1438
17675W        W60666  16.200  31.252   4.637 -0.1369  0.1834 -0.3234
17676W        W60667  17.849   0.640  21.604 -0.1130 -0.1473 -0.0303
17677W        W60668  14.338  28.738   5.370  0.1211  0.0465 -0.0069
17678W        W60669  34.706   3.749  26.493 -0.1095  0.2187  0.1458
17679W        W60670  14.599  15.370  25.917  0.1290  0.0181  0.0582
17680W        W60671  31.906  27.260  27.712 -0.0405  0.0749 -0.1833
17681W        W60672  11.376   0.800   2.216  0.0093  0.1340  0.0933
17682W        W60673   8.573  17.051   8.076  0.2420 -0.1787  0.0498
17683W        W60674  11.935  29.373   2.220 -0.1463 -0.0683  0.1596
17684W        W60675  23.913  18.025   6.761 -0.2757  0.0617  0.3083
17685W        W60676  21.731  33.461  26.559  0.1013  0.0779 -0.0447
17686W        W60677   9.327  27.078   9.548  0.0606  0.3152 -0.0324
17687W        W60678  17.811  27.119   6.183 -0.1870  0.0494  0.2823
17688W        W60679  26.346   7.076  29.027  0.0265  0.2404  0.0392
17689W        W60680  22.637  34.633  19.619  0.1779 -0.1949  0.1962
17690W        W60681  15.392  32.818   6.925  0.1215 -0.1180  0.2169
17691W        W60682   2.748  31.369   1.210  0.0038 -0.2838  0.1111
17692W        W60683  22.042  32.355   6.558 -0.4322  0.0428  0.4931
17693W        W60684   9.510  30.362  27.931 -0.0557  0.2484  0.0235
17694W        W60685   9.314  32.104  10.222 -0.0411 -0.0700  0.1351
17695W        W60686  20.880  27.810  16.702  0.3484  0.1304 -0.0189
17696W        W60687  20.869  31.185   8.524  0.0675  0.1681 -0.1718
17697W        W60688  10.069  34.231  23.113  0.3881  0.0143  0.0544
17698W        W60689  26.033   7.874   5.864 -0.2060 -0.1697 -0.3717
17699W        W60690  20.628  26.372  16.634 -0.2368 -0.0974  0.0097
17700W        W60691  29.431  32.533   6.819  0.0115 -0.4551 -0.0878
17701W        W60692  18.926  21.389  26.662 -0.0836  0.0909  0.1583
17702W        W60693  17.658  25.967   3.388  0.1534 -0.0190  0.1821
17703W        W60694  32.281  23.501  26.585 -0.0474  0.0304 -0.0575
17704W        W60695  32.848  23.419   7.327 -0.2111  0.0209 -0.0342
17705W        W60696  19.131   8.812  23.317 -0.0571  0.2125  0.2268
17706W        W60697  26.751  21.323  28.636 -0.0636 -0.3383 -0.2077
17707W        W60698  25.100  10.404  22.679  0.0449  0.1784  0.2268
17708W        W60699  25.958  11.889   4.169  0.3817 -0.3354  0.4041
17709W        W60700   3.173  21.492  26.898  0.0597 -0.3198 -0.2472
17710W        W60701  25.749  23.003   7.741  0.1408 -0.3336  0.0554
17711W        W60702  24.000  32.880   5.579 -0.0941  0.0434 -0.1917
17712W        W60703  23.835   1.923  17.652 -0.0136 -0.2661  0.1786
17713W        W60704  25.875   5.405  26.855 -0.1885  0.4590  0.1835
17714W        W60705  18.125  14.832   5.721  0.0018 -0.1530  0.1662
17715W        W60706  14.726  26.730  21.882 -0.2074  0.0968  0.1230
17716W        W60707  20.257  14.277  24.675  0.2227 -0.2185  0.2428
17717W        W60708  26.950  33.660   2.577  0.1488  0.3912  0.2668
17718W        W60709  18.324  27.566   8.950  0.0171  0.3304 -0.0324
17719W        W60710  33.447  16.620  20.576 -0.2041  0.2041 -0.0221
17720W        W60711  20.201  20.673   3.178  0.2833 -0.3093  0.0415
17721W        W60712  28.719  31.302   5.942  0.0299 -0.5261 -0.0656
17722W        W60713  19.849  31.416  21.119 -0.2212 -0.1397  0.0885
17723W        W60714  26.794   8.456   8.124 -0.3428 -0.1215  0.3448
17724W        W60715  13.841   0.748   2.900  0.6245 -0.2853 -0.1698
17725W        W60716  18.942  32.109   3.439  0.2479 -0.0701  0.1587
17726W        W60717  13.937  31.985  28.361  0.1369 -0.1568 -0.1659
17727W        W60718  17.153   0.143   4.296  0.1584 -0.1171 -0.0345
17728W        W60719  21.968  24.533   6.864 -0.0862  0.2270 -0.2113
17729W        W60720  21.886  23.685  18.733  0.3607  0.0284  0.2417
17730W        W60721  29.829   4.758   0.532 -0.3765 -0.1581  0.0081
17731W        W60722  19.206  33.829   5.462 -0.0089 -0.2061  0.1425
17732W        W60723  23.893  30.523   0.330  0.0706 -0.2041  0.1132
17733W        W60724  32.343  32.690   4.741 -0.0876 -0.2004  0.2843
17734W        W60725   9.788   2.093   4.803  0.0659 -0.0691  0.1397
17735W        W60726  26.893  26.252   4.259 -0.1563  0.1768  0.1076
17736W        W60727  21.859  20.263  26.533 -0.2583 -0.2500  0.2297
17737W        W60728  31.940  16.824  26.715 -0.2253  0.1799 -0.2936
17738W        W60729  12.927   2.251   4.649 -0.0315  0.2431 -0.3684
17739W        W60730   3.267  15.821  26.649  0.0900  0.2153 -0.3332
17740W        W60731   2.929  28.596  15.207 -0.0186  0.0231  0.1006
17741W        W60732  11.009   0.616  21.005 -0.0156  0.0663  0.0199
17742W        W60733  33.992  21.701  24.942  0.2631  0.0999  0.0764
17743W        W60734  14.591   8.588  15.956 -0.3244 -0.3327  0.2653
17744W        W60735  27.092  26.482   5.672 -0.3127 -0.3809  0.0743
17745W        W60736  18.922  28.686  28.901  0.0705  0.0318 -0.0622
17746W        W60737  17.698  30.104  22.963  0.1689  0.0681 -0.0796
17747W        W60738  25.114  33.512  26.908  0.0152 -0.3054 -0.0474
17748W        W60739  13.217  32.215  26.809 -0.1233  0.1504 -0.2352
17749W        W60740  24.290   4.608   5.316  0.2321  0.0256  0.0708
17750W        W60741  13.112  20.353  18.941 -0.0321 -0.0025 -0.0257
17751W        W60742   6.651   7.851   1.287  0.2430 -0.2389 -0.1705
17752W        W60743  24.705  27.654  26.655 -0.0688 -0.0053  0.1851
17753W        W60744  20.385  25.484  21.534  0.3629 -0.0173  0.0941
17754W        W60745  11.676  31.112   0.977 -0.0870  0.3745 -0.4382
17755W        W60746  11.087  31.284  24.209 -0.0421  0.0780  0.1213
17756W        W60747  30.500   8.613  22.617 -0.0817 -0.2996 -0.0483
17757W        W60748  22.699  18.464  21.927 -0.1530  0.0912  0.1492
17758W        W60749  24.702   4.116   6.009  0.2126 -0.0221  0.0889
17759W        W60750  11.496  20.861  19.795 -0.1397  0.1042  0.0128
17760W        W60751  30.111  32.866   7.457 -0.0795 -0.0632  0.2865
17761W        W60752  10.116  29.847   0.987 -0.1363 -0.2011  0.0138
17762W        W60753  27.561  34.092   3.623  0.2380  0.1969 -0.0866
17763W        W60754  33.821   2.509  16.045 -0.1276 -0.1292 -0.0978
17764W        W60755  14.656   7.726  29.005 -0.0656  0.1289 -0.2458
17765W        W60756   0.856  30.885   1.422 -0.0226  0.1254 -0.0437
17766W        W60757  17.101  34.783   7.829 -0.0386 -0.0526  0.0425
17767W        W60758  14.928  33.134   0.490 -0.2267 -0.1537  0.0269
17768W        W60759  32.121  26.989   9.563  0.1379 -0.1724 -0.1207
17769W        W60760  25.336  24.894  28.372  0.0479 -0.0654 -0.1040
17770W        W60761   2.277  21.242   3.078 -0.1198 -0.1986 -0.0288
17771W        W60762  13.908  22.854   3.072 -0.4034  0.1062 -0.0682
17772W        W60763  20.841  22.184   5.261  0.0107 -0.0808 -0.0514
17773W        W60764  26.541  21.355  29.218 -0.0109 -0.0506  0.0488
17774W        W60765  11.677  34.119   8.975 -0.2770  0.1352 -0.1367
17775W        W60766  11.648  26.367   0.838  0.0108  0.1516 -0.1560
17776W        W60767  18.480  31.160  24.444  0.1612  0.0129  0.3498
17777W        W60768   4.950  31.415  26.810 -0.0137  0.1356 -0.0206
17778W        W60769  29.148   2.722  20.612  0.1736 -0.0770 -0.3180
17779W        W60770  24.246  12.147   1.388 -0.1990 -0.2054  0.3546
17780W        W60771   5.517  25.747  10.638  0.1121 -0.2760  0.2062
17781W        W60772  23.337  33.488  25.049 -0.0067 -0.1215  0.2110
17782W        W60773  23.733  25.141  22.887 -0.0765  0.0269 -0.1419
17783W        W60774  33.125  22.189   6.973 -0.1777 -0.1455  0.2997
17784W        W60775  22.248  29.117  20.665 -0.2622  0.3814 -0.0906
17785W        W60776  20.192  27.362   7.730 -0.2001  0.0529 -0.1877
17786W        W60777  29.108   1.100   4.718  0.2591  0.0860  0.0005
17787W        W60778  31.448  22.724   4.543 -0.0762 -0.0051  0.2826
17788W        W60779  17.002   2.015  28.278 -0.0762 -0.2952 -0.1240
17789W        W60780  24.050  13.806   7.270  0.0922 -0.1731  0.0510
17790W        W60781  20.560   0.741   4.459 -0.0197 -0.1769 -0.1537
17791W        W60782   9.076   0.891   7.506  0.0383  0.3270 -0.0712
17792W        W60783  24.440  21.649   2.002  0.0748 -0.2550 -0.1544
17793W        W60784  11.949  31.853  14.928 -0.0668  0.2104  0.2758
17794W        W60785  19.626  21.306  27.081 -0.1754 -0.2213  0.2745
17795W        W60786  12.085  26.414   9.046 -0.2652 -0.1366  0.1849
17796W        W60787   0.582  29.516  24.183  0.1499  0.1991 -0.0309
17797W        W60788  16.056  28.101   9.206 -0.2593  0.1735  0.2365
17798W        W60789  10.840  10.506  15.570 -0.1177 -0.1778  0.0002
17799W        W60790  25.379  13.618  26.256  0.0480  0.0011  0.0449
17800W        W60791  17.329  12.787   7.665  0.4284 -0.0623  0.0624
17801W        W60792   0.340  27.557   8.340 -0.2854 -0.0115  0.0340
17802W        W60793   9.651   0.650   8.261 -0.2336 -0.0964 -0.0394
17803W        W60794  12.092  30.582  21.257 -0.2114  0.0053  0.0811
17804W        W60795  26.285   0.713   1.413 -0.0487  0.1244  0.0674
17805W        W60796  17.146  25.467  17.602  0.0800 -0.3938 -0.4622
17806W        W60797   7.101  23.358  21.714  0.1520 -0.2132 -0.1041
17807W        W60798   6.481  20.518   6.280  0.0505  0.0466  0.0309
17808W        W60799   2.661  27.514   5.267  0.1361  0.2342 -0.2400
17809W        W60800  22.451  21.195  29.108  0.2200 -0.0289  0.1475
17810W        W60801  12.775  15.257   4.457  0.1477  0.2071  0.2398
17811W        W60802  20.421  14.014  19.849  0.1898 -0.0873 -0.0640
17812W        W60803  28.817  31.850  21.937 -0.0613 -0.2997  0.0455
17813W        W60804  29.805  26.652   3.960 -0.0793  0.2343  0.0675
17814W        W60805   2.952  19.296   7.409 -0.1345  0.2742  0.0340
17815W        W60806   1.362  19.407   1.147 -0.0323 -0.3239 -0.1405
17816W        W60807   6.026  19.280  23.311  0.2777  0.0523  0.0369
17817W        W60808  14.309  17.739   7.902 -0.0096  0.0980 -0.1128
17818W        W60809  15.895   3.455  10.028 -0.3752  0.1681  0.3406
17819W        W60810  19.958  15.281   0.975 -0.1080 -0.0759 -0.3448
17820W        W60811  10.514   2.411   7.427  0.0604  0.0838 -0.1628
17821W        W60812  21.041  31.461   5.277 -0.1690  0.0511 -0.1099
17822W        W60813  31.073  26.737  23.147  0.2447 -0.2017 -0.2194
17823W        W60814  16.045  20.468  22.667 -0.1215  0.2140 -0.1330
17824W        W60815  12.912  15.871  21.222  0.3229 -0.0168  0.3771
17825W        W60816  23.218  25.610  18.455 -0.0555  0.0761  0.0565
17826W        W60817  31.776  31.172  25.782 -0.0387  0.1258  0.1348
17827W        W60818   3.923  24.998  27.227 -0.0758 -0.2424  0.0824
17828W        W60819  29.791  22.915  19.269  0.0728  0.1139  0.1882
17829W        W60820  17.666   1.289  19.134 -0.0769 -0.2735 -0.0283
17830W        W60821  15.469  20.119   6.793  0.1402  0.0935 -0.1946
17831W        W60822   8.259  25.924   6.815 -0.2833  0.1113 -0.0032
17832W        W60823   6.049  10.499   2.977  0.3945  0.0558  0.3062
17833W        W60824  19.959  26.008  26.627 -0.1678  0.0175 -0.0715
17834W        W60825   2.196   5.323   9.338  0.2980 -0.1626  0.1849
17835W        W60826  33.104  27.069  25.387  0.2292 -0.2764  0.0885
17836W        W60827   0.683  22.628  16.021  0.0929 -0.1739 -0.0645
17837W        W60828  13.328   9.996   6.577 -0.2100 -0.0895  0.0050
17838W        W60829  21.608   1.927   5.804  0.0089  0.0167 -0.0577
17839W        W60830  18.625  30.477  26.333  0.0902  0.3416 -0.0217
17840W        W60831   7.862  22.274  26.971 -0.0111 -0.1274 -0.0780
17841W        W60832  21.540  18.078   2.946  0.0969 -0.3317 -0.1563
17842W        W60833  17.676  34.096  28.348 -0.0152 -0.2278  0.0630
17843W        W60834  21.597  21.883  25.878  0.0591 -0.1629 -0.0119
17844W        W60835  23.730  17.875   9.440 -0.0397  0.0206  0.1611
17845W        W60836  15.652  27.156   7.997 -0.1802 -0.1023 -0.2688
17846W        W60837  10.459  25.428   6.235  0.1073  0.0268 -0.2885
17847W        W60838   2.477  22.017   3.062 -0.0469 -0.0139  0.1217
17848W        W60839  19.542   6.651  17.679  0.0651 -0.0322 -0.0692
17849W        W60840  25.258  28.518   9.085 -0.0207 -0.0878  0.1027
17850W        W60841  15.895  14.007   8.393  0.4151 -0.1530  0.0971
17851W        W60842  24.865  28.749   0.847  0.0156 -0.1554 -0.0056
17852W        W60843  16.152  18.539   8.218  0.1764  0.1258  0.0542
17853W        W60844  10.599  26.238   1.896 -0.0418 -0.2281 -0.2419
17854W        W60845   9.561  29.668  23.220 -0.1243  0.2085  0.5148
17855W        W60846  28.837  12.986   2.954  0.1425  0.1890  0.0902
17856W        W60847   5.083   2.443  24.793 -0.2893 -0.1691  0.0667
17857W        W60848   9.668  26.043  20.351 -0.0975  0.0368  0.0268
17858W        W60849  23.340  28.388   5.724 -0.0631  0.0999  0.1100
17859W        W60850  18.141  19.696   7.805  0.3018  0.0235 -0.1692
17860W        W60851   0.150  24.165  18.453 -0.0851 -0.2295 -0.0194
17861W        W60852  33.094  17.017   6.857 -0.2814  0.0640 -0.2589
17862W        W60853  28.825   7.725   8.887 -0.2562 -0.4364  0.0404
17863W        W60854  10.622  28.676  22.634  0.1006  0.1139  0.1241
17864W        W60855  19.449  11.812  28.083 -0.1245 -0.0838  0.1665
17865W        W60856  18.835  17.615  26.598  0.1756 -0.0070  0.2817
17866W        W60857  23.915  22.523   8.907  0.1777 -0.0378 -0.2200
17867W        W60858  27.812  26.552   5.138  0.1803  0.3103  0.3526
17868W        W60859  24.811  24.636   9.338  0.1522  0.0275 -0.0082
17869W        W60860   4.345  32.500   3.874  0.1254  0.1676 -0.0357
17870W        W60861  14.558  20.700   7.391 -0.2633 -0.1702 -0.1885
17871W        W60862  13.731  29.504   0.749  0.1024  0.2928 -0.0924
17872W        W60863  13.083  32.995   4.591  0.0401 -0.2533  0.0087
17873W        W60864  31.561  32.972  16.139 -0.2262 -0.1907 -0.1170
17874W        W60865  32.914   8.077   6.498  0.1152  0.0944 -0.0722
17875W        W60866  19.918   9.760  26.633  0.0534 -0.1052  0.1062
17876W        W60867  31.418  28.079   3.858  0.1632 -0.1180 -0.0234
17877W        W60868  14.167   4.538  10.389  0.0568 -0.1148  0.1702
17878W        W60869  25.522  22.627  28.634  0.1030  0.0138 -0.0118
17879W        W60870  11.445  33.409  15.532 -0.0317 -0.2072 -0.1274
17880W        W60871  30.072  27.330   3.880  0.1299  0.0907 -0.1568
17881W        W60872   6.209  17.451  26.014 -0.0192 -0.3195  0.4070
17882W        W60873  31.114  10.360  10.279  0.1811  0.4792  0.0592
17883W        W60874  17.846   6.120  25.762  0.1309 -0.1145  0.2131
17884W        W60875   8.523  30.663  24.495 -0.3414  0.0138  0.4532
17885W        W60876  18.914  25.728   3.872  0.1597 -0.0367 -0.1971
17886W        W60877  14.469  24.125  22.911  0.1731 -0.1497  0.2516
17887W        W60878  15.907  18.871  25.599 -0.0604  0.1985 -0.5179
17888W        W60879  30.228  31.578  23.192 -0.3010 -0.0094 -0.1070
17889W        W60880  18.024  24.139  15.227 -0.0051  0.0253  0.0646
17890W        W60881  31.148  24.049   0.725 -0.1618 -0.1594 -0.0255
17891W        W60882   9.988   2.567   4.036  0.0259 -0.3372 -0.1919
17892W        W60883  13.764  34.417  28.906  0.0971 -0.1104 -0.0934
17893W        W60884  27.023  13.548  10.372  0.0186  0.1871 -0.1308
17894W        W60885  10.326   0.692  10.072 -0.0454  0.1278  0.1338
17895W        W60886  16.513   7.779  23.741  0.1345 -0.1677 -0.0832
17896W        W60887  13.102  26.515  27.822  0.1897  0.1178 -0.1374
17897W        W60888  12.651  12.020   9.699  0.2362 -0.0187  0.1269
17898W        W60889  12.495   2.164   4.431 -0.1360  0.3647  0.0548
17899W        W60890  20.822  31.002   9.061 -0.2603 -0.1279 -0.0344
17900W        W60891   4.595  15.276  22.729 -0.2222 -0.2136  0.1577
17901W        W60892   6.309  21.550  18.692 -0.0197 -0.0876 -0.0842
17902W        W60893  14.913   2.812   9.181  0.2967 -0.1098 -0.0759
17903W        W60894   6.570  21.934  21.022 -0.0368  0.0787 -0.2418
17904W        W60895   8.324  25.423   3.693 -0.3879  0.0138 -0.0040
17905W        W60896  21.070   2.457   8.753 -0.0743  0.1553 -0.1022
17906W        W60897  28.695  31.630   8.371  0.2200 -0.0303 -0.1412
17907W        W60898  18.681  27.638   3.145  0.0908 -0.0089 -0.2093
17908W        W60899   3.742  22.936  21.238 -0.4044 -0.2114 -0.3271
17909W        W60900  24.585  32.193  22.137  0.3533  0.0641 -0.2261
17910W        W60901   7.398  18.591  11.000 -0.1146  0.0076  0.1817
17911W        W60902   3.435  24.335  25.922  0.2779 -0.1004 -0.0257
17912W        W60903  11.850  21.159   0.561  0.0123 -0.0783 -0.1623
17913W        W60904  23.081   4.005   9.062 -0.1844 -0.4432 -0.0352
17914W        W60905  28.091  21.898   1.951  0.0338  0.1430  0.0304
17915W        W60906  12.367  19.582  25.342 -0.2594 -0.2850  0.0563
17916W        W60907   3.048  20.439  23.582  0.0482 -0.3395 -0.0646
17917W        W60908   8.466   2.977   4.966  0.0488 -0.0841  0.0511
17918W        W60909  32.057  30.408  25.505 -0.4299  0.1045  0.2414
17919W        W60910  10.014  28.495   5.752  0.1975 -0.3203  0.2929
17920W        W60911  34.380  19.976   3.691  0.0762 -0.0357 -0.0326
17921W        W60912  24.254  19.135   3.566 -0.3476  0.1720  0.1321
17922W        W60913  26.627   2.968  25.429 -0.0900  0.6400  0.0578
17923W        W60914  10.774   2.924   7.415  0.1318 -0.1327 -0.1008
17924W        W60915  27.094  30.261   0.752 -0.0438  0.1011  0.2007
17925W        W60916  14.386  29.918  27.597  0.0550  0.2396  0.1946
17926W        W60917  20.866  18.706  29.030  0.2179 -0.0160 -0.1952
17927W        W60918  24.828   6.914   6.648 -0.0828  0.0246  0.3575
17928W        W60919  16.474  20.679  21.765  0.0805 -0.1837 -0.0078
17929W        W60920   2.438  34.234   0.117 -0.2653  0.1999  0.1426
17930W        W60921  14.249  23.545  18.539  0.2211  0.2600 -0.2241
17931W        W60922  22.140  29.043   8.114  0.2176  0.1173  0.2448
17932W        W60923  11.786  32.604   1.405 -0.0100  0.1558  0.1986
17933W        W60924  21.592  27.878   5.383  0.0075 -0.0853 -0.0953
17934W        W60925  26.239  27.769   1.287 -0.0189  0.1727  0.2051
17935W        W60926  15.437   8.970   8.031 -0.2501  0.1361  0.1327
17936W        W60927  33.114  19.642   4.261 -0.6814 -0.2061  0.1951
17937W        W60928  16.949   7.895  19.835 -0.2100 -0.1864  0.0859
17938W        W60929  14.915  27.170  26.142 -0.1779 -0.0123  0.2495
17939W        W60930  10.100  22.261  22.515 -0.0169 -0.2437  0.0886
17940W        W60931   3.886  12.057   7.483  0.0932 -0.1815  0.4561
17941W        W60932  29.513  30.943  24.668 -0.1992  0.1317 -0.0015
17942W        W60933  12.496  19.040  25.164  0.1729 -0.0198 -0.4116
17943W        W60934   3.227   9.003   7.048  0.0122  0.1227  0.4285
17944W        W60935  18.831   0.637   8.101  0.2643  0.0489 -0.2846
17945W        W60936  29.480  26.141   1.095  0.0015 -0.1261  0.0638
17946W        W60937   2.518  22.874   2.973  0.1048 -0.1201 -0.2644
17947W        W60938  31.423  33.514   0.214 -0.1827  0.0152 -0.0919
17948W        W60939   0.165  24.979   9.671 -0.5069  0.3838 -0.3562
17949W        W60940  14.201   3.804  27.074  0.0613 -0.0627 -0.1115
17950W        W60941  26.314  23.098   1.411 -0.0600 -0.1052  0.2528
17951W        W60942   4.195  22.726   5.153  0.0962  0.1606 -0.0283
17952W        W60943  26.211  29.121   1.917 -0.0374 -0.4051  0.2039
17953W        W60944  26.477   5.806   8.524  0.1206 -0.0042 -0.1834
17954W        W60945  16.014  32.953   3.134  0.0492  0.0560 -0.3106
17955W        W60946   6.725  23.439   9.761  0.0603 -0.2847 -0.1628
17956W        W60947  20.403  24.891   4.846 -0.1901  0.0284  0.5051
17957W        W60948   3.403  24.560   5.050  0.0528  0.1791 -0.0269
17958W        W60949  17.254   4.976   6.869  0.0158  0.2220 -0.1942
17959W        W60950   5.863  28.316   3.392  0.5171 -0.3874  0.5118
17960W        W60951  12.673  25.000   0.919  0.0042 -0.1192  0.1049
17961W        W60952  13.727  19.661   6.083  0.0151  0.0866  0.2244
17962W        W60953  12.097   8.562  23.290  0.1229 -0.0875 -0.3615
17963W        W60954  12.997   4.477  21.952 -0.1105 -0.2606  0.0249
17964W        W60955  21.729  10.916  27.815  0.0177  0.0135 -0.3086
17965W        W60956   5.657  10.972   8.726 -0.3596  0.0651 -0.0562
17966W        W60957  23.883  21.289   2.847 -0.0577 -0.0052  0.0979
17967W        W60958  27.070  33.153   5.232  0.2355 -0.1882  0.1506
17968W        W60959  23.002  11.090  23.696 -0.0325 -0.0335  0.4291
17969W        W60960  31.067  24.617   1.017 -0.0781 -0.0736  0.4613
17970W        W60961   7.281   6.987  19.080 -0.2327 -0.1117  0.1217
17971W        W60962   2.435  13.589   5.794  0.0405 -0.0782 -0.1781
17972W        W60963  20.799   6.643   3.009 -0.3388  0.1155 -0.1363
17973W        W60964  24.444  31.823   0.382 -0.4305 -0.1857  0.0582
17974W        W60965  31.300   2.626   6.351 -0.2640  0.0261 -0.0699
17975W        W60966   7.751  26.456   0.059 -0.1630 -0.0563 -0.1422
17976W        W60967  22.054   5.444  18.713 -0.3676  0.0676 -0.2029
17977W        W60968  25.866   9.224  24.491  0.3869  0.0052 -0.0688
17978W        W60969  28.864  34.534  29.022  0.3268  0.2498 -0.1169
17979W        W60970  11.789  32.310   3.148  0.0033 -0.0139 -0.2265
17980W        W60971  33.379  22.999   3.438 -0.1921  0.2081  0.0527
17981W        W60972  10.101  15.339   2.041 -0.0550 -0.1230 -0.0687
17982W        W60973  22.729  32.348   2.790  0.2911 -0.1403 -0.0482
17983W        W60974  15.992   5.101  23.155  0.0769  0.0950  0.1090
17984W        W60975   5.722  18.135  24.931  0.1949 -0.4256  0.0742
17985W        W60976   7.990  25.931   1.215 -0.2059  0.0981 -0.2482
17986W        W60977  29.875   5.047  20.978 -0.1236 -0.0452 -0.1708
17987W        W60978  12.108   8.143   7.927 -0.1017 -0.1136  0.0215
17988W        W60979   6.804  21.853   7.163 -0.0990 -0.1833  0.1044
17989W        W60980  16.771  21.154   8.900 -0.0949  0.3563 -0.1022
17990W        W60981  24.495  32.349  19.109  0.1528  0.0341  0.0241
17991W        W60982  32.824  21.798  14.612  0.1827 -0.1550  0.0787
17992W        W60983  24.814  34.483   5.872  0.1397  0.0558 -0.0714
17993W        W60984  10.548   8.940   9.167 -0.0823 -0.0254  0.1754
17994W        W60985   5.690  25.546   2.089  0.1930  0.1182 -0.2342
17995W        W60986   8.882  20.244  23.780 -0.0830  0.1165 -0.1208
17996W        W60987  14.945  29.594   1.957  0.0113 -0.1268  0.3122
17997W        W60988   3.536  23.846  24.894  0.4880 -0.0871 -0.0580
17998W        W60989  19.326  30.542   3.893 -0.3613 -0.1805 -0.1218
17999W        W60990  33.872  32.510   1.210 -0.0176  0.1094 -0.2241
18000W        W60991  18.599  25.797  28.984 -0.1161  0.2170 -0.0419
18001W        W60992   8.925  32.838   3.797 -0.2273  0.2533 -0.0402
18002W        W60993  19.428   1.419   6.231  0.3506  0.3264 -0.0030
18003W        W60994  27.518   5.433  27.184 -0.0600  0.0031 -0.0702
18004W        W60995   0.674  26.273   2.748 -0.1860 -0.0710  0.1836
18005W        W60996  17.548  29.346   5.530 -0.0434  0.1813 -0.1439
18006W        W60997   2.155  22.691   6.954  0.3168  0.1700  0.0927
18007W        W60998  31.648  26.880   0.006  0.1334  0.1096  0.0681
18008W        W60999   2.859  33.960  27.744 -0.2091  0.0368  0.0853
18009W        W61000  15.248  30.721  19.387  0.0824  0.1240  0.1942
18010W        W61001  15.794  27.491  16.620 -0.1531 -0.1215  0.2933
18011W        W61002  14.918   3.801   2.956  0.0778 -0.1021  0.1876
18012W        W61003  31.211  15.103   0.524 -0.0792 -0.1108 -0.2680
18013W        W61004   7.612  20.001  25.420  0.2904  0.2256  0.0347
18014W        W61005  12.722  15.600  26.804 -0.0671  0.1527  0.0718
18015W        W61006  25.825  34.014   3.946  0.1096  0.1418  0.0089
18016W        W61007   8.044   5.333   4.444  0.0149  0.0560  0.4042
18017W        W61008  15.590  27.054  28.843  0.0620  0.0483 -0.0297
18018W        W61009  28.047  18.520   6.716  0.0357  0.4344 -0.0880
18019W        W61010  28.775  28.932   0.912  0.0043  0.1110 -0.3447
18020W        W61011  21.365   0.734   9.193 -0.4131 -0.0207  0.1752
18021W        W61012  19.131   7.553   5.620 -0.3132 -0.0155  0.0134
18022W        W61013  10.813  17.387  23.471  0.0433  0.1923  0.1744
18023W        W61014  17.218  22.779  24.102 -0.1577 -0.0297 -0.1039
18024W        W61015  11.836  16.209   6.015  0.0092 -0.0954  0.1745
18025W        W61016   5.824  32.368   0.655 -0.1705  0.0413  0.2204
18026W        W61017   7.378  34.338  24.096 -0.1512 -0.0492  0.3243
18027W        W61018  16.508   8.358  28.362  0.1804  0.0135  0.1290
18028W        W61019  18.754  29.688   4.661 -0.0902  0.1137  0.1004
18029W        W61020  27.634  29.367   4.874  0.1801  0.1977 -0.3619
18030W        W61021  32.063  32.895   7.393 -0.0918  0.4370  0.2257
18031W        W61022  13.178   0.293  19.367 -0.0278  0.0583  0.2349
18032W        W61023  29.401  32.969   4.929  0.0098 -0.1540  0.0453
18033W        W61024   5.820   2.228   1.507  0.1283 -0.2452  0.1210
18034W        W61025  20.588  12.339   5.998 -0.0225  0.2769  0.2013
18035W        W61026  17.343   7.429  25.788 -0.4171 -0.5041 -0.0361
18036W        W61027   9.282  21.488   5.728 -0.1913 -0.3612  0.2866
18037W        W61028  17.986  30.297   9.102  0.2634 -0.0648 -0.1692
18038W        W61029  21.682  25.035   8.689 -0.1732 -0.4665  0.3098
18039W        W61030  19.552  30.461   8.692  0.2391  0.1218  0.1748
18040W        W61031  33.480  18.450  10.060 -0.1820 -0.1938  0.2519
18041W        W61032  20.709  18.309  23.512  0.1665 -0.1661  0.1038
18042W        W61033  22.048  28.500  15.242  0.1133 -0.2301  0.2398
18043W        W61034  25.231  28.204   5.645 -0.0688  0.2443 -0.0197
18044W        W61035  34.498   5.746  28.700  0.0974 -0.4473  0.1135
18045W        W61036  16.126  28.188   4.968  0.2112 -0.3741 -0.4187
18046W        W61037  17.122  21.428   1.304 -0.1773 -0.0635  0.0209
18047W        W61038  27.344   7.039   2.068 -0.1935  0.0497 -0.2050
18048W        W61039  11.884  34.657  28.305 -0.1558 -0.0377  0.0376
18049W        W61040  24.222  25.357   2.691 -0.0237 -0.2490  0.0371
18050W        W61041   4.161  23.953  22.344  0.2124 -0.1084 -0.4186
18051W        W61042  17.898  19.880   8.196  0.0611  0.2477  0.1641
18052W        W61043  17.081   2.789  28.946  0.0513 -0.1296 -0.1856
18053W        W61044  22.083  20.478  26.153 -0.2269 -0.3512  0.0941
18054W        W61045  27.596   0.484  25.980  0.0822 -0.1317  0.3562
18055W        W61046  11.015  26.612   4.571 -0.0563 -0.0859 -0.2131
18056W        W61047  14.685  16.005  26.048 -0.0741  0.2559 -0.0051
18057W        W61048  30.757   0.548   8.529  0.1630 -0.0567 -0.1252
18058W        W61049  22.663  14.126  27.305 -0.2582  0.1311 -0.0039
18059W        W61050  15.815  19.836  28.283  0.0708 -0.0294  0.4271
18060W        W61051  15.620   7.933   5.052  0.3687  0.0088 -0.1915
18061W        W61052   6.113  22.345  18.938  0.1076 -0.1575  0.0133
18062W        W61053  11.246  32.473  28.825  0.0135  0.1799 -0.0642
18063W        W61054  26.586  30.067   6.475  0.0722 -0.1118 -0.2044
18064W        W61055  29.603  10.746   0.259 -0.0818 -0.0293  0.0511
18065W        W61056  20.260  19.435   3.872 -0.0803 -0.3880  0.0263
18066W        W61057  29.509  15.675   2.486 -0.0831 -0.1962  0.2393
18067W        W61058  23.924  25.280  15.253  0.1447  0.0084  0.1100
18068W        W61059   6.872   5.959   0.620  0.2022 -0.0647 -0.1795
18069W        W61060  11.012  34.269   6.585  0.0520 -0.1017  0.2619
18070W        W61061  10.189  33.467   8.006  0.3275  0.1569  0.1602
18071W        W61062   0.100  32.035  27.977  0.0564 -0.0379 -0.0434
18072W        W61063  16.068  32.397  20.235  0.0910 -0.1882  0.0528
18073W        W61064   7.043  22.420  26.170  0.0370 -0.2633 -0.2985
18074W        W61065  12.710  27.274  15.361 -0.1047  0.2420  0.0787
18075W        W61066  14.458  17.026  17.178 -0.0647 -0.0045  0.2117
18076W        W61067  12.172  30.180   4.901  0.0597  0.2219 -0.0789
18077W        W61068   0.657  30.259   0.226  0.1049  0.4084  0.3577
18078W        W61069  21.688  28.247   7.083 -0.1499  0.0239  0.0068
18079W        W61070  34.410  22.326   9.135 -0.0458 -0.4399 -0.0639
18080W        W61071  27.585  16.495  27.951 -0.0782 -0.1523  0.1889
18081W        W61072  31.545   1.223   5.193 -0.3634  0.2685  0.3891
18082W        W61073  13.688  26.282   0.828 -0.1004  0.2754 -0.2118
18083W        W61074  14.419  26.617  27.610 -0.0754  0.0615  0.1234
18084W        W61075  26.420  14.930   3.847  0.1817  0.2822  0.1890
18085W        W61076  14.265   3.688  28.987  0.3261 -0.1002  0.4103
18086W        W61077  27.526  32.687   4.679  0.3282  0.1060  0.1091
18087W        W61078  24.837  21.518   1.599  0.2633 -0.3113 -0.0952
18088W        W61079  28.208  27.945   5.462 -0.0595 -0.4408  0.2666
18089W        W61080  32.977   0.679   6.941 -0.0520 -0.2169  0.1036
18090W        W61081  16.856   7.531   4.263  0.1317 -0.2907 -0.1622
18091W        W61082   1.361  25.300   6.050  0.1237 -0.0284  0.0561
18092W        W61083  22.936  13.380   7.956  0.1371  0.0385  0.0000
18093W        W61084  16.560  26.766   6.685 -0.1636 -0.0387  0.1587
18094W        W61085  19.045   0.750   6.929 -0.0100  0.2819  0.0271
18095W        W61086   8.361  22.536  19.491  0.2166  0.0199 -0.1958
18096W        W61087  15.991  17.690   3.360 -0.0219 -0.0725  0.0364
18097W        W61088  23.864  16.983   5.094 -0.2415 -0.4608 -0.0116
18098W        W61089   0.211   9.827   1.073  0.0469 -0.2524  0.4200
18099W        W61090  16.970   1.460  26.351 -0.1584 -0.1737 -0.1099
18100W        W61091   2.009  22.953  25.338  0.2698  0.1196 -0.0851
18101W        W61092   7.356  22.925   6.037 -0.0331 -0.2699  0.1516
18102W        W61093   3.068  27.091   6.085 -0.1886 -0.1090 -0.1468
18103W        W61094   2.668  30.360   8.438 -0.1789  0.4200  0.5409
18104W        W61095  32.422  28.568   9.368 -0.1660  0.0965  0.2739
18105W        W61096   4.834  33.496  19.124 -0.0494  0.1342 -0.1779
18106W        W61097  12.885  17.253   4.189  0.0676  0.0069  0.2914
18107W        W61098  19.900   5.003  21.311 -0.1062  0.0056 -0.1352
18108W        W61099   3.680  25.265  24.599 -0.2818 -0.2341  0.0367
18109W        W61100  24.698  10.341  27.982 -0.0527  0.0551 -0.1783
18110W        W61101  10.632  21.965   1.119 -0.0287 -0.1195  0.0023
18111W        W61102  26.377   2.117   2.796  0.3055 -0.0962  0.0162
18112W        W61103  13.970   9.574   2.595  0.3271 -0.2532 -0.0427
18113W        W61104  21.421  28.231   8.884 -0.0786  0.0930 -0.0084
18114W        W61105  10.293   6.319   6.838 -0.0258 -0.1679  0.2094
18115W        W61106  31.437  21.107  21.019 -0.1447 -0.1649 -0.1946
18116W        W61107   9.352   2.181  28.425 -0.1449  0.0942  0.2762
18117W        W61108  13.909  33.831  20.078  0.1097  0.1228 -0.1182
18118W        W61109  27.343  25.984   8.450  0.1586  0.2108  0.0214
18119W        W61110  26.657   6.583   8.204  0.0986 -0.0166  0.1072
18120W        W61111  23.670   8.917  28.807  0.2700 -0.0883 -0.2326
18121W        W61112  32.506  24.799  24.420  0.6491  0.0914 -0.2514
18122W        W61113   0.805  17.714   4.973 -0.0715 -0.1845  0.2180
18123W        W61114  15.971  33.245   5.695  0.0753 -0.0827 -0.1300
18124W        W61115   7.058  23.164  10.556  0.2408  0.0059  0.2021
18125W        W61116  13.376  29.613   4.352 -0.0720  0.0542  0.4489
18126W        W61117  13.056   1.448   9.035  0.1407  0.1716 -0.1149
18127W        W61118  20.286   6.465   7.816  0.0023 -0.3832  0.0037
18128W        W61119  22.039   1.602  24.728 -0.1443 -0.1910  0.0893
18129W        W61120  34.060  19.789  22.352 -0.1645 -0.1961  0.0353
18130W        W61121  19.314  10.608   9.085 -0.1540 -0.0197 -0.0780
18131W        W61122  31.915  19.688   3.343  0.2609  0.3430 -0.0480
18132W        W61123   6.323  28.096   9.610  0.0305  0.0345  0.1014
18133W        W61124  24.606  25.591   8.138  0.0700  0.0073 -0.1449
18134W        W61125  28.757  30.142   7.564 -0.1630 -0.1243  0.2707
18135W        W61126  26.194   0.547   6.360  0.1225  0.1017  0.2338
18136W        W61127  17.794  24.538   3.129 -0.0692  0.3287 -0.0513
18137W        W61128  10.805  32.560   5.810 -0.0360 -0.1003  0.1056
18138W        W61129  14.308  18.968   0.113 -0.0336 -0.0207 -0.0199
18139W        W61130  22.003  20.140   6.866  0.3365  0.0629  0.2291
18140W        W61131  17.134  31.490   3.468 -0.0646 -0.0317 -0.1105
18141W        W61132   3.390  33.505  26.533  0.0930 -0.0526 -0.0407
18142W        W61133  17.259  18.865   1.586  0.3399 -0.0469  0.2973
18143W        W61134  15.140   5.322   7.985 -0.1652  0.2709  0.1700
18144W        W61135  11.874  32.510   7.651 -0.0139  0.2487 -0.0209
18145W        W61136  17.300  30.769  19.152  0.0083  0.2212  0.3851
18146W        W61137   3.831   5.783   9.705 -0.2067  0.1323 -0.1023
18147W        W61138  23.363  13.732   8.799 -0.0860 -0.0128 -0.0008
18148W        W61139  20.914  14.457   2.966  0.0006 -0.0250  0.3732
18149W        W61140  34.545  32.737   3.473 -0.0703 -0.2904 -0.0044
18150W        W61141  34.786  19.586   2.579  0.2049 -0.0239  0.2227
18151W        W61142  10.657  17.112  26.379  0.0888 -0.2224 -0.0711
18152W        W61143   2.702  29.337   2.703  0.1925  0.1520  0.3539
18153W        W61144  16.366   1.227   9.642  0.0052  0.1559  0.0469
18154W        W61145  22.801  28.342   7.774  0.0350 -0.2218  0.2520
18155W        W61146  20.394  30.520  15.068 -0.0988  0.0990 -0.4957
18156W        W61147  26.195  25.855   5.280  0.0801 -0.0562 -0.2464
18157W        W61148   0.813  12.715  29.186 -0.0225 -0.3013 -0.1474
18158W        W61149  14.371  24.752   8.868  0.2508 -0.1759 -0.3163
18159W        W61150  14.165  27.358   5.688  0.0811 -0.2739  0.0684
18160W        W61151  12.080  23.795   1.307 -0.0841 -0.0090 -0.2068
18161W        W61152  13.499  15.153   9.333  0.2354  0.0034  0.3126
18162W        W61153  22.915  22.747  20.984  0.3226  0.1369  0.4217
18163W        W61154  18.048  28.508   8.490  0.1711 -0.1631  0.0196
18164W        W61155  15.388  11.815  25.049  0.0758 -0.2749 -0.1652
18165W        W61156  22.290  32.156   5.195 -0.1099 -0.0837 -0.2722
18166W        W61157  14.914  28.342  28.835  0.1898  0.1059  0.1515
18167W        W61158  25.678   5.012   4.109 -0.1423  0.3967  0.4672
18168W        W61159  16.163   6.504  10.293  0.1450  0.1037 -0.1751
18169W        W61160  16.007   2.717   6.696 -0.1553 -0.2626 -0.2734
18170W        W61161  15.853   5.711   2.352  0.0327 -0.3176  0.2063
18171W        W61162  18.021  24.363   2.048  0.0923  0.2176 -0.3985
18172W        W61163  14.772  34.411   2.409  0.2934  0.0786 -0.0891
18173W        W61164   3.044  27.203   6.768  0.0437  0.0927 -0.1915
18174W        W61165  23.593  15.952  24.676 -0.0712  0.2709 -0.2757
18175W        W61166  17.669  24.822   8.590  0.0269 -0.0086 -0.3042
18176W        W61167  29.636  27.463   0.026 -0.1915 -0.2258  0.0742
18177W        W61168  25.784  29.000   0.145  0.0632  0.0423 -0.0076
18178W        W61169  21.623  28.110  27.682  0.0832 -0.3403 -0.0526
18179W        W61170  15.963   4.032  26.762 -0.0676  0.1490  0.0780
18180W        W61171   4.451   1.388  28.288  0.1401 -0.2989  0.1879
18181W        W61172   3.054   8.684   1.541  0.2504  0.0517  0.0817
18182W        W61173  11.262  25.320   7.867 -0.1996  0.2443 -0.1481
18183W        W61174  15.818  21.592   3.767 -0.1019 -0.1144 -0.0721
18184W        W61175  28.310   0.760  28.653 -0.1175  0.1054 -0.1577
18185W        W61176  23.861   5.602   8.184  0.0165  0.1794 -0.0134
18186W        W61177  23.085  32.351   8.082  0.1806  0.0538 -0.1563
18187W        W61178  22.268  22.446   7.148 -0.0356 -0.1543  0.0072
18188W        W61179  28.039   2.904   6.497 -0.1318 -0.0193 -0.1966
18189W        W61180  16.354   5.797   1.036  0.0192 -0.1274 -0.1882
18190W        W61181  17.740  30.898   5.930 -0.0049 -0.1423 -0.0057
18191W        W61182  21.023   7.442   7.831 -0.0242 -0.3177  0.0537
18192W        W61183   2.317  31.795   0.779  0.1829  0.2676  0.2779
18193W        W61184   5.268   4.206   9.501 -0.1181 -0.0176 -0.2842
18194W        W61185   9.825  24.207   3.585 -0.0846  0.0165 -0.0526
18195W        W61186   0.564  31.780   5.499  0.4571 -0.0174 -0.0308
18196W        W61187   9.947  15.199   7.080 -0.0077 -0.1349  0.0226
18197W        W61188  15.530   0.902   9.640 -0.0453  0.1751  0.1539
18198W        W61189  10.597  20.773  26.595  0.2156 -0.0768  0.0831
18199W        W61190  19.518  20.960   0.128 -0.0938 -0.2389 -0.1101
18200W        W61191  20.684  15.461  25.351  0.3588  0.2208  0.0275
18201W        W61192   6.655  25.919   4.988  0.0609  0.2080  0.1288
18202W        W61193  22.564   3.680   5.945 -0.0551  0.0708 -0.2377
18203W        W61194  31.691  14.800  11.414 -0.0159 -0.3167 -0.1775
18204W        W61195  22.419  22.745   6.776 -0.0349 -0.0770  0.0186
18205W        W61196   1.319  21.915   3.787  0.2759 -0.0716 -0.1386
18206W        W61197  23.626  24.603   3.860  0.0391  0.2526  0.1035
18207W        W61198  17.326   4.483  23.850  0.2558  0.0563  0.1697
18208W        W61199  13.504  13.899   3.450  0.3216  0.2469  0.1250
18209W        W61200  12.965  16.746   7.837 -0.0145 -0.2452  0.0648
18210W        W61201   7.167  19.286  10.920 -0.0271  0.1042 -0.0332
18211W        W61202  20.780  29.485   8.706  0.0346 -0.1678 -0.0565
18212W        W61203   0.635  30.809  21.557  0.0315 -0.2119  0.0524
18213W        W61204  26.126   4.274  27.096 -0.0256 -0.0226 -0.2295
18214W        W61205  30.375   0.930   6.764  0.0881 -0.1520 -0.0485
18215W        W61206  22.867   9.827  15.650 -0.3321  0.1408  0.1698
18216W        W61207  18.084  10.669   9.793 -0.2440  0.1296 -0.0900
18217W        W61208  16.228  25.204  16.465  0.1192 -0.1413  0.2935
18218W        W61209  21.520  24.236  28.484  0.1758  0.1757  0.0510
18219W        W61210  24.135  26.874  27.257  0.1711 -0.0104  0.1060
18220W        W61211   8.299  23.049   5.010  0.0509  0.2775  0.3589
18221W        W61212   6.074   3.546   7.855 -0.0709 -0.0142 -0.1719
18222W        W61213  12.114   3.098  10.160  0.0156 -0.0166 -0.0501
18223W        W61214  18.610  34.446   7.275  0.0800  0.2000 -0.0167
18224W        W61215  21.517  13.765   3.977  0.1535 -0.0289 -0.0878
18225W        W61216  18.480  32.188   3.198 -0.0143  0.0233 -0.3879
18226W        W61217   6.515  10.636  26.763  0.1418 -0.1120  0.2242
18227W        W61218  29.187  12.330   0.692  0.1566 -0.0644 -0.1495
18228W        W61219  19.509   0.579   7.064 -0.2597 -0.3852 -0.2199
18229W        W61220  22.364   9.605   6.763  0.0853 -0.1518 -0.1047
18230W        W61221   8.221  22.806   4.170 -0.1209  0.3525 -0.1416
18231W        W61222  19.277  28.232   8.957  0.2459 -0.1271  0.1621
18232W        W61223   4.172  24.974   0.077 -0.1166 -0.2698  0.0435
18233W        W61224  12.892  21.616  27.922 -0.0604  0.1771  0.2370
18234W        W61225  33.328  12.739   0.001  0.6513  0.1045 -0.2607
18235W        W61226   0.204  17.649  28.835 -0.1875  0.1459 -0.0205
18236W        W61227   8.767  23.657   3.152  0.1499 -0.0125  0.3094
18237W        W61228  17.635  16.695  27.658 -0.0625 -0.1410 -0.2852
18238W        W61229  25.031  12.970   8.893 -0.2082  0.2548  0.1156
18239W        W61230  32.846  29.763  28.337 -0.2551 -0.0849  0.2416
18240W        W61231  22.147  26.654  23.859 -0.1406 -0.0387  0.0467
18241W        W61232  26.215  21.257   3.346  0.2115  0.3074 -0.1584
18242W        W61233  33.054   0.132   8.240  0.1606 -0.0812  0.1550
18243W        W61234   7.730  29.470   1.425 -0.0845 -0.2495 -0.1872
18244W        W61235  15.562  28.976   6.701  0.4251  0.1572 -0.0941
18245W        W61236  18.602  24.661   5.282  0.1099 -0.1983  0.2873
18246W        W61237  29.626  26.637   6.574 -0.5615  0.0953  0.0872
18247W        W61238  32.419  20.409  28.829  0.1288 -0.2449  0.1030
18248W        W61239  15.441  34.032   8.827 -0.1015 -0.0658 -0.0152
18249W        W61240  27.895   0.497   6.842  0.3520  0.1311 -0.0931
18250W        W61241  28.811  28.788  28.471  0.3112 -0.1238 -0.0345
18251W        W61242  13.462  24.424   5.252  0.0280 -0.2292 -0.0515
18252W        W61243  11.907  23.904  19.379  0.1352 -0.0788 -0.3143
18253W        W61244  21.903   1.451  25.211 -0.5931 -0.1334  0.0675
18254W        W61245   0.430  25.979   5.605  0.0792  0.0894 -0.2008
18255W        W61246  23.260   9.011   2.552  0.2029 -0.2018  0.4544
18256W        W61247   2.810   1.756  27.849 -0.2789  0.0684  0.1024
18257W        W61248  29.153  22.495  25.185  0.3727 -0.1256 -0.1356
18258W        W61249  19.218  23.293  24.945 -0.3040 -0.1260 -0.1500
18259W        W61250  30.642  33.194   2.901 -0.3519 -0.3644  0.3583
18260W        W61251  12.490  21.853   8.359 -0.0032 -0.1499  0.1263
18261W        W61252  24.196   5.492   8.626 -0.1527  0.1688  0.0780
18262W        W61253  28.169   2.342   6.858 -0.1121  0.0930  0.2967
18263W        W61254   2.196   0.737   4.700 -0.2154  0.1703  0.1408
18264W        W61255  21.044   4.518   8.969 -0.0055  0.1368 -0.2552
18265W        W61256  15.673  18.705  28.967 -0.0937  0.1650 -0.1472
18266W        W61257   2.232  22.409   4.123 -0.0002  0.1069 -0.2903
18267W        W61258  17.045   3.079   2.162  0.1361  0.2035 -0.3174
18268W        W61259  19.142  32.934  26.447 -0.0334 -0.0750 -0.2137
18269W        W61260   7.255  27.990  27.573 -0.0491 -0.0668  0.0876
18270W        W61261  10.287  32.624   2.440  0.1835 -0.1225  0.1778
18271W        W61262  21.986  34.131   6.581 -0.0760 -0.1612  0.0006
18272W        W61263  13.535   5.914   5.683 -0.0666  0.0823 -0.1793
18273W        W61264   0.251  31.577  25.202  0.0547  0.1815  0.2765
18274W        W61265  24.583  33.500   4.901 -0.2037 -0.5444 -0.0061
18275W        W61266  28.275   1.397  19.346 -0.0527 -0.1736  0.0533
18276W        W61267  26.957  10.589   8.153 -0.3388 -0.0648 -0.1737
18277W        W61268  24.331   5.500  28.167  0.1682 -0.3021  0.2853
18278W        W61269  14.606  33.972   7.999  0.1857  0.1282  0.2730
18279W        W61270  30.057  24.438  15.482  0.0414  0.2975 -0.0008
18280W        W61271  28.614   1.602  22.015  0.0822 -0.1066  0.0524
18281W        W61272  13.969   5.571   4.592  0.0296  0.2236  0.0270
18282W        W61273   7.397  30.273  24.508  0.0413  0.2874  0.3407
18283W        W61274  27.850   6.914  29.109  0.0705  0.1962 -0.1566
18284W        W61275   9.453   4.754   4.243 -0.1832 -0.0952  0.3964
18285W        W61276  11.939   4.146  17.059  0.0566  0.3323  0.1191
18286W        W61277  24.287   3.768  14.688 -0.2711 -0.0242 -0.2097
18287W        W61278   8.465  28.587   4.868 -0.0766 -0.2705 -0.1160
18288W        W61279  10.218   0.363   9.376 -0.1066 -0.0094  0.2288
18289W        W61280  23.948   7.701  27.818  0.0222 -0.0323 -0.0395
18290W        W61281   0.180  10.443  27.910  0.2079  0.0639  0.2571
18291W        W61282  29.145  26.721  22.845  0.0300 -0.0423  0.2976
18292W        W61283  28.033  33.023   2.940 -0.0915  0.1151  0.1231
18293W        W61284  22.129  33.279   4.872 -0.2584 -0.2218 -0.1053
18294W        W61285  24.074  12.733   7.566 -0.0573  0.2619  0.0837
18295W        W61286  15.530  25.034   0.691  0.0944 -0.2348  0.0788
18296W        W61287  16.130   4.446   9.872 -0.1785  0.2864  0.2629
18297W        W61288  22.989   9.439   6.254  0.1329  0.0506 -0.1745
18298W        W61289  21.266  17.966   7.220  0.0450  0.0665 -0.0063
18299W        W61290  18.883  34.121   5.020  0.1607  0.5080  0.0123
18300W        W61291  23.369  20.948   9.539 -0.0163  0.0502  0.4659
18301W        W61292  33.747  34.144   0.315  0.2601  0.1303 -0.1359
18302W        W61293  33.163  16.243   6.955  0.2012  0.0699  0.0596
18303W        W61294  17.271  20.022   4.410 -0.0321 -0.0596 -0.2402
18304W        W61295  21.311  22.963   5.723  0.0258 -0.0599 -0.4514
18305W        W61296  20.558   9.113  27.323  0.0606  0.0035  0.3259
18306W        W61297  34.154  21.506   5.664 -0.4329 -0.0847 -0.1256
18307W        W61298  14.635  20.309   3.989  0.2522  0.0625  0.0132
18308W        W61299   9.828  18.528   9.042  0.2175  0.0637 -0.0744
18309W        W61300  13.233   3.099  27.813  0.3418  0.0892  0.1260
18310W        W61301  16.660  26.819   7.198 -0.0797  0.0978  0.1160
18311W        W61302  30.735   7.129   5.305 -0.3026 -0.1459 -0.0180
18312W        W61303  28.111   6.342   1.053  0.4296 -0.2819  0.2771
18313W        W61304  27.653  22.512   5.834 -0.0216 -0.3948  0.2195
18314W        W61305  20.800  26.043   7.861  0.0085 -0.2561  0.0241
18315W        W61306  28.927  34.042   7.128  0.0795 -0.4317  0.0745
18316W        W61307  30.667  17.186   7.599 -0.1672  0.0503 -0.3894
18317W        W61308  21.956  25.379   8.547  0.3131 -0.2938 -0.2222
18318W        W61309  34.118  26.732   1.087 -0.2300  0.2986 -0.0342
18319W        W61310  25.432  13.731  25.371 -0.0944 -0.3471  0.1866
18320W        W61311  17.025   0.692   5.930 -0.2934 -0.1713  0.0867
18321W        W61312  27.849  22.231   3.986  0.0057  0.3246 -0.0511
18322W        W61313  19.724  22.757   1.863  0.0888 -0.0927  0.0908
18323W        W61314  33.077  28.952  28.043  0.0675  0.1337 -0.0211
18324W        W61315  27.187  19.544  27.448  0.1094 -0.0027 -0.1081
18325W        W61316  21.632   8.207   7.752 -0.2355 -0.0328  0.1121
18326W        W61317  19.824  14.022   6.616  0.2087  0.2541 -0.1803
18327W        W61318  13.238  26.166   7.954  0.3779  0.2384 -0.0457
18328W        W61319  22.389  22.035   3.509 -0.0908 -0.0699  0.0876
18329W        W61320  25.563  11.548   4.956 -0.1685  0.2382 -0.2233
18330W        W61321  22.202  24.096  28.148 -0.0732 -0.2482 -0.0971
18331W        W61322  24.263  32.299   6.097 -0.2323  0.0390  0.3850
18332W        W61323  27.522  24.064   4.284 -0.3797  0.0196 -0.1884
18333W        W61324  11.778  32.371   8.145 -0.1376 -0.0422 -0.0785
18334W        W61325  24.030  32.909   8.259  0.1966 -0.1283  0.1194
18335W        W61326  26.195   0.024  24.391 -0.0724 -0.4026  0.0975
18336W        W61327  26.834  10.838   3.412 -0.0746 -0.1019  0.0167
18337W        W61328  10.512   9.257  23.593  0.1540 -0.1310  0.0534
18338W        W61329   8.099   3.204   6.371 -0.0581  0.1193  0.0489
18339W        W61330  15.713   9.226   2.362  0.3442  0.1520  0.0929
18340W        W61331   5.751  11.770   2.009 -0.0545  0.4113  0.1921
18341W        W61332  14.833  29.523   7.144 -0.1770  0.1092 -0.0961
18342W        W61333  23.117  20.531   6.256 -0.3200  0.2407  0.1236
18343W        W61334   4.892  29.397   3.590 -0.2990 -0.3132 -0.0711
18344W        W61335  19.192  19.710  22.763  0.1234  0.0887  0.1667
18345W        W61336  17.165  32.288  28.012 -0.0904 -0.0349 -0.1626
18346W        W61337  10.189   0.675  10.589  0.2815  0.2785 -0.1433
18347W        W61338  15.682  20.655  23.885 -0.2473  0.1411 -0.1968
18348W        W61339  25.857  31.440  26.343 -0.1844 -0.0790 -0.2108
18349W        W61340  11.713  19.032   4.658 -0.1767  0.1272 -0.1497
18350W        W61341  11.254  25.585  18.446  0.1731 -0.3001  0.0982
18351W        W61342  19.713  25.042   5.477 -0.0499  0.0514  0.1727
18352W        W61343  16.378  25.797   6.601 -0.0483 -0.1851 -0.2554
18353W        W61344  14.696  24.518  27.075 -0.3389 -0.2139 -0.0415
18354W        W61345  31.224  13.742  27.683  0.0618  0.0606  0.0969
18355W        W61346  15.668  13.138   9.110 -0.2716 -0.0094 -0.3353
18356W        W61347  25.547  15.588   9.090 -0.0285  0.0342 -0.3191
18357W        W61348  26.760  17.907  24.480  0.3034 -0.3890  0.1345
18358W        W61349  11.783  19.200   8.417 -0.0716  0.3716  0.1963
18359W        W61350  18.592  30.767   2.767  0.1333  0.2887 -0.0552
18360W        W61351  14.476  23.338  27.458  0.0101  0.1401  0.3552
18361W        W61352  19.317   0.948   8.328  0.0877  0.1308 -0.1311
18362W        W61353   2.688  21.771   1.675 -0.0764 -0.2681 -0.4277
18363W        W61354  28.153   0.689  21.798 -0.1102 -0.1006  0.0965
18364W        W61355  22.283  24.035   5.329 -0.0566  0.1142  0.2421
18365W        W61356   5.049  19.576   6.056 -0.1576 -0.0809 -0.1042
18366W        W61357  18.638  27.301   3.952 -0.2566  0.0268 -0.1461
18367W        W61358  15.105  32.423  10.406  0.2480  0.1008 -0.0154
18368W        W61359   7.618  25.974   6.313  0.1731 -0.1507  0.2817
18369W        W61360  32.529  28.338   3.809 -0.0038  0.1282  0.0867
18370W        W61361  12.023  32.789   3.524  0.0325  0.3144 -0.2377
18371W        W61362  21.795   1.961  16.585 -0.0557  0.0660 -0.0729
18372W        W61363  17.920  24.562   1.543  0.1044  0.3499  0.3650
18373W        W61364  21.308   6.264   8.148 -0.2007 -0.2966  0.1388
18374W        W61365   5.830  30.233   9.927 -0.0335 -0.4569 -0.0550
18375W        W61366  17.009  26.606   8.326 -0.0964  0.1434 -0.0995
18376W        W61367  15.432  16.873   2.570 -0.1925 -0.3443  0.1928
18377W        W61368  18.649   0.975   3.003 -0.0538 -0.0954 -0.1877
18378W        W61369  17.210  29.098  19.876 -0.0493  0.2690 -0.3882
18379W        W61370  17.524  27.422  21.712 -0.2285 -0.1969 -0.2077
18380W        W61371  17.373  21.679  23.270  0.0023  0.0815 -0.0961
18381W        W61372  21.721  25.338   1.473 -0.3282  0.0296  0.0567
18382W        W61373  34.278  11.360   9.564 -0.5030 -0.0236  0.4480
18383W        W61374  18.057  30.784   9.674  0.0972  0.0315  0.0630
18384W        W61375  10.980  22.942   6.254 -0.1436 -0.0467  0.3027
18385W        W61376   0.606  32.034   2.330  0.1829 -0.2002  0.0535
18386W        W61377  10.914  26.645   9.680 -0.2306 -0.0630 -0.1151
18387W        W61378  29.321  11.294   8.949  0.1509 -0.0614 -0.2014
18388W        W61379  18.091  20.011   5.733 -0.0336 -0.1419  0.0065
18389W        W61380  14.065  24.950  26.541  0.0752 -0.1135 -0.2350
18390W        W61381  16.262  26.054  15.988  0.0363  0.3590 -0.0149
18391W        W61382  14.099  32.125   5.693  0.0732 -0.1930  0.2744
18392W        W61383  32.630  18.190  23.699  0.5200  0.1595  0.1916
18393W        W61384   3.684  33.492  20.994  0.2325 -0.0710 -0.1298
18394W        W61385  11.965  15.669   6.509 -0.0389  0.0122 -0.0131
18395W        W61386  26.562  26.586   5.152  0.1866 -0.1012 -0.0162
18396W        W61387   2.843  19.146  22.688 -0.0028 -0.0180 -0.0408
18397W        W61388  15.845  18.690   0.187  0.1959 -0.0742  0.3850
18398W        W61389  17.123   8.117   7.902  0.0021  0.2753 -0.2951
18399W        W61390  29.296   4.466   1.481 -0.3572 -0.4670 -0.2866
18400W        W61391  18.290  27.397  27.925 -0.0155 -0.0486  0.0203
18401W        W61392  24.725  32.650   3.710 -0.0216  0.0093 -0.0852
18402W        W61393  11.166  14.566   8.723  0.1099 -0.1886 -0.0158
18403W        W61394   9.079  24.208  27.647 -0.4913 -0.1393 -0.2204
18404W        W61395   4.433  29.966   5.806  0.3181 -0.0499  0.1567
18405W        W61396  30.538  22.435   2.741  0.0419  0.0719 -0.1099
18406W        W61397  24.894  30.019   2.315  0.0758 -0.1170  0.3345
18407W        W61398  21.972  33.126   3.813  0.0229 -0.1607 -0.0259
18408W        W61399  21.487  14.806   6.157 -0.4748  0.1271 -0.0923
18409W        W61400  13.314  25.979   5.258 -0.0380  0.1525  0.0089
18410W        W61401   3.379  16.715  10.986  0.1188  0.0094 -0.2546
18411W        W61402   5.913   3.458   3.261 -0.1134 -0.1636 -0.2325
18412W        W61403  19.741   1.163  23.610  0.2421 -0.0478 -0.3224
18413W        W61404   8.800  26.868   9.088  0.0140  0.0393 -0.0958
18414W        W61405  12.835  19.560  28.308 -0.1248  0.1626 -0.0090
18415W        W61406   0.103   5.818  16.775  0.0020 -0.0184  0.1736
18416W        W61407  23.108  14.185   5.671 -0.1225 -0.0932 -0.0340
18417W        W61408  23.176  28.623  26.892  0.0748 -0.0460 -0.1094
18418W        W61409   2.032  34.098   6.654 -0.4916  0.0904  0.2495
18419W        W61410  33.848  17.411   8.070  0.1528 -0.0121 -0.1140
18420W        W61411  22.015  33.943   6.129 -0.0438 -0.0257  0.0586
18421W        W61412  34.439  29.585   1.269  0.1891  0.3107  0.1781
18422W        W61413  26.204   9.226   2.026  0.1541 -0.4262 -0.4627
18423W        W61414  30.757  27.970  16.225  0.1510  0.0516 -0.0999
18424W        W61415  26.504  27.675   2.887  0.0027 -0.0276 -0.1229
18425W        W61416  14.895  26.711  27.035  0.1473 -0.1737 -0.0455
18426W        W61417  29.957  27.088  29.129 -0.2222 -0.1931  0.0288
18427W        W61418  25.540  17.343   7.493 -0.1067  0.2663 -0.1602
18428W        W61419  17.299   9.790  24.381 -0.1998  0.0090 -0.1845
18429W        W61420  22.994  31.840   0.820 -0.0905 -0.2863  0.1588
18430W        W61421  28.107  27.233   1.860 -0.1875 -0.4254 -0.0069
18431W        W61422  27.901   9.261   8.322  0.4312 -0.1782  0.1496
18432W        W61423  15.203  25.765  25.205  0.1247  0.2106  0.0770
18433W        W61424  21.013   3.384   8.680 -0.1473  0.1942 -0.0458
18434W        W61425  26.335  31.424   0.357  0.1957 -0.2110  0.0431
18435W        W61426  27.872  28.731  28.820 -0.0505  0.2824  0.2698
18436W        W61427  24.349  26.366   2.586  0.2413  0.0819  0.0420
18437W        W61428  15.863  23.314   0.275  0.0532 -0.2386 -0.3403
18438W        W61429  17.022   1.073   5.555  0.2389 -0.0409  0.0839
18439W        W61430  11.993  20.722  25.129 -0.0436  0.1273  0.1455
18440W        W61431  22.260  28.383  26.554 -0.2544 -0.0620  0.1757
18441W        W61432  34.711  32.930   8.257  0.1618  0.1076  0.1511
18442W        W61433  16.100  19.466  24.615 -0.1387  0.4610 -0.2010
18443W        W61434  25.366  27.329   7.663 -0.1658 -0.1452 -0.1315
18444W        W61435  25.550  25.570   3.017 -0.2204 -0.0506  0.0648
18445W        W61436  16.829  33.329  21.172  0.2662 -0.1988 -0.3319
18446W        W61437  17.971  22.712   6.059 -0.0927  0.2188 -0.0628
18447W        W61438  14.185  20.560  23.948  0.0686  0.1553  0.3829
18448W        W61439   5.917  15.697   6.987  0.2188  0.2980  0.0264
18449W        W61440   5.244  19.269   9.339 -0.1283  0.0783  0.1401
18450W        W61441  24.056  20.057   3.332 -0.1864 -0.5006 -0.1198
18451W        W61442  32.653  13.550   0.091  0.4473  0.2983 -0.1849
18452W        W61443  10.781  22.676   4.547  0.1499 -0.1768  0.3595
18453W        W61444  29.441  34.175  27.959  0.0122  0.0024 -0.1411
18454W        W61445  20.935  22.824  27.876  0.0980  0.0129 -0.1432
18455W        W61446  14.390  12.962   8.379  0.1354  0.0049 -0.0764
18456W        W61447  29.365   4.444  22.295 -0.0276  0.1158 -0.1163
18457W        W61448  24.957  10.848   5.754 -0.2088 -0.1433 -0.2166
18458W        W61449  19.838  27.862  19.300 -0.0964 -0.0062  0.0643
18459W        W61450   6.046  33.620   7.179 -0.0435  0.2597  0.0792
18460W        W61451  15.111  19.763   4.996 -0.1642  0.1618 -0.0615
18461W        W61452  26.270  17.924  26.732  0.3024 -0.1669  0.2834
18462W        W61453  33.478  25.074  27.639 -0.1297 -0.0963 -0.1669
18463W        W61454  24.718  21.702   2.656 -0.2434 -0.3048  0.2094
18464W        W61455  25.375  17.488   1.774 -0.0443  0.0326 -0.1931
18465W        W61456  15.500   5.609   4.289 -0.0522  0.4721  0.0726
18466W        W61457  29.631  16.942   5.949 -0.0519  0.0206 -0.1359
18467W        W61458  33.073  31.961  15.774 -0.2812 -0.4328  0.1566
18468W        W61459  20.127   4.720   0.203 -0.0056 -0.1084 -0.2921
18469W        W61460  18.390   5.764   7.193  0.1016  0.0387  0.0335
18470W        W61461  19.154   3.686  25.564  0.2593  0.2432  0.1373
18471W        W61462  24.535  13.324  29.222 -0.1501  0.0969 -0.1008
18472W        W61463  23.947  24.719   7.060 -0.0752  0.1185 -0.0160
18473W        W61464   0.832   7.158  20.177 -0.1684  0.0391 -0.1411
18474W        W61465  18.098   9.665   7.434 -0.1615 -0.0163 -0.1733
18475W        W61466   0.230  24.321   6.474  0.3839 -0.1115  0.1256
18476W        W61467  17.053  30.536  20.115  0.0977  0.1434 -0.0169
18477W        W61468  10.798  18.804  27.287  0.0465 -0.1797 -0.0140
18478W        W61469   5.813   3.177   2.727  0.1894 -0.2319 -0.1534
18479W        W61470  32.169  27.807  24.306 -0.2000 -0.0773 -0.3052
18480W        W61471  12.033  28.580   2.448  0.3295  0.0824 -0.5693
18481W        W61472  16.033  15.137   3.193  0.1245 -0.1697 -0.1773
18482W        W61473  14.473  28.288   9.452  0.1518 -0.2883  0.1397
18483W        W61474  18.218  18.478  13.873 -0.0542 -0.0653  0.0209
18484W        W61475   1.011  24.654   5.827  0.3566 -0.1426  0.0209
18485W        W61476  20.854  14.170   5.184 -0.0529  0.0848 -0.2034
18486W        W61477  14.528  11.885  16.862  0.1803 -0.1234 -0.0252
18487W        W61478  28.002   0.415   5.930 -0.0619 -0.1582  0.0918
18488W        W61479  21.283  26.782   4.479  0.0441 -0.2217  0.0312
18489W        W61480   7.267  31.783   5.248 -0.2875  0.0312  0.1832
18490W        W61481  18.295  22.164  19.196  0.1467 -0.1742 -0.2092
18491W        W61482  25.451  33.687  27.364 -0.3624 -0.0977 -0.1648
18492W        W61483   1.017  28.134   6.187  0.1278  0.1380  0.0336
18493W        W61484  19.336   9.358  28.498 -0.0686 -0.0334 -0.1903
18494W        W61485  10.891  24.341   8.955 -0.1073 -0.0006  0.0433
18495W        W61486  13.341  22.835  27.070 -0.1358  0.0618  0.1477
18496W        W61487  21.239   7.042   4.758  0.3417 -0.0312  0.1740
18497W        W61488  18.313  20.286  27.014  0.0259 -0.1568 -0.1722
18498W        W61489  27.236   9.210   7.078  0.2331 -0.1810 -0.0970
18499W        W61490  25.731  12.114  27.062  0.0624 -0.1939 -0.1038
18500W        W61491  15.857  17.809  26.481  0.2741  0.1465 -0.3262
18501W        W61492  19.046  19.452  26.219 -0.2796  0.2141 -0.2688
18502W        W61493   4.439   2.635  25.810 -0.0135 -0.0344  0.0709
18503W        W61494  27.512  23.656  24.327 -0.1614  0.0120 -0.3802
18504W        W61495  16.017   9.407  17.287  0.3372 -0.1075  0.2405
18505W        W61496  31.515   8.375  23.270 -0.1611  0.0679 -0.0352
18506W        W61497   7.296   0.196  17.046  0.0583  0.0211 -0.0563
18507W        W61498  18.466  27.131   7.227 -0.3412 -0.3313  0.1250
18508W        W61499   1.495  23.148   9.608 -0.2577  0.2054 -0.2586
18509W        W61500  16.135  25.016   8.173 -0.1893 -0.0963  0.1295
18510W        W61501  12.794  27.156   7.911  0.1681 -0.1750  0.1585
18511W        W61502   5.563  26.191  19.174  0.0696  0.1538 -0.3278
18512W        W61503  31.863  29.042   0.191  0.0437  0.1423 -0.5141
18513W        W61504  24.087   0.250   0.936 -0.0818  0.3126  0.3029
18514W        W61505   5.596  33.501   0.690 -0.1103  0.0209  0.1371
18515W        W61506  16.161  32.558  18.422 -0.1434 -0.0169  0.3224
18516W        W61507  11.375  10.710   4.807 -0.1220  0.0080  0.1476
18517W        W61508  12.383  29.917   7.646  0.3672 -0.3259  0.1321
18518W        W61509  15.881   0.878   7.474  0.0435 -0.1556 -0.1035
18519W        W61510  18.566  26.503  13.903  0.0415 -0.2724 -0.0055
18520W        W61511  27.949   0.373   2.579  0.1695  0.1120 -0.2048
18521W        W61512   4.918   2.089  25.082  0.0571 -0.2443  0.1093
18522W        W61513  15.503  24.989  23.891 -0.0438  0.1528  0.4296
18523W        W61514  13.630   3.582  10.334 -0.1625 -0.2721  0.1442
18524W        W61515  30.998  25.050  23.840 -0.0099 -0.0054 -0.2541
18525W        W61516   6.512   1.444   4.103  0.1751  0.0149  0.1336
18526W        W61517  14.967   1.480   9.605 -0.1276 -0.2256 -0.0340
18527W        W61518  17.994   3.908   0.397 -0.0057  0.2075  0.0904
18528W        W61519  20.623   3.305   2.201  0.0138 -0.1258  0.3195
18529W        W61520  17.307  27.399  18.099 -0.0234 -0.2184  0.1566
18530W        W61521  11.197   7.235  25.119 -0.0189 -0.0044  0.0829
18531W        W61522  12.206  29.567  17.252  0.0661 -0.0550  0.2002
18532W        W61523   8.758  30.441   9.299  0.2030 -0.1813  0.0954
18533W        W61524  24.849   6.934  19.794 -0.0205 -0.2395  0.0757
18534W        W61525   7.916   4.477  22.170 -0.1512 -0.0310  0.2532
18535W        W61526  28.346  28.732   4.820  0.2336  0.1206 -0.1446
18536W        W61527  22.033   0.536  26.855 -0.2443 -0.1661 -0.1236
18537W        W61528  10.968  27.517  27.653  0.0696  0.0901  0.1337
18538W        W61529  33.394  24.280   1.592  0.3514  0.0224  0.0394
18539W        W61530  21.608  16.182  26.176  0.1593  0.1830  0.1356
18540W        W61531  15.757  25.412  28.965  0.0188  0.1298 -0.0938
18541W        W61532  19.239  31.149   4.523  0.3507  0.0316  0.2697
18542W        W61533  12.053  25.482  17.223  0.3585 -0.2558  0.2638
18543W        W61534   5.511  24.160  16.624  0.1186 -0.1202  0.0007
18544W        W61535  19.079   0.935   0.977  0.0015  0.0582  0.2031
18545W        W61536  16.703  21.655   9.387 -0.0207 -0.0401 -0.2487
18546W        W61537  31.808  27.417   4.604 -0.3426 -0.1058  0.0291
18547W        W61538  16.863  31.341   1.302 -0.0407  0.0544  0.0310
18548W        W61539   2.470  28.843   7.396 -0.1008 -0.1839  0.1322
18549W        W61540  20.942   5.550   1.516  0.1184  0.1082 -0.0159
18550W        W61541   2.297  27.137   1.984 -0.0146 -0.0805  0.0752
18551W        W61542  16.472  11.394   1.725 -0.0422 -0.1058  0.2861
18552W        W61543  25.763  31.057  26.073 -0.0755  0.0755 -0.1542
18553W        W61544  21.664  26.432   0.348 -0.0214  0.0106 -0.0344
18554W        W61545  28.693  25.269   0.096  0.0703  0.1162 -0.0456
18555W        W61546  30.738   7.303  16.661 -0.2585  0.1132 -0.1092
18556W        W61547   2.926  18.512  10.164  0.4444  0.1533 -0.1767
18557W        W61548  22.404   3.835  17.033 -0.2035  0.1299  0.1592
18558W        W61549   0.070   0.240   7.914  0.1895  0.1906  0.3220
18559W        W61550  10.708  31.049   1.983 -0.0713 -0.2169  0.1871
18560W        W61551  10.955   3.750  28.895  0.1448 -0.0550 -0.1190
18561W        W61552  12.319  23.184   6.271 -0.2396 -0.3084 -0.0735
18562W        W61553   5.255  30.519   2.371 -0.2681 -0.2693 -0.1590
18563W        W61554  31.214   7.250  20.951 -0.0305 -0.1709  0.0385
18564W        W61555  28.117   4.757   2.161  0.3103  0.1473 -0.2209
18565W        W61556  21.834   9.167   3.992  0.0202  0.2537  0.1054
18566W        W61557  10.985  30.775   5.056 -0.1404  0.1164  0.2143
18567W        W61558  21.063  28.059   0.533 -0.0468 -0.0511 -0.2964
18568W        W61559  17.876  21.377  28.219 -0.2938 -0.1598  0.2259
18569W        W61560  13.999  34.599   0.401 -0.1017 -0.3379  0.3003
18570W        W61561  27.823  34.153  25.094 -0.0994  0.2617  0.2797
18571W        W61562   5.784  17.630  24.912 -0.0019  0.3693 -0.3633
18572W        W61563   0.914  26.972   6.129 -0.3132  0.0594  0.3960
18573W        W61564  10.683   6.245   2.844  0.1336  0.0289 -0.2419
18574W        W61565  23.627  24.752  26.323 -0.2338  0.0384 -0.1019
18575W        W61566  20.556  24.770  27.768  0.0289 -0.1751  0.0574
18576W        W61567  20.324  13.333   2.458 -0.0515 -0.1727  0.2467
18577W        W61568  29.400  20.692  26.787  0.0883 -0.3970  0.1699
18578W        W61569  25.106   6.681  16.023 -0.0887  0.0049  0.1387
18579W        W61570  29.711   5.942   1.442  0.0865 -0.2429  0.2292
18580W        W61571  25.468  32.280  25.682  0.1142 -0.1414 -0.3133
18581W        W61572  15.963  29.575   3.918  0.0347 -0.2231  0.1368
18582W        W61573  10.502  33.531  23.053 -0.0636 -0.0187  0.1315
18583W        W61574  23.165  15.515  22.254  0.4502 -0.1212 -0.3763
18584W        W61575   0.068  27.412   7.310  0.2327  0.0974 -0.1381
18585W        W61576  20.667   9.242   4.804 -0.2736 -0.0718 -0.0751
18586W        W61577  14.533  34.103   8.574 -0.1314  0.0364 -0.0554
18587W        W61578  34.480  12.728  26.772  0.0969  0.2510  0.1122
18588W        W61579   3.926  26.736  26.577 -0.5893  0.0735 -0.1213
18589W        W61580   9.243   3.055   7.273  0.1422 -0.1229  0.0484
18590W        W61581  14.053   3.481   2.784 -0.3190  0.2954 -0.1205
18591W        W61582  24.670   9.881   3.428  0.2053  0.0447  0.1865
18592W        W61583  15.188  29.765   8.077  0.0827  0.1001 -0.4246
18593W        W61584   9.929  13.722   6.120  0.0584  0.3469 -0.2899
18594W        W61585  20.868  21.095   4.794 -0.2219 -0.1106  0.1499
18595W        W61586  21.414   4.896  28.917 -0.2224  0.1577  0.1224
18596W        W61587   2.659   3.793   1.227 -0.0214 -0.1090 -0.0748
18597W        W61588  31.066  34.672  27.232 -0.1422  0.1842  0.0630
18598W        W61589   7.897   2.396  24.228  0.2578 -0.0208 -0.1060
18599W        W61590  13.931   1.228  24.893  0.3400 -0.0431 -0.1134
18600W        W61591  31.489   0.060   0.317  0.0163  0.2762 -0.0498
18601W        W61592  29.538  29.834  12.823 -0.1035 -0.2068  0.0263
18602W        W61593  16.287  25.852  17.649 -0.0268  0.4571 -0.0238
18603W        W61594   8.407  27.913   4.280 -0.0920 -0.3646  0.3349
18604W        W61595  17.011   3.996  22.861  0.1854 -0.1448 -0.0010
18605W        W61596  27.247  16.088  19.147  0.3342 -0.2123 -0.0217
18606W        W61597  31.867  18.916  25.186 -0.0328  0.1809 -0.4331
18607W        W61598  31.119  26.933  19.592 -0.2571 -0.3070 -0.0958
18608W        W61599  31.846  22.976  15.920  0.2816  0.2318 -0.4030
18609W        W61600   0.682  33.166   0.896  0.1326  0.0569 -0.0246
18610W        W61601  26.129   6.001  21.070  0.4623 -0.0985  0.0859
18611W        W61602  16.989  24.080  20.948  0.1127 -0.1123  0.2226
18612W        W61603  16.949  33.572  22.855  0.2936 -0.2325 -0.2247
18613W        W61604  33.136  22.612   3.218 -0.2016  0.0526 -0.2833
18614W        W61605  25.658  26.810  27.767  0.0820 -0.4480 -0.0927
18615W        W61606   5.428  13.752  19.356 -0.2701  0.1573  0.0467
18616W        W61607  27.566  21.744  17.373  0.4271 -0.1421  0.2683
18617W        W61608  25.595   0.673  27.726  0.0155  0.0205  0.1393
18618W        W61609  24.352  28.518  13.343 -0.1808  0.3425  0.0668
18619W        W61610  21.786  28.608   3.052  0.3478 -0.0073 -0.2526
18620W        W61611  11.677  17.107  28.508  0.1301  0.0592  0.0867
18621W        W61612  13.279   1.202  16.417 -0.0003  0.0797  0.2429
18622W        W61613  31.550   7.507  28.667 -0.2396  0.2343  0.1706
18623W        W61614  27.183  30.450  25.594  0.0759 -0.0611  0.1219
18624W        W61615  34.164   3.562  10.839 -0.0424 -0.2154  0.2699
18625W        W61616  21.122  29.185  18.041 -0.0909  0.4190 -0.0276
18626W        W61617  14.774  25.583  16.536  0.1627 -0.1289  0.1078
18627W        W61618   7.637  32.371  21.477 -0.1176 -0.1391  0.2084
18628W        W61619  12.884  33.890   3.529 -0.5780 -0.0747  0.1419
18629W        W61620  11.091   0.342  21.867  0.0016 -0.3238 -0.0179
18630W        W61621  23.546   8.225   9.588 -0.3402 -0.1629  0.0854
18631W        W61622  30.643  30.527   5.320 -0.1810  0.0608 -0.2270
18632W        W61623  32.909  23.352  20.596  0.1048  0.0037 -0.3589
18633W        W61624  24.494  28.297  24.184  0.3728 -0.4551 -0.0852
18634W        W61625  10.337  27.347  24.171 -0.4535  0.2846 -0.0587
18635W        W61626  20.070  26.317   4.890 -0.0825  0.4232  0.2107
18636W        W61627   9.256  25.977  28.120 -0.2615 -0.1504  0.0035
18637W        W61628  15.864  11.184  22.525  0.2155 -0.0009  0.3087
18638W        W61629   9.274  26.089  19.546 -0.5097 -0.0175  0.0183
18639W        W61630  28.091  34.628   0.646 -0.2113 -0.1812  0.1612
18640W        W61631  22.161  26.154  23.480  0.3471  0.2222 -0.2761
18641W        W61632  25.321  17.792  23.462  0.0156 -0.1700  0.0543
18642W        W61633  18.884  22.688  28.491  0.0910 -0.3060  0.1888
18643W        W61634  19.888  33.312   3.080  0.1592 -0.2846  0.0986
18644W        W61635  20.088   1.781  10.079  0.3581 -0.0184  0.1983
18645W        W61636  19.851  24.113  24.824  0.2807  0.0805 -0.0699
18646W        W61637  20.420  16.847  25.404 -0.1773 -0.0369  0.0416
18647W        W61638  21.241   0.673   4.893  0.1025 -0.1658  0.1668
18648W        W61639  16.985  24.177   7.779 -0.1204 -0.0832 -0.1654
18649W        W61640  13.167  27.843  13.843  0.0237  0.0524 -0.0808
18650W        W61641  31.482   3.528   4.769 -0.0223  0.0991 -0.0288
18651W        W61642  34.252  30.666   3.705  0.0185 -0.1282 -0.0179
18652W        W61643  22.091   4.872  20.691 -0.1609  0.0146  0.0639
18653W        W61644   8.394  14.712   3.992 -0.3038 -0.2666 -0.1113
18654W        W61645  24.697  27.973  20.511 -0.2400  0.0441 -0.2793
18655W        W61646  17.148  32.133   1.205  0.1756 -0.2011  0.0060
18656W        W61647  28.059   2.865  28.245  0.0152  0.1092 -0.1290
18657W        W61648  11.098  27.467  24.978  0.0298  0.0549  0.2691
18658W        W61649  12.076  11.805   1.642 -0.2826 -0.1957 -0.0299
18659W        W61650   9.794  15.249   8.793  0.0510 -0.0247 -0.1225
18660W        W61651  18.351   4.922   5.591  0.0576  0.0906  0.1216
18661W        W61652  27.243  30.422   4.473 -0.0974  0.1265 -0.0058
18662W        W61653  19.190   2.215  18.624 -0.0776  0.3384  0.1892
18663W        W61654   7.955  19.511  14.602  0.1180 -0.1394 -0.1359
18664W        W61655  19.404  26.366   2.284  0.1605 -0.2082 -0.1121
18665W        W61656  22.425  23.275  26.885 -0.4260 -0.3062  0.2831
18666W        W61657  26.870  21.048  29.039  0.0187 -0.2504  0.1186
18667W        W61658  30.110  22.403   9.476  0.0338 -0.3277 -0.0366
18668W        W61659   0.616  31.250  17.023 -0.0293  0.1481  0.0709
18669W        W61660  29.178  20.526   2.032  0.0613 -0.1842  0.1849
18670W        W61661  20.687   0.907   8.713 -0.0449  0.0460 -0.0222
18671W        W61662   4.884  18.742   6.438 -0.0463  0.3115 -0.2468
18672W        W61663  16.929   3.510   2.457  0.1694 -0.1226  0.2156
18673W        W61664  15.180  32.332  21.367  0.3252 -0.2240  0.3385
18674W        W61665  29.032   6.348   3.471 -0.2785  0.5280  0.1336
18675W        W61666  19.712   0.619   7.992 -0.0032  0.2502 -0.0596
18676W        W61667  17.921  27.744   7.707 -0.1558  0.0063  0.0752
18677W        W61668  16.752  10.679   1.952  0.1432  0.3290  0.1264
18678W        W61669   9.257  33.698  19.594 -0.0055 -0.1784 -0.2988
18679W        W61670  20.598   2.359   8.626  0.0214 -0.0378  0.0692
18680W        W61671  19.182   3.398  17.054  0.2590 -0.3430 -0.0402
18681W        W61672   4.172  15.890   3.465  0.2013  0.0539  0.2037
18682W        W61673  14.003  34.634  10.155 -0.1867  0.2086  0.0231
18683W        W61674  27.613  17.403   3.429  0.3627 -0.0600  0.2063
18684W        W61675  30.100   7.863   2.998  0.1481  0.2247 -0.0665
18685W        W61676  13.011  29.723   6.142 -0.2150  0.2847 -0.0004
18686W        W61677   9.975  16.821   7.782  0.0474 -0.3615 -0.1271
18687W        W61678   2.472  29.250  27.519 -0.0391  0.1721  0.2395
18688W        W61679  28.490  27.632   6.612  0.4932  0.1115 -0.1092
18689W        W61680  27.843  19.967  29.107 -0.0162  0.0414  0.1106
18690W        W61681  34.284   0.057   2.737 -0.1018 -0.0993 -0.2363
18691W        W61682  31.070  27.510   6.824  0.2405  0.0328 -0.4439
18692W        W61683  19.503  24.407   6.188 -0.1213 -0.0557 -0.1456
18693W        W61684  22.759   1.894   8.568 -0.1989 -0.1001  0.1948
18694W        W61685   6.198   0.901   2.964  0.2540  0.0669  0.0713
18695W        W61686  18.842  30.019  22.189  0.1177 -0.3352  0.1980
18696W        W61687  17.265  17.009   2.896 -0.0046  0.2072  0.0459
18697W        W61688  22.957   1.171  24.514  0.1455 -0.2796  0.1269
18698W        W61689  28.493   9.660   9.569  0.0889 -0.0318  0.3219
18699W        W61690  23.588  13.717  27.325  0.0766 -0.0631  0.0813
18700W        W61691   0.848  32.204   4.477 -0.4291  0.0664 -0.2676
18701W        W61692  12.145  17.381  15.996 -0.1617  0.0936 -0.0188
18702W        W61693  18.814  24.791   3.062 -0.0825  0.1386  0.1995
18703W        W61694  24.209   2.978   9.570  0.1380 -0.0659 -0.1899
18704W        W61695  18.973  26.292   5.696 -0.2032  0.1650  0.1241
18705W        W61696  20.115  23.802  28.085  0.0861  0.1657 -0.1135
18706W        W61697   9.945  20.874  28.453  0.1554 -0.0653  0.1209
18707W        W61698  34.158   5.801  22.987  0.0653  0.2695  0.1182
18708W        W61699  20.426  31.208   6.003  0.1098 -0.0235  0.1591
18709W        W61700  12.869   3.191   9.241 -0.0701  0.0754  0.0503
18710W        W61701  30.466  34.700   1.268  0.1004  0.0055 -0.0367
18711W        W61702  23.671  19.329  21.366  0.3041  0.1844 -0.1662
18712W        W61703  31.257  32.312  26.275  0.1310  0.1167  0.1442
18713W        W61704   6.989   1.750  15.682  0.0733  0.2931 -0.2934
18714W        W61705  24.150  21.566  23.917  0.0018  0.1385 -0.2720
18715W        W61706  11.180  23.968  20.925  0.3529 -0.2128 -0.0771
18716W        W61707  22.537  23.605   0.866  0.0912 -0.1143 -0.1166
18717W        W61708  10.478  17.761  23.428  0.2241  0.4204 -0.4936
18718W        W61709  22.193  32.207   9.001 -0.0686  0.3085 -0.1386
18719W        W61710  31.343   1.541   9.432  0.2967 -0.1651 -0.3792
18720W        W61711  10.888   6.198   1.142  0.4558 -0.1007  0.3274
18721W        W61712  18.667  14.111   3.184 -0.3264  0.1108  0.0132
18722W        W61713  28.285  29.624   6.196 -0.0351  0.1770 -0.1467
18723W        W61714  27.081  28.680   3.283  0.1796 -0.1415 -0.0346
18724W        W61715  14.671  16.850   9.462 -0.0791  0.2892  0.3558
18725W        W61716  10.712   6.842   1.009 -0.1600  0.0274  0.1741
18726W        W61717  22.638  28.638   8.206  0.0864 -0.0368  0.1531
18727W        W61718  32.475  33.503  28.679  0.0986  0.1372  0.0634
18728W        W61719  25.596   6.141   4.988  0.1483 -0.1505 -0.1861
18729W        W61720  22.325  22.006  26.205  0.1423  0.2791 -0.0909
18730W        W61721  17.185  26.538   1.287  0.1021 -0.0900 -0.1163
18731W        W61722  22.823   9.587  24.014  0.2379  0.2096 -0.4282
18732W        W61723   0.890   5.164   4.626  0.0227  0.1083 -0.2910
18733W        W61724  17.133   1.851  24.863 -0.0505 -0.0306 -0.2737
18734W        W61725  32.002  33.167  25.682 -0.1169 -0.1376  0.1525
18735W        W61726  21.567  29.389  15.919 -0.0376  0.1032 -0.0269
18736W        W61727  27.566   0.733   2.638 -0.2822  0.2174  0.0694
18737W        W61728  18.146  10.353   3.124 -0.1966 -0.1065 -0.0738
18738W        W61729  31.496  28.292   6.960 -0.2138  0.0695 -0.0436
18739W        W61730   5.316   6.468   0.995 -0.0417  0.0777 -0.0575
18740W        W61731  29.983  10.429  27.474 -0.2134 -0.0814 -0.0802
18741W        W61732  30.028  16.603  27.798 -0.1529 -0.2600  0.0283
18742W        W61733   7.756  29.021  25.524 -0.1223 -0.1306 -0.0759
18743W        W61734  28.711  23.300   1.140 -0.4569 -0.0025  0.3760
18744W        W61735  29.505   4.554  26.789  0.2250  0.2158 -0.1630
18745W        W61736   5.121   5.134  15.570  0.0686 -0.1695  0.1652
18746W        W61737   7.378  29.286   4.233 -0.0587 -0.2434 -0.2233
18747W        W61738  12.629  24.670   1.278 -0.1448  0.1902 -0.0232
18748W        W61739  15.986  20.742   8.194  0.2176 -0.0129 -0.0605
18749W        W61740  23.098   1.293  28.551  0.1560  0.0748 -0.1434
18750W        W61741  12.497   0.235   7.868  0.0677  0.0735 -0.0120
18751W        W61742   7.636  26.580   8.248  0.2727 -0.2471  0.0194
18752W        W61743  16.503  23.903   4.513  0.0424 -0.3694 -0.3011
18753W        W61744  23.395  15.040   9.043 -0.0902  0.0335 -0.0777
18754W        W61745  29.860  28.958  27.629  0.0830  0.3749  0.2230
18755W        W61746  20.989  18.275   7.509  0.0700 -0.2992 -0.0116
18756W        W61747  21.762  29.428   7.861  0.0405  0.1658  0.0220
18757W        W61748  28.753  34.132  12.439  0.1990 -0.0131 -0.3198
18758W        W61749  12.711   6.357   1.236  0.0736  0.3008 -0.2733
18759W        W61750   5.529  16.083   9.707  0.1578  0.0100 -0.2780
18760W        W61751  29.869  21.212   1.172 -0.0612  0.1472  0.0809
18761W        W61752   2.173   7.621  27.469  0.0172 -0.0155 -0.0952
18762W        W61753  18.181   1.701  28.705 -0.1290 -0.2636 -0.3051
18763W        W61754  20.149  33.424   8.748  0.0870  0.1894  0.0464
18764W        W61755  18.169  31.760  23.420 -0.0206  0.1206 -0.0735
18765W        W61756  23.493  22.963   6.106  0.1398 -0.3268 -0.3048
18766W        W61757  13.484  31.967  28.226 -0.0186  0.1497 -0.0827
18767W        W61758  16.502  33.163  10.061 -0.1586 -0.0246  0.0017
18768W        W61759  13.922  33.401  25.797  0.0514 -0.2223  0.2353
18769W        W61760  17.520  33.093   5.758  0.3223 -0.1280 -0.0144
18770W        W61761  27.554  31.120  21.394 -0.2273 -0.1723 -0.1069
18771W        W61762  16.044  25.656   9.385  0.0113  0.0054 -0.1135
18772W        W61763   3.744   3.706   3.989 -0.2157  0.1995  0.3055
18773W        W61764  15.615   3.591   2.563 -0.4112  0.0705 -0.0282
18774W        W61765  20.112  33.669  26.874  0.1243  0.0578  0.2449
18775W        W61766  12.577  11.742   6.568  0.4524 -0.0527  0.0242
18776W        W61767  17.819  17.322   5.612  0.2249  0.0565 -0.3248
18777W        W61768  16.645  12.971   6.585 -0.0714  0.1742  0.4426
18778W        W61769  33.077  24.704  29.188 -0.0032 -0.1942 -0.2813
18779W        W61770  23.546  21.925   0.729 -0.3915  0.1301  0.0649
18780W        W61771  25.862  27.470  26.786 -0.3089 -0.0840 -0.0511
18781W        W61772  17.125  23.480  17.825 -0.0135  0.0085  0.0570
18782W        W61773  26.039  15.541   7.571 -0.0513  0.1567 -0.0244
18783W        W61774  14.375  28.284  10.000  0.1872  0.1239 -0.2028
18784W        W61775  12.955  22.755   3.013 -0.2157 -0.0947 -0.1560
18785W        W61776  12.277   5.499   0.334  0.1961 -0.2290 -0.0107
18786W        W61777   9.919  29.836  10.037 -0.2033 -0.1936  0.1229
18787W        W61778  34.341  29.487   8.805 -0.1908  0.1297 -0.1617
18788W        W61779   1.493   2.161  17.356 -0.2779  0.1992  0.1984
18789W        W61780  13.712  24.529   3.873  0.0086  0.0260 -0.0543
18790W        W61781  29.019  33.408   3.302 -0.0751  0.1032  0.2465
18791W        W61782  24.439   7.216   9.137  0.1225  0.2667 -0.3944
18792W        W61783  22.540  26.666  26.927 -0.0581 -0.1297 -0.2271
18793W        W61784  16.880  34.618   5.081  0.2305 -0.1861 -0.1893
18794W        W61785   2.626  24.931   8.851  0.0487  0.3737  0.1637
18795W        W61786  17.762  21.498   3.612 -0.4549 -0.3030 -0.0396
18796W        W61787  31.431  13.751   2.399 -0.0082 -0.1007  0.1451
18797W        W61788   2.373  25.481  28.963 -0.1431  0.2535 -0.1645
18798W        W61789  28.218   5.284   2.227  0.0773  0.3879 -0.2562
18799W        W61790  24.841  34.114   4.139  0.0263  0.2557 -0.5746
18800W        W61791   4.640  32.082   7.548  0.1444  0.1007 -0.3626
18801W        W61792  28.487  18.063  27.310  0.3454  0.2935 -0.0530
18802W        W61793   8.487   2.122   5.250  0.1007 -0.2312  0.0960
18803W        W61794  25.911  10.453   1.205 -0.1938 -0.1999  0.0358
18804W        W61795   0.603  30.370   5.079 -0.0147 -0.3116 -0.1326
18805W        W61796  32.492  25.607   5.562  0.0056  0.1964 -0.1703
18806W        W61797  29.642  12.655   3.338 -0.0609  0.1854 -0.4684
18807W        W61798  30.213  31.412   5.300 -0.1080  0.2219  0.0345
18808W        W61799  18.960   4.783   2.672 -0.0153  0.1698 -0.0192
18809W        W61800  26.689  32.660   1.607  0.1883  0.2265  0.0205
18810W        W61801   8.589  34.527   4.746 -0.0291 -0.3291  0.0445
18811W        W61802  25.480  23.594   7.554 -0.0916 -0.1833 -0.0403
18812W        W61803  29.049  31.860  28.702 -0.1359  0.1113 -0.1894
18813W        W61804  14.119  26.295   9.323 -0.1633  0.1731  0.0552
18814W        W61805  16.349   6.806  24.352  0.0064 -0.0092 -0.0500
18815W        W61806  16.895  33.143   9.769 -0.0197  0.1240  0.2052
18816W        W61807  28.527  25.151  15.722 -0.1195 -0.1881  0.0713
18817W        W61808   0.675  24.470   6.739  0.0591 -0.0407 -0.0724
18818W        W61809  20.826  24.165   3.470  0.0761  0.1077  0.1450
18819W        W61810  30.597  30.733  23.086 -0.2284 -0.3240 -0.0775
18820W        W61811  22.906   5.344   6.267 -0.2516  0.0904 -0.1661
18821W        W61812  16.221  33.962   7.105 -0.0564 -0.0234 -0.1337
18822W        W61813  23.816   1.716   9.371 -0.0909  0.0597  0.0622
18823W        W61814  31.999  29.583  27.368 -0.5219  0.1319 -0.1837
18824W        W61815  16.517  26.327   6.408 -0.0319  0.0425 -0.0169
18825W        W61816  16.728  33.397   5.825  0.5211 -0.1915  0.0544
18826W        W61817  23.374  24.596  20.555  0.1089 -0.0822 -0.3705
18827W        W61818   8.406   1.094  27.018  0.0134 -0.0443 -0.2216
18828W        W61819  26.390   5.064  21.553 -0.2812  0.0856  0.2569
18829W        W61820  10.307  19.693  27.333 -0.0157  0.1157  0.1995
18830W        W61821  18.783   1.088  25.967  0.2758  0.0806 -0.2072
18831W        W61822  19.439   3.629   9.451 -0.2730  0.4750 -0.0131
18832W        W61823  24.387  15.378  23.431 -0.1849  0.4836  0.0056
18833W        W61824  29.272  29.102   4.409  0.1203 -0.1583  0.0864
18834W        W61825  10.416  27.081  26.228 -0.0712 -0.5284 -0.2095
18835W        W61826   7.768  26.641  27.550  0.2221  0.0813  0.0994
18836W        W61827  14.746  16.221  28.567  0.2073 -0.0968 -0.0337
18837W        W61828  26.976  29.213   5.709 -0.0992  0.1427  0.0554
18838W        W61829  10.226   6.475   4.622 -0.0831  0.1843  0.0144
18839W        W61830  21.470  19.580  20.908 -0.4724  0.0560  0.0385
18840W        W61831  16.559  22.990   6.913  0.3077  0.0055 -0.0826
18841W        W61832  16.306  32.456   3.945 -0.0845  0.4822 -0.1146
18842W        W61833  29.084   6.766   3.875  0.0192  0.1753  0.0384
18843W        W61834  19.803  11.068  25.761 -0.0563  0.1867 -0.2782
18844W        W61835  20.864  14.198  23.936  0.1256 -0.0091 -0.0821
18845W        W61836  16.146  10.318  25.052 -0.3210 -0.1445 -0.1310
18846W        W61837  16.158  25.553  21.979  0.2949 -0.0428 -0.0542
18847W        W61838   4.711  34.186   8.002 -0.0007 -0.4028 -0.1521
18848W        W61839  15.462  30.107   4.828 -0.2260 -0.0105  0.2007
18849W        W61840  20.268  32.725   3.042 -0.1407  0.0306 -0.1461
18850W        W61841   8.368  15.382   1.197  0.0126  0.0998 -0.2874
18851W        W61842  15.309  33.089   8.268  0.0395  0.1355  0.1417
18852W        W61843  22.612  17.503  21.519  0.1882 -0.2852 -0.2959
18853W        W61844  26.147  34.418   8.613  0.0358 -0.1738  0.1729
18854W        W61845  19.459  13.655  26.499 -0.0444  0.0434 -0.0057
18855W        W61846  24.305   8.316   3.733 -0.1239 -0.1715 -0.1615
18856W        W61847   6.257  25.012   8.215 -0.3587 -0.1519  0.2811
18857W        W61848   4.839  23.126   3.663 -0.1200  0.1383  0.0378
18858W        W61849  12.233  12.901   1.170  0.1884 -0.2367 -0.1076
18859W        W61850   6.884   1.786  25.632 -0.2229  0.5359 -0.0926
18860W        W61851  14.205  20.486  22.313  0.2426 -0.1832  0.0290
18861W        W61852  10.058  33.041  16.528  0.1294 -0.1143 -0.1534
18862W        W61853   4.089   9.526   1.236 -0.0461  0.0192 -0.1072
18863W        W61854  30.299  33.618   5.810  0.0408  0.1378 -0.1651
18864W        W61855   4.564  19.589   5.816  0.6093 -0.0195  0.2394
18865W        W61856  25.701   4.765   7.469  0.0408  0.1479  0.0534
18866W        W61857  28.787  30.062   5.106  0.2526  0.1593 -0.2339
18867W        W61858  15.921  28.368   8.754  0.1038  0.2832  0.2106
18868W        W61859  23.112   6.503   9.377 -0.1646  0.2221  0.0298
18869W        W61860  31.134  18.939   9.807 -0.1526  0.3202  0.0228
18870W        W61861  19.289  22.102   2.475 -0.2240  0.3390 -0.0413
18871W        W61862  29.077  22.608  21.599  0.0465 -0.0725 -0.3484
18872W        W61863   5.225   6.660   2.556 -0.2295  0.1711 -0.0032
18873W        W61864  12.875   2.307   9.440  0.2733 -0.3939 -0.1401
18874W        W61865  33.124   2.369  29.244  0.2728 -0.0127  0.0148
18875W        W61866  10.092   0.209   1.792 -0.0725  0.1960 -0.3420
18876W        W61867  21.228  15.689  20.402 -0.3926  0.1090 -0.0158
18877W        W61868  17.242  24.117   2.440  0.0308 -0.2637  0.0813
18878W        W61869  34.093  31.683   1.409  0.1787 -0.0760  0.0737
18879W        W61870  31.416   8.039   3.861 -0.0630  0.0865 -0.0742
18880W        W61871  18.958   1.734   7.944  0.2197 -0.1519 -0.1226
18881W        W61872  23.428  16.569  17.497 -0.1230 -0.1502 -0.3209
18882W        W61873  21.687  24.366   3.754  0.3633  0.0858 -0.1655
18883W        W61874   9.464  13.900   1.225  0.3461  0.2171  0.1963
18884W        W61875  16.503  29.945   6.057  0.0202  0.2097  0.4192
18885W        W61876  27.695  22.175   1.835 -0.0787  0.0511 -0.3334
18886W        W61877   8.442   0.302   2.020 -0.0915  0.3193 -0.2554
18887W        W61878  31.960  21.173   0.904 -0.2602  0.2036  0.1861
18888W        W61879  15.433  29.243   5.943 -0.0583  0.1770 -0.0869
18889W        W61880   9.214  11.921   5.162 -0.1814  0.2156 -0.0230
18890W        W61881  28.574  23.104   6.511  0.0952  0.2195  0.0886
18891W        W61882  28.903  31.444  28.383 -0.1838 -0.0392 -0.0399
18892W        W61883  12.645  33.833   5.304  0.0508 -0.0010  0.2352
18893W        W61884  11.389  26.004   3.589 -0.0001  0.0404  0.3252
18894W        W61885   4.665   2.142   7.268 -0.3129 -0.0912 -0.0463
18895W        W61886  26.918   6.653   3.915 -0.0977 -0.1542 -0.1285
18896W        W61887  30.193  26.335   4.020 -0.2671 -0.0448  0.2773
18897W        W61888  26.018  31.403  29.182  0.0292 -0.1243  0.2586
18898W        W61889  32.770  15.493  11.845  0.3565  0.1582 -0.2850
18899W        W61890  24.736  14.095  26.943 -0.1718  0.3276  0.1421
18900W        W61891  11.609  28.675   7.720  0.0488 -0.2003  0.1183
18901W        W61892  20.113   2.525  14.834  0.1571 -0.1407 -0.0821
18902W        W61893   9.029  30.816   7.298 -0.1156  0.0602  0.0816
18903W        W61894   0.438  26.589  25.452 -0.1995 -0.4343 -0.1161
18904W        W61895  28.252   2.916  10.222  0.2323 -0.1320 -0.0717
18905W        W61896   3.398  24.384   5.502 -0.0499 -0.0789 -0.2354
18906W        W61897  32.942  24.064  27.065  0.0546  0.3421  0.2070
18907W        W61898  27.314  10.976  16.821  0.1258  0.2705  0.1188
18908W        W61899  11.216   3.117  25.469 -0.2682  0.0795  0.0553
18909W        W61900  26.223  22.906   2.173 -0.3241  0.1552 -0.0729
18910W        W61901  15.918  30.330   8.678  0.2474 -0.0180 -0.3155
18911W        W61902   4.802   5.747   7.950 -0.0335 -0.0871  0.2965
18912W        W61903  18.924  27.722  27.267  0.3113  0.1408 -0.1161
18913W        W61904  20.748  30.793   6.111  0.0192 -0.2045 -0.2389
18914W        W61905  21.552   1.464   7.069 -0.0084 -0.1830  0.0082
18915W        W61906   2.465   4.531   3.421 -0.4404 -0.2070  0.2277
18916W        W61907  12.312   0.016   1.284  0.2949  0.0950 -0.0172
18917W        W61908  18.381   7.914   5.236 -0.2872  0.1069  0.3508
18918W        W61909  24.978  34.416  22.277  0.0964  0.0500  0.2141
18919W        W61910  31.341   6.015  27.064  0.3107  0.0012  0.2334
18920W        W61911  24.725   0.480   2.152  0.0691  0.0527 -0.0603
18921W        W61912  20.656  25.230   4.443  0.1016 -0.5031  0.1142
18922W        W61913  19.972  24.721   0.689  0.0695  0.1962 -0.0664
18923W        W61914  27.969   8.061   1.327 -0.0481 -0.0918  0.0666
18924W        W61915   3.395  33.335   3.188 -0.1737  0.1704 -0.1838
18925W        W61916  20.329  11.139  28.009 -0.1404  0.3535 -0.0993
18926W        W61917  10.521   6.991   9.627  0.0663 -0.1965  0.0213
18927W        W61918  20.356  12.070   8.044  0.0112 -0.0888 -0.0509
18928W        W61919  18.331  14.813   2.108 -0.1143  0.2378  0.1593
18929W        W61920  17.458  22.532  27.584 -0.3630 -0.0023 -0.2171
18930W        W61921  16.255  29.903   8.499 -0.1078 -0.2179  0.0093
18931W        W61922  27.701  33.258  27.372  0.0056 -0.3770  0.2334
18932W        W61923  12.671  21.805   5.335 -0.0679  0.0490  0.1348
18933W        W61924  30.306  29.490   4.253  0.1977 -0.1430  0.2048
18934W        W61925   3.987  20.500   1.671 -0.0209  0.0529 -0.0393
18935W        W61926  13.165   6.039   2.823 -0.1708  0.0465 -0.2173
18936W        W61927  29.984  28.656   9.075  0.0388  0.2552 -0.1275
18937W        W61928   4.576  18.453   0.873 -0.2739  0.1440  0.2254
18938W        W61929  18.175  28.004  21.783 -0.1639  0.0339  0.1662
18939W        W61930   5.900   9.729   1.285 -0.0613  0.3327 -0.1287
18940W        W61931  20.461  13.127  21.574 -0.1208  0.1158 -0.2469
18941W        W61932  31.913  28.026   1.238  0.2557  0.4426  0.5879
18942W        W61933  15.108   9.197   1.429 -0.0371  0.2947  0.0519
18943W        W61934  17.762  20.866  28.753 -0.2735  0.1338 -0.0795
18944W        W61935  14.422   3.474   8.582 -0.0040  0.1242 -0.0446
18945W        W61936  29.736   5.305  23.771  0.0698 -0.0076  0.1534
18946W        W61937  21.292  22.039   5.457  0.0528 -0.1395  0.0136
18947W        W61938  19.353  11.262  25.512 -0.1690 -0.1958  0.2139
18948W        W61939  21.587  27.730   8.773  0.1749 -0.1699 -0.0472
18949W        W61940  18.185  30.447   7.712  0.0060  0.1298  0.1331
18950W        W61941  32.557  29.012   5.705 -0.2095 -0.2416 -0.0441
18951W        W61942  22.249  21.018   5.882 -0.4193 -0.1203 -0.0261
18952W        W61943   5.793   4.360  26.415 -0.0593  0.1522  0.1287
18953W        W61944  21.183  31.585  28.960 -0.0356  0.0678  0.0059
18954W        W61945  32.467   5.000   6.144  0.3976  0.1951 -0.2011
18955W        W61946  19.856   8.422   4.087  0.0977  0.2227 -0.2557
18956W        W61947  11.529  17.954   2.450 -0.3316  0.0686 -0.0804
18957W        W61948  26.722  33.971   2.089  0.1869 -0.0787  0.2524
18958W        W61949  28.233  31.388   0.923 -0.1188  0.1532  0.1956
18959W        W61950  30.929   2.763   9.191  0.0938 -0.0951  0.1925
18960W        W61951  14.433  30.080   9.153  0.0370 -0.3300 -0.3531
18961W        W61952  21.071  30.727   0.942  0.0847  0.4876 -0.1183
18962W        W61953  23.613  29.891  19.147 -0.0107 -0.2694  0.1363
18963W        W61954  10.238  22.041  21.605 -0.3455  0.0027  0.2181
18964W        W61955  30.600   1.870   1.836  0.0872  0.2204  0.0491
18965W        W61956  16.874  27.437   5.963 -0.3932 -0.4367  0.2105
18966W        W61957  28.692   4.765  10.262 -0.0586  0.2716  0.3583
18967W        W61958   9.205  26.901   6.948  0.0749  0.1830  0.1391
18968W        W61959   0.220  34.131   2.749  0.0249  0.2053  0.2863
18969W        W61960  28.976  25.978   3.967 -0.2104  0.2363 -0.0307
18970W        W61961  18.344   8.270   6.786  0.0299  0.1639  0.1716
18971W        W61962  15.839  22.267   3.852  0.0744 -0.0285 -0.3201
18972W        W61963   1.866  18.151  27.317  0.2232  0.0744  0.0916
18973W        W61964  19.461  11.692   3.048  0.0901 -0.0341 -0.3233
18974W        W61965  16.037  33.685   3.107  0.1347 -0.0534 -0.0472
18975W        W61966  20.381  19.333   2.705  0.3818  0.1315  0.1173
18976W        W61967  19.993  14.936   7.066  0.1394  0.0078 -0.5768
18977W        W61968  20.696  26.200   2.312 -0.0809 -0.0882 -0.3952
18978W        W61969   7.629   3.569   7.395  0.0883  0.1694  0.2980
18979W        W61970  13.801  19.751   1.439 -0.3563 -0.1707 -0.1038
18980W        W61971  22.700   3.592   1.967 -0.1645  0.0345 -0.1677
18981W        W61972  18.304  20.140   8.971 -0.1935 -0.0068  0.2704
18982W        W61973  17.869  11.688  15.908  0.0272  0.1785  0.1853
18983W        W61974  21.187   7.534   4.485 -0.2166 -0.0580  0.3325
18984W        W61975  21.292  16.192   8.878  0.0486  0.0903 -0.2717
18985W        W61976  10.821  31.725  23.377 -0.0561  0.2284 -0.0276
18986W        W61977  12.498  26.457   8.131  0.2008 -0.0887 -0.0348
18987W        W61978   7.432   1.160  10.173 -0.1868  0.0264 -0.3088
18988W        W61979  23.433   0.366  28.727  0.0756  0.1518  0.0920
18989W        W61980   9.706  23.981   0.274 -0.0488  0.0217 -0.0625
18990W        W61981   6.320  25.295  24.546 -0.1800 -0.0475 -0.0555
18991W        W61982  16.585  34.070   4.776  0.0303 -0.0643  0.2492
18992W        W61983   4.845  34.591   7.625 -0.1388 -0.2248  0.0706
18993W        W61984  31.780  32.544   7.576 -0.0984  0.5746  0.0435
18994W        W61985   4.019   7.351   4.069  0.1769 -0.0020 -0.1559
18995W        W61986  14.413  27.900  27.067  0.1604 -0.0516  0.3885
18996W        W61987  33.815  33.269  24.351 -0.1111 -0.0769  0.0056
18997W        W61988   2.017  18.762   9.055  0.0927  0.1245 -0.1259
18998W        W61989  13.960  19.475   8.694  0.0395  0.2588  0.3016
18999W        W61990  30.445   5.463  21.857  0.1087 -0.2030  0.0528
19000W        W61991  16.625  26.728  14.718  0.1634  0.1581 -0.5216
19001W        W61992  15.218  32.014   1.229  0.1652 -0.4595  0.1186
19002W        W61993  29.980   2.953   9.584  0.1905  0.0833 -0.0172
19003W        W61994  22.693  20.173   2.841 -0.2619  0.1069 -0.0241
19004W        W61995   0.654  23.937   5.534 -0.3915  0.0274 -0.2491
19005W        W61996   7.889  27.886   3.770 -0.0711  0.1945  0.1691
19006W        W61997   5.283  29.286   2.846 -0.1599  0.1402 -0.3208
19007W        W61998   8.582  10.284   1.347  0.0144  0.2507  0.1515
19008W        W61999  24.219  32.959  28.778 -0.0054  0.3263  0.0408
19009W        W62000  16.410   2.497  16.684  0.0448 -0.2474  0.0428
19010W        W62001  18.849  33.902   0.146  0.1314  0.0062  0.2754
19011W        W62002   7.513   2.711   9.895  0.2025  0.2086  0.4123
19012W        W62003   5.070   4.562   6.294  0.3185 -0.0081 -0.2483
19013W        W62004  14.454  20.123   6.793  0.1078 -0.0328 -0.0516
19014W        W62005  27.293   6.132   8.380  0.0849 -0.2001 -0.1742
19015W        W62006  20.644  22.962   2.366 -0.3974 -0.1412  0.2989
19016W        W62007  20.691  28.938   5.808  0.0125 -0.2038  0.3087
19017W        W62008  25.982  19.998   7.248  0.1085  0.0532  0.1529
19018W        W62009  28.222   7.805   7.830  0.1355  0.1549  0.2126
19019W        W62010  18.980  23.284   4.958 -0.3042  0.3664 -0.1915
19020W        W62011   3.763  10.855  26.899 -0.0669 -0.1708 -0.3365
19021W        W62012  10.154  10.231   4.320  0.1664 -0.2079 -0.2083
19022W        W62013  17.414  30.750  26.153  0.0381  0.0579 -0.2609
19023W        W62014   6.463  31.476   6.137 -0.0189 -0.2681  0.0622
19024W        W62015  24.985   8.724  24.222  0.2203  0.0027 -0.0032
19025W        W62016  18.415  17.829  26.353  0.0205 -0.0380  0.0969
19026W        W62017  32.059  21.122  26.803  0.4279  0.2642 -0.2209
19027W        W62018  25.222  27.904  25.133  0.0036  0.0046  0.2148
19028W        W62019  29.824   3.381   7.967  0.5309  0.3107  0.1260
19029W        W62020  18.097  33.641   2.162  0.2274  0.4774  0.2297
19030W        W62021  14.220  27.772  22.712  0.2054  0.2123 -0.2660
19031W        W62022  22.517  13.774   9.757 -0.0829  0.1447  0.1165
19032W        W62023  18.454  32.605   5.709 -0.0823 -0.0426 -0.0740
19033W        W62024  15.846  31.090   7.932 -0.0267  0.0104  0.0143
19034W        W62025  16.484  31.692   5.784 -0.1166  0.1192  0.1837
19035W        W62026  31.543  27.597   3.644  0.0564  0.0909  0.0932
19036W        W62027  12.309   8.199   1.428  0.1601 -0.0222  0.1869
19037W        W62028   7.292   1.890   8.752 -0.0799  0.2366 -0.0415
19038W        W62029  11.735   2.480  10.349  0.1834 -0.1091 -0.0484
19039W        W62030  22.901  32.027   8.437 -0.0728 -0.0445 -0.0825
19040W        W62031  19.410  25.897  29.177  0.0716 -0.3400  0.0468
19041W        W62032  26.810  18.114   6.877 -0.2200 -0.4134  0.1880
19042W        W62033  16.312   0.172   1.892  0.0957 -0.2262  0.1811
19043W        W62034  25.855  15.742   5.958 -0.0408  0.1350 -0.2118
19044W        W62035  19.323   3.233   4.528  0.0313  0.1550 -0.2009
19045W        W62036  24.877  12.001  27.379 -0.0744 -0.1237  0.1126
19046W        W62037  25.026   0.343   5.339  0.4595  0.0537  0.0181
19047W        W62038  24.724  33.209   5.265 -0.1290  0.0548  0.0118
19048W        W62039   9.843  20.867   3.134  0.1915  0.3387  0.0872
19049W        W62040  16.284  33.233   5.299 -0.0730  0.3475  0.3313
19050W        W62041  11.515  20.905   5.121  0.2693  0.2235  0.0720
19051W        W62042  25.769  20.259   2.651 -0.2440  0.1593 -0.0864
19052W        W62043  19.781  23.084  16.117  0.0884  0.0417  0.3462
19053W        W62044   9.569  23.029   4.559 -0.1125 -0.1638 -0.1003
19054W        W62045  16.002   4.515   6.608 -0.0997 -0.1298 -0.1336
19055W        W62046  20.318   5.372   9.291 -0.1022  0.0606  0.2275
19056W        W62047  24.646  24.044  24.314 -0.2719 -0.1024 -0.0483
19057W        W62048  30.712  33.635   1.817  0.2193 -0.3077  0.1909
19058W        W62049  15.306  27.079   9.203  0.0588 -0.3370  0.2017
19059W        W62050  29.660  33.066  17.938  0.0659 -0.1942 -0.0549
19060W        W62051  11.725  24.706   0.227  0.0461 -0.0083  0.0021
19061W        W62052  29.072  19.419  24.075 -0.2255 -0.3281  0.4327
19062W        W62053  25.543  20.380   8.458 -0.0498  0.3862 -0.0474
19063W        W62054  20.786  33.654  26.900  0.1038  0.0279 -0.2258
19064W        W62055  24.632  34.401   8.015  0.2441 -0.2391 -0.2089
19065W        W62056  22.814  27.346   6.699 -0.2756  0.2153  0.1870
19066W        W62057   9.614  15.481   7.419  0.0569  0.1336  0.0298
19067W        W62058  10.319  25.830   1.989  0.1367  0.1772  0.1188
19068W        W62059  19.825  19.643   5.262  0.1054 -0.2170  0.1736
19069W        W62060  14.179  31.041  25.343  0.0874 -0.1003  0.1492
19070W        W62061  20.416  27.120   5.135 -0.0398  0.1964  0.1692
19071W        W62062  32.309   4.675   0.867 -0.1940 -0.1114 -0.1515
19072W        W62063  27.377  14.450  25.987  0.0645  0.2354  0.2097
19073W        W62064  25.656  29.387   6.440 -0.1069  0.1251 -0.0974
19074W        W62065  33.222   2.604  23.817  0.0658 -0.0444 -0.0696
19075W        W62066  30.681  29.376   2.191  0.2544 -0.0975  0.1325
19076W        W62067  11.036  30.427  19.623 -0.0428  0.1386 -0.0497
19077W        W62068  20.553  32.719   0.878  0.0637  0.0470 -0.4755
19078W        W62069  26.193  28.945   7.055  0.3012 -0.0055 -0.1113
19079W        W62070  33.865   0.991   5.218  0.3262  0.0654 -0.0191
19080W        W62071  18.854   0.661  26.255 -0.0200 -0.0754  0.2164
19081W        W62072  20.560   9.451  15.420  0.3235 -0.1039 -0.3911
19082W        W62073  13.654   6.344  24.973 -0.0055  0.0136  0.2376
19083W        W62074  15.593   0.840   9.045 -0.1231 -0.0927 -0.2056
19084W        W62075  27.253  34.493   4.340 -0.0759 -0.0525 -0.1420
19085W        W62076  15.613  23.129   9.333 -0.1679 -0.2678 -0.0052
19086W        W62077   1.890  34.458   9.013  0.0224  0.0396  0.0384
19087W        W62078   9.894   9.955   1.313 -0.3126  0.0195  0.1293
19088W        W62079  21.346  16.641  17.660  0.0518  0.2592 -0.1907
19089W        W62080  13.151   5.497  10.245  0.0174 -0.1162 -0.0719
19090W        W62081   5.012  24.893  28.155  0.1305 -0.1550  0.2211
19091W        W62082  25.769   4.030   1.430  0.4321  0.2188 -0.1247
19092W        W62083  28.324  27.874   4.127 -0.4122  0.0534 -0.1437
19093W        W62084  14.007  21.878  28.651  0.1045 -0.2561  0.1681
19094W        W62085  26.418  15.671   5.065  0.2267 -0.0003  0.1180
19095W        W62086  22.145   0.070   2.388  0.0610 -0.0191  0.0384
19096W        W62087  20.212  24.012   3.246  0.3272 -0.1009 -0.2599
19097W        W62088  12.161  28.536   4.830 -0.0756  0.1459 -0.5201
19098W        W62089  27.880  30.805   2.630 -0.1684  0.0762 -0.1243
19099W        W62090  21.405   6.614   7.129  0.0369 -0.1162  0.1767
19100W        W62091  28.186  21.236   9.677  0.1622  0.0403 -0.0366
19101W        W62092  24.925  13.898   8.067  0.2815 -0.3594  0.0651
19102W        W62093  31.958  30.118  20.016 -0.1740  0.0166  0.2501
19103W        W62094  18.298   1.361  10.195 -0.3005 -0.1207  0.2563
19104W        W62095  17.746  26.566  28.725  0.0455 -0.2023  0.1255
19105W        W62096   8.983  33.743  20.018 -0.0815 -0.0366  0.1397
19106W        W62097  16.814  21.503   2.797 -0.0238  0.2950 -0.1708
19107W        W62098  22.376   2.233   7.186  0.2151 -0.1353  0.1450
19108W        W62099   0.777  31.318  14.838 -0.2889  0.0266  0.0466
19109W        W62100  18.731   3.963   5.191  0.3277 -0.0700 -0.2785
19110W        W62101   9.430   4.444   8.805 -0.0112  0.1790  0.0550
19111W        W62102   6.364  10.602   9.631 -0.2394 -0.2187  0.0985
19112W        W62103  24.648   4.094   7.431 -0.0232  0.0081  0.0233
19113W        W62104  33.247  32.723   4.582 -0.1969  0.2990 -0.1879
19114W        W62105  26.674  31.630  15.882  0.1118 -0.1232  0.2090
19115W        W62106  21.086  31.097   1.788 -0.0800 -0.1261  0.3038
19116W        W62107  11.972  23.085   5.568 -0.5137  0.0321  0.3777
19117W        W62108   7.891  19.451  21.385  0.2760 -0.0964  0.0297
19118W        W62109  32.676  19.755   2.012  0.3813 -0.0295 -0.1564
19119W        W62110  28.173  23.525  16.838 -0.0895  0.0406  0.2213
19120W        W62111  11.890  17.572   8.313 -0.3346 -0.1513 -0.0169
19121W        W62112  11.905   2.755  11.686  0.4235  0.0837 -0.0072
19122W        W62113   4.373  13.979   6.133 -0.1633 -0.0581  0.2014
19123W        W62114  23.988  26.954   0.945 -0.0873  0.0004  0.1666
19124W        W62115   8.036   6.334   5.326 -0.4196 -0.3001 -0.0640
19125W        W62116  16.302   1.929  22.021 -0.1190 -0.0161  0.0502
19126W        W62117  20.574  31.007   3.451 -0.2849 -0.0276  0.2557
19127W        W62118  17.868  28.403  29.150  0.0522  0.2174 -0.0415
19128W        W62119  18.307   3.528  27.841  0.1581  0.0287  0.0925
19129W        W62120  21.094  21.406  16.443 -0.1063 -0.0453 -0.0917
19130W        W62121  17.195  14.326  27.966 -0.0120 -0.0822  0.2848
19131W        W62122  26.156   1.136  24.040 -0.5555 -0.1740 -0.1658
19132W        W62123  27.507   4.767   4.700 -0.0262 -0.2034 -0.0588
19133W        W62124  26.076  15.126  22.498  0.1762 -0.0767  0.1725
19134W        W62125  28.312  11.250   0.450  0.1240 -0.0562  0.1031
19135W        W62126  15.140   6.606  19.289  0.1561 -0.1462  0.2164
19136W        W62127  24.230  24.908  17.941 -0.1496  0.2692 -0.0407
19137W        W62128  32.455  25.862   5.114 -0.3948  0.1784 -0.0243
19138W        W62129  18.513  22.052  25.159 -0.3317 -0.1092 -0.1089
19139W        W62130  26.693   1.076  15.785 -0.4318 -0.1268  0.0387
19140W        W62131  15.146   3.002  10.119 -0.0760  0.2590  0.0733
19141W        W62132   3.808  21.086  18.219  0.1569 -0.1643 -0.0106
19142W        W62133   7.231   1.798   5.571  0.1048 -0.2433  0.2343
19143W        W62134  34.105   5.671   9.768 -0.3852 -0.1466  0.0281
19144W        W62135  30.747  18.409  19.706  0.0166 -0.3207 -0.0461
19145W        W62136  23.148   1.303  22.906 -0.0751  0.3179 -0.1325
19146W        W62137  29.143  17.784  18.324  0.1509  0.0559  0.0431
19147W        W62138  31.725   0.498   6.865  0.0068  0.1527 -0.3328
19148W        W62139  16.167  29.049  21.992  0.0970  0.3108  0.0568
19149W        W62140   6.002  22.821  23.799 -0.4624 -0.0464 -0.1214
19150W        W62141  24.057  27.084  21.957  0.0129  0.0659  0.2876
19151W        W62142  22.794  12.177  19.711  0.0203 -0.1340 -0.1935
19152W        W62143  34.621   5.159  26.551 -0.1335  0.0301  0.3484
19153W        W62144  25.198  34.572  28.409  0.2019  0.1604  0.4091
19154W        W62145  30.000  21.778  27.043 -0.1540 -0.1602 -0.3498
19155W        W62146  18.907   6.452  17.326  0.3419 -0.0621 -0.0071
19156W        W62147  15.141   2.093  20.772  0.0607 -0.0021  0.1024
19157W        W62148  12.329  32.865   5.950  0.2762 -0.0414  0.2035
19158W        W62149  11.028  31.534   4.574 -0.1507  0.4852 -0.3473
19159W        W62150  20.727  30.821   0.121 -0.0804  0.3615 -0.2143
19160W        W62151   0.370   1.436  22.929  0.0455  0.0806 -0.1112
19161W        W62152  25.307   2.086   8.426 -0.0092 -0.0015 -0.1866
19162W        W62153  29.055  12.096   2.065 -0.1103  0.1023  0.2224
19163W        W62154  10.764  10.334  26.802  0.0997  0.0192 -0.0024
19164W        W62155  31.680  26.001  23.750 -0.2030 -0.0011  0.0068
19165W        W62156  31.538   7.070   9.577  0.0575  0.1761  0.0281
19166W        W62157  31.578   8.051   7.008  0.2654  0.1244 -0.2017
19167W        W62158  20.554  33.831   4.139  0.1244 -0.0187 -0.2519
19168W        W62159  21.470   5.243   3.062 -0.1076  0.1169  0.1021
19169W        W62160  22.018  16.428  18.225  0.1010 -0.3046 -0.0972
19170W        W62161  14.780   8.696   1.610  0.0466 -0.1733  0.3892
19171W        W62162  23.117  30.292   2.981  0.0424 -0.0709 -0.1163
19172W        W62163  30.006  29.111  25.862  0.0092 -0.2625  0.1410
19173W        W62164  26.516  15.502  24.043  0.3177  0.1159 -0.1617
19174W        W62165  12.330  29.848   9.520  0.5062 -0.1360  0.0026
19175W        W62166  12.975  28.732  26.473  0.2210 -0.1375  0.0448
19176W        W62167  15.218  29.419   0.181  0.1721  0.0413 -0.1279
19177W        W62168  20.533  10.986  14.066 -0.2446 -0.0385  0.2908
19178W        W62169  20.302  24.924   1.234 -0.0008 -0.1604  0.1906
19179W        W62170  22.111  24.215   4.500  0.1216  0.3776  0.3001
19180W        W62171  23.885  17.740   0.525  0.0790 -0.1318 -0.2329
19181W        W62172   0.963  14.393  11.490  0.0742  0.0226 -0.2750
19182W        W62173   7.921  15.413  14.792  0.1502  0.3792  0.1374
19183W        W62174  13.562  27.257   5.722  0.0444 -0.1065 -0.1934
19184W        W62175  29.153  30.979   2.241 -0.1538  0.2944 -0.1944
19185W        W62176  20.305  12.291  20.311 -0.2732  0.0656 -0.1112
19186W        W62177  24.678  23.585  28.278 -0.0907 -0.0835 -0.1636
19187W        W62178  26.666  10.369  25.432  0.1173 -0.0588 -0.2143
19188W        W62179  23.798  31.704  25.685 -0.2520 -0.0218 -0.2141
19189W        W62180   2.468   0.130   0.861  0.0239  0.4037 -0.1963
19190W        W62181  22.255   0.337  22.413  0.2557  0.1438  0.0336
19191W        W62182  25.059  32.751   4.053 -0.2939  0.1236 -0.0485
19192W        W62183  30.465   0.348  19.394 -0.1325  0.3326  0.1061
19193W        W62184  29.429   7.880  23.156  0.0671 -0.1709  0.0388
19194W        W62185  20.399   1.810  25.384 -0.0654  0.1383  0.2890
19195W        W62186   1.916  29.740   6.595 -0.2166 -0.1420  0.1350
19196W        W62187   0.206   8.508  23.738  0.2839  0.0795 -0.4073
19197W        W62188  13.961   3.988  10.053 -0.0411  0.0746  0.4331
19198W        W62189  11.560   4.799  20.176  0.0627  0.0884 -0.1141
19199W        W62190  13.736   3.052  11.143  0.1695 -0.0497 -0.0992
19200W        W62191   1.256  26.875   4.462  0.1185 -0.0218 -0.2035
19201W        W62192  18.152  17.076   0.141 -0.2261  0.0514 -0.3390
19202W        W62193  14.335  10.040  24.866  0.0907 -0.0538 -0.0097
19203W        W62194  19.106   0.631   6.315  0.0757 -0.2002 -0.1359
19204W        W62195  19.607  19.004  27.817 -0.0451  0.2105 -0.0852
19205W        W62196  24.305  31.557  15.510 -0.0365  0.1064  0.3445
19206W        W62197  31.296  11.680   7.396 -0.0408  0.2815  0.0251
19207W        W62198  21.726   3.095   4.943  0.0640  0.1073  0.1175
19208W        W62199  13.607  11.438   9.915  0.0091 -0.0405  0.1391
19209W        W62200  16.912   5.434   1.619  0.2200  0.0022  0.0734
19210W        W62201  22.794   3.615   7.867  0.1367 -0.1510 -0.1595
19211W        W62202  30.263  31.244   4.165 -0.2238  0.0836  0.2432
19212W        W62203  33.154  32.358  21.262  0.1265 -0.0365  0.2124
19213W        W62204  31.915  23.344   0.373 -0.0435  0.2950  0.1434
19214W        W62205  21.533  32.005  14.056  0.0588  0.3374 -0.0235
19215W        W62206  32.565  12.579  26.009  0.1753  0.1321 -0.0218
19216W        W62207  27.141   1.730   7.914  0.1355  0.3500  0.4048
19217W        W62208  12.727  30.058   5.824  0.2475  0.1655 -0.3630
19218W        W62209  33.590  23.427   5.935  0.0481  0.3238 -0.0794
19219W        W62210  21.254   4.888  22.541 -0.0865 -0.1468 -0.1618
19220W        W62211  29.911  25.935   0.298 -0.0670 -0.1321 -0.1538
19221W        W62212   3.690  20.832   6.305 -0.4467  0.2833 -0.0279
19222W        W62213  32.289  27.815   0.900 -0.5611  0.1812  0.0513
19223W        W62214  33.101   3.617  23.533  0.1631  0.0137 -0.4409
19224W        W62215  13.771   3.352  10.782  0.0780  0.0757  0.1363
19225W        W62216  21.823   7.744   4.590  0.0073 -0.1631 -0.0644
19226W        W62217  21.592   2.819   8.215 -0.1326  0.1961 -0.0283
19227W        W62218  25.597  21.822  26.953 -0.6313 -0.1243 -0.1348
19228W        W62219  11.731   6.103   7.224  0.5032 -0.3128  0.0598
19229W        W62220  15.649  14.699  27.951 -0.2283  0.1467 -0.1274
19230W        W62221  13.360  11.630  22.145  0.1060  0.0999  0.3200
19231W        W62222  21.894   7.483   2.279  0.0047 -0.0631  0.0109
19232W        W62223  28.021  28.692   1.433 -0.0316 -0.0077 -0.0951
19233W        W62224  32.391   9.904  17.265  0.1279  0.1148 -0.2568
19234W        W62225  19.926   9.887   4.318 -0.1437 -0.0847  0.1214
19235W        W62226  31.839   6.902  21.537 -0.1536  0.0311 -0.0947
19236W        W62227  30.612  34.797   4.751 -0.0486 -0.0286  0.2881
19237W        W62228  29.787  10.134   2.477  0.1802 -0.1443 -0.0215
19238W        W62229  21.032  13.285   5.000 -0.1495  0.1778  0.2558
19239W        W62230  18.373  30.242  29.184  0.0528  0.0411 -0.1994
19240W        W62231  20.315  10.006  23.102 -0.3362  0.0607  0.0853
19241W        W62232  24.895  13.059   5.614 -0.1521 -0.2095 -0.3436
19242W        W62233  15.079  21.582  20.102  0.5177  0.1644  0.3849
19243W        W62234  21.593  33.923   6.937  0.0519 -0.2027 -0.3237
19244W        W62235  23.772   5.377   7.131 -0.1097 -0.0979 -0.1820
19245W        W62236   9.221  19.481  17.360  0.1696  0.0114 -0.0478
19246W        W62237  26.069   3.646   2.345  0.2963 -0.4854  0.0265
19247W        W62238  26.054  27.103  27.698  0.1161 -0.0022  0.3066
19248W        W62239  23.712   9.303   6.238  0.0781 -0.0660  0.0076
19249W        W62240   7.831  14.783   7.295  0.0602  0.3782  0.2149
19250W        W62241  24.875  32.795   7.373 -0.0188 -0.2802  0.1803
19251W        W62242  25.207  14.747  16.959  0.4091 -0.2766  0.0776
19252W        W62243  21.658  25.599   9.626  0.0910 -0.1169  0.1109
19253W        W62244  25.719  10.279  21.761 -0.0695 -0.2569 -0.1998
19254W        W62245   7.921  23.334   7.704 -0.0119  0.2255 -0.2805
19255W        W62246  17.026  30.258   7.322 -0.1309  0.0717  0.2991
19256W        W62247   6.388   2.800   1.021  0.0089  0.1202 -0.1055
19257W        W62248  24.044   4.656   5.762 -0.1526  0.2832  0.2402
19258W        W62249  25.422   5.041   8.743 -0.0581  0.0305  0.0158
19259W        W62250  10.511   7.450   5.939  0.0322 -0.0681 -0.2627
19260W        W62251  26.903  30.939   3.720 -0.0263  0.3518  0.4734
19261W        W62252  15.913  24.711  26.853 -0.0135 -0.0469  0.0510
19262W        W62253  25.611  27.259   5.848  0.1272  0.1032 -0.0527
19263W        W62254  32.466  11.195  25.278  0.1538 -0.1637 -0.1415
19264W        W62255   1.489  24.438   6.058  0.0054 -0.0013 -0.1626
19265W        W62256  20.089   3.462  14.565  0.1193 -0.0780 -0.2503
19266W        W62257   8.392  34.069   2.698  0.2094  0.0547  0.1395
19267W        W62258  18.799  25.396  25.130 -0.0726 -0.0856  0.0917
19268W        W62259  20.550   3.641   7.571  0.0978  0.2366  0.2865
19269W        W62260  31.462   7.544  13.789 -0.0880  0.1807 -0.0500
19270W        W62261   3.032   6.630  25.148 -0.0078  0.0084 -0.1753
19271W        W62262  32.172  30.901   0.933  0.0146 -0.2985 -0.2144
19272W        W62263  34.773  23.497   2.786 -0.0736  0.1357  0.1394
19273W        W62264   6.735  31.769   2.375 -0.1603 -0.2061 -0.1449
19274W        W62265  13.020  30.710   9.068 -0.0004 -0.2067  0.0490
19275W        W62266   5.494  33.443   9.846  0.1263 -0.0366  0.1050
19276W        W62267  17.685   1.876  23.172 -0.2596 -0.0042 -0.0973
19277W        W62268  26.502  16.079  15.574 -0.0486 -0.0056 -0.1672
19278W        W62269  23.684  20.296  24.848 -0.0944  0.0936 -0.1155
19279W        W62270  28.860   0.976  22.519 -0.0951 -0.0024 -0.0716
19280W        W62271  24.007   1.400   4.190  0.1862 -0.3614 -0.0539
19281W        W62272  11.930  21.669   4.897 -0.1484  0.0811  0.0279
19282W        W62273  27.187  27.187  17.680  0.0594  0.0762 -0.4067
19283W        W62274  15.845   7.191   2.025  0.1291  0.0794  0.2678
19284W        W62275  26.695  29.470  23.063  0.1139  0.0010 -0.2053
19285W        W62276  34.754  17.236   9.569  0.0260 -0.3417 -0.0035
19286W        W62277   5.630  27.497  28.286 -0.1265  0.2931  0.0951
19287W        W62278  33.375  26.697   1.879  0.2398 -0.4369  0.2066
19288W        W62279  31.350  33.260   5.198  0.2033  0.0329 -0.0307
19289W        W62280   2.439  33.008  28.032 -0.4574  0.1167  0.1901
19290W        W62281  30.874  18.308   0.873 -0.1801 -0.1590  0.0591
19291W        W62282  31.966  22.246  28.832  0.3104  0.0304 -0.4935
19292W        W62283  12.550  11.423  27.735  0.1372 -0.2750 -0.0318
19293W        W62284  13.232  24.074   3.177 -0.1371 -0.1202  0.3303
19294W        W62285  24.531   4.663   1.751 -0.2782 -0.1169  0.0611
19295W        W62286  24.329  32.945   6.777 -0.0053 -0.5770  0.1810
19296W        W62287  22.441  24.791  16.255 -0.1381 -0.2670  0.3072
19297W        W62288   9.516   5.043  21.377  0.1655  0.0678  0.1774
19298W        W62289  13.356  32.544  21.491  0.1122 -0.1078  0.0403
19299W        W62290  22.882  24.922  14.916 -0.2802  0.5355 -0.3174
19300W        W62291   3.758  25.069  28.939 -0.2317 -0.0079  0.1137
19301W        W62292   8.155  11.339  11.592  0.3644  0.3889 -0.0712
19302W        W62293  26.496  20.818  23.753 -0.4112 -0.1193 -0.1062
19303W        W62294  29.086  29.054   7.837  0.0764  0.0608  0.1477
19304W        W62295  27.984  16.271   4.224 -0.0727 -0.0147 -0.1113
19305W        W62296  24.357   3.055  19.490 -0.2527 -0.0220  0.1422
19306W        W62297   0.611  24.996  19.212  0.4288  0.0522  0.2144
19307W        W62298   7.663   7.051   9.197 -0.2632 -0.2001 -0.2123
19308W        W62299  14.057  13.932  17.161 -0.1434 -0.0567 -0.0797
19309W        W62300  17.063  21.954   3.977 -0.2360  0.2997  0.1525
19310W        W62301  27.531  12.850   9.024 -0.4235  0.1134  0.1455
19311W        W62302   7.582  32.879  23.897  0.3910 -0.2407 -0.1108
19312W        W62303   0.884   1.944  23.389 -0.1164 -0.0345  0.2365
19313W        W62304  13.069  21.523   5.077  0.3977  0.0840 -0.0062
19314W        W62305  11.770  28.572   0.172  0.0389 -0.0985  0.1412
19315W        W62306   0.345   6.678  25.180  0.1071 -0.1530 -0.0172
19316W        W62307   9.725  31.410  10.679 -0.0928 -0.4009  0.1850
19317W        W62308   3.856   6.444  22.877 -0.2424  0.1190 -0.0084
19318W        W62309  10.825  12.034   9.224  0.0890 -0.1756 -0.4259
19319W        W62310  24.359   6.716   3.556  0.0153  0.2072 -0.1423
19320W        W62311  21.278  13.113  27.331 -0.1478  0.1297  0.0572
19321W        W62312  34.446  16.832   9.710 -0.0179  0.0408 -0.2219
19322W        W62313  34.554  13.962  29.172 -0.0899 -0.0178  0.1855
19323W        W62314   8.663  27.209   7.312 -0.0233 -0.0375  0.1357
19324W        W62315  31.360   6.730   4.078  0.0921  0.3624  0.1765
19325W        W62316  25.437   2.903   4.154 -0.2062  0.1350 -0.1646
19326W        W62317  29.821  22.854   4.488  0.3211 -0.0348  0.2642
19327W        W62318  21.877  24.257   1.718 -0.2532 -0.2436  0.2164
19328W        W62319  16.797  30.617   8.680 -0.2225  0.0967 -0.3037
19329W        W62320  25.775  21.225  17.994 -0.2497 -0.2212 -0.0745
19330W        W62321  31.056  28.009   7.769  0.1819  0.1369 -0.2272
19331W        W62322  12.338  32.668  22.376 -0.3920  0.1682 -0.1378
19332W        W62323  26.683  30.671   2.331 -0.0955 -0.1021 -0.0472
19333W        W62324   4.610  15.329  16.636 -0.0754  0.1751 -0.2070
19334W        W62325  20.790   4.054   1.731  0.0418 -0.0246 -0.4485
19335W        W62326  19.280  33.553  20.725  0.0405 -0.1021  0.2031
19336W        W62327  15.993  32.227   7.229 -0.0412  0.0885 -0.1534
19337W        W62328  31.584  12.646  26.898  0.0395  0.0192  0.0537
19338W        W62329  21.930  34.533  21.930 -0.2479  0.1221  0.1118
19339W        W62330   5.172  31.235   4.798 -0.2572 -0.3450 -0.2878
19340W        W62331  12.905   5.706   6.994 -0.3581 -0.2139 -0.2163
19341W        W62332  29.548  30.597   8.019  0.0746 -0.2254  0.2608
19342W        W62333   7.910  31.205   9.274 -0.0479 -0.0236  0.0667
19343W        W62334   7.214  29.331   7.207 -0.1127 -0.1296 -0.1782
19344W        W62335   1.054   3.020   8.716  0.0383  0.1855  0.0328
19345W        W62336  27.746  12.619   8.468  0.0704  0.2236  0.1465
19346W        W62337  16.738  29.163   8.708  0.2248  0.0426 -0.0753
19347W        W62338  21.863  34.220  26.960 -0.0544 -0.2080  0.0363
19348W        W62339   7.809  31.404  26.566 -0.2410 -0.2339 -0.0097
19349W        W62340  15.820  29.614   7.485 -0.1291  0.0354 -0.0100
19350W        W62341  26.832   1.748  22.703  0.1330 -0.2654  0.0739
19351W        W62342  20.922  17.565   6.908  0.0843 -0.2590 -0.0546
19352W        W62343  12.501   9.194   9.294 -0.4902  0.0346  0.0140
19353W        W62344  18.144  14.807   3.075  0.2110  0.1113  0.1169
19354W        W62345  27.143  13.679  25.126 -0.3304 -0.0697  0.1927
19355W        W62346  18.620  34.138  24.654  0.1066 -0.0829  0.1997
19356W        W62347  21.284  12.780   0.682 -0.2351 -0.0269 -0.1748
19357W        W62348  21.720  10.218  25.498  0.1444 -0.2479 -0.0496
19358W        W62349   8.253  13.476   5.576 -0.2687 -0.0864 -0.1458
19359W        W62350   6.803  14.950   7.474 -0.1019 -0.2179 -0.1760
19360W        W62351   7.650  31.684   7.237 -0.1563 -0.0201 -0.1654
19361W        W62352  24.993  20.316  18.956 -0.2561 -0.3004 -0.0075
19362W        W62353  23.649   2.270   1.024 -0.2204 -0.0830 -0.1957
19363W        W62354  25.851  32.138  20.335  0.4449  0.1684  0.1587
19364W        W62355  21.132  13.661   8.895  0.1799 -0.0380 -0.0242
19365W        W62356   5.348  31.406   7.525  0.0927 -0.1226  0.2447
19366W        W62357  32.187  15.166  20.592 -0.0504  0.1557  0.0480
19367W        W62358  16.176   3.112   9.724  0.1049 -0.1828  0.1609
19368W        W62359  29.543  28.419  27.885  0.0862 -0.2888 -0.2817
19369W        W62360  25.816   0.020   4.911  0.4425  0.0730 -0.0600
19370W        W62361   8.986   1.187   1.801 -0.1699 -0.3485 -0.0332
19371W        W62362   4.745  14.309   4.189  0.2928 -0.1320 -0.1268
19372W        W62363  33.426   1.906   2.751  0.0536 -0.2934  0.1594
19373W        W62364   2.574  22.081  11.121 -0.0272 -0.0571  0.1801
19374W        W62365  15.187  33.759  18.000 -0.2523 -0.0296  0.1859
19375W        W62366  21.497  26.197   9.056  0.1182  0.0247  0.2149
19376W        W62367  26.370  33.646   1.402 -0.2666 -0.0400  0.2761
19377W        W62368  12.336  28.125   3.691 -0.1357 -0.0872  0.1204
19378W        W62369  24.261   2.173   2.047  0.1107  0.1224  0.0803
19379W        W62370  32.599   4.704   7.816 -0.1813  0.0000 -0.1165
19380W        W62371  11.941   0.843   7.403 -0.2561 -0.1254  0.1336
19381W        W62372  24.232   4.341   9.145 -0.1035 -0.0955  0.1257
19382W        W62373  28.196   9.875   7.089  0.0378  0.4167  0.1247
19383W        W62374  34.045  34.317   4.019 -0.0723 -0.1442  0.3297
19384W        W62375  25.006   4.920   6.935  0.0519  0.3714  0.3038
19385W        W62376   7.749   1.170   9.690 -0.2217  0.2424  0.4737
19386W        W62377   0.671   5.946   2.197 -0.1292 -0.1350  0.2527
19387W        W62378  29.094   2.882  16.014 -0.0925  0.0384  0.0195
19388W        W62379  27.061  26.772   7.235 -0.3802 -0.1766 -0.1021
19389W        W62380   7.147   6.399   0.528  0.1062 -0.0494  0.0354
19390W        W62381  28.345  31.549  21.934  0.2605  0.0888  0.0952
19391W        W62382  15.400  24.428   7.754 -0.2552  0.0261 -0.1463
19392W        W62383  21.211  29.261   6.537  0.0777 -0.1946  0.1733
19393W        W62384  28.176  31.417   4.484  0.0976  0.4537  0.0570
19394W        W62385  34.262  21.109  28.752 -0.0544 -0.2183  0.2029
19395W        W62386   6.337  34.348  28.610 -0.1364  0.3247  0.0490
19396W        W62387  25.546  11.537  27.580 -0.3433 -0.0003 -0.2103
19397W        W62388  24.155  33.255   1.950  0.1913 -0.2539  0.1289
19398W        W62389   6.907  30.461   2.209 -0.2803  0.2364  0.1093
19399W        W62390  33.745   8.457   2.603  0.2880 -0.0324  0.2715
19400W        W62391  24.021   9.810  15.453 -0.1838 -0.1097 -0.0983
19401W        W62392   4.904  14.972  22.426 -0.2064 -0.2101 -0.1557
19402W        W62393  24.838  15.919   1.344 -0.1680  0.0918  0.1197
19403W        W62394  19.096   2.767   4.587  0.1069  0.1470 -0.0362
19404W        W62395  14.860   1.700  27.530 -0.1553 -0.3100 -0.3424
19405W        W62396   0.837   5.878  27.942 -0.0698  0.0069  0.1281
19406W        W62397  24.405   9.121   8.125 -0.0962 -0.2797  0.0198
19407W        W62398  24.288   8.084  23.084 -0.1181  0.2684 -0.0524
19408W        W62399  16.938  28.871   8.006  0.2665  0.1830  0.0888
19409W        W62400  26.105   5.164   7.495 -0.1012  0.0005 -0.0098
19410W        W62401  28.638   1.868  23.074 -0.1284  0.0746  0.2541
19411W        W62402  16.411  10.252   6.971  0.0607 -0.3360 -0.3784
19412W        W62403  23.457  34.194   5.031 -0.0926 -0.1487  0.1862
19413W        W62404  27.352  10.103  19.194 -0.0469  0.2083 -0.1940
19414W        W62405   0.492  27.376  18.452 -0.3301 -0.0220 -0.1415
19415W        W62406  18.177  13.649  28.743 -0.1396 -0.2707 -0.1618
19416W        W62407  22.713  33.553  18.185 -0.0085  0.0219 -0.2754
19417W        W62408  22.770   0.977  25.400 -0.0595 -0.0292  0.0627
19418W        W62409  11.119  30.914  22.373 -0.1485  0.2054  0.4702
19419W        W62410  25.751  24.920   5.301  0.0153 -0.3207  0.2043
19420W        W62411  18.690  26.126   0.128 -0.1519  0.2226  0.1588
19421W        W62412  14.034   4.154   1.655  0.0969 -0.0077  0.1453
19422W        W62413  14.100  10.672   8.396 -0.1557 -0.0475  0.1889
19423W        W62414  18.163  27.399   3.226  0.0854 -0.1916  0.0732
19424W        W62415  16.285  16.011   6.184 -0.2703  0.1295  0.5585
19425W        W62416   8.935  25.349   4.218  0.4259 -0.0429 -0.1839
19426W        W62417  19.577  28.077   9.403 -0.1730 -0.4609  0.0958
19427W        W62418  32.518  30.955  18.528 -0.1795 -0.3934 -0.0069
19428W        W62419   7.817  16.732   1.159  0.1647  0.4181 -0.0001
19429W        W62420  22.905  17.086  18.380  0.0452 -0.1105 -0.0521
19430W        W62421  15.492  34.764   6.852 -0.3729  0.3648  0.0174
19431W        W62422  12.696  32.485   1.225 -0.0944 -0.0327 -0.0011
19432W        W62423  10.824  28.141   7.540 -0.2556 -0.0868  0.0435
19433W        W62424   3.364  22.702   1.941 -0.0099  0.2775 -0.1930
19434W        W62425  19.501  31.736  17.692  0.0231  0.4045 -0.2924
19435W        W62426  32.262  21.179   9.575  0.1955  0.2562 -0.1028
19436W        W62427  18.949   7.716  27.379  0.1301 -0.0324  0.1958
19437W        W62428  11.319   2.013  23.547  0.1239  0.1223 -0.1517
19438W        W62429  11.437   7.155   7.139 -0.2697 -0.2175  0.0735
19439W        W62430  14.691   6.035   9.198 -0.2630 -0.0502 -0.2106
19440W        W62431  24.852  26.155   8.236  0.0013  0.0406 -0.0405
19441W        W62432  18.211  33.719  28.887 -0.1331  0.3219 -0.1600
19442W        W62433  31.062   3.078  24.173  0.0523  0.0882  0.1121
19443W        W62434  25.600  29.917  25.360  0.2214  0.1206 -0.0322
19444W        W62435  18.694  12.620  14.807 -0.0533  0.0474 -0.1219
19445W        W62436  21.295  31.254   9.162 -0.3692  0.1554 -0.1494
19446W        W62437   7.464   7.303   8.338 -0.1220 -0.3508 -0.3355
19447W        W62438  22.714   3.712  23.485 -0.0213 -0.1406 -0.0753
19448W        W62439  31.229   0.288   1.113  0.0063  0.2830 -0.0229
19449W        W62440  26.979  25.715   2.930 -0.1351  0.3178 -0.1114
19450W        W62441  34.334   6.039  10.132 -0.1224 -0.0108 -0.2364
19451W        W62442  20.596   4.573   5.116  0.0509 -0.0220  0.0713
19452W        W62443  30.324  18.962   1.446 -0.0043 -0.2979  0.0897
19453W        W62444  17.540  26.166   7.587 -0.1662  0.1317 -0.0040
19454W        W62445  22.044  32.013   9.483 -0.2105  0.1704  0.1667
19455W        W62446  27.132   7.038   0.331 -0.0301 -0.2370 -0.0006
19456W        W62447  34.625   9.451   3.320  0.0736  0.0991  0.4550
19457W        W62448  30.145   9.041  29.093 -0.1634 -0.0233  0.1358
19458W        W62449  13.463  18.288  16.065  0.1586 -0.0698  0.1792
19459W        W62450  20.765  20.999   7.527 -0.3170 -0.0678  0.0575
19460W        W62451   5.650  25.143   6.557  0.0758  0.0770 -0.0121
19461W        W62452  26.738  12.365   3.676 -0.2335 -0.2315 -0.1933
19462W        W62453   7.498   5.207   2.522 -0.1889  0.0499 -0.0702
19463W        W62454   0.658   6.122  28.392  0.0485  0.1438 -0.1601
19464W        W62455  19.133  13.286   0.136  0.1338 -0.0757  0.0657
19465W        W62456  25.783  29.621  28.861  0.3051 -0.0956  0.0495
19466W        W62457  10.178  17.565   7.323 -0.0718 -0.1168 -0.1021
19467W        W62458  11.316  31.210  16.596  0.1157 -0.1584  0.0166
19468W        W62459  26.260   6.729  14.308 -0.2261  0.2814  0.0909
19469W        W62460  33.737  22.739  20.913  0.1365 -0.3007  0.0511
19470W        W62461  26.487  32.259  27.652 -0.0034  0.0032 -0.0002
19471W        W62462  20.715   8.833  19.012  0.1748  0.1058 -0.1122
19472W        W62463  31.947  21.550  24.838  0.0476  0.0039  0.1693
19473W        W62464  21.573   1.437   1.818  0.1649  0.0388  0.2799
19474W        W62465  18.036   8.058  10.128  0.0766  0.0861 -0.0821
19475W        W62466  24.370  27.424   8.607  0.2814 -0.0952  0.3715
19476W        W62467  12.207  29.379   7.636 -0.0521  0.0397 -0.0366
19477W        W62468  16.757  17.196  24.679 -0.2453 -0.0053 -0.0870
19478W        W62469   3.211  11.258  22.982  0.3925  0.1171  0.0320
19479W        W62470   0.822   5.593   0.708  0.0265  0.0350  0.1425
19480W        W62471  23.281  10.667  22.403 -0.0511  0.0946 -0.2872
19481W        W62472  27.766  27.990  28.866  0.2430 -0.0255 -0.0378
19482W        W62473   1.052  25.385   9.595  0.2564 -0.2954 -0.0875
19483W        W62474  28.663  24.875  28.095  0.1207  0.1088  0.1479
19484W        W62475  25.432   0.856   8.049  0.0663 -0.4199  0.4210
19485W        W62476   4.566  26.747  10.229  0.0876 -0.0956 -0.1997
19486W        W62477  27.965  34.252   5.092  0.2112 -0.0965 -0.0413
19487W        W62478  23.250  28.990   4.587  0.1379 -0.0513  0.0072
19488W        W62479  23.625   3.047   8.188 -0.0499  0.0282  0.1863
19489W        W62480  24.965  14.616  26.018  0.0291 -0.1419 -0.0174
19490W        W62481   9.856   4.797   3.493 -0.0205  0.1912  0.1444
19491W        W62482   3.486  33.889  23.552  0.0416 -0.2609  0.1559
19492W        W62483  15.574   2.484   1.716 -0.5806  0.3523  0.2679
19493W        W62484  21.962  29.266   0.558  0.0402 -0.4288  0.2650
19494W        W62485  23.923  22.191  27.881  0.0193  0.2492  0.0639
19495W        W62486  16.413   8.158  17.084 -0.0621 -0.0921  0.1054
19496W        W62487  34.308   4.531   4.604  0.0231 -0.5018  0.2052
19497W        W62488  28.587  26.673   2.372 -0.0885 -0.1572 -0.0177
19498W        W62489  14.578   3.964  26.178 -0.1127 -0.1520 -0.0783
19499W        W62490  12.771  23.341  26.403  0.0340  0.0678  0.0927
19500W        W62491  23.267  16.150   2.308 -0.1059 -0.3564 -0.2139
19501W        W62492  14.470  26.044   3.104 -0.0357  0.2054  0.1045
19502W        W62493  21.272   5.344   8.012  0.0580 -0.2025  0.0405
19503W        W62494  12.937   3.728  24.347 -0.1935  0.0261  0.5401
19504W        W62495  15.997   1.767   7.621 -0.2072 -0.0882 -0.3470
19505W        W62496  12.661   2.346   6.840 -0.1505 -0.0932 -0.0486
19506W        W62497  28.498  16.426   2.879  0.2635  0.1778  0.2019
19507W        W62498   4.374  28.469   1.846  0.0441 -0.1623  0.1187
19508W        W62499  22.178  31.412  17.478 -0.1743  0.0010 -0.2700
19509W        W62500  13.170  13.137   2.824  0.0664  0.0437  0.1759
19510W        W62501  24.663  32.227  25.803 -0.1558 -0.5073 -0.1038
19511W        W62502  29.309   4.755   0.807 -0.0618 -0.2698  0.1861
19512W        W62503  17.121  16.104   5.094 -0.1114 -0.0764 -0.2346
19513W        W62504  34.009   4.459   9.335 -0.3308  0.1482  0.0860
19514W        W62505   2.900  11.359   0.338 -0.1459 -0.2106 -0.0416
19515W        W62506  19.655   7.414   6.188  0.1360  0.0997  0.0226
19516W        W62507  14.354  29.238   1.080 -0.2191 -0.2685 -0.0662
19517W        W62508  24.867  17.378  22.102 -0.1247 -0.4421  0.4653
19518W        W62509  13.841  19.039   4.699 -0.0145 -0.1481 -0.1654
19519W        W62510  29.317  13.919   3.128 -0.3844 -0.2488 -0.5012
19520W        W62511  23.951   7.108   8.940  0.2567 -0.0203 -0.0818
19521W        W62512  30.970  33.465  23.819 -0.3750 -0.1915  0.1501
19522W        W62513  15.183  11.245  25.929  0.1629  0.0143  0.0084
19523W        W62514  30.856   5.963   6.428 -0.3014  0.0123  0.0229
19524W        W62515  20.043  22.655   5.808 -0.3936  0.1063 -0.1187
19525W        W62516  25.844   0.582   7.734  0.1606 -0.1553  0.0683
19526W        W62517  23.643  24.140  17.820  0.2242  0.0488  0.2835
19527W        W62518  18.494  20.701   4.646  0.0516  0.0214  0.0031
19528W        W62519  33.939   6.390   5.161 -0.1294  0.2191  0.2353
19529W        W62520   3.601   8.531  11.089 -0.2873 -0.0944  0.1112
19530W        W62521  27.674  32.440  20.154  0.1059  0.2088 -0.1481
19531W        W62522  19.366  21.808   1.421 -0.1510  0.3198 -0.3960
19532W        W62523   1.275   0.189   6.377 -0.0144  0.0333 -0.2379
19533W        W62524  23.699  15.430   5.306  0.1807  0.0035  0.1099
19534W        W62525  20.731   0.271  25.720  0.0505  0.1140  0.1343
19535W        W62526  28.809  17.386   0.400 -0.0499  0.1747  0.2121
19536W        W62527  17.720  29.237   2.318 -0.0447  0.0713 -0.1829
19537W        W62528  20.695   6.794  22.661  0.0921  0.1355 -0.0020
19538W        W62529  29.364  19.915   1.406  0.1223 -0.1318 -0.0679
19539W        W62530  32.198  25.823  18.433 -0.0630  0.1900  0.0194
19540W        W62531  11.137   2.118   2.813  0.0237  0.0528 -0.0025
19541W        W62532  32.794  12.654  27.008 -0.1916 -0.0789 -0.1545
19542W        W62533  15.287  19.410   1.416  0.2587 -0.1625  0.3010
19543W        W62534  11.536   1.985   8.292  0.1233 -0.0499 -0.0323
19544W        W62535   6.614  30.973   8.559  0.2707  0.1096  0.2248
19545W        W62536  19.049   7.454   2.230  0.0037 -0.1082  0.0563
19546W        W62537  29.052  30.448   0.484 -0.2190  0.1276 -0.0798
19547W        W62538  23.315  12.008   4.082  0.1157 -0.1278  0.3212
19548W        W62539   2.375   6.382  17.092  0.0280 -0.1982 -0.2958
19549W        W62540  22.401  32.028   8.513 -0.3153 -0.0641 -0.1694
19550W        W62541   7.005  10.429  17.164  0.1942 -0.0290  0.0211
19551W        W62542   4.199   6.760   1.359  0.0723  0.2438 -0.2444
19552W        W62543  18.033  21.429   6.049 -0.0922  0.0508 -0.2062
19553W        W62544  23.075  28.905   8.458  0.0483 -0.0898  0.1632
19554W        W62545   5.662  31.580  24.636  0.2701 -0.3615  0.2862
19555W        W62546   7.410  24.464  25.512 -0.0328 -0.0655 -0.2063
19556W        W62547   0.102  22.318   8.427 -0.1179  0.0093  0.2074
19557W        W62548  31.300   6.488  23.462  0.0515  0.1944  0.1745
19558W        W62549  11.130   4.082  11.424  0.2768  0.3771 -0.0319
19559W        W62550  23.545   0.402  25.733 -0.0917 -0.0281  0.0102
19560W        W62551  18.274  31.573   7.140  0.1336 -0.0427 -0.0276
19561W        W62552  14.221  29.905   7.976 -0.0056  0.0181  0.1668
19562W        W62553  20.022  13.162   0.280 -0.1494 -0.1384  0.0884
19563W        W62554  23.575  21.719   7.671  0.0706 -0.3017  0.0978
19564W        W62555   9.513   4.121   4.167 -0.3026  0.0337 -0.2840
19565W        W62556  22.399   3.192  26.123  0.0668  0.1591  0.0280
19566W        W62557  14.903  31.805   7.995  0.0519  0.1999 -0.0631
19567W        W62558  23.903  18.598  26.878  0.0013 -0.0996  0.0419
19568W        W62559  23.793  18.034   4.165 -0.1081  0.4684 -0.2432
19569W        W62560  20.112  21.936   7.500  0.0464  0.0859 -0.2103
19570W        W62561  20.440  19.601   3.461 -0.0986  0.0140 -0.0639
19571W        W62562  16.757   1.567   9.889  0.1449  0.0637 -0.2296
19572W        W62563  19.668  22.282  27.935  0.1221 -0.3185 -0.0681
19573W        W62564   7.647  23.862   7.661  0.0057  0.0205  0.2257
19574W        W62565  20.293   6.475   2.382 -0.2965 -0.2584 -0.0231
19575W        W62566  32.429  32.094  19.331  0.1265 -0.2643 -0.0254
19576W        W62567  15.129  26.659   5.541  0.0507  0.2103 -0.3951
19577W        W62568  34.716  13.592   0.717  0.1933  0.2871  0.2135
19578W        W62569  25.701  34.398   9.449  0.0554  0.2419 -0.3628
19579W        W62570  16.877  34.118   0.901  0.0729  0.2827 -0.1458
19580W        W62571   7.757   3.858   4.963 -0.1160 -0.0881  0.3425
19581W        W62572  15.709  33.354   8.414  0.0755  0.0555 -0.1129
19582W        W62573  14.513  23.272  28.307 -0.0062  0.1699 -0.0104
19583W        W62574  23.115   4.420  13.412  0.0142 -0.0526 -0.2258
19584W        W62575  10.431  33.316   9.985 -0.1618 -0.2602  0.2846
19585W        W62576  18.158  20.882   0.050  0.2465 -0.3772  0.0327
19586W        W62577  29.978  32.097  28.552  0.0916 -0.0589 -0.0362
19587W        W62578  17.816  23.276   4.366  0.2630  0.2115 -0.1337
19588W        W62579  32.941  29.654   1.074  0.0560  0.1513 -0.2047
19589W        W62580  22.281   2.782  26.336 -0.0167  0.0380  0.1534
19590W        W62581  21.820  16.159  23.171  0.2234  0.1846  0.2003
19591W        W62582  14.738   8.781   9.475 -0.0135 -0.2290  0.1892
19592W        W62583  29.424  20.030   9.271 -0.2303 -0.0595 -0.0992
19593W        W62584  18.378  23.677  22.880  0.2112 -0.1645  0.2472
19594W        W62585  15.441   2.762   7.916  0.0608 -0.0970  0.1377
19595W        W62586  21.507  10.923   9.568 -0.3049  0.1575  0.0685
19596W        W62587  22.548   1.068   3.889  0.2158 -0.0036 -0.2594
19597W        W62588   5.716  31.648   7.774  0.2643 -0.2198  0.1606
19598W        W62589  23.512  21.404   7.156 -0.1438  0.0985 -0.0363
19599W        W62590   7.805   5.538   4.020 -0.2669 -0.0422  0.1191
19600W        W62591  34.399   8.536   5.505 -0.1893  0.1992  0.2545
19601W        W62592  22.537  27.306   3.764 -0.0236 -0.0540  0.0418
19602W        W62593  17.760   1.137  26.843 -0.0190 -0.0663  0.1057
19603W        W62594  12.177  12.940   8.588 -0.0753 -0.3332 -0.0262
19604W        W62595  13.827  32.921   1.049 -0.3393 -0.1339  0.0819
19605W        W62596   8.994   5.942   2.635 -0.1212 -0.0060 -0.3855
19606W        W62597   4.916  34.472  19.873 -0.0250 -0.4236  0.1584
19607W        W62598  17.485  24.726   1.765  0.1570 -0.0719  0.1355
19608W        W62599  33.481  15.134   8.695 -0.1194 -0.2429 -0.2276
19609W        W62600   7.806  10.103  11.154  0.1433  0.2097  0.1457
19610W        W62601  23.580   7.423   1.274 -0.0674 -0.3291 -0.0881
19611W        W62602  21.718   4.584   4.139 -0.0004  0.2550 -0.1561
19612W        W62603  17.453  31.700   7.463 -0.0894  0.0308 -0.2170
19613W        W62604  28.009   0.403   4.771  0.1054  0.0436  0.0559
19614W        W62605  13.745   8.118   5.499 -0.1165 -0.2795  0.0892
19615W        W62606  27.548   0.383  18.002 -0.0874 -0.1356  0.1316
19616W        W62607  11.753  16.435   7.364  0.3380 -0.2023 -0.3933
19617W        W62608  30.544  32.600   7.468 -0.0378  0.2536 -0.1185
19618W        W62609  25.412   9.978   2.386  0.1941  0.3648  0.3805
19619W        W62610  19.878  27.759   3.030  0.0680  0.1896 -0.0545
19620W        W62611  27.031   5.451   4.442  0.5277 -0.1230 -0.2364
19621W        W62612   5.843   5.524  16.653 -0.0118 -0.3972 -0.1515
19622W        W62613  13.374   1.683   5.350  0.1576  0.3646 -0.0090
19623W        W62614  15.327  32.281   3.401  0.1634  0.4952 -0.0355
19624W        W62615   0.278  13.482  24.543 -0.0698 -0.1266 -0.0555
19625W        W62616  32.375  34.373   1.465  0.2840 -0.0077 -0.1860
19626W        W62617  11.838  10.438   3.571 -0.1836  0.2738 -0.0426
19627W        W62618  27.148   3.899   7.138 -0.1299 -0.2732 -0.0138
19628W        W62619  34.078  31.253   1.023  0.0044  0.2417 -0.1222
19629W        W62620  13.475  25.330  25.420 -0.2678 -0.3286  0.0992
19630W        W62621  29.870  28.722   8.148  0.0013 -0.2375 -0.0480
19631W        W62622  33.370  25.796  28.255 -0.1496  0.2315  0.1736
19632W        W62623  24.409  23.440   3.363  0.2797 -0.3506 -0.2336
19633W        W62624  25.027  10.784  28.062 -0.0692 -0.1207  0.0621
19634W        W62625  20.466  23.674   9.328 -0.0188 -0.0587 -0.3329
19635W        W62626  30.758  30.334   1.821 -0.0095 -0.1629  0.0218
19636W        W62627  31.666  11.499  23.963 -0.0813  0.2182  0.0239
19637W        W62628  29.830  15.640   6.545  0.1540  0.2001  0.0968
19638W        W62629  12.101   6.374   0.083 -0.6143  0.0631  0.0210
19639W        W62630  28.166  26.657   1.037  0.2553 -0.1955  0.0979
19640W        W62631  27.350   6.830   0.750  0.2130  0.0064  0.1123
19641W        W62632   3.269  34.502  20.435  0.0728 -0.1268  0.1834
19642W        W62633  25.851   3.055  21.464 -0.1380  0.1391  0.2916
19643W        W62634  32.528  15.911  11.725 -0.1378 -0.0532  0.0316
19644W        W62635  32.401   4.564   5.824  0.1817 -0.0258  0.1237
19645W        W62636  25.174  27.627   2.863  0.0168 -0.0580  0.0951
19646W        W62637  28.227  23.341  26.988 -0.1348 -0.1093 -0.2226
19647W        W62638  26.748  16.653   2.530 -0.1675 -0.2722  0.1627
19648W        W62639   8.609  10.036   4.555  0.1231  0.1480 -0.0027
19649W        W62640   3.040  34.010   6.229 -0.0939 -0.4878 -0.3684
19650W        W62641  22.863  32.685   7.307  0.1089 -0.0976  0.2628
19651W        W62642  31.384   4.572   8.261  0.0186 -0.2409  0.2218
19652W        W62643  10.847   6.346   8.417  0.2601  0.0177  0.0052
19653W        W62644  20.174  12.273  26.424  0.3913  0.1332 -0.3168
19654W        W62645  15.209  34.679   6.340  0.1724  0.0103 -0.0045
19655W        W62646  21.847  12.997   3.855  0.0836 -0.1850 -0.1327
19656W        W62647  12.755  29.933   6.692 -0.1998  0.1622  0.0401
19657W        W62648  32.204  24.005  27.512  0.0557 -0.0418  0.0189
19658W        W62649  32.041   0.948   7.565  0.0105  0.1042  0.2547
19659W        W62650  17.046   7.863  27.943  0.1847  0.2511  0.0527
19660W        W62651   4.154  22.016   6.995  0.0226 -0.0318 -0.2199
19661W        W62652  27.977  32.161  21.033  0.1582 -0.0549 -0.2560
19662W        W62653  23.518  27.575  23.437 -0.1036  0.0498 -0.0987
19663W        W62654  10.337   1.742   8.717  0.1677 -0.1989 -0.2174
19664W        W62655  30.097  24.211  17.135 -0.3288 -0.1158  0.1650
19665W        W62656  30.072  14.437   5.125 -0.0399  0.0535  0.1149
19666W        W62657  22.450  16.337  26.420  0.1305  0.4493  0.1123
19667W        W62658  15.886  10.563  23.689  0.1120  0.1163  0.3696
19668W        W62659  16.701   0.081   9.578 -0.1509 -0.0595 -0.0152
19669W        W62660  30.327  15.729   6.424 -0.0213  0.2120 -0.0065
19670W        W62661  29.301  23.837  20.491 -0.1098 -0.1184 -0.1229
19671W        W62662  19.053   0.067  10.128 -0.3324  0.0462 -0.1652
19672W        W62663  16.785   5.840   4.120 -0.2229  0.2930  0.3166
19673W        W62664  21.480   0.818   8.667  0.1721  0.1238  0.2604
19674W        W62665  15.922  27.372  24.905  0.2069  0.0982  0.1839
19675W        W62666  27.159  14.361   4.687 -0.0391  0.2561  0.1134
19676W        W62667  16.906  10.469  26.969 -0.1335 -0.0450 -0.1442
19677W        W62668  24.905  22.721  20.880 -0.0657 -0.2549  0.0849
19678W        W62669  14.065  16.746  25.810 -0.2181  0.2986 -0.2489
19679W        W62670   5.499  29.646  26.993  0.1788 -0.0038 -0.1702
19680W        W62671   4.035  26.954   9.190  0.3007  0.0100 -0.2539
19681W        W62672   6.930  11.911   2.417 -0.2342  0.0357  0.1894
19682W        W62673  23.746  34.496  17.264  0.0563 -0.3734  0.0689
19683W        W62674   3.123   1.756   5.757 -0.0399  0.0203 -0.0461
19684W        W62675  25.174  30.885   1.161 -0.0533  0.0027  0.3914
19685W        W62676  19.111   4.503  28.765  0.3881  0.0526 -0.1752
19686W        W62677  20.377   7.212   5.032  0.0982 -0.1668  0.0664
19687W        W62678  22.319  30.508   2.392 -0.3694 -0.1316  0.1561
19688W        W62679   2.459  31.597  19.922 -0.0464 -0.2558  0.1369
19689W        W62680  32.730  22.310   6.412  0.1432 -0.0250  0.1517
19690W        W62681  23.239  19.648   4.256 -0.0666  0.1898  0.3869
19691W        W62682   4.796  32.758   8.496  0.0068  0.0729 -0.0131
19692W        W62683  25.269   9.311   1.983 -0.0602  0.0773  0.2715
19693W        W62684  32.320  31.259   3.906 -0.1472 -0.2831  0.2068
19694W        W62685  29.093  14.306  26.610  0.2583  0.2466  0.0528
19695W        W62686  23.974   0.970   4.719 -0.2235  0.2473  0.0983
19696W        W62687   7.066  32.533  28.919  0.1232 -0.1467 -0.2327
19697W        W62688  20.134  28.148  22.987 -0.1323 -0.0909  0.2813
19698W        W62689  24.662  10.883   2.793 -0.1023 -0.2131 -0.4164
19699W        W62690  12.322   9.261   8.734  0.1127 -0.0557  0.0486
19700W        W62691  15.077  11.876   7.907 -0.0598  0.1220 -0.0187
19701W        W62692  20.956  33.031   4.234 -0.2705  0.3084 -0.0688
19702W        W62693   8.751  24.096  15.193  0.1799  0.0853  0.0365
19703W        W62694  20.472  24.802   9.323 -0.1056  0.0278 -0.0540
19704W        W62695  31.010  29.866   6.394  0.1789  0.0753  0.0034
19705W        W62696  10.241   3.024   3.309  0.0227  0.1540  0.0095
19706W        W62697  24.362  33.725   8.073  0.0167  0.0300  0.1854
19707W        W62698  31.359  21.235   2.107  0.2587  0.2960 -0.2223
19708W        W62699  11.747   7.179  23.684  0.1928  0.1010 -0.4335
19709W        W62700  27.315  13.582   9.526 -0.1571  0.0960 -0.1038
19710W        W62701  18.783   2.793   9.492 -0.1905 -0.2915 -0.2260
19711W        W62702  16.073   7.317   5.788  0.0001 -0.3514 -0.0478
19712W        W62703  31.312  29.435   2.987 -0.3146  0.0574  0.0274
19713W        W62704  22.156   4.040  26.945  0.1554 -0.2269 -0.1655
19714W        W62705  33.193   0.955  28.895  0.1505 -0.0128 -0.1101
19715W        W62706  24.517   5.094   1.502 -0.2615 -0.0988 -0.1449
19716W        W62707  32.920   0.988  25.022  0.2403  0.1820 -0.0630
19717W        W62708  11.850  34.407   5.433 -0.0082  0.0269 -0.2581
19718W        W62709  26.648   0.175   7.277  0.2137 -0.2028 -0.1330
19719W        W62710  31.325  27.476  16.663  0.0861 -0.1272  0.0460
19720W        W62711  18.591  34.385   3.759  0.0513  0.1062  0.1605
19721W        W62712  12.828  20.672   7.098  0.0429 -0.0873  0.2321
19722W        W62713  17.641   2.082   9.075 -0.1062 -0.1202 -0.1450
19723W        W62714  32.075   0.216   9.070  0.0222  0.0742 -0.1987
19724W        W62715  10.100  32.026   7.728  0.1002  0.2599 -0.1817
19725W        W62716  22.355  21.307   0.466 -0.0616  0.2476  0.0145
19726W        W62717  27.997  33.476  23.035  0.3753  0.1767  0.0230
19727W        W62718  15.182  12.770   4.479 -0.0261  0.1790 -0.0421
19728W        W62719   1.863   6.154   0.472  0.0101  0.1263  0.3919
19729W        W62720  21.134   1.225  23.891 -0.0798  0.1284 -0.0013
19730W        W62721  16.830  26.578   4.940 -0.2096 -0.2973 -0.0602
19731W        W62722  27.301   2.363  25.081  0.2134 -0.2098  0.1838
19732W        W62723  22.540  25.357   4.917 -0.1656 -0.2708 -0.0039
19733W        W62724  24.054  10.172   8.705 -0.4165 -0.2267 -0.0859
19734W        W62725  20.783  29.898  26.376  0.0874 -0.3826  0.2984
19735W        W62726  16.784  27.716  20.364  0.0321  0.4712  0.0006
19736W        W62727  10.585  22.945   2.669  0.1576 -0.3259  0.1148
19737W        W62728  17.925  11.446   5.931  0.1548 -0.2259  0.0264
19738W        W62729  16.095  28.763   9.671 -0.1544  0.3201 -0.2375
19739W        W62730  13.517   3.979  25.877 -0.1636  0.2389 -0.0128
19740W        W62731   5.084   8.593  11.084  0.3078  0.0799 -0.0155
19741W        W62732  24.447  32.645   8.025  0.1704 -0.3856  0.3886
19742W        W62733  26.412  16.237   6.479 -0.2086 -0.2351  0.4659
19743W        W62734  25.694  27.934   2.231  0.0618 -0.0899  0.1420
19744W        W62735   7.815  30.210  25.866  0.0650  0.0617 -0.3265
19745W        W62736   8.500  30.454  20.444  0.0251 -0.2247  0.0867
19746W        W62737  20.891  21.685  15.374  0.0358 -0.0533  0.1025
19747W        W62738  18.923  10.759   2.382  0.0728 -0.0412  0.2059
19748W        W62739  34.635   0.603   7.588 -0.3144 -0.1438  0.4467
19749W        W62740  21.233   6.144   7.246  0.5718  0.0429 -0.0630
19750W        W62741  16.976  27.036  27.968 -0.0637 -0.0596 -0.1369
19751W        W62742  17.583  28.037   6.949  0.1139 -0.0313  0.1787
19752W        W62743  21.211  24.753  22.203  0.0468  0.0238 -0.0032
19753W        W62744  31.174  27.374   0.197 -0.0847 -0.0431 -0.2586
19754W        W62745  17.522   0.839   5.929 -0.0245  0.0094  0.1030
19755W        W62746  16.290   6.574   5.514  0.1924  0.1211  0.1969
19756W        W62747  11.569   5.058  23.111  0.0253  0.1320  0.3926
19757W        W62748  29.479  34.529  15.820 -0.2229 -0.0017 -0.1192
19758W        W62749  28.856  15.545  20.281  0.0112  0.2435  0.0375
19759W        W62750  16.712  21.543  26.469 -0.0071  0.1918 -0.0313
19760W        W62751  25.652   1.009  23.733 -0.0899  0.3208 -0.0366
19761W        W62752  33.095   4.818   1.719  0.3746  0.0048  0.0497
19762W        W62753  22.093  28.767   0.491 -0.1807  0.0640 -0.1351
19763W        W62754  16.771   1.440  28.796  0.3010 -0.0230  0.0948
19764W        W62755  19.754   9.926   5.496 -0.2304  0.1549  0.1703
19765W        W62756  16.658  25.808   3.660  0.2362 -0.0343  0.0704
19766W        W62757   8.636  30.302  19.961 -0.1352 -0.0351 -0.2419
19767W        W62758   3.066  28.625  25.646  0.2784 -0.0762  0.2233
19768W        W62759  30.943  26.874   8.084 -0.0176 -0.1748  0.1475
19769W        W62760  27.877   7.710  28.565  0.1604  0.0252  0.2303
19770W        W62761  19.960   2.563  26.428 -0.1053 -0.1112  0.1950
19771W        W62762  21.703  14.128   3.535 -0.1801 -0.1633  0.1133
19772W        W62763  22.671   0.547  28.336  0.1528 -0.1185 -0.3216
19773W        W62764  18.381   6.894   7.212 -0.1101  0.1909  0.0771
19774W        W62765  30.105  29.712   6.860 -0.1688  0.3738 -0.0981
19775W        W62766  24.784   6.066   5.357  0.2531 -0.1033 -0.0308
19776W        W62767  25.083  30.745   6.354  0.2046 -0.3456 -0.1064
19777W        W62768   3.186  22.314   0.667  0.0905 -0.1236 -0.2939
19778W        W62769  16.042   0.470   8.542 -0.3333 -0.0032 -0.4445
19779W        W62770  15.817  33.605  10.423 -0.0934 -0.0874 -0.0819
19780W        W62771  15.273  14.376  22.811 -0.0556 -0.5754  0.1611
19781W        W62772  27.709  20.291   1.970 -0.0373  0.2633  0.1344
19782W        W62773  27.025  23.807   5.677  0.3314 -0.2172  0.3403
19783W        W62774  22.080   7.272   5.716 -0.0384 -0.2175  0.0018
19784W        W62775  14.727  13.029  14.337 -0.0556  0.0404 -0.2187
19785W        W62776  15.313  10.380  26.131 -0.4361 -0.3553  0.3196
19786W        W62777  30.472  31.788   2.766  0.2860 -0.1318 -0.1002
19787W        W62778  34.733  34.091   4.649 -0.1440 -0.1741 -0.1834
19788W        W62779  14.462   7.596   6.193 -0.0599 -0.0679  0.1482
19789W        W62780  18.001  12.616   3.429 -0.0210 -0.1740 -0.1602
19790W        W62781  34.630  18.173   4.446  0.0051 -0.0176 -0.0689
19791W        W62782  15.889   6.774  10.624 -0.0552  0.5248  0.2110
19792W        W62783   5.355   4.648  11.357 -0.0446 -0.1823  0.3306
19793W        W62784  21.549  34.153  23.163  0.0737  0.2457  0.2886
19794W        W62785   4.450  12.542  26.216 -0.1778 -0.3629  0.2433
19795W        W62786  27.250   8.177   2.889  0.0297  0.1465 -0.1301
19796W        W62787  20.789  26.157  27.764  0.0961 -0.2399  0.0801
19797W        W62788  28.675   0.905   7.785  0.2899 -0.0198 -0.5766
19798W        W62789  27.548   7.202   8.368 -0.1990  0.0578 -0.0679
19799W        W62790  24.528   4.545   1.149  0.1913 -0.2001  0.0027
19800W        W62791  22.540  18.355  23.267 -0.0804 -0.0254 -0.0878
19801W        W62792   5.367  33.441  19.972  0.2002 -0.0595 -0.0346
19802W        W62793  23.554  18.683   8.481  0.0506 -0.1303  0.0358
19803W        W62794   7.246   7.952  16.325 -0.0782 -0.1269  0.1292
19804W        W62795  34.235  12.647  11.294  0.1658 -0.2471 -0.1942
19805W        W62796  20.958  14.658   6.060  0.2043  0.0834  0.1399
19806W        W62797  16.128   1.188  28.835  0.0800  0.3264  0.3110
19807W        W62798  20.999  22.076   1.058  0.0543 -0.1979 -0.0603
19808W        W62799  15.536   0.564   8.379 -0.0947 -0.1748  0.1533
19809W        W62800  15.111  27.571   3.692  0.2830  0.0291  0.1670
19810W        W62801   8.327  27.198  26.968  0.0485 -0.1336 -0.1514
19811W        W62802   3.247  32.734  19.708  0.3220 -0.4136 -0.1248
19812W        W62803   4.846   1.267  21.628 -0.1369 -0.0300  0.1995
19813W        W62804  33.518  10.055   2.317 -0.0638  0.0800 -0.1023
19814W        W62805  22.671  28.775   8.781  0.0966  0.2014 -0.1707
19815W        W62806   4.256  31.924   7.766  0.0465  0.1102 -0.0527
19816W        W62807  21.019  32.983  24.474  0.1456  0.3287  0.0386
19817W        W62808   7.424  26.515   6.466 -0.0862  0.0852  0.2199
19818W        W62809  22.226  20.222   3.977  0.2049  0.2607 -0.1344
19819W        W62810  24.380  28.248   0.440 -0.2236 -0.0868  0.0746
19820W        W62811  18.364  21.277  28.083  0.3489  0.4536  0.2032
19821W        W62812  19.674   4.337  13.255 -0.2708  0.1884 -0.1939
19822W        W62813  30.104   2.053   3.317 -0.1167 -0.0142 -0.3686
19823W        W62814  20.798  30.056   8.697 -0.4261 -0.1244 -0.1682
19824W        W62815  27.145   6.925   8.062  0.1843  0.1226 -0.0982
19825W        W62816  26.306   1.727   6.362  0.1395 -0.1036  0.1521
19826W        W62817  24.637  26.755   2.706 -0.3160 -0.0834  0.0122
19827W        W62818   6.153   4.245   8.850  0.1870  0.1419  0.2748
19828W        W62819  16.265  24.239  25.870  0.0438  0.3688 -0.0743
19829W        W62820  25.836   7.307   5.202 -0.1263 -0.0322  0.0075
19830W        W62821   5.892  29.840  22.050 -0.2594  0.2294 -0.2993
19831W        W62822  29.154  29.326   3.375 -0.2019 -0.0152  0.1630
19832W        W62823  20.104  27.642   7.060  0.0896 -0.0867  0.2382
19833W        W62824   8.831  31.763   3.880  0.3393  0.2110  0.0756
19834W        W62825  24.066  23.871  22.783  0.1980  0.0951 -0.3237
19835W        W62826  24.710  32.641   4.598 -0.1149  0.1565  0.1619
19836W        W62827  17.420  19.740   0.313 -0.2643  0.3883  0.0379
19837W        W62828  10.345  12.202   6.507 -0.0394  0.0648 -0.0087
19838W        W62829  31.095  13.376   8.021  0.2160  0.0765  0.1706
19839W        W62830  13.215   7.533  27.711  0.2733  0.1545 -0.1887
19840W        W62831  30.025  10.019   5.249  0.2007  0.2031 -0.2159
19841W        W62832  16.587  27.450  10.288 -0.2484 -0.0291  0.0553
19842W        W62833   2.469  25.114  27.873  0.0604  0.0316 -0.2491
19843W        W62834  19.969   2.231  20.261  0.2641 -0.2363  0.0330
19844W        W62835  26.217   9.058   0.151 -0.5811 -0.1005  0.0552
19845W        W62836   2.964  27.075  15.190 -0.2618  0.0350  0.1162
19846W        W62837  13.073  32.892   6.570 -0.2517 -0.0732 -0.0650
19847W        W62838   1.089   7.582   1.314 -0.2344 -0.3211  0.2580
19848W        W62839  28.694  32.257   8.110  0.1038  0.0696  0.1637
19849W        W62840  23.984  23.361  25.285  0.0059  0.2964  0.2823
19850W        W62841   0.220  21.319   7.714  0.2801 -0.0941 -0.2104
19851W        W62842  17.347   2.977   7.824  0.2244  0.1657 -0.0892
19852W        W62843  23.756   5.698  24.880 -0.0718  0.0792 -0.2600
19853W        W62844  16.807   9.882  17.041 -0.0074 -0.0204  0.2612
19854W        W62845  27.131   6.417   2.992  0.1209  0.0208 -0.2591
19855W        W62846  25.717  29.827   6.999 -0.0266  0.1619  0.0688
19856W        W62847  28.543  20.672  26.685  0.0693  0.0794  0.1242
19857W        W62848   5.424  11.561   9.312  0.1767 -0.1815 -0.0121
19858W        W62849  25.542  34.394  26.434  0.2864  0.1805  0.1669
19859W        W62850  19.946  10.082   6.635  0.1191 -0.2057  0.1838
19860W        W62851  33.503  33.720   2.381 -0.0654  0.2031 -0.1134
19861W        W62852  14.144   8.219   3.349 -0.1017 -0.2459  0.2441
19862W        W62853  10.531  30.057   8.229  0.4121  0.1039  0.2150
19863W        W62854  28.973  12.592   4.348 -0.3129  0.0363  0.1127
19864W        W62855  22.874  29.462   0.698  0.1191 -0.0424 -0.2431
19865W        W62856  31.227  19.142   0.059  0.0617 -0.1620  0.1223
19866W        W62857  20.150  22.682   1.617  0.1240 -0.0896 -0.1249
19867W        W62858  20.571   7.907  14.407 -0.2177 -0.0929  0.0719
19868W        W62859  23.007  10.562  28.790 -0.2179 -0.1176 -0.1498
19869W        W62860  23.101  31.272   4.014  0.1548 -0.2349 -0.2099
19870W        W62861  23.772  32.609   5.881  0.0024  0.0068 -0.4794
19871W        W62862  16.028  18.851   1.436 -0.2302 -0.0675 -0.1044
19872W        W62863  10.405  31.164   9.487 -0.0031 -0.2838  0.0746
19873W        W62864  17.657  11.259   7.432  0.0824  0.1032 -0.1053
19874W        W62865  15.126  30.095   6.373  0.2748 -0.2723 -0.0002
19875W        W62866  12.603   6.675  10.077 -0.0655 -0.1694 -0.0798
19876W        W62867  16.665  32.327  27.911 -0.2727 -0.1414 -0.2428
19877W        W62868  31.986  14.771   7.140 -0.1453  0.0696 -0.0318
19878W        W62869  12.895  32.931   3.944 -0.3864  0.0767 -0.0724
19879W        W62870  15.319   8.068  10.727 -0.0740 -0.1776  0.2816
19880W        W62871  27.430  13.159   3.667 -0.0509 -0.3329  0.1313
19881W        W62872  24.074   6.280   7.596  0.0263 -0.0769 -0.3657
19882W        W62873  19.980  30.080  27.942 -0.0045  0.1937 -0.2657
19883W        W62874  26.727  20.595  10.260 -0.0101 -0.2169  0.0580
19884W        W62875   8.243   1.139   9.753 -0.1211  0.3120  0.3579
19885W        W62876  12.137   1.663   2.846 -0.1138  0.2293  0.0332
19886W        W62877  16.327  31.088   1.979 -0.1416  0.0817  0.0613
19887W        W62878  22.381  10.754   4.605  0.3826  0.3289  0.0312
19888W        W62879  22.402   6.965   5.972  0.1978 -0.0593  0.3492
19889W        W62880  22.050  14.612  23.680 -0.0336  0.2307 -0.0142
19890W        W62881  14.560  23.299  25.626 -0.2889 -0.1352 -0.0150
19891W        W62882  10.464   3.866  24.162 -0.1546  0.2116 -0.0909
19892W        W62883  29.941  12.371   7.754 -0.2418 -0.1958 -0.2903
19893W        W62884  27.609  29.787   7.441 -0.2534  0.1324 -0.0380
19894W        W62885   6.348  29.082   3.788  0.0963 -0.3803  0.0854
19895W        W62886  11.370   6.441  25.756  0.2908  0.0037 -0.3569
19896W        W62887  30.623   6.289   7.483 -0.3937 -0.0155  0.4492
19897W        W62888  14.412  15.545   0.787 -0.3167  0.0969  0.1639
19898W        W62889  18.649  21.829  21.863  0.3438  0.0507  0.0599
19899W        W62890  11.657   0.755  25.219 -0.1763 -0.1523 -0.0711
19900W        W62891  11.565   1.952   2.622 -0.0061  0.0540  0.0541
19901W        W62892  22.971  32.943   0.946  0.1193  0.0863  0.5053
19902W        W62893  17.625   0.313   4.132 -0.0967  0.0083  0.1692
19903W        W62894   5.793   3.084   8.734 -0.1623 -0.2569 -0.1375
19904W        W62895  12.197  20.761   3.372 -0.3067 -0.1402  0.1479
19905W        W62896  18.461  26.044   9.306  0.0627  0.3562 -0.1443
19906W        W62897  28.409   5.127   8.445 -0.3182 -0.0494  0.2616
19907W        W62898   2.002  20.459  25.781  0.0882 -0.2616  0.4112
19908W        W62899   8.217  25.226   9.475 -0.0902  0.1958 -0.1170
19909W        W62900   5.913  31.636   2.166  0.0111 -0.0171  0.2986
19910W        W62901  16.719  19.368   6.821 -0.0746 -0.1779  0.0570
19911W        W62902  21.169   9.519   1.188 -0.4948 -0.4150  0.0832
19912W        W62903  26.175  21.774   2.749  0.2928 -0.1345 -0.0838
19913W        W62904  34.686  18.889   9.518  0.0199 -0.0390 -0.2201
19914W        W62905  32.245  17.965   9.489 -0.1590 -0.0094 -0.3491
19915W        W62906  31.243   6.594   7.139  0.1331 -0.2561  0.1916
19916W        W62907  31.674  26.470   8.784  0.4642 -0.3192  0.2989
19917W        W62908  11.237   4.092  29.141  0.2374  0.1653 -0.1872
19918W        W62909  31.815  17.754  10.362 -0.2497  0.2988  0.0350
19919W        W62910  31.160   2.559   6.854  0.2842  0.0225 -0.0085
19920W        W62911  20.527  25.950   8.321  0.0776  0.1552 -0.3789
19921W        W62912  14.120  10.268   1.800  0.2763 -0.1246 -0.1363
19922W        W62913  25.388  11.250  25.352  0.2385  0.2872  0.2532
19923W        W62914  17.364   7.605   8.784 -0.2861  0.3478 -0.2580
19924W        W62915   1.560   6.270  25.526  0.0000 -0.0142  0.0891
19925W        W62916  31.479  31.545   3.611 -0.1827 -0.0776  0.1246
19926W        W62917  28.858   3.792   9.691  0.0249 -0.2788 -0.0859
19927W        W62918  26.849  31.452   4.969 -0.1631 -0.2128  0.1952
19928W        W62919   3.548  34.445   2.543 -0.1373  0.1403 -0.1777
19929W        W62920  27.734  18.069  27.299 -0.2127 -0.1106  0.1166
19930W        W62921  34.096   2.106   8.412 -0.0358 -0.1396  0.0589
19931W        W62922  23.483  23.308  25.141  0.0827  0.0686  0.0922
19932W        W62923  21.212   7.203   9.167  0.2288  0.0017 -0.1373
19933W        W62924  25.945  15.918   5.023  0.0782 -0.1501  0.0265
19934W        W62925   7.888   7.603  26.576  0.0013  0.0770 -0.0290
19935W        W62926  23.869   7.129   2.608 -0.4075 -0.0369 -0.0552
19936W        W62927  16.219  29.340   1.362 -0.1842  0.0599  0.2153
19937W        W62928  16.633  30.684   8.026  0.0411  0.0438 -0.0264
19938W        W62929   9.264   6.804  11.355 -0.1314  0.2233 -0.2274
19939W        W62930  11.621  30.151  27.124  0.2909 -0.0300  0.2295
19940W        W62931  32.777  15.465   6.881  0.2228 -0.0840  0.0784
19941W        W62932  26.027  27.441  25.504  0.0858  0.2222  0.1987
19942W        W62933   1.449   1.651   3.487 -0.2001 -0.0052 -0.0166
19943W        W62934  21.844  18.959  15.979  0.0198  0.0716  0.0470
19944W        W62935  13.536  20.227  12.490  0.0868  0.0604 -0.2035
19945W        W62936   8.075   6.119  10.514 -0.1289  0.0899 -0.2304
19946W        W62937  33.364   5.732   3.582 -0.0212  0.1452 -0.0200
19947W        W62938  34.661  29.040  20.889  0.0103 -0.0535 -0.1644
19948W        W62939  24.886  20.145   6.226  0.2824 -0.0756 -0.1501
19949W        W62940  16.610   3.446  22.568  0.0757 -0.1940  0.0053
19950W        W62941  19.640  25.202   5.978  0.2152  0.0732  0.0244
19951W        W62942  18.497   4.669   6.568  0.0006  0.0024  0.1410
19952W        W62943  21.034   1.288  24.737 -0.5197  0.3331 -0.2326
19953W        W62944  21.004  15.194   9.768  0.1745  0.4969 -0.1231
19954W        W62945   1.182  11.914  28.541  0.2472  0.2547  0.2103
19955W        W62946  29.094  10.413  21.394  0.0726 -0.0619  0.0590
19956W        W62947  14.135  11.336   7.469 -0.0913  0.3829  0.3154
19957W        W62948  17.571  33.357   7.243 -0.0277 -0.1043 -0.2725
19958W        W62949  32.387  30.493   4.070 -0.1669 -0.3530 -0.0035
19959W        W62950  17.456  30.100  28.098 -0.0862 -0.0411  0.1758
19960W        W62951  27.226  12.220   5.484 -0.1817 -0.1912 -0.1833
19961W        W62952  25.726  31.976  27.851 -0.1758  0.0167  0.0844
19962W        W62953  29.144  26.543   6.299  0.2531  0.1718  0.0926
19963W        W62954   3.152  29.622   6.511  0.0396 -0.0387 -0.1235
19964W        W62955   0.871  26.593   4.739 -0.1796  0.1489  0.2667
19965W        W62956  13.919   0.107   1.235 -0.0020 -0.1121  0.1180
19966W        W62957  23.291   4.869   4.468  0.1262  0.1477  0.2201
19967W        W62958   5.765  29.436   8.694  0.3323 -0.1058  0.0501
19968W        W62959   7.805   3.317  26.976 -0.2518 -0.0689  0.0183
19969W        W62960   9.343  33.423   2.185 -0.2454 -0.0990  0.0150
19970W        W62961  33.198   0.516   1.673  0.1846  0.5012 -0.0567
19971W        W62962  27.069   5.911  25.950  0.0222 -0.0913  0.3551
19972W        W62963  24.292  10.670   6.512 -0.5758  0.2077 -0.0723
19973W        W62964  22.671  24.945   0.894 -0.2302 -0.0925  0.3396
19974W        W62965  23.593  18.283  18.621 -0.1506  0.2355 -0.0765
19975W        W62966  31.904  31.351   6.443  0.2085  0.1157  0.0722
19976W        W62967   9.867  27.807  26.575 -0.3864 -0.2413 -0.0976
19977W        W62968  17.607   3.534   6.909 -0.1547 -0.1378  0.1652
19978W        W62969   2.041   2.709   1.959 -0.2091 -0.0386  0.3137
19979W        W62970  27.759  12.717   6.036  0.0200  0.0660 -0.0026
19980W        W62971  31.982   3.221  27.928  0.1110 -0.0082 -0.2157
19981W        W62972  12.586  30.003   5.367  0.0302  0.1517 -0.2980
19982W        W62973  19.513   6.762   2.546  0.0358 -0.2066 -0.5047
19983W        W62974   9.810   3.596   8.746  0.2013  0.1766  0.0313
19984W        W62975  11.614   5.793  11.203 -0.2359  0.1571  0.1390
19985W        W62976  16.105  15.565   4.554  0.3237  0.2632 -0.2485
19986W        W62977  19.886  25.428   1.430  0.2057  0.1395  0.5081
19987W        W62978  26.173   7.471   5.591  0.0361  0.0618 -0.1326
19988W        W62979  22.762  18.386   1.801  0.0032 -0.1951 -0.2800
19989W        W62980  30.680   9.865   7.458 -0.1766  0.2026 -0.2179
19990W        W62981  17.594   2.716   3.761  0.2253 -0.0242 -0.3627
19991W        W62982  30.909  29.645   7.436 -0.0313 -0.1406 -0.0486
19992W        W62983  29.554  29.437   3.040  0.1754 -0.1652 -0.1653
19993W        W62984  23.176  28.236   5.065  0.1361  0.1202  0.1544
19994W        W62985   1.068  22.015   6.645 -0.0599  0.0452 -0.2021
19995W        W62986   7.352  32.984  27.725 -0.2076  0.1221  0.1337
19996W        W62987  29.647  15.364   1.673  0.0239 -0.1030 -0.0978
19997W        W62988  14.536  16.104   5.489  0.1205 -0.0970 -0.0480
19998W        W62989  17.614   4.663   4.045 -0.0708  0.2088 -0.0826
19999W        W62990  30.296  14.985   8.028  0.0838 -0.4069 -0.0264
20000W        W62991  27.722  27.554   3.000  0.1678 -0.0489 -0.1422
20001W        W62992   0.630   3.953  22.791  0.0494  0.0738 -0.0187
20002W        W62993  23.838   9.446   9.070  0.2203 -0.0795  0.1942
20003W        W62994  13.963  16.687  13.318 -0.0890 -0.3931  0.1067
20004W        W62995  17.427   7.643   5.586  0.0135 -0.0821  0.0677
20005W        W62996   8.671  26.067  28.748 -0.0250  0.0779 -0.1811
20006W        W62997  18.597   0.092   2.215 -0.2245  0.0879  0.0598
20007W        W62998  11.679   0.514   7.701  0.1780 -0.0124 -0.0681
20008W        W62999  18.440   2.873   8.721  0.0030 -0.0260  0.0231
20009W        W63000  23.837  10.235  26.655  0.1508 -0.1495 -0.4942
20010W        W63001  18.992   5.977   4.666 -0.1148 -0.0854 -0.0689
20011W        W63002   0.275   5.390   1.451  0.1352 -0.0248 -0.0486
20012W        W63003  25.511  18.511   1.938  0.0034 -0.1635  0.1995
20013W        W63004  21.301  10.722   4.053  0.0335 -0.1244  0.0247
20014W        W63005  18.905  22.962  14.983 -0.2043  0.2141 -0.0395
20015W        W63006  24.500  20.907  21.523  0.1145  0.1007 -0.4089
20016W        W63007  11.397  15.515   0.743  0.5074 -0.1373  0.0908
20017W        W63008  19.072  24.672   3.876 -0.0889 -0.1503 -0.0649
20018W        W63009  33.503  12.044   7.576 -0.2994  0.0698  0.0732
20019W        W63010  32.603   8.421   1.785 -0.2195  0.0345 -0.3515
20020W        W63011  24.899  13.559   4.443  0.1643 -0.1759  0.3432
20021W        W63012  13.851  30.433   6.108 -0.1048 -0.1860 -0.0800
20022W        W63013  24.641   4.394   9.436 -0.0844 -0.1657 -0.1809
20023W        W63014   7.851   3.458  24.068 -0.3111 -0.0554  0.0267
20024W        W63015  32.358  33.634   6.820  0.1074 -0.3550 -0.1237
20025W        W63016  14.875  34.174   9.563  0.1643  0.2040  0.0588
20026W        W63017  18.482  17.161   1.216  0.0591 -0.1150  0.2357
20027W        W63018  27.594  16.462   9.413  0.1331 -0.0732 -0.1502
20028W        W63019  17.046  25.523  26.663  0.0029 -0.0457  0.0755
20029W        W63020  31.648  33.654  28.493  0.2977 -0.1402 -0.2238
20030W        W63021  18.784  25.508   1.934 -0.3264  0.0240 -0.0744
20031W        W63022  15.503   6.550   1.242 -0.0659  0.0653  0.0971
20032W        W63023  24.668   4.008  27.505  0.0341  0.2289  0.2726
20033W        W63024  21.789  16.548   4.861  0.1785 -0.0720  0.0878
20034W        W63025  17.701   4.962  15.094 -0.1879 -0.1769  0.0452
20035W        W63026  33.287   5.884  10.125  0.1999 -0.1324  0.2799
20036W        W63027   7.031   9.735   9.259 -0.0325  0.2305  0.1379
20037W        W63028  18.716  28.600   3.002 -0.0475 -0.0760  0.3198
20038W        W63029  28.480  24.540   6.575 -0.1276  0.2965 -0.0249
20039W        W63030  25.312  33.279   6.060  0.1204 -0.0923  0.0562
20040W        W63031  31.494   2.793  23.950  0.2385  0.0509  0.0638
20041W        W63032  18.390   4.154  19.061 -0.1424  0.1323 -0.1000
20042W        W63033  28.048   2.069  15.147  0.0291  0.1750  0.1157
20043W        W63034  17.562  25.402   8.112  0.0949  0.0844 -0.1072
20044W        W63035  20.919  25.287  18.727 -0.2625 -0.0132 -0.1640
20045W        W63036  15.357   3.190  10.896 -0.2455  0.2322  0.3681
20046W        W63037  23.060  23.357   0.037  0.4750 -0.0556 -0.4297
20047W        W63038  32.253  15.908  25.870 -0.0284  0.0918 -0.2746
20048W        W63039   6.833  33.070   9.342 -0.2462  0.1447 -0.1416
20049W        W63040   2.226   6.704   8.558  0.3414  0.0464 -0.1228
20050W        W63041  26.096   6.455   5.865  0.1458  0.0297 -0.0107
20051W        W63042  33.661   3.506  10.042 -0.0112 -0.0742 -0.0979
20052W        W63043   7.221   3.963   1.000  0.0234  0.2141 -0.0874
20053W        W63044  15.452  26.372   9.521  0.1463 -0.4105  0.0463
20054W        W63045  23.791  33.760   8.685 -0.1584  0.0700  0.0489
20055W        W63046  15.414   4.377   9.276  0.1455 -0.2781 -0.1635
20056W        W63047   8.024   5.931   3.800  0.0573 -0.0426  0.3301
20057W        W63048  27.368   0.571   0.189 -0.1199 -0.1715  0.0290
20058W        W63049  26.895   8.665   2.717  0.0786 -0.1495  0.1107
20059W        W63050  22.024  16.505  26.143  0.0635  0.2402  0.0783
20060W        W63051  17.651   4.639   1.253 -0.3376 -0.1435  0.1457
20061W        W63052  30.461   2.906   9.474  0.0183 -0.0495 -0.1313
20062W        W63053  16.251   9.875   1.531 -0.0507  0.2670 -0.2246
20063W        W63054  14.682   2.942  24.735 -0.0239  0.0774  0.1199
20064W        W63055  21.133  12.182   6.791 -0.1032 -0.0485  0.1418
20065W        W63056  25.046  19.241   6.506 -0.0025  0.0089  0.0044
20066W        W63057   1.585   3.256   9.480  0.2011  0.1503  0.3884
20067W        W63058  15.355   5.029   3.637  0.0428  0.0865  0.1175
20068W        W63059   5.758  27.241   0.829  0.0979 -0.1268  0.2429
20069W        W63060  27.835  25.656   1.796  0.0253  0.0419  0.1531
20070W        W63061  16.963  33.054   7.680 -0.0733  0.0633  0.0191
20071W        W63062  26.500  30.470   5.098  0.3729  0.0913 -0.2944
20072W        W63063  27.649   3.436   0.855 -0.1497  0.0227  0.1431
20073W        W63064  17.239  33.721  27.227  0.0162  0.3119  0.1593
20074W        W63065  33.794  15.110  25.493 -0.2839  0.1521  0.1109
20075W        W63066  23.617  10.798   8.692  0.1175 -0.2849 -0.1356
20076W        W63067  27.061   7.882   9.292 -0.0941  0.1693 -0.3982
20077W        W63068   8.002  33.517   7.354  0.1203  0.4072  0.0066
20078W        W63069  28.476  10.204   5.589 -0.7634  0.1397 -0.2700
20079W        W63070  27.157  27.151   2.201 -0.0448 -0.0701  0.2415
20080W        W63071  20.939   8.591   7.182 -0.1530  0.2301  0.2030
20081W        W63072  15.392  23.563   4.968  0.2034  0.4145 -0.1183
20082W        W63073  33.893  14.597   2.251  0.1615 -0.2254 -0.0018
20083W        W63074  31.608   2.632   7.785  0.1136  0.0942  0.1478
20084W        W63075  19.272  12.029  24.841 -0.2030 -0.0378 -0.1640
20085W        W63076  26.921  34.708   1.349 -0.0720  0.0662 -0.1281
20086W        W63077  27.940  25.059   7.791 -0.0827 -0.0221  0.6141
20087W        W63078  12.895  16.672   5.790  0.2032 -0.0690 -0.1330
20088W        W63079  23.292  29.703   3.031 -0.0562  0.2950 -0.2934
20089W        W63080  11.490  33.276   4.134  0.0055 -0.0982 -0.0656
20090W        W63081  32.739  13.112   8.591 -0.1798 -0.0737  0.2053
20091W        W63082   8.066  32.121   2.249 -0.0808  0.1759 -0.3154
20092W        W63083  13.994   3.980   9.267  0.0027 -0.1786  0.2098
20093W        W63084  14.858  12.125   5.311 -0.0288 -0.1007 -0.0090
20094W        W63085  23.471  33.788  21.991  0.1747 -0.1821 -0.0385
20095W        W63086  34.625  26.350   6.698  0.1611  0.1245  0.0446
20096W        W63087  12.335   2.081   9.644  0.2121  0.0147 -0.1140
20097W        W63088  24.694   9.318  29.086 -0.0261  0.0415 -0.1530
20098W        W63089  19.863   7.350   6.693 -0.0176  0.1551  0.3555
20099W        W63090  12.681  30.472   5.208 -0.0369 -0.1083  0.0804
20100W        W63091  21.624   3.183  22.818 -0.0996 -0.0739  0.0010
20101W        W63092   3.943   5.484  27.740  0.0306 -0.1782 -0.5808
20102W        W63093  13.867   4.312   5.502 -0.1529  0.1588  0.1865
20103W        W63094  11.470   4.581   5.564  0.1115  0.2445 -0.0090
20104W        W63095  28.777   9.234   9.849 -0.0965 -0.0493  0.0193
20105W        W63096   7.891   2.975  10.097  0.3767 -0.0211  0.0370
20106W        W63097  21.809  11.377   7.888 -0.6652 -0.0564 -0.1072
20107W        W63098  14.245   3.119   6.000  0.0281  0.0231 -0.2067
20108W        W63099  24.715  26.855  22.007 -0.2689 -0.0867  0.0186
20109W        W63100  32.849  23.787  26.644 -0.2212  0.0012  0.0566
20110W        W63101  33.335   3.134   3.361 -0.1524  0.2670  0.2346
20111W        W63102   4.836  23.180   0.133 -0.2422  0.4133  0.4634
20112W        W63103  13.929  25.640  28.788  0.1929  0.0476  0.0258
20113W        W63104  29.213  33.401  24.027  0.0861  0.1929  0.2227
20114W        W63105  26.513   1.781   1.263  0.1131  0.5673  0.0227
20115W        W63106  11.444   4.042   7.756 -0.0846 -0.1910  0.0543
20116W        W63107   3.135   0.981   6.217 -0.3011  0.0535 -0.2294
20117W        W63108  27.857   7.243   6.493  0.0878  0.0998 -0.1421
20118W        W63109  14.231  34.769   8.112 -0.1255  0.0194  0.1306
20119W        W63110  19.715  27.543  25.840  0.0928 -0.1263 -0.0639
20120W        W63111  28.461  10.614   8.174  0.5290 -0.1192 -0.0590
20121W        W63112   4.579   5.067   4.338  0.0385 -0.0355 -0.0309
20122W        W63113  25.717  15.221   9.418 -0.2778  0.0706 -0.0353
20123W        W63114   5.921  11.733   8.595  0.0645  0.0753 -0.0751
20124W        W63115   3.367  12.877   5.814  0.1563 -0.0199 -0.1177
20125W        W63116  14.455  12.829   0.404 -0.1423 -0.0174 -0.1655
20126W        W63117   1.417   5.122   7.869  0.1274  0.1555  0.0305
20127W        W63118  29.547   7.654   3.828 -0.0239 -0.0134 -0.1626
20128W        W63119  19.372  20.939   2.233 -0.0116  0.1626 -0.1581
20129W        W63120  23.095  10.255   9.130 -0.1795 -0.1540  0.2155
20130W        W63121   8.068  10.370  10.809 -0.2563  0.4093  0.1829
20131W        W63122  17.094   5.278   4.704 -0.1570 -0.0407 -0.0689
20132W        W63123  19.988  23.188   6.091  0.2685 -0.0987 -0.2748
20133W        W63124  22.271   4.082   2.668  0.0840  0.4066  0.3582
20134W        W63125  27.106  30.576  21.791 -0.1002 -0.1837  0.0252
20135W        W63126  16.451   9.668  17.446 -0.0127  0.2244  0.1777
20136W        W63127   6.687  30.469   8.884  0.0161  0.1431  0.0513
20137W        W63128  28.007   1.265   6.385  0.5730 -0.2014  0.1499
20138W        W63129   6.450   9.634   6.771  0.0032  0.1019 -0.2032
20139W        W63130  17.950  28.543   4.892 -0.4180  0.1327  0.1004
20140W        W63131  30.685  10.225   4.010  0.1439  0.2956  0.2209
20141W        W63132  29.550   4.840  25.161 -0.0879  0.0228 -0.2994
20142W        W63133   5.217   7.380  27.331  0.2611  0.1087 -0.2811
20143W        W63134   4.933   1.898  25.541  0.0708  0.1176  0.2843
20144W        W63135   2.625  32.875   9.238 -0.2264  0.2976 -0.2510
20145W        W63136  22.233  34.592  24.975  0.0839  0.1826  0.0991
20146W        W63137  23.375   2.710  28.199  0.0017  0.0064  0.0211
20147W        W63138  29.141   1.071   4.148 -0.0108 -0.2560  0.1604
20148W        W63139  15.892  25.799  22.377 -0.1486 -0.0876 -0.0967
20149W        W63140  24.016   5.697   0.062 -0.0228 -0.1719  0.2769
20150W        W63141   5.096  24.676   5.682  0.0811  0.0154  0.1675
20151W        W63142  23.916   9.145  25.759 -0.1967 -0.2030  0.2415
20152W        W63143  20.132   3.979  25.366  0.1239  0.0860  0.0404
20153W        W63144   5.143   8.939  21.889 -0.4613 -0.0542  0.0769
20154W        W63145  29.140  26.692  28.585 -0.1427  0.2874 -0.2736
20155W        W63146  28.230  12.763   6.130  0.1895  0.1099  0.3624
20156W        W63147  21.566  29.291   5.784 -0.1342  0.0381 -0.0466
20157W        W63148  20.270  11.570   6.104 -0.0929  0.1746 -0.1122
20158W        W63149  29.800  31.789   0.520 -0.0979  0.1624  0.3813
20159W        W63150   6.938   0.485   1.218 -0.2307  0.1536 -0.0495
20160W        W63151  31.411   6.707  27.799  0.0007 -0.2194 -0.2318
20161W        W63152  21.129   2.277   5.877  0.1100  0.2417 -0.0625
20162W        W63153  19.453  24.272  28.483  0.3059  0.0079 -0.0974
20163W        W63154  32.191  17.932  10.780  0.3994  0.0283 -0.0043
20164W        W63155   0.096   6.854   3.158 -0.0379 -0.0905 -0.0904
20165W        W63156  26.612  33.898   7.906  0.3277 -0.1063  0.2376
20166W        W63157  31.027   0.205   3.851 -0.1894 -0.2110 -0.2000
20167W        W63158  30.879   7.435   8.217 -0.0099 -0.0353  0.0098
20168W        W63159   0.816  33.377   8.732 -0.4320 -0.1221  0.3830
20169W        W63160  23.100  15.384  24.085  0.0454  0.0583  0.1403
20170W        W63161  33.734  20.855   0.791 -0.3477 -0.1699 -0.0845
20171W        W63162  24.597  10.938   4.730  0.0274 -0.0068 -0.0699
20172W        W63163  28.329   7.364   8.758  0.2327  0.3518  0.0339
20173W        W63164  19.526  25.900   7.966 -0.1466 -0.1646  0.2808
20174W        W63165  22.949   8.500   7.152 -0.0206 -0.3386 -0.0290
20175W        W63166  28.212   2.426   9.330 -0.2866 -0.0146  0.1081
20176W        W63167  11.222   1.873  20.708  0.0996  0.0285  0.2873
20177W        W63168  26.517  23.356   7.887  0.3828  0.0624  0.2383
20178W        W63169  25.159  15.931   1.794 -0.3831 -0.1103  0.1355
20179W        W63170  27.946  23.875   8.789  0.1189 -0.0991  0.0456
20180W        W63171  33.130  26.731   3.830  0.0985  0.0084  0.1620
20181W        W63172  15.994   5.091   9.339  0.1112  0.2484 -0.0784
20182W        W63173  19.361  31.935   3.373  0.1267  0.0603 -0.0854
20183W        W63174   2.727   8.374  24.508 -0.0266  0.0414 -0.0093
20184W        W63175  15.896   0.391   8.042 -0.2382 -0.0286  0.1728
20185W        W63176  12.145  34.387  19.768 -0.1131 -0.0407 -0.0480
20186W        W63177  21.276  31.866  27.153  0.5304  0.2010  0.3473
20187W        W63178  22.085  18.279   5.032  0.1205 -0.1344  0.0823
20188W        W63179  31.214   9.761   0.578  0.0155 -0.2929 -0.3751
20189W        W63180  18.290   8.442   9.481  0.1709  0.0646  0.1485
20190W        W63181  21.666   4.388  25.629 -0.0271 -0.2097 -0.1168
20191W        W63182  30.541  33.616   8.622  0.1747  0.0080  0.0651
20192W        W63183  10.719  29.051   4.449  0.0261  0.0242  0.2766
20193W        W63184  30.073  22.976  26.901  0.1452 -0.0207  0.1395
20194W        W63185  24.024  14.985   0.024  0.1449 -0.0805  0.3738
20195W        W63186  12.269  13.525  19.851  0.0260 -0.0406  0.0836
20196W        W63187  31.112  32.744  28.868  0.3361 -0.0480 -0.1444
20197W        W63188  13.654   6.936   6.170  0.0107  0.1751 -0.1026
20198W        W63189  25.696   3.408   4.805  0.1002  0.4787  0.1290
20199W        W63190  12.507   3.974  28.509  0.0872 -0.3194 -0.1507
20200W        W63191  13.466  33.921   6.596 -0.0196  0.1018  0.1164
20201W        W63192  26.485   8.488  19.487  0.0610  0.2075 -0.2822
20202W        W63193  21.936  26.513   7.631  0.2117 -0.1800 -0.1814
20203W        W63194  11.524  34.606   0.058  0.0909  0.0876 -0.1803
20204W        W63195  20.630  11.505   1.204  0.0660  0.2929 -0.1197
20205W        W63196  17.305  15.654   6.394 -0.0090 -0.0343 -0.0611
20206W        W63197  31.785  10.920  25.102 -0.1941 -0.3411 -0.3041
20207W        W63198  23.280  32.999   4.019  0.0503 -0.3218 -0.1444
20208W        W63199  16.084  11.082   5.633  0.0278 -0.1264 -0.1299
20209W        W63200  29.773  29.036  20.104 -0.0907 -0.1729 -0.0155
20210W        W63201  22.789  16.570  26.774 -0.1353  0.5322 -0.1180
20211W        W63202  21.907  24.855  23.306  0.4167  0.3589  0.1430
20212W        W63203  31.218  34.533   3.135 -0.3390  0.2133 -0.1789
20213W        W63204  11.856  12.762  20.319 -0.1471 -0.1613  0.2307
20214W        W63205  29.327  31.755  29.088 -0.1403  0.2333 -0.1541
20215W        W63206  30.461  22.884   0.251 -0.0293 -0.2773 -0.0264
20216W        W63207  20.148   5.818   5.461 -0.0894  0.0597 -0.0174
20217W        W63208  25.824  28.573   5.453 -0.2002  0.0315 -0.0878
20218W        W63209   6.454  30.622  27.689  0.1058 -0.1160  0.2338
20219W        W63210  34.458   1.507   3.304 -0.2905  0.3267  0.2448
20220W        W63211  14.507   1.616  25.481  0.0795 -0.0168 -0.2301
20221W        W63212  23.279  30.373  26.556  0.1743  0.2121 -0.2428
20222W        W63213  28.880   8.240  14.047  0.0559  0.1450 -0.1939
20223W        W63214   9.803   5.812  23.108 -0.4361 -0.5556 -0.1882
20224W        W63215   1.933   8.279   5.872  0.1880 -0.1586  0.1764
20225W        W63216  34.373   0.276   6.417 -0.0474  0.5950 -0.2148
20226W        W63217  28.264   1.499   5.603 -0.2171  0.0468  0.2488
20227W        W63218  32.299  32.819  28.673 -0.1410 -0.0525  0.2269
20228W        W63219  24.764  32.469   1.875 -0.0197 -0.3759  0.2133
20229W        W63220   0.996  15.219   9.969  0.0742 -0.3235  0.2199
20230W        W63221  21.938  34.342  15.428  0.1233  0.2670  0.4348
20231W        W63222  26.617  31.006  18.060 -0.0628 -0.1450 -0.1155
20232W        W63223   9.992   2.646   5.593 -0.2228  0.1751 -0.0369
20233W        W63224   5.279   5.197   1.252 -0.1500  0.1196  0.0146
20234W        W63225  32.690  32.575  25.077 -0.2644 -0.2040 -0.1391
20235W        W63226  20.216  19.079  27.031  0.2531 -0.0609 -0.1407
20236W        W63227  11.528   2.963   8.019 -0.1347  0.1388  0.0596
20237W        W63228  10.331   0.014   1.349  0.0578 -0.1473 -0.3876
20238W        W63229  22.838   0.648  29.263  0.0576  0.1709  0.2332
20239W        W63230   4.662  30.984   4.032 -0.0492 -0.1106 -0.1716
20240W        W63231  10.887  29.189  25.604  0.3185 -0.1419 -0.1847
20241W        W63232  22.880  26.105  24.870  0.1566 -0.1601  0.2571
20242W        W63233  14.821  12.095   7.330  0.0397 -0.2741 -0.0976
20243W        W63234  10.415   7.743   8.267 -0.3997 -0.1938  0.0321
20244W        W63235  17.730   6.331  23.311  0.0709 -0.0366  0.1117
20245W        W63236  32.580  28.460   0.055 -0.1494 -0.0537  0.2321
20246W        W63237   6.428  18.994   2.698  0.0816 -0.1854 -0.0732
20247W        W63238  19.468  29.552   0.978 -0.0597 -0.0009  0.1566
20248W        W63239  19.147   2.027   6.646 -0.2630  0.1758  0.0814
20249W        W63240  27.839  18.291  25.603 -0.2294  0.2402  0.2076
20250W        W63241  19.676   2.875   4.696  0.2203  0.0829 -0.1647
20251W        W63242  20.685  26.134  25.014 -0.3553  0.2573 -0.0626
20252W        W63243  31.098   2.878  21.129  0.1488  0.3374 -0.1979
20253W        W63244  18.578   2.729   6.539 -0.1031 -0.3329  0.0271
20254W        W63245  11.135  18.355   6.863  0.0860  0.1674  0.2970
20255W        W63246  16.823  30.841   6.775 -0.0458 -0.3134 -0.0951
20256W        W63247  21.814   6.112  25.026 -0.0140  0.1516 -0.0903
20257W        W63248  22.926  12.888  28.476 -0.0635  0.3194  0.2030
20258W        W63249  30.940  24.841   4.400  0.0222 -0.0323 -0.0930
20259W        W63250  21.285   3.336  27.644  0.2521 -0.3954  0.0008
20260W        W63251   0.964   1.978   8.799  0.0359  0.0422  0.1143
20261W        W63252  12.385   1.954  19.123 -0.0678  0.1485  0.1545
20262W        W63253  29.175  33.906  23.993  0.2918  0.1941 -0.1606
20263W        W63254  23.267   3.888  19.490  0.2703 -0.0705 -0.1250
20264W        W63255  12.744  34.595  24.460  0.1219 -0.0565  0.1130
20265W        W63256  16.692  34.170   4.298 -0.0533  0.2418  0.1322
20266W        W63257  25.172  14.719   7.468 -0.0493 -0.2148  0.1217
20267W        W63258  20.897  16.714   8.052  0.0108  0.0199  0.1234
20268W        W63259  17.641  15.922   2.472 -0.2081  0.0118  0.0818
20269W        W63260  32.065   5.426   6.975 -0.0752 -0.0448  0.1895
20270W        W63261  20.910   8.462  23.966 -0.1299  0.5112 -0.0875
20271W        W63262  25.756  15.162   7.216  0.0613  0.0896 -0.1149
20272W        W63263  13.769   0.758   4.791 -0.1295  0.2899  0.0989
20273W        W63264   3.100  14.719  26.011  0.0119  0.3093  0.1681
20274W        W63265  21.119   7.686   7.322  0.0666  0.0597  0.2677
20275W        W63266  23.979  34.078   3.808  0.2970 -0.0957  0.1492
20276W        W63267  25.013   3.971  28.690  0.0389  0.0247 -0.3271
20277W        W63268  17.176   3.009   3.886  0.0160  0.2377 -0.1029
20278W        W63269  31.544  33.411  17.012  0.3007 -0.2899 -0.2063
20279W        W63270   7.897   8.837   9.917  0.0556 -0.0711 -0.1878
20280W        W63271   7.923   7.045  29.208 -0.3530  0.3304  0.1800
20281W        W63272  12.488   2.331  21.498  0.2548  0.0470 -0.0731
20282W        W63273  17.893  10.055   7.119  0.1065 -0.4656 -0.1063
20283W        W63274  12.143   2.221  16.134 -0.2466 -0.0778 -0.2394
20284W        W63275  11.221  17.238  26.646  0.0429  0.2699 -0.0339
20285W        W63276  10.501  31.704   0.847  0.0568  0.0513 -0.0052
20286W        W63277  26.125  17.760   5.312  0.0166  0.1305  0.0053
20287W        W63278  20.965  25.043   6.822 -0.2400  0.0119 -0.1274
20288W        W63279  33.376  14.957   2.823  0.1945  0.1728  0.1530
20289W        W63280  19.576   1.340  10.358  0.1753  0.2020  0.0708
20290W        W63281   9.948   4.114   6.424  0.3036 -0.2224  0.3442
20291W        W63282  27.501   4.674   0.493 -0.2450  0.2498  0.2470
20292W        W63283  31.708  15.947   9.209  0.1192  0.1863 -0.0584
20293W        W63284   9.522  16.788  16.633  0.0001  0.2735  0.0049
20294W        W63285   3.557  30.603   5.704  0.2630  0.2077  0.0932
20295W        W63286  19.211  18.497   5.166 -0.2676 -0.0721  0.1628
20296W        W63287  31.103  17.213   2.358  0.2355  0.0769  0.1071
20297W        W63288  17.277   3.424   4.608 -0.1685  0.4149 -0.2583
20298W        W63289  25.457   2.174  28.807 -0.1639  0.0618  0.0438
20299W        W63290  24.115  14.364   5.354 -0.1083 -0.0753 -0.3204
20300W        W63291  24.752  10.165   6.551  0.0076 -0.1508 -0.1752
20301W        W63292  26.427  32.259   8.162  0.1662 -0.1473 -0.0735
20302W        W63293  20.110  15.084  28.193  0.2412 -0.2364  0.2317
20303W        W63294  15.825  15.993   2.602 -0.0448 -0.0171  0.2359
20304W        W63295  25.008   3.310  27.968 -0.0003  0.0566 -0.0676
20305W        W63296   8.143   1.629   2.141  0.2739  0.0488  0.0134
20306W        W63297   2.062   9.856   5.267 -0.1852  0.2868 -0.0340
20307W        W63298   4.167  34.706  26.681  0.1641 -0.0372 -0.2685
20308W        W63299  13.907   6.196  29.216  0.2231 -0.0166  0.1302
20309W        W63300  24.802   2.768   4.588 -0.0836  0.1582  0.1389
20310W        W63301  20.018   6.958  27.419  0.0603 -0.0978 -0.0171
20311W        W63302  24.789  11.206   3.729 -0.1195 -0.1592 -0.0234
20312W        W63303  30.507   4.809   4.582  0.1685 -0.1369  0.1471
20313W        W63304   8.595  23.609  25.308  0.1167 -0.2679  0.5502
20314W        W63305  13.717  22.070  23.864 -0.1263 -0.2060 -0.3321
20315W        W63306  30.434   4.930   5.816 -0.1187  0.1914 -0.0632
20316W        W63307  19.750   9.246  21.593 -0.0903 -0.2412 -0.1382
20317W        W63308   7.203  22.179  22.069  0.2036 -0.2247  0.2809
20318W        W63309  27.104  31.645  22.857  0.0026 -0.0457 -0.0687
20319W        W63310  12.616  12.960   0.340 -0.0744  0.1596 -0.0876
20320W        W63311   7.005  34.006  24.339  0.1857 -0.2230 -0.0015
20321W        W63312  18.354   7.641   1.500  0.1253  0.1755 -0.1210
20322W        W63313  17.403  21.247   3.369  0.1632  0.2309  0.0717
20323W        W63314  17.316  30.191  24.668 -0.0390  0.1394  0.2178
20324W        W63315  27.037   7.193  29.087 -0.0147 -0.1520  0.2891
20325W        W63316  27.768   1.841  26.165  0.0549 -0.4061 -0.1785
20326W        W63317  23.455   8.697   1.725  0.1100  0.2961 -0.1209
20327W        W63318  20.623  26.473  25.349  0.0093 -0.0367 -0.1459
20328W        W63319  18.702   3.799   1.843  0.0580  0.1389 -0.3902
20329W        W63320  16.646  12.624  28.917  0.1223 -0.0138  0.0900
20330W        W63321  16.188   8.630   1.835  0.2706  0.1879  0.3077
20331W        W63322  19.183  17.141  22.777 -0.1686 -0.3641 -0.2158
20332W        W63323  26.387  12.349   5.015  0.2173  0.1669  0.0446
20333W        W63324  26.750  24.632   1.927  0.0381  0.0613  0.1275
20334W        W63325  28.154  31.379  26.519  0.0957 -0.1741 -0.1781
20335W        W63326  20.721  14.890  26.781  0.2871  0.1347 -0.0029
20336W        W63327  22.594  32.107   2.354  0.1621 -0.2304 -0.2460
20337W        W63328  21.971  10.514   5.582 -0.2670  0.2983 -0.0779
20338W        W63329   1.139  12.179  16.794  0.2685  0.2642  0.0885
20339W        W63330  21.165  17.044  13.580 -0.2240  0.1171  0.5608
20340W        W63331  26.919  10.968  14.853 -0.1094 -0.0473  0.0101
20341W        W63332  16.670  10.644   2.499  0.1458  0.1915 -0.3131
20342W        W63333  16.057  30.907  24.125 -0.0858 -0.0245  0.0350
20343W        W63334   7.065   5.042   5.993  0.0945 -0.0584 -0.2301
20344W        W63335  25.050   5.434  27.429  0.0831  0.1584  0.1516
20345W        W63336  14.654  14.289  28.518 -0.0286 -0.0616  0.1299
20346W        W63337   6.572  11.551   3.877  0.2238 -0.0117 -0.1372
20347W        W63338  14.138  34.371  27.607 -0.1065 -0.0347 -0.1697
20348W        W63339   3.093  21.380   0.708 -0.0217 -0.1781 -0.0414
20349W        W63340  20.288  27.100   4.623 -0.3899 -0.0198 -0.0968
20350W        W63341  20.436  28.470   8.390 -0.2240  0.1639 -0.2362
20351W        W63342  23.235   0.805   3.087 -0.0943  0.1708  0.0261
20352W        W63343  31.916  26.370  19.933 -0.0500 -0.0589 -0.1301
20353W        W63344  22.487   3.361  18.802 -0.0154 -0.1441  0.2257
20354W        W63345  17.765  20.003   6.316 -0.0375  0.0186 -0.1635
20355W        W63346  27.323  24.503   7.244 -0.1201  0.5066 -0.0132
20356W        W63347  17.897   1.092  18.734 -0.0966  0.3020 -0.2044
20357W        W63348  24.433  24.417   8.673  0.1346  0.1546 -0.0531
20358W        W63349  16.420   5.368   9.681 -0.1414  0.0652  0.0936
20359W        W63350  23.060  17.791   8.567  0.0403  0.2399  0.2878
20360W        W63351   9.930   2.524   5.094  0.0638  0.1010  0.0317
20361W        W63352  27.713   0.075   8.286 -0.1743  0.0973  0.3029
20362W        W63353  19.255  13.414   2.889  0.1897 -0.1080  0.0239
20363W        W63354  10.514   6.930  14.961 -0.2335 -0.1637 -0.2306
20364W        W63355   4.617   6.444   0.360  0.0325 -0.1019 -0.2512
20365W        W63356  16.938  31.297  28.895  0.0546 -0.0501 -0.0422
20366W        W63357  14.307  23.034  27.958  0.1625  0.0725  0.2490
20367W        W63358  15.280   3.086   3.716 -0.1758  0.1477 -0.0344
20368W        W63359  29.197   9.065   6.656 -0.1185 -0.1117 -0.1564
20369W        W63360   7.665  12.648   8.887 -0.0330 -0.1828  0.1204
20370W        W63361  28.681  27.967   9.063  0.2402 -0.0282  0.1114
20371W        W63362  29.061  16.461   2.527  0.0904  0.1025  0.1062
20372W        W63363  20.421   5.061   5.428 -0.2812 -0.0362  0.0860
20373W        W63364  28.951   7.153   0.118 -0.2340 -0.0255  0.0280
20374W        W63365  23.273  23.995   7.515  0.1574 -0.0944 -0.1858
20375W        W63366  30.172   5.468   6.093 -0.0614 -0.0653  0.0428
20376W        W63367  13.363  30.339   7.921  0.0956  0.1178  0.0774
20377W        W63368  25.127   1.235   6.917 -0.2452 -0.0837 -0.1033
20378W        W63369  28.649  19.384   7.174  0.2065  0.1279  0.0942
20379W        W63370   2.020   8.122  10.861  0.3185 -0.1712  0.0760
20380W        W63371  13.597  15.860   2.455  0.1170 -0.0618 -0.0941
20381W        W63372  22.198  34.459   9.138 -0.0593 -0.0778 -0.0330
20382W        W63373  28.406  19.246  26.587 -0.2189 -0.3104 -0.2583
20383W        W63374   8.404   6.414   9.108  0.0236  0.0127  0.0633
20384W        W63375   5.928   9.125  10.682  0.0660  0.0038  0.0367
20385W        W63376   0.749  12.922  18.242  0.2761  0.0539  0.1470
20386W        W63377   6.784   3.035   4.241 -0.0213 -0.1348  0.0214
20387W        W63378  26.324  19.212   8.652  0.1160 -0.2817  0.0995
20388W        W63379  22.319  14.572   4.294 -0.1018 -0.1557  0.0258
20389W        W63380  27.148  12.998   3.270  0.0343 -0.1256 -0.0802
20390W        W63381  25.395   1.548  22.509  0.2621 -0.0808 -0.1224
20391W        W63382  18.986  16.585  26.510 -0.1015  0.2716  0.2823
20392W        W63383  24.263   4.363  23.202 -0.1411  0.0426  0.0063
20393W        W63384  20.057  13.741  14.715 -0.0165  0.0417 -0.3091
20394W        W63385  30.087   0.307   2.595 -0.0605  0.1491  0.0182
20395W        W63386   2.128  30.989  24.323  0.1975  0.1038  0.0633
20396W        W63387  25.566   7.814  17.105  0.0990  0.4376 -0.1176
20397W        W63388  22.619   4.690   8.482 -0.0696  0.2342 -0.0110
20398W        W63389   7.602  24.341  17.534 -0.1607  0.1321  0.2366
20399W        W63390  10.683   0.345  10.609 -0.0451  0.3305  0.3599
20400W        W63391  21.886  19.789  18.529 -0.3240 -0.2517 -0.0089
20401W        W63392  16.702   7.885  14.760 -0.2807  0.2925  0.0303
20402W        W63393  18.686  16.869   0.090  0.1631 -0.1537 -0.0566
20403W        W63394  25.605   9.012  27.436 -0.3006  0.0692  0.2751
20404W        W63395  17.556   5.362   8.803  0.2147 -0.2683 -0.2366
20405W        W63396  28.036  13.331  25.809  0.1544  0.0884 -0.2241
20406W        W63397  30.340  11.140   6.271 -0.1342  0.1046 -0.2938
20407W        W63398  18.023   6.058   7.432  0.1085  0.0070  0.0893
20408W        W63399  22.827  33.708   8.696  0.0219 -0.1096  0.3219
20409W        W63400   9.673  28.117   2.146 -0.1063  0.2679 -0.4045
20410W        W63401   3.562  31.224  28.429 -0.0004 -0.0696  0.1347
20411W        W63402  32.545  29.409  23.779  0.3553  0.2035  0.3158
20412W        W63403   5.425   1.755  27.657  0.0486 -0.1000  0.2517
20413W        W63404  27.873  27.425   4.132  0.0139  0.0131 -0.2693
20414W        W63405  18.399  15.143  25.585  0.2609  0.1031  0.3587
20415W        W63406  30.967   4.076   4.228  0.2774  0.4183 -0.2486
20416W        W63407  29.329  14.055   4.866 -0.1342 -0.4460  0.5233
20417W        W63408  23.295  32.209   7.102  0.0512 -0.0146 -0.0941
20418W        W63409  27.224  10.650  16.411 -0.2168  0.0544  0.2294
20419W        W63410  20.214  12.770  26.304  0.4377 -0.0723 -0.0189
20420W        W63411   3.397  14.110   8.934  0.4378 -0.0555  0.1954
20421W        W63412  32.000  28.639  22.605  0.0780 -0.2735  0.3040
20422W        W63413  13.584  16.810  16.734  0.2366 -0.2783 -0.5568
20423W        W63414   0.991   0.047   4.691 -0.0922 -0.0179  0.0540
20424W        W63415  20.720   1.719  28.785  0.0063 -0.0417  0.1145
20425W        W63416  14.512  33.312  27.380  0.2414  0.3849 -0.3375
20426W        W63417  10.376   3.502   3.761 -0.0090  0.4159 -0.1794
20427W        W63418  23.266  34.746   7.711  0.0367 -0.0677 -0.0288
20428W        W63419  34.175   5.783   7.188 -0.1368 -0.3485  0.0258
20429W        W63420   9.237  24.853  28.796  0.1439 -0.0396  0.3136
20430W        W63421   7.376  12.660   3.071  0.0555  0.0304 -0.2210
20431W        W63422  27.269  34.619   8.184 -0.1336  0.3074  0.2296
20432W        W63423  33.450  25.451  23.539 -0.0502 -0.0658 -0.2686
20433W        W63424  31.255   1.032   3.697  0.1152  0.2580  0.3657
20434W        W63425  14.162  11.021  24.027 -0.2063  0.3421  0.0072
20435W        W63426  21.835  30.744   4.288 -0.2289 -0.0916  0.0612
20436W        W63427  24.679  30.595   6.550 -0.1649  0.1549  0.0643
20437W        W63428  23.654   7.216   6.139 -0.0203  0.1689  0.5251
20438W        W63429  17.597   4.933   7.358 -0.1457 -0.1658 -0.2022
20439W        W63430  21.739  25.365  23.078  0.0528 -0.0840 -0.0006
20440W        W63431  28.851  16.424   6.731  0.1002  0.0591  0.3146
20441W        W63432  24.691  13.954   9.695 -0.0713  0.0330 -0.0410
20442W        W63433  26.261  14.665   1.282 -0.0770 -0.1568  0.3955
20443W        W63434  12.892  15.621   7.014  0.0012  0.1120 -0.1375
20444W        W63435  28.922  30.137  27.981  0.1175 -0.2027  0.1896
20445W        W63436  15.037  10.666  19.529  0.1474 -0.1658 -0.3232
20446W        W63437  31.589  11.793   1.045  0.5084 -0.2207  0.3752
20447W        W63438  29.058   2.811  22.280  0.2183 -0.3674 -0.1139
20448W        W63439  21.729  30.137   8.407  0.0349 -0.0054 -0.3142
20449W        W63440  11.748  15.715  29.032  0.2720  0.0712 -0.0053
20450W        W63441  21.866  33.867   5.205 -0.1508 -0.0734  0.2064
20451W        W63442  11.541  19.699  27.517 -0.0841  0.3536  0.3053
20452W        W63443  28.680  10.838   4.016  0.0623 -0.1566  0.0472
20453W        W63444  12.452  29.669   1.659  0.2478 -0.0954  0.0971
20454W        W63445  19.022  19.707  23.877 -0.1445 -0.1401 -0.0224
20455W        W63446  19.447  23.904   2.973  0.0318 -0.3603  0.0888
20456W        W63447  30.773  32.069   8.123  0.3585  0.0210  0.1239
20457W        W63448  31.136   2.989   9.565 -0.2294  0.3038 -0.0180
20458W        W63449  24.737  34.306  23.770  0.2905  0.2195  0.0657
20459W        W63450  20.560  30.630  25.162  0.1727  0.2568  0.1288
20460W        W63451  12.570  29.013   9.030 -0.1481 -0.3649 -0.2291
20461W        W63452   3.148  28.524   1.581 -0.4260  0.0408 -0.2150
20462W        W63453  25.801  13.825  18.880  0.0364 -0.1514 -0.1362
20463W        W63454  23.613  11.148  23.777 -0.0908  0.0689  0.1112
20464W        W63455  17.947   2.871   3.399  0.0994 -0.3410 -0.2773
20465W        W63456  23.953  11.490   3.390 -0.4777  0.2328 -0.2357
20466W        W63457  24.184   4.905   9.058 -0.1775  0.5204  0.1981
20467W        W63458   2.208  10.924  27.276 -0.2132 -0.0681 -0.1641
20468W        W63459  20.946  17.612   1.749 -0.0070 -0.0039  0.0931
20469W        W63460  11.294   8.437   2.243 -0.0728 -0.1871  0.1491
20470W        W63461  26.918  30.153   2.244 -0.3488  0.2177 -0.0960
20471W        W63462   2.727   5.410  11.318  0.2923 -0.1829  0.0468
20472W        W63463  23.598   0.314   0.694 -0.0070  0.1774  0.3271
20473W        W63464   6.791  11.969   0.910 -0.1072  0.0006 -0.0087
20474W        W63465  23.905  10.107   9.657 -0.1675  0.2564  0.1703
20475W        W63466  28.142  18.331   4.352  0.1574  0.2504  0.1364
20476W        W63467  17.469   9.359  16.482 -0.0621 -0.4294 -0.0586
20477W        W63468  32.607   6.667   4.855  0.0740 -0.0132  0.0324
20478W        W63469  14.132  33.906  16.254  0.2482  0.2186 -0.2422
20479W        W63470  20.641   5.759  21.257  0.2003 -0.0309 -0.0203
20480W        W63471  16.373  15.983   4.337 -0.2103  0.2007  0.3037
20481W        W63472  25.657  23.633  14.327 -0.2176 -0.2353  0.0046
20482W        W63473   1.250  34.492  23.043 -0.0861  0.0548 -0.0336
20483W        W63474  13.131  33.879   9.838 -0.1005  0.0510  0.3430
20484W        W63475  15.654   2.396  28.060 -0.0101 -0.1755  0.2157
20485W        W63476  19.010   8.136   0.492  0.0975 -0.2811 -0.0610
20486W        W63477  24.012  12.217   1.886 -0.0164 -0.1518  0.2653
20487W        W63478  11.534  29.714  10.018  0.2087  0.1216  0.3530
20488W        W63479  20.807  33.800  25.236  0.0444  0.1140  0.1114
20489W        W63480  15.407  10.322   7.813 -0.0073 -0.1007  0.0740
20490W        W63481  17.973  20.567  19.780 -0.2499 -0.1922 -0.0858
20491W        W63482   9.533   0.945  25.759  0.2820  0.2162  0.0442
20492W        W63483  26.238   3.756  23.959  0.0706 -0.2441 -0.2021
20493W        W63484  18.354  34.150   9.666 -0.1968  0.0638 -0.3405
20494W        W63485  25.186  27.126   7.174  0.2150  0.0314 -0.3511
20495W        W63486   0.094  14.932   0.518  0.0994  0.0278  0.0137
20496W        W63487  33.725   1.868   0.938 -0.2002  0.1645  0.0969
20497W        W63488  24.158   5.204  20.927  0.1997  0.1125 -0.3482
20498W        W63489  30.053  24.175  14.508  0.0018  0.0447  0.1762
20499W        W63490   5.556   9.106  19.494  0.4069 -0.2056  0.3723
20500W        W63491  23.540  16.781   5.402 -0.3194  0.0190 -0.1756
20501W        W63492  22.964  30.830   4.071  0.2659  0.0573  0.2944
20502W        W63493  22.816   4.404  26.284  0.2180  0.0836 -0.0575
20503W        W63494  25.556  24.454  18.996  0.0159  0.2849 -0.1759
20504W        W63495  27.247  16.347  22.546 -0.1057 -0.0446  0.0864
20505W        W63496   8.491  11.595  24.062  0.3192  0.0018  0.3204
20506W        W63497  14.043   5.388  28.191 -0.0834  0.2266  0.4817
20507W        W63498  10.397   7.731   3.716 -0.1936  0.1916  0.1164
20508W        W63499  26.065   1.691   6.807  0.0938  0.1847 -0.0537
20509W        W63500  14.638  21.706  22.942 -0.0884 -0.0057  0.0636
20510W        W63501   2.505   0.500   4.011 -0.2526 -0.6105  0.2867
20511W        W63502  14.628   0.728   5.008 -0.1797 -0.2434 -0.4861
20512W        W63503  14.755  28.843   8.060 -0.2866 -0.0601  0.1662
20513W        W63504  23.469   4.685   4.849  0.0723 -0.3125  0.0915
20514W        W63505  21.561  33.686   6.523  0.2489 -0.0246  0.3779
20515W        W63506  16.341  22.211  20.429 -0.0324 -0.1371 -0.0040
20516W        W63507  24.062   5.715   1.974  0.0131  0.1026 -0.0171
20517W        W63508  23.399  34.763   2.804  0.0652  0.3634 -0.0164
20518W        W63509  16.549   7.785   6.782  0.1120  0.0265  0.0644
20519W        W63510  30.485   1.574  17.985  0.2478 -0.0233 -0.0425
20520W        W63511  11.207   3.455   6.695  0.0684  0.1766  0.1385
20521W        W63512  31.504  31.499   1.969 -0.0748 -0.0534 -0.1082
20522W        W63513  27.733  32.537   8.409 -0.1011 -0.1967  0.3163
20523W        W63514  32.247  11.671   7.559 -0.0431  0.2814  0.2850
20524W        W63515  25.630  31.032   1.947  0.1406 -0.0964 -0.1379
20525W        W63516  18.503   7.433   8.197  0.0728 -0.2145 -0.1022
20526W        W63517  24.522  15.779  24.134  0.2841 -0.0961  0.1128
20527W        W63518   0.880  31.832  28.846  0.1948  0.0994 -0.1781
20528W        W63519  20.623  21.477  28.049 -0.1607  0.0427  0.0532
20529W        W63520  12.420   1.498   5.251  0.1262  0.0934 -0.4964
20530W        W63521  23.288  15.543   5.665 -0.2267  0.0351 -0.2988
20531W        W63522  26.534  32.430  25.536  0.0851  0.0302 -0.0755
20532W        W63523   3.551  18.248   8.487 -0.2564  0.2888 -0.1769
20533W        W63524   5.607  18.890   2.383 -0.2508  0.0784 -0.1811
20534W        W63525  29.108   9.883   1.967  0.3096 -0.2188  0.2656
20535W        W63526  17.004  30.181   4.403 -0.2572  0.0537 -0.1945
20536W        W63527  12.732  13.832   5.731  0.0623  0.1288  0.1781
20537W        W63528  10.898   9.895  27.610  0.1038  0.0291  0.4187
20538W        W63529  11.254  13.255  16.237  0.0264  0.1289  0.0679
20539W        W63530  26.788  28.562  28.097  0.0244 -0.4330 -0.1457
20540W        W63531  22.838  16.782  24.767 -0.2628  0.0989 -0.3258
20541W        W63532  17.014  13.776  22.975 -0.1640 -0.1097  0.2510
20542W        W63533  26.745  14.847  19.723 -0.0039  0.0083 -0.1257
20543W        W63534   9.639   8.496   3.323  0.0297  0.1120  0.2716
20544W        W63535  25.452  15.392  15.038  0.0881 -0.0733 -0.0905
20545W        W63536  24.690  26.898   3.857 -0.0904  0.0078 -0.0531
20546W        W63537  21.593  11.544   1.724 -0.0943  0.1403 -0.1205
20547W        W63538  18.085   8.887   5.634 -0.1155  0.1022  0.2301
20548W        W63539  19.814  15.420  27.350  0.2542  0.0342 -0.0350
20549W        W63540  13.278  34.583   3.745 -0.2353  0.0050 -0.2785
20550W        W63541  20.997   9.367  16.223  0.0051 -0.1124 -0.0846
20551W        W63542  25.752   5.682   6.857 -0.2429 -0.0239  0.0365
20552W        W63543  31.385  30.277   3.181 -0.1425 -0.0029  0.0920
20553W        W63544  19.490  19.139   2.499 -0.3786 -0.0754 -0.0684
20554W        W63545  20.842   4.378  17.782 -0.1049  0.0506  0.3147
20555W        W63546  15.439  11.120  22.828  0.1755  0.1460 -0.4765
20556W        W63547  25.624   3.526   1.520  0.1240 -0.1564 -0.1068
20557W        W63548   3.020  15.002   1.930  0.5305  0.2599  0.1096
20558W        W63549  29.719   5.675  24.950  0.4313 -0.0941  0.0854
20559W        W63550  18.201  17.652   6.390 -0.1037  0.1353 -0.0421
20560W        W63551  11.383  32.206   0.001 -0.1095  0.1815 -0.1682
20561W        W63552  29.766  32.826  27.791  0.1744 -0.2901 -0.0196
20562W        W63553   9.076   7.101   6.663  0.1608  0.1286  0.0704
20563W        W63554  28.816  13.021  22.345 -0.0522 -0.0017 -0.2062
20564W        W63555  30.884   9.437   3.379  0.0844  0.0593 -0.0491
20565W        W63556   1.106  17.692   9.596  0.2151 -0.0745  0.0854
20566W        W63557  19.497  28.986   0.490 -0.0556  0.1341 -0.3349
20567W        W63558   0.924   0.709  21.171 -0.1465  0.0196  0.2628
20568W        W63559  33.627   7.793   5.410 -0.1306  0.3643  0.1368
20569W        W63560  32.343   3.728  24.040  0.4485 -0.3138 -0.0210
20570W        W63561  23.434  20.076  28.264  0.1051  0.1223 -0.1756
20571W        W63562   9.228   2.973   1.335 -0.1272 -0.0404  0.2467
20572W        W63563  20.944   0.089   7.191  0.0607  0.0452  0.0318
20573W        W63564  23.677  27.075   2.555  0.0563  0.0389 -0.2357
20574W        W63565  28.250   3.810   7.078 -0.3112 -0.1673 -0.0052
20575W        W63566  29.979   8.803  27.704 -0.0278 -0.1546 -0.2108
20576W        W63567  14.741  33.219  23.473 -0.0608  0.2772 -0.0527
20577W        W63568  25.271   2.572  18.967 -0.0511 -0.3915 -0.0114
20578W        W63569  25.858  18.727   3.184 -0.2700  0.0345  0.1151
20579W        W63570  29.087  12.665   8.404  0.2579 -0.0037  0.1193
20580W        W63571  27.417  30.308   4.971 -0.2310  0.2335  0.2030
20581W        W63572   8.272  34.693   4.318  0.1072 -0.0498 -0.3562
20582W        W63573  21.713   5.376   7.158  0.2307 -0.2002 -0.1707
20583W        W63574   8.181  29.069   9.875  0.1585  0.1592 -0.1282
20584W        W63575  21.308  26.570   8.316 -0.1702 -0.1535 -0.1832
20585W        W63576   5.957   2.985  24.342  0.0486 -0.1446 -0.0416
20586W        W63577  11.347  24.549  27.683 -0.0245  0.1064 -0.1304
20587W        W63578  28.658   7.116   3.912 -0.2247  0.0258  0.0039
20588W        W63579  18.186   7.854   7.852 -0.3095 -0.3043 -0.1467
20589W        W63580   4.026  22.856  28.732  0.1578 -0.1510 -0.1164
20590W        W63581   0.816  29.242  18.920  0.2534 -0.0964  0.3048
20591W        W63582  16.400   5.833   7.332  0.2058  0.1066  0.1307
20592W        W63583  14.096  10.672   2.675 -0.0709 -0.1459  0.0302
20593W        W63584  15.715   9.102   6.614 -0.0502  0.4381 -0.5316
20594W        W63585  21.084  30.455  25.162  0.2009  0.0487  0.0486
20595W        W63586  22.055  15.611  27.455  0.1597  0.0353 -0.0657
20596W        W63587  13.199  29.503  25.442 -0.1506  0.0707 -0.0263
20597W        W63588  27.520  13.356   9.062 -0.2483  0.0008 -0.0539
20598W        W63589  31.004  30.781   2.017 -0.2077  0.0898 -0.2163
20599W        W63590  23.969   3.737  25.817  0.3205  0.1308 -0.1920
20600W        W63591   2.696   5.008  27.375  0.1803 -0.2578  0.2130
20601W        W63592  26.914  13.780   7.266  0.2567 -0.0509  0.0665
20602W        W63593  18.203  28.685   7.294 -0.2704  0.2037  0.0222
20603W        W63594  27.479  28.667   3.554 -0.0654 -0.0334  0.0188
20604W        W63595  19.952  28.460  20.881 -0.0332 -0.1732 -0.0413
20605W        W63596  34.686  25.773   4.361  0.0802  0.0476 -0.2858
20606W        W63597  23.351  14.919  27.594  0.1030  0.1154 -0.0240
20607W        W63598  24.805  33.611   8.387 -0.1799 -0.2745 -0.3752
20608W        W63599  23.131   6.085  13.776 -0.1031  0.0289 -0.1089
20609W        W63600  26.405  34.253   4.630 -0.1455  0.1859 -0.2218
20610W        W63601  32.807   4.991  10.169 -0.1911  0.1057  0.0912
20611W        W63602  31.383  10.701   7.950  0.0493  0.1936 -0.2427
20612W        W63603  34.316  12.079  11.544  0.0740  0.1283  0.1335
20613W        W63604   4.616  33.227   7.689  0.0147 -0.0815  0.1901
20614W        W63605  23.734  27.345  27.319 -0.0645 -0.0789  0.1380
20615W        W63606   7.483  17.431   7.219 -0.1850 -0.0081  0.1080
20616W        W63607  20.748   6.816   7.082  0.3506  0.0409 -0.0918
20617W        W63608  25.107  30.564   4.793 -0.4196 -0.2605 -0.0863
20618W        W63609  25.937   8.866   2.405  0.0707  0.3506  0.1561
20619W        W63610   2.395   6.294   3.981  0.1874 -0.0389 -0.2808
20620W        W63611  29.048   2.777   3.997  0.2191  0.0398 -0.0535
20621W        W63612  17.706  12.344   6.168 -0.3668  0.0033 -0.0814
20622W        W63613  30.776  26.807   1.915 -0.0141  0.1901 -0.2514
20623W        W63614  21.599   7.099   6.067 -0.1888 -0.1464 -0.1282
20624W        W63615  25.500  33.328   1.203  0.0603  0.3595  0.1383
20625W        W63616  23.487   9.837   3.385 -0.1881 -0.3698  0.0744
20626W        W63617  23.442  11.101   7.397 -0.0719 -0.0520  0.0337
20627W        W63618  24.887   6.411   9.677 -0.0232 -0.0105 -0.2461
20628W        W63619  31.963   0.728   1.048  0.2121  0.1912 -0.1676
20629W        W63620   6.603   3.887   1.070  0.2421  0.1258  0.1086
20630W        W63621  16.955  10.064  19.057  0.0209  0.3267  0.5897
20631W        W63622  30.240  14.452   0.980 -0.2041 -0.1846  0.0167
20632W        W63623  24.951  17.360   8.967  0.3306  0.0834 -0.1379
20633W        W63624  25.173  24.040   8.867  0.1192 -0.0597  0.0803
20634W        W63625  24.125   2.982   2.566  0.1803  0.1454 -0.0920
20635W        W63626  31.335  33.185   7.905 -0.2132 -0.0794  0.2013
20636W        W63627  21.168  13.519   3.218 -0.1797  0.1691 -0.1592
20637W        W63628  11.232   5.931  26.443 -0.1457  0.4817 -0.1514
20638W        W63629  23.387   7.017   9.968  0.4148 -0.1782  0.1896
20639W        W63630  32.275  28.950  19.464  0.0180  0.0551 -0.1292
20640W        W63631  20.939  31.155   7.594 -0.1666  0.1191 -0.0291
20641W        W63632  19.845  10.406  26.052  0.0013 -0.2378  0.1013
20642W        W63633  23.669  33.939   2.962 -0.2998 -0.1729  0.0058
20643W        W63634  18.264   4.285   6.386  0.2400 -0.1412  0.0687
20644W        W63635  28.577   2.059   6.712 -0.2430  0.1959 -0.0538
20645W        W63636  10.789  33.801  10.739 -0.2483  0.0868 -0.0665
20646W        W63637  31.543  28.093  27.417 -0.0198  0.1643  0.1350
20647W        W63638   1.323  10.413   4.275  0.1501 -0.2376  0.0737
20648W        W63639  15.213  27.107  28.214 -0.0229  0.2057  0.4405
20649W        W63640  18.024  32.235   5.876  0.0481 -0.0418  0.0802
20650W        W63641  13.259   4.818  10.876 -0.0365 -0.0514 -0.1295
20651W        W63642  20.001   1.351   1.275 -0.0552 -0.0851  0.0192
20652W        W63643   0.145   2.972   7.898  0.0589  0.0191 -0.1106
20653W        W63644  26.860   0.803  27.610 -0.1082 -0.2200 -0.2369
20654W        W63645  32.364   6.046   4.591  0.2263  0.4040 -0.2829
20655W        W63646  27.546   0.583  22.632 -0.1557 -0.1758 -0.2952
20656W        W63647  20.407   8.259   8.327  0.0145 -0.0911  0.1717
20657W        W63648  23.074   6.954   4.088  0.1414  0.0643 -0.1363
20658W        W63649  29.933  16.082   2.855 -0.3437 -0.0565  0.0456
20659W        W63650   8.453  18.831  23.670  0.2367 -0.3492  0.1013
20660W        W63651  26.452  17.839   9.429  0.0974  0.1257  0.2546
20661W        W63652   6.347  10.417   3.358  0.1550 -0.2293  0.0433
20662W        W63653  20.479   2.122  26.812 -0.0819  0.0244  0.1113
20663W        W63654  18.721  32.876   0.207  0.2025 -0.2462 -0.0620
20664W        W63655   0.751  11.751  28.281 -0.2462  0.1327  0.0697
20665W        W63656  28.365   6.284  14.747  0.1974 -0.1089  0.1255
20666W        W63657  23.791   1.714   0.750  0.4206  0.3279  0.0226
20667W        W63658  11.804  12.736   6.694  0.1514 -0.4165 -0.1261
20668W        W63659  16.569  33.804  10.248  0.0308 -0.1870  0.1457
20669W        W63660  24.001  33.516   6.882 -0.0347 -0.0105 -0.1318
20670W        W63661  27.758   9.022   7.306 -0.0905  0.0759 -0.1362
20671W        W63662  23.243  31.539   8.426 -0.1311 -0.0282  0.0002
20672W        W63663  19.252   5.710  23.684  0.3382 -0.0968  0.0251
20673W        W63664  17.677  13.687   4.495 -0.2193  0.0934  0.0717
20674W        W63665  20.221  10.517   6.770  0.3030  0.4789  0.3488
20675W        W63666  27.514  14.990   1.946 -0.2519  0.3571  0.0665
20676W        W63667  12.873   7.365   2.358 -0.1442 -0.3488  0.1214
20677W        W63668  15.618  15.570   5.875  0.0750  0.1725  0.2444
20678W        W63669  20.092   3.690   4.967  0.1635  0.0884 -0.0156
20679W        W63670   0.690   4.866   6.843 -0.4393  0.0657  0.0754
20680W        W63671   9.013   0.968   0.179 -0.1282  0.1447  0.0970
20681W        W63672  27.191   1.895  18.452  0.0892 -0.0104  0.0847
20682W        W63673  24.860  34.768   3.395 -0.0558  0.2207  0.0334
20683W        W63674  33.791   6.879  20.371  0.0728 -0.2041 -0.0963
20684W        W63675  18.098   6.723  23.703  0.1858 -0.3137 -0.0126
20685W        W63676  26.704   2.123   4.356 -0.0064 -0.3359 -0.0533
20686W        W63677  25.125  10.554   7.727  0.0218 -0.0162 -0.3350
20687W        W63678  25.533   5.150   7.812 -0.2631  0.1531 -0.2937
20688W        W63679  27.275  15.143   8.994 -0.1114  0.0623 -0.0619
20689W        W63680  21.310  30.905   5.526 -0.1418 -0.1762 -0.1349
20690W        W63681  22.028   4.528   6.134 -0.2423  0.1239  0.0353
20691W        W63682  16.777  10.173   9.163 -0.1074 -0.2146  0.0920
20692W        W63683  12.126  34.209  15.348  0.0609  0.0693 -0.0422
20693W        W63684  24.563  10.106  19.838  0.0714 -0.0378  0.0097
20694W        W63685  22.620  10.266   8.886  0.1417  0.0175  0.1876
20695W        W63686  20.737  32.120   3.248 -0.0683 -0.1581  0.0966
20696W        W63687  21.957  11.627   5.871  0.2920  0.2510 -0.1082
20697W        W63688  18.221   6.893   0.334  0.1258 -0.1314  0.0581
20698W        W63689  16.091   8.020   4.886 -0.1055 -0.0635  0.0791
20699W        W63690  24.317   5.052  27.953  0.1949 -0.1526 -0.1655
20700W        W63691  23.750  10.545   4.387  0.1266  0.1142 -0.1131
20701W        W63692  17.765  19.287  24.492  0.2286 -0.1377  0.2947
20702W        W63693  33.256   2.741   4.218 -0.0428  0.0707 -0.3250
20703W        W63694   0.422  27.371   1.259 -0.0910 -0.0940  0.1474
20704W        W63695   7.140  20.625   2.202 -0.2463  0.0824 -0.1248
20705W        W63696  14.083   0.305   9.761 -0.1797 -0.0313  0.0520
20706W        W63697  32.222  27.569   3.586  0.0955 -0.2250  0.1370
20707W        W63698  24.021  29.895  23.792  0.2117  0.1149 -0.0732
20708W        W63699  28.590   8.731   7.783  0.0086  0.0176  0.0918
20709W        W63700  20.071   4.144   2.310  0.0891 -0.0935 -0.0036
20710W        W63701  32.213   5.464   6.172  0.1504 -0.2685  0.0669
20711W        W63702  24.529   5.221  17.096 -0.2278 -0.0950 -0.1003
20712W        W63703  18.780  12.048   2.979  0.0923 -0.0645  0.0453
20713W        W63704  30.984  15.404   3.754 -0.0527 -0.1582 -0.3508
20714W        W63705  16.408  14.713   5.587 -0.4706  0.2648 -0.2901
20715W        W63706  21.888   0.532   6.260 -0.1730 -0.0310 -0.1392
20716W        W63707   1.761   3.575  26.923 -0.0119  0.0746  0.1741
20717W        W63708  18.040   6.186  28.899  0.0180 -0.0524  0.1983
20718W        W63709  30.496  32.246   5.544 -0.3809 -0.2497 -0.0663
20719W        W63710  24.972   2.511   1.668 -0.0095  0.1364 -0.0341
20720W        W63711  10.438  23.509   4.618  0.0995  0.0015 -0.2190
20721W        W63712  31.270  19.975  26.014 -0.1203  0.0653 -0.2883
20722W        W63713  20.925   3.659   1.477  0.3977 -0.0377  0.3241
20723W        W63714   3.796  16.996   9.003  0.3135  0.2695 -0.0485
20724W        W63715  29.798  19.870  29.216 -0.3075 -0.2920  0.1931
20725W        W63716  29.200  19.154   5.756  0.0191  0.0361  0.0244
20726W        W63717   7.287  33.159  26.334  0.0158 -0.1298  0.1012
20727W        W63718  18.198  29.863   9.354  0.0863  0.1973  0.1589
20728W        W63719  22.575   4.068  28.366 -0.0542 -0.0477 -0.0357
20729W        W63720  29.784   5.685   9.796  0.1723  0.0180  0.0525
20730W        W63721  30.226   6.251   8.753 -0.1371 -0.0559 -0.0701
20731W        W63722  30.407  33.556  24.512  0.1449  0.3021 -0.1229
20732W        W63723  18.430  26.255   3.841 -0.2172 -0.0215  0.0806
20733W        W63724  28.357   8.056   6.847  0.0861  0.1152  0.0786
20734W        W63725  28.287  12.359   8.488  0.0526 -0.1964  0.1645
20735W        W63726  23.392   3.581   6.069 -0.0457  0.0535 -0.2375
20736W        W63727  27.345   8.555   5.333  0.0789  0.3038  0.0210
20737W        W63728  19.501   9.654   0.304  0.2952 -0.3279  0.0889
20738W        W63729   1.098  12.365  16.132 -0.0343  0.2419  0.0473
20739W        W63730  29.014   5.813   5.035 -0.0247  0.0763 -0.0140
20740W        W63731  26.331   2.476   0.667 -0.0742  0.0108 -0.1646
20741W        W63732   4.019  25.800   5.099  0.0147  0.0251 -0.0664
20742W        W63733  24.889  10.278   5.848  0.0004  0.2652  0.1416
20743W        W63734  24.102   3.491   2.508 -0.0086  0.0015 -0.0586
20744W        W63735  15.898   9.243   0.319 -0.3764  0.4123  0.1288
20745W        W63736  11.955   6.092  24.443  0.0512 -0.1403 -0.1428
20746W        W63737  21.360   0.071  28.191  0.0754 -0.2531 -0.2473
20747W        W63738  22.649  17.549   7.400 -0.0441  0.2357  0.1379
20748W        W63739   9.360   3.173  21.720  0.1938 -0.1561 -0.1892
20749W        W63740  15.930   9.588   9.289  0.3356 -0.0964  0.0226
20750W        W63741   4.835  15.737  27.498 -0.3008  0.3795  0.3253
20751W        W63742  13.276  30.806   0.459  0.2352 -0.2385  0.1710
20752W        W63743  31.040   6.475   5.885  0.1838 -0.0713  0.0539
20753W        W63744  28.511   3.565   9.396  0.0537 -0.0043  0.2238
20754W        W63745  24.798   1.464   6.646  0.3509  0.0268  0.0474
20755W        W63746  14.292   3.671  24.384  0.3152 -0.0085  0.0454
20756W        W63747  18.155   8.772   4.848 -0.1519  0.2694  0.0742
20757W        W63748  12.458   8.416  26.105  0.1138  0.0566  0.1043
20758W        W63749  32.216  31.936   7.735 -0.0953 -0.2869 -0.2522
20759W        W63750   7.681  13.937  10.032  0.2238 -0.1003 -0.0882
20760W        W63751   2.819   8.034   0.610  0.2380  0.1176  0.0717
20761W        W63752  17.379  10.514   5.979 -0.0053 -0.0712 -0.0952
20762W        W63753   3.657  10.361  25.574 -0.1425  0.2202  0.1403
20763W        W63754  31.219  11.455   0.693  0.0270 -0.2269 -0.0660
20764W        W63755  14.981   0.069   8.945 -0.1231  0.1704 -0.1752
20765W        W63756  24.899   5.167   8.779 -0.2795  0.2783 -0.0576
20766W        W63757  22.351  34.573   3.697  0.0287  0.1612  0.0605
20767W        W63758   7.793  19.667   8.301  0.0435 -0.0402  0.1249
20768W        W63759  34.439  31.283   5.427  0.0205 -0.0749 -0.4652
20769W        W63760  14.353  19.966   1.776 -0.0239  0.2129 -0.3124
20770W        W63761  22.094  19.214  28.450 -0.0667  0.4642  0.0810
20771W        W63762  23.316   6.764   6.292  0.0070  0.1922 -0.1744
20772W        W63763  26.957  13.657   6.280  0.0219 -0.0755 -0.0463
20773W        W63764   7.524   0.127  27.037 -0.2078 -0.2219 -0.0741
20774W        W63765  29.589   1.262   6.894 -0.1847 -0.1581  0.0659
20775W        W63766  17.091   6.186   1.279 -0.0694  0.0753  0.0084
20776W        W63767   4.912   9.382  24.707 -0.0362  0.2051  0.0633
20777W        W63768  29.868  32.398   4.837 -0.0897  0.1713 -0.1383
20778W        W63769  23.606   8.341   2.123 -0.0555 -0.0662 -0.0771
20779W        W63770  31.900  25.189   5.414 -0.0000  0.0540 -0.1762
20780W        W63771  20.839  24.181  23.053 -0.1342 -0.2898  0.1128
20781W        W63772  20.984  15.901  22.475 -0.1559  0.0484  0.1562
20782W        W63773  13.322  29.611  14.376 -0.0005 -0.3000  0.2381
20783W        W63774   0.049  13.285  26.107  0.0495 -0.0468  0.1040
20784W        W63775  20.289  11.866  20.623 -0.0191 -0.0817  0.1192
20785W        W63776   8.566  13.240   4.639 -0.2419  0.1812  0.1252
20786W        W63777  16.375   9.639   6.906  0.0825 -0.0646 -0.0456
20787W        W63778  32.612  27.577   8.962  0.0073 -0.2655 -0.1583
20788W        W63779  21.086  17.913  18.658  0.2805 -0.0399  0.1062
20789W        W63780  18.794  12.118  17.404  0.0468 -0.2907  0.2547
20790W        W63781   7.890  25.682   8.025  0.3432  0.2884 -0.0951
20791W        W63782  21.655  31.944   0.392 -0.1813  0.0067 -0.3797
20792W        W63783  31.932   3.534   2.560  0.0066 -0.0811  0.2131
20793W        W63784   7.132   0.511   1.781 -0.0959 -0.1215  0.5596
20794W        W63785  15.240   9.129   7.451  0.0178 -0.4226  0.0180
20795W        W63786  20.040   0.572  27.630  0.0903 -0.0835  0.0893
20796W        W63787  30.589  13.916  26.940 -0.0265  0.1520 -0.1086
20797W        W63788   7.645  33.015   3.200  0.1506  0.0909 -0.0406
20798W        W63789   8.894  18.194   1.273 -0.0066  0.1321  0.0823
20799W        W63790  13.578  30.059  19.226  0.4090  0.1124 -0.2092
20800W        W63791  34.799  18.959   6.694  0.1538  0.0709  0.2649
20801W        W63792  24.705   2.683   9.376 -0.0817  0.2729 -0.1504
20802W        W63793  11.232  18.305  27.880 -0.0103  0.0930 -0.1234
20803W        W63794  25.310  31.983   0.376  0.1959 -0.0838 -0.1500
20804W        W63795  23.854   8.237   2.615 -0.1484  0.1844  0.0581
20805W        W63796  15.431  29.239   9.990  0.1088  0.0060  0.0007
20806W        W63797  20.163   7.613  28.501  0.0280  0.3704 -0.1856
20807W        W63798  14.192   3.835  21.925 -0.0872  0.0186  0.2397
20808W        W63799  10.337  32.736  18.454 -0.0094 -0.1365  0.0270
20809W        W63800  21.873  17.459   1.185 -0.2892 -0.0702 -0.0865
20810W        W63801  10.860   7.352  16.325  0.0012 -0.1375 -0.1279
20811W        W63802   2.297  28.119  26.510 -0.0734  0.0775  0.3138
20812W        W63803  17.074  10.095  26.057 -0.0614 -0.2397 -0.0970
20813W        W63804  24.302  18.935   8.181 -0.3962 -0.1382  0.2814
20814W        W63805  19.176   8.432   3.470  0.2293  0.4661  0.4080
20815W        W63806  26.726  29.517   6.572  0.1679  0.0224  0.0281
20816W        W63807  18.588  28.021   2.862 -0.0319 -0.2151  0.1558
20817W        W63808  32.186   7.933  29.128  0.0213 -0.2845  0.0502
20818W        W63809  23.177  15.336   7.090 -0.0346 -0.0810  0.2723
20819W        W63810  20.365  34.608  25.160 -0.0711 -0.0124 -0.0400
20820W        W63811  18.384  26.523   5.703 -0.1270 -0.1067  0.3333
20821W        W63812   0.298  22.324  22.708 -0.1338 -0.2519  0.2537
20822W        W63813  15.369  15.845   2.001  0.1671 -0.2535  0.1510
20823W        W63814   7.840   6.485   9.741  0.1045  0.1818  0.0626
20824W        W63815   4.351   6.958   5.320 -0.1675  0.1585  0.1217
20825W        W63816  30.760  23.279   1.109  0.1956  0.3104  0.0266
20826W        W63817   7.904   2.992  23.382 -0.0988  0.1423  0.0265
20827W        W63818  26.346  24.724   8.437  0.1207  0.0776 -0.0281
20828W        W63819   8.483   8.587  28.819 -0.1407 -0.1466  0.1488
20829W        W63820  16.250  32.816   0.646  0.1007 -0.0338  0.1147
20830W        W63821  23.821   6.382  27.640 -0.0521  0.1358 -0.0819
20831W        W63822  27.478   8.795   9.390 -0.1017  0.0003  0.1896
20832W        W63823  21.115  32.385   8.284 -0.2514 -0.0715  0.3187
20833W        W63824  20.808  29.998   3.445 -0.4955 -0.2032  0.1858
20834W        W63825  32.954  33.578   9.926  0.1380  0.2992  0.2185
20835W        W63826  27.125  13.611   0.528 -0.0723  0.2936 -0.0031
20836W        W63827  15.841  12.936   4.578  0.1106  0.3140 -0.0429
20837W        W63828  23.821  18.240   5.055 -0.2464 -0.0474  0.0005
20838W        W63829  14.525  33.782   9.347  0.0753 -0.1386 -0.0083
20839W        W63830  23.733  12.697   7.994 -0.0186  0.0293  0.2118
20840W        W63831  13.320  31.740  10.079  0.1739  0.1543 -0.0335
20841W        W63832   8.615   2.402   5.765 -0.2249  0.3412 -0.2593
20842W        W63833  14.570  11.191   0.316 -0.0047 -0.0765 -0.0543
20843W        W63834  22.692  17.853   0.992  0.3831 -0.1198  0.1571
20844W        W63835  21.442   3.186   3.983 -0.1492  0.0533 -0.1499
20845W        W63836  19.098   8.659   4.700 -0.1959 -0.1199 -0.0761
20846W        W63837  14.685   5.080   7.177 -0.1555  0.2721  0.1481
20847W        W63838  25.778  32.387   8.949  0.1557  0.0035 -0.1636
20848W        W63839  10.356  28.896   1.253 -0.1724 -0.1050 -0.0015
20849W        W63840  26.111   4.879   8.429  0.1210 -0.1175  0.3215
20850W        W63841  21.154   8.257   6.879 -0.4896  0.1462  0.2396
20851W        W63842  30.929   8.319   8.812  0.4122 -0.2048 -0.2000
20852W        W63843  16.683   9.799   5.338 -0.0038 -0.0064  0.2009
20853W        W63844  13.851   3.292   8.063  0.2575 -0.0843 -0.2844
20854W        W63845  26.568   8.886   8.158  0.0845 -0.4346  0.2823
20855W        W63846  27.380  30.671   5.332 -0.1683  0.1062 -0.1085
20856W        W63847   4.855  14.154   7.227 -0.2458 -0.0160 -0.3833
20857W        W63848  13.536   5.656   8.178  0.0101  0.1023 -0.0739
20858W        W63849  28.148   8.407  28.053  0.0739 -0.1520 -0.1218
20859W        W63850  11.675  12.415  19.186  0.1603  0.0994  0.2003
20860W        W63851  25.444   6.069   7.794 -0.1015  0.0110  0.1137
20861W        W63852  19.620  13.674  22.392 -0.0544  0.0985  0.2855
20862W        W63853  22.891  16.795  19.800  0.0386 -0.2453  0.0652
20863W        W63854  21.502  11.375   1.222  0.1743 -0.1157 -0.0718
20864W        W63855  27.096   5.091   7.764  0.2261 -0.3101 -0.1756
20865W        W63856   1.674  19.916   1.083  0.0620  0.0726 -0.0494
20866W        W63857  28.815  13.538  11.029 -0.0598 -0.0368  0.0583
20867W        W63858   8.611  25.324   0.540 -0.1192  0.0754 -0.2009
20868W        W63859  25.088  32.881  19.698  0.1468 -0.2323 -0.2295
20869W        W63860  19.794  13.880  20.046  0.0045  0.0994  0.0944
20870W        W63861  16.812  32.725   6.990  0.3563 -0.1586 -0.1418
20871W        W63862  31.579   9.860   8.846 -0.0432 -0.2614 -0.0124
20872W        W63863   2.954   0.932   6.887 -0.1894  0.2468  0.0254
20873W        W63864  30.649   9.524   1.234 -0.0842  0.2155 -0.0902
20874W        W63865  21.331  15.745   2.385  0.0614  0.1174  0.4032
20875W        W63866  28.006   5.236  10.256  0.0064 -0.0622  0.1949
20876W        W63867  19.265   2.895   4.080 -0.0933 -0.2323  0.2318
20877W        W63868  33.779  14.516   4.888  0.0268 -0.1663  0.1343
20878W        W63869  17.227  32.697   8.314  0.1091  0.2635 -0.0926
20879W        W63870  22.806  14.433  26.357 -0.2584 -0.0627 -0.0392
20880W        W63871   8.691  33.942  29.194 -0.1205  0.0434 -0.1319
20881W        W63872   9.851  34.452  23.973 -0.1059  0.0414  0.1181
20882W        W63873  34.236  30.356   2.893 -0.1464 -0.0075 -0.1018
20883W        W63874  30.994   7.091   2.385  0.1662  0.0344 -0.0543
20884W        W63875  12.935  31.346   5.346 -0.3434  0.1215 -0.0072
20885W        W63876  27.602  10.460   7.910  0.1398  0.2095  0.0815
20886W        W63877  18.921  15.557  28.847 -0.1151  0.0377  0.2810
20887W        W63878  28.401  22.086   4.217  0.1966  0.4157  0.0697
20888W        W63879  32.354  31.649   0.095 -0.1615  0.1457  0.5270
20889W        W63880  25.159   5.885   5.113 -0.0862  0.4693  0.0234
20890W        W63881  10.797  18.781   0.484  0.3325 -0.2020 -0.0671
20891W        W63882   4.696  26.909  21.602 -0.2905  0.1801 -0.1777
20892W        W63883  32.210  34.351  23.850 -0.0811  0.3535 -0.3093
20893W        W63884  11.659  31.397   3.071  0.0726 -0.1854  0.1142
20894W        W63885   1.521  10.766   6.676  0.0615  0.3660 -0.0712
20895W        W63886   4.879  18.356  19.529  0.3040  0.1824 -0.3591
20896W        W63887  24.725  24.155   0.189  0.0283 -0.2128  0.0453
20897W        W63888  26.957  27.499   5.700 -0.1727  0.1619  0.3371
20898W        W63889  12.559  15.783   0.708 -0.1570  0.2791  0.0244
20899W        W63890  23.932   0.977  21.156  0.0203  0.1184  0.1908
20900W        W63891  17.625  13.683   7.326 -0.1404 -0.0748  0.3290
20901W        W63892  30.298   2.022   9.935  0.1799  0.2151 -0.1654
20902W        W63893  26.943  20.102   0.138  0.0392 -0.0865 -0.3941
20903W        W63894  18.828  13.605  21.488 -0.0236  0.3228  0.2540
20904W        W63895  10.487  13.650  26.244  0.0554  0.1997  0.0255
20905W        W63896  26.995  30.782   4.308 -0.0521 -0.0153  0.2723
20906W        W63897  24.952   7.456   7.303  0.1268 -0.0717  0.1504
20907W        W63898  20.072   7.918   1.438  0.2030 -0.1247 -0.1457
20908W        W63899  30.969  32.929   3.178 -0.0475  0.1896  0.1377
20909W        W63900  16.510   9.671  20.269 -0.1406 -0.0442  0.2079
20910W        W63901  27.450   7.722   8.432 -0.1078 -0.0718 -0.1972
20911W        W63902  22.879  34.273   8.899  0.1874  0.1784  0.3046
20912W        W63903   7.523  22.539  17.354 -0.0017  0.1003  0.0462
20913W        W63904   6.094  13.094   2.679 -0.1581  0.0721  0.0880
20914W        W63905  18.694  22.061   6.046  0.0786  0.0894 -0.1255
20915W        W63906  24.052  23.154   0.365  0.3719 -0.2287  0.2226
20916W        W63907  18.889  12.755  27.394  0.0545 -0.1474 -0.1248
20917W        W63908  14.840  12.624   3.459  0.4016  0.2131  0.0724
20918W        W63909  18.596  16.063   5.953 -0.0469  0.3064  0.0992
20919W        W63910  19.772   7.081  26.937 -0.1235  0.1722 -0.0542
20920W        W63911  32.748  32.809  22.070 -0.2421 -0.2360  0.1310
20921W        W63912  31.995  32.292   8.104  0.3473  0.2348 -0.0118
20922W        W63913  12.302  33.214  23.186  0.0059  0.1174  0.1326
20923W        W63914  28.899  11.627   2.283  0.2646 -0.2838 -0.1473
20924W        W63915  20.043  19.524   0.552 -0.0672 -0.1346  0.0089
20925W        W63916  23.953  31.227  27.397  0.3298 -0.1827 -0.0822
20926W        W63917  26.460  17.852   6.009 -0.3372 -0.3089  0.0294
20927W        W63918  27.497   4.981  26.964 -0.0315 -0.1762  0.2655
20928W        W63919  18.218  13.302  27.026 -0.0378  0.1201  0.2546
20929W        W63920  16.443  27.584   2.139 -0.0638  0.1894  0.1050
20930W        W63921  31.268  20.525  23.645 -0.1529 -0.1355 -0.1241
20931W        W63922  23.853  20.158  28.018 -0.2414  0.0371 -0.3946
20932W        W63923  20.056  28.353   7.973  0.1655 -0.1904  0.1845
20933W        W63924  29.316   1.317  27.398  0.0165  0.1243  0.1455
20934W        W63925  18.292   8.497  20.209  0.1542  0.0926 -0.2426
20935W        W63926  34.065  14.644   9.324  0.1172  0.0677 -0.1084
20936W        W63927  24.250   4.699   7.942  0.1652 -0.1344 -0.1064
20937W        W63928  26.247   3.425   1.976  0.1645 -0.1687  0.3342
20938W        W63929  22.060   7.162   1.265  0.0152 -0.1349  0.0761
20939W        W63930  22.005   9.502   7.675 -0.0218 -0.2214 -0.1588
20940W        W63931  20.908   7.528   0.399 -0.2328  0.0775 -0.2242
20941W        W63932  26.183  11.485   5.460  0.0626  0.3128  0.2232
20942W        W63933  25.358  14.638   0.874 -0.0020  0.1427 -0.1996
20943W        W63934  27.121  17.301  21.210  0.2408 -0.0599  0.2754
20944W        W63935   9.870  12.537   9.037 -0.1318 -0.1152 -0.0389
20945W        W63936  25.424  33.861   4.885  0.0316 -0.3675  0.1788
20946W        W63937  14.218   6.496   8.106 -0.1910  0.1190 -0.0466
20947W        W63938  30.865  14.038  27.543  0.0473  0.1463  0.0961
20948W        W63939  16.584   8.924   2.976 -0.2948  0.3369  0.2628
20949W        W63940  21.627  22.821  28.128  0.0293 -0.0506  0.1443
20950W        W63941  19.790   7.909   3.017  0.0103 -0.3313  0.1774
20951W        W63942   0.363   3.835   7.629  0.1315  0.0662 -0.0596
20952W        W63943  11.677  12.989  20.824  0.2800  0.3651  0.0060
20953W        W63944  28.118  18.876   4.677  0.0752  0.3367  0.0807
20954W        W63945  21.870  12.649  22.724 -0.2140  0.0764 -0.3455
20955W        W63946  28.976  13.153   4.862 -0.1178 -0.1988  0.0799
20956W        W63947  16.401  13.822   5.920 -0.2174 -0.0362  0.0609
20957W        W63948  15.474  34.293  28.949 -0.2785  0.2026  0.0553
20958W        W63949  29.253   3.637   4.472  0.1434  0.0713 -0.1641
20959W        W63950  12.550   5.622   4.026  0.2119 -0.2145  0.4029
20960W        W63951   7.945  33.858   6.419  0.0976  0.1055  0.0668
20961W        W63952  24.597  19.753  20.291  0.1346  0.1797 -0.1686
20962W        W63953  24.445  15.913  26.354  0.1097  0.1681  0.2234
20963W        W63954  21.090   1.061   8.951 -0.0957  0.1413 -0.0837
20964W        W63955  33.101   1.007  21.760  0.1007 -0.0502  0.1528
20965W        W63956  24.910  33.890   9.784  0.1017  0.0294 -0.4948
20966W        W63957   6.359  10.949   8.018  0.0311 -0.1538  0.3512
20967W        W63958  27.603  10.190   8.332  0.0055  0.1856 -0.0968
20968W        W63959  29.860   1.259   5.352 -0.2164 -0.1905 -0.0401
20969W        W63960  19.775   2.581   4.287 -0.1196  0.0030 -0.0177
20970W        W63961  20.786   4.427  22.060 -0.0587 -0.1519  0.0769
20971W        W63962  15.639  15.022   5.437 -0.0813 -0.1053  0.1357
20972W        W63963  31.520  17.782   9.921  0.1287 -0.0278 -0.2950
20973W        W63964  20.802  11.960   4.128 -0.0768  0.0847 -0.1746
20974W        W63965  22.232  18.645  26.299  0.1987 -0.1879 -0.0354
20975W        W63966  13.680  18.784  23.635  0.2367  0.2227  0.1162
20976W        W63967   6.493  23.967  18.280 -0.0545  0.3348  0.0481
20977W        W63968  24.447  27.302   2.604  0.0634  0.1430  0.0069
20978W        W63969  29.144  14.101   0.809  0.0886  0.3193 -0.0261
20979W        W63970  34.536   5.368  26.100 -0.1504  0.0956 -0.3596
20980W        W63971  30.769  21.231   1.022 -0.0270  0.0353 -0.1613
20981W        W63972  26.635  13.392   6.552  0.1200  0.1440 -0.4100
20982W        W63973  12.117  24.311  16.497 -0.1331  0.1387 -0.0283
20983W        W63974  31.183  11.589   8.260 -0.0288  0.0190  0.1323
20984W        W63975   5.018   1.311  25.413  0.2725 -0.0513 -0.3052
20985W        W63976  21.416  31.697   2.457  0.0038  0.0884  0.2663
20986W        W63977  32.864   2.740   6.326 -0.1331  0.1509  0.0773
20987W        W63978  32.621  11.346   2.610  0.3518 -0.0183 -0.1765
20988W        W63979  28.605   1.259  21.089 -0.3199 -0.3797 -0.1568
20989W        W63980  23.549  26.455  29.145  0.1002 -0.1139  0.2394
20990W        W63981  19.230  19.743   1.646  0.1102 -0.2834 -0.1153
20991W        W63982  24.487  11.083   3.326 -0.3438  0.0508 -0.2233
20992W        W63983  27.448   5.191   0.481  0.2869 -0.1157 -0.2420
20993W        W63984  17.103   6.030   3.056 -0.0818  0.1348 -0.1408
20994W        W63985   3.533   5.655  26.780  0.3017  0.0030  0.1415
20995W        W63986  33.797   8.580  21.763 -0.1401  0.1188 -0.2453
20996W        W63987  26.332  20.029   1.853 -0.5258 -0.3386 -0.0475
20997W        W63988  10.717   5.821   4.051  0.1102  0.0182  0.5301
20998W        W63989  18.830  10.027  22.276  0.1753 -0.0030  0.0247
20999W        W63990   4.054   5.228   6.996 -0.0056 -0.2056  0.0767
21000W        W63991  17.667  10.100   1.501 -0.0481  0.1989 -0.1003
21001W        W63992   4.485  12.509   7.911 -0.4078 -0.1365  0.0767
21002W        W63993  17.060  15.879   5.538 -0.3151 -0.3600  0.0427
21003W        W63994  16.345  27.650  24.548  0.0286 -0.0681  0.0386
21004W        W63995  33.483   3.965   8.163  0.0338  0.0044  0.0678
21005W        W63996  19.120  23.872  27.298  0.0519  0.0670  0.0078
21006W        W63997   9.597  26.157  17.971 -0.3050  0.1234 -0.0784
21007W        W63998   1.541   6.284  26.337  0.0751  0.1338 -0.4880
21008W        W63999   7.024   4.549   6.362  0.1923 -0.0490  0.1593
21009W        W64000  17.133  15.765  24.777 -0.2410 -0.2852 -0.2805
21010W        W64001  17.513   2.367   4.439  0.0238  0.0942  0.3043
21011W        W64002   5.420   2.072   1.256 -0.1042 -0.2613  0.3365
21012W        W64003  11.083   9.626   9.134  0.0659  0.0269 -0.1164
21013W        W64004   3.420   0.226   7.449  0.0793 -0.1102 -0.0847
21014W        W64005  27.265   6.765  25.712  0.0067  0.0521 -0.0643
21015W        W64006   6.743  33.366   4.460 -0.0611  0.0358  0.1945
21016W        W64007  17.096  10.972  10.129 -0.0771  0.0568  0.0367
21017W        W64008  29.172   8.175   3.164  0.0421  0.0943 -0.0797
21018W        W64009  25.910   7.194   4.728  0.0541  0.0328 -0.0933
21019W        W64010   3.036  15.496   1.698 -0.1992  0.0523 -0.1924
21020W        W64011  32.153  32.326   8.568 -0.3930 -0.2601  0.0025
21021W        W64012   5.519  27.323   3.813 -0.1965  0.0347  0.0649
21022W        W64013  27.411  33.639   7.444  0.0116 -0.0318 -0.0260
21023W        W64014  22.798   1.765   7.665  0.1169  0.1344  0.0174
21024W        W64015  27.417  23.652  22.718 -0.1051  0.1362 -0.0486
21025W        W64016  34.516   0.151   4.941  0.3130 -0.0087 -0.2493
21026W        W64017  22.644  31.053  25.996 -0.1688  0.3616  0.2576
21027W        W64018  33.327  26.022   5.207 -0.2198  0.0296  0.1152
21028W        W64019  13.984  32.055  20.016  0.0855 -0.2609  0.1336
21029W        W64020  10.534   4.598   5.864 -0.0765 -0.0588 -0.0026
21030W        W64021  24.898  12.800   1.949 -0.0245  0.1183 -0.0689
21031W        W64022   7.280  29.130   0.280  0.3145 -0.0002 -0.3666
21032W        W64023  32.445   7.016  21.708 -0.0578 -0.0922  0.0932
21033W        W64024  19.782  13.245   1.226  0.2903  0.4079  0.3277
21034W        W64025  33.066  30.659   0.712 -0.0783 -0.1359  0.5427
21035W        W64026  20.628  10.738   8.345  0.0145 -0.2081  0.1815
21036W        W64027   0.091   1.916   0.879  0.0801  0.2083 -0.2888
21037W        W64028  21.352   9.352  23.816 -0.0072  0.1242  0.3112
21038W        W64029  28.871   2.791   7.507  0.1890 -0.0389  0.0212
21039W        W64030  24.935  12.500  27.388  0.0398  0.0209  0.0348
21040W        W64031  16.011   8.619   6.697 -0.1668  0.1813 -0.0619
21041W        W64032  14.445   4.945  11.521  0.0141  0.0708  0.2533
21042W        W64033   7.997  20.225  26.212  0.1715 -0.0530  0.2976
21043W        W64034   6.494   8.260   7.860 -0.0669  0.0727 -0.0795
21044W        W64035  30.557   7.834   8.280 -0.3303  0.3088 -0.2339
21045W        W64036   9.210   0.247   4.307 -0.0795  0.1634  0.2369
21046W        W64037  21.984   9.275   2.507  0.3939 -0.1567  0.0390
21047W        W64038  16.116  10.821  25.351 -0.0523  0.0588 -0.2188
21048W        W64039  22.028   9.564  23.010  0.0288  0.2462 -0.0762
21049W        W64040  15.203  13.825   6.743  0.1321  0.0219  0.0189
21050W        W64041  26.333   9.969   0.789 -0.1872 -0.1246  0.0201
21051W        W64042   9.629   3.743  10.056 -0.0894  0.2038  0.1214
21052W        W64043  21.224  34.140   8.108 -0.2043  0.1451 -0.0104
21053W        W64044  14.238  13.926   6.545 -0.3198 -0.0002 -0.0752
21054W        W64045  18.989  21.720   5.866  0.0966 -0.0858 -0.1127
21055W        W64046  18.976  11.684   8.145 -0.2529  0.2114 -0.0365
21056W        W64047   0.334  32.393  14.089  0.0511  0.4091 -0.2563
21057W        W64048   5.260  19.146   6.380 -0.0018  0.3395 -0.1897
21058W        W64049  18.674   6.706  19.785 -0.2425  0.0000  0.1601
21059W        W64050  13.380  31.734  24.469 -0.4080 -0.0284  0.0420
21060W        W64051  25.606  11.650  27.024  0.1571  0.3567 -0.1178
21061W        W64052  21.659   7.478  28.410  0.0039 -0.0500  0.0374
21062W        W64053  22.068  25.001   7.959  0.0072  0.1463  0.0090
21063W        W64054   7.233   0.284  23.668  0.1628  0.0557  0.3413
21064W        W64055  21.274   7.159   5.360 -0.0394 -0.1949  0.2823
21065W        W64056  19.409  29.626  28.207  0.1008  0.0762 -0.0945
21066W        W64057  16.963   5.952  15.868  0.1765 -0.1074  0.0695
21067W        W64058  20.476   8.217   5.857  0.1877  0.2240  0.2302
21068W        W64059  13.056   9.147   8.299  0.0587  0.3640 -0.1490
21069W        W64060   3.911  28.234  29.154 -0.0729  0.0073  0.1412
21070W        W64061   0.424   8.425   7.054  0.1269 -0.0768 -0.5070
21071W        W64062  10.568  31.554   4.175  0.0601 -0.0332  0.1081
21072W        W64063  23.274   1.841   7.194  0.0877  0.0301 -0.3598
21073W        W64064  25.034  18.480  18.320  0.0881  0.1801  0.1303
21074W        W64065  31.956  22.668  18.948  0.3583 -0.0659  0.2599
21075W        W64066  26.068   5.978   5.019 -0.0116  0.1852  0.0925
21076W        W64067   9.184   1.028   3.534  0.0192 -0.0259 -0.4973
21077W        W64068  13.683  11.261  28.344 -0.1864  0.0212  0.1353
21078W        W64069   5.618   5.384  24.359 -0.0019 -0.0586 -0.2087
21079W        W64070  23.950  26.346   3.901 -0.1440 -0.0991  0.1088
21080W        W64071  16.327   3.619  10.129  0.2568 -0.0729  0.0592
21081W        W64072  18.473   6.623   6.006 -0.3457  0.1292 -0.0582
21082W        W64073  23.721   3.949   6.821  0.0817 -0.1250  0.0154
21083W        W64074   1.783   3.713   4.904  0.1461  0.1405  0.1799
21084W        W64075  25.605  15.967  20.604  0.2249  0.1319 -0.0586
21085W        W64076  23.339   8.596   3.409  0.2833  0.0974 -0.2802
21086W        W64077  15.325  29.398   2.394 -0.0397  0.0723 -0.2514
21087W        W64078  25.060   6.247   1.270 -0.0836  0.1503 -0.1337
21088W        W64079  22.246   7.666   7.105  0.0646 -0.3753  0.0242
21089W        W64080   5.458  19.727  27.511  0.2118  0.0974  0.0680
21090W        W64081  16.048   9.167  10.588 -0.1223  0.1199 -0.1529
21091W        W64082   8.101   3.664   6.642  0.1182  0.0969 -0.0298
21092W        W64083  20.253  32.705   7.418  0.3595 -0.3423  0.2389
21093W        W64084  11.848  31.591   1.338 -0.0492 -0.2647 -0.1993
21094W        W64085   0.443  27.284  24.162 -0.0476  0.2147  0.0216
21095W        W64086  16.986   8.713  25.788 -0.1932 -0.1932 -0.1201
21096W        W64087  18.932   3.930   5.705 -0.0474  0.0483 -0.0085
21097W        W64088  21.449  34.236   6.485 -0.1202  0.0473  0.0596
21098W        W64089  14.968  19.250   4.237  0.1218  0.2410 -0.3251
21099W        W64090   0.323  20.854   4.488  0.1499 -0.1819  0.4541
21100W        W64091  11.782  15.820   7.816  0.0561 -0.0251  0.0269
21101W        W64092  11.327  28.068  29.238  0.0889 -0.0997 -0.1035
21102W        W64093  32.118  13.294   7.879 -0.2941  0.1622 -0.0950
21103W        W64094  14.898   7.504  27.482  0.3508 -0.0580 -0.0475
21104W        W64095  20.772   8.690  29.041  0.1672 -0.2072  0.1471
21105W        W64096  17.859  12.904  25.395 -0.1423  0.0584  0.3820
21106W        W64097   4.197  20.227  23.696 -0.2027 -0.0438  0.3042
21107W        W64098  33.913  14.747   5.737 -0.0806  0.0686 -0.0780
21108W        W64099  24.055  13.216   5.839 -0.0757 -0.0743  0.0004
21109W        W64100  24.723   9.109   7.722 -0.0681 -0.3604  0.1455
21110W        W64101  26.807  32.858   6.350  0.1768  0.2328 -0.1588
21111W        W64102  28.541   1.029  27.179 -0.1160  0.0578 -0.2895
21112W        W64103  30.946   4.224   7.199 -0.3256  0.1399  0.1919
21113W        W64104  23.009  30.116  27.745  0.0832  0.0505 -0.1858
21114W        W64105  13.355   6.688   8.097 -0.1965  0.3414  0.2145
21115W        W64106  27.294  10.969   3.435  0.4618  0.3749  0.0991
21116W        W64107   7.383  17.092   9.890 -0.4569 -0.1801  0.1148
21117W        W64108  29.086  19.499   6.115 -0.0185  0.0227  0.1631
21118W        W64109  23.112  34.075  20.875  0.1741  0.3247  0.2048
21119W        W64110  17.532  18.771   7.647  0.2129 -0.0815 -0.0489
21120W        W64111  23.565   1.279   7.209  0.2237  0.1358 -0.0189
21121W        W64112  17.848   1.116  10.209 -0.1620 -0.4214  0.0069
21122W        W64113  24.942   7.321   8.421 -0.1999  0.1200  0.3161
21123W        W64114   9.574  27.035   8.218 -0.1456  0.0184  0.1888
21124W        W64115  17.178   4.283   9.904 -0.2469 -0.1333  0.3253
21125W        W64116  23.378  22.418   3.947 -0.2058 -0.2512  0.2889
21126W        W64117  18.433  30.345  20.277  0.1416  0.1203  0.0348
21127W        W64118  21.368  20.497   8.268 -0.2511 -0.0486  0.3348
21128W        W64119  19.671  30.819   4.986 -0.1592  0.3806 -0.0225
21129W        W64120  25.514   7.207   9.661 -0.3881  0.1937  0.1121
21130W        W64121   4.238  28.409   2.693 -0.0437  0.2544  0.2992
21131W        W64122  31.347  14.971   7.754 -0.0110 -0.1916 -0.3139
21132W        W64123  12.209  19.240   5.616 -0.2076  0.0582  0.0502
21133W        W64124  25.699  33.539   8.105  0.1319 -0.0172  0.0707
21134W        W64125  13.010  33.982   0.792  0.2170 -0.1668  0.2868
21135W        W64126  34.311  13.535   3.726 -0.3618  0.1272  0.0389
21136W        W64127  19.017  13.023  15.453 -0.3702  0.2606  0.2111
21137W        W64128  32.133   5.658  23.361  0.0815 -0.2684  0.1778
21138W        W64129  14.739   2.979   8.383  0.0082  0.4362 -0.2002
21139W        W64130   2.314   3.393   1.325  0.2337 -0.0583  0.4940
21140W        W64131  24.151  32.342   5.543 -0.1434  0.1652 -0.0133
21141W        W64132  16.074  13.623   5.284  0.2231 -0.3892  0.0163
21142W        W64133  14.712   3.632   6.392  0.2424  0.2986  0.1882
21143W        W64134  27.470  15.530   4.529  0.0517 -0.1794  0.0011
21144W        W64135  16.913   4.909  19.137 -0.2853  0.0469  0.2572
21145W        W64136  31.666  33.867   4.586 -0.1585  0.1535 -0.0257
21146W        W64137  13.485  24.207   6.787 -0.1825  0.0870  0.2924
21147W        W64138  20.248  24.527  16.009  0.0138  0.0575  0.1207
21148W        W64139  34.225   7.197   3.200 -0.1800  0.1673 -0.3385
21149W        W64140  31.525   0.912  28.556 -0.0179 -0.2591  0.0020
21150W        W64141  31.951  32.222  26.998 -0.0598  0.1361  0.3641
21151W        W64142  30.831  34.577  28.958 -0.1307 -0.2259 -0.1727
21152W        W64143   5.209  10.785  22.286  0.1797  0.1803 -0.0563
21153W        W64144   6.278  21.790  24.465 -0.4638  0.2403  0.2825
21154W        W64145  33.646  23.575   0.901  0.0306 -0.0679  0.0398
21155W        W64146  31.662  10.373  29.054  0.0231 -0.0142  0.0628
21156W        W64147  27.358  11.339   7.379 -0.1572 -0.1789 -0.0908
21157W        W64148  12.656  15.936   3.142 -0.0454  0.0037 -0.0967
21158W        W64149  25.494   1.088   1.516  0.1270 -0.0260 -0.2047
21159W        W64150  20.547  20.971   2.874 -0.1286  0.0987 -0.0368
21160W        W64151  27.888   0.913   3.512 -0.0052 -0.3399 -0.2499
21161W        W64152  12.443  29.082   0.929  0.0644  0.1240 -0.2070
21162W        W64153   2.628  19.598   8.207 -0.1577  0.1929 -0.0026
21163W        W64154   5.167  22.934  16.228 -0.2635  0.1881  0.1435
21164W        W64155  19.440  12.886   0.966 -0.0754  0.1242 -0.0145
21165W        W64156  17.889   0.732   8.110 -0.1463 -0.2610 -0.0843
21166W        W64157  22.061  22.764   7.582  0.0927 -0.1247 -0.1147
21167W        W64158  18.582  20.856   2.009  0.1316 -0.1497  0.2516
21168W        W64159  12.940  10.436   4.577  0.0286 -0.1096 -0.0768
21169W        W64160   8.948  14.078   2.833 -0.0030 -0.4269  0.1564
21170W        W64161  21.841   0.526   5.693  0.0888 -0.0996  0.1597
21171W        W64162  29.590  23.416   6.440 -0.3465  0.2682  0.0676
21172W        W64163  17.337  14.657   6.550  0.0144  0.2847 -0.2876
21173W        W64164  19.568  34.772   7.974 -0.1652 -0.1029  0.2374
21174W        W64165   4.559   0.811   2.073  0.0434  0.0911  0.4040
21175W        W64166  30.786  13.050  28.048 -0.5678  0.1602  0.0253
21176W        W64167  22.247  29.334   6.532 -0.0095 -0.1815 -0.1039
21177W        W64168  21.683   4.237  22.990  0.0013 -0.4139  0.1636
21178W        W64169  15.497   2.248   9.122 -0.1090  0.1126 -0.0963
21179W        W64170  19.103   4.042   8.753  0.2673 -0.1550 -0.0358
21180W        W64171  11.249   3.444  10.323 -0.0140 -0.0806  0.2865
21181W        W64172  14.120   7.030   1.653  0.2250 -0.0591  0.1405
21182W        W64173  31.978  30.924  22.780  0.4784  0.2209  0.0558
21183W        W64174  33.154   4.246  25.622  0.0925 -0.2167  0.0600
21184W        W64175   0.528   4.351   4.259  0.1546 -0.3844 -0.0282
21185W        W64176  23.425   2.677   7.901  0.1356 -0.1164  0.0544
21186W        W64177  23.518   1.307   8.865  0.1216 -0.0267  0.0217
21187W        W64178  11.572  18.015  28.494  0.2005 -0.1137 -0.2694
21188W        W64179  29.483  33.844   1.664  0.0403  0.1572 -0.0642
21189W        W64180  10.953  13.962   6.286  0.0368 -0.2622  0.1889
21190W        W64181  12.923  19.353   3.086  0.0718  0.3438 -0.0575
21191W        W64182   3.556   6.464  17.451  0.1293 -0.0091  0.1514
21192W        W64183  24.981   2.037   1.852 -0.0294 -0.0608  0.0455
21193W        W64184   0.956   8.727   4.811  0.1085  0.3118  0.2795
21194W        W64185  19.535  14.989  28.289 -0.1290  0.2344 -0.1081
21195W        W64186   4.395  23.092   9.334  0.1091 -0.1722 -0.0206
21196W        W64187  18.530  28.388   3.973 -0.0088  0.0685  0.2191
21197W        W64188   2.759   4.245   3.833  0.1854 -0.0306 -0.0760
21198W        W64189  14.692   5.787   1.566  0.1947 -0.1564  0.0348
21199W        W64190  19.016  13.624   8.753 -0.1724  0.3616  0.1157
21200W        W64191   4.262  34.373  20.984 -0.1452  0.0662  0.1384
21201W        W64192  27.249   7.496   1.818 -0.1952  0.1112  0.0099
21202W        W64193  34.098   3.717   9.826  0.0735 -0.2872  0.0761
21203W        W64194  26.509  32.499   8.597  0.2939  0.1481  0.3671
21204W        W64195   5.883   3.145  25.719 -0.2891 -0.0258 -0.0541
21205W        W64196   6.618  21.469  16.674  0.0664 -0.1676  0.2443
21206W        W64197  29.034  18.233  22.226 -0.0192 -0.0848 -0.1675
21207W        W64198   1.674   7.295  26.635 -0.1345  0.0879 -0.0583
21208W        W64199  26.409   9.370   7.826 -0.4038 -0.0983 -0.1225
21209W        W64200  25.998  31.691   7.417  0.2127 -0.1095  0.3198
21210W        W64201   6.564  11.854   8.967 -0.3845  0.0316 -0.3935
21211W        W64202  33.023  28.671  25.190  0.1356 -0.1125 -0.1631
21212W        W64203   0.944  13.666  26.554 -0.0155 -0.2522 -0.1189
21213W        W64204   6.655   5.804   5.549 -0.2358 -0.2817 -0.1548
21214W        W64205  20.753   7.231  28.708  0.1875 -0.0271 -0.0478
21215W        W64206  21.404   8.329   9.762  0.0842  0.1318  0.0300
21216W        W64207  22.692  15.131   6.855 -0.1711  0.0981  0.1108
21217W        W64208  18.537  12.063   2.009  0.1856 -0.0072  0.0982
21218W        W64209  22.673  28.673   6.954  0.2572  0.1138  0.0256
21219W        W64210   0.111   3.287  18.508  0.1018  0.0806  0.0704
21220W        W64211   2.316  28.001  10.101  0.0344 -0.3252 -0.2773
21221W        W64212  25.251  11.177   4.875  0.3056  0.1386 -0.1290
21222W        W64213  25.773  33.379   3.208 -0.0860 -0.0409 -0.0238
21223W        W64214   4.056   9.750   9.014 -0.0426  0.0911  0.1789
21224W        W64215  28.280   6.327   2.375 -0.2641 -0.1040 -0.2394
21225W        W64216  26.028  26.091  22.382 -0.0636  0.1643 -0.0561
21226W        W64217  26.422  16.923  26.686  0.0662 -0.0286  0.0903
21227W        W64218  16.713  31.993  29.208  0.4369  0.0040  0.2653
21228W        W64219  25.996   2.353   6.144  0.1748 -0.1979 -0.3902
21229W        W64220   4.432   9.590   6.588  0.1533 -0.1513 -0.1063
21230W        W64221  34.341   5.945   1.317 -0.2398 -0.2871  0.1464
21231W        W64222  26.257   0.646   8.046  0.0007 -0.0789 -0.2560
21232W        W64223   0.316   6.892  28.591 -0.1342  0.0436  0.2746
21233W        W64224  10.406  11.760   9.971 -0.1445 -0.0096  0.1413
21234W        W64225  20.776  31.349   1.352  0.0861 -0.3281 -0.1666
21235W        W64226  25.039   9.293   4.703  0.2671  0.0733  0.1921
21236W        W64227  13.791  17.976  23.944 -0.2010  0.0833 -0.1718
21237W        W64228  17.623  32.353   8.935  0.1316  0.0913  0.0801
21238W        W64229  24.672  21.584   5.439  0.0177 -0.1784 -0.1054
21239W        W64230  14.456  24.281  28.619 -0.1331  0.1278 -0.0725
21240W        W64231  11.752  32.797   6.739 -0.3768 -0.4794 -0.4432
21241W        W64232  31.876  15.651  27.226  0.4221 -0.0238  0.0681
21242W        W64233  30.583  22.330   1.789  0.0489  0.2010 -0.3916
21243W        W64234  25.014  11.310   6.015  0.0083 -0.0392  0.0571
21244W        W64235  31.578  28.603   7.431 -0.3162 -0.2986 -0.1781
21245W        W64236  23.145  32.458   8.746  0.2011  0.1942 -0.0766
21246W        W64237  24.821  14.170  17.474 -0.0120 -0.1193  0.0985
21247W        W64238  14.561  34.301   9.091  0.1736 -0.1701 -0.1362
21248W        W64239   2.287  22.271   5.451  0.0801 -0.0591  0.2369
21249W        W64240  33.277  29.689   5.483 -0.1462 -0.3380 -0.1793
21250W        W64241  23.395  33.526   6.004 -0.0144 -0.0497  0.0327
21251W        W64242  22.724  11.821   0.812 -0.1662  0.4188 -0.0654
21252W        W64243  19.265   3.712   2.167 -0.2968  0.3148 -0.0104
21253W        W64244  24.148  25.198   6.009  0.1095 -0.1071  0.1101
21254W        W64245  24.647  19.754  27.683  0.0248  0.0527  0.2452
21255W        W64246  30.250   4.632   5.008  0.0755 -0.1082  0.0787
21256W        W64247  13.806   9.725   0.143  0.1774 -0.1665  0.1465
21257W        W64248  19.459   9.557   4.416 -0.1856 -0.0302 -0.1870
21258W        W64249  25.988  14.315   7.839 -0.1789 -0.1507  0.1018
21259W        W64250   7.893  32.064   7.729  0.0263 -0.0580  0.3585
21260W        W64251  28.665   9.738   0.449 -0.2832  0.0991  0.1309
21261W        W64252  21.747  18.636  26.609  0.0836 -0.1006 -0.1759
21262W        W64253   1.998  22.686   5.112 -0.0874 -0.2497  0.1111
21263W        W64254  16.199   4.840  27.123  0.1667 -0.1046  0.1436
21264W        W64255  16.411   0.641   3.826  0.2523 -0.1951  0.0851
21265W        W64256  14.908  30.781  23.930 -0.1636  0.4968 -0.0838
21266W        W64257  30.729   9.243   4.070 -0.1118 -0.1587 -0.1670
21267W        W64258  32.625  21.006   1.475  0.0448 -0.1620 -0.2614
21268W        W64259  29.777  15.018   4.851  0.0573  0.2742 -0.0552
21269W        W64260   0.150   7.379  10.472 -0.2880  0.2104  0.1453
21270W        W64261  21.062  15.433   7.378  0.1907  0.3707  0.3773
21271W        W64262  23.544   6.919   5.257  0.0843  0.1943 -0.0910
21272W        W64263  10.767  13.942  25.919 -0.0732  0.1008 -0.1312
21273W        W64264  22.869  18.997  27.207  0.0299  0.0789  0.3871
21274W        W64265  23.900   7.236  12.880  0.0475  0.2119  0.2493
21275W        W64266  14.907  22.703  22.840  0.2422  0.2494 -0.1596
21276W        W64267  27.647  34.287   4.100 -0.0573  0.4306  0.4946
21277W        W64268  17.504  13.896   1.115  0.0223 -0.0468 -0.0111
21278W        W64269  19.104  15.703   2.595  0.1300 -0.3875 -0.3269
21279W        W64270  18.034  20.344   3.843  0.0386 -0.1597  0.2341
21280W        W64271  33.252   5.400  17.371  0.1764  0.0316 -0.0588
21281W        W64272  23.771  30.668   1.326 -0.2126 -0.1279 -0.4351
21282W        W64273  20.726  31.266  26.500  0.0052  0.0546 -0.1202
21283W        W64274   1.530   8.245   7.653  0.0182 -0.0879  0.0271
21284W        W64275  25.342  10.021   5.291  0.0717  0.3215 -0.0434
21285W        W64276  22.654  15.704  20.540 -0.1108  0.2108 -0.1491
21286W        W64277  15.333   5.975   6.132 -0.3368 -0.3901  0.3368
21287W        W64278  24.208   6.707  21.624  0.0976  0.2248  0.0754
21288W        W64279  28.117  10.149   8.309 -0.0577 -0.5420 -0.1636
21289W        W64280  24.412  34.652   2.552 -0.0931 -0.0812 -0.2448
21290W        W64281  20.863  34.728  25.358  0.0356 -0.0136  0.3626
21291W        W64282  19.275  24.362  21.146  0.2175  0.1175  0.2233
21292W        W64283  21.088   7.542   9.509 -0.0992 -0.2735  0.1985
21293W        W64284  25.671  29.387   5.108  0.2606  0.0293 -0.0952
21294W        W64285   2.321   6.176  11.577 -0.3279 -0.0063 -0.1213
21295W        W64286  29.424  28.256   0.019 -0.1196  0.1075  0.0153
21296W        W64287  15.834  15.796   7.792 -0.1327  0.2193 -0.2543
21297W        W64288  28.373  16.571   6.680 -0.1424  0.1695  0.2709
21298W        W64289  30.515  23.320   0.576 -0.1085  0.3757 -0.1337
21299W        W64290  17.961   9.848  25.423 -0.1125  0.0971 -0.2154
21300W        W64291  24.456   4.222   0.763 -0.1505  0.0542 -0.1042
21301W        W64292  18.137   4.135   2.631 -0.2779 -0.0581 -0.0097
21302W        W64293  26.165  18.033   9.068 -0.0583 -0.1978 -0.0326
21303W        W64294  30.763   1.386   2.144 -0.2168  0.1514 -0.2667
21304W        W64295  31.762   8.931  15.340  0.0086 -0.0829  0.1190
21305W        W64296  31.825   8.011   4.958  0.2296 -0.1943 -0.3552
21306W        W64297  14.757   8.894  17.516  0.0407  0.1525  0.0202
21307W        W64298  15.840   6.649  21.781 -0.0268 -0.0296  0.0840
21308W        W64299  19.006  12.028   0.617  0.1318 -0.1327 -0.0218
21309W        W64300   2.836   6.132   9.492  0.1029 -0.2828  0.1585
21310W        W64301   0.893  24.315   7.730 -0.2026  0.2036 -0.2397
21311W        W64302  26.610  32.816  24.251  0.2286 -0.1292 -0.2393
21312W        W64303  33.322  33.103   5.370 -0.2442  0.1083 -0.1169
21313W        W64304  28.817  13.119   8.580 -0.0305  0.0789 -0.0959
21314W        W64305  18.526  15.567   4.666  0.1517 -0.2812 -0.2097
21315W        W64306  30.515  11.666  27.578  0.2422 -0.0360  0.0987
21316W        W64307  22.900  33.823   7.578  0.1090 -0.2051 -0.2697
21317W        W64308  14.119   5.943   7.012  0.1948  0.1058  0.2228
21318W        W64309  18.697   7.530   0.051 -0.2086 -0.1207 -0.2801
21319W        W64310  33.768   1.640  26.470  0.0126  0.1017 -0.1401
21320W        W64311  21.615  26.682  25.161  0.1100  0.0463 -0.1403
21321W        W64312   8.470   8.856   8.728  0.2641  0.0397 -0.1920
21322W        W64313  18.727   0.258   7.625  0.4145  0.2884  0.0925
21323W        W64314   2.996  24.231   1.649  0.1270  0.0609  0.0013
21324W        W64315  12.925  32.332   9.684  0.1358 -0.2486 -0.2983
21325W        W64316   5.996  21.346   4.199  0.0162 -0.0895  0.2782
21326W        W64317  11.404  22.845   3.319  0.0078 -0.1443 -0.3974
21327W        W64318  21.328   2.540   9.277 -0.0099  0.2165 -0.3863
21328W        W64319  26.476  15.695   9.699 -0.0526  0.3784  0.1318
21329W        W64320  12.155   6.656   9.036 -0.0242  0.5313  0.2713
21330W        W64321  12.929  15.072  20.759  0.2397  0.2854  0.0904
21331W        W64322  28.837  13.286  15.495 -0.0365 -0.2307 -0.2257
21332W        W64323  24.326  15.971   4.713 -0.1452 -0.0975 -0.2208
21333W        W64324  33.685  14.577   8.765 -0.1047 -0.0067  0.0020
21334W        W64325   7.621  11.553   0.080  0.2586  0.2821  0.2679
21335W        W64326  15.394   7.894   3.832 -0.0801 -0.0905 -0.1412
21336W        W64327  25.340  18.850  24.881 -0.0193 -0.0368 -0.1471
21337W        W64328  26.105  18.468   6.502  0.1267 -0.0352 -0.0450
21338W        W64329  21.444  12.318   5.102 -0.0019 -0.1893 -0.0080
21339W        W64330  26.737  27.077  27.573  0.0725  0.1987 -0.0802
21340W        W64331  20.656   6.502  18.425  0.3675  0.1151  0.1799
21341W        W64332  21.538   0.746  23.278  0.0270  0.0087  0.0294
21342W        W64333  16.667  13.464  27.457 -0.3433  0.1842  0.0816
21343W        W64334  24.381   2.583   8.248 -0.2694 -0.1633  0.0683
21344W        W64335  10.102   0.963   1.863 -0.3017  0.3009  0.0820
21345W        W64336  22.475  13.595   2.744  0.0590  0.1802  0.2363
21346W        W64337  25.569  30.460   3.606  0.0654  0.2671  0.1066
21347W        W64338   9.723  24.898   9.198 -0.1701 -0.1471  0.0095
21348W        W64339  24.501  19.640  26.305  0.3503 -0.1075  0.0848
21349W        W64340  11.940  22.072   1.392  0.4507  0.2420  0.2600
21350W        W64341   3.611  13.213  25.706 -0.3438 -0.2409 -0.1088
21351W        W64342  12.394  18.989   9.195 -0.0706  0.0072  0.0942
21352W        W64343   7.372  25.480   7.104 -0.2380  0.1013  0.2408
21353W        W64344  22.076   2.933   5.405  0.3248  0.0818 -0.0129
21354W        W64345  21.489   7.469  21.714 -0.2212 -0.2862 -0.1072
21355W        W64346  10.885   3.058  25.047 -0.0671  0.1237  0.3386
21356W        W64347  34.128  11.475   5.486 -0.0270  0.0035  0.3613
21357W        W64348  30.464  10.109   9.016  0.0158  0.2332  0.1208
21358W        W64349  19.941  11.776  12.974  0.1381 -0.1984  0.3490
21359W        W64350  17.913   8.582   5.230  0.0696 -0.2398 -0.2860
21360W        W64351   4.502  15.527  26.999  0.4672 -0.0162  0.0654
21361W        W64352  16.205  15.246   0.981 -0.1506  0.1155 -0.3628
21362W        W64353  29.089   7.471   2.555 -0.2241  0.0205 -0.2360
21363W        W64354  31.676  14.067  28.466  0.0607 -0.4318 -0.2232
21364W        W64355  24.617   8.375   1.446 -0.1047  0.2601  0.0292
21365W        W64356  33.375  14.503  23.111 -0.0779 -0.0668  0.0129
21366W        W64357  19.450  34.290  23.007  0.0301 -0.2399  0.2474
21367W        W64358  20.773  31.048  25.215  0.2497 -0.1622 -0.1545
21368W        W64359   5.864  18.803  28.064 -0.1423  0.1782  0.5364
21369W        W64360  27.685  34.298  16.167 -0.3156  0.0203  0.0739
21370W        W64361  32.624  14.021  25.873  0.0689 -0.1039 -0.0995
21371W        W64362  20.413  22.567   4.554 -0.3244  0.1496  0.2848
21372W        W64363  25.979  11.971  10.324  0.0670  0.1818 -0.1055
21373W        W64364  25.708  12.787   7.371 -0.3437  0.0599  0.2636
21374W        W64365  33.485   9.530  20.007  0.0402  0.1815  0.1950
21375W        W64366  25.687   3.324   1.984 -0.5102 -0.1491 -0.0632
21376W        W64367  26.009   6.953   2.325  0.3305  0.0453  0.1384
21377W        W64368   0.810  22.991   7.465 -0.3060  0.1108 -0.2291
21378W        W64369  31.389   9.275   5.922  0.1750  0.1919 -0.1503
21379W        W64370  27.965   1.503  22.308  0.2985 -0.5195 -0.1394
21380W        W64371  12.710  17.630  19.446  0.0188 -0.2455  0.1778
21381W        W64372  12.198  11.240   2.260  0.4320 -0.3553 -0.2209
21382W        W64373  24.278   8.951  29.056  0.0169  0.0238  0.0836
21383W        W64374  20.224   6.873   5.851  0.3268 -0.1016 -0.1271
21384W        W64375  24.868  18.092   7.009 -0.2529 -0.0030  0.3319
21385W        W64376  11.396   7.437  21.169  0.2405  0.1194 -0.3118
21386W        W64377  27.992  19.042   2.717 -0.0274 -0.1294 -0.2346
21387W        W64378  33.716   5.167  23.773 -0.2922  0.1019 -0.1261
21388W        W64379  28.087   9.620   4.658 -0.0339 -0.0507  0.1329
21389W        W64380  12.797   7.391  26.457  0.0852 -0.0358 -0.2139
21390W        W64381   2.610  29.523   6.175 -0.1126  0.0491 -0.0878
21391W        W64382  21.555   2.442  26.080  0.2837 -0.0206  0.0131
21392W        W64383  19.911  11.694   4.422  0.2807  0.1187  0.1484
21393W        W64384  15.239  22.173  26.855  0.1585  0.0767  0.4770
21394W        W64385  27.314  15.665  17.148  0.1309 -0.0842 -0.6205
21395W        W64386   9.866   8.614  11.224 -0.0819 -0.0136 -0.0198
21396W        W64387  12.335   0.770   2.876  0.1510  0.2999 -0.1914
21397W        W64388  25.966  20.750   9.679  0.0691 -0.2660  0.2128
21398W        W64389  17.299   2.232   8.550  0.1214 -0.1685 -0.0405
21399W        W64390  15.719  32.048   6.303 -0.0670  0.0060  0.4031
21400W        W64391  22.703  30.086   3.596 -0.0838 -0.0744  0.3229
21401W        W64392  20.141  19.885   3.763  0.1325 -0.0205 -0.0667
21402W        W64393  15.134   0.724   0.538  0.0725  0.0958 -0.1248
21403W        W64394  26.193   0.968   2.665  0.0540  0.2702 -0.1334
21404W        W64395  13.535   8.875   0.541 -0.2691 -0.1686 -0.3418
21405W        W64396  23.913   2.600   2.750  0.2595 -0.1740  0.0651
21406W        W64397   4.303  19.418   2.789 -0.0720  0.1065  0.0655
21407W        W64398   9.925   5.926  27.219  0.0829 -0.1480 -0.0649
21408W        W64399  23.679   5.437  25.633 -0.3315 -0.3152 -0.4490
21409W        W64400  22.582  14.505  28.764 -0.3725  0.0426 -0.1035
21410W        W64401  17.965   1.090   7.738  0.0007  0.0382 -0.3419
21411W        W64402  24.498  25.880  25.662 -0.2599  0.2248  0.0306
21412W        W64403  18.987  17.489  28.664  0.1093  0.0068 -0.1489
21413W        W64404  28.836   4.125   6.606 -0.0312  0.0551  0.2214
21414W        W64405  31.917   3.657  27.625 -0.0787  0.0502  0.0600
21415W        W64406  28.558   2.130   9.089 -0.2499  0.0827 -0.0510
21416W        W64407  22.321  11.962  10.168 -0.0972 -0.0476  0.2600
21417W        W64408  34.042  21.656  24.431 -0.1290  0.1287 -0.1101
21418W        W64409  23.637  24.191   1.392 -0.1596  0.0455  0.2208
21419W        W64410  24.146   7.720  28.377 -0.3315 -0.0413 -0.2122
21420W        W64411   3.602   3.242   2.760  0.3612  0.0490  0.0978
21421W        W64412  25.185  25.010   8.937  0.0008 -0.1880  0.0140
21422W        W64413   4.857   1.020   8.569  0.0738  0.1974 -0.1645
21423W        W64414  22.435   6.167  28.593 -0.1924  0.0915 -0.0186
21424W        W64415  17.833  25.660  29.033  0.5042  0.0319 -0.2696
21425W        W64416  22.617  31.327   1.544 -0.1137 -0.0271 -0.0420
21426W        W64417  24.614  13.670   2.387  0.1831  0.1310  0.0664
21427W        W64418  30.580  20.686   1.192  0.1923 -0.0906  0.1135
21428W        W64419  14.105   9.952   6.189 -0.2694 -0.2274  0.2190
21429W        W64420  28.828  11.359  17.210  0.0562  0.0870 -0.3074
21430W        W64421   6.499  13.426  19.973  0.1169  0.1436  0.2729
21431W        W64422  19.207   1.252   3.356 -0.0350  0.1979  0.1601
21432W        W64423  16.795   8.622  25.320  0.3933  0.1125 -0.0058
21433W        W64424  26.598  11.214  21.109  0.0089 -0.1844  0.1482
21434W        W64425  27.958  18.989   8.154 -0.4756 -0.0002 -0.1169
21435W        W64426  24.225   4.582  13.286 -0.1087 -0.4063  0.1450
21436W        W64427  17.519  12.781   0.695 -0.1199 -0.0218 -0.1870
21437W        W64428  18.739  18.181   8.693 -0.1466  0.0764 -0.0198
21438W        W64429  19.738  27.992   1.524 -0.1548 -0.0803 -0.1321
21439W        W64430  11.900  20.899   6.850 -0.0830 -0.1120 -0.1720
21440W        W64431  16.259  30.915   7.417 -0.2512  0.0463 -0.2239
21441W        W64432  29.231  15.050  18.732  0.1265 -0.0724  0.0591
21442W        W64433  22.549  11.986   6.614 -0.2819  0.1821 -0.0392
21443W        W64434  14.545  13.328  19.490  0.5170 -0.1599 -0.0780
21444W        W64435   2.160  30.603   9.656  0.0871 -0.0660  0.2608
21445W        W64436   2.371  16.991   0.536 -0.2618 -0.0492  0.0520
21446W        W64437  15.805   9.707  22.084  0.2963  0.0528  0.0650
21447W        W64438  10.662   8.765   7.901  0.0266  0.3848 -0.0075
21448W        W64439  24.694  19.893   8.037 -0.0757  0.3870 -0.0728
21449W        W64440  29.910  10.064   1.577 -0.1539  0.1095 -0.0262
21450W        W64441   6.459   5.315   2.474 -0.0579 -0.3003  0.1051
21451W        W64442  23.210  30.065   9.218 -0.2452  0.3676 -0.2125
21452W        W64443  21.465   0.383   5.257 -0.1499 -0.1119  0.0247
21453W        W64444   4.125  11.091  21.487 -0.1165  0.1132  0.1270
21454W        W64445   4.830  11.574  10.591  0.1098  0.1236  0.1815
21455W        W64446  19.214  14.216  24.966  0.0312 -0.4804  0.0186
21456W        W64447  17.574  14.375   7.491  0.0550  0.0323  0.0954
21457W        W64448   7.425  12.787   1.779 -0.2394  0.1787 -0.0433
21458W        W64449  21.600   9.430   2.257 -0.0030 -0.3390 -0.3681
21459W        W64450  12.589  15.428  23.983 -0.2950  0.0417  0.2627
21460W        W64451  17.659  16.189  13.688 -0.2183 -0.3397 -0.2148
21461W        W64452  22.065   8.303  26.596  0.1217  0.1187 -0.0116
21462W        W64453  26.921  14.406   2.965  0.5268  0.2867 -0.2024
21463W        W64454  21.949  13.169  16.505 -0.1719  0.0703  0.0215
21464W        W64455  24.773  13.601  28.920 -0.1037 -0.0056 -0.0713
21465W        W64456  33.135  14.058   2.181  0.1869  0.3269  0.2720
21466W        W64457  24.074   4.308  28.825  0.1410 -0.1554  0.2513
21467W        W64458  23.776   8.149   8.882  0.0861 -0.2181 -0.2905
21468W        W64459  22.271   8.820  27.411 -0.1011 -0.0911 -0.0781
21469W        W64460  21.258  30.520   2.753  0.1266  0.0479 -0.3558
21470W        W64461  30.645   1.062   3.664  0.4260 -0.3343 -0.3019
21471W        W64462  30.909   8.890  27.850  0.1930 -0.0444  0.2326
21472W        W64463  32.120  32.490  19.476  0.4397 -0.2217 -0.3670
21473W        W64464  20.881  21.521   6.227  0.1589 -0.2181 -0.0103
21474W        W64465  25.543  16.713   2.057 -0.2035 -0.0528  0.3108
21475W        W64466  22.922  29.960   1.382 -0.0761  0.2863  0.1460
21476W        W64467  30.130  32.381   1.422  0.0265  0.0291 -0.1101
21477W        W64468  34.366  13.212   0.517  0.3012 -0.1346 -0.0900
21478W        W64469  22.795   1.561   5.208 -0.0079  0.1397 -0.0208
21479W        W64470  11.180   4.786   2.290  0.1147  0.2138 -0.1144
21480W        W64471  32.984  19.284   7.143 -0.2224  0.1386  0.3045
21481W        W64472  19.571   2.615  24.355 -0.0628  0.0465  0.0994
21482W        W64473  15.305   9.554   9.276  0.0372  0.0621  0.0931
21483W        W64474  23.262   0.334   9.672 -0.2163 -0.1311  0.0819
21484W        W64475  26.877   4.709   7.894 -0.1234  0.0431 -0.1236
21485W        W64476  24.645   8.277   2.434  0.2640  0.0492 -0.1336
21486W        W64477  26.895  16.158  22.161 -0.3001 -0.2893  0.1178
21487W        W64478  17.407  14.929  25.753 -0.0598  0.0838  0.4306
21488W        W64479  20.983   7.095   7.479  0.1745  0.1823 -0.3374
21489W        W64480  16.918  22.621   6.809  0.1195  0.3928 -0.0675
21490W        W64481  31.125   9.749  17.500 -0.1999  0.1069 -0.0023
21491W        W64482  25.643  32.977   1.743 -0.2378  0.0753 -0.0546
21492W        W64483  18.655  31.650  23.603  0.0212 -0.1077  0.0908
21493W        W64484  24.016   9.135  14.562  0.2300  0.0146 -0.0332
21494W        W64485  24.409  19.198  14.078 -0.0905 -0.1730 -0.1768
21495W        W64486  29.373  10.608  25.026  0.0198 -0.0201  0.0254
21496W        W64487  17.328  13.104   1.571 -0.0634  0.2075  0.3071
21497W        W64488  20.802  13.797  28.624 -0.5187 -0.3636 -0.0309
21498W        W64489  21.084  14.430  19.662  0.1834 -0.0441  0.0134
21499W        W64490  16.361   8.660  28.789  0.3723  0.0994  0.0749
21500W        W64491  33.131  27.391   7.027 -0.4007  0.1129  0.0265
21501W        W64492   3.997  14.055  20.621 -0.2543  0.2878  0.0233
21502W        W64493  26.080  14.856   5.088  0.2259  0.1119 -0.2369
21503W        W64494  30.226   1.716  18.414 -0.0830 -0.3664 -0.3874
21504W        W64495  21.334   5.708   2.287 -0.2388  0.0057  0.1966
21505W        W64496  11.769   8.710  10.902 -0.2050 -0.0099 -0.2499
21506W        W64497  13.457   4.543   4.261  0.1662 -0.0335 -0.1276
21507W        W64498  29.307  19.650   7.754  0.1275  0.0985 -0.0185
21508W        W64499  17.073   3.186  15.089 -0.0156  0.1616 -0.1221
21509W        W64500   2.487  25.026  28.333 -0.3239 -0.1832 -0.0119
21510W        W64501  26.673  25.827   1.491  0.2181 -0.5325 -0.0384
21511W        W64502   3.412  18.466   7.015 -0.2821  0.0153 -0.0573
21512W        W64503  24.726  18.389   7.468 -0.1586  0.4939 -0.0954
21513W        W64504  20.200  18.922  26.014 -0.0069 -0.2240  0.0268
21514W        W64505  31.670  34.404   8.217  0.1318  0.1546  0.0091
21515W        W64506  20.449  26.472   8.006 -0.1925 -0.0732  0.0016
21516W        W64507  23.864  15.134   8.724  0.1234 -0.0328  0.1081
21517W        W64508  27.235   8.695   0.935  0.1357  0.0059  0.0372
21518W        W64509   7.270   6.821  25.524 -0.0376  0.1692 -0.1298
21519W        W64510  24.863  11.073  21.863  0.2240 -0.1116 -0.1558
21520W        W64511  24.519   2.839   3.867  0.1201 -0.0082  0.1619
21521W        W64512  16.930   5.220  10.748  0.0162 -0.3278  0.0278
21522W        W64513   0.552   3.063   9.321 -0.0182 -0.0727 -0.2395
21523W        W64514  33.831  22.518  24.478 -0.0249 -0.0564 -0.2280
21524W        W64515  24.597   8.747  10.213  0.3609  0.0107 -0.1960
21525W        W64516  17.069   0.222   5.895 -0.0799  0.0358 -0.2345
21526W        W64517  26.670  28.072   4.272  0.0272 -0.1461 -0.0470
21527W        W64518  21.253   8.553  28.973 -0.4685  0.0568  0.4188
21528W        W64519  21.480  16.241   2.559 -0.3704 -0.1511  0.1192
21529W        W64520  26.265  33.546  25.850 -0.0221 -0.1467 -0.0536
21530W        W64521  29.566   7.603   6.564 -0.0832 -0.1565  0.2028
21531W        W64522  24.237  12.228   7.668  0.1563 -0.4189  0.0660
21532W        W64523  25.705  17.749  17.461  0.0184 -0.2107 -0.1803
21533W        W64524  27.898  13.709  19.515  0.1187 -0.0024  0.0072
21534W        W64525  28.746   8.797  25.192  0.0624 -0.0881 -0.1307
21535W        W64526  25.323  13.181  26.499  0.1614 -0.0095  0.2362
21536W        W64527  20.499  28.719   3.403  0.0515  0.1033 -0.0783
21537W        W64528  14.851  22.992   5.768  0.2270 -0.0324  0.0190
21538W        W64529  13.426   0.141   0.339  0.0016 -0.0594  0.1329
21539W        W64530  24.469   9.628  27.148  0.3038 -0.1254  0.0421
21540W        W64531  13.668  15.951   6.642 -0.0192  0.2155  0.0644
21541W        W64532  20.070   1.974   6.825  0.1378  0.3753  0.1307
21542W        W64533  31.558   8.732   8.419 -0.1565 -0.0365 -0.0202
21543W        W64534  33.517  22.625  21.523 -0.0597 -0.0829  0.2768
21544W        W64535  26.702  14.672  21.881  0.1617  0.1196  0.3245
21545W        W64536  13.195   5.219   1.558 -0.2134  0.1820 -0.0350
21546W        W64537   7.196   9.385   9.972 -0.0289 -0.0824 -0.0937
21547W        W64538   2.593  10.677  27.524 -0.0772  0.1650  0.1851
21548W        W64539  23.389   3.635  26.634 -0.2629 -0.0492 -0.0850
21549W        W64540   5.544  16.359   4.552 -0.1326 -0.0562  0.0082
21550W        W64541   0.061   1.706   0.448 -0.1263  0.0016 -0.0080
21551W        W64542  17.541  10.892  25.983  0.0248  0.0804  0.0511
21552W        W64543  26.486  27.801   9.050 -0.0858 -0.3455  0.0398
21553W        W64544   9.442  33.631   6.355  0.1450 -0.1795 -0.1624
21554W        W64545  32.453  31.107   0.174 -0.0260 -0.0518  0.1274
21555W        W64546  14.626  15.483  28.125  0.0806  0.1206 -0.1953
21556W        W64547  20.512  28.270  28.450 -0.1159  0.2219 -0.0150
21557W        W64548  27.960   2.623   2.182 -0.0207 -0.1349 -0.0331
21558W        W64549  14.127   9.475   6.380  0.0484 -0.2066  0.1119
21559W        W64550  13.213   5.443   9.576 -0.1580  0.2421 -0.1226
21560W        W64551  25.038  30.188   6.644 -0.3068  0.2466  0.1465
21561W        W64552  14.478  29.396  22.780  0.0990  0.1739  0.0297
21562W        W64553  26.774  17.174  14.805  0.1666  0.0416  0.2629
21563W        W64554  19.779   7.255   9.450 -0.1417  0.1731 -0.1318
21564W        W64555  18.305  20.285  25.326 -0.1840  0.2345  0.1682
21565W        W64556  22.301  12.320   7.027 -0.0873  0.0208 -0.1592
21566W        W64557   6.012  14.842   7.964  0.0202  0.1256 -0.3353
21567W        W64558   5.547   8.032   5.333 -0.2265  0.1785  0.0957
21568W        W64559  18.812  14.350   4.667 -0.0085 -0.4228  0.1271
21569W        W64560   5.398   3.566  27.645  0.4483 -0.1169 -0.1793
21570W        W64561  16.654  33.645  27.317  0.0848  0.1032 -0.0095
21571W        W64562  20.063   6.441   6.104  0.4169  0.0620  0.0337
21572W        W64563  34.208  14.537   1.168 -0.1448 -0.0879 -0.0985
21573W        W64564  19.649  17.568   4.372 -0.1918  0.0401  0.0452
21574W        W64565  22.667  25.443   3.177  0.0367 -0.3331  0.0299
21575W        W64566   9.714  16.645  24.565 -0.0106 -0.1137 -0.3390
21576W        W64567  23.933  13.058  24.891 -0.0227 -0.3189  0.1799
21577W        W64568   0.012  19.911  28.865 -0.3849  0.0835  0.2847
21578W        W64569  24.222  27.823   1.323 -0.2605  0.0109 -0.1865
21579W        W64570   4.582  32.887  19.978  0.1931 -0.1587 -0.0501
21580W        W64571  15.139   3.607   2.541 -0.1364 -0.0112  0.2081
21581W        W64572  34.367  17.953   4.815 -0.2880 -0.0632 -0.0525
21582W        W64573  15.152   5.792   7.012  0.3433  0.0713 -0.0455
21583W        W64574  24.883   9.446   3.554  0.0722 -0.1260 -0.0905
21584W        W64575  23.347   9.796   8.991  0.2106  0.2595  0.1040
21585W        W64576  18.898   5.658  24.055 -0.1958 -0.0716 -0.1261
21586W        W64577  30.747   5.712  21.528  0.2840  0.2312 -0.1055
21587W        W64578  19.473   8.420  13.872 -0.2039 -0.3661 -0.2498
21588W        W64579  17.291  24.695  18.837 -0.1795  0.1484  0.0170
21589W        W64580  21.771   4.223   5.796  0.1585  0.0731 -0.1567
21590W        W64581  31.495   7.532   4.187  0.1540 -0.4901 -0.1706
21591W        W64582  19.608  11.406  19.532 -0.1596  0.0556 -0.2851
21592W        W64583  20.578  13.100  26.467 -0.0160 -0.1687  0.3291
21593W        W64584  21.065   2.899   9.109  0.0828  0.2201 -0.0501
21594W        W64585   0.060  15.843   7.466  0.0567  0.0304 -0.1914
21595W        W64586  28.763  22.253  10.195 -0.3265  0.1510 -0.3779
21596W        W64587  29.091   3.597   1.990 -0.0671  0.1149  0.0741
21597W        W64588  16.532  12.314   9.203 -0.2341 -0.3425  0.0683
21598W        W64589  13.169   2.515  22.311  0.1007  0.0850  0.1691
21599W        W64590  15.313  10.302  24.672  0.0958 -0.2995  0.0808
21600W        W64591  30.345  12.304   3.025 -0.0501  0.0122 -0.1514
21601W        W64592  27.796  13.567   2.211  0.2825  0.0549  0.3491
21602W        W64593  13.495  10.637   0.726 -0.2994 -0.1409  0.2090
21603W        W64594  15.542  29.030  26.340 -0.1900  0.0544 -0.0082
21604W        W64595  21.986  10.566  25.805  0.0122 -0.3772  0.0214
21605W        W64596   8.473   7.026  27.762 -0.0970  0.4953  0.0851
21606W        W64597  27.482   9.043   0.613  0.3132  0.0635  0.0102
21607W        W64598  31.495  16.795   7.904 -0.1822  0.2109 -0.0972
21608W        W64599   9.059  16.704  28.283  0.2382  0.1377 -0.0178
21609W        W64600  13.384  15.069  22.409 -0.0472 -0.0238  0.0706
21610W        W64601  19.200  15.269   7.498 -0.1250 -0.1256 -0.1961
21611W        W64602  21.563  12.806   3.497 -0.2149 -0.1131 -0.2346
21612W        W64603  12.288   6.652   8.515  0.0277  0.3392  0.0291
21613W        W64604  15.051  11.669   5.161  0.2921  0.1831  0.3634
21614W        W64605  28.012   9.664  20.227  0.0826  0.3207 -0.0171
21615W        W64606  28.738  19.196   6.735 -0.0922 -0.0559 -0.2292
21616W        W64607   7.878  26.066  20.765 -0.0968  0.1846 -0.1578
21617W        W64608  31.802   1.949  25.365 -0.2119 -0.0913  0.2062
21618W        W64609  21.991  13.598   0.740 -0.1792  0.2141  0.0140
21619W        W64610  14.122  11.689   2.576  0.2361 -0.0131  0.2509
21620W        W64611  31.550  14.290   4.296  0.1020 -0.3657 -0.1093
21621W        W64612  30.496  19.676   2.148 -0.1261  0.0428 -0.0422
21622W        W64613  28.567  22.041  29.242 -0.0464 -0.3477 -0.3414
21623W        W64614  20.258  28.667   5.045  0.0968  0.4567  0.1900
21624W        W64615  13.153  12.014   9.657 -0.2500  0.2880  0.0028
21625W        W64616  12.215   7.563   8.715 -0.0751 -0.2983 -0.1267
21626W        W64617  22.943  20.744   3.526 -0.2763 -0.2506  0.2366
21627W        W64618  22.171  19.872   5.248  0.0895 -0.0585  0.0182
21628W        W64619  20.505  16.180   6.266 -0.1599 -0.1020 -0.1754
21629W        W64620  24.385  33.081   8.693 -0.1177 -0.2909  0.2852
21630W        W64621  16.822   0.650  28.465  0.1846  0.1939  0.1029
21631W        W64622  20.890  18.098   6.895 -0.0227 -0.0387 -0.2638
21632W        W64623   5.201   7.274  10.492 -0.3274 -0.0627 -0.1578
21633W        W64624  11.174  15.590   5.504 -0.1406  0.1639 -0.4811
21634W        W64625  26.170  13.359   5.692 -0.0965  0.0222 -0.2339
21635W        W64626  26.127  15.599   4.610 -0.0981 -0.4203 -0.1416
21636W        W64627  29.737   0.349  22.008 -0.1146 -0.0047 -0.2199
21637W        W64628  28.125  12.048   9.033 -0.0110 -0.0160  0.0113
21638W        W64629  30.104  27.643   1.819  0.0007 -0.0478  0.2385
21639W        W64630   4.145  10.167   9.604 -0.1168  0.0857 -0.0081
21640W        W64631  20.547  12.940  16.852  0.2501  0.0651  0.0175
21641W        W64632  27.187  12.763   5.232 -0.4972  0.0119  0.0773
21642W        W64633  15.352  30.862  21.142 -0.0629  0.3008 -0.1458
21643W        W64634  32.655   3.796   6.912 -0.2456 -0.0445  0.2837
21644W        W64635  22.949  13.096  23.108 -0.1151 -0.0741  0.2217
21645W        W64636  12.584   8.931   8.423  0.1210  0.5200  0.3042
21646W        W64637  27.253  13.258  19.101 -0.0434  0.0876 -0.1063
21647W        W64638  16.839  28.642   4.437  0.0369  0.1178 -0.2484
21648W        W64639  24.906   6.405   2.921  0.0877  0.1258  0.1620
21649W        W64640  34.605  23.223   3.409  0.0080  0.1105  0.0312
21650W        W64641  28.847  18.176   7.726  0.0483 -0.0530  0.2214
21651W        W64642  20.166   8.233   0.898  0.2275  0.1598  0.1322
21652W        W64643  20.381  32.381  27.060  0.2986 -0.0725  0.0596
21653W        W64644  19.502  34.437  27.247  0.0025  0.0616 -0.1450
21654W        W64645  18.191  17.761   5.897  0.1051 -0.1251 -0.0561
21655W        W64646  19.846   5.842   6.187 -0.2162  0.1717 -0.0575
21656W        W64647  25.041   9.120  20.801 -0.2397 -0.0262 -0.3364
21657W        W64648  19.001   8.411   3.955 -0.0042  0.2234  0.0275
21658W        W64649  28.202  19.200  20.780  0.0116 -0.0528  0.0208
21659W        W64650   0.576  21.623  25.706  0.1896 -0.2170  0.3475
21660W        W64651  19.238  12.881  23.060 -0.1401 -0.0498  0.1599
21661W        W64652  26.745  31.669  25.211 -0.3209  0.2176 -0.4203
21662W        W64653  27.635   2.549   1.031 -0.5163  0.2874  0.1100
21663W        W64654  25.466  31.519   3.833 -0.1778  0.0466  0.1938
21664W        W64655   7.702  27.006   7.549  0.0973  0.2990  0.0497
21665W        W64656   1.793  13.920  23.318  0.1304 -0.1264  0.0747
21666W        W64657  17.978  19.863   5.210 -0.1719  0.2895  0.0455
21667W        W64658  19.446   5.972  20.976 -0.0522  0.0356 -0.3327
21668W        W64659  24.699  11.161  26.934  0.0740 -0.0064 -0.1609
21669W        W64660  14.316   5.615   5.000 -0.0245  0.0694  0.2649
21670W        W64661   9.894   8.189  10.849 -0.1719 -0.0912  0.2712
21671W        W64662  13.511   3.286   0.229 -0.1774 -0.0442  0.2209
21672W        W64663  31.965   1.472   4.656  0.0845 -0.0694  0.0580
21673W        W64664  21.152  29.239   8.454  0.2015 -0.3976 -0.0772
21674W        W64665   3.438   9.941   2.976  0.0742 -0.1399 -0.2262
21675W        W64666  14.167   5.280  25.682 -0.1002 -0.1505  0.2724
21676W        W64667  19.903  10.760   0.381  0.2884 -0.0246  0.1013
21677W        W64668  12.190  15.788   1.844 -0.0485 -0.2603  0.1178
21678W        W64669  11.717  11.580  27.415  0.3654 -0.2571  0.0614
21679W        W64670  14.988   5.712  18.228  0.0657  0.1405  0.0722
21680W        W64671  12.734  27.507  26.531 -0.0338  0.1209 -0.1353
21681W        W64672  21.179   1.465   4.667  0.0331 -0.0552  0.1794
21682W        W64673   7.676  11.907  24.450 -0.3503 -0.1680 -0.1763
21683W        W64674  17.953  10.552  17.326  0.0300  0.0240 -0.0395
21684W        W64675  15.712  21.852  21.232  0.0398  0.2539  0.1986
21685W        W64676  14.172   7.259  26.927 -0.0272 -0.0427 -0.4456
21686W        W64677  20.863   2.350   9.610 -0.1148 -0.1548 -0.3775
21687W        W64678   6.280  11.043   8.569  0.0823 -0.1320 -0.0948
21688W        W64679  18.228  15.698  15.219 -0.2831  0.4709  0.0358
21689W        W64680  34.449  14.300  11.466  0.0872 -0.2031 -0.1599
21690W        W64681  24.656  17.235   6.006 -0.1395  0.2605 -0.1357
21691W        W64682  20.055  14.257  21.132 -0.1372  0.1729 -0.1080
21692W        W64683  31.953  19.509   1.388 -0.2445 -0.0483 -0.1017
21693W        W64684  17.549   3.869   4.264 -0.4852 -0.1510 -0.0979
21694W        W64685  27.314  33.779   1.669 -0.0325 -0.1307 -0.0088
21695W        W64686  25.350  32.943  15.680  0.1222  0.1938 -0.5277
21696W        W64687  29.881   2.479   3.687  0.2319 -0.0510  0.2263
21697W        W64688  24.288   0.097  25.608 -0.1398  0.2753  0.0048
21698W        W64689  17.770   0.078   2.548 -0.1294  0.1531 -0.2564
21699W        W64690  32.294  25.078   5.770 -0.1915 -0.3864  0.1584
21700W        W64691   5.509  12.654  26.100  0.0559  0.2007  0.0350
21701W        W64692   9.307  18.761   8.856  0.0527 -0.0838  0.1018
21702W        W64693  28.691  15.522   0.440  0.0220  0.0952  0.3044
21703W        W64694  22.645  13.787   5.096 -0.1905 -0.1293 -0.0027
21704W        W64695   4.989  16.058  27.984  0.1168 -0.1352  0.0072
21705W        W64696  17.508  20.892  26.672 -0.0324  0.2174 -0.2406
21706W        W64697  28.225  11.948  28.881 -0.0870  0.0872  0.0041
21707W        W64698  21.817  22.015   6.441 -0.0350  0.3242 -0.1299
21708W        W64699  21.685  28.577  28.493  0.0198  0.2952  0.0545
21709W        W64700  18.803  17.479   0.859  0.2016  0.0096  0.1814
21710W        W64701  14.810   2.648   7.499 -0.0633  0.6493  0.0178
21711W        W64702  18.132   2.444   6.829  0.1315  0.0077 -0.1835
21712W        W64703  22.472  14.752   6.071 -0.3115 -0.0437  0.5002
21713W        W64704  30.612   8.839   3.820 -0.0521 -0.1319  0.2913
21714W        W64705  29.304  23.425   4.443 -0.0424  0.0222 -0.1979
21715W        W64706   2.028  11.997  22.553 -0.1027 -0.2591  0.0281
21716W        W64707  23.877   7.828  16.561 -0.1698 -0.0537 -0.3040
21717W        W64708  28.607   4.662   8.466  0.2826 -0.0676  0.1530
21718W        W64709  31.295  17.463   3.165 -0.1988 -0.1105  0.1956
21719W        W64710  12.422  11.538   3.176 -0.1537  0.0079  0.1531
21720W        W64711   9.701  19.942   7.187 -0.0545  0.0019  0.0281
21721W        W64712  22.206  33.754   4.818  0.0472 -0.0482 -0.5315
21722W        W64713   8.305  16.357   4.810 -0.0715 -0.2545  0.0483
21723W        W64714  14.073   9.289   8.760  0.1674 -0.0875 -0.2466
21724W        W64715  31.226  13.446   6.568  0.1713 -0.1660  0.2028
21725W        W64716  15.029  27.540   9.445  0.3142  0.2846  0.3517
21726W        W64717  20.127   4.556   7.574  0.1053 -0.1882  0.0495
21727W        W64718  33.562   5.776   4.366  0.3563  0.1218 -0.1986
21728W        W64719  29.094  11.500   6.998  0.0907  0.0130  0.2840
21729W        W64720   8.145  30.927   5.661  0.1273 -0.2622  0.2219
21730W        W64721  31.147  12.622  28.733  0.0080  0.0190 -0.2748
21731W        W64722  25.700  16.834  27.305 -0.1530  0.0823  0.1182
21732W        W64723  16.225  30.130  29.249  0.0105 -0.2378 -0.0305
21733W        W64724  20.213   6.819  18.416  0.2752  0.0429 -0.1639
21734W        W64725  17.679  15.377   3.197 -0.0308  0.0198 -0.1183
21735W        W64726  16.568  30.639   7.145 -0.1803 -0.0247  0.0387
21736W        W64727  15.366   7.057   9.556  0.2108 -0.0395  0.0526
21737W        W64728  30.388   7.423   1.276 -0.1257  0.4507  0.0480
21738W        W64729   2.733  31.219   6.450 -0.0695 -0.2185 -0.0788
21739W        W64730  31.674  25.313  17.181 -0.0931  0.0364  0.2126
21740W        W64731  28.523   6.194   4.733 -0.0121  0.2747 -0.0445
21741W        W64732  27.705   1.022  24.656  0.1035 -0.2068 -0.1026
21742W        W64733   8.388  30.166   6.097  0.2332 -0.0403  0.3941
21743W        W64734  24.351  14.856   2.808  0.3056  0.2034 -0.0125
21744W        W64735  24.882  24.830  28.199 -0.0881  0.1487  0.1276
21745W        W64736  15.071  25.964  10.174 -0.0335  0.0008  0.1010
21746W        W64737  16.451  14.477   7.794  0.0640 -0.1775  0.1922
21747W        W64738  23.369  32.953   6.694  0.3706  0.2905  0.4021
21748W        W64739  24.801   7.575   3.452  0.0449  0.5127  0.2693
21749W        W64740  18.275   3.148   6.648 -0.0611 -0.0089 -0.1414
21750W        W64741  33.731   6.508   1.148  0.2237  0.0500  0.4688
21751W        W64742  27.340   3.783   8.092  0.0012 -0.0586  0.2790
21752W        W64743  14.697   1.745  28.821 -0.1420 -0.0781  0.1522
21753W        W64744  17.078  34.293   5.966 -0.0106 -0.1184  0.0866
21754W        W64745  18.190  33.075  27.544  0.1102  0.4577 -0.2517
21755W        W64746  29.458  17.174  16.613  0.2733 -0.1138 -0.0677
21756W        W64747  22.000  14.388   0.896  0.0570  0.3274  0.2789
21757W        W64748  20.125   6.212  25.197  0.0853 -0.2499 -0.0375
21758W        W64749  19.571  11.078   0.503  0.1662  0.2721  0.1643
21759W        W64750  20.703   3.405  19.922 -0.1702  0.2395  0.2518
21760W        W64751  23.191   0.234   5.675 -0.0717 -0.3633  0.2315
21761W        W64752  23.146  21.307   6.819 -0.1471  0.1520  0.2563
21762W        W64753  25.455  10.239  28.688  0.1184 -0.1684  0.0725
21763W        W64754  17.974  20.534   2.135  0.1950 -0.1868 -0.3154
21764W        W64755  20.060  16.576   5.106 -0.2098  0.1552  0.0353
21765W        W64756  26.942   4.411   7.442  0.1648  0.2579 -0.0395
21766W        W64757  29.859   6.338   6.641  0.0279 -0.0413 -0.0886
21767W        W64758  31.463   6.724   4.686  0.0755 -0.1192  0.1398
21768W        W64759  24.230  14.589   0.429 -0.1271  0.0887  0.1391
21769W        W64760  30.371  31.537   8.535  0.1030 -0.1278  0.0070
21770W        W64761  29.396  15.208   5.727 -0.0258  0.2359  0.1249
21771W        W64762  20.835  12.181  28.937 -0.4785 -0.1274  0.4994
21772W        W64763  22.548  18.373   7.039 -0.0625 -0.0692 -0.0983
21773W        W64764  14.413  32.616  28.949  0.0284  0.3422 -0.0168
21774W        W64765  22.527  22.228  16.419 -0.1545 -0.1356  0.0850
21775W        W64766   4.941  11.736   2.355  0.0008 -0.1570 -0.1029
21776W        W64767   2.619   5.444   8.025  0.2944 -0.0698 -0.0492
21777W        W64768  25.021   1.817   2.379  0.2486  0.1650  0.0477
21778W        W64769  23.320  16.069  23.815 -0.1181  0.0302 -0.2169
21779W        W64770  31.031  27.291   8.950  0.0735  0.0832  0.1112
21780W        W64771  17.379   1.587   3.003  0.2413 -0.1958 -0.0212
21781W        W64772   7.308  13.488   9.994 -0.3110  0.0793  0.2187
21782W        W64773  18.514  27.446  21.047  0.3006 -0.3184 -0.1636
21783W        W64774  13.732   1.896  28.599  0.0497  0.0235 -0.1144
21784W        W64775  19.530  10.150   5.079  0.0022 -0.0782 -0.0205
21785W        W64776  30.683  33.372  26.441 -0.1064  0.1292 -0.0431
21786W        W64777  16.187  11.998   3.938  0.0275  0.4271 -0.2423
21787W        W64778  16.944   3.146   4.996  0.1295  0.1870  0.0070
21788W        W64779  31.956  19.727  16.226 -0.1730  0.0593 -0.1424
21789W        W64780  30.428  10.763  19.158 -0.2843 -0.2031  0.0997
21790W        W64781  21.695  27.330   7.981 -0.1549  0.2204  0.2431
21791W        W64782   9.810  11.858   8.250  0.1170 -0.1625  0.1879
21792W        W64783  20.029   5.553  21.415  0.3234 -0.0641 -0.1209
21793W        W64784  30.552   9.418   5.528 -0.1069  0.1409  0.0767
21794W        W64785  28.010  17.353  10.166 -0.0673  0.1448 -0.0978
21795W        W64786   0.807  20.758  18.929 -0.1078  0.1746 -0.2715
21796W        W64787  19.770  12.028   2.814 -0.1554  0.1688  0.2774
21797W        W64788  31.543   8.544   4.197  0.1180 -0.2201 -0.3178
21798W        W64789  27.902   7.488   8.187  0.0442  0.1475 -0.0105
21799W        W64790  13.844  18.151   0.688  0.0888 -0.1145 -0.2486
21800W        W64791  26.622  13.191   3.229 -0.2150 -0.1556  0.0085
21801W        W64792  23.669  11.899   3.698 -0.2034 -0.1013 -0.3238
21802W        W64793  30.098  13.817   6.559  0.0505  0.1640 -0.0136
21803W        W64794  25.000  12.315   2.014  0.0477 -0.0896  0.0249
21804W        W64795  12.973  31.511   2.897  0.1213  0.0467 -0.1753
21805W        W64796   4.216  26.364  28.295  0.0199 -0.1474 -0.1399
21806W        W64797  31.504   1.847  27.303  0.0460  0.0350  0.1759
21807W        W64798  19.179   6.143   5.144 -0.3184 -0.2178 -0.0522
21808W        W64799   5.939   6.438  26.602 -0.0109  0.1129 -0.1107
21809W        W64800  21.087   6.442   1.427 -0.1277  0.3374 -0.3745
21810W        W64801   5.368  12.050   2.339  0.2538 -0.4753 -0.0521
21811W        W64802  24.054   6.581  24.389  0.1327 -0.1257  0.0217
21812W        W64803  28.555  22.531   7.505  0.0969 -0.3141 -0.2202
21813W        W64804   8.765  11.423   2.548 -0.1891 -0.3067 -0.1097
21814W        W64805  30.718  12.548   0.235 -0.2642 -0.1294  0.1481
21815W        W64806  31.525   3.088  24.388  0.2071  0.4039  0.2913
21816W        W64807  29.005   8.551  24.286 -0.0874  0.1676  0.0982
21817W        W64808  24.282  27.847   2.915  0.2231  0.0329  0.0810
21818W        W64809  16.505  30.445  16.300  0.1336 -0.2751  0.0124
21819W        W64810  11.195  21.586  25.848  0.0540  0.1889 -0.4227
21820W        W64811  10.054  16.383  10.095  0.1596  0.0841  0.2974
21821W        W64812  24.929  27.085   7.653  0.1727 -0.2083  0.0130
21822W        W64813  13.039  27.604   3.025  0.0627 -0.0086  0.1708
21823W        W64814   0.443  18.631  19.577 -0.0368 -0.1399  0.1151
21824W        W64815  18.998  18.484  28.584 -0.1996  0.0581  0.0861
21825W        W64816  18.968  25.739   1.521  0.3283 -0.1865  0.0822
21826W        W64817   2.614  11.842   5.655  0.0455  0.3661 -0.2058
21827W        W64818  24.981  15.792  22.933  0.0977  0.0658 -0.1311
21828W        W64819  13.529  12.909   2.316 -0.0073 -0.0200 -0.1768
21829W        W64820  32.751  23.084  22.380 -0.0473  0.3365  0.0845
21830W        W64821   8.835  32.373   8.439  0.1787 -0.3588  0.3088
21831W        W64822  22.287  24.227  27.006 -0.0669 -0.1969  0.0955
21832W        W64823  20.396  15.725  27.333  0.0636  0.2103 -0.2015
21833W        W64824  17.966  11.277   3.655 -0.1083 -0.3556 -0.0210
21834W        W64825  15.400  10.166  25.185 -0.1866  0.0682 -0.1038
21835W        W64826  15.534   5.992  10.576  0.0073 -0.1004  0.4015
21836W        W64827  27.571   4.940   1.291 -0.1544 -0.5444 -0.0510
21837W        W64828  28.551  33.984   6.741 -0.1518 -0.0399  0.2719
21838W        W64829  15.811  10.993  25.006  0.1315 -0.0472 -0.1665
21839W        W64830  29.829  17.351  22.953 -0.2663 -0.3827 -0.3195
21840W        W64831  22.159  14.218  16.489 -0.1249  0.3016 -0.0913
21841W        W64832  31.986  11.691   9.711 -0.2101  0.0830 -0.0005
21842W        W64833   4.087   6.453  25.133 -0.2719  0.1887  0.2111
21843W        W64834  13.431   7.349   2.618  0.0985  0.1625  0.0922
21844W        W64835  28.294  33.134   6.387 -0.2727  0.0298 -0.2273
21845W        W64836  30.287  12.349   4.929  0.0803 -0.0813  0.0749
21846W        W64837  28.755   4.485   0.166 -0.1632  0.0397 -0.0688
21847W        W64838  20.923   6.653  27.595 -0.0202 -0.0616 -0.0600
21848W        W64839  24.375  20.936   5.452 -0.0871 -0.1465  0.3220
21849W        W64840  13.483  13.375   3.189 -0.0732  0.2369 -0.2195
21850W        W64841  27.518  18.530  18.338 -0.2513  0.0847  0.0831
21851W        W64842  25.689   6.486   1.615 -0.2340 -0.0688  0.1913
21852W        W64843  23.696  13.752  21.051 -0.1491  0.0225 -0.1360
21853W        W64844  22.420  10.231   7.540 -0.0600 -0.2174 -0.0264
21854W        W64845  31.842  16.070  11.222  0.3616 -0.1054  0.1001
21855W        W64846  34.386  28.392  23.376  0.0460 -0.2089 -0.2140
21856W        W64847  14.701  12.264   0.310 -0.0054  0.1846 -0.0200
21857W        W64848  15.266  17.264  25.073 -0.1423  0.1366 -0.1458
21858W        W64849   3.252  33.199   0.465  0.0230 -0.3749 -0.3220
21859W        W64850  32.754   3.638  21.002 -0.1220 -0.0161  0.2269
21860W        W64851  26.686   4.761   1.090  0.0582  0.0656 -0.2158
21861W        W64852  34.587  19.035  29.183  0.1456  0.1555  0.0671
21862W        W64853  20.003  28.597   4.223 -0.0037  0.1054 -0.1218
21863W        W64854  25.198  14.338   5.111 -0.0693  0.2014  0.5136
21864W        W64855  20.067   6.789   9.454  0.0389 -0.0716 -0.2393
21865W        W64856  13.475   8.193  29.030 -0.1042  0.3639 -0.2291
21866W        W64857   9.655   7.465   1.451 -0.1870 -0.0804 -0.1858
21867W        W64858  32.301  10.711   7.348 -0.1847  0.3207 -0.1114
21868W        W64859   8.135   1.305  27.415 -0.3113 -0.1920  0.2899
21869W        W64860  30.929  17.909   6.004  0.0273  0.1537 -0.1149
21870W        W64861  11.042  12.872   7.483  0.1418 -0.4608  0.1079
21871W        W64862  17.710   6.492   4.689 -0.2327 -0.2331 -0.0169
21872W        W64863   8.961  21.098  21.116 -0.3321 -0.2089  0.2552
21873W        W64864  28.578  29.445   5.270 -0.2590  0.1847 -0.3799
21874W        W64865  12.949   5.613  11.187 -0.1235  0.0994  0.0793
21875W        W64866   4.676  19.711  10.519  0.0597 -0.0504 -0.0644
21876W        W64867  13.912  16.538  29.173  0.3066 -0.1726 -0.0650
21877W        W64868  10.072  33.524  28.847  0.1199 -0.1016  0.0013
21878W        W64869  28.877  11.243   2.667 -0.0834 -0.0940 -0.2474
21879W        W64870   2.053   1.933   2.693 -0.2223 -0.1810 -0.2277
21880W        W64871  31.457  11.064   7.457  0.1521 -0.1577  0.1200
21881W        W64872  26.300  17.547   6.393 -0.1066 -0.5003  0.4376
21882W        W64873  23.179  33.422   6.521  0.2090  0.1654 -0.1797
21883W        W64874   6.863   1.163  23.847  0.0596  0.2706  0.1850
21884W        W64875  25.155   9.170   2.897  0.0925  0.3796 -0.2063
21885W        W64876   2.262  18.327  10.798 -0.0249  0.1335  0.1405
21886W        W64877  17.107   2.609   5.707 -0.0360 -0.3039  0.1924
21887W        W64878  34.519  34.177  24.243 -0.3107  0.3030  0.2185
21888W        W64879  32.118  31.692  20.904 -0.0489 -0.0970  0.0970
21889W        W64880  22.458  30.189   7.835  0.1353  0.1970 -0.0458
21890W        W64881  25.336  10.955   5.397 -0.1678 -0.0972 -0.0151
21891W        W64882   9.974   6.758  20.060 -0.0562  0.1582 -0.2333
21892W        W64883   2.386  32.642   6.841  0.0113 -0.1729 -0.0908
21893W        W64884  27.971  16.180   1.729  0.1675 -0.2580  0.0121
21894W        W64885  22.574  11.386   4.863  0.2959  0.0766 -0.1317
21895W        W64886  24.102  24.193   4.592 -0.2144 -0.2121 -0.2609
21896W        W64887  10.809  14.188  23.681 -0.0653 -0.3730 -0.1681
21897W        W64888  17.067  29.564   4.934  0.1674  0.0837  0.2430
21898W        W64889  18.090  16.770   4.778  0.1038  0.0168 -0.1245
21899W        W64890  30.720  12.762  24.443 -0.0248  0.2343 -0.3361
21900W        W64891  31.775  10.796   7.107  0.1965  0.1000  0.0031
21901W        W64892   1.697   0.211   9.880 -0.0699 -0.3165 -0.1087
21902W        W64893  34.054  22.494  19.124  0.1449 -0.2984 -0.2901
21903W        W64894  29.218   8.764   3.271 -0.1637  0.0438  0.0421
21904W        W64895  20.240   1.356   2.425 -0.0730  0.1413 -0.4034
21905W        W64896  21.960  10.963   9.734  0.0125  0.1469 -0.2455
21906W        W64897  28.418  34.714   6.884 -0.2033  0.3473 -0.0223
21907W        W64898  24.786   3.273  21.547 -0.1044  0.0692  0.3520
21908W        W64899  14.870  31.389  25.775  0.1088  0.2822 -0.0463
21909W        W64900   6.155   5.893  29.156  0.1270 -0.1207  0.2094
21910W        W64901   0.974  33.323   3.603  0.0636 -0.0073  0.1355
21911W        W64902  19.101   5.087   4.971  0.0393  0.0682 -0.0218
21912W        W64903  23.484  20.609  26.630  0.0696 -0.1110 -0.0607
21913W        W64904  30.596   6.255   0.703 -0.1184 -0.1190 -0.0947
21914W        W64905  32.720  33.155   0.157 -0.1045 -0.0631 -0.0894
21915W        W64906  34.258   8.725   9.407 -0.2343 -0.3286  0.1582
21916W        W64907  30.981   9.742  26.395 -0.2022  0.0216  0.0165
21917W        W64908  22.774  11.112  27.477  0.3722  0.3653  0.4664
21918W        W64909  21.426  19.173   6.419 -0.1037 -0.1281 -0.1017
21919W        W64910  32.871  24.013  22.323  0.0614 -0.0251 -0.0739
21920W        W64911  33.470  17.405  18.602 -0.1444 -0.1779  0.3673
21921W        W64912  23.708  17.674   5.930 -0.0149 -0.1131  0.1089
21922W        W64913  16.638  34.279  29.021 -0.2023  0.2196 -0.2670
21923W        W64914  19.495   9.890   2.010  0.3513 -0.0072  0.1064
21924W        W64915  25.176  15.707  24.251  0.0487  0.0224  0.2180
21925W        W64916  32.566   8.093   0.536  0.0637 -0.2864 -0.1941
21926W        W64917   0.219  17.429   6.223 -0.1248  0.2443  0.1033
21927W        W64918  13.472  18.897   8.770  0.1008  0.0570  0.0990
21928W        W64919  13.308   7.328   1.492  0.0061 -0.0193  0.2062
21929W        W64920  15.047   8.984  22.814 -0.0189 -0.0157  0.0848
21930W        W64921  29.211  27.981   8.161  0.1065  0.4793 -0.2603
21931W        W64922   4.724  30.948  27.135 -0.0003 -0.1510  0.4237
21932W        W64923   1.273  27.839   1.336 -0.1844 -0.4203  0.2307
21933W        W64924   1.266   1.823   4.732  0.0816 -0.1070  0.2023
21934W        W64925  28.344  16.605   7.197  0.2195 -0.0841  0.2894
21935W        W64926  17.028  34.030   9.347  0.0732  0.1813  0.1167
21936W        W64927  20.101  24.629  27.383  0.3155  0.0670 -0.2461
21937W        W64928  21.645  12.219  27.740  0.3521 -0.1406  0.2804
21938W        W64929   4.381  14.966   7.465  0.0299 -0.0566 -0.6510
21939W        W64930   1.586  17.571   9.761  0.1965 -0.0429  0.0594
21940W        W64931  16.791  11.071   6.966  0.0526 -0.0249  0.1923
21941W        W64932  20.442   6.404   3.221  0.1159 -0.1167 -0.3137
21942W        W64933   8.092   9.447   3.079  0.2671  0.1938  0.0444
21943W        W64934  31.211   8.797   7.269  0.1841  0.0496  0.4172
21944W        W64935  17.119  13.606  26.637  0.1018  0.2999  0.1442
21945W        W64936  17.384  16.304   8.762  0.4122  0.2673  0.0292
21946W        W64937  18.105   9.729  21.020 -0.1576 -0.1054 -0.0587
21947W        W64938   8.552  22.629  28.061 -0.1550  0.1184  0.0575
21948W        W64939  18.448   0.623   4.526  0.0022  0.3104  0.0810
21949W        W64940  18.857   7.311   4.290 -0.0854  0.2435  0.1509
21950W        W64941  23.493  24.719   8.199 -0.2211 -0.0373 -0.1514
21951W        W64942  15.182  21.600   0.956 -0.2129  0.0748 -0.1578
21952W        W64943  26.923  25.584  24.134  0.3285  0.3197  0.2003
21953W        W64944   6.172   3.989  26.708 -0.1686 -0.0871  0.0073
21954W        W64945  22.343   7.725  10.010  0.0780  0.0803  0.2647
21955W        W64946   1.675  12.988  22.139  0.2593  0.4537  0.0686
21956W        W64947   1.121  19.144   6.627 -0.4236  0.0679  0.2873
21957W        W64948  23.241  15.925   7.141  0.1197  0.2095 -0.0008
21958W        W64949  15.965  34.610   2.802 -0.1329 -0.1618  0.1871
21959W        W64950  33.986  15.270   9.391  0.1968  0.2600 -0.0571
21960W        W64951  21.416   6.614  27.607  0.0427  0.2158 -0.1562
21961W        W64952  16.222   3.743  27.180 -0.0855 -0.1146  0.2487
21962W        W64953  27.464  29.802   0.120 -0.0281 -0.1782 -0.1139
21963W        W64954  22.406   5.448  19.997 -0.0259  0.0624 -0.2090
21964W        W64955  15.057  15.205   7.659  0.0835  0.0315 -0.2192
21965W        W64956  24.350  18.765   5.931 -0.2949  0.0340 -0.1039
21966W        W64957  11.439  11.168   9.048 -0.3537  0.0584 -0.0276
21967W        W64958  25.021   1.537  23.778 -0.4471 -0.0349  0.2262
21968W        W64959  30.468  27.706   4.011 -0.0306 -0.0452  0.0692
21969W        W64960  28.363   0.559  25.268 -0.2034 -0.1794 -0.2650
21970W        W64961  21.616  15.742  27.226  0.4111 -0.7241 -0.1904
21971W        W64962  21.203  26.744  21.462  0.0296  0.1360  0.1472
21972W        W64963  15.202  15.220   8.268  0.0425 -0.0184 -0.2540
21973W        W64964  29.854  13.869  26.230 -0.0349  0.3810 -0.3695
21974W        W64965  30.856  10.036   9.384 -0.1943 -0.1718  0.2328
21975W        W64966  22.137   3.709   2.284  0.2705 -0.0505 -0.0678
21976W        W64967  26.308  18.193   2.479 -0.2313  0.1632  0.1868
21977W        W64968  14.157  18.331   4.085 -0.4070 -0.3621  0.2783
21978W        W64969  14.289  34.052  24.499  0.2707  0.2485  0.2102
21979W        W64970  24.108  13.683  21.819  0.1116  0.0409  0.0066
21980W        W64971  15.614  33.164   1.015 -0.0143  0.3666 -0.0947
21981W        W64972  25.134  14.950   9.472 -0.4215 -0.2599 -0.0512
21982W        W64973  28.918   9.727  27.618  0.3016 -0.0500  0.1122
21983W        W64974   9.696  27.614  25.208  0.2047  0.0895 -0.0166
21984W        W64975  28.912  12.667   7.246  0.1702 -0.0237  0.1369
21985W        W64976  11.204  10.023   5.398  0.1090  0.2041  0.2571
21986W        W64977  27.727   8.643  26.008  0.1157 -0.4063  0.2910
21987W        W64978  24.020  17.746   8.113 -0.3083  0.0064  0.0586
21988W        W64979  11.089  10.561   5.278  0.3062  0.0852  0.0506
21989W        W64980   9.341  23.854  10.343  0.3151  0.4001  0.0131
21990W        W64981  19.289   8.215   2.252  0.0625 -0.0681 -0.0363
21991W        W64982  17.805  29.168  27.805 -0.0541 -0.2901  0.0249
21992W        W64983   0.662   4.441  24.957 -0.3092  0.1681 -0.3118
21993W        W64984  15.491  33.691  24.708  0.0332  0.0203  0.2706
21994W        W64985  31.087  11.760   4.517  0.0347 -0.0528 -0.1178
21995W        W64986   8.027  17.519   7.238  0.0294  0.2720  0.1018
21996W        W64987  26.829  23.229   4.549 -0.0852  0.3087  0.1843
21997W        W64988  20.813   0.594   7.029 -0.0361 -0.0536 -0.0566
21998W        W64989  34.014   1.997  24.699  0.0044  0.0657 -0.1853
21999W        W64990  21.747  29.736   4.522  0.1819 -0.0817  0.0186
22000W        W64991  11.551  12.766   7.291 -0.0339  0.0828 -0.0074
22001W        W64992   2.085  17.918  22.633  0.1158 -0.2402 -0.0604
22002W        W64993  16.066   4.124   5.503  0.0905 -0.0520  0.1682
22003W        W64994   8.883   2.561  28.910 -0.1823  0.1086 -0.0401
22004W        W64995  20.204  13.238   7.672 -0.1412  0.0479  0.2354
22005W        W64996   3.790   6.325  24.264 -0.3316  0.0552  0.0587
22006W        W64997  12.831  17.470  27.663  0.0064 -0.0794  0.0841
22007W        W64998  18.339   2.825   7.049 -0.0102  0.1589  0.2285
22008W        W64999  12.007   0.565   3.898 -0.2208  0.1644 -0.0023
22009W        W65000  33.817  11.216   0.396  0.1448 -0.0767  0.4756
22010W        W65001  25.624  33.533   9.314 -0.2637  0.0872  0.0603
22011W        W65002  27.475  23.966  28.288 -0.0772 -0.1047 -0.0285
22012W        W65003  27.805   9.773   8.088 -0.1185 -0.1679 -0.0889
22013W        W65004   2.795  16.291   3.142  0.0294 -0.4908  0.1211
22014W        W65005   7.835   3.866  23.353  0.0818 -0.1433 -0.4240
22015W        W65006  18.938   7.053   8.178  0.0376  0.0844  0.1462
22016W        W65007  22.765  19.162   5.315  0.0656 -0.1814  0.1038
22017W        W65008  34.347   5.678  25.436  0.0692  0.2032  0.1669
22018W        W65009  26.981  12.188   8.453 -0.1317 -0.1556 -0.0744
22019W        W65010  13.106   3.914   8.878  0.0501 -0.0994 -0.0530
22020W        W65011  14.467  12.239  25.573 -0.1623  0.1684 -0.1635
22021W        W65012  14.521  22.147   1.468  0.2229 -0.0857 -0.2245
22022W        W65013  29.428   0.279   1.017  0.2216  0.0409  0.1122
22023W        W65014  12.636  24.872   6.928  0.0427 -0.1051  0.1621
22024W        W65015  19.010  13.610  26.124 -0.0684 -0.0621  0.0473
22025W        W65016   8.898   6.760   8.797 -0.2173  0.0103  0.0268
22026W        W65017  25.911  34.135  22.461  0.2557  0.1865  0.1825
22027W        W65018  21.479  17.954  24.088 -0.2148  0.2802  0.1946
22028W        W65019  34.005   9.527   4.105 -0.2383 -0.0870 -0.2182
22029W        W65020  12.494  22.662   8.629  0.1389 -0.0627 -0.0328
22030W        W65021  20.371  20.905   8.325  0.0764 -0.5628  0.1589
22031W        W65022  21.207   9.709  22.796  0.2881 -0.0878 -0.1584
22032W        W65023  21.268  19.393   5.440  0.2204  0.2346 -0.2153
22033W        W65024  20.857   6.450  26.621  0.1041 -0.0497  0.1451
22034W        W65025  32.356   7.957  10.487  0.0836  0.1822  0.0929
22035W        W65026  29.074  14.182  28.169 -0.2539  0.3064 -0.0934
22036W        W65027  25.428  31.657   3.193 -0.0101 -0.1153 -0.0268
22037W        W65028  31.954  26.552   7.109  0.1879 -0.2334  0.3309
22038W        W65029  33.471  11.594   9.409 -0.1492 -0.5595  0.1296
22039W        W65030  25.739  10.665   6.465  0.0999  0.2309  0.0198
22040W        W65031  13.698  20.911   1.031  0.0690  0.0684 -0.0013
22041W        W65032  30.996  11.015  26.650  0.4044  0.2036 -0.1973
22042W        W65033  26.961  21.032   7.078 -0.3317  0.0373  0.2125
22043W        W65034  32.734   1.643   0.345 -0.5767  0.3804  0.2178
22044W        W65035  14.654   5.233  10.005  0.0990  0.3421  0.1201
22045W        W65036   9.557   3.828   9.151  0.1048  0.1397 -0.1076
22046W        W65037  30.999   1.083  23.786  0.2497  0.0172 -0.1083
22047W        W65038   4.023   4.814   6.212  0.0552  0.2831 -0.1128
22048W        W65039  33.650  14.520   1.831 -0.2188  0.1823  0.4523
22049W        W65040  22.724   9.529  27.674 -0.0904  0.3248 -0.1774
22050W        W65041   5.173  31.589   7.972 -0.1221 -0.0067 -0.2019
22051W        W65042  12.561  28.526   0.156  0.3758  0.0078  0.1433
22052W        W65043  30.145  11.090  24.623  0.3702  0.1842  0.0458
22053W        W65044  16.178  18.104   0.066  0.0034  0.1455 -0.1028
22054W        W65045  22.340  20.420  28.576  0.0983 -0.3123 -0.3856
22055W        W65046   2.642  14.429  10.870 -0.1723 -0.1039  0.1688
22056W        W65047  24.079   7.804  18.474 -0.0348  0.1643 -0.3180
22057W        W65048  21.541   3.075   9.399 -0.1374  0.0635 -0.2031
22058W        W65049   8.318  15.560   4.532 -0.0656  0.2640  0.1218
22059W        W65050  15.478   9.522   1.286  0.0040 -0.0964 -0.1033
22060W        W65051  31.752  16.236   8.208 -0.1222 -0.0139  0.1460
22061W        W65052  27.736  23.044  28.100  0.1354  0.2221 -0.0308
22062W        W65053  33.009   9.557   3.819 -0.1976 -0.1724 -0.3415
22063W        W65054  24.838  12.502   0.494 -0.3099  0.3466  0.1865
22064W        W65055  16.555  22.696   2.356  0.2597 -0.1402  0.0169
22065W        W65056  24.164  30.508   7.167 -0.3000  0.1522  0.1209
22066W        W65057  20.917   5.530   4.363  0.2200 -0.0872 -0.3608
22067W        W65058  29.010  21.415   8.400  0.3714  0.0454  0.2124
22068W        W65059  13.069  10.261   6.115  0.2700  0.2216  0.1220
22069W        W65060  13.051   9.436   0.411 -0.0097 -0.0525  0.0604
22070W        W65061   2.928   3.836   6.500  0.0241 -0.3376  0.3138
22071W        W65062  11.184   5.429  27.888  0.1294 -0.1032  0.1942
22072W        W65063  33.127  26.085  24.786  0.0958  0.2150  0.1140
22073W        W65064  19.495  11.129   0.985  0.1156 -0.2380  0.1205
22074W        W65065   7.828  30.794   6.562 -0.0326  0.0183  0.0880
22075W        W65066  15.089   8.175  28.455 -0.0657  0.2715  0.4236
22076W        W65067  24.596  32.633   6.321  0.0800 -0.1355  0.1650
22077W        W65068  15.321   2.746   6.614  0.0742  0.2297 -0.0753
22078W        W65069  31.689  13.993  26.019 -0.1820  0.2063 -0.0584
22079W        W65070  13.465  17.531   2.761  0.2050 -0.2566  0.1069
22080W        W65071   9.518   2.545  26.775 -0.1752  0.2113  0.1103
22081W        W65072  15.138  20.782   0.068  0.2144  0.0238  0.0693
22082W        W65073  17.800   5.312   6.397  0.2201  0.1709 -0.2601
22083W        W65074  18.839  21.786   1.794 -0.6041 -0.0510  0.0327
22084W        W65075  15.319  21.877   8.120  0.3050  0.2427  0.1362
22085W        W65076   2.689  10.554  28.093  0.1913 -0.1348  0.2711
22086W        W65077  28.674  28.220   6.540  0.0264  0.1859 -0.3725
22087W        W65078  30.380   4.334  27.829 -0.3621 -0.1264 -0.0802
22088W        W65079  19.983   5.358   5.752  0.4101 -0.0079  0.0461
22089W        W65080  19.742  17.125  27.947  0.4679 -0.5892  0.0283
22090W        W65081  28.421   1.952   5.237  0.2229 -0.1691 -0.0313
22091W        W65082  31.167  24.615   2.339 -0.0518  0.1292 -0.1390
22092W        W65083  20.442   5.366   8.634  0.0973 -0.0054  0.0253
22093W        W65084  12.579  13.881   0.919  0.3589 -0.0223 -0.1706
22094W        W65085  17.028   8.204  26.097  0.2412 -0.0472  0.3015
22095W        W65086  15.873  22.078   3.396  0.2130 -0.0981 -0.1018
22096W        W65087  27.220  10.611  29.061 -0.0541 -0.2015  0.3000
22097W        W65088  31.057   8.613  18.147  0.3961  0.1763 -0.2064
22098W        W65089  27.811  19.032  17.026 -0.0216 -0.0054  0.0002
22099W        W65090  33.437   6.229   9.729 -0.0738  0.1247  0.2242
22100W        W65091   6.882   6.517   8.153 -0.0762 -0.4388 -0.0075
22101W        W65092  12.587   5.597  26.189  0.0408 -0.1093 -0.3872
22102W        W65093  13.170   4.560   0.677  0.1542  0.3746  0.1465
22103W        W65094  13.755  11.989  25.046 -0.4401 -0.3451 -0.0008
22104W        W65095   8.856  17.036   6.295 -0.0051  0.0906 -0.2161
22105W        W65096  28.924  28.134   8.566 -0.1753 -0.0021 -0.1363
22106W        W65097  27.213   0.623   4.765  0.3425 -0.3440 -0.0954
22107W        W65098  29.462  23.430  23.697  0.0043  0.0207 -0.0363
22108W        W65099   1.103  24.847   4.703 -0.1673 -0.0681 -0.0275
22109W        W65100   9.485  29.826   4.469  0.4061 -0.3186 -0.2359
22110W        W65101  27.618   3.800   6.686  0.0973  0.2321  0.1651
22111W        W65102  24.121   6.222  28.123  0.3005 -0.0448  0.2072
22112W        W65103   0.913   2.691   9.214 -0.0996 -0.0564 -0.0543
22113W        W65104  19.458  15.555   5.470  0.2971  0.0699  0.0758
22114W        W65105  19.147  16.265   5.940  0.1695  0.1300 -0.0532
22115W        W65106  27.851  16.746   7.062 -0.0695  0.2957  0.3642
22116W        W65107   8.162  31.993   9.586  0.0430 -0.0470  0.1077
22117W        W65108  21.127  14.388   2.048 -0.0866  0.3152  0.0457
22118W        W65109  25.184  31.757  28.661 -0.2484  0.0201 -0.1188
22119W        W65110  11.510  14.417  10.082 -0.3764  0.0541 -0.0047
22120W        W65111  14.086  15.970   5.548 -0.0349  0.0731  0.1696
22121W        W65112  15.426   4.895   9.195 -0.0579 -0.0391  0.2169
22122W        W65113  15.289   1.613   8.214 -0.0678 -0.0933 -0.2009
22123W        W65114  25.994  17.738   3.283 -0.0613  0.0542  0.1113
22124W        W65115  19.509  18.617  24.182 -0.0198  0.0836  0.0384
22125W        W65116  34.032   6.499  27.694  0.0587 -0.1026  0.0669
22126W        W65117  26.594  14.135   5.339  0.1155 -0.1715 -0.2705
22127W        W65118  34.560  23.336   6.480 -0.1807  0.2019  0.3462
22128W        W65119  22.938   4.106   5.965 -0.1136  0.0449 -0.0011
22129W        W65120  23.546  13.303   5.772 -0.0709  0.0256  0.1080
22130W        W65121   1.170  20.373  15.732  0.0163 -0.0500 -0.0644
22131W        W65122  31.089   0.937   5.250 -0.4538  0.2206 -0.1468
22132W        W65123  26.841  11.377  28.023 -0.0626 -0.1030 -0.2346
22133W        W65124  16.550   6.933   9.039  0.0664  0.1935  0.3755
22134W        W65125  25.553  11.279  28.914 -0.3343 -0.1680  0.1849
22135W        W65126  17.621  15.678   6.892 -0.1513 -0.0721 -0.0211
22136W        W65127  22.434  11.755   8.363 -0.1644  0.0615 -0.1546
22137W        W65128  30.030  16.425   3.322 -0.2122  0.3189  0.2756
22138W        W65129   3.900  20.937   7.361 -0.0314 -0.0551  0.3025
22139W        W65130  16.060   1.538   6.011 -0.0146 -0.5510  0.1424
22140W        W65131  26.002  25.041   5.802 -0.1113 -0.4691 -0.5415
22141W        W65132  21.951   8.149   2.844 -0.1681 -0.0594  0.0243
22142W        W65133  28.314  14.483   6.861 -0.0589 -0.0213 -0.0463
22143W        W65134  29.937  17.318  26.326 -0.0918  0.3562 -0.0412
22144W        W65135  27.254  16.230   3.163  0.0848 -0.0233 -0.0346
22145W        W65136  22.837  14.620   5.194  0.1575  0.0004  0.0612
22146W        W65137  21.377   1.448  28.198  0.1567 -0.1080  0.2121
22147W        W65138  20.704  33.992  28.010 -0.1159  0.0682  0.1405
22148W        W65139   1.683   7.645  28.581 -0.0543 -0.0390 -0.1235
22149W        W65140  30.864   4.079   8.628 -0.0365  0.0123 -0.1755
22150W        W65141  29.817   5.527   8.264 -0.0300  0.2971 -0.3871
22151W        W65142  11.234   1.325   6.374 -0.1195  0.4713  0.2537
22152W        W65143  27.382  10.107   4.590  0.3142  0.1477  0.3483
22153W        W65144   0.661   0.094   7.739  0.1110 -0.1366 -0.1600
22154W        W65145  29.969   4.992   9.326  0.0865 -0.1839 -0.1570
22155W        W65146  23.508  20.398   5.537 -0.2655 -0.1624 -0.0242
22156W        W65147  20.208  23.308   2.359  0.1942 -0.0567 -0.0708
22157W        W65148  17.420  19.501  26.170  0.0418  0.1289 -0.3648
22158W        W65149  29.306   4.328   2.592  0.1168  0.1396 -0.2053
22159W        W65150  17.360  19.331   4.921  0.4574 -0.3016  0.0766
22160W        W65151  12.472  19.215  28.490  0.0065 -0.0217 -0.0357
22161W        W65152   3.846  16.735  11.893 -0.0519  0.1276  0.1000
22162W        W65153  16.051   2.056   5.553  0.2737 -0.0786  0.1403
22163W        W65154  12.801   4.845  18.202 -0.3474  0.3097  0.0848
22164W        W65155  30.700  29.089   4.337 -0.2758 -0.0373  0.1323
22165W        W65156  18.012  19.391   5.435 -0.2121 -0.0075  0.4069
22166W        W65157  20.566   1.805   2.129  0.1264  0.2099  0.1028
22167W        W65158  19.459   3.468  26.001  0.0019 -0.4342 -0.2532
22168W        W65159  29.514   8.340   4.895  0.0402 -0.1832 -0.0799
22169W        W65160  18.927   2.501   6.209 -0.1601  0.1263  0.1724
22170W        W65161  30.147  20.496   2.567  0.3267  0.0726  0.0200
22171W        W65162  28.717   5.345   8.979  0.1756  0.3736  0.0417
22172W        W65163  19.894   3.029   7.051  0.0623  0.0254  0.2559
22173W        W65164  29.041   3.014   9.302 -0.0259  0.4372 -0.0744
22174W        W65165   1.157  13.644   5.613 -0.1106 -0.2147 -0.0010
22175W        W65166   3.165  22.261  28.123 -0.0636  0.0396 -0.0749
22176W        W65167  23.418  10.138  28.008  0.1416 -0.1807 -0.0297
22177W        W65168  20.239  34.511  15.944  0.2634  0.1436 -0.1006
22178W        W65169   6.217  13.503   3.676  0.1597  0.2429 -0.1782
22179W        W65170  12.498  11.322   1.008 -0.0275 -0.0569 -0.0362
22180W        W65171  20.970  34.477   6.772 -0.0748  0.0709 -0.3272
22181W        W65172  14.228  25.642   0.460 -0.1939 -0.0268 -0.1267
22182W        W65173  12.288   0.143  10.509 -0.0026 -0.0316  0.0871
22183W        W65174  19.224  11.857   6.452 -0.2411  0.3385  0.0287
22184W        W65175  25.542  15.719   3.760  0.0918 -0.0332  0.0776
22185W        W65176  33.175   6.667   9.592  0.5254 -0.0185 -0.2640
22186W        W65177  30.708  25.074   6.781  0.0556  0.0932 -0.1134
22187W        W65178  14.964  28.696   3.705 -0.0175 -0.2091 -0.0511
22188W        W65179  20.122  18.595   9.207  0.1542  0.0276  0.0003
22189W        W65180  31.549  12.799   9.496 -0.0905  0.1058 -0.1527
22190W        W65181  20.658   5.898   9.025 -0.1211 -0.5284 -0.0985
22191W        W65182   1.510  19.604   6.797 -0.0098  0.0536  0.1979
22192W        W65183   3.030  10.844  27.899 -0.4357 -0.3446 -0.2397
22193W        W65184  20.738  13.750   2.831 -0.0935  0.2552  0.1822
22194W        W65185  25.906  34.629   7.536  0.2823  0.2735 -0.2508
22195W        W65186  25.417   9.779   0.521 -0.5248 -0.0629  0.0788
22196W        W65187  16.180   0.166   9.890 -0.1357 -0.1195  0.2200
22197W        W65188  27.365  12.230  23.339 -0.1590  0.1091  0.1428
22198W        W65189  26.802  24.236  26.092  0.2956 -0.3148 -0.1368
22199W        W65190  10.606   7.319   6.811 -0.1918  0.0420 -0.0282
22200W        W65191  27.120  11.702   5.752  0.3632  0.4303 -0.3058
22201W        W65192  22.486  32.289   7.480  0.2311  0.2775 -0.0311
22202W        W65193   0.103  26.216   8.848 -0.0369  0.2666 -0.1633
22203W        W65194  10.067   9.112  28.759 -0.2824  0.0454  0.0557
22204W        W65195  30.608   3.368  19.132 -0.0868 -0.0139 -0.0962
22205W        W65196  16.538  24.972   0.928 -0.0881  0.2186 -0.0244
22206W        W65197  14.487   1.543  10.056 -0.1784 -0.4601  0.0585
22207W        W65198  23.992  28.574   0.533 -0.1284  0.1221  0.2471
22208W        W65199  14.711   3.871  10.524 -0.0014  0.4109 -0.3521
22209W        W65200  34.636   1.662   4.658  0.1802  0.1526  0.2539
22210W        W65201  21.705   4.439  17.321 -0.2766  0.2075 -0.3892
22211W        W65202  18.851  32.220   5.537  0.0995  0.2567  0.0470
22212W        W65203  10.600  31.680  25.557 -0.0342  0.3698 -0.1649
22213W        W65204  14.379   5.431   8.591 -0.0099 -0.2309 -0.0780
22214W        W65205  16.599  30.401   3.718 -0.0141 -0.4022  0.2067
22215W        W65206  22.569   4.742   7.363 -0.1101 -0.2995 -0.0064
22216W        W65207  19.474   8.668  25.851 -0.0055 -0.0730 -0.2109
22217W        W65208  18.000   1.676   5.783 -0.0172 -0.0906 -0.0990
22218W        W65209   2.851   2.075   8.436  0.0990  0.0953 -0.0576
22219W        W65210  13.041  24.579  16.013 -0.2782  0.2947  0.1582
22220W        W65211  32.922  14.054   0.014 -0.2924  0.0507 -0.1018
22221W        W65212  20.301   5.082  24.210  0.1027 -0.1849 -0.0781
22222W        W65213  20.296  13.876  24.362 -0.2035 -0.0187 -0.0078
22223W        W65214  20.186  26.394   1.566 -0.0046 -0.1159  0.2577
22224W        W65215  30.889  26.697   9.154 -0.3042  0.0000 -0.1349
22225W        W65216  32.657   9.872   8.788  0.0636 -0.0715  0.1679
22226W        W65217  17.501  22.019   3.693  0.4754  0.1424  0.0186
22227W        W65218  23.445   9.430  18.727 -0.0585  0.2564  0.1181
22228W        W65219   3.745   9.711   5.430  0.0028 -0.0271  0.3298
22229W        W65220  22.528   7.301   1.963 -0.0523  0.1041 -0.2118
22230W        W65221  13.610   4.339  26.645  0.1103  0.0456 -0.0310
22231W        W65222  20.926  11.183   0.925  0.1963 -0.1528  0.0313
22232W        W65223   8.145   8.372  15.969  0.0131  0.0527 -0.2326
22233W        W65224   1.436  16.339   0.797 -0.0000 -0.0143 -0.0963
22234W        W65225  15.898  28.967  19.948  0.0750 -0.1846  0.0211
22235W        W65226  31.228  30.600   3.588  0.1531  0.1548 -0.1542
22236W        W65227  18.368  15.878   3.739  0.1101  0.1521 -0.3989
22237W        W65228  26.303  16.676  18.212 -0.0827 -0.0035 -0.1422
22238W        W65229  21.983  13.627   1.925 -0.0122  0.0311 -0.2076
22239W        W65230   1.572  34.763  28.001  0.1175  0.3304 -0.0604
22240W        W65231  19.462  14.036   0.692 -0.1901 -0.3345  0.2024
22241W        W65232  26.498   8.218  20.666  0.2191 -0.0465 -0.1026
22242W        W65233  28.215  33.116   7.646  0.1890  0.1614 -0.0378
22243W        W65234  22.625   0.357   9.421  0.0525  0.0835  0.1376
22244W        W65235  20.540  14.528  26.436  0.0932 -0.0228  0.1487
22245W        W65236  26.295   4.389   1.851 -0.1307  0.3121 -0.0010
22246W        W65237   2.543  20.025  10.085  0.1855 -0.2245 -0.0797
22247W        W65238  24.226   9.575   4.401  0.1201 -0.5125 -0.1643
22248W        W65239  13.986  11.653   7.136  0.0274 -0.0555 -0.1344
22249W        W65240  29.792  24.971  17.784 -0.2294 -0.1080  0.0341
22250W        W65241  21.373   3.977  21.340  0.1538 -0.2151  0.1047
22251W        W65242  22.907  16.910  22.182  0.1198 -0.2840 -0.0983
22252W        W65243  26.460   4.405   3.562  0.0444 -0.1632 -0.1409
22253W        W65244   4.562  13.456  25.609  0.2945  0.4704  0.0972
22254W        W65245  14.217  13.248   2.909  0.0808  0.4000  0.0855
22255W        W65246  10.159  16.487  23.468 -0.0675  0.5955  0.3887
22256W        W65247  26.544   4.090   0.425  0.3807 -0.1529 -0.3049
22257W        W65248  28.797  17.385   3.779 -0.3219  0.1745 -0.0562
22258W        W65249  20.784   9.948   5.348  0.1243 -0.0413 -0.1032
22259W        W65250  30.703  18.619   8.859  0.1224  0.0990  0.0801
22260W        W65251  18.246  10.944  25.479 -0.0696  0.0845  0.2166
22261W        W65252  23.164  19.105   5.063 -0.1427  0.2637  0.2106
22262W        W65253   3.334   4.239  26.385 -0.2790  0.1373 -0.2563
22263W        W65254  26.263   9.457   1.577 -0.0667 -0.0060  0.1714
22264W        W65255  28.982   9.254   4.563  0.0348  0.0295 -0.2116
22265W        W65256  13.705  12.375   0.073 -0.0605  0.1256 -0.1482
22266W        W65257  20.213  10.952   4.056 -0.0993  0.1923  0.1067
22267W        W65258   8.661   9.589   2.228 -0.0094  0.1545 -0.2679
22268W        W65259  17.871  27.619   5.576 -0.4291  0.2038  0.0773
22269W        W65260  23.977  34.690   8.793  0.2507  0.0450 -0.4197
22270W        W65261  18.469   6.979   4.520  0.0937  0.1449  0.0440
22271W        W65262  20.537  13.620  27.792  0.4189 -0.0695  0.1637
22272W        W65263  16.778  16.891  28.679  0.1647 -0.0120 -0.0760
22273W        W65264  18.707  15.867   1.428  0.1340  0.0024  0.0243
22274W        W65265   5.641  23.275   6.930 -0.0010  0.1312  0.1342
22275W        W65266  10.274  26.808   2.397  0.1238  0.2008 -0.2363
22276W        W65267  22.582   8.968   8.818  0.0651 -0.0102  0.1246
22277W        W65268  31.894   1.131  25.635 -0.0313  0.2302 -0.1125
22278W        W65269  28.375  27.935   1.038  0.3052 -0.3880 -0.2194
22279W        W65270  21.654  10.663   9.088 -0.3322 -0.1111 -0.1823
22280W        W65271  21.726  30.763   5.273  0.0397  0.0242 -0.0502
22281W        W65272  33.666  22.268   4.313  0.3625 -0.0328  0.0566
22282W        W65273  24.670  20.153   5.324  0.2531 -0.1949  0.0405
22283W        W65274  29.278  15.048   1.481 -0.0568  0.1057 -0.1367
22284W        W65275  28.452   6.957   4.571  0.1341  0.2776 -0.2537
22285W        W65276  22.012   7.045   6.359  0.1598 -0.1575  0.1633
22286W        W65277  31.111   4.805   5.290  0.0092 -0.0058  0.0578
22287W        W65278  20.801  14.857  23.656  0.1691 -0.1933 -0.1929
22288W        W65279  15.677  13.787   0.536 -0.0203  0.0526 -0.0711
22289W        W65280  28.364  21.044  20.470  0.0111 -0.2185 -0.1847
22290W        W65281  14.985   5.614  16.862  0.2743 -0.3330 -0.3532
22291W        W65282  33.234  27.716   5.902 -0.1034  0.0703 -0.0870
22292W        W65283   3.062  10.267  28.820  0.1248 -0.1479  0.0174
22293W        W65284  34.311  12.317   7.796  0.1407  0.1335 -0.1694
22294W        W65285  18.887   9.928   7.936  0.1117 -0.3728 -0.2008
22295W        W65286  16.578  15.321   9.119  0.0017 -0.1582  0.2571
22296W        W65287  18.421  15.197  14.917  0.0367  0.5850 -0.5746
22297W        W65288  32.071   1.413   6.237 -0.0963  0.1264  0.0005
22298W        W65289  22.927  10.533   4.188 -0.0826 -0.2210  0.5115
22299W        W65290   7.167  12.566  22.049  0.0354 -0.3449  0.3039
22300W        W65291  23.209  29.491   1.780  0.2444  0.1654  0.1900
22301W        W65292  25.827  31.884  26.604  0.0406 -0.1149  0.3632
22302W        W65293  12.438  24.016   6.579  0.1768 -0.0892  0.0961
22303W        W65294  23.588  16.877   9.061 -0.1032 -0.0908 -0.2218
22304W        W65295  19.308  12.346  20.595  0.0479  0.0294  0.0320
22305W        W65296  21.042   4.999   8.228  0.0113  0.1584 -0.3946
22306W        W65297  22.626  20.258  25.840 -0.0532 -0.0919 -0.4179
22307W        W65298  27.242  26.270   0.132  0.3197 -0.0691 -0.0554
22308W        W65299  33.106  12.286   7.678  0.0267 -0.2851  0.1638
22309W        W65300  21.174  18.459   5.882 -0.0052  0.3040  0.0882
22310W        W65301  22.880  17.701   7.850 -0.0593 -0.0434  0.1294
22311W        W65302  21.598  14.029   6.600  0.1888  0.1000 -0.0364
22312W        W65303  22.551   4.794   5.386  0.1765 -0.0871  0.1997
22313W        W65304  24.161  10.770  28.470 -0.0615  0.0490  0.0399
22314W        W65305  14.603  11.897  25.225 -0.1748  0.0389 -0.4432
22315W        W65306  10.706  24.608  10.370  0.3873  0.2387 -0.1820
22316W        W65307  15.639  14.219   5.188  0.0056 -0.1791 -0.2230
22317W        W65308  23.166   0.087   0.789 -0.0456 -0.1922 -0.1822
22318W        W65309  28.043  22.372   8.897  0.3250  0.1074 -0.0278
22319W        W65310  13.332  18.995  20.540  0.0186  0.1607 -0.0003
22320W        W65311  18.171   2.703  28.580  0.2383  0.1719 -0.0925
22321W        W65312  13.895  26.542  28.741  0.3600  0.0391 -0.0750
22322W        W65313  29.716  17.374   7.091  0.3974 -0.0325  0.1693
22323W        W65314   2.576   9.558   2.854 -0.0063 -0.0906 -0.0433
22324W        W65315  28.651  30.142  28.468  0.1461  0.0594  0.0060
22325W        W65316  13.063  33.190   1.648 -0.0518 -0.0860  0.0153
22326W        W65317  30.724  20.443  21.259 -0.3492 -0.1961 -0.0763
22327W        W65318  17.490  22.996   8.298  0.2110  0.0268 -0.2385
22328W        W65319  21.667   0.837  27.486 -0.3748  0.2050 -0.1395
22329W        W65320  28.513   1.362   8.031 -0.0846  0.1449 -0.1818
22330W        W65321  31.898  10.301   3.093 -0.0930 -0.0960  0.0215
22331W        W65322  21.514   4.526   7.523  0.3974 -0.0243 -0.0307
22332W        W65323  26.927  13.894  26.771  0.2736  0.2537 -0.2134
22333W        W65324  22.939  29.426  24.409 -0.3045 -0.0642  0.0748
22334W        W65325  32.228   6.280   6.508  0.0373  0.3166 -0.0889
22335W        W65326  26.413  11.810  23.088 -0.5439  0.2007 -0.1271
22336W        W65327  25.480   8.162   0.421 -0.2528  0.0313 -0.0999
22337W        W65328  16.046  34.043   6.582 -0.2853  0.2153 -0.1506
22338W        W65329  14.389  28.065   4.349 -0.2099  0.2442  0.1188
22339W        W65330  26.989  12.130  28.418  0.1048 -0.1705 -0.0427
22340W        W65331   6.883  19.364   8.501 -0.0774  0.1846  0.1132
22341W        W65332  13.742  27.001   8.100 -0.1399  0.3331 -0.1329
22342W        W65333  29.790  13.355   3.025  0.0738 -0.0575  0.1341
22343W        W65334  28.197  23.544   2.955 -0.0340 -0.1925 -0.2019
22344W        W65335  14.283  18.843   3.895  0.1574 -0.0649  0.6075
22345W        W65336  20.247  28.724   8.847 -0.0535  0.1355 -0.1477
22346W        W65337  17.453  31.914   4.361 -0.1694 -0.0539 -0.2492
22347W        W65338  30.796  12.335   5.364  0.0191  0.0522  0.1554
22348W        W65339  26.708  20.787   3.158 -0.1719 -0.0182  0.0016
22349W        W65340  17.862   7.480   4.772  0.0360  0.0011  0.3180
22350W        W65341  27.069  33.964   0.673  0.1616 -0.1713  0.1019
22351W        W65342   7.305   8.390  25.684 -0.0216  0.0247 -0.3100
22352W        W65343  25.037   9.011   6.681  0.3257  0.0189 -0.4064
22353W        W65344   7.370  16.861  10.445  0.1563  0.2316 -0.0105
22354W        W65345   9.062   1.862   3.769 -0.0792 -0.2315  0.2525
22355W        W65346  29.078   2.394  24.313 -0.0077  0.3568  0.2025
22356W        W65347  27.813  25.721   8.392  0.1018 -0.1318  0.0642
22357W        W65348  28.697  14.601  25.952  0.1065 -0.2273  0.1119
22358W        W65349  20.487   8.032  28.360 -0.2082 -0.2568 -0.1840
22359W        W65350  33.548  17.743   1.466 -0.0059 -0.0912  0.1969
22360W        W65351   5.167  15.352   2.217  0.0939  0.0284  0.0512
22361W        W65352  31.071   5.617   5.080 -0.0128  0.1898  0.0290
22362W        W65353  17.236  11.288   8.738  0.1279 -0.1865 -0.0996
22363W        W65354  21.752  30.207   0.329  0.1158 -0.3905 -0.2690
22364W        W65355  23.811  33.261   1.494  0.0449  0.1289 -0.0537
22365W        W65356  16.810  29.648   1.769 -0.2681 -0.0999 -0.2369
22366W        W65357   8.791  12.915  24.942 -0.0531 -0.0701  0.1468
22367W        W65358  24.038  10.719  27.628 -0.1429  0.3220  0.0233
22368W        W65359  15.083  21.450  24.781  0.1487 -0.0394 -0.1614
22369W        W65360  30.117   0.581   6.999  0.0515  0.1125 -0.2092
22370W        W65361  20.230   6.586  24.616 -0.1263 -0.1324  0.0499
22371W        W65362  18.378   4.826  24.341  0.0869  0.2641  0.2858
22372W        W65363   8.892   5.200  10.632 -0.1969 -0.0776  0.0427
22373W        W65364  19.956  12.700   9.609 -0.0817 -0.0998  0.1030
22374W        W65365  30.965   8.731   8.500 -0.0169 -0.0347  0.1519
22375W        W65366  28.941  27.753  25.614 -0.0840 -0.1920 -0.0453
22376W        W65367  28.097  34.553   8.456  0.0496  0.1414 -0.2142
22377W        W65368   9.225   6.067   3.334 -0.1958 -0.1511  0.1467
22378W        W65369   0.333  18.794  22.033 -0.3071 -0.0123 -0.1777
22379W        W65370  16.761   2.084   3.779 -0.0691  0.0817 -0.2006
22380W        W65371  27.880  10.146   4.594 -0.3693  0.0659 -0.2123
22381W        W65372  32.866  20.567   8.745 -0.0409  0.0109  0.0232
22382W        W65373  33.990  12.924   2.033  0.2928 -0.0006  0.3109
22383W        W65374   2.530  13.271   7.141 -0.1178  0.2882  0.0266
22384W        W65375  18.953   8.047  19.627 -0.0100 -0.1406  0.0003
22385W        W65376   8.663  16.871   5.312  0.0677 -0.2719 -0.0963
22386W        W65377  32.528  11.297   3.601  0.2435 -0.1880 -0.3952
22387W        W65378  23.212  23.028   5.705 -0.2396  0.1445 -0.0557
22388W        W65379  25.187  20.556   1.548  0.0602 -0.1151  0.2599
22389W        W65380   3.871   2.593  26.796  0.0754 -0.0095  0.1037
22390W        W65381  23.768  11.240   2.619  0.1458 -0.2251  0.2555
22391W        W65382   2.975  21.847   4.585 -0.0545 -0.1623 -0.0535
22392W        W65383  34.790  13.184   6.031  0.2490  0.2251 -0.1030
22393W        W65384   1.809  15.609  20.993 -0.0175 -0.0656 -0.0917
22394W        W65385  30.842   9.983  27.168  0.1224 -0.0278 -0.1713
22395W        W65386  29.989  15.507   7.602  0.0658  0.0597  0.1043
22396W        W65387  25.398  16.619   7.073 -0.2944 -0.0513 -0.0471
22397W        W65388  32.168  11.853  29.070 -0.0872 -0.0660  0.1626
22398W        W65389  26.082  33.005   4.886 -0.0985  0.0032  0.2024
22399W        W65390   5.245   2.295   2.170 -0.1417 -0.2148 -0.0277
22400W        W65391   7.893   2.565   9.489  0.1387 -0.0032 -0.0823
22401W        W65392  32.675   4.438   2.592  0.1855 -0.0633  0.0383
22402W        W65393  18.352  32.440   6.694  0.1897  0.1255 -0.0210
22403W        W65394  28.423  11.138   7.971  0.0831 -0.3963 -0.2167
22404W        W65395  25.292   2.903  27.078 -0.0035  0.1349 -0.6008
22405W        W65396  11.767  15.418   8.532  0.1108  0.2361 -0.0230
22406W        W65397  24.259  27.321   3.100  0.0846 -0.1722  0.1264
22407W        W65398  13.714  19.612  28.140  0.1673  0.0627  0.0910
22408W        W65399  23.751  11.919  26.113 -0.0497  0.0866 -0.0231
22409W        W65400   7.815  22.305   7.712 -0.1523  0.0078 -0.0780
22410W        W65401  25.663  27.265  25.169 -0.2789 -0.0612  0.0387
22411W        W65402  16.972   7.910  22.043  0.1287  0.0892  0.2666
22412W        W65403   8.381  20.268   2.724 -0.1837  0.0435 -0.0487
22413W        W65404  22.023   3.765   0.084  0.0447  0.1310  0.3587
22414W        W65405  24.940  23.620  22.933 -0.3774 -0.1369 -0.1693
22415W        W65406   7.783   6.477   8.289  0.1056 -0.2598 -0.1227
22416W        W65407   2.685  10.106  15.620 -0.3696 -0.2439  0.1539
22417W        W65408   4.341  12.519  27.050  0.0156 -0.2144  0.2795
22418W        W65409   4.300  10.620   4.143 -0.1942  0.2701 -0.0493
22419W        W65410   2.369   1.217   0.367 -0.0165 -0.1936  0.0267
22420W        W65411  27.315  16.663   2.837 -0.2527 -0.0095  0.0375
22421W        W65412  12.238  12.044   6.011 -0.0843  0.0502  0.0461
22422W        W65413  27.097  13.204   1.580  0.0115 -0.2545 -0.1443
22423W        W65414   1.605  12.416   8.601  0.1973 -0.0506  0.2557
22424W        W65415  24.744   5.055  26.186 -0.3587  0.0559 -0.1951
22425W        W65416  29.177  16.657  15.560 -0.1951  0.1117  0.1702
22426W        W65417  22.619  19.062   3.105 -0.1593  0.2411  0.0337
22427W        W65418  25.585  14.176  22.425  0.5389  0.1079 -0.0671
22428W        W65419   6.971  31.278  20.218  0.0796 -0.1083 -0.2542
22429W        W65420  27.595  26.461   7.898 -0.3799  0.0432 -0.0964
22430W        W65421  22.876   1.738   1.882  0.2195  0.4394  0.1955
22431W        W65422  25.014  28.962   0.399  0.0997  0.2594  0.4285
22432W        W65423  25.901  24.807  26.126  0.0729 -0.1992  0.1925
22433W        W65424  32.891  27.801   0.459 -0.0311  0.0164  0.0506
22434W        W65425  33.727  16.317   7.610  0.2807  0.0262  0.1494
22435W        W65426  22.739  26.700   4.357 -0.2037  0.3269  0.0963
22436W        W65427  18.701  16.402  29.234  0.3406 -0.1290 -0.2441
22437W        W65428   8.516  12.234   4.813  0.0005 -0.1573 -0.0898
22438W        W65429   4.923  15.929   5.826  0.0036  0.3461  0.2446
22439W        W65430  17.782  30.974   2.943  0.1837 -0.0088 -0.4026
22440W        W65431   5.594  11.877  26.344 -0.3790 -0.3066  0.0035
22441W        W65432  17.386  22.745  28.091 -0.2319  0.0875 -0.0281
22442W        W65433  30.959   0.940   8.218 -0.1041  0.3744 -0.1002
22443W        W65434   1.121  11.959  25.494  0.2791  0.0459 -0.0549
22444W        W65435   2.349   0.289  27.580  0.0030  0.0147 -0.1352
22445W        W65436  21.860   8.114  24.060 -0.0947  0.0665 -0.0744
22446W        W65437  28.370  18.920  18.417  0.3642  0.2448 -0.0453
22447W        W65438  22.854  12.720   1.534  0.1938  0.3586 -0.2313
22448W        W65439   3.136  17.784  27.870  0.2158 -0.0183  0.1640
22449W        W65440  12.261   4.538   6.443  0.1114 -0.3234  0.0920
22450W        W65441  28.646   3.384   4.004  0.3089  0.0492 -0.3652
22451W        W65442   1.308  12.723   1.082  0.2872 -0.1590 -0.1564
22452W        W65443  23.046  22.156  25.704 -0.3946 -0.0794 -0.0871
22453W        W65444  18.504  10.545   1.236 -0.1608  0.2269 -0.3458
22454W        W65445  21.858  14.499  21.793 -0.0778  0.4037  0.1002
22455W        W65446  10.314   0.068   7.912  0.1127 -0.1985  0.0629
22456W        W65447  24.767  18.348   9.347  0.2353  0.0898 -0.1986
22457W        W65448  30.940  20.626  19.993  0.0454 -0.2417 -0.3968
22458W        W65449   8.176   4.862  26.417  0.2129 -0.2356 -0.2149
22459W        W65450   8.760  15.169   1.065 -0.1372  0.2906 -0.0609
22460W        W65451  15.776   2.058  29.258 -0.2337 -0.0177 -0.1129
22461W        W65452  26.111  19.608  28.985 -0.2161  0.0931  0.0085
22462W        W65453  30.676   1.100  27.810 -0.0539 -0.0055 -0.1108
22463W        W65454   5.887  21.808   5.470 -0.0299  0.0423 -0.1424
22464W        W65455  10.754   9.605   2.376  0.0183 -0.1548 -0.2567
22465W        W65456  29.566  34.307   1.547  0.0562 -0.0227 -0.0543
22466W        W65457  18.450   7.409   5.361 -0.2718 -0.1188  0.1618
22467W        W65458  19.455  16.707   7.893 -0.0223 -0.2309 -0.3661
22468W        W65459  10.368  14.380  19.265  0.0097 -0.3162 -0.3355
22469W        W65460  34.111  23.911  18.782  0.0480 -0.1744  0.0439
22470W        W65461  18.437  22.131   7.526  0.0054 -0.0040  0.1264
22471W        W65462  14.176  19.683   2.435  0.0842 -0.1404 -0.1300
22472W        W65463   4.686  12.444   5.035 -0.0137 -0.1505 -0.0867
22473W        W65464  26.119  10.273   6.200 -0.1258  0.2465  0.1131
22474W        W65465  12.167  13.486   2.076  0.2326 -0.2321 -0.1169
22475W        W65466   3.524   7.838  10.594  0.1475 -0.0386  0.1354
22476W        W65467  21.457  23.044   1.756  0.1530  0.1079 -0.1545
22477W        W65468  21.369  10.188  21.331 -0.2144  0.2358 -0.3064
22478W        W65469  33.402  27.889   8.498 -0.1849  0.1114  0.1165
22479W        W65470   7.105  21.176  22.755  0.2415 -0.0204  0.0495
22480W        W65471   4.120  15.177   7.062 -0.2492 -0.0914  0.2518
22481W        W65472  12.480  15.555   5.678 -0.2341  0.1857 -0.1249
22482W        W65473   0.211  22.007  22.194 -0.1818  0.1647 -0.0534
22483W        W65474  34.416   9.222   4.795 -0.1062  0.0678 -0.3139
22484W        W65475  27.831  19.485  16.688 -0.1370  0.3030  0.0409
22485W        W65476  23.814  19.435  28.961  0.1122  0.0628  0.2725
22486W        W65477   7.432  32.766  26.019 -0.1845 -0.0993 -0.0820
22487W        W65478  27.778  14.220  16.166  0.0233 -0.2278  0.2137
22488W        W65479  31.362   5.462   4.671  0.2027 -0.0412 -0.1400
22489W        W65480  17.940  30.098   1.145  0.1898  0.0071  0.0494
22490W        W65481  23.790  31.466  20.652  0.3033 -0.3023  0.1786
22491W        W65482  25.421   0.189  25.503 -0.2511 -0.1068  0.0375
22492W        W65483  29.714  28.025  21.506 -0.0422  0.2347 -0.0617
22493W        W65484  17.038  21.072   0.036  0.2690  0.2155 -0.1009
22494W        W65485  15.758  30.699  27.082 -0.1312  0.1654  0.3319
22495W        W65486  15.609  33.771   4.281 -0.0470  0.0466 -0.0182
22496W        W65487  27.789  24.666   7.135 -0.0065 -0.1934  0.2911
22497W        W65488  16.337   6.056  23.464 -0.2028 -0.5553 -0.1762
22498W        W65489  23.447  14.121  25.464 -0.1723 -0.2013 -0.0071
22499W        W65490  33.613  14.052  28.180  0.2821 -0.0850 -0.0449
22500W        W65491  15.438   4.683   4.472 -0.3450  0.1165  0.2093
22501W        W65492   4.998  31.578  25.001 -0.2825  0.0081 -0.1021
22502W        W65493  29.554   8.747   7.966 -0.0971 -0.0428  0.0790
22503W        W65494  28.833  12.197  10.768  0.0749 -0.3138  0.0134
22504W        W65495  19.588  20.719  24.458  0.1665 -0.0082  0.2298
22505W        W65496  24.811  11.040   0.164 -0.1411  0.1560  0.0921
22506W        W65497  11.072  22.146   5.938  0.0642  0.2569 -0.3138
22507W        W65498  15.133  13.595   7.867  0.0973  0.1101 -0.1765
22508W        W65499  18.315  19.833   3.896  0.0882 -0.1013 -0.1722
22509W        W65500   1.063  12.069  11.034 -0.1615  0.0440 -0.0009
22510W        W65501  33.678   9.753  16.634  0.3010  0.2573 -0.0423
22511W        W65502  21.119   2.185  18.639  0.2170 -0.3369 -0.0468
22512W        W65503   5.629  15.101   4.797  0.1189 -0.0578 -0.2380
22513W        W65504  18.082  12.809  14.672 -0.2382 -0.0449 -0.0563
22514W        W65505  19.066  20.702  22.547 -0.0443 -0.0741  0.0041
22515W        W65506  32.456   4.575   4.398 -0.2227  0.0486  0.1250
22516W        W65507  21.088  34.731  10.003 -0.0617  0.0043 -0.1905
22517W        W65508   3.647  15.508  27.025  0.1768  0.0397 -0.1949
22518W        W65509  33.500  17.614   0.854  0.0730 -0.0098  0.0807
22519W        W65510  12.396   5.280  26.502  0.2166  0.1154 -0.0203
22520W        W65511  11.033  11.879  16.704  0.0575  0.1986  0.4822
22521W        W65512  22.680   8.919  10.259 -0.0748 -0.2660 -0.2505
22522W        W65513  25.655   5.396   4.634 -0.0568  0.2370 -0.3163
22523W        W65514  22.855   9.073  19.977 -0.1821 -0.1297  0.0378
22524W        W65515  17.745   8.278   4.271 -0.0731 -0.3411  0.0238
22525W        W65516  20.343  18.363  24.931 -0.1950 -0.1419  0.4650
22526W        W65517  29.221   8.040  29.238  0.0691  0.2100  0.0572
22527W        W65518  13.390   2.058   4.410  0.3535  0.2910 -0.0615
22528W        W65519   6.986  28.233  22.477 -0.0045 -0.3166  0.2774
22529W        W65520  26.085   4.788  21.823  0.1410 -0.0784 -0.1479
22530W        W65521  29.328  19.593  26.492  0.0622  0.0197  0.1196
22531W        W65522  34.555  32.580  23.564  0.0458 -0.0825  0.0278
22532W        W65523  26.275  32.061   7.204 -0.1322 -0.0496 -0.4847
22533W        W65524  26.676  22.629  13.875 -0.1105  0.1368  0.1288
22534W        W65525  17.231  17.792   4.876 -0.3080  0.2568 -0.0949
22535W        W65526   2.691  14.615   5.277 -0.0647  0.0045  0.2296
22536W        W65527  34.214  14.889  11.506 -0.0648 -0.1080  0.2465
22537W        W65528  28.942   7.290  20.748 -0.1434  0.0882  0.0541
22538W        W65529  14.917  15.726   2.848  0.0022  0.1301 -0.2038
22539W        W65530  24.975  17.417  24.996 -0.3614  0.0720 -0.0181
22540W        W65531  18.109   3.971   4.914  0.0730 -0.2774  0.2320
22541W        W65532  14.280  13.672  26.182  0.1116  0.0032  0.0989
22542W        W65533  27.075  32.870   4.810  0.1665 -0.3065  0.3258
22543W        W65534   9.630  24.813   8.083  0.0848  0.2912 -0.1054
22544W        W65535  20.394  11.235  22.386  0.2011 -0.0643  0.2038
22545W        W65536  24.513  13.200  13.938 -0.0461 -0.1067 -0.0794
22546W        W65537  23.350  18.223  21.438  0.2940  0.4932  0.2328
22547W        W65538  16.211  29.103  19.418  0.0021 -0.2025  0.0485
22548W        W65539  34.767  24.375  16.412  0.0671  0.4500  0.0768
22549W        W65540   7.924   8.156  28.391 -0.1240  0.0661  0.0252
22550W        W65541  32.108  28.208   1.800 -0.0782  0.1405 -0.3989
22551W        W65542  11.056  28.656  28.332  0.0160 -0.0866  0.2000
22552W        W65543  27.600   4.549  21.747 -0.0608 -0.1334  0.0468
22553W        W65544   4.165   8.750  28.653  0.1441  0.1919  0.1555
22554W        W65545  25.074  15.252  26.496 -0.0892 -0.0741 -0.1674
22555W        W65546  20.376   9.166   4.394  0.1571 -0.4076 -0.1055
22556W        W65547   0.721  14.062  21.748 -0.1146  0.0210 -0.1276
22557W        W65548  21.379  20.251  28.523  0.0273 -0.1600 -0.1518
22558W        W65549  14.655  10.629  22.209  0.0936 -0.1070  0.3922
22559W        W65550  26.605  18.534   6.620 -0.0282 -0.0204  0.2169
22560W        W65551  32.886   7.472   8.346 -0.2454  0.0915 -0.1310
22561W        W65552  13.041  24.383  28.611 -0.1565  0.0495 -0.1071
22562W        W65553  16.392  13.323   0.563  0.2302  0.1678  0.0067
22563W        W65554  19.254  21.489  17.964 -0.1543 -0.0881  0.2681
22564W        W65555   0.228   4.707  26.411  0.0503  0.0802 -0.0500
22565W        W65556   1.900  10.616  17.912  0.0504  0.0964  0.1984
22566W        W65557  16.754  22.184  27.922 -0.1542 -0.1637 -0.2856
22567W        W65558  25.362  18.753   0.303 -0.1089 -0.1145  0.1459
22568W        W65559  12.726  31.181  23.771  0.4505  0.3507  0.2683
22569W        W65560  29.579  22.642   4.065 -0.1774 -0.0490 -0.1042
22570W        W65561   2.631  18.480  28.110  0.2129 -0.1610  0.2017
22571W        W65562   8.819  31.363   7.873 -0.0394 -0.0285  0.1948
22572W        W65563  30.503   2.160   9.068 -0.2766 -0.3951 -0.0408
22573W        W65564  26.910   5.347   2.557 -0.2436  0.0447  0.2096
22574W        W65565  17.158  10.957   9.269  0.2681  0.2269  0.0676
22575W        W65566  32.387  20.604  14.850 -0.0037 -0.0006  0.0593
22576W        W65567  26.743  20.226   7.630 -0.0252  0.1853 -0.0730
22577W        W65568   4.394   6.581  25.627 -0.5919 -0.1182 -0.0761
22578W        W65569  13.183   6.739  20.702  0.2731  0.0468  0.0879
22579W        W65570  14.003   4.920  28.451  0.1558  0.1395  0.1921
22580W        W65571   9.600  24.517   9.569 -0.3480  0.0860  0.0561
22581W        W65572  10.995   3.563  25.169  0.0029  0.0580 -0.1949
22582W        W65573  12.830  12.341  27.059  0.0311  0.0549 -0.2718
22583W        W65574  27.421  18.380  28.242  0.0106 -0.2234 -0.0074
22584W        W65575   9.817  14.827  28.688  0.0411 -0.1609  0.0316
22585W        W65576  13.900  23.045  28.233  0.1180 -0.2349  0.1960
22586W        W65577  27.660  22.430   1.420 -0.2067  0.3767  0.4314
22587W        W65578   2.742  19.457  23.265 -0.1822  0.2156 -0.3651
22588W        W65579  30.233  15.253   1.639 -0.0850 -0.1618  0.0812
22589W        W65580  11.132  27.593   1.281  0.0216 -0.1783  0.2363
22590W        W65581  10.819   9.637   7.327 -0.1041 -0.1259 -0.2225
22591W        W65582  22.903  21.024   0.561  0.0655  0.1076 -0.1865
22592W        W65583  23.096  21.121  20.705  0.0460  0.2363  0.3446
22593W        W65584  28.036  20.571   8.841 -0.0325 -0.2711 -0.2993
22594W        W65585   0.370   3.616   6.485 -0.0159 -0.1835 -0.1990
22595W        W65586  27.632   6.920  28.679 -0.4088  0.1299 -0.0040
22596W        W65587  23.609   8.899  10.006 -0.1311  0.1084 -0.0086
22597W        W65588  10.015   6.802  19.534 -0.0158 -0.0018 -0.1038
22598W        W65589  17.651   4.364  20.455  0.2037  0.0545  0.1425
22599W        W65590  28.879   8.971  28.336 -0.1393  0.0099  0.0643
22600W        W65591  31.795  34.520   8.740  0.2412  0.2911 -0.1246
22601W        W65592   7.806   5.190  27.550 -0.1159  0.1088  0.0473
22602W        W65593  18.547   4.224  26.652  0.0175 -0.1412 -0.1600
22603W        W65594  22.594  29.694   1.036  0.1963 -0.2628  0.1124
22604W        W65595  28.707   4.740   9.677 -0.2093 -0.0062  0.1572
22605W        W65596  27.852  12.064   7.623  0.1848  0.3040 -0.4765
22606W        W65597  31.247  24.170  23.843 -0.0756 -0.0505 -0.1532
22607W        W65598  21.191   5.847   7.871  0.1579  0.1014  0.0146
22608W        W65599  23.989  34.675  22.989  0.2277 -0.1153  0.0011
22609W        W65600  11.202  26.974   8.131 -0.0212  0.2260 -0.0556
22610W        W65601   1.743   8.012  24.560 -0.0681  0.3039 -0.1240
22611W        W65602  21.160   0.120   7.686 -0.0897 -0.2125  0.1004
22612W        W65603  20.923  11.335   3.345 -0.0246  0.1004 -0.0295
22613W        W65604  29.046  14.285  19.927  0.2029 -0.0076 -0.2066
22614W        W65605  19.965  20.750  17.193 -0.2496  0.1274 -0.2996
22615W        W65606  28.825   3.835   7.189  0.2755  0.0969 -0.0627
22616W        W65607   9.268  23.462   1.565 -0.1636 -0.2222  0.0827
22617W        W65608  14.720  23.831  23.825 -0.2942  0.1630 -0.0209
22618W        W65609  32.384  14.778  10.818 -0.2541 -0.1325  0.0895
22619W        W65610  14.086  23.178  25.436  0.0152  0.0653 -0.1968
22620W        W65611   0.078  20.452  28.660  0.3070  0.3218  0.0272
22621W        W65612  27.684  21.610  24.473  0.0344  0.3616  0.1584
22622W        W65613  31.368  22.477  25.507 -0.0768  0.0509  0.2571
22623W        W65614  30.459  31.569   7.416 -0.0771 -0.0561  0.0833
22624W        W65615   4.989  33.953  24.432  0.0769 -0.0990 -0.1859
22625W        W65616  18.109  11.051  28.733  0.4150 -0.0002  0.2859
22626W        W65617  30.138  24.833  26.088 -0.1353 -0.1344  0.3160
22627W        W65618  17.450  11.434   0.836 -0.3266 -0.3056 -0.0237
22628W        W65619  25.134  31.409  27.629 -0.0728 -0.1020  0.0914
22629W        W65620  19.576  12.990  29.052 -0.0509 -0.0282 -0.0347
22630W        W65621   7.057  10.228   2.676 -0.1645 -0.1022 -0.1334
22631W        W65622  30.436  29.138  27.992  0.2229  0.0250  0.3291
22632W        W65623   8.885  10.653  26.717  0.0471  0.0488  0.1089
22633W        W65624  27.366  12.047   2.859  0.0680 -0.3125 -0.1524
22634W        W65625   1.196  10.104   9.020 -0.1746 -0.1860  0.1110
22635W        W65626  20.499   9.368   8.176 -0.0899  0.1754  0.1135
22636W        W65627  28.614   0.675   5.386  0.1018  0.1020  0.0773
22637W        W65628  16.153   4.473  25.020  0.0070  0.0701  0.2425
22638W        W65629  26.883   9.605   7.158  0.0809 -0.1569 -0.0042
22639W        W65630   4.205  20.265   1.304 -0.0379 -0.0418 -0.0882
22640W        W65631  19.064  17.757  28.185 -0.3012  0.3150 -0.4064
22641W        W65632  30.713  16.489   8.344  0.0333  0.0804  0.1410
22642W        W65633  17.818   7.887   5.716 -0.0797  0.2630 -0.0058
22643W        W65634  22.356  13.001   6.067 -0.1586  0.0917 -0.0933
22644W        W65635  20.593   8.342   1.885 -0.0183 -0.0032 -0.0202
22645W        W65636  33.821   9.210  10.468  0.0222  0.0925 -0.0079
22646W        W65637  11.104  19.302  28.238  0.0468 -0.0938  0.0819
22647W        W65638   0.004  28.988   6.378  0.0369  0.3661 -0.1859
22648W        W65639   8.421  13.811   0.239 -0.0152 -0.1290 -0.2757
22649W        W65640  18.863  11.591  28.893  0.3003  0.0522 -0.0454
22650W        W65641   0.587   3.473   0.554  0.0222 -0.1238 -0.0554
22651W        W65642  11.180   7.961   5.595 -0.1739  0.1438 -0.0788
22652W        W65643  34.239  16.197  20.864  0.0521 -0.1715  0.1401
22653W        W65644  25.691  27.615   5.091 -0.0246  0.3002 -0.2816
22654W        W65645  30.471   8.864   4.348 -0.0427  0.1135 -0.1428
22655W        W65646  29.110  34.595   0.178  0.1554  0.1837  0.4122
22656W        W65647  25.773  16.392  27.109 -0.3242  0.0998 -0.4970
22657W        W65648  26.381   2.570   3.612  0.0223  0.1319  0.0200
22658W        W65649  17.481  24.920  26.030  0.0422 -0.1784 -0.1759
22659W        W65650   4.221  18.551   4.846  0.2321  0.0130  0.0567
22660W        W65651  19.735   5.233  26.849 -0.2734  0.3512  0.4426
22661W        W65652  17.028   2.489   4.276 -0.0077 -0.2121  0.1113
22662W        W65653  21.482  33.933   6.025  0.0741  0.0953  0.0225
22663W        W65654   0.193  23.677   5.718  0.2504 -0.1955 -0.1939
22664W        W65655  16.765  20.974   7.683  0.4105 -0.0158 -0.0308
22665W        W65656  15.414   0.371   3.305 -0.1546 -0.1041 -0.1989
22666W        W65657   4.748  22.099   8.371 -0.1157  0.1584  0.0284
22667W        W65658  26.421  28.095  21.241  0.1930  0.2572  0.1634
22668W        W65659  21.602  32.004   8.247 -0.2153  0.1986 -0.0160
22669W        W65660  14.306   7.470   1.354  0.1443 -0.2639  0.2454
22670W        W65661  25.805  18.916  27.631 -0.1627  0.0355 -0.0346
22671W        W65662  10.899  23.930   3.994  0.0399 -0.1674  0.0677
22672W        W65663  20.986  11.071   8.350 -0.3328 -0.4645 -0.0179
22673W        W65664  16.838  11.745   0.612  0.2901 -0.1718 -0.0667
22674W        W65665  25.725  19.929   1.796 -0.0809  0.0695 -0.2661
22675W        W65666   2.166  30.957   5.713 -0.0339 -0.1861 -0.2028
22676W        W65667   3.225  13.791  26.081  0.1678  0.2657 -0.0448
22677W        W65668  29.782   6.439   4.792 -0.0276  0.5462  0.0426
22678W        W65669  22.326   5.234  26.513  0.0817 -0.1346 -0.0831
22679W        W65670   7.838   5.856   2.934 -0.2291  0.0297  0.0711
22680W        W65671   5.246  15.208  23.153  0.1212  0.1785 -0.1237
22681W        W65672  21.639  17.312  28.532 -0.2002  0.0306  0.0786
22682W        W65673  14.964  22.938   6.697 -0.0077  0.2582  0.0259
22683W        W65674  25.724  12.538  24.707  0.1795  0.2884  0.1873
22684W        W65675  32.426  32.720  26.485 -0.5853 -0.0853  0.2188
22685W        W65676  24.286  16.388  28.625  0.3326 -0.0026  0.0944
22686W        W65677   0.209  26.556  18.227  0.0014 -0.2301 -0.1822
22687W        W65678  28.901   3.361   2.917  0.4634 -0.1517 -0.0384
22688W        W65679  22.073   8.545   4.164 -0.0128 -0.1552  0.2503
22689W        W65680   1.229   4.828   4.659  0.0054  0.3843 -0.0779
22690W        W65681  15.326   5.656  15.550 -0.0260  0.1607  0.0259
22691W        W65682   8.911  15.477  20.233 -0.0427  0.1064  0.0807
22692W        W65683  24.045  22.196  26.074  0.0077 -0.2349  0.4895
22693W        W65684   5.141  19.374   0.849  0.1071 -0.1172 -0.0836
22694W        W65685  17.255  20.407   1.464 -0.1443 -0.0939  0.1930
22695W        W65686   5.611  21.615  28.868 -0.0039  0.2150  0.0896
22696W        W65687  20.045  10.176  16.687 -0.0716 -0.2597 -0.0270
22697W        W65688  29.880   8.937   1.619  0.1738  0.1500 -0.0984
22698W        W65689  23.903  21.008  14.436  0.0405  0.2290 -0.0538
22699W        W65690  25.940  17.556  25.925  0.0628 -0.1145  0.2526
22700W        W65691  26.582  11.244   7.265 -0.3036  0.0050  0.0208
22701W        W65692   1.843   6.151   2.308 -0.2136  0.1371  0.2786
22702W        W65693  11.322  21.901   2.078  0.0603 -0.1657  0.1568
22703W        W65694  22.039  22.964   7.030 -0.0168  0.0990 -0.2183
22704W        W65695  14.368   5.706   3.608 -0.0009 -0.0862  0.1569
22705W        W65696  32.675  22.950   6.324 -0.0677  0.1313  0.2898
22706W        W65697  26.715  21.310   4.640  0.4707  0.0750 -0.1184
22707W        W65698  27.452   4.300   7.205 -0.1238 -0.1192  0.0515
22708W        W65699  12.300  13.601   3.907  0.0099 -0.0783 -0.0747
22709W        W65700  18.906   5.072   1.406 -0.0287 -0.0810  0.3094
22710W        W65701  33.433  14.211  26.824  0.3924  0.2383 -0.1636
22711W        W65702  12.416   5.728  25.283  0.2070 -0.0118  0.0818
22712W        W65703  19.114  31.643  17.368  0.1263  0.1198  0.0656
22713W        W65704  32.225   3.815   1.388  0.0694  0.0932 -0.1874
22714W        W65705  23.886   1.270  28.134 -0.0166 -0.1253 -0.0927
22715W        W65706  33.520  21.565   9.798  0.1357  0.2286 -0.0562
22716W        W65707  33.171  14.170  28.414 -0.0816 -0.0740 -0.1993
22717W        W65708  16.306  28.755   0.788 -0.2220  0.1654 -0.4280
22718W        W65709  19.340  20.746   2.666 -0.2396  0.2233 -0.0397
22719W        W65710  29.940   4.972   8.801 -0.1037  0.0341  0.0264
22720W        W65711   5.357  17.555  28.571  0.3894 -0.1298  0.0990
22721W        W65712   2.510   7.547  22.522  0.1315 -0.0373 -0.0878
22722W        W65713  12.336  11.463  25.053  0.1296  0.0856 -0.0748
22723W        W65714  22.798   9.744   6.573  0.1480 -0.0588 -0.0052
22724W        W65715  25.212  13.146   4.728  0.3113  0.2067 -0.0435
22725W        W65716  23.030  17.373   4.128  0.0886 -0.0483  0.0536
22726W        W65717  20.213  23.406   1.260  0.0152  0.0951  0.2012
22727W        W65718  27.694  11.467   5.003 -0.1986 -0.1891 -0.0287
22728W        W65719  27.093  15.305  22.660 -0.0787 -0.0510 -0.2820
22729W        W65720   2.823   6.932   1.638  0.2701  0.0002 -0.1758
22730W        W65721  22.600  33.727   1.515  0.0922 -0.1175  0.2136
22731W        W65722  21.025  20.489  26.260  0.1286  0.3209  0.1796
22732W        W65723  19.202  24.204   7.130 -0.1391 -0.0121 -0.0112
22733W        W65724  16.718  12.483   4.643 -0.1903  0.1000  0.0281
22734W        W65725  25.469   3.301  28.252 -0.1635 -0.1645  0.0098
22735W        W65726  20.667   5.603   6.236 -0.1105  0.0397  0.0231
22736W        W65727   1.423  13.994  21.547  0.1118 -0.4678 -0.0031
22737W        W65728  18.071   7.400  15.639  0.0532 -0.1202  0.4113
22738W        W65729  27.876   5.425   2.536 -0.2657 -0.0526  0.1179
22739W        W65730   6.187  26.138   3.227  0.1933  0.1281 -0.2230
22740W        W65731   5.575  14.894  28.399 -0.1304 -0.0644  0.0346
22741W        W65732  18.440  29.915   7.740 -0.2465 -0.2715 -0.1750
22742W        W65733  25.640   8.267   3.311  0.1289  0.3059 -0.4475
22743W        W65734  19.902  33.352  28.210  0.1883  0.1805 -0.1826
22744W        W65735  33.455  14.816  26.952 -0.2441  0.0620 -0.0857
22745W        W65736  20.453  11.306   5.645 -0.2150  0.0148  0.1879
22746W        W65737  25.295  20.883  26.347 -0.2656 -0.0300  0.0489
22747W        W65738  20.086   0.525  21.075  0.1145 -0.1503  0.1871
22748W        W65739  23.295  30.448  19.876  0.2444 -0.1700  0.0862
22749W        W65740  26.640  24.722   5.069  0.2411  0.2552  0.2287
22750W        W65741  21.176  24.369   2.967 -0.0298 -0.3416 -0.0096
22751W        W65742  26.770  15.216   5.164 -0.1214  0.0131  0.4791
22752W        W65743   9.519  29.578  28.503  0.2864  0.0900  0.2158
22753W        W65744  22.406   6.227   5.084 -0.1790  0.3290  0.4975
22754W        W65745  19.712  22.570   4.351 -0.1600 -0.1167  0.1420
22755W        W65746  30.727  21.238  27.339  0.2130  0.2362 -0.1680
22756W        W65747  25.267  34.605  21.868  0.0579 -0.0211  0.0660
22757W        W65748  29.641  14.908   4.169 -0.0698 -0.0653 -0.1095
22758W        W65749  29.539  21.627  23.775  0.4313 -0.0573 -0.1112
22759W        W65750  11.609  31.189  24.459 -0.3327 -0.3813 -0.0671
22760W        W65751  28.785  33.397   2.427  0.0236  0.0267 -0.1183
22761W        W65752  26.176  26.243   4.933 -0.0691  0.2326  0.2310
22762W        W65753   4.338  14.296   9.841 -0.1341 -0.1234 -0.0557
22763W        W65754   0.713  10.014   2.507  0.0228  0.0605  0.3224
22764W        W65755  28.927  26.899   7.325 -0.2068 -0.1899  0.2750
22765W        W65756  18.300  30.423  26.932 -0.3109  0.1389 -0.0082
22766W        W65757   4.091  12.513   7.221  0.0389 -0.1994 -0.0123
22767W        W65758   2.777   7.578   1.869 -0.0086  0.1109  0.1164
22768W        W65759  28.533   6.944  14.953  0.2598 -0.1149  0.3532
22769W        W65760  13.973   7.874   5.063 -0.1414  0.0478 -0.1976
22770W        W65761  24.045  14.725  27.058 -0.0742 -0.0852  0.2643
22771W        W65762   8.904   4.955  23.988  0.2537  0.0849 -0.1297
22772W        W65763  24.603  25.973  15.763 -0.1977  0.2772 -0.2655
22773W        W65764  24.421  22.537  24.411 -0.2901 -0.2780  0.0079
22774W        W65765  31.791  13.487  16.862  0.1771  0.0115  0.2718
22775W        W65766  27.660  27.269  24.137  0.2324 -0.4230 -0.0415
22776W        W65767  32.549   5.238  25.162 -0.0038 -0.4174  0.0062
22777W        W65768  21.894  24.567   4.151 -0.0335  0.1888 -0.3702
22778W        W65769  27.078   9.444   1.744  0.2635  0.0538  0.0198
22779W        W65770  32.830  10.338   2.472 -0.3197 -0.2724  0.0774
22780W        W65771   1.251  27.078  27.385 -0.0651  0.0733 -0.3775
22781W        W65772  31.195  10.855   3.662 -0.2584  0.3565  0.2220
22782W        W65773  12.513   3.821  25.013  0.0701 -0.0566 -0.0209
22783W        W65774  24.314   9.226  10.207  0.1054  0.1252 -0.2611
22784W        W65775  20.324   6.865  26.112  0.0219 -0.0249 -0.2946
22785W        W65776   3.859  12.878  17.067 -0.1478 -0.0022 -0.3470
22786W        W65777  29.987  16.086  18.476 -0.1276 -0.0126  0.3559
22787W        W65778  26.973   2.776   0.876  0.0729  0.3057  0.0464
22788W        W65779  18.670  23.222  20.127 -0.0242 -0.4416  0.0703
22789W        W65780  12.595   5.120   5.194 -0.1207 -0.2496 -0.2114
22790W        W65781  22.072  19.190  13.137  0.2310 -0.2711  0.2977
22791W        W65782  17.218  12.990  25.884  0.2460 -0.1710 -0.3167
22792W        W65783  14.100  19.472   8.167  0.2243 -0.0125 -0.2450
22793W        W65784  11.757   9.459   7.946  0.0288 -0.1366 -0.1152
22794W        W65785   9.452  18.851   0.145  0.0569 -0.0580  0.2649
22795W        W65786  20.879  15.670  15.074  0.1321  0.3248  0.1726
22796W        W65787  20.671   3.553   2.934 -0.0109 -0.2742  0.0249
22797W        W65788   7.628   8.330  27.015  0.3093  0.2246  0.0325
22798W        W65789  21.554   3.103   5.557  0.1376  0.2317 -0.0619
22799W        W65790  31.802   4.375   8.140  0.1295  0.0989  0.0129
22800W        W65791  32.506  16.516  28.525  0.4089 -0.3244 -0.0506
22801W        W65792   6.341  10.134   2.555  0.2646  0.1261 -0.1117
22802W        W65793  12.159  29.680  18.194 -0.1301  0.0817  0.2248
22803W        W65794   0.010  21.826  22.897 -0.2726  0.0184  0.0064
22804W        W65795  29.845  34.655   2.421 -0.2177  0.2186  0.4779
22805W        W65796  30.648  21.448   9.069 -0.5192  0.0218 -0.0515
22806W        W65797   3.129  13.514  11.348 -0.1180 -0.0347 -0.1255
22807W        W65798   0.862  33.286  28.934 -0.3952 -0.1111 -0.1685
22808W        W65799  32.843  10.631   6.585  0.1322  0.1039 -0.2319
22809W        W65800   1.032  21.157  28.944 -0.0112  0.2882 -0.3591
22810W        W65801   9.285   7.158   3.594 -0.1405  0.0762  0.1730
22811W        W65802  29.243  22.645   2.168 -0.1817  0.0238  0.0460
22812W        W65803  12.992  17.801   1.312  0.1116  0.2275  0.1398
22813W        W65804   6.475  13.943   1.396  0.0453  0.1952  0.0664
22814W        W65805  27.360   7.312  25.649 -0.2037 -0.2089  0.0138
22815W        W65806  16.258  33.535   8.695 -0.1030  0.2185 -0.3013
22816W        W65807  32.741   7.098   7.604 -0.0149  0.3289  0.0153
22817W        W65808  16.869  15.769   0.812  0.2761 -0.0674  0.0907
22818W        W65809  22.479  23.767   9.129  0.0820  0.3172  0.2412
22819W        W65810  18.003  10.728  18.172 -0.0476 -0.1148  0.0713
22820W        W65811  19.542   3.799  24.049  0.1586 -0.0081  0.1298
22821W        W65812  14.649  13.490  20.296 -0.0085 -0.0212 -0.5048
22822W        W65813  19.005  10.942   5.649  0.3327 -0.1735  0.2139
22823W        W65814   6.561  19.112  21.741 -0.0372  0.0729  0.0925
22824W        W65815  15.128  21.269  23.815 -0.1134 -0.1554  0.0383
22825W        W65816   9.269   7.192  24.902  0.2837 -0.0855  0.1552
22826W        W65817  16.074  11.032   6.687 -0.1287  0.3750 -0.0420
22827W        W65818  15.123  17.067   9.253 -0.3806 -0.0435 -0.3772
22828W        W65819  17.398  11.582  15.914 -0.0295 -0.0408 -0.1234
22829W        W65820  26.564  21.270   6.835  0.3767  0.0216  0.1120
22830W        W65821  16.387  26.415   9.166  0.0216 -0.0047  0.0615
22831W        W65822  27.324  12.328   8.028 -0.0688  0.2274  0.3331
22832W        W65823   0.612  14.663   7.983  0.0617 -0.0242 -0.1846
22833W        W65824  19.983   7.399   8.250 -0.0156 -0.0719 -0.0412
22834W        W65825  31.554  28.159   4.871  0.0330 -0.0769 -0.4611
22835W        W65826  30.410  14.431  26.331 -0.0683 -0.0170 -0.1038
22836W        W65827  22.945  22.161   8.238  0.0181  0.1197  0.3847
22837W        W65828   7.621   6.259   4.448 -0.1802  0.1977  0.0000
22838W        W65829   9.791  23.064  26.144  0.1229  0.1193  0.1348
22839W        W65830  27.492   8.587   4.805  0.1220  0.1659  0.1997
22840W        W65831  14.874  23.072  20.387  0.1291 -0.0449 -0.3725
22841W        W65832  25.360  31.037   9.179  0.3102  0.0967  0.0697
22842W        W65833  33.336   8.002  27.954  0.1560 -0.2450 -0.0146
22843W        W65834  25.651   8.941   0.903  0.0720  0.0432 -0.2620
22844W        W65835  31.666  15.097  28.507 -0.1782  0.0475 -0.0298
22845W        W65836  18.932   3.966   4.688  0.2506  0.1320 -0.2555
22846W        W65837  27.463   9.003   5.556 -0.2130  0.4846  0.3350
22847W        W65838  19.781   1.246  23.056  0.0524  0.2352 -0.1267
22848W        W65839  27.708   8.232   9.690  0.4858 -0.0343  0.2903
22849W        W65840  30.144  14.367   5.798  0.3401  0.0048  0.1594
22850W        W65841  12.945  16.324   4.783  0.2474  0.0741 -0.0777
22851W        W65842  28.588  19.451   1.359  0.2493 -0.1977  0.0272
22852W        W65843  17.278  14.145   8.074  0.2576 -0.1548  0.3583
22853W        W65844  27.689   2.104   1.937 -0.0451  0.0435  0.1062
22854W        W65845  15.316   4.948  26.794 -0.0109 -0.2050  0.2191
22855W        W65846  26.962  22.767   4.763 -0.0082 -0.1403 -0.1636
22856W        W65847   6.734  16.393   7.239 -0.2381  0.2257  0.3277
22857W        W65848  34.420   9.164  26.265 -0.2083  0.0832  0.0669
22858W        W65849  23.313  19.128   3.602  0.2018 -0.2902 -0.0040
22859W        W65850   9.031   5.905   5.477  0.0686  0.0860 -0.0934
22860W        W65851  32.610   9.140  22.401  0.0330 -0.2191  0.1277
22861W        W65852  24.259  14.524   8.442 -0.0704  0.0268 -0.0653
22862W        W65853  12.954  17.597  26.812 -0.4132 -0.2775  0.3079
22863W        W65854  28.018  21.954   4.520 -0.0552 -0.3344 -0.1554
22864W        W65855   6.345  18.171   7.763 -0.3107  0.0568  0.0971
22865W        W65856  26.923  12.955   6.705  0.2905 -0.0059 -0.0148
22866W        W65857  24.326  25.192  19.040 -0.3524 -0.4878 -0.0524
22867W        W65858  26.390  16.188   5.884 -0.2167  0.0118  0.2004
22868W        W65859   2.740  20.412  27.029 -0.1129  0.0542  0.3366
22869W        W65860  34.454   8.518   6.086 -0.1812  0.0798  0.1063
22870W        W65861  30.949  27.414   3.460  0.0157  0.0900 -0.0626
22871W        W65862  22.347   7.633   8.034 -0.0983  0.1533  0.0468
22872W        W65863   9.741   3.902   6.936  0.1182 -0.0422 -0.2262
22873W        W65864  12.664  13.010   5.383 -0.1254 -0.0316 -0.0138
22874W        W65865  14.745   7.227   3.860  0.2672 -0.0990 -0.2713
22875W        W65866  19.955  17.583   1.602 -0.0368  0.1974  0.0852
22876W        W65867  19.539   1.329   7.436 -0.0003 -0.1285  0.1065
22877W        W65868   9.021  23.631  17.450  0.1882  0.0481  0.5356
22878W        W65869  28.838   3.182   2.123 -0.1699  0.0682 -0.0026
22879W        W65870   7.451  13.747  22.351 -0.1015 -0.0726 -0.1647
22880W        W65871   6.568  12.841   0.380  0.0935 -0.0939  0.1011
22881W        W65872  28.902  12.576   9.508  0.0104  0.0580 -0.2046
22882W        W65873  22.359  21.513   2.923  0.0863 -0.1099  0.1281
22883W        W65874  23.678   9.306  27.832 -0.1964 -0.3314  0.2307
22884W        W65875  27.388  13.215  15.091  0.0081  0.2419 -0.1553
22885W        W65876   4.672  13.096   5.377  0.0100 -0.2342  0.0693
22886W        W65877   3.205  11.744   8.128 -0.2426 -0.0564  0.2031
22887W        W65878  16.432   7.451  23.257 -0.0872  0.0022  0.0332
22888W        W65879  25.825  20.966   5.931  0.0451 -0.3699 -0.0273
22889W        W65880  10.121  26.618   9.236  0.1974  0.1509 -0.4932
22890W        W65881  23.559  34.070   3.504  0.0389 -0.0070  0.1460
22891W        W65882  20.260  15.276  27.584  0.0964  0.7432 -0.0680
22892W        W65883  21.747  32.903  22.613 -0.2130  0.4012  0.3910
22893W        W65884  17.985   1.745   4.689 -0.5644  0.0663 -0.0666
22894W        W65885  20.353   4.831   3.896  0.3213 -0.1381 -0.1673
22895W        W65886  14.372  23.099   8.755  0.1585  0.0942 -0.1843
22896W        W65887  15.245  20.776  26.168 -0.0252 -0.3657  0.0480
22897W        W65888  30.076   8.440  16.592 -0.1299  0.1675 -0.0679
22898W        W65889   6.319  20.205  10.979 -0.1041 -0.1165  0.1251
22899W        W65890  13.640  31.252   6.484 -0.2489 -0.0461  0.0259
22900W        W65891  24.072  15.721  22.601  0.2227 -0.2468  0.0962
22901W        W65892   2.133  32.815   5.058 -0.2235 -0.2558  0.3626
22902W        W65893  31.267  10.157   6.348 -0.0469  0.1532 -0.1037
22903W        W65894  30.347   4.700   2.125  0.2692  0.0147 -0.0163
22904W        W65895  24.260  21.627   8.876  0.1656  0.0796  0.1120
22905W        W65896  24.913  11.503   1.391  0.1092  0.1034  0.3771
22906W        W65897  26.250  18.688   7.952 -0.2074 -0.1312  0.0896
22907W        W65898   8.025  11.935  28.033 -0.0177 -0.0659  0.1853
22908W        W65899  27.257  28.634   2.305  0.1197  0.1562  0.0256
22909W        W65900  19.002   6.351  26.942  0.0360 -0.1744 -0.0247
22910W        W65901  21.468   8.918  27.159 -0.0024 -0.1286 -0.1065
22911W        W65902  10.379   9.323  10.107 -0.1575 -0.2507 -0.0942
22912W        W65903  30.362  21.244   3.492  0.1087  0.1816 -0.1701
22913W        W65904  13.368   5.884   3.570  0.0201 -0.0958  0.3159
22914W        W65905   1.307  13.329   4.274  0.1200  0.3721  0.0192
22915W        W65906   9.439   4.340  25.663 -0.4978 -0.5760 -0.1861
22916W        W65907  21.170  12.998  27.773  0.1159  0.1346 -0.0540
22917W        W65908  32.742   3.889   8.823  0.0232  0.0358  0.1480
22918W        W65909   4.081  17.948   7.664  0.2155 -0.0130  0.0783
22919W        W65910  25.405  30.867   4.338  0.0451  0.1025  0.2976
22920W        W65911  12.740   6.777   6.504 -0.0344  0.0383  0.0476
22921W        W65912   2.938  18.855   1.240 -0.1325  0.2316  0.2397
22922W        W65913  24.761  19.932  28.749  0.4347 -0.1787 -0.1969
22923W        W65914  16.305  21.158  28.951  0.1842  0.0165 -0.0695
22924W        W65915  32.298  27.797   8.659 -0.4113  0.0862  0.1202
22925W        W65916  15.432  30.182  19.551 -0.0256 -0.0617  0.0359
22926W        W65917  19.723   5.262   7.527 -0.1795 -0.2512  0.0113
22927W        W65918  30.334  21.968   0.802 -0.0129  0.0812 -0.0443
22928W        W65919  10.187  14.471  26.701  0.0290  0.0667  0.1681
22929W        W65920  25.476  13.758   9.088 -0.0814  0.3319 -0.0240
22930W        W65921  14.205   4.286  19.765  0.1296 -0.0972 -0.0772
22931W        W65922  26.800  30.226   5.753  0.0851 -0.1163 -0.0322
22932W        W65923  25.679  26.236   4.588 -0.3205  0.1341  0.3949
22933W        W65924   6.229  25.030   9.667 -0.2664  0.2127 -0.1636
22934W        W65925  26.774   3.222  26.504 -0.1128  0.2699  0.0473
22935W        W65926  25.045  30.561  27.079  0.2773  0.0942  0.0012
22936W        W65927  15.140  14.415  27.258  0.3583  0.1791  0.0904
22937W        W65928  24.564  15.080   3.694  0.6365  0.3353  0.0270
22938W        W65929  17.686  10.006  28.406  0.0054 -0.0578 -0.1153
22939W        W65930  26.376  21.026   2.840  0.1190  0.1684 -0.0053
22940W        W65931  25.573  17.187   5.559 -0.1798  0.2550 -0.0207
22941W        W65932  25.412  12.169  24.273  0.0912 -0.0957  0.1931
22942W        W65933  15.612  19.153   5.856  0.0313 -0.1282  0.1050
22943W        W65934  24.068  20.426   7.182 -0.0960 -0.1993 -0.1579
22944W        W65935  31.244   0.880   8.650 -0.1840  0.0974  0.1836
22945W        W65936   3.138  10.330  26.495  0.2159 -0.2084 -0.1990
22946W        W65937  24.189  22.840  13.910 -0.2120  0.0986  0.0154
22947W        W65938  24.649   3.674   0.675  0.1049 -0.0604  0.3064
22948W        W65939  29.575   5.892   2.815  0.0931 -0.0833 -0.2310
22949W        W65940  16.297  34.410   7.345  0.0673 -0.0365  0.0890
22950W        W65941  18.623   2.554   1.088 -0.1574 -0.0899  0.3117
22951W        W65942   4.444  29.037  23.568 -0.0711  0.0520 -0.1347
22952W        W65943  23.590  28.272  22.897 -0.1511  0.2332 -0.0665
22953W        W65944  25.835   1.127   3.029 -0.0559 -0.0189 -0.0544
22954W        W65945   6.629  12.458  27.759  0.2074 -0.1829 -0.0042
22955W        W65946  21.661  11.503  28.315  0.1092  0.1795  0.0183
22956W        W65947  17.485  15.348  28.766  0.0041 -0.0333 -0.2739
22957W        W65948  23.427  10.357   7.277  0.1015 -0.0202  0.1822
22958W        W65949   0.287  10.620   8.054  0.3939 -0.2965 -0.1548
22959W        W65950   1.400  15.037   0.868  0.1896 -0.0647  0.0620
22960W        W65951  32.287  29.945  23.594  0.4063 -0.0933  0.1696
22961W        W65952  15.727  21.056  20.592 -0.0361 -0.2839  0.2851
22962W        W65953  18.982   7.547   6.771  0.0609  0.1309 -0.0913
22963W        W65954   0.883  23.938   1.318 -0.2170  0.0903 -0.1192
22964W        W65955  20.592  19.988  26.995 -0.0697  0.0989  0.3494
22965W        W65956  30.910  18.803   1.194 -0.2352 -0.0264  0.1781
22966W        W65957  21.798  18.461  20.762  0.1227  0.1037 -0.1948
22967W        W65958   5.347   6.355   4.764  0.1622 -0.0023 -0.2620
22968W        W65959   3.502   3.726  14.453 -0.1947 -0.0373  0.4317
22969W        W65960  25.934  29.625  16.324 -0.1488  0.1171 -0.2898
22970W        W65961  27.616  22.818  26.305 -0.0170 -0.2434 -0.1096
22971W        W65962  18.862   7.722   4.557 -0.1531 -0.4059  0.4156
22972W        W65963  10.930  24.232   8.433 -0.0828  0.1042 -0.2074
22973W        W65964  20.130  13.991   7.038 -0.0190 -0.1512  0.1993
22974W        W65965   6.475   1.148   7.248 -0.2164 -0.0956 -0.1416
22975W        W65966  16.743   1.542  10.400 -0.1942  0.2646 -0.0089
22976W        W65967   7.056  15.720   4.174  0.2322  0.0660  0.0938
22977W        W65968  24.213  13.068  25.817 -0.3101  0.0258  0.1869
22978W        W65969  28.842  13.595   9.621  0.1025  0.1613  0.0953
22979W        W65970  13.073  22.810   5.243 -0.0846 -0.2722  0.0461
22980W        W65971  20.303  32.115   1.277  0.0547 -0.0713 -0.0156
22981W        W65972  15.711  11.112   0.113  0.0875  0.0359  0.0848
22982W        W65973  26.620  19.002  21.563  0.1107  0.0146 -0.0219
22983W        W65974   5.449  15.152  10.418 -0.1947  0.2511 -0.0095
22984W        W65975  22.070  20.727  24.875  0.2337 -0.4282  0.0680
22985W        W65976  20.518   8.229   2.824  0.2592 -0.0976  0.2233
22986W        W65977   1.860  26.843   1.977 -0.0700  0.3770  0.2601
22987W        W65978   4.691   9.466   3.329  0.0870 -0.2238 -0.1348
22988W        W65979  22.941  14.256   6.580 -0.1400 -0.2169 -0.1218
22989W        W65980  25.771  14.569  26.592 -0.0039  0.1058 -0.0977
22990W        W65981   7.818  12.741  23.965  0.4372 -0.2285  0.0432
22991W        W65982  14.480  19.463   8.527  0.0889  0.1228  0.0445
22992W        W65983  11.575  13.492  10.153 -0.3875  0.0517  0.2121
22993W        W65984  26.994  19.772   9.814 -0.0810  0.2656  0.0870
22994W        W65985  18.924  13.880  24.664 -0.1216 -0.3241  0.0789
22995W        W65986  15.407  30.209   6.970 -0.0250 -0.1168 -0.0766
22996W        W65987  17.027  25.496  19.336 -0.1349 -0.0137  0.3098
22997W        W65988  33.037  19.048   2.509 -0.2003  0.0634 -0.0723
22998W        W65989  29.568  15.350  20.782  0.0620  0.1585 -0.0124
22999W        W65990  15.936  18.230   5.854  0.0664  0.1090  0.2569
23000W        W65991  26.594  31.843   5.605 -0.0215 -0.0401 -0.0356
23001W        W65992   7.005  22.581  28.066 -0.3559 -0.1640 -0.1634
23002W        W65993  26.961   9.748   7.706 -0.0764 -0.2519 -0.1619
23003W        W65994  19.446  16.943   7.011 -0.1092 -0.0111 -0.2768
23004W        W65995  31.618  11.033   3.375  0.2851 -0.0618 -0.1752
23005W        W65996  21.291  21.704  16.860 -0.2168 -0.1396  0.1027
23006W        W65997  17.666  10.506   3.187  0.1225  0.1223 -0.3231
23007W        W65998  21.093  17.192   2.021  0.0324 -0.1763 -0.2418
23008W        W65999   1.962  19.795  15.356  0.1393  0.1912  0.0246
23009W        W66000  21.293  26.248   2.693 -0.2191  0.2338  0.0767
23010W        W66001  23.651  24.105  29.190 -0.1760  0.2689 -0.2324
23011W        W66002  16.888  32.631  29.023  0.1668 -0.2412 -0.2017
23012W        W66003   9.100  13.885  20.399 -0.0353 -0.0909  0.1755
23013W        W66004  14.757  12.768  22.080 -0.0038  0.0887  0.0145
23014W        W66005  27.099  21.826   9.156 -0.1730  0.0884 -0.0605
23015W        W66006  19.665  23.176   5.664 -0.6233  0.0565 -0.1650
23016W        W66007  25.469  19.359  25.094 -0.1540  0.4139  0.1063
23017W        W66008  30.783  10.054  25.082  0.0516  0.2030  0.0262
23018W        W66009   5.923  15.075   2.710  0.2037  0.0589 -0.0069
23019W        W66010  27.741  15.112  24.560  0.1889  0.1661  0.1187
23020W        W66011  21.714  10.570   8.325 -0.0032  0.0253  0.0781
23021W        W66012  30.150  28.359   1.093  0.2023 -0.1757  0.1798
23022W        W66013  28.792  17.437  18.175 -0.2104  0.1177  0.1988
23023W        W66014   9.018  19.792  24.038 -0.0558 -0.0029  0.0533
23024W        W66015  25.238  10.185  25.396 -0.0983 -0.1537 -0.0311
23025W        W66016   0.875   7.867  11.204 -0.1692  0.2565 -0.0201
23026W        W66017  22.845  12.404   7.886  0.1344 -0.1147  0.1006
23027W        W66018  15.843   4.679  28.422  0.0862  0.0223 -0.2339
23028W        W66019  23.755   5.812  27.463  0.2146 -0.1134  0.3481
23029W        W66020  18.782  17.957   6.387  0.1980  0.1330  0.2115
23030W        W66021   1.552   4.419   9.287  0.1943 -0.2180 -0.1385
23031W        W66022   5.502  10.722   7.829 -0.0451  0.0646  0.0850
23032W        W66023  34.529  34.316  27.193 -0.0188 -0.4217 -0.0140
23033W        W66024  13.989   7.174   9.174  0.0572  0.0217  0.1004
23034W        W66025   6.151  12.645   2.408 -0.0634 -0.0708 -0.4002
23035W        W66026  32.968   6.538   4.564 -0.3517  0.1416 -0.2485
23036W        W66027  30.679  17.970   0.540  0.2457  0.2835  0.1962
23037W        W66028   1.665   8.102   8.508  0.0811  0.2217 -0.0476
23038W        W66029  24.021  28.984   7.509 -0.2393 -0.1857  0.2353
23039W        W66030  16.817  22.844  24.739  0.0981  0.1567 -0.0833
23040W        W66031  18.585  14.473  26.481  0.0995 -0.1286  0.0345
23041W        W66032   2.031  21.200  20.288 -0.3000  0.0841  0.0718
23042W        W66033   5.909  32.176   6.679 -0.0543  0.0339  0.1178
23043W        W66034  17.908   9.922   8.286  0.1543  0.4666 -0.3030
23044W        W66035   0.972  16.995  11.383 -0.0901 -0.2350 -0.1438
23045W        W66036   9.349   7.538   2.645 -0.0759  0.1499  0.2063
23046W        W66037  19.771   9.977   1.481  0.1131  0.2098 -0.1179
23047W        W66038  19.041  15.417  14.410  0.2031  0.2760 -0.3048
23048W        W66039  27.961  20.033   8.558  0.1381  0.3189  0.1107
23049W        W66040  18.432  20.053   6.093  0.0817  0.0606 -0.3300
23050W        W66041  26.249   8.963  15.540 -0.0358  0.1339  0.0968
23051W        W66042  15.553   8.451   5.212 -0.0323 -0.5222 -0.1397
23052W        W66043  30.897  27.785   4.418 -0.0685 -0.3248  0.1983
23053W        W66044  33.025  26.926   0.090  0.0519  0.1699 -0.0366
23054W        W66045  14.372  16.435   6.575  0.1402  0.0527  0.1449
23055W        W66046  16.396  19.642   0.216  0.0092  0.0203  0.2448
23056W        W66047  15.604   4.652   0.542  0.0009  0.0875  0.4887
23057W        W66048  15.758  11.994   0.368 -0.0569  0.0220  0.0523
23058W        W66049   6.472  13.597   8.317 -0.1379 -0.0494  0.2061
23059W        W66050  24.250   9.594   8.100  0.1036 -0.2410 -0.2785
23060W        W66051  24.449  27.332  23.810 -0.0283  0.0080  0.0047
23061W        W66052  18.099  11.672   6.484 -0.1868  0.3537  0.2039
23062W        W66053  16.158  16.699  25.588  0.0847 -0.0590 -0.2201
23063W        W66054  23.206  10.679   0.742  0.0396 -0.1499 -0.1096
23064W        W66055  28.853  21.747  27.513 -0.0022 -0.0007  0.3518
23065W        W66056   7.169  22.887  21.496  0.1702  0.2067 -0.1377
23066W        W66057  22.383  26.464  27.690  0.2768  0.1776  0.0524
23067W        W66058  28.106  16.581  22.619  0.2382 -0.2095 -0.2765
23068W        W66059  33.615  21.026   3.363  0.1804  0.2247  0.1280
23069W        W66060  21.307   9.694   9.587 -0.1162  0.5429  0.1823
23070W        W66061  15.621  19.584   3.596 -0.3959 -0.0373  0.0405
23071W        W66062  17.490  12.554   5.171 -0.1979 -0.0341  0.1084
23072W        W66063   7.216  21.033   2.506 -0.2810 -0.0776 -0.1472
23073W        W66064   0.899   6.567   8.867  0.2230 -0.0748 -0.0668
23074W        W66065  24.640  28.972   8.400 -0.0170 -0.0559  0.0629
23075W        W66066  29.903  21.175  21.269  0.1164 -0.1010  0.1082
23076W        W66067  34.639  19.574  23.282 -0.0258  0.1336 -0.0856
23077W        W66068  16.313  27.055   3.856  0.5001 -0.1650 -0.0313
23078W        W66069  19.412   4.750   9.121  0.2186 -0.1585 -0.1004
23079W        W66070  32.061  12.614  26.182  0.0057 -0.1433 -0.1288
23080W        W66071  10.757  14.456   8.442 -0.0178 -0.4072 -0.1058
23081W        W66072  22.200  20.195   1.273  0.0656  0.1594 -0.4330
23082W        W66073   8.037   4.784  10.860 -0.0975  0.2269 -0.2023
23083W        W66074   1.256  17.803   9.083  0.0223 -0.1171  0.0504
23084W        W66075  11.565  22.471   9.861 -0.2729 -0.0344 -0.3127
23085W        W66076  25.760  18.829   6.482  0.1715 -0.0839 -0.0919
23086W        W66077  18.627  23.284   1.328 -0.1586 -0.1506  0.0373
23087W        W66078   4.708  23.980   5.083  0.2934 -0.1047  0.0586
23088W        W66079  27.154  31.222  25.954  0.2052  0.2058 -0.3325
23089W        W66080  22.385   9.515   8.103 -0.0071  0.0800 -0.1025
23090W        W66081  19.824  29.124   5.663 -0.0911 -0.2125 -0.2491
23091W        W66082  11.862  10.157   9.735  0.0876  0.0733 -0.3581
23092W        W66083  27.955  30.025  20.827  0.0324  0.1699  0.2256
23093W        W66084   9.371  13.003   1.587  0.4168 -0.3701 -0.0960
23094W        W66085  23.727  17.435   4.902  0.0141  0.0756 -0.1921
23095W        W66086  31.651  17.790  23.238  0.0304 -0.0953 -0.1830
23096W        W66087  18.809  21.616  28.448 -0.1742 -0.1248 -0.2783
23097W        W66088  28.704   3.611   6.488 -0.0544  0.2329  0.2299
23098W        W66089  16.099   7.923  22.960  0.0073  0.0363  0.3359
23099W        W66090  28.807  11.744   2.894 -0.2857 -0.2312 -0.0093
23100W        W66091  14.445  26.481  28.866 -0.0111  0.1794 -0.2729
23101W        W66092  29.878  21.593   8.625 -0.2940 -0.2511  0.2108
23102W        W66093   7.424   5.242   0.950 -0.0145 -0.0904  0.1574
23103W        W66094  20.354   3.901   9.620  0.0616  0.2857  0.2044
23104W        W66095  23.702   7.733   8.180 -0.0698  0.0646 -0.0174
23105W        W66096  30.196  10.395  18.945 -0.0832 -0.1542  0.5217
23106W        W66097  32.350   2.847   5.108  0.1622  0.0510  0.1820
23107W        W66098   7.797  18.758  20.096  0.0897 -0.2633 -0.1578
23108W        W66099  23.911   8.576  28.505  0.1311  0.1408 -0.0876
23109W        W66100  28.237  12.008  20.879  0.0603  0.1633 -0.1913
23110W        W66101  10.344   4.200  24.800 -0.0796 -0.0534  0.1259
23111W        W66102  26.438  10.883   4.836 -0.2015  0.2055  0.1451
23112W        W66103  10.011  27.871   0.035 -0.2717  0.0351  0.0084
23113W        W66104  26.984   6.453   5.822  0.1128 -0.1317  0.2916
23114W        W66105  26.881  16.364   7.363  0.0714 -0.0577  0.2727
23115W        W66106  11.026   9.726  25.354 -0.0438  0.0973  0.2452
23116W        W66107  33.469   5.494   1.199  0.4060 -0.3440 -0.1469
23117W        W66108  22.938  19.719   8.315  0.3699  0.1697 -0.0641
23118W        W66109   9.416  15.709  26.775 -0.3296 -0.3331  0.1112
23119W        W66110   3.444  21.103  24.554  0.1251  0.0881 -0.4851
23120W        W66111  21.120  19.310   1.794 -0.2055 -0.0352  0.3183
23121W        W66112   9.576   7.058   2.329 -0.1293 -0.3038  0.0186
23122W        W66113  25.938   6.407  22.183  0.0158  0.1076  0.1541
23123W        W66114   3.245   2.820   3.543  0.1459 -0.0874  0.0757
23124W        W66115  27.157   2.192   7.028 -0.4135  0.3201 -0.0387
23125W        W66116  27.340  19.430   3.441 -0.0072  0.1267 -0.1499
23126W        W66117  32.703   7.872  25.610 -0.1167  0.2618  0.4301
23127W        W66118  16.629  23.460  16.411 -0.1118 -0.0342 -0.1030
23128W        W66119  30.518  12.795   7.063  0.0403  0.4205 -0.1833
23129W        W66120  12.731   2.873  19.361  0.1968 -0.3132  0.1836
23130W        W66121  32.305   4.998   8.590 -0.0104  0.0410  0.1732
23131W        W66122  33.475  10.613   8.989 -0.0233 -0.3123 -0.1431
23132W        W66123   8.596  13.669   5.933  0.0571  0.3030 -0.1275
23133W        W66124   8.931  11.152  18.177 -0.3134 -0.1666 -0.1156
23134W        W66125  23.942  18.386  27.491  0.1533 -0.0842  0.1648
23135W        W66126  22.065  17.555  19.372 -0.1630 -0.3621 -0.4219
23136W        W66127  28.401  11.456   2.502 -0.1785 -0.0647 -0.3827
23137W        W66128  20.828  27.125   4.742  0.0205  0.1191 -0.3756
23138W        W66129  27.228  16.297  24.561 -0.1741  0.0909 -0.0240
23139W        W66130  26.777   6.424   3.416  0.0549 -0.4354 -0.0851
23140W        W66131  27.790  25.797  28.434  0.2951  0.0486 -0.1549
23141W        W66132  17.514   6.506   7.551  0.4803 -0.1537  0.1876
23142W        W66133  22.692  31.088  26.976 -0.0113 -0.2134 -0.2462
23143W        W66134   1.475   2.897  27.441 -0.2130 -0.1691 -0.1724
23144W        W66135  31.817  15.122   8.027  0.1241 -0.1758  0.0767
23145W        W66136  30.103  10.753   6.425 -0.3037  0.1956  0.4508
23146W        W66137  34.712   9.017   3.844 -0.0735  0.3267 -0.1104
23147W        W66138  10.950  26.843   3.498 -0.1099  0.1144 -0.1211
23148W        W66139   4.276   2.721   5.050  0.2046 -0.1881 -0.1350
23149W        W66140  26.290   3.094   8.530  0.1590 -0.0597 -0.1246
23150W        W66141  33.805  15.711  11.103 -0.0932  0.1152  0.0937
23151W        W66142  13.302   3.313  10.618 -0.2323 -0.0298  0.3910
23152W        W66143   3.637  11.833   2.535  0.1836  0.3679  0.0949
23153W        W66144  30.472  32.905  27.130  0.1029  0.0832 -0.1445
23154W        W66145  27.242  20.107   7.254 -0.0900 -0.1353  0.0248
23155W        W66146  15.551   3.831   9.657 -0.3372 -0.0772  0.1105
23156W        W66147  24.684  12.236   9.664 -0.0291 -0.1320  0.0725
23157W        W66148  31.528   4.350   9.836  0.1190 -0.0020 -0.1966
23158W        W66149  18.202  14.658  15.960  0.4361  0.3777 -0.1602
23159W        W66150  32.469  17.256   9.256  0.1029 -0.1228  0.0573
23160W        W66151   9.727   6.241   6.214  0.2680 -0.1214  0.2072
23161W        W66152   5.793  10.082   7.321 -0.1518  0.0993  0.2478
23162W        W66153  11.751   0.113  23.099 -0.0726 -0.2190 -0.0339
23163W        W66154  12.383  10.716   4.615  0.1537  0.4182 -0.0431
23164W        W66155  16.707  16.485   5.495  0.1029 -0.4366 -0.1044
23165W        W66156  33.626  11.145   7.577 -0.0845 -0.1636  0.0116
23166W        W66157  23.261  11.320   5.529 -0.1698 -0.0695 -0.0812
23167W        W66158   1.923   7.625   6.936  0.0725 -0.0340 -0.1200
23168W        W66159  25.430   7.257   1.007 -0.2171  0.0250 -0.2019
23169W        W66160   3.163  20.488   1.080  0.1532 -0.1859 -0.0918
23170W        W66161  18.621  19.806  26.175 -0.5171  0.1226  0.0135
23171W        W66162  13.608  11.042   2.565  0.0634  0.0549  0.0326
23172W        W66163  28.652  30.650  16.045 -0.0297  0.0981 -0.1140
23173W        W66164  24.383  12.530   4.054 -0.2083  0.3056 -0.0337
23174W        W66165  21.770   5.912   9.288  0.3401  0.2789  0.1144
23175W        W66166  29.171   4.052   9.404 -0.1678 -0.1096 -0.3655
23176W        W66167  27.192  28.799   9.241  0.1387 -0.2129  0.0877
23177W        W66168  26.362  21.168  23.237  0.1104  0.0539  0.0635
23178W        W66169  23.631  17.241   6.208 -0.0809  0.1043  0.0885
23179W        W66170  28.888   6.012   6.844 -0.2135 -0.0173 -0.0901
23180W        W66171  33.486   5.887   8.880  0.0638  0.0070  0.0733
23181W        W66172  32.980  13.414  28.766 -0.1831  0.1888 -0.0716
23182W        W66173   6.769  25.197   0.128  0.1217  0.1947  0.1604
23183W        W66174   4.002   0.456   4.054 -0.1894  0.0232 -0.2620
23184W        W66175  26.577  25.127   6.363 -0.0412  0.1560  0.4054
23185W        W66176  25.163  18.045   2.385 -0.1363 -0.1370  0.1288
23186W        W66177  22.117  22.304   1.152  0.2641  0.2640 -0.1674
23187W        W66178  14.737  12.339   6.795 -0.2114  0.3864  0.0372
23188W        W66179  24.385  22.277   5.982  0.0388 -0.2739 -0.1213
23189W        W66180  25.196  14.024   6.731  0.0420  0.0504 -0.1929
23190W        W66181  34.173  17.134   0.558 -0.0562 -0.3230  0.1248
23191W        W66182  26.878   9.451   3.303 -0.0071 -0.1004 -0.1561
23192W        W66183  34.137  13.370  17.485  0.2827  0.2873 -0.1668
23193W        W66184  29.234  12.795   5.841 -0.1666  0.1861 -0.0032
23194W        W66185  27.161  11.318  23.213 -0.1806 -0.1433  0.1429
23195W        W66186  23.926  27.561  28.110  0.0454  0.1119  0.1941
23196W        W66187  11.577  14.113  26.623  0.3217 -0.1898 -0.0826
23197W        W66188  34.301  10.553   6.272 -0.1142  0.3463  0.1245
23198W        W66189   1.105  20.091  27.528  0.2805 -0.0789 -0.3973
23199W        W66190  34.269  19.979  28.934  0.1296 -0.2412 -0.0546
23200W        W66191  21.641   4.103  21.863  0.0763 -0.1871 -0.1659
23201W        W66192  12.990   2.656   6.632 -0.1648  0.0679 -0.1345
23202W        W66193  18.805  10.046  24.464  0.1445 -0.3322  0.1207
23203W        W66194  32.293  12.522   7.742 -0.1268  0.1055  0.1046
23204W        W66195  20.612  15.152   6.076 -0.1425  0.2594 -0.2473
23205W        W66196  10.520  31.571   4.673  0.1723 -0.0463  0.0562
23206W        W66197  10.886  11.882   2.921 -0.0345 -0.0052 -0.0026
23207W        W66198  22.402  27.734   3.033 -0.3779  0.0075  0.0292
23208W        W66199  25.069  28.963   6.980 -0.0517  0.2283 -0.2542
23209W        W66200  17.515  12.805   3.941 -0.1436 -0.1089 -0.0984
23210W        W66201  17.475  17.756  26.119  0.0828  0.1422 -0.2381
23211W        W66202  22.755   1.070  26.792  0.0435  0.0506 -0.2367
23212W        W66203  30.832  17.810   9.553 -0.1396 -0.3146  0.0994
23213W        W66204  23.816   6.420   5.565 -0.0548 -0.0571 -0.1535
23214W        W66205  30.245   6.987   7.119  0.1007  0.0654  0.0843
23215W        W66206  13.766  19.775   9.636  0.0869  0.1991  0.0459
23216W        W66207  34.493  17.896  27.256 -0.0726 -0.1970 -0.0785
23217W        W66208  28.251   1.485   8.568  0.2556 -0.0680  0.0264
23218W        W66209  21.960  17.315   0.287 -0.0316  0.1835  0.1059
23219W        W66210  30.027  11.026  28.751 -0.3259 -0.3418 -0.1048
23220W        W66211  21.823   4.348   1.000 -0.5519  0.0639  0.0587
23221W        W66212  22.017   7.237   4.801 -0.1518  0.1431  0.0031
23222W        W66213  10.864  18.247   6.355  0.1189 -0.1879  0.1078
23223W        W66214  25.094  11.913  28.798  0.0891 -0.2468 -0.0809
23224W        W66215  30.275   1.242   2.866 -0.0346 -0.0759  0.1079
23225W        W66216   1.054  27.620   4.795 -0.1419 -0.0856  0.0687
23226W        W66217  11.508  18.292   7.125  0.0123 -0.2394 -0.1807
23227W        W66218  33.555  15.222   4.984 -0.1826  0.1031  0.0074
23228W        W66219  28.629  14.333   5.660  0.0698 -0.0629 -0.2584
23229W        W66220  23.644  23.781   3.730 -0.0793 -0.0101  0.1242
23230W        W66221  24.463  12.983  26.570  0.3779  0.0730  0.1988
23231W        W66222   0.453  29.465   8.442  0.3598 -0.0951  0.0522
23232W        W66223  16.255  12.936  25.470  0.1206 -0.2481  0.0424
23233W        W66224  23.472   6.999   3.708  0.3691 -0.0794  0.3010
23234W        W66225  25.967  15.976   8.792  0.2956 -0.3896  0.0717
23235W        W66226  20.826  16.471  28.319 -0.1702 -0.4646 -0.2241
23236W        W66227  20.638  19.473   1.721 -0.0801 -0.1918  0.0873
23237W        W66228  16.295   5.833   4.567 -0.3115 -0.1585 -0.3153
23238W        W66229   9.333   8.869   6.320  0.2984  0.0148  0.0660
23239W        W66230  27.787  15.748   9.799  0.1004 -0.0233  0.0417
23240W        W66231  23.023  15.595   5.263  0.0868 -0.1966  0.0004
23241W        W66232  24.545  31.201   7.618 -0.1709 -0.0086 -0.0240
23242W        W66233  25.362  25.088  28.842  0.0363 -0.1262 -0.0461
23243W        W66234  11.651  20.720   0.731 -0.2801  0.2927  0.1636
23244W        W66235  18.721   8.130  14.625 -0.0047  0.1245 -0.2317
23245W        W66236   5.798   6.075  24.829  0.0748 -0.2084 -0.3030
23246W        W66237  21.377  16.401  27.585  0.0751 -0.0827 -0.1073
23247W        W66238  27.138   4.767   8.713 -0.4377  0.0798  0.1090
23248W        W66239   8.918  21.916  28.385 -0.1893 -0.3905  0.0621
23249W        W66240  16.738   7.238   2.086  0.2551  0.1845 -0.0391
23250W        W66241  21.604  12.761   2.287 -0.2178  0.1372  0.1175
23251W        W66242   3.784  16.076  17.668 -0.1858 -0.9345  0.1511
23252W        W66243  22.526  12.270  15.771  0.2330  0.1898  0.3992
23253W        W66244  18.450  17.147  28.291  0.3167  0.1802  0.1600
23254W        W66245  32.572  11.734   8.060 -0.0408  0.0047 -0.1654
23255W        W66246  23.831   0.129   3.961  0.0292 -0.2459 -0.3360
23256W        W66247  27.181  17.359  18.414  0.2652 -0.3431  0.0335
23257W        W66248   9.118  22.691  25.385  0.1185  0.0723 -0.0846
23258W        W66249   2.564  31.554   3.290  0.0221 -0.1932 -0.0856
23259W        W66250  28.653  11.276   6.970  0.0382  0.3851 -0.0184
23260W        W66251  19.783  20.889   1.405  0.0674  0.0160  0.0838
23261W        W66252  27.271  23.245   1.321  0.0969  0.6766 -0.1664
23262W        W66253  26.036   7.422   3.731  0.1197  0.1942 -0.0705
23263W        W66254  11.126   7.554   9.419 -0.1391 -0.3334  0.0474
23264W        W66255  14.474  10.701   3.517  0.0567 -0.3338 -0.2310
23265W        W66256  12.194   7.157   1.271  0.1434 -0.0484  0.0419
23266W        W66257   5.712  16.852   0.883 -0.1249 -0.1167  0.2313
23267W        W66258  18.316  10.733   4.195  0.2652 -0.2361 -0.0457
23268W        W66259  26.772  20.057   6.190 -0.2295 -0.0012  0.2589
23269W        W66260  15.599   0.284   7.631  0.0620 -0.1674  0.2628
23270W        W66261   3.433  20.409   8.180  0.0799  0.0115  0.0778
23271W        W66262  27.441  17.111   9.401 -0.0254 -0.0810 -0.1878
23272W        W66263  34.029  19.419   3.160  0.0189 -0.0267  0.1772
23273W        W66264  20.322   5.433   1.323  0.0616  0.1258 -0.0468
23274W        W66265  27.971   8.182   4.492  0.0765 -0.0874 -0.2948
23275W        W66266  14.427   0.811  15.916  0.1089  0.0214  0.2421
23276W        W66267   8.960  20.073  10.987 -0.2988 -0.2036  0.0599
23277W        W66268  22.683  24.688   9.494  0.4604  0.4061 -0.0418
23278W        W66269  17.747  20.362   5.766 -0.0155 -0.2986  0.0098
23279W        W66270  25.620   0.132  20.819  0.1350  0.1946 -0.0137
23280W        W66271  15.623  18.397   2.107  0.1647 -0.0910 -0.0274
23281W        W66272  32.426   9.178  28.938  0.3185  0.0087  0.0681
23282W        W66273  27.983  13.737  10.371 -0.1483  0.1206 -0.3438
23283W        W66274  15.861   4.313   4.072 -0.0789  0.0445  0.1966
23284W        W66275  33.286  14.101   4.204 -0.2193 -0.2972  0.5250
23285W        W66276  31.046  26.623  22.109 -0.0335  0.2401 -0.3312
23286W        W66277  17.890  11.121  24.417 -0.0468  0.3151 -0.4126
23287W        W66278   1.257  12.915   9.321 -0.1811  0.1379  0.0103
23288W        W66279  30.589  12.574   9.042  0.1379 -0.0973  0.0785
23289W        W66280  31.005   8.255   5.439 -0.1221  0.0787 -0.2655
23290W        W66281  24.751   1.629   1.441 -0.2378 -0.1308  0.2404
23291W        W66282  31.365  26.074   7.950  0.1232  0.0205  0.0015
23292W        W66283   4.965   8.992  26.951 -0.0908  0.0931  0.3214
23293W        W66284   3.864  20.436   6.996  0.2192 -0.1537 -0.4568
23294W        W66285   9.479  14.879   6.014  0.1950  0.2402 -0.5897
23295W        W66286  30.707  34.087  27.539 -0.0351 -0.2654  0.1936
23296W        W66287   7.624   5.740  25.223 -0.0334 -0.1771 -0.1141
23297W        W66288  10.702   4.657   4.848 -0.0116 -0.1245 -0.0080
23298W        W66289  18.237  23.801   5.849 -0.1182 -0.1333 -0.0754
23299W        W66290   6.379  13.514   9.288  0.0141 -0.3914  0.1658
23300W        W66291  10.355   8.493   4.645  0.0269 -0.0801  0.0052
23301W        W66292   5.449  33.666   0.210  0.0288 -0.0654  0.2610
23302W        W66293  18.564  27.949  29.004  0.0477  0.1984 -0.1218
23303W        W66294   8.165   0.526  28.493 -0.0806 -0.2041  0.2523
23304W        W66295  21.181  14.902  24.704 -0.1329  0.3166  0.1313
23305W        W66296  33.865  16.672   9.122 -0.0673 -0.2204  0.1905
23306W        W66297  19.362   5.134  14.938 -0.0176 -0.0684  0.2087
23307W        W66298   0.739   9.142   5.023 -0.0823 -0.0156  0.1405
23308W        W66299  13.926  14.291   7.114  0.0097 -0.6795  0.0678
23309W        W66300  13.746   8.117  21.798 -0.2275 -0.2423  0.2146
23310W        W66301  13.697  28.669  21.295  0.0728  0.1307  0.0783
23311W        W66302  20.862   7.494   6.407 -0.0180  0.0862 -0.1431
23312W        W66303  27.294  15.008  21.913 -0.1345 -0.1088  0.0850
23313W        W66304   6.971   5.141   0.622 -0.2686 -0.1399  0.2209
23314W        W66305   0.016  32.409   4.970  0.3779 -0.4258  0.1898
23315W        W66306  21.912  14.431   8.132  0.0849 -0.1896 -0.0401
23316W        W66307  30.556  18.207   9.717 -0.1416  0.0363  0.2037
23317W        W66308  12.341   6.163  18.155  0.0135  0.1790  0.0400
23318W        W66309   9.980   9.028   1.061  0.0204  0.0375  0.2685
23319W        W66310  28.777  10.291   9.066  0.2402  0.2111 -0.1362
23320W        W66311   8.838  10.745  24.310  0.1468 -0.0058 -0.0181
23321W        W66312   0.098   8.019   4.364 -0.2841  0.1815 -0.1780
23322W        W66313  17.780  18.383  25.552  0.0636  0.1519 -0.1712
23323W        W66314  27.983  32.217   1.675  0.1005 -0.0973 -0.0592
23324W        W66315  16.120  16.047   3.483  0.0588  0.0383 -0.1594
23325W        W66316  31.736  19.256   4.423  0.1432  0.0623  0.1889
23326W        W66317  22.148  13.820   4.858  0.1338  0.1770 -0.0889
23327W        W66318  34.528  28.771  28.570  0.0851 -0.0690  0.3644
23328W        W66319  34.659  29.051   5.858  0.1840 -0.2075 -0.1322
23329W        W66320  32.263  19.539  14.261 -0.3783  0.2664  0.0380
23330W        W66321  20.603   9.859  24.449  0.3114 -0.0555 -0.0544
23331W        W66322  26.864   8.933   3.810 -0.0240 -0.2230 -0.1104
23332W        W66323   8.030  14.777   8.627 -0.0421  0.0794  0.0490
23333W        W66324  18.609  17.822   7.839 -0.2887  0.0158 -0.3734
23334W        W66325  25.728  16.180   9.189  0.2712 -0.3859 -0.2538
23335W        W66326   1.210  11.287   3.792  0.0012  0.0506 -0.1153
23336W        W66327  17.347   6.978   1.416  0.0066  0.0270 -0.2200
23337W        W66328  28.256  13.917   9.469  0.1370 -0.1048  0.1722
23338W        W66329   4.606  23.247   7.724 -0.0234  0.0981  0.1049
23339W        W66330  22.852  11.412   9.104  0.0085 -0.1374 -0.1306
23340W        W66331  15.395  13.774  22.207 -0.3089 -0.1528  0.0366
23341W        W66332  17.992   0.072   8.151  0.1235  0.2509  0.0309
23342W        W66333  12.603  13.600   9.936  0.0893 -0.0322 -0.3498
23343W        W66334  23.537   7.934  14.327 -0.0526 -0.1786 -0.1645
23344W        W66335  24.205  20.904   6.391  0.0653 -0.2174  0.0734
23345W        W66336  30.756  18.697  28.222  0.2375 -0.4368  0.2084
23346W        W66337   1.290  18.904  10.035 -0.2902  0.5195 -0.1779
23347W        W66338  19.792  22.311   5.576 -0.0084  0.3596  0.0255
23348W        W66339  28.578  31.341   6.957  0.3061  0.2017 -0.0132
23349W        W66340   1.394  14.297   3.254 -0.0012  0.0674  0.1211
23350W        W66341  32.422  18.966   4.581  0.0829  0.1513  0.3858
23351W        W66342  33.017   6.592   0.069  0.2605 -0.3054  0.0348
23352W        W66343   4.587  11.982   9.115  0.0308 -0.0174 -0.1975
23353W        W66344  12.072   4.258   0.470  0.0726  0.0814  0.0714
23354W        W66345   0.653   5.394   5.548 -0.0934 -0.3163  0.4550
23355W        W66346  19.418   3.500  24.473 -0.0874  0.3317  0.0086
23356W        W66347  29.938  17.595  20.276  0.3172  0.0408 -0.1085
23357W        W66348  23.647   5.833   6.317  0.0439 -0.0050  0.0376
23358W        W66349  34.417   7.646   5.933 -0.1444  0.0617 -0.1115
23359W        W66350  33.087  34.689   9.243  0.1722  0.0648  0.1161
23360W        W66351   6.357  17.577   5.331  0.1463  0.2586  0.2597
23361W        W66352  23.846   4.919   9.360  0.2814  0.1607 -0.2568
23362W        W66353  32.005  21.536   4.329 -0.3690  0.1204  0.2891
23363W        W66354  18.791  33.615  27.018 -0.1657 -0.1376 -0.0189
23364W        W66355  20.102   4.594   4.256 -0.1422  0.4099 -0.1367
23365W        W66356  32.002  13.883  17.288 -0.0295  0.0262 -0.2418
23366W        W66357   4.070  19.493   6.704 -0.1810 -0.1636 -0.1800
23367W        W66358   7.491  27.240   2.119  0.1295 -0.1015 -0.1855
23368W        W66359  22.485  22.481  21.067  0.0603 -0.1558  0.0411
23369W        W66360  32.170   7.987   4.116 -0.2195 -0.3461 -0.5007
23370W        W66361  25.691  33.830   1.913 -0.0865 -0.0236  0.0035
23371W        W66362  18.126  17.089   7.178 -0.1612  0.1522 -0.1377
23372W        W66363  18.525  19.183   5.593 -0.0341  0.1157  0.1119
23373W        W66364  19.949  12.324   7.547 -0.0573 -0.1080 -0.0054
23374W        W66365  30.459  28.500  26.555 -0.2001 -0.3261 -0.0686
23375W        W66366  25.622  12.376  27.755 -0.2727 -0.1452 -0.1665
23376W        W66367   0.526  24.647   9.744  0.2344 -0.0645 -0.1239
23377W        W66368   3.871   6.249  10.655  0.0473  0.3616 -0.0080
23378W        W66369  20.252  13.403   1.069  0.0303 -0.1039  0.2726
23379W        W66370  20.726  13.421  20.403  0.0016 -0.0917 -0.3507
23380W        W66371  18.663  14.589   8.421  0.0112  0.1788  0.1028
23381W        W66372   9.709  28.312  22.710  0.0633  0.5168 -0.0747
23382W        W66373   9.855  28.810   6.090  0.1371 -0.2633  0.1076
23383W        W66374  31.863  10.985   1.645 -0.2462 -0.3402  0.1733
23384W        W66375  13.006  19.683   7.098  0.1384 -0.3352 -0.1156
23385W        W66376  18.186   5.593   7.609  0.1710 -0.2633 -0.2336
23386W        W66377  16.991   4.871  27.611  0.0062  0.0000  0.3474
23387W        W66378  32.966  25.682   0.851 -0.0713  0.0065  0.0432
23388W        W66379   8.688  22.945   4.664  0.0614 -0.2197 -0.0443
23389W        W66380  25.607  29.272   1.133 -0.3577 -0.1484  0.2477
23390W        W66381  15.901  17.226   5.854 -0.1126 -0.2131 -0.2677
23391W        W66382   5.617  27.940   3.059 -0.2575 -0.0133  0.0175
23392W        W66383  13.352   4.628   9.941 -0.0034  0.0949 -0.0771
23393W        W66384   8.215  30.239  10.135 -0.1200 -0.2184 -0.1509
23394W        W66385  25.797  19.854   6.230 -0.0846  0.1037 -0.0737
23395W        W66386  20.307  29.110  26.195 -0.1917  0.0305 -0.3624
23396W        W66387  31.287  19.319   8.253  0.1929 -0.0970  0.1938
23397W        W66388  15.446   9.035   1.055 -0.0141 -0.0646 -0.0305
23398W        W66389   9.512  24.376  25.218 -0.0343 -0.0792 -0.2404
23399W        W66390  16.230  24.266   3.470  0.2817  0.1110 -0.2636
23400W        W66391  33.627  10.619   4.741 -0.0081  0.1539 -0.0122
23401W        W66392  19.611  26.402   1.622 -0.2475 -0.3984 -0.3013
23402W        W66393  14.397  11.929  10.468  0.1649  0.2255 -0.1929
23403W        W66394  13.566   4.704   2.559 -0.1601 -0.0818  0.1620
23404W        W66395  22.832   7.093  23.111 -0.5006 -0.1638 -0.0242
23405W        W66396  26.750  19.820   7.310  0.2005 -0.1440  0.2120
23406W        W66397   3.035  14.295  19.663  0.4401  0.0923 -0.0895
23407W        W66398  15.009   8.220   2.975 -0.1712 -0.0073  0.1599
23408W        W66399  23.737  10.283   2.729 -0.4376 -0.3335 -0.1610
23409W        W66400  25.749  12.634   1.933 -0.0235  0.0801  0.1129
23410W        W66401  27.547  12.033   0.658  0.0664 -0.0880  0.1298
23411W        W66402  27.998  11.907   9.475  0.1742 -0.0670 -0.2128
23412W        W66403  12.426  13.656  28.500  0.1554 -0.1492  0.1226
23413W        W66404  20.435  11.989  23.854  0.3218 -0.1007  0.1677
23414W        W66405  18.319   7.102  26.013  0.0183 -0.1855  0.2703
23415W        W66406  10.909   5.348   6.502 -0.4658 -0.0651  0.0245
23416W        W66407  25.127  26.356  22.232 -0.0377  0.0446  0.2568
23417W        W66408  28.371  14.822  10.275  0.0339 -0.0474  0.0822
23418W        W66409  21.697  13.995   0.796  0.2636  0.0384 -0.3018
23419W        W66410   0.772   1.775   1.930 -0.1335 -0.0113 -0.0300
23420W        W66411  26.030  13.491   0.217  0.0435 -0.0017  0.1037
23421W        W66412  32.547   4.823   0.388 -0.0332  0.1483  0.0552
23422W        W66413  30.259   6.660   3.133 -0.0923 -0.2346 -0.0931
23423W        W66414   0.212  23.074   8.889 -0.0903 -0.0147  0.1199
23424W        W66415  30.646  15.772  27.010  0.1673  0.0737 -0.3823
23425W        W66416  21.867   1.144   4.741 -0.1784 -0.1655  0.3808
23426W        W66417  31.293  10.717  11.261  0.3323  0.1642  0.0542
23427W        W66418  23.782  29.975   3.065  0.0955  0.1613  0.0399
23428W        W66419  27.682  11.741  24.893 -0.1477  0.1398 -0.2201
23429W        W66420   4.208   7.492   8.899  0.1253 -0.2234 -0.0666
23430W        W66421   2.953  28.869   5.906 -0.0691  0.0082  0.2186
23431W        W66422  18.915  29.818   3.195  0.0064 -0.0259 -0.0434
23432W        W66423   6.583  20.315   4.628  0.0726 -0.2311  0.2427
23433W        W66424  31.960  27.406   0.881 -0.2595 -0.1185  0.3633
23434W        W66425  23.535  20.323  24.310 -0.3664 -0.4178 -0.1813
23435W        W66426  33.498  32.586  17.558 -0.1802 -0.0146 -0.2261
23436W        W66427  18.119   5.228   7.245 -0.0475  0.1244  0.0893
23437W        W66428   4.470  16.525   2.189  0.2253 -0.0839  0.3317
23438W        W66429  31.565   2.860  27.096 -0.1829 -0.3131  0.1869
23439W        W66430   6.483   6.321   4.132  0.2971 -0.0369  0.0059
23440W        W66431  21.135  10.875   9.244  0.0947  0.0492  0.1456
23441W        W66432   7.401  34.580   4.037 -0.3414 -0.0868 -0.0049
23442W        W66433  18.069  14.084  14.954 -0.1014 -0.0795  0.0015
23443W        W66434  28.878  16.519   9.724  0.1804  0.2837 -0.0233
23444W        W66435  20.297  16.164  24.145  0.2209  0.0773 -0.1806
23445W        W66436  23.121  16.550   5.244  0.3457  0.1730  0.3585
23446W        W66437  29.400  12.282  28.402  0.2613 -0.0906 -0.1326
23447W        W66438   2.351  11.470   0.527 -0.0092  0.0818 -0.2514
23448W        W66439  20.155  19.126   4.673 -0.1872  0.1112 -0.0865
23449W        W66440   8.046  17.161   0.963 -0.1192 -0.1574  0.1360
23450W        W66441  22.225  16.343  28.545  0.0184  0.0454 -0.1539
23451W        W66442  28.998  22.264   9.283 -0.1290  0.2622 -0.2306
23452W        W66443  18.756  15.157  20.673  0.1972 -0.2124  0.0161
23453W        W66444  31.723  23.019   3.771 -0.0348 -0.3412  0.0606
23454W        W66445  31.604   6.888   8.272 -0.2075 -0.1446  0.2231
23455W        W66446  17.336  12.376   1.199  0.1854 -0.3430  0.2134
23456W        W66447  22.983   9.109   5.002  0.0758 -0.3015  0.4112
23457W        W66448   0.413   9.625   8.169  0.1068  0.1753  0.0149
23458W        W66449  30.778  14.983   8.688  0.1450  0.2820  0.0851
23459W        W66450  23.882   4.234  26.011  0.0620  0.0604 -0.0230
23460W        W66451  14.750   9.642  22.368 -0.0630  0.0228 -0.1314
23461W        W66452  26.096  16.917   6.293 -0.0457  0.1583 -0.1643
23462W        W66453  11.355   4.226  21.877  0.0061 -0.0763  0.0129
23463W        W66454  22.443   8.210   9.138 -0.1872 -0.3304  0.1213
23464W        W66455  21.448  19.939   0.200 -0.2520 -0.1328  0.1413
23465W        W66456  24.954  27.558   7.996 -0.1231  0.3073 -0.0162
23466W        W66457  10.126   2.224   4.374 -0.1694 -0.2673  0.2231
23467W        W66458   1.569  27.553   5.527 -0.1689 -0.0229  0.1345
23468W        W66459  27.018  15.828   5.313 -0.2596  0.0297 -0.2834
23469W        W66460   6.348  19.693   1.472 -0.0603  0.1195  0.0498
23470W        W66461   9.905  12.629  22.229 -0.1612 -0.0548  0.0004
23471W        W66462  15.575  29.044   1.480  0.2322 -0.2328  0.1578
23472W        W66463   4.785  10.567   7.915  0.0897 -0.0966 -0.1004
23473W        W66464  22.903  20.958  25.262  0.2698  0.2006  0.0980
23474W        W66465  24.470   3.856  26.348 -0.1958 -0.3374  0.0221
23475W        W66466  16.268  32.568   1.085  0.0465 -0.2127  0.0420
23476W        W66467  29.069  19.034   8.017  0.1464 -0.1036  0.0833
23477W        W66468  12.435  17.843   2.014  0.1833  0.1935  0.0883
23478W        W66469  31.837   7.193  25.790  0.2624 -0.0854 -0.1124
23479W        W66470  22.061  13.926   3.943  0.0563  0.2071  0.1635
23480W        W66471  28.157  16.140   0.887 -0.0109  0.4064 -0.3297
23481W        W66472   0.022  10.800  26.521 -0.0385 -0.0660  0.1914
23482W        W66473  32.045  20.626  24.863 -0.1118 -0.3917  0.0513
23483W        W66474  27.089  12.211   3.235 -0.1780 -0.0838  0.1406
23484W        W66475   1.186  18.365   8.368  0.1406  0.1372  0.2422
23485W        W66476  19.160  11.952   7.751  0.0936  0.3544  0.0530
23486W        W66477  21.999  21.486  27.855 -0.2009  0.1163 -0.2602
23487W        W66478  12.397  26.603   5.410  0.2238  0.1555 -0.2525
23488W        W66479  18.085  18.519   9.071 -0.1354  0.1051  0.0246
23489W        W66480   9.863  24.524   2.080  0.0580  0.1085  0.1069
23490W        W66481   2.662  14.999  11.785 -0.2560 -0.1731 -0.0953
23491W        W66482  30.277  25.933  28.433  0.0202 -0.0613  0.0063
23492W        W66483  24.604  20.950  28.486 -0.4916  0.1199  0.3193
23493W        W66484  21.662  18.126  18.920  0.0892  0.0505  0.3444
23494W        W66485  12.051   0.662   4.814  0.1025  0.1314  0.0389
23495W        W66486   7.895   5.624   6.836  0.2473  0.2010  0.0575
23496W        W66487  15.682  19.601   5.122  0.1435  0.3540  0.0836
23497W        W66488  21.195  24.990   5.621  0.1380 -0.1233 -0.2668
23498W        W66489   3.462  13.892   9.381  0.1675  0.2961  0.0149
23499W        W66490  12.346   8.033   0.976  0.0732 -0.2133  0.0580
23500W        W66491  31.470   3.123   7.095 -0.0375  0.2395  0.3729
23501W        W66492  26.544  25.375   5.184  0.0058  0.2883 -0.0437
23502W        W66493  23.846  15.282   8.252 -0.1893 -0.2234  0.1576
23503W        W66494  11.701  19.680   7.680 -0.0244  0.1347 -0.2420
23504W        W66495  17.421  15.365  27.769 -0.1268  0.2595  0.0880
23505W        W66496  21.476  18.093   2.113 -0.2436 -0.1687 -0.0829
23506W        W66497   4.663  20.419   7.537  0.3509 -0.2270  0.1059
23507W        W66498  26.441   8.463   5.189  0.0457  0.0234 -0.0690
23508W        W66499  21.083  22.776   8.129  0.1489  0.1018  0.5228
23509W        W66500  32.775  20.594   5.065  0.1860  0.1064 -0.1901
23510W        W66501  27.188  33.032   2.904 -0.1667  0.3329  0.0142
23511W        W66502   5.203  22.598   2.876  0.2759 -0.2463 -0.2734
23512W        W66503  12.865  15.954   2.485  0.2016 -0.1376 -0.1258
23513W        W66504  20.377  21.850  29.189 -0.4835 -0.0893 -0.1637
23514W        W66505  23.753  15.585   1.768 -0.0081 -0.0720  0.2799
23515W        W66506  33.731   6.372   8.748  0.2430  0.2527 -0.1092
23516W        W66507  14.727  21.221  20.154  0.0215 -0.5371 -0.0797
23517W        W66508  26.291  10.173   5.328 -0.2039 -0.0617  0.1845
23518W        W66509  14.609   4.515  17.223  0.2119  0.0079 -0.0825
23519W        W66510   6.234  25.977  14.555  0.1164  0.2123 -0.0210
23520W        W66511  13.827   7.743  28.524  0.0776  0.1345  0.1374
23521W        W66512  25.394  15.908  25.894  0.0063 -0.2330  0.2955
23522W        W66513  28.522  20.884   5.300  0.2171 -0.2707  0.1830
23523W        W66514  21.219   8.366   0.599  0.1093 -0.0243 -0.0569
23524W        W66515  15.923  21.234   7.146 -0.0164  0.0673 -0.0627
23525W        W66516  13.483  30.752   1.496 -0.0161 -0.0185 -0.0885
23526W        W66517  23.358   5.452   6.043 -0.0183  0.0486 -0.0172
23527W        W66518  14.712   1.244  16.887 -0.0266 -0.0616  0.2720
23528W        W66519  18.999  28.919  25.336 -0.0042  0.0869  0.1839
23529W        W66520  16.450   4.951  25.601 -0.0703 -0.0261 -0.2066
23530W        W66521   9.288  24.566   0.042  0.5906 -0.1719 -0.5821
23531W        W66522  11.678  21.078   2.366 -0.4384 -0.1331 -0.0791
23532W        W66523  25.821  23.562  21.219  0.1271 -0.1249 -0.0218
23533W        W66524  18.021  12.264   1.853 -0.0603  0.0382  0.0588
23534W        W66525  22.949   7.084   2.036 -0.0035 -0.2221  0.1972
23535W        W66526  32.571  11.372   6.125  0.0727 -0.2350 -0.0507
23536W        W66527  11.893  10.496  28.783  0.1205 -0.1299 -0.2327
23537W        W66528   4.112   3.941  24.474 -0.2268  0.2128 -0.0963
23538W        W66529   3.928  18.003  18.614  0.1125 -0.0074 -0.1900
23539W        W66530  12.968  11.718  10.608 -0.2277 -0.4788 -0.2898
23540W        W66531   9.734  20.677   3.784  0.1177 -0.1829 -0.0737
23541W        W66532  12.328  30.844   3.234 -0.2411  0.2403  0.0986
23542W        W66533  29.438   8.847  24.943  0.3026  0.0290 -0.1244
23543W        W66534  29.393  25.573   9.248 -0.1432  0.0825  0.1419
23544W        W66535  11.566  21.728   1.546  0.3166 -0.2241 -0.2156
23545W        W66536  32.411   6.729   3.447  0.1398 -0.2616 -0.5719
23546W        W66537   2.844  19.123   9.957 -0.0384  0.0962 -0.0607
23547W        W66538  26.847  15.428   9.893 -0.1385  0.1928 -0.1001
23548W        W66539  23.641   8.155  27.785 -0.1200 -0.0593 -0.3648
23549W        W66540  21.348  34.684   8.400  0.0066  0.0036  0.4057
23550W        W66541   1.068   3.840   5.370  0.0681  0.0740  0.2204
23551W        W66542  13.211  24.964  25.166 -0.0907  0.0073 -0.0170
23552W        W66543  33.291  15.311  10.039 -0.2801 -0.4453  0.3171
23553W        W66544  21.803  16.263   5.611  0.3536 -0.0121 -0.0275
23554W        W66545   1.237  16.290  25.019 -0.1085 -0.0264 -0.2767
23555W        W66546  20.128  11.057  16.486  0.2160  0.1139 -0.1988
23556W        W66547  26.455  26.979  15.226  0.0810  0.1971  0.1626
23557W        W66548  33.791   1.456   5.404  0.1380 -0.0110  0.0205
23558W        W66549  27.920  11.329  17.384  0.3345 -0.0020  0.3564
23559W        W66550  10.885   4.592   9.192 -0.4286 -0.1698 -0.1594
23560W        W66551  21.364  25.889  20.304  0.2476  0.0185  0.4792
23561W        W66552  28.057  21.339  20.737 -0.1045 -0.0765  0.0490
23562W        W66553   7.343   5.743  27.460  0.0937 -0.2747 -0.1735
23563W        W66554  31.195  34.232  27.465 -0.1613 -0.0754  0.2221
23564W        W66555  20.066   6.535   7.129 -0.1075 -0.1036  0.2223
23565W        W66556  23.137  23.979   3.670 -0.0556 -0.4090 -0.2445
23566W        W66557  29.735   9.311   9.502 -0.2010 -0.1577 -0.1481
23567W        W66558  22.223  19.665   4.776 -0.1690  0.2131 -0.3735
23568W        W66559  18.835  19.893   3.900  0.0058 -0.2659  0.0232
23569W        W66560  16.647  15.676   1.928  0.1398  0.0659  0.2139
23570W        W66561  10.665  19.484   7.970 -0.0056 -0.0649 -0.0491
23571W        W66562   5.885  20.860   1.901 -0.3346  0.0575 -0.0725
23572W        W66563  34.199  17.219   9.840 -0.1319 -0.1864 -0.0696
23573W        W66564  20.051  15.304   4.710 -0.2074  0.2098  0.0251
23574W        W66565  16.018  24.210  27.069 -0.0230 -0.1066 -0.0896
23575W        W66566  23.526  19.504   3.827 -0.3637 -0.1244 -0.3835
23576W        W66567  15.750  22.409  22.101 -0.0154 -0.2136  0.3199
23577W        W66568  21.152  18.982  28.510 -0.3159 -0.0741  0.0561
23578W        W66569  10.552  22.694   1.878  0.2071  0.3162 -0.3607
23579W        W66570  12.883  13.798   8.026 -0.2312 -0.0682  0.5752
23580W        W66571  11.252   1.262   9.490  0.2033  0.1175  0.1651
23581W        W66572  14.940  22.011   7.857  0.0214  0.1316  0.0717
23582W        W66573  28.177  22.675   6.843 -0.2999  0.2330 -0.2417
23583W        W66574  31.086  22.897   5.249 -0.0331 -0.3321  0.2552
23584W        W66575   3.838  17.434   8.163 -0.2369 -0.2888  0.2746
23585W        W66576  20.301  27.830   7.505  0.2926  0.1651  0.0729
23586W        W66577  20.678  19.988   3.759  0.0237  0.4198  0.2107
23587W        W66578   9.243  15.740   7.653  0.0820 -0.5747 -0.0055
23588W        W66579  25.216   3.762   1.301  0.2875  0.0797  0.2964
23589W        W66580   2.212  20.922   4.705  0.2246  0.0931  0.2752
23590W        W66581  27.387  13.769   4.928 -0.0509 -0.1311  0.2019
23591W        W66582  18.765  19.794  29.262 -0.1305  0.0022  0.3229
23592W        W66583  17.792  18.726  26.550 -0.0370  0.0261  0.1666
23593W        W66584  17.396  21.054  26.178  0.0875  0.1638 -0.0290
23594W        W66585  15.099  15.677   6.015 -0.0250 -0.0661 -0.0426
23595W        W66586  23.273  18.154   3.876 -0.1312 -0.1076 -0.0839
23596W        W66587  16.940  19.737   0.048 -0.1025  0.0309  0.1665
23597W        W66588  29.798  28.647  19.114 -0.1243 -0.0465 -0.0347
23598W        W66589  30.019  30.762   3.181  0.1402  0.0422  0.1692
23599W        W66590  21.431  10.376   0.987  0.1194 -0.0336 -0.0377
23600W        W66591  16.928  14.371  27.146 -0.2559  0.0502  0.0278
23601W        W66592  17.629  31.841   8.734 -0.0138 -0.2733 -0.0705
23602W        W66593  18.302  22.279  25.823 -0.3341 -0.0664  0.1111
23603W        W66594  25.285  18.236   4.140 -0.4344 -0.2849  0.2107
23604W        W66595  11.517  25.244  19.011  0.0449 -0.1256 -0.2588
23605W        W66596  26.721  18.281  24.954 -0.0680  0.0387 -0.3403
23606W        W66597  14.246  33.786  25.706  0.1680  0.0265  0.2265
23607W        W66598  22.792  13.594  21.137  0.1131  0.2381 -0.1745
23608W        W66599  33.570  19.497   0.858  0.0123  0.0946 -0.5226
23609W        W66600  26.064  11.189   5.799 -0.1156  0.0276  0.1301
23610W        W66601  22.579   2.747   8.477  0.0844  0.0027 -0.1423
23611W        W66602  18.501  18.097  24.177 -0.2163 -0.1434  0.2970
23612W        W66603  26.842  22.211   5.480  0.2527 -0.0342 -0.0379
23613W        W66604  17.481   8.102   0.224  0.5582 -0.1660 -0.0302
23614W        W66605   8.950  20.563   8.313  0.0635 -0.0001 -0.3099
23615W        W66606  18.586  29.074   8.150 -0.1620 -0.0653 -0.1294
23616W        W66607  32.657  24.435   4.280  0.0279 -0.1004  0.1231
23617W        W66608  18.480  11.176  26.873 -0.2534  0.0551 -0.1421
23618W        W66609  16.592  18.206  25.062  0.1588  0.3560  0.2017
23619W        W66610  25.918  13.246   9.777  0.3350  0.0083 -0.0311
23620W        W66611  24.546  19.585  18.035 -0.1804  0.1215  0.1882
23621W        W66612  13.349  19.198   0.350 -0.1919  0.0443  0.1862
23622W        W66613   3.755   7.294   9.898  0.2347 -0.0429  0.1873
23623W        W66614   0.137   4.389   1.467  0.3503  0.2098  0.3012
23624W        W66615   2.448   9.660  28.992  0.2345  0.1644  0.4999
23625W        W66616  20.000  24.173  28.506 -0.3689  0.0083  0.1111
23626W        W66617  23.357   2.616   1.909 -0.0671 -0.1451 -0.0453
23627W        W66618  18.227  22.983   3.578  0.1730  0.1078 -0.1748
23628W        W66619  11.858  15.904   7.264  0.0533 -0.1710 -0.1832
23629W        W66620  21.347  22.526  13.266  0.0132  0.1336 -0.0952
23630W        W66621  32.868  21.004   6.000 -0.1968 -0.0669  0.2326
23631W        W66622  19.912  12.474   8.059  0.0566  0.0136  0.0892
23632W        W66623   8.557  23.306   4.050 -0.0194  0.1051 -0.1268
23633W        W66624  22.488  19.589   7.539  0.0106 -0.0793 -0.2494
23634W        W66625  19.034  20.466   6.075  0.1963 -0.1176 -0.1668
23635W        W66626  32.821  16.993  28.540 -0.1329 -0.4054  0.1254
23636W        W66627  11.133  23.371   1.897 -0.1108  0.0004  0.1197
23637W        W66628   4.907   2.099   8.934 -0.1744 -0.2380 -0.0945
23638W        W66629  12.259  14.447  24.453 -0.0079  0.0691 -0.2480
23639W        W66630  18.022  16.256  25.042  0.1277 -0.1453  0.0647
23640W        W66631  28.931  34.700   6.020  0.0423  0.0827  0.1304
23641W        W66632  22.388   6.894  23.113 -0.1699  0.0161  0.0147
23642W        W66633  10.580  18.734   5.205  0.1784  0.1212  0.0521
23643W        W66634  18.384  10.852   1.803 -0.2997  0.0331  0.3847
23644W        W66635  10.231  20.386   9.859 -0.2307 -0.2391  0.1417
23645W        W66636  22.344  20.131   6.381  0.0709 -0.1338  0.1536
23646W        W66637  11.269  27.409  11.034  0.1501 -0.0586 -0.1081
23647W        W66638  13.547  20.950  20.921 -0.1841 -0.0310 -0.2132
23648W        W66639  26.326  20.502   0.363 -0.0928  0.0205 -0.2329
23649W        W66640  19.253  16.131   7.630  0.1431  0.0557 -0.0555
23650W        W66641  25.153   4.588   9.557  0.1309  0.0848 -0.1687
23651W        W66642  24.487  18.962   1.675 -0.3847 -0.0198 -0.1045
23652W        W66643  18.669  21.139  28.559  0.2784 -0.1184 -0.1237
23653W        W66644  18.890  28.809  20.057 -0.1614  0.4066  0.0857
23654W        W66645  12.337  14.334   4.774 -0.3014  0.3388 -0.0444
23655W        W66646  18.245  17.197  23.792 -0.0023 -0.1613  0.0971
23656W        W66647  31.699   4.511   4.170 -0.0975  0.3419 -0.2241
23657W        W66648  22.460  27.555   9.065  0.0810 -0.2996 -0.2398
23658W        W66649  30.083  26.091  22.332  0.0078  0.0467  0.1253
23659W        W66650  24.841  19.046  23.193 -0.1772 -0.1282  0.3689
23660W        W66651  22.435  12.892   8.207 -0.3354  0.0402  0.0363
23661W        W66652  22.591  25.461  22.865  0.1580  0.0099  0.0939
23662W        W66653   1.768  18.848   8.414  0.1119 -0.1889 -0.1163
23663W        W66654  33.076  19.230  29.017  0.0213  0.0471 -0.0905
23664W        W66655  31.519  16.645  21.772  0.0067 -0.0586  0.2956
23665W        W66656  26.106  15.334  28.119 -0.2472 -0.3611  0.0223
23666W        W66657  14.493  25.974   0.156 -0.2605 -0.0313 -0.0712
23667W        W66658  22.758  21.140   4.079  0.1323 -0.4140 -0.1020
23668W        W66659  20.293  31.607   7.053  0.2551  0.2200  0.1277
23669W        W66660  27.503  10.713  26.786 -0.1455  0.4835 -0.2330
23670W        W66661  23.472   2.191  19.652 -0.0010 -0.0128  0.0352
23671W        W66662   1.533  14.836   1.745  0.0647 -0.2839 -0.2546
23672W        W66663  24.270  32.671  24.645  0.1018 -0.0888 -0.0981
23673W        W66664  24.483  19.809   4.994  0.1979  0.0009 -0.1535
23674W        W66665  27.294  29.718  28.150  0.2236 -0.0377  0.1107
23675W        W66666  30.211  11.057  28.260  0.1122 -0.1755 -0.0946
23676W        W66667  27.576  26.628  23.211  0.0654  0.2031 -0.0964
23677W        W66668  18.595  28.913   4.135  0.2859  0.3851  0.0116
23678W        W66669  21.137  20.652   8.698  0.3415 -0.0275  0.0522
23679W        W66670  25.468   8.478  27.706  0.5394  0.1645  0.1627
23680W        W66671  14.141  22.243  27.550 -0.2090  0.0196  0.2712
23681W        W66672  11.810  24.817  26.848 -0.2741  0.0994  0.4080
23682W        W66673  11.957  26.908  21.785 -0.0127  0.1477 -0.0275
23683W        W66674   4.586  18.542  27.761  0.1572  0.1319 -0.1136
23684W        W66675  12.797  32.035   2.943  0.0223 -0.3884 -0.0125
23685W        W66676  21.775  19.459  23.263  0.0558  0.2330 -0.0688
23686W        W66677  33.942  16.612  15.891 -0.0861 -0.1170 -0.2339
23687W        W66678  11.290   5.164   1.057  0.0781  0.0880  0.0076
23688W        W66679  13.819  20.339   4.821 -0.0301 -0.2306  0.0514
23689W        W66680  18.185   4.738   8.107  0.1035  0.1378 -0.1441
23690W        W66681  29.351  15.664   6.881  0.0151 -0.2858 -0.0788
23691W        W66682   6.151  17.121   8.667 -0.0701  0.0560  0.0035
23692W        W66683  33.206  25.173   2.139  0.2518  0.2378 -0.3465
23693W        W66684  27.447  21.218   8.438  0.1607  0.1122 -0.1387
23694W        W66685  23.888  26.840  29.178  0.1237  0.0488 -0.3987
23695W        W66686  14.967  31.728   5.755 -0.3064 -0.0604  0.0254
23696W        W66687  14.174  17.342   8.724 -0.2889  0.0657 -0.1751
23697W        W66688  33.217  11.396   8.116  0.1379  0.1958 -0.1197
23698W        W66689  32.651  19.270   8.739  0.4273 -0.0221 -0.0016
23699W        W66690  34.385  20.067  10.882  0.1901 -0.0110  0.0270
23700W        W66691  22.476  13.144   4.458  0.1522  0.0947 -0.2278
23701W        W66692  32.579  16.051   0.956 -0.1425 -0.0722 -0.0055
23702W        W66693   7.506  28.018   8.500 -0.0491 -0.0696  0.1334
23703W        W66694  32.538  19.950  26.668 -0.1530 -0.1467 -0.0933
23704W        W66695  31.481  12.101   0.194  0.1782  0.1173 -0.0143
23705W        W66696   6.340  18.421  27.132  0.0604 -0.0188  0.1061
23706W        W66697  17.303  31.998  23.049  0.0714  0.1654 -0.2742
23707W        W66698  23.641  10.367   8.903  0.1354 -0.2292 -0.2379
23708W        W66699  24.219  16.186  21.815 -0.1401  0.2486 -0.0996
23709W        W66700  15.757  16.620  15.381  0.4019  0.0254  0.3054
23710W        W66701  22.178  22.063  27.081 -0.0060 -0.1101  0.1869
23711W        W66702  26.702  17.921   0.180 -0.1973  0.2832 -0.0078
23712W        W66703   3.549  15.276   6.884 -0.0665 -0.1995  0.1125
23713W        W66704  26.495  31.817  22.633 -0.2043  0.2673 -0.0036
23714W        W66705  22.554  12.682   4.384  0.0220 -0.0850 -0.5643
23715W        W66706  24.270  31.231  20.556 -0.1546 -0.0104 -0.0478
23716W        W66707  24.836  19.440  19.968 -0.0924 -0.1773  0.0617
23717W        W66708  33.301  14.697   6.798  0.0252 -0.2887 -0.0549
23718W        W66709  18.701  26.335  27.620 -0.0984  0.0268  0.1507
23719W        W66710  26.529  15.823  21.096 -0.1716 -0.0175 -0.1194
23720W        W66711  24.075  18.159   0.278 -0.1487  0.0655 -0.4329
23721W        W66712  22.135  17.851   1.068 -0.0320  0.1323 -0.2768
23722W        W66713  18.641  15.026   6.111 -0.0922  0.1373  0.2719
23723W        W66714  22.896  17.127  17.350 -0.0203 -0.0354  0.1912
23724W        W66715  25.620  23.718  24.907  0.0829  0.2232  0.2009
23725W        W66716  10.819  30.491   8.295  0.1206  0.0161  0.2948
23726W        W66717  21.347  19.659   6.000  0.1359 -0.0804 -0.4708
23727W        W66718  34.367  23.027   3.851 -0.2101  0.1412  0.2457
23728W        W66719  16.777   0.527  21.288 -0.0469 -0.3423 -0.1762
23729W        W66720  15.562   9.539   8.409  0.1874  0.1517  0.1701
23730W        W66721  10.490  15.280   7.002 -0.1801  0.3422  0.2673
23731W        W66722  18.336  30.421  28.100 -0.0443 -0.1547 -0.0602
23732W        W66723  20.279   3.905   4.080 -0.0371 -0.0468  0.1940
23733W        W66724   5.297  33.126  21.750 -0.1829 -0.1040 -0.0427
23734W        W66725  19.669   9.708   6.427  0.1685 -0.0028 -0.0981
23735W        W66726  24.852  22.390   6.998  0.0419  0.0569 -0.0659
23736W        W66727  25.863  34.017   4.600 -0.0202  0.2651 -0.3076
23737W        W66728   2.810  27.432   9.138  0.0672  0.3279 -0.3699
23738W        W66729   0.088  33.402   3.060 -0.0120 -0.2140 -0.2593
23739W        W66730  24.011  19.289   4.179 -0.2947  0.0210  0.2029
23740W        W66731  13.636  22.795  29.241 -0.0635 -0.2207  0.0866
23741W        W66732  28.442  27.938   6.086  0.1115  0.0923  0.0896
23742W        W66733  23.225  10.056   2.127 -0.0249  0.1070  0.0551
23743W        W66734   4.396  18.861   3.514  0.3755 -0.0459  0.2485
23744W        W66735  20.940  20.627   6.396 -0.1531 -0.2590 -0.2256
23745W        W66736  14.639  28.622   8.522  0.1976  0.1138  0.1596
23746W        W66737  24.463  20.287  20.096  0.4015  0.2392 -0.0948
23747W        W66738   5.106   0.595   4.417  0.1157  0.0087 -0.2645
23748W        W66739  31.002   6.587  20.602  0.1912  0.1398 -0.1054
23749W        W66740  26.806   8.678   9.487  0.2404  0.1385 -0.0420
23750W        W66741  20.361  22.189  14.158  0.0562 -0.1857 -0.0672
23751W        W66742  18.587   9.587   7.126 -0.3735 -0.0194  0.1853
23752W        W66743  23.494  17.637  17.517 -0.2130 -0.0462  0.0465
23753W        W66744   1.008  19.279   8.425  0.2476 -0.1215 -0.0785
23754W        W66745  20.046  20.762   7.082 -0.1451 -0.1667  0.0839
23755W        W66746  14.435  11.286   9.919  0.1296 -0.0251 -0.1740
23756W        W66747  22.200  19.582  22.946 -0.1285  0.1793  0.0484
23757W        W66748   5.914  16.828   9.020  0.3012  0.2290  0.1484
23758W        W66749  12.649  25.547  27.843  0.1394 -0.2708  0.0604
23759W        W66750  15.700   5.074  10.544 -0.2568 -0.3830 -0.1215
23760W        W66751  18.489  32.591   1.232  0.0652  0.0836  0.0889
23761W        W66752  30.361  24.304   8.891  0.1401 -0.1117 -0.1342
23762W        W66753  33.133  16.911  10.756  0.1502 -0.0467 -0.2911
23763W        W66754  17.231  14.626  26.832  0.0216 -0.0230 -0.3949
23764W        W66755   0.047   5.922   2.179 -0.3023  0.1773 -0.0158
23765W        W66756   9.386  13.568  20.711  0.0390 -0.1908 -0.1909
23766W        W66757  30.540   9.457   7.193  0.1442  0.2024 -0.0210
23767W        W66758  23.759   2.062   1.921  0.1801 -0.0394  0.1507
23768W        W66759  21.772  28.348  29.002 -0.1147 -0.1013  0.1144
23769W        W66760  19.601  24.517  27.221  0.4122  0.0043  0.0068
23770W        W66761  16.649  25.895  24.524  0.5840  0.2337  0.2262
23771W        W66762   0.992  22.853   1.307  0.0736  0.3164  0.1067
23772W        W66763  30.271  21.715  21.951 -0.0240  0.0336 -0.1922
23773W        W66764  23.668  15.896   5.904  0.0146 -0.3584  0.0735
23774W        W66765   5.533  16.805  28.212 -0.2663  0.2902  0.0296
23775W        W66766  15.866   2.833   6.222 -0.0384  0.1311 -0.1899
23776W        W66767   8.501  33.205   8.922 -0.1009 -0.0414  0.1409
23777W        W66768   1.795   3.148   4.038  0.0902  0.1848 -0.0410
23778W        W66769   4.606  32.081  28.325 -0.0889 -0.1682 -0.2228
23779W        W66770  20.757   2.856  25.426 -0.0030 -0.1280 -0.1384
23780W        W66771   8.081  26.083  28.689  0.1029  0.0554 -0.4292
23781W        W66772  21.166  25.521   6.987 -0.1677 -0.1059 -0.0825
23782W        W66773  28.183  17.999   4.779 -0.0032 -0.1091 -0.0959
23783W        W66774  31.421  26.818  16.891  0.1527 -0.2943 -0.1896
23784W        W66775  14.508  25.308  28.365 -0.2933 -0.1981 -0.2307
23785W        W66776  32.549  14.089   7.486 -0.2712  0.1684 -0.1198
23786W        W66777  29.568  10.014  28.534 -0.0594  0.1522 -0.0255
23787W        W66778  23.298   9.117   6.459  0.1649  0.2103  0.1182
23788W        W66779   6.090  14.706  10.472 -0.0192 -0.0973  0.0985
23789W        W66780  17.203   1.321  21.119 -0.0887 -0.2204 -0.1770
23790W        W66781  28.558   3.269   8.415 -0.3968  0.2959 -0.1107
23791W        W66782   0.999  17.872  10.082  0.1343 -0.0428  0.1147
23792W        W66783   9.888  13.442  23.431  0.4327 -0.2259 -0.2658
23793W        W66784  19.697  33.461   2.580  0.4184  0.0724 -0.0872
23794W        W66785  26.228   0.172  17.601 -0.4786 -0.0795  0.0477
23795W        W66786  31.770   6.010   3.674 -0.1289  0.3121 -0.1708
23796W        W66787  21.169  17.154  27.686 -0.5156  0.1395  0.3914
23797W        W66788   5.816  10.472   3.948 -0.0612  0.1979 -0.3291
23798W        W66789  26.135  18.810  19.741  0.3543  0.1425 -0.0827
23799W        W66790  24.531  26.364   7.485 -0.0528  0.3687 -0.0443
23800W        W66791  33.189  10.209   7.936 -0.1146 -0.0371 -0.1403
23801W        W66792  29.797  31.168   5.171 -0.1658  0.1647  0.0547
23802W        W66793  16.107   5.376  24.417  0.1883 -0.0416  0.1948
23803W        W66794  10.992  18.393   5.188 -0.3709 -0.2252  0.0638
23804W        W66795  12.636  18.957   4.311 -0.0292 -0.0749  0.0240
23805W        W66796  25.297  33.102  13.176 -0.1199  0.3122 -0.1159
23806W        W66797  22.585  22.024  27.453 -0.0176  0.0342 -0.0459
23807W        W66798  16.683   7.104   4.843  0.0108  0.1309 -0.0510
23808W        W66799  12.575   8.487   2.063 -0.0218 -0.0184  0.0360
23809W        W66800  26.541  19.339  27.832  0.1918  0.1213 -0.2231
23810W        W66801   0.103  30.724  28.448  0.0931  0.2506  0.2258
23811W        W66802  15.381  16.777  23.012 -0.0744  0.0843 -0.2804
23812W        W66803  32.034  17.051   1.276  0.0275 -0.1098 -0.0486
23813W        W66804   5.043  29.884   7.051  0.1116  0.1744  0.0003
23814W        W66805  12.575   6.288   3.674 -0.3643 -0.0854  0.0159
23815W        W66806  29.556  18.467  16.400 -0.3103  0.0684 -0.1384
23816W        W66807  31.861   1.995   6.922 -0.1507  0.0064 -0.0378
23817W        W66808  20.738  20.131   6.324  0.1102  0.0538 -0.0797
23818W        W66809  26.532  14.132  16.673  0.1885  0.2264  0.0153
23819W        W66810  34.331  22.651  27.531 -0.2559 -0.3363  0.0208
23820W        W66811  22.256  25.998   1.491 -0.1007  0.3039  0.4402
23821W        W66812  18.252  11.171   5.041  0.5653 -0.1488 -0.0235
23822W        W66813  30.491  20.712   3.838 -0.1166  0.0003 -0.3163
23823W        W66814  25.988   3.854   8.743 -0.0126 -0.2197  0.4286
23824W        W66815  15.507  14.760   5.031 -0.2046  0.2537  0.0932
23825W        W66816   6.991  16.900   2.934 -0.0083 -0.0287  0.4369
23826W        W66817   7.569   3.033   6.556 -0.0225 -0.2015  0.2515
23827W        W66818  34.240  25.979   4.694  0.2454  0.0839  0.4378
23828W        W66819  23.901   7.244   7.652  0.0905 -0.0188 -0.0748
23829W        W66820  12.118   2.650  10.600  0.0985 -0.1397 -0.3972
23830W        W66821  25.985   8.874   2.892 -0.4767 -0.2402  0.3975
23831W        W66822   8.630   6.511  27.952 -0.0530 -0.1135  0.0171
23832W        W66823  16.354  16.802   5.580  0.1807  0.1896  0.2523
23833W        W66824   5.211  32.014   0.634 -0.0105 -0.1996  0.4503
23834W        W66825  27.519  30.414  20.881 -0.4012 -0.0703 -0.1211
23835W        W66826  25.593  19.208   2.738  0.0095  0.3459  0.0132
23836W        W66827  14.251  20.268   0.899  0.1376  0.1159  0.0896
23837W        W66828   3.155  28.865  27.199 -0.0889  0.0095 -0.2814
23838W        W66829  19.547  26.012   6.482 -0.1828 -0.2254  0.1425
23839W        W66830   3.663   6.038   8.701  0.0635 -0.0975 -0.2719
23840W        W66831  23.021  17.973   1.539  0.0604  0.1153 -0.0067
23841W        W66832  22.961  17.678  23.394 -0.1089 -0.0846  0.1432
23842W        W66833  34.307  11.875   4.505  0.1153  0.2023  0.1671
23843W        W66834  11.184  19.051   7.509  0.1427  0.4057 -0.2975
23844W        W66835  21.249   6.960   1.587 -0.3049  0.3334  0.3671
23845W        W66836  10.428  31.370  16.711  0.2145  0.1316  0.1327
23846W        W66837  16.142  19.260   7.490  0.1649  0.1555 -0.0722
23847W        W66838  21.955   6.059   2.782 -0.3357  0.0973 -0.0090
23848W        W66839  31.768  21.574   2.251  0.3952 -0.1101  0.2309
23849W        W66840  30.082  22.947   1.621  0.1271  0.1126 -0.0130
23850W        W66841  31.963  14.764   6.166 -0.1910 -0.0758 -0.1008
23851W        W66842  23.664  23.443  18.345  0.1314 -0.1114  0.0349
23852W        W66843  18.215   4.090   0.811 -0.0248 -0.3100  0.3196
23853W        W66844  28.397  20.912   4.438  0.1111 -0.4872  0.1419
23854W        W66845  28.190   1.915   7.123  0.2852  0.4418 -0.2602
23855W        W66846  10.352  19.100   8.179  0.0826 -0.2113 -0.0953
23856W        W66847  33.375  31.847   3.326  0.4918  0.0668  0.1849
23857W        W66848  22.865   4.651   7.707 -0.0023 -0.0856 -0.0209
23858W        W66849   2.460  24.973  17.394  0.2387 -0.0584 -0.0011
23859W        W66850  11.301  22.665   7.167  0.3190 -0.0836 -0.1843
23860W        W66851  22.201  20.860   8.403  0.1787  0.2408 -0.1287
23861W        W66852  16.992  28.163   9.647 -0.2036  0.3740 -0.1884
23862W        W66853  31.683  18.152   5.701 -0.0382 -0.0248  0.2019
23863W        W66854  13.395   9.289   7.078  0.2269  0.0933  0.0699
23864W        W66855  26.346  26.795   6.074  0.2317  0.0610  0.1169
23865W        W66856  21.165  13.774   3.595  0.0871  0.2025  0.0065
23866W        W66857  18.369  31.326   4.815 -0.1346 -0.3892  0.3578
23867W        W66858  18.768  15.335  26.135 -0.1713  0.3194 -0.0120
23868W        W66859   9.344  14.435   2.680  0.0009  0.1989  0.0701
23869W        W66860  22.711  22.517   3.158 -0.0682  0.2106 -0.0448
23870W        W66861  34.451   0.530   3.053 -0.0838 -0.0202  0.1321
23871W        W66862  22.089  32.578   4.854 -0.1430 -0.0207  0.1858
23872W        W66863  17.434  17.758  26.617  0.1811  0.0853  0.0323
23873W        W66864  19.860  11.012   5.643  0.3408  0.2869 -0.0548
23874W        W66865  29.177  25.549  28.167  0.0984  0.0662  0.1350
23875W        W66866  20.642  12.950   3.272 -0.0286  0.2661 -0.0334
23876W        W66867  28.263  33.936   0.615 -0.0729 -0.0616 -0.1473
23877W        W66868  26.727  18.649   9.588  0.0103  0.4403  0.1694
23878W        W66869  13.857   8.037  28.039 -0.0816 -0.2702  0.3853
23879W        W66870  16.022  33.533   1.088  0.0316  0.1336  0.1382
23880W        W66871  10.651  16.942   7.786  0.0306 -0.0802 -0.3701
23881W        W66872  31.180  21.485   5.335  0.3296 -0.4540  0.0468
23882W        W66873  10.006   3.368  26.465 -0.1520 -0.1386  0.1780
23883W        W66874  30.749  19.076  17.469 -0.0312 -0.2712 -0.1537
23884W        W66875  19.233  16.965  23.646 -0.0302  0.0031 -0.0192
23885W        W66876  30.312  34.437  28.702  0.2927 -0.0900 -0.2281
23886W        W66877  31.080  16.864   6.570 -0.0948 -0.0409  0.1186
23887W        W66878  27.465  28.922  22.191  0.0629  0.2170 -0.1102
23888W        W66879  30.206  14.655  27.203 -0.0692 -0.2269 -0.3160
23889W        W66880  17.229  13.503   8.085  0.2614  0.1856 -0.0126
23890W        W66881   3.971  19.339   6.016  0.1018  0.0762 -0.0938
23891W        W66882  19.748  21.683  27.988 -0.0935  0.1286  0.0068
23892W        W66883  24.223  13.808   3.615  0.2511  0.2985  0.1186
23893W        W66884  29.317  23.495   8.985  0.0443  0.0343 -0.1115
23894W        W66885  13.584   5.774   0.892 -0.0480  0.1296  0.0581
23895W        W66886  21.728  15.805   3.371  0.0775  0.0587 -0.1531
23896W        W66887  18.348   1.129   3.919  0.3537 -0.0670  0.3907
23897W        W66888  31.821  13.402   0.153  0.2396  0.1500  0.0407
23898W        W66889  17.081  28.987   0.320 -0.2837  0.2177 -0.0123
23899W        W66890  17.343  21.096  25.161  0.2471 -0.2647 -0.0485
23900W        W66891  26.714   4.873   5.183  0.1222  0.1663  0.3819
23901W        W66892   7.095  17.615  27.928 -0.4288  0.1185  0.0468
23902W        W66893  20.901  16.640  25.822 -0.4631 -0.0830  0.2145
23903W        W66894  12.141  15.771  22.094  0.7364  0.0845  0.1712
23904W        W66895  12.372  27.875   2.539  0.0369 -0.1297 -0.1405
23905W        W66896  27.239  15.618  27.479  0.0214  0.0377  0.1839
23906W        W66897   5.956  20.576   7.010 -0.0783 -0.2212 -0.0385
23907W        W66898  11.913  25.834  27.511 -0.0511  0.2151  0.0567
23908W        W66899  23.596   5.639   4.936  0.1946 -0.1207  0.1553
23909W        W66900  15.186  14.964   1.933  0.0226  0.0049  0.1577
23910W        W66901  15.752  24.630   7.427  0.2099 -0.2242  0.3409
23911W        W66902  30.587  15.410   2.855 -0.1089 -0.1842 -0.3593
23912W        W66903   4.327  15.403   6.608  0.0378 -0.2141 -0.0636
23913W        W66904  21.965  16.866  21.862 -0.2366 -0.1928  0.0938
23914W        W66905  26.940   5.905   7.834 -0.1888  0.3870  0.1696
23915W        W66906  28.925  19.801   1.728 -0.0297 -0.0596  0.4545
23916W        W66907  30.924  14.452   8.856  0.0744 -0.0036 -0.1823
23917W        W66908  23.352  33.632  15.259  0.2514  0.0564 -0.3753
23918W        W66909  19.303  18.771   1.623  0.0100 -0.1484  0.0109
23919W        W66910  14.250  20.472   1.746  0.1434 -0.0106  0.1611
23920W        W66911  23.575  10.475  25.579  0.0640 -0.0741 -0.1283
23921W        W66912  33.564  15.694  24.496 -0.0180 -0.1572  0.0495
23922W        W66913  13.030  17.240   7.824  0.0740  0.0358  0.0196
23923W        W66914  27.283  14.706  17.980  0.3017 -0.0659  0.0530
23924W        W66915  22.239  12.032   2.060 -0.0703 -0.1485 -0.0810
23925W        W66916  17.608  11.051  27.278 -0.1391 -0.0318  0.0399
23926W        W66917  22.512  21.031  28.375  0.0581 -0.0338 -0.0435
23927W        W66918  32.204  12.115   4.860  0.0987 -0.1065  0.0410
23928W        W66919  22.527  19.034  25.172  0.0374  0.0034  0.1355
23929W        W66920  14.361   7.863  23.157  0.0756  0.3460  0.1607
23930W        W66921  25.179  21.326   2.655  0.1173 -0.0094 -0.0059
23931W        W66922   9.358  21.355   7.354  0.2024  0.2508  0.0202
23932W        W66923  27.787  21.506   0.776  0.0165 -0.0792 -0.2397
23933W        W66924  33.574  12.251  26.768 -0.0088 -0.1240 -0.0744
23934W        W66925   0.583  12.540   8.573 -0.2916  0.1905  0.1186
23935W        W66926  16.536  14.622   4.942  0.0936  0.0569 -0.0368
23936W        W66927  12.140  13.132   5.155  0.2015  0.2857  0.0781
23937W        W66928  13.581  15.993   5.607 -0.1812 -0.2176  0.1055
23938W        W66929  27.669  22.351  21.029 -0.1017  0.2372 -0.0033
23939W        W66930   1.449   5.638   4.773 -0.0678 -0.0426  0.2360
23940W        W66931  28.779  29.305  26.572  0.2549 -0.0877 -0.1171
23941W        W66932  29.604  32.562   9.072 -0.0031  0.2210  0.2694
23942W        W66933  27.549  23.175   7.058  0.2454  0.1772 -0.0880
23943W        W66934   7.399   0.404  26.563 -0.0748 -0.0407  0.1548
23944W        W66935  11.070  26.166   1.322 -0.0947 -0.1010  0.0231
23945W        W66936  22.307   7.986   6.015 -0.2740 -0.3146  0.0463
23946W        W66937  31.333  12.767  26.394 -0.0182  0.0281  0.0003
23947W        W66938  23.030  15.903   8.083  0.1975 -0.0617 -0.2243
23948W        W66939   8.834   8.611   4.921 -0.2978 -0.0856  0.2121
23949W        W66940   7.620  27.830   0.131 -0.0881 -0.0842  0.2321
23950W        W66941  27.542   6.203  26.065  0.0461 -0.0467  0.0740
23951W        W66942  30.193   9.805   8.225  0.4032 -0.0616 -0.0060
23952W        W66943   2.259  12.893   4.748  0.0452  0.1287  0.0249
23953W        W66944  29.637   6.547  10.242  0.0102  0.1257 -0.0358
23954W        W66945  28.494  17.562   2.816  0.1753  0.1612 -0.0452
23955W        W66946  25.000   4.126   3.416 -0.0442  0.0635 -0.1190
23956W        W66947  27.206  21.977  18.234 -0.1694  0.2473  0.3311
23957W        W66948  26.103   4.003   6.969  0.0585  0.0531 -0.0490
23958W        W66949  21.110  26.602  23.302 -0.1601  0.1388  0.1244
23959W        W66950   2.451  25.878  22.697 -0.0429 -0.2756 -0.3927
23960W        W66951   6.074  23.238   9.129  0.1385 -0.1223  0.1161
23961W        W66952  26.746  24.648  28.223 -0.0643 -0.2362 -0.1563
23962W        W66953  33.549  13.937  25.009 -0.1868  0.0596 -0.0696
23963W        W66954  25.927  23.259   6.722  0.0963 -0.0334 -0.2471
23964W        W66955  13.318  31.256   4.409  0.3419  0.1610  0.0183
23965W        W66956  22.758   8.562  20.196 -0.0019 -0.3058  0.2196
23966W        W66957  28.948  11.232   0.550  0.2579 -0.2559 -0.1010
23967W        W66958  34.674  27.068  26.902 -0.3413 -0.0508 -0.0353
23968W        W66959  11.838  15.736  22.842 -0.0611 -0.1801  0.2628
23969W        W66960  29.387   9.841   1.533 -0.0723  0.1193  0.3656
23970W        W66961  20.729   7.767  28.828 -0.1971 -0.1447 -0.1734
23971W        W66962  24.202  18.048   1.340  0.1599 -0.2333 -0.2301
23972W        W66963  21.790  15.279  13.832 -0.0307  0.0500 -0.0403
23973W        W66964  32.923  16.970   1.902 -0.1443  0.1607 -0.1493
23974W        W66965   6.923   2.688  21.689  0.0723 -0.0501 -0.2425
23975W        W66966  19.078   9.631   1.575 -0.1365  0.0394  0.2591
23976W        W66967  17.208  12.832  19.609  0.1998  0.2202  0.0639
23977W        W66968  29.814   6.027   4.068 -0.1524 -0.0465 -0.2502
23978W        W66969  11.938   0.691  27.022  0.0075  0.0965  0.0322
23979W        W66970  27.621  16.587   7.762  0.2128  0.2926  0.2597
23980W        W66971  16.340  14.959   8.638  0.0457 -0.1015 -0.4536
23981W        W66972   1.018  17.967   2.336  0.1113 -0.0905  0.6292
23982W        W66973  26.242  11.021  25.752 -0.1791 -0.3255  0.2843
23983W        W66974   6.084  13.359   0.958 -0.1421  0.3432 -0.1302
23984W        W66975  23.839  32.845   1.773  0.3476 -0.1893  0.3300
23985W        W66976  23.759   9.014   8.278  0.0338  0.3372 -0.0683
23986W        W66977   1.537   6.953   1.637 -0.0581 -0.0646 -0.0532
23987W        W66978  30.517  28.434  25.630  0.2211  0.1468  0.2647
23988W        W66979  22.519   6.541   3.866  0.1628  0.1228  0.0368
23989W        W66980  19.576  18.444   5.539 -0.0684  0.1194  0.3076
23990W        W66981  18.737  16.162   5.421  0.2033  0.2215 -0.1303
23991W        W66982  10.142  17.671  25.729 -0.3387  0.0182 -0.0526
23992W        W66983   2.591  16.770  10.671  0.1807  0.1584 -0.1855
23993W        W66984  23.564  15.521   2.662 -0.3946 -0.2012 -0.2704
23994W        W66985  19.585  26.120   3.632  0.0761 -0.0394  0.2826
23995W        W66986   5.693  20.063  25.052  0.0631 -0.0702 -0.4396
23996W        W66987  12.491  34.282   4.467  0.0040 -0.1995 -0.2215
23997W        W66988  27.216   9.489   8.906 -0.1291  0.0552 -0.3569
23998W        W66989  15.337  28.144   8.321  0.1944 -0.1838 -0.1768
23999W        W66990  34.799  27.033  23.941  0.0627  0.0260  0.0590
24000W        W66991  22.198  22.429   8.127 -0.0692 -0.1353 -0.1808
24001W        W66992  21.578   4.907  10.378  0.2822 -0.2048  0.1913
24002W        W66993  17.859  22.761   6.572 -0.3603 -0.1861  0.0983
24003W        W66994  28.749  34.206   7.634 -0.1038 -0.0622  0.0670
24004W        W66995  29.921   5.055   7.343  0.1315  0.2071 -0.0376
24005W        W66996  14.200  22.019  29.070  0.0848  0.1101 -0.3694
24006W        W66997  13.566  16.966   0.631 -0.0525  0.1140 -0.0010
24007W        W66998  19.211  23.191   7.909  0.0020  0.1779  0.5051
24008W        W66999  22.830  20.038   7.483 -0.1120 -0.1734  0.1228
24009W        W67000   1.716  16.565  11.619  0.0496 -0.0819 -0.0930
24010W        W67001  31.023  15.682  10.790  0.0257 -0.1096 -0.0979
24011W        W67002  11.609  24.792   8.919  0.3257  0.3254 -0.1942
24012W        W67003  32.743   6.566   2.051 -0.1632  0.1537  0.0772
24013W        W67004  16.623   4.976   5.469  0.0716  0.1376  0.0614
24014W        W67005  28.444  25.173   4.218 -0.1251  0.0150  0.3283
24015W        W67006  24.611  22.169   0.016  0.2440  0.0975 -0.0451
24016W        W67007  20.652  11.827   0.169  0.1820 -0.1992  0.0841
24017W        W67008  32.399  10.062   9.352 -0.1707 -0.0095 -0.0063
24018W        W67009  18.872  27.725  28.612  0.0266 -0.0688 -0.4514
24019W        W67010  15.756   6.825  28.082  0.1303 -0.1080  0.0390
24020W        W67011  27.347  13.538   2.623  0.2002 -0.3213 -0.1203
24021W        W67012   1.967   7.839   9.685  0.1337  0.1907 -0.6317
24022W        W67013  28.964  21.786   9.461 -0.1951  0.2952 -0.2490
24023W        W67014   3.084  14.875   7.549  0.0986 -0.0598  0.0804
24024W        W67015  25.702   4.008   5.603  0.0035 -0.0510  0.2217
24025W        W67016  20.745  23.599  23.098 -0.3031 -0.2289 -0.0568
24026W        W67017  28.851  25.136  19.608 -0.1250 -0.2541 -0.1057
24027W        W67018   0.198  10.283   3.410  0.3063 -0.2794  0.2334
24028W        W67019   7.156   8.014   9.037 -0.1863 -0.0444  0.1753
24029W        W67020  31.870  20.716   5.322  0.0046 -0.2513  0.3630
24030W        W67021  20.520  22.265  23.951  0.1676 -0.1121 -0.3022
24031W        W67022  20.052  19.986  22.725  0.1793  0.0430 -0.4060
24032W        W67023  25.537  18.202   5.835  0.3141 -0.0341 -0.2549
24033W        W67024  24.547  10.055  22.563 -0.2636  0.3759  0.2119
24034W        W67025  23.734  19.628   9.884  0.1113 -0.0616 -0.1354
24035W        W67026   8.252  20.012  24.399  0.1386  0.4058  0.2017
24036W        W67027  11.218   9.217   8.806  0.1956  0.1544  0.1884
24037W        W67028  28.241   9.241   6.017 -0.0611  0.0938 -0.2054
24038W        W67029   1.059  14.838  21.408  0.0053 -0.1366 -0.2538
24039W        W67030  16.123  23.246   9.269 -0.1039 -0.1246  0.0340
24040W        W67031  15.254   0.931  28.539  0.0741  0.4723 -0.0360
24041W        W67032  20.467  34.258   9.931  0.1246 -0.3956  0.1216
24042W        W67033   5.583  14.173   7.681  0.0520  0.0844 -0.1997
24043W        W67034   9.850  15.212  25.669 -0.0996  0.1191  0.4531
24044W        W67035  24.716  17.844  26.923  0.3272 -0.1111  0.0085
24045W        W67036  20.047  18.087   0.065 -0.3032 -0.0303 -0.1185
24046W        W67037  32.445  15.830  25.019 -0.2392  0.1427 -0.0551
24047W        W67038   8.138  24.433  27.000 -0.1798  0.1373  0.1753
24048W        W67039  21.500  19.646  21.742 -0.2653  0.1718 -0.0148
24049W        W67040  25.185  18.911   9.739 -0.2224 -0.0416 -0.0249
24050W        W67041   9.386  26.746   7.821 -0.0447  0.0268 -0.3056
24051W        W67042  13.694  23.951   2.483  0.0750 -0.2821  0.1554
24052W        W67043  20.737  21.770   8.972  0.1390 -0.0607 -0.2323
24053W        W67044  31.506  21.157   1.191  0.0933  0.0442  0.3194
24054W        W67045  20.902   5.863  21.785  0.0932 -0.0672  0.1185
24055W        W67046  23.585   4.532  22.325 -0.1857  0.0928 -0.1995
24056W        W67047  23.450  29.972   2.667  0.1718 -0.0466  0.2286
24057W        W67048  17.653  18.492   7.217 -0.1992  0.1172 -0.0260
24058W        W67049  23.321  14.068   2.120  0.0335  0.0575  0.0294
24059W        W67050  27.538  10.232   1.332  0.1212 -0.0415  0.1156
24060W        W67051   9.777  12.166  17.492 -0.0810  0.0766 -0.1304
24061W        W67052  13.796  20.508   3.693  0.0348  0.0302  0.0237
24062W        W67053  21.871  19.960   1.626 -0.1040  0.0915  0.1163
24063W        W67054  28.985  18.603   3.276 -0.0978 -0.1541  0.2239
24064W        W67055  23.173  13.800   1.441  0.2179  0.0952  0.2101
24065W        W67056  21.599  12.066  28.284  0.0006  0.0426  0.0729
24066W        W67057  15.024  18.307   4.319 -0.0895  0.0891 -0.2192
24067W        W67058  19.415  11.899  20.802  0.3478 -0.2369 -0.1369
24068W        W67059  28.291  13.340   1.377 -0.0142  0.0938  0.2051
24069W        W67060  25.164  22.280   3.877 -0.1501 -0.0982 -0.2534
24070W        W67061  19.197  10.157   9.235 -0.2385  0.0257 -0.2628
24071W        W67062   7.834  31.938  26.746 -0.0146 -0.0811 -0.0281
24072W        W67063  14.156  23.030   1.295  0.1450  0.0975  0.0220
24073W        W67064  11.486  15.449  22.592 -0.1193  0.3783  0.0061
24074W        W67065  31.852  30.865   6.238  0.0494 -0.0537  0.0144
24075W        W67066  23.243  24.926   3.691  0.2835  0.0503 -0.0200
24076W        W67067  33.590  23.449   1.455  0.0410  0.2905 -0.0708
24077W        W67068  20.148  31.076   0.890 -0.0391 -0.4439  0.0380
24078W        W67069   2.043  16.174   2.673  0.1209  0.1174  0.3802
24079W        W67070  20.132  22.292  28.202 -0.0215 -0.1315 -0.4169
24080W        W67071   1.229  28.301   7.508  0.0451  0.1520 -0.1714
24081W        W67072  25.910  14.882   9.073 -0.0487  0.1191  0.0254
24082W        W67073  11.551  30.942   4.903  0.2036 -0.0998 -0.0640
24083W        W67074  23.799  29.763   5.417 -0.0709 -0.0472 -0.0447
24084W        W67075  16.708  18.731  23.931 -0.0703  0.1261  0.1130
24085W        W67076  23.360   7.380   8.433  0.0623 -0.0339 -0.0311
24086W        W67077  19.095  16.421   3.209  0.0207 -0.2359 -0.2898
24087W        W67078  27.026  30.585  19.586 -0.0611  0.2761  0.0892
24088W        W67079   6.718  10.117   4.506 -0.2910 -0.2466 -0.0082
24089W        W67080  12.896  11.261   0.661  0.1222  0.0549  0.1369
24090W        W67081  34.150   5.887  23.452 -0.1181  0.1971  0.0109
24091W        W67082  19.711   5.985   5.231  0.1441 -0.0595 -0.0614
24092W        W67083  23.281  18.226   7.599  0.0877  0.2565 -0.0459
24093W        W67084   4.230  21.521  19.397 -0.0879 -0.0599  0.0926
24094W        W67085   5.290  19.018  16.409  0.1238  0.1201 -0.0781
24095W        W67086  20.050  28.299   4.674 -0.2412  0.3960 -0.0629
24096W        W67087  33.309  17.488  25.580 -0.0876  0.1036  0.1655
24097W        W67088  16.044  18.344   1.422 -0.0741  0.3959 -0.0304
24098W        W67089  22.796  14.520  25.317 -0.0306  0.1420 -0.0250
24099W        W67090   0.993  16.749   4.831 -0.0517 -0.0784 -0.0662
24100W        W67091  25.070  21.305  23.364  0.3349 -0.0882  0.1332
24101W        W67092  30.871  14.036   6.612 -0.2004 -0.1827  0.0958
24102W        W67093  29.246  18.977   7.286  0.1095 -0.0244 -0.0242
24103W        W67094   0.039  18.494   9.798  0.1067 -0.0893 -0.0195
24104W        W67095  22.858   6.300   5.219  0.0110 -0.1743 -0.0166
24105W        W67096  20.523  16.886   6.351  0.0009 -0.1398 -0.2507
24106W        W67097  21.402  14.227   4.418 -0.1487  0.2238 -0.2251
24107W        W67098  27.125  18.261   8.989 -0.0403 -0.0760  0.0919
24108W        W67099  11.992  14.935   0.073  0.0548 -0.1941  0.1186
24109W        W67100  22.394  23.027  18.297  0.1268 -0.2274 -0.1173
24110W        W67101  22.457  12.873   2.569 -0.1628 -0.2427  0.0169
24111W        W67102   3.494  21.029   3.165  0.0088 -0.2224  0.0564
24112W        W67103  19.622  15.547  29.039 -0.0618 -0.3647 -0.1148
24113W        W67104   0.775  26.799  29.027 -0.0928 -0.0977 -0.2459
24114W        W67105  18.023   3.695  20.605  0.2455 -0.3227 -0.0359
24115W        W67106  29.176  24.623   8.844  0.2714 -0.1079 -0.3272
24116W        W67107   3.146  26.317   2.150  0.0004 -0.2646  0.0212
24117W        W67108  23.815   6.661   3.670 -0.1741  0.3104 -0.3690
24118W        W67109   8.339  21.490  10.420 -0.1032  0.0760  0.4873
24119W        W67110  33.481   8.195   5.776  0.3237  0.0615 -0.0922
24120W        W67111  20.929  16.280  23.367 -0.0169 -0.1014 -0.2023
24121W        W67112  27.025   7.052   7.584 -0.0347 -0.1496 -0.1475
24122W        W67113  19.361  26.055  28.077  0.3080  0.1665 -0.1183
24123W        W67114  28.555   6.703   5.721 -0.0117 -0.3166 -0.1183
24124W        W67115  27.672   1.494  23.246  0.0398  0.2378  0.0285
24125W        W67116   0.844   6.463  27.891 -0.0689 -0.0328  0.1100
24126W        W67117  18.098  26.590   2.731 -0.2389 -0.3376 -0.1188
24127W        W67118  31.406  13.507  22.244 -0.2671 -0.2660 -0.4309
24128W        W67119  12.160  30.470   1.559  0.1207 -0.0780  0.2144
24129W        W67120  22.140  10.692  10.094 -0.0755 -0.0824 -0.2743
24130W        W67121  15.462   2.068   3.553  0.1624 -0.0068  0.2665
24131W        W67122  23.627  32.495   6.803  0.1689  0.2116  0.1644
24132W        W67123  25.023  18.072  19.238  0.1444 -0.2309  0.1569
24133W        W67124  12.889  19.137   7.075  0.0239 -0.0434  0.0150
24134W        W67125  14.735  33.333   0.051 -0.2311  0.2671  0.0697
24135W        W67126   6.476  31.411  24.824  0.0446 -0.0984 -0.0756
24136W        W67127  21.499  27.226   7.011 -0.1859 -0.2425 -0.0482
24137W        W67128  30.560  18.206  19.275  0.0195  0.2960  0.3223
24138W        W67129  30.473  23.603   5.620 -0.3735  0.0319 -0.1219
24139W        W67130  17.410   3.480   0.508 -0.0158 -0.0987  0.0476
24140W        W67131  30.240   6.133  26.017 -0.3442  0.0238 -0.1152
24141W        W67132  24.985   7.340   9.027 -0.3908  0.1976  0.3567
24142W        W67133  14.158   7.948   5.658  0.2658  0.1075 -0.3079
24143W        W67134  17.861  10.190   9.052 -0.1571 -0.2284  0.0238
24144W        W67135  20.324  33.636  27.385  0.2629 -0.2368  0.0566
24145W        W67136  17.645   6.338   5.527  0.0236 -0.1264  0.3816
24146W        W67137  21.757  17.275   4.113  0.2466 -0.0130  0.1308
24147W        W67138  21.897  16.239   8.808 -0.1884  0.0919 -0.0296
24148W        W67139   8.711  18.396   5.167  0.0614 -0.0308 -0.2077
24149W        W67140  30.716  14.927  28.636  0.0584  0.3237  0.0240
24150W        W67141  27.744  10.884  14.219 -0.1390 -0.3009  0.0160
24151W        W67142  27.720  12.426  19.389 -0.0995 -0.1844 -0.1448
24152W        W67143  30.687  31.237   6.088  0.1630  0.0633 -0.2044
24153W        W67144  25.461  16.844   4.187 -0.1385  0.0209  0.0052
24154W        W67145  25.944  22.348  28.803  0.2816  0.0964  0.2199
24155W        W67146  13.569  31.127  27.818  0.3165  0.0454  0.1629
24156W        W67147  26.365  23.226   4.274 -0.2252 -0.1806  0.1597
24157W        W67148   5.381   6.670  14.460  0.0399 -0.1696  0.2498
24158W        W67149  19.638  14.273  28.760 -0.0772  0.0396  0.2497
24159W        W67150  22.702  18.758  26.779 -0.0710 -0.0623  0.4879
24160W        W67151  20.025  19.907  20.550 -0.1053 -0.2156 -0.2920
24161W        W67152   9.942   7.383  27.942  0.0495  0.2067 -0.0599
24162W        W67153  21.120   3.819   5.221 -0.1829 -0.0163 -0.0412
24163W        W67154   2.294  19.425   4.949  0.1577 -0.1446  0.1946
24164W        W67155  23.257  18.532   2.214 -0.1068  0.0754 -0.2130
24165W        W67156   4.280  24.431  27.206  0.0848 -0.3276 -0.1729
24166W        W67157  16.400  12.604   6.052 -0.0076  0.4813  0.0467
24167W        W67158  10.004   8.294  10.321  0.0803 -0.2286 -0.3862
24168W        W67159  32.610  28.987   1.791  0.1099  0.1537  0.1398
24169W        W67160   1.622  10.024  24.845  0.1560 -0.0864  0.1484
24170W        W67161  19.351   4.609  10.023 -0.1693 -0.1901 -0.1523
24171W        W67162  29.775  20.998   4.644  0.0573 -0.1066  0.0265
24172W        W67163  25.142  17.916   6.042  0.2822  0.0852 -0.2456
24173W        W67164  16.400  21.007  28.377  0.2759 -0.0878 -0.1182
24174W        W67165  27.849  20.596   4.688 -0.1184 -0.2096 -0.0595
24175W        W67166  19.333  13.606   8.358 -0.3100  0.0093  0.0241
24176W        W67167  19.343  16.925   0.501  0.1271  0.0669 -0.1626
24177W        W67168  12.101  26.126   5.720  0.0178 -0.1632  0.1494
24178W        W67169  16.534  22.863   7.886  0.2379 -0.0451  0.2247
24179W        W67170  21.844   2.268   3.742  0.1059 -0.0994 -0.1593
24180W        W67171  18.208   6.629   7.658  0.0687 -0.1079  0.1072
24181W        W67172   4.204   2.983   9.048  0.2102 -0.0588 -0.0320
24182W        W67173  17.076  17.032  25.111 -0.1906  0.0870 -0.0615
24183W        W67174  20.317  11.483   4.214  0.0160  0.1499 -0.0934
24184W        W67175  22.869  17.514  28.472  0.1508  0.1414 -0.0559
24185W        W67176  19.441  14.987   7.811  0.0188 -0.2701 -0.0817
24186W        W67177  33.146  18.938   6.261  0.0683 -0.0792  0.2087
24187W        W67178  29.221  28.782   5.021 -0.2683  0.2850  0.0651
24188W        W67179  25.463  11.803  23.682  0.3144 -0.2288 -0.0227
24189W        W67180  28.255  17.532   2.378  0.0227  0.0144 -0.0455
24190W        W67181  22.040   0.457  15.757  0.3309  0.3213 -0.0071
24191W        W67182  27.043  19.956   4.741 -0.1496 -0.0518  0.4303
24192W        W67183  28.968  16.898  15.171 -0.0402 -0.6444  0.1656
24193W        W67184   7.648  21.263   8.506  0.2638  0.1377  0.1079
24194W        W67185  29.208   9.902   7.784 -0.0397 -0.1341  0.2429
24195W        W67186   5.007  33.521   4.706 -0.0477 -0.1007  0.1901
24196W        W67187   0.632   3.577   5.434 -0.2542  0.1949 -0.2492
24197W        W67188  17.228  27.404  24.592 -0.0947 -0.2253  0.1716
24198W        W67189  16.607   7.321   6.664  0.0264 -0.0671 -0.0479
24199W        W67190  34.027   9.301   0.439 -0.3623 -0.2039  0.0679
24200W        W67191  24.826  18.820  25.080 -0.0952 -0.0212  0.0231
24201W        W67192   0.753  18.555   5.412 -0.1774 -0.2808 -0.5187
24202W        W67193  32.533  28.463  20.113 -0.1503 -0.2454  0.4892
24203W        W67194  26.747  23.124   5.104  0.0318  0.1174  0.1116
24204W        W67195  26.373  24.596   3.063 -0.0575 -0.0994  0.2007
24205W        W67196  33.709  28.572   7.740  0.1329  0.1913  0.0309
24206W        W67197   9.891  26.603  28.099  0.0949 -0.4447  0.0822
24207W        W67198  29.726  16.902   3.293 -0.0568 -0.1416  0.1557
24208W        W67199  32.772   9.806   4.625 -0.0332  0.1151  0.0601
24209W        W67200  25.544  31.977  22.680  0.3049 -0.1769 -0.0104
24210W        W67201   0.489   8.804   9.545  0.2510  0.2216 -0.1301
24211W        W67202  26.343  23.681  23.593  0.0417  0.2420  0.4652
24212W        W67203   5.871  29.496   7.011  0.0462 -0.0235  0.0323
24213W        W67204  31.053   3.043   4.896  0.1842  0.4290  0.0277
24214W        W67205   9.392   9.800   9.430  0.1162  0.0035 -0.2796
24215W        W67206   5.745  13.088   3.923 -0.1525 -0.0216 -0.2816
24216W        W67207  22.976  16.196   5.979  0.3334 -0.1338  0.0174
24217W        W67208  13.272  22.576   1.951 -0.1092  0.1232 -0.0253
24218W        W67209  22.710  17.390   8.184  0.2624  0.0774 -0.3287
24219W        W67210   4.613  24.555   4.213 -0.0051  0.0103 -0.0276
24220W        W67211  23.437  19.969  25.243 -0.3389 -0.0316  0.1390
24221W        W67212  27.994  17.701   5.945 -0.1144  0.0848 -0.0189
24222W        W67213  25.321  28.607   0.884  0.1397 -0.0401 -0.0382
24223W        W67214   1.797  21.719  10.778  0.0730  0.1189 -0.0386
24224W        W67215   4.950   4.402  27.997  0.0459  0.0250  0.2391
24225W        W67216  17.837  16.583  26.726 -0.1690  0.2173  0.1430
24226W        W67217  33.650  28.852   5.893  0.1835 -0.1240  0.5073
24227W        W67218  26.645  21.901  26.396 -0.0036  0.1472 -0.1915
24228W        W67219  32.953  30.472   7.878  0.0437 -0.0269 -0.1602
24229W        W67220  24.904  17.327   1.612  0.2562 -0.0830 -0.2005
24230W        W67221  17.400  13.325   8.558 -0.0646  0.2215 -0.0216
24231W        W67222   0.867  13.434  25.506 -0.0791 -0.0695 -0.0589
24232W        W67223  19.737  30.777   2.161 -0.0366 -0.5973 -0.0761
24233W        W67224   4.530  26.926   5.833 -0.0946 -0.0180 -0.0397
24234W        W67225   4.249  16.132  25.258 -0.3662 -0.2071  0.1494
24235W        W67226   6.415  25.352   2.645 -0.0370  0.1042 -0.0990
24236W        W67227  16.862   9.081  22.554 -0.0361  0.1105 -0.0703
24237W        W67228  25.179   3.219   2.409 -0.0148 -0.0632  0.1369
24238W        W67229   2.500  22.864   0.532  0.1246  0.0061 -0.1762
24239W        W67230  22.803  22.553   0.527  0.0081  0.1384  0.1100
24240W        W67231  20.583   2.321  22.970  0.0675  0.2401  0.0592
24241W        W67232  30.537   7.872  26.887  0.0840 -0.0212  0.2931
24242W        W67233  20.870  24.928  13.556  0.0946 -0.2080 -0.1891
24243W        W67234  30.669  11.135   3.665 -0.2422 -0.1979 -0.0389
24244W        W67235  25.170  13.818   8.505  0.3647 -0.0330  0.5282
24245W        W67236  21.956  17.984  23.630  0.1049  0.1748  0.5294
24246W        W67237  15.689  15.411   4.248  0.0473 -0.0778 -0.3244
24247W        W67238   8.544   9.164  11.201 -0.0981 -0.1886  0.3517
24248W        W67239  13.623   2.848   5.010 -0.0703 -0.1232 -0.0995
24249W        W67240  17.599  20.067   3.728 -0.0640 -0.0668  0.2791
24250W        W67241  29.107  25.294  27.150  0.4181 -0.2704 -0.0307
24251W        W67242   5.458  33.747   3.560  0.0628 -0.0029  0.1811
24252W        W67243   7.786  27.028   0.757  0.2610  0.1471  0.0068
24253W        W67244  29.669  26.472   2.914 -0.1269  0.1683 -0.2525
24254W        W67245  15.303  14.350  27.721 -0.0765  0.0685  0.1943
24255W        W67246  29.625  26.983  26.679 -0.0946  0.2226 -0.0468
24256W        W67247  25.943   8.225   9.205  0.1539 -0.2068  0.1344
24257W        W67248  34.222   9.570   0.029  0.0617 -0.0410 -0.0504
24258W        W67249  13.860   0.680   8.586 -0.0207  0.1730  0.0957
24259W        W67250  29.157  19.440   1.374 -0.3059  0.0965 -0.1681
24260W        W67251  20.315  16.003   0.471 -0.1483  0.0926 -0.2365
24261W        W67252  26.259  11.392  10.324  0.0657 -0.3752  0.0855
24262W        W67253  14.856   7.947   6.128  0.3315 -0.1709 -0.0467
24263W        W67254  24.692  12.756   8.564  0.1127 -0.4078 -0.0027
24264W        W67255  32.462  18.758   7.917  0.2616 -0.0737 -0.1503
24265W        W67256  16.971  11.302   3.093  0.2151  0.1768 -0.2071
24266W        W67257   8.078  19.891   3.607 -0.0941  0.1709 -0.0401
24267W        W67258  26.312  32.632   5.529 -0.0624 -0.3953  0.0575
24268W        W67259   2.225  21.642   6.920 -0.0704 -0.2681  0.0439
24269W        W67260  11.371   1.175   5.863 -0.1679 -0.1689 -0.0704
24270W        W67261  23.453   4.893  19.059 -0.1956 -0.5242  0.2840
24271W        W67262  24.551  32.159   4.719 -0.1960 -0.3395  0.1731
24272W        W67263  10.323  14.642   7.181  0.0690 -0.1417  0.3955
24273W        W67264  12.955   8.064  23.470 -0.3763  0.3795  0.1524
24274W        W67265  14.761   4.321   9.787 -0.0002 -0.2242  0.0028
24275W        W67266  17.801  25.497   0.234  0.1409 -0.0022 -0.3429
24276W        W67267  22.885  18.538   7.708  0.1380 -0.1319 -0.1271
24277W        W67268  21.857  23.211   9.544  0.0587 -0.4015 -0.0148
24278W        W67269  27.850  27.554   1.593  0.0561  0.0367 -0.1295
24279W        W67270  21.970  31.343  23.989 -0.1253 -0.0239 -0.1658
24280W        W67271  28.165  18.016  26.954 -0.3096 -0.2674  0.0812
24281W        W67272  24.780  18.140   8.338  0.1634  0.1794 -0.0859
24282W        W67273  26.198   4.419   0.635  0.0560 -0.1595 -0.0744
24283W        W67274  25.113  22.179   9.617 -0.2348 -0.1288 -0.0275
24284W        W67275  20.933   9.520   9.983  0.0782 -0.2637 -0.1398
24285W        W67276  21.139  11.647   7.878  0.1642 -0.2633 -0.1182
24286W        W67277  30.400  16.130   0.926  0.1188 -0.3035  0.0676
24287W        W67278  16.367  33.989   7.643  0.2908  0.1449  0.0891
24288W        W67279  33.046  18.725  29.141 -0.1514 -0.0890 -0.2761
24289W        W67280   8.526   7.966   5.345  0.0106 -0.1047  0.2314
24290W        W67281  33.051  12.777   4.531  0.2851 -0.3279  0.0296
24291W        W67282  16.975   5.967   0.401 -0.2339 -0.2133  0.1371
24292W        W67283   3.023  12.241   8.888  0.2027  0.1135 -0.0401
24293W        W67284  33.554  17.940  19.281  0.2519  0.2688  0.1266
24294W        W67285  12.731  14.617   6.625 -0.2234 -0.1212  0.0881
24295W        W67286  12.320  28.968   1.879  0.0631  0.0509  0.0023
24296W        W67287  24.174  15.454   6.717  0.0193 -0.1533 -0.1999
24297W        W67288  20.655  14.933   3.033  0.0393  0.0808 -0.1370
24298W        W67289  30.064  12.701   3.838  0.0265 -0.1123 -0.0659
24299W        W67290  21.336  15.601  25.444  0.0288  0.1346  0.1372
24300W        W67291  11.134  28.840  26.563  0.2550 -0.0228  0.0527
24301W        W67292  11.294   5.496   1.528  0.2047  0.2454  0.2054
24302W        W67293  21.133  23.951   7.993 -0.1445 -0.2357  0.3861
24303W        W67294   1.089  19.464   6.043 -0.2610 -0.1626 -0.3586
24304W        W67295  26.575   8.677   0.190 -0.0698 -0.3322  0.0458
24305W        W67296  19.343  17.414   0.792 -0.3149  0.1827 -0.1713
24306W        W67297  18.945  30.799   9.906  0.1028 -0.0477 -0.0934
24307W        W67298  26.473  21.798  28.531  0.0066  0.0613 -0.0184
24308W        W67299  18.293  14.457  18.876  0.0833 -0.0479  0.0988
24309W        W67300  30.998  29.124  19.425 -0.0718 -0.2740  0.2837
24310W        W67301  16.019   2.235   2.613  0.0145 -0.0563  0.2182
24311W        W67302  33.701   4.343  25.546 -0.2078  0.3723  0.1680
24312W        W67303  28.344  26.927  27.202 -0.2519  0.2057 -0.2935
24313W        W67304   6.398  13.555  28.554  0.1193  0.1445 -0.4239
24314W        W67305  29.120   5.839  27.531  0.3526  0.3617 -0.2538
24315W        W67306  21.990   0.577   3.270 -0.1028 -0.2358 -0.0700
24316W        W67307  20.300  18.502   0.997 -0.1779 -0.0078 -0.0307
24317W        W67308  25.095  25.591  25.036  0.2538 -0.1405 -0.1065
24318W        W67309  16.811  11.296   9.432  0.2482 -0.1002  0.2780
24319W        W67310  20.350  17.593   2.455 -0.0449 -0.1581 -0.0311
24320W        W67311  14.007  18.221  22.436  0.0507 -0.0451 -0.0141
24321W        W67312  29.763  29.654   8.724 -0.0432 -0.1227  0.2183
24322W        W67313  11.410   9.436  15.371  0.1667 -0.1751 -0.1469
24323W        W67314   9.681  15.555   4.137  0.0680  0.1006  0.0823
24324W        W67315  10.202   8.663   5.804  0.1280 -0.3344  0.1810
24325W        W67316  30.244  13.352   3.942  0.3002 -0.2021 -0.1160
24326W        W67317  23.916   9.861   3.608 -0.3631 -0.2075 -0.1305
24327W        W67318   3.427  17.091   1.709  0.1682 -0.0371 -0.0142
24328W        W67319  15.617  13.871   4.820 -0.2821  0.2981  0.1435
24329W        W67320  25.790  20.135   9.676 -0.1182  0.4196 -0.2361
24330W        W67321   7.117  21.722   9.377 -0.3491  0.2813 -0.3579
24331W        W67322  25.464  26.865   7.485 -0.0098 -0.2215 -0.1037
24332W        W67323  25.973  18.558   1.871 -0.2468 -0.3977  0.0100
24333W        W67324  18.249   3.876   9.066  0.3805  0.0665 -0.3045
24334W        W67325  21.156  23.692  26.874 -0.0705  0.2798  0.0532
24335W        W67326  20.120  11.854   9.798 -0.2319 -0.0059  0.1564
24336W        W67327  25.120   8.606   7.331 -0.0843 -0.1955  0.3606
24337W        W67328  29.402  27.642   2.978 -0.2914 -0.1092 -0.2042
24338W        W67329  21.041  20.836  23.199  0.2469  0.0115 -0.0632
24339W        W67330  29.491  26.974   0.156  0.0302 -0.1528 -0.1144
24340W        W67331  12.221  12.810  22.236 -0.1698  0.1703  0.1700
24341W        W67332  16.425   8.132   1.936  0.1063 -0.0303 -0.3268
24342W        W67333  25.123   8.108  29.122  0.2280  0.0137 -0.2518
24343W        W67334  17.748   1.254   6.083  0.0056  0.0353 -0.1907
24344W        W67335  14.636   5.595  20.838  0.2040  0.0108 -0.1206
24345W        W67336  25.617  16.078   4.131 -0.1481  0.1470  0.1108
24346W        W67337   6.301  21.474   6.550 -0.0373 -0.3242 -0.2705
24347W        W67338  22.217   8.649   2.689  0.0182 -0.0151 -0.4018
24348W        W67339  13.022  29.022  25.517 -0.0764 -0.3646  0.2291
24349W        W67340   1.340  20.952   4.556  0.2309  0.0671 -0.2088
24350W        W67341  21.605  22.467   6.408  0.1455  0.0437  0.0739
24351W        W67342  23.391  14.588   3.958  0.1461  0.0145 -0.0256
24352W        W67343  25.722  14.524   5.287  0.0975  0.0160  0.4448
24353W        W67344  14.470  21.489   2.577 -0.3700 -0.0054  0.4985
24354W        W67345  14.902   5.327  19.078 -0.0444  0.3186 -0.1793
24355W        W67346   9.503  29.321   9.909  0.1022  0.3326 -0.2937
24356W        W67347  23.356  34.175  28.595  0.0243 -0.0269  0.1848
24357W        W67348  21.556  16.821  25.680  0.1579  0.1142  0.0414
24358W        W67349  13.671  22.404   3.177  0.0590 -0.0335 -0.0011
24359W        W67350  10.055  21.960   5.321 -0.2299 -0.1278  0.0901
24360W        W67351  23.349  23.113   9.323 -0.3011 -0.0038  0.4300
24361W        W67352   1.440  13.743   3.494  0.1244  0.2084  0.2871
24362W        W67353  21.287  15.368  24.571  0.0658 -0.4765  0.3298
24363W        W67354  22.800  27.493   9.416  0.4960  0.3493 -0.4809
24364W        W67355   9.096  15.745   9.868 -0.4029 -0.1416  0.2838
24365W        W67356  22.586  11.219  28.165  0.1545 -0.0750  0.1576
24366W        W67357   3.055  20.551   9.058 -0.2158 -0.2716  0.1417
24367W        W67358  16.716  18.746   4.124  0.0061 -0.2646  0.0715
24368W        W67359  21.778  19.031   4.652 -0.3707 -0.1023  0.4062
24369W        W67360  28.625  11.281   7.575  0.1110 -0.0666 -0.1008
24370W        W67361  17.323  21.339   8.947 -0.0038  0.1023 -0.1823
24371W        W67362  14.766   5.678   8.148  0.0959  0.2716  0.1806
24372W        W67363  17.541  13.024  26.886 -0.2116 -0.1112  0.1362
24373W        W67364  19.710  22.170  22.827  0.2197  0.0654  0.1143
24374W        W67365  21.303  27.626   7.663 -0.2223  0.1482 -0.0704
24375W        W67366  13.430  26.148  27.903 -0.1759 -0.0148 -0.1338
24376W        W67367  11.018  15.828   4.495 -0.0973  0.0644  0.3149
24377W        W67368   2.955  25.615   2.655 -0.1283  0.1110 -0.1135
24378W        W67369  23.197  26.716   1.600 -0.0699 -0.0006 -0.1732
24379W        W67370   1.776  24.061   6.474  0.2228  0.1090  0.0053
24380W        W67371   3.684  14.546  29.079 -0.1709 -0.1088  0.1823
24381W        W67372   2.145  20.009   8.502  0.0144 -0.0109 -0.1702
24382W        W67373  13.902  18.567   2.621  0.0333  0.1348 -0.1861
24383W        W67374  16.209  10.167  25.693  0.0806 -0.0198 -0.0774
24384W        W67375  25.052  23.263   9.974  0.1521 -0.0480 -0.0787
24385W        W67376  33.488  23.996   8.880 -0.1051  0.2015  0.1883
24386W        W67377  12.903  19.899   3.762 -0.0515 -0.1157  0.2159
24387W        W67378   4.283  12.307  10.703 -0.0975  0.0702  0.0667
24388W        W67379  11.776  21.565   8.921  0.0503  0.1876 -0.3242
24389W        W67380   7.299   9.374  10.812 -0.0743  0.0687  0.0024
24390W        W67381  24.374  16.532   3.273 -0.1234  0.0957  0.0848
24391W        W67382  33.634  22.850   8.282  0.1440  0.0341 -0.2398
24392W        W67383   3.104  10.681   4.685 -0.3237 -0.2647  0.1697
24393W        W67384  19.517  25.382   0.135 -0.1618  0.2091 -0.0086
24394W        W67385  16.345   6.619   8.133 -0.1331 -0.0848 -0.0711
24395W        W67386  16.905  25.903   0.153  0.0941  0.3807  0.3012
24396W        W67387  28.346  18.607  27.515  0.1977 -0.2156 -0.0670
24397W        W67388  33.185  15.647   3.919 -0.2207  0.2584 -0.1988
24398W        W67389  31.522   9.232   5.382  0.0392  0.2026 -0.0391
24399W        W67390  22.546  23.875   6.693  0.2641  0.1109 -0.1431
24400W        W67391   1.252  12.116  11.869  0.2611  0.1972  0.0249
24401W        W67392  22.131  12.204   8.599 -0.3477  0.1028  0.0433
24402W        W67393  21.442   8.728   1.520  0.1525  0.0991 -0.4251
24403W        W67394   2.342  16.538  29.187  0.0221  0.0393 -0.1239
24404W        W67395  16.751  33.981   7.240 -0.1966 -0.0964 -0.0294
24405W        W67396  29.872  20.348  25.298  0.0836  0.1642 -0.1361
24406W        W67397  15.404  22.249   3.655  0.3839 -0.2958  0.0492
24407W        W67398  23.019  21.251   3.613  0.1933 -0.1298  0.0063
24408W        W67399  26.571   9.415  27.914 -0.0045  0.0619  0.0058
24409W        W67400  15.832   6.046   4.708 -0.0179 -0.0926  0.1115
24410W        W67401  22.535  11.677  28.358  0.1554 -0.0512 -0.3006
24411W        W67402  22.075  13.337   4.638  0.3611  0.0725  0.0406
24412W        W67403   5.758  19.403  20.705 -0.0983 -0.0397  0.1527
24413W        W67404  26.641  17.527   3.085  0.0228 -0.0997 -0.0160
24414W        W67405  15.058  25.730  28.916  0.1777  0.1223  0.0903
24415W        W67406   5.676   6.154   3.758  0.1415  0.2216 -0.0129
24416W        W67407  17.682   3.155   0.812 -0.1592 -0.0776 -0.0430
24417W        W67408  17.962  17.925  24.362  0.0776 -0.1537  0.1729
24418W        W67409  29.307  15.730  28.864  0.1865 -0.1574  0.1972
24419W        W67410  13.487  17.683  28.620  0.5202 -0.1835  0.0237
24420W        W67411  13.119  33.548   7.856  0.1230  0.1611  0.0097
24421W        W67412   9.868   7.575   8.040 -0.3624 -0.0790 -0.3677
24422W        W67413  25.657   0.070   8.514 -0.0698  0.2677  0.0933
24423W        W67414  26.435  14.314   3.166  0.1235  0.2331  0.2380
24424W        W67415  26.296  13.316   4.693 -0.0873 -0.2517 -0.4412
24425W        W67416  26.639  19.763   4.541  0.1514 -0.2295  0.2310
24426W        W67417  18.103  24.969   2.634 -0.1090  0.0252 -0.0815
24427W        W67418  28.186  14.531  20.283  0.2405  0.3621 -0.3105
24428W        W67419  31.572  23.089   9.459  0.0734  0.0474 -0.2599
24429W        W67420  31.287   7.298   6.603  0.2709 -0.1509 -0.0280
24430W        W67421  12.721   1.544  25.559  0.0520  0.0973  0.3436
24431W        W67422   9.629   9.386   9.116  0.0980  0.0941  0.1202
24432W        W67423  11.254  13.934   0.655  0.0719 -0.2424  0.0744
24433W        W67424   2.701  19.564  10.188 -0.0153 -0.0068 -0.0053
24434W        W67425  34.269  24.989   8.971  0.4106  0.0610 -0.4302
24435W        W67426  19.398  10.286   2.735 -0.0786  0.0319  0.2489
24436W        W67427  12.774  14.290   0.702  0.4705  0.2916 -0.2233
24437W        W67428  27.310  18.836   2.231  0.1333  0.2394  0.1193
24438W        W67429  22.007  15.833  17.472 -0.1139  0.0069 -0.1573
24439W        W67430  32.079  19.541   4.298 -0.0609  0.0306  0.0484
24440W        W67431  21.059   9.012   7.492 -0.0196 -0.2201 -0.1337
24441W        W67432  21.056  14.876  20.442 -0.0367 -0.0467  0.1138
24442W        W67433   5.195  31.150  23.310  0.0649  0.2001  0.0552
24443W        W67434  31.617  10.766  20.462 -0.2179  0.0506  0.1226
24444W        W67435  30.887  33.109  22.803 -0.2459  0.3541  0.0174
24445W        W67436  15.272  15.373   2.919 -0.1877 -0.3843  0.0224
24446W        W67437  23.805  11.579  22.521 -0.1490 -0.0914 -0.2382
24447W        W67438  15.550  19.175   1.784 -0.1614  0.2247  0.1803
24448W        W67439  14.497  14.947  21.244  0.0675 -0.0176  0.2655
24449W        W67440   2.103  17.697   5.387 -0.0823 -0.1009 -0.2158
24450W        W67441  28.188  14.009  26.807 -0.1056  0.0257 -0.0154
24451W        W67442  29.170  18.118   9.994  0.0521  0.0367  0.3039
24452W        W67443  15.007  26.489   2.232 -0.1196 -0.3216 -0.0108
24453W        W67444  11.462  15.889   3.198 -0.1686  0.3277  0.2730
24454W        W67445  33.750  26.863  10.235  0.0229 -0.3084  0.0006
24455W        W67446  32.929  20.651   4.573 -0.0469  0.0488  0.0915
24456W        W67447  15.758   7.180   3.045  0.0389 -0.0542 -0.2363
24457W        W67448   9.205  23.091  10.172 -0.0939  0.1363 -0.2044
24458W        W67449  20.075  13.452   5.864  0.0380 -0.2085 -0.1924
24459W        W67450   0.119   5.112   7.012 -0.2110  0.2282 -0.2789
24460W        W67451  13.912  23.750   8.643 -0.1186 -0.0881 -0.2692
24461W        W67452  15.741  30.902   4.427  0.0113  0.2623 -0.6509
24462W        W67453  29.460  13.066   4.529 -0.3002  0.3001  0.0833
24463W        W67454  20.862  30.490   4.163 -0.3063  0.2167  0.2150
24464W        W67455  20.176  14.882   2.123  0.0192  0.0454  0.0224
24465W        W67456   9.487  26.010   2.369  0.0870  0.0194 -0.2157
24466W        W67457  25.664  21.335  27.609 -0.0201 -0.1276 -0.0686
24467W        W67458  15.312  31.337   1.970  0.1120  0.0933 -0.1083
24468W        W67459   1.712  17.355  11.957  0.1289 -0.2326 -0.0456
24469W        W67460  31.907   9.973   9.711  0.1855  0.1966 -0.0942
24470W        W67461   6.909  20.437  28.922 -0.0898 -0.1779  0.0479
24471W        W67462  12.828  14.558   4.097 -0.1872  0.3106 -0.2835
24472W        W67463   1.036  33.225   7.514 -0.0292  0.0792  0.0605
24473W        W67464   1.576  12.276  11.011  0.0630 -0.0639 -0.1398
24474W        W67465  23.169  13.977   2.659 -0.0288  0.1758 -0.1198
24475W        W67466  12.524  34.664   3.562  0.0057  0.0722  0.1283
24476W        W67467   2.819  27.027   2.025  0.2777  0.2462  0.3584
24477W        W67468  27.795  18.143   6.865  0.0465  0.1147 -0.3914
24478W        W67469  15.309  19.996   2.964 -0.0929  0.0395 -0.1773
24479W        W67470  20.083   4.459  23.739 -0.1169  0.0278  0.0477
24480W        W67471  27.174  21.182  27.692  0.2293 -0.1308 -0.3081
24481W        W67472  10.424   2.388  10.111  0.3577 -0.0905 -0.0439
24482W        W67473  26.694  24.779  27.433  0.0592  0.0791  0.1076
24483W        W67474  22.349   5.002   2.886  0.3441 -0.3531  0.0445
24484W        W67475  26.005   9.637  22.966 -0.1159 -0.2372  0.1042
24485W        W67476  23.438  24.356  23.226  0.2565  0.3449  0.2047
24486W        W67477  13.867  13.899  26.015 -0.0333 -0.2683  0.1999
24487W        W67478  27.892  18.659   0.972 -0.1116  0.0587  0.2548
24488W        W67479  34.394  21.395  25.364  0.4539 -0.1265  0.2007
24489W        W67480  13.704  24.634   2.318 -0.0587 -0.3646  0.1895
24490W        W67481  26.983  23.188   0.475  0.3739  0.1855 -0.1786
24491W        W67482   1.814   2.318  25.297  0.0006  0.0217 -0.1860
24492W        W67483  34.244  14.232  25.507  0.1240  0.0340 -0.0296
24493W        W67484   4.663  12.645  26.698  0.0788 -0.0227 -0.0640
24494W        W67485  21.366  29.800   6.519 -0.0511  0.1219  0.1165
24495W        W67486  19.725  13.272  27.031 -0.0466  0.0168 -0.1235
24496W        W67487  15.868  12.480  22.112 -0.2523  0.4058  0.0922
24497W        W67488   7.064  16.470   5.835 -0.0815 -0.0351  0.2691
24498W        W67489   9.819  19.114   7.340  0.1528  0.2368  0.2883
24499W        W67490  34.400   4.117   5.803  0.1500  0.2415  0.0229
24500W        W67491  24.437  11.549  22.010  0.0457  0.4330 -0.1327
24501W        W67492  33.203   9.988   4.201  0.2173  0.2535 -0.1652
24502W        W67493   1.873  14.404   3.031 -0.1241  0.0830 -0.3575
24503W        W67494  27.590   8.511   5.775 -0.0827  0.1894  0.1711
24504W        W67495  23.510  14.002   6.484 -0.1604 -0.1878 -0.2410
24505W        W67496   8.605   6.557   1.965 -0.2423 -0.0978 -0.1956
24506W        W67497  13.719  22.743  24.154 -0.2139 -0.1283 -0.2203
24507W        W67498   0.960  33.796   4.629 -0.0829  0.0149  0.0549
24508W        W67499  22.712  16.163  23.120 -0.2364  0.3545 -0.1266
24509W        W67500   8.079  26.008   3.573 -0.1134  0.2046  0.1680
24510W        W67501  27.830  23.280  26.249  0.1814  0.0830  0.0111
24511W        W67502  12.405  25.618  28.447  0.1897  0.1609 -0.1592
24512W        W67503   0.956  14.380  10.469  0.1597 -0.1176 -0.2186
24513W        W67504  32.526  25.284  27.459 -0.2131  0.2475 -0.1699
24514W        W67505   0.348   5.113   4.475  0.2617  0.1307 -0.3022
24515W        W67506  29.873  12.428   6.697 -0.2586 -0.2442  0.3142
24516W        W67507  28.280  15.099  24.521  0.1411 -0.2771  0.1290
24517W        W67508  20.840  28.864   3.756  0.0459  0.2063  0.1792
24518W        W67509  27.357  17.555  25.882  0.1034 -0.4210  0.1574
24519W        W67510  30.204  10.916  26.540 -0.4812  0.0907  0.0112
24520W        W67511  29.291  29.178   0.824  0.0059 -0.0718  0.1721
24521W        W67512  20.673  15.823  28.338 -0.2955  0.0125  0.1781
24522W        W67513  25.246   2.090   7.928  0.1617 -0.0162 -0.0668
24523W        W67514   4.479   1.178   6.193  0.0670  0.1745  0.0564
24524W        W67515  15.943  20.235   9.013 -0.1718 -0.0429 -0.0786
24525W        W67516  12.595  18.796   7.788  0.0098 -0.0566 -0.2474
24526W        W67517  33.012  26.038   8.897 -0.0186  0.1640  0.0946
24527W        W67518  22.460  13.022   1.381 -0.0984 -0.0608  0.0419
24528W        W67519  26.615   7.169   5.777 -0.1950  0.1880 -0.1439
24529W        W67520  28.462  16.452   1.872  0.1613 -0.2121 -0.0862
24530W        W67521  26.890  13.861   4.833  0.2168 -0.3987 -0.1805
24531W        W67522  12.003  12.619  28.205 -0.2342 -0.1454  0.0760
24532W        W67523  31.337  17.753   5.725  0.1550  0.1611  0.0446
24533W        W67524  30.422  13.143   5.787 -0.0263 -0.2311 -0.0704
24534W        W67525  27.988  19.926  28.317  0.0813 -0.0229  0.0922
24535W        W67526  32.639  15.005  28.305  0.0150 -0.3854  0.0343
24536W        W67527  23.059  15.209  17.523  0.1564  0.3736 -0.0302
24537W        W67528  18.454  10.225   9.779 -0.0459  0.0254  0.0519
24538W        W67529  13.770  14.155  23.513 -0.0204 -0.2389 -0.2815
24539W        W67530  23.071  15.599   1.190  0.0864 -0.0264 -0.2170
24540W        W67531  23.373  23.579  22.070  0.0921  0.3055  0.0096
24541W        W67532  18.581  19.418  27.090  0.0676 -0.1661 -0.3600
24542W        W67533  23.001   8.818   6.666 -0.3574 -0.0282 -0.0883
24543W        W67534  29.875  19.700   5.577 -0.4012  0.3730  0.0840
24544W        W67535  31.878  13.724   1.392  0.1687 -0.0992 -0.1387
24545W        W67536  24.383  23.042  22.436 -0.0817 -0.0858  0.2126
24546W        W67537  20.732  23.672  27.825  0.1718  0.0664  0.0014
24547W        W67538  20.896  13.336   9.344  0.0872 -0.0837 -0.1074
24548W        W67539  22.877  13.306   2.624  0.2734 -0.0192 -0.1333
24549W        W67540  12.083   5.275  11.284  0.1094 -0.1856 -0.2956
24550W        W67541  32.708  10.379   3.045 -0.2205 -0.0026 -0.0074
24551W        W67542  21.013  23.406   1.730  0.1575  0.0210 -0.0030
24552W        W67543   8.908   7.845  22.784 -0.0628  0.0157 -0.1431
24553W        W67544  31.316  20.203   4.622 -0.1635 -0.3731 -0.2057
24554W        W67545  24.954  34.491  18.623  0.2437  0.2227  0.0374
24555W        W67546  19.698  34.050   9.099  0.1689 -0.0636  0.0373
24556W        W67547  22.057   4.709  27.283 -0.1905  0.0872 -0.1550
24557W        W67548  14.224  24.437   3.402 -0.0102  0.0453  0.0474
24558W        W67549  21.877  22.128   3.593  0.2322  0.0221 -0.0084
24559W        W67550   5.112  18.079  14.933  0.1900 -0.0485 -0.2492
24560W        W67551   4.627  10.180  10.258  0.3077 -0.2661 -0.0282
24561W        W67552  34.180  17.856   1.304 -0.0856 -0.3496 -0.0136
24562W        W67553  27.558  19.497  22.366 -0.1476 -0.0701  0.0241
24563W        W67554  25.701  34.238   6.051  0.0674 -0.2933  0.0575
24564W        W67555  14.733   5.162   8.278  0.3340 -0.2124  0.2690
24565W        W67556  15.271  21.199   1.281 -0.0543 -0.0731  0.0642
24566W        W67557  23.366  25.185  29.047 -0.2303  0.2119 -0.0463
24567W        W67558  33.419  30.909   7.160  0.0130  0.2673 -0.1132
24568W        W67559  25.590  30.886   6.271 -0.0388 -0.0262 -0.0473
24569W        W67560  30.254  18.028  27.620  0.2144 -0.0930 -0.2119
24570W        W67561  32.147  17.288   7.146 -0.2334  0.0143  0.0348
24571W        W67562  24.715   4.943  27.665 -0.0637 -0.2127 -0.0447
24572W        W67563  14.220   8.175   9.034  0.1424  0.2250  0.0238
24573W        W67564   8.857  12.985  19.200  0.4126 -0.0822  0.1372
24574W        W67565  11.975  23.062   7.773  0.1272 -0.0799  0.0564
24575W        W67566  17.811   9.453   5.228 -0.5200  0.1624 -0.1659
24576W        W67567   9.943  29.108   1.484  0.0671 -0.0512  0.2028
24577W        W67568  30.401  15.436   8.218 -0.0611  0.0451 -0.1060
24578W        W67569   4.470  20.031   9.932  0.0621  0.0547  0.1206
24579W        W67570  33.702  20.052   2.335  0.3748  0.1701 -0.0166
24580W        W67571   2.054  14.917   7.499 -0.0523  0.1346  0.1609
24581W        W67572  34.098  19.627   7.661 -0.0680 -0.0210  0.1853
24582W        W67573  20.155  11.986   5.199  0.0289  0.1356 -0.0426
24583W        W67574   6.254  15.556   8.963  0.0239  0.1083 -0.0409
24584W        W67575   4.000   4.227   9.242  0.2170  0.1281 -0.2726
24585W        W67576  16.475   8.268   8.837 -0.0118  0.1339  0.1916
24586W        W67577  18.715  26.326  24.836 -0.3057 -0.1651 -0.0796
24587W        W67578  10.032  14.525   8.065  0.0706 -0.0017  0.2142
24588W        W67579   4.540  21.915  17.870  0.5221  0.0085  0.2191
24589W        W67580  25.414  22.406   8.764  0.1360  0.2587  0.0032
24590W        W67581  17.130  13.602   5.694 -0.0123  0.4546  0.0062
24591W        W67582   6.444  23.623  27.204  0.3270 -0.0457  0.0735
24592W        W67583  13.679   6.271  10.040  0.0863  0.0384  0.0679
24593W        W67584   2.416   5.385   7.547 -0.2860 -0.0436  0.0137
24594W        W67585  24.452  10.795   3.749 -0.2176  0.1324 -0.3540
24595W        W67586  21.220  22.579   0.054 -0.1791 -0.2855  0.1466
24596W        W67587  21.060  21.178  24.134 -0.2228  0.1186 -0.0616
24597W        W67588  30.069  29.419  27.690 -0.3902 -0.1038  0.3651
24598W        W67589   1.731  16.508   3.981 -0.1281 -0.1388 -0.2412
24599W        W67590  13.079  13.948   2.259 -0.0859 -0.0417 -0.1873
24600W        W67591  12.973   6.726  26.156  0.2687  0.2917  0.0035
24601W        W67592  33.169  21.781   0.515  0.0589 -0.0940 -0.1543
24602W        W67593  18.416  31.543   9.227 -0.0168  0.2164  0.1537
24603W        W67594  18.710  10.393   9.314  0.0840  0.2929  0.0485
24604W        W67595   7.474  17.699   7.675 -0.0536 -0.0592  0.1231
24605W        W67596  32.253   7.254  25.554 -0.1568 -0.0729  0.3316
24606W        W67597  26.009  24.144  28.085 -0.0565 -0.2521  0.0632
24607W        W67598  20.493  10.371   8.608  0.0187  0.0857  0.0437
24608W        W67599  22.289  18.798  21.932 -0.0772  0.2662 -0.0644
24609W        W67600   0.022  21.772  28.411 -0.3663 -0.1471  0.2991
24610W        W67601   9.049  18.121  28.253 -0.1320 -0.1010  0.4130
24611W        W67602   7.816   3.110   7.559 -0.1364  0.0699 -0.2365
24612W        W67603  15.107  12.108  22.119 -0.1070 -0.2401  0.2084
24613W        W67604  20.490  22.652   6.739  0.4377  0.0153  0.2040
24614W        W67605   0.395  19.947   6.578 -0.0348  0.1604 -0.2653
24615W        W67606  27.868  20.436   3.304  0.1267  0.0162 -0.1184
24616W        W67607  30.337  28.973  26.306 -0.0883  0.2660  0.0133
24617W        W67608  14.168  15.762   6.058  0.0570 -0.1144 -0.0985
24618W        W67609   2.168   5.524  22.944 -0.0130  0.1337 -0.1974
24619W        W67610  16.074  15.654  26.535 -0.1010 -0.3527  0.4324
24620W        W67611  24.442   3.752   5.298  0.2906 -0.1103 -0.2843
24621W        W67612   9.152   7.575  18.350 -0.1443 -0.1096  0.1009
24622W        W67613   5.771  26.394   3.740  0.0932  0.1257  0.3419
24623W        W67614  33.368  13.297   1.730  0.0280  0.1647  0.0656
24624W        W67615  14.699  25.038   8.504  0.2067 -0.0275  0.2757
24625W        W67616  24.918  17.717  28.775  0.0352 -0.4146 -0.1282
24626W        W67617  17.922  14.201  24.995 -0.1454 -0.1784  0.4035
24627W        W67618  12.014  27.319   0.960  0.3509 -0.1529 -0.0752
24628W        W67619  28.722   6.454   2.088 -0.0620  0.0628  0.0003
24629W        W67620  14.665  26.453   7.946  0.2167 -0.1132  0.1178
24630W        W67621   1.367  25.430  18.449 -0.0788  0.1264 -0.3599
24631W        W67622  32.919   2.062  28.147 -0.0900 -0.0570 -0.2375
24632W        W67623  25.211  25.161   6.460 -0.1970  0.0444  0.3374
24633W        W67624  19.228  19.277   7.122 -0.2988 -0.0094 -0.1960
24634W        W67625  26.381  23.024   4.752 -0.1631  0.3219  0.5017
24635W        W67626  24.672  14.189   6.613 -0.0501  0.1413 -0.1987
24636W        W67627   1.338   8.763   4.391  0.1318 -0.0329 -0.0960
24637W        W67628  21.971  29.253  17.779 -0.1516  0.0634  0.1069
24638W        W67629  13.941   4.807  24.343 -0.2002  0.1000 -0.2011
24639W        W67630  26.869  26.130  15.069 -0.0546  0.1903  0.1611
24640W        W67631  19.943  16.928   8.581  0.0760  0.0157  0.5038
24641W        W67632  15.943  16.454  27.252 -0.1231  0.3306 -0.1000
24642W        W67633  30.529  29.168  18.671  0.1190  0.1427 -0.0915
24643W        W67634  21.595  28.652   3.526  0.2945 -0.0525  0.1712
24644W        W67635  22.084   9.763   0.542  0.4741 -0.1300 -0.1305
24645W        W67636  22.497   8.124  25.104  0.1770  0.0516  0.2015
24646W        W67637  17.391  26.546  24.415 -0.2838 -0.0379 -0.1892
24647W        W67638  19.634  25.785   7.101 -0.3010  0.0064 -0.1247
24648W        W67639   7.902   9.304   4.030 -0.0135  0.0646  0.0795
24649W        W67640  18.339  15.360   3.890 -0.0909 -0.3790  0.0367
24650W        W67641   0.589   5.979  22.396  0.1024  0.0802  0.0121
24651W        W67642  11.869   8.419   3.217 -0.1546  0.0935 -0.1148
24652W        W67643  19.044  11.209  26.991  0.2803 -0.1970  0.2234
24653W        W67644  27.466  16.134  26.426 -0.0849  0.1580  0.2218
24654W        W67645  28.718  15.457   2.846 -0.1922  0.0133 -0.0830
24655W        W67646  21.365   9.105  28.870 -0.1699  0.0995  0.1084
24656W        W67647  16.976  20.990   4.497  0.1601 -0.0913  0.1611
24657W        W67648  30.163  32.800  20.975  0.0848  0.1469  0.3372
24658W        W67649  24.395  30.394  21.905  0.0186  0.1900  0.2238
24659W        W67650   2.431  26.049  21.116 -0.2249  0.0333  0.0232
24660W        W67651  18.899   6.603   5.229 -0.1007 -0.3707 -0.1593
24661W        W67652  15.071  21.644   0.424  0.0587 -0.2470  0.1690
24662W        W67653  19.469  12.380   8.251 -0.2294  0.2064 -0.3303
24663W        W67654   1.321  32.308   2.791 -0.3084 -0.2148  0.0723
24664W        W67655  17.754   0.130   9.072 -0.3173  0.0535 -0.1872
24665W        W67656  22.610   4.029   5.544 -0.1685  0.2131 -0.0517
24666W        W67657  22.432  33.309   7.033  0.1128 -0.2245 -0.0145
24667W        W67658  33.252  33.052   9.273 -0.0001 -0.2278  0.1308
24668W        W67659  31.180  11.973   6.737 -0.0254  0.1752 -0.0555
24669W        W67660  16.738  14.552  26.685 -0.2119  0.0886  0.0367
24670W        W67661   1.208  17.674   5.282 -0.4010 -0.1067  0.1286
24671W        W67662  14.798  32.954  15.643  0.0650 -0.1429  0.4404
24672W        W67663  17.296  25.090  22.433 -0.1330  0.1601 -0.1075
24673W        W67664  26.618  31.106   1.441 -0.1367 -0.0066  0.2845
24674W        W67665  21.270   2.684   7.094 -0.2189  0.2129  0.0353
24675W        W67666  21.486  19.344  24.563 -0.1675 -0.2043 -0.0855
24676W        W67667  15.475  20.893   0.874  0.0440  0.2562  0.1650
24677W        W67668  14.992  22.373  26.429  0.0589  0.3080 -0.1246
24678W        W67669  26.372  11.802  19.878  0.0900 -0.1265 -0.2107
24679W        W67670   3.064  31.182   9.554  0.1210 -0.3673  0.2325
24680W        W67671   9.368  11.502   9.372 -0.2484 -0.0586  0.1583
24681W        W67672  16.706  22.046   1.085 -0.0021  0.0308  0.2523
24682W        W67673  25.503  26.934   9.096 -0.1174  0.0311 -0.2488
24683W        W67674  28.466   9.550  15.875  0.1423  0.0823 -0.0590
24684W        W67675   9.701  18.499   1.144 -0.3588 -0.1662  0.2479
24685W        W67676  29.934  14.703  17.429 -0.0549  0.0934 -0.1795
24686W        W67677  14.980  12.187   5.717  0.1412  0.2909  0.1201
24687W        W67678  11.917  15.914  25.358 -0.1359  0.1392  0.1856
24688W        W67679  21.532   9.010   8.701  0.1032 -0.1640 -0.1331
24689W        W67680  23.903  24.883  20.455 -0.0465 -0.1295 -0.2678
24690W        W67681   7.693   7.538   6.947  0.1786 -0.0664 -0.1034
24691W        W67682  25.177  29.348  27.157  0.2444 -0.1640  0.0355
24692W        W67683  24.474  23.892   7.308  0.2044  0.0556  0.0845
24693W        W67684  29.291  24.055  27.157  0.0339  0.0750  0.1784
24694W        W67685  24.410  16.289  24.749  0.0340 -0.1621  0.0371
24695W        W67686  27.826   2.152   6.195  0.0642  0.1434 -0.1150
24696W        W67687  18.052  17.846  28.032 -0.0223 -0.0186 -0.1498
24697W        W67688  22.389  14.618   6.983  0.2436  0.0380 -0.1755
24698W        W67689  31.903   7.323   8.112  0.0027  0.1261  0.3089
24699W        W67690   2.088  21.112  28.955  0.1301 -0.0220 -0.0896
24700W        W67691  29.831  18.939  23.730 -0.3581  0.2583  0.1406
24701W        W67692  10.094  12.464  24.245  0.2067 -0.1831  0.0801
24702W        W67693  19.539  29.919   8.860  0.3233 -0.2267  0.0349
24703W        W67694  16.989  13.819  27.142 -0.0749 -0.1199  0.1943
24704W        W67695  21.517  29.830  23.797 -0.0655 -0.1746  0.0180
24705W        W67696   0.208   3.928   4.847  0.1075 -0.3715  0.0021
24706W        W67697  21.096  15.724  15.593  0.2062  0.1116  0.0839
24707W        W67698  18.427  16.637   8.429  0.0587  0.4111 -0.0601
24708W        W67699  18.711  18.848  25.763 -0.3674 -0.2840  0.3539
24709W        W67700   6.989  15.052   9.905  0.1082  0.1816  0.0503
24710W        W67701  24.207  11.116   2.959  0.1908  0.0714 -0.0524
24711W        W67702   5.446   7.980  10.354  0.0020  0.3124  0.2437
24712W        W67703  16.760  13.003  24.673  0.1440  0.2180 -0.0727
24713W        W67704  27.330  28.102   2.072  0.0928 -0.1967 -0.4337
24714W        W67705  27.146  28.120  25.459 -0.1698 -0.0211 -0.1321
24715W        W67706  15.989  28.658  29.062  0.0250  0.0115 -0.1491
24716W        W67707  14.383  23.623   7.042 -0.1054 -0.0644  0.3224
24717W        W67708   8.323  14.814  23.704 -0.1812 -0.1459  0.0809
24718W        W67709   1.455  18.994  26.734 -0.0284  0.1205  0.1648
24719W        W67710  16.200   6.799  11.045 -0.0489  0.6848  0.0017
24720W        W67711  17.752  22.337  23.470  0.0752 -0.0437 -0.1238
24721W        W67712   6.346  26.925   7.693 -0.1689  0.1968 -0.1831
24722W        W67713  32.958   4.461   0.527  0.0983  0.0521 -0.2936
24723W        W67714  24.431  29.812   6.196  0.3428  0.1722 -0.0351
24724W        W67715  34.080  20.497   9.456  0.1420 -0.1726 -0.0872
24725W        W67716  26.805  10.356  29.078  0.1027  0.0708 -0.0114
24726W        W67717   2.563  15.052  10.727 -0.1264 -0.3633  0.1197
24727W        W67718  23.712  22.258  15.832 -0.2004 -0.0055  0.0025
24728W        W67719  32.591  25.500  26.051  0.0938 -0.1779 -0.0809
24729W        W67720  24.106   7.064  26.138 -0.1993  0.0030  0.2062
24730W        W67721  21.476   0.998   1.347 -0.1209 -0.0334 -0.0579
24731W        W67722  31.054  29.930   7.821 -0.0749 -0.0463  0.0919
24732W        W67723  34.565  17.161   6.500 -0.2308  0.0075 -0.1539
24733W        W67724  12.992  16.763   2.086 -0.3202 -0.0281  0.1724
24734W        W67725   9.191  23.341   2.409 -0.3138 -0.2778 -0.0724
24735W        W67726  33.471  12.633   4.294  0.5124  0.2379  0.1332
24736W        W67727  20.046  19.828   4.237 -0.0868  0.0127  0.0385
24737W        W67728   0.044  22.958  27.638  0.3797  0.1912 -0.2866
24738W        W67729   5.648  10.627   9.067  0.0160 -0.0224 -0.0140
24739W        W67730  11.011  16.581   2.400 -0.0065  0.0960  0.0883
24740W        W67731  11.302  17.826  18.507 -0.0654  0.1166  0.1525
24741W        W67732   0.949   0.577  24.428  0.2558 -0.3148 -0.1019
24742W        W67733   5.916  15.980   1.768 -0.0088 -0.1194 -0.0933
24743W        W67734   5.092   6.256   3.571  0.0702  0.1668  0.2210
24744W        W67735  31.565  33.174  26.502 -0.0755 -0.0762 -0.2644
24745W        W67736  11.735  27.790  22.293 -0.0279  0.0001  0.0860
24746W        W67737  20.658  12.267   9.213  0.0184 -0.0326 -0.1916
24747W        W67738  23.688   9.871   7.804 -0.1715 -0.2770  0.1993
24748W        W67739  27.247  17.744   6.297 -0.1202 -0.0269  0.1286
24749W        W67740  22.248  11.320  24.143 -0.1326  0.0507  0.0441
24750W        W67741  28.931   1.923  15.720 -0.1532 -0.0722 -0.3615
24751W        W67742  11.970  13.912   3.066 -0.1772  0.1529 -0.1102
24752W        W67743  22.515   0.256  14.930  0.2210  0.2192  0.1167
24753W        W67744  19.466  15.489   4.716 -0.0081 -0.2163 -0.0579
24754W        W67745  32.402  13.468  22.172 -0.0369  0.1502  0.0085
24755W        W67746  16.051  13.849   1.854 -0.3130  0.2101 -0.0950
24756W        W67747  25.886  28.915  14.165 -0.0277 -0.2249  0.3540
24757W        W67748  21.029  19.410  12.405  0.0747  0.1027 -0.0477
24758W        W67749  24.926  12.512  16.706 -0.0194  0.2479 -0.0536
24759W        W67750  31.164  14.127  15.579  0.1179 -0.1095 -0.0568
24760W        W67751  22.843  27.391  29.176  0.0756 -0.1065  0.1814
24761W        W67752  32.227  28.506  16.116  0.1675  0.1038 -0.0011
24762W        W67753   2.190  16.128  26.873 -0.1024  0.1943 -0.1145
24763W        W67754  16.430  27.005  29.161 -0.0805  0.1512 -0.2195
24764W        W67755   2.873  19.828   5.413 -0.0950  0.1723 -0.2814
24765W        W67756  26.316  22.770  17.945 -0.3654  0.0433 -0.2179
24766W        W67757  29.430  27.841   4.636 -0.3531  0.0280  0.1436
24767W        W67758   5.870  17.135   1.238  0.3152  0.2087  0.4330
24768W        W67759  34.154  12.539  27.696 -0.0337 -0.0069  0.1004
24769W        W67760  24.129   3.820   8.890 -0.0325  0.2264  0.1398
24770W        W67761   9.879  17.454  18.841 -0.1049  0.0239  0.2076
24771W        W67762  12.285  31.533   7.110 -0.1069 -0.0215  0.0008
24772W        W67763   7.211  34.442   1.330  0.0449 -0.1138  0.2852
24773W        W67764   1.471  19.096  27.466 -0.0457 -0.1694  0.2691
24774W        W67765  11.865  24.671   4.009  0.0965  0.1450  0.3667
24775W        W67766  28.799  13.510   6.082 -0.0174 -0.2876  0.1255
24776W        W67767  29.746  23.539   0.370 -0.1656  0.0898  0.0081
24777W        W67768   0.698  10.152  26.676  0.1274  0.0287  0.2957
24778W        W67769  15.110   8.234  19.752 -0.0954  0.5630 -0.1048
24779W        W67770  10.803   7.394  24.804 -0.2003 -0.2233  0.2364
24780W        W67771  29.116  23.682  27.768 -0.1707 -0.2004 -0.0498
24781W        W67772  25.119  20.794   8.229  0.3258  0.2423  0.2773
24782W        W67773  12.571  28.090  16.854  0.1180  0.2575 -0.0488
24783W        W67774  14.942  12.143  19.077 -0.2954 -0.0056  0.1863
24784W        W67775  26.723  15.457   7.131 -0.0678 -0.1557 -0.0447
24785W        W67776  27.180  26.873   9.501 -0.1455  0.0172  0.2342
24786W        W67777  21.342  23.128  16.065  0.2992  0.3171  0.2120
24787W        W67778  23.878  22.183  17.941  0.2446 -0.0187  0.1638
24788W        W67779  25.209  18.803  18.754 -0.0212  0.0386  0.2319
24789W        W67780   0.887   0.082   4.150  0.0737  0.0305  0.0997
24790W        W67781  12.693  23.265   1.422  0.0879 -0.2190  0.2276
24791W        W67782  33.866  29.024   2.206  0.0765  0.0717 -0.0747
24792W        W67783  24.760  17.539  29.236 -0.1120 -0.0216 -0.0968
24793W        W67784  20.416  26.304   0.634 -0.0733 -0.1542 -0.0741
24794W        W67785  33.653   0.500  16.999  0.0484  0.3789  0.0350
24795W        W67786  10.782  15.103   6.308 -0.1077 -0.0066 -0.0478
24796W        W67787  16.415   2.298   0.580 -0.0730 -0.0091  0.0718
24797W        W67788  21.119  12.782   4.613 -0.4038  0.1840 -0.0924
24798W        W67789  20.092  15.339   6.812 -0.0766 -0.2870  0.0083
24799W        W67790  17.418  19.151   7.950 -0.3181  0.4070  0.0750
24800W        W67791   1.473  33.116  28.250  0.2548  0.0318  0.0475
24801W        W67792  15.659  30.794   5.840  0.1124 -0.0804 -0.1977
24802W        W67793  11.207  13.323   1.750  0.0481  0.3386  0.3818
24803W        W67794  31.971  13.381  25.491 -0.0628 -0.1142 -0.2188
24804W        W67795  18.238  18.828   8.126  0.1609  0.0895  0.5151
24805W        W67796  26.373  12.236  27.690 -0.0202 -0.1077 -0.2165
24806W        W67797  29.813  20.030   6.041  0.1634  0.3081  0.1109
24807W        W67798  11.776   8.617  10.397 -0.0604  0.2360  0.5662
24808W        W67799  28.552  22.375  13.901 -0.3778  0.0226 -0.2303
24809W        W67800  27.229   0.335   7.453  0.0799  0.0876  0.1180
24810W        W67801  26.130  10.305  26.217 -0.3220 -0.0907  0.0823
24811W        W67802  14.714  23.972  27.217 -0.2095 -0.3216  0.0958
24812W        W67803  15.248  21.472   3.898  0.1481 -0.1607  0.3009
24813W        W67804  16.433  21.371  24.132  0.4342 -0.3473 -0.1223
24814W        W67805  17.778  15.987   7.234 -0.4786 -0.3773 -0.0111
24815W        W67806   7.710  33.900   7.575 -0.3178  0.0707  0.1363
24816W        W67807  26.720  31.029   8.296  0.1361 -0.0299 -0.0250
24817W        W67808  13.962   9.617   9.645  0.1499 -0.1196 -0.1323
24818W        W67809  24.902  12.228  15.153 -0.1544 -0.0631  0.0351
24819W        W67810  18.748  13.229   1.006  0.3954 -0.2407  0.1866
24820W        W67811  15.455  30.201  28.137 -0.0007  0.0211  0.1797
24821W        W67812  27.095  26.483  23.218 -0.1385  0.0513 -0.6417
24822W        W67813  33.063  34.086  16.429  0.2697  0.0434 -0.1104
24823W        W67814  15.870  21.622   2.768  0.0649 -0.1685 -0.1421
24824W        W67815  20.628  19.019  25.646 -0.1444 -0.1440 -0.2433
24825W        W67816  17.932  18.899   9.382 -0.6255 -0.0110 -0.2426
24826W        W67817   6.762  20.555  15.552  0.1671  0.0084 -0.0589
24827W        W67818  31.339  15.865  15.908 -0.2249  0.2517  0.0840
24828W        W67819  28.662  25.522  24.559  0.0412  0.0198 -0.0943
24829W        W67820  13.294   5.973   7.129 -0.0939  0.2740  0.0294
24830W        W67821  26.101  13.856   2.002  0.1467  0.0990  0.3418
24831W        W67822  20.510  22.527   5.586  0.3725  0.0613  0.1223
24832W        W67823  24.268  18.000   8.552 -0.0686 -0.0877  0.0221
24833W        W67824   6.558  19.055  18.698 -0.2951  0.1858  0.1541
24834W        W67825  12.654  24.960  25.031 -0.1608 -0.1258 -0.1238
24835W        W67826  29.010   5.450   3.672 -0.1100  0.1328 -0.0456
24836W        W67827  22.427   7.417   6.658  0.5877  0.0773  0.1343
24837W        W67828  19.747  15.826  26.093  0.1410 -0.2280 -0.0568
24838W        W67829   4.217   7.195  25.499  0.1450 -0.4065 -0.1079
24839W        W67830   7.821  19.312  28.902  0.0783  0.0177  0.2172
24840W        W67831  17.603  19.637   0.799 -0.0435 -0.0639  0.3051
24841W        W67832  25.344   9.782   1.620  0.1315 -0.1736 -0.0505
24842W        W67833   1.561  14.978   6.256  0.0486 -0.0074 -0.0632
24843W        W67834  14.004  18.289  21.609  0.0941 -0.1269  0.3616
24844W        W67835  17.894  14.236   3.792 -0.1513 -0.1394  0.1546
24845W        W67836  30.085  23.053  23.384 -0.1242  0.0780  0.1475
24846W        W67837  22.104  15.043   5.901  0.0094 -0.0796 -0.0588
24847W        W67838  14.748  27.075   2.884  0.3227  0.1119  0.0436
24848W        W67839  14.219  32.019   3.317 -0.0756 -0.1595 -0.1072
24849W        W67840   8.767  11.494   9.441  0.0875 -0.1228 -0.0634
24850W        W67841  31.198  29.970   1.074 -0.0981  0.1889  0.1307
24851W        W67842  16.226  25.231  21.585 -0.1210 -0.1438  0.0994
24852W        W67843  27.020  28.187  23.389 -0.0659  0.0437 -0.0137
24853W        W67844  14.687  20.764   1.669 -0.0209 -0.1630 -0.0132
24854W        W67845  17.583  15.820  25.489 -0.2689  0.1039  0.0570
24855W        W67846  33.769  17.891   2.415 -0.2816  0.1070 -0.0519
24856W        W67847   0.986   8.120  23.451  0.3533  0.1692  0.0734
24857W        W67848  24.756   8.779   8.795 -0.1975  0.4325  0.2217
24858W        W67849  30.071  14.948  27.563 -0.3456  0.2469  0.0766
24859W        W67850  34.131  29.081   5.911  0.1326 -0.0776 -0.3150
24860W        W67851  34.072  12.765   7.926 -0.1261 -0.2762  0.0852
24861W        W67852  28.540  17.531  10.181 -0.0074  0.0617 -0.0035
24862W        W67853   4.668   3.960  23.719  0.0099 -0.0839 -0.3654
24863W        W67854  29.949  25.009   7.067  0.2904  0.0187  0.0830
24864W        W67855  27.112  26.965  24.848 -0.2939 -0.1471  0.1824
24865W        W67856  10.697  19.147  24.773  0.3053  0.1582 -0.0542
24866W        W67857  28.444  22.930  27.330  0.1490 -0.3596 -0.0504
24867W        W67858  10.996  22.952   6.766  0.0995  0.0489 -0.0525
24868W        W67859  26.669  29.069   1.768  0.1766 -0.0122 -0.0109
24869W        W67860  31.830  34.447   3.598 -0.1781  0.0679  0.0393
24870W        W67861  23.701  16.473  28.344  0.0654 -0.1807 -0.1061
24871W        W67862   1.042   8.494   6.343 -0.2413 -0.1528  0.0602
24872W        W67863   2.832  24.199  27.908 -0.0796 -0.1226 -0.1295
24873W        W67864  20.649  18.421   9.049  0.3490  0.0527 -0.0591
24874W        W67865   2.796   5.175  26.490  0.1987  0.0967  0.1738
24875W        W67866  24.210  16.358   2.308  0.3133 -0.1947 -0.1316
24876W        W67867  13.015  25.356  27.494  0.0676 -0.0840 -0.1027
24877W        W67868  27.159  18.761   1.761  0.0899 -0.1553 -0.2905
24878W        W67869   9.824  21.859   2.868  0.0742  0.1754  0.1085
24879W        W67870  32.647  19.545   3.461  0.0540 -0.0176 -0.0325
24880W        W67871  31.831  33.516   5.961  0.1093 -0.2799 -0.1712
24881W        W67872   8.098  14.225   6.848  0.0880 -0.2456 -0.0898
24882W        W67873  16.748  17.226   5.214  0.2547  0.3143  0.1188
24883W        W67874  27.421   9.487   5.294  0.1586  0.1354 -0.3228
24884W        W67875  27.543  29.227   1.708 -0.0325  0.3107 -0.1106
24885W        W67876  14.716  10.302   5.664  0.1674  0.1102 -0.1756
24886W        W67877  29.903  30.177   0.193  0.0747  0.0117 -0.1396
24887W        W67878  16.092  25.393  23.696  0.0631  0.1453 -0.2681
24888W        W67879  20.285   3.853  24.816 -0.2093  0.0834 -0.1995
24889W        W67880  13.951  19.348   2.776 -0.0436  0.0333 -0.1114
24890W        W67881  15.737  18.329   6.889  0.0688  0.0955 -0.0769
24891W        W67882  31.137  17.936   6.500  0.2168  0.1288  0.3206
24892W        W67883  22.695   6.304   5.791 -0.0724  0.0644  0.2158
24893W        W67884  17.906  22.782   5.011  0.2145  0.2288 -0.3261
24894W        W67885  20.379  27.343   0.177 -0.0707  0.1653 -0.0536
24895W        W67886  24.708  20.015  24.394  0.1261  0.2434 -0.2825
24896W        W67887  29.491  16.381   0.895  0.4264  0.3854 -0.0954
24897W        W67888  30.052  10.373   3.259  0.0452  0.1781 -0.2907
24898W        W67889  20.923  19.954   2.606  0.1462  0.0298 -0.0105
24899W        W67890   1.128   8.385  19.552  0.1454 -0.1121  0.4149
24900W        W67891  31.100  15.321   8.466 -0.0385 -0.2172  0.2977
24901W        W67892  17.768   8.577  20.527 -0.3235 -0.1320 -0.0785
24902W        W67893  24.212  34.156  27.966  0.0715  0.2329 -0.2086
24903W        W67894   2.745  10.053  24.330 -0.0198 -0.0904  0.0272
24904W        W67895  20.185  30.325   4.671 -0.2623  0.0997 -0.0603
24905W        W67896  19.503  33.438   0.481  0.0721  0.0402  0.1263
24906W        W67897  22.330  12.264  28.977 -0.2070 -0.2936  0.1527
24907W        W67898  13.251  19.293  28.290 -0.0291 -0.0704 -0.2162
24908W        W67899  19.002  25.834   3.022 -0.1270  0.2069 -0.0731
24909W        W67900  26.348  22.262   4.521 -0.2723 -0.1423  0.2937
24910W        W67901  21.838  14.826  26.653  0.0353 -0.1040  0.1165
24911W        W67902  24.866  11.115  27.646  0.0216  0.0829  0.0275
24912W        W67903  28.230  24.549   4.024 -0.2929 -0.3596 -0.2992
24913W        W67904  13.265  16.534  20.983 -0.2346  0.0800 -0.0877
24914W        W67905  18.773   9.784  23.556 -0.1253  0.1547  0.0497
24915W        W67906  10.115  17.564  13.556 -0.1293 -0.0043  0.4292
24916W        W67907   9.350  22.038  16.079 -0.0714  0.4359 -0.1367
24917W        W67908  28.913  23.150   9.258  0.2335 -0.0065  0.1496
24918W        W67909  28.419  18.625  24.886  0.0708 -0.1497  0.0365
24919W        W67910  32.451   8.160  22.569 -0.3644 -0.2020  0.4635
24920W        W67911  14.772  19.499   5.315 -0.2229 -0.0460  0.3666
24921W        W67912   4.207  17.669   2.826 -0.0443 -0.1578  0.4745
24922W        W67913  27.007  18.532  27.361 -0.1497  0.1307 -0.2397
24923W        W67914  27.119  31.414   8.248  0.1673 -0.1002  0.4388
24924W        W67915  25.644  28.087  28.561 -0.0211  0.2546 -0.0578
24925W        W67916   7.848  10.665  26.365 -0.0884  0.1717 -0.3386
24926W        W67917  31.944   7.175   3.663 -0.2495 -0.0885 -0.2015
24927W        W67918  17.168  28.711   2.921  0.1883  0.0587  0.0365
24928W        W67919  20.745  29.475   3.937 -0.2536  0.2364 -0.0327
24929W        W67920  27.300  13.963   3.597 -0.1465 -0.0039  0.2002
24930W        W67921  20.915  22.093   4.239  0.1598  0.2869  0.2369
24931W        W67922  31.437  11.896  18.761 -0.2315  0.0292 -0.1655
24932W        W67923  27.512   7.937  16.514  0.1541  0.1999  0.1660
24933W        W67924  20.792  19.449   2.222 -0.1073  0.2721  0.0341
24934W        W67925  26.887  10.374  22.325 -0.0543 -0.0014  0.0167
24935W        W67926  21.332  27.139   7.712  0.2124 -0.1783 -0.0255
24936W        W67927  19.631  14.484   6.981  0.0418  0.2358  0.1976
24937W        W67928  20.199  31.615  26.354 -0.0459  0.0865 -0.2550
24938W        W67929  12.719  16.767  29.072 -0.3413 -0.1326  0.2283
24939W        W67930  28.137  13.746   4.137 -0.0996 -0.0084 -0.1374
24940W        W67931   7.710  16.034  28.042  0.1904 -0.2979  0.0876
24941W        W67932  24.002  24.215   9.464 -0.0246 -0.0322 -0.1681
24942W        W67933  26.407   6.708   7.348  0.2395  0.1962 -0.2534
24943W        W67934   9.278  18.356   7.445  0.0695  0.1260 -0.1287
24944W        W67935   3.953  15.502   9.075  0.0908 -0.2067 -0.0314
24945W        W67936  26.799  16.716  16.040  0.0184 -0.0014  0.3602
24946W        W67937  31.398  20.210  10.409 -0.0472 -0.0033 -0.2337
24947W        W67938  29.580   1.251   4.794  0.2196 -0.1664  0.0694
24948W        W67939  27.981  25.298   0.213  0.4581 -0.0190 -0.1640
24949W        W67940  15.632   5.669  28.281 -0.1357 -0.5812  0.0306
24950W        W67941  16.016  11.252   4.827  0.1718  0.2950 -0.1750
24951W        W67942  27.734  30.972  20.899  0.4047 -0.2686 -0.0196
24952W        W67943  31.957  15.486  24.986  0.0399 -0.0911 -0.0761
24953W        W67944  17.874  19.136   2.981 -0.1719 -0.0559 -0.0172
24954W        W67945  23.579  10.714   6.914  0.1141 -0.3477  0.0057
24955W        W67946  25.896  20.367  27.904 -0.0524  0.0181 -0.0585
24956W        W67947  11.750  16.763   2.786 -0.2089  0.2204 -0.1817
24957W        W67948  19.428  15.040   5.674 -0.0305  0.0949  0.0652
24958W        W67949  27.551  18.007   3.956  0.1761 -0.2095 -0.0509
24959W        W67950  30.061  18.577  10.857  0.1841 -0.2876  0.0368
24960W        W67951  27.309  12.506  28.480  0.1055 -0.0044 -0.1483
24961W        W67952  13.324  18.867   6.050  0.0345 -0.0003 -0.2032
24962W        W67953  19.108  21.096  26.204  0.0805 -0.2803 -0.1692
24963W        W67954  10.608  13.839   8.626 -0.2053  0.0993 -0.0487
24964W        W67955  10.163  22.026  28.650 -0.0008 -0.1580 -0.2675
24965W        W67956  32.323  26.314   5.338 -0.1501  0.0391 -0.3677
24966W        W67957  22.117  29.028  21.688  0.0974 -0.1098 -0.2896
24967W        W67958   1.653  21.671   3.499  0.0561  0.5012 -0.1178
24968W        W67959   7.644  29.437   0.509  0.0436 -0.0201  0.0716
24969W        W67960  24.483  13.348   4.283  0.0687  0.1320  0.3776
24970W        W67961  23.538   4.350  28.710  0.1274 -0.1332 -0.1194
24971W        W67962  23.279  23.949   8.748  0.2108  0.0072 -0.0188
24972W        W67963  13.628  19.893  25.436 -0.1541  0.1784  0.2704
24973W        W67964  26.506  24.228  29.092  0.0022  0.1076 -0.0525
24974W        W67965  23.797   2.501   8.191 -0.1237 -0.2646 -0.0480
24975W        W67966  26.357  30.051  21.372 -0.1898  0.1502 -0.0682
24976W        W67967  19.911  21.721  16.882 -0.0031  0.0710 -0.3342
24977W        W67968  28.815  21.906  22.161 -0.0400  0.0345  0.1674
24978W        W67969  15.355  19.246  27.005 -0.2522  0.0594  0.2353
24979W        W67970  22.835  29.609   5.404 -0.0176 -0.2189 -0.2989
24980W        W67971  32.625  13.581  21.711 -0.1681  0.5296  0.3908
24981W        W67972   8.918  33.621   1.915 -0.1527 -0.3274  0.2103
24982W        W67973  15.640  18.420   2.873 -0.0445  0.0679 -0.1665
24983W        W67974  26.033  17.999   2.072  0.0628  0.0095 -0.1249
24984W        W67975  17.844   9.457  27.365 -0.2856 -0.0374  0.1508
24985W        W67976   6.919   7.573   6.194 -0.0588  0.1092  0.2682
24986W        W67977   7.571   4.222   5.442 -0.0529 -0.3160 -0.1346
24987W        W67978  27.098  11.918   6.287  0.1272  0.1115  0.0940
24988W        W67979  11.486  18.105   9.386  0.1276  0.1753  0.0654
24989W        W67980  26.505   6.782  19.541  0.0523 -0.2083  0.2555
24990W        W67981   1.548  20.481   9.576  0.1212 -0.0188  0.0087
24991W        W67982  23.115  11.486   0.917 -0.2040  0.1466  0.2162
24992W        W67983  33.430  31.779  25.038 -0.0251 -0.0752 -0.0003
24993W        W67984  29.762   9.652   5.504  0.4042  0.0558 -0.1759
24994W        W67985  20.808   5.508  25.938  0.0894  0.3335 -0.4018
24995W        W67986  26.283  17.980   2.946 -0.1690 -0.1142 -0.2162
24996W        W67987  28.601  21.088  13.705 -0.1518 -0.0477  0.1097
24997W        W67988  17.265  16.606  26.050  0.3152  0.0808 -0.1232
24998W        W67989  15.060   3.021   9.608 -0.2210  0.1189  0.2172
24999W        W67990   9.421  19.200   5.400 -0.2827 -0.1144 -0.2133
25000W        W67991  24.118  26.684   8.443  0.0475  0.0354 -0.1818
25001W        W67992  15.025  20.986   6.812 -0.1160 -0.0921  0.2494
25002W        W67993  12.870   4.956   1.850 -0.1879  0.0620 -0.1120
25003W        W67994  24.598  20.095   3.341 -0.3034  0.1537 -0.1025
25004W        W67995  31.249   7.716  21.372  0.1543 -0.1405 -0.0647
25005W        W67996  25.041  30.244   4.407  0.0324  0.0131  0.0936
25006W        W67997  30.124  17.410  28.473  0.0678 -0.3474 -0.0021
25007W        W67998  19.516  16.149   9.162 -0.1166 -0.2022 -0.0981
25008W        W67999   1.434  24.136  27.186 -0.0547  0.1350  0.1072
25009W        W68000  14.255  25.386   9.217  0.2391  0.0867 -0.2013
25010W        W68001  10.039  23.664   4.991  0.2902 -0.0309  0.0720
25011W        W68002   9.226   3.816  19.233  0.0356  0.0755  0.2590
25012W        W68003  21.311  10.705  21.757 -0.1038 -0.0332 -0.1985
25013W        W68004  26.382   4.780  22.403  0.0913 -0.0448 -0.1465
25014W        W68005  17.170   2.001   9.175 -0.0573  0.0286  0.0592
25015W        W68006   1.531  22.037  21.860 -0.1385  0.0388 -0.0841
25016W        W68007  22.200  30.661   5.142  0.1983 -0.1397  0.0412
25017W        W68008  29.530  16.287  18.381  0.5040  0.4242 -0.1005
25018W        W68009   6.817  31.485   8.120 -0.1424 -0.0094 -0.0517
25019W        W68010  32.096  12.032  10.354 -0.0525  0.1237 -0.0212
25020W        W68011  32.890  26.605   2.854 -0.0954 -0.0234  0.1660
25021W        W68012  27.573  21.903  28.630 -0.0807 -0.1268  0.0545
25022W        W68013  23.829  33.000   6.831 -0.0294 -0.2134 -0.0304
25023W        W68014   3.995  30.814   6.197 -0.0519 -0.0381  0.0505
25024W        W68015  13.190  21.034   9.263  0.2868  0.2701 -0.0422
25025W        W68016   9.022  18.879  26.275  0.0315 -0.3232 -0.1755
25026W        W68017   1.839  25.688  14.446  0.1802 -0.0245 -0.0521
25027W        W68018   1.704  29.232   3.429  0.1568  0.2674  0.1815
25028W        W68019  26.759  24.194   0.703  0.0374 -0.0759 -0.1719
25029W        W68020   6.136  20.308   5.928  0.1094 -0.1181  0.3847
25030W        W68021   0.676  22.365   8.624 -0.1808  0.2480 -0.1524
25031W        W68022  15.453   2.603   3.575  0.0500  0.2138 -0.0796
25032W        W68023  24.370  31.358   7.158 -0.0262  0.0864  0.4060
25033W        W68024  18.257  19.103   6.577 -0.3190  0.2912 -0.1293
25034W        W68025  24.159   0.923   7.862 -0.0330 -0.2015  0.2913
25035W        W68026  30.450  12.960   3.551  0.0536  0.0449 -0.2786
25036W        W68027   2.107   8.959   7.317  0.2469  0.0818 -0.0789
25037W        W68028   2.771  15.044   3.816  0.2531 -0.1983 -0.0964
25038W        W68029  21.997  31.117  23.516  0.0658  0.5015 -0.1429
25039W        W68030   1.243  31.682   8.336  0.2106  0.0902  0.0119
25040W        W68031  12.005  29.661   6.218 -0.3024 -0.2127  0.1393
25041W        W68032  33.796   4.017   7.788 -0.2874 -0.1408  0.3531
25042W        W68033  22.654  31.482   2.699  0.2324 -0.1858  0.0204
25043W        W68034  14.553   7.475   4.307  0.1553  0.2507 -0.1256
25044W        W68035  31.321  21.988   7.945 -0.1591  0.1352  0.0245
25045W        W68036  20.800  11.875  19.584  0.0488 -0.1844  0.1352
25046W        W68037  34.136  16.091   5.027 -0.2125 -0.0981 -0.2759
25047W        W68038  28.310  30.205   4.821  0.0420 -0.0809 -0.1306
25048W        W68039   8.544  24.186  27.527 -0.2815  0.0358 -0.5556
25049W        W68040  19.842  14.010   5.395 -0.0273 -0.2252  0.1154
25050W        W68041  28.825  14.093   6.232  0.1772  0.2801  0.1094
25051W        W68042  32.539  16.392  26.929  0.0255 -0.0100 -0.3296
25052W        W68043  30.136  18.034   1.327 -0.2834  0.0020 -0.1880
25053W        W68044  19.743   5.264  28.244  0.2873  0.1644 -0.0114
25054W        W68045  23.013  16.388   6.911  0.0229 -0.1451  0.2738
25055W        W68046  13.292   6.373  16.992  0.0146 -0.0944 -0.1559
25056W        W68047   0.359  30.604   8.621 -0.0911  0.1839  0.2664
25057W        W68048  28.130  15.853   4.081 -0.0286 -0.0074 -0.0247
25058W        W68049  12.633  18.637  20.500 -0.0118  0.1107 -0.0245
25059W        W68050  18.209  22.153   9.610  0.0323 -0.4482 -0.2508
25060W        W68051  25.806  19.067   3.832  0.0477  0.0350 -0.0251
25061W        W68052  17.197  20.064   5.476  0.2379 -0.0843  0.0197
25062W        W68053  15.484  14.577   5.573  0.0335  0.0301  0.1289
25063W        W68054  19.125  27.826   5.185 -0.2244 -0.1011  0.2438
25064W        W68055  18.682   9.562  22.477 -0.1164 -0.0228  0.0809
25065W        W68056  20.042  22.733   6.345  0.2543 -0.2009  0.4265
25066W        W68057   9.775  27.829   8.772  0.1904  0.1542  0.1104
25067W        W68058  25.045  30.160   5.243  0.1522 -0.0527 -0.2614
25068W        W68059  20.365  17.524   0.738 -0.0785 -0.1372  0.0682
25069W        W68060  14.637  14.471   4.369 -0.1032 -0.0485 -0.1583
25070W        W68061  22.951  33.429   0.942  0.0276  0.0922 -0.0134
25071W        W68062   3.227   8.924  10.613  0.3056 -0.0191 -0.0821
25072W        W68063   8.628   2.222  25.453 -0.0164 -0.2248  0.0079
25073W        W68064  25.906  24.291   8.160  0.2595 -0.0854  0.0641
25074W        W68065   3.966  14.162  11.169  0.0963  0.2406 -0.1904
25075W        W68066  23.297   9.644  20.782  0.1036  0.2084 -0.3255
25076W        W68067   5.486   2.139  25.028 -0.1848 -0.0489  0.0183
25077W        W68068  31.013  20.714   5.920 -0.5292  0.5995  0.3007
25078W        W68069  12.563  11.560   4.586  0.2576 -0.1817 -0.2751
25079W        W68070  30.965  20.877  10.146  0.1620  0.2156  0.0958
25080W        W68071  29.175  32.925   5.866  0.0154  0.2813 -0.2202
25081W        W68072  19.503  14.112   4.194  0.2700 -0.0567  0.0689
25082W        W68073   7.413  28.448  27.783 -0.0342  0.1130  0.0959
25083W        W68074  32.741  34.727   6.537  0.0406 -0.3335  0.2813
25084W        W68075  22.993   4.865   8.886  0.4298 -0.1842  0.0987
25085W        W68076  21.375  22.654   2.010  0.1149 -0.0166  0.2102
25086W        W68077  33.057  24.480  22.673  0.3128  0.3946 -0.0256
25087W        W68078  10.919  25.553   6.378 -0.1743  0.1745 -0.3342
25088W        W68079  11.188  20.808   7.269 -0.1417  0.1766  0.2423
25089W        W68080  26.854  24.989   1.431 -0.2692 -0.1155 -0.0150
25090W        W68081  17.654  30.996   8.304  0.2516  0.0727 -0.2551
25091W        W68082   1.981  26.252   8.590 -0.0898  0.0536 -0.0261
25092W        W68083   9.934  20.056  26.451  0.1766  0.1306 -0.2578
25093W        W68084   1.819  29.626   1.419 -0.1196 -0.1643  0.0121
25094W        W68085  31.586  25.586   5.801  0.0776 -0.0025  0.1124
25095W        W68086  20.761   8.826   4.101 -0.0778  0.0380 -0.0782
25096W        W68087  18.644  15.769   0.807 -0.0749 -0.2325 -0.2166
25097W        W68088  20.898  19.975  18.153  0.1733  0.2117 -0.0706
25098W        W68089  13.229  15.486  24.594  0.1075  0.2841 -0.0463
25099W        W68090  25.023  13.354   3.377 -0.2838  0.0114 -0.0279
25100W        W68091  28.399  26.222   0.354 -0.1574  0.5196 -0.0752
25101W        W68092  24.428  24.656   0.200  0.0267 -0.1784 -0.0558
25102W        W68093  17.742   1.192   5.560  0.1123 -0.3899 -0.0853
25103W        W68094   0.714  16.168  10.294  0.3574  0.0146  0.0798
25104W        W68095   3.626  34.427  28.821  0.1415  0.3570  0.1206
25105W        W68096   4.816  16.599  24.997  0.1366  0.0719 -0.0345
25106W        W68097  24.622   7.966   5.733 -0.0787  0.2643  0.1365
25107W        W68098  30.433  27.847  28.724  0.2141  0.0080  0.1113
25108W        W68099  19.157  13.069   4.090  0.0466  0.0860  0.1600
25109W        W68100   3.363   4.733   8.215 -0.1395 -0.0241 -0.0408
25110W        W68101  23.842  26.673  20.994 -0.0765 -0.2644  0.3108
25111W        W68102  19.306   3.057   6.020 -0.0254 -0.1687 -0.2271
25112W        W68103  15.693  23.133  28.014  0.0475 -0.2289  0.2154
25113W        W68104   3.582  20.222  24.303  0.1404  0.1228 -0.1515
25114W        W68105   1.277  28.968   3.465  0.1881  0.1090 -0.1348
25115W        W68106  16.969  26.681  24.208 -0.0005 -0.1500  0.3901
25116W        W68107  11.083  13.359   0.791  0.1043  0.0110 -0.0941
25117W        W68108   7.765  15.348  26.427 -0.3157  0.1670  0.3478
25118W        W68109  25.885   1.888   0.960  0.1174  0.1521  0.1789
25119W        W68110  12.640  11.099   4.362 -0.0750 -0.2661 -0.1810
25120W        W68111  24.110  30.524   6.634 -0.3974  0.1238 -0.1880
25121W        W68112  31.683  30.001  26.556  0.0937 -0.0723  0.1833
25122W        W68113  17.101  18.571   5.268 -0.3264  0.1783  0.2935
25123W        W68114  18.212  23.699   8.212 -0.1853 -0.0529  0.0963
25124W        W68115  12.812  34.577  28.667 -0.0652 -0.2112 -0.2583
25125W        W68116  30.546  22.966   8.527 -0.2492 -0.0878 -0.0229
25126W        W68117  32.665   1.868  25.184 -0.3381  0.0319 -0.2777
25127W        W68118  25.817  13.747   3.900  0.1289 -0.0428  0.2317
25128W        W68119  14.204  31.809  18.032  0.4399  0.1349  0.0892
25129W        W68120  15.303   9.443   7.986  0.0948 -0.0873 -0.0042
25130W        W68121  22.705  16.512  28.484 -0.3507  0.2117  0.0115
25131W        W68122  31.812  18.144   0.351  0.1377  0.0471  0.3446
25132W        W68123  24.982  11.541  28.547 -0.1291 -0.0320 -0.0268
25133W        W68124   5.095  10.964   4.273 -0.1924  0.0710 -0.1325
25134W        W68125  26.287  15.310   7.941  0.2214  0.0045  0.1596
25135W        W68126  30.352  15.162  27.047 -0.1073  0.1157 -0.0387
25136W        W68127  28.937   3.179   5.213 -0.0393 -0.3117  0.0143
25137W        W68128  24.063  11.190   9.889 -0.0187  0.0824  0.1582
25138W        W68129  14.405   9.376   9.697  0.1038  0.0206  0.1014
25139W        W68130  31.017  29.550   2.562 -0.0443 -0.2066 -0.0628
25140W        W68131  13.333  18.296   8.424  0.1586  0.1230 -0.0997
25141W        W68132  11.014  28.713   3.430 -0.1244 -0.1780 -0.0107
25142W        W68133  26.640  25.952   6.911 -0.1887 -0.2526 -0.3768
25143W        W68134  30.096   5.706   8.701 -0.1090  0.4528 -0.5474
25144W        W68135  18.278  19.984  15.120 -0.0922  0.1353  0.3176
25145W        W68136  33.848  32.070   7.677  0.0405 -0.0026  0.0921
25146W        W68137  26.965  18.518   2.400  0.0893 -0.1289 -0.0270
25147W        W68138  22.597  19.249   6.594  0.1173  0.3309  0.3070
25148W        W68139  31.493  23.296   6.850 -0.4260 -0.0378 -0.1813
25149W        W68140  11.429   5.599   4.726  0.2526 -0.0959  0.1705
25150W        W68141  23.047  14.350   1.398 -0.0429 -0.0066  0.0896
25151W        W68142  12.874  28.511  25.616 -0.1676 -0.2449 -0.1652
25152W        W68143  11.141  23.821   6.444  0.0805 -0.1066  0.1682
25153W        W68144   6.205  26.817  27.061  0.1784 -0.1670 -0.1243
25154W        W68145   1.625  30.378   8.914 -0.0479  0.1813 -0.1740
25155W        W68146  30.789   8.076   5.964  0.0936 -0.5221  0.1496
25156W        W68147  17.692  13.211   7.260  0.0397 -0.1339 -0.3803
25157W        W68148  23.730  27.741   3.796 -0.1383 -0.5043 -0.2116
25158W        W68149  20.681  18.570  21.746 -0.3672 -0.1795 -0.3828
25159W        W68150  23.873  25.571   8.923 -0.4779  0.2881 -0.1808
25160W        W68151  19.722  23.066   0.915  0.1349  0.1881  0.1498
25161W        W68152   5.657  13.396   0.659 -0.0776 -0.0070 -0.4608
25162W        W68153  28.715   9.062   7.399 -0.2827 -0.3623 -0.4054
25163W        W68154   7.299  21.569   8.041 -0.0608  0.2688 -0.1668
25164W        W68155  24.359  21.418   6.199 -0.2405  0.2295  0.1378
25165W        W68156  24.303  20.205   4.367 -0.0453  0.1576  0.3830
25166W        W68157  16.960  21.125  21.410  0.0903 -0.0730 -0.7576
25167W        W68158  34.645  19.348   3.078  0.2412  0.0452  0.2293
25168W        W68159  10.019  22.563   9.855  0.0168  0.1439  0.0781
25169W        W68160  33.485   9.102  25.104  0.1053  0.0790 -0.1114
25170W        W68161  15.774  21.487   6.651 -0.1216  0.2766  0.1266
25171W        W68162   0.019  22.047  28.806 -0.2150  0.3973 -0.1956
25172W        W68163  30.602  17.400   7.110 -0.1037  0.1282 -0.0213
25173W        W68164   2.160  27.716  26.136 -0.2880  0.3217 -0.1795
25174W        W68165  17.959  16.808  28.128  0.2283 -0.0539  0.2707
25175W        W68166   6.076  12.916   9.700 -0.1634 -0.2107  0.0104
25176W        W68167  20.914  12.393   4.356 -0.0087 -0.0715  0.0028
25177W        W68168   9.370  23.150  23.603 -0.1015  0.0006  0.4732
25178W        W68169   7.939  15.750   3.716 -0.1457 -0.0465 -0.0529
25179W        W68170   3.149  25.699  27.879  0.0025 -0.0148  0.1580
25180W        W68171  14.059  34.684   4.012 -0.2952 -0.0553  0.1603
25181W        W68172  32.677  23.154   1.707 -0.0897  0.1427 -0.0348
25182W        W68173  23.459  20.093  27.721  0.1914  0.0669 -0.0077
25183W        W68174  13.821  19.935  26.373  0.0437  0.1653 -0.4322
25184W        W68175   9.261  31.285  25.437  0.1597  0.1884 -0.6881
25185W        W68176  25.808  12.587  28.317  0.3338  0.0283 -0.1289
25186W        W68177  21.584   5.266   0.850 -0.2041  0.3556  0.1689
25187W        W68178  30.627  17.855  10.080 -0.0262  0.3468  0.3319
25188W        W68179  19.321  15.812  28.722  0.1109 -0.3202  0.1708
25189W        W68180   8.032  24.603   2.316 -0.1707  0.1777  0.3375
25190W        W68181  32.301  29.138   4.347 -0.0161  0.1378  0.1243
25191W        W68182  27.601  27.069  24.661 -0.1438  0.3216  0.0756
25192W        W68183   4.006  34.186  29.090  0.0184 -0.0946 -0.0079
25193W        W68184  24.489  16.417   7.077 -0.4242 -0.1807  0.1071
25194W        W68185   1.157   5.418   6.972  0.0191 -0.4356 -0.0409
25195W        W68186  31.560  17.787   3.363  0.2999 -0.0010  0.1523
25196W        W68187  12.663  21.956   2.476  0.0959  0.0576  0.3168
25197W        W68188  18.928  32.196   9.257  0.0720  0.0001 -0.2101
25198W        W68189  29.658  18.190  11.274  0.0105 -0.0256 -0.0581
25199W        W68190  16.921  20.804   1.467  0.0609  0.1358  0.3277
25200W        W68191  18.187  18.628  23.400 -0.0995 -0.1277 -0.3010
25201W        W68192   7.281  23.332   3.843 -0.0131  0.0497 -0.0789
25202W        W68193  18.055  15.776   4.746 -0.0653  0.0312 -0.0596
25203W        W68194  27.833  20.675   6.677  0.0526 -0.1643  0.3331
25204W        W68195  16.498   1.743   8.825 -0.0583 -0.0670 -0.0847
25205W        W68196  15.965  22.200   7.242  0.1769 -0.2422 -0.1687
25206W        W68197  28.684  26.103   1.635 -0.2281 -0.0924  0.2973
25207W        W68198  26.439  15.398  26.385  0.2769  0.1337  0.2150
25208W        W68199  34.148  20.875  28.340  0.4748 -0.1214  0.4040
25209W        W68200  24.942  16.746   6.750  0.4487  0.1140 -0.0707
25210W        W68201  15.324  12.871  24.666  0.1509 -0.0649 -0.1057
25211W        W68202   8.894  10.218  24.320 -0.1655 -0.3409  0.3042
25212W        W68203  32.617   1.609   2.636  0.2668 -0.0027 -0.1194
25213W        W68204  15.126  13.675  24.401 -0.2564  0.1541  0.1226
25214W        W68205  13.285   0.267  25.836  0.3711  0.0945 -0.1580
25215W        W68206  19.202  11.827   9.611 -0.0549 -0.0460 -0.1457
25216W        W68207  19.952   0.361   6.705 -0.1636  0.0951 -0.1146
25217W        W68208  29.575  25.043   7.464  0.2804 -0.1382 -0.1591
25218W        W68209   0.334  26.048  21.798 -0.1387  0.0089 -0.1107
25219W        W68210   1.260  15.867  27.019  0.1965 -0.1432  0.2648
25220W        W68211  28.869  20.880   8.407 -0.3273 -0.1642  0.1387
25221W        W68212  32.290  33.296   0.765  0.0051 -0.1736  0.0479
25222W        W68213  24.802  33.819  28.424  0.1522 -0.1540 -0.3625
25223W        W68214  32.963   0.522  24.301  0.0073  0.0999 -0.2225
25224W        W68215  30.178  17.530   4.535  0.1255  0.1321 -0.0880
25225W        W68216  31.940  30.371   8.903  0.1753  0.1641 -0.3177
25226W        W68217  28.505  15.631  10.835  0.3021 -0.2039  0.1504
25227W        W68218  19.383  19.362   1.025  0.2775  0.1367 -0.1580
25228W        W68219  27.784  10.732  22.399  0.0544  0.0457 -0.3925
25229W        W68220  25.205  21.880  25.326  0.0230  0.2196 -0.2424
25230W        W68221  20.921  23.538  29.177  0.0925 -0.2329 -0.0208
25231W        W68222  28.806  16.768  10.670 -0.0409  0.3498  0.0140
25232W        W68223  25.496  26.949   4.319  0.1078  0.1484 -0.3597
25233W        W68224  25.651   8.402   2.504 -0.2008  0.2004  0.0847
25234W        W68225  28.555  13.958   3.891 -0.1052  0.0748  0.2033
25235W        W68226  26.561   4.820  18.374 -0.2046  0.0321 -0.2434
25236W        W68227  20.829  18.598   6.719 -0.1680 -0.0966  0.1381
25237W        W68228  23.272   5.970  27.561  0.0501  0.0629  0.2285
25238W        W68229  27.673  23.867   7.949  0.1776 -0.2885  0.0176
25239W        W68230  18.327  27.553   5.729 -0.0984  0.0571  0.1709
25240W        W68231  29.572  26.573  26.422 -0.3061 -0.1251  0.3856
25241W        W68232  10.882  22.674   5.164 -0.1515  0.0155 -0.2416
25242W        W68233  23.061   0.592   5.158 -0.1690 -0.1768  0.0811
25243W        W68234   1.380  19.411  26.519 -0.2110  0.2469 -0.2121
25244W        W68235  28.907  11.172  28.527  0.0610  0.3357  0.0245
25245W        W68236  18.918  16.724   1.324  0.0292 -0.2794  0.4326
25246W        W68237  24.912   3.187   8.924 -0.1367 -0.1824  0.1555
25247W        W68238  12.795  19.902   0.333  0.2372 -0.0515  0.1191
25248W        W68239  25.076  22.957  27.316  0.0267 -0.0807  0.4680
25249W        W68240  30.218  19.574   9.080  0.3739 -0.3019 -0.0121
25250W        W68241  15.676  15.114   6.990  0.2094 -0.0163 -0.1408
25251W        W68242  32.857  20.549   5.620  0.0209 -0.2466  0.0382
25252W        W68243  27.462  18.233   4.900  0.0593 -0.0147  0.0487
25253W        W68244  33.407  31.179  28.590 -0.1865 -0.1316 -0.0545
25254W        W68245  16.100  13.506   7.753  0.2242  0.0343 -0.3288
25255W        W68246  27.854  19.259   0.683  0.0439  0.0715  0.0355
25256W        W68247  30.415  18.863   4.642 -0.2560  0.3570 -0.1081
25257W        W68248   6.797  23.946   5.740  0.2849 -0.0999  0.0717
25258W        W68249   6.843  11.957  18.168  0.1427 -0.1086  0.3976
25259W        W68250  17.919  19.202   6.921 -0.0389  0.1068 -0.0783
25260W        W68251   6.545  11.309   9.051 -0.0211  0.2673  0.0200
25261W        W68252  28.619  32.677   4.661 -0.1656 -0.1456  0.0021
25262W        W68253  27.359  25.436   7.390  0.0047 -0.1641 -0.2674
25263W        W68254  26.717  18.855   3.117  0.2641  0.1553  0.0941
25264W        W68255  33.427  31.421  18.519 -0.1156  0.0704  0.2812
25265W        W68256  32.687  20.926   9.020 -0.0017 -0.0920 -0.1026
25266W        W68257  24.740  17.574   5.609 -0.0976 -0.0500 -0.0386
25267W        W68258   9.983  13.942   1.409  0.2197 -0.1641  0.0403
25268W        W68259  29.192  22.509   8.426  0.1957 -0.1159 -0.1713
25269W        W68260  32.368   8.293  22.056 -0.2664  0.1021 -0.0048
25270W        W68261   2.787  11.457   5.138  0.1523 -0.0823 -0.0012
25271W        W68262  18.058  32.771  27.146  0.0838  0.1868 -0.0690
25272W        W68263   2.193   5.744  15.735 -0.1299  0.2045  0.2066
25273W        W68264  13.268   7.751   3.700 -0.3647  0.0016  0.1988
25274W        W68265  21.241   2.105   4.005  0.1631 -0.1020  0.3444
25275W        W68266  10.201  19.577   2.371 -0.0014 -0.2841 -0.2471
25276W        W68267   9.438  11.538   5.567  0.1286 -0.2136 -0.1323
25277W        W68268  30.058  29.697  28.730  0.0394 -0.2591 -0.1635
25278W        W68269  30.332  34.546  25.480  0.2183 -0.1138  0.2461
25279W        W68270   4.861  16.949   2.905  0.0282 -0.0709  0.0765
25280W        W68271  34.607  24.834   8.638  0.0339 -0.0078 -0.0464
25281W        W68272  30.306  11.229   4.788  0.1078 -0.1514  0.4327
25282W        W68273  26.967  24.636   8.458 -0.0721 -0.4377 -0.2926
25283W        W68274  13.553  17.318   2.331 -0.1071  0.0064 -0.1235
25284W        W68275  23.815  17.044   4.526 -0.1232 -0.2538  0.1143
25285W        W68276  16.238  18.306   2.859  0.1054  0.1635  0.2811
25286W        W68277  27.203  16.568   0.581 -0.0608 -0.0503  0.2177
25287W        W68278  23.727  13.236  26.736 -0.0265 -0.1471  0.2102
25288W        W68279  14.741   6.859   7.837 -0.1758  0.3031 -0.0833
25289W        W68280   6.228  11.490   7.893 -0.2178  0.1264  0.1131
25290W        W68281  16.368  29.510  28.779 -0.1893 -0.0049  0.0413
25291W        W68282  25.088  18.135   8.934 -0.1235  0.1455  0.2050
25292W        W68283  24.406   1.290   1.729  0.2600 -0.0828 -0.2503
25293W        W68284  18.671  22.059   5.041 -0.1935 -0.0373  0.1357
25294W        W68285  31.684  25.454   8.825  0.1530  0.0275 -0.1323
25295W        W68286  13.659  10.754   3.037  0.1940  0.4507  0.2890
25296W        W68287  12.101   5.350  27.222  0.0137 -0.0887  0.0410
25297W        W68288  21.491  18.739   8.804 -0.1480  0.2803  0.2245
25298W        W68289  25.882   8.368  28.610  0.0467  0.2859 -0.0053
25299W        W68290  22.131  29.117   4.481 -0.0176  0.0947 -0.0340
25300W        W68291  18.100  13.927   2.045 -0.0844 -0.2059 -0.3421
25301W        W68292  20.088   9.423   7.742 -0.2118 -0.1063  0.2027
25302W        W68293  10.258  32.687   7.200  0.1015 -0.0695  0.2288
25303W        W68294   8.502  12.952   9.054 -0.3567  0.1101  0.1414
25304W        W68295  19.062   0.074   7.957 -0.1491 -0.0413  0.1019
25305W        W68296  14.728   4.296   5.198 -0.3065 -0.2029  0.2277
25306W        W68297  32.469  19.431   9.591 -0.0608 -0.1153  0.4168
25307W        W68298  32.075  22.496   9.122  0.1690 -0.0677 -0.0224
25308W        W68299  20.522   2.422   4.678  0.0379 -0.0944 -0.3113
25309W        W68300  16.296  23.417   7.927  0.1538  0.2606 -0.4621
25310W        W68301  32.219   9.748  10.061 -0.4869  0.0443  0.4075
25311W        W68302   4.378  15.433  21.842  0.6055 -0.0406  0.1473
25312W        W68303  20.050  16.921   6.487  0.1014  0.0894 -0.1977
25313W        W68304  16.097  13.438   1.513 -0.1924  0.0265 -0.3093
25314W        W68305  14.679  18.655   1.539 -0.1819  0.3484  0.0303
25315W        W68306  10.179  21.556   1.466  0.2719  0.4369  0.1131
25316W        W68307  15.127   9.196   4.798 -0.3792  0.0977 -0.1535
25317W        W68308  29.967  29.355   3.779  0.1382  0.0521  0.0535
25318W        W68309  29.615  22.974   6.270  0.3345 -0.1415  0.1113
25319W        W68310  22.890   8.415   0.947  0.2689  0.0478  0.1554
25320W        W68311  16.729  17.480  22.328  0.2395  0.3339 -0.2233
25321W        W68312   5.031  23.796   5.698  0.0121 -0.0576 -0.0768
25322W        W68313  18.787  13.513  29.204 -0.0188 -0.2381 -0.2903
25323W        W68314   5.887  24.259   7.493 -0.2635 -0.1040  0.0669
25324W        W68315  26.289   7.026   7.758  0.2374  0.1702 -0.0669
25325W        W68316  24.937   3.861   6.631  0.2350  0.1004 -0.1929
25326W        W68317   2.939   6.621   3.424  0.2059 -0.1245 -0.2386
25327W        W68318  18.225  27.598   0.908  0.2314  0.0382  0.0501
25328W        W68319  22.326  18.601   1.601 -0.0712 -0.0436 -0.1660
25329W        W68320  24.081  26.826   6.314 -0.1394 -0.0563 -0.0939
25330W        W68321  33.539  25.237   6.767  0.0979 -0.1177  0.0099
25331W        W68322   1.045  34.094   1.276 -0.1059 -0.0451  0.1269
25332W        W68323  32.832   9.184   7.017 -0.0369  0.0070  0.4084
25333W        W68324  34.409  24.488   8.950  0.0969 -0.3243 -0.0620
25334W        W68325  11.346  11.938   9.521  0.0309  0.3572  0.1301
25335W        W68326  14.024  16.201  26.330  0.1413  0.0449  0.1610
25336W        W68327  30.881  13.981   5.415 -0.1971  0.3568 -0.1676
25337W        W68328   2.424   4.570  27.304 -0.2177  0.1198 -0.1060
25338W        W68329  15.388   5.642   8.910  0.0808 -0.0732 -0.1047
25339W        W68330   0.200  18.258   9.046 -0.0182  0.0556 -0.3663
25340W        W68331  15.614  14.638  28.504  0.1041  0.2335  0.3537
25341W        W68332  31.969   4.805   1.331 -0.3532  0.1528 -0.1330
25342W        W68333  30.677  18.161   3.463 -0.0805 -0.2903 -0.2152
25343W        W68334  24.147  19.636   6.384  0.1945  0.0572  0.0543
25344W        W68335  22.847  23.165  27.200  0.0608  0.0007 -0.1889
25345W        W68336  21.441  32.744   7.524  0.1685 -0.0621  0.1691
25346W        W68337  32.002  22.574  23.094 -0.0391 -0.4121 -0.3079
25347W        W68338  15.455  32.099  14.431  0.0654 -0.3749  0.0135
25348W        W68339  20.618  32.984  24.784  0.3376 -0.2239 -0.0284
25349W        W68340  24.726  31.948   0.999 -0.1129  0.2241  0.1016
25350W        W68341  11.773  24.188   5.037  0.3294  0.0383  0.2782
25351W        W68342  34.197   9.634   6.953  0.0136 -0.1745 -0.0162
25352W        W68343  16.077   0.674  24.884  0.0090  0.1256 -0.1575
25353W        W68344  23.432  16.881  26.055 -0.1555 -0.0209 -0.3139
25354W        W68345  27.648  14.360   3.627  0.1741 -0.1662  0.1555
25355W        W68346  14.281  25.824  25.846  0.0480 -0.0311 -0.1116
25356W        W68347  34.019  19.601   2.405 -0.0291 -0.3522  0.2558
25357W        W68348  22.398  12.304   3.432  0.2214  0.0813 -0.3028
25358W        W68349  33.744  22.539   8.726 -0.0470 -0.1100 -0.2889
25359W        W68350  14.371  26.628  25.008  0.0461 -0.1404 -0.0543
25360W        W68351  12.745   7.978  26.280 -0.1291 -0.1291  0.0725
25361W        W68352  12.775  14.139   3.672  0.0278 -0.0669  0.0057
25362W        W68353  16.914  11.789  24.690  0.1808 -0.2056  0.2165
25363W        W68354  23.839  24.254  25.532  0.3988 -0.0166  0.0606
25364W        W68355   8.798  10.394  11.659 -0.3044  0.1083 -0.0889
25365W        W68356  20.149  12.260  16.943  0.1349 -0.1490 -0.1497
25366W        W68357  23.959  18.244   4.554 -0.0771 -0.2271 -0.4220
25367W        W68358   5.531   7.178   0.787  0.0076  0.0528  0.2228
25368W        W68359  22.033  14.796   4.844  0.1214 -0.1005 -0.2781
25369W        W68360  33.820  17.672  25.592 -0.3247 -0.1753  0.0031
25370W        W68361   8.003  17.856   7.818 -0.1851 -0.0890 -0.0572
25371W        W68362  12.320   0.252   3.018 -0.4063  0.0341  0.0149
25372W        W68363  26.046   8.217   8.700 -0.0789 -0.1635 -0.0540
25373W        W68364  17.239  18.152  24.555  0.0060  0.0969  0.2972
25374W        W68365  18.816  19.570  27.482  0.1731  0.2218 -0.0371
25375W        W68366  25.411   9.685   4.829 -0.2302 -0.1368  0.2083
25376W        W68367  27.862  17.801   0.775  0.1670  0.0207  0.0250
25377W        W68368  32.028  31.220  26.187 -0.0048  0.0158 -0.0804
25378W        W68369  24.706  15.188   2.858 -0.0216  0.0198  0.1915
25379W        W68370   2.189   2.874   1.353  0.0886 -0.0406 -0.0785
25380W        W68371  33.577  15.057   7.351 -0.0203 -0.2366 -0.3527
25381W        W68372  11.117  12.066   1.274  0.1893  0.2405 -0.0128
25382W        W68373  18.141  24.738   8.664 -0.1307  0.3710  0.1727
25383W        W68374  19.710   7.895   7.558 -0.1612  0.1490 -0.2299
25384W        W68375   9.714  27.514   4.115  0.0843  0.4754 -0.2322
25385W        W68376  11.061  23.554  23.960  0.0495 -0.1441  0.1898
25386W        W68377  21.331  19.482  26.963 -0.0663 -0.0531  0.1707
25387W        W68378  14.042  27.608   8.536  0.1701  0.4353  0.4780
25388W        W68379  28.042  15.417  11.054  0.2825  0.2780 -0.1526
25389W        W68380  20.777   2.967   5.544 -0.1437 -0.0499 -0.0216
25390W        W68381  26.281  14.782   0.763  0.2199  0.0860 -0.2085
25391W        W68382   5.760  15.621  11.258 -0.0944  0.1090 -0.1202
25392W        W68383   2.036  30.030   0.335  0.0892  0.1363 -0.0678
25393W        W68384  20.241  20.197  27.396 -0.2455  0.0261  0.6031
25394W        W68385  34.085  23.839   6.719  0.1298  0.2602  0.2010
25395W        W68386   8.876  22.848   5.242  0.0156 -0.0369  0.0776
25396W        W68387  25.497  18.536  19.975  0.1616  0.0941  0.1214
25397W        W68388   3.594  24.137  10.427  0.2286 -0.1068  0.1257
25398W        W68389  16.913  19.805  25.452 -0.1062  0.0810  0.0994
25399W        W68390  24.820  18.852  22.520  0.0781 -0.1169 -0.2668
25400W        W68391  19.137  26.250   4.468  0.0015 -0.2008  0.3537
25401W        W68392   0.156  30.833  23.850 -0.4886 -0.1557 -0.0735
25402W        W68393  27.125  23.282  21.762 -0.0596 -0.0257  0.1206
25403W        W68394  32.943  13.715   7.518  0.2303 -0.0595 -0.0813
25404W        W68395  12.615  29.461  25.500 -0.2304  0.0863  0.0796
25405W        W68396   7.100   9.642   7.670  0.1411  0.3000 -0.0554
25406W        W68397   3.612  16.607   6.798 -0.0511  0.3249  0.0307
25407W        W68398   6.325  26.325  25.466  0.1260  0.1437 -0.1560
25408W        W68399  10.365  29.224   7.227 -0.3077 -0.1499  0.0830
25409W        W68400   8.270  27.915  17.154  0.1240  0.0184 -0.1428
25410W        W68401  14.163  14.612   3.293 -0.1131  0.0506  0.1291
25411W        W68402   3.116   3.355  19.786 -0.0690 -0.4089  0.2776
25412W        W68403  21.045  16.224  27.921  0.0029 -0.0824  0.6610
25413W        W68404  28.565  17.757  27.707 -0.1203 -0.2586  0.2058
25414W        W68405  25.022  17.741  13.742  0.0771 -0.0311  0.0347
25415W        W68406  28.538  23.095   5.717 -0.2173  0.0494  0.3186
25416W        W68407  14.153  29.972  21.100 -0.0006  0.2892 -0.0932
25417W        W68408  10.061  14.399  28.582 -0.1149  0.2070  0.0152
25418W        W68409   7.125  23.730  22.286 -0.1872 -0.0128 -0.0386
25419W        W68410  16.035  25.249  28.523  0.1836 -0.0237  0.0651
25420W        W68411  26.909  21.797   5.841 -0.0220 -0.3056  0.0361
25421W        W68412  26.327  12.002  29.086 -0.1732 -0.0676  0.2563
25422W        W68413  28.884  19.967   8.057  0.1767 -0.0563 -0.2004
25423W        W68414   7.794  24.561   1.528 -0.0176  0.1311  0.0979
25424W        W68415  18.292  28.766   6.642  0.0612 -0.2114  0.2111
25425W        W68416  15.344  18.442   8.244  0.0346 -0.3740  0.0954
25426W        W68417  21.303  21.313   4.922  0.0391 -0.2980 -0.0180
25427W        W68418  33.587  31.907   6.279 -0.2494  0.3907  0.1887
25428W        W68419  25.976  19.077   1.400  0.0499 -0.0333  0.0705
25429W        W68420  12.370  15.686   7.139 -0.1270 -0.2444 -0.0282
25430W        W68421  32.543  25.787  27.235 -0.0262  0.1789  0.0920
25431W        W68422  32.896  26.365   9.357  0.1280  0.2249  0.2324
25432W        W68423  21.493   3.156   7.889 -0.1357  0.0380  0.0283
25433W        W68424  30.218  13.304   1.178  0.0546  0.0465  0.2458
25434W        W68425  10.350  24.671   1.941 -0.3011  0.0625 -0.0430
25435W        W68426  26.059  15.971   9.895 -0.2507  0.0020 -0.0094
25436W        W68427   2.635  32.323   6.329 -0.0152 -0.0579  0.0261
25437W        W68428   6.593   9.796  28.604  0.1941 -0.1716  0.0967
25438W        W68429  21.825  18.848   2.497 -0.1683 -0.0958 -0.3333
25439W        W68430  13.288   6.579   5.961  0.1760  0.3208  0.2848
25440W        W68431   9.242  33.403   1.587  0.0581  0.1206  0.1345
25441W        W68432  18.673  27.403   2.409  0.0967  0.3299  0.0985
25442W        W68433  15.508   4.811  23.203  0.0807  0.1330 -0.1181
25443W        W68434  21.611  27.512  27.628 -0.1834 -0.0808  0.0325
25444W        W68435  20.652  17.190  25.066 -0.3757 -0.0041  0.1574
25445W        W68436  30.848  30.843  16.476  0.0361 -0.4247 -0.0099
25446W        W68437  15.045  20.227   9.428  0.0482 -0.4405 -0.4148
25447W        W68438   6.406   6.488   9.952 -0.0528  0.0208  0.0097
25448W        W68439   4.941  14.445   9.627  0.1389  0.0173  0.1541
25449W        W68440  14.528  13.581   1.985  0.0871  0.0360  0.0597
25450W        W68441  27.212  22.216  25.695 -0.0619 -0.3933 -0.3319
25451W        W68442  27.242   0.598  23.229  0.0369  0.1642 -0.0394
25452W        W68443  33.023  18.893   8.767 -0.2460  0.1501  0.0653
25453W        W68444   2.480  13.978   7.281 -0.3013 -0.0984 -0.4211
25454W        W68445  16.218  19.628   2.788 -0.2155  0.2902  0.1648
25455W        W68446  27.799  24.118   5.930 -0.2636  0.0529  0.1340
25456W        W68447  14.699  27.837   7.942  0.0744  0.1899 -0.0071
25457W        W68448  24.415  13.542  27.674  0.0217 -0.0280  0.0500
25458W        W68449  24.959  34.795  28.045  0.0602  0.1756 -0.0219
25459W        W68450  24.858  28.408   0.491  0.1569  0.1286 -0.2461
25460W        W68451  31.333  22.534   5.448 -0.0292  0.0233 -0.0131
25461W        W68452  16.962  21.670   8.923 -0.1034  0.1398  0.0258
25462W        W68453  15.222   9.665  26.684 -0.0444 -0.2109  0.1145
25463W        W68454   8.396  21.041   0.274  0.1026  0.1083  0.3620
25464W        W68455  19.910  18.622   0.685 -0.2707  0.0156 -0.0490
25465W        W68456  20.531  23.896  21.064 -0.2046  0.4622  0.1547
25466W        W68457  33.723  24.163   7.655 -0.0056 -0.4262 -0.0199
25467W        W68458  14.319   5.291  27.747  0.0086  0.1934 -0.1111
25468W        W68459  19.261   0.705   1.345  0.0870 -0.1516 -0.2612
25469W        W68460   5.180   0.034   4.119  0.3130 -0.1416 -0.3279
25470W        W68461  24.810  18.888  27.481 -0.0505  0.2505  0.0380
25471W        W68462  24.929  25.097  29.107 -0.0110  0.1632 -0.2552
25472W        W68463  25.211  12.357  24.730  0.1862  0.2817  0.0657
25473W        W68464  10.169   5.723   2.055  0.3018  0.1839  0.1292
25474W        W68465  26.818   6.829  27.106 -0.0330 -0.0250  0.1317
25475W        W68466   5.721  18.540  26.619 -0.2184 -0.2229 -0.0025
25476W        W68467  13.398  16.373   8.458 -0.3033  0.1971  0.2019
25477W        W68468  13.241  24.916   4.698  0.1298  0.0743 -0.0600
25478W        W68469   5.378  17.529  17.010  0.1979 -0.0690 -0.0226
25479W        W68470  30.863  24.020   5.555  0.0978  0.1286 -0.1618
25480W        W68471  19.632  17.805   1.343  0.0531  0.2596  0.4127
25481W        W68472  18.583  18.623  26.864 -0.0620  0.0958  0.3095
25482W        W68473  17.216  11.503   7.712 -0.0633  0.2118 -0.3341
25483W        W68474  25.670  14.243  25.348 -0.4180  0.1168 -0.1487
25484W        W68475  25.105  17.044  25.921  0.3658 -0.1752  0.1280
25485W        W68476  33.148  21.743   8.583  0.2938  0.0627  0.0780
25486W        W68477  22.776  26.127   0.004 -0.0952  0.1810 -0.0184
25487W        W68478  26.218  21.712  16.356  0.1162 -0.1226  0.0293
25488W        W68479  24.572   9.168  27.514 -0.4468  0.1007  0.0005
25489W        W68480  24.572  16.005   2.515  0.2209 -0.3487  0.2435
25490W        W68481  12.839  24.328   4.161  0.1157  0.0860  0.0102
25491W        W68482  25.276  20.809   5.268 -0.0528  0.0331 -0.0993
25492W        W68483   4.050   7.322  27.046  0.0518  0.2071  0.0922
25493W        W68484   4.675  29.830  18.744  0.0438  0.1465 -0.0618
25494W        W68485  17.439  27.889   9.615  0.0417 -0.0301  0.2721
25495W        W68486  15.052   6.129   6.730  0.0574 -0.3891 -0.0162
25496W        W68487   9.263  15.744   9.416  0.0110  0.1465  0.0842
25497W        W68488  29.127  13.269  29.220  0.1530 -0.0219 -0.1255
25498W        W68489  11.047   5.771  25.500  0.1961  0.0969 -0.0177
25499W        W68490  16.984  25.499   6.541 -0.0900  0.1394  0.1012
25500W        W68491  10.215  23.344   1.291 -0.1351  0.0891  0.0220
25501W        W68492  34.555  16.187  25.477 -0.0537 -0.0873  0.2266
25502W        W68493  13.099  18.560   1.730  0.2478 -0.0242  0.1983
25503W        W68494  26.521  17.576   5.588  0.1348  0.0129 -0.0016
25504W        W68495  17.231   8.194   0.711  0.2828  0.1507 -0.0713
25505W        W68496  31.315  14.564  11.223 -0.1290 -0.0734  0.0205
25506W        W68497  22.042  18.592   8.440  0.2225 -0.1375  0.1136
25507W        W68498  22.006  15.788   8.455  0.0373  0.3191  0.2105
25508W        W68499  34.351  21.886  25.378  0.2954  0.3454  0.3561
25509W        W68500   6.879  15.728  27.839  0.0333  0.1840 -0.3957
25510W        W68501  21.467   9.196   9.176  0.1004 -0.0913 -0.2075
25511W        W68502   9.687   5.446   4.087  0.1333 -0.3910  0.0503
25512W        W68503  18.107  16.357   7.973  0.1669  0.0107 -0.0786
25513W        W68504  13.744  11.125   3.990 -0.1536  0.2204 -0.1626
25514W        W68505  17.085  16.021  25.270  0.0946 -0.2173  0.0206
25515W        W68506  11.607  15.299   8.005 -0.3503 -0.0219  0.0360
25516W        W68507   6.714  33.688   4.000  0.0535 -0.2354  0.1819
25517W        W68508  10.150  15.320   3.913 -0.1181  0.0887  0.2588
25518W        W68509  19.330  19.440   4.169  0.1843  0.0533 -0.3674
25519W        W68510  20.388  30.913  26.223 -0.1194  0.0295  0.1569
25520W        W68511  15.554  30.912   0.042 -0.0394  0.1269  0.0707
25521W        W68512  30.532  26.968   5.156 -0.1041  0.1587  0.2422
25522W        W68513  23.334  17.775  21.231 -0.2050 -0.3007  0.1089
25523W        W68514  25.608  30.667   7.086  0.1661  0.2665 -0.0085
25524W        W68515   1.012  12.887  28.625  0.0161 -0.2276 -0.0327
25525W        W68516  21.904  25.093   1.103  0.1797  0.1350 -0.2015
25526W        W68517  31.166  22.336   6.850 -0.0189 -0.1291 -0.2200
25527W        W68518  28.112   4.075  25.643 -0.0340 -0.0173  0.0332
25528W        W68519  24.989  21.531   7.867 -0.0817  0.0737 -0.3194
25529W        W68520  21.335  19.489  20.001  0.3765 -0.2689 -0.2616
25530W        W68521  26.076  14.067   9.873 -0.0715  0.1162 -0.2419
25531W        W68522  22.232  15.767   5.242 -0.1821 -0.2224  0.3806
25532W        W68523   2.453  29.155   4.426 -0.0235 -0.0582 -0.0384
25533W        W68524  29.440  29.662   1.785  0.1522  0.2691 -0.3083
25534W        W68525  28.186  33.992   6.430 -0.1446  0.1210  0.1555
25535W        W68526  31.800  16.932   3.960 -0.0700  0.1724  0.1376
25536W        W68527  24.015  19.300  28.087 -0.0270 -0.1224 -0.2344
25537W        W68528   1.061   6.567   9.509  0.0693 -0.2715  0.0888
25538W        W68529  13.699  27.886  26.581  0.3983  0.0463 -0.1188
25539W        W68530  17.453   9.236   1.149  0.1590 -0.3677 -0.0344
25540W        W68531  28.256  12.441   9.554 -0.1384 -0.2081  0.1834
25541W        W68532  24.131  18.720   2.164 -0.0185 -0.0693  0.2251
25542W        W68533  31.768   4.976   5.451  0.1148  0.1119 -0.0667
25543W        W68534  29.538  10.034   8.791  0.2466 -0.2673  0.2724
25544W        W68535  29.622  19.907   0.494  0.2650 -0.2258  0.3433
25545W        W68536  27.558   1.171  29.008 -0.4019 -0.3592 -0.2054
25546W        W68537  28.765  22.837   6.092 -0.0333  0.1639 -0.1571
25547W        W68538  31.297  14.829   5.123 -0.1031 -0.1281 -0.1411
25548W        W68539  25.289  11.496   8.523  0.1662 -0.1011 -0.1523
25549W        W68540  14.791  10.940   9.532  0.0886 -0.2299  0.1005
25550W        W68541  23.385  21.421  27.879 -0.3290 -0.1304  0.5298
25551W        W68542  13.596  27.722  27.335 -0.2668  0.1846 -0.2293
25552W        W68543  10.135  24.822  27.716 -0.0566 -0.0412  0.3911
25553W        W68544  15.371   9.996   8.550 -0.1146 -0.1641  0.0767
25554W        W68545   5.253   4.972   1.725 -0.3061 -0.2028  0.2370
25555W        W68546  27.921  32.965   5.038 -0.2453 -0.0032  0.1222
25556W        W68547  13.017  14.427   5.223 -0.1412 -0.1438  0.0673
25557W        W68548  25.882   8.550  26.745 -0.1782 -0.1080 -0.0624
25558W        W68549  17.100  13.492  22.440  0.0176 -0.0016 -0.0598
25559W        W68550  34.253   1.508   4.132  0.0986  0.3001 -0.0406
25560W        W68551  20.168  14.743  19.920 -0.1504 -0.0119 -0.4112
25561W        W68552  18.325  13.893  13.635  0.3351  0.1671  0.0900
25562W        W68553  15.187  33.331  24.383  0.0123  0.0746  0.2698
25563W        W68554  33.756  22.746   0.323 -0.1077  0.1839 -0.2399
25564W        W68555  23.474  22.006  25.345  0.2974  0.4076  0.1659
25565W        W68556  32.202   6.968   2.045 -0.0286 -0.1431 -0.0737
25566W        W68557  21.438   6.298   9.114 -0.2591 -0.0692 -0.1622
25567W        W68558  19.166  31.360   7.544 -0.1552 -0.0676 -0.3858
25568W        W68559  19.532   8.565   9.343  0.2876 -0.0890  0.1581
25569W        W68560   0.656  10.917   2.126  0.2580  0.3227 -0.0609
25570W        W68561   3.504  26.298  27.155  0.3019 -0.2869 -0.3221
25571W        W68562   7.528  18.026   7.268  0.0197  0.0626  0.0944
25572W        W68563  30.655  34.761   4.252 -0.1668 -0.0543  0.0183
25573W        W68564  15.497  15.579  28.858 -0.0884  0.0950  0.0403
25574W        W68565  28.234  25.594   2.197 -0.2574 -0.1898 -0.0071
25575W        W68566  19.938  21.147  19.427  0.2457  0.0092 -0.1165
25576W        W68567  18.597  27.254   0.256  0.2603 -0.1417 -0.2650
25577W        W68568  23.342  15.030   5.665  0.2917 -0.0334  0.2208
25578W        W68569  16.630   7.344   7.205 -0.0031 -0.1911 -0.1319
25579W        W68570  30.635  17.983  26.158  0.0760 -0.0670 -0.1063
25580W        W68571  16.970  28.239  24.245 -0.0159  0.2646  0.0306
25581W        W68572  28.853  20.421  22.167 -0.0219 -0.1010  0.0766
25582W        W68573  27.424  15.630   3.552 -0.1516 -0.0374  0.1810
25583W        W68574  16.492  23.946   5.537 -0.1564  0.4646 -0.4780
25584W        W68575  15.221   1.783  28.607  0.0433 -0.3363  0.2069
25585W        W68576   3.458   8.005  11.099 -0.1595 -0.3193 -0.0291
25586W        W68577  20.523   7.372   5.610 -0.1230  0.2573  0.1729
25587W        W68578  23.442  21.300  18.980  0.2243  0.0575  0.1503
25588W        W68579  25.041  14.951  24.242  0.0414 -0.1020  0.0806
25589W        W68580  29.474   5.846  25.513 -0.0098 -0.1292  0.1423
25590W        W68581  20.013  25.947   3.039 -0.2846  0.1862  0.2483
25591W        W68582  24.125  16.140   5.625 -0.1299 -0.0119 -0.0810
25592W        W68583  16.907  31.776  10.161  0.1549  0.1455  0.2931
25593W        W68584  32.656  21.514  10.465 -0.0057 -0.0183 -0.0800
25594W        W68585   7.169   1.673  18.729  0.2151  0.2398  0.0725
25595W        W68586   8.324  28.265   8.893 -0.0502 -0.0331  0.0242
25596W        W68587  16.170  22.118  14.398  0.0483  0.1758 -0.2909
25597W        W68588  12.146  27.219   6.915 -0.1621 -0.0351  0.1098
25598W        W68589  28.564  10.289   9.607 -0.1357 -0.0708  0.1920
25599W        W68590  29.626  20.711   3.710 -0.5182 -0.0468  0.2667
25600W        W68591  33.272  24.245   6.848 -0.1336  0.1922  0.1714
25601W        W68592   9.641   0.616  14.910 -0.0679 -0.0242  0.2596
25602W        W68593   8.779  13.962  27.947 -0.3627 -0.0239 -0.0821
25603W        W68594  33.440  13.840  18.849 -0.2513  0.1819  0.3583
25604W        W68595  16.334  13.240  24.868 -0.2333 -0.2489 -0.1873
25605W        W68596  26.916  27.992  28.631  0.0630 -0.1809  0.0553
25606W        W68597   2.715  21.936  22.773  0.2900  0.3527 -0.0947
25607W        W68598  24.650  13.716   8.570  0.0673  0.1105 -0.0883
25608W        W68599  26.889  23.532   6.016  0.2742  0.0720  0.0370
25609W        W68600  26.929  16.407   6.806 -0.0923  0.0100  0.5606
25610W        W68601  14.668  17.898   5.965 -0.3252 -0.0664  0.0443
25611W        W68602  27.925  21.442   5.652  0.0923  0.2859 -0.1574
25612W        W68603  26.880  18.147   9.509 -0.3677  0.2050 -0.0156
25613W        W68604  34.611  12.849   6.369 -0.0089 -0.0324  0.0277
25614W        W68605  12.905  25.780   7.861 -0.1868 -0.0697  0.0945
25615W        W68606  12.815  18.324   6.556  0.1087  0.0945 -0.0696
25616W        W68607   2.660  21.708   5.028 -0.1474 -0.0380  0.1183
25617W        W68608   1.120  18.572  10.393  0.0213 -0.0390 -0.2002
25618W        W68609  30.101  19.223  28.053  0.0954 -0.0101  0.1789
25619W        W68610   8.104  33.587  24.301  0.1334  0.3785 -0.0880
25620W        W68611  25.450  23.165   3.918 -0.0914  0.0818 -0.3210
25621W        W68612  33.977  18.718  21.101 -0.0911  0.0915 -0.0792
25622W        W68613   2.693  20.533   7.025  0.1883 -0.1354  0.0849
25623W        W68614  25.229  15.250  25.238  0.0788  0.2593 -0.1587
25624W        W68615  19.193  14.767   3.686 -0.0345 -0.2025  0.1433
25625W        W68616  30.052  27.492   2.861 -0.3807  0.1229 -0.1117
25626W        W68617  18.504  26.721   0.304  0.2927 -0.0866 -0.1811
25627W        W68618  24.270  13.188   1.851 -0.0351 -0.1386 -0.1924
25628W        W68619  16.791  24.298   2.663 -0.0674  0.3685  0.0061
25629W        W68620  19.808   9.105   8.628  0.1316  0.1805 -0.0080
25630W        W68621  26.145  28.238   4.090 -0.2213  0.0499 -0.1558
25631W        W68622  28.514  22.100   4.709 -0.2405 -0.0668  0.2258
25632W        W68623  33.036  28.689   1.464  0.0441 -0.1540 -0.2578
25633W        W68624  26.594  20.487  28.730  0.1702  0.1255  0.2154
25634W        W68625  14.588  21.768   0.583 -0.0700 -0.0974  0.2393
25635W        W68626  32.820  13.707   2.404 -0.3045  0.1383  0.0380
25636W        W68627   7.638   4.808   6.822 -0.1188  0.0518  0.1700
25637W        W68628  19.443  14.882   8.305  0.1416 -0.1579  0.0070
25638W        W68629  22.262  10.167   1.856 -0.0184 -0.1697  0.0358
25639W        W68630  33.125  14.480  10.589 -0.0144 -0.1792  0.4460
25640W        W68631  26.115  23.862  18.566  0.3286  0.3586 -0.3918
25641W        W68632  21.089  16.368   8.362 -0.1013 -0.1247  0.3138
25642W        W68633  27.851   7.683   9.706  0.5101  0.2712  0.3639
25643W        W68634   6.955  20.074   8.037 -0.3288  0.0090 -0.4082
25644W        W68635  20.727  18.219   8.004 -0.3610 -0.5597 -0.3391
25645W        W68636  23.874  16.795   4.018  0.1896 -0.4298 -0.0854
25646W        W68637   1.781  10.501  10.835  0.1459 -0.0938 -0.1765
25647W        W68638   4.681  13.958  27.771 -0.2812 -0.2084  0.0292
25648W        W68639  18.762  15.314   0.827 -0.0046  0.0179 -0.2861
25649W        W68640  28.228  19.115   3.708  0.1585 -0.1821  0.0240
25650W        W68641   6.285  27.239   1.574 -0.2299 -0.0707  0.2241
25651W        W68642  15.572   7.701   5.559 -0.1602  0.0556  0.0633
25652W        W68643  23.105  26.217   1.593 -0.0295  0.1031 -0.3754
25653W        W68644  28.574  12.500  10.303  0.3016  0.0977  0.1816
25654W        W68645   6.151  17.936   6.659 -0.1560 -0.1293 -0.0709
25655W        W68646  11.723   1.795   7.397  0.0661 -0.2307  0.1751
25656W        W68647  27.582  15.470  28.491 -0.0101 -0.4773 -0.4297
25657W        W68648   4.066  24.125  10.375  0.3984  0.1915 -0.0526
25658W        W68649  29.016  11.582  28.079  0.2745  0.1391 -0.0356
25659W        W68650  26.700  17.209   1.203  0.0315 -0.2022 -0.0643
25660W        W68651  18.011  11.069   5.479 -0.1862 -0.0791 -0.1703
25661W        W68652  28.888  17.305   6.892 -0.1070 -0.0182 -0.0676
25662W        W68653  15.416  15.829   0.408 -0.1387  0.2454 -0.0654
25663W        W68654   8.146  20.922   6.614  0.0060  0.3075  0.1233
25664W        W68655  34.281   5.500  19.811  0.0971  0.0017 -0.1708
25665W        W68656  19.787  27.012  28.820  0.1903 -0.0321 -0.0979
25666W        W68657  27.076  16.142   0.409  0.4346  0.0557 -0.0006
25667W        W68658   7.718  28.369   3.837  0.1227 -0.0271  0.1985
25668W        W68659  22.170  23.512   8.277  0.0192  0.2660 -0.1911
25669W        W68660   2.785  19.410  19.771  0.1063 -0.0082  0.0763
25670W        W68661  23.706  27.136  23.333  0.0668  0.0992 -0.0652
25671W        W68662  24.410  24.996  26.932  0.2770 -0.3075  0.0101
25672W        W68663  18.692  27.539   7.396 -0.0987  0.0625  0.2293
25673W        W68664  19.555  26.435   8.057 -0.0934  0.0864  0.0924
25674W        W68665  33.165  29.617   8.044 -0.1152 -0.0363  0.2761
25675W        W68666  11.983   9.304   0.507  0.0223 -0.2657  0.3154
25676W        W68667   7.017  28.206  20.160  0.2902  0.1626 -0.1611
25677W        W68668  14.618  13.812   5.767 -0.1995 -0.1313 -0.0745
25678W        W68669  24.475  14.340   5.736 -0.0859  0.3202  0.1411
25679W        W68670   2.593  18.386  28.865  0.0070 -0.0367 -0.1514
25680W        W68671  29.041  15.513  28.108 -0.0212 -0.2231  0.1394
25681W        W68672  29.208  17.120   9.989  0.0694  0.1330  0.1043
25682W        W68673  23.518  14.741   4.436  0.3035  0.1036  0.2217
25683W        W68674  24.400   8.124   5.338 -0.0066 -0.0634  0.1404
25684W        W68675  11.659  17.319  17.089 -0.0896  0.0960 -0.0836
25685W        W68676  19.009  11.598  27.908  0.4150  0.1981  0.4439
25686W        W68677  25.891  14.712  24.212 -0.1201  0.0115  0.1505
25687W        W68678  17.967   0.720   5.346  0.0137 -0.0551 -0.0456
25688W        W68679  13.786  23.502   6.121 -0.1031  0.1135  0.2420
25689W        W68680  33.936  16.847   1.416  0.0465  0.4053  0.0319
25690W        W68681  17.147  29.714   3.110 -0.0776  0.1765  0.0923
25691W        W68682  32.884  11.705   6.315  0.0937 -0.0020  0.2272
25692W        W68683  24.394  13.643  28.597  0.1314 -0.2383 -0.0663
25693W        W68684  31.431  15.908   7.760 -0.2355  0.3076  0.0685
25694W        W68685  17.558  11.062   9.018 -0.1517 -0.2861  0.3843
25695W        W68686  13.706  18.744   9.197  0.0869  0.3396  0.1857
25696W        W68687   0.798  10.904   5.222 -0.1562  0.0664  0.1186
25697W        W68688  24.592  12.930   6.751  0.0726  0.1991 -0.1320
25698W        W68689  19.937  18.859  28.367  0.0537 -0.1190  0.0698
25699W        W68690  27.161  15.097  28.335  0.0915 -0.1030  0.0696
25700W        W68691  17.629  20.941   4.919  0.0371 -0.2152 -0.2170
25701W        W68692  13.013  12.066   5.040  0.1180 -0.0418  0.2467
25702W        W68693   6.017  25.559   3.009 -0.1830  0.1529 -0.1155
25703W        W68694  10.846  16.201  26.334  0.1085 -0.2074 -0.3355
25704W        W68695  23.896  26.967   5.018  0.2116 -0.1192 -0.0989
25705W        W68696  27.869  20.460  25.083 -0.2091  0.2630  0.1353
25706W        W68697   6.219  19.105   3.664 -0.2975 -0.4060  0.3875
25707W        W68698  32.596  10.531   9.542  0.1770  0.0214 -0.0416
25708W        W68699  26.224  25.189  23.115  0.0239 -0.0368  0.2140
25709W        W68700  21.024  22.698   0.614 -0.0805 -0.2038 -0.3310
25710W        W68701  12.118  17.278   7.901  0.0719  0.0224 -0.1106
25711W        W68702  31.096  30.206   5.471  0.0891 -0.2086 -0.0091
25712W        W68703  22.969  16.541  26.281 -0.1065  0.2683  0.0358
25713W        W68704  14.311  26.466   8.899 -0.1343 -0.0776 -0.4514
25714W        W68705   4.439  26.218  25.746  0.1159 -0.1009 -0.0490
25715W        W68706   5.939  14.170   9.887  0.0518 -0.0633  0.1963
25716W        W68707  11.122   9.801   0.849  0.1306  0.0942  0.2970
25717W        W68708   1.019  26.740   2.482  0.0315 -0.0519 -0.0863
25718W        W68709  12.083  19.277   6.287  0.1089  0.1521 -0.2386
25719W        W68710  29.029  22.703  10.214 -0.3616 -0.3937 -0.1651
25720W        W68711  12.917  27.249   1.422 -0.1106 -0.3085 -0.0776
25721W        W68712  20.217  18.371  27.590 -0.1129  0.1965 -0.0379
25722W        W68713  13.732  10.409  28.498 -0.0160  0.0936  0.1764
25723W        W68714  16.729  21.805  18.798 -0.0792  0.1497 -0.0587
25724W        W68715  22.062  22.796  27.652  0.0436  0.0167 -0.0721
25725W        W68716  34.699  27.728  10.012 -0.2567  0.0347  0.0958
25726W        W68717  19.835  14.685  21.396  0.0657  0.1618 -0.1211
25727W        W68718  18.311  19.687   2.093 -0.0126 -0.0509 -0.0486
25728W        W68719  22.823  28.324   2.433  0.0377  0.1518  0.2607
25729W        W68720  33.058  16.831  10.120 -0.0375  0.2590 -0.1194
25730W        W68721  12.219  16.055  28.286 -0.2635 -0.1079 -0.0465
25731W        W68722  27.340  16.750   6.896  0.0799  0.0899 -0.0484
25732W        W68723   6.523   6.462   9.076 -0.3094 -0.0649 -0.0569
25733W        W68724  29.403  31.266   1.424 -0.1347 -0.4119 -0.4049
25734W        W68725  33.235  21.708   3.780  0.2985 -0.1191  0.0944
25735W        W68726  31.410  25.385   6.258 -0.1230  0.2251 -0.1790
25736W        W68727  20.660  10.427  20.101 -0.1064 -0.1366 -0.1918
25737W        W68728  19.891  26.822   4.781 -0.0677  0.0032  0.0921
25738W        W68729  33.117  29.946  17.664  0.1835  0.2300 -0.0626
25739W        W68730  13.852  24.389   5.655  0.3321 -0.1476  0.0121
25740W        W68731   3.935  28.335   1.498  0.0454  0.2864  0.2744
25741W        W68732  32.070  21.261  25.923  0.3447 -0.0484  0.1089
25742W        W68733  16.921  33.806   6.254  0.0314 -0.0817 -0.2399
25743W        W68734  13.303  20.997  24.793  0.2642 -0.2185 -0.1724
25744W        W68735  25.566  30.788   5.193 -0.0931  0.0903  0.0096
25745W        W68736  24.545  16.470  22.456 -0.2363  0.2168 -0.1993
25746W        W68737  29.392  26.175   7.737 -0.1897  0.0868 -0.0183
25747W        W68738  32.737  10.621  27.926  0.1901  0.0221 -0.1263
25748W        W68739   6.223   7.559   1.333 -0.1044  0.0897 -0.3414
25749W        W68740  34.626  28.673   1.230 -0.3232  0.1858  0.3196
25750W        W68741  17.463  14.144   5.137 -0.0976  0.0173 -0.1244
25751W        W68742  31.323  15.184   4.695 -0.1857  0.2101  0.1215
25752W        W68743  21.244  14.533   8.690  0.2210  0.1653 -0.0762
25753W        W68744  33.914  28.965   4.467 -0.0242  0.2260 -0.2405
25754W        W68745   4.506  14.139   1.242 -0.0765 -0.2724 -0.1248
25755W        W68746  30.155  23.126   7.227  0.0023  0.0571  0.2375
25756W        W68747  16.950  29.916  20.901  0.0965  0.3825 -0.0212
25757W        W68748   3.032  15.014   9.303 -0.0640 -0.0521 -0.0418
25758W        W68749  30.063  16.574   7.212  0.0021  0.1644 -0.0195
25759W        W68750  14.030  17.981  25.602 -0.0191 -0.3961 -0.2562
25760W        W68751   7.115   4.068  17.435  0.0962 -0.0010 -0.1601
25761W        W68752  10.357  25.309   7.136  0.1205  0.0709 -0.1528
25762W        W68753  28.299   8.997   9.007  0.1541  0.3673  0.0316
25763W        W68754  19.442  26.581   3.936  0.1704  0.1178  0.1838
25764W        W68755   2.785  21.457  22.467  0.2143 -0.3757 -0.1893
25765W        W68756  10.677  16.902   5.914 -0.0299  0.3100 -0.1095
25766W        W68757   2.594   6.707   0.828  0.0903 -0.0484  0.1455
25767W        W68758  34.513   8.721   7.559  0.1605  0.0750 -0.0093
25768W        W68759  14.669  13.787   6.342  0.0532 -0.0003 -0.0280
25769W        W68760  28.261  12.303   7.171  0.3336 -0.1121  0.1621
25770W        W68761   7.740  25.386   2.002 -0.1927  0.2472  0.0114
25771W        W68762  20.489  20.280   1.724  0.1626  0.2273 -0.1352
25772W        W68763   9.780  16.870  25.907 -0.1036 -0.0562  0.0835
25773W        W68764  23.565  18.488  24.508  0.0346  0.0017 -0.2657
25774W        W68765  20.114  18.062  24.583  0.1411 -0.1296 -0.0089
25775W        W68766  19.289  26.788  19.174 -0.0813  0.0351  0.0945
25776W        W68767  13.681  24.361  23.620  0.2048 -0.3685 -0.0824
25777W        W68768   5.966  29.887  28.778 -0.2233 -0.0499 -0.1497
25778W        W68769  17.859  22.424   7.462 -0.2616  0.2894 -0.0184
25779W        W68770  23.319  25.261   0.611  0.0750 -0.3457 -0.1952
25780W        W68771   5.461   0.099   9.346 -0.0449  0.2403 -0.2020
25781W        W68772  23.405  27.876   1.798  0.4364 -0.2267  0.1884
25782W        W68773  33.754   9.852   8.348 -0.0722  0.1437 -0.0314
25783W        W68774  24.230  24.379  20.157  0.4828 -0.1342 -0.1605
25784W        W68775  17.703  13.688  24.734  0.3404 -0.3721 -0.2554
25785W        W68776  16.436   9.791   0.038  0.4401  0.1440 -0.1195
25786W        W68777  31.608  25.620   9.338 -0.2927  0.0688 -0.0990
25787W        W68778  21.936  18.010   9.181  0.3216 -0.1396 -0.2166
25788W        W68779  18.820  26.184  25.593 -0.1713  0.0483 -0.0772
25789W        W68780  30.236  19.680  20.823 -0.2150 -0.1906  0.0883
25790W        W68781   2.191  14.255   5.169  0.0212  0.2414 -0.1841
25791W        W68782  20.004   2.284  29.024 -0.3388 -0.2235 -0.1368
25792W        W68783  17.095  21.440   8.439  0.1637 -0.0958 -0.0969
25793W        W68784   1.666  21.557   8.134  0.0051  0.0719  0.0483
25794W        W68785  13.222  30.445   2.816 -0.0581  0.0121 -0.2471
25795W        W68786  27.052  23.825  23.033  0.3467 -0.1568 -0.0063
25796W        W68787  15.094  10.056   3.405 -0.0120  0.0114 -0.2435
25797W        W68788  26.271  24.716   3.515  0.0580 -0.0215 -0.0250
25798W        W68789  15.865  21.424  16.210  0.1274  0.2950  0.1779
25799W        W68790  23.420  25.982  23.711  0.2137 -0.2528  0.2457
25800W        W68791   5.808  20.926   5.078 -0.1234 -0.1255 -0.0749
25801W        W68792  23.782  25.627   2.846  0.1325 -0.3118 -0.2604
25802W        W68793  31.184  29.267  20.956 -0.1139 -0.3422  0.0470
25803W        W68794  15.297  31.434  15.613  0.1756  0.3491  0.1974
25804W        W68795  28.319  24.238  20.158  0.2354 -0.5194 -0.0381
25805W        W68796   7.895  30.714   9.375  0.0435  0.1950  0.1377
25806W        W68797  30.179  29.554  23.052 -0.2015 -0.0863  0.2210
25807W        W68798  23.658  28.970  21.187 -0.0908 -0.0535 -0.1969
25808W        W68799  21.079   5.442  20.940  0.2086 -0.1157  0.0779
25809W        W68800  21.871  19.594   3.095 -0.2476 -0.1552 -0.4189
25810W        W68801   2.105  26.238   5.424  0.2885  0.0477  0.1816
25811W        W68802  20.395  27.658  27.646 -0.0392  0.1263  0.2027
25812W        W68803  22.983  19.585   7.765 -0.1887 -0.3459 -0.0727
25813W        W68804  16.367  29.757  18.973 -0.2146  0.2912 -0.0599
25814W        W68805  11.456  18.098   0.993 -0.0452 -0.3526  0.0919
25815W        W68806   7.477  32.581  24.271  0.1286  0.0490  0.0916
25816W        W68807   4.237  31.665   2.376 -0.0216 -0.2263 -0.0450
25817W        W68808   1.855   6.442  19.822  0.0731  0.1216 -0.2730
25818W        W68809  21.262  14.174  15.175  0.0343  0.1889  0.1394
25819W        W68810  29.029  31.334  27.651  0.2738  0.1623  0.0492
25820W        W68811  25.514  18.753  19.508  0.2674  0.0419 -0.1573
25821W        W68812  17.767  20.558   3.241  0.1487 -0.3102  0.0467
25822W        W68813  32.671  31.053   0.771 -0.0267 -0.5164  0.1349
25823W        W68814  19.214  19.163   3.760  0.1363  0.0705  0.0929
25824W        W68815   5.053  31.945  19.044  0.0371 -0.4352 -0.0305
25825W        W68816  33.076  23.718  17.424  0.0022 -0.0462  0.2144
25826W        W68817  18.921  13.308  24.508 -0.0328  0.2773 -0.1723
25827W        W68818  23.622  33.251  21.716  0.0729  0.1335  0.1794
25828W        W68819  30.182  17.865   0.833  0.2087  0.1110  0.0181
25829W        W68820  21.993  16.949   5.340  0.0993 -0.0982  0.5020
25830W        W68821  14.417  15.471  23.556 -0.3009 -0.0347 -0.1467
25831W        W68822  22.560  30.564   5.988 -0.2046  0.2861  0.0277
25832W        W68823  17.011  20.314  27.946 -0.3493  0.0725  0.0508
25833W        W68824  10.819  32.487   9.078 -0.0689 -0.1263  0.0517
25834W        W68825  31.420  23.340   4.040  0.1316 -0.0018 -0.2732
25835W        W68826  25.401  10.643   3.443 -0.0191  0.0932 -0.0828
25836W        W68827  21.762  11.003  28.304 -0.3700  0.2164 -0.0076
25837W        W68828  31.693  27.594   5.599  0.1701  0.0314 -0.0103
25838W        W68829   1.732  28.343   9.056 -0.0795  0.0060 -0.0691
25839W        W68830  25.148  18.080  25.605 -0.0048 -0.2875 -0.1899
25840W        W68831  25.834  13.108   5.994 -0.1990 -0.0579  0.0710
25841W        W68832  28.803  22.371  27.591  0.1785  0.0033 -0.0787
25842W        W68833  10.161  34.143  24.855 -0.2759 -0.3700  0.0736
25843W        W68834  16.453   6.426   9.304  0.2587  0.0783 -0.2044
25844W        W68835  30.563   9.731  14.865 -0.0968  0.1835 -0.0214
25845W        W68836  32.249  24.269  26.154 -0.1308  0.2427 -0.1531
25846W        W68837  24.537   5.552  26.050  0.0306 -0.1274 -0.0612
25847W        W68838  24.316  12.634  20.106 -0.2186  0.1490 -0.2173
25848W        W68839  22.962  10.902   5.249 -0.4861  0.0797  0.1039
25849W        W68840  21.489  19.724   7.401  0.3660 -0.0523 -0.0516
25850W        W68841  16.476  30.694  15.780 -0.0430 -0.0451 -0.2275
25851W        W68842  25.731  17.696   4.289 -0.2160 -0.1135  0.3886
25852W        W68843  30.016  24.511  19.498  0.0849  0.1833  0.0783
25853W        W68844  34.063  11.612   4.011 -0.1781 -0.0673 -0.3541
25854W        W68845   3.649   4.264  26.983  0.1187  0.4481  0.1895
25855W        W68846  16.394  27.847   8.932  0.0975 -0.3025 -0.1451
25856W        W68847  23.208  26.428   4.476 -0.0721  0.0586  0.1472
25857W        W68848  15.145  14.851   1.026  0.0209 -0.0143  0.2481
25858W        W68849   8.583  13.510   9.083  0.3845  0.1316 -0.1109
25859W        W68850  24.984  18.710  17.018  0.0058  0.3503 -0.2309
25860W        W68851  30.419  34.461  21.501  0.1285 -0.0495  0.0731
25861W        W68852  19.633  17.922  23.635  0.0774 -0.0924 -0.0883
25862W        W68853  27.207  15.394   6.200  0.3114  0.0990  0.1299
25863W        W68854  13.321  20.840  26.204  0.0478  0.0632  0.0348
25864W        W68855  18.886  25.064   7.124  0.3625 -0.0780 -0.0021
25865W        W68856  27.096   0.437  18.187  0.1433 -0.2210  0.3286
25866W        W68857   6.446  15.226   2.568 -0.0081 -0.0213 -0.1810
25867W        W68858  23.959  22.173   5.743  0.0266  0.0794 -0.0850
25868W        W68859   3.077   7.403  11.874  0.0018  0.4237 -0.0067
25869W        W68860  16.645  19.308  14.997  0.1132  0.1449 -0.1437
25870W        W68861  26.921   6.809   6.652 -0.3383  0.1288  0.1396
25871W        W68862  19.529  13.745  19.572  0.0058  0.0727 -0.1012
25872W        W68863  27.796  34.769  27.250 -0.1485  0.2023  0.0418
25873W        W68864  22.008   6.089   8.273 -0.0544  0.0272  0.1600
25874W        W68865   1.350   6.673  11.197  0.1741  0.0210 -0.4480
25875W        W68866   7.270  19.329   2.162 -0.0188  0.2076 -0.0038
25876W        W68867   6.060  10.095  16.556 -0.0208 -0.2943 -0.0650
25877W        W68868  24.016  29.547  24.670 -0.2403 -0.0797  0.1156
25878W        W68869  19.091  18.811   4.767 -0.2696  0.0368 -0.2846
25879W        W68870  10.488  23.400   9.640  0.0516 -0.1374 -0.0246
25880W        W68871  19.476  22.370   2.024  0.1946  0.2765  0.0158
25881W        W68872  14.142   0.766  25.788 -0.2812 -0.1337  0.1381
25882W        W68873  32.486   0.894   6.674  0.0509  0.1596  0.0093
25883W        W68874  32.579  34.172  22.023  0.0132  0.4135  0.2341
25884W        W68875  27.899  25.786   0.369 -0.1156  0.0169  0.0698
25885W        W68876  17.841  19.609   1.883  0.0204 -0.0096 -0.0123
25886W        W68877   1.551  20.502  27.129 -0.1443 -0.0268 -0.0602
25887W        W68878  21.504  17.011  17.227  0.0537  0.0210  0.4609
25888W        W68879  30.301  23.631   2.525 -0.1553  0.1590  0.0455
25889W        W68880  31.821  18.252   1.216 -0.0829  0.1949  0.1796
25890W        W68881   1.029  26.542   5.731  0.2399 -0.0874 -0.4446
25891W        W68882  14.294  23.696   9.280  0.1698  0.0485  0.4516
25892W        W68883   6.259   6.074   7.525  0.0425  0.2718  0.0740
25893W        W68884  31.159  32.033  25.840 -0.1384 -0.2961  0.0234
25894W        W68885  24.009   0.793  23.371  0.1303 -0.0310 -0.1430
25895W        W68886  21.673  21.011  29.030  0.1026 -0.1464  0.3723
25896W        W68887  14.688  26.207  21.944  0.3222  0.2007 -0.2183
25897W        W68888  18.147   1.345   4.935 -0.2499 -0.1256  0.2004
25898W        W68889  23.393   9.178  20.513 -0.3080 -0.0411  0.2672
25899W        W68890  14.033  24.741   1.492  0.3090  0.5858 -0.2616
25900W        W68891  33.254  12.425  10.901 -0.0172 -0.3126 -0.2563
25901W        W68892  24.211   5.614  27.431  0.3301 -0.3459  0.2787
25902W        W68893  11.381  15.007   6.217 -0.0184  0.0081  0.1693
25903W        W68894  31.936  18.996  18.841 -0.3912  0.0578  0.2679
25904W        W68895  17.402  11.654  25.519  0.3854 -0.0289 -0.1769
25905W        W68896  32.898  22.900  20.342  0.1959 -0.0560  0.0397
25906W        W68897  15.589  30.183  23.785 -0.0155 -0.0799  0.0834
25907W        W68898   0.211  27.562  14.269 -0.0952  0.0785 -0.2639
25908W        W68899  11.701   1.902   9.903 -0.2752 -0.4368 -0.2201
25909W        W68900  24.793  17.433  27.991 -0.1321  0.0596  0.0942
25910W        W68901   6.605  25.055  28.233 -0.3619  0.1619 -0.1238
25911W        W68902  23.436  25.230   4.695  0.3944 -0.0358  0.0298
25912W        W68903   9.291  32.249  19.454  0.1118  0.1048 -0.1530
25913W        W68904  23.415   3.204   3.880  0.0111 -0.1189 -0.0111
25914W        W68905  25.751  30.688   8.379  0.1821 -0.4021 -0.0166
25915W        W68906  29.268  21.024  20.491 -0.3420  0.1458 -0.2153
25916W        W68907  21.270  17.452  17.178  0.1521  0.0699  0.0016
25917W        W68908  17.297  17.342  26.372 -0.2534 -0.0961  0.1829
25918W        W68909  19.554  18.774  28.712  0.2383  0.1863  0.1168
25919W        W68910  17.330  29.308   4.558 -0.1606 -0.4252  0.2861
25920W        W68911  28.913  24.644  24.990 -0.2154  0.1799  0.1446
25921W        W68912  14.279  10.224   9.574 -0.2113  0.1666  0.0371
25922W        W68913  33.271  17.755  29.005  0.0786 -0.2253 -0.1410
25923W        W68914  21.429  29.181   2.373 -0.3037 -0.0914 -0.3449
25924W        W68915  20.428  22.633   8.871 -0.0315  0.0464  0.2275
25925W        W68916  14.222   1.266   1.491  0.0619 -0.1393  0.1321
25926W        W68917  21.943  23.280  24.372 -0.1815  0.5336 -0.2277
25927W        W68918  23.649  15.226  27.773  0.1365 -0.1111  0.0892
25928W        W68919   7.456  15.452   6.706 -0.0527  0.0879 -0.1963
25929W        W68920  20.060   5.584   3.281 -0.3525  0.2742  0.0628
25930W        W68921  29.576  10.214   4.882  0.0691 -0.1336  0.2117
25931W        W68922   5.053  32.323   7.703 -0.0704 -0.0772  0.2662
25932W        W68923  21.478  14.627   0.370  0.2050  0.2538  0.0467
25933W        W68924   9.717  22.483   5.727 -0.0384 -0.0300  0.1036
25934W        W68925  34.095  18.255  26.745 -0.1214  0.1982 -0.1838
25935W        W68926  22.272  18.763   6.380  0.0925  0.4000  0.3347
25936W        W68927  11.912   8.324   7.511  0.0714 -0.0160  0.0154
25937W        W68928  16.021  34.484  10.026  0.0705 -0.1176  0.0601
25938W        W68929  29.778  11.559   2.662 -0.1130  0.0042 -0.0034
25939W        W68930  27.658   6.955  25.949 -0.0605 -0.1647 -0.0635
25940W        W68931  27.095  20.473  26.313  0.1932  0.2906 -0.3180
25941W        W68932   8.972  33.126   4.521 -0.0769  0.0822  0.1588
25942W        W68933  28.960  19.531  16.102  0.1281 -0.1007 -0.0245
25943W        W68934  12.819  22.588  17.164  0.1631  0.0858 -0.1156
25944W        W68935  13.929  20.666  13.738 -0.0675 -0.0369  0.0020
25945W        W68936  14.443  22.656   3.285 -0.2570 -0.0405 -0.1571
25946W        W68937  17.541  21.434  26.642  0.2066 -0.1295  0.2820
25947W        W68938  25.387  28.856  25.462  0.1722 -0.3205  0.1228
25948W        W68939  24.089  17.212   0.397  0.1473  0.0837 -0.0377
25949W        W68940  12.502  10.984   5.469  0.2799 -0.0068  0.0618
25950W        W68941  29.285  31.648  13.562  0.2009  0.0902 -0.1256
25951W        W68942   1.080   3.480   7.183 -0.1406  0.1657  0.1025
25952W        W68943  31.887  20.763  26.092 -0.0608 -0.0594 -0.0023
25953W        W68944  24.845  10.887  20.547  0.0118 -0.1290 -0.1764
25954W        W68945  27.843   0.391  20.429 -0.2405  0.3051 -0.0211
25955W        W68946  15.129  24.244   1.897  0.1531  0.2575 -0.1388
25956W        W68947  22.145   9.445  25.305 -0.2147 -0.6714 -0.1014
25957W        W68948  13.535  24.125  25.601  0.0693 -0.0782  0.0021
25958W        W68949  30.936  23.081   0.422 -0.1081 -0.1581 -0.1745
25959W        W68950  18.459  27.975   5.436 -0.1062 -0.4772  0.2375
25960W        W68951  23.801  24.750   8.937  0.1782  0.1864  0.0545
25961W        W68952  26.260  12.648  24.702  0.0407 -0.1521  0.1037
25962W        W68953  21.732  24.317  29.078  0.1060 -0.1182  0.1621
25963W        W68954  16.987  17.598  27.410  0.0713 -0.5396  0.3363
25964W        W68955  26.908  27.623  29.037 -0.1660  0.0797 -0.1137
25965W        W68956  12.198  17.345  27.550 -0.0439  0.0679 -0.1646
25966W        W68957  28.889  18.992   8.469 -0.0724 -0.1879 -0.1248
25967W        W68958  24.177  30.816   3.766  0.1323  0.2584 -0.0092
25968W        W68959  30.617  27.557  25.317 -0.0834 -0.0628  0.2086
25969W        W68960   6.176  27.953  19.368  0.0232  0.5203  0.2097
25970W        W68961  10.146   9.798  27.168 -0.1750  0.2949  0.0827
25971W        W68962   6.217  30.304   2.246 -0.1370 -0.1643  0.0845
25972W        W68963   4.949  25.179  22.462 -0.2492 -0.0391  0.0261
25973W        W68964  11.853  19.804  26.989 -0.0060 -0.7384  0.2682
25974W        W68965  31.224  22.787  28.446 -0.1511  0.3122  0.1047
25975W        W68966  20.379  26.852  18.801 -0.2247 -0.1432  0.1016
25976W        W68967  19.498  15.630  26.767 -0.0745  0.0809 -0.1001
25977W        W68968   4.303  16.306  19.702  0.3205  0.2347  0.0990
25978W        W68969  17.039   3.035   8.667 -0.2141 -0.0011 -0.0484
25979W        W68970  16.284  29.938  24.094 -0.2986  0.3190 -0.2805
25980W        W68971  25.296   3.871  25.891 -0.1095  0.1841 -0.1253
25981W        W68972  24.194  14.782  21.133 -0.2073  0.1133  0.0975
25982W        W68973  29.060  15.382  25.068 -0.0442  0.0896  0.2338
25983W        W68974  20.434  17.734   3.953 -0.3356  0.1533 -0.2838
25984W        W68975  27.959  18.226  20.874 -0.2480  0.0293 -0.1625
25985W        W68976  33.991  15.553  21.138 -0.1591  0.1857 -0.2100
25986W        W68977   8.324  26.072  24.140 -0.0923  0.2139 -0.1171
25987W        W68978  21.433  23.568   2.439  0.0222 -0.0987 -0.0144
25988W        W68979   0.554  21.574  16.825 -0.0270  0.0135 -0.5085
25989W        W68980  33.811  31.806  26.260 -0.0377  0.2270  0.1391
25990W        W68981  21.390  21.307   2.966  0.0816 -0.1577 -0.1387
25991W        W68982   5.167  30.322   5.236 -0.2186 -0.1386 -0.2648
25992W        W68983  28.900  21.426   1.949  0.1817 -0.0240  0.2972
25993W        W68984   1.099  21.472  16.240  0.4843  0.2743 -0.2141
25994W        W68985  31.309  24.675  19.147 -0.0012 -0.0098  0.1140
25995W        W68986  25.654  21.563  29.130 -0.1445 -0.3484  0.0576
25996W        W68987  22.533   7.169   4.774  0.0177  0.2294  0.1448
25997W        W68988  31.601  25.704   3.811 -0.0175  0.0626 -0.3787
25998W        W68989   4.604  24.787  25.379  0.1809 -0.1446 -0.0871
25999W        W68990   3.137  28.505  17.770 -0.1766 -0.0462 -0.1900
26000W        W68991  17.098  26.804  15.300  0.1261  0.0520  0.2897
26001W        W68992   2.844  13.970  18.458  0.5042  0.1134 -0.0452
26002W        W68993  23.296  29.246   6.656 -0.1542  0.2275 -0.2200
26003W        W68994   2.330  32.628  14.773  0.2583 -0.0158  0.1142
26004W        W68995  27.008  25.070   6.043  0.2000  0.0572  0.0053
26005W        W68996  16.255  19.745   8.772 -0.2075 -0.2076 -0.1742
26006W        W68997  20.635  24.296  24.543 -0.0599 -0.1171  0.0336
26007W        W68998  22.352  30.818  22.625  0.1424  0.3292  0.1346
26008W        W68999  20.761  15.070  25.922 -0.3988 -0.1344  0.0265
26009W        W69000  28.217  27.457   5.223  0.3874  0.0809 -0.1837
26010W        W69001   4.703  15.316  23.266 -0.0799 -0.1162  0.0456
26011W        W69002   4.741  29.475   0.399  0.3005 -0.0836  0.1705
26012W        W69003  20.318  26.949  18.315 -0.2589  0.1536 -0.0379
26013W        W69004  11.606   9.434   0.147 -0.1016  0.1785  0.3454
26014W        W69005  28.636  10.967  22.831  0.2081 -0.4218  0.2770
26015W        W69006  18.593  28.410   4.930  0.1908  0.0806 -0.1642
26016W        W69007  26.567  17.106   5.719  0.2297  0.1436  0.2276
26017W        W69008  25.336  29.837   2.484  0.1154 -0.0752 -0.0247
26018W        W69009  14.378   0.427   2.297  0.0234 -0.0768 -0.3521
26019W        W69010  32.740  14.323  28.194  0.2494  0.3400  0.1919
26020W        W69011  13.314  20.550   8.396  0.0792 -0.0433  0.1610
26021W        W69012  24.942  15.182   3.334 -0.0684 -0.2901  0.1034
26022W        W69013   9.199  32.811   3.228 -0.0169  0.0686 -0.3581
26023W        W69014   4.928   5.388  10.424  0.0018 -0.0128  0.2431
26024W        W69015   1.956  27.064   2.772 -0.1476 -0.3400  0.0766
26025W        W69016   0.297   8.574  15.655 -0.0029  0.1844  0.0607
26026W        W69017   1.385  14.117  11.529  0.0133 -0.0268  0.2588
26027W        W69018  30.904   8.413  28.014 -0.2061 -0.0453 -0.1193
26028W        W69019  20.708  19.920   1.479 -0.0257  0.0525  0.1321
26029W        W69020  18.497   2.232  14.978 -0.0166 -0.1458  0.3548
26030W        W69021  28.401  18.944  29.037 -0.2537  0.0438  0.0053
26031W        W69022  19.927  25.911  22.697 -0.0715  0.4466  0.1180
26032W        W69023  32.118   0.935  24.372 -0.0112 -0.1021 -0.0260
26033W        W69024  27.456  19.040   7.990 -0.0229 -0.0486  0.2127
26034W        W69025  29.854  32.440  20.106 -0.3404 -0.3828 -0.0164
26035W        W69026  19.084  19.155  24.091  0.1054  0.0727  0.1171
26036W        W69027  18.021  34.620   0.216 -0.1523  0.2314 -0.2549
26037W        W69028  25.911  30.898   2.864 -0.0130  0.0113 -0.2274
26038W        W69029  17.313  25.107  26.586 -0.3244 -0.0851 -0.3068
26039W        W69030  25.575  25.427  25.287  0.0980  0.2453 -0.0419
26040W        W69031   6.567  10.343  25.117  0.2943 -0.1496  0.0403
26041W        W69032  28.498  27.176   3.023 -0.0418 -0.1081 -0.0879
26042W        W69033  18.958  22.450  21.501  0.1242  0.1086  0.2161
26043W        W69034  13.636  20.680  16.266  0.2452 -0.0149  0.0309
26044W        W69035  18.863  16.488   4.211  0.0559  0.0028  0.1175
26045W        W69036  29.236  11.850  21.190 -0.2308  0.3146 -0.2004
26046W        W69037  25.904  26.471   7.339  0.0444  0.0384  0.0068
26047W        W69038  32.064  20.636  21.566 -0.0204 -0.1540 -0.0183
26048W        W69039  26.245   0.419  18.931 -0.3088 -0.1317  0.0411
26049W        W69040  28.512   2.088   4.671  0.0439  0.0727  0.0097
26050W        W69041  21.621  34.135   4.691  0.0342 -0.0898 -0.2117
26051W        W69042  21.518  16.087  13.362  0.0147  0.0487  0.2938
26052W        W69043  32.594  23.161  27.363  0.2240 -0.0209 -0.1712
26053W        W69044   0.105  10.777  26.049  0.3525  0.1770 -0.1272
26054W        W69045  11.565  30.470   5.582  0.1532 -0.3663 -0.0325
26055W        W69046  25.753  21.675   4.183  0.1568  0.1683  0.0517
26056W        W69047  34.535  22.064  14.498  0.1406  0.1040  0.0194
26057W        W69048   7.460   0.135  23.084  0.4621 -0.2024  0.5586
26058W        W69049  14.399  27.472  26.922  0.1494 -0.1529 -0.0997
26059W        W69050  21.847  21.611   3.708 -0.0164  0.0956 -0.3535
26060W        W69051   8.684  29.938  28.157  0.0472  0.1849 -0.0520
26061W        W69052  22.999  23.629   7.291  0.2455  0.2738 -0.0392
26062W        W69053   6.082  34.023   4.758  0.6459  0.0630 -0.4127
26063W        W69054  14.561  31.387   5.482  0.0614  0.0625 -0.3442
26064W        W69055   1.256  15.711   1.896  0.1970 -0.0266 -0.1230
26065W        W69056  20.746  20.676  25.576 -0.5178 -0.1251  0.0823
26066W        W69057  13.775  10.057  25.027 -0.3634 -0.0030  0.0062
26067W        W69058  27.020  17.123   4.974  0.0730  0.1956  0.1739
26068W        W69059  30.855  25.414   2.258 -0.0575 -0.1282 -0.1788
26069W        W69060  19.350  16.148   3.703 -0.1391 -0.2109 -0.1112
26070W        W69061  12.223   1.808  28.888  0.2549  0.0021  0.2467
26071W        W69062  30.086  23.925   5.762 -0.1550  0.1936 -0.0640
26072W        W69063   8.827   2.863  28.144  0.1724  0.0913 -0.0075
26073W        W69064  22.792  24.578   4.787  0.1765  0.0324 -0.1714
26074W        W69065  33.460  26.280   2.045 -0.0412 -0.0797  0.0098
26075W        W69066  26.172  15.854  28.436 -0.2154  0.1257  0.1842
26076W        W69067  25.958  24.838  23.924  0.0086  0.1080  0.1184
26077W        W69068  17.310  33.989  27.902  0.0602  0.0848  0.0932
26078W        W69069  34.646  34.433   7.412  0.0877  0.3707 -0.1658
26079W        W69070  26.694   6.328   4.205 -0.0069 -0.1889 -0.1408
26080W        W69071   5.077   5.734   1.270 -0.1293 -0.0554  0.0752
26081W        W69072  10.912  29.322   2.219 -0.1869  0.3112 -0.2785
26082W        W69073  10.484   8.082   0.245 -0.1649 -0.0591  0.0506
26083W        W69074  14.944  11.089  24.243 -0.1808  0.0630 -0.1176
26084W        W69075   0.546   0.330   0.475 -0.1266 -0.0772  0.1677
26085W        W69076  32.629  19.426   0.843  0.3986  0.1793 -0.2136
26086W        W69077   0.787  27.787   8.253 -0.0010  0.2808 -0.1049
26087W        W69078  13.782  24.628  21.769  0.0596 -0.0946 -0.0410
26088W        W69079  25.256  25.992  20.324 -0.2478 -0.0767  0.0166
26089W        W69080  30.840  29.955   8.795  0.0622 -0.0667 -0.1922
26090W        W69081  25.303  26.070  24.870 -0.5486  0.2740  0.1695
26091W        W69082   4.112  20.529   6.352  0.2524 -0.2338 -0.1839
26092W        W69083  22.201  27.611   0.022 -0.1418 -0.1588  0.2247
26093W        W69084  17.633  22.571  27.158 -0.0764 -0.1410 -0.1263
26094W        W69085  13.340  31.626   4.018 -0.0616 -0.0987  0.2905
26095W        W69086  25.073   1.017  13.948  0.1674  0.0923 -0.0514
26096W        W69087  27.901  32.849  24.634 -0.0201 -0.0065 -0.0974
26097W        W69088  30.648  13.020  17.111 -0.2788 -0.0822 -0.1250
26098W        W69089  23.246  33.546  13.557  0.3798  0.1284 -0.0159
26099W        W69090  13.997  13.060   3.280 -0.0773 -0.0827 -0.3061
26100W        W69091  18.917  30.085  14.703  0.1624 -0.0318 -0.1933
26101W        W69092   8.602  30.390  21.497  0.0996  0.0265  0.1539
26102W        W69093   1.387  17.458   3.680  0.0763  0.0606  0.1612
26103W        W69094  18.987  15.188   3.871  0.0626 -0.0662 -0.0418
26104W        W69095   1.898  32.773  14.578 -0.0006  0.1860 -0.2073
26105W        W69096  13.301  19.984   2.785 -0.1142 -0.0097 -0.0856
26106W        W69097  29.381  23.664   4.000  0.2991 -0.1961  0.1021
26107W        W69098  29.822  31.235   3.312  0.0380 -0.0710  0.0361
26108W        W69099  18.235  16.957   2.482 -0.2071 -0.3214 -0.1594
26109W        W69100  25.687  19.857   4.667  0.0028  0.1403  0.1383
26110W        W69101  24.772  30.429   1.953  0.1336  0.2421  0.2537
26111W        W69102  18.591  16.274   6.811  0.2641 -0.0580 -0.0969
26112W        W69103  12.153  22.928  21.387  0.0505 -0.1023  0.0622
26113W        W69104   2.554  31.970   4.525 -0.0571  0.0841  0.0319
26114W        W69105  18.075  28.732  28.084  0.1490 -0.0631  0.3415
26115W        W69106   8.496  11.645  22.864 -0.0724 -0.1805 -0.0085
26116W        W69107  16.437   8.756  23.721  0.1805 -0.0951  0.0127
26117W        W69108   4.809   0.760   5.427  0.0472 -0.1005  0.0671
26118W        W69109  27.576  26.981  20.562 -0.2734  0.1285 -0.0105
26119W        W69110  27.938  28.414   6.098  0.0075 -0.0108  0.0440
26120W        W69111   4.223  10.060  27.647 -0.0682  0.1966 -0.4980
26121W        W69112   8.236  21.691  23.517  0.2158 -0.2056 -0.0213
26122W        W69113   7.009   2.440   0.440 -0.3268  0.0734 -0.0949
26123W        W69114  10.361  16.506   5.627  0.1199 -0.1505  0.2646
26124W        W69115  25.364  24.492  23.887 -0.0285 -0.0895  0.0810
26125W        W69116  34.110  14.490   1.664 -0.0146 -0.1493 -0.0125
26126W        W69117  25.634  21.006   7.486 -0.2079  0.0381 -0.1868
26127W        W69118   2.029  11.473   6.802  0.2848  0.1390  0.0166
26128W        W69119   3.488  14.102   5.559 -0.0138  0.1270 -0.0078
26129W        W69120  26.224  26.572   7.667 -0.1735 -0.1181 -0.3039
26130W        W69121  27.876  15.939  26.747  0.1072 -0.1033 -0.0155
26131W        W69122  34.422  25.880  19.345 -0.1106  0.5105 -0.0415
26132W        W69123   4.112  16.554  23.620 -0.1623 -0.0362 -0.1809
26133W        W69124  10.101  29.247  24.474 -0.0196 -0.3238 -0.3693
26134W        W69125   4.091  19.080   9.749  0.2368  0.2679  0.3060
26135W        W69126  14.717  30.012  22.757 -0.2460 -0.2543 -0.1234
26136W        W69127  22.644  10.161   7.998  0.1480  0.0750  0.2200
26137W        W69128   1.927   5.166   1.545 -0.0110 -0.1676 -0.0542
26138W        W69129  27.409   1.783   7.062  0.0162 -0.2977 -0.0483
26139W        W69130  14.102   7.156  28.525 -0.1392 -0.3663  0.2368
26140W        W69131  32.902  25.712  28.819  0.1225 -0.1316  0.4006
26141W        W69132   9.340   6.038   5.858  0.0718  0.1696  0.0200
26142W        W69133  22.525  24.448   6.812 -0.4330 -0.2796  0.3738
26143W        W69134  30.106  22.157   2.585  0.0187  0.0084  0.0242
26144W        W69135  20.730  21.314  24.835 -0.0364 -0.1828  0.0719
26145W        W69136  20.581   6.470   4.773  0.0358  0.2059  0.2872
26146W        W69137  21.007   6.570   7.411 -0.2552 -0.1166  0.0500
26147W        W69138  20.388   8.541   8.708  0.2667 -0.4851  0.2553
26148W        W69139   0.690  30.914   5.795 -0.0206 -0.0390  0.1225
26149W        W69140   6.352  17.823  10.919 -0.5201 -0.0020  0.0664
26150W        W69141   3.723   6.292   9.828 -0.1974 -0.1243 -0.1653
26151W        W69142  32.233  19.633   8.368  0.0443 -0.0197  0.1295
26152W        W69143  22.150  25.949   2.549 -0.0711 -0.1672 -0.0839
26153W        W69144  22.222  19.242   5.809 -0.2030  0.0593 -0.0116
26154W        W69145  16.899  14.817   7.914 -0.0028 -0.3379 -0.1018
26155W        W69146  25.801  23.502  26.994 -0.1760 -0.0760  0.0631
26156W        W69147  14.286  15.947  23.814 -0.0541 -0.0350 -0.0435
26157W        W69148  12.530  18.039   4.518  0.0674  0.1286 -0.1237
26158W        W69149  28.048  30.713   7.478 -0.2457 -0.0556  0.0560
26159W        W69150   3.095  14.718  11.034 -0.1812  0.0942  0.0239
26160W        W69151   9.378  23.518   9.405  0.2032  0.0612  0.0291
26161W        W69152  14.600  18.373   6.094 -0.0560 -0.2184 -0.0151
26162W        W69153  10.110  10.192  11.662 -0.2035  0.0629  0.1441
26163W        W69154  17.936  32.717   1.848 -0.0786  0.0870  0.1013
26164W        W69155  27.983   3.852   1.633  0.3148  0.2071  0.1001
26165W        W69156  12.474  22.747  23.591  0.2019 -0.2183 -0.1073
26166W        W69157  15.076  15.463  28.503  0.1309 -0.2052 -0.1374
26167W        W69158  10.700   2.907   2.471  0.1719 -0.0800  0.1313
26168W        W69159  24.890  25.571   6.412  0.3753  0.1305  0.1713
26169W        W69160   2.029  15.561   3.407 -0.0988  0.0604  0.0307
26170W        W69161   0.027   0.094  23.241  0.0107  0.2515 -0.0031
26171W        W69162  32.617  14.099   0.355  0.2153 -0.1820 -0.2774
26172W        W69163   5.678  17.304   3.892  0.1356  0.0719 -0.0985
26173W        W69164  17.184  31.505  10.482 -0.1393  0.1053 -0.1803
26174W        W69165   2.818  31.366  25.115  0.0668  0.3126  0.0742
26175W        W69166  16.728  25.830  25.459  0.1598  0.2803 -0.1732
26176W        W69167  15.649  20.725  27.883  0.0076  0.3288  0.3042
26177W        W69168  21.680  30.174   9.574 -0.2830 -0.0410 -0.1083
26178W        W69169  30.366  29.931  12.806  0.1395 -0.1680  0.2575
26179W        W69170  18.415  15.248   5.604 -0.0543 -0.0818 -0.0057
26180W        W69171  30.269  27.503   8.379 -0.1482  0.2119 -0.0928
26181W        W69172  10.330  23.778   9.882  0.1274 -0.2542  0.1920
26182W        W69173  15.497   4.482   3.527  0.2429  0.1096 -0.1359
26183W        W69174  11.932  23.443   9.963  0.0801  0.0215  0.2880
26184W        W69175   1.407  18.804   8.718  0.2089 -0.0757 -0.1020
26185W        W69176   0.323  23.800   9.195 -0.0132 -0.1349 -0.1552
26186W        W69177  32.482  11.843   3.792  0.2161  0.0213 -0.2034
26187W        W69178  23.295  18.620   0.404  0.0613  0.3245  0.0330
26188W        W69179  17.727   8.345   9.338  0.0708 -0.0938 -0.1678
26189W        W69180  20.905  20.636   0.504 -0.0573 -0.2494 -0.1168
26190W        W69181  32.897  19.668   6.757  0.0519  0.2091 -0.0103
26191W        W69182   9.881   1.258  26.037 -0.2640 -0.0417  0.1484
26192W        W69183  16.686  27.625  26.982 -0.1320  0.1280 -0.1578
26193W        W69184   9.720  21.742   8.561 -0.0671 -0.0771 -0.0969
26194W        W69185   0.340  13.058  27.971 -0.7045  0.1819 -0.1219
26195W        W69186  18.410  25.749   3.787 -0.0716  0.3864  0.0884
26196W        W69187  26.856  19.332   7.371 -0.0970  0.2674  0.1894
26197W        W69188  27.936  26.755   0.101  0.2099 -0.0059 -0.1308
26198W        W69189  12.242  28.443   7.390  0.0070  0.1411  0.1538
26199W        W69190  20.076  18.419   4.123  0.2526  0.1110  0.0782
26200W        W69191  33.758  32.308   2.190  0.2400 -0.2294 -0.3968
26201W        W69192   9.122  24.508   5.631 -0.0128  0.1600 -0.0263
26202W        W69193   2.505  24.178  24.054 -0.0373 -0.1985  0.0791
26203W        W69194  33.272  21.244   7.432 -0.1669  0.0936  0.0179
26204W        W69195  17.489  24.248   2.849 -0.0527 -0.2697  0.2758
26205W        W69196   7.381  13.635   5.549 -0.0582 -0.1360 -0.0087
26206W        W69197  24.335  29.747   9.076 -0.1729  0.1626 -0.2039
26207W        W69198   2.035  26.952  26.884 -0.0250  0.3329  0.1894
26208W        W69199  26.186  26.370  18.975  0.0881  0.0068 -0.0468
26209W        W69200  19.704  19.187  22.758 -0.3540  0.0598  0.0254
26210W        W69201  31.662  32.891   5.874  0.4242 -0.1680 -0.1099
26211W        W69202  21.752  25.995   0.882 -0.0336  0.0950 -0.4513
26212W        W69203  19.704  23.940   7.822 -0.1954  0.0854  0.0266
26213W        W69204  18.330  17.269  25.009  0.0892  0.1760  0.0329
26214W        W69205  14.523  11.480   2.309 -0.5562 -0.0462  0.1103
26215W        W69206  14.580  20.700   0.103  0.1277  0.1426  0.1327
26216W        W69207  18.822   6.617   7.160  0.0010  0.4353  0.2479
26217W        W69208  21.396  20.223   7.266  0.3291  0.1492  0.1096
26218W        W69209   9.455  21.397   3.148 -0.0439  0.1731 -0.1351
26219W        W69210  30.467  32.800  23.879  0.0025 -0.1534 -0.0064
26220W        W69211  26.046   4.623   2.312  0.1183 -0.1425 -0.1857
26221W        W69212  31.273  27.746  14.547  0.2881 -0.0745 -0.0536
26222W        W69213   4.691   0.631   4.701  0.2149 -0.1559 -0.0490
26223W        W69214  14.227  13.478   1.300 -0.3193 -0.1684  0.0807
26224W        W69215   3.512  27.651  16.700 -0.3090  0.0155  0.2352
26225W        W69216  28.755  26.206  27.414  0.4547  0.2719 -0.0768
26226W        W69217  29.400   2.405   0.626 -0.3990  0.3072 -0.0595
26227W        W69218  26.849  24.842  25.485  0.3505 -0.1150 -0.2702
26228W        W69219  28.519  17.972   4.343  0.2109  0.0723  0.1367
26229W        W69220  21.501  17.745   8.953  0.0794 -0.2101  0.1825
26230W        W69221  29.460  13.538   4.294 -0.0044 -0.0104  0.1887
26231W        W69222   0.400  26.766   6.234  0.0987  0.0178 -0.3132
26232W        W69223  21.115  22.792   7.229 -0.1204  0.0841  0.1958
26233W        W69224  26.952  28.861  20.714 -0.1615  0.0844  0.0233
26234W        W69225  18.559  26.483   2.070 -0.2875  0.2845 -0.2799
26235W        W69226  28.253   8.619  21.808  0.1289 -0.1068 -0.2489
26236W        W69227   4.142  29.060   7.103  0.2842  0.2678  0.2035
26237W        W69228  17.997  27.528  27.189 -0.0338  0.1355  0.0510
26238W        W69229  16.587  28.665   0.414 -0.2088 -0.1512 -0.0301
26239W        W69230  33.132  20.152   5.882  0.1865 -0.0732  0.2243
26240W        W69231  26.039  20.820  10.276 -0.2664  0.0307  0.0266
26241W        W69232   6.065  22.005   7.932 -0.1097  0.0672 -0.3889
26242W        W69233  17.694  33.678   5.627  0.1170  0.4360 -0.1476
26243W        W69234   8.415  33.390   0.392 -0.0821  0.2584  0.3468
26244W        W69235  25.743  19.941   5.684  0.2023  0.0909 -0.0780
26245W        W69236  27.809  31.439   8.257 -0.0427 -0.0359 -0.2900
26246W        W69237  34.697  10.427  10.495  0.0788  0.1036 -0.1481
26247W        W69238  18.836  24.370  23.376 -0.1569 -0.0774  0.0235
26248W        W69239  33.957  23.198   1.647 -0.2361  0.2795 -0.3479
26249W        W69240   2.915  32.778   7.383  0.0933  0.1086 -0.1820
26250W        W69241  28.529  30.086   3.489 -0.2662  0.3224  0.0098
26251W        W69242  19.380  23.171   3.918  0.0379 -0.0243 -0.2406
26252W        W69243  20.563  23.660  26.076  0.2644 -0.3628 -0.0360
26253W        W69244   5.578  19.435   2.416 -0.0301  0.0554  0.1083
26254W        W69245  15.614  20.976   3.107 -0.0650 -0.1368 -0.3642
26255W        W69246  19.218  21.087   7.920  0.0190  0.2174  0.3334
26256W        W69247   1.059  14.788   9.119  0.0409  0.1149 -0.4676
26257W        W69248  23.343  31.155   7.517  0.0773  0.0957 -0.4112
26258W        W69249  23.067  18.418   6.098  0.2154  0.1964  0.1340
26259W        W69250  29.137  30.774  18.305  0.2068  0.4121 -0.2036
26260W        W69251  19.779  14.876   6.615  0.1507  0.1858 -0.0772
26261W        W69252  16.347  25.055  27.672  0.0867 -0.1396  0.0739
26262W        W69253  14.166  28.458   2.935 -0.0063 -0.2491 -0.1071
26263W        W69254   2.051  24.891   6.506 -0.1733 -0.2653 -0.2714
26264W        W69255  25.522  26.730   2.806  0.1254 -0.0620  0.0480
26265W        W69256  24.721  27.080   8.584 -0.0145  0.2011  0.2748
26266W        W69257  13.499  31.562   9.612 -0.1562  0.1141 -0.0904
26267W        W69258  24.972   1.507  21.889  0.1737 -0.1198  0.1154
26268W        W69259  25.246  26.747  28.904 -0.2742  0.0547 -0.4152
26269W        W69260  25.378   2.512  26.127 -0.1300  0.1559 -0.3757
26270W        W69261  30.861  23.047  26.245  0.0873  0.0588  0.0252
26271W        W69262  22.363  23.046   1.924  0.1588  0.0661  0.0915
26272W        W69263  28.234  17.502   0.997  0.0607 -0.0659 -0.0133
26273W        W69264  26.758  19.282   3.566 -0.0825  0.0200 -0.1406
26274W        W69265  31.564   9.111   1.653  0.1491 -0.4228  0.0033
26275W        W69266  18.557  18.826   4.693  0.0483  0.3635  0.4128
26276W        W69267  32.652  15.912   2.365  0.2946 -0.3039  0.0281
26277W        W69268  25.834  30.139   5.894  0.0086 -0.2186 -0.1296
26278W        W69269   9.666  14.334  27.105 -0.1503 -0.3306 -0.1869
26279W        W69270  28.312  19.750  29.110 -0.1039 -0.1760 -0.0297
26280W        W69271  25.926  31.585   2.558 -0.0940 -0.3623 -0.2963
26281W        W69272  18.626  20.372  27.454  0.0339  0.0362 -0.1778
26282W        W69273  26.003  25.662   2.243  0.2564  0.0212 -0.1138
26283W        W69274  27.186  30.711   3.286 -0.0677 -0.1578 -0.1230
26284W        W69275  28.262  21.383  23.594 -0.1022  0.2963  0.0250
26285W        W69276  20.816  14.121  14.613 -0.1291 -0.2632  0.0646
26286W        W69277   0.429  14.242   5.909 -0.2348 -0.1640 -0.0593
26287W        W69278  10.934  21.745  29.041  0.4776  0.1734 -0.2827
26288W        W69279  26.061  19.121   1.980  0.0398 -0.0126 -0.2731
26289W        W69280   3.243  22.924   7.830 -0.2942 -0.1350 -0.1422
26290W        W69281  27.817  18.873   9.232 -0.1827  0.0165  0.0679
26291W        W69282   5.371  27.228   6.184 -0.0712  0.0693  0.1957
26292W        W69283   9.247  11.399   3.892  0.1680 -0.1089  0.0515
26293W        W69284  18.249  32.433   3.568 -0.1885  0.1133  0.2746
26294W        W69285  24.222  18.593   2.681 -0.1461  0.0421  0.0773
26295W        W69286  25.039   9.817   4.507  0.1963 -0.0375 -0.0511
26296W        W69287  22.908  19.442  16.376 -0.7878  0.2216  0.1369
26297W        W69288   5.445  14.657   5.004  0.1530  0.0525  0.1397
26298W        W69289  15.859   4.272   5.930  0.0870  0.3710  0.0147
26299W        W69290  11.147  21.206  10.110  0.0966 -0.1092  0.4310
26300W        W69291  25.810   2.031   3.043 -0.2117 -0.3800  0.3403
26301W        W69292  32.785  28.870  22.068 -0.1219  0.0015  0.2195
26302W        W69293  23.892  19.628   6.963  0.1082 -0.0995  0.0689
26303W        W69294  10.373  16.694  23.050 -0.1856 -0.1813  0.1219
26304W        W69295  18.002  17.931  26.900  0.3147  0.3090  0.1701
26305W        W69296  21.652  32.361  25.396 -0.0593  0.1230  0.1193
26306W        W69297  26.216  24.122   2.938 -0.2084 -0.0004  0.0768
26307W        W69298  27.489  29.193   0.114  0.0121  0.1341 -0.0359
26308W        W69299  15.439  24.644   7.020 -0.1454  0.1405 -0.3647
26309W        W69300  16.829  25.055  23.099  0.0016 -0.1343  0.1426
26310W        W69301  32.064  23.991   3.240 -0.3558  0.0717 -0.0092
26311W        W69302  21.910   1.461  10.123  0.0137  0.1454 -0.0397
26312W        W69303  23.125  25.978   5.225  0.0154  0.0028  0.1202
26313W        W69304  11.293  20.551   1.058  0.0867  0.1611  0.2538
26314W        W69305  16.201  18.488   1.855 -0.1052 -0.0137  0.1552
26315W        W69306   9.324  21.771   8.141  0.2338  0.1932 -0.1397
26316W        W69307  33.365   0.297   9.072 -0.0563  0.2314  0.2579
26317W        W69308  27.544  34.469   8.573  0.1102  0.2254  0.0569
26318W        W69309  18.888  18.461  28.069 -0.1161 -0.0507 -0.1470
26319W        W69310  13.953  13.476   8.863 -0.0054  0.0466 -0.3877
26320W        W69311  24.230  18.338  24.039 -0.2672 -0.4617 -0.2045
26321W        W69312  34.786  24.010   2.872 -0.0277 -0.3867  0.0406
26322W        W69313  25.926  12.190   9.729  0.0569  0.1655  0.1539
26323W        W69314  15.683  11.338  20.826  0.0716 -0.3402  0.0331
26324W        W69315   0.252  13.999   0.875 -0.3040  0.0196  0.2520
26325W        W69316  17.219  34.298   7.588  0.1185 -0.0376 -0.4414
26326W        W69317  20.328  15.719   7.421  0.0836 -0.2525  0.0168
26327W        W69318  28.762  16.422   0.248  0.0915 -0.1467  0.0622
26328W        W69319  21.559  29.825  22.926  0.4818 -0.2863 -0.2259
26329W        W69320  27.936   4.589   5.399 -0.1359 -0.1544 -0.1972
26330W        W69321  20.946  26.396  18.634 -0.2217 -0.0955 -0.2375
26331W        W69322  13.820  17.994   5.674  0.0346 -0.2745  0.1654
26332W        W69323  12.998  16.406   8.705 -0.1946 -0.0661 -0.1540
26333W        W69324  15.662  12.382  28.651  0.2102 -0.0345 -0.2110
26334W        W69325  25.200  16.261   6.636  0.0217 -0.1164  0.0450
26335W        W69326   3.822  11.476   5.247 -0.4342  0.3015  0.0569
26336W        W69327   7.635  23.624  29.047  0.1612 -0.1399  0.4441
26337W        W69328  31.094  24.081  27.820 -0.0182  0.1237  0.3226
26338W        W69329   6.289  24.584   3.367 -0.0622  0.0515  0.3304
26339W        W69330  25.203  28.505   2.598  0.0050 -0.0919 -0.1889
26340W        W69331  28.538   0.611   1.349  0.0133 -0.1966 -0.2190
26341W        W69332  15.973  20.144   7.006 -0.2195 -0.4282 -0.1025
26342W        W69333  11.363   8.869  23.887  0.4832  0.0394  0.1000
26343W        W69334  25.159  13.770   7.176 -0.1884  0.2072 -0.1206
26344W        W69335  25.086  13.608   9.468  0.2251  0.2770 -0.1636
26345W        W69336  31.307  23.563  27.255  0.2174  0.1203 -0.0481
26346W        W69337   1.146   9.691  28.836  0.1674  0.0879 -0.0896
26347W        W69338  21.957   9.906  25.135  0.4470 -0.0883 -0.0020
26348W        W69339  32.278  26.644   0.534  0.2173 -0.1438 -0.0766
26349W        W69340  13.590  23.865  10.071 -0.0880 -0.0063  0.2951
26350W        W69341  16.565  24.549   8.780 -0.0787  0.1146  0.0630
26351W        W69342  24.757  13.976  25.740  0.1900  0.1617 -0.1001
26352W        W69343  14.855  27.132   0.376 -0.0558  0.1519 -0.1837
26353W        W69344  31.962  10.486  20.138  0.1507  0.1527 -0.2489
26354W        W69345  29.740  31.264   4.159  0.2240  0.2088 -0.1277
26355W        W69346  28.542  15.396   5.878 -0.0082 -0.1542  0.2462
26356W        W69347  33.173  26.947  28.890  0.2253 -0.0327  0.0072
26357W        W69348  18.988  31.723   1.556 -0.3235 -0.1007  0.0261
26358W        W69349  18.482  29.869   8.840  0.0844  0.1844 -0.1138
26359W        W69350  23.755  17.595  27.913 -0.0119 -0.0021 -0.1417
26360W        W69351  14.902  25.626   2.652 -0.0519  0.1828 -0.2988
26361W        W69352  21.570  18.407  20.325 -0.1790  0.0321  0.1090
26362W        W69353   7.544  22.519  28.055 -0.0488 -0.1756 -0.0349
26363W        W69354  18.349  17.618   0.616  0.1075  0.2044 -0.0388
26364W        W69355  11.808  21.405  25.515  0.0944  0.2593 -0.1059
26365W        W69356  29.689  30.021   1.406  0.0307 -0.4812  0.0168
26366W        W69357  31.072   5.117   7.104 -0.0865 -0.0575 -0.2783
26367W        W69358  20.947   9.198   2.930 -0.2772  0.1853  0.0000
26368W        W69359  28.020  31.931   1.083 -0.0108 -0.4478  0.0168
26369W        W69360   1.157  17.391   7.931  0.1360  0.1007  0.1128
26370W        W69361   7.108  18.822   7.589  0.0008 -0.0940  0.1160
26371W        W69362  31.334  16.803  10.699 -0.0068 -0.5118  0.2406
26372W        W69363   0.332  29.075   2.352 -0.3517  0.2314 -0.3907
26373W        W69364  16.405  33.145   0.948 -0.0559 -0.0547 -0.1000
26374W        W69365  31.182  12.317   3.667  0.1121  0.0330  0.1239
26375W        W69366  22.626  32.230   1.811 -0.0627 -0.5794 -0.1053
26376W        W69367   6.836  15.266   5.612  0.2802  0.0953 -0.1578
26377W        W69368  26.346  21.716   3.209 -0.0730  0.1827 -0.3142
26378W        W69369  30.539  27.166   5.753  0.3904  0.0354 -0.3472
26379W        W69370  27.550  19.768   2.090  0.1065  0.0847 -0.0820
26380W        W69371  23.842  13.237   5.360 -0.1653  0.0741 -0.1037
26381W        W69372  15.307  22.271   1.717  0.0791  0.2588  0.1039
26382W        W69373  19.916   4.372  22.121  0.1288  0.0814  0.1136
26383W        W69374  17.935  29.439  25.294 -0.0543 -0.4658  0.1489
26384W        W69375  19.672  20.054  14.855  0.0731  0.0538 -0.0075
26385W        W69376  11.731  12.636   8.461  0.1090 -0.1885 -0.0105
26386W        W69377  24.374   6.732   6.457  0.1136 -0.0391  0.0440
26387W        W69378  19.934  17.693  23.322 -0.0151  0.0672  0.1055
26388W        W69379  24.130  10.122  22.872  0.1364 -0.4084 -0.1949
26389W        W69380  14.621   0.347  26.674  0.0476 -0.5763 -0.3946
26390W        W69381  17.322  19.299  26.911 -0.2120  0.1759  0.0682
26391W        W69382  24.297  22.168   1.841 -0.2367  0.4348 -0.0031
26392W        W69383   5.737  23.256  22.399  0.1754  0.1558  0.1636
26393W        W69384   3.081  21.636   8.986 -0.0139 -0.3817 -0.1720
26394W        W69385  29.622  23.036   3.600 -0.0055 -0.2194 -0.1970
26395W        W69386  14.958  18.455   1.029 -0.0853 -0.0960  0.0951
26396W        W69387  19.449  27.923   0.464  0.1744 -0.0186  0.0484
26397W        W69388  16.802  23.081   3.890 -0.1897 -0.2445 -0.0813
26398W        W69389  16.408  16.900  28.342  0.0299  0.3354 -0.4512
26399W        W69390   0.329  25.607  13.676  0.0246 -0.3011  0.0026
26400W        W69391  34.684  19.571   3.555 -0.3674 -0.1279 -0.0755
26401W        W69392  23.999   0.506   8.882  0.0088  0.0757 -0.1524
26402W        W69393   8.183   1.121   3.886 -0.1173 -0.3449  0.2701
26403W        W69394  16.227  21.213  21.986  0.3459  0.0100 -0.0909
26404W        W69395  16.606  14.387   8.777 -0.2501 -0.0679 -0.0318
26405W        W69396  16.434  17.533   9.417 -0.2208  0.1058 -0.1421
26406W        W69397  33.294  13.650  17.655  0.0260 -0.1739  0.0570
26407W        W69398  19.919  24.395   7.658 -0.0645  0.0934 -0.1697
26408W        W69399   6.931  23.029   6.998 -0.1420  0.3162 -0.0720
26409W        W69400  19.720  21.351  23.684  0.4317 -0.1967  0.1246
26410W        W69401   4.136  28.815   8.042 -0.0375 -0.0402  0.4972
26411W        W69402  26.722  25.720   9.115  0.1287 -0.0865 -0.0463
26412W        W69403  27.132  24.373  28.077 -0.0711 -0.1044 -0.0599
26413W        W69404  28.873  28.682   7.557 -0.1221  0.3272  0.3258
26414W        W69405  32.399  18.365   2.233  0.0546  0.2052 -0.0299
26415W        W69406  13.336  17.576   7.096  0.0370 -0.3369 -0.0683
26416W        W69407   0.233  25.118   0.176  0.0678 -0.1307 -0.2381
26417W        W69408  24.818  11.947  21.926  0.0664 -0.2516 -0.1431
26418W        W69409   2.535  18.007   0.439  0.0289 -0.1399 -0.1932
26419W        W69410   1.092  14.365  16.849 -0.3468 -0.1127 -0.0320
26420W        W69411   0.871  17.848  10.980  0.1933 -0.0953 -0.0062
26421W        W69412   4.282  30.012   0.080 -0.1943  0.1036 -0.3020
26422W        W69413  33.689  11.939  10.235 -0.0817  0.1262  0.1191
26423W        W69414  21.594  25.883  27.184  0.0039 -0.0574 -0.0159
26424W        W69415  25.710  28.871  27.052  0.0630 -0.3695 -0.2592
26425W        W69416   5.651  28.501  18.063 -0.3218 -0.0773  0.3420
26426W        W69417  11.919  16.358   4.540 -0.1755  0.2210 -0.0535
26427W        W69418  29.643  19.074  18.879  0.1603  0.0796  0.1166
26428W        W69419  19.771   8.079   5.488 -0.2262  0.1563  0.0160
26429W        W69420   9.618   7.481   6.147  0.1420  0.0254 -0.4359
26430W        W69421  20.067  25.615  28.485  0.0119  0.4482  0.0371
26431W        W69422  19.755  15.931  27.146 -0.0173 -0.0194  0.4130
26432W        W69423   0.024   1.138   8.629  0.2728  0.1435 -0.2562
26433W        W69424  33.713  27.006   3.031  0.1197  0.1723  0.1062
26434W        W69425  23.562  33.500  26.312 -0.1162 -0.1920 -0.2367
26435W        W69426   0.578  17.836   9.753 -0.2750 -0.1256  0.0572
26436W        W69427  17.613  12.798   6.320 -0.0280  0.1672 -0.0958
26437W        W69428  29.445  17.437  27.927 -0.1184  0.0122 -0.4305
26438W        W69429  19.525   7.744   6.590 -0.0411 -0.0059  0.0653
26439W        W69430  24.781  32.054   3.841 -0.1070  0.2154 -0.2541
26440W        W69431   9.169  12.156   2.092  0.0155 -0.1621 -0.0709
26441W        W69432  24.902  19.360   4.357 -0.3069  0.1007 -0.1110
26442W        W69433  22.366  11.339   6.531 -0.2717  0.0988 -0.3848
26443W        W69434   3.663   7.941  28.867  0.1361  0.1512  0.1677
26444W        W69435  21.954  20.712   0.612  0.0120  0.0083 -0.1114
26445W        W69436  33.149  22.831  22.936  0.0343  0.0165  0.0640
26446W        W69437  28.602  20.107  29.217 -0.0375  0.0119  0.0760
26447W        W69438  32.668   9.838  28.249  0.2448 -0.0718 -0.2182
26448W        W69439  18.125   2.138  21.745  0.0230 -0.1152 -0.1754
26449W        W69440  18.481  20.216   3.488  0.2329  0.0192  0.2610
26450W        W69441  28.423  18.494   4.744  0.0544  0.0865 -0.1384
26451W        W69442  22.712  22.339   6.904 -0.0169  0.2258 -0.2363
26452W        W69443  21.504  19.041  23.464  0.0518 -0.1199  0.0444
26453W        W69444  21.158  15.497  27.116  0.2635 -0.1527  0.0192
26454W        W69445  24.032  15.730   8.813  0.3868  0.1349  0.0309
26455W        W69446  31.433  21.658   9.169 -0.1165  0.0569 -0.1821
26456W        W69447  27.738  34.417   3.051 -0.1246 -0.2676 -0.0923
26457W        W69448   3.194  28.932  25.177  0.3308  0.4336 -0.0875
26458W        W69449  24.939  22.968   4.602 -0.0071 -0.0888  0.0487
26459W        W69450  18.350  23.860   7.152 -0.0197  0.0028  0.1472
26460W        W69451   2.044   4.449  10.119 -0.0943 -0.1090  0.1119
26461W        W69452  25.847  29.077  26.254  0.1097  0.0213 -0.0364
26462W        W69453  19.636  23.779   9.446  0.1584 -0.2364 -0.3823
26463W        W69454  14.694  33.257  24.297  0.1044  0.0676 -0.2176
26464W        W69455  25.675  34.749   5.834  0.0177 -0.0265  0.2628
26465W        W69456   2.499  15.595  10.962 -0.0440  0.2734  0.1700
26466W        W69457  22.048  27.668   7.748  0.0418  0.1665 -0.0444
26467W        W69458  27.328  20.429  23.664  0.2478  0.3524 -0.3179
26468W        W69459  25.379  25.221   5.570  0.0481 -0.1148  0.1657
26469W        W69460  27.269  20.673  26.884  0.1575  0.1311 -0.1142
26470W        W69461  30.345   5.446  25.363  0.2532 -0.0614 -0.1570
26471W        W69462  27.952  22.097   3.340  0.0080 -0.2403 -0.1213
26472W        W69463  25.685  16.333  22.669 -0.2566 -0.0576 -0.0024
26473W        W69464  23.064  27.216   6.162 -0.2985  0.0984 -0.2190
26474W        W69465  19.484   2.732   7.227 -0.3984 -0.1201 -0.0681
26475W        W69466  18.723  21.301  24.023 -0.1584 -0.0973 -0.0045
26476W        W69467  29.487  33.576   7.858  0.0464 -0.0739  0.0343
26477W        W69468  16.772  11.555  27.682  0.1732  0.0759 -0.0527
26478W        W69469   3.136   2.299   3.361  0.0005 -0.0745  0.0993
26479W        W69470  23.496  18.291   9.437 -0.1331  0.0705  0.1767
26480W        W69471   1.439  31.743   9.069  0.1119  0.1207 -0.0594
26481W        W69472  22.310  12.455   3.959 -0.1589  0.0097  0.0144
26482W        W69473   1.487  23.912  15.740 -0.0602 -0.3408 -0.0412
26483W        W69474  25.817  22.764   2.760  0.1101  0.2702 -0.1719
26484W        W69475  13.807   0.433  25.539 -0.4098 -0.1471 -0.0453
26485W        W69476  32.918  29.251   5.917  0.1736  0.0178  0.0744
26486W        W69477  13.765  15.438  22.762  0.0799 -0.1777  0.0578
26487W        W69478   2.374  12.711   7.867 -0.0067 -0.0709  0.0784
26488W        W69479  32.496  14.664  27.920  0.2157  0.0956 -0.3321
26489W        W69480  19.152   0.287   1.796  0.0098 -0.2995  0.0949
26490W        W69481   3.166  29.695  25.735 -0.1344 -0.1521  0.1003
26491W        W69482  17.003  33.280  27.110  0.3279  0.0021  0.0246
26492W        W69483  13.764   9.241   0.264  0.2017  0.1027 -0.1630
26493W        W69484  33.782  29.226   9.130 -0.0074  0.2657 -0.0354
26494W        W69485  23.184  24.233  15.600 -0.0839 -0.0840  0.0332
26495W        W69486  13.159   4.569  28.432 -0.0037 -0.1820 -0.0443
26496W        W69487  31.548  33.362   2.448  0.0243  0.2049  0.0317
26497W        W69488  23.412  24.024   2.451  0.1104  0.2776  0.0123
26498W        W69489  24.667  25.495  24.697  0.1608  0.1504 -0.5422
26499W        W69490  19.628  15.071   6.164 -0.1106  0.0150 -0.0400
26500W        W69491  29.353  21.840  27.609 -0.2430  0.1759 -0.1198
26501W        W69492  24.970   5.804  27.793  0.0501 -0.0653 -0.1847
26502W        W69493  17.111  22.939   0.370 -0.2887 -0.0314  0.1456
26503W        W69494  18.044  32.882  28.679 -0.1417 -0.1350 -0.0745
26504W        W69495  23.628  25.836  22.551 -0.2558 -0.0193 -0.2534
26505W        W69496  17.058  26.766  20.478  0.0697 -0.0653  0.0585
26506W        W69497  17.004  33.531  27.684 -0.2334  0.2452 -0.0468
26507W        W69498  24.695  22.590   3.210  0.0107  0.3379 -0.0115
26508W        W69499  25.347  33.056  28.190  0.0216  0.0717  0.0101
26509W        W69500   2.212  23.321   9.921  0.0506  0.1269 -0.2672
26510W        W69501  13.776  16.718  25.358  0.0896 -0.0369  0.0471
26511W        W69502  21.938  20.082  28.657  0.0200  0.1106 -0.1667
26512W        W69503  34.525   2.821  27.938  0.2537  0.0577 -0.0713
26513W        W69504  24.638  22.587  17.656  0.0443 -0.3803 -0.1214
26514W        W69505   1.070  17.510  19.455 -0.1656  0.0171 -0.2327
26515W        W69506  23.756   9.756   8.645  0.1530 -0.0553 -0.2998
26516W        W69507  11.246  27.727   8.260  0.1270 -0.1878 -0.2696
26517W        W69508  17.775  13.617  25.858  0.5256 -0.3119  0.0835
26518W        W69509  22.587  18.939   8.311 -0.1757  0.0310  0.1683
26519W        W69510  22.772  25.321   8.692 -0.0726 -0.2683  0.0389
26520W        W69511  26.828  29.396  25.486 -0.1759 -0.1949  0.1373
26521W        W69512  22.701  14.119  19.951 -0.0932  0.1754  0.2127
26522W        W69513  31.172  27.014   8.491 -0.2067  0.0150  0.1224
26523W        W69514  10.529  21.602   6.515 -0.0355  0.1283  0.2265
26524W        W69515   7.905  23.023   7.264  0.0373  0.1673  0.0307
26525W        W69516  27.443  30.195   2.045 -0.2345  0.0673 -0.1154
26526W        W69517   4.092   4.852   7.322  0.0573  0.1346  0.0247
26527W        W69518  19.172  15.174  29.018  0.1290 -0.2847 -0.0587
26528W        W69519   4.475  18.996   1.621  0.2224  0.2728 -0.0150
26529W        W69520  23.711  29.684   1.718  0.0965 -0.2295  0.0578
26530W        W69521  17.723  22.140   5.088  0.3135 -0.0376 -0.2061
26531W        W69522  23.667  26.590  15.755 -0.2037 -0.0908  0.2370
26532W        W69523  22.405  17.005  21.620 -0.1495  0.1521 -0.2384
26533W        W69524   8.440  25.649   3.131 -0.0099  0.1842 -0.0389
26534W        W69525  30.035  28.086   0.669 -0.1225 -0.0140 -0.2087
26535W        W69526  20.493  28.956   6.265  0.0517  0.1320  0.0130
26536W        W69527  15.657   9.542   4.029  0.1600 -0.3945 -0.0880
26537W        W69528  22.058  12.339  24.586 -0.2767  0.2954  0.0212
26538W        W69529  26.236  30.686  24.321 -0.0595  0.1530  0.2460
26539W        W69530  21.689  28.316   3.901 -0.0764  0.0192  0.0112
26540W        W69531  31.532   1.263   0.679  0.1783  0.0241  0.1348
26541W        W69532  16.110  20.361   3.565 -0.1059 -0.1895  0.0499
26542W        W69533   6.116  28.026   9.108 -0.5339  0.0567 -0.4008
26543W        W69534   4.729  16.932   4.882 -0.0063  0.3149  0.3156
26544W        W69535   2.684  16.683   7.268  0.2804 -0.2935 -0.0031
26545W        W69536  14.289   4.576   5.263 -0.2947 -0.2114  0.0734
26546W        W69537   8.919   7.246   6.207  0.0694 -0.0601  0.1802
26547W        W69538  31.758   8.200  25.599  0.3481 -0.0175  0.0490
26548W        W69539  26.465  18.190   9.804  0.0397 -0.2870  0.0449
26549W        W69540  16.296  28.155  14.411  0.2908  0.1508  0.4591
26550W        W69541   4.878   0.767   2.955 -0.0232 -0.5545 -0.0522
26551W        W69542  14.792  33.761  29.167  0.1809  0.1625  0.0631
26552W        W69543  19.924   9.514   3.432 -0.1390  0.0183 -0.1010
26553W        W69544  28.954  19.798   0.071 -0.0422  0.0148 -0.2255
26554W        W69545  30.605  10.778  24.046  0.1625  0.0975  0.1171
26555W        W69546   5.021  14.792   8.833 -0.0531 -0.3189  0.0528
26556W        W69547  29.109  17.107   3.442  0.1986 -0.0595  0.2261
26557W        W69548  13.842  27.615  25.326  0.0651  0.0107  0.1651
26558W        W69549  19.705  19.919   2.348 -0.0489 -0.1796  0.2396
26559W        W69550  26.842  24.243   5.873 -0.1808 -0.2515  0.0279
26560W        W69551   2.342  27.465   6.711  0.1380 -0.0568  0.0579
26561W        W69552  10.304  25.641   8.142  0.0169 -0.1062  0.2708
26562W        W69553   8.729  12.566  28.249  0.1868  0.2010  0.2205
26563W        W69554  23.072  33.767   8.096  0.2806 -0.0289  0.0414
26564W        W69555  28.372  20.817   8.482  0.0718  0.1317  0.0896
26565W        W69556  17.132  13.096   4.012 -0.0751 -0.0432  0.0234
26566W        W69557  28.221  23.358  28.226  0.1429  0.2618  0.2936
26567W        W69558  25.717  15.493  25.891 -0.1725  0.1345  0.2167
26568W        W69559  24.949  22.895   3.642  0.0159  0.1710  0.0859
26569W        W69560  28.872  28.329  18.794  0.0645 -0.1990 -0.3607
26570W        W69561  19.012  10.960   7.150  0.1911  0.0022 -0.2809
26571W        W69562  15.464  28.009   9.435 -0.2032  0.1556 -0.3472
26572W        W69563  12.963  20.899  19.905  0.1390 -0.1437  0.0617
26573W        W69564   4.924  22.695   7.127  0.0522  0.3260  0.0248
26574W        W69565  16.633  13.667   3.145 -0.3057  0.1639  0.3537
26575W        W69566  17.935  23.156   0.516 -0.2282 -0.1817  0.0976
26576W        W69567   0.279  16.064   9.130 -0.0037  0.1199  0.2683
26577W        W69568  19.858  24.108   5.285 -0.1204 -0.0099  0.0545
26578W        W69569  34.761  32.609  24.022 -0.1422  0.1322 -0.0470
26579W        W69570  12.069  21.270   1.502  0.0971  0.2361 -0.3193
26580W        W69571  23.043  21.907   1.988 -0.0510 -0.3088 -0.4269
26581W        W69572   2.035  18.308  26.208 -0.0818 -0.1162  0.0589
26582W        W69573  31.234  15.632   1.303 -0.0175 -0.0436  0.1025
26583W        W69574  14.417  11.568   8.460  0.1653  0.1873 -0.0486
26584W        W69575   7.626  33.881  27.777  0.0386  0.2687 -0.3315
26585W        W69576  31.908  26.211   5.053 -0.1716 -0.3266 -0.0908
26586W        W69577  32.246  24.766   2.139 -0.1778  0.0768 -0.0751
26587W        W69578  26.411  26.143   3.006 -0.0127 -0.1122 -0.4442
26588W        W69579  23.880  21.281   0.213 -0.1808  0.2687  0.0644
26589W        W69580  31.992  18.631   9.755 -0.0273  0.1644  0.0541
26590W        W69581   3.649  27.627  28.054 -0.0927 -0.1362 -0.0449
26591W        W69582   2.816  34.792  23.233 -0.1665 -0.1034 -0.0533
26592W        W69583  22.251  29.519  21.584 -0.0129  0.3166  0.0763
26593W        W69584  27.663  19.390   1.094 -0.1697 -0.0709  0.0090
26594W        W69585  16.775  16.906   8.050 -0.1263  0.2943 -0.0790
26595W        W69586   3.963  23.632   0.204 -0.1510  0.0075  0.1329
26596W        W69587  33.061  21.344   9.872  0.1916  0.1289  0.0571
26597W        W69588   9.030  28.758   6.258 -0.0952 -0.1572  0.0741
26598W        W69589  19.810  18.605  23.659  0.3916  0.0131  0.2009
26599W        W69590  28.650  32.105   3.908  0.4310  0.3492  0.0109
26600W        W69591  11.418   0.129   9.999  0.0428  0.1302 -0.3946
26601W        W69592  16.616  23.984  25.010  0.2180  0.0513 -0.3851
26602W        W69593  33.514  25.756   6.835 -0.5023  0.0376  0.0609
26603W        W69594  19.161  17.077   7.962 -0.1438  0.0209  0.1220
26604W        W69595  33.119  27.868   2.588  0.0645  0.0525 -0.3227
26605W        W69596  21.534  10.508   2.818  0.1204 -0.0474 -0.2542
26606W        W69597   4.334   1.373   0.707 -0.1291  0.0476 -0.0209
26607W        W69598  24.241  17.987  27.177  0.0748  0.1046  0.2991
26608W        W69599   2.867  31.210  28.971  0.1491 -0.0539  0.0049
26609W        W69600  22.376  15.916   3.375 -0.1912  0.0364  0.1386
26610W        W69601  13.425  20.647   1.348  0.0587  0.2197  0.0710
26611W        W69602  14.223  19.564   0.608  0.0151 -0.1388  0.1147
26612W        W69603   4.030  15.160  22.845  0.1767  0.2418 -0.2298
26613W        W69604   2.176  24.943   1.345 -0.3226 -0.3717  0.1865
26614W        W69605   2.975  34.576  16.106 -0.1113  0.1442 -0.0940
26615W        W69606  28.583  18.541   8.552 -0.2844  0.2130 -0.0940
26616W        W69607  27.112   2.931   0.152  0.1442 -0.1577  0.2481
26617W        W69608  13.312   6.824   5.441 -0.0728  0.2181 -0.0496
26618W        W69609  31.669  30.614   0.346  0.0221 -0.0825  0.0924
26619W        W69610  34.555   5.330   6.646  0.1285  0.0772  0.0554
26620W        W69611   6.257  19.503  20.837  0.2786 -0.2450  0.2697
26621W        W69612   1.300  23.082   0.121  0.1971 -0.0681  0.0832
26622W        W69613  32.821   1.167   6.945  0.0123  0.2878 -0.1125
26623W        W69614   9.684  30.542   6.068 -0.1278 -0.3216 -0.0726
26624W        W69615  21.972  15.005  25.236  0.0148  0.2915 -0.0150
26625W        W69616  22.038  28.996  13.674 -0.1598  0.0134 -0.0814
26626W        W69617  22.307  20.585   6.617 -0.1052 -0.3505  0.0926
26627W        W69618   0.537  19.152   3.968 -0.1638 -0.1447 -0.0822
26628W        W69619  21.175   9.852   4.503  0.2156  0.3397 -0.1122
26629W        W69620  27.064  27.290   7.165  0.0088 -0.1156 -0.0367
26630W        W69621  14.493  23.048   4.205 -0.1364 -0.4076  0.1402
26631W        W69622   9.806  21.256   6.956 -0.2173 -0.1899  0.0699
26632W        W69623  23.190  16.485  27.553 -0.0769 -0.1387  0.2102
26633W        W69624  33.190  28.991   6.216 -0.1410 -0.2792 -0.0802
26634W        W69625   9.632  23.135   7.078 -0.2405  0.1567  0.1741
26635W        W69626  30.950  22.540   9.006  0.1198 -0.0519  0.0082
26636W        W69627   3.268  11.669   7.129  0.0933 -0.2270 -0.1373
26637W        W69628  24.836   0.437   4.875  0.0726 -0.3141  0.4207
26638W        W69629  17.337  22.374   2.767  0.2618  0.4125 -0.0557
26639W        W69630  31.536  31.801  26.840  0.0126 -0.3245 -0.3632
26640W        W69631  20.953  12.428   0.658  0.1022  0.1365 -0.0010
26641W        W69632  31.823  34.505   7.665  0.1113  0.2270  0.0005
26642W        W69633  23.031   9.991   6.155 -0.1140  0.1025  0.1243
26643W        W69634  27.377  18.634   1.049  0.2554 -0.2217 -0.2586
26644W        W69635  20.074  21.832  15.807  0.0189 -0.1147  0.1920
26645W        W69636  16.120  26.004   3.339 -0.2195 -0.0422  0.0280
26646W        W69637  30.160  19.127   9.965 -0.1789 -0.2657 -0.0349
26647W        W69638  22.135   6.809   0.549 -0.0485 -0.0448 -0.2490
26648W        W69639  25.888  32.473  14.890 -0.0705  0.1851  0.0578
26649W        W69640  29.966  26.066   2.902 -0.1528  0.0967 -0.2162
26650W        W69641  32.247  11.743   6.365  0.1256  0.2258 -0.1778
26651W        W69642  22.223   4.625   0.350  0.2773  0.1157 -0.0641
26652W        W69643  16.558  23.126  26.623  0.0143  0.3303  0.0477
26653W        W69644  33.602  23.171  22.838  0.0123  0.0668  0.0780
26654W        W69645  19.404  15.599  14.786 -0.3512  0.0692 -0.1528
26655W        W69646  31.135  17.241   6.994  0.2075  0.4512  0.0154
26656W        W69647   9.566  19.777   3.152  0.2009  0.0996  0.0543
26657W        W69648  26.900  14.160   6.307 -0.0568  0.0268 -0.0212
26658W        W69649  22.794  31.467   4.473  0.2912  0.2148  0.3008
26659W        W69650  25.769  29.687   8.716  0.1233 -0.0865 -0.1930
26660W        W69651  33.771  26.515  17.324 -0.0887 -0.0777  0.0617
26661W        W69652  17.253  19.944   7.549  0.1408 -0.0177 -0.1487
26662W        W69653  12.198  14.736   6.382  0.1725 -0.1591 -0.1074
26663W        W69654  33.448   8.205   7.836  0.0571  0.1700  0.2471
26664W        W69655  34.022  27.299  13.683  0.2331 -0.1360 -0.0603
26665W        W69656  18.150  16.089  28.646  0.0118 -0.2589  0.3435
26666W        W69657   7.062   5.786  24.787  0.1425 -0.1855  0.0103
26667W        W69658  18.882  27.914  22.267  0.1514 -0.0830 -0.0920
26668W        W69659  14.926  28.442  25.391  0.3555  0.0840  0.0159
26669W        W69660   2.123  21.325   9.663 -0.0475 -0.0263  0.0079
26670W        W69661  29.201  19.511   8.787  0.1999 -0.0144 -0.0107
26671W        W69662  18.585  26.812   3.853  0.1649 -0.2922  0.0633
26672W        W69663  20.439  19.472  12.994 -0.0665 -0.0459  0.0899
26673W        W69664  12.690  22.906   2.667 -0.1052  0.0217  0.1660
26674W        W69665  28.694  13.619  27.909  0.0216 -0.0021 -0.0779
26675W        W69666  10.987  17.861   1.090  0.0849 -0.3389 -0.0143
26676W        W69667  26.110  18.775   8.427  0.0848 -0.1150 -0.0823
26677W        W69668  13.380  11.473   0.241 -0.0888 -0.3160 -0.2067
26678W        W69669   6.302  26.042   9.494  0.1162  0.1990 -0.1822
26679W        W69670  27.047   5.507   3.087 -0.2278 -0.1974 -0.1819
26680W        W69671   7.598  12.948  11.404 -0.1794  0.0057  0.0223
26681W        W69672  30.818  18.270   6.358 -0.1051  0.2972 -0.1948
26682W        W69673  27.973  27.848   2.541  0.0240  0.1467 -0.0314
26683W        W69674  15.846  16.619  23.716 -0.0447  0.1705 -0.0039
26684W        W69675   6.419  28.290   1.584  0.0578  0.0432 -0.2720
26685W        W69676  18.354  23.055   0.134 -0.0104  0.2597  0.0721
26686W        W69677  14.633   1.214   5.847  0.0846 -0.0339  0.2149
26687W        W69678  29.930  25.332   5.709  0.2364  0.0008 -0.0279
26688W        W69679  32.997  10.749   8.858  0.0448  0.1803 -0.0985
26689W        W69680   0.792  33.119   0.127  0.0205  0.1429  0.0327
26690W        W69681  31.132   6.779   9.525 -0.1109 -0.0108  0.0512
26691W        W69682  12.061  10.819   2.467  0.0803 -0.0823  0.0154
26692W        W69683  25.992  27.547   5.474 -0.0250  0.1541  0.2706
26693W        W69684  26.996  27.851  20.139 -0.0847 -0.1835  0.0928
26694W        W69685   3.278  17.315   2.880 -0.4175  0.0552  0.0472
26695W        W69686   7.332  20.014   6.194  0.0197 -0.0448  0.0777
26696W        W69687  19.732  21.897   4.079  0.2665 -0.3836 -0.1355
26697W        W69688  31.564  19.138   5.787  0.2928 -0.0992 -0.0096
26698W        W69689   7.147  20.723   9.255 -0.0392  0.0300 -0.1289
26699W        W69690  14.423  32.718  16.841  0.4199 -0.2316 -0.0407
26700W        W69691  26.947  16.793   4.340  0.2383  0.0629 -0.3137
26701W        W69692  32.448  29.375  19.754  0.0491 -0.0075  0.0934
26702W        W69693  19.231  17.194  27.246 -0.0033  0.3540 -0.1787
26703W        W69694  30.140  16.937   5.971 -0.0188 -0.0070 -0.1055
26704W        W69695  21.876  22.852  17.912  0.0528 -0.0134 -0.1561
26705W        W69696  24.754   0.738   8.174  0.1039 -0.1829  0.1236
26706W        W69697  19.156  17.816   6.940  0.0874 -0.1243  0.0394
26707W        W69698  27.441  24.930   7.544  0.2152  0.2053 -0.2552
26708W        W69699  18.491  19.528   5.244 -0.1685  0.0770  0.1809
26709W        W69700  13.556  17.760  26.240 -0.1740  0.2349 -0.0916
26710W        W69701  17.298  34.420   2.764 -0.1465  0.0779  0.2722
26711W        W69702   3.067   9.964  11.137 -0.3726 -0.0446 -0.1559
26712W        W69703  17.745   0.116  10.053 -0.0980 -0.0378  0.1989
26713W        W69704  25.969  25.999   5.707  0.0817 -0.1867  0.0227
26714W        W69705   5.256  18.176   9.966  0.1308 -0.3049 -0.0048
26715W        W69706  24.846   6.865  28.244  0.2583 -0.3805 -0.0442
26716W        W69707  23.772  15.151   0.882 -0.3223  0.2841  0.1931
26717W        W69708  18.753   2.583  24.193 -0.2523  0.1105 -0.0432
26718W        W69709   8.390   9.663   9.417 -0.0000  0.3034  0.0115
26719W        W69710   4.458   1.974  25.005 -0.0617 -0.0120 -0.0921
26720W        W69711  18.268   1.857   5.065  0.0081 -0.1288 -0.0289
26721W        W69712  17.562  19.744  26.675  0.1116  0.0428 -0.2731
26722W        W69713  23.248  26.700   8.581 -0.1062 -0.0712  0.1847
26723W        W69714  22.230  27.359   8.098  0.1217  0.3560 -0.1153
26724W        W69715  21.175  26.584  27.730 -0.2364  0.0341  0.1316
26725W        W69716   0.187  12.715   6.715 -0.0155  0.3612  0.1031
26726W        W69717   9.871   8.085   6.714  0.3737  0.0512  0.3013
26727W        W69718  23.759   4.028  21.444 -0.0051  0.1940  0.2783
26728W        W69719  29.861   4.807   7.771  0.0115 -0.2041  0.0870
26729W        W69720  28.017  18.514   8.361 -0.1283  0.2136  0.2188
26730W        W69721   8.679  24.949   2.544 -0.1740  0.3214 -0.3823
26731W        W69722  16.277   4.993  24.712  0.0608 -0.0181  0.2736
26732W        W69723  33.957  24.307   1.503  0.0583  0.2912 -0.1977
26733W        W69724  33.148  22.170   3.530 -0.0154  0.2804 -0.2044
26734W        W69725  21.599  20.636   4.245 -0.1634 -0.3589 -0.1167
26735W        W69726  15.852  25.675  26.602 -0.1441  0.2256 -0.0306
26736W        W69727  27.588  24.859   9.051 -0.0159 -0.1506  0.3024
26737W        W69728  23.339  13.874   9.728 -0.1891  0.0786  0.1212
26738W        W69729  16.374  22.029   9.667  0.0833 -0.2528 -0.2127
26739W        W69730  29.426  18.374   1.038 -0.1419 -0.3023  0.0798
26740W        W69731  18.843  29.154   9.189  0.0903  0.0329  0.1063
26741W        W69732  23.349  19.679   4.849  0.4588 -0.4041 -0.1879
26742W        W69733  22.341  29.535   7.132 -0.2027  0.3252  0.1152
26743W        W69734   3.089   2.167   9.477  0.2699  0.0927 -0.1095
26744W        W69735  23.292  13.099  18.749  0.1028  0.2316 -0.2561
26745W        W69736  31.812  22.918   6.893  0.0078 -0.1574 -0.0013
26746W        W69737  23.029  32.755   3.093 -0.1052 -0.0815 -0.2971
26747W        W69738  13.025  15.207   2.736  0.0605  0.3576  0.2890
26748W        W69739   0.922  29.976  19.571 -0.3565 -0.2856 -0.1558
26749W        W69740  14.629  18.380  26.225  0.0014 -0.1852  0.2551
26750W        W69741  23.560  31.358   3.767 -0.0653 -0.0473  0.0496
26751W        W69742  10.506  10.430   9.021  0.0711  0.1991  0.2632
26752W        W69743  31.348  22.803   1.845  0.2975 -0.1856  0.1581
26753W        W69744  16.090  29.327   7.755  0.3348  0.0208 -0.1785
26754W        W69745  23.257  28.711   1.222 -0.0201  0.0979  0.0502
26755W        W69746  27.919  32.530  24.262  0.1129 -0.0983  0.0529
26756W        W69747  19.471  23.275   4.400  0.1484 -0.0697  0.3026
26757W        W69748  26.053  27.787  25.064  0.0890  0.2407 -0.4866
26758W        W69749  29.469   2.759   6.742  0.1301 -0.0072 -0.1386
26759W        W69750   0.851  30.933   2.335 -0.1318 -0.1840  0.0592
26760W        W69751  22.402  16.902   8.259 -0.0920 -0.0910  0.0545
26761W        W69752  29.181  19.248  29.172  0.0127 -0.1090  0.0876
26762W        W69753   9.134  23.859   7.910  0.0501 -0.1922 -0.1316
26763W        W69754  31.294  20.809   8.020 -0.3431 -0.0801  0.1581
26764W        W69755  22.793  27.291   7.346  0.0905  0.0404  0.3067
26765W        W69756   4.925  27.555   2.317 -0.1017 -0.0148  0.0279
26766W        W69757  24.907  19.134   8.568  0.0065  0.4014 -0.1602
26767W        W69758  22.446   7.127   7.984  0.3450  0.1683  0.2300
26768W        W69759  29.089  18.394   2.323  0.0949  0.0190 -0.5247
26769W        W69760  26.838  16.256   6.175  0.0281 -0.1238 -0.0605
26770W        W69761  17.215  23.023   7.423  0.1836 -0.0415 -0.3191
26771W        W69762  20.168  26.701   5.265 -0.1862 -0.2451 -0.3007
26772W        W69763  17.063  15.315   9.117 -0.2531 -0.1905  0.4985
26773W        W69764  27.030  24.866   3.390  0.1635  0.1502 -0.0299
26774W        W69765   5.503  27.163   2.346 -0.0748  0.0459 -0.0020
26775W        W69766  26.230  16.462   9.647 -0.0381  0.1293 -0.0422
26776W        W69767  28.765   7.028  28.592  0.1768 -0.1959  0.1192
26777W        W69768  24.711   1.967   6.560 -0.0702 -0.1792  0.0514
26778W        W69769  21.449  22.105   2.457  0.1825 -0.0723  0.0032
26779W        W69770  13.100  25.692   6.675 -0.0064  0.0326 -0.2118
26780W        W69771  19.773  25.151  22.662 -0.1471  0.0949 -0.0529
26781W        W69772  25.003  14.006   4.239 -0.3108 -0.3382  0.2498
26782W        W69773  33.494  16.071   1.170  0.0325 -0.4108 -0.0866
26783W        W69774  27.968  28.650  13.362 -0.1686 -0.0568 -0.0211
26784W        W69775  17.690  23.175  17.006 -0.1255  0.2516  0.1829
26785W        W69776  22.399  19.723   6.684 -0.2362  0.4199  0.0778
26786W        W69777  15.766  24.515  26.044  0.0156 -0.2652 -0.0562
26787W        W69778   7.013   9.221  28.691 -0.0630 -0.1410  0.0684
26788W        W69779  24.967  25.281  25.381 -0.1018  0.1601 -0.1488
26789W        W69780  26.689  14.786   4.302 -0.3682  0.0688  0.0267
26790W        W69781  14.789  14.001   1.531  0.0213 -0.3035 -0.0178
26791W        W69782  22.926  19.602   7.189  0.0983  0.0747 -0.3437
26792W        W69783  24.839  18.936   4.658 -0.0330  0.0103 -0.3787
26793W        W69784  18.704  31.181   4.344  0.0675  0.0705  0.1504
26794W        W69785  30.618  20.916   4.240  0.0750  0.2540 -0.0840
26795W        W69786   4.805  15.670  10.563 -0.1026  0.1539 -0.1282
26796W        W69787  22.820  13.972   3.578  0.0949 -0.2662 -0.2033
26797W        W69788  16.029  32.092   5.391  0.2079  0.1513 -0.3530
26798W        W69789  26.755  28.696   2.743  0.3809 -0.0806 -0.3281
26799W        W69790  16.324   5.956   5.576 -0.0157 -0.2166 -0.2530
26800W        W69791  28.217  11.200   9.902  0.0125 -0.1116 -0.0667
26801W        W69792  27.521  17.962  16.024 -0.0925 -0.0210  0.3755
26802W        W69793  21.485  29.355   8.874  0.0452  0.0772  0.1929
26803W        W69794  31.241  23.662  14.931 -0.0344  0.0156 -0.2179
26804W        W69795  33.830  13.986  27.302  0.0285  0.0914 -0.0144
26805W        W69796  31.503  20.467  27.711 -0.1370  0.3315 -0.1668
26806W        W69797  12.649  27.621  16.666  0.1321 -0.0557 -0.0830
26807W        W69798  25.681  14.894   2.799 -0.0649 -0.0205 -0.2014
26808W        W69799  13.038  26.566   8.296 -0.0631 -0.3023  0.2292
26809W        W69800  15.444  19.583  23.102 -0.2639  0.0605 -0.1650
26810W        W69801  29.538  16.221  27.862 -0.1114 -0.3368  0.3636
26811W        W69802   0.097  27.639   9.504  0.0694 -0.1160 -0.3525
26812W        W69803  32.510  34.070   6.352 -0.0270  0.1444  0.0147
26813W        W69804  26.070  19.041  25.307 -0.0230 -0.1340 -0.1899
26814W        W69805  31.895  26.782   8.032 -0.1080 -0.0240  0.0976
26815W        W69806   3.595  15.403   9.916  0.0135 -0.0093 -0.2997
26816W        W69807  33.078  14.167   6.112  0.0341  0.0155 -0.3244
26817W        W69808  27.939  33.970  25.519  0.3945  0.0729 -0.0132
26818W        W69809  25.527  25.629  18.811 -0.0081  0.1181 -0.1613
26819W        W69810   6.872  23.449   4.886  0.1150 -0.2327 -0.0975
26820W        W69811  27.735  25.993  23.726  0.1092  0.1207  0.2133
26821W        W69812  27.808   3.742   2.178 -0.0453  0.1642 -0.1388
26822W        W69813  19.449   8.196   6.827 -0.1248  0.1244 -0.0654
26823W        W69814  29.633  22.444   7.555  0.1448  0.0381 -0.0591
26824W        W69815  26.342  24.923  25.772  0.0956 -0.0154 -0.1317
26825W        W69816  23.030  24.432   3.916  0.1158  0.1685 -0.2173
26826W        W69817  34.086   2.208   4.892 -0.0010  0.0964  0.3072
26827W        W69818  31.247  11.032  28.413 -0.0237 -0.1455  0.0442
26828W        W69819  10.023   9.365   5.004  0.1067  0.1494 -0.1037
26829W        W69820  11.672   2.254  24.369  0.0961 -0.1407  0.0782
26830W        W69821   2.884  33.450   5.438  0.2407 -0.0493 -0.1839
26831W        W69822  19.709  15.597   1.733  0.3149  0.2915 -0.2079
26832W        W69823  18.460  23.440   5.020 -0.1687 -0.1219 -0.1741
26833W        W69824  23.468  23.952   1.807 -0.0995  0.0245 -0.2604
26834W        W69825   3.473  12.893   5.047 -0.0354  0.0496  0.0194
26835W        W69826  31.685  23.767   4.962 -0.0283  0.0760  0.1081
26836W        W69827  17.681  14.153   5.553  0.0459  0.2328  0.3270
26837W        W69828  14.285  22.177   2.510  0.1552 -0.0208 -0.0243
26838W        W69829   1.647  28.793   0.832 -0.2519  0.5200 -0.0547
26839W        W69830   4.261  17.617   6.476 -0.1610 -0.0139  0.1826
26840W        W69831  17.937  24.663   7.705  0.0062 -0.1037  0.0101
26841W        W69832  32.465   4.417   9.943  0.0111  0.2510 -0.2201
26842W        W69833  11.814  33.064   1.290 -0.2827  0.1088 -0.1404
26843W        W69834  32.128  20.164  26.411 -0.0003 -0.1625 -0.0953
26844W        W69835  27.575  20.934  24.818  0.0340 -0.2711 -0.0432
26845W        W69836  31.881  22.614  20.854  0.5602 -0.0392  0.0231
26846W        W69837  32.280  33.703   4.757 -0.3301  0.2451  0.1061
26847W        W69838  33.711  15.116   5.419  0.0601  0.2938 -0.0003
26848W        W69839  17.718  30.282   6.807  0.0498 -0.0455 -0.0343
26849W        W69840  32.948  32.125   2.520  0.0083 -0.1240  0.0396
26850W        W69841  11.808   2.378   9.480 -0.0195 -0.1814  0.1320
26851W        W69842   2.283  23.452  27.483 -0.0402 -0.0007 -0.0084
26852W        W69843  27.054   4.282  24.283  0.0725 -0.1520 -0.0130
26853W        W69844  15.257  31.643  23.709  0.1518  0.0652  0.2227
26854W        W69845  23.321  16.798   3.935 -0.0603 -0.2315 -0.0549
26855W        W69846  22.557   2.304   6.684 -0.0245 -0.2298  0.1395
26856W        W69847   2.015  24.533  22.910  0.0725 -0.1427  0.1981
26857W        W69848  34.680   9.174  10.594  0.1342  0.4574 -0.0998
26858W        W69849  15.260   0.086   1.145  0.1250  0.3749  0.1671
26859W        W69850  23.485   0.180   4.696 -0.2173 -0.0426 -0.1500
26860W        W69851  24.857  28.324   4.251 -0.1334 -0.0880 -0.0598
26861W        W69852  31.297  18.938  17.453  0.0300  0.0622  0.0054
26862W        W69853  33.487  29.734  27.599 -0.3827  0.3973 -0.0649
26863W        W69854  22.377   6.032   0.712 -0.2949 -0.2656 -0.0953
26864W        W69855  20.075   7.574   7.578 -0.3568 -0.3360 -0.1982
26865W        W69856  25.996  26.921   7.082  0.2529  0.2397 -0.3325
26866W        W69857  34.769  34.757  19.309 -0.1886 -0.1785  0.0345
26867W        W69858  33.997   8.296  18.088  0.3491  0.2770 -0.2863
26868W        W69859  22.496   6.305   8.509 -0.3858  0.2645  0.2226
26869W        W69860  11.932  20.269   7.886 -0.1206  0.3710 -0.1126
26870W        W69861  33.890  21.833   2.470  0.0370 -0.3302 -0.1344
26871W        W69862   1.353  21.528  25.591  0.1302  0.2298  0.1391
26872W        W69863   2.573  30.127  19.005 -0.0639 -0.1805 -0.0397
26873W        W69864  10.395  28.009  19.945 -0.1339 -0.2935  0.2995
26874W        W69865  14.285   4.504  26.355 -0.1529  0.0371 -0.0086
26875W        W69866   0.585  22.035   8.970  0.0125  0.2702 -0.0533
26876W        W69867   6.110  30.536   6.109 -0.2992 -0.0219 -0.2236
26877W        W69868  34.644  16.384   8.839  0.0876 -0.1303 -0.1010
26878W        W69869  26.424  18.378   9.277 -0.1892  0.2371  0.2021
26879W        W69870  17.156   7.545  16.898  0.3558  0.1853 -0.0420
26880W        W69871  33.423  23.208  18.331 -0.0933 -0.0748  0.2168
26881W        W69872  28.944  10.957   5.366 -0.1097  0.1047 -0.4213
26882W        W69873  16.565  29.288   8.001  0.1751 -0.0414 -0.0195
26883W        W69874  34.654  13.130   8.468 -0.2254 -0.0005  0.2399
26884W        W69875  21.833  28.776   4.336  0.0658 -0.0193 -0.0019
26885W        W69876  27.142  12.680   2.059  0.2603  0.1562 -0.1836
26886W        W69877  21.304  30.193   2.369 -0.3160 -0.1172  0.2694
26887W        W69878  20.439  33.735  16.402 -0.0524  0.2642  0.2202
26888W        W69879   7.777  13.243   3.139  0.0103  0.3805 -0.0498
26889W        W69880  18.726  23.714  27.554  0.0029  0.3307 -0.1177
26890W        W69881   0.810  29.737  23.670 -0.0759  0.0326  0.0337
26891W        W69882  15.812  26.088   0.500 -0.0148 -0.0838  0.0649
26892W        W69883   0.300   5.905   5.622 -0.1412  0.1909 -0.1831
26893W        W69884  29.733  30.336  22.741 -0.0949  0.1524 -0.1978
26894W        W69885   3.963   8.714  29.168 -0.1409  0.1416 -0.0720
26895W        W69886   5.422   8.106  22.281 -0.2056  0.0460  0.2044
26896W        W69887   6.120  27.666   5.928 -0.0561 -0.1201  0.0957
26897W        W69888  21.673   9.507  25.960  0.1122  0.2833  0.0039
26898W        W69889   6.804  25.386  26.948 -0.1104 -0.2560  0.0074
26899W        W69890   2.976  22.393   9.238 -0.0693 -0.4572  0.2236
26900W        W69891  31.476  34.083  23.093  0.1585  0.2457  0.1483
26901W        W69892  17.535  27.687  29.111 -0.3056  0.0832  0.1499
26902W        W69893   6.343  17.726  25.619  0.1081 -0.0687  0.0081
26903W        W69894  31.531  15.730  23.049  0.0450 -0.0042 -0.0524
26904W        W69895  24.342   4.824  19.385 -0.1697  0.0686 -0.2481
26905W        W69896  27.555  25.909   7.446  0.3117  0.0017 -0.1860
26906W        W69897   0.208   0.120  19.811  0.1812 -0.0895  0.2582
26907W        W69898  21.480  29.781   0.321  0.0371 -0.1614 -0.0580
26908W        W69899   6.165   3.576   0.898 -0.2543 -0.0016  0.1991
26909W        W69900  26.011  16.422  23.122 -0.2133 -0.1479  0.3691
26910W        W69901  16.178  23.322  23.925  0.3368 -0.3136  0.0907
26911W        W69902  25.577  20.580  27.418 -0.0610  0.1720 -0.1120
26912W        W69903  26.818  14.717   7.330  0.0690 -0.2234  0.2267
26913W        W69904  17.779  27.877  24.850  0.2249  0.2387  0.0217
26914W        W69905  16.700  19.793   5.577 -0.0955  0.3296 -0.0846
26915W        W69906  29.192  30.464  15.111 -0.1963  0.1682  0.0048
26916W        W69907   3.717  11.499  22.997 -0.1549 -0.1212  0.1062
26917W        W69908  32.287  22.734   4.730  0.0264 -0.0318 -0.1074
26918W        W69909   2.568  20.982   2.792 -0.1587 -0.0932 -0.3066
26919W        W69910   9.298  24.077  23.340 -0.0877  0.0980  0.3490
26920W        W69911  23.348  10.285  26.478  0.0433 -0.2621  0.0823
26921W        W69912  10.451  22.587   4.159  0.3263 -0.0109  0.0145
26922W        W69913  19.296  15.062   6.792 -0.0676 -0.1997  0.2613
26923W        W69914  27.152  13.630  23.418 -0.0800  0.0426 -0.1288
26924W        W69915  23.089  18.294  20.616 -0.0749  0.1687  0.0706
26925W        W69916  29.445  17.770  19.251  0.0624 -0.2576 -0.0337
26926W        W69917  24.116  13.933   8.503  0.2529 -0.3467  0.1352
26927W        W69918  14.414  11.130  20.095  0.1956  0.1928  0.2235
26928W        W69919  13.840  28.026   8.371  0.0227  0.0714 -0.2479
26929W        W69920   3.162  28.010   3.903  0.0442  0.0333 -0.2022
26930W        W69921  11.528  24.681   3.500 -0.0776 -0.0834  0.1990
26931W        W69922  21.305  30.014  23.350 -0.0641  0.1543 -0.0281
26932W        W69923  18.783  24.100   4.281  0.0922  0.0560  0.0933
26933W        W69924  29.171  28.778   2.533 -0.0986  0.3878 -0.1141
26934W        W69925   1.269  17.137  10.936 -0.2036 -0.2263 -0.2302
26935W        W69926  20.204  17.180   1.854 -0.0948 -0.1299 -0.0747
26936W        W69927  18.232   0.341  10.032  0.1179 -0.0434  0.0201
26937W        W69928  22.211  31.311  24.470 -0.0302 -0.1535  0.0178
26938W        W69929  29.859   4.917  18.462  0.1892 -0.1622  0.1808
26939W        W69930  27.943  34.569  15.384 -0.0790  0.0749  0.1108
26940W        W69931  33.875  19.594   7.200  0.1275 -0.0821  0.0410
26941W        W69932  32.790  26.060  29.210 -0.2975  0.1220 -0.2639
26942W        W69933  22.406  20.419   7.120  0.2768  0.0048 -0.0875
26943W        W69934  19.682   1.923   4.515 -0.3219  0.1758 -0.2660
26944W        W69935   6.254  30.727  28.435  0.1118  0.0092 -0.2054
26945W        W69936   7.246  30.893   6.446 -0.0675 -0.0430 -0.2942
26946W        W69937  23.751  32.817  19.935  0.0060 -0.0304  0.0292
26947W        W69938  26.978   3.088   1.492 -0.0311  0.0785 -0.1122
26948W        W69939  16.743  27.616   0.628  0.1953  0.3567 -0.2698
26949W        W69940  18.850  13.231   5.305  0.1238 -0.1478 -0.1563
26950W        W69941  18.559   2.666   4.635 -0.0945  0.1597  0.2773
26951W        W69942  31.741  12.762   0.749  0.0984 -0.4976 -0.1165
26952W        W69943   4.887  24.496  27.780  0.1413 -0.1226 -0.1872
26953W        W69944  22.247   9.545   5.299 -0.1528  0.0332  0.1771
26954W        W69945  28.178   8.407   2.485 -0.2562  0.1971  0.1243
26955W        W69946  33.529  27.505   1.102 -0.1161 -0.0933  0.0686
26956W        W69947   2.310  27.614  26.598 -0.1950 -0.2355 -0.0105
26957W        W69948  22.890  32.785   3.811 -0.1881  0.2185 -0.0044
26958W        W69949   3.746   6.669   1.516 -0.1737  0.2504  0.0438
26959W        W69950  22.930  19.644   1.551 -0.1422 -0.0183 -0.1148
26960W        W69951  25.675  19.240  26.109 -0.4738 -0.1522  0.1561
26961W        W69952  22.789  23.881  27.727  0.1762 -0.3228 -0.0569
26962W        W69953  24.731  23.289   8.563  0.1825 -0.3191  0.0939
26963W        W69954   6.105  28.699  25.936  0.0083  0.1386  0.0985
26964W        W69955   2.166  20.916   4.075  0.3475 -0.1942  0.0767
26965W        W69956   7.913  30.317  23.548 -0.1143 -0.0900 -0.0754
26966W        W69957  14.460  22.873  23.417 -0.1043 -0.1043 -0.4055
26967W        W69958  27.219  22.776  25.009  0.0950  0.1006  0.0131
26968W        W69959  25.369  18.590   5.374 -0.1619  0.4582  0.0871
26969W        W69960   1.922   4.055  25.657 -0.1000 -0.1615  0.0881
26970W        W69961  29.496   6.091  17.937 -0.1559  0.2167  0.0277
26971W        W69962  31.265  15.801   6.326  0.0566 -0.1326 -0.0080
26972W        W69963  16.005  12.740  15.341 -0.1601 -0.0743 -0.6118
26973W        W69964  24.826  27.266   1.223  0.0732 -0.1509  0.1892
26974W        W69965  28.353  33.569  23.467  0.1301 -0.0085 -0.1922
26975W        W69966  20.227  10.947   9.429 -0.0035 -0.0557  0.3399
26976W        W69967  22.577  20.531  20.272  0.3629 -0.2563  0.1831
26977W        W69968  29.519  29.414  24.672  0.0747  0.0547 -0.0227
26978W        W69969   7.095  33.580  25.253 -0.0361  0.2918 -0.1550
26979W        W69970  15.674  22.530  19.454  0.2730  0.0241  0.4297
26980W        W69971  27.033  29.421  27.773  0.0170  0.0343  0.0289
26981W        W69972   7.073  15.348   0.229 -0.2015 -0.1199 -0.0059
26982W        W69973  31.944   0.250  27.393  0.2039  0.0623 -0.0901
26983W        W69974  21.657  23.298  16.393 -0.1853  0.0242  0.3139
26984W        W69975  10.479   8.928   3.238  0.1925  0.2522  0.2264
26985W        W69976   0.698   4.329  18.468  0.0084 -0.0718 -0.0665
26986W        W69977  16.077  11.797  10.121  0.0314 -0.0280 -0.0210
26987W        W69978  17.337  21.969   6.389  0.1411  0.2899 -0.0142
26988W        W69979  33.200  27.051   1.170 -0.2259  0.0942 -0.1601
26989W        W69980   0.623  20.603  22.416  0.2761 -0.1541  0.0186
26990W        W69981  30.143   6.929  28.424 -0.1519 -0.0589 -0.0101
26991W        W69982   1.842  29.338  26.979 -0.1895  0.1175  0.3308
26992W        W69983   2.172   1.513   1.095  0.3751 -0.1542  0.0488
26993W        W69984  15.223  20.727   6.100 -0.0228 -0.1695 -0.0129
26994W        W69985  32.447  17.155  25.350  0.1097 -0.2659 -0.0596
26995W        W69986  27.140  20.305  20.689 -0.1099  0.0466  0.0853
26996W        W69987  30.509  28.471  17.010 -0.2937 -0.1064 -0.0497
26997W        W69988  23.354  22.535   0.262 -0.1572  0.1003  0.2321
26998W        W69989  19.365  23.476  27.113  0.1027  0.0089  0.1757
26999W        W69990  21.881   9.185  18.483  0.1975 -0.2030  0.0645
27000W        W69991  26.282  25.894  24.796  0.1533 -0.3765 -0.1827
27001W        W69992  21.235  31.856   2.938  0.0099 -0.0215  0.0640
27002W        W69993   1.372   0.997   6.621 -0.0203 -0.1041 -0.3139
27003W        W69994  20.799  31.728  21.924  0.1421 -0.2356  0.0165
27004W        W69995  26.310   0.891  21.229 -0.0085 -0.0962  0.2142
27005W        W69996  14.994  33.146  25.400 -0.3023 -0.0941 -0.0603
27006W        W69997  10.393   1.982  21.411  0.3051  0.2625  0.0504
27007W        W69998  28.783  23.197  13.643 -0.0734 -0.0775  0.0256
27008W        W69999  18.062  34.003  23.410 -0.0778 -0.1382  0.0295
27009W        W70000  14.736  22.744  25.779  0.1758  0.2507  0.1772
27010W        W70001  19.714  27.504   1.407 -0.0992  0.0038 -0.0060
27011W        W70002  20.803  23.857   6.322  0.3018 -0.1694 -0.0334
27012W        W70003   2.619  20.987  10.283 -0.0247  0.1119  0.0261
27013W        W70004  28.063  24.229  25.563 -0.0581  0.1733 -0.2485
27014W        W70005  29.546   2.843  25.168  0.0465  0.2665 -0.0053
27015W        W70006  33.162   9.607  23.641  0.2439 -0.0423 -0.0815
27016W        W70007  20.778  33.681  18.970 -0.2258 -0.2008 -0.0145
27017W        W70008   4.381  18.841   8.393 -0.1347 -0.0194  0.0270
27018W        W70009  30.966  18.528   2.652  0.3455 -0.2400  0.1245
27019W        W70010  11.725  25.867  17.358  0.0647 -0.2333  0.1091
27020W        W70011  14.602  19.320  27.632  0.0093  0.0528  0.1470
27021W        W70012  23.872   7.357   8.521 -0.1389 -0.0582 -0.0023
27022W        W70013  25.666  20.227  25.959 -0.0258 -0.0905  0.3334
27023W        W70014  27.932  14.604   0.211  0.0107  0.0575  0.0263
27024W        W70015  16.229  23.040  27.916  0.1003 -0.0882 -0.1121
27025W        W70016  25.912  20.261   8.904 -0.1592 -0.0166  0.0226
27026W        W70017   7.200  20.709   0.095 -0.1473  0.0217  0.2207
27027W        W70018  32.897  14.809  28.800 -0.2346 -0.0762  0.1943
27028W        W70019  26.491  25.641   2.934 -0.0934  0.1647  0.1593
27029W        W70020  12.915  13.849  24.639 -0.1867 -0.0658  0.1390
27030W        W70021   9.289  26.752   8.834 -0.0780 -0.6003  0.1408
27031W        W70022   3.678   6.123   3.583  0.2450 -0.2259 -0.0231
27032W        W70023  15.071  17.828  27.160  0.2463 -0.0239  0.0879
27033W        W70024   9.254   4.235   5.886 -0.1190 -0.0182  0.0668
27034W        W70025  18.802   3.963  14.347 -0.0482  0.0252  0.0402
27035W        W70026  20.811  26.702   3.309  0.1438  0.1146 -0.1621
27036W        W70027   6.005  34.523   3.537 -0.0001 -0.1991  0.3115
27037W        W70028  13.344  31.107   2.167  0.1422  0.0692  0.1060
27038W        W70029   0.573  28.901  28.786 -0.1405 -0.0214  0.2622
27039W        W70030  33.057  26.183   9.911  0.4790  0.1087 -0.2070
27040W        W70031  29.580  13.972   7.095  0.1718  0.1761  0.0283
27041W        W70032  27.082  29.016  21.883  0.0111  0.3904  0.0118
27042W        W70033  24.916  31.694  24.945 -0.3427 -0.0385  0.1357
27043W        W70034  18.813  29.885  17.405 -0.2293  0.2176  0.0919
27044W        W70035  26.756   8.895  25.388  0.2554  0.1211 -0.0748
27045W        W70036  20.902  17.450   0.365 -0.1370  0.2321 -0.2141
27046W        W70037  15.861  16.306  25.458 -0.0005 -0.1651 -0.0678
27047W        W70038   1.412   6.451   9.156  0.0980  0.2297 -0.0899
27048W        W70039  12.397  28.795   1.394  0.0868 -0.0823 -0.1263
27049W        W70040   1.117  12.286   3.888 -0.0343 -0.3982 -0.0815
27050W        W70041  14.514  12.420  22.352  0.0454  0.0968 -0.0540
27051W        W70042  29.089  13.785   5.612 -0.1734  0.0760 -0.3222
27052W        W70043  13.798  28.623  24.312  0.1984  0.1531 -0.0131
27053W        W70044   1.065  30.429  26.568 -0.1050 -0.0826 -0.3396
27054W        W70045  10.427  20.000   6.382 -0.2696  0.0187 -0.1159
27055W        W70046  22.209  25.424   1.597 -0.3082  0.1285 -0.0679
27056W        W70047  25.569   5.472   5.624 -0.4443 -0.1373  0.2196
27057W        W70048  21.530  28.600  27.637  0.0343  0.0314 -0.2550
27058W        W70049   0.573  28.638  18.028 -0.2825 -0.1068  0.4299
27059W        W70050  17.508  12.457   9.364 -0.0614 -0.0483  0.2860
27060W        W70051  13.871  33.816  20.913 -0.3240 -0.3939  0.1831
27061W        W70052  34.218  30.039   1.053 -0.0614 -0.0215  0.3520
27062W        W70053  23.558  31.149   4.345  0.2296 -0.1051 -0.1762
27063W        W70054  30.752   0.341  22.805 -0.1129 -0.0957  0.2803
27064W        W70055   8.878  27.239   2.147 -0.1865  0.0453 -0.0684
27065W        W70056  33.474  20.666   9.801 -0.1338  0.2415 -0.3284
27066W        W70057  34.677  24.174   1.046  0.1573  0.1025  0.0469
27067W        W70058  32.457  22.197  14.512 -0.2161  0.0634  0.0736
27068W        W70059  31.475  34.296   9.132  0.1531 -0.5261 -0.1019
27069W        W70060  21.909  34.130  20.158 -0.2216  0.1799 -0.2135
27070W        W70061  28.103  23.122  28.677  0.0153  0.0846 -0.1392
27071W        W70062  29.622  23.789   6.050 -0.2250 -0.1678 -0.2785
27072W        W70063  22.807  22.150  22.154 -0.2099  0.1238  0.2771
27073W        W70064  24.727  19.837   4.463 -0.0324  0.2089 -0.1053
27074W        W70065  17.906  30.711  15.683 -0.0682  0.0217 -0.1691
27075W        W70066  24.504  24.997  22.300 -0.1379 -0.0698 -0.0402
27076W        W70067  21.432  30.104   4.680 -0.0791  0.0001 -0.2306
27077W        W70068  29.226  17.640   8.383 -0.1272  0.1071  0.2715
27078W        W70069  30.984   3.477  27.775 -0.0033 -0.2297 -0.1660
27079W        W70070  23.966  30.028  21.881 -0.0909 -0.1449 -0.1496
27080W        W70071  10.074  29.524   8.718  0.2401 -0.0473  0.5152
27081W        W70072  15.275  25.832  17.297 -0.2093 -0.2234 -0.1069
27082W        W70073  16.992   2.415  20.769  0.0502 -0.0048  0.0143
27083W        W70074   9.384  24.710   2.015 -0.0583  0.0162  0.1612
27084W        W70075  17.510   3.195  25.062  0.0606  0.0686 -0.1635
27085W        W70076  16.593  19.579  23.911 -0.1195  0.5627  0.2156
27086W        W70077  29.654  27.588   7.488  0.0344  0.0609 -0.0262
27087W        W70078   1.689  19.907  17.985 -0.1943  0.0406  0.0002
27088W        W70079  12.342   2.948   6.127  0.2639 -0.0459 -0.0346
27089W        W70080  34.320   3.976   2.289  0.4281  0.1669 -0.1167
27090W        W70081  29.709   7.937   5.251  0.0949  0.2732  0.1342
27091W        W70082   0.479  25.176   7.371 -0.0643  0.0856  0.5085
27092W        W70083  21.824   7.115   0.832 -0.2024  0.1652 -0.4468
27093W        W70084  21.345  27.809  27.363  0.0133 -0.1723  0.2261
27094W        W70085  29.858  19.461   6.550 -0.0506  0.1388 -0.2343
27095W        W70086  30.029  21.192  18.651  0.1257 -0.0193 -0.1856
27096W        W70087  19.181  19.488   9.150 -0.0264  0.0721 -0.0519
27097W        W70088  25.750  13.469   4.456  0.2345 -0.1855  0.1308
27098W        W70089  19.800  11.701  28.598 -0.2068 -0.2774  0.2055
27099W        W70090   0.025   3.495  29.215 -0.1926 -0.2955 -0.0718
27100W        W70091  24.605   2.006  27.026 -0.3306 -0.2173 -0.2273
27101W        W70092   5.072   1.467   5.030  0.2575  0.1894 -0.1201
27102W        W70093  21.438  17.822  16.832  0.0085  0.0923 -0.0041
27103W        W70094  25.252   9.233   9.122  0.0127  0.3031  0.0183
27104W        W70095  28.609  25.932  22.944 -0.0695 -0.0712  0.1631
27105W        W70096  17.531   7.139   3.986  0.0453 -0.1077  0.1375
27106W        W70097  27.978   8.991   0.580 -0.0988 -0.1610  0.1239
27107W        W70098  15.240  27.561   1.551 -0.0035 -0.3589  0.0638
27108W        W70099   4.344   2.513   0.655  0.3642  0.2283  0.1381
27109W        W70100  27.523  32.297  25.718  0.1608  0.0552  0.0491
27110W        W70101  23.241  20.383   3.717 -0.1311 -0.1669  0.0224
27111W        W70102  10.106  11.453   8.266 -0.1435 -0.0174 -0.0887
27112W        W70103  21.729  18.922  20.551 -0.3962  0.0742  0.1458
27113W        W70104  15.795  25.930  18.960  0.1843 -0.2262  0.1135
27114W        W70105  15.729  22.433   5.610 -0.0295 -0.0977  0.0573
27115W        W70106  27.542  24.491   4.033  0.1348 -0.1177  0.0489
27116W        W70107  15.407  22.547   0.286  0.1054 -0.1340 -0.1389
27117W        W70108  23.781   1.703  16.203  0.2318  0.2104  0.0510
27118W        W70109  25.271  24.983   5.087  0.2425 -0.1127 -0.0084
27119W        W70110  32.187  29.599   8.434  0.3550  0.2159 -0.0460
27120W        W70111  10.092  34.331   7.442 -0.3604 -0.0301 -0.0080
27121W        W70112  28.101  16.422  11.035  0.2534  0.0701 -0.0294
27122W        W70113  20.229  21.542   8.951  0.0141 -0.2202  0.2121
27123W        W70114   8.565  31.176   5.453  0.0625  0.0609 -0.1352
27124W        W70115  12.067  33.622   8.308 -0.1083 -0.2631 -0.2876
27125W        W70116  24.079  16.754   6.892 -0.1236 -0.1266  0.0931
27126W        W70117  11.788  25.276   8.060  0.0003 -0.1202  0.0670
27127W        W70118  31.800   0.594  25.816 -0.0246 -0.1419  0.2177
27128W        W70119  21.993  11.969  16.459  0.0058  0.1511  0.1754
27129W        W70120  33.079  28.211   8.279  0.0666  0.4635  0.0218
27130W        W70121  22.495  17.091   6.765  0.2525 -0.1346  0.0743
27131W        W70122   2.977  23.020   6.726 -0.1429  0.1504  0.0825
27132W        W70123  12.078  23.000  14.499 -0.1739 -0.2275  0.0841
27133W        W70124  32.060  33.178  17.795  0.3050 -0.0622  0.1127
27134W        W70125  22.947  15.047   8.590  0.2349 -0.0913  0.0423
27135W        W70126  20.231   9.611   1.268 -0.2503  0.2584 -0.0961
27136W        W70127  30.223  10.816   7.180 -0.0950  0.0444  0.2299
27137W        W70128  24.743   1.904   5.072 -0.1376 -0.1293 -0.0063
27138W        W70129  21.351  29.042   3.732  0.2794 -0.3836 -0.2116
27139W        W70130  14.637  24.126   1.984 -0.3135 -0.3654  0.0934
27140W        W70131  30.017  21.609   7.200  0.0930  0.2899 -0.0858
27141W        W70132  34.611   5.813   6.518 -0.1828  0.3693  0.1408
27142W        W70133  28.733  21.136  17.638  0.1346  0.0192 -0.1431
27143W        W70134  12.667   2.207   8.070  0.0978  0.0815 -0.0250
27144W        W70135   2.281  29.834   6.905  0.2658 -0.1619 -0.2624
27145W        W70136  22.607  14.775  21.236 -0.2237 -0.0238  0.1603
27146W        W70137  13.314  22.315  27.095 -0.1548 -0.1462  0.1630
27147W        W70138   0.115  34.517  27.868  0.1378  0.0780  0.0120
27148W        W70139  21.228   0.271   9.072  0.1907  0.2436  0.4208
27149W        W70140   1.269  15.717   8.606  0.0190  0.1021 -0.1813
27150W        W70141  28.600  33.065  19.980  0.0309  0.0778 -0.0788
27151W        W70142   5.453  17.478  28.039 -0.2602  0.0296  0.0022
27152W        W70143  17.847   1.243  26.314 -0.0398  0.2974 -0.0878
27153W        W70144  34.159  17.098   9.334 -0.1156 -0.0180  0.0538
27154W        W70145   6.147  24.074  22.353  0.1036  0.1303  0.1852
27155W        W70146   1.392   3.692  24.335  0.2237 -0.1432  0.3283
27156W        W70147   2.476  10.479   6.845 -0.0702 -0.2508 -0.1791
27157W        W70148  23.270  10.096   6.773  0.2681  0.1971  0.0657
27158W        W70149  16.511  24.119  22.009 -0.1588  0.0204 -0.0865
27159W        W70150  32.265   3.249   1.510  0.4988  0.0288  0.2021
27160W        W70151  23.424  34.380   3.126  0.4412 -0.0360 -0.0404
27161W        W70152   4.538  33.533  10.520 -0.1878  0.0888 -0.1500
27162W        W70153  26.303  22.750   4.077  0.3375  0.1071  0.2000
27163W        W70154  21.955  29.242   7.186 -0.1376  0.0418 -0.1595
27164W        W70155   9.465  28.477  27.830  0.0277  0.1852 -0.1363
27165W        W70156  19.269  18.296   3.461  0.2814 -0.1104  0.0288
27166W        W70157  20.791  30.242  22.581 -0.2535  0.1488 -0.0287
27167W        W70158  26.342  31.612  25.602  0.1046 -0.2526 -0.1319
27168W        W70159   8.188  28.468   6.390 -0.1324 -0.1902  0.0763
27169W        W70160   7.374  25.225  24.959 -0.1821  0.1002 -0.0501
27170W        W70161  13.236  28.148   4.316 -0.1238  0.1827 -0.1223
27171W        W70162  26.269  26.194   3.498  0.0832 -0.0359 -0.4081
27172W        W70163  29.870  22.944  18.459  0.0610 -0.0698  0.1875
27173W        W70164  25.213  21.548   0.438 -0.1534  0.0515  0.1179
27174W        W70165  19.874  15.100  23.273 -0.1994 -0.2029  0.1339
27175W        W70166  22.246  19.272  24.802 -0.0833  0.1989  0.1368
27176W        W70167  20.271  16.302  26.342  0.2182 -0.1830  0.0739
27177W        W70168  26.121  27.314  24.006 -0.1030 -0.1047  0.0643
27178W        W70169  21.142  32.244   3.525 -0.0390 -0.1054  0.1511
27179W        W70170   4.607  32.113  26.246  0.2598 -0.2173  0.1001
27180W        W70171  22.825  11.431   7.699  0.3396  0.0022 -0.0373
27181W        W70172   4.289  20.653  10.342 -0.0934 -0.3524  0.4021
27182W        W70173   4.536  14.234   4.831 -0.0957  0.0268 -0.0397
27183W        W70174  24.334  14.522  29.211  0.0961  0.0800  0.0118
27184W        W70175  23.598  11.330  28.405  0.2138  0.0420  0.2670
27185W        W70176  25.435  25.576  28.969 -0.0135  0.0177 -0.1736
27186W        W70177  25.279  23.450  23.681  0.0680 -0.0515 -0.0829
27187W        W70178  19.095  30.583   7.936 -0.0571 -0.1411 -0.0489
27188W        W70179   0.824  20.887   4.652  0.0508  0.1968  0.1708
27189W        W70180   6.684  23.057   4.596 -0.1483 -0.0717  0.1334
27190W        W70181  24.461  25.249  23.571  0.2411  0.1888  0.1381
27191W        W70182  23.038   5.864  27.108  0.1441 -0.0499 -0.0116
27192W        W70183  19.412  27.988  27.888  0.2496  0.0331  0.0074
27193W        W70184  22.289  10.938  25.522 -0.4625 -0.1683  0.1958
27194W        W70185  13.291  19.179   2.131  0.1312  0.0434 -0.0498
27195W        W70186  26.807  30.459   6.240  0.2248  0.0274  0.1377
27196W        W70187  34.634  28.641   3.037  0.2461 -0.1704  0.0188
27197W        W70188  18.988  27.026   5.059 -0.2669  0.3507 -0.1875
27198W        W70189  27.967  29.357   8.319  0.1563  0.0776 -0.0453
27199W        W70190   9.468  19.246  27.577  0.2829 -0.1226 -0.0584
27200W        W70191  33.702  19.273   6.757 -0.1164 -0.0734  0.3092
27201W        W70192  13.028  31.046  10.859 -0.2767  0.1670 -0.0355
27202W        W70193   3.336  33.715  17.912 -0.0586  0.1281  0.2281
27203W        W70194   7.159   0.385  19.932  0.2222 -0.2421 -0.1164
27204W        W70195  23.938   6.225  12.926 -0.3253  0.1004  0.1303
27205W        W70196  22.391   3.991  13.833  0.1623  0.0208  0.1949
27206W        W70197   5.405   5.086  16.773 -0.3114  0.2925  0.0795
27207W        W70198  18.971  20.122  23.137 -0.1656 -0.0013  0.0962
27208W        W70199  28.780  28.770   8.600 -0.0005  0.1136 -0.0700
27209W        W70200  32.212  14.325  22.701 -0.0464  0.0256 -0.1377
27210W        W70201  33.853  31.055  23.587  0.2061  0.1528  0.2781
27211W        W70202  27.731  21.001  24.317  0.0648  0.1319 -0.0933
27212W        W70203  33.535  15.261   4.051 -0.0396 -0.1613 -0.1301
27213W        W70204  32.141  28.188   5.681 -0.1864 -0.0226  0.0211
27214W        W70205  21.875  19.853  27.782  0.0201  0.3859  0.2540
27215W        W70206  14.410  34.029  28.991  0.1718 -0.1288 -0.0900
27216W        W70207  21.461  30.235  14.348  0.0169 -0.4060 -0.0422
27217W        W70208  16.038  10.937  24.059 -0.0697 -0.0091 -0.0904
27218W        W70209  30.539  29.313  28.524  0.0774 -0.0305  0.2040
27219W        W70210  11.481  22.354   3.327  0.0532  0.1453 -0.0320
27220W        W70211  26.761   5.668  24.126 -0.1228 -0.2535  0.3670
27221W        W70212  16.353  23.994  22.696  0.0731 -0.3160  0.1207
27222W        W70213   0.704  28.515   9.776  0.0262  0.1651  0.0699
27223W        W70214  12.879   5.714  10.634 -0.0339 -0.0424  0.0167
27224W        W70215  17.157  23.379  27.050  0.0545  0.2311 -0.0830
27225W        W70216   9.997  11.143  15.102  0.1263 -0.2600 -0.0396
27226W        W70217  16.918  25.363   0.334  0.1395  0.2483 -0.2185
27227W        W70218  24.781  27.247  27.045 -0.4821  0.0479 -0.0755
27228W        W70219  32.726  15.423  26.612 -0.0275 -0.3358  0.0519
27229W        W70220  26.373  12.221  20.221 -0.0999 -0.1016  0.3505
27230W        W70221  10.184   9.297   3.120  0.3820  0.0565  0.0405
27231W        W70222  18.931  30.826  29.184 -0.1452  0.1435  0.1217
27232W        W70223   9.712  11.242  10.604  0.1754 -0.0292  0.0340
27233W        W70224  28.107   3.938  27.473 -0.3076 -0.2544  0.0263
27234W        W70225  14.337  33.847   0.204 -0.0612 -0.2731  0.0496
27235W        W70226  25.244  24.051  19.065 -0.0680  0.0769 -0.0958
27236W        W70227  20.274  27.403   3.082  0.0220  0.0296 -0.2651
27237W        W70228  20.653  24.367  29.245 -0.1713  0.3123 -0.0613
27238W        W70229  12.455  26.669  29.198  0.2320  0.1270  0.0874
27239W        W70230  23.710  29.296   9.398  0.2918  0.0234 -0.0544
27240W        W70231  26.630  21.794  22.261  0.0021 -0.0986 -0.0341
27241W        W70232  26.930  32.793   0.466  0.0283 -0.0284  0.0466
27242W        W70233  32.627  13.134   5.607  0.2343  0.1077  0.0158
27243W        W70234   9.618   0.452  26.294  0.0049 -0.1231 -0.0348
27244W        W70235   5.609  14.148  22.073  0.4141  0.0764  0.0169
27245W        W70236  22.064   0.366   4.366 -0.1646 -0.3006  0.0880
27246W        W70237  32.932  32.928   2.006 -0.0309 -0.0933 -0.0978
27247W        W70238  24.215  23.905   3.679 -0.2712  0.1479  0.0560
27248W        W70239   2.869  24.767  26.362  0.3474  0.2425 -0.2066
27249W        W70240  27.974  27.278  27.067 -0.1085  0.1702  0.1594
27250W        W70241  33.835  11.850   3.092  0.1120 -0.4699 -0.3254
27251W        W70242  16.222  28.235  21.162  0.0802  0.2093 -0.0319
27252W        W70243  11.925  17.558  13.172 -0.0813 -0.0383  0.2427
27253W        W70244  15.661   1.538   5.002 -0.2314 -0.3419  0.2954
27254W        W70245  21.818  19.331   7.843 -0.1754  0.4155 -0.1051
27255W        W70246  31.772  17.328   3.603  0.2113 -0.1615 -0.0542
27256W        W70247  27.076  25.808   7.601  0.0922 -0.0637  0.0112
27257W        W70248  20.052   2.312   8.728 -0.2560 -0.0694  0.2416
27258W        W70249   1.176  23.584  27.949  0.2525 -0.2306  0.0577
27259W        W70250  20.013  16.182   3.031 -0.1100  0.1388 -0.2531
27260W        W70251  13.238  24.429   2.211  0.0919 -0.3862  0.1336
27261W        W70252  20.979  14.196   0.130  0.2453 -0.2163 -0.2980
27262W        W70253  15.758  27.347   0.817 -0.2081  0.1354  0.0496
27263W        W70254  32.057  27.113   0.413 -0.2034 -0.0944  0.1712
27264W        W70255   7.304  27.355  20.387 -0.0849  0.1602 -0.2164
27265W        W70256  22.647  31.568   8.282  0.4019 -0.0859 -0.3588
27266W        W70257  27.442  24.769  26.056  0.0812 -0.1219  0.1179
27267W        W70258   3.429  29.826   5.183  0.0051  0.1953 -0.2099
27268W        W70259  28.254  32.343   3.585  0.0686  0.1703 -0.3344
27269W        W70260   0.763   2.760  27.838 -0.3370  0.2147  0.3359
27270W        W70261   9.841  23.953   6.700 -0.1573 -0.2227  0.3080
27271W        W70262  20.210   6.929   6.770  0.0269 -0.3319 -0.1148
27272W        W70263  27.045  12.411  21.000 -0.0931 -0.0561 -0.1205
27273W        W70264  28.855  31.063   3.673  0.2330 -0.2233 -0.0931
27274W        W70265  25.122  23.205  25.437 -0.0277  0.1265 -0.0366
27275W        W70266  32.701  32.212  24.717  0.1490 -0.3721  0.0786
27276W        W70267  12.367   2.619  27.377 -0.0677 -0.0404  0.0293
27277W        W70268   4.399   0.459  15.570 -0.1144  0.0063  0.3334
27278W        W70269  12.366  31.874   7.507  0.1303  0.1905 -0.4043
27279W        W70270  29.025  22.085   8.810 -0.0498 -0.0757 -0.4822
27280W        W70271  30.657  24.070   3.761 -0.2305  0.0104  0.1984
27281W        W70272   4.928  22.163  28.991  0.0514  0.0934 -0.2196
27282W        W70273   7.575  21.405   7.514  0.1556 -0.2502  0.0217
27283W        W70274  16.752   0.379   4.301  0.3860 -0.1171 -0.1580
27284W        W70275  23.715  34.088  27.749 -0.1054 -0.2142 -0.1171
27285W        W70276   2.321  22.815   8.915  0.1298  0.0728 -0.0059
27286W        W70277  24.704  30.475  29.035 -0.3113  0.1463  0.0672
27287W        W70278   7.167  14.881   1.829  0.3198  0.0200  0.2561
27288W        W70279  26.394  22.658   2.581  0.2271 -0.0508 -0.3374
27289W        W70280  16.357  29.421  25.335  0.1605 -0.4524 -0.1116
27290W        W70281  26.639  22.795  25.061  0.2712  0.2085  0.0977
27291W        W70282   0.002  22.979   7.547  0.1573  0.0609  0.2587
27292W        W70283  34.531  23.038   2.933 -0.0208 -0.1305  0.1391
27293W        W70284  32.103   5.903   5.583 -0.1469  0.2163  0.1822
27294W        W70285  28.783  21.752  25.545 -0.0317  0.1448  0.1665
27295W        W70286  33.219  22.989  14.286 -0.1099  0.4380  0.0439
27296W        W70287  22.493  32.697   1.112  0.1459  0.2174 -0.1130
27297W        W70288  22.468  28.020   5.596  0.0184 -0.1413 -0.1153
27298W        W70289  12.483  33.355  17.782  0.4802  0.2847 -0.1026
27299W        W70290  13.652  25.342   6.782  0.4062  0.1960 -0.2170
27300W        W70291  17.755  25.048  18.186 -0.0343 -0.2385  0.1186
27301W        W70292  26.548  30.093   4.473 -0.1060 -0.2456 -0.1265
27302W        W70293  22.776  12.479   3.059 -0.2088 -0.0567  0.1339
27303W        W70294  27.639  23.659   7.466  0.0117  0.2977 -0.3541
27304W        W70295  30.860   5.605  22.961 -0.1283 -0.1489 -0.0097
27305W        W70296   2.135  27.005  28.152  0.3902  0.1406 -0.2776
27306W        W70297   6.349  32.589   1.104 -0.2147 -0.0104  0.1057
27307W        W70298  23.007  14.216   8.597 -0.2203  0.5841 -0.3066
27308W        W70299   2.534   1.189  10.862 -0.0755  0.1089  0.2980
27309W        W70300  16.682  22.904   3.107  0.4233 -0.0725  0.0481
27310W        W70301  27.419  16.553   8.927 -0.0682 -0.2356 -0.0077
27311W        W70302  19.008   3.745  21.931 -0.0459 -0.0814 -0.0945
27312W        W70303  10.789  17.238   7.377 -0.1179  0.1890  0.0971
27313W        W70304  17.507  29.378   7.525 -0.1196  0.3206  0.1912
27314W        W70305   1.313  25.539   3.219 -0.2110 -0.1901 -0.0947
27315W        W70306  11.887  10.240  22.368 -0.4937 -0.1202 -0.0075
27316W        W70307  21.973  27.073   1.896  0.0138  0.0107 -0.0688
27317W        W70308  29.174  31.811   0.292 -0.1443  0.0863 -0.0385
27318W        W70309  12.505  27.439   9.918 -0.2413  0.1759  0.0463
27319W        W70310  15.803  27.671   7.939  0.0048  0.3536 -0.0245
27320W        W70311  22.304  18.659  19.293 -0.0773 -0.2467 -0.0455
27321W        W70312  29.690  31.340   0.951 -0.1026 -0.0323  0.1772
27322W        W70313  20.950  20.929  18.595  0.1831  0.3301  0.0283
27323W        W70314  19.113  27.969   6.732  0.3906 -0.1492  0.1864
27324W        W70315  27.903  26.526   8.868 -0.0235 -0.1473  0.1660
27325W        W70316  21.357  26.137   7.940  0.1479  0.1219  0.1276
27326W        W70317  15.863  22.324  15.264 -0.4357 -0.0208 -0.0997
27327W        W70318  15.128  34.446   0.777 -0.0803 -0.5964  0.0439
27328W        W70319  10.492  32.118   4.497  0.1754 -0.1005  0.0557
27329W        W70320  22.954  31.429  21.415 -0.1798  0.0202 -0.1616
27330W        W70321  19.310  32.340   3.727 -0.2338 -0.2173 -0.2271
27331W        W70322  25.691  27.770   0.591 -0.1770 -0.1155 -0.0704
27332W        W70323  24.277  15.213   8.975  0.1425  0.1922  0.2180
27333W        W70324  26.239   3.845  22.981 -0.1577  0.1686  0.1531
27334W        W70325  12.894  26.233  21.769 -0.3189 -0.1055 -0.0799
27335W        W70326  18.772  21.091   8.638  0.0085 -0.0351 -0.0307
27336W        W70327  19.336  33.913   6.114  0.2966 -0.1249  0.1439
27337W        W70328   1.892   4.073   1.228 -0.3959 -0.1258  0.2816
27338W        W70329  16.196  34.616  24.746  0.0216 -0.2673 -0.2053
27339W        W70330  12.303  21.586  17.033  0.1770  0.1100  0.0074
27340W        W70331  33.932  25.360   0.705 -0.0142 -0.3409  0.0485
27341W        W70332  19.733  33.920   1.336  0.2510 -0.4579 -0.0423
27342W        W70333  15.793   7.928   9.758  0.2839 -0.1029 -0.1173
27343W        W70334  25.508   7.075   6.186  0.0050 -0.1726 -0.0927
27344W        W70335  28.531  31.692  27.425  0.0369 -0.3267  0.0163
27345W        W70336  22.345  31.338   8.626 -0.1605 -0.2022  0.0890
27346W        W70337  27.646  24.979   8.177 -0.0756 -0.4105  0.0221
27347W        W70338  26.084   2.414  25.434  0.2645 -0.0162 -0.1029
27348W        W70339  33.633  34.696   8.367  0.0889 -0.0644 -0.0177
27349W        W70340  18.885  20.411   6.560  0.0054 -0.1255  0.2430
27350W        W70341  29.564  29.061  23.229  0.2485 -0.3710 -0.2673
27351W        W70342  13.646  19.715   8.175  0.1364 -0.0186  0.2889
27352W        W70343  25.274  22.818   7.984 -0.2644  0.0846  0.1064
27353W        W70344   0.347  31.429   4.740 -0.1584  0.0863 -0.1411
27354W        W70345  14.572   7.089  27.212  0.0634 -0.2184 -0.1162
27355W        W70346  22.211  26.469   8.636  0.0097  0.1750 -0.1275
27356W        W70347  20.104  14.630  25.024  0.0767  0.0000 -0.2474
27357W        W70348  32.212  18.509  23.456  0.0882 -0.1782  0.1188
27358W        W70349  31.991  22.043   0.043 -0.0805  0.2788  0.1445
27359W        W70350  21.245  23.623   6.448 -0.0176  0.0329 -0.1497
27360W        W70351  20.008   8.114   9.302  0.0912  0.0752 -0.1855
27361W        W70352  15.900  19.126   3.850 -0.3306  0.0865 -0.1680
27362W        W70353  24.075  25.481  22.595  0.1202 -0.1214 -0.0542
27363W        W70354  20.243  23.879   3.986  0.1835  0.3957 -0.0427
27364W        W70355   8.046  32.695   4.746 -0.0894 -0.3412 -0.0296
27365W        W70356  26.000  21.387  17.267 -0.1814  0.0387  0.2408
27366W        W70357  30.539  20.326   6.657 -0.1921  0.1277 -0.0048
27367W        W70358  19.871   3.044   0.761  0.3240  0.0500  0.1184
27368W        W70359  17.445  27.270   1.254  0.1544 -0.1913  0.4947
27369W        W70360  19.045  33.786   0.964  0.2057 -0.1860  0.0658
27370W        W70361   1.302  30.391   0.175  0.1465  0.1419 -0.0832
27371W        W70362  27.648  28.292   6.527  0.1161  0.2928 -0.4406
27372W        W70363  16.985   9.501   0.837  0.2731  0.1153 -0.1195
27373W        W70364  32.145  31.435   8.755 -0.2493  0.3152  0.0246
27374W        W70365  31.903  16.725   3.138  0.2875  0.4045  0.2239
27375W        W70366  31.634  29.532  15.561  0.4524 -0.1979  0.0176
27376W        W70367   1.512  22.487  10.289  0.2810 -0.0225  0.0480
27377W        W70368  19.129  30.031   3.964  0.3104 -0.2333 -0.5184
27378W        W70369  26.221  19.631  17.110  0.0947  0.2536 -0.1814
27379W        W70370  32.916  25.749   5.326  0.2524 -0.0105  0.0909
27380W        W70371  13.663  28.970   1.442  0.0849  0.1230  0.0124
27381W        W70372  14.236   3.516  25.360  0.1134 -0.0465 -0.1522
27382W        W70373  19.373  24.501   1.984  0.3539 -0.0092  0.0784
27383W        W70374  11.971  18.863  25.395  0.0659  0.0464 -0.2118
27384W        W70375   1.540   4.891  20.580 -0.1242  0.1121 -0.2286
27385W        W70376  26.986  22.977   8.629  0.1311  0.3341 -0.0357
27386W        W70377  21.475  13.774  20.766  0.1348  0.1878 -0.1747
27387W        W70378  24.037  31.943   6.505 -0.0850 -0.1953 -0.1699
27388W        W70379   3.023   5.947   9.954  0.0307  0.2176 -0.1552
27389W        W70380  18.029  24.038  20.962  0.0386  0.1474  0.3224
27390W        W70381  12.353  13.100  19.543  0.0364 -0.2742 -0.0633
27391W        W70382  24.604  12.110  26.822 -0.0775  0.1598  0.2113
27392W        W70383  20.372   4.145  21.919  0.0564 -0.1854  0.0176
27393W        W70384  20.760   0.478   4.820  0.3697 -0.0404  0.0739
27394W        W70385  25.064  24.901  20.953 -0.0568  0.0933  0.0144
27395W        W70386  13.393  16.517  21.692  0.1939  0.1346  0.1638
27396W        W70387  20.227  24.807   9.776  0.1043 -0.1334  0.1119
27397W        W70388   5.113  18.625   7.855  0.1436 -0.0086  0.1628
27398W        W70389  17.897   0.472   5.880  0.2217 -0.0649  0.0554
27399W        W70390  12.588  22.676   1.836  0.0198  0.1452  0.0940
27400W        W70391  17.624  34.189   7.148 -0.0209 -0.2316 -0.1000
27401W        W70392   4.964  30.093   4.119  0.0453 -0.1635  0.1044
27402W        W70393  15.978  28.536   7.718  0.2563 -0.1209 -0.1958
27403W        W70394  14.867  18.628   3.111  0.2256  0.1966 -0.3178
27404W        W70395   8.770  25.798  23.124 -0.0769 -0.0224 -0.1253
27405W        W70396  26.213  30.570   4.702 -0.0862 -0.1680 -0.0176
27406W        W70397  11.803  21.052  28.397 -0.2548  0.2396  0.0836
27407W        W70398  25.128  33.640   4.357 -0.0193 -0.0073 -0.3875
27408W        W70399  21.708  19.266  26.533 -0.1968  0.0258 -0.3072
27409W        W70400  19.858   2.179   4.019  0.0994 -0.1653 -0.0222
27410W        W70401   5.826  15.025   3.420 -0.0056  0.0404 -0.0129
27411W        W70402  24.672  17.824   9.881  0.1349  0.0620  0.1475
27412W        W70403  29.235  22.665   3.202  0.1448 -0.3220  0.1066
27413W        W70404  18.743  26.775   9.491 -0.0468 -0.0037 -0.0063
27414W        W70405  21.130  31.527  17.124  0.2468  0.1673 -0.1736
27415W        W70406  33.755   7.474   7.162  0.1490 -0.0733  0.2942
27416W        W70407  15.935   3.542   3.535  0.0824  0.4296 -0.0584
27417W        W70408  17.319   6.126   7.860  0.1991  0.0696  0.3944
27418W        W70409  34.511  20.828  10.455 -0.0049 -0.0535  0.4105
27419W        W70410   8.875   4.666  16.506  0.1178  0.1152 -0.0005
27420W        W70411  21.612  28.960   6.304  0.1381 -0.1439 -0.1986
27421W        W70412   3.320  16.180   9.340  0.0637 -0.2572  0.0417
27422W        W70413  31.105   2.143  27.367  0.3292 -0.0649  0.1018
27423W        W70414  11.682  11.271  27.021 -0.0674 -0.1928 -0.0377
27424W        W70415  19.978  21.266  28.209  0.3096 -0.1157 -0.0327
27425W        W70416  22.467  19.562  28.983  0.0150 -0.2047 -0.0215
27426W        W70417  31.308  30.999  26.812  0.0586 -0.2603  0.2535
27427W        W70418   1.240  26.318  16.044 -0.3583  0.0511  0.4870
27428W        W70419  28.794  31.007  20.181 -0.0758  0.0776 -0.0415
27429W        W70420  28.871  15.329  10.069  0.2681  0.0645  0.0690
27430W        W70421  11.990  21.516   9.846 -0.0830 -0.3488  0.3073
27431W        W70422  21.609  27.241   8.934  0.3170 -0.0346 -0.2586
27432W        W70423  29.756  11.263   2.215  0.0345  0.0752 -0.0052
27433W        W70424  22.764  26.955  20.335  0.1438 -0.1179 -0.0989
27434W        W70425  26.175   3.473  22.639 -0.3933  0.0833 -0.1769
27435W        W70426  34.565  24.031   8.109  0.1720  0.0711  0.1898
27436W        W70427  20.572  29.885   7.594  0.0965  0.1370 -0.2238
27437W        W70428  19.789  14.619   0.859 -0.1262  0.0883  0.3006
27438W        W70429   4.882  20.527  18.516 -0.5399 -0.0805  0.0331
27439W        W70430  19.900  26.502  28.601 -0.3445  0.0786 -0.7324
27440W        W70431  21.074  26.056   5.890 -0.4394  0.2889 -0.1418
27441W        W70432  14.446   6.261   6.710 -0.0664  0.0912 -0.0031
27442W        W70433   3.629  16.196   5.377  0.0216 -0.1945 -0.2134
27443W        W70434   9.386  13.209   9.343  0.0238 -0.0657  0.0613
27444W        W70435  21.755  14.648   4.438 -0.2493 -0.0099  0.0375
27445W        W70436  24.986  23.801   6.952 -0.0422 -0.0377 -0.1364
27446W        W70437  21.627  27.115  24.786 -0.1105 -0.2727  0.0056
27447W        W70438  20.729  32.750   8.175  0.1046  0.2521  0.5968
27448W        W70439  10.601  30.656  25.292  0.1036  0.1094  0.2329
27449W        W70440  30.379  29.763  21.668 -0.0150 -0.1683  0.1388
27450W        W70441  26.976  18.041   2.334 -0.1967 -0.1116  0.0825
27451W        W70442  31.976  25.670   5.393  0.0742 -0.0989  0.2007
27452W        W70443  27.275  25.885   2.496  0.1468 -0.2821  0.0176
27453W        W70444  29.203   2.882   6.154  0.0379 -0.0110 -0.0455
27454W        W70445  21.489  21.471  20.051  0.2373  0.0721 -0.0950
27455W        W70446   7.994  28.254  28.143 -0.3556  0.0974  0.2904
27456W        W70447  33.932  15.746  25.973 -0.3033  0.1280 -0.1533
27457W        W70448  21.991  15.636  26.671 -0.3622 -0.0738 -0.1944
27458W        W70449  19.570   9.466   1.611 -0.0456 -0.1229 -0.2281
27459W        W70450  22.021  26.280  15.246  0.1270 -0.7619  0.3289
27460W        W70451  22.251  12.743  17.516 -0.1995 -0.0656  0.4532
27461W        W70452  15.263   0.303   1.657  0.0930  0.3776 -0.0125
27462W        W70453  33.442  32.304   8.357  0.0401 -0.0534 -0.1253
27463W        W70454  33.949  17.337  27.720  0.1364  0.3734  0.0184
27464W        W70455  23.783  14.821  26.642 -0.1256  0.2159  0.0975
27465W        W70456  29.715  27.565   4.286  0.3081  0.4629  0.2029
27466W        W70457  19.393  22.198  20.581  0.2894 -0.2264  0.0971
27467W        W70458  29.149  22.862   9.608 -0.2669 -0.2480  0.0716
27468W        W70459   1.953   6.377   8.912  0.0510 -0.3907  0.2023
27469W        W70460  25.873  20.311   0.508  0.1580  0.1342 -0.3250
27470W        W70461   7.325  34.224   3.603  0.0014  0.1219  0.0001
27471W        W70462  17.830  25.119   1.795 -0.2712  0.0788  0.1044
27472W        W70463  20.684  27.185   3.401 -0.1771  0.1418 -0.1278
27473W        W70464  34.505  16.972  23.026 -0.0007  0.0542 -0.2171
27474W        W70465  22.291  14.845   0.947  0.0307  0.2164  0.1236
27475W        W70466  27.612  25.924   4.890  0.0881 -0.0148  0.1857
27476W        W70467  29.824  10.721   4.881 -0.3273 -0.0930  0.3499
27477W        W70468  30.880  23.364   9.629  0.0470  0.0318 -0.0505
27478W        W70469  16.551  26.056  27.357  0.0454  0.0375 -0.2539
27479W        W70470  34.485   3.802  28.614 -0.0609  0.0524 -0.0064
27480W        W70471  33.468   6.310   0.035 -0.2154 -0.3054 -0.0310
27481W        W70472  14.257  13.382   7.314 -0.1346  0.1274  0.1956
27482W        W70473  22.124   5.589   8.419 -0.5080 -0.1776  0.1855
27483W        W70474  30.087  28.809   2.846 -0.0407  0.0327 -0.1129
27484W        W70475  11.352  23.151  22.601 -0.2624 -0.0875  0.2297
27485W        W70476   3.381  19.352  28.528  0.2904 -0.2454 -0.0453
27486W        W70477  14.791  20.335  29.095 -0.0998  0.2301 -0.4172
27487W        W70478  31.326  23.570   9.759 -0.2614  0.1109 -0.2718
27488W        W70479  33.040  20.158  27.424  0.0174  0.1007 -0.0836
27489W        W70480  32.479   0.365   4.735 -0.3565 -0.0106  0.0480
27490W        W70481  10.591  11.686   6.471 -0.0086 -0.2305  0.2474
27491W        W70482  20.470  17.945  26.744  0.2172  0.0597  0.3341
27492W        W70483  21.985  19.417   1.822  0.2301  0.2747  0.1427
27493W        W70484  32.682  24.648   9.272  0.1402  0.1884  0.1638
27494W        W70485  10.187   3.393  11.136 -0.1055 -0.0662  0.1081
27495W        W70486  30.956  22.932   2.952 -0.2290 -0.3741 -0.0373
27496W        W70487  30.464  19.468   0.687  0.3669  0.1086 -0.0149
27497W        W70488  11.826   5.086   2.899  0.1956  0.0119  0.0604
27498W        W70489   7.731   1.561   0.380 -0.0410 -0.0138  0.2200
27499W        W70490  24.419  16.603  26.932  0.0615 -0.1573  0.0003
27500W        W70491  26.055  17.453  24.928 -0.2491 -0.1554 -0.0846
27501W        W70492  18.114  21.411  24.591  0.0008 -0.1506  0.1173
27502W        W70493  29.637  12.352  28.940 -0.0693  0.2850 -0.3047
27503W        W70494  31.199  25.982  22.356  0.2302  0.4001 -0.2427
27504W        W70495   1.024  17.803  27.045  0.1885  0.1423 -0.1556
27505W        W70496   2.539  29.535  28.157  0.1621 -0.2906 -0.0392
27506W        W70497  23.427  20.446   8.736 -0.2788 -0.1041 -0.0694
27507W        W70498  21.636  12.554   5.937  0.0374 -0.1363  0.2464
27508W        W70499  24.361  31.119  26.635 -0.0105  0.1341 -0.1834
27509W        W70500  14.663  19.518   4.494 -0.1327 -0.2852 -0.1602
27510W        W70501  25.927  20.371   1.117 -0.0172  0.1841 -0.0056
27511W        W70502  30.690  23.001   9.008 -0.1467  0.0394 -0.0340
27512W        W70503  18.381  20.086   4.352  0.2177 -0.2008  0.0582
27513W        W70504  28.820  10.159   2.505  0.0539 -0.3517 -0.0154
27514W        W70505  13.286  21.797   2.892  0.1464  0.0330 -0.0244
27515W        W70506  19.073  28.193   1.045  0.0476 -0.0739 -0.0245
27516W        W70507  29.411  28.589  23.329  0.1119 -0.0732  0.2483
27517W        W70508  21.136  32.794   3.326  0.0456 -0.1031  0.0590
27518W        W70509   4.893  23.634  10.038 -0.0576  0.1269  0.1000
27519W        W70510  18.281  25.027   7.709  0.2158  0.2021  0.0009
27520W        W70511  24.612  22.506   1.499  0.1403 -0.0048 -0.1498
27521W        W70512  26.588   5.862  26.198 -0.1022 -0.0372 -0.2738
27522W        W70513  25.016  32.926   3.416  0.0351 -0.1826  0.0633
27523W        W70514  25.670  30.620  28.851 -0.1043 -0.3083  0.1568
27524W        W70515  27.884  32.247  26.039 -0.1666  0.1522  0.1245
27525W        W70516  21.150  28.829  28.583  0.2872  0.0223 -0.1571
27526W        W70517  25.269  34.503  25.293  0.2231  0.0718 -0.0925
27527W        W70518  12.765  31.448   8.692 -0.1073  0.0487  0.0149
27528W        W70519   2.328  31.022   6.184 -0.1337  0.0611  0.1670
27529W        W70520   7.291  30.115  20.832 -0.1638  0.3448 -0.2452
27530W        W70521   7.658  18.805  28.540  0.1829  0.1540  0.0574
27531W        W70522  21.056  14.134  17.029  0.0863  0.0135 -0.0543
27532W        W70523  12.713   5.792  25.710  0.2300 -0.1233  0.0770
27533W        W70524  30.461  11.259   3.167  0.2555 -0.0560  0.0443
27534W        W70525  27.266  32.014  27.922  0.4820 -0.0097 -0.0702
27535W        W70526  19.519  29.275   4.360 -0.2112 -0.0892 -0.1736
27536W        W70527   0.669   4.585   3.779  0.0555  0.0432  0.1097
27537W        W70528  32.723   3.043  27.910 -0.1298  0.1708 -0.2832
27538W        W70529  32.920   1.329  28.722  0.2654  0.0170  0.2113
27539W        W70530  32.472  14.116  27.252  0.0684 -0.1561 -0.1883
27540W        W70531  26.095  28.445   3.129  0.3075 -0.1221  0.1759
27541W        W70532  31.351  24.671   1.852  0.0068  0.1056 -0.1842
27542W        W70533  10.642  23.744  22.140  0.0956 -0.1526 -0.2008
27543W        W70534  15.735  18.681  24.749  0.0293  0.2203  0.1290
27544W        W70535  16.416  28.568   3.309 -0.2394 -0.0553 -0.0186
27545W        W70536  24.035  20.048   9.621 -0.0293 -0.1848  0.1968
27546W        W70537  20.511  16.470  27.826  0.0328 -0.1350 -0.0575
27547W        W70538  28.969   4.093  19.254 -0.0093 -0.2621 -0.1254
27548W        W70539  27.246  26.195  21.764 -0.0469 -0.1724  0.0332
27549W        W70540   2.075  23.632   8.336  0.3732 -0.1617 -0.0580
27550W        W70541  26.850  15.411  20.959 -0.0580 -0.1571  0.2146
27551W        W70542   1.811  17.711   2.684 -0.2116  0.0454  0.0797
27552W        W70543  24.189  22.844   2.629 -0.0521 -0.0956 -0.1962
27553W        W70544  17.070  18.125   1.214  0.0025  0.1981 -0.0798
27554W        W70545  32.258  24.169   6.091  0.1520  0.1293  0.0244
27555W        W70546   7.893  29.099   1.772 -0.0037  0.2642 -0.0800
27556W        W70547  15.721  24.691  28.346  0.0396 -0.0616 -0.5939
27557W        W70548  20.039  29.887  27.459  0.0580  0.4164 -0.1864
27558W        W70549   9.940  29.299   6.925  0.1284  0.4771 -0.2137
27559W        W70550  29.043  24.829   5.256  0.1968  0.2983  0.0355
27560W        W70551  30.561  26.619  20.373  0.3146 -0.2435 -0.0108
27561W        W70552  26.611  24.417   8.720 -0.2229  0.2172 -0.4394
27562W        W70553  31.373  29.889  28.579  0.1535  0.1624 -0.0709
27563W        W70554  34.050  11.365   7.819 -0.1685  0.0253 -0.3470
27564W        W70555  25.244  20.135   1.794 -0.0520 -0.0238  0.2855
27565W        W70556  19.974  19.051   1.063 -0.0114 -0.0459  0.1462
27566W        W70557  23.899  32.467  24.808  0.4210  0.3230  0.0560
27567W        W70558   7.256  28.436   6.296  0.1691  0.0064 -0.0434
27568W        W70559  19.784  30.196  19.178 -0.2454  0.1798  0.2176
27569W        W70560   8.228  15.633  28.154 -0.3860  0.0139 -0.0080
27570W        W70561  32.777  18.923  10.857  0.1407  0.0226 -0.3235
27571W        W70562  21.410  21.540   5.425 -0.0889 -0.1353 -0.0766
27572W        W70563  30.743   3.138  14.008 -0.2678 -0.3353 -0.0461
27573W        W70564  18.596  19.921  25.605 -0.0179 -0.2207 -0.0274
27574W        W70565  13.745  32.995  19.020 -0.1891 -0.0658 -0.0965
27575W        W70566  15.465  18.745   9.354 -0.0755  0.1127 -0.0653
27576W        W70567  20.201  21.456   3.587  0.1371  0.3075  0.0057
27577W        W70568  32.788  23.549   4.483 -0.2570 -0.4431 -0.0814
27578W        W70569  16.539  21.735   7.825 -0.3156 -0.0929  0.3093
27579W        W70570  17.903  25.317   7.729 -0.0984  0.0820  0.0377
27580W        W70571  12.671  23.235   8.544 -0.2038 -0.3548 -0.0592
27581W        W70572  10.870  21.452   3.852  0.1565 -0.1535 -0.3958
27582W        W70573  17.103  11.870   6.426  0.0503 -0.0472  0.1862
27583W        W70574  31.726  20.886  23.626 -0.1164  0.1848 -0.1117
27584W        W70575   4.531  26.124  25.230  0.1574 -0.3496  0.2004
27585W        W70576  23.794  18.485  28.728 -0.0666  0.1914 -0.0483
27586W        W70577  10.150   0.071   3.949 -0.1916 -0.1436  0.4465
27587W        W70578  14.788  20.594   6.478  0.0857 -0.0468 -0.1938
27588W        W70579  18.111  26.519  25.686  0.0640 -0.0577  0.2678
27589W        W70580  24.202  11.749   6.635  0.3200  0.2078  0.1140
27590W        W70581   0.401  30.255   6.460 -0.0259  0.0291 -0.0098
27591W        W70582   3.716  32.878   0.047 -0.3146 -0.2400 -0.0013
27592W        W70583  27.176  24.734  27.637 -0.1859  0.0418 -0.1985
27593W        W70584   0.442  25.787   9.064 -0.0008 -0.2965 -0.0889
27594W        W70585  22.271  19.917   8.521 -0.1281 -0.1719 -0.0351
27595W        W70586  32.310  23.016   0.228  0.0243 -0.0639  0.3728
27596W        W70587  16.424  20.398  26.247 -0.2131  0.1370  0.2426
27597W        W70588  30.509  24.003   5.963 -0.0951  0.2264 -0.0599
27598W        W70589  11.078  22.379  28.406  0.3282  0.0926  0.1816
27599W        W70590  25.774  28.041   5.382  0.0448 -0.1990  0.0913
27600W        W70591  18.919  25.791  21.980  0.2178  0.2179  0.4306
27601W        W70592  22.858  12.228  29.013 -0.0079 -0.2291 -0.1044
27602W        W70593  15.414  25.799   4.890 -0.0939  0.0156 -0.4010
27603W        W70594  14.161  19.878   6.159  0.0854 -0.0638 -0.1591
27604W        W70595   4.554  25.241   0.335  0.0210  0.0011  0.0631
27605W        W70596  28.640  27.813   0.006 -0.0897  0.0472  0.2353
27606W        W70597  20.240  19.163   5.555 -0.1462  0.1776 -0.1039
27607W        W70598  12.708  25.009  28.329 -0.1818  0.2917  0.1464
27608W        W70599  28.761  25.182  26.708 -0.0153 -0.3094  0.1366
27609W        W70600  25.624   0.059   4.459 -0.1473 -0.0366  0.0745
27610W        W70601  21.492   0.132   6.993 -0.1813 -0.2144  0.1205
27611W        W70602  19.950  29.179   4.014 -0.3158 -0.0992 -0.0267
27612W        W70603  32.888  24.153   1.741  0.3216  0.0068 -0.1610
27613W        W70604  21.307  26.608  23.807 -0.1720 -0.0912 -0.1021
27614W        W70605  22.954   2.756   8.083  0.1541  0.0820  0.2736
27615W        W70606  30.697  11.614  11.511 -0.0777 -0.0196  0.1481
27616W        W70607  33.893  18.112  16.253  0.0380 -0.2225  0.2129
27617W        W70608  25.162  16.538  23.876 -0.0380  0.1433 -0.5085
27618W        W70609  23.010  15.999  27.580 -0.4156 -0.0878 -0.2865
27619W        W70610  14.278  29.532   3.088 -0.4320  0.2284  0.0043
27620W        W70611  29.530  20.825  28.589 -0.1642 -0.1021  0.1433
27621W        W70612  21.314  15.758   5.068 -0.4335 -0.1674  0.0730
27622W        W70613  17.221  33.463   5.735  0.1401  0.0130  0.5168
27623W        W70614  23.577  19.009  29.134  0.0785  0.0956 -0.0211
27624W        W70615  21.831  17.781  28.704  0.1213  0.5275 -0.2745
27625W        W70616  12.311  19.532   8.383 -0.0751  0.1108  0.0694
27626W        W70617  17.763  23.293  20.073 -0.1143 -0.2820  0.2240
27627W        W70618  27.630   1.701   6.260  0.3327  0.0734  0.3697
27628W        W70619  30.845   5.825   4.652  0.0455 -0.3174 -0.1954
27629W        W70620   2.770  25.984   6.060 -0.0580 -0.0752  0.1480
27630W        W70621  32.957   4.912  10.648 -0.2920  0.1343 -0.1942
27631W        W70622  18.914  20.661  22.978 -0.0849 -0.1351 -0.2127
27632W        W70623  16.312  17.912  28.688  0.1514  0.0346  0.1124
27633W        W70624   2.622   6.891   2.587  0.1223  0.1917 -0.0548
27634W        W70625  16.039  29.820   1.974  0.2471 -0.1239 -0.1545
27635W        W70626  24.177  22.302   7.067  0.1529  0.2034 -0.1109
27636W        W70627  34.440   2.686   1.844  0.0907 -0.2314  0.4828
27637W        W70628   4.173  26.048   5.957 -0.0069 -0.3206 -0.1141
27638W        W70629  30.974  25.218   4.990  0.0214 -0.0173 -0.0962
27639W        W70630  12.855  18.961  26.685 -0.3228  0.0105 -0.2465
27640W        W70631  31.484  34.268  19.220 -0.1318 -0.3798 -0.2266
27641W        W70632   6.551  25.721   0.875  0.1655 -0.0534  0.1693
27642W        W70633  25.433  12.790   6.937 -0.2103 -0.0965 -0.0978
27643W        W70634  25.555  30.294   5.056  0.1960  0.0835 -0.0493
27644W        W70635  29.056  27.428  21.484 -0.2695 -0.0351  0.3031
27645W        W70636  17.890  27.131   1.041  0.1119 -0.3706 -0.3091
27646W        W70637  21.774  28.979   3.925  0.0691  0.0399  0.1610
27647W        W70638  23.617  15.082  25.208 -0.0894  0.2081 -0.1534
27648W        W70639  19.774  12.252  12.863  0.1274  0.2322  0.3938
27649W        W70640  25.107  20.249   7.428  0.1784 -0.2278  0.0257
27650W        W70641  29.987  20.559   4.722  0.2936  0.1966  0.5203
27651W        W70642  12.302  14.756   4.239 -0.2033  0.1812  0.1953
27652W        W70643  10.165   1.462   4.070  0.1459 -0.1207 -0.1103
27653W        W70644  22.860  13.212   5.264 -0.2325  0.0539  0.2883
27654W        W70645  22.289  10.735   9.018 -0.2591 -0.1910  0.1630
27655W        W70646  26.099  24.343  24.546 -0.0379 -0.0815 -0.0250
27656W        W70647   2.354  16.436  10.185 -0.1254  0.2870  0.1119
27657W        W70648  21.831   3.830   1.620 -0.1864 -0.1518  0.2925
27658W        W70649  21.545  33.225   8.849 -0.3173 -0.2755  0.1039
27659W        W70650  14.503  19.677   6.522  0.1302  0.1113 -0.0637
27660W        W70651  28.930  11.910  27.205  0.3581 -0.0901 -0.3011
27661W        W70652  28.048  24.237   1.739  0.3049 -0.2264 -0.5186
27662W        W70653   3.380  20.945   9.203  0.1141  0.1324  0.0403
27663W        W70654  17.416  11.898   9.487  0.0451  0.0038 -0.0630
27664W        W70655  26.935  19.776  24.202 -0.0444  0.5139 -0.1297
27665W        W70656  15.514  12.766   6.329 -0.1329  0.2379 -0.1054
27666W        W70657  15.108  25.125   5.579  0.1575  0.0310 -0.0593
27667W        W70658  21.941   8.126   5.696 -0.1873 -0.0383  0.2992
27668W        W70659  18.667  14.781   5.697  0.0880 -0.1054  0.2025
27669W        W70660  21.983  27.229   2.625  0.0143  0.2870 -0.1156
27670W        W70661   8.874  24.238  22.624 -0.0238 -0.2499  0.3012
27671W        W70662  15.613  26.294   2.287  0.0605  0.3960  0.0163
27672W        W70663  15.475  20.612  24.986 -0.1598 -0.1701 -0.1049
27673W        W70664  22.793  22.634   4.781  0.0647  0.2121  0.2774
27674W        W70665  19.038  29.950  27.173 -0.0685  0.4069 -0.3279
27675W        W70666  13.386   7.456  28.457 -0.1825  0.0754 -0.0432
27676W        W70667  22.114  20.021   8.082  0.1978  0.3890  0.0909
27677W        W70668  22.991  31.021  24.265 -0.2060  0.1561 -0.1641
27678W        W70669   2.280  10.321   6.262  0.1869 -0.1272  0.0364
27679W        W70670  19.927  17.593  28.709  0.0652  0.1364 -0.0190
27680W        W70671  27.453  34.029   8.992 -0.0487 -0.3866 -0.1384
27681W        W70672   6.701  25.990  28.091  0.0301 -0.1679  0.1777
27682W        W70673  15.781  23.554   7.317  0.1221 -0.0975  0.1429
27683W        W70674  31.107  32.014   0.540  0.3025 -0.2353  0.0549
27684W        W70675  22.093  28.310  17.927 -0.2779 -0.0262  0.3748
27685W        W70676  31.158  31.029   4.286 -0.0032  0.2293 -0.0721
27686W        W70677   9.254   2.298   6.315 -0.0331  0.5057 -0.1400
27687W        W70678  31.401  24.986   4.949  0.1103 -0.3118 -0.0522
27688W        W70679  22.675  25.844   4.800 -0.1048  0.0084 -0.4013
27689W        W70680   1.397  27.944   7.817 -0.3463  0.1484  0.3082
27690W        W70681   3.754   7.594   8.013 -0.0115 -0.0938 -0.2544
27691W        W70682  19.133  27.050   9.642  0.0580  0.0604  0.0794
27692W        W70683   7.266   2.407  23.074  0.1675 -0.0482  0.0138
27693W        W70684  28.601  27.949   8.164 -0.0864  0.0132  0.2358
27694W        W70685  11.829  12.982   5.528  0.2628 -0.0533  0.0924
27695W        W70686  14.474  17.004   5.846 -0.1238  0.0047  0.1365
27696W        W70687  24.279  29.096   6.309 -0.0045 -0.0113  0.1164
27697W        W70688  23.059  20.603   1.515  0.1626  0.2302  0.1811
27698W        W70689  27.853  24.872   3.136  0.1319 -0.4091  0.1291
27699W        W70690  34.166   2.727   4.943  0.0489 -0.2165 -0.1766
27700W        W70691  31.165  23.555   1.323  0.1857  0.0416 -0.0961
27701W        W70692  12.105  23.020   3.797  0.1344 -0.0690  0.0199
27702W        W70693  14.228  16.239   1.751  0.1286  0.0947 -0.1020
27703W        W70694   0.224  24.880   0.666  0.0178  0.0342 -0.1323
27704W        W70695  10.500  24.953  24.540 -0.2223 -0.0650  0.1371
27705W        W70696  34.208  26.589   4.576 -0.4135  0.0459  0.2225
27706W        W70697  31.020   2.495  25.017  0.2902  0.2351 -0.1776
27707W        W70698  25.406  13.674   2.517 -0.0152  0.3963 -0.0188
27708W        W70699  28.808  13.178  16.086  0.0813  0.1957  0.1538
27709W        W70700  29.980  26.328   9.583 -0.2285 -0.3016  0.0708
27710W        W70701  12.492  32.659   3.685  0.0890  0.1898  0.1533
27711W        W70702  28.262  31.644   8.003 -0.1804 -0.1617  0.1914
27712W        W70703  21.644  32.105   4.959  0.1875  0.1011  0.0857
27713W        W70704  12.238  21.519  28.564 -0.1222 -0.0620  0.2068
27714W        W70705   2.007  23.945  10.490 -0.1740  0.3174  0.1000
27715W        W70706   4.416  17.173   4.516  0.1145  0.0307 -0.1398
27716W        W70707  33.875  27.119  17.244  0.2048 -0.4292  0.0184
27717W        W70708  21.368   1.907   4.444  0.0089  0.0800 -0.1472
27718W        W70709   5.258  20.380   5.700  0.1590  0.1070 -0.0757
27719W        W70710  20.475  24.456   1.341  0.0745 -0.1713  0.0604
27720W        W70711  16.849  22.231   3.606 -0.0787  0.1042 -0.3156
27721W        W70712   0.209  32.101   9.685 -0.0026 -0.0129 -0.0727
27722W        W70713  20.062  26.240   3.461 -0.1490  0.1026 -0.1999
27723W        W70714  23.721  30.834   6.712  0.0592 -0.1520 -0.2058
27724W        W70715  25.478   8.122   3.733 -0.1686  0.0395 -0.1356
27725W        W70716  21.958  28.560  27.958  0.1253  0.0869  0.3648
27726W        W70717   4.355  10.077  28.192  0.0617  0.2345  0.2706
27727W        W70718  15.381   3.955   6.552 -0.0015  0.0443 -0.3263
27728W        W70719  18.165   4.468   5.199  0.1103 -0.1261  0.1239
27729W        W70720  18.272  28.643  24.874 -0.1326 -0.0212 -0.0477
27730W        W70721   5.911  16.703  24.034 -0.0150 -0.0317 -0.2630
27731W        W70722  17.123  19.984  27.562 -0.1044 -0.2591  0.1586
27732W        W70723  23.132   1.173   1.284  0.0295  0.1039 -0.1843
27733W        W70724  26.059  28.982  25.025  0.0710  0.0421 -0.0850
27734W        W70725  25.071  21.446   7.394 -0.0614 -0.1058  0.2965
27735W        W70726  12.014  12.075  10.771 -0.1880  0.1866  0.0225
27736W        W70727  23.867   5.391   4.216  0.0061 -0.1596 -0.0144
27737W        W70728  13.400  25.457   2.791 -0.0487  0.0893  0.2328
27738W        W70729   4.284   0.167   6.972 -0.0090  0.0900 -0.0646
27739W        W70730  27.437  29.179   8.351  0.1912 -0.0104 -0.2504
27740W        W70731  19.015  33.737  27.498  0.1596 -0.0349 -0.1715
27741W        W70732  12.694  21.891   8.825  0.0854  0.0602  0.2578
27742W        W70733  15.626  17.792   2.973  0.0424 -0.0114  0.0855
27743W        W70734  15.262   2.927   7.537 -0.0018 -0.3250  0.0879
27744W        W70735  24.665  10.579  24.806  0.1211 -0.2877  0.1732
27745W        W70736  27.705  21.145   6.519 -0.0274 -0.1323  0.1177
27746W        W70737  23.192  17.306  21.984 -0.2367  0.0963 -0.0373
27747W        W70738  15.783   1.494  27.971 -0.0414 -0.0709  0.0544
27748W        W70739  16.535  17.337  28.617 -0.0163 -0.0289  0.3958
27749W        W70740  23.290  10.631   4.545 -0.1338  0.2232 -0.2676
27750W        W70741  16.244  17.823   6.643  0.1878  0.2530  0.1127
27751W        W70742   7.624  26.375   1.597  0.0272 -0.0355 -0.0351
27752W        W70743  22.070   7.582   7.619  0.1181 -0.3566  0.0653
27753W        W70744  31.262  12.875   7.500 -0.1854  0.3485  0.0442
27754W        W70745  17.715  13.996   6.244 -0.1013 -0.0125  0.1016
27755W        W70746  12.955  26.244   8.770  0.0132  0.1520 -0.0210
27756W        W70747  17.526  21.824  28.358  0.2044  0.1760  0.3344
27757W        W70748  34.370  29.090   3.056 -0.3134  0.3859 -0.0457
27758W        W70749  20.094  19.431   8.022  0.1061  0.1956  0.0395
27759W        W70750  12.434  16.748   0.268 -0.1343  0.0719  0.2353
27760W        W70751  14.973   6.138   9.719  0.4015 -0.0212  0.1724
27761W        W70752  14.644  25.233  19.194 -0.1891 -0.1417 -0.0175
27762W        W70753  23.212  12.732   7.630  0.1856 -0.1673 -0.1750
27763W        W70754  26.815  26.155  28.093  0.4068  0.0946 -0.2680
27764W        W70755  19.555  27.057   0.144 -0.1357 -0.0947  0.0090
27765W        W70756   3.459  25.777   9.636 -0.1340  0.0678 -0.3475
27766W        W70757  26.352  22.335  26.386  0.1386  0.2316  0.2309
27767W        W70758  18.434  34.035   7.448  0.2439  0.2617 -0.3847
27768W        W70759  30.700  21.579   3.192  0.0013 -0.0621  0.2290
27769W        W70760   0.231  24.280  23.124  0.1068 -0.0041 -0.0831
27770W        W70761  29.183  30.008   7.279 -0.0588 -0.0469  0.1939
27771W        W70762   2.934  20.585   2.724  0.0290  0.0265  0.1859
27772W        W70763  10.539  32.516   5.394  0.3641  0.3303 -0.0552
27773W        W70764  23.094   2.882   7.129 -0.0770 -0.3752  0.2065
27774W        W70765  28.327  17.805   7.791  0.1627  0.2504 -0.6095
27775W        W70766   4.090  10.079  20.417  0.0924 -0.1936 -0.1286
27776W        W70767  21.714  23.301   5.588  0.3975 -0.2839  0.2883
27777W        W70768  19.222  31.351   1.869  0.1596 -0.1844 -0.1124
27778W        W70769   7.282   5.791  15.612  0.1156 -0.1794  0.1998
27779W        W70770   0.025  29.715  21.869  0.0032  0.1365 -0.0632
27780W        W70771  13.187  14.932  24.714  0.1025 -0.1584  0.1233
27781W        W70772   4.590  13.218   7.238 -0.0569  0.1663 -0.2345
27782W        W70773  11.067  25.257   1.656 -0.2151  0.0157 -0.3593
27783W        W70774  16.443  25.426   7.977  0.2538  0.1362 -0.1032
27784W        W70775  17.807  24.050  28.490  0.5066 -0.0746  0.0747
27785W        W70776  22.052  15.852   2.988  0.1301 -0.1338 -0.2109
27786W        W70777   9.351  21.253   0.564 -0.0928  0.0366  0.2967
27787W        W70778  23.554  17.038   2.099 -0.0714  0.1110 -0.0191
27788W        W70779   7.401  11.286  28.782  0.0282 -0.0187  0.0548
27789W        W70780  30.688  33.171   8.366 -0.1163 -0.0268 -0.0402
27790W        W70781  21.401   7.554   6.212  0.1866  0.2334  0.3025
27791W        W70782   2.439  25.595   1.570 -0.1667 -0.2994 -0.2198
27792W        W70783  27.390  33.769  27.154  0.1747  0.1510  0.0088
27793W        W70784  31.383  28.522  22.078  0.1094 -0.0555 -0.3373
27794W        W70785   5.752  29.318   7.610  0.0651 -0.0361 -0.0972
27795W        W70786  13.921   7.959   4.240  0.0014 -0.2194 -0.0433
27796W        W70787  16.446  30.577   6.628  0.1842 -0.1957  0.0138
27797W        W70788  27.381  34.701   5.535 -0.4633  0.1391  0.0181
27798W        W70789  27.537  18.695   2.665  0.1443  0.0142  0.3391
27799W        W70790  20.857  29.335   6.063 -0.0714  0.1639  0.1134
27800W        W70791  11.289  18.388  28.498  0.0778 -0.1719 -0.2371
27801W        W70792  19.689  31.255   0.552 -0.0097  0.3127 -0.1270
27802W        W70793   9.443   0.292   1.334 -0.1738  0.3707 -0.0863
27803W        W70794  26.191  30.594   7.124  0.0832 -0.2214  0.1363
27804W        W70795  29.376  29.939  27.958  0.3360 -0.0073  0.2105
27805W        W70796  18.871  21.206   2.159  0.2197 -0.1611  0.0490
27806W        W70797  12.097  27.675   5.703 -0.3964  0.1865 -0.1078
27807W        W70798  32.277  26.242   2.924 -0.1360  0.1368 -0.0708
27808W        W70799  13.388  15.248  21.876 -0.0654  0.2543  0.1992
27809W        W70800   4.593  26.199  26.262 -0.1927  0.0222 -0.1571
27810W        W70801  19.902   5.254   8.753 -0.1270  0.1632 -0.2412
27811W        W70802  33.155  29.206   3.648 -0.0682 -0.1061 -0.0204
27812W        W70803   4.788  15.202   0.651 -0.1286 -0.1538 -0.2956
27813W        W70804  22.086  23.731   6.595 -0.0764 -0.0141  0.2115
27814W        W70805  16.956  28.516   6.050  0.1438 -0.1729  0.0097
27815W        W70806  24.014  10.487   5.553 -0.2841 -0.0169  0.1683
27816W        W70807   2.760  31.445  21.894  0.1635  0.1857 -0.1626
27817W        W70808  20.494  14.447   9.698  0.1853 -0.1643 -0.0660
27818W        W70809   9.827  25.141   3.048  0.2092  0.3212  0.0188
27819W        W70810  27.700  33.229   7.364 -0.4036  0.0537 -0.0765
27820W        W70811   3.538  17.673  27.635  0.2620  0.1437  0.1589
27821W        W70812  12.081  22.734   2.860 -0.1395  0.2526 -0.1398
27822W        W70813  34.264  31.773   8.544  0.1227  0.1137  0.0522
27823W        W70814  21.806  18.130  27.998  0.2017 -0.1195 -0.0506
27824W        W70815  19.238  10.826   7.557 -0.0193 -0.0391  0.0677
27825W        W70816  27.225  22.885   3.532 -0.1450 -0.0486 -0.1951
27826W        W70817  21.455  17.294  25.414 -0.0549 -0.1666  0.2500
27827W        W70818  29.067  24.130  21.098 -0.1546 -0.1546 -0.0845
27828W        W70819   1.849  22.212   1.611 -0.2628  0.3239 -0.3901
27829W        W70820  30.832   1.811   0.223  0.1794  0.0734 -0.0296
27830W        W70821  15.263  27.124  15.008 -0.0749 -0.1384 -0.1105
27831W        W70822  15.675  33.955   2.277  0.1059 -0.1169 -0.1802
27832W        W70823  33.505  32.736  26.300  0.0876  0.1850  0.0122
27833W        W70824  16.074  29.586   9.153  0.1008  0.4694 -0.0756
27834W        W70825  24.285  32.489   0.044  0.3083  0.0668  0.0458
27835W        W70826   0.413  34.179   4.614  0.0987  0.2031 -0.1195
27836W        W70827  15.792  10.309   8.860 -0.0524 -0.0773 -0.2620
27837W        W70828  34.398  19.168  21.134  0.1643 -0.1218  0.3386
27838W        W70829  23.251  19.629  21.145  0.2366  0.1874 -0.0711
27839W        W70830  34.683  16.094  10.865  0.3877 -0.2093  0.0483
27840W        W70831  23.493  28.114   3.496 -0.3143 -0.1423 -0.0025
27841W        W70832   0.726  21.298   3.775  0.1879  0.1552 -0.0464
27842W        W70833  23.892  11.159  25.376 -0.0661  0.1124  0.0308
27843W        W70834  18.797  24.514   5.687  0.1963 -0.1319 -0.0557
27844W        W70835  18.403  10.934   3.784 -0.2140 -0.2014 -0.1444
27845W        W70836  22.865  32.202  25.685 -0.2775  0.3718  0.0337
27846W        W70837  18.815   3.416   4.257  0.4433 -0.1859 -0.2544
27847W        W70838  19.330  28.265   9.803 -0.0498  0.1192  0.0806
27848W        W70839  28.245  34.411  23.330  0.3452  0.1098 -0.1207
27849W        W70840  16.423  19.485   5.938 -0.0451  0.2097 -0.0386
27850W        W70841  32.094   4.987  25.723  0.2363  0.0740 -0.2958
27851W        W70842  28.733  22.302  23.397  0.0793  0.0707  0.1287
27852W        W70843  29.907  29.713  22.126  0.2573 -0.2558  0.2659
27853W        W70844   9.655  32.639   7.164 -0.0426 -0.0049 -0.0087
27854W        W70845  16.345  14.225   0.074  0.0283 -0.2674 -0.2551
27855W        W70846  25.023  13.945  24.753  0.1643  0.1488 -0.1807
27856W        W70847  30.075  27.908   6.803 -0.2155 -0.0119 -0.0995
27857W        W70848  20.955  20.691  28.402 -0.0179 -0.2277  0.0819
27858W        W70849  23.196  15.842   7.621 -0.1714 -0.0029  0.0405
27859W        W70850  24.465  16.562  20.311 -0.2522 -0.2537 -0.2670
27860W        W70851   7.443  29.370   4.904  0.0425 -0.1893 -0.0777
27861W        W70852   2.957  19.523   7.863  0.3707  0.0532 -0.0583
27862W        W70853  19.740  25.523   6.707 -0.2274  0.0541 -0.1733
27863W        W70854   0.209  19.202   4.412  0.1723 -0.0078  0.0728
27864W        W70855  17.749  21.645  22.958  0.0282 -0.2399 -0.2481
27865W        W70856  18.541  30.253   9.152  0.0753  0.2423 -0.0441
27866W        W70857  24.319  16.260  25.330 -0.0557  0.0425 -0.2026
27867W        W70858  21.762  19.319   1.305  0.0524 -0.0249 -0.0324
27868W        W70859  27.465  17.669  10.832  0.0887 -0.0260  0.1044
27869W        W70860  20.539  14.462   0.084  0.0073 -0.5961  0.0785
27870W        W70861  12.888   1.077   3.770  0.1979 -0.1760 -0.0710
27871W        W70862  24.359  25.060   7.013  0.1273 -0.0594  0.0570
27872W        W70863  19.392  27.792  26.665 -0.0467  0.2120  0.0933
27873W        W70864  27.169  13.811   9.965  0.1104 -0.2734  0.2001
27874W        W70865   5.785  11.692   5.329  0.0503 -0.0441  0.0561
27875W        W70866  21.734  26.217   7.317 -0.1926  0.0351  0.3562
27876W        W70867  22.505   3.180   6.157  0.0506 -0.0837  0.0736
27877W        W70868  16.453  13.919   5.292  0.1078  0.3306 -0.0428
27878W        W70869  24.291  26.230  27.726  0.1171 -0.0760 -0.1849
27879W        W70870  23.977  28.348  24.968  0.0063 -0.0454  0.0844
27880W        W70871  20.445  20.906  24.289  0.1525  0.0183 -0.0106
27881W        W70872  15.384  31.530  24.246 -0.0882 -0.1053  0.0238
27882W        W70873  31.546  19.512   6.095  0.0750 -0.0525  0.0913
27883W        W70874  27.549  15.661   8.275 -0.2116  0.2896  0.1263
27884W        W70875  22.219  19.003  13.605 -0.0961  0.0696 -0.2012
27885W        W70876  21.414  33.409   2.058  0.1336 -0.3561 -0.0730
27886W        W70877  17.333  17.457   1.561 -0.3045  0.0571  0.1853
27887W        W70878  23.203   6.663  29.177 -0.2574  0.1199 -0.2260
27888W        W70879   5.052  13.423  19.534 -0.1521  0.2096  0.4407
27889W        W70880   0.943  21.295  28.175 -0.0765  0.1045 -0.0881
27890W        W70881  24.288  25.266   4.642  0.1342 -0.1666  0.0295
27891W        W70882  20.660  28.581   2.112  0.1977  0.1233 -0.1597
27892W        W70883  33.092  29.067   4.214  0.0608  0.1670 -0.2470
27893W        W70884  18.354  23.220   4.579  0.0765 -0.0207 -0.3121
27894W        W70885  16.536  22.785  23.093 -0.0677  0.1267  0.1244
27895W        W70886  18.630  28.458  21.136  0.0227 -0.1382 -0.1239
27896W        W70887  28.183   9.000  23.644  0.0373 -0.0444  0.1802
27897W        W70888  21.607  21.905   9.277 -0.0233 -0.2028 -0.0330
27898W        W70889  30.907  27.180   1.292  0.0531  0.0290  0.1283
27899W        W70890  13.419  14.576   1.474  0.1154  0.2862 -0.0317
27900W        W70891  33.905  33.129   6.056 -0.1942  0.1500  0.0305
27901W        W70892   4.642  11.950   4.869 -0.0446  0.3582 -0.0309
27902W        W70893  21.618   9.000  21.013  0.2418 -0.3466 -0.0755
27903W        W70894  13.456  29.721   7.722  0.0801  0.0250  0.0569
27904W        W70895   7.207  31.131  24.253  0.0591  0.0926  0.0060
27905W        W70896  19.447  13.665   7.502  0.0210 -0.3356  0.1762
27906W        W70897  14.965  22.952   4.029  0.0813 -0.0558  0.1934
27907W        W70898  34.742  26.752   9.251 -0.2978  0.3025 -0.1147
27908W        W70899  34.698  17.307   7.112 -0.3530 -0.2146 -0.2127
27909W        W70900   3.346  20.795  28.362 -0.0023 -0.1522 -0.2673
27910W        W70901   1.004  27.912   8.727 -0.0686  0.0615  0.0293
27911W        W70902   3.568  12.837  27.255 -0.0218 -0.0703  0.2012
27912W        W70903  22.525  14.931   2.521  0.0772 -0.0010  0.4011
27913W        W70904   8.696  26.037   4.966 -0.2728 -0.2433 -0.2591
27914W        W70905  16.564  22.967  26.179 -0.1523  0.0373 -0.3206
27915W        W70906  30.565  15.111   9.281  0.0166  0.2028 -0.1919
27916W        W70907  23.179  18.631  27.015  0.1028  0.2187  0.1694
27917W        W70908  17.104  24.853   2.031 -0.1383  0.3080 -0.0541
27918W        W70909  25.670  14.675   7.187  0.1337 -0.2589 -0.1187
27919W        W70910  23.425  14.759  19.983  0.0943  0.2625  0.5352
27920W        W70911  22.232  25.200  23.143  0.1026 -0.1938  0.0735
27921W        W70912  27.122  34.596   2.626  0.0714 -0.1031 -0.1597
27922W        W70913  20.649  15.722   4.122 -0.0473 -0.0134  0.3155
27923W        W70914  30.447  29.404   1.691 -0.1466 -0.0864  0.0571
27924W        W70915  11.909  18.660   8.413 -0.4068 -0.1235 -0.2010
27925W        W70916  12.256  29.071   2.396  0.3311  0.0791 -0.0433
27926W        W70917  19.932  26.675   5.958  0.1887 -0.1921  0.1624
27927W        W70918  29.740   4.753   5.333 -0.1413 -0.1756 -0.2150
27928W        W70919  14.991  16.003   5.364 -0.2280 -0.4874 -0.1542
27929W        W70920  22.198   9.003   3.186 -0.2203 -0.0089 -0.1720
27930W        W70921  19.757  31.655   2.662 -0.2154  0.2609 -0.1495
27931W        W70922  34.655  30.792   2.330  0.0426  0.0952 -0.1841
27932W        W70923   5.741   2.622   2.302 -0.0904 -0.1577 -0.1218
27933W        W70924  29.859   1.314  24.620  0.4601  0.1201  0.2670
27934W        W70925  20.411  24.301  26.774  0.0324  0.0426 -0.0182
27935W        W70926  13.266  28.480   5.178 -0.2645 -0.1500 -0.0558
27936W        W70927  26.477  20.257   8.715 -0.2052 -0.0616 -0.2124
27937W        W70928  16.607   9.298   2.148 -0.3183 -0.0058 -0.1550
27938W        W70929  20.599  32.738   9.280 -0.2410  0.1297 -0.0625
27939W        W70930  30.148   2.567   7.529  0.2704  0.1735 -0.1731
27940W        W70931  22.266  23.719  26.058  0.0944 -0.1329  0.1055
27941W        W70932  27.198  20.689  21.617 -0.0314  0.0169  0.1692
27942W        W70933  15.345  23.773   4.014  0.1066 -0.2403 -0.0605
27943W        W70934  22.936  25.725  28.550  0.0041 -0.0641 -0.0024
27944W        W70935  19.070  14.826  24.282 -0.2312  0.2705 -0.4591
27945W        W70936   0.423  31.058   7.123 -0.1235  0.0803 -0.3610
27946W        W70937  29.639   7.011  22.332  0.3275  0.0305 -0.1509
27947W        W70938  11.991   1.256   0.907  0.0566  0.1532 -0.1881
27948W        W70939  32.359  32.244   2.006 -0.4052 -0.2443 -0.0197
27949W        W70940   1.058  17.486   2.607  0.0775  0.1850 -0.1717
27950W        W70941  30.939  26.246   8.263 -0.0504 -0.2372 -0.0504
27951W        W70942  24.257   1.924   7.808  0.5085  0.0738 -0.1159
27952W        W70943   5.346  28.412  28.661 -0.0310  0.1113 -0.2806
27953W        W70944   3.073  21.901   5.560  0.2032 -0.1664  0.2467
27954W        W70945  31.652  23.115  27.855  0.1152 -0.0980 -0.1350
27955W        W70946  30.455  23.279   9.297 -0.2382 -0.0815 -0.2174
27956W        W70947  33.950  10.782   9.925  0.2059 -0.0248  0.0815
27957W        W70948  34.478  11.211  25.630  0.1106  0.3596 -0.5023
27958W        W70949  25.283   1.119   5.948  0.2879 -0.0867  0.2861
27959W        W70950   3.290  24.526   6.496 -0.2967  0.0006 -0.2572
27960W        W70951   0.830  25.921   0.032  0.0637 -0.0955 -0.0444
27961W        W70952   1.153   9.985  20.579 -0.2813  0.1523  0.0410
27962W        W70953   4.350  29.646   3.537 -0.0885  0.3062 -0.0311
27963W        W70954   1.384   6.233  10.450  0.2872  0.0059  0.1491
27964W        W70955  12.068  14.963   1.115  0.1189 -0.0561 -0.0816
27965W        W70956  29.581   0.449  28.797  0.1786 -0.2875  0.2249
27966W        W70957  33.928  15.729   1.319 -0.0016 -0.1265 -0.1829
27967W        W70958  28.430   1.183   4.571  0.1317 -0.1146  0.1431
27968W        W70959   7.898  21.682  26.238  0.1941 -0.2666 -0.1733
27969W        W70960  25.879  31.105  28.263  0.1646  0.3428  0.0850
27970W        W70961  12.088  22.602   5.412  0.0785 -0.0662  0.1158
27971W        W70962  25.713   5.458  13.313  0.1244 -0.2535 -0.0720
27972W        W70963  15.341   7.998   6.059  0.2283 -0.2247  0.0852
27973W        W70964   4.394  12.771  21.626  0.1815  0.0165 -0.1082
27974W        W70965  11.254   5.407  26.520 -0.1334 -0.4170  0.0065
27975W        W70966   8.657  28.827  25.511 -0.1126 -0.1418 -0.0782
27976W        W70967  19.556   8.042  18.576  0.0005 -0.0590 -0.0455
27977W        W70968   3.784  22.487   9.191  0.1163  0.1537 -0.0787
27978W        W70969  16.781  24.466  27.290  0.2505 -0.1570 -0.0762
27979W        W70970  24.626  29.798   7.268 -0.0457  0.1555  0.0940
27980W        W70971  28.449  29.271  22.702 -0.1656 -0.1217  0.0502
27981W        W70972  29.416   6.338  27.470  0.3495 -0.1038 -0.0383
27982W        W70973  23.758  12.359   9.412  0.0313 -0.0726  0.0250
27983W        W70974   1.004  31.801   9.346  0.1186  0.0689  0.1027
27984W        W70975  29.874  33.726  27.276  0.2045 -0.1390 -0.4601
27985W        W70976  29.947  29.366   8.345 -0.3542  0.0130  0.0033
27986W        W70977  34.738  25.470   7.566 -0.1191 -0.0406 -0.0702
27987W        W70978  33.380   4.252   5.476  0.0037  0.3234  0.0543
27988W        W70979  18.979  30.969  24.904  0.4726 -0.3247  0.3296
27989W        W70980  14.910  14.574  13.460  0.0772 -0.1326  0.0657
27990W        W70981  33.661  12.087  25.380  0.1329  0.0462 -0.0617
27991W        W70982  34.730  18.774  10.200 -0.1007 -0.1908  0.1935
27992W        W70983  20.442   1.258  22.247 -0.1140 -0.1886 -0.1774
27993W        W70984  21.369  23.961  29.154  0.0894  0.0353  0.0417
27994W        W70985  26.845  25.831   8.599 -0.1048 -0.3239 -0.0668
27995W        W70986  22.683   5.440   8.303  0.4084  0.1816 -0.3230
27996W        W70987  10.822   6.752  21.188 -0.2987  0.2585  0.1961
27997W        W70988  32.687  33.236   6.745 -0.1926 -0.2029  0.0421
27998W        W70989  11.853  23.638   2.936 -0.0913 -0.3294 -0.0659
27999W        W70990  20.283   5.630  20.991 -0.0083  0.0919  0.2791
28000W        W70991   4.632  19.044   4.571  0.1369  0.1770 -0.1287
28001W        W70992   0.366   2.148  22.883 -0.3604  0.1560  0.0691
28002W        W70993  20.543  33.282   5.291  0.0942  0.1424 -0.1574
28003W        W70994  10.887  10.769   8.955  0.4140  0.3952  0.3854
28004W        W70995   3.019  26.411   6.210  0.0727  0.0627 -0.1158
28005W        W70996  30.742   5.691  28.631  0.0429 -0.1441 -0.0310
28006W        W70997  15.517   6.320   8.039  0.2256  0.1677  0.0305
28007W        W70998  33.043  21.639  18.388 -0.0349  0.1639 -0.4488
28008W        W70999  17.508  22.437   0.867 -0.1129  0.0395  0.0824
28009W        W71000  12.542   5.030  27.456 -0.0361 -0.1794 -0.0864
28010W        W71001  28.985   0.572   7.887  0.3992  0.0149  0.1206
28011W        W71002   9.689  28.768   9.065 -0.1728 -0.1566 -0.2783
28012W        W71003  10.907  20.598   1.427  0.1558  0.2448  0.4067
28013W        W71004  11.802  23.597  18.359 -0.0931 -0.2461 -0.0570
28014W        W71005  29.114   7.618  21.088 -0.1357  0.1589  0.0936
28015W        W71006  29.675   2.114   8.327  0.0817 -0.0432  0.1419
28016W        W71007  27.776   0.590  22.104  0.2986 -0.2300  0.0292
28017W        W71008  23.289  27.746  13.866  0.2983 -0.1498  0.0070
28018W        W71009  27.763  33.722  29.157  0.0746 -0.1027 -0.2427
28019W        W71010   0.973  20.620   0.442 -0.2926 -0.2373 -0.0475
28020W        W71011  34.039  18.574  27.189  0.0967  0.0542 -0.6074
28021W        W71012  26.974  21.455   7.731 -0.2220  0.1964 -0.0701
28022W        W71013  19.708  29.263  23.543  0.1698  0.1185  0.1595
28023W        W71014  19.978  32.698   1.775  0.3637 -0.0577 -0.0232
28024W        W71015  25.148  24.988   3.574 -0.1503  0.2280 -0.3425
28025W        W71016   4.779   4.394  26.558  0.1074 -0.1970  0.2699
28026W        W71017  12.140   1.510   8.998  0.1910 -0.1154 -0.1401
28027W        W71018   7.650  25.004   8.471 -0.1284  0.0409 -0.2094
28028W        W71019   2.052  18.510  24.594  0.1286 -0.0674  0.1627
28029W        W71020  33.695  29.474   0.706 -0.0108  0.0853 -0.0794
28030W        W71021  24.985   3.688   4.334 -0.1214 -0.1639 -0.1620
28031W        W71022   8.596  26.053   7.863  0.2365  0.0384  0.0260
28032W        W71023  31.004   6.867  18.199  0.0425 -0.0850 -0.1686
28033W        W71024  19.117  25.418  23.383  0.2151  0.2649  0.1126
28034W        W71025  25.012   1.046   2.638  0.0398  0.0332  0.1579
28035W        W71026   7.413  17.776  22.610  0.1017 -0.0225  0.0839
28036W        W71027  11.527   9.247   4.428  0.1970 -0.0897  0.1042
28037W        W71028  31.201  17.396  23.238  0.1070 -0.0927  0.1061
28038W        W71029  19.542  17.092   2.276 -0.2382  0.0897 -0.0757
28039W        W71030  27.415  31.093   1.903 -0.2745 -0.0296 -0.0512
28040W        W71031  14.657   5.318  29.014  0.1715 -0.2734 -0.0480
28041W        W71032   7.862   4.316  23.612  0.1741  0.2234 -0.0553
28042W        W71033  29.593  23.164   4.073  0.0498  0.1651  0.2425
28043W        W71034  17.770  13.523   6.376 -0.1415 -0.4242  0.0232
28044W        W71035   1.299   8.696   8.937 -0.0394  0.2169  0.1770
28045W        W71036  18.300  30.975  23.997 -0.1304 -0.0174 -0.3633
28046W        W71037  19.388  24.337   5.483 -0.1727  0.1518  0.1558
28047W        W71038   4.523   6.779   0.956  0.3666 -0.0176 -0.0094
28048W        W71039  27.111  19.553   0.898  0.0938 -0.3333 -0.1587
28049W        W71040  30.591   7.406   2.315 -0.1646  0.3532 -0.2831
28050W        W71041  16.203  16.989  23.955 -0.2179  0.2421 -0.0783
28051W        W71042  15.329  30.402  25.663 -0.0568 -0.0475  0.0579
28052W        W71043  27.814  29.478   3.127  0.0385 -0.0199 -0.1091
28053W        W71044  30.122  26.758   0.712 -0.0145  0.0314  0.1145
28054W        W71045   1.838  20.620   0.512 -0.3736  0.1344  0.3947
28055W        W71046  20.132  30.571  28.555  0.0982  0.1050  0.2252
28056W        W71047  30.551   1.104  23.547 -0.1958  0.1072  0.1368
28057W        W71048   0.383  31.097  13.640 -0.0326 -0.0221  0.1207
28058W        W71049  33.369  26.499   8.980  0.1793 -0.2256 -0.2319
28059W        W71050  20.045   1.208   7.496 -0.1815  0.0839 -0.1036
28060W        W71051   0.748   7.916  28.666  0.0986 -0.1790 -0.1407
28061W        W71052  32.645   9.658  27.361  0.0697  0.2064  0.0745
28062W        W71053  15.210  25.875   3.723 -0.3430  0.0462  0.2480
28063W        W71054  12.778  13.774   4.003 -0.0704  0.0409  0.0630
28064W        W71055  22.989  33.545  16.210 -0.3879 -0.2663  0.1103
28065W        W71056  23.455   1.719   6.620 -0.5541 -0.2134  0.0619
28066W        W71057  30.217   7.091  18.215  0.1814  0.2631 -0.0146
28067W        W71058  20.197   1.377   2.991 -0.1945  0.1443 -0.3456
28068W        W71059  23.645  25.348   6.162 -0.0309  0.1163 -0.1111
28069W        W71060  31.344  13.253   6.110 -0.2759  0.1995 -0.0210
28070W        W71061  28.185  21.708   8.186  0.1211 -0.1811 -0.0193
28071W        W71062  26.773  23.445   3.350 -0.2958 -0.0474 -0.0995
28072W        W71063  27.846   1.053   6.807 -0.0771  0.2818  0.3962
28073W        W71064   6.549  33.765  25.911 -0.2071 -0.1239 -0.0947
28074W        W71065  28.279  13.046  28.779  0.3525 -0.0757 -0.0676
28075W        W71066   6.139  32.613   3.767 -0.0672  0.4219 -0.0840
28076W        W71067  26.096   0.277   4.487  0.0735  0.0156 -0.1040
28077W        W71068   1.680  22.066   9.773 -0.2502  0.0124  0.0989
28078W        W71069  19.782   0.092   0.157  0.0665 -0.0063  0.4713
28079W        W71070  22.994  26.911  15.963 -0.0724  0.1934 -0.1015
28080W        W71071  25.812  26.440   3.733 -0.2490 -0.0052  0.3022
28081W        W71072  20.907   4.352   5.390  0.0247  0.1401  0.0209
28082W        W71073   4.644  20.262  27.685 -0.0910 -0.0969  0.0664
28083W        W71074  23.682  23.595   2.244  0.0754 -0.1982  0.3461
28084W        W71075  20.302  17.440  13.467 -0.0223 -0.1241  0.3070
28085W        W71076   6.582  32.625   8.600 -0.0583 -0.2428  0.2844
28086W        W71077  13.738   3.537  25.696 -0.3730  0.0927 -0.1797
28087W        W71078   7.824  17.072  10.614  0.0962 -0.2170  0.0530
28088W        W71079  23.325  24.181  25.386  0.1989  0.0973 -0.0189
28089W        W71080  30.734   5.651  19.636  0.1355 -0.3106 -0.0031
28090W        W71081  27.759  24.527   6.643 -0.1888 -0.0209  0.0702
28091W        W71082  25.548   8.045  21.107 -0.2265 -0.0909 -0.1318
28092W        W71083  25.613  19.166   3.306 -0.3508 -0.2807  0.1042
28093W        W71084  23.703   4.633  28.337  0.1749  0.2133  0.0374
28094W        W71085  21.487   9.752  25.427  0.0452  0.1381  0.0030
28095W        W71086  25.298  24.747  27.364 -0.1114  0.2331 -0.1367
28096W        W71087  29.363  28.749  18.831 -0.0976 -0.0818  0.6071
28097W        W71088  31.972  27.581   3.991  0.1657  0.2144 -0.0819
28098W        W71089   4.043   4.839  27.759 -0.0561 -0.0842  0.6019
28099W        W71090  26.757  30.951  26.143 -0.0890 -0.2385  0.3001
28100W        W71091   0.648  21.624   7.215  0.0131 -0.1962 -0.2364
28101W        W71092  29.207  29.299   5.836 -0.0202  0.3102 -0.0894
28102W        W71093   8.340   7.352  29.031 -0.0996 -0.3972 -0.0584
28103W        W71094  27.072  34.786   6.284 -0.0924  0.1352 -0.1436
28104W        W71095   3.637  15.543  22.858 -0.0625 -0.0878 -0.0569
28105W        W71096  26.732  20.704   7.433 -0.0218 -0.2212 -0.1529
28106W        W71097  33.685  22.226   4.942  0.1465  0.0401  0.0754
28107W        W71098  31.595  30.521  27.412  0.2283  0.1067 -0.0730
28108W        W71099  23.867  11.251  14.043 -0.0628 -0.2913 -0.0802
28109W        W71100  23.729  32.575  17.876 -0.1608 -0.1237 -0.1731
28110W        W71101  26.766  17.936   2.830 -0.1253 -0.0225 -0.1694
28111W        W71102  23.698   1.389   1.480 -0.0366 -0.0349  0.4588
28112W        W71103  20.895  22.037  20.751 -0.1133 -0.3498  0.0176
28113W        W71104  12.447   1.916  27.589 -0.0270 -0.0992 -0.0664
28114W        W71105  27.426  22.224   8.291  0.2259  0.2311 -0.1218
28115W        W71106  21.811  31.216   4.868 -0.3739 -0.0510 -0.2909
28116W        W71107  27.414   5.762   4.438  0.2126  0.1095 -0.0028
28117W        W71108   6.858   3.001  29.193  0.2956 -0.2456 -0.2647
28118W        W71109  22.929  33.036  15.962 -0.0860 -0.3317 -0.4023
28119W        W71110  22.138   0.618  25.408  0.0360 -0.0172  0.0299
28120W        W71111  26.111   2.463   4.960  0.1867  0.0475  0.0882
28121W        W71112  11.820  22.681  23.817 -0.1434  0.0885  0.0414
28122W        W71113  11.522  15.426  23.761  0.0236 -0.0055 -0.0678
28123W        W71114  32.634   7.837  28.400 -0.2131  0.1363 -0.1080
28124W        W71115  34.307  24.163   9.398 -0.2820 -0.2703 -0.2032
28125W        W71116  21.850   2.030   8.251 -0.2390 -0.2972  0.0663
28126W        W71117   1.430  29.705   1.768 -0.2424 -0.0193 -0.2627
28127W        W71118   8.898  27.912   8.381 -0.0233 -0.2367 -0.1115
28128W        W71119  34.735  22.854  18.478 -0.0376  0.1741  0.0958
28129W        W71120   3.007   4.128   3.014 -0.0560 -0.0580 -0.2957
28130W        W71121  15.695  30.530  20.838  0.1799 -0.3242 -0.1506
28131W        W71122  18.669  34.485   5.921 -0.0715 -0.0226 -0.0603
28132W        W71123  21.022   1.178  21.848 -0.2474  0.1241  0.0040
28133W        W71124  27.940  33.669   7.470 -0.0183 -0.0673  0.1966
28134W        W71125  20.160  21.787   3.207  0.1426  0.3196 -0.1442
28135W        W71126  14.974   3.006   0.655 -0.0006 -0.0253 -0.2752
28136W        W71127  12.620  16.983   4.647  0.1284 -0.0569  0.0106
28137W        W71128  24.221  34.600  28.409  0.0202  0.1387  0.3678
28138W        W71129  13.291   7.386  22.868 -0.1582  0.4614  0.0206
28139W        W71130  17.712  25.308   6.400  0.4347  0.1518 -0.1643
28140W        W71131   9.173   4.148  16.661  0.3269  0.0986  0.0208
28141W        W71132   9.888  29.766  17.537  0.3048  0.0892 -0.2915
28142W        W71133  17.893  21.252   5.173 -0.3181 -0.3135  0.0080
28143W        W71134  23.755  25.585  25.910  0.2665  0.1768  0.0287
28144W        W71135   0.102   0.121  15.337 -0.1658 -0.1514  0.0259
28145W        W71136  15.743  19.607   6.994 -0.1477 -0.0357  0.2556
28146W        W71137  25.193  32.686   4.612  0.1877 -0.2893  0.0098
28147W        W71138  29.016  29.112  27.690  0.3014  0.0392 -0.0603
28148W        W71139  34.778  25.066  20.623 -0.1621 -0.1130  0.0418
28149W        W71140   0.635  25.163  16.094 -0.2264 -0.2791  0.0511
28150W        W71141  20.928  31.911   5.465 -0.0044 -0.3605 -0.1023
28151W        W71142  17.438  14.490   1.834  0.2327 -0.3058  0.0476
28152W        W71143  32.330  33.697   8.018 -0.0598  0.1947 -0.0831
28153W        W71144  13.207  11.726   8.704 -0.1215 -0.2177 -0.2323
28154W        W71145  11.586  14.120   3.309 -0.1253 -0.5114 -0.0396
28155W        W71146  33.196  23.774   1.303 -0.3220 -0.1424  0.2505
28156W        W71147  19.064  20.583  23.454  0.1015  0.0732 -0.2260
28157W        W71148  28.547  28.586  24.066  0.0982  0.0439 -0.2028
28158W        W71149  19.770  23.501   6.426  0.1747 -0.0583  0.0011
28159W        W71150   3.681  10.835   4.912  0.2529  0.2126  0.2648
28160W        W71151  10.378   9.099  24.948 -0.3019 -0.0405 -0.0223
28161W        W71152   6.575  33.633   2.456  0.1684 -0.1537 -0.0838
28162W        W71153  16.048   0.862   6.915  0.5013  0.3269  0.0983
28163W        W71154  16.484   4.616  16.176  0.2228  0.0014  0.2371
28164W        W71155  16.247  22.196  26.654 -0.1609 -0.1615 -0.0060
28165W        W71156   0.637   3.025   0.326  0.3303 -0.0392  0.0856
28166W        W71157  23.632  13.937   9.254 -0.0778 -0.0416 -0.0572
28167W        W71158   1.987  23.134   6.674 -0.1714  0.0206  0.1176
28168W        W71159  10.173  31.601   2.457 -0.2722 -0.1403  0.3396
28169W        W71160   5.639  15.259   6.729  0.1805 -0.0377 -0.0272
28170W        W71161   6.478  32.560  28.470  0.0532 -0.1229  0.1054
28171W        W71162  15.311  25.359   3.434  0.0361 -0.1956  0.0205
28172W        W71163  17.835   4.208   8.779  0.3450 -0.2057 -0.0221
28173W        W71164  29.966  32.675  24.640 -0.0587  0.0461  0.0553
28174W        W71165  23.941   0.710   0.657  0.0183  0.0259 -0.2850
28175W        W71166  32.926  12.233   6.267 -0.2390 -0.2702 -0.0554
28176W        W71167   7.463  22.455   0.450 -0.3190 -0.1200  0.1132
28177W        W71168  22.628  29.002  28.405 -0.1840  0.1622  0.5016
28178W        W71169  23.002   4.373   7.155  0.0451 -0.1477  0.2569
28179W        W71170  33.639   0.010  16.998  0.4188  0.1963 -0.2192
28180W        W71171  21.094  32.278  16.047 -0.2308 -0.1462  0.3348
28181W        W71172  28.972  14.842  20.082  0.0205 -0.2708  0.2911
28182W        W71173  33.782  31.456   7.166 -0.4260 -0.0276 -0.2152
28183W        W71174  12.637  32.077  27.605  0.0054 -0.0121  0.1477
28184W        W71175   5.615  16.402   7.699  0.2382  0.1351  0.2383
28185W        W71176  14.576  28.277   3.477  0.2347  0.2503  0.1158
28186W        W71177  12.883  23.820   7.921 -0.0723  0.2376 -0.3309
28187W        W71178  25.777   7.155   0.681  0.0621  0.0236  0.1165
28188W        W71179  22.652  20.248  27.712  0.1974 -0.2810 -0.1075
28189W        W71180   0.926  30.968   9.350  0.0583  0.1855 -0.0714
28190W        W71181  23.185  30.368  25.613 -0.0608  0.2263  0.2239
28191W        W71182  30.147  27.814   7.337 -0.2103  0.0015  0.1683
28192W        W71183  22.471  30.743   0.780  0.2626  0.3304 -0.0782
28193W        W71184   9.341  15.135  21.301  0.0696  0.2173  0.0385
28194W        W71185  11.584  23.095   9.054 -0.1588 -0.0023 -0.0729
28195W        W71186  32.713  11.311   8.821 -0.1761 -0.1025  0.0986
28196W        W71187  15.868  34.151   0.965 -0.1835 -0.1453  0.4261
28197W        W71188  25.211  24.235   2.844  0.4008 -0.1286  0.0487
28198W        W71189   1.987  14.383   8.275  0.1057 -0.0268  0.3208
28199W        W71190  22.673  26.475  16.030  0.0945  0.0835  0.2575
28200W        W71191  19.719   4.959  18.670  0.3690 -0.0342 -0.1388
28201W        W71192  26.825   8.514  27.992  0.1373 -0.3057  0.1259
28202W        W71193   9.917  32.726  27.604 -0.0069  0.1268  0.0416
28203W        W71194  20.189  19.132  24.428 -0.1821 -0.0864 -0.0893
28204W        W71195  24.042  32.061  22.244 -0.0219 -0.1320 -0.1314
28205W        W71196   6.996  30.075  28.559  0.0494  0.2131  0.1841
28206W        W71197  32.700  15.393  20.735 -0.0210  0.1394 -0.0387
28207W        W71198  26.051   3.055   1.705  0.0491 -0.0529 -0.0616
28208W        W71199  17.482   7.885  26.823  0.0314 -0.0899 -0.0211
28209W        W71200   0.176  19.800  26.797  0.3874 -0.2626 -0.0530
28210W        W71201   2.143  29.732   7.663  0.1880  0.0026 -0.0536
28211W        W71202  19.757  19.290   0.238  0.2482 -0.0101  0.2321
28212W        W71203   2.389  32.964  27.515  0.1101  0.0088 -0.1428
28213W        W71204  13.804  12.621  26.418  0.2575 -0.2596  0.4568
28214W        W71205   8.580  30.579  22.100 -0.1652 -0.0490  0.0329
28215W        W71206  25.433  15.991   8.824 -0.2802 -0.2885 -0.0974
28216W        W71207  23.249  20.548  28.476 -0.2741 -0.1337  0.1085
28217W        W71208  25.974   2.470   2.831 -0.0124  0.1354  0.1552
28218W        W71209  29.150   2.371   8.509 -0.0600 -0.1803  0.0751
28219W        W71210  16.775   7.842   7.203 -0.0939 -0.1813  0.0506
28220W        W71211  28.490  22.374   2.028 -0.2106 -0.1770 -0.2701
28221W        W71212  20.963  28.667   1.562 -0.0266 -0.4049  0.1292
28222W        W71213  24.822  32.908   6.705 -0.3634 -0.0852 -0.0193
28223W        W71214  11.210  31.179  26.113 -0.3374 -0.1869  0.1871
28224W        W71215  22.318  25.051  25.838  0.1688 -0.0909  0.1312
28225W        W71216  13.280  16.862   6.556 -0.3264 -0.0311  0.0543
28226W        W71217   6.410   1.651  20.488 -0.2949 -0.0259 -0.0416
28227W        W71218  19.931   4.661  26.940 -0.0848  0.0257  0.2551
28228W        W71219  25.422   4.333   1.221  0.1624 -0.1171 -0.0925
28229W        W71220   0.999   3.819  20.474  0.2727 -0.2278  0.1833
28230W        W71221  20.702  11.402  25.027 -0.0958  0.1992  0.2220
28231W        W71222  15.534  17.451   3.651  0.0336  0.0754 -0.0937
28232W        W71223  30.797   0.330  24.207  0.0899 -0.2724 -0.0767
28233W        W71224  10.218  12.633  28.014 -0.2878 -0.1701 -0.3066
28234W        W71225  18.925   3.370   1.958 -0.2406  0.0600  0.2474
28235W        W71226  13.636  15.071   9.782  0.0282  0.0093  0.4442
28236W        W71227   0.260  30.106  25.485  0.1181 -0.1275 -0.4692
28237W        W71228   5.537  22.065  26.205 -0.1811 -0.0625  0.2772
28238W        W71229   0.102   3.298  24.610  0.0820  0.0167 -0.2012
28239W        W71230  32.204  34.074  27.490 -0.0454  0.3720 -0.0039
28240W        W71231  33.541  26.389  14.493 -0.1787  0.1143 -0.0073
28241W        W71232  33.069   8.499   5.649  0.1269  0.2947 -0.0642
28242W        W71233   3.290  27.985   4.787  0.5024  0.2809 -0.2597
28243W        W71234  24.391  10.866  19.628  0.2783  0.1583  0.3596
28244W        W71235   8.040   4.687  27.210  0.1512  0.2031  0.0464
28245W        W71236  23.980  24.910  16.486 -0.1677  0.1436  0.1015
28246W        W71237   3.357  20.529   5.999  0.0743  0.1251  0.0641
28247W        W71238   0.617  27.287   0.265 -0.3572 -0.1490 -0.0475
28248W        W71239  19.575  31.240   8.120 -0.0024  0.3151 -0.1443
28249W        W71240  32.579   9.922  26.393 -0.3409  0.1358 -0.0872
28250W        W71241  14.982  30.195   0.766 -0.0764 -0.1864 -0.3028
28251W        W71242  23.745  17.110  27.284  0.1999 -0.1141 -0.3052
28252W        W71243   0.067  27.433   2.222  0.3512  0.0743 -0.0359
28253W        W71244  15.223  32.771   8.745  0.0673 -0.1477 -0.0278
28254W        W71245  25.431  19.316   7.655  0.1930 -0.1097 -0.1922
28255W        W71246  22.811   8.489   8.918 -0.0139  0.0477 -0.2358
28256W        W71247   4.595  27.298  22.619 -0.1574  0.1777  0.0663
28257W        W71248  30.259   0.967  16.823  0.0387  0.2882 -0.1990
28258W        W71249  10.090   2.507  18.780  0.1972 -0.2231  0.0335
28259W        W71250  31.592  14.461   3.217 -0.0405 -0.1269  0.4130
28260W        W71251   8.650  26.892   9.938 -0.2072  0.0732  0.1108
28261W        W71252  13.921   7.340   4.913  0.3758 -0.0503 -0.1523
28262W        W71253   9.846  24.536  21.028  0.2428 -0.0108 -0.1010
28263W        W71254  12.833   2.822  26.559  0.1831 -0.1302  0.1135
28264W        W71255  28.558  26.487   4.837  0.0689 -0.0435 -0.1407
28265W        W71256  24.937  26.691   7.390 -0.1325 -0.3998  0.0569
28266W        W71257  22.187  29.531  25.242  0.0252  0.2126 -0.3369
28267W        W71258  16.828  13.885  24.176  0.1068  0.1673  0.0791
28268W        W71259  33.599   5.356  28.995 -0.0520  0.0830  0.3693
28269W        W71260  30.060   9.453  22.719  0.2049  0.3563  0.0296
28270W        W71261  27.150  22.622   9.443 -0.5648  0.0840 -0.0454
28271W        W71262  30.912  17.245   8.297 -0.2024 -0.0395 -0.3900
28272W        W71263  25.102  18.579   8.436 -0.3026  0.0504  0.2504
28273W        W71264  24.565  25.880  14.901 -0.1849 -0.1795  0.0138
28274W        W71265  33.172   0.938  24.002  0.1994  0.2821 -0.1085
28275W        W71266  18.154  27.431  24.126  0.3440  0.1600 -0.2410
28276W        W71267  14.476  34.421  23.108 -0.0268  0.2055  0.2207
28277W        W71268   8.351   2.719  27.577  0.0582 -0.1725 -0.2837
28278W        W71269   4.449   6.101  27.546  0.0008  0.3213 -0.1345
28279W        W71270  17.611  25.106   0.891 -0.3506 -0.2199 -0.0022
28280W        W71271  22.505  31.197   6.515 -0.0549  0.0791  0.1718
28281W        W71272   1.389  22.615   2.430  0.0806 -0.0519  0.2311
28282W        W71273  26.781  23.131  25.451 -0.2822  0.0817 -0.4509
28283W        W71274  25.753  32.120   3.834  0.1516 -0.1193 -0.2180
28284W        W71275  26.298  23.990   6.665  0.1331 -0.3318 -0.2899
28285W        W71276   3.362  14.008   2.637  0.2633 -0.2781  0.2693
28286W        W71277  19.018  13.960   0.404 -0.1932  0.1501  0.2746
28287W        W71278  30.890  17.558  24.620  0.2074  0.0361 -0.3208
28288W        W71279  26.410  19.938   4.935  0.1786  0.0557  0.2256
28289W        W71280  23.711  28.096  15.385 -0.4158  0.0103  0.1578
28290W        W71281  28.226  23.045  17.418  0.0519 -0.3421 -0.0209
28291W        W71282  18.291  34.645   6.878  0.3168  0.1449  0.0494
28292W        W71283  30.662  24.805   5.896 -0.2690 -0.1648  0.0896
28293W        W71284  18.528  33.112  27.870 -0.1213  0.1316  0.0196
28294W        W71285  13.971  25.243  25.383 -0.1023  0.2348  0.2554
28295W        W71286  19.150  28.477  25.797  0.0987  0.1635 -0.0759
28296W        W71287  14.706  25.161  18.038 -0.1567 -0.0388  0.2056
28297W        W71288   0.563  16.372   3.430  0.2030 -0.5036 -0.0287
28298W        W71289  24.683  29.754  15.565  0.1730  0.0614 -0.1659
28299W        W71290  18.820  19.795   4.909 -0.0817 -0.2876  0.0676
28300W        W71291  31.363   4.915  10.026  0.0555 -0.2006 -0.0083
28301W        W71292  32.993  20.335   0.837  0.0374  0.2443  0.2132
28302W        W71293   3.018  27.895   6.280  0.0077  0.1391 -0.0739
28303W        W71294  19.945  16.851   1.218  0.0408 -0.0349  0.0987
28304W        W71295   7.488   7.435  25.187  0.1803 -0.0471  0.1551
28305W        W71296  24.152  24.518   0.630  0.3769 -0.1131  0.1827
28306W        W71297  33.998  21.961  14.522 -0.1420 -0.1892  0.1718
28307W        W71298   2.299  27.491  29.159 -0.2205 -0.1331  0.0987
28308W        W71299  17.395   2.490   9.043  0.1437 -0.0372 -0.0578
28309W        W71300   5.048  25.737  13.923  0.1308  0.1619  0.1362
28310W        W71301  24.323  20.842   2.796 -0.1386 -0.0727  0.1815
28311W        W71302  23.798   2.546   2.262  0.0251  0.0433 -0.1384
28312W        W71303  19.365   2.710   5.044 -0.2884  0.1260  0.2478
28313W        W71304  20.258  20.697   1.399 -0.3491 -0.0527  0.0540
28314W        W71305  31.606   0.100  26.618 -0.0140  0.1601 -0.0828
28315W        W71306  21.855  26.295   8.172  0.0991 -0.0874  0.0477
28316W        W71307  21.940   5.223   6.495 -0.0229 -0.1573 -0.1191
28317W        W71308  32.051  24.981   3.411  0.0904 -0.0264 -0.0612
28318W        W71309  34.772  25.253   2.181  0.0348  0.2147 -0.2010
28319W        W71310  28.477  26.559   7.373 -0.2226  0.0654 -0.2015
28320W        W71311  23.656  20.562   5.116  0.3845 -0.0392  0.4173
28321W        W71312  20.261   2.887   0.994 -0.1102 -0.0548  0.0049
28322W        W71313   0.013  33.467   2.218 -0.2107 -0.2392  0.1938
28323W        W71314  16.891  29.446  29.024 -0.0011  0.3001  0.1754
28324W        W71315  27.984  18.129  29.081  0.2433  0.2166  0.0176
28325W        W71316  32.947  20.301  24.959  0.0492 -0.0061 -0.0100
28326W        W71317  23.668  20.133  19.103 -0.2259 -0.0482 -0.2713
28327W        W71318  32.571  16.017   8.476 -0.1707  0.0598  0.0823
28328W        W71319   6.902  34.023   6.321 -0.2268  0.1631 -0.2035
28329W        W71320  12.424  25.121  24.593  0.1562 -0.0682 -0.2311
28330W        W71321  30.916  25.487   2.761  0.1811  0.4681 -0.0105
28331W        W71322  20.199   8.074   4.182 -0.0640  0.0016  0.2444
28332W        W71323  27.558  28.939   1.299  0.0335 -0.0771 -0.0551
28333W        W71324  26.459  21.237   1.073 -0.0226 -0.0925  0.1174
28334W        W71325  17.758  16.091   1.468 -0.3802 -0.0837  0.0629
28335W        W71326  17.358  30.788  27.473  0.0649  0.0112  0.0983
28336W        W71327  31.008  25.511   0.988  0.1149  0.0269  0.3192
28337W        W71328  26.331  16.688   5.107 -0.0939  0.2557  0.2533
28338W        W71329  13.608   3.154  21.193  0.2186 -0.4466  0.3653
28339W        W71330  29.408   8.644   2.622 -0.1357  0.2039 -0.1457
28340W        W71331  34.775  33.936   4.198  0.1723 -0.0242 -0.0503
28341W        W71332  22.408  17.920   3.869 -0.0842  0.2129 -0.1512
28342W        W71333  25.830  27.542  27.615  0.2971  0.1026 -0.2652
28343W        W71334  31.046   4.414   6.737  0.1711  0.0358 -0.0182
28344W        W71335   7.798  30.265   5.924  0.0978  0.1021 -0.1904
28345W        W71336  27.838   9.292  18.030 -0.2955 -0.2471 -0.3973
28346W        W71337  19.028  32.806   2.565 -0.0829  0.1369 -0.1348
28347W        W71338  14.320   2.826  21.705  0.1613  0.2127 -0.0335
28348W        W71339  33.744  28.518   1.084  0.0429  0.4226 -0.1665
28349W        W71340  20.334  29.547  28.194  0.0265 -0.0930 -0.0571
28350W        W71341  23.901  24.312  26.023  0.1355  0.1866 -0.1941
28351W        W71342  16.136  24.910  28.142 -0.2410 -0.0582 -0.2104
28352W        W71343  29.634   6.142  23.328 -0.2444 -0.0531  0.0096
28353W        W71344  10.239  15.881   3.842  0.2018  0.0715 -0.3115
28354W        W71345  27.876  24.569   0.013 -0.0667  0.3119  0.2387
28355W        W71346  24.341  19.807   2.972  0.1902 -0.2269 -0.1683
28356W        W71347   1.031   1.451   8.956  0.1275  0.0944  0.0765
28357W        W71348   5.725  31.066  24.406  0.0611  0.1511  0.0445
28358W        W71349  31.313  26.467   6.862 -0.0531 -0.0583  0.2887
28359W        W71350  20.497  16.467   3.637  0.0841 -0.0356  0.0290
28360W        W71351  24.872  26.681  19.635  0.0054 -0.1907 -0.5064
28361W        W71352  28.792  20.413  17.198 -0.0895  0.2129  0.1819
28362W        W71353  17.986  16.151  24.459  0.2250 -0.1052 -0.1005
28363W        W71354  33.561  17.055  11.104 -0.2563 -0.0212 -0.0088
28364W        W71355  27.112  22.455  19.925  0.1218  0.0090  0.1361
28365W        W71356  16.279  15.220  26.492  0.0191  0.1816 -0.2859
28366W        W71357  18.017   2.657   2.986  0.2501  0.0193 -0.1611
28367W        W71358  21.131  19.223  24.016  0.1227  0.1285  0.1217
28368W        W71359  25.653  18.974  28.141  0.0813 -0.1255  0.3374
28369W        W71360  32.280   2.867   4.122  0.1005 -0.3008  0.0507
28370W        W71361  27.699  22.928   2.030 -0.1871  0.0343  0.2518
28371W        W71362  23.375  21.890   9.691  0.0125 -0.0178  0.1245
28372W        W71363   1.972  28.414   0.813 -0.1953  0.1931  0.0330
28373W        W71364  30.694  31.660  26.957 -0.0016  0.0956  0.1709
28374W        W71365  24.025  28.338   9.644  0.1950  0.2946 -0.2532
28375W        W71366  12.979  30.891   7.469 -0.5599 -0.0052 -0.0575
28376W        W71367  19.123  11.929   3.929 -0.0525  0.4952  0.0659
28377W        W71368  19.404  21.511   2.328 -0.1605 -0.0475  0.3169
28378W        W71369  25.765   0.496   4.922  0.0279 -0.3425  0.0933
28379W        W71370  23.242  33.964   5.948  0.0639  0.2232 -0.0719
28380W        W71371  19.396  29.322   8.595  0.0571  0.1322 -0.1609
28381W        W71372  22.808  22.125   0.173 -0.1699 -0.2075  0.0774
28382W        W71373  20.527  21.867   2.859 -0.1235 -0.1165 -0.0676
28383W        W71374   4.174  25.093   9.586  0.0507 -0.3460 -0.0979
28384W        W71375  27.999  23.193   1.652 -0.3575 -0.0670 -0.0845
28385W        W71376  19.160  22.800   0.626 -0.2112 -0.0774 -0.0891
28386W        W71377  12.791  33.866  25.199  0.0091  0.2082 -0.2414
28387W        W71378  22.024  22.870   9.053  0.1203 -0.0663  0.0049
28388W        W71379   8.477  33.887  21.274  0.2924  0.0025 -0.1172
28389W        W71380   7.836   7.423  27.062 -0.0188 -0.0145  0.1110
28390W        W71381  11.317   2.811   3.738 -0.0827 -0.2071 -0.2319
28391W        W71382   0.865  28.151   1.417 -0.1296 -0.2907  0.1224
28392W        W71383   2.796  29.926   5.696  0.4559 -0.2132 -0.3238
28393W        W71384  20.661  32.081  21.616 -0.1948 -0.1092  0.4094
28394W        W71385  22.513  30.478   8.388  0.2530 -0.0309 -0.1477
28395W        W71386  16.657  15.046   0.259  0.0655  0.0357 -0.1274
28396W        W71387  21.320  16.844   4.790  0.0909 -0.2080  0.1938
28397W        W71388  30.709  32.754   3.606 -0.0656 -0.1398  0.2597
28398W        W71389  25.073  30.808   8.235 -0.2762 -0.2624  0.2134
28399W        W71390  27.402   0.802   1.074 -0.1252  0.2060  0.5224
28400W        W71391  27.280  22.699   1.084  0.1396  0.5564  0.0137
28401W        W71392  15.830   0.178  29.052 -0.0402  0.0288  0.0738
28402W        W71393  27.718   5.464   6.231 -0.1555 -0.0633  0.0201
28403W        W71394  27.135   8.635  28.839 -0.2277  0.0588 -0.1744
28404W        W71395  20.979  20.180   4.163  0.0436  0.2164 -0.0761
28405W        W71396  33.928  32.169   8.541 -0.1613  0.0490  0.0022
28406W        W71397  30.273  21.947   2.180  0.0102  0.2089  0.1755
28407W        W71398   1.202  20.048   6.846  0.1606 -0.4069  0.0237
28408W        W71399   8.476  27.939  21.926  0.0198 -0.3855 -0.1375
28409W        W71400  34.607   6.599   6.915  0.1715  0.2131  0.1441
28410W        W71401  16.950  32.956  22.968  0.0251  0.2024 -0.1436
28411W        W71402  13.957  13.235   0.942 -0.1315 -0.2139  0.0231
28412W        W71403  18.587  22.198   1.763 -0.0435 -0.0461  0.2658
28413W        W71404  28.303  30.640  28.446  0.1256  0.3263 -0.0322
28414W        W71405  22.792   2.672  22.499 -0.1616 -0.3593 -0.1702
28415W        W71406  25.536  32.627   0.249 -0.0582  0.1159 -0.1116
28416W        W71407  24.367  25.169   3.758 -0.0514 -0.0136 -0.1483
28417W        W71408  33.708  25.127  18.557 -0.0067  0.3177 -0.2446
28418W        W71409   2.943   2.059  26.705  0.2086  0.0534 -0.0866
28419W        W71410  17.880   1.746   9.579 -0.0742  0.1836 -0.1412
28420W        W71411  20.619  20.665   4.240  0.2022 -0.0491  0.1762
28421W        W71412  19.076  33.916  24.666  0.0886 -0.1847 -0.0428
28422W        W71413  27.659  17.687  28.649  0.1237 -0.0910 -0.0747
28423W        W71414  17.422  31.264  28.898  0.4734  0.0004 -0.0121
28424W        W71415  11.959  31.360   8.066 -0.1669 -0.1383  0.0395
28425W        W71416  23.007   1.647  28.890  0.2842  0.1050  0.3633
28426W        W71417  13.162  27.401  15.532 -0.0977  0.0966 -0.1585
28427W        W71418  24.547  31.163   3.687  0.2811  0.0348  0.0306
28428W        W71419  17.666   1.003   8.487  0.1176 -0.0021  0.0667
28429W        W71420  11.383  25.064  25.926 -0.1264 -0.0399 -0.0601
28430W        W71421  19.673   7.560   5.723  0.0732  0.0571 -0.1473
28431W        W71422  19.298  14.341   1.620  0.0422 -0.1949  0.1581
28432W        W71423  34.723   5.350  18.560  0.1011 -0.0901 -0.1135
28433W        W71424  30.876   1.461   1.149  0.0117  0.2249 -0.0899
28434W        W71425   6.140  28.975  24.054 -0.0214 -0.1439 -0.0028
28435W        W71426  34.689  31.114   6.458  0.1458  0.1071 -0.2578
28436W        W71427  20.143  24.830   2.921  0.0894 -0.3147 -0.1220
28437W        W71428  25.754  32.473   5.716  0.0447 -0.1070 -0.1599
28438W        W71429  26.621  20.795   7.957  0.2185  0.2163 -0.2254
28439W        W71430   3.816  25.756   0.956 -0.2195 -0.0891  0.1420
28440W        W71431  27.450  25.097   5.374 -0.0500 -0.1006 -0.1486
28441W        W71432  18.741  22.806  29.138  0.0680 -0.0002  0.1869
28442W        W71433   0.610   5.366   4.095 -0.3365  0.3802 -0.3462
28443W        W71434  22.594  32.435   4.882  0.0309 -0.0219 -0.0967
28444W        W71435  16.739  25.747  15.802  0.0348 -0.1290  0.1720
28445W        W71436  34.401  24.615  10.420  0.0009 -0.1032  0.0619
28446W        W71437   9.848  27.346   7.172  0.0289  0.1909 -0.1473
28447W        W71438  22.168   1.887   8.570 -0.2753 -0.0876 -0.1349
28448W        W71439  33.779   2.151   3.674  0.2758  0.0603 -0.1827
28449W        W71440  28.602  23.006   3.975  0.0165 -0.1714  0.1582
28450W        W71441  11.174   1.136   8.085  0.1609 -0.1377  0.1995
28451W        W71442  25.443  32.285   4.568 -0.3755 -0.0033 -0.1943
28452W        W71443  12.581  30.282  27.938 -0.2037  0.0810  0.0648
28453W        W71444  25.125   2.191  16.072  0.1940 -0.2460 -0.0117
28454W        W71445  20.325   9.639   4.000 -0.1155 -0.2243  0.1010
28455W        W71446  15.491  25.578   6.181 -0.0994 -0.2137 -0.0946
28456W        W71447   6.653  27.853   7.063 -0.0204  0.3288  0.0218
28457W        W71448  31.449   3.216   9.215 -0.2263  0.2511 -0.0355
28458W        W71449  15.150  31.059  24.273  0.1528 -0.1584  0.0233
28459W        W71450  22.684   9.331   9.667 -0.0120 -0.0382 -0.1117
28460W        W71451  33.538  30.607  27.203  0.0482  0.1104  0.0979
28461W        W71452  24.058  28.360   8.706  0.1667 -0.0661 -0.3384
28462W        W71453  24.907  25.098  19.458  0.1629 -0.3248  0.0612
28463W        W71454  33.606  33.495   3.922 -0.0983  0.0870  0.0055
28464W        W71455  22.460  23.261  29.070  0.0170 -0.0443  0.1025
28465W        W71456  23.958  21.081   4.565  0.2969 -0.0605 -0.2025
28466W        W71457  13.334  17.733  27.680 -0.1317  0.3669 -0.0006
28467W        W71458  13.794  34.187  10.372 -0.0820  0.1457  0.2981
28468W        W71459  10.183   3.984   6.810 -0.0861  0.0544  0.0947
28469W        W71460  19.598   9.207   3.110 -0.0434  0.0192  0.0562
28470W        W71461   3.753   0.581  16.938 -0.0789 -0.1204 -0.2169
28471W        W71462  29.044  32.557   8.318 -0.0463  0.3880  0.1392
28472W        W71463  21.007  31.795   3.613 -0.0693 -0.0355  0.2269
28473W        W71464  34.778  18.920   1.671  0.0547 -0.2762  0.0104
28474W        W71465   5.414  28.146  29.118 -0.2303 -0.0108 -0.1812
28475W        W71466   1.020   7.382  21.261  0.1693 -0.1564  0.0687
28476W        W71467  27.891   4.572   9.098 -0.0859 -0.2040 -0.3286
28477W        W71468  26.646   1.792   8.984  0.4162  0.5036  0.0038
28478W        W71469  17.087  13.174  27.565  0.0916  0.0791 -0.2408
28479W        W71470  19.981   7.311   5.395 -0.4623  0.1685  0.0361
28480W        W71471  13.917  23.963   1.717  0.0254  0.0579 -0.1203
28481W        W71472   3.064  30.174  28.793  0.0556  0.0598  0.0683
28482W        W71473  22.836   1.483  28.091  0.0973 -0.2157  0.0081
28483W        W71474   5.630  16.866   8.558 -0.0409 -0.2581  0.0313
28484W        W71475  24.921  33.580  16.238 -0.2136 -0.1176 -0.0156
28485W        W71476  13.040  19.644  18.435  0.0345 -0.2263  0.2674
28486W        W71477  22.332   5.318  28.643  0.1793  0.0252 -0.0420
28487W        W71478  24.997  33.155   4.452  0.0430 -0.1044 -0.1555
28488W        W71479  29.345  24.267  29.056 -0.2033 -0.2686 -0.1408
28489W        W71480  25.846  14.540   6.572 -0.2099  0.1821  0.1323
28490W        W71481   8.131   2.270   9.211  0.1007  0.0488  0.1773
28491W        W71482  18.590  16.573   2.617  0.1840  0.2676 -0.0741
28492W        W71483   1.067  27.626   9.482  0.0723 -0.1658  0.0005
28493W        W71484  28.837  28.363   8.025 -0.0210 -0.0151  0.0698
28494W        W71485  10.999  27.269   3.179 -0.1625 -0.2612  0.0014
28495W        W71486  18.037  18.174  22.874 -0.0058 -0.1310  0.1354
28496W        W71487  20.048  33.245  27.168  0.1468  0.1995 -0.1771
28497W        W71488  31.816  33.689  26.004 -0.1679  0.1878 -0.3929
28498W        W71489  22.400  16.844   6.196  0.1765 -0.0818 -0.3462
28499W        W71490  20.613  34.295  25.496 -0.1900 -0.0037  0.0103
28500W        W71491  22.910  26.992   8.951 -0.3012  0.1487  0.2185
28501W        W71492  29.994   4.938  25.493 -0.1651  0.1639  0.0097
28502W        W71493  27.627  24.286   0.912  0.0663 -0.2185 -0.0182
28503W        W71494  32.541  14.964   4.660  0.0405  0.1279  0.0158
28504W        W71495  10.163  21.823  24.463 -0.0051  0.0116  0.3127
28505W        W71496   5.261   5.709  10.170 -0.0724  0.2532  0.2547
28506W        W71497  25.317  21.402   1.716 -0.0444  0.1209  0.1029
28507W        W71498  26.992  13.854   2.489 -0.1597 -0.1468  0.1088
28508W        W71499  28.608  28.311  24.581  0.1813 -0.1269 -0.0345
28509W        W71500  19.114  19.537   8.621 -0.0151  0.2060 -0.1667
28510W        W71501  13.197   2.844  28.595  0.0688 -0.3141  0.3965
28511W        W71502  28.734  31.788   7.182  0.1544 -0.1600  0.0610
28512W        W71503  32.681  13.167  12.169 -0.1585  0.2181  0.0539
28513W        W71504  33.276   0.449  10.088  0.2460  0.1718 -0.0529
28514W        W71505  24.736  25.167   3.449 -0.2447  0.2328  0.3550
28515W        W71506  18.290  25.880  28.319  0.1957  0.0176  0.1878
28516W        W71507  13.952   6.860   4.734  0.0718  0.0976 -0.0911
28517W        W71508  22.722  34.685   9.156  0.1698 -0.1736  0.3267
28518W        W71509  16.138  30.166   3.252 -0.2036  0.0457 -0.1774
28519W        W71510  24.745  17.044   7.446  0.1400 -0.2821 -0.1796
28520W        W71511  19.260   1.737  10.220  0.0838  0.2388  0.1059
28521W        W71512  20.763   0.920  28.712 -0.1474  0.0007 -0.1052
28522W        W71513  10.017  26.596   6.602 -0.1224  0.0213  0.1674
28523W        W71514  20.330  27.750  23.181 -0.1055 -0.0096 -0.1633
28524W        W71515  17.197   9.417   8.835 -0.0675 -0.0648  0.3191
28525W        W71516  27.245   4.302   8.570  0.0734 -0.2406 -0.1423
28526W        W71517   6.140  22.488  27.832  0.2606 -0.1997  0.2102
28527W        W71518  24.663   5.963   2.900 -0.1505 -0.0807  0.2014
28528W        W71519   5.732   5.258  10.987  0.2930  0.0867  0.0174
28529W        W71520  17.278  19.037  15.815 -0.2006  0.2421  0.0394
28530W        W71521  29.394   6.531  19.323  0.2942  0.1114 -0.0674
28531W        W71522  19.303  33.002  19.999 -0.0515 -0.1485 -0.0489
28532W        W71523  22.701  29.391  20.192  0.1394  0.2070  0.1079
28533W        W71524   6.406  18.951  19.762 -0.1185 -0.1959  0.0008
28534W        W71525  17.209   7.895   1.328 -0.0744  0.2201  0.0543
28535W        W71526  24.144   3.705   0.480  0.0688  0.3431  0.1629
28536W        W71527   1.433  34.762  25.491  0.2241 -0.0829  0.4009
28537W        W71528  24.310  27.565   4.473 -0.3670 -0.1440 -0.2152
28538W        W71529  33.759  27.302   9.943 -0.1027 -0.1699 -0.5032
28539W        W71530  13.751   2.353  25.212  0.0937 -0.2034  0.1570
28540W        W71531  28.981   0.445   0.617 -0.0020 -0.0923  0.2455
28541W        W71532  27.341  33.891  19.772 -0.1959 -0.0097 -0.0223
28542W        W71533  23.320  21.781   8.560 -0.0829  0.1365 -0.0315
28543W        W71534  22.086  16.875  17.041 -0.0793 -0.0724  0.0997
28544W        W71535  15.850  15.106  25.220 -0.0714  0.0410  0.0224
28545W        W71536  29.341  22.957   4.538  0.1505 -0.2143  0.1020
28546W        W71537  34.376  26.517   1.536  0.0619 -0.0574  0.3254
28547W        W71538  33.002  27.729  20.579  0.1174  0.2421 -0.0694
28548W        W71539  21.028  11.150   5.392 -0.2080 -0.1523 -0.2713
28549W        W71540   2.702  18.030  26.965 -0.2889  0.1540 -0.1511
28550W        W71541  21.894  30.242   4.241  0.2249 -0.0966 -0.2927
28551W        W71542  22.356  34.649   7.344 -0.1214  0.0564  0.3068
28552W        W71543  12.721  13.019  21.195 -0.0218  0.0230 -0.1663
28553W        W71544  28.220  29.840  28.526  0.1364  0.4777  0.0224
28554W        W71545  29.768  23.309  16.676 -0.2429 -0.1286  0.3669
28555W        W71546  28.645   3.173   6.204  0.1113  0.0104 -0.0017
28556W        W71547  24.149  16.263  25.777  0.2160 -0.1313 -0.0040
28557W        W71548  22.126  33.186   5.716 -0.4386  0.1944  0.4580
28558W        W71549  26.837  27.512   8.324 -0.3804 -0.1567 -0.0192
28559W        W71550  19.169  34.053  28.180  0.1887  0.1802  0.3198
28560W        W71551  18.138  22.348  17.056 -0.1577 -0.2229  0.0240
28561W        W71552  16.471  25.172  22.178 -0.2780 -0.0296  0.0282
28562W        W71553  16.134  21.506   9.510  0.1220 -0.1125  0.1188
28563W        W71554  16.219   8.074   9.480  0.2130 -0.0862  0.0183
28564W        W71555  21.133  27.355   3.121  0.1189 -0.1381 -0.1481
28565W        W71556  25.534  19.815   5.096  0.0729  0.3218 -0.0633
28566W        W71557  19.791  12.881   1.731  0.0437  0.2039  0.1840
28567W        W71558  34.683  32.211   4.442 -0.1837  0.0829 -0.0018
28568W        W71559  27.466   1.789   2.401 -0.3355  0.0774 -0.2727
28569W        W71560  16.202  34.156   5.440 -0.0824 -0.0245 -0.1817
28570W        W71561  26.731  18.708   2.007 -0.0183  0.0912  0.0623
28571W        W71562   1.703  27.341  25.992  0.0910 -0.1623 -0.0423
28572W        W71563  23.381  31.835   9.470 -0.2309  0.0231 -0.2459
28573W        W71564  12.163  18.470  27.361  0.0528 -0.2315 -0.2045
28574W        W71565  12.635   1.334   8.722  0.1234  0.1701  0.2122
28575W        W71566  26.337  22.620  14.937 -0.1720 -0.1564 -0.4499
28576W        W71567  29.430  23.893   0.217  0.0930  0.1163 -0.0412
28577W        W71568  32.727   4.411  22.828  0.0944  0.0992  0.0553
28578W        W71569  11.577  19.436   9.143  0.1227 -0.1454 -0.2669
28579W        W71570  11.812  22.427  28.258 -0.0198  0.0862  0.1619
28580W        W71571   5.208  14.330   1.030 -0.0755 -0.0370 -0.3876
28581W        W71572   0.025  25.796   2.433 -0.3320 -0.1838 -0.2272
28582W        W71573  28.252  30.098  24.222  0.2061 -0.0239 -0.0539
28583W        W71574  21.057   3.668   8.277 -0.2102  0.0529  0.0735
28584W        W71575  24.729   2.208   8.148  0.0657 -0.0469  0.0481
28585W        W71576   3.577   5.189   0.837 -0.0714 -0.0690 -0.1642
28586W        W71577  30.303   1.703  28.738  0.0863 -0.0452 -0.3531
28587W        W71578  28.886  29.459   1.169 -0.0448  0.0825  0.1075
28588W        W71579  26.270  24.883   2.602 -0.0356 -0.0722  0.2044
28589W        W71580   8.836  28.431   2.621  0.2752 -0.1877  0.0679
28590W        W71581  15.780  30.283  27.316 -0.1429  0.0307 -0.0120
28591W        W71582  13.988  31.340   9.163  0.0154 -0.2166 -0.4805
28592W        W71583  20.046  14.320   4.994 -0.3528  0.2131  0.2258
28593W        W71584  12.039   7.951  17.823 -0.4981 -0.0816  0.0201
28594W        W71585  34.185  24.178   3.034  0.0775  0.0794  0.1550
28595W        W71586  14.787  24.498  26.147 -0.1432  0.0595 -0.0221
28596W        W71587  27.353  27.841  25.789 -0.4072 -0.0594  0.1960
28597W        W71588  26.591   1.163   1.642 -0.0550  0.1524 -0.1155
28598W        W71589  31.949  34.629   0.465  0.1923  0.3188 -0.0611
28599W        W71590   1.799  16.683  24.922 -0.1139 -0.0089 -0.1910
28600W        W71591  31.086  15.355  22.191 -0.0051  0.0338 -0.3409
28601W        W71592  14.497  15.450   3.537 -0.0392  0.0187  0.2375
28602W        W71593  11.012  32.791   4.809 -0.2388 -0.0554  0.1195
28603W        W71594  19.358  14.204   6.712 -0.1508 -0.3056  0.1086
28604W        W71595  33.679  33.365   6.985  0.2944 -0.0710  0.0041
28605W        W71596  32.008  25.609   7.077  0.2593  0.3230  0.1255
28606W        W71597  28.841  25.704  26.816 -0.4353  0.2755 -0.1157
28607W        W71598  16.684  24.600   3.518 -0.1041 -0.1631  0.2801
28608W        W71599  33.371  34.576  23.077 -0.3181 -0.0381 -0.1051
28609W        W71600  30.003   6.720   2.327 -0.3235  0.1341  0.3976
28610W        W71601  16.326  22.311  23.603 -0.1589 -0.0024  0.0032
28611W        W71602  19.797  33.480   5.260 -0.0525  0.0715 -0.3225
28612W        W71603  12.943  20.781  25.846 -0.4435  0.1816 -0.3896
28613W        W71604   9.882   0.273   0.510 -0.1768  0.3544  0.2076
28614W        W71605   4.102  23.114  17.727 -0.2957  0.0198 -0.0892
28615W        W71606   7.867  29.879   9.305 -0.2987  0.1099 -0.2407
28616W        W71607  22.642  10.233   4.501  0.2942 -0.1843 -0.1707
28617W        W71608  16.452   7.789  21.409  0.0657 -0.0298  0.0629
28618W        W71609  25.005  22.998   7.590 -0.4420 -0.0962 -0.0499
28619W        W71610  25.422  22.210   2.861  0.4659  0.1048 -0.0560
28620W        W71611  26.395  23.314   6.159 -0.1346  0.1587 -0.2419
28621W        W71612  25.979  28.549   1.585 -0.0140 -0.0089 -0.1478
28622W        W71613  33.812  17.305  10.216  0.0899 -0.0308  0.0201
28623W        W71614   1.980  22.649   9.366 -0.0794 -0.0519  0.1380
28624W        W71615   4.714   7.461   7.984  0.3305  0.0799  0.0532
28625W        W71616  34.489  22.344  25.444 -0.1796 -0.1436 -0.0054
28626W        W71617   4.482  12.299   7.476 -0.3190 -0.0970  0.2333
28627W        W71618  24.185  24.960  13.763 -0.0844 -0.1972 -0.1525
28628W        W71619  22.711   7.030  27.809 -0.0889 -0.1795  0.0213
28629W        W71620   2.897  32.608   9.582  0.4976  0.1926  0.0577
28630W        W71621  10.429  27.136   9.721  0.0386 -0.2421  0.0313
28631W        W71622  11.123  31.261  19.639  0.0479  0.1693  0.0345
28632W        W71623  21.680   0.646   4.168 -0.0963 -0.0534 -0.0169
28633W        W71624   1.141   1.445   2.218  0.0493  0.5151  0.1879
28634W        W71625  21.905   0.573   2.196 -0.1415 -0.1724  0.0155
28635W        W71626   2.960  18.892   5.268  0.0484  0.0041  0.0083
28636W        W71627  27.916   3.142  25.443 -0.2118 -0.0789  0.0756
28637W        W71628   2.796  17.358  26.207 -0.0451 -0.1684 -0.0820
28638W        W71629  11.105  17.448   1.723  0.1173 -0.3127  0.0598
28639W        W71630   6.011  22.168  26.445  0.0133  0.0818 -0.0976
28640W        W71631  26.677   7.204  21.263 -0.0203 -0.0510  0.1388
28641W        W71632   0.156   8.979  27.718 -0.0518 -0.2378 -0.0401
28642W        W71633   7.123  22.756  17.251 -0.0006  0.1446 -0.0630
28643W        W71634   0.311  18.504   7.657 -0.2445 -0.2139 -0.1133
28644W        W71635  19.472   3.947   4.904  0.1454  0.1068 -0.2182
28645W        W71636  22.881  28.016   0.593  0.1616 -0.0625 -0.1845
28646W        W71637  21.754  34.416   8.250  0.0429 -0.0486  0.0729
28647W        W71638  22.466  24.282  16.019 -0.0401  0.0484 -0.2193
28648W        W71639  23.103  34.197   6.960  0.3392  0.1859  0.3677
28649W        W71640  33.226  22.570   4.277 -0.1416 -0.1031  0.0096
28650W        W71641  20.153  19.645  28.194 -0.3341  0.2535  0.0368
28651W        W71642  16.786  29.830  23.979 -0.0690  0.2948 -0.1695
28652W        W71643   2.786  21.695   9.897  0.2806  0.1634  0.1230
28653W        W71644  34.245  28.429   6.662  0.2080  0.0063 -0.2589
28654W        W71645  27.161  28.734  25.819 -0.0483 -0.0653 -0.0999
28655W        W71646  12.778  19.299   6.582  0.1045  0.0703  0.2330
28656W        W71647   1.454  33.192   6.445 -0.2283  0.2393  0.2513
28657W        W71648  14.935  30.816   5.166  0.2034 -0.0772 -0.0186
28658W        W71649  15.706  23.108  25.496 -0.0305  0.0938  0.2240
28659W        W71650  25.854  30.167   2.195 -0.0008 -0.1738 -0.1489
28660W        W71651  25.999  34.589  27.986 -0.3615 -0.1251  0.3443
28661W        W71652  21.639  25.650  19.342  0.3507  0.0856  0.1428
28662W        W71653  28.411  28.833   0.614  0.0949 -0.1132 -0.1174
28663W        W71654  16.367   9.834   9.316 -0.1908  0.1141 -0.1726
28664W        W71655   3.776   9.420  25.745 -0.3584 -0.2065  0.2175
28665W        W71656  21.819  33.101  27.642 -0.0642 -0.1435 -0.0472
28666W        W71657  22.003  31.869   3.361  0.1481 -0.1367 -0.2391
28667W        W71658  18.213  28.423   3.027  0.1082 -0.1850  0.1718
28668W        W71659  26.417   1.884   7.355 -0.0951  0.1782 -0.0707
28669W        W71660  29.517   3.084  28.750  0.2127  0.2745 -0.2688
28670W        W71661  13.951  16.802   2.629  0.1321 -0.0414 -0.1222
28671W        W71662  16.278  21.711  25.380  0.0565 -0.2603  0.2230
28672W        W71663  28.388  27.111   5.649  0.0493 -0.0967  0.0699
28673W        W71664  10.987  28.708   5.613 -0.0358  0.0697  0.0250
28674W        W71665  29.442  23.274   9.418 -0.0393  0.3411  0.0453
28675W        W71666  28.460  31.769   6.528  0.0268 -0.2315 -0.1086
28676W        W71667  11.462  31.823   3.960 -0.0096 -0.0812 -0.3084
28677W        W71668  32.669  26.913   0.604 -0.1198 -0.1119 -0.0146
28678W        W71669   5.871  31.119   1.951 -0.0740 -0.2197  0.1141
28679W        W71670  26.248   2.778   4.534  0.0637  0.4324  0.2859
28680W        W71671   7.531  20.254  23.964  0.1376 -0.1028  0.0895
28681W        W71672  24.592  31.605  21.422 -0.1323 -0.2754 -0.1968
28682W        W71673  30.040  32.685   7.895 -0.1143 -0.0660 -0.2020
28683W        W71674  24.759   2.087   3.285  0.0757 -0.1270 -0.2161
28684W        W71675  12.244  28.457   4.290  0.2405  0.4907  0.0448
28685W        W71676  29.529  11.528  28.104 -0.1558 -0.6958 -0.2018
28686W        W71677  32.761   6.450   1.335  0.0011 -0.1244  0.0849
28687W        W71678  18.365  25.310   8.587 -0.0559 -0.5229  0.2264
28688W        W71679  15.693  31.967  19.508  0.1225 -0.0847  0.0425
28689W        W71680  22.856  19.592   2.882 -0.0703  0.1684  0.1505
28690W        W71681   4.887  25.117  19.467 -0.3773 -0.0514  0.0873
28691W        W71682  22.146  30.528   0.378 -0.2542 -0.3121 -0.0256
28692W        W71683  31.093  15.678  22.657 -0.2407 -0.0479 -0.0147
28693W        W71684  31.478  32.727   6.324  0.1434 -0.0689  0.1511
28694W        W71685  28.987  20.040  23.393 -0.1027  0.0905 -0.3500
28695W        W71686  26.728  26.413   3.386  0.1610 -0.1784  0.0822
28696W        W71687  34.035  25.792  17.750 -0.0239 -0.0327 -0.3048
28697W        W71688  30.734   9.006  23.429 -0.1029 -0.1117 -0.4115
28698W        W71689  22.262  10.492  23.820 -0.0414  0.2175 -0.1479
28699W        W71690  13.811  17.914   3.273  0.1964  0.1184  0.0861
28700W        W71691  24.950  28.092   2.654 -0.2564  0.1114  0.0483
28701W        W71692  32.573   0.203   7.860 -0.1160 -0.1443 -0.0968
28702W        W71693  23.749  25.615  23.046 -0.1043  0.2286 -0.1641
28703W        W71694  17.427  32.327   7.019  0.2322  0.2866  0.1840
28704W        W71695  16.677  17.259   4.547  0.0605 -0.0010 -0.0213
28705W        W71696  21.564  25.977  28.747  0.1444  0.1664  0.0690
28706W        W71697   9.779  20.944   2.242 -0.2741 -0.0489  0.0224
28707W        W71698   8.043  34.560   9.260 -0.0310 -0.0832  0.1392
28708W        W71699  29.240  19.182   4.554 -0.1501 -0.1199 -0.2129
28709W        W71700  23.188  23.646   2.182  0.2099  0.0861  0.4102
28710W        W71701  23.954  15.130   1.477  0.0439  0.2168 -0.3635
28711W        W71702  26.072  12.738   5.758 -0.0111  0.0122 -0.1062
28712W        W71703  13.240  31.420  21.100  0.3713 -0.1778  0.1302
28713W        W71704  26.248  23.219   3.281 -0.1630  0.0096  0.4094
28714W        W71705   0.332  31.361   3.228  0.1081  0.2118  0.1883
28715W        W71706  32.475  21.041  21.596 -0.0743 -0.2425 -0.3398
28716W        W71707  18.890  26.228   7.619 -0.0941 -0.3812 -0.0218
28717W        W71708  26.991   4.036  18.682 -0.0735  0.2161 -0.0679
28718W        W71709  11.305  24.079   5.319 -0.0022 -0.1229  0.0065
28719W        W71710  20.837  33.437   4.499 -0.1635 -0.0851  0.0822
28720W        W71711  10.304   3.286  22.468 -0.0229  0.0646  0.1270
28721W        W71712  20.647   0.670   1.173 -0.0489  0.1407 -0.3211
28722W        W71713  28.671   0.069   4.726 -0.0171  0.1395 -0.1912
28723W        W71714   4.447   1.347  27.761  0.2650  0.1087 -0.1586
28724W        W71715  13.212  23.990   5.163  0.4727  0.2114  0.1321
28725W        W71716  16.159   5.166   3.087 -0.0308 -0.1436 -0.0743
28726W        W71717  13.986  15.057  24.587  0.3533  0.4622 -0.1812
28727W        W71718  27.463   1.592   0.250 -0.2086 -0.3844  0.3880
28728W        W71719   1.906  27.467   1.804 -0.0147  0.1069  0.4654
28729W        W71720  31.347  19.881  28.586  0.1190  0.1253 -0.0547
28730W        W71721   5.062  26.929   7.033  0.0957  0.0225 -0.0606
28731W        W71722  11.623  31.806   5.542 -0.0385  0.1088  0.3433
28732W        W71723   4.673  25.331   8.826  0.0747  0.0360 -0.1160
28733W        W71724   6.867  21.805   8.906  0.0916  0.0232 -0.1579
28734W        W71725  13.539  28.373   9.718  0.0341 -0.0464 -0.1227
28735W        W71726  22.179  30.946   9.566  0.3126  0.1404  0.0212
28736W        W71727  34.412  23.226  20.311  0.0343  0.0408 -0.2050
28737W        W71728   7.572  32.459   2.232 -0.0987  0.3433 -0.1402
28738W        W71729  25.372  13.223  28.747  0.0446 -0.0575  0.1982
28739W        W71730   9.019  26.930  28.670 -0.1346  0.1044  0.1289
28740W        W71731  29.824  26.882  20.131 -0.1601 -0.1916  0.3500
28741W        W71732  30.712   4.471   4.864 -0.1301  0.1481  0.1169
28742W        W71733  16.654  28.426   5.653 -0.2367 -0.4378 -0.4490
28743W        W71734  31.087  34.093   2.943 -0.0529 -0.0613 -0.1322
28744W        W71735  19.788  20.391  19.409 -0.2603  0.2643  0.0025
28745W        W71736  25.014  24.332   1.351  0.2315  0.4718  0.1432
28746W        W71737  34.632  34.153   8.542 -0.2476 -0.3513 -0.1084
28747W        W71738  30.455  12.941  21.411  0.0867 -0.1190  0.1868
28748W        W71739  21.202  31.995   7.960 -0.0326  0.1840 -0.1086
28749W        W71740  29.079  19.156   9.691 -0.0629 -0.0764  0.2397
28750W        W71741  15.663  17.979   5.475  0.3063 -0.1925 -0.0663
28751W        W71742  10.435  15.725   8.739 -0.0108 -0.1207  0.2260
28752W        W71743  30.862  28.963  18.232  0.2986  0.2706  0.2580
28753W        W71744  18.330  34.452   4.308  0.2808 -0.0452 -0.1657
28754W        W71745  33.395  11.718   4.767 -0.2104 -0.3103  0.0187
28755W        W71746   4.385  32.810  16.078  0.2739  0.1384 -0.1933
28756W        W71747  23.336   4.522  14.307  0.2712 -0.0613  0.2134
28757W        W71748  18.601  26.656   2.629 -0.1139 -0.0427  0.0829
28758W        W71749  16.463  23.995  27.946  0.1392  0.0228  0.2859
28759W        W71750  34.798  31.503   0.213  0.1218  0.1600  0.2860
28760W        W71751  29.153  13.054   6.292 -0.0091 -0.0764 -0.1429
28761W        W71752  14.731  24.247  28.063 -0.0072  0.2634  0.0909
28762W        W71753  19.978  31.576  24.204 -0.0278  0.2035 -0.1976
28763W        W71754  20.494  11.876   9.468 -0.1313  0.2072 -0.1932
28764W        W71755  17.469  23.036   6.747  0.1413 -0.0888  0.0400
28765W        W71756   1.025   4.096  26.237 -0.3126 -0.3087  0.0356
28766W        W71757  29.102  32.566   3.648 -0.3460 -0.1243  0.0026
28767W        W71758  30.259  15.054   3.542 -0.0435 -0.0768 -0.0495
28768W        W71759  25.827  26.544   4.210  0.1869  0.3548 -0.1050
28769W        W71760  27.948  34.636   6.037  0.3371  0.2482 -0.1130
28770W        W71761   3.678  25.666   7.833 -0.0617 -0.0496  0.1819
28771W        W71762  23.482  32.574   2.000  0.0749  0.2786  0.2213
28772W        W71763  23.415  24.160   6.371  0.0401  0.5680  0.0258
28773W        W71764  28.425  23.397   6.092  0.1425  0.2071  0.0229
28774W        W71765  17.515   6.381   0.372 -0.0957  0.2081 -0.0312
28775W        W71766  23.579  20.260  14.142 -0.2849  0.3520  0.2205
28776W        W71767  28.037   8.169  26.790  0.2953  0.3513 -0.2053
28777W        W71768   8.645  15.915  29.108 -0.1649  0.1036  0.1309
28778W        W71769   4.673   6.302   6.165  0.0714 -0.1798  0.1757
28779W        W71770  17.981  28.053   7.308 -0.3417 -0.1340  0.0507
28780W        W71771  20.142  20.057   2.525  0.1108 -0.0456  0.0439
28781W        W71772   9.938  25.233   6.268 -0.0297  0.0247 -0.2931
28782W        W71773  34.171  30.723  23.317  0.0384 -0.2994 -0.0776
28783W        W71774  11.471  26.432   6.352 -0.2589 -0.3115  0.1166
28784W        W71775   9.564  23.713   6.237 -0.1025  0.0251 -0.0155
28785W        W71776   4.307  34.712  27.234  0.0014  0.1255  0.2867
28786W        W71777  18.336  34.697  10.184  0.0052  0.2239 -0.3366
28787W        W71778  15.073   6.944   8.203  0.0921  0.1468  0.0449
28788W        W71779  27.698   5.187  25.739 -0.2457 -0.0438  0.2137
28789W        W71780  32.116  19.947  23.441 -0.0489  0.4583 -0.2054
28790W        W71781  16.469  20.980   3.480 -0.2002 -0.2319  0.1609
28791W        W71782  19.747  30.396  22.502 -0.4711  0.0676 -0.1030
28792W        W71783  21.544  30.627   0.587  0.0103 -0.0387  0.2703
28793W        W71784  34.483  22.533   3.943  0.1636 -0.2197 -0.1932
28794W        W71785  33.658  34.373   4.341  0.1456  0.3445  0.3330
28795W        W71786  27.573  24.298   2.335 -0.0412 -0.3609  0.4912
28796W        W71787  19.841  17.952   6.183  0.3008  0.1883 -0.0025
28797W        W71788  14.782  12.049  15.959  0.1474 -0.0836 -0.0589
28798W        W71789   4.695   1.689   2.163  0.0139  0.3310  0.0794
28799W        W71790   4.935  28.374   7.984  0.2215  0.2581  0.0662
28800W        W71791  31.180   8.512  28.765  0.0342 -0.0001  0.0836
28801W        W71792  14.440  33.568   8.389  0.0044  0.1606  0.0654
28802W        W71793  23.878  27.630   7.528  0.0531  0.0022 -0.1393
28803W        W71794  29.176   1.550   2.469  0.1624  0.1715 -0.4104
28804W        W71795   8.161  30.304   9.209 -0.0668  0.1554 -0.1995
28805W        W71796   9.600  26.265  27.866  0.1579 -0.0662 -0.3016
28806W        W71797   6.717  11.261   7.749  0.0254  0.1484 -0.0551
28807W        W71798  30.464  29.852   1.895 -0.0007 -0.0836  0.0369
28808W        W71799  28.196  26.164   0.838  0.1200  0.1371  0.0652
28809W        W71800  22.510  23.321   2.438 -0.0593 -0.0489  0.0087
28810W        W71801  10.074  31.449  18.752 -0.0488 -0.0035  0.2177
28811W        W71802  18.782  14.384   7.834 -0.3262 -0.0380  0.0545
28812W        W71803  26.928  33.869   6.407 -0.1589 -0.6922  0.0532
28813W        W71804   4.732   4.525   1.691 -0.1371  0.1120 -0.1051
28814W        W71805  14.577   1.129   7.254 -0.0935  0.1282 -0.0559
28815W        W71806  22.115  23.199  20.109  0.1776  0.0842  0.0189
28816W        W71807   4.444   0.678   8.407 -0.0181  0.0610  0.1206
28817W        W71808  23.877  34.139   2.012 -0.0033  0.0291 -0.0606
28818W        W71809   9.776  25.504  28.333 -0.0054 -0.2731  0.0365
28819W        W71810  11.154   0.910  28.968 -0.3239  0.5733 -0.3520
28820W        W71811  17.178  28.481   4.885 -0.0327 -0.1871  0.0113
28821W        W71812  20.005  28.311   2.773 -0.1039 -0.0201 -0.2044
28822W        W71813  15.458  28.075   3.029  0.3382  0.0282 -0.0228
28823W        W71814  34.299  34.064  28.147 -0.2354  0.2077 -0.2549
28824W        W71815  25.748  15.796   7.974  0.0475  0.0623 -0.0175
28825W        W71816  15.150   0.080   7.574 -0.1207 -0.1048 -0.1127
28826W        W71817  13.367   3.478   2.703 -0.0743  0.0214  0.1707
28827W        W71818   6.859  24.760  18.474 -0.1427  0.2286 -0.3545
28828W        W71819  19.562  24.706   2.394 -0.1403 -0.1020 -0.1336
28829W        W71820  33.463  18.610   8.007 -0.1492 -0.1835  0.0626
28830W        W71821  13.808  21.871   3.930  0.3295 -0.0716 -0.1504
28831W        W71822  21.709  14.536   9.049 -0.0657  0.0251 -0.1405
28832W        W71823  22.523  26.236  17.882  0.2630 -0.4429  0.0647
28833W        W71824  12.259  17.828  15.637 -0.0015 -0.0658  0.0952
28834W        W71825  29.396  28.043   7.601  0.2165 -0.1442  0.0552
28835W        W71826  28.730   8.852   0.866 -0.1329  0.0740 -0.1036
28836W        W71827  26.125  22.647   1.244 -0.0267  0.1909 -0.2394
28837W        W71828  28.023  25.983  24.702 -0.2764  0.4013 -0.0793
28838W        W71829   6.731  30.173   3.960 -0.2712 -0.1034  0.1131
28839W        W71830  20.869  32.385   5.339  0.3116 -0.1112  0.0038
28840W        W71831  28.494  32.000   7.690  0.1458 -0.0629 -0.0758
28841W        W71832  31.145  30.077   7.378  0.0057  0.1817  0.2312
28842W        W71833  29.225   0.475   0.137 -0.2513 -0.0271 -0.0906
28843W        W71834   0.272   6.432  28.371 -0.1277 -0.2984  0.0824
28844W        W71835  13.633  10.617   8.771  0.1297 -0.0391  0.1952
28845W        W71836  21.611   0.232   7.469  0.2534 -0.0104  0.0731
28846W        W71837  26.041  34.188   2.027  0.0315 -0.2488  0.0571
28847W        W71838  11.739  26.984   1.489 -0.2089  0.0342  0.3958
28848W        W71839   3.082  29.598   5.977 -0.0945  0.0646  0.0679
28849W        W71840  19.240  27.318  23.622 -0.1298 -0.2338 -0.0144
28850W        W71841  19.558  21.719   8.378  0.0061 -0.1145 -0.0303
28851W        W71842  29.363  20.475   7.381 -0.0075  0.0350  0.2675
28852W        W71843  24.947  13.461   3.985  0.3084 -0.2399  0.3635
28853W        W71844   9.366  17.677   8.799  0.0761 -0.1096 -0.0908
28854W        W71845  28.077  10.457   1.498  0.3360 -0.0779  0.0325
28855W        W71846  19.956  15.401   2.129 -0.2276  0.1791 -0.0721
28856W        W71847  21.281  27.366   4.606  0.0442  0.1042 -0.0052
28857W        W71848  21.572  18.868  28.305 -0.1229 -0.0539  0.0570
28858W        W71849   1.591  25.360   2.057 -0.1896  0.3133  0.1237
28859W        W71850   0.988   7.348  11.209  0.0309 -0.2088  0.0832
28860W        W71851  29.392  17.922   0.722 -0.1423  0.0717  0.0625
28861W        W71852  25.116  19.007   5.656 -0.2521  0.1632 -0.2015
28862W        W71853  23.948  23.176   5.027 -0.1400 -0.1475 -0.1229
28863W        W71854  14.927  26.263  14.493  0.0359 -0.4604 -0.0299
28864W        W71855  28.249   5.401   7.181 -0.0641  0.2989  0.5074
28865W        W71856  22.372   1.279   3.358 -0.3131  0.1257 -0.0471
28866W        W71857  22.412   9.903   7.205  0.2619 -0.2117  0.0534
28867W        W71858   6.035  28.523   8.063  0.2143 -0.0759  0.0241
28868W        W71859  13.217  19.796  25.218  0.0956 -0.0847 -0.1494
28869W        W71860   5.720   3.088   0.396 -0.4952 -0.2334 -0.3994
28870W        W71861  28.301  25.347   3.275  0.2933 -0.0121 -0.0188
28871W        W71862  17.550   0.506   2.621 -0.1168  0.2088  0.2096
28872W        W71863   0.568  32.714  14.376 -0.3922 -0.0256 -0.0240
28873W        W71864  33.944   4.339  27.324 -0.0138  0.0784 -0.0374
28874W        W71865  29.543  18.674   5.519 -0.0550 -0.1632 -0.0880
28875W        W71866  14.275   7.182   2.605 -0.1023 -0.0668  0.2017
28876W        W71867  22.335  31.147  23.106 -0.1320 -0.1202  0.0508
28877W        W71868   6.248  34.285   8.145 -0.0451 -0.0247 -0.0930
28878W        W71869  26.528  23.400  26.320  0.2289  0.5995 -0.0818
28879W        W71870  24.528  29.654   1.303  0.0253 -0.1475  0.1731
28880W        W71871  23.020  17.502  20.322 -0.0313 -0.1745  0.0992
28881W        W71872  11.519   8.403  27.831  0.1654  0.2764 -0.0194
28882W        W71873  20.823  27.641  26.500 -0.4245 -0.1554  0.0270
28883W        W71874  20.713  30.679   6.801 -0.1669 -0.1646  0.0314
28884W        W71875  24.956  21.802  28.122  0.0833 -0.1204 -0.1884
28885W        W71876  19.693   4.843  23.538 -0.0728 -0.0926  0.0329
28886W        W71877  28.971  27.105   3.114  0.3461  0.1578 -0.0320
28887W        W71878  27.459  26.133   1.590 -0.1756 -0.0950 -0.0897
28888W        W71879  24.330  30.586   5.978 -0.0850 -0.3313 -0.0925
28889W        W71880  26.134  31.221   1.960  0.1814  0.0341  0.0722
28890W        W71881  27.866   9.363  19.194  0.1500 -0.1639  0.2360
28891W        W71882  22.353  33.144   1.896  0.1592  0.2601 -0.0363
28892W        W71883  32.996  33.443  15.050 -0.0750  0.1135 -0.2024
28893W        W71884  33.913  32.199   5.175  0.1071 -0.0651 -0.0740
28894W        W71885  22.871  34.407  25.709  0.0666  0.2694 -0.1996
28895W        W71886  30.393  30.755  25.731 -0.2514 -0.1202 -0.1997
28896W        W71887  22.173   5.777   4.710 -0.1210 -0.0323 -0.2315
28897W        W71888  25.813  30.447   3.156  0.0905  0.1767 -0.1964
28898W        W71889  22.384  23.229  27.767 -0.1935  0.0565  0.1296
28899W        W71890   1.733  31.673   1.082 -0.2461  0.0252 -0.0653
28900W        W71891  30.409  12.589  17.195 -0.0662 -0.0827  0.0501
28901W        W71892  28.764  26.736   5.640 -0.0603  0.0508 -0.0718
28902W        W71893  26.561  26.803   1.766  0.0670 -0.0995 -0.0838
28903W        W71894  32.454   1.022   1.004 -0.1208 -0.4361  0.0867
28904W        W71895  22.971   0.278   7.956 -0.2585 -0.2645  0.0040
28905W        W71896  19.325  16.634   3.959  0.1888 -0.1436  0.0396
28906W        W71897  14.586  23.583  29.255  0.0445  0.1140  0.0397
28907W        W71898  23.939   3.384   0.141 -0.0644  0.3056 -0.0013
28908W        W71899  30.461  30.231   0.393  0.2552 -0.0259  0.0468
28909W        W71900  18.225  19.619   6.420 -0.1631 -0.1870  0.0769
28910W        W71901  15.126  23.566  16.564  0.4007  0.2969  0.1200
28911W        W71902  23.210  21.506   3.963 -0.1845  0.2267 -0.1008
28912W        W71903  26.387  32.224   5.248 -0.0779 -0.1298 -0.1975
28913W        W71904  25.207   6.537  17.142  0.0640 -0.0784  0.0337
28914W        W71905  34.177  31.494   4.135 -0.0111  0.0243  0.1751
28915W        W71906   8.920   8.840  28.997  0.1440  0.3612  0.0225
28916W        W71907  22.466  31.193   4.734  0.0234  0.2274 -0.0213
28917W        W71908  28.040  33.654   2.782 -0.0992  0.0775  0.0867
28918W        W71909  12.816  33.760   7.486 -0.3948 -0.0379 -0.0198
28919W        W71910  26.302  25.863   2.539 -0.2834 -0.3287  0.2725
28920W        W71911  31.613  20.059  19.798 -0.0000  0.2873  0.2561
28921W        W71912  25.275  21.652  26.047 -0.0351  0.0458  0.3500
28922W        W71913   7.151  29.197   5.310  0.2163 -0.2434  0.3392
28923W        W71914  13.074  31.744  21.460 -0.0525  0.0476 -0.2193
28924W        W71915  26.368  24.959   5.413  0.2750 -0.1083 -0.3219
28925W        W71916  29.189  31.372   3.869 -0.0019  0.0791 -0.0924
28926W        W71917  32.641   8.272  27.041  0.1838  0.0654 -0.1255
28927W        W71918  17.500  15.914   5.816 -0.2401 -0.0556  0.1032
28928W        W71919  24.495  32.431   0.960  0.2946 -0.2948 -0.6747
28929W        W71920   4.042  26.330   7.513 -0.0453  0.3178  0.0079
28930W        W71921  22.450  31.762  27.387  0.1403 -0.1111 -0.1401
28931W        W71922   0.716  30.051  21.551 -0.2920 -0.0494  0.0539
28932W        W71923  15.032  17.317  27.295 -0.0429 -0.0896  0.2398
28933W        W71924  21.119   1.952  25.588 -0.3689 -0.0340  0.1462
28934W        W71925  31.230   0.952  24.607 -0.1380  0.0807  0.1229
28935W        W71926  16.482  27.394   0.274 -0.2213  0.3849  0.0287
28936W        W71927  32.822  14.724   6.680 -0.3908 -0.3292 -0.0895
28937W        W71928  15.267   9.016  28.206 -0.1301  0.1025  0.2072
28938W        W71929  15.035  30.768   7.051 -0.0504  0.2626 -0.4153
28939W        W71930   6.808  14.223   8.672 -0.0714  0.2625 -0.2402
28940W        W71931  10.185  24.690   2.925 -0.0951 -0.1666 -0.1051
28941W        W71932  21.225  34.072   3.851 -0.2526  0.1284  0.1787
28942W        W71933  29.648   0.187   3.376 -0.0141  0.2039  0.3640
28943W        W71934  14.636   4.632   4.868 -0.2410  0.0251  0.2480
28944W        W71935  22.226   2.553  24.987  0.2825 -0.4590 -0.0916
28945W        W71936  14.449   1.665   1.311  0.0459 -0.0973 -0.2533
28946W        W71937   9.128  25.512   3.818  0.3567 -0.0731  0.2849
28947W        W71938  29.132  30.165   2.734  0.1127 -0.1872  0.1437
28948W        W71939  14.333   2.333   9.680 -0.0436 -0.2981  0.3905
28949W        W71940  20.392  28.761  13.153 -0.0691 -0.3491  0.1180
28950W        W71941   6.328  17.197   0.034  0.3049  0.0536  0.2174
28951W        W71942  29.303  29.851   2.260  0.1696  0.0649 -0.1817
28952W        W71943  20.600  34.653   8.811  0.1482  0.4569  0.0113
28953W        W71944  30.647  21.498   5.875 -0.0096 -0.1097  0.3375
28954W        W71945  30.442   9.882   1.597  0.2899 -0.2656  0.2360
28955W        W71946  26.545  20.582  27.552  0.4775 -0.0145  0.0853
28956W        W71947  16.091  30.038   7.628  0.0913  0.2231  0.1598
28957W        W71948   5.780   6.601  27.055  0.1312  0.1799 -0.1050
28958W        W71949  14.144  11.609   7.908 -0.0402 -0.3337  0.1210
28959W        W71950  15.997   2.429  10.723  0.3617 -0.0974  0.2436
28960W        W71951  21.507   7.941   2.984 -0.0678  0.2585  0.2076
28961W        W71952  26.017  23.008  26.962 -0.1675 -0.1542  0.1419
28962W        W71953   0.521  22.032   1.739  0.3375  0.0451 -0.2012
28963W        W71954  27.514   2.967  27.446  0.2251 -0.2295 -0.0960
28964W        W71955  27.174  33.639   2.115 -0.2047  0.0683 -0.1380
28965W        W71956   9.864  31.418  26.662 -0.3184  0.0468 -0.0007
28966W        W71957  11.745  25.148  28.049  0.1374  0.0991 -0.0378
28967W        W71958  26.707  32.127   0.806  0.2435  0.0404 -0.2775
28968W        W71959  10.265   1.154   4.908 -0.0427  0.0865 -0.0578
28969W        W71960   8.886  26.478   6.235  0.1941  0.2834 -0.0681
28970W        W71961  30.836  31.080   2.855  0.0196  0.1758 -0.1536
28971W        W71962   1.744  32.055   2.727 -0.3644 -0.1658  0.1558
28972W        W71963  24.971   4.087   9.514  0.0299 -0.1446 -0.2361
28973W        W71964  22.827  24.452  24.697 -0.0170  0.0342 -0.1870
28974W        W71965  31.659  16.576   4.623  0.1375 -0.1939 -0.0457
28975W        W71966  16.729  26.315   2.596  0.3852  0.1512 -0.2908
28976W        W71967   4.234   8.695   2.816 -0.0780  0.1223 -0.1420
28977W        W71968   5.179   5.059  17.256  0.2531  0.0015  0.1021
28978W        W71969   3.133  24.618  23.905  0.0025 -0.1518 -0.0958
28979W        W71970   2.136  16.566  10.613  0.1837  0.1787 -0.1216
28980W        W71971  25.162  15.489   4.334 -0.1406 -0.1081  0.0724
28981W        W71972  25.003  16.164  25.643 -0.0574  0.1155 -0.0528
28982W        W71973  24.862   3.300   1.973 -0.1182  0.0120 -0.0056
28983W        W71974  21.340  32.674   5.961  0.0362  0.3369  0.0981
28984W        W71975  13.568  31.592   7.565 -0.3615 -0.1776  0.1146
28985W        W71976  13.599  19.694   5.510  0.0499  0.0233  0.3320
28986W        W71977  24.063  28.554  27.723 -0.2779 -0.0277  0.0080
28987W        W71978  19.774  27.419   5.703  0.0272 -0.4117 -0.4304
28988W        W71979  31.807  14.482   0.411 -0.2241 -0.1526 -0.0360
28989W        W71980  21.533  31.720   3.313 -0.0307  0.0074  0.0645
28990W        W71981   3.362  30.305  26.370  0.0983  0.0212  0.0290
28991W        W71982  25.951  30.297  18.529 -0.1159 -0.2712  0.0389
28992W        W71983  26.090  30.369   1.844 -0.2128  0.0121 -0.1528
28993W        W71984  26.400   3.651   4.995 -0.4175 -0.0795  0.1398
28994W        W71985   4.688  30.334  27.169 -0.0259  0.1151 -0.2766
28995W        W71986   9.002  32.096  27.279  0.3847 -0.0906  0.2178
28996W        W71987  25.591  11.348   7.187 -0.0495  0.0473  0.0702
28997W        W71988  17.781  28.647  10.333 -0.2030  0.1000 -0.0245
28998W        W71989  26.955  34.386   1.858  0.4340  0.2702  0.1486
28999W        W71990  27.459  31.297  19.135 -0.2304 -0.4580 -0.3091
29000W        W71991  14.893  33.095  22.698  0.3295  0.2792  0.0357
29001W        W71992  28.411  32.767  23.151 -0.0889  0.0218 -0.1278
29002W        W71993  14.234  31.731  27.455 -0.1673 -0.0272  0.1671
29003W        W71994  23.127  29.950  26.248  0.2163 -0.2036 -0.1063
29004W        W71995  21.112  23.904   7.000 -0.1335 -0.2966 -0.4924
29005W        W71996  21.866  11.805  26.097  0.0193  0.3416 -0.0136
29006W        W71997  15.171   4.874   8.345 -0.0253  0.0648  0.1817
29007W        W71998  16.446  30.375  20.175  0.1694  0.3273 -0.3140
29008W        W71999  22.697   5.826   5.465 -0.0241 -0.0622  0.0941
29009W        W72000   0.504  31.442   5.814 -0.1310  0.1337  0.0736
29010W        W72001  31.677  24.344   7.229  0.2583 -0.1626 -0.1899
29011W        W72002  31.418  16.568   9.870  0.0864  0.0104 -0.1072
29012W        W72003  13.861  19.585   6.582  0.0799 -0.0197 -0.0513
29013W        W72004  34.423   3.757   7.182  0.3911 -0.2929 -0.0013
29014W        W72005  34.124   2.776   6.415 -0.1712 -0.1295  0.0917
29015W        W72006  15.214  18.706   6.835 -0.5189  0.0216 -0.0020
29016W        W72007  33.470  12.195   4.557 -0.0091  0.0723 -0.0810
29017W        W72008   0.080  15.855  25.700  0.0173 -0.2535 -0.1410
29018W        W72009  34.503  26.895   5.513  0.0023 -0.1915  0.3317
29019W        W72010  16.708   9.502   3.943  0.1198 -0.0643 -0.0057
29020W        W72011  14.403  19.239   4.164  0.0308  0.1676  0.0434
29021W        W72012   6.204  25.860  24.540 -0.0102 -0.0387  0.0600
29022W        W72013  21.094  20.227   3.032  0.0878  0.1142 -0.0268
29023W        W72014  33.280   8.620  28.660 -0.0243 -0.2393 -0.2995
29024W        W72015  18.238   5.494   0.385 -0.0154  0.0187 -0.0611
29025W        W72016   4.655   1.976   5.740  0.3250 -0.2971  0.1250
29026W        W72017  14.537  26.929   7.957 -0.0622 -0.5028  0.0291
29027W        W72018  26.039  18.174   9.506  0.2793  0.1098 -0.1521
29028W        W72019   3.060  24.972   6.671 -0.1011 -0.1349 -0.2911
29029W        W72020  21.637   3.511   7.324 -0.0897 -0.0948  0.2084
29030W        W72021  16.190  31.638   1.994  0.4575  0.0848  0.0302
29031W        W72022  20.118  23.986   7.501 -0.4690  0.0700 -0.2548
29032W        W72023  28.582   9.675   5.973  0.1188 -0.0256 -0.0581
29033W        W72024  21.673  19.092  25.718  0.1759 -0.3551 -0.2272
29034W        W72025   5.131  20.720   2.271  0.2504 -0.1645  0.1947
29035W        W72026  19.115  25.005   5.857 -0.1728 -0.2885  0.2486
29036W        W72027  30.315  33.468   8.146  0.0067 -0.0648  0.2606
29037W        W72028   5.505   7.704   5.795 -0.0277  0.0797 -0.0285
29038W        W72029  25.555  30.788   1.517 -0.1199 -0.0149 -0.0986
29039W        W72030  32.009  13.072   4.455 -0.0885 -0.0682  0.2163
29040W        W72031  26.613  32.621  27.082  0.2565 -0.3362 -0.0547
29041W        W72032  24.314  34.115   5.722  0.0394  0.2017  0.0365
29042W        W72033  30.856  31.524  24.892  0.3701 -0.0301 -0.2456
29043W        W72034  10.664  27.338   3.568  0.1392  0.1710  0.0666
29044W        W72035  26.584   4.822   3.894 -0.0367  0.0056  0.0541
29045W        W72036  34.513  20.429  24.952 -0.0479  0.2063 -0.0083
29046W        W72037  23.476  31.637   0.716  0.0026 -0.0879  0.1508
29047W        W72038  15.455  30.804   3.670 -0.1369 -0.0278 -0.0903
29048W        W72039   9.928   3.887   7.444  0.0370  0.0320 -0.1135
29049W        W72040  20.243  19.655  23.223 -0.2034  0.2057  0.0361
29050W        W72041  28.999  22.443  24.749  0.0827  0.4448 -0.3773
29051W        W72042  30.014   1.306   6.485 -0.0036 -0.0328 -0.0407
29052W        W72043   5.228  27.695   5.823  0.1182  0.2626  0.2389
29053W        W72044  21.311  15.847  27.613  0.0391 -0.1338 -0.1885
29054W        W72045  32.409  29.292   6.100 -0.1395 -0.0254 -0.1767
29055W        W72046  27.456  24.292  22.654  0.0128 -0.0023 -0.3685
29056W        W72047  19.769  29.701   4.313  0.1232 -0.0106  0.0887
29057W        W72048  20.706   2.652   5.174 -0.3747  0.2078  0.3411
29058W        W72049  15.152  34.593   1.892 -0.0030 -0.1111  0.0554
29059W        W72050  24.065  31.544  26.233  0.0443 -0.0658  0.1295
29060W        W72051  34.693  29.084   7.502  0.1760 -0.0899 -0.1082
29061W        W72052   6.117  26.810   1.735  0.0254  0.1040 -0.0970
29062W        W72053  24.068   9.812   4.882 -0.0239  0.0167  0.1158
29063W        W72054  20.363  24.332   3.758 -0.1659 -0.1580 -0.0131
29064W        W72055   7.960  22.511  22.551 -0.0876 -0.0528 -0.0628
29065W        W72056  19.511  27.651   4.835 -0.1568  0.0708  0.0998
29066W        W72057  34.478  27.823   2.314 -0.0243  0.1462  0.0642
29067W        W72058  23.005  11.312  18.559  0.0398  0.1636 -0.3132
29068W        W72059   6.931  30.048   9.111  0.0692  0.1120 -0.1579
29069W        W72060  22.007  32.076  23.172 -0.3649  0.0828  0.0054
29070W        W72061  30.760  11.111   4.948 -0.2553  0.1033 -0.1026
29071W        W72062  13.168   0.178  17.398 -0.1625  0.1288  0.1313
29072W        W72063   7.483  11.781   1.961 -0.1642  0.3057 -0.1663
29073W        W72064  28.719  34.486   3.419 -0.3863  0.0147 -0.2156
29074W        W72065   5.680  27.766   3.589  0.0997  0.0822 -0.1268
29075W        W72066  27.886  24.876  19.102 -0.1079 -0.1710 -0.0034
29076W        W72067  20.232  25.101   1.690 -0.1452  0.1481  0.1551
29077W        W72068  12.847  13.342   3.829 -0.0572 -0.0820  0.0518
29078W        W72069  18.603   9.515   4.749  0.0087 -0.0305 -0.0664
29079W        W72070   1.361  32.798  26.455 -0.3193 -0.0515 -0.2384
29080W        W72071  28.321  26.584   5.351  0.2192 -0.0113  0.0894
29081W        W72072  24.902   3.263   4.617 -0.2858 -0.0681 -0.0375
29082W        W72073  24.977  32.317  19.818 -0.1270 -0.0993  0.0086
29083W        W72074   1.714  34.016   2.685 -0.1020 -0.4843  0.0405
29084W        W72075  16.461  27.201   7.431 -0.1182 -0.0192  0.0526
29085W        W72076  30.399  29.383   5.251  0.0890  0.2617 -0.0734
29086W        W72077  11.036  30.785  23.840 -0.3305 -0.2055 -0.2072
29087W        W72078  13.654  30.997   5.991 -0.3395  0.0339  0.0262
29088W        W72079  21.954  17.326  25.224  0.1073  0.1894 -0.1016
29089W        W72080  34.012  31.384   2.342  0.1618 -0.1673  0.3437
29090W        W72081  28.670  25.840   6.116  0.1085 -0.1987 -0.1496
29091W        W72082  14.179  30.881   2.766  0.1920  0.1138  0.0548
29092W        W72083  19.285   5.113   6.606 -0.1118 -0.0974  0.2872
29093W        W72084  18.755  32.712  20.122  0.2054  0.5239 -0.2781
29094W        W72085  23.640  29.228  28.132  0.2037  0.1373 -0.1597
29095W        W72086  28.779   4.758   7.534  0.2405  0.0036  0.0278
29096W        W72087  27.296  24.809   6.570 -0.2376 -0.0622 -0.0564
29097W        W72088   7.221   8.989  19.144  0.2605  0.4642  0.0451
29098W        W72089  23.463  23.904   5.665 -0.0534 -0.0811  0.1976
29099W        W72090  15.012  32.570   5.822  0.3828  0.0940  0.1722
29100W        W72091  32.263  30.118  21.130  0.1388  0.1729 -0.0727
29101W        W72092  15.319  12.657  26.353 -0.4205 -0.1197  0.0741
29102W        W72093  18.986   2.318  14.122 -0.4128 -0.2506  0.1272
29103W        W72094  13.262  20.833  24.194  0.1844  0.0799  0.2537
29104W        W72095  33.210  21.391   5.170  0.2338 -0.4947  0.1328
29105W        W72096  32.730  30.787   1.766  0.3043 -0.2223 -0.4371
29106W        W72097   6.498  31.840   7.937  0.0864  0.0696  0.2946
29107W        W72098  16.930   6.055  28.706  0.0752  0.2667 -0.0147
29108W        W72099   2.839  26.927  10.012  0.0868  0.0400  0.0838
29109W        W72100  31.960   0.799  28.345 -0.2732 -0.0780 -0.0616
29110W        W72101   2.842   3.178   2.162 -0.1254  0.0435  0.0958
29111W        W72102  13.561  22.205   4.760 -0.0473 -0.0940 -0.2511
29112W        W72103  12.391  34.387  10.789 -0.0536 -0.1317  0.0067
29113W        W72104  17.684   1.218  25.426  0.4686  0.1328  0.0291
29114W        W72105  12.936   2.019   7.054 -0.0935 -0.0431  0.1443
29115W        W72106  22.351   4.151   0.130  0.0949  0.0605  0.3496
29116W        W72107  19.496  19.884   5.477  0.1094 -0.0185  0.1390
29117W        W72108  33.857  23.635  25.586  0.0209  0.1611 -0.0113
29118W        W72109  20.186   8.959  26.516 -0.0133 -0.0418  0.2858
29119W        W72110  31.940   5.088  27.222 -0.1006 -0.0617  0.1247
29120W        W72111   9.685  33.280   7.882  0.0644 -0.1413 -0.1462
29121W        W72112  25.300  23.667   8.560 -0.0324 -0.1852  0.0273
29122W        W72113  21.113  23.680   9.500 -0.2281  0.1557 -0.0240
29123W        W72114  30.291  19.044  16.469  0.1481 -0.0709 -0.0406
29124W        W72115  23.247  30.484  23.967 -0.1895 -0.0990 -0.0259
29125W        W72116  22.166  31.135   3.609 -0.0214  0.3100  0.0722
29126W        W72117   0.335   5.548   1.003  0.1568 -0.2265 -0.0575
29127W        W72118  28.358   1.831  26.532  0.0885  0.1330  0.3573
29128W        W72119   3.181  31.138   1.065  0.2639  0.2418 -0.1174
29129W        W72120  13.470  30.673  25.749  0.1027  0.0889  0.0132
29130W        W72121  23.831   4.645  22.751 -0.1348 -0.0912  0.0613
29131W        W72122  27.729  19.553  27.779 -0.1700  0.1437 -0.2343
29132W        W72123  33.566   2.549   9.134  0.0131  0.2126  0.2623
29133W        W72124  15.947  33.719  25.451  0.1216 -0.2991  0.3871
29134W        W72125  22.268  26.268   2.893  0.0850 -0.0653  0.2273
29135W        W72126  28.670  25.722   1.991  0.1303  0.1736  0.0404
29136W        W72127  29.478  12.323   8.150  0.3637 -0.3545  0.1539
29137W        W72128  28.302  12.992  10.955 -0.2291  0.2640 -0.0672
29138W        W72129  32.735  29.763  28.944 -0.1228  0.0642 -0.1316
29139W        W72130  24.941  32.407   1.106 -0.1459  0.0070 -0.0930
29140W        W72131   9.410  21.571   4.821 -0.1479 -0.0369 -0.0142
29141W        W72132  13.890  21.788   6.321 -0.0734 -0.2649 -0.1960
29142W        W72133  25.292  30.097  13.256 -0.1773  0.0418 -0.1469
29143W        W72134   6.919  31.451   4.336 -0.2425 -0.0812 -0.1550
29144W        W72135  32.667  24.072   5.216  0.1513  0.0258 -0.2324
29145W        W72136   9.048  28.019  22.728 -0.1004  0.0629 -0.2953
29146W        W72137  33.530   5.000   7.192  0.1606 -0.0917  0.2732
29147W        W72138  29.459  33.660  26.298  0.2951 -0.1048 -0.0477
29148W        W72139  25.867  15.954  27.395 -0.1712  0.1452  0.1710
29149W        W72140  14.615  12.245  23.430 -0.1676  0.1289  0.1566
29150W        W72141  18.362   8.403  29.022 -0.2781 -0.0480  0.0253
29151W        W72142  27.212   4.405   5.944  0.2174  0.0491 -0.0189
29152W        W72143  32.083  12.041   9.105  0.0579  0.1179 -0.2155
29153W        W72144   6.369  17.151   1.120 -0.1127  0.0891  0.4168
29154W        W72145  17.287  11.949   5.939 -0.3516  0.1614 -0.1558
29155W        W72146   9.727  19.038   8.707 -0.5288  0.4034 -0.0145
29156W        W72147   3.144  28.356  28.056 -0.0714  0.0809 -0.2860
29157W        W72148  27.431  30.145  28.509 -0.1228  0.0020  0.1472
29158W        W72149  31.044  17.671   9.107  0.1180  0.0113  0.2382
29159W        W72150  28.369   2.747   1.149  0.3158 -0.0644  0.1266
29160W        W72151   0.185   4.533  10.083 -0.1764  0.1436 -0.0258
29161W        W72152  24.230  10.858   1.453 -0.0773  0.1043 -0.1143
29162W        W72153  23.305  29.008   1.887  0.2088  0.0357 -0.1046
29163W        W72154   1.626  30.062  26.565 -0.2436 -0.0551  0.0182
29164W        W72155  28.468   5.878   4.321  0.0699  0.1797  0.0673
29165W        W72156  12.914   3.085   4.400 -0.0556 -0.3143 -0.0905
29166W        W72157  17.643   9.313   9.659  0.0728  0.0592 -0.0961
29167W        W72158  20.784   0.516   9.090 -0.1380 -0.1417  0.3503
29168W        W72159   5.382   5.954   9.211 -0.0354 -0.1005  0.0375
29169W        W72160  19.087   4.977   4.166 -0.2527  0.1690  0.0276
29170W        W72161  28.290   9.191  18.806 -0.0842 -0.0290 -0.0076
29171W        W72162  18.438  26.706   5.196 -0.1064  0.0049  0.0688
29172W        W72163  25.466   8.121   9.841  0.1866  0.2812 -0.0764
29173W        W72164   3.773   1.650   0.171 -0.3890 -0.2388 -0.2330
29174W        W72165  24.250   4.976   4.505  0.1740 -0.4310 -0.3537
29175W        W72166  17.751   1.603  18.006 -0.2594  0.0176  0.1449
29176W        W72167  18.157  25.655   7.319 -0.3113 -0.0081 -0.0413
29177W        W72168  20.227   5.819   6.546  0.0319  0.4050  0.1640
29178W        W72169   9.841  25.131  16.526  0.1900 -0.2333  0.0557
29179W        W72170  24.578  25.179   0.206 -0.0669  0.3648  0.1271
29180W        W72171   2.233  21.046  28.383 -0.2099  0.0236 -0.3959
29181W        W72172  24.126   0.694  16.951 -0.0868 -0.3366 -0.0697
29182W        W72173   1.317  32.192   4.750 -0.0568  0.3439 -0.2087
29183W        W72174   3.902   4.249   8.712  0.0855 -0.1801  0.0531
29184W        W72175  19.193  30.245  26.742  0.1010  0.0196  0.0172
29185W        W72176  22.962  27.688   7.152 -0.0383  0.4315  0.0667
29186W        W72177  10.368  29.741  21.956 -0.1654 -0.0522 -0.3526
29187W        W72178  24.703  20.619   4.578  0.0744  0.1203 -0.0205
29188W        W72179  33.876  32.390   8.075  0.2336  0.2672 -0.1227
29189W        W72180  24.139   1.156   8.341 -0.1395  0.0965  0.2755
29190W        W72181   9.851  16.059   6.898 -0.2624  0.1156 -0.0188
29191W        W72182  21.344  28.941  24.232  0.0263 -0.2479  0.0248
29192W        W72183  19.793   6.952   8.454 -0.1150  0.1393  0.4702
29193W        W72184  20.024   6.632   0.538 -0.0030 -0.2219  0.0799
29194W        W72185  14.577  25.414  28.968 -0.1292 -0.1724  0.4249
29195W        W72186  24.115   0.456  27.027  0.1438  0.2470  0.0379
29196W        W72187  21.858  17.290  23.667 -0.5259  0.2403  0.1153
29197W        W72188  25.351  34.679   3.726  0.0826  0.2808  0.0047
29198W        W72189  34.755  32.825  26.784 -0.3428 -0.0768  0.5474
29199W        W72190  32.258  32.481   3.047  0.0311 -0.0542 -0.0708
29200W        W72191  30.117  30.116   7.847  0.2834  0.0953  0.2631
29201W        W72192  22.354  19.895   7.166 -0.1552  0.1713  0.1112
29202W        W72193   3.030   7.226  26.078 -0.0283  0.1331 -0.0163
29203W        W72194  24.807   8.307   2.892  0.0125  0.1621 -0.0667
29204W        W72195  12.477   5.555  24.054 -0.1296 -0.2322  0.0861
29205W        W72196   5.910  14.096  18.204  0.3213 -0.0188  0.0314
29206W        W72197   2.436  33.268   5.589 -0.1805  0.1801  0.0742
29207W        W72198  32.474   9.106   5.203 -0.1671 -0.2603  0.0960
29208W        W72199   0.136  24.241  10.057 -0.1323 -0.0420 -0.3151
29209W        W72200   5.424  26.726  16.840 -0.3458  0.0684  0.0837
29210W        W72201  21.434  22.473  27.060 -0.1056  0.0215 -0.1774
29211W        W72202  32.928  33.863  28.645 -0.0936  0.3218 -0.1235
29212W        W72203  13.962  32.826  23.713 -0.0324  0.1367  0.1770
29213W        W72204   9.535  24.584  26.210 -0.1503 -0.1084 -0.1756
29214W        W72205  16.987  20.534   8.224 -0.3752  0.0275  0.3061
29215W        W72206  24.536  23.035   2.215  0.2494  0.0367  0.2137
29216W        W72207  22.992   2.490   6.408  0.2567 -0.1639 -0.1790
29217W        W72208  26.039  28.815   2.305  0.2082  0.2480  0.0491
29218W        W72209  15.524  21.377   8.145 -0.0034  0.1137  0.0921
29219W        W72210  13.004  17.388   2.795 -0.1155  0.0882  0.1656
29220W        W72211  16.982  10.655   4.520 -0.4526 -0.2704 -0.3849
29221W        W72212  14.598  27.892   4.860  0.0670  0.2814 -0.0031
29222W        W72213  27.427  32.481  18.671  0.0168  0.3075 -0.0748
29223W        W72214  27.003   2.719  25.279 -0.0565 -0.0220 -0.0227
29224W        W72215  32.740  15.932  26.672  0.1637 -0.0140  0.3777
29225W        W72216  33.707  24.229  26.284 -0.2108 -0.0280  0.0769
29226W        W72217  32.388  31.662  28.051 -0.4322 -0.0751  0.0051
29227W        W72218  34.233   1.803  15.781 -0.1425 -0.0804  0.2485
29228W        W72219  22.431  31.476   2.238  0.0133 -0.0590 -0.0362
29229W        W72220  22.331   2.898   3.223  0.0213  0.2674  0.2818
29230W        W72221  30.644  28.642   3.638 -0.0219 -0.0918  0.1295
29231W        W72222   2.837   7.242  22.713  0.2209  0.1994 -0.0130
29232W        W72223   3.800  31.935  27.897  0.0756 -0.1954 -0.0309
29233W        W72224  21.758   6.820   4.598  0.0593  0.3430  0.1606
29234W        W72225  30.128  31.565   2.402 -0.2206 -0.0249 -0.0364
29235W        W72226   7.454  30.412   8.598 -0.2064 -0.0868 -0.0847
29236W        W72227   5.895   3.078  27.006  0.1248 -0.2887  0.0686
29237W        W72228  25.914   9.266   6.203  0.2220 -0.1544  0.0726
29238W        W72229  32.219  30.120  20.593 -0.1468 -0.2258 -0.2735
29239W        W72230  15.159  11.963   0.160  0.3376  0.1072 -0.2181
29240W        W72231  33.638  30.835  16.106 -0.2383 -0.0288  0.0391
29241W        W72232   8.220  34.022   5.930 -0.2088  0.1767  0.0373
29242W        W72233  26.857  26.777  13.763  0.0673  0.2467 -0.1367
29243W        W72234  27.077  29.837   5.624 -0.0149 -0.1084  0.0435
29244W        W72235  20.556  32.732  26.732 -0.1067 -0.0499 -0.1058
29245W        W72236   5.239  25.255  25.955  0.0805 -0.2220  0.0362
29246W        W72237  12.812  29.281  18.521  0.2232 -0.1630  0.0693
29247W        W72238  22.190  29.217   3.580  0.3800  0.1718  0.2920
29248W        W72239  20.424  21.523   7.255 -0.2558 -0.0203  0.0442
29249W        W72240  19.179   4.297  26.884 -0.1560 -0.1451 -0.0771
29250W        W72241  28.914  17.845   0.492 -0.0238  0.1872  0.4345
29251W        W72242  12.411   2.532  25.137  0.1395 -0.0803 -0.0897
29252W        W72243  28.663  24.974   1.753  0.0200 -0.0713 -0.1019
29253W        W72244   2.425   0.943   2.346  0.0776  0.1509  0.1361
29254W        W72245  26.779   1.401  16.672  0.1290  0.2302 -0.2471
29255W        W72246  22.756   1.074   3.131  0.1666  0.0980  0.0286
29256W        W72247  26.439  30.202   2.343  0.0820 -0.2065 -0.4059
29257W        W72248  24.476  13.563  20.787 -0.0301 -0.0512  0.3641
29258W        W72249  28.003   6.697  23.904 -0.0034  0.1061  0.0611
29259W        W72250  30.190  11.586   6.398 -0.1463  0.1782 -0.0884
29260W        W72251  23.348  29.951   8.330 -0.1819 -0.0324 -0.0222
29261W        W72252  15.125  29.900   2.923  0.0338 -0.1703  0.2980
29262W        W72253  17.707   5.499   4.037 -0.1623 -0.4508 -0.0691
29263W        W72254  29.733  25.209  26.610  0.0900 -0.0054 -0.3579
29264W        W72255  34.075  20.723   0.390  0.1851 -0.2516 -0.0716
29265W        W72256   0.304   0.725   4.896  0.1832  0.2272  0.0715
29266W        W72257  32.500  18.288   3.387 -0.1346 -0.0642 -0.1537
29267W        W72258   7.240   4.919  26.396  0.0698  0.3011 -0.2557
29268W        W72259  26.840   8.690   2.195  0.5160 -0.0669  0.3026
29269W        W72260   1.580  24.805  22.897  0.1483  0.1706 -0.3366
29270W        W72261  19.646   2.096   2.530 -0.1617  0.0774  0.0391
29271W        W72262  20.658  29.367   2.804 -0.2702  0.1263  0.0844
29272W        W72263  16.701  18.798  24.462  0.1429  0.4704  0.2454
29273W        W72264  29.399  29.788  22.050 -0.2933 -0.2573  0.1995
29274W        W72265  22.039   7.430  18.980  0.1213 -0.0795  0.2781
29275W        W72266   9.542  24.666   5.381 -0.1955 -0.1411 -0.0865
29276W        W72267  30.516  14.307   5.422 -0.0883 -0.1553 -0.0692
29277W        W72268  13.544   0.604  14.755  0.0589  0.1231 -0.0286
29278W        W72269  21.591  10.830   5.865 -0.1714 -0.2158 -0.0367
29279W        W72270  19.572  16.797   4.841  0.4109  0.2341 -0.3371
29280W        W72271  34.517   5.862   4.235 -0.2654 -0.1230  0.0363
29281W        W72272  31.383  20.217   3.726 -0.0504  0.0064 -0.5369
29282W        W72273  22.958  22.560  25.943  0.3363 -0.1897  0.0552
29283W        W72274  17.067  34.549  26.085  0.0388 -0.2133 -0.0090
29284W        W72275  26.507   4.288   4.179  0.1161  0.1448  0.5232
29285W        W72276  31.185  29.345  13.602 -0.0972  0.1521 -0.1397
29286W        W72277  16.278   4.167  19.104 -0.0534  0.0039  0.1881
29287W        W72278  21.553  18.367   2.488  0.4688  0.1730 -0.0350
29288W        W72279  17.459  24.543   6.727  0.0090  0.0491  0.1290
29289W        W72280  33.165  14.485   2.885  0.0508  0.0575  0.0367
29290W        W72281  11.599   0.566  27.410  0.0810 -0.0811  0.2501
29291W        W72282  17.435  23.243  28.426  0.1787 -0.0216 -0.3769
29292W        W72283  27.710   5.503   3.540  0.2616  0.2459 -0.0437
29293W        W72284  26.163   5.694  25.330 -0.2095  0.1201 -0.0850
29294W        W72285  30.325  27.345   0.054 -0.0093 -0.0735 -0.2465
29295W        W72286  17.440   7.064  28.338 -0.4556 -0.2412  0.1423
29296W        W72287  19.605  31.622   4.894  0.1281  0.2796 -0.1315
29297W        W72288  22.582  15.406  18.618  0.3070  0.0375 -0.2600
29298W        W72289  24.389  33.837   4.055  0.2686  0.1584  0.1050
29299W        W72290  20.647  23.771  24.162 -0.2357 -0.0432 -0.0195
29300W        W72291  16.516  33.143   0.377 -0.3380 -0.1922  0.0458
29301W        W72292  22.939   1.369   0.784  0.1813 -0.0389 -0.1181
29302W        W72293  22.227  21.507   7.172  0.0740 -0.0357 -0.0054
29303W        W72294  15.914   5.718   5.586 -0.1808 -0.3972  0.3277
29304W        W72295  24.803   0.398  27.741 -0.0341  0.2012  0.0751
29305W        W72296  23.195  31.950  26.891 -0.0882  0.2001  0.2369
29306W        W72297  12.494  33.397   6.222 -0.0050 -0.0888  0.3458
29307W        W72298  26.093   0.294   1.706 -0.2935 -0.2748  0.1976
29308W        W72299  31.104  34.089  26.992 -0.3453 -0.0466  0.1205
29309W        W72300  22.771   8.139  26.755  0.1420 -0.1390 -0.2966
29310W        W72301  29.206  21.437  24.556 -0.1435  0.0560 -0.2090
29311W        W72302  30.892  24.892  25.301  0.0617 -0.0016 -0.2253
29312W        W72303  10.685   6.438  27.340  0.1743 -0.0766 -0.1010
29313W        W72304   3.522  24.730   9.298  0.2336 -0.1352  0.2731
29314W        W72305  18.515  25.536  17.718  0.1066  0.0283  0.3043
29315W        W72306  30.958   6.720   3.502 -0.1039 -0.0695  0.1630
29316W        W72307  17.494  31.124   7.842  0.2446  0.3456  0.0070
29317W        W72308  20.082   4.203   7.241  0.0579 -0.0971 -0.0531
29318W        W72309  15.392  25.603   7.137 -0.0684  0.0322  0.0885
29319W        W72310  20.830   3.982   3.893 -0.0525  0.2846  0.2052
29320W        W72311  23.886  34.217   8.877 -0.2260  0.2518 -0.1188
29321W        W72312   7.796  24.955  24.809 -0.1317  0.5134 -0.1504
29322W        W72313  28.164  20.447   4.215 -0.0589  0.1421  0.1323
29323W        W72314   8.282  32.757  16.121  0.2813  0.2155 -0.0691
29324W        W72315  32.738  16.794   9.078  0.0479 -0.1788 -0.2044
29325W        W72316  27.648  29.036   6.090  0.1942  0.1005 -0.3372
29326W        W72317  15.823  13.029   7.798 -0.0494  0.2433  0.0935
29327W        W72318  22.658  19.342   4.795  0.2314  0.1532 -0.2040
29328W        W72319  11.607  12.116  10.520 -0.3492 -0.3861 -0.0853
29329W        W72320  30.775  15.919   1.867 -0.1214 -0.3248 -0.1951
29330W        W72321  28.701  27.461  23.758  0.2489 -0.1141 -0.0432
29331W        W72322  20.779  31.663   3.095  0.1527 -0.3744  0.2942
29332W        W72323   9.480   7.670   6.620  0.1693  0.2631  0.2265
29333W        W72324  10.836  30.365   9.545 -0.1869  0.0375 -0.1107
29334W        W72325  28.955  24.910  21.250 -0.0123  0.0153 -0.1170
29335W        W72326  31.737  21.096   9.445 -0.1898  0.0418 -0.0456
29336W        W72327  25.011   0.502  27.276 -0.1285  0.1321  0.0634
29337W        W72328  17.981  12.474  25.764  0.0036 -0.2659 -0.1014
29338W        W72329  17.282  13.679   6.441 -0.0290 -0.0932  0.0739
29339W        W72330  33.050  26.927   6.875  0.0242 -0.3018  0.2295
29340W        W72331  30.739   0.625   6.180  0.1516 -0.1997  0.1732
29341W        W72332  27.759  31.589  21.609  0.1298 -0.0462  0.0387
29342W        W72333  27.294  33.524   2.928  0.0008 -0.3655 -0.0012
29343W        W72334  23.128   1.043   7.232  0.1356 -0.1682 -0.0119
29344W        W72335   3.062   3.400   6.167  0.0249 -0.1170  0.0233
29345W        W72336  19.482  21.132  28.051 -0.0636 -0.1864  0.2483
29346W        W72337  18.676  31.283   8.584  0.0602  0.1130  0.0863
29347W        W72338   9.442  20.510   1.408 -0.4417 -0.5089 -0.0169
29348W        W72339  29.241   9.256  16.451  0.1156 -0.1365  0.1219
29349W        W72340  28.908  14.938   5.177  0.0234  0.0411 -0.0990
29350W        W72341  29.145  24.991  28.140 -0.1071  0.1113  0.1862
29351W        W72342  20.807  16.868  27.982  0.0822 -0.0497  0.0763
29352W        W72343  33.353   6.314  25.974  0.1572  0.2025  0.3041
29353W        W72344  30.736   6.434   0.187  0.1047  0.0572  0.1129
29354W        W72345  15.172   0.352   7.081 -0.3403 -0.2827 -0.0038
29355W        W72346  31.288  28.883   3.611 -0.1254 -0.3321 -0.2476
29356W        W72347  19.041  11.671  10.160 -0.3604 -0.0448 -0.1723
29357W        W72348  33.471  18.367  27.471 -0.1285 -0.0236 -0.3390
29358W        W72349  28.279   2.744   7.577  0.2105 -0.1671 -0.1078
29359W        W72350   5.425  32.071   4.840  0.0417  0.0885  0.1987
29360W        W72351  31.195  25.200   8.831 -0.1212  0.0068  0.1195
29361W        W72352  12.286  34.178  28.799 -0.0305 -0.1911  0.1657
29362W        W72353  29.097   0.123   7.676  0.1649  0.1537  0.1662
29363W        W72354  27.953   0.534   8.335  0.0432 -0.0974 -0.2440
29364W        W72355  31.125  20.626   2.491 -0.1437 -0.1162  0.0614
29365W        W72356  16.300   2.897   2.112  0.2382  0.1309 -0.2753
29366W        W72357  25.777  14.032   4.305 -0.2994  0.0520 -0.4459
29367W        W72358  26.522  24.387   0.285 -0.3092 -0.0383  0.1150
29368W        W72359   3.892  25.955   7.277  0.1637  0.3132  0.2525
29369W        W72360  33.071  32.177   8.958 -0.1034  0.0578 -0.1304
29370W        W72361  28.673   3.305   1.242 -0.3080  0.2288 -0.0310
29371W        W72362  21.667  18.344   4.691 -0.1266  0.0576 -0.0676
29372W        W72363  22.365  19.559  17.806 -0.2887  0.5023 -0.0196
29373W        W72364  23.706  25.676  28.040  0.0077 -0.3129 -0.1581
29374W        W72365  12.302   4.943   4.323  0.1976 -0.1747  0.0263
29375W        W72366  24.327   1.770   6.841  0.0499 -0.0607  0.4588
29376W        W72367  19.316   6.457   7.856  0.1622 -0.1716 -0.1527
29377W        W72368  23.846  29.302  24.202  0.0503 -0.1557 -0.4084
29378W        W72369  13.096   5.988   9.395  0.0697 -0.1976 -0.2225
29379W        W72370  24.966  17.527  25.992 -0.0354 -0.1403 -0.3577
29380W        W72371  25.475  25.254   0.054 -0.0526 -0.0890 -0.2837
29381W        W72372  33.772   2.630   6.793 -0.2964  0.2747 -0.0950
29382W        W72373  25.507  22.141  18.271 -0.1309 -0.3887  0.1037
29383W        W72374  18.395  33.593   7.221  0.0079 -0.0474 -0.0296
29384W        W72375  21.645   1.173   8.384 -0.0643  0.0390 -0.0975
29385W        W72376   0.197  28.490  25.811  0.1773  0.1573 -0.1173
29386W        W72377  14.235  14.212   1.888 -0.3706 -0.0007 -0.2158
29387W        W72378  33.216  33.319   6.791 -0.1289  0.1477 -0.0473
29388W        W72379  15.614  20.579   3.455  0.0625  0.1745 -0.2503
29389W        W72380  11.125   5.226   2.573  0.0703  0.0249  0.1346
29390W        W72381  14.782  24.816   6.188  0.2374  0.0958 -0.3655
29391W        W72382  20.755  34.020  26.572 -0.1278 -0.0660  0.0407
29392W        W72383   5.877   8.818  19.109 -0.1185 -0.2570 -0.3719
29393W        W72384  30.442  16.788   6.366 -0.3188  0.0599  0.1143
29394W        W72385  27.538   1.710   8.517 -0.1993  0.2839 -0.0803
29395W        W72386  17.579  25.375   4.421  0.1787  0.1073 -0.3324
29396W        W72387  34.547  21.986   1.996 -0.1069  0.2321  0.2214
29397W        W72388  23.305  24.940  28.550 -0.0104  0.1716  0.2503
29398W        W72389  28.595   6.025   8.427 -0.2541  0.3644  0.1947
29399W        W72390  22.350  11.811   8.936  0.3394 -0.0371  0.1292
29400W        W72391  18.876  22.432  25.159 -0.3248 -0.0568  0.1204
29401W        W72392  17.156  21.598   3.598  0.1439  0.0059  0.1942
29402W        W72393  24.790  33.124   6.228  0.0839 -0.0536 -0.0677
29403W        W72394   8.487  23.880   3.989 -0.0046  0.1161 -0.1159
29404W        W72395  16.686  31.972   9.421 -0.0868 -0.2771 -0.1971
29405W        W72396  34.762   3.336   7.141  0.1632 -0.2094  0.1096
29406W        W72397   0.120  26.783   1.457  0.1692 -0.3114 -0.0157
29407W        W72398  13.627  28.381   7.620  0.0433 -0.1668 -0.0788
29408W        W72399   3.810  14.161  22.955 -0.0738 -0.3952 -0.0328
29409W        W72400  33.828   0.165   9.264  0.3272  0.2090  0.0010
29410W        W72401   3.079  24.883  10.550 -0.4231  0.0502 -0.2874
29411W        W72402  20.679  26.494  21.838  0.1674 -0.0290 -0.0953
29412W        W72403  33.716   1.800  28.624 -0.2517  0.2293  0.2709
29413W        W72404  28.194  32.075   6.079  0.0688 -0.0123 -0.4349
29414W        W72405   5.499  20.131  28.566  0.1362  0.0082  0.1133
29415W        W72406  23.476  32.077  24.095  0.0468  0.0512 -0.4296
29416W        W72407  20.246   3.560  25.664  0.2649  0.0790 -0.3787
29417W        W72408  12.884  27.983   7.909 -0.0836 -0.0633  0.1282
29418W        W72409  18.942   3.487   7.763 -0.0011 -0.1519  0.1906
29419W        W72410  33.046  15.207   4.750 -0.0370 -0.1860 -0.0682
29420W        W72411  13.977  31.995  27.095 -0.1496  0.2797 -0.0559
29421W        W72412  12.285   4.069   7.498  0.0375 -0.3635 -0.0965
29422W        W72413  12.221  19.910   8.724 -0.2206  0.1588  0.4898
29423W        W72414  19.838   5.615   2.052  0.4116  0.0012 -0.0317
29424W        W72415  12.734  19.226  24.303  0.3161 -0.1484  0.0638
29425W        W72416  18.297  28.796   0.796  0.0983  0.1038 -0.1622
29426W        W72417  33.952  32.023   4.704 -0.2008  0.3912 -0.1662
29427W        W72418  14.034   2.740   0.075 -0.0179 -0.1189  0.1764
29428W        W72419  16.204  16.995   7.125  0.1502  0.1834  0.0204
29429W        W72420  27.304  32.359   4.272  0.2238 -0.4051 -0.2228
29430W        W72421  21.603   8.902  27.974 -0.1295 -0.0335 -0.1726
29431W        W72422  32.567  24.639  29.139 -0.2378  0.1689  0.0429
29432W        W72423  30.061   2.046   2.425  0.2312  0.3359  0.1157
29433W        W72424  26.489   6.535  15.061  0.1490  0.1135  0.0584
29434W        W72425  21.903   2.049   6.547 -0.1415  0.0813  0.0916
29435W        W72426  34.568  32.509  27.277 -0.2572 -0.1328  0.0122
29436W        W72427  33.356  22.088  29.039  0.1305  0.0949 -0.2461
29437W        W72428   1.296  20.678   3.267 -0.0054  0.0255 -0.1065
29438W        W72429   7.100   3.890   8.648 -0.1352 -0.0261  0.0688
29439W        W72430  34.286  29.000   8.927 -0.0723  0.0872 -0.0614
29440W        W72431  32.547  21.185   3.715  0.0921  0.0788 -0.0997
29441W        W72432   0.015  12.175   0.041  0.2172 -0.0430  0.2082
29442W        W72433   7.590  30.989   8.861  0.0080  0.3976  0.0671
29443W        W72434  14.767  26.178   3.546  0.3914  0.0126  0.4875
29444W        W72435  17.745  34.765   4.550 -0.1656  0.1649  0.2079
29445W        W72436  26.559   0.968   6.112 -0.0115  0.1812 -0.1810
29446W        W72437   8.377   1.894   0.198  0.0601 -0.3214 -0.0664
29447W        W72438  28.941   9.995   3.734 -0.0961  0.2173 -0.0303
29448W        W72439  14.353  14.672   8.679  0.3028  0.2491  0.0682
29449W        W72440  24.180  14.542   3.256  0.0068 -0.0968  0.1058
29450W        W72441   9.287  23.254  23.122 -0.3042  0.0791 -0.1581
29451W        W72442   9.507   5.945   4.126  0.3429  0.1949 -0.2845
29452W        W72443   2.601  23.472  25.904  0.0045  0.0931 -0.0280
29453W        W72444  33.730  28.064  24.436  0.0264  0.1174  0.1377
29454W        W72445  34.179  31.877  28.329  0.2132  0.1433  0.1231
29455W        W72446   9.528   3.285   4.899  0.0306 -0.0151 -0.0706
29456W        W72447   1.192  24.547  28.025  0.0083  0.1341  0.0036
29457W        W72448  14.895  25.776   3.298  0.3113 -0.0244  0.1504
29458W        W72449  30.004  17.625  28.913 -0.0677 -0.2005  0.3391
29459W        W72450  20.749  10.162   8.225 -0.1240  0.2687 -0.1656
29460W        W72451  22.040   9.687   1.025 -0.2992 -0.0090  0.5159
29461W        W72452   2.867  27.726  26.850 -0.1689  0.0135 -0.1247
29462W        W72453  21.485  27.699   3.254 -0.1293  0.0246 -0.0105
29463W        W72454   8.357   5.162   5.695  0.4745  0.0636  0.0070
29464W        W72455  20.760  25.459   8.760  0.4918  0.1131  0.2969
29465W        W72456  20.861  28.306   6.583 -0.1211 -0.2821  0.3089
29466W        W72457  34.243   5.143   5.012  0.5143  0.0586  0.2703
29467W        W72458  20.949  20.801  19.768  0.0408  0.1107 -0.3075
29468W        W72459   5.372  25.380   8.156  0.0044 -0.0536 -0.2190
29469W        W72460   0.886  32.186  10.366 -0.1142  0.1567 -0.0674
29470W        W72461   3.567  29.072   4.010 -0.1742 -0.1166  0.0747
29471W        W72462  23.816  21.185  15.296 -0.0618 -0.4647  0.2601
29472W        W72463  33.763  25.768   4.732  0.1877 -0.0806 -0.2029
29473W        W72464   7.763  21.439   0.089 -0.2497  0.1823  0.0288
29474W        W72465  31.570   7.115   2.465 -0.0175  0.0889  0.1070
29475W        W72466  25.271   7.342   5.277  0.1279 -0.0422 -0.0802
29476W        W72467  15.451   5.810   3.461  0.0485 -0.0410 -0.0864
29477W        W72468   0.975   6.232   6.677  0.2742  0.2089 -0.1643
29478W        W72469  15.507  12.565  22.858  0.0100 -0.2668 -0.0272
29479W        W72470  24.697   5.487  14.417 -0.2467 -0.1334 -0.3037
29480W        W72471  28.963  29.555  29.221  0.1030  0.1982 -0.1853
29481W        W72472  17.454  34.283  26.112 -0.0310  0.2997 -0.2471
29482W        W72473  13.136  24.122  17.348  0.0307  0.0691  0.2235
29483W        W72474  23.450  29.380  21.390  0.3162  0.0468  0.0165
29484W        W72475  23.029   6.854  22.305 -0.2490 -0.0186  0.0430
29485W        W72476  18.056  29.283   1.777  0.0544  0.1848  0.3700
29486W        W72477  19.319  32.396  25.202  0.2580  0.1904 -0.0787
29487W        W72478  17.058  23.939   6.794  0.1599 -0.1069  0.3165
29488W        W72479  26.939  10.182  26.541  0.0750 -0.0709 -0.2601
29489W        W72480  22.920  32.736  24.533 -0.0358  0.3415  0.0983
29490W        W72481  17.593  26.790   8.316  0.3746  0.1345 -0.0186
29491W        W72482  22.628   8.965   3.424 -0.1376  0.0581 -0.1200
29492W        W72483  24.248  27.742   7.210 -0.2038  0.0828 -0.0019
29493W        W72484  25.248  28.845   1.333  0.4118 -0.1489 -0.0655
29494W        W72485  20.509   5.846  24.966  0.1295 -0.3506 -0.2415
29495W        W72486  19.717   5.906   3.968 -0.0756 -0.0132  0.0300
29496W        W72487  21.162  23.102   4.287  0.0387  0.0006  0.1084
29497W        W72488   9.539  20.246   8.746  0.1506 -0.0262 -0.3452
29498W        W72489  32.020   6.379   1.089 -0.0382 -0.0092 -0.0794
29499W        W72490   3.499  29.324   8.205  0.0666  0.0074  0.2234
29500W        W72491   6.605   2.168  25.484 -0.0549  0.0876 -0.0058
29501W        W72492  22.993  28.839   5.049  0.1175  0.0879 -0.1163
29502W        W72493   6.303  28.916   5.058  0.0017  0.1371 -0.0112
29503W        W72494  28.317  33.369  22.582 -0.1833 -0.1672  0.1778
29504W        W72495  18.208  16.443  20.659 -0.1385  0.2837  0.0666
29505W        W72496  30.484  27.256  28.749 -0.0639 -0.1607  0.2082
29506W        W72497   2.318  21.195  10.597 -0.0557  0.1206  0.2217
29507W        W72498  15.162  20.529   1.594  0.2255 -0.3057  0.0511
29508W        W72499  22.643  26.594   1.475 -0.3549  0.1725  0.0967
29509W        W72500  19.381   1.019   6.522  0.0522  0.3899  0.1822
29510W        W72501   8.319  34.282   9.556  0.2453 -0.1642 -0.0558
29511W        W72502  18.594  32.838   3.212  0.1467  0.0583  0.0506
29512W        W72503  28.944  20.111   2.158  0.2189 -0.0730  0.1402
29513W        W72504  26.636  21.852   3.847 -0.1342  0.1835  0.1161
29514W        W72505  27.783  23.597   3.820 -0.2857  0.2190  0.1934
29515W        W72506  28.510  33.740  27.419 -0.0034  0.1088  0.1463
29516W        W72507  29.241  29.850   7.827 -0.1574 -0.1628  0.1137
29517W        W72508  13.370  29.190   1.126  0.1088 -0.0170  0.3874
29518W        W72509  16.011  10.774  28.853  0.0723  0.3217 -0.3174
29519W        W72510  15.987   9.118   4.479  0.0548  0.2281  0.0554
29520W        W72511   6.777  30.710   6.199 -0.3385 -0.0982  0.1456
29521W        W72512  23.436  33.886   7.681 -0.2109  0.1120  0.0866
29522W        W72513  16.242   9.767   7.776  0.0204  0.0744  0.0009
29523W        W72514  20.261   9.341  24.646  0.2840 -0.1055  0.2363
29524W        W72515  26.772  22.777   5.561  0.0960  0.0697 -0.3268
29525W        W72516  23.293  32.003   1.561 -0.1881 -0.2337  0.4368
29526W        W72517   1.063  24.141   5.196  0.0554  0.0488  0.4956
29527W        W72518  17.953   3.407   8.190 -0.0020  0.0746  0.2701
29528W        W72519  26.198  19.100   4.835  0.1073 -0.2770  0.2650
29529W        W72520  17.672  24.375   6.118 -0.3786 -0.0095 -0.2546
29530W        W72521  26.934  34.789   7.757 -0.2362  0.2348 -0.0756
29531W        W72522  11.899  28.544  28.325 -0.2796  0.1978  0.0674
29532W        W72523  30.109  23.179  28.533 -0.0224  0.4109 -0.1377
29533W        W72524  25.494  32.367   6.501  0.1223 -0.2776 -0.1529
29534W        W72525   5.196  31.402   3.936 -0.1944  0.2662 -0.2643
29535W        W72526  23.165   5.892   7.552  0.1669 -0.3265 -0.0267
29536W        W72527   1.964   9.454  23.002 -0.3882  0.0671  0.3299
29537W        W72528  29.912  33.753   3.289  0.0722  0.0092 -0.0134
29538W        W72529  26.895   9.243   7.960  0.0467  0.2561  0.0084
29539W        W72530  27.476  24.950  28.491  0.2632 -0.0081  0.0002
29540W        W72531  24.284  12.743  10.170  0.1246  0.3121 -0.2018
29541W        W72532  22.921  33.289   8.436  0.2841  0.0256 -0.0128
29542W        W72533  24.798  31.423   1.769 -0.4553 -0.2005 -0.1120
29543W        W72534  25.102  18.305  28.141  0.1433 -0.2685  0.2649
29544W        W72535  28.891  11.730  26.171 -0.1530  0.1628  0.1457
29545W        W72536  27.150   1.485   6.410 -0.0752  0.0120 -0.0077
29546W        W72537  23.254   5.132   3.502 -0.1221 -0.0438 -0.1084
29547W        W72538   5.252  31.902  10.035  0.2904 -0.1686  0.1394
29548W        W72539  32.860  23.832   2.622  0.0628  0.0880 -0.2603
29549W        W72540  32.371   2.865  25.751  0.1066 -0.1537  0.2459
29550W        W72541  16.849   2.222   6.218 -0.2207  0.0376  0.0797
29551W        W72542  25.899  31.639  28.306  0.2714  0.0416  0.0950
29552W        W72543  19.388  31.748  23.181 -0.2951 -0.0536  0.2097
29553W        W72544  29.114   7.734  18.725 -0.3928 -0.0116 -0.0819
29554W        W72545   1.952  33.905   7.567 -0.2778  0.0681  0.1150
29555W        W72546  29.509   5.786   9.249  0.3908 -0.1322  0.1168
29556W        W72547  21.006  20.437  24.454  0.0701 -0.0674 -0.1209
29557W        W72548   2.512  22.562   7.347 -0.1552 -0.0180 -0.1467
29558W        W72549  31.031   2.987  27.618 -0.0488  0.1305 -0.3085
29559W        W72550  16.415  15.920  23.945  0.4926  0.0385  0.1946
29560W        W72551  28.537  16.600  22.973  0.0406  0.3200  0.0684
29561W        W72552   0.947   0.948  26.511 -0.0607  0.0216  0.1735
29562W        W72553   8.876   9.922   1.830 -0.0698 -0.1897  0.0641
29563W        W72554  27.917   1.642   2.096 -0.4171  0.0937 -0.1297
29564W        W72555   8.335   0.762  20.456  0.0780  0.1247  0.0401
29565W        W72556  20.473  24.657   4.116  0.3377 -0.1860  0.1097
29566W        W72557  19.957   6.114   8.507  0.0900  0.2995 -0.5502
29567W        W72558  30.488  28.415  21.587  0.2060  0.1752  0.0187
29568W        W72559  18.441  13.591   7.762 -0.0802 -0.0929  0.0267
29569W        W72560  23.780  31.033  21.788 -0.2372 -0.2014  0.4473
29570W        W72561  18.573  20.052   0.421 -0.0052  0.0349 -0.1073
29571W        W72562  22.631  23.475   3.052  0.2339  0.2804 -0.1082
29572W        W72563  21.321  22.367   3.396 -0.0870 -0.3646  0.1484
29573W        W72564  28.756  28.435   0.589  0.0748 -0.0034 -0.0711
29574W        W72565  11.145  33.122   5.174  0.0745 -0.1908  0.3173
29575W        W72566  17.721  30.021   9.400  0.3283 -0.0606 -0.1994
29576W        W72567  23.925  31.176   5.223 -0.3047  0.0888  0.1408
29577W        W72568   7.881  26.233  25.489 -0.1295  0.5697  0.0596
29578W        W72569  29.117  11.186   1.034  0.2399  0.1326  0.1114
29579W        W72570  32.624  27.691   9.417 -0.2049  0.0764 -0.1238
29580W        W72571  12.433  31.677  10.346  0.1004  0.1698  0.1458
29581W        W72572  18.623  33.764   1.338  0.5266 -0.2104 -0.1359
29582W        W72573  31.251   4.357  10.696  0.1369 -0.2614 -0.0858
29583W        W72574   5.503  28.865   3.177  0.1258 -0.2165 -0.2616
29584W        W72575  32.125  28.169   6.228  0.1307 -0.0872  0.1283
29585W        W72576   0.993  15.936   2.883 -0.0820 -0.1568 -0.1609
29586W        W72577  16.717   1.347  20.897  0.1015  0.1762 -0.0389
29587W        W72578  13.825  13.653   6.100 -0.3265 -0.1683  0.4648
29588W        W72579   8.965  19.522   7.149  0.0851 -0.0071 -0.0435
29589W        W72580   6.065   3.418   3.890  0.0119  0.3402  0.1277
29590W        W72581  26.723  21.863   2.862  0.1886  0.0805 -0.0942
29591W        W72582   9.429   3.213   6.240 -0.1722  0.2258 -0.1825
29592W        W72583  28.877   4.998  27.025 -0.3277 -0.4591  0.1052
29593W        W72584   3.664  29.876  26.759 -0.0312  0.0663  0.2824
29594W        W72585  16.082   4.916  17.599  0.0312 -0.4031  0.5605
29595W        W72586  25.635  12.358   7.135 -0.3981  0.2431  0.1719
29596W        W72587  28.617   1.746   6.350  0.1040 -0.0571  0.0637
29597W        W72588  32.034  15.183  18.581  0.1913 -0.0445  0.5218
29598W        W72589  26.449  13.121   9.679  0.1392  0.2321 -0.1010
29599W        W72590  30.125   3.571  18.959 -0.0023  0.1006  0.0265
29600W        W72591  31.705   9.944   0.842  0.0325 -0.1223  0.4253
29601W        W72592   8.041  13.950  11.765 -0.2026  0.1728  0.2367
29602W        W72593  25.628   5.659   5.048 -0.2849  0.0772  0.0769
29603W        W72594  16.398  11.819  27.286 -0.1727 -0.1608 -0.0397
29604W        W72595  12.008  27.421  25.157  0.1095  0.1209 -0.3232
29605W        W72596  17.726  30.287   5.490  0.1838 -0.2038 -0.1396
29606W        W72597  20.033  10.349  27.085 -0.2945 -0.0497 -0.0359
29607W        W72598  26.422   1.700  23.998 -0.0456  0.1156  0.1816
29608W        W72599  22.931  11.736   5.528 -0.0663 -0.1805  0.0436
29609W        W72600   2.608  26.285   9.010 -0.3957  0.3020  0.1583
29610W        W72601  24.080   1.688   1.907 -0.0329  0.0982 -0.0300
29611W        W72602  20.539  30.822   0.608 -0.0251 -0.1150  0.1677
29612W        W72603  17.503  33.048   3.964  0.0289 -0.0636 -0.0470
29613W        W72604   8.463   9.646   3.874  0.0346  0.0319  0.2521
29614W        W72605  28.293  24.011   9.527 -0.2605  0.2347  0.2759
29615W        W72606  34.136  14.925   7.149  0.1783  0.0073  0.0553
29616W        W72607  20.296  21.618  23.963 -0.0708  0.0201  0.0710
29617W        W72608  22.312  32.625   8.836 -0.3393 -0.3353  0.0357
29618W        W72609  17.799  11.237  28.234 -0.1684  0.1404 -0.0373
29619W        W72610  20.340  33.789  25.225  0.1693  0.0258  0.0701
29620W        W72611  14.610  29.180   8.418 -0.2842 -0.1389  0.0521
29621W        W72612  24.776  33.970   7.948 -0.3048 -0.2069  0.0506
29622W        W72613   2.905  33.606  21.231 -0.1769 -0.0499 -0.2427
29623W        W72614  16.182  31.966   3.026  0.0045  0.1318  0.1609
29624W        W72615   3.844   2.260   8.055 -0.0804 -0.0271 -0.4446
29625W        W72616   4.923  32.767  28.240  0.0649 -0.3451  0.0499
29626W        W72617  21.201  30.007   5.624  0.1252 -0.0671 -0.1864
29627W        W72618  29.673   4.366   3.409 -0.0701 -0.0681  0.1835
29628W        W72619  25.988   9.250   5.142  0.1659 -0.1257 -0.3644
29629W        W72620  30.111   0.311   5.925  0.1119 -0.3523 -0.1351
29630W        W72621  20.972   3.683   3.422 -0.0255  0.0328 -0.4117
29631W        W72622   5.176  19.382  27.767  0.4856  0.1005  0.0239
29632W        W72623  24.803  32.596   9.249 -0.0951  0.0541 -0.1190
29633W        W72624   2.279  22.571  28.139  0.0244 -0.1006 -0.2229
29634W        W72625  22.713  33.354   5.161  0.1228 -0.0244  0.1414
29635W        W72626  12.953  34.303  10.588 -0.2287  0.2703  0.0786
29636W        W72627  19.347   5.861   3.124  0.0269  0.0796 -0.1420
29637W        W72628  19.995  23.180   1.929 -0.2166 -0.4772  0.5213
29638W        W72629  23.859  27.511   8.537  0.0521 -0.1516  0.1154
29639W        W72630  22.335   0.323  23.540  0.0149  0.0656  0.1586
29640W        W72631  15.651  23.284   3.979 -0.0110 -0.0224  0.2521
29641W        W72632  28.340  14.896   4.990 -0.3435  0.0686  0.2475
29642W        W72633  14.795  21.148   4.201  0.1227  0.2814 -0.2085
29643W        W72634   1.355  28.173   0.920 -0.0078 -0.1042 -0.2923
29644W        W72635  24.520  10.558   3.209  0.0535 -0.1122  0.0297
29645W        W72636   5.246  12.001   6.468 -0.2295 -0.2080  0.1270
29646W        W72637  33.067  32.412   0.155  0.1763  0.2863  0.2892
29647W        W72638  32.251  29.099   1.187 -0.1426 -0.2811 -0.2912
29648W        W72639  28.528  32.850  27.712 -0.2587  0.1676  0.3000
29649W        W72640  21.123  32.541   1.447  0.1200 -0.2001  0.3444
29650W        W72641  16.322   2.228   4.019  0.1214 -0.1686 -0.0553
29651W        W72642  22.246  19.522  26.751 -0.0112 -0.0369 -0.1283
29652W        W72643  32.802  29.797   3.282 -0.1642 -0.1281  0.0848
29653W        W72644  27.522  31.905   6.065  0.0070  0.1871 -0.1553
29654W        W72645  21.175  24.977   2.044  0.1005 -0.0166 -0.1746
29655W        W72646  23.499  33.420  25.587 -0.0222 -0.1141 -0.1533
29656W        W72647  22.149  32.345  27.988  0.0243 -0.1359 -0.0811
29657W        W72648  26.509  31.804   7.586 -0.1863  0.1156  0.0774
29658W        W72649  17.819  11.929  18.368 -0.0072 -0.1134 -0.0306
29659W        W72650  26.568  28.698   3.210  0.0798 -0.0487  0.0487
29660W        W72651  24.295  11.289   3.759  0.0443 -0.1839  0.1215
29661W        W72652  19.253  25.432   6.247  0.1135  0.2793 -0.0094
29662W        W72653   0.112  30.896  27.995  0.0155  0.1440 -0.0322
29663W        W72654  23.533  32.589   7.571  0.2013  0.1494 -0.1410
29664W        W72655  23.267   0.175   6.192  0.0909 -0.0252 -0.0807
29665W        W72656  16.678  29.407  26.789 -0.2128 -0.0061 -0.1681
29666W        W72657   3.034   0.474   9.682  0.2306  0.0440  0.2402
29667W        W72658  29.900  23.790   8.935 -0.1010  0.0390 -0.1547
29668W        W72659  32.759  22.982   7.611 -0.0308 -0.0093  0.2844
29669W        W72660  20.578  13.006  25.973  0.0807 -0.0350 -0.2050
29670W        W72661  24.844  29.826   5.917  0.2543 -0.3085 -0.1178
29671W        W72662  19.779  26.437  26.468 -0.0449 -0.0310 -0.2138
29672W        W72663  23.384  26.572  14.052 -0.0304  0.1743  0.1115
29673W        W72664   8.729   9.943  26.049 -0.1623 -0.0112  0.0661
29674W        W72665  27.574  30.062   1.519 -0.3485 -0.0640  0.3651
29675W        W72666  22.637  15.441  15.040 -0.1553 -0.0597 -0.0348
29676W        W72667  22.882  29.997  29.128 -0.2327 -0.0077 -0.0877
29677W        W72668  19.211  31.317   3.864 -0.1276  0.2659 -0.1103
29678W        W72669  14.739   1.246   1.315 -0.2315  0.2341  0.1355
29679W        W72670   4.347  26.036   0.932 -0.0440 -0.0343  0.0144
29680W        W72671  28.195   6.018   3.859 -0.3077  0.2938 -0.0389
29681W        W72672  25.522  15.526   2.723  0.0675  0.2591 -0.2232
29682W        W72673  21.541  31.919   6.321 -0.2935 -0.1152  0.1452
29683W        W72674  27.702   6.887   3.918  0.1262  0.2699 -0.2485
29684W        W72675  30.761   3.984  23.618 -0.4434 -0.0253 -0.2402
29685W        W72676  23.141  33.523  19.647 -0.1262 -0.3633 -0.0900
29686W        W72677   0.447   7.591  16.611 -0.0942 -0.0839  0.0044
29687W        W72678  28.339   5.087  22.040 -0.1048  0.1173 -0.1896
29688W        W72679  27.614  32.132  28.545 -0.0021  0.0657 -0.0184
29689W        W72680  24.248  20.937  24.425 -0.2702  0.0531 -0.0326
29690W        W72681  27.531  18.059   6.072  0.2647  0.1369  0.0025
29691W        W72682  17.745  22.707   3.450 -0.0132 -0.1232  0.0600
29692W        W72683  15.087   4.307   2.722 -0.0133  0.1222  0.0773
29693W        W72684  17.444   0.563   3.103 -0.1019  0.2549  0.1420
29694W        W72685  16.890  21.178  24.845  0.1289  0.0253 -0.2420
29695W        W72686   1.008   3.669   0.264 -0.0150 -0.1199 -0.0410
29696W        W72687  27.431  28.165  26.409  0.2276 -0.1444 -0.0586
29697W        W72688  18.712   3.398   5.237 -0.2853 -0.0063  0.1093
29698W        W72689  24.683   0.013  28.450 -0.3640 -0.1015 -0.0652
29699W        W72690  18.524   7.144  28.494 -0.2928 -0.2053  0.1727
29700W        W72691  33.080  32.469   3.808  0.1931  0.2379 -0.1994
29701W        W72692   4.483   6.464   8.337  0.1173  0.0332  0.2573
29702W        W72693  32.560  26.677   9.533 -0.4396 -0.0270  0.2692
29703W        W72694  33.008  27.387   2.572  0.0657  0.3229  0.0660
29704W        W72695  22.550   9.237  24.505 -0.2349  0.0232  0.4541
29705W        W72696  29.118   7.457   5.834  0.1274 -0.0451  0.1285
29706W        W72697  24.611   4.090  14.536 -0.2542  0.0556  0.1854
29707W        W72698   4.289   7.798   6.297  0.1171  0.0105 -0.0872
29708W        W72699  27.364  29.325  20.799 -0.0602  0.0807 -0.1477
29709W        W72700   1.617  12.512  19.891  0.0170  0.0653 -0.3968
29710W        W72701  22.032  33.065  13.891 -0.2226  0.2524  0.2727
29711W        W72702  27.482  31.304  17.912  0.5209  0.0314 -0.1038
29712W        W72703  26.622  16.643   9.394 -0.3849  0.0665  0.0763
29713W        W72704  28.376   0.160   1.075  0.0824 -0.1376  0.0248
29714W        W72705  29.433  28.903  27.891 -0.2989 -0.1280  0.1614
29715W        W72706  13.008   8.997   7.089 -0.2143  0.3550  0.2223
29716W        W72707  29.724  34.076   4.075  0.0156  0.0820 -0.1087
29717W        W72708  23.921   9.862   2.917  0.0111 -0.0824  0.3537
29718W        W72709   0.264  22.819  24.127 -0.1917 -0.0796  0.0458
29719W        W72710  34.148  28.186   4.372  0.4302  0.2944 -0.0482
29720W        W72711  18.336  17.141  22.153 -0.2649  0.1513  0.2101
29721W        W72712  19.145   5.859   8.575  0.1726 -0.1968  0.0856
29722W        W72713   1.091  14.632   7.832  0.0271  0.0066  0.3641
29723W        W72714   8.862  26.345  25.097  0.0360 -0.0266 -0.3829
29724W        W72715  19.077   8.244  27.369 -0.4300  0.2742  0.0670
29725W        W72716   2.434   1.919   6.078  0.1247  0.1129 -0.2324
29726W        W72717  12.309  29.570   8.429 -0.1349  0.0687  0.2009
29727W        W72718  21.914  10.107   3.988  0.1561  0.0260  0.2043
29728W        W72719  13.631   5.746  10.546 -0.0819 -0.0067  0.0450
29729W        W72720  33.800   8.280  16.624  0.1581 -0.0763 -0.3142
29730W        W72721  26.081   4.282  20.082 -0.1493 -0.1042  0.1311
29731W        W72722  31.001  10.278   2.865 -0.5345  0.0828  0.1787
29732W        W72723   5.315  34.236   3.567 -0.1259 -0.1669  0.1283
29733W        W72724  33.443  26.029   1.107 -0.1464 -0.3360 -0.0976
29734W        W72725  22.336  27.819  23.523 -0.0317  0.1762  0.0265
29735W        W72726  34.420   1.622  10.050  0.1074 -0.0766  0.1807
29736W        W72727  31.272  19.045  16.481 -0.1611  0.3415  0.0036
29737W        W72728  12.771  22.667   1.258  0.3767  0.1377 -0.1109
29738W        W72729  20.274  29.374   4.574 -0.3829  0.1077 -0.0145
29739W        W72730  25.632  28.320   4.892  0.1664  0.0167  0.1755
29740W        W72731   1.978   2.161  23.504  0.1383  0.0088 -0.0588
29741W        W72732   0.001  32.933   3.902 -0.2529  0.0016 -0.2361
29742W        W72733  30.086   4.772   3.328 -0.1980 -0.0338 -0.1039
29743W        W72734   9.785   5.782  10.006 -0.1382 -0.0323 -0.0535
29744W        W72735  21.293  23.136   2.226  0.0431 -0.0382  0.0101
29745W        W72736  32.883  31.877   4.644  0.0041 -0.0837 -0.1180
29746W        W72737  26.322  30.923  28.865  0.0676  0.4237  0.0230
29747W        W72738  19.390  10.361  23.778  0.4380  0.5217 -0.1478
29748W        W72739  21.563  30.545  24.206 -0.1425  0.2424  0.0834
29749W        W72740  27.714   4.493   8.655  0.0019 -0.3474 -0.2636
29750W        W72741   1.132  17.132   0.466  0.0436  0.2266  0.3962
29751W        W72742   5.367  31.379  19.240 -0.1616  0.1517 -0.1786
29752W        W72743  24.863  29.750   9.078  0.0567  0.0346  0.1927
29753W        W72744  34.536  23.284   1.946  0.0041 -0.0536 -0.2135
29754W        W72745  27.900   2.775  23.721  0.3212 -0.3289 -0.0230
29755W        W72746  17.447  17.710   0.273  0.1049  0.4045 -0.0240
29756W        W72747  11.926  11.533   9.295 -0.2492  0.2592  0.3183
29757W        W72748   6.077  13.424   7.463  0.1626 -0.2011 -0.3157
29758W        W72749   8.662  30.631  25.174  0.3751  0.0225  0.4377
29759W        W72750  18.448   3.203   2.097  0.0256 -0.2175  0.0228
29760W        W72751   1.397   3.925   3.337 -0.1609 -0.3542 -0.4563
29761W        W72752  29.599  34.371  25.780  0.1053 -0.1082 -0.1285
29762W        W72753  22.176  19.524   8.895  0.0051 -0.2663  0.1137
29763W        W72754  20.515   2.133   5.566 -0.1899 -0.0502 -0.0202
29764W        W72755   1.910  16.355  25.737 -0.0287  0.3069 -0.1615
29765W        W72756  34.466  29.053   5.358  0.0422 -0.0235 -0.0112
29766W        W72757   4.774   4.654  20.986 -0.0855 -0.2996  0.1272
29767W        W72758  26.348  20.125  17.050 -0.2772  0.0886  0.1764
29768W        W72759  24.110  25.816   7.237  0.0520  0.1883  0.1455
29769W        W72760  23.376  24.362  24.765  0.0105  0.3370 -0.3744
29770W        W72761   4.246   2.961  27.057  0.1137  0.3918 -0.1593
29771W        W72762  17.700   4.169  26.977 -0.2375 -0.4832  0.0123
29772W        W72763   8.072  10.639   6.816  0.1542 -0.2915  0.0959
29773W        W72764   1.705   6.242   4.132 -0.1061 -0.0584 -0.2669
29774W        W72765  26.535  31.645  20.243 -0.0021  0.2222 -0.0333
29775W        W72766   4.548  22.299   0.041  0.1295  0.3332 -0.0849
29776W        W72767  22.920   1.651  13.939  0.2500  0.1629  0.0792
29777W        W72768  24.268  12.455  18.165 -0.0795 -0.0806  0.1273
29778W        W72769  34.416  11.621  19.663  0.2009 -0.0950  0.3444
29779W        W72770   0.717   4.578   3.174  0.0861  0.2490  0.2107
29780W        W72771  14.552  33.258   4.662  0.0613 -0.3305  0.0983
29781W        W72772  16.200   2.483  28.073 -0.3206 -0.2680 -0.1409
29782W        W72773  20.794   7.414   6.970 -0.0791  0.0830 -0.0636
29783W        W72774  27.690  34.441  14.227  0.0325 -0.1431 -0.2050
29784W        W72775  27.428   0.203  14.192  0.1487 -0.2137  0.1782
29785W        W72776  25.548  22.302   7.448  0.0076 -0.0307  0.0566
29786W        W72777  12.755  10.187  28.600  0.1073  0.0867 -0.0982
29787W        W72778  33.180   9.688  20.414  0.1694 -0.0923  0.0960
29788W        W72779  22.720  21.616   3.845 -0.0950 -0.1058 -0.2165
29789W        W72780  29.990   0.619   1.208 -0.0576 -0.1266  0.4075
29790W        W72781  25.760  25.447   9.411  0.1217 -0.1396 -0.1443
29791W        W72782  14.756  22.308  23.784  0.3427 -0.0739 -0.1302
29792W        W72783  23.249  15.575  22.779 -0.4422 -0.1063 -0.1395
29793W        W72784  25.326  22.012   9.211  0.1470 -0.0780  0.0332
29794W        W72785  32.147  10.439   8.620 -0.2089  0.0329  0.1904
29795W        W72786  33.063  13.737   8.982 -0.0837 -0.1715 -0.2823
29796W        W72787  21.466   4.612  19.821 -0.1766 -0.4731 -0.0494
29797W        W72788  24.743  11.569  23.267 -0.0892 -0.3270  0.1679
29798W        W72789  10.598  20.261  23.165 -0.1921  0.0885 -0.1594
29799W        W72790  28.824  28.103  22.915 -0.2822 -0.0877 -0.0616
29800W        W72791  27.947  13.245   5.295 -0.0282 -0.0273  0.0355
29801W        W72792  34.142  10.978  15.126  0.1242  0.0546 -0.1741
29802W        W72793   1.970  29.341  19.654 -0.1377 -0.1343  0.1935
29803W        W72794  11.548   3.475   7.920 -0.0464  0.1443  0.2315
29804W        W72795  18.614   8.886   1.756 -0.1696 -0.1879 -0.1477
29805W        W72796   2.109   5.111  15.209  0.0511 -0.0816  0.3406
29806W        W72797  19.129  23.942   7.640 -0.0133  0.2896 -0.2340
29807W        W72798  34.719  23.748   1.793 -0.0405  0.2812  0.1913
29808W        W72799  20.106  34.497  14.992  0.0947  0.2202  0.3392
29809W        W72800  24.705   6.623   4.540  0.0858  0.1858 -0.1591
29810W        W72801   0.348  16.076  12.162  0.3515  0.0305  0.0013
29811W        W72802   1.324   1.556  22.774 -0.0578 -0.0438  0.4543
29812W        W72803  11.844   9.640   3.155 -0.1009  0.0915  0.1724
29813W        W72804   3.881   4.427  10.193 -0.0515  0.2603 -0.0334
29814W        W72805  14.852   2.935  25.424  0.0210  0.1873  0.3396
29815W        W72806  30.581  11.296   6.696  0.0640  0.0141  0.2194
29816W        W72807  17.776  12.722   1.465  0.0871 -0.4088 -0.1200
29817W        W72808  30.092   1.593   1.463  0.1937  0.1399 -0.0971
29818W        W72809   4.877  15.924   2.773  0.3269  0.1676 -0.0982
29819W        W72810  30.276  20.037   9.384  0.2035 -0.1429 -0.0365
29820W        W72811   0.799  14.824  23.050  0.2329 -0.0424  0.0015
29821W        W72812   2.739   8.500   5.234 -0.1013 -0.0635 -0.1679
29822W        W72813  23.891   8.839  26.158  0.0105 -0.1119 -0.0439
29823W        W72814  24.921  16.161   2.236  0.3342  0.0264  0.2170
29824W        W72815  15.359  20.192  26.241 -0.0541  0.0773  0.4442
29825W        W72816  34.075  24.397  26.542 -0.1182  0.1330  0.0455
29826W        W72817  30.030   6.895  16.792  0.2108 -0.2085  0.1688
29827W        W72818  21.085  24.929   2.637  0.0413 -0.1272  0.2161
29828W        W72819  29.858  11.182  20.821  0.0186  0.0808 -0.3786
29829W        W72820  29.705  28.538   3.018  0.1388 -0.0917 -0.0063
29830W        W72821  24.263  21.056  19.842 -0.0279 -0.2795 -0.0600
29831W        W72822   6.025   2.527  21.510  0.1211  0.1674  0.1037
29832W        W72823  26.295   5.778  26.959  0.1086  0.0167 -0.0493
29833W        W72824  20.355   3.605  28.086 -0.0822 -0.1378  0.0069
29834W        W72825   4.405  14.545   8.986  0.1035 -0.1231 -0.0013
29835W        W72826  27.518  18.954  29.056 -0.3503  0.1315  0.0331
29836W        W72827  28.908  32.969  25.156 -0.2327 -0.0817 -0.2128
29837W        W72828  30.526  32.763  28.485  0.3513  0.1146  0.1880
29838W        W72829  13.762  18.960   3.086 -0.0966  0.2067 -0.4332
29839W        W72830  21.397   0.555   2.086 -0.5778 -0.0886  0.2977
29840W        W72831  27.378  34.490   5.029 -0.0386 -0.1491 -0.1284
29841W        W72832  33.187   6.650  16.717  0.0533  0.1492  0.1815
29842W        W72833   0.679  11.412   5.251  0.2065 -0.4937  0.0575
29843W        W72834  31.433  16.885  29.174  0.1383 -0.0846 -0.2059
29844W        W72835  19.575  34.068   1.807  0.0091  0.0698  0.1739
29845W        W72836  25.803   6.188   7.360 -0.0125  0.0224 -0.1013
29846W        W72837  34.206   4.832  18.094 -0.3297 -0.1756  0.1978
29847W        W72838   1.166  33.086   4.197  0.2682 -0.2321  0.3280
29848W        W72839  17.280  15.461   2.549  0.1920  0.0455  0.0305
29849W        W72840  20.917  16.945  23.791 -0.1918  0.0292  0.1951
29850W        W72841  13.204  25.715   8.272  0.1633 -0.3753  0.2214
29851W        W72842  26.705   4.562   0.578 -0.1287  0.2372  0.3939
29852W        W72843  26.233  21.247  28.807  0.0556  0.0647  0.0250
29853W        W72844   0.992   1.075  24.668  0.1327  0.0470  0.2555
29854W        W72845  28.308   3.516  22.367  0.3223 -0.0945 -0.1098
29855W        W72846  24.363   0.878   9.011  0.2519  0.0315  0.0047
29856W        W72847  24.659  29.938  25.796 -0.2945  0.0271  0.0414
29857W        W72848  23.237  29.994   6.215 -0.0745 -0.2090  0.1152
29858W        W72849  33.859  24.640   2.381 -0.1407 -0.0662 -0.0030
29859W        W72850  25.377  32.813  20.466  0.2892  0.0673 -0.0393
29860W        W72851  25.531  34.730  14.769 -0.1612  0.0312  0.3090
29861W        W72852  20.616  34.370   9.401 -0.1609  0.1967  0.1931
29862W        W72853  34.222  22.699  22.797  0.1083 -0.1451 -0.2376
29863W        W72854  13.604  10.418  27.367 -0.0639 -0.1892 -0.0454
29864W        W72855  20.786   4.605  25.923  0.2265 -0.2648  0.3635
29865W        W72856  31.211  26.311  23.659 -0.1804 -0.1793  0.0305
29866W        W72857  32.616  23.374   2.143 -0.1276  0.1082  0.0118
29867W        W72858  12.776  29.182  28.779 -0.0859 -0.2391 -0.2177
29868W        W72859  17.807  29.013  26.545  0.0989  0.1705  0.3598
29869W        W72860  18.315  29.612   7.157  0.0520  0.0496  0.0726
29870W        W72861  13.112  26.242  24.215  0.0003  0.2058 -0.0026
29871W        W72862  25.293   4.477  28.990  0.2303 -0.2362  0.2803
29872W        W72863  11.997   3.692   1.078  0.0659 -0.1935 -0.1460
29873W        W72864   6.492   9.333   7.828 -0.1026 -0.0804 -0.1004
29874W        W72865  21.523  29.884   7.956  0.0964 -0.3940  0.2344
29875W        W72866  30.234  30.431  22.699  0.1111  0.1525 -0.3454
29876W        W72867  20.676  15.445   7.658  0.1800 -0.0439 -0.0017
29877W        W72868  30.867   6.841  16.281 -0.2042  0.0267  0.0324
29878W        W72869  19.721  32.986   5.183 -0.1925  0.3092  0.2888
29879W        W72870   3.687  34.049   7.322  0.2150  0.0097 -0.0904
29880W        W72871  22.979  11.213   0.467  0.1620  0.1441 -0.2150
29881W        W72872  24.220   3.806   1.582 -0.0773  0.0523 -0.0071
29882W        W72873   3.624  22.069   0.791 -0.2493 -0.0059  0.1447
29883W        W72874  24.010  33.136  27.844 -0.0052  0.0610  0.0166
29884W        W72875  31.225   8.805   6.591 -0.1657  0.0719  0.1901
29885W        W72876  18.034  14.108   8.911  0.4378 -0.1182  0.0124
29886W        W72877   2.641  31.678   0.324 -0.1243 -0.4944  0.0944
29887W        W72878  19.524  26.931   8.107 -0.4327  0.1334  0.0321
29888W        W72879  18.129  14.632   1.620  0.0144  0.0500 -0.3131
29889W        W72880  17.383  30.214   6.427 -0.0074 -0.2994  0.0185
29890W        W72881  27.450  29.585   1.318  0.3310  0.1271  0.0224
29891W        W72882   3.138  14.895   5.699  0.2609  0.1684 -0.0260
29892W        W72883  30.935   1.295  26.174 -0.1892 -0.2003  0.2977
29893W        W72884  22.552   4.437   8.002  0.1876  0.1751  0.1595
29894W        W72885  33.175   1.643  20.851  0.0970 -0.1786  0.1244
29895W        W72886   6.383   4.234   1.411 -0.0671 -0.1113  0.0798
29896W        W72887  22.515  27.057  18.092  0.2320 -0.0643  0.1885
29897W        W72888  21.384  32.197   8.751  0.2396 -0.1493  0.0580
29898W        W72889  28.242   5.806   5.032 -0.0501  0.1182 -0.4207
29899W        W72890  22.326  16.682  28.198  0.0295 -0.0935 -0.3653
29900W        W72891  14.008  25.659  23.963 -0.0217 -0.3549  0.1873
29901W        W72892   1.516   2.139  26.764 -0.1145  0.1210 -0.1067
29902W        W72893  28.722  24.916   8.988  0.0923 -0.2384 -0.1170
29903W        W72894  28.038   9.661   5.871  0.1501  0.0619 -0.3328
29904W        W72895   9.443   2.355   2.608 -0.1144 -0.0281  0.1177
29905W        W72896  29.379  31.138  28.085 -0.1290  0.1575  0.0409
29906W        W72897  13.902   7.611   2.423  0.1985  0.1483 -0.0836
29907W        W72898  28.373   8.487   6.388 -0.1570 -0.0096 -0.3627
29908W        W72899  27.628   9.270  26.907  0.2281  0.1687  0.0864
29909W        W72900  11.033  32.430  23.727  0.0097  0.1111 -0.2543
29910W        W72901   1.584  25.983   8.445  0.1058  0.1982 -0.3699
29911W        W72902   0.849  10.997   1.254  0.3889 -0.0501  0.1103
29912W        W72903  16.980  14.640  28.800  0.2195  0.1136  0.0097
29913W        W72904  26.965  11.322   3.582 -0.0949  0.1794  0.1485
29914W        W72905  22.614   9.450  24.954  0.1709 -0.0663  0.3029
29915W        W72906  17.284   9.910   6.942  0.0150 -0.0993  0.0847
29916W        W72907   7.845  26.304   2.225  0.2603  0.1208 -0.1809
29917W        W72908   0.784  11.419   4.052 -0.0861 -0.0164  0.3627
29918W        W72909  21.813   7.821  26.401  0.2473 -0.0885  0.0149
29919W        W72910  29.775   9.159   6.596 -0.1865 -0.1129 -0.1183
29920W        W72911  11.949   8.594  16.543  0.1642  0.0989 -0.0816
29921W        W72912  28.009  32.378  24.736 -0.2337  0.2690  0.0342
29922W        W72913  22.194   3.158  14.052  0.1259  0.0501 -0.1151
29923W        W72914  33.899  14.555  20.385  0.0555 -0.0342  0.1230
29924W        W72915   0.970  31.970  20.737  0.0929  0.4670  0.0211
29925W        W72916  21.151  27.121   0.855 -0.2776  0.1408 -0.1143
29926W        W72917  24.130  33.283   7.937 -0.0611 -0.1222 -0.2035
29927W        W72918  23.615  33.060  27.503 -0.0516  0.1477  0.1001
29928W        W72919   6.726   0.031   6.990  0.0732 -0.0501  0.0924
29929W        W72920   8.208   1.893   3.420 -0.0983 -0.0868  0.1889
29930W        W72921  28.562   3.951  20.529  0.1296  0.0099 -0.0077
29931W        W72922  26.269  24.701  23.521 -0.0291 -0.2040 -0.0938
29932W        W72923   7.522  10.774   9.544 -0.1122  0.0744 -0.0822
29933W        W72924   8.254  11.344  10.750  0.0741 -0.2410 -0.2646
29934W        W72925  33.854   8.683  23.051  0.2641 -0.1934 -0.0274
29935W        W72926  21.125  21.086   4.360  0.0786 -0.4480 -0.3618
29936W        W72927  25.005  29.467  28.192  0.1353 -0.4660  0.2681
29937W        W72928  10.444  19.835  13.120  0.1372  0.1429  0.3147
29938W        W72929  22.980  26.183  28.465  0.2006  0.0524 -0.0166
29939W        W72930  12.199  33.541   8.843  0.2706  0.0199  0.0528
29940W        W72931  28.939   7.103  19.928 -0.2376 -0.0815 -0.0559
29941W        W72932  14.180  27.527   3.553 -0.0628 -0.0213 -0.0760
29942W        W72933   7.333  33.726   4.377 -0.1680  0.1379 -0.1708
29943W        W72934  14.720  32.492   2.862  0.4307 -0.4440 -0.0202
29944W        W72935  14.640  16.503  26.014 -0.1460  0.1343  0.0042
29945W        W72936  26.244   4.988  17.372  0.2843 -0.0340 -0.0198
29946W        W72937  13.909   8.582   9.272  0.2875  0.3000  0.2342
29947W        W72938  25.007   1.981   5.813  0.3714 -0.0281  0.1254
29948W        W72939  24.739   6.205  27.532  0.1812  0.2017  0.0311
29949W        W72940  22.852  22.485   2.708  0.0509 -0.0903 -0.0625
29950W        W72941  25.151  31.264   2.116 -0.0513 -0.3674  0.0846
29951W        W72942   2.001  15.609   4.375  0.0654 -0.0260  0.0300
29952W        W72943   1.899  29.719   3.459 -0.0699  0.0588  0.1370
29953W        W72944   5.921   0.404  25.389  0.0299 -0.1431  0.1793
29954W        W72945  21.207  28.636  22.691  0.1046  0.1073  0.3293
29955W        W72946   2.213  19.505   6.931 -0.4963 -0.0346  0.0630
29956W        W72947  29.509  26.634  14.459  0.0085  0.2557 -0.1043
29957W        W72948  32.934  18.387  22.576  0.0488  0.0507 -0.0830
29958W        W72949  19.500   4.868  24.165 -0.0460 -0.1455  0.2205
29959W        W72950  20.377  18.979  22.475 -0.2349  0.3128 -0.0836
29960W        W72951  19.197   5.655   5.527 -0.0388  0.2029  0.0051
29961W        W72952  14.404  23.873   2.428  0.2252 -0.0272  0.5162
29962W        W72953   8.306  23.498   4.901 -0.1740  0.1897  0.0999
29963W        W72954   7.763   8.206  24.101 -0.2885  0.0507  0.3383
29964W        W72955  31.855  32.968   8.001 -0.1442  0.4354  0.0933
29965W        W72956   9.726   9.138  28.311  0.0228  0.1108  0.2191
29966W        W72957  18.856  34.570   0.116  0.5447 -0.1459 -0.3578
29967W        W72958  27.089  34.640  24.536 -0.0063 -0.1342  0.0326
29968W        W72959  18.268   4.226  24.003  0.2706 -0.1905  0.1143
29969W        W72960   0.716  15.500  11.543  0.1377 -0.0617  0.0205
29970W        W72961  19.304  13.299   1.373  0.0651 -0.1395  0.1361
29971W        W72962  23.230   2.819  15.880 -0.3416  0.1304 -0.3344
29972W        W72963   5.107  14.780   4.543  0.1275 -0.0161  0.0428
29973W        W72964  20.287   9.556   6.809 -0.1438 -0.2209  0.0354
29974W        W72965  12.921  27.602   0.716 -0.2682 -0.4749  0.1303
29975W        W72966  34.748   6.802  20.230  0.2208  0.0570  0.1321
29976W        W72967  21.395  19.122   4.988  0.0234  0.0966 -0.2573
29977W        W72968   7.892  34.574  27.046 -0.2872  0.0718 -0.2357
29978W        W72969  21.381  32.617   1.983 -0.0902 -0.0265  0.4005
29979W        W72970  10.633   5.252  27.889  0.0307  0.1306  0.2843
29980W        W72971  11.585   8.429  22.493 -0.1035 -0.1417  0.0279
29981W        W72972  22.925   8.726   8.506  0.0742  0.1865  0.0271
29982W        W72973  22.824  21.049  23.067  0.0643 -0.2122  0.0869
29983W        W72974  29.259  14.461  24.100  0.0327  0.0126 -0.0977
29984W        W72975  33.397  12.455   7.097  0.1426 -0.0591 -0.0222
29985W        W72976  21.073  30.755  18.475  0.0056  0.3066 -0.0639
29986W        W72977  19.707   1.772   5.965  0.1798  0.0022 -0.1279
29987W        W72978   5.851   1.116  10.077 -0.1251  0.0346 -0.2951
29988W        W72979   7.101  31.162  27.959  0.1183  0.0170 -0.2637
29989W        W72980  16.746  28.513   5.148 -0.1967  0.1102  0.0417
29990W        W72981  32.483  21.465  22.108  0.1960 -0.3270  0.0857
29991W        W72982  23.538  30.944   4.977  0.1098 -0.3218  0.0493
29992W        W72983  25.358  13.439   6.813  0.1603  0.3121 -0.2042
29993W        W72984  33.331  24.409   2.573 -0.0733  0.1718  0.3542
29994W        W72985  25.980   7.700  23.663 -0.2102 -0.0761 -0.2750
29995W        W72986  34.132   9.936   4.394 -0.2036 -0.1420 -0.0957
29996W        W72987   5.498  25.724   1.165  0.3616  0.0153  0.0366
29997W        W72988  23.349   5.438  16.038  0.0148 -0.0954  0.1537
29998W        W72989  25.044   1.186   8.342  0.0849  0.2700 -0.0541
29999W        W72990  25.503  13.128   9.094 -0.1218  0.0181 -0.0810
30000W        W72991  18.597  30.597   7.389  0.0316  0.2416 -0.0221
30001W        W72992  32.686  32.701  29.158  0.0740  0.2116  0.1882
30002W        W72993  28.191  31.141  22.702 -0.1496  0.3290  0.0141
30003W        W72994  25.232   6.303   7.424 -0.0702 -0.1913  0.1638
30004W        W72995   3.227  31.511  23.529 -0.0308  0.1588  0.2234
30005W        W72996  20.330  33.415   7.655 -0.2167 -0.0101 -0.2596
30006W        W72997  31.118  11.766  26.819  0.1253  0.0642  0.0596
30007W        W72998  20.542  24.062  22.637  0.2885  0.0951  0.0226
30008W        W72999  18.094  10.771   6.733 -0.3746 -0.0333  0.1690
30009W        W73000  21.322  23.033  22.803  0.0814  0.6519  0.4963
30010W        W73001  32.447  27.191   3.265  0.0565 -0.0233 -0.0442
30011W        W73002  33.075   3.149  15.498 -0.0153 -0.1828 -0.1248
30012W        W73003  30.266  26.336  29.235 -0.0182  0.1103  0.1606
30013W        W73004  31.656  29.144  22.832 -0.2776  0.0686  0.1980
30014W        W73005  27.785   6.415  25.083 -0.0203  0.0148  0.1539
30015W        W73006  31.540  11.576   1.533 -0.2141 -0.1481  0.1633
30016W        W73007  17.976   5.544  17.154 -0.0594 -0.1311 -0.1726
30017W        W73008  17.986  30.383  20.436 -0.0709  0.2614 -0.1359
30018W        W73009  13.366   1.337  18.283  0.0582 -0.0829  0.2722
30019W        W73010  22.870   6.169   1.381 -0.4308 -0.1027 -0.2455
30020W        W73011  29.236   3.218  20.618 -0.0515  0.1069  0.0316
30021W        W73012  24.351  14.665   9.041  0.3097 -0.3461  0.1854
30022W        W73013  16.158  29.262   9.519  0.0558 -0.0823  0.3277
30023W        W73014  16.524  10.084  26.994  0.3440  0.0863  0.0094
30024W        W73015   3.279  34.083  23.170  0.1847  0.0014  0.0127
30025W        W73016  30.707  23.065   3.394  0.0889 -0.0522 -0.2128
30026W        W73017   7.214  33.304  24.839  0.2136 -0.3575 -0.2195
30027W        W73018  22.842  28.217  18.821  0.0694 -0.0055  0.1480
30028W        W73019  20.771  32.525  22.846 -0.0945  0.1208  0.0018
30029W        W73020   5.210   3.725  25.002 -0.3451  0.1546 -0.4210
30030W        W73021  26.206  13.769   6.680 -0.2808  0.0002 -0.0617
30031W        W73022  16.131  20.290   1.568 -0.1479 -0.0658  0.1659
30032W        W73023  30.706  26.038  21.367  0.0753 -0.0670 -0.2526
30033W        W73024  29.716   9.474  15.203 -0.0688  0.0475 -0.2115
30034W        W73025  19.457   0.259   3.386 -0.1940  0.3636 -0.1954
30035W        W73026  12.996   4.711   8.196 -0.0362 -0.2154 -0.0057
30036W        W73027  12.567  31.160   9.784 -0.1499  0.1059 -0.2197
30037W        W73028   0.109  17.723  24.097  0.0219 -0.1621 -0.3175
30038W        W73029  21.517  33.473   0.820  0.2143  0.0422  0.3496
30039W        W73030  20.977   4.523   3.077 -0.0141  0.2966 -0.1449
30040W        W73031  16.441  25.145  23.946 -0.0028 -0.2200 -0.3137
30041W        W73032  21.299  25.956  18.913 -0.1740  0.1298  0.2268
30042W        W73033  20.454  11.889   1.546 -0.0504 -0.3349  0.0910
30043W        W73034  25.420  31.709   1.290  0.0394  0.2169  0.2607
30044W        W73035  14.082   7.510  21.923 -0.3073 -0.3029  0.0511
30045W        W73036   0.070   3.988  26.052  0.2696 -0.2203 -0.1561
30046W        W73037  28.212   1.930   1.009  0.3666 -0.0635 -0.1817
30047W        W73038  19.568  10.453   7.577 -0.3224 -0.1285 -0.0441
30048W        W73039  19.520  33.604   9.166  0.0495  0.3327  0.0902
30049W        W73040  29.465   3.938   5.176  0.1840 -0.1208 -0.2393
30050W        W73041  19.836  17.947   2.959  0.0146  0.1037 -0.1777
30051W        W73042   0.949  30.924  21.096 -0.1043 -0.1763 -0.0541
30052W        W73043  25.082  22.475   7.442  0.1735  0.1378 -0.1472
30053W        W73044  26.391   1.339   3.589  0.1483  0.1350  0.0053
30054W        W73045  26.635   1.636  25.923 -0.1370 -0.3002  0.0210
30055W        W73046   4.014  13.171  24.798 -0.1090 -0.2650  0.0066
30056W        W73047  29.437   3.120  27.904  0.2699 -0.1775 -0.0245
30057W        W73048  26.907   7.144  16.287  0.0570  0.1250 -0.1567
30058W        W73049   0.596   2.835   8.803 -0.2036  0.0133 -0.1232
30059W        W73050  32.586   0.139   3.376  0.2116  0.1110  0.0373
30060W        W73051  22.391   0.454   8.486 -0.0491  0.1238  0.1387
30061W        W73052   9.677  10.050   6.771 -0.2529  0.2042 -0.1804
30062W        W73053  27.128  27.928  28.097  0.1058  0.2293 -0.2749
30063W        W73054  25.262   7.009   9.263  0.0940  0.0165 -0.0894
30064W        W73055  21.258  23.651  21.872  0.1454  0.1082 -0.1910
30065W        W73056  15.858  16.099   0.227 -0.0177 -0.1779  0.0110
30066W        W73057  28.764   6.751  28.010 -0.1193  0.1247  0.1567
30067W        W73058  28.668   4.776   6.507  0.2345 -0.1050 -0.0549
30068W        W73059  26.289  13.668   1.571  0.0745 -0.1988  0.2247
30069W        W73060   1.261  20.406   3.689 -0.0962  0.2116  0.0085
30070W        W73061  27.100   7.713   3.019  0.0602  0.2122 -0.2356
30071W        W73062  19.342   3.403   3.982 -0.1035 -0.2719  0.4524
30072W        W73063  31.849   3.769   5.895  0.1873 -0.1010  0.0290
30073W        W73064  12.181  32.704   6.441  0.0329 -0.3396  0.1195
30074W        W73065  12.639   8.224   0.660  0.0906  0.0773 -0.1048
30075W        W73066  22.956   3.926   5.132 -0.2268 -0.0304  0.1360
30076W        W73067  25.841  30.112  16.330 -0.1021  0.0927 -0.0247
30077W        W73068   2.466  16.445   6.527 -0.1267 -0.0292 -0.3006
30078W        W73069  25.839  13.996   2.382  0.1793  0.0585  0.2683
30079W        W73070  34.583  27.192  17.307 -0.1189  0.0158  0.0079
30080W        W73071  23.608  10.162  22.940  0.4605 -0.0392  0.0999
30081W        W73072   6.583  20.082   5.684  0.0383  0.4860  0.0442
30082W        W73073  33.786   8.895  28.350  0.0666  0.1054  0.1393
30083W        W73074  31.032  22.854   5.742  0.1964 -0.0915 -0.3710
30084W        W73075   0.087  12.476   6.128  0.1920 -0.1364  0.0934
30085W        W73076  23.042  21.251   4.872  0.1749  0.1568  0.2040
30086W        W73077   1.415  29.913   3.773 -0.2505 -0.0352 -0.0457
30087W        W73078  23.912  29.509   7.343  0.0142  0.3033  0.4643
30088W        W73079  26.997  23.073   0.939 -0.0176  0.0916 -0.0496
30089W        W73080  13.041  28.985   8.756  0.0851 -0.2207 -0.2715
30090W        W73081  30.561   6.540   8.312  0.2569 -0.0384  0.3622
30091W        W73082  16.583  32.526  24.991  0.1792  0.1563  0.1610
30092W        W73083  16.670  32.604  10.044 -0.0757  0.1906 -0.2647
30093W        W73084  19.752   2.431   0.244  0.4656  0.1410  0.0098
30094W        W73085   1.264   0.380  24.799 -0.0167 -0.1275 -0.1283
30095W        W73086  15.610   6.615   9.062 -0.2504 -0.1748  0.0726
30096W        W73087  28.280   8.984   6.451  0.0682  0.4564  0.0680
30097W        W73088  25.261  12.665   2.767  0.0193  0.1811 -0.0747
30098W        W73089  25.861   1.326   2.555 -0.0513  0.1437  0.4104
30099W        W73090  26.414   4.703   9.177 -0.0870  0.1770  0.2120
30100W        W73091  26.047   7.722  29.225 -0.3345  0.3722 -0.2360
30101W        W73092  33.727   0.005   2.937 -0.3275 -0.0884  0.0131
30102W        W73093  27.714  13.616  27.043  0.2088  0.4115 -0.0406
30103W        W73094  22.878  21.399  25.629  0.1061 -0.2959 -0.5792
30104W        W73095  20.379  16.454  22.905 -0.0434 -0.0499 -0.0241
30105W        W73096  28.079   3.047  17.039  0.0457 -0.1584 -0.2624
30106W        W73097  18.292  15.827  24.848  0.1102 -0.1253 -0.1051
30107W        W73098   2.148   4.576   0.379 -0.0023  0.1868  0.1259
30108W        W73099  24.092  29.366  26.125 -0.0247  0.1205  0.5773
30109W        W73100   3.306  33.851   7.833 -0.1126 -0.1823 -0.2032
30110W        W73101   0.822   1.307   5.986  0.1830 -0.0087  0.2049
30111W        W73102  25.797  29.829  27.532  0.2174  0.2761 -0.1518
30112W        W73103  34.050  10.215   3.614 -0.1073 -0.0501 -0.1973
30113W        W73104  30.163  26.229   1.429 -0.4340  0.2319  0.2590
30114W        W73105  16.551   2.766   4.869  0.2851 -0.3381  0.2257
30115W        W73106  27.009  15.048   0.006  0.1559  0.1698 -0.0356
30116W        W73107  15.241  33.553   8.944  0.1516 -0.0272 -0.2076
30117W        W73108   1.037  13.157   9.814 -0.0268  0.1750  0.1491
30118W        W73109  24.481  10.359   8.890  0.0031  0.0626 -0.2277
30119W        W73110  30.078   9.368  20.342  0.0614 -0.2128  0.1151
30120W        W73111  14.680   8.049   5.470 -0.0978  0.3724  0.1364
30121W        W73112  27.531  25.339  26.019 -0.1851  0.4291 -0.0404
30122W        W73113  28.559   5.262   5.664 -0.1077  0.0905  0.0806
30123W        W73114  28.856   8.924   3.631 -0.0370  0.4649  0.2267
30124W        W73115  26.052   6.561   7.709 -0.2707 -0.0111  0.0250
30125W        W73116  13.446  25.740   7.043  0.0625 -0.0025 -0.0435
30126W        W73117  29.858   6.060   9.502  0.0185 -0.1032  0.0042
30127W        W73118  21.539  14.837   1.702  0.0796 -0.0246 -0.0973
30128W        W73119  32.699   0.678  21.818  0.1009 -0.0673 -0.0776
30129W        W73120  31.013   5.498  29.019  0.1726  0.2199 -0.0121
30130W        W73121  32.542  10.422   7.713 -0.1947 -0.2150 -0.1312
30131W        W73122  16.535  20.085   6.969 -0.0926  0.3586  0.0828
30132W        W73123  24.642  30.345   8.791  0.0391 -0.1182 -0.0865
30133W        W73124  21.244   9.254  24.840  0.1356  0.3022  0.4085
30134W        W73125  30.520  28.893   3.053  0.0588  0.1573  0.0108
30135W        W73126  22.976  34.188   8.454 -0.3778  0.1197 -0.0668
30136W        W73127  22.923   3.606   6.413  0.1501 -0.0013  0.2509
30137W        W73128   3.843  31.555  23.191 -0.1939  0.0362  0.1054
30138W        W73129  32.225  20.903   3.010  0.0662  0.0395 -0.2077
30139W        W73130  26.017   4.685  19.689  0.0647 -0.3540  0.2388
30140W        W73131  34.307  34.657   5.283  0.1949 -0.0888  0.0218
30141W        W73132  27.750  32.518  27.457  0.0519  0.0955  0.3216
30142W        W73133  26.638   3.114  25.971 -0.1930  0.1060  0.0529
30143W        W73134  21.412  19.612  24.152 -0.0265 -0.2744  0.1269
30144W        W73135  29.498  17.075   5.002 -0.0077  0.0144  0.4244
30145W        W73136  28.640  26.907   4.501  0.2198 -0.2609  0.0884
30146W        W73137  32.268  21.588  21.677 -0.1131  0.2315 -0.0478
30147W        W73138  15.317  22.737   3.756 -0.1309 -0.0820 -0.0695
30148W        W73139   3.537   7.199   0.256  0.1221 -0.4365  0.1787
30149W        W73140  23.104   8.469   6.377 -0.2996 -0.2643 -0.2710
30150W        W73141  23.223  18.148   4.942 -0.1451 -0.1709 -0.0705
30151W        W73142  29.048  18.267  28.207 -0.0172  0.2907 -0.0104
30152W        W73143  30.790   5.340   4.542 -0.1125  0.2496  0.2648
30153W        W73144  25.321  12.635  28.103  0.0406  0.2778  0.0477
30154W        W73145  25.431   1.521   2.377 -0.0091 -0.0290 -0.1379
30155W        W73146   1.628   2.206   4.374 -0.0450 -0.0669 -0.0260
30156W        W73147  26.679  23.133   7.377  0.0688  0.3672  0.2990
30157W        W73148   1.555  15.651   4.675 -0.0830  0.2145  0.1935
30158W        W73149  33.270  25.303  17.739 -0.1193  0.0196 -0.2905
30159W        W73150  19.603  29.189  26.669 -0.0451 -0.0519 -0.0031
30160W        W73151  25.370  12.549   1.145 -0.2214  0.1582 -0.1555
30161W        W73152  28.272   3.254   0.920  0.1104 -0.3369  0.1062
30162W        W73153  26.238  13.890   4.074 -0.3443  0.0323 -0.5082
30163W        W73154  25.845  14.260   3.862 -0.0303  0.0475 -0.0428
30164W        W73155  26.257  29.878   2.024  0.0260  0.2787  0.2439
30165W        W73156  26.370   1.614   8.582 -0.2145 -0.0687 -0.2026
30166W        W73157  18.369  29.592   2.988  0.0194  0.2369  0.4988
30167W        W73158  29.421  30.975  27.563  0.1843  0.0182 -0.2538
30168W        W73159  21.745  18.883   6.081  0.0745  0.3758 -0.1229
30169W        W73160  14.658  33.211   0.884 -0.1890  0.0376  0.0232
30170W        W73161  23.087   7.488  28.760  0.1850  0.1620 -0.2610
30171W        W73162  22.543  31.969   4.227  0.0492 -0.1128  0.0885
30172W        W73163   2.305  34.249   7.048 -0.0157  0.2183  0.1027
30173W        W73164  19.023   0.303  17.228 -0.1925 -0.1596 -0.2048
30174W        W73165  34.158  31.008   4.356 -0.1291 -0.0784 -0.1493
30175W        W73166  28.968   7.997   4.216  0.1937 -0.1786 -0.3106
30176W        W73167  30.494   4.848  25.448 -0.0075  0.2451  0.2731
30177W        W73168  28.760   3.681   4.328  0.2933 -0.1462 -0.0586
30178W        W73169   9.817  19.163   9.972 -0.1203 -0.2774 -0.1577
30179W        W73170  21.347  32.609   1.011  0.1303  0.0439  0.0495
30180W        W73171  23.791   3.918   3.695 -0.1122 -0.2107 -0.0670
30181W        W73172  25.187   7.879  28.278 -0.2980 -0.1638 -0.1738
30182W        W73173   4.641  13.047  23.019  0.4701 -0.1878  0.2995
30183W        W73174  26.001   8.964   9.991  0.0663  0.0471 -0.0216
30184W        W73175  22.595   2.486   2.528  0.1244 -0.0333 -0.0374
30185W        W73176  33.579   8.650   9.514  0.2219 -0.0968 -0.0639
30186W        W73177  29.649  33.487  20.117 -0.1985  0.0162 -0.0666
30187W        W73178  21.252  27.835  27.908  0.0092  0.2066 -0.0398
30188W        W73179  16.366  34.420  10.452  0.2299  0.3071 -0.1712
30189W        W73180  24.741  33.042  22.439  0.0570  0.0113 -0.1872
30190W        W73181  33.333  11.947   6.550 -0.0019  0.7288  0.1430
30191W        W73182  22.527  15.995  16.738 -0.0296 -0.1482  0.1821
30192W        W73183  25.462  34.350   4.749  0.2048  0.0135  0.2853
30193W        W73184  20.453  27.035   2.479  0.2508 -0.3552  0.1307
30194W        W73185   4.664   2.243   6.433  0.2587 -0.2161 -0.0940
30195W        W73186  18.958  29.401   1.082 -0.3334 -0.0484  0.0134
30196W        W73187  17.517  34.621   8.085 -0.0158 -0.0966 -0.0041
30197W        W73188  30.683  30.156  21.527  0.0487  0.1261 -0.2213
30198W        W73189  21.177   3.141  26.953  0.0327 -0.2884  0.1571
30199W        W73190  19.971  25.904   1.694 -0.1085  0.4144 -0.0592
30200W        W73191  29.407   8.168   4.079  0.0845  0.0322  0.2243
30201W        W73192  27.797   5.641   2.112  0.1181 -0.1119 -0.0032
30202W        W73193  19.697   9.642   7.438  0.0737  0.1196  0.0757
30203W        W73194  22.254  32.375   8.080 -0.2593  0.0802  0.3069
30204W        W73195  22.398   6.397   9.039 -0.1966  0.3335  0.1049
30205W        W73196   0.861  25.864  15.605 -0.3422 -0.0147 -0.0935
30206W        W73197  15.099  27.544  27.948  0.0512  0.0371 -0.0167
30207W        W73198  20.663   0.897  25.706  0.0145  0.1265  0.2125
30208W        W73199  26.997   6.384  16.470 -0.1192 -0.0300 -0.2264
30209W        W73200   7.930   6.899  26.931 -0.2737 -0.2028  0.2883
30210W        W73201  19.410   1.973   8.347 -0.3555  0.3712  0.3289
30211W        W73202  22.231   0.875   1.962  0.6311 -0.3521  0.3170
30212W        W73203   1.593  21.697   6.879 -0.4215 -0.4236 -0.0350
30213W        W73204  25.080   0.691   6.255  0.1848 -0.0557  0.0788
30214W        W73205  17.718  29.415   7.088 -0.2265 -0.0169  0.3337
30215W        W73206  13.162  28.594   7.337 -0.0166 -0.0533  0.2010
30216W        W73207  30.631  27.249   4.256  0.1220  0.0942  0.0564
30217W        W73208  16.335  20.049   3.143  0.0019  0.0145  0.1048
30218W        W73209  18.759   9.274   9.555  0.2664 -0.2011  0.3942
30219W        W73210  16.497   1.845   2.707  0.1252 -0.2325 -0.0834
30220W        W73211  19.514  34.684   5.877  0.0916  0.0155  0.1404
30221W        W73212   8.883  18.592   4.607 -0.2515 -0.3663 -0.1141
30222W        W73213  30.745   6.232   8.980 -0.1055  0.3380  0.1990
30223W        W73214  28.640  33.465   6.579 -0.1735 -0.0837 -0.0715
30224W        W73215   4.339  18.537  23.641 -0.0064 -0.1181  0.1685
30225W        W73216  12.706  27.423   4.346  0.2029 -0.0686 -0.0635
30226W        W73217  23.463   7.469  25.108  0.1781 -0.2676 -0.0897
30227W        W73218  32.824   7.992  28.816  0.0282  0.0366  0.0044
30228W        W73219  27.001   9.659  18.011  0.0676 -0.0405 -0.1134
30229W        W73220  24.104   5.142   8.252  0.1094  0.0086  0.2342
30230W        W73221   2.041  18.166  24.164 -0.1254 -0.1929  0.0643
30231W        W73222  24.807  23.231  24.949  0.3435 -0.0691  0.1750
30232W        W73223  29.821   0.325   4.185  0.2314 -0.3282 -0.2444
30233W        W73224  19.408  17.191   3.689 -0.3043  0.0538  0.0785
30234W        W73225   5.610   6.883  21.769 -0.0280  0.1566 -0.0531
30235W        W73226  27.822   4.354  20.629 -0.2661 -0.1947 -0.0617
30236W        W73227  21.971  27.322   6.146 -0.0543 -0.0827 -0.1607
30237W        W73228   8.826   6.259   8.866  0.0216  0.1905  0.3088
30238W        W73229  22.157  13.964   5.394 -0.0674 -0.1782  0.1654
30239W        W73230  12.688  14.684  27.262  0.1318  0.1366 -0.1579
30240W        W73231  19.643  27.998   6.678  0.1553  0.1302 -0.1952
30241W        W73232  26.509   2.077   8.536  0.2009  0.2033  0.0651
30242W        W73233  32.060  20.986   8.290  0.0399  0.3890 -0.0942
30243W        W73234  24.394  30.285   3.619  0.3353  0.1993  0.2122
30244W        W73235  14.355  33.777   8.894  0.3597  0.0543  0.2163
30245W        W73236  31.402  11.545  15.567 -0.1208 -0.2536  0.1131
30246W        W73237  22.309  33.355  27.718  0.0294 -0.0949  0.1084
30247W        W73238   5.801   2.945  26.171  0.3521 -0.0894  0.1639
30248W        W73239  23.175  14.194   7.564 -0.0351 -0.1082  0.2061
30249W        W73240  21.099  31.423  25.230  0.0557  0.4535  0.2480
30250W        W73241  15.227   6.465   8.447  0.1826  0.2759  0.0210
30251W        W73242  30.496   0.027   0.012  0.0678 -0.0098 -0.1379
30252W        W73243  14.104   8.546  11.568 -0.3988  0.2273 -0.1781
30253W        W73244   8.397  16.351   1.652  0.3547 -0.0599  0.1137
30254W        W73245   3.502  15.323  12.371  0.0962  0.1568  0.3312
30255W        W73246   5.290  24.303   2.598  0.2990  0.1527 -0.0868
30256W        W73247  14.817  12.916   3.873  0.0532 -0.0650 -0.1811
30257W        W73248  30.065   9.460   6.300 -0.3700  0.3688 -0.4255
30258W        W73249  29.950  33.463   8.684  0.2975 -0.4822  0.1086
30259W        W73250  20.208  12.620   8.416 -0.1260  0.0484  0.1771
30260W        W73251  14.423   4.615  19.012  0.2797  0.5291  0.0879
30261W        W73252  24.086   6.308   6.503  0.4042  0.1880 -0.0184
30262W        W73253  16.812  29.043   3.563 -0.4191 -0.1578 -0.0348
30263W        W73254  34.560   1.340   0.148 -0.3492 -0.2199 -0.0875
30264W        W73255  22.160   0.212   0.369  0.5758  0.0231  0.1952
30265W        W73256  20.481   5.707   1.676 -0.0282  0.2952 -0.0102
30266W        W73257   0.027   3.359   6.191  0.0262 -0.0514  0.0081
30267W        W73258  33.198  25.150  26.740  0.0499 -0.1048 -0.0631
30268W        W73259  19.000  12.643   8.430  0.1944  0.0797  0.0941
30269W        W73260   3.074   1.827  10.357  0.1682 -0.1086  0.0936
30270W        W73261  22.964  32.125   6.693  0.1504  0.1485  0.2542
30271W        W73262  30.606  14.795   0.225 -0.2289  0.0056  0.1462
30272W        W73263  17.918  32.783   5.854  0.3121 -0.0923 -0.2876
30273W        W73264  13.571  18.025  16.820  0.0592 -0.0477 -0.0641
30274W        W73265  30.687  15.683   5.631 -0.0957 -0.1393  0.0518
30275W        W73266  22.634   2.807   0.810 -0.2259 -0.3433  0.1140
30276W        W73267  26.118  32.767   8.817 -0.1176 -0.1374 -0.3757
30277W        W73268   1.932   1.686  28.255 -0.1169 -0.1946 -0.4258
30278W        W73269   0.597  28.567  28.366 -0.0518 -0.0525 -0.0907
30279W        W73270  24.649  26.084   2.995 -0.1780 -0.1426  0.0253
30280W        W73271  25.085  16.283  26.135  0.2660 -0.1440 -0.0616
30281W        W73272  21.224  10.598  28.680 -0.0819 -0.1119 -0.3471
30282W        W73273  30.520   9.291   3.126  0.0901  0.1430 -0.1880
30283W        W73274  28.425   4.718   4.482  0.0528  0.1510 -0.0410
30284W        W73275   3.094   1.337  28.144  0.0015 -0.3870  0.0533
30285W        W73276  30.026  22.189   7.877 -0.0913 -0.4054  0.3267
30286W        W73277   0.728  19.058   6.317  0.4272 -0.3354 -0.2445
30287W        W73278  22.916  26.394   3.973 -0.3435  0.1856 -0.0476
30288W        W73279  30.874  30.821   7.723 -0.0569  0.1675 -0.1739
30289W        W73280   7.443   8.910  23.666 -0.0344 -0.2747 -0.0387
30290W        W73281  23.038   3.860   8.551 -0.3082 -0.0633  0.1665
30291W        W73282  19.867  22.642  26.754 -0.1246  0.0382 -0.2149
30292W        W73283  31.798  29.994   8.544 -0.3857 -0.1210 -0.0087
30293W        W73284  11.748   8.288   1.997 -0.0137  0.1090  0.0527
30294W        W73285  30.496  24.663   8.450 -0.0583 -0.1534  0.0889
30295W        W73286  34.060   4.957   5.423 -0.1287 -0.0077  0.2241
30296W        W73287  24.532  26.649  27.327  0.0760 -0.2057  0.0846
30297W        W73288  34.304   8.098   4.769 -0.3615  0.0110  0.2194
30298W        W73289  26.298  32.846   2.533 -0.2327  0.1364 -0.0612
30299W        W73290  30.120  31.799   8.931 -0.0404  0.1536 -0.0803
30300W        W73291  22.241  25.904  18.201 -0.3013  0.2597  0.0476
30301W        W73292  29.874  11.378  25.094  0.0317 -0.0856  0.0044
30302W        W73293  33.096   0.031   7.619 -0.0054 -0.2340 -0.2477
30303W        W73294  30.473  20.317   7.521 -0.0349  0.1543 -0.0775
30304W        W73295  24.405   8.903  28.092 -0.0108 -0.1730 -0.3270
30305W        W73296  16.897   2.895  22.545  0.2829  0.1246 -0.4118
30306W        W73297   8.678   1.289  20.323 -0.5301  0.0385  0.0022
30307W        W73298  27.446  24.459  24.833  0.1354  0.2249  0.1671
30308W        W73299  33.443  15.048   3.616  0.2216 -0.1535  0.0397
30309W        W73300  32.019   4.113   9.978 -0.0703  0.4374  0.0490
30310W        W73301  31.626   2.686   0.244  0.0750  0.0590 -0.2032
30311W        W73302  30.599  17.752   3.085 -0.0092  0.0860  0.0315
30312W        W73303  19.477  32.387   7.993  0.0258 -0.2014 -0.2502
30313W        W73304  18.099  17.517   9.456  0.1283 -0.1664  0.0478
30314W        W73305  15.179  19.298  26.171 -0.1435  0.2808  0.0634
30315W        W73306  24.218   0.260   6.947  0.0209  0.2012 -0.2283
30316W        W73307  12.410  14.394  26.957 -0.1452 -0.0492 -0.3684
30317W        W73308  23.110   7.243   1.575  0.0278  0.2947 -0.0612
30318W        W73309  29.668  34.414   6.237 -0.1739  0.0096 -0.4067
30319W        W73310  30.803   1.419   8.979  0.3324  0.0429 -0.2312
30320W        W73311  31.208  34.354  24.005 -0.0463 -0.1155 -0.1674
30321W        W73312   3.203  32.980   1.387 -0.0228  0.0519 -0.1192
30322W        W73313   6.146  29.331   5.504 -0.0439 -0.2112 -0.2886
30323W        W73314   5.241  16.371   8.534 -0.0812 -0.0224  0.0650
30324W        W73315  12.955  11.227   0.147  0.2188 -0.1429 -0.1319
30325W        W73316   3.666  33.471   4.553 -0.6267 -0.0321 -0.1301
30326W        W73317  12.951   1.243  26.941  0.1656 -0.0150 -0.0951
30327W        W73318  22.900  25.123   4.090  0.1616  0.2502  0.1501
30328W        W73319  26.732   3.465   4.662 -0.0321 -0.0490 -0.2147
30329W        W73320  33.712  26.727   2.278 -0.1772 -0.1648 -0.3192
30330W        W73321  18.431   1.492   8.741  0.1004 -0.0699 -0.0788
30331W        W73322  13.187   0.974  20.241  0.0808  0.2697  0.2844
30332W        W73323  26.282  32.350  28.171 -0.0243 -0.1980 -0.1608
30333W        W73324  10.350  20.616  25.235 -0.1248 -0.4965 -0.1625
30334W        W73325  25.173  16.931   1.663  0.0376  0.2652 -0.3271
30335W        W73326   9.732   2.081   2.914 -0.0072  0.5843 -0.3955
30336W        W73327  30.701  34.570  25.883 -0.1077  0.0180 -0.0913
30337W        W73328  19.110  25.985   4.958  0.1335  0.0956 -0.0700
30338W        W73329  17.097   2.092  20.404  0.1630  0.0393 -0.0571
30339W        W73330  27.380  26.054  25.774 -0.4730 -0.2894  0.0401
30340W        W73331  26.108  34.693  26.695  0.0090  0.0435 -0.3194
30341W        W73332  19.812   0.379   9.377 -0.0935  0.0862 -0.1483
30342W        W73333  12.544  31.935   6.145 -0.1257 -0.0113 -0.1287
30343W        W73334  10.670  12.109  27.810  0.1418 -0.1293  0.1994
30344W        W73335  29.272  12.841  27.544  0.2101 -0.2354  0.2504
30345W        W73336  12.310   9.088   4.470 -0.0112 -0.2258  0.0817
30346W        W73337  26.305  33.255  17.349  0.1629  0.1035 -0.2385
30347W        W73338   3.368   1.958  24.283  0.3829 -0.1019  0.0724
30348W        W73339  32.273  10.890   4.436 -0.1208  0.0598 -0.0079
30349W        W73340  30.923  19.725   1.148  0.1969  0.0066 -0.1991
30350W        W73341  27.866  11.622   7.325 -0.1464  0.1838 -0.1950
30351W        W73342  33.504  10.792   5.269 -0.0718 -0.1258 -0.0093
30352W        W73343  31.632  12.148   8.806  0.2033 -0.0406  0.3857
30353W        W73344   1.507   0.706   4.167 -0.1143 -0.1683 -0.2615
30354W        W73345  29.423  34.379   4.273 -0.2363 -0.1600  0.2302
30355W        W73346  14.698  30.920   1.421 -0.0579 -0.0378  0.2122
30356W        W73347  27.091   8.604   3.197 -0.0978  0.2314  0.3290
30357W        W73348  32.617  31.264   7.020 -0.2184 -0.3997 -0.4676
30358W        W73349  25.002   8.198   3.954  0.0884 -0.1386 -0.0185
30359W        W73350   0.598  15.686   1.154 -0.0435  0.2466  0.2375
30360W        W73351  32.308  34.031  21.069 -0.1941  0.2788 -0.0324
30361W        W73352   2.261   0.091  25.392 -0.2144  0.1571  0.0344
30362W        W73353   4.444  22.151   3.505  0.4191  0.2177 -0.0347
30363W        W73354   5.399  19.215   2.872  0.0167 -0.1214  0.2396
30364W        W73355  27.471  14.752  23.811 -0.1474 -0.2663  0.2140
30365W        W73356  16.840   9.197   7.661 -0.1830 -0.3059 -0.0001
30366W        W73357  26.485  25.729   5.885 -0.0604 -0.0581  0.0366
30367W        W73358  13.280   0.379   6.852 -0.0900  0.0860  0.0486
30368W        W73359  18.836   4.497   3.152  0.1129  0.3538 -0.1104
30369W        W73360  29.503   5.085   4.131  0.0665 -0.1338  0.1010
30370W        W73361  25.102  13.598   5.691 -0.2175 -0.1180  0.0237
30371W        W73362  25.421   6.183   3.152  0.2186 -0.0619  0.1411
30372W        W73363  13.239  26.042  23.795 -0.3706  0.1131  0.0661
30373W        W73364  19.674  26.952   9.038  0.4480 -0.2874  0.0450
30374W        W73365   3.621  19.111   2.397  0.1103  0.0136 -0.2535
30375W        W73366  17.380  17.970   1.609 -0.1228 -0.1400 -0.1024
30376W        W73367  33.343  10.020  22.121 -0.0360  0.1991 -0.1678
30377W        W73368  21.699  31.457   8.233 -0.0591 -0.1589  0.1649
30378W        W73369  30.599   7.764   5.105 -0.3507 -0.0240  0.1098
30379W        W73370  34.499  33.109   9.140 -0.2074 -0.5151  0.2555
30380W        W73371  20.191  18.671   3.385 -0.0400 -0.1901  0.2175
30381W        W73372  33.537   2.027  29.155  0.1886  0.3846  0.2345
30382W        W73373  18.743   7.783  16.112 -0.1561  0.1362  0.1507
30383W        W73374   3.731  11.459  25.744  0.1636  0.1126 -0.0081
30384W        W73375  27.687   9.158   6.289 -0.0799 -0.1165  0.0745
30385W        W73376  26.387  32.596  23.729  0.1103  0.0753 -0.1562
30386W        W73377  17.066  27.114   8.337 -0.1513 -0.2018 -0.2339
30387W        W73378   1.023   3.893  28.485 -0.1535  0.0278 -0.1847
30388W        W73379  24.184  18.675   3.234  0.2682  0.4006 -0.1202
30389W        W73380  31.751   3.210  23.160 -0.0444  0.4661 -0.0990
30390W        W73381  28.416  24.006   6.643  0.0673 -0.1169 -0.2592
30391W        W73382  17.090  11.314  10.594 -0.0535  0.0818  0.1263
30392W        W73383   1.116  25.631  10.027  0.0349 -0.3417  0.0886
30393W        W73384  10.792  27.225   5.150  0.0602  0.0365 -0.0501
30394W        W73385  32.443  24.347   5.643  0.0609 -0.1881  0.1325
30395W        W73386  34.032  29.682   9.151  0.1280  0.1287 -0.1056
30396W        W73387  19.185  10.029   3.109 -0.1421  0.3836 -0.1747
30397W        W73388  22.562  33.985   3.540  0.0446 -0.0942  0.0310
30398W        W73389   0.487  19.508   4.730  0.2430  0.0965 -0.2241
30399W        W73390  19.178   6.449   6.821  0.2097 -0.0004 -0.0738
30400W        W73391  34.801  16.152   9.996  0.1070  0.1894  0.1307
30401W        W73392  34.236   6.247   2.740  0.1025  0.2883 -0.2452
30402W        W73393  12.456  27.751   7.194 -0.2453  0.2558  0.0808
30403W        W73394  27.175  19.557   2.644  0.0362  0.2157 -0.0616
30404W        W73395  32.830   5.021   8.752 -0.0277 -0.2366 -0.1428
30405W        W73396  31.065  10.780   7.499  0.3924  0.1469 -0.3193
30406W        W73397  23.356  16.584   0.663  0.3419  0.1051  0.0765
30407W        W73398   0.261  34.524   7.741  0.0929 -0.1178 -0.0386
30408W        W73399  15.636   8.639  27.818  0.1487  0.1071  0.1627
30409W        W73400  30.935   4.875   7.800  0.1974  0.1230  0.0941
30410W        W73401  24.986  15.041  27.849  0.4710 -0.0999  0.0523
30411W        W73402  21.890  32.866   1.912  0.2494 -0.1240  0.1182
30412W        W73403   9.895  22.647  25.027 -0.0406  0.2831  0.1434
30413W        W73404  20.473  23.216   2.762  0.1518 -0.2415 -0.1089
30414W        W73405  19.369  19.360   3.325 -0.3606  0.0137  0.2089
30415W        W73406  25.086  20.539  20.293 -0.0952 -0.4933  0.1822
30416W        W73407   9.504  27.895  27.430 -0.0319  0.4488  0.2240
30417W        W73408  16.110  33.329   3.554  0.0083 -0.0501  0.0749
30418W        W73409  25.705   5.639  16.209  0.0486 -0.1460 -0.0601
30419W        W73410  22.256   8.098   8.205  0.0198  0.1272 -0.0121
30420W        W73411  24.739   1.135   6.212  0.1958 -0.1905 -0.1291
30421W        W73412  29.753  25.060   0.760  0.1874 -0.1605  0.0433
30422W        W73413   0.233  31.518   5.187 -0.3194 -0.0394 -0.1743
30423W        W73414   2.129   8.161   1.239 -0.0199 -0.1043  0.0472
30424W        W73415  25.540  32.480   5.034  0.0276 -0.2446  0.2628
30425W        W73416  32.793  22.703   9.861  0.1225 -0.2863 -0.0324
30426W        W73417  29.484  20.171   8.757 -0.0814 -0.3381  0.2538
30427W        W73418  27.978   5.526   3.936  0.2300  0.2520  0.0303
30428W        W73419  25.289  29.954   3.575 -0.1909  0.0178  0.3659
30429W        W73420  21.730   8.550  23.771  0.3519 -0.1835 -0.1254
30430W        W73421  16.326  14.973  21.062  0.0017  0.1049 -0.0931
30431W        W73422  15.761  26.739  26.652 -0.1438 -0.0174 -0.0470
30432W        W73423  27.308  21.499   8.049  0.2274 -0.0501  0.1199
30433W        W73424  27.093  30.854  23.029 -0.0084  0.0303 -0.0950
30434W        W73425  16.923  20.375   2.869 -0.0371 -0.2153 -0.2227
30435W        W73426  32.248  24.167   4.376  0.0501  0.0530 -0.1686
30436W        W73427  21.770   5.048   4.254 -0.3229 -0.0731 -0.1241
30437W        W73428  33.341  28.149  20.464 -0.0430 -0.1560 -0.2147
30438W        W73429  23.496  17.623   8.735 -0.0966  0.4769 -0.1511
30439W        W73430  31.554  11.095   8.781  0.2798 -0.0576  0.3206
30440W        W73431  17.521  20.611  25.921 -0.0823 -0.2266  0.0180
30441W        W73432  25.217  32.930   7.067  0.0691 -0.1134  0.0833
30442W        W73433  32.441  18.000  22.276  0.0055  0.2130  0.3192
30443W        W73434  31.808   1.210  27.451  0.0593 -0.0922 -0.2282
30444W        W73435   0.077  28.772   5.506  0.1386  0.0501 -0.0309
30445W        W73436  31.648  17.329  24.489 -0.2179 -0.3033 -0.0124
30446W        W73437  25.212  33.865   3.928  0.2514  0.2837 -0.2398
30447W        W73438  12.312   9.510   2.152  0.2668 -0.1639  0.0488
30448W        W73439  32.099  13.864   9.275  0.0456 -0.1694 -0.3147
30449W        W73440   7.256  20.913   9.919  0.1166  0.0529  0.2250
30450W        W73441  30.282   4.557   0.461  0.1316 -0.2863  0.3244
30451W        W73442   2.664   2.054   1.970 -0.1547  0.1567  0.2421
30452W        W73443   3.768  18.920   3.999 -0.0241 -0.0884  0.0101
30453W        W73444   8.785  16.629   5.896  0.1684 -0.4594 -0.3426
30454W        W73445  17.621   3.621   7.847  0.4687  0.3029 -0.0834
30455W        W73446  12.457  21.450   9.497  0.0066 -0.0625 -0.3351
30456W        W73447  33.772  32.627   8.476 -0.3697 -0.1023 -0.0158
30457W        W73448  16.958   3.430  18.866  0.0651 -0.2033  0.4166
30458W        W73449  28.154  24.463  26.490  0.2299  0.0951  0.0348
30459W        W73450  34.372  25.375   9.252  0.2746 -0.0260  0.1187
30460W        W73451  12.022   9.384  10.157  0.1412 -0.2761 -0.1068
30461W        W73452  23.317  29.412   3.857 -0.1072  0.3393 -0.0465
30462W        W73453  21.088  26.343   8.783 -0.0025  0.2619  0.2055
30463W        W73454  24.926   0.416  20.194 -0.1236  0.2536 -0.1943
30464W        W73455   5.164  31.718  10.489  0.2109 -0.2570  0.3424
30465W        W73456   6.151  14.170  10.413 -0.3133  0.2098  0.2750
30466W        W73457  24.249  19.668   4.566  0.3187  0.0843  0.1466
30467W        W73458  13.908  12.289   7.341 -0.0365  0.1779  0.3090
30468W        W73459  21.888   3.259   8.180 -0.2487  0.1237  0.1815
30469W        W73460  25.686  29.162   3.222 -0.0139 -0.0452 -0.3368
30470W        W73461  31.665   2.289   9.874 -0.2276 -0.1090 -0.0488
30471W        W73462  11.568   6.018   3.415  0.1154  0.0754  0.0337
30472W        W73463  25.456  19.858  28.085 -0.2275 -0.0792 -0.0006
30473W        W73464  28.156  31.178   7.902  0.1663 -0.1617 -0.1256
30474W        W73465   4.799   8.503   8.542 -0.0803 -0.0933 -0.0993
30475W        W73466  11.884   9.927  22.819 -0.2805  0.0364 -0.0761
30476W        W73467  11.505   9.354  27.647  0.1348 -0.2129  0.0190
30477W        W73468  23.490  24.115   4.092 -0.0574 -0.1515 -0.1416
30478W        W73469   0.240  28.895  26.095  0.0593 -0.1313  0.2143
30479W        W73470   5.529  10.824   1.359 -0.0992  0.3058 -0.0549
30480W        W73471  28.361   7.250  19.883 -0.2861  0.0696  0.0133
30481W        W73472  29.143  24.750   6.803  0.0947 -0.1725 -0.0167
30482W        W73473  25.963   1.219   9.525 -0.3492  0.0172 -0.0755
30483W        W73474  27.565  20.548   0.077 -0.0567 -0.2524  0.3284
30484W        W73475   1.780   8.976  28.420 -0.2856  0.0263 -0.1844
30485W        W73476   0.017  10.081  22.287 -0.2691  0.0035 -0.0388
30486W        W73477  22.520   4.498  24.658  0.0293  0.0711  0.2727
30487W        W73478  30.799   8.400   9.815 -0.0069 -0.1517  0.1755
30488W        W73479  19.350  10.738   2.895  0.2132 -0.1701 -0.2525
30489W        W73480  33.992  33.914   6.997 -0.0136 -0.0868  0.0052
30490W        W73481  33.220  31.878  21.158 -0.0115  0.4826 -0.1264
30491W        W73482  12.959  31.723   8.271 -0.1770  0.0119 -0.2479
30492W        W73483  15.551  34.791   4.958 -0.1222 -0.0689 -0.2713
30493W        W73484  20.657  10.758  23.578 -0.0999  0.1327 -0.1097
30494W        W73485  16.518  21.786   4.943  0.0454 -0.0707 -0.0935
30495W        W73486  22.312  26.588   6.577 -0.0055  0.0914  0.0205
30496W        W73487   2.193   3.781   9.644 -0.1270 -0.0782 -0.0179
30497W        W73488  21.962  33.813   9.647  0.1196 -0.1728 -0.0571
30498W        W73489  27.503   0.019   6.508 -0.0027  0.1400  0.0325
30499W        W73490   3.990  12.989  22.438 -0.0556 -0.0316  0.0147
30500W        W73491  26.708   6.111  27.523  0.1245 -0.4366 -0.1028
30501W        W73492  18.549  15.404   9.267 -0.0928  0.0585  0.1219
30502W        W73493  29.780  11.639   9.040  0.1191 -0.2677 -0.2628
30503W        W73494  14.764  28.842   0.296 -0.0077 -0.1120  0.0958
30504W        W73495   9.960  14.853   9.083  0.3748  0.0192  0.1059
30505W        W73496  26.537   9.094  10.212 -0.1469  0.3824  0.1273
30506W        W73497  27.473  25.818  27.792  0.0693  0.1580 -0.1681
30507W        W73498  32.032   7.619   0.210  0.3444 -0.0336 -0.0111
30508W        W73499  30.555  33.413   6.259  0.0441  0.3165  0.0524
30509W        W73500  19.572  17.617   5.164  0.0427  0.2147  0.2444
30510W        W73501  19.850  16.269  28.707 -0.0418 -0.0673  0.1722
30511W        W73502  32.300   3.753   9.227  0.2266  0.2915  0.3199
30512W        W73503  29.931   9.234   0.267  0.2010 -0.1695 -0.0650
30513W        W73504  28.511  28.388   8.811  0.2181 -0.0848 -0.1616
30514W        W73505  27.079  10.384   1.861  0.0044  0.0540  0.2645
30515W        W73506  11.490   3.475   1.249  0.2208  0.0813  0.4336
30516W        W73507  27.031   5.388   6.563 -0.0738  0.2489  0.0750
30517W        W73508  13.910   8.116   9.489  0.0470  0.0521  0.2461
30518W        W73509   2.540   1.804   2.863 -0.1101  0.0758 -0.0384
30519W        W73510  23.738  12.913  28.039  0.0605 -0.0233  0.2330
30520W        W73511  19.202   0.148   4.975 -0.1942  0.0762  0.0419
30521W        W73512  23.156   3.981  27.681  0.0879  0.2052  0.1703
30522W        W73513  25.641  32.602   8.477  0.0380  0.1403  0.0675
30523W        W73514  25.931   4.352   7.717 -0.0268 -0.0779 -0.1237
30524W        W73515  13.887   3.475   9.950 -0.1003  0.1755 -0.1673
30525W        W73516  25.305  32.071  23.318 -0.2411  0.0348 -0.0330
30526W        W73517  21.932   9.965   8.893  0.0246  0.3652 -0.1519
30527W        W73518   4.237   0.887   2.615 -0.3598  0.0265  0.0945
30528W        W73519  11.489  28.655  10.022 -0.0465 -0.1571  0.0438
30529W        W73520   9.624  27.499   9.702  0.2396 -0.1262 -0.3032
30530W        W73521   6.747   9.927  27.219 -0.0818  0.1846  0.0418
30531W        W73522  26.636   0.474   9.295  0.0981  0.0653  0.0473
30532W        W73523  23.712  25.679  25.073  0.1463 -0.1977 -0.4203
30533W        W73524  27.287  29.176  24.806 -0.0612  0.2590 -0.0462
30534W        W73525  12.779  25.977   3.269  0.3111 -0.1495  0.0535
30535W        W73526  24.202  33.993  19.571  0.1379 -0.0516 -0.1428
30536W        W73527  34.176  19.225   6.907  0.0702  0.2771  0.2806
30537W        W73528   7.119  28.602  26.760  0.1083 -0.1540 -0.1597
30538W        W73529   2.901   3.491   1.539  0.2103  0.1472  0.0830
30539W        W73530  28.502  24.988   3.611 -0.3327  0.0665  0.1795
30540W        W73531  18.799   8.458   2.838  0.2996  0.1493  0.2508
30541W        W73532  26.483   1.177   5.607 -0.0663  0.1660 -0.0234
30542W        W73533  12.175  26.732  18.921 -0.0523  0.2122 -0.1166
30543W        W73534  30.351  19.898   1.625 -0.0626 -0.0452  0.2516
30544W        W73535  16.483   5.399  10.905 -0.0525  0.0056  0.3709
30545W        W73536   4.037  30.578   1.492 -0.2673 -0.2074  0.1476
30546W        W73537  34.247   4.646   3.013 -0.2288 -0.1300  0.1725
30547W        W73538  28.767   6.967  25.316  0.0325 -0.1305 -0.0723
30548W        W73539   9.529   1.744   7.387  0.0086  0.2730 -0.1797
30549W        W73540  23.283  19.310   2.849  0.1236  0.1918  0.1733
30550W        W73541  25.938  26.123  16.366 -0.2233 -0.0585 -0.0162
30551W        W73542  32.856  11.168  18.950  0.2029 -0.2542  0.1878
30552W        W73543  10.925  14.860   7.187 -0.0803  0.0024 -0.1640
30553W        W73544   1.190   3.702   9.368  0.2957  0.2460  0.4500
30554W        W73545  18.672  27.581   4.462 -0.1269 -0.1851 -0.2992
30555W        W73546  19.820  26.448   6.614 -0.0155  0.2366 -0.1670
30556W        W73547   6.729  26.642   3.409  0.0236 -0.0791 -0.0864
30557W        W73548  32.238  33.184   7.777  0.0200  0.0827  0.1437
30558W        W73549   1.117   2.083   4.344 -0.3393 -0.2852  0.0360
30559W        W73550  30.719  32.999  15.742  0.2492 -0.0406  0.0448
30560W        W73551  21.366  16.803   2.893 -0.0305  0.0993 -0.5936
30561W        W73552  24.985  26.503   6.304  0.0193 -0.4246 -0.0306
30562W        W73553  16.547   2.608   4.402  0.2352 -0.1642 -0.0731
30563W        W73554  16.686   7.822   3.344 -0.0183 -0.2246  0.2099
30564W        W73555  15.546  16.019   0.826 -0.4319 -0.1394 -0.2724
30565W        W73556  22.756  16.265   2.329 -0.0061 -0.1913 -0.1512
30566W        W73557  15.328  26.048  26.677 -0.0756  0.0869 -0.3925
30567W        W73558  15.894   1.128  23.046  0.2406  0.0778 -0.2225
30568W        W73559   1.952  25.946  26.469 -0.1757 -0.0646 -0.1123
30569W        W73560  30.920  32.841   9.302  0.1733  0.0083  0.0037
30570W        W73561  28.278   8.804   9.817  0.1103  0.2059 -0.0212
30571W        W73562  34.209  31.122   5.023  0.1991 -0.2948 -0.0873
30572W        W73563  22.001  12.685   6.830  0.2459 -0.0689 -0.0848
30573W        W73564  29.225  27.135   4.429 -0.0699 -0.4335 -0.0672
30574W        W73565  18.700  27.111  27.722  0.0747 -0.4081 -0.1989
30575W        W73566  25.866  12.697  27.005  0.0256  0.0046  0.1174
30576W        W73567  16.464  13.086  24.251 -0.0676 -0.0558 -0.0108
30577W        W73568  13.121  30.317   4.343  0.2192  0.0579 -0.0257
30578W        W73569  27.830  21.367  24.925 -0.2375  0.6123  0.0397
30579W        W73570   9.260   8.245   7.246  0.0166  0.2104  0.2553
30580W        W73571   8.814  20.880   3.737  0.1961 -0.0126 -0.1522
30581W        W73572  26.841   4.460  28.442 -0.3898 -0.0633 -0.0375
30582W        W73573  24.697  23.379   7.327 -0.1268 -0.1278  0.1310
30583W        W73574  17.016  26.697   5.819 -0.1524  0.4501 -0.1172
30584W        W73575  18.855  15.760   7.438  0.0297  0.0207  0.2954
30585W        W73576  25.415   6.549   8.009  0.0721 -0.2882  0.2594
30586W        W73577   9.509   6.233   3.752  0.2116 -0.0042  0.1990
30587W        W73578  34.136  28.742   0.975  0.0532  0.0234  0.1507
30588W        W73579   0.669  33.674   2.870  0.0454  0.1891 -0.0498
30589W        W73580  30.725  20.112   1.369 -0.4517 -0.0020 -0.0049
30590W        W73581  32.100  14.476   9.786  0.0380 -0.1857  0.0563
30591W        W73582  24.340  10.255  21.620 -0.1562 -0.0294  0.2444
30592W        W73583  31.980   2.558   5.219 -0.1018 -0.0847  0.0898
30593W        W73584  21.509   0.008  19.411  0.1122 -0.4108  0.1128
30594W        W73585   1.596  32.281  14.491  0.1322  0.1319 -0.1850
30595W        W73586  24.846  13.092   0.286  0.1210 -0.0114  0.3644
30596W        W73587  32.582   4.196  20.688  0.0232  0.2429 -0.1586
30597W        W73588  24.482   4.291   4.159  0.0679  0.0977  0.1061
30598W        W73589   0.069  22.875  28.765 -0.0216 -0.2577 -0.2160
30599W        W73590  29.946   5.079   2.936  0.1017  0.0754 -0.1713
30600W        W73591   4.556   0.115   2.355 -0.1226 -0.4121 -0.2313
30601W        W73592   5.579   5.392  21.225  0.0739 -0.0718 -0.3016
30602W        W73593  17.876  31.862   7.192 -0.2205  0.2532 -0.1661
30603W        W73594  23.270  21.776  19.802  0.0087 -0.1862 -0.0200
30604W        W73595  16.719  26.816   3.968  0.2808  0.2639 -0.1628
30605W        W73596  31.464  29.405   0.076 -0.0472  0.2250  0.3017
30606W        W73597   3.658  17.455   9.077  0.1923 -0.0722  0.0254
30607W        W73598  20.368  14.978   4.244  0.0202 -0.0607 -0.2082
30608W        W73599   2.743  30.729   0.441 -0.0331 -0.0828  0.3392
30609W        W73600   1.118   9.437   5.773  0.0834 -0.0343 -0.2407
30610W        W73601   7.751  20.126  10.301 -0.1071  0.1679 -0.2549
30611W        W73602  26.813  34.255  25.287  0.5101  0.2277 -0.1324
30612W        W73603  26.606  29.615   7.368  0.0475 -0.1222 -0.1546
30613W        W73604  22.783   2.156   3.758 -0.0652 -0.2218 -0.0577
30614W        W73605   3.347  13.497  21.910  0.3127  0.0758  0.0025
30615W        W73606   1.073   2.820  25.978  0.1427 -0.0781  0.2670
30616W        W73607  21.959  20.476  23.486  0.0958 -0.2803  0.2999
30617W        W73608  16.735  21.319   3.753  0.2003  0.2602 -0.0565
30618W        W73609   6.981  17.710   0.021 -0.0504  0.0775 -0.0705
30619W        W73610   2.007  22.551  28.623 -0.2298 -0.0760  0.1580
30620W        W73611  27.485  20.280   3.658 -0.1505 -0.0100 -0.0493
30621W        W73612  23.551   4.321   2.822 -0.2266 -0.1727 -0.0225
30622W        W73613  33.078  21.457   0.893 -0.1580 -0.0090  0.0856
30623W        W73614  27.011   6.864  28.535 -0.1794 -0.3329 -0.1224
30624W        W73615  17.132  10.568   8.200  0.5317 -0.0747  0.1228
30625W        W73616  16.540   5.999  28.329  0.1011 -0.2715 -0.1781
30626W        W73617  11.495  19.861  17.010  0.0189 -0.1916 -0.1405
30627W        W73618   0.757  14.508   5.523 -0.1197 -0.0250 -0.2955
30628W        W73619  33.800  30.568   9.211  0.1544  0.2840  0.0559
30629W        W73620  15.987   3.526  21.445  0.1577  0.0652 -0.3980
30630W        W73621  28.525   6.254   6.454 -0.0832  0.2164  0.0992
30631W        W73622  31.297  24.312  28.928  0.2169 -0.1768 -0.1659
30632W        W73623   2.252  16.934   2.219  0.1608 -0.1368 -0.2809
30633W        W73624  27.470  10.015   7.767 -0.2357 -0.1241 -0.0306
30634W        W73625   0.818   8.772  23.959  0.1685 -0.0406  0.2599
30635W        W73626   5.187  20.732  14.590 -0.1806 -0.1138  0.0264
30636W        W73627  31.198   0.543   6.492  0.0629  0.0560 -0.5688
30637W        W73628  31.308   1.802  26.785 -0.1307 -0.1678  0.3342
30638W        W73629  22.064   7.941  25.507  0.0964 -0.0984  0.0812
30639W        W73630   1.558   0.611  15.090  0.0758  0.0426  0.2423
30640W        W73631  27.707  27.778   0.289 -0.2972 -0.0429  0.1918
30641W        W73632  26.496   1.957   6.786  0.0612  0.1896 -0.0534
30642W        W73633  22.826   9.241   7.791 -0.4168  0.0765  0.0211
30643W        W73634  32.667   2.485  25.170 -0.3319  0.1396  0.0288
30644W        W73635  32.750   2.751   4.322  0.3664 -0.1307  0.1401
30645W        W73636  25.694   8.633   3.714 -0.1855 -0.0811 -0.0920
30646W        W73637  27.945   5.355   7.584  0.1024  0.0597  0.0326
30647W        W73638  26.728  32.607  22.423 -0.1032 -0.1537 -0.0342
30648W        W73639  23.948  24.376  24.675  0.0479  0.4508 -0.2144
30649W        W73640  32.215   4.790   5.232 -0.0941  0.2371 -0.0081
30650W        W73641  26.157   0.310   0.382  0.0388  0.0446 -0.2131
30651W        W73642  20.782  18.162  25.108 -0.0931  0.1527 -0.0086
30652W        W73643  13.987  23.854   0.742 -0.0105  0.3492 -0.1600
30653W        W73644  29.634  26.368  21.467 -0.0913  0.1368 -0.0815
30654W        W73645   1.955   4.567  10.718  0.2324  0.2119  0.0677
30655W        W73646   4.632   8.546   7.995  0.2615  0.0805 -0.0631
30656W        W73647  21.158   2.398   1.789 -0.1183 -0.0605  0.1228
30657W        W73648   0.739   0.717   3.501 -0.0842 -0.0972 -0.1009
30658W        W73649  17.351  14.313  24.076 -0.2580  0.0244 -0.0251
30659W        W73650  26.502   5.232   4.233 -0.2472 -0.2649 -0.1058
30660W        W73651  34.680  17.957  10.618 -0.3035  0.0065 -0.0992
30661W        W73652  15.878  21.962  28.692  0.0627 -0.1891 -0.0386
30662W        W73653  26.270   9.012   4.265  0.6170 -0.2203  0.1651
30663W        W73654   1.988  25.039  17.688 -0.1630  0.0732 -0.1085
30664W        W73655  17.817  14.470   4.271 -0.0310 -0.0066 -0.1958
30665W        W73656  15.792   4.909   2.805 -0.0593 -0.1061 -0.0984
30666W        W73657  33.826  28.887  25.393 -0.2315 -0.3821  0.1381
30667W        W73658   9.302   8.475  25.153 -0.1082 -0.1214  0.0942
30668W        W73659  16.238  29.039   6.306  0.3032 -0.3497 -0.2754
30669W        W73660   6.107  21.365   1.503  0.1233  0.1042  0.0337
30670W        W73661  28.869  14.861  10.244 -0.1969 -0.0994 -0.0965
30671W        W73662  33.523  16.649  24.984  0.0723 -0.0809  0.1620
30672W        W73663  33.997   8.444  28.273 -0.1463 -0.2073 -0.1724
30673W        W73664   0.336  10.232   2.914  0.1007  0.3086  0.1169
30674W        W73665  29.679  27.050   3.589 -0.2650 -0.2878 -0.1752
30675W        W73666  34.749   3.119   9.968 -0.1213  0.0573  0.2187
30676W        W73667  34.390   3.117  23.476 -0.0765 -0.0007 -0.1353
30677W        W73668  27.128  32.731   7.745  0.5666  0.0884  0.0032
30678W        W73669  23.623  21.629   5.766 -0.3206  0.3185 -0.0580
30679W        W73670  18.491   8.163   8.183 -0.0761 -0.0279 -0.1703
30680W        W73671  15.665   7.352  24.969  0.0554 -0.0355  0.1116
30681W        W73672  16.062   1.430  25.829 -0.0026  0.1117  0.3177
30682W        W73673  16.315  27.094   1.603 -0.0918  0.2376 -0.3288
30683W        W73674  27.259   8.648  27.634 -0.2496 -0.2654 -0.0340
30684W        W73675  33.097  28.028  23.390 -0.0252 -0.0247 -0.5803
30685W        W73676  25.990   8.887   4.707  0.0792 -0.3141 -0.0562
30686W        W73677   0.700  33.304   5.878 -0.1272 -0.0526 -0.0932
30687W        W73678  24.665  25.857   4.026  0.2528 -0.0933  0.2799
30688W        W73679  24.580  11.087   5.508  0.1764  0.2995 -0.1883
30689W        W73680  12.156   0.993   1.351  0.4795 -0.2480  0.0335
30690W        W73681  19.633  26.815   5.555  0.1054 -0.0260 -0.0292
30691W        W73682   1.752  28.496   1.675 -0.3020  0.2224  0.1935
30692W        W73683  17.394  16.686   1.880 -0.0626 -0.2234  0.2724
30693W        W73684  15.019  24.200   4.274 -0.0722  0.3453 -0.1686
30694W        W73685   2.590   5.469   9.036 -0.1053  0.1176 -0.0861
30695W        W73686  27.998  28.413   7.984  0.1473 -0.0218 -0.0772
30696W        W73687   4.868  31.399  25.753 -0.0081 -0.2215 -0.2510
30697W        W73688  13.898  24.018   4.134 -0.3894 -0.1539  0.0850
30698W        W73689  10.573  30.368   7.711  0.1006  0.0171  0.0674
30699W        W73690  22.558  21.483   9.110 -0.1284  0.0057 -0.0041
30700W        W73691   6.506  15.657   2.872  0.0570 -0.0587 -0.0576
30701W        W73692  20.506  20.855  24.842 -0.1244  0.4156 -0.1417
30702W        W73693   4.153  12.835   8.652 -0.0504  0.2202 -0.1513
30703W        W73694   7.626  29.328  10.022  0.2569  0.1421  0.0059
30704W        W73695  28.195   4.435  27.460 -0.4766 -0.1212  0.0172
30705W        W73696   0.382  12.718  10.790 -0.0372  0.0862 -0.1998
30706W        W73697  12.100   6.179   2.716  0.0554 -0.2012 -0.1814
30707W        W73698  28.177   5.309   3.476 -0.1083  0.1768 -0.1752
30708W        W73699  27.730   7.234  24.740 -0.3367  0.2073 -0.2024
30709W        W73700  15.563  34.186   5.681 -0.0548 -0.1274  0.0318
30710W        W73701  10.062   5.093  21.247  0.1053 -0.1764 -0.1655
30711W        W73702  19.602   1.998  28.819  0.2538  0.0488  0.0277
30712W        W73703   3.329  33.652   5.262  0.2457  0.2117  0.1010
30713W        W73704  21.239   0.603  14.053  0.4237  0.0287  0.0918
30714W        W73705  31.674  28.986   2.257 -0.0069  0.0585  0.0552
30715W        W73706  33.440  14.191   5.208  0.2519  0.0074 -0.2324
30716W        W73707  30.658  17.803   5.359  0.1648 -0.0841 -0.0806
30717W        W73708  16.160  23.397  25.679 -0.0272  0.1319  0.0002
30718W        W73709  24.746  19.254   2.080  0.1927 -0.0595 -0.3421
30719W        W73710  20.215  34.009  16.848  0.0157 -0.1830 -0.0350
30720W        W73711  29.579  12.464   8.644 -0.0390 -0.1965  0.2092
30721W        W73712  25.475  19.467   4.077 -0.0626  0.1599  0.0990
30722W        W73713  29.661   3.611  19.137  0.3631  0.1055 -0.3789
30723W        W73714  28.999  32.491   5.595 -0.0051 -0.0252 -0.0438
30724W        W73715  24.776  25.075   4.555 -0.0417  0.0695  0.1362
30725W        W73716  10.284  12.317   0.089  0.2790 -0.0467 -0.3305
30726W        W73717  16.570  28.350  27.579 -0.1921  0.1635 -0.0386
30727W        W73718  22.346   5.078   8.372  0.3568 -0.0324  0.0364
30728W        W73719  22.147  28.596   3.928 -0.1484  0.0635 -0.1086
30729W        W73720  25.976  11.760   6.578  0.2742 -0.2510  0.0306
30730W        W73721  14.002  34.623   8.551 -0.1292 -0.0658  0.4044
30731W        W73722  24.157  15.798  27.287  0.1299 -0.0194  0.1598
30732W        W73723  27.678  33.514  19.035  0.1249 -0.1439 -0.0366
30733W        W73724  31.524  20.047   2.212  0.1790  0.0625  0.4080
30734W        W73725  21.667  11.521  14.767 -0.1517 -0.4204 -0.1753
30735W        W73726  13.199  10.450  28.406 -0.0029  0.0763  0.1967
30736W        W73727   6.578   8.422   9.643  0.0963  0.0843  0.0284
30737W        W73728  30.449  25.464   6.462 -0.2349 -0.0663 -0.0552
30738W        W73729   7.330  24.603   4.569  0.1927  0.0729  0.0747
30739W        W73730  29.186  24.779  29.034  0.1344 -0.1008 -0.3144
30740W        W73731  26.842   2.331   6.523 -0.0235 -0.0172  0.2412
30741W        W73732  27.878  23.440   2.045  0.0592  0.0963 -0.0313
30742W        W73733   8.178   8.243   5.528  0.2473  0.1101  0.0820
30743W        W73734  24.996  34.340   3.592  0.1562  0.4402 -0.0066
30744W        W73735  25.600  18.378  22.849 -0.2244  0.1121  0.1381
30745W        W73736  16.353   2.601   2.583  0.0762 -0.6403  0.1940
30746W        W73737   0.234   0.497   3.293 -0.0682  0.0641  0.2136
30747W        W73738  18.171  15.295   8.292  0.2900  0.1444  0.0458
30748W        W73739   2.356  25.943   5.789  0.1328 -0.2778  0.2242
30749W        W73740  32.497   2.636  21.093 -0.0189  0.2386  0.3357
30750W        W73741  29.792   0.803   8.193 -0.0958  0.0524  0.1314
30751W        W73742  19.315   5.978   6.061  0.1654 -0.0895 -0.0692
30752W        W73743  22.979  18.628   4.202  0.1187 -0.0557  0.3027
30753W        W73744  27.704   1.990  22.059 -0.1166 -0.0420  0.1261
30754W        W73745  21.614  29.931  24.331  0.1076  0.0677  0.1618
30755W        W73746   2.561  33.863   8.801  0.3507  0.4161 -0.0710
30756W        W73747  11.503  28.161   9.829  0.4339 -0.0580  0.1123
30757W        W73748   6.395  34.573   1.985 -0.0297 -0.2418  0.3106
30758W        W73749  34.527  16.004   9.228  0.6079  0.1224  0.1551
30759W        W73750   1.312   6.069  24.908 -0.3763  0.0350 -0.3241
30760W        W73751   6.633  19.961   1.965  0.1192  0.2423 -0.4713
30761W        W73752  15.069  25.035   0.956 -0.2629 -0.1439 -0.3493
30762W        W73753  11.928  10.737  22.472 -0.0864 -0.2451  0.2921
30763W        W73754  24.795  29.023   2.221  0.1001 -0.2657  0.1647
30764W        W73755  27.067  15.612   6.811  0.0766 -0.0032 -0.1015
30765W        W73756  21.771  24.317   2.276 -0.1048 -0.0974  0.0557
30766W        W73757  28.409   4.453   9.983  0.1574  0.0376 -0.1308
30767W        W73758  16.443   0.154   8.621 -0.1506 -0.2491  0.1239
30768W        W73759   5.417  33.954   3.101  0.1777  0.0100 -0.1225
30769W        W73760   5.594  30.064   5.354 -0.0001  0.0333  0.1215
30770W        W73761  10.121  34.577   8.240  0.1070 -0.0565  0.0748
30771W        W73762  13.325   5.980   1.322 -0.1027 -0.0379  0.3522
30772W        W73763  21.414   2.919  26.006 -0.3068  0.0910  0.0181
30773W        W73764  31.349   6.165   9.873  0.0037 -0.0914  0.2808
30774W        W73765   9.267  10.086  22.260 -0.1022  0.4741 -0.1674
30775W        W73766  26.903   2.155   9.269 -0.1862  0.0941  0.1877
30776W        W73767   6.033   7.987   4.120 -0.1529  0.3136  0.0883
30777W        W73768  14.669   8.435  28.208 -0.1645  0.1261 -0.3864
30778W        W73769  31.080  30.362   0.198  0.1794  0.2776 -0.0851
30779W        W73770  14.600  10.144  22.477  0.0385 -0.1529  0.1339
30780W        W73771  24.981   1.563   6.117  0.1491 -0.1325 -0.1205
30781W        W73772  15.150   3.588  15.182  0.3188 -0.1178 -0.2654
30782W        W73773  34.175  24.094   3.550 -0.0664 -0.0699 -0.0829
30783W        W73774  27.552   4.511  26.045 -0.0359 -0.4073 -0.0887
30784W        W73775  12.833   5.949  28.186 -0.0273  0.1605 -0.0583
30785W        W73776  20.872  15.746   6.432  0.2681  0.0838 -0.0754
30786W        W73777  22.086  13.129   2.910  0.0235  0.2944  0.0099
30787W        W73778  28.851   6.515   6.897  0.4441  0.0482 -0.1120
30788W        W73779  31.715   8.952   7.945 -0.3200  0.2150 -0.2368
30789W        W73780  34.088   2.871   0.971 -0.3185  0.2127 -0.2269
30790W        W73781  23.463   4.369   6.877  0.0314  0.1152 -0.1930
30791W        W73782  27.348   6.442  28.653  0.0928 -0.4633  0.1971
30792W        W73783  29.840  14.638  18.972 -0.1004 -0.2864  0.1322
30793W        W73784  13.638  31.845   7.082 -0.1689  0.0282 -0.1090
30794W        W73785  18.244  10.302  16.177 -0.2228  0.1096  0.3783
30795W        W73786  29.606   7.306   5.808 -0.1013  0.1105 -0.2610
30796W        W73787  14.371  19.414   3.135 -0.0721 -0.2336 -0.0401
30797W        W73788  33.028  34.266   5.642 -0.2500  0.4929  0.0471
30798W        W73789   3.622  26.659  28.666  0.1762  0.2034  0.0355
30799W        W73790  24.167   4.895  13.786 -0.1048  0.0440 -0.1338
30800W        W73791  25.759  21.645  26.181 -0.1098  0.2786 -0.2524
30801W        W73792  20.334  20.095  23.675 -0.2133 -0.0843  0.2048
30802W        W73793  30.438  26.487   4.911 -0.3858 -0.0540  0.1145
30803W        W73794  31.206   8.478  27.250  0.2645 -0.1699 -0.1827
30804W        W73795  14.325  31.612  22.027  0.0443 -0.2376  0.2553
30805W        W73796   3.115  33.173   9.518  0.1291 -0.2147 -0.1445
30806W        W73797  26.275  11.110   8.582 -0.1205  0.0438 -0.0112
30807W        W73798  27.404   0.186   6.988  0.1150 -0.0559 -0.2354
30808W        W73799   2.632  34.661   5.714 -0.1631  0.2360  0.1458
30809W        W73800  24.243  12.681   0.732  0.3475 -0.1263  0.2520
30810W        W73801  15.149  33.794   0.571  0.1098  0.0075  0.0191
30811W        W73802   1.352   0.826   8.108 -0.3308  0.3394  0.0537
30812W        W73803  31.444   7.716   1.683 -0.0966 -0.2230  0.0213
30813W        W73804  22.232  10.139   5.420 -0.1114  0.3168  0.1012
30814W        W73805   9.002   8.110   0.541 -0.4350 -0.0379 -0.1577
30815W        W73806  32.685  27.039   2.668 -0.0238  0.2594 -0.1721
30816W        W73807  17.191  17.510   5.303 -0.0498  0.0069 -0.2524
30817W        W73808  15.988  23.799  28.698  0.1594 -0.0561  0.0792
30818W        W73809  29.152   1.437   8.704 -0.0566  0.0624 -0.1785
30819W        W73810  11.676  19.610  24.991 -0.0112  0.1307 -0.0881
30820W        W73811  24.225   8.489   7.227 -0.3660 -0.1604  0.0699
30821W        W73812  21.989  29.216  14.151 -0.0229 -0.1616  0.3660
30822W        W73813  19.617   4.368  27.242  0.1728  0.0343  0.1801
30823W        W73814  27.154   4.449  25.713 -0.0518 -0.0791 -0.0966
30824W        W73815  23.180  10.471  14.476  0.1580 -0.0837  0.1312
30825W        W73816  16.899  18.507   3.372  0.2088  0.2268  0.3822
30826W        W73817  31.916   1.990  22.532 -0.0441  0.1617  0.1768
30827W        W73818  15.880  30.833   3.989 -0.2933 -0.3742 -0.0991
30828W        W73819   7.660  32.965  23.166 -0.0150 -0.0902  0.2898
30829W        W73820  29.818  18.075   3.961 -0.1057 -0.2331  0.2006
30830W        W73821  20.512  31.615   4.590 -0.2247  0.2371 -0.1138
30831W        W73822   3.916   3.271  21.849  0.0565  0.3647  0.0594
30832W        W73823  21.615  15.811  13.904 -0.0262  0.1385  0.3706
30833W        W73824  29.056  25.738  19.592  0.2149 -0.0446  0.0086
30834W        W73825   2.452  27.884  23.933  0.1514  0.2004 -0.0623
30835W        W73826  26.007  25.308   1.765 -0.1256 -0.0693 -0.1747
30836W        W73827   3.935   3.223   0.611  0.1821  0.0761 -0.0615
30837W        W73828  33.081   3.362  25.359 -0.1748  0.0484 -0.1378
30838W        W73829   2.346  12.209   4.711  0.1591  0.0117  0.1201
30839W        W73830  23.299  24.497   4.306  0.0961  0.2072  0.1749
30840W        W73831  17.519   5.573   5.989  0.1019  0.0469 -0.2742
30841W        W73832  29.461   9.003  23.553 -0.0185  0.2474 -0.0753
30842W        W73833  14.612  28.288  21.211 -0.1868  0.1814  0.2966
30843W        W73834  23.851   2.718   6.470 -0.2240 -0.3034  0.4125
30844W        W73835  26.040  24.193  29.135  0.2818  0.0473 -0.1130
30845W        W73836  28.203  27.994  26.334 -0.0168 -0.2649 -0.0868
30846W        W73837  31.130  19.751  27.489 -0.0252 -0.0938 -0.1429
30847W        W73838   8.486   1.702   1.578 -0.1362  0.0243 -0.2700
30848W        W73839   2.562  14.039  22.013 -0.0376  0.0065  0.0238
30849W        W73840  33.790   6.014   5.447 -0.2527 -0.0456  0.0245
30850W        W73841  23.473  28.945   7.544 -0.0441  0.3001  0.3205
30851W        W73842   3.125   0.241  20.603 -0.0411 -0.1167 -0.1282
30852W        W73843  28.098  21.380   2.223 -0.0763  0.2461 -0.0427
30853W        W73844  32.170  10.922   9.384 -0.1549 -0.0270  0.0274
30854W        W73845  17.272  24.278   1.064  0.0569 -0.0098 -0.1651
30855W        W73846  18.550   2.703   2.458  0.0790 -0.1915 -0.1804
30856W        W73847  33.552  16.492  10.924  0.0248  0.0540 -0.3029
30857W        W73848  20.782  29.834  22.254  0.2309 -0.0855 -0.0698
30858W        W73849  28.736  11.685   0.461 -0.1553  0.2304 -0.0229
30859W        W73850   5.032   1.938   6.102  0.1129  0.0336 -0.0094
30860W        W73851  15.324  28.343   7.121  0.0244 -0.4027 -0.2125
30861W        W73852  18.895  15.424  25.610  0.0441  0.0740 -0.1407
30862W        W73853  29.990  10.598   7.874  0.2332  0.0921  0.1482
30863W        W73854  32.029  16.977  11.453 -0.1212  0.0753 -0.0779
30864W        W73855  27.979   0.571  17.753 -0.1274  0.1834  0.0684
30865W        W73856  19.654  12.061   7.866  0.2586 -0.1152 -0.1540
30866W        W73857  26.970   6.869  17.708 -0.0309 -0.0410  0.0589
30867W        W73858  28.167  25.585  28.802  0.1750  0.2423  0.3678
30868W        W73859  33.143   2.773   8.991 -0.1247  0.0867  0.3977
30869W        W73860   2.168  18.750   1.007 -0.0358 -0.0789 -0.0428
30870W        W73861  25.963  14.887   2.251  0.0133 -0.6008 -0.0950
30871W        W73862  27.694  29.384   0.867  0.1865  0.0021  0.0438
30872W        W73863  22.195   4.504  23.050 -0.1130 -0.0748  0.1941
30873W        W73864  21.591  13.794   3.181 -0.0727  0.1573  0.1436
30874W        W73865  15.304   3.389  27.063 -0.3642 -0.1587  0.0081
30875W        W73866   2.601  32.298  10.004  0.2165  0.1755 -0.0035
30876W        W73867   4.280  32.898  27.188 -0.2969 -0.1544 -0.4003
30877W        W73868  25.276  19.860   3.824  0.0189 -0.0121 -0.2677
30878W        W73869  27.905  15.433  21.396  0.1128  0.0418 -0.0779
30879W        W73870  20.926   4.696  19.812 -0.0174 -0.1419  0.3358
30880W        W73871  23.666   6.083   3.650  0.1879 -0.2519  0.1893
30881W        W73872   9.585  15.832  17.634  0.0509  0.0462  0.0428
30882W        W73873  24.880  11.859   1.748 -0.0182  0.0208 -0.0638
30883W        W73874  27.276  17.869   7.493  0.4220 -0.2520 -0.0266
30884W        W73875   8.228   7.414   7.000  0.3369  0.2903  0.0398
30885W        W73876   2.667  20.836   0.614  0.1786 -0.0537  0.1586
30886W        W73877  26.025  32.618   4.060  0.0279  0.2163 -0.1862
30887W        W73878  24.001  28.255   1.649  0.1875 -0.1055  0.2904
30888W        W73879  32.067  18.617   5.967  0.2885 -0.1013 -0.0196
30889W        W73880  14.207  30.796   2.264  0.2571 -0.0759  0.1136
30890W        W73881  18.602   8.673   6.712 -0.0903 -0.2195  0.0489
30891W        W73882   4.340   8.392  11.624  0.0720 -0.0491  0.1417
30892W        W73883  19.915  25.959  15.826  0.1687  0.0782 -0.2535
30893W        W73884  24.387  12.672  27.392  0.1040  0.1895  0.0015
30894W        W73885   4.960   1.286  11.201  0.0927  0.1341  0.2720
30895W        W73886  14.930   6.501  19.736  0.2894 -0.1197 -0.3690
30896W        W73887  15.621   3.651  28.794 -0.0026 -0.0923  0.0256
30897W        W73888  20.582  22.565  19.369 -0.0361  0.1817  0.3435
30898W        W73889  15.275   4.522  17.713  0.0168 -0.3326 -0.2556
30899W        W73890  21.609   1.446  23.890  0.0994  0.1584  0.1979
30900W        W73891  27.261  17.927  28.444 -0.1630  0.1183  0.0661
30901W        W73892  24.628  34.154   2.009 -0.0156  0.1649 -0.0835
30902W        W73893  32.540   2.957   9.914  0.0712 -0.0089 -0.0470
30903W        W73894  19.440  33.032   7.967 -0.1818 -0.0123 -0.1015
30904W        W73895  10.682  34.426  26.147  0.2053  0.3243 -0.2506
30905W        W73896  15.834  15.811   2.144  0.4995 -0.2401 -0.1294
30906W        W73897  26.441  21.587  25.487 -0.1195 -0.0148 -0.0390
30907W        W73898  19.157   4.389  14.427  0.2706 -0.1425 -0.0779
30908W        W73899  21.554   8.640   0.179  0.1230 -0.0343 -0.2893
30909W        W73900  32.043  14.739  23.451  0.0102 -0.1232  0.1877
30910W        W73901  17.315   7.989   4.365  0.0025 -0.1014 -0.1891
30911W        W73902  11.049  26.754  25.487  0.3719  0.2175  0.0524
30912W        W73903  26.886  31.012  26.827 -0.4479  0.2762 -0.0319
30913W        W73904  21.987  12.485   4.344 -0.0115 -0.1705  0.0529
30914W        W73905  31.183   0.080   2.307  0.1951 -0.3803  0.3451
30915W        W73906  19.059  27.986   9.418  0.0888 -0.0176  0.0618
30916W        W73907  29.646  22.384   1.110  0.2902 -0.3460  0.0381
30917W        W73908  31.610   6.040  13.884  0.1531  0.2527  0.0324
30918W        W73909  26.132   4.716   0.205  0.0551 -0.0177 -0.6557
30919W        W73910  21.872   1.077   7.870  0.0877  0.0271 -0.0266
30920W        W73911  14.527   0.768   5.494  0.8128 -0.0872 -0.2980
30921W        W73912  10.401   3.070  26.434  0.2657  0.2275 -0.1739
30922W        W73913  14.750  12.827  17.996  0.1843  0.0688  0.0525
30923W        W73914  27.002   4.932  28.595  0.4306  0.0917 -0.0945
30924W        W73915  27.326   7.806   6.104  0.0446  0.1173  0.2377
30925W        W73916  25.742  12.641   2.449 -0.0997  0.3143 -0.0733
30926W        W73917  31.357   4.801   6.818 -0.3610  0.1451 -0.1210
30927W        W73918  29.370  12.673   7.531 -0.3803 -0.0223 -0.0855
30928W        W73919  28.945   0.514   6.155 -0.0363 -0.0136  0.0821
30929W        W73920  26.513  24.939   7.967 -0.0355  0.1336  0.2586
30930W        W73921  21.905   2.161  24.828  0.1002 -0.1390  0.2134
30931W        W73922  27.457  11.694  21.371 -0.1357  0.0797 -0.0192
30932W        W73923  14.677   8.422   8.967  0.0724 -0.2055  0.1703
30933W        W73924  11.906  17.284   6.951  0.0013  0.2692  0.0128
30934W        W73925  26.152  24.829   6.215 -0.1785 -0.1803  0.1734
30935W        W73926  10.682  13.491   3.188  0.2645  0.1969 -0.3890
30936W        W73927  28.742   2.034  27.354  0.0147 -0.1140 -0.0855
30937W        W73928  20.886  12.663   2.947  0.1409 -0.0085  0.1902
30938W        W73929  14.522   1.477  29.226 -0.1602  0.1314 -0.0697
30939W        W73930   5.719  15.081  27.317  0.1018  0.3487 -0.4217
30940W        W73931  22.520  34.353  27.389  0.1350  0.3043  0.0239
30941W        W73932  34.659  10.148   6.551  0.0234 -0.1599 -0.0412
30942W        W73933  30.029   2.941   3.556 -0.1645  0.1942  0.3909
30943W        W73934  20.981  28.090  13.895  0.0187  0.1364 -0.1072
30944W        W73935  11.203   4.694   4.867 -0.0966 -0.3283  0.0586
30945W        W73936  17.898  22.522  28.025  0.0161  0.4693 -0.0106
30946W        W73937  32.810  29.338   5.406  0.2934 -0.2004  0.0736
30947W        W73938  27.148   5.681   8.290  0.2951 -0.1033 -0.0329
30948W        W73939  15.133  25.227   8.352  0.1741 -0.0846 -0.1030
30949W        W73940  16.461  26.087   0.219  0.0941 -0.0143 -0.2058
30950W        W73941  17.079   5.256  27.982  0.2892 -0.1709 -0.1958
30951W        W73942  32.727  12.018  28.850 -0.1005  0.0105 -0.0378
30952W        W73943  22.560  27.420   5.289  0.1189  0.0931 -0.0949
30953W        W73944   5.846   4.665  11.136  0.2481  0.0324  0.2641
30954W        W73945  16.177   5.986   1.469 -0.1508 -0.0576  0.1932
30955W        W73946  15.019   1.705   1.936  0.0144 -0.1737 -0.0835
30956W        W73947  33.249   3.513   3.027  0.0661 -0.0222 -0.1225
30957W        W73948  30.120   8.836  26.849 -0.0845 -0.2162  0.0736
30958W        W73949  22.215  12.782   4.725 -0.2052 -0.2508  0.0359
30959W        W73950  30.396   9.286  24.773 -0.0377  0.0243  0.1292
30960W        W73951  14.622   6.545   9.163 -0.1723  0.2176  0.0242
30961W        W73952  28.007   5.514   6.734  0.0507  0.2290 -0.3006
30962W        W73953  21.182  15.923   3.573  0.1467 -0.1898  0.3829
30963W        W73954  19.891  13.493   6.716 -0.3180 -0.0444 -0.3625
30964W        W73955  22.207  12.030  21.016 -0.0249 -0.0445  0.2405
30965W        W73956  34.089   3.717   8.822  0.0665 -0.0409 -0.1273
30966W        W73957  20.066  27.313   4.116  0.1905  0.1940 -0.0786
30967W        W73958  31.056   4.505   8.747 -0.0612 -0.1403 -0.2665
30968W        W73959  14.752   0.813  20.587 -0.3037  0.0735  0.0887
30969W        W73960  17.906  29.407  22.360  0.2007 -0.1793  0.0536
30970W        W73961  15.731  16.809   2.998 -0.2219  0.7537  0.0066
30971W        W73962  15.677  13.237  20.778 -0.0705  0.4073 -0.0871
30972W        W73963  33.532   0.322   5.598  0.1641  0.0742 -0.1955
30973W        W73964  15.276  32.073  26.966 -0.1281 -0.0345 -0.0775
30974W        W73965  14.835  26.399  26.395  0.0730  0.2316 -0.1194
30975W        W73966  30.107   0.980  27.452  0.2465 -0.2479 -0.0285
30976W        W73967  26.555  27.994   3.758  0.1635  0.0627  0.3118
30977W        W73968  24.204  19.169   0.269  0.1660  0.0033  0.2770
30978W        W73969  10.221  10.453   9.695  0.2002  0.2295 -0.0012
30979W        W73970  16.487   5.354   4.916 -0.0596  0.0379  0.2575
30980W        W73971   4.835  10.080  23.108 -0.0647 -0.1844  0.1924
30981W        W73972  18.125  13.768   7.338  0.4213 -0.1261 -0.1370
30982W        W73973  18.714  13.662  13.988  0.1091 -0.3144 -0.0570
30983W        W73974  21.630  12.784   1.048  0.0899 -0.2382  0.2706
30984W        W73975   8.670   2.953   8.721 -0.0527  0.0970 -0.1441
30985W        W73976  29.435   4.342  27.271 -0.1677  0.0973 -0.0863
30986W        W73977   0.243   7.110   8.697  0.1282 -0.0711  0.0909
30987W        W73978  18.832   4.138  24.015 -0.1869  0.1381  0.1512
30988W        W73979   2.018   5.679   1.895  0.1791  0.0831 -0.0461
30989W        W73980  32.506  14.761   9.236  0.0810 -0.2293 -0.2131
30990W        W73981   0.124  32.889  17.577 -0.2463 -0.0602 -0.0013
30991W        W73982  23.402  13.146  28.885  0.1301  0.2924  0.1683
30992W        W73983  21.351  21.593  25.463 -0.2723  0.2295 -0.2376
30993W        W73984  14.438   7.754   5.119  0.2517  0.1744 -0.0255
30994W        W73985  30.725   3.250   5.263  0.3613  0.2407  0.2582
30995W        W73986  11.050  21.024  21.849  0.1903 -0.3022 -0.2418
30996W        W73987  21.369  14.868   1.252  0.4255  0.2118  0.3678
30997W        W73988  15.645  32.099  26.113 -0.2821 -0.0390  0.0441
30998W        W73989  20.485   9.004  13.116 -0.0946  0.1038 -0.0228
30999W        W73990  24.063   7.269   0.960 -0.3189 -0.0154 -0.1249
31000W        W73991  25.538  34.166   0.993 -0.0704 -0.0309  0.0987
31001W        W73992  32.835  15.959   6.138  0.2044  0.1462 -0.0756
31002W        W73993   2.175  29.521  25.360 -0.2619  0.0688 -0.5355
31003W        W73994  17.138   7.243   8.572 -0.0863  0.0444  0.1168
31004W        W73995   5.592   2.998  10.599 -0.1590 -0.3223 -0.2969
31005W        W73996  26.956   1.034   8.498 -0.1191  0.1863  0.0816
31006W        W73997  23.728  27.906   1.275  0.0865  0.0768  0.0493
31007W        W73998  17.003  21.028  22.926 -0.0321  0.1495 -0.1374
31008W        W73999  26.294   0.823   0.291 -0.1777  0.2707 -0.0373
31009W        W74000  32.756   9.008   7.481 -0.0030  0.0165  0.1299
31010W        W74001   3.799  29.856  25.735  0.0832 -0.0861 -0.0167
31011W        W74002  19.947  14.002   7.639 -0.2528 -0.1305 -0.2470
31012W        W74003  20.492  23.489  28.470  0.0317 -0.1954  0.1489
31013W        W74004  18.825   1.890   3.677 -0.2430 -0.0878  0.4152
31014W        W74005  31.306  25.114   6.640  0.4041 -0.0889 -0.2057
31015W        W74006  22.478   6.036   4.437  0.0641 -0.0609  0.1570
31016W        W74007  13.548   0.130   3.967 -0.2142  0.1416 -0.1964
31017W        W74008   6.949   4.835  10.250  0.1676 -0.0452 -0.1003
31018W        W74009  28.435  20.025  25.939  0.1306 -0.2240 -0.2113
31019W        W74010   3.821   6.555   0.223  0.4213 -0.0581 -0.1017
31020W        W74011  33.830   4.596   6.383 -0.0685 -0.0578 -0.2006
31021W        W74012  30.549  31.835   5.231 -0.0584  0.0244 -0.1664
31022W        W74013  34.563  11.712   8.594  0.0806  0.1122 -0.1310
31023W        W74014  14.002  31.499   3.529  0.0437  0.0616 -0.2170
31024W        W74015  17.374  24.733   7.139 -0.1108 -0.2762  0.0058
31025W        W74016  16.907   3.832   9.693 -0.4927  0.1517  0.0372
31026W        W74017  27.582  15.690   2.758  0.0148  0.0637  0.1963
31027W        W74018  21.917   2.303  28.385 -0.1427 -0.2208 -0.3769
31028W        W74019  34.699  29.498  21.208  0.1701 -0.0316 -0.1852
31029W        W74020  17.844  26.234   2.517  0.2654  0.0428  0.1200
31030W        W74021   0.117   6.705   0.947 -0.0445  0.0707  0.0535
31031W        W74022  28.850   1.979   5.000  0.3085 -0.1008 -0.0525
31032W        W74023  26.054  19.019  29.226 -0.0208  0.2755 -0.1933
31033W        W74024  24.021  31.061   0.492 -0.0563 -0.2677 -0.1511
31034W        W74025  16.381  32.388   5.010  0.0588  0.1081 -0.0735
31035W        W74026  21.799  17.861  22.666  0.1212 -0.0649 -0.1757
31036W        W74027   2.382   5.966   7.405  0.0293 -0.0927 -0.0458
31037W        W74028  25.010   2.649  21.965 -0.2934 -0.0783 -0.2001
31038W        W74029  23.011  21.646  22.234 -0.0286  0.1262  0.2749
31039W        W74030  31.611   1.102   0.214 -0.3318 -0.0234  0.4415
31040W        W74031  18.979  12.165  25.895 -0.1018  0.1216  0.4659
31041W        W74032  18.506  10.596   2.226 -0.1346 -0.1694  0.2379
31042W        W74033  31.031  13.531   8.530  0.0385 -0.2003  0.1537
31043W        W74034   8.677   5.381  26.481  0.0138  0.2308  0.0113
31044W        W74035  17.589   0.578  21.063  0.0871 -0.2445 -0.0762
31045W        W74036  26.015  18.346  24.964 -0.1889 -0.3761 -0.0577
31046W        W74037  22.693  22.110  24.869 -0.0921 -0.0645  0.0414
31047W        W74038  28.248   8.787   8.541  0.0442  0.0089 -0.1966
31048W        W74039  24.673  34.031  25.141  0.1575  0.1999  0.0992
31049W        W74040  23.150   9.881  24.748  0.1339 -0.0429  0.2751
31050W        W74041   5.334   4.942   5.074  0.3092  0.1127 -0.1654
31051W        W74042  19.697  26.414  24.739  0.1416  0.0387 -0.2315
31052W        W74043  18.271  24.082   9.035  0.0424  0.0685 -0.3212
31053W        W74044  22.388  17.579  28.434 -0.5847 -0.3328  0.0844
31054W        W74045  29.723  22.072   7.242 -0.1190 -0.1236 -0.0236
31055W        W74046  17.889  14.942  25.605 -0.0137 -0.1190 -0.1911
31056W        W74047   6.152   5.246  10.458 -0.1304 -0.0319 -0.0431
31057W        W74048   5.101  31.501   9.032  0.0808  0.0814  0.1658
31058W        W74049  17.471   9.017   7.137 -0.0172  0.0091 -0.2752
31059W        W74050  16.291  18.581   0.057 -0.4384 -0.2109  0.0760
31060W        W74051  22.746   3.104   7.719 -0.0963 -0.3764  0.1273
31061W        W74052   0.535   9.354  22.453 -0.0338  0.1279 -0.0902
31062W        W74053  24.369  20.733  16.237  0.4938  0.1345 -0.1008
31063W        W74054  31.728   5.802  25.411 -0.2129  0.2041 -0.2002
31064W        W74055  23.833  25.130  17.587 -0.0027  0.1448 -0.1698
31065W        W74056  26.709   8.316  26.544  0.0496  0.1597 -0.1519
31066W        W74057  28.827  14.972   0.526 -0.3660 -0.0787 -0.0324
31067W        W74058  20.050  16.654  27.739 -0.1453  0.3762 -0.2452
31068W        W74059   3.095  33.998   9.296 -0.1386  0.1963  0.0118
31069W        W74060  22.089  30.960   2.344 -0.1077  0.0643  0.1522
31070W        W74061  28.326   6.606   9.690 -0.3299  0.1133  0.3598
31071W        W74062  24.782  14.350  21.996 -0.1702  0.1919 -0.0649
31072W        W74063  28.083  31.299   6.641  0.0878  0.0459 -0.0016
31073W        W74064  25.866  26.076   8.190  0.0611 -0.2386  0.0257
31074W        W74065  22.442  12.486  27.641  0.1213 -0.0571 -0.0294
31075W        W74066  10.466   2.294   6.812 -0.2122  0.3850 -0.0002
31076W        W74067  28.790  33.397  18.757 -0.3799 -0.0318  0.3627
31077W        W74068  27.727  13.982  17.123 -0.3066  0.3199 -0.1965
31078W        W74069  23.435  18.980   5.545  0.0155  0.0530 -0.0241
31079W        W74070  22.660   3.146  28.650 -0.0657 -0.2955  0.1546
31080W        W74071  22.807  12.714   7.335  0.1842 -0.1252 -0.2117
31081W        W74072   0.405   0.414   9.083  0.1255  0.2767 -0.0370
31082W        W74073  20.925  30.336   3.075  0.2463  0.3311 -0.0458
31083W        W74074  33.441   7.658   9.613 -0.0967  0.2501  0.3408
31084W        W74075  29.615   7.792   0.224  0.1218 -0.0142 -0.1598
31085W        W74076  33.017  10.829  22.795  0.0609  0.3239 -0.0438
31086W        W74077  28.813  28.515   4.887  0.1226  0.2028 -0.1616
31087W        W74078  21.951  15.598   5.666 -0.1642  0.0766  0.0253
31088W        W74079  13.740  16.651   6.668  0.3179 -0.0627 -0.1478
31089W        W74080  19.412  11.712  25.352  0.2663  0.0394  0.0664
31090W        W74081  21.955  12.505  20.702 -0.3834 -0.0188 -0.2209
31091W        W74082  31.483  33.094  25.949 -0.0224  0.1796 -0.0886
31092W        W74083  31.618  21.478   3.297 -0.1767  0.2816  0.0528
31093W        W74084  28.734  29.500   6.164 -0.2236 -0.2233 -0.0362
31094W        W74085  24.899  15.007   6.168  0.1690  0.0946 -0.1444
31095W        W74086  22.458   3.618  26.706 -0.2210 -0.1802 -0.0898
31096W        W74087  32.785   2.294  18.238 -0.0607 -0.0838  0.1294
31097W        W74088   4.653   8.045  28.082 -0.1189 -0.2312 -0.0490
31098W        W74089   0.975   1.070   6.935 -0.1408  0.1241  0.2954
31099W        W74090   8.573   9.752   5.523 -0.2605 -0.5642 -0.0016
31100W        W74091   8.058  11.174   6.694  0.1495  0.2128 -0.0328
31101W        W74092  23.192   2.069  24.907  0.0803 -0.1568  0.1268
31102W        W74093  25.727  11.468  28.076 -0.0944 -0.0051 -0.0355
31103W        W74094  28.235   5.290   8.900 -0.0136  0.1197 -0.0418
31104W        W74095  33.748   2.970   8.784  0.1451  0.1601  0.0907
31105W        W74096   5.752  10.403  29.016  0.0398  0.0002  0.0825
31106W        W74097  34.689  24.452   5.356  0.0923  0.1592 -0.2558
31107W        W74098  18.136   4.500   5.744 -0.2176 -0.0477  0.0444
31108W        W74099  15.325  13.769   5.993  0.3567 -0.2550 -0.1946
31109W        W74100  21.212   6.776  26.469  0.1409 -0.1666  0.4453
31110W        W74101  14.898   7.171  10.559  0.0854  0.2689  0.0103
31111W        W74102  14.135   2.692  10.621  0.0096  0.1938 -0.1944
31112W        W74103  25.551  20.109   1.364  0.0140  0.0109  0.0004
31113W        W74104  19.325  19.685  25.348  0.0681 -0.2312 -0.1859
31114W        W74105  13.875  33.085  29.240 -0.1886  0.0200  0.1297
31115W        W74106  29.581   1.536   5.610  0.0323  0.0854  0.3463
31116W        W74107  30.348   4.821  21.759  0.1270  0.2591  0.0337
31117W        W74108   6.395   2.891  21.760 -0.1065  0.0668 -0.0034
31118W        W74109  29.544  17.608  24.048 -0.0806 -0.0139  0.1276
31119W        W74110   5.694  17.928  23.059 -0.0698  0.1831 -0.1494
31120W        W74111  34.137  10.188   0.777  0.0941  0.2637 -0.0594
31121W        W74112  13.233  26.083   3.395 -0.1672  0.0129  0.0121
31122W        W74113  22.783  14.029   2.333 -0.0710  0.1507 -0.0665
31123W        W74114  34.592  33.444  23.733  0.1578 -0.1022 -0.1637
31124W        W74115   3.327  13.785   7.927 -0.2260  0.0897 -0.2392
31125W        W74116   1.183   8.805  16.102 -0.3452 -0.2602 -0.1041
31126W        W74117  26.654   1.345  18.212  0.1430  0.1456 -0.1769
31127W        W74118   0.667   5.855   3.377 -0.1056 -0.2143  0.3848
31128W        W74119   8.161   4.479  25.045  0.0217  0.0081 -0.2364
31129W        W74120  19.516  12.353   2.431 -0.0256  0.0164  0.0116
31130W        W74121  18.358   9.409  25.928 -0.3159  0.1826  0.0612
31131W        W74122  17.153  25.936   7.817 -0.0750 -0.1981  0.1958
31132W        W74123  28.085  18.126   1.222 -0.2995  0.0188  0.0950
31133W        W74124  22.511   2.648   1.735 -0.0842 -0.0912  0.2517
31134W        W74125  27.076  19.226  28.035 -0.0931  0.1541 -0.0089
31135W        W74126   7.267   5.613   4.221 -0.1361  0.2887 -0.0437
31136W        W74127  10.115  22.355   6.176 -0.0959 -0.3529 -0.0305
31137W        W74128   6.632  18.916  22.884  0.1092  0.0162  0.0321
31138W        W74129  21.585  24.237   4.564 -0.3759  0.0101  0.0205
31139W        W74130  18.021  25.751   2.388  0.0295 -0.1309  0.2496
31140W        W74131  31.877   1.869   6.455 -0.1943  0.2033 -0.0295
31141W        W74132  23.517  30.783   5.936  0.1018 -0.2369  0.3726
31142W        W74133  12.850   5.985   0.022  0.1091 -0.0105 -0.0200
31143W        W74134  30.692  19.427   4.716  0.2569  0.3290 -0.1850
31144W        W74135  25.447   8.137  21.660  0.1055  0.2695 -0.1129
31145W        W74136  17.908  19.530  25.530 -0.2677  0.0936  0.3586
31146W        W74137  19.002   3.987   4.180 -0.1267  0.0450  0.0031
31147W        W74138  21.791  33.467  24.465 -0.1711 -0.0573 -0.1933
31148W        W74139  32.102  34.788  29.236  0.0156  0.1303 -0.3600
31149W        W74140  34.073   1.474   7.378  0.0837  0.0017 -0.0498
31150W        W74141  31.874  27.477  29.191  0.1984 -0.0378 -0.0568
31151W        W74142   5.416   5.742  23.595  0.1676  0.0760  0.2440
31152W        W74143   1.709   6.655   3.489  0.1701 -0.1955 -0.1429
31153W        W74144  17.755  12.382  16.946 -0.1565  0.0056 -0.1817
31154W        W74145  29.256  34.463   6.511  0.1580  0.3957 -0.2293
31155W        W74146  26.445   5.855   8.048 -0.1347  0.2381  0.0150
31156W        W74147  17.152   8.503   5.628 -0.0899  0.2867  0.1567
31157W        W74148  13.093  18.463   2.732 -0.2168 -0.0728 -0.0832
31158W        W74149  23.918  25.507   6.530 -0.0874 -0.1673  0.0289
31159W        W74150   1.307  10.096  16.875  0.4230  0.0030 -0.0606
31160W        W74151   1.153   9.891   4.112 -0.1390  0.0720 -0.0372
31161W        W74152  21.841  21.203   7.158 -0.0715  0.2135 -0.1261
31162W        W74153  19.221   3.625   1.641  0.1704 -0.0555  0.2209
31163W        W74154  25.433  25.889   7.367  0.1062  0.1263 -0.1520
31164W        W74155  22.320   8.501   3.188 -0.0070  0.0898  0.1523
31165W        W74156  22.945  31.478   2.180 -0.0247  0.0568 -0.2436
31166W        W74157  17.467  14.287  18.288 -0.0803 -0.0853  0.0273
31167W        W74158  11.517  18.332  28.957 -0.0421 -0.2789 -0.1186
31168W        W74159  33.510   4.435  20.704 -0.1112 -0.1108 -0.0010
31169W        W74160  24.930   9.062   3.945  0.1982  0.2348  0.1421
31170W        W74161  19.547   2.429   9.601  0.0343  0.0265 -0.0624
31171W        W74162  34.761  16.300   4.121 -0.1161  0.1648  0.0026
31172W        W74163  22.137   4.477  29.109 -0.0020 -0.1630 -0.3982
31173W        W74164   5.823   0.415   9.201 -0.3344 -0.2329  0.0488
31174W        W74165  24.396   2.991  13.360  0.2108  0.0955 -0.1789
31175W        W74166  17.012   0.883   0.381  0.4179  0.0695 -0.2573
31176W        W74167  28.098  29.610  18.800 -0.1363  0.4362 -0.1274
31177W        W74168  23.959  30.903  21.302 -0.2200  0.0630 -0.2333
31178W        W74169  27.263  13.726  25.605 -0.0005 -0.1963  0.1891
31179W        W74170   2.911  20.022   4.629 -0.1270 -0.0614 -0.0742
31180W        W74171  28.895   8.412   4.865 -0.0408 -0.1265 -0.0455
31181W        W74172  25.416   0.895   7.145 -0.0212  0.0857  0.3647
31182W        W74173  18.894  31.915  21.560  0.1655 -0.1136 -0.1664
31183W        W74174  31.072   9.311   1.528 -0.1319 -0.0382 -0.1530
31184W        W74175   5.280  11.817   1.081 -0.0179  0.1884 -0.0833
31185W        W74176  19.406  20.370   4.114 -0.1757  0.1126  0.3683
31186W        W74177   0.282  26.967  22.915  0.0648  0.1071 -0.2055
31187W        W74178  11.181  30.099  28.626 -0.1585  0.0621  0.0417
31188W        W74179  28.319  17.244  25.181 -0.0573  0.2289 -0.1563
31189W        W74180   1.245   5.584   5.353  0.4880 -0.1755 -0.0818
31190W        W74181  19.550  29.503  28.836 -0.2712  0.0432  0.1206
31191W        W74182   6.652  12.667   7.929 -0.1078 -0.0678  0.0373
31192W        W74183  13.432  23.107  23.991  0.0739 -0.0949  0.0984
31193W        W74184  19.343  24.926  25.138 -0.2812 -0.0499  0.0023
31194W        W74185  17.074  31.144   9.410  0.2350 -0.3595 -0.1646
31195W        W74186   1.718   3.408  25.989  0.2531  0.1954  0.0701
31196W        W74187  22.409  34.300  25.906  0.2570 -0.0473  0.1717
31197W        W74188   8.626  11.948   9.456 -0.2490  0.4328  0.3527
31198W        W74189  30.886  13.007  26.416 -0.0150  0.2522 -0.1184
31199W        W74190  14.424  32.140   0.543 -0.0381 -0.2335  0.1368
31200W        W74191  28.395  30.983  17.438 -0.2214  0.0653  0.4413
31201W        W74192   2.666  25.179   3.959 -0.0647  0.0596 -0.0090
31202W        W74193  13.605   2.087   8.452  0.0208  0.0635 -0.1232
31203W        W74194  18.404   8.134   2.411  0.1010 -0.0996 -0.0804
31204W        W74195  20.092  28.879   3.577  0.1691 -0.3566 -0.1378
31205W        W74196  24.880   7.779   2.310 -0.0429  0.1026 -0.1200
31206W        W74197  30.817  23.417   2.446  0.2842  0.1616  0.1062
31207W        W74198   0.343  34.095   1.231  0.0558 -0.2292  0.0474
31208W        W74199   4.804  25.770   8.509  0.3593  0.2059  0.1834
31209W        W74200   8.317   0.779   4.752  0.1406  0.2170  0.0782
31210W        W74201  29.875  34.370   6.763  0.1509  0.4349 -0.0008
31211W        W74202  16.858  14.145   5.742 -0.1895  0.1768 -0.0995
31212W        W74203  20.997   6.688   6.107 -0.0207 -0.4208 -0.0241
31213W        W74204  33.818   4.790   3.387 -0.1754 -0.1710 -0.2231
31214W        W74205   0.845  19.574  23.435 -0.0936 -0.1595  0.4000
31215W        W74206  26.338  12.696   8.412 -0.0879  0.0061  0.2506
31216W        W74207   9.065   3.486   5.404  0.0929  0.1619 -0.1663
31217W        W74208  24.828  19.610   6.823  0.0643 -0.3082  0.0254
31218W        W74209  21.980  16.243   2.612  0.0306  0.2813 -0.2705
31219W        W74210  34.291  24.806   6.953  0.0441  0.3425 -0.0534
31220W        W74211  14.904  27.475   4.904  0.1198 -0.2167 -0.1860
31221W        W74212  26.422  11.590  25.894  0.2166 -0.0204  0.1184
31222W        W74213  18.955   8.389  20.121  0.1445  0.0613 -0.1888
31223W        W74214  30.852   7.408  16.197  0.0756  0.1069  0.1668
31224W        W74215  21.912  15.924  28.886  0.3275  0.2115 -0.3497
31225W        W74216   2.865  12.947  28.702  0.0786 -0.2466  0.1335
31226W        W74217  19.776  26.423   8.687  0.1566 -0.2428  0.1785
31227W        W74218  18.916  13.862  20.696 -0.2101  0.2061  0.1094
31228W        W74219  29.958  14.470  26.829 -0.0754  0.2146  0.3368
31229W        W74220   7.356  12.218  18.961  0.1611 -0.3503  0.1512
31230W        W74221  20.120   7.205   4.631 -0.3465  0.2781 -0.1503
31231W        W74222  32.652  26.311   6.386  0.1114 -0.0404 -0.0484
31232W        W74223  20.278   1.033   0.280  0.1481  0.1364 -0.0098
31233W        W74224  31.120   1.990  27.885  0.3348 -0.2614  0.2698
31234W        W74225  31.792  18.746   7.557 -0.2902  0.0303  0.3003
31235W        W74226  24.951  22.206   4.338  0.0784 -0.2471  0.0250
31236W        W74227  17.056   4.458   7.823 -0.2131  0.1906  0.2721
31237W        W74228  21.258   7.235   8.671 -0.1136  0.0539 -0.0170
31238W        W74229  17.299  13.725   4.852 -0.2971  0.2017  0.0764
31239W        W74230  28.312   7.107  25.632 -0.2092 -0.1746  0.0406
31240W        W74231  29.979  14.044   8.893 -0.1049 -0.1220 -0.0807
31241W        W74232  28.979   1.926  17.759 -0.0268 -0.1326  0.0891
31242W        W74233   3.082  27.470   5.665 -0.1017 -0.0202 -0.1429
31243W        W74234  13.799  10.498  11.017  0.1593  0.3753  0.1539
31244W        W74235  20.012  14.700   0.256 -0.2885 -0.0184  0.2550
31245W        W74236  11.335  14.143   6.002 -0.3661 -0.1095  0.2883
31246W        W74237   6.140  12.858   7.830  0.1221 -0.1470 -0.0145
31247W        W74238  22.216  29.325   7.595  0.0836 -0.2694  0.1032
31248W        W74239  27.359  30.288  13.066 -0.0694 -0.2728  0.2034
31249W        W74240  11.737   5.491   7.654  0.1292  0.0941  0.2495
31250W        W74241  32.816   7.924  27.840  0.0038 -0.2554  0.3101
31251W        W74242  33.705  14.295   0.230  0.0793  0.0369  0.0135
31252W        W74243  24.989  32.294   4.265  0.1428  0.2176  0.2577
31253W        W74244  30.603  12.916  28.995  0.2039  0.1629 -0.1842
31254W        W74245  29.795  30.319   3.365 -0.2106 -0.4572 -0.0431
31255W        W74246  25.558   9.931  22.978  0.1593  0.0673  0.0587
31256W        W74247  30.374  16.209   6.379  0.2430  0.0617  0.1476
31257W        W74248  28.683  17.043  18.467  0.0165 -0.0259  0.0680
31258W        W74249   0.037   1.136   8.102 -0.2581 -0.0126 -0.1403
31259W        W74250  27.614   1.351   4.045 -0.0409 -0.0788  0.0355
31260W        W74251   9.572  28.266   4.766 -0.2115  0.2565  0.0395
31261W        W74252  30.047   8.585   8.932  0.1860 -0.0868 -0.1239
31262W        W74253  20.933  23.406   8.636  0.3237 -0.1480  0.0566
31263W        W74254   9.453  18.589   3.873 -0.0625  0.0384 -0.0407
31264W        W74255  25.487  15.237   0.771  0.0868  0.0366  0.1097
31265W        W74256  16.091   5.391  26.178  0.0136 -0.1902  0.4143
31266W        W74257  19.800  18.898   5.538  0.0041 -0.1324 -0.1592
31267W        W74258  23.816   2.612   8.843 -0.2768 -0.1270 -0.1650
31268W        W74259  18.730  28.993  22.562  0.0033 -0.0295 -0.1955
31269W        W74260  30.243  31.464   6.690 -0.0172  0.0336 -0.0015
31270W        W74261  18.995   9.117   7.799 -0.0406  0.0636 -0.0625
31271W        W74262   6.979  32.822   1.096  0.1973  0.1642  0.0615
31272W        W74263  14.768  25.773  18.191 -0.1983  0.4434  0.0735
31273W        W74264  30.051   8.530  19.275  0.0312 -0.0526 -0.0837
31274W        W74265  30.697  33.550  28.877 -0.0113  0.2751  0.0811
31275W        W74266  16.085   5.870  29.069 -0.1312  0.0818  0.1435
31276W        W74267  34.727  12.981   9.592  0.1849  0.0623 -0.1890
31277W        W74268  29.074   3.157   6.633 -0.1077  0.0057  0.1500
31278W        W74269  32.184  34.770   4.606 -0.0701  0.2221 -0.0436
31279W        W74270  34.571   4.731  10.474 -0.0332 -0.2813 -0.0551
31280W        W74271  25.584  10.917  17.055  0.0151  0.0407 -0.1910
31281W        W74272  24.179  22.555  27.625 -0.2094  0.0995  0.0752
31282W        W74273  22.628  27.516  25.615 -0.1909 -0.0597 -0.0333
31283W        W74274  15.026  12.732   8.937  0.3320 -0.2029 -0.0130
31284W        W74275  13.145  12.122  25.232 -0.1570  0.3357  0.1017
31285W        W74276  32.853   6.947   8.549 -0.4192 -0.3332  0.1388
31286W        W74277   0.370  12.729   5.786  0.0104  0.2492 -0.1154
31287W        W74278  28.078  33.510   6.617  0.1454  0.0823 -0.1836
31288W        W74279  26.759   6.103  25.607 -0.3939  0.1367  0.2005
31289W        W74280  10.981  21.045   8.347 -0.1055 -0.1209  0.2136
31290W        W74281  19.915  22.475   3.068 -0.2732  0.0191 -0.3069
31291W        W74282  11.101  11.606   0.039 -0.0371 -0.0198  0.1790
31292W        W74283  25.231  30.797   5.896  0.0796 -0.0967  0.0392
31293W        W74284  33.530   2.881  28.244 -0.1344 -0.0584  0.5540
31294W        W74285  28.520   7.523   6.427  0.0139  0.1593  0.3505
31295W        W74286  29.945  30.972  16.045 -0.2509 -0.3310 -0.3496
31296W        W74287  32.271  16.821   6.332 -0.1588 -0.2188 -0.0397
31297W        W74288   6.371  33.638   1.023 -0.1441  0.0376  0.3866
31298W        W74289   8.358   0.618   7.070  0.0998 -0.0094 -0.2751
31299W        W74290  32.747  10.128  29.147  0.1771  0.0498  0.0153
31300W        W74291  34.633   3.612   5.699  0.2428 -0.1905  0.2594
31301W        W74292  23.822  28.068   7.193 -0.0239 -0.1407  0.0204
31302W        W74293  17.315  11.133   2.566  0.1070 -0.0135 -0.0150
31303W        W74294  28.560  15.126   4.609 -0.0722  0.2436 -0.2248
31304W        W74295  27.759  20.615  23.891 -0.1271  0.1130 -0.0821
31305W        W74296  17.095  26.001   2.405  0.0170 -0.1390  0.0580
31306W        W74297  11.500   9.965  22.361  0.1806 -0.1980  0.3061
31307W        W74298   4.787  21.621  26.213 -0.0021  0.0127 -0.0230
31308W        W74299  18.371  23.684   2.967  0.0515 -0.1142 -0.1495
31309W        W74300  34.186  10.245   0.004 -0.0124  0.1710  0.0540
31310W        W74301  22.716  25.648   5.286  0.0013 -0.2124  0.1007
31311W        W74302  21.279   7.597  21.273 -0.4680 -0.2259 -0.2318
31312W        W74303   3.922   1.819  25.124  0.0043 -0.0885  0.0283
31313W        W74304   5.443   1.145   6.258  0.0935 -0.0717  0.0401
31314W        W74305  24.100   3.572  18.233 -0.2016  0.1539 -0.0870
31315W        W74306  18.549  32.288  19.799 -0.1706  0.3398 -0.0841
31316W        W74307   5.062  29.077   0.567 -0.0408  0.1461  0.2164
31317W        W74308  32.388  11.111   2.205  0.1132  0.3124  0.1474
31318W        W74309  13.862   1.019   3.806  0.0060  0.0078 -0.0033
31319W        W74310   7.930   3.282   8.974  0.2216  0.1159 -0.3480
31320W        W74311   0.747  10.416  24.255  0.0884 -0.5025 -0.1935
31321W        W74312  24.895  16.137   8.083 -0.0208  0.0751 -0.1871
31322W        W74313  31.444  14.959  21.834  0.0138  0.0256 -0.0698
31323W        W74314  29.983  32.307   5.601  0.0894 -0.1964 -0.3049
31324W        W74315   7.221  29.656   2.952 -0.0835 -0.2450  0.2806
31325W        W74316  28.566  34.475  28.348  0.1142  0.2710 -0.2115
31326W        W74317  29.592   8.648   5.760 -0.0452  0.0755 -0.1079
31327W        W74318  29.121  13.074  23.025 -0.4072 -0.0719 -0.1498
31328W        W74319  23.867   7.731   2.442 -0.1792 -0.0572  0.3204
31329W        W74320  19.414   4.474   2.974 -0.2088  0.0453 -0.0065
31330W        W74321  17.266  21.306   4.711  0.2324  0.1664  0.1492
31331W        W74322  31.656  23.852   2.149 -0.1864  0.0537  0.1709
31332W        W74323  18.765  15.510  27.200  0.1371  0.0586 -0.2540
31333W        W74324  19.938   8.221   6.990  0.0881  0.0677 -0.1882
31334W        W74325  21.967   4.654   9.158 -0.1239 -0.2669  0.2204
31335W        W74326   1.622  33.312   4.476 -0.1650 -0.3793 -0.2209
31336W        W74327  13.127   9.697   9.438  0.1845 -0.0345  0.0056
31337W        W74328  19.518  19.613   8.338 -0.1848  0.0715  0.0486
31338W        W74329  21.946  22.439  28.033  0.1543 -0.1116 -0.1298
31339W        W74330  30.074  14.058   7.509 -0.3760 -0.3669  0.1934
31340W        W74331  29.242  30.326  28.345 -0.0765 -0.0529  0.3319
31341W        W74332   1.970  14.913   9.459 -0.1288 -0.0899  0.0390
31342W        W74333   4.328  12.344   8.374  0.2469 -0.0648 -0.0914
31343W        W74334   9.558  12.313   4.089 -0.0386  0.1084 -0.0884
31344W        W74335  10.259   2.446   9.673 -0.0970  0.0060  0.1229
31345W        W74336  28.331   1.314   1.491  0.0694  0.1146 -0.0176
31346W        W74337   4.472  24.679  21.740  0.0289  0.2054  0.0570
31347W        W74338   1.311  10.444   7.486 -0.2261  0.1814 -0.1015
31348W        W74339  22.281  12.299   2.680  0.1845 -0.2179 -0.2024
31349W        W74340  19.484   6.848   0.687  0.0746  0.2763  0.3479
31350W        W74341  30.764   5.562  10.378 -0.1078 -0.1501 -0.3655
31351W        W74342   9.457  31.058   1.165  0.3919  0.1075  0.1475
31352W        W74343  30.941   6.039  29.101  0.2423  0.0114  0.3487
31353W        W74344   5.008   0.252   8.929 -0.1842  0.1317 -0.1792
31354W        W74345   4.033   0.706  27.809  0.2366  0.0616 -0.1134
31355W        W74346  23.990   7.565   5.907  0.1651  0.3664 -0.0629
31356W        W74347  14.040  34.601  23.392 -0.1342 -0.0755  0.0856
31357W        W74348  10.480   6.451   5.520  0.3096  0.1261 -0.0970
31358W        W74349  24.936  30.252   3.778  0.1759  0.2402 -0.0665
31359W        W74350  17.235  34.041  23.126 -0.1837 -0.0307 -0.1315
31360W        W74351  28.392  30.853   6.754  0.0526 -0.0475  0.0610
31361W        W74352  22.544  30.717  28.208 -0.1645  0.2245  0.2034
31362W        W74353  28.233   0.138   4.430  0.2791 -0.2760  0.0215
31363W        W74354  16.975  25.036  23.744 -0.0752  0.0572 -0.0625
31364W        W74355  16.707  21.024   7.007 -0.1710  0.3189  0.1996
31365W        W74356   9.379  19.210   0.442  0.2149 -0.3515 -0.4382
31366W        W74357  22.930   8.858   9.763 -0.1184 -0.0754 -0.0464
31367W        W74358  25.068  31.771  13.785  0.4239  0.0690 -0.0719
31368W        W74359  31.070   6.793   4.976 -0.1915 -0.1761 -0.1744
31369W        W74360  19.870   3.573   7.902  0.0606 -0.1431  0.1084
31370W        W74361  10.477  22.462   0.431  0.1039 -0.0330  0.0779
31371W        W74362   4.358   3.574   9.960  0.1467  0.2070  0.3674
31372W        W74363  21.354   4.428  28.627  0.0586 -0.0705  0.2176
31373W        W74364   4.045   0.438   6.599 -0.0526  0.0437 -0.0222
31374W        W74365  32.160   2.595  28.124  0.1743 -0.1881  0.0785
31375W        W74366  19.817   5.008   5.380  0.1258 -0.0532  0.1809
31376W        W74367  20.569  13.581  23.845 -0.2248 -0.0840  0.0923
31377W        W74368  22.359  10.457   0.911 -0.2017 -0.0588  0.1356
31378W        W74369  22.735  26.948   2.591  0.1578 -0.2416  0.3276
31379W        W74370  19.155   1.603  24.643  0.0076  0.0051  0.2120
31380W        W74371  20.089  25.953   8.702  0.2286  0.1552  0.1438
31381W        W74372   2.809   2.789   0.166 -0.0323  0.2219  0.1050
31382W        W74373  21.423  30.129  24.801 -0.2810  0.0480 -0.2950
31383W        W74374   7.697   2.903   0.547 -0.2061  0.0052  0.1706
31384W        W74375  25.164  21.414  27.710 -0.0254 -0.0984  0.2082
31385W        W74376  15.623  31.735   9.179  0.4096  0.1109  0.2026
31386W        W74377  29.066  11.432   5.408 -0.1323  0.0363 -0.1945
31387W        W74378   3.065   0.222   9.236  0.0292 -0.3807 -0.4114
31388W        W74379   6.321  33.591   4.362 -0.1373  0.0943 -0.0327
31389W        W74380   5.943  12.157  18.224 -0.0048 -0.1187  0.2295
31390W        W74381  26.464  29.794  28.360  0.0288 -0.0784  0.2160
31391W        W74382  23.374  32.871   9.598 -0.3272 -0.1396 -0.0037
31392W        W74383  23.084  31.576  22.290 -0.2329 -0.0360 -0.3451
31393W        W74384  28.797   7.209  25.751 -0.0602 -0.2598  0.3900
31394W        W74385  30.968  13.428  28.944  0.0180 -0.3254  0.2645
31395W        W74386  20.304  10.215   4.269 -0.1264 -0.3240  0.0418
31396W        W74387  20.735   8.289   4.118  0.0652 -0.0878 -0.1393
31397W        W74388  22.338  27.422  22.218  0.1145 -0.0279  0.2791
31398W        W74389   6.061   2.283   4.889  0.1372 -0.1350 -0.1413
31399W        W74390  29.933  18.614   8.267 -0.1405 -0.1630  0.0457
31400W        W74391  26.462   1.950  29.076  0.1284 -0.2457 -0.3764
31401W        W74392  20.368  32.423   8.409  0.3068 -0.0769 -0.2398
31402W        W74393   3.973   2.037   3.617  0.2012 -0.3933  0.0469
31403W        W74394  27.500  12.826  10.539 -0.3164 -0.1157 -0.1136
31404W        W74395  33.141  24.184   2.154  0.0756  0.1257 -0.1833
31405W        W74396  17.099   9.589  29.114  0.3221  0.1237 -0.0273
31406W        W74397  26.002  20.975  23.590  0.3077 -0.1714 -0.0412
31407W        W74398  29.281   9.469  24.941 -0.1875  0.1264 -0.2224
31408W        W74399  22.762   0.243  21.354  0.1059 -0.1323 -0.2679
31409W        W74400   4.383  14.491   0.093 -0.2405 -0.3216 -0.3416
31410W        W74401  25.938  26.315   1.359  0.2801  0.1431  0.2414
31411W        W74402  28.166  15.697   5.663 -0.0227 -0.2199  0.0566
31412W        W74403  14.256  23.569  24.554 -0.1362 -0.3514 -0.0001
31413W        W74404   1.672  27.033  21.340 -0.4282 -0.0034  0.1482
31414W        W74405  19.981  19.719   6.231  0.1395  0.1833 -0.0948
31415W        W74406  21.647   4.990   9.002 -0.2408  0.3950 -0.2018
31416W        W74407  17.211  34.171   5.492  0.3257  0.2768  0.0137
31417W        W74408  31.823   3.074   2.723 -0.0700 -0.0123 -0.5512
31418W        W74409   3.437  12.776  10.217  0.0560  0.1817  0.0238
31419W        W74410  20.044  11.647  26.636 -0.2846  0.2946 -0.2282
31420W        W74411  30.723   0.871   5.734 -0.1186  0.0036 -0.0859
31421W        W74412  30.577  27.948   6.041 -0.1699 -0.0801  0.1286
31422W        W74413   3.005   9.215   4.294 -0.0653 -0.1756  0.0790
31423W        W74414   2.270   6.795   9.091  0.1171  0.0135  0.0766
31424W        W74415   0.256  12.475   7.982 -0.0954 -0.1822  0.2380
31425W        W74416  29.347  29.590   1.151  0.0203 -0.3658 -0.0831
31426W        W74417   1.850  30.140   9.307 -0.1298  0.0113  0.0142
31427W        W74418  21.381  32.684   4.525  0.0990  0.0035 -0.1052
31428W        W74419   8.819  24.583  10.774  0.2145 -0.2201  0.1393
31429W        W74420  33.054  25.211  22.638  0.1411 -0.0565  0.0299
31430W        W74421  27.586  22.769   8.082  0.2250  0.1564  0.0071
31431W        W74422  33.761  30.019  19.042 -0.0003  0.0404 -0.1912
31432W        W74423   6.777  31.692  26.710 -0.4479 -0.0979  0.1445
31433W        W74424  30.838  18.538   9.931  0.1560  0.1553 -0.0987
31434W        W74425  26.323   7.709  27.853  0.1211  0.0356  0.0710
31435W        W74426  28.233   0.151   9.226 -0.1590  0.1254 -0.2408
31436W        W74427  26.398   3.139   6.356 -0.3954 -0.1819 -0.1096
31437W        W74428   4.675  29.146   4.543 -0.1906 -0.1697  0.2061
31438W        W74429  28.874  32.660   6.854  0.0807 -0.0355 -0.2393
31439W        W74430  30.126  13.114   5.357 -0.0299 -0.1338  0.4608
31440W        W74431  19.913  10.304   7.200 -0.1025 -0.1642 -0.1016
31441W        W74432  23.005  12.088   9.533 -0.1817 -0.1699 -0.0056
31442W        W74433  21.173  34.377   2.888  0.0304  0.0770 -0.0694
31443W        W74434  31.890  33.044  24.566 -0.1385 -0.1859 -0.1411
31444W        W74435  32.649   0.361   5.456  0.3055  0.0050 -0.0653
31445W        W74436  19.194  31.929  13.448 -0.0798 -0.0372 -0.2452
31446W        W74437  22.407   1.915   3.298  0.1462 -0.1178  0.2025
31447W        W74438  28.163  28.184  27.190  0.3790  0.1987  0.1303
31448W        W74439  28.881   0.797   0.220  0.2022 -0.3553  0.2157
31449W        W74440   3.284   4.289   6.067  0.0939 -0.2363 -0.0707
31450W        W74441   1.052  11.935   1.190 -0.2383  0.3373  0.0022
31451W        W74442  25.824  20.230  10.213 -0.0106  0.1097  0.3264
31452W        W74443  18.812   2.129   7.673 -0.1423  0.3073 -0.1242
31453W        W74444  20.033  34.660  23.269 -0.1199  0.1438 -0.2599
31454W        W74445   2.829   2.477   7.979 -0.1325  0.2574  0.1940
31455W        W74446  21.226  22.856   4.774 -0.2677 -0.0467  0.1483
31456W        W74447   0.855   7.646   2.428  0.0085 -0.0828 -0.0585
31457W        W74448   9.580  12.705  22.982 -0.1481 -0.2705 -0.0981
31458W        W74449  24.799  14.200   3.002  0.2170  0.0303  0.3271
31459W        W74450  33.600   8.133  10.459 -0.2307 -0.0350  0.0206
31460W        W74451  23.243  11.186   8.885  0.0242 -0.1373 -0.0411
31461W        W74452   8.689   8.688   7.125  0.0564 -0.0928  0.0264
31462W        W74453  29.126   3.900   8.229  0.2488  0.3636 -0.0343
31463W        W74454   4.169  20.579  28.428 -0.0623  0.1924 -0.0575
31464W        W74455   5.106   0.761   8.919 -0.1434  0.1792  0.0975
31465W        W74456  13.122  13.680   3.165  0.1579 -0.0080 -0.0662
31466W        W74457  27.180   8.681   9.018 -0.0845  0.2930 -0.1272
31467W        W74458  22.581   2.088   1.495 -0.0517 -0.1449  0.0629
31468W        W74459  24.111  13.618   9.076  0.1090 -0.0094 -0.0225
31469W        W74460   7.088   4.748   2.632  0.2306 -0.5254  0.0255
31470W        W74461  18.220  12.683   9.987  0.1989  0.4034  0.0828
31471W        W74462  18.314  12.311   3.703  0.0778 -0.1383  0.0547
31472W        W74463   3.353  16.797   3.618  0.1638 -0.0967  0.1461
31473W        W74464  11.719  13.367  26.720  0.0729 -0.1113  0.1113
31474W        W74465  11.308   6.316   4.437  0.0547  0.3933 -0.3022
31475W        W74466   8.079  16.195   8.375  0.2610 -0.0250  0.0174
31476W        W74467  28.146  27.373  25.108 -0.2061 -0.0481  0.2088
31477W        W74468   3.454  17.280  27.373 -0.1237  0.0396  0.0612
31478W        W74469   0.686  23.599  15.865  0.0891  0.0268 -0.0577
31479W        W74470  24.927   1.115   1.542  0.1040 -0.1381 -0.2022
31480W        W74471  23.256  16.439   3.242 -0.0391 -0.4347 -0.0360
31481W        W74472   7.926   8.892   2.917  0.3350  0.2115 -0.0916
31482W        W74473  20.396  30.379   8.474  0.1220 -0.1780 -0.0706
31483W        W74474  24.263   6.686  22.446  0.3072  0.0081 -0.4065
31484W        W74475  28.388  21.423   5.899 -0.2748  0.1182  0.3305
31485W        W74476  25.259   2.854   8.728  0.0851 -0.1047 -0.1968
31486W        W74477   6.343   6.504  22.603 -0.2178 -0.0194  0.1542
31487W        W74478  30.529   7.147   9.031  0.0306 -0.1466  0.0662
31488W        W74479  30.475   3.802   6.419  0.2802 -0.2273 -0.0163
31489W        W74480  22.050  24.070   8.933 -0.0531 -0.4420 -0.1114
31490W        W74481  10.591  25.198  28.063 -0.0731  0.1213 -0.2376
31491W        W74482  16.837  11.998  23.152 -0.1450 -0.1411 -0.2429
31492W        W74483   6.389   8.546  23.276 -0.1391 -0.1362 -0.1428
31493W        W74484  25.676   8.197  29.167  0.0354 -0.1660 -0.0297
31494W        W74485  17.762  11.929   5.695 -0.0738  0.2939  0.0267
31495W        W74486  14.175  31.254   0.239 -0.1065 -0.2548  0.2402
31496W        W74487  28.566  12.654   9.853  0.1018  0.0315 -0.1476
31497W        W74488  22.042  16.974  29.225  0.0278  0.2072 -0.2719
31498W        W74489  24.344  22.232   7.947  0.0723 -0.0055  0.0798
31499W        W74490  13.210  31.427   6.668  0.3540  0.2435  0.0193
31500W        W74491   3.458  33.233  16.973  0.2716  0.1924  0.0177
31501W        W74492   0.174  17.723  25.899  0.0154  0.2088 -0.1170
31502W        W74493  17.753  14.944   6.025  0.0526  0.2442 -0.1448
31503W        W74494  22.440   8.147   6.503 -0.1444  0.5193 -0.0768
31504W        W74495  31.710  13.447   4.662 -0.0794 -0.0178 -0.1466
31505W        W74496  23.154  17.804   6.759 -0.0906  0.2096  0.1779
31506W        W74497  31.239  16.144   1.788  0.0582  0.4061  0.1438
31507W        W74498  17.564   8.167  26.067  0.0340 -0.0321  0.3527
31508W        W74499  34.055  33.993   6.515  0.0164 -0.4226  0.2723
31509W        W74500  22.758   0.707   2.761 -0.2207  0.1986 -0.0088
31510W        W74501  16.000  20.705   5.654 -0.2064  0.1836  0.0824
31511W        W74502  23.239  27.497  28.834  0.1394  0.0349 -0.1872
31512W        W74503  13.980   8.486   4.156 -0.0209  0.0881 -0.1810
31513W        W74504   1.071   4.182   9.319  0.1195 -0.2903  0.2126
31514W        W74505  28.363  18.997  25.677 -0.0886  0.0054  0.1116
31515W        W74506  18.924   3.315  21.208 -0.2974  0.1111  0.1333
31516W        W74507  14.378  10.482  26.264 -0.1925 -0.0306 -0.1636
31517W        W74508  32.329  33.361   2.093 -0.1461 -0.2044 -0.2033
31518W        W74509  24.245   0.293   2.334  0.1059  0.1287  0.0872
31519W        W74510  24.366   9.310   8.963 -0.3258  0.0591 -0.0346
31520W        W74511  10.879  32.831  22.699  0.0942  0.0788 -0.2410
31521W        W74512  26.204  26.096  24.268  0.0310 -0.3928  0.3215
31522W        W74513   0.597   9.448   6.898 -0.3243 -0.2446 -0.1879
31523W        W74514  28.598   2.221   1.299 -0.2773 -0.0412  0.1769
31524W        W74515  32.953  22.268   9.615 -0.2139  0.2716 -0.0834
31525W        W74516  31.079  32.043   6.807  0.0681  0.3122  0.0719
31526W        W74517  22.385  19.509   3.027  0.3887  0.1264 -0.0485
31527W        W74518  24.290  14.397  25.618  0.0314  0.2559 -0.1344
31528W        W74519  30.854  16.124   8.663 -0.1407 -0.2927 -0.0607
31529W        W74520  25.266   2.094  27.564 -0.0604  0.0982 -0.0419
31530W        W74521   6.006   1.038   5.910 -0.0962 -0.0525 -0.2281
31531W        W74522  27.105   1.009   4.136  0.2946 -0.0091 -0.2685
31532W        W74523  28.472   8.534  27.457  0.2449 -0.4838  0.1514
31533W        W74524  26.170   9.528   4.295 -0.0953 -0.1206 -0.2460
31534W        W74525  14.298   9.537   0.549 -0.1192 -0.1357 -0.2236
31535W        W74526  20.916   3.609  24.758 -0.1279  0.0063 -0.2193
31536W        W74527  29.937  15.927   0.195  0.1513 -0.0247  0.1906
31537W        W74528  24.063   6.239   0.249  0.1670 -0.0588  0.1586
31538W        W74529  19.980   8.096  28.530 -0.1261  0.2308 -0.0203
31539W        W74530  31.903  24.476   0.360  0.0356 -0.3763 -0.1786
31540W        W74531  33.975  14.077   6.517 -0.2991  0.0199 -0.0037
31541W        W74532  25.171   9.951  26.932 -0.0180  0.1255 -0.3415
31542W        W74533  10.860  28.143  18.285  0.1142  0.2255  0.2975
31543W        W74534  17.635  10.406   6.796 -0.2237  0.1128 -0.0855
31544W        W74535  31.473  22.623   3.613 -0.1872  0.1841  0.1657
31545W        W74536  31.612  12.389  26.358 -0.0028 -0.2139  0.0373
31546W        W74537  20.846  16.353  14.067 -0.2473 -0.1513  0.0457
31547W        W74538  14.599  11.196   3.115 -0.5660  0.0516 -0.1523
31548W        W74539  18.534  31.654   1.113  0.1119 -0.4799  0.1810
31549W        W74540   5.869  24.495   0.901 -0.2996  0.2644 -0.0685
31550W        W74541  28.661   5.674   4.688  0.0532 -0.0194  0.0550
31551W        W74542  25.785  12.084  21.151  0.0823  0.0590 -0.1882
31552W        W74543  24.726  27.373   4.680 -0.0424 -0.3297  0.0924
31553W        W74544  34.092   8.725   3.477 -0.0386 -0.2934  0.2994
31554W        W74545  20.925  19.058   4.245 -0.0872  0.0209  0.3172
31555W        W74546  24.931   4.156   0.817  0.0360  0.0858 -0.0932
31556W        W74547  30.242  34.054   0.525  0.4017 -0.2294  0.3881
31557W        W74548  14.723  24.336  20.628 -0.1042 -0.2311  0.0342
31558W        W74549  16.747   5.979  24.701  0.1187 -0.1536 -0.2712
31559W        W74550  18.217  20.306   0.037 -0.0640 -0.0688 -0.0867
31560W        W74551  19.212   8.867  25.535 -0.1263  0.1560  0.0594
31561W        W74552  26.264   3.438   3.429  0.0781 -0.1252  0.0672
31562W        W74553  21.948  29.228  23.479  0.1689  0.3457  0.0548
31563W        W74554  25.406   5.741   3.593 -0.1577 -0.0582  0.2256
31564W        W74555  27.002  22.183  24.144  0.1037  0.1081 -0.1629
31565W        W74556  23.412   3.570   7.692  0.1269  0.0425  0.1150
31566W        W74557  23.561  34.180   9.705  0.2583 -0.0436 -0.0763
31567W        W74558  25.983   7.346   2.677 -0.2097 -0.2718  0.0799
31568W        W74559  26.061   9.811   7.076  0.0639  0.0097  0.0680
31569W        W74560  29.847  32.210   7.995  0.0462 -0.0630  0.0981
31570W        W74561  29.958  11.108   4.265 -0.0284  0.0345  0.2205
31571W        W74562  26.137  32.047   2.554  0.1234  0.1963  0.3115
31572W        W74563  24.484  13.319   8.839 -0.0762 -0.1536  0.0679
31573W        W74564  24.326   1.853   8.977  0.1685 -0.0250 -0.2007
31574W        W74565  22.997  11.644  21.958  0.2458 -0.0915  0.1791
31575W        W74566   8.192  31.735   6.859 -0.0875  0.2569 -0.2960
31576W        W74567  21.121  31.651   8.303  0.0348  0.1177  0.1185
31577W        W74568  26.709   1.688   4.662 -0.0740 -0.1448  0.1279
31578W        W74569   3.229   4.699   6.881  0.0139 -0.0130  0.0687
31579W        W74570  28.916  25.310   1.981  0.1572  0.4960  0.1061
31580W        W74571   0.804   9.252   8.222  0.0989 -0.0112 -0.0012
31581W        W74572  28.329   2.219  27.548 -0.1173  0.1398  0.1016
31582W        W74573  20.583   4.424   7.135 -0.4345  0.0862 -0.1685
31583W        W74574  18.474   5.136   8.725 -0.1561 -0.0168 -0.3973
31584W        W74575  31.662  33.123   2.868 -0.0683  0.2516 -0.1976
31585W        W74576   1.868  23.624   2.869  0.1538 -0.1515  0.0395
31586W        W74577  30.793  21.995  24.589  0.4567  0.1079 -0.0559
31587W        W74578  31.098   5.456   3.727 -0.1914 -0.1832 -0.0052
31588W        W74579  24.172  23.874  25.622 -0.1459  0.1662 -0.0650
31589W        W74580  25.678   1.950   6.512  0.2046  0.2674 -0.1011
31590W        W74581  30.276  27.618  25.667 -0.2561 -0.5174 -0.1745
31591W        W74582  28.374  17.003  21.156 -0.0369  0.1720  0.3923
31592W        W74583  21.613   6.678   0.570  0.3421  0.0580  0.0670
31593W        W74584  34.691   8.890   6.359 -0.0946 -0.1392 -0.2174
31594W        W74585  18.062  11.646   7.420 -0.2799 -0.3180 -0.1390
31595W        W74586  22.384   5.524   5.196 -0.2749 -0.0611 -0.1787
31596W        W74587  34.667  11.324   2.413  0.5130  0.0064 -0.0576
31597W        W74588  28.150   4.761   8.726  0.1879  0.2287 -0.3145
31598W        W74589  32.222  12.097   5.476  0.1327  0.1895  0.1587
31599W        W74590  25.469  15.710  23.108  0.2250 -0.0382  0.3145
31600W        W74591  21.676   7.378   7.114 -0.1323 -0.0857  0.1065
31601W        W74592   0.441   4.672   8.099  0.3311  0.1644  0.0560
31602W        W74593  30.197  12.692  28.333 -0.0175 -0.1230 -0.2795
31603W        W74594   8.299  30.141  25.816 -0.0202 -0.3135 -0.0127
31604W        W74595  28.308  26.890   8.678 -0.3607 -0.0649 -0.0855
31605W        W74596   4.762  10.009   6.592  0.0964  0.0926 -0.1659
31606W        W74597  22.771  12.672   5.411 -0.2667  0.2217 -0.3792
31607W        W74598   4.911  25.652   2.351 -0.0238 -0.4750  0.4043
31608W        W74599  25.191   5.581   8.951  0.0731  0.1726 -0.0781
31609W        W74600  27.789  31.443   1.886 -0.4248  0.0001  0.0235
31610W        W74601   1.221  14.149   2.473  0.0191 -0.3737  0.0511
31611W        W74602  28.915  14.569   7.709 -0.0994  0.2791  0.1544
31612W        W74603  11.385  14.341  28.178  0.1082  0.0033  0.2474
31613W        W74604  26.431  17.440   8.026  0.0668 -0.0191  0.0085
31614W        W74605  22.838  23.851   6.120  0.2941  0.3117 -0.0137
31615W        W74606  20.414  11.523   7.796 -0.1853 -0.2347 -0.0836
31616W        W74607  27.876   2.270   3.520  0.1244  0.1607 -0.2003
31617W        W74608  24.019  18.837   0.971  0.0476 -0.0066 -0.0161
31618W        W74609  21.119  15.151   6.250 -0.3046 -0.1387 -0.0714
31619W        W74610  22.478   4.972   4.320  0.2283 -0.1231 -0.1644
31620W        W74611   0.942   2.742   6.388 -0.0507  0.1581  0.1466
31621W        W74612  23.353   8.353   2.561  0.0569 -0.0568  0.0100
31622W        W74613  25.296  14.544  14.073  0.2566  0.3219  0.0173
31623W        W74614  14.289  19.707   5.408 -0.1969 -0.0661 -0.0831
31624W        W74615   3.261  10.624  10.512 -0.1106 -0.0035 -0.1831
31625W        W74616  29.494  12.192  17.687  0.2437  0.2637  0.2848
31626W        W74617  22.435  14.296   2.069 -0.0189 -0.1799  0.0151
31627W        W74618  29.265  18.605   0.637 -0.1292  0.3353  0.2326
31628W        W74619   5.759  27.807   4.064 -0.0976  0.3352  0.2369
31629W        W74620  33.080  28.719  26.445  0.1904 -0.1469  0.1022
31630W        W74621  22.157   5.276   4.518 -0.0436 -0.0446  0.1503
31631W        W74622  11.671   0.976   2.922 -0.3275 -0.1304  0.1337
31632W        W74623   0.952  24.530  26.392  0.0667 -0.0175  0.0646
31633W        W74624  26.968  34.070   2.927 -0.3989 -0.1445 -0.1854
31634W        W74625  29.678   6.430   0.092  0.1890 -0.2046 -0.0176
31635W        W74626   0.665   3.649  20.964 -0.0819 -0.3194  0.0665
31636W        W74627  31.692   8.779   5.627 -0.1893 -0.1905  0.0971
31637W        W74628  25.353   5.479   1.745  0.0169  0.1104  0.0606
31638W        W74629  16.749  12.964   8.802 -0.0669 -0.0980 -0.1258
31639W        W74630  14.609   8.347   7.439  0.0059 -0.2576 -0.1998
31640W        W74631  27.807   2.946   5.792 -0.0318 -0.0233  0.1491
31641W        W74632   7.091  32.229  22.767  0.1767 -0.0370 -0.2593
31642W        W74633  29.091  15.069   8.998 -0.2928  0.0474 -0.1316
31643W        W74634  33.422   6.745   0.281  0.1373 -0.3482 -0.0893
31644W        W74635  16.944  33.779   2.576 -0.0618 -0.4178 -0.3293
31645W        W74636  26.479  10.980   4.359 -0.3183  0.0677 -0.1013
31646W        W74637  22.478   4.927   8.924  0.3446  0.1692  0.1295
31647W        W74638  25.192  25.866   4.039  0.2395  0.0131  0.1556
31648W        W74639  23.827  32.997   4.663 -0.3112 -0.2041  0.0094
31649W        W74640  28.821   4.269  10.348  0.1518  0.2961 -0.0301
31650W        W74641  27.332  12.866   8.173 -0.0451 -0.1688 -0.2458
31651W        W74642  14.134   3.627   7.250  0.0203  0.3475 -0.3840
31652W        W74643  17.687  14.947   7.297  0.1413  0.1237 -0.0960
31653W        W74644  34.538  33.529  26.545 -0.0161 -0.1683  0.0682
31654W        W74645  25.556  13.048  28.342  0.2765  0.5520  0.4637
31655W        W74646  32.948  12.249   6.997 -0.1149  0.0569 -0.1857
31656W        W74647  27.848   7.164   7.074 -0.2680  0.4552 -0.0663
31657W        W74648  24.113   9.594   9.878  0.0065  0.2613 -0.0606
31658W        W74649   0.509   4.293   4.778  0.0798 -0.0318 -0.2560
31659W        W74650  29.294   6.823   5.946 -0.1679 -0.1656  0.2045
31660W        W74651  30.607  16.681   1.157 -0.1632 -0.3410  0.0523
31661W        W74652  26.401  17.909   7.925 -0.1465  0.0896 -0.1780
31662W        W74653   1.910  19.555  10.721 -0.0784  0.3193 -0.0210
31663W        W74654  23.109  12.494  22.993 -0.1831 -0.1331 -0.1227
31664W        W74655   6.054  15.295   8.069 -0.0297 -0.1023  0.0142
31665W        W74656  26.698   5.658   3.503  0.0687  0.2003 -0.1377
31666W        W74657  10.305   3.159   6.151 -0.1465 -0.0302  0.0695
31667W        W74658  20.450   1.319  28.565 -0.0532 -0.1377 -0.0116
31668W        W74659  27.959   2.536  22.876  0.2822 -0.0665 -0.1159
31669W        W74660  28.864   7.873   1.226 -0.2344  0.0461 -0.2340
31670W        W74661  24.321  23.753  17.266  0.2209 -0.0881  0.1462
31671W        W74662   7.966  20.710   7.293 -0.0196 -0.3790 -0.1365
31672W        W74663   1.987  11.846   4.891 -0.0663  0.0172  0.1189
31673W        W74664  15.716  13.836  25.812  0.0942 -0.4239 -0.3861
31674W        W74665  30.571  31.670   7.917 -0.1130 -0.0700  0.1291
31675W        W74666  23.440  12.113   0.355 -0.2738  0.1004 -0.1547
31676W        W74667  20.359  10.960  27.519  0.1718  0.0291 -0.2559
31677W        W74668  13.249   4.508   3.328 -0.2929  0.2939  0.0515
31678W        W74669  21.171   0.278   8.172  0.0252  0.0027  0.1519
31679W        W74670  19.984  31.784  24.668 -0.0091 -0.2397 -0.1420
31680W        W74671  27.488   3.492   9.112 -0.0154  0.0338  0.1142
31681W        W74672   6.232  13.565   3.149  0.0300  0.1000 -0.2624
31682W        W74673   8.588   8.273  10.356  0.0174  0.2450 -0.0604
31683W        W74674  32.671  32.566   2.377  0.1016 -0.2015 -0.0395
31684W        W74675  34.436  22.563   8.357 -0.1007  0.0480  0.0504
31685W        W74676  28.476  15.920  24.093  0.0657 -0.0241  0.2587
31686W        W74677  26.851   9.502   3.779  0.1042 -0.1429 -0.1374
31687W        W74678  25.445  17.302   4.405 -0.2734 -0.1374 -0.1800
31688W        W74679  10.088  19.616   9.796  0.3151  0.1868  0.1578
31689W        W74680  19.268   8.791   5.970 -0.0454  0.0528 -0.2005
31690W        W74681  19.886  13.878   0.513 -0.2155 -0.2692 -0.0143
31691W        W74682  19.538  15.757  22.603 -0.0096  0.1638 -0.0220
31692W        W74683  20.741  15.322   4.527  0.0811 -0.0061 -0.0998
31693W        W74684  19.764  13.678  24.405  0.3848 -0.3392 -0.1127
31694W        W74685  22.064   5.711   8.923 -0.2810 -0.1332  0.2196
31695W        W74686  24.129  17.899   1.929  0.0138 -0.1893  0.0046
31696W        W74687  14.069   8.229   1.715  0.0963 -0.0467 -0.1310
31697W        W74688  29.895   8.711  23.168 -0.1647  0.0895  0.0159
31698W        W74689  30.579  18.029  27.068 -0.0405 -0.3049 -0.1752
31699W        W74690   0.837   7.564   4.325 -0.1457 -0.0357 -0.2517
31700W        W74691  18.506   6.831   8.152  0.3323 -0.1876  0.0506
31701W        W74692  26.877  14.709   9.367  0.0051 -0.0574 -0.0387
31702W        W74693  23.815  26.374   9.709  0.1053 -0.2976  0.2285
31703W        W74694  19.771  34.313   4.550 -0.0954 -0.2623 -0.1430
31704W        W74695   1.973  18.295   9.221  0.0573  0.1840 -0.3028
31705W        W74696  12.157  15.280  28.745  0.2284 -0.0201  0.0968
31706W        W74697  22.546  10.139   6.248 -0.0365  0.0889  0.0212
31707W        W74698  31.539  12.139  11.377 -0.0469  0.0994 -0.2522
31708W        W74699  31.836  32.114  22.035  0.0052  0.0718 -0.1979
31709W        W74700   5.869  11.103   7.905 -0.2098  0.2199 -0.1688
31710W        W74701   0.783   7.120  26.834  0.2896 -0.0972 -0.1459
31711W        W74702   3.917  10.134  22.444 -0.1062 -0.0404 -0.2412
31712W        W74703  34.546  12.833  26.260  0.4314 -0.1876 -0.0250
31713W        W74704  24.270  31.084  27.806 -0.2936  0.1934  0.2575
31714W        W74705  28.306  28.133   2.329  0.1482  0.3601 -0.0506
31715W        W74706  34.091  31.813   7.317  0.1633 -0.0802  0.0433
31716W        W74707  19.174  25.426   7.023  0.1047 -0.2477  0.1705
31717W        W74708  17.709  18.896  24.842  0.1323 -0.0713  0.2050
31718W        W74709   1.880   8.769  11.471 -0.1201 -0.0431  0.1878
31719W        W74710  20.488   4.971  23.811  0.0254 -0.3098 -0.0014
31720W        W74711  32.060  14.288   5.119  0.0935 -0.0730 -0.2264
31721W        W74712  17.505  10.624  18.664 -0.2073  0.1352  0.0164
31722W        W74713   9.288  27.401  24.457  0.1731 -0.2333 -0.3124
31723W        W74714  26.803  13.483  19.374 -0.1317  0.1739  0.1299
31724W        W74715   4.259   7.860   3.034  0.1274 -0.1154 -0.1821
31725W        W74716  20.679  33.219   0.868 -0.2218  0.1116  0.0107
31726W        W74717  25.870  26.649   6.010  0.1868  0.1475 -0.1529
31727W        W74718  34.404   3.445  23.002  0.2969  0.1126 -0.1717
31728W        W74719  28.535  19.069   7.576  0.3422  0.0776 -0.1376
31729W        W74720  22.023  18.176  24.113  0.0787 -0.1299  0.0101
31730W        W74721   1.628  33.396   3.295 -0.0088 -0.0439  0.2000
31731W        W74722  27.644   0.899   4.993 -0.0146 -0.0223  0.0987
31732W        W74723  31.415  34.147   3.813  0.0102  0.0930  0.2280
31733W        W74724   9.229   4.436   0.566  0.1366  0.2311 -0.0579
31734W        W74725  27.884  33.160   8.865  0.2348 -0.1983 -0.1971
31735W        W74726   4.400  20.162   4.776 -0.0464 -0.0580  0.2685
31736W        W74727  12.262  11.919   9.343 -0.0865 -0.0025  0.3166
31737W        W74728   0.512   1.202   8.311  0.1695  0.2257 -0.2749
31738W        W74729  21.773  30.192   3.580 -0.0863  0.0035 -0.0635
31739W        W74730  24.383   2.863   4.315 -0.0089 -0.0600 -0.4784
31740W        W74731   0.502  16.980  23.697  0.1159 -0.0624  0.1672
31741W        W74732  22.448   6.380  27.951 -0.0553  0.2679  0.0788
31742W        W74733  26.604   2.357   1.983 -0.0908 -0.0945  0.0488
31743W        W74734  29.799   7.373   2.960  0.3058  0.2085 -0.3796
31744W        W74735  33.689   1.924   4.756  0.0069 -0.2360 -0.1024
31745W        W74736   3.897   1.300   1.029 -0.3436 -0.1309 -0.0834
31746W        W74737  18.548   1.408   6.494 -0.6121  0.2192 -0.0781
31747W        W74738  16.323  23.366   4.560 -0.1875  0.1674 -0.2086
31748W        W74739  30.681   7.099   6.587 -0.0097 -0.1016  0.0228
31749W        W74740  18.316   2.496   4.190 -0.0318  0.0640 -0.3309
31750W        W74741  28.009   1.902   1.610  0.3769 -0.2910  0.1444
31751W        W74742   2.882  17.067   5.723 -0.0310 -0.0040  0.0238
31752W        W74743   4.906   1.854  29.070 -0.1578  0.0159  0.1578
31753W        W74744  26.349  18.198   1.173  0.1276 -0.0706 -0.0961
31754W        W74745  30.955  31.978   1.660 -0.0214  0.4411 -0.2314
31755W        W74746   3.027  15.379  24.728  0.1791 -0.1731  0.2299
31756W        W74747  22.351  11.154   8.531  0.4482  0.1309  0.2251
31757W        W74748   2.682   9.437  28.613  0.0004  0.1906  0.1941
31758W        W74749  32.053  32.363   0.192  0.0521 -0.1199  0.1951
31759W        W74750  24.208   3.332   3.551 -0.2463 -0.0376  0.0744
31760W        W74751  28.700   5.578   9.779 -0.2308 -0.1075  0.2002
31761W        W74752   3.974  15.574   3.820  0.1569 -0.1694  0.0977
31762W        W74753  18.186   2.534   5.483 -0.3349 -0.1901 -0.2345
31763W        W74754  13.865  31.803   2.612 -0.0801 -0.2689 -0.1089
31764W        W74755  32.388  31.215  28.257  0.4308 -0.1441 -0.0086
31765W        W74756  31.614  15.614   6.634  0.0160  0.1461  0.2817
31766W        W74757  11.030   4.697   5.891 -0.0003  0.2549 -0.1844
31767W        W74758   0.508  18.959   7.804  0.0018 -0.0111 -0.2725
31768W        W74759   5.982   2.301   7.744 -0.1882  0.2853 -0.2775
31769W        W74760  20.621  12.576   2.054 -0.1891  0.0921 -0.2548
31770W        W74761  25.157  21.539  28.829  0.1536  0.0715 -0.2230
31771W        W74762  26.333  24.426   4.358  0.0600 -0.2291 -0.0908
31772W        W74763  30.826  16.589   7.524  0.1444 -0.0567 -0.0578
31773W        W74764   5.553   3.551   7.978 -0.3969  0.0384 -0.0303
31774W        W74765  16.039   6.962   8.902 -0.2700 -0.3371 -0.5172
31775W        W74766  30.597  22.210  28.477 -0.0029 -0.1051 -0.3014
31776W        W74767   9.188   6.788  22.001  0.2027  0.1259  0.1644
31777W        W74768   8.279   6.272  22.254  0.3078 -0.0487 -0.0946
31778W        W74769  19.724  32.957   6.959 -0.2090 -0.1483  0.1089
31779W        W74770  22.540  13.407   3.543  0.0530  0.2154 -0.2957
31780W        W74771   6.208   4.735   4.304  0.2524 -0.0325 -0.1664
31781W        W74772   3.562  26.532   4.592 -0.3328  0.3593 -0.0040
31782W        W74773  20.866   4.353  28.912  0.0100  0.1573 -0.1762
31783W        W74774  26.644  17.106  25.786  0.0003 -0.1888  0.1546
31784W        W74775  31.561  10.808  10.374  0.5723  0.1546  0.2763
31785W        W74776  22.724  31.617   3.181  0.0863 -0.2219 -0.1964
31786W        W74777  30.727  11.662   6.431 -0.2019 -0.0447  0.1376
31787W        W74778  24.166  26.590  28.259 -0.1102 -0.0189  0.0593
31788W        W74779  29.355   6.511   5.350 -0.1435  0.1241  0.1100
31789W        W74780  31.320   0.322   4.639 -0.2391 -0.1871  0.1539
31790W        W74781   9.611   9.319  27.087 -0.2137  0.1690 -0.1064
31791W        W74782  23.187   6.553   7.543 -0.0757  0.3220  0.1494
31792W        W74783   3.300   5.635   8.991  0.0647 -0.3339  0.0758
31793W        W74784  20.861   7.087   0.751  0.5379  0.0199  0.0501
31794W        W74785  25.819  33.124  13.012 -0.0067 -0.1551 -0.0055
31795W        W74786  19.626  13.605   6.209  0.0953 -0.0065 -0.3604
31796W        W74787  18.933   5.444  23.142 -0.1370  0.3976 -0.1945
31797W        W74788  28.947  33.002   6.474  0.0713  0.1060  0.3184
31798W        W74789   3.452  14.110  25.432 -0.0028 -0.0427  0.0591
31799W        W74790  14.295  22.233   4.918 -0.1164 -0.0456  0.1035
31800W        W74791  16.120  26.076   5.462 -0.0613 -0.2119  0.1008
31801W        W74792  17.964  13.543   7.735  0.2442 -0.1144 -0.0543
31802W        W74793   9.522  34.758  10.379  0.0515  0.1735 -0.0140
31803W        W74794  27.554  20.549   2.333 -0.0313 -0.1711  0.1682
31804W        W74795  34.738   7.109   7.116  0.2163  0.1272 -0.0911
31805W        W74796   7.349  33.677   9.857 -0.0107  0.4005 -0.4595
31806W        W74797  33.817  25.204   7.595  0.6632 -0.1433  0.1246
31807W        W74798  32.882  24.705  16.986  0.0653  0.0906  0.2399
31808W        W74799  18.319  13.419   2.332  0.0478 -0.1069 -0.4185
31809W        W74800  11.315   9.010   2.231  0.0661 -0.1147  0.1619
31810W        W74801  16.780  14.217  25.776 -0.2241  0.0236  0.0672
31811W        W74802   6.805  12.871   5.207 -0.0005 -0.1621 -0.0289
31812W        W74803  30.619  19.905   9.857  0.2158  0.3046 -0.2035
31813W        W74804   5.175  27.880   9.396  0.0983 -0.3198  0.1836
31814W        W74805  11.262  27.914   3.803 -0.0347  0.1974  0.2810
31815W        W74806  25.338  11.285   9.026 -0.1587  0.2539  0.2802
31816W        W74807  31.885  12.619  28.504  0.2793  0.0972  0.1682
31817W        W74808  18.475  33.969   6.615  0.1129 -0.1290 -0.1961
31818W        W74809   1.696   2.128  10.115 -0.0739  0.1268  0.0392
31819W        W74810  15.274  12.538   5.388 -0.1418 -0.2251 -0.0366
31820W        W74811  24.645  34.671  26.187  0.1042 -0.3337 -0.0209
31821W        W74812   2.740  13.803   0.119 -0.0378 -0.0145  0.1977
31822W        W74813   0.019   4.444   4.655  0.0470  0.1051  0.3115
31823W        W74814   0.612  14.451   7.326 -0.3489 -0.2053 -0.0671
31824W        W74815  27.154  10.736   0.482  0.1189  0.0541  0.1084
31825W        W74816  30.561  17.669  27.980 -0.2310  0.0393 -0.0465
31826W        W74817  18.563  19.054  15.063  0.0273  0.0877  0.0489
31827W        W74818  16.040  14.775   5.175 -0.2628 -0.0155  0.0195
31828W        W74819  31.479  34.138   0.893  0.1980 -0.1747  0.1616
31829W        W74820  23.306  34.028   5.457  0.0467 -0.2791 -0.0680
31830W        W74821  19.307   4.616   1.298  0.0774 -0.0281  0.0073
31831W        W74822  17.694  33.086  25.785 -0.0467 -0.0333 -0.0415
31832W        W74823  29.816  31.497   2.866 -0.2764 -0.1647  0.0237
31833W        W74824   5.452  27.061  20.292  0.0277  0.1349  0.2185
31834W        W74825  22.444  19.552   9.268 -0.0104  0.2355 -0.0693
31835W        W74826   2.249  33.448   9.177 -0.2281  0.3362 -0.0769
31836W        W74827   4.488  16.756   7.953  0.2970  0.2546 -0.1010
31837W        W74828  19.907  20.683   5.184  0.0848 -0.0809  0.1274
31838W        W74829  27.702  33.597   7.019 -0.0530 -0.0086 -0.0247
31839W        W74830  24.705  32.546   3.133  0.1129 -0.1190 -0.1280
31840W        W74831   0.353   1.083   5.992 -0.1863  0.2543  0.0586
31841W        W74832  14.661   9.491   5.044  0.0409  0.2347 -0.1727
31842W        W74833  21.978  13.085   7.652  0.2416 -0.0640 -0.0449
31843W        W74834  21.677  10.822   6.969  0.0584 -0.2809 -0.0647
31844W        W74835  26.644  22.293   9.613 -0.0840  0.2484 -0.1457
31845W        W74836   3.769   3.770   2.766 -0.0987  0.0934  0.1544
31846W        W74837   9.869  12.001   3.228  0.1517 -0.1308 -0.0792
31847W        W74838  33.787  19.808  22.766 -0.0043  0.2662  0.1703
31848W        W74839  21.362   2.371   2.678  0.1921  0.1376  0.1166
31849W        W74840  17.910  33.449   4.581 -0.0147 -0.1274 -0.0928
31850W        W74841   7.931  16.003   2.251  0.1422  0.0185  0.1161
31851W        W74842  19.332   1.227  27.894 -0.0384 -0.1679  0.0149
31852W        W74843  32.545  17.079   5.390  0.1774 -0.0229 -0.2019
31853W        W74844   1.931  28.784   8.729  0.4132 -0.0185  0.2962
31854W        W74845  15.906  17.012   2.565  0.0676 -0.0751 -0.1964
31855W        W74846  30.370   0.681  25.642 -0.0991  0.2585  0.0342
31856W        W74847  26.883  10.328  27.919  0.4341 -0.3951  0.1722
31857W        W74848  24.251   6.812  24.807  0.1733 -0.1226 -0.1745
31858W        W74849   9.624   8.038  16.243 -0.1339  0.0959 -0.2310
31859W        W74850   7.219  27.143   2.620  0.2441 -0.1984 -0.2835
31860W        W74851  24.289  10.290  28.519 -0.1237 -0.3962 -0.3296
31861W        W74852   9.858  33.079  22.687  0.0407 -0.1254 -0.2608
31862W        W74853   1.875   2.853   8.856  0.3796 -0.1053  0.0710
31863W        W74854  14.311   4.809  22.438 -0.3566  0.0643  0.0276
31864W        W74855  28.098  11.605   7.768 -0.1970 -0.2270  0.1330
31865W        W74856  34.465  34.002  28.635 -0.2207  0.0502 -0.3197
31866W        W74857  21.746  17.209   7.073 -0.3003  0.0026  0.1454
31867W        W74858  11.873   0.256  10.326  0.1060 -0.1904 -0.1726
31868W        W74859   1.634  25.709   2.847  0.2179  0.0044 -0.2982
31869W        W74860   2.139  32.068  10.070 -0.0518 -0.1796  0.3117
31870W        W74861   4.445  16.635  16.602 -0.1216 -0.1123  0.3097
31871W        W74862  32.916   5.567   9.612  0.0840  0.0372  0.1309
31872W        W74863  32.339  14.110   3.159 -0.0034 -0.0361  0.0883
31873W        W74864  16.580  33.077  23.829 -0.1350  0.1540  0.1282
31874W        W74865   3.276   9.395   2.284 -0.0870  0.0209 -0.0478
31875W        W74866   8.122   0.277   0.469 -0.0771  0.2425  0.0613
31876W        W74867  32.360  13.141   4.090  0.4048 -0.1271 -0.1007
31877W        W74868  26.075   0.224   3.225  0.0072  0.3158 -0.0019
31878W        W74869  32.323  15.343   6.662 -0.0525 -0.0430 -0.0795
31879W        W74870  17.575  26.166  24.650  0.0869  0.1989  0.0821
31880W        W74871  19.862  10.535   3.038  0.0187 -0.2325  0.1517
31881W        W74872  34.740  28.785   7.975  0.0227 -0.3219  0.0432
31882W        W74873  33.491  17.528  23.741 -0.2256  0.2547  0.1295
31883W        W74874   1.248   4.226   5.760 -0.0128 -0.0725  0.0085
31884W        W74875   5.895  15.100   4.330 -0.0336  0.0173 -0.0892
31885W        W74876  24.366   2.898  18.537  0.0514  0.1587 -0.1012
31886W        W74877  14.706  13.553  10.072  0.0285 -0.1809 -0.2025
31887W        W74878  30.845  14.856  10.876 -0.2915 -0.0902  0.1572
31888W        W74879  26.343  16.409   0.875 -0.0557  0.1336 -0.0885
31889W        W74880  30.830  29.132   7.518  0.2361  0.0970 -0.1015
31890W        W74881  31.270  15.567  25.033  0.1062 -0.0704 -0.0521
31891W        W74882   1.370   9.251  22.790  0.2787  0.1864  0.1945
31892W        W74883  20.018  10.781   8.153 -0.0893 -0.0093  0.0775
31893W        W74884  26.497  16.444  28.464 -0.0166 -0.1386  0.4161
31894W        W74885  12.750  24.373  25.764 -0.2805 -0.1701  0.0778
31895W        W74886   0.287  22.313  27.530  0.0702  0.2304 -0.0082
31896W        W74887  26.719  12.355   8.855  0.1507 -0.0830 -0.1718
31897W        W74888  28.448  17.550   5.646 -0.1564 -0.0720 -0.1696
31898W        W74889  33.730  13.543  28.345  0.0365 -0.1941  0.1196
31899W        W74890  28.732   3.960  24.946  0.0964 -0.1688  0.2661
31900W        W74891  29.408  17.213  15.757 -0.3017  0.0747 -0.1131
31901W        W74892  19.259   9.345  19.562  0.0195 -0.1500  0.1562
31902W        W74893  14.159  18.863  17.264  0.2410  0.1825 -0.0834
31903W        W74894  12.062   7.457  25.922 -0.1834  0.2704 -0.0733
31904W        W74895  13.538  24.820   9.659 -0.0681  0.0266  0.1980
31905W        W74896   2.249   2.779  21.890 -0.3335  0.2679 -0.3545
31906W        W74897   8.739   3.009  17.591  0.0909 -0.1205  0.0669
31907W        W74898   0.826  11.802  24.170 -0.0493  0.0054 -0.0248
31908W        W74899  30.174   1.106   7.891  0.1698 -0.2224 -0.0530
31909W        W74900  26.064   8.269   7.031  0.2891  0.3400  0.0147
31910W        W74901  15.506  13.504   2.564 -0.1616 -0.0250 -0.3621
31911W        W74902  11.432  17.518   5.010 -0.0843 -0.2194  0.0883
31912W        W74903  27.875   1.520   0.496  0.3284  0.1177 -0.1452
31913W        W74904  15.781   6.165  19.071 -0.0673 -0.2785  0.1411
31914W        W74905  25.981  33.225  28.713  0.0716  0.0184  0.0344
31915W        W74906   2.358   4.999  28.148 -0.1067 -0.1882 -0.1582
31916W        W74907  20.035  20.542   2.714  0.0646  0.0643  0.1250
31917W        W74908   1.917  33.730  23.781  0.1451 -0.1445  0.2329
31918W        W74909  18.016   3.541   5.835  0.1751 -0.0013  0.0283
31919W        W74910  32.831  10.505   8.098  0.2874 -0.0949 -0.1229
31920W        W74911  20.191  18.045   9.105 -0.3788  0.0497  0.3569
31921W        W74912  22.793  30.389   2.561  0.2272  0.0554  0.4679
31922W        W74913   7.623  15.769  25.297  0.1029  0.3384 -0.3232
31923W        W74914  32.836   4.576   4.746 -0.1748 -0.0520 -0.4113
31924W        W74915  16.411   3.129  10.161 -0.0711  0.1768 -0.0990
31925W        W74916  27.722  11.724   0.165  0.1202 -0.3034  0.0753
31926W        W74917  21.561  25.215  20.725 -0.1610 -0.2139  0.0636
31927W        W74918  15.883  34.177   8.609  0.0645  0.2238 -0.2181
31928W        W74919  16.157   3.194   6.880  0.4275  0.2588  0.1380
31929W        W74920   1.586  17.384  10.635 -0.0223  0.1213  0.0910
31930W        W74921  32.027  16.277   3.044 -0.0473 -0.3250 -0.1266
31931W        W74922  28.089  26.742  20.664  0.1533  0.0759  0.1021
31932W        W74923  28.774  22.796  23.798 -0.1858  0.1586 -0.1373
31933W        W74924  11.598  31.479  27.259  0.1066  0.2535 -0.0150
31934W        W74925  33.199   8.921  24.183 -0.0905 -0.1001 -0.1190
31935W        W74926  20.401  27.976   5.222 -0.1616  0.1117  0.1226
31936W        W74927  26.574   4.869  28.305  0.1981 -0.0658  0.1961
31937W        W74928  31.168   7.109   0.432 -0.2131 -0.3471  0.0162
31938W        W74929  29.172   9.684   2.819  0.0110 -0.2546  0.1417
31939W        W74930  22.751  33.993  25.484  0.0009 -0.1125  0.0195
31940W        W74931  24.678  17.500   2.736  0.2447  0.0154  0.2934
31941W        W74932  18.461  23.445  26.239  0.3070  0.1220 -0.0102
31942W        W74933  30.330   0.672  23.363 -0.0839 -0.2066  0.0457
31943W        W74934   0.279  30.499   2.920  0.2400 -0.0575  0.0485
31944W        W74935  30.806   3.059   5.810  0.0499 -0.4940  0.0186
31945W        W74936  21.757   2.488   7.154  0.1472 -0.1148 -0.0833
31946W        W74937  29.194  26.759   2.781 -0.1360  0.1620  0.2777
31947W        W74938   6.013  21.421   0.426  0.0556  0.1020  0.1240
31948W        W74939  15.149   5.108  24.122  0.1014  0.0231 -0.1165
31949W        W74940  24.661  18.221   3.520  0.1679 -0.0494  0.3736
31950W        W74941  30.052   8.318   4.856  0.4860 -0.0574  0.1616
31951W        W74942  34.609   4.921   4.688 -0.0454  0.0198 -0.2987
31952W        W74943  24.802  19.652  14.779 -0.0339 -0.2090  0.0519
31953W        W74944   0.903  30.337  15.587  0.1857 -0.0277  0.0913
31954W        W74945  21.457  15.829  19.820  0.0358  0.0848 -0.2841
31955W        W74946  23.587  12.290  25.082 -0.3203 -0.1931 -0.0019
31956W        W74947  33.030  27.432   0.855  0.2147 -0.0710 -0.2513
31957W        W74948  22.938   0.480   1.823  0.0873  0.2076 -0.0697
31958W        W74949  27.797  15.480   6.497  0.0678 -0.0171 -0.1427
31959W        W74950  10.742  21.039   1.579  0.0510 -0.2159 -0.0793
31960W        W74951   1.155  30.683   8.035 -0.0190 -0.0562  0.3542
31961W        W74952  20.635  19.801  19.010 -0.4009 -0.2107  0.3461
31962W        W74953  26.050  33.581   5.705 -0.1110 -0.1830 -0.0549
31963W        W74954  17.292   4.837   5.353 -0.1119  0.0211 -0.1672
31964W        W74955  28.567   1.234   2.772  0.3759 -0.2246  0.3737
31965W        W74956   6.715  11.178   9.931 -0.1109  0.0251  0.2060
31966W        W74957  16.371  28.541   2.447 -0.1272 -0.0154 -0.0570
31967W        W74958  23.377  23.355   0.696  0.1736 -0.1257 -0.1435
31968W        W74959  32.175  24.591  28.202 -0.6184 -0.2638 -0.1653
31969W        W74960  27.357  12.440  24.165  0.0570 -0.1958  0.0476
31970W        W74961  22.201  15.616  21.393  0.0344  0.0639 -0.4876
31971W        W74962  28.603   6.353   8.036 -0.0712 -0.0292 -0.0307
31972W        W74963   9.220  12.088  24.410  0.2915 -0.1494  0.3104
31973W        W74964  18.616   6.072   6.212  0.0840 -0.2543 -0.2024
31974W        W74965  10.038  19.727   6.674 -0.0751  0.1966  0.1552
31975W        W74966  30.771  24.913  27.544  0.0615  0.0690 -0.3019
31976W        W74967  21.747   2.712   2.818  0.0218 -0.0930 -0.0253
31977W        W74968   7.523  29.234  20.943  0.1767  0.2969  0.0677
31978W        W74969  23.503   5.492   7.737 -0.0089 -0.0196  0.3850
31979W        W74970  28.766  15.525  15.136  0.0069  0.0384  0.2329
31980W        W74971   8.669   5.226  28.654 -0.2723 -0.5310  0.0459
31981W        W74972  20.423  12.456   6.560  0.0198 -0.1645  0.2245
31982W        W74973  27.683   5.831  23.699 -0.2674  0.0996 -0.0322
31983W        W74974  26.302   4.918  16.216  0.2316 -0.1126  0.1013
31984W        W74975   6.678  13.785   2.395 -0.1233  0.3050 -0.0014
31985W        W74976  15.025  24.449  24.578 -0.1555  0.0008 -0.1838
31986W        W74977   5.880  30.688   2.217 -0.3938  0.4113  0.0715
31987W        W74978   1.833   3.670  16.276 -0.2119 -0.3549 -0.0915
31988W        W74979  28.166  33.363  26.531  0.4348  0.0330 -0.2599
31989W        W74980   1.614   2.657  20.357  0.0986 -0.1595  0.1181
31990W        W74981   1.183  15.979   6.121  0.1051 -0.1835 -0.0572
31991W        W74982  22.340  27.762   9.504  0.1425 -0.2946 -0.0536
31992W        W74983  22.912  12.897   7.998  0.0173 -0.2958  0.0002
31993W        W74984  15.865  29.508  28.652 -0.2592 -0.0807  0.2481
31994W        W74985  17.884  12.078  26.683  0.4034  0.1912 -0.1095
31995W        W74986  26.943  15.180   7.517  0.2152 -0.1331 -0.0986
31996W        W74987  13.151  12.686   8.774  0.0957 -0.0493  0.1389
31997W        W74988  33.326  19.717  25.692 -0.2178 -0.0981 -0.0139
31998W        W74989  27.741  19.778   5.062  0.3109  0.1092  0.0510
31999W        W74990  22.909   9.377   2.623 -0.2627  0.0244 -0.0976
32000W        W74991  23.871   4.264  27.090  0.0407 -0.1102  0.2126
32001W        W74992  19.262  24.209   8.092 -0.2846  0.0930 -0.1877
32002W        W74993  20.858  17.281   7.436  0.0419 -0.1085  0.2706
32003W        W74994  33.118  10.472   5.094  0.0133 -0.1407 -0.1058
32004W        W74995  17.542  14.413  22.532  0.0551  0.0056  0.0420
32005W        W74996  20.626  10.925  16.316 -0.1454  0.2562  0.1053
32006W        W74997  28.963  32.117  29.220 -0.1631  0.1519  0.0083
32007W        W74998  31.500  32.180   7.043  0.1367  0.1253  0.1480
32008W        W74999  26.971  17.782   0.566 -0.3445 -0.0820 -0.1224
32009W        W75000  30.247  12.383  26.485 -0.3272 -0.1312  0.2883
32010W        W75001   9.704  28.371   9.945 -0.1773  0.0050  0.0222
32011W        W75002  28.510  25.020   5.353  0.1189  0.2763  0.0831
32012W        W75003  30.393   5.798   4.301  0.0387  0.1305  0.0503
32013W        W75004  31.383   6.933  20.517 -0.0775 -0.4596 -0.2852
32014W        W75005  25.030   7.925  24.255  0.1568 -0.2591  0.1573
32015W        W75006  27.950  27.889  28.031 -0.3102 -0.1561  0.0854
32016W        W75007  25.355  18.854  27.443  0.0129  0.0564  0.2005
32017W        W75008  12.760  19.369   3.989  0.2460  0.1194 -0.0207
32018W        W75009   4.812   2.589   2.440  0.0780  0.1178 -0.0139
32019W        W75010   5.974  20.541   1.002  0.1707  0.1949  0.3372
32020W        W75011   3.290   8.490   2.386 -0.1664 -0.0571  0.3118
32021W        W75012   8.306  19.400  22.400 -0.1087 -0.0149  0.3153
32022W        W75013  24.290  33.993  25.425  0.1312 -0.1225 -0.2427
32023W        W75014  23.193  22.444  15.015 -0.4436  0.0121  0.1562
32024W        W75015  30.491   4.986  19.606  0.0271 -0.1925  0.0725
32025W        W75016  26.020  26.074  19.465  0.0569  0.2312  0.0921
32026W        W75017   3.173  23.439   9.747 -0.2948 -0.1331  0.0710
32027W        W75018  21.409  25.880  24.427 -0.1200  0.2706 -0.1305
32028W        W75019  34.594  29.883   1.942  0.1198  0.0364  0.0317
32029W        W75020  18.016   1.725   8.318 -0.0622 -0.0431  0.1150
32030W        W75021  22.539  18.081   2.276 -0.3997  0.2840 -0.3280
32031W        W75022  32.344  26.552  25.102 -0.2385 -0.0815 -0.2308
32032W        W75023  19.269  17.504  24.654  0.3473 -0.2315 -0.2729
32033W        W75024  17.900  26.574  25.261 -0.0696  0.1984  0.1426
32034W        W75025  23.806  19.095   5.164  0.4925 -0.1705 -0.1095
32035W        W75026  20.685  33.160   6.162  0.2554  0.0471  0.1380
32036W        W75027  10.856   2.972   3.553  0.0716 -0.0043 -0.2112
32037W        W75028  26.455  20.864  27.175 -0.0788 -0.0527 -0.1741
32038W        W75029  22.904   9.785  23.547 -0.0316 -0.5155 -0.0110
32039W        W75030  33.205   8.982   5.750 -0.0515 -0.1139 -0.2371
32040W        W75031  14.820   7.706  15.930  0.1794 -0.2512  0.1913
32041W        W75032   3.474  15.794   8.114  0.0087 -0.2154  0.0812
32042W        W75033  30.057   3.548   3.941  0.5586 -0.0004  0.0764
32043W        W75034  20.995  12.066   5.890  0.1615  0.1463 -0.2406
32044W        W75035   1.716   9.860  16.949 -0.3319  0.1283  0.0393
32045W        W75036  16.332   3.363   4.811 -0.0697 -0.1312 -0.3739
32046W        W75037   6.927  23.649  27.044 -0.0961 -0.1290 -0.0030
32047W        W75038  24.464  34.328   6.762 -0.0156 -0.0926 -0.0292
32048W        W75039   6.274   9.294  25.817 -0.0272 -0.0677 -0.2060
32049W        W75040   1.437   5.406   6.541 -0.2791  0.2708 -0.1030
32050W        W75041  16.339  11.204  17.758 -0.4190 -0.0815  0.1060
32051W        W75042  15.569  13.548   3.046 -0.2950  0.1711 -0.0884
32052W        W75043  21.760  30.934   2.018  0.0792 -0.0950  0.1105
32053W        W75044   6.889   2.888  26.102  0.1537  0.3382 -0.0736
32054W        W75045  22.298  17.871   5.185 -0.0755 -0.1500 -0.0196
32055W        W75046  15.950  10.219   1.851 -0.1536 -0.0832 -0.0003
32056W        W75047   4.564  31.124   6.541  0.0984 -0.4100  0.0456
32057W        W75048  27.107  33.618   3.731  0.2185  0.0790  0.1935
32058W        W75049  32.369   8.717  28.756  0.1969 -0.0583  0.0771
32059W        W75050  18.549  11.837   9.431  0.4035  0.1227  0.1121
32060W        W75051  27.651  14.524   9.089  0.0003  0.0080  0.2811
32061W        W75052  14.576   0.392   8.149 -0.0909 -0.0855  0.1754
32062W        W75053  24.057   2.628   3.693  0.0180 -0.0436 -0.1241
32063W        W75054   3.623  10.505  24.157  0.1307 -0.2109 -0.0795
32064W        W75055  26.220  16.090  10.478  0.1494  0.0436  0.3666
32065W        W75056   0.564   5.595   4.707 -0.2435 -0.2585  0.0555
32066W        W75057  30.089   2.515   8.659  0.1398 -0.1634 -0.0618
32067W        W75058   2.320  17.163   5.497 -0.0305  0.3766  0.0345
32068W        W75059  22.262  12.280  17.861 -0.1770 -0.1884  0.2005
32069W        W75060  24.682   8.171   1.964  0.1280 -0.0713  0.0962
32070W        W75061   1.322   0.386  21.986 -0.2129 -0.0161  0.1207
32071W        W75062  21.677   6.788   2.334 -0.1627  0.0765  0.0910
32072W        W75063  30.467  14.288  21.487 -0.0763  0.0625 -0.0257
32073W        W75064  30.097  24.667   4.692  0.3482  0.2683  0.0007
32074W        W75065  22.904  17.326   5.107  0.1834  0.1950 -0.2003
32075W        W75066   3.156  22.147   9.853  0.2114  0.0855  0.0135
32076W        W75067  34.537  19.096   1.254  0.1318 -0.1532  0.4740
32077W        W75068  19.482  31.688   6.885 -0.0147 -0.2526 -0.2895
32078W        W75069   3.978  16.205  26.103  0.2145  0.0993 -0.2242
32079W        W75070  24.554  14.533   0.878  0.0455  0.3638 -0.0871
32080W        W75071  23.102   2.463   5.879 -0.1116 -0.0427 -0.0974
32081W        W75072  12.654   9.819   3.926 -0.0224 -0.0961  0.1345
32082W        W75073  31.514   2.854   5.103  0.1298 -0.2388 -0.0622
32083W        W75074  16.059  19.010   0.938 -0.4534 -0.1847  0.4338
32084W        W75075  28.135  10.610  28.624 -0.0496 -0.0100 -0.0044
32085W        W75076  27.110  12.172   7.565  0.5570  0.2420  0.1896
32086W        W75077   4.615   9.331   5.676 -0.0462 -0.0564 -0.1362
32087W        W75078  29.224   6.284   8.767  0.0697 -0.3713  0.1341
32088W        W75079  21.720   7.510  27.897  0.3953  0.1284  0.0948
32089W        W75080  10.795  10.377  28.904 -0.1492  0.1563 -0.2119
32090W        W75081  29.846  12.195  27.479  0.2306 -0.0189 -0.0156
32091W        W75082  24.432   7.232   1.492  0.0202 -0.0294 -0.2115
32092W        W75083   3.002   4.774   8.869 -0.1178  0.0705  0.0709
32093W        W75084  24.613  17.661  19.318  0.1504 -0.1091 -0.3661
32094W        W75085  33.245   8.964   3.615 -0.2416  0.2329  0.0514
32095W        W75086   7.856  31.966   0.308 -0.0952 -0.0749 -0.3420
32096W        W75087  12.312   5.652   5.203 -0.0915 -0.2304 -0.0250
32097W        W75088   0.045   8.500   5.161  0.0101  0.0154 -0.1079
32098W        W75089   3.369  10.999  19.581  0.1258 -0.1883 -0.1229
32099W        W75090  31.808  22.164   5.181  0.2685 -0.3711 -0.0861
32100W        W75091  23.483  14.389   1.672  0.1071 -0.1216  0.1009
32101W        W75092  13.169  10.166   4.051  0.0478  0.2445  0.2355
32102W        W75093  24.428   7.282   6.453 -0.0170 -0.0951 -0.0820
32103W        W75094  32.499  23.250   5.659  0.3326 -0.2247  0.0880
32104W        W75095  21.385  27.058  27.703 -0.2161 -0.2787 -0.1099
32105W        W75096  22.995  16.961  23.476 -0.2033 -0.1239  0.1061
32106W        W75097   8.604   0.226   6.872 -0.0833  0.1251 -0.0314
32107W        W75098  29.211  27.082  28.267 -0.4213 -0.0644  0.0609
32108W        W75099  25.329   6.058   8.323 -0.0585 -0.0222 -0.3431
32109W        W75100  25.987  14.882   7.621 -0.0444  0.0189  0.1420
32110W        W75101  26.016  12.238  28.008  0.1009  0.1224 -0.1839
32111W        W75102  16.076  14.983  15.748 -0.0344 -0.0562  0.2151
32112W        W75103  29.684  31.622  26.431  0.0539 -0.0748 -0.1633
32113W        W75104  33.684   4.300  13.919 -0.0915  0.1536  0.3825
32114W        W75105  29.296   2.619  26.733  0.2299 -0.2200 -0.1949
32115W        W75106  15.743   9.038  24.972 -0.0962 -0.0834 -0.1818
32116W        W75107  20.781   9.610   6.988  0.0221  0.7454  0.0786
32117W        W75108  20.014   3.158  17.371 -0.0301  0.0455 -0.0762
32118W        W75109  14.971   6.022  21.251  0.0438 -0.3025  0.3346
32119W        W75110  24.312  26.288   5.448 -0.1834  0.0295  0.0580
32120W        W75111  32.550  14.600   1.881  0.0402 -0.1341  0.0945
32121W        W75112  20.607   0.244  26.769  0.0942  0.0489 -0.1603
32122W        W75113  33.822  11.896   5.324 -0.0059  0.1709 -0.3723
32123W        W75114  26.416  17.260   8.564  0.0128 -0.1713 -0.0234
32124W        W75115   2.900  29.111  25.659  0.0377 -0.0843 -0.1025
32125W        W75116  21.851  21.784   5.394 -0.1116  0.1862 -0.2381
32126W        W75117  16.128  19.619  25.926 -0.1381  0.0179 -0.2549
32127W        W75118  12.137  12.347   8.991 -0.4433 -0.0725 -0.0944
32128W        W75119   0.200  13.144  25.399  0.1418 -0.2157 -0.2028
32129W        W75120  32.543   8.467   4.638 -0.3876 -0.0114  0.1181
32130W        W75121  20.356  31.184   0.020 -0.2407 -0.0886 -0.1335
32131W        W75122  23.414   3.369   5.583  0.3591  0.2592 -0.1203
32132W        W75123  22.561  14.997  19.544  0.1729 -0.4547 -0.1254
32133W        W75124   3.385  22.967   4.185  0.0589 -0.3342 -0.0235
32134W        W75125   7.518  14.076   8.895 -0.1270  0.0574 -0.2500
32135W        W75126  23.689  33.833   5.762  0.1489  0.3109  0.0486
32136W        W75127   8.876  19.081   8.926 -0.3249 -0.0235 -0.0531
32137W        W75128  31.663  20.084  27.508  0.2586  0.1025  0.1219
32138W        W75129  25.475  32.211  23.838  0.1694  0.1940  0.0514
32139W        W75130  19.707  12.776  19.900 -0.0302  0.1754 -0.3578
32140W        W75131  19.733  25.853   5.649  0.0804  0.1542  0.0710
32141W        W75132  32.920   4.910   9.671 -0.0673  0.0314 -0.2037
32142W        W75133  26.141   9.897   5.836  0.3248  0.2301  0.0597
32143W        W75134   1.084  18.021  28.448  0.3329  0.4085 -0.1355
32144W        W75135  19.231  18.760  22.435 -0.1315  0.1014 -0.1938
32145W        W75136  32.856  18.600   6.078 -0.2462 -0.0749  0.0582
32146W        W75137  10.980  13.648   7.621  0.1590  0.4021 -0.1767
32147W        W75138   1.905  33.545   6.760 -0.2841  0.0181  0.0396
32148W        W75139  24.726   4.177   5.125 -0.1041 -0.0628  0.0782
32149W        W75140  26.652  16.417   1.412 -0.1781 -0.0628  0.3521
32150W        W75141  14.559  16.112   6.159  0.0722 -0.0424  0.0412
32151W        W75142  13.117  31.866  27.367 -0.0363 -0.1103  0.1043
32152W        W75143  24.079   5.153  14.626  0.2274 -0.0192 -0.1172
32153W        W75144  30.258  12.960   6.270 -0.0612  0.1580  0.2325
32154W        W75145  28.386   3.982   6.371 -0.0487 -0.0623 -0.2593
32155W        W75146  26.960   7.006  26.179 -0.3918  0.0562  0.1287
32156W        W75147   7.272   3.575   1.647  0.0588  0.2093  0.2067
32157W        W75148  20.291  34.164  28.789 -0.0583  0.0187  0.4025
32158W        W75149  31.279   7.138   4.385  0.1212 -0.0421  0.0005
32159W        W75150  25.963   8.723   8.300 -0.0617  0.0509  0.3782
32160W        W75151  22.122   0.630   7.337  0.4074  0.0002  0.1304
32161W        W75152  21.067  12.579   2.333  0.1435 -0.1092 -0.3283
32162W        W75153  24.616  14.176   8.366  0.1669  0.1000 -0.0476
32163W        W75154   2.000   3.717  25.329  0.0716 -0.0426 -0.3397
32164W        W75155  30.085  10.896   2.396 -0.2913 -0.0388  0.1921
32165W        W75156  34.517   3.957   8.381  0.0716 -0.2115  0.0830
32166W        W75157  33.130   6.207   6.721 -0.0609  0.0049  0.1358
32167W        W75158  18.486   1.502   8.231 -0.2075  0.0558 -0.0120
32168W        W75159  27.493  21.230  25.259 -0.3350  0.1962 -0.1366
32169W        W75160  21.556  15.859   0.563 -0.2928 -0.0996 -0.2317
32170W        W75161  14.708  32.676   0.585  0.0558 -0.1136  0.0503
32171W        W75162  23.739  11.974  27.874  0.1538 -0.5932  0.1080
32172W        W75163  30.765  15.538  20.284 -0.2878  0.1701  0.0445
32173W        W75164  34.581  29.464   4.965 -0.0738 -0.4626 -0.1118
32174W        W75165   0.333  14.669  21.215 -0.0009 -0.3083 -0.1558
32175W        W75166  22.478  11.363  20.541  0.1228  0.1805 -0.0465
32176W        W75167  17.735  23.684  15.197  0.1162 -0.2082 -0.3680
32177W        W75168   2.334   8.517  10.262  0.0944 -0.3201 -0.0739
32178W        W75169   3.840  33.299   6.078  0.2768  0.3869 -0.0033
32179W        W75170  20.784  12.354  24.959  0.1658  0.0729 -0.0990
32180W        W75171  27.624  22.662   9.289 -0.0060 -0.1587 -0.0480
32181W        W75172   1.821  22.315  27.379 -0.1032  0.1516  0.1346
32182W        W75173  20.024   1.564  28.737 -0.1383  0.0223 -0.0805
32183W        W75174  20.958  25.098   0.104 -0.0328 -0.0114  0.1767
32184W        W75175  25.146  28.815   6.269 -0.2358  0.0019  0.2071
32185W        W75176  28.694  18.767   2.121  0.1741 -0.2207  0.0004
32186W        W75177  12.518   4.288  10.922 -0.1555  0.1434  0.0250
32187W        W75178  11.401  11.162   3.522 -0.1471  0.0984  0.2270
32188W        W75179  23.805  28.285  20.534 -0.1536 -0.2103 -0.1128
32189W        W75180   3.410  10.803  11.574 -0.1536 -0.3207  0.2860
32190W        W75181   5.283  13.191  29.017  0.0131 -0.4021  0.2556
32191W        W75182  13.483   8.175  22.561  0.1301 -0.1285  0.1299
32192W        W75183  29.218   8.824  10.361 -0.0401  0.4601 -0.0354
32193W        W75184  28.499  12.480  23.307 -0.0051  0.1685  0.1182
32194W        W75185  18.264  17.520   7.435 -0.2244  0.0939  0.0657
32195W        W75186  28.744   6.997   7.077 -0.2379 -0.1150  0.0689
32196W        W75187  16.973  11.235  28.717 -0.1857 -0.0122 -0.1358
32197W        W75188  26.860  13.837   7.773 -0.0729  0.3114  0.1814
32198W        W75189  31.025  19.217  14.084  0.0940 -0.0837 -0.0436
32199W        W75190  30.502  13.828   5.721 -0.0669  0.0199  0.2948
32200W        W75191  17.787  25.327   2.256 -0.1021 -0.0692  0.4565
32201W        W75192  33.646   2.165   9.527 -0.2340  0.1272 -0.0876
32202W        W75193  22.993   5.281  27.961 -0.4050 -0.0416  0.1852
32203W        W75194  30.549   6.280  23.159 -0.0007  0.1619  0.2022
32204W        W75195  32.047  19.277  25.525 -0.1067 -0.0355  0.1778
32205W        W75196  12.146  16.565  28.180 -0.4725  0.2179 -0.0608
32206W        W75197   7.229  26.513  20.510 -0.1029 -0.0080 -0.0301
32207W        W75198  18.948   7.138   5.398  0.1431  0.1917  0.1665
32208W        W75199   1.227  28.356   8.835 -0.0081  0.3025  0.1178
32209W        W75200  16.819  15.726   2.524 -0.0872 -0.2168  0.1396
32210W        W75201  25.504  20.500   0.865  0.0507 -0.0843  0.0321
32211W        W75202  17.321   7.887  16.142  0.2611  0.0369  0.1671
32212W        W75203  23.130   3.930  27.166 -0.0499  0.3192 -0.4602
32213W        W75204  24.395  18.861   8.939  0.0503 -0.0688  0.1334
32214W        W75205  29.682   6.875   9.370 -0.1129  0.0502 -0.2817
32215W        W75206  15.027   8.958   3.000 -0.0906  0.0739 -0.1521
32216W        W75207  23.158  13.248  24.247  0.0747  0.1320  0.0732
32217W        W75208  32.475  17.547   6.607  0.2212 -0.3465 -0.0227
32218W        W75209  28.663  33.412  29.091 -0.0152  0.0864 -0.1586
32219W        W75210  22.605  17.034  22.600 -0.0099 -0.0372 -0.1014
32220W        W75211   3.809  20.990   8.828 -0.0241 -0.0231  0.1723
32221W        W75212   7.315  22.085   1.463  0.3988 -0.2127 -0.2455
32222W        W75213  20.460   0.677   8.337 -0.0303  0.1369  0.0093
32223W        W75214  22.475  10.381  26.012  0.0048 -0.1396 -0.2017
32224W        W75215  29.311  21.332   1.602 -0.2822 -0.0598 -0.3644
32225W        W75216  14.814   8.089  10.760 -0.0796  0.5566 -0.0408
32226W        W75217  30.636  18.973   0.675 -0.3318 -0.1482  0.1869
32227W        W75218  17.112   7.647   9.659  0.2812  0.0330 -0.3390
32228W        W75219  32.570   0.041  29.185 -0.0462  0.0813 -0.0386
32229W        W75220  20.929  12.807  23.021  0.2057  0.1839  0.3897
32230W        W75221  21.785  15.084  28.808 -0.1081  0.3791  0.1826
32231W        W75222  27.522  13.653   5.959 -0.1918  0.0802  0.0083
32232W        W75223  29.875  28.370  18.685  0.0670 -0.1742 -0.1170
32233W        W75224  31.839  15.258  22.760 -0.2639  0.0817  0.3317
32234W        W75225   1.828   1.200  19.490  0.0477 -0.0126 -0.1273
32235W        W75226  10.511  11.458  10.896  0.0385 -0.0167  0.0014
32236W        W75227  31.117  21.346  27.999  0.0960 -0.2128 -0.2550
32237W        W75228  15.949   5.507  28.640  0.0847 -0.0482 -0.0629
32238W        W75229  22.303   2.398   3.628 -0.2310  0.0435 -0.1179
32239W        W75230  20.004  16.245  25.914 -0.0377 -0.0657  0.3073
32240W        W75231  24.473  11.541  26.671  0.1246 -0.0666  0.2446
32241W        W75232   4.475  15.236  10.238 -0.1063 -0.5479 -0.0354
32242W        W75233  14.985  23.076  27.313  0.0660 -0.1505 -0.0815
32243W        W75234  29.870  15.199   0.576  0.2149 -0.2797 -0.0383
32244W        W75235  24.600  13.570  24.281  0.1833  0.2341  0.0663
32245W        W75236   7.726  22.401  18.531  0.0227  0.1773 -0.0700
32246W        W75237  30.529   2.249   0.245 -0.1036 -0.1794 -0.1085
32247W        W75238  26.722  29.193   4.582 -0.1795 -0.4789  0.1733
32248W        W75239  21.605  14.712  24.992 -0.1145 -0.3420  0.0812
32249W        W75240  18.159   7.012  21.821  0.1744 -0.1042 -0.0500
32250W        W75241  20.945   0.404   2.044  0.3703  0.1140  0.1043
32251W        W75242   9.766   9.528   8.643  0.1225  0.0723  0.2173
32252W        W75243  25.847  30.182  24.937 -0.2208  0.1319  0.2090
32253W        W75244  27.477   3.361  27.784  0.3267 -0.1365 -0.1151
32254W        W75245  17.643  32.816   7.081  0.1314 -0.0679 -0.2972
32255W        W75246  31.788  30.258  28.649  0.0079  0.0013 -0.0076
32256W        W75247  24.779  25.417   8.997  0.0569  0.0827 -0.0162
32257W        W75248  22.934   1.328   3.925  0.0595  0.1609 -0.1109
32258W        W75249  33.329   4.267   7.684 -0.0545  0.0173  0.1128
32259W        W75250  23.436  12.249  20.745 -0.0059 -0.1027  0.0529
32260W        W75251   7.883  23.126   6.085  0.0740 -0.0629 -0.2243
32261W        W75252  18.703  29.865   4.129  0.0830 -0.0110 -0.2335
32262W        W75253  12.245   6.771  27.729  0.1160  0.1040  0.0642
32263W        W75254   0.733   9.773   2.952 -0.1760  0.2037 -0.2030
32264W        W75255  34.635   4.005   1.293 -0.2284 -0.0968 -0.0894
32265W        W75256   0.361  28.388  17.028 -0.1685 -0.5492  0.2198
32266W        W75257  20.466   2.045   6.506  0.0679  0.1474 -0.0770
32267W        W75258  30.452  28.326   4.551  0.2813  0.0157  0.0345
32268W        W75259  23.136  14.823  21.406 -0.0876 -0.0424  0.1507
32269W        W75260   0.727  15.602   3.116  0.1105 -0.1199 -0.1348
32270W        W75261  18.846  19.304   3.422  0.0211 -0.2880  0.0677
32271W        W75262  15.598   8.765  27.259 -0.0673 -0.1157 -0.2401
32272W        W75263   6.659  11.019   6.120  0.0863 -0.0973 -0.0320
32273W        W75264  16.505  11.919   1.506  0.0405  0.2677  0.1656
32274W        W75265  23.998  19.605  17.265 -0.3018 -0.0687 -0.0458
32275W        W75266  13.042   0.161   4.059 -0.2144 -0.0328  0.2536
32276W        W75267  30.310   7.070   4.516  0.2663 -0.1922  0.0173
32277W        W75268  17.278  11.220   1.235  0.2789 -0.1807 -0.3852
32278W        W75269  18.921  30.650  13.915  0.0139 -0.2208 -0.2692
32279W        W75270   2.677  28.884  29.123  0.1441 -0.1344  0.0367
32280W        W75271  33.731  18.247   8.238 -0.2021 -0.2169  0.0965
32281W        W75272  20.126  28.389   3.254  0.0075 -0.2085  0.2215
32282W        W75273  27.908  22.383  28.765  0.2614 -0.0961  0.0233
32283W        W75274  34.734  10.901  27.463 -0.1338 -0.1860 -0.2500
32284W        W75275  33.782  29.516   8.758 -0.1789  0.1655  0.0466
32285W        W75276  27.608   3.293  20.679  0.0984  0.2888 -0.2623
32286W        W75277   7.950  13.282   7.784  0.0394 -0.1404  0.4123
32287W        W75278  24.104  10.499   1.120  0.0113 -0.1705  0.0193
32288W        W75279  19.037  11.223   8.979  0.1609 -0.0061 -0.0393
32289W        W75280  14.060   6.447   6.422 -0.3778 -0.0518 -0.4243
32290W        W75281   3.126  15.376   0.241  0.1474  0.0949 -0.2840
32291W        W75282   5.481   8.709   8.581 -0.0616 -0.0275  0.3434
32292W        W75283  16.748  24.069  24.312  0.0150  0.0623  0.0340
32293W        W75284   3.265  13.699   0.716  0.0575  0.0175 -0.0793
32294W        W75285   8.003  28.136   1.708  0.2723 -0.3925 -0.0278
32295W        W75286   2.144  25.326   3.725 -0.0867  0.1049 -0.1036
32296W        W75287  17.644  17.705   7.863  0.2087 -0.0754 -0.0166
32297W        W75288   4.365  17.070   6.518 -0.0652 -0.0076 -0.3711
32298W        W75289  26.259  11.881   1.411 -0.0766  0.1635 -0.0215
32299W        W75290  33.735  28.012   0.986 -0.0488  0.0153  0.5505
32300W        W75291  29.564  13.720   6.664 -0.0443 -0.1287  0.1995
32301W        W75292  21.793   3.760   5.972 -0.0330 -0.1348 -0.1206
32302W        W75293  28.142  22.658   8.347  0.0642 -0.2198 -0.1958
32303W        W75294   4.852  15.426   5.950  0.0748 -0.0726 -0.2054
32304W        W75295   0.024  16.629   9.938 -0.0414  0.1426 -0.3491
32305W        W75296  31.251  16.220   2.458  0.2166 -0.0395 -0.0975
32306W        W75297   8.855   7.955  28.672  0.3908 -0.1252  0.0240
32307W        W75298  22.890  10.139   8.477  0.3522  0.2377  0.1414
32308W        W75299  27.957   1.037   7.561  0.1888 -0.0048  0.0655
32309W        W75300  32.089  26.726   7.603  0.0294  0.0668  0.1817
32310W        W75301   0.435  18.360   0.963 -0.2724  0.0217  0.1824
32311W        W75302  29.787   5.751  16.057 -0.1809  0.0786  0.1698
32312W        W75303  22.084  26.559   1.676 -0.0849 -0.0458  0.3567
32313W        W75304  18.937  11.591   8.639 -0.3646  0.0515  0.2459
32314W        W75305   0.294  26.564   4.821  0.2981 -0.0620 -0.0663
32315W        W75306  15.250   6.788  26.028  0.3292 -0.0865  0.0518
32316W        W75307  29.660   7.345   9.516  0.2578 -0.1081  0.0693
32317W        W75308  28.904   4.389   5.920 -0.3736 -0.0573  0.0154
32318W        W75309  32.756   8.608  24.314 -0.2230 -0.6226 -0.1703
32319W        W75310   2.868   2.297   5.697  0.2097 -0.1867  0.2826
32320W        W75311  24.351   9.943   9.151 -0.1146  0.1308 -0.5095
32321W        W75312   7.566   4.683  21.253  0.1336  0.4805 -0.2179
32322W        W75313  32.121   5.822  22.159 -0.3472  0.1646 -0.2616
32323W        W75314  21.578   8.449   3.756 -0.0168  0.1223  0.2056
32324W        W75315  31.999   7.706   8.509  0.1694 -0.1837 -0.1040
32325W        W75316  26.054   9.005  21.509  0.0086 -0.3329 -0.0567
32326W        W75317   2.907  33.623   4.892  0.1217 -0.3035 -0.0246
32327W        W75318  33.147  15.796  10.922  0.0245  0.0084  0.0163
32328W        W75319  15.688   1.920  28.767  0.0402  0.1450 -0.1071
32329W        W75320   1.867  10.302   4.979 -0.1586  0.1171 -0.4167
32330W        W75321  33.341  11.388  21.944  0.0767 -0.3533 -0.1904
32331W        W75322   4.990   9.691   8.861 -0.1159  0.0491 -0.1608
32332W        W75323  30.067  15.645   2.552 -0.1896 -0.0832  0.0319
32333W        W75324  20.388  15.289   2.419  0.1079  0.0960  0.2291
32334W        W75325  21.928   4.455  20.922  0.0426 -0.0294  0.1272
32335W        W75326   0.098   0.953   1.182 -0.1452  0.1917 -0.0399
32336W        W75327  22.724  20.231   0.104 -0.1238  0.1137 -0.1452
32337W        W75328  21.547  22.589   4.214 -0.1686 -0.1897 -0.0108
32338W        W75329  34.152  13.956  24.996  0.1023  0.1335 -0.1845
32339W        W75330  17.660  24.968   9.325  0.0532  0.0548  0.0643
32340W        W75331  13.977   5.414   3.103  0.0756 -0.1766 -0.2839
32341W        W75332   4.839  31.658   6.744 -0.0023  0.0134 -0.0677
32342W        W75333  21.886   4.754  28.740 -0.0599 -0.1009 -0.0540
32343W        W75334  14.926  25.263   3.156  0.3475  0.2346  0.0782
32344W        W75335  21.893  17.059   9.430  0.1614 -0.0397  0.1387
32345W        W75336  21.660  17.649   2.059 -0.2687 -0.2574 -0.2993
32346W        W75337  25.213  33.697   8.084 -0.2164  0.0885 -0.1113
32347W        W75338  28.819  13.615   6.832 -0.0255 -0.1607 -0.1026
32348W        W75339  22.728  33.124   3.414 -0.1601 -0.3065  0.0078
32349W        W75340  27.217   5.885  27.329 -0.0743  0.3254  0.1238
32350W        W75341   6.776   5.660   9.560 -0.1575  0.2546  0.0121
32351W        W75342  16.355   4.016   9.582 -0.2192  0.2816 -0.0232
32352W        W75343  12.848   4.563  10.152 -0.1384  0.0767  0.0005
32353W        W75344  20.890   3.971  22.484  0.0806  0.0781 -0.2500
32354W        W75345  16.300  34.322  27.862 -0.0105 -0.0794 -0.1199
32355W        W75346  31.835   6.960  22.736 -0.0298 -0.0281  0.0185
32356W        W75347  15.811  26.319  27.624  0.1534 -0.2124 -0.0899
32357W        W75348  22.144  33.954   9.173  0.0952 -0.2037 -0.0531
32358W        W75349   1.156  21.092   6.730 -0.3234 -0.0622  0.2656
32359W        W75350   7.841   9.508   8.197 -0.4012 -0.1650 -0.0535
32360W        W75351  27.556   2.546  28.625 -0.3767  0.1686  0.2673
32361W        W75352  16.967   3.380  23.398  0.0508  0.3034  0.0085
32362W        W75353  19.728   4.776  24.765  0.2704 -0.0681 -0.0478
32363W        W75354  27.723   9.908   2.220 -0.2311 -0.0512 -0.1197
32364W        W75355  34.540  31.688  22.100 -0.0741  0.1270 -0.2892
32365W        W75356  16.069  20.799   4.806 -0.1107 -0.4126  0.0014
32366W        W75357  28.849   3.840  25.862 -0.0644 -0.1484 -0.1405
32367W        W75358  33.131  13.702  25.149 -0.0353  0.1724 -0.2163
32368W        W75359  23.726  21.614  21.804 -0.0799  0.1012  0.1854
32369W        W75360  25.094  12.879   3.312  0.1168  0.0587  0.0421
32370W        W75361  23.376   3.604   6.661 -0.0965  0.2675  0.1436
32371W        W75362  29.344  13.849  22.398 -0.1139  0.0384 -0.0533
32372W        W75363  24.285  32.724  21.192 -0.1505 -0.1047 -0.2041
32373W        W75364  31.509  22.469  28.713  0.0648 -0.3602  0.0802
32374W        W75365   1.765  22.620   6.557  0.0104  0.0034 -0.0030
32375W        W75366  18.498  19.367   4.770 -0.2562  0.1279  0.1563
32376W        W75367  29.370  16.145  24.875  0.2360 -0.0136  0.1353
32377W        W75368  15.680   6.789   7.088 -0.0513  0.0986 -0.0136
32378W        W75369  26.218  27.561  28.195  0.1967  0.2383  0.1345
32379W        W75370  29.196   5.975   1.382 -0.2545 -0.1066 -0.1668
32380W        W75371  25.807   5.940   0.111 -0.2358 -0.0467  0.0097
32381W        W75372  31.122  14.749  25.812 -0.0696  0.5228  0.1507
32382W        W75373  15.026  22.869  23.346 -0.0112  0.2826 -0.5855
32383W        W75374  21.998  13.378  25.584  0.0185 -0.0892 -0.1426
32384W        W75375  21.442  24.610   8.771  0.1568 -0.1053  0.1825
32385W        W75376  23.454  18.061   5.354 -0.2395 -0.0601  0.0081
32386W        W75377  11.589  16.997   0.185 -0.0047 -0.1609  0.2228
32387W        W75378   1.172  13.969   8.497  0.0353  0.1556 -0.3009
32388W        W75379  26.490  18.327   8.696 -0.0184 -0.1970  0.1776
32389W        W75380   9.944  11.892  28.637 -0.0672 -0.1674  0.2934
32390W        W75381  20.637   2.942   4.642  0.3255  0.0249  0.4128
32391W        W75382  26.438  16.998   8.982 -0.1655 -0.2802  0.2343
32392W        W75383  24.017  18.316   9.460  0.1956 -0.1356  0.0356
32393W        W75384  25.177   8.384   4.488  0.2481  0.0579  0.0504
32394W        W75385  32.617  20.321   4.189  0.1146  0.0568  0.0521
32395W        W75386  11.861   9.164  21.195 -0.2344  0.1494  0.3404
32396W        W75387  25.886  29.393  22.539  0.2016  0.2344 -0.2096
32397W        W75388   8.660   9.594   6.083  0.1214 -0.2169 -0.0854
32398W        W75389   7.691  15.710   6.333  0.0382  0.1523  0.0006
32399W        W75390  21.513  24.850  21.282  0.3135 -0.1727 -0.1042
32400W        W75391  31.846  12.845   3.366  0.2044 -0.1255 -0.2699
32401W        W75392   6.479  14.672   7.847 -0.3967 -0.0785 -0.3147
32402W        W75393  29.019   4.820   8.075  0.0775 -0.1155 -0.2548
32403W        W75394  32.378   9.163  21.537  0.0722 -0.0049  0.0491
32404W        W75395  12.994  34.520   8.404  0.0329  0.1182 -0.1143
32405W        W75396  23.371   6.115   1.554 -0.1083  0.2426 -0.1565
32406W        W75397  17.057   8.252  28.384 -0.0872  0.0599  0.0663
32407W        W75398  15.536   6.448  23.897  0.0458 -0.2006  0.0399
32408W        W75399  29.895  23.046  24.334 -0.0832  0.1352  0.1746
32409W        W75400  27.217  29.505   6.036 -0.0338 -0.0287 -0.1224
32410W        W75401  25.891   9.656  24.752 -0.0700  0.0843  0.1746
32411W        W75402  25.740  16.827   5.257 -0.2773  0.2932 -0.0635
32412W        W75403  26.047  34.595  25.725 -0.1056 -0.0893 -0.1485
32413W        W75404  10.909  33.319  14.896 -0.1127 -0.1331  0.1256
32414W        W75405  18.274   2.198  20.386  0.0023 -0.0078 -0.4561
32415W        W75406   5.321   6.906   1.171 -0.0096  0.2162  0.4193
32416W        W75407  25.210  16.344   4.089 -0.1601  0.0241  0.1860
32417W        W75408  26.955  12.633  26.090 -0.2207  0.0340  0.3517
32418W        W75409   0.098  13.787   7.582 -0.1195  0.0913  0.2126
32419W        W75410   7.298  12.988   8.637 -0.1611 -0.1343  0.0192
32420W        W75411  33.279  11.476   7.489 -0.1205 -0.0585  0.1029
32421W        W75412  11.544   3.096   5.486  0.0420 -0.1783 -0.0303
32422W        W75413  14.590  31.623   4.985  0.2404 -0.1816  0.3975
32423W        W75414  15.010  12.400  21.675 -0.0618  0.3563 -0.3333
32424W        W75415  28.436  11.096  28.783  0.0165  0.0036  0.1750
32425W        W75416  25.629  14.551  28.193 -0.1064 -0.0706 -0.0295
32426W        W75417  24.353   4.937   0.264 -0.0507  0.3314 -0.0713
32427W        W75418  21.546  33.649   8.311 -0.4220 -0.3473 -0.2198
32428W        W75419  32.465  22.940   5.109 -0.1308 -0.0250  0.2674
32429W        W75420  12.592   6.583  21.984 -0.0135  0.0227 -0.0947
32430W        W75421   0.728   8.985   9.107 -0.0505 -0.2470 -0.2973
32431W        W75422  33.555  19.850   4.121 -0.0651 -0.0744 -0.1397
32432W        W75423  24.054  15.345   2.561  0.1190  0.1865 -0.2632
32433W        W75424   2.803  33.197  27.229 -0.0585  0.0919 -0.0195
32434W        W75425   9.309   7.037  26.114 -0.1274 -0.0598  0.1635
32435W        W75426  22.010   2.255  28.875 -0.0126 -0.1216  0.5212
32436W        W75427  31.043  18.618   6.759  0.1379 -0.0225  0.2743
32437W        W75428  33.112   5.954   9.307 -0.0081 -0.0633  0.0120
32438W        W75429   0.088   9.180   2.525  0.2926 -0.0489  0.2611
32439W        W75430   2.537  34.133   0.587 -0.4186  0.1177 -0.1401
32440W        W75431   6.707  11.704   6.005  0.4886 -0.1782 -0.0162
32441W        W75432  10.868  11.141  11.688 -0.1324 -0.2909  0.0518
32442W        W75433  12.294  13.356   0.145 -0.1356 -0.0475  0.1469
32443W        W75434   6.107  15.152  16.076  0.0564  0.0522  0.1140
32444W        W75435   8.784  13.689  11.259 -0.1020  0.1480 -0.2614
32445W        W75436  33.235  19.696   8.556 -0.3639  0.0681  0.0140
32446W        W75437  12.941  12.753   0.695  0.0061 -0.2260  0.3826
32447W        W75438  33.531   9.345  24.207  0.0565 -0.1140 -0.3557
32448W        W75439  20.883  27.924   3.386  0.2492  0.1017  0.2060
32449W        W75440  26.149   0.438   5.401 -0.0865 -0.0803  0.1665
32450W        W75441  17.539  33.129   4.805  0.0957 -0.0925  0.0921
32451W        W75442  30.064  11.824   0.991 -0.0050 -0.1319 -0.0511
32452W        W75443  26.923  13.921   8.735 -0.0707  0.0022  0.3318
32453W        W75444  10.528  13.778   5.093  0.1989 -0.1218 -0.3407
32454W        W75445  32.364  16.625  11.861  0.2801 -0.2887 -0.2656
32455W        W75446  20.030  31.687  29.068 -0.0918 -0.1870  0.1657
32456W        W75447  19.808  21.639  14.610  0.2135 -0.0082  0.1056
32457W        W75448  20.936  15.902   7.529 -0.0457  0.4396 -0.3353
32458W        W75449   2.205  15.364   7.654 -0.0768 -0.1306 -0.0445
32459W        W75450  25.929   2.509  16.542  0.0512 -0.0688  0.1005
32460W        W75451  28.170  18.328   7.206 -0.2128 -0.2198  0.1332
32461W        W75452  23.963  16.607  26.693 -0.0931  0.3274 -0.1801
32462W        W75453  16.968   7.296  27.407 -0.0976 -0.0426 -0.0665
32463W        W75454   2.690  12.649  28.340  0.1409 -0.1104  0.3507
32464W        W75455  27.892  34.580   7.836 -0.3625 -0.0020  0.1147
32465W        W75456  19.652  15.669  24.054 -0.0546 -0.3308 -0.2160
32466W        W75457  30.158  12.316   9.892 -0.0056  0.2279  0.2287
32467W        W75458  18.137   6.072   8.856 -0.0379 -0.0810  0.0759
32468W        W75459  15.522  21.595   5.670  0.2808  0.2384 -0.0378
32469W        W75460  29.052   0.301  28.405  0.2840  0.0208  0.1951
32470W        W75461  26.197  26.801   4.029 -0.0419  0.5161 -0.0294
32471W        W75462   2.808   8.052  10.226  0.1297  0.1450 -0.0037
32472W        W75463   1.524   9.593   9.404 -0.2992 -0.0658 -0.0341
32473W        W75464  13.721  25.396   3.190  0.1047  0.0978  0.1844
32474W        W75465  14.954  30.712   6.390  0.0525 -0.2799  0.3210
32475W        W75466  17.969  12.516  19.800 -0.1763  0.1334 -0.2935
32476W        W75467  22.774   6.449   9.825 -0.1741  0.2062 -0.0135
32477W        W75468  21.967  17.997   2.623  0.1194  0.0561  0.1870
32478W        W75469  17.185  11.504   1.638  0.0766 -0.3988 -0.1460
32479W        W75470  20.453  22.869   3.645  0.0687 -0.2287  0.0581
32480W        W75471  12.787   2.356  10.348 -0.3883 -0.2044 -0.1815
32481W        W75472   0.074   4.652   3.543 -0.1618  0.1765 -0.1279
32482W        W75473  20.016  15.835  28.825 -0.0935 -0.0495 -0.1579
32483W        W75474  21.187   6.801  27.180  0.0873  0.1046 -0.5289
32484W        W75475  27.188  12.284  22.152  0.1231 -0.1980 -0.0879
32485W        W75476  24.069  15.210  18.489  0.1119  0.1156 -0.1766
32486W        W75477  32.687  33.043  26.949 -0.0967 -0.4069 -0.0948
32487W        W75478  34.550   2.551   9.283 -0.0891  0.0105 -0.3097
32488W        W75479  18.207  30.168   5.535  0.0332  0.0946  0.0032
32489W        W75480   7.226   6.537  10.357  0.2691  0.1772  0.0601
32490W        W75481  16.932  10.466   0.856  0.1962  0.2554  0.0273
32491W        W75482  15.293  33.265  26.036 -0.0489  0.1057 -0.0589
32492W        W75483   0.096  22.463  26.451  0.0403 -0.0443  0.3250
32493W        W75484  30.958  33.976   0.197 -0.2557  0.0894  0.1699
32494W        W75485  28.898   7.684   4.931  0.0804 -0.2178 -0.0505
32495W        W75486   2.202   4.774   1.607  0.0827  0.2693  0.0883
32496W        W75487   2.568   0.495   6.347 -0.0974  0.2105  0.1845
32497W        W75488  28.530   6.729   8.472  0.1197  0.0201  0.1307
32498W        W75489  25.470  11.638  28.507 -0.1433 -0.0305 -0.0095
32499W        W75490  23.157   1.569  25.956  0.1967 -0.0472  0.0738
32500W        W75491  17.808   0.258   3.438  0.1382  0.2398 -0.2692
32501W        W75492  26.906   5.994   8.783 -0.1747 -0.4427 -0.0477
32502W        W75493   2.477   3.705   6.610  0.1228 -0.2785 -0.3120
32503W        W75494  33.834   9.864  24.825  0.2585 -0.1900  0.3724
32504W        W75495  27.018   8.978  15.885  0.0175  0.0613  0.0827
32505W        W75496  22.760   8.457   3.378  0.0296 -0.0739 -0.3745
32506W        W75497   4.624  21.356   1.945  0.2999  0.0796  0.1579
32507W        W75498   1.971   9.820   0.713 -0.1341  0.0508 -0.0996
32508W        W75499   5.762  29.658  20.459 -0.0244 -0.1777 -0.2410
32509W        W75500  25.769  33.388  22.346  0.0079  0.0167  0.0699
32510W        W75501   3.023  10.022  11.641  0.0477  0.0860 -0.0328
32511W        W75502  31.814  12.383   6.928  0.0621 -0.0200 -0.0915
32512W        W75503  30.449  10.265   3.504 -0.2094  0.2723  0.1110
32513W        W75504  23.739   9.656   4.516  0.1666  0.0245  0.0101
32514W        W75505   4.011   8.492  10.786  0.1735 -0.0971 -0.1871
32515W        W75506  34.056  34.273  24.315  0.1839  0.2029 -0.0942
32516W        W75507   3.294  20.578   3.155 -0.0848 -0.0622 -0.1034
32517W        W75508  31.370   9.940   4.088 -0.2203 -0.0145 -0.3097
32518W        W75509  32.740  10.784   5.316 -0.2647  0.3156 -0.1679
32519W        W75510  13.627   9.774  28.499 -0.0243 -0.3556  0.0930
32520W        W75511  21.830  25.999   4.644  0.3774 -0.0114  0.2204
32521W        W75512  20.484  17.602   1.945  0.0148 -0.1184 -0.0145
32522W        W75513  22.810   0.125   6.465 -0.0418  0.1268  0.4163
32523W        W75514  28.226   1.348   6.972 -0.0628  0.3718  0.1544
32524W        W75515  31.006  13.609  26.663 -0.0961 -0.2793  0.2257
32525W        W75516   2.142  27.327   7.913 -0.2697  0.0680 -0.3024
32526W        W75517   8.389  31.632  27.804 -0.0820  0.0051  0.1833
32527W        W75518  24.473  10.371   9.409 -0.1699  0.5216  0.2067
32528W        W75519  29.705   4.648   5.873  0.0764  0.1499  0.0781
32529W        W75520  32.442  22.859   8.927 -0.3582  0.2573 -0.0876
32530W        W75521  26.820   3.232  24.328  0.2104 -0.1892  0.0674
32531W        W75522   0.111   9.134   9.839 -0.2280 -0.0758  0.1167
32532W        W75523  20.738  27.398  24.563  0.2390 -0.0570 -0.0089
32533W        W75524  15.658  30.291   4.036 -0.1637  0.0414 -0.0082
32534W        W75525   9.131  24.183  28.809  0.2619  0.4087 -0.0894
32535W        W75526  16.686  14.376  28.065  0.3776  0.1588 -0.0868
32536W        W75527  21.719  13.598   2.301 -0.1517 -0.0504  0.0566
32537W        W75528  28.396  27.036  19.344  0.0956 -0.2910  0.0830
32538W        W75529   0.788   5.537   8.350  0.1871 -0.1856 -0.0452
32539W        W75530  34.148  18.726  27.693 -0.0002 -0.1535  0.4500
32540W        W75531  26.377  11.920   1.869  0.0946  0.2401 -0.3321
32541W        W75532  16.396  12.285   8.245 -0.1842  0.0101 -0.0053
32542W        W75533  10.912  11.620   9.449  0.0572  0.0065  0.2448
32543W        W75534  30.903  15.288   9.582 -0.2842 -0.2604 -0.1282
32544W        W75535  21.606  21.036  13.716  0.1894 -0.0739  0.0029
32545W        W75536  32.966  27.404   7.813  0.0439  0.4330  0.0931
32546W        W75537  28.076  21.932  29.013  0.2164 -0.2664  0.5561
32547W        W75538  27.870  24.490  26.906  0.1436 -0.1587  0.0998
32548W        W75539   1.297  33.023   4.714 -0.0701  0.1094  0.0815
32549W        W75540  34.023  13.486   5.795 -0.1564 -0.1110 -0.2504
32550W        W75541  26.531  33.648   6.635 -0.2205  0.5685 -0.0564
32551W        W75542  14.232   3.709   9.644 -0.0379  0.2800 -0.2812
32552W        W75543  34.315   9.601   1.637 -0.1636 -0.2416  0.1766
32553W        W75544  21.772  16.621  18.741  0.3645 -0.2249  0.1314
32554W        W75545  15.076   3.551  16.316 -0.0745 -0.1839 -0.0194
32555W        W75546  28.063  11.140  21.928  0.0703 -0.0700 -0.0927
32556W        W75547  23.751   8.790  19.906  0.1656 -0.4458  0.0585
32557W        W75548  20.426   6.444   9.402 -0.6526 -0.2298  0.1132
32558W        W75549  25.637   7.458   6.555  0.2187 -0.0370 -0.0991
32559W        W75550   8.259  17.492   9.029 -0.0149  0.0782  0.1524
32560W        W75551  14.160  12.063  22.132  0.0292  0.0050  0.0164
32561W        W75552  25.578  21.627  25.589 -0.3621  0.1943 -0.4272
32562W        W75553  27.470  11.346  25.962 -0.0411 -0.0145  0.3338
32563W        W75554  33.578  28.892  26.469  0.0235 -0.2924 -0.0874
32564W        W75555  21.109  25.739   7.515  0.2603 -0.1940  0.1081
32565W        W75556  10.696  14.533  21.892 -0.4631 -0.1397  0.1842
32566W        W75557  24.543   3.720   2.000 -0.4793 -0.1487  0.2316
32567W        W75558   8.640  10.763  10.419  0.1421  0.0050  0.2658
32568W        W75559  20.651  23.853   1.960 -0.0307  0.0462  0.1230
32569W        W75560  24.928  14.060   8.925 -0.0221  0.0499 -0.0314
32570W        W75561  19.612   9.472   8.379  0.2746  0.1465 -0.3854
32571W        W75562   4.813   0.280   5.176 -0.1917  0.0890  0.0657
32572W        W75563  19.504  14.688   2.533 -0.0709  0.1284 -0.0656
32573W        W75564  10.109   0.447   6.049 -0.0708  0.0123  0.1716
32574W        W75565  15.736  19.136   7.113  0.0207  0.1575 -0.2563
32575W        W75566  32.789   7.651   3.434  0.0705  0.1382  0.0574
32576W        W75567  21.175   6.399  25.138 -0.4749 -0.2464  0.2342
32577W        W75568  23.663   9.309   2.551 -0.0759 -0.1336  0.1812
32578W        W75569  21.230   0.068   1.759 -0.0822  0.0619 -0.0121
32579W        W75570  30.224  34.738  24.299 -0.0078 -0.0786 -0.1468
32580W        W75571  34.724   7.749   9.597 -0.0332 -0.0414 -0.0689
32581W        W75572  31.622  10.294   2.203  0.0027  0.0792  0.0863
32582W        W75573   7.030  18.312   2.526 -0.4241 -0.3140  0.0182
32583W        W75574  16.053   7.365   0.610  0.3621 -0.0628  0.0313
32584W        W75575  13.112  10.145   3.562 -0.0544 -0.1351  0.0923
32585W        W75576  34.240  12.777   2.715  0.0180  0.2081 -0.1348
32586W        W75577  27.970   0.771   6.370  0.0564 -0.0284  0.4474
32587W        W75578  20.673  12.598   7.020  0.0068  0.0493  0.6276
32588W        W75579  34.537  16.892   0.144 -0.1138  0.0342  0.1376
32589W        W75580  29.566  26.799   5.999  0.0513  0.0437  0.1785
32590W        W75581  22.004   6.602   3.649  0.0788 -0.2853 -0.1588
32591W        W75582  11.559   4.722   6.944 -0.4567 -0.0028 -0.0386
32592W        W75583  23.067  32.590  22.264  0.1448  0.0165 -0.1869
32593W        W75584   7.584  29.543   1.910  0.0047 -0.0728  0.2079
32594W        W75585  33.050  11.756   8.447 -0.0804 -0.0295  0.1546
32595W        W75586  18.135  15.241   6.071 -0.2101 -0.1350  0.0697
32596W        W75587   0.194  31.098  19.262 -0.4274 -0.0466 -0.2507
32597W        W75588   4.471   1.949   3.811 -0.0519 -0.0163 -0.0520
32598W        W75589   0.711  12.287   4.148  0.2334  0.3739  0.1618
32599W        W75590  25.578  18.044  23.809  0.0826  0.0283  0.0526
32600W        W75591  27.200  12.724  25.595 -0.1212  0.1009 -0.0771
32601W        W75592   6.607  13.578  10.784 -0.0094 -0.0829  0.0325
32602W        W75593   5.139   9.409  20.236  0.1255 -0.1260 -0.0228
32603W        W75594   9.597  15.922   5.009 -0.1907  0.0542 -0.0555
32604W        W75595   0.323  10.487  27.392 -0.5059 -0.1812 -0.0797
32605W        W75596  21.665  12.395   8.824 -0.0585  0.0851 -0.0780
32606W        W75597   4.083   8.232   6.983  0.0955  0.2380  0.0414
32607W        W75598   8.394  10.987   7.121  0.1257  0.0799 -0.2190
32608W        W75599  29.457  28.569   9.008  0.1785 -0.1350  0.1798
32609W        W75600  18.605   4.329   4.876  0.0578  0.1775  0.2104
32610W        W75601  13.408   9.005  23.450 -0.0771  0.1198 -0.3924
32611W        W75602  29.441   1.775   6.931 -0.0882  0.1902 -0.1715
32612W        W75603  28.090   8.478   9.504 -0.2123  0.1622 -0.0886
32613W        W75604  31.723  13.363   3.400 -0.1874 -0.1094  0.0111
32614W        W75605  22.101  34.613  28.201 -0.0023  0.1386 -0.0591
32615W        W75606  29.303   5.669   3.276  0.1123  0.1777  0.0746
32616W        W75607  33.044   9.723  15.652  0.0159  0.1635 -0.0983
32617W        W75608  33.496   9.661   8.681  0.4291 -0.4887 -0.0645
32618W        W75609   9.277  13.093  24.040  0.1784  0.2674 -0.3529
32619W        W75610  21.764   9.377   0.667  0.1257  0.2647  0.2545
32620W        W75611   5.070  20.391   6.541 -0.1324  0.1780 -0.1143
32621W        W75612  27.277  19.158   8.442 -0.0529 -0.0495 -0.0159
32622W        W75613  17.323  17.621   7.416 -0.0983 -0.0071 -0.1828
32623W        W75614  18.987  26.251  26.769 -0.1122 -0.4060  0.0835
32624W        W75615  11.519  29.855   9.086  0.2244  0.0455  0.2118
32625W        W75616  14.312   6.155  11.282 -0.0241  0.1660  0.2516
32626W        W75617  33.254  16.162   5.548  0.1225  0.0485 -0.1754
32627W        W75618  33.185  16.420  29.153  0.2147 -0.1637 -0.1807
32628W        W75619   0.663   2.112   5.217 -0.2913  0.1086 -0.4484
32629W        W75620  25.941   7.499  25.846  0.1172  0.3131 -0.1492
32630W        W75621  29.287   4.308  18.189  0.0872 -0.0273  0.0634
32631W        W75622   5.525  19.312  24.032  0.1592 -0.1762 -0.2985
32632W        W75623  12.616  14.081   5.318  0.0046 -0.0434  0.0910
32633W        W75624   4.384  33.018   1.348 -0.1638  0.3113 -0.3903
32634W        W75625  23.317  24.033   6.879 -0.0544 -0.4597 -0.3169
32635W        W75626  10.633  33.544   5.893 -0.0038 -0.3504  0.1013
32636W        W75627  19.369  16.605   1.940  0.3311 -0.1427  0.2089
32637W        W75628  19.868  27.386   4.562 -0.2719 -0.1909  0.3880
32638W        W75629  16.413  15.148   4.632 -0.0010  0.2961  0.0852
32639W        W75630  29.347  20.950   2.541  0.0717  0.1863  0.0124
32640W        W75631  32.541  14.288   5.294  0.1504  0.0347 -0.0528
32641W        W75632   4.674  33.633  22.375 -0.2281  0.1395  0.1511
32642W        W75633  28.877  20.128  23.899  0.0621 -0.3501  0.0887
32643W        W75634  10.376  23.286   7.342 -0.0891  0.0488 -0.2066
32644W        W75635  19.657  17.865  24.895  0.2230  0.1710  0.0850
32645W        W75636  32.216   8.364  26.494 -0.4517 -0.3351  0.2945
32646W        W75637   7.262   9.465   5.660 -0.0078 -0.1257 -0.0687
32647W        W75638  18.779   6.803   8.778  0.0154  0.0493  0.0632
32648W        W75639  21.673  34.188   7.380  0.0401 -0.0324  0.2424
32649W        W75640  23.493  26.351   2.240 -0.0675 -0.0419 -0.0797
32650W        W75641  34.093  26.585   5.663 -0.0141  0.1139  0.0771
32651W        W75642   8.293  26.823   6.272  0.1607  0.1245  0.1142
32652W        W75643   6.737  16.870   4.973 -0.0804  0.0765  0.0864
32653W        W75644  27.800  17.122  15.782 -0.1459  0.0423  0.2480
32654W        W75645  14.586  17.821  29.230  0.3770 -0.1150  0.1544
32655W        W75646  26.912  29.513  20.000  0.0419  0.2130 -0.0388
32656W        W75647  27.331  12.259  28.053 -0.0282  0.1284  0.4001
32657W        W75648  32.726   2.776   7.570 -0.1091  0.0274 -0.0370
32658W        W75649   8.655   7.761   3.920 -0.0976 -0.2365  0.0585
32659W        W75650  31.813  15.994  10.349  0.1325 -0.0599 -0.0256
32660W        W75651  23.438  18.334  26.743 -0.0794 -0.0458 -0.1064
32661W        W75652  31.708  25.554  29.049 -0.1040 -0.1255  0.0077
32662W        W75653   0.852  12.238  24.853  0.2006  0.1224 -0.0729
32663W        W75654  26.828   2.445   8.725 -0.1408 -0.2259  0.0441
32664W        W75655  22.227  31.668   5.950 -0.1348  0.0091  0.3145
32665W        W75656  31.817   7.711   3.719  0.1095 -0.1810  0.1930
32666W        W75657  27.702  28.073   8.167 -0.1544  0.0235 -0.1324
32667W        W75658  17.149  23.696   7.843 -0.1860 -0.1700  0.0798
32668W        W75659   1.521  21.663   7.694 -0.1203  0.0523  0.1015
32669W        W75660  33.969   9.011   0.866  0.0209  0.1835  0.5443
32670W        W75661   4.390   1.623   4.265  0.1282 -0.1274 -0.0290
32671W        W75662  27.301  21.324  24.730  0.0079 -0.0798  0.2266
32672W        W75663  18.206   8.109   4.002  0.0534  0.1491  0.3011
32673W        W75664  33.433   6.817   7.803 -0.1610  0.1661  0.0204
32674W        W75665  27.040   8.452  15.751 -0.2642 -0.0064 -0.1531
32675W        W75666  31.639   7.709   9.744  0.0265  0.1259  0.1389
32676W        W75667  24.814   9.904  25.377  0.0068 -0.0923  0.0144
32677W        W75668  24.457  12.100   2.480  0.1277 -0.0352 -0.1571
32678W        W75669  20.216  15.108  12.936  0.0227  0.0479 -0.1748
32679W        W75670  13.125  12.363   6.348 -0.1206 -0.1799  0.1360
32680W        W75671  18.896   9.112  18.169 -0.0088 -0.1925  0.2283
32681W        W75672  21.655  13.223   3.158 -0.0111 -0.1461  0.0704
32682W        W75673  32.244  17.849   6.961  0.1993  0.0714  0.1005
32683W        W75674  23.607  10.340  25.070 -0.0097  0.0947  0.0763
32684W        W75675   7.781  27.606   8.253  0.3536 -0.1049  0.0236
32685W        W75676  26.997   1.552   1.627  0.1868  0.0588  0.2230
32686W        W75677  34.218  15.413  10.994  0.0607  0.3034  0.1887
32687W        W75678  33.711   2.831   4.557  0.1535 -0.1669 -0.3491
32688W        W75679  30.282   3.815   6.890  0.1900 -0.1188 -0.0533
32689W        W75680  32.203  19.976   2.856 -0.1307  0.0558 -0.2185
32690W        W75681  32.246  16.284   9.638 -0.0812 -0.0589  0.1383
32691W        W75682   0.697  21.853   4.614 -0.2469 -0.2822 -0.3134
32692W        W75683  27.131   4.978   2.886  0.3034 -0.0767  0.0121
32693W        W75684  21.684   8.714  14.688 -0.0325  0.1897 -0.2953
32694W        W75685  26.924   7.685   7.841 -0.0789  0.0715  0.0342
32695W        W75686  28.540   4.169   9.538 -0.0638  0.0903  0.1845
32696W        W75687   5.887  34.750   1.946  0.2005 -0.0940 -0.1398
32697W        W75688  17.415  10.650   0.022  0.2122  0.0751  0.2839
32698W        W75689   6.010  27.397   3.996 -0.0997 -0.1604  0.1068
32699W        W75690  19.859  10.838   1.512  0.2937 -0.0471 -0.0416
32700W        W75691  29.027  16.544   3.354 -0.0270 -0.0275  0.0317
32701W        W75692  14.360  23.348   4.862 -0.0997  0.0400  0.0351
32702W        W75693  15.908  11.812  21.029 -0.0564  0.0540  0.0176
32703W        W75694  29.366   5.648   5.800  0.1978  0.3947 -0.1913
32704W        W75695  31.649  17.169   8.263 -0.0832 -0.1184  0.3378
32705W        W75696  23.526  17.382   1.694 -0.0469  0.0016  0.3707
32706W        W75697  17.426  13.762  20.477  0.1819 -0.0323  0.1270
32707W        W75698  29.668  18.500  18.823  0.1339 -0.1776  0.2383
32708W        W75699  34.038   8.155   2.909 -0.3376  0.3073 -0.1736
32709W        W75700  24.093   8.139   9.838  0.3175  0.1729 -0.0586
32710W        W75701  25.022   9.454  24.975 -0.2510 -0.1487 -0.2217
32711W        W75702  29.771  10.263   8.244  0.2527  0.1875 -0.0608
32712W        W75703   3.476  13.665  22.948 -0.4841  0.0650  0.3094
32713W        W75704   8.186  22.981   3.646 -0.2046  0.2114  0.2420
32714W        W75705   4.620   0.383   3.224 -0.0694  0.2477  0.1117
32715W        W75706   5.224   4.579   7.796 -0.0372 -0.0412 -0.0961
32716W        W75707  11.794  11.784   5.165 -0.1425 -0.0014  0.1269
32717W        W75708  19.167  16.735  24.126  0.3118 -0.2733  0.1497
32718W        W75709  21.139   5.511   6.453  0.2782  0.2155 -0.1717
32719W        W75710  22.061   6.481  10.147 -0.0331  0.0423 -0.0369
32720W        W75711  14.003   9.767   3.592  0.0869 -0.0153  0.2514
32721W        W75712  26.948   4.876   7.257  0.0447  0.3081  0.0565
32722W        W75713   5.318  15.422   7.693 -0.0893  0.1248  0.3748
32723W        W75714  30.340  33.511   6.723 -0.0495  0.1315 -0.0924
32724W        W75715  25.739   9.533   5.754  0.0037  0.0294 -0.0581
32725W        W75716  30.107  10.176   9.469 -0.3194 -0.0422 -0.1103
32726W        W75717  19.071  16.280   8.947  0.0542  0.1599  0.2183
32727W        W75718  32.020  18.690   4.552 -0.2005  0.2814 -0.0975
32728W        W75719  24.048   0.824  29.233 -0.0742 -0.2036 -0.3272
32729W        W75720  24.918  19.326  25.227  0.2056  0.1873 -0.0856
32730W        W75721   1.578  22.620   9.749  0.1033  0.0001 -0.0149
32731W        W75722   6.576   5.190   0.197  0.0582  0.1528 -0.3058
32732W        W75723  14.181  26.896   2.787 -0.1232 -0.0070  0.0388
32733W        W75724   2.546  21.191   3.958 -0.3172 -0.1529  0.0718
32734W        W75725  13.111  10.540   5.448 -0.0974 -0.1930  0.1684
32735W        W75726  17.743   4.084   7.059  0.1144 -0.2796  0.1550
32736W        W75727  29.490  15.475   9.478 -0.4588  0.2759  0.1474
32737W        W75728  12.649   9.346   4.803 -0.2389  0.2412  0.0225
32738W        W75729   1.744  12.961   4.061 -0.0016 -0.0527 -0.1145
32739W        W75730  10.368   4.766  25.491  0.2302  0.0071 -0.1784
32740W        W75731  32.852  11.296   7.089  0.0567 -0.0395  0.0774
32741W        W75732  27.749   6.206   8.641 -0.2109 -0.0709 -0.2113
32742W        W75733  27.832   1.521   7.194  0.0526 -0.2081 -0.0262
32743W        W75734   7.142  20.368   9.850 -0.1239  0.1117 -0.0342
32744W        W75735   9.678  28.055  28.013 -0.1266  0.1333  0.0407
32745W        W75736  22.078  13.638  21.369 -0.3155  0.1055  0.0268
32746W        W75737  30.593   5.476   3.692 -0.0829 -0.1682 -0.0244
32747W        W75738  26.762   5.339   2.108 -0.1055 -0.1539  0.0578
32748W        W75739  10.031   2.086   6.775  0.0549 -0.1114  0.1538
32749W        W75740   1.365  22.088   1.965  0.1265  0.1151 -0.1590
32750W        W75741  28.943  24.558   6.354 -0.0647  0.1224 -0.0714
32751W        W75742  19.063  31.978   6.697 -0.2578  0.0599 -0.1821
32752W        W75743  26.806   9.394   8.411 -0.1037  0.1174  0.0015
32753W        W75744   9.711  17.899   1.514 -0.0764 -0.0059 -0.0578
32754W        W75745  24.521   6.091   8.820 -0.1741  0.1796  0.0158
32755W        W75746  22.968   3.340   5.248 -0.1780  0.3817 -0.0817
32756W        W75747  28.223  34.170   7.626 -0.0149 -0.0378 -0.1719
32757W        W75748  34.699   8.734  26.473 -0.0630 -0.1941  0.2136
32758W        W75749   9.260   9.984  10.214  0.2109  0.3209  0.1472
32759W        W75750   0.564  12.568   1.572  0.0323  0.1891 -0.1373
32760W        W75751  28.037   9.159   4.320  0.5966  0.2644  0.1211
32761W        W75752  29.806   9.006   6.101  0.1073  0.0702 -0.2581
32762W        W75753   9.237  23.936  22.434  0.0532 -0.1417 -0.0454
32763W        W75754   3.179   5.744   1.668  0.1821  0.0853 -0.0184
32764W        W75755   0.794   2.543  25.067 -0.0715 -0.7258 -0.1063
32765W        W75756  17.335  16.616   2.369 -0.0582 -0.1166  0.0800
32766W        W75757  21.996  34.668  10.005  0.2265 -0.2800 -0.3319
32767W        W75758  21.597  14.289   4.007 -0.0436 -0.1711 -0.2537
32768W        W75759  27.332   7.910   6.575 -0.2058 -0.1052  0.0958
32769W        W75760  27.776   7.042   4.492 -0.3177  0.0850  0.2335
32770W        W75761   4.404  33.612   6.754 -0.3806  0.1763  0.0085
32771W        W75762  30.584  23.545  24.853  0.0002 -0.4318 -0.0954
32772W        W75763   3.886  23.367   6.015 -0.0050  0.0183  0.0780
32773W        W75764  26.345  16.358   6.992  0.0038 -0.0132 -0.1295
32774W        W75765  24.095  14.044   5.742  0.1053 -0.1293 -0.1829
32775W        W75766  32.031  29.773   2.854 -0.1360 -0.2560 -0.1132
32776W        W75767  30.310  11.269  17.325  0.1074 -0.0453 -0.4596
32777W        W75768  25.812  25.732   1.677 -0.0743 -0.0036 -0.0166
32778W        W75769  15.811  11.088   9.360  0.0524 -0.0450 -0.0394
32779W        W75770   8.158  26.254   9.718 -0.0420 -0.1063  0.1618
32780W        W75771   9.162  14.674   4.616  0.0906 -0.1266  0.0275
32781W        W75772  26.604   0.833   6.595 -0.2908 -0.2314 -0.0303
32782W        W75773  27.996   9.995   2.645  0.2139  0.2696 -0.1421
32783W        W75774  25.258  34.510   7.276  0.1809  0.1485 -0.0512
32784W        W75775   3.180  10.887   4.095  0.0331  0.1504 -0.0741
32785W        W75776   9.617   2.607  27.699 -0.0776  0.0263 -0.2118
32786W        W75777   5.691  12.544   6.337 -0.2202  0.3044  0.2509
32787W        W75778  30.376  18.218   8.278  0.1790  0.0065  0.0330
32788W        W75779  24.980   7.875  15.531 -0.1781 -0.2012 -0.1087
32789W        W75780   0.894  23.700   2.238  0.3409  0.0586  0.1875
32790W        W75781  29.437   5.156   7.346 -0.2275 -0.1694  0.1055
32791W        W75782   8.117  23.758  25.052  0.1693 -0.2577  0.0726
32792W        W75783  29.350   0.580   8.262 -0.3228 -0.1470 -0.1924
32793W        W75784   0.024   7.901  10.308  0.1516 -0.0514 -0.1032
32794W        W75785  30.654  13.596   7.662 -0.3549  0.1098 -0.0923
32795W        W75786   0.335  15.773  28.599 -0.1727  0.1647 -0.1130
32796W        W75787   3.309  22.531   8.888 -0.2254  0.3654  0.0621
32797W        W75788  26.722  12.792  23.840  0.2296  0.1801  0.0959
32798W        W75789  17.424  21.336   5.218 -0.0206  0.3008  0.1105
32799W        W75790  31.337  33.849   5.620 -0.0919 -0.1245 -0.3174
32800W        W75791  31.576   9.452   0.657  0.0173  0.1966 -0.2253
32801W        W75792  13.884   6.616   8.908 -0.1071 -0.1041 -0.1851
32802W        W75793  17.847   7.173   1.643 -0.1536  0.1445 -0.1445
32803W        W75794  26.516  15.354  22.486 -0.2055  0.0520 -0.3934
32804W        W75795  24.511  13.439   3.654  0.3035 -0.2190 -0.0464
32805W        W75796   8.620   6.077   7.912  0.1521 -0.0702 -0.0050
32806W        W75797  15.594  12.662   8.221 -0.0384  0.1128  0.1265
32807W        W75798  20.134   3.918   7.698 -0.0090  0.0416  0.1948
32808W        W75799   9.718   4.092   1.557  0.1540 -0.0534 -0.2361
32809W        W75800  26.841  27.512  28.338 -0.0607  0.0818  0.1879
32810W        W75801  29.406  11.175   7.382  0.1003  0.1400  0.1501
32811W        W75802   2.621  22.895  28.854 -0.1707 -0.2393 -0.2302
32812W        W75803  26.647  10.964   0.580 -0.0512  0.1065 -0.2533
32813W        W75804  19.645   6.197  28.061  0.2391 -0.3407 -0.1731
32814W        W75805  30.968  18.959  10.974 -0.2813  0.3240 -0.0525
32815W        W75806  21.787  12.260   1.570  0.0064  0.1552  0.1389
32816W        W75807  21.941  27.529   3.073  0.0494 -0.0916  0.0289
32817W        W75808  10.709   7.751  10.232  0.0895  0.1839 -0.0084
32818W        W75809  19.086   1.919  26.729 -0.1493  0.0112 -0.1669
32819W        W75810   5.832  25.444   8.445  0.2983  0.0442  0.2762
32820W        W75811  22.347   1.355   0.816  0.5829 -0.2631 -0.4849
32821W        W75812  33.949  11.153   5.084  0.0651 -0.1368 -0.1073
32822W        W75813   8.310  17.086  27.308  0.2161  0.0113  0.3877
32823W        W75814   5.179  20.915   9.578 -0.1286 -0.0039 -0.1435
32824W        W75815   2.141  13.423   2.766 -0.0450  0.0295 -0.2002
32825W        W75816  24.757   5.069   7.427 -0.0257 -0.0049 -0.4067
32826W        W75817  27.594   3.695   5.495  0.0976 -0.4262 -0.2157
32827W        W75818  33.163   0.579   1.126  0.2578 -0.0573  0.0114
32828W        W75819   4.457  20.062   5.551  0.0553 -0.0325  0.1287
32829W        W75820  26.504   4.782   7.523  0.2356 -0.0701 -0.0699
32830W        W75821  12.565   3.931  22.463 -0.3246 -0.6091  0.0612
32831W        W75822  17.580  21.969  28.933 -0.0836  0.1590  0.0109
32832W        W75823  24.002  30.388  27.907  0.0239 -0.1443 -0.1704
32833W        W75824  30.740  10.560   9.972 -0.0286  0.1780 -0.0597
32834W        W75825  20.696  28.829   5.296 -0.2513 -0.0583  0.1066
32835W        W75826  32.626   5.976   6.437 -0.2309 -0.1720  0.1702
32836W        W75827  26.612   5.262   5.545 -0.1804 -0.0859 -0.0670
32837W        W75828   5.030  30.762   0.324  0.1584  0.1174  0.0104
32838W        W75829  34.711   7.392   2.521  0.0674  0.1229  0.3106
32839W        W75830   4.986  10.411   0.632 -0.1752  0.0023  0.0524
32840W        W75831  31.512  13.256  10.958  0.0385 -0.4131  0.0620
32841W        W75832  34.570  20.153   4.644  0.1047 -0.1595  0.2886
32842W        W75833   0.152   7.917  11.740  0.2630 -0.0095  0.3821
32843W        W75834  20.918  34.222  27.082  0.2230 -0.0839  0.0840
32844W        W75835  31.641   7.025  29.145 -0.0295  0.0128  0.0463
32845W        W75836  25.724   2.249   5.196 -0.1125  0.1356  0.1605
32846W        W75837   7.032   5.930   1.982  0.1637 -0.0957 -0.1725
32847W        W75838   4.207   4.031   0.258 -0.0695  0.1898  0.0078
32848W        W75839  25.551  14.996   7.787  0.1119  0.0762 -0.1914
32849W        W75840  34.649  22.069  17.511 -0.4907  0.1168 -0.1954
32850W        W75841  15.726  32.092   1.392  0.3135 -0.2834 -0.0328
32851W        W75842   4.167  13.089  25.366 -0.3198  0.0226  0.1444
32852W        W75843  34.329  20.325  27.243  0.0957 -0.3888 -0.0462
32853W        W75844  25.012  17.281   4.689  0.1227 -0.2543 -0.0589
32854W        W75845  21.641  21.706  27.591  0.0568  0.3056  0.0342
32855W        W75846   7.085  17.445   1.155 -0.0208 -0.2388  0.2207
32856W        W75847  15.850   8.952  19.972 -0.1103 -0.0755 -0.0445
32857W        W75848  15.141  29.015   7.781 -0.1292  0.4214  0.1216
32858W        W75849  29.416   1.637  28.478  0.0764  0.0474 -0.0138
32859W        W75850   8.433  34.087   2.080 -0.2282 -0.2641  0.2933
32860W        W75851  34.689  31.800   5.418  0.3525  0.1362 -0.0989
32861W        W75852  32.045  25.342   0.178  0.1449  0.3069 -0.3041
32862W        W75853  10.096  11.301   2.535  0.2419  0.2288  0.0932
32863W        W75854  20.275  26.053   7.341  0.2434  0.2769  0.0081
32864W        W75855  28.806  23.958  26.148 -0.1509 -0.0844  0.1716
32865W        W75856  13.701  17.827   0.183 -0.0227  0.1746 -0.2707
32866W        W75857   4.078  28.301   3.213 -0.1770  0.0143 -0.2264
32867W        W75858  34.523   2.969  17.651 -0.0021 -0.0714  0.0255
32868W        W75859  17.574  31.405   1.640 -0.2404 -0.0403  0.0350
32869W        W75860  29.055  16.118  26.936  0.3552 -0.2129 -0.2417
32870W        W75861  16.833   6.976  28.872  0.0214  0.0437 -0.2601
32871W        W75862  20.738  11.584   8.142  0.1893 -0.1595  0.0819
32872W        W75863   2.171  13.174   5.434 -0.0232  0.2494 -0.0118
32873W        W75864  21.185   5.751   9.443 -0.2154  0.0822  0.2942
32874W        W75865  30.566   7.852   0.453 -0.0015 -0.0664  0.2504
32875W        W75866   4.282   9.685   3.137 -0.0958 -0.1353  0.1425
32876W        W75867  16.676   7.328   9.453 -0.0405 -0.2306  0.0624
32877W        W75868  23.207  11.255   9.835  0.2553  0.0645  0.0017
32878W        W75869  25.873  20.934  24.900 -0.0413  0.2945 -0.0817
32879W        W75870  33.473  25.839   3.773 -0.0572 -0.0004  0.2031
32880W        W75871  30.334  25.244   1.649  0.2498  0.0611  0.1834
32881W        W75872  33.389  11.165   9.503  0.0433  0.1970  0.2020
32882W        W75873   3.806  20.311   5.963 -0.2091 -0.0253  0.2307
32883W        W75874  21.593  10.922   3.097  0.2204  0.1957 -0.2368
32884W        W75875  32.719   7.763   3.992  0.0357  0.1021 -0.3438
32885W        W75876  18.053   3.203   7.287  0.0432  0.3164 -0.2314
32886W        W75877  33.600  17.616   3.140  0.2087 -0.1733 -0.1367
32887W        W75878  18.347   9.458   0.739 -0.1716  0.2271 -0.3336
32888W        W75879  31.570  10.419  24.464 -0.0786  0.2802  0.1158
32889W        W75880  24.537   6.794   5.041  0.0875  0.1352  0.0604
32890W        W75881  18.801  14.130   1.421 -0.1663 -0.0532 -0.0538
32891W        W75882  22.470   2.186  16.972 -0.1738  0.1280 -0.0884
32892W        W75883  22.025   2.400   9.061 -0.3186 -0.1365  0.1934
32893W        W75884  31.120   5.898   8.928 -0.0034  0.0755  0.0737
32894W        W75885  11.834   7.813   0.195  0.0535 -0.0329  0.0232
32895W        W75886   2.883  34.523   0.752  0.2273 -0.1011 -0.0082
32896W        W75887  10.973  19.114   7.975  0.1603 -0.0823  0.2126
32897W        W75888  28.746   9.018   6.880 -0.0416  0.0669 -0.3796
32898W        W75889  22.982   1.100  29.049  0.1786 -0.2123  0.1850
32899W        W75890  31.887  15.093   5.548 -0.1672 -0.1425  0.0573
32900W        W75891  19.874   9.818   4.858  0.0469 -0.1000 -0.0399
32901W        W75892  28.508  34.136   5.950 -0.1223 -0.0885 -0.0922
32902W        W75893  18.972   9.998  27.886 -0.1721  0.2286  0.0359
32903W        W75894  30.649  13.633   3.354  0.2593  0.2658  0.0859
32904W        W75895  33.276  17.973  27.191  0.1330 -0.2524 -0.1410
32905W        W75896  22.583   4.819  21.656 -0.2203  0.1718 -0.1937
32906W        W75897   0.541   8.861   2.781 -0.1229  0.0016  0.4480
32907W        W75898  15.622  15.301  22.794  0.3251 -0.0667  0.3148
32908W        W75899   3.744  19.945   6.455  0.0943 -0.2087 -0.3166
32909W        W75900  18.695  20.309   8.127 -0.6085  0.1328 -0.1284
32910W        W75901   8.556  13.048  28.518  0.2811  0.0692 -0.0710
32911W        W75902  33.989  27.311   3.312  0.1806  0.3171 -0.0151
32912W        W75903  28.723  16.489  22.463 -0.1245  0.0945  0.3470
32913W        W75904  33.787   6.993   9.137 -0.1854  0.0346 -0.2266
32914W        W75905  23.415  23.330   4.914 -0.0062  0.1292  0.0024
32915W        W75906   4.701   8.730   9.365 -0.2925  0.2458 -0.0916
32916W        W75907  20.977  31.165  27.078 -0.2710 -0.0046 -0.3767
32917W        W75908  26.826   3.874   7.542  0.3762 -0.3535 -0.1376
32918W        W75909   0.127  17.954   6.567 -0.1272 -0.0570 -0.0438
32919W        W75910  11.738  21.681  14.848 -0.2892  0.0037  0.2261
32920W        W75911  19.358  13.065  20.632  0.2391  0.0169  0.3890
32921W        W75912   1.957  11.137   7.194  0.1980  0.1419 -0.1790
32922W        W75913  27.325  10.534   6.582 -0.0961 -0.0483 -0.0280
32923W        W75914  31.018  19.655   5.155 -0.0069  0.1549 -0.2696
32924W        W75915  25.565  19.194  21.731  0.2115 -0.0302 -0.1181
32925W        W75916  26.698  33.932   5.050 -0.1092  0.1849 -0.0353
32926W        W75917   6.748  25.697   0.417  0.0951  0.1471 -0.0791
32927W        W75918  23.358  33.400   7.554  0.2038  0.1405  0.0657
32928W        W75919  32.054   5.264   9.676  0.0296  0.1456  0.0419
32929W        W75920  24.297  14.860  23.414  0.4768  0.2206  0.1961
32930W        W75921   8.867   6.710   6.322  0.0536 -0.0313  0.1001
32931W        W75922   2.070   8.062   8.785  0.2224  0.3517 -0.1947
32932W        W75923  31.251   5.911  28.726  0.0584  0.2225  0.3372
32933W        W75924  29.878  13.740   4.062  0.2530 -0.1721 -0.1390
32934W        W75925  11.940  25.361   5.089  0.0074  0.2050  0.2104
32935W        W75926  22.840   2.002  27.299 -0.1527 -0.1560  0.2448
32936W        W75927   9.508  26.644  23.822 -0.1048 -0.2508 -0.5163
32937W        W75928  19.851  12.853   4.582 -0.0449 -0.0157  0.0221
32938W        W75929  14.058   5.554   2.594 -0.0845  0.1128  0.1978
32939W        W75930  28.487   2.578   6.544 -0.3732  0.0385  0.2298
32940W        W75931  31.354   5.270   6.625  0.4000 -0.3022 -0.2209
32941W        W75932  13.871  17.252   7.982  0.0383 -0.0321  0.1674
32942W        W75933  15.608  11.473   6.389  0.4190  0.1650  0.3181
32943W        W75934   7.539  33.109  29.102  0.1019 -0.1000 -0.1040
32944W        W75935  21.374   4.373   0.510 -0.0960 -0.0538  0.1894
32945W        W75936  32.680  10.911   2.973 -0.3316 -0.0138 -0.0180
32946W        W75937   7.384   5.452   7.430 -0.0854  0.1306 -0.0680
32947W        W75938  25.225   8.595  20.788 -0.0519 -0.0748 -0.0866
32948W        W75939  32.486  19.164   2.176  0.1062 -0.0923 -0.1357
32949W        W75940  25.888  10.648   1.925 -0.0800  0.1351 -0.1081
32950W        W75941  31.973   7.097   6.367  0.1695 -0.0346  0.0502
32951W        W75942  32.699  17.507  11.479  0.0698  0.0418  0.4214
32952W        W75943  30.154   5.714  27.760 -0.1004  0.0185 -0.1249
32953W        W75944  18.554   7.841   6.817  0.0195 -0.4476 -0.4169
32954W        W75945   0.464  11.422   6.588  0.0199  0.3008 -0.0128
32955W        W75946  27.977  11.381   6.347 -0.3177 -0.0622  0.0544
32956W        W75947   1.036  30.051  29.125  0.1117 -0.0107  0.1903
32957W        W75948  23.972  13.150  26.295 -0.4334  0.0873  0.1314
32958W        W75949   3.004  10.789   2.727 -0.3111 -0.0413  0.3725
32959W        W75950  34.538   3.645  18.962  0.5857 -0.0765  0.1354
32960W        W75951  31.571  23.788   3.902  0.2185  0.3085  0.2117
32961W        W75952  29.892  25.436   8.307 -0.1248 -0.0599  0.3349
32962W        W75953  22.888  10.796   9.831 -0.1329  0.0804 -0.0180
32963W        W75954   3.494  11.056  24.906 -0.2882 -0.1968 -0.2255
32964W        W75955  30.012   9.309   8.220  0.0424 -0.0328  0.0471
32965W        W75956  30.882  19.004  21.905 -0.0305 -0.0230 -0.2212
32966W        W75957  20.911  17.851   4.966  0.1315 -0.0831  0.0969
32967W        W75958   9.826   4.574   8.505 -0.0898 -0.1997 -0.2836
32968W        W75959  18.296  15.009   1.197 -0.1300 -0.1334  0.0088
32969W        W75960  22.333   0.089   4.660  0.1678 -0.0244 -0.2187
32970W        W75961  32.463  29.244  20.437 -0.0300  0.4203  0.0932
32971W        W75962  31.124  18.876  27.375  0.1935 -0.2149  0.1791
32972W        W75963  34.140   1.473   6.120  0.0744 -0.2086  0.1269
32973W        W75964  26.458   2.941   0.867 -0.0352 -0.2501  0.0351
32974W        W75965  21.596   6.815   9.271 -0.0935 -0.0262 -0.0804
32975W        W75966  30.575   7.578   4.488 -0.2512  0.1055  0.1825
32976W        W75967  22.131   5.111   5.489 -0.2594 -0.1439 -0.2153
32977W        W75968   6.520  18.492   4.663  0.1092 -0.3360 -0.2243
32978W        W75969  15.425   7.838   8.453  0.2363 -0.1395 -0.0285
32979W        W75970  19.071   3.247   9.523 -0.0429 -0.2760  0.1478
32980W        W75971  28.953  32.110  28.215 -0.0967 -0.1324 -0.0424
32981W        W75972  30.301   8.018   4.569 -0.0557 -0.0655 -0.1108
32982W        W75973  24.804  31.085   6.633 -0.2808  0.2305  0.2141
32983W        W75974  17.203  15.717  24.115 -0.0918 -0.0527 -0.1570
32984W        W75975  24.648  15.729   8.267 -0.1068  0.1345 -0.1639
32985W        W75976  28.115  12.878   4.330  0.0976  0.1412  0.2356
32986W        W75977  27.040   2.569   7.625 -0.3195  0.1166 -0.1369
32987W        W75978  17.630  19.032   0.916  0.2038 -0.0699  0.1516
32988W        W75979  31.623   7.580  25.450 -0.0842  0.1168 -0.2638
32989W        W75980  20.366   3.239   7.829 -0.1677  0.4291 -0.0685
32990W        W75981   6.190   5.137   1.598  0.0144  0.1338 -0.0969
32991W        W75982  31.053  10.641  24.738  0.0305  0.3580 -0.1224
32992W        W75983  16.326  14.473  21.682 -0.2435 -0.0551 -0.0833
32993W        W75984  26.172  21.824  17.313 -0.3225 -0.1020  0.2808
32994W        W75985  27.879  11.923  27.200  0.0420 -0.0296  0.2182
32995W        W75986  15.720   6.556  15.294  0.0421 -0.1657  0.2390
32996W        W75987  25.622  16.247  25.602  0.0797  0.1006  0.3140
32997W        W75988  33.692  29.206   6.754  0.0119  0.0379 -0.2502
32998W        W75989   3.618   7.790  21.280 -0.1977 -0.1933 -0.1745
32999W        W75990  28.400   5.032   1.842  0.2001  0.0920  0.2533
33000W        W75991  21.752  16.772   5.783 -0.0997  0.3356 -0.0351
33001W        W75992  34.517   8.887   8.099 -0.0445  0.1336  0.0376
33002W        W75993  14.726  23.178   2.923 -0.0345 -0.1622  0.0082
33003W        W75994   6.171  26.819   9.923  0.1364 -0.0901 -0.0769
33004W        W75995  22.366  12.819   0.402 -0.1760  0.1292 -0.3897
33005W        W75996  25.595   4.079  15.085  0.3499 -0.1598 -0.0542
33006W        W75997  17.998  12.811  24.503  0.2823  0.2179 -0.1675
33007W        W75998   4.948   4.756  28.513 -0.1308 -0.0884  0.1430
33008W        W75999  19.471  18.976  29.150 -0.0919  0.2969  0.1545
33009W        W76000  34.599   3.692   8.755  0.1524 -0.1304 -0.1955
33010W        W76001  15.437   2.500  27.436 -0.1060  0.0534  0.2395
33011W        W76002   4.835  25.782   7.548  0.2404 -0.0307  0.1697
33012W        W76003  10.726  29.694  26.971  0.0025  0.1363 -0.3952
33013W        W76004  33.833   6.419  10.528 -0.1744  0.4046  0.2188
33014W        W76005   7.212  33.280   6.845 -0.0318 -0.1929 -0.1373
33015W        W76006  22.708  20.506   9.207  0.1461 -0.1556  0.1357
33016W        W76007  18.460  19.774  23.834 -0.0793 -0.0072 -0.0119
33017W        W76008  27.561  19.808  27.043  0.3037  0.1208 -0.0085
33018W        W76009  29.863  11.893   2.285 -0.0325  0.1176 -0.1370
33019W        W76010  16.637  10.423  17.284 -0.1928 -0.0537  0.0554
33020W        W76011   7.437  19.247  27.569 -0.0251  0.0737 -0.2284
33021W        W76012  12.422  26.099  17.948 -0.3030 -0.0645  0.1946
33022W        W76013  19.150  31.912   7.630 -0.4131  0.1704  0.1968
33023W        W76014  21.019  19.910  14.658  0.1663  0.0334 -0.1946
33024W        W76015  18.586  23.838  18.663  0.1440  0.1335  0.2483
33025W        W76016  21.153  13.900  19.099 -0.0688  0.3176  0.3467
33026W        W76017  16.526  32.158   5.684  0.1291  0.1862  0.0369
33027W        W76018   7.342   7.997   8.566 -0.1918  0.2192  0.1361
33028W        W76019  30.772  34.148  17.482 -0.1679  0.0935  0.1621
33029W        W76020  25.349   2.392  26.629 -0.2370  0.1999  0.1325
33030W        W76021  22.631   8.960   4.592  0.3161  0.2859 -0.2768
33031W        W76022  19.587  22.249   1.504 -0.0519  0.6034 -0.1569
33032W        W76023  15.519  27.154  21.761 -0.2359  0.2242 -0.1528
33033W        W76024  25.629   9.253  19.371  0.0645 -0.1546  0.2473
33034W        W76025  20.926   1.884  20.228  0.2643  0.2275 -0.0344
33035W        W76026  27.746  17.477   8.186  0.0478 -0.0822 -0.3467
33036W        W76027  12.536  21.265  15.668 -0.0065 -0.1219 -0.1449
33037W        W76028   1.034   3.734  17.961  0.2336  0.1321 -0.0846
33038W        W76029  14.008  10.035  18.653  0.0588  0.1214  0.2162
33039W        W76030   0.124  24.863   8.182  0.1162  0.2527 -0.0288
33040W        W76031  13.855  23.392   3.132 -0.2792 -0.2478  0.1045
33041W        W76032  19.918  21.164  14.303 -0.0491 -0.1691  0.2150
33042W        W76033  16.288   3.663   9.228 -0.1430 -0.3683 -0.0786
33043W        W76034  28.044  17.550   6.780  0.0941 -0.0919  0.1071
33044W        W76035  32.558   1.913   9.216  0.1092  0.1005  0.1571
33045W        W76036  21.642  20.515  20.780  0.2410 -0.0656 -0.1271
33046W        W76037  17.354  12.769  25.170  0.1562 -0.0199 -0.1601
33047W        W76038  10.033   9.684  17.137 -0.1038  0.0535  0.2290
33048W        W76039  31.573  12.840   1.274 -0.1436 -0.0727 -0.1322
33049W        W76040  32.751   1.072  28.058 -0.1389 -0.2142  0.0694
33050W        W76041   9.516  33.684   4.045 -0.1430 -0.0262 -0.0087
33051W        W76042   5.043  20.557   1.376 -0.0192 -0.1303  0.0439
33052W        W76043  27.547  28.238  25.052  0.0700 -0.0938 -0.0304
33053W        W76044  14.649  29.469   6.639  0.0915  0.0263 -0.0866
33054W        W76045   3.651  16.952   4.723 -0.0332  0.2057  0.2809
33055W        W76046  26.279   6.261   7.142  0.0234 -0.2508 -0.1194
33056W        W76047  29.828   9.326  23.305 -0.0975  0.1474  0.0152
33057W        W76048  29.940  18.574   1.282 -0.1430 -0.1833  0.0184
33058W        W76049  14.510  10.265   8.990 -0.0278 -0.3444 -0.2631
33059W        W76050  33.928   1.587   8.387 -0.0162  0.0802  0.0719
33060W        W76051  26.250  21.474   4.865  0.1109 -0.1014  0.1613
33061W        W76052  32.573  10.306  11.301  0.1478 -0.0392  0.0621
33062W        W76053  23.757  31.663  24.623  0.4158  0.1872 -0.4036
33063W        W76054   7.194  23.178   5.351 -0.0322  0.0827  0.1867
33064W        W76055  33.570  17.363  11.570  0.0967  0.4819  0.1919
33065W        W76056   0.827   8.957   0.090 -0.4078  0.1673 -0.1498
33066W        W76057  20.031   8.722  16.916 -0.1224  0.0136  0.0698
33067W        W76058  17.314   7.121   6.168 -0.0234  0.1844  0.3004
33068W        W76059  23.360  33.694  18.079 -0.2395 -0.4274  0.0707
33069W        W76060  34.529  11.445   7.930  0.4040  0.3289  0.2558
33070W        W76061  30.820  28.930   2.486  0.0761 -0.2988  0.2936
33071W        W76062  23.841  11.468   6.341  0.0367 -0.0176 -0.0025
33072W        W76063   8.789  16.149   5.782 -0.0404 -0.2149 -0.0160
33073W        W76064  14.913  19.767  26.213 -0.1411  0.1308  0.1995
33074W        W76065  31.543  20.991   3.157 -0.0092 -0.1346  0.1955
33075W        W76066  22.440   4.218  26.598 -0.0822 -0.2175  0.0329
33076W        W76067  22.926  21.645   8.199  0.1923 -0.0045  0.1147
33077W        W76068  33.928  14.278   5.402  0.1610  0.0243  0.0155
33078W        W76069   2.736  21.797  21.800  0.0286  0.2362 -0.1853
33079W        W76070  13.294  13.669   4.124 -0.3070 -0.0688  0.1950
33080W        W76071  15.982   5.520   7.371 -0.2398 -0.0801  0.0767
33081W        W76072  30.050  16.066  16.317 -0.0597 -0.2586  0.0286
33082W        W76073  20.249  26.227  24.688 -0.2319 -0.0262 -0.4595
33083W        W76074  28.755   1.159  28.799 -0.0171 -0.0620  0.0523
33084W        W76075  21.099   1.737   5.936  0.1458  0.1720 -0.4453
33085W        W76076  26.719  25.265   2.666 -0.2944  0.2156  0.0897
33086W        W76077   0.270   8.433  21.647  0.0904 -0.2197  0.1613
33087W        W76078  21.638  33.432   6.957 -0.2779 -0.1699  0.0210
33088W        W76079  18.734  16.972  13.759 -0.0182  0.2420 -0.1349
33089W        W76080  25.306  18.103   8.445 -0.0273  0.2169  0.2402
33090W        W76081  25.154   7.321   6.558  0.2092 -0.0272 -0.0427
33091W        W76082  25.330  11.083  25.809  0.1579 -0.0601  0.0732
33092W        W76083  23.815  30.665   0.821  0.1391  0.2279  0.1022
33093W        W76084  23.826  15.422   0.392  0.0561  0.2970 -0.0279
33094W        W76085  26.198  14.167   4.544  0.1812  0.1601 -0.1331
33095W        W76086  31.601  17.494  25.647 -0.2490 -0.2088 -0.3218
33096W        W76087  13.584   8.826  10.042 -0.1254 -0.0448  0.0691
33097W        W76088  24.756  11.297   2.408 -0.0781 -0.0941  0.0435
33098W        W76089  12.919   9.975  10.615 -0.2488 -0.1416 -0.0429
33099W        W76090   0.667  12.990  24.465  0.1940 -0.1327 -0.0755
33100W        W76091   8.860  16.125   3.106 -0.0024  0.4992 -0.2992
33101W        W76092  23.646  11.572  28.884  0.0074  0.2073 -0.0540
33102W        W76093  21.240  27.214  28.604  0.2169 -0.0031 -0.3953
33103W        W76094   4.268  11.581   9.163  0.2657  0.0501  0.1233
33104W        W76095   5.033  20.020   8.989 -0.0031  0.0174  0.2548
33105W        W76096   6.092  13.107   9.173 -0.1251  0.0155  0.1646
33106W        W76097   1.798  11.423  18.886 -0.2413 -0.1168  0.0296
33107W        W76098   0.819   5.608   9.703  0.2767 -0.0244  0.0442
33108W        W76099  32.409   8.906  21.089 -0.0280  0.0597 -0.1293
33109W        W76100  19.352  21.537  25.453  0.0868 -0.1733 -0.1031
33110W        W76101  31.435   2.633   7.295 -0.1705 -0.2314  0.0274
33111W        W76102   8.946  15.059   5.964 -0.0226  0.1315  0.0910
33112W        W76103   2.086  33.219  24.253  0.3956  0.2896 -0.0941
33113W        W76104   1.307  10.003   5.083  0.0478  0.1823  0.3368
33114W        W76105  29.448  22.235  28.128 -0.0158  0.1821  0.0422
33115W        W76106  17.901  22.462  22.179  0.1518 -0.0227  0.1649
33116W        W76107   6.433  16.099  10.885 -0.0899 -0.5956  0.0817
33117W        W76108  20.330   9.719   5.048 -0.3067 -0.3009 -0.1454
33118W        W76109  31.395  13.125   3.175  0.0475  0.0845 -0.2248
33119W        W76110  27.394   9.113  19.313  0.3182 -0.0110  0.0903
33120W        W76111   9.968   7.062   2.667 -0.4427  0.1054 -0.1147
33121W        W76112  13.104  21.048   5.890  0.0744 -0.1157 -0.0381
33122W        W76113   1.341  25.775   4.163 -0.3052  0.0131 -0.0251
33123W        W76114  18.881  16.310  23.934  0.1534 -0.3895  0.1957
33124W        W76115  29.750  28.029   3.009 -0.1224 -0.0342  0.0211
33125W        W76116   4.915  33.581   5.655 -0.2606  0.0893  0.0465
33126W        W76117  10.078  18.444   0.125  0.2750  0.2504  0.0197
33127W        W76118  27.293   7.264   4.453 -0.1358 -0.3644  0.2064
33128W        W76119  26.027  11.861   7.177  0.3161  0.1461 -0.3467
33129W        W76120  24.206  12.789  25.357  0.2441  0.2505 -0.0040
33130W        W76121  25.645  13.943  24.412  0.0499 -0.0759 -0.4011
33131W        W76122  28.096  13.971   3.592 -0.1152  0.0790  0.2982
33132W        W76123  23.904   9.218   4.330  0.0806 -0.1060 -0.3578
33133W        W76124  18.811  18.912   0.301 -0.1427  0.0942 -0.0722
33134W        W76125  24.600  17.006   7.976  0.0719 -0.2295  0.1278
33135W        W76126   9.203  33.788   7.686 -0.2402  0.1291 -0.2931
33136W        W76127  20.658   4.652   0.066 -0.0575 -0.3281  0.2566
33137W        W76128  22.678  20.266  28.251  0.0309 -0.2169  0.1194
33138W        W76129   1.081  23.616   6.186 -0.0904  0.0645 -0.0785
33139W        W76130  28.690  11.719   7.858  0.0801  0.0122  0.2719
33140W        W76131  15.053  18.386  17.113  0.2412  0.2996 -0.2950
33141W        W76132  24.343  11.201   0.114  0.2637 -0.1786 -0.2345
33142W        W76133  32.340  16.839   8.806 -0.2687 -0.1217 -0.0067
33143W        W76134  22.976   8.021  22.353 -0.0877 -0.0518 -0.1314
33144W        W76135  21.572  29.043  26.180 -0.0246 -0.2099 -0.1407
33145W        W76136   7.288   6.592  27.752  0.2330 -0.1593  0.0920
33146W        W76137   0.316   7.525   8.994 -0.1232  0.3233  0.0158
33147W        W76138  31.337  16.927  22.979  0.1152  0.2409 -0.1781
33148W        W76139  13.917  32.011  10.650  0.0321 -0.0707  0.0202
33149W        W76140  23.995  15.582   4.885 -0.0660 -0.0287  0.2430
33150W        W76141  23.323  20.592   2.280  0.2247 -0.3314 -0.0257
33151W        W76142   2.077  10.407   9.999 -0.3017 -0.0220  0.0502
33152W        W76143  29.414  12.369  23.445  0.3129  0.1120 -0.0396
33153W        W76144  28.533  21.066  19.957 -0.3937 -0.0945 -0.1069
33154W        W76145  31.132  27.968  17.495 -0.3272 -0.4304  0.1290
33155W        W76146  31.049  16.065  10.334  0.2169 -0.0989 -0.4254
33156W        W76147   5.294  10.246  29.075  0.2989  0.2470 -0.3591
33157W        W76148  24.988   4.612   2.050  0.0022  0.2215  0.0627
33158W        W76149  22.598  13.798   3.974 -0.0164  0.1693 -0.1137
33159W        W76150  32.410  11.272   8.426 -0.3166 -0.1077  0.1999
33160W        W76151   0.324  12.959   8.553 -0.0430  0.0578 -0.0337
33161W        W76152   2.254   8.776   3.872 -0.0856 -0.2772  0.1612
33162W        W76153  34.526  15.192  18.872  0.0840 -0.1114 -0.3169
33163W        W76154  11.563  13.380   8.235  0.1991  0.0006 -0.2232
33164W        W76155  28.596   0.246   7.657 -0.2321  0.0113 -0.2272
33165W        W76156   5.157  13.580   1.344  0.2443  0.2531  0.0562
33166W        W76157  31.716  20.327   6.196  0.1891  0.2590  0.1199
33167W        W76158  15.672  25.051   6.298 -0.0948  0.2585 -0.0350
33168W        W76159  23.397  18.712   7.345 -0.0630 -0.0187  0.0496
33169W        W76160  24.285  24.685   9.189 -0.0090  0.0510  0.0386
33170W        W76161  23.350  13.832   7.165  0.0187  0.2361 -0.0708
33171W        W76162   3.543   0.045  15.520  0.1066  0.0601 -0.0049
33172W        W76163  33.576  20.557  28.470  0.0554 -0.2016  0.0117
33173W        W76164  27.085  14.523  24.923 -0.2132 -0.2580 -0.0884
33174W        W76165  19.674  13.968   8.419 -0.5176  0.1488  0.1619
33175W        W76166   1.617   7.665   4.640 -0.2056 -0.2222  0.0286
33176W        W76167   7.415   4.066  27.497 -0.1993 -0.0243  0.2687
33177W        W76168  26.591  22.720   1.066 -0.0036 -0.1795  0.0611
33178W        W76169   3.288  21.563  10.577 -0.0964  0.1361  0.1336
33179W        W76170  14.215   5.816  21.067 -0.1150 -0.2853 -0.0264
33180W        W76171  28.331  12.599   2.120  0.0008  0.1769  0.2196
33181W        W76172  34.354   0.969   7.907  0.1355  0.1272  0.1886
33182W        W76173  18.429   8.121   7.277 -0.0679 -0.3935 -0.2589
33183W        W76174  24.036   9.681   0.620 -0.0710  0.2068 -0.0444
33184W        W76175  18.268  21.400   8.002 -0.1581  0.1859  0.0614
33185W        W76176  27.528  11.080   9.682 -0.2298 -0.2796  0.0282
33186W        W76177  27.218  24.460  17.534 -0.0457 -0.2928  0.2917
33187W        W76178  24.853  14.497  28.588 -0.1772 -0.2176  0.2084
33188W        W76179  28.789  24.090  27.335  0.1830  0.0500  0.0680
33189W        W76180   5.306  21.547   8.782 -0.2400  0.0950  0.1310
33190W        W76181  33.472   9.715   7.530 -0.1403  0.1864  0.0128
33191W        W76182   2.975  34.454   9.533  0.2920  0.0137  0.5665
33192W        W76183  33.236  32.818   8.396  0.1677  0.0433  0.2292
33193W        W76184   0.076  20.935   7.061 -0.2288 -0.4302  0.1587
33194W        W76185   3.759  34.137   3.424 -0.4042  0.3723  0.1125
33195W        W76186   9.242   8.538  23.264 -0.2027 -0.3526  0.0051
33196W        W76187   7.657  20.067   2.898 -0.1984 -0.1473 -0.1564
33197W        W76188   7.762  33.021  26.477 -0.0590 -0.1810 -0.0414
33198W        W76189   2.903   8.696  26.987  0.2335 -0.2197 -0.1389
33199W        W76190  27.689   3.680   7.742 -0.2244 -0.0650  0.1881
33200W        W76191  23.261  12.892  22.769  0.0144  0.2936  0.0296
33201W        W76192  34.228  15.845   8.869 -0.2438 -0.0808  0.1064
33202W        W76193  17.738  19.399  23.622  0.2685 -0.1564  0.2257
33203W        W76194   3.163  13.097  22.138  0.0321 -0.2404 -0.1250
33204W        W76195  24.163  11.293   6.746 -0.0748 -0.0846 -0.1274
33205W        W76196  12.300   8.528   9.858  0.2684 -0.0867 -0.0642
33206W        W76197   9.781  12.296   6.305 -0.2561  0.1060 -0.0847
33207W        W76198  25.287  14.628   2.484 -0.0539  0.2503  0.0440
33208W        W76199  25.712  18.036   8.805  0.0390 -0.0736 -0.0207
33209W        W76200  20.237   9.426  26.459  0.0632 -0.0463  0.4666
33210W        W76201  28.934  13.801  27.494 -0.0715  0.0527  0.1518
33211W        W76202   0.079   7.964  23.864  0.0009 -0.0271  0.1207
33212W        W76203  15.748  16.192  25.943  0.1255 -0.0715 -0.1518
33213W        W76204   8.853  26.704   8.538  0.1827 -0.2740 -0.2364
33214W        W76205  29.003  16.040   9.524  0.0305 -0.2096 -0.0556
33215W        W76206  15.029  19.482  28.800  0.0400  0.1595  0.1456
33216W        W76207  25.051  13.393  24.919  0.1813  0.3161  0.1379
33217W        W76208  16.022   3.266   6.054  0.0452 -0.1039 -0.2373
33218W        W76209  23.910  20.386  13.790  0.2006  0.1723  0.1077
33219W        W76210   1.163   6.182   9.969  0.1525 -0.1392 -0.0520
33220W        W76211   9.303  24.523  28.459  0.2735 -0.0114  0.1336
33221W        W76212  22.784  10.439   1.431 -0.1332 -0.0128 -0.4591
33222W        W76213  22.774  12.117  18.643  0.1015  0.1240 -0.2115
33223W        W76214  27.758  23.657   6.914 -0.3523 -0.2910  0.0551
33224W        W76215  28.616  11.264  27.899  0.3042 -0.1911 -0.2508
33225W        W76216  30.003  11.750  25.436 -0.2688 -0.0952  0.1899
33226W        W76217  26.409  24.398  21.395 -0.0714 -0.4918  0.2102
33227W        W76218  23.644  13.122   7.644 -0.1880  0.2157 -0.1067
33228W        W76219   6.868  31.522  22.330 -0.0332 -0.1385 -0.1861
33229W        W76220  28.905  18.744   5.875  0.0500 -0.4248  0.1440
33230W        W76221  28.600  33.740  22.142  0.1402 -0.0337  0.0417
33231W        W76222  21.664  23.225   9.064  0.2935  0.1643  0.0652
33232W        W76223  33.084  13.329  19.282 -0.1872 -0.0850 -0.1219
33233W        W76224  26.147   5.267  20.334  0.1251 -0.0241  0.2231
33234W        W76225  16.821   3.334  28.511  0.0558  0.1673 -0.2853
33235W        W76226  34.083   4.956   3.870  0.2170  0.2521 -0.1074
33236W        W76227  28.628  21.884  19.622  0.0063 -0.2619 -0.2334
33237W        W76228   6.515  28.901   8.166 -0.1148  0.0543 -0.1131
33238W        W76229  24.744  20.441  23.432 -0.0231 -0.3085  0.2101
33239W        W76230  10.460  19.598   2.856 -0.2552 -0.1123  0.2247
33240W        W76231  33.476  34.263  21.941 -0.1135 -0.1720 -0.0008
33241W        W76232   1.872  16.389  29.114 -0.1104  0.1328 -0.0309
33242W        W76233  27.218  17.603   3.227 -0.1990  0.4022 -0.0038
33243W        W76234  17.578  14.832  27.736  0.0898  0.0884  0.2556
33244W        W76235  30.150  10.864   9.130  0.1230  0.1138 -0.0400
33245W        W76236  28.411  28.982   2.098  0.1449 -0.0489 -0.0875
33246W        W76237   4.799  13.153  10.618  0.1326 -0.1488  0.3805
33247W        W76238   3.848  32.872  22.668  0.0673 -0.0798 -0.1028
33248W        W76239  18.316   6.050  21.851 -0.1122 -0.2032  0.1374
33249W        W76240   4.368  18.249   9.505 -0.1570  0.0075 -0.0343
33250W        W76241  12.997  17.432   6.462  0.1473 -0.4234  0.0832
33251W        W76242  32.130   7.436   8.912 -0.1133 -0.0522 -0.1468
33252W        W76243  13.853  13.262   6.951  0.3905  0.2003 -0.1410
33253W        W76244   2.678  32.819   2.686 -0.0090  0.2011 -0.4181
33254W        W76245  27.048   3.783   4.382  0.0635  0.3572  0.1375
33255W        W76246  23.448  15.731  13.565  0.0232  0.1169 -0.0005
33256W        W76247  34.488   0.178  26.750 -0.3279  0.0068  0.0925
33257W        W76248  33.520   8.336   2.164 -0.1950 -0.2749 -0.2073
33258W        W76249  31.915  30.504  24.458 -0.2677  0.2280 -0.0585
33259W        W76250  23.604  28.806  22.969  0.2070 -0.2768 -0.0248
33260W        W76251  12.325  13.183   0.714 -0.0583 -0.0807  0.1165
33261W        W76252  28.714  18.774  16.777 -0.0385 -0.1895 -0.1448
33262W        W76253  18.323  20.121   3.012 -0.3168 -0.1646 -0.2520
33263W        W76254  27.614  30.633  25.101  0.1130 -0.0722 -0.0043
33264W        W76255  14.299  10.397   3.041  0.2421 -0.0432 -0.0838
33265W        W76256  32.391  12.511  12.303 -0.3092  0.3672 -0.3724
33266W        W76257  29.080   3.549   9.259 -0.3281  0.0950  0.0642
33267W        W76258   7.067  34.649   7.803 -0.1081 -0.0474  0.0603
33268W        W76259  30.575  20.707   2.225  0.2689 -0.0983 -0.4066
33269W        W76260  14.737   7.683  23.575 -0.0716  0.1009  0.1164
33270W        W76261  34.706   6.541   2.762  0.0851 -0.0739  0.1472
33271W        W76262  32.325  22.497   7.781  0.4591  0.2317 -0.0679
33272W        W76263  26.882   9.450   6.220  0.4426 -0.3478  0.2298
33273W        W76264  23.886  32.101   4.413  0.0038 -0.0914  0.0032
33274W        W76265  24.637   7.850   3.001 -0.2649 -0.1555  0.1399
33275W        W76266  22.252  18.824   0.271  0.0450  0.1510 -0.2256
33276W        W76267  11.202  20.566  24.115 -0.2538 -0.0271  0.1015
33277W        W76268   6.666  10.219   1.061  0.1589 -0.0791  0.1392
33278W        W76269   6.042  25.614  14.877 -0.0429 -0.0245  0.0102
33279W        W76270  24.774  11.325  14.024  0.1368 -0.1080  0.2238
33280W        W76271  28.414  11.921   0.065 -0.1986 -0.1619  0.1684
33281W        W76272  31.718  16.679   9.431 -0.0414  0.1038 -0.3096
33282W        W76273   8.469  13.617  24.978 -0.0420  0.0914 -0.2436
33283W        W76274   1.552  12.948   9.990 -0.0902  0.0202  0.2167
33284W        W76275   0.167  16.116   0.958 -0.0163  0.0804 -0.1008
33285W        W76276  27.842  13.269   4.045 -0.1074  0.0228 -0.2483
33286W        W76277  25.695   0.877   0.433 -0.3532  0.2104 -0.0035
33287W        W76278  28.185  21.785   2.839  0.0604  0.1562  0.0698
33288W        W76279  24.304  28.860   0.908 -0.1214 -0.2013  0.1693
33289W        W76280  34.681  14.794   7.214  0.2763 -0.1985 -0.3099
33290W        W76281   4.570   9.653   1.273  0.1641  0.1328 -0.0017
33291W        W76282  29.107  11.026  16.891  0.0524  0.0211 -0.1348
33292W        W76283  18.371  27.788  28.609  0.2723 -0.0686  0.0226
33293W        W76284  21.738  11.506  24.163 -0.1341 -0.1910  0.1466
33294W        W76285  33.042   8.642  28.165  0.3671  0.1385 -0.2152
33295W        W76286  22.678  20.006  26.610  0.1483  0.0212 -0.1710
33296W        W76287   1.069   5.736  23.012 -0.0146  0.0124 -0.1334
33297W        W76288  30.309  15.831   8.633 -0.0309  0.0583  0.2139
33298W        W76289   1.324  26.002   9.417 -0.0624  0.1044 -0.2326
33299W        W76290   7.158  15.207   5.158 -0.0007 -0.0141 -0.4753
33300W        W76291  32.972  15.708   1.169 -0.0622  0.0768  0.0089
33301W        W76292   0.627  27.826  16.509  0.1735 -0.0878 -0.3344
33302W        W76293  26.413  12.098   4.605 -0.4695 -0.0536  0.1324
33303W        W76294   7.870   1.260  10.180  0.0165 -0.0817  0.2088
33304W        W76295  33.550  12.051   8.078  0.1688 -0.1756  0.2439
33305W        W76296  29.401   1.224  24.773  0.3592  0.1286 -0.0303
33306W        W76297  19.168  20.140   4.600 -0.2114 -0.1897 -0.0256
33307W        W76298   6.343   1.684   4.988  0.1549  0.1281  0.2230
33308W        W76299  33.041  12.233   9.277 -0.1014  0.1898 -0.4629
33309W        W76300  19.938  15.296  26.580  0.2365 -0.0761 -0.1340
33310W        W76301  22.297  17.647  25.310 -0.0128  0.4030  0.1295
33311W        W76302  20.851   0.068  16.834 -0.0986 -0.1320 -0.1099
33312W        W76303  17.564  27.318   1.780 -0.2888  0.1163  0.0847
33313W        W76304  24.468  15.418  22.226  0.0455  0.0791  0.0529
33314W        W76305  30.008  19.034  17.443 -0.0576 -0.2095  0.1321
33315W        W76306  31.972   7.075   9.226 -0.0967  0.0550  0.3841
33316W        W76307  19.778  10.483   2.043 -0.0532 -0.1065 -0.2315
33317W        W76308  23.292  15.164   0.980 -0.1232 -0.1260  0.1030
33318W        W76309  21.055   3.142   8.212  0.3593  0.1371 -0.0805
33319W        W76310  30.471   8.146   0.004 -0.0169 -0.0404 -0.1003
33320W        W76311  29.327   1.269   1.481 -0.1010  0.1238  0.0550
33321W        W76312  19.838  16.180  27.960  0.0036 -0.0942 -0.2965
33322W        W76313   2.495  11.314  29.218 -0.1467  0.4929 -0.0035
33323W        W76314  28.941  13.927  24.965  0.0545  0.3197 -0.1845
33324W        W76315   2.716  21.355  27.018 -0.2109 -0.0817 -0.1950
33325W        W76316  23.011  22.890   5.212  0.1773 -0.0901  0.2026
33326W        W76317  25.222  24.080   3.398  0.0289  0.2653  0.1966
33327W        W76318  21.294   7.137   6.508  0.2105  0.1144  0.0665
33328W        W76319  27.944   7.283  23.227 -0.0903  0.1525 -0.2603
33329W        W76320   0.418   5.811   1.800  0.0582 -0.1550  0.0402
33330W        W76321  25.283  15.475   9.547 -0.0790  0.1518  0.2287
33331W        W76322   3.380  31.631   7.160 -0.1654 -0.1003 -0.1198
33332W        W76323  28.023  15.401  16.410  0.0392  0.1059 -0.3613
33333W        W76324   1.203  14.171   4.667  0.0237  0.1014  0.0462
33334W        W76325  27.238  32.150   1.656  0.2359 -0.1605  0.0215
33335W        W76326  28.090   2.275  23.887 -0.3639 -0.3633 -0.3656
33336W        W76327  25.001  32.513  20.245  0.2423 -0.0875 -0.0152
33337W        W76328  25.514  16.574  20.143 -0.1633 -0.0327 -0.0148
33338W        W76329   3.601  18.603   8.867 -0.1144 -0.1252 -0.0116
33339W        W76330  13.752  29.933   6.016 -0.1393  0.0118 -0.1409
33340W        W76331  28.676  16.878  10.076 -0.1774  0.0719 -0.1678
33341W        W76332   0.683  20.786   5.680  0.1104 -0.0442 -0.1348
33342W        W76333  26.266  17.402  23.545  0.1118 -0.1804  0.0899
33343W        W76334  11.215  17.032   5.994  0.0831 -0.3829 -0.1976
33344W        W76335  28.784  30.653   2.175  0.0317  0.2734  0.1192
33345W        W76336  28.263  17.030   9.881 -0.1379 -0.3035  0.1989
33346W        W76337  24.487  21.780  19.168 -0.1844 -0.1736  0.0596
33347W        W76338  27.624  24.806  23.916  0.2422  0.3266 -0.3003
33348W        W76339  33.311  30.010   4.097  0.3709 -0.4023  0.0119
33349W        W76340  18.822  10.242   2.384 -0.0471  0.2948 -0.0883
33350W        W76341  21.509  26.525   9.531  0.0829  0.0367 -0.0432
33351W        W76342  20.685  17.906   2.822  0.3668 -0.0500 -0.0443
33352W        W76343  16.260  11.022  21.529 -0.0158  0.0152 -0.0374
33353W        W76344  28.239  23.103  21.943  0.0396 -0.0820 -0.1061
33354W        W76345  19.969  22.412  21.486 -0.3993 -0.1579  0.3348
33355W        W76346  30.730   7.410  24.359 -0.1829 -0.0349 -0.0504
33356W        W76347  33.019   1.293   5.947 -0.1867  0.0559  0.3298
33357W        W76348  28.933  11.933  24.498 -0.2742 -0.0913  0.1664
33358W        W76349  27.096  18.209  18.249  0.0894  0.2701  0.0078
33359W        W76350   2.438  24.186  15.522 -0.1904  0.2252  0.0797
33360W        W76351   9.062  18.555  24.397  0.1373 -0.0052 -0.4162
33361W        W76352   2.903  18.467  23.315 -0.1139 -0.0795  0.0345
33362W        W76353  33.182  30.075  24.205  0.1841 -0.2581 -0.2343
33363W        W76354  29.006  22.829  26.887  0.1212 -0.1977  0.2134
33364W        W76355  29.516  29.360  27.815 -0.0515  0.2536  0.1037
33365W        W76356  16.555   6.504   7.676 -0.4194  0.1095  0.0996
33366W        W76357   5.414  30.385  23.665 -0.2053  0.0102 -0.0767
33367W        W76358  26.634  34.620  23.125  0.0069  0.0738  0.2396
33368W        W76359  20.146  16.426   4.032 -0.1832  0.1648  0.0580
33369W        W76360  34.205  24.302   7.751  0.1901 -0.1741  0.1660
33370W        W76361  18.313  12.331  17.609 -0.0721  0.1099 -0.0709
33371W        W76362  19.539  21.201   7.515 -0.1884  0.1089  0.1141
33372W        W76363   5.311  23.595  22.592  0.2482  0.2151  0.1618
33373W        W76364  13.704  27.194  16.667  0.0208  0.0818  0.2967
33374W        W76365  16.477  14.797  23.000 -0.1243 -0.1230 -0.1538
33375W        W76366   2.462  25.854  10.199 -0.0819  0.1175  0.3603
33376W        W76367  26.348  19.585  19.429  0.0918 -0.0574  0.1789
33377W        W76368  22.264   5.898  24.260  0.2228 -0.1348 -0.0612
33378W        W76369  33.308   7.702   2.218 -0.3099 -0.0360 -0.1885
33379W        W76370  32.942   5.209  26.764  0.1645  0.1900  0.1420
33380W        W76371  20.648  34.716   2.066  0.4556  0.0325 -0.2611
33381W        W76372  25.367  29.778  16.662  0.0578  0.0482  0.3796
33382W        W76373  17.393  25.699   1.638  0.2185  0.1098 -0.0945
33383W        W76374  31.293   0.773   9.150 -0.0816 -0.2697 -0.1747
33384W        W76375  10.963  13.808  22.806  0.0562  0.0350  0.1995
33385W        W76376  15.241   5.347   3.310  0.1975  0.0989 -0.0782
33386W        W76377  18.455  10.348   3.521  0.1855 -0.0281 -0.1519
33387W        W76378  29.174   6.944   7.636 -0.1188  0.0094 -0.2783
33388W        W76379  18.074   6.865   5.322 -0.0534 -0.0239 -0.3893
33389W        W76380  14.836  18.457   7.911 -0.1318 -0.2267  0.2443
33390W        W76381  28.059   5.901   2.861  0.2282 -0.1017  0.0622
33391W        W76382  12.366   3.126   4.598 -0.1685  0.1708 -0.0352
33392W        W76383  20.811   9.621  29.008  0.3119 -0.0640  0.1819
33393W        W76384  19.463   9.738   9.337 -0.0953  0.2060 -0.4280
33394W        W76385  31.683  20.359  26.212 -0.1951  0.0098  0.1405
33395W        W76386  29.171  24.509   4.106  0.1344 -0.0920  0.2216
33396W        W76387   0.947   2.926   4.824  0.4185  0.1240  0.0626
33397W        W76388  32.731  17.780  28.764 -0.0476  0.2616 -0.0421
33398W        W76389  24.339  10.037  28.937 -0.0632 -0.3462  0.0114
33399W        W76390  34.230   4.520   2.412 -0.5085 -0.0348  0.0197
33400W        W76391  26.329  29.981  23.052 -0.0563 -0.0672 -0.0102
33401W        W76392   3.316  17.494   0.171  0.1177  0.2706  0.0218
33402W        W76393   7.929  22.684   2.622 -0.5261 -0.2068  0.0413
33403W        W76394  29.350  11.188   6.334 -0.1032 -0.0426  0.1205
33404W        W76395  25.458  11.150  21.214  0.0864  0.2111  0.4758
33405W        W76396   0.099  16.150   8.427  0.2486  0.0285  0.1500
33406W        W76397   3.249  26.371   4.077 -0.1200 -0.0342 -0.0722
33407W        W76398   7.539  28.475  10.126 -0.0317  0.1398  0.1398
33408W        W76399  31.404   2.162   7.074  0.4512 -0.2569  0.0913
33409W        W76400   3.615  21.483  22.170  0.2042 -0.1466 -0.0145
33410W        W76401  24.098  26.580   1.691 -0.1586  0.0056  0.0637
33411W        W76402  30.606  32.438   2.379 -0.1425  0.1003  0.1288
33412W        W76403   0.721  10.204  17.325  0.1417  0.1449  0.3939
33413W        W76404  31.626  11.922   9.288  0.1213  0.0864 -0.1093
33414W        W76405   3.298  21.290  24.108  0.1015  0.0560  0.3128
33415W        W76406  15.756   8.771   2.586  0.4089 -0.0401  0.1327
33416W        W76407  11.280  15.418   8.574  0.0817 -0.1747 -0.1346
33417W        W76408   7.403  14.091  15.740 -0.2618  0.0824 -0.1320
33418W        W76409  28.839   3.844   3.270  0.0208 -0.1053  0.1102
33419W        W76410   5.738   4.979  16.373 -0.1686  0.2681  0.0414
33420W        W76411  29.973   3.018  26.378  0.0542 -0.1518  0.2389
33421W        W76412   9.467   3.583  27.322 -0.1825 -0.2209 -0.1233
33422W        W76413  16.603   6.410  27.492  0.1931  0.3061  0.0649
33423W        W76414   0.546  22.531   1.704  0.2473  0.0447 -0.2302
33424W        W76415   4.432  10.123   1.497 -0.0638  0.2165  0.0245
33425W        W76416  18.731  21.494   0.647 -0.0213 -0.2172 -0.2634
33426W        W76417  16.746   7.503   8.346  0.1526 -0.0323  0.4373
33427W        W76418   5.193   0.007   3.594 -0.1112 -0.0374 -0.0174
33428W        W76419  17.114  32.167   2.960  0.0373 -0.1305  0.2830
33429W        W76420  32.742  20.974  25.971 -0.1904 -0.3495  0.1329
33430W        W76421  30.838  17.970   4.918 -0.0279 -0.1058 -0.1676
33431W        W76422  31.167  13.272  20.033 -0.0208  0.3479  0.0214
33432W        W76423  25.817   3.565   6.802 -0.0993 -0.1207 -0.1505
33433W        W76424  16.365  33.218   6.875  0.1194  0.1781  0.0711
33434W        W76425  10.492  30.668  25.749  0.0090 -0.0054 -0.1312
33435W        W76426  30.350  23.730  24.411 -0.1677 -0.2909 -0.1321
33436W        W76427  19.357  10.025   7.261  0.1815 -0.2468  0.0892
33437W        W76428  29.977  14.777   1.753 -0.0472  0.2511  0.0267
33438W        W76429   1.103  11.546  10.495  0.0413  0.2528  0.0312
33439W        W76430   3.632  16.101  11.320  0.0106  0.1046  0.6425
33440W        W76431  34.194  23.598   1.524  0.1448 -0.0726  0.2435
33441W        W76432  10.443  31.771   6.113 -0.4454 -0.0444 -0.2229
33442W        W76433  17.480  15.674  22.808 -0.1580 -0.0455 -0.0686
33443W        W76434  22.704   6.180   9.413 -0.3590  0.0641  0.1920
33444W        W76435  22.326  20.182   7.643 -0.4245 -0.0919  0.2092
33445W        W76436   6.506  28.749  19.612  0.4802 -0.0226  0.2133
33446W        W76437  31.328  18.851   6.423  0.2723 -0.1591  0.0646
33447W        W76438   4.237   7.527  11.063  0.3264 -0.0172 -0.0478
33448W        W76439  17.686   8.606   9.800  0.2870 -0.1250  0.0562
33449W        W76440  20.880  26.492   1.185 -0.1114 -0.2686 -0.0588
33450W        W76441  31.038  10.171   5.305 -0.0924  0.2249  0.0564
33451W        W76442  27.145  21.924   6.228  0.0454 -0.3903 -0.0985
33452W        W76443  13.624  18.407   5.419 -0.3653 -0.2290  0.2057
33453W        W76444   4.324  10.261  15.547  0.0934  0.0112 -0.2566
33454W        W76445  15.034  11.938   6.916  0.0742  0.0848  0.0093
33455W        W76446   1.634   5.545   1.468 -0.0132  0.0544  0.2725
33456W        W76447   1.991  14.591  20.625 -0.1517  0.0516 -0.3380
33457W        W76448  10.686   3.445   2.597 -0.2019 -0.0991  0.1195
33458W        W76449  25.774   9.570  28.391  0.0249 -0.3758 -0.2882
33459W        W76450   3.646  28.697   3.751  0.0539 -0.0840  0.3734
33460W        W76451  12.509  12.197  18.219  0.0095 -0.0941  0.1740
33461W        W76452  26.202   1.135   0.698 -0.0629 -0.2239  0.0593
33462W        W76453  34.516  13.255   4.216  0.1001  0.5502  0.3163
33463W        W76454   8.740  16.321   3.571 -0.2463 -0.0157  0.0361
33464W        W76455  19.554  11.571  26.506  0.0375 -0.1860 -0.0652
33465W        W76456  20.855  15.626  27.571  0.0888 -0.0522  0.0063
33466W        W76457  23.775  16.399   6.524  0.2948  0.1556 -0.0828
33467W        W76458   5.860  15.191  26.502 -0.2889 -0.2139 -0.0418
33468W        W76459  25.767   3.484   4.115  0.0264  0.1124 -0.0221
33469W        W76460  25.937  18.713  28.572  0.2748 -0.2413 -0.0588
33470W        W76461  29.437  33.780   9.535 -0.0045 -0.0085 -0.1169
33471W        W76462  33.442  10.696   9.650  0.1218 -0.0552  0.0420
33472W        W76463  27.758   6.653  28.269 -0.5147  0.2392  0.1337
33473W        W76464  16.906   6.624   2.342  0.0890 -0.2082  0.1996
33474W        W76465  19.357  15.413  22.107 -0.1197  0.0165  0.2933
33475W        W76466  25.528  13.775  26.716  0.1074  0.2309  0.1204
33476W        W76467  21.675  13.499  29.128  0.2694  0.0948  0.0752
33477W        W76468   9.807   6.457  23.062  0.1647 -0.0061  0.0357
33478W        W76469   2.168   9.586  11.175 -0.1922  0.3567 -0.2179
33479W        W76470   4.984  12.105   0.299  0.0396 -0.3992  0.4405
33480W        W76471   7.426  11.758   6.874 -0.1243  0.3196 -0.0327
33481W        W76472  17.553  13.247   4.236 -0.1461 -0.0220  0.1329
33482W        W76473  21.737  18.533   1.068  0.2080 -0.0514 -0.2425
33483W        W76474   4.261  13.268   9.858 -0.1697 -0.2753 -0.0826
33484W        W76475  30.721  26.297   9.951 -0.3457 -0.3106 -0.1279
33485W        W76476  24.243   6.613   4.696 -0.1720 -0.1115  0.0189
33486W        W76477  22.230  28.845   1.358 -0.0926 -0.2066 -0.0474
33487W        W76478  20.290   5.278  28.892  0.1235  0.1664 -0.0094
33488W        W76479  13.057  22.307   1.064 -0.0114 -0.0832 -0.3651
33489W        W76480  17.222  10.515  10.244 -0.3913 -0.0969 -0.0760
33490W        W76481  28.042  19.639   9.807 -0.0781  0.1840 -0.2194
33491W        W76482  33.576   2.980   6.219  0.0649 -0.0619  0.4035
33492W        W76483   7.251   0.971   0.698  0.2663  0.1700  0.0776
33493W        W76484  22.991  11.433   5.087  0.2168  0.1528  0.0304
33494W        W76485  13.355   3.963  26.876 -0.2478  0.0633  0.0075
33495W        W76486  25.599  24.651   8.577 -0.2136  0.3627 -0.1347
33496W        W76487   2.560   9.586   3.381 -0.5355 -0.0461 -0.0250
33497W        W76488  34.492  20.233   7.067  0.2745 -0.1284 -0.0810
33498W        W76489  24.401  32.965   3.325 -0.1216  0.2142 -0.2341
33499W        W76490  22.973  12.418   0.290 -0.0056 -0.0531 -0.2039
33500W        W76491  18.515  20.013   6.633 -0.1609 -0.1805  0.0029
33501W        W76492  22.935  19.236   8.575 -0.1669  0.1530  0.3756
33502W        W76493  21.508  20.208   1.948  0.1876 -0.1019  0.1453
33503W        W76494   2.800  17.515   1.204  0.1564  0.0360  0.0863
33504W        W76495  29.474   4.006   1.438 -0.6177 -0.0213 -0.1226
33505W        W76496  27.454   5.390  23.924 -0.1402  0.0665 -0.0874
33506W        W76497  11.090   6.614  18.044  0.1439  0.0191  0.2305
33507W        W76498  33.252  22.193   0.710 -0.2972  0.1654 -0.1768
33508W        W76499  26.582   4.771   3.006 -0.0454  0.0224 -0.2704
33509W        W76500  19.460  19.149  14.624  0.0926  0.0987 -0.2078
33510W        W76501  29.054  32.482   6.407 -0.0485 -0.0977  0.0204
33511W        W76502   5.215  33.747   1.009 -0.1388 -0.0195  0.0506
33512W        W76503  31.930   3.989  29.053 -0.1429 -0.1776  0.0567
33513W        W76504  24.115  27.524  27.617 -0.0041  0.1707 -0.0524
33514W        W76505  19.363   0.446   8.296  0.1323 -0.1338  0.0632
33515W        W76506   4.518   4.845  26.604 -0.1581  0.0165  0.1379
33516W        W76507  28.807  24.983   1.231  0.0380  0.0961 -0.2716
33517W        W76508  13.139  28.827  22.682  0.1090  0.1706 -0.1537
33518W        W76509  34.094  13.603  10.298 -0.2440 -0.0999 -0.1962
33519W        W76510  26.974  11.092   6.966  0.0288  0.0608  0.4802
33520W        W76511  20.745  11.753   3.209 -0.0251  0.0281 -0.2131
33521W        W76512  11.287  34.234  26.686  0.1283  0.1621  0.1246
33522W        W76513  27.002  12.376   6.562 -0.3135 -0.0526  0.1094
33523W        W76514  14.487   2.539  27.134  0.1188 -0.0230 -0.0855
33524W        W76515  24.962  20.376   5.640 -0.1217 -0.0488 -0.1127
33525W        W76516  30.420  19.358  10.564  0.0464  0.1074  0.1182
33526W        W76517   9.706  12.132  26.008  0.2110 -0.0650 -0.3062
33527W        W76518  12.804  13.558   8.986  0.0468 -0.1090 -0.2277
33528W        W76519  26.341  12.960   5.413  0.1855  0.2087  0.1962
33529W        W76520  33.993  17.779   7.713 -0.1754  0.1459  0.1841
33530W        W76521  25.321  16.708  27.653 -0.0561  0.1821 -0.0692
33531W        W76522  16.757   9.819   4.381 -0.0724 -0.0584 -0.1751
33532W        W76523  22.512   9.625   1.263  0.1945 -0.1115  0.1093
33533W        W76524  14.674  25.281  27.587  0.1474  0.0266  0.1365
33534W        W76525  29.106  26.935   9.121 -0.1404 -0.1867 -0.0559
33535W        W76526  25.622  15.648   8.457 -0.0549 -0.0962 -0.0740
33536W        W76527  13.688  28.816   3.323 -0.1608 -0.0062  0.0756
33537W        W76528  31.272  10.778   9.923  0.0463  0.2126  0.0925
33538W        W76529  32.576   5.159  25.713 -0.0265  0.0426 -0.2029
33539W        W76530  14.448  24.400   5.588 -0.0154 -0.4128  0.3126
33540W        W76531   5.623  11.367  11.527 -0.1522  0.1136  0.0658
33541W        W76532  32.621  10.583  26.343 -0.4643 -0.0427  0.0236
33542W        W76533  30.757  12.642   5.842 -0.3595 -0.0556 -0.1120
33543W        W76534  30.535  34.348   3.540 -0.1452 -0.1374 -0.1319
33544W        W76535  31.511  16.371  10.351  0.1780  0.0641 -0.4496
33545W        W76536  20.481  24.664  17.495  0.0931  0.0953 -0.0170
33546W        W76537  26.105  21.538   0.201 -0.2864  0.5571  0.3659
33547W        W76538  15.352   2.171  18.077 -0.2846  0.2386 -0.2927
33548W        W76539  11.217  11.596   6.033  0.2868  0.1660  0.0663
33549W        W76540  15.820  11.761   3.693 -0.1112  0.1261 -0.0569
33550W        W76541  31.380  16.634  26.183  0.1699 -0.0744  0.0999
33551W        W76542  29.282  21.973   1.168 -0.1179 -0.2637 -0.0691
33552W        W76543  26.789  13.161  26.093  0.1751 -0.0499  0.0628
33553W        W76544  24.720  11.078  24.047  0.1801 -0.0051  0.0568
33554W        W76545  22.177  13.578   3.181 -0.0913 -0.3060 -0.0890
33555W        W76546  32.863   6.829  26.559 -0.1042 -0.2247  0.4796
33556W        W76547  18.448  14.564   3.322 -0.0114 -0.0627  0.0486
33557W        W76548  30.489  15.908  26.065  0.1333  0.0754 -0.0528
33558W        W76549  23.967  19.209  22.544 -0.1031  0.1174  0.0825
33559W        W76550  34.537  32.844   0.606 -0.1502 -0.4728  0.0285
33560W        W76551   0.869  12.959   0.891  0.2062 -0.2439  0.1897
33561W        W76552  33.152   8.412  27.744  0.4543 -0.2303  0.0639
33562W        W76553   9.607  26.094   7.248 -0.4779  0.0580  0.1665
33563W        W76554  27.732  26.262   0.331  0.0561  0.0281 -0.4860
33564W        W76555  20.809   7.973   4.787 -0.2816  0.3969  0.2339
33565W        W76556  11.392  20.407  28.674 -0.0081 -0.1075 -0.1034
33566W        W76557  24.751  20.226  21.151  0.0371  0.1675 -0.0895
33567W        W76558  28.826  21.061  27.456  0.0762 -0.0710 -0.1929
33568W        W76559   4.517  32.945   0.764  0.0645 -0.3058 -0.1641
33569W        W76560  30.952  28.259   0.239  0.2279  0.0473  0.0091
33570W        W76561  24.459   7.690   9.894 -0.0038  0.0731  0.1288
33571W        W76562  25.576   4.393   4.782 -0.0789 -0.1793 -0.0638
33572W        W76563  31.727   4.588   2.573 -0.1619  0.3554 -0.1051
33573W        W76564  17.717  26.836   4.910  0.0705  0.2411 -0.2623
33574W        W76565  28.661   8.239   5.993 -0.1327  0.1188 -0.2633
33575W        W76566   8.594  33.336   9.380  0.3282 -0.0609  0.0839
33576W        W76567   7.432   5.466   9.419  0.0460 -0.0867  0.0528
33577W        W76568  18.153   4.624  20.113 -0.0179 -0.1963 -0.1765
33578W        W76569  33.454   1.148  24.760 -0.1685 -0.3628  0.2679
33579W        W76570   0.134  16.280  23.473  0.1489 -0.2605  0.1046
33580W        W76571  32.324  14.409   8.790  0.0459  0.0051  0.1141
33581W        W76572  27.041  19.615   8.725  0.3330  0.1787  0.1389
33582W        W76573  18.521  16.261  26.399 -0.1365  0.1174  0.1675
33583W        W76574  21.487  14.534   3.240 -0.1941  0.0558  0.2793
33584W        W76575   1.288   8.220   1.876 -0.0483 -0.0499  0.1162
33585W        W76576  21.440  21.873   8.448  0.1918 -0.1738  0.5248
33586W        W76577   2.320  12.045  10.377 -0.3190 -0.0114 -0.2043
33587W        W76578  29.117   1.847  16.148 -0.0245 -0.1888 -0.0097
33588W        W76579  33.067  13.577   8.065 -0.1648 -0.1586  0.0463
33589W        W76580  23.152   8.807   9.195 -0.0791  0.0502  0.1106
33590W        W76581  21.364  11.487   8.647 -0.0354  0.0363 -0.1364
33591W        W76582  21.473  15.129  28.450  0.3888 -0.0342 -0.2105
33592W        W76583  30.255  16.683   2.025 -0.0028  0.2181 -0.1098
33593W        W76584  20.413  10.549   3.895 -0.0518  0.1089  0.3120
33594W        W76585  29.920   8.869   1.075  0.1530  0.1834 -0.2254
33595W        W76586  23.712  16.345  21.982 -0.2025 -0.3877 -0.0389
33596W        W76587  22.797  20.279   3.587  0.0828  0.0313  0.1822
33597W        W76588  34.653  27.827   0.027 -0.2194  0.0657  0.1824
33598W        W76589   2.498  29.096   0.258  0.0272  0.2294 -0.1221
33599W        W76590  17.221  14.042   3.364  0.1145  0.0424 -0.1345
33600W        W76591  30.513  22.426  24.680 -0.3609 -0.3613 -0.0841
33601W        W76592  24.884  14.264  28.044 -0.0774 -0.0521  0.0251
33602W        W76593  18.891  20.246   0.122  0.1072 -0.1502  0.1182
33603W        W76594  30.286  14.230   2.982  0.3209  0.0438  0.0088
33604W        W76595  26.486  19.718   9.693  0.3845 -0.1036  0.0440
33605W        W76596   9.088  23.493  25.829 -0.3326  0.1655 -0.2376
33606W        W76597   7.660   3.917   6.710  0.1624 -0.0558 -0.2811
33607W        W76598  20.023   5.640  19.587  0.2095 -0.0007 -0.1392
33608W        W76599  33.921  13.620   6.826  0.2862  0.1174  0.4350
33609W        W76600   8.468  28.374  25.727 -0.0194 -0.0580  0.1757
33610W        W76601   8.633  17.774  28.344 -0.2308  0.2364 -0.2199
33611W        W76602  11.425  11.382  15.482  0.0659  0.1624 -0.3504
33612W        W76603  30.892  13.910   9.113  0.0445 -0.2871  0.0293
33613W        W76604  31.807  33.531   0.981 -0.2668 -0.3975 -0.3146
33614W        W76605  22.857  17.672  18.140 -0.0283  0.0381 -0.1221
33615W        W76606  25.476  16.996   2.630  0.1102  0.1458 -0.3029
33616W        W76607  26.152  20.450  23.510  0.1926  0.2321  0.0747
33617W        W76608  10.280  19.893  23.910  0.0226 -0.2280 -0.0992
33618W        W76609   3.238   9.297   0.330 -0.3098 -0.0291  0.0405
33619W        W76610  22.786  13.211  18.828  0.0456 -0.0109  0.0884
33620W        W76611  26.308  14.929   5.901  0.0205 -0.0587  0.2051
33621W        W76612  31.931   4.271   3.398  0.0203  0.0359 -0.1238
33622W        W76613  30.133  34.014   7.451  0.0575  0.2740 -0.2288
33623W        W76614  22.590  29.480   7.989 -0.0950  0.3108  0.1132
33624W        W76615  25.347   4.940   3.306 -0.2070 -0.0242  0.1965
33625W        W76616  32.959  13.744  26.178  0.2896  0.2739  0.0364
33626W        W76617   0.149   9.582  10.810 -0.0006 -0.2155  0.1295
33627W        W76618  32.506  16.039  10.144  0.2143 -0.0675  0.2225
33628W        W76619  33.392   5.689   5.320 -0.0840 -0.2433  0.0980
33629W        W76620  22.065  18.011   7.766 -0.1074 -0.1766  0.3980
33630W        W76621  25.035   1.902   1.064 -0.0055  0.2161  0.1308
33631W        W76622  24.114   2.195   5.704 -0.0842  0.2482 -0.0591
33632W        W76623  31.211   5.350   2.405  0.1809 -0.3053 -0.0394
33633W        W76624  33.887   6.958  15.093 -0.0427  0.0309 -0.1816
33634W        W76625  27.934  19.894   8.042 -0.0796 -0.2591 -0.1238
33635W        W76626   5.455   3.957   1.406 -0.1872  0.1461 -0.0801
33636W        W76627  31.973   4.448  27.313 -0.0966 -0.1250 -0.0791
33637W        W76628  28.464   9.770   8.695 -0.0446 -0.0196 -0.0409
33638W        W76629  20.869   3.119  27.521 -0.1367 -0.1209 -0.0568
33639W        W76630   5.332  20.153   9.858 -0.3167  0.3171  0.1260
33640W        W76631  29.867  16.766  19.414 -0.0797  0.1097  0.1691
33641W        W76632  22.423  30.656  19.771 -0.0187 -0.0436  0.2860
33642W        W76633  27.634  11.883   2.405  0.0220  0.0602  0.0136
33643W        W76634  21.946  14.822  20.096  0.1166  0.0236 -0.2123
33644W        W76635  18.788  26.377  14.846 -0.0894 -0.1150 -0.0476
33645W        W76636  14.556  10.549   7.492  0.0030 -0.1901 -0.0982
33646W        W76637  27.942   8.190   0.279  0.0734 -0.1367 -0.0779
33647W        W76638   3.381   6.947   3.257  0.1758  0.1117 -0.2035
33648W        W76639   8.950   5.810   6.450 -0.3919 -0.0734  0.0761
33649W        W76640  26.732  14.344  10.722 -0.1604  0.2283  0.3165
33650W        W76641  11.119  13.225   3.879 -0.1008  0.2306  0.2381
33651W        W76642  26.807  23.955   1.199  0.0155 -0.1239 -0.1382
33652W        W76643  28.694   3.024   7.981 -0.2024 -0.0491  0.0460
33653W        W76644  29.032  16.518   1.964 -0.1207 -0.0404  0.0854
33654W        W76645  32.714  12.174   3.501  0.0396  0.2925 -0.2697
33655W        W76646  34.117  10.145   5.943 -0.0911  0.0740 -0.1003
33656W        W76647   2.149   1.436   2.631  0.2177  0.2954 -0.2246
33657W        W76648  33.141  17.393   8.474  0.2029 -0.2229 -0.1354
33658W        W76649  16.827  16.062   4.593 -0.2011  0.1432  0.0918
33659W        W76650  21.506  12.443   4.538  0.0386 -0.0864 -0.1700
33660W        W76651  22.185  15.455   3.292  0.0430  0.0595 -0.0687
33661W        W76652  13.362  15.575   5.912  0.1738 -0.0602  0.3455
33662W        W76653  22.354  19.605   6.190 -0.1916 -0.1552 -0.0447
33663W        W76654  29.302  21.406   5.299 -0.1009  0.2820 -0.1163
33664W        W76655  17.945   7.199  27.575 -0.1650 -0.0166  0.0934
33665W        W76656  30.317   2.705   8.024 -0.0639  0.0823 -0.1307
33666W        W76657  14.405   7.250   4.779  0.5720  0.0316 -0.0474
33667W        W76658   0.729  19.825   1.570  0.2283 -0.1309  0.1040
33668W        W76659  13.902  16.055   5.001 -0.1406 -0.1257 -0.2173
33669W        W76660  27.683  13.398   4.907 -0.2934 -0.3382 -0.0385
33670W        W76661   3.832  14.036   3.805 -0.3861 -0.0362  0.3414
33671W        W76662  32.333  20.987  25.149  0.1926 -0.0707  0.0227
33672W        W76663  24.396  20.044   1.653  0.5847 -0.0100 -0.4817
33673W        W76664  19.612  16.998   2.792  0.1510  0.0436  0.1544
33674W        W76665  22.893  18.208  22.462 -0.4044 -0.2656 -0.1780
33675W        W76666  14.592  16.913   3.682  0.0220  0.1523  0.1733
33676W        W76667  28.549  20.545   6.489  0.0276  0.2304  0.2788
33677W        W76668  21.868   7.718   6.023  0.1239  0.2034  0.1575
33678W        W76669  13.586  11.999   9.986 -0.0177  0.2303  0.3888
33679W        W76670  27.114  19.095   5.453  0.4432  0.0213  0.1420
33680W        W76671  31.237  25.080  27.658  0.5050 -0.0341 -0.0718
33681W        W76672   0.307  13.865  25.514 -0.0302 -0.5496  0.3114
33682W        W76673   7.531  27.395  27.167  0.1304  0.1593 -0.2131
33683W        W76674  23.411  29.417  28.656 -0.1160  0.2028  0.0457
33684W        W76675  18.574  26.222  27.053 -0.1184 -0.0922 -0.2467
33685W        W76676   8.966  30.552  27.102  0.2648  0.3324  0.1806
33686W        W76677  22.508   7.055   1.164 -0.0452  0.4666  0.1845
33687W        W76678  34.031   9.060   2.598 -0.1680  0.0131  0.1946
33688W        W76679  11.886  12.284   1.549 -0.0714  0.0912  0.2779
33689W        W76680  18.842  21.643   0.153  0.0430 -0.3739  0.4765
33690W        W76681   2.058  10.730   2.810 -0.0118  0.0890  0.1157
33691W        W76682   1.807  16.495   4.466 -0.1624 -0.1135  0.0197
33692W        W76683  24.817  15.802  15.417 -0.0031  0.2189 -0.2180
33693W        W76684   1.964   6.990   1.912 -0.0589  0.2544  0.0403
33694W        W76685   4.519   2.251   7.715 -0.2337 -0.1840 -0.2365
33695W        W76686  16.013  11.282   6.259  0.0651 -0.1930 -0.2497
33696W        W76687   2.629  28.511   1.494  0.0589  0.1593  0.2092
33697W        W76688  32.197   8.741   5.307 -0.1421  0.1402 -0.0758
33698W        W76689   6.060   9.961   5.834  0.1618 -0.0331  0.1970
33699W        W76690   2.199   5.520  18.416 -0.0006  0.0266  0.1434
33700W        W76691  29.022   6.537   5.673 -0.0583  0.1187  0.0047
33701W        W76692  14.762  14.029   4.643  0.2320  0.0215  0.0417
33702W        W76693  25.949  19.553   5.242  0.0469 -0.0348  0.0878
33703W        W76694  14.924  17.871   1.777  0.1933  0.1454  0.2666
33704W        W76695  23.319   8.656   0.856  0.1545  0.0321 -0.0163
33705W        W76696  23.454  19.430   9.572  0.0565 -0.3118 -0.2648
33706W        W76697  28.448  18.456  27.053  0.0765  0.0090  0.2618
33707W        W76698  23.198  13.358   7.047 -0.3191  0.0827 -0.1350
33708W        W76699  33.118   1.885   3.148 -0.1549 -0.1018  0.1977
33709W        W76700  13.701   5.503  11.207 -0.0832  0.1883  0.1199
33710W        W76701  20.975  21.683   5.170 -0.2663  0.0187  0.0850
33711W        W76702  17.634  16.425   0.985  0.1292  0.2853 -0.1700
33712W        W76703   1.880  23.486   8.771  0.0449  0.3977  0.0461
33713W        W76704   3.034   9.065   8.702  0.0905 -0.1696  0.2347
33714W        W76705   1.397  31.085   8.455 -0.2112 -0.1325 -0.2735
33715W        W76706  30.710  18.087   2.707 -0.0056  0.0594  0.0257
33716W        W76707  28.985  21.376  27.870  0.0297 -0.1596  0.0071
33717W        W76708  26.025  17.027   0.193  0.2957 -0.1860 -0.0660
33718W        W76709  21.985  12.893   6.405 -0.2314 -0.1313 -0.1966
33719W        W76710  18.998  20.901   3.387 -0.0456 -0.0443 -0.4182
33720W        W76711  14.706   6.698   6.697 -0.3388  0.0162  0.0614
33721W        W76712   5.724   0.378  10.530 -0.0140  0.2453  0.3045
33722W        W76713   0.181  25.562  10.458  0.4259  0.2098 -0.1979
33723W        W76714  23.559  17.636   9.940  0.1198  0.0426 -0.2563
33724W        W76715  33.476  24.472   0.497  0.1610 -0.1818  0.0690
33725W        W76716   8.392  23.227  26.938  0.1017  0.2203 -0.0459
33726W        W76717  19.507  11.868  29.078 -0.1608 -0.2657  0.3923
33727W        W76718   8.269  14.083   9.470 -0.0950 -0.1743 -0.0340
33728W        W76719  21.760  20.201   2.885 -0.1597 -0.2911 -0.1659
33729W        W76720  31.991  17.425  28.581  0.1986  0.1082  0.1873
33730W        W76721  34.539  13.585   6.218 -0.3692  0.1420  0.5900
33731W        W76722   5.691  14.120   5.813  0.0893  0.1322  0.3067
33732W        W76723  22.518  19.606   5.588 -0.0387  0.1908 -0.0097
33733W        W76724  30.630  16.983   6.745 -0.2708 -0.1793  0.1995
33734W        W76725  24.730   9.447   2.063  0.0231 -0.1895  0.0814
33735W        W76726   7.717  31.293  24.382  0.1049 -0.1400  0.0560
33736W        W76727  32.332  13.007   6.645  0.2411  0.0256 -0.1340
33737W        W76728  17.971  12.970   5.954 -0.1558 -0.1475  0.0276
33738W        W76729  24.550   6.291   3.381  0.0360  0.1098 -0.4171
33739W        W76730  27.196  13.295   9.920  0.3443  0.1680 -0.2299
33740W        W76731  29.860  10.888   5.418 -0.2990  0.0558 -0.0357
33741W        W76732  26.296  10.548   2.466  0.1404  0.0637 -0.3886
33742W        W76733  32.693  21.157  27.628 -0.2980 -0.0142  0.3420
33743W        W76734  29.959  24.778   8.190  0.0946 -0.0891 -0.3881
33744W        W76735  31.549  14.146  21.582  0.0063 -0.0895  0.1176
33745W        W76736  32.810  33.518   7.976  0.0184  0.1607 -0.1748
33746W        W76737  15.424  23.014   6.237 -0.1322  0.1234  0.0804
33747W        W76738   3.406   7.364   8.392 -0.0074  0.3438 -0.1934
33748W        W76739   3.949  14.761   7.261  0.1615  0.2464 -0.2474
33749W        W76740  24.315  10.220   6.309  0.0784 -0.3264  0.2452
33750W        W76741  21.517   2.878   1.864 -0.1223  0.1368 -0.1153
33751W        W76742  26.145  14.642   6.980 -0.0542 -0.0691  0.0423
33752W        W76743   7.618   0.195   0.722 -0.1133 -0.1493 -0.2024
33753W        W76744  28.315  17.401   8.141  0.1705  0.3998 -0.3209
33754W        W76745  27.721  11.445  10.614 -0.1474  0.2425 -0.1874
33755W        W76746   6.493  15.106   0.887 -0.1623  0.0623  0.0553
33756W        W76747  25.547   6.669   3.146 -0.0922  0.4364  0.2503
33757W        W76748   4.381  12.807  10.650  0.0564 -0.1716  0.0024
33758W        W76749  20.720  33.558   3.613 -0.1445  0.0698  0.2300
33759W        W76750  31.808  11.589  27.768  0.1748  0.0616 -0.1574
33760W        W76751  29.082  20.222  25.747  0.2961  0.0735 -0.0905
33761W        W76752  14.084   8.145  11.186  0.1681  0.0842  0.1284
33762W        W76753  32.191  13.894  28.588  0.3064 -0.3272 -0.3416
33763W        W76754  14.636  21.508   1.959 -0.0449 -0.0786 -0.4218
33764W        W76755  20.059  14.436   7.305  0.1311  0.2052  0.1599
33765W        W76756   9.259  31.042   6.536 -0.0435  0.0456  0.1661
33766W        W76757  28.318   1.362   5.081 -0.4054  0.0745  0.2805
33767W        W76758  26.239  20.180  15.766  0.1445  0.2511 -0.0371
33768W        W76759  25.321  15.897   4.532 -0.0172  0.0134  0.0401
33769W        W76760   1.403   6.888   2.584  0.2297 -0.0132 -0.0322
33770W        W76761  25.038  11.798   5.000  0.1419  0.2254  0.0457
33771W        W76762  15.336  28.567   7.759  0.0222 -0.1964  0.5063
33772W        W76763  22.523   6.195   6.307  0.0655  0.1256  0.0995
33773W        W76764  33.424  32.049   1.789  0.1957  0.1821  0.0597
33774W        W76765  31.063  20.334   9.086 -0.0056  0.0986  0.0014
33775W        W76766   0.093  17.744   7.992 -0.1877 -0.0404  0.2789
33776W        W76767  14.274  16.718  15.408  0.1150  0.0238  0.1936
33777W        W76768  10.237  15.986  27.257 -0.1078  0.2422 -0.0821
33778W        W76769   2.050   9.257   0.583 -0.1757 -0.1134  0.2732
33779W        W76770   5.063  17.485   6.388  0.0129 -0.0829 -0.0453
33780W        W76771   8.888  31.293   5.877 -0.0552 -0.0204  0.1260
33781W        W76772  20.341   4.902  22.433 -0.0329 -0.0645  0.0860
33782W        W76773  20.950  19.848   1.980 -0.0717 -0.0643 -0.0753
33783W        W76774  32.287  19.224   8.983 -0.0935 -0.0988  0.0839
33784W        W76775  23.567   4.352   8.383 -0.1038 -0.0186 -0.1464
33785W        W76776   4.668  32.878  23.691  0.1800 -0.3944  0.1337
33786W        W76777   6.704  14.765   8.667 -0.0818  0.0095  0.1171
33787W        W76778   0.220  11.907   6.645  0.1171 -0.2152  0.1947
33788W        W76779  34.013  19.765  28.386  0.0955  0.2545 -0.0807
33789W        W76780  30.368  12.183   9.224  0.0167 -0.1857 -0.2088
33790W        W76781  33.223  18.977   8.267 -0.0015  0.2727 -0.1583
33791W        W76782  25.608  24.846   1.966 -0.2360 -0.2263 -0.1269
33792W        W76783  15.741  17.015  28.935  0.2579  0.0808 -0.1893
33793W        W76784  27.093  18.156  28.838 -0.0194  0.1073 -0.0830
33794W        W76785   6.704  11.218   8.302  0.2509 -0.1491  0.0247
33795W        W76786  23.912   4.320   2.405 -0.1591  0.0359 -0.3567
33796W        W76787  22.350  13.928  26.557 -0.1789 -0.3631  0.0577
33797W        W76788   0.315  33.622   1.708 -0.1778 -0.1457  0.2875
33798W        W76789  25.885  16.094   8.333  0.1704 -0.1117 -0.3033
33799W        W76790  25.356  14.177   8.766  0.1683  0.4214  0.0117
33800W        W76791  31.992   7.602   9.449 -0.1573  0.1037  0.0159
33801W        W76792  10.100   5.752  22.358 -0.0193  0.0327  0.0735
33802W        W76793   1.860   0.346   7.598  0.0460 -0.2212 -0.2212
33803W        W76794  24.641  20.402  24.702  0.2089  0.1059  0.0146
33804W        W76795  32.916   7.097   9.661 -0.0029  0.0394  0.2413
33805W        W76796  31.514  31.174  24.134  0.0686  0.1117  0.2501
33806W        W76797  32.921  24.413  20.860 -0.0660 -0.0238 -0.1297
33807W        W76798  28.272   5.883  26.871 -0.1760 -0.2822 -0.0218
33808W        W76799  20.911  13.141   3.622  0.1487  0.0841 -0.2991
33809W        W76800  33.228  11.776  25.857  0.1132 -0.1782  0.3853
33810W        W76801  20.934  15.890  25.464 -0.0861  0.1231  0.0478
33811W        W76802   4.423  18.769   6.069 -0.2590 -0.2947 -0.2112
33812W        W76803  21.137   6.709   9.465 -0.2067 -0.0198  0.0306
33813W        W76804  30.213   6.462   2.703 -0.1847 -0.1463 -0.2657
33814W        W76805   4.983  21.770   7.796  0.2903  0.0326 -0.0990
33815W        W76806  25.646   9.361   3.009  0.0254  0.1478 -0.1222
33816W        W76807  23.979  31.537   3.937 -0.2094  0.1551  0.0226
33817W        W76808  14.939   5.260   6.780  0.0504  0.0128 -0.2070
33818W        W76809  19.564   6.627  21.869  0.1108 -0.3170  0.1398
33819W        W76810  10.909  18.694   2.834 -0.1086 -0.1692  0.2505
33820W        W76811  30.678  24.197   1.278  0.2800 -0.1055 -0.0318
33821W        W76812  21.460  16.095  22.208 -0.0459 -0.2546 -0.2070
33822W        W76813  30.971   6.875  14.765  0.1296  0.1261  0.0226
33823W        W76814   2.626   7.614  23.944  0.0604  0.2873 -0.0286
33824W        W76815   4.915  29.457  18.889  0.2399 -0.1173  0.1066
33825W        W76816  18.416  24.767  28.270 -0.0420 -0.2860 -0.2344
33826W        W76817  29.427  14.855   6.088 -0.4378 -0.1942 -0.1842
33827W        W76818   6.552   2.435  21.944 -0.1226  0.1055 -0.0297
33828W        W76819  24.148  17.597   0.976  0.0310 -0.0696  0.2444
33829W        W76820  33.737  23.483  27.717  0.2882  0.0141  0.2503
33830W        W76821  19.900  21.661   6.621 -0.0251  0.0675 -0.0394
33831W        W76822  22.636   6.077   1.889  0.0716 -0.2031 -0.0537
33832W        W76823   0.091  22.598   7.242  0.0574 -0.0159  0.0200
33833W        W76824  18.874  20.435  20.816  0.0823  0.0828  0.0705
33834W        W76825   4.634  30.748  29.121 -0.1483 -0.3828  0.1184
33835W        W76826  26.028  27.632   1.902 -0.0324  0.0405  0.2858
33836W        W76827  25.421  19.581   0.718  0.0476  0.1160 -0.0159
33837W        W76828  22.497  20.084   4.841  0.1199  0.0734  0.2216
33838W        W76829  21.173  19.535  14.419 -0.3240 -0.1158 -0.0194
33839W        W76830  33.003   7.762  10.457 -0.1859 -0.0007 -0.0899
33840W        W76831   6.944   3.759   9.122 -0.2274 -0.1504  0.3472
33841W        W76832  20.866  10.435  22.676 -0.2420 -0.1153 -0.2948
33842W        W76833  19.702   8.071  16.173 -0.1523 -0.1184  0.2446
33843W        W76834   0.252   8.536   0.660  0.2023 -0.0065  0.0606
33844W        W76835  20.597  17.545   7.760  0.0414  0.0299  0.0962
33845W        W76836  31.503   6.097   9.266 -0.2383  0.2462  0.0389
33846W        W76837  15.393  24.301   3.837  0.0705  0.0838 -0.2967
33847W        W76838  25.517  22.426  26.113  0.1202  0.1238 -0.1922
33848W        W76839  34.399   4.317  28.662  0.0639 -0.3590  0.0765
33849W        W76840  23.033  32.245   7.544  0.0308  0.0794  0.1629
33850W        W76841  26.341  11.454   3.034 -0.0971 -0.0090  0.1730
33851W        W76842  16.121  34.134  22.908  0.2154 -0.1275  0.2010
33852W        W76843   5.838  11.568  19.577 -0.0382 -0.1538 -0.0307
33853W        W76844  27.392  11.413   8.638  0.1613 -0.0765  0.3230
33854W        W76845  15.342   3.963   7.693 -0.1250 -0.0912 -0.2214
33855W        W76846  18.614  16.529  28.726  0.0406 -0.1049  0.0461
33856W        W76847  32.076  10.263   7.461  0.1748  0.4857  0.0780
33857W        W76848  30.920   6.865   8.978  0.1060 -0.0802 -0.0410
33858W        W76849  15.428   8.457   2.737  0.0174 -0.1781 -0.0193
33859W        W76850  30.838  27.148   9.432  0.0534 -0.1229 -0.4316
33860W        W76851  19.927   6.246  26.198  0.0032 -0.0433  0.1790
33861W        W76852   3.027  20.573  19.287 -0.0856 -0.1526 -0.2601
33862W        W76853   7.493   9.703   9.451  0.1559 -0.0475  0.0903
33863W        W76854  25.186  33.764   2.737  0.3384  0.1110  0.1292
33864W        W76855  25.637   8.332   6.358 -0.2137 -0.0099  0.0162
33865W        W76856  16.826   7.038   3.988 -0.0218  0.2235 -0.1113
33866W        W76857  23.885  15.841  27.991  0.0155 -0.0085  0.0538
33867W        W76858  20.602  21.418   8.585 -0.2902  0.1507 -0.1870
33868W        W76859  27.854  15.003  27.146  0.2497  0.0731  0.2526
33869W        W76860  16.748  21.810  25.602  0.0719 -0.0396 -0.1268
33870W        W76861  13.192   6.366  10.695  0.2796  0.0392  0.1909
33871W        W76862  10.422  34.083   6.902 -0.0373 -0.0941 -0.1038
33872W        W76863  32.204  31.879   3.237 -0.1620  0.0446  0.0866
33873W        W76864   3.678  18.561   6.537  0.0552 -0.2327 -0.0070
33874W        W76865   8.819  16.324  27.472  0.1859 -0.1492 -0.1421
33875W        W76866   6.265  16.826   7.909  0.1256  0.1067 -0.0114
33876W        W76867  31.403   8.097   4.735  0.0768  0.2416  0.2223
33877W        W76868  22.009  22.094   6.937  0.0304  0.2667  0.0816
33878W        W76869  17.601   7.581   8.327 -0.2064 -0.1650  0.0411
33879W        W76870  30.780  30.845   4.532 -0.1221 -0.0186  0.1416
33880W        W76871  17.879   9.946  26.391  0.0397  0.1157 -0.1686
33881W        W76872  29.750  19.924  10.325  0.1071 -0.1915 -0.0384
33882W        W76873  17.989  13.484  28.337 -0.3292  0.2122  0.0130
33883W        W76874   1.038   3.468  24.696 -0.3640 -0.5140  0.1594
33884W        W76875   4.705  11.364  10.139 -0.2260  0.2909  0.1677
33885W        W76876  22.950  11.883  14.824  0.1549  0.1904 -0.0329
33886W        W76877   3.534   1.399   9.418  0.1222  0.1312  0.1256
33887W        W76878  21.155  10.487   8.364  0.3249 -0.1194  0.1627
33888W        W76879  33.127  19.346   8.920 -0.2561  0.0409 -0.3217
33889W        W76880   0.251  31.615   7.148  0.1032 -0.0296  0.0969
33890W        W76881  33.267  18.793  22.611 -0.2952 -0.0488 -0.0446
33891W        W76882  14.512  28.513   6.451  0.1155  0.3337  0.0001
33892W        W76883  28.562  31.223   6.447  0.0146  0.2406 -0.0252
33893W        W76884   4.582   6.086   8.679 -0.1225  0.0257 -0.1146
33894W        W76885  33.343  30.298  28.188 -0.2509  0.0896  0.1058
33895W        W76886  32.095   1.982   8.385 -0.1418  0.1837 -0.3699
33896W        W76887  16.864   7.425  24.674  0.3365 -0.3815 -0.0860
33897W        W76888   6.527   9.654   4.544  0.1262 -0.2243 -0.0434
33898W        W76889  31.286  14.750   4.492  0.0530 -0.0396 -0.2613
33899W        W76890  16.132  24.302   1.604  0.2391 -0.0590  0.1188
33900W        W76891  24.252  11.632  25.332 -0.0666  0.0985  0.1573
33901W        W76892   1.351  25.734   5.722  0.2080 -0.2107 -0.1247
33902W        W76893  23.279  16.742   1.165  0.0732 -0.1304  0.0379
33903W        W76894  21.471  29.465  28.019  0.2421  0.2909 -0.2254
33904W        W76895  14.986  13.077  20.157  0.1114  0.0118 -0.0603
33905W        W76896  14.411  10.210   0.282 -0.0383 -0.1159  0.1038
33906W        W76897  26.718  21.062  25.502 -0.1789  0.0461  0.4440
33907W        W76898   9.449   1.101   1.716 -0.0505  0.0197  0.1310
33908W        W76899   4.523  19.664  28.529 -0.4626 -0.1775  0.0460
33909W        W76900  30.254  17.349   2.776 -0.1284  0.4333 -0.1511
33910W        W76901  27.135  28.505   6.859 -0.2569 -0.2173  0.0303
33911W        W76902  31.692  11.053   6.689  0.1068 -0.4566 -0.0995
33912W        W76903  15.230  32.994   1.767  0.1626  0.0158  0.1011
33913W        W76904  24.075  19.342   7.757 -0.4187 -0.2190  0.3934
33914W        W76905   6.963   7.665   5.608  0.3875 -0.0875 -0.0332
33915W        W76906   1.709  14.911  10.806 -0.0114  0.3005 -0.1787
33916W        W76907   2.713  24.408  17.361  0.1625  0.1849  0.1418
33917W        W76908  15.992  15.787  24.757  0.1515 -0.2749 -0.1409
33918W        W76909  20.328   9.113  22.818 -0.2744 -0.0348  0.2472
33919W        W76910  20.350  11.724   7.229 -0.3361  0.2179  0.0652
33920W        W76911  26.729   0.198   2.604  0.0316  0.0396 -0.2387
33921W        W76912  13.112  12.559   7.445 -0.0707 -0.2098  0.0267
33922W        W76913  29.913   5.280   3.934  0.2961  0.1139 -0.0996
33923W        W76914  28.556  19.651   7.653  0.1710  0.3564 -0.0915
33924W        W76915  20.418  12.949   6.696  0.4223  0.0313 -0.1113
33925W        W76916  17.239  26.897  21.012  0.1167  0.2074 -0.1289
33926W        W76917  24.612  12.203  22.731  0.2916 -0.1330 -0.2372
33927W        W76918  29.100  17.500   5.709 -0.1509  0.0416 -0.0856
33928W        W76919   2.983   6.548   2.841  0.3343 -0.2364  0.2667
33929W        W76920  23.991  16.795   9.834  0.0593 -0.0087  0.1653
33930W        W76921  22.117  21.843  26.628 -0.1296 -0.0490 -0.0284
33931W        W76922  18.303   6.585   6.808  0.0162 -0.1046 -0.2203
33932W        W76923   0.280   9.556   3.718  0.1239 -0.1568 -0.1801
33933W        W76924  25.870  12.795   3.618  0.0585  0.2159  0.2499
33934W        W76925  13.673  14.332  29.033  0.0103  0.0068 -0.0771
33935W        W76926  33.251  16.803   7.784  0.0429  0.1489  0.0513
33936W        W76927  13.033   6.615   4.294  0.0577 -0.2675 -0.0172
33937W        W76928  29.529  26.300   2.030 -0.0044 -0.0584  0.0711
33938W        W76929   5.103  19.184  25.073 -0.1246  0.3443  0.0897
33939W        W76930  20.621  12.348   2.531 -0.4754  0.1321 -0.3116
33940W        W76931  22.230  15.337   3.811 -0.2204  0.2633  0.0000
33941W        W76932  30.518  16.547   5.448 -0.0294  0.0921  0.0365
33942W        W76933   8.675  19.578   7.622 -0.0702  0.2039 -0.0945
33943W        W76934  22.820  28.952  23.377 -0.1245  0.2603 -0.2455
33944W        W76935  33.806   1.172   9.606 -0.2397 -0.2297  0.0795
33945W        W76936  30.892  12.252   9.313  0.1412  0.1806 -0.1231
33946W        W76937  27.119  18.369   8.485  0.3321  0.1046  0.1725
33947W        W76938  23.564  10.710   8.231  0.2319  0.2276  0.0061
33948W        W76939  18.426  13.075   5.694  0.2533 -0.0561 -0.1341
33949W        W76940  14.528  13.954  24.274  0.4233  0.0341  0.2578
33950W        W76941   6.856   8.140   3.130  0.0043 -0.1027  0.2631
33951W        W76942  30.459  13.672   8.711 -0.0884 -0.2208  0.1512
33952W        W76943   6.191  18.938   9.661 -0.1316 -0.0728  0.4823
33953W        W76944  26.984  11.115   4.988  0.2115 -0.1628 -0.0526
33954W        W76945  20.077  12.144   4.757 -0.2763 -0.0474 -0.2195
33955W        W76946  26.809  30.019  22.785  0.1573 -0.0841 -0.0197
33956W        W76947  27.156  19.636   1.830  0.2016 -0.0494  0.1126
33957W        W76948  15.786   8.805   8.550 -0.0100 -0.6560  0.1489
33958W        W76949  10.162   2.754   9.231 -0.1513 -0.0787  0.0662
33959W        W76950  25.397   7.737  15.305  0.0315  0.1088  0.2942
33960W        W76951  25.702  28.924   8.657  0.1600  0.0359  0.0757
33961W        W76952   4.553  17.497   6.117  0.2763 -0.0298  0.1407
33962W        W76953  15.797   9.196   5.335 -0.1595  0.1059 -0.0785
33963W        W76954   7.561  21.431   2.400 -0.0907  0.4023  0.0070
33964W        W76955  29.355  20.159   3.001  0.0700  0.3741  0.2004
33965W        W76956  19.581   7.544   7.898 -0.3402 -0.0426 -0.0366
33966W        W76957  31.393  16.946   3.086  0.0663 -0.1154 -0.2146
33967W        W76958  10.443  20.295   7.539 -0.3180  0.2355  0.1862
33968W        W76959  15.114  13.235   1.918  0.0142  0.1421  0.1877
33969W        W76960  24.887  12.006   8.688  0.0776 -0.0209  0.2428
33970W        W76961  16.661   4.550  21.514 -0.0585  0.0484  0.0822
33971W        W76962   8.145  11.309   3.361  0.0239  0.2902  0.2171
33972W        W76963  18.165  16.252   1.263 -0.2661  0.0592 -0.1576
33973W        W76964  26.197  11.566   8.724  0.1501  0.0022 -0.1115
33974W        W76965   5.819  16.917   1.872 -0.0456 -0.1021 -0.1327
33975W        W76966   7.752  24.814   2.768  0.5798 -0.0542 -0.3364
33976W        W76967  24.137   6.866  25.645  0.0239 -0.2226 -0.0148
33977W        W76968  30.116  22.168   4.692  0.0776 -0.3116  0.0024
33978W        W76969  18.131  14.520  28.447  0.0443 -0.0291 -0.2831
33979W        W76970  25.071  14.865   8.579 -0.1769 -0.1571 -0.1394
33980W        W76971   8.350  22.160   1.813  0.2236  0.0941 -0.1989
33981W        W76972   0.636  19.113   2.410  0.3465  0.0939  0.1749
33982W        W76973  29.656  13.366   5.585  0.1329 -0.0739  0.2801
33983W        W76974  28.635   4.087   5.016  0.0742 -0.1859  0.3007
33984W        W76975   4.064  14.177  25.662  0.3285  0.3028  0.0366
33985W        W76976  16.552  31.791   2.717 -0.1659  0.0294  0.2693
33986W        W76977  24.948   3.626   3.735 -0.3136  0.0387  0.0629
33987W        W76978  31.633   9.602  10.084  0.2504 -0.0272 -0.1268
33988W        W76979  10.293  25.193   5.282 -0.0527  0.0059  0.1194
33989W        W76980  26.795  19.628   0.254  0.0600  0.2888  0.0784
33990W        W76981  32.368  16.805   9.403  0.0716  0.1701 -0.0945
33991W        W76982  19.570  13.707   1.071  0.0826  0.0809  0.0763
33992W        W76983  30.929  31.676   3.578 -0.1629  0.1764 -0.0871
33993W        W76984  10.586  27.072   4.034  0.0242 -0.0926 -0.1390
33994W        W76985  23.405  26.373   2.762 -0.0756 -0.0430  0.1670
33995W        W76986  32.043   8.839   9.990  0.1903  0.1586 -0.1108
33996W        W76987  21.586  25.946  29.237 -0.3906 -0.1258  0.0604
33997W        W76988  11.430  14.622  18.328  0.1963  0.0189 -0.0545
33998W        W76989  17.281   6.168  28.360  0.1760 -0.0653  0.1253
33999W        W76990  17.344  11.664  27.951 -0.3207  0.1226  0.3516
34000W        W76991  20.895  23.444  15.527 -0.0051 -0.1179 -0.2349
34001W        W76992  18.637   1.537  28.467  0.1898  0.0884  0.2096
34002W        W76993   1.299  22.809   8.813 -0.2951 -0.0981  0.4837
34003W        W76994  32.322  19.941  28.554  0.2018  0.0885  0.1619
34004W        W76995  19.851   2.581   1.190  0.1117  0.0171  0.1305
34005W        W76996  20.181   7.273   3.518 -0.0103 -0.1063  0.4001
34006W        W76997  25.704  12.958   6.513  0.0530  0.2265 -0.2828
34007W        W76998   5.063  15.009   2.986 -0.2463  0.1252 -0.0898
34008W        W76999  32.074  12.557   5.156 -0.1332 -0.0713  0.0224
34009W        W77000  10.566  15.812   7.138 -0.1344 -0.2805  0.0363
34010W        W77001   7.249  16.809   5.004  0.0293 -0.3081  0.3587
34011W        W77002   2.942  15.617   8.075  0.3161  0.1184 -0.0890
34012W        W77003  22.657   6.353   6.797  0.1486 -0.3100 -0.0557
34013W        W77004  23.082  10.787   7.267  0.0889  0.3039 -0.0265
34014W        W77005  16.883  24.449   5.001 -0.1045  0.1503  0.2233
34015W        W77006  18.755   7.102  14.771  0.2282 -0.0779 -0.0474
34016W        W77007   0.213  20.384   5.777  0.4852 -0.2306  0.2843
34017W        W77008  22.821  18.043  28.235 -0.0091  0.1443  0.3884
34018W        W77009  21.764  20.730   8.567 -0.0853  0.1498 -0.0314
34019W        W77010   2.906  20.537   8.339  0.0449 -0.0349 -0.0723
34020W        W77011  23.881  11.859   4.985  0.0407 -0.1043  0.2045
34021W        W77012  27.838   7.510  20.740 -0.1230  0.0021  0.0611
34022W        W77013   2.632  23.771  27.305  0.1496 -0.0014  0.0702
34023W        W77014  27.560  31.370  26.202  0.1731 -0.0567  0.2109
34024W        W77015   0.486   6.446  28.869 -0.2238 -0.1745 -0.1888
34025W        W77016   0.889  28.863  20.267 -0.1878 -0.1192 -0.4129
34026W        W77017  26.422  15.070  27.405  0.0930  0.0227 -0.0788
34027W        W77018  12.595  13.352   5.768 -0.0232  0.1571 -0.0393
34028W        W77019  30.672   3.839  24.143 -0.1390 -0.2683  0.4226
34029W        W77020   6.587  11.540  25.361  0.1071 -0.1324 -0.0687
34030W        W77021  32.470   1.572  21.907  0.1922  0.0388 -0.1649
34031W        W77022   9.786  21.053   6.039  0.0672  0.0379 -0.0189
34032W        W77023  25.649  18.064   1.730 -0.1678 -0.2257 -0.1871
34033W        W77024  34.143  24.156   6.282 -0.0830  0.0262 -0.1110
34034W        W77025  12.455   4.034   8.002  0.2124 -0.0796  0.2292
34035W        W77026  17.662  34.368   3.354  0.2820  0.0450  0.1869
34036W        W77027   7.121  32.043   5.732  0.1298  0.0774 -0.2728
34037W        W77028  32.158  16.399   8.613 -0.0412 -0.1837  0.2806
34038W        W77029   4.361  30.242   1.847  0.0378 -0.3142  0.0439
34039W        W77030   1.172  14.425  23.203  0.1434 -0.1717 -0.0575
34040W        W77031  26.236   2.974   0.420 -0.1555  0.3143 -0.0828
34041W        W77032  30.082  32.280   7.293 -0.1476  0.0272 -0.1105
34042W        W77033  22.751  23.165   3.533  0.1419 -0.0315 -0.0560
34043W        W77034  17.840   0.582  14.361  0.0222  0.1942  0.0165
34044W        W77035  30.746   8.430   4.216  0.1752  0.0297  0.0102
34045W        W77036  24.102  16.338   7.564 -0.2899  0.1768  0.1501
34046W        W77037  20.383   8.421  29.107 -0.0525 -0.0590  0.1918
34047W        W77038  34.649  15.244   8.527  0.1331 -0.3898  0.2768
34048W        W77039  20.798   2.036  19.235 -0.0860 -0.0325  0.1834
34049W        W77040  14.616  14.444   5.549  0.1037 -0.0775  0.0004
34050W        W77041   4.702   3.983   5.713  0.1011 -0.3468  0.0148
34051W        W77042  27.848   7.934   7.545 -0.2094 -0.0314  0.0786
34052W        W77043  23.770  14.727   5.389 -0.0091 -0.2805 -0.0316
34053W        W77044  13.655  10.823  22.446  0.0453  0.0937  0.1148
34054W        W77045  27.880  28.879  27.932 -0.0146 -0.1115 -0.2513
34055W        W77046   7.104   0.820   3.038  0.0195 -0.1725 -0.0081
34056W        W77047  26.751   8.136   8.955  0.2004 -0.0235  0.0657
34057W        W77048  17.607  11.735   8.971 -0.1518 -0.1264  0.1744
34058W        W77049  24.789   7.289   5.058 -0.0142 -0.2352 -0.0716
34059W        W77050  16.617  21.283   6.187  0.0469 -0.0205  0.0432
34060W        W77051  10.447  14.007   1.165 -0.1563 -0.2937  0.1437
34061W        W77052  14.647  18.408   3.825 -0.1948 -0.4317  0.2184
34062W        W77053   5.897  22.680  28.317  0.1428  0.1648  0.0450
34063W        W77054  21.370  16.649   1.726  0.0267  0.0356  0.0711
34064W        W77055   1.681  17.822   6.169  0.2190  0.0135  0.2858
34065W        W77056  28.448   3.977  10.064 -0.0203 -0.3633  0.0298
34066W        W77057  16.938  17.792   2.817 -0.1374  0.0584 -0.0806
34067W        W77058  17.606   6.745  21.708 -0.0233 -0.4848  0.0362
34068W        W77059  25.167  15.936  28.863  0.1261 -0.0707 -0.0514
34069W        W77060  21.373   7.225   8.191 -0.3623 -0.1932 -0.0178
34070W        W77061   5.990  17.483   9.241 -0.0240  0.2497  0.0286
34071W        W77062  30.178   8.967   4.762  0.0677 -0.2739  0.0983
34072W        W77063  22.079  14.504  25.274  0.1007 -0.0032 -0.0850
34073W        W77064   5.753  19.492   7.707 -0.1803 -0.0611  0.2812
34074W        W77065   1.934  18.917   6.327  0.1823  0.0099 -0.0485
34075W        W77066   7.483  23.173  25.831 -0.1640 -0.1468  0.1694
34076W        W77067  19.856   7.617   2.632 -0.2089 -0.0264  0.1466
34077W        W77068  19.333  13.318   5.178  0.2181 -0.0715 -0.0504
34078W        W77069  13.222  30.992  21.845  0.1532  0.1183  0.1491
34079W        W77070   6.128   7.418  28.915  0.0116 -0.2168  0.2084
34080W        W77071   1.581  14.488   6.411 -0.0138  0.1072 -0.1032
34081W        W77072  13.807  22.525   4.388  0.3573 -0.2206  0.2623
34082W        W77073   8.806  18.584  25.903  0.1099 -0.0375  0.1517
34083W        W77074  20.415   3.172  28.904 -0.1571 -0.0170  0.2468
34084W        W77075  32.421  17.469   3.637  0.0074  0.0058  0.0981
34085W        W77076  12.687   7.606   7.395  0.0278 -0.1854  0.0398
34086W        W77077  13.052   2.703  25.792  0.3461 -0.3644  0.1583
34087W        W77078  15.526  17.891   8.352  0.2347 -0.1503 -0.1652
34088W        W77079   8.133   0.951   7.770 -0.0563  0.1156  0.0859
34089W        W77080  25.630  19.778   2.715 -0.0140  0.0211 -0.0283
34090W        W77081  15.922  17.534   9.413  0.0875  0.3525  0.0152
34091W        W77082   1.411  14.885   8.157  0.0145 -0.1241 -0.0286
34092W        W77083  21.464  16.341  24.719 -0.0625 -0.1481 -0.1249
34093W        W77084  34.039  18.439   7.789 -0.3923 -0.0913 -0.3613
34094W        W77085  20.561   0.959   6.174 -0.1213 -0.0405 -0.1939
34095W        W77086  27.168  25.461   4.590 -0.0545  0.0964 -0.0775
34096W        W77087   1.365  27.248  18.188  0.3053 -0.0815  0.1134
34097W        W77088   0.256  25.246   7.866 -0.1294  0.1457  0.1623
34098W        W77089  26.617  15.567   7.642 -0.0726  0.1277  0.1384
34099W        W77090  25.950  17.838   6.255  0.1086  0.3451  0.1821
34100W        W77091  14.997  21.419   3.407  0.0072  0.1764  0.0198
34101W        W77092   3.875  33.011   2.326 -0.1233 -0.0277 -0.0613
34102W        W77093   4.175  10.381   6.128  0.4170  0.2609  0.2048
34103W        W77094   7.021  12.617   5.626 -0.1619 -0.0184 -0.1362
34104W        W77095   5.584  14.822   7.651 -0.0210  0.0617 -0.1998
34105W        W77096  27.504  11.886   7.919  0.0494  0.2639 -0.0704
34106W        W77097  26.756  24.506   8.046  0.2332 -0.0667  0.1607
34107W        W77098   8.456   8.779   0.090  0.1058  0.1634 -0.2138
34108W        W77099  24.736  20.654   5.144  0.0515 -0.2366 -0.3753
34109W        W77100   3.921  15.863  23.065  0.2134  0.0283  0.0205
34110W        W77101  29.656  26.891   5.474 -0.1303  0.3996 -0.1333
34111W        W77102   0.461   0.380   8.167  0.0196 -0.2431 -0.0178
34112W        W77103  18.349  17.654  24.686 -0.1633  0.1831 -0.0944
34113W        W77104  13.203  12.518   9.766  0.3759 -0.1687  0.0826
34114W        W77105   5.647   4.280   5.303 -0.0647 -0.1459  0.0212
34115W        W77106  24.511  12.328  29.024  0.1400 -0.1958  0.1104
34116W        W77107  26.686  29.045   9.099  0.0179 -0.1228 -0.2624
34117W        W77108   4.317   6.157   6.550  0.2593  0.2141  0.0605
34118W        W77109  22.768  21.670   3.300  0.1126  0.2355  0.1531
34119W        W77110   5.058  20.571  27.694  0.1165 -0.2330 -0.0159
34120W        W77111  28.480  18.263   3.103 -0.2749 -0.0470  0.0354
34121W        W77112  11.213  20.486   2.053  0.3863 -0.0937  0.0112
34122W        W77113  26.370  28.651   1.960 -0.1123  0.0713  0.4512
34123W        W77114   1.314  11.767   6.162  0.1044 -0.0792 -0.2715
34124W        W77115  21.815   0.704   0.325 -0.2653 -0.1206 -0.1449
34125W        W77116  33.947   5.469   1.035 -0.2633  0.0852  0.0983
34126W        W77117   4.882  14.542  11.079  0.1251  0.4759 -0.2880
34127W        W77118  22.083  11.976  26.887 -0.1743 -0.0711  0.1836
34128W        W77119  26.599  31.428   1.847 -0.0697  0.2211  0.0609
34129W        W77120  34.420   7.583   3.546 -0.1582 -0.0207  0.0208
34130W        W77121  25.344  20.003  27.183  0.3370  0.2756  0.1240
34131W        W77122   9.244  34.237   5.277  0.2547 -0.1123 -0.3227
34132W        W77123  34.380  14.264  10.929  0.2609  0.3459 -0.0227
34133W        W77124  24.292  15.780  16.986 -0.1972 -0.0900  0.3792
34134W        W77125  33.247  10.348  10.146 -0.0253  0.2091  0.4521
34135W        W77126  26.235  11.395   9.511  0.1404  0.3208  0.4829
34136W        W77127   0.801   6.958   7.008  0.3825  0.0378 -0.0593
34137W        W77128  26.255  16.302  21.193  0.0581  0.2062 -0.1041
34138W        W77129  32.068  25.754   0.917  0.0986  0.6240 -0.0281
34139W        W77130  20.464  21.542   0.811  0.3123 -0.0893 -0.2019
34140W        W77131  27.558   9.693   8.533 -0.2889  0.1272 -0.1221
34141W        W77132  14.092  22.089   5.876 -0.5975  0.0360 -0.0408
34142W        W77133  20.987   1.801  23.707  0.1472 -0.2416 -0.0798
34143W        W77134   3.703   7.864   6.136 -0.0117  0.2393 -0.2060
34144W        W77135  26.288  18.520  26.561 -0.0231  0.2400 -0.2227
34145W        W77136  29.277   8.050   2.697  0.1200 -0.0079  0.0689
34146W        W77137  21.191  20.508  23.742  0.0937 -0.1647  0.1142
34147W        W77138  27.370  19.328  14.074 -0.0850 -0.0244 -0.1491
34148W        W77139  23.775  13.724   5.391 -0.2925  0.3187  0.3923
34149W        W77140  30.616  34.094  14.592 -0.0311 -0.3839 -0.0090
34150W        W77141  19.110  12.144  28.789  0.2403  0.2680 -0.1376
34151W        W77142   3.620  23.429  21.517 -0.0448 -0.0590 -0.3605
34152W        W77143  21.314  23.893   3.784  0.0638 -0.0504  0.1639
34153W        W77144  18.700  16.865   6.805 -0.2378 -0.0251  0.1040
34154W        W77145  27.679  29.280  19.650  0.0426  0.2051 -0.1036
34155W        W77146  26.661  32.584  13.125 -0.0837 -0.5587  0.0051
34156W        W77147  29.620  22.463  23.024 -0.1464  0.0201 -0.1889
34157W        W77148  23.970  13.339   6.332 -0.0102 -0.1205  0.2140
34158W        W77149  15.459  24.070  28.488  0.2819  0.2186  0.0752
34159W        W77150  32.971  24.980   3.369 -0.2297 -0.0324 -0.0337
34160W        W77151  11.033  17.735   9.164 -0.3086 -0.2174  0.3097
34161W        W77152   0.644   9.960   1.301  0.1450 -0.0183  0.0106
34162W        W77153   8.704  18.431  10.942  0.2345 -0.0665 -0.0105
34163W        W77154  34.546  20.103   7.683  0.1560 -0.1858  0.4827
34164W        W77155  26.316   7.484  17.884  0.1066 -0.1187  0.1553
34165W        W77156   1.898  23.875  24.484  0.1525  0.1908 -0.3535
34166W        W77157  25.892  16.577  17.100 -0.2284  0.1598  0.0693
34167W        W77158  26.750  16.326  22.588  0.0057 -0.2238 -0.0776
34168W        W77159  26.461  29.972  28.903 -0.0414  0.0473  0.1056
34169W        W77160  13.812  30.628  28.010  0.1380  0.2170  0.0521
34170W        W77161  20.841  11.240   7.497  0.0187  0.2210  0.0661
34171W        W77162   2.223   7.627   1.969  0.2449  0.0280  0.1677
34172W        W77163   0.989  27.580   6.997  0.2642 -0.0046  0.0224
34173W        W77164  29.205  19.668  27.785  0.1305 -0.0039  0.0880
34174W        W77165  17.453  23.787   6.085  0.1156  0.0983 -0.0530
34175W        W77166  22.918  24.754  17.480 -0.0516 -0.1201  0.1203
34176W        W77167  27.041  26.965   5.573 -0.2022 -0.1112  0.0013
34177W        W77168  10.666  34.224   3.836  0.2141  0.0753 -0.1156
34178W        W77169  22.669  20.568  14.806  0.1374 -0.0281 -0.2855
34179W        W77170  28.382  10.271   2.928  0.1967 -0.0434  0.1049
34180W        W77171  11.777   9.207  23.916 -0.0425 -0.3691 -0.2610
34181W        W77172  32.218  24.761   5.433 -0.0064 -0.0083 -0.3303
34182W        W77173  24.126  25.213  16.893 -0.1187  0.0637 -0.0116
34183W        W77174  13.048  29.831  27.874 -0.4701  0.1721 -0.1346
34184W        W77175   0.868  12.356  23.980 -0.0090 -0.0991 -0.2113
34185W        W77176  28.253  10.414  14.640 -0.0521  0.2207 -0.0165
34186W        W77177   7.373  30.000   9.450 -0.0647 -0.0467  0.2741
34187W        W77178  25.596  21.319   5.574  0.2015  0.1863 -0.0177
34188W        W77179  32.280  25.108  28.309  0.0493 -0.0304  0.1617
34189W        W77180   2.478  19.399   3.035  0.2562  0.2105  0.2126
34190W        W77181  18.658   8.413  27.614 -0.4509  0.1212 -0.0774
34191W        W77182  24.112  17.961   2.882 -0.2260 -0.0596 -0.1414
34192W        W77183  28.349   7.980   5.634 -0.0308 -0.0061  0.2604
34193W        W77184   6.227  14.804  23.367  0.0115 -0.0416  0.0609
34194W        W77185  21.178  29.100  22.910 -0.0208  0.2757  0.0185
34195W        W77186   2.870  34.003   3.052  0.2254  0.1473 -0.0394
34196W        W77187  14.674   2.591   8.099  0.0421  0.3010 -0.1142
34197W        W77188  23.897  16.906  18.308  0.2071 -0.2100  0.0031
34198W        W77189  33.222  24.587   3.133 -0.3501  0.1362  0.3735
34199W        W77190  22.945  29.216   8.838  0.0903 -0.0151 -0.0167
34200W        W77191  32.144  12.091   2.868  0.2335 -0.0195 -0.2231
34201W        W77192  29.414   5.863  23.023  0.0146  0.2874  0.0983
34202W        W77193  21.554  11.815  28.743 -0.0946  0.1348 -0.1638
34203W        W77194  21.800   4.042   3.528  0.1364  0.1250 -0.2057
34204W        W77195   4.462  30.808   8.270 -0.0938  0.0410  0.0818
34205W        W77196  25.557  13.812  20.265  0.0249 -0.1773  0.1747
34206W        W77197   0.817  14.753  19.147  0.0414 -0.4255  0.1737
34207W        W77198   8.565  19.357  15.239 -0.0760 -0.0036 -0.0366
34208W        W77199  31.065  12.477   8.834 -0.0275  0.0915  0.0180
34209W        W77200  32.438  29.302  25.033 -0.3294  0.1617 -0.0851
34210W        W77201  29.267  21.601  10.180 -0.0382 -0.1457 -0.1308
34211W        W77202   0.356  22.326  26.906 -0.0184  0.2695 -0.1978
34212W        W77203  33.335   7.035   8.391  0.0797  0.0808  0.1463
34213W        W77204   8.489  29.002  27.895 -0.2108  0.0789 -0.2279
34214W        W77205   5.607  34.423  22.007  0.2585 -0.0396 -0.0556
34215W        W77206  23.779  16.664   1.966  0.0794 -0.0874  0.0211
34216W        W77207  18.406   5.585  21.684 -0.0591 -0.1737 -0.3050
34217W        W77208  33.854  22.460  21.902 -0.2910  0.1127  0.0476
34218W        W77209  31.863   5.710   4.691 -0.2466  0.1013 -0.0906
34219W        W77210  26.254  14.716   8.118 -0.3253 -0.0039  0.1976
34220W        W77211  12.828  24.722  23.465 -0.1201  0.1823 -0.0932
34221W        W77212  32.808  19.731  22.045  0.0615  0.2143 -0.3518
34222W        W77213  12.355  28.632   9.960 -0.0064  0.0233  0.5330
34223W        W77214  19.817  13.361  28.770 -0.1390 -0.0629  0.4555
34224W        W77215  32.170  28.547  29.096  0.0561 -0.4346 -0.5145
34225W        W77216  27.814  17.383  28.999  0.0402  0.2380  0.1796
34226W        W77217   3.316   7.848   5.158 -0.1623  0.0911  0.1637
34227W        W77218  23.995   6.383  16.279  0.2199  0.1314  0.1067
34228W        W77219  27.203  15.912  18.637 -0.0868 -0.0178  0.0298
34229W        W77220  26.399  17.014  28.426  0.0910  0.1275  0.1247
34230W        W77221   7.764  18.206   6.585  0.3661 -0.0119 -0.0460
34231W        W77222  22.831  15.318   2.707  0.1248 -0.1706  0.0852
34232W        W77223   4.453   8.644   2.397 -0.1572  0.2188  0.4253
34233W        W77224   0.949  11.535  27.660 -0.0354  0.4033 -0.0015
34234W        W77225  30.640  14.199   7.575  0.1456  0.1790  0.6121
34235W        W77226  32.914  23.305  17.419 -0.2055  0.1482 -0.0800
34236W        W77227  13.231  12.082  19.469 -0.0522 -0.2303 -0.0180
34237W        W77228  25.119  15.745   7.352 -0.2168 -0.1332 -0.0955
34238W        W77229  24.584   7.359  27.558 -0.1487  0.3711 -0.0487
34239W        W77230  27.905  22.367   9.547 -0.0367  0.1223  0.1453
34240W        W77231  22.149   9.500  18.193  0.1144  0.0628 -0.1374
34241W        W77232  18.117   6.649  22.221 -0.3730 -0.1372 -0.3920
34242W        W77233  30.810   9.313   2.671  0.0768  0.4184  0.1693
34243W        W77234  22.004  26.956   3.144  0.1498  0.1786 -0.2259
34244W        W77235   0.738  18.314   8.514 -0.0546  0.1626 -0.1782
34245W        W77236  31.144   4.789  22.088 -0.0103 -0.1255 -0.4657
34246W        W77237  23.356   7.778   2.220 -0.2853  0.1547  0.1245
34247W        W77238  33.494   5.830   8.390 -0.1366 -0.2279 -0.1010
34248W        W77239  26.322  26.510  18.491  0.2604 -0.0176 -0.0379
34249W        W77240  34.409  32.390   5.320 -0.1846 -0.0076 -0.2476
34250W        W77241  23.301  23.558   6.873 -0.3041 -0.0710  0.3551
34251W        W77242  25.270  32.135   8.139 -0.1720  0.0047  0.0123
34252W        W77243  12.870  18.701   7.326  0.1955 -0.0063  0.1273
34253W        W77244  27.517  15.575  10.282 -0.3757  0.1062 -0.0532
34254W        W77245  34.328  17.974   8.064 -0.1813  0.2337 -0.0660
34255W        W77246  17.358  11.701  21.639  0.1558  0.1592  0.1095
34256W        W77247  18.605  30.111   3.646  0.0468  0.1580  0.1833
34257W        W77248   4.937  18.899   0.311 -0.0462 -0.0075 -0.1882
34258W        W77249  33.200  24.144   3.400  0.0718 -0.0278  0.3216
34259W        W77250  31.251   2.460  28.951 -0.1512  0.1631  0.0284
34260W        W77251  30.105   8.940   3.966 -0.4318 -0.1886  0.4069
34261W        W77252   9.571  19.922  10.288 -0.1448  0.3994 -0.0541
34262W        W77253  27.633   6.164   8.004 -0.0854 -0.2051 -0.0798
34263W        W77254   1.182  21.060   0.488  0.0097  0.1725  0.1668
34264W        W77255  12.117  16.514  13.869 -0.1094 -0.1580  0.0254
34265W        W77256  16.222  21.189   1.908  0.0113  0.1442  0.1159
34266W        W77257  31.641  12.847   2.164  0.1154 -0.1547 -0.2715
34267W        W77258  18.498  12.544   2.154 -0.2468 -0.3314  0.1903
34268W        W77259  19.873  12.626  23.867  0.1041 -0.0876  0.2265
34269W        W77260  30.804  17.760  23.051 -0.0223  0.1196  0.1535
34270W        W77261  21.262  16.629  18.927 -0.1581  0.0387  0.0765
34271W        W77262  28.942  28.487   9.021  0.2418 -0.0899 -0.0770
34272W        W77263  29.923   2.203   2.902 -0.4904  0.1405  0.0889
34273W        W77264  34.397  25.141   4.997  0.1794  0.0508  0.0023
34274W        W77265  31.471  12.357  16.775 -0.0995 -0.1059 -0.0749
34275W        W77266  31.124  30.572   7.288 -0.2051 -0.0926 -0.3618
34276W        W77267  18.405  21.317  17.265  0.0923  0.2034  0.2144
34277W        W77268   2.786  18.400   5.040  0.0896 -0.1304 -0.3076
34278W        W77269  16.686  13.521  21.790  0.0868 -0.0253  0.1307
34279W        W77270  25.210  16.877  21.089 -0.0864 -0.0072 -0.0973
34280W        W77271  21.026   9.628   3.205  0.2604  0.2135 -0.2456
34281W        W77272  13.186   2.199   2.404  0.0655 -0.0893  0.0710
34282W        W77273  25.949  16.010  24.697 -0.3670  0.1879 -0.2044
34283W        W77274  15.690   2.329  20.596  0.2106 -0.3196 -0.1394
34284W        W77275  25.258  11.455   7.631  0.1375 -0.0421 -0.0104
34285W        W77276  30.301  26.321   5.793  0.0668  0.1500 -0.1669
34286W        W77277  22.373  19.793  21.622  0.1749  0.2529 -0.0303
34287W        W77278   4.014  15.496  10.347 -0.1613 -0.3407 -0.2220
34288W        W77279   3.436  13.594   5.796  0.3574  0.1426 -0.0199
34289W        W77280  12.374  23.818  18.980  0.3928  0.0612 -0.0435
34290W        W77281  17.943   5.471   2.661 -0.0681 -0.0284 -0.1403
34291W        W77282  17.465  17.845   4.410 -0.3735  0.1016  0.1003
34292W        W77283   1.253  14.445   5.513 -0.3108 -0.0295  0.0960
34293W        W77284   2.419  22.523   9.815  0.1224 -0.0635  0.1415
34294W        W77285  33.389  20.433   5.451 -0.0402  0.1718 -0.1264
34295W        W77286  23.309  22.342   1.744  0.2100 -0.2254  0.1164
34296W        W77287  26.257  28.293  21.698 -0.0710 -0.0447  0.0434
34297W        W77288  21.179  19.712  15.525  0.4286 -0.3023  0.1113
34298W        W77289  23.611  31.219  28.387  0.2224 -0.2073 -0.3917
34299W        W77290   7.309  27.451   3.694  0.1068 -0.1773  0.1766
34300W        W77291  21.798  34.098  15.807  0.3875  0.1102  0.0185
34301W        W77292   6.358   8.646   6.481 -0.1740  0.0361  0.2706
34302W        W77293  17.568  21.866   3.179  0.0635  0.1060  0.1197
34303W        W77294   4.694  25.192  16.823  0.1597  0.0655  0.0680
34304W        W77295  14.203  21.816   5.276 -0.2547  0.1964  0.1909
34305W        W77296  13.969   4.820   5.618  0.0939  0.1131 -0.1523
34306W        W77297  28.178  17.069  28.873  0.1074  0.1497  0.2211
34307W        W77298   7.462  16.205  15.586  0.0011  0.1351 -0.2006
34308W        W77299   1.218  30.110   0.895 -0.1619 -0.3037  0.0501
34309W        W77300  33.290  13.532  23.778  0.1098 -0.0380 -0.1590
34310W        W77301  18.036   8.453   2.735 -0.0213  0.1905 -0.2350
34311W        W77302  11.259  19.683   5.754  0.0052  0.0001 -0.1124
34312W        W77303  17.191  25.579   8.820 -0.3117  0.0271 -0.0074
34313W        W77304  33.345   3.448   8.229 -0.2003 -0.0470 -0.0429
34314W        W77305  13.524   7.623   5.073 -0.0801 -0.2983  0.1523
34315W        W77306  19.939  16.556  28.278  0.2254  0.2220  0.1101
34316W        W77307  11.824  11.998   2.884 -0.2371  0.3074 -0.0725
34317W        W77308  18.016  21.486  17.608 -0.0704 -0.0338  0.2110
34318W        W77309  19.825   8.195   4.973 -0.0729 -0.2604  0.1656
34319W        W77310  28.188  18.382  23.104  0.2251  0.0125  0.1675
34320W        W77311  27.501  21.480   2.277  0.0127  0.2168 -0.0176
34321W        W77312  14.038  33.316  17.617  0.2025  0.4340  0.1889
34322W        W77313   1.084  19.568   7.519  0.0364 -0.2987 -0.1593
34323W        W77314  25.610  15.220   0.180  0.2817 -0.1237  0.3462
34324W        W77315  20.943  16.197  21.998  0.0157  0.0568  0.1118
34325W        W77316  33.055  30.450  20.723  0.2882  0.0476  0.2984
34326W        W77317   3.577  11.260   3.236 -0.3882 -0.1639  0.1991
34327W        W77318  29.433  27.780  19.150 -0.0877 -0.0806 -0.3463
34328W        W77319   3.320  13.244  17.673 -0.4595  0.2769  0.1500
34329W        W77320  22.422  12.895   7.029  0.0248  0.3039 -0.0322
34330W        W77321  28.221  23.009  25.044 -0.1327  0.4333  0.0412
34331W        W77322   0.672   9.993   3.495 -0.0820  0.0423 -0.0877
34332W        W77323  27.646  17.131   6.796  0.1525  0.2272 -0.0468
34333W        W77324  22.475  17.978  26.834 -0.0732  0.3111 -0.0816
34334W        W77325  21.327  11.999  26.639  0.2276  0.3618  0.3602
34335W        W77326  25.128  17.322  23.473 -0.2584  0.4661  0.0667
34336W        W77327  21.592  15.043  26.302 -0.1288  0.0330  0.2531
34337W        W77328  17.150  16.894   6.953 -0.2459  0.2584  0.1108
34338W        W77329  28.942  21.634   7.147 -0.0731 -0.4550 -0.2948
34339W        W77330  22.496  12.955  22.166 -0.0526 -0.0338 -0.1318
34340W        W77331  27.622  22.136  29.224 -0.2079 -0.3072  0.2413
34341W        W77332  24.737  12.938   2.742 -0.0894  0.1243 -0.5616
34342W        W77333  25.286  13.751   6.279 -0.0621  0.4407  0.1058
34343W        W77334   2.553  19.018  23.532 -0.1726  0.2349 -0.1324
34344W        W77335  29.667   6.678  24.030  0.1369  0.0074 -0.0820
34345W        W77336   1.743  22.792  23.503 -0.0601  0.0417 -0.1487
34346W        W77337   2.322  23.445  26.919  0.2491 -0.1720  0.3071
34347W        W77338  34.517  24.033   5.631  0.2727 -0.0752  0.1199
34348W        W77339   2.885  24.711  28.579  0.1176 -0.0374 -0.0419
34349W        W77340  30.350  32.605   5.843 -0.0592  0.0815 -0.2979
34350W        W77341   9.095   4.062  23.903 -0.1262  0.1338 -0.2302
34351W        W77342  28.164  29.745   3.369 -0.1061  0.0303 -0.2366
34352W        W77343  19.068  13.942   7.022 -0.2472  0.0502 -0.2987
34353W        W77344  28.318  13.797  17.099  0.2017 -0.1530  0.0734
34354W        W77345  30.077  30.845   1.538 -0.0570  0.1643 -0.0754
34355W        W77346   9.490   4.112   5.475 -0.0078 -0.1749  0.2235
34356W        W77347  24.552  19.377   4.768 -0.0209  0.0158 -0.1700
34357W        W77348  16.589  25.941   5.598 -0.1951 -0.1751 -0.0735
34358W        W77349  23.845   6.014   1.362 -0.0612 -0.2230 -0.2754
34359W        W77350  24.490   7.356  28.573 -0.1923 -0.3911  0.0421
34360W        W77351  21.937  15.404  15.910  0.1694 -0.1475  0.0078
34361W        W77352  15.526  17.773   2.301  0.2309 -0.1288 -0.1335
34362W        W77353  34.610  20.560  26.278 -0.0788  0.2794  0.0959
34363W        W77354  25.304  10.837   9.251 -0.1171 -0.0120  0.0842
34364W        W77355  15.456  14.811  25.012 -0.0970 -0.3964  0.2519
34365W        W77356  34.308  25.944   2.339  0.1395 -0.0676  0.1469
34366W        W77357  31.354   9.614  20.434 -0.0341 -0.0102  0.0053
34367W        W77358  34.569  29.388   9.783 -0.2845  0.0502 -0.1872
34368W        W77359  25.285  22.020  22.646  0.1633  0.1118 -0.2755
34369W        W77360  18.567  28.215   7.302 -0.2954 -0.3222  0.2816
34370W        W77361  25.596  32.676   3.612 -0.1254 -0.3474 -0.1652
34371W        W77362  12.854  15.284   3.985  0.0274  0.3706  0.3519
34372W        W77363  23.519  12.423   3.842 -0.2413  0.0972 -0.2067
34373W        W77364   8.713  17.067   0.992 -0.2322 -0.0858  0.0738
34374W        W77365  32.985  33.056  28.325  0.0143  0.0929 -0.1764
34375W        W77366  11.789  25.837   1.854  0.0898  0.0054 -0.0593
34376W        W77367  34.410  32.645  22.004 -0.0671  0.0954 -0.1330
34377W        W77368  20.207   3.208  24.244 -0.0780  0.1035  0.1851
34378W        W77369  30.512  26.318   6.503 -0.0646  0.0397 -0.1059
34379W        W77370  32.452  12.204   0.019 -0.0441  0.2992  0.3043
34380W        W77371  17.641  26.445   3.519  0.3017 -0.0624 -0.2123
34381W        W77372  25.031  10.559   3.034  0.0746 -0.2001  0.1803
34382W        W77373  34.189  23.284  24.576  0.0761  0.3086 -0.0490
34383W        W77374   1.091  34.174  21.745 -0.0515  0.2401 -0.0500
34384W        W77375   0.357  24.314   0.616  0.0451 -0.1007 -0.0576
34385W        W77376   7.261  19.661  26.809  0.0909  0.1403  0.0184
34386W        W77377   2.076  11.739  15.210 -0.3543 -0.1973  0.2613
34387W        W77378  25.947  31.541  27.650  0.1266  0.0841  0.1258
34388W        W77379  15.466  15.957   8.935  0.0833 -0.1067  0.0254
34389W        W77380  13.442   8.704   7.080 -0.1452 -0.1111  0.0363
34390W        W77381   7.880  13.504  22.494  0.0690  0.0787  0.0047
34391W        W77382  32.284  30.323  28.900 -0.2485 -0.0427 -0.0291
34392W        W77383  17.222  13.013  13.626 -0.1581 -0.1055 -0.0245
34393W        W77384  28.742  23.556   4.146 -0.3259 -0.0314 -0.5466
34394W        W77385  26.495  22.928   0.560 -0.0879 -0.1102 -0.1572
34395W        W77386  20.012  17.305   8.035  0.1070  0.2688  0.1429
34396W        W77387  24.388   4.225  18.753 -0.2077  0.0457 -0.2576
34397W        W77388  17.697  10.604  25.604  0.0323  0.1450  0.2489
34398W        W77389  28.122  28.275  24.049  0.2197 -0.0196  0.1328
34399W        W77390  29.046  19.937   5.192  0.0342  0.2434  0.0187
34400W        W77391  33.278  10.937   7.888 -0.0981  0.2504  0.0831
34401W        W77392  18.656   7.336  23.974  0.1548 -0.0187 -0.3075
34402W        W77393  26.706  26.687   8.579  0.1722 -0.0468 -0.2855
34403W        W77394   9.074  11.693   9.023 -0.1576 -0.2840  0.1118
34404W        W77395   3.546  14.958   9.702 -0.0599  0.0897  0.0282
34405W        W77396  34.362  27.112   4.593  0.1043  0.0960  0.0554
34406W        W77397   0.737  22.828   8.828 -0.0588 -0.2146  0.2989
34407W        W77398  22.767  33.889  27.065 -0.0357  0.3486  0.1280
34408W        W77399  26.426   0.244   2.135  0.0485  0.0627 -0.3749
34409W        W77400   0.572  29.777  20.571  0.2019  0.1794  0.0399
34410W        W77401   5.148  14.982   7.894  0.0176  0.0953  0.0715
34411W        W77402  30.296  21.096   9.374  0.2423  0.1900  0.1981
34412W        W77403  31.087  17.383   4.361  0.1020  0.4303 -0.0357
34413W        W77404   0.425  15.381   3.484 -0.1122 -0.2632  0.0802
34414W        W77405  24.499  26.896  25.348  0.2515 -0.0849  0.2889
34415W        W77406  20.092  34.634  28.859 -0.1305  0.0576 -0.0290
34416W        W77407  16.052  23.417   2.697  0.1234 -0.0528 -0.1272
34417W        W77408  31.914   9.420  10.879 -0.1273 -0.1414 -0.1566
34418W        W77409   8.413  26.189  10.572  0.0586  0.1222 -0.0641
34419W        W77410  14.211  18.402  28.785 -0.6208  0.1346  0.0992
34420W        W77411  21.461  16.717   0.867  0.1797 -0.0908 -0.2497
34421W        W77412  20.789  19.244   8.662 -0.1446  0.0267  0.0204
34422W        W77413  21.855  13.807   0.317 -0.0509  0.1821  0.0249
34423W        W77414  24.799  33.181  18.873  0.0764 -0.0859  0.0212
34424W        W77415  30.229  22.046  29.075 -0.1670  0.4312  0.2675
34425W        W77416  26.300  21.519   8.297 -0.1236  0.0665  0.2709
34426W        W77417  27.821   2.475   5.841 -0.5314  0.1564 -0.1426
34427W        W77418  19.572  18.657  24.697 -0.0132  0.1516 -0.0680
34428W        W77419  27.255  28.446  28.307  0.0617 -0.0949  0.3040
34429W        W77420  29.210  26.909   6.631  0.0996 -0.0164 -0.0744
34430W        W77421  32.975  30.198  28.527  0.1016 -0.0956 -0.1237
34431W        W77422  27.743  25.371  28.082  0.0309  0.3886 -0.5866
34432W        W77423  30.466  19.630   0.151  0.2078 -0.0985  0.2271
34433W        W77424   4.711  18.361   5.912 -0.0597  0.1719 -0.1702
34434W        W77425  14.008  15.447   6.410 -0.1326 -0.0018 -0.0917
34435W        W77426   3.593  10.453   5.954 -0.1648  0.3575  0.1306
34436W        W77427  31.322  11.664  24.723 -0.1727 -0.1761 -0.1004
34437W        W77428   2.084  17.668  10.926  0.0956  0.2685  0.3969
34438W        W77429  32.681  30.737   5.002  0.0371  0.3203  0.1036
34439W        W77430  21.444  11.310   3.526 -0.1301 -0.0534 -0.0031
34440W        W77431  21.761  16.889   4.460 -0.0343  0.3191 -0.2456
34441W        W77432  27.690  11.053   8.513 -0.1320  0.0361 -0.0090
34442W        W77433  22.285  21.641  28.991  0.0539  0.1475  0.1810
34443W        W77434  29.294  12.835   4.020 -0.0048  0.0105  0.0743
34444W        W77435   1.648  26.333   7.472 -0.0822  0.3827 -0.0335
34445W        W77436  21.316  18.944   6.901 -0.1338 -0.2445 -0.1015
34446W        W77437   4.259  17.537  17.776 -0.1301 -0.1058 -0.1389
34447W        W77438   6.709  11.305   5.728  0.0806 -0.1219  0.2308
34448W        W77439   8.922  22.946   5.731 -0.3390 -0.1318  0.1457
34449W        W77440  25.413  19.418   9.523 -0.1457 -0.1730 -0.1445
34450W        W77441  21.965  12.600  27.664  0.1363  0.3268  0.1981
34451W        W77442  34.267   5.432   0.674  0.0694  0.0957  0.6280
34452W        W77443   9.326  13.221   3.663 -0.1683  0.4255 -0.0551
34453W        W77444  32.703  18.435  24.419 -0.0478  0.2551 -0.0914
34454W        W77445  23.808   7.898   1.993 -0.0533 -0.0395 -0.1745
34455W        W77446  25.511  22.818  16.396  0.2211 -0.3499  0.1179
34456W        W77447  23.259   7.794   5.303  0.0829 -0.1549 -0.1248
34457W        W77448   8.701  18.523  18.005 -0.1136 -0.1510 -0.0039
34458W        W77449  30.551  15.406  24.579  0.0420  0.1202  0.2732
34459W        W77450  21.523  20.010   2.409  0.2401  0.1881  0.0685
34460W        W77451  21.273  19.186   1.340  0.0610 -0.1249  0.0235
34461W        W77452   2.944   8.399   9.160  0.0196  0.2162 -0.0810
34462W        W77453  21.990  19.223   6.496 -0.0674 -0.1494  0.4582
34463W        W77454   7.507  20.425   6.537 -0.1202 -0.3486  0.0548
34464W        W77455   5.757  18.359   6.969 -0.1217  0.1752  0.0870
34465W        W77456   6.776  19.520   1.959  0.0028  0.0894  0.1249
34466W        W77457  22.070  24.931  18.007  0.1159 -0.2133  0.2919
34467W        W77458  11.641  18.010  18.061  0.0713  0.3374 -0.1607
34468W        W77459   5.361  12.116   8.433  0.0027 -0.1002  0.0383
34469W        W77460  33.032  19.344  10.430 -0.3087 -0.0277  0.0846
34470W        W77461  33.594  31.599   2.645  0.3392  0.0462 -0.1835
34471W        W77462  11.794   4.990   5.515  0.0631  0.2759  0.0230
34472W        W77463  24.402  24.751   4.723  0.1558 -0.0258 -0.1806
34473W        W77464  17.244  22.953  27.605  0.2510 -0.0395 -0.1910
34474W        W77465  14.181  11.348  15.025 -0.1836  0.1821  0.3586
34475W        W77466  32.623  20.146   6.627 -0.1144 -0.0353 -0.0840
34476W        W77467  24.269   2.431  27.992 -0.0508  0.1772 -0.2182
34477W        W77468  23.662  32.684  26.968 -0.0215  0.3256 -0.1337
34478W        W77469  21.039  24.306  18.708 -0.0511 -0.1198  0.0131
34479W        W77470  24.605  23.183  16.275  0.1555  0.1932  0.1973
34480W        W77471   3.560  31.553  27.589 -0.2086  0.0305 -0.0165
34481W        W77472  27.362  23.932   2.772  0.1859 -0.0576 -0.1502
34482W        W77473   3.055  24.116   6.375 -0.0971 -0.1571 -0.3133
34483W        W77474  19.093  16.930   4.790 -0.1101 -0.1414 -0.3130
34484W        W77475   4.596  13.247   8.495 -0.1056 -0.2135  0.1467
34485W        W77476  14.435  28.558  23.869  0.1008 -0.1352  0.2516
34486W        W77477  29.910   2.992   4.031  0.0459 -0.1001 -0.1257
34487W        W77478  14.182  17.251  25.614 -0.0684 -0.1486  0.0941
34488W        W77479  32.974  22.956   7.136 -0.1580  0.0507 -0.3921
34489W        W77480  29.073   1.886   8.366 -0.2393 -0.2735  0.0694
34490W        W77481  14.290  19.034   0.790  0.0018 -0.1044 -0.0090
34491W        W77482  22.037  18.901   5.063 -0.2966 -0.0574 -0.2044
34492W        W77483  29.807  21.072  28.115 -0.1847  0.2374 -0.0882
34493W        W77484   3.499  21.685  27.259 -0.1911  0.2923  0.3265
34494W        W77485  30.403   8.858  15.389 -0.1554 -0.0554  0.2972
34495W        W77486  17.711  34.208   1.008  0.0197  0.1186  0.0878
34496W        W77487  26.531   9.031   9.238 -0.3254  0.0788  0.0749
34497W        W77488   6.399  11.794   7.130  0.0239 -0.0495  0.0441
34498W        W77489  17.231  20.726  23.305  0.1257  0.2045 -0.0876
34499W        W77490   4.952  20.608  26.079 -0.2238  0.1814  0.0745
34500W        W77491  31.992   7.803   1.894  0.2170 -0.0258 -0.0216
34501W        W77492  31.223   8.536   3.225 -0.1052 -0.0718 -0.1843
34502W        W77493  25.183  10.025   3.488  0.1308 -0.0679  0.1476
34503W        W77494  26.208  30.301  13.907  0.0058  0.1889 -0.0391
34504W        W77495  33.799  27.479  21.116 -0.1474 -0.1060  0.0784
34505W        W77496  24.121  24.973  27.387  0.0234 -0.2324  0.1025
34506W        W77497  29.956  11.870   5.398  0.3943  0.0759 -0.3077
34507W        W77498  19.294  22.998  19.728  0.1471  0.0964  0.2491
34508W        W77499  14.583  15.607   6.354  0.2411 -0.0755  0.0461
34509W        W77500  28.470   0.727  18.735 -0.2375 -0.1733  0.0247
34510W        W77501   9.406  15.218   7.800 -0.1339 -0.0868 -0.0240
34511W        W77502  26.660   8.681  23.874  0.1591 -0.4498  0.1196
34512W        W77503  23.062   9.194   8.305  0.2511  0.0505  0.0791
34513W        W77504  24.838  21.906  20.432 -0.0521  0.1067 -0.2116
34514W        W77505  26.468  24.970   7.408  0.1146 -0.1261 -0.2086
34515W        W77506   7.352  11.320   4.902 -0.1704  0.0598  0.1850
34516W        W77507  22.437  23.938   3.185  0.2310  0.2251  0.2759
34517W        W77508   7.513   7.418   0.972  0.1546 -0.4422 -0.1512
34518W        W77509  16.353  14.541   7.331  0.4199 -0.3206 -0.2032
34519W        W77510   5.878   8.185   3.662  0.2332 -0.5049  0.0215
34520W        W77511  26.531  18.283   0.654 -0.0729 -0.0146 -0.2185
34521W        W77512   3.730   4.943  26.032  0.0618  0.1550 -0.0948
34522W        W77513  32.280  20.998   1.853 -0.0079 -0.4174 -0.1046
34523W        W77514  27.740  34.242   2.254  0.0538 -0.0595 -0.1167
34524W        W77515  20.345  20.697   5.548  0.1654  0.2232  0.1544
34525W        W77516  14.021  19.045  27.651 -0.0292  0.3195  0.0729
34526W        W77517  28.735   9.702   7.587  0.1330 -0.1441 -0.1781
34527W        W77518  28.423  18.587   5.720 -0.0490  0.0039  0.1855
34528W        W77519  26.297   0.575  25.436 -0.1601  0.1134 -0.3797
34529W        W77520  19.238   6.353   7.332 -0.3065 -0.1084 -0.1584
34530W        W77521  31.026  24.859   7.880 -0.2163 -0.1284 -0.1150
34531W        W77522  19.371  15.119  27.761 -0.0273 -0.0560  0.1482
34532W        W77523   3.500  29.966   0.181  0.0060 -0.4192 -0.2388
34533W        W77524  28.939  20.228   7.570 -0.1987 -0.3080 -0.3718
34534W        W77525   4.428   9.189   9.480  0.0842 -0.2241 -0.0773
34535W        W77526   0.053  12.030   9.691  0.1256 -0.1958  0.1289
34536W        W77527  28.374  25.534   0.433 -0.0240  0.1559  0.1124
34537W        W77528  21.315  13.817   5.397 -0.0624 -0.0869 -0.1206
34538W        W77529  16.856  20.327   5.799 -0.0006  0.0961 -0.1874
34539W        W77530  26.956  13.444   0.050  0.3079  0.2573 -0.1471
34540W        W77531  22.614  13.621  27.336 -0.1272  0.0653 -0.0468
34541W        W77532  30.296   3.361   3.520  0.1676 -0.0722  0.2050
34542W        W77533  33.955  16.254   2.033  0.0405  0.0479 -0.2239
34543W        W77534   5.773  21.559   6.390 -0.3270  0.0083 -0.0339
34544W        W77535  13.602  10.180  26.891 -0.0403  0.2204  0.0588
34545W        W77536  34.483  18.641   6.630  0.1702  0.0649  0.0251
34546W        W77537  25.633  33.091  24.082 -0.5295  0.0381  0.3065
34547W        W77538  22.850   8.194   5.215  0.3314  0.1787 -0.0161
34548W        W77539  12.957  12.306   9.286 -0.0028 -0.2163  0.2464
34549W        W77540  10.310  24.322  16.108  0.0688 -0.1066 -0.3602
34550W        W77541  32.065  28.455   7.542 -0.0189 -0.1622  0.0272
34551W        W77542  27.110  17.295   0.976 -0.0844 -0.1603  0.0403
34552W        W77543  29.628   0.303  14.146  0.0314  0.1770  0.0965
34553W        W77544   3.096  11.151  20.038  0.1421 -0.2094 -0.1417
34554W        W77545  27.214   2.954  20.600  0.3359  0.1641 -0.0232
34555W        W77546  21.808  20.401  14.331 -0.1391  0.1226 -0.2599
34556W        W77547   1.295  27.269   5.893 -0.2246 -0.1569 -0.1056
34557W        W77548   0.491  15.575   7.502 -0.1902  0.2403 -0.1767
34558W        W77549  31.542  24.296   2.368  0.0539  0.0996  0.1722
34559W        W77550  22.786  14.202  22.770  0.0150  0.2137 -0.2285
34560W        W77551  24.772  11.642   6.268  0.0118 -0.0436 -0.0043
34561W        W77552  18.817  13.735   0.985 -0.0849 -0.3222  0.0489
34562W        W77553   3.018  28.954  28.729  0.1024  0.4194 -0.1011
34563W        W77554  32.015  29.372   7.367 -0.0653 -0.0417 -0.1609
34564W        W77555  30.579  28.439   6.684  0.0233 -0.3606  0.0606
34565W        W77556  14.886  11.947   1.397 -0.0104 -0.1047  0.2725
34566W        W77557   7.112   2.936   5.330  0.0034  0.0393 -0.1240
34567W        W77558   1.352  26.103   6.036  0.2638  0.0282 -0.1757
34568W        W77559   1.998  20.146   2.849  0.2309 -0.1838 -0.0243
34569W        W77560  23.800  28.922   4.557 -0.0443  0.0550 -0.1465
34570W        W77561  10.067  23.186   0.778 -0.2462  0.0103  0.7099
34571W        W77562   2.571  14.870   7.550 -0.1485 -0.1495 -0.0392
34572W        W77563  26.717  31.387  27.533 -0.0575 -0.0364 -0.1830
34573W        W77564  24.968  30.269  16.430  0.3285  0.1509 -0.1408
34574W        W77565   1.747  22.596   1.926  0.1097 -0.0600  0.2753
34575W        W77566  16.380  15.525   1.434 -0.1920  0.0968 -0.1906
34576W        W77567  32.736  26.714   5.139  0.3733  0.2290  0.0565
34577W        W77568   5.703  24.388  21.498 -0.0367 -0.3374  0.0779
34578W        W77569  21.774  27.081   0.937 -0.2290 -0.0598  0.0379
34579W        W77570  23.884   7.598  27.244  0.0184  0.0118 -0.0952
34580W        W77571   7.613  18.386  27.385  0.1990  0.1455 -0.1158
34581W        W77572  24.147  10.330   4.690 -0.0841 -0.1608  0.0676
34582W        W77573  17.195  17.568  23.347 -0.0821 -0.3122  0.6056
34583W        W77574  20.489  27.758  25.704 -0.1633 -0.0506 -0.0036
34584W        W77575  31.920   8.870  21.011  0.1035  0.0364  0.1502
34585W        W77576  30.656  10.566   7.962 -0.1328  0.5758  0.0578
34586W        W77577  21.529  20.955  18.542 -0.0220 -0.1898  0.0673
34587W        W77578  23.494   3.203   6.994 -0.2365 -0.0706 -0.3842
34588W        W77579   1.797  23.261   3.536  0.2974 -0.3488  0.0270
34589W        W77580   9.930   5.385   2.345  0.2124  0.1200  0.2134
34590W        W77581  20.400  19.447   5.964  0.0609  0.1563  0.0128
34591W        W77582  25.253   7.305   4.113  0.0954 -0.0229 -0.2728
34592W        W77583  30.785  19.175   8.141 -0.3642  0.1346  0.1157
34593W        W77584  27.707  11.168  10.152 -0.1412  0.0702  0.0110
34594W        W77585  14.606   5.414   9.034 -0.0098 -0.1814  0.0145
34595W        W77586  32.021   0.141  20.395 -0.0736  0.0018 -0.1300
34596W        W77587  12.576  16.523  15.932  0.1216 -0.0084 -0.0987
34597W        W77588   5.406  18.771  20.806  0.1393 -0.0075  0.0999
34598W        W77589   5.766  34.754   0.203  0.1299  0.2257 -0.0078
34599W        W77590  33.087  21.230  29.064  0.0443 -0.1043  0.2681
34600W        W77591  26.210  21.408   6.474 -0.0196 -0.2304 -0.0807
34601W        W77592  14.698  28.443  27.104  0.0839 -0.0393 -0.1249
34602W        W77593   4.360  17.857  10.952  0.2237 -0.0760  0.1919
34603W        W77594  30.599  21.176   4.936 -0.0851 -0.1783 -0.0966
34604W        W77595   5.299   9.690  22.309 -0.1125 -0.0921  0.1500
34605W        W77596   3.029   1.657   1.786 -0.1814  0.1525  0.0683
34606W        W77597   7.859  22.256   4.621 -0.0488 -0.0144 -0.0356
34607W        W77598  21.334  10.127   8.111 -0.3331 -0.1040  0.1841
34608W        W77599  28.391  15.283   1.980  0.0433 -0.0193 -0.2268
34609W        W77600  16.838  19.246   8.179  0.1953  0.4486 -0.2075
34610W        W77601   0.556  19.194   1.913 -0.0539 -0.0687  0.2400
34611W        W77602  19.328  26.506  23.100 -0.0042  0.2820 -0.1435
34612W        W77603  15.455   7.375   3.866 -0.0404  0.1782 -0.2630
34613W        W77604  31.950  28.937  18.549  0.3609 -0.1661 -0.1113
34614W        W77605   5.767  27.964  24.936  0.0726  0.0853 -0.0186
34615W        W77606  16.915  20.029   7.996 -0.0862 -0.1308 -0.1070
34616W        W77607   8.855  24.932   0.730 -0.2566  0.2216  0.0470
34617W        W77608  31.622  14.576   9.698  0.0434 -0.0395  0.0983
34618W        W77609  24.400  17.897  18.960  0.3162 -0.2811 -0.0607
34619W        W77610  26.855  10.269   3.250 -0.1434  0.0344 -0.0499
34620W        W77611  15.806  22.068   0.546 -0.0101  0.3233  0.0732
34621W        W77612   7.309  26.286   1.195  0.1064  0.2789 -0.4682
34622W        W77613  12.116  33.133   1.673  0.1313 -0.2884  0.0078
34623W        W77614   4.272  22.711   2.397  0.2263  0.3458 -0.0609
34624W        W77615   4.372  11.847   7.252 -0.2276 -0.0550 -0.1456
34625W        W77616  20.476   8.377   0.461 -0.1949 -0.2431  0.0883
34626W        W77617  10.475   1.478   7.503 -0.0456 -0.1305 -0.2743
34627W        W77618  31.042  25.835   1.887 -0.1305 -0.4336  0.2065
34628W        W77619   1.971  11.580   3.086 -0.0870 -0.3499 -0.0148
34629W        W77620  19.431  18.539   4.316  0.2970  0.0311 -0.0082
34630W        W77621  31.980  26.478  22.066  0.1464  0.0788  0.1890
34631W        W77622  34.468  18.935  28.130 -0.0291  0.1041 -0.2477
34632W        W77623  16.700  32.922  28.642  0.1073 -0.2177 -0.1060
34633W        W77624  34.443  18.371  10.269 -0.0097  0.1730  0.3366
34634W        W77625  30.897  12.937  24.013 -0.1766 -0.0277  0.0494
34635W        W77626  25.896  16.500   4.848 -0.1918  0.1388 -0.0864
34636W        W77627  25.884  11.832   3.683 -0.0640 -0.1144  0.1485
34637W        W77628  21.004  17.583  19.001  0.0129  0.2296  0.2795
34638W        W77629  25.658  19.506   5.934 -0.2005 -0.0273 -0.1247
34639W        W77630  22.741   9.435  10.224  0.1097  0.5459 -0.2622
34640W        W77631  34.462  25.525   5.483  0.1626  0.0406 -0.0605
34641W        W77632  33.858  28.939   7.462 -0.4169 -0.0264  0.0185
34642W        W77633  25.860  13.769   4.936 -0.0085  0.0388  0.1286
34643W        W77634  29.085  18.558  23.742  0.1931 -0.2397  0.2021
34644W        W77635  24.977  28.538  20.904  0.0913  0.0775 -0.0911
34645W        W77636  23.041  16.331   8.903  0.3138 -0.2364 -0.0911
34646W        W77637  28.112   6.533  22.988 -0.3546  0.1065 -0.0143
34647W        W77638  29.792   5.972   6.061  0.3080 -0.4063 -0.1763
34648W        W77639  29.093   7.306   6.711  0.0701  0.4738  0.1640
34649W        W77640  17.649   4.388  19.508 -0.1414 -0.4301 -0.1456
34650W        W77641  12.251  11.124  10.518 -0.0395  0.0789  0.2804
34651W        W77642   8.050  18.775   5.716 -0.0892  0.0398 -0.0897
34652W        W77643  22.617   5.401  23.786  0.0870 -0.0576  0.0724
34653W        W77644  32.447  18.191   1.684 -0.0239 -0.1360  0.1026
34654W        W77645  29.698  12.850   5.639  0.0009 -0.1241  0.0768
34655W        W77646  27.961  17.134   4.376  0.1803  0.0356  0.2523
34656W        W77647  31.070  22.041   9.839  0.2405  0.3520  0.3056
34657W        W77648  26.872   0.102  15.134 -0.1832 -0.3363 -0.3892
34658W        W77649   3.172  26.127   3.493 -0.0076  0.0239 -0.0713
34659W        W77650  10.122  12.456   0.574  0.1402  0.0006 -0.1052
34660W        W77651  24.453  12.396  28.140 -0.2851 -0.0595 -0.1846
34661W        W77652  23.907   5.217   7.752  0.0815  0.1481 -0.0153
34662W        W77653  19.113  17.350   1.312 -0.1003 -0.2206 -0.2077
34663W        W77654  10.759  30.218  25.110  0.1233  0.1438  0.2190
34664W        W77655  34.398  24.062   1.482  0.0137 -0.3344 -0.0486
34665W        W77656   5.651  20.372  10.260 -0.2472  0.2598 -0.1518
34666W        W77657  26.898  23.466   1.617 -0.3637 -0.3451 -0.2300
34667W        W77658  11.982  15.401  22.501  0.0052  0.2577  0.3673
34668W        W77659  28.763  28.068   3.954 -0.1797  0.1375 -0.0573
34669W        W77660  34.676   5.092   6.023  0.2466  0.0526 -0.1921
34670W        W77661  28.691   0.534  24.130 -0.1812 -0.0520 -0.0386
34671W        W77662  10.210  25.949   5.922 -0.0611 -0.1069 -0.1551
34672W        W77663   4.585   4.817  22.711  0.0604 -0.1829  0.0916
34673W        W77664  27.741  26.278  26.060  0.3249 -0.0299  0.2962
34674W        W77665   8.221   9.223   6.729  0.1973  0.3011  0.1387
34675W        W77666  14.990  20.329  24.969  0.1493  0.0550 -0.1452
34676W        W77667  27.749  12.155   7.114 -0.2325  0.1352  0.1913
34677W        W77668   0.692  12.025   4.609  0.1879 -0.3252 -0.1571
34678W        W77669  34.207  25.352   4.616 -0.1117  0.0255 -0.1547
34679W        W77670  25.702   9.258   7.144  0.1314  0.2598 -0.4597
34680W        W77671  28.101  20.926  25.782  0.0998 -0.1880 -0.3314
34681W        W77672  32.650   8.788   5.659 -0.3395 -0.1825  0.3889
34682W        W77673  13.306  11.819   4.545 -0.1468 -0.3872  0.3196
34683W        W77674  21.708  18.534  21.747 -0.1459  0.0310  0.0397
34684W        W77675  22.205  21.066   3.312  0.0121  0.0696 -0.4105
34685W        W77676  27.495  11.886   6.671 -0.0350 -0.1765 -0.0302
34686W        W77677   5.183  13.899   8.381  0.1524 -0.1031  0.0637
34687W        W77678  15.940  12.086   2.814 -0.2483  0.1595 -0.1727
34688W        W77679  23.804  34.076   6.223  0.0400 -0.0576 -0.3003
34689W        W77680  27.926  18.496   4.951 -0.3391  0.0863 -0.0855
34690W        W77681  31.895  19.037  27.347 -0.1302 -0.0858 -0.0890
34691W        W77682  22.147  17.323  16.640  0.1883  0.0911 -0.0048
34692W        W77683   6.356  15.206  23.653 -0.2769  0.0263  0.2994
34693W        W77684  21.059  17.240  24.777 -0.0153 -0.1554 -0.1260
34694W        W77685  14.319  29.776   8.789 -0.1528  0.2714 -0.1830
34695W        W77686  14.439  23.351   2.558  0.0167 -0.1938  0.0249
34696W        W77687  25.099   1.778   7.571 -0.3424 -0.1773  0.0129
34697W        W77688  27.775  27.343   2.332  0.1825 -0.2289 -0.0984
34698W        W77689   0.255   1.470  29.216 -0.1012 -0.1603  0.0487
34699W        W77690   3.611  21.536   0.863 -0.3831 -0.1886  0.0984
34700W        W77691  27.283  16.449  28.395 -0.2069 -0.3731 -0.0797
34701W        W77692  17.227  23.264   4.644  0.1105 -0.1647  0.0439
34702W        W77693  19.292  23.838   4.181 -0.3850 -0.0542  0.0675
34703W        W77694  20.267  19.274   1.441 -0.0178 -0.1875 -0.2165
34704W        W77695  25.362  27.676   8.789 -0.0927 -0.0601 -0.4572
34705W        W77696  26.708  13.906   6.766 -0.1974  0.5846  0.1165
34706W        W77697  14.430  28.688   4.825 -0.0802 -0.0269  0.0231
34707W        W77698  19.643   4.864  27.339 -0.0274  0.0961  0.1774
34708W        W77699  23.306  28.128   3.952 -0.1215 -0.1448  0.2158
34709W        W77700  19.020  29.427  28.957 -0.5046 -0.1035 -0.0694
34710W        W77701  13.015  24.095   1.913 -0.0422 -0.0702  0.1683
34711W        W77702  25.259  19.380  23.002 -0.1907 -0.3811  0.0019
34712W        W77703  29.534  21.125   9.761  0.0356  0.0643 -0.1484
34713W        W77704  31.571  27.289   8.196  0.1541 -0.2097  0.1363
34714W        W77705  30.153  24.153   1.085 -0.2889 -0.1728  0.1170
34715W        W77706  17.997  16.345   5.026 -0.0092  0.0376  0.0427
34716W        W77707   1.790   6.955  25.385  0.0447 -0.1787 -0.0189
34717W        W77708  23.196  17.953  25.714  0.0190 -0.1231 -0.1520
34718W        W77709  29.577  14.346   0.649 -0.0373  0.0354  0.0742
34719W        W77710   2.591  24.186   2.468  0.0389  0.0664 -0.2661
34720W        W77711  29.537  24.900   8.652  0.4966 -0.2879  0.0362
34721W        W77712  21.399  27.089  21.121 -0.1240 -0.4873  0.0102
34722W        W77713  25.340  10.072  17.699  0.1659 -0.1403 -0.0547
34723W        W77714  24.431  21.400   2.936 -0.0731  0.4178  0.0611
34724W        W77715  15.875   2.236   7.891  0.1647 -0.2426  0.1812
34725W        W77716  22.787  10.271  24.737 -0.0650 -0.2518  0.2752
34726W        W77717   5.850  28.807   6.721  0.3217  0.2034  0.2173
34727W        W77718   1.298  17.105  21.440 -0.1428  0.0248 -0.0275
34728W        W77719  24.010  12.227   0.948 -0.0736 -0.0265  0.0413
34729W        W77720  28.136   1.249   2.649 -0.0397 -0.0341  0.0618
34730W        W77721   1.249  25.484   4.645  0.1598  0.0405 -0.0800
34731W        W77722  21.135   4.849  23.663 -0.3154  0.0936  0.3114
34732W        W77723  20.625  15.071   3.536  0.2907 -0.0871 -0.0320
34733W        W77724  21.032  17.472  25.254 -0.1343  0.2745 -0.1000
34734W        W77725  20.946  13.340  24.601 -0.0624 -0.0210  0.0272
34735W        W77726   2.936  29.534   4.080  0.0526 -0.0904 -0.0070
34736W        W77727  18.784  20.932   0.657 -0.0677 -0.1281 -0.0486
34737W        W77728   6.821  12.822   7.180 -0.1002  0.0313  0.2017
34738W        W77729  28.013  27.432   7.812  0.2202 -0.3341  0.0455
34739W        W77730  27.667  21.958   0.600 -0.1866 -0.2601  0.2007
34740W        W77731  22.839  18.099  20.270  0.0511  0.2383  0.1434
34741W        W77732  28.535  11.995   1.504 -0.1268 -0.2883  0.3393
34742W        W77733  21.254  22.011  26.801 -0.3173 -0.0338  0.1154
34743W        W77734  26.507  13.448   0.484 -0.3358 -0.0393 -0.2434
34744W        W77735   6.377  13.227   5.990  0.2546 -0.1636 -0.2248
34745W        W77736  26.220   8.482   4.123  0.0601 -0.0012 -0.2436
34746W        W77737  26.106  10.169  19.249  0.4561 -0.5306  0.1625
34747W        W77738  27.184   8.272   7.856 -0.1205 -0.3238  0.2170
34748W        W77739  33.187  15.111  16.002 -0.2627 -0.1024 -0.0522
34749W        W77740  20.921  20.926  24.519  0.3712 -0.0451  0.0253
34750W        W77741  24.982  13.571   8.934 -0.0490  0.3883  0.1194
34751W        W77742  22.059  14.906  22.756  0.0635 -0.0823 -0.0962
34752W        W77743  14.634   7.918   1.570 -0.1587  0.0483 -0.1877
34753W        W77744  27.551  14.135   8.234  0.1209 -0.2261 -0.2462
34754W        W77745   7.582  20.814   9.495  0.1071 -0.0304 -0.0842
34755W        W77746  26.826  16.183  19.870  0.2683  0.0123 -0.0269
34756W        W77747  16.631   2.431   5.785 -0.2624 -0.1358 -0.0107
34757W        W77748  29.278  26.235   6.687  0.0116  0.0209 -0.1113
34758W        W77749  23.308  12.818   3.460 -0.1477 -0.1548 -0.0233
34759W        W77750  31.165  21.600   1.242 -0.0841  0.1570 -0.0823
34760W        W77751   6.998  24.747  23.962 -0.1484 -0.2608  0.0014
34761W        W77752  33.665  31.160   6.806 -0.1789 -0.1282  0.2291
34762W        W77753  28.646  11.050   5.818 -0.0821  0.0633  0.1119
34763W        W77754  17.272  27.220  25.085 -0.1139  0.4969 -0.0904
34764W        W77755   0.570  27.779   3.928  0.1835 -0.0870  0.0990
34765W        W77756  31.877  24.220   3.633  0.2317 -0.2296 -0.0557
34766W        W77757  30.916  28.195   8.499  0.1444  0.1088  0.0362
34767W        W77758  25.368  25.835   4.569 -0.0811  0.0389  0.1660
34768W        W77759  29.963  28.343   8.643 -0.5689  0.2928  0.0677
34769W        W77760  23.433   8.151   7.909  0.1545 -0.2648 -0.2693
34770W        W77761  28.338  15.347  29.233 -0.1826  0.5424  0.3138
34771W        W77762  23.463  21.152   5.635  0.1689 -0.2005  0.2925
34772W        W77763   0.628  34.276   3.523  0.2793 -0.1192 -0.2122
34773W        W77764   6.670   9.381  23.166  0.2682  0.0521 -0.1557
34774W        W77765   6.059  21.737  10.282  0.0262  0.1243 -0.0082
34775W        W77766  29.994  22.279   5.242 -0.1084  0.0225 -0.0884
34776W        W77767  28.060  19.309   9.399 -0.1429  0.2554  0.0131
34777W        W77768  26.077  21.892   6.023  0.0586 -0.4869 -0.2503
34778W        W77769  34.781   7.233   5.671 -0.3168  0.2208 -0.1445
34779W        W77770  17.192  18.493   7.469  0.1727  0.0344 -0.1458
34780W        W77771   2.477   5.849   9.973  0.0508 -0.0581 -0.0538
34781W        W77772  29.462  17.759   9.215  0.2189  0.2394 -0.0828
34782W        W77773  30.941  20.655   7.660 -0.0651  0.1151  0.1605
34783W        W77774  26.551  28.453   5.126  0.3024  0.1513  0.0877
34784W        W77775  12.186  27.241   9.603 -0.3270 -0.0486  0.2168
34785W        W77776   3.576   7.604   8.807  0.3251 -0.1421  0.2431
34786W        W77777  12.904   8.570  19.077 -0.6434 -0.1307  0.4612
34787W        W77778  29.512  17.919   9.694 -0.1816 -0.1977 -0.0019
34788W        W77779  25.258   6.141   4.557 -0.1052  0.1851 -0.0529
34789W        W77780  30.788  18.278   9.316  0.0212  0.1943 -0.3813
34790W        W77781  27.888  15.242   2.704 -0.4302  0.1284  0.0639
34791W        W77782  31.047  20.280  27.474  0.0852  0.3189 -0.2678
34792W        W77783  15.910  21.125   7.878 -0.1099 -0.1444  0.1099
34793W        W77784   3.202  11.767  17.672  0.0141  0.2846 -0.2450
34794W        W77785  32.443   2.418  27.554  0.2772  0.0622 -0.1601
34795W        W77786  29.855  13.365   9.964 -0.2120  0.1479 -0.0553
34796W        W77787   5.886  22.788   3.632 -0.1844 -0.1820  0.0270
34797W        W77788   1.335  19.243   5.035  0.3058 -0.2906 -0.0962
34798W        W77789  13.914  15.306  16.775 -0.2416  0.2865 -0.2205
34799W        W77790  20.227  29.743  23.163  0.0181  0.0779  0.2928
34800W        W77791  10.411  14.827  27.495 -0.0184  0.1987 -0.1024
34801W        W77792  13.601  27.693   7.346  0.1975  0.0525 -0.1083
34802W        W77793  30.679  16.000  10.983 -0.0329  0.2499 -0.0849
34803W        W77794   7.481  10.296  16.687 -0.4097  0.0096  0.0782
34804W        W77795  24.855  21.286   1.078 -0.1861  0.0261 -0.0253
34805W        W77796  24.582  13.350   4.819 -0.1145 -0.1417 -0.1665
34806W        W77797  31.089  18.202   8.923  0.0907  0.1305 -0.0328
34807W        W77798   1.428  23.937  17.604  0.3030  0.2942  0.2481
34808W        W77799  30.384  11.709   6.873  0.1216 -0.0457  0.0554
34809W        W77800  26.012  17.667  27.175  0.0124  0.1641  0.1387
34810W        W77801  32.811  23.601   6.230  0.1064 -0.0449  0.1457
34811W        W77802  24.283  17.917   3.970 -0.0061  0.0001  0.1294
34812W        W77803  20.315  13.477  25.650 -0.0141  0.0809 -0.1430
34813W        W77804  14.633  30.235  25.827 -0.1938  0.1452  0.3467
34814W        W77805  28.864  26.994  27.756  0.0974 -0.0725 -0.1234
34815W        W77806  22.995  16.309   3.696 -0.2105  0.1324  0.0072
34816W        W77807  23.520  16.144  28.737 -0.1198  0.2121 -0.1982
34817W        W77808  34.175   8.255   0.767 -0.2881  0.1453  0.1127
34818W        W77809  32.966  33.565   9.287 -0.0767  0.0939 -0.0847
34819W        W77810   1.182  20.844   9.116  0.0781  0.1033  0.0008
34820W        W77811  19.863  17.324   0.969  0.0539  0.0867  0.0806
34821W        W77812  31.299   2.519   5.664 -0.4193 -0.1515 -0.2511
34822W        W77813   3.400  15.519   3.127  0.5564 -0.1048  0.0548
34823W        W77814  25.848  25.970   7.103 -0.1911  0.1453  0.4072
34824W        W77815  10.033  28.374   0.105 -0.2480 -0.0985  0.1792
34825W        W77816  26.521  17.510   3.630  0.0801  0.2739 -0.1048
34826W        W77817  31.816  12.288   3.212  0.2646  0.0739  0.1115
34827W        W77818  16.945  17.955   6.007 -0.2557 -0.1412  0.0274
34828W        W77819  26.112  19.660   8.076 -0.0964 -0.1471  0.0339
34829W        W77820   1.969   6.398  10.685  0.1650 -0.1980 -0.0089
34830W        W77821   0.162  11.006  10.098  0.1908 -0.1188  0.1504
34831W        W77822   4.217  20.992  27.209 -0.1626  0.0161 -0.2559
34832W        W77823  21.478  25.884  26.175  0.0786 -0.2374  0.1681
34833W        W77824  15.646  30.199   6.430  0.1679 -0.1623 -0.2401
34834W        W77825  20.337  14.082  28.505 -0.2108 -0.1748  0.0637
34835W        W77826   8.634   7.411   1.393 -0.1755  0.0210 -0.0947
34836W        W77827  30.126  17.729   3.124  0.1420 -0.0856  0.1588
34837W        W77828  32.898  16.363  10.197  0.1579  0.0554  0.0872
34838W        W77829  31.324  17.004   4.021  0.1412 -0.0139 -0.1084
34839W        W77830   7.021   6.712   9.101 -0.1194  0.0006  0.1816
34840W        W77831  24.985  21.013   1.655 -0.1290 -0.1379 -0.0636
34841W        W77832   9.549  22.284  10.421 -0.0465  0.2747 -0.0026
34842W        W77833   2.903   4.691   9.368  0.3137 -0.0229  0.0357
34843W        W77834  13.402  14.042   4.465  0.1634 -0.0337  0.0273
34844W        W77835   5.655   9.968  27.192 -0.3164 -0.1938  0.0958
34845W        W77836   0.384   7.705   9.447 -0.2944 -0.1777  0.0892
34846W        W77837  18.030  22.277   8.443 -0.2487 -0.0001  0.0842
34847W        W77838  32.197  25.741   0.367  0.1046 -0.1482  0.0549
34848W        W77839   8.452   3.664  25.360  0.1323 -0.3617 -0.0529
34849W        W77840  27.777   7.998  17.033  0.1773  0.1179  0.2901
34850W        W77841   9.840  12.410  20.780 -0.0296 -0.0085  0.0460
34851W        W77842  21.902  18.821   0.641  0.1203  0.0277  0.0078
34852W        W77843  15.600  20.196  26.737 -0.1031 -0.2235  0.2000
34853W        W77844  14.467  21.633   3.436  0.0546 -0.0208 -0.1145
34854W        W77845  12.760  22.301  19.123  0.2160  0.1473 -0.0376
34855W        W77846  29.151  15.153   6.852  0.1196  0.1657 -0.1221
34856W        W77847  10.069  14.783   7.521  0.1012  0.3533 -0.1792
34857W        W77848  30.966   9.215   9.159 -0.1744 -0.1879  0.1041
34858W        W77849  33.730  25.139   1.209 -0.0150  0.3427  0.2879
34859W        W77850  11.658  17.431  18.368  0.1449 -0.1264  0.2438
34860W        W77851   1.034   8.071  27.209  0.1942  0.0523 -0.1067
34861W        W77852  14.991  31.636   3.044 -0.0784 -0.0202  0.2706
34862W        W77853  33.956  16.237  11.143 -0.0192 -0.4294  0.0233
34863W        W77854  17.967  21.962   0.211 -0.0747 -0.2210  0.0693
34864W        W77855   2.158   7.733  28.882 -0.1242 -0.1609  0.0201
34865W        W77856  18.342  18.242  27.138  0.0422  0.0337 -0.3086
34866W        W77857  25.612  26.101   4.107  0.1514  0.0832 -0.0397
34867W        W77858  15.710  13.278   0.604  0.1136  0.0247  0.1092
34868W        W77859   5.051  25.330  28.805 -0.0612 -0.0612 -0.2385
34869W        W77860  28.463  11.197   8.877 -0.2152 -0.2106  0.0767
34870W        W77861  27.995  13.485  25.091  0.2303  0.1559  0.1378
34871W        W77862  30.207  20.536   9.508 -0.0135 -0.1587 -0.3271
34872W        W77863   1.970  20.546  28.230 -0.0933 -0.3610  0.1446
34873W        W77864  27.120   5.943   0.270  0.3458 -0.2435  0.0789
34874W        W77865  29.749  23.411   8.141 -0.1179 -0.0809 -0.0709
34875W        W77866  31.721  13.278   6.758 -0.0941  0.0455  0.0829
34876W        W77867  22.200  10.366   4.916 -0.1559 -0.1032  0.0591
34877W        W77868  34.754  22.937  10.552  0.0174 -0.2583 -0.2574
34878W        W77869   2.717  13.047   3.186  0.1916 -0.3823  0.0852
34879W        W77870  31.132  30.789   8.150 -0.2108  0.1730 -0.2523
34880W        W77871  31.074  11.505   4.982  0.0003 -0.3086  0.1548
34881W        W77872   0.110  20.171   7.297  0.1165 -0.1912 -0.2610
34882W        W77873   5.176  22.644  23.583  0.1424  0.1772  0.0794
34883W        W77874  29.003  15.324  27.650 -0.2239  0.1168 -0.2257
34884W        W77875  30.805  11.330   4.493  0.0848  0.0737  0.0176
34885W        W77876  28.381  18.607   3.511  0.3644 -0.0194 -0.1828
34886W        W77877  33.943  12.658   1.212 -0.1742 -0.0938 -0.2340
34887W        W77878  26.242  12.369   0.156 -0.0507  0.1091 -0.0386
34888W        W77879  28.639  18.008  21.941  0.2655  0.0929  0.0760
34889W        W77880  21.385  18.193  23.236  0.0676  0.0489  0.2475
34890W        W77881  32.841   2.055  24.373 -0.1494  0.2051 -0.0577
34891W        W77882  16.957   6.689   1.327 -0.2002 -0.1319  0.0034
34892W        W77883  13.526  10.591  22.054  0.1209 -0.1357  0.3215
34893W        W77884   3.207  20.133   5.737 -0.1798  0.2211  0.2606
34894W        W77885  23.727  18.118   3.703  0.3197  0.1288  0.1527
34895W        W77886  18.967   7.961  25.544 -0.3473 -0.2706 -0.0268
34896W        W77887  30.627  22.846   5.038 -0.2327 -0.0952  0.1628
34897W        W77888  34.389  17.193   4.224  0.2090 -0.1382 -0.0389
34898W        W77889  13.763   0.660   9.164  0.0341  0.3077 -0.1597
34899W        W77890  33.445  22.020   9.405  0.0244  0.0384  0.1555
34900W        W77891  20.649   8.639   6.183  0.2216 -0.0055 -0.0807
34901W        W77892  23.404  19.379   2.217  0.0016  0.2713 -0.2605
34902W        W77893   0.797  11.056   8.103  0.1186 -0.2033 -0.3623
34903W        W77894  33.796  28.965   2.732 -0.0148 -0.0589 -0.1116
34904W        W77895  30.356  10.169  27.091 -0.2164  0.2968 -0.0116
34905W        W77896   1.752  22.800  27.208  0.4078  0.1982  0.0279
34906W        W77897   8.965  21.135   1.998  0.0349 -0.0841  0.3807
34907W        W77898  34.474  12.254  27.980  0.3039 -0.2723  0.0303
34908W        W77899   0.576  15.438   6.763 -0.0198 -0.0581 -0.1245
34909W        W77900  33.973   9.948   9.627 -0.1254 -0.2834  0.1434
34910W        W77901  12.908  28.543   5.710  0.1180  0.1093  0.0467
34911W        W77902  22.087  20.629   6.137 -0.0406  0.0649  0.1721
34912W        W77903  10.371  18.613   7.906  0.0039 -0.0347  0.3514
34913W        W77904  29.583   4.989   6.857  0.0170  0.0806  0.0402
34914W        W77905  23.829  18.535   5.880 -0.1096 -0.0549  0.1443
34915W        W77906  27.433  17.506   1.756  0.1482  0.0779 -0.0243
34916W        W77907  30.738  14.551   3.039 -0.2151  0.1177 -0.1814
34917W        W77908  25.752  24.906   8.989  0.1103 -0.0997  0.1515
34918W        W77909  32.691  27.542   5.269 -0.3000  0.2143 -0.0262
34919W        W77910  23.604  17.247   4.087  0.3741  0.0904 -0.1558
34920W        W77911  24.498  23.641   7.794 -0.3618 -0.1238  0.2918
34921W        W77912  22.204  11.573   1.872  0.4796  0.0421  0.3127
34922W        W77913  32.120  18.626   1.023 -0.2860 -0.2956  0.4483
34923W        W77914  30.380  30.825   2.365 -0.1403  0.1610  0.0525
34924W        W77915  30.031  27.335  24.811  0.3726 -0.1585  0.0346
34925W        W77916  18.311  24.244  28.316 -0.0724  0.3011  0.5821
34926W        W77917  32.054   8.491   6.305 -0.1761 -0.0454  0.0334
34927W        W77918  21.623  17.814   9.732 -0.0999 -0.2070 -0.0179
34928W        W77919  29.129  13.622   6.394  0.1413 -0.0499 -0.2427
34929W        W77920  31.195  12.972  29.059  0.2214 -0.0518  0.1631
34930W        W77921   2.090  13.929   1.612 -0.0373 -0.0447 -0.2829
34931W        W77922  25.378  10.437  25.876 -0.1003  0.2426 -0.1245
34932W        W77923  32.748  11.156  28.113 -0.2135 -0.0909 -0.3415
34933W        W77924  20.988   7.996   7.772  0.0890 -0.2504 -0.1381
34934W        W77925  31.370  23.275   6.214  0.0205  0.3088 -0.0226
34935W        W77926  31.589  24.148   2.901  0.1609  0.0739 -0.1647
34936W        W77927   3.465  18.322   2.936  0.1175 -0.2721  0.3729
34937W        W77928   0.933  25.034   7.183 -0.0729 -0.4180 -0.0224
34938W        W77929   0.393  18.628   3.236 -0.0984  0.0350 -0.0606
34939W        W77930  28.640  14.288  22.671  0.1403  0.0023 -0.1558
34940W        W77931  33.591  24.761   5.162 -0.1037 -0.1965  0.0392
34941W        W77932  28.914  20.101   6.424 -0.3144  0.0399 -0.1117
34942W        W77933  30.007  29.305   7.229  0.3075  0.0931 -0.0422
34943W        W77934  18.586  21.356   5.779  0.1406 -0.1675  0.1281
34944W        W77935  23.993  22.960   7.909  0.0959 -0.1331  0.0980
34945W        W77936   1.249  17.144  22.852  0.1581  0.1503 -0.0878
34946W        W77937   5.588   9.181   0.024 -0.2850 -0.0417  0.0495
34947W        W77938   8.134  15.037  29.069  0.1045  0.2739  0.0137
34948W        W77939   2.019  17.475  25.224  0.0628  0.1391  0.0456
34949W        W77940  15.318  10.531  26.587 -0.0151  0.2211 -0.0955
34950W        W77941  26.347  21.617   7.213  0.0600  0.2232  0.1528
34951W        W77942   2.033  11.569   4.018 -0.1629  0.0183 -0.0396
34952W        W77943   3.911  27.569   8.985  0.0883  0.2120  0.2356
34953W        W77944  27.629  20.755  18.207 -0.2193  0.1665 -0.3098
34954W        W77945  14.523  12.755  26.494  0.1439  0.0951 -0.0993
34955W        W77946  33.297  10.865  10.896  0.0534 -0.0877 -0.1336
34956W        W77947  24.120  24.482  21.647  0.2723 -0.2724 -0.1291
34957W        W77948   2.569  16.812  27.402  0.1228 -0.2055  0.1425
34958W        W77949  12.149   9.756  25.183  0.1289 -0.2693 -0.2956
34959W        W77950   1.336  24.179  23.278  0.0246  0.0721  0.1057
34960W        W77951  19.573   4.884   9.616  0.1937  0.0857  0.0805
34961W        W77952  34.661  11.963   9.138  0.2088 -0.1559  0.0197
34962W        W77953  32.459  22.320  28.025 -0.2378 -0.0314 -0.3374
34963W        W77954  29.675  32.940  20.255  0.1410 -0.1111  0.2305
34964W        W77955  16.562  15.091  28.805  0.3503 -0.0510 -0.1465
34965W        W77956  23.165  27.961   8.892  0.0337  0.1610  0.1031
34966W        W77957  19.849  12.483   2.098  0.0575  0.2490 -0.0010
34967W        W77958  13.554  25.847   3.081 -0.0854 -0.2975 -0.0359
34968W        W77959  11.725  24.781   9.802  0.1067 -0.2097 -0.1313
34969W        W77960  29.548  10.759   6.543 -0.0154  0.2480 -0.1924
34970W        W77961   7.240  26.917  14.513  0.0318 -0.0257  0.0860
34971W        W77962  26.662  16.425  23.794 -0.1615  0.0042 -0.2819
34972W        W77963  33.645  13.299  10.509  0.0845  0.0156  0.0613
34973W        W77964  29.494   4.161   9.753 -0.0230  0.1802  0.0556
34974W        W77965   0.344  11.560   7.035 -0.1291 -0.2023  0.2153
34975W        W77966  31.335  18.285  26.918  0.1345 -0.0184  0.4909
34976W        W77967   4.345  14.286   8.585 -0.1861  0.1964  0.1101
34977W        W77968  30.979  19.753   2.376  0.0696  0.1608 -0.0824
34978W        W77969  23.506  16.674   6.874 -0.0258  0.0297  0.2309
34979W        W77970  27.247  13.306   6.521  0.0784  0.1098  0.0022
34980W        W77971  17.578  11.412   5.552 -0.0493 -0.0211  0.1292
34981W        W77972  29.768   7.745   2.611  0.2502 -0.1961  0.1131
34982W        W77973  22.493  25.764   0.200 -0.1580 -0.1733 -0.5487
34983W        W77974  14.848  22.654   3.027  0.0554  0.5014 -0.1020
34984W        W77975  33.072  32.761  19.847 -0.0449  0.0464  0.1358
34985W        W77976  33.004  12.760  17.165  0.2525  0.0245 -0.0708
34986W        W77977  10.654  24.772   8.740  0.1762 -0.2258 -0.0117
34987W        W77978  22.441   0.947   6.951  0.1544  0.2068  0.2469
34988W        W77979  15.914  22.651  28.071 -0.0874  0.0709  0.1260
34989W        W77980  17.025  18.953   6.845  0.1020 -0.2970 -0.1593
34990W        W77981  22.230   9.858   3.034  0.1504  0.0646  0.0323
34991W        W77982  24.464  22.093   1.349 -0.3661  0.0016  0.2102
34992W        W77983  26.545  14.749   5.302  0.1476  0.1513 -0.0767
34993W        W77984  32.054  16.182  20.186  0.2176 -0.1929  0.1088
34994W        W77985  24.303   9.944  23.561 -0.1123 -0.2274  0.0647
34995W        W77986  30.180  17.658  27.192 -0.2510 -0.0747 -0.0541
34996W        W77987   7.416  27.180   4.485 -0.0106 -0.2105 -0.0153
34997W        W77988  23.309  17.588   2.180  0.0553 -0.5787 -0.3451
34998W        W77989  16.582  21.407   8.433  0.1182 -0.1550  0.2953
34999W        W77990  19.908  10.574   9.142  0.3853 -0.0587  0.2273
35000W        W77991   4.810   6.979   2.275  0.1379  0.1995  0.1038
35001W        W77992  22.598   0.446   4.469  0.0978 -0.0404  0.0266
35002W        W77993  27.757   5.998   6.474  0.0552 -0.0526 -0.3263
35003W        W77994  25.279  11.866   9.014  0.2496  0.4040  0.3334
35004W        W77995  30.476  24.677  28.407 -0.0544 -0.2341 -0.1792
35005W        W77996   4.358  17.021   5.925  0.0861 -0.2467 -0.0625
35006W        W77997  21.889  17.740   1.600 -0.0851  0.1832 -0.2750
35007W        W77998  28.054  21.514   6.683  0.0360  0.1955  0.0031
35008W        W77999  18.271  20.833  17.271 -0.2914  0.1013 -0.1278
35009W        W78000  23.480  19.615  27.421  0.1192  0.1235 -0.2688
35010W        W78001  21.763  13.864  18.200 -0.1416 -0.0140 -0.1417
35011W        W78002  13.954  14.672   8.385  0.0031 -0.0610 -0.0580
35012W        W78003  18.206  19.126  23.641 -0.1479 -0.0590  0.2407
35013W        W78004   8.071   9.521  24.204 -0.1494 -0.1170  0.1239
35014W        W78005  26.054  11.368  29.057  0.1995 -0.1620 -0.0335
35015W        W78006  27.088  20.584   6.149  0.0412  0.0665 -0.0752
35016W        W78007  31.067  17.818   0.889  0.7106 -0.1024 -0.0057
35017W        W78008  30.952  14.026   8.613  0.0084 -0.1278 -0.1132
35018W        W78009  30.994   8.903   7.713 -0.0671  0.2110  0.2402
35019W        W78010   3.542  11.727   3.417  0.4823 -0.0946 -0.0464
35020W        W78011   2.016  19.941   2.302 -0.2621 -0.0674 -0.1263
35021W        W78012   4.126   7.031   9.205 -0.1984  0.0648  0.0356
35022W        W78013  14.963  20.351   7.075 -0.0958  0.1162  0.1640
35023W        W78014  31.327  18.485  27.794 -0.0344  0.0940  0.0672
35024W        W78015  24.888  16.425   9.152 -0.2250 -0.1079 -0.1822
35025W        W78016  23.386   9.077   0.063  0.1199  0.5655 -0.0577
35026W        W78017  18.231  29.692  19.004 -0.1214 -0.0745  0.0404
35027W        W78018  14.360  13.734  17.979 -0.0673 -0.1598 -0.0251
35028W        W78019   0.547  27.558   7.376  0.1384 -0.1365 -0.1576
35029W        W78020  13.216  27.415  27.388 -0.0864 -0.3479  0.2666
35030W        W78021   5.169  27.516  18.970  0.0129  0.1524 -0.0896
35031W        W78022  22.326  16.887   9.312  0.4120 -0.0650 -0.1421
35032W        W78023  21.016  13.757  28.136 -0.1807 -0.1462 -0.4367
35033W        W78024  16.659  11.145   2.094 -0.0924 -0.2934  0.0870
35034W        W78025  22.300  18.612  28.816 -0.0522 -0.1724  0.3108
35035W        W78026   3.255   6.598   7.270  0.2034 -0.0761  0.2762
35036W        W78027  33.434  30.652   8.829 -0.1883  0.0486 -0.0386
35037W        W78028  29.752   9.957   3.556 -0.2031  0.2246  0.0543
35038W        W78029  10.062  22.253   4.217  0.1363  0.0078  0.2052
35039W        W78030  14.433   9.144   0.861 -0.3374  0.1343  0.2753
35040W        W78031  27.485   3.534   1.772 -0.1641  0.0132 -0.0615
35041W        W78032  21.549   9.726  24.046  0.5319 -0.2023 -0.2483
35042W        W78033  26.615   9.747   5.600 -0.1884  0.1318  0.1039
35043W        W78034   6.171  19.585  10.207  0.0414  0.3199 -0.0132
35044W        W78035  19.366  18.741  28.264  0.2702  0.1649 -0.0741
35045W        W78036  28.645  22.591   8.360 -0.0473 -0.0040  0.2419
35046W        W78037  19.212  14.828   1.644  0.1654 -0.0202 -0.1170
35047W        W78038  15.381  16.661  28.640  0.1904 -0.0426  0.1471
35048W        W78039  21.914  34.443   2.477 -0.3228  0.1316  0.2461
35049W        W78040  20.110  12.692  27.763  0.5883 -0.1204  0.2772
35050W        W78041  27.543  21.681   1.651  0.1485  0.2307 -0.0790
35051W        W78042  28.795   4.991  25.898  0.2089  0.0626  0.3226
35052W        W78043  24.456   7.953   9.505 -0.2840  0.1211  0.0716
35053W        W78044  33.143  19.652  28.284  0.2472 -0.0510  0.1377
35054W        W78045  25.679  17.535  28.926 -0.0111 -0.1492  0.1255
35055W        W78046  24.634  21.999   2.286  0.1168 -0.0170 -0.0903
35056W        W78047  31.610  13.515   2.885 -0.0909 -0.2824  0.0864
35057W        W78048  18.870  11.112   6.565 -0.2481  0.2058  0.3357
35058W        W78049  32.838  21.631  25.490  0.0612 -0.0802  0.0984
35059W        W78050  23.600  19.704  27.988 -0.0683  0.4961  0.0918
35060W        W78051  13.902  15.475   3.868  0.2991 -0.2534 -0.3856
35061W        W78052   1.945  12.467  28.595 -0.2307 -0.3601 -0.3736
35062W        W78053   7.885  19.404   0.756 -0.0316 -0.1372  0.3193
35063W        W78054  23.751  19.422   0.176 -0.2025  0.0748  0.0275
35064W        W78055   4.612   8.571  10.731 -0.4121 -0.1154  0.1327
35065W        W78056  32.046  29.228  28.419  0.0008 -0.2309 -0.0643
35066W        W78057  19.206  25.844  28.568  0.2907 -0.1075  0.4732
35067W        W78058  32.965   8.582  27.312  0.2152 -0.0552  0.1274
35068W        W78059  18.586  20.604   0.297 -0.2123  0.2239  0.1514
35069W        W78060  13.815   7.083  26.076 -0.0725  0.1162 -0.0034
35070W        W78061  26.332  18.050   3.959  0.3450 -0.0886 -0.1463
35071W        W78062   1.505  16.392   6.803 -0.3722 -0.3508  0.4181
35072W        W78063  22.888  13.542   0.023 -0.1632  0.3541  0.1666
35073W        W78064  18.462  21.867  28.783  0.0016 -0.0057  0.0652
35074W        W78065  20.888  13.237  22.815  0.1410 -0.0592 -0.1081
35075W        W78066  31.817  15.602   9.550  0.0227 -0.0874 -0.0663
35076W        W78067  33.707  28.322   6.854 -0.0728  0.0129 -0.1609
35077W        W78068  29.308  13.406   9.304 -0.1235  0.0554  0.1572
35078W        W78069  17.607  31.242   0.149 -0.0879 -0.1677 -0.1133
35079W        W78070  32.967  10.281   9.689 -0.0405 -0.0571  0.0517
35080W        W78071  28.819   6.535   4.572  0.0911  0.1405  0.0942
35081W        W78072  14.786   8.389  27.638 -0.0342 -0.1408 -0.0328
35082W        W78073  15.416   3.981  10.130  0.0042  0.0028  0.1922
35083W        W78074  21.141   6.726  23.463 -0.0945  0.0042  0.1606
35084W        W78075   2.980  19.087   4.313 -0.0477  0.0507  0.0769
35085W        W78076  32.710  11.123  10.206 -0.0117  0.2406  0.0235
35086W        W78077  25.972   2.286   5.647 -0.0556  0.1965  0.0351
35087W        W78078  25.617  17.008  25.783 -0.0121  0.0144 -0.0161
35088W        W78079  22.396  17.654   3.397 -0.1801 -0.1076 -0.0168
35089W        W78080   5.061   6.904   1.800 -0.2805  0.0134  0.1276
35090W        W78081  34.711  29.562   7.438  0.0979 -0.2190  0.2623
35091W        W78082  18.407  18.241   6.197 -0.0878 -0.1444 -0.0048
35092W        W78083   6.424  21.963   7.507  0.2769  0.1600  0.0014
35093W        W78084  22.994   0.213   4.175 -0.0330 -0.1664  0.1839
35094W        W78085   7.796  11.468   2.187 -0.3544  0.0644  0.0752
35095W        W78086  27.481  19.172   1.918 -0.1024 -0.3146 -0.1551
35096W        W78087  32.136  17.657  17.791  0.3202 -0.1590  0.0085
35097W        W78088  25.408  26.904   8.601  0.1863 -0.1499  0.0287
35098W        W78089  27.042  23.953   9.024 -0.0029 -0.1851 -0.2795
35099W        W78090  23.235  24.617   6.181 -0.2632 -0.0984  0.0300
35100W        W78091   7.409  32.641  29.258  0.0857 -0.3422 -0.3176
35101W        W78092  17.375  16.076  24.492 -0.3048  0.4027 -0.2924
35102W        W78093  17.469  13.351   7.686  0.1486 -0.2389  0.3723
35103W        W78094   0.849  33.419  28.024  0.2886  0.1651  0.1250
35104W        W78095  24.549  10.733  20.075  0.2878 -0.1336 -0.0061
35105W        W78096  32.100   8.768   1.127  0.2424  0.0843  0.1438
35106W        W78097  15.403  14.833  26.579  0.2779  0.1316 -0.2167
35107W        W78098  34.231  15.721  10.561 -0.1782 -0.1081  0.1754
35108W        W78099   1.058  20.117   4.106 -0.0667  0.1205 -0.1181
35109W        W78100  27.759  15.846   0.793  0.0557 -0.0413  0.0501
35110W        W78101   4.636  25.050  24.966 -0.0219  0.0834  0.0416
35111W        W78102  31.563  13.265   9.300  0.1911  0.1831  0.1153
35112W        W78103  25.890  28.555  28.817 -0.0572  0.1681  0.2360
35113W        W78104  27.775  13.128   8.647 -0.1032  0.1030  0.1173
35114W        W78105  17.684  33.192   2.915 -0.2462  0.0201  0.3525
35115W        W78106   9.687  18.064   2.510  0.1208 -0.2538 -0.0190
35116W        W78107  30.306  16.947  10.766  0.0921  0.1853 -0.0520
35117W        W78108  29.565  18.006  20.295  0.1109  0.1816  0.0404
35118W        W78109  26.821  24.649   7.536  0.0252 -0.1176  0.2990
35119W        W78110   2.929  22.887   4.064  0.1149 -0.0769  0.0349
35120W        W78111  25.538  18.344  18.105 -0.1563  0.0797  0.2318
35121W        W78112  24.961  10.105   8.128 -0.1582 -0.1161  0.0501
35122W        W78113  18.516  23.258  23.584  0.1121  0.0241 -0.1044
35123W        W78114  29.685  28.490   1.238 -0.0309  0.3725  0.0220
35124W        W78115  26.298  18.494   3.240  0.0706  0.0785 -0.0810
35125W        W78116  31.456  13.059  22.493 -0.1145 -0.3994  0.1135
35126W        W78117   0.708   4.070   1.852 -0.3527  0.0929  0.1454
35127W        W78118   1.220  14.373   1.779  0.0446 -0.2622  0.0948
35128W        W78119  30.964  11.193   1.158 -0.2399 -0.0713 -0.0244
35129W        W78120  25.937  33.851   5.231 -0.1947  0.1190  0.2215
35130W        W78121  15.242  11.206  16.314  0.1852  0.2791 -0.2163
35131W        W78122  28.428  20.178   8.625  0.0901  0.1479 -0.0280
35132W        W78123  33.947  12.044   5.831  0.1107 -0.0008  0.0901
35133W        W78124  27.600  20.740   6.163  0.4704  0.0830 -0.0513
35134W        W78125  27.634   5.735   8.420 -0.0781  0.0921  0.0527
35135W        W78126  12.067   7.065  10.791  0.3759 -0.2910  0.0747
35136W        W78127   2.981  16.432   2.645  0.1995 -0.0646  0.0468
35137W        W78128  22.728  28.920   4.626 -0.1265  0.0172 -0.4054
35138W        W78129  13.159  14.786   1.871 -0.2989 -0.2433  0.0735
35139W        W78130   0.395  14.127   6.779 -0.3116  0.0825  0.0058
35140W        W78131  32.894  14.698  10.168 -0.3936 -0.1467 -0.0400
35141W        W78132  29.446  18.881   2.885  0.0101 -0.0620  0.2445
35142W        W78133  28.111   5.265   9.378 -0.2359 -0.0541 -0.3092
35143W        W78134  28.571  24.047   8.452  0.0484 -0.1430 -0.1766
35144W        W78135  25.605   0.296   6.320 -0.0670  0.0367  0.3401
35145W        W78136   3.923  12.527  11.544 -0.2019 -0.4614 -0.1634
35146W        W78137   3.722  15.823  25.928  0.1623  0.1476  0.2303
35147W        W78138  32.502   1.516  22.586  0.2465 -0.0906 -0.2344
35148W        W78139  21.992  23.168   8.631 -0.0140 -0.1780  0.0992
35149W        W78140  14.593  22.484   5.778  0.2479  0.0495 -0.0174
35150W        W78141  29.578  25.720   7.412  0.1879  0.0714 -0.0241
35151W        W78142  21.744  21.812   8.814 -0.1567 -0.2982 -0.1115
35152W        W78143  16.544  26.981   5.866 -0.1927 -0.0392  0.0305
35153W        W78144  17.429  22.152  22.251 -0.2647 -0.0721  0.2253
35154W        W78145   0.660  31.941   7.275 -0.4309  0.1001  0.0747
35155W        W78146  26.643   9.732   8.095 -0.1111  0.0103  0.1912
35156W        W78147  28.689   0.881  25.098 -0.1255  0.0173  0.0797
35157W        W78148  25.918   1.032   1.149  0.0015  0.1330  0.1216
35158W        W78149  21.000  32.896   7.308 -0.2846 -0.1145 -0.2206
35159W        W78150  33.541  10.429  16.218  0.1353  0.2486  0.0444
35160W        W78151   7.805   9.526   4.886  0.1861  0.1428 -0.2700
35161W        W78152  32.258  18.492   9.317  0.0592 -0.2749 -0.1139
35162W        W78153  33.358   0.533   3.120  0.1994 -0.3266  0.0189
35163W        W78154  32.239  11.974  21.761  0.0015 -0.3217 -0.0832
35164W        W78155  25.720  22.251   6.705  0.0500 -0.3365 -0.1792
35165W        W78156  31.048  14.542   6.711  0.0289  0.1098 -0.0903
35166W        W78157  19.288  13.917  22.118  0.1702  0.1969  0.1141
35167W        W78158  33.934  20.154   3.972 -0.0626  0.2015  0.1850
35168W        W78159   9.905  16.272   5.725 -0.0352  0.1593 -0.0109
35169W        W78160   4.108  25.440   7.501 -0.0026 -0.0202 -0.1556
35170W        W78161  26.680   6.983   0.154 -0.1787 -0.1745  0.1508
35171W        W78162  13.822  24.754   1.074  0.0828 -0.2022  0.2273
35172W        W78163   6.227   4.969  10.944 -0.2552  0.1473  0.0846
35173W        W78164  27.162   5.323   1.362 -0.0376 -0.0175 -0.2548
35174W        W78165  24.284  16.118  26.838  0.0950  0.0067  0.4364
35175W        W78166  15.725  12.103  25.017 -0.3623 -0.3305 -0.1666
35176W        W78167  19.011   5.434   0.934 -0.0021 -0.0829  0.1651
35177W        W78168  19.089  22.613  13.657 -0.2687  0.0451  0.0120
35178W        W78169  29.631  18.841   9.344  0.1697 -0.0356 -0.1577
35179W        W78170  31.060  27.399  21.618 -0.2538 -0.1186  0.1729
35180W        W78171   7.514  30.720   0.806 -0.0770  0.1852  0.0641
35181W        W78172  24.928  14.813  25.157 -0.2677 -0.1780 -0.2860
35182W        W78173  21.269  12.378   5.632 -0.3178 -0.2928 -0.2290
35183W        W78174  25.032  30.799  28.128  0.1663  0.4201 -0.2102
35184W        W78175  32.844  11.754   6.862 -0.1221 -0.1314 -0.1264
35185W        W78176  15.711  12.079   7.702  0.0845  0.1937  0.2764
35186W        W78177  22.762  30.963   1.080  0.0387  0.0400  0.4804
35187W        W78178  34.395  11.077   4.206 -0.0714 -0.0003 -0.4633
35188W        W78179  27.008  28.702   8.315  0.2796  0.2527 -0.4808
35189W        W78180  33.621   6.567   6.649 -0.1225  0.1408  0.1162
35190W        W78181  34.383  11.213  10.024  0.1569  0.3596 -0.2025
35191W        W78182  10.972  20.585  27.631 -0.1030  0.1615 -0.0578
35192W        W78183   2.507  14.132   9.415 -0.2193 -0.2024  0.0956
35193W        W78184  33.049  13.352   6.687  0.4324  0.0798  0.0176
35194W        W78185  27.303  21.293   4.965  0.0569 -0.0730 -0.0591
35195W        W78186  25.081  19.809   7.206  0.1640 -0.0460 -0.0819
35196W        W78187  23.308  27.394   6.547  0.0602  0.1029  0.0685
35197W        W78188  29.219   2.203  26.489 -0.2634 -0.1067  0.3026
35198W        W78189   8.370  32.821  24.337 -0.1436  0.3310  0.4152
35199W        W78190  23.327  19.680   6.821  0.0044  0.1482 -0.1164
35200W        W78191  32.223  17.028  28.605 -0.0116  0.0717  0.1268
35201W        W78192  24.475   9.357   1.416 -0.2428 -0.1110 -0.1548
35202W        W78193   4.862  13.352  24.546  0.0772 -0.0352  0.1517
35203W        W78194   4.999  10.463   7.349  0.2284  0.1426 -0.0704
35204W        W78195  25.334  13.710   3.635  0.0274 -0.1981  0.1381
35205W        W78196  26.677   1.524   7.717 -0.2623 -0.0710  0.0433
35206W        W78197  30.448  18.564  25.836 -0.0826 -0.0108  0.1041
35207W        W78198  21.835   8.650  27.596  0.2737 -0.0659  0.0101
35208W        W78199  29.624  14.802  27.125  0.0303 -0.3554 -0.0673
35209W        W78200  16.256  22.959   2.699  0.1173 -0.1014 -0.0938
35210W        W78201  13.158  27.624   4.264  0.0281 -0.0140  0.4075
35211W        W78202   9.270  22.241   8.121 -0.0440 -0.0191 -0.0140
35212W        W78203   1.535  15.765   7.730 -0.3494  0.1199  0.3331
35213W        W78204  28.134  22.726   1.932 -0.0511  0.0174  0.0392
35214W        W78205  33.017  13.723   6.389 -0.0046 -0.0815  0.2768
35215W        W78206  28.695   1.174   8.633 -0.0604 -0.0693 -0.2286
35216W        W78207  18.988  21.109  18.352  0.0871 -0.1674 -0.2106
35217W        W78208  24.430  34.480   0.183  0.2566 -0.2006 -0.0275
35218W        W78209   9.407  14.864  19.165 -0.0096  0.5510  0.0312
35219W        W78210  32.375  19.726   8.829  0.0332  0.0059 -0.1354
35220W        W78211  31.114  13.978  11.104 -0.2804 -0.1265 -0.1847
35221W        W78212   0.368  14.273   7.747  0.2638  0.1067 -0.0177
35222W        W78213  26.599  26.986  20.027  0.0397  0.2527 -0.1877
35223W        W78214   7.727  22.633   9.920 -0.2678  0.0182  0.2910
35224W        W78215  24.384  16.401  29.196 -0.1361  0.1679  0.2099
35225W        W78216  22.930  27.547   5.006 -0.1430  0.1500  0.1279
35226W        W78217   5.028  21.106   9.111  0.0184 -0.1123  0.0385
35227W        W78218  24.593  17.346  28.423  0.1037 -0.0818  0.1215
35228W        W78219  33.075  25.558   0.019 -0.0631  0.3527 -0.2140
35229W        W78220  32.664  22.918   9.405 -0.0559 -0.0415  0.0209
35230W        W78221  31.185   9.777   9.791  0.2817 -0.3463 -0.3983
35231W        W78222  17.540  30.829  29.127 -0.1187 -0.1704  0.1128
35232W        W78223  16.024  14.296  26.282 -0.1699  0.3653  0.4015
35233W        W78224  31.521  30.558  26.551 -0.0038  0.0251 -0.1111
35234W        W78225  26.549  20.610  18.854 -0.1090  0.4884  0.2711
35235W        W78226  22.678   6.695   8.302 -0.0145  0.1510  0.2739
35236W        W78227  32.406  19.504   4.735  0.1307 -0.0298 -0.0180
35237W        W78228  28.718   3.004   4.308 -0.1050 -0.1507 -0.5550
35238W        W78229  25.459  14.956  26.179  0.0079 -0.0631  0.0153
35239W        W78230  32.284   9.310  28.423 -0.0967  0.1897  0.0423
35240W        W78231  19.082  10.166  25.033  0.0334 -0.2486 -0.3081
35241W        W78232  27.872  15.009  10.351  0.1686  0.1962  0.1281
35242W        W78233  21.166  20.628   3.972  0.1528  0.0158 -0.1031
35243W        W78234  30.992  15.590   2.586  0.0760 -0.0932 -0.0489
35244W        W78235  17.367  15.887  27.917  0.1689 -0.1419  0.3953
35245W        W78236   3.202  19.267   1.012  0.0310 -0.1114 -0.5061
35246W        W78237  27.019  29.901   4.295  0.2744  0.1754  0.1855
35247W        W78238   5.294  25.885   0.299  0.0500 -0.2921 -0.2065
35248W        W78239  27.271  13.351  10.755  0.0204  0.2539 -0.0016
35249W        W78240   0.652  11.807  25.125 -0.3268 -0.0834  0.0817
35250W        W78241  29.499  26.038  29.176 -0.0956  0.3468  0.1396
35251W        W78242   8.109  11.046   2.507 -0.2720 -0.0932  0.0787
35252W        W78243  24.948  16.446  24.720 -0.2754 -0.2085  0.1029
35253W        W78244  14.950  15.729   4.544 -0.1591 -0.0130 -0.0522
35254W        W78245  28.593  18.785   9.086 -0.1074 -0.0245  0.0815
35255W        W78246  13.767  28.271   3.165 -0.3175 -0.0726  0.1383
35256W        W78247  22.895  15.765   2.595 -0.1515  0.0857  0.2072
35257W        W78248   2.010  33.947  28.230 -0.1161 -0.1309  0.3409
35258W        W78249  18.562   3.146   4.643 -0.1348  0.0315 -0.2652
35259W        W78250  28.445  16.227  18.591 -0.2425  0.0653  0.0390
35260W        W78251  24.723  25.639   5.903  0.0796 -0.0033 -0.1549
35261W        W78252  18.486  17.382   8.227 -0.1639 -0.1396  0.0605
35262W        W78253  26.006  19.408  27.513  0.0159  0.0628 -0.2417
35263W        W78254  32.236  19.266  27.008 -0.0247  0.0599 -0.0392
35264W        W78255   2.783  32.775   1.100 -0.0737  0.0914 -0.0413
35265W        W78256   4.711  17.701   7.676  0.0033 -0.1469 -0.1466
35266W        W78257  12.021  29.612   3.855  0.1256  0.2574 -0.3852
35267W        W78258  29.246  23.985  15.017  0.0485  0.1957  0.1917
35268W        W78259  26.607  11.223   6.158  0.0183  0.3778 -0.2167
35269W        W78260  19.187  20.741   3.834 -0.0146 -0.0240  0.3167
35270W        W78261  17.839  13.036  28.227 -0.3535 -0.1310 -0.1314
35271W        W78262  26.116  17.397  10.397  0.0587 -0.0622  0.3356
35272W        W78263  26.491  21.837  18.000  0.2561  0.0037  0.0317
35273W        W78264   1.163  21.779   4.813 -0.1578 -0.1659 -0.3360
35274W        W78265  11.514  18.564   8.722  0.1212 -0.0191 -0.2201
35275W        W78266  29.882   3.224  17.588  0.2580 -0.2386 -0.1291
35276W        W78267  27.797  23.389  17.156 -0.0722  0.0279  0.3336
35277W        W78268  33.933   0.504   0.646  0.1589  0.0232 -0.1305
35278W        W78269  29.345   7.601   7.727 -0.0247 -0.0328  0.2081
35279W        W78270  19.943  13.065   8.487  0.0340  0.2219 -0.3472
35280W        W78271   3.267  16.842   5.097  0.0893  0.2935  0.0966
35281W        W78272  28.273  18.967  28.512  0.1103 -0.0191 -0.0362
35282W        W78273  25.010   8.778   4.856 -0.2081  0.2064 -0.0481
35283W        W78274  30.857  16.304   0.837  0.2035 -0.0915 -0.0277
35284W        W78275  20.095   4.384   5.956  0.1914  0.0952 -0.3699
35285W        W78276  29.995  22.731   7.946  0.0170 -0.2058  0.2085
35286W        W78277  21.410  24.946   1.573 -0.0374 -0.0736 -0.0803
35287W        W78278   8.045  17.253  20.445  0.1399 -0.1815  0.0261
35288W        W78279  23.224   7.430   3.666 -0.1360 -0.2474 -0.0740
35289W        W78280  21.854  27.954  16.940  0.2138  0.0073  0.1726
35290W        W78281  11.978   7.897  25.006  0.1186  0.1479 -0.1395
35291W        W78282  21.714  14.502   6.428 -0.2855  0.1066 -0.0799
35292W        W78283  13.135  25.200   6.577 -0.2914 -0.2701 -0.0271
35293W        W78284  29.653  23.767  16.488  0.0615 -0.3591 -0.1766
35294W        W78285   3.103  23.843  28.175  0.0602  0.1050  0.3667
35295W        W78286  31.804  19.650  23.872 -0.1339  0.1832 -0.2581
35296W        W78287  19.983  18.545  28.857 -0.1274 -0.1640 -0.0184
35297W        W78288  13.348  27.747   8.439 -0.0164  0.1246  0.1888
35298W        W78289  19.007  19.539   3.034 -0.0673 -0.1821 -0.0731
35299W        W78290  29.652  23.458  25.040  0.3126  0.1413  0.0288
35300W        W78291  29.904  20.756   5.800 -0.1432  0.0300  0.0020
35301W        W78292  19.440  24.369   7.592 -0.0704 -0.0093 -0.2177
35302W        W78293  29.621  20.906   7.346  0.1457 -0.1895  0.0408
35303W        W78294  16.630   5.500  18.180  0.2398  0.1029 -0.2829
35304W        W78295  24.541  13.371   5.851 -0.2001 -0.2070  0.1086
35305W        W78296  32.210   1.157   2.619  0.2933 -0.1777  0.2715
35306W        W78297  24.586   9.656   4.758  0.1136 -0.1996  0.1221
35307W        W78298  21.978  28.484   5.683 -0.2521  0.0584  0.1562
35308W        W78299  20.989  26.140  26.447 -0.1360  0.0659  0.1518
35309W        W78300  30.484  13.638   9.692  0.1589 -0.0650 -0.2159
35310W        W78301  13.140   7.044  25.166  0.2346 -0.1920  0.0628
35311W        W78302  17.806  26.984   2.050 -0.4060 -0.0017 -0.1037
35312W        W78303  28.151  19.777   5.889 -0.0504  0.2287  0.0066
35313W        W78304  18.559   3.114   1.610 -0.2169 -0.1593  0.0377
35314W        W78305   9.077  10.575  27.476 -0.4909  0.0622 -0.1974
35315W        W78306  33.964  25.928   3.763 -0.0334 -0.5451 -0.0311
35316W        W78307  26.559  14.340   0.183 -0.1233  0.2700 -0.1837
35317W        W78308  26.487  33.749   0.863  0.2538 -0.2194  0.1238
35318W        W78309  15.927  12.413   7.911 -0.3255  0.2502  0.0196
35319W        W78310  31.246  16.421  18.288 -0.1258 -0.1459  0.2827
35320W        W78311  22.067  27.231   5.019 -0.4570  0.3093 -0.1061
35321W        W78312   6.690  17.948   6.837 -0.2930 -0.1324  0.0024
35322W        W78313  22.036  26.244   9.019  0.1508 -0.0727 -0.0102
35323W        W78314  33.010  15.708  26.229 -0.0476 -0.1389 -0.2683
35324W        W78315  27.561  16.570  17.578 -0.0286 -0.2546 -0.3030
35325W        W78316  22.065  25.214  24.818 -0.0225 -0.0870 -0.0779
35326W        W78317  28.421  29.594   1.326 -0.2969 -0.2461  0.1721
35327W        W78318  20.056  12.607   6.154 -0.0140  0.1158 -0.3614
35328W        W78319  32.807  16.361   8.113  0.1093  0.2598  0.3222
35329W        W78320  22.821   0.232   4.906  0.4277  0.0902  0.2007
35330W        W78321  17.566  14.620   0.427 -0.7640 -0.0774 -0.1515
35331W        W78322  32.962   4.649  21.503 -0.1140 -0.1651 -0.0732
35332W        W78323  28.956  20.307   9.143 -0.1501 -0.1831 -0.0553
35333W        W78324   2.845  12.786  26.902  0.0434  0.0933  0.2120
35334W        W78325  24.964  21.776   3.565 -0.2552 -0.1144  0.2847
35335W        W78326  18.052  28.374  26.755 -0.1578  0.1307  0.1240
35336W        W78327  30.760   4.490   4.274  0.4641  0.0809 -0.0640
35337W        W78328   7.086   8.712  17.529  0.1466 -0.0930  0.4138
35338W        W78329   4.821   9.402  26.189  0.2313  0.0399  0.2484
35339W        W78330  31.704  16.149   4.377  0.0755  0.1138 -0.3843
35340W        W78331  20.344  20.323  22.530  0.1222 -0.4476 -0.0598
35341W        W78332  33.121  32.625   7.621 -0.3751  0.2205  0.3981
35342W        W78333   6.392  22.691  24.380 -0.4426  0.1098  0.3306
35343W        W78334  15.289   7.963  26.367  0.1037  0.1052 -0.0851
35344W        W78335  23.079   5.014   0.013 -0.0264 -0.2010  0.0402
35345W        W78336   2.188  16.874   8.166  0.0442  0.2191  0.0705
35346W        W78337   1.493   9.320  25.970  0.1927 -0.1739  0.0940
35347W        W78338  30.018  15.852  25.180  0.1189 -0.0569  0.0513
35348W        W78339  30.910  26.166   2.881 -0.0132 -0.2172 -0.2013
35349W        W78340  19.970  15.552  13.169 -0.3002  0.0334 -0.1259
35350W        W78341  25.377  17.120  22.546  0.1753 -0.1861  0.0695
35351W        W78342  11.875  25.243  29.258 -0.1119 -0.1626  0.3242
35352W        W78343   9.690   8.351  28.256  0.3026  0.3396 -0.0042
35353W        W78344   5.340  18.890   4.722  0.0309  0.1052  0.1814
35354W        W78345  33.183  21.241   3.454  0.0695 -0.1376  0.1531
35355W        W78346   2.066  12.577   4.322  0.0420  0.1575 -0.4455
35356W        W78347  13.521  30.081   5.187 -0.2304  0.1372  0.1023
35357W        W78348  22.844  18.774  19.750  0.2935 -0.0859  0.1067
35358W        W78349  26.681   3.559  19.939 -0.0350 -0.1269 -0.1894
35359W        W78350  21.906  11.570   0.345 -0.2998 -0.3805 -0.0489
35360W        W78351  10.001  12.651   6.592  0.2139  0.0121 -0.1040
35361W        W78352  21.360   8.478   2.730 -0.1153 -0.0402  0.1310
35362W        W78353  11.565  10.568  29.161  0.0931  0.1888  0.3319
35363W        W78354  27.032  21.489   9.546 -0.0941 -0.3706  0.0135
35364W        W78355  28.022  22.558  24.542 -0.0025 -0.4095  0.1077
35365W        W78356   7.023  26.176   7.471  0.0984 -0.0362 -0.1138
35366W        W78357  11.715  21.894  23.424 -0.2635  0.1677  0.0143
35367W        W78358  25.502  32.487  28.139  0.0772  0.4874  0.2634
35368W        W78359  21.958  22.829   2.849 -0.1706  0.1712 -0.2169
35369W        W78360  20.635  20.342  20.244 -0.0994 -0.0804 -0.0205
35370W        W78361  12.890  30.513  26.871 -0.0715 -0.1154  0.3746
35371W        W78362  15.657  19.687   6.461  0.2519  0.1988 -0.1061
35372W        W78363  29.496  12.821  24.027  0.2613 -0.0525 -0.1688
35373W        W78364  18.301  22.109   3.937 -0.2184 -0.0769  0.3302
35374W        W78365  33.556  10.131   4.993  0.2334  0.1635 -0.3149
35375W        W78366  21.289  17.700   7.963  0.1241 -0.4002  0.0745
35376W        W78367  33.403  25.136  29.178 -0.0911 -0.0016 -0.1817
35377W        W78368  27.261   9.049   4.064 -0.3177  0.0600  0.2253
35378W        W78369  16.050  13.693  13.684 -0.4222  0.1863  0.5069
35379W        W78370  28.338  10.011   0.741  0.0816  0.0800 -0.1819
35380W        W78371  31.739  23.563  17.052  0.0462 -0.0616  0.1471
35381W        W78372  28.403  23.150  20.319 -0.0335 -0.1170  0.1804
35382W        W78373   9.565  16.606   3.586  0.1140 -0.1052 -0.0704
35383W        W78374  28.531   8.560   7.021  0.0963 -0.0784 -0.0657
35384W        W78375  24.449  28.182   6.511  0.0728  0.0734  0.0722
35385W        W78376  17.035  25.593   2.727  0.1595  0.0325 -0.0026
35386W        W78377   1.054   5.716   5.774  0.0925  0.1999  0.1708
35387W        W78378  20.915  22.421  24.219 -0.0144 -0.0305 -0.0780
35388W        W78379  27.274  22.840   5.839  0.1985 -0.1618 -0.1121
35389W        W78380  17.122  34.389   3.495  0.0199  0.0358 -0.3098
35390W        W78381  14.275  11.210  28.641 -0.1380  0.0660 -0.0300
35391W        W78382  34.571  24.307  24.738  0.1025  0.1091  0.0999
35392W        W78383  15.669  32.252  17.607 -0.1475  0.1496  0.0593
35393W        W78384  25.661  34.333   2.968 -0.0759  0.2190 -0.2476
35394W        W78385  25.534  24.772   0.309 -0.0804 -0.0051  0.2319
35395W        W78386  18.404  18.333   1.191 -0.2170  0.1583  0.1370
35396W        W78387   1.923  19.232  27.866 -0.0084 -0.0234  0.1214
35397W        W78388   7.521  14.729  16.601 -0.1675  0.0983 -0.1381
35398W        W78389  29.601  11.392  23.853  0.0316  0.1038  0.1256
35399W        W78390  30.604  14.850  28.181 -0.0245 -0.0284  0.0510
35400W        W78391  28.941  12.356   9.956 -0.1480 -0.0619 -0.1714
35401W        W78392  32.022  33.147   2.433 -0.0325 -0.0314 -0.0781
35402W        W78393   3.680  19.168  28.898 -0.2891  0.0275 -0.1455
35403W        W78394  20.646  21.765   1.409 -0.0669 -0.1329  0.1545
35404W        W78395  32.277   2.777  22.569 -0.1927  0.0001  0.3357
35405W        W78396   2.224  15.192   2.541  0.2088 -0.3024  0.3014
35406W        W78397  27.368  22.842  21.153  0.1137  0.0219  0.0747
35407W        W78398  30.209  28.329  28.521  0.1455 -0.1386 -0.1510
35408W        W78399  26.480  14.861   9.686  0.1424  0.0493 -0.3614
35409W        W78400  20.561   3.341  20.426  0.1248  0.0822  0.1301
35410W        W78401  30.993  25.722  28.348 -0.0781  0.0862 -0.0426
35411W        W78402  16.014  25.604  13.833  0.2070 -0.1350 -0.1803
35412W        W78403  22.282  24.724  26.919 -0.1921 -0.3023 -0.0636
35413W        W78404   1.231  30.381   3.490 -0.1009 -0.0154 -0.1662
35414W        W78405   7.599  13.292  28.060  0.0348  0.0694 -0.1519
35415W        W78406  17.383  18.309   4.115 -0.0803  0.2362  0.2149
35416W        W78407   7.726  31.143   7.155 -0.0853  0.2713  0.1041
35417W        W78408   3.073  16.596   4.023 -0.1244  0.0767 -0.1913
35418W        W78409  24.658  27.103   5.783  0.1174 -0.1094 -0.1160
35419W        W78410  22.570  16.803  27.290 -0.1978  0.0551  0.1058
35420W        W78411   3.038   1.133  11.101 -0.2696 -0.0007 -0.1233
35421W        W78412  26.113   9.005  26.368 -0.1448  0.1407 -0.0656
35422W        W78413  29.764   5.845   2.277 -0.1162 -0.0625  0.1184
35423W        W78414  31.790  17.894  29.214 -0.1687  0.0254  0.0408
35424W        W78415  24.094  21.722   3.075 -0.2443 -0.2010  0.2173
35425W        W78416  22.275  22.757   1.514  0.0984 -0.0612 -0.0568
35426W        W78417  33.775  33.630  28.336  0.3359 -0.1340 -0.1628
35427W        W78418  25.257  26.724  14.898  0.0802 -0.0326  0.0370
35428W        W78419  27.443  12.052  27.522  0.0190  0.1411 -0.0985
35429W        W78420  28.925  17.234  23.662 -0.2519  0.0127  0.2550
35430W        W78421  21.939  13.458  23.392 -0.0563 -0.1750 -0.0604
35431W        W78422   8.702  24.666  15.199 -0.0546  0.1942 -0.1541
35432W        W78423   0.762   5.228  10.957  0.1184  0.2537 -0.0006
35433W        W78424  18.157  26.900  22.588 -0.1559  0.0300 -0.2767
35434W        W78425   0.014   3.871  19.894  0.2318  0.1124  0.1254
35435W        W78426   0.996   7.963   0.987  0.1622  0.1034  0.0626
35436W        W78427   4.802  33.908   7.617 -0.2280 -0.2041  0.1066
35437W        W78428   5.377  30.823  25.430  0.0998  0.0735  0.0128
35438W        W78429   0.783  17.335  10.866 -0.1648  0.0238 -0.1763
35439W        W78430  33.542   2.960   8.289 -0.1628 -0.0097  0.1061
35440W        W78431  32.002  19.710   6.221  0.2151  0.0996  0.1222
35441W        W78432   6.429  16.660  24.063  0.3270 -0.1696  0.1739
35442W        W78433  21.905  11.989  24.931 -0.0287  0.1238  0.0138
35443W        W78434  28.952  33.127  25.949  0.1496  0.1197 -0.0919
35444W        W78435  31.794   5.810   8.417 -0.0513  0.0699 -0.3245
35445W        W78436  11.135  23.135   3.024  0.1812 -0.0511  0.0448
35446W        W78437  31.123   6.925  21.394  0.1159  0.0415 -0.2695
35447W        W78438  29.532  11.633  22.888 -0.3488 -0.0443 -0.2257
35448W        W78439  33.433  12.930  27.176  0.0193  0.1124 -0.0520
35449W        W78440  13.210   6.346   5.489  0.1245 -0.2352 -0.0783
35450W        W78441  23.211  25.876   2.606 -0.1029 -0.2254 -0.1553
35451W        W78442  29.582   0.135  20.375 -0.2441  0.1754  0.2698
35452W        W78443   8.184  23.639   8.334  0.0887 -0.0065 -0.2729
35453W        W78444  27.854  32.039  26.556  0.1151  0.1030 -0.0416
35454W        W78445  27.336   4.480   9.059  0.1276 -0.2058  0.0726
35455W        W78446  20.275   7.292  23.403  0.0917 -0.2516  0.0950
35456W        W78447   0.342   6.501  10.318 -0.3810  0.1844  0.1534
35457W        W78448   7.809  19.278  28.352 -0.1541  0.4061 -0.4149
35458W        W78449  28.829  15.591   9.677 -0.3221 -0.0483 -0.2176
35459W        W78450  20.217  17.673   7.454 -0.1478  0.2528 -0.0888
35460W        W78451  32.181   2.153  28.389  0.0621  0.1024 -0.1782
35461W        W78452  12.735  26.572  28.220  0.2010 -0.1830  0.1284
35462W        W78453  17.399   2.607  29.250  0.0938 -0.1776  0.1793
35463W        W78454  22.110  26.630  25.992 -0.1199 -0.0707  0.1304
35464W        W78455  16.915  17.511   5.729 -0.0096 -0.0590  0.0259
35465W        W78456  24.704  21.237  27.257 -0.0817 -0.2959 -0.3280
35466W        W78457  34.744  13.308  12.167  0.3175  0.1064  0.0087
35467W        W78458  26.292  19.071  28.734 -0.0573  0.2556 -0.5420
35468W        W78459  24.976  24.629  27.746  0.1218 -0.0683  0.0088
35469W        W78460   0.734   5.606  18.236 -0.0357  0.1144  0.1530
35470W        W78461  19.789  12.303  17.946 -0.2338 -0.0312 -0.0039
35471W        W78462   1.301  31.023   1.085 -0.0389  0.3088 -0.1342
35472W        W78463  24.265  27.903  25.002 -0.1046  0.2633  0.0855
35473W        W78464  20.534  15.593   2.890  0.0444  0.1612  0.0357
35474W        W78465   9.136  13.586   2.242 -0.3984  0.0360  0.0497
35475W        W78466  32.647   6.307   7.445 -0.1335  0.1803  0.0211
35476W        W78467  31.340  20.177  24.432  0.6036  0.1592 -0.0879
35477W        W78468  12.005  23.485  26.895 -0.0949 -0.0564  0.1416
35478W        W78469  31.738  28.783   5.021 -0.0924  0.0149 -0.2982
35479W        W78470  12.519  30.771  27.807  0.2527  0.3070  0.1271
35480W        W78471  21.204  15.359  19.789 -0.0568  0.1897  0.1594
35481W        W78472  28.433  19.861  23.967 -0.0879  0.1931 -0.0779
35482W        W78473  17.399  20.185   7.998  0.0621  0.0128  0.1197
35483W        W78474  31.371  25.372  23.766  0.2891  0.0459 -0.1509
35484W        W78475  31.848  25.060  29.005  0.0651  0.0739 -0.1811
35485W        W78476  29.464  28.724   0.191 -0.0847 -0.1285 -0.1599
35486W        W78477   4.841  22.079  14.626  0.1578  0.1187  0.0545
35487W        W78478  15.939  18.644   3.219 -0.1121  0.2430  0.2506
35488W        W78479  32.271  16.353   7.487 -0.3377 -0.0068  0.0217
35489W        W78480   4.140  32.027  23.823 -0.1266  0.2694  0.0855
35490W        W78481  26.059   7.418   9.876  0.1190 -0.4519  0.0433
35491W        W78482   5.653  22.248   9.172  0.1354 -0.0767  0.1349
35492W        W78483  32.106  11.297  23.412  0.3363 -0.1735 -0.1909
35493W        W78484  26.766   8.516   0.721 -0.2033 -0.3596  0.2740
35494W        W78485  32.603  26.626   2.290 -0.0236 -0.1453 -0.1638
35495W        W78486  11.660  18.263   5.622 -0.1947  0.0222 -0.2749
35496W        W78487  27.925  23.065  13.955 -0.1396  0.0376  0.3133
35497W        W78488   3.106  26.092   3.012 -0.0980  0.1495 -0.2306
35498W        W78489   6.248  16.432   3.783 -0.0155  0.0991 -0.1495
35499W        W78490  34.353  18.725   9.864  0.1505  0.1905 -0.2784
35500W        W78491  20.100   2.185  21.983 -0.1920 -0.1397 -0.1306
35501W        W78492  15.714  17.408  28.075 -0.0751  0.2051 -0.2219
35502W        W78493   5.034  16.169  10.854  0.1125 -0.0416 -0.3466
35503W        W78494  27.798  33.295   2.212  0.0542 -0.0902  0.1105
35504W        W78495  34.777  16.348   9.510  0.1368 -0.2460  0.0072
35505W        W78496  23.754  11.524  25.729  0.0598 -0.0982 -0.0494
35506W        W78497  32.977   2.128   8.383  0.1997  0.1651 -0.2291
35507W        W78498  24.818   9.747   8.711  0.1692 -0.4107  0.1539
35508W        W78499   0.039  14.949   9.910  0.2105 -0.1533 -0.4980
35509W        W78500  17.880  23.235   6.895  0.0862  0.0412 -0.4181
35510W        W78501  16.776   9.248  21.130 -0.3198 -0.1160  0.0382
35511W        W78502  27.210  22.735   6.323  0.0998  0.0806  0.1746
35512W        W78503  25.567  13.877   5.860 -0.0613 -0.1297  0.1353
35513W        W78504  27.040   8.921   8.335  0.0244  0.0984  0.1260
35514W        W78505  28.253  13.927   1.318 -0.6146  0.1643 -0.3313
35515W        W78506  26.006   4.775   4.824 -0.1454 -0.1862  0.2159
35516W        W78507   4.676  21.203  22.142 -0.5671 -0.1773 -0.0812
35517W        W78508  23.317  23.698  24.518 -0.4375  0.0372  0.1721
35518W        W78509  16.299  27.644  17.564 -0.2368  0.0382  0.1378
35519W        W78510  19.182  19.353  27.706  0.0212 -0.0304  0.2131
35520W        W78511   7.427  29.411  20.146  0.2244  0.2168  0.0546
35521W        W78512   7.496  21.827   0.283 -0.4892 -0.1772  0.1411
35522W        W78513  20.853  33.983   5.717 -0.2605  0.3659  0.0491
35523W        W78514  26.312  15.861  19.411  0.0332  0.0137 -0.0176
35524W        W78515  27.580  20.325   1.391  0.0058 -0.0581  0.1782
35525W        W78516  28.050   7.980   9.337  0.0894  0.2600  0.0459
35526W        W78517  24.902  15.965  26.515 -0.0679  0.0017 -0.2465
35527W        W78518   1.168  15.714   2.375 -0.3210 -0.1238 -0.0881
35528W        W78519  15.778  20.214   1.973 -0.0295  0.0181 -0.3237
35529W        W78520  33.868  15.372   3.590  0.3914  0.0087 -0.0987
35530W        W78521  10.785  30.273  28.297  0.2312  0.0476  0.0797
35531W        W78522  24.022  18.521   0.590 -0.0215  0.0256  0.0557
35532W        W78523  18.732   8.345   6.373 -0.1496 -0.4439 -0.4119
35533W        W78524  31.414  14.792  26.194 -0.0050 -0.0866  0.0957
35534W        W78525  27.158  26.860   7.760  0.3724  0.3405 -0.1280
35535W        W78526  24.061  19.881   1.970  0.0020 -0.1998 -0.3484
35536W        W78527  23.365  16.078   6.685 -0.1801  0.4363 -0.2501
35537W        W78528  30.730  21.918   0.563 -0.0969 -0.1479 -0.1478
35538W        W78529  22.418  18.890  24.539  0.3945 -0.0873  0.1579
35539W        W78530  32.571  32.202   0.954  0.0965 -0.1563 -0.4031
35540W        W78531   2.784  32.830  24.108 -0.0726  0.0113  0.0819
35541W        W78532  30.228  18.887  16.003 -0.1462  0.0223 -0.3317
35542W        W78533   2.109  25.626   4.413 -0.0131  0.0690 -0.0660
35543W        W78534   6.444  24.534  17.688 -0.2655  0.0491 -0.0380
35544W        W78535  21.553  20.646  26.142  0.0636  0.1015 -0.2449
35545W        W78536  26.175  27.539   8.746 -0.0059 -0.2593  0.0020
35546W        W78537  32.198  25.580   7.562  0.1764  0.3141 -0.1935
35547W        W78538   4.370  23.648  24.223  0.2889  0.1578  0.0305
35548W        W78539   0.528  22.028  21.807  0.0891 -0.0055 -0.0024
35549W        W78540  26.464  18.287   1.935 -0.0148  0.0611 -0.1020
35550W        W78541  20.177  20.977   3.980  0.0242  0.2435 -0.0134
35551W        W78542  26.136  16.206   1.719 -0.0049 -0.1312  0.0542
35552W        W78543  33.615  18.100  18.696 -0.2095  0.1212  0.0555
35553W        W78544  33.473  14.537   9.308 -0.1285  0.1428  0.1244
35554W        W78545  12.509  27.372   2.387 -0.1699  0.4149 -0.1416
35555W        W78546   3.078  34.657   4.351  0.1162  0.1518 -0.3087
35556W        W78547  29.679  34.549   5.099  0.0499  0.1670  0.0392
35557W        W78548  18.213  30.602  26.047  0.2074 -0.0165  0.1269
35558W        W78549  14.285  10.576  24.260  0.0191  0.1027 -0.0220
35559W        W78550   4.088  10.744  25.993  0.3498  0.1160 -0.0099
35560W        W78551  19.563  29.837  27.599 -0.0197  0.2202  0.0475
35561W        W78552   2.673  22.690  22.014 -0.1904  0.0425  0.0513
35562W        W78553  20.598  23.315  14.224 -0.0392 -0.0429  0.0277
35563W        W78554  25.539  29.861   0.059 -0.0843 -0.0098 -0.1382
35564W        W78555  12.211   7.910  11.468  0.0785 -0.0453 -0.0264
35565W        W78556  30.593  29.334  26.593 -0.2427  0.1406 -0.0425
35566W        W78557   4.537  26.531   0.332  0.1629 -0.4449 -0.0762
35567W        W78558  18.434  29.102   0.369  0.1373  0.1074  0.0263
35568W        W78559   1.622  26.190   3.824  0.0837 -0.2314  0.1193
35569W        W78560  20.311  15.192  24.603  0.1603  0.3058 -0.3502
35570W        W78561  25.553  11.730  25.775  0.3443 -0.3225  0.1207
35571W        W78562  14.689  11.382  25.882  0.0068 -0.0052  0.0674
35572W        W78563  24.794  11.269   7.377  0.1897  0.2608  0.0843
35573W        W78564  30.473  23.751   9.513 -0.2587  0.3035  0.2158
35574W        W78565   5.427   8.309   4.818 -0.0235  0.0803  0.4488
35575W        W78566  17.006  21.159  20.515 -0.3161 -0.0610 -0.0031
35576W        W78567   6.196   6.335  10.419  0.2580  0.2916 -0.0816
35577W        W78568   7.026   5.480   3.232  0.0660 -0.2007 -0.4181
35578W        W78569  16.588  25.413   6.232 -0.0823  0.0763 -0.1069
35579W        W78570   6.199   8.231   2.425  0.2615  0.2101  0.2534
35580W        W78571  31.851   1.027  26.155 -0.0036 -0.4520  0.0158
35581W        W78572  17.846  24.694   7.174  0.0278 -0.0155 -0.0570
35582W        W78573  26.712   3.572  28.927  0.0074 -0.1334 -0.0882
35583W        W78574  13.986  34.687  17.862 -0.1564 -0.0432  0.2493
35584W        W78575  20.773   8.838   8.782 -0.0724  0.2724 -0.0713
35585W        W78576  17.478  32.604   3.027  0.1464 -0.0411  0.0381
35586W        W78577  28.205   6.045   0.242 -0.0847  0.0649  0.1686
35587W        W78578  23.055   8.838  21.925  0.1554 -0.0708  0.1702
35588W        W78579   7.505   8.982   7.631  0.1790  0.0816 -0.3014
35589W        W78580  26.372  16.086   8.480 -0.0506  0.3843  0.0812
35590W        W78581  17.807   7.621   1.875  0.2179 -0.0626 -0.0194
35591W        W78582  28.165  31.637  29.153  0.2016  0.0186 -0.2970
35592W        W78583  27.135   9.164  21.552  0.0561 -0.1645  0.1213
35593W        W78584   8.476  16.167   8.760  0.0299 -0.0473 -0.1369
35594W        W78585  33.125  16.704  18.584 -0.3577 -0.0040  0.1282
35595W        W78586  32.666  22.409   2.954  0.0068 -0.2725 -0.2219
35596W        W78587  19.958  11.633   8.638  0.0022 -0.0241 -0.3214
35597W        W78588  16.861   8.747   4.398 -0.0686 -0.1192 -0.1291
35598W        W78589  21.185  19.930  21.470  0.2071  0.1023  0.2428
35599W        W78590   4.214  17.363   9.141  0.1278  0.2586  0.0556
35600W        W78591  32.078  13.102  10.124  0.1230 -0.0801 -0.2520
35601W        W78592  16.354   9.402   3.200  0.2184 -0.0866 -0.1575
35602W        W78593  27.210  18.390   1.438  0.0650  0.1658  0.0099
35603W        W78594  31.006  14.247  19.213  0.2170 -0.1579 -0.0535
35604W        W78595  29.332  20.008   4.391  0.0856  0.0986 -0.3130
35605W        W78596  32.666  31.271  27.876 -0.0396 -0.2418 -0.0829
35606W        W78597  29.387  19.322  21.493  0.2447 -0.0892  0.1382
35607W        W78598  21.396  15.233   2.221 -0.1372  0.0104 -0.1812
35608W        W78599  13.550  16.823   2.324  0.1979 -0.0068 -0.1223
35609W        W78600  14.443  12.133  28.765 -0.2483  0.3486  0.0519
35610W        W78601   8.505  18.215  18.520 -0.0812  0.0731  0.0982
35611W        W78602  10.175   8.092  28.985  0.1990 -0.0334  0.0183
35612W        W78603  34.591  22.814  22.486  0.1770 -0.3318  0.1079
35613W        W78604  26.708  21.792   9.407  0.0491 -0.1453  0.1718
35614W        W78605   7.986  11.955  17.360 -0.0262  0.1357  0.1091
35615W        W78606   8.953  32.883   6.597 -0.1324  0.0333 -0.3400
35616W        W78607   0.055  18.802  20.421 -0.1129 -0.0266 -0.0879
35617W        W78608   2.426   8.638  18.729 -0.1667 -0.0062  0.0146
35618W        W78609  23.680  20.791  14.042 -0.0068  0.1681  0.1365
35619W        W78610  15.126  18.205   0.079 -0.1908 -0.4419 -0.1036
35620W        W78611  18.548  15.185  21.811  0.0489 -0.0305 -0.0753
35621W        W78612   1.783   2.860  26.589 -0.0647  0.1662  0.1236
35622W        W78613  32.166   5.876   3.277  0.1191 -0.1778  0.1724
35623W        W78614  18.707  26.401   9.852  0.2289 -0.0077  0.1352
35624W        W78615  24.575  12.167  25.852 -0.1620 -0.0550  0.1762
35625W        W78616   7.540  17.114   4.012  0.0340  0.1969 -0.2265
35626W        W78617  22.108  18.558  22.917 -0.0096 -0.1070  0.0748
35627W        W78618  23.899  15.926   6.421  0.1539 -0.2482 -0.1642
35628W        W78619  24.077  19.457  18.053  0.2512 -0.2061 -0.3846
35629W        W78620  30.311  18.939   9.025  0.2680 -0.2672 -0.1737
35630W        W78621  26.840  29.821   6.127  0.1660  0.3777  0.0292
35631W        W78622  28.665  27.388  28.963 -0.1792 -0.1041  0.1958
35632W        W78623  14.251  14.976  23.019  0.1134  0.0544 -0.3241
35633W        W78624  25.230  24.269   6.811 -0.1792  0.1797  0.0409
35634W        W78625  31.577  26.318   0.150  0.1289  0.1490 -0.1539
35635W        W78626  12.841  25.954  24.647 -0.0086 -0.0011  0.0579
35636W        W78627   2.470  17.676   5.869 -0.2707 -0.1459 -0.0093
35637W        W78628  23.046  18.247   7.113 -0.2733  0.2303  0.1536
35638W        W78629  13.643   1.747  25.205  0.0466  0.0724 -0.0612
35639W        W78630   6.501  13.252  16.687 -0.3731 -0.2222 -0.0867
35640W        W78631  24.197  23.330   6.093  0.1307  0.1217  0.3906
35641W        W78632  28.985  30.806   5.146  0.0917 -0.1932  0.0991
35642W        W78633  24.981  12.856  26.412 -0.1472  0.1302 -0.3471
35643W        W78634  28.407  24.457   0.656 -0.0574  0.1130  0.3556
35644W        W78635  15.575  14.067   6.397 -0.0166  0.2001 -0.0547
35645W        W78636  21.421  16.187   9.735 -0.1429 -0.3819  0.0194
35646W        W78637  15.834  19.256   7.893  0.0030  0.1523 -0.0642
35647W        W78638  27.551  28.111  24.202  0.2863 -0.1539  0.3141
35648W        W78639   1.611  17.192   4.637 -0.1657  0.0138 -0.0305
35649W        W78640  20.544   8.436  24.851  0.0690  0.1084 -0.2898
35650W        W78641  12.686  20.692   2.228  0.0257 -0.1229  0.2591
35651W        W78642  12.638  15.597   1.559  0.0712 -0.1701  0.0141
35652W        W78643  14.944  34.141   3.243 -0.0927 -0.1497  0.0652
35653W        W78644  17.094  23.307   3.007 -0.0184 -0.1973  0.1985
35654W        W78645  11.199   8.502   8.799  0.1149 -0.0215  0.2123
35655W        W78646   0.083  30.400   9.101 -0.1289 -0.1792 -0.0213
35656W        W78647  30.618  27.935   6.590 -0.3474 -0.1090  0.1123
35657W        W78648  17.235  23.108   2.100  0.2247  0.1759  0.2336
35658W        W78649  28.414  15.297  26.672  0.0839 -0.3134 -0.0251
35659W        W78650  25.893  20.653  24.475 -0.1891 -0.2863 -0.2911
35660W        W78651   7.701  22.504   1.557 -0.3671  0.1074  0.1647
35661W        W78652  27.264  26.501  25.961  0.2708  0.0628 -0.0520
35662W        W78653  30.197   6.496   9.613  0.0288  0.1276 -0.1033
35663W        W78654   0.870   9.946  18.910  0.2481  0.2764 -0.0115
35664W        W78655   4.547   8.126   8.276 -0.1093 -0.0316 -0.0785
35665W        W78656   8.382   4.622   4.643 -0.1025 -0.0700  0.0624
35666W        W78657   7.732  18.594  24.893  0.0639 -0.2793  0.4106
35667W        W78658  19.500  23.976  25.110  0.1211  0.2219  0.2213
35668W        W78659   5.636  30.232   2.540 -0.2443 -0.2125 -0.1269
35669W        W78660   9.745  21.981  20.722 -0.0067 -0.0656  0.1241
35670W        W78661  23.134   9.766  27.762 -0.3199 -0.1120  0.1427
35671W        W78662  20.203  14.717  19.380 -0.1138  0.0407 -0.1913
35672W        W78663  26.496  23.027  24.661 -0.0525 -0.0986 -0.1747
35673W        W78664  22.076  19.883  22.467  0.3096 -0.0446 -0.1934
35674W        W78665  25.945  18.591  25.693 -0.0423 -0.0494  0.2148
35675W        W78666  28.254  28.698   0.118 -0.1728  0.1739 -0.3431
35676W        W78667  33.281  22.531   8.417  0.2568  0.2129  0.2878
35677W        W78668  34.310  13.066  27.151 -0.1348 -0.0120  0.1277
35678W        W78669  26.318  18.799   5.708  0.2368 -0.0892 -0.1892
35679W        W78670  28.916   0.454  21.452  0.0858 -0.0134  0.4507
35680W        W78671   6.582  15.584   4.225  0.0688 -0.4375  0.1566
35681W        W78672  32.223  28.903   7.321  0.2140 -0.0375 -0.3571
35682W        W78673   2.999  18.348   2.717  0.0715 -0.1869  0.2152
35683W        W78674  13.114  11.945  26.695 -0.1819 -0.1804 -0.1213
35684W        W78675   9.865   6.462  27.345  0.5301 -0.0370  0.1865
35685W        W78676  29.503  18.083   7.097  0.0158 -0.1575 -0.2499
35686W        W78677  23.095  20.841  26.346  0.0272  0.1801  0.1497
35687W        W78678  15.170  16.078  25.701 -0.0099 -0.1499  0.0006
35688W        W78679  11.740  16.578  28.429  0.4223  0.2518 -0.0207
35689W        W78680  29.455  32.145   0.770 -0.1209  0.0097 -0.1232
35690W        W78681   1.868  25.216  21.533 -0.3870  0.1175 -0.1297
35691W        W78682  15.106  28.838   1.571 -0.3215 -0.0007 -0.1434
35692W        W78683  25.796  17.434   1.265 -0.0071  0.2091  0.2082
35693W        W78684  19.133  21.874  28.106 -0.0738 -0.1103  0.4711
35694W        W78685  15.978  18.876   6.273  0.2566  0.0044  0.0687
35695W        W78686  24.633  21.330   9.764 -0.0609 -0.0409  0.2272
35696W        W78687   1.295  20.922   0.044 -0.1982 -0.2242  0.0920
35697W        W78688  32.229  20.818  28.392 -0.0811 -0.0739  0.0630
35698W        W78689   3.455  20.226   7.720  0.2113 -0.0348 -0.3560
35699W        W78690  29.589  24.760  22.690 -0.2226  0.3649 -0.1129
35700W        W78691  10.946  22.406   4.222  0.3741 -0.0066  0.0963
35701W        W78692  25.206  21.042   7.809 -0.0086  0.1621 -0.2021
35702W        W78693  16.610  31.363   5.357  0.5567 -0.1509  0.1948
35703W        W78694  20.540  18.400   2.124  0.0525 -0.0872 -0.3723
35704W        W78695  20.869  15.314  23.898  0.0603 -0.3231 -0.0159
35705W        W78696  25.733  10.112  29.242  0.0427 -0.1365 -0.3030
35706W        W78697   3.157  24.934   7.965  0.0833 -0.1065  0.0428
35707W        W78698  17.882  17.412  25.605 -0.0981  0.0394 -0.0626
35708W        W78699  26.361  17.392  27.719 -0.0166 -0.3695 -0.1224
35709W        W78700  25.841  17.097   2.955  0.0726 -0.0052 -0.2198
35710W        W78701  20.627   7.638   7.407  0.2404 -0.1403  0.0230
35711W        W78702  14.966  24.575   5.620  0.5342  0.0058 -0.3188
35712W        W78703  13.924  18.327   1.382 -0.0908 -0.0345  0.0645
35713W        W78704  33.123  10.935  25.458  0.3021  0.0839 -0.1109
35714W        W78705  20.407   3.631  24.365  0.0640 -0.0630 -0.0090
35715W        W78706  18.072  14.793   8.249  0.0701  0.0725 -0.0324
35716W        W78707  34.624  25.684   9.717 -0.3091 -0.1913 -0.1913
35717W        W78708  34.138  21.670   8.841  0.1505 -0.1159  0.0780
35718W        W78709  29.805  27.551   3.311 -0.3973 -0.0562 -0.1748
35719W        W78710  30.370   1.770  27.236 -0.0056 -0.0030 -0.4767
35720W        W78711  28.155  11.504  29.200  0.0479  0.2923 -0.1574
35721W        W78712  24.747  34.755  21.345 -0.0262  0.1450  0.0424
35722W        W78713  27.098  17.269   4.481  0.0319  0.0307 -0.1141
35723W        W78714  30.145  22.281   3.769 -0.0526 -0.0207  0.0434
35724W        W78715  17.392  15.697   4.008  0.3688  0.1304  0.0295
35725W        W78716  18.385  21.091   3.042  0.0979  0.1867  0.0172
35726W        W78717   0.409  13.596  11.547 -0.0157 -0.2736  0.0916
35727W        W78718  25.706   1.847   8.145 -0.2166 -0.2090  0.2301
35728W        W78719  17.321  27.414  26.511  0.1688 -0.1215  0.2215
35729W        W78720  24.169  23.265   4.238  0.2426 -0.1220  0.0466
35730W        W78721  21.918  19.410  25.166 -0.0221 -0.1613 -0.1560
35731W        W78722  18.193  33.589  22.996  0.3265  0.2817 -0.4468
35732W        W78723  26.165  18.597  29.018 -0.0469 -0.1525 -0.1650
35733W        W78724   5.680  24.506   4.346 -0.3508  0.2359  0.0505
35734W        W78725  11.536  14.596  28.591  0.0121  0.1619  0.2619
35735W        W78726  23.332  28.124   6.187 -0.2999 -0.1446 -0.0372
35736W        W78727  26.472  11.645   6.411 -0.1470 -0.0608 -0.1484
35737W        W78728   1.405   6.508   8.230 -0.0956  0.2153  0.3698
35738W        W78729  20.820  33.257   8.114 -0.2082 -0.0575  0.1334
35739W        W78730   1.628  21.757   2.536 -0.0753 -0.2448  0.1663
35740W        W78731   8.561  10.815  11.427 -0.1265  0.1177  0.1907
35741W        W78732   5.249  16.633   8.951  0.1361 -0.1574  0.2806
35742W        W78733  27.810   3.191   0.351 -0.2793 -0.3706  0.1966
35743W        W78734  27.455  21.561   6.425 -0.0121  0.3090 -0.0185
35744W        W78735  33.253  26.949   2.805  0.2068  0.0797 -0.0749
35745W        W78736  15.736   3.231  24.529  0.0291 -0.0911 -0.0862
35746W        W78737  30.487  25.384   9.912  0.1829  0.0586  0.1538
35747W        W78738   1.787  10.340   7.431  0.1194  0.0220 -0.1069
35748W        W78739   3.459  10.235   1.779  0.1128 -0.1727  0.1712
35749W        W78740  30.492  23.263   2.102 -0.2893 -0.0535 -0.1796
35750W        W78741  32.225  20.363   6.985  0.2054  0.2586  0.1205
35751W        W78742  19.004  23.100   8.412  0.0669  0.0566  0.4753
35752W        W78743  20.357  16.851   4.036  0.0277 -0.1319 -0.2467
35753W        W78744  12.179  22.024  27.816 -0.5600 -0.0163  0.1308
35754W        W78745  31.487  29.664  27.573  0.1049 -0.3591 -0.1277
35755W        W78746  24.233  14.427  25.007 -0.1250 -0.0643  0.1151
35756W        W78747   3.599  17.599  24.202  0.0279 -0.0215  0.0854
35757W        W78748  19.240  10.792  27.606 -0.4182 -0.0907  0.1274
35758W        W78749  16.206  20.155  18.622  0.1364 -0.2407  0.1621
35759W        W78750   0.308  33.411   6.210 -0.2135 -0.3202 -0.0372
35760W        W78751  22.586  24.783   7.576 -0.0643  0.2824 -0.1000
35761W        W78752   0.186  27.156   9.088 -0.0349 -0.2015  0.0041
35762W        W78753  15.662  19.523  24.361  0.0615 -0.3321 -0.1140
35763W        W78754  32.702   4.760   5.225  0.1183  0.0829 -0.0873
35764W        W78755  33.221  18.789   2.073 -0.0038  0.2289 -0.0142
35765W        W78756  34.119  27.267  28.575 -0.0915  0.0886 -0.0113
35766W        W78757  23.346  17.666   4.328 -0.2051  0.0217 -0.3283
35767W        W78758   4.781  26.008   0.385  0.1165 -0.1207  0.0754
35768W        W78759   1.476  16.390  27.764 -0.0468  0.2244  0.2864
35769W        W78760  13.645  20.502   0.420 -0.1455  0.3245  0.4270
35770W        W78761   5.710  10.484  26.585 -0.1673 -0.1137  0.3234
35771W        W78762   0.776   8.508  19.945  0.0246  0.1398  0.4466
35772W        W78763   8.745  33.385  29.102  0.0529  0.3035  0.0368
35773W        W78764  13.209  21.319   8.670  0.2889 -0.0807  0.0407
35774W        W78765  16.421   8.667  27.964  0.1768 -0.1074  0.1473
35775W        W78766  25.931  29.820   5.083  0.0564 -0.1928  0.0092
35776W        W78767  11.859  17.730  19.679 -0.2256  0.1919 -0.2626
35777W        W78768   6.413  33.876   9.627 -0.1557  0.0123  0.0243
35778W        W78769   1.425  22.039  28.863  0.4611 -0.0040  0.0752
35779W        W78770  23.109  22.795   1.972 -0.4791 -0.0115 -0.2265
35780W        W78771  25.571  25.590  24.299 -0.0454 -0.2530  0.1510
35781W        W78772   9.528  21.405   9.475  0.1096  0.0217  0.1450
35782W        W78773   8.862   8.139  17.492 -0.0817  0.0613  0.0082
35783W        W78774  30.264  16.256   8.402  0.0225  0.0207 -0.1219
35784W        W78775  28.166   8.451   8.946 -0.2832  0.1056  0.0149
35785W        W78776  14.106  26.604   5.147 -0.1272 -0.0502  0.1449
35786W        W78777   5.015  34.482   2.708  0.1231 -0.0352 -0.0151
35787W        W78778  16.184  22.820   4.840  0.2751  0.0393  0.0693
35788W        W78779   6.067  20.413   9.783 -0.2146  0.1978  0.0617
35789W        W78780  11.565  19.495   4.862 -0.0053  0.0782 -0.2269
35790W        W78781  26.145  29.260   2.365 -0.4618  0.0632 -0.0658
35791W        W78782  26.226  14.397   5.015  0.1303 -0.2435 -0.0249
35792W        W78783  32.934  14.050   5.549 -0.1390  0.1429 -0.1769
35793W        W78784  31.843  11.791   4.996  0.3372 -0.2038  0.1910
35794W        W78785  21.600  20.101   5.933 -0.1741 -0.0065  0.0043
35795W        W78786  13.527  27.287   9.480 -0.0101 -0.1099 -0.1573
35796W        W78787  19.723  24.096   4.400  0.0489  0.3195 -0.2786
35797W        W78788  23.849  27.251   3.538  0.0922  0.2212 -0.2681
35798W        W78789  30.288  11.724   9.345 -0.0302  0.1248 -0.1739
35799W        W78790  16.445  20.771   1.531  0.3660  0.0281  0.2029
35800W        W78791  34.697  34.630  22.841  0.1293 -0.3049  0.0087
35801W        W78792  25.457  18.947  24.357  0.2020 -0.1651 -0.0301
35802W        W78793  26.214  22.619   3.579  0.0508 -0.0321  0.0270
35803W        W78794  14.852  21.425   6.453 -0.0006  0.4545  0.2264
35804W        W78795  12.582  24.987  17.054  0.1621  0.1370  0.0219
35805W        W78796  29.839  18.564   7.070  0.0568  0.2522 -0.1711
35806W        W78797  20.829   3.632  14.239  0.2388 -0.3423  0.1728
35807W        W78798  11.118  15.444  28.680 -0.0046  0.1353 -0.2321
35808W        W78799  10.619  17.270  22.166  0.0021  0.0684 -0.0472
35809W        W78800   1.290  11.955  10.177 -0.0792 -0.2708 -0.1443
35810W        W78801   3.863  29.462   1.001 -0.2256  0.2130 -0.1594
35811W        W78802  29.390  21.777   0.676  0.1219  0.0363  0.2446
35812W        W78803  27.209  24.075  14.572 -0.0908 -0.1763  0.2489
35813W        W78804  12.837  18.909   3.831 -0.0288 -0.1542  0.3457
35814W        W78805  27.439  28.707   6.382 -0.1194 -0.0729 -0.4064
35815W        W78806  28.823  22.324   7.959  0.2750 -0.1187 -0.2974
35816W        W78807  34.092   2.791   8.416 -0.0184 -0.0763  0.1549
35817W        W78808  16.408  29.645   0.079 -0.0577 -0.2506  0.4957
35818W        W78809   3.097  15.210  26.208  0.2051  0.0643  0.1233
35819W        W78810  24.836  10.061   3.039  0.1232  0.0801  0.2694
35820W        W78811  32.946  18.425   9.962  0.2825  0.4135 -0.3987
35821W        W78812   9.018   7.375  25.270 -0.2196 -0.1187 -0.1335
35822W        W78813  20.289  24.346   9.359 -0.1667 -0.1292 -0.1371
35823W        W78814  28.359  26.342   6.190  0.2661  0.1794 -0.2672
35824W        W78815  32.304  29.926   0.471 -0.2020 -0.0608  0.0568
35825W        W78816  27.067  24.588   6.201 -0.0582  0.1892  0.0101
35826W        W78817  26.493  24.089   7.494 -0.2709 -0.1535  0.2509
35827W        W78818  17.251  21.254   7.131  0.2017 -0.0995 -0.2349
35828W        W78819   0.271  20.941   6.482 -0.3013 -0.0419 -0.1227
35829W        W78820  29.015   7.645   6.303 -0.2773 -0.2089 -0.0515
35830W        W78821   5.306  18.866   3.242  0.0117 -0.1552 -0.1717
35831W        W78822  33.204  11.965  29.176  0.2165 -0.1647 -0.1080
35832W        W78823  31.503   5.924   4.978  0.1616  0.1061  0.1773
35833W        W78824  25.848  23.214   7.209 -0.0281 -0.0761 -0.0289
35834W        W78825  16.083  14.783  28.721  0.0199 -0.5116 -0.1605
35835W        W78826   7.875   6.006   0.955  0.1912  0.1187  0.3069
35836W        W78827  24.877   7.023  15.023  0.0564 -0.1623 -0.2709
35837W        W78828  23.082  11.963   7.674 -0.0306 -0.0278 -0.0982
35838W        W78829  24.209  13.535   5.513 -0.3521 -0.1571  0.1072
35839W        W78830  14.033   5.434   8.991  0.1239 -0.0333 -0.0582
35840W        W78831  20.864   9.780   5.824 -0.3810 -0.0692  0.0653
35841W        W78832   5.481  29.741   2.661 -0.1150 -0.0097 -0.0336
35842W        W78833  32.404  20.878  27.226  0.1660 -0.3224 -0.0155
35843W        W78834  15.757  22.001  29.224 -0.0280  0.1502 -0.4794
35844W        W78835  26.235   6.593  21.820 -0.0913 -0.1193  0.1019
35845W        W78836   3.128  27.270   1.085 -0.2533  0.0998  0.0590
35846W        W78837  23.445   7.514  19.674 -0.0579 -0.1662 -0.1539
35847W        W78838  20.390  15.770   2.201 -0.2792 -0.2721 -0.0194
35848W        W78839  20.284  26.559  22.114  0.2337 -0.2439  0.0465
35849W        W78840   9.088  29.926   7.568 -0.1732 -0.1142  0.2948
35850W        W78841   4.197  18.869  27.685 -0.0005  0.0771 -0.0792
35851W        W78842   3.043  12.445  26.525 -0.1795 -0.1358 -0.4654
35852W        W78843  19.148  16.255   6.643  0.1928  0.1636 -0.1815
35853W        W78844  29.676  25.378   8.754 -0.1759  0.3973 -0.2810
35854W        W78845   1.147  31.539   3.527  0.1618  0.1132  0.0656
35855W        W78846  22.979  21.674   0.506  0.2280  0.2335  0.0563
35856W        W78847  21.035  15.680   2.774 -0.0407 -0.2213 -0.1042
35857W        W78848   0.477  20.157  26.914 -0.2538  0.1069  0.2815
35858W        W78849  10.912  22.449   6.956 -0.0584 -0.2513 -0.1014
35859W        W78850  32.058  27.621   6.264 -0.0828  0.1735 -0.0919
35860W        W78851  28.541  12.576   0.149  0.1455 -0.0313 -0.2473
35861W        W78852  28.061  25.172   8.318 -0.0156 -0.3062  0.2629
35862W        W78853   2.384  26.025  26.284 -0.0830  0.1334  0.2446
35863W        W78854  30.551  14.127  21.986 -0.2866 -0.2206  0.1278
35864W        W78855  12.316  15.935   0.217  0.0353 -0.0422 -0.4417
35865W        W78856  27.795  18.182   9.922 -0.3350  0.2284 -0.2357
35866W        W78857  22.627  30.711   0.162  0.1885  0.2261  0.0882
35867W        W78858   8.024   1.793  22.842 -0.0722  0.0743 -0.0027
35868W        W78859   1.690   9.397   7.754 -0.2298  0.4004 -0.1500
35869W        W78860  20.201  22.994  26.851  0.0399 -0.1958  0.0727
35870W        W78861  20.152  14.427  27.268 -0.2859 -0.1322 -0.0985
35871W        W78862  28.261  15.739  26.535  0.2252  0.3199  0.1748
35872W        W78863  24.308  12.391   9.325 -0.1550  0.1431 -0.1310
35873W        W78864  29.326  27.238   6.315  0.2869  0.0961 -0.0446
35874W        W78865  11.104  25.875   2.337 -0.0560  0.0980  0.2666
35875W        W78866  25.308  19.136   2.052  0.0384  0.0340  0.1036
35876W        W78867   9.219   1.070  26.646  0.1975  0.2098  0.1041
35877W        W78868  33.422  11.619   3.232  0.1573 -0.2713 -0.1119
35878W        W78869  30.925  29.279   0.186 -0.0022  0.1239  0.1074
35879W        W78870  30.978  19.123  24.487  0.2557 -0.1325  0.2811
35880W        W78871  23.227  23.273  21.161 -0.0492  0.1925  0.3235
35881W        W78872   5.148  18.942   5.404 -0.0151  0.0326  0.0309
35882W        W78873   1.186  17.324   4.225 -0.0455  0.0888  0.0093
35883W        W78874   9.029  23.097   0.339 -0.1269 -0.1561  0.1167
35884W        W78875  26.574  33.038   3.503  0.0626  0.1615  0.0151
35885W        W78876  24.678  19.129   3.880  0.0522  0.0998  0.1315
35886W        W78877   0.866  12.831  10.924 -0.1685  0.0626  0.0921
35887W        W78878  19.818  16.232   5.401  0.0057  0.2208  0.0350
35888W        W78879  26.600  16.896   3.636  0.0966  0.0029 -0.1340
35889W        W78880  23.938  25.894   0.410  0.2033 -0.4232 -0.0916
35890W        W78881  24.365   4.318   8.244  0.0797 -0.0878 -0.3217
35891W        W78882  30.609  14.083   1.039  0.0882  0.1590  0.2319
35892W        W78883  10.632   4.987   6.661 -0.2036  0.0822  0.2339
35893W        W78884  27.224  17.761   4.743 -0.1190 -0.1227 -0.0394
35894W        W78885  29.691  20.787   6.291  0.1521 -0.1014 -0.1081
35895W        W78886  28.135  21.398  16.478  0.0620 -0.0494 -0.0040
35896W        W78887  27.594  11.996  10.490  0.0666 -0.0353  0.0792
35897W        W78888   8.575  24.362   5.786 -0.1543 -0.2480 -0.0553
35898W        W78889  32.412  27.978   3.478  0.2144  0.1564 -0.2519
35899W        W78890   1.657  21.982   4.659  0.3938  0.1062 -0.1395
35900W        W78891  28.674  10.777   3.439 -0.1335 -0.1778  0.1048
35901W        W78892  22.610  18.325   8.433  0.0870 -0.1282 -0.0225
35902W        W78893  30.094   0.862   0.717  0.1531  0.1188 -0.1459
35903W        W78894   0.624   0.469  15.439  0.1096  0.1644 -0.1710
35904W        W78895  26.358  13.408  26.761 -0.2919 -0.2639  0.0234
35905W        W78896  33.247  23.776  10.526  0.0330  0.0277  0.0738
35906W        W78897   1.927  15.149  28.520 -0.2154  0.0668  0.0083
35907W        W78898  10.964   6.768   7.248  0.0173 -0.1973 -0.0992
35908W        W78899   4.516   3.741   6.232 -0.0973  0.2017  0.0199
35909W        W78900  21.909  17.802   4.787 -0.1429  0.0352 -0.1365
35910W        W78901   2.532  21.958  26.455 -0.2914 -0.2166  0.1536
35911W        W78902  26.567  12.474  28.976  0.1747  0.0648  0.2356
35912W        W78903  32.824   9.268   5.595 -0.0454  0.2228 -0.3105
35913W        W78904  23.896   7.306   2.022 -0.3841 -0.0730 -0.2008
35914W        W78905  25.016  34.029   4.610 -0.1550  0.1009  0.0572
35915W        W78906   7.879  16.805  17.587  0.1916  0.0676  0.1073
35916W        W78907   0.450  22.607   0.624 -0.0269 -0.0960  0.1262
35917W        W78908  22.021  34.688   5.380  0.1678 -0.1104  0.1910
35918W        W78909   5.477  32.563   2.596  0.0887  0.2773  0.0049
35919W        W78910  30.027  20.870   7.908  0.0600 -0.1167  0.0634
35920W        W78911  24.709  13.858   6.228  0.1906 -0.0101 -0.0746
35921W        W78912  15.565  22.501   9.013 -0.0480  0.1550  0.1345
35922W        W78913  27.431  17.545  20.276 -0.3955  0.0558 -0.1123
35923W        W78914  20.500   8.041   3.294  0.0311  0.0572  0.1012
35924W        W78915  25.621  17.392   3.499  0.1146 -0.0519  0.4415
35925W        W78916  21.695  16.256   3.046  0.0659  0.2229 -0.1439
35926W        W78917  27.327   3.516  18.557 -0.0839 -0.0677  0.0985
35927W        W78918   0.872   9.631  22.080  0.0558  0.1415  0.0074
35928W        W78919  25.956  15.661   3.486 -0.0417 -0.0530 -0.0831
35929W        W78920  16.099   4.028  21.340  0.1104 -0.1388 -0.1853
35930W        W78921   9.502  22.986   0.564  0.1513 -0.0026  0.0576
35931W        W78922  29.313  17.070  20.663 -0.3696 -0.2740 -0.2918
35932W        W78923  18.236  19.321   2.587 -0.3356 -0.1120  0.0959
35933W        W78924  28.919  29.711   1.577 -0.2709 -0.3383  0.2075
35934W        W78925  25.091  31.161  26.532  0.2675 -0.1480  0.2985
35935W        W78926  28.281  28.562   5.326  0.0731  0.1520  0.1539
35936W        W78927  34.072  11.836  28.603 -0.4105  0.0987 -0.1323
35937W        W78928  31.395   5.824   3.458 -0.1907  0.2218  0.0161
35938W        W78929   4.844   9.163  27.433  0.0920  0.1449  0.0521
35939W        W78930   8.265  15.257  10.160 -0.0694 -0.0769  0.1544
35940W        W78931  31.484  13.384  25.388  0.0704  0.0519  0.2792
35941W        W78932  26.573  33.526   8.305  0.1527 -0.1920  0.0005
35942W        W78933  12.508  29.411   9.393 -0.0122 -0.3219  0.2880
35943W        W78934  24.544  22.528   4.464 -0.1415  0.0116  0.0645
35944W        W78935  31.960  11.500   6.831  0.1331 -0.2189  0.0922
35945W        W78936  25.452  26.556  25.234 -0.0334 -0.1886 -0.0676
35946W        W78937  26.197  16.477   0.286 -0.0869 -0.4008 -0.3208
35947W        W78938  12.064  12.622  27.485  0.2286 -0.1653  0.1534
35948W        W78939  32.453   9.369   6.450 -0.1893  0.3536 -0.2028
35949W        W78940  13.457  15.138   0.631 -0.0944  0.0689 -0.2949
35950W        W78941   3.207  12.422  10.988  0.1066  0.3397  0.1924
35951W        W78942   2.342  28.031  22.498  0.3638  0.2300  0.0061
35952W        W78943  34.363   0.869  15.216 -0.1245 -0.0087 -0.1605
35953W        W78944  32.791  33.134   2.795 -0.1502 -0.1617 -0.0001
35954W        W78945  11.744  20.080  17.415 -0.0402 -0.1519 -0.0078
35955W        W78946  33.988   9.761   5.567 -0.0813  0.1641 -0.1990
35956W        W78947  23.085  24.633   5.170  0.0072 -0.0313 -0.0210
35957W        W78948  24.019  20.590   6.049  0.0333  0.2307 -0.1802
35958W        W78949  29.262  24.812   0.394  0.3072 -0.3792 -0.1142
35959W        W78950  24.672  29.852  28.419  0.1170  0.3029 -0.0541
35960W        W78951  32.163  17.299   4.056 -0.2659  0.0506  0.0739
35961W        W78952   6.007  16.850   4.125 -0.1227  0.2578 -0.0549
35962W        W78953  14.281  26.715  25.497  0.1647  0.0768  0.4849
35963W        W78954  16.543  23.255   2.102  0.0068  0.0691 -0.1828
35964W        W78955   4.760  15.202  24.648 -0.0456  0.0385  0.0871
35965W        W78956  33.384  21.608   0.065  0.0349 -0.0480  0.1917
35966W        W78957  24.702  10.042   0.406 -0.1727  0.0997  0.3127
35967W        W78958   0.893   3.225   3.747  0.0418  0.3624 -0.0458
35968W        W78959   3.884  17.351   0.409  0.0714  0.1239 -0.1231
35969W        W78960  14.738  18.880   6.916 -0.1842 -0.0259 -0.0874
35970W        W78961   1.050  17.779   3.277 -0.0111 -0.0655 -0.1513
35971W        W78962  25.146  31.455   7.488  0.0948  0.2547 -0.1135
35972W        W78963  31.911   0.248  15.788 -0.0969  0.0410 -0.0690
35973W        W78964  33.297  17.759   6.431 -0.2412  0.0298  0.2628
35974W        W78965  34.382  33.558  28.424  0.1440  0.2204  0.0976
35975W        W78966  15.962  27.010   8.531 -0.6249 -0.2800  0.1512
35976W        W78967   6.717   8.259   6.696  0.1582 -0.0461 -0.3573
35977W        W78968  20.251  15.547   4.355  0.1040 -0.1487  0.0603
35978W        W78969  15.300  31.666   8.204 -0.2085  0.0467  0.2807
35979W        W78970  21.675  18.645  23.145  0.0419  0.1154  0.1090
35980W        W78971  26.005  13.754   5.956 -0.2685  0.0497  0.1275
35981W        W78972  12.276  25.682  23.974  0.0686 -0.3198 -0.0487
35982W        W78973   4.769  19.642   7.627  0.1795 -0.1210 -0.0150
35983W        W78974   6.081  12.600   6.616 -0.0554 -0.1852 -0.2783
35984W        W78975  21.495  14.364   9.821  0.2421  0.2773  0.2766
35985W        W78976  17.090  19.418   7.717  0.0975  0.2425 -0.0138
35986W        W78977  30.945  11.859   3.742 -0.2497 -0.1452 -0.1423
35987W        W78978  27.642  21.704  10.344  0.0392  0.2742  0.0236
35988W        W78979  31.368  22.892  15.840 -0.0558 -0.3751 -0.0902
35989W        W78980  18.323  19.699  25.213  0.2164  0.0219 -0.1532
35990W        W78981  16.337  18.576   4.448  0.0449 -0.2752 -0.0366
35991W        W78982   6.494  23.006   0.372 -0.0533  0.2692  0.2103
35992W        W78983  20.700  19.456   1.161  0.0210  0.1191 -0.0081
35993W        W78984  26.666  18.469   5.265 -0.1379  0.0768  0.0724
35994W        W78985  21.490   9.735   1.842  0.1469  0.1815 -0.0421
35995W        W78986  25.956  11.945   9.174 -0.0509  0.2769  0.1332
35996W        W78987  34.401  12.650  21.856  0.0770 -0.0580  0.1269
35997W        W78988  14.031   1.176   8.719 -0.0819  0.1529 -0.1209
35998W        W78989   6.304  34.039  21.549 -0.1649  0.1125  0.0651
35999W        W78990  22.875  28.412   9.066 -0.1169  0.0266 -0.0184
36000W        W78991  28.199  27.130   6.544 -0.3109 -0.2428 -0.0233
36001W        W78992  25.772  20.447   6.000 -0.2329  0.0721  0.0452
36002W        W78993  15.969  19.935   1.232 -0.1454 -0.1664  0.0394
36003W        W78994  12.354  25.236   0.661 -0.3615 -0.0939 -0.3173
36004W        W78995  29.351   8.980   4.310 -0.2413  0.2647  0.2071
36005W        W78996  30.929   8.163  28.480  0.0288 -0.1580 -0.1840
36006W        W78997  12.716  26.362   2.394 -0.0788  0.1007 -0.2027
36007W        W78998  23.251  16.572   5.798  0.1770 -0.2291  0.0073
36008W        W78999  19.616  19.067   0.679 -0.0870 -0.1124  0.0210
36009W        W79000  30.906   9.024   4.648  0.1721 -0.1114 -0.0797
36010W        W79001  23.533  12.120  21.374 -0.2683  0.4317 -0.0274
36011W        W79002  18.857  22.054   1.357  0.2878  0.0782  0.0404
36012W        W79003  11.663  27.857   3.572 -0.0403  0.0548  0.2719
36013W        W79004  12.856  25.806   5.089 -0.0752 -0.2996  0.2007
36014W        W79005   5.704  28.812   3.777 -0.0040 -0.0540 -0.2956
36015W        W79006  18.965  24.565   6.175 -0.2162 -0.0805  0.0168
36016W        W79007  31.854  33.345   1.971 -0.0877 -0.0372 -0.0926
36017W        W79008   2.622  27.006   6.828 -0.1637 -0.0067  0.0173
36018W        W79009  14.847  32.979  28.371 -0.1090  0.2236  0.2891
36019W        W79010   4.388  15.429   3.969 -0.0880  0.1178 -0.1908
36020W        W79011   8.504  11.466   8.943 -0.2768  0.0456  0.0700
36021W        W79012  17.601  23.501  21.996  0.0120 -0.1133 -0.1059
36022W        W79013  34.214  14.367   3.703 -0.0474  0.4457 -0.0847
36023W        W79014   6.645  17.426   6.682  0.0207  0.1698  0.3598
36024W        W79015   7.401  19.915   5.327 -0.0004 -0.1316 -0.2394
36025W        W79016  10.855  15.778   1.681  0.2641  0.0658 -0.2930
36026W        W79017  21.472  16.994  15.943 -0.1145  0.0885  0.0234
36027W        W79018   3.069  16.018   2.457 -0.0956 -0.1443  0.0283
36028W        W79019  31.612  22.388   2.145  0.1410  0.1968 -0.0177
36029W        W79020  28.874  19.200  10.556  0.0143  0.4433  0.1969
36030W        W79021  29.028  14.863   6.393 -0.1925  0.1562  0.3046
36031W        W79022  16.104   7.556   2.174 -0.1365 -0.0158 -0.2619
36032W        W79023  33.669  28.316  22.315 -0.0707  0.3023 -0.5310
36033W        W79024  29.503  18.573   8.937 -0.0819 -0.1285 -0.2890
36034W        W79025  23.238  14.194   0.645  0.0146 -0.0061 -0.3123
36035W        W79026  20.850  19.612  19.476  0.2574 -0.0237 -0.1529
36036W        W79027  25.042  29.347   9.300  0.0077  0.2321 -0.1752
36037W        W79028  21.661  22.688   1.426 -0.1519 -0.5496  0.1641
36038W        W79029  27.975  23.528   0.317 -0.0812  0.1609  0.0294
36039W        W79030   1.040  10.085   4.611 -0.2922 -0.0391 -0.2043
36040W        W79031  12.499  13.611   5.270  0.1149 -0.0034  0.0926
36041W        W79032  16.958  17.981   4.408 -0.0407 -0.1179 -0.1681
36042W        W79033  13.964  14.112   3.118  0.0342  0.1769  0.1448
36043W        W79034  27.278  33.096   6.216  0.1355 -0.0389 -0.1692
36044W        W79035   9.139  17.104   6.791 -0.3006 -0.5523  0.0657
36045W        W79036  30.629  30.199  29.181  0.2259  0.0292  0.0717
36046W        W79037  30.451   9.179  27.123  0.0547 -0.1226  0.1595
36047W        W79038  17.795  23.001  26.445  0.0722 -0.2095  0.0376
36048W        W79039  11.566  24.333  20.260 -0.1176 -0.2410  0.1682
36049W        W79040  20.972  21.781  22.942 -0.0012  0.0421  0.2776
36050W        W79041  23.202  25.122   8.333  0.0354  0.0465  0.0612
36051W        W79042  34.038   8.844  27.860  0.0960  0.0712 -0.2341
36052W        W79043  24.695  21.771  21.182 -0.1129 -0.1015  0.2534
36053W        W79044  15.495  21.979   5.343 -0.0042 -0.2055 -0.0975
36054W        W79045  32.239   7.169   6.844 -0.1613 -0.1354  0.1314
36055W        W79046  23.570  21.141  28.303  0.0849  0.3074  0.2381
36056W        W79047  32.496   1.786  19.821  0.0598  0.0154 -0.1073
36057W        W79048  31.379  16.471   6.409  0.2423 -0.0044 -0.0008
36058W        W79049   8.654  22.323  23.879 -0.3334 -0.1973 -0.3010
36059W        W79050  17.899  25.207  28.668  0.0187 -0.0023  0.0758
36060W        W79051  34.551   9.291   1.977 -0.0757  0.0942  0.1806
36061W        W79052  17.656  11.941   0.926  0.0866 -0.0998  0.3323
36062W        W79053  21.881  24.469   8.612  0.1749  0.3297  0.1849
36063W        W79054  12.648  16.168   9.023 -0.1185  0.1271 -0.2482
36064W        W79055   1.766  20.273   6.406 -0.2812  0.1568  0.3033
36065W        W79056  30.600  25.759   5.286 -0.0538  0.2786  0.2077
36066W        W79057  31.449  17.362   7.407  0.0648 -0.2679 -0.1308
36067W        W79058  27.639  17.837   3.070 -0.0303  0.0090  0.0026
36068W        W79059  10.565  28.234  27.451  0.1420  0.0172 -0.1204
36069W        W79060   6.928   2.436  10.793 -0.2254 -0.1067  0.1991
36070W        W79061  22.141  22.539   5.183 -0.0805 -0.2505 -0.2358
36071W        W79062  32.530  24.030   1.423  0.1744 -0.2831  0.0498
36072W        W79063  20.280  17.340   6.587  0.0159  0.1093  0.0061
36073W        W79064  19.752  12.549   8.595  0.3061 -0.1878  0.1277
36074W        W79065  24.426   6.593  28.241  0.0989  0.0109  0.0928
36075W        W79066   0.787  29.638   7.525 -0.1367 -0.1182  0.4525
36076W        W79067  13.495  24.793   1.750 -0.3693 -0.4136  0.0001
36077W        W79068  20.763  16.057   5.185 -0.0496  0.1219 -0.3210
36078W        W79069  10.227  15.351   9.052 -0.5211  0.0449  0.0505
36079W        W79070   1.273  19.241   9.551 -0.1146  0.1401 -0.1026
36080W        W79071  25.193  26.387   5.864  0.3038  0.2514  0.0740
36081W        W79072  27.906  25.654   7.119 -0.2321 -0.4952  0.3203
36082W        W79073  20.746  15.648   8.088  0.0677 -0.1495  0.0786
36083W        W79074  19.616  12.311   1.614 -0.0211 -0.0600  0.1192
36084W        W79075  23.518  27.602   2.707 -0.0657  0.0478 -0.0135
36085W        W79076  31.316  28.597  28.703  0.0718 -0.1950  0.2504
36086W        W79077  29.354  15.953  15.791 -0.2952  0.3947  0.1792
36087W        W79078   0.815  29.266   3.395 -0.0970  0.3353 -0.2562
36088W        W79079  20.041  24.074   0.224 -0.1218  0.4883  0.2812
36089W        W79080  33.604  18.918   2.517  0.0087  0.0583  0.0161
36090W        W79081   1.632  22.861  29.137  0.0138  0.1239  0.0899
36091W        W79082   1.660  18.295   7.568  0.1902 -0.1269 -0.0774
36092W        W79083  22.640  19.127   6.113  0.0280 -0.2768  0.0109
36093W        W79084  19.799   0.822   9.115  0.1327 -0.2087 -0.0115
36094W        W79085  27.682   3.347   6.521  0.0825 -0.3360 -0.1576
36095W        W79086  17.052  27.018  23.499 -0.0482 -0.3560  0.0514
36096W        W79087  23.381  27.149  24.621  0.0581  0.2339  0.1024
36097W        W79088   9.511   7.875   5.790 -0.1237 -0.0226  0.3084
36098W        W79089  24.175   5.682   7.824  0.2714  0.2147 -0.1887
36099W        W79090   6.178  19.667   9.332 -0.0901 -0.1408  0.1629
36100W        W79091   9.669  13.536   0.218 -0.3650  0.1649 -0.0462
36101W        W79092  34.345   4.511   7.289  0.0098 -0.1080  0.1227
36102W        W79093  15.898  25.071   5.158 -0.1151  0.3054 -0.0630
36103W        W79094  27.319  15.089   5.787 -0.1850  0.0938  0.0002
36104W        W79095   5.837  18.689   8.224 -0.0496  0.3500  0.0636
36105W        W79096  12.801   7.676   6.454 -0.0485 -0.2299  0.1446
36106W        W79097  34.000  17.785   1.712  0.0652  0.0846  0.4342
36107W        W79098  26.630  16.872   8.223  0.1709 -0.3059  0.1927
36108W        W79099   6.642   6.118   5.977  0.1680  0.3136 -0.0165
36109W        W79100  17.983  14.655  25.182  0.2821 -0.1299  0.1700
36110W        W79101   4.801  16.558   8.353 -0.0519 -0.0468 -0.1186
36111W        W79102  22.171   8.059   4.234  0.0021  0.0714 -0.0302
36112W        W79103  22.569   7.309  25.614  0.1394  0.2050 -0.0930
36113W        W79104  34.210   6.556  10.246  0.3062  0.1276  0.1609
36114W        W79105   0.489  18.686   1.625  0.1311 -0.0385 -0.0515
36115W        W79106   2.786  27.157   9.534 -0.1251  0.0739  0.1235
36116W        W79107  22.713   0.043   8.354  0.1764  0.1742  0.1967
36117W        W79108   6.886  17.741   8.508  0.2161  0.0901 -0.6733
36118W        W79109   2.464  23.571   1.254 -0.1009 -0.2798  0.0279
36119W        W79110   2.047  16.559  22.074 -0.1606 -0.2423 -0.0002
36120W        W79111  25.857  22.692  22.558 -0.2925  0.0948  0.1746
36121W        W79112  25.841  27.477   7.775  0.0406 -0.0249  0.1568
36122W        W79113  19.088  17.396   2.254 -0.0089 -0.0505  0.4722
36123W        W79114   1.865  23.803  10.015 -0.1137 -0.1948 -0.2082
36124W        W79115   3.838  15.419   0.247 -0.0530 -0.0666  0.1451
36125W        W79116   4.533  21.758   7.964  0.1489  0.0768  0.2802
36126W        W79117  28.037  17.944   8.225 -0.0857  0.0600 -0.0304
36127W        W79118   7.256  21.710  24.053 -0.2113  0.0993 -0.2678
36128W        W79119  16.824  26.714  15.708  0.2432 -0.1287 -0.2524
36129W        W79120  22.484  21.620   5.539  0.0170  0.1066 -0.0445
36130W        W79121  30.611  18.268  28.550  0.0812 -0.1811  0.2477
36131W        W79122  34.333   1.237   0.593 -0.1510 -0.1106  0.0410
36132W        W79123   5.047  34.224   7.272 -0.0648 -0.1421 -0.0049
36133W        W79124  27.140  14.698   1.269  0.2796  0.0438 -0.3185
36134W        W79125  27.311  17.405  28.891  0.0451 -0.3264  0.3514
36135W        W79126  34.179  15.078   8.452  0.1284  0.3027  0.0988
36136W        W79127  13.796  14.711  28.632 -0.1109  0.0220 -0.1413
36137W        W79128  28.373  27.787  23.928  0.0048 -0.1176 -0.0926
36138W        W79129  18.606  19.107  28.681  0.1440 -0.0134 -0.1942
36139W        W79130  28.205  13.698   6.125 -0.0441 -0.0935  0.0709
36140W        W79131  32.828  19.466   8.291 -0.2106  0.0510  0.0747
36141W        W79132  22.659   9.237   1.554 -0.0341  0.2737 -0.1486
36142W        W79133  27.720  12.338   8.924  0.2584 -0.0452 -0.0783
36143W        W79134  27.178  11.585  23.631  0.5503  0.3019  0.0462
36144W        W79135   3.105  29.284  27.487 -0.1586  0.3286 -0.0284
36145W        W79136  26.971  23.547   1.029  0.2308  0.0721  0.0065
36146W        W79137  21.630   9.520  18.245 -0.1001 -0.0257 -0.1914
36147W        W79138  24.302   8.618   3.261  0.3044 -0.1914 -0.2273
36148W        W79139  22.816  17.663   2.430  0.0547 -0.5528 -0.0624
36149W        W79140   4.987  22.187   0.417  0.2167  0.1920  0.1778
36150W        W79141  16.140  32.184   6.743 -0.1084  0.0181  0.2416
36151W        W79142  23.319  19.208   1.156  0.0278 -0.1163 -0.1381
36152W        W79143   6.589  22.078   7.981  0.1021 -0.2328  0.2267
36153W        W79144  25.710  13.267   3.915  0.1567 -0.0592  0.1197
36154W        W79145  24.341  15.996   4.238 -0.2745 -0.0556 -0.1148
36155W        W79146  32.264  21.378   1.448  0.3907  0.2888 -0.2369
36156W        W79147  30.889  24.155  26.133  0.3906 -0.0803  0.3725
36157W        W79148  32.627  15.774   5.350 -0.1452  0.1115 -0.0017
36158W        W79149  16.999  16.476   3.622  0.2023 -0.1085 -0.0818
36159W        W79150   9.696  18.315   6.772 -0.1057  0.0994 -0.0170
36160W        W79151  20.924  28.294   8.733 -0.0788 -0.0345  0.1708
36161W        W79152  17.986  14.156   7.594  0.0832  0.4243 -0.0901
36162W        W79153   5.431  17.070  28.662 -0.2794 -0.0498 -0.0438
36163W        W79154  27.996  13.815   5.674 -0.0489  0.1832  0.2214
36164W        W79155  33.410  26.374   0.767  0.0874  0.0106  0.0400
36165W        W79156  12.835  25.878   9.096 -0.1823  0.5171  0.1462
36166W        W79157  29.798  26.807  27.822  0.0904 -0.0012 -0.1204
36167W        W79158   0.106  14.716  23.878  0.0657  0.2602 -0.2999
36168W        W79159  14.820  17.239   0.417  0.0382  0.4376  0.1049
36169W        W79160  32.758  14.383  24.711 -0.1873  0.1115 -0.0411
36170W        W79161  27.815  18.201  23.395  0.1229  0.1525 -0.0528
36171W        W79162   3.283   1.748   2.175 -0.3044 -0.0991  0.0471
36172W        W79163  22.967  15.753   3.456  0.0867  0.1620  0.0071
36173W        W79164  15.679  21.935   7.754 -0.2867 -0.1647 -0.4711
36174W        W79165   2.971  33.429   1.490 -0.0554 -0.0310 -0.0167
36175W        W79166   2.427  30.372   6.239  0.1670 -0.0366  0.0822
36176W        W79167   2.030  16.445  11.973 -0.2890  0.0092 -0.1313
36177W        W79168  34.777  28.365  14.359  0.1485 -0.0542 -0.1371
36178W        W79169   0.629   8.385   7.867 -0.2061 -0.2309  0.1048
36179W        W79170  26.954   7.912   0.084  0.0151 -0.1149 -0.2700
36180W        W79171   4.017  14.657  11.275  0.1825  0.1994 -0.1951
36181W        W79172  29.418   5.141   5.719 -0.1247  0.0686 -0.0100
36182W        W79173  14.340  17.493  24.929  0.0703  0.1436 -0.1713
36183W        W79174   7.882   8.755   7.369  0.2305 -0.2016  0.1935
36184W        W79175   7.139  27.148   6.413  0.2409 -0.0278  0.0346
36185W        W79176  21.438  15.796  14.690  0.0473 -0.0327 -0.0532
36186W        W79177  23.386   4.796   3.878 -0.2077  0.0418 -0.1410
36187W        W79178  10.451  10.380   0.744  0.0748  0.2276 -0.0379
36188W        W79179   1.122  14.262   3.686 -0.0511  0.1020 -0.0980
36189W        W79180  22.736  29.157   5.324 -0.1558  0.0774  0.0802
36190W        W79181  33.429   7.759   7.543 -0.1623  0.2679  0.1298
36191W        W79182   3.458  18.650   3.733 -0.2170  0.2796 -0.0426
36192W        W79183  17.225  24.543   3.228 -0.1500  0.1105 -0.0412
36193W        W79184  33.790  32.759   6.339 -0.0977 -0.1356 -0.0831
36194W        W79185  28.482   5.242  18.781 -0.3400 -0.0553 -0.1010
36195W        W79186  20.737   6.402   9.816 -0.0715  0.2259 -0.0548
36196W        W79187  23.857   6.872   9.874 -0.0548 -0.0865  0.1769
36197W        W79188  12.142  15.443  29.214 -0.3043 -0.1701 -0.1405
36198W        W79189  30.014  19.524   0.368 -0.0214  0.0555 -0.0236
36199W        W79190  31.113   5.120   9.577 -0.1155 -0.0995  0.1619
36200W        W79191  17.018  33.048   4.798 -0.1819 -0.1882  0.0589
36201W        W79192   6.806  18.676   6.321 -0.0825 -0.0777 -0.2357
36202W        W79193  32.263  21.723   2.064  0.1379 -0.0801  0.0524
36203W        W79194  25.514  22.724   6.366 -0.2420 -0.2945 -0.1090
36204W        W79195  25.092   3.405   6.728 -0.4065  0.1835 -0.2715
36205W        W79196  18.709  20.633   3.661  0.4467  0.3123 -0.3055
36206W        W79197  28.073  20.852  26.590  0.1553  0.2528 -0.0199
36207W        W79198  33.141  23.731   5.504 -0.1108  0.0095  0.0545
36208W        W79199  22.474   4.438   5.769 -0.0297 -0.0735  0.0667
36209W        W79200  31.814  14.938   4.622  0.0599  0.3491 -0.2498
36210W        W79201   7.203  24.378   2.111  0.1504  0.2002 -0.3439
36211W        W79202  29.845  20.192   9.486 -0.2852 -0.0330 -0.1224
36212W        W79203  24.012  15.293  28.668  0.1533  0.2056 -0.0097
36213W        W79204  23.883  18.679   4.873 -0.0714 -0.0246 -0.0995
36214W        W79205  31.215  12.235  25.568 -0.1663  0.3559  0.1750
36215W        W79206  34.632  26.053  27.327  0.2548 -0.1872  0.1180
36216W        W79207   1.301  22.026  24.857  0.0147 -0.0542  0.0652
36217W        W79208  29.328  20.817   4.307  0.2063 -0.2508  0.1186
36218W        W79209   6.440  13.454  18.245  0.1038  0.3020 -0.4219
36219W        W79210  31.499   4.783  28.676  0.3147  0.1027  0.2740
36220W        W79211  15.257  17.054   2.131  0.1826  0.1028  0.0769
36221W        W79212  31.160  20.140   7.631 -0.0077 -0.2310  0.1670
36222W        W79213  32.943  32.447   4.844 -0.1187  0.0136  0.0520
36223W        W79214  31.614  22.535  28.180 -0.1687  0.2489 -0.3738
36224W        W79215  26.728  17.748  18.165 -0.0273  0.0633  0.3042
36225W        W79216  28.636  24.539   5.374 -0.0027 -0.0969  0.0041
36226W        W79217  25.654  17.287   9.575 -0.0232  0.3452 -0.3121
36227W        W79218  33.255  31.324   4.580  0.1470  0.0899  0.0546
36228W        W79219  34.419  11.755   0.855 -0.1907 -0.0444  0.2728
36229W        W79220  29.592  19.051   3.757 -0.0759  0.0849  0.1451
36230W        W79221  25.912   4.909  25.449 -0.2285 -0.2542  0.1901
36231W        W79222  20.070  27.270   8.907 -0.1833  0.1479 -0.4543
36232W        W79223  27.826  20.516   0.905 -0.0990 -0.0826  0.0798
36233W        W79224  30.795  14.958  29.104 -0.4346 -0.0353 -0.2016
36234W        W79225  20.313  21.656  20.497  0.2036  0.0049 -0.1496
36235W        W79226  29.587  11.547   3.644 -0.2041 -0.1654  0.2117
36236W        W79227  10.142  27.823  28.765  0.0525  0.2658  0.2301
36237W        W79228   1.431  27.021   2.621 -0.2544  0.1081 -0.2852
36238W        W79229   2.608  21.966   9.101 -0.1289 -0.0240 -0.1603
36239W        W79230  32.829  24.016   7.541  0.0714  0.3288  0.1483
36240W        W79231  34.312  32.641   1.027  0.0954 -0.3241 -0.0146
36241W        W79232  28.486  27.443   0.856 -0.1786  0.2889 -0.2443
36242W        W79233  27.553  16.409  27.468  0.1125  0.0018 -0.1590
36243W        W79234  21.015  18.439  18.007 -0.3288 -0.1445 -0.0147
36244W        W79235  26.842  15.542   0.197 -0.0201  0.3428 -0.1978
36245W        W79236  33.133   2.644   3.406 -0.1785 -0.1253  0.2123
36246W        W79237  26.719  12.038   1.357  0.0078  0.3655  0.0457
36247W        W79238  28.168  11.002   8.484  0.2346  0.0883  0.2073
36248W        W79239  13.104  29.366  29.055 -0.1744  0.1321 -0.0165
36249W        W79240  24.111  18.048  21.861  0.2671 -0.3939  0.3462
36250W        W79241   4.488  16.494  22.422 -0.1428  0.0757  0.3138
36251W        W79242  31.895   9.646   5.257  0.1717 -0.0635 -0.2119
36252W        W79243  24.892  29.762  26.997  0.1411 -0.0297  0.3024
36253W        W79244  18.293  18.933   0.093  0.0429 -0.1978 -0.0002
36254W        W79245   7.800  23.439   9.483  0.1181  0.3115 -0.0125
36255W        W79246   1.036  26.397  21.389  0.0541  0.0949 -0.3161
36256W        W79247   3.434  24.099  28.616 -0.2329 -0.0091  0.1563
36257W        W79248  33.371  31.232  22.070 -0.0725  0.0450 -0.2501
36258W        W79249  25.597  24.379   8.973 -0.0138 -0.0730 -0.0539
36259W        W79250  21.424  26.619   7.794  0.2781 -0.1257 -0.1396
36260W        W79251   9.660  26.652   5.192  0.2154 -0.2619 -0.1982
36261W        W79252  28.537   2.545   7.953  0.0529 -0.0580 -0.2583
36262W        W79253  24.511  23.486   3.941 -0.4036 -0.2239 -0.1831
36263W        W79254  20.768  17.069   5.846  0.0646 -0.1093 -0.0136
36264W        W79255   8.567  28.548   6.067 -0.2524  0.2355  0.0503
36265W        W79256  32.169  13.450   6.982  0.0928 -0.1901  0.1512
36266W        W79257  28.236  13.265  22.438 -0.2810  0.1300 -0.1780
36267W        W79258  24.446  26.116   6.997  0.2228 -0.2195 -0.4579
36268W        W79259  18.794  20.475   8.662  0.2053  0.3288 -0.2635
36269W        W79260  26.462  18.764   0.728  0.1731 -0.1538  0.1995
36270W        W79261  19.639  19.258  27.375 -0.1955 -0.1137 -0.2793
36271W        W79262  26.851  17.747  26.588 -0.0444 -0.1739  0.0788
36272W        W79263  26.958  21.048   5.358 -0.1644 -0.0286 -0.6913
36273W        W79264   4.194   0.319   7.725  0.0353  0.0778  0.3587
36274W        W79265  16.233  16.754   2.321  0.0004 -0.1867  0.1606
36275W        W79266  31.430  14.176   0.281  0.1774  0.1345 -0.2251
36276W        W79267  31.975  28.286   2.576 -0.0297 -0.0181  0.1550
36277W        W79268   8.232  17.655   5.928  0.4193 -0.1867 -0.3040
36278W        W79269  23.403  21.480   6.256  0.0185  0.1560 -0.0519
36279W        W79270  20.371  29.825   8.602  0.2458  0.0201 -0.1819
36280W        W79271  26.848  14.637  26.002 -0.2659  0.1472 -0.2390
36281W        W79272  26.109  27.793   6.581 -0.0130  0.2442 -0.0333
36282W        W79273   3.325  24.427   8.702  0.1569 -0.0174 -0.0490
36283W        W79274  34.761  22.109   2.504  0.0289 -0.0218 -0.1973
36284W        W79275  34.083  18.826   5.062  0.1909 -0.0469  0.1082
36285W        W79276   9.704  24.184   4.242  0.0242 -0.0245  0.0929
36286W        W79277  26.130  20.027   3.767  0.0471  0.1360 -0.2439
36287W        W79278  26.334  25.301   3.953 -0.0436  0.3135  0.0364
36288W        W79279  30.593  10.112   8.542  0.2129 -0.0811  0.1594
36289W        W79280  33.060  28.930   5.474 -0.1759  0.0214  0.1767
36290W        W79281  18.148  14.879   4.237  0.1917  0.1685  0.1123
36291W        W79282  22.127  21.841   5.808  0.1889 -0.1578 -0.0438
36292W        W79283  30.783  20.926  10.656  0.0136 -0.1958  0.2436
36293W        W79284  27.765   5.932   4.108 -0.1548  0.3010 -0.1878
36294W        W79285   2.694  32.328   1.391 -0.1475  0.0494 -0.1066
36295W        W79286  21.354  15.997  21.711  0.0731 -0.0384 -0.1042
36296W        W79287  24.778  18.438   6.625 -0.1043 -0.0119  0.1608
36297W        W79288  23.657  15.346   5.925 -0.0386 -0.1956  0.0451
36298W        W79289  11.205  26.993  23.042  0.0681  0.1705  0.0706
36299W        W79290  34.062  33.862  23.358  0.2631 -0.1735  0.3833
36300W        W79291  16.441   3.654   3.661  0.2182 -0.1678 -0.1213
36301W        W79292   4.689  20.797  24.416 -0.1362 -0.1436 -0.2092
36302W        W79293  16.545   9.776  23.151  0.2108  0.2200  0.2244
36303W        W79294  33.289  23.762   4.440 -0.4848 -0.0054 -0.1517
36304W        W79295  24.888  18.390  18.822 -0.0412 -0.0927 -0.2591
36305W        W79296  28.206   9.621  27.292  0.3027  0.3143 -0.2059
36306W        W79297  27.864   5.011  21.521  0.2028  0.1579 -0.1850
36307W        W79298  10.643  23.250  22.811  0.1013  0.1943  0.1011
36308W        W79299  27.575  17.011   7.305  0.1131  0.2094  0.0673
36309W        W79300   2.220  16.628   5.211 -0.1257  0.0271  0.1755
36310W        W79301  23.789  21.962   2.703  0.2197 -0.0010  0.1573
36311W        W79302  18.421  13.552   1.254 -0.3448  0.2703 -0.0095
36312W        W79303  12.948  10.556   3.778  0.4363 -0.0144  0.0545
36313W        W79304   7.764  10.435   4.950 -0.0670 -0.0186  0.1977
36314W        W79305  27.771  15.862   3.170  0.1516  0.2211  0.0717
36315W        W79306  18.184   8.770  21.575  0.0105 -0.2897 -0.0900
36316W        W79307  17.702  21.226  24.325  0.2173  0.0514 -0.3018
36317W        W79308  25.676  28.208   9.263 -0.0237 -0.0328 -0.1176
36318W        W79309  28.141  22.474   4.358  0.0033 -0.0665 -0.1679
36319W        W79310  18.172   9.841  29.080 -0.1598  0.2152 -0.1375
36320W        W79311  19.481  21.555  20.280  0.1266 -0.1648  0.0444
36321W        W79312   1.229  27.980   2.517  0.0385 -0.0513 -0.0235
36322W        W79313  26.838  17.705   3.990  0.0235  0.1200 -0.2325
36323W        W79314  26.780  22.235   9.169 -0.0304 -0.0151  0.2238
36324W        W79315  30.906  13.511  10.956  0.2099  0.0701 -0.0459
36325W        W79316  11.759  26.298  27.494 -0.0904 -0.4235  0.2825
36326W        W79317   3.985   8.845   8.534 -0.1359  0.2203 -0.1547
36327W        W79318   8.417  16.232  10.243  0.0897  0.3951  0.0820
36328W        W79319  27.173  15.720   8.974  0.4352  0.2642 -0.0361
36329W        W79320  19.971   8.564   0.174  0.0186  0.0679 -0.0887
36330W        W79321   5.573  17.906  27.712 -0.1698 -0.1743  0.2181
36331W        W79322  22.941  11.689   4.135  0.2470  0.0326  0.0283
36332W        W79323  34.648  21.512   9.603 -0.0359  0.0160 -0.2573
36333W        W79324  34.487  17.413   6.031  0.1312 -0.0214  0.1317
36334W        W79325  20.364  23.134  22.806  0.0992  0.1987  0.4136
36335W        W79326   2.810  21.212  10.651  0.2242 -0.0324 -0.1984
36336W        W79327  31.743   9.201  26.582  0.1502  0.3288  0.0206
36337W        W79328  27.853  14.093   6.027 -0.2369 -0.0253  0.0908
36338W        W79329   6.731   3.351  26.080  0.0334  0.2649 -0.0889
36339W        W79330  19.636  18.511  25.348 -0.0833 -0.0540  0.4057
36340W        W79331  12.875   9.095  24.706  0.2242 -0.2018  0.0932
36341W        W79332  28.012   3.316   2.478 -0.0142 -0.2715 -0.0246
36342W        W79333   4.081  26.554   5.843 -0.1202  0.1259 -0.3576
36343W        W79334   0.117   2.179   9.127 -0.3447 -0.2082 -0.1493
36344W        W79335  28.786  33.787  18.365 -0.0208  0.0818  0.1250
36345W        W79336  22.878  13.350   4.684 -0.2437 -0.2674 -0.0222
36346W        W79337  31.387  17.348  10.104 -0.0539 -0.0501  0.2261
36347W        W79338  25.610   8.585  27.151 -0.3102  0.2710  0.1968
36348W        W79339  33.238  20.377  27.799 -0.2282 -0.1099 -0.0564
36349W        W79340   1.809  25.261  27.666 -0.0778  0.0574  0.1174
36350W        W79341  30.509  28.097   3.554  0.0804 -0.2128 -0.1278
36351W        W79342  28.726  19.537   0.476  0.0089 -0.1539 -0.1326
36352W        W79343  27.243  17.228  19.912  0.1476  0.1662 -0.0539
36353W        W79344  21.966  24.284   5.631  0.5305 -0.0030  0.0158
36354W        W79345  26.565  23.249   1.955 -0.0089 -0.0583  0.1703
36355W        W79346  34.386  28.179  28.492  0.3309 -0.0878  0.0599
36356W        W79347  33.898  28.011   2.530  0.3762 -0.2067 -0.1266
36357W        W79348  30.088  26.422   3.351 -0.3079 -0.2179 -0.0370
36358W        W79349  27.853   1.789  26.660  0.0973  0.1550  0.0899
36359W        W79350  29.327  22.698   0.471 -0.1074  0.0399 -0.0252
36360W        W79351  25.433  25.427  27.700 -0.0068  0.2049  0.1195
36361W        W79352  22.072  27.522   3.998 -0.0304  0.0029  0.0926
36362W        W79353  25.484  20.332   5.530  0.0733 -0.1066 -0.2899
36363W        W79354  30.179   3.966   5.550 -0.0705 -0.0389  0.3127
36364W        W79355   9.395  21.922   3.123 -0.3587  0.1140  0.1147
36365W        W79356  12.013   3.738  15.683 -0.0563 -0.2472  0.1656
36366W        W79357  24.836  10.304   3.648 -0.1980  0.3058  0.1079
36367W        W79358   1.862  34.379   7.282 -0.1280  0.1701 -0.2789
36368W        W79359   4.591  10.867  28.165  0.1293  0.1023 -0.0786
36369W        W79360  21.941  21.562  25.635  0.2608 -0.0611  0.3783
36370W        W79361  12.766  30.615   6.672  0.1583 -0.0053 -0.0378
36371W        W79362  21.066  23.362   7.266  0.1152 -0.3931 -0.0511
36372W        W79363  31.599  33.468  18.005 -0.1821 -0.0548 -0.2397
36373W        W79364  20.486  26.570  19.596  0.2886  0.0911  0.1257
36374W        W79365  17.779   2.692   4.217  0.1084 -0.1265 -0.2814
36375W        W79366  21.305  15.367  21.711 -0.0290  0.0739  0.2447
36376W        W79367  10.222  18.973   1.549 -0.1706 -0.0152 -0.3767
36377W        W79368   4.873  13.864  25.790  0.1121  0.1271  0.1919
36378W        W79369   4.810  24.212  26.310 -0.2180 -0.0699 -0.1525
36379W        W79370   3.401  31.198  26.625  0.1655 -0.3235  0.0368
36380W        W79371  29.462  22.187  28.900  0.0646  0.3073 -0.3737
36381W        W79372   8.307  21.012   8.937  0.1231 -0.0173  0.1434
36382W        W79373  34.645   4.534  24.291 -0.1825 -0.1770  0.0145
36383W        W79374  28.624  27.387  16.647  0.1160 -0.3427  0.1162
36384W        W79375  21.014  22.576  16.840 -0.2141  0.3264 -0.3668
36385W        W79376  14.100   6.403   2.973 -0.1536  0.0623  0.1258
36386W        W79377  31.349  17.904  10.540 -0.0710  0.0187 -0.0314
36387W        W79378   0.633  25.155   0.730 -0.0775 -0.2270  0.2498
36388W        W79379  21.084  25.353   2.318  0.1139  0.1779 -0.1386
36389W        W79380  31.668  17.177   5.770  0.2530 -0.1077  0.3173
36390W        W79381  29.520  23.100  17.616 -0.0673  0.0563 -0.0267
36391W        W79382  34.598  13.574   2.194 -0.1471 -0.0653 -0.1369
36392W        W79383  25.932  11.165   6.711 -0.1280  0.0229  0.0609
36393W        W79384  26.167  23.509   7.470  0.0562  0.2909  0.1852
36394W        W79385  18.274  34.280  24.965 -0.0389  0.0333  0.0634
36395W        W79386   9.587  10.273   7.916 -0.0759 -0.0502 -0.3836
36396W        W79387  33.774  16.599   4.667 -0.0571  0.2103  0.0069
36397W        W79388  32.962  32.490   0.722  0.0746  0.1771  0.1278
36398W        W79389  27.515  27.089  26.372 -0.1938 -0.2001 -0.1491
36399W        W79390  10.629  17.500   0.977  0.0046  0.0372 -0.1296
36400W        W79391  20.887  17.567   5.379 -0.1848 -0.2778 -0.0210
36401W        W79392   9.364  13.916  24.395 -0.0472  0.2047 -0.0929
36402W        W79393   9.846  10.120   9.420 -0.2643  0.0510 -0.0941
36403W        W79394  32.596  16.253  15.898  0.3087  0.0859 -0.1817
36404W        W79395   4.089   2.941  23.425 -0.2350  0.1099  0.0541
36405W        W79396  25.214  20.886   0.489 -0.0559  0.0517 -0.1453
36406W        W79397  28.493  31.827  28.390  0.4666  0.2366 -0.0968
36407W        W79398  28.496  14.850  19.826 -0.2854  0.1227  0.2341
36408W        W79399   6.214   6.847  17.324 -0.3056 -0.2090 -0.0737
36409W        W79400  30.458   5.931  20.271 -0.1815  0.0181  0.1054
36410W        W79401  12.486   2.985   9.769 -0.1699 -0.0200  0.1796
36411W        W79402  27.278  13.024   7.583  0.0171  0.4257 -0.0749
36412W        W79403   2.002  19.143   7.613 -0.0587  0.1394 -0.0408
36413W        W79404   7.393  31.379  24.704  0.0446  0.1127 -0.0816
36414W        W79405   4.980  20.830  25.048 -0.4327 -0.0598  0.4397
36415W        W79406  31.505  33.088  28.706 -0.1194 -0.1694  0.1093
36416W        W79407  27.531  26.562  29.110 -0.2362  0.0925 -0.0478
36417W        W79408   4.999  14.612   8.197 -0.0835  0.1572 -0.0872
36418W        W79409  31.958  15.568   3.570 -0.0061  0.0807  0.0974
36419W        W79410  33.520  23.115  27.910 -0.1986  0.1481  0.2518
36420W        W79411  29.074  12.536  22.556 -0.1364 -0.1560 -0.0663
36421W        W79412  30.200  24.363   5.121  0.0728  0.1376  0.3029
36422W        W79413  25.571   2.054  26.892  0.1940  0.3223 -0.0399
36423W        W79414  18.583  12.005  29.216 -0.0582  0.0481 -0.0959
36424W        W79415  31.970  30.175  19.506  0.1219  0.0288  0.1333
36425W        W79416  25.656   7.234   5.669  0.0413 -0.2550 -0.0341
36426W        W79417  25.802  24.335  23.642 -0.0201 -0.1342  0.4546
36427W        W79418  30.235  15.956  27.202  0.1004 -0.0056 -0.5215
36428W        W79419   0.344  18.619  22.499 -0.0543  0.1025 -0.5711
36429W        W79420  33.277  23.547   8.818  0.0992 -0.2161  0.2455
36430W        W79421  25.974  19.121   9.398  0.1404  0.3326  0.1011
36431W        W79422  20.789  21.488  23.784  0.1073  0.2438  0.2363
36432W        W79423  20.896  29.612   4.810  0.0685  0.0968 -0.0635
36433W        W79424  12.910   4.148   4.451 -0.0456 -0.0068  0.1061
36434W        W79425  13.981  17.631   8.333  0.0505 -0.2526  0.0626
36435W        W79426  20.415  20.973  27.703  0.1628  0.1544 -0.0591
36436W        W79427   5.825  24.228   9.130  0.0095  0.1085  0.0478
36437W        W79428  31.963  15.865  15.742 -0.2345 -0.6344 -0.0178
36438W        W79429  19.198   2.376  24.073  0.0809  0.4161  0.3127
36439W        W79430  19.210  26.486  15.120  0.2545 -0.1695  0.4026
36440W        W79431  32.599   4.057   2.058  0.2586 -0.1386 -0.0596
36441W        W79432  30.721  30.045  23.804 -0.3644 -0.1737 -0.2482
36442W        W79433  32.170  30.905  24.345 -0.1133  0.1144  0.3463
36443W        W79434  28.969   5.413  26.459  0.2280  0.1953 -0.4365
36444W        W79435  26.567  30.841   0.066 -0.0680 -0.1500  0.0647
36445W        W79436  18.073  29.034   4.316 -0.1537 -0.3352 -0.2107
36446W        W79437  28.926  30.728  22.499  0.0305  0.0541  0.3908
36447W        W79438  24.887  20.247   6.720 -0.2768  0.0212 -0.1819
36448W        W79439  18.313   7.055   8.680 -0.0351 -0.2779 -0.0260
36449W        W79440  11.025  13.495  10.997  0.0459  0.3350 -0.0166
36450W        W79441  34.532  23.832   6.098  0.2895 -0.0657  0.0056
36451W        W79442  27.081  18.152   3.920 -0.0263  0.2455  0.1938
36452W        W79443  26.112  32.665   8.272  0.0465 -0.2868  0.1614
36453W        W79444  12.304  23.740   4.329 -0.0592 -0.0957  0.0798
36454W        W79445  24.785  24.841   3.907  0.0598  0.0299 -0.0982
36455W        W79446  34.391  16.304   0.899  0.1647 -0.0437 -0.2114
36456W        W79447   0.691  29.110   1.118 -0.1716 -0.3970  0.2386
36457W        W79448  25.059  25.556   3.106 -0.2965 -0.1241  0.0052
36458W        W79449  30.444  18.289   5.421 -0.1774  0.0435 -0.1710
36459W        W79450  32.667  17.366  15.571  0.0968 -0.1699  0.0838
36460W        W79451   1.756  28.080   6.828 -0.2292  0.1507  0.2523
36461W        W79452  29.097  32.800   4.591 -0.1642 -0.2744 -0.0057
36462W        W79453  28.953  25.684  24.920 -0.1943 -0.1053  0.1893
36463W        W79454  31.379  19.721  17.784  0.0767 -0.2077  0.2107
36464W        W79455   4.493  25.722   5.646  0.1186 -0.2200  0.1112
36465W        W79456  20.017  12.419   3.141  0.1989 -0.0820 -0.1659
36466W        W79457  23.969  13.759  22.918  0.1084 -0.3174 -0.2654
36467W        W79458   0.709  34.203   2.548 -0.1913 -0.0141 -0.1379
36468W        W79459   3.675  21.862   6.907 -0.2446  0.2041  0.2731
36469W        W79460  15.334   0.266   8.086  0.1008  0.0837 -0.2144
36470W        W79461  20.009  26.628   8.198 -0.2507  0.2420  0.0356
36471W        W79462  26.668  26.148  13.540  0.1427 -0.1441  0.0322
36472W        W79463   6.103   1.501   5.520 -0.1280  0.4317 -0.1011
36473W        W79464  30.688  19.828   2.793 -0.0325  0.3321 -0.1386
36474W        W79465  13.870  23.238  18.667  0.1037 -0.0103 -0.0471
36475W        W79466  21.879  24.363  18.103 -0.4571  0.1518 -0.2410
36476W        W79467   8.464   5.556  24.630  0.1603 -0.1152 -0.0112
36477W        W79468   1.351  15.962  26.517  0.2659 -0.0353 -0.1298
36478W        W79469  17.450  17.709  23.786 -0.2787 -0.1684  0.0257
36479W        W79470  25.129  29.898   7.968 -0.4746 -0.1737  0.4199
36480W        W79471  31.671  28.677  14.227 -0.0949  0.1396 -0.1776
36481W        W79472  24.793  26.032   2.338 -0.1565 -0.3105  0.2112
36482W        W79473  30.557  28.656  28.038  0.0225  0.4586  0.0803
36483W        W79474  26.572  15.973  23.852 -0.0768  0.0767 -0.0439
36484W        W79475  32.951  10.914   2.401 -0.0558  0.1159 -0.1632
36485W        W79476  22.744   2.315  28.807 -0.4868 -0.1510 -0.3026
36486W        W79477  27.554  19.464   4.384 -0.0376 -0.0037  0.1906
36487W        W79478   9.054  21.516   1.709  0.0345 -0.2414  0.1692
36488W        W79479  25.841  29.331   6.939 -0.1660 -0.1486  0.1214
36489W        W79480  14.164  21.183   3.417 -0.1653 -0.1440 -0.2952
36490W        W79481  11.725  10.415  28.311  0.0889  0.1434 -0.0148
36491W        W79482   1.919  31.689   7.815  0.1063  0.1541 -0.0392
36492W        W79483  29.234  15.713   4.267  0.1161  0.2960 -0.0553
36493W        W79484  13.032   8.929  10.912  0.1953 -0.2698  0.3245
36494W        W79485  14.624  33.408  28.127  0.0957  0.0731  0.2154
36495W        W79486   3.873  21.334  27.382  0.2456 -0.1832 -0.1289
36496W        W79487  33.281  19.417  26.422  0.1203 -0.0097 -0.1750
36497W        W79488  18.812  24.056   0.264  0.0801 -0.1250  0.2029
36498W        W79489   0.814  30.414   8.690 -0.5128 -0.1583 -0.2686
36499W        W79490   7.842  10.181   7.723 -0.2037 -0.2098 -0.3403
36500W        W79491  25.680  34.542   4.072  0.0035  0.1916 -0.3526
36501W        W79492  23.858   8.525   3.510 -0.4492  0.2306 -0.2124
36502W        W79493  13.226  21.623  18.313 -0.0409 -0.2279  0.0006
36503W        W79494  13.410  19.219   5.262  0.0058 -0.2049  0.1164
36504W        W79495  21.651  25.159  18.570 -0.2248  0.1435 -0.1080
36505W        W79496  21.842  23.962  26.229 -0.1141  0.0386 -0.0326
36506W        W79497  34.742  22.216   6.045  0.2211 -0.1095 -0.1716
36507W        W79498   7.148  32.613   8.626  0.2264 -0.0425 -0.0086
36508W        W79499  30.463  27.929   5.479  0.0996  0.1475  0.3119
36509W        W79500  33.100  26.483   0.326  0.0471  0.2422 -0.1282
36510W        W79501   3.884  21.908   8.918 -0.2766 -0.0732 -0.1476
36511W        W79502  26.982  33.821  25.019 -0.4129  0.0862  0.1461
36512W        W79503  14.459  19.286  23.895 -0.0633 -0.0324  0.2206
36513W        W79504  17.015  11.744  20.666 -0.1468  0.0894  0.0220
36514W        W79505   3.152  21.376   3.306  0.0740 -0.0895 -0.0031
36515W        W79506   1.533   8.235  28.398  0.1925  0.1364  0.0473
36516W        W79507   5.320  18.403   7.448 -0.2787  0.0153 -0.0363
36517W        W79508  13.917  25.815   0.828  0.2818 -0.1707  0.2315
36518W        W79509   3.804  17.512   9.550 -0.0063  0.2393  0.5785
36519W        W79510   9.387   5.298  24.524  0.2386  0.0022  0.0027
36520W        W79511   0.978  14.167   9.925 -0.0936 -0.1040  0.2310
36521W        W79512   2.291  21.371  23.809  0.0825 -0.1321  0.1013
36522W        W79513  17.054  34.441  25.035  0.0851  0.0367  0.1800
36523W        W79514  24.045  21.109  26.027 -0.3366 -0.2392 -0.0061
36524W        W79515   3.632  19.304   6.575  0.0187 -0.1542 -0.3145
36525W        W79516  30.107  21.559   9.068  0.2438  0.2179  0.0940
36526W        W79517  20.771  10.875   4.055  0.2591 -0.2179 -0.0258
36527W        W79518  27.817  22.437  27.465 -0.1573  0.1945  0.3274
36528W        W79519   6.162  20.369  27.272 -0.0068  0.2956  0.1681
36529W        W79520  23.360  18.855   3.207 -0.1609 -0.2180  0.5948
36530W        W79521  25.527  16.690   1.222  0.0208 -0.2152  0.1186
36531W        W79522  21.427  24.807   4.608 -0.1819  0.1955  0.5441
36532W        W79523  22.837  24.914   6.057 -0.0580  0.2958 -0.1309
36533W        W79524  15.357  25.329  21.264  0.1351 -0.1233  0.1285
36534W        W79525  14.428  23.830   1.651  0.0176 -0.0463  0.0471
36535W        W79526  20.559  27.329  22.959  0.2773 -0.1682  0.0985
36536W        W79527   2.904   0.914  15.405 -0.2103  0.4401 -0.2508
36537W        W79528   3.801  25.162  25.560  0.3538  0.0570  0.1982
36538W        W79529  15.291  13.579  25.637  0.0651 -0.1574  0.1704
36539W        W79530  28.954   3.794   5.265 -0.1983  0.3589  0.1900
36540W        W79531  22.970   7.461   9.062  0.2551 -0.0523 -0.2296
36541W        W79532  33.948  34.646  25.635  0.0579  0.0232  0.1517
36542W        W79533   1.164  27.533  23.532  0.0225  0.4091  0.0114
36543W        W79534  27.609   6.381   3.876  0.0512 -0.1912  0.0100
36544W        W79535   9.140  25.635  29.141  0.5183 -0.4219  0.1880
36545W        W79536  30.051  23.746   7.363  0.2155 -0.0408 -0.1905
36546W        W79537  28.768   7.906  20.926 -0.2356  0.1715  0.1462
36547W        W79538  33.478  34.063  23.325 -0.4727 -0.0285  0.2087
36548W        W79539   5.845  11.895  28.088  0.1587  0.0821 -0.0087
36549W        W79540   3.182  10.336   9.466 -0.1082  0.2927 -0.0554
36550W        W79541  28.062   9.625  15.024  0.3150  0.0482 -0.1120
36551W        W79542  25.976   1.809  28.069 -0.2425  0.2639  0.1413
36552W        W79543  12.553  30.422   2.268  0.2961 -0.1308 -0.2680
36553W        W79544  29.362  28.363   1.562  0.0744  0.2195 -0.1722
36554W        W79545   0.201  16.843  29.075  0.3380 -0.1391 -0.1632
36555W        W79546  24.087  23.005  23.116  0.0438  0.1126 -0.0689
36556W        W79547  21.625   9.080   3.149 -0.4159  0.0054 -0.0394
36557W        W79548  20.040  23.952   9.127  0.0933 -0.0017  0.1750
36558W        W79549   4.440  13.377  15.258 -0.1449 -0.0428  0.0205
36559W        W79550  11.675  16.808   6.671 -0.1556 -0.0960 -0.2074
36560W        W79551   8.041  27.503   9.133  0.2501 -0.3445 -0.1057
36561W        W79552  25.222  19.529   9.964  0.0759  0.3964 -0.0151
36562W        W79553   3.074  23.473   5.402  0.0342 -0.1733 -0.1424
36563W        W79554  26.372  17.145   3.241 -0.0093  0.0200  0.0308
36564W        W79555  27.813   3.317   2.928 -0.1900  0.1579 -0.0604
36565W        W79556   7.935  19.352   3.842 -0.1577  0.0120 -0.2924
36566W        W79557  15.848  18.150   0.957  0.1775 -0.0009  0.2221
36567W        W79558   9.083  28.824   0.448  0.2033  0.3266 -0.1764
36568W        W79559  26.662  19.724   7.795  0.2643  0.0926  0.0111
36569W        W79560  18.711  21.625   8.517 -0.0169 -0.3672 -0.0005
36570W        W79561  26.311  20.986  24.718 -0.3160 -0.2364  0.0430
36571W        W79562  13.841  20.190   2.553  0.2838 -0.1869 -0.2926
36572W        W79563  14.074  31.434   6.234 -0.2748 -0.0589 -0.1125
36573W        W79564   4.589  31.386  22.023  0.0944  0.2284  0.0583
36574W        W79565  33.455  29.119   8.741 -0.2203 -0.1767 -0.3002
36575W        W79566  32.225  18.161   0.676 -0.0089 -0.2744  0.0443
36576W        W79567   9.085  30.451   0.851 -0.3862 -0.2276 -0.2721
36577W        W79568  31.451  34.538   5.205  0.0289 -0.0852  0.0066
36578W        W79569   6.274  17.220   6.306 -0.2169  0.1450  0.2192
36579W        W79570   4.087  13.657  20.238 -0.1744 -0.2522 -0.4512
36580W        W79571  18.172  31.170   8.530 -0.0954 -0.2181  0.3990
36581W        W79572   6.853  15.492   9.896  0.2812 -0.0705  0.0300
36582W        W79573   1.619   2.079   2.610  0.1798  0.0286  0.3829
36583W        W79574   6.335  23.729   1.495 -0.1404  0.0537  0.3181
36584W        W79575  28.041  21.835  16.140  0.1338 -0.3784  0.0683
36585W        W79576  26.026  28.952   5.228  0.0997 -0.1180 -0.1857
36586W        W79577  19.594  21.773   2.722 -0.2244 -0.0244 -0.1284
36587W        W79578  19.613  10.406   6.626 -0.2554 -0.1313  0.2297
36588W        W79579  30.287  10.867   0.706  0.0467  0.0663 -0.1796
36589W        W79580   9.718  22.789   5.212  0.2006  0.1645  0.0010
36590W        W79581  27.454  32.068  23.500  0.0960 -0.0654  0.2183
36591W        W79582   5.214  10.578  26.994  0.1042  0.3246 -0.0262
36592W        W79583   6.287   1.781  25.691 -0.0889 -0.1667  0.1205
36593W        W79584   6.826  14.905   6.046 -0.4921 -0.1660 -0.0574
36594W        W79585  28.314  28.441  28.499  0.0712 -0.2098 -0.0224
36595W        W79586  29.887  11.855   7.678 -0.2485  0.1562  0.0855
36596W        W79587  23.101  24.160   5.396  0.2084 -0.0584 -0.2186
36597W        W79588   7.551  28.074  21.781 -0.0695 -0.1062  0.0266
36598W        W79589  28.388  34.441   3.027  0.1916  0.2555  0.0483
36599W        W79590   1.254  28.355  27.850 -0.0296 -0.2710 -0.0409
36600W        W79591  29.006  27.524   8.138 -0.1549  0.1517  0.0254
36601W        W79592  13.357  28.920  26.747 -0.3634  0.2637 -0.0036
36602W        W79593  14.256  26.120   8.047  0.2799 -0.0541  0.0509
36603W        W79594  27.383  22.479  28.834  0.0405  0.2681  0.4396
36604W        W79595  14.912   0.119   2.200 -0.0011 -0.0381  0.1249
36605W        W79596  29.160  18.870   4.109  0.3245 -0.3325  0.0140
36606W        W79597  17.938   7.723  25.211  0.2251 -0.0017 -0.1445
36607W        W79598   0.916  17.091   3.790 -0.0640 -0.0977  0.2876
36608W        W79599  15.549  23.776   9.873  0.0707 -0.0644  0.1732
36609W        W79600  26.353   6.215   6.590 -0.1652 -0.1417  0.3039
36610W        W79601  21.868  30.667  22.500  0.0010  0.0318 -0.1358
36611W        W79602  34.511  29.315  25.574  0.1070 -0.2344  0.1078
36612W        W79603   0.994  24.431  20.665  0.1089 -0.0949 -0.0617
36613W        W79604  29.848   0.304   2.151 -0.1040 -0.0632  0.3170
36614W        W79605   7.191  20.672   5.247  0.0512 -0.2386  0.0062
36615W        W79606  22.842  11.945   8.193 -0.1656  0.1754  0.0459
36616W        W79607  32.409  27.697   7.074 -0.3475  0.1452  0.0672
36617W        W79608  19.467  13.881   1.611 -0.0861 -0.0871  0.0246
36618W        W79609  17.641  21.661   4.906 -0.0061  0.0206 -0.0739
36619W        W79610  27.975  18.622   9.713 -0.0472 -0.2892 -0.1812
36620W        W79611  34.525  27.975   9.644 -0.0153  0.2177  0.0177
36621W        W79612  29.505  22.645  24.731 -0.1433 -0.2616  0.1030
36622W        W79613   5.596   7.616  27.772  0.0886  0.1286 -0.3621
36623W        W79614   3.122   2.932  10.130  0.2257 -0.0535  0.0136
36624W        W79615  33.680  32.308   3.158  0.2339  0.2321 -0.0918
36625W        W79616   0.512  28.227   9.366  0.0601 -0.3237 -0.6297
36626W        W79617  34.312  24.701  28.644 -0.1580 -0.1149  0.0049
36627W        W79618  33.458  13.792   6.559 -0.1084 -0.0691 -0.0093
36628W        W79619   2.272  30.108  23.008 -0.4086 -0.0028  0.1162
36629W        W79620  33.361  14.484  11.027  0.1696 -0.0510  0.3227
36630W        W79621   9.074  14.911   2.013  0.0974 -0.2125  0.0428
36631W        W79622  21.880  12.898  24.783 -0.0302  0.1697 -0.0128
36632W        W79623   1.172  34.048   5.693  0.4496 -0.3590 -0.0996
36633W        W79624  20.752  20.598  27.809  0.3898  0.1163  0.0812
36634W        W79625  13.901  27.475   8.085 -0.3771 -0.1637 -0.0820
36635W        W79626  31.990  29.506  25.342  0.1112 -0.0062  0.0839
36636W        W79627  21.751  11.757   3.354  0.0572  0.2598  0.0629
36637W        W79628  32.582  24.049  25.180 -0.3842 -0.2917  0.3068
36638W        W79629  24.133  22.363  29.258  0.0858 -0.3248 -0.2772
36639W        W79630  23.675  24.831   2.004  0.0372 -0.1922 -0.0984
36640W        W79631  29.184  28.274   0.470 -0.1063  0.0379 -0.0420
36641W        W79632  25.299   3.233   6.307 -0.2574 -0.1655  0.1265
36642W        W79633  23.822  29.913  19.619  0.0320  0.2856  0.1433
36643W        W79634   1.119   6.831   7.975 -0.4643 -0.0012  0.2843
36644W        W79635   1.738   5.844   6.611 -0.1828  0.2539 -0.2735
36645W        W79636  25.052   0.315   3.940 -0.0884 -0.1028  0.3069
36646W        W79637   1.275  19.045  10.491 -0.0361 -0.2973 -0.0199
36647W        W79638  29.311  27.457  27.256  0.1410  0.3189  0.2575
36648W        W79639  22.595  27.915   6.076 -0.4819 -0.2630  0.1407
36649W        W79640  20.154   0.375  28.974 -0.0135  0.1529 -0.3014
36650W        W79641   7.655  20.459   9.049 -0.0348  0.1927  0.2650
36651W        W79642  29.676  22.118  27.308  0.2691 -0.3700 -0.1005
36652W        W79643  13.406  27.530   8.957 -0.0136 -0.1426  0.1510
36653W        W79644  13.664  26.025  22.156  0.0717  0.3136 -0.0598
36654W        W79645  31.830   6.603   4.322  0.2555 -0.0841  0.2760
36655W        W79646  24.134  27.187  21.238  0.2241  0.1400 -0.2297
36656W        W79647   2.527  29.515   7.881  0.2983  0.2489  0.1372
36657W        W79648   0.118   5.430   6.299  0.0772  0.1904  0.2993
36658W        W79649   0.807  21.355  15.849 -0.1160 -0.0598 -0.0384
36659W        W79650  31.059   5.215  28.124 -0.1354 -0.2255  0.0392
36660W        W79651  28.811  15.474   8.230  0.0952  0.0961  0.1533
36661W        W79652  26.996  20.799  27.333  0.1881  0.1638 -0.0173
36662W        W79653  21.280   1.474  23.417  0.1206  0.1030  0.0503
36663W        W79654   7.274  13.187   5.689 -0.0632 -0.1371  0.3280
36664W        W79655  31.978  25.460  28.636  0.3153 -0.2603 -0.1320
36665W        W79656  27.952  27.957   5.939  0.1076  0.0760 -0.0144
36666W        W79657  29.169  23.084   2.895 -0.0718 -0.1448  0.0847
36667W        W79658  15.712   8.407  28.909  0.0414  0.0377 -0.2004
36668W        W79659  27.612  20.299  27.068  0.3059 -0.1083  0.0107
36669W        W79660   7.951   3.971   6.274 -0.2757  0.1678  0.0366
36670W        W79661  16.420  16.013   8.364 -0.0709 -0.0818 -0.1217
36671W        W79662  24.212  12.775   1.592 -0.0615 -0.3759 -0.1346
36672W        W79663  31.565  23.249   8.652 -0.3029  0.3416 -0.0185
36673W        W79664  34.356  28.969  25.263  0.3871  0.2078 -0.0684
36674W        W79665   9.801   0.332   6.511 -0.3163  0.1611 -0.2261
36675W        W79666  23.866  26.312   3.422 -0.1279 -0.1663  0.0628
36676W        W79667   2.758  16.322   5.787 -0.0182  0.1672  0.1333
36677W        W79668   8.336  11.950  26.548  0.2360 -0.2592 -0.0802
36678W        W79669   2.654   2.422   3.553  0.4397  0.0334 -0.2019
36679W        W79670   3.529  32.619  26.276  0.2228 -0.1274  0.1025
36680W        W79671  28.432  26.535   4.248 -0.5238 -0.1638 -0.3240
36681W        W79672  32.689  14.870  26.504 -0.0016 -0.3248 -0.1119
36682W        W79673  25.109  34.055   1.331  0.1950  0.3060  0.0875
36683W        W79674  21.820  33.692  19.013  0.0304 -0.0784 -0.0462
36684W        W79675  33.394  13.467   7.702 -0.0810  0.1969 -0.1469
36685W        W79676  33.551  19.676   3.103 -0.0641 -0.4457  0.0903
36686W        W79677  34.401   7.702  10.527 -0.3202 -0.3222 -0.2494
36687W        W79678  28.959  33.566  19.721 -0.1995 -0.1167 -0.1706
36688W        W79679  32.655  17.834  18.517 -0.2082 -0.2871 -0.2387
36689W        W79680  12.439  20.640   6.442 -0.3580  0.0753 -0.0225
36690W        W79681  16.054  23.881   8.664 -0.0362 -0.0265 -0.0190
36691W        W79682  21.791  15.996   2.222 -0.3013 -0.2443 -0.1245
36692W        W79683  10.963   1.177   2.427  0.1256  0.2271 -0.1922
36693W        W79684  14.293  27.790  14.479  0.0496 -0.0845 -0.0424
36694W        W79685  32.783  27.134   7.254 -0.2414 -0.1169  0.3184
36695W        W79686  15.487  27.345  25.185  0.0376  0.2940  0.0392
36696W        W79687   6.295   6.723   2.851  0.1661  0.0155 -0.2701
36697W        W79688  22.390  19.594  25.292  0.0749 -0.0278  0.2309
36698W        W79689   3.721  14.206   8.004  0.1288 -0.1823 -0.0019
36699W        W79690  13.312  21.415   9.672 -0.0742 -0.0257  0.0182
36700W        W79691  32.586  24.855   7.473 -0.0417 -0.1121 -0.2522
36701W        W79692  24.350  27.460  15.050  0.2493 -0.1334 -0.1181
36702W        W79693  31.093  21.192   3.367  0.2154  0.1895  0.1212
36703W        W79694  29.281  12.845  19.355 -0.6829 -0.0753  0.2197
36704W        W79695  27.900   9.893  22.035 -0.1522  0.1068 -0.0284
36705W        W79696  31.647  23.010   2.858  0.2020  0.0778  0.0066
36706W        W79697   8.477   1.467   9.282 -0.0794  0.2362 -0.0910
36707W        W79698   8.404  27.636   1.095  0.2203 -0.4527 -0.0272
36708W        W79699  23.922  27.919  25.880 -0.1626 -0.0810 -0.0559
36709W        W79700  22.241   5.625   2.640  0.0234  0.1147 -0.2051
36710W        W79701  28.565  27.898  28.235  0.1087  0.1292  0.2285
36711W        W79702  18.679  33.875  10.104  0.0275  0.1589 -0.1419
36712W        W79703  24.166   6.502   6.030 -0.0780 -0.1350  0.0131
36713W        W79704  29.443   1.768   1.595 -0.0862  0.2758  0.3420
36714W        W79705  22.178  27.638  15.571  0.1763  0.1503 -0.2480
36715W        W79706   1.882  30.388   4.028  0.0693  0.1347  0.2198
36716W        W79707   1.364  31.229   6.188 -0.0609  0.2138  0.0213
36717W        W79708  31.443   2.368  19.337  0.2056 -0.2716 -0.4550
36718W        W79709  30.928   9.563  16.393  0.0259 -0.2197 -0.0049
36719W        W79710   7.184  28.071  16.266  0.0029  0.2126  0.0817
36720W        W79711  27.773  33.085   6.436 -0.0003  0.1975  0.3189
36721W        W79712   3.138   0.317   2.149 -0.4237  0.0353  0.2763
36722W        W79713   2.727   2.899  27.855 -0.0058  0.4966  0.0053
36723W        W79714   3.707   7.279  21.489 -0.0128  0.2561  0.0412
36724W        W79715   7.778  17.175  24.837 -0.0434  0.1711  0.0978
36725W        W79716  14.950  20.248  25.956 -0.2597  0.1025 -0.0435
36726W        W79717  29.650  21.125  25.815  0.0499 -0.0187 -0.4412
36727W        W79718   4.933  21.060   6.395  0.0213 -0.0013 -0.0607
36728W        W79719  32.882  25.551   2.119 -0.0269  0.0140 -0.0491
36729W        W79720   0.348  27.159  27.740 -0.0487 -0.0714 -0.2974
36730W        W79721   1.166  15.940  26.048 -0.4135  0.2806  0.0815
36731W        W79722  31.038  12.617  28.139  0.3897 -0.0248  0.2802
36732W        W79723   7.415  16.819  24.943 -0.0165 -0.5084  0.2721
36733W        W79724  26.886  32.401  29.109 -0.2417  0.0663  0.0578
36734W        W79725  11.433   0.568   0.712 -0.0953  0.1198 -0.0585
36735W        W79726  25.952  13.521   2.357  0.1156  0.3185  0.0599
36736W        W79727  23.541   2.635  26.767  0.1065 -0.0276 -0.3852
36737W        W79728  34.679  15.239  19.891 -0.1536  0.1728  0.0666
36738W        W79729   4.903  27.170  23.256  0.1972  0.0456  0.1501
36739W        W79730  13.550  22.902   5.002 -0.1148 -0.1899 -0.0939
36740W        W79731   5.660  10.222   6.879 -0.1604  0.2419  0.2042
36741W        W79732  30.349  27.019   7.537  0.2364 -0.1843 -0.5710
36742W        W79733  32.874  27.332   4.767  0.0227  0.0312  0.0101
36743W        W79734  11.273   6.964  10.118 -0.2289  0.2120  0.0825
36744W        W79735  19.184  21.568   7.298  0.1979 -0.1363  0.1934
36745W        W79736  18.132  13.776  25.135 -0.1452  0.1016  0.0126
36746W        W79737  20.881  30.003   2.630 -0.1412 -0.2858 -0.0819
36747W        W79738  11.053  13.251   0.258  0.0162  0.1628 -0.2264
36748W        W79739  27.711  21.750   8.421  0.0777  0.0611  0.3397
36749W        W79740   1.695  17.886  16.204 -0.1078  0.0595 -0.0905
36750W        W79741   1.063  26.103   3.390 -0.1455  0.0394 -0.0138
36751W        W79742  29.044  13.810   3.597 -0.1020  0.0117 -0.2888
36752W        W79743   2.519  22.533   9.345 -0.0831  0.1059  0.1649
36753W        W79744  20.244  26.537   7.274  0.0975 -0.0640  0.1010
36754W        W79745   8.096  20.287   4.392 -0.2708 -0.0118 -0.0899
36755W        W79746  34.203  18.613   9.390 -0.0088  0.0055  0.0151
36756W        W79747   2.444  15.978  11.238  0.1471  0.0945 -0.0466
36757W        W79748  34.622  30.151   7.325 -0.1904 -0.1104 -0.0004
36758W        W79749  22.081   7.493  28.926 -0.1859 -0.0339 -0.0609
36759W        W79750  21.858  24.157  24.133  0.1416 -0.3204 -0.0314
36760W        W79751  23.156   0.500   6.547  0.0426 -0.2798  0.2210
36761W        W79752  26.745   0.760   4.837  0.3477  0.2868  0.1269
36762W        W79753   1.758  21.958   0.092  0.0525 -0.1645 -0.0761
36763W        W79754  25.962  22.689   6.616 -0.2293 -0.1159 -0.0273
36764W        W79755  28.374  15.221   2.540 -0.0632 -0.4534 -0.0570
36765W        W79756  22.667  32.748   1.567  0.2048 -0.3160 -0.1699
36766W        W79757   0.006  29.533  15.440 -0.0661 -0.1231 -0.3829
36767W        W79758   5.687  24.675   8.282  0.0900 -0.1296 -0.0999
36768W        W79759   3.802  33.971  28.697 -0.1987  0.1098 -0.1058
36769W        W79760  18.026  18.900   5.565  0.2171  0.1459 -0.3067
36770W        W79761  27.474  25.395   0.639  0.2408 -0.0926 -0.0333
36771W        W79762  29.276  25.423   4.033 -0.4365 -0.0439  0.2106
36772W        W79763  28.659  23.097   8.617 -0.0846  0.0092 -0.0927
36773W        W79764  33.816  13.321  15.356  0.0030 -0.1546 -0.1043
36774W        W79765  15.360  21.581  25.300  0.2425  0.4921  0.0830
36775W        W79766  33.559  32.856  22.288  0.0317 -0.0489 -0.2757
36776W        W79767  29.865  29.681   0.252  0.0259 -0.3335 -0.1836
36777W        W79768  24.753  13.880  13.515 -0.3171 -0.0121 -0.1197
36778W        W79769  23.091  21.007  27.078 -0.3079 -0.1830 -0.3509
36779W        W79770  30.360  27.990   8.435  0.0466  0.1221  0.3248
36780W        W79771   1.081  14.341   1.137  0.2326  0.0282 -0.1391
36781W        W79772   3.928  17.981   5.581  0.2266 -0.3411 -0.2650
36782W        W79773  24.617   6.952   5.809 -0.2358 -0.0583 -0.0232
36783W        W79774  28.843   1.751   9.408  0.0796 -0.0195 -0.0056
36784W        W79775   0.887  19.504  10.636 -0.1695  0.3515  0.3326
36785W        W79776  23.706  25.129  28.276  0.1505 -0.3586 -0.3166
36786W        W79777  14.056  30.563   7.023  0.2356  0.0302  0.0205
36787W        W79778  32.219  19.485   3.800  0.1983  0.1422  0.3179
36788W        W79779  18.870  28.607   8.227 -0.1763  0.2895  0.0933
36789W        W79780  23.317   6.804   0.408  0.0048  0.2840  0.0388
36790W        W79781  17.813  14.484  29.245  0.1174  0.1645 -0.0770
36791W        W79782  32.995  23.824   7.023  0.4547 -0.2567 -0.0359
36792W        W79783  33.341  22.883  22.360  0.0397  0.0484  0.0150
36793W        W79784  25.774   0.885   2.380 -0.0922  0.1960 -0.2164
36794W        W79785  27.777   8.469  14.592  0.1041 -0.2119  0.2325
36795W        W79786  16.687  21.428   4.694  0.1465  0.1006  0.5209
36796W        W79787  30.045  27.491  24.163 -0.1231 -0.0988 -0.0530
36797W        W79788  24.247  32.903   1.486  0.2258 -0.0876  0.0884
36798W        W79789  10.927  13.498   6.995  0.1198 -0.0755  0.0377
36799W        W79790  25.026  16.807   4.509 -0.1840  0.1184 -0.1118
36800W        W79791  31.625  11.296   0.057  0.0960  0.2294  0.4823
36801W        W79792   0.286  20.797  19.829 -0.0700  0.0353  0.1520
36802W        W79793  22.610  11.805  28.865  0.0530 -0.5152  0.0139
36803W        W79794  10.330   2.543   4.816 -0.1723 -0.0674  0.0189
36804W        W79795  31.165  30.265   3.962  0.0192 -0.1274 -0.1936
36805W        W79796  28.935  26.958   0.074 -0.0679 -0.2058 -0.2821
36806W        W79797   9.614  21.188  28.269  0.1854 -0.0845  0.1771
36807W        W79798   9.622  22.209  18.088 -0.2194  0.1778  0.1942
36808W        W79799  21.096  14.407  26.960 -0.0507  0.2957  0.2645
36809W        W79800  33.145  25.050   6.527 -0.1704 -0.0030 -0.3480
36810W        W79801   9.081  25.004   5.764 -0.3710  0.0230  0.1227
36811W        W79802  33.185   9.728  21.598 -0.2862 -0.3223  0.1340
36812W        W79803  23.793  19.333   6.180  0.0347 -0.0844 -0.1180
36813W        W79804  28.115  21.512   9.216 -0.1182 -0.0806 -0.3606
36814W        W79805  31.211  15.830   6.809 -0.1286  0.0822 -0.3403
36815W        W79806  22.335  23.775   4.301  0.0843 -0.1830 -0.0264
36816W        W79807  19.027  26.165  17.732 -0.0312 -0.0715 -0.0201
36817W        W79808  27.360  29.707   3.007  0.2980 -0.0090 -0.0852
36818W        W79809  20.863   8.388   3.227  0.3810  0.1566  0.4605
36819W        W79810  31.699  10.764   1.255 -0.1358  0.2101  0.1633
36820W        W79811  16.838  28.261   0.163  0.0959 -0.2347 -0.1594
36821W        W79812  33.013  25.091  26.219 -0.0130 -0.1501 -0.3233
36822W        W79813  12.823  30.717   3.155 -0.2192  0.2571 -0.0207
36823W        W79814  32.658   0.339   8.516  0.0321 -0.0642 -0.0937
36824W        W79815  25.216  18.928   4.129  0.2277 -0.4593  0.1965
36825W        W79816  18.755  22.892   7.066 -0.3909  0.1267  0.2219
36826W        W79817  15.312  24.570   2.204 -0.2115 -0.0649  0.0039
36827W        W79818  23.115  30.193   2.147  0.2420  0.2036 -0.4167
36828W        W79819  26.221  29.801  27.937  0.1225  0.1787 -0.3367
36829W        W79820  19.942   2.845  19.265  0.1601 -0.2091 -0.3724
36830W        W79821  33.939  26.097  23.827  0.2600 -0.1193  0.0658
36831W        W79822  32.556   1.524   7.761  0.3348 -0.0823  0.3293
36832W        W79823  24.306   8.189  22.595  0.1623  0.0798  0.0107
36833W        W79824  29.013  13.220  28.024  0.1508  0.0922 -0.0204
36834W        W79825  30.090  24.933   3.771  0.0268 -0.1361  0.0146
36835W        W79826  16.698  30.546   4.278 -0.0289 -0.0592 -0.2436
36836W        W79827   6.844  15.002   2.210  0.0209 -0.0372  0.1584
36837W        W79828  23.938  25.796   8.462  0.0541  0.3601  0.0334
36838W        W79829  28.864  20.246   3.684  0.4636  0.0446  0.5167
36839W        W79830  23.381  32.450  28.847  0.4173 -0.0374 -0.1325
36840W        W79831  18.798  10.484  25.360 -0.0752  0.2370 -0.0802
36841W        W79832  25.341  16.326  25.140  0.2944 -0.0488 -0.2337
36842W        W79833  19.340  10.703   0.209  0.2352 -0.1699 -0.1508
36843W        W79834   8.983  11.749   0.741 -0.1655  0.0217 -0.0729
36844W        W79835  24.808  23.191  29.078 -0.1266  0.0438  0.1861
36845W        W79836   2.760  17.879   7.380  0.0399 -0.4267  0.0845
36846W        W79837  30.473  30.926   1.193 -0.5377 -0.3054  0.0784
36847W        W79838  23.903  13.334   1.168  0.2422 -0.1222 -0.1822
36848W        W79839  34.046  33.146   6.761 -0.1122 -0.3160 -0.2688
36849W        W79840   2.777  22.781   1.283 -0.0791  0.0286  0.0100
36850W        W79841  26.465  27.869   8.510  0.3136  0.1904 -0.1142
36851W        W79842  31.681  27.585   1.260 -0.2703 -0.0965 -0.1513
36852W        W79843  34.089  23.022   8.330 -0.0009  0.0052  0.0513
36853W        W79844  16.112  15.038  22.664 -0.0070 -0.1287  0.0031
36854W        W79845   8.573  24.078   7.158  0.0011 -0.1062  0.0458
36855W        W79846  14.812   1.544  26.418 -0.1697  0.0009  0.1055
36856W        W79847   1.043  19.212   4.042  0.2009 -0.1200 -0.0492
36857W        W79848  19.904  26.219   6.145  0.1377 -0.4520  0.1337
36858W        W79849   2.252  13.033   4.033  0.0848 -0.3042 -0.2389
36859W        W79850  18.098  20.411   6.458 -0.3084  0.0748  0.0638
36860W        W79851  23.192  22.947   0.378  0.2439 -0.0256  0.3334
36861W        W79852   2.583  24.380  27.209  0.0196  0.0664  0.0871
36862W        W79853   6.427  16.772  28.813 -0.2231  0.1234 -0.1275
36863W        W79854  21.171   2.950   5.185  0.1404 -0.2383  0.2505
36864W        W79855  26.433   7.090   3.535  0.4059 -0.0461  0.0290
36865W        W79856  18.599  12.823   0.563 -0.3209  0.2496 -0.1849
36866W        W79857  32.889  15.236  22.675  0.2290 -0.0262  0.1634
36867W        W79858  22.093  27.231  21.443 -0.2274 -0.0277  0.2362
36868W        W79859  25.385  27.143  26.890  0.0831  0.1563 -0.2258
36869W        W79860  23.947  11.131   7.233  0.1137 -0.2329 -0.0117
36870W        W79861  20.281  28.733  26.846  0.0110  0.0890  0.0133
36871W        W79862  25.250   4.625  23.076 -0.2193  0.0826  0.1611
36872W        W79863  11.361   7.817   3.019  0.0087 -0.0283 -0.0442
36873W        W79864  22.753  15.471   4.236 -0.0802  0.1075  0.2679
36874W        W79865  20.858  25.977  14.749 -0.0677  0.0457 -0.0059
36875W        W79866  23.791  23.632   4.765  0.1502 -0.1543 -0.1885
36876W        W79867  32.577  21.190   3.189  0.5763 -0.1736 -0.0743
36877W        W79868  34.397  13.134  28.639  0.3044 -0.2697  0.2886
36878W        W79869  27.210  29.226   0.986 -0.0657  0.0676 -0.2947
36879W        W79870   0.642   3.690  27.573  0.0731 -0.2431  0.0341
36880W        W79871  31.575  27.513  22.114 -0.3069 -0.1406 -0.1279
36881W        W79872  29.928  18.773   4.638 -0.0610  0.1935  0.0846
36882W        W79873  18.141  29.060  26.197  0.1878 -0.0218  0.1313
36883W        W79874  19.830  16.500  12.915 -0.1436 -0.2194  0.1188
36884W        W79875  14.049  28.913   5.807 -0.1768 -0.2100 -0.1053
36885W        W79876  27.380  26.969  19.128 -0.3533 -0.1946 -0.0762
36886W        W79877   7.293  10.798  25.329  0.0734  0.0789  0.0173
36887W        W79878  13.076  14.906  23.783  0.0212  0.0933 -0.0455
36888W        W79879  32.944  25.900   9.402 -0.0407 -0.1128 -0.3227
36889W        W79880  15.798  16.347  28.882  0.0085  0.2556  0.3350
36890W        W79881   5.682  19.827   9.443 -0.0774 -0.1760  0.2688
36891W        W79882   6.388  25.558   3.902  0.0532 -0.1122 -0.3274
36892W        W79883  12.619  13.838  27.045 -0.2217  0.1604  0.0518
36893W        W79884  23.920  21.895   1.507 -0.0723  0.3249  0.2089
36894W        W79885   4.321  22.860   0.262 -0.0590  0.4753 -0.2964
36895W        W79886  30.615  28.645   7.800 -0.0568  0.0769 -0.2344
36896W        W79887  14.662  23.421  20.837 -0.1660 -0.0152 -0.1154
36897W        W79888  28.949   0.625   4.424 -0.1262 -0.1334 -0.4337
36898W        W79889   7.859  27.168   7.094  0.1151 -0.2296  0.1014
36899W        W79890   5.090  17.408   7.989  0.3011 -0.3166 -0.3204
36900W        W79891  25.052  15.481   9.047 -0.0127  0.1818  0.1997
36901W        W79892  24.660  24.035   1.197  0.5464  0.0284  0.1039
36902W        W79893  31.453  20.314  22.685  0.0026 -0.0094 -0.2926
36903W        W79894   0.752  28.935  10.082  0.0225 -0.0610 -0.0867
36904W        W79895  22.896  24.028  25.837  0.0931 -0.0023  0.2213
36905W        W79896  25.471  16.087  26.928 -0.0307  0.2274 -0.1305
36906W        W79897  28.157  22.967   4.339  0.2696  0.0608  0.2330
36907W        W79898  11.070  17.734   2.700 -0.1629 -0.0296 -0.2382
36908W        W79899  15.968  33.640  26.157  0.1448  0.0504 -0.3233
36909W        W79900  19.983  29.979  21.664  0.0744 -0.0185 -0.2395
36910W        W79901  31.066  18.950  24.967 -0.1308  0.0087 -0.1892
36911W        W79902   9.520  33.566   0.825 -0.1778 -0.1774 -0.0520
36912W        W79903   4.617  17.542  10.060 -0.1142  0.1887 -0.1642
36913W        W79904   3.965  16.588   8.073 -0.2649  0.0582  0.0931
36914W        W79905   3.216  22.247   4.815 -0.0381  0.1158  0.0446
36915W        W79906  17.563   7.758   0.900 -0.0049  0.0500 -0.0082
36916W        W79907   6.627  25.821   7.328  0.1169 -0.0643  0.0137
36917W        W79908  13.752  33.847   6.158 -0.0278  0.0979 -0.1006
36918W        W79909  27.101  16.691   9.358 -0.0494 -0.1330 -0.2850
36919W        W79910   3.486  19.945   5.421  0.0366  0.2781  0.0504
36920W        W79911  24.680  21.681   8.299  0.1571 -0.0123  0.1213
36921W        W79912   3.453  14.841  26.342  0.1182 -0.0872  0.4514
36922W        W79913  22.401  18.047   4.597 -0.0772 -0.1381  0.2269
36923W        W79914  31.332  26.713   0.360  0.2480  0.2726 -0.3482
36924W        W79915  21.228  32.519  25.762  0.1069 -0.1466  0.1074
36925W        W79916   7.615  31.931  23.063 -0.2029  0.1477  0.3577
36926W        W79917  33.696  14.320  24.710  0.1070 -0.0377 -0.1146
36927W        W79918   4.193   1.285  28.937 -0.1683  0.1026 -0.1771
36928W        W79919  24.409  13.970   5.354  0.1209  0.0565  0.0402
36929W        W79920  24.394  16.784  28.839 -0.2159  0.2981  0.4073
36930W        W79921  16.447  28.443   7.941 -0.3320 -0.0171 -0.0255
36931W        W79922   4.824  23.405   9.215 -0.0707  0.0879  0.0699
36932W        W79923  19.111  33.228  26.051 -0.0607 -0.0472 -0.0786
36933W        W79924  34.692  26.706   6.247  0.0242 -0.0510 -0.0902
36934W        W79925  19.319  34.207  28.621 -0.0356 -0.0177  0.1811
36935W        W79926  21.529  18.345   9.106  0.0003 -0.0930 -0.3591
36936W        W79927  20.757  21.181   1.651 -0.0644  0.2697 -0.1123
36937W        W79928  28.319  24.296  24.427 -0.2741 -0.1392  0.1636
36938W        W79929  34.477  18.806   2.088  0.0006 -0.0714 -0.2433
36939W        W79930   3.406  11.245   1.931 -0.1269 -0.0396  0.1586
36940W        W79931   1.880  16.976  12.544 -0.0445  0.1216  0.0448
36941W        W79932  32.869   4.042   6.505  0.0612  0.0874 -0.2239
36942W        W79933   3.484   0.921   8.317  0.0751  0.0363  0.0411
36943W        W79934  29.439  23.313  26.371 -0.3008 -0.0032  0.1082
36944W        W79935  11.176  25.203  29.001 -0.0066 -0.2408 -0.3993
36945W        W79936  24.766  30.934  29.139  0.2417  0.1506 -0.1599
36946W        W79937  34.743  27.606  26.132 -0.0536  0.2077  0.1519
36947W        W79938   6.759  12.476  25.666  0.0431  0.1827 -0.3005
36948W        W79939  18.693  10.474   5.066 -0.0172 -0.0825 -0.2810
36949W        W79940  20.674  23.113   8.909  0.1051  0.0413  0.0401
36950W        W79941  28.539  10.817   9.742 -0.2708 -0.0421  0.1339
36951W        W79942   1.144  27.028   3.589 -0.2322 -0.1996  0.0467
36952W        W79943  24.944  20.015  13.931 -0.4148 -0.0551 -0.3917
36953W        W79944  26.706  30.014  20.036  0.1571 -0.1049  0.2650
36954W        W79945  28.103  15.850   5.148 -0.1482 -0.0777 -0.1093
36955W        W79946  24.336  20.097  26.435 -0.0879  0.1854 -0.0156
36956W        W79947  23.541  20.874   8.921  0.1428  0.1861  0.0885
36957W        W79948   0.280  15.780  25.230 -0.2609  0.0916  0.0667
36958W        W79949  21.802  11.510   2.195 -0.2617  0.1046  0.1497
36959W        W79950   0.635   9.669   0.892 -0.0772  0.1863 -0.1437
36960W        W79951  27.234  31.916   8.208 -0.0483 -0.2382 -0.0667
36961W        W79952   5.761  17.461  24.413 -0.3205  0.2215 -0.2292
36962W        W79953  18.814  27.610  21.385 -0.1604  0.1988  0.1782
36963W        W79954   3.203  23.056  27.409 -0.0154 -0.1231 -0.1260
36964W        W79955  17.332  30.085   0.197  0.0119  0.1860 -0.1435
36965W        W79956  21.475  20.268  29.023 -0.1239  0.0597 -0.0583
36966W        W79957  31.173  27.845   8.206 -0.0889 -0.2345  0.3499
36967W        W79958  33.648   0.150  29.102 -0.1556 -0.3009 -0.0532
36968W        W79959  30.621  28.659   0.894  0.2339  0.0634 -0.0906
36969W        W79960  25.799  18.835  21.966 -0.0054  0.1084  0.2218
36970W        W79961  28.100  32.681  28.978  0.0224  0.1552 -0.2111
36971W        W79962  28.865  18.988   1.234  0.1754 -0.4448 -0.0753
36972W        W79963   1.383  30.216  23.161 -0.0022  0.1861 -0.2767
36973W        W79964  34.640  18.561  10.709  0.1360 -0.3570 -0.0919
36974W        W79965  34.150  33.133  25.138 -0.6170 -0.2133  0.0552
36975W        W79966  19.414   1.609  27.015 -0.0166  0.0514  0.2325
36976W        W79967   4.058   6.599   5.635 -0.2599 -0.3551 -0.2251
36977W        W79968  34.164  23.118  29.082 -0.1542  0.0307  0.4212
36978W        W79969   0.633  25.692   9.754 -0.0460 -0.4662  0.2470
36979W        W79970   0.224  24.004   4.338  0.0071 -0.1252  0.2018
36980W        W79971   3.015  21.769   6.459  0.1974  0.0957  0.0939
36981W        W79972  23.254  14.760   4.869  0.2159  0.0948  0.2829
36982W        W79973  22.154  21.256   5.255  0.3243  0.2785 -0.0611
36983W        W79974   4.953  33.804  10.443 -0.1361 -0.0877 -0.0966
36984W        W79975  33.357  19.620   5.672  0.1022 -0.0779 -0.2260
36985W        W79976   3.938  10.066   8.089 -0.3050 -0.2558 -0.0330
36986W        W79977  34.041  28.089  25.531  0.1411 -0.0190  0.1030
36987W        W79978  32.031   1.455   7.622  0.0396  0.1046  0.3050
36988W        W79979   9.496  14.985   5.415 -0.2334  0.1011 -0.3327
36989W        W79980  18.461  23.165   8.383  0.0422  0.1036 -0.0928
36990W        W79981  30.915  12.693   1.325 -0.0671 -0.1076  0.3135
36991W        W79982  22.867  30.935   0.491 -0.1312  0.1127 -0.0972
36992W        W79983  29.525  26.473   9.628  0.0824 -0.2710  0.1473
36993W        W79984  30.871  22.151  26.829 -0.3435  0.0802  0.0830
36994W        W79985  28.798  13.855   0.526  0.1707 -0.1516  0.2729
36995W        W79986  21.591   1.117  28.511  0.0560 -0.1879  0.2173
36996W        W79987   9.658  25.052  27.712 -0.1632  0.0321 -0.0336
36997W        W79988  26.209  29.405   8.746 -0.1934 -0.0863  0.0315
36998W        W79989  19.899  18.788   4.406  0.0789 -0.5320 -0.0492
36999W        W79990   0.129  19.788   9.916  0.0792  0.2056 -0.0720
37000W        W79991  19.066  18.220   7.302  0.2394  0.0545 -0.3734
37001W        W79992  21.530  15.009   0.012 -0.2426  0.2937  0.1336
37002W        W79993  29.393   7.232   4.098 -0.1706 -0.0408 -0.1775
37003W        W79994  31.645  18.777   1.779 -0.2006 -0.0652  0.1472
37004W        W79995   3.365  34.659   0.859 -0.1244  0.1816  0.0211
37005W        W79996   7.879  20.726  26.328  0.1305 -0.3207 -0.3687
37006W        W79997  26.830  19.368  26.410 -0.3445  0.2240  0.2435
37007W        W79998   4.582  28.602   4.831 -0.1764 -0.0979 -0.1054
37008W        W79999  29.240  24.996   2.555  0.0499 -0.0239  0.1318
37009W        W80000  24.025  22.500   2.113  0.0415  0.1412 -0.0831
37010W        W80001   3.983  32.102   3.229 -0.0068 -0.5139 -0.1496
37011W        W80002   9.384  21.356  26.997  0.1092  0.3645 -0.2968
37012W        W80003   1.923  29.367  18.138 -0.1702  0.1499 -0.0617
37013W        W80004  22.309  24.086  26.388 -0.2190 -0.0611  0.1216
37014W        W80005   3.126  23.530  25.930 -0.0806  0.2357 -0.1783
37015W        W80006  18.484   9.168   7.913 -0.1579 -0.1703  0.0017
37016W        W80007   5.399  27.522   4.317 -0.0584  0.1326  0.1796
37017W        W80008  27.749  27.410  25.494 -0.1479  0.0298 -0.1194
37018W        W80009  27.621  21.682   5.195 -0.3097 -0.1014  0.1257
37019W        W80010  20.639  30.837  23.427 -0.1940  0.0130 -0.0951
37020W        W80011  31.023   2.282  28.501 -0.0999 -0.2568 -0.2166
37021W        W80012  25.195   9.709   9.089 -0.1356  0.1520  0.1249
37022W        W80013  29.833  22.878  28.183 -0.0109  0.3205 -0.0300
37023W        W80014  22.505  19.105  24.046  0.2295  0.2259  0.1959
37024W        W80015  26.995   1.014   8.008 -0.0608 -0.3720 -0.0020
37025W        W80016  15.147   3.538   7.566 -0.0085  0.4047  0.0231
37026W        W80017  23.013  24.084  16.076  0.0565 -0.2452 -0.0735
37027W        W80018  24.359  21.327   0.177 -0.3434  0.1023  0.4660
37028W        W80019  19.536  14.186  26.598 -0.4110 -0.0896  0.1220
37029W        W80020  10.776  18.874  21.942  0.1474 -0.2683  0.0354
37030W        W80021  24.861  27.809  26.147  0.2331 -0.3296  0.2119
37031W        W80022  25.964  29.434   2.879  0.1864  0.1180  0.1654
37032W        W80023   5.731  26.995  17.759  0.1813 -0.5530  0.2536
37033W        W80024  27.822  29.891  28.039 -0.0419  0.1337  0.0463
37034W        W80025   5.691  20.796  10.574  0.1844 -0.0951 -0.1902
37035W        W80026  15.208  18.852   1.173 -0.1478 -0.0788  0.1697
37036W        W80027   7.311  23.517   4.827 -0.0933 -0.4531  0.2204
37037W        W80028   9.867  13.587   7.758  0.0774  0.0424  0.2247
37038W        W80029  24.562  31.045   2.638  0.2039 -0.2382  0.0718
37039W        W80030  18.920  34.330   5.457 -0.0797 -0.0559  0.1894
37040W        W80031  27.966  14.301   9.538 -0.0238  0.0016 -0.2763
37041W        W80032  29.565   2.942   9.243  0.0555 -0.0677  0.4223
37042W        W80033  18.357  32.252   7.255  0.1341  0.3569 -0.1646
37043W        W80034   8.436  33.638  23.629 -0.1740  0.1425  0.3264
37044W        W80035  27.239  28.057   7.434  0.3256 -0.1275 -0.1696
37045W        W80036  11.928  32.241   1.672  0.1508  0.2075 -0.0973
37046W        W80037   8.201   8.787  23.517  0.1407  0.0995  0.1643
37047W        W80038  18.277  16.698  29.130  0.0808  0.0935  0.0806
37048W        W80039  30.196  21.822   3.341  0.2295 -0.0526 -0.1737
37049W        W80040  22.024  22.961  16.976  0.1811 -0.1534  0.2047
37050W        W80041   0.198  18.425  21.175  0.0971 -0.0411  0.1112
37051W        W80042   6.661   0.067   3.295 -0.2082 -0.0055  0.0251
37052W        W80043   5.254  33.698   9.468 -0.0740  0.1935 -0.1417
37053W        W80044   5.219   1.135   6.655 -0.0460 -0.0625  0.0446
37054W        W80045  18.772  21.149  20.926  0.1272 -0.2283  0.0817
37055W        W80046  13.763  27.870   8.879 -0.1216  0.2827  0.1396
37056W        W80047  28.323  20.313   3.708  0.1813  0.1783 -0.1765
37057W        W80048  21.010  11.951   0.507  0.0321 -0.1143  0.3218
37058W        W80049   1.645  27.121  20.856 -0.0383  0.2247 -0.2803
37059W        W80050  29.641  16.906  10.341 -0.0140  0.0985  0.0418
37060W        W80051  10.592   9.218  25.405  0.0969  0.1728  0.0587
37061W        W80052   9.569  21.227   7.942 -0.0512 -0.3203 -0.0437
37062W        W80053   0.458  19.736   8.964 -0.0518  0.2331 -0.2861
37063W        W80054  17.327  12.333   9.798  0.2428 -0.1735 -0.3089
37064W        W80055  28.611  34.063   1.466  0.0382  0.3498 -0.1650
37065W        W80056  19.602  10.685   7.098 -0.1805  0.1694  0.2096
37066W        W80057  27.866  31.217   2.292  0.1028  0.0603 -0.1512
37067W        W80058   1.965  11.762  10.830  0.0523 -0.1437  0.0316
37068W        W80059  29.404  22.802  26.549  0.3388 -0.0848  0.0973
37069W        W80060   1.701  31.045  27.405  0.2977  0.1472 -0.3482
37070W        W80061  12.722   9.573   9.041  0.0141  0.1788  0.1480
37071W        W80062   6.228  26.555  24.867 -0.1108 -0.1461 -0.0159
37072W        W80063  34.115   4.107  25.207 -0.1050  0.0322 -0.0310
37073W        W80064  11.292  15.406   3.438  0.0952  0.1662  0.0241
37074W        W80065  34.627  27.419  19.170  0.1036  0.0962 -0.2697
37075W        W80066  23.143  22.128   0.544 -0.0895 -0.0749  0.1686
37076W        W80067   4.964  12.688   3.476  0.2193 -0.0118  0.0236
37077W        W80068   3.789  16.485  10.757  0.0184 -0.1028 -0.2235
37078W        W80069   6.648   9.917   7.648 -0.2363  0.2945  0.2949
37079W        W80070  24.363  26.782   0.146  0.4208  0.2375  0.3515
37080W        W80071  24.104  21.489   3.600 -0.0774  0.1510  0.1907
37081W        W80072  23.820  25.094   2.953 -0.2227 -0.0562  0.1771
37082W        W80073  26.481   5.838  28.469  0.2447  0.0051  0.0535
37083W        W80074  26.486  25.141   1.776 -0.1363 -0.0233  0.0100
37084W        W80075   4.896  29.135   2.648  0.4137  0.0211  0.0012
37085W        W80076  23.971   1.975   3.242  0.3690  0.3313  0.1134
37086W        W80077   1.796  19.551   9.734  0.0584  0.0179 -0.1831
37087W        W80078  28.826  23.672  21.355  0.2565 -0.0211  0.0778
37088W        W80079  33.109  27.603  22.556 -0.3021  0.1155  0.1859
37089W        W80080  25.048  22.298   3.366  0.0860  0.0645 -0.0788
37090W        W80081   2.102  25.516   2.859 -0.2005  0.3586 -0.0425
37091W        W80082  21.869   1.687  28.853  0.1462 -0.1674  0.0061
37092W        W80083  26.467  34.314   0.404  0.2033  0.0179 -0.0526
37093W        W80084  32.119   7.129   0.143 -0.0036 -0.0049  0.0592
37094W        W80085  23.382  27.360  26.921 -0.0625  0.2870 -0.1881
37095W        W80086   3.685   3.641   1.879 -0.2808 -0.0156 -0.4198
37096W        W80087  25.708  28.914   1.491  0.0438  0.0294  0.2240
37097W        W80088   3.189  18.179  26.033 -0.1867 -0.2600  0.1343
37098W        W80089   0.277  18.776  24.350  0.0362 -0.2812 -0.1244
37099W        W80090  21.112  24.978   7.870  0.0585 -0.0900 -0.0658
37100W        W80091  31.940  31.506   7.645 -0.1527  0.0045  0.0107
37101W        W80092  27.907   1.936   5.508 -0.4205  0.0599  0.1790
37102W        W80093  11.737  26.667   1.929  0.0562  0.0309  0.1746
37103W        W80094  21.202  15.021  26.724 -0.1961  0.1199 -0.3604
37104W        W80095   1.869  23.959   7.382  0.0613 -0.0242  0.2371
37105W        W80096  24.656  27.856   4.331  0.2783 -0.1602  0.1827
37106W        W80097   7.849  28.566   0.024  0.1209 -0.0110  0.1422
37107W        W80098  25.399  33.413   8.746  0.0711  0.4016 -0.0170
37108W        W80099  20.599  16.135   0.941 -0.3356  0.1595 -0.0894
37109W        W80100   0.497  30.957   6.341  0.0409  0.1677 -0.0375
37110W        W80101  32.077  28.709   4.242 -0.0330  0.4491 -0.1157
37111W        W80102  27.092   4.015   9.502 -0.0794 -0.0261  0.3463
37112W        W80103  23.849   6.178   1.914  0.1583  0.0841  0.0325
37113W        W80104  31.212  22.251   9.377 -0.2307  0.2486  0.1323
37114W        W80105   7.851   8.368   9.781  0.3064 -0.0734  0.0335
37115W        W80106  32.446   7.896   3.096  0.0971  0.3327 -0.0737
37116W        W80107  33.307  26.782   5.557 -0.0953 -0.0972 -0.0864
37117W        W80108  28.586   2.776   8.401  0.3238  0.0013 -0.0049
37118W        W80109  21.251  28.028   8.468 -0.3264  0.0846  0.1877
37119W        W80110  31.898  31.688  25.979  0.1158  0.2657 -0.3061
37120W        W80111  10.640  15.701   6.665  0.0690  0.1779  0.0447
37121W        W80112   6.562  25.016   0.937  0.3857 -0.0446 -0.2603
37122W        W80113  29.583   3.553   2.701  0.3667 -0.0110 -0.0185
37123W        W80114   4.387  27.060  13.703 -0.0731  0.0076 -0.1009
37124W        W80115  28.156  19.480  27.523 -0.2261  0.0600  0.2777
37125W        W80116   1.629  33.744  25.616 -0.0715 -0.3823  0.1027
37126W        W80117  33.274  24.642   3.603 -0.0173  0.0042 -0.2481
37127W        W80118  15.612  14.776   4.118  0.2308  0.3517 -0.0485
37128W        W80119  21.615  29.302   4.484 -0.1756 -0.0178  0.0358
37129W        W80120   4.692  18.914  10.878  0.0687 -0.0341  0.0725
37130W        W80121  30.449  15.514   9.641 -0.2649  0.1400  0.0555
37131W        W80122   1.081  24.298   4.706 -0.1540  0.2818  0.0474
37132W        W80123  17.686  19.472   8.295  0.0858  0.0921  0.0533
37133W        W80124  32.911  27.792   6.788 -0.3575 -0.3529 -0.0124
37134W        W80125  30.241  19.768  28.025  0.1688  0.1710 -0.2040
37135W        W80126  28.616  22.046   7.183 -0.2484  0.0561 -0.1656
37136W        W80127  24.805  28.547  25.565  0.0017 -0.5003 -0.0394
37137W        W80128   4.857  26.394   9.650  0.0902 -0.1793 -0.2041
37138W        W80129  20.785   6.334   8.855 -0.0990  0.1504  0.0031
37139W        W80130  20.476  26.200  29.004  0.1264 -0.0374  0.1549
37140W        W80131  28.276  26.573   9.199 -0.1580 -0.1491  0.1541
37141W        W80132  32.423  20.627   4.612  0.3117 -0.0226 -0.1566
37142W        W80133  31.766  23.224   7.763 -0.0185  0.1439  0.1730
37143W        W80134   4.264  32.180   7.271  0.2652  0.2697  0.3548
37144W        W80135  20.140  30.036   9.436 -0.1104  0.3674 -0.2647
37145W        W80136   1.479  12.092  22.846  0.1230  0.0674 -0.2876
37146W        W80137  16.276  22.903  28.985  0.0052  0.1682  0.2483
37147W        W80138   8.602  19.355   1.077 -0.1829 -0.1662 -0.1359
37148W        W80139  23.413  21.060   1.363 -0.1540 -0.1812  0.1787
37149W        W80140  18.643  30.353   6.503  0.0122 -0.0619  0.2024
37150W        W80141   3.957  20.133   9.573 -0.2197  0.0997 -0.0345
37151W        W80142   7.178  12.671  26.004 -0.2286 -0.1208 -0.0594
37152W        W80143   5.487  13.360   5.114 -0.0421  0.1857 -0.0905
37153W        W80144  26.914  25.064   5.373  0.0442  0.0074 -0.0657
37154W        W80145  16.018   0.447   9.028 -0.0206  0.1229  0.0522
37155W        W80146  26.548  10.190   5.925 -0.0803 -0.0439  0.0021
37156W        W80147  19.449  25.456   5.580  0.0270  0.0928  0.1057
37157W        W80148  24.747  11.265   5.088  0.1598 -0.3012 -0.2877
37158W        W80149   1.661  15.878  28.019 -0.3904 -0.0089 -0.1309
37159W        W80150  27.659   2.120   4.647 -0.1965  0.2720  0.0578
37160W        W80151  30.664  19.125   8.685  0.0360 -0.0552 -0.0207
37161W        W80152  22.486  14.974   8.884 -0.0556 -0.0952  0.3770
37162W        W80153  27.610  19.870   6.661 -0.2119 -0.1910 -0.1655
37163W        W80154  34.145  17.006   3.771  0.1991 -0.1633 -0.1375
37164W        W80155  29.517  11.667  22.099 -0.0369 -0.0485 -0.1512
37165W        W80156  31.608  21.385   1.673 -0.2037 -0.0221  0.0479
37166W        W80157   6.431   4.818  22.973 -0.2165 -0.1700  0.1509
37167W        W80158  21.142  10.476   2.428 -0.1934 -0.0301 -0.2572
37168W        W80159  32.201  26.970   0.977  0.3838  0.0066 -0.1539
37169W        W80160  32.498  25.028   8.321 -0.0928 -0.1963  0.0889
37170W        W80161   1.466   4.692  17.881 -0.0563  0.0261  0.1782
37171W        W80162   3.382  24.167  29.155 -0.0447  0.0269 -0.3210
37172W        W80163  30.951   5.378   3.098  0.1486  0.2416  0.2789
37173W        W80164  29.780   8.836  21.149  0.1994  0.3114 -0.0456
37174W        W80165   1.180  15.943   8.073  0.1993 -0.0582  0.0713
37175W        W80166  30.262  27.781   7.966 -0.1318  0.0302 -0.0547
37176W        W80167  27.170  27.381   4.632  0.1001 -0.1434 -0.1868
37177W        W80168  18.139  20.056  28.773  0.0269  0.2396 -0.0733
37178W        W80169  25.355  21.821   7.528  0.0642  0.0825  0.1538
37179W        W80170   2.220  17.301   7.850  0.1552  0.0166 -0.0564
37180W        W80171   9.178  10.564   7.798 -0.1282 -0.2767  0.0428
37181W        W80172  18.521  18.490   3.355 -0.0765 -0.0522 -0.0028
37182W        W80173   2.916  26.943  18.966  0.3522  0.1040 -0.3153
37183W        W80174   5.162  14.364  21.855  0.1643 -0.4971  0.2390
37184W        W80175  30.331  30.105  23.458  0.1073  0.0765 -0.1103
37185W        W80176  27.852   3.408   7.037 -0.2163 -0.0064 -0.0292
37186W        W80177  26.772  25.497   3.748 -0.0106 -0.0820 -0.2329
37187W        W80178  31.259  20.041  27.871 -0.0196  0.1586  0.2167
37188W        W80179  20.923  25.811   2.615 -0.1239  0.3829 -0.2478
37189W        W80180   5.525  14.539   5.525 -0.0673 -0.2499 -0.1154
37190W        W80181  25.181  30.717   0.714  0.1948 -0.1975  0.2459
37191W        W80182  34.174  22.288   5.043  0.0194  0.1411 -0.1642
37192W        W80183  24.669  25.173   6.056 -0.1620 -0.0433 -0.2683
37193W        W80184  33.832   0.044   0.891  0.3167 -0.1199 -0.3841
37194W        W80185  34.226  28.393   3.922 -0.0153 -0.0726 -0.0814
37195W        W80186  22.485   1.343  17.034 -0.0075 -0.3950  0.1471
37196W        W80187  30.224   8.122   7.411  0.1974 -0.1619  0.2174
37197W        W80188  30.317   6.961   1.344  0.1621 -0.0476 -0.2298
37198W        W80189  25.287  23.713   1.978 -0.0814 -0.0002  0.3026
37199W        W80190  28.720   3.814  19.534  0.1775 -0.0942  0.1364
37200W        W80191  17.542  28.134   6.055 -0.0006  0.1676  0.1151
37201W        W80192   5.459   5.749  22.972 -0.2501  0.1958  0.1615
37202W        W80193  22.409   8.360   0.100 -0.0198 -0.0806  0.0782
37203W        W80194  16.630   6.316   8.883  0.0871  0.0474 -0.1410
37204W        W80195  25.321   4.648   4.343  0.0550 -0.0988  0.2331
37205W        W80196   9.664  12.388  27.820 -0.1154  0.0257 -0.1684
37206W        W80197  20.358  27.873  23.795  0.2427 -0.0713  0.0792
37207W        W80198  13.346  14.569   8.568 -0.0983 -0.2593  0.3979
37208W        W80199  33.682   0.064   0.389  0.0946  0.0333  0.1027
37209W        W80200  31.904  11.018  27.702 -0.0841 -0.1844 -0.2656
37210W        W80201   0.770  11.954   7.306 -0.2108  0.0965  0.1820
37211W        W80202  21.174  21.493   1.276  0.2199  0.0457 -0.1922
37212W        W80203   6.012  24.327   4.805  0.1147  0.1463 -0.1306
37213W        W80204  30.559  31.532  28.973  0.0337  0.0135 -0.0845
37214W        W80205  34.621  12.500  11.649  0.1107  0.2181  0.1265
37215W        W80206   2.721  19.224   6.211  0.0005 -0.0692 -0.0877
37216W        W80207  23.552  25.729   4.465 -0.0710  0.2106  0.0257
37217W        W80208  27.057  25.612   0.663 -0.1227 -0.4154  0.0420
37218W        W80209  20.198  34.751   8.570  0.0512  0.0897  0.2043
37219W        W80210  32.763  16.248  25.338 -0.0924 -0.1290  0.0186
37220W        W80211  33.224  18.542   2.587 -0.1050 -0.1382  0.1946
37221W        W80212   6.348  24.643   1.160  0.3692  0.1660  0.0849
37222W        W80213  21.699  20.253  19.755  0.0143  0.2294  0.1099
37223W        W80214  34.444  25.448   2.570  0.1218  0.1762  0.0964
37224W        W80215   3.041   1.520   1.316  0.1684  0.0818  0.1081
37225W        W80216   2.078  22.138   9.558 -0.0457 -0.2791  0.0841
37226W        W80217  20.941  21.958   3.606 -0.0162  0.0510 -0.1947
37227W        W80218  19.553  23.814  23.654  0.0282  0.2667  0.2626
37228W        W80219   8.056  31.269   8.380 -0.0721  0.0463 -0.1524
37229W        W80220   2.620  24.649   9.674  0.1978 -0.1247 -0.2997
37230W        W80221  29.304  24.590  25.348 -0.2218  0.1196 -0.0408
37231W        W80222   9.970  22.041  27.153  0.1934 -0.1798  0.3584
37232W        W80223  11.829  29.699   7.508 -0.3183 -0.0990 -0.3175
37233W        W80224  23.643  21.066   8.394 -0.2354  0.2172  0.0767
37234W        W80225  28.992  21.464  29.031 -0.0104  0.3170  0.2682
37235W        W80226   6.005  29.230   8.268 -0.2408 -0.1518 -0.2989
37236W        W80227  31.651  15.095   8.872 -0.1624  0.1340 -0.1165
37237W        W80228  13.744  26.541   6.554 -0.1316  0.2560 -0.0374
37238W        W80229  21.586  16.499  21.946 -0.0412  0.1557 -0.2579
37239W        W80230   9.127  26.131   9.768  0.1156  0.3493  0.1600
37240W        W80231  14.223   0.838   2.012 -0.2463 -0.0040 -0.0357
37241W        W80232  27.622  13.887  21.859  0.0083 -0.1774 -0.0512
37242W        W80233  25.935  14.287  25.796 -0.1184  0.1015  0.1044
37243W        W80234   5.684  20.209   5.707 -0.1843 -0.3841 -0.0015
37244W        W80235  25.966  32.145   4.884 -0.0934 -0.0819  0.2878
37245W        W80236  14.672   5.988  27.461 -0.1205 -0.3608 -0.0072
37246W        W80237  21.038  34.089   6.212  0.2680  0.1032 -0.1814
37247W        W80238  24.451   0.236  28.091 -0.1462  0.3854 -0.0079
37248W        W80239  30.587  24.121  10.141 -0.0021  0.2040 -0.0366
37249W        W80240  33.692   2.816   5.520  0.0912  0.0894 -0.0788
37250W        W80241   3.578  21.147   3.634  0.1391 -0.3014  0.1996
37251W        W80242   8.196  18.324   8.858 -0.0048  0.0582 -0.0501
37252W        W80243   5.213  21.812   8.258 -0.1839 -0.1639  0.1690
37253W        W80244   8.871  30.281   3.449 -0.6075 -0.0061 -0.0156
37254W        W80245   1.642   6.616   7.296  0.1189 -0.0843  0.0231
37255W        W80246  10.123  26.058   2.714  0.2006  0.0187  0.1283
37256W        W80247   2.359  26.666   1.904  0.0704  0.0216 -0.0162
37257W        W80248  17.492  13.199   6.746  0.2354 -0.0777  0.0164
37258W        W80249   0.626  14.662  26.544  0.0064 -0.1400 -0.1570
37259W        W80250  33.344   8.742  23.546 -0.1583 -0.0094  0.0558
37260W        W80251  24.577  22.717   7.298 -0.0272 -0.1585  0.0081
37261W        W80252  25.898  12.803   8.820  0.1095 -0.1096  0.0163
37262W        W80253   1.123  13.870  11.824  0.1361 -0.1157 -0.0176
37263W        W80254  29.053  24.971   6.123 -0.0967 -0.0324 -0.0256
37264W        W80255  13.213   4.293   6.036 -0.2912  0.1691 -0.0633
37265W        W80256  21.694  22.521   0.939 -0.4014  0.1269  0.1759
37266W        W80257  25.508  24.139   8.500 -0.1619 -0.2189  0.0864
37267W        W80258   1.262  12.675   6.821  0.0023  0.0433  0.1182
37268W        W80259  29.459  23.488   3.470 -0.2929  0.0816 -0.0393
37269W        W80260  15.189  28.393  18.513 -0.1021  0.0640  0.0154
37270W        W80261  29.601  28.365   3.886 -0.1619  0.0704  0.2418
37271W        W80262  32.636  34.151   6.857 -0.0727  0.0609  0.0766
37272W        W80263  26.257   3.559   3.965  0.0120 -0.0093 -0.0409
37273W        W80264   4.637  33.337   3.379  0.2892  0.1226 -0.0454
37274W        W80265  31.857  31.312   1.404 -0.2012 -0.2623 -0.1073
37275W        W80266  22.181  21.284  20.533 -0.0286  0.2839  0.3586
37276W        W80267  13.020  21.722   7.098  0.2588  0.2392  0.1141
37277W        W80268  29.585  17.425   3.213 -0.0715  0.1041  0.0332
37278W        W80269  27.461  33.947   8.479 -0.4946  0.0997 -0.2218
37279W        W80270  22.136  24.974  20.190 -0.0911 -0.0100 -0.1459
37280W        W80271   0.730  30.738   1.918 -0.1221 -0.0521 -0.0965
37281W        W80272  11.051  32.040   6.849  0.0488  0.1073 -0.2863
37282W        W80273   4.766  19.996   8.465  0.0589  0.2932 -0.0771
37283W        W80274  13.117  18.040  28.453 -0.1608  0.0368 -0.1395
37284W        W80275  22.358  12.017   1.562  0.1681 -0.0536 -0.2349
37285W        W80276   3.613  19.716  24.212  0.1670 -0.1017  0.1608
37286W        W80277   3.934  19.602  25.711 -0.1142  0.3619 -0.1541
37287W        W80278  32.253   1.239  28.309  0.0845 -0.1671 -0.0384
37288W        W80279  28.937  27.553   4.475 -0.2479  0.3351  0.1942
37289W        W80280  13.180   3.111  26.319  0.1135 -0.0211  0.1027
37290W        W80281   4.404   2.814  27.547 -0.4990  0.3349  0.1254
37291W        W80282  11.139  23.653   5.491 -0.1401  0.1303  0.0232
37292W        W80283   0.852  25.930   6.411  0.5378  0.0801  0.1783
37293W        W80284  25.824  12.212   5.839  0.2068  0.2864 -0.1576
37294W        W80285   0.655  22.596   8.062 -0.1116  0.2472  0.2151
37295W        W80286  20.922  17.947   3.880 -0.1269  0.2342  0.3727
37296W        W80287  15.048  17.000   5.184  0.3843  0.0495  0.2898
37297W        W80288  20.160  19.373  21.148 -0.2718 -0.1802 -0.0947
37298W        W80289  30.095   7.941   0.500  0.0233  0.0427 -0.1203
37299W        W80290  26.549  20.262  20.630 -0.1767  0.1419  0.1271
37300W        W80291   4.932  12.181   1.307  0.0611 -0.1898  0.0461
37301W        W80292  33.661  20.051  10.067  0.0678  0.2939  0.3946
37302W        W80293  19.743  21.257   8.066 -0.0154  0.0536  0.0264
37303W        W80294   7.535  26.501  28.840  0.1822  0.0366  0.2198
37304W        W80295  19.185  16.756   8.319 -0.0780 -0.2063 -0.0884
37305W        W80296  13.282  29.331  27.666  0.1275  0.1683  0.2170
37306W        W80297   2.278  23.596   4.940  0.0286 -0.3262 -0.3145
37307W        W80298  26.221  18.747  22.245  0.0762  0.3747  0.3162
37308W        W80299   3.209  31.963  20.028  0.1899  0.0821 -0.1657
37309W        W80300   5.531  31.390  23.550  0.1190 -0.1524 -0.4126
37310W        W80301   0.413  19.840  23.406  0.1424  0.1036  0.4156
37311W        W80302  14.001  32.947  28.768  0.1856 -0.3480  0.0107
37312W        W80303  25.292  22.059   4.815 -0.1198 -0.0219 -0.0568
37313W        W80304  22.137  34.478   6.910  0.0036  0.0882  0.3043
37314W        W80305  20.850  15.353   3.187  0.1657 -0.2248  0.1251
37315W        W80306  18.396   2.440   9.602  0.1419  0.3532  0.1503
37316W        W80307  14.174  30.476   3.129 -0.3017  0.1298  0.3733
37317W        W80308   2.011  24.245   9.992 -0.2041  0.1877  0.0531
37318W        W80309  27.811  16.849   9.192 -0.2113 -0.0615 -0.0084
37319W        W80310   4.102  26.856   7.458 -0.0510  0.0940  0.0050
37320W        W80311  26.058  28.749   3.924  0.1278  0.0194 -0.2177
37321W        W80312   4.532  23.932  16.596  0.1475 -0.0277  0.1871
37322W        W80313  31.708  25.925   6.131  0.1414 -0.0621  0.2196
37323W        W80314  33.828  30.128  19.539  0.0136  0.1311  0.0323
37324W        W80315   0.903  20.381   8.034 -0.1613  0.0560  0.0908
37325W        W80316  23.765  23.847   8.816  0.1575 -0.4174  0.3409
37326W        W80317  15.270  22.647  21.342  0.0646 -0.1697 -0.0586
37327W        W80318  27.288  19.359   9.660 -0.1472  0.0789  0.1588
37328W        W80319  26.846  22.817  22.532 -0.1514 -0.3357 -0.1853
37329W        W80320  32.026  12.605   4.597  0.1485  0.0404 -0.2345
37330W        W80321  21.371  28.657   5.221  0.1786 -0.4894  0.2040
37331W        W80322   3.452  17.851  28.999 -0.3348  0.0392 -0.0053
37332W        W80323  32.581  13.470   8.000 -0.1361 -0.1463 -0.0373
37333W        W80324  25.723  19.815  24.334 -0.0389  0.0159  0.0585
37334W        W80325   6.051  14.404   6.587 -0.0209  0.0288  0.3030
37335W        W80326   5.541  30.741  19.110  0.2135  0.0999 -0.3699
37336W        W80327  30.494  19.000  23.598 -0.3001  0.2033 -0.1150
37337W        W80328  34.327  22.745   1.339 -0.2100 -0.0071 -0.0356
37338W        W80329   2.571   7.108   8.674 -0.2204  0.1934  0.2433
37339W        W80330  25.146  14.564   6.995  0.0263 -0.1527  0.0685
37340W        W80331   6.573   0.520   3.107  0.3555  0.0537 -0.3686
37341W        W80332  25.427  30.281  14.292 -0.1141 -0.2291 -0.2018
37342W        W80333  29.566  24.839   6.553  0.5481 -0.1050 -0.0745
37343W        W80334  22.955  21.371   7.701  0.0210  0.4608 -0.4998
37344W        W80335  21.860  27.481   9.368 -0.2629 -0.1262 -0.0215
37345W        W80336  14.290  28.704   6.849 -0.0340  0.0793  0.0764
37346W        W80337  19.026  27.122  20.139 -0.4915 -0.2211  0.2117
37347W        W80338  31.123  26.120   7.341  0.2469 -0.1552  0.1747
37348W        W80339  22.359  14.522  22.835 -0.1813 -0.1468 -0.2246
37349W        W80340  24.964  27.108  26.574  0.0529  0.2731 -0.2899
37350W        W80341  32.883  28.765   3.731  0.0560 -0.2432  0.1181
37351W        W80342  11.734   4.834   7.632  0.3055  0.0592 -0.0467
37352W        W80343  34.189  21.870   7.174  0.0466  0.0217 -0.1723
37353W        W80344   3.123   6.804   4.381  0.3739 -0.1591 -0.0964
37354W        W80345  28.313  16.709  15.346  0.2774 -0.2768 -0.1606
37355W        W80346  29.686  26.918  28.321 -0.0824 -0.2829  0.2298
37356W        W80347  29.955  21.254   8.228 -0.0227 -0.0804 -0.0909
37357W        W80348  25.313  34.442  23.479 -0.0584  0.1688  0.0339
37358W        W80349  15.241  27.228   8.295  0.2056 -0.2354  0.1128
37359W        W80350  24.792   0.891   5.243 -0.1032  0.4294  0.0057
37360W        W80351  17.063   9.180   3.881  0.2506 -0.0632 -0.1520
37361W        W80352  25.431  33.128   2.236  0.0538 -0.1739  0.2393
37362W        W80353  18.891  19.744  19.960  0.1625  0.3532  0.0729
37363W        W80354   7.832   4.799   8.652 -0.2730 -0.2038 -0.2727
37364W        W80355  24.545  23.060   0.241 -0.2568 -0.2196  0.0337
37365W        W80356  14.619  16.910   0.724 -0.0983 -0.0136  0.1021
37366W        W80357  30.080  10.931  24.099 -0.2077 -0.2434 -0.1602
37367W        W80358   9.041  24.766  25.825  0.2254  0.2670 -0.0148
37368W        W80359  29.008  26.960  24.485 -0.2207  0.0526 -0.0148
37369W        W80360  25.110  17.645   8.245  0.0900 -0.1513 -0.0506
37370W        W80361  16.183  12.107   7.516 -0.3065 -0.0559 -0.0380
37371W        W80362  30.271  27.165  27.680 -0.0102  0.1809  0.1905
37372W        W80363  28.232  19.558   2.512 -0.2100  0.1240  0.0601
37373W        W80364  29.538  25.734   1.421  0.1586  0.0566  0.0652
37374W        W80365  17.930  31.031  14.301  0.0660  0.0524 -0.1506
37375W        W80366  20.760  11.815  22.594 -0.2172 -0.2061  0.1769
37376W        W80367  32.261   6.991   8.745  0.0416 -0.0449  0.0237
37377W        W80368   9.252  15.846  26.228  0.2715  0.0099  0.0783
37378W        W80369  31.319  25.408   3.526  0.1709  0.0583  0.1219
37379W        W80370  33.471  16.204   4.637 -0.3785 -0.1604 -0.1060
37380W        W80371  19.586  16.088   3.197  0.0003 -0.3798  0.1380
37381W        W80372  27.839  24.032   2.826  0.1863  0.3096 -0.2092
37382W        W80373  15.906  14.790   2.900 -0.0642  0.1982  0.3888
37383W        W80374  25.404  28.960  23.302 -0.4059 -0.0369 -0.1264
37384W        W80375   1.154  28.990   9.148 -0.0486 -0.0179  0.1913
37385W        W80376   3.955  15.188  19.574  0.0220 -0.4263 -0.1730
37386W        W80377  24.111   9.383   2.824 -0.0103 -0.1449  0.0002
37387W        W80378  24.385  22.682   7.825  0.1412 -0.0654 -0.2986
37388W        W80379   2.765   3.573   3.003  0.1843 -0.0202 -0.0503
37389W        W80380   7.447  24.153  15.008  0.1249  0.0917  0.0458
37390W        W80381  29.818  33.998   1.110 -0.0603 -0.1718 -0.1491
37391W        W80382  33.099  19.034   6.744 -0.3263  0.1067 -0.0705
37392W        W80383   3.693  23.388  20.465 -0.1098  0.0114  0.1529
37393W        W80384  34.397  30.492   7.753 -0.0077 -0.1682 -0.4264
37394W        W80385   1.251   7.828   5.216  0.0741  0.1420 -0.1089
37395W        W80386   0.734  18.838   5.850  0.1271 -0.0866  0.0506
37396W        W80387  16.719  11.447   7.979 -0.0563  0.2733  0.2054
37397W        W80388  22.801   9.715   4.202  0.2859  0.3870  0.1070
37398W        W80389  10.980  21.840   1.630 -0.0425  0.0098  0.1025
37399W        W80390   6.305  32.140  10.462 -0.1995 -0.1742  0.2144
37400W        W80391  25.009  27.737   5.503 -0.1461  0.1658 -0.0156
37401W        W80392   8.484  18.956   2.877 -0.0816 -0.4852  0.0255
37402W        W80393   0.382   0.527   7.632  0.0565  0.1641  0.1909
37403W        W80394  32.497  24.185   9.477  0.2617  0.1062  0.1510
37404W        W80395  14.142  16.367   5.883  0.0930 -0.0832 -0.3700
37405W        W80396  17.301   9.093  28.514  0.0418 -0.0418 -0.0888
37406W        W80397  22.859  32.330   4.307 -0.1957  0.0843  0.2855
37407W        W80398  28.838  18.322  10.389 -0.3795 -0.2398  0.1821
37408W        W80399  25.102  19.389   5.975  0.3524 -0.0747 -0.0054
37409W        W80400  22.479  30.053  26.924  0.2467  0.3196 -0.0376
37410W        W80401  19.183   8.243   0.963  0.0339 -0.2176 -0.2125
37411W        W80402   4.000  31.613   4.094 -0.1796  0.1513  0.1630
37412W        W80403  28.619  24.202   7.887  0.3724 -0.1646  0.1971
37413W        W80404  21.675   5.961   6.450 -0.0922  0.2144  0.1548
37414W        W80405   2.380  23.892  26.038  0.0949 -0.1305  0.0244
37415W        W80406  21.880  24.199   0.588  0.2812 -0.0728 -0.0642
37416W        W80407  29.131  16.969   9.538 -0.0367 -0.2185 -0.1956
37417W        W80408  11.846   1.478  17.677  0.3887  0.0484  0.0470
37418W        W80409  33.494  30.180  20.783 -0.0163  0.0536 -0.0488
37419W        W80410  31.871  31.043   8.427  0.2306 -0.0590 -0.1545
37420W        W80411  13.872   1.951   3.535  0.2224  0.1486 -0.0511
37421W        W80412  10.123  22.038   9.853 -0.3789  0.0226 -0.0684
37422W        W80413  24.690  22.206   8.311  0.2793 -0.0736  0.0682
37423W        W80414  29.744   0.426   6.279 -0.1206  0.0734  0.1003
37424W        W80415   8.034   6.224   0.452  0.3741 -0.0851 -0.2809
37425W        W80416  31.876  30.402   4.107  0.3453  0.0469  0.1301
37426W        W80417  23.040  29.908  26.738  0.1775  0.1112 -0.1257
37427W        W80418  34.580  23.032  27.146  0.4432  0.0573 -0.2063
37428W        W80419  33.824  20.751   5.472 -0.2364 -0.4331  0.0946
37429W        W80420  27.664  22.926  14.462 -0.0178 -0.1384  0.0183
37430W        W80421  28.926   4.204   2.911 -0.0853  0.1339  0.0817
37431W        W80422  28.636  23.355   2.702 -0.2388  0.1180 -0.1250
37432W        W80423   9.839  27.775   0.684 -0.1418 -0.0737  0.1904
37433W        W80424  13.829   8.720  23.473  0.2498 -0.1397  0.1674
37434W        W80425  31.406   0.774  20.619  0.0197 -0.0438  0.0333
37435W        W80426  33.980   5.219  25.811 -0.1918  0.0966  0.0556
37436W        W80427   1.214  11.341   8.388  0.2231 -0.1253  0.1176
37437W        W80428  31.351   8.598   8.913  0.1523  0.1602  0.1522
37438W        W80429  34.264  32.416   0.538  0.0092  0.1675 -0.2823
37439W        W80430  24.122  15.304   7.176 -0.1597  0.0213 -0.1855
37440W        W80431  32.909  14.567   5.807  0.1783  0.3778 -0.4872
37441W        W80432  20.223  18.706  27.960  0.2039  0.1392  0.1343
37442W        W80433   2.121  23.024   0.211 -0.0505 -0.0218 -0.1925
37443W        W80434   3.012  22.144   0.172 -0.1225  0.4147 -0.3377
37444W        W80435  31.313  25.615   4.216 -0.1814 -0.0623  0.2288
37445W        W80436  22.278  26.906   4.447  0.0662  0.2419  0.2333
37446W        W80437  34.801   7.949  24.411 -0.0929 -0.1651  0.1235
37447W        W80438   0.770   7.053   2.843  0.1569 -0.0480  0.2303
37448W        W80439  22.853  26.298  27.853  0.0076  0.1677 -0.2804
37449W        W80440   6.493  24.144   8.106 -0.1453 -0.2803 -0.1886
37450W        W80441  28.159  29.186  15.288  0.3191  0.0100  0.2843
37451W        W80442  29.994   0.843   8.643  0.1024 -0.0853 -0.1495
37452W        W80443  13.608  30.701  21.595  0.2403  0.0101 -0.1544
37453W        W80444  15.317  26.365  16.695  0.1820 -0.0009 -0.1477
37454W        W80445  23.377  30.389   3.896 -0.1739 -0.2165  0.1090
37455W        W80446  26.232  19.276  21.387  0.0594  0.0675 -0.0435
37456W        W80447  26.903  10.294  15.622  0.2374  0.1141  0.2078
37457W        W80448   6.486  28.814   3.354  0.0333  0.0241  0.0343
37458W        W80449   8.899  21.000   8.616 -0.2287  0.0088 -0.1634
37459W        W80450   8.425   8.608   5.203  0.0621 -0.2709  0.0728
37460W        W80451   4.033   6.298  28.519  0.0767  0.0360 -0.1455
37461W        W80452  28.187  30.841  17.929  0.1669  0.3313 -0.0815
37462W        W80453  18.530  15.765  28.654  0.0941 -0.2699 -0.1518
37463W        W80454  10.715  16.414  23.341  0.4004 -0.0859  0.1316
37464W        W80455  14.130  23.195   8.299  0.1614 -0.1348 -0.1164
37465W        W80456  10.456  19.145   5.947 -0.1677  0.1456 -0.1452
37466W        W80457  11.150  33.128   7.960  0.1703 -0.2039  0.2796
37467W        W80458   9.148  28.002   3.448 -0.0747  0.0280 -0.1040
37468W        W80459  10.091   6.801  22.871 -0.2758 -0.1422 -0.1127
37469W        W80460  27.251  22.301  16.249  0.1427 -0.2031  0.0876
37470W        W80461  23.245  23.308  17.998 -0.2137  0.1322  0.3117
37471W        W80462  27.312  32.000   2.383  0.2616  0.0023  0.0226
37472W        W80463  26.179  14.710  18.246 -0.0344  0.3864 -0.1208
37473W        W80464   1.249   1.944  16.476 -0.2345 -0.2370 -0.0616
37474W        W80465  28.001  22.145   8.449  0.1864 -0.1496  0.1002
37475W        W80466  17.769  21.621   6.549  0.0674  0.1618 -0.0606
37476W        W80467  30.110   8.650  10.314 -0.0057  0.1069  0.0258
37477W        W80468  17.076   3.565   7.065  0.1924 -0.1354  0.0312
37478W        W80469  21.396  18.635   0.655 -0.2211 -0.1677 -0.1885
37479W        W80470  13.438  27.896  25.436  0.0423 -0.1598  0.1010
37480W        W80471  12.832  34.658   7.929 -0.1009  0.0100 -0.0615
37481W        W80472  26.881  28.794   0.626 -0.1518  0.1004  0.3670
37482W        W80473   5.852   5.898  22.045  0.2508 -0.1257 -0.0200
37483W        W80474   0.508  22.338   4.078 -0.1135 -0.0914  0.1803
37484W        W80475  18.280  27.789  18.723  0.1381 -0.2819 -0.0552
37485W        W80476  31.946   1.993   5.150 -0.0806  0.1768 -0.0450
37486W        W80477  26.494  28.964   0.187  0.0139 -0.1719 -0.0300
37487W        W80478  31.159  16.432  26.566 -0.0344  0.3079 -0.2652
37488W        W80479  29.277  24.325  27.557  0.0208 -0.0565 -0.2082
37489W        W80480   7.486  12.547  27.460  0.0257 -0.0489  0.1707
37490W        W80481  26.129   8.628  25.388 -0.2138  0.2229  0.2558
37491W        W80482   8.204  30.451   2.899  0.0927 -0.0218  0.1535
37492W        W80483  19.627  28.277  26.574 -0.1972  0.1762  0.3567
37493W        W80484  15.376  29.759   5.319 -0.1271 -0.3113  0.0689
37494W        W80485   9.518  10.454  17.168 -0.2636  0.0083  0.1658
37495W        W80486  34.210  12.772  23.261 -0.1024  0.4381  0.3041
37496W        W80487  28.490   6.985  23.142 -0.5481  0.3813  0.1041
37497W        W80488  24.703  27.960   8.275  0.3392 -0.0013 -0.1110
37498W        W80489  25.315  34.547  23.014  0.1390  0.0758 -0.1374
37499W        W80490  17.729  23.650   1.007 -0.3482  0.0255 -0.1499
37500W        W80491  32.122  27.715   1.517 -0.1246  0.2226 -0.3546
37501W        W80492  31.295  17.279   8.642 -0.1386  0.0976 -0.3304
37502W        W80493   9.812   9.523   0.631 -0.0805 -0.0498  0.0500
37503W        W80494   0.233  14.362  22.610  0.0993 -0.2418  0.3119
37504W        W80495  26.074  26.031   4.013 -0.0240  0.2974 -0.3001
37505W        W80496  10.857   3.501   7.272 -0.2505 -0.1368  0.1125
37506W        W80497  28.869  17.055   5.790 -0.0118  0.3214  0.3585
37507W        W80498  19.173  22.208  17.237  0.2712 -0.2703 -0.1386
37508W        W80499  31.296  23.774   5.863 -0.3523 -0.0597 -0.1852
37509W        W80500  32.091   6.062  19.254  0.0186 -0.0719 -0.3291
37510W        W80501  33.632  18.075   2.849  0.0634 -0.2709 -0.0929
37511W        W80502  29.455   4.538   8.056  0.0000 -0.1693 -0.0329
37512W        W80503   6.106  30.284   5.237 -0.1821 -0.1399  0.1250
37513W        W80504   1.509  16.729   5.022  0.0720 -0.3865  0.2860
37514W        W80505  17.884  12.448  26.291 -0.1171 -0.0304 -0.0111
37515W        W80506  32.958  20.192   3.761 -0.0760  0.3453 -0.0318
37516W        W80507  21.438  17.130   2.458  0.1379 -0.0632  0.4482
37517W        W80508   2.794  11.812   7.362 -0.1244 -0.1718  0.3443
37518W        W80509  24.595  25.191   6.553  0.0732  0.0621  0.0621
37519W        W80510  32.499  19.324   4.198  0.2966  0.0324  0.0661
37520W        W80511  22.975  11.127  21.894 -0.3110 -0.4179  0.0388
37521W        W80512   4.062   2.452   7.062  0.1683 -0.0774  0.1988
37522W        W80513  29.578  34.459   1.078  0.1586  0.2399  0.0838
37523W        W80514  28.374  33.090   4.863  0.0495 -0.0874 -0.0917
37524W        W80515  32.018   2.784   1.697  0.1109  0.0796 -0.0328
37525W        W80516  28.793  28.156   7.216 -0.3222  0.0514  0.1445
37526W        W80517   0.931   8.328   5.632  0.2504 -0.1947  0.3083
37527W        W80518  26.846  21.934   4.299  0.2049 -0.1081 -0.2426
37528W        W80519   8.643  24.127  28.927  0.0589  0.1469 -0.3499
37529W        W80520  18.015  19.387   0.795  0.1560  0.1239  0.0695
37530W        W80521  28.136  10.052   6.578 -0.2148  0.1275  0.3302
37531W        W80522   1.659  28.237   9.587 -0.3111  0.1070  0.1833
37532W        W80523  26.869  23.665   2.944 -0.1066  0.0082 -0.1702
37533W        W80524  33.629  24.663  25.754  0.0995  0.2799 -0.0459
37534W        W80525  16.595   3.089   3.829  0.0817 -0.0490  0.0105
37535W        W80526  31.505  13.549   1.673  0.1689  0.2059  0.0081
37536W        W80527  10.620  28.596  27.158  0.0450  0.1180 -0.1052
37537W        W80528  23.743  29.924   7.574  0.2163 -0.0078  0.0893
37538W        W80529  20.455  22.484   7.173 -0.1221  0.1070  0.1468
37539W        W80530   5.250  34.142  16.797  0.0692 -0.1259  0.3249
37540W        W80531  23.273   8.883  23.380  0.2413 -0.0740  0.0217
37541W        W80532  24.796  22.353  23.638 -0.1137  0.1738 -0.3357
37542W        W80533  27.698  21.089   0.298  0.0492  0.1255 -0.2294
37543W        W80534  24.066  22.645  17.833 -0.2872 -0.3819 -0.0913
37544W        W80535  28.762  25.416  20.470  0.1760  0.0398 -0.4582
37545W        W80536  30.389  25.476  14.999 -0.0671 -0.1942 -0.0836
37546W        W80537  29.096  20.840   9.694 -0.0079 -0.2018 -0.0790
37547W        W80538   9.716   1.187   0.799 -0.3430 -0.0282  0.1261
37548W        W80539  26.938  22.198   3.841  0.1155  0.2116  0.2747
37549W        W80540  10.390   2.654  23.025 -0.2383 -0.0582  0.1089
37550W        W80541   3.247  22.151  10.393  0.1626  0.2686  0.1118
37551W        W80542   3.718  13.639   0.368  0.3017  0.2784 -0.1277
37552W        W80543  27.016  15.572   4.868 -0.0221  0.1098  0.0997
37553W        W80544  23.740  34.187   7.969 -0.2397 -0.2192  0.0249
37554W        W80545  30.828  30.046   2.281 -0.0289  0.0321  0.1565
37555W        W80546  23.802  29.155   1.822 -0.0307 -0.0460 -0.1943
37556W        W80547  18.357  25.761  24.615 -0.3942 -0.0868 -0.2904
37557W        W80548  28.569   4.394   0.653  0.2060 -0.0502 -0.0274
37558W        W80549   2.132   1.587  21.794  0.0794  0.0696 -0.2838
37559W        W80550  24.847  27.649   9.011 -0.0417 -0.0290 -0.0323
37560W        W80551  34.708  15.292   1.621 -0.2730 -0.0393  0.1140
37561W        W80552  15.988  20.427  26.512 -0.0922  0.0206  0.4178
37562W        W80553  29.822  30.302  26.956 -0.1417 -0.2488  0.3541
37563W        W80554  27.571  32.894   2.056  0.2233  0.4386  0.1344
37564W        W80555  16.751  30.483   2.536 -0.0972 -0.0300 -0.1316
37565W        W80556  22.007  20.514  21.086 -0.1316 -0.2649 -0.2726
37566W        W80557  26.440  32.130   6.578  0.1098  0.2063 -0.0068
37567W        W80558  33.327  21.734   6.629 -0.2345  0.3152 -0.0793
37568W        W80559   7.105  12.295   2.686  0.1601 -0.1722  0.1740
37569W        W80560  30.000   4.270   7.740  0.0279  0.1790  0.1691
37570W        W80561  19.189   7.717   8.172  0.3196  0.2420  0.2773
37571W        W80562  24.904  25.352  27.713 -0.0553  0.2869 -0.2867
37572W        W80563  25.182  21.858   8.176  0.0862 -0.0994  0.2530
37573W        W80564  17.457  18.308   0.288  0.3075 -0.0481  0.1324
37574W        W80565  31.376  24.220  25.785  0.3545 -0.0685 -0.1629
37575W        W80566  33.971  25.105  28.541 -0.2701 -0.1971 -0.1331
37576W        W80567   0.568  19.522   9.863  0.0265 -0.2223 -0.1890
37577W        W80568  18.472  18.256  18.041  0.0741 -0.0863  0.0388
37578W        W80569  13.172  22.279   3.092 -0.0360 -0.2731 -0.1819
37579W        W80570  14.016  19.826   1.037 -0.3088  0.0670 -0.2527
37580W        W80571  22.315  24.642  22.463 -0.2705 -0.2324  0.2075
37581W        W80572  20.934  25.983  19.874  0.0296 -0.0234  0.1905
37582W        W80573   1.440  25.165  27.152 -0.1330 -0.3283 -0.0392
37583W        W80574   2.942  23.896   3.997 -0.4408 -0.1493  0.0327
37584W        W80575  34.760  23.888  24.074  0.1210 -0.1368  0.1082
37585W        W80576  12.498   7.766  28.888  0.0996  0.1745  0.1427
37586W        W80577   9.791  25.152   5.308 -0.3861  0.2027  0.0519
37587W        W80578   2.820  10.929   7.723  0.2998 -0.1912  0.0033
37588W        W80579  28.008  21.983   0.240  0.0467  0.2896 -0.3795
37589W        W80580  29.515  31.506  27.646  0.2474  0.0209  0.4831
37590W        W80581   6.338  31.008   0.299 -0.2696  0.1732  0.2901
37591W        W80582  26.690  25.099  28.462  0.0474 -0.3017 -0.0766
37592W        W80583  34.425  28.720   1.737  0.3248  0.0120  0.1513
37593W        W80584   0.522  22.895   9.268 -0.0610 -0.0959 -0.3037
37594W        W80585  22.682  32.885  28.361  0.1144 -0.1230  0.0608
37595W        W80586  20.961   5.475  24.979  0.3274  0.3609 -0.0195
37596W        W80587  29.918   2.862   8.365  0.2278  0.1256 -0.1775
37597W        W80588  16.703  18.358   0.924  0.1207 -0.2955 -0.0073
37598W        W80589  28.088  19.990  22.010  0.0956 -0.0388 -0.2250
37599W        W80590   5.055  18.801   1.696 -0.1443 -0.0477 -0.1242
37600W        W80591  18.849  31.100   6.180  0.1392  0.1264  0.0193
37601W        W80592  10.193  24.885   1.492  0.2921  0.0916 -0.1470
37602W        W80593  31.997   7.560   3.269 -0.0983  0.1457 -0.1465
37603W        W80594  30.161  28.799  13.744 -0.1131 -0.0328 -0.1217
37604W        W80595  19.433  26.116  23.432 -0.1794 -0.1977  0.4619
37605W        W80596  32.154  25.951   3.892  0.0036 -0.2084 -0.0055
37606W        W80597  32.590  18.625  28.840  0.0047  0.1034 -0.0456
37607W        W80598  22.228   0.530  16.664  0.3594 -0.2552  0.0128
37608W        W80599   0.839  19.805  29.188  0.1924 -0.1139 -0.2324
37609W        W80600  34.262  14.027  16.396  0.4093  0.0921  0.2314
37610W        W80601  25.955  32.488   0.469  0.1207  0.1357  0.0761
37611W        W80602  21.959  21.096  27.516 -0.0782  0.2504  0.5058
37612W        W80603  15.858  27.157   6.087  0.0591  0.0903 -0.0174
37613W        W80604  30.466  20.063  23.812 -0.1603  0.1142  0.4260
37614W        W80605  34.503  26.388   5.933  0.0116 -0.2709 -0.1667
37615W        W80606  27.963  14.894  10.961  0.1730  0.2433 -0.0327
37616W        W80607  13.958  18.172  12.541  0.4236 -0.0783 -0.1267
37617W        W80608  34.752  30.302   6.809 -0.1076 -0.2406 -0.0008
37618W        W80609  31.511  29.906  18.763 -0.0310  0.0927 -0.1045
37619W        W80610   9.850  15.926  20.952  0.0894 -0.2802 -0.0564
37620W        W80611  28.391  22.255  26.641 -0.1662  0.1510 -0.1856
37621W        W80612  23.597  17.813   3.274 -0.2653 -0.2136  0.2075
37622W        W80613  25.956  26.540  24.483 -0.0346 -0.1439  0.0341
37623W        W80614  15.759  32.951   4.377 -0.0932  0.1715  0.4116
37624W        W80615  33.943  29.860  14.953  0.2871  0.1358  0.1054
37625W        W80616  25.697  17.436   0.760 -0.2635 -0.0500  0.1473
37626W        W80617  13.801  23.124  16.484 -0.3310  0.1055  0.1190
37627W        W80618  15.365  17.646  23.759 -0.2017 -0.0349  0.2375
37628W        W80619  19.126  18.867   0.732 -0.1078 -0.1105  0.0963
37629W        W80620  32.818  17.086  24.663  0.1132 -0.0726 -0.2314
37630W        W80621   9.222  26.249   8.028  0.1182 -0.4443  0.0818
37631W        W80622  10.010  20.165  23.235  0.0287  0.0389  0.1585
37632W        W80623   6.221  25.412  21.914 -0.0897 -0.3954  0.3594
37633W        W80624  29.871   0.202  26.921  0.1694  0.1379  0.0948
37634W        W80625  33.174  23.041  28.261 -0.1126  0.1934 -0.1861
37635W        W80626  31.403  10.843   2.424 -0.2982  0.0076  0.3146
37636W        W80627   2.073  26.550   0.886 -0.0133  0.2485  0.0770
37637W        W80628  26.438  26.980   7.363 -0.0726  0.0161  0.0055
37638W        W80629   6.510  29.490  20.765 -0.1395 -0.1229  0.1510
37639W        W80630  13.920  22.550   2.667 -0.0501  0.0530 -0.0060
37640W        W80631  33.107   8.930   8.403  0.1415  0.2348  0.3969
37641W        W80632   2.154  33.890   0.822  0.0139  0.2416 -0.3197
37642W        W80633   1.481  29.150  18.397  0.0816 -0.3243 -0.2148
37643W        W80634  32.077  22.548  10.142  0.0001 -0.0583  0.0946
37644W        W80635  33.880  16.817   6.426  0.0448 -0.0115 -0.2250
37645W        W80636   5.132  30.980   8.961  0.3024  0.1173  0.0756
37646W        W80637   5.499  15.143   3.799 -0.0969  0.2847 -0.0205
37647W        W80638  31.445  17.639   8.397 -0.2613  0.1482  0.1675
37648W        W80639  31.988  13.197  19.816 -0.0835 -0.1581  0.1668
37649W        W80640   1.302  34.354  17.621 -0.3407  0.0261  0.2982
37650W        W80641  24.699  29.337   8.909  0.3117 -0.2569 -0.0169
37651W        W80642  16.620  30.264  26.910 -0.2772 -0.4247  0.3719
37652W        W80643   2.417  32.634   4.125 -0.0978 -0.0602  0.0995
37653W        W80644  24.287  29.803  16.068  0.0285 -0.0332 -0.2134
37654W        W80645   6.501   0.786  10.599  0.1139 -0.2094  0.0569
37655W        W80646  28.832   3.282   9.727 -0.1720 -0.0792  0.1391
37656W        W80647   4.821  20.126  10.248 -0.2459  0.0354 -0.2119
37657W        W80648  22.137   3.319  16.640  0.0649 -0.0744  0.0842
37658W        W80649   2.752   5.627   7.211 -0.4260  0.0010  0.1622
37659W        W80650  17.207   2.310   2.484 -0.0715 -0.1190  0.1140
37660W        W80651   8.186  16.571   5.286  0.1118  0.1381  0.1044
37661W        W80652  31.645  22.541  20.125 -0.0295 -0.1555  0.1125
37662W        W80653   3.184  17.830   1.149 -0.0905 -0.1825 -0.2226
37663W        W80654   0.254  28.448   5.164  0.0966  0.4606 -0.0134
37664W        W80655   9.901  21.986  21.263  0.1201  0.0283 -0.1963
37665W        W80656  21.177  14.554   9.325  0.1343 -0.1895 -0.1073
37666W        W80657  30.465  24.300   0.018 -0.1633 -0.0865 -0.0712
37667W        W80658  16.311  21.888  19.557  0.1199  0.1395  0.2364
37668W        W80659  22.313  33.996  26.338 -0.2364 -0.1594 -0.1312
37669W        W80660  22.501  25.673   1.899  0.1604 -0.1793 -0.1289
37670W        W80661  10.526  30.371   2.984  0.1495 -0.0665 -0.1998
37671W        W80662  25.180  16.549  21.918  0.1755  0.0527  0.4092
37672W        W80663  10.139  23.337  23.551  0.2387 -0.1532  0.1775
37673W        W80664   0.509  34.000   4.129 -0.1136  0.2001  0.2510
37674W        W80665   4.734   0.819   3.518  0.0836 -0.0526  0.0388
37675W        W80666   1.067  15.919   7.544  0.2169 -0.0463  0.2195
37676W        W80667   5.489  25.450  29.161 -0.1371  0.0352  0.1480
37677W        W80668  25.969  14.919   8.555 -0.0871  0.3971 -0.1633
37678W        W80669  23.717  17.617   2.692  0.0227 -0.0358  0.1138
37679W        W80670  34.183  33.048   2.528 -0.0754  0.0420 -0.0128
37680W        W80671  17.071  28.128   7.779  0.0844  0.0937  0.2864
37681W        W80672  29.727  26.202  24.859 -0.3841 -0.1696 -0.3316
37682W        W80673   1.217  26.196   8.905 -0.1142  0.0852 -0.1116
37683W        W80674  23.631  18.103   1.463  0.3376 -0.0259  0.1909
37684W        W80675  31.089   9.722   7.715 -0.2234 -0.5748  0.1175
37685W        W80676  27.049  22.516   1.563  0.1939 -0.0913  0.0946
37686W        W80677  24.108  31.493  26.910 -0.1351  0.0673  0.0160
37687W        W80678  23.569  34.280   4.473  0.0298 -0.0084 -0.3565
37688W        W80679  19.065  20.672   1.122  0.0028  0.0278 -0.3820
37689W        W80680  25.920  19.972  28.245 -0.2556 -0.2433  0.0519
37690W        W80681  27.477  33.406  28.564 -0.0428 -0.1080 -0.0203
37691W        W80682  22.896   1.620  21.442  0.1430 -0.1436  0.0097
37692W        W80683  28.543  30.662   0.583  0.0899 -0.2923  0.0416
37693W        W80684  18.361  24.045  19.493  0.1933  0.0326 -0.2512
37694W        W80685  27.210   7.708   2.275 -0.2531  0.1335 -0.3231
37695W        W80686  26.900  32.621   5.187 -0.0851  0.3708  0.3817
37696W        W80687   5.397  21.061  29.151 -0.2268 -0.2680 -0.3668
37697W        W80688  15.337  16.325   7.615  0.0762 -0.0151  0.0564
37698W        W80689  23.543  28.778   8.533 -0.2261 -0.0203  0.1877
37699W        W80690  26.921  22.302   0.030 -0.0493  0.1668 -0.0382
37700W        W80691  30.954  13.602   1.118 -0.0461 -0.0715 -0.0606
37701W        W80692   7.719  23.480  14.459  0.2807 -0.0563  0.1637
37702W        W80693  25.915  14.588   4.640  0.2990  0.1989 -0.1963
37703W        W80694  26.309  27.197   3.093  0.2534 -0.3564  0.1006
37704W        W80695   8.986  15.847   6.332  0.0137  0.3146 -0.0515
37705W        W80696  29.616  21.360   7.731  0.0724  0.0416 -0.2484
37706W        W80697  23.551  27.421  18.857  0.0918 -0.1432 -0.0316
37707W        W80698  31.118  32.132   8.896  0.0186  0.1630 -0.1437
37708W        W80699  24.752  17.191   8.467  0.1355  0.0531  0.4260
37709W        W80700  28.807  30.945  16.556 -0.0875  0.4050 -0.0130
37710W        W80701   0.843  24.712  23.897  0.0870 -0.1681  0.0068
37711W        W80702  19.000  15.338   7.975  0.5484  0.0282 -0.1453
37712W        W80703  10.322  26.481  20.689 -0.0100  0.0644 -0.1193
37713W        W80704   3.213   7.297  26.761 -0.0060  0.2894  0.2483
37714W        W80705  18.529  21.317   1.813  0.0237  0.2660 -0.2161
37715W        W80706   3.467  27.055  10.356  0.0219  0.2848  0.0479
37716W        W80707  30.710  24.346   2.392 -0.1225  0.2268  0.0488
37717W        W80708  19.258  25.450   2.834  0.3336  0.0316  0.0359
37718W        W80709  14.248  23.392   0.831  0.2826  0.0805  0.5579
37719W        W80710  31.318   4.092  16.183 -0.0134  0.3855 -0.1615
37720W        W80711   4.080  14.018  28.477 -0.1344  0.0910 -0.0246
37721W        W80712   0.586  26.797   2.801  0.1534  0.2048 -0.1537
37722W        W80713   3.921  20.219  22.194 -0.1946  0.1107  0.2461
37723W        W80714  31.424  31.373   2.766 -0.0098 -0.4140 -0.1707
37724W        W80715  30.172  20.450   7.030 -0.3829 -0.2225 -0.1951
37725W        W80716  22.832  34.557  19.100  0.0465 -0.1064  0.0017
37726W        W80717   2.388   7.800  15.169  0.2960 -0.0028  0.0906
37727W        W80718  26.090  28.972  26.729  0.1019 -0.0243 -0.3167
37728W        W80719  31.503  15.408   3.708  0.0254  0.1032  0.4327
37729W        W80720  33.588  25.064   9.393  0.1252 -0.3220 -0.1371
37730W        W80721  31.986   4.511   5.578  0.1178  0.2692 -0.3560
37731W        W80722  30.432  23.025  27.525 -0.1437 -0.0150 -0.0704
37732W        W80723  17.606  28.248  19.814  0.4050  0.0902  0.3188
37733W        W80724  31.491  19.891   6.425 -0.1419 -0.3869 -0.4076
37734W        W80725  25.254  32.194  21.619 -0.0136 -0.0261  0.0721
37735W        W80726  14.811  17.132  13.693 -0.1304  0.0735  0.1862
37736W        W80727  31.959  20.917  28.857 -0.2006 -0.2286 -0.3142
37737W        W80728   4.361  24.281  15.285  0.0402  0.1199  0.3384
37738W        W80729  20.902  19.703  26.790 -0.1854  0.0479  0.0118
37739W        W80730  28.215  10.876   4.985  0.0373  0.2066 -0.0821
37740W        W80731  11.588  30.237   0.017 -0.0500  0.1334  0.1466
37741W        W80732  13.052   2.166   6.513 -0.0288 -0.0676 -0.3093
37742W        W80733  24.523  15.795   6.361 -0.1535 -0.4081  0.1023
37743W        W80734  18.942  29.675   2.210  0.2106 -0.0420 -0.0819
37744W        W80735  29.610  23.155   4.901  0.1443  0.4921  0.0399
37745W        W80736  17.115   3.566  14.739 -0.2332 -0.1526 -0.0021
37746W        W80737  19.303  13.142  20.141 -0.0723 -0.2150 -0.0916
37747W        W80738  34.238   1.002   4.297 -0.1173  0.0661  0.2707
37748W        W80739   6.732   5.655  27.210  0.4743 -0.0408 -0.0548
37749W        W80740   9.145  31.099  27.885 -0.1663 -0.2354 -0.0377
37750W        W80741  32.289  18.712  27.849  0.0552  0.0610 -0.0094
37751W        W80742  19.654   4.782   0.071  0.1716  0.0738  0.2153
37752W        W80743   5.129  27.897  10.248 -0.0778 -0.0558 -0.2442
37753W        W80744  13.399  23.316   1.493  0.0549  0.0402  0.2876
37754W        W80745   4.182  30.798  28.807 -0.0608  0.0503 -0.3134
37755W        W80746   9.395  30.757   8.493 -0.0074 -0.1672  0.1810
37756W        W80747  22.094  25.539  22.810 -0.1122 -0.0545  0.3496
37757W        W80748  30.044  17.575  25.576  0.1238 -0.1748 -0.0315
37758W        W80749   9.810  32.331  27.235 -0.0205 -0.0890  0.2116
37759W        W80750   1.025  22.200   4.097 -0.0347 -0.1859 -0.1065
37760W        W80751   2.934  34.422   6.848 -0.2053 -0.1391 -0.1445
37761W        W80752  16.960  32.288   7.239  0.1442 -0.1056 -0.2245
37762W        W80753  33.626   3.693   6.805 -0.1217 -0.2154  0.3616
37763W        W80754  26.617  26.618   5.662  0.2854  0.0650 -0.0432
37764W        W80755  15.335  29.190  22.589 -0.1031 -0.2979 -0.0755
37765W        W80756  24.698  30.893  22.764 -0.0178 -0.0778  0.1928
37766W        W80757  28.995  15.883   7.670 -0.0867 -0.1024  0.0553
37767W        W80758  12.777  24.171  21.992 -0.1169 -0.2544  0.1731
37768W        W80759  30.136  29.421  16.678  0.1896 -0.1119  0.4329
37769W        W80760  25.415  22.088   4.279 -0.3407 -0.0234  0.2041
37770W        W80761   9.280  23.332   6.465  0.0005  0.0917 -0.0242
37771W        W80762   7.117  28.506   5.375  0.0635 -0.2426  0.1935
37772W        W80763  19.919  29.244  25.090  0.1804 -0.0553  0.3784
37773W        W80764  26.097   1.144   1.618 -0.0462 -0.3950  0.2861
37774W        W80765  11.647  32.355  26.550  0.1706  0.1859  0.2667
37775W        W80766  29.837  28.059   7.797  0.0086 -0.2493 -0.0394
37776W        W80767  16.355  22.683   8.469 -0.0333  0.1542 -0.2976
37777W        W80768  31.263  25.676   7.567  0.2777 -0.1708 -0.1249
37778W        W80769  17.725   1.525  27.198 -0.1851 -0.1486  0.1585
37779W        W80770  23.062  12.641  25.079  0.0969 -0.2251 -0.1521
37780W        W80771  20.539   8.743  15.340  0.0255 -0.0122  0.3169
37781W        W80772  29.557  18.917   8.212 -0.0053  0.1019  0.0874
37782W        W80773  31.891  17.798   3.780 -0.0518 -0.1593  0.1439
37783W        W80774   2.755  33.090  26.093  0.0199  0.2619 -0.1528
37784W        W80775  28.905  20.841   1.228  0.2419 -0.0177 -0.0574
37785W        W80776   1.991   8.680  25.533 -0.2075 -0.0847  0.3458
37786W        W80777  32.442   6.046  19.817  0.1356 -0.6321 -0.2305
37787W        W80778  31.683  30.084  13.396  0.1836  0.0859  0.0593
37788W        W80779   7.358  20.898   0.545 -0.2011 -0.0985  0.1150
37789W        W80780  26.886  32.232   8.348 -0.3838 -0.0153 -0.1885
37790W        W80781  25.896  23.113  13.874  0.2321 -0.1268 -0.1673
37791W        W80782   2.410  31.305  28.662  0.1969  0.0160 -0.0610
37792W        W80783  18.792  22.356  16.357  0.1408 -0.0573 -0.0757
37793W        W80784  32.346  32.657   8.136 -0.2133  0.2536  0.2080
37794W        W80785  31.522   3.151   0.490 -0.0686  0.3017  0.3519
37795W        W80786   2.446  25.499   0.166 -0.1454  0.2380  0.0014
37796W        W80787  29.761  15.993   4.336  0.0550  0.1300 -0.0422
37797W        W80788   3.133  22.630   5.996 -0.0524  0.3207 -0.1044
37798W        W80789  29.233   9.397  25.819  0.1160  0.0827  0.0297
37799W        W80790  18.958  19.956   7.245  0.1009 -0.2448  0.0799
37800W        W80791   8.784  31.697   2.476 -0.0394  0.2669 -0.3373
37801W        W80792  29.166  29.490  23.309 -0.0162  0.0086 -0.0813
37802W        W80793  30.794  19.318   6.769  0.0225 -0.0533 -0.2518
37803W        W80794  31.760  20.232  16.370  0.0192 -0.0806  0.0823
37804W        W80795   7.155  19.128   7.064 -0.0174  0.0924 -0.3172
37805W        W80796   0.949  28.171   3.917 -0.4907 -0.1242  0.0122
37806W        W80797  31.312  21.218  18.209  0.1125  0.0263  0.1442
37807W        W80798  23.166  30.939   0.054 -0.0537  0.0329 -0.1060
37808W        W80799  28.723  22.450  24.247 -0.0921 -0.0014  0.0745
37809W        W80800  26.273  16.487   2.462 -0.0741  0.3733  0.3033
37810W        W80801  22.479   4.070  23.862 -0.0393  0.0194  0.0453
37811W        W80802  27.439  23.454   8.088 -0.0421  0.3905  0.0101
37812W        W80803  24.700  27.669  24.135  0.0498  0.2185  0.4999
37813W        W80804  24.717  24.727   7.030  0.1421 -0.0767  0.0787
37814W        W80805  16.203  20.791  27.926  0.0956 -0.0139 -0.0839
37815W        W80806  23.179  21.557  28.365  0.1349  0.2035  0.1595
37816W        W80807  22.008  28.851   7.714 -0.0673  0.2626 -0.0112
37817W        W80808  30.043   2.116  27.135 -0.3018 -0.1071  0.2522
37818W        W80809  29.081   0.913  21.644 -0.1979 -0.0914  0.1793
37819W        W80810  24.206  14.060   3.210 -0.2397  0.1130  0.1676
37820W        W80811  25.856   1.475   6.362 -0.1585 -0.3950 -0.0485
37821W        W80812  11.241   2.178   5.904  0.0714  0.0844  0.0310
37822W        W80813  23.477  32.673   0.100 -0.1001  0.3311 -0.0063
37823W        W80814  30.190  32.729   5.305  0.0097 -0.0341 -0.1732
37824W        W80815  10.171  26.318  25.690 -0.1656 -0.0054  0.1802
37825W        W80816  34.261  30.565  20.638  0.0102 -0.2178  0.0634
37826W        W80817  18.743  23.602  28.653  0.0225 -0.1674  0.2041
37827W        W80818  24.191  21.411  28.416 -0.1570  0.2168  0.2165
37828W        W80819   0.750  26.780  17.099 -0.2261  0.2105 -0.3305
37829W        W80820  14.798   0.803  26.824 -0.0967 -0.2654 -0.3280
37830W        W80821  17.505  29.779  26.919  0.1489  0.3230  0.0183
37831W        W80822  19.867  11.286  10.106 -0.3701 -0.0684  0.0407
37832W        W80823  12.205  11.263   3.919 -0.1702 -0.0917  0.0285
37833W        W80824  30.118  29.731   5.805 -0.0222 -0.0063  0.1772
37834W        W80825  18.695  31.268  23.990 -0.1850  0.1023  0.1392
37835W        W80826   0.552  30.268   1.814  0.0310 -0.2613 -0.0343
37836W        W80827  31.188  23.002   9.805  0.1765 -0.1144  0.1117
37837W        W80828  30.591  32.022   6.419 -0.2088 -0.2644 -0.1419
37838W        W80829  32.100  30.203   1.909  0.3711  0.2407  0.1827
37839W        W80830  26.533  26.458   8.112  0.0652  0.2224 -0.0861
37840W        W80831   6.424   9.777   9.079  0.1765 -0.4989  0.1199
37841W        W80832   7.035  27.841   4.359  0.2231  0.2318  0.1667
37842W        W80833  17.537  25.044   7.598  0.0085 -0.1376  0.0536
37843W        W80834  24.691  34.166   2.723 -0.0574  0.2654  0.1722
37844W        W80835  23.509  21.207  15.683  0.1033 -0.0107  0.1438
37845W        W80836  29.579  22.743  26.038 -0.0177 -0.1129  0.1676
37846W        W80837   0.192  17.871  10.159 -0.0046 -0.4138 -0.2796
37847W        W80838   0.146  34.111   8.100  0.2187 -0.0185  0.0087
37848W        W80839  21.423  29.891  27.042 -0.1496  0.0684 -0.0894
37849W        W80840  14.564  22.172   3.329  0.1080 -0.1981 -0.1909
37850W        W80841  11.007   2.701   6.554 -0.1275  0.1875 -0.1520
37851W        W80842  31.368   5.980  26.456 -0.1161  0.1419 -0.2871
37852W        W80843  12.490  26.743  26.954 -0.3562  0.1188 -0.1962
37853W        W80844   6.809  28.037   5.333  0.0239  0.0460  0.1948
37854W        W80845  24.760   0.672   2.993  0.4382  0.0461  0.1618
37855W        W80846  13.413  33.973  21.050  0.0324 -0.0878  0.4066
37856W        W80847  22.634  32.751  25.015 -0.0121 -0.1135 -0.1410
37857W        W80848  20.303  20.163   3.323  0.2826 -0.0977 -0.2262
37858W        W80849   1.472  31.147   7.875  0.0202  0.1221 -0.2881
37859W        W80850  23.967  30.492   7.669  0.0021 -0.0164  0.0753
37860W        W80851  15.614   3.166   6.693 -0.2485  0.1405 -0.3566
37861W        W80852   4.437  21.560  18.581  0.1013 -0.1713  0.0694
37862W        W80853  29.897  20.442   8.566  0.1279 -0.2081 -0.1167
37863W        W80854  26.397  29.149   8.330 -0.1506 -0.0305  0.0536
37864W        W80855  24.181   4.671   6.824  0.1809  0.1794  0.3809
37865W        W80856  10.284  22.170  18.631 -0.1834  0.1641  0.1100
37866W        W80857  26.931   2.534  23.686 -0.0906  0.2039 -0.0768
37867W        W80858  26.140   0.618   4.170  0.2049 -0.0946  0.0507
37868W        W80859  29.745   0.505   0.621  0.3613 -0.0469  0.0976
37869W        W80860  34.712  30.712   8.751  0.1588 -0.3160  0.1849
37870W        W80861  27.488  17.308   5.724 -0.3061 -0.0318  0.0326
37871W        W80862  34.078  30.604   1.706  0.1659  0.0765 -0.0128
37872W        W80863  29.622  30.868  17.964 -0.2016 -0.1061  0.2131
37873W        W80864  33.999  21.337   3.967 -0.0583  0.0342  0.1348
37874W        W80865  31.211   6.797   1.923  0.1728 -0.3113  0.1036
37875W        W80866  25.892  29.932   1.700  0.4378 -0.0129  0.0692
37876W        W80867   6.415  16.454   4.226  0.0510 -0.2474  0.0351
37877W        W80868  19.740   1.486   0.307 -0.3619  0.1429 -0.1058
37878W        W80869  23.217  23.201   6.462  0.0992  0.1027  0.3271
37879W        W80870   5.312  24.507  17.637 -0.0214 -0.0569  0.0518
37880W        W80871   9.570  26.091  14.543  0.0577 -0.2857  0.3273
37881W        W80872   2.462  23.670   5.901 -0.0478 -0.0018  0.1221
37882W        W80873  16.429  17.123   3.934  0.0408 -0.1032 -0.0239
37883W        W80874  10.326  27.450   8.245  0.2916 -0.2015  0.1639
37884W        W80875  19.798   8.669   6.747  0.0331  0.0226 -0.0929
37885W        W80876   6.727  21.161   8.109  0.3355  0.0210 -0.0606
37886W        W80877   3.724  16.185  28.774  0.1643  0.0241 -0.0452
37887W        W80878   8.243  25.551   0.865  0.2268  0.0997  0.2096
37888W        W80879  30.180  11.209   1.994  0.0818  0.0816  0.1218
37889W        W80880  18.053  13.037   8.697 -0.0687  0.2503 -0.0936
37890W        W80881  31.663   0.072   7.177  0.1094  0.0687 -0.0663
37891W        W80882  19.448  20.526   1.454 -0.3358  0.0963  0.0584
37892W        W80883  25.931  26.323   3.135  0.3301  0.0551  0.1366
37893W        W80884  20.586  26.850   8.896 -0.0706 -0.0920  0.0948
37894W        W80885   3.068   9.383   6.479 -0.2415 -0.1819  0.1063
37895W        W80886   2.899   7.673   5.334 -0.0975 -0.3623 -0.2240
37896W        W80887  25.663  23.813   8.867  0.1468 -0.3098  0.1419
37897W        W80888  30.163   0.214   0.947  0.3602  0.2246 -0.1441
37898W        W80889   0.533   4.578   5.270 -0.0485  0.0220 -0.1236
37899W        W80890  15.568  22.226   6.962 -0.0298  0.3053 -0.0179
37900W        W80891   7.705  18.305  25.355  0.2667 -0.2920  0.0990
37901W        W80892  19.334  16.288  28.778  0.1261 -0.2690  0.2277
37902W        W80893  13.097  24.891  22.589  0.0204  0.2673  0.1059
37903W        W80894   5.486  26.712   9.231 -0.1123 -0.2689 -0.1092
37904W        W80895   0.501  13.528  25.085  0.1670 -0.1318  0.1116
37905W        W80896  22.878  29.280   6.341 -0.1682 -0.2527  0.1957
37906W        W80897   7.246  26.540   0.051 -0.3244  0.1705 -0.0797
37907W        W80898  23.912   3.714   5.711 -0.0881  0.1111  0.2992
37908W        W80899  31.087  28.452  24.825  0.1675 -0.0799 -0.0038
37909W        W80900  33.506  25.960   6.248 -0.3258  0.2870  0.1638
37910W        W80901  14.951  17.996   8.144  0.1503 -0.0474 -0.2352
37911W        W80902  24.192  31.952   3.093 -0.0448  0.0363 -0.0268
37912W        W80903  21.105  21.989   6.620 -0.1184 -0.0247 -0.4645
37913W        W80904  28.830  29.805   0.360  0.1136  0.0257  0.1627
37914W        W80905  17.452  27.233   6.868 -0.0064  0.1701  0.1646
37915W        W80906  27.692  20.280   5.346 -0.4287  0.1795 -0.2697
37916W        W80907  30.924   3.386  26.531 -0.1644  0.2078  0.0036
37917W        W80908   5.112  24.951   6.389  0.0704  0.2151 -0.0218
37918W        W80909  32.390  16.850  26.047 -0.0091  0.0318  0.0367
37919W        W80910   7.173  20.388   0.556 -0.0682  0.2698 -0.0498
37920W        W80911   4.534  31.671  13.830  0.1858  0.2437 -0.1302
37921W        W80912   2.548  27.182  25.538  0.1696  0.0757  0.2751
37922W        W80913  27.843  19.612   8.847  0.3030  0.2824 -0.1831
37923W        W80914  33.801  34.763   3.924 -0.1346  0.0510 -0.1688
37924W        W80915  17.932  28.417   6.142 -0.0931  0.1227 -0.1434
37925W        W80916  27.956   4.168   6.332 -0.1101  0.1281 -0.3628
37926W        W80917  23.603   8.223   5.218  0.1706  0.1724 -0.0893
37927W        W80918  31.018  20.800   2.976  0.2496 -0.0574  0.3049
37928W        W80919   4.898   4.937   9.985 -0.3182  0.0194 -0.2648
37929W        W80920  29.042  11.241   8.547  0.0121  0.2771 -0.0785
37930W        W80921   9.185  14.264  10.214  0.1142  0.3197 -0.0171
37931W        W80922  32.702   8.613  20.171 -0.0458  0.0582 -0.2542
37932W        W80923  23.049  17.315   1.228 -0.0471 -0.0896 -0.1421
37933W        W80924  20.711   3.056   0.095  0.0736  0.2647  0.0368
37934W        W80925  29.871  27.061  12.327  0.4681 -0.1498 -0.2460
37935W        W80926  24.859  10.694   8.839  0.0646  0.1613  0.1295
37936W        W80927  32.254  29.966   1.420 -0.2439 -0.1663  0.1431
37937W        W80928  33.474  20.119   5.058 -0.2258 -0.0111  0.0848
37938W        W80929  26.918  25.158  24.976 -0.0831  0.2962 -0.0158
37939W        W80930   3.286  27.364   3.998  0.0893  0.2388 -0.3347
37940W        W80931  26.411  25.928  22.679  0.0914 -0.4197 -0.0002
37941W        W80932  23.543  27.163   0.533 -0.0835  0.1037 -0.4835
37942W        W80933   3.298  24.302   7.376 -0.3654 -0.1073  0.1038
37943W        W80934  31.488  30.362  29.162  0.2151  0.4029  0.2224
37944W        W80935  20.634  23.046   4.459 -0.0283  0.1110 -0.4168
37945W        W80936  28.122  24.377   8.603 -0.1302  0.0992 -0.0134
37946W        W80937  32.067  13.372   9.294  0.0570  0.0471  0.1075
37947W        W80938  29.563  33.994   6.566 -0.2639 -0.0804 -0.1495
37948W        W80939  17.904   2.813   5.216  0.0189  0.1590  0.1198
37949W        W80940   1.046  24.359  26.878 -0.0165  0.1759  0.0811
37950W        W80941  30.626   1.310   7.099  0.1008 -0.0602 -0.1413
37951W        W80942  31.302  31.628   1.535 -0.5250  0.0461  0.1474
37952W        W80943  13.311  25.673   4.031 -0.0524  0.1050  0.0759
37953W        W80944  29.926  29.456  21.648  0.0731 -0.0850 -0.0339
37954W        W80945  27.493  26.653   6.935  0.2772 -0.0419  0.1400
37955W        W80946  26.713  20.111  21.436  0.0482 -0.2585  0.4097
37956W        W80947  34.268  15.128   5.552 -0.1075 -0.0740  0.1192
37957W        W80948  22.169   4.692   2.369  0.3938  0.2088 -0.0180
37958W        W80949  28.977  29.888  25.426  0.0195  0.0951  0.2159
37959W        W80950  12.287  25.671   3.144 -0.4878  0.0275  0.1625
37960W        W80951  17.869  14.342   2.028  0.2622  0.3883  0.1763
37961W        W80952  22.376  16.875  17.430 -0.2523 -0.1393  0.0646
37962W        W80953  13.846  33.555  21.356 -0.0419  0.1077 -0.0559
37963W        W80954   6.019  16.517  27.014 -0.1871 -0.1573 -0.1274
37964W        W80955  26.187   6.159   4.182  0.1044 -0.1822 -0.3055
37965W        W80956   6.908  19.810   2.349 -0.0378 -0.2794 -0.0479
37966W        W80957   3.811  15.210  27.827  0.0713 -0.2382  0.1998
37967W        W80958  33.401   5.454   9.146  0.2926 -0.1211 -0.2982
37968W        W80959  31.176  12.346   6.162  0.0326 -0.2363 -0.0273
37969W        W80960  15.566  14.159  27.345 -0.1500  0.0624 -0.0076
37970W        W80961  20.947  20.051   0.444  0.1621 -0.1037  0.0266
37971W        W80962  24.681  14.608  27.733 -0.0476 -0.1806  0.0965
37972W        W80963  32.292  19.994   1.775  0.1506  0.0707  0.0610
37973W        W80964  28.241  26.707   1.939  0.0273  0.0122 -0.1049
37974W        W80965   0.580  33.794   7.156 -0.0253 -0.1676  0.1250
37975W        W80966  27.126  26.508   8.148 -0.0434  0.3214  0.0184
37976W        W80967  24.366   9.806  21.851 -0.2661  0.2986 -0.0819
37977W        W80968  22.152  15.605   1.927 -0.1459  0.0070 -0.3546
37978W        W80969   3.936  25.513   8.725 -0.2632 -0.0788  0.0009
37979W        W80970   2.767   1.818   7.468  0.1065  0.2736  0.3486
37980W        W80971  28.435  18.396  14.890 -0.3602  0.0628 -0.0558
37981W        W80972  20.894  22.567   3.606 -0.3728  0.0903 -0.0822
37982W        W80973  16.495  10.629  16.359  0.1259 -0.1781  0.0987
37983W        W80974  20.464   0.922   3.707  0.1895  0.3738  0.0085
37984W        W80975  33.096  31.673  27.827 -0.0636 -0.1179 -0.3170
37985W        W80976  25.033  24.829   8.396 -0.0153  0.0721  0.2219
37986W        W80977  32.707  28.770  12.840  0.1005  0.1425  0.1481
37987W        W80978   2.146  18.284  28.034  0.4441 -0.2820 -0.2735
37988W        W80979  14.958  25.616   5.847  0.1603  0.1923 -0.0443
37989W        W80980  20.765  22.873   4.000  0.2468 -0.1066  0.4052
37990W        W80981  33.270  34.600   5.883 -0.0886 -0.2601 -0.0668
37991W        W80982  21.874  18.251   7.312 -0.3500 -0.3385  0.1212
37992W        W80983  26.564  14.902   7.814  0.0396  0.0592  0.0460
37993W        W80984  32.358  23.720   2.837  0.1047  0.0864  0.0261
37994W        W80985  24.632  32.057   5.265  0.0879 -0.1066 -0.2693
37995W        W80986  34.096  26.063   5.254  0.0318 -0.3250 -0.1251
37996W        W80987  30.396  33.715   4.067  0.4400  0.0036  0.0470
37997W        W80988  23.889   0.011  26.960 -0.1127 -0.0242  0.0940
37998W        W80989  25.389   7.126  20.703 -0.3815 -0.0512 -0.0620
37999W        W80990  18.742  12.736   2.940  0.1031  0.0461 -0.3812
38000W        W80991  32.106  29.875   8.898 -0.0347  0.2597  0.0999
38001W        W80992  22.994  26.744   7.247 -0.0533  0.1264  0.0937
38002W        W80993  17.088  10.223   4.097  0.0764  0.1247 -0.0320
38003W        W80994  13.311  18.096   4.468  0.0942 -0.0406 -0.1920
38004W        W80995  28.482  28.840   9.084 -0.0572 -0.0256  0.1347
38005W        W80996  25.304  14.170   7.413  0.0970  0.2121 -0.0302
38006W        W80997  26.894  20.009   2.667 -0.2500 -0.0369 -0.0013
38007W        W80998  20.827  26.704   5.920  0.2367 -0.1438 -0.0723
38008W        W80999  21.626  29.914   1.869 -0.1575 -0.1680  0.2117
38009W        W81000  15.935   4.602  20.813  0.2240 -0.3561 -0.0435
38010W        W81001  33.593   1.358   2.987  0.0666 -0.1188  0.0149
38011W        W81002   3.123   0.755  18.292 -0.3295 -0.2351 -0.3258
38012W        W81003  17.998  21.968   3.531 -0.1707 -0.0865  0.1780
38013W        W81004   5.310   9.751   2.092  0.1127  0.0730 -0.2472
38014W        W81005  30.747  21.660   7.788  0.0345 -0.3884 -0.0932
38015W        W81006  24.428  27.976  28.679 -0.0034  0.2744 -0.1066
38016W        W81007   6.620  18.489   9.069  0.0515  0.0710 -0.2638
38017W        W81008  17.306  20.099  29.208  0.0769 -0.2004  0.2667
38018W        W81009  21.908  14.329  10.018  0.4425 -0.1653 -0.3307
38019W        W81010  27.475  24.908   4.879  0.1956 -0.0630 -0.0018
38020W        W81011  31.112   1.523   5.186 -0.0054 -0.0763 -0.0193
38021W        W81012  13.240  27.325   1.856  0.3683 -0.0689  0.3421
38022W        W81013  22.426  22.257   5.893 -0.3462  0.1282 -0.0155
38023W        W81014  10.857  24.419   5.231  0.4512  0.0407  0.0639
38024W        W81015  20.559  18.571   5.829 -0.0141 -0.1443 -0.3505
38025W        W81016  21.416  18.509  28.978  0.1045 -0.3575  0.1171
38026W        W81017  16.941  21.962  24.203  0.0984  0.1497  0.1920
38027W        W81018  12.432  23.093   2.178  0.0661  0.4123 -0.2365
38028W        W81019   4.658  19.675  16.188  0.2792  0.0805 -0.2146
38029W        W81020  28.461  26.990   1.548  0.3282 -0.2369  0.0135
38030W        W81021  32.912  26.648   7.301 -0.1013  0.0026 -0.3203
38031W        W81022   3.586   6.356  11.094  0.1129  0.1941 -0.1591
38032W        W81023  27.135  20.519   7.730 -0.0679  0.1096  0.0779
38033W        W81024   6.428  20.867   0.380 -0.0118 -0.0289  0.0608
38034W        W81025  29.337  25.342   5.901 -0.2830 -0.0813 -0.1618
38035W        W81026  28.305  15.546   7.981  0.0781  0.0596  0.4509
38036W        W81027  16.229   6.892   4.930  0.4480 -0.1361  0.0600
38037W        W81028  20.824  29.717   6.708 -0.0095 -0.1868  0.2194
38038W        W81029  29.346  24.922   1.869 -0.1530  0.1205  0.2701
38039W        W81030  28.637  21.224   1.400 -0.1195  0.0723 -0.0217
38040W        W81031  33.257  19.302  27.862 -0.1228 -0.1044  0.3235
38041W        W81032  31.533  22.165  23.114  0.1943 -0.1055 -0.1630
38042W        W81033   9.441  23.104   1.940 -0.1166 -0.0074  0.0094
38043W        W81034  25.167  28.421  28.346 -0.0514 -0.3017 -0.2504
38044W        W81035  19.876   3.682   2.707 -0.0083 -0.0189  0.1870
38045W        W81036  21.106  33.825   9.463  0.0454  0.0467 -0.1878
38046W        W81037   8.885  28.937   4.832  0.2860 -0.4098  0.1362
38047W        W81038  33.576  31.689   3.806 -0.2118 -0.3228  0.1127
38048W        W81039  21.207  34.241   5.547  0.1073 -0.0222 -0.0096
38049W        W81040  29.720   9.731   8.084  0.0172 -0.0819  0.3402
38050W        W81041  20.360  20.102   8.526  0.1148  0.1017  0.1173
38051W        W81042  22.692  18.167   8.879  0.1226  0.0592  0.0444
38052W        W81043  17.790  29.822   8.948 -0.1365  0.0580 -0.1660
38053W        W81044  32.892  19.546   7.657  0.1106 -0.2215 -0.1708
38054W        W81045  33.258  34.425   7.394 -0.1619  0.2075  0.0625
38055W        W81046  10.158  20.351   6.663 -0.2351  0.3116 -0.0432
38056W        W81047  24.312  33.829   6.541  0.0942 -0.1327  0.2994
38057W        W81048  29.448  16.686   8.353  0.1231 -0.1248 -0.4392
38058W        W81049  30.375  14.138   9.753  0.2654 -0.0601  0.0863
38059W        W81050   8.636   3.970   6.408  0.0299 -0.4147 -0.2101
38060W        W81051  18.470  12.930   6.187  0.1935  0.0925  0.1302
38061W        W81052  13.142  20.810   2.139  0.1595 -0.2457  0.1816
38062W        W81053  32.178  20.151  28.075 -0.2986 -0.0127 -0.0286
38063W        W81054  23.094  17.109  25.198 -0.1322  0.0521 -0.0791
38064W        W81055  17.270  29.979   9.018  0.0946  0.3613 -0.1116
38065W        W81056   8.505  22.998  11.010 -0.2635  0.2148 -0.0073
38066W        W81057   3.582  30.800  24.340  0.0146 -0.3105 -0.3174
38067W        W81058  29.207  18.406  27.730 -0.0809 -0.0997  0.1418
38068W        W81059  19.982  28.367   1.122  0.1690 -0.0415 -0.2446
38069W        W81060  23.950  26.845   0.437  0.1007 -0.0719 -0.0078
38070W        W81061  14.168   0.685  10.044  0.1172  0.0365  0.0314
38071W        W81062   1.505  26.261  28.737 -0.0460  0.0150  0.0689
38072W        W81063   8.841  31.912  21.449  0.0813  0.2001 -0.2479
38073W        W81064   6.372   0.948   5.187  0.0014  0.1860 -0.1838
38074W        W81065  26.037  20.599   5.064 -0.1239 -0.1913  0.3073
38075W        W81066   4.143   6.531  11.606 -0.0732  0.0978 -0.1499
38076W        W81067  31.027   9.711   6.094 -0.0034  0.1622  0.0481
38077W        W81068   9.940  16.699   7.308 -0.3830  0.1064 -0.0596
38078W        W81069   5.116   3.721   5.887 -0.0160  0.0786 -0.2125
38079W        W81070   3.118  31.600  17.497 -0.1919 -0.1038  0.4106
38080W        W81071  11.757  27.045   9.328 -0.1780  0.1116 -0.0952
38081W        W81072  30.666  17.672   7.722 -0.0168  0.1087  0.1422
38082W        W81073  27.416  10.103   6.482  0.4164  0.0675 -0.1931
38083W        W81074  22.542  28.800   1.748 -0.0110  0.0628 -0.3347
38084W        W81075  32.307  31.495   5.564 -0.1617 -0.2933 -0.3293
38085W        W81076  14.225  33.363   6.371 -0.0428 -0.2859  0.0888
38086W        W81077   3.777  26.689   5.020  0.0180 -0.1330  0.0056
38087W        W81078  26.587  18.423   3.654  0.0955 -0.0825 -0.4263
38088W        W81079   2.497  26.402   6.099  0.4073 -0.4314  0.0809
38089W        W81080  22.941   9.325   6.795  0.3983 -0.0314 -0.1343
38090W        W81081  34.289  29.050  22.587  0.1772 -0.1328  0.0837
38091W        W81082  25.261   9.407   4.182  0.2370  0.0415 -0.1583
38092W        W81083  29.576  26.718   2.361  0.2052  0.0410  0.0242
38093W        W81084  33.083  13.743   4.560  0.2110  0.0456 -0.0791
38094W        W81085  27.682  34.422  22.546 -0.2680  0.1736 -0.0895
38095W        W81086   5.690  27.853   4.587  0.0524 -0.2242  0.2752
38096W        W81087  14.196   6.829  18.438  0.0055 -0.2911  0.0638
38097W        W81088   0.163   7.024   0.263 -0.0362  0.1076 -0.0765
38098W        W81089  15.046  20.134  26.787 -0.1375  0.2347 -0.0136
38099W        W81090  30.616  27.594  27.312  0.3189 -0.1127  0.0686
38100W        W81091  20.058   0.160   5.902 -0.2491 -0.0938  0.1615
38101W        W81092  20.574  19.739  27.493 -0.0522 -0.0822 -0.3684
38102W        W81093  29.891  23.453  26.930  0.0336 -0.3451  0.1099
38103W        W81094  33.637  21.020   4.890  0.1242 -0.2959  0.0817
38104W        W81095  33.944  11.771   9.796 -0.2216 -0.1220  0.2835
38105W        W81096  30.435  19.856   3.525  0.0854  0.2550  0.1195
38106W        W81097  34.061   9.119  22.970 -0.0026  0.0185 -0.2929
38107W        W81098  22.810  20.196  27.044 -0.3214  0.0081 -0.0564
38108W        W81099  16.772  18.341   7.714  0.1060  0.0781  0.0834
38109W        W81100   5.298  12.628   8.220 -0.4233 -0.0999  0.2471
38110W        W81101   7.519  23.443   7.457  0.0156 -0.2071 -0.0869
38111W        W81102  10.517   8.410   6.117  0.3730 -0.1007  0.1844
38112W        W81103  17.158   7.743   8.274  0.1192  0.1303 -0.3108
38113W        W81104  16.544   3.995   0.109 -0.0056  0.2338  0.4701
38114W        W81105  32.419  19.562   3.049 -0.1011  0.0596  0.0663
38115W        W81106  31.864  29.588  22.641  0.3166  0.2192 -0.1283
38116W        W81107  30.330  33.738  25.240  0.1150 -0.1420  0.3590
38117W        W81108  33.334   3.290   8.776 -0.1109  0.3728 -0.2136
38118W        W81109  27.281  23.966   7.219  0.0319  0.0625  0.3504
38119W        W81110  32.519  22.615   1.850  0.1099 -0.0443  0.1439
38120W        W81111  34.693  10.258  21.407 -0.1386  0.1087 -0.1177
38121W        W81112  25.102  22.769  25.659 -0.0485 -0.0305 -0.0488
38122W        W81113  17.148   5.456   4.175  0.2930 -0.0240 -0.2413
38123W        W81114  33.292   2.329  27.915  0.3283 -0.1865 -0.1382
38124W        W81115  18.515  28.828   8.590  0.1367  0.0306  0.2361
38125W        W81116  33.016  23.871  16.436  0.1277  0.4030 -0.3713
38126W        W81117  25.552  20.247   6.440 -0.0244 -0.3354  0.0925
38127W        W81118  27.831  17.293  23.515 -0.2250 -0.2670 -0.0676
38128W        W81119  14.871   0.019   7.962 -0.2817 -0.2336  0.3092
38129W        W81120  25.777   4.233   0.494  0.4598 -0.3036  0.0087
38130W        W81121  23.039  23.400  24.942 -0.2626 -0.1878 -0.0637
38131W        W81122  32.083  33.974   6.640  0.4743  0.0490 -0.1909
38132W        W81123  23.245  29.439  25.266  0.2987  0.1418 -0.0472
38133W        W81124   5.012  28.343  28.246  0.1696 -0.3242 -0.0469
38134W        W81125  23.555  28.164   5.393 -0.1069  0.2296  0.3373
38135W        W81126  31.826  26.879  26.795  0.3611  0.0574 -0.1639
38136W        W81127  11.479  12.389   1.194 -0.2619  0.2460  0.0006
38137W        W81128  25.264  28.338  20.063  0.2577 -0.0634  0.2947
38138W        W81129  25.108  22.755   6.652 -0.0773 -0.0394  0.1897
38139W        W81130  25.194  25.938   5.096  0.2168 -0.3797  0.2137
38140W        W81131  27.323  28.665   4.042 -0.0563  0.1339 -0.0449
38141W        W81132  28.885   6.100   5.913 -0.1574 -0.1045 -0.1451
38142W        W81133   4.937  28.209  23.656 -0.2806 -0.0607  0.0130
38143W        W81134  20.302  28.045  29.155 -0.0753  0.4505  0.0787
38144W        W81135  28.336  21.490   3.972  0.0448  0.1714  0.0399
38145W        W81136   8.867  31.474  29.134 -0.1523 -0.3603 -0.1802
38146W        W81137  28.457  29.738   7.819 -0.3169  0.0375  0.1770
38147W        W81138  32.965  21.987   7.454 -0.0073 -0.2937 -0.0410
38148W        W81139  28.355  16.157   8.304  0.0362 -0.3316  0.1105
38149W        W81140   7.117  30.097   8.686  0.1506 -0.0530 -0.0170
38150W        W81141  20.723  18.903   2.069  0.0158  0.0211  0.0085
38151W        W81142  29.150  14.587   8.756  0.2700  0.0502 -0.0383
38152W        W81143   6.804  27.526   1.275 -0.1144 -0.1055  0.3356
38153W        W81144  27.761  31.344   6.210  0.1607 -0.1814 -0.4452
38154W        W81145  34.700  31.771   1.948 -0.2971  0.0988  0.2392
38155W        W81146   8.028  25.552   2.818  0.2056 -0.0898 -0.2639
38156W        W81147   2.098  27.854  25.601  0.1517  0.0652  0.0073
38157W        W81148  22.719  19.657  28.103  0.2603 -0.1945  0.1001
38158W        W81149  28.564  29.842   0.838  0.1997 -0.1631 -0.0552
38159W        W81150  33.076  32.555  25.477  0.1884  0.0990 -0.1229
38160W        W81151   2.054  29.040  27.624 -0.0255  0.3512  0.2642
38161W        W81152  29.841  25.346   9.979 -0.2369  0.2123  0.0717
38162W        W81153  32.434  20.497  16.899 -0.0056  0.2292 -0.1778
38163W        W81154  16.403  16.450   8.113  0.0380 -0.4641 -0.1281
38164W        W81155  34.305   2.837   9.859  0.5137  0.1410 -0.0682
38165W        W81156  33.697  34.142   1.050 -0.1573 -0.0648 -0.2514
38166W        W81157  14.674  25.243  20.603 -0.1300  0.0342 -0.0859
38167W        W81158   3.477  27.539   4.992 -0.1672 -0.1795  0.1574
38168W        W81159  30.333  24.472   7.553  0.0847 -0.1591  0.1070
38169W        W81160  26.753  34.336   3.810  0.2596  0.1368 -0.0469
38170W        W81161  31.991  27.275   8.535 -0.0846 -0.0768  0.1409
38171W        W81162  31.845  17.971   6.669 -0.0996 -0.1828  0.0224
38172W        W81163  31.416  22.162  15.035  0.1781 -0.1962 -0.0654
38173W        W81164   5.734  19.216   9.384  0.0116  0.1387  0.1512
38174W        W81165   1.093  31.789   5.495 -0.1001  0.0879  0.2400
38175W        W81166   4.485  30.476   2.316  0.4229  0.2107  0.3717
38176W        W81167  18.736  28.388  23.435 -0.0588  0.1850  0.0128
38177W        W81168  17.528   8.234   7.604 -0.0328 -0.2127 -0.1155
38178W        W81169  27.200  27.314   6.130 -0.0531  0.3681 -0.0739
38179W        W81170  28.351  23.238   7.737  0.1810  0.0016 -0.3138
38180W        W81171  10.890  27.875   0.423  0.1705 -0.1291 -0.0856
38181W        W81172  33.375  14.581   7.489 -0.1970 -0.1154  0.3279
38182W        W81173  17.278  31.102   1.450 -0.2338 -0.1887  0.1680
38183W        W81174   4.941   0.677  27.379 -0.2176 -0.0407 -0.0324
38184W        W81175  21.589   7.158   1.948 -0.3353  0.2626  0.0507
38185W        W81176  23.853  22.341   0.759 -0.5782  0.0893 -0.0003
38186W        W81177   8.449   6.473  28.467 -0.3570  0.0079 -0.0846
38187W        W81178  28.118   8.409   5.862  0.0132 -0.1348  0.1174
38188W        W81179  34.588  20.454   8.123 -0.0874  0.2938  0.0281
38189W        W81180  25.965  34.257  28.886 -0.0358 -0.2286 -0.1115
38190W        W81181   3.611  14.044   0.598  0.2834 -0.3049 -0.0269
38191W        W81182  26.164   2.684  22.318 -0.1445  0.0910  0.1096
38192W        W81183  27.142  14.998   7.070 -0.0317 -0.0200  0.1616
38193W        W81184  19.981   2.094   5.588  0.4270  0.2913 -0.0545
38194W        W81185   9.935   7.859   0.078  0.2451  0.0037 -0.4230
38195W        W81186  26.999  25.252  19.689  0.0547  0.1979 -0.0541
38196W        W81187  27.000  34.173   9.156 -0.2617  0.0431  0.0060
38197W        W81188  23.622  34.346   7.485 -0.1925 -0.0081  0.0221
38198W        W81189   3.187  27.851   7.907  0.0166 -0.0135 -0.1348
38199W        W81190  14.529  25.134  24.993  0.1355  0.0847 -0.0020
38200W        W81191  25.460  33.362   6.967  0.4289  0.1582  0.0252
38201W        W81192   2.483   5.039  24.530 -0.2773  0.3202 -0.0893
38202W        W81193  21.797  19.303   4.253  0.2492 -0.3126 -0.0570
38203W        W81194  27.336  32.445  27.665  0.1486 -0.4193  0.2442
38204W        W81195  11.500  18.854  24.435  0.2046 -0.0158  0.1989
38205W        W81196   1.936  17.433   8.258 -0.1195  0.0882 -0.1824
38206W        W81197  11.134  29.535  28.848  0.1099  0.1927  0.1368
38207W        W81198  24.971  29.193  21.287  0.6023 -0.1017 -0.2030
38208W        W81199  34.779  15.805   5.762 -0.0992  0.1533  0.3249
38209W        W81200  34.772   2.226   2.787 -0.2311  0.0789 -0.4277
38210W        W81201  22.836  34.260  16.974 -0.2013 -0.3409 -0.0913
38211W        W81202  27.711  29.652  20.387  0.2056  0.1024 -0.1041
38212W        W81203  25.103  34.380   0.936 -0.0688 -0.4324 -0.2832
38213W        W81204   6.300  18.884  28.341 -0.2283  0.0450 -0.0423
38214W        W81205  11.140  33.486  24.918 -0.2789  0.0525  0.4222
38215W        W81206  14.089  16.407   3.688  0.1813 -0.2069  0.0825
38216W        W81207  22.359  22.212  25.299  0.1567  0.1141 -0.1495
38217W        W81208  30.826   0.085   7.471  0.1206  0.0556 -0.1033
38218W        W81209  31.033  32.009  26.704  0.2361  0.3068 -0.0743
38219W        W81210  30.198   6.449  28.598  0.0551 -0.0613  0.1110
38220W        W81211   5.047  32.520   4.453 -0.0026 -0.0060  0.1126
38221W        W81212  21.190  25.339   3.249 -0.1583  0.2168 -0.3981
38222W        W81213  21.529   8.895   3.631 -0.1295  0.1351  0.2845
38223W        W81214   1.053  23.438   1.369 -0.0950  0.1426  0.1854
38224W        W81215  24.526  24.446   4.310  0.3428 -0.3931  0.3301
38225W        W81216   5.836   6.640   6.303  0.2250  0.1412 -0.1102
38226W        W81217  16.246  23.190  22.332  0.0868  0.0063 -0.2277
38227W        W81218   5.996  23.105   8.305  0.2045 -0.3142  0.1590
38228W        W81219   7.647  18.358   5.863  0.4259 -0.1942  0.4156
38229W        W81220   0.257  25.769   3.145  0.1918 -0.1328 -0.2170
38230W        W81221  34.468   8.425  22.328  0.5820  0.0564 -0.1335
38231W        W81222   8.407  20.841   1.538  0.3391 -0.0209 -0.2046
38232W        W81223  25.060   0.341   7.802 -0.1974  0.4925  0.0638
38233W        W81224  31.092  20.933   8.513 -0.0157  0.0584 -0.2940
38234W        W81225   7.870  22.122  27.999  0.0965  0.2670 -0.0206
38235W        W81226  31.580  22.028   3.500  0.1878 -0.0715 -0.2517
38236W        W81227  31.065  30.892   6.834 -0.1083  0.0893 -0.1799
38237W        W81228  33.029   0.064   0.370  0.1836 -0.1921 -0.1103
38238W        W81229   6.189  20.115   0.797 -0.1814  0.0171 -0.2009
38239W        W81230  25.014  15.266   2.457  0.1256  0.1586 -0.0563
38240W        W81231  16.116   0.672  17.637 -0.2633 -0.0045  0.1344
38241W        W81232  27.064   7.634  28.249  0.0360  0.3590 -0.0245
38242W        W81233  10.225  25.580   9.868  0.1142 -0.0673 -0.2761
38243W        W81234  31.645  17.569   6.191 -0.3649 -0.3101 -0.3909
38244W        W81235   4.488   3.357   0.787  0.0507  0.1895  0.2238
38245W        W81236  30.930  23.842   7.412 -0.0429  0.0442 -0.2980
38246W        W81237  16.649  23.426  27.076 -0.1844  0.0324  0.3461
38247W        W81238  20.621  26.889   7.081 -0.0972 -0.2185  0.2382
38248W        W81239  20.841  15.354  26.789 -0.0649  0.1548  0.0928
38249W        W81240  31.744   7.800   5.689 -0.1933  0.1261 -0.2168
38250W        W81241  28.924  32.939   0.629  0.0619 -0.0041 -0.1054
38251W        W81242  18.544   0.066   3.766  0.1586 -0.0437 -0.3373
38252W        W81243  21.799   9.097   0.183  0.0924  0.2031 -0.1043
38253W        W81244   0.337   9.148  25.134 -0.1309  0.0047  0.0930
38254W        W81245  26.553  25.103  28.010  0.2986 -0.0097  0.0263
38255W        W81246  19.086  28.140  25.083 -0.3497  0.1701  0.1135
38256W        W81247  22.501   8.480   1.291  0.2056  0.1109  0.0489
38257W        W81248  19.740   5.362   8.039  0.0313  0.0812  0.0734
38258W        W81249  29.663  25.319   3.510 -0.1502  0.1030  0.1665
38259W        W81250  15.997  11.250   8.815  0.1740  0.1508 -0.2736
38260W        W81251  22.160  20.398  25.284 -0.2323 -0.4272 -0.3427
38261W        W81252  13.167  32.338  28.976 -0.2681 -0.0376  0.2019
38262W        W81253  31.753   5.874  26.792  0.1290  0.0791 -0.0318
38263W        W81254  22.989  14.128   4.033 -0.0761  0.0893  0.2187
38264W        W81255  16.693  21.087  24.418 -0.2925  0.0520  0.1850
38265W        W81256  14.072  24.681   7.456  0.1928 -0.0748  0.1772
38266W        W81257   4.836  20.243   2.871 -0.3550  0.1336 -0.3960
38267W        W81258  28.043  24.794   6.236 -0.0999  0.1828 -0.2794
38268W        W81259   6.135  16.013   6.056  0.2091  0.2509  0.0725
38269W        W81260  31.165  24.809   9.343  0.2211 -0.0151  0.0707
38270W        W81261  11.840  21.314  22.007 -0.2633  0.0409  0.2061
38271W        W81262  15.334  31.362   9.368 -0.4714 -0.1713 -0.2100
38272W        W81263  32.885   3.764  28.604  0.0798 -0.0572  0.0311
38273W        W81264  20.939   3.099   4.218 -0.2516  0.3305  0.0181
38274W        W81265  21.706  27.687   6.914  0.0785 -0.3546  0.0128
38275W        W81266  22.974   2.923   0.314 -0.2308  0.2501 -0.5110
38276W        W81267  25.681  29.664   4.605  0.0320  0.0246  0.0022
38277W        W81268  21.041  29.592  15.459 -0.1244  0.2033 -0.2246
38278W        W81269  30.035  32.864  28.656  0.0159 -0.0612  0.0473
38279W        W81270  22.087  15.464   8.095 -0.0083  0.0454  0.1417
38280W        W81271  28.832  26.800   3.602  0.0804 -0.0174 -0.2512
38281W        W81272  19.940   9.125  24.217  0.3441 -0.1426  0.0235
38282W        W81273  17.493   0.625   5.063 -0.1226 -0.1465  0.1706
38283W        W81274  33.839  22.755   5.968  0.0525 -0.1303 -0.2606
38284W        W81275  11.291  22.978  23.798 -0.1669  0.1313  0.0733
38285W        W81276   6.059  28.181  20.354  0.1107 -0.0783  0.0175
38286W        W81277  12.314   7.135  23.507 -0.4206  0.1084 -0.0300
38287W        W81278  33.365  19.625   7.105 -0.1900  0.0942 -0.2147
38288W        W81279   8.062  24.926  10.074 -0.0064 -0.0172 -0.0415
38289W        W81280  21.860  32.514   2.358 -0.2574 -0.1282  0.1360
38290W        W81281  33.304   1.831   9.799 -0.1369  0.2922  0.0341
38291W        W81282  10.797   3.526   4.217 -0.3315  0.3149  0.1598
38292W        W81283   1.129  10.776   2.998 -0.2522 -0.0711 -0.2254
38293W        W81284  29.550  14.223   8.780 -0.2314 -0.0830 -0.1435
38294W        W81285  20.808   1.211   4.332 -0.0554 -0.1075 -0.1071
38295W        W81286  15.279  22.653  19.835  0.3327 -0.2171  0.0952
38296W        W81287  32.385  12.566  28.242  0.2651 -0.1386 -0.0001
38297W        W81288  31.489  18.398   5.321 -0.0960 -0.0440  0.2323
38298W        W81289  30.815   1.872   8.747  0.0522  0.0169  0.3410
38299W        W81290  23.121  12.157   6.551  0.2037 -0.0762 -0.0225
38300W        W81291  33.736  24.213   5.187 -0.2081 -0.3180  0.0569
38301W        W81292  23.170  12.765  26.027 -0.3758 -0.2702 -0.0329
38302W        W81293  24.915  29.935   8.505 -0.1010 -0.1179  0.0182
38303W        W81294  24.705  24.108   7.687 -0.0127 -0.0924 -0.1198
38304W        W81295  31.424  26.109   4.136  0.2735 -0.3674  0.3927
38305W        W81296  27.874  10.985   8.020 -0.3842  0.0804  0.3936
38306W        W81297  25.985  23.659   6.993  0.0549 -0.0865  0.0811
38307W        W81298  21.424  20.688   5.525  0.1550  0.0021  0.0459
38308W        W81299  23.447  30.498   7.010 -0.0569 -0.0683 -0.0007
38309W        W81300  30.755  30.956   5.106 -0.0478 -0.6179 -0.0912
38310W        W81301  34.188   9.534   9.465 -0.2061 -0.1233 -0.0153
38311W        W81302  33.923   2.314   4.439  0.0439 -0.1469 -0.0408
38312W        W81303  32.178  12.365  10.700  0.1209  0.1914 -0.1681
38313W        W81304  20.243  26.272  27.754 -0.0377 -0.1862 -0.3830
38314W        W81305   2.890  17.668   0.290 -0.0155 -0.0845  0.0555
38315W        W81306   2.199  24.349   9.551  0.0572  0.0715  0.1586
38316W        W81307  15.648  10.370   9.720 -0.1556 -0.0757  0.0940
38317W        W81308   2.860  26.415  28.316  0.0493  0.0100 -0.1538
38318W        W81309  29.210  20.832  15.940 -0.0465 -0.1080 -0.1682
38319W        W81310  17.887  32.220   6.806  0.2646  0.0390 -0.0221
38320W        W81311   7.626  28.750   6.215  0.2776 -0.0634  0.3611
38321W        W81312  19.425  22.347   4.021  0.1244 -0.1914 -0.1140
38322W        W81313  23.139  23.502   3.250  0.2816  0.2201  0.1874
38323W        W81314  19.411  17.413   3.094 -0.0804  0.3899  0.1478
38324W        W81315  28.879  16.201   5.830 -0.1295  0.1793 -0.3166
38325W        W81316  23.801  33.321   5.907 -0.4747  0.0566 -0.0975
38326W        W81317   6.345  10.415  27.208 -0.0003 -0.0759  0.1236
38327W        W81318  15.818  22.820   5.248 -0.3149 -0.2759 -0.4055
38328W        W81319  29.218  30.180  23.880  0.0493  0.2460 -0.2359
38329W        W81320  26.639  27.332   2.349 -0.0915  0.1060 -0.1349
38330W        W81321  24.562  33.547   1.839  0.2209  0.1323 -0.3360
38331W        W81322  32.997  20.572   6.204  0.0017  0.0811 -0.1924
38332W        W81323  28.910   0.379   5.073 -0.2883  0.0324  0.0902
38333W        W81324   3.207  21.321  28.246 -0.0195  0.1410  0.3537
38334W        W81325   1.540  25.926  26.901  0.3275  0.2959  0.1105
38335W        W81326  30.532   0.502   0.036  0.2978 -0.0691  0.0883
38336W        W81327   6.097   9.326   2.759  0.1773  0.0416 -0.2079
38337W        W81328   9.837   5.256  24.926  0.1401  0.1387 -0.2957
38338W        W81329   1.656   0.950  10.384 -0.2713 -0.0493 -0.1990
38339W        W81330  34.100   8.793   7.861 -0.3765  0.0875  0.1836
38340W        W81331  16.832  31.373   2.656  0.3048  0.1251 -0.0643
38341W        W81332  28.997   7.566   3.894 -0.0212  0.0803 -0.0253
38342W        W81333  33.461  18.481   3.614  0.2250 -0.0603 -0.0861
38343W        W81334  30.027  28.638   3.846  0.1345  0.2559  0.0064
38344W        W81335  25.070  32.002   1.497  0.0542  0.0156  0.0612
38345W        W81336  16.069  17.309   1.451  0.2109 -0.0112 -0.1523
38346W        W81337  31.268  27.393   9.404  0.0531 -0.4766 -0.0881
38347W        W81338  28.607  25.625   6.571  0.0620  0.1903 -0.0440
38348W        W81339   3.813  24.662   4.748  0.1153 -0.1496  0.1228
38349W        W81340  17.533  27.086   2.945 -0.0416 -0.3859 -0.3450
38350W        W81341  21.256  19.398   4.518  0.0371  0.2198 -0.4359
38351W        W81342   8.553   4.476  26.925  0.3219  0.0462  0.1934
38352W        W81343  15.203   2.183   0.205  0.0325  0.1224  0.0917
38353W        W81344  11.173  33.750  25.301  0.1854 -0.0968  0.2523
38354W        W81345  32.891  25.436   9.635 -0.1058  0.0504  0.0131
38355W        W81346  17.505  25.388   2.934  0.0364  0.1578  0.0609
38356W        W81347  17.195  26.520   3.831 -0.1432  0.1271 -0.0472
38357W        W81348   0.899  33.598  23.460  0.2345 -0.1622 -0.0909
38358W        W81349  15.969   1.850  10.046 -0.0618 -0.0567  0.1845
38359W        W81350  26.924  26.090   8.022  0.0337  0.3578 -0.0293
38360W        W81351   1.195  26.080   7.489  0.1878  0.2746  0.1580
38361W        W81352  10.902   6.794  27.707  0.1848  0.3543 -0.1519
38362W        W81353  30.903  30.416  20.063  0.0275  0.0112  0.0127
38363W        W81354   0.310   6.978   4.820 -0.0556 -0.1792  0.0534
38364W        W81355  17.468  23.982  22.133  0.3084  0.0912 -0.0649
38365W        W81356  33.157  25.324  27.923  0.4285  0.0269  0.0126
38366W        W81357   3.533   2.177   9.996  0.2341  0.3970  0.0190
38367W        W81358  30.302  28.962   7.519 -0.2026 -0.0133  0.2218
38368W        W81359   0.401  21.470  23.597 -0.0563  0.1925 -0.0480
38369W        W81360   7.300  25.361  26.978  0.3720 -0.0992 -0.2896
38370W        W81361  33.213  22.360   2.727  0.0894 -0.0886  0.1545
38371W        W81362  19.145  10.479  19.872 -0.1636  0.3661  0.1457
38372W        W81363  26.583  29.474   2.154  0.1488 -0.1160  0.1299
38373W        W81364  11.938  27.926   9.721  0.0323 -0.0857  0.0324
38374W        W81365  20.243  32.228  29.172 -0.1709  0.2327  0.0799
38375W        W81366  17.184  18.777   4.345 -0.3604  0.0941 -0.1911
38376W        W81367  17.043  16.620  26.492  0.0490  0.0576  0.0047
38377W        W81368  18.458  31.945   6.854  0.1914 -0.2548  0.1337
38378W        W81369   6.295  24.432   5.909 -0.1105 -0.1780 -0.0307
38379W        W81370   2.923  14.939  28.396 -0.2126  0.2248 -0.3366
38380W        W81371  28.566  25.762   2.554  0.1677 -0.1858  0.2428
38381W        W81372  22.975  11.208   6.428  0.1767 -0.1004 -0.0836
38382W        W81373  10.904  15.654  28.119  0.2206 -0.0108  0.1543
38383W        W81374  21.302   6.333   3.216 -0.0900 -0.0465  0.2763
38384W        W81375  15.748  28.924   5.699  0.0315  0.1446 -0.0140
38385W        W81376  30.598   4.877  10.287  0.1679  0.1802  0.1544
38386W        W81377   2.559   3.726   3.761 -0.0802 -0.1822 -0.1760
38387W        W81378  19.505  19.383   2.026  0.1224  0.0551 -0.3055
38388W        W81379  18.922   0.768   1.976 -0.1897 -0.1569  0.0999
38389W        W81380   3.555  10.052  26.543 -0.0494 -0.0367  0.0591
38390W        W81381  26.709   6.285   1.161 -0.1026 -0.0921  0.0193
38391W        W81382  18.989  26.545  25.280 -0.0099 -0.1615 -0.1604
38392W        W81383   8.374  17.488  16.272 -0.4837 -0.0778 -0.0551
38393W        W81384   2.956  25.516   6.864 -0.1710  0.0880 -0.3120
38394W        W81385  21.702  21.236   6.649  0.1640  0.0348 -0.0500
38395W        W81386   7.657   5.419  27.137 -0.3925  0.0819  0.1301
38396W        W81387  10.072  25.585   2.869  0.1617  0.1863  0.0578
38397W        W81388   7.032  11.946  24.710 -0.0607  0.0418  0.1837
38398W        W81389  24.944  23.464   7.856  0.0144  0.0803  0.3263
38399W        W81390  23.823   6.586   2.189 -0.0740  0.0088  0.1758
38400W        W81391  27.196   7.493  26.120 -0.2802  0.1145  0.1860
38401W        W81392  20.663  20.510   3.775  0.2648  0.2605 -0.2510
38402W        W81393   2.931  32.587   3.405 -0.2129 -0.3125  0.1295
38403W        W81394  29.972  25.286   6.607  0.2207 -0.0557  0.1035
38404W        W81395  17.045  13.577   2.711 -0.1491 -0.0198  0.0230
38405W        W81396  18.785   5.514   9.285  0.2140 -0.1495 -0.0233
38406W        W81397   5.571  25.666  17.827 -0.1086 -0.0624  0.2807
38407W        W81398   6.930  27.560   5.332 -0.0204 -0.0061 -0.0759
38408W        W81399  18.727  22.889   8.045 -0.0501  0.0779  0.0186
38409W        W81400  26.887  24.356  22.856  0.0845 -0.0237  0.4206
38410W        W81401   1.059  34.558  20.953  0.1648 -0.2298 -0.0010
38411W        W81402  19.525   6.127   6.514 -0.0869 -0.2366 -0.3022
38412W        W81403  29.113  10.270   9.509  0.3121 -0.0329  0.3168
38413W        W81404  22.251   8.558   9.505 -0.4364  0.2179 -0.2310
38414W        W81405  11.903   4.681  23.309  0.3602  0.1389 -0.1868
38415W        W81406  34.321  15.001  22.262  0.1730 -0.0687 -0.3688
38416W        W81407  28.801  21.046   0.148 -0.3470  0.0787  0.2010
38417W        W81408  20.133  22.519   3.596  0.0073 -0.1637  0.1210
38418W        W81409  31.831  26.529  25.192 -0.2037 -0.1917  0.2628
38419W        W81410  23.854   1.441   6.335  0.2861 -0.3258  0.2050
38420W        W81411  13.099  34.352  27.766  0.0750  0.0098  0.0589
38421W        W81412  12.243   3.923  10.737 -0.0573  0.1437  0.3778
38422W        W81413   0.797  13.771   0.647  0.0451  0.3191  0.1901
38423W        W81414   7.696   0.825  10.475  0.0531  0.0323  0.2101
38424W        W81415  28.902  11.620   1.241  0.1248  0.2170 -0.1943
38425W        W81416  22.211  29.553   8.506  0.2920  0.1171 -0.1156
38426W        W81417   7.538  13.499   7.308  0.0433 -0.1020 -0.0581
38427W        W81418  16.949   0.191   4.739  0.0503  0.3235 -0.0870
38428W        W81419   3.924  27.684   5.391  0.0148  0.1071 -0.0262
38429W        W81420   5.237  22.905   5.066  0.2354 -0.1364  0.0449
38430W        W81421  32.149  32.543  22.558  0.2557 -0.3337 -0.2555
38431W        W81422  16.629  28.426   9.432 -0.0732  0.2501  0.3061
38432W        W81423  28.132  20.915   7.976  0.0559  0.2244  0.0113
38433W        W81424   5.353   1.367   1.708 -0.1030 -0.0214 -0.2208
38434W        W81425  12.397  26.399   7.602  0.0075 -0.0227  0.2939
38435W        W81426  30.625  19.641   8.789  0.2756 -0.1574  0.0785
38436W        W81427  24.275  18.846   7.652  0.3343  0.3991 -0.0662
38437W        W81428  27.718  23.726   4.601  0.0069 -0.2727 -0.2939
38438W        W81429  28.723   3.890   9.100  0.1296  0.0997 -0.0280
38439W        W81430  29.662  21.720  15.274 -0.2752  0.0457  0.0922
38440W        W81431  16.505   4.517   4.340  0.1819 -0.1198 -0.0950
38441W        W81432  26.042   1.373  25.652 -0.1273  0.2629 -0.1801
38442W        W81433  15.551  18.133  24.605  0.0924  0.3537  0.0807
38443W        W81434  14.398   7.525   7.012 -0.4922  0.2459  0.0666
38444W        W81435  31.749  11.842  11.725 -0.2869  0.0188  0.0142
38445W        W81436  34.034  21.858  26.860 -0.1493  0.1205 -0.0418
38446W        W81437   7.523  13.468   6.750 -0.0468 -0.0178 -0.2159
38447W        W81438  14.366  34.162   9.690  0.1445  0.0695  0.3486
38448W        W81439  19.172  11.085  18.959 -0.2367 -0.1405  0.1658
38449W        W81440   6.254   5.709  10.429 -0.2451  0.5342 -0.0651
38450W        W81441  17.993   7.365   0.505 -0.0165  0.4015  0.2397
38451W        W81442   4.231  34.026   8.039 -0.0209  0.4907  0.0957
38452W        W81443  34.131  28.713   9.320  0.0528  0.1705  0.0402
38453W        W81444  11.454  23.903  28.608 -0.0349  0.1779  0.0653
38454W        W81445  10.304  29.430   7.729 -0.1347  0.0290  0.1100
38455W        W81446  32.914  14.488   9.271  0.1981  0.0225  0.2127
38456W        W81447  33.553  32.285   5.555 -0.1376  0.1325  0.0301
38457W        W81448   3.325   2.633  17.606 -0.1477 -0.1037 -0.0126
38458W        W81449  30.105  32.154   6.497 -0.0465 -0.2093 -0.0244
38459W        W81450  32.104  21.311  27.343 -0.0076  0.1949  0.1549
38460W        W81451  20.278  27.353  21.182  0.2487  0.0322 -0.0262
38461W        W81452   0.471   7.651  25.627 -0.3234 -0.1369  0.0855
38462W        W81453   0.911  16.550   7.800 -0.1048  0.0942  0.1036
38463W        W81454  22.939  33.837  19.956 -0.0693 -0.0884  0.2188
38464W        W81455  21.603  33.683  26.114 -0.1250 -0.0220  0.2920
38465W        W81456  26.772  31.720   3.931 -0.1214  0.1707 -0.1980
38466W        W81457  25.142  28.279   6.167  0.0573 -0.3274  0.1327
38467W        W81458  12.236  22.866  24.028  0.2366  0.1357  0.0372
38468W        W81459   4.792  28.514  20.588  0.1235 -0.0210  0.2169
38469W        W81460   1.862   0.988   4.047 -0.3043 -0.2895 -0.0260
38470W        W81461  29.381  11.884   6.767  0.0220 -0.2699 -0.0238
38471W        W81462   1.918  33.328   7.260  0.0839 -0.2980  0.1273
38472W        W81463   5.393  34.684   7.795 -0.1358 -0.1650 -0.1270
38473W        W81464   8.297  11.985   6.763  0.1103 -0.0673  0.1753
38474W        W81465  32.017  33.295  28.779 -0.2370 -0.1488 -0.1223
38475W        W81466  32.541   3.248   5.385  0.0331  0.1691 -0.3204
38476W        W81467   3.361  29.952   6.179  0.1326 -0.0617  0.2388
38477W        W81468   1.493  18.983  24.335 -0.1618 -0.1190 -0.2166
38478W        W81469  25.935  22.310   4.239  0.2659  0.0243  0.2307
38479W        W81470   3.353  11.133  27.049 -0.3943 -0.0038  0.3319
38480W        W81471   1.692  16.967   9.069  0.1575 -0.0851  0.1081
38481W        W81472   2.749  30.089  23.374 -0.0769  0.0949 -0.0737
38482W        W81473   2.509   0.521   9.302 -0.0182 -0.0358 -0.0756
38483W        W81474   1.221  30.625   9.594  0.0912  0.0248 -0.0697
38484W        W81475  26.567   2.107   5.520 -0.0150  0.1445 -0.0023
38485W        W81476  31.975  20.666  27.060  0.2096  0.2247  0.0020
38486W        W81477  24.851  12.414   2.524  0.0013 -0.0621 -0.0255
38487W        W81478   1.677  12.438   1.362 -0.0029  0.0037 -0.4035
38488W        W81479  17.483  25.594   6.710 -0.2149 -0.1897  0.2215
38489W        W81480  25.171  23.552   5.166  0.0608  0.0167  0.0699
38490W        W81481  32.496  27.138  22.833  0.0146  0.0335  0.0816
38491W        W81482  27.398  27.131   0.762  0.0938  0.3123 -0.0354
38492W        W81483  14.347  30.108   9.698  0.1538  0.0508 -0.2301
38493W        W81484  25.846  12.707   0.814 -0.0579 -0.0628  0.0739
38494W        W81485  10.818  24.789   9.292  0.1694  0.0303 -0.2148
38495W        W81486  23.813  12.319  28.694  0.1250  0.0031  0.1914
38496W        W81487   9.761  13.610  27.208 -0.2130  0.0905  0.6119
38497W        W81488  29.621   0.905   9.068 -0.0636  0.2013  0.3432
38498W        W81489  28.925  21.414  22.213 -0.1698  0.3930 -0.1380
38499W        W81490   1.164  18.344   4.107 -0.3330 -0.2340  0.0564
38500W        W81491   9.187  14.007   4.840  0.2600  0.1692 -0.1920
38501W        W81492  20.013  20.627   0.572  0.1392  0.4055 -0.1386
38502W        W81493  29.630  23.743   9.359  0.0214 -0.2437 -0.0384
38503W        W81494  23.822  18.791   8.036 -0.3123 -0.2268  0.4400
38504W        W81495   1.304  24.189   9.459  0.0971  0.2934 -0.0957
38505W        W81496  26.369  16.218   5.306  0.3048 -0.1568  0.0569
38506W        W81497  26.089  27.821   3.758  0.1742 -0.2301 -0.0941
38507W        W81498  16.535  20.546   3.774 -0.1292 -0.1893  0.2462
38508W        W81499  27.950  25.718   5.233  0.1377  0.1604 -0.0170
38509W        W81500   2.947   8.625   7.142 -0.2314 -0.0647  0.1085
38510W        W81501  34.599  20.535   3.509  0.1275  0.1058  0.0560
38511W        W81502  13.313  31.360  24.733  0.2091 -0.2647 -0.3409
38512W        W81503   1.400  11.868  27.624 -0.0917 -0.0711  0.2690
38513W        W81504   1.065   3.205   9.280 -0.1199  0.0022  0.0297
38514W        W81505  31.960  25.584  24.500 -0.3806  0.3196  0.2684
38515W        W81506  30.589  26.050   1.884  0.0519 -0.0751 -0.1140
38516W        W81507   2.262   2.943  26.721 -0.1054 -0.0727  0.2759
38517W        W81508   0.904  20.461  26.088 -0.1752  0.1620  0.2543
38518W        W81509  24.415  27.582   8.136  0.2021  0.2365  0.0844
38519W        W81510  27.004   1.005   2.957 -0.1303 -0.0969 -0.3798
38520W        W81511   3.236  31.773   4.870 -0.2262  0.0791 -0.2268
38521W        W81512  18.960  24.609  27.092  0.0540 -0.0725 -0.1593
38522W        W81513  34.049  29.599   9.802 -0.1896  0.1175  0.0094
38523W        W81514   3.251   4.174   1.154 -0.1223  0.1062  0.0852
38524W        W81515   5.360   2.987   6.808 -0.1331 -0.0177 -0.0920
38525W        W81516  12.799  22.409   2.698  0.0950 -0.2028  0.2553
38526W        W81517  21.361   1.135  25.502 -0.2210 -0.0896 -0.5317
38527W        W81518  21.581  21.152   7.619  0.3366  0.1384 -0.1725
38528W        W81519  14.112   2.205  10.512  0.0294  0.1984 -0.0003
38529W        W81520  10.327  25.166   0.295 -0.1006  0.0099  0.0624
38530W        W81521  29.306  24.420   2.663 -0.0842 -0.4003  0.0155
38531W        W81522  16.034  16.927   1.808  0.1123  0.2238 -0.3156
38532W        W81523  29.887  16.253  20.460 -0.1669  0.2624 -0.0797
38533W        W81524   7.134  27.182   7.439 -0.0173  0.3754 -0.0528
38534W        W81525  13.139   8.557   0.570 -0.3320 -0.1771 -0.0043
38535W        W81526  28.205  21.091   0.633 -0.0864 -0.1412  0.1734
38536W        W81527   0.665   2.738  26.371 -0.4232 -0.2041  0.1086
38537W        W81528  33.533  28.520   7.306  0.1519  0.0025  0.2513
38538W        W81529   5.033  33.293  28.287  0.0465 -0.0493  0.2050
38539W        W81530  29.854   3.530  18.528  0.1296 -0.1252  0.0777
38540W        W81531  32.488  25.585   9.353 -0.3132  0.2186 -0.0098
38541W        W81532  20.143  11.594   2.356  0.0502 -0.0531  0.2086
38542W        W81533  25.823  23.389  17.378 -0.2777  0.1628 -0.0553
38543W        W81534  22.779  26.030   0.530 -0.0413 -0.0389  0.0329
38544W        W81535  31.858  32.994  29.207  0.0219  0.0763 -0.2355
38545W        W81536  17.713  24.156   3.849 -0.0327  0.1428  0.1083
38546W        W81537  26.412  11.187  28.741  0.2056 -0.1655  0.0205
38547W        W81538  26.566  30.045   7.742  0.3888  0.0853 -0.0555
38548W        W81539  24.243  12.202   4.647 -0.0057 -0.2041  0.2640
38549W        W81540  22.123  20.374  20.045  0.3001 -0.2055 -0.0723
38550W        W81541  21.564  33.825  20.428  0.0737 -0.1119 -0.2570
38551W        W81542   4.443  29.127   5.599  0.0577 -0.1900 -0.0773
38552W        W81543  15.165  28.961  21.726  0.2450 -0.2003 -0.1290
38553W        W81544   0.550  17.831  24.894 -0.0246  0.1775 -0.4162
38554W        W81545  23.667  26.800   1.445 -0.0381 -0.0711  0.0031
38555W        W81546  28.407  25.582   8.319 -0.1578 -0.2117 -0.0946
38556W        W81547  14.846   0.195  27.995 -0.0610 -0.1960 -0.4020
38557W        W81548  15.827  26.999   3.885  0.0195 -0.3102  0.2287
38558W        W81549  23.130  11.598   9.488  0.0411  0.3656  0.1076
38559W        W81550  17.920   3.664   8.666 -0.0087 -0.1403  0.1590
38560W        W81551  30.410  11.544   5.214 -0.0686  0.1965 -0.1113
38561W        W81552  28.187  26.592   8.284 -0.0634  0.2893 -0.0457
38562W        W81553  20.487  27.631   3.522 -0.3330  0.0777  0.0057
38563W        W81554  27.402   2.267  26.761 -0.0050 -0.0589 -0.0298
38564W        W81555  25.413   3.938   4.290 -0.0862 -0.2418  0.1091
38565W        W81556  14.073  26.999  28.756 -0.0903 -0.0923 -0.0193
38566W        W81557  16.272   4.401  19.550 -0.0104 -0.1828  0.0262
38567W        W81558   6.978  34.466   6.810  0.1135 -0.1334  0.1465
38568W        W81559  27.788  30.767   6.529  0.0614 -0.1111 -0.1064
38569W        W81560  26.445   0.567  26.793  0.4041  0.0808 -0.0687
38570W        W81561   0.901   0.005   1.780  0.0436  0.3712  0.1056
38571W        W81562  23.117   4.520  22.840 -0.0313  0.1988  0.0125
38572W        W81563  17.175  12.245  25.221 -0.1734  0.5101  0.1233
38573W        W81564  27.151  28.995   8.693  0.1462  0.1751  0.1130
38574W        W81565  10.721   1.451  25.875 -0.2247  0.0040  0.0271
38575W        W81566  25.776  10.252   9.718 -0.0113  0.0597 -0.2344
38576W        W81567  10.862  24.256  10.020  0.1787  0.0967  0.1000
38577W        W81568  27.062   1.654   7.411  0.1265 -0.0130  0.0160
38578W        W81569  16.224  32.692  28.697  0.2194 -0.1498 -0.0287
38579W        W81570  28.149  25.781  23.335 -0.1351  0.0035 -0.3737
38580W        W81571  25.799  10.812   0.067 -0.1601  0.1343  0.1333
38581W        W81572   0.320   1.187  22.384 -0.0204  0.4102 -0.0776
38582W        W81573  18.950  21.697   2.282 -0.0294  0.1109 -0.0921
38583W        W81574   4.518  30.543  22.299  0.2801 -0.0760  0.0692
38584W        W81575   4.799   9.967   9.821 -0.0608 -0.0894  0.0542
38585W        W81576   1.445  32.801   0.444  0.0545  0.1247 -0.1652
38586W        W81577  27.932  12.659   6.957 -0.0999 -0.2152 -0.2571
38587W        W81578  17.303  34.747   2.368  0.1029  0.2177  0.0700
38588W        W81579  25.308  21.875   1.696 -0.0300 -0.5128  0.3416
38589W        W81580  30.337  29.203  17.764 -0.1170 -0.0397 -0.0728
38590W        W81581  34.799   0.767   5.817  0.0855  0.0374  0.0980
38591W        W81582  18.276  30.240  28.682  0.0191  0.2862  0.1530
38592W        W81583  29.577  32.632   8.560 -0.1294  0.1980 -0.0643
38593W        W81584  25.151   0.768   8.531  0.3041  0.2046  0.1088
38594W        W81585   0.598  25.066   5.705 -0.2503  0.1210 -0.1363
38595W        W81586  31.672  29.419  28.770 -0.1870  0.1927 -0.3044
38596W        W81587   8.889  28.534   7.096  0.1231  0.3682  0.1552
38597W        W81588  32.875   4.664  26.819 -0.2018  0.0239  0.2038
38598W        W81589  19.838   9.454  13.160 -0.4037  0.0378 -0.3296
38599W        W81590   5.515   7.212  28.155  0.2135  0.1348 -0.0801
38600W        W81591  32.562  21.121  28.123  0.0602 -0.0907 -0.1488
38601W        W81592  21.805  22.868   6.569 -0.1787  0.2351 -0.1925
38602W        W81593  19.996  19.579   2.509  0.0190 -0.1810  0.0888
38603W        W81594   2.658  32.074   3.496  0.1525  0.2742  0.3133
38604W        W81595   1.816  28.088   3.416  0.1377 -0.0822  0.0005
38605W        W81596  32.215  26.684   5.093 -0.0150 -0.1043  0.3378
38606W        W81597   0.901  21.910  20.319 -0.0366  0.1517 -0.1220
38607W        W81598  24.567  31.690   7.762  0.1822  0.0667  0.1542
38608W        W81599  18.635  25.493   4.209  0.0744  0.1445  0.2137
38609W        W81600   1.262  31.380   9.346  0.1133  0.0117 -0.1981
38610W        W81601  28.184  28.707  13.907  0.1773  0.1835 -0.1729
38611W        W81602  22.033   2.530   6.706  0.1336 -0.1428 -0.4144
38612W        W81603  28.565  14.507   3.091  0.0077 -0.0594  0.2717
38613W        W81604  32.634  33.996   7.751  0.1119  0.1481  0.1253
38614W        W81605  13.728   3.894  20.674  0.0549  0.1249 -0.1359
38615W        W81606  28.183  18.725   4.038  0.1861 -0.4044  0.2528
38616W        W81607  24.029  29.588  23.413  0.1019  0.3824  0.2101
38617W        W81608   3.238  12.843   1.162  0.0903  0.3018  0.0641
38618W        W81609  26.721  24.680   0.806 -0.0232 -0.2384 -0.1120
38619W        W81610  20.854  11.682  17.470  0.1313 -0.1791 -0.0273
38620W        W81611  23.682  24.393  13.314  0.1975  0.0876 -0.0209
38621W        W81612  34.222   5.864   9.102 -0.0487  0.2802  0.1903
38622W        W81613  32.195   4.011  28.016  0.0095 -0.2040 -0.1141
38623W        W81614  31.500  30.372  18.069  0.1621  0.0302 -0.0117
38624W        W81615  18.283  30.616   6.920  0.1449 -0.1244  0.4099
38625W        W81616  13.583   9.373   2.334  0.2680 -0.3030 -0.1128
38626W        W81617  29.257   4.416   3.840  0.1916  0.1644  0.1473
38627W        W81618  27.317  22.295   0.332 -0.0229  0.2015  0.0097
38628W        W81619   9.893  27.365   2.876  0.1558  0.2099 -0.2535
38629W        W81620  18.188   2.615  25.511 -0.0884  0.0639 -0.0565
38630W        W81621  15.043  30.725  25.953 -0.0639 -0.2211 -0.0304
38631W        W81622  32.011  33.590  18.178 -0.0956 -0.1136  0.0763
38632W        W81623  33.824  29.606  19.360  0.0158 -0.0804 -0.3428
38633W        W81624  10.025  29.384  10.316  0.1528  0.1721 -0.1159
38634W        W81625  31.284  27.024  26.922  0.0701 -0.2054 -0.2413
38635W        W81626  15.360  16.154   3.529 -0.0854  0.2408  0.0779
38636W        W81627   5.345  33.492  28.625 -0.0484  0.1387  0.2394
38637W        W81628  29.654  11.583   0.313  0.2665 -0.0975  0.0219
38638W        W81629  29.958  25.579   6.189 -0.1526 -0.2428 -0.2124
38639W        W81630  30.101  32.146  24.223 -0.3893 -0.1139  0.1115
38640W        W81631  19.009  23.005   2.672 -0.4212  0.0268 -0.0300
38641W        W81632  32.164   8.865  15.080  0.1821  0.1957  0.4242
38642W        W81633   4.264  22.401  22.725 -0.3178  0.0698  0.2679
38643W        W81634   7.827  31.254  24.859 -0.0964 -0.0533 -0.2489
38644W        W81635  22.442   4.999   6.465 -0.1682  0.1671 -0.0853
38645W        W81636   2.599  19.558   5.857  0.3208 -0.1074  0.0262
38646W        W81637  30.534  25.344   1.178  0.1882  0.1014 -0.7320
38647W        W81638  13.787   7.328   3.437  0.2302  0.1736  0.1089
38648W        W81639  13.068  28.205  22.707 -0.0446  0.0029 -0.1374
38649W        W81640   8.367  12.023   0.251  0.2834 -0.0236 -0.0431
38650W        W81641   0.353  23.792   2.037 -0.1627  0.0465  0.2276
38651W        W81642  17.104  19.745  22.468 -0.0193 -0.0474 -0.0760
38652W        W81643  18.733   9.418   1.869 -0.2357  0.0379  0.0836
38653W        W81644  28.786  34.124   8.451  0.1052 -0.1619  0.0884
38654W        W81645  15.619  25.427  27.538 -0.2337  0.0639  0.2416
38655W        W81646  22.971   2.474   1.580 -0.1357 -0.0397  0.1530
38656W        W81647  12.378  33.626  21.158 -0.1241 -0.0933  0.0465
38657W        W81648  21.213  27.077   3.585  0.1076  0.4293  0.0124
38658W        W81649  28.194  28.248  22.652 -0.1137  0.1356 -0.0311
38659W        W81650  29.652  34.723   8.502  0.1645  0.1341 -0.2258
38660W        W81651   2.813  32.361   8.623 -0.0327 -0.3256  0.2312
38661W        W81652  30.358  26.396   8.044  0.1782  0.1568 -0.2681
38662W        W81653  33.788  33.698  29.244  0.2101 -0.4461 -0.0783
38663W        W81654   4.592  23.787   6.095  0.0481 -0.2691  0.0993
38664W        W81655   6.947  15.082   2.726 -0.0986  0.2526  0.2142
38665W        W81656  14.558   6.990  18.033 -0.0410  0.0969 -0.1499
38666W        W81657  32.213  33.105  26.656 -0.0138  0.1363 -0.1096
38667W        W81658  12.383   3.516  27.057  0.0418  0.0159 -0.1480
38668W        W81659  29.010  33.730   1.295  0.1254  0.0362  0.1516
38669W        W81660   1.029  18.845  26.926 -0.0149  0.0074 -0.1053
38670W        W81661  17.581  18.389   9.091 -0.0338 -0.0387 -0.2515
38671W        W81662  20.683  23.230   7.967 -0.0102 -0.0615  0.0975
38672W        W81663   5.437  30.473   9.002  0.4630 -0.2084  0.0719
38673W        W81664  11.187  26.996  24.496 -0.0582  0.0938  0.1317
38674W        W81665  23.909  31.761   3.516  0.0295  0.0637 -0.2766
38675W        W81666  29.287   5.475   8.302  0.0771  0.3830  0.0555
38676W        W81667   1.772   5.763   0.993 -0.0031 -0.0051  0.0381
38677W        W81668   0.007  33.122   7.692  0.2133  0.1504 -0.3740
38678W        W81669  23.565  30.791  22.268  0.0857  0.1238 -0.1168
38679W        W81670  22.025  13.499   5.196  0.2633 -0.0661  0.1322
38680W        W81671  28.477   0.596  26.882  0.1285 -0.1988 -0.1055
38681W        W81672  21.478  10.581  28.267 -0.4632 -0.3606 -0.0884
38682W        W81673  27.018  28.747  24.928  0.1879 -0.2442  0.1345
38683W        W81674  27.190  15.734  26.143 -0.2236  0.2889 -0.0382
38684W        W81675   3.661  18.135   2.464  0.2040  0.1615  0.0656
38685W        W81676   7.145  23.548  24.322 -0.2292 -0.0877 -0.2680
38686W        W81677   3.681  31.489   8.738 -0.0508  0.3138 -0.2077
38687W        W81678  16.753  27.269   5.512  0.2417  0.0824  0.0031
38688W        W81679   5.761  25.926  25.295 -0.2412 -0.2241  0.1086
38689W        W81680  27.242  19.837   9.313  0.2953  0.0058  0.0995
38690W        W81681  24.162   5.029  26.859  0.0056  0.1519 -0.0904
38691W        W81682  27.834   9.494   7.058  0.0510  0.4361 -0.1228
38692W        W81683  17.325  30.675   7.425 -0.0804  0.0688  0.4445
38693W        W81684  16.932   1.809   8.594 -0.0158  0.1249 -0.4017
38694W        W81685   6.514  29.630  24.817  0.2722 -0.0756 -0.3923
38695W        W81686  15.736   8.251  28.464 -0.0163  0.0174 -0.0372
38696W        W81687  24.507  16.338   1.885  0.0829 -0.1267  0.3925
38697W        W81688  14.139   9.291  25.259  0.3151 -0.0384 -0.3926
38698W        W81689  11.563  28.970  10.429  0.4064  0.0397  0.0068
38699W        W81690  34.722  21.755   2.898  0.1397  0.0676  0.0232
38700W        W81691  16.709  30.932  28.001  0.1306  0.0437 -0.1006
38701W        W81692  32.433  29.109   8.413 -0.3318  0.0511  0.0259
38702W        W81693   6.860  26.884  28.111  0.2727  0.1742  0.3133
38703W        W81694  30.067   2.015   7.156  0.0036  0.1333 -0.0741
38704W        W81695   0.216   1.568   8.453  0.2356  0.0897 -0.0262
38705W        W81696  25.399  26.340   7.499  0.0552  0.0104 -0.0950
38706W        W81697   7.041  28.060  21.979  0.0511  0.0703 -0.0779
38707W        W81698  28.824  20.757   5.748  0.2496 -0.3875 -0.0609
38708W        W81699   2.083  23.050  19.415  0.0385 -0.2237 -0.0134
38709W        W81700   6.968   3.736  10.765 -0.2776  0.1432  0.2371
38710W        W81701  11.767  25.222  22.724 -0.1105 -0.2323  0.0200
38711W        W81702  25.423   6.992  15.713  0.2274  0.0765 -0.0846
38712W        W81703  18.549  14.112   8.136  0.3865  0.0033 -0.1975
38713W        W81704  23.958  19.942  21.818 -0.2224  0.0479 -0.1526
38714W        W81705  28.695  11.086  17.846  0.0056  0.1157 -0.2357
38715W        W81706  22.913   4.181  24.812  0.3134 -0.0130 -0.1444
38716W        W81707  26.156   0.334   8.891  0.0380  0.0416  0.0931
38717W        W81708  30.757  27.939   4.977 -0.2119  0.1200  0.2240
38718W        W81709  20.070   3.557   3.667 -0.0485 -0.2221  0.2573
38719W        W81710  25.037  22.692  27.859 -0.0783  0.0614 -0.2610
38720W        W81711  17.551  32.017  28.793 -0.0896  0.2293 -0.1431
38721W        W81712   1.943  21.264   6.998  0.2329 -0.3426 -0.5470
38722W        W81713  29.051  25.309  20.012 -0.0404 -0.0245  0.0742
38723W        W81714  20.289  25.987   0.177  0.2467 -0.0241  0.0503
38724W        W81715  24.937  26.543  21.406 -0.0181  0.2873 -0.3219
38725W        W81716   4.909  34.435   0.478  0.0921  0.0543 -0.0129
38726W        W81717   8.318   2.165  26.116  0.2150  0.1112  0.2743
38727W        W81718  28.954  33.161  20.937  0.1279  0.0478  0.0261
38728W        W81719  12.623  13.101   4.831 -0.0661  0.0597 -0.0722
38729W        W81720  23.027  27.289   8.031 -0.2218  0.2340  0.1378
38730W        W81721   8.691   5.999   9.428 -0.0308  0.0570  0.1650
38731W        W81722  18.951  25.687   7.839  0.1394 -0.2847  0.5697
38732W        W81723   8.414  25.295  19.213 -0.0827  0.1304  0.1674
38733W        W81724  27.528  16.165  22.065 -0.2001 -0.0680  0.2433
38734W        W81725  25.334  23.573  24.533 -0.0660  0.2219  0.4904
38735W        W81726  10.660   4.055   1.468  0.4558  0.0890  0.2662
38736W        W81727  15.615   0.210  28.106 -0.4150  0.1805 -0.0715
38737W        W81728  16.635  33.022  24.606  0.3067  0.0220 -0.1057
38738W        W81729   7.442  32.057   4.613  0.1579 -0.0817  0.1156
38739W        W81730  29.116  30.495   4.189  0.1937  0.0603 -0.0038
38740W        W81731  27.395   5.748   9.540  0.1278 -0.0928 -0.0626
38741W        W81732  24.187  25.999   4.162  0.0753 -0.3149  0.4029
38742W        W81733  31.472   8.931  24.803 -0.0795  0.1937 -0.2266
38743W        W81734   6.074  13.929  22.267  0.0236 -0.1791 -0.1838
38744W        W81735  29.955  28.857   0.123  0.0621  0.0609 -0.3808
38745W        W81736  29.657   4.722   4.844  0.3212 -0.0933  0.1514
38746W        W81737  28.832   2.378  19.804 -0.0225 -0.0866 -0.3833
38747W        W81738  33.895  12.932   9.021  0.0113 -0.0890  0.0972
38748W        W81739  27.493   3.306   9.551 -0.0624 -0.1429 -0.0872
38749W        W81740  19.688  32.005   8.918  0.2847  0.0316  0.0106
38750W        W81741  21.874   6.130  13.439 -0.0197  0.1729 -0.1021
38751W        W81742  18.069  33.028  25.330 -0.2423 -0.0682  0.3862
38752W        W81743  19.692   5.233  21.753  0.0039 -0.1805  0.3826
38753W        W81744  22.645  24.204   2.309  0.0483 -0.2344  0.2483
38754W        W81745  16.007  21.127  17.052 -0.0861  0.2705 -0.1047
38755W        W81746  17.803  34.460  17.812  0.0811 -0.0372 -0.1794
38756W        W81747  32.329  29.044  21.859  0.0077 -0.2509 -0.0435
38757W        W81748   1.952  32.920   7.753  0.1308  0.1918 -0.1454
38758W        W81749  28.415  20.403  21.826  0.1007  0.0375  0.0906
38759W        W81750  25.979   9.656  18.416 -0.0696 -0.3153  0.0175
38760W        W81751  18.707  20.813  23.818 -0.0601 -0.0230 -0.2108
38761W        W81752  31.967  11.877  11.137  0.0256 -0.0936  0.1787
38762W        W81753  26.407  26.493  24.721  0.0849  0.1681  0.2216
38763W        W81754  17.077   1.399   2.625 -0.2700 -0.1288  0.0025
38764W        W81755  13.308  30.048  28.945  0.2195 -0.1155  0.0011
38765W        W81756   0.210   5.859  22.091 -0.0570  0.3331  0.0704
38766W        W81757  28.114  11.665  22.187  0.2888 -0.1319  0.0695
38767W        W81758  24.049   3.573  22.282  0.0624 -0.0261  0.1015
38768W        W81759  21.895   9.613   0.138  0.1545 -0.1302  0.3416
38769W        W81760  14.478  19.184   6.638  0.1827  0.1241  0.2005
38770W        W81761  20.972  10.212   4.951  0.2746 -0.2641 -0.3795
38771W        W81762  24.776   0.936  15.668  0.0868 -0.2014  0.0942
38772W        W81763  30.843  14.374   1.686  0.0911 -0.1875  0.1084
38773W        W81764   1.711  29.118   2.401 -0.1373  0.1809  0.0066
38774W        W81765  20.424   9.581  22.672  0.2354  0.1452 -0.1413
38775W        W81766  33.366   1.216   5.596 -0.2669 -0.2053  0.0148
38776W        W81767  29.833  28.540  21.466 -0.2974  0.1315 -0.1251
38777W        W81768  31.498  31.690  28.472  0.0748 -0.1171 -0.0203
38778W        W81769   9.682  34.348   8.969  0.0496 -0.0856 -0.2799
38779W        W81770  15.005  17.034  26.757  0.0099 -0.2545 -0.0464
38780W        W81771  24.384  17.235  29.108  0.2774  0.4579  0.0169
38781W        W81772  28.580   0.115  19.982 -0.4222 -0.3155  0.0686
38782W        W81773  19.226  18.656   2.476 -0.2340  0.0987 -0.0885
38783W        W81774  20.425  27.489   1.128 -0.3175  0.0510 -0.0172
38784W        W81775  28.984  31.283  13.928 -0.1946  0.0219 -0.1165
38785W        W81776  20.983   1.745   7.286  0.0168  0.0091  0.2918
38786W        W81777  29.454  18.227  24.919  0.0039  0.1552  0.1844
38787W        W81778  25.083  32.812   2.780 -0.2198 -0.0630  0.0198
38788W        W81779  34.550  24.824  16.538 -0.0794  0.1530  0.0344
38789W        W81780  19.693  24.886   7.614  0.4117  0.1070  0.0922
38790W        W81781  28.115   2.321   1.326 -0.0363  0.0621  0.1042
38791W        W81782   4.875  20.158  25.674 -0.0416  0.1693  0.1435
38792W        W81783   1.591   1.880  16.043 -0.1204  0.3552 -0.0847
38793W        W81784  14.144  34.467  28.145  0.1248  0.4394 -0.1286
38794W        W81785   0.323  32.956  15.037 -0.1392 -0.0087  0.4186
38795W        W81786  33.059   4.170   6.003  0.2862 -0.0027 -0.1938
38796W        W81787   3.022  33.091   3.439  0.0341  0.1617  0.0315
38797W        W81788  11.540  24.441   4.564  0.1141 -0.1900  0.0042
38798W        W81789  31.338  21.922  27.509  0.0522  0.1875  0.2934
38799W        W81790  21.341  14.117   0.459  0.1539 -0.1102  0.1738
38800W        W81791  17.500  16.245   5.413  0.0167 -0.3209  0.0436
38801W        W81792  22.416  33.818   6.887  0.0949 -0.0873 -0.1633
38802W        W81793   5.455   1.061  10.946 -0.0544 -0.1296  0.0896
38803W        W81794  24.296  33.243   7.157 -0.1775 -0.1055 -0.0384
38804W        W81795  34.742  29.788   7.010  0.1104  0.1368 -0.0862
38805W        W81796  16.294  18.504  24.677 -0.2360 -0.2891  0.1779
38806W        W81797  18.624  26.256  28.693  0.2296 -0.0220 -0.4564
38807W        W81798  22.622  21.259  17.253 -0.1132 -0.2008 -0.0942
38808W        W81799  22.098  30.396  26.939  0.1853  0.0903  0.0190
38809W        W81800   8.096  25.196   0.455  0.0450  0.0427  0.0434
38810W        W81801  25.803  16.832   9.588  0.0066 -0.0983  0.0398
38811W        W81802  27.203  26.936  13.385 -0.0771 -0.0189 -0.2456
38812W        W81803  29.237   9.532   8.438 -0.1970 -0.2532 -0.1350
38813W        W81804   2.435  29.133   1.601  0.0214 -0.0565  0.3184
38814W        W81805   0.131  29.619  14.867  0.1463 -0.1912  0.0018
38815W        W81806  29.643   7.746   4.821  0.1595  0.1135 -0.2244
38816W        W81807  21.958  32.043  26.521 -0.1915  0.1461  0.3322
38817W        W81808  33.108   3.325   5.242 -0.2080 -0.0491  0.2753
38818W        W81809  14.118   1.385  27.130  0.2257  0.0429  0.1076
38819W        W81810  30.360  15.923   5.909 -0.0278  0.3098  0.3469
38820W        W81811  25.220  16.753  29.104 -0.1783  0.0386  0.1375
38821W        W81812  31.663  18.359  28.194 -0.1865 -0.3290  0.3825
38822W        W81813  33.926  33.792   9.024 -0.2390 -0.2493  0.0785
38823W        W81814  23.885  23.837   8.346  0.1314  0.0003  0.2229
38824W        W81815  15.868   8.252   2.709 -0.0575  0.1528  0.0486
38825W        W81816  24.111  24.712   3.696  0.1192  0.2184  0.1092
38826W        W81817  17.490  30.035  26.434  0.3105  0.0605 -0.1323
38827W        W81818  26.440   3.300  27.820  0.1815 -0.2623 -0.1385
38828W        W81819  21.651  31.139  16.315  0.0709  0.0329 -0.4970
38829W        W81820  26.326  24.863  21.851 -0.2279  0.0605 -0.2062
38830W        W81821  31.226  30.654   6.044  0.2006  0.0693 -0.4153
38831W        W81822  21.119   0.265   1.177 -0.0226 -0.0536  0.1313
38832W        W81823  14.301  30.531  13.578 -0.2318 -0.0173 -0.1411
38833W        W81824   6.132  11.331   1.852  0.1201  0.0122 -0.1118
38834W        W81825  19.829  20.274   3.153  0.0011 -0.3470 -0.3427
38835W        W81826   4.493  25.674  27.533 -0.1471  0.2106 -0.1080
38836W        W81827  22.305  19.535  22.114  0.2741 -0.0422 -0.0122
38837W        W81828  34.545  34.532  29.049  0.1231 -0.0349 -0.2182
38838W        W81829   6.251  30.172   0.836  0.0188 -0.2943 -0.1233
38839W        W81830  19.161   8.938  26.040 -0.3071 -0.1691 -0.2902
38840W        W81831  15.754  28.780  22.683  0.3129 -0.3660 -0.1877
38841W        W81832   8.852   1.818   2.575  0.2121  0.2048  0.1047
38842W        W81833   2.907  25.786   5.588  0.1067 -0.0805  0.1590
38843W        W81834  12.677  11.001   8.955 -0.0478  0.1259  0.0574
38844W        W81835   3.736  29.426   1.955  0.1013  0.1023  0.0351
38845W        W81836   3.129  27.340  15.656 -0.3013 -0.3577 -0.1678
38846W        W81837  19.893   7.220  29.155 -0.3339 -0.2733  0.3964
38847W        W81838  31.762  19.269   7.666  0.1429  0.4667 -0.0552
38848W        W81839  25.016  27.583  20.660  0.3453  0.1261 -0.0217
38849W        W81840   9.759   8.448   7.069 -0.0245  0.1862 -0.1909
38850W        W81841  20.623  26.362   7.549 -0.0084  0.0355 -0.0249
38851W        W81842   0.629  18.540  25.507  0.1255  0.1092 -0.1789
38852W        W81843  21.765  31.791  13.037 -0.4563 -0.0016 -0.4257
38853W        W81844  19.930  30.135  24.874  0.0668  0.1003  0.3850
38854W        W81845   4.101  15.905  11.388 -0.1407 -0.3459  0.0468
38855W        W81846  21.112  27.413  25.875 -0.0610  0.1062  0.1106
38856W        W81847   9.454  13.867   7.922  0.2958  0.1603  0.0520
38857W        W81848  26.235  27.122   2.133 -0.1010  0.2456 -0.0306
38858W        W81849  22.485   1.197   5.060  0.0021  0.0769  0.5356
38859W        W81850  30.022  28.606  24.751  0.0871  0.0945 -0.1632
38860W        W81851  19.554  25.967   8.586 -0.0237  0.1911 -0.1708
38861W        W81852  23.314  25.180   2.774  0.0156 -0.3734 -0.0391
38862W        W81853  15.925  29.897   5.802 -0.0997  0.1758  0.2057
38863W        W81854  15.635   0.433   7.129 -0.0511 -0.2129 -0.0281
38864W        W81855   2.538  20.423  23.398  0.0704  0.0162  0.2441
38865W        W81856  23.939  13.106   0.600 -0.0294 -0.2318 -0.1355
38866W        W81857   9.776  11.952   0.360  0.0989 -0.0692  0.1037
38867W        W81858  34.707  24.352   5.955 -0.1581  0.2109  0.2412
38868W        W81859  21.193  21.016   1.430 -0.0299  0.0076  0.0072
38869W        W81860  29.514  24.549  17.684  0.1812  0.2541  0.0422
38870W        W81861   0.700   5.172   1.201 -0.3782 -0.2430 -0.1334
38871W        W81862  16.800   2.895  10.161  0.0408  0.0461  0.3543
38872W        W81863  32.841  18.207   2.658  0.0248 -0.5065 -0.2581
38873W        W81864  12.819  23.801   3.045 -0.1583 -0.1213 -0.0656
38874W        W81865  16.915  30.251  24.967  0.0618  0.0757  0.3061
38875W        W81866  28.707  18.998   3.387 -0.1949  0.0463  0.0449
38876W        W81867  27.810  31.484  24.257  0.0610  0.1021  0.0496
38877W        W81868  14.976  21.504   2.669  0.1945  0.1964  0.0722
38878W        W81869  24.074  34.292   3.351 -0.2431 -0.0972 -0.1306
38879W        W81870   2.827  17.523  23.488 -0.0624  0.2913  0.0119
38880W        W81871  33.866  28.780  24.874  0.3306  0.0647  0.4825
38881W        W81872   2.084   2.275  18.051  0.0620  0.1093 -0.0633
38882W        W81873  23.970  28.955  20.220  0.3945  0.1506 -0.1413
38883W        W81874  29.158  19.764   0.586 -0.1249 -0.4247 -0.4315
38884W        W81875  22.119  32.832   6.557 -0.0189 -0.0266  0.1092
38885W        W81876  29.803  34.499  28.393  0.1745 -0.0336  0.2683
38886W        W81877  19.744   3.491   8.473  0.1302  0.0183  0.2118
38887W        W81878  10.994  24.463   4.298 -0.0806 -0.1593  0.3286
38888W        W81879  32.423  24.022   7.857 -0.1291 -0.1350  0.1210
38889W        W81880  30.537  23.502   7.178  0.3237 -0.0412 -0.0118
38890W        W81881  33.054  25.913   7.884 -0.0376  0.1366  0.1044
38891W        W81882  30.235   7.178  27.850 -0.0338  0.0441  0.0015
38892W        W81883  34.187  29.474   8.212 -0.3203  0.1804 -0.0775
38893W        W81884  15.450   6.468   6.463 -0.0172 -0.1874  0.0959
38894W        W81885  16.544  19.946  14.820 -0.0770  0.0936 -0.1936
38895W        W81886  19.194   7.856   3.882  0.1361  0.1703 -0.0645
38896W        W81887   5.377  24.979   1.487 -0.3877 -0.0817  0.0721
38897W        W81888  11.138  26.393   0.723 -0.1723  0.0890  0.3605
38898W        W81889  28.231   6.813  26.502  0.2144 -0.2038 -0.2060
38899W        W81890   9.146  30.275   7.165  0.0579  0.2497  0.0233
38900W        W81891   4.412  26.300   8.645  0.3638 -0.1701 -0.1034
38901W        W81892   3.901  29.665  14.453  0.1332  0.0000 -0.1569
38902W        W81893  19.504   7.736  15.290  0.1328 -0.0813 -0.1645
38903W        W81894  13.322   4.746   1.621 -0.0986  0.0256  0.0727
38904W        W81895  27.440  23.983   3.744 -0.0015  0.2273 -0.3167
38905W        W81896  22.707  19.420  23.061  0.0937  0.0631 -0.0242
38906W        W81897   5.249   3.203  29.119 -0.1817 -0.0904  0.2804
38907W        W81898  20.149   2.853  21.493 -0.0027 -0.0870  0.2656
38908W        W81899  15.607  29.389  26.820 -0.0227 -0.1203 -0.0165
38909W        W81900   5.679   1.201  22.575  0.1943  0.1611 -0.1535
38910W        W81901  34.331  23.676  28.786 -0.1379  0.4469  0.1778
38911W        W81902  17.752  20.699  16.377  0.3018  0.0959  0.1225
38912W        W81903  29.657  13.882  27.535 -0.2023  0.1094 -0.1386
38913W        W81904  17.796  23.621   7.904  0.2356 -0.1526 -0.0002
38914W        W81905  17.600  25.766   2.627  0.1643  0.0381  0.0457
38915W        W81906  30.882   3.050  23.675  0.1745 -0.1407  0.1099
38916W        W81907  18.061  29.768  14.734 -0.0896 -0.2178  0.3520
38917W        W81908  14.861  24.827   7.195  0.1234 -0.2892  0.0425
38918W        W81909  21.970  28.159  27.264 -0.1530 -0.0796 -0.2406
38919W        W81910  25.856  10.061  28.323 -0.0285 -0.1844  0.0586
38920W        W81911  22.141  20.978  16.639 -0.0939 -0.0003  0.2948
38921W        W81912  14.226   6.882   6.678  0.1183 -0.2643  0.4627
38922W        W81913  28.369  33.025   4.320 -0.0545  0.3035 -0.0321
38923W        W81914  20.331   0.796  25.339 -0.1328  0.2583  0.0843
38924W        W81915  24.170   6.286  26.770 -0.1605  0.0102  0.1247
38925W        W81916   3.728  24.150   4.515 -0.0764  0.0850  0.2677
38926W        W81917   9.721   3.479   5.981 -0.0993 -0.1841 -0.1005
38927W        W81918   0.184  27.990   0.440 -0.2544 -0.0104 -0.1073
38928W        W81919  15.669   5.408  10.954  0.1224 -0.2247 -0.0243
38929W        W81920  16.663   1.081  27.696 -0.0999  0.1959 -0.1183
38930W        W81921  23.067   4.370   3.138 -0.1322  0.3324 -0.0328
38931W        W81922  32.426  24.619  19.560  0.5185 -0.1238 -0.2684
38932W        W81923  34.578   7.324  22.156  0.1225  0.2005  0.2545
38933W        W81924  31.744  34.587  27.364 -0.3890 -0.0048  0.0149
38934W        W81925  20.008  30.776   4.390 -0.2363  0.1694  0.2977
38935W        W81926  21.427  11.210  15.656  0.2625 -0.2280  0.1099
38936W        W81927  29.242   3.843  25.041  0.1951  0.1435 -0.0925
38937W        W81928  34.455  29.282   0.526 -0.1318  0.1330  0.1444
38938W        W81929  34.591   4.370   2.726 -0.0222 -0.1719  0.1673
38939W        W81930  28.202  25.085   2.236  0.1034  0.0343  0.1827
38940W        W81931   4.807   2.348  15.630 -0.3464 -0.2096  0.4157
38941W        W81932   0.871   6.115   0.548 -0.0454  0.1505  0.1220
38942W        W81933  26.456  28.263  17.046  0.2815 -0.2795  0.2677
38943W        W81934  34.283  22.788   9.373 -0.1120 -0.1666 -0.2053
38944W        W81935  25.050  31.092   3.963 -0.1462  0.3223 -0.1449
38945W        W81936  21.028  27.189   4.193  0.2539 -0.1042  0.1115
38946W        W81937  28.698   8.615   8.303 -0.1798 -0.2153  0.1509
38947W        W81938  33.249   1.913  28.455 -0.2672  0.0294 -0.1681
38948W        W81939  19.144   3.797  17.998  0.1029  0.5516 -0.0289
38949W        W81940  17.904  18.670   5.114  0.2835 -0.0937  0.1135
38950W        W81941  30.982  16.636   5.754  0.0993  0.3008 -0.1021
38951W        W81942  31.884  21.341  10.405  0.0557  0.1581 -0.0310
38952W        W81943  30.129  29.124  24.774  0.1986 -0.0154 -0.2436
38953W        W81944   6.464  24.850   8.655  0.0876  0.2262 -0.1812
38954W        W81945  27.728  21.925  17.975 -0.2154  0.1009  0.0498
38955W        W81946  24.377  29.441  24.339 -0.0842  0.0238  0.0865
38956W        W81947  15.720  32.932   9.706 -0.1008  0.1586 -0.0781
38957W        W81948  20.576  27.559   2.365  0.0121  0.0603 -0.2634
38958W        W81949   2.936   1.102   1.570 -0.4438  0.0954  0.3079
38959W        W81950   0.264  16.008   0.419  0.3426  0.2725  0.1003
38960W        W81951  17.093  15.569   4.428  0.0332  0.0217 -0.0337
38961W        W81952  10.131  17.347  15.992 -0.2759  0.2149  0.0477
38962W        W81953  11.269   2.341   9.555 -0.0513 -0.0948 -0.3890
38963W        W81954  22.576  25.295   7.191 -0.1691  0.0783  0.3159
38964W        W81955  32.347  17.236   7.617  0.3172  0.0657  0.1470
38965W        W81956   8.938   3.099  28.933  0.0983  0.1922  0.0092
38966W        W81957  33.293  28.350   1.184  0.1932 -0.2728 -0.1030
38967W        W81958  18.031  14.723   4.767  0.2362 -0.1365 -0.2179
38968W        W81959  21.711  10.207  24.749  0.0367 -0.2107 -0.0974
38969W        W81960  33.303   0.110  20.172 -0.1848  0.1040 -0.0469
38970W        W81961   5.707  12.621  19.930 -0.2196 -0.3364 -0.1182
38971W        W81962  31.893  28.640   5.531 -0.1878  0.2229 -0.0150
38972W        W81963  26.662  24.509   3.951 -0.1492 -0.0400  0.0814
38973W        W81964  34.404  27.252   2.168 -0.0274 -0.6078 -0.2061
38974W        W81965   2.092  22.850   9.909  0.0772 -0.0286  0.0153
38975W        W81966  32.267  33.077  24.261 -0.3327  0.4497  0.3310
38976W        W81967  30.239  31.575   4.850  0.1905  0.0627 -0.1027
38977W        W81968   0.094  30.029  20.278 -0.1248 -0.1147 -0.0389
38978W        W81969  27.164  24.353   3.654 -0.2536 -0.1589  0.6146
38979W        W81970  12.381   0.102   2.214  0.2487 -0.0219  0.0949
38980W        W81971  18.583  31.033   3.425  0.1847 -0.1886 -0.1160
38981W        W81972   1.185   7.751  16.474 -0.0019  0.2453 -0.3108
38982W        W81973  21.916  22.498  20.730  0.0535 -0.1682 -0.0894
38983W        W81974  32.021  26.165  25.528  0.0394 -0.0765  0.0549
38984W        W81975  34.483  34.157   5.321  0.0494 -0.0515 -0.0248
38985W        W81976  34.180   8.384   7.377  0.1935 -0.0275 -0.0088
38986W        W81977  20.305  29.521   5.043 -0.1526  0.0915 -0.0108
38987W        W81978   9.907  34.785   2.958  0.1706 -0.3393 -0.2361
38988W        W81979  26.252  27.325   5.832  0.2460 -0.0035 -0.0712
38989W        W81980  16.229   2.527   7.604  0.3415 -0.2114 -0.0017
38990W        W81981  33.717  21.576  18.214 -0.0000  0.1821 -0.0151
38991W        W81982   9.589   0.988   9.595 -0.0648  0.1471 -0.0779
38992W        W81983  25.034  18.577   3.819 -0.0258  0.5141 -0.1189
38993W        W81984  29.790  25.739   9.555  0.1701 -0.0052 -0.4597
38994W        W81985  30.446   3.492   3.082  0.1605 -0.0308  0.1247
38995W        W81986  30.694  33.867   0.617 -0.4688 -0.1494 -0.0205
38996W        W81987  19.178  22.573   8.121  0.1165  0.1856 -0.0894
38997W        W81988   6.242  27.294   4.940 -0.3202 -0.0680  0.1066
38998W        W81989  25.813  20.312   7.644  0.2029 -0.0197  0.0038
38999W        W81990  34.550   2.111  27.294  0.0886 -0.4689  0.0603
39000W        W81991   9.575  19.460   9.547  0.1100 -0.0481  0.1924
39001W        W81992  21.058   5.031  24.131  0.0824 -0.0379 -0.0853
39002W        W81993  22.415  20.117  27.295 -0.2661 -0.2332 -0.1052
39003W        W81994   4.359  19.346   7.713 -0.2009  0.1262  0.1172
39004W        W81995  28.122  34.166  15.864 -0.0009 -0.1008 -0.0520
39005W        W81996  14.303  32.776   0.919  0.1334  0.0113  0.2537
39006W        W81997  18.617   0.132   8.246 -0.0964 -0.0424 -0.0912
39007W        W81998  26.456  31.768   4.945 -0.1544 -0.1316 -0.1883
39008W        W81999   5.847  33.676   2.973  0.2793 -0.1323  0.0360
39009W        W82000  28.961   6.569   7.374 -0.0086  0.1257 -0.2361
39010W        W82001  28.474   0.352  26.398 -0.1772  0.0167  0.2400
39011W        W82002  28.617  22.180  19.068 -0.0018 -0.0251  0.1075
39012W        W82003  29.091   7.834   6.753 -0.3067 -0.2582 -0.1354
39013W        W82004  20.743  32.815   5.155  0.1121  0.2239 -0.1620
39014W        W82005  18.045  16.090  25.616 -0.2349  0.1846  0.0228
39015W        W82006  27.354  23.488  28.007 -0.2502 -0.3099 -0.1699
39016W        W82007  30.454  33.345   4.436  0.1667 -0.1736  0.0646
39017W        W82008   7.439   1.842   3.358 -0.2125  0.2247  0.1881
39018W        W82009  20.984  22.617   5.476  0.1462  0.0283 -0.1750
39019W        W82010   8.379  25.871   2.189 -0.0590 -0.2959  0.0773
39020W        W82011  24.818   1.951  25.693 -0.1044 -0.0599  0.1719
39021W        W82012  23.252   0.876   5.495 -0.2276 -0.4998  0.0344
39022W        W82013  28.667  27.461  25.876  0.3007  0.2562  0.0458
39023W        W82014  27.250   2.358   1.841 -0.4629 -0.3513 -0.0224
39024W        W82015   4.973  15.072   8.420  0.0526  0.0689 -0.0121
39025W        W82016  23.981  29.473   6.275 -0.3643 -0.3518 -0.0867
39026W        W82017   7.834  10.423   4.003  0.1755  0.2111 -0.2110
39027W        W82018   6.454  20.240   5.090 -0.0664 -0.0721 -0.1610
39028W        W82019  29.037  32.248  24.615  0.0516 -0.3662  0.1172
39029W        W82020  23.115  32.380   4.744 -0.0820  0.3231  0.1698
39030W        W82021  28.679  20.537   4.056  0.1124  0.2857 -0.3467
39031W        W82022  26.563  23.920   3.267  0.1066  0.0969  0.3865
39032W        W82023  12.678   3.143  17.708 -0.0270 -0.0698 -0.1191
39033W        W82024  30.860  26.080   3.401  0.2436  0.0492 -0.1623
39034W        W82025  28.608   6.269   3.897 -0.1673 -0.2445 -0.1701
39035W        W82026   5.297   8.511   6.075  0.2083 -0.1119 -0.0848
39036W        W82027  29.228  30.597   0.960 -0.0963  0.3113 -0.3937
39037W        W82028  14.323  33.801   6.075  0.0179 -0.2127 -0.0099
39038W        W82029  27.964  29.306   1.350 -0.1021  0.2784  0.0484
39039W        W82030  23.812   4.396  17.660  0.1001 -0.1625  0.0598
39040W        W82031  30.009  13.351  24.153 -0.1148  0.2322 -0.1925
39041W        W82032  14.185  10.865   3.141 -0.3209 -0.0352  0.1338
39042W        W82033  24.363  14.060   8.879  0.2232  0.2054 -0.2558
39043W        W82034  14.550  30.650  28.253  0.0339 -0.0922  0.0832
39044W        W82035   2.047   7.394   4.611 -0.2308  0.1563 -0.0301
39045W        W82036  28.402  34.508   1.734  0.0982  0.0955  0.1122
39046W        W82037   1.183  34.136   2.355  0.2673 -0.0433  0.0623
39047W        W82038  16.311   0.213   5.594 -0.0108  0.1386 -0.1105
39048W        W82039  33.632  24.457  23.255  0.1368 -0.3921  0.0808
39049W        W82040  23.860   0.911   5.291  0.0685 -0.0314 -0.1075
39050W        W82041  23.642  31.968   3.109 -0.3768  0.1298  0.4613
39051W        W82042  27.433   5.702  26.314 -0.0740 -0.0423 -0.2553
39052W        W82043  14.041  17.108  25.137  0.0820  0.2504 -0.0091
39053W        W82044  32.403   3.607  27.633 -0.1520  0.1622 -0.1621
39054W        W82045  28.907  15.463   6.376 -0.0364  0.1975 -0.0255
39055W        W82046  32.068  30.436  26.973 -0.2435  0.4359 -0.1323
39056W        W82047  26.388  14.711   9.159  0.1613  0.1699  0.0777
39057W        W82048  23.092  27.851   2.482  0.0093  0.2785 -0.0362
39058W        W82049   1.289  16.781  29.179  0.0768  0.1253 -0.3085
39059W        W82050  17.187  26.483   7.262  0.0980 -0.0558 -0.2702
39060W        W82051  29.438  17.564  17.816 -0.1546 -0.1573 -0.0561
39061W        W82052  15.695  24.639   5.035 -0.1294 -0.1929 -0.1785
39062W        W82053  29.831   2.885  24.772  0.2650 -0.1273  0.1465
39063W        W82054  15.733  22.170   1.467  0.1388  0.1829  0.0697
39064W        W82055  32.381  30.874   6.267  0.2533  0.1331  0.3959
39065W        W82056  29.465  32.731   6.268  0.0646 -0.2484  0.2890
39066W        W82057  10.127  26.696  26.059 -0.0164  0.0338  0.0192
39067W        W82058  29.310  16.736  17.410 -0.1143 -0.0775 -0.1171
39068W        W82059  26.091  20.970   7.877  0.1952  0.1699  0.0452
39069W        W82060  20.427   2.337   2.317  0.0508 -0.3451  0.2995
39070W        W82061  22.585  34.697  26.252 -0.3149 -0.0927 -0.0569
39071W        W82062  19.121  20.946  28.832 -0.3064  0.0142  0.0899
39072W        W82063  30.912  20.509   1.640 -0.0162  0.1103  0.1202
39073W        W82064  18.635   1.035   8.477 -0.3036 -0.2509 -0.2302
39074W        W82065   4.441  24.607   4.689  0.0697  0.1981  0.2346
39075W        W82066   2.182   0.868   6.366  0.2564 -0.3741  0.0605
39076W        W82067  31.434  25.093   1.561  0.1583  0.1486  0.1251
39077W        W82068  21.706   3.429   6.844  0.3235  0.3983  0.1068
39078W        W82069  19.764  24.512  27.709 -0.4727 -0.2642 -0.3104
39079W        W82070  14.896  31.597   6.790  0.0433  0.1252 -0.0522
39080W        W82071  30.489   0.087   7.079 -0.1215 -0.2908 -0.0808
39081W        W82072  26.197  22.963  21.790 -0.0515  0.1606  0.0735
39082W        W82073   1.217  33.615   2.040  0.0447  0.0126 -0.3690
39083W        W82074  28.998  32.141  25.729 -0.0404  0.0568 -0.4890
39084W        W82075   8.117  31.914  17.923 -0.0101 -0.3899 -0.0277
39085W        W82076   0.220  18.527   0.371 -0.4881  0.0743 -0.0880
39086W        W82077  27.360  16.741   9.796 -0.4332 -0.1362 -0.1583
39087W        W82078   1.610   1.559   8.154 -0.0524 -0.1031 -0.3970
39088W        W82079  13.368   4.989  21.931 -0.2655 -0.0567  0.3446
39089W        W82080  26.069  24.957  24.893  0.1159  0.0547 -0.0752
39090W        W82081  23.075  11.008   9.395  0.0586 -0.0081  0.0955
39091W        W82082   2.362   3.668   0.357 -0.1006 -0.2529 -0.2482
39092W        W82083  22.429   0.294   7.132 -0.1897  0.2636 -0.1570
39093W        W82084   5.023  16.577   5.223  0.0291  0.1888 -0.0065
39094W        W82085  25.687  16.286   3.583 -0.0351  0.1799  0.0624
39095W        W82086  11.190  18.183   8.886 -0.1603  0.0627 -0.2163
39096W        W82087  24.236   4.195   1.931 -0.0490  0.1703  0.1863
39097W        W82088  16.140  26.123   3.824  0.1570  0.0257  0.0077
39098W        W82089  31.497  31.246   7.532 -0.0047 -0.1613  0.0662
39099W        W82090   1.011  17.492  24.880  0.1666 -0.2000 -0.0504
39100W        W82091  29.757  33.124  26.392  0.0333  0.0943  0.0368
39101W        W82092  30.701  32.762   0.754 -0.1608 -0.0212 -0.0405
39102W        W82093  29.059  14.190  10.739  0.1039  0.1393  0.2293
39103W        W82094  26.770   9.949  28.747 -0.1034 -0.0126  0.3051
39104W        W82095  26.576  16.429   2.002 -0.2457  0.1473 -0.0633
39105W        W82096  24.037  26.091   8.819  0.0773 -0.0778  0.2716
39106W        W82097   4.453   1.633  29.220  0.1398  0.3665  0.1042
39107W        W82098  17.651  28.418   3.765 -0.1882  0.0571  0.3159
39108W        W82099  15.374  33.895   5.322  0.4657  0.2086 -0.1370
39109W        W82100  27.987  19.714  15.273  0.0203  0.2063  0.0866
39110W        W82101  23.570  30.653  29.192  0.0904 -0.0338 -0.0657
39111W        W82102  13.000  26.074  27.419  0.0463  0.3169  0.0221
39112W        W82103  25.635  33.597  21.469  0.0624 -0.1632 -0.0108
39113W        W82104  22.200  32.075   4.737  0.1310 -0.3789 -0.0846
39114W        W82105  14.341  18.436  27.524  0.2930  0.5512 -0.0766
39115W        W82106   1.085  25.852   2.840 -0.0044 -0.1920 -0.2224
39116W        W82107  19.868  28.018  21.135  0.1461 -0.1710  0.2480
39117W        W82108   0.119   5.909   8.225 -0.4813  0.0335  0.0061
39118W        W82109  22.491  32.949   6.252  0.1500 -0.0075  0.0860
39119W        W82110  26.559   3.403   9.434  0.0545 -0.1806 -0.0382
39120W        W82111  15.066  24.946  26.846  0.1459 -0.2660 -0.0357
39121W        W82112   3.125  32.693  24.918  0.0562 -0.1823  0.1309
39122W        W82113  34.179  31.874  26.918  0.0231 -0.1087 -0.4824
39123W        W82114  10.998  28.270   9.564 -0.0664 -0.1964  0.3456
39124W        W82115  30.279   3.009   1.170 -0.1576  0.3480  0.6181
39125W        W82116   1.612   6.068   1.488  0.2268  0.0871 -0.3622
39126W        W82117  31.460  28.023   7.435  0.1595 -0.1683  0.2275
39127W        W82118  33.048  12.188  28.427 -0.2467 -0.2000  0.2513
39128W        W82119  20.691  10.474   6.564  0.0494 -0.0993  0.1288
39129W        W82120   9.588   6.589   2.675  0.0798  0.1796  0.0003
39130W        W82121  30.073  25.728  25.539 -0.0117  0.2255 -0.0878
39131W        W82122  29.636  30.099   7.678 -0.0530 -0.1115 -0.1082
39132W        W82123   3.502  17.193  11.810  0.1579 -0.0245  0.2099
39133W        W82124  27.622  30.546  22.618 -0.1590 -0.2479 -0.1436
39134W        W82125   0.687  29.110   6.109 -0.0343 -0.0805 -0.2875
39135W        W82126  27.608  20.283   6.962 -0.1803 -0.3329 -0.0571
39136W        W82127  30.929  21.751   4.409  0.1847  0.0948  0.0912
39137W        W82128  22.364  27.043   2.200 -0.0818 -0.4096 -0.1801
39138W        W82129   6.113   2.385   5.729 -0.0866 -0.0939  0.0933
39139W        W82130  27.519  13.354  10.320  0.3970 -0.3283  0.1005
39140W        W82131  20.917  26.616   7.934 -0.1769 -0.0028 -0.0224
39141W        W82132  27.298   6.279   4.264  0.2234 -0.1525  0.0624
39142W        W82133  19.624  15.713   1.231  0.2719  0.0108 -0.0836
39143W        W82134  25.337  26.684  21.935 -0.1548 -0.1185 -0.0771
39144W        W82135  16.649  31.613  15.476 -0.2980  0.1950 -0.1714
39145W        W82136  26.728  25.389  22.924  0.0508  0.1353  0.0883
39146W        W82137  13.930  11.773   5.797  0.2450 -0.1311 -0.0948
39147W        W82138  22.021  11.366  10.071  0.2385  0.3786 -0.2071
39148W        W82139  27.773  21.271  22.043 -0.2168 -0.1463  0.0942
39149W        W82140   3.365  30.746   6.694  0.1157 -0.1866 -0.1516
39150W        W82141   5.659  28.833   8.326 -0.0249  0.2479  0.1935
39151W        W82142   6.897  34.637  26.972 -0.2954 -0.0713 -0.2233
39152W        W82143   8.804  27.835  26.595  0.1850  0.2517  0.0786
39153W        W82144  22.746  21.142   3.196  0.3864 -0.2496  0.0446
39154W        W82145   5.601   2.868  29.174 -0.1125  0.0234 -0.1496
39155W        W82146  23.921  34.071   6.840 -0.0952  0.1737  0.0819
39156W        W82147  27.053  29.080   2.505  0.1006 -0.1180 -0.1743
39157W        W82148  25.982  33.586   0.656 -0.1426  0.2281 -0.2513
39158W        W82149  25.324  18.885  15.652 -0.1532  0.2064 -0.1081
39159W        W82150   4.847   9.783  16.217  0.0933 -0.0153 -0.4323
39160W        W82151  19.840  33.262   4.787 -0.2197 -0.3092 -0.0389
39161W        W82152   4.751  27.401   0.998 -0.0250  0.0629  0.6051
39162W        W82153  22.123  18.121   8.296  0.0584 -0.0466  0.2643
39163W        W82154  24.194  23.277   1.725  0.0884 -0.0187 -0.0194
39164W        W82155  26.686  25.551   4.574  0.2575 -0.0103  0.1147
39165W        W82156  27.583  33.730   4.023 -0.2650  0.1222  0.0273
39166W        W82157   5.001   6.070   4.437 -0.1621  0.0273  0.0759
39167W        W82158   4.628  31.548   1.770  0.0169 -0.0222 -0.0525
39168W        W82159  18.178  24.300  27.435  0.2966 -0.0105  0.0276
39169W        W82160  22.046  15.861   3.752  0.1485 -0.1341  0.1494
39170W        W82161   9.826  20.491  27.038  0.4326 -0.0801  0.0323
39171W        W82162  33.673   4.567   3.790  0.0717  0.1195 -0.1934
39172W        W82163  34.453   0.548   9.805 -0.0521  0.2734  0.1590
39173W        W82164  26.177  27.767  26.537  0.1733 -0.2244  0.0495
39174W        W82165   1.501  31.234   3.941 -0.0878  0.0457 -0.0122
39175W        W82166   4.809  16.495   3.741  0.0480 -0.0899  0.1105
39176W        W82167   5.418  13.942   2.205  0.2960 -0.0695  0.0180
39177W        W82168  34.037  19.587   6.590 -0.0668  0.0534 -0.3114
39178W        W82169  25.767  25.393   1.264 -0.0673  0.2633 -0.3089
39179W        W82170  14.256  15.335  27.859 -0.2223 -0.2610 -0.5110
39180W        W82171  22.862   1.645   3.447 -0.0218 -0.1784 -0.0077
39181W        W82172  26.981  32.248  15.583  0.4390  0.3315  0.3474
39182W        W82173  30.182   5.214  23.684 -0.1190  0.3459 -0.1934
39183W        W82174  26.120   8.112   7.579  0.0432  0.1666 -0.0939
39184W        W82175   8.906   3.278   8.412 -0.1022  0.1707 -0.1653
39185W        W82176   3.741   3.685   5.752  0.1326 -0.2396  0.1459
39186W        W82177   8.133   0.581   0.097  0.0917  0.2199 -0.0855
39187W        W82178  25.273  26.236   2.316  0.1992  0.0318  0.1279
39188W        W82179   7.545  10.442   6.346  0.1924  0.0910 -0.3139
39189W        W82180   2.462  34.052   3.366  0.2292 -0.3011 -0.0691
39190W        W82181  33.719  27.796  27.906 -0.1219 -0.2293 -0.1425
39191W        W82182  19.941  24.689   8.522 -0.0166  0.1647 -0.2023
39192W        W82183  21.858   6.468  27.765  0.2882 -0.0356 -0.1769
39193W        W82184  18.259  13.012  26.567  0.1234 -0.1427  0.2063
39194W        W82185   1.736  11.194  17.372 -0.0693 -0.1923 -0.0037
39195W        W82186  28.096  12.627   0.447  0.0771  0.2332  0.1058
39196W        W82187  29.606   0.563   8.687  0.1392  0.0313  0.4217
39197W        W82188   5.675  24.617  25.239  0.1278 -0.1684 -0.3322
39198W        W82189  21.452  17.575  20.134 -0.0202  0.0046  0.1449
39199W        W82190  21.571  15.243  27.263 -0.0023  0.3041 -0.2850
39200W        W82191  23.057  23.443  28.701 -0.2177 -0.0263 -0.1386
39201W        W82192  27.449  30.588  28.838  0.0316 -0.1607 -0.2306
39202W        W82193  32.422  32.343  18.499  0.1407 -0.0143  0.1458
39203W        W82194  26.244   1.393   4.879  0.1745  0.2293 -0.0402
39204W        W82195  15.445  26.153  24.718 -0.0953  0.0245 -0.1523
39205W        W82196  20.504  19.980   5.083  0.0447 -0.1106  0.1064
39206W        W82197  16.344  28.509  28.455 -0.2544  0.1010 -0.0449
39207W        W82198  25.297  18.853  20.975 -0.0249 -0.1653 -0.0399
39208W        W82199  24.404  30.667  23.128 -0.0513  0.0206 -0.0163
39209W        W82200  27.148   4.890   6.582  0.0049 -0.1439 -0.3507
39210W        W82201  33.210   2.338   7.154  0.0496 -0.0123  0.2362
39211W        W82202  18.484  29.297   4.588  0.1789 -0.0992 -0.3083
39212W        W82203  24.100   4.209   7.572  0.2203 -0.0995 -0.0572
39213W        W82204   9.947  27.589   3.690 -0.1772  0.0198  0.1295
39214W        W82205  18.982   5.038   8.540 -0.0202 -0.0098 -0.0043
39215W        W82206  26.749  23.416  28.097 -0.0091  0.1546  0.2764
39216W        W82207  31.511  30.482   6.932 -0.3439 -0.3445  0.1132
39217W        W82208  29.826  24.558   3.997  0.0418  0.4740 -0.0280
39218W        W82209   0.528  22.609  23.051  0.1141  0.2427  0.1128
39219W        W82210  16.253  11.319  18.208  0.0660  0.0638 -0.0638
39220W        W82211  21.999   4.759   4.596 -0.1038 -0.2573  0.2191
39221W        W82212  25.461   5.652   2.248 -0.0971 -0.1644 -0.0550
39222W        W82213   0.803  12.731  22.287  0.2403 -0.0229 -0.1829
39223W        W82214  33.995  20.060   7.902 -0.0310  0.0924 -0.1033
39224W        W82215   5.902  27.736  18.908 -0.1692 -0.1031  0.2359
39225W        W82216  18.884   2.340  15.783  0.1081  0.1213  0.1552
39226W        W82217  22.553  33.727   3.931 -0.1349  0.2021 -0.0324
39227W        W82218  29.416  34.517  28.952 -0.1062 -0.0678  0.0006
39228W        W82219  26.143   3.602  29.063 -0.2678  0.1640 -0.4670
39229W        W82220   8.281  10.110  22.198 -0.1258 -0.0548 -0.0848
39230W        W82221   3.823  28.641  28.498 -0.2753  0.3345 -0.0708
39231W        W82222  15.106   4.041   8.122 -0.1492 -0.1740 -0.0765
39232W        W82223  31.247   4.428   4.321  0.0970 -0.1451  0.0310
39233W        W82224  33.544  30.251   4.752 -0.2119  0.0560 -0.2081
39234W        W82225  34.068  16.404   8.786  0.1561 -0.1743 -0.1175
39235W        W82226   8.546   4.207  25.920  0.1300 -0.1023  0.0472
39236W        W82227  19.727  34.094   7.870 -0.1823 -0.3078  0.1554
39237W        W82228  25.397  32.724  16.202  0.4346  0.1135  0.1087
39238W        W82229  16.259  27.627   5.019  0.3069 -0.3134  0.0798
39239W        W82230  31.392  28.962  27.848  0.0111 -0.0810 -0.0813
39240W        W82231  20.046  34.599  24.414  0.4051  0.1738  0.0110
39241W        W82232  10.697  22.458   0.894  0.1825  0.1085  0.2872
39242W        W82233  34.095   3.353  27.463 -0.0576 -0.0115  0.2703
39243W        W82234  31.009   7.487  27.683 -0.2643  0.1520 -0.3158
39244W        W82235  29.342  31.246   3.394  0.0070 -0.1927  0.0150
39245W        W82236  20.938   9.858  16.168  0.0334 -0.0147  0.0615
39246W        W82237  12.061  19.261  28.926  0.0172 -0.1661  0.1558
39247W        W82238  18.913   3.172   3.800  0.0875 -0.2059 -0.0968
39248W        W82239  28.039   6.777   6.761  0.2880 -0.0409  0.0652
39249W        W82240  31.326  33.646   6.093 -0.1702 -0.0230 -0.0796
39250W        W82241   1.014   4.847  21.937 -0.1488 -0.2695 -0.1359
39251W        W82242   1.159   6.572   3.476  0.1283  0.0142 -0.1705
39252W        W82243   1.725  19.173  22.180  0.0963 -0.3852 -0.2025
39253W        W82244  34.081   2.105   2.006 -0.0892 -0.0380 -0.0523
39254W        W82245  26.512  22.621  19.828  0.0731 -0.3743 -0.2802
39255W        W82246  31.408  25.361   5.256 -0.0555 -0.0691 -0.1467
39256W        W82247  18.515  30.867   0.734  0.1236  0.0023  0.3786
39257W        W82248  11.317  32.506  10.146  0.3922  0.0147 -0.0299
39258W        W82249  18.351  12.597  29.000  0.0710  0.1321  0.3683
39259W        W82250  26.791  34.065  23.277  0.0455  0.2591  0.2750
39260W        W82251  29.596  30.961  21.565 -0.0936  0.2500 -0.0271
39261W        W82252  23.614  11.437   1.093  0.4104 -0.2498  0.1040
39262W        W82253  19.778  10.307  19.775  0.2148 -0.0972  0.0498
39263W        W82254  24.103  22.106  24.556  0.0797 -0.0756 -0.1081
39264W        W82255  27.177   0.463   7.911  0.3361  0.1390 -0.1193
39265W        W82256  31.698  30.475  22.857 -0.1386 -0.4781  0.0105
39266W        W82257  33.464   5.791   6.638  0.0259  0.0441  0.0194
39267W        W82258  19.999  24.890   9.275  0.2836 -0.2702  0.0745
39268W        W82259  30.263  34.348   7.086  0.0768  0.2441  0.0787
39269W        W82260  33.202  22.147   6.370  0.2444 -0.5673 -0.2467
39270W        W82261  15.134   3.974  26.414  0.3895  0.0801 -0.0005
39271W        W82262  33.433  28.984  23.212  0.1838  0.3436  0.1676
39272W        W82263  11.666   9.605  28.309 -0.0252 -0.0801  0.0376
39273W        W82264  27.086  12.779  20.568  0.2651  0.0488 -0.3773
39274W        W82265  14.763  18.099   2.843  0.1677  0.0946  0.5034
39275W        W82266  16.123  30.067  22.618 -0.0746 -0.0918  0.3636
39276W        W82267  25.829   5.427  14.735  0.0404 -0.0590 -0.0596
39277W        W82268  33.252   0.794   6.475  0.1232 -0.0452  0.2753
39278W        W82269  10.249  34.307   3.309  0.0677 -0.1768 -0.0481
39279W        W82270  31.763  13.051  27.141  0.0703 -0.1610 -0.1578
39280W        W82271  28.489  32.911  29.148  0.1528  0.0699 -0.1024
39281W        W82272  26.817  11.294  25.672 -0.2169  0.0695 -0.2898
39282W        W82273   3.342  13.668  27.695 -0.1834 -0.2267  0.1174
39283W        W82274   5.716  33.135   8.789  0.1070  0.0648 -0.0857
39284W        W82275   6.195  27.788   7.355 -0.1145  0.0143 -0.1529
39285W        W82276  16.914   3.348   9.871  0.1516 -0.1688  0.0829
39286W        W82277  20.234  26.451  28.202 -0.0097  0.2081  0.1211
39287W        W82278  33.762  15.160   6.852  0.0787  0.1206 -0.3667
39288W        W82279  16.675  19.775  27.541  0.0246  0.0318 -0.1815
39289W        W82280  34.093  22.240   3.296 -0.1625 -0.1135  0.1375
39290W        W82281  31.117   1.972   3.680 -0.2837  0.1186 -0.2956
39291W        W82282  24.763  17.698   3.877  0.1689 -0.2323 -0.1283
39292W        W82283  26.660   6.532  26.440  0.2642 -0.0214 -0.0248
39293W        W82284  31.030  30.389  24.084  0.0358 -0.2140 -0.3277
39294W        W82285  29.090  29.624   2.975  0.0920  0.1436 -0.1332
39295W        W82286  17.405  19.708   2.108  0.0301 -0.0264 -0.0228
39296W        W82287  32.153  21.037   7.540 -0.1689 -0.0181  0.0371
39297W        W82288  21.241  25.591   5.047  0.1920  0.0068  0.0306
39298W        W82289   2.208   7.579   6.494  0.0656 -0.0502  0.0792
39299W        W82290   3.164  14.625   4.179 -0.2044  0.3063 -0.1079
39300W        W82291   1.683  15.521  23.653 -0.1016 -0.0030 -0.2669
39301W        W82292  18.589  20.523  23.424  0.0115 -0.0574  0.1564
39302W        W82293  31.856  22.459   4.796  0.0572 -0.0007 -0.2315
39303W        W82294   3.982  22.352  25.712  0.2449 -0.2711  0.1829
39304W        W82295  16.661  31.256  22.176  0.3108  0.0317 -0.1671
39305W        W82296  24.699   0.255   8.334  0.1165 -0.2745 -0.3631
39306W        W82297   6.352  24.168   6.592 -0.0852  0.0676  0.0452
39307W        W82298   3.178  32.021  26.957  0.0090 -0.1519 -0.3695
39308W        W82299  34.719   6.526  27.951 -0.1447 -0.2933  0.1337
39309W        W82300   8.484  12.643  19.969  0.4005 -0.2367 -0.3005
39310W        W82301  25.948   1.200   7.194  0.1462  0.2286 -0.1397
39311W        W82302  30.950  24.618  27.133  0.0876  0.4139 -0.4830
39312W        W82303  24.388  21.722  28.022 -0.0678 -0.1084  0.2047
39313W        W82304  32.503   6.975   6.364  0.0149 -0.0014  0.1437
39314W        W82305  16.713   3.052  21.213 -0.1065  0.0893 -0.2805
39315W        W82306  31.256  32.070   3.425  0.1056 -0.1838 -0.0620
39316W        W82307  28.453   2.384  23.048  0.0270 -0.0554 -0.0339
39317W        W82308   2.984   8.645  11.353  0.0234  0.1742  0.2443
39318W        W82309  23.329  21.545   4.593 -0.2515  0.1698  0.1655
39319W        W82310  12.922  30.345   7.661 -0.1604  0.0799 -0.1541
39320W        W82311  21.580  27.012   6.222 -0.2411  0.1088 -0.1110
39321W        W82312  30.829   2.369  27.705 -0.3459 -0.0444 -0.2419
39322W        W82313  29.898   3.082   0.438 -0.3819  0.0663  0.1066
39323W        W82314  21.042   5.238   6.875  0.2252 -0.2183  0.3936
39324W        W82315  16.482  19.983   5.963  0.1999  0.0893 -0.0751
39325W        W82316  16.508  24.674   6.221  0.0711 -0.1020  0.3405
39326W        W82317   3.701  22.227   9.993  0.2911 -0.0974 -0.1764
39327W        W82318  17.803   1.805   2.129  0.2213  0.0225  0.2176
39328W        W82319  21.526   3.338   2.883 -0.1996  0.0856 -0.1539
39329W        W82320  29.224   3.187   8.897 -0.4068  0.0704  0.1021
39330W        W82321  17.833  15.978   6.246  0.0880 -0.2800 -0.0403
39331W        W82322  19.923  25.089  22.123  0.1705  0.3002  0.1325
39332W        W82323  10.799   5.258  26.623 -0.3465 -0.1311  0.2050
39333W        W82324  30.568   7.455   8.682  0.1304 -0.0548 -0.0230
39334W        W82325  33.583  30.791  15.479  0.1639 -0.0136 -0.1856
39335W        W82326  33.379  22.585  29.190  0.0901  0.0974 -0.0197
39336W        W82327  33.266  18.925   9.335 -0.0540  0.1634  0.3867
39337W        W82328   3.222  30.784  26.471 -0.2257 -0.3612 -0.1011
39338W        W82329  27.454   0.885   3.839  0.2224 -0.0427  0.0472
39339W        W82330  28.220  23.878   5.948 -0.0255  0.1147 -0.0653
39340W        W82331  29.547  26.344   4.772  0.0114 -0.1620 -0.0720
39341W        W82332   1.415  31.960   0.759  0.0179 -0.1379  0.4232
39342W        W82333  20.375  32.056   5.945  0.0876  0.0289 -0.2864
39343W        W82334   0.746  28.075   5.702 -0.2701 -0.2015  0.0870
39344W        W82335  26.643   0.746  25.861 -0.0665 -0.0604  0.0455
39345W        W82336   0.596  27.801   4.442  0.2654 -0.0103 -0.2415
39346W        W82337  16.523   4.822  24.284 -0.0212 -0.0477  0.0289
39347W        W82338   2.028   8.012  28.508  0.2079  0.0882 -0.1844
39348W        W82339  30.205  20.612   8.983 -0.2469  0.0627  0.0210
39349W        W82340  20.112  18.779   8.324 -0.0054  0.1360  0.3241
39350W        W82341  24.736  26.615   4.546 -0.0533  0.3225  0.1887
39351W        W82342   5.597   4.379   4.419 -0.1122  0.1484 -0.0268
39352W        W82343  27.421   2.831   5.348  0.2625 -0.1938 -0.0725
39353W        W82344  18.699  25.829   0.532 -0.2750  0.0573  0.1471
39354W        W82345  21.895  21.161  20.164 -0.0884 -0.2088 -0.1970
39355W        W82346  26.224  14.462   6.016 -0.1583 -0.0130  0.0022
39356W        W82347  28.508   9.767   3.683  0.2412 -0.2166 -0.4470
39357W        W82348  26.018  27.743  22.127 -0.0367  0.0758 -0.0972
39358W        W82349  26.114  12.409   7.974 -0.1894 -0.0108  0.2059
39359W        W82350  22.358  24.603   1.621 -0.3274  0.0478  0.0350
39360W        W82351   4.254  11.738  28.584  0.0991 -0.2217 -0.3358
39361W        W82352  20.600   8.267   7.841 -0.0621 -0.2795 -0.0205
39362W        W82353  23.253  29.246   3.298 -0.1844 -0.2706  0.1320
39363W        W82354   5.720  22.568  23.427  0.0629  0.0861  0.1993
39364W        W82355  16.345  25.650  21.319  0.1524 -0.1657  0.0281
39365W        W82356  10.823  23.481  16.494  0.0585 -0.1387  0.0308
39366W        W82357  31.422  26.570  26.678 -0.0297 -0.2462  0.0962
39367W        W82358  31.723  22.377   0.473  0.0961 -0.1800 -0.1096
39368W        W82359   0.409  25.873   0.752 -0.1620 -0.3693  0.0011
39369W        W82360  30.871  17.858  28.411 -0.3241  0.1450 -0.2596
39370W        W82361  19.259  34.018   0.465 -0.2522  0.0427 -0.0988
39371W        W82362   8.495  31.073   6.081  0.1626 -0.0839  0.0301
39372W        W82363  10.985  25.929   0.496  0.1849  0.1223 -0.1889
39373W        W82364  34.078  24.667   8.648 -0.1323 -0.0909 -0.2315
39374W        W82365  16.084  30.116  18.733  0.0253 -0.2294  0.2699
39375W        W82366   0.135   3.663   1.573 -0.2040  0.4759  0.3841
39376W        W82367  24.700  10.483   4.592  0.0317 -0.0048  0.2444
39377W        W82368  23.983  31.011  26.887  0.2261  0.0740 -0.1085
39378W        W82369  13.121   9.184   6.249 -0.0082 -0.1466  0.2944
39379W        W82370  17.851   2.989   9.574 -0.0099 -0.1219  0.1906
39380W        W82371  30.970  19.754   6.058  0.1883 -0.1128 -0.1786
39381W        W82372  24.795  34.101   5.505 -0.2683  0.1231 -0.0674
39382W        W82373  26.854  18.735   5.631  0.0643  0.1888 -0.3018
39383W        W82374  18.930  22.432   7.221  0.0093 -0.2777  0.0380
39384W        W82375  32.289  23.163   2.584  0.2098  0.3025  0.0618
39385W        W82376   7.704  23.735   5.288 -0.0962  0.2568  0.0695
39386W        W82377  34.310  27.711   2.845 -0.5310  0.0252 -0.2840
39387W        W82378  22.043   6.081  28.076  0.3341  0.2494  0.2093
39388W        W82379  29.139   8.137  23.932 -0.0767 -0.1307 -0.3667
39389W        W82380  28.992   1.076  14.315 -0.0320  0.0487 -0.3236
39390W        W82381   5.729  13.509  26.263 -0.0510 -0.1352 -0.5751
39391W        W82382  15.335   6.503   9.833  0.0306 -0.0360  0.1651
39392W        W82383  29.569   1.772   8.814 -0.0939  0.0765  0.0253
39393W        W82384  18.775  23.946   6.832 -0.0123  0.3414  0.0476
39394W        W82385  19.174  24.963  21.126  0.1149 -0.1297  0.0912
39395W        W82386   1.609  25.741  24.915 -0.0808  0.0248  0.2818
39396W        W82387   2.230  18.094   6.304  0.1461 -0.2256 -0.0963
39397W        W82388  29.713  20.829   8.350  0.4367  0.1457 -0.0174
39398W        W82389  28.940  23.711   1.359  0.4407  0.1414  0.2033
39399W        W82390  30.136  16.530  25.508  0.1064 -0.1047 -0.0958
39400W        W82391  34.009   8.833  10.798 -0.2047  0.1080 -0.0843
39401W        W82392  26.473  24.676  13.594  0.1046 -0.1582  0.4160
39402W        W82393  29.527  25.294   1.150 -0.0159  0.1614 -0.0884
39403W        W82394  34.488   6.216   9.561 -0.1290  0.1004 -0.2352
39404W        W82395  19.303  27.950   5.647 -0.4285 -0.1282  0.5694
39405W        W82396  26.963   5.999   6.034  0.0079 -0.1871 -0.2368
39406W        W82397  13.747  18.113  27.662  0.2585 -0.1156  0.1633
39407W        W82398  30.225  22.437   0.757 -0.0131  0.0784  0.5444
39408W        W82399  27.139  23.871   4.676 -0.2385 -0.1008  0.2089
39409W        W82400  29.616   4.346  25.820  0.2027 -0.2852  0.0005
39410W        W82401  26.908  13.494  28.323  0.3025 -0.1268  0.0207
39411W        W82402  32.207   3.361   4.983 -0.0696  0.0100  0.0729
39412W        W82403  29.872  31.556   9.373 -0.1266 -0.0775  0.1428
39413W        W82404  26.070   9.686   4.845 -0.2560 -0.2494 -0.0821
39414W        W82405   1.423  31.240   4.456  0.1224 -0.0475  0.2761
39415W        W82406  32.604  30.577   4.559  0.1245 -0.0402  0.1199
39416W        W82407  33.076  14.332   3.824  0.1246  0.2426 -0.0019
39417W        W82408  29.818  32.083   2.478  0.0066  0.0943 -0.1465
39418W        W82409  28.384  32.111   0.143 -0.1848  0.0211 -0.1455
39419W        W82410  23.264  28.621   4.258  0.1418  0.0614 -0.1445
39420W        W82411  30.594  19.431   1.575  0.3260  0.2840 -0.0385
39421W        W82412  33.333  27.609  24.504 -0.1279  0.0579  0.0775
39422W        W82413  24.732  25.174   2.319 -0.2151  0.1853  0.1751
39423W        W82414  31.861   8.576   1.549  0.1058  0.1883  0.1415
39424W        W82415  15.894   7.267   4.171  0.3586 -0.1739 -0.2802
39425W        W82416  21.414  11.977   8.564  0.0019  0.1581  0.1503
39426W        W82417  18.158   9.620   5.646 -0.0690 -0.0902  0.0405
39427W        W82418  31.817  22.751   0.147 -0.1483 -0.0784  0.0373
39428W        W82419   2.149   6.724   7.134  0.0850  0.1559  0.0061
39429W        W82420   1.579  31.752   6.828  0.1360  0.0064 -0.2255
39430W        W82421  23.630  34.778   5.575 -0.1471 -0.2042  0.0364
39431W        W82422  12.570  14.525   2.994  0.1037 -0.0402 -0.0015
39432W        W82423  18.690  19.880   1.752 -0.1004  0.1084  0.0741
39433W        W82424  32.752  33.971   3.554 -0.2112  0.0374  0.0513
39434W        W82425  26.163  22.104   6.485  0.0546 -0.2436 -0.0474
39435W        W82426  27.837  27.818  23.976 -0.1606  0.2259 -0.1177
39436W        W82427   6.026  26.481  25.995  0.0204  0.1475 -0.0682
39437W        W82428   9.591   9.398   5.646 -0.3548  0.0920 -0.0400
39438W        W82429  28.121  17.598   8.557 -0.1069  0.0933  0.3582
39439W        W82430  13.221   7.112   5.032  0.0869  0.3468 -0.2016
39440W        W82431  27.223   6.438   5.243 -0.0424 -0.1952  0.2437
39441W        W82432  34.603   8.689  21.726  0.1412 -0.0743  0.0556
39442W        W82433  22.169  28.666   6.231  0.1004  0.6882 -0.0664
39443W        W82434  29.574  33.468   5.084 -0.0774 -0.0539 -0.0216
39444W        W82435  27.252  21.440   6.929  0.0417 -0.0258  0.0321
39445W        W82436  18.485  25.257   2.891 -0.2647  0.0366  0.3440
39446W        W82437  18.633  19.242   2.281  0.0218 -0.0433  0.0546
39447W        W82438  22.054   0.208   1.573  0.2267  0.1733  0.0597
39448W        W82439  18.602  34.567   3.325 -0.3310  0.0314  0.2600
39449W        W82440  20.285   2.288   0.969 -0.1472  0.2088  0.0809
39450W        W82441   0.216  19.688  22.367 -0.4601 -0.4067  0.1627
39451W        W82442  28.806  24.837   2.738 -0.3099  0.3538 -0.1662
39452W        W82443  18.831   0.380   4.096 -0.1129 -0.0742  0.1207
39453W        W82444  20.593  29.696   4.408  0.4766  0.1341 -0.1758
39454W        W82445   9.388  32.312  18.288  0.5013  0.1565  0.0158
39455W        W82446  26.124  20.678   2.660 -0.1274 -0.0933 -0.0171
39456W        W82447  19.873   0.826   5.818  0.2879 -0.2204 -0.2864
39457W        W82448  31.966   6.506  14.407 -0.0980  0.0429  0.3456
39458W        W82449  30.221  16.713   8.138  0.2446 -0.0102 -0.2775
39459W        W82450  29.167  32.295  18.361  0.1226  0.1564 -0.0612
39460W        W82451  16.855  24.847   5.308 -0.0480 -0.3864  0.0932
39461W        W82452  33.075   0.675   5.576 -0.3145 -0.2039  0.1007
39462W        W82453   9.526  32.924   6.724  0.0814 -0.2367  0.0984
39463W        W82454  24.218  27.030   5.440 -0.0638  0.1249  0.2130
39464W        W82455  24.886  12.546   6.878  0.1393  0.0032 -0.2346
39465W        W82456  20.117   3.255   8.239 -0.0710 -0.0648  0.2634
39466W        W82457   9.931  34.781  10.126  0.1155  0.2399 -0.0522
39467W        W82458  33.026  26.014   2.255  0.1607  0.1331  0.1127
39468W        W82459  15.100  18.094   3.892 -0.2297 -0.1506 -0.0408
39469W        W82460   1.979  31.675   3.211 -0.3260 -0.3086 -0.0458
39470W        W82461  25.313  16.923   0.806 -0.2580 -0.0618  0.2109
39471W        W82462  19.806   9.527  26.023 -0.0747  0.0926 -0.0565
39472W        W82463  28.482  21.441   5.429 -0.3967  0.2199 -0.2285
39473W        W82464  32.370  15.098   8.888  0.0410 -0.0098 -0.1479
39474W        W82465  25.295  13.662  28.561  0.0358  0.1265 -0.2656
39475W        W82466  34.192  22.198   2.338  0.1749 -0.1487  0.1771
39476W        W82467  10.004  31.002   3.134 -0.2891  0.0099  0.1149
39477W        W82468   3.733  30.603  14.068  0.4354  0.4436 -0.1476
39478W        W82469  24.035  21.015  28.145  0.2677 -0.2243 -0.1338
39479W        W82470  18.602  20.810  28.182 -0.0956  0.2346 -0.0588
39480W        W82471  30.681  31.371   8.864  0.2436 -0.2398  0.1209
39481W        W82472   6.150  28.036   4.807 -0.1780 -0.2857  0.1396
39482W        W82473   0.097  19.760   4.379  0.0792  0.1712 -0.1554
39483W        W82474   5.870  19.922  11.484  0.1380 -0.1196 -0.4019
39484W        W82475  25.748  24.527  28.400 -0.0930  0.0999  0.0351
39485W        W82476   0.911  23.676   0.893 -0.2076 -0.1139  0.2267
39486W        W82477  29.958  23.684   9.708 -0.0191  0.0449 -0.0860
39487W        W82478   0.693  32.288   8.899  0.0459 -0.1935 -0.2140
39488W        W82479  29.007   2.065   8.869 -0.4411  0.1078 -0.0110
39489W        W82480   4.082  30.103   8.608 -0.2495  0.1880 -0.0879
39490W        W82481  29.590  21.449   4.498 -0.2173 -0.1660 -0.0184
39491W        W82482  17.684  14.181   4.668 -0.0397  0.3114 -0.0723
39492W        W82483   6.349  15.087   5.621  0.0184 -0.0113  0.3139
39493W        W82484  24.543  12.075   3.100  0.3336  0.1231 -0.0273
39494W        W82485  15.644  14.359   3.222  0.1713  0.0688 -0.0621
39495W        W82486   7.245   0.345   8.548  0.0317 -0.1448  0.0456
39496W        W82487  21.244  19.269   8.530  0.1584 -0.1470 -0.0056
39497W        W82488  32.278  10.582   5.551 -0.2409  0.0725 -0.1676
39498W        W82489   7.276  16.387   4.172  0.2955  0.2010 -0.2683
39499W        W82490  15.922  26.274  23.108 -0.1659 -0.2591  0.3945
39500W        W82491  17.016  24.250   8.703 -0.0408  0.0681  0.1971
39501W        W82492   2.194  13.242   2.308 -0.2399  0.0515  0.2733
39502W        W82493  28.548  10.253  23.063  0.0771 -0.2049  0.1646
39503W        W82494  29.593  32.185  21.001  0.1165 -0.3521  0.2984
39504W        W82495  16.407  29.495   3.676  0.0031  0.0103 -0.4025
39505W        W82496  30.012  29.569  17.684  0.1925  0.0049  0.1277
39506W        W82497  19.158  25.302  24.803 -0.0863  0.1569 -0.0666
39507W        W82498  34.398  34.423   4.848 -0.3019 -0.0704 -0.1949
39508W        W82499  33.646  19.397   8.561  0.0466 -0.3939  0.0171
39509W        W82500  33.370  28.766   3.504 -0.1292 -0.0036 -0.4082
39510W        W82501  22.905  29.282  24.930 -0.0191 -0.1419  0.1117
39511W        W82502  34.341   4.296  27.620  0.1671 -0.0584  0.2003
39512W        W82503  31.440  10.316  11.024  0.1708  0.1423 -0.0182
39513W        W82504   3.337  32.371   4.544 -0.2428  0.2578  0.4638
39514W        W82505  30.956  31.429  19.211 -0.1115 -0.0701 -0.1117
39515W        W82506  20.463  26.365   4.030 -0.2254 -0.0232 -0.0809
39516W        W82507  28.792  26.762   9.524  0.1836  0.1764 -0.1013
39517W        W82508  29.352  11.073   2.503 -0.1105 -0.1480  0.1269
39518W        W82509  26.100  27.624   3.327 -0.0926 -0.1322 -0.2508
39519W        W82510  25.881  22.476  20.746 -0.0168 -0.2927  0.2430
39520W        W82511  22.499  18.316   9.681 -0.0145  0.1765  0.4639
39521W        W82512  27.743   3.382   1.337  0.2000 -0.2861 -0.1452
39522W        W82513   2.154   1.909   7.952  0.1479  0.1355 -0.2628
39523W        W82514   0.971  27.604   0.041 -0.0943 -0.1140  0.4584
39524W        W82515  26.545  30.716  23.964 -0.0602  0.0791  0.0909
39525W        W82516  29.340  16.705   4.718 -0.4189 -0.1637  0.0021
39526W        W82517  16.691  31.070   8.952  0.2445  0.0469 -0.3593
39527W        W82518  10.525   2.791   0.698  0.4215  0.1550 -0.0657
39528W        W82519  25.514  26.073   8.711  0.1558  0.0277  0.1660
39529W        W82520  30.180  28.638   4.886 -0.0427  0.2073  0.0693
39530W        W82521  25.602  24.382   5.580  0.1230  0.1066 -0.0668
39531W        W82522  21.994   1.886   9.086 -0.0794 -0.2445 -0.3599
39532W        W82523  23.913  23.662   0.088  0.0227  0.0907 -0.1000
39533W        W82524  23.507  16.747   4.864 -0.0170  0.0101 -0.1324
39534W        W82525  16.879  29.708  28.616 -0.2772  0.4370  0.1018
39535W        W82526  16.659  30.735  27.444 -0.0645 -0.2807 -0.2055
39536W        W82527  30.913  30.416   6.490 -0.2702 -0.0476 -0.2556
39537W        W82528  13.872   8.354  24.325  0.2650 -0.0416  0.0257
39538W        W82529  26.237   4.460   6.706 -0.0056  0.1771 -0.0480
39539W        W82530   8.916  20.340   4.200  0.1243  0.1185 -0.1189
39540W        W82531   5.566  23.174   1.713 -0.1888  0.1889  0.0594
39541W        W82532  22.072  20.904   0.060 -0.3052  0.1341  0.0610
39542W        W82533   1.579  25.306   5.484  0.0527 -0.1406 -0.3943
39543W        W82534  32.807   3.477   2.673  0.0414  0.0436 -0.0870
39544W        W82535  30.442  25.547   7.571  0.0957 -0.1172 -0.2039
39545W        W82536  15.563  12.782  21.647  0.0103  0.1153 -0.1673
39546W        W82537  29.371  32.778  26.404  0.2092 -0.1479  0.0198
39547W        W82538  24.069   0.293   5.556  0.2225 -0.3498  0.2668
39548W        W82539  18.147   1.859  27.646  0.1770  0.3273 -0.1103
39549W        W82540   6.050  14.529   2.559  0.1564  0.2063  0.3863
39550W        W82541  19.891  26.419  17.467  0.0073 -0.1465  0.2647
39551W        W82542  32.140   8.164   8.255 -0.0526  0.1193  0.2918
39552W        W82543  33.406   2.060   5.137  0.2415  0.2511 -0.2346
39553W        W82544  20.912  22.002  27.808  0.1823 -0.0934 -0.0148
39554W        W82545   7.479   4.673  27.339 -0.0109 -0.0480  0.3949
39555W        W82546  31.778  10.840   9.869  0.1207  0.2411 -0.1825
39556W        W82547  27.467  29.716  28.891 -0.2897  0.1087 -0.1071
39557W        W82548  27.436  17.956  25.432 -0.3442  0.0633 -0.0888
39558W        W82549  19.902  23.408  27.748 -0.1970  0.0105  0.2023
39559W        W82550  32.775  25.135   6.134  0.0948 -0.0155 -0.2627
39560W        W82551   3.974  18.590   4.400 -0.1450  0.1156 -0.0215
39561W        W82552   8.733  11.933   2.184  0.0059  0.2140 -0.0717
39562W        W82553   8.798  23.441  23.076 -0.1899  0.2061  0.0973
39563W        W82554   0.758   8.850  10.985 -0.2808 -0.0960 -0.0132
39564W        W82555   1.746  11.068  24.592  0.0912 -0.1774 -0.0353
39565W        W82556  31.808   1.301  28.608 -0.1613  0.0790  0.2643
39566W        W82557  14.015   0.523   7.554 -0.2315  0.2615 -0.2196
39567W        W82558   9.909  19.219   0.646 -0.0319 -0.0417 -0.0903
39568W        W82559  22.339   1.748   7.335  0.0791  0.2344 -0.2899
39569W        W82560  34.175   0.018   9.613 -0.0547 -0.0627 -0.0376
39570W        W82561  34.674   1.597  24.311 -0.0002 -0.0591 -0.2201
39571W        W82562  31.682  18.647  10.974  0.1518  0.0585  0.0318
39572W        W82563  22.628  30.591   4.889  0.0394 -0.0796  0.1197
39573W        W82564  28.407  21.385   6.385  0.1328  0.0712 -0.0767
39574W        W82565  21.271  28.605   3.932 -0.2821 -0.1857 -0.0886
39575W        W82566  33.528  21.764   4.981  0.2164  0.0768 -0.1595
39576W        W82567  32.809  31.412   4.357  0.1589 -0.0915 -0.1070
39577W        W82568  25.997  21.993   5.100  0.0469  0.1393  0.0666
39578W        W82569  23.676  19.618  19.930 -0.0050 -0.1133 -0.1252
39579W        W82570   8.832  12.157  26.480 -0.1530  0.1714 -0.0198
39580W        W82571  30.912  34.552   8.223  0.0874 -0.1633  0.0684
39581W        W82572  14.392  23.148   0.380 -0.0743  0.1731 -0.0131
39582W        W82573  19.465   2.796   2.519 -0.0823 -0.0944 -0.0779
39583W        W82574   2.004   0.004   3.121 -0.1349  0.0845 -0.0239
39584W        W82575  12.564   0.769   7.864  0.2644 -0.0094  0.2625
39585W        W82576  34.756   1.266   0.846 -0.1242  0.3464  0.4418
39586W        W82577  29.431  24.612   6.007  0.1875 -0.1900  0.0285
39587W        W82578  12.606  32.616   6.730  0.3617 -0.2393  0.0790
39588W        W82579  11.559  31.161   0.056  0.0445 -0.1278 -0.0491
39589W        W82580  31.144  25.789   9.588 -0.2257 -0.2112  0.1941
39590W        W82581   5.184  33.968   0.551  0.0694  0.1509  0.2540
39591W        W82582   5.049  30.921  19.860  0.2169 -0.2022  0.5087
39592W        W82583  19.570  17.710   6.738  0.1833 -0.2037 -0.2689
39593W        W82584  29.561  23.756  26.695 -0.0645 -0.2259 -0.0249
39594W        W82585   2.136   0.518  10.160 -0.1557 -0.0769 -0.1750
39595W        W82586  23.315   8.870   8.728 -0.1258 -0.0508  0.2423
39596W        W82587  30.763  31.725   6.992  0.4844 -0.1473  0.1859
39597W        W82588  34.763  12.020   8.070  0.2766  0.1136 -0.3738
39598W        W82589  23.819  34.254  28.222 -0.0111 -0.3733 -0.2514
39599W        W82590  20.236  34.159   3.974 -0.0683 -0.0375 -0.0421
39600W        W82591   7.635  33.624   9.400 -0.1976 -0.1292 -0.2188
39601W        W82592   5.265  31.777  28.294  0.1375  0.2628 -0.1430
39602W        W82593  12.030  32.660   8.637 -0.0277 -0.0805 -0.3703
39603W        W82594  28.918  27.915   7.692  0.5240  0.0493 -0.0504
39604W        W82595  30.397  29.858  25.190 -0.2417 -0.2940 -0.0832
39605W        W82596  26.462  16.846   0.673  0.1348  0.0897  0.0668
39606W        W82597  19.965  33.088   1.331  0.1005 -0.2540 -0.1340
39607W        W82598  18.365  13.059   5.176 -0.1022 -0.0618  0.0103
39608W        W82599  34.637  26.015   0.440 -0.1421 -0.0656  0.1366
39609W        W82600   1.537  34.062   1.875  0.2327  0.0196  0.0072
39610W        W82601   6.158   7.637   2.381 -0.1095  0.0121 -0.1784
39611W        W82602  20.343  12.006   8.939  0.2464 -0.2853 -0.0419
39612W        W82603  16.241  32.135   8.052 -0.4649 -0.2279 -0.1480
39613W        W82604  14.287   9.152  24.719 -0.1359 -0.1181 -0.0452
39614W        W82605  11.604  27.820   0.932  0.0044 -0.2378  0.0748
39615W        W82606  10.045   4.465   8.110  0.3276 -0.0239 -0.3898
39616W        W82607  27.027  32.772   2.326  0.0623  0.0977  0.1630
39617W        W82608  24.718   8.291   3.454 -0.1066 -0.5615  0.1101
39618W        W82609   1.665  32.482  15.570  0.0699 -0.1650 -0.1485
39619W        W82610  30.385   3.009   4.844  0.1831 -0.0050  0.0348
39620W        W82611  21.492  21.851  24.388  0.0048 -0.0236 -0.3313
39621W        W82612   5.160  31.768   1.164 -0.0440 -0.0034  0.0573
39622W        W82613  16.209  11.479  25.944  0.1392 -0.1838 -0.0007
39623W        W82614   9.156  28.871   7.377  0.1495 -0.4538 -0.1600
39624W        W82615  29.795  26.109   5.206 -0.1193  0.1378 -0.0098
39625W        W82616   9.793  23.807   5.776 -0.0868 -0.0461 -0.0923
39626W        W82617  27.428  28.785  28.588  0.0105 -0.1108  0.0632
39627W        W82618  16.138  33.584  10.032 -0.1461  0.0499  0.0046
39628W        W82619  21.666  23.963  25.039 -0.3635 -0.1976  0.8260
39629W        W82620  34.468   9.602   4.209  0.2062  0.3449  0.3081
39630W        W82621  24.389  21.074  20.880 -0.0336  0.1786  0.1150
39631W        W82622  17.942  11.464   6.974  0.1278  0.1194 -0.1533
39632W        W82623  30.177  11.328   9.837  0.0791 -0.0174 -0.0471
39633W        W82624  27.442   0.761  25.549  0.0829 -0.3586 -0.0443
39634W        W82625   6.596  26.361   2.972  0.1259  0.1244 -0.1233
39635W        W82626  33.076   4.747  26.365 -0.2493 -0.0546  0.1363
39636W        W82627  28.477  24.103   4.065 -0.3672  0.0935 -0.1543
39637W        W82628  18.773  26.593   7.941 -0.2642 -0.2726  0.2021
39638W        W82629   4.935  33.423  16.210  0.0054  0.1394  0.1930
39639W        W82630  27.707   2.082   8.931 -0.4124 -0.0645  0.0355
39640W        W82631  29.733  14.228   3.052 -0.1398  0.3085  0.1202
39641W        W82632   1.492  22.737  10.719  0.0533 -0.1221  0.1754
39642W        W82633   9.714  24.104  20.605  0.0996  0.0316 -0.1424
39643W        W82634  34.775  20.752   8.526 -0.2189 -0.0803 -0.0864
39644W        W82635  22.058  30.880   6.621 -0.0173 -0.1023 -0.0200
39645W        W82636  24.601  29.262   5.162 -0.2957 -0.0709  0.2506
39646W        W82637  28.000  10.533   5.377 -0.3359 -0.0087  0.0021
39647W        W82638  20.358   0.445   7.772 -0.1330  0.4653 -0.0425
39648W        W82639  14.701   2.929  23.188 -0.1053  0.2820 -0.0422
39649W        W82640   3.031  33.076  23.190  0.0982 -0.1946  0.5408
39650W        W82641  14.663   8.893  23.109 -0.1018  0.1196  0.3227
39651W        W82642   9.115  10.173  24.739 -0.1016 -0.0761 -0.0993
39652W        W82643  21.696  33.384   0.345  0.1281 -0.0512 -0.1593
39653W        W82644  27.393  24.167  23.199 -0.2254 -0.3132 -0.0517
39654W        W82645   8.796  28.678  27.692 -0.0050 -0.3533  0.2203
39655W        W82646  26.633  33.479  22.661  0.0325 -0.0636  0.2624
39656W        W82647  32.685   1.024   2.817  0.0783 -0.1192 -0.0583
39657W        W82648  17.791   3.003   9.054  0.1529 -0.1262 -0.1011
39658W        W82649  27.777  24.411  25.951  0.1303  0.1395  0.2349
39659W        W82650  19.063   7.240  28.534  0.3194  0.1508 -0.1278
39660W        W82651  29.781  22.211   0.649 -0.1400 -0.0561  0.3631
39661W        W82652  19.333  24.780   4.556  0.0322  0.3108 -0.3970
39662W        W82653   0.709   4.406   9.655 -0.1275  0.1336 -0.0658
39663W        W82654  24.729  34.699  25.199  0.3238 -0.0394 -0.1860
39664W        W82655  32.115   3.173   3.729  0.4154  0.1533  0.2444
39665W        W82656   5.722  26.660   0.953  0.1840 -0.0577  0.1486
39666W        W82657  25.952   9.007   9.336 -0.5955 -0.1238 -0.1167
39667W        W82658  22.217   0.760  16.188  0.0657 -0.0234  0.4822
39668W        W82659  26.638  24.120  28.025  0.0685 -0.1504  0.1171
39669W        W82660   7.722  23.766   0.249  0.3459 -0.0614 -0.1724
39670W        W82661  24.970   0.859   5.685  0.0239  0.2742 -0.2188
39671W        W82662  29.780   6.315   2.526 -0.2459 -0.2495  0.3190
39672W        W82663  16.787  26.856   2.243  0.1125  0.1787  0.0891
39673W        W82664  20.819  22.540   7.562  0.1732 -0.0637  0.4001
39674W        W82665  33.370  24.155  19.954 -0.0076 -0.1000 -0.1610
39675W        W82666  13.495  29.815  24.660 -0.2442 -0.1800  0.3970
39676W        W82667  29.283   1.410  22.587  0.6097  0.0771  0.0101
39677W        W82668  31.822  29.588  26.794 -0.2949  0.3513 -0.1199
39678W        W82669  24.285   7.504   6.929  0.1032  0.1408  0.3452
39679W        W82670   4.020  17.947   3.810 -0.2527  0.0395 -0.1173
39680W        W82671   0.959  28.133  28.664 -0.0131 -0.1756  0.0832
39681W        W82672  31.651   7.676   6.428 -0.0960  0.2957  0.0361
39682W        W82673  32.571  27.180   2.197  0.0697 -0.1350 -0.1301
39683W        W82674  21.361  31.672   8.784 -0.2376  0.1139  0.0059
39684W        W82675  21.059  23.313  18.770  0.0733  0.3679  0.3084
39685W        W82676  12.536  29.108   0.028 -0.1299  0.0554  0.2256
39686W        W82677  29.403   2.649  26.257  0.0647  0.0103 -0.3007
39687W        W82678  22.915  21.613   4.381  0.1900  0.0956 -0.0431
39688W        W82679  19.099   7.619   3.391  0.1348  0.0005 -0.0396
39689W        W82680  21.756   1.667   7.913  0.2192 -0.2196 -0.0545
39690W        W82681   2.847  24.412   8.716 -0.0308  0.1220 -0.2264
39691W        W82682   6.593  16.546   5.856 -0.1159  0.1640  0.1184
39692W        W82683  18.625  33.434   9.911  0.1368  0.0018  0.0455
39693W        W82684  30.586   0.128   5.227 -0.1741  0.1934  0.1272
39694W        W82685  24.202  17.573   5.656  0.1664  0.1229  0.0672
39695W        W82686  10.373  21.609  19.035 -0.1111 -0.1790 -0.2849
39696W        W82687   4.745   1.091   5.803 -0.1964  0.2593 -0.2057
39697W        W82688  20.223  19.702  25.289  0.0788 -0.0304  0.2082
39698W        W82689   0.073  13.067   5.566  0.1328  0.4527 -0.0384
39699W        W82690  30.506  25.225  18.429 -0.0307  0.2890  0.3602
39700W        W82691  28.474  19.496  26.034  0.1151 -0.3934 -0.1162
39701W        W82692  26.641   2.514  27.225  0.1676 -0.2250 -0.0174
39702W        W82693  25.511  33.389   0.709  0.2502 -0.0504 -0.2498
39703W        W82694  27.834   3.711   4.402  0.0732 -0.0943  0.1663
39704W        W82695   0.486  18.815  15.682  0.1897 -0.0579  0.0167
39705W        W82696  12.555  17.345  27.015  0.2004  0.0019 -0.2289
39706W        W82697  18.504   3.703  18.243  0.1019  0.1421 -0.1006
39707W        W82698  16.081  33.359   6.470 -0.3271 -0.0047  0.2686
39708W        W82699  23.264  32.983   7.186  0.2233 -0.0035  0.0882
39709W        W82700  29.172  27.591  24.510  0.2595 -0.1581  0.2031
39710W        W82701  21.716   1.058  21.859  0.2118 -0.0843  0.2605
39711W        W82702  22.791  16.261  25.522 -0.0543 -0.0670 -0.2690
39712W        W82703  22.216  11.293  28.572  0.3420 -0.2300 -0.1415
39713W        W82704   5.963  25.567   0.247  0.1337  0.2230  0.0652
39714W        W82705  32.520   1.711  24.247 -0.0090  0.1646 -0.2389
39715W        W82706   4.963  28.813   5.043  0.4606  0.2931  0.1246
39716W        W82707   0.682  33.365   6.521 -0.1561  0.3963 -0.5102
39717W        W82708  17.183  23.870   4.236 -0.3145  0.0170 -0.2308
39718W        W82709  21.692   9.407  28.005  0.0507  0.0623 -0.0653
39719W        W82710  34.150  10.898   0.965  0.2127  0.2268 -0.3476
39720W        W82711  19.822  30.765   9.025 -0.0306 -0.0640 -0.1865
39721W        W82712  14.093  28.222   6.390 -0.1416  0.4436  0.1221
39722W        W82713  25.876   5.587   1.034 -0.1976 -0.0926 -0.0887
39723W        W82714  23.225   6.583   5.019  0.1220 -0.0445  0.0383
39724W        W82715   4.900   2.964  11.236 -0.0411  0.0753 -0.3308
39725W        W82716  31.381  23.805   7.126  0.1126 -0.0690  0.2759
39726W        W82717  26.218  21.863  21.409 -0.3739  0.2046 -0.0217
39727W        W82718  25.927  29.334   9.585 -0.0600 -0.1550  0.2418
39728W        W82719  27.546   0.152   6.014  0.3329 -0.0174 -0.1839
39729W        W82720  25.892  22.832   8.728 -0.2702  0.0558  0.0161
39730W        W82721  24.927  26.170   7.254 -0.0743  0.2668 -0.3391
39731W        W82722   0.514  13.771  22.068  0.3257 -0.0377 -0.3252
39732W        W82723   0.140   3.739  21.214  0.1435  0.2398 -0.0228
39733W        W82724   3.913  28.684  19.487 -0.1262  0.2385  0.0520
39734W        W82725   1.050   4.927  28.333 -0.1948 -0.1446 -0.0233
39735W        W82726  28.175   0.855   4.922 -0.0855 -0.0923  0.0055
39736W        W82727  23.376  31.862   3.604 -0.0379  0.0580 -0.1578
39737W        W82728  20.693  23.410  19.106 -0.1605  0.0133 -0.2766
39738W        W82729   2.421  23.719  24.498 -0.0772 -0.0503 -0.1308
39739W        W82730  29.457  22.093   6.515 -0.0513 -0.0432  0.0671
39740W        W82731  15.592   1.613  22.374  0.0046  0.0904 -0.1309
39741W        W82732  10.565  12.997  27.985  0.0561  0.0701  0.0414
39742W        W82733  34.538  12.328   5.096  0.3210 -0.2762 -0.0131
39743W        W82734  25.208  28.005   4.166  0.3149  0.0272  0.0517
39744W        W82735  11.178  33.663   4.291  0.0933 -0.0613  0.0024
39745W        W82736   5.655  23.610  23.176 -0.2037  0.5591 -0.0297
39746W        W82737  13.671  26.888  28.479  0.4827 -0.0789 -0.1167
39747W        W82738  33.878   7.520  24.349  0.0554  0.1885 -0.0936
39748W        W82739  16.370  29.911   7.265 -0.0751 -0.3667 -0.1817
39749W        W82740  17.864   6.934  17.285  0.0375  0.2587 -0.2779
39750W        W82741  23.956   1.598   8.215 -0.1887  0.3349 -0.1293
39751W        W82742  10.002  32.066  28.656  0.0506  0.0375  0.1531
39752W        W82743  28.764   0.719  19.316  0.0649 -0.0932  0.0740
39753W        W82744  18.032   6.593   2.188  0.0144 -0.2336 -0.0269
39754W        W82745  17.729   1.903   7.942  0.3677 -0.0354 -0.0184
39755W        W82746  31.993  12.091  25.531  0.4785  0.0721  0.0172
39756W        W82747  24.581  32.496   8.505  0.2228 -0.1134  0.3062
39757W        W82748  34.673   9.856  10.378  0.2782  0.1425  0.1658
39758W        W82749  30.255   5.105  24.555 -0.1142 -0.1472  0.1510
39759W        W82750  12.601  25.906   5.505 -0.0210 -0.0843  0.1329
39760W        W82751  28.466   6.631   1.634 -0.1191  0.4426  0.0239
39761W        W82752  30.755   6.572   6.357  0.1789  0.1923  0.1185
39762W        W82753  14.153  33.980  27.937 -0.0099  0.0781  0.0730
39763W        W82754  29.258   8.612  16.038  0.1369  0.0881  0.2420
39764W        W82755   3.686  13.122   1.254 -0.2206  0.0535  0.1045
39765W        W82756   4.066  17.085  16.673 -0.1952  0.0791 -0.0665
39766W        W82757   5.162  20.770   6.043 -0.1793 -0.0757 -0.3855
39767W        W82758   7.184  23.250  27.516 -0.2159  0.1106  0.1755
39768W        W82759   0.085   5.787   9.244  0.0407 -0.1531 -0.1633
39769W        W82760   3.655  23.668   3.990  0.2121  0.2768  0.3892
39770W        W82761  16.046   1.969  11.121  0.1784 -0.2293 -0.1501
39771W        W82762  17.533   8.014  27.669 -0.1350  0.2194  0.0179
39772W        W82763  27.848  18.926   2.222 -0.1066 -0.2113 -0.1193
39773W        W82764  11.734  28.842   2.184  0.0896  0.2413  0.0135
39774W        W82765  32.462  31.959  23.434  0.0794 -0.0911 -0.1902
39775W        W82766  28.842  19.701   8.486 -0.1304 -0.3140  0.2736
39776W        W82767   1.138  31.052  20.637 -0.1448 -0.1417  0.2599
39777W        W82768   2.092   2.253   4.193  0.0091  0.4370  0.1077
39778W        W82769  26.171   2.709  26.404  0.1535 -0.3739 -0.0345
39779W        W82770  21.414  23.997  19.952  0.1205  0.0639  0.0710
39780W        W82771  23.671  32.929  28.758 -0.0672  0.0229 -0.1555
39781W        W82772   9.725  31.302  22.756  0.3245  0.3185 -0.0414
39782W        W82773  28.402   3.647  25.695 -0.2026  0.1232  0.2418
39783W        W82774  21.553  33.174   5.589 -0.1848 -0.2126 -0.3946
39784W        W82775  26.507   3.196  29.234  0.0485 -0.1515 -0.2411
39785W        W82776  16.596  19.853  24.880 -0.3217 -0.0466  0.0050
39786W        W82777  17.573   9.540   4.659 -0.0949  0.0278  0.0480
39787W        W82778  25.178  32.375  25.034 -0.0859  0.1542  0.1733
39788W        W82779  29.208   3.933  28.870 -0.2391  0.0072  0.1754
39789W        W82780  33.793  19.287  19.803  0.1375 -0.1856  0.2506
39790W        W82781   2.509  24.833   6.728 -0.1570  0.1284  0.1805
39791W        W82782  34.033   2.827   2.342  0.0374 -0.0632 -0.1159
39792W        W82783  31.240   4.977   9.120 -0.2017  0.2408  0.0620
39793W        W82784   1.847   9.258   2.545 -0.0108 -0.0054  0.3153
39794W        W82785   5.817   3.519  10.450  0.1033  0.1039 -0.2140
39795W        W82786   7.461   1.301  16.178  0.2729 -0.1753 -0.1532
39796W        W82787  33.097  34.282   8.464 -0.1649 -0.2056  0.1383
39797W        W82788   3.275  12.785  25.626 -0.0586  0.0885 -0.1902
39798W        W82789  20.860  33.282  25.622 -0.1205  0.1265 -0.0220
39799W        W82790  26.426   6.412  18.085 -0.2027  0.1230 -0.1796
39800W        W82791  25.292   2.827  14.603  0.0315 -0.0561 -0.2206
39801W        W82792   2.062  13.757  25.196  0.0251  0.0836  0.1539
39802W        W82793  19.107  30.822  28.702 -0.2457  0.0549 -0.1762
39803W        W82794  22.422  29.255  14.412  0.1039 -0.0510 -0.2115
39804W        W82795  25.641  19.930  18.907  0.0187 -0.0709  0.0689
39805W        W82796  17.440  18.749   0.565 -0.0634 -0.1599  0.1619
39806W        W82797  24.064   3.095   7.046 -0.0942  0.0873 -0.0163
39807W        W82798   3.709   7.695   0.208 -0.0715  0.1741 -0.1074
39808W        W82799  23.358   9.909  23.281 -0.1082  0.2550 -0.1098
39809W        W82800   7.548   5.750   6.529  0.2702 -0.0104 -0.1263
39810W        W82801  32.768  25.879   4.620  0.1696 -0.2120  0.0333
39811W        W82802  11.765  25.225   6.210 -0.1119  0.1852  0.3489
39812W        W82803  27.958  18.721  24.203 -0.1146 -0.1192 -0.1374
39813W        W82804   3.768  20.691   2.402 -0.1341 -0.2409  0.0571
39814W        W82805  15.258  33.975  21.089 -0.0087 -0.0617  0.0411
39815W        W82806  32.659   0.808  26.122 -0.0707 -0.0430  0.1898
39816W        W82807  14.913  15.262   0.651  0.0208 -0.0883  0.2075
39817W        W82808  16.216  29.194   5.553 -0.1687  0.0813  0.1477
39818W        W82809  20.283  26.381  25.693 -0.0476  0.2597  0.0311
39819W        W82810  13.646   8.052  20.720  0.1578 -0.2296  0.3260
39820W        W82811  33.819   6.773   0.639  0.0347 -0.2764  0.0418
39821W        W82812  19.671   9.653  24.513  0.0486  0.0299 -0.1252
39822W        W82813   7.206  20.642   1.529  0.0406  0.0063  0.1791
39823W        W82814  18.564  26.534   4.246  0.1877 -0.0054  0.1413
39824W        W82815  22.159   0.603   2.666 -0.0735  0.1992  0.0331
39825W        W82816  33.523   5.321   4.024 -0.1437  0.1365 -0.0796
39826W        W82817  21.395   3.281   8.982  0.0432 -0.3003 -0.0057
39827W        W82818  11.893  32.071  26.085 -0.2512  0.1730 -0.1306
39828W        W82819  27.908   0.628   0.273  0.1875 -0.0192  0.2640
39829W        W82820  21.934  31.944   6.860 -0.1771  0.0933 -0.0472
39830W        W82821  22.630   1.168   2.585 -0.0840 -0.1647  0.1393
39831W        W82822  14.268  10.997   4.108 -0.3176  0.0927  0.1038
39832W        W82823  22.297   6.604  24.365 -0.0023  0.3180  0.0233
39833W        W82824   1.692  20.650   5.766 -0.0825 -0.0265 -0.2470
39834W        W82825  14.011   4.378  16.281  0.2131  0.1274  0.1646
39835W        W82826  32.106  28.575  25.556  0.1016 -0.0429  0.4921
39836W        W82827  32.111  27.473   8.970  0.0506 -0.2716  0.2581
39837W        W82828  19.071   1.572   7.151 -0.0935  0.0447  0.1858
39838W        W82829  11.562  14.471   8.040  0.3094 -0.1629 -0.0233
39839W        W82830  28.555   4.023  22.382  0.2300 -0.0575 -0.1197
39840W        W82831  28.514  34.621   7.866  0.1864  0.2120 -0.2172
39841W        W82832  31.182   5.587   9.881  0.0633 -0.0348 -0.1495
39842W        W82833  27.918   8.557  27.287  0.0882  0.0139 -0.3277
39843W        W82834   4.280  32.225  14.666  0.2340 -0.2728 -0.0650
39844W        W82835  18.269  29.803  28.433 -0.5082  0.0741  0.3833
39845W        W82836   9.258  29.838  22.865 -0.2779 -0.1265  0.2093
39846W        W82837  30.447   1.538   8.536  0.6025 -0.0606 -0.3155
39847W        W82838  25.282  11.929  25.165  0.1363 -0.2283 -0.0590
39848W        W82839  10.489   0.545   7.516  0.0406 -0.1572 -0.2290
39849W        W82840   2.398  23.068   1.561  0.1145 -0.0834  0.0819
39850W        W82841  32.285   5.734   5.095  0.0034  0.0972 -0.1062
39851W        W82842  34.701   6.601  21.318  0.1350  0.1006  0.1101
39852W        W82843   0.744   3.500  21.500  0.1981 -0.0203 -0.1511
39853W        W82844   7.064   6.528   6.676 -0.0983 -0.1260  0.0170
39854W        W82845   1.029  20.480   7.012  0.0784 -0.1212  0.0989
39855W        W82846  26.176   4.985   2.827 -0.0055  0.1822 -0.1392
39856W        W82847   9.839  13.056  27.237  0.2342  0.2628 -0.2005
39857W        W82848  27.248   8.333   6.747  0.0929 -0.0881  0.0909
39858W        W82849  34.131   4.049   7.441 -0.0516 -0.0780  0.5331
39859W        W82850  26.132  27.367   3.950 -0.1091  0.0814  0.1255
39860W        W82851  30.292  26.125  25.708 -0.1103  0.0306 -0.4271
39861W        W82852  26.767  11.990   5.371 -0.1456  0.1689  0.0649
39862W        W82853  32.697  25.806   1.686  0.3947  0.0679 -0.2681
39863W        W82854  33.859  11.165   1.237 -0.0157 -0.0917 -0.1832
39864W        W82855   3.363  29.813   0.768 -0.0096 -0.0439 -0.0600
39865W        W82856  29.514  20.349   5.831 -0.1786  0.2495 -0.1850
39866W        W82857   1.248   1.561   5.743 -0.1403  0.1384  0.0069
39867W        W82858  30.094   4.470  25.639  0.1258  0.2458 -0.1659
39868W        W82859  15.018   3.151  28.478  0.1161  0.1468 -0.0732
39869W        W82860  34.264   8.546   4.894  0.0426  0.0258  0.4205
39870W        W82861  15.018  16.618   0.434  0.0449 -0.4781  0.1452
39871W        W82862  13.292  16.041   4.463  0.3797 -0.1672  0.2528
39872W        W82863  31.653   8.512  21.100  0.0269 -0.0978 -0.1166
39873W        W82864   4.538   4.648   1.052 -0.2040 -0.0752  0.1795
39874W        W82865   7.102  32.887   0.545 -0.2845 -0.0750  0.2276
39875W        W82866  28.511  32.277  25.719  0.1761 -0.1522  0.1228
39876W        W82867   9.374  26.361   1.295 -0.2453 -0.0732 -0.0294
39877W        W82868  30.589   4.774   5.349 -0.0039 -0.0736  0.0766
39878W        W82869  28.836  21.324   5.062 -0.1442  0.4007 -0.0598
39879W        W82870  24.158  25.009  29.127  0.0907  0.2248 -0.4243
39880W        W82871  10.948  34.040   8.099  0.1487  0.2630 -0.1908
39881W        W82872  31.455  32.624   0.989 -0.4148  0.1270 -0.2511
39882W        W82873   0.641  29.512   5.816  0.0696  0.2689  0.3467
39883W        W82874  23.226   0.841   4.052 -0.1035  0.2918  0.2046
39884W        W82875  26.919  30.058  28.410 -0.2177  0.0684  0.0709
39885W        W82876  32.785  29.735  25.517 -0.1147 -0.1605  0.1297
39886W        W82877  24.132  27.634   9.013  0.0326 -0.4582 -0.3230
39887W        W82878  20.151  33.708   3.833  0.0857 -0.3105 -0.0346
39888W        W82879  32.030  33.258  16.862  0.1368 -0.0194  0.2803
39889W        W82880  27.634  25.531   4.434  0.1380 -0.0031  0.1884
39890W        W82881  34.062  13.917   8.068  0.0525 -0.1795 -0.2180
39891W        W82882  18.133  27.104   5.227 -0.5680  0.0853  0.1944
39892W        W82883  11.275   7.539   1.612  0.1176  0.0009  0.0782
39893W        W82884   9.256   2.733   8.295 -0.2652 -0.1178  0.1471
39894W        W82885  27.838   6.694  20.453 -0.0978 -0.0625 -0.1777
39895W        W82886   0.331  29.470   3.373  0.3341 -0.3388  0.0548
39896W        W82887  31.347   6.782   1.047 -0.0597  0.1520  0.2493
39897W        W82888   0.217   2.776  27.903 -0.0395  0.2308  0.0932
39898W        W82889  19.243  18.301   4.722 -0.0459 -0.1184  0.3785
39899W        W82890  31.036   7.184  25.875 -0.0894  0.2233 -0.1688
39900W        W82891  27.227  12.884  18.758  0.2081  0.0674  0.2739
39901W        W82892  28.096   4.280  13.743  0.1724  0.0814 -0.0269
39902W        W82893   9.448  29.835   1.546 -0.2309 -0.1584  0.2021
39903W        W82894  27.336   2.429   2.882  0.2227 -0.3275 -0.0308
39904W        W82895  14.011  12.529   1.533 -0.0659 -0.1473 -0.1674
39905W        W82896  30.949   0.497   1.496  0.0095 -0.1139 -0.1542
39906W        W82897   7.736   1.063  23.225  0.1098  0.0176 -0.0643
39907W        W82898  16.927  10.789   3.278 -0.2855 -0.3942 -0.0001
39908W        W82899  13.125  23.058   1.178  0.0473 -0.0511  0.2640
39909W        W82900  23.237  34.667   8.265  0.2022 -0.1978 -0.1381
39910W        W82901  23.194  13.621  18.022  0.1329 -0.3919 -0.1717
39911W        W82902  13.906   1.547  20.165  0.2411  0.2606  0.0659
39912W        W82903  17.925   5.141   5.902 -0.0747 -0.1378 -0.2388
39913W        W82904  21.531   1.042   5.494 -0.3503 -0.0759  0.1900
39914W        W82905  16.891  30.085   4.864 -0.2548 -0.0210  0.2020
39915W        W82906  34.351   6.664   4.822  0.0640  0.0763  0.0290
39916W        W82907  16.027  18.688   8.783 -0.1334  0.0462  0.1255
39917W        W82908  24.211   1.892   4.704  0.0986 -0.1435  0.0635
39918W        W82909  17.248  19.191   2.059  0.0563 -0.1324  0.2169
39919W        W82910  19.443  29.585   0.077 -0.0500  0.0690 -0.2532
39920W        W82911  24.075  32.671  27.637  0.1815 -0.1453  0.2474
39921W        W82912  28.062   8.658   0.154 -0.1384  0.0695  0.0039
39922W        W82913  28.401   5.966  18.892 -0.3335  0.0243 -0.1374
39923W        W82914   5.345  34.057  18.178  0.1414 -0.0611 -0.3207
39924W        W82915  33.151   4.222  26.191 -0.0423 -0.2388 -0.1330
39925W        W82916  25.206  28.340  24.084 -0.1092  0.0107  0.0182
39926W        W82917  23.325  13.548   9.258 -0.0297  0.3013 -0.1057
39927W        W82918  26.593  12.952   2.802  0.0970 -0.0349 -0.1450
39928W        W82919  29.987  29.989  12.479 -0.1620 -0.0851 -0.1758
39929W        W82920  28.636  25.175   2.383 -0.1218 -0.0346 -0.0402
39930W        W82921  13.264  33.411   7.368  0.4337 -0.0765  0.4236
39931W        W82922  24.806  28.826   8.869  0.1270 -0.2038 -0.2899
39932W        W82923  25.493  11.364   6.626  0.3294  0.3018 -0.0159
39933W        W82924  31.252  31.107   3.369 -0.0579  0.1008  0.0567
39934W        W82925   0.205  23.698   7.397 -0.0347 -0.0285  0.0755
39935W        W82926   4.060   8.895   3.324  0.0714 -0.1094 -0.1002
39936W        W82927  29.459  33.349   1.642  0.0815  0.1837  0.0994
39937W        W82928  32.585  12.709   7.028 -0.2426 -0.1567 -0.0774
39938W        W82929  34.073  31.453   4.665 -0.0559  0.0568 -0.0175
39939W        W82930  31.178  15.043  28.317  0.0374 -0.1992  0.2866
39940W        W82931  27.941  16.889  10.247 -0.0211 -0.2039  0.5792
39941W        W82932  15.322  24.433   1.384  0.2176  0.2686 -0.0258
39942W        W82933  25.836   8.664   5.189  0.0508 -0.1172 -0.0403
39943W        W82934  13.481  23.472   9.048  0.1561 -0.0447  0.2359
39944W        W82935  21.201  21.113   5.474  0.2885  0.2051  0.5308
39945W        W82936  23.512  29.920   8.860 -0.4451  0.1626  0.0877
39946W        W82937   4.265  27.090  22.936 -0.0208  0.2792  0.3141
39947W        W82938  16.084   7.708   7.558  0.0561 -0.0464 -0.1639
39948W        W82939  13.885  30.205  27.769 -0.2459 -0.2817 -0.2056
39949W        W82940  32.339  34.463   7.637  0.0026 -0.0367  0.0266
39950W        W82941  29.068  23.568  19.596  0.3575 -0.0677  0.0037
39951W        W82942  24.133  21.986   2.287 -0.0214 -0.1417 -0.1316
39952W        W82943  34.527   2.392   6.241  0.2226 -0.0022  0.0893
39953W        W82944   9.863  13.625   2.468 -0.1528 -0.0127  0.1521
39954W        W82945   0.074   9.033   3.038  0.2660 -0.2215 -0.0420
39955W        W82946  21.138   0.632  29.115 -0.2095 -0.2141  0.1592
39956W        W82947  28.322  30.051  21.177  0.2515 -0.2298  0.0588
39957W        W82948  26.812   9.245   7.473 -0.2745  0.0587  0.0345
39958W        W82949  21.057   0.578   8.663  0.1255 -0.0006  0.2446
39959W        W82950  34.675   0.975  17.836 -0.1547  0.2871 -0.1241
39960W        W82951  33.892  32.847   3.340 -0.0427 -0.3536  0.0804
39961W        W82952  32.638  28.177   1.901 -0.0573  0.1392  0.0074
39962W        W82953  26.818  17.484   6.015 -0.0346 -0.1195 -0.0694
39963W        W82954  19.711  29.968   7.354  0.1634  0.0099 -0.1867
39964W        W82955  33.017  10.943   3.840  0.1417 -0.0946 -0.3221
39965W        W82956  16.649  14.797   6.936 -0.1376 -0.0761  0.1870
39966W        W82957  27.152  28.253   6.431  0.1478 -0.1337  0.2483
39967W        W82958  28.331   1.624   9.378 -0.0317  0.1450 -0.0749
39968W        W82959  30.135  13.739   3.027  0.0382 -0.1337  0.0841
39969W        W82960  30.498   3.552   1.123  0.0339 -0.0476 -0.0212
39970W        W82961   9.158   5.140   3.193  0.4483  0.0575  0.0700
39971W        W82962  25.352  29.367   3.565 -0.0060  0.2232 -0.0586
39972W        W82963  17.111  12.381   6.067  0.2514 -0.1586  0.3007
39973W        W82964  17.955  18.097   3.617  0.0133 -0.1239  0.1424
39974W        W82965  22.508   5.389  28.177 -0.0230 -0.2277 -0.0456
39975W        W82966   0.369  30.067   7.193 -0.1398 -0.1447  0.0951
39976W        W82967  16.924  21.735   6.041 -0.3181  0.1220  0.0079
39977W        W82968   6.478  30.870   9.084 -0.1269 -0.1269  0.0124
39978W        W82969  23.712  28.240   4.186 -0.0164  0.0222  0.2037
39979W        W82970  29.636  25.097   7.969 -0.0732 -0.2222 -0.0460
39980W        W82971  20.015  32.114  25.831  0.1700 -0.2297  0.2046
39981W        W82972  11.227  13.678   6.017 -0.1869  0.1248 -0.1734
39982W        W82973  24.704  28.956   6.585 -0.0808  0.4031  0.1033
39983W        W82974  22.427  24.987   3.982 -0.0936  0.1078 -0.3777
39984W        W82975   4.797   4.500   3.026 -0.1845 -0.0425 -0.0905
39985W        W82976   7.695  26.256   5.156  0.0900 -0.2711 -0.2744
39986W        W82977  29.844   1.325   2.617 -0.0269 -0.0869  0.0225
39987W        W82978  29.176  24.162   1.368  0.1300  0.1851  0.0201
39988W        W82979   7.692  27.657   5.948  0.3076  0.0217 -0.3296
39989W        W82980   0.308  21.020   8.837  0.0830  0.1851 -0.4053
39990W        W82981  32.051  26.246   7.556  0.0056  0.0097  0.0728
39991W        W82982  22.930  21.770   6.847  0.0314 -0.2130  0.0214
39992W        W82983   5.549  14.620   2.947 -0.0225 -0.0618  0.2465
39993W        W82984  30.889   4.265  26.648 -0.0341  0.1389 -0.3666
39994W        W82985  29.352  22.209   3.384 -0.2572  0.0610 -0.2962
39995W        W82986   2.958  34.517  10.466  0.2702  0.4366 -0.0273
39996W        W82987  14.482  31.705   5.898 -0.1066  0.1253 -0.1926
39997W        W82988  19.904  20.815   2.291  0.3330 -0.2912 -0.1091
39998W        W82989  16.719  31.403   0.266  0.0125  0.0340 -0.2596
39999W        W82990   4.541  29.744   7.844  0.1472 -0.0848 -0.1198
40000W        W82991   0.695   8.463  10.668 -0.0269 -0.1154 -0.2237
40001W        W82992  21.512  18.655  25.584 -0.2312  0.0168  0.1360
40002W        W82993   1.723   2.014   1.749 -0.1250  0.1734  0.1339
40003W        W82994  23.569  27.600   6.925 -0.1372 -0.0941 -0.1392
40004W        W82995  28.249   8.622   5.441 -0.6024 -0.1787  0.1920
40005W        W82996  20.832  14.259  19.284  0.0597 -0.0068  0.0107
40006W        W82997  25.943   8.393   9.698 -0.0057 -0.2363  0.1344
40007W        W82998  23.987  20.925   1.496 -0.2115 -0.0206 -0.0664
40008W        W82999  19.881  26.735   3.441  0.0144  0.1213 -0.1379
40009W        W83000  30.260  10.193   5.736 -0.0711 -0.1775  0.2396
40010W        W83001  17.519  11.226   0.368 -0.0232  0.0648 -0.1521
40011W        W83002   2.148  16.229   4.043 -0.2241  0.1935  0.2220
40012W        W83003  16.082  22.481   8.976 -0.0687  0.2107  0.0754
40013W        W83004  25.360  19.385  18.060  0.1022  0.2433 -0.0306
40014W        W83005  23.302  10.348  19.266  0.1371 -0.0327  0.2560
40015W        W83006  28.709  23.848  28.844 -0.0709 -0.2563  0.2225
40016W        W83007   9.875  12.022   4.366  0.2068 -0.1070  0.1477
40017W        W83008  22.877   7.518   2.387  0.2582  0.2728  0.0821
40018W        W83009  25.679  28.861   7.854 -0.0035  0.0764 -0.1575
40019W        W83010  18.913   1.641  23.339  0.3295  0.0856  0.1208
40020W        W83011  11.902  25.745   6.939  0.2413  0.1927  0.0164
40021W        W83012   0.124   3.340   2.391  0.1073 -0.2089  0.0972
40022W        W83013  21.354   6.236  28.016  0.2400  0.0774 -0.0241
40023W        W83014  32.636  29.633   6.496  0.1171  0.1063  0.0627
40024W        W83015   6.861   2.235  19.744  0.1889  0.2808  0.1836
40025W        W83016  16.802  21.800   5.445  0.1183  0.1681  0.0266
40026W        W83017  16.839  27.364  16.102  0.2632 -0.1864 -0.0630
40027W        W83018  28.733   6.368   8.780  0.3667 -0.1203  0.0581
40028W        W83019   0.542  22.291  28.880  0.2346 -0.0514  0.0328
40029W        W83020  28.459  31.043   3.072  0.4401  0.0142  0.0177
40030W        W83021  15.601   4.735   4.009 -0.2816  0.2077  0.1265
40031W        W83022  18.964  33.950   7.863 -0.3174  0.2327  0.2632
40032W        W83023  23.159  31.905  29.073  0.0120 -0.3289 -0.1410
40033W        W83024  22.637   8.402  10.492  0.3285 -0.1331  0.1525
40034W        W83025  33.763  17.281   5.287 -0.0261  0.0564  0.1026
40035W        W83026  25.117   3.261   7.161 -0.1690 -0.1055 -0.1351
40036W        W83027  21.344   3.436  28.811  0.2569 -0.1005  0.0289
40037W        W83028  29.987  22.450   8.953  0.2782  0.4179 -0.1552
40038W        W83029  18.560  20.219  28.987  0.3018  0.4849  0.0352
40039W        W83030   5.471   6.167  10.394 -0.1949 -0.0124 -0.2925
40040W        W83031  28.619  28.826  23.586 -0.1613  0.0386  0.4158
40041W        W83032   9.249  31.641  17.132 -0.1939  0.0712  0.1521
40042W        W83033  21.490   4.149   1.382  0.1047  0.0259 -0.2683
40043W        W83034   5.781   5.558  11.454  0.2158 -0.1982  0.3701
40044W        W83035  33.429  23.188   9.211 -0.0533 -0.2679  0.0135
40045W        W83036  20.404  28.974   7.426  0.0507 -0.0742  0.1161
40046W        W83037   5.814  14.021  28.888  0.0073 -0.1373 -0.0629
40047W        W83038  29.214  15.530  25.961  0.1920 -0.0357 -0.1693
40048W        W83039  32.183   7.363  26.104  0.0880  0.3589  0.1755
40049W        W83040  19.952  21.572   0.835  0.2281 -0.1484  0.2275
40050W        W83041  21.149  10.120   2.912 -0.0495  0.0975 -0.0737
40051W        W83042  34.327   9.949   9.281  0.0535 -0.4107  0.0910
40052W        W83043  18.282  21.220   4.852 -0.0310  0.1994  0.0229
40053W        W83044   9.181  20.454  18.618 -0.0274 -0.2536 -0.2162
40054W        W83045  33.830   5.277  26.678  0.1924 -0.0271  0.2239
40055W        W83046  23.580  17.903   4.698 -0.0805  0.0649 -0.2675
40056W        W83047   2.639  32.863  25.029  0.0244 -0.0271 -0.0978
40057W        W83048  17.193   8.705  26.248  0.0070 -0.1139 -0.1474
40058W        W83049  15.878   1.132  28.357 -0.2629  0.0517 -0.0651
40059W        W83050  27.814  32.418   4.255 -0.0749  0.0675 -0.1915
40060W        W83051   1.497  25.411  24.097  0.5034  0.0814  0.2592
40061W        W83052   2.689  16.281  22.691  0.2905 -0.0229  0.1228
40062W        W83053   0.049  30.049   0.424  0.3051  0.2914 -0.0479
40063W        W83054  27.526   5.918  21.567  0.2247  0.0282 -0.2407
40064W        W83055  19.997  27.674  24.226 -0.3432  0.1949  0.1682
40065W        W83056  24.379   8.156  26.645 -0.3671 -0.0780 -0.0252
40066W        W83057  28.762   8.479  15.982 -0.2092  0.1554 -0.0205
40067W        W83058  30.440  32.252  28.350 -0.0795 -0.0255  0.3675
40068W        W83059   7.205  29.398  23.947  0.0049  0.4491 -0.0653
40069W        W83060  25.619  23.918  29.005 -0.0175  0.1077  0.1381
40070W        W83061  29.900  18.349   5.398 -0.1883  0.1616  0.1064
40071W        W83062  20.200  20.830   4.505 -0.2496 -0.1385 -0.4376
40072W        W83063  33.970   3.615  25.156  0.2592 -0.0189  0.0926
40073W        W83064  22.104   1.413   8.416 -0.2944  0.0228 -0.0511
40074W        W83065  29.851  29.152  13.504 -0.2090 -0.1889  0.1911
40075W        W83066  25.752  23.093   1.368  0.2881 -0.0826 -0.1227
40076W        W83067   1.324  30.585  22.087  0.1511  0.1875  0.1626
40077W        W83068  10.972  29.932  19.614  0.1353 -0.1367  0.0717
40078W        W83069  16.006  12.053   3.348 -0.2173  0.0562  0.0132
40079W        W83070  26.717  21.670  25.858 -0.1427 -0.0021  0.0128
40080W        W83071  18.311   2.573   0.178 -0.1303  0.0026  0.1773
40081W        W83072  29.551  29.802   3.706 -0.2266 -0.4118  0.3048
40082W        W83073  21.076  17.994   0.240  0.0786  0.1050 -0.1775
40083W        W83074  31.555   4.892   4.965 -0.2454 -0.3289 -0.2531
40084W        W83075  16.188   6.741  15.310  0.1252  0.0799 -0.1867
40085W        W83076  16.435  11.289  27.255  0.0716 -0.0590 -0.4477
40086W        W83077  30.873   7.112   1.919  0.2193 -0.1707 -0.2599
40087W        W83078   2.577  34.397   3.692  0.2496  0.2483 -0.1071
40088W        W83079  25.849  13.722   2.809  0.0411 -0.1851 -0.0019
40089W        W83080   4.375  30.164  28.414  0.1357  0.2273 -0.0130
40090W        W83081   3.630  19.774   9.717  0.3313  0.1454 -0.0704
40091W        W83082  23.306  33.697   2.688 -0.0104 -0.0892 -0.0402
40092W        W83083   6.092   5.633   1.237 -0.0682 -0.1913  0.0343
40093W        W83084  28.229  32.478  15.488  0.2733 -0.1586  0.0038
40094W        W83085  21.269   2.641   2.286  0.1042  0.2231 -0.0679
40095W        W83086  25.458  25.183   1.622  0.0079  0.0097 -0.2170
40096W        W83087   7.665  13.872  11.431  0.3476 -0.2972 -0.2082
40097W        W83088  34.723  26.213  20.129  0.0712  0.0408  0.1238
40098W        W83089  28.991  34.346   5.065 -0.3650 -0.0145 -0.0087
40099W        W83090   0.919   7.171  10.121  0.1286  0.2532 -0.0041
40100W        W83091   7.222  25.382   4.451  0.2834  0.0282  0.1728
40101W        W83092   5.642   5.802   8.418  0.1573 -0.0421 -0.0903
40102W        W83093   2.097  10.199   3.129 -0.0375 -0.1636  0.2294
40103W        W83094  30.868  24.835   3.168  0.1984 -0.1258 -0.3185
40104W        W83095  25.225  14.989   2.799  0.1569  0.3075 -0.0804
40105W        W83096  32.879  26.566   5.942  0.1379  0.2474  0.1627
40106W        W83097  25.318  15.586   1.243  0.0943 -0.1904 -0.3173
40107W        W83098  19.828  33.941  19.741 -0.0975  0.0939 -0.0489
40108W        W83099  24.766  31.344  25.342 -0.1188  0.1390  0.0104
40109W        W83100  32.289  31.126   3.068  0.0721 -0.1350 -0.4633
40110W        W83101  17.178  20.447   7.685  0.0234  0.0645  0.0611
40111W        W83102   3.482   6.081   7.134  0.0057  0.2801  0.1849
40112W        W83103  23.836   7.461  26.627 -0.0182  0.0511 -0.3786
40113W        W83104  31.859   9.484   1.890  0.0254 -0.0646 -0.2939
40114W        W83105  23.307  14.560   6.615 -0.2292 -0.0556  0.2822
40115W        W83106  23.587  21.341  27.402 -0.1215 -0.2790  0.3275
40116W        W83107  30.763  16.136   2.597 -0.1169  0.0260  0.0758
40117W        W83108  13.673  32.472   9.004 -0.1017 -0.0893  0.0079
40118W        W83109   9.417  22.010  28.177 -0.0461  0.0096  0.1766
40119W        W83110  30.970  10.829   4.528  0.1779 -0.0972  0.1389
40120W        W83111  20.571   7.191   7.954 -0.1160  0.0330  0.0743
40121W        W83112   7.795  34.694   6.508  0.0170 -0.0533 -0.1200
40122W        W83113   0.877  34.515   8.754 -0.2687 -0.3311  0.1019
40123W        W83114  27.575  21.157  28.067  0.0420 -0.1871  0.1043
40124W        W83115   9.872  33.446   3.805  0.0202  0.2811 -0.2405
40125W        W83116  29.651   2.313  27.445  0.1712  0.1360  0.0184
40126W        W83117  28.395  32.490   7.019 -0.0869  0.0067  0.3264
40127W        W83118   9.098  29.323   0.763 -0.1376  0.1273 -0.1993
40128W        W83119   8.768  18.689   9.906 -0.0088 -0.0799 -0.1092
40129W        W83120  34.007   3.413   1.236 -0.4094 -0.1579 -0.0798
40130W        W83121  24.144  17.561   6.871 -0.3908 -0.3526 -0.0142
40131W        W83122  30.106  19.112  18.635  0.2807  0.1317  0.3868
40132W        W83123  30.934  12.005   2.875 -0.0412 -0.2780  0.0688
40133W        W83124   1.562  27.966  16.352  0.1922 -0.3084  0.1008
40134W        W83125  29.730  26.256   6.882  0.2848  0.1760 -0.0828
40135W        W83126  29.513   2.037   1.135  0.0275 -0.0612 -0.1316
40136W        W83127  15.765  34.105  21.274  0.2631  0.1150 -0.2461
40137W        W83128  34.562  31.914   7.189 -0.4513 -0.2057  0.0038
40138W        W83129  25.430  15.034   5.781 -0.1016 -0.0253 -0.2458
40139W        W83130  21.243  34.589   8.876  0.3726 -0.1918  0.0883
40140W        W83131   5.148   6.030  15.209  0.0638 -0.1312 -0.1580
40141W        W83132   0.892  28.124   7.912 -0.0172 -0.1144 -0.1276
40142W        W83133  23.818  26.925  23.844  0.0183  0.2330  0.2405
40143W        W83134  24.484  23.794   1.594 -0.3574 -0.1722  0.0544
40144W        W83135  13.923  29.402   7.437 -0.0799 -0.0016 -0.0205
40145W        W83136   2.955  26.213   4.428 -0.0069  0.0459  0.1777
40146W        W83137   3.384   6.065  23.779  0.1387 -0.1179  0.1792
40147W        W83138  16.960  31.107   1.866 -0.0830 -0.0625 -0.0786
40148W        W83139  27.664  34.775   7.426 -0.0319  0.0387  0.2526
40149W        W83140  20.872  26.494  29.091 -0.2798  0.0249  0.0464
40150W        W83141  16.228  30.780  18.841  0.1486  0.1460 -0.0240
40151W        W83142  10.632   7.679  29.156  0.0347  0.2378  0.0830
40152W        W83143  19.782  27.022   8.538 -0.1537 -0.1695  0.1252
40153W        W83144  23.395  33.509   8.513  0.1546 -0.0366  0.1505
40154W        W83145  20.876   6.572   8.285  0.3121  0.1682 -0.3439
40155W        W83146  31.286  32.388   4.903  0.1469  0.0776 -0.0742
40156W        W83147   4.767  20.691  10.237 -0.3567 -0.0111 -0.0038
40157W        W83148  13.985  15.898  21.152 -0.1839 -0.1916  0.1215
40158W        W83149  31.893   9.479   8.745 -0.0048 -0.0355  0.1810
40159W        W83150  28.217   7.135   6.177  0.1540 -0.1235 -0.3500
40160W        W83151  32.682  30.208   8.246 -0.1758  0.1838 -0.0937
40161W        W83152  24.383  27.163   3.545  0.0158 -0.0540 -0.0420
40162W        W83153  23.613  31.604   4.349 -0.0512 -0.3256 -0.4067
40163W        W83154   3.652   8.019   5.560 -0.2054 -0.2231 -0.0038
40164W        W83155  28.116  16.478   7.943 -0.1408 -0.0855 -0.1493
40165W        W83156  29.244  20.450   5.304 -0.1215 -0.1043 -0.0694
40166W        W83157  22.268   8.974   7.926 -0.0875 -0.2244 -0.2511
40167W        W83158  25.241  26.714   3.977  0.1184  0.0068  0.1660
40168W        W83159   0.178  31.206  10.206 -0.0366  0.0073  0.1678
40169W        W83160  20.886  24.769  28.940 -0.0309  0.0747 -0.3842
40170W        W83161   1.101  31.473   9.770 -0.1156  0.0632  0.2473
40171W        W83162  27.114  10.407   8.617 -0.2028  0.2135  0.1998
40172W        W83163  32.593   5.732   7.710 -0.0155  0.1216  0.1683
40173W        W83164  30.340  25.972  27.958 -0.5036 -0.2425 -0.0760
40174W        W83165  29.939   7.919   6.205  0.1288  0.0889  0.0779
40175W        W83166  31.572  24.079   0.515  0.2444 -0.3320 -0.3388
40176W        W83167  28.745   5.927   3.527  0.3099  0.1551 -0.2378
40177W        W83168  31.108  18.456  29.237 -0.1276  0.0039  0.1505
40178W        W83169  27.658   2.995  24.696 -0.1316  0.1060 -0.4976
40179W        W83170  22.913  18.090   2.633  0.0110 -0.2616  0.1828
40180W        W83171  18.900   1.540   2.449  0.0509  0.0058  0.0275
40181W        W83172  27.000  29.233  27.208 -0.0296  0.0567  0.2355
40182W        W83173  16.606  24.105  23.174  0.1469 -0.3295 -0.0540
40183W        W83174  18.399  33.437   6.734 -0.1106 -0.0305 -0.0313
40184W        W83175  13.531  26.642  10.008 -0.1083 -0.0891 -0.0794
40185W        W83176   1.172   0.664   6.312  0.3477  0.1448 -0.1742
40186W        W83177  11.599   5.138   9.997 -0.1540  0.0795 -0.1886
40187W        W83178  25.765  11.157   5.226 -0.0990  0.1999 -0.2534
40188W        W83179   1.526  19.622   2.140 -0.1318 -0.0281  0.1390
40189W        W83180  28.924  32.891   2.957  0.0178 -0.1846  0.4209
40190W        W83181  33.173  30.638   4.725 -0.2144  0.0804  0.1093
40191W        W83182   6.462   6.457  17.579 -0.2738  0.2111  0.1121
40192W        W83183  22.720   2.015  18.344  0.2863  0.4433 -0.2761
40193W        W83184  25.728  25.488   5.782 -0.1336  0.3006 -0.1369
40194W        W83185  18.843  27.515   9.189  0.3087  0.1461  0.1990
40195W        W83186  29.840   3.801   9.698 -0.1665  0.0942  0.1736
40196W        W83187  33.065  33.402   4.265 -0.0836 -0.0638 -0.0986
40197W        W83188   3.814   0.106   9.665 -0.1662 -0.1137  0.1978
40198W        W83189  32.630   5.215   3.198 -0.0327  0.0614  0.0865
40199W        W83190  20.340  30.684   6.400 -0.3554  0.0510  0.0840
40200W        W83191  32.757  15.586  11.209 -0.3529 -0.2029  0.3483
40201W        W83192   0.640  34.078  23.607  0.1603  0.1947  0.0218
40202W        W83193  22.235  25.954   3.275 -0.5353  0.1257  0.0370
40203W        W83194  23.635  26.765   8.167 -0.1184  0.0424 -0.1624
40204W        W83195  32.473  27.122   0.178  0.1917 -0.0418 -0.2790
40205W        W83196  23.868   2.807  24.916 -0.0779 -0.0304  0.2096
40206W        W83197  17.795   0.712  27.346  0.2182 -0.1084 -0.1437
40207W        W83198   4.448  30.091   4.010 -0.1787  0.3185  0.1560
40208W        W83199   9.538  25.542  27.834  0.4247  0.1392  0.3030
40209W        W83200  23.869  23.982   7.171  0.2899 -0.0568  0.0330
40210W        W83201   0.016  13.847   9.177  0.0178 -0.0523  0.1398
40211W        W83202  27.528  29.676   2.215 -0.0986 -0.2460  0.0438
40212W        W83203  32.293   6.730   0.489 -0.1445 -0.0637 -0.3239
40213W        W83204  18.841  14.433  22.662  0.2048  0.0103  0.0577
40214W        W83205  32.969  28.064  27.190 -0.0370 -0.1780 -0.3943
40215W        W83206  27.337  20.123  29.110  0.3653  0.1089 -0.1761
40216W        W83207  20.237  33.019   4.424  0.0806  0.1155  0.0875
40217W        W83208  22.889   3.540   4.754 -0.1917 -0.1112 -0.2167
40218W        W83209  28.795   2.301   1.870  0.0188  0.0548  0.3520
40219W        W83210   2.730   1.958   4.878 -0.0386 -0.1343  0.0049
40220W        W83211   8.938  28.638   9.549  0.0858  0.2512  0.1197
40221W        W83212  10.087  25.118   2.003 -0.1972  0.1827  0.0582
40222W        W83213  12.212  33.175  22.473  0.0397 -0.0608 -0.1140
40223W        W83214  16.281  24.182  28.744 -0.0023 -0.1267  0.1838
40224W        W83215  31.689   0.667   2.596 -0.0691 -0.0339  0.3094
40225W        W83216  12.136  29.154   5.505 -0.0617 -0.3763 -0.1695
40226W        W83217  28.141  34.096   2.642 -0.2791  0.0158  0.3181
40227W        W83218  33.556   9.086   7.117 -0.5411 -0.2552  0.1849
40228W        W83219  28.173  15.717   1.726  0.3319 -0.1157 -0.0001
40229W        W83220   4.073  32.744  18.569  0.2685  0.2569 -0.0288
40230W        W83221  12.131  11.390  28.880  0.2073 -0.0011 -0.0933
40231W        W83222   1.462  13.083  28.756  0.1075  0.1326 -0.2526
40232W        W83223  32.154  32.738  20.018 -0.1697 -0.1773  0.2183
40233W        W83224  19.360   0.378  22.973  0.0510 -0.0588  0.0888
40234W        W83225  23.627  31.775  26.709 -0.0435  0.0869 -0.0772
40235W        W83226   1.813  24.151   3.817 -0.0112 -0.2733  0.1544
40236W        W83227  23.348   3.906   3.019 -0.1597 -0.0496 -0.0798
40237W        W83228  24.707  24.238   2.992 -0.0898 -0.0342 -0.3086
40238W        W83229   0.042   8.732  25.177 -0.2408  0.0564  0.1853
40239W        W83230  19.012  27.511   6.001  0.0117  0.0402  0.1014
40240W        W83231   5.479  11.985   8.916  0.2195  0.1783  0.0681
40241W        W83232  19.215  29.995  25.972  0.6036 -0.1378  0.0277
40242W        W83233  32.096  34.643   1.006 -0.2029  0.3002 -0.0572
40243W        W83234   5.015  13.084   8.240 -0.1406 -0.0153  0.0657
40244W        W83235  19.259   0.931   7.432  0.1270  0.1143  0.2250
40245W        W83236  25.389  25.398  26.360 -0.2207  0.0893  0.1536
40246W        W83237  23.226   2.135   2.022  0.1909  0.0054  0.0307
40247W        W83238   2.640  30.821   3.501  0.3810  0.2285 -0.0961
40248W        W83239   7.464  30.258   1.518 -0.0295  0.0984  0.0005
40249W        W83240  17.403   9.535   5.973  0.1996 -0.0494  0.1503
40250W        W83241  28.888   0.194   5.614 -0.0402 -0.2306  0.1734
40251W        W83242  32.260  33.262  13.970 -0.1068  0.3342 -0.3160
40252W        W83243  15.418  23.975  25.968  0.1852 -0.0346 -0.0036
40253W        W83244  30.131  19.129   5.055  0.1247  0.1385  0.0278
40254W        W83245  17.507  22.860   6.195  0.0783  0.0404 -0.1899
40255W        W83246   1.464   5.706   4.235  0.0968  0.2031  0.0940
40256W        W83247  12.542  12.829  27.289 -0.0772  0.2737  0.0266
40257W        W83248  34.731  19.849   2.132  0.3055 -0.2172 -0.1367
40258W        W83249   4.402  33.900  25.406  0.2156 -0.3462  0.1618
40259W        W83250  29.644  27.706   1.573  0.2591  0.0101 -0.0836
40260W        W83251  15.486  17.735  27.834  0.0698  0.1080  0.2484
40261W        W83252   8.232  11.981   5.085  0.4021 -0.0009 -0.1520
40262W        W83253  27.083  23.262   7.664 -0.0381  0.3087  0.4127
40263W        W83254  28.455  15.732   8.640 -0.0529  0.0697 -0.1775
40264W        W83255  15.493  27.066  26.324 -0.0446 -0.2803  0.2671
40265W        W83256   6.931  21.937   9.779  0.0829  0.0920 -0.1263
40266W        W83257  29.477   2.315   4.534 -0.1634  0.2264  0.0628
40267W        W83258   6.493  24.766  20.160  0.0989  0.1188  0.0706
40268W        W83259  23.431  29.802   7.022 -0.0417  0.0579  0.1841
40269W        W83260  30.739  16.040   3.438  0.1825 -0.2868 -0.4928
40270W        W83261  11.601  10.965  25.791  0.0440 -0.1241 -0.1114
40271W        W83262  28.617  15.908   0.084  0.1257  0.2791 -0.0426
40272W        W83263   6.654   3.863   5.773 -0.2610 -0.0851  0.0162
40273W        W83264  17.668  21.745  15.877 -0.1939 -0.4515 -0.2548
40274W        W83265  26.277  33.924  19.263 -0.2973  0.1909  0.2043
40275W        W83266  30.155   7.327  24.695 -0.0503  0.0045  0.0389
40276W        W83267  20.009   6.955   2.447 -0.0147  0.0774 -0.1305
40277W        W83268   0.020   3.272   5.429 -0.0336 -0.0631 -0.1713
40278W        W83269  29.969  14.134  10.302 -0.1139 -0.0712  0.0399
40279W        W83270   3.382  10.981  28.330 -0.1939  0.0066 -0.1746
40280W        W83271  24.874  23.394   1.857  0.3127 -0.4353  0.0935
40281W        W83272  32.721  20.555  27.451 -0.1402 -0.1417  0.0673
40282W        W83273   8.137   2.403   2.683 -0.0332  0.0456 -0.2941
40283W        W83274   5.026  19.436   5.462  0.0044  0.1779  0.0858
40284W        W83275   1.752   6.688   6.800  0.0307  0.2855 -0.0640
40285W        W83276  14.426   0.441  23.709  0.2353 -0.0597 -0.1567
40286W        W83277  34.192  29.738   7.694 -0.2670 -0.3264  0.2474
40287W        W83278   3.361   9.053  27.264  0.0361  0.2010 -0.2727
40288W        W83279  28.977   8.716  28.796 -0.1701  0.2692 -0.3609
40289W        W83280   9.560  29.186  20.298  0.1863  0.1753 -0.1699
40290W        W83281  24.866  15.053  24.696  0.1451 -0.1496 -0.3439
40291W        W83282  24.912  29.965  28.889 -0.2738  0.0670 -0.2935
40292W        W83283  22.285  14.452  28.249  0.1116  0.1524  0.0749
40293W        W83284  31.033   4.060  25.449  0.4995 -0.2495  0.0661
40294W        W83285  21.147  28.401  24.199 -0.2910 -0.0399  0.0262
40295W        W83286   1.749   8.993   6.953 -0.1316 -0.2953  0.0558
40296W        W83287  15.166  26.508   8.347  0.0899 -0.0911  0.0988
40297W        W83288   1.398  25.689   8.113 -0.1306  0.0372 -0.1093
40298W        W83289  19.500  13.618   3.855 -0.0150  0.0304 -0.0706
40299W        W83290  33.867   0.979  25.579 -0.2809 -0.1505 -0.1450
40300W        W83291   6.465  29.565  15.975 -0.0451  0.2360  0.2883
40301W        W83292  20.948  10.037   9.813  0.0279 -0.1118  0.1301
40302W        W83293  14.568  30.956   3.951  0.0846  0.0804 -0.2986
40303W        W83294   1.463   4.716   2.781 -0.1719  0.0342 -0.1319
40304W        W83295  31.372  13.029   1.754  0.1747  0.0268  0.0492
40305W        W83296  16.933  18.164   3.908 -0.0219  0.2648 -0.2542
40306W        W83297   4.628   6.159  17.887  0.2413 -0.1009  0.1142
40307W        W83298  31.940  20.414   8.595 -0.0876 -0.0606  0.1145
40308W        W83299  18.697   7.693   7.842 -0.2381 -0.1875  0.0076
40309W        W83300  27.043  16.174   9.166 -0.0969  0.3267  0.3158
40310W        W83301  31.313  33.849  23.827 -0.0254  0.4935 -0.0281
40311W        W83302  24.594  21.490  19.987  0.0009  0.1916  0.2236
40312W        W83303   4.855  31.564  23.125  0.1819 -0.2363 -0.2216
40313W        W83304   2.586  11.148  10.456 -0.5020  0.3238 -0.2104
40314W        W83305  22.146   0.323  18.198 -0.1490 -0.0310  0.1062
40315W        W83306   4.973  17.202   1.980 -0.3591 -0.0063 -0.0630
40316W        W83307  22.320  31.123   1.225 -0.2883 -0.1225 -0.1150
40317W        W83308   2.988  27.744  18.563 -0.1151 -0.2004 -0.0166
40318W        W83309  29.053  29.069   5.400  0.1507  0.2006 -0.0278
40319W        W83310   8.209  24.559  21.334 -0.0865 -0.0204 -0.1037
40320W        W83311  27.973  29.090  22.219  0.1133  0.1245 -0.1434
40321W        W83312   7.855  33.235   5.481  0.2281 -0.1523  0.0453
40322W        W83313   1.772   4.859  10.304  0.1274 -0.0350  0.0939
40323W        W83314   9.696   0.888  29.105 -0.1597  0.0128 -0.0832
40324W        W83315  15.290   9.709  25.951 -0.0076  0.0044  0.2567
40325W        W83316  31.264  32.717  16.711 -0.0055  0.1073 -0.0618
40326W        W83317  28.816   9.093   2.315  0.0037 -0.0031 -0.2417
40327W        W83318  17.199   4.114  19.351  0.0402  0.1304  0.0017
40328W        W83319   1.514  19.839  22.976 -0.0618  0.1280 -0.0570
40329W        W83320  23.137  31.854   8.051 -0.0194  0.0284 -0.0058
40330W        W83321   4.705  13.954   3.598 -0.2613 -0.1702 -0.2035
40331W        W83322  28.784  28.096   2.380  0.2954  0.2287  0.0796
40332W        W83323  19.596   7.253   2.452  0.1159 -0.0770  0.1289
40333W        W83324  28.429  11.180   9.410 -0.2604 -0.0475 -0.0993
40334W        W83325  29.215   5.264   0.934 -0.1471 -0.0498  0.0515
40335W        W83326  10.668  11.869   8.711  0.2884 -0.0125  0.0764
40336W        W83327  16.775   8.450  18.913  0.2745 -0.3340 -0.0414
40337W        W83328  14.355   1.903  28.476 -0.2375  0.1729 -0.1295
40338W        W83329   4.924  26.721   3.851  0.1437 -0.2381 -0.0226
40339W        W83330  25.977  31.941  17.137  0.2488 -0.0013  0.0823
40340W        W83331  26.764  11.379   4.050 -0.2985  0.4911 -0.1787
40341W        W83332  18.011  31.129  18.216 -0.2906  0.0748 -0.0343
40342W        W83333  24.986   6.436  29.050  0.1533  0.1122  0.0964
40343W        W83334  30.190   2.998  25.912 -0.0453  0.1245  0.0496
40344W        W83335   2.575  27.550  16.875  0.1423 -0.1817  0.0496
40345W        W83336   0.932  29.337   8.305 -0.2298 -0.1500 -0.0445
40346W        W83337  18.138   7.974  26.051  0.0004 -0.2112  0.2083
40347W        W83338   7.132  27.425  28.882  0.0559 -0.1033 -0.3027
40348W        W83339  34.765   4.063  28.263 -0.2413  0.0432 -0.3011
40349W        W83340  34.043  33.749  25.034  0.0865 -0.0386  0.1003
40350W        W83341  29.573   8.717  17.626 -0.2342 -0.2199  0.2567
40351W        W83342  20.089  27.916  24.774  0.3459 -0.2222  0.4165
40352W        W83343  33.991  28.889   4.010 -0.1662  0.0271 -0.1174
40353W        W83344   5.903  21.804   1.583 -0.2692  0.4790  0.0045
40354W        W83345  12.597  24.433   1.825  0.0438  0.3117  0.0982
40355W        W83346  16.886  33.085  20.676 -0.2322 -0.2268 -0.0163
40356W        W83347   2.163   9.033   5.628  0.0297 -0.2298 -0.0321
40357W        W83348  12.933  10.404   6.549  0.1577 -0.0272  0.1347
40358W        W83349   4.694  32.125  23.093 -0.0086 -0.1392  0.1691
40359W        W83350  27.123  10.610  21.861  0.3075 -0.1673  0.0367
40360W        W83351  17.404  30.589   2.863 -0.1208 -0.1606 -0.1657
40361W        W83352  28.966   1.325  26.984  0.1810  0.1814  0.1163
40362W        W83353  15.005  31.998   8.535  0.0040  0.1816 -0.2481
40363W        W83354  14.472   1.564   8.795 -0.2012  0.2523 -0.0591
40364W        W83355  29.744   4.573   2.984  0.0094 -0.4221  0.2004
40365W        W83356  32.231   1.162   8.464  0.0465 -0.0183  0.0034
40366W        W83357  32.359  16.748  29.061  0.0196 -0.0974 -0.2785
40367W        W83358  29.351  23.364  17.982  0.0774  0.2527  0.0671
40368W        W83359  16.413   0.923   7.303 -0.0237  0.1264  0.3354
40369W        W83360  18.078   8.196   6.077 -0.0688  0.0383  0.1074
40370W        W83361  34.372  34.285   0.276  0.0985 -0.0877 -0.1260
40371W        W83362  33.351  15.245  25.942 -0.0222  0.1451  0.0643
40372W        W83363  20.837  32.345  17.638 -0.1777 -0.2056  0.0154
40373W        W83364   7.411  19.992  25.861  0.0207 -0.0187 -0.1941
40374W        W83365  29.998   3.945  29.163  0.1809 -0.2432 -0.0447
40375W        W83366  26.315  31.645   2.219  0.1056 -0.0503  0.0266
40376W        W83367  19.554   2.001  26.572  0.3339  0.1716 -0.0867
40377W        W83368  10.702  28.679   0.926  0.1077  0.0256 -0.0842
40378W        W83369   2.925   9.321  27.439 -0.1595 -0.3778 -0.3693
40379W        W83370   6.349  25.967  13.718  0.0314  0.2464  0.2105
40380W        W83371   2.461  11.675  27.888  0.1426 -0.0548  0.3086
40381W        W83372  28.656  25.564   3.887 -0.0530  0.1167 -0.1150
40382W        W83373  23.558  28.669  25.830 -0.0220  0.0543 -0.0620
40383W        W83374  29.354   9.365  24.121  0.2807  0.2629 -0.4041
40384W        W83375  29.013   9.890  23.812 -0.0382  0.1724  0.0446
40385W        W83376  31.132  15.412  15.739  0.2212  0.1657  0.1381
40386W        W83377   9.538  13.747   2.842 -0.0623  0.4784  0.0552
40387W        W83378  29.881   4.243   1.353 -0.1188 -0.2310 -0.0080
40388W        W83379  10.994   8.860  26.184  0.1660  0.2091  0.0722
40389W        W83380  27.379   0.665   3.075  0.0973 -0.1319 -0.1802
40390W        W83381  16.301   5.672   1.819 -0.1209  0.0333  0.2502
40391W        W83382   0.343   3.242   2.884  0.2854 -0.3324 -0.1578
40392W        W83383  26.382  21.386   2.051  0.4099 -0.0930 -0.2273
40393W        W83384  12.734   5.167   8.984 -0.2252  0.0785 -0.2813
40394W        W83385  33.594  30.972  24.032  0.2737  0.0681  0.0708
40395W        W83386  34.464  32.220   5.802  0.1226  0.0366 -0.0765
40396W        W83387   4.175  24.818   2.627  0.2287 -0.1466 -0.0668
40397W        W83388   4.060  12.123  24.218  0.0531 -0.0433  0.3821
40398W        W83389   5.960  31.540   2.717 -0.0164  0.0932  0.1403
40399W        W83390  28.469  31.896   4.333 -0.0354  0.0473  0.3257
40400W        W83391  32.729   8.036   9.325  0.0008 -0.1027  0.0407
40401W        W83392  32.854  21.074   0.650  0.2456  0.4236  0.0496
40402W        W83393  28.518  32.478  24.872  0.0588 -0.1170 -0.1835
40403W        W83394   1.366  20.004  11.468  0.2075  0.3160  0.3905
40404W        W83395  16.606   3.717   2.829 -0.0622 -0.1153  0.0758
40405W        W83396  34.245   0.842  28.024 -0.0757  0.0515  0.4466
40406W        W83397  31.204  32.948   5.529  0.1091  0.1010  0.0019
40407W        W83398  30.724   6.883   5.803  0.0514 -0.0413  0.0082
40408W        W83399  12.580   7.217   2.804 -0.2210 -0.1525 -0.2559
40409W        W83400  24.885  12.967   6.101 -0.0701 -0.1082  0.0279
40410W        W83401  31.464   0.583   3.110 -0.2325 -0.0284  0.2544
40411W        W83402  33.372   8.240   5.232  0.1560 -0.0571  0.0120
40412W        W83403  26.710   6.812   6.132 -0.0459 -0.0367 -0.0730
40413W        W83404  19.752   0.471   1.422  0.0990 -0.1341  0.3609
40414W        W83405  13.732  11.761   3.303  0.0867  0.4183  0.0269
40415W        W83406   7.263   8.032   9.693  0.0343 -0.1018  0.1326
40416W        W83407  29.284  19.228   2.522 -0.2445  0.2440 -0.0546
40417W        W83408   7.042   3.740   2.472  0.0481 -0.4035 -0.2291
40418W        W83409  14.686  32.714  24.081 -0.5033 -0.0323 -0.0717
40419W        W83410  31.167   2.188   8.597 -0.1118  0.1914  0.2802
40420W        W83411  23.431  15.384  20.917 -0.1636 -0.0945 -0.2081
40421W        W83412  22.623  20.600   6.098 -0.2424 -0.0553  0.2127
40422W        W83413  27.407  29.353  24.364 -0.0102  0.0442  0.1052
40423W        W83414   8.756  34.740  25.441  0.0275  0.1525 -0.2589
40424W        W83415  31.331  22.723   7.844 -0.2259  0.5116 -0.0971
40425W        W83416  29.196  10.992   3.076  0.1021 -0.2978 -0.1051
40426W        W83417  19.793   5.930   3.023 -0.4006 -0.2778  0.1884
40427W        W83418  12.415  10.975   8.133  0.2891 -0.2461  0.0333
40428W        W83419   3.220  33.416   6.886  0.2364 -0.0988 -0.0467
40429W        W83420  26.135   1.203   6.667 -0.4931 -0.0923 -0.1332
40430W        W83421  27.116  15.756  23.536  0.1399  0.1215  0.0632
40431W        W83422  11.766  10.793  14.961  0.2261  0.1236 -0.1393
40432W        W83423  20.771  20.103  19.787 -0.4209 -0.0818  0.0608
40433W        W83424  28.603  18.471  23.367 -0.1969 -0.3068  0.2584
40434W        W83425  22.783  27.471   2.265  0.2673  0.1458  0.1918
40435W        W83426  21.738  29.506  21.728 -0.0922  0.2638  0.0247
40436W        W83427   2.039   9.485   9.715 -0.1770  0.2546 -0.0178
40437W        W83428  17.306  11.381  29.074 -0.0325  0.0923 -0.0293
40438W        W83429   2.958  22.184  18.445  0.0843  0.2031 -0.1541
40439W        W83430  24.274   6.144  27.400  0.0134  0.1802  0.0871
40440W        W83431  21.626  17.113   7.540  0.2776 -0.3815 -0.1968
40441W        W83432  10.600  34.754  28.575 -0.0594 -0.1188  0.0006
40442W        W83433  26.688  11.546   2.663  0.1340 -0.2178 -0.1582
40443W        W83434   9.986   7.169   6.322 -0.1859  0.3173  0.2411
40444W        W83435   6.893  33.833   4.544  0.2165  0.2301  0.3520
40445W        W83436  22.522  29.507  17.875 -0.0679 -0.3111 -0.3511
40446W        W83437   8.553   0.375  22.552  0.0154  0.0327 -0.2276
40447W        W83438  19.827  33.484  22.547  0.4595  0.0690 -0.3802
40448W        W83439  28.537  20.684  27.249 -0.0742  0.3885 -0.1873
40449W        W83440  21.264  11.742  23.811  0.1123  0.1517 -0.0459
40450W        W83441   8.298   9.975   9.937 -0.2225  0.0492  0.0597
40451W        W83442  16.555  13.038   1.818 -0.0765 -0.1015 -0.2239
40452W        W83443  27.736  19.864   3.395 -0.2021  0.0179 -0.3286
40453W        W83444   2.921  33.021   5.782 -0.0625  0.0530 -0.0392
40454W        W83445  27.851  33.267   4.522 -0.0373 -0.0519 -0.0086
40455W        W83446   6.146  16.584   9.754 -0.2976  0.1485 -0.1787
40456W        W83447   3.407   1.477  20.221 -0.0481  0.1842 -0.3119
40457W        W83448  25.428   5.345   1.164 -0.0040 -0.1714 -0.3025
40458W        W83449  25.723  11.652   8.199  0.0386 -0.0139 -0.1155
40459W        W83450  22.447   5.439   0.121  0.0046 -0.3120 -0.0414
40460W        W83451  22.321  20.620  14.366  0.1318 -0.2939  0.3880
40461W        W83452  11.437  22.982   5.417  0.0231 -0.1131 -0.1337
40462W        W83453  20.137  12.418   9.974 -0.0483  0.1603 -0.1669
40463W        W83454  21.341  31.489  27.512  0.2259 -0.1072 -0.2142
40464W        W83455  30.087   1.610   4.299 -0.1498 -0.1684  0.2937
40465W        W83456   0.218   7.385  23.976 -0.0268 -0.1159  0.1457
40466W        W83457  17.264  21.055  28.751 -0.0117  0.2614 -0.0322
40467W        W83458  31.602  20.245   8.934 -0.0906 -0.1468  0.2978
40468W        W83459   5.493   1.891   7.943  0.0966 -0.0448 -0.2180
40469W        W83460   4.487   7.044   2.695  0.2475  0.1246 -0.1382
40470W        W83461  16.751   0.135  23.824  0.0423 -0.2527  0.0664
40471W        W83462  24.752   1.358  19.445 -0.2586  0.0893 -0.0289
40472W        W83463  25.262  20.890   3.812 -0.0801  0.1875 -0.0333
40473W        W83464   0.690  11.353  27.261  0.2859 -0.2185  0.1517
40474W        W83465   3.210  21.354  23.621 -0.2018  0.1618 -0.3717
40475W        W83466  18.621  28.251  25.842  0.1352  0.0189 -0.0038
40476W        W83467  26.249  30.681  13.506 -0.0896  0.0886 -0.1800
40477W        W83468  34.210  10.818  21.912  0.0816 -0.4582 -0.0643
40478W        W83469   0.298   5.682   5.196  0.1133  0.0474  0.0665
40479W        W83470  21.604  16.315  19.601  0.1070 -0.0843 -0.0695
40480W        W83471  33.039  32.411   6.025  0.1289  0.0973 -0.0833
40481W        W83472  34.601   6.428  26.454 -0.2991 -0.0328 -0.0992
40482W        W83473  33.067   2.168   0.525  0.0226  0.1753 -0.2207
40483W        W83474  31.529  28.829   4.167  0.3692  0.1236  0.0114
40484W        W83475  24.526  34.411   1.179 -0.2942 -0.2811  0.1183
40485W        W83476  34.174  21.428   9.848  0.0187  0.4409 -0.2648
40486W        W83477  24.817  30.797   8.648  0.1614  0.0164  0.0360
40487W        W83478   1.080  10.601  22.419  0.3265  0.0440 -0.1102
40488W        W83479  34.033   9.981  20.829 -0.0979 -0.0336 -0.3821
40489W        W83480  15.424   0.200  10.696  0.1012  0.2376  0.1420
40490W        W83481  29.580  13.940  10.028 -0.1185  0.0779  0.0596
40491W        W83482  11.484  20.527  18.832  0.3212  0.1238 -0.3251
40492W        W83483  23.908  33.714   1.250 -0.3164 -0.5238  0.4498
40493W        W83484  23.278  32.114   5.151  0.0732  0.1753 -0.0333
40494W        W83485  20.522  33.091   1.325 -0.0217 -0.0673 -0.3396
40495W        W83486   3.354   2.353  26.687 -0.3160 -0.2530  0.3225
40496W        W83487  28.015   7.426  29.005 -0.0060  0.1139 -0.1040
40497W        W83488  34.275  20.236   3.023 -0.0458 -0.2234  0.0992
40498W        W83489  33.106  29.891   4.975  0.0645  0.0460 -0.1139
40499W        W83490  29.801   8.239   7.579 -0.0067  0.1921  0.0851
40500W        W83491   2.671   2.339  19.987 -0.0630 -0.2516 -0.2445
40501W        W83492  32.712   1.620  15.468  0.0515  0.2162 -0.0624
40502W        W83493   5.352  30.369   3.840  0.0813 -0.2125  0.1232
40503W        W83494  26.311   4.542   5.143 -0.1719  0.2912 -0.0143
40504W        W83495  12.387  31.058   1.797  0.2035 -0.1699 -0.0436
40505W        W83496  28.578   9.284   0.661 -0.0691 -0.3631  0.2687
40506W        W83497  21.569  30.841   8.067 -0.2761  0.0530  0.2829
40507W        W83498  31.113   9.461  20.866 -0.2038 -0.2246  0.1257
40508W        W83499   0.875  22.348  24.790  0.1386 -0.1422  0.1142
40509W        W83500  19.016  10.080  28.318 -0.0876  0.0206 -0.1551
40510W        W83501   3.398   4.443  28.517 -0.1166  0.0267 -0.1341
40511W        W83502  29.823  34.616   9.119  0.3705 -0.1704  0.3974
40512W        W83503  27.951   6.031   0.685  0.0962  0.2771 -0.2086
40513W        W83504  33.557  18.793   6.556  0.1738 -0.0590  0.1895
40514W        W83505  22.656  25.035  26.977  0.0823 -0.0155 -0.0717
40515W        W83506  22.620  24.214   4.450  0.0082  0.1109  0.1280
40516W        W83507   5.655   6.084  29.177  0.4308  0.1395 -0.0785
40517W        W83508  10.929   8.498  27.215  0.1509 -0.1312 -0.2060
40518W        W83509  31.317   8.270   8.539  0.0739  0.0035 -0.1424
40519W        W83510  27.008  34.643  26.433  0.0450  0.1518  0.2106
40520W        W83511  30.278   3.560  27.717  0.0502 -0.1075  0.1038
40521W        W83512  17.771   8.910  25.514 -0.3531  0.1575 -0.0738
40522W        W83513  16.914   9.185  27.566 -0.2642 -0.1408  0.1430
40523W        W83514  16.062  22.510   2.332  0.0747 -0.0607 -0.2400
40524W        W83515  13.368  33.283   8.203 -0.3762  0.2654 -0.0383
40525W        W83516  16.057  15.576   2.488 -0.1048  0.3578  0.2489
40526W        W83517  25.098  10.915  16.280 -0.0566 -0.1791  0.0115
40527W        W83518  17.405  10.694   5.543  0.0495 -0.0035 -0.1896
40528W        W83519  14.266   8.347  27.510  0.3368 -0.1600 -0.3068
40529W        W83520   7.235  29.680   5.431 -0.0540 -0.1559 -0.0696
40530W        W83521  25.410  27.612  13.987 -0.0660  0.3727  0.3345
40531W        W83522   8.954  33.367   7.264 -0.0372 -0.2109  0.0318
40532W        W83523  17.179   0.137   8.333  0.0134  0.3155  0.1625
40533W        W83524   0.302   7.170   9.433 -0.0003 -0.2367  0.3027
40534W        W83525  30.925  34.700   5.465  0.1107  0.2536  0.2881
40535W        W83526  32.024   3.833   4.156  0.1282  0.0181  0.0787
40536W        W83527   2.268   3.679   5.151 -0.2374 -0.1299  0.0145
40537W        W83528  29.145   6.550  17.338 -0.1606  0.2335 -0.0687
40538W        W83529  26.588  19.535   0.679  0.0149  0.2968  0.1624
40539W        W83530  16.358   8.667   3.765 -0.1275 -0.0357 -0.0106
40540W        W83531   7.774  13.124   5.592 -0.1881 -0.1620  0.2674
40541W        W83532  28.007  14.397   1.087  0.1463 -0.0695  0.3900
40542W        W83533  23.185   7.143   3.236 -0.0371 -0.0331  0.0286
40543W        W83534  23.273  13.082   3.997  0.0217  0.1999  0.1347
40544W        W83535   3.674   5.744  15.843 -0.2223  0.4220  0.1409
40545W        W83536  24.302  28.768   8.965 -0.3414 -0.3114 -0.5612
40546W        W83537  23.667   4.864   1.526  0.0447 -0.0728 -0.0334
40547W        W83538   6.707  29.275  14.115 -0.0719 -0.1676  0.0180
40548W        W83539  34.379   3.123   4.515  0.1996  0.1272 -0.0329
40549W        W83540  29.155  13.820  26.684  0.1540 -0.0935  0.1676
40550W        W83541  24.675  21.560  28.441 -0.1929 -0.2175  0.0728
40551W        W83542   5.167   3.759   4.948 -0.0323  0.1076 -0.0558
40552W        W83543   0.248  28.142  15.045 -0.0375 -0.0817  0.2015
40553W        W83544   0.270   4.575   6.930  0.0926 -0.2491  0.1464
40554W        W83545  25.414  13.862  23.590 -0.1296 -0.0743  0.0193
40555W        W83546  16.521  26.629   9.654 -0.0416  0.0487 -0.0661
40556W        W83547  31.739   8.706  27.994  0.0895  0.3959  0.1068
40557W        W83548  24.672  12.894  21.422  0.0087 -0.3590 -0.0108
40558W        W83549  21.273  27.262   1.345 -0.1736  0.0637 -0.0034
40559W        W83550  21.801  21.399  24.685 -0.0073 -0.0063  0.3086
40560W        W83551  23.669  31.169  22.593 -0.0382 -0.0886  0.0901
40561W        W83552  15.757   5.203   2.387 -0.0192  0.1309 -0.2827
40562W        W83553   1.889  27.298   0.207  0.2744  0.0666 -0.1593
40563W        W83554  28.678  14.000  26.632  0.2394  0.0612 -0.3229
40564W        W83555  18.063   3.913   4.430 -0.3242  0.2313  0.1339
40565W        W83556  33.088   0.573  25.333 -0.3262  0.0143  0.1504
40566W        W83557  10.599   8.640  26.518  0.0207  0.1690 -0.2117
40567W        W83558  27.969  28.076   1.309  0.1977 -0.0470 -0.0111
40568W        W83559   0.351  33.386   5.140 -0.1717  0.1051 -0.4737
40569W        W83560   5.610  25.242  17.062  0.0687 -0.2387 -0.3651
40570W        W83561   5.156  19.076  28.657 -0.3112  0.0866 -0.1290
40571W        W83562  13.151  34.597  22.369 -0.1213 -0.2336 -0.1383
40572W        W83563   0.601   3.908  28.887 -0.2234  0.0192  0.2042
40573W        W83564   3.971   3.328   6.812  0.0386 -0.2883  0.2959
40574W        W83565  32.164   8.851  29.198 -0.2998  0.1167  0.1624
40575W        W83566  29.207  13.418   8.747 -0.0622 -0.0916  0.0667
40576W        W83567  27.334  33.283   7.044 -0.1666 -0.1197 -0.2592
40577W        W83568  25.291  17.090   9.925 -0.0834  0.0282  0.1300
40578W        W83569  12.132   0.918  25.117 -0.4125 -0.1325  0.0939
40579W        W83570  23.727  12.508   8.461 -0.0801  0.4331 -0.0608
40580W        W83571   4.176   7.122  22.584 -0.2212  0.0014 -0.1612
40581W        W83572  31.228  21.429   8.725  0.1081  0.1566  0.0093
40582W        W83573  17.155  32.934  21.047 -0.0302  0.3110  0.0456
40583W        W83574   0.032   8.450  24.659 -0.0130 -0.0403 -0.1159
40584W        W83575  22.502  17.419  27.251  0.0255 -0.0146 -0.2734
40585W        W83576  29.482  33.248   3.841 -0.0752 -0.3097  0.2652
40586W        W83577  24.952  24.133   5.076 -0.3756  0.0546  0.3199
40587W        W83578   8.375  27.309   0.207 -0.1232  0.0074 -0.1118
40588W        W83579   2.058  17.987  10.437  0.0324 -0.0842 -0.1126
40589W        W83580   3.208  32.132  28.162 -0.0550  0.1349 -0.1873
40590W        W83581  33.506   7.002   5.793  0.1119  0.3359  0.1049
40591W        W83582   7.025  32.606  27.620 -0.0270 -0.1652  0.3106
40592W        W83583  26.760  21.421   3.606 -0.1238 -0.0933  0.2417
40593W        W83584   9.622   0.746   6.731  0.3336  0.0889  0.1074
40594W        W83585  20.128   9.325   8.934  0.0940  0.0395  0.2618
40595W        W83586   7.189  33.308   7.868 -0.1174  0.1802 -0.2699
40596W        W83587   7.090  13.668  23.738  0.0175  0.1842 -0.0124
40597W        W83588  29.485   3.097   8.331 -0.2975  0.1357 -0.3016
40598W        W83589  15.818  33.851   8.079 -0.0855 -0.0468 -0.3550
40599W        W83590   4.840   3.230   0.216 -0.1761 -0.4146 -0.0119
40600W        W83591   9.925  29.915  25.478  0.0543 -0.2509  0.4410
40601W        W83592  32.062   1.542   2.271 -0.0318  0.1335 -0.1753
40602W        W83593   7.963   1.387  21.535  0.3494 -0.0563 -0.1027
40603W        W83594   2.122   1.040   1.243  0.2023 -0.1332  0.1100
40604W        W83595  29.515  32.245   6.413 -0.3491 -0.0381  0.0527
40605W        W83596  27.945   9.648  25.503  0.4476  0.2041 -0.0868
40606W        W83597  17.531  21.198  21.294 -0.1518 -0.0961  0.2682
40607W        W83598  21.488   8.065  17.061  0.1223 -0.0912  0.0335
40608W        W83599  33.334  24.883   2.632 -0.2248  0.1031  0.2462
40609W        W83600  22.615  22.829   1.164 -0.2074 -0.0192 -0.2586
40610W        W83601  19.595   9.027   4.593 -0.0174  0.0472 -0.2566
40611W        W83602  15.628   1.472  10.371  0.2226  0.0174 -0.2591
40612W        W83603  22.818   3.833  29.206 -0.2487 -0.0041 -0.1634
40613W        W83604  28.681   4.283  19.735 -0.0816 -0.0180  0.0083
40614W        W83605  21.006   8.358   5.956  0.1156  0.0137  0.0867
40615W        W83606  22.977  29.427   4.908  0.2740 -0.3419  0.2170
40616W        W83607   6.202  10.921  27.256 -0.0138  0.1423 -0.0743
40617W        W83608  19.638  34.374  18.987  0.1006 -0.2114  0.2414
40618W        W83609   7.597   1.926  18.466  0.2568  0.1294  0.3189
40619W        W83610  21.657  28.280  22.742 -0.1564 -0.1639 -0.0744
40620W        W83611  23.700   7.364   9.405  0.1725  0.2094 -0.3931
40621W        W83612  28.967  29.624  27.838 -0.1522 -0.3197  0.1718
40622W        W83613   5.863  33.393   3.395  0.4416  0.0405 -0.0149
40623W        W83614  33.113   3.133   6.156 -0.0365 -0.2091  0.1470
40624W        W83615  23.732  31.655  28.906 -0.1225  0.1760 -0.2152
40625W        W83616  17.291   6.288   3.708 -0.1446  0.1843 -0.0970
40626W        W83617   0.170  31.803   4.307  0.0749  0.0303 -0.1251
40627W        W83618  25.740  32.939  18.204 -0.0104 -0.0284  0.2290
40628W        W83619  28.415   2.333   0.334  0.4311  0.1860  0.3022
40629W        W83620  12.215  11.932  24.871 -0.1535 -0.2297  0.1412
40630W        W83621  25.139  25.557   7.207 -0.0431  0.0216  0.1732
40631W        W83622   3.804   0.633   9.812  0.0697 -0.0276  0.4703
40632W        W83623  30.350   0.811  18.485 -0.4116 -0.0901 -0.2195
40633W        W83624   5.563  16.871   3.587  0.0302 -0.4335 -0.3163
40634W        W83625  32.144   7.552   9.968 -0.1411  0.1873  0.1081
40635W        W83626   7.561   7.749   5.243 -0.4166  0.4614 -0.1528
40636W        W83627   6.076  15.941   6.570  0.1468 -0.2449  0.3319
40637W        W83628  26.983  25.343  25.718  0.1476  0.1172 -0.2123
40638W        W83629  26.898  33.544  17.338 -0.0897  0.5047 -0.1805
40639W        W83630  31.848   7.184  25.275 -0.2657  0.1027  0.2080
40640W        W83631  25.489   8.768   2.163 -0.0178 -0.0634  0.0683
40641W        W83632   5.816  17.137  25.997 -0.1476  0.1408  0.0292
40642W        W83633   0.120   1.979  17.293  0.1281 -0.2674  0.5140
40643W        W83634   4.001  31.023   1.121 -0.0335 -0.2848  0.0258
40644W        W83635   7.853  31.187   3.091  0.2715 -0.0722 -0.0381
40645W        W83636  13.341   4.232   5.295  0.1863 -0.1478  0.4822
40646W        W83637  25.394   6.582   9.003  0.1226 -0.0028 -0.0575
40647W        W83638  34.105  32.948  20.696  0.0845  0.0498 -0.0737
40648W        W83639  28.252  30.818   0.158  0.0489 -0.4766  0.0131
40649W        W83640  24.144   2.147   1.049  0.0391 -0.0762 -0.0715
40650W        W83641  34.477  30.223   4.452  0.2841 -0.0566  0.1109
40651W        W83642   1.980  33.098   1.150 -0.1648  0.1046  0.0035
40652W        W83643  31.576  21.550   2.685 -0.1579  0.0592 -0.0818
40653W        W83644  31.046  13.953   7.765 -0.4329  0.2358 -0.1740
40654W        W83645  26.037  33.249   6.959 -0.0543  0.3648  0.0698
40655W        W83646  26.808  16.951  18.234  0.0616 -0.1146 -0.0464
40656W        W83647  12.214   1.163  26.251  0.1510  0.6387  0.3198
40657W        W83648  17.010  30.545  27.109  0.0878  0.2121  0.0337
40658W        W83649  14.982  25.002   4.504  0.0902  0.0611  0.0356
40659W        W83650   0.398  33.050  19.989 -0.3891 -0.3643 -0.2253
40660W        W83651  27.000   0.676  24.360  0.0833 -0.0748 -0.1112
40661W        W83652  30.000  30.109   6.070 -0.0383  0.1089  0.1597
40662W        W83653  12.525  10.022  27.391  0.1164 -0.1453 -0.0523
40663W        W83654   1.191  24.651   5.371  0.1558 -0.0200 -0.3796
40664W        W83655  33.357  13.336   6.319  0.1059 -0.0227 -0.3865
40665W        W83656  11.704   6.902   0.651  0.1541  0.2987 -0.0715
40666W        W83657  28.575  34.391  22.474 -0.1301 -0.2102 -0.4627
40667W        W83658  29.345  15.130  26.731 -0.1025  0.0430  0.1701
40668W        W83659  32.100  19.433  18.531  0.0034 -0.1368  0.0348
40669W        W83660  33.922   7.943   7.264  0.2548  0.2013  0.0066
40670W        W83661  20.474   2.323   3.594 -0.0002 -0.1681  0.0039
40671W        W83662  10.575  10.754   3.911 -0.1853 -0.1826  0.1381
40672W        W83663  33.180   7.876  26.501  0.0297  0.1648 -0.0449
40673W        W83664  20.036  21.428   7.678 -0.0334  0.0261  0.1733
40674W        W83665  13.907  28.238  24.633  0.1962  0.4872 -0.1421
40675W        W83666  12.520   2.007   3.657 -0.1376 -0.1690  0.1471
40676W        W83667   2.726  34.206   4.174  0.0988  0.0844 -0.2491
40677W        W83668  31.593  30.171  23.253 -0.0205  0.1038 -0.1633
40678W        W83669  31.597  27.675  28.140 -0.1996 -0.3979  0.0250
40679W        W83670  20.529  16.280   4.778 -0.3211  0.0814 -0.1606
40680W        W83671  28.120  26.133   1.376 -0.3166  0.4620 -0.0389
40681W        W83672   1.373  27.415   3.202  0.1723 -0.3804 -0.1769
40682W        W83673  25.059   0.803   1.147  0.0803  0.0662  0.1079
40683W        W83674  28.553  26.266  28.978 -0.1609 -0.0432 -0.2467
40684W        W83675  17.817  29.690  28.593  0.1560  0.1130  0.0294
40685W        W83676  33.454  15.926  28.963  0.0986 -0.0334 -0.0230
40686W        W83677  15.584   1.447   7.884 -0.1342  0.2866 -0.0934
40687W        W83678   2.197  17.122  18.380 -0.3136  0.0663 -0.0502
40688W        W83679  19.875  29.197   0.885  0.0302 -0.1118  0.1794
40689W        W83680   2.505  20.818  28.774  0.2058 -0.0975 -0.1626
40690W        W83681  34.695  12.836   3.964 -0.2913 -0.0279 -0.1012
40691W        W83682  22.132  20.109  28.214 -0.2060 -0.0900  0.0120
40692W        W83683  29.992   0.880   3.047  0.1071 -0.2885 -0.0633
40693W        W83684  26.088  30.546  27.474 -0.0300  0.2802  0.1329
40694W        W83685  29.199  33.429   4.766 -0.2153 -0.1111  0.3879
40695W        W83686   0.790   8.425  20.835  0.2061 -0.0165 -0.1470
40696W        W83687  23.395  13.013  16.194  0.2883  0.1133 -0.2829
40697W        W83688  24.538   6.976   0.745  0.2454 -0.3826 -0.2187
40698W        W83689  16.555  24.388  24.607 -0.1861  0.1604 -0.0770
40699W        W83690   0.521  22.553   7.525  0.2570  0.1734  0.0743
40700W        W83691  19.088  18.355  27.587 -0.0930  0.0953 -0.1504
40701W        W83692  22.398  15.708   4.759  0.1172 -0.0450 -0.0889
40702W        W83693  26.626   4.344   6.247  0.0126 -0.1897 -0.1219
40703W        W83694  23.645  32.532   8.690 -0.0899  0.2768 -0.0160
40704W        W83695  34.694   4.219   2.184  0.2459 -0.0263  0.3099
40705W        W83696  28.628  10.292   6.664  0.1108 -0.0327 -0.0094
40706W        W83697  30.964  22.895  21.194 -0.1644  0.2220 -0.1235
40707W        W83698   8.286  23.600   2.286  0.0342  0.0516  0.0918
40708W        W83699  32.617  28.769   8.905 -0.0625 -0.2485  0.3351
40709W        W83700  21.614   2.796  24.440  0.1136 -0.0953  0.1371
40710W        W83701  26.391   7.496   6.105 -0.1814  0.2470  0.3755
40711W        W83702  20.419   3.799  22.324 -0.1721  0.0684 -0.0537
40712W        W83703  29.596   9.442   6.102  0.0344 -0.1735  0.0759
40713W        W83704  30.292  34.071   1.907 -0.1392  0.1903 -0.3958
40714W        W83705   7.371   6.753  21.891  0.1114  0.0974 -0.1253
40715W        W83706  30.896   9.945   8.904 -0.1539 -0.0745  0.0041
40716W        W83707  20.525   1.408   7.266 -0.1257  0.0084  0.2030
40717W        W83708   3.879   5.428   2.542  0.0235  0.1778  0.2619
40718W        W83709   1.183  17.234   1.510  0.0232 -0.0563 -0.2130
40719W        W83710  17.109  27.793   8.177 -0.0445  0.1810  0.0386
40720W        W83711  12.616   2.539  26.963  0.0415 -0.3450 -0.0271
40721W        W83712   8.198   5.472   6.464  0.3063 -0.0183  0.1331
40722W        W83713  31.184  28.496  20.057 -0.2623  0.2136 -0.0035
40723W        W83714  24.640   4.754   8.302  0.0621 -0.0316 -0.2694
40724W        W83715  24.671   4.626   5.729  0.1014 -0.1143 -0.1398
40725W        W83716   4.094  17.013  26.471  0.3294 -0.0124  0.0656
40726W        W83717  28.841  26.678  28.162 -0.1694  0.2209 -0.0393
40727W        W83718   2.508   2.822  27.208 -0.5976  0.2247 -0.1416
40728W        W83719   1.136  15.618  27.988  0.1523  0.0663  0.0046
40729W        W83720  15.105  19.255  27.418  0.0040 -0.1390 -0.3762
40730W        W83721   9.417   0.074   6.379 -0.0113  0.0102 -0.1055
40731W        W83722   5.793  29.646  24.076  0.0277  0.0896 -0.0552
40732W        W83723  13.404  16.366   6.371  0.0046 -0.2164 -0.1178
40733W        W83724  33.808   3.444   0.680  0.0022 -0.0643  0.1136
40734W        W83725   8.778   9.740  16.016 -0.2108  0.0140  0.0480
40735W        W83726  29.258   8.175   7.619 -0.0977 -0.1410  0.3141
40736W        W83727  13.960   3.816  26.078  0.3546  0.0669 -0.2028
40737W        W83728   1.160  19.762  26.760  0.0336 -0.1750 -0.0507
40738W        W83729   6.989   9.187   7.763 -0.1445  0.1231 -0.2101
40739W        W83730   7.519   7.843  26.964 -0.1975  0.1271 -0.0446
40740W        W83731   6.760   2.043   5.904 -0.0194  0.0552 -0.0590
40741W        W83732   7.443  27.491   1.530 -0.0865 -0.2813 -0.3021
40742W        W83733  33.378  31.506   2.074  0.0092  0.0188  0.2287
40743W        W83734   8.722  32.576  26.885 -0.1385 -0.0137  0.0975
40744W        W83735   4.486  26.519   9.292  0.0237  0.1388 -0.0203
40745W        W83736  12.636   4.597  19.826 -0.0602  0.3944  0.0068
40746W        W83737  22.005  12.232   9.155 -0.0683  0.2168 -0.2896
40747W        W83738  34.312  28.305   1.217  0.2216  0.1148  0.0026
40748W        W83739  24.987  33.489  27.409  0.1625  0.1100 -0.1100
40749W        W83740  16.811  26.252   1.500  0.0469  0.0591  0.3876
40750W        W83741  24.264  17.225   8.303 -0.4914  0.2478  0.0157
40751W        W83742  23.744   5.752   0.912 -0.1479  0.0517 -0.2112
40752W        W83743  26.017   7.382   8.068  0.1028  0.0423 -0.1640
40753W        W83744   3.750  11.615   8.498 -0.0463 -0.0358 -0.0930
40754W        W83745   3.245  19.140  24.521 -0.2967 -0.1723 -0.0827
40755W        W83746  32.920  30.423   8.640  0.1478  0.0449 -0.2036
40756W        W83747  17.541   6.112   8.296  0.0083  0.0154  0.1898
40757W        W83748  27.475   6.898   5.019  0.1899 -0.0694  0.1901
40758W        W83749  32.998  18.197   2.159 -0.0666 -0.2782  0.2753
40759W        W83750   3.177  19.322   1.671 -0.4650  0.0666  0.2498
40760W        W83751   9.026  12.198  15.480  0.1416 -0.2665 -0.2765
40761W        W83752  27.599   8.602   6.996  0.1069  0.3170 -0.0215
40762W        W83753  25.619  29.009   3.804 -0.0643  0.1118  0.3144
40763W        W83754  33.729  11.174   5.530 -0.0286 -0.4151  0.0681
40764W        W83755  34.598  25.739  19.822 -0.0367  0.2762 -0.2652
40765W        W83756  25.746   1.195   1.955  0.0383 -0.0052  0.1401
40766W        W83757  33.052  29.994   7.292 -0.2329 -0.1565  0.0568
40767W        W83758  27.258  25.846   8.936 -0.1588 -0.1706  0.0792
40768W        W83759   5.887  11.686   9.559  0.1276 -0.1448  0.0473
40769W        W83760  25.766  23.537   9.404  0.0587  0.0598  0.0463
40770W        W83761  28.716  34.494   9.361  0.0458  0.0629 -0.1211
40771W        W83762  27.086  18.551   6.717  0.1275  0.1437  0.1391
40772W        W83763  31.551  20.620   4.443  0.5602 -0.0008 -0.0730
40773W        W83764  20.284  16.659  24.203 -0.2475  0.0047  0.1287
40774W        W83765  32.284   5.273  20.317  0.0730 -0.1540 -0.0284
40775W        W83766  33.914   0.416   3.685 -0.2020 -0.1917  0.2852
40776W        W83767  30.839  14.933  16.350 -0.3758 -0.0165 -0.2957
40777W        W83768  23.489   1.219  28.854  0.3324  0.1429  0.0381
40778W        W83769  20.429  12.299   4.078  0.0030 -0.0999  0.0155
40779W        W83770  34.727   2.400   7.707 -0.0395 -0.2027 -0.0556
40780W        W83771  27.946  18.874   0.160 -0.1630  0.1095 -0.0739
40781W        W83772   0.516  30.926   3.888 -0.2345  0.1656  0.0254
40782W        W83773  17.184  23.470   6.974  0.0159 -0.1914 -0.0504
40783W        W83774  18.960   3.238   5.653 -0.1310  0.2482 -0.2314
40784W        W83775  28.748  13.253   6.511  0.0019 -0.0535  0.1166
40785W        W83776  28.601  30.883  15.616  0.2263 -0.0439  0.2495
40786W        W83777  26.907  15.118   6.645  0.2957  0.3529  0.1467
40787W        W83778  15.965  13.871   3.860 -0.3910  0.1857 -0.1500
40788W        W83779  28.428  14.529  23.613  0.0090 -0.0003 -0.1484
40789W        W83780  23.098  33.887   9.428 -0.1201  0.2907  0.0510
40790W        W83781   9.719   2.237  28.116  0.0890  0.0494 -0.0430
40791W        W83782  21.737  28.683   8.542  0.0905 -0.4238  0.2137
40792W        W83783  18.503  29.505  25.910 -0.0820  0.0022  0.2155
40793W        W83784  33.640  24.215   8.151  0.4658  0.0398 -0.0487
40794W        W83785  23.759  33.276   3.368  0.4083  0.2299 -0.0899
40795W        W83786  31.053  20.395  26.831  0.1062  0.1612  0.1473
40796W        W83787   2.243   1.897   8.899 -0.2311 -0.1855  0.1788
40797W        W83788   0.674  25.547   8.680 -0.0663  0.1314 -0.0072
40798W        W83789   1.067  26.497   0.878 -0.0051  0.1084 -0.0051
40799W        W83790  22.676  29.154   6.912  0.1977  0.1624 -0.3559
40800W        W83791  10.804   4.215   5.679  0.0215 -0.0385  0.2776
40801W        W83792  25.734  34.396  28.463 -0.1635 -0.1774  0.0821
40802W        W83793   2.376  17.418   6.804  0.1065 -0.0126 -0.0361
40803W        W83794  18.992   5.536   6.727 -0.1530 -0.0275  0.2497
40804W        W83795  34.390  11.512   9.032 -0.0819 -0.3406 -0.4278
40805W        W83796  19.644  13.062  22.809  0.3711 -0.3095  0.2602
40806W        W83797  27.717  34.545  14.740 -0.1257  0.4339  0.3020
40807W        W83798  33.569  33.494   4.502 -0.0976  0.1268 -0.1811
40808W        W83799  26.399   7.121  27.104  0.1897  0.1369 -0.1624
40809W        W83800  17.068   7.312   8.047 -0.0825  0.3088  0.1659
40810W        W83801  24.024  13.820  27.565 -0.0934 -0.1731  0.0548
40811W        W83802  19.963  14.733  14.630  0.1288 -0.1336 -0.3334
40812W        W83803  31.802  33.092  18.305 -0.0529  0.3812  0.0893
40813W        W83804  33.962  16.078   4.568 -0.0092  0.6268 -0.0662
40814W        W83805   0.314   4.558   2.071  0.1571  0.2181 -0.0696
40815W        W83806  24.695  30.566   5.637 -0.1383 -0.2573  0.1187
40816W        W83807  19.929   6.903   3.265 -0.1324 -0.0024 -0.0427
40817W        W83808  33.154  10.874  21.966  0.2648 -0.1008 -0.1943
40818W        W83809   2.909   2.946   6.967 -0.2033  0.0621 -0.2252
40819W        W83810  24.208  29.480   1.856 -0.1342 -0.0788 -0.3505
40820W        W83811  19.358   4.909   7.568 -0.2261  0.1588  0.2476
40821W        W83812  21.811   5.238  28.923 -0.2253 -0.4247  0.0436
40822W        W83813   4.087  33.890   3.020 -0.1826  0.1517 -0.0836
40823W        W83814  18.781  32.322  17.099 -0.2878  0.3418 -0.0739
40824W        W83815  29.170   7.662  10.201  0.1140 -0.1010 -0.0416
40825W        W83816  32.335  15.381  24.669 -0.0240  0.0445  0.1047
40826W        W83817   6.365   1.312   7.779  0.1073 -0.0050 -0.5339
40827W        W83818  33.887  11.650  25.544  0.2266  0.0241  0.1801
40828W        W83819  25.038   7.784   1.730  0.2547 -0.0196  0.2119
40829W        W83820  20.436   4.577   5.621  0.1976  0.0549 -0.2324
40830W        W83821  22.965  30.159   5.077  0.2372  0.3043 -0.2191
40831W        W83822  32.712  28.419  16.103 -0.3714 -0.1428  0.0229
40832W        W83823  29.528  10.017   6.876 -0.2613  0.1100 -0.2763
40833W        W83824   5.381  18.444  27.254 -0.1335 -0.0819  0.3342
40834W        W83825  26.205  24.395   2.517  0.0443  0.1245 -0.1030
40835W        W83826  22.811  10.027  17.469  0.0889 -0.0713  0.1957
40836W        W83827  30.708  10.457   5.725  0.2132 -0.1909  0.0211
40837W        W83828  26.672  33.447  29.260 -0.0312 -0.5146 -0.0572
40838W        W83829   9.602   8.056   7.626 -0.0086 -0.0375  0.0563
40839W        W83830  26.943  12.680   9.173 -0.3110  0.0441 -0.1236
40840W        W83831  22.431  28.426   5.904  0.2932 -0.0944 -0.0179
40841W        W83832  28.177  24.086  24.940 -0.2046  0.2225 -0.1331
40842W        W83833  25.711  32.579  15.776 -0.2982 -0.0228  0.3053
40843W        W83834   2.333  33.181   2.249  0.0470  0.1102  0.0395
40844W        W83835  28.480  14.802   7.564 -0.0905  0.1493 -0.0675
40845W        W83836  33.734  26.179   7.898 -0.3269  0.0378 -0.2303
40846W        W83837  27.381  13.844   9.042  0.1738  0.0876 -0.2228
40847W        W83838  30.631   6.568  24.319 -0.2776 -0.0554 -0.1352
40848W        W83839   2.106   7.363   1.038 -0.0780 -0.1866 -0.1875
40849W        W83840  34.187  11.274  19.200  0.0094 -0.2238 -0.1339
40850W        W83841   9.062   1.863   9.979  0.1164  0.0913 -0.2489
40851W        W83842   3.660   1.848  28.546  0.3307  0.4708 -0.1366
40852W        W83843   5.741   9.277   8.948  0.1069 -0.1529 -0.1682
40853W        W83844  25.029   7.081   3.715 -0.1466 -0.2455  0.0783
40854W        W83845   6.501  31.481   8.585 -0.3749 -0.1285  0.0117
40855W        W83846  24.640  32.421   7.035  0.1284 -0.2474 -0.2825
40856W        W83847  12.805   2.282  21.101 -0.3646 -0.2507 -0.2551
40857W        W83848  10.924  13.295   8.504 -0.3205 -0.1259 -0.2965
40858W        W83849  31.804   7.711  10.269 -0.2044 -0.0108  0.0048
40859W        W83850  34.537  13.011  25.627  0.4832 -0.2908  0.0836
40860W        W83851  34.228  33.672   2.535 -0.1910  0.0898 -0.1695
40861W        W83852  26.431  29.197   9.551  0.2034 -0.0457 -0.4156
40862W        W83853  19.182   6.259   2.831  0.0057  0.0694  0.1904
40863W        W83854  28.121   5.418   5.366 -0.0225  0.2866  0.2968
40864W        W83855  11.606  29.762   4.217 -0.0194 -0.3273  0.0037
40865W        W83856  21.693  23.551   4.033  0.0169  0.1341 -0.1767
40866W        W83857   7.662  14.950   4.425 -0.3070 -0.2731 -0.0318
40867W        W83858  22.773  10.322   5.008  0.1927  0.0185  0.3257
40868W        W83859  24.870  31.564   3.142 -0.1116 -0.1492 -0.1222
40869W        W83860  16.431  10.176   7.488  0.0230  0.2508  0.3408
40870W        W83861  25.806   2.655  25.826 -0.0746 -0.3885  0.1361
40871W        W83862  33.084   2.377   6.675  0.0364 -0.2599 -0.1631
40872W        W83863   4.803  29.172  19.338  0.1846  0.2186 -0.4496
40873W        W83864  19.790  32.124   6.799  0.2368 -0.0078  0.0412
40874W        W83865   0.603  11.251   9.629  0.2216  0.1098  0.5242
40875W        W83866  32.395   0.023  27.841 -0.0268 -0.1006 -0.0159
40876W        W83867   6.459  10.142   6.637 -0.3361 -0.0221  0.1281
40877W        W83868   6.930  13.243   8.919  0.4887 -0.0564 -0.1853
40878W        W83869  25.390  11.146   2.492  0.1954  0.0100 -0.1947
40879W        W83870  29.825   1.762   6.626  0.1387  0.2124 -0.0111
40880W        W83871   9.381  17.921   5.134 -0.1342 -0.1365  0.4593
40881W        W83872   1.021   7.291   8.934  0.0030 -0.0613 -0.0618
40882W        W83873   0.017  20.837   2.536  0.0564  0.1631 -0.1256
40883W        W83874   7.626   9.684   2.930 -0.4665 -0.0752 -0.2404
40884W        W83875  30.058   4.692  27.851  0.2683 -0.1615 -0.1324
40885W        W83876  30.161  31.676   1.929  0.0923  0.0949  0.0549
40886W        W83877  34.708   3.558   7.599  0.0376 -0.0691  0.0345
40887W        W83878  32.243  11.644  21.000 -0.0741  0.0519 -0.0023
40888W        W83879  27.963   1.134   9.934  0.0922  0.0613 -0.4072
40889W        W83880   0.929  33.788  14.435 -0.0477 -0.1379  0.1222
40890W        W83881  18.553  27.079   8.102  0.3533 -0.2456  0.0858
40891W        W83882   5.178   0.107  23.913 -0.4040  0.2176 -0.2935
40892W        W83883  30.227  27.214   6.195  0.0801 -0.0351  0.0142
40893W        W83884  12.746   1.139   2.706  0.1909  0.0085 -0.1224
40894W        W83885   0.434   1.800   6.467  0.1739 -0.0754 -0.1099
40895W        W83886  30.362   1.546  26.730 -0.0133 -0.3060  0.2486
40896W        W83887  33.359   8.386  17.276  0.1627  0.1862 -0.3587
40897W        W83888  31.474   2.570  21.086  0.0476 -0.3312  0.4267
40898W        W83889  23.322  34.537  17.685 -0.0877  0.1755  0.0944
40899W        W83890  28.960  30.959   4.178  0.2122 -0.1190 -0.0669
40900W        W83891  30.171   9.363  21.322  0.0607  0.0815  0.0319
40901W        W83892  16.262   7.909  27.198 -0.0105  0.1284 -0.4288
40902W        W83893  21.360  27.561  26.622  0.1130  0.1121  0.0566
40903W        W83894   9.334   2.895  27.261 -0.0296 -0.0220 -0.0364
40904W        W83895  30.967  34.535   1.112 -0.1060  0.1430  0.0159
40905W        W83896   8.815  20.951  28.723 -0.0501  0.0602 -0.0388
40906W        W83897  24.546   5.677  24.651  0.3339 -0.3661 -0.0024
40907W        W83898   3.537  11.118   8.831  0.2329  0.2608  0.2939
40908W        W83899   4.561  30.961  24.256 -0.1509 -0.0517  0.0381
40909W        W83900   1.943   3.691   0.838 -0.0566  0.1531  0.2968
40910W        W83901   0.394  12.827   4.267 -0.2653  0.0947  0.0133
40911W        W83902  11.846  20.905  21.776  0.0140  0.1392 -0.2595
40912W        W83903  34.104  22.190   8.699  0.0915  0.2476  0.2443
40913W        W83904   4.690   3.893   4.007 -0.1993 -0.2124 -0.2309
40914W        W83905   5.911   0.484   1.472 -0.2248  0.0150  0.0582
40915W        W83906  16.683  32.386   8.471 -0.1492  0.2032 -0.1070
40916W        W83907  24.670  23.514   5.499  0.0809  0.1156  0.0142
40917W        W83908  13.602  10.358   1.874 -0.1701 -0.2469 -0.1744
40918W        W83909  15.902  28.753   3.360 -0.0419 -0.1802 -0.0691
40919W        W83910   4.945  29.833  19.862 -0.0146 -0.0257 -0.0338
40920W        W83911  17.233  12.003   1.510  0.1711 -0.0275 -0.1338
40921W        W83912  24.125   0.552  24.884 -0.2999  0.1056 -0.0147
40922W        W83913  17.392  16.834  25.602 -0.2105 -0.2963 -0.2750
40923W        W83914  14.825  27.198   9.150 -0.1760 -0.1279  0.1649
40924W        W83915  10.950  14.432  27.963  0.0878 -0.1077  0.0242
40925W        W83916  27.157  26.345  20.895 -0.2301 -0.2990 -0.1710
40926W        W83917  30.490  10.028  25.713 -0.2419 -0.1325 -0.2794
40927W        W83918  20.861  29.001   7.596  0.1555 -0.2090 -0.3717
40928W        W83919  30.274   6.518   4.634  0.1260 -0.1255 -0.2687
40929W        W83920  26.361  10.363  27.181 -0.1723 -0.1931  0.1176
40930W        W83921  22.860  15.421   7.473  0.1698 -0.1351  0.4881
40931W        W83922  14.765   8.130  23.195 -0.1179 -0.0153  0.1884
40932W        W83923  19.554   7.673   2.136  0.1465  0.2006 -0.2442
40933W        W83924  30.874  11.236   8.054  0.3454  0.1419  0.1739
40934W        W83925  10.075  25.214   6.766  0.2311 -0.1815  0.2212
40935W        W83926   5.273   1.505   3.997 -0.1844  0.1028 -0.1754
40936W        W83927  32.495   6.123   1.765 -0.0018  0.0771  0.1235
40937W        W83928   5.772   8.756  10.148 -0.0257  0.4075 -0.2149
40938W        W83929  13.003   3.303  27.404  0.2073 -0.0807  0.0158
40939W        W83930  26.198  33.871   7.565  0.0249  0.0784  0.0971
40940W        W83931  22.902   0.428   2.336 -0.2360  0.0922  0.2592
40941W        W83932   2.701   3.978   1.800 -0.2132 -0.5879  0.1806
40942W        W83933  16.330  31.883   1.600  0.3282 -0.0278  0.0785
40943W        W83934  15.762  16.010   6.090 -0.2825  0.1652  0.0954
40944W        W83935  23.439  20.055   8.437  0.0138 -0.1319 -0.0368
40945W        W83936  19.311  13.613  23.719  0.1733  0.4565  0.0723
40946W        W83937   8.152   6.729   5.728 -0.1353 -0.2778 -0.1162
40947W        W83938  33.226  12.562   6.013  0.2645  0.0625 -0.0447
40948W        W83939  16.365  10.282  27.411  0.1587  0.0844 -0.1949
40949W        W83940  30.917  28.342  23.044  0.2876  0.2004  0.1115
40950W        W83941  25.545   2.181   6.057  0.1981 -0.1663 -0.1408
40951W        W83942  12.790   0.550   6.863 -0.0505  0.0237 -0.2190
40952W        W83943  29.291  22.932  21.250  0.0087 -0.0740  0.2314
40953W        W83944  13.918   2.727   3.167 -0.2182 -0.2048 -0.1300
40954W        W83945  21.790  32.567   8.925  0.1038  0.0890 -0.1835
40955W        W83946  27.927  12.111  16.618  0.2708 -0.0794 -0.0519
40956W        W83947  24.990  34.319  16.380  0.2102 -0.1450 -0.1390
40957W        W83948  28.397  11.979   4.699  0.0776 -0.1195 -0.0860
40958W        W83949   0.390  28.358  26.222  0.0590 -0.0406  0.1067
40959W        W83950   2.213   6.726  23.338 -0.1036  0.1068 -0.2535
40960W        W83951  24.047  17.895  26.094 -0.2119  0.1910  0.1981
40961W        W83952   9.912  17.659   6.507 -0.3255  0.1026  0.3066
40962W        W83953  31.768  32.500   2.862 -0.1719  0.2199  0.0092
40963W        W83954   2.046  26.673  21.529 -0.0220 -0.2020 -0.0389
40964W        W83955  24.382   0.531   4.690 -0.0624 -0.1175 -0.3167
40965W        W83956  16.906  22.419   1.336  0.1047 -0.1021 -0.1504
40966W        W83957   9.267  27.551   6.291 -0.0358 -0.2459  0.1670
40967W        W83958  23.845  27.914  27.767 -0.3701  0.4543  0.1877
40968W        W83959  21.876   5.449   9.437  0.0490  0.0881 -0.0583
40969W        W83960  32.819  19.565  27.899 -0.4617 -0.2443 -0.0220
40970W        W83961  34.530  10.135  10.890  0.0843 -0.1658 -0.1340
40971W        W83962  30.780   2.126  26.119  0.1145 -0.0724  0.0482
40972W        W83963  22.187   4.449  26.173 -0.0970  0.1633 -0.0138
40973W        W83964  29.270   6.413  24.726 -0.1168  0.1219  0.0123
40974W        W83965  21.582  33.744   1.703 -0.0533  0.2573  0.0880
40975W        W83966   9.307  22.055   8.569 -0.1302  0.2810 -0.2215
40976W        W83967   0.153  20.187  10.282 -0.0817 -0.1610 -0.0443
40977W        W83968   4.678  30.548   5.448 -0.2785 -0.2290  0.0080
40978W        W83969   7.861  28.065  19.062  0.0954 -0.2738 -0.1080
40979W        W83970  19.374   0.559   0.103  0.1153  0.1570 -0.2722
40980W        W83971  27.572  26.511  28.623  0.0955 -0.1598 -0.0479
40981W        W83972  32.579  23.896   4.113  0.2104 -0.1431 -0.0491
40982W        W83973  28.847  10.786   2.469  0.2348 -0.1971 -0.2471
40983W        W83974  26.134   9.521   0.027 -0.0533  0.0107 -0.2003
40984W        W83975  29.225  30.467   7.545 -0.0857  0.0257  0.2563
40985W        W83976   6.407  32.797   7.548  0.2482  0.1235  0.1515
40986W        W83977   7.845   5.208  10.594 -0.4991 -0.1290 -0.0927
40987W        W83978  29.197  10.418   4.440 -0.1124  0.1328 -0.0361
40988W        W83979  33.775   4.885   0.423 -0.4255 -0.0042 -0.0707
40989W        W83980  20.067  21.606   2.781 -0.4221 -0.1629 -0.2347
40990W        W83981  29.684  24.582   7.272  0.1016 -0.1377 -0.2204
40991W        W83982  22.907  16.188   0.469 -0.0203  0.0450 -0.0121
40992W        W83983  27.891   3.599   9.980 -0.3197  0.0598 -0.1834
40993W        W83984  25.139  13.175   7.954  0.0207 -0.0391  0.2591
40994W        W83985  27.330   7.268  20.662  0.1595 -0.3340 -0.2058
40995W        W83986  28.863  13.807   8.202 -0.0461 -0.3421  0.1659
40996W        W83987  34.352  30.550   7.152  0.2055 -0.0879 -0.1344
40997W        W83988  33.946   3.253   4.218 -0.1390  0.2118 -0.1845
40998W        W83989  28.143   9.971  17.452 -0.0629  0.1191  0.0759
40999W        W83990  23.863   3.324  24.949 -0.1247 -0.3939 -0.3036
41000W        W83991   1.402   5.340   5.782  0.0490  0.1572  0.0583
41001W        W83992  14.627   0.457  25.846  0.1786  0.2701 -0.2658
41002W        W83993  14.794  33.012   7.512  0.1313 -0.0507 -0.2178
41003W        W83994  23.778  29.249   8.321  0.0193  0.0653  0.0830
41004W        W83995  28.984  33.779   1.789 -0.0039  0.2028  0.0387
41005W        W83996  22.091  11.390  28.089  0.0522  0.0111 -0.1482
41006W        W83997  21.247  20.233  24.981  0.2082 -0.0817 -0.2794
41007W        W83998  18.596  19.766  28.761  0.2992 -0.0245 -0.3015
41008W        W83999  22.219   9.890  20.954 -0.3222 -0.0727  0.0598
41009W        W84000   0.946   6.997  10.864 -0.0935 -0.0523  0.1923
41010W        W84001  34.450   9.049   2.831 -0.0774  0.0617  0.0427
41011W        W84002   1.982   7.072   3.616  0.2467 -0.3329 -0.0027
41012W        W84003  29.872  13.408  26.269  0.1752  0.0754  0.0881
41013W        W84004   3.359  12.613   9.752  0.0813 -0.0304  0.0302
41014W        W84005  31.771   8.507   9.163 -0.0684  0.2519  0.0531
41015W        W84006  33.373   2.178  24.072 -0.2415 -0.1793  0.0321
41016W        W84007  30.447   0.230  20.682  0.0717  0.1065  0.2529
41017W        W84008   8.394  24.315  20.669 -0.1267  0.0463 -0.2425
41018W        W84009  29.152  22.548  14.796  0.2373  0.0720 -0.2222
41019W        W84010   0.796  23.840  25.240  0.1131 -0.2186 -0.3146
41020W        W84011   4.893  19.826   5.147  0.2877  0.2185  0.1250
41021W        W84012   0.677  15.165   9.204 -0.0780  0.0164 -0.2823
41022W        W84013  22.685   0.351   8.848 -0.1888  0.2425  0.1371
41023W        W84014   1.489   0.558   8.998  0.0364 -0.0135 -0.1432
41024W        W84015  25.803  11.193   8.478  0.3559 -0.1828 -0.1122
41025W        W84016   2.005  13.106   8.064 -0.0512 -0.1047 -0.1971
41026W        W84017   0.317   2.598   0.936  0.1841  0.2832  0.0071
41027W        W84018   1.224   7.634   3.865 -0.2116 -0.0909 -0.2758
41028W        W84019  21.852  11.221   4.966  0.1281  0.1819  0.1229
41029W        W84020  12.939   9.409  25.953  0.1209  0.0696 -0.1581
41030W        W84021  26.306  17.491   4.875  0.2099  0.0694  0.3623
41031W        W84022  33.497  31.849   8.158  0.0476 -0.2669  0.0351
41032W        W84023  11.529  32.572  23.722 -0.1424 -0.1045  0.5179
41033W        W84024   9.984   6.742  21.660 -0.0918 -0.2735  0.0466
41034W        W84025  30.290   9.687   8.751 -0.2875 -0.2945  0.1693
41035W        W84026   4.255   2.138   6.748 -0.2643 -0.2105  0.0426
41036W        W84027   6.679  23.289  26.098 -0.2250  0.0993 -0.0423
41037W        W84028  13.363  32.078   3.782 -0.0034  0.2062  0.2209
41038W        W84029  32.851  17.210   0.472  0.0572 -0.0267 -0.1583
41039W        W84030  30.871  20.207  10.274 -0.3458 -0.1235 -0.2347
41040W        W84031  24.400  20.964   5.927 -0.2872  0.3443  0.0047
41041W        W84032  30.805   1.254  21.225 -0.1148 -0.0384 -0.2399
41042W        W84033   4.332  24.261  21.312 -0.0621  0.1890  0.4119
41043W        W84034  15.569  18.783   8.519 -0.4219  0.2211 -0.0852
41044W        W84035  26.304   5.358   8.440  0.2173  0.1590  0.3099
41045W        W84036  33.094  26.200  14.761 -0.0916  0.0060 -0.0093
41046W        W84037   2.990  32.033   6.097  0.0866  0.0189 -0.1291
41047W        W84038   0.484  34.050  17.791 -0.1341  0.1495 -0.4703
41048W        W84039  24.804  23.690   3.145  0.1703  0.1314 -0.0467
41049W        W84040  24.855   7.854   0.932 -0.0893 -0.0825 -0.2313
41050W        W84041   9.601  29.073  19.676 -0.0767  0.3358 -0.2668
41051W        W84042   0.303   4.783   4.837 -0.2242 -0.3377  0.3157
41052W        W84043  16.661  10.951  28.533  0.1435  0.0410  0.2197
41053W        W84044  24.487   9.566   5.215 -0.0540  0.2278 -0.0420
41054W        W84045   9.974  31.687  10.332 -0.0513  0.0130 -0.2619
41055W        W84046  31.276   1.755   8.885  0.2050 -0.1021 -0.0182
41056W        W84047   2.036  32.293   6.861  0.0231  0.0586 -0.3275
41057W        W84048  21.356  15.362  19.214 -0.1714  0.1460 -0.1206
41058W        W84049  28.286  12.846  23.032  0.0261  0.2713 -0.0536
41059W        W84050   7.960  14.571  25.154 -0.0895 -0.1547 -0.0726
41060W        W84051  32.254  23.551   0.037 -0.3389 -0.1316  0.0029
41061W        W84052  26.510   0.318   3.990 -0.1518 -0.3078 -0.2286
41062W        W84053   6.026   4.748   7.403  0.2133  0.0224 -0.1223
41063W        W84054  27.813   5.038   8.960  0.0628  0.3655  0.0475
41064W        W84055  20.579  23.546  23.563  0.2761 -0.4042 -0.0192
41065W        W84056  15.893  34.145  27.564 -0.0104 -0.2281 -0.2691
41066W        W84057   0.390   3.648   4.457  0.4235 -0.1532 -0.0209
41067W        W84058   2.406  10.922   6.530  0.0844  0.1396 -0.1868
41068W        W84059   1.635   4.555   4.771 -0.2556  0.1149  0.0330
41069W        W84060  32.761  33.482   1.062 -0.0379  0.1145  0.1335
41070W        W84061   0.866  19.641   1.115  0.2741 -0.3791 -0.1963
41071W        W84062   4.657   7.099  25.593  0.0411  0.1204  0.0918
41072W        W84063  25.708  28.364   0.713 -0.1170 -0.0452 -0.0853
41073W        W84064  32.860  22.336   7.761 -0.1618  0.3534 -0.1095
41074W        W84065  18.694  27.901   2.397  0.0627 -0.3297  0.1233
41075W        W84066   5.418  12.312  10.065 -0.0598 -0.1288  0.1642
41076W        W84067  21.050  10.466  29.174 -0.3122 -0.0508 -0.1089
41077W        W84068  21.052  21.438   3.616 -0.0154 -0.0845 -0.1533
41078W        W84069  12.883  29.793   7.630  0.2722  0.2654 -0.0440
41079W        W84070   7.311  32.178   0.087 -0.0022 -0.0088  0.2144
41080W        W84071  25.351  20.400   0.342 -0.4990 -0.2319  0.1063
41081W        W84072  29.415  33.703   3.471 -0.1089  0.2700 -0.2918
41082W        W84073   4.740   8.683  10.235  0.0198 -0.0394  0.2786
41083W        W84074  29.179  14.904   7.958  0.0097  0.0249  0.1806
41084W        W84075  11.752   0.997  26.677  0.4634 -0.0092  0.2828
41085W        W84076   6.814  31.286   1.045 -0.1751 -0.3260  0.0224
41086W        W84077  29.713  26.209  15.996  0.0082  0.4020  0.1008
41087W        W84078   3.323   9.998  28.050 -0.2937 -0.1551  0.0310
41088W        W84079   7.575  29.885   3.296  0.1619  0.2003 -0.1652
41089W        W84080  12.568   5.212   5.820 -0.0008 -0.3162  0.1001
41090W        W84081  27.240  34.267  19.420 -0.2091 -0.3069  0.0120
41091W        W84082  12.594   4.583   5.329 -0.0860 -0.2510  0.0861
41092W        W84083  23.942  17.951  28.983 -0.3726 -0.3219  0.0469
41093W        W84084   1.002   0.749   9.646  0.0791 -0.0095  0.0609
41094W        W84085  29.580  11.346   5.527 -0.1890 -0.0517  0.0916
41095W        W84086  18.075   0.819  27.748  0.2861  0.1010 -0.3702
41096W        W84087  26.018  34.226   7.890 -0.2398  0.0277 -0.1683
41097W        W84088  13.433  25.067   2.278  0.3027 -0.3002 -0.1419
41098W        W84089   7.959  11.694   3.628 -0.0059 -0.2072 -0.0369
41099W        W84090  33.399   0.850   7.959  0.1165  0.0794  0.2167
41100W        W84091  34.447  13.319   5.574 -0.0519  0.2729  0.0863
41101W        W84092  27.364  21.990   7.722 -0.0477  0.1320  0.1209
41102W        W84093   1.659   2.332   6.368  0.3932  0.1720 -0.0368
41103W        W84094  22.239  22.832   6.307 -0.0205  0.4019  0.3804
41104W        W84095  25.168  17.646   0.929  0.1250  0.1849  0.1592
41105W        W84096  21.372  18.076   3.938  0.1052  0.0353 -0.0040
41106W        W84097  31.376   2.243   7.610 -0.0823  0.3302  0.0458
41107W        W84098  31.364  34.738   8.847  0.2450 -0.0913  0.1785
41108W        W84099  10.477  21.733  18.563  0.1641 -0.2191  0.0668
41109W        W84100  17.998   6.421  27.417 -0.0807 -0.0968  0.0007
41110W        W84101  19.189  24.555   0.173  0.1378 -0.2675  0.1957
41111W        W84102   7.870  26.194  19.737  0.2765  0.0102 -0.0319
41112W        W84103   5.607  26.270   6.476  0.0872 -0.2856  0.0923
41113W        W84104  24.756  32.156   8.808  0.1205 -0.0178 -0.0487
41114W        W84105  28.212   0.258   7.254  0.0582 -0.1503  0.2601
41115W        W84106  32.205  33.255   4.531 -0.3827 -0.3600  0.0023
41116W        W84107  28.120  24.689  25.134  0.2707  0.0133  0.0084
41117W        W84108  10.537   6.272   1.534 -0.3172 -0.1630  0.1736
41118W        W84109  23.136  33.059  28.805  0.0810 -0.0949  0.0189
41119W        W84110  33.577   1.612   9.384  0.0444 -0.1476  0.0087
41120W        W84111   1.914  19.095  27.025 -0.3123  0.0601 -0.1020
41121W        W84112   6.731  18.626  10.611  0.0804  0.1564  0.1447
41122W        W84113  19.983  32.799   0.893  0.0151  0.2094  0.1801
41123W        W84114   7.627  29.866  26.747 -0.2616 -0.2624 -0.0745
41124W        W84115  30.149  29.442   2.162 -0.0122 -0.2820 -0.1337
41125W        W84116  15.341  12.145  26.186 -0.0528 -0.2374  0.1356
41126W        W84117  32.087  24.721  21.099  0.0435 -0.1001  0.1126
41127W        W84118  30.958   6.861   1.436  0.2300 -0.0682  0.0446
41128W        W84119  24.866   4.550   7.416 -0.0592 -0.1665  0.2344
41129W        W84120  25.484  34.035  26.012  0.7102  0.1370 -0.5816
41130W        W84121  10.847   6.659   9.775  0.1028  0.0624  0.1144
41131W        W84122  19.438   7.893   6.020  0.3387 -0.1228 -0.0302
41132W        W84123  13.870   3.936   1.111 -0.1372  0.1890  0.0109
41133W        W84124  28.526  11.922  11.020 -0.1831 -0.3061 -0.0808
41134W        W84125  28.121  34.135   3.906 -0.0594  0.0894  0.2098
41135W        W84126   0.456  10.604  11.525 -0.0826  0.0989 -0.0680
41136W        W84127  14.931   8.428   4.401 -0.1347 -0.1641  0.2619
41137W        W84128  10.041  23.231   8.325  0.0264  0.0819  0.1250
41138W        W84129  26.000  17.031   4.802  0.2911  0.1081 -0.0604
41139W        W84130  17.305  26.759   4.630 -0.0663 -0.0935 -0.2151
41140W        W84131  29.905  31.954   8.493 -0.0817  0.1633 -0.0517
41141W        W84132   1.479  31.215  28.938  0.0814  0.0675  0.1096
41142W        W84133   1.978  10.496   6.631 -0.1731  0.5379  0.1977
41143W        W84134  30.622   3.220   8.975  0.0454 -0.1021  0.1479
41144W        W84135  19.399   5.989   9.474 -0.2059  0.0757 -0.0915
41145W        W84136  34.729  30.928   1.786  0.2141  0.0470 -0.3856
41146W        W84137  22.997   3.373   7.404  0.0385  0.1094 -0.1907
41147W        W84138   2.176   5.947  26.274  0.3265  0.1301  0.0065
41148W        W84139   3.512  30.418  27.895 -0.0003 -0.1083  0.3204
41149W        W84140  19.156   5.120  28.961  0.0783 -0.1510 -0.0880
41150W        W84141  23.032   4.169   7.697  0.0998 -0.1610 -0.2161
41151W        W84142  27.521   4.788   5.748 -0.3000  0.0076 -0.1242
41152W        W84143  18.670  12.728   7.242  0.0343  0.0250 -0.0786
41153W        W84144  21.839   0.319  27.347 -0.1534  0.1418 -0.0473
41154W        W84145  23.587   9.624   9.520  0.4239 -0.1078  0.1510
41155W        W84146  11.442   1.406   6.825  0.1042 -0.2974 -0.0021
41156W        W84147  23.235  28.393   7.574 -0.4766  0.1317  0.2489
41157W        W84148  21.054  23.766   0.906 -0.0392  0.1341  0.2157
41158W        W84149  16.176   5.364   0.030  0.2244 -0.1620  0.1940
41159W        W84150   6.540  18.337  26.234  0.3144  0.0834  0.0021
41160W        W84151  22.594  17.621   1.976 -0.1197  0.0760 -0.0613
41161W        W84152  31.639  31.039   3.719  0.1363  0.1470  0.3679
41162W        W84153  26.080   2.800  19.518  0.1614  0.0138  0.2390
41163W        W84154  26.711  18.492  21.554 -0.1481  0.1711 -0.0590
41164W        W84155  26.271  31.315  27.967 -0.1404 -0.1809  0.2151
41165W        W84156  30.163  23.203  16.920  0.0349  0.1927  0.0729
41166W        W84157  29.817  15.346  27.228  0.1353 -0.1179 -0.1973
41167W        W84158  26.999   5.283  23.766  0.0428  0.0834 -0.0766
41168W        W84159  32.257  15.654  20.548 -0.3983 -0.0792 -0.0318
41169W        W84160  21.798  32.674  23.936 -0.2420 -0.0172 -0.0168
41170W        W84161  22.762   3.459   8.377 -0.1606 -0.1986  0.0770
41171W        W84162  22.574  14.696  24.098 -0.1587 -0.1341 -0.0325
41172W        W84163   1.036  22.270   8.184  0.2990  0.1146 -0.0101
41173W        W84164  23.873  10.849   0.582 -0.0059  0.0758  0.1240
41174W        W84165  28.014   2.771   8.114  0.1715 -0.2673 -0.0130
41175W        W84166  11.160  30.322   5.928  0.1371  0.0031  0.4467
41176W        W84167  31.515  27.733   6.961  0.1546  0.1420  0.2079
41177W        W84168  27.592   5.952   1.048  0.2387  0.0974 -0.2440
41178W        W84169  23.771  10.329   1.946 -0.1146  0.0677 -0.2199
41179W        W84170  24.367  24.440  24.318 -0.1032  0.0535  0.3787
41180W        W84171  28.432   9.013   4.630 -0.0169  0.1093  0.2830
41181W        W84172  34.740  15.580   6.606  0.0707  0.0310  0.1763
41182W        W84173  28.490   9.479  24.577 -0.2135 -0.0824 -0.1637
41183W        W84174  27.339   1.286   8.747 -0.0302  0.1959  0.1075
41184W        W84175  31.284  32.135  24.380 -0.2130  0.2732 -0.0473
41185W        W84176   2.145  29.136  28.913  0.2860 -0.1364  0.0858
41186W        W84177  25.508  27.816   4.696 -0.1232  0.0142  0.1647
41187W        W84178  17.163   5.364  26.657  0.1199  0.0803 -0.2448
41188W        W84179  28.954  23.097  19.602 -0.2534  0.0847 -0.3452
41189W        W84180  23.293  21.013   3.292  0.2567 -0.0222  0.3902
41190W        W84181   3.240  31.598   9.308  0.0671 -0.2238 -0.2235
41191W        W84182  23.018   3.720   5.563  0.0774 -0.1124 -0.0930
41192W        W84183  28.016  32.724   3.957  0.0548 -0.1525  0.2125
41193W        W84184   3.798   6.412   6.404 -0.3394  0.1013  0.1817
41194W        W84185  34.770  11.428   6.621 -0.2485 -0.0931  0.1305
41195W        W84186  16.181  11.051  27.612 -0.1686  0.0549 -0.1230
41196W        W84187   0.740   3.182   6.645 -0.1945 -0.0530  0.1391
41197W        W84188  23.256  11.829   1.279 -0.0328 -0.3146  0.3792
41198W        W84189  23.891   5.040   0.051 -0.0019 -0.1086 -0.1208
41199W        W84190  26.308  12.111   8.780 -0.0485  0.1809 -0.2526
41200W        W84191  21.153  16.624   3.902 -0.2560 -0.3315  0.0433
41201W        W84192  34.715  28.251   0.904 -0.0767  0.3141 -0.0949
41202W        W84193  19.463  34.292   5.563  0.1839 -0.1118 -0.0319
41203W        W84194  30.556  31.344   3.803  0.1089 -0.1529 -0.1412
41204W        W84195  32.173  10.268   4.692 -0.0359 -0.1859  0.3060
41205W        W84196  26.561   6.098   3.742 -0.3402 -0.0483  0.1161
41206W        W84197   1.653  12.195  26.541 -0.0525  0.1123  0.2731
41207W        W84198  27.161  22.575   4.322  0.2787  0.0370  0.0715
41208W        W84199  16.830   7.608   4.840 -0.1053 -0.0850 -0.0477
41209W        W84200   0.684  26.303   7.675 -0.0125  0.2288  0.3394
41210W        W84201   1.774  30.995   2.196  0.4223  0.0397  0.1935
41211W        W84202  29.680  14.040   4.444 -0.2626 -0.0718 -0.1573
41212W        W84203  23.115  13.188   6.103  0.1448  0.0798 -0.1746
41213W        W84204  29.889  17.320   7.906  0.1435 -0.2081  0.2513
41214W        W84205   2.006  31.928   9.588  0.1077  0.0704 -0.0288
41215W        W84206  21.175  30.967   6.062  0.0945  0.1375 -0.0747
41216W        W84207  26.032   5.640   2.304  0.0238 -0.0326 -0.1603
41217W        W84208  34.575  11.010  23.555 -0.0072  0.2577 -0.0810
41218W        W84209  24.539  18.237  21.853  0.1731 -0.1396  0.1919
41219W        W84210  20.266  21.813  27.060  0.1002 -0.0041 -0.0160
41220W        W84211  30.442  33.150   5.808 -0.0313  0.0166 -0.1723
41221W        W84212  28.087  30.396   2.501 -0.2256  0.1566 -0.0322
41222W        W84213  26.775  32.249   6.237  0.0620 -0.1721  0.2005
41223W        W84214   9.778  34.554   1.996 -0.1088  0.1607  0.1504
41224W        W84215  30.494   9.866   2.732  0.2483 -0.0125  0.0001
41225W        W84216  28.466  21.700   5.003 -0.2211 -0.0990 -0.0067
41226W        W84217  25.471   9.140   4.942  0.0156  0.3289 -0.5246
41227W        W84218  17.181  10.890   1.845  0.0777  0.0031 -0.1153
41228W        W84219   8.514  15.542  16.135  0.0300 -0.0257 -0.1464
41229W        W84220  33.752  10.185   7.014  0.2135  0.1383 -0.0744
41230W        W84221  19.130  15.595  25.154 -0.2035 -0.0414 -0.1352
41231W        W84222  30.449   5.098   2.901  0.2680 -0.1570  0.3581
41232W        W84223   8.428   2.064   2.383 -0.2446  0.1154  0.0769
41233W        W84224   6.164  32.210  28.639  0.1688 -0.0732 -0.0605
41234W        W84225  30.030   2.537   6.928 -0.1656  0.4651  0.0983
41235W        W84226  33.057  26.773   9.206 -0.0593 -0.1431  0.1339
41236W        W84227   9.420  13.992  22.554 -0.2301 -0.3084  0.3204
41237W        W84228  20.983  14.654  29.065 -0.1669  0.2889  0.0062
41238W        W84229  23.905   5.783   7.439  0.0918 -0.2177  0.0597
41239W        W84230   1.929   1.916   8.424  0.2612 -0.1304 -0.0673
41240W        W84231  10.046   4.004   9.829 -0.1448  0.0338  0.1094
41241W        W84232  28.665  31.233   5.408  0.0660  0.0012  0.0088
41242W        W84233  20.007  26.426  22.492  0.2184  0.1310  0.0259
41243W        W84234   8.898  15.866  25.703 -0.3397  0.1636  0.0830
41244W        W84235   0.516  34.635   7.247 -0.1011 -0.1241  0.1048
41245W        W84236   0.454   4.340  26.730 -0.0760  0.0395  0.2070
41246W        W84237  32.209   7.066   5.114  0.2687  0.0786 -0.0240
41247W        W84238   0.727  25.764  27.048 -0.1106 -0.2030 -0.0768
41248W        W84239  15.738  28.574   9.235 -0.2221 -0.4502  0.1073
41249W        W84240   7.050  30.073   5.062  0.1732  0.3582  0.2287
41250W        W84241  30.199   0.253   1.663 -0.1446 -0.0175 -0.0044
41251W        W84242  34.734   4.762   3.043  0.0820 -0.1658  0.0611
41252W        W84243  16.108   6.264   3.911 -0.3268 -0.0065  0.0771
41253W        W84244  11.095  14.011  25.341  0.0348 -0.1998  0.1345
41254W        W84245  22.842  22.228   3.544  0.3273 -0.0662 -0.0848
41255W        W84246  24.175  14.050   0.206 -0.3381  0.0186  0.0626
41256W        W84247  23.365  34.673  24.735 -0.1579  0.0666 -0.0740
41257W        W84248  23.088   0.628   4.474 -0.1517  0.0033  0.2985
41258W        W84249   8.375   6.027   0.176  0.1657  0.0092 -0.1491
41259W        W84250  30.254   4.685   4.142 -0.3006 -0.1959  0.1980
41260W        W84251  20.990  20.171  26.684  0.0518  0.1082  0.4132
41261W        W84252  29.282   7.638  26.403  0.1051  0.1786 -0.1154
41262W        W84253   1.330   3.474  28.304  0.0622  0.0679 -0.0001
41263W        W84254  13.380  21.625   8.281  0.0032 -0.1484  0.1044
41264W        W84255  34.392  29.744   6.596  0.3063  0.0727  0.3031
41265W        W84256  26.622  13.466   5.950 -0.4079 -0.1798 -0.1636
41266W        W84257   9.247  27.696   4.193 -0.0615  0.1519 -0.0807
41267W        W84258   0.356   9.819  22.599  0.0762 -0.3160 -0.2019
41268W        W84259  25.259  30.350   2.235  0.1799  0.5127 -0.2818
41269W        W84260  18.924   2.599   1.569  0.1181  0.0662  0.2018
41270W        W84261  18.336   7.324  19.532 -0.1010 -0.0698  0.0264
41271W        W84262  14.260  15.101   8.411 -0.0562 -0.0022 -0.1369
41272W        W84263   4.427  14.440  23.219  0.2011  0.1177  0.1980
41273W        W84264  25.102  33.031   1.647  0.2087  0.1349  0.0175
41274W        W84265  14.012  23.305  21.435 -0.2414  0.2706  0.1880
41275W        W84266  30.459  25.751  17.509  0.1134 -0.3092 -0.0955
41276W        W84267   6.669  32.400  26.340  0.0009  0.1064  0.1588
41277W        W84268   3.653   7.530  11.823 -0.2001  0.0551  0.0433
41278W        W84269  21.967   1.087   8.808  0.0822  0.3429  0.0497
41279W        W84270   6.765  15.847  11.075 -0.2364  0.1236 -0.2903
41280W        W84271   6.290   2.133  23.829  0.1548 -0.0434  0.0210
41281W        W84272   8.712  28.194   0.019 -0.2603  0.0266 -0.0264
41282W        W84273   7.128   8.933  10.126  0.1997  0.3111  0.0052
41283W        W84274   0.159   7.820  10.757  0.0904 -0.5624 -0.1089
41284W        W84275  31.760   5.577   0.363  0.1921 -0.0917  0.0461
41285W        W84276   1.541  14.028  10.886  0.2960  0.2398 -0.3223
41286W        W84277  20.781   5.915   9.651 -0.1231  0.0559  0.0039
41287W        W84278   9.908  30.188   8.856  0.2645 -0.1576 -0.1376
41288W        W84279  21.922  16.164  18.609  0.0219 -0.0127  0.2258
41289W        W84280   0.684  33.968   8.787 -0.1540  0.3495 -0.0482
41290W        W84281  33.827   0.823   9.252  0.1432 -0.1384  0.0846
41291W        W84282  30.893  15.266   5.072  0.1336  0.1869 -0.2324
41292W        W84283  22.462   2.546   9.175 -0.0568  0.1856 -0.0055
41293W        W84284  32.690  34.639   2.977  0.1615 -0.2084 -0.2937
41294W        W84285  26.636   0.587   5.295 -0.0467  0.3190 -0.1452
41295W        W84286   8.738  31.791   5.519  0.6696  0.3700 -0.1416
41296W        W84287  21.697  14.543  19.349  0.1288 -0.1537  0.1039
41297W        W84288  26.819  24.099  25.483 -0.1442  0.1096  0.0882
41298W        W84289   6.498   9.048   4.067  0.4343 -0.0815  0.2454
41299W        W84290  31.174  14.858   5.973  0.2030 -0.0670 -0.3292
41300W        W84291  23.282  34.401   0.963 -0.0283  0.1697 -0.0720
41301W        W84292  32.275  10.753   5.073 -0.0298 -0.0355  0.1813
41302W        W84293  24.792   1.199   0.114 -0.0437 -0.2823 -0.1303
41303W        W84294  18.414  34.102   4.679 -0.1794 -0.0651 -0.1669
41304W        W84295  21.026  21.827   5.866  0.0881 -0.2456  0.1546
41305W        W84296  28.540  29.445   4.276 -0.2636 -0.5144 -0.0021
41306W        W84297  10.519   1.767   6.392 -0.0855 -0.0236 -0.1489
41307W        W84298  10.859   1.786   3.291 -0.0478  0.0213  0.1923
41308W        W84299  30.873  14.568   7.806  0.2557  0.2195 -0.0757
41309W        W84300  22.710  32.480   6.057  0.1074  0.1973  0.2785
41310W        W84301   1.761  28.482  23.823  0.0184  0.0771 -0.0438
41311W        W84302  23.189   0.543   8.989  0.2309  0.0526 -0.1071
41312W        W84303  27.784  28.031   3.286  0.1426  0.0150 -0.3740
41313W        W84304  16.361  30.546  26.499 -0.3639 -0.1992  0.0527
41314W        W84305  31.576  30.187   3.680  0.4792 -0.0746  0.3153
41315W        W84306  28.762  11.246   6.332 -0.1473  0.0390 -0.3856
41316W        W84307   3.517   2.618  10.242  0.0943 -0.1253 -0.2546
41317W        W84308  24.188  20.624   7.695  0.0896 -0.2109 -0.0535
41318W        W84309  24.231   0.485   4.207 -0.0410  0.0725  0.1466
41319W        W84310   7.719   6.997   1.161 -0.1703  0.0097 -0.2977
41320W        W84311  23.761  13.640   6.742 -0.3418  0.2096 -0.0452
41321W        W84312  28.028  17.951   2.231  0.0801 -0.2563 -0.2379
41322W        W84313  26.047   5.629   4.327 -0.0513  0.1855 -0.3539
41323W        W84314  24.248  11.617   5.424 -0.1094 -0.0309  0.0196
41324W        W84315  34.390   6.024  29.220 -0.1641  0.0954 -0.1155
41325W        W84316  15.902  17.291  24.339  0.2004 -0.0123 -0.0260
41326W        W84317  34.373  29.820  24.704 -0.2400  0.2410 -0.0438
41327W        W84318  27.716   5.853  27.797  0.0920  0.4072  0.0841
41328W        W84319  15.332   1.218   9.974  0.1836  0.0349 -0.0090
41329W        W84320  22.392  11.299   2.976  0.4210 -0.0380  0.1042
41330W        W84321  28.378  30.301   6.729 -0.1329  0.0517  0.1117
41331W        W84322  23.960   9.000   1.498 -0.0189  0.0589 -0.0330
41332W        W84323  33.530  16.939  29.221 -0.5525  0.1232  0.0200
41333W        W84324  24.448  17.425   8.868  0.0407 -0.0555  0.1041
41334W        W84325  26.211   7.317   8.886 -0.0780  0.0069  0.2525
41335W        W84326  34.516   9.437  10.250 -0.1501  0.0718 -0.0599
41336W        W84327  26.052   2.188   7.063  0.3485 -0.4082 -0.4756
41337W        W84328  34.051   1.809   9.675  0.1055 -0.3577  0.3238
41338W        W84329  19.148  22.010  23.883  0.0554 -0.4022  0.1682
41339W        W84330  26.648  21.058  27.617  0.3000  0.1627 -0.0448
41340W        W84331  15.056  12.730   4.962 -0.2884 -0.0362 -0.2449
41341W        W84332   4.865  13.759  21.626 -0.0229  0.0649  0.0629
41342W        W84333  19.898  34.437   0.471  0.0096 -0.2721 -0.1487
41343W        W84334  20.867  32.698  25.469  0.1385  0.4034 -0.0800
41344W        W84335  28.143  27.933  28.536  0.0090  0.1874  0.1047
41345W        W84336   9.651   1.634  21.116 -0.3634 -0.0268  0.0775
41346W        W84337  28.665  17.747   4.713  0.1981 -0.2121  0.1765
41347W        W84338  19.650  15.992   5.970 -0.1158 -0.1431  0.0862
41348W        W84339  33.647  33.723   8.134  0.1613  0.0641  0.1933
41349W        W84340  33.432   0.199  25.097  0.2376  0.1195 -0.2571
41350W        W84341   9.520  13.488   8.803  0.0964  0.3833  0.0572
41351W        W84342  21.917  21.311  26.792  0.3199  0.2619 -0.0260
41352W        W84343   9.278  33.810  28.284  0.1032  0.0693  0.1311
41353W        W84344  21.544   5.923  22.514  0.2577 -0.0591  0.0108
41354W        W84345  31.168  12.200  26.577  0.2038 -0.0082  0.2601
41355W        W84346  23.515  11.092   3.607  0.1065  0.1724  0.2003
41356W        W84347  11.799  12.880   9.465 -0.0470 -0.1296 -0.2449
41357W        W84348   4.275   9.674   1.669  0.0750 -0.3004 -0.1035
41358W        W84349  29.847   2.265   5.030 -0.1549 -0.1908 -0.4875
41359W        W84350  30.121  28.169  26.869 -0.0671 -0.2602  0.1881
41360W        W84351  25.424  16.222   2.117  0.2650 -0.0794  0.2342
41361W        W84352  18.702  22.522   4.774 -0.2735 -0.1346  0.2860
41362W        W84353  10.485  28.456   9.583 -0.0040  0.2098 -0.0355
41363W        W84354  30.852  18.458   1.927 -0.0347  0.0067 -0.1228
41364W        W84355  31.906  22.668   2.510 -0.3461 -0.2025  0.1528
41365W        W84356   6.970  18.884  28.450  0.2696 -0.1295 -0.0041
41366W        W84357  34.002  12.717   9.797 -0.3106  0.0795 -0.0902
41367W        W84358  21.245  31.762   4.058 -0.1313  0.0559  0.0164
41368W        W84359  30.619  13.486   9.144 -0.1276 -0.1550 -0.0478
41369W        W84360  27.004   0.083   3.034  0.2196  0.5118 -0.1331
41370W        W84361   9.897  34.358   1.033  0.2360  0.0716 -0.5189
41371W        W84362   1.466   3.423  10.319  0.1861  0.1852 -0.3142
41372W        W84363   2.799   2.675   8.516 -0.1936  0.1245 -0.2391
41373W        W84364  23.506   2.796   3.616 -0.0585  0.1919 -0.1298
41374W        W84365  28.665  22.085   1.641  0.0104  0.2329  0.0472
41375W        W84366   5.591   7.194   0.194  0.0095  0.1073  0.3706
41376W        W84367   0.605   7.650  10.313  0.0690  0.0402 -0.2048
41377W        W84368  20.268  33.524   1.522 -0.0275  0.0228 -0.0704
41378W        W84369   2.413   1.639   0.654 -0.1528 -0.1944 -0.0613
41379W        W84370  16.664  19.763   0.988  0.0635  0.2835 -0.0122
41380W        W84371   6.162  13.821  10.788  0.1280 -0.1756 -0.0021
41381W        W84372  23.783   3.169  16.852 -0.2305  0.0825  0.0559
41382W        W84373  14.293  30.838  26.988 -0.0005 -0.2700  0.1278
41383W        W84374  31.666  12.164  26.962  0.0805 -0.1883 -0.0243
41384W        W84375  32.856  26.465   6.874  0.2134 -0.1845  0.2039
41385W        W84376  16.515  18.404   3.702 -0.1686  0.0074  0.1747
41386W        W84377  10.818  33.541   5.384  0.0038 -0.0945 -0.1500
41387W        W84378  21.074   5.500   0.965 -0.0640  0.3993 -0.0141
41388W        W84379  27.330   8.192   3.366  0.0558  0.1174 -0.0978
41389W        W84380  13.841   6.679  28.910  0.1048 -0.0151  0.1476
41390W        W84381   0.049  32.422   3.180  0.0165  0.1270  0.1701
41391W        W84382  23.053   4.810  25.964 -0.0861 -0.1652  0.0305
41392W        W84383  24.683  34.793   6.222 -0.0643 -0.1691  0.2750
41393W        W84384  15.217  30.800  19.885  0.0869 -0.1505 -0.0168
41394W        W84385   4.297   9.371   8.684 -0.0960 -0.0523  0.2850
41395W        W84386   7.747  17.794   6.933  0.1507  0.1390 -0.2569
41396W        W84387  15.991   8.933   9.062 -0.1457 -0.2165  0.2937
41397W        W84388  31.401   9.843   5.117 -0.0838 -0.0337 -0.1978
41398W        W84389   8.815   7.863   0.924 -0.1423 -0.4565  0.1174
41399W        W84390  24.428   9.777   2.807  0.0153 -0.1860 -0.0814
41400W        W84391   6.636  29.910   5.580  0.1366  0.0724  0.2926
41401W        W84392  26.086  17.283   5.419 -0.0238 -0.0172 -0.1175
41402W        W84393   2.283  11.009  15.811 -0.1984  0.1026  0.0595
41403W        W84394   2.545  11.976  23.326  0.2056  0.0227 -0.3186
41404W        W84395   7.262  21.689   7.277 -0.1122  0.1787  0.2391
41405W        W84396   1.486  30.135  25.377  0.0186 -0.0069  0.1469
41406W        W84397   2.958  12.457  28.784 -0.1336 -0.2641 -0.0756
41407W        W84398  34.029   3.896   6.969  0.0604 -0.0951  0.0784
41408W        W84399  26.945  10.549   6.881  0.0473  0.0207 -0.2232
41409W        W84400  27.241   9.212  23.633 -0.2351  0.0240  0.0953
41410W        W84401  31.722  22.029  24.591 -0.1939  0.0134  0.0307
41411W        W84402   1.707   2.169   3.371  0.0226  0.0413 -0.2034
41412W        W84403  16.869   7.550  21.550  0.0581  0.0937 -0.2166
41413W        W84404  25.146   0.420   0.258 -0.1274  0.0741 -0.1456
41414W        W84405   0.273  19.055  22.917  0.1223  0.1546  0.0448
41415W        W84406   9.165   2.173  23.823 -0.1627  0.1964  0.2460
41416W        W84407  17.534   5.720   2.789 -0.1350 -0.1505 -0.1495
41417W        W84408  10.762  22.014  21.432 -0.2382 -0.0495 -0.3128
41418W        W84409  26.190   0.101   7.117  0.2409  0.1066 -0.1101
41419W        W84410  28.883  30.830   6.144 -0.0613 -0.0279  0.0871
41420W        W84411  18.437  34.283  25.786 -0.2531 -0.1070 -0.1590
41421W        W84412   6.396   4.529  19.414 -0.2348  0.1587  0.0134
41422W        W84413  25.314   4.608  22.019  0.1035 -0.0914 -0.1041
41423W        W84414  27.691  33.801   5.643  0.1951  0.1249 -0.2914
41424W        W84415  11.987   8.503   0.579  0.0245 -0.0707  0.1280
41425W        W84416  32.100  30.514  27.510  0.0555 -0.0897  0.0282
41426W        W84417  32.595  24.152  19.506  0.1459 -0.4788 -0.0963
41427W        W84418  29.756  10.651  26.387 -0.2145  0.2818 -0.1373
41428W        W84419   5.912   8.066   0.543 -0.3560  0.1227 -0.1329
41429W        W84420  11.449   3.881  28.228 -0.0992 -0.1139 -0.4489
41430W        W84421   5.988   5.737  24.376  0.0069 -0.0612 -0.0627
41431W        W84422  18.239   5.851   8.060  0.0121  0.4159  0.0206
41432W        W84423  14.386   8.526  28.580 -0.1136  0.3326  0.0102
41433W        W84424  29.311  10.084   8.293 -0.1940  0.3897 -0.3886
41434W        W84425  20.356  22.298   2.866 -0.0234  0.2626  0.0009
41435W        W84426   7.560  27.759  24.509  0.0750  0.0325 -0.0837
41436W        W84427  27.772  29.520  25.319  0.1563 -0.1456  0.1227
41437W        W84428  25.860  29.171   4.216 -0.0282  0.1533 -0.1113
41438W        W84429  20.627   8.321  23.459 -0.1063  0.3331 -0.0951
41439W        W84430  23.069  12.533   9.202  0.0358  0.1806  0.0193
41440W        W84431  10.980  11.742   1.995  0.4780 -0.0293 -0.0861
41441W        W84432  11.460   0.344  26.338  0.0095  0.1739  0.1438
41442W        W84433  28.755  33.200   4.539  0.3295  0.0681 -0.0863
41443W        W84434  10.026  27.144   5.065 -0.0861  0.4937  0.0810
41444W        W84435  13.189   8.689  26.333 -0.1231  0.2608  0.1884
41445W        W84436  25.797  10.500   9.226 -0.3228 -0.0440  0.2891
41446W        W84437  18.752  32.218   8.503  0.1348  0.0495 -0.0474
41447W        W84438   4.468  32.392   9.688 -0.0383 -0.1315 -0.0090
41448W        W84439   7.389   3.744  23.266  0.2652  0.1650 -0.2348
41449W        W84440  25.554   4.979   5.684 -0.0559  0.2141  0.1471
41450W        W84441  28.211  34.589  14.411  0.3936  0.0410  0.0560
41451W        W84442  29.318  16.186   9.898 -0.1919  0.1478 -0.1066
41452W        W84443  29.377  12.556   0.054 -0.3658 -0.1237 -0.2076
41453W        W84444  22.093   2.585   0.811 -0.2036  0.0401  0.2942
41454W        W84445  18.171  24.872  16.930 -0.1781  0.2798  0.0588
41455W        W84446  29.375  29.340  20.351  0.0157 -0.0176  0.1410
41456W        W84447  23.866   4.336   4.804 -0.1945 -0.3132 -0.0723
41457W        W84448  23.034   3.371  28.917 -0.1295  0.1276 -0.3534
41458W        W84449  29.547  17.652  25.824 -0.0288  0.0976  0.2595
41459W        W84450  28.217  14.766  25.964 -0.0566  0.2001 -0.1052
41460W        W84451  13.056  23.601  26.098  0.0479 -0.1424 -0.0823
41461W        W84452   8.332  31.928   5.903  0.3659  0.0952  0.0613
41462W        W84453   5.586  10.132   4.320  0.0584  0.1830  0.0334
41463W        W84454  30.864  10.438   8.833  0.0972 -0.0682 -0.1211
41464W        W84455  33.958  16.298  23.594 -0.0154  0.2649 -0.0283
41465W        W84456  32.819  33.844   4.148  0.1937 -0.0516  0.0345
41466W        W84457  31.790  13.030   5.803  0.1348 -0.2781 -0.1355
41467W        W84458  12.638   0.056   8.338 -0.2306 -0.0559  0.2510
41468W        W84459  13.928   9.398  28.289  0.2131 -0.1075 -0.0328
41469W        W84460  33.061  31.557   8.063 -0.0302  0.1588  0.0078
41470W        W84461   4.154  31.013   6.738  0.1274  0.0301 -0.0464
41471W        W84462  25.880  29.617  23.852 -0.1766  0.1794  0.1890
41472W        W84463  17.965  23.223  28.531  0.0490  0.0829 -0.0068
41473W        W84464  28.684  34.704   5.206  0.1578 -0.0255 -0.2838
41474W        W84465  25.643   8.243  28.155  0.0272  0.1596  0.1685
41475W        W84466  20.865  30.343   8.287 -0.1500 -0.1379 -0.0989
41476W        W84467  15.704   6.145   8.862  0.0284 -0.1422 -0.1061
41477W        W84468  24.032  19.751  19.638 -0.0646 -0.1931 -0.0324
41478W        W84469  27.077  28.522  21.899 -0.0055  0.1041  0.3339
41479W        W84470  20.442  12.078  24.336  0.3023  0.0190 -0.1322
41480W        W84471  23.879  26.042  26.733  0.3896 -0.0514 -0.1917
41481W        W84472  30.782  12.511  26.371 -0.1396 -0.1502 -0.1124
41482W        W84473   7.359   4.067  20.238  0.1643  0.0281 -0.1537
41483W        W84474   3.943  21.823  28.229  0.1233 -0.1763  0.0519
41484W        W84475  15.660  25.406   1.554 -0.0664 -0.2212 -0.3728
41485W        W84476  28.480  11.672  23.760  0.1562  0.2408 -0.0397
41486W        W84477  21.113   1.304  20.851  0.0862 -0.2855  0.2629
41487W        W84478  22.872  26.644  26.525 -0.0265 -0.1818  0.0938
41488W        W84479  25.555  10.611  24.393 -0.0217 -0.0705  0.2126
41489W        W84480  21.989  12.621   7.956  0.2216  0.1140 -0.0506
41490W        W84481  27.331   6.032  24.621  0.0956  0.1523 -0.1297
41491W        W84482  11.516  25.639   7.239  0.0018 -0.3425 -0.2529
41492W        W84483  20.623   6.288  24.817 -0.2961  0.2999  0.1519
41493W        W84484   0.409  11.758   4.930  0.0204 -0.3604  0.1721
41494W        W84485  31.119   7.041  23.606  0.2445  0.1335  0.1885
41495W        W84486  34.619  29.255   9.155 -0.1889 -0.2909  0.0624
41496W        W84487  30.092   1.634  13.448 -0.1382  0.0682  0.0416
41497W        W84488   8.577   3.411   6.014 -0.1462  0.1061 -0.0355
41498W        W84489  11.097   5.065   6.891 -0.0408  0.2753 -0.0157
41499W        W84490   2.440  17.444   7.303  0.0380 -0.1142  0.1817
41500W        W84491   9.017  13.023   1.231 -0.0873 -0.0442  0.2572
41501W        W84492  33.660  27.750  20.698  0.0567 -0.0058 -0.0601
41502W        W84493  31.988  10.532  16.501 -0.1888 -0.0498  0.0979
41503W        W84494  18.193  34.048  20.090 -0.1260 -0.0910  0.1390
41504W        W84495  27.499  34.618  27.647 -0.2798 -0.1335  0.0687
41505W        W84496   3.265  26.406  19.882 -0.1498  0.0670 -0.3049
41506W        W84497  31.949  29.996  25.262 -0.2795  0.0145 -0.2314
41507W        W84498  31.195  19.660  18.900 -0.0136  0.0247 -0.0273
41508W        W84499  23.028   5.503   5.679 -0.4926 -0.0070 -0.1594
41509W        W84500  31.944   6.694   4.917  0.0047  0.0766  0.2041
41510W        W84501  30.468  25.208   0.339 -0.1609  0.4334  0.3320
41511W        W84502  22.324   2.814  25.779 -0.1904 -0.1376  0.0885
41512W        W84503  10.516   3.742   2.908  0.0678  0.0992  0.2159
41513W        W84504  24.958   0.507   6.811 -0.0347 -0.4177 -0.3969
41514W        W84505  23.363   9.677   6.462  0.0773  0.1941 -0.1785
41515W        W84506  26.949  11.815  25.998 -0.1006 -0.2752 -0.2562
41516W        W84507  33.640   7.534  28.136 -0.1578  0.2991  0.1020
41517W        W84508   8.807  33.360   8.433 -0.0991 -0.5059 -0.2496
41518W        W84509  28.379  11.233   5.295  0.3545  0.3134 -0.0445
41519W        W84510  27.714   4.188   0.461 -0.2359  0.1227  0.2761
41520W        W84511  28.498   9.939  26.365 -0.4765 -0.3760  0.3464
41521W        W84512  17.717  17.074   3.700  0.1847 -0.0213 -0.2324
41522W        W84513  25.969   5.470   5.962  0.1539  0.1288 -0.1173
41523W        W84514  16.565   6.561  29.038  0.2291 -0.3197  0.0498
41524W        W84515   9.087  26.037  26.932  0.2732 -0.1293  0.0649
41525W        W84516  31.341  13.207  23.836 -0.0826 -0.2889 -0.0134
41526W        W84517  13.305  11.540   6.931 -0.0823 -0.1464  0.0238
41527W        W84518   1.759   5.671   3.789 -0.1092 -0.0194 -0.3463
41528W        W84519  26.439  13.471  20.450 -0.1057  0.2241 -0.0582
41529W        W84520  22.710  16.395  29.243  0.0146  0.3586 -0.0163
41530W        W84521   2.060  11.580   0.115 -0.0587  0.3106  0.0694
41531W        W84522  16.248  11.122   1.307  0.0969 -0.1663  0.0133
41532W        W84523   7.366  27.313   9.186  0.2377 -0.0524  0.1558
41533W        W84524   1.264  25.568   8.733 -0.1173 -0.0561  0.1459
41534W        W84525   8.596  25.801   0.617  0.1301  0.4607  0.2310
41535W        W84526   0.487  19.930  20.784 -0.1492 -0.2054 -0.1784
41536W        W84527  27.726  27.042   2.717 -0.3096 -0.0645 -0.0590
41537W        W84528   5.335  18.520  28.821 -0.2419 -0.1987 -0.0958
41538W        W84529   5.085  17.775  28.197 -0.1661 -0.2933  0.2241
41539W        W84530  23.861   8.945  20.446 -0.0285 -0.1064 -0.1283
41540W        W84531  27.398  15.788   1.192  0.0596 -0.1948  0.3842
41541W        W84532   7.831  26.929   4.241 -0.0500 -0.4847  0.2904
41542W        W84533  10.405  28.214   5.892  0.1667 -0.0468 -0.0436
41543W        W84534   1.628   6.328  20.243 -0.0565 -0.0080 -0.2404
41544W        W84535  25.536  12.641   7.952 -0.3652 -0.1142  0.1411
41545W        W84536   5.432  22.658   5.849 -0.4718 -0.0184  0.1998
41546W        W84537  33.392  30.609   5.666 -0.0289  0.2838  0.0228
41547W        W84538  18.069  13.810   8.519 -0.1377 -0.0114 -0.0126
41548W        W84539  18.444  16.676   1.478  0.4206 -0.0022  0.2320
41549W        W84540   2.541  19.388   0.224  0.0212 -0.4025  0.1176
41550W        W84541  31.218  26.510  27.486  0.1593  0.0168 -0.1603
41551W        W84542  25.983   1.049   7.755 -0.1399  0.0835 -0.0366
41552W        W84543  21.710   8.430  28.050 -0.3077 -0.0370 -0.2742
41553W        W84544  21.828  17.613   0.710 -0.0382 -0.0403 -0.1255
41554W        W84545  17.753  20.169  24.053  0.2282  0.1390 -0.0161
41555W        W84546  29.556  19.374  27.435  0.0281  0.3153  0.0830
41556W        W84547  31.585  15.280  26.470 -0.1056  0.0678 -0.0567
41557W        W84548  28.621   4.633  24.739 -0.1643 -0.0019  0.1215
41558W        W84549  28.307   5.853   7.532 -0.2776  0.0140  0.0999
41559W        W84550   4.153   6.624  23.796 -0.1460 -0.0551 -0.2519
41560W        W84551  19.474   0.754   4.683  0.1119  0.0666 -0.0912
41561W        W84552  10.225   1.527  26.458  0.0618  0.0691 -0.1933
41562W        W84553   3.095  28.291   4.435 -0.3405 -0.1143  0.0642
41563W        W84554   3.839  11.424  21.974  0.2329  0.1638 -0.0326
41564W        W84555  18.629  10.006   5.933  0.0279  0.0889 -0.0436
41565W        W84556  17.485   4.673  27.635  0.1051  0.1151  0.2915
41566W        W84557  15.207   0.932  19.868 -0.0729 -0.1057  0.0370
41567W        W84558   3.490  28.042  21.842  0.2061  0.2102  0.0576
41568W        W84559  24.432   3.432  21.837 -0.1508 -0.0510  0.0810
41569W        W84560  24.958  24.361  23.049 -0.2507  0.1505 -0.0404
41570W        W84561  29.838   9.770   9.523 -0.1529  0.0150 -0.1895
41571W        W84562  26.669  20.891  19.474  0.0830  0.0199 -0.1482
41572W        W84563  22.737  13.412   8.891  0.1207  0.0590  0.0341
41573W        W84564  21.074  28.581   7.784  0.2072 -0.0238  0.0738
41574W        W84565  32.964   1.703  14.423 -0.0605 -0.0638 -0.0957
41575W        W84566  22.407   9.864  16.941  0.0032 -0.0048  0.4903
41576W        W84567   8.968   6.068   3.788 -0.2508 -0.2502 -0.0907
41577W        W84568  32.156  32.399   3.481 -0.0124  0.1723  0.4149
41578W        W84569  19.253   0.091   2.713 -0.1053  0.2317 -0.3926
41579W        W84570   5.335  32.244   6.289 -0.2982  0.2777 -0.0618
41580W        W84571  33.263   5.588  28.592  0.0478  0.0080  0.1269
41581W        W84572  19.037   3.623  15.848  0.0148  0.0933  0.0081
41582W        W84573  25.995  10.478  16.203  0.1994  0.1049  0.0001
41583W        W84574  12.371  31.754   4.205 -0.0321 -0.0243  0.0207
41584W        W84575  24.002  31.118   6.965  0.3146 -0.1800 -0.5059
41585W        W84576  26.032   8.778  21.089 -0.1840  0.0904 -0.0891
41586W        W84577   8.917   3.506   9.006  0.0012  0.3617 -0.1399
41587W        W84578   4.630   7.927  19.966 -0.2345 -0.5558  0.2538
41588W        W84579  12.581  29.208   1.560 -0.0098 -0.0465 -0.1440
41589W        W84580  13.303  27.757   2.062  0.1113  0.0382 -0.1502
41590W        W84581   1.096  29.599  16.272  0.1782  0.0541 -0.3053
41591W        W84582  30.037  25.989  27.595 -0.2195 -0.0570 -0.1577
41592W        W84583  30.448  21.280   9.901  0.2215 -0.1679  0.0835
41593W        W84584  28.815  12.386  28.421 -0.2418 -0.0787 -0.2458
41594W        W84585  30.662  18.042   4.442  0.1066 -0.0574 -0.0249
41595W        W84586  23.157   6.397  27.290  0.1680 -0.1113  0.0442
41596W        W84587   1.343   0.599  17.052 -0.0332  0.1168 -0.2006
41597W        W84588  34.436   5.498   9.294 -0.3046 -0.1090 -0.1391
41598W        W84589  29.492   7.153  26.339 -0.1416  0.1929 -0.0769
41599W        W84590   6.311   6.196   9.445  0.1267  0.0439 -0.0632
41600W        W84591  28.837   4.442   9.251  0.1266  0.0408  0.3512
41601W        W84592  21.635  31.175  24.858  0.0737  0.1713 -0.1153
41602W        W84593  18.504  23.822  21.106 -0.3258 -0.0582 -0.3471
41603W        W84594  33.919   4.453   5.895  0.1991  0.1361 -0.0799
41604W        W84595  12.571  11.983   0.251 -0.1300 -0.0751  0.3646
41605W        W84596   0.209  16.381  16.523  0.0929 -0.2531  0.0047
41606W        W84597  33.607   3.073  27.315  0.0156 -0.0544  0.0915
41607W        W84598  19.716  23.924   3.940 -0.0222 -0.0703  0.2484
41608W        W84599  23.235  21.503  26.958  0.0062  0.0055  0.0838
41609W        W84600   8.895  11.460  20.932 -0.0437  0.1351 -0.1423
41610W        W84601  16.344   1.184   6.320 -0.0267 -0.1167 -0.4126
41611W        W84602   2.967   9.528   7.045 -0.4230  0.1592 -0.1354
41612W        W84603  30.868  32.486  18.710 -0.0556  0.0735  0.0133
41613W        W84604   1.400   5.155  10.155  0.0626  0.0829  0.3252
41614W        W84605  16.658  12.692  17.268 -0.1398  0.3737  0.0037
41615W        W84606  16.363  31.878  28.213  0.2598 -0.2000 -0.0550
41616W        W84607  13.750  14.689  19.807  0.0097  0.0638 -0.1907
41617W        W84608  30.973  11.386   5.942  0.2776 -0.0332  0.0760
41618W        W84609  29.774  12.097   1.365 -0.1559 -0.1429  0.1108
41619W        W84610  19.673  14.187   1.184  0.1863  0.0384  0.0504
41620W        W84611  32.954   5.231   9.239  0.0823  0.1248 -0.3033
41621W        W84612   4.660   8.747   7.556  0.0548  0.0487  0.4404
41622W        W84613   5.342  10.058   8.306 -0.1557 -0.0477 -0.0482
41623W        W84614  22.954   4.701   4.087  0.1471  0.1619  0.0839
41624W        W84615  20.444   7.675   8.506  0.0867 -0.1330 -0.0966
41625W        W84616  24.504  16.602   7.662 -0.0624 -0.1215  0.0633
41626W        W84617  26.704  10.485   2.876 -0.3102 -0.1440 -0.0394
41627W        W84618  27.722   2.513   9.248  0.0824  0.0052  0.0024
41628W        W84619  25.463  16.336  28.925  0.2275  0.0378  0.1728
41629W        W84620   9.170  29.557   0.329 -0.1970 -0.0453  0.1022
41630W        W84621   2.876   8.126   3.652 -0.0357 -0.1523  0.0158
41631W        W84622  25.484  31.576   8.434 -0.1192 -0.4624 -0.4390
41632W        W84623  13.320   7.078  26.064 -0.0801 -0.3607  0.4157
41633W        W84624  16.421   8.545   3.278  0.0724 -0.2245  0.0091
41634W        W84625  15.694  10.871   7.667 -0.0930 -0.3443  0.1130
41635W        W84626   2.267  26.293   9.484 -0.0609  0.2282 -0.3353
41636W        W84627  33.308  26.279   7.604 -0.0180  0.3122 -0.0428
41637W        W84628  33.722  19.327  18.750  0.0455 -0.1276 -0.3275
41638W        W84629   9.420  34.651   2.984 -0.2591 -0.0525 -0.0055
41639W        W84630   2.491   8.164  26.009  0.0283  0.0474  0.2297
41640W        W84631  34.382  33.589   8.806  0.0318 -0.3837 -0.2563
41641W        W84632   4.598  32.057   5.430 -0.3852 -0.0019 -0.2948
41642W        W84633  30.572  33.900  24.120 -0.4377 -0.0956  0.3748
41643W        W84634  23.164   0.971  15.030  0.1378 -0.1784 -0.0540
41644W        W84635  19.809   5.518   0.488 -0.1395  0.1304  0.1177
41645W        W84636  24.608   0.375   7.233  0.0368 -0.0943  0.2376
41646W        W84637  24.396  15.657  17.884 -0.0264  0.1590 -0.1606
41647W        W84638  27.868   7.730   5.342 -0.1308 -0.3442  0.0356
41648W        W84639  16.630  34.107  15.026  0.1125 -0.1684  0.2305
41649W        W84640  33.812   6.336   3.163  0.4028 -0.0182 -0.3505
41650W        W84641  28.548  19.382  23.848 -0.5344 -0.3145  0.1558
41651W        W84642  34.086  24.710  16.269 -0.0635  0.0864 -0.0701
41652W        W84643  18.568  10.526  20.831 -0.0680  0.0239 -0.0340
41653W        W84644  19.602  11.830   3.663 -0.3621 -0.1097 -0.1049
41654W        W84645  12.915  34.005   5.748 -0.1147 -0.0624 -0.1271
41655W        W84646  10.813   1.986  10.013  0.2799 -0.0712 -0.0096
41656W        W84647  20.250   3.479  20.784  0.1220 -0.1765  0.1492
41657W        W84648  24.693  26.350  21.988 -0.1443  0.1035 -0.3683
41658W        W84649  12.011   5.249   7.184  0.0646  0.0922 -0.3183
41659W        W84650  30.720  27.219   8.481  0.2633 -0.0124  0.1641
41660W        W84651  16.296  27.234  22.249 -0.0850  0.0497 -0.0291
41661W        W84652  25.627   2.230  25.484  0.1883 -0.1287  0.0133
41662W        W84653  33.947  12.016   0.977 -0.1970  0.1260 -0.2206
41663W        W84654  22.020   3.959  18.161  0.0459  0.1732 -0.3063
41664W        W84655   6.598   0.340   0.347 -0.0623  0.0932 -0.0740
41665W        W84656  31.262   3.858  23.357 -0.0635 -0.0089  0.1430
41666W        W84657   0.265   1.350  27.257  0.1171 -0.1421  0.0021
41667W        W84658  14.015   5.992  18.696 -0.1473  0.2302 -0.0725
41668W        W84659  26.109   2.019  14.376 -0.1063 -0.2751  0.3581
41669W        W84660  28.301  29.581   3.823  0.0685 -0.0560  0.0121
41670W        W84661  31.834   1.191   3.958  0.1427  0.2878  0.0440
41671W        W84662   2.605  11.310  10.962  0.1639  0.1164  0.0992
41672W        W84663  18.421   6.044  13.651  0.3584 -0.1192 -0.4355
41673W        W84664   2.890   8.848   0.282 -0.0040  0.0837  0.1817
41674W        W84665  26.093  33.932   6.038 -0.0056 -0.0143 -0.1490
41675W        W84666  18.975   8.058   2.570  0.0095  0.4282  0.1453
41676W        W84667   4.804  12.657   9.671 -0.1460 -0.1240 -0.1603
41677W        W84668  29.707  31.767  24.024  0.0960 -0.0018 -0.0213
41678W        W84669  20.506  12.045  21.447 -0.0239  0.0501  0.0720
41679W        W84670   0.166  17.277  26.640  0.3793 -0.1533  0.1243
41680W        W84671  23.781   2.131   4.347 -0.0929 -0.1273 -0.1889
41681W        W84672  21.788  29.975   3.147  0.3245  0.1907 -0.3415
41682W        W84673  28.455  26.461   1.411  0.2267 -0.1794 -0.2963
41683W        W84674  28.148   0.727  27.421 -0.0236 -0.2215  0.0306
41684W        W84675  25.588   4.048   8.527 -0.3173 -0.0529 -0.1664
41685W        W84676   1.444  25.267   0.911  0.1802  0.3430 -0.0394
41686W        W84677  33.839   0.471   8.858  0.2459  0.2015 -0.0578
41687W        W84678  21.446  33.206  28.017  0.1786  0.2369 -0.2848
41688W        W84679   1.475  34.057  10.091  0.3999  0.1235  0.2388
41689W        W84680  26.650   3.529  16.005  0.1112 -0.2238 -0.3026
41690W        W84681  11.800   8.943   3.050 -0.0272 -0.1876 -0.3525
41691W        W84682   1.066   5.491  27.696  0.1301  0.1408 -0.0936
41692W        W84683  26.690   6.982  26.646  0.0186 -0.1051  0.0224
41693W        W84684  27.005  20.703  23.909 -0.0334 -0.0789 -0.2059
41694W        W84685  33.894  16.328  26.136 -0.0784  0.4437  0.1689
41695W        W84686  27.470   6.290  27.547 -0.1536 -0.0696  0.1315
41696W        W84687  25.984   1.919  25.539 -0.1030 -0.0380 -0.1470
41697W        W84688  16.125  10.134  15.699 -0.0989  0.1596  0.2291
41698W        W84689  30.861  30.401  15.699 -0.0744  0.1667 -0.1224
41699W        W84690  17.946   0.324   9.520  0.1141 -0.0289  0.0782
41700W        W84691   4.674   3.837   8.560  0.2361 -0.2485  0.3460
41701W        W84692  34.402   1.840  26.046  0.0248 -0.2375  0.1916
41702W        W84693   0.786  34.295  22.138  0.2590  0.0161 -0.1211
41703W        W84694  24.495  26.860   7.541  0.0762  0.3112  0.0023
41704W        W84695  31.116  29.515  20.294 -0.0238  0.0023  0.0406
41705W        W84696  31.951  22.011   1.401  0.0816 -0.0013  0.3578
41706W        W84697   5.441   4.111   2.443  0.2216 -0.0360  0.0139
41707W        W84698  30.185  34.011   4.454  0.2377  0.2302  0.1475
41708W        W84699  12.451  31.302  24.590  0.0926  0.0739 -0.1387
41709W        W84700  34.192  31.608   7.738  0.1376  0.1031  0.0064
41710W        W84701  29.717  30.214  24.016 -0.3185 -0.0561 -0.1896
41711W        W84702  26.339  15.667   0.206  0.3585  0.1849  0.1676
41712W        W84703  31.450  31.721   7.663  0.1406 -0.2890 -0.1170
41713W        W84704   4.212   2.277  28.706 -0.1142  0.1013 -0.1949
41714W        W84705  26.323  17.022   7.187  0.2837  0.0036  0.0061
41715W        W84706  10.669   7.236   2.038  0.1071 -0.0980 -0.1554
41716W        W84707  34.216  13.907  20.121  0.1393  0.0658 -0.2857
41717W        W84708  32.300  19.417   6.501  0.1693  0.1623  0.0697
41718W        W84709  28.765  14.383   6.619 -0.0625  0.0898  0.1457
41719W        W84710  28.133  34.209  16.748 -0.2159 -0.1749  0.1269
41720W        W84711   6.291  31.490  28.177  0.1477 -0.0110  0.3758
41721W        W84712  30.470   7.655   9.159  0.0997 -0.1049 -0.1419
41722W        W84713  27.873  13.078   1.207 -0.0725  0.1028 -0.0147
41723W        W84714  21.702  11.708  26.748 -0.0644 -0.1337  0.0543
41724W        W84715   4.680  30.446   1.526 -0.1591  0.0323  0.1899
41725W        W84716   4.978   6.611  27.624  0.0680  0.2080 -0.0218
41726W        W84717  23.060  10.924  24.456 -0.2170  0.1899  0.2785
41727W        W84718  31.777  14.276  26.419 -0.0426  0.1626 -0.5889
41728W        W84719  19.363   0.275   6.675 -0.0838 -0.0122 -0.1939
41729W        W84720  31.103   4.609   0.356  0.0169 -0.0451 -0.0382
41730W        W84721  24.822  15.025  25.599  0.0519  0.1483 -0.1241
41731W        W84722   4.246  23.802  28.934  0.3418 -0.2374 -0.2189
41732W        W84723  24.282  24.300   3.320 -0.3562 -0.0043  0.2322
41733W        W84724   3.851  15.764   0.608 -0.2368  0.2130  0.1615
41734W        W84725  15.574  12.535   1.175 -0.1155 -0.0247  0.2094
41735W        W84726  32.107  12.906   2.497 -0.2605  0.2986 -0.2239
41736W        W84727  17.907   3.212  27.503 -0.4589  0.0421 -0.0869
41737W        W84728  20.027  10.368   5.724  0.1074  0.2620 -0.0326
41738W        W84729  23.553   6.326  28.887 -0.2958 -0.2414  0.0024
41739W        W84730   6.640   3.721   6.689 -0.0183  0.1197 -0.0197
41740W        W84731  31.413   6.169   8.658 -0.1253  0.0738 -0.1864
41741W        W84732  30.082  28.029  24.108  0.1649 -0.0001  0.0370
41742W        W84733  22.990  34.375   6.404  0.0485  0.2319 -0.0848
41743W        W84734   1.854  32.383  18.538  0.0299  0.1644 -0.1512
41744W        W84735   3.543  34.677  18.601 -0.1141 -0.0743 -0.1788
41745W        W84736  12.445  20.532  27.302 -0.2247 -0.1564  0.1692
41746W        W84737  26.729   7.387  14.357  0.1653 -0.0557 -0.2730
41747W        W84738  33.909   1.870   5.810  0.2204 -0.1765  0.2281
41748W        W84739   5.951  15.909   2.317 -0.1236  0.0451 -0.0719
41749W        W84740  19.831  12.752   1.242  0.0295 -0.0068 -0.1373
41750W        W84741  29.707   4.568   7.327  0.2643 -0.1018  0.1031
41751W        W84742  24.585  34.306   3.205  0.0360  0.5505 -0.4977
41752W        W84743   0.321  17.658  23.028 -0.1030 -0.0583  0.0661
41753W        W84744  26.188  10.673  27.556 -0.1748 -0.1138 -0.1154
41754W        W84745  24.666   5.244   4.405 -0.1306  0.3668  0.2127
41755W        W84746  27.118   2.173  27.224 -0.0580 -0.2815 -0.2322
41756W        W84747  32.217  33.311   2.978  0.0583  0.0262 -0.0359
41757W        W84748   3.402  15.381   2.564 -0.1669  0.1246  0.1560
41758W        W84749  26.207  12.287   7.152  0.2592  0.2784  0.0807
41759W        W84750  31.555   8.385   6.615  0.4042  0.3474 -0.0895
41760W        W84751  23.924  20.221   5.730 -0.0752  0.2223  0.1740
41761W        W84752   5.436  26.814   3.812  0.0853 -0.1483 -0.1535
41762W        W84753   8.024  10.123  24.299 -0.1226 -0.0433  0.1635
41763W        W84754  25.850  27.165   2.827 -0.0581 -0.2475 -0.1000
41764W        W84755   8.799  32.907  25.106 -0.1902  0.0259 -0.0131
41765W        W84756   9.943   6.832  11.224 -0.1080  0.1082  0.0667
41766W        W84757  34.472  15.957   2.881 -0.1131  0.3309  0.1612
41767W        W84758  17.274  29.630   8.039  0.1968 -0.1974  0.0955
41768W        W84759  22.478  33.735  22.412 -0.1090 -0.0740 -0.1938
41769W        W84760  27.684  10.832   0.526  0.0945  0.2161 -0.3990
41770W        W84761  28.566  30.069   1.344  0.0577  0.4361 -0.1108
41771W        W84762  25.093  33.430   4.850  0.2716 -0.0448 -0.0281
41772W        W84763   7.733   8.177  28.923 -0.1139  0.0024 -0.0088
41773W        W84764  28.401  28.503   1.881 -0.1064 -0.5239 -0.0331
41774W        W84765  29.383  11.730   5.801 -0.0566 -0.0598 -0.1830
41775W        W84766  27.012  12.335   5.007  0.2151  0.2380  0.0073
41776W        W84767  30.560  32.516  27.439  0.0557 -0.0746  0.1954
41777W        W84768   6.613   9.575  19.360 -0.0527  0.0314  0.4488
41778W        W84769  23.642  17.999  24.319 -0.3203 -0.1208 -0.1418
41779W        W84770  24.238  11.449   8.274  0.1128  0.5131  0.1242
41780W        W84771  17.460  16.792   8.632 -0.0170 -0.0303 -0.5174
41781W        W84772  28.567   5.902  27.444  0.0505 -0.0465  0.0230
41782W        W84773  19.269  27.183  25.948  0.2978  0.0341  0.2478
41783W        W84774   2.388   5.090   8.298  0.2522  0.0862  0.1849
41784W        W84775  28.531  20.166   5.019 -0.0431  0.2578 -0.0675
41785W        W84776   5.865  17.829   2.009 -0.2296 -0.1145  0.0341
41786W        W84777  27.698  12.825   5.099  0.2424  0.0576 -0.0971
41787W        W84778   9.958  15.361  27.893 -0.3542 -0.2768  0.0724
41788W        W84779  27.714   2.141   3.072  0.0241 -0.1342 -0.0765
41789W        W84780  25.940  11.815  28.770  0.4063 -0.0223 -0.2584
41790W        W84781  29.609  13.619   1.159 -0.2834  0.2676 -0.0589
41791W        W84782  26.477  13.843   6.272  0.0387 -0.0651  0.1828
41792W        W84783  34.410  34.350   9.618  0.0477 -0.2492 -0.1801
41793W        W84784  16.351   7.307  28.891 -0.0945  0.0680  0.3678
41794W        W84785   6.186  33.892   5.356  0.1877 -0.0723  0.3217
41795W        W84786   8.647   6.679   4.968  0.1875  0.1609 -0.1261
41796W        W84787   4.176   5.002  22.932  0.2208  0.0238 -0.1786
41797W        W84788  21.519  25.245  23.533  0.2471  0.3532 -0.2924
41798W        W84789  19.996  17.606  26.184  0.0095  0.0461 -0.2525
41799W        W84790  24.005   6.781   8.364 -0.1906  0.0377 -0.0043
41800W        W84791   4.797   2.992   4.728  0.0042  0.2323 -0.1603
41801W        W84792   2.900  30.693  21.066 -0.0918 -0.1794 -0.1479
41802W        W84793   3.413   2.400  24.494  0.1326  0.2028  0.2818
41803W        W84794  22.752   5.962  26.709  0.0473 -0.0600  0.1943
41804W        W84795  27.957  26.809   1.496 -0.0899  0.5699 -0.0281
41805W        W84796  33.933   4.343   0.619 -0.4108  0.1947 -0.1684
41806W        W84797  28.495   5.566   3.836  0.1468 -0.2441 -0.1206
41807W        W84798  29.916   9.770   0.338  0.1761  0.4731 -0.1724
41808W        W84799   2.323   3.909  26.939 -0.1277  0.2572 -0.0538
41809W        W84800  28.888  29.768   5.500 -0.3127  0.0189  0.1659
41810W        W84801  34.698   3.125  27.537  0.2704  0.2421  0.0862
41811W        W84802  11.213   9.821   1.664  0.0443  0.1833 -0.0497
41812W        W84803  20.527  11.460  26.565  0.0403 -0.1752  0.3242
41813W        W84804  32.682   9.816   3.464 -0.2510 -0.6015  0.4882
41814W        W84805  32.774  21.631   3.487 -0.3864 -0.0597 -0.1102
41815W        W84806  34.725  31.811  28.408 -0.0022  0.0258 -0.0888
41816W        W84807  29.749  32.273  27.168  0.0263  0.0259 -0.2375
41817W        W84808  32.468   8.251  23.352  0.1671 -0.0681  0.2788
41818W        W84809  32.083   9.356  22.347 -0.1002 -0.1235 -0.0547
41819W        W84810   9.252   0.335   8.579  0.1680 -0.0107 -0.0601
41820W        W84811  22.428  11.615   3.406 -0.2627 -0.1988 -0.0115
41821W        W84812  18.782   3.259   6.555  0.0581 -0.0367  0.0352
41822W        W84813  20.317  14.452   8.795  0.3238 -0.0151 -0.0901
41823W        W84814  32.261   8.612  17.240  0.1541  0.0646  0.1818
41824W        W84815  16.036  23.115   2.291 -0.3047 -0.2904 -0.0630
41825W        W84816   0.243   2.696   2.796 -0.5296 -0.1519 -0.0973
41826W        W84817   9.036  10.166  10.680 -0.2380 -0.3739  0.0239
41827W        W84818  22.454   4.030   1.965 -0.0953  0.3373 -0.0544
41828W        W84819  29.200   7.544   1.077 -0.1114 -0.1706  0.2947
41829W        W84820  25.477   3.511   5.436 -0.0220 -0.1500  0.0732
41830W        W84821  22.221   6.561   8.105 -0.1305  0.0470  0.1668
41831W        W84822  29.437  33.524   8.540 -0.1884  0.2023 -0.1376
41832W        W84823  33.891  27.345  28.125  0.3664 -0.0583  0.2174
41833W        W84824  34.064   5.160   1.894  0.1550 -0.2628 -0.0752
41834W        W84825  30.349  32.922  17.886 -0.1800 -0.1808  0.1503
41835W        W84826  16.851  21.271  20.061 -0.0084  0.1647 -0.0348
41836W        W84827   7.090   3.469  26.410  0.0967  0.0994  0.2919
41837W        W84828  19.496   6.841   9.629  0.1199 -0.0103 -0.0307
41838W        W84829   8.284  13.952  10.884 -0.1374 -0.1546  0.1410
41839W        W84830  14.690  30.311  26.309 -0.0034 -0.2955 -0.0404
41840W        W84831  30.956  33.723   3.220 -0.1260 -0.3438  0.0838
41841W        W84832   4.152   8.844  19.759  0.2632 -0.1872 -0.1516
41842W        W84833   7.930  13.438  21.993  0.2147  0.1292 -0.2837
41843W        W84834   6.692  10.396  21.902  0.0517  0.1270 -0.0219
41844W        W84835  30.498   7.042   9.511 -0.2368  0.1605  0.0453
41845W        W84836  30.334  30.202  15.717 -0.0148 -0.1891 -0.1390
41846W        W84837   3.700   6.789  28.320  0.4176 -0.3490  0.1199
41847W        W84838  32.214   3.994  27.343  0.0152  0.0622  0.0540
41848W        W84839   9.154   4.896  19.520 -0.0093 -0.0444  0.0290
41849W        W84840  22.938   2.537  21.563 -0.2590 -0.0669 -0.1579
41850W        W84841   3.663   2.128   6.720  0.1376 -0.0105 -0.1808
41851W        W84842  27.059  29.050   6.779 -0.0385 -0.0917  0.0612
41852W        W84843  24.766  32.608  28.968  0.1009 -0.2796 -0.0537
41853W        W84844  23.012  15.321   6.346  0.1799  0.1230  0.1395
41854W        W84845  28.943  32.298   4.967 -0.0531  0.1452 -0.0793
41855W        W84846   7.784   0.955   4.798  0.1032  0.0054 -0.1580
41856W        W84847  15.671   7.596  21.392 -0.0171  0.3885 -0.2687
41857W        W84848  19.112   4.726   8.219 -0.2307 -0.0390 -0.0194
41858W        W84849  26.027   2.307   8.943 -0.0047 -0.2664 -0.0071
41859W        W84850  32.486  14.694  22.596  0.0380 -0.0468  0.5534
41860W        W84851  30.407   6.110   3.008  0.1955 -0.0408  0.1748
41861W        W84852  24.320  17.908   9.483  0.0364  0.0262  0.0330
41862W        W84853  20.649  34.141  24.438  0.0538 -0.0711  0.0819
41863W        W84854   5.439   5.996   1.982 -0.1404  0.0678 -0.0892
41864W        W84855   5.036   8.219   9.302  0.3378  0.1135 -0.2687
41865W        W84856  34.193  33.509  26.214  0.2303 -0.1011  0.2738
41866W        W84857  25.820  22.386   3.727 -0.1895  0.1020 -0.0286
41867W        W84858  32.520  34.212   9.239  0.0293  0.0695 -0.2453
41868W        W84859  21.656  10.149  18.828 -0.1443 -0.2361  0.0596
41869W        W84860  10.117   3.428  28.865  0.2606 -0.2553 -0.1103
41870W        W84861  34.626  22.285   3.176  0.1692 -0.1048 -0.0558
41871W        W84862   8.161  20.726   0.690 -0.1080 -0.1388 -0.5312
41872W        W84863   3.113  34.756  24.909  0.0273 -0.1391 -0.0447
41873W        W84864   5.508  11.837   4.397 -0.1566 -0.2356  0.1364
41874W        W84865  28.491  11.196   4.596  0.1624 -0.0847  0.0001
41875W        W84866  22.768  19.348  24.812 -0.0585  0.0479  0.1301
41876W        W84867  17.624   1.388   8.171 -0.0368 -0.2927  0.2085
41877W        W84868  21.227  14.257   3.629 -0.3305 -0.1260  0.2739
41878W        W84869  29.519  12.816   1.294  0.1109  0.0215 -0.0786
41879W        W84870   0.175  32.950   7.059  0.1501 -0.0115  0.0310
41880W        W84871  20.591   4.376   0.975 -0.4480  0.1290 -0.1460
41881W        W84872  34.227  30.146   3.453 -0.0100  0.0530  0.1411
41882W        W84873   1.880  32.066   0.847  0.1129 -0.0354  0.2807
41883W        W84874   7.239   9.119   6.674 -0.0242  0.0827  0.0164
41884W        W84875   1.500  31.349  22.047 -0.1359  0.0714  0.2072
41885W        W84876  34.203   4.031   0.350  0.1814  0.1075  0.0339
41886W        W84877  24.662  19.960  28.213  0.2179 -0.3579  0.2352
41887W        W84878  28.065   0.357  27.084  0.1674 -0.0036  0.3540
41888W        W84879  17.029  31.881   2.522 -0.0827 -0.2306  0.2536
41889W        W84880  23.619  10.145  29.217  0.1130  0.1710 -0.1201
41890W        W84881   4.844  34.634   3.288 -0.0940  0.3223 -0.1459
41891W        W84882  27.534  15.605   1.696  0.2804 -0.2564 -0.0280
41892W        W84883  14.426  12.865   2.565  0.0593 -0.2030  0.0578
41893W        W84884  28.544  33.945   2.000 -0.2698 -0.1385 -0.0717
41894W        W84885  14.793  12.259   1.873 -0.2098  0.2538  0.1925
41895W        W84886  21.555   5.293   6.689  0.1683 -0.3142  0.1734
41896W        W84887   1.548  26.347  18.208  0.1543  0.1848 -0.1919
41897W        W84888  24.122  19.896   7.338 -0.3293 -0.2237  0.1385
41898W        W84889  22.480  15.789  27.818 -0.0832  0.0943  0.0723
41899W        W84890  13.170  23.664   2.095  0.0310  0.1529 -0.1755
41900W        W84891  31.002  34.313   0.647 -0.0278  0.1163 -0.1959
41901W        W84892   6.702   2.654   5.496  0.2247  0.0532 -0.0704
41902W        W84893   6.528  21.507   3.441  0.1257  0.0647 -0.0326
41903W        W84894  34.311  21.476   2.826  0.3117  0.2345  0.0709
41904W        W84895   1.348  13.134   3.238 -0.2802  0.2471 -0.3764
41905W        W84896  33.612   5.792   3.064  0.3518  0.3228 -0.1360
41906W        W84897  17.062  25.178   7.397 -0.0418 -0.1113  0.1324
41907W        W84898   5.752   9.353   9.443  0.0850  0.0738  0.0853
41908W        W84899  30.002   3.993   8.199  0.1529  0.2093 -0.1700
41909W        W84900  26.554  28.707   7.931  0.4463  0.1201  0.0291
41910W        W84901  31.649   7.156  26.215 -0.3941  0.1559  0.0260
41911W        W84902  19.137   4.181  27.330  0.2231 -0.0929  0.2040
41912W        W84903  33.355   6.312   5.337 -0.2072 -0.2240  0.1090
41913W        W84904  33.577  17.950   4.433 -0.1443 -0.0614 -0.1269
41914W        W84905  25.923  27.120   6.212 -0.0138  0.0106  0.1673
41915W        W84906   4.955   9.466   5.259 -0.2822  0.2822  0.1648
41916W        W84907  28.592   4.922  25.321  0.2785 -0.1840  0.2637
41917W        W84908   9.425   2.921   3.363  0.2025 -0.1953 -0.1835
41918W        W84909  30.738  31.397   3.266  0.1676  0.0969 -0.2504
41919W        W84910  26.155  21.073   5.459 -0.1928 -0.0064  0.2426
41920W        W84911  30.250  24.843   6.755  0.0917 -0.1686 -0.0246
41921W        W84912  21.894  10.930   3.556  0.0435  0.0370 -0.0153
41922W        W84913  18.848   5.987   1.127 -0.0829  0.2991 -0.1256
41923W        W84914  26.971  16.791  22.679 -0.2434  0.1789 -0.0761
41924W        W84915   1.775   3.460   8.098  0.1691  0.1554 -0.1075
41925W        W84916  30.558  30.963  24.367  0.0061  0.2115  0.1881
41926W        W84917  25.080   8.258   8.996  0.1259  0.2100 -0.0552
41927W        W84918  28.058  11.479   9.228 -0.1183  0.2528 -0.0658
41928W        W84919   3.357   1.760  19.795  0.0059  0.2107 -0.0168
41929W        W84920  22.998  13.300   6.564  0.0369 -0.0371  0.0124
41930W        W84921  20.721  24.682   3.667  0.0019 -0.0401 -0.0470
41931W        W84922  28.875  11.600   8.848 -0.1232  0.2108 -0.0459
41932W        W84923  30.254  13.990  16.355 -0.1824 -0.1051 -0.1353
41933W        W84924  24.091  17.041   1.745  0.1418 -0.1610 -0.1376
41934W        W84925  12.314   5.994  26.047  0.1760  0.0452 -0.1099
41935W        W84926   8.468  28.908  23.758  0.2650 -0.0824  0.2370
41936W        W84927  24.494  20.767  27.786 -0.2915  0.1901 -0.0187
41937W        W84928  20.744  10.798   7.171  0.2309 -0.0920  0.2316
41938W        W84929  30.639  11.625   9.859 -0.4041 -0.0285 -0.0190
41939W        W84930  33.485  17.107   8.173  0.3650  0.0974 -0.2502
41940W        W84931   3.225   8.468   8.204  0.0261  0.1764 -0.0799
41941W        W84932  13.366  13.650   8.202  0.3344  0.0838 -0.0033
41942W        W84933   3.754   5.342   1.995 -0.0430  0.1452 -0.1721
41943W        W84934  25.941   7.866   6.399  0.1998  0.0808  0.1964
41944W        W84935  18.459   6.356  25.266 -0.2971  0.0026  0.0223
41945W        W84936   2.483  30.274  14.578 -0.1008 -0.2505  0.0335
41946W        W84937   1.543  14.082   5.440 -0.0968 -0.1584 -0.1196
41947W        W84938   4.064   5.205   9.360  0.2829  0.4292 -0.2938
41948W        W84939  21.904   7.926   1.911  0.0551  0.1566 -0.4243
41949W        W84940   1.677  13.562   6.474 -0.1523 -0.0271  0.3597
41950W        W84941  18.804  18.820  23.617 -0.1718  0.1327 -0.1818
41951W        W84942  28.353  29.495  18.239  0.1738 -0.1224  0.0272
41952W        W84943  20.793   0.041   9.272  0.1654  0.2667  0.3228
41953W        W84944  33.033  20.610  23.372 -0.3412 -0.0636 -0.3169
41954W        W84945  17.108   9.100   2.050 -0.0897  0.1142 -0.0013
41955W        W84946   7.483   2.865  28.107  0.1293 -0.0009 -0.2683
41956W        W84947  10.784  31.571   7.020 -0.0012 -0.1204  0.0135
41957W        W84948  25.936  16.157  23.819  0.0472  0.2945 -0.1307
41958W        W84949  29.957   6.410  23.663 -0.0993  0.1045  0.0522
41959W        W84950   7.592   0.559   8.977 -0.2951  0.0415  0.1906
41960W        W84951  26.473  26.374   6.582  0.0474 -0.3513 -0.0063
41961W        W84952   2.025  10.813   6.210 -0.4274  0.4054  0.2731
41962W        W84953  14.266   4.066  11.387  0.2472 -0.0015 -0.2224
41963W        W84954   5.982  31.164  17.185  0.4111  0.2261 -0.0608
41964W        W84955   0.345   9.683   4.792  0.0282  0.1059 -0.1214
41965W        W84956  32.254   0.447   8.130  0.1479 -0.0148 -0.1687
41966W        W84957  17.093  13.406  16.918  0.0766 -0.3634  0.3522
41967W        W84958  14.770   3.853   9.603  0.1663  0.0015  0.1636
41968W        W84959  30.012   6.672  29.030 -0.1249  0.0923 -0.0792
41969W        W84960  11.954  11.732  25.776 -0.2431 -0.1052  0.2246
41970W        W84961   9.856  29.643   5.884  0.2733  0.2316  0.4188
41971W        W84962  17.301  12.282   5.519  0.0102  0.2995  0.1025
41972W        W84963   0.377  15.599  26.370 -0.0905 -0.1185 -0.1570
41973W        W84964  29.583  11.466   7.723 -0.2506 -0.1635 -0.0015
41974W        W84965  18.712   1.860   2.796 -0.0020 -0.2247  0.0465
41975W        W84966   2.600  33.019   3.146 -0.0934  0.1893 -0.3173
41976W        W84967  19.800  14.154  27.049 -0.1672  0.2084  0.0908
41977W        W84968  23.231  30.875   8.770  0.2716 -0.1039  0.2350
41978W        W84969  23.954   4.819   3.974  0.1327  0.4613  0.0179
41979W        W84970   7.670   2.047   2.933 -0.2315  0.2937  0.0492
41980W        W84971  28.207   1.146   3.229  0.0728  0.0181  0.1884
41981W        W84972  20.546  30.466  27.685  0.2738 -0.1868 -0.2487
41982W        W84973  10.267  33.688  25.763  0.1182  0.1442 -0.0396
41983W        W84974  25.364  17.627   4.795  0.0938 -0.2708  0.1193
41984W        W84975   3.507   2.183   8.922 -0.1128  0.2198  0.0480
41985W        W84976  32.829  24.846  16.417  0.1443 -0.1025 -0.0865
41986W        W84977   8.939  10.196  17.049 -0.0896  0.1329  0.2430
41987W        W84978  28.687   5.625   7.206 -0.0272 -0.1935 -0.5648
41988W        W84979   7.557  29.781  19.625  0.1580 -0.0898  0.1586
41989W        W84980  33.282   5.499  25.927 -0.0975 -0.2297 -0.1902
41990W        W84981  24.747  15.155   8.162 -0.1456  0.1098 -0.2505
41991W        W84982  25.780   7.045   8.996  0.4186  0.1719 -0.0371
41992W        W84983   4.136   1.448  26.608  0.0926  0.2807 -0.2155
41993W        W84984  26.587   4.868   0.116  0.3034  0.0201  0.1309
41994W        W84985  33.459  19.499  17.632 -0.1266  0.2041  0.0225
41995W        W84986  17.935  17.439   6.816 -0.2128  0.3036 -0.0844
41996W        W84987   2.927  15.012   4.314  0.3337 -0.2294  0.1135
41997W        W84988  26.287  34.406  25.183 -0.1432  0.1226 -0.0914
41998W        W84989  32.072   2.177  20.453  0.5310 -0.0470 -0.1518
41999W        W84990   4.718  32.460  28.670  0.2823  0.3182 -0.1818
42000W        W84991  25.462  31.930   9.013  0.0474  0.1234  0.0280
42001W        W84992   1.275  21.818  24.395  0.2098 -0.0771  0.2198
42002W        W84993  28.323  18.392   5.234  0.0304 -0.2896 -0.0653
42003W        W84994  33.914  10.478   5.114 -0.0045  0.1895  0.2682
42004W        W84995  27.061   0.486   3.368 -0.1368  0.0169 -0.1888
42005W        W84996  30.296  20.863  29.108 -0.0935  0.0936 -0.6014
42006W        W84997  34.764   0.123   3.583  0.0252 -0.1095  0.0404
42007W        W84998  14.630   6.852   2.896 -0.2798 -0.0932 -0.0058
42008W        W84999   5.279   7.305   9.003 -0.0920 -0.0059  0.1510
42009W        W85000   2.654  21.185   9.840 -0.2348 -0.0597 -0.4662
42010W        W85001  23.255   9.790   4.392  0.0366  0.3554 -0.2101
42011W        W85002  21.171   1.619   0.376 -0.0579 -0.0917 -0.0837
42012W        W85003   0.670  28.730  27.422 -0.0811 -0.0887 -0.3142
42013W        W85004   9.528   1.279   6.595  0.0254 -0.1248 -0.0302
42014W        W85005   1.009  34.691   7.359  0.1702  0.1380 -0.1578
42015W        W85006  33.841  24.511  28.545 -0.0637  0.1249  0.2356
42016W        W85007  27.519   1.107   5.459  0.0075  0.2030  0.0742
42017W        W85008   6.002  11.942   0.034  0.0983 -0.1627  0.0871
42018W        W85009  27.980  29.297   6.437 -0.3223  0.2638 -0.3792
42019W        W85010  10.033  21.336   1.945  0.1927  0.1369  0.0129
42020W        W85011  33.536   7.415   3.706 -0.0035  0.1329 -0.2995
42021W        W85012  28.498  15.701  23.086  0.1358 -0.0920  0.3918
42022W        W85013  27.481  15.473   9.289 -0.2662 -0.3583 -0.2165
42023W        W85014  27.416  30.522   2.572 -0.1020  0.2650 -0.4161
42024W        W85015  21.906  15.760   7.125  0.0335 -0.3046 -0.2955
42025W        W85016  24.124  33.197   2.508  0.1163  0.1642  0.3217
42026W        W85017  20.225  24.132   1.746 -0.0209 -0.0397 -0.1969
42027W        W85018  29.551  32.643   8.075  0.0650 -0.0274 -0.1386
42028W        W85019   8.046  28.455  28.620  0.1543  0.1614 -0.1774
42029W        W85020  24.753  25.086  24.517 -0.0577 -0.1322  0.2162
42030W        W85021  29.849  11.079  17.944 -0.3493  0.2656  0.0315
42031W        W85022  26.394   2.914  23.634  0.1632  0.1658  0.0315
42032W        W85023  27.482  10.745   6.116  0.1802  0.3109  0.0404
42033W        W85024   8.386   2.900  16.001  0.0374  0.0764  0.2428
42034W        W85025  33.786  28.327  18.912 -0.2448 -0.0472  0.4250
42035W        W85026  25.624   9.814  28.830 -0.0086 -0.1155 -0.0743
42036W        W85027   0.986  11.393  20.296  0.2780  0.3208 -0.2212
42037W        W85028   0.610  27.344   2.812 -0.1789  0.3111  0.2131
42038W        W85029  27.588  23.043   0.314  0.2899  0.0727  0.3064
42039W        W85030   3.889   3.493  24.745 -0.0437 -0.0399  0.2291
42040W        W85031  27.581   4.291   5.580 -0.0374 -0.1858  0.0767
42041W        W85032   5.533  15.334   7.207  0.1256 -0.2239 -0.4765
42042W        W85033   6.340  15.255  26.612 -0.0827 -0.0631 -0.0385
42043W        W85034  21.022   2.588   3.058  0.2288 -0.1836  0.0382
42044W        W85035  30.781  33.364   0.807  0.0870 -0.3091  0.2021
42045W        W85036   6.466  22.843  27.679 -0.0966 -0.2127 -0.0575
42046W        W85037  20.038   1.186   3.965  0.0611  0.1086 -0.1134
42047W        W85038  13.211  11.522   7.764 -0.4887 -0.1967 -0.0266
42048W        W85039  16.078   9.053   4.960  0.3381 -0.2678  0.0896
42049W        W85040  14.387   4.876   7.523  0.1018 -0.1314  0.0428
42050W        W85041  24.484   7.554   5.977 -0.0873 -0.1112  0.0193
42051W        W85042   0.895   1.616  16.842  0.0914  0.2454  0.0351
42052W        W85043  31.853  13.956   2.610 -0.4873  0.0252 -0.1515
42053W        W85044   2.975  33.770  19.812  0.2498  0.1120 -0.0611
42054W        W85045   3.335   9.243  27.785  0.2389  0.0346  0.2806
42055W        W85046  13.725  15.408  28.035  0.1906 -0.2761 -0.0032
42056W        W85047  21.736   6.355  17.253 -0.0647 -0.0260  0.3668
42057W        W85048  24.349  10.185  21.019  0.0976 -0.0938 -0.2195
42058W        W85049  31.878   8.730  25.541 -0.2320  0.4416  0.0197
42059W        W85050  21.336   8.236  25.312 -0.2247 -0.1271  0.2126
42060W        W85051  24.780  16.203   7.574 -0.2645  0.2008 -0.0458
42061W        W85052  32.283  19.882   6.897 -0.1149 -0.1576  0.1656
42062W        W85053  17.718   9.266   7.713 -0.1394  0.1084 -0.1844
42063W        W85054  32.028   9.041  17.340 -0.1811  0.0089 -0.1186
42064W        W85055  29.527  12.069   2.710 -0.2876  0.2357 -0.1086
42065W        W85056   2.302   5.909   3.642  0.4043  0.0440 -0.0181
42066W        W85057  25.685  14.388  24.910  0.0058  0.3742  0.1267
42067W        W85058  23.931  19.142   2.309  0.0948  0.0855  0.1346
42068W        W85059   8.935  26.808  28.163 -0.1831  0.1348 -0.2900
42069W        W85060   7.415  11.596   7.454  0.1067 -0.0504 -0.0396
42070W        W85061  10.508   2.762  27.925 -0.1765 -0.0250 -0.1385
42071W        W85062  26.066   7.417  27.415 -0.0011 -0.3086  0.1438
42072W        W85063   6.808  20.481   7.139 -0.0860 -0.0094  0.1281
42073W        W85064  29.055   2.873   8.496 -0.0419 -0.1184 -0.0244
42074W        W85065  14.690   7.924  21.385 -0.2384 -0.0928  0.1935
42075W        W85066  19.564  14.739  24.408 -0.1900  0.0513 -0.0493
42076W        W85067  30.473   6.651   8.833  0.1294 -0.0711  0.1617
42077W        W85068  22.580  16.307   8.200  0.1383  0.2429 -0.0797
42078W        W85069   6.032   8.374   1.457  0.1039 -0.3991  0.1685
42079W        W85070  30.447   8.673  23.191 -0.3336 -0.0984  0.0182
42080W        W85071  14.457  25.832   5.826  0.4909  0.0179 -0.0216
42081W        W85072  19.508  27.237   6.580 -0.0839  0.0594 -0.1886
42082W        W85073   1.388   1.579   5.170 -0.0025 -0.0595  0.0913
42083W        W85074   5.470   6.618   1.663 -0.1530 -0.1448  0.0728
42084W        W85075  17.435   9.394  28.865  0.0756  0.1171 -0.0633
42085W        W85076   6.092  27.625  27.376 -0.0659 -0.2134 -0.0655
42086W        W85077  20.331  22.135   9.139  0.1280  0.1405 -0.0579
42087W        W85078  21.001   7.515   5.511  0.2166  0.0020 -0.1379
42088W        W85079  34.006   5.602  27.468 -0.1176 -0.2255  0.2228
42089W        W85080   8.513  33.827  16.083 -0.0677 -0.0735 -0.0926
42090W        W85081   1.541   3.910  25.329  0.2167 -0.2036 -0.0055
42091W        W85082  31.141  24.245   2.680  0.0110  0.1182 -0.2222
42092W        W85083   4.994  31.880   4.873 -0.3166  0.0117 -0.1928
42093W        W85084  26.496  34.423   2.219 -0.4161  0.1788 -0.1156
42094W        W85085  19.034  22.722   4.148  0.0763  0.1144 -0.1572
42095W        W85086  34.591   5.126   1.599 -0.1462  0.1034 -0.0767
42096W        W85087   6.357  12.120   9.370 -0.0325 -0.1310 -0.2228
42097W        W85088  20.286   9.032   8.547 -0.1401  0.0585 -0.2456
42098W        W85089   5.232  22.873  15.314 -0.2165  0.0930  0.0908
42099W        W85090  14.314   3.930   8.711  0.1483 -0.0327 -0.3426
42100W        W85091  24.762   6.720  21.512  0.2504 -0.0222 -0.1151
42101W        W85092   0.552  18.236   5.696 -0.1828 -0.0452  0.1276
42102W        W85093  21.458   9.714   9.047  0.5042  0.1473  0.2003
42103W        W85094  17.653   1.641  20.958  0.0999 -0.0106 -0.2214
42104W        W85095  26.526  23.764   0.881 -0.0563 -0.3346  0.1807
42105W        W85096  11.694   3.541  10.618  0.1517  0.0939 -0.0719
42106W        W85097  32.713  19.349  21.757  0.1605  0.0296  0.2159
42107W        W85098  23.170  12.352  15.056 -0.4887  0.3585  0.3683
42108W        W85099   4.088  13.373   6.310 -0.0077  0.0001 -0.3019
42109W        W85100  13.077   7.040   2.879 -0.1458  0.3381  0.3961
42110W        W85101   7.496  32.668   6.308 -0.0781  0.0360  0.2671
42111W        W85102  32.154  26.902  24.760 -0.1839 -0.0591 -0.0673
42112W        W85103   0.894  11.142  10.774 -0.0739 -0.2039  0.2321
42113W        W85104  22.265  12.291  25.028 -0.1072  0.1334  0.5407
42114W        W85105  32.595  32.154   4.003  0.1211 -0.1628  0.3059
42115W        W85106  32.465   7.476  29.219  0.0305 -0.3417  0.2850
42116W        W85107  15.823   7.468  16.601  0.0262  0.1719  0.1531
42117W        W85108  29.588   2.169   3.322 -0.1280 -0.3606 -0.4088
42118W        W85109  16.750  14.871   2.262  0.0578  0.1999 -0.0728
42119W        W85110  21.020  13.271   0.511  0.1647  0.1721  0.0853
42120W        W85111  32.389  24.586  23.923  0.0485  0.1407  0.1267
42121W        W85112  27.345   3.671   3.031  0.2073  0.1177 -0.1252
42122W        W85113  11.464  34.680   2.488 -0.1938 -0.1870 -0.0941
42123W        W85114  19.852   2.964   0.238  0.0187 -0.1724  0.0325
42124W        W85115   0.011  19.488  10.313 -0.2468 -0.0775  0.4715
42125W        W85116  27.548   5.958   3.570 -0.2018 -0.1428  0.2095
42126W        W85117  32.049  20.916  23.188  0.0952  0.0266 -0.2267
42127W        W85118  32.507  11.285   4.615 -0.1814 -0.2361  0.2851
42128W        W85119  33.769  10.287   9.298  0.2665 -0.0791 -0.0247
42129W        W85120  28.738   9.828   3.148 -0.0842  0.1424 -0.0611
42130W        W85121  33.970  25.779   1.004  0.2067 -0.3729  0.0852
42131W        W85122   8.364  32.406   1.957 -0.1263  0.1140 -0.0842
42132W        W85123   1.134  34.088   6.225 -0.1064 -0.0733 -0.1470
42133W        W85124  29.759   7.443   5.316  0.1055 -0.0138  0.0193
42134W        W85125   8.199  33.711   3.470  0.4575  0.0434  0.0713
42135W        W85126   3.490  23.010  20.263 -0.0623  0.2748 -0.0956
42136W        W85127  30.605   7.635  10.252  0.0692 -0.2135 -0.3159
42137W        W85128   2.644   8.493  28.546  0.0581  0.2798 -0.0249
42138W        W85129  24.107  24.868  26.526 -0.2801  0.1250 -0.2839
42139W        W85130   4.959  11.190   6.160  0.0852 -0.0637 -0.1222
42140W        W85131  31.787  30.589   3.560  0.0984  0.2244  0.3551
42141W        W85132  23.021  27.703   6.171  0.0032 -0.1242  0.1281
42142W        W85133  20.777  14.073  27.172 -0.1943  0.0051  0.0689
42143W        W85134  32.888   7.115   5.142  0.1871 -0.0701  0.2273
42144W        W85135  28.912  12.343   5.752 -0.2784  0.1222 -0.2938
42145W        W85136   4.223  11.330   1.148  0.0662  0.0014  0.3031
42146W        W85137  23.563  22.688   3.470 -0.0925 -0.0582 -0.1200
42147W        W85138  18.008   4.911   2.836 -0.2996  0.1362 -0.0410
42148W        W85139   7.402  25.629   8.210 -0.2340 -0.1752 -0.3148
42149W        W85140  20.051   8.712   4.605 -0.0799  0.0359  0.1095
42150W        W85141  13.008   2.845  10.663 -0.4576 -0.1923  0.1642
42151W        W85142  22.599   4.872   2.114  0.0268  0.2843 -0.0781
42152W        W85143   4.967   7.510   4.457 -0.2150  0.2201  0.1131
42153W        W85144   5.871   3.689  23.828 -0.0027  0.0443 -0.3154
42154W        W85145  12.293  21.102  10.068 -0.0335  0.0973  0.3329
42155W        W85146  34.137  29.627   0.774  0.1009 -0.0022  0.0881
42156W        W85147  12.702  16.160  28.409 -0.0042  0.0697 -0.1109
42157W        W85148   4.743  28.548  28.585  0.1447  0.0565  0.0297
42158W        W85149  21.443  31.616   4.901  0.0742 -0.2782  0.0006
42159W        W85150   0.692  26.201   8.822 -0.0242  0.1169 -0.0319
42160W        W85151  24.538  17.881  13.901 -0.1612  0.2567 -0.0298
42161W        W85152  12.775  17.884   6.301 -0.0875  0.4497 -0.1657
42162W        W85153  25.804  33.390  27.179 -0.1454 -0.4120  0.0305
42163W        W85154  19.317  12.360   3.698  0.0148 -0.2835 -0.0789
42164W        W85155   3.771   1.604  27.787  0.3163 -0.1359 -0.1834
42165W        W85156   7.277  15.036  23.940 -0.3535 -0.3609  0.1993
42166W        W85157  32.884   6.449  24.184  0.0522 -0.0576  0.1595
42167W        W85158  32.632   7.922  17.353 -0.0974  0.0274  0.2449
42168W        W85159  31.412   2.625   8.683 -0.0190  0.2259  0.0869
42169W        W85160  29.825   8.150  27.454  0.1966  0.2601 -0.0620
42170W        W85161  32.680  19.079  26.984  0.1436 -0.0631 -0.1963
42171W        W85162  25.975   8.060  26.766 -0.0590  0.0439  0.0179
42172W        W85163  26.950  21.617  22.844 -0.0539 -0.4691  0.0360
42173W        W85164  30.537   9.755   0.196 -0.1210  0.1009  0.2299
42174W        W85165   2.676  23.668   3.612 -0.3968  0.1278 -0.2461
42175W        W85166  20.639  30.982   1.052  0.2981  0.0638 -0.3595
42176W        W85167  17.319  14.613   0.017  0.0514  0.1711 -0.0763
42177W        W85168  33.379   6.530   0.782  0.2304  0.2494  0.0754
42178W        W85169  29.451   8.795   1.291 -0.0765 -0.2356  0.1977
42179W        W85170  34.338  17.460   8.015 -0.4751 -0.1653  0.1039
42180W        W85171  34.158  27.717   5.840  0.2401 -0.0817 -0.0073
42181W        W85172  29.456   6.132   5.025  0.2297 -0.1360  0.0100
42182W        W85173  24.613   5.413   0.681 -0.4346 -0.0798 -0.1364
42183W        W85174  17.457  16.797  24.925 -0.4487 -0.1879 -0.0909
42184W        W85175  22.988  30.564  18.663  0.1185 -0.0602  0.3305
42185W        W85176  23.231  17.150  24.708 -0.0362  0.1537  0.2387
42186W        W85177  19.869  30.849   7.195  0.2302  0.0446  0.1594
42187W        W85178   5.559   8.288  25.867 -0.0612  0.1504  0.0746
42188W        W85179  19.187  30.995   9.296  0.1342  0.0534  0.1752
42189W        W85180   5.374   1.868   5.754 -0.0061 -0.2662 -0.4328
42190W        W85181  19.801  18.349   6.528  0.0486  0.1767 -0.1403
42191W        W85182  33.834  15.134  27.821 -0.2044 -0.0670 -0.2825
42192W        W85183  21.461  19.143   7.346  0.1230  0.0107 -0.0888
42193W        W85184   6.013  21.240   9.688  0.0725  0.1910 -0.1531
42194W        W85185  28.005   6.851   5.823  0.1413  0.0957 -0.0181
42195W        W85186  25.314  11.447  26.213  0.0107  0.1403 -0.1130
42196W        W85187  10.854  19.294  20.316  0.0161 -0.2033  0.0898
42197W        W85188   9.777  15.344  18.454  0.3317  0.3473 -0.3386
42198W        W85189  18.842  24.901   9.437 -0.2001  0.2232 -0.1417
42199W        W85190  25.321  14.767   3.917 -0.0759 -0.2543 -0.0232
42200W        W85191  23.489  20.040   4.012  0.0996 -0.0169  0.0268
42201W        W85192   5.384   6.912   6.421  0.1572  0.3552  0.0012
42202W        W85193  25.017  11.369  19.334 -0.2761  0.2235 -0.0134
42203W        W85194  29.527  19.592  22.585  0.0406 -0.1870  0.1469
42204W        W85195  17.513   1.475   4.694 -0.1472  0.0670 -0.0196
42205W        W85196  26.026   8.379   4.580 -0.0223  0.1162 -0.0800
42206W        W85197  25.085  12.117   5.537 -0.3242  0.5271 -0.1408
42207W        W85198  26.638  11.705   9.081 -0.1220 -0.0192  0.3524
42208W        W85199  16.524  25.844  27.914  0.2075  0.1445 -0.0926
42209W        W85200  28.227  11.290   7.273 -0.0414 -0.1865 -0.0817
42210W        W85201  29.327   9.276   3.348  0.2401 -0.2039  0.0885
42211W        W85202  18.476  18.602   0.501 -0.1554 -0.1520 -0.3376
42212W        W85203  23.641  10.337  26.099 -0.0236 -0.3224  0.0541
42213W        W85204  33.664  16.802   8.643 -0.2099  0.1116  0.2129
42214W        W85205  27.066   8.556   5.800 -0.0107 -0.0439 -0.5646
42215W        W85206  32.336  21.295   2.330  0.0217 -0.1587  0.1827
42216W        W85207  22.700  20.721   2.531  0.2333  0.0992  0.1629
42217W        W85208   8.758   5.751   4.192  0.0580 -0.1555  0.2678
42218W        W85209  11.941   5.261  28.213  0.0229 -0.0046  0.1026
42219W        W85210   2.389  10.207   5.004 -0.1884 -0.1802 -0.0959
42220W        W85211  22.212   7.243  27.794 -0.5655 -0.1855 -0.0585
42221W        W85212  16.193  14.026  28.762 -0.1748  0.0375 -0.3721
42222W        W85213   8.520  22.000   3.340 -0.2244 -0.0440 -0.1973
42223W        W85214  28.047   2.281  25.444 -0.0153  0.0074 -0.0807
42224W        W85215  33.010  32.973  27.430  0.1076 -0.1581  0.3145
42225W        W85216  30.228   8.517   2.335 -0.1195 -0.0096 -0.1165
42226W        W85217  27.002  25.053   4.808  0.0621  0.0766  0.3699
42227W        W85218  17.561   0.342   7.168  0.1471  0.1690  0.2132
42228W        W85219   5.799  13.503  11.065  0.2514  0.1550  0.0109
42229W        W85220  33.948   6.254   4.633  0.0052 -0.1046 -0.1073
42230W        W85221  23.039  34.732  29.086  0.0605 -0.3376 -0.0846
42231W        W85222  27.282  29.287  14.563  0.1046  0.3002  0.0211
42232W        W85223  30.521   3.461  28.556 -0.1064 -0.2735 -0.1848
42233W        W85224  25.214  34.756   6.802 -0.3153  0.0478 -0.1330
42234W        W85225   6.173   6.532   6.811 -0.1449  0.0605 -0.0331
42235W        W85226  20.021  26.804  24.519  0.0812  0.0457 -0.1546
42236W        W85227  30.245   9.979  25.313  0.0253 -0.2441  0.3402
42237W        W85228  34.746  28.749  27.002 -0.3083 -0.0441 -0.3752
42238W        W85229  29.363  22.948  20.288  0.2286 -0.0050  0.2615
42239W        W85230   9.420  33.372   9.779  0.0112  0.2463  0.0245
42240W        W85231  19.068   1.022  20.318 -0.1430  0.0444 -0.4806
42241W        W85232  19.606  17.272   1.438 -0.1520  0.0330 -0.2546
42242W        W85233  22.073  33.254  28.916  0.0840  0.0835  0.0016
42243W        W85234   5.393  17.398  21.960 -0.3594  0.2935  0.1781
42244W        W85235  10.431  22.993   0.281 -0.0900 -0.0350  0.3119
42245W        W85236  25.619   3.462   0.032 -0.0506  0.0021  0.2515
42246W        W85237  33.793   5.973  10.732  0.2189  0.2079  0.0133
42247W        W85238   0.847   8.210  28.172  0.2120  0.0773 -0.0001
42248W        W85239  21.475   0.579  21.081  0.0069 -0.2941 -0.0061
42249W        W85240  15.943   0.097   9.378  0.1947  0.1119  0.0218
42250W        W85241  17.676  15.885  24.100  0.0130  0.1258 -0.4345
42251W        W85242  18.822  17.733  26.080  0.1640 -0.2923 -0.0353
42252W        W85243   7.599   4.623  11.320  0.3627  0.1029 -0.3111
42253W        W85244  19.069   9.426   3.007  0.1602  0.0688 -0.3025
42254W        W85245  24.449  15.004  29.059 -0.1549  0.2325 -0.4427
42255W        W85246  25.696  13.876  27.627  0.2059  0.3357 -0.1825
42256W        W85247  26.468  22.007   5.729 -0.1297 -0.2396 -0.1283
42257W        W85248   1.974   9.334  25.107  0.4256 -0.0715 -0.0143
42258W        W85249  32.867  31.015   4.594  0.1555 -0.3581 -0.2643
42259W        W85250  25.130  21.742   4.046  0.0329 -0.4241 -0.0961
42260W        W85251   0.685  11.783  10.790  0.2614 -0.0756  0.0634
42261W        W85252  32.158  11.346  28.020 -0.0283  0.4007 -0.1831
42262W        W85253  30.481   5.980  10.316  0.1801 -0.1913 -0.0932
42263W        W85254   6.138  33.413   2.685  0.2496  0.1267  0.0946
42264W        W85255   5.073   9.510   7.222 -0.1180 -0.0856  0.0966
42265W        W85256  15.491  30.377   8.994 -0.2245  0.0589  0.0194
42266W        W85257  28.527   9.500   4.900  0.4212  0.1348  0.0321
42267W        W85258  25.660  14.294   9.229  0.0795  0.1307  0.3425
42268W        W85259  14.037   7.636  10.257 -0.1136  0.1081  0.1422
42269W        W85260  17.503  18.138   7.545 -0.0403 -0.1332  0.1377
42270W        W85261  13.430  16.293   5.133 -0.0163  0.3567 -0.0275
42271W        W85262  30.201  14.475   7.900  0.1455  0.1734 -0.0856
42272W        W85263  29.908  13.875  28.333  0.2046  0.0884 -0.0821
42273W        W85264  16.816  15.184   2.781  0.0596  0.0735  0.0572
42274W        W85265   7.067  30.002  28.054 -0.0676  0.1552  0.0513
42275W        W85266   1.598  17.419   6.524 -0.2270  0.1521  0.1456
42276W        W85267  18.364   6.298  19.418 -0.0353 -0.1868 -0.0768
42277W        W85268  30.567   8.204   1.400 -0.0583 -0.1380 -0.2044
42278W        W85269   7.118   5.400  27.791  0.0093 -0.2136 -0.0704
42279W        W85270  32.484   7.825  15.399 -0.1347 -0.0698  0.3911
42280W        W85271  18.645   2.019  28.535 -0.1484 -0.1029  0.1249
42281W        W85272  31.621  21.914   6.604  0.0298 -0.3332  0.2419
42282W        W85273  27.472   5.207  23.458  0.4774  0.1880 -0.1582
42283W        W85274  18.888  25.381   8.661 -0.0078  0.1961 -0.2058
42284W        W85275  27.053   4.379   0.891 -0.1380 -0.2991  0.2506
42285W        W85276  15.099  15.223   8.983 -0.2278  0.1139  0.0681
42286W        W85277  21.038  29.571   5.617 -0.0095 -0.0677 -0.4055
42287W        W85278  27.251  14.155   0.396  0.0281  0.2900 -0.2749
42288W        W85279  17.382  34.469   4.257  0.1145 -0.2213 -0.0009
42289W        W85280  26.630   7.226   5.243 -0.0987 -0.0590 -0.0076
42290W        W85281   3.498  19.387   0.064 -0.0466  0.2585 -0.0205
42291W        W85282  32.297  23.807  23.156 -0.0004  0.1372 -0.0931
42292W        W85283  13.442   6.070  21.831 -0.0734 -0.1973  0.0509
42293W        W85284  29.464  29.162  17.335 -0.2149 -0.1494 -0.1438
42294W        W85285  13.250   7.767  24.416  0.0640  0.0887  0.2189
42295W        W85286  34.127  11.265   7.310  0.4316  0.1358  0.1238
42296W        W85287   5.250   2.680  10.447 -0.3303  0.1867 -0.0268
42297W        W85288   4.106   0.478   3.553 -0.0943  0.2228 -0.0165
42298W        W85289  24.672   9.588   6.844  0.2370  0.1443  0.1934
42299W        W85290   7.602   0.336   7.422  0.1760  0.0056 -0.0178
42300W        W85291  21.815  26.816   2.422  0.2129 -0.0292 -0.1059
42301W        W85292  30.330   5.439   5.612  0.0942 -0.0238 -0.1285
42302W        W85293  32.989  28.756   6.613  0.0208  0.0717  0.0012
42303W        W85294  27.542   9.195   9.113  0.0664 -0.4274 -0.1993
42304W        W85295   9.941  13.058  17.478 -0.0880  0.1980 -0.0497
42305W        W85296  25.731   2.400  19.328  0.3006 -0.1656  0.2892
42306W        W85297   3.311  31.631   8.402 -0.0514  0.1657 -0.1251
42307W        W85298   2.246  14.365   5.988 -0.0521 -0.0460  0.0905
42308W        W85299  32.150  11.126   7.057  0.0192  0.2259 -0.0946
42309W        W85300  20.961  12.036   8.331  0.1302 -0.2869  0.0175
42310W        W85301   0.518  33.889   7.729  0.2233 -0.0922 -0.0909
42311W        W85302   9.136   0.461  22.515 -0.0930  0.0060  0.3717
42312W        W85303  32.939  32.988   7.283  0.0964 -0.3268  0.4132
42313W        W85304  19.163   5.308   5.907 -0.1193 -0.0538 -0.1641
42314W        W85305  17.989  13.725  26.975 -0.1555 -0.0009 -0.0698
42315W        W85306  30.247   0.591   6.402  0.0377 -0.4643  0.0088
42316W        W85307  20.597  30.353   7.806  0.2809  0.1790 -0.1651
42317W        W85308  33.085   4.689   3.795  0.2053 -0.0624  0.0034
42318W        W85309  32.772  30.505   5.905  0.3882  0.0853  0.0263
42319W        W85310   0.440  28.631   3.912 -0.2028 -0.0832 -0.0549
42320W        W85311  32.488   1.239   5.311 -0.0566  0.3219 -0.0332
42321W        W85312  10.027   5.875  28.267 -0.2938  0.2737 -0.2453
42322W        W85313   0.838   3.320   3.001 -0.0316 -0.0769 -0.3829
42323W        W85314   6.616   3.958  10.355 -0.1862 -0.1005  0.0492
42324W        W85315  30.576  14.367  28.461  0.0704 -0.2102 -0.2119
42325W        W85316  15.530  12.314   7.022 -0.1823 -0.1398  0.4724
42326W        W85317  34.662  30.279   3.863  0.0197 -0.1146 -0.1454
42327W        W85318   3.777  11.171   7.727  0.2372  0.1604 -0.1372
42328W        W85319  17.109  13.038  22.384 -0.2698  0.1311  0.1522
42329W        W85320  32.133  12.539  25.714 -0.1902  0.2294  0.2815
42330W        W85321  26.656   2.516   5.820  0.0630 -0.2019 -0.4302
42331W        W85322   5.307  22.930  29.196 -0.3808  0.1215  0.0084
42332W        W85323  16.548   2.987   7.628 -0.2443  0.0934  0.1637
42333W        W85324   3.325   5.100   6.553 -0.0974 -0.2816 -0.1867
42334W        W85325   7.165  30.015   4.109  0.0032 -0.0089 -0.0945
42335W        W85326   4.269   1.964   4.579 -0.0561 -0.0590 -0.1490
42336W        W85327  25.014  10.015  28.765 -0.2393 -0.1798 -0.1322
42337W        W85328  30.858  32.464   5.795 -0.2410  0.1667  0.0014
42338W        W85329  26.132   8.935   7.848  0.2514  0.1287  0.0520
42339W        W85330  25.515  10.291   7.974  0.1012 -0.0609 -0.1395
42340W        W85331  20.883   8.565   2.651 -0.1834  0.0849 -0.0035
42341W        W85332  13.005   5.273  22.326  0.1298 -0.2886 -0.2072
42342W        W85333  25.845   0.939   8.257  0.0513 -0.2241 -0.1737
42343W        W85334  26.831   6.823   4.411  0.3509  0.2109 -0.0566
42344W        W85335   3.645  17.912   7.521 -0.1841 -0.2285 -0.2249
42345W        W85336   4.889  17.976   0.761 -0.0893 -0.0291 -0.0867
42346W        W85337  29.585  12.932   6.624  0.0188  0.0523 -0.0482
42347W        W85338   3.438  26.675   6.138 -0.2803  0.0655  0.2180
42348W        W85339  26.925   6.882   7.156 -0.1993  0.2162  0.0695
42349W        W85340  22.434  31.096   3.136 -0.1333 -0.1423  0.0612
42350W        W85341  20.602  10.808  22.432  0.0487 -0.0612 -0.1816
42351W        W85342  27.028  17.074  22.123  0.0323  0.0433  0.0044
42352W        W85343  23.966  18.864  22.173  0.0335 -0.1008  0.1439
42353W        W85344   2.541   4.899  25.108  0.1654 -0.0826 -0.1422
42354W        W85345  31.400  13.315   2.179 -0.0666 -0.0064 -0.0952
42355W        W85346  21.203   9.108   3.950 -0.0027 -0.2777 -0.2028
42356W        W85347  32.245   5.740   6.628  0.0002 -0.2109  0.2493
42357W        W85348  14.610   7.902  20.780  0.1509  0.0467  0.0920
42358W        W85349  13.099   7.310   7.399 -0.2833 -0.0128  0.1759
42359W        W85350  32.016  15.157   7.531 -0.4309  0.0694  0.0752
42360W        W85351  20.432  32.933   2.530 -0.2867  0.2541 -0.1872
42361W        W85352  25.046  14.367   4.576  0.0087 -0.2931  0.1264
42362W        W85353   2.916   7.393   8.245 -0.0921 -0.2114  0.0474
42363W        W85354  34.224  11.990   8.880  0.2067 -0.0362  0.1102
42364W        W85355   4.369   5.668   6.344 -0.2616  0.0656 -0.2529
42365W        W85356  24.732  28.513   6.250  0.0049 -0.0781 -0.0827
42366W        W85357   2.870  25.123   7.525  0.0370  0.5786 -0.1550
42367W        W85358  28.822   8.743   6.276 -0.1697 -0.0117  0.2117
42368W        W85359  22.389  12.752  18.540 -0.1600  0.3004  0.1024
42369W        W85360   7.046  28.785   6.583  0.0890  0.5606 -0.1905
42370W        W85361  32.032  27.032   5.584 -0.1335 -0.2270  0.0530
42371W        W85362  10.548  30.962   2.520 -0.2101 -0.0936  0.0198
42372W        W85363   0.086  20.877  27.951  0.2486 -0.1544  0.0274
42373W        W85364  16.778  27.573  27.864 -0.0934  0.2887  0.2007
42374W        W85365   0.005  16.912  23.450 -0.1200  0.2182 -0.0668
42375W        W85366   3.920  25.657   1.416  0.0552  0.1740 -0.2185
42376W        W85367  16.772  11.610   6.836  0.0908  0.1675  0.3426
42377W        W85368   1.700  26.284   9.158  0.0669  0.0303  0.0708
42378W        W85369   8.050  12.896   3.595  0.2383  0.0012 -0.1040
42379W        W85370   2.603  30.960   7.167  0.0510 -0.2279  0.0484
42380W        W85371  24.335  15.735   9.796  0.0152 -0.0321  0.1220
42381W        W85372   5.197  34.625   0.183 -0.0559 -0.1979 -0.3147
42382W        W85373  22.471   8.447   7.887  0.1297 -0.0045 -0.2385
42383W        W85374  29.055  13.919  10.005  0.0326  0.0630 -0.0129
42384W        W85375  33.576  14.700  10.596  0.1615 -0.1870  0.1198
42385W        W85376   4.793   7.024  24.673  0.2499 -0.0848 -0.0339
42386W        W85377   9.878  11.089   6.805  0.2598 -0.1761 -0.0708
42387W        W85378  26.112   9.879  25.938  0.1949 -0.0047  0.0419
42388W        W85379  19.072   3.200   7.326  0.1892  0.0468 -0.3860
42389W        W85380  33.814   8.294  20.390 -0.2037  0.4134  0.2480
42390W        W85381  27.249   4.305   4.657  0.0085 -0.0986  0.0256
42391W        W85382   0.202  11.058   6.378 -0.2066 -0.0817  0.2588
42392W        W85383  28.151   7.406   0.737  0.1036 -0.1080  0.2950
42393W        W85384  31.083   2.557  24.139  0.1165 -0.1215  0.4215
42394W        W85385   4.980  13.362   5.031  0.1768  0.0601 -0.3049
42395W        W85386   7.182  12.522  27.069  0.5341  0.1905  0.0782
42396W        W85387  27.160   9.964   1.585  0.1928  0.3852  0.1958
42397W        W85388  29.284  29.234   1.499 -0.1518  0.0768 -0.1211
42398W        W85389  24.112  32.244   2.608  0.1971  0.0144  0.2165
42399W        W85390  28.672  13.046   6.041  0.1977  0.1642  0.2453
42400W        W85391  33.895   7.021   8.260 -0.0316  0.1408  0.2343
42401W        W85392  33.874   7.851   4.507 -0.2466 -0.0624 -0.0148
42402W        W85393  25.244  33.387   7.405 -0.2952  0.1161 -0.1095
42403W        W85394  34.655   1.815  27.669 -0.0650 -0.2510  0.2513
42404W        W85395  16.869  13.100   8.328 -0.2976  0.1262 -0.0739
42405W        W85396  24.737  26.934  24.907  0.1788 -0.1086 -0.0063
42406W        W85397  19.164   3.383  26.448 -0.2437 -0.0611  0.1968
42407W        W85398  13.164  33.290   2.930  0.0289  0.0904  0.2691
42408W        W85399  24.489  11.531   5.847 -0.5155  0.0952 -0.0088
42409W        W85400  27.806  12.402   4.386 -0.3230 -0.2641 -0.1717
42410W        W85401  33.343  18.286   4.664 -0.3729  0.1710  0.0488
42411W        W85402  20.196  18.271   8.175  0.0851  0.2006  0.0620
42412W        W85403  20.238   5.359   6.222  0.0472 -0.0533 -0.0992
42413W        W85404   4.152  11.193  24.080 -0.5808 -0.5245 -0.2102
42414W        W85405   0.635  31.628   8.289 -0.0430 -0.1770  0.0815
42415W        W85406  30.048   5.050   1.915 -0.0642 -0.0387 -0.0912
42416W        W85407   6.879  16.322   9.354 -0.0157  0.1230 -0.1974
42417W        W85408   5.380  19.201  27.396  0.0350 -0.1334  0.1871
42418W        W85409   1.380  10.361  11.273  0.0297 -0.0329  0.0486
42419W        W85410  12.518   6.809   4.072 -0.1219  0.0539  0.1292
42420W        W85411   1.818  30.151  15.221  0.0950  0.2030 -0.0067
42421W        W85412   8.735  12.720  10.675 -0.1157  0.0174 -0.0657
42422W        W85413   6.350   6.850   0.780  0.1363 -0.0705  0.1578
42423W        W85414  33.450  13.246  27.544  0.0887  0.0243 -0.0622
42424W        W85415  31.555   4.119   6.733 -0.2143 -0.2299  0.1386
42425W        W85416  21.385  15.010   7.131  0.0148  0.0752 -0.1125
42426W        W85417  29.750  23.135   9.017  0.1662 -0.0103  0.0270
42427W        W85418  15.515  30.510   1.651 -0.2048 -0.0805 -0.2691
42428W        W85419  20.472  33.179   3.132 -0.0518  0.3831 -0.0996
42429W        W85420  25.508  22.901  25.998  0.1001  0.4720  0.0875
42430W        W85421  22.393   9.586  15.495 -0.0041  0.2407  0.0588
42431W        W85422   4.737   0.223   6.570 -0.0320  0.1259 -0.2583
42432W        W85423  31.005  11.283   9.685  0.0859  0.2080 -0.1423
42433W        W85424  10.876   4.612   9.696 -0.1944  0.0582  0.1688
42434W        W85425  23.543  14.299   1.109 -0.0678  0.5199  0.3356
42435W        W85426  23.586  13.553  29.225  0.0320  0.0979 -0.0697
42436W        W85427   4.202  16.352   9.339 -0.1561 -0.6733 -0.3161
42437W        W85428  33.113   1.327  27.526  0.0989  0.0719  0.2806
42438W        W85429  29.272  17.969   1.215 -0.1269 -0.0045  0.0278
42439W        W85430  24.285  19.025  24.374  0.1365  0.0407 -0.2254
42440W        W85431  23.472  10.736   0.354 -0.0916  0.4022  0.0626
42441W        W85432   1.689  12.934   8.894  0.1257 -0.0654  0.2581
42442W        W85433   5.530  30.478   9.629  0.0028  0.0795 -0.1372
42443W        W85434   2.259   2.754   4.374  0.1947  0.2903 -0.1539
42444W        W85435  21.959  28.013   5.700  0.2437  0.4349  0.0916
42445W        W85436  27.145  24.187  26.718 -0.0631 -0.1763  0.0765
42446W        W85437  16.820  27.734   3.349  0.0698 -0.0164  0.1832
42447W        W85438  11.443   7.277  10.903 -0.1551 -0.1452  0.2334
42448W        W85439   4.738  18.593  11.316  0.0067 -0.2365 -0.0485
42449W        W85440  29.803  11.160   8.854  0.0081 -0.0939  0.1837
42450W        W85441  32.179   7.833   7.606  0.0598 -0.2022 -0.0493
42451W        W85442  29.657   2.169   6.791  0.1131 -0.0476 -0.0005
42452W        W85443  27.454   2.035   5.741  0.4260 -0.0990 -0.3300
42453W        W85444  25.616   0.004  15.829  0.3283 -0.3984 -0.0870
42454W        W85445   3.249  32.709   0.294 -0.1381  0.0660 -0.0799
42455W        W85446  31.604  14.245   5.307 -0.3176  0.1847 -0.0821
42456W        W85447  27.287  11.807  21.853  0.0617 -0.0092 -0.2208
42457W        W85448  21.867   8.231   9.442 -0.1312  0.1442 -0.4480
42458W        W85449   5.474   9.051   5.718  0.1271  0.0217  0.1577
42459W        W85450  24.689   8.345  29.009 -0.0934  0.1294  0.1617
42460W        W85451   5.578  34.235  10.958 -0.0390 -0.2729 -0.1730
42461W        W85452  13.011   2.457  18.690 -0.0703  0.3954 -0.0138
42462W        W85453   2.321  18.396   4.860  0.0821  0.1128  0.1334
42463W        W85454  19.140  20.490  26.519  0.4482  0.1801 -0.0653
42464W        W85455  13.137  12.035  22.399 -0.1327  0.0757 -0.3043
42465W        W85456   1.939  14.007  25.725  0.2272  0.3343  0.4956
42466W        W85457  30.308   1.408   5.270  0.0755 -0.1343  0.0786
42467W        W85458  32.641  25.211  25.684 -0.0784 -0.3913 -0.0755
42468W        W85459  27.839  11.324  21.461  0.0572 -0.1380 -0.3015
42469W        W85460  33.079   6.558   3.421 -0.0329  0.1095  0.1045
42470W        W85461  24.598  27.632   5.107  0.0807  0.0104  0.0436
42471W        W85462  10.099   1.762   8.272 -0.0984  0.0280 -0.0828
42472W        W85463  33.825   1.656   3.807 -0.2515  0.0329 -0.0871
42473W        W85464  20.480  12.882   3.740 -0.0772  0.0854 -0.1176
42474W        W85465  13.306  13.987  24.968 -0.2706 -0.0863 -0.0821
42475W        W85466   3.596   9.896   3.984 -0.2206  0.3696  0.1009
42476W        W85467  15.477   9.551   5.725 -0.1146 -0.2199  0.2291
42477W        W85468   4.221  12.718  29.042 -0.2445 -0.0087 -0.2259
42478W        W85469  13.073  28.304  29.248  0.2554 -0.0789  0.2717
42479W        W85470  25.717  29.594   3.814  0.0705 -0.0705 -0.1000
42480W        W85471   3.359  34.182   2.891 -0.1672 -0.0422 -0.1548
42481W        W85472  27.901  29.515   7.700  0.0040 -0.0064  0.2667
42482W        W85473  31.409   0.127   5.594 -0.1612  0.1117  0.2130
42483W        W85474  31.472   4.128   8.988 -0.0597  0.0085 -0.0505
42484W        W85475  14.640  25.242   1.309  0.2958 -0.1977 -0.2268
42485W        W85476  30.755   3.842  26.952  0.2182 -0.0921  0.2568
42486W        W85477  14.604  17.235  26.960  0.0426  0.0684 -0.0641
42487W        W85478  27.499   5.510   3.992 -0.3173  0.4080  0.0018
42488W        W85479  32.837  32.457   2.912  0.0491  0.2197 -0.1282
42489W        W85480  11.001  29.155  28.440  0.0076  0.1937  0.3223
42490W        W85481  17.885  29.903  24.637  0.0253 -0.2281 -0.0854
42491W        W85482  30.345   9.742   9.499  0.0848 -0.1798  0.1901
42492W        W85483  10.515   3.639   7.698 -0.2108 -0.1518 -0.2289
42493W        W85484  24.194   2.097   8.272 -0.0127 -0.1982  0.0994
42494W        W85485  28.498  30.857  25.701  0.2905  0.0076 -0.3193
42495W        W85486  34.157   6.845   5.229  0.0389 -0.1769 -0.0446
42496W        W85487  25.915  12.337  15.330 -0.0836  0.0932  0.2402
42497W        W85488   3.420   5.865  21.080 -0.1612 -0.3367 -0.1229
42498W        W85489   7.543   8.849  26.465  0.2519 -0.0842 -0.4220
42499W        W85490  34.747   2.038  10.392  0.0645 -0.0474  0.1997
42500W        W85491  26.179  20.126   5.904  0.3490 -0.0082  0.0175
42501W        W85492   0.590   9.126  28.870  0.0587  0.3345  0.2241
42502W        W85493  27.014   4.363   1.786  0.2816  0.1086 -0.0123
42503W        W85494   2.007  31.666  26.312  0.1972  0.0075 -0.2507
42504W        W85495  26.002  34.548   1.622 -0.1225 -0.1763  0.0294
42505W        W85496  25.562   4.729  26.275 -0.1185  0.1810 -0.0676
42506W        W85497  31.215  12.349  27.685  0.1897  0.1804  0.0845
42507W        W85498  31.801  29.385  25.835  0.0672 -0.2079  0.3405
42508W        W85499  26.249   2.908  14.754 -0.2033  0.0169  0.0640
42509W        W85500   4.068   4.603   6.899 -0.2857  0.1206  0.1359
42510W        W85501  26.632  10.757   7.227  0.0583 -0.1662  0.4789
42511W        W85502  11.994  27.457   3.016  0.0653  0.1308 -0.1508
42512W        W85503  24.435  15.085  27.830 -0.0438 -0.2196 -0.1186
42513W        W85504  33.181   8.211  21.975 -0.1085 -0.3411  0.1353
42514W        W85505  10.183  24.535  26.778  0.1264  0.1559  0.1475
42515W        W85506  17.248  25.908   9.379  0.2364  0.2906  0.4211
42516W        W85507  26.773  32.356   5.621  0.3130  0.0650 -0.2026
42517W        W85508  28.553   6.933  22.637 -0.0525 -0.0327 -0.2056
42518W        W85509  25.095  19.345  15.582  0.1832 -0.1200 -0.0739
42519W        W85510  25.394   9.385   0.816  0.1094 -0.0797  0.2348
42520W        W85511  30.020  18.000   4.424  0.2028 -0.0107 -0.0508
42521W        W85512   4.581   9.662  28.400 -0.1209 -0.0043  0.1462
42522W        W85513  28.505  19.637  22.580 -0.3663 -0.1051  0.1575
42523W        W85514  28.502   7.415  25.235  0.1703  0.1195 -0.1135
42524W        W85515  32.651  11.831   2.803 -0.1718  0.2939 -0.0952
42525W        W85516  27.455   7.345   3.220  0.1066  0.0707 -0.0238
42526W        W85517   5.556  10.481   9.796  0.2599 -0.2409 -0.0224
42527W        W85518   3.374   9.161   6.197  0.2068 -0.2019 -0.0557
42528W        W85519  30.745  14.373  24.038  0.0315  0.0006 -0.3889
42529W        W85520   0.803  18.961   3.495 -0.1166 -0.2795  0.0151
42530W        W85521  22.086  11.123   2.297 -0.3674 -0.0202  0.1313
42531W        W85522   0.464   9.931   5.221 -0.2289 -0.2466  0.1209
42532W        W85523  33.192   1.941  26.317  0.0709  0.0970 -0.0423
42533W        W85524   1.578  11.220   1.881 -0.1408 -0.0627  0.2797
42534W        W85525   3.582  33.134   3.742 -0.0063 -0.0746  0.2279
42535W        W85526   6.353  12.070  21.439 -0.0504 -0.0026  0.0250
42536W        W85527  17.126  32.914   6.006 -0.2615  0.0029 -0.1507
42537W        W85528  15.526   4.444   6.277 -0.0895 -0.2310 -0.1775
42538W        W85529  18.014  20.583   0.450 -0.0329  0.0476 -0.0963
42539W        W85530  16.376  25.476  25.103  0.2401 -0.0667  0.1550
42540W        W85531  30.735   9.639  20.514  0.0423 -0.2033 -0.0529
42541W        W85532   9.722  12.956  24.607 -0.0684  0.2725 -0.1437
42542W        W85533  30.307   2.422   9.624 -0.2863 -0.1405  0.0763
42543W        W85534   0.839   6.826  23.046  0.1143 -0.2831 -0.0925
42544W        W85535  16.137  32.910  27.681 -0.2207  0.0046  0.3079
42545W        W85536  24.163   8.117  15.630 -0.2142  0.2128 -0.1500
42546W        W85537   8.284   0.225  26.420  0.0447 -0.1822 -0.2113
42547W        W85538   3.049  29.260  28.373  0.1033  0.0878  0.1366
42548W        W85539   8.545   7.600   2.878  0.1513 -0.2299 -0.2006
42549W        W85540  30.373   7.493   0.714  0.1556 -0.3949 -0.0710
42550W        W85541   2.634  18.005  28.433 -0.0888 -0.0196 -0.2668
42551W        W85542  25.668   2.442   6.688  0.1259 -0.4026  0.0462
42552W        W85543  26.230  20.032   7.754 -0.2134  0.0970  0.2168
42553W        W85544   4.349   3.050   0.366  0.3759 -0.3209  0.0546
42554W        W85545  32.689  29.826  27.828  0.0227 -0.2453 -0.0977
42555W        W85546  29.994  26.241   0.747  0.3624 -0.3740  0.2092
42556W        W85547  20.148  10.331  17.394 -0.0633  0.4535 -0.1488
42557W        W85548  15.400  13.579   4.471  0.0580  0.4592 -0.0474
42558W        W85549   6.436  10.320   5.735 -0.0056  0.0792 -0.1345
42559W        W85550  15.831  10.984  24.491 -0.1050 -0.2660  0.2766
42560W        W85551  21.973  14.940   3.968  0.1355  0.1850  0.1652
42561W        W85552  26.691  17.279  28.080 -0.0923 -0.2216 -0.1686
42562W        W85553  18.754   7.383  15.195  0.0687  0.0285  0.0691
42563W        W85554  25.996   3.849  23.543  0.1659 -0.0332 -0.5075
42564W        W85555   6.885  33.014  28.073  0.1548 -0.0646 -0.1334
42565W        W85556  31.689   6.759  25.562 -0.0456 -0.0551 -0.1687
42566W        W85557  27.569   6.437   4.841 -0.1309  0.1293 -0.2276
42567W        W85558  17.016   8.305  27.514 -0.0375  0.1077  0.0581
42568W        W85559   3.936   5.979   4.073 -0.2477 -0.2852  0.0775
42569W        W85560  23.037   9.805  26.163 -0.1989 -0.0204 -0.0461
42570W        W85561  25.382   0.583   5.847 -0.2667 -0.0462  0.2532
42571W        W85562  28.002  13.217  26.946  0.4083  0.0665 -0.1455
42572W        W85563  25.016   6.232   5.774  0.3056  0.2618  0.1258
42573W        W85564  30.511   3.728   4.277  0.3691  0.2023  0.0292
42574W        W85565  32.844  16.641  26.639 -0.0989 -0.2074 -0.4184
42575W        W85566  17.053  19.173  26.060 -0.1722 -0.1492 -0.4031
42576W        W85567  32.411   7.412   8.517 -0.4388  0.1913 -0.0369
42577W        W85568  11.403  12.681  20.539 -0.2012 -0.0708  0.3532
42578W        W85569  12.464  33.810   2.277 -0.1347 -0.0055 -0.1340
42579W        W85570  16.289  32.828   3.623  0.0054 -0.1462 -0.1553
42580W        W85571  23.942   0.751  27.464 -0.3080 -0.2106 -0.2158
42581W        W85572  11.221  15.218  25.616  0.2643  0.0985  0.0284
42582W        W85573  31.074  21.633  17.629 -0.3313  0.0316 -0.0885
42583W        W85574  26.104  12.383   1.699  0.1101  0.0319 -0.0562
42584W        W85575  26.208  18.492   7.456 -0.4982 -0.1299  0.0793
42585W        W85576  20.192   3.442   3.058 -0.2175  0.3165  0.2552
42586W        W85577  33.382  34.384   9.892 -0.1308 -0.0373 -0.0081
42587W        W85578  28.240  34.567  20.011  0.0196 -0.1165 -0.1919
42588W        W85579  28.044   9.334   1.326 -0.1060 -0.0838 -0.1609
42589W        W85580  21.848  25.074   9.680  0.0577  0.0884 -0.0018
42590W        W85581   1.357  32.475  25.410 -0.0664 -0.0714 -0.2308
42591W        W85582  15.359  13.485  26.113 -0.1326 -0.0313 -0.0399
42592W        W85583  27.992  27.384   5.893  0.2850 -0.1186  0.2198
42593W        W85584  16.526  14.365  28.547 -0.0459 -0.1873  0.0878
42594W        W85585   1.081   5.817  18.817 -0.2351  0.0370 -0.1432
42595W        W85586   3.050  27.938   5.804 -0.2106 -0.3231  0.2417
42596W        W85587  25.234  21.613  24.937  0.2582 -0.0440  0.2588
42597W        W85588  25.234  31.226   0.750 -0.0568  0.0217 -0.1626
42598W        W85589  23.054   3.056   8.533  0.3438  0.0336  0.0276
42599W        W85590  17.166  28.122  21.816 -0.0587  0.1902  0.2275
42600W        W85591  24.970  13.474   0.560 -0.1440  0.0378  0.0222
42601W        W85592   1.662  11.001  10.813  0.2249 -0.2197 -0.1051
42602W        W85593  21.176  25.035   7.320 -0.0956  0.0664  0.0947
42603W        W85594   0.813  15.513   8.506 -0.2789  0.1671 -0.0475
42604W        W85595  29.211  29.739  26.883  0.0505 -0.3471 -0.0529
42605W        W85596   9.829  31.372   7.320  0.1287 -0.1541  0.2384
42606W        W85597  31.152  22.363  22.453  0.1675  0.2200 -0.0628
42607W        W85598   8.475  14.660   5.678 -0.0895  0.1682 -0.0096
42608W        W85599   2.580  31.404   2.674  0.2485 -0.2261 -0.0859
42609W        W85600  10.965  18.814  13.993 -0.2521 -0.1170 -0.1388
42610W        W85601  31.232   9.805  16.753 -0.0721 -0.2668 -0.1021
42611W        W85602  27.545  10.633  18.244 -0.3545  0.1766  0.0005
42612W        W85603  19.798  33.043  15.979 -0.0880  0.2102  0.1740
42613W        W85604  13.766  14.590   2.935  0.3284  0.0239  0.0673
42614W        W85605  27.048   9.175  20.464 -0.0789  0.2831  0.1388
42615W        W85606  28.312   7.222   6.819  0.1182 -0.2510  0.0161
42616W        W85607  24.729  32.168  25.155 -0.1329  0.0467 -0.2145
42617W        W85608  22.689  13.246   7.363  0.1911  0.0304  0.1417
42618W        W85609   2.374  28.222  25.984 -0.3954  0.0289 -0.1419
42619W        W85610  28.357  21.554  20.350 -0.1295 -0.0337  0.2573
42620W        W85611  34.369  12.507  27.182  0.0431 -0.3135  0.1828
42621W        W85612   4.529  23.313   1.132  0.0320  0.0903 -0.0825
42622W        W85613  24.480  24.335   4.996 -0.1094 -0.0166 -0.1792
42623W        W85614   0.272  34.211  23.152 -0.2772  0.1221 -0.0196
42624W        W85615   8.604  21.086   7.575 -0.2444  0.0194  0.3030
42625W        W85616  24.264  16.993  17.941  0.0465 -0.1442  0.4204
42626W        W85617  25.624  32.203  17.418  0.2815 -0.0375  0.1733
42627W        W85618  29.916   4.110  27.092  0.1507 -0.1361  0.3467
42628W        W85619   6.376  18.162  14.995  0.1061 -0.0654  0.0404
42629W        W85620  13.032  29.944   0.484 -0.1257  0.3930  0.0746
42630W        W85621  19.900  27.357   5.082  0.3439  0.2926  0.4455
42631W        W85622   5.948   7.379   7.025 -0.0186  0.0987  0.0037
42632W        W85623  34.222  31.327  20.857 -0.1454  0.0246  0.2408
42633W        W85624  26.062   3.613  21.237  0.0200  0.4206  0.1984
42634W        W85625  34.665  20.300  29.133  0.1348 -0.1034 -0.1123
42635W        W85626  16.389   3.823  14.823 -0.2127 -0.1783  0.1641
42636W        W85627  33.050  13.048  24.685 -0.1659 -0.0128  0.0475
42637W        W85628  33.838   7.859  25.787  0.3268  0.1953 -0.0995
42638W        W85629  19.947  22.133   2.707  0.2238 -0.1899  0.1638
42639W        W85630  10.593  32.378   3.573 -0.1042 -0.0312  0.1348
42640W        W85631  30.934  22.417   5.209 -0.2520 -0.0761 -0.3123
42641W        W85632   0.673  10.636   9.686 -0.1144  0.1947 -0.2086
42642W        W85633  33.952  13.060   2.985  0.1089 -0.0534 -0.2911
42643W        W85634  25.543  14.013  25.875  0.3869 -0.1030 -0.3492
42644W        W85635  25.176  10.093   7.621 -0.1718  0.2360 -0.1665
42645W        W85636  29.624  12.011   0.838  0.0692  0.3393 -0.1936
42646W        W85637   4.196  16.309  28.604  0.0743 -0.1249 -0.1810
42647W        W85638  34.072  33.906   8.529 -0.1901  0.2538  0.0469
42648W        W85639  21.219   8.068   8.722 -0.1561 -0.2109  0.2883
42649W        W85640   0.161   8.428   7.504 -0.0519  0.0031 -0.0465
42650W        W85641  15.592  33.708   0.289  0.2828 -0.0929 -0.2992
42651W        W85642  27.687  28.188   7.640  0.0387 -0.1450  0.0324
42652W        W85643  33.903   2.513   4.007 -0.0231 -0.0845 -0.2101
42653W        W85644  23.967  12.435  22.432  0.3293 -0.0853  0.1200
42654W        W85645   1.481  12.512  26.946  0.0760 -0.1298 -0.1190
42655W        W85646  31.522  22.586   7.169  0.2396  0.3955 -0.2121
42656W        W85647   0.696   7.655  27.098  0.0820  0.0129 -0.1570
42657W        W85648  22.111  27.820  20.271 -0.2050  0.0997 -0.1300
42658W        W85649   5.288   6.402   6.320  0.4247 -0.4008 -0.0245
42659W        W85650   1.206  21.217   3.236  0.1695 -0.0554  0.1286
42660W        W85651  12.342   2.551   3.942 -0.5242  0.1649 -0.1119
42661W        W85652   4.799   1.135  20.293 -0.2239 -0.0990  0.3300
42662W        W85653  24.175  17.822  26.563 -0.0921  0.2107 -0.0617
42663W        W85654  24.495  14.602  19.654  0.1904 -0.0999  0.3456
42664W        W85655   3.859  18.554   5.232 -0.0833  0.1694  0.0554
42665W        W85656  30.595   0.124   8.282 -0.1067  0.1123 -0.0075
42666W        W85657  18.383  12.439   1.022 -0.0278 -0.0612  0.0789
42667W        W85658  32.880  18.844   4.784 -0.1798 -0.0575 -0.1964
42668W        W85659  31.837  17.664   9.539  0.0972 -0.0096  0.1091
42669W        W85660  32.571  34.463   5.347  0.1251 -0.0473 -0.0575
42670W        W85661   7.692   5.667  22.863 -0.0360 -0.3613  0.1282
42671W        W85662  16.519   5.975  22.032 -0.0716 -0.2769  0.1838
42672W        W85663  24.594   5.329  19.540  0.0702 -0.1259 -0.0466
42673W        W85664   2.290  33.575   3.238  0.1844 -0.1955  0.0307
42674W        W85665   0.147  11.799   0.892  0.4484 -0.1813  0.1157
42675W        W85666  32.014   3.340  24.364 -0.2350  0.0098  0.0597
42676W        W85667   1.304   9.615  18.370  0.1108 -0.2289 -0.4216
42677W        W85668  27.507  13.561  18.378  0.2172  0.1216 -0.3596
42678W        W85669  32.461   6.842  26.833 -0.2022 -0.0158 -0.0914
42679W        W85670  20.331  20.161   5.588 -0.0206 -0.0210  0.0130
42680W        W85671  32.962  25.299   1.688  0.2880 -0.2442  0.1454
42681W        W85672   1.464  19.187   0.579 -0.1963  0.3982  0.0392
42682W        W85673  32.471  13.313   3.030  0.1586  0.3711  0.0462
42683W        W85674   1.604  17.132   0.228  0.3512  0.3745 -0.1543
42684W        W85675  20.546  25.908   0.916  0.2832  0.1799  0.3664
42685W        W85676  30.368  19.523  10.126  0.2923 -0.1615 -0.2189
42686W        W85677  28.579  15.845  27.016 -0.1637 -0.2039 -0.2447
42687W        W85678  27.864   1.229   8.434 -0.0828  0.3105 -0.1118
42688W        W85679   1.792  11.406   5.010  0.1317 -0.2859 -0.0244
42689W        W85680   1.101   8.346  15.910  0.0150  0.1787 -0.1073
42690W        W85681  25.124   5.500   7.666  0.2317  0.0857  0.2352
42691W        W85682   0.910  33.609   1.125 -0.1824  0.3003 -0.0247
42692W        W85683  34.425   9.143  11.017  0.0251  0.3071 -0.3049
42693W        W85684  26.544  12.131   2.319 -0.1046 -0.0863 -0.2825
42694W        W85685  29.750   1.768  25.815 -0.1348  0.0306 -0.1094
42695W        W85686  28.486  16.282  19.789  0.0443  0.0791 -0.1231
42696W        W85687   4.417  23.592   6.882 -0.1888  0.1800  0.1572
42697W        W85688   5.021   5.088   8.570  0.1877 -0.1034  0.2140
42698W        W85689  20.900  30.267  27.201 -0.2684 -0.0660 -0.1762
42699W        W85690   0.726   6.259   3.835  0.2406  0.1007  0.3126
42700W        W85691  28.584  12.992  24.248 -0.2205  0.2233  0.0549
42701W        W85692   9.445  29.211  25.993 -0.1446  0.1186  0.3821
42702W        W85693  11.930  19.949  21.854  0.0767  0.0997  0.0887
42703W        W85694  20.310  32.873   6.392 -0.0717  0.2236  0.0055
42704W        W85695  20.248  33.360  15.677 -0.1429 -0.0730 -0.0594
42705W        W85696  13.303   1.771   0.476 -0.0659 -0.1057  0.1969
42706W        W85697  34.340  33.072   7.831 -0.5116 -0.2712 -0.1077
42707W        W85698  29.568   6.869   5.044 -0.1061  0.1023  0.0886
42708W        W85699  28.166  16.540   3.604  0.6014 -0.2645 -0.1566
42709W        W85700  32.494  19.437  25.751  0.0070  0.0693  0.1065
42710W        W85701  30.312  14.497   7.338  0.1616 -0.4764  0.0416
42711W        W85702  30.311   3.064  23.826  0.0248 -0.0754  0.3799
42712W        W85703  33.320   6.993   9.993  0.3682 -0.2369 -0.2075
42713W        W85704  33.950  15.028  22.847  0.1751  0.0503 -0.2010
42714W        W85705  24.017  28.257  18.080 -0.2336 -0.0267 -0.1297
42715W        W85706  34.351   0.663  17.327  0.1300  0.0660  0.0771
42716W        W85707  34.207  12.235   1.510  0.1148 -0.0219  0.2701
42717W        W85708  15.503  25.319   5.299 -0.0622  0.0932  0.0799
42718W        W85709  14.366  14.802  27.852 -0.2560  0.3949 -0.0850
42719W        W85710  31.600   9.950  22.643  0.2951 -0.2303  0.1668
42720W        W85711  16.792  25.474   2.276  0.0052 -0.1025 -0.2638
42721W        W85712   0.356  21.553   8.716 -0.1168  0.3182 -0.1197
42722W        W85713  18.153   1.422  25.338  0.1201  0.3342 -0.1253
42723W        W85714   7.506   8.973   3.661 -0.3934 -0.0291  0.0240
42724W        W85715   1.497  10.451  17.698  0.2042  0.1861  0.1202
42725W        W85716  26.248   5.259  25.578  0.1528 -0.1460  0.2399
42726W        W85717   0.650   8.979   6.965 -0.2888 -0.0474  0.0350
42727W        W85718  17.243   5.059   3.868  0.3253  0.2365  0.2343
42728W        W85719  10.962  19.398  23.486  0.0761  0.0117 -0.1659
42729W        W85720  21.538  28.501  19.764 -0.2800 -0.4624  0.4130
42730W        W85721  21.977  25.239   6.326  0.0251  0.2577 -0.1825
42731W        W85722  22.736  34.230  26.296 -0.2397  0.1019  0.0904
42732W        W85723  27.797  24.661  25.536  0.2822 -0.3224  0.0217
42733W        W85724  23.503  24.567   7.254 -0.0750 -0.4240 -0.0990
42734W        W85725  31.984  24.856   1.453 -0.0874  0.0029 -0.1134
42735W        W85726  31.353   9.839   1.148 -0.0179 -0.2455  0.1282
42736W        W85727   6.457  32.068  23.132 -0.0699 -0.1296  0.1117
42737W        W85728  26.197  14.156  10.363 -0.1843  0.2078  0.1335
42738W        W85729  18.010   5.811   0.024 -0.1681 -0.3271  0.0806
42739W        W85730  31.584   4.395   0.171  0.2802  0.0116  0.1721
42740W        W85731  29.776   4.753  26.028 -0.0889 -0.1887 -0.4074
42741W        W85732  10.208   9.029   4.732  0.0926  0.0850  0.0753
42742W        W85733  27.337  14.332  16.531 -0.1462  0.1614  0.1817
42743W        W85734  30.462  26.706   2.405  0.0411 -0.0862  0.1577
42744W        W85735   2.510   9.551  27.090 -0.1208 -0.2792 -0.2308
42745W        W85736  16.999  11.990   8.890  0.1037 -0.0923  0.0871
42746W        W85737  17.186  16.979  27.693 -0.2149 -0.1252  0.0418
42747W        W85738  10.684  25.665   8.709 -0.0878 -0.1528  0.1656
42748W        W85739  21.929   2.409   8.557 -0.0221  0.2004  0.1906
42749W        W85740  25.576  16.777  16.302  0.0179  0.2513 -0.1462
42750W        W85741   1.592   7.841   3.130 -0.0093 -0.1094 -0.2030
42751W        W85742   2.725   8.771  28.042 -0.2323  0.2167 -0.1840
42752W        W85743  29.292  15.501  15.948  0.0028  0.0990  0.1429
42753W        W85744   0.941  14.030  24.312  0.1005  0.2706  0.2147
42754W        W85745   0.175  12.693  19.499 -0.0291  0.0410 -0.0891
42755W        W85746   9.100  17.431   9.449 -0.1962 -0.3355 -0.1392
42756W        W85747  33.977  15.280  11.870 -0.1527 -0.2032 -0.2751
42757W        W85748  24.168   8.005  29.193  0.2272 -0.2684 -0.0199
42758W        W85749   9.883  34.087  25.694  0.1871  0.2047  0.2931
42759W        W85750  27.171   3.992  17.275 -0.0583 -0.0341 -0.4033
42760W        W85751  26.761   9.177   4.862  0.1640  0.4599  0.1475
42761W        W85752  21.938   4.431  18.973  0.1877 -0.0226  0.1496
42762W        W85753  16.615   3.609   5.146 -0.0755 -0.3402 -0.2989
42763W        W85754  31.420  30.829  27.880 -0.2291  0.0016 -0.2521
42764W        W85755   5.723   7.623  10.538 -0.1571 -0.0657 -0.0473
42765W        W85756   3.011   8.755   7.675 -0.0876  0.0248  0.1392
42766W        W85757  15.319  29.889   2.464  0.0668 -0.1862 -0.0077
42767W        W85758  32.020   1.085   6.628 -0.1619  0.1325 -0.2511
42768W        W85759  26.011  34.695  18.156 -0.0790 -0.1051 -0.0258
42769W        W85760   5.855  10.346   5.020 -0.1155  0.0940 -0.3071
42770W        W85761   3.905  14.267   1.563 -0.1064  0.0945 -0.1885
42771W        W85762  12.398  20.430   2.595 -0.0680 -0.3848  0.2016
42772W        W85763   7.824  11.783   1.027 -0.3280  0.0341 -0.0128
42773W        W85764  32.701   9.851  21.833  0.0196 -0.1509 -0.0142
42774W        W85765   2.651  12.334   2.781 -0.0528  0.1262 -0.1564
42775W        W85766  14.501   1.548   3.101 -0.0935  0.4756  0.3847
42776W        W85767  21.860  13.372  24.096  0.0930  0.1244 -0.2269
42777W        W85768  24.579  25.434  28.117 -0.0821  0.0352 -0.1855
42778W        W85769  32.335   6.192   0.714  0.0042 -0.2336  0.0050
42779W        W85770   5.255   7.337   6.168  0.0090  0.0325 -0.0659
42780W        W85771  34.627  19.219   6.168  0.2253  0.2741  0.2455
42781W        W85772   4.020  17.668   6.931  0.0599  0.0441  0.1122
42782W        W85773  34.197   6.838  27.360 -0.2815  0.1358  0.0997
42783W        W85774  29.662  34.048  19.906  0.3830 -0.1386  0.0161
42784W        W85775  23.750  18.674   2.980  0.0903 -0.2012 -0.1557
42785W        W85776   2.346   7.208   2.948  0.1030 -0.2734 -0.2732
42786W        W85777  23.143  14.073  26.534  0.3360 -0.3556  0.0993
42787W        W85778  10.200  23.934  27.170 -0.0037  0.2909  0.2070
42788W        W85779  26.275   3.416  26.053  0.2357  0.3528  0.2131
42789W        W85780  27.446  33.066  26.288 -0.0032 -0.0956 -0.2062
42790W        W85781  13.809  23.962   9.091 -0.2255  0.1282 -0.1792
42791W        W85782   0.160  26.526   0.232 -0.4576 -0.2038  0.2980
42792W        W85783  34.280  11.708  26.967  0.0669 -0.2579 -0.0462
42793W        W85784  30.226  22.021   9.181  0.1617 -0.3000  0.1135
42794W        W85785  13.867  31.668   0.074 -0.0909  0.2933  0.1911
42795W        W85786  28.987   7.651  23.858 -0.1250 -0.1229 -0.1686
42796W        W85787  28.172  17.161  24.551  0.1613 -0.0773 -0.2808
42797W        W85788  13.453   6.635  10.320  0.0291 -0.1872 -0.1867
42798W        W85789  28.594  32.836   3.671  0.1747 -0.0100  0.1287
42799W        W85790  16.916  13.774  20.681  0.6039 -0.2179  0.1351
42800W        W85791   3.008  17.216   5.290 -0.0888  0.3005  0.0741
42801W        W85792  32.084  22.672  26.820  0.2905  0.4213 -0.0794
42802W        W85793  24.431   9.069  23.121  0.1637 -0.0143  0.0201
42803W        W85794   7.992   6.921  10.148  0.1652  0.2263  0.1981
42804W        W85795   8.746   4.212  24.859  0.1957  0.2782 -0.2514
42805W        W85796  31.847  34.607  24.985 -0.2451  0.2301  0.1957
42806W        W85797   3.449   1.963   2.570 -0.0815 -0.0738 -0.2465
42807W        W85798  24.393  26.168   4.642  0.2615  0.0288  0.1987
42808W        W85799  20.443   5.815   8.500 -0.0392  0.0785  0.0006
42809W        W85800   7.214  27.566  10.432 -0.1038  0.3181 -0.2831
42810W        W85801   2.454   7.817   6.179 -0.1082  0.3096  0.2166
42811W        W85802  13.781  25.606   8.980 -0.1456 -0.1996 -0.2033
42812W        W85803   8.544  19.669  22.027 -0.0797 -0.0874  0.2515
42813W        W85804  17.043   7.424  22.072 -0.3336 -0.1991  0.1252
42814W        W85805   2.611   3.360  23.484 -0.2613  0.0035  0.0974
42815W        W85806  22.069  21.516   6.636 -0.1564 -0.0286 -0.0116
42816W        W85807   1.991  22.052   3.121 -0.0316 -0.2170 -0.1648
42817W        W85808  24.062  13.635   0.755  0.2342 -0.0642  0.0052
42818W        W85809   3.722  25.511  25.911  0.0598 -0.2263 -0.0717
42819W        W85810  31.435   3.978  23.867  0.0724  0.1904  0.0380
42820W        W85811  20.880  14.242  25.463 -0.3243 -0.1892  0.3621
42821W        W85812  28.821   7.664   8.413 -0.3675 -0.0158 -0.5106
42822W        W85813  29.507   6.045   7.627  0.0073  0.4082 -0.0792
42823W        W85814  33.833  20.035  15.614  0.2213  0.1313  0.1316
42824W        W85815   1.921   8.548   1.455 -0.0872 -0.1748  0.0864
42825W        W85816  11.326   8.149   3.470  0.0554  0.2675 -0.2684
42826W        W85817  19.783  12.070   5.564  0.0625 -0.2521 -0.1165
42827W        W85818  24.908   1.450  18.233 -0.4570 -0.4829 -0.1848
42828W        W85819  32.125   0.742   4.833  0.1222  0.2030 -0.0555
42829W        W85820   2.214   2.983  23.965 -0.0433  0.2584 -0.3126
42830W        W85821  21.338   1.630   0.891 -0.1111 -0.2859 -0.3214
42831W        W85822  32.030   9.213   5.408  0.1030  0.2136 -0.0800
42832W        W85823   9.173  30.841  25.056 -0.0102  0.0333  0.0569
42833W        W85824  19.038   2.906   9.003  0.0638  0.0973  0.2964
42834W        W85825   1.919  12.068  20.994  0.2446  0.2125 -0.3836
42835W        W85826  25.704  12.786  28.778  0.1800 -0.0511 -0.0890
42836W        W85827   9.789   4.770   6.642 -0.3276  0.0856  0.0064
42837W        W85828  18.917  32.227   7.126  0.0624  0.1954  0.2556
42838W        W85829  11.731  33.499  19.495  0.4181 -0.0819 -0.0679
42839W        W85830   5.690  10.926   4.181  0.1713  0.1637 -0.0155
42840W        W85831  26.393  30.951  24.791  0.2790  0.0057  0.0279
42841W        W85832  28.064  23.696   6.407 -0.3402  0.2995 -0.1108
42842W        W85833  19.788   6.544  24.838 -0.1038  0.2289  0.1322
42843W        W85834  12.433   0.777  22.413  0.0389 -0.2516  0.1046
42844W        W85835  28.122  24.834  21.706  0.3117 -0.2534 -0.2464
42845W        W85836  28.404  18.545   0.073 -0.1561  0.0470 -0.0552
42846W        W85837  28.859   0.165   7.182 -0.2723  0.4460  0.0542
42847W        W85838  33.808  22.805  15.125 -0.2934 -0.2324 -0.1504
42848W        W85839  17.551   3.126   5.456  0.1768  0.4151 -0.1680
42849W        W85840  21.860   4.541  25.182 -0.0860 -0.0589 -0.1203
42850W        W85841  29.141  11.897  24.971 -0.2144 -0.2194 -0.1895
42851W        W85842  32.036  23.219   9.711  0.2111  0.2035  0.2255
42852W        W85843  22.721  25.939   3.396 -0.0145  0.0476  0.2558
42853W        W85844   2.769  25.135  28.822 -0.1410 -0.1489  0.0078
42854W        W85845  25.878   4.509   1.445  0.0145  0.2035  0.0662
42855W        W85846  28.024  16.480  27.699 -0.1387  0.1007  0.2823
42856W        W85847  33.621  10.383   8.297  0.3235  0.0701 -0.3248
42857W        W85848  32.380  18.782   5.099  0.1331  0.0812  0.1359
42858W        W85849  29.674  11.078   5.918 -0.1408 -0.1950  0.0872
42859W        W85850  24.740   9.696  24.384  0.0145  0.0590  0.0882
42860W        W85851  18.991  12.139  28.214 -0.4086 -0.0448 -0.2413
42861W        W85852   1.543  32.246   6.780  0.2475  0.1754  0.3331
42862W        W85853   9.186  32.863  15.699 -0.0429 -0.0583 -0.0539
42863W        W85854  21.809   6.848  17.147 -0.0671  0.0566 -0.3487
42864W        W85855  29.770   0.810   3.912  0.2447  0.0054  0.2744
42865W        W85856  14.787  34.800   1.023  0.0500 -0.2305 -0.0740
42866W        W85857  21.027   7.397  25.410 -0.1445 -0.1800 -0.0597
42867W        W85858   1.962  17.321   0.506 -0.1377  0.3943 -0.2257
42868W        W85859  25.335   6.765   6.645  0.0317 -0.1894  0.4378
42869W        W85860  28.692  11.430  24.188 -0.1509 -0.1119  0.1998
42870W        W85861  29.614   6.036  22.604 -0.1033 -0.0453 -0.1304
42871W        W85862  11.897  34.275  25.536 -0.2309  0.3265  0.1467
42872W        W85863  10.784  20.183   2.778 -0.1678  0.0528  0.2549
42873W        W85864  28.754  32.564  13.533  0.0852  0.0072  0.2572
42874W        W85865  30.873  19.842   1.775 -0.0379  0.6238  0.1525
42875W        W85866   9.877   0.570  23.068  0.0906  0.4076 -0.0678
42876W        W85867   2.357  12.854   8.374 -0.2653 -0.0287  0.1780
42877W        W85868  20.933  10.862   7.868 -0.2384  0.0859  0.2540
42878W        W85869  21.398  11.603  20.731 -0.1103  0.0852  0.3854
42879W        W85870  20.153   5.149  18.937  0.1590 -0.1518  0.0124
42880W        W85871  25.844   8.761   1.794 -0.0421  0.0319 -0.0591
42881W        W85872  34.382   5.141   3.071 -0.1242  0.2447 -0.0678
42882W        W85873  26.485   0.372  12.895  0.0855 -0.0507  0.1558
42883W        W85874  18.121  10.170   5.971 -0.2030  0.3118 -0.0483
42884W        W85875  21.664   7.376   4.313  0.1180 -0.1152 -0.1068
42885W        W85876   1.834   1.606  20.352  0.2322 -0.0251 -0.1702
42886W        W85877  21.727  12.017  14.924 -0.1470 -0.2031  0.1534
42887W        W85878  33.246  11.047   2.814  0.2125  0.1477  0.0991
42888W        W85879  30.744   5.454   9.643  0.0139 -0.1998 -0.1132
42889W        W85880   0.697   2.095   6.094  0.0664 -0.1304 -0.1962
42890W        W85881  29.725  30.956   7.615  0.1385  0.2153  0.2030
42891W        W85882  26.381  12.366  10.293 -0.2549  0.3279 -0.0439
42892W        W85883  19.266  27.413   0.410  0.0624  0.0436 -0.0483
42893W        W85884  31.357   0.372  23.464 -0.0560  0.1999  0.1570
42894W        W85885  13.822   1.670   4.392 -0.1227 -0.1078 -0.1150
42895W        W85886  28.207   6.826  28.073 -0.0368  0.2690  0.3238
42896W        W85887  27.796  21.361   2.729  0.0709  0.2585  0.2478
42897W        W85888  28.608   5.305   6.800 -0.1996 -0.2203 -0.3808
42898W        W85889  20.963   7.758  26.992  0.1026 -0.0507  0.1171
42899W        W85890   3.323  11.936   8.575  0.0189  0.1008  0.0754
42900W        W85891  33.560   8.240   0.011  0.0700  0.1079 -0.1231
42901W        W85892  15.033  31.474   2.515 -0.2920 -0.0059  0.2497
42902W        W85893   4.828   3.510  19.398  0.1952  0.0667  0.0233
42903W        W85894  27.938  28.953   0.845 -0.1685  0.3399 -0.2824
42904W        W85895  27.930  17.284   1.658 -0.1821  0.0520  0.0124
42905W        W85896  24.029   6.549  27.200  0.1288 -0.0320 -0.1122
42906W        W85897  24.041  29.986   2.019  0.2808  0.0539  0.2586
42907W        W85898  21.221  12.546  22.601  0.2311  0.0002  0.1361
42908W        W85899   0.197   2.417  19.647  0.0987 -0.0247 -0.2239
42909W        W85900   7.982  28.906   7.415  0.0989 -0.2261  0.2690
42910W        W85901  23.112  11.095  26.176  0.0815  0.0899  0.1021
42911W        W85902  32.448  27.862   5.819  0.0714 -0.1796  0.1219
42912W        W85903  16.356  20.465  21.066  0.4119 -0.1198  0.0207
42913W        W85904  20.133  12.690  19.299  0.1050 -0.0387 -0.1684
42914W        W85905  33.695  28.727   9.056 -0.2981 -0.2573 -0.0224
42915W        W85906   5.324  12.330  22.864 -0.0191 -0.0424 -0.0682
42916W        W85907  18.934  14.848  26.389 -0.0543  0.2782  0.0520
42917W        W85908  16.516  10.680   4.940  0.0252  0.2131 -0.1359
42918W        W85909  16.774  16.526   1.288 -0.0297  0.0818  0.1575
42919W        W85910  19.780  33.561   7.611 -0.1287 -0.1280  0.0049
42920W        W85911  22.780  14.301  28.231  0.0044  0.3086  0.0904
42921W        W85912  26.854  11.736  19.779 -0.0236 -0.1097  0.0710
42922W        W85913  25.398  20.446  28.014 -0.0840  0.0379  0.3712
42923W        W85914   0.731   5.833   5.378 -0.0894 -0.1208  0.2427
42924W        W85915  32.958   6.439   7.124  0.1651  0.1787  0.0083
42925W        W85916   1.638  17.822   3.173 -0.0149  0.0930  0.1189
42926W        W85917  24.387   5.013   3.043 -0.0882  0.0964  0.0013
42927W        W85918  28.663   2.887   8.940 -0.1276  0.1266 -0.2484
42928W        W85919  24.864  13.885   4.866  0.2917 -0.2211  0.0823
42929W        W85920   4.614  11.611   7.901  0.1590 -0.2399 -0.2102
42930W        W85921   1.910  14.132   1.182  0.0755  0.0857 -0.1054
42931W        W85922  11.917   2.622  28.776 -0.1107 -0.3463 -0.0957
42932W        W85923  26.045   2.994  22.754  0.2270 -0.1550  0.1918
42933W        W85924  20.271   6.636   1.928  0.1994  0.1470 -0.0246
42934W        W85925  25.893  24.518  27.498  0.2729 -0.0621 -0.2571
42935W        W85926  15.928   2.953  28.744 -0.0257  0.0682 -0.2961
42936W        W85927  26.845   3.092  28.793  0.1635 -0.1088 -0.0977
42937W        W85928  26.381   9.237  28.545 -0.0949  0.0937 -0.2265
42938W        W85929  12.225   6.044   4.796 -0.0560 -0.0409  0.2256
42939W        W85930  33.784   7.271   8.724 -0.0278 -0.2444  0.3177
42940W        W85931   2.792  31.720  23.890 -0.0219  0.0480  0.0567
42941W        W85932   2.701  12.838   4.446 -0.2839 -0.2624  0.1584
42942W        W85933   1.765  21.224  28.301 -0.0706  0.0956 -0.1351
42943W        W85934   3.610   7.682  16.366 -0.0144  0.0029  0.2363
42944W        W85935  24.158  34.431   6.273  0.2091  0.2049 -0.1093
42945W        W85936   6.411  14.419  28.457  0.3039 -0.0055 -0.1161
42946W        W85937  22.968   0.304   6.950 -0.1901 -0.0610  0.3072
42947W        W85938  30.703  18.297   7.921  0.2053 -0.1531  0.1759
42948W        W85939  29.959  25.319  19.242 -0.0294  0.0271  0.0835
42949W        W85940   6.740  10.984   7.073  0.1954  0.0104 -0.0529
42950W        W85941  13.500   0.447   0.973  0.3806  0.2890  0.3058
42951W        W85942   1.177   7.723   2.824 -0.0678 -0.1688  0.0571
42952W        W85943   2.787   8.673   3.864  0.0716  0.1836 -0.1938
42953W        W85944  34.410  14.260   9.601 -0.1023  0.1211 -0.0317
42954W        W85945  33.303  26.268   3.530 -0.0543  0.0868  0.2243
42955W        W85946   5.802  23.647   2.917  0.1477 -0.2464  0.3809
42956W        W85947  29.523  18.255   9.312 -0.0244 -0.1131  0.0455
42957W        W85948  25.854  27.646   6.105  0.0953  0.1194  0.1716
42958W        W85949  10.233   3.169  22.951 -0.2222  0.1727  0.2318
42959W        W85950  21.491  12.411   2.686 -0.1407 -0.0077  0.1510
42960W        W85951   5.835  14.190   8.830 -0.0589  0.0952  0.0394
42961W        W85952   8.379   8.891   3.197  0.1622  0.1386 -0.0959
42962W        W85953  20.109  30.072   4.241  0.0685  0.4089 -0.4565
42963W        W85954  23.472  32.184   0.055  0.1714  0.0152  0.1855
42964W        W85955   1.708  30.065   8.561  0.0877  0.1363  0.1410
42965W        W85956  21.348  10.283   6.051  0.0947 -0.1097 -0.0915
42966W        W85957   2.428   8.528  26.860 -0.1898  0.2396  0.0660
42967W        W85958   4.711  16.581   5.727 -0.0591 -0.0594  0.2956
42968W        W85959   1.236   3.044   5.394 -0.1767 -0.0035 -0.1326
42969W        W85960   7.998   6.806  17.091  0.1568  0.3645 -0.2959
42970W        W85961  24.907   5.086   3.092  0.0106 -0.3219 -0.0165
42971W        W85962  27.620  32.733   7.018  0.0251 -0.3343 -0.1410
42972W        W85963   4.349  31.789  27.971  0.0310  0.2198  0.0860
42973W        W85964  21.623  11.174   0.539  0.0806 -0.2215  0.1053
42974W        W85965  22.730   9.522   5.265  0.3528 -0.0955  0.5091
42975W        W85966  22.172   3.386  22.847 -0.0633 -0.3097 -0.0631
42976W        W85967  32.377  11.571  11.185 -0.0175  0.0526 -0.0772
42977W        W85968   3.007  33.017  24.532 -0.1811  0.0046 -0.0155
42978W        W85969  13.759  34.496   3.664 -0.0121 -0.1147 -0.2409
42979W        W85970  31.179   1.841  16.619  0.2120 -0.1290  0.1387
42980W        W85971  25.350   2.431   3.943 -0.1568 -0.6714  0.0866
42981W        W85972   2.546  16.455  16.533  0.1557  0.0461  0.2283
42982W        W85973  12.432  24.683   2.296  0.2405  0.1771  0.4129
42983W        W85974   4.481  13.114   5.955 -0.1164  0.0050  0.0876
42984W        W85975  34.640  10.580   2.317  0.2052 -0.0609 -0.3427
42985W        W85976  31.515   0.967   7.676 -0.0947  0.0611 -0.3531
42986W        W85977  24.360   7.077   7.703 -0.1839  0.3487  0.1265
42987W        W85978  14.538   8.996   2.843  0.1747  0.4450 -0.4127
42988W        W85979  34.690   7.580   8.763  0.2531 -0.0212  0.0535
42989W        W85980  27.533   1.836  24.687 -0.0807  0.3058  0.0673
42990W        W85981  26.422  17.467   9.103 -0.0854  0.1526 -0.2600
42991W        W85982  11.202  31.841   9.419 -0.1452 -0.0175  0.2741
42992W        W85983  33.732  10.349   5.578 -0.2188 -0.1849 -0.1165
42993W        W85984   4.198   8.601  21.352 -0.2217  0.1298 -0.1347
42994W        W85985  23.989  11.990   5.599  0.0570  0.1065 -0.1122
42995W        W85986  24.065  25.422  16.447 -0.1033 -0.3630 -0.2568
42996W        W85987   4.318  20.107   3.097 -0.1293 -0.2901  0.2249
42997W        W85988  14.063  17.756  19.987 -0.0667  0.1043  0.1192
42998W        W85989  12.459  17.537   6.072  0.2654 -0.0987 -0.1265
42999W        W85990  29.705  21.366   5.014 -0.2273  0.2162 -0.1826
43000W        W85991  24.285  15.939   6.873 -0.2947  0.1336 -0.1494
43001W        W85992  30.789   2.287  24.437 -0.0713 -0.2551 -0.0399
43002W        W85993   5.757  18.049  21.954  0.1032 -0.1709  0.0331
43003W        W85994  16.040   1.070   2.941  0.1316 -0.1599 -0.0054
43004W        W85995  16.922  10.936  27.127  0.3655  0.1844  0.0373
43005W        W85996  12.299   5.502   1.334 -0.3523  0.0632  0.0030
43006W        W85997  17.264  17.342  24.654  0.0678  0.3301 -0.1568
43007W        W85998  29.408  12.554  14.654  0.1158 -0.1610  0.2419
43008W        W85999  27.807   8.750   8.335 -0.2041  0.0671  0.1810
43009W        W86000  27.218  27.150  21.310  0.1043  0.0046  0.0890
43010W        W86001   0.178   7.080  27.737 -0.0028 -0.2251 -0.2377
43011W        W86002  29.352   1.489  16.532 -0.3003  0.0517 -0.0324
43012W        W86003  26.674  31.875  15.418  0.2394  0.2483 -0.0686
43013W        W86004  26.394   8.568   8.491 -0.1266 -0.1821 -0.1124
43014W        W86005  30.432  18.591   9.470 -0.0413  0.3230  0.0707
43015W        W86006  18.919  11.432   5.307 -0.1140  0.2417  0.0342
43016W        W86007  19.406   3.449   7.956 -0.1289  0.0024 -0.1823
43017W        W86008   3.698  17.666   4.078 -0.3475  0.0578  0.0508
43018W        W86009  29.568  17.391   5.746 -0.0718 -0.2223 -0.0914
43019W        W86010   7.676  17.319   0.610 -0.1528 -0.2995 -0.0799
43020W        W86011   1.065   5.629   9.272 -0.0632 -0.1651  0.0098
43021W        W86012   5.501  16.840  10.395  0.0553  0.2528 -0.0896
43022W        W86013  24.504  22.655   6.832  0.0205  0.2023  0.0874
43023W        W86014  25.566   9.893   8.800 -0.0845 -0.3008 -0.0947
43024W        W86015  21.003   2.070  24.128 -0.0881  0.3889  0.0314
43025W        W86016  22.434  10.640   5.301 -0.1252 -0.2457  0.1993
43026W        W86017   7.194   2.930   6.914  0.1111  0.1097  0.1846
43027W        W86018   3.854  10.861   9.583  0.1507 -0.0427 -0.1023
43028W        W86019  19.385   9.302  27.915 -0.1454 -0.0115  0.3963
43029W        W86020   7.402  28.283   0.006 -0.1312 -0.0421 -0.1157
43030W        W86021  11.634  19.709  29.249  0.2687 -0.1050 -0.2978
43031W        W86022  27.943   7.940   0.721 -0.0290 -0.0796  0.0664
43032W        W86023  32.774   2.080   6.896  0.0379  0.2560 -0.1632
43033W        W86024   1.795  14.481   5.532  0.1638 -0.0515 -0.0271
43034W        W86025  19.304  26.378   6.737  0.1333  0.0773 -0.1337
43035W        W86026   8.049  17.915   9.257  0.1637 -0.0249  0.1176
43036W        W86027  34.247  11.634   6.533 -0.2644  0.0482  0.2038
43037W        W86028   2.887  28.809   3.291  0.0685  0.1169  0.0817
43038W        W86029  26.710  18.074   8.330  0.1268 -0.2090 -0.0289
43039W        W86030  32.497  15.196  11.081 -0.0855 -0.1578 -0.0322
43040W        W86031   6.761  20.341   1.618 -0.2335 -0.3308 -0.0989
43041W        W86032  29.110  23.857   8.634  0.0303 -0.2320 -0.0494
43042W        W86033   0.153  34.634   8.207  0.0907  0.0290 -0.0847
43043W        W86034   7.601  10.590  17.782  0.1910 -0.0790  0.1165
43044W        W86035   2.062  15.361   7.089  0.1081 -0.1761 -0.0752
43045W        W86036   6.076   4.518   5.234 -0.1505 -0.0300 -0.0939
43046W        W86037   7.078   6.253  27.458  0.1591 -0.1450 -0.1189
43047W        W86038   1.929  11.818   3.524  0.2245 -0.0256 -0.0813
43048W        W86039   1.607   4.005  23.441 -0.0254 -0.0987  0.1976
43049W        W86040  22.109   6.682   1.045  0.0618 -0.0774  0.0641
43050W        W86041  20.945  14.419  27.937  0.0051  0.2822  0.0496
43051W        W86042  32.941   5.745  10.607  0.0798 -0.1864 -0.2360
43052W        W86043   2.587   9.155   1.894  0.2542  0.0944  0.4946
43053W        W86044   0.876  18.699   3.040 -0.1156  0.0396  0.1982
43054W        W86045   7.388  19.627   5.762 -0.1181  0.0118  0.0260
43055W        W86046  25.325  15.397   1.949 -0.0017 -0.1455 -0.0855
43056W        W86047  10.547   7.529  23.412  0.2551  0.0548  0.0067
43057W        W86048  31.203  14.340   5.034 -0.3543 -0.2067 -0.0502
43058W        W86049  17.415  33.298  10.056 -0.0222  0.1521  0.3387
43059W        W86050   1.799  14.137   3.536  0.3324 -0.0525 -0.1370
43060W        W86051   3.590  14.974   2.743 -0.0816  0.2784 -0.2136
43061W        W86052  32.405   5.501  28.572 -0.1057 -0.2684  0.1622
43062W        W86053   1.836   0.433   6.801  0.2185  0.3277  0.0450
43063W        W86054  17.154  14.645   0.766  0.0462  0.0322  0.4058
43064W        W86055  11.331   7.925  27.963 -0.2633 -0.3406 -0.3345
43065W        W86056  33.342  15.059   1.275 -0.0477 -0.1517  0.3465
43066W        W86057  31.536   6.084   1.262  0.2188 -0.0173 -0.4633
43067W        W86058   9.332  14.364   2.059 -0.0124  0.0690 -0.1122
43068W        W86059  34.654   9.628   2.865  0.0046 -0.0010  0.1297
43069W        W86060  25.496  15.513   5.521 -0.0890 -0.1144  0.1344
43070W        W86061   2.309   9.705  21.334  0.0801 -0.1833  0.0637
43071W        W86062  27.924  10.606   8.323  0.1575 -0.2064 -0.1469
43072W        W86063  29.164  11.531  16.897  0.2225  0.1241 -0.0601
43073W        W86064   7.560  14.642   1.495 -0.0607  0.1861 -0.0783
43074W        W86065  28.204   4.776  10.253  0.4401 -0.0830 -0.3147
43075W        W86066   7.721  20.946   8.949  0.0274 -0.0555  0.0902
43076W        W86067  22.501  16.121   0.804  0.5351  0.2694  0.2746
43077W        W86068  25.527   8.674   4.763  0.0184 -0.0756 -0.0728
43078W        W86069   5.005  13.150   4.553 -0.1068  0.0207  0.0934
43079W        W86070  32.750  19.221   6.389  0.1169 -0.2199  0.0083
43080W        W86071   8.212  21.862   7.003  0.1356 -0.1283 -0.0129
43081W        W86072   5.330   8.870  20.671 -0.1151  0.3726 -0.0553
43082W        W86073  30.904  33.146   1.790  0.0350 -0.1698  0.0610
43083W        W86074  27.991   0.681   9.311  0.1638  0.4198  0.0278
43084W        W86075  21.897  32.139  23.770  0.4300 -0.3572  0.1333
43085W        W86076  10.104  10.198   7.318  0.0779  0.1850 -0.0185
43086W        W86077  29.167   6.341   7.873  0.2223 -0.4532  0.0771
43087W        W86078  26.311  33.842  26.284 -0.4040  0.1260 -0.0711
43088W        W86079  12.987  13.538   5.339  0.0460 -0.0325 -0.2458
43089W        W86080   4.738  32.855   3.144 -0.1553  0.1698 -0.2923
43090W        W86081  32.896   3.902   0.667  0.0763  0.0073  0.1453
43091W        W86082  33.963  15.980   6.130  0.1678  0.1526 -0.0916
43092W        W86083  23.860  11.985  23.280  0.0343 -0.1219  0.2393
43093W        W86084   4.738  14.660  21.596  0.1337 -0.3436 -0.0673
43094W        W86085  12.618   3.034   1.804  0.3746 -0.2691  0.4055
43095W        W86086   4.778   1.606  10.645  0.2292  0.1702 -0.4473
43096W        W86087   7.111  16.440  10.417  0.0755 -0.3893 -0.0731
43097W        W86088  22.864  30.376  19.506  0.2687 -0.1184 -0.0836
43098W        W86089  33.137  10.359  27.582 -0.0596  0.0225  0.2288
43099W        W86090  24.872  33.966   5.961 -0.0912  0.1667 -0.1296
43100W        W86091  32.401  32.004  20.475 -0.0539 -0.1577 -0.3994
43101W        W86092  25.303   8.401   2.946  0.2915 -0.2533  0.1825
43102W        W86093  21.012   7.499   4.956 -0.1205 -0.3063  0.0132
43103W        W86094   3.578  28.135   1.197  0.3500  0.0578 -0.0396
43104W        W86095  27.155  20.058  24.534 -0.0344 -0.3139  0.0578
43105W        W86096   1.497   3.621   2.196 -0.2050  0.0668 -0.1870
43106W        W86097  19.828   3.560  15.528  0.3444 -0.1658 -0.1559
43107W        W86098  34.014  16.118   9.257  0.3613  0.0918  0.2028
43108W        W86099  12.560  23.461  26.839 -0.1352 -0.2430 -0.1104
43109W        W86100  30.450  10.106  18.637 -0.0358  0.3489  0.0360
43110W        W86101   4.914  21.769   6.046 -0.3013  0.0154  0.0379
43111W        W86102  31.488   9.282   2.124 -0.0075 -0.1248 -0.0624
43112W        W86103   6.835  31.336   4.837 -0.0861  0.1085 -0.2515
43113W        W86104  22.232   5.041   6.911 -0.1910  0.4490 -0.0703
43114W        W86105  20.642   0.264   8.144 -0.3164  0.0460  0.0054
43115W        W86106  32.112  14.928   6.613  0.1557  0.1553  0.2588
43116W        W86107  16.999  13.411   8.863 -0.1265 -0.0039  0.0751
43117W        W86108  22.989  15.834   9.043 -0.0340  0.0155  0.1713
43118W        W86109   5.300   3.258   8.382  0.2703 -0.0700  0.0910
43119W        W86110   2.223  17.667   4.232 -0.0588  0.0081  0.1225
43120W        W86111   6.001  14.153  28.378  0.2383  0.1128  0.1523
43121W        W86112   4.340  25.566   3.506 -0.0689 -0.0381 -0.2254
43122W        W86113   2.646  19.296   7.002  0.0246  0.1486  0.0424
43123W        W86114  15.616   4.596   5.564  0.0705 -0.1887  0.0954
43124W        W86115   0.634   0.825  20.668 -0.0442  0.0969  0.0812
43125W        W86116  25.198  22.585   5.584 -0.1553  0.3152  0.0418
43126W        W86117   5.407   3.840   4.474 -0.0739 -0.0490 -0.0241
43127W        W86118  24.230   7.661  26.288 -0.2363 -0.1213  0.5361
43128W        W86119  34.682  16.754   2.842 -0.2069 -0.1463  0.0250
43129W        W86120  30.061  32.593  25.194 -0.0993  0.1180  0.1047
43130W        W86121   7.894   7.784   1.083  0.0883  0.1187 -0.0619
43131W        W86122  31.356   0.194  21.076  0.2775  0.2785  0.1964
43132W        W86123  34.337   5.384  18.997  0.2734  0.0992 -0.0453
43133W        W86124   5.986  33.592   9.643  0.1628 -0.0898  0.1839
43134W        W86125  19.714   1.301   5.751  0.2156 -0.2092 -0.2303
43135W        W86126  31.232   8.718   5.463 -0.1280  0.2347  0.0369
43136W        W86127  27.461  32.976   1.490  0.2446  0.0907 -0.1238
43137W        W86128  25.390   9.878  24.960 -0.0072  0.0541 -0.0055
43138W        W86129  24.288  21.343   8.413  0.1749 -0.1037  0.3303
43139W        W86130   6.110  15.243   4.727  0.0332 -0.0202  0.0152
43140W        W86131  27.108  16.285  23.486  0.1418 -0.0245  0.1007
43141W        W86132   8.751  21.202  20.014  0.1044  0.1304  0.1155
43142W        W86133   4.455  16.687   5.255 -0.1296  0.2421  0.0743
43143W        W86134  31.747  27.653  19.924  0.2688 -0.1314 -0.3567
43144W        W86135  32.723   1.785  29.068 -0.0676 -0.0303 -0.3302
43145W        W86136  20.534  16.610   5.868 -0.1112 -0.0059 -0.0503
43146W        W86137  25.211  18.769  27.882 -0.2601 -0.0384 -0.1147
43147W        W86138  11.984  33.306  10.552  0.2904  0.0829  0.0794
43148W        W86139  15.327  11.817   3.887 -0.0534 -0.1199 -0.1247
43149W        W86140  22.245  25.596   2.938  0.1949 -0.0138 -0.1886
43150W        W86141  20.042  10.045   1.072  0.1696 -0.0411  0.0827
43151W        W86142  27.504   7.520   5.699  0.1500  0.1154 -0.1229
43152W        W86143  16.651  11.467   1.223  0.1813  0.0349 -0.1709
43153W        W86144   4.885  12.301   8.350  0.1457  0.0385  0.2137
43154W        W86145  16.601  17.322  26.237  0.0333 -0.0997 -0.3506
43155W        W86146   3.416   3.538  25.876  0.2064 -0.1189  0.1704
43156W        W86147   5.982  22.582  10.522  0.0722  0.0228 -0.0881
43157W        W86148  34.154  14.201  22.720  0.2612  0.0667 -0.0716
43158W        W86149  27.694  27.415   8.998  0.2028 -0.0980  0.1307
43159W        W86150   5.909   4.626  24.729 -0.1599  0.0265 -0.0391
43160W        W86151  29.745   3.556  28.928 -0.0538 -0.2625  0.2576
43161W        W86152   8.573  10.639   3.879 -0.0743  0.0927  0.0230
43162W        W86153  21.048   1.037  18.645  0.1012 -0.0490 -0.4177
43163W        W86154  29.241   0.195  25.011 -0.0457 -0.1110 -0.1813
43164W        W86155  15.960  11.923  28.889 -0.0573  0.0781 -0.0352
43165W        W86156   0.589   1.792   0.964 -0.1612  0.0665 -0.0102
43166W        W86157  28.269  10.138  15.727 -0.0763  0.1352 -0.3828
43167W        W86158  32.344  34.771  15.729  0.0841  0.1011  0.1304
43168W        W86159  26.489  19.436   6.952  0.0936 -0.0542  0.1645
43169W        W86160   7.035  11.816  10.562  0.0932 -0.0369 -0.0816
43170W        W86161  30.802   9.767   4.323  0.0068 -0.1697 -0.1127
43171W        W86162   0.760  22.653   7.076  0.2496  0.0650 -0.0892
43172W        W86163  27.423  10.948  27.220 -0.1362  0.3235 -0.0668
43173W        W86164   8.647  22.572  15.131 -0.0044  0.2151 -0.0282
43174W        W86165  19.294   8.681   6.842 -0.0984 -0.3337 -0.2145
43175W        W86166  27.016  11.264   5.492 -0.3712  0.4023  0.0218
43176W        W86167  11.174  30.187   3.134  0.0290 -0.1170  0.0390
43177W        W86168  29.488  15.190   2.179  0.1198  0.1171  0.0274
43178W        W86169   3.698  20.158   4.298  0.0891 -0.4982 -0.1726
43179W        W86170  26.134  34.373  16.160 -0.0931  0.1209  0.0310
43180W        W86171  15.468   3.446  10.233  0.0167  0.3494 -0.2324
43181W        W86172  23.599  11.992   6.447 -0.2652 -0.1014  0.1913
43182W        W86173   6.220   2.975   8.356 -0.1301 -0.0606  0.0387
43183W        W86174   5.087  33.166   1.626  0.1214 -0.0566 -0.4002
43184W        W86175  29.281   6.096   9.611 -0.0241 -0.1166  0.2252
43185W        W86176  32.114  12.677  23.325 -0.0057  0.2177 -0.3438
43186W        W86177  30.428   4.991   7.600 -0.1373  0.2723 -0.1369
43187W        W86178   4.184  14.868   4.977  0.0232  0.2173 -0.1705
43188W        W86179  24.669  13.426  26.859 -0.1614  0.0732 -0.1061
43189W        W86180   1.446   1.314   8.568  0.2927 -0.0972 -0.0899
43190W        W86181  25.285  19.782   6.419  0.0095  0.1466 -0.2599
43191W        W86182   3.114   8.722   6.463  0.1464  0.0277  0.1516
43192W        W86183  34.386   2.306  10.549  0.0266  0.0693 -0.3133
43193W        W86184  23.411   6.722  27.035  0.0826  0.1367 -0.0433
43194W        W86185   7.811  12.044   8.146 -0.1204 -0.0022 -0.1637
43195W        W86186  12.534  12.980  26.828 -0.0763  0.1455 -0.2862
43196W        W86187  20.100  15.548   5.180 -0.0226 -0.1468  0.2829
43197W        W86188  18.359  15.072   4.731  0.0215  0.0901 -0.1169
43198W        W86189   1.686   9.356   3.601  0.2248 -0.2255  0.1809
43199W        W86190  32.147  29.329  15.603 -0.0547 -0.0906  0.0574
43200W        W86191  32.105  33.842  27.049 -0.1147  0.0771  0.2439
43201W        W86192  10.271  28.396   1.231  0.2062  0.0576  0.1900
43202W        W86193  28.347   9.599   1.011  0.0010  0.0315  0.0776
43203W        W86194  19.367  33.692  27.806 -0.3406  0.0574  0.2734
43204W        W86195  31.362  16.603   1.534 -0.0020  0.0255  0.3770
43205W        W86196   9.533  18.798   6.402 -0.2072  0.1666  0.5454
43206W        W86197  28.463  13.086   4.655 -0.1448 -0.3348  0.2400
43207W        W86198   8.959  12.369   7.921 -0.2237 -0.0043  0.0616
43208W        W86199  25.647  12.792   4.059  0.2496 -0.1690 -0.4379
43209W        W86200   2.616  21.486   6.348  0.4845 -0.1036  0.0208
43210W        W86201  27.169  12.234  26.239  0.1544  0.3316  0.2433
43211W        W86202  28.957  12.539  23.119 -0.0212 -0.1029  0.4034
43212W        W86203  26.776   0.651   8.159  0.1791 -0.4988 -0.1946
43213W        W86204  30.645   4.196   0.403  0.0239  0.0248  0.0168
43214W        W86205  31.794  32.638   8.438 -0.1052  0.3605 -0.0521
43215W        W86206  22.978  15.988  26.550  0.1160 -0.3611  0.0877
43216W        W86207  23.995   6.501  22.830 -0.0429  0.2192 -0.2267
43217W        W86208   2.245   6.639   0.039  0.1881  0.1411 -0.2594
43218W        W86209  16.749  10.810   9.526 -0.0367 -0.3010 -0.0204
43219W        W86210   5.184  22.976   1.920  0.6147 -0.0956  0.0168
43220W        W86211  22.280   7.747   4.785 -0.2267 -0.2100  0.2954
43221W        W86212   8.424  12.208   2.430  0.1118 -0.0072  0.2381
43222W        W86213   5.240  34.032  22.857  0.0699  0.3135  0.0977
43223W        W86214   3.381   3.131   5.245 -0.3186  0.1526 -0.0539
43224W        W86215   8.208  31.459   3.633  0.0061  0.2144  0.2518
43225W        W86216  34.471  13.854   9.958 -0.3314 -0.2075  0.2550
43226W        W86217   0.428   8.301   1.607 -0.0547 -0.3297  0.1309
43227W        W86218   7.604   8.340   4.206 -0.3933  0.2664  0.1994
43228W        W86219  11.336   5.641   3.485  0.3488 -0.3235  0.0093
43229W        W86220  27.386  10.686   8.331 -0.4117 -0.1806 -0.3102
43230W        W86221  33.426   7.097  27.912  0.0722 -0.3536 -0.1884
43231W        W86222  33.076   7.171   7.964 -0.0818  0.0679  0.2284
43232W        W86223  28.565  16.391   3.367 -0.3297  0.1641 -0.2842
43233W        W86224  32.998   0.024   8.765 -0.0234 -0.2911  0.0432
43234W        W86225  34.326  33.614   3.097  0.1139 -0.0605  0.2068
43235W        W86226   2.997   9.926   5.767  0.1308  0.2585  0.1860
43236W        W86227   6.768  29.297   7.829  0.2492 -0.4596  0.1318
43237W        W86228   1.122  18.339  27.748  0.2077 -0.0869 -0.3486
43238W        W86229  19.653  30.391   3.529  0.2120  0.1622 -0.1523
43239W        W86230   3.289   7.727   5.722  0.2458  0.1762  0.2202
43240W        W86231  26.747  10.739   1.957 -0.4023 -0.0812  0.2954
43241W        W86232  27.155  13.035   0.258 -0.0004 -0.1110  0.2034
43242W        W86233  26.513   4.243   3.079 -0.0030  0.0874 -0.2467
43243W        W86234   3.463   8.616   6.808 -0.0221  0.0186 -0.1019
43244W        W86235  13.018  13.314   7.991  0.1629 -0.0717 -0.1324
43245W        W86236   9.163   5.389   5.243  0.0231 -0.2524 -0.1655
43246W        W86237   0.695   7.287   2.053  0.0745  0.3898 -0.3307
43247W        W86238  18.971  16.988   0.840  0.1382  0.2283  0.1865
43248W        W86239  26.874  14.212   3.410  0.1916 -0.0217 -0.1823
43249W        W86240  22.578  16.015   1.254 -0.0607 -0.0069  0.1474
43250W        W86241  25.548  34.052   7.999  0.1243 -0.2402 -0.0332
43251W        W86242  28.703   2.827   0.356 -0.3284 -0.0433  0.2879
43252W        W86243  24.624   9.062   6.883  0.0803  0.0940  0.4805
43253W        W86244   4.918   4.058  29.095  0.0874 -0.3661  0.0072
43254W        W86245  12.002   7.052   3.992 -0.2747 -0.0482  0.0342
43255W        W86246  27.976  32.711  27.019  0.0621  0.3564 -0.1107
43256W        W86247   8.561   6.413   8.461  0.0425 -0.0172  0.1727
43257W        W86248   6.062   5.135   8.997 -0.2245 -0.1357 -0.3361
43258W        W86249  30.247   4.663   2.746 -0.3631  0.0284 -0.0089
43259W        W86250  21.460  18.608  24.809  0.1463  0.1987  0.0495
43260W        W86251  21.520  18.608   4.315 -0.0030  0.2319  0.0475
43261W        W86252  23.817  15.881  20.312  0.1679 -0.1729 -0.0433
43262W        W86253  28.651  31.173   7.890 -0.1751  0.1351 -0.1994
43263W        W86254  27.813  27.139   3.665 -0.1803 -0.0269 -0.0790
43264W        W86255  24.508  14.098   2.051  0.0483 -0.2383  0.2489
43265W        W86256  29.205  33.474   6.396 -0.0104  0.2410 -0.1046
43266W        W86257  21.669  18.848   1.450  0.2534  0.0582  0.0982
43267W        W86258   8.330  34.205  10.055 -0.1164 -0.0735 -0.4282
43268W        W86259  34.625  33.234  25.025  0.2601  0.0087  0.1896
43269W        W86260   2.643   1.577   4.057  0.0765  0.1544 -0.1380
43270W        W86261  33.414   3.413   2.141  0.0421 -0.2142 -0.0401
43271W        W86262   0.499  12.259  26.732  0.3260 -0.0763  0.0452
43272W        W86263  23.011  22.714   3.625 -0.1835 -0.0379 -0.0649
43273W        W86264  27.673   7.335   2.322 -0.1959  0.0327  0.1165
43274W        W86265  30.451   4.237  23.934 -0.5140 -0.2419  0.1300
43275W        W86266  26.739  25.174   0.940  0.0945  0.1773  0.3936
43276W        W86267  31.059   7.907  24.492 -0.1120  0.2077 -0.0211
43277W        W86268   7.962   5.699   2.075  0.2254 -0.1091  0.0597
43278W        W86269  33.104  19.909   8.027  0.0600 -0.1349 -0.0957
43279W        W86270   8.821  14.719   8.281 -0.1442 -0.2730 -0.0208
43280W        W86271  30.087   9.250   5.823 -0.1468  0.3474  0.0848
43281W        W86272  14.494  11.539  24.895 -0.0429  0.4234  0.0314
43282W        W86273   8.334  10.762   6.030  0.0027  0.0021 -0.3352
43283W        W86274  33.407  18.422   8.700 -0.2188  0.0769 -0.4300
43284W        W86275  27.656   0.251  29.184 -0.1958 -0.2398  0.0722
43285W        W86276  25.268  14.309  20.161 -0.3598 -0.5899  0.2172
43286W        W86277   9.579   7.147   7.823 -0.1676 -0.0324  0.1949
43287W        W86278  10.060  29.650  19.350 -0.1941 -0.2193  0.1367
43288W        W86279  21.968  12.748   8.465 -0.1089 -0.1541 -0.2388
43289W        W86280   0.505  11.832   4.174  0.4112 -0.0942  0.0507
43290W        W86281  12.031   7.205   2.856  0.1714  0.0686 -0.2082
43291W        W86282  33.192  15.422  23.171  0.1565  0.0523  0.1820
43292W        W86283  23.270   9.780  28.340 -0.1195  0.1971 -0.1991
43293W        W86284  33.629   6.560   9.354  0.0195 -0.0831 -0.0817
43294W        W86285  29.725   8.828   3.398 -0.0666  0.1498 -0.1341
43295W        W86286  32.819   5.739   5.148 -0.1769  0.1050  0.2825
43296W        W86287  31.080   8.794   4.132  0.0989  0.0111  0.0374
43297W        W86288  30.167   9.377   9.205  0.0361  0.3565  0.0195
43298W        W86289  28.193   8.117   9.917 -0.0492 -0.3320  0.0294
43299W        W86290  22.460   3.333   2.372  0.1061  0.1162  0.4108
43300W        W86291   2.691  22.137   9.661 -0.1921  0.2406 -0.1324
43301W        W86292   9.529   9.337   5.073 -0.0221  0.1402 -0.1455
43302W        W86293   3.826  16.266   6.327 -0.0290 -0.0385  0.2030
43303W        W86294   0.328  15.286  11.169 -0.1479 -0.0287  0.2278
43304W        W86295  33.326  15.008  21.673 -0.1447 -0.2378 -0.0887
43305W        W86296   2.715  14.150  26.891  0.0318 -0.1733  0.0777
43306W        W86297  26.718  13.505   8.802  0.0624 -0.0506 -0.1117
43307W        W86298  34.287  17.360  10.395 -0.0814  0.2579 -0.1457
43308W        W86299  12.562  18.916   0.258 -0.0659 -0.1415  0.2811
43309W        W86300  10.843  18.127   3.684  0.0098 -0.2058  0.2558
43310W        W86301  12.009  10.635  15.405 -0.0058 -0.2749 -0.0230
43311W        W86302  17.275   9.648   4.273 -0.0257 -0.2541  0.2180
43312W        W86303   0.772  29.256  25.961 -0.1863  0.0748  0.1775
43313W        W86304   5.727  28.847   7.278  0.2068 -0.2222  0.0300
43314W        W86305  13.258  18.826   8.308 -0.0982  0.1157  0.1917
43315W        W86306  24.561  32.670  26.253 -0.1542  0.0327  0.0172
43316W        W86307  26.117   5.161  27.752  0.0478  0.0676 -0.0737
43317W        W86308   0.585  18.083  21.000  0.0568 -0.1836  0.1045
43318W        W86309  27.408   9.225   8.536  0.4292  0.2584  0.2918
43319W        W86310  27.466  25.362  21.416  0.1218  0.1238 -0.1178
43320W        W86311  24.615  18.719   3.466  0.3534  0.2808  0.0361
43321W        W86312   1.728  15.305  18.610 -0.1291  0.4266 -0.0379
43322W        W86313  29.618  15.427  26.264  0.1482 -0.0693 -0.0159
43323W        W86314  10.461  30.859   3.353  0.2512 -0.2162 -0.0157
43324W        W86315  22.217  19.206   4.522  0.2022  0.0189  0.0937
43325W        W86316  27.043  12.772   7.162 -0.0015  0.0791 -0.0118
43326W        W86317  19.938  11.680   8.143  0.1064 -0.0966 -0.0632
43327W        W86318   3.614   7.697   2.637  0.4014  0.2312 -0.0817
43328W        W86319  29.771  15.558   8.094 -0.1192 -0.0628  0.1264
43329W        W86320   3.827  31.122   4.086  0.3019  0.0153  0.1430
43330W        W86321  10.640  17.423   9.053  0.3018  0.0238  0.0196
43331W        W86322   2.787   7.184   2.173 -0.1198 -0.1234  0.0111
43332W        W86323  33.984  10.084  23.862 -0.0686  0.2280 -0.2455
43333W        W86324  31.941  20.111   5.439 -0.0218  0.1776 -0.0071
43334W        W86325  12.180  16.294  25.516 -0.0667 -0.1099 -0.1098
43335W        W86326  32.436   8.981   4.325 -0.3123  0.0264  0.1258
43336W        W86327  22.811   6.211   7.528 -0.0392  0.0034 -0.3767
43337W        W86328  24.897   2.529   7.739 -0.1913 -0.1337 -0.0694
43338W        W86329  25.151  18.502   7.077  0.2515 -0.1377 -0.1205
43339W        W86330   1.088  10.561   9.413  0.1323 -0.2302 -0.2625
43340W        W86331  25.647  26.146   6.049  0.2568 -0.1872  0.2525
43341W        W86332  18.100   5.954  27.487  0.0693 -0.0132 -0.0250
43342W        W86333  25.021  15.323   5.862  0.0743  0.1991  0.1371
43343W        W86334  12.118   5.339   5.593 -0.1106 -0.1337  0.0085
43344W        W86335  30.832  13.605  20.969 -0.2069  0.1396  0.0564
43345W        W86336  31.919   4.354   6.020  0.0693  0.0712  0.3151
43346W        W86337   3.545  20.564   0.765  0.0727  0.0782  0.1178
43347W        W86338   8.580   9.921  23.691 -0.0627 -0.0727  0.2060
43348W        W86339  18.552  29.044  25.734  0.0511 -0.1414  0.0843
43349W        W86340  25.934   4.039   6.487 -0.1660  0.2872 -0.4219
43350W        W86341   0.935   7.641  10.708  0.0259 -0.0994 -0.2357
43351W        W86342  32.799  14.899   7.851  0.3233  0.1641 -0.2392
43352W        W86343  29.549  19.255   9.595 -0.0815  0.1607  0.1420
43353W        W86344   6.841  21.386   6.384 -0.1129 -0.1500  0.0054
43354W        W86345  29.472  12.077   9.030 -0.2286  0.0615 -0.0414
43355W        W86346  29.122   3.562  23.179 -0.0583  0.0183  0.2154
43356W        W86347  30.718   9.342   7.632  0.2329  0.0024  0.1781
43357W        W86348  26.792   3.582   6.539 -0.0373  0.0573 -0.0544
43358W        W86349  21.666   6.560  24.658  0.1687 -0.0581 -0.0797
43359W        W86350  20.065   1.421   9.708  0.0540 -0.0604  0.0869
43360W        W86351  32.684  10.382   0.733 -0.2253  0.0377 -0.0440
43361W        W86352  31.757   6.506   0.014  0.0702  0.1021 -0.0266
43362W        W86353   1.489   8.486   2.702  0.3822 -0.0638 -0.6107
43363W        W86354  12.196   7.786  27.452 -0.3454  0.3077 -0.1015
43364W        W86355  25.058   5.409   6.881 -0.1085 -0.2145  0.0448
43365W        W86356  30.038   4.488   8.986  0.5729 -0.3257  0.3967
43366W        W86357  10.106  15.919   1.258 -0.0383  0.2614  0.1938
43367W        W86358  10.134   9.747   6.591 -0.2138  0.1933 -0.1824
43368W        W86359  28.554  13.932   2.702 -0.3638 -0.0098 -0.1209
43369W        W86360  27.337   0.212  20.129 -0.2990  0.0593  0.4006
43370W        W86361  28.352  14.739   1.425  0.0070  0.2693 -0.1652
43371W        W86362   0.267  13.887   1.506 -0.1474  0.0866 -0.0841
43372W        W86363   3.056  28.329  25.229  0.4912 -0.2918  0.0031
43373W        W86364   5.176   5.992  21.750  0.2990  0.1095 -0.0027
43374W        W86365  30.545  15.279   4.709 -0.0449  0.1869 -0.3145
43375W        W86366  31.922  30.161   6.978 -0.1744  0.4250 -0.2969
43376W        W86367  24.576   9.127   5.511  0.1114  0.0825  0.2721
43377W        W86368  24.223  18.110  28.546 -0.0781  0.0637  0.1262
43378W        W86369  24.771  13.458   5.288  0.0068  0.1211  0.0774
43379W        W86370   3.650   4.938  23.553  0.2146  0.1734  0.2460
43380W        W86371  23.142  16.808   7.183  0.3210 -0.2070  0.0687
43381W        W86372  13.809  11.130  22.044 -0.1132 -0.2612 -0.0215
43382W        W86373  34.072  12.204   6.380 -0.2294  0.0546  0.2539
43383W        W86374  24.874   2.115   4.168  0.1305 -0.2551  0.1100
43384W        W86375   5.531  28.170  25.336 -0.2740  0.0607  0.2345
43385W        W86376  18.502   3.638   4.806  0.2629 -0.0545  0.1537
43386W        W86377  31.354  15.842  26.421 -0.4838 -0.2426 -0.4108
43387W        W86378   5.189  11.586   0.222 -0.0635  0.1871 -0.1386
43388W        W86379  11.589  32.594   9.743 -0.0601 -0.0481  0.3767
43389W        W86380  31.135  31.125   5.809  0.2390  0.0103  0.0472
43390W        W86381   7.087   2.021  10.198 -0.0150 -0.0180 -0.0394
43391W        W86382   8.085  33.389   9.224 -0.1856 -0.4893  0.2006
43392W        W86383   3.324  25.601   6.091  0.3407 -0.2214 -0.1999
43393W        W86384   5.862  10.658  27.898 -0.1035 -0.3585 -0.1581
43394W        W86385  14.008  16.216  25.419 -0.0225  0.0970 -0.0952
43395W        W86386  21.045   4.774   9.631 -0.0906 -0.2687 -0.2184
43396W        W86387  27.603  15.933  23.741 -0.1396 -0.0100 -0.2081
43397W        W86388  24.906  31.661   0.545 -0.1355 -0.1577 -0.1208
43398W        W86389  27.580  34.771  13.781  0.0919 -0.0164 -0.3033
43399W        W86390   6.436  11.142   3.495  0.0888 -0.1355 -0.4047
43400W        W86391   1.338   5.156  26.066 -0.0690 -0.2754  0.2221
43401W        W86392   4.292   4.141   7.049  0.0997 -0.1478  0.2022
43402W        W86393   4.547   5.083   4.851  0.1451 -0.2179 -0.2510
43403W        W86394   7.725  23.536   8.444  0.0555  0.0407  0.3441
43404W        W86395  34.048  13.327  10.801 -0.1549  0.2164  0.3142
43405W        W86396  27.152  19.388  25.084 -0.0032  0.0470  0.2309
43406W        W86397   3.954  17.600  11.439 -0.1161 -0.0577  0.1160
43407W        W86398  23.708  23.094  21.133 -0.4133 -0.0873  0.1921
43408W        W86399  27.515   1.170   6.332  0.0087  0.0046  0.1607
43409W        W86400   7.584  13.059  20.446 -0.1102  0.1335  0.0290
43410W        W86401  22.989  16.495   1.474 -0.0284 -0.0567 -0.1170
43411W        W86402  10.661   8.208   4.402  0.0167  0.3655  0.1375
43412W        W86403  29.674  28.106   7.154 -0.2220  0.0585 -0.0703
43413W        W86404  15.273  17.845   5.202 -0.0775 -0.0943 -0.0042
43414W        W86405  27.285  30.528   8.114 -0.0499  0.0085  0.0978
43415W        W86406  25.941  15.416   5.091  0.1718  0.0516 -0.0219
43416W        W86407  34.633  18.949   0.419  0.1424  0.1099 -0.0911
43417W        W86408  34.144  31.359  29.263  0.0466 -0.1764  0.1765
43418W        W86409  22.147  16.480   8.479  0.1803 -0.0053  0.0220
43419W        W86410  25.770   5.124   5.167  0.2441 -0.0912  0.2435
43420W        W86411  34.073   7.308   3.817  0.1362  0.0350  0.1017
43421W        W86412  25.774   4.610  24.002  0.0706 -0.0404 -0.0097
43422W        W86413   6.803  28.351   2.414  0.1183 -0.3656  0.2616
43423W        W86414  27.872  17.814   3.596  0.1238  0.1434 -0.0357
43424W        W86415  20.391   6.623  17.925  0.0814 -0.1013  0.5532
43425W        W86416  21.376   5.553   3.496 -0.1728  0.0511 -0.0387
43426W        W86417  30.024   5.334   7.764 -0.0055 -0.3449  0.1438
43427W        W86418  19.056  19.534   7.994  0.0467 -0.5448  0.2567
43428W        W86419  16.397  11.847   0.981 -0.0258 -0.2906 -0.1688
43429W        W86420  30.054  13.528  18.959  0.0466  0.0388 -0.0602
43430W        W86421  30.096  17.279   9.456 -0.3358 -0.0935 -0.2445
43431W        W86422   1.138   1.085  10.303  0.1027  0.2928 -0.3029
43432W        W86423  13.643  18.019  22.071 -0.2132  0.2473 -0.1845
43433W        W86424  28.757   9.171   6.022 -0.2457  0.1142 -0.0453
43434W        W86425  15.723  12.791   0.695 -0.0103  0.2736  0.1621
43435W        W86426  28.982  12.018   9.255  0.1755  0.0392 -0.0813
43436W        W86427   3.810   6.054   7.559  0.1452  0.4809 -0.0598
43437W        W86428  15.218  32.142   8.026 -0.1599  0.0025 -0.3142
43438W        W86429  26.534  23.127   8.900 -0.1360  0.1592  0.0705
43439W        W86430   0.234  31.929   5.802  0.0153  0.0037 -0.0493
43440W        W86431   5.224  14.897   1.341 -0.3053  0.2878 -0.1510
43441W        W86432   3.037  29.476   5.265 -0.0168 -0.0985 -0.0187
43442W        W86433   7.521   3.966  25.193  0.0444  0.0299  0.3426
43443W        W86434  32.479  16.298  10.890 -0.0849 -0.2188 -0.3441
43444W        W86435  28.052  14.760   7.270 -0.0622 -0.2137  0.1040
43445W        W86436  27.927  18.793  19.152  0.2530  0.1779 -0.0196
43446W        W86437  30.892  19.707   7.729  0.0867 -0.2133 -0.0911
43447W        W86438  22.573  31.275   6.003 -0.0754  0.0543  0.0140
43448W        W86439  23.284   7.245   4.960 -0.0658  0.1845  0.1145
43449W        W86440   3.686   6.453   9.375 -0.2997 -0.0891  0.0656
43450W        W86441   7.362  28.082  25.427  0.1264  0.5332  0.1464
43451W        W86442  32.110   3.881   0.316 -0.1392  0.0362  0.1256
43452W        W86443  30.614   1.256   8.097 -0.0832 -0.0886  0.2565
43453W        W86444   2.215   2.520  19.966  0.1779  0.2802  0.1675
43454W        W86445   6.074  11.572   4.727  0.0594  0.5039  0.0901
43455W        W86446  27.672  16.668   3.501  0.1488 -0.0759  0.0575
43456W        W86447  32.686   5.208   7.010  0.0184 -0.1864 -0.1672
43457W        W86448  31.972  16.430  10.106 -0.0163 -0.4120  0.1476
43458W        W86449  27.279  11.522   6.920  0.0145  0.0467  0.1207
43459W        W86450  29.278  15.333  10.709  0.0521 -0.0634  0.2918
43460W        W86451   0.420  30.186  22.744  0.1430 -0.0660  0.1394
43461W        W86452  28.624   9.964   5.161  0.1712 -0.0129  0.0707
43462W        W86453  25.708  20.569   3.905  0.0904 -0.3345  0.1270
43463W        W86454  21.293  27.948   3.746  0.4425 -0.0342  0.1929
43464W        W86455  26.157   3.902   3.215 -0.2363 -0.0112 -0.0281
43465W        W86456   0.438  10.686  20.777  0.1164  0.0542  0.2676
43466W        W86457  34.321  14.779   9.784  0.1801 -0.1364  0.0342
43467W        W86458   2.837   6.901  25.606  0.0878 -0.1528  0.4055
43468W        W86459   8.688   7.005   0.442 -0.2464  0.3381  0.0664
43469W        W86460  12.466   2.539   8.391 -0.1081  0.0368 -0.2864
43470W        W86461  27.201  10.850   2.168  0.0715  0.0738  0.0065
43471W        W86462   3.883  32.390   4.788  0.0667  0.0088 -0.1848
43472W        W86463   3.803  16.071   9.531 -0.0320 -0.0413  0.1440
43473W        W86464  12.495  11.209  10.000  0.2600  0.3763 -0.1599
43474W        W86465  25.552   4.579   8.502 -0.1366 -0.0421 -0.0346
43475W        W86466   6.510   2.384   6.273  0.0151  0.2289 -0.0716
43476W        W86467  18.680  20.327   2.743  0.2965 -0.3106 -0.0059
43477W        W86468  23.721   8.273   0.703 -0.0937  0.1701  0.0854
43478W        W86469  15.790  15.776  22.736  0.0602 -0.0531 -0.0154
43479W        W86470  24.150  15.004  28.260 -0.1085 -0.1721  0.2146
43480W        W86471   4.733  32.902  25.791 -0.1534  0.0781  0.2311
43481W        W86472  33.431   0.307   8.568 -0.2011  0.2064  0.0316
43482W        W86473  20.093   2.806  23.886  0.3416 -0.0560  0.1721
43483W        W86474  10.882  11.793  18.937  0.1340 -0.1958 -0.1407
43484W        W86475  18.568  12.536   8.328  0.2385  0.1942 -0.2851
43485W        W86476  32.240  13.394  24.764  0.2146 -0.2256  0.0856
43486W        W86477  24.984  13.534  10.509  0.0465  0.4636  0.0909
43487W        W86478  12.599  27.512  29.166  0.1862  0.2581 -0.1861
43488W        W86479  24.370  17.144   0.831 -0.0755 -0.1851 -0.0225
43489W        W86480  24.449  21.180  14.505  0.0615  0.2393 -0.0784
43490W        W86481  29.808  18.603   6.269 -0.1577  0.2461  0.3463
43491W        W86482  28.729  11.855   9.978 -0.0320 -0.0119  0.1362
43492W        W86483   0.792   4.707  20.789 -0.1344  0.3663 -0.1382
43493W        W86484   6.134   7.493  27.490  0.1235  0.3300 -0.1839
43494W        W86485   2.068  24.441  18.849 -0.1123  0.0087  0.0861
43495W        W86486   5.397   7.499  21.057  0.0740 -0.0382 -0.0351
43496W        W86487  30.905  11.227   9.111 -0.0712 -0.3985  0.1477
43497W        W86488  33.158  17.529   7.448  0.2608 -0.4738 -0.0395
43498W        W86489   4.261  11.218   5.459 -0.1334 -0.1382 -0.2172
43499W        W86490  22.052  15.078   7.775  0.0168  0.4638 -0.1355
43500W        W86491  18.145   4.989   6.809 -0.0319 -0.1326 -0.1133
43501W        W86492  33.813   5.903   2.563  0.0843 -0.1114 -0.1704
43502W        W86493   0.494  32.120  17.313  0.1665  0.1147 -0.1478
43503W        W86494   7.880  30.360   0.897  0.0615 -0.0588 -0.1624
43504W        W86495  27.721   7.986  10.144  0.2044  0.0857 -0.1019
43505W        W86496  17.179  14.922  28.021 -0.0217  0.0552 -0.0466
43506W        W86497   1.872  26.685   5.576 -0.2467 -0.0589  0.1836
43507W        W86498   4.755  11.294  26.427  0.2347  0.1719 -0.1678
43508W        W86499   7.416   4.723   0.833 -0.0356  0.2205 -0.2442
43509W        W86500  21.039   8.027   2.804  0.0415 -0.0134  0.0264
43510W        W86501  13.094  21.752  28.323 -0.0958  0.0854 -0.1656
43511W        W86502  21.581   8.319  21.714  0.0706  0.4283 -0.1813
43512W        W86503  29.173  27.973   1.833  0.0865  0.0013 -0.2089
43513W        W86504   2.094  33.546  10.271 -0.1808  0.0868 -0.1290
43514W        W86505   4.498   0.853  29.172 -0.0525  0.1356 -0.3633
43515W        W86506  21.960  17.100  19.556  0.0172 -0.2491 -0.4484
43516W        W86507   5.766   5.581   0.043  0.3881 -0.0392 -0.1389
43517W        W86508   3.770  31.825   6.803  0.0158  0.2329 -0.5053
43518W        W86509  27.274   9.490   2.589 -0.0889 -0.0179 -0.1080
43519W        W86510  27.671  11.479   5.928  0.2978 -0.1726  0.2106
43520W        W86511  20.177   5.096   7.749  0.2241  0.0812  0.0800
43521W        W86512  27.811   6.030   7.554 -0.3495  0.2294 -0.0947
43522W        W86513  27.438   3.815   4.694  0.0060  0.2015 -0.1287
43523W        W86514  11.651   9.638   4.825  0.0909  0.1554  0.3765
43524W        W86515  21.179  22.232  17.896  0.1403 -0.2128  0.0981
43525W        W86516  24.393  26.655   7.020  0.0267 -0.0050  0.2525
43526W        W86517   2.824  13.183   1.223  0.1717  0.2223  0.0215
43527W        W86518  32.019  14.259  28.935 -0.3984 -0.1704 -0.2067
43528W        W86519  27.474   9.516   6.708  0.2457 -0.1328  0.0300
43529W        W86520   3.291  10.249   4.941 -0.0185 -0.1371  0.3060
43530W        W86521   1.743  23.641   1.984  0.1598 -0.1001 -0.0017
43531W        W86522  25.098   0.666  28.118 -0.1092 -0.0079  0.5967
43532W        W86523   9.982  30.802   3.708 -0.3655  0.2376  0.0176
43533W        W86524  26.085  11.950   8.358  0.1163 -0.3288 -0.1212
43534W        W86525  31.127   8.187   0.826 -0.1207 -0.0312  0.1832
43535W        W86526  30.350  10.271   0.025 -0.1577  0.3257 -0.0503
43536W        W86527  15.005  15.463   6.650 -0.0240  0.0908 -0.0653
43537W        W86528   1.641  13.820   7.108  0.0802 -0.1575  0.1102
43538W        W86529  28.439  14.973   2.992 -0.0095  0.2477  0.0360
43539W        W86530   5.467   0.272   4.965  0.0905 -0.2556 -0.1811
43540W        W86531   6.494  12.046   4.584 -0.0927 -0.1508  0.1801
43541W        W86532   3.014  21.882   9.416  0.0872 -0.1126 -0.0438
43542W        W86533  17.982  23.979   5.340  0.1166 -0.2368 -0.1679
43543W        W86534  18.882   6.363   0.035  0.1236 -0.1975  0.1495
43544W        W86535   0.994   3.473  10.564  0.2474 -0.0809 -0.0933
43545W        W86536  30.747  14.800   5.197 -0.2363  0.0338 -0.0538
43546W        W86537  32.238  22.916   3.974 -0.2544  0.0012 -0.0954
43547W        W86538   4.806  23.684   1.232 -0.0203 -0.5833 -0.1021
43548W        W86539  28.899   6.297  28.212 -0.1699  0.1556 -0.0443
43549W        W86540  13.657  11.646   1.767  0.2099  0.0839 -0.3236
43550W        W86541  30.853  21.520   0.136 -0.0521 -0.1820  0.4484
43551W        W86542  29.404  13.251  28.771  0.2357  0.0231 -0.1810
43552W        W86543  30.559  31.352   2.464 -0.1987  0.1215 -0.2461
43553W        W86544   0.948  27.873   7.485  0.0335 -0.0243 -0.0778
43554W        W86545  34.629   7.132   3.588 -0.2053  0.1879  0.0475
43555W        W86546   6.152  19.248   9.062  0.1135 -0.1579 -0.0502
43556W        W86547  33.859   5.465   9.414  0.1512  0.2449  0.2105
43557W        W86548  10.040  28.749   8.452 -0.0569 -0.2018 -0.0732
43558W        W86549  25.268   3.702   8.106 -0.1552  0.0578  0.1210
43559W        W86550   0.372   1.356  18.056  0.0744  0.0758  0.1186
43560W        W86551  25.648   9.795   1.976  0.0058 -0.1253 -0.2930
43561W        W86552   2.020  15.781   7.900  0.2099 -0.1594  0.4380
43562W        W86553  32.908  26.479   7.960  0.2863  0.0919 -0.1042
43563W        W86554  22.551  20.665  24.383 -0.3731  0.0060 -0.0452
43564W        W86555  17.155  29.947   3.904 -0.1892  0.0305 -0.1100
43565W        W86556  23.259  19.501  24.138  0.2755  0.0185  0.2312
43566W        W86557   5.226  10.347   3.765 -0.0163 -0.0138  0.1851
43567W        W86558   6.207   3.073   7.871  0.0369 -0.0264  0.0883
43568W        W86559  18.629  18.532   9.106 -0.0226  0.1648 -0.0970
43569W        W86560   4.598  15.155   7.003  0.0943 -0.1747  0.1996
43570W        W86561  20.422  16.686   8.248  0.3327 -0.0877  0.0039
43571W        W86562  29.485   4.809   8.583 -0.1619  0.1751  0.2664
43572W        W86563  20.503  19.506   6.936  0.1160  0.2320 -0.0912
43573W        W86564   5.835   6.206   7.025 -0.0414 -0.3435  0.0748
43574W        W86565  32.921  20.306   8.345  0.2056  0.0177 -0.1309
43575W        W86566  27.626  32.729   6.029 -0.0381  0.0193  0.1770
43576W        W86567   1.176  12.334  11.423  0.0230  0.2141 -0.1569
43577W        W86568  29.165  18.504   5.031 -0.0485 -0.1314 -0.1085
43578W        W86569   0.506  17.195   4.124 -0.4288  0.6323  0.0613
43579W        W86570   7.781   9.319   8.629 -0.6155  0.1783 -0.1383
43580W        W86571   2.998  15.311  11.853  0.3994  0.0853  0.3480
43581W        W86572   0.278   9.326  23.480 -0.2318  0.2236 -0.2492
43582W        W86573   3.188  25.649  28.754 -0.2227  0.2072  0.1338
43583W        W86574   9.262  11.186  19.216  0.1343  0.1692  0.0437
43584W        W86575  32.988  13.982   8.397  0.2287 -0.0088  0.1541
43585W        W86576  26.388  22.247   0.940  0.0004  0.0152 -0.2355
43586W        W86577  33.236  15.753   2.405 -0.2774  0.0267  0.0430
43587W        W86578  26.904  13.385   4.644 -0.1042 -0.2775  0.1638
43588W        W86579  10.043  14.682  23.664 -0.0052  0.0474 -0.2718
43589W        W86580   4.583   7.329  11.439 -0.0253  0.2174  0.0053
43590W        W86581  20.659  25.605   6.757 -0.0956 -0.0128  0.0445
43591W        W86582  10.087   0.396   4.351  0.0521  0.0293  0.0619
43592W        W86583  32.621  17.595  10.729 -0.2706  0.2695  0.1678
43593W        W86584  13.426  14.396  19.521 -0.1875 -0.3365  0.0225
43594W        W86585  14.484  19.985  26.236  0.0439  0.0130 -0.1488
43595W        W86586   6.169  17.282   4.861 -0.0789  0.0166  0.0285
43596W        W86587  25.341   2.435  27.150  0.1948  0.0615  0.0182
43597W        W86588   8.306   2.144   7.742 -0.0365 -0.0204  0.1146
43598W        W86589  19.461  16.485   5.197 -0.3476  0.1455 -0.2832
43599W        W86590  30.187  14.691  22.282  0.0176 -0.1646 -0.3898
43600W        W86591  32.202  12.915  10.570  0.0444 -0.0716  0.0936
43601W        W86592   0.603  23.317   2.157 -0.3871 -0.1415  0.0736
43602W        W86593  29.265   8.906   4.832  0.1696  0.3284 -0.0454
43603W        W86594  14.118  32.629   5.604  0.0478  0.0910  0.3015
43604W        W86595  26.173  32.231   5.764  0.1185  0.2515 -0.1086
43605W        W86596   0.100  11.765  27.361  0.0910 -0.1299  0.0038
43606W        W86597  30.785  27.684   0.258  0.0165  0.1656  0.1219
43607W        W86598  12.615   2.985   8.196  0.0608  0.1873 -0.1621
43608W        W86599  10.729  15.354  20.065  0.3515  0.1940 -0.1356
43609W        W86600  29.098  10.401  23.917 -0.2096 -0.2114 -0.0344
43610W        W86601  14.607  20.584  24.520  0.0708 -0.0436  0.4007
43611W        W86602  13.676   1.175   3.193  0.1539  0.1821  0.1698
43612W        W86603  26.534  14.757  26.991  0.3136  0.1653  0.4741
43613W        W86604  15.960   0.657  28.209  0.0582 -0.0642  0.2488
43614W        W86605   1.744  14.999   1.336 -0.2284 -0.1504 -0.2944
43615W        W86606   2.390  10.533   3.432 -0.1109  0.1493 -0.1726
43616W        W86607   0.480   6.636   8.560 -0.1911 -0.1140  0.2662
43617W        W86608  31.658  27.866  27.000 -0.1590 -0.2453 -0.1184
43618W        W86609  17.693  17.643   5.273  0.1265  0.3013  0.0290
43619W        W86610  33.280  28.357   5.716 -0.0697 -0.0745 -0.1408
43620W        W86611  19.757   6.208   1.692 -0.3828 -0.2630  0.1786
43621W        W86612   9.261  33.483   4.703  0.0687  0.1437  0.1168
43622W        W86613  33.435   8.059   4.653 -0.3034  0.0576 -0.0008
43623W        W86614  33.601  12.197   4.029 -0.1694 -0.0924  0.1151
43624W        W86615   1.124  32.086   6.526 -0.0324 -0.0800  0.1356
43625W        W86616  26.327  10.481   3.185 -0.1934  0.0569 -0.1190
43626W        W86617  20.781   6.264  27.856  0.2031 -0.1249 -0.0859
43627W        W86618  13.072  25.095   7.217 -0.0297  0.1853 -0.1673
43628W        W86619  19.065  10.230   4.913  0.4539 -0.1557 -0.0836
43629W        W86620  23.773  15.037  17.512 -0.3444  0.4325  0.1256
43630W        W86621   0.007  10.416  25.217 -0.0208  0.1480 -0.1001
43631W        W86622  32.919   2.814  18.048 -0.0699 -0.0071  0.1328
43632W        W86623  17.546   2.789   1.709 -0.3679  0.3175  0.3058
43633W        W86624  14.169  29.627   9.942  0.1759 -0.3545 -0.1354
43634W        W86625  25.083  23.887  18.619 -0.0583 -0.0966  0.0875
43635W        W86626  14.488  20.025   0.273 -0.3704  0.0027 -0.2430
43636W        W86627   2.784  16.161  24.677 -0.3065  0.0785  0.2157
43637W        W86628   0.137  20.068   9.059  0.1529  0.1997  0.1575
43638W        W86629   4.396   9.300   4.181  0.0594  0.3924  0.1597
43639W        W86630   3.811  20.612  19.932  0.0922 -0.1190 -0.0584
43640W        W86631   2.544  16.161  10.713 -0.0354 -0.0523  0.0599
43641W        W86632  20.373  10.459   7.314  0.0743 -0.1117  0.0235
43642W        W86633   1.805   7.913  25.281 -0.0972  0.0535 -0.0408
43643W        W86634  19.754  14.023  25.686  0.0496  0.1644  0.0570
43644W        W86635   1.479   7.156   6.711  0.0178  0.1937  0.3651
43645W        W86636   1.035  23.303   8.775 -0.3450  0.1218 -0.1532
43646W        W86637  33.875   3.444  26.977  0.0630  0.2754  0.2558
43647W        W86638   1.933  17.192   6.861 -0.4313  0.0765  0.2581
43648W        W86639  22.169   5.668  28.960 -0.0885  0.2710  0.0250
43649W        W86640  31.923  10.711   2.470  0.3843 -0.1727 -0.0865
43650W        W86641  22.109   2.278   5.063 -0.2378  0.0898 -0.0250
43651W        W86642  13.425  15.049   7.778  0.0322  0.0444 -0.2499
43652W        W86643  25.464  26.194  27.157 -0.2811 -0.0616  0.1847
43653W        W86644  32.628   5.795  27.586  0.0198  0.1717  0.1422
43654W        W86645  22.478  26.318  26.431  0.0420 -0.0628 -0.2073
43655W        W86646   0.156  10.508   5.814  0.0247  0.0234 -0.1356
43656W        W86647  24.955   9.769   7.334 -0.1135 -0.0474  0.1142
43657W        W86648  15.850  11.582  25.035 -0.2156 -0.0113  0.3003
43658W        W86649  24.108   9.961  27.053 -0.1407 -0.1466 -0.1819
43659W        W86650  12.650  26.847   7.226  0.0949 -0.0181  0.1164
43660W        W86651  16.294  13.695  27.395  0.1619 -0.0817  0.2436
43661W        W86652   0.747  11.529   2.945  0.1442  0.0411 -0.1927
43662W        W86653   2.574  15.049   4.771  0.0739  0.0483 -0.1221
43663W        W86654  20.285  13.986  15.626  0.4551 -0.1198 -0.3610
43664W        W86655  32.758  15.295   2.459 -0.0983  0.0334 -0.1162
43665W        W86656  29.539  25.589  14.423  0.1058  0.0594  0.1245
43666W        W86657  24.668  19.485  28.451 -0.0205 -0.0917  0.0770
43667W        W86658  24.973  14.639   6.538  0.3482  0.3250  0.2181
43668W        W86659  33.242  12.385   2.831 -0.1626  0.0883 -0.2407
43669W        W86660  21.658  16.888  28.282  0.0231 -0.3467  0.0730
43670W        W86661  10.475  11.711   4.388 -0.5973  0.1930  0.0737
43671W        W86662  19.245  18.481   8.341  0.0801 -0.1260 -0.3211
43672W        W86663   6.195  28.337   8.760  0.1785 -0.3541 -0.0623
43673W        W86664  22.428  20.747  17.710 -0.0862 -0.0219 -0.0303
43674W        W86665  22.791   0.318  27.874  0.1994  0.0913  0.4444
43675W        W86666  26.717   9.406  21.833  0.1645 -0.1579  0.4897
43676W        W86667  34.102  18.551  25.450  0.2521 -0.2944 -0.0441
43677W        W86668  16.367  16.340  27.618 -0.2081  0.0450  0.2538
43678W        W86669  33.815  14.589  22.941  0.1212 -0.0011 -0.1301
43679W        W86670  21.027   9.351   7.908 -0.2248 -0.2183  0.2525
43680W        W86671   2.181  16.361   7.984 -0.0154  0.0168 -0.2168
43681W        W86672  32.617   5.343   3.865  0.1016  0.2087  0.3838
43682W        W86673  18.250   1.970  18.708 -0.4445  0.0875  0.3901
43683W        W86674  26.513  25.837  21.690 -0.3456 -0.0742 -0.1851
43684W        W86675  30.440  17.435  26.430  0.2124 -0.1880  0.0237
43685W        W86676  32.965  10.181  11.081 -0.0177 -0.1722 -0.0775
43686W        W86677  34.664  11.561  29.254  0.0144  0.0447 -0.2608
43687W        W86678   3.808  18.838  26.856  0.2112 -0.0649 -0.2238
43688W        W86679   0.721  15.218  22.291 -0.1847 -0.3434 -0.4353
43689W        W86680  33.773  28.966   5.012  0.3538  0.0416  0.3583
43690W        W86681  28.014   0.419  26.238  0.0049  0.0162 -0.0746
43691W        W86682   0.479  28.291   0.719  0.4173  0.3593  0.3323
43692W        W86683  34.086  32.713   0.069  0.0805  0.2347 -0.1631
43693W        W86684   1.053  16.925  28.379 -0.1866 -0.0886  0.0738
43694W        W86685  16.170  14.037  14.638 -0.0357  0.0658  0.1111
43695W        W86686  24.123  13.514  15.161  0.1747 -0.0944 -0.2072
43696W        W86687   5.110   8.258  20.118 -0.2043 -0.0227 -0.1067
43697W        W86688  14.651   6.178   0.787  0.3082 -0.0037 -0.1426
43698W        W86689   3.123  12.983   0.717 -0.1798  0.0536 -0.0559
43699W        W86690  25.552  32.678  25.058  0.1138  0.0955  0.2092
43700W        W86691  26.078  11.436   1.406 -0.0728  0.0841 -0.1881
43701W        W86692  28.194  25.338   2.724 -0.0507  0.1859  0.0021
43702W        W86693  21.027   8.943   0.801  0.1252  0.3537 -0.4172
43703W        W86694  34.703  33.351  24.529  0.1667  0.3659  0.0488
43704W        W86695  23.416   9.258   9.129 -0.1019  0.0822 -0.0373
43705W        W86696  34.712  11.278  26.641 -0.4100 -0.0510 -0.0895
43706W        W86697   2.942  18.411  28.493  0.0506 -0.3533 -0.0143
43707W        W86698  18.282   9.219   3.521 -0.1038 -0.0234  0.0315
43708W        W86699   5.450   5.859   4.605  0.0892 -0.2382 -0.2902
43709W        W86700  27.024   1.490   0.504 -0.1185  0.3681 -0.1827
43710W        W86701   6.511  14.469   1.373 -0.0067  0.3021 -0.2988
43711W        W86702  30.435   2.424   3.426 -0.2637 -0.2502 -0.1219
43712W        W86703  21.302  15.976  25.094 -0.0085 -0.1354  0.4197
43713W        W86704  34.189  31.075   6.921 -0.1403 -0.3167  0.0985
43714W        W86705  27.848  16.463  26.088  0.0581  0.2468 -0.1492
43715W        W86706   0.368   4.301   9.055  0.1850  0.0495 -0.6455
43716W        W86707  20.834  13.281  28.151 -0.1573 -0.2554 -0.0283
43717W        W86708  31.812  32.986  25.168  0.0144  0.0491  0.2266
43718W        W86709   2.167  11.215   8.420 -0.2138  0.0529  0.1157
43719W        W86710  31.011  13.049  25.253  0.2716 -0.1511 -0.2943
43720W        W86711   2.955  27.523   4.852  0.0244 -0.3059  0.0701
43721W        W86712   4.898  16.361   7.874  0.1069  0.2395  0.2109
43722W        W86713  33.918   2.451   0.022  0.0678 -0.4346 -0.1859
43723W        W86714   4.708  25.601  17.492 -0.1001  0.1366 -0.0782
43724W        W86715  26.438   9.695  24.742  0.3083 -0.3466  0.1006
43725W        W86716  22.714  12.797  27.241 -0.3002  0.0861  0.0668
43726W        W86717   7.017  11.632   4.589  0.0288 -0.0830  0.1723
43727W        W86718  25.074   9.312   9.631  0.3198  0.2383 -0.1361
43728W        W86719   2.139  25.438  19.290  0.0461 -0.4344 -0.0697
43729W        W86720  26.753  15.123  17.310  0.2452  0.0694 -0.1292
43730W        W86721   3.701  14.943  16.711  0.2889  0.0865  0.2045
43731W        W86722  17.864  18.415   2.149 -0.1879  0.3684  0.1277
43732W        W86723  23.801  23.905   6.648 -0.0288  0.0709 -0.1596
43733W        W86724  26.478  12.447   1.972 -0.0534 -0.1007 -0.2716
43734W        W86725  32.387  11.801   1.614 -0.1671  0.0296  0.1389
43735W        W86726  30.307  21.019   2.524 -0.3378  0.1233 -0.0618
43736W        W86727  26.649   8.602  27.531 -0.1563  0.2274 -0.0545
43737W        W86728  33.692  12.441  24.505 -0.2759  0.4409  0.2329
43738W        W86729  27.542  27.647   7.780  0.0373 -0.1548 -0.0101
43739W        W86730  27.259   5.413   0.062  0.4155  0.0731 -0.0010
43740W        W86731  12.055  10.870  25.130  0.2021  0.0542  0.0482
43741W        W86732   1.538  10.039  25.813  0.2016 -0.1267  0.0630
43742W        W86733  28.015  19.569  14.726 -0.0715 -0.0963 -0.3089
43743W        W86734  30.659  20.383  29.197 -0.1929  0.3050 -0.2986
43744W        W86735  26.611   7.028   8.989  0.1004 -0.2026 -0.1928
43745W        W86736  19.538  24.226  22.043  0.0395 -0.0422  0.4268
43746W        W86737  13.132  10.300  21.712 -0.2794 -0.0448  0.0181
43747W        W86738  31.755  24.896  26.365 -0.1605 -0.1102 -0.1050
43748W        W86739  34.133  10.077  28.830 -0.3052  0.0357  0.1431
43749W        W86740  23.821  15.985  24.177  0.1629 -0.2334  0.0277
43750W        W86741  29.081  13.801   9.053 -0.1292 -0.0847 -0.2195
43751W        W86742  25.203  23.141   8.399 -0.3464 -0.1588 -0.4644
43752W        W86743  31.134  28.540   6.745  0.0840 -0.0483  0.0263
43753W        W86744  32.453  29.425   4.951  0.0330  0.0636  0.0379
43754W        W86745  29.739  11.125   2.828  0.1190  0.0024 -0.1098
43755W        W86746  29.065  22.637  18.850 -0.1895 -0.1814 -0.0290
43756W        W86747  29.709   0.692   3.425  0.1313  0.1556  0.0592
43757W        W86748  31.718  25.864   7.677 -0.1435 -0.0620  0.1687
43758W        W86749  12.740   2.990   8.743 -0.4038 -0.0261 -0.0101
43759W        W86750  30.769   8.830   9.514 -0.2160  0.0100 -0.0015
43760W        W86751  16.694   4.978   1.494 -0.0111  0.0548 -0.0286
43761W        W86752   4.662   9.792  10.924 -0.0884  0.0513 -0.0770
43762W        W86753  21.664  28.578  24.368  0.2494  0.1273 -0.1142
43763W        W86754  32.470  10.672  28.737 -0.3495  0.1374 -0.0472
43764W        W86755  25.291  10.561   6.661  0.0365 -0.2459 -0.1029
43765W        W86756   1.076   4.859   9.937  0.0077  0.3279  0.0760
43766W        W86757   7.454   7.727   6.150  0.0595  0.0809  0.0351
43767W        W86758  31.102  24.782   6.988  0.1861 -0.0988  0.1283
43768W        W86759  23.038  34.775   8.743 -0.1851 -0.0989 -0.0490
43769W        W86760  27.321  30.795  15.576 -0.0598 -0.1695 -0.0623
43770W        W86761   2.916  13.442   0.427  0.0190 -0.3037 -0.0653
43771W        W86762  25.839  10.986  22.331 -0.1720  0.3902 -0.2022
43772W        W86763  27.605  22.024  27.660 -0.4394 -0.3975 -0.3275
43773W        W86764   0.455  23.541   8.705 -0.1598  0.0390 -0.0610
43774W        W86765  13.392  30.270   0.961 -0.3088 -0.3145  0.2164
43775W        W86766   2.657   4.259   6.512 -0.0085 -0.3276 -0.3141
43776W        W86767  20.949   4.998  28.972  0.1324  0.2337  0.1300
43777W        W86768   9.349   8.806  26.203 -0.0721 -0.3579 -0.2230
43778W        W86769  28.279  13.020   9.754  0.1895  0.2012 -0.2015
43779W        W86770   1.616  33.096   9.208  0.1047 -0.1295 -0.1554
43780W        W86771  30.933  31.830   7.587  0.3467 -0.1489  0.0548
43781W        W86772  22.054  13.702  24.667  0.1408 -0.0977  0.1799
43782W        W86773   5.552  34.602  16.803  0.3820 -0.1781 -0.1380
43783W        W86774  26.643   5.333   1.543 -0.1789  0.3234  0.3188
43784W        W86775  33.347  28.639   8.512  0.0343 -0.1238  0.1093
43785W        W86776  22.868   9.799   8.887 -0.0428 -0.1682  0.3511
43786W        W86777  27.756   2.300   9.689 -0.1464 -0.1694 -0.3648
43787W        W86778   6.824  15.389  10.404 -0.0217 -0.3171 -0.1823
43788W        W86779  10.247  15.232  18.203  0.3021  0.2747 -0.0674
43789W        W86780  26.944  16.981  26.964 -0.0257 -0.1223 -0.0197
43790W        W86781   8.482   5.681  25.132  0.1109 -0.1848  0.5005
43791W        W86782  26.830  28.614  22.353 -0.2899  0.0863  0.1339
43792W        W86783   6.702   5.266   6.373 -0.0396  0.1708  0.1817
43793W        W86784  19.499  17.264   4.687 -0.1084  0.2159 -0.0650
43794W        W86785  13.697   7.639  22.349  0.1010 -0.0742  0.0961
43795W        W86786   7.752   6.922   8.079 -0.0678 -0.1520 -0.1474
43796W        W86787  33.809   8.981   6.442 -0.0893  0.2374 -0.1347
43797W        W86788  27.823   9.541  17.561 -0.0544  0.2632  0.2221
43798W        W86789  29.473  25.763   4.948  0.2692  0.1642  0.2387
43799W        W86790  16.255  10.938   2.347  0.0021  0.1066  0.0673
43800W        W86791  29.090  13.326   3.361 -0.0628 -0.1185  0.0541
43801W        W86792  33.748  23.020  20.394  0.1194  0.2676 -0.2375
43802W        W86793   0.155  10.546   9.933  0.0150 -0.4236 -0.0067
43803W        W86794  26.263  20.798  19.199 -0.0486 -0.0185  0.1032
43804W        W86795   3.574  14.724   7.601 -0.1889 -0.0097  0.2052
43805W        W86796  23.760   7.651  21.640 -0.1444 -0.3047 -0.1134
43806W        W86797  24.028  27.247  22.919  0.3294  0.0109  0.1098
43807W        W86798  33.668  22.033   1.436  0.0650  0.1915 -0.0269
43808W        W86799  21.905  17.612  19.857  0.2168 -0.0909 -0.2609
43809W        W86800  26.518   0.109   5.284  0.0650 -0.3621 -0.1531
43810W        W86801   3.082  20.125  24.464 -0.2241  0.0003  0.1212
43811W        W86802   9.341   7.749   2.207  0.2541 -0.2583  0.0681
43812W        W86803   7.487   6.314   0.175  0.0281  0.1383  0.0406
43813W        W86804  16.127  14.738   0.968  0.0155  0.2613  0.2313
43814W        W86805  32.000  14.207   3.502 -0.1233  0.1050  0.1445
43815W        W86806   1.181   3.214   2.004 -0.0146 -0.4105  0.2213
43816W        W86807  14.125   6.711   4.025  0.1831  0.0656  0.3454
43817W        W86808   2.282   7.590  20.744  0.1879  0.1878 -0.1802
43818W        W86809  32.407  21.140   5.647  0.1711  0.0096 -0.1240
43819W        W86810  28.588   2.982  21.036  0.0584  0.1265 -0.4222
43820W        W86811  29.955  12.959   4.682 -0.1259  0.3838 -0.0532
43821W        W86812  19.777  21.965  21.507 -0.1054 -0.2747 -0.1065
43822W        W86813   7.107   8.278  26.780  0.1249 -0.0860  0.1749
43823W        W86814  23.837  32.331  19.763 -0.1216 -0.0017 -0.1288
43824W        W86815  13.030   6.280   0.528 -0.1706  0.0854  0.2578
43825W        W86816  23.764  23.689  15.959  0.0937  0.3187 -0.0609
43826W        W86817  30.522  10.451   9.454 -0.1493  0.0146  0.1035
43827W        W86818   6.200   8.455  28.030 -0.2657 -0.1472 -0.1877
43828W        W86819   0.526  24.141  27.472  0.0822 -0.1034 -0.1994
43829W        W86820  26.430  10.492  24.479 -0.5341  0.0151  0.0444
43830W        W86821  25.886  26.770  25.001  0.1439  0.0208  0.1355
43831W        W86822  26.464   8.965  27.160 -0.0163 -0.3294 -0.1960
43832W        W86823  25.094  24.079  21.549  0.1043 -0.2442 -0.1209
43833W        W86824  11.807  22.748   9.397 -0.1152  0.1549  0.0036
43834W        W86825  28.079  29.213  14.288  0.0224 -0.0307 -0.1501
43835W        W86826  32.909  17.297   3.744  0.1127 -0.2835 -0.0851
43836W        W86827   6.854   4.727   4.168  0.0251 -0.2312  0.1561
43837W        W86828  31.436  23.356  25.366  0.3357 -0.2354  0.3314
43838W        W86829  21.912  20.560   3.225  0.0956  0.1298 -0.0570
43839W        W86830  24.182  22.214  23.486 -0.2463  0.0071 -0.1213
43840W        W86831  33.769   8.603  10.422 -0.2762 -0.2353 -0.2910
43841W        W86832  22.338   6.611  21.095 -0.1539  0.0588  0.2448
43842W        W86833  33.697  21.842   4.003  0.1890 -0.3588 -0.0277
43843W        W86834  18.857  21.971  22.962  0.2571  0.0445 -0.1866
43844W        W86835  22.862  13.160  22.522  0.2602  0.2355 -0.1838
43845W        W86836  28.369   7.806   0.462  0.2028 -0.0733  0.0438
43846W        W86837  23.058  17.993  28.724  0.1048 -0.1411 -0.1283
43847W        W86838   4.586   7.007   8.368 -0.0351 -0.1858 -0.3101
43848W        W86839  26.050  28.914   3.448  0.1628  0.0270 -0.2801
43849W        W86840  34.471   6.932   6.428  0.1597 -0.0057  0.3231
43850W        W86841   8.053   8.516   3.416 -0.2461  0.1481 -0.0182
43851W        W86842  13.339  32.726  26.659 -0.0742  0.3364 -0.2348
43852W        W86843  24.784  13.288  23.738  0.1389  0.1951 -0.1190
43853W        W86844  12.772  11.832   3.438  0.2789  0.2042  0.1849
43854W        W86845   6.503  12.395   4.152 -0.3748 -0.0137  0.0966
43855W        W86846  33.441   6.600   4.427 -0.0571  0.0623  0.0124
43856W        W86847  21.122  11.532  26.513  0.2436 -0.0051  0.1793
43857W        W86848   5.421  33.079   0.118  0.0047 -0.2312 -0.1612
43858W        W86849  26.068   6.464   2.998 -0.0484  0.0337  0.0848
43859W        W86850  31.832  13.204   9.743 -0.3424  0.0403  0.0382
43860W        W86851   0.523  13.789  11.050 -0.2561 -0.0157  0.1179
43861W        W86852  25.829   7.810   9.496  0.1292 -0.3505  0.1884
43862W        W86853   1.749  33.593   9.355 -0.0644  0.3061 -0.1867
43863W        W86854  30.503  12.046   3.779  0.1012 -0.0173 -0.0922
43864W        W86855  25.116  19.093   7.130 -0.1385  0.2728  0.2502
43865W        W86856  26.617  18.600   6.096 -0.1716 -0.0663 -0.3613
43866W        W86857   0.091  24.828   3.166 -0.1248  0.0155 -0.2287
43867W        W86858  29.436  10.656   8.246  0.2105  0.2889 -0.0748
43868W        W86859  11.370   1.375   4.152  0.0203  0.1746 -0.4304
43869W        W86860   1.175  11.966   4.874 -0.2101  0.2154  0.0160
43870W        W86861  27.753   7.673   4.568 -0.0653 -0.2966 -0.1243
43871W        W86862  34.153  11.187   3.741 -0.0719  0.1684 -0.5094
43872W        W86863  26.608   1.194   4.615  0.0145 -0.0140 -0.0453
43873W        W86864   6.431  21.543  10.642  0.1257  0.0002  0.0083
43874W        W86865  28.802   6.263  28.803  0.3591  0.0249  0.1539
43875W        W86866   6.458  26.010   6.315  0.2083  0.2404 -0.0547
43876W        W86867   6.090  20.234  27.748 -0.1613  0.2724 -0.0197
43877W        W86868  10.955   1.380   7.101  0.1113 -0.1161 -0.1145
43878W        W86869  29.923  29.124   8.898 -0.1732  0.0244  0.2090
43879W        W86870  34.714   4.263   7.075 -0.1638 -0.0132  0.0703
43880W        W86871  22.916  13.840   9.022  0.0794  0.0392  0.0696
43881W        W86872   0.321  16.243  25.825  0.0797 -0.0669  0.1301
43882W        W86873  29.546  33.769   6.115  0.1263  0.2603  0.0878
43883W        W86874  11.510  11.310  23.011  0.3611 -0.0233 -0.3738
43884W        W86875  28.369  22.287   9.333 -0.2194  0.1187  0.2379
43885W        W86876  24.652  16.440  21.901  0.0093  0.2732 -0.1806
43886W        W86877  30.156   4.109   9.277 -0.3015  0.2268 -0.0218
43887W        W86878  24.751  16.495   6.319 -0.1896  0.0575 -0.2145
43888W        W86879  12.320  14.115  23.404 -0.1077  0.1351  0.1844
43889W        W86880   7.586  15.825  10.738  0.1670 -0.1714  0.3425
43890W        W86881  34.032   7.626   2.943 -0.0409  0.0472  0.2103
43891W        W86882  26.463  13.676  20.010 -0.2429 -0.1032 -0.1503
43892W        W86883   1.038  17.994   6.135 -0.2435 -0.0859  0.1460
43893W        W86884  28.736  26.546  22.249 -0.0917 -0.0480  0.1748
43894W        W86885  20.513   5.506   5.714  0.1042  0.0279 -0.3173
43895W        W86886  27.341  10.363  18.655  0.1221  0.0587  0.0966
43896W        W86887  24.655   8.942  23.958 -0.1195 -0.0819 -0.0731
43897W        W86888  17.694  15.829   5.210  0.0815 -0.1255 -0.0719
43898W        W86889   2.365  10.251  26.478 -0.0659 -0.1086  0.1021
43899W        W86890  28.352  23.899  21.804 -0.1249  0.1468 -0.1032
43900W        W86891  32.081  28.589   2.118  0.2182  0.0822 -0.1226
43901W        W86892  34.267  17.023   7.856  0.1777  0.0595 -0.2708
43902W        W86893  29.865  12.137   4.933 -0.1623  0.2095  0.2089
43903W        W86894   3.951   7.005   0.366  0.0493  0.2258 -0.3253
43904W        W86895   9.725   9.749   5.319  0.1196  0.0916 -0.0268
43905W        W86896  12.628  14.891   0.430 -0.0562  0.0677  0.2302
43906W        W86897  21.210   9.351  17.521  0.0321  0.3463 -0.0274
43907W        W86898  15.658  25.324   2.939 -0.1496  0.0461 -0.3682
43908W        W86899  24.513  15.704   8.768  0.1493  0.3396 -0.1226
43909W        W86900  12.509  10.680   9.779 -0.1695  0.1305  0.1015
43910W        W86901  33.298  15.162   6.528  0.0539  0.0656 -0.0195
43911W        W86902   6.057  15.722  16.910  0.1351  0.2540  0.0253
43912W        W86903   9.776  16.413  23.086  0.2933 -0.1879  0.1515
43913W        W86904  22.651   5.680  18.168  0.1243  0.1932  0.3232
43914W        W86905  18.512  23.173   0.721  0.2582 -0.1604  0.0924
43915W        W86906  24.073  15.621   4.065  0.3839  0.0824 -0.0579
43916W        W86907   5.574  29.913  17.721  0.2853 -0.1556  0.1279
43917W        W86908  26.760   1.422   8.220  0.1510  0.2214 -0.1846
43918W        W86909  32.840   9.027   3.966 -0.0584 -0.0384  0.0365
43919W        W86910  28.311   6.604   6.208  0.1379 -0.1896  0.1355
43920W        W86911  25.015  17.847  26.513 -0.1675 -0.1246 -0.0778
43921W        W86912  24.409  12.603   1.156  0.2721  0.1341 -0.3015
43922W        W86913  28.118  32.062   2.196 -0.0106  0.0677 -0.2303
43923W        W86914   0.892  24.358   3.679 -0.3037  0.2322 -0.1751
43924W        W86915  32.853   6.300   6.043  0.4225 -0.1803 -0.0703
43925W        W86916   0.079  22.874   3.754  0.1542 -0.3819 -0.0328
43926W        W86917  34.775  24.146   7.111 -0.1220 -0.2042  0.1623
43927W        W86918  25.423  16.887  20.592  0.0609  0.1194 -0.0798
43928W        W86919  22.506  24.971   5.674  0.2623 -0.1785  0.0739
43929W        W86920  19.621  12.789  24.472 -0.1445  0.1707 -0.0476
43930W        W86921  23.364   2.486   7.197  0.2422 -0.0758 -0.1160
43931W        W86922  23.418  28.590   4.808 -0.1813 -0.2055  0.2380
43932W        W86923  28.912   8.002  26.301 -0.3282 -0.2241 -0.2416
43933W        W86924  30.611  14.392  27.252  0.1031  0.2207  0.3176
43934W        W86925  27.099   9.486   5.766  0.0378  0.0960  0.2356
43935W        W86926   9.544  18.360  24.405  0.0319  0.1842 -0.0703
43936W        W86927   6.644   6.360  18.031 -0.2732 -0.1770 -0.0979
43937W        W86928  15.881   1.962  10.506  0.3585  0.0648 -0.2435
43938W        W86929  26.470  19.709   5.907  0.2842 -0.2819  0.2812
43939W        W86930  26.750   0.679   1.201  0.2200 -0.0612  0.0260
43940W        W86931  17.917  14.947  28.544 -0.5965 -0.2568 -0.1061
43941W        W86932   6.969  19.791   6.442  0.1225  0.0437 -0.0407
43942W        W86933  32.890  12.585  20.196 -0.1278  0.0743 -0.2994
43943W        W86934  20.843  13.477   2.408  0.2304 -0.1858  0.1511
43944W        W86935   2.537   9.149  24.360  0.1126 -0.4771 -0.0074
43945W        W86936  12.408   0.508   8.296 -0.1093 -0.1489  0.3057
43946W        W86937   4.009  14.529  18.820 -0.0889 -0.2412  0.1036
43947W        W86938  31.033   7.906  14.775 -0.2727 -0.0740  0.4034
43948W        W86939   0.444   9.694  10.441 -0.3056 -0.0333 -0.1780
43949W        W86940  13.756   5.439   5.009 -0.0959 -0.0255  0.1462
43950W        W86941  23.118  11.466  20.345  0.0181  0.1335 -0.0415
43951W        W86942   2.676  24.264  25.363 -0.0797  0.0038 -0.0168
43952W        W86943   9.682  21.129  27.680 -0.4327 -0.0209  0.0330
43953W        W86944  22.184   4.951  16.209  0.1973  0.0997 -0.1264
43954W        W86945  25.076  26.261  28.863  0.1601 -0.0523 -0.0660
43955W        W86946   1.693  16.300  22.871  0.0239 -0.1757  0.0931
43956W        W86947   4.070  16.864   4.347 -0.0677 -0.2351  0.0538
43957W        W86948   5.834   1.912   5.653 -0.1850 -0.1302  0.1523
43958W        W86949  15.900   1.137   0.017  0.0353  0.2840 -0.1537
43959W        W86950  10.540  25.843  23.369  0.1709  0.1514  0.3049
43960W        W86951  33.562  19.632  16.080  0.1317 -0.0614  0.0997
43961W        W86952  30.871  17.656  15.862  0.0337  0.0217  0.2244
43962W        W86953   1.890   6.557   6.371  0.0768  0.2205 -0.0658
43963W        W86954   5.357  22.080  25.196 -0.2103 -0.2211  0.1880
43964W        W86955   0.153  31.736   2.464 -0.1287 -0.0005 -0.0526
43965W        W86956  23.168   9.113  10.141 -0.3311 -0.1977 -0.0873
43966W        W86957  26.964  30.067  14.927 -0.0907 -0.2877  0.2309
43967W        W86958  12.108  32.377  26.537 -0.0986  0.0545 -0.2315
43968W        W86959  22.131  14.032   1.637 -0.2518  0.1474  0.2604
43969W        W86960  29.405  17.187  23.876 -0.0882  0.1345  0.1461
43970W        W86961  30.911  20.334   0.968  0.0713 -0.0424 -0.4171
43971W        W86962   1.592  21.897   5.508 -0.1020  0.0898  0.1999
43972W        W86963  20.086  10.495  27.560  0.0298  0.3567  0.2445
43973W        W86964  23.102   8.388   1.491 -0.0191 -0.0490  0.0283
43974W        W86965  25.285  13.229   6.248 -0.2965 -0.3145 -0.0268
43975W        W86966  32.178  18.513   7.491 -0.0850 -0.1084 -0.0488
43976W        W86967   5.840  32.835   9.198 -0.3179 -0.1158  0.1802
43977W        W86968   7.723   8.504   2.610  0.1586  0.0542  0.0593
43978W        W86969  22.697  17.120   7.690 -0.1838  0.4140  0.0867
43979W        W86970  30.859  19.288   0.390 -0.2353  0.0293  0.0057
43980W        W86971  22.175  23.343  22.883  0.0312  0.0861 -0.3523
43981W        W86972  12.509  11.147  18.532 -0.2193  0.5097  0.0278
43982W        W86973  24.681  24.841  14.420  0.0492 -0.0443  0.1891
43983W        W86974  31.814   1.087   8.803 -0.1403 -0.0426  0.2296
43984W        W86975   9.965   7.007   9.687 -0.0585 -0.3166  0.1441
43985W        W86976  13.395   9.276   3.300 -0.2458  0.0105 -0.0739
43986W        W86977  25.339  10.079   9.885 -0.1022 -0.1047  0.3026
43987W        W86978  24.453  10.150   8.360  0.3259 -0.1695  0.1180
43988W        W86979  19.472  28.393   6.353  0.4115 -0.5158 -0.0248
43989W        W86980  20.012  10.696   7.609  0.0639  0.1858 -0.1174
43990W        W86981  34.756   8.800   1.107  0.0940 -0.2624 -0.0892
43991W        W86982  26.506   5.985  25.095  0.2544  0.0609  0.1620
43992W        W86983   3.754  10.612  25.086 -0.1408 -0.2221 -0.1835
43993W        W86984   5.002  19.541  23.074 -0.0974  0.2352  0.1575
43994W        W86985  33.548  16.545   3.645 -0.0753 -0.0124 -0.0548
43995W        W86986  25.838   9.470   0.916  0.0330  0.1435 -0.1915
43996W        W86987   2.352   8.149   8.311  0.1020  0.0645  0.1373
43997W        W86988  32.867  15.620   8.424 -0.0319 -0.0174 -0.2713
43998W        W86989  31.749  26.406  27.522 -0.0956  0.1214  0.2403
43999W        W86990  26.994   1.529  24.611  0.2690  0.3090 -0.3078
44000W        W86991   1.193  14.724  26.751 -0.0963  0.1236  0.2142
44001W        W86992  33.860  26.406   3.798 -0.0880 -0.0123 -0.0046
44002W        W86993  31.594  14.942  28.990 -0.0850  0.2029 -0.4144
44003W        W86994   2.531  15.160   7.191  0.1198 -0.2060  0.2817
44004W        W86995  10.690  26.376   0.497  0.0808  0.3800  0.2643
44005W        W86996   3.862   4.126  18.601 -0.0073 -0.1521  0.1724
44006W        W86997   1.875   6.073  16.447  0.2229 -0.3724  0.1312
44007W        W86998  20.512  19.202  27.500  0.1522  0.3298  0.0201
44008W        W86999  26.274  14.692   0.285  0.2566  0.0398 -0.0250
44009W        W87000  29.395   1.978  24.565  0.0808  0.1505  0.2208
44010W        W87001  11.346  19.515   9.610 -0.1777 -0.3433 -0.2214
44011W        W87002   1.811  23.477   4.528 -0.0165 -0.0543  0.2285
44012W        W87003  17.259   7.756   0.429  0.0019 -0.1499 -0.1366
44013W        W87004  19.265  19.894   4.149  0.0177 -0.1682  0.2264
44014W        W87005   5.700  11.212   5.501 -0.2369 -0.0998  0.0618
44015W        W87006  27.394   6.434   8.904 -0.0831 -0.0242 -0.0972
44016W        W87007  29.953  25.963   8.318 -0.0456 -0.1701  0.2873
44017W        W87008   6.939  14.348  24.529  0.0076 -0.2276  0.3069
44018W        W87009  30.229   2.964   2.732 -0.1610  0.0816 -0.1082
44019W        W87010  34.004  17.690   0.420 -0.0431 -0.3481 -0.4372
44020W        W87011  13.333  13.000   9.425 -0.1508  0.0978 -0.1347
44021W        W87012  27.021  16.326  26.182  0.1951 -0.0010 -0.0433
44022W        W87013  23.445   7.760   9.221 -0.0320 -0.2977 -0.1268
44023W        W87014   2.449   6.119   2.074  0.0312 -0.0345 -0.0316
44024W        W87015  30.037  24.210  24.684 -0.2304  0.2360  0.1272
44025W        W87016  32.662  29.755  13.516 -0.0995 -0.1890 -0.0563
44026W        W87017  33.542  33.144   8.623  0.1382 -0.1159 -0.1320
44027W        W87018  28.566  31.955   3.046  0.1195  0.1354 -0.0854
44028W        W87019  21.300  16.480  15.296 -0.0191  0.2489  0.0464
44029W        W87020  10.126  10.422   7.784 -0.1124  0.0070  0.4153
44030W        W87021  31.875  23.537   3.563  0.0410  0.0822 -0.1693
44031W        W87022  27.175  15.161   3.474 -0.1755  0.2281  0.0801
44032W        W87023  23.891   0.091   2.648  0.0310 -0.0548 -0.0148
44033W        W87024  17.975  21.397  20.362  0.1172  0.2072  0.0279
44034W        W87025  30.831   9.902   6.579  0.0219  0.2063 -0.4580
44035W        W87026  19.773   9.765   2.470  0.1644 -0.3183 -0.0104
44036W        W87027  24.563  12.388   8.869 -0.0694 -0.0449 -0.1851
44037W        W87028  16.014  21.404  18.421 -0.1007 -0.3387 -0.1265
44038W        W87029   2.410  13.293   4.516 -0.1319 -0.0260 -0.0575
44039W        W87030   9.548  12.763   9.675 -0.2680 -0.2985  0.0735
44040W        W87031  22.505  13.833   8.766  0.0845  0.0825  0.0978
44041W        W87032  33.779  23.547  10.486  0.1576 -0.0780  0.3751
44042W        W87033   8.309  17.038  17.217  0.1236 -0.2339  0.1785
44043W        W87034   6.814  11.143   4.766  0.0757  0.2674  0.2526
44044W        W87035  11.415  33.893   0.706 -0.2542  0.0840  0.0371
44045W        W87036  34.254  16.783   6.760 -0.1307  0.2070 -0.2546
44046W        W87037  31.567   9.345   9.129  0.1072 -0.2753 -0.1938
44047W        W87038  27.479  17.346   5.101  0.0455 -0.1410 -0.0626
44048W        W87039  34.591   5.067   3.849  0.1418  0.0098 -0.1305
44049W        W87040  33.341  33.617   3.374  0.0543 -0.2160 -0.0672
44050W        W87041  19.617   0.532   2.939  0.0069  0.5011  0.1676
44051W        W87042  28.043  16.808   1.552  0.2186 -0.2784  0.1505
44052W        W87043  26.977   7.016   4.847 -0.2778 -0.3071  0.1835
44053W        W87044  12.824  13.753  23.101 -0.2171 -0.1739 -0.2148
44054W        W87045   1.723  18.092   9.624 -0.0582 -0.0050  0.1845
44055W        W87046   7.719  12.059   0.482 -0.2809 -0.1257 -0.1439
44056W        W87047   4.962  21.599  28.537  0.1323  0.0498 -0.2799
44057W        W87048   1.840   8.724   5.935  0.4079 -0.0455  0.0335
44058W        W87049  26.959  16.716  25.286 -0.2339  0.0738  0.1857
44059W        W87050  16.382   1.549   6.738  0.0055  0.0473 -0.0077
44060W        W87051  31.355  26.722  24.442  0.0603 -0.0904 -0.0212
44061W        W87052   7.373  16.872   0.418 -0.0266 -0.0101 -0.0644
44062W        W87053   5.985   0.005  21.452 -0.0738 -0.1858  0.1895
44063W        W87054   9.331  17.191   8.410 -0.0038 -0.1211 -0.0400
44064W        W87055   1.843  17.884   7.858 -0.1999 -0.2068  0.1503
44065W        W87056  23.541  11.137   5.907 -0.3339 -0.0764 -0.0750
44066W        W87057  21.897   3.531   3.746  0.1187  0.1112 -0.2541
44067W        W87058  20.772   0.124   4.185  0.0846  0.1997 -0.1521
44068W        W87059  34.747   4.683   2.331 -0.1047  0.2047  0.1191
44069W        W87060  16.979  13.339   6.602  0.3626 -0.0721 -0.0294
44070W        W87061  29.295   1.296  18.462 -0.1699 -0.0839 -0.1681
44071W        W87062  21.415  22.273   4.635 -0.0065  0.0610  0.0558
44072W        W87063  30.800   8.107   4.814  0.1062 -0.2665  0.1532
44073W        W87064  34.023   2.273   9.218 -0.0515 -0.0212 -0.1705
44074W        W87065   0.450  11.177   3.196 -0.0543 -0.0563 -0.0451
44075W        W87066   3.581  17.088   9.437 -0.1736  0.1101 -0.0585
44076W        W87067  23.762  10.328  22.404  0.0649 -0.0624  0.0982
44077W        W87068  31.218  21.465  19.392  0.0645 -0.4229 -0.1579
44078W        W87069  32.466   8.348  29.095 -0.0445 -0.0335 -0.1135
44079W        W87070   8.123  26.242   8.826 -0.0050  0.2569  0.1104
44080W        W87071  33.315  12.760   1.953 -0.3321  0.0189  0.0330
44081W        W87072  19.480  10.603   0.654 -0.0767  0.0691 -0.2320
44082W        W87073  10.284  13.853   9.129 -0.2319 -0.0487 -0.1703
44083W        W87074  33.544   9.388   2.620  0.0939  0.2257 -0.1720
44084W        W87075  21.411  11.555   5.196 -0.0966  0.0175 -0.1288
44085W        W87076  27.583   1.929   8.051 -0.1803 -0.0693  0.0693
44086W        W87077  12.491  34.213   6.750  0.0291  0.2595 -0.0830
44087W        W87078  17.908  23.589   2.608  0.2730  0.1678  0.2282
44088W        W87079   0.882  20.243  21.069  0.0158  0.1348 -0.0661
44089W        W87080  22.809  22.493  28.673 -0.1213  0.3244 -0.0343
44090W        W87081  16.152  14.265   3.121  0.0309 -0.0282 -0.0388
44091W        W87082  14.805  17.989   7.277 -0.0645  0.0881  0.0145
44092W        W87083  28.115  13.523  23.748  0.0659  0.1601  0.0143
44093W        W87084  25.245   9.483  25.954 -0.1831 -0.3372 -0.0579
44094W        W87085   4.219  19.018  25.693  0.1036  0.0421 -0.2179
44095W        W87086  26.020   9.670   2.892  0.0463 -0.0500 -0.0613
44096W        W87087  27.993   0.797   4.418 -0.2014 -0.0963 -0.0499
44097W        W87088  34.249  32.508   2.488 -0.0030  0.1656  0.2954
44098W        W87089  15.637  32.594  27.969  0.1200 -0.0696 -0.1913
44099W        W87090   0.382   3.217  22.287 -0.1104 -0.2034 -0.0374
44100W        W87091  30.546  15.426  10.120 -0.1550 -0.2413  0.0335
44101W        W87092  31.606  11.044   4.001 -0.0354  0.0100 -0.2616
44102W        W87093  10.861  11.430  25.080 -0.0127 -0.1366  0.2065
44103W        W87094  24.610   5.714   3.941 -0.1574 -0.2736  0.0239
44104W        W87095  34.631  11.944   6.339 -0.0492  0.2703  0.1602
44105W        W87096   0.548  16.692  10.519  0.0924 -0.2423  0.0564
44106W        W87097   2.231  25.618  27.497 -0.1759 -0.3160 -0.1380
44107W        W87098  14.846   6.334   7.137 -0.1681 -0.3032  0.0804
44108W        W87099  20.908  32.991   7.747 -0.0127  0.1057 -0.1726
44109W        W87100  33.523  19.346   7.598  0.0549  0.1501  0.0374
44110W        W87101  28.526   8.240   4.271  0.0433 -0.1334 -0.0728
44111W        W87102   9.424   6.550   3.229 -0.0119  0.1411 -0.0456
44112W        W87103  34.446  21.183  17.231  0.0468 -0.2941  0.1594
44113W        W87104  21.890   9.133   5.439  0.2595  0.1912  0.0322
44114W        W87105   1.357  25.810   3.626 -0.1485  0.2712 -0.3835
44115W        W87106  26.952   2.775   6.224  0.1366 -0.2163  0.2521
44116W        W87107  29.348  32.298   4.511  0.0231  0.0862 -0.0576
44117W        W87108  20.074  22.075  28.771 -0.0164  0.0829 -0.0122
44118W        W87109   2.276   0.908  22.137  0.0793  0.5527 -0.1222
44119W        W87110  33.243  30.103   5.861 -0.0392 -0.2732  0.0738
44120W        W87111   6.027  21.397   3.312 -0.1161 -0.0364 -0.2196
44121W        W87112  22.006  27.303   7.035  0.0700 -0.0189  0.0530
44122W        W87113   1.901  22.142   6.445 -0.1130  0.1945  0.1688
44123W        W87114  31.840  24.909   4.684  0.1260  0.2925 -0.0522
44124W        W87115   4.018   3.334   7.353  0.1136 -0.0878  0.3071
44125W        W87116  18.676   9.236   0.361 -0.1037 -0.0412 -0.0675
44126W        W87117  27.412   4.542   4.200 -0.0245  0.6244  0.0167
44127W        W87118  16.448  15.297  24.038 -0.0553 -0.1176  0.2030
44128W        W87119  25.707   5.893  10.151  0.0902 -0.1501 -0.1302
44129W        W87120   1.467   1.056   2.051  0.0269 -0.2526  0.1249
44130W        W87121  34.226  10.757  28.086  0.2115 -0.3777  0.0537
44131W        W87122  22.865  15.777   0.197  0.0126 -0.1301 -0.0444
44132W        W87123   1.071  13.647  11.078  0.0488  0.1914 -0.1601
44133W        W87124  22.497  16.713  20.273 -0.2419 -0.0054 -0.1108
44134W        W87125   7.204  10.738   8.591 -0.0048 -0.0172 -0.2441
44135W        W87126  33.888  14.381  10.818 -0.1258 -0.1385 -0.0318
44136W        W87127   5.986  20.387  10.657  0.1484  0.0303  0.2081
44137W        W87128   6.462  12.657   6.866 -0.0549 -0.0188 -0.1737
44138W        W87129  25.175  20.202   8.150 -0.1417 -0.0091 -0.1772
44139W        W87130   2.555  22.153  19.150  0.0692 -0.0847 -0.0409
44140W        W87131  27.572  16.089  10.141 -0.3070  0.1535 -0.4357
44141W        W87132   4.443   7.780  10.706 -0.1277  0.2551  0.1620
44142W        W87133  28.298  10.124   0.269 -0.0487 -0.0115  0.1962
44143W        W87134  27.495  32.672   0.999  0.0286  0.1810  0.2379
44144W        W87135  34.354   0.696   4.630  0.0832 -0.1047 -0.0679
44145W        W87136   9.743   9.915  11.153  0.0615 -0.0847  0.0130
44146W        W87137  23.343  19.219   1.683 -0.2112  0.1029  0.0804
44147W        W87138   2.688   0.136   1.906 -0.0478  0.2334 -0.1508
44148W        W87139  17.644  16.092   4.809 -0.1286 -0.1677  0.0190
44149W        W87140  29.634   5.744   4.688 -0.0457  0.0073 -0.0732
44150W        W87141   3.575   3.000   9.741  0.1667  0.0623  0.2131
44151W        W87142   0.580  18.783  26.705 -0.0709 -0.0769 -0.1183
44152W        W87143  31.447  25.398   0.231  0.2498 -0.1234 -0.2306
44153W        W87144   2.981  24.791   3.813 -0.2269 -0.1136  0.2441
44154W        W87145   5.861  19.770   1.645  0.0348 -0.1672  0.3001
44155W        W87146  10.330  12.208   9.024  0.2087  0.0019 -0.0731
44156W        W87147   6.711  14.478  29.052  0.2525 -0.1531 -0.1826
44157W        W87148  31.226  25.000   7.463 -0.0214  0.0738  0.4336
44158W        W87149  23.406  25.008   7.030 -0.0328  0.3739 -0.0789
44159W        W87150  24.881  19.712  23.962  0.2484 -0.3043 -0.2251
44160W        W87151  26.632  19.357   5.556  0.1982  0.0729  0.1329
44161W        W87152  17.880  28.942  25.156  0.2553  0.1064 -0.0759
44162W        W87153   7.137  21.634   6.779 -0.1466  0.0156  0.2958
44163W        W87154   0.464   2.841   6.900 -0.1339 -0.0950  0.4113
44164W        W87155   9.396   9.171   0.496 -0.0088 -0.2758 -0.2019
44165W        W87156   5.040   8.053   2.942  0.2284  0.1490  0.0314
44166W        W87157   0.138   6.515   4.879 -0.2921 -0.0188  0.1209
44167W        W87158  29.833  14.398   8.335 -0.2614  0.0857  0.0506
44168W        W87159   2.833  21.215   0.277  0.4288  0.4072 -0.4281
44169W        W87160  21.406   4.650   2.864 -0.0594  0.0627  0.1211
44170W        W87161  20.539  12.156   7.485  0.2837 -0.2300  0.1635
44171W        W87162  29.622   6.768   1.960  0.0265 -0.0979  0.0563
44172W        W87163  27.720  16.380  23.501 -0.1261  0.2620  0.0620
44173W        W87164   0.201   8.826  24.337 -0.0890  0.0482  0.1573
44174W        W87165  21.154  10.544   7.235 -0.1650 -0.1465  0.0278
44175W        W87166  27.385  14.164   6.318 -0.1053  0.0985 -0.1174
44176W        W87167   9.781  33.898   9.312  0.1913  0.0634  0.0478
44177W        W87168   3.875  14.961   5.910  0.0975 -0.0036  0.2625
44178W        W87169  20.861  17.588  25.993 -0.0436 -0.2298 -0.0767
44179W        W87170  25.852   3.964   9.273 -0.3448 -0.0422 -0.0725
44180W        W87171  15.721  25.339  26.220  0.0804  0.1567  0.2144
44181W        W87172  12.252  21.244  21.113  0.3856 -0.2855  0.0844
44182W        W87173  15.514  18.051   6.026  0.0275  0.1550 -0.0312
44183W        W87174  25.676   6.103  21.335  0.0055 -0.1164 -0.0075
44184W        W87175  29.535   8.186  28.317  0.1446 -0.3889 -0.2235
44185W        W87176  29.525  15.055   0.885 -0.0170 -0.0979 -0.0759
44186W        W87177  25.994  16.680  28.572  0.3695  0.1037  0.2844
44187W        W87178  27.528   5.285   4.514  0.2314 -0.2242 -0.0528
44188W        W87179  34.477  17.690   8.446  0.1917 -0.0978 -0.0823
44189W        W87180   7.268   8.914  10.590 -0.0475 -0.3569 -0.1023
44190W        W87181  32.705   7.046   3.838  0.1811  0.0249 -0.2606
44191W        W87182  19.427  10.042  20.051 -0.2905 -0.0909  0.0283
44192W        W87183  32.568  28.926  23.272 -0.0449  0.0969  0.0131
44193W        W87184   4.583   8.671  28.903  0.0443  0.0836  0.3264
44194W        W87185  10.078   3.891   9.015  0.1428  0.2083  0.0131
44195W        W87186   6.517  16.637   6.830  0.0818  0.2589 -0.4302
44196W        W87187  23.910  11.501  27.909 -0.0006 -0.1271  0.0101
44197W        W87188   5.834   3.891   8.235 -0.0736 -0.0803  0.1965
44198W        W87189   0.862   7.095   0.496  0.3387 -0.2490  0.1625
44199W        W87190  29.886  31.318   1.705  0.1255  0.0618  0.2067
44200W        W87191  12.225   1.689  23.499 -0.1069 -0.1024 -0.0100
44201W        W87192  33.081   9.992  27.213 -0.0114 -0.2639  0.0793
44202W        W87193   0.133  23.285   8.413  0.0208 -0.0966 -0.0804
44203W        W87194  24.610  20.999  14.993  0.1112  0.0989 -0.1339
44204W        W87195   4.064  24.568   1.049 -0.1359  0.2011 -0.1741
44205W        W87196  31.945  13.540   8.825 -0.0778 -0.0348  0.1737
44206W        W87197   4.025  25.390  19.852  0.1521 -0.1563  0.1959
44207W        W87198  17.617   4.931  21.880 -0.2317 -0.3186 -0.1447
44208W        W87199   3.514  15.130   5.570  0.1506 -0.0305 -0.3724
44209W        W87200   6.157  10.437   0.823  0.1190  0.0783 -0.2056
44210W        W87201  32.930  20.035  28.011 -0.0774 -0.0255 -0.2689
44211W        W87202  27.455  15.906  28.854  0.0395 -0.1478  0.1134
44212W        W87203  28.684   4.274  22.859 -0.0855  0.0180 -0.0791
44213W        W87204   9.805   2.437   0.476 -0.2146 -0.3525 -0.3731
44214W        W87205  32.607  15.418  27.384 -0.1183 -0.1122  0.1057
44215W        W87206  32.977  13.273  17.827  0.1648 -0.3185  0.1651
44216W        W87207   0.915  28.609   4.873  0.0606 -0.0446  0.2771
44217W        W87208  22.791  15.240   1.869  0.1847  0.3546  0.2019
44218W        W87209  31.416   3.900   0.811  0.0646  0.1695 -0.2132
44219W        W87210  13.327  10.411   6.847 -0.0531 -0.0571 -0.0758
44220W        W87211  34.407  27.416  25.801  0.2470 -0.0099  0.1242
44221W        W87212  32.076  14.517  10.483 -0.2297 -0.2314  0.0911
44222W        W87213  11.022  24.762  16.027 -0.0045 -0.2376  0.3766
44223W        W87214   0.010  16.973   5.981 -0.0030 -0.0915  0.3600
44224W        W87215  33.668  27.487   7.795 -0.0447 -0.1678 -0.0654
44225W        W87216  32.969  12.064   3.092 -0.0255 -0.0657 -0.0395
44226W        W87217   0.346  16.401  11.771  0.0654  0.2035  0.2311
44227W        W87218  27.604   3.073  23.366 -0.1162  0.1307 -0.1143
44228W        W87219   1.054  33.743   9.151  0.2483 -0.0522 -0.0421
44229W        W87220  21.591  15.978  26.738  0.1290  0.0338 -0.2496
44230W        W87221  22.155  18.235   3.144 -0.3230 -0.0385  0.1573
44231W        W87222   6.947   1.149  10.067 -0.0583 -0.1007  0.0870
44232W        W87223   0.847   2.992  16.350  0.1352 -0.1788 -0.2068
44233W        W87224  26.454  25.904  19.110  0.1637 -0.1280 -0.2171
44234W        W87225  31.135  17.557  28.027 -0.6060  0.1020 -0.1183
44235W        W87226  30.111   7.968   1.558 -0.0710 -0.1225  0.1452
44236W        W87227  31.092  32.159   4.284  0.0871  0.1579  0.2633
44237W        W87228  10.709  29.138  27.010  0.1124  0.2221  0.0802
44238W        W87229   9.292  29.948   8.848  0.1818  0.2451  0.0640
44239W        W87230  33.670  22.464   9.673 -0.0134 -0.2056 -0.3428
44240W        W87231  31.777  33.042  22.004  0.0075 -0.1193 -0.0112
44241W        W87232  21.889  28.086   7.965  0.1256 -0.2607  0.2137
44242W        W87233   5.457  19.729  10.831 -0.0832  0.2565  0.0898
44243W        W87234  10.481   8.348  18.654 -0.0465  0.0161 -0.0987
44244W        W87235  27.730  10.762   4.971 -0.1198  0.1734 -0.0728
44245W        W87236  34.413  12.412  17.872 -0.1800  0.1941 -0.2884
44246W        W87237  10.402   0.762   1.270  0.0019  0.2412  0.3722
44247W        W87238  27.765  18.163   5.283 -0.0218 -0.0057  0.1694
44248W        W87239   0.139  20.338   4.318 -0.0742 -0.3758 -0.0485
44249W        W87240  31.028  16.952   9.868  0.0014 -0.2819 -0.0565
44250W        W87241  33.784   3.342   1.687  0.1626 -0.0269  0.0365
44251W        W87242   8.459  27.723   6.611 -0.1169  0.0890  0.1372
44252W        W87243   4.697  11.048   3.092 -0.1296 -0.1426 -0.0510
44253W        W87244   3.741  18.423   7.836  0.1366  0.1634  0.3027
44254W        W87245   3.462   4.437   4.602  0.0450 -0.2757  0.0689
44255W        W87246  31.499   4.444   5.195  0.0501  0.2368 -0.1049
44256W        W87247  25.397  24.540   5.143  0.1475 -0.0228 -0.0737
44257W        W87248   2.675  19.032  25.358 -0.0824 -0.0114  0.0615
44258W        W87249  25.275  28.127  19.170 -0.2170 -0.0866 -0.1745
44259W        W87250   3.778  32.265   7.084 -0.0735  0.0543  0.3408
44260W        W87251   4.331  15.856   7.723 -0.0536 -0.1996  0.3685
44261W        W87252   8.707  11.803   7.539 -0.1551 -0.1931  0.4859
44262W        W87253  29.714   5.460   7.023  0.2571  0.0211 -0.0331
44263W        W87254  19.118  16.768   6.511 -0.2403 -0.1018 -0.4153
44264W        W87255   3.630  22.916   3.392 -0.1698  0.0603  0.0020
44265W        W87256  24.334  18.565   1.318  0.4217 -0.2181  0.3714
44266W        W87257  29.093  11.301   5.924 -0.3941 -0.0469 -0.2307
44267W        W87258   2.805  13.889   0.592  0.0867 -0.5204  0.2390
44268W        W87259  27.473   9.536   3.236  0.0325 -0.1652  0.1031
44269W        W87260  24.827   2.960  14.048 -0.0705  0.0316  0.1396
44270W        W87261   6.698  18.471   8.563  0.1833 -0.0701  0.2885
44271W        W87262   7.016  14.402  27.579 -0.1224 -0.1370 -0.0813
44272W        W87263   8.351  16.391   5.749  0.1113 -0.1489 -0.1411
44273W        W87264  32.569   8.755   2.974  0.0416 -0.3034  0.2204
44274W        W87265  17.633  29.003  18.464  0.2276  0.0197  0.0025
44275W        W87266  32.848   6.469   5.281  0.2526  0.0219  0.0326
44276W        W87267   5.528  21.680  24.914  0.2101  0.1347  0.4501
44277W        W87268  22.220  13.360   7.262 -0.1207  0.1157  0.2078
44278W        W87269   4.423  23.606   4.807 -0.3094  0.1278  0.1101
44279W        W87270  20.289  11.436   9.528  0.1705 -0.1629  0.0055
44280W        W87271   2.343  12.611   9.969  0.0834  0.0845 -0.1531
44281W        W87272  31.586  27.259  19.734  0.0376  0.0532  0.0091
44282W        W87273  13.950  16.802   1.589  0.0966  0.0247  0.2342
44283W        W87274  13.269   0.275   5.450 -0.1070  0.1957  0.2097
44284W        W87275  34.528  23.023   8.526  0.3605 -0.0968 -0.1536
44285W        W87276  32.493   6.162  15.456  0.1199 -0.3721  0.0874
44286W        W87277   9.721  15.141  10.012 -0.1731  0.0687 -0.1560
44287W        W87278  26.904  20.858   4.890  0.1517 -0.0234 -0.1918
44288W        W87279  22.369  18.111   0.596  0.0159  0.0248  0.3511
44289W        W87280  32.737   6.985   6.857 -0.0399 -0.0033  0.3669
44290W        W87281  30.348  19.446   2.675  0.1122  0.1806 -0.0410
44291W        W87282  22.964   8.803   3.140 -0.2286 -0.0515 -0.2022
44292W        W87283  34.417  17.081   5.621  0.2392 -0.1098  0.0398
44293W        W87284  21.711  15.305   9.227 -0.1074 -0.1153  0.0223
44294W        W87285   0.311  28.023  21.184 -0.0011  0.0627 -0.1878
44295W        W87286  25.361  27.430  28.634  0.0048 -0.0161  0.1452
44296W        W87287   8.761  26.221   2.052  0.1047  0.1618  0.1192
44297W        W87288  28.581   1.537  24.929  0.1613 -0.4263  0.0958
44298W        W87289  34.502   4.810  18.569 -0.2016  0.1143  0.2528
44299W        W87290  33.991   8.853   7.318  0.1426  0.0495 -0.1818
44300W        W87291  33.300  11.188  24.998  0.1965 -0.0182  0.0566
44301W        W87292  15.329   5.353   5.088  0.0543  0.1150 -0.0505
44302W        W87293  14.623  23.059   8.239 -0.3110  0.0854 -0.1730
44303W        W87294   6.843  24.264  10.197 -0.0806  0.0867 -0.1913
44304W        W87295   0.642  19.007   4.475 -0.1119  0.0193 -0.2890
44305W        W87296  18.903  24.493   7.618  0.1746 -0.1698 -0.1287
44306W        W87297  15.064  27.166  28.735  0.0914 -0.0966  0.1653
44307W        W87298  28.720  26.621   8.377 -0.3840 -0.0882 -0.0957
44308W        W87299  23.556   8.080   3.309  0.1465 -0.0741 -0.0817
44309W        W87300  22.474   9.453   4.748  0.3342 -0.2883 -0.4240
44310W        W87301   2.554   0.310   0.084  0.0005 -0.1599 -0.1102
44311W        W87302   0.986  22.390   0.368  0.3560 -0.1078 -0.3927
44312W        W87303  13.411  16.481   6.996 -0.0128 -0.2302 -0.0527
44313W        W87304  32.070  24.698   0.950  0.2611 -0.1484  0.0203
44314W        W87305  24.688  10.194  26.141  0.1453 -0.1817  0.0837
44315W        W87306  19.116   8.779   3.136 -0.0652  0.3556 -0.2378
44316W        W87307   2.152   4.307  17.539 -0.2840 -0.0835 -0.1501
44317W        W87308  34.743   9.783   5.256 -0.0871 -0.1579  0.0066
44318W        W87309  22.224  23.218   5.650  0.3347 -0.0251  0.0468
44319W        W87310  28.979  34.105   4.148  0.0212 -0.1483 -0.1538
44320W        W87311  20.386  19.439  28.792  0.0395  0.2119  0.0497
44321W        W87312  33.699  12.449   7.786 -0.4317  0.0235  0.4214
44322W        W87313   3.462  30.999   8.096 -0.3112 -0.1444  0.0312
44323W        W87314  16.361  15.469   5.584  0.0922  0.2929  0.0768
44324W        W87315  19.417   0.308  26.836 -0.0021  0.1808  0.2085
44325W        W87316  30.037  25.532   2.880 -0.0139 -0.0642  0.1172
44326W        W87317   2.313  11.867   6.485  0.0043 -0.1996 -0.0504
44327W        W87318  27.516  23.770   0.964  0.0507 -0.4630  0.0183
44328W        W87319   3.945   3.144   7.833  0.3330 -0.1693  0.3666
44329W        W87320   6.933  11.500   2.131  0.2538 -0.3806 -0.0807
44330W        W87321  32.233  16.150   6.334  0.1246  0.3022  0.3190
44331W        W87322  17.979  24.575   6.609  0.0642 -0.2155 -0.1092
44332W        W87323  18.397  12.624   5.440 -0.2639  0.0037  0.2142
44333W        W87324   1.499   9.578  27.111  0.0985  0.0104 -0.3084
44334W        W87325  25.200   7.005   8.761 -0.0082 -0.3391  0.0512
44335W        W87326  28.858  29.668   7.392  0.3287  0.1112 -0.1959
44336W        W87327  26.800   8.210   6.478  0.2760  0.1668 -0.0557
44337W        W87328   7.249   5.122  22.272  0.1084 -0.0421 -0.0121
44338W        W87329  21.381  14.350   2.772 -0.0590 -0.1322  0.2064
44339W        W87330   4.230  18.470   5.663  0.2620  0.0337 -0.1382
44340W        W87331  24.905  31.384   1.174  0.3593  0.1687  0.1873
44341W        W87332  27.249  19.506   6.474  0.1617 -0.0477 -0.1133
44342W        W87333   2.619   7.132   9.202  0.1087  0.1391  0.0034
44343W        W87334  12.907   3.040   5.417 -0.1263 -0.1651 -0.3359
44344W        W87335  13.318  12.789   5.721  0.4109  0.3153  0.3269
44345W        W87336  10.327  13.580   0.800 -0.1447  0.1629  0.1112
44346W        W87337  10.239   7.429   2.264 -0.0573  0.0921  0.1597
44347W        W87338   0.241   4.396   7.630 -0.0661 -0.0286 -0.1519
44348W        W87339  31.762  24.138  25.121  0.1748  0.0474  0.0652
44349W        W87340  25.646  27.554   6.646 -0.1457 -0.2095 -0.0205
44350W        W87341  26.526   2.034  25.630  0.2674  0.1492  0.0347
44351W        W87342  21.808  16.861   0.483 -0.1365  0.1187  0.1835
44352W        W87343   0.382  11.149  11.524  0.3938 -0.1877  0.4300
44353W        W87344  26.250   6.448   9.458  0.2112 -0.0812 -0.1574
44354W        W87345  10.356  23.432   2.275 -0.3222 -0.0795  0.3240
44355W        W87346  25.498  18.948   9.355  0.0680 -0.0067 -0.1603
44356W        W87347  32.826  21.017  10.194  0.1349  0.3092 -0.2032
44357W        W87348  23.602  11.044   9.518  0.0631 -0.0228  0.2882
44358W        W87349  12.973  33.092   2.517 -0.0194 -0.1616 -0.0675
44359W        W87350   2.952  19.483  21.218  0.0662  0.0223 -0.2071
44360W        W87351  33.134   9.518  20.958  0.0610  0.0725  0.0568
44361W        W87352  29.418   8.642   6.931 -0.1688  0.1362 -0.2688
44362W        W87353  32.636  19.906   9.587  0.0498  0.3395  0.1423
44363W        W87354  22.918  19.611   5.145  0.0286  0.0542  0.1866
44364W        W87355  10.114  14.795  10.143 -0.1204 -0.0843 -0.1697
44365W        W87356  12.027  27.739  27.398  0.0483  0.2538 -0.0473
44366W        W87357  16.111   1.297   7.647 -0.0148 -0.2520  0.0399
44367W        W87358   4.447  14.269  17.645 -0.3056 -0.0780 -0.1199
44368W        W87359  11.400  15.159  10.595  0.1279  0.3827  0.1442
44369W        W87360  33.558  33.218  16.952 -0.1403 -0.4205 -0.0605
44370W        W87361  26.280   6.259   8.303  0.0201 -0.3078  0.1193
44371W        W87362   5.954  12.335   9.517 -0.0901  0.0607 -0.2758
44372W        W87363  24.898  33.334   8.776  0.1891 -0.1348 -0.0856
44373W        W87364  29.420   8.592   1.767 -0.2373 -0.0238  0.0877
44374W        W87365  32.612  14.128   6.743  0.3664  0.3806 -0.2640
44375W        W87366  23.630  34.615   3.587  0.1244 -0.0411  0.2009
44376W        W87367  34.049   1.364  27.251  0.0198  0.0541 -0.3585
44377W        W87368  31.565  18.653  27.364  0.0929 -0.0230 -0.2022
44378W        W87369  27.942   8.861   5.847  0.3969  0.1010  0.1136
44379W        W87370  30.443  17.654   9.196 -0.4038  0.1356 -0.3139
44380W        W87371   8.628   1.694   2.071  0.0928  0.0394 -0.1401
44381W        W87372   7.961   7.810  15.146 -0.0385 -0.4353  0.0955
44382W        W87373   2.802  28.215  26.604  0.0312 -0.1739 -0.1753
44383W        W87374  18.913  25.974  24.260  0.1163  0.0300  0.1109
44384W        W87375   3.387  17.316   3.751 -0.0760  0.0170 -0.3926
44385W        W87376  24.071  13.313  29.026  0.0372  0.0836 -0.1082
44386W        W87377   4.173  17.865   2.299  0.1741 -0.2291 -0.4272
44387W        W87378  32.019  23.366   8.472 -0.2852  0.0444  0.0696
44388W        W87379  16.772   8.004   8.238 -0.3387  0.3038 -0.2549
44389W        W87380  11.655  12.253   5.377  0.3888 -0.0327 -0.2588
44390W        W87381   5.723  14.073  23.160 -0.1967 -0.0380  0.0023
44391W        W87382   9.543   8.462   2.806 -0.4731  0.3480  0.1403
44392W        W87383  13.834  12.256   9.352 -0.1141  0.1028 -0.0176
44393W        W87384  31.533  22.280  29.202 -0.0683  0.0359 -0.0546
44394W        W87385   9.049   2.556   7.313  0.0078 -0.1498  0.2204
44395W        W87386  17.879   5.728   9.122  0.3335  0.0345  0.0152
44396W        W87387   0.748   8.823   2.289 -0.1102 -0.1589  0.2724
44397W        W87388  20.606  20.818   0.977 -0.0007 -0.0478 -0.3509
44398W        W87389  28.528   3.584  26.156 -0.0218  0.0357 -0.1152
44399W        W87390   8.272   5.619   3.093  0.2389 -0.1118  0.3328
44400W        W87391   7.664  13.637   9.116 -0.1000  0.0595 -0.0678
44401W        W87392  29.356  19.435   9.214  0.0446 -0.2857  0.0124
44402W        W87393  33.883   2.386   7.653 -0.1322 -0.1022 -0.0311
44403W        W87394  13.456  14.890   8.957 -0.3665 -0.2062  0.0221
44404W        W87395   2.471  15.787  18.623  0.0483  0.2310 -0.1392
44405W        W87396  32.039  27.270  25.944  0.1543 -0.1063  0.1069
44406W        W87397  27.932  19.711  25.738 -0.2034  0.2737 -0.3537
44407W        W87398   5.535   4.454   7.373  0.0754 -0.0069 -0.0920
44408W        W87399   1.094  10.969  23.058 -0.0518  0.1017  0.3616
44409W        W87400  31.289  11.593   2.710  0.1824 -0.0295  0.0883
44410W        W87401   2.015  14.131   6.367  0.1157 -0.0186  0.1302
44411W        W87402   6.627  14.034  10.556 -0.2517 -0.0527 -0.2249
44412W        W87403  31.948   5.371  10.140  0.1300 -0.0120  0.1969
44413W        W87404  20.382  25.633  20.706  0.0584  0.1430  0.0807
44414W        W87405  10.401   8.947   0.860 -0.0201  0.1107  0.1530
44415W        W87406  26.093  26.721   5.101  0.0505  0.0777 -0.2685
44416W        W87407  26.435   6.017   4.599 -0.6521 -0.0598 -0.0369
44417W        W87408  13.009   3.750  10.923  0.0742 -0.2187 -0.0231
44418W        W87409   5.250  27.181   5.646 -0.1531  0.0040  0.1278
44419W        W87410   9.154   8.356  26.475 -0.0031  0.0558  0.2410
44420W        W87411  19.889   6.809   1.006 -0.0867 -0.1969 -0.0776
44421W        W87412   5.723  11.979   8.146 -0.1603  0.2873  0.3854
44422W        W87413  24.811   5.872   4.340 -0.3689 -0.3144 -0.2674
44423W        W87414  18.540   1.983   9.461 -0.2618 -0.1028 -0.2039
44424W        W87415  29.098  22.761   4.948 -0.2020  0.3112  0.2831
44425W        W87416  25.258  11.539  23.212  0.1818  0.1441 -0.0246
44426W        W87417  15.234  27.253   0.640 -0.1123  0.0147 -0.1469
44427W        W87418   8.773  26.760   4.254 -0.2583 -0.2952 -0.2209
44428W        W87419  29.541  14.051  11.097  0.0308  0.1065  0.0965
44429W        W87420  34.112   3.386   7.510  0.0176 -0.0745 -0.2191
44430W        W87421  26.545  20.418   2.714 -0.0810 -0.1982  0.1050
44431W        W87422   5.969   8.169   7.758 -0.1206  0.0718 -0.1060
44432W        W87423  30.514   9.674   0.764  0.0446 -0.1343  0.2801
44433W        W87424   4.128  24.250   9.501  0.0899  0.0493 -0.0184
44434W        W87425  21.530  10.123   2.541 -0.0121  0.0001  0.2451
44435W        W87426  19.856   6.070  25.713  0.0419  0.1711  0.0062
44436W        W87427   0.261  16.258  10.412  0.0287 -0.0085 -0.2231
44437W        W87428  26.170  11.360   4.986  0.1447  0.2386 -0.0375
44438W        W87429   1.546  33.078   7.459  0.2772  0.2860  0.4606
44439W        W87430  28.945  13.854  28.979 -0.0467 -0.0244 -0.1951
44440W        W87431  27.656  13.364   7.767  0.2943  0.4172 -0.1839
44441W        W87432  33.260  16.035   0.196  0.0779 -0.1874 -0.3871
44442W        W87433  21.010  14.404   0.746 -0.1019 -0.0454 -0.1170
44443W        W87434  18.563   7.055   1.015  0.0355  0.0030  0.0898
44444W        W87435   3.840  20.389  10.326 -0.1756 -0.5051  0.0529
44445W        W87436  20.269   8.570  27.376 -0.0200 -0.0861 -0.0031
44446W        W87437   4.425  10.169   5.657  0.0347 -0.0778 -0.2588
44447W        W87438   6.451   8.361  11.169  0.1278 -0.0817 -0.3710
44448W        W87439  31.584  14.048  10.420  0.3121 -0.0834 -0.0301
44449W        W87440  21.060  15.302  26.287  0.0255  0.0849 -0.1187
44450W        W87441  28.398  20.744   6.994 -0.0228  0.1745  0.2047
44451W        W87442   9.232   9.058   8.150  0.0916  0.1773  0.1405
44452W        W87443   4.234  20.091  28.461 -0.2476  0.0730  0.1288
44453W        W87444   7.442  25.666   9.670 -0.2838  0.0463 -0.1588
44454W        W87445  21.647   8.816   2.135  0.0517  0.0601 -0.1562
44455W        W87446  14.041  11.405   6.133 -0.0751 -0.0536  0.0270
44456W        W87447  19.742   7.172   1.400 -0.0677 -0.4519 -0.1336
44457W        W87448   1.058   0.075  28.365  0.0118 -0.0959 -0.1815
44458W        W87449  31.905  21.601   0.477  0.4497 -0.1882 -0.0706
44459W        W87450  31.730   7.132   8.714  0.0244  0.1251 -0.0268
44460W        W87451  25.235  28.989  20.888  0.1405 -0.0776  0.2282
44461W        W87452  20.884  16.896  28.955  0.1649 -0.0354  0.0317
44462W        W87453  22.176   1.101   6.532 -0.2603  0.2225  0.0324
44463W        W87454  12.314  20.184  28.769 -0.0048 -0.1866 -0.0691
44464W        W87455  20.902  13.002   0.949 -0.2625  0.0724  0.0577
44465W        W87456  27.621   9.758  10.215  0.1951 -0.3344 -0.2789
44466W        W87457  31.419  15.645   5.094  0.1197 -0.0416 -0.0887
44467W        W87458  21.373  13.350   4.484  0.1456 -0.1112  0.4602
44468W        W87459   1.857  32.782   1.571 -0.1209  0.3380 -0.4589
44469W        W87460  31.620  18.520   8.892  0.3065 -0.3740 -0.0247
44470W        W87461   5.774  27.258   5.856  0.2221 -0.0562  0.1141
44471W        W87462  23.798   5.848   4.433 -0.0893 -0.0649  0.0963
44472W        W87463  22.602   8.921   2.838 -0.0158  0.2364  0.1811
44473W        W87464  12.954  13.960   0.391 -0.3244  0.2431  0.2220
44474W        W87465  31.366  18.930   9.395 -0.2102 -0.2638 -0.0276
44475W        W87466   9.458  13.444   1.119  0.0746  0.0156 -0.3046
44476W        W87467  34.094  17.112   8.345 -0.0421  0.1476 -0.1833
44477W        W87468   2.064   5.202  10.480  0.1243  0.2041 -0.0689
44478W        W87469   2.896  20.482  28.669 -0.0535 -0.0375 -0.0006
44479W        W87470  25.373   6.600   9.535 -0.0214  0.1160  0.0912
44480W        W87471  27.521   0.355   5.043 -0.2931  0.1704  0.0592
44481W        W87472  34.125  28.131   5.478 -0.4701  0.1706  0.0602
44482W        W87473  26.476  16.255   9.030 -0.2797  0.0312 -0.0621
44483W        W87474   5.259   6.430   5.287 -0.2604  0.1368 -0.1337
44484W        W87475  29.356   8.101  27.319 -0.2923 -0.2921 -0.2391
44485W        W87476   2.698  10.122  17.592  0.0624  0.0977  0.1410
44486W        W87477  20.950  21.956   8.494 -0.0699  0.2102  0.0129
44487W        W87478  17.114  20.824   8.653  0.0199  0.0259  0.2547
44488W        W87479  20.317   7.976  28.877 -0.3124 -0.0495 -0.0665
44489W        W87480  28.347  23.200   8.237  0.0654 -0.0010  0.0450
44490W        W87481  29.735  15.884   3.548 -0.5534 -0.4084 -0.3453
44491W        W87482  17.570  32.403  23.391 -0.3254 -0.0833  0.5568
44492W        W87483  33.577   7.008   1.615  0.1797  0.1596 -0.3735
44493W        W87484   7.071  23.122   2.587 -0.2625 -0.0239  0.0397
44494W        W87485  26.080  22.011  27.151 -0.0364 -0.1513  0.1655
44495W        W87486   3.716   2.519   6.313  0.3274  0.4861 -0.0437
44496W        W87487  34.030  33.478   4.654  0.3954 -0.1300 -0.0083
44497W        W87488  10.413   4.774   7.046  0.0058  0.0090 -0.2913
44498W        W87489  33.932  18.700   6.891 -0.0875  0.0329  0.0451
44499W        W87490  23.723  23.449   1.610  0.1741 -0.2227  0.0188
44500W        W87491  28.327   8.972   5.085  0.2501 -0.2166 -0.1065
44501W        W87492  31.904  10.334   6.588 -0.4974  0.0173 -0.1647
44502W        W87493   7.765  11.278   9.848 -0.1239  0.0753  0.1140
44503W        W87494  13.816  21.027   9.720 -0.2776 -0.0214 -0.0223
44504W        W87495   7.017  32.042  23.714  0.0727 -0.0317 -0.1309
44505W        W87496   5.416  18.653   6.376  0.0574  0.3962  0.1509
44506W        W87497   5.560  18.164   6.502  0.1033 -0.3778 -0.2802
44507W        W87498  11.562   6.324   1.058 -0.1399  0.2102  0.0472
44508W        W87499  20.357  19.269   8.886 -0.0434  0.1423  0.0518
44509W        W87500  10.201  21.898   8.475 -0.0111 -0.1548 -0.1840
44510W        W87501   0.382  11.047  28.762 -0.1077  0.1334  0.0091
44511W        W87502  27.882   6.825   0.820  0.1813  0.0626  0.2761
44512W        W87503  22.068  17.327   2.054 -0.1002  0.2543 -0.0886
44513W        W87504  27.590  11.157   9.117 -0.0365  0.1445  0.0416
44514W        W87505   3.964   5.633   7.320  0.0886 -0.0080 -0.2390
44515W        W87506  29.929  25.248   9.388  0.1658  0.2337 -0.1154
44516W        W87507   8.130  26.028   3.106 -0.2550 -0.1644 -0.1942
44517W        W87508   2.729  28.373   0.543 -0.0720 -0.2295 -0.2685
44518W        W87509  18.523  13.815  23.384  0.1737  0.0667 -0.0874
44519W        W87510  16.023   2.627   9.528  0.0227  0.0509  0.1480
44520W        W87511  31.442  21.460   6.107  0.1038  0.1431  0.1997
44521W        W87512  21.099  19.630   1.379 -0.2181  0.1104  0.2861
44522W        W87513  10.096  12.127   2.713  0.1828  0.2540  0.0505
44523W        W87514  27.459  17.011   4.302 -0.1806  0.0825  0.1395
44524W        W87515   7.383   4.597  23.862 -0.1475  0.5145  0.1662
44525W        W87516   9.747  27.003   2.590 -0.0866 -0.0483 -0.3445
44526W        W87517  25.167  17.172  28.236  0.0626 -0.3948  0.1265
44527W        W87518   7.218  17.236  27.625  0.1719 -0.2149  0.1776
44528W        W87519  24.873  13.292   6.940  0.0402  0.1599  0.1258
44529W        W87520  26.231  10.146   9.510 -0.0822  0.4410  0.0495
44530W        W87521  26.430  17.691   6.975  0.4408 -0.0809 -0.1418
44531W        W87522  20.163  18.243   5.082 -0.1466 -0.2461 -0.0133
44532W        W87523   1.928  15.701   7.422 -0.2475 -0.1331 -0.1256
44533W        W87524  26.351  16.676  25.893 -0.1412  0.1133 -0.3636
44534W        W87525  33.343  28.631  22.683  0.0242  0.0493 -0.2102
44535W        W87526  25.288  13.331   8.580 -0.3522 -0.0564 -0.1031
44536W        W87527  22.200  19.714   3.526  0.0774 -0.0970  0.1921
44537W        W87528  30.014   8.369  27.986  0.0461  0.1596 -0.2768
44538W        W87529   7.478   5.497   5.354 -0.0618 -0.3983 -0.0273
44539W        W87530  10.660  10.567  10.608 -0.2167  0.0717  0.1060
44540W        W87531   4.199  23.676   5.868 -0.0874 -0.1050 -0.3187
44541W        W87532  29.115  25.895  27.728  0.2222  0.0631  0.0628
44542W        W87533  34.305  15.550   8.491 -0.0545 -0.1996  0.2247
44543W        W87534   4.801  24.352   9.375  0.0984 -0.1250 -0.4291
44544W        W87535   4.573   5.670  10.464  0.2179 -0.0645  0.2282
44545W        W87536  23.068  16.312  20.289 -0.2614  0.0692  0.1784
44546W        W87537  16.636  15.739  25.432 -0.2943  0.2028 -0.0368
44547W        W87538  33.906  17.863  23.127  0.3559 -0.2814 -0.0529
44548W        W87539  26.997  31.602   5.452  0.0327  0.1492 -0.0489
44549W        W87540  32.453  12.110   9.838 -0.0283  0.0188 -0.2063
44550W        W87541  22.026  20.184   4.775  0.0468  0.3750  0.2636
44551W        W87542   3.874   3.942  10.600 -0.0731  0.0864 -0.1230
44552W        W87543  20.377  11.765   8.459  0.3163  0.1452  0.2149
44553W        W87544  23.584  34.351  22.331 -0.0763  0.0607  0.1735
44554W        W87545  22.011  13.920  17.216 -0.1142 -0.1188 -0.3643
44555W        W87546  14.610  15.972   0.002 -0.1996  0.2057 -0.0364
44556W        W87547  24.981  22.391  22.810  0.0372  0.0632  0.1786
44557W        W87548   7.206  18.722  10.591 -0.1444 -0.0011  0.0845
44558W        W87549   4.231  12.163  25.719  0.2654  0.3983  0.2230
44559W        W87550  29.357  11.666   9.333 -0.2428  0.2226 -0.0240
44560W        W87551   6.256   5.553   5.343 -0.1870 -0.0945  0.0446
44561W        W87552  18.186  21.744   8.366  0.2225  0.1983 -0.0489
44562W        W87553  18.707  11.762   4.939 -0.1501  0.3567  0.0479
44563W        W87554  16.785   5.156   8.864 -0.2461 -0.2683 -0.1472
44564W        W87555  19.774   1.657   2.683 -0.1633 -0.2324 -0.1087
44565W        W87556   4.582  24.748   9.080 -0.2154  0.1571 -0.2904
44566W        W87557  21.656  14.787   8.629 -0.1828 -0.0482  0.3875
44567W        W87558   8.663  20.871   6.127  0.2188  0.0809  0.0094
44568W        W87559  29.405  12.234   9.504  0.0143  0.0764  0.1676
44569W        W87560  20.899  22.828   9.674 -0.0920 -0.0750 -0.2663
44570W        W87561  25.269   8.135   2.125 -0.0524 -0.1856 -0.2325
44571W        W87562   3.342  17.545   6.686 -0.3151  0.0242 -0.1150
44572W        W87563  28.076   7.569   5.774  0.1412 -0.4119 -0.2396
44573W        W87564  14.043  20.321   4.339  0.0243 -0.4599 -0.1542
44574W        W87565  13.769  13.106  28.682 -0.1862 -0.3220  0.2687
44575W        W87566  11.526  21.223   3.632 -0.1423 -0.1816  0.1270
44576W        W87567   1.010  21.208  19.363 -0.0973  0.0208  0.2614
44577W        W87568  30.862   9.150   5.901 -0.0962  0.3115  0.1537
44578W        W87569   1.477  21.848  13.718  0.1025 -0.0220 -0.0031
44579W        W87570  34.551  18.876  25.679 -0.1775 -0.0292 -0.0923
44580W        W87571  20.189  23.485  24.102 -0.2479 -0.1424  0.0497
44581W        W87572  32.654   5.608  25.851 -0.1564  0.1773  0.1910
44582W        W87573  28.726   6.759   9.351  0.2957 -0.2761  0.1580
44583W        W87574   7.737  17.713   6.351 -0.0122 -0.0745 -0.3965
44584W        W87575   2.603   9.328   4.673  0.0920  0.1325 -0.0960
44585W        W87576   2.346  17.270   9.945 -0.2143  0.0238 -0.1321
44586W        W87577  31.712  16.669  23.761 -0.0552 -0.1204 -0.0391
44587W        W87578   6.846  32.693  26.724  0.0698  0.2381 -0.0466
44588W        W87579   0.486  15.875   1.587  0.1837 -0.0673 -0.2703
44589W        W87580   6.815  21.513   3.048  0.2034 -0.2779  0.0363
44590W        W87581  22.589   7.168   3.248  0.1433  0.1067 -0.2062
44591W        W87582  22.939  16.062   6.486 -0.1575 -0.1172 -0.3151
44592W        W87583  23.518   9.158   2.996  0.2316 -0.3825 -0.0288
44593W        W87584   8.498  26.917   7.668  0.1463 -0.1813  0.1553
44594W        W87585  30.820  15.927   1.165 -0.0658  0.1187  0.4058
44595W        W87586  31.947  29.345   7.996 -0.2176  0.1562 -0.0228
44596W        W87587  18.466  14.954   7.899 -0.2850  0.1461 -0.1433
44597W        W87588   0.928  11.459   6.954  0.2911  0.2418 -0.0242
44598W        W87589  24.434  14.897   5.971  0.0412  0.1404 -0.0548
44599W        W87590  29.807  11.678  10.650  0.2765  0.2305 -0.0926
44600W        W87591  33.371   1.175   9.322 -0.0578  0.1811 -0.0120
44601W        W87592   3.883  34.321   2.928  0.0314 -0.0151  0.1020
44602W        W87593  26.594  18.857  29.249 -0.1675 -0.1397  0.0465
44603W        W87594  21.743  16.043   5.164  0.2815 -0.1832  0.3882
44604W        W87595   5.685  16.995   7.234 -0.0121 -0.0000 -0.1343
44605W        W87596   3.379   7.829   1.526 -0.2387 -0.0132 -0.0602
44606W        W87597  33.259  33.727  23.847  0.4984  0.1443  0.1445
44607W        W87598  34.087  20.051   7.320 -0.1132  0.0686  0.2964
44608W        W87599   6.356   3.411  27.319  0.0829  0.0139  0.0948
44609W        W87600   7.123  23.706   7.643 -0.1381 -0.0555  0.0218
44610W        W87601   1.828   9.743   7.356  0.3078  0.4915 -0.4066
44611W        W87602  28.632   7.279  16.791  0.0477 -0.2773  0.3068
44612W        W87603  18.800  14.224  29.204  0.2289 -0.2776 -0.0726
44613W        W87604  31.474  14.006   4.794  0.2924  0.0772 -0.1153
44614W        W87605   9.159  26.449   4.096  0.3533  0.0283 -0.1016
44615W        W87606   3.467  13.318  10.693  0.1068  0.0248  0.3497
44616W        W87607  22.864  16.765  28.946 -0.0733 -0.4146  0.1128
44617W        W87608   5.889   0.789   7.735 -0.0382 -0.1028  0.1194
44618W        W87609  27.934  21.294   8.331 -0.2346  0.4603 -0.0882
44619W        W87610   9.166  24.535   6.537 -0.0377  0.0494 -0.1590
44620W        W87611  22.333  10.722  16.214 -0.2562 -0.3316  0.2147
44621W        W87612  21.196  15.269   5.317 -0.0919 -0.1380  0.0884
44622W        W87613   8.425   7.313   9.628  0.0914  0.1233  0.1418
44623W        W87614  33.649  21.966  23.670  0.1292  0.1838  0.2646
44624W        W87615   1.804  28.348  17.832  0.2332  0.0147  0.2971
44625W        W87616   0.711  12.366  11.224  0.1245  0.2265 -0.0494
44626W        W87617  22.041  21.998  24.938  0.0405  0.4588 -0.4255
44627W        W87618  11.062  24.482   3.379  0.1069  0.0207  0.2246
44628W        W87619  22.896  12.287  27.072  0.3136  0.0092  0.0047
44629W        W87620  28.552  10.808   6.695  0.0172  0.2679 -0.2695
44630W        W87621  28.332   4.973   5.963  0.1767  0.1450 -0.0161
44631W        W87622   6.691  12.266   3.285 -0.1809  0.0184  0.0334
44632W        W87623  14.078  20.595   7.993 -0.1775 -0.0420  0.1909
44633W        W87624  28.438   9.363   2.299 -0.1003  0.0088 -0.1543
44634W        W87625   3.078   5.890   4.492 -0.2564 -0.3796  0.0927
44635W        W87626  24.366  27.660  14.011  0.1667  0.0273  0.2988
44636W        W87627  34.595   4.535   0.371 -0.1234 -0.1403 -0.1116
44637W        W87628  28.070   6.588   3.732  0.0136  0.0178 -0.1233
44638W        W87629   9.595  14.491   4.714 -0.1643  0.2661  0.2512
44639W        W87630  30.412  11.959  25.645 -0.0555 -0.0658  0.1500
44640W        W87631  32.217   5.666   8.639  0.1369  0.0751 -0.1163
44641W        W87632  33.660  15.481   9.698  0.0837  0.2339 -0.0884
44642W        W87633   7.189   0.451   3.923 -0.2009  0.0779  0.2501
44643W        W87634  14.029  15.365   2.413 -0.2346  0.0182 -0.0526
44644W        W87635  19.339  23.650   8.005 -0.1900  0.0495  0.0900
44645W        W87636  25.108  10.349   4.297 -0.1617  0.0958  0.0232
44646W        W87637  15.301  30.600   4.805  0.0775  0.2984 -0.1913
44647W        W87638   1.440  19.330   2.460  0.2078 -0.2388 -0.3751
44648W        W87639  19.956  13.920  28.990  0.2128  0.1894 -0.2382
44649W        W87640   2.420  15.300  17.754 -0.1859  0.3324  0.0388
44650W        W87641  23.566  27.590   2.161 -0.0996 -0.1323 -0.1757
44651W        W87642   9.428  10.780   8.216 -0.1230 -0.0701  0.0187
44652W        W87643  33.324  13.640  11.970 -0.2391 -0.4910  0.2805
44653W        W87644   1.965   4.084   5.163  0.3787  0.1471 -0.2782
44654W        W87645   1.654  17.457   8.821 -0.1622 -0.2204 -0.1474
44655W        W87646  33.349  24.782   1.324  0.2633  0.0223 -0.1253
44656W        W87647  30.297   6.473   7.143 -0.1044 -0.1445 -0.0133
44657W        W87648  26.481  34.258  28.746 -0.0030 -0.0219 -0.0310
44658W        W87649   9.521  23.088   8.336 -0.0910  0.0090  0.1736
44659W        W87650   3.597   8.981  10.262  0.1290  0.2331  0.0286
44660W        W87651  23.584  14.370   7.900 -0.1569 -0.2903  0.3071
44661W        W87652   4.301  12.962   7.509  0.0919  0.2547  0.1915
44662W        W87653  10.206  15.863  22.440  0.3324  0.0575 -0.2386
44663W        W87654  19.277  17.919   3.185 -0.2345 -0.1905 -0.0475
44664W        W87655  23.835  20.615   1.162  0.0293  0.1472 -0.1996
44665W        W87656  23.293  25.486  15.343 -0.1218  0.0642  0.0537
44666W        W87657  21.654  32.553   5.114  0.0027  0.0220  0.0548
44667W        W87658   1.489  15.917   5.675 -0.1962 -0.2861 -0.0558
44668W        W87659  26.287  19.891  24.795 -0.0428  0.2910  0.2237
44669W        W87660   6.849  22.379   6.575 -0.1825  0.0078 -0.6097
44670W        W87661  30.588   5.708   0.786  0.2346 -0.3086  0.0330
44671W        W87662  25.519   4.325  27.793 -0.1329  0.3058 -0.1481
44672W        W87663  21.181  19.101  26.680  0.1080 -0.2225 -0.0608
44673W        W87664  13.003  20.304   3.141 -0.0746 -0.4741 -0.3688
44674W        W87665   1.159  32.835   9.434  0.2367 -0.0560  0.3451
44675W        W87666  14.680  29.138   9.433 -0.0216 -0.1192  0.5681
44676W        W87667   3.302   2.675   8.858  0.0239 -0.0240 -0.2592
44677W        W87668  33.156  17.513   6.872 -0.0603  0.0449  0.0316
44678W        W87669  24.788  17.354   0.628 -0.1538  0.0714  0.3618
44679W        W87670  31.625  26.870  17.438  0.0246 -0.0471 -0.2469
44680W        W87671  24.455  12.014   5.741  0.0075 -0.1065  0.2186
44681W        W87672  25.035  19.105  18.347 -0.1948  0.2023  0.2463
44682W        W87673   6.617   6.288  29.008  0.0299  0.2228  0.2218
44683W        W87674  27.806   9.633   4.211 -0.1457  0.4864  0.2895
44684W        W87675  28.719  17.793   8.095 -0.2029 -0.1995  0.3483
44685W        W87676  33.356  17.063   3.384 -0.0020 -0.3389  0.0713
44686W        W87677  30.022  17.794   7.154 -0.0745  0.1291  0.3989
44687W        W87678   5.980  21.109  25.932  0.0855  0.2359 -0.0898
44688W        W87679   8.612  12.480  23.466 -0.0757 -0.0589 -0.2899
44689W        W87680  29.480   3.408   2.241  0.0769 -0.0852 -0.0174
44690W        W87681  21.497  29.960   1.306 -0.1314  0.2326 -0.4456
44691W        W87682  26.805   1.045   5.237 -0.1221  0.3433  0.0136
44692W        W87683   7.611   6.846   7.594  0.3508 -0.1859  0.3346
44693W        W87684  19.000   4.464   9.063 -0.0834  0.1214  0.0121
44694W        W87685  32.156   6.759   4.004  0.1990  0.1094  0.0858
44695W        W87686  15.115  26.113  22.864  0.0857 -0.2328  0.0349
44696W        W87687  25.483  10.017  19.893  0.2948 -0.3377  0.0377
44697W        W87688  15.761  14.848   8.741 -0.1030 -0.1619 -0.0051
44698W        W87689  12.448   9.366   6.034  0.0187  0.1692  0.0406
44699W        W87690   4.235  14.187   9.345  0.1060  0.0209 -0.3793
44700W        W87691   1.067   8.211   3.458  0.0676 -0.1284 -0.1335
44701W        W87692   8.790   8.020  26.691  0.2180 -0.0173 -0.0944
44702W        W87693   3.418  14.360   8.451  0.2122  0.1083 -0.0411
44703W        W87694  29.996  26.286   6.465  0.3623 -0.0976  0.3803
44704W        W87695  33.396   8.633   8.146 -0.1487  0.0932 -0.0691
44705W        W87696   2.440   3.736  20.049  0.5210 -0.1710  0.0125
44706W        W87697   7.185   8.544   6.084  0.0560 -0.1151 -0.1947
44707W        W87698   0.026  31.030  13.218 -0.1537  0.1299 -0.1688
44708W        W87699  27.592  32.813  17.200 -0.1507 -0.1930 -0.1733
44709W        W87700  32.636  17.983  24.120 -0.2215 -0.3648 -0.3437
44710W        W87701  10.964  12.369   9.603 -0.2354  0.1550  0.1587
44711W        W87702  24.469  27.928   5.519 -0.1614 -0.2836 -0.2081
44712W        W87703  19.553   4.549   5.110 -0.0763  0.1423 -0.2581
44713W        W87704  34.363   6.187  24.640 -0.4199 -0.1868  0.0914
44714W        W87705  14.480  27.146   8.786  0.0677 -0.1080 -0.0591
44715W        W87706  25.120   9.605  17.519 -0.2001 -0.3027  0.1644
44716W        W87707  19.501   4.250  22.764 -0.0801  0.2394  0.0281
44717W        W87708  32.816   3.321   7.209  0.1140 -0.0997  0.0529
44718W        W87709   0.683   8.021  27.755 -0.1949 -0.1673 -0.2492
44719W        W87710  32.831  20.059  28.586 -0.1316  0.1543  0.1922
44720W        W87711  32.972  23.368   5.788  0.1178  0.0003  0.0777
44721W        W87712   2.074   8.441  27.277  0.0755  0.1709 -0.1649
44722W        W87713  22.185  14.007  21.034 -0.3994 -0.1346  0.2900
44723W        W87714  25.233   8.498   3.508  0.0738  0.0354  0.0953
44724W        W87715  23.221  13.748  22.058 -0.2380  0.0042 -0.3213
44725W        W87716  22.846  13.443   0.555  0.2090  0.1563 -0.1075
44726W        W87717  34.698  11.516   5.462  0.1496 -0.1043 -0.2083
44727W        W87718  31.679  19.891  26.368  0.0038  0.0978  0.1637
44728W        W87719  23.841  10.128   0.434  0.0184 -0.2161  0.2765
44729W        W87720  28.793  20.408   0.823  0.0572 -0.1157  0.0259
44730W        W87721   9.703  28.965   9.523 -0.1256  0.0616  0.1887
44731W        W87722   1.640  19.438  26.082  0.2842 -0.1610  0.0741
44732W        W87723  19.986   5.090  23.854  0.0274  0.1056  0.1774
44733W        W87724   8.006  20.556   5.437 -0.0212 -0.1628  0.0519
44734W        W87725  23.255  15.979   8.584  0.4583 -0.0474  0.0998
44735W        W87726  12.800   6.204  24.682  0.0817 -0.3300 -0.2879
44736W        W87727  32.781  17.045   8.594  0.1921  0.0353 -0.0135
44737W        W87728  11.752  10.443  20.505 -0.1154  0.2654 -0.0208
44738W        W87729  14.725  14.884   8.924  0.4723  0.1074 -0.0706
44739W        W87730  29.652  28.805   8.608  0.1950  0.0250 -0.0553
44740W        W87731   0.345  24.419  23.593 -0.0314  0.0936 -0.0256
44741W        W87732  26.379  19.259   9.612 -0.3756  0.0402  0.2107
44742W        W87733  30.515  11.955  28.665 -0.0480 -0.1391 -0.1728
44743W        W87734  27.669  31.899   1.477  0.1809  0.0955 -0.1961
44744W        W87735  34.752  13.944  15.695 -0.0462 -0.1099 -0.0024
44745W        W87736  29.572  29.874   5.770  0.0772  0.2743  0.0428
44746W        W87737  16.048   4.008  28.202 -0.1155 -0.3048  0.1897
44747W        W87738   5.569  31.828  18.383  0.1294 -0.3685 -0.2045
44748W        W87739   3.158  20.194  19.703  0.2579  0.0694  0.0944
44749W        W87740  20.231  24.060   5.611  0.0396  0.0950  0.0862
44750W        W87741  33.383  23.498   3.602 -0.1601  0.4383  0.0443
44751W        W87742  27.723  27.520  16.593  0.1141  0.0368 -0.1735
44752W        W87743   1.850  22.349  29.121 -0.0439  0.0979  0.1220
44753W        W87744  33.364  11.975   0.421  0.0586  0.0393  0.1304
44754W        W87745   1.721  18.447   8.707  0.1670  0.0331  0.1954
44755W        W87746   2.465   3.095   3.280  0.0735 -0.0354  0.3540
44756W        W87747  13.013  31.776  17.254  0.1671  0.4639  0.0701
44757W        W87748  11.153  20.297  21.824 -0.1739  0.0290  0.1230
44758W        W87749  28.364  18.988  18.911  0.0674  0.0153 -0.2711
44759W        W87750  21.359  22.262  19.744 -0.1904 -0.1059 -0.0956
44760W        W87751   0.246  17.543   0.590  0.1073  0.0237  0.0007
44761W        W87752  29.413   0.767  27.348  0.1855  0.1349 -0.1800
44762W        W87753  30.509  12.272  19.337  0.3421  0.1229  0.0392
44763W        W87754  32.459   2.918  22.066  0.0327 -0.1985 -0.2580
44764W        W87755  27.171  21.730   3.724  0.1826 -0.0388  0.0835
44765W        W87756  12.329  15.097  21.528  0.4071  0.2495  0.0591
44766W        W87757   5.026  23.794   4.710  0.0660 -0.1696  0.0154
44767W        W87758   8.993  11.985  28.872 -0.4582  0.2926  0.2279
44768W        W87759  34.049  16.372   1.216 -0.2093  0.0184 -0.1288
44769W        W87760  33.040  32.446  26.441 -0.0587  0.0028  0.2615
44770W        W87761  19.360  17.394  28.213 -0.1144  0.1293  0.0622
44771W        W87762  29.643  10.601   5.959  0.0163 -0.1938 -0.1239
44772W        W87763  12.845  26.201   6.583  0.0472 -0.1836  0.0372
44773W        W87764  29.721  19.915  25.160 -0.0098 -0.2109 -0.0750
44774W        W87765   7.842  30.001   7.197 -0.1538  0.0061 -0.0505
44775W        W87766   9.316  10.320   7.035  0.2218  0.1927  0.2175
44776W        W87767   4.036  14.033   1.076  0.2668  0.1573 -0.3831
44777W        W87768   0.315   6.152   9.980  0.1045  0.0860  0.0513
44778W        W87769  29.690   6.742   8.802  0.3137 -0.1401  0.0004
44779W        W87770  14.828  20.606  15.762  0.0813 -0.1674 -0.4716
44780W        W87771   0.486  21.500   8.177 -0.0054  0.1337  0.0323
44781W        W87772  29.326  17.496   1.075  0.3240  0.1451 -0.2502
44782W        W87773  25.677  19.498  14.896 -0.0516  0.2280 -0.1742
44783W        W87774  27.664   3.413  28.233  0.1091 -0.1278  0.1847
44784W        W87775  19.790  25.671   3.513 -0.0157  0.1497  0.1764
44785W        W87776   8.870  24.268  27.167  0.1411  0.2210  0.3196
44786W        W87777  23.006  12.661   0.995 -0.0081 -0.1496 -0.1872
44787W        W87778  10.143   5.730   6.890  0.0459 -0.1379 -0.0313
44788W        W87779  28.246  12.968   3.817  0.1327  0.3057  0.0907
44789W        W87780  23.219  10.683   1.503  0.1397 -0.1214  0.1488
44790W        W87781  23.915  14.536  23.594  0.2846 -0.1906 -0.1808
44791W        W87782  23.860  14.753  20.160  0.3896 -0.2790  0.2040
44792W        W87783  23.329  15.903  20.298  0.0087  0.2350 -0.2706
44793W        W87784  23.716   6.012   7.915 -0.1634  0.1333  0.1815
44794W        W87785  33.481  18.512  28.421 -0.0847 -0.0635 -0.0290
44795W        W87786  24.856  20.162  26.948  0.1872  0.0153  0.0582
44796W        W87787   6.680  18.538   5.682  0.0652  0.0462 -0.0350
44797W        W87788   1.758  12.071  11.987 -0.0738 -0.1216 -0.7123
44798W        W87789  18.295  16.201   3.342  0.4428  0.1608  0.1504
44799W        W87790  16.984  23.693   9.098 -0.3878  0.2790 -0.1450
44800W        W87791  33.819  30.817   4.007  0.3589  0.0393 -0.0871
44801W        W87792   6.607  25.505   3.049 -0.0584 -0.6510  0.0081
44802W        W87793   7.758   2.537   7.886  0.0625 -0.1866 -0.0512
44803W        W87794   6.558   6.453   1.950 -0.3479  0.3234 -0.2414
44804W        W87795   4.273  19.451   1.724  0.0473 -0.2136 -0.0573
44805W        W87796  33.600  11.780  23.400 -0.1699  0.0726  0.1771
44806W        W87797   2.128  21.703  26.570 -0.0182 -0.1127 -0.0349
44807W        W87798   1.127   4.463  11.142 -0.0255 -0.0992  0.0189
44808W        W87799   2.336  16.407  11.538 -0.0001  0.2423 -0.1518
44809W        W87800   4.447  33.938   9.031 -0.2128 -0.1723 -0.1281
44810W        W87801   5.055   3.614   6.364  0.3508  0.0162  0.4305
44811W        W87802   0.734  14.045   4.494  0.1718  0.1680  0.1809
44812W        W87803  34.074  10.409   4.616  0.2784  0.1829  0.2623
44813W        W87804   2.863  13.871  11.475  0.0939 -0.0307  0.1290
44814W        W87805  17.014   2.299   6.804 -0.2040 -0.4726 -0.3018
44815W        W87806  16.348  24.821  26.693 -0.0833 -0.0548 -0.2334
44816W        W87807  32.871  24.738   5.740 -0.1463 -0.3758  0.1841
44817W        W87808  22.450  26.453  24.806  0.1918  0.0735 -0.0337
44818W        W87809   5.838  13.718   8.564  0.0756  0.1228 -0.1264
44819W        W87810  20.700  27.326  27.197  0.0799  0.0241 -0.1765
44820W        W87811   7.625  15.868  27.362 -0.0232 -0.0003  0.0431
44821W        W87812  32.867   3.214  28.632  0.0020  0.2002 -0.5304
44822W        W87813  31.352  26.143  27.177  0.2014 -0.3194  0.0798
44823W        W87814   1.090  17.521  28.616  0.1952  0.0344 -0.0466
44824W        W87815   0.017  14.897   6.413 -0.0681 -0.2975 -0.1738
44825W        W87816  26.853  23.437  26.691  0.2637  0.3423 -0.2833
44826W        W87817   1.973  34.410   3.371  0.1391  0.1784 -0.0750
44827W        W87818  29.022  15.117   1.981  0.2507 -0.2602  0.0688
44828W        W87819  15.113  29.358  24.837  0.2316  0.2942  0.2794
44829W        W87820  32.432  21.639  28.235  0.2350  0.3035  0.1464
44830W        W87821  25.664   5.158   9.698 -0.0870 -0.2203 -0.0474
44831W        W87822  21.748  21.129  17.495  0.2211  0.0636 -0.0343
44832W        W87823  15.761  29.576   9.615 -0.4275 -0.2074 -0.1429
44833W        W87824  19.440  11.034   5.255 -0.0220 -0.0492 -0.1441
44834W        W87825   2.993  14.815  25.156  0.1453  0.0233  0.0535
44835W        W87826  22.175  14.190   9.009  0.0245  0.3030  0.0202
44836W        W87827   0.721  33.572  25.091 -0.2106  0.4044 -0.2420
44837W        W87828  17.007  14.162   4.829 -0.1937  0.4703  0.1847
44838W        W87829   0.693  19.849  22.507 -0.2434 -0.0396  0.1355
44839W        W87830  30.393  21.129  22.871 -0.2801 -0.0051 -0.0985
44840W        W87831  34.533  21.337  28.225  0.5100  0.2720  0.2908
44841W        W87832  31.795  12.273  23.476  0.1694  0.0344 -0.1963
44842W        W87833   1.854  18.183  28.500  0.1612  0.2181  0.0837
44843W        W87834  19.734  28.608   0.009  0.4167 -0.0715  0.1860
44844W        W87835  24.390  22.617   5.044 -0.0072  0.2665  0.1961
44845W        W87836  30.471  25.209   8.252  0.0304  0.1483 -0.0060
44846W        W87837  27.310  12.372   9.834 -0.0510 -0.1189 -0.0676
44847W        W87838   2.784  12.973  25.551 -0.1345 -0.0373  0.1338
44848W        W87839  26.900  22.863  23.472  0.0399  0.1343 -0.2234
44849W        W87840   5.401  32.932  21.300  0.1447 -0.0927  0.1497
44850W        W87841   4.319  15.826  10.534 -0.0132 -0.2813 -0.1273
44851W        W87842   4.816  27.416   4.351  0.1920  0.0321  0.0507
44852W        W87843  16.187  17.079   0.892  0.0926 -0.0088 -0.0742
44853W        W87844  26.604  15.784   4.523 -0.1901 -0.3282 -0.0199
44854W        W87845   8.886  12.022  25.209 -0.0302 -0.0711 -0.1274
44855W        W87846  21.720  24.287   2.792  0.1527 -0.0192 -0.0636
44856W        W87847   1.683  10.584   8.390  0.5758  0.3475 -0.1977
44857W        W87848  24.019   7.617   6.439 -0.1281  0.1663  0.0405
44858W        W87849  31.753  30.188   4.859  0.1131  0.0048 -0.0722
44859W        W87850   9.338  21.693   0.309 -0.3901 -0.3847 -0.2352
44860W        W87851  18.686  28.041  25.366 -0.4745  0.2431 -0.3547
44861W        W87852  30.736  14.484   9.823  0.1826  0.3085 -0.1883
44862W        W87853   3.556  16.050  27.324 -0.1631 -0.3662 -0.0114
44863W        W87854  14.127  20.504   8.506  0.2058 -0.0671 -0.1276
44864W        W87855  24.093  18.297   6.318  0.2663  0.3631  0.0441
44865W        W87856  28.470  11.715   9.188  0.1651  0.3791 -0.0407
44866W        W87857  34.498  25.014   2.943  0.1964  0.1712  0.0612
44867W        W87858  13.502  21.002   1.693 -0.0462 -0.3587  0.0956
44868W        W87859  21.343  28.558   8.219  0.0478  0.0878  0.1328
44869W        W87860  29.704  21.074  26.720 -0.3137  0.0402  0.0400
44870W        W87861   6.419   8.959  18.622  0.0295 -0.1219  0.2715
44871W        W87862  23.831  23.171   2.028  0.2539  0.2027 -0.2163
44872W        W87863  24.437  27.976   8.802 -0.3913 -0.4739  0.1454
44873W        W87864   3.747  11.135  24.403  0.0173  0.0443 -0.1028
44874W        W87865  28.475  16.088   6.972 -0.3116 -0.1039 -0.0113
44875W        W87866  14.090   2.609   2.268 -0.1937 -0.1435  0.1271
44876W        W87867  28.873  12.558   2.082  0.0545  0.0689 -0.0766
44877W        W87868  22.994  19.876   5.535  0.0833  0.1368 -0.1591
44878W        W87869  25.758  13.450  18.174  0.0230  0.2119 -0.0508
44879W        W87870   0.947  10.776   4.005  0.1656 -0.1089  0.4085
44880W        W87871   1.875  16.524   2.333 -0.1521 -0.0068 -0.1235
44881W        W87872  24.721  26.557  22.458 -0.3868 -0.0486  0.0707
44882W        W87873   0.933  13.811  22.867  0.1704  0.1600  0.0433
44883W        W87874  16.353   9.308   7.884 -0.0510 -0.1890  0.0767
44884W        W87875  28.025  25.231  25.072  0.2582  0.2273  0.1779
44885W        W87876  30.276  19.046  14.799  0.0011 -0.0491 -0.0878
44886W        W87877  28.384   4.414   6.721 -0.1137  0.0715 -0.2925
44887W        W87878   0.420  24.737  29.117  0.4516  0.0949  0.0356
44888W        W87879  33.179  13.144  10.355  0.1645 -0.2802  0.2021
44889W        W87880  23.885  16.083  25.086 -0.1238  0.1187  0.0253
44890W        W87881   5.364  22.047   0.731 -0.1446 -0.2158 -0.0430
44891W        W87882  24.351  13.440  21.444 -0.1843  0.2411 -0.1389
44892W        W87883   5.657  15.057  25.014  0.1166 -0.0000 -0.0009
44893W        W87884  27.869  29.777  19.961 -0.1542  0.0444  0.2037
44894W        W87885  28.007  14.805   2.883 -0.1157  0.2332 -0.1708
44895W        W87886   7.188  15.519  20.598 -0.3185 -0.2855 -0.1190
44896W        W87887  31.094   0.215   3.342  0.1409  0.0107 -0.5597
44897W        W87888   3.744  24.546   9.679  0.0273 -0.0971 -0.2093
44898W        W87889  32.524  12.100   4.442  0.0979  0.1910 -0.0542
44899W        W87890   2.548   0.469   9.816 -0.1503  0.1320 -0.0404
44900W        W87891   0.762  33.449   5.398 -0.4556 -0.1526  0.1405
44901W        W87892   1.337  22.956  23.733  0.0394  0.0108 -0.2106
44902W        W87893  30.178   9.493   2.778 -0.4062 -0.0951 -0.2222
44903W        W87894   5.691  20.596   0.567  0.3257 -0.0077 -0.1461
44904W        W87895   9.347   2.519  17.830 -0.0588 -0.0489 -0.0243
44905W        W87896   6.315   1.097  20.416 -0.1288  0.2487 -0.1494
44906W        W87897   3.890  13.581   4.529  0.2862  0.1913  0.0121
44907W        W87898  15.283  16.597   9.316 -0.2131 -0.1940 -0.2786
44908W        W87899   3.859   6.157  20.861 -0.4146  0.2438  0.0226
44909W        W87900  32.681   8.201  25.223 -0.2941  0.1718  0.1110
44910W        W87901  10.544   2.764   6.772 -0.0776 -0.0048  0.0090
44911W        W87902   0.247  12.468   8.942 -0.2360  0.0897  0.2284
44912W        W87903  28.255  19.351   7.939  0.0911 -0.0264 -0.1454
44913W        W87904  30.686  27.246   1.696 -0.3437 -0.1587  0.1483
44914W        W87905  14.106  26.606   8.040 -0.0933  0.1118  0.4955
44915W        W87906   7.408  19.235  16.035 -0.1420 -0.4188 -0.1027
44916W        W87907  21.596  27.691  21.974 -0.3548 -0.0986  0.2383
44917W        W87908  17.115  18.069  26.432  0.1497  0.0202 -0.3582
44918W        W87909  31.745  13.134  19.139  0.2346  0.1812  0.0971
44919W        W87910  17.220  14.488  25.705  0.0100  0.1037  0.3518
44920W        W87911  30.940  24.674   0.515 -0.3525  0.2609  0.1234
44921W        W87912  10.114   5.482   4.704  0.2313  0.0732  0.0062
44922W        W87913  30.575  12.953  22.354  0.1294  0.0109 -0.1844
44923W        W87914   3.301  24.861  10.138  0.0717  0.0562 -0.0437
44924W        W87915  17.295   4.434   2.458  0.0809  0.2203 -0.2808
44925W        W87916  26.700  21.684  20.539  0.1434  0.0181 -0.3439
44926W        W87917  32.562  17.019   6.741 -0.0806 -0.2049  0.0227
44927W        W87918   5.874  16.467  24.462 -0.1496 -0.0500  0.0769
44928W        W87919   7.807   6.013  22.397  0.1647 -0.1405  0.0156
44929W        W87920  20.672  11.877  24.879  0.1290 -0.0716 -0.2570
44930W        W87921  22.975   9.675  25.153  0.2328  0.0003 -0.0132
44931W        W87922  26.502   9.620  23.861 -0.1175 -0.2352 -0.3818
44932W        W87923  31.548  26.713   3.717  0.3043 -0.0560 -0.3191
44933W        W87924  27.553  11.061  26.406 -0.3795  0.0824 -0.1244
44934W        W87925  28.449  19.787   2.959  0.1227  0.1591 -0.1275
44935W        W87926  30.579  11.136   7.169 -0.0024 -0.0297  0.2643
44936W        W87927  34.036  27.302  18.248 -0.2988 -0.2429  0.1695
44937W        W87928  25.506  12.445  17.326  0.2489  0.0892  0.1661
44938W        W87929  33.556  14.015   9.102  0.3421 -0.1466  0.0095
44939W        W87930  29.665  18.975  10.531  0.1487 -0.2452  0.0870
44940W        W87931  10.144  31.030   4.600  0.0111  0.6464 -0.0492
44941W        W87932  33.433   8.532  27.103  0.1574 -0.1747  0.0545
44942W        W87933  33.349  31.375  23.587  0.0242  0.1354  0.2325
44943W        W87934  30.447  13.735  19.237 -0.0852  0.0070 -0.0001
44944W        W87935  13.204  23.364  15.757 -0.0399 -0.3118 -0.0021
44945W        W87936  34.223  20.513   7.698  0.1855 -0.2829  0.1602
44946W        W87937  26.508  10.468   9.219  0.2165 -0.0612 -0.2394
44947W        W87938  14.148   8.737  22.230 -0.0314  0.1569 -0.0696
44948W        W87939  30.609  24.961  20.288  0.0013  0.0001 -0.0511
44949W        W87940  22.137  18.110   5.610 -0.0152  0.0668  0.1025
44950W        W87941  17.670  32.784   5.156  0.2454  0.0596  0.1224
44951W        W87942  19.002   9.057  24.209 -0.0839  0.1889 -0.1766
44952W        W87943   5.897   8.948   9.693 -0.1311 -0.3151 -0.2812
44953W        W87944  20.211  21.138   0.673 -0.1636  0.0910 -0.0489
44954W        W87945  19.476  16.978   0.978  0.3651 -0.0746 -0.0804
44955W        W87946  15.053  30.885  13.722 -0.3379 -0.1697  0.2916
44956W        W87947  24.659  18.749   3.006  0.1388 -0.1499  0.0757
44957W        W87948  15.476  31.208  23.830 -0.0169 -0.0926 -0.1095
44958W        W87949  12.006   4.591  17.350 -0.1264  0.0040  0.1708
44959W        W87950  29.018  22.890  24.554 -0.0302  0.2680  0.0959
44960W        W87951  12.107  20.156  23.335  0.0612  0.3602  0.2889
44961W        W87952  22.863   0.703  20.989  0.0283 -0.3177  0.2698
44962W        W87953  31.704  17.768  17.977 -0.3734  0.2410  0.1362
44963W        W87954  24.254  25.539  25.987 -0.1453  0.0031 -0.2089
44964W        W87955   0.616   8.342  27.249 -0.1080 -0.0995 -0.0973
44965W        W87956  19.434  29.745   7.857 -0.0489  0.0360  0.1868
44966W        W87957   5.631   0.815   0.194  0.1614 -0.0670 -0.1949
44967W        W87958   1.664   3.678   8.745  0.0085 -0.1121 -0.1407
44968W        W87959  28.905  32.588  27.033  0.1357  0.2448 -0.2190
44969W        W87960   4.217  14.979   4.350 -0.0798  0.0344 -0.0493
44970W        W87961  12.350  18.372   5.577 -0.0827  0.0708  0.0136
44971W        W87962  10.882  30.329  25.674  0.2592  0.1573  0.0781
44972W        W87963   3.119   1.491   3.791 -0.0687  0.1538  0.2423
44973W        W87964  31.960  24.306   7.730 -0.0606 -0.0826 -0.1637
44974W        W87965   1.697   9.619  10.909 -0.1063  0.3566 -0.1712
44975W        W87966  29.656  18.337   5.858 -0.0831  0.0680 -0.0328
44976W        W87967  15.858  14.852  25.660  0.1487 -0.0880  0.2428
44977W        W87968  33.863   1.855   8.894 -0.0353  0.0274 -0.3507
44978W        W87969  18.664   9.675  21.874  0.2030 -0.1173 -0.3559
44979W        W87970   1.344  18.382   6.329 -0.1326  0.4657 -0.0223
44980W        W87971  25.158  31.554  25.646  0.1857  0.3206 -0.0247
44981W        W87972  31.610  15.858  28.309 -0.2384  0.0731 -0.1059
44982W        W87973  20.745   5.876  23.606  0.5045 -0.0462  0.0656
44983W        W87974  20.199  28.540  19.071 -0.1643  0.1051 -0.1047
44984W        W87975  25.533  14.017   7.854  0.2464 -0.1005  0.1252
44985W        W87976   0.631  10.682   8.526 -0.2251 -0.0158 -0.1127
44986W        W87977   6.558  29.880  27.906 -0.3758 -0.2900 -0.0395
44987W        W87978  13.990  24.991   3.926  0.1132 -0.1234 -0.1331
44988W        W87979  31.264  26.186  28.905 -0.1063  0.1788 -0.0062
44989W        W87980  11.115  29.539   5.728  0.0943 -0.1894 -0.0975
44990W        W87981  24.927  32.003  27.337 -0.2075 -0.0094 -0.1181
44991W        W87982   2.574   2.845  24.786  0.0001 -0.1838 -0.2941
44992W        W87983   3.839  13.352   4.976  0.2700  0.1047  0.0178
44993W        W87984  28.667   1.416   6.028 -0.0328 -0.0009  0.1558
44994W        W87985  26.590  23.357   9.899 -0.3059 -0.2093 -0.0639
44995W        W87986  22.353  21.522   3.513  0.0010 -0.1788  0.2638
44996W        W87987   7.508   3.329  28.370 -0.4074 -0.0156  0.0980
44997W        W87988  28.847  14.081   3.085 -0.1419  0.4627 -0.1723
44998W        W87989   1.159  17.527   6.346 -0.3498  0.0132 -0.1880
44999W        W87990   4.745  27.591  15.247  0.1707 -0.0874  0.0510
45000W        W87991  10.448  29.101   1.743 -0.1102  0.2686 -0.1066
45001W        W87992  19.563  13.409   5.764 -0.0486 -0.3294 -0.1342
45002W        W87993  33.369  17.216  16.809 -0.1600 -0.1128 -0.0065
45003W        W87994  25.517  19.865   0.251  0.0402  0.2196  0.0179
45004W        W87995  30.445  26.988   4.629  0.1656  0.0886 -0.3422
45005W        W87996  16.079  16.308  13.648  0.1643  0.3754  0.0794
45006W        W87997  25.693  33.131   7.365  0.0332  0.1767 -0.1706
45007W        W87998  24.014  18.861  27.306 -0.0996 -0.0425 -0.1208
45008W        W87999  21.588  10.789  19.824 -0.0402  0.0789 -0.0548
45009W        W88000  26.594  25.103   8.623 -0.3990 -0.0557 -0.0251
45010W        W88001  24.363  16.278   5.182  0.0093 -0.2736 -0.3566
45011W        W88002  18.380  13.632   3.296  0.4035 -0.0398 -0.0310
45012W        W88003   4.802   6.164  24.218  0.0449 -0.0790  0.0611
45013W        W88004  15.102  25.176  23.453  0.0478 -0.1668 -0.2112
45014W        W88005  11.720  16.605   9.257  0.1058  0.0617  0.1280
45015W        W88006  15.726  16.428   8.948  0.2994  0.0177 -0.0453
45016W        W88007  28.343  15.211   7.084  0.0828 -0.0918 -0.0850
45017W        W88008  13.051   9.643   2.461  0.0391 -0.0998  0.1865
45018W        W88009  24.097  28.664  16.724 -0.0789 -0.1369  0.0958
45019W        W88010   2.464  20.882  11.400 -0.0538  0.1640  0.0644
45020W        W88011  31.747  19.953   5.870 -0.2464  0.1770 -0.1520
45021W        W88012  26.870  32.441  26.599 -0.0347 -0.3930  0.1257
45022W        W88013  27.749   9.513   7.634  0.1030  0.2820 -0.0306
45023W        W88014  23.712  30.797   7.295 -0.0715  0.3639  0.2961
45024W        W88015  19.667  33.048  26.669 -0.0243 -0.0266 -0.3344
45025W        W88016  24.841  10.312  26.673  0.0623 -0.0328  0.1392
45026W        W88017  11.516  25.987   9.980 -0.2258  0.2112 -0.3219
45027W        W88018  27.118   6.244  28.231  0.4228 -0.0328 -0.0609
45028W        W88019   4.742  34.459   9.800 -0.0836 -0.1283 -0.0178
45029W        W88020   8.526  18.336  23.624 -0.2556  0.0308  0.0689
45030W        W88021  32.199  19.023   1.463  0.3133 -0.1825  0.2181
45031W        W88022  24.662  18.191   4.037  0.0708  0.1140  0.0187
45032W        W88023   5.466   9.765   6.930  0.2034  0.0989 -0.3873
45033W        W88024   3.005   3.973   8.236  0.0976  0.2298 -0.1363
45034W        W88025  26.737   0.348  17.903 -0.1655 -0.0388 -0.0336
45035W        W88026   2.101  22.425  21.043 -0.0519  0.0728  0.1667
45036W        W88027  23.952  21.883  25.140  0.0419 -0.5396  0.0199
45037W        W88028  21.931  25.401  22.280  0.1448 -0.0573 -0.3779
45038W        W88029  26.961  18.511  26.198  0.1290  0.2536  0.3443
45039W        W88030  25.772  18.849   2.371  0.1426 -0.2646  0.0376
45040W        W88031  24.686  21.142   7.652  0.2966 -0.2051  0.1068
45041W        W88032  20.317  27.835  21.355 -0.1204 -0.2453 -0.1024
45042W        W88033  27.177  29.563  23.252 -0.0473  0.0575 -0.1411
45043W        W88034   9.922   5.400   6.133 -0.0136  0.3073  0.0712
45044W        W88035  32.445  29.333  25.588  0.0232 -0.5438 -0.2100
45045W        W88036  23.017  18.262   6.555 -0.1412 -0.0376 -0.0643
45046W        W88037  18.324  18.491   7.150  0.2981 -0.0727 -0.0598
45047W        W88038   3.235  17.001   6.604  0.3552 -0.1802 -0.0824
45048W        W88039  13.935  12.009   2.904 -0.0918  0.0013 -0.1909
45049W        W88040  27.379  25.047  14.149 -0.1261  0.2718  0.0144
45050W        W88041  30.155  32.288  13.316  0.1596  0.2517  0.2434
45051W        W88042  28.164   9.139  17.522 -0.0925  0.0096  0.0671
45052W        W88043  27.372  20.696   8.314  0.1560  0.0922 -0.0059
45053W        W88044  34.550  20.419   5.471 -0.0351 -0.2489 -0.1118
45054W        W88045   7.881  29.201   4.398 -0.0404 -0.0285 -0.2152
45055W        W88046  21.486   7.441  26.516 -0.2540  0.0253  0.3330
45056W        W88047   3.903  32.397   0.299  0.1146  0.0040  0.1196
45057W        W88048  31.979  21.342   3.011  0.3568 -0.1665  0.0426
45058W        W88049  24.085  33.029  23.849  0.0812 -0.0457 -0.0904
45059W        W88050  28.330   0.115  19.531 -0.0003 -0.0799 -0.1355
45060W        W88051  28.368  17.671  17.238 -0.1949 -0.2355 -0.0060
45061W        W88052   2.195   0.910  27.514 -0.0031 -0.0896  0.2212
45062W        W88053  27.110  18.478  14.471  0.0896 -0.0082  0.1034
45063W        W88054   2.557  22.618  23.315 -0.2600 -0.3492 -0.2457
45064W        W88055   6.980  29.156  28.171  0.1499 -0.2583 -0.0288
45065W        W88056  29.280  12.568  26.649 -0.2778 -0.4740 -0.1420
45066W        W88057  18.755  22.141   6.527 -0.0374  0.0006 -0.0953
45067W        W88058  32.872  17.475   4.903  0.0713 -0.0976 -0.0102
45068W        W88059   4.231  15.721   0.247 -0.1084 -0.0417 -0.1448
45069W        W88060  12.575  17.005   2.413 -0.1370 -0.1810  0.0754
45070W        W88061  24.236   3.039  22.181 -0.3970  0.2739  0.0177
45071W        W88062  31.822   4.289  27.753  0.2093 -0.0049  0.0784
45072W        W88063   6.203   5.726   7.099  0.2550  0.2947 -0.0688
45073W        W88064   6.171  19.003  20.989  0.1237 -0.0790 -0.1488
45074W        W88065   0.859  19.972   9.300  0.2065  0.0308  0.1321
45075W        W88066  10.569  24.248  14.836  0.0340 -0.0233  0.0692
45076W        W88067   3.328  20.555  27.112 -0.1710  0.1628  0.0036
45077W        W88068  23.677  18.366  24.014 -0.1927  0.2845  0.1532
45078W        W88069  32.137  32.159  25.652  0.0986 -0.1726  0.0534
45079W        W88070   7.491   6.102   6.037  0.0589  0.1089  0.0961
45080W        W88071  34.597   9.306  19.078  0.3805  0.0568 -0.0574
45081W        W88072  15.356  15.875   2.985 -0.2461 -0.1700 -0.0817
45082W        W88073  21.266  25.476  16.827  0.0993 -0.0653  0.2659
45083W        W88074   7.099  10.229   2.182 -0.2925 -0.2658 -0.0848
45084W        W88075  24.719  21.848  27.237 -0.2306  0.0248 -0.0493
45085W        W88076  20.957  19.107  25.338  0.0722 -0.1176  0.1144
45086W        W88077  17.662  17.929  23.244 -0.3471 -0.3123  0.2023
45087W        W88078  18.149   4.849   9.028  0.1158  0.2367 -0.2805
45088W        W88079   0.045  29.087   3.110 -0.0240  0.0364  0.1730
45089W        W88080   3.596  18.519   5.717  0.2097 -0.1670 -0.2203
45090W        W88081   5.388  17.302   6.059 -0.2960  0.0855  0.3035
45091W        W88082  30.543  21.381   5.389  0.1810 -0.1160  0.1738
45092W        W88083  30.612   8.164   0.898 -0.1946 -0.1417 -0.0254
45093W        W88084  34.564  14.411  10.065  0.0700 -0.1159  0.0538
45094W        W88085   5.520  15.434  17.176  0.3369 -0.2684  0.0140
45095W        W88086   8.090  23.337   6.899  0.0125 -0.1500  0.2148
45096W        W88087  24.196  17.562  28.597  0.1645  0.0240 -0.0488
45097W        W88088  11.278   5.066  28.860  0.0890  0.0538  0.1495
45098W        W88089  22.745  14.022  22.011  0.3628 -0.0170  0.0150
45099W        W88090  26.847  19.436   8.282  0.2133  0.1715 -0.2627
45100W        W88091  27.969   7.180   9.760  0.1515  0.3073 -0.0419
45101W        W88092  31.614  10.363  21.843 -0.2394 -0.1644  0.3850
45102W        W88093   9.564  18.911  21.565 -0.0950 -0.0393 -0.1125
45103W        W88094   6.835   2.420   1.198 -0.1048 -0.1174 -0.1519
45104W        W88095  24.503  26.065   1.303 -0.2723 -0.0299  0.0869
45105W        W88096   5.467  16.620   5.377  0.3580 -0.0986  0.0759
45106W        W88097  26.869  20.047   1.773 -0.2298 -0.2890 -0.0423
45107W        W88098  29.896  32.850   0.813  0.1282 -0.3364 -0.0234
45108W        W88099  16.053  24.853  15.238  0.1775 -0.4152  0.2504
45109W        W88100  12.323   3.354  29.171  0.1521  0.2756  0.1002
45110W        W88101  16.306  33.480  23.497 -0.0071  0.0713 -0.0587
45111W        W88102   6.604  17.452  27.906  0.0837 -0.2390  0.2103
45112W        W88103   0.091  12.817  25.864  0.1649 -0.0445  0.1024
45113W        W88104   9.223  20.730   3.956  0.0493 -0.0553 -0.0789
45114W        W88105  13.093  15.198   3.553 -0.4035 -0.1482  0.1405
45115W        W88106  17.211  25.280   4.759  0.1202  0.1333 -0.2123
45116W        W88107  28.172  24.354   6.968 -0.2070 -0.0207  0.0253
45117W        W88108  32.492  16.278  28.934 -0.0240 -0.1063  0.0223
45118W        W88109  23.486   7.211  21.403  0.2033 -0.0192  0.1965
45119W        W88110  17.178  21.367   9.447  0.2040 -0.1041  0.3872
45120W        W88111  32.203  23.875  24.826  0.1446 -0.1601 -0.0506
45121W        W88112  11.110   9.257  25.447  0.0236  0.1382 -0.0873
45122W        W88113  32.030   4.427  21.565  0.1571  0.1542  0.1998
45123W        W88114  24.763   2.884   5.609  0.2888  0.1011  0.4476
45124W        W88115   4.704   5.471   4.517  0.0263 -0.0756 -0.0914
45125W        W88116   9.820  13.997   4.574 -0.0555 -0.0994  0.0868
45126W        W88117  31.318  23.647  23.411  0.0659  0.7436 -0.0113
45127W        W88118  33.602   4.432   0.229 -0.1253  0.1761 -0.1006
45128W        W88119   4.786  24.573  29.059 -0.0535  0.0630 -0.1623
45129W        W88120  25.447   9.340   1.399 -0.0447 -0.1454  0.0162
45130W        W88121  14.859  21.964  28.369 -0.1625  0.2172  0.1600
45131W        W88122  26.999  16.868   1.392 -0.1195 -0.1905  0.0728
45132W        W88123  28.310   7.750   8.356  0.1412  0.1215 -0.0089
45133W        W88124  24.569  29.823   1.786  0.2268 -0.1621  0.2301
45134W        W88125  13.520  18.290   2.857 -0.1106  0.1629 -0.1766
45135W        W88126  33.090   6.714   4.006 -0.2685 -0.2937  0.0417
45136W        W88127   6.926  31.956  29.103 -0.1239 -0.4868  0.1703
45137W        W88128  19.109  20.665   5.554 -0.2826  0.0804  0.0783
45138W        W88129  24.559   7.099  22.940  0.3764  0.4245 -0.3095
45139W        W88130  19.877   1.498  22.162  0.2920 -0.0381  0.0578
45140W        W88131   9.534   6.234  26.291 -0.0844 -0.0122 -0.2498
45141W        W88132  24.022  16.903  29.245  0.2308 -0.0659 -0.0979
45142W        W88133  25.129  20.790   7.397 -0.2903 -0.3991 -0.1333
45143W        W88134  11.874  29.994   8.337 -0.0288  0.1547  0.0458
45144W        W88135   2.089  24.588   3.076  0.2328  0.0414 -0.1913
45145W        W88136  27.708   4.701  24.752  0.1462  0.0433 -0.0306
45146W        W88137   4.928  25.529   0.537 -0.1919  0.1044 -0.2220
45147W        W88138  30.808  22.975  21.746 -0.0894  0.2905 -0.0195
45148W        W88139  16.920   7.736  15.876  0.2433  0.2644 -0.0729
45149W        W88140  33.547  16.913  24.487 -0.3735  0.0515 -0.2610
45150W        W88141  26.945  20.618  25.308  0.0221 -0.3318 -0.0905
45151W        W88142  28.486  15.204   5.380  0.1709 -0.1581 -0.0204
45152W        W88143  18.950  20.705   2.358 -0.0320  0.1541  0.0938
45153W        W88144  25.838  14.476   0.788 -0.1569 -0.2626  0.1608
45154W        W88145  30.855  16.553   9.641  0.1193  0.1047  0.0399
45155W        W88146  31.712  24.359  26.213 -0.0928  0.0275  0.1055
45156W        W88147  10.343   7.687   4.283  0.2575  0.3065  0.1098
45157W        W88148   4.007  10.230   9.138 -0.0807  0.3162  0.0954
45158W        W88149  21.521  24.143  19.389  0.0768  0.1444  0.0293
45159W        W88150   0.828   8.147   7.353 -0.3821 -0.2641  0.4104
45160W        W88151  33.955  31.319   8.026  0.1783  0.0075 -0.1640
45161W        W88152  14.647  14.342  26.669  0.2075  0.0021  0.2182
45162W        W88153   3.150  19.364  23.002 -0.0439 -0.0209  0.2967
45163W        W88154  27.133  23.397  28.412 -0.0416  0.2661 -0.0743
45164W        W88155  29.376   1.455   4.411  0.0995  0.3199 -0.4945
45165W        W88156  34.428  11.399  10.617 -0.3090  0.1648 -0.2321
45166W        W88157  33.205  13.907   9.632  0.4069 -0.0748 -0.0464
45167W        W88158  13.044  13.095  24.311 -0.0063  0.1033  0.0179
45168W        W88159  16.725  26.739   3.464 -0.1197 -0.4274  0.1690
45169W        W88160   1.218  28.620  18.937  0.2325  0.1371 -0.1068
45170W        W88161  28.065  31.186   5.679 -0.0113  0.1460  0.2064
45171W        W88162  30.714  17.115  27.340 -0.3240 -0.3471  0.3465
45172W        W88163   9.586  24.038  28.496  0.1251  0.0186 -0.2708
45173W        W88164   7.985  11.050  27.111 -0.0030  0.0174  0.0477
45174W        W88165  25.232  17.214   8.570  0.0952 -0.0334 -0.0079
45175W        W88166   0.998  14.181  11.070  0.2638  0.1720  0.1288
45176W        W88167  25.026  20.885   6.103 -0.0886  0.0966 -0.0917
45177W        W88168  15.245   3.189   7.128 -0.2929 -0.1780  0.2012
45178W        W88169  21.642   8.250   8.434  0.0519  0.1739 -0.0410
45179W        W88170  33.766  13.346  22.924 -0.1921  0.3148 -0.1819
45180W        W88171  22.093  22.004  27.676  0.2032 -0.1732 -0.1542
45181W        W88172   5.843   1.996  27.880 -0.3638  0.0928 -0.2775
45182W        W88173  27.959   7.216   5.352  0.1522  0.0676 -0.1085
45183W        W88174  23.177  17.251   2.597 -0.0918 -0.2715 -0.2002
45184W        W88175  29.159  18.121   6.722 -0.0461  0.0247  0.0662
45185W        W88176  34.464  10.586   5.682 -0.0743 -0.0773 -0.0465
45186W        W88177   3.993  15.446  24.573 -0.2994  0.1239  0.0658
45187W        W88178  23.083   7.361   7.266 -0.0751  0.0057 -0.0741
45188W        W88179  21.194  21.550   0.411  0.1822 -0.3524  0.0509
45189W        W88180  23.471  19.247   4.218  0.2579 -0.1131 -0.0524
45190W        W88181   4.420  16.039  27.378 -0.0549 -0.0529 -0.1958
45191W        W88182   9.664  17.767  26.787  0.1621  0.0656  0.0240
45192W        W88183  34.727   9.540  11.348 -0.1211 -0.0284 -0.2790
45193W        W88184  30.439  15.349  28.734 -0.2736  0.0183 -0.0062
45194W        W88185  21.377   7.859  28.026  0.5546 -0.1423  0.1293
45195W        W88186  21.114  20.218  22.349 -0.1560  0.1789 -0.0805
45196W        W88187   0.902  15.565   7.148 -0.0597 -0.1407  0.0865
45197W        W88188  16.597  26.959  10.077 -0.4023 -0.0029 -0.4070
45198W        W88189   1.469  29.119   4.285 -0.1488  0.3793  0.3398
45199W        W88190   3.256   8.398   1.876  0.1199 -0.0025  0.2494
45200W        W88191  19.372  14.522  23.504  0.1907 -0.1466 -0.0222
45201W        W88192   2.934   4.144  10.727 -0.2000 -0.0819 -0.2088
45202W        W88193  16.875  22.142   9.594 -0.2320  0.2935 -0.0470
45203W        W88194   0.212  24.725   7.615  0.0033 -0.0986  0.1678
45204W        W88195  10.750  12.585   4.411  0.0107  0.0868 -0.4733
45205W        W88196  32.855  27.243  17.245  0.0990  0.1302  0.0896
45206W        W88197  31.702  32.160   8.642  0.1644  0.3153 -0.1413
45207W        W88198  32.517  14.981   3.455 -0.3095 -0.1143  0.0921
45208W        W88199   2.546  21.294   7.145  0.1495 -0.1121 -0.0476
45209W        W88200  34.619  23.552   7.723  0.2152 -0.1480  0.0903
45210W        W88201  31.510  13.808   8.677 -0.2826 -0.1512 -0.1009
45211W        W88202  16.306  31.304  28.199 -0.0410 -0.0354 -0.1599
45212W        W88203  20.663  15.341  28.495  0.2172  0.2226  0.1750
45213W        W88204  34.367  33.403  27.016  0.0274 -0.0070  0.0120
45214W        W88205   2.331  23.815   8.760 -0.0404  0.1297  0.1265
45215W        W88206   1.920  21.922   3.914 -0.1920  0.2442  0.1816
45216W        W88207  15.993  12.673  22.824 -0.1922  0.0913 -0.3313
45217W        W88208   5.072  16.956   4.394 -0.2376  0.1440  0.2065
45218W        W88209  32.519  13.167  10.876  0.2592 -0.2113 -0.0128
45219W        W88210  33.734  15.552   8.812  0.0503  0.0014 -0.1111
45220W        W88211  28.003  15.350   5.344 -0.2498 -0.1168 -0.5152
45221W        W88212  22.462  23.919  25.624  0.0418  0.2566  0.0333
45222W        W88213  26.730  13.995   1.387  0.2605  0.1894 -0.0678
45223W        W88214   4.391   6.401  10.896  0.0653  0.0548 -0.3138
45224W        W88215  15.742  23.852  24.704 -0.1212  0.1267 -0.0659
45225W        W88216  13.727  18.150  26.075  0.1187 -0.1745 -0.2832
45226W        W88217   1.625  25.759  27.363 -0.1173  0.4469 -0.1021
45227W        W88218  29.564  20.312  22.088 -0.1049 -0.0198  0.0290
45228W        W88219   2.484  12.138   1.370 -0.2339  0.1435 -0.2133
45229W        W88220  31.744  16.517  27.317 -0.3830  0.1601 -0.1456
45230W        W88221  22.148   0.329  28.343  0.2928 -0.2622 -0.1459
45231W        W88222  33.438  24.238  20.468 -0.0874  0.0612 -0.0493
45232W        W88223  19.741  23.796   4.869 -0.1864  0.4971 -0.2892
45233W        W88224  22.896   9.369   3.251 -0.0036  0.2731  0.0070
45234W        W88225  18.065  14.772  27.988  0.1600  0.2630 -0.0064
45235W        W88226  33.383  34.702   1.859 -0.1120  0.0820 -0.0447
45236W        W88227  28.283  17.229   9.396 -0.0316  0.0986  0.0949
45237W        W88228  29.878  26.641   7.155  0.1931  0.0268  0.3629
45238W        W88229  13.098   6.808   7.551  0.0097  0.0137 -0.0050
45239W        W88230  25.120  22.140  23.229 -0.0612  0.3268 -0.4217
45240W        W88231  19.948  17.285  13.822  0.0121  0.0382 -0.0446
45241W        W88232  30.256   9.917  19.165  0.0997  0.2051 -0.1886
45242W        W88233   2.615   8.022   9.280  0.2217 -0.1347 -0.0789
45243W        W88234   7.734  17.718   4.384 -0.2016 -0.0720 -0.0211
45244W        W88235   9.038  19.567  10.926 -0.0513 -0.2246 -0.1758
45245W        W88236  24.935  18.023  29.217  0.0437  0.4056 -0.1752
45246W        W88237   8.369  28.874   0.568 -0.0514  0.2973 -0.2988
45247W        W88238  29.631  30.417   2.955  0.2512 -0.1006  0.0698
45248W        W88239  13.998  16.289  24.018 -0.1228 -0.0350  0.0456
45249W        W88240   4.006   9.536   5.039  0.1400 -0.0187  0.3056
45250W        W88241  13.197  15.196   6.803  0.0082 -0.0955 -0.0074
45251W        W88242  20.478  30.089  27.269  0.1268  0.2833 -0.4351
45252W        W88243  30.568  20.355  28.133 -0.0835  0.1833  0.0632
45253W        W88244  13.704  34.372   5.468 -0.2665  0.1159  0.1549
45254W        W88245  15.433  23.549   1.160 -0.0566  0.3848 -0.1471
45255W        W88246   5.634   4.136   1.869  0.2213 -0.1362 -0.0272
45256W        W88247  34.395  25.900   1.428  0.1465 -0.1561  0.2779
45257W        W88248   3.065  25.635  24.827  0.1560 -0.0456 -0.0135
45258W        W88249  21.479   7.753  23.485 -0.0857  0.2113  0.2097
45259W        W88250  14.797   6.400   5.791  0.1684  0.4099 -0.1963
45260W        W88251   4.163   7.199   9.640 -0.0142 -0.0949 -0.1282
45261W        W88252  34.397  27.904   3.977 -0.1070  0.2841  0.1337
45262W        W88253  26.695  30.225  25.639  0.0218 -0.0077  0.2292
45263W        W88254   2.570  21.598   2.720 -0.4081  0.0005 -0.2171
45264W        W88255   3.767  23.133   5.562  0.0613 -0.0339  0.3496
45265W        W88256  32.350  32.582  27.869 -0.1830  0.1027  0.2497
45266W        W88257  30.462  15.338   8.836  0.0323  0.0196 -0.2269
45267W        W88258  29.729  24.809   3.432  0.1430  0.1486  0.1273
45268W        W88259   0.369  22.163   7.993  0.0324 -0.2228  0.2071
45269W        W88260  11.542  13.671  23.189 -0.3039  0.0185  0.2589
45270W        W88261  17.057  19.799  28.079 -0.1303 -0.2006  0.3661
45271W        W88262  10.822  20.608  17.137  0.0705  0.2816  0.2571
45272W        W88263   7.685  31.733   3.033 -0.2286 -0.0519  0.1665
45273W        W88264  31.015  27.409  17.202 -0.1613  0.0839 -0.3024
45274W        W88265  23.211  21.754   3.562  0.1395 -0.0584  0.2039
45275W        W88266  12.405  31.960   1.712  0.2275  0.2443  0.2165
45276W        W88267  21.313  20.606  27.608 -0.3387 -0.0884  0.1665
45277W        W88268   0.442  18.133  10.739  0.0741 -0.1421  0.3394
45278W        W88269  19.315  21.589  24.976 -0.1422  0.0734  0.0366
45279W        W88270  31.467   8.667   3.708 -0.2944 -0.0736  0.2276
45280W        W88271  33.413  20.066   1.757 -0.1050 -0.1826  0.0172
45281W        W88272  32.108  27.036  29.087 -0.0066  0.0295 -0.0328
45282W        W88273   9.264  30.409   6.373  0.1513  0.1329  0.0629
45283W        W88274   2.410  21.989  28.562 -0.2367  0.1971  0.3813
45284W        W88275   1.778   0.985   9.433 -0.0481 -0.0675  0.2629
45285W        W88276  30.264   9.940   4.800  0.1283  0.0879  0.1228
45286W        W88277   5.496   3.545   9.997  0.0342  0.0296  0.2444
45287W        W88278  18.744  24.107   7.346 -0.2970 -0.0607  0.0483
45288W        W88279   2.486  21.403  28.803 -0.2393  0.1987  0.0289
45289W        W88280  10.505  10.888  26.579  0.0908 -0.2531  0.1646
45290W        W88281  24.779  12.302   8.314  0.2326  0.0628  0.0370
45291W        W88282  21.800   7.976  28.362 -0.0894  0.2133 -0.3381
45292W        W88283  23.342   2.380  16.921  0.0586  0.0021 -0.0482
45293W        W88284  29.106  10.893  10.246 -0.2328  0.0321  0.1296
45294W        W88285  23.061  24.159   4.870 -0.1172 -0.0776  0.1667
45295W        W88286  32.564  25.538   8.554 -0.3814 -0.0559  0.0539
45296W        W88287  33.095  18.911  27.187 -0.1424 -0.1849  0.3827
45297W        W88288  23.818  34.788   7.842  0.1311 -0.1923 -0.0532
45298W        W88289  31.685  22.429   6.677  0.3524  0.2359 -0.1426
45299W        W88290   0.713   8.049   6.879 -0.0703  0.1461 -0.1745
45300W        W88291  31.151  25.768   5.519  0.1613 -0.1215 -0.0331
45301W        W88292  11.864  15.259   6.276 -0.0733  0.1396 -0.1872
45302W        W88293  10.142  23.260   5.316  0.2577  0.2804  0.1076
45303W        W88294  19.973  15.236  20.604 -0.0171 -0.0556  0.0523
45304W        W88295   3.107  20.447  24.073 -0.2220  0.0421 -0.0939
45305W        W88296   3.636   0.004   4.700 -0.1191  0.0921  0.1689
45306W        W88297  30.778  10.214   6.147  0.1603 -0.1580  0.1227
45307W        W88298  32.532  15.808  27.829  0.0438  0.0193 -0.0049
45308W        W88299  30.682  28.035   1.699  0.3437  0.2338 -0.2041
45309W        W88300  27.236  26.576  22.762 -0.0592 -0.0274  0.2719
45310W        W88301   4.940  17.375   0.232 -0.1512  0.2234  0.1479
45311W        W88302   8.112   0.793  23.910  0.0561 -0.1003 -0.0268
45312W        W88303  34.728   8.770  10.198 -0.3775  0.0812 -0.0887
45313W        W88304  32.761  19.743   5.092  0.2001  0.0243 -0.3289
45314W        W88305   9.311  26.396  20.448  0.1120  0.0288  0.2635
45315W        W88306  23.182  27.274   2.527 -0.0681  0.2419 -0.1969
45316W        W88307   8.820  13.229  25.828 -0.0607 -0.1749  0.1708
45317W        W88308  33.640   6.303   1.697 -0.2558 -0.3437  0.2476
45318W        W88309   4.274   1.807  19.957  0.2067 -0.0231  0.1694
45319W        W88310   0.684  20.910   0.034  0.1240  0.3765  0.2272
45320W        W88311  21.055  15.363   8.852 -0.1031  0.1551  0.2514
45321W        W88312  24.710  10.562   6.215  0.2662  0.2029 -0.1333
45322W        W88313  32.636  18.151  25.282 -0.0292 -0.0549 -0.2215
45323W        W88314  17.554  13.955  19.872  0.2255 -0.2906  0.0566
45324W        W88315   3.249  33.526   9.144 -0.1833 -0.3288 -0.1364
45325W        W88316  34.588  19.311   7.858  0.1161 -0.2217 -0.3672
45326W        W88317  24.575   8.262  27.185 -0.0565  0.1553 -0.1192
45327W        W88318  32.187  14.564  26.491 -0.0253  0.0251 -0.0361
45328W        W88319   1.261  17.595   1.193 -0.0393  0.0319  0.3076
45329W        W88320  20.339   8.835   1.497  0.2228  0.0469 -0.0764
45330W        W88321  28.860   9.908   0.908 -0.4178  0.0574  0.2990
45331W        W88322  23.665  18.191  25.879  0.2261  0.2973  0.0223
45332W        W88323   6.832  20.037  15.364 -0.1207  0.2895 -0.0774
45333W        W88324   1.318  12.523   9.049 -0.1813  0.0020 -0.1299
45334W        W88325   8.070  14.235   0.355 -0.0885  0.0804  0.0219
45335W        W88326   2.203  16.331   6.029  0.2982  0.4085 -0.0988
45336W        W88327   4.559   8.372   4.673  0.0077  0.1121  0.2818
45337W        W88328  26.102  11.492   0.424 -0.0810 -0.0881 -0.1333
45338W        W88329   2.367  25.053   5.104 -0.1773  0.1490 -0.0770
45339W        W88330  34.140  19.306   8.281 -0.1919  0.2837 -0.1734
45340W        W88331  26.287   8.997   5.944 -0.0396  0.0466  0.2009
45341W        W88332  27.721  17.026   3.121  0.0592 -0.0513 -0.3122
45342W        W88333   0.619  18.653   4.937  0.0206  0.1137 -0.0811
45343W        W88334   4.346   8.339  16.078  0.1525 -0.1483 -0.2271
45344W        W88335  33.137  25.270  16.233 -0.0554  0.0726  0.2255
45345W        W88336   3.887  15.340   4.234 -0.0252 -0.1137  0.1618
45346W        W88337   2.316  12.628  24.610  0.0212  0.1211  0.1388
45347W        W88338  33.493  15.715   5.448 -0.1784 -0.2263  0.2725
45348W        W88339  26.712  12.896  15.830  0.0776  0.1438  0.0151
45349W        W88340  22.792   2.218   9.368  0.0885  0.0260  0.1013
45350W        W88341   9.764  14.637   2.112  0.2908 -0.3890  0.0802
45351W        W88342  28.273  19.776   7.172 -0.3524  0.2080 -0.0651
45352W        W88343  10.088   6.230  16.361 -0.0704  0.2373  0.2446
45353W        W88344  21.588  15.017   3.265 -0.1020  0.4478 -0.0731
45354W        W88345  21.485  19.721   3.508 -0.2643  0.0142  0.0918
45355W        W88346   6.024  22.262   8.876 -0.3266  0.1403  0.6045
45356W        W88347  31.828   5.919  23.615 -0.1430  0.0832 -0.2153
45357W        W88348   9.323  15.740   3.789  0.2359  0.1504  0.0126
45358W        W88349  10.533  19.025  15.157  0.2090 -0.2461 -0.0398
45359W        W88350  23.840  17.621   3.791  0.0277 -0.1225 -0.1227
45360W        W88351  23.685  11.519   7.325 -0.0441 -0.0867 -0.1708
45361W        W88352  33.746  19.278   6.246 -0.0742 -0.0178  0.2241
45362W        W88353  17.162   3.236   9.242  0.1739 -0.1410  0.2651
45363W        W88354   2.076   2.199  22.520 -0.0446  0.1171  0.1399
45364W        W88355  31.985  30.223   0.060 -0.2657  0.0005 -0.0083
45365W        W88356   2.987  29.107   2.280  0.0382 -0.4063  0.0161
45366W        W88357   7.647  13.901   2.542 -0.0908  0.0801  0.0254
45367W        W88358  18.404  10.515  27.283  0.0023 -0.1674 -0.0340
45368W        W88359  10.671  28.011  28.774  0.1568  0.0462  0.3364
45369W        W88360  33.792  26.557   6.755  0.1412 -0.1774 -0.1808
45370W        W88361   8.210  26.102   2.631 -0.0601 -0.1507  0.1797
45371W        W88362  20.301  20.987  26.922  0.1674  0.0305  0.0989
45372W        W88363  13.647   8.063   8.400 -0.3786  0.0501 -0.0293
45373W        W88364   7.303  17.594   9.283 -0.0136  0.0691 -0.0952
45374W        W88365  33.429   6.788   8.838  0.0999 -0.2252 -0.1694
45375W        W88366   1.478   2.414  21.178 -0.3796 -0.2331  0.0136
45376W        W88367  20.297  24.691   2.435  0.4766  0.0041 -0.0669
45377W        W88368   8.732  10.247   3.521  0.0651 -0.0429  0.2777
45378W        W88369  31.539  32.068  20.238  0.1775  0.4499 -0.1708
45379W        W88370  16.350  13.890   8.626 -0.3248 -0.2161  0.0519
45380W        W88371  30.729   8.277  22.889 -0.2999 -0.1134  0.2464
45381W        W88372  13.802  12.849  19.923 -0.0773 -0.3421 -0.0218
45382W        W88373  33.129  13.388   4.918  0.0816 -0.1956  0.1040
45383W        W88374  11.778  10.200  10.304 -0.0403  0.0722 -0.0245
45384W        W88375  23.108  16.023   4.987  0.0619  0.3320 -0.1567
45385W        W88376  26.315  21.212  20.639 -0.0316  0.0191 -0.3268
45386W        W88377   6.718  11.123   0.737 -0.2637  0.0054  0.0046
45387W        W88378   0.429   4.691   2.544 -0.2124  0.0535 -0.0072
45388W        W88379  13.584  13.736   0.834 -0.0027 -0.0704 -0.1318
45389W        W88380  33.982   7.611  11.039 -0.1416  0.1607 -0.0217
45390W        W88381  33.291   8.967  27.262  0.4028 -0.2705 -0.3368
45391W        W88382  33.037  18.135  23.440  0.2010  0.1873 -0.1027
45392W        W88383   3.875   9.557   6.702  0.1598  0.1845  0.1668
45393W        W88384   6.869  16.795   9.132  0.0458  0.2947 -0.0902
45394W        W88385  23.255  22.424  26.684 -0.0391  0.0675  0.0765
45395W        W88386  12.303  10.974   7.328  0.1509 -0.3581 -0.2595
45396W        W88387  25.891  13.292   3.087  0.0900  0.4823  0.1272
45397W        W88388  24.535  16.788   8.770 -0.0777  0.1908 -0.3942
45398W        W88389  24.031   0.812   2.265 -0.2310  0.3974  0.3027
45399W        W88390  26.311   9.028  18.055  0.3614 -0.1642  0.1525
45400W        W88391  24.860   5.737   0.272 -0.1523 -0.4238 -0.3420
45401W        W88392  24.336  12.430  24.073 -0.2510  0.1618 -0.0343
45402W        W88393   1.136  25.109   9.117  0.0948  0.1067 -0.0194
45403W        W88394   3.267   6.194   9.015  0.0635  0.0125  0.1369
45404W        W88395  15.236  30.064  22.031  0.0865  0.0183 -0.2692
45405W        W88396  33.554  28.154   9.726  0.1208  0.1124 -0.0669
45406W        W88397  25.324  16.468   9.538  0.0494 -0.1768 -0.0654
45407W        W88398  32.817  11.427   7.699  0.0789  0.2139  0.1808
45408W        W88399  28.638  17.358   6.108  0.2348  0.2223  0.2827
45409W        W88400  26.471  27.047   9.330  0.3287 -0.1891 -0.0798
45410W        W88401  32.073  12.874   9.407  0.0456  0.1107  0.0041
45411W        W88402  28.916  19.498  10.127  0.0137  0.5321  0.1363
45412W        W88403  13.928  13.623   7.826  0.0750  0.1121  0.0193
45413W        W88404  16.635  16.283   2.954  0.0172 -0.3014  0.2056
45414W        W88405   1.879   6.335  23.508  0.3522 -0.3377 -0.0243
45415W        W88406   0.596  29.420  17.694  0.0044  0.2140  0.0398
45416W        W88407  18.926  11.544   0.441  0.0663 -0.0785 -0.1834
45417W        W88408   2.895   3.452  18.304  0.2907 -0.2210 -0.1279
45418W        W88409   5.707   5.750   6.844  0.1219  0.0574  0.0482
45419W        W88410  31.761  21.777   7.800  0.0239 -0.2351 -0.0121
45420W        W88411  31.163  17.409  22.712  0.4144 -0.1120  0.0652
45421W        W88412   9.978  16.868   5.742 -0.3085 -0.0883 -0.2372
45422W        W88413   9.610  33.164   4.476 -0.3035 -0.2458 -0.0076
45423W        W88414  23.052   9.502   1.228 -0.4055 -0.1054 -0.0908
45424W        W88415  22.506   6.748  10.039  0.1187  0.0047  0.2447
45425W        W88416  16.307  25.724   4.588  0.5809  0.2370  0.3387
45426W        W88417   3.401   4.603   9.413  0.1258 -0.0314  0.2013
45427W        W88418   4.482  19.309  22.253 -0.1788 -0.0136  0.0613
45428W        W88419  26.642   1.855  20.569 -0.2003  0.0368 -0.0834
45429W        W88420  23.635  13.856   0.877 -0.2305 -0.2865 -0.1830
45430W        W88421  19.805  22.246   6.057  0.0905 -0.1617  0.0907
45431W        W88422  20.359  28.607  26.331  0.3041  0.2050 -0.1516
45432W        W88423   2.219   9.428   7.529 -0.1385  0.1771  0.0498
45433W        W88424  14.604   3.726   4.451  0.0113 -0.0202  0.1359
45434W        W88425   0.931  24.272  16.424  0.1485 -0.1116 -0.1107
45435W        W88426   4.110  22.623  23.679  0.1732 -0.2089 -0.2706
45436W        W88427  32.963  10.753  24.576 -0.2028  0.1572  0.1147
45437W        W88428  24.061  14.193   7.649  0.2712  0.0850 -0.0596
45438W        W88429  31.517  13.115   7.921 -0.4865  0.1994 -0.0571
45439W        W88430  27.757  21.417   9.949  0.2825 -0.2253  0.1681
45440W        W88431   9.265  31.602   3.602 -0.0001  0.0340 -0.0158
45441W        W88432  29.457  16.441   1.684  0.2274 -0.0988 -0.0334
45442W        W88433  10.469  20.684  28.466  0.1183 -0.2027 -0.0744
45443W        W88434  34.455  15.973  27.404 -0.3010  0.1616 -0.0753
45444W        W88435   7.305  12.326   9.074 -0.3580  0.1996  0.0598
45445W        W88436  14.851  32.901  27.294 -0.0015 -0.2016 -0.1011
45446W        W88437  26.412  30.213   2.834 -0.2125  0.2518 -0.0962
45447W        W88438  12.836  19.861  27.913  0.0019  0.1059  0.2549
45448W        W88439  32.082   8.106   3.297 -0.0190  0.3009 -0.2080
45449W        W88440  25.572  20.875   8.441 -0.0455  0.3564  0.0167
45450W        W88441  13.338  20.198   3.562 -0.1357  0.1350 -0.3011
45451W        W88442   1.163   7.970   8.353 -0.1550 -0.0272 -0.1604
45452W        W88443  33.252  20.680   0.580 -0.1844  0.1067 -0.0618
45453W        W88444  30.100  19.453   2.239  0.0749 -0.2081  0.0910
45454W        W88445  28.854  14.092  21.323 -0.0901  0.0501  0.0936
45455W        W88446  12.030  18.752   4.908 -0.3160  0.0893 -0.1976
45456W        W88447   2.990   5.750  19.269  0.1458 -0.0806  0.0535
45457W        W88448   0.742  23.023  26.919  0.0764  0.1444  0.0878
45458W        W88449  28.036  22.087  18.406 -0.1008 -0.2245 -0.2616
45459W        W88450  32.813  20.828   1.884 -0.2434  0.0031 -0.1363
45460W        W88451  26.830  10.819  27.980 -0.0023  0.0983  0.1751
45461W        W88452  15.282  10.796  17.344  0.0959  0.0564 -0.2619
45462W        W88453  32.984  34.111   9.404 -0.2329  0.1268  0.0248
45463W        W88454   9.665   9.560   3.092  0.1262  0.1705 -0.1290
45464W        W88455  24.313  11.399   6.286  0.1150 -0.1186  0.1663
45465W        W88456  25.720  25.411  25.935 -0.2148  0.3080  0.1179
45466W        W88457  24.596  14.454   7.439 -0.2173 -0.0757  0.0508
45467W        W88458   1.920  31.062   0.251  0.1733  0.2738  0.0377
45468W        W88459   1.827  10.715   4.531  0.2201  0.1432  0.2290
45469W        W88460  22.261  15.067   7.252  0.1042  0.0183  0.3056
45470W        W88461   8.751  16.600   6.646  0.0420 -0.0725 -0.0277
45471W        W88462  29.013  15.492   8.673  0.1978  0.0823  0.0868
45472W        W88463  13.834  18.982   0.536  0.2025 -0.2940 -0.4081
45473W        W88464  21.052  29.600   3.059 -0.0909 -0.0561  0.3281
45474W        W88465  26.328  12.020   5.602  0.0103  0.0597 -0.4590
45475W        W88466  26.206  31.703   3.018 -0.0202  0.0802 -0.2414
45476W        W88467  23.329   9.368   3.500 -0.0173 -0.2154  0.2268
45477W        W88468  20.913  22.726  14.852 -0.0067 -0.2150  0.1195
45478W        W88469   5.973  17.891  10.047  0.1002 -0.2148 -0.0720
45479W        W88470   8.579  13.474   7.595 -0.4617  0.1800 -0.0653
45480W        W88471  11.985  11.853   3.369 -0.0367 -0.3358  0.2332
45481W        W88472  24.256  12.925   3.160 -0.1261 -0.0763 -0.0436
45482W        W88473  18.356  23.213   7.888  0.1496  0.0641  0.0383
45483W        W88474  32.201  18.309   8.541  0.2122  0.0875  0.1402
45484W        W88475  10.461   5.014   3.571 -0.1446 -0.1172 -0.0968
45485W        W88476  22.249  12.526   5.319  0.1218 -0.1063  0.0798
45486W        W88477   2.825  28.820   2.742  0.4207 -0.2140 -0.1110
45487W        W88478  30.524   7.999   8.787  0.1775  0.1778 -0.1977
45488W        W88479  12.636  13.995  21.761  0.2092  0.1287 -0.0457
45489W        W88480   9.352  26.621   8.361  0.1998 -0.1660 -0.0630
45490W        W88481  23.165  10.209  23.690 -0.0856  0.3564 -0.0206
45491W        W88482  29.789   4.118   1.819 -0.0479 -0.0796 -0.2693
45492W        W88483  27.874  19.317   3.427 -0.0322 -0.1287 -0.1835
45493W        W88484  10.713  13.614   1.793  0.1804 -0.1203 -0.1565
45494W        W88485  24.267  28.874   7.904  0.1478  0.1603  0.1434
45495W        W88486  17.164  25.268   8.382 -0.0826  0.2377 -0.0613
45496W        W88487  27.736  17.180  24.278 -0.2492  0.1127  0.1567
45497W        W88488  29.676  31.408   3.711  0.2271 -0.1051 -0.1207
45498W        W88489  26.255   9.517   3.734 -0.3112  0.2793 -0.1274
45499W        W88490   2.164   4.747   8.654  0.3098 -0.0967  0.2197
45500W        W88491  31.951  20.378  21.991 -0.2736  0.0031  0.0032
45501W        W88492   4.811  12.446  11.933  0.0905 -0.1052 -0.1185
45502W        W88493  22.327   0.863   4.269 -0.1391  0.3310  0.0329
45503W        W88494  22.915  11.623  25.394 -0.1829  0.1170  0.1029
45504W        W88495  11.571   2.500   0.966 -0.4314 -0.0544  0.0234
45505W        W88496  24.504   4.764  27.171 -0.1354 -0.3235  0.0921
45506W        W88497   5.251  29.002   6.505  0.1575  0.0338  0.0902
45507W        W88498  27.372  10.273   6.986  0.1209 -0.0613 -0.2821
45508W        W88499  18.400   1.491   2.512 -0.4108  0.0815  0.0274
45509W        W88500  24.461  14.886  24.876  0.0931  0.1497  0.0970
45510W        W88501  25.578  21.175  28.122  0.0507  0.2959  0.0150
45511W        W88502  10.451   6.845   8.736 -0.1329 -0.1096 -0.1205
45512W        W88503  26.677   7.468   8.629  0.0619  0.0445 -0.0326
45513W        W88504  23.877  12.810  27.530 -0.2769 -0.2118 -0.4015
45514W        W88505  13.401  21.910   9.410 -0.2131 -0.2348  0.2038
45515W        W88506  28.829  14.087   9.510 -0.0826  0.3300 -0.2856
45516W        W88507  32.800  22.450  26.311 -0.3438  0.0254  0.1524
45517W        W88508   3.340  11.709   4.997 -0.0194  0.5192  0.3457
45518W        W88509  28.556  15.097  25.689  0.0599 -0.0065 -0.2840
45519W        W88510  34.154  27.457   8.904  0.3001  0.0025 -0.3262
45520W        W88511   6.300  13.140   6.632  0.1503 -0.2030  0.0560
45521W        W88512  18.031   7.492   4.034  0.1514  0.2011  0.1792
45522W        W88513   4.123  19.813   6.034 -0.1772 -0.0832 -0.0983
45523W        W88514   3.045  15.201   4.736  0.1792 -0.1301  0.0441
45524W        W88515  28.600   4.752   2.317 -0.2949 -0.3691 -0.0993
45525W        W88516  25.605  22.161   6.219  0.1723 -0.0857  0.4411
45526W        W88517  14.946  11.004   0.686  0.0182 -0.1388 -0.1136
45527W        W88518   2.544  33.357   9.635 -0.3233  0.1418  0.0651
45528W        W88519   0.320  31.459   8.874  0.0418  0.0178 -0.2211
45529W        W88520  20.606  23.804   7.342 -0.2032  0.0953  0.0914
45530W        W88521  33.658  16.840  10.081 -0.0564 -0.0285 -0.1707
45531W        W88522   4.172  26.255   5.473 -0.0991 -0.0504  0.0946
45532W        W88523  29.198  14.430   2.947  0.0926 -0.2954  0.1497
45533W        W88524  27.673  31.756   0.052 -0.0873 -0.1446  0.0558
45534W        W88525  10.036  29.154   2.591  0.2626  0.2842  0.2291
45535W        W88526   5.080  12.904  19.253 -0.4745  0.0266 -0.0297
45536W        W88527  19.224  20.594   0.261 -0.1284 -0.1707 -0.0560
45537W        W88528  26.188  12.723  27.950  0.0048 -0.0993 -0.0253
45538W        W88529  18.603  20.204   4.759 -0.1208 -0.0142  0.3556
45539W        W88530  18.576  20.368   5.730  0.1333  0.0425  0.0172
45540W        W88531  32.183   1.348  24.641  0.2420 -0.0039 -0.1946
45541W        W88532  12.473   8.421   5.869  0.1699  0.1225  0.1030
45542W        W88533   1.457  32.494   3.865 -0.0750 -0.3117  0.1548
45543W        W88534  29.991  16.391   4.308  0.0389 -0.0360  0.0111
45544W        W88535  19.054  24.279   0.634 -0.1796 -0.1164  0.0017
45545W        W88536  24.654  11.656   8.439 -0.0752  0.0849  0.1721
45546W        W88537  31.292  20.172   5.962  0.0426 -0.2868  0.0999
45547W        W88538   7.342  15.321   2.118 -0.0124 -0.0970  0.0688
45548W        W88539  27.893  31.659   5.809 -0.1045  0.0559  0.0750
45549W        W88540  22.451  13.675   4.511 -0.0740  0.2484 -0.2982
45550W        W88541  22.561  33.899   5.096 -0.1129 -0.0730  0.0149
45551W        W88542  22.476  22.126  28.924  0.1520 -0.0826  0.1988
45552W        W88543   0.742  25.429   2.899 -0.2325  0.0433 -0.1954
45553W        W88544  31.153   9.651   9.209 -0.1361  0.0934 -0.1362
45554W        W88545   4.785  12.111   7.885  0.0366  0.1154 -0.1145
45555W        W88546  34.665  17.225  10.110  0.1484  0.0277 -0.0226
45556W        W88547  19.192   5.613   4.075 -0.0264  0.1102 -0.2219
45557W        W88548   1.938  11.755   2.148  0.0865 -0.0763 -0.0026
45558W        W88549  25.675  10.171   4.961  0.2440 -0.1839 -0.3434
45559W        W88550   6.124  18.729   9.122  0.0065 -0.0753 -0.1039
45560W        W88551  16.295   6.269   1.810  0.0717 -0.0050 -0.0211
45561W        W88552  26.663  19.930   3.982 -0.2698  0.2929  0.2148
45562W        W88553  26.049  10.390   8.010  0.0549 -0.0551 -0.0546
45563W        W88554   0.792  15.579   6.057  0.0018 -0.0359 -0.0490
45564W        W88555   2.131  33.342   4.675  0.1415 -0.2088  0.3494
45565W        W88556  30.054  10.268   2.049  0.3754  0.0799 -0.0797
45566W        W88557  31.899  21.757  25.356  0.1169  0.0323 -0.5631
45567W        W88558  12.108  22.576   7.985 -0.0320 -0.1646 -0.2082
45568W        W88559  33.603  13.615   8.210  0.0422 -0.0294 -0.0837
45569W        W88560  33.216  19.834   4.741 -0.0341 -0.0671  0.1213
45570W        W88561  28.200   3.189   7.892  0.0223 -0.1950  0.0665
45571W        W88562   9.416   7.562   3.878 -0.3109  0.1026  0.1392
45572W        W88563  18.719  31.811   7.281  0.0205 -0.1363  0.1415
45573W        W88564  22.593  14.324   1.601  0.1474  0.1371  0.1623
45574W        W88565   1.279  16.998  17.983 -0.1546  0.0074  0.1336
45575W        W88566   2.762  10.736  10.674 -0.1809  0.1202  0.2505
45576W        W88567  25.549  11.717  29.225  0.3469  0.1773 -0.0248
45577W        W88568  24.746  14.460   6.175 -0.0668 -0.1974  0.0567
45578W        W88569  23.291   7.639   4.596  0.0154 -0.1337  0.0109
45579W        W88570  32.438  11.409   9.227  0.0283  0.0668 -0.2591
45580W        W88571  18.547   8.944  10.197 -0.4641 -0.2652 -0.1982
45581W        W88572   0.423  23.589  25.533  0.1252 -0.0629  0.0783
45582W        W88573  34.155   4.130  14.662  0.0908  0.1047 -0.2826
45583W        W88574   3.778   9.908   7.619  0.0995  0.0310 -0.0033
45584W        W88575   1.950  28.223   2.068 -0.1688  0.2298 -0.3701
45585W        W88576  23.831  23.847   6.096 -0.0314  0.1223  0.0410
45586W        W88577  32.025  19.152   5.294 -0.2113  0.1162 -0.1149
45587W        W88578  15.080  17.621   8.442 -0.1667 -0.0283 -0.0016
45588W        W88579  17.664   9.734   5.607  0.2087  0.2903 -0.0874
45589W        W88580  27.715  15.213   3.650 -0.0083 -0.0636 -0.1307
45590W        W88581   9.129   1.551   6.857 -0.0781  0.1485 -0.2581
45591W        W88582  16.929  14.088  26.653 -0.0415 -0.0865  0.0702
45592W        W88583  25.524   8.238  14.372  0.0656 -0.1939  0.1358
45593W        W88584   7.043  14.186   0.050 -0.5518 -0.1375  0.0489
45594W        W88585  24.521   8.522   4.137  0.0397 -0.1202 -0.0070
45595W        W88586   4.056  11.535  27.837  0.0868  0.5515 -0.0983
45596W        W88587  29.681  18.145  10.151 -0.1751  0.0245  0.1333
45597W        W88588   0.445  24.811   6.422  0.0813 -0.2347  0.2240
45598W        W88589  25.376  20.061  24.556 -0.0712 -0.0977  0.1537
45599W        W88590  34.278  28.496  21.666  0.1432  0.1145  0.1264
45600W        W88591  15.725  12.146  10.130 -0.3165  0.1165  0.1848
45601W        W88592  33.801  13.520   3.802 -0.1256  0.0301 -0.0832
45602W        W88593   0.384  14.464   4.643  0.2329  0.0840 -0.0041
45603W        W88594  10.256   9.589   6.139  0.1665  0.0101 -0.0145
45604W        W88595   5.156   7.511   8.160 -0.0001  0.1743  0.1501
45605W        W88596   5.990   3.828   4.414  0.1180 -0.2172  0.1051
45606W        W88597  27.279   4.092   5.131  0.0148 -0.3838 -0.0638
45607W        W88598  25.724  27.864  16.292  0.2477  0.1060  0.0096
45608W        W88599  27.170  12.099   7.006  0.2358  0.2023  0.0052
45609W        W88600  31.175  24.095   1.237 -0.1726 -0.0398  0.0837
45610W        W88601  24.777   2.899  27.351  0.0787  0.1832 -0.0053
45611W        W88602  26.064  33.130   4.266 -0.0106 -0.2260 -0.0161
45612W        W88603   3.439  19.273   3.434 -0.0259  0.1126 -0.0683
45613W        W88604  26.656  32.392   3.330  0.4559  0.0976  0.1089
45614W        W88605   1.506  21.214   9.464  0.1537  0.2835 -0.1288
45615W        W88606  18.410   3.308   7.834  0.3722  0.0853 -0.1230
45616W        W88607   4.787   5.791  26.792 -0.1765  0.0530 -0.0461
45617W        W88608  31.557  12.050   6.076  0.2973 -0.0448  0.2080
45618W        W88609  13.819  17.344   0.395 -0.0740  0.1316 -0.0809
45619W        W88610  20.245  15.314   3.857  0.1654  0.1817 -0.0547
45620W        W88611  23.824  15.419   9.154 -0.2515  0.0688  0.0371
45621W        W88612  27.233  18.512   9.387  0.0154 -0.1049 -0.0879
45622W        W88613  24.798  14.319  20.592  0.3084  0.0168  0.2910
45623W        W88614  32.299  23.782  25.908  0.0539  0.1640 -0.0734
45624W        W88615   4.214  13.094  23.934  0.0806  0.3689 -0.0851
45625W        W88616   9.694   8.458   9.271  0.3414 -0.0342 -0.2421
45626W        W88617  32.278   8.309  23.935  0.2391 -0.1114 -0.4276
45627W        W88618   5.562  13.171   9.864  0.0303 -0.0411 -0.2802
45628W        W88619  31.436  22.556  26.961  0.1819 -0.0073 -0.0779
45629W        W88620   0.021  16.365  11.349  0.1626  0.0130  0.0700
45630W        W88621  23.114  12.685  28.912 -0.0342 -0.1052  0.1185
45631W        W88622   2.971  28.233  20.409 -0.1802  0.1444  0.0500
45632W        W88623  20.392  12.672  28.247  0.2322 -0.6387  0.3172
45633W        W88624  25.956  11.204   9.861 -0.0577  0.0733  0.0300
45634W        W88625  18.766  18.285   0.772 -0.1567 -0.0834  0.3595
45635W        W88626  16.185   3.750  27.774 -0.0371  0.0028  0.4878
45636W        W88627  26.823  15.536   2.297 -0.1271  0.2238  0.1012
45637W        W88628   1.877  19.757   6.521  0.1701 -0.2691 -0.0849
45638W        W88629  31.499   9.141   6.929 -0.2275 -0.4239  0.1604
45639W        W88630  25.291  28.019   5.147 -0.2025  0.1106 -0.1935
45640W        W88631  10.083   5.362   3.657 -0.0727 -0.1261 -0.1294
45641W        W88632  25.842  21.962   1.825  0.2054 -0.1820 -0.1961
45642W        W88633  31.874  31.554   2.978  0.0582  0.3894  0.1016
45643W        W88634   0.014  15.495  22.821 -0.3138  0.1635  0.0590
45644W        W88635   1.692  20.913   1.101  0.0741 -0.2065 -0.2117
45645W        W88636   8.808  16.885   7.044 -0.1507 -0.1236  0.0515
45646W        W88637  29.733  27.673   5.645 -0.0421 -0.0645 -0.2370
45647W        W88638   6.077   8.741  25.840  0.0806 -0.0230 -0.1717
45648W        W88639  18.998  14.460   0.322  0.1459 -0.1858 -0.0863
45649W        W88640  15.666   5.856   9.308 -0.0745 -0.0803  0.2309
45650W        W88641   1.157  12.857  10.467 -0.1953  0.1884 -0.3410
45651W        W88642  34.134  25.998   1.837  0.3838 -0.2331 -0.1726
45652W        W88643   7.398  19.342   8.456  0.1454 -0.2808 -0.1223
45653W        W88644   1.819   5.269   6.145 -0.0854  0.1284 -0.2745
45654W        W88645   6.807   7.621   2.997  0.4382 -0.1810  0.3837
45655W        W88646  15.234  29.941   8.745  0.3881 -0.0091  0.2877
45656W        W88647  25.217  11.667   0.353  0.3060  0.1423 -0.2186
45657W        W88648  32.263   4.251   1.124 -0.2980  0.3368 -0.1655
45658W        W88649  10.913  12.488   1.211  0.3044 -0.1197 -0.4645
45659W        W88650  28.596  22.145   5.259 -0.0338 -0.3385  0.0924
45660W        W88651  14.907  11.555   0.423  0.1374 -0.0198 -0.0980
45661W        W88652  23.774  11.406   8.693 -0.4269  0.0399 -0.0792
45662W        W88653  13.378  21.222   1.212 -0.2356 -0.1605 -0.1647
45663W        W88654   0.591  12.042   3.512  0.0364  0.1489 -0.0654
45664W        W88655  29.063  17.231   6.397  0.2125 -0.2755  0.2240
45665W        W88656  25.597  20.535   9.355  0.0418 -0.3131 -0.0760
45666W        W88657  27.290  16.256   6.030  0.0284 -0.1643  0.0994
45667W        W88658  22.579  32.998  28.852  0.0869 -0.2647 -0.1184
45668W        W88659  22.291   0.768   6.125 -0.3868 -0.2964 -0.0650
45669W        W88660  20.742   7.936   9.287  0.3324 -0.1983  0.3043
45670W        W88661   5.215  17.978   3.235  0.0296  0.1469  0.1529
45671W        W88662  25.297  25.468   0.556  0.2664 -0.2962  0.2013
45672W        W88663  29.907  31.039  29.245  0.1982 -0.0746 -0.0037
45673W        W88664   9.342  33.274  28.224 -0.0821  0.2466 -0.0943
45674W        W88665  26.709  27.682  27.287  0.1301  0.1989 -0.1345
45675W        W88666   1.642  20.303   1.936  0.2087 -0.3423  0.0843
45676W        W88667   4.536  12.308   5.809  0.1314  0.2153  0.0166
45677W        W88668   7.182  12.965   7.592  0.2551 -0.1522  0.2003
45678W        W88669  34.690  23.631   4.357  0.1153 -0.1206  0.3082
45679W        W88670   1.108   0.854  25.108  0.3570  0.1546  0.1958
45680W        W88671  30.967  11.707   5.439 -0.0927 -0.2369  0.0228
45681W        W88672  30.352   4.145   4.976  0.0748  0.2698  0.0623
45682W        W88673  28.719  18.966  10.144  0.1166  0.1812  0.0739
45683W        W88674  20.410  23.220   6.803  0.0168  0.0298 -0.1409
45684W        W88675  27.122  15.546  28.682  0.0864 -0.1146  0.0517
45685W        W88676  18.041  10.365   1.822 -0.1888 -0.0339  0.1335
45686W        W88677   8.785   8.407   9.191 -0.0125 -0.1859  0.0415
45687W        W88678  22.518  23.021   9.009 -0.1500  0.1918 -0.4060
45688W        W88679   6.004  19.156  10.356 -0.1189 -0.1433  0.1699
45689W        W88680   3.575  16.950   8.116  0.1719 -0.4299 -0.0486
45690W        W88681   4.945  14.862   6.177  0.1428  0.0585 -0.1228
45691W        W88682  34.279  14.320  27.366 -0.0597  0.1179 -0.1457
45692W        W88683  28.089  22.933   0.225 -0.1274  0.0478  0.0811
45693W        W88684   3.054  18.320  10.717  0.4374  0.1115 -0.1382
45694W        W88685  17.046   6.646  28.185 -0.0669  0.2039 -0.3086
45695W        W88686  16.388  21.734  20.221  0.1343 -0.2618 -0.1863
45696W        W88687   8.729  24.693   4.949  0.1208 -0.1898  0.1618
45697W        W88688  28.600   8.105   5.162 -0.3867  0.2454 -0.1796
45698W        W88689  27.666  23.115   7.541 -0.1318  0.0697 -0.2274
45699W        W88690   1.041  16.580  10.343 -0.0612 -0.0818  0.0292
45700W        W88691  17.980  16.746   4.062 -0.1416  0.3382  0.3686
45701W        W88692  15.139  23.756  18.871 -0.1529 -0.0851 -0.2364
45702W        W88693   0.134  28.386   1.758  0.2192 -0.2082  0.0560
45703W        W88694   6.851  12.708   2.996  0.0290 -0.1293  0.1522
45704W        W88695   0.357  11.378   1.118 -0.0694  0.4414 -0.2401
45705W        W88696  17.482  18.134  20.232 -0.0311 -0.1449  0.1130
45706W        W88697  15.904  22.783  23.841 -0.0559  0.1190  0.0066
45707W        W88698   9.079  15.758  19.222  0.1741 -0.2598  0.1771
45708W        W88699  28.333  20.938   0.188  0.0968 -0.2141  0.2178
45709W        W88700   9.896  10.836   3.001  0.1739  0.2901  0.0563
45710W        W88701  33.831   8.887   9.987 -0.0070  0.0030 -0.0148
45711W        W88702  19.606   5.687   5.783  0.0076 -0.0968 -0.0429
45712W        W88703  25.643  33.413   5.156 -0.2088  0.1838  0.2168
45713W        W88704  24.442   7.872   6.546  0.1937  0.0252 -0.3474
45714W        W88705  30.887   5.551   8.361  0.2057  0.0931 -0.1134
45715W        W88706  26.473  24.255   6.246 -0.2127  0.1972 -0.3637
45716W        W88707  26.553  16.608  19.689  0.0954 -0.2822 -0.2169
45717W        W88708  33.827  18.855   3.627  0.2092 -0.2180  0.1430
45718W        W88709  30.379  23.805   8.996 -0.2261 -0.0506  0.2035
45719W        W88710   6.952  31.169   1.494 -0.1105 -0.0232  0.0307
45720W        W88711   7.017  10.728   9.249  0.1169 -0.1439 -0.1074
45721W        W88712  25.995  23.269  15.187 -0.3455 -0.0522  0.2359
45722W        W88713  25.036  18.429   7.922  0.1032  0.0928  0.0242
45723W        W88714   4.308  15.316  28.106  0.2151  0.1569 -0.0883
45724W        W88715  34.477   0.286   8.832 -0.2139 -0.1741 -0.0066
45725W        W88716  15.616  33.119   8.893  0.1527 -0.0100  0.0705
45726W        W88717   0.170  15.499   9.999 -0.2386 -0.0753 -0.1201
45727W        W88718   8.274  33.336   9.716 -0.4401 -0.0125 -0.0902
45728W        W88719  31.656  18.800  10.267 -0.2538 -0.3929  0.0290
45729W        W88720   8.649   5.191   5.161  0.6543  0.0065  0.1889
45730W        W88721  16.572   6.012   6.887  0.0434  0.3191  0.2195
45731W        W88722   5.532   9.857   6.461 -0.0056  0.1497  0.2667
45732W        W88723  16.051  28.828   8.621 -0.0118  0.2012  0.2943
45733W        W88724  17.097  20.769  19.184 -0.0280  0.1888  0.0884
45734W        W88725  34.431  22.138   5.567  0.2119 -0.0345 -0.1472
45735W        W88726   2.086  30.295   7.835 -0.0429 -0.0375 -0.2053
45736W        W88727  18.883  25.832   6.191 -0.1508 -0.2333 -0.0133
45737W        W88728  19.297  11.239   8.364 -0.2721 -0.1426  0.2595
45738W        W88729   6.778   3.680  14.790 -0.2530  0.4003  0.1176
45739W        W88730  16.880  11.647   4.318 -0.2478 -0.1575  0.2157
45740W        W88731   2.764  19.025  20.968 -0.0806 -0.1056 -0.1913
45741W        W88732  23.241  13.891   5.303 -0.1255  0.0576 -0.2681
45742W        W88733  31.338   8.273   9.800 -0.2593  0.0305  0.2847
45743W        W88734  30.357   6.192   6.624 -0.3434 -0.1580  0.0548
45744W        W88735   4.104  22.719  21.531  0.2978  0.1089 -0.4683
45745W        W88736  30.300  23.609   4.071 -0.1407 -0.0824 -0.0124
45746W        W88737   3.004  25.532   0.397 -0.0853 -0.0198 -0.0119
45747W        W88738   2.203  10.973   1.402  0.0788 -0.0063  0.0118
45748W        W88739  17.673  18.736   4.279 -0.4060 -0.0036 -0.1399
45749W        W88740  26.713  22.968   2.352  0.0320  0.0181  0.0155
45750W        W88741  23.942  28.975  16.143 -0.0835  0.2383 -0.0213
45751W        W88742  31.366  18.982  26.909  0.1661 -0.0204 -0.1995
45752W        W88743   4.938  14.298   5.385 -0.0441  0.1451  0.2866
45753W        W88744  27.358   6.511  22.840 -0.1121  0.1153  0.1281
45754W        W88745  34.279   6.321   8.681  0.2071  0.0071 -0.1135
45755W        W88746   0.876  24.047   1.876  0.0654 -0.1130 -0.0547
45756W        W88747  32.640   7.920   0.103  0.1399 -0.2366 -0.2601
45757W        W88748  33.055   7.973   9.680 -0.0668  0.0702  0.0056
45758W        W88749  32.794  23.196   8.887  0.0515  0.0575  0.0073
45759W        W88750  33.803  19.576   8.054  0.0258  0.2170 -0.1605
45760W        W88751  17.527  33.169  26.234  0.1232 -0.2697  0.0815
45761W        W88752  24.570  27.567   5.869  0.0396 -0.0737 -0.1764
45762W        W88753   2.897  17.422  10.027 -0.0239 -0.0333  0.6932
45763W        W88754   9.250  30.489   3.738 -0.3660 -0.0648  0.2031
45764W        W88755  23.321  23.013  22.037  0.2534  0.1021  0.0929
45765W        W88756  29.083   2.078  21.228 -0.1337 -0.2033 -0.0376
45766W        W88757  23.508   2.208  27.028  0.0480 -0.0882 -0.2060
45767W        W88758  28.426  16.389   8.722 -0.1330  0.1038  0.0076
45768W        W88759  34.777   4.063  10.004  0.1444 -0.1036  0.1721
45769W        W88760  23.698   9.003   3.474  0.0709 -0.1126 -0.6030
45770W        W88761  33.071  18.138   6.178  0.1391  0.1226 -0.2698
45771W        W88762   1.121  12.663   8.552 -0.1453 -0.0605 -0.0094
45772W        W88763  27.532  26.717   6.415 -0.0531 -0.1307 -0.2104
45773W        W88764   1.179  27.820   5.768  0.1173  0.1684  0.0037
45774W        W88765  27.784  20.683   5.675 -0.0430 -0.0947  0.0277
45775W        W88766  16.017  14.096   5.579  0.0972 -0.1556  0.0997
45776W        W88767  17.799  16.871   2.674  0.1223 -0.0655  0.3566
45777W        W88768  20.254   2.023   9.143 -0.0117  0.1395 -0.0843
45778W        W88769  34.749   1.288  24.753 -0.2665 -0.0597 -0.1899
45779W        W88770   8.259  12.828  10.356  0.0978  0.0852 -0.0477
45780W        W88771  33.707  34.133   7.413 -0.1987  0.2448 -0.1846
45781W        W88772  23.787   8.122   7.269  0.3918 -0.0685  0.0004
45782W        W88773   0.070   7.335   6.325 -0.2642  0.0384  0.1354
45783W        W88774  32.942  21.976   3.065  0.0085  0.0336 -0.2141
45784W        W88775   1.253  32.737   7.669 -0.0157  0.1023 -0.3293
45785W        W88776   4.109  20.001  24.297  0.0031 -0.2419 -0.0531
45786W        W88777  30.000  34.724   7.337 -0.0224 -0.1869  0.1368
45787W        W88778  11.773  20.759   4.670 -0.0164 -0.0477  0.0218
45788W        W88779  33.617  10.216  27.365  0.1970  0.1080 -0.2252
45789W        W88780  33.204  11.606  27.511 -0.0414 -0.0749 -0.1118
45790W        W88781   8.356   7.382  23.844 -0.2483  0.1540  0.1005
45791W        W88782  16.732  13.119   0.869 -0.0072 -0.0055 -0.3019
45792W        W88783   6.215  12.990   3.682 -0.2775 -0.2579  0.3315
45793W        W88784  28.597  16.317   6.290  0.1426  0.1497 -0.0686
45794W        W88785  19.274   5.918  27.856 -0.2031  0.1805 -0.0640
45795W        W88786   2.712  27.178   4.482 -0.0339 -0.2089  0.3055
45796W        W88787  32.934  33.254   3.334 -0.2529  0.0795 -0.2359
45797W        W88788  22.406   9.863   8.816 -0.0432 -0.3788 -0.1806
45798W        W88789  10.109  24.396   3.951 -0.0224  0.2588  0.0351
45799W        W88790  24.838  16.680   2.918  0.0376 -0.0485  0.2558
45800W        W88791  34.705  20.060  26.237 -0.1760 -0.1118  0.0946
45801W        W88792  29.730  17.559   0.742 -0.0416 -0.1308  0.1322
45802W        W88793   2.186  21.167   0.957 -0.2838 -0.0528 -0.0560
45803W        W88794  18.771  28.399   8.964 -0.1888 -0.0097  0.1999
45804W        W88795   9.061  17.946   7.625 -0.0536  0.0886  0.0308
45805W        W88796  33.502   1.505   8.906 -0.4269  0.1837 -0.2940
45806W        W88797  20.618   9.989   7.413 -0.0303 -0.0721 -0.1490
45807W        W88798  11.651  32.308   5.260 -0.0012  0.0647 -0.1891
45808W        W88799   1.995  12.739   1.921 -0.1611 -0.2073 -0.1489
45809W        W88800   9.708  31.215   3.746 -0.1345  0.2661  0.2622
45810W        W88801  25.340   7.018  13.048 -0.2821 -0.4665  0.2140
45811W        W88802   9.061   6.174  28.861  0.1505  0.3276  0.1112
45812W        W88803  34.574   8.635  29.021  0.0846  0.0723 -0.0725
45813W        W88804  33.222  17.899   2.497  0.1178 -0.1240 -0.1724
45814W        W88805  26.783  26.261   7.227  0.0526  0.0930 -0.0681
45815W        W88806   4.815  15.013  26.787  0.3733  0.1608  0.1084
45816W        W88807  23.089  18.919   6.379 -0.3218  0.0335  0.1986
45817W        W88808  27.264  26.006  28.240 -0.3044  0.0022 -0.0611
45818W        W88809  29.780  10.412   3.702  0.0595  0.0640  0.2488
45819W        W88810  19.244  20.439   8.075 -0.0192 -0.2029  0.3393
45820W        W88811  32.675  12.625   3.661  0.1016  0.0485  0.2480
45821W        W88812  33.015  16.687  11.186 -0.0645 -0.2824  0.2859
45822W        W88813  15.535  20.963   0.352  0.0358  0.2274  0.1562
45823W        W88814   9.571  28.009   4.307  0.0812  0.1035 -0.0100
45824W        W88815  28.868  12.990   2.266  0.0627 -0.0528 -0.0573
45825W        W88816   1.871  13.803  11.375  0.1677  0.0571 -0.1930
45826W        W88817  32.465  20.306  21.432 -0.0505  0.2602 -0.0317
45827W        W88818   1.527  11.296   2.381 -0.0659 -0.1129  0.2202
45828W        W88819  16.367  10.923   4.500 -0.1772 -0.1885  0.0611
45829W        W88820  30.556   6.989   8.521  0.1907  0.1777  0.3179
45830W        W88821   0.388   9.579  11.260 -0.2458 -0.1636  0.0078
45831W        W88822   2.608  17.529  28.444 -0.3941 -0.1050  0.1521
45832W        W88823  27.975  16.326   7.436 -0.0800  0.3955  0.0980
45833W        W88824  24.590  15.939  28.907 -0.3332 -0.2724 -0.0435
45834W        W88825   0.875  10.684  19.183  0.1401  0.0562  0.1018
45835W        W88826   6.217  16.341  27.893 -0.0271  0.0266  0.1764
45836W        W88827   0.265  26.504   7.525 -0.0436 -0.4171 -0.1462
45837W        W88828  29.866  18.239   7.446 -0.2631  0.0514 -0.2639
45838W        W88829  26.167   6.623  20.591  0.2555  0.0816 -0.3431
45839W        W88830  24.870  29.482  14.067  0.5174  0.1268 -0.0235
45840W        W88831  25.920  21.452  26.587 -0.1393  0.0355 -0.2082
45841W        W88832  27.535  24.167   7.592  0.0977  0.0113  0.4903
45842W        W88833   6.626  16.531   9.844  0.2066  0.1904  0.0965
45843W        W88834   2.807  14.513  25.619 -0.0182 -0.3175  0.2367
45844W        W88835  27.641  22.449   9.973 -0.0290  0.0231 -0.2072
45845W        W88836  34.604   7.617   5.446 -0.0976 -0.0842  0.5648
45846W        W88837  28.812  28.670   3.168  0.1019  0.1916 -0.0011
45847W        W88838  28.597   9.169  14.380  0.0152  0.0067  0.1500
45848W        W88839   2.438  15.841   6.811 -0.0335  0.1395 -0.0394
45849W        W88840  24.200  15.239   5.306  0.1499  0.2717  0.2375
45850W        W88841   3.553  18.213  22.480 -0.0443 -0.2899  0.1243
45851W        W88842  23.475   7.623  28.002  0.6133 -0.1122 -0.1030
45852W        W88843  13.304   5.367  10.909 -0.1672 -0.0088  0.1900
45853W        W88844  28.194  22.902   3.392  0.2039  0.2644 -0.2405
45854W        W88845   7.991   0.898   7.228 -0.0895 -0.2641  0.2668
45855W        W88846  26.676  17.072  23.669  0.0822  0.0844 -0.0107
45856W        W88847  30.577  23.836   0.032  0.2391  0.1235  0.4677
45857W        W88848  20.717  32.199   8.099 -0.2366  0.0591 -0.2774
45858W        W88849  29.371  19.062   8.726 -0.0806 -0.4356 -0.0159
45859W        W88850  19.333  30.775   0.528 -0.1327 -0.0512  0.3923
45860W        W88851  30.299  19.948   7.062 -0.0645  0.0464 -0.0918
45861W        W88852  21.726  25.438  28.104 -0.0217  0.3334  0.1390
45862W        W88853  24.524  12.653   6.307 -0.2243  0.1445  0.2328
45863W        W88854   2.192  21.806   3.507  0.1611  0.2283  0.2579
45864W        W88855   2.765  15.329  27.267 -0.1294  0.3548 -0.0382
45865W        W88856  23.021  20.023   7.964 -0.2304 -0.0875 -0.1490
45866W        W88857   2.195  31.816  24.868  0.2480  0.1029 -0.0696
45867W        W88858  19.527  22.811   3.328 -0.0197  0.1457  0.3273
45868W        W88859   2.561  20.487  15.133 -0.0625 -0.2071 -0.0735
45869W        W88860  33.176  22.218  26.113 -0.1075 -0.0615 -0.1736
45870W        W88861  32.823  29.704  16.814 -0.2195 -0.4497 -0.3030
45871W        W88862   5.862  21.075   3.699 -0.3145 -0.2229 -0.0934
45872W        W88863  19.518  18.070  14.453  0.1357  0.0526 -0.0442
45873W        W88864   1.643   3.018   2.071  0.3375  0.0779  0.0638
45874W        W88865   1.268  30.110  20.931  0.0453  0.1042 -0.1834
45875W        W88866  30.588  24.593  28.932  0.2668 -0.0142  0.2020
45876W        W88867  20.650  11.680  21.751  0.3925 -0.0448  0.0235
45877W        W88868  25.176   4.277  28.291  0.0539 -0.3078 -0.0607
45878W        W88869  22.280   7.472   6.184 -0.0486  0.1781 -0.0838
45879W        W88870  18.859  30.439  27.133 -0.2638  0.1425  0.0165
45880W        W88871   8.620  28.873   8.103 -0.2253  0.1187 -0.1630
45881W        W88872  16.425   7.474   5.166  0.1543  0.1483 -0.3207
45882W        W88873   3.615   2.477   2.714  0.1032  0.4665 -0.3333
45883W        W88874  21.240  18.403   7.029  0.2849 -0.1691 -0.0340
45884W        W88875   5.869   8.499   3.260  0.0783  0.1230 -0.0550
45885W        W88876   3.923  19.847  20.428 -0.0258  0.3191  0.2703
45886W        W88877  27.417  21.967   6.720 -0.1026 -0.2148 -0.0994
45887W        W88878  24.039  25.561   4.000  0.2120  0.4560  0.1687
45888W        W88879  31.056  10.323  26.898  0.0567 -0.3401  0.1599
45889W        W88880   8.027   6.494  29.126  0.1460  0.1875 -0.1069
45890W        W88881   6.890  17.844   9.557 -0.0483 -0.0639 -0.4381
45891W        W88882   3.878   8.674  27.047 -0.0928 -0.0834 -0.1818
45892W        W88883  32.478   2.957   8.207 -0.0307  0.1153  0.1423
45893W        W88884  28.348  19.601  23.200 -0.0345 -0.0806 -0.0652
45894W        W88885  12.579  27.566   7.792 -0.3162  0.0077 -0.3482
45895W        W88886  11.525  15.465   5.988  0.0172 -0.0137  0.0346
45896W        W88887  24.521   7.931  24.417 -0.1996 -0.2618 -0.0007
45897W        W88888  20.736  13.139  20.849  0.0145 -0.0644 -0.1912
45898W        W88889   3.529  17.545  17.979 -0.2184  0.0796 -0.0295
45899W        W88890  10.851  20.018  22.779 -0.2269  0.1884 -0.2172
45900W        W88891   8.781  15.238   5.528 -0.0789 -0.1977  0.3257
45901W        W88892  12.291  25.583   5.538 -0.0904 -0.1792 -0.0426
45902W        W88893  30.639  21.206  26.305 -0.1483  0.0755  0.0707
45903W        W88894  32.653  24.010  28.802 -0.0417  0.0561  0.3141
45904W        W88895  20.771  16.203   1.895 -0.0474  0.1198  0.1194
45905W        W88896  27.922   6.052  23.040 -0.1206 -0.4666  0.1506
45906W        W88897   2.008  25.803   6.599 -0.1987 -0.1368 -0.0152
45907W        W88898  26.349   1.806   4.057  0.1838  0.0290 -0.2112
45908W        W88899   1.760  22.231   0.559 -0.4352  0.1331 -0.0398
45909W        W88900   2.831  22.405   4.109 -0.0450 -0.0496 -0.1474
45910W        W88901  34.336  18.312   1.145  0.1073  0.0483  0.0558
45911W        W88902  19.203  17.455  23.622  0.4791 -0.0167 -0.0352
45912W        W88903   2.735   9.142  26.980  0.0792  0.1427 -0.1383
45913W        W88904  31.412  26.972   1.307 -0.4207 -0.1998  0.0140
45914W        W88905  28.083  20.218  19.989 -0.0716  0.0830  0.0787
45915W        W88906   2.554  20.538  10.103  0.2781 -0.0993 -0.1216
45916W        W88907   8.575   8.698  27.166 -0.0594  0.0163 -0.0983
45917W        W88908  21.377  16.437   7.951 -0.0913  0.1978  0.0560
45918W        W88909  26.978   6.657  15.953  0.0253 -0.0329  0.3365
45919W        W88910  33.426  26.928   6.562 -0.1023 -0.1751 -0.1011
45920W        W88911   7.197  16.439  19.201 -0.0305 -0.1504 -0.0585
45921W        W88912   0.022  15.486   4.870  0.1193 -0.0632  0.0109
45922W        W88913  32.357  19.763  15.827 -0.2995 -0.2228  0.0707
45923W        W88914  12.150  21.833  25.421  0.1106 -0.1554 -0.1454
45924W        W88915  29.016  11.434   4.126 -0.0722  0.1179 -0.0689
45925W        W88916  30.073  17.534   2.269  0.0962  0.0712  0.1341
45926W        W88917  17.192  26.214  19.977 -0.1311 -0.2683 -0.0558
45927W        W88918  10.315   4.546  16.555  0.2574 -0.2504  0.3737
45928W        W88919  22.597  17.851  24.934 -0.1445 -0.1956 -0.0126
45929W        W88920   1.243  32.678   2.221  0.3178  0.2098 -0.1703
45930W        W88921   4.961  10.232  19.478  0.3356 -0.0370  0.1268
45931W        W88922  28.402  23.742   0.030 -0.0425 -0.0446  0.2045
45932W        W88923  30.381  15.359   0.895 -0.2276  0.0658 -0.0388
45933W        W88924   5.976   8.940   8.736  0.1626 -0.0616 -0.2605
45934W        W88925  33.127  21.765  28.304  0.0470 -0.3893  0.0818
45935W        W88926  20.397  14.018   0.402 -0.0563 -0.0692  0.0651
45936W        W88927  27.049  31.653  18.977  0.1251  0.3021 -0.2368
45937W        W88928   3.784   6.192  29.032 -0.2663  0.0508  0.1402
45938W        W88929   9.869  17.870   8.238  0.2422  0.1448 -0.0982
45939W        W88930  32.002   6.873  24.006 -0.1448  0.0437 -0.1179
45940W        W88931  31.418  19.891  21.624 -0.0592  0.1498  0.1158
45941W        W88932  12.384  22.556  19.527  0.1632 -0.1266 -0.1394
45942W        W88933   6.643   8.923   6.190  0.0128  0.2478  0.0227
45943W        W88934   5.909   6.875   5.893 -0.0676 -0.0973 -0.1479
45944W        W88935  22.622  19.040  20.509 -0.1771 -0.2124 -0.0204
45945W        W88936  13.469  28.910  20.674  0.2553  0.0462 -0.1782
45946W        W88937   2.049   1.022   5.108 -0.1181  0.0101 -0.0279
45947W        W88938  13.329  12.527  26.280 -0.0705  0.0967  0.2825
45948W        W88939  23.944  26.324   2.911  0.0704  0.0375  0.1917
45949W        W88940  28.546  13.870   7.725  0.0649 -0.2221 -0.2516
45950W        W88941  17.258  30.307  23.057  0.2857  0.1336  0.1126
45951W        W88942   3.857  26.954   8.445 -0.1229  0.2733  0.0938
45952W        W88943   4.017   9.298  10.597 -0.0704 -0.0683  0.1226
45953W        W88944  34.766  27.792  13.539  0.3904 -0.1893  0.1994
45954W        W88945  12.336  14.000  26.072  0.4257 -0.3112  0.1096
45955W        W88946  14.549  11.947  26.116 -0.2119  0.0419  0.4956
45956W        W88947  27.082  18.722  18.406  0.1535  0.2621 -0.1472
45957W        W88948  32.584  15.009  17.593 -0.0677  0.2810 -0.1492
45958W        W88949  33.556   0.326  17.517  0.0356  0.2520 -0.2626
45959W        W88950   7.717  25.312   2.507 -0.0387 -0.2811  0.0037
45960W        W88951  21.928   0.868  22.306 -0.0819 -0.0210  0.1229
45961W        W88952  24.707  10.547   0.627  0.0801  0.0812  0.0114
45962W        W88953   0.204  26.689   9.750 -0.1035  0.5028 -0.0482
45963W        W88954  30.797  16.880   7.992 -0.0101 -0.0646  0.0193
45964W        W88955  32.285  28.419   0.779  0.0217  0.2095  0.2787
45965W        W88956  30.693  21.201   2.002 -0.2279 -0.0855  0.0904
45966W        W88957  23.045  15.822   0.754 -0.2179  0.1103 -0.0759
45967W        W88958   2.823  19.944   6.592  0.3130  0.0196 -0.1997
45968W        W88959  25.408  28.805   2.967  0.0936 -0.0683 -0.2500
45969W        W88960  18.888  19.507  22.400 -0.3170 -0.1228 -0.0700
45970W        W88961  33.549  32.545  23.126 -0.1323  0.0424  0.1082
45971W        W88962  10.404   8.676  25.759 -0.2466 -0.0999 -0.0827
45972W        W88963  30.489   9.495  25.791  0.0464 -0.1739 -0.1100
45973W        W88964  21.096  29.974  29.241 -0.0497  0.0111 -0.1098
45974W        W88965  30.116  15.425   3.046  0.0015  0.0442  0.0073
45975W        W88966  28.168  10.665   7.671  0.0061 -0.0371 -0.0302
45976W        W88967  26.662  28.682   6.980 -0.0085 -0.1889  0.2572
45977W        W88968  20.447  21.809  26.317 -0.0952 -0.0469 -0.2596
45978W        W88969  19.275   2.045   1.799 -0.1061 -0.0361  0.2519
45979W        W88970  25.660  29.528  27.948 -0.0894  0.2718  0.1443
45980W        W88971  25.624  28.589  26.100 -0.1275  0.1179 -0.0892
45981W        W88972  20.220  17.262   3.777 -0.1210 -0.0249 -0.3932
45982W        W88973   0.580  24.313   1.569  0.2452 -0.0387 -0.0216
45983W        W88974   4.492  33.393   0.529  0.1001 -0.2110 -0.2367
45984W        W88975  31.420  21.906   3.990 -0.2161  0.3146  0.0375
45985W        W88976  21.513   8.217  18.861 -0.0650  0.1564  0.1067
45986W        W88977  29.793  23.823  16.012 -0.1471  0.0890  0.0596
45987W        W88978  15.491  30.403  23.356  0.4871 -0.0416  0.0069
45988W        W88979   3.374  16.432  17.976  0.2310 -0.3404 -0.0656
45989W        W88980  28.848  23.919  19.246 -0.1095 -0.0328  0.0003
45990W        W88981   6.715  26.262  23.195  0.0679  0.2372  0.0692
45991W        W88982  32.839   2.530   4.836 -0.0086 -0.2098  0.2443
45992W        W88983   0.883   7.986   6.232 -0.1170  0.0441  0.2077
45993W        W88984  31.790  24.030   5.974  0.0979 -0.1186  0.1416
45994W        W88985  32.493  33.690  27.815 -0.1322  0.1167 -0.1654
45995W        W88986   2.916  26.134  20.226  0.1275  0.3010 -0.0285
45996W        W88987  30.239  23.755   0.489 -0.0871 -0.1407  0.2646
45997W        W88988  26.219  19.888   4.259 -0.1418  0.0767 -0.0064
45998W        W88989  31.816  32.732  28.616 -0.1038  0.2189  0.1171
45999W        W88990  33.008  11.133  27.630 -0.4151 -0.2868 -0.4297
46000W        W88991  20.192  22.695  25.765  0.1696  0.0857 -0.4798
46001W        W88992  29.628  24.365  20.499 -0.0567  0.2048 -0.2287
46002W        W88993   6.202  21.555  16.916  0.1504  0.0028 -0.0875
46003W        W88994   3.081  15.391  16.201 -0.1066 -0.0423  0.0032
46004W        W88995   2.567  11.154   2.080  0.1495 -0.1085  0.2096
46005W        W88996  32.089  20.359  23.058  0.1231 -0.0905  0.1668
46006W        W88997   1.394  16.792   4.506 -0.1545  0.1682 -0.0488
46007W        W88998  28.411   1.690   1.824  0.3171  0.2641  0.1813
46008W        W88999  29.592  24.500  28.663 -0.0984  0.0298  0.0517
46009W        W89000  23.141  14.636  28.878  0.0319 -0.0768  0.0807
46010W        W89001  22.088  16.534   1.714 -0.0935 -0.0033 -0.3748
46011W        W89002  33.873  34.629  24.938  0.0529  0.2003 -0.0040
46012W        W89003  22.673   4.709   0.786  0.1765  0.0688  0.1829
46013W        W89004  10.557  18.050   1.978 -0.1642  0.2230 -0.2947
46014W        W89005  28.260  21.270   2.869  0.4095 -0.1775 -0.2151
46015W        W89006  31.729   2.758  22.825  0.0192 -0.1578 -0.0475
46016W        W89007   5.682  14.607   1.144 -0.1368  0.2861  0.2942
46017W        W89008   7.740   0.575   7.887  0.2947 -0.0411 -0.2396
46018W        W89009  11.543  11.003  27.443 -0.0018  0.0730 -0.0537
46019W        W89010   6.237  25.513   5.072  0.1940 -0.0947 -0.1101
46020W        W89011  32.867  19.443   4.601 -0.0825 -0.2332 -0.1598
46021W        W89012  20.196  13.611  19.116  0.2429 -0.1797  0.1024
46022W        W89013  12.383  15.130   2.861 -0.2468  0.2817  0.1035
46023W        W89014  13.944  26.023   2.845  0.1008 -0.4131  0.1784
46024W        W89015  33.110  16.166  24.964  0.3982 -0.0875  0.0391
46025W        W89016  20.177  29.854  26.920 -0.0874  0.1110  0.2254
46026W        W89017  30.102   5.603  27.257 -0.3371  0.1633 -0.1826
46027W        W89018   7.183   1.207   4.822  0.1006  0.1043  0.2926
46028W        W89019  19.999  20.976   3.484 -0.0602 -0.2121  0.0005
46029W        W89020   9.334  11.186   8.526 -0.1095  0.0313  0.0636
46030W        W89021  24.146  24.422   5.335 -0.1591  0.0452  0.1442
46031W        W89022  12.570   7.975   4.012  0.2139  0.1408 -0.1989
46032W        W89023  33.766  29.219   3.725  0.0380  0.0009 -0.0875
46033W        W89024   1.549  20.899  16.466  0.3807 -0.1203 -0.1326
46034W        W89025   2.598  14.748  11.286 -0.2120  0.2947  0.1875
46035W        W89026  31.740  23.728  23.737  0.1387  0.1120 -0.1874
46036W        W89027   3.798  24.288   9.130 -0.1168 -0.3327  0.0184
46037W        W89028  28.526  21.283   3.568 -0.0627  0.3183 -0.1921
46038W        W89029  33.111  25.484   6.971  0.2427  0.0735  0.0424
46039W        W89030  32.793  13.272   7.598 -0.1271  0.1667 -0.0672
46040W        W89031   1.528  23.943  27.937 -0.1838 -0.3371  0.1027
46041W        W89032  28.503  15.988  19.369 -0.3901  0.2223 -0.1092
46042W        W89033  22.270  24.132   0.242  0.0930  0.2403  0.3682
46043W        W89034   0.946  15.552  26.324 -0.3213 -0.0709 -0.0230
46044W        W89035   2.711  18.490   0.515  0.1906 -0.0366  0.2359
46045W        W89036   3.688  20.257  18.011  0.1462  0.1435 -0.0744
46046W        W89037  33.290  14.087   7.528  0.1233 -0.0193  0.0787
46047W        W89038  10.542  23.415   0.591 -0.0486  0.1751  0.0653
46048W        W89039   8.652  22.680  27.003 -0.3263  0.0380 -0.2089
46049W        W89040   1.118  22.921  18.899  0.0189 -0.1021 -0.0207
46050W        W89041  33.623  14.079  12.073 -0.1648  0.1540  0.0088
46051W        W89042  13.545  17.847  25.745 -0.0490 -0.2388 -0.2306
46052W        W89043  28.440  24.411  27.991  0.0993 -0.1925 -0.0007
46053W        W89044  12.271  25.270  15.776 -0.0336  0.1715  0.0635
46054W        W89045  32.968  28.802   3.186  0.0261  0.1992  0.1734
46055W        W89046   6.086  23.581  26.860 -0.0146  0.0413  0.0286
46056W        W89047  25.997  22.032   1.214 -0.3462 -0.0251 -0.0691
46057W        W89048   0.054  24.990   4.732 -0.1549 -0.0895  0.0999
46058W        W89049  32.469  24.901  27.863 -0.0527 -0.0775 -0.3956
46059W        W89050  19.806  14.978  20.207  0.2067 -0.2696  0.0122
46060W        W89051  31.997  18.875   8.046 -0.1872  0.0213  0.1029
46061W        W89052  21.433  20.727  15.805 -0.0592 -0.2864  0.0381
46062W        W89053  14.033  12.172   3.870  0.0136  0.0720  0.4612
46063W        W89054  27.756  19.240   7.672 -0.0694  0.3135  0.0181
46064W        W89055  15.714  19.194  28.846  0.1619  0.1106  0.0514
46065W        W89056  30.388   6.673  26.240 -0.0898 -0.0692 -0.2831
46066W        W89057   5.260  14.513  25.730  0.0682  0.0468  0.1121
46067W        W89058  18.048  20.524   8.153 -0.0108 -0.0727 -0.1618
46068W        W89059  20.176  27.472   8.491  0.0303  0.0616 -0.1498
46069W        W89060   5.691   2.108  25.599  0.1433  0.0751 -0.1161
46070W        W89061  28.490  26.098  15.272 -0.0008 -0.0221 -0.0045
46071W        W89062   1.444   9.659  16.562 -0.1922 -0.1295 -0.1546
46072W        W89063   8.726  30.385   6.441 -0.1102 -0.4565  0.1346
46073W        W89064   5.618  18.861   5.617 -0.1293  0.1576  0.1209
46074W        W89065  30.645   5.649  25.752  0.0438  0.0943 -0.2835
46075W        W89066  34.190  32.036   3.947  0.0851 -0.1801  0.0521
46076W        W89067  15.959  21.844  16.956  0.2283  0.0280 -0.0151
46077W        W89068  28.068   8.868   1.528 -0.2768  0.0697 -0.0754
46078W        W89069  12.671  16.702  14.936 -0.1063 -0.0407  0.3194
46079W        W89070   9.019  23.724   6.219 -0.2882  0.2206  0.0623
46080W        W89071  19.529  15.699   2.832  0.2062  0.1885 -0.1299
46081W        W89072   9.687  14.473  27.653 -0.0847  0.2059  0.1328
46082W        W89073  29.733  13.723   2.142  0.1099  0.0477  0.2398
46083W        W89074  12.302  30.678   6.844  0.0196 -0.0515  0.0918
46084W        W89075  34.298  20.520   4.986  0.1219 -0.1240  0.1661
46085W        W89076  27.702  30.625  26.135 -0.1040 -0.1742  0.0370
46086W        W89077  12.177  18.316   3.060  0.2490  0.0809  0.2337
46087W        W89078   8.551   6.015   7.438  0.0858  0.2605  0.2979
46088W        W89079  10.721  26.867   0.284  0.0093  0.0668 -0.0194
46089W        W89080  23.497  24.320  15.214  0.1510  0.0561  0.1272
46090W        W89081   4.225  28.043  13.961  0.1152  0.0642 -0.1829
46091W        W89082  33.252  25.573   6.453 -0.1049  0.2857  0.3228
46092W        W89083  30.077  20.077  15.593  0.0268  0.0102 -0.0846
46093W        W89084  16.918  22.685   8.449  0.3780  0.2929  0.2604
46094W        W89085   1.413  20.044  27.134 -0.3128  0.3435  0.4326
46095W        W89086   0.734  22.122  26.594  0.1241 -0.1437  0.1439
46096W        W89087  27.119   7.179  22.118 -0.4270  0.0157  0.0339
46097W        W89088  29.344  14.251   3.490  0.0186 -0.0727  0.1288
46098W        W89089   2.018  11.596   7.311  0.0320 -0.3586  0.1500
46099W        W89090  12.253  18.865   2.292 -0.1371  0.1640 -0.0326
46100W        W89091  24.222  31.624  27.615 -0.0107  0.5283 -0.0304
46101W        W89092  32.191  27.193   1.787 -0.3447 -0.0912  0.2272
46102W        W89093   2.512  22.448  26.594  0.0411 -0.2649  0.0940
46103W        W89094  31.919  24.378  16.913 -0.1677  0.1910 -0.1741
46104W        W89095   1.322  18.946  19.673  0.1294 -0.0089  0.0465
46105W        W89096  19.669  10.692  27.332 -0.0994 -0.0349 -0.0124
46106W        W89097  30.216  20.205  26.704  0.1873 -0.0346 -0.0705
46107W        W89098   1.557  32.112  22.139 -0.1914 -0.1037  0.2320
46108W        W89099  24.920  18.413  22.201 -0.0055 -0.4351  0.0157
46109W        W89100  29.678  15.117  10.561 -0.1267 -0.2820 -0.3338
46110W        W89101   1.932  13.915  26.580  0.0145  0.1797  0.1854
46111W        W89102   6.649   9.503   5.342  0.0147 -0.0190 -0.1856
46112W        W89103  21.754  31.624   5.928  0.1191  0.1724  0.1004
46113W        W89104  22.476  29.183  24.747  0.1065  0.2730  0.0222
46114W        W89105   1.086   1.182   4.894  0.3531 -0.1226 -0.0296
46115W        W89106  11.006  13.475  26.119 -0.1607 -0.0379 -0.0941
46116W        W89107  28.495  22.572  22.439  0.1712 -0.1214  0.1510
46117W        W89108  32.200  22.941  21.131  0.1189  0.0621  0.2449
46118W        W89109   2.948  11.013  11.160 -0.0340 -0.2157 -0.0074
46119W        W89110  32.528  12.630   5.314 -0.0595 -0.0383 -0.0713
46120W        W89111  26.340  18.150  15.990 -0.1886  0.1770  0.1020
46121W        W89112   3.982  14.711  22.368  0.1579  0.1576  0.1973
46122W        W89113  30.233  27.987   3.125 -0.1881 -0.2664  0.1026
46123W        W89114   0.382  24.507   5.134  0.4270  0.1608 -0.2389
46124W        W89115  16.728  24.105   1.405  0.3160  0.2116  0.2472
46125W        W89116  24.494  25.687  28.546 -0.2184  0.0702 -0.1065
46126W        W89117  23.172   5.608  19.068  0.2916 -0.0003 -0.0850
46127W        W89118  33.065  17.111  21.135 -0.2547  0.2930 -0.1027
46128W        W89119  13.145   4.559   1.200  0.1411  0.1845 -0.0400
46129W        W89120  14.025  20.478  28.841 -0.3407 -0.0803 -0.4471
46130W        W89121  30.749  20.870  28.235  0.0492  0.1978 -0.1871
46131W        W89122   0.945  25.475   8.293 -0.0242  0.1202  0.1472
46132W        W89123   4.100  23.411   9.547  0.0301 -0.0457  0.0920
46133W        W89124  34.540  29.982  25.521 -0.1042 -0.1463 -0.0911
46134W        W89125  18.205  22.044   5.360 -0.3594 -0.0934 -0.1233
46135W        W89126  18.378  12.867  25.465 -0.0798  0.1204  0.2243
46136W        W89127   3.074  25.982   6.500  0.3223 -0.1110  0.3619
46137W        W89128   2.850  15.310   7.634 -0.1893 -0.0377 -0.2080
46138W        W89129  30.108  17.320  16.778  0.0051 -0.0779 -0.3367
46139W        W89130   6.069   5.243  15.638  0.2569  0.0310  0.2151
46140W        W89131  13.790  26.172   3.348 -0.1275  0.1191  0.1586
46141W        W89132   0.354  23.809   2.577  0.1486 -0.4064 -0.1843
46142W        W89133  32.041  33.333   9.534  0.1712  0.0103  0.1263
46143W        W89134  27.025  17.643  27.581  0.1791  0.2266 -0.1447
46144W        W89135  26.429  17.788  21.879 -0.3628  0.1430 -0.0759
46145W        W89136  26.045  22.409  26.761  0.0694 -0.6371  0.0292
46146W        W89137  24.907  16.098  23.950  0.0063  0.4046 -0.0753
46147W        W89138   0.064  24.184   1.490  0.1783  0.0831  0.0762
46148W        W89139  27.709  24.121   9.536  0.1594  0.0854  0.1511
46149W        W89140  31.720  20.715  25.282  0.0635 -0.1407  0.1380
46150W        W89141   5.009   1.180  28.466 -0.0482 -0.0129 -0.3471
46151W        W89142   8.575   4.999  26.111  0.0204 -0.1318 -0.1365
46152W        W89143  28.256  29.689   5.588 -0.1882 -0.0006 -0.0880
46153W        W89144   4.845  32.524  24.841 -0.2657  0.1481  0.0093
46154W        W89145  34.443   2.395  20.709 -0.0649  0.1251  0.0853
46155W        W89146   7.974  16.101   1.767  0.1981 -0.0490 -0.0786
46156W        W89147   8.702  14.876   5.102  0.1975  0.2445 -0.0010
46157W        W89148  25.113  17.955  18.332 -0.2522 -0.1819  0.0198
46158W        W89149  18.977  20.190  16.891  0.1221  0.2216  0.0073
46159W        W89150  34.441   2.310  29.020  0.3638  0.0080  0.1295
46160W        W89151   9.310   7.716   9.821  0.1691 -0.0979 -0.1870
46161W        W89152  34.486  25.234   9.799  0.0605  0.0096  0.0947
46162W        W89153  10.656   2.851   9.626  0.2527 -0.1181 -0.0543
46163W        W89154   0.818  34.360   7.691  0.2186  0.1201  0.0735
46164W        W89155   3.369  14.610   1.934  0.0672  0.0145  0.0162
46165W        W89156  23.708  16.612   7.301  0.0258  0.0987 -0.2997
46166W        W89157  27.857  18.783  25.429 -0.3648 -0.1719  0.3155
46167W        W89158  29.914  14.421   1.363  0.0492  0.0239  0.0809
46168W        W89159  26.662  20.803   1.233  0.0814 -0.1420  0.0101
46169W        W89160  22.185  11.192   4.485 -0.0821  0.1857  0.2667
46170W        W89161  27.963  13.440   4.462 -0.0916 -0.0970  0.0082
46171W        W89162   4.354  26.243   2.016 -0.0436 -0.0371 -0.2463
46172W        W89163   8.399  17.970   1.966  0.0111  0.0718 -0.4618
46173W        W89164  28.539  14.160  25.756  0.0869 -0.0345 -0.1217
46174W        W89165  16.500  28.490   4.710 -0.0854 -0.1211  0.2090
46175W        W89166  31.206  14.264  10.701  0.0427 -0.2675 -0.1431
46176W        W89167  15.518  27.010  22.933 -0.2788 -0.1373  0.1768
46177W        W89168  13.254  28.025  23.515 -0.3061  0.0775  0.0463
46178W        W89169   3.741  21.420   2.144 -0.2069 -0.2068  0.0285
46179W        W89170  31.234  10.932   5.076 -0.0958  0.2206 -0.0125
46180W        W89171  16.962  16.202  28.740  0.0217 -0.0154 -0.1631
46181W        W89172  28.440  13.026  21.995 -0.0020 -0.1276 -0.1283
46182W        W89173  27.516  12.629  27.713  0.0933 -0.2831  0.1534
46183W        W89174  31.775  12.416  10.987 -0.0256  0.0231 -0.1973
46184W        W89175   2.079   4.952  21.429 -0.1443  0.1130  0.3602
46185W        W89176  21.708  10.701   0.434 -0.1952 -0.0861 -0.0538
46186W        W89177  25.060  18.623  19.267  0.0015  0.0435 -0.0101
46187W        W89178   2.391  17.619   3.757  0.2427 -0.1541  0.1173
46188W        W89179   8.520  22.509   7.544  0.1735  0.4885  0.1220
46189W        W89180   4.888  25.381  18.758  0.0255 -0.2640 -0.0715
46190W        W89181   3.332   0.074  28.886 -0.2806  0.1059 -0.3323
46191W        W89182  13.585   3.836  26.434 -0.4361  0.0526  0.0677
46192W        W89183  24.528  25.294  28.948  0.1710 -0.3795  0.1771
46193W        W89184  28.125  21.429  22.357  0.0923  0.1613  0.1570
46194W        W89185   1.729  11.399  26.132  0.2510 -0.0455  0.0989
46195W        W89186   1.567  31.468   7.475  0.1699  0.0037  0.2032
46196W        W89187  33.847  22.734   4.698 -0.0355  0.2181  0.0557
46197W        W89188  15.035  13.817   3.347  0.1608 -0.0598 -0.3185
46198W        W89189   4.372  26.638  23.744 -0.1670  0.1204 -0.0918
46199W        W89190   6.889  32.917  23.782  0.1614 -0.2466 -0.2648
46200W        W89191  34.258  23.294  25.109 -0.0791  0.2525 -0.2608
46201W        W89192  33.786  23.397   6.912 -0.0673 -0.2267 -0.0104
46202W        W89193   5.171  16.143   4.986 -0.0700  0.1166 -0.2725
46203W        W89194  19.938  28.462   3.709  0.0406  0.0510 -0.0387
46204W        W89195   3.975  21.506   4.623 -0.1528 -0.2750 -0.0892
46205W        W89196  29.725  16.935   7.327 -0.2110  0.1428  0.0750
46206W        W89197  32.141  34.314   8.502 -0.0568  0.0603 -0.2709
46207W        W89198  28.476  26.879  20.975  0.2199  0.2090  0.0967
46208W        W89199  27.487  26.246   5.291  0.0726  0.0657 -0.0108
46209W        W89200  17.614  25.574  17.886 -0.1915  0.0772 -0.4050
46210W        W89201  30.186  18.610   5.064  0.0219 -0.0674  0.0201
46211W        W89202  12.836   3.240   5.951  0.0826  0.0357  0.1850
46212W        W89203  26.979  19.344   4.497 -0.2670  0.1636 -0.1587
46213W        W89204   7.828  23.138  20.852 -0.1444  0.0065 -0.1119
46214W        W89205  25.990  17.440   7.184  0.0887 -0.2094 -0.4048
46215W        W89206  21.877  14.897   0.655  0.4181  0.0405 -0.2487
46216W        W89207  25.411  27.198   2.535  0.1606  0.0625 -0.0614
46217W        W89208   1.502  16.908  28.120 -0.2315 -0.0995 -0.1677
46218W        W89209   1.026  19.740  20.220  0.0096 -0.0672 -0.1948
46219W        W89210  26.441  19.978   0.424 -0.0475 -0.1024 -0.0865
46220W        W89211  13.492   9.744   4.253 -0.2341 -0.3008  0.1799
46221W        W89212  31.480  26.715  23.480 -0.2175 -0.3866 -0.0143
46222W        W89213  23.230  25.885  27.003 -0.0195  0.2076 -0.1996
46223W        W89214   8.416  28.909  18.285 -0.0623 -0.2185  0.2942
46224W        W89215   3.902  17.753  15.559 -0.1432  0.1541  0.0061
46225W        W89216  20.592  29.283  22.096  0.0824  0.2212  0.0705
46226W        W89217   9.526   8.670  10.337 -0.1058  0.3348  0.3184
46227W        W89218  29.775  27.971  28.072 -0.1674  0.1273  0.0187
46228W        W89219   5.558  15.315   0.012  0.1762 -0.2094 -0.0655
46229W        W89220  32.245  10.528   2.809  0.1308  0.3383 -0.1200
46230W        W89221  26.945   2.064   5.868 -0.1186 -0.0133  0.1811
46231W        W89222  16.223  34.552  26.049  0.1477  0.1455  0.5124
46232W        W89223  29.353  23.303   5.366 -0.0247 -0.2030  0.0518
46233W        W89224  31.538  14.534  26.852  0.1184 -0.3183  0.2970
46234W        W89225  32.009  29.039  27.980  0.0567 -0.0878 -0.0986
46235W        W89226  32.099  22.123   8.816 -0.1918  0.1739  0.1913
46236W        W89227   0.221  17.452   8.385 -0.0788  0.2433 -0.1771
46237W        W89228   1.404  24.269   8.488 -0.1467  0.1847  0.1608
46238W        W89229  10.374  15.850  26.698  0.2662  0.3083 -0.3063
46239W        W89230  24.163   2.822  23.146 -0.0432  0.0989 -0.1618
46240W        W89231  33.986  23.244   1.180  0.1162  0.1978 -0.1303
46241W        W89232  26.918  15.268   8.057  0.0117  0.3011  0.0618
46242W        W89233  22.191  29.597   4.224 -0.1929 -0.0654  0.1306
46243W        W89234  19.211  24.768   5.348  0.0874 -0.2173 -0.1333
46244W        W89235  24.840  24.812   6.445 -0.3914  0.0328  0.0947
46245W        W89236  28.537  23.187   9.582 -0.1090 -0.0824 -0.2740
46246W        W89237  19.107  30.534  14.370 -0.2069 -0.2774 -0.1414
46247W        W89238   7.635  13.652   9.619  0.0013 -0.0918 -0.3262
46248W        W89239   6.027  18.779  11.022  0.1126 -0.3245 -0.0095
46249W        W89240  30.514  13.306  11.162 -0.3727 -0.2127  0.2070
46250W        W89241  27.376  12.031  19.477 -0.1682  0.0218 -0.0505
46251W        W89242  27.120  23.903   3.351  0.1071  0.1682  0.0365
46252W        W89243  22.182  11.994   7.370 -0.0045  0.1038  0.1917
46253W        W89244  17.310  29.559  21.530  0.1542 -0.3805 -0.1582
46254W        W89245   5.936   7.882   6.916  0.0091  0.3021  0.0487
46255W        W89246  28.187  19.611   1.669  0.1738  0.0571 -0.0882
46256W        W89247   5.808  23.932   5.705  0.0564 -0.2206  0.0276
46257W        W89248  19.261   9.082   1.609 -0.2427  0.0543 -0.0518
46258W        W89249   0.854  34.208   9.168 -0.0030  0.0457 -0.0452
46259W        W89250  26.204  13.405   6.228  0.2173 -0.5327 -0.2228
46260W        W89251  26.855   4.381   8.920  0.0163  0.0475 -0.2547
46261W        W89252  34.391  30.632   9.288  0.0308  0.1456 -0.2277
46262W        W89253   6.765  27.958   9.731  0.4193  0.2943  0.0528
46263W        W89254  20.042   3.501   7.384 -0.3059  0.0901 -0.2641
46264W        W89255   0.611  10.565   3.721  0.2951  0.1784  0.2049
46265W        W89256   4.769  20.397   6.109  0.0716  0.0641 -0.0075
46266W        W89257   2.517  32.021  29.181 -0.0629  0.1410 -0.0828
46267W        W89258  23.749  21.034  27.772 -0.1061  0.0557  0.2160
46268W        W89259  34.029   2.918   5.861  0.4512  0.2253  0.0623
46269W        W89260  20.221  29.403   8.306  0.0712 -0.1174 -0.0876
46270W        W89261  21.452  28.689   2.444 -0.1844  0.0779  0.2838
46271W        W89262  31.506  19.781   5.032  0.1511 -0.5443  0.1345
46272W        W89263  30.686  29.176   0.705  0.4323  0.3725 -0.1112
46273W        W89264  34.047   1.048  21.516 -0.0148 -0.1260 -0.0428
46274W        W89265   8.187  19.650  29.029 -0.2225  0.1916  0.1120
46275W        W89266   5.653  17.633   8.142 -0.0265  0.2047 -0.0951
46276W        W89267  32.934  19.533   1.617  0.1383  0.1442 -0.2284
46277W        W89268  32.625  26.971  25.178  0.0160 -0.2948 -0.0977
46278W        W89269  31.647  34.708   4.671 -0.0636 -0.1042 -0.1319
46279W        W89270  20.603  17.634   1.424  0.0490  0.0833  0.3904
46280W        W89271   3.979  26.880  22.115 -0.1504  0.0543 -0.2952
46281W        W89272  23.028  27.019   2.006  0.0993  0.1376 -0.1392
46282W        W89273   3.663   9.723  26.927  0.1663 -0.1599  0.2506
46283W        W89274  10.472  26.154  26.301 -0.0355 -0.0058  0.2068
46284W        W89275  33.770   5.539   2.160  0.2102 -0.0982 -0.2828
46285W        W89276  32.152  31.463   2.370 -0.1498 -0.1430 -0.0758
46286W        W89277  11.424  26.882  25.857 -0.1297 -0.3884  0.2257
46287W        W89278  33.850  26.377  25.776 -0.1619  0.0458  0.3427
46288W        W89279  26.375  14.377   6.573  0.0264 -0.1695  0.0334
46289W        W89280  32.466  28.052   5.300 -0.0800  0.1722  0.1751
46290W        W89281  30.790  32.435  26.504 -0.1656  0.1955 -0.1316
46291W        W89282  30.883  21.629  25.929 -0.2044 -0.0205  0.0804
46292W        W89283   1.599  17.687  10.252 -0.1436  0.0219  0.0765
46293W        W89284  29.660  10.657   0.760 -0.1246 -0.1259  0.0124
46294W        W89285  23.679  23.523   5.328 -0.0114 -0.0889 -0.0170
46295W        W89286   5.018  26.095   4.352  0.1253  0.0222 -0.2272
46296W        W89287  24.125   0.446  28.393  0.3554 -0.2267 -0.2308
46297W        W89288   1.367  26.711  19.390 -0.0315  0.0294 -0.1177
46298W        W89289   3.690  19.769  18.095 -0.0472  0.2307  0.0469
46299W        W89290   3.753  19.675   7.493 -0.2202  0.0201  0.2608
46300W        W89291   8.605  21.596  24.355 -0.0358 -0.0521  0.1338
46301W        W89292  29.242  20.700   3.442  0.1118  0.2158  0.0849
46302W        W89293  32.017  17.090   4.480 -0.2502 -0.2466  0.2213
46303W        W89294  34.682   5.675   1.674  0.2043 -0.1245  0.0314
46304W        W89295  33.874  28.172  28.225  0.2072 -0.1501  0.0719
46305W        W89296   0.585  28.298   2.595 -0.2749  0.2182 -0.1758
46306W        W89297  33.394  26.074   9.181 -0.1967  0.0630 -0.0262
46307W        W89298  22.887  31.054   1.880 -0.0400  0.2120  0.0584
46308W        W89299  12.348  18.429   7.469  0.2031 -0.3292  0.0752
46309W        W89300   5.523  16.817   4.266 -0.0080 -0.2490  0.1271
46310W        W89301  19.409  23.718  22.791  0.4030 -0.0630  0.0821
46311W        W89302  33.612  26.877   4.008  0.1655 -0.3502  0.0353
46312W        W89303  25.560   7.666  20.680 -0.1859 -0.1342  0.2356
46313W        W89304   2.375   3.072   1.776  0.0913 -0.2934 -0.0043
46314W        W89305  12.387  11.532   9.628 -0.3757 -0.0572  0.2035
46315W        W89306  32.569  16.321   2.117 -0.2176  0.1530  0.2223
46316W        W89307  23.426  19.977   3.462 -0.0798 -0.0697 -0.0125
46317W        W89308  22.495  23.362   0.287  0.0473 -0.0813 -0.0093
46318W        W89309  29.543  28.143  24.869 -0.1405 -0.0033  0.3725
46319W        W89310  33.570  29.553  26.464  0.1552  0.1226  0.0976
46320W        W89311  17.230  14.819   2.966  0.1338 -0.3439 -0.4498
46321W        W89312  27.412  34.619   1.281 -0.0250  0.3817 -0.2014
46322W        W89313  25.491  30.685  23.281 -0.0906 -0.0333  0.1529
46323W        W89314  21.977  30.910   1.579  0.1771  0.0495  0.1635
46324W        W89315   2.451  14.391  10.206 -0.0652  0.1629  0.3217
46325W        W89316   0.645   2.286   6.545  0.0416 -0.3092  0.0997
46326W        W89317  33.149  26.669   3.288 -0.1182  0.2494 -0.0904
46327W        W89318  12.527  15.641   6.645  0.3224 -0.0250 -0.2299
46328W        W89319  20.438  23.470  28.995 -0.1560  0.3284  0.1513
46329W        W89320   1.085  28.618   6.007  0.0806  0.1982  0.1983
46330W        W89321  17.444  30.493  10.045  0.0231  0.5369 -0.0786
46331W        W89322   0.335  11.939  10.328  0.0116  0.1196 -0.1119
46332W        W89323  17.009  20.140  28.439  0.0488  0.0785 -0.4623
46333W        W89324  32.760  20.747   1.039 -0.0436  0.0010  0.2607
46334W        W89325  17.831  20.021  22.404 -0.1592 -0.0580  0.4016
46335W        W89326  21.000  18.555   0.201  0.0900  0.0695 -0.3569
46336W        W89327  26.012  14.742   3.224 -0.0701 -0.0604 -0.1577
46337W        W89328   0.073  21.184   2.088  0.3268  0.1947 -0.0653
46338W        W89329  26.778  17.268  26.612  0.0849  0.0666  0.1410
46339W        W89330  33.625  25.918   0.660 -0.2160  0.2014 -0.1113
46340W        W89331   3.836  18.155   6.093 -0.0064  0.2281 -0.1802
46341W        W89332  30.184   2.626   0.102 -0.0543 -0.1978 -0.0210
46342W        W89333   2.295  24.596  28.235  0.0366 -0.0903  0.0312
46343W        W89334  32.577  33.728  29.125  0.1109 -0.1787 -0.0209
46344W        W89335  26.556  20.364  26.207 -0.4992  0.2379  0.0179
46345W        W89336  16.089  24.892   7.084  0.0035  0.0216 -0.2412
46346W        W89337   4.914  22.097   6.525  0.0140  0.1274  0.1164
46347W        W89338  29.597  25.823   8.640  0.0331 -0.2422  0.0933
46348W        W89339  11.368   8.075   6.155 -0.0324 -0.2774  0.1376
46349W        W89340  18.687  15.553  15.089 -0.0652 -0.3378  0.1228
46350W        W89341  33.680  20.356   7.593  0.0416 -0.1196  0.2217
46351W        W89342  11.491  16.384   2.402  0.0310 -0.0526 -0.2235
46352W        W89343  32.013  16.490  20.908 -0.1170  0.1376  0.1066
46353W        W89344   2.844  25.385   6.314 -0.2156  0.2347 -0.1617
46354W        W89345  25.441  13.364  23.557  0.0144 -0.1236 -0.1674
46355W        W89346  11.351  12.077   2.129  0.0727 -0.0784  0.1036
46356W        W89347  15.130  22.002   7.003  0.0887 -0.1343  0.1900
46357W        W89348  18.894  33.979  16.103  0.0060  0.2453 -0.3285
46358W        W89349  15.705   9.497   4.869 -0.0727  0.0075  0.1769
46359W        W89350  27.948   5.401  26.229 -0.1796  0.1446  0.0964
46360W        W89351   0.017  21.701   1.054 -0.1356  0.1530  0.1499
46361W        W89352  27.827  31.672   2.447  0.2209  0.1889  0.2382
46362W        W89353  30.672  34.023  13.206  0.0686  0.0220 -0.0599
46363W        W89354  27.582  27.800   6.333  0.2141 -0.0742  0.0217
46364W        W89355  26.913  34.484  27.569 -0.1984  0.0360 -0.1405
46365W        W89356  32.213  21.506   3.420 -0.0516 -0.2195  0.1102
46366W        W89357  33.172  17.838  20.599 -0.1527  0.0762  0.2390
46367W        W89358   9.644  26.679  15.646  0.3573  0.5320  0.0035
46368W        W89359   5.032  15.586   9.088 -0.0039  0.1432 -0.0635
46369W        W89360  14.793  19.447   0.665 -0.3720  0.2247 -0.2494
46370W        W89361   0.001  13.055   4.602  0.0725 -0.2304  0.0890
46371W        W89362   9.752  24.514   3.113 -0.1543 -0.0144 -0.1758
46372W        W89363  30.132  18.805  24.082  0.3237 -0.3365  0.0929
46373W        W89364  29.793  15.962  27.012 -0.2625  0.1561  0.1352
46374W        W89365  34.305  12.881  10.820  0.2725  0.0446 -0.1174
46375W        W89366  26.163  27.315  27.179  0.1831  0.0398  0.2148
46376W        W89367  21.897   4.547  23.918  0.2464  0.1730 -0.2350
46377W        W89368  30.837  18.976   3.418  0.2457  0.5064 -0.2442
46378W        W89369  31.801  20.655   6.630 -0.1526  0.1821  0.0362
46379W        W89370   0.078  21.285   1.388 -0.1379  0.0086  0.0896
46380W        W89371  21.349  18.340  19.710  0.2113 -0.0502  0.0868
46381W        W89372   2.346  14.780   0.746 -0.1508  0.2108  0.0521
46382W        W89373  24.521  13.287  22.434  0.1264 -0.1373  0.2319
46383W        W89374   5.860  12.636   2.891  0.0761 -0.1611 -0.1403
46384W        W89375   8.413   5.867   2.680  0.2761  0.0219  0.0716
46385W        W89376  29.857  25.564  26.980  0.1068 -0.4318  0.0508
46386W        W89377   6.048  15.204  10.770  0.0465 -0.2399  0.0243
46387W        W89378   5.565  30.767  17.791 -0.1328  0.2682 -0.1836
46388W        W89379   5.183  26.346   9.164  0.2042  0.0381  0.0544
46389W        W89380   9.208  26.480   2.991  0.1782 -0.0812  0.2952
46390W        W89381   8.027  17.318   4.907 -0.0131 -0.0157  0.0389
46391W        W89382  23.417  15.977   1.843  0.4016  0.2590 -0.1582
46392W        W89383  28.786  21.967  24.220 -0.2280 -0.1288 -0.0988
46393W        W89384  17.522  14.535   7.000 -0.0815  0.0918  0.0802
46394W        W89385  29.487  23.755   1.449  0.0315  0.1470 -0.1039
46395W        W89386  23.591  15.650   8.516  0.0440  0.0959 -0.0636
46396W        W89387  31.615  28.291   5.784  0.0787  0.1398  0.0366
46397W        W89388  10.209  31.328   7.639  0.0829 -0.3684  0.2150
46398W        W89389  24.217  29.874   7.580  0.0097  0.0666 -0.2282
46399W        W89390   7.343  14.225   2.679 -0.2019 -0.0282  0.1703
46400W        W89391   7.328  26.861   4.142  0.0750  0.0165 -0.1825
46401W        W89392  30.048  15.531   3.531  0.1310 -0.0860 -0.1522
46402W        W89393  17.627   9.024   8.715 -0.2409  0.2769 -0.0518
46403W        W89394  13.138  14.694   0.783  0.3488 -0.1858 -0.0940
46404W        W89395   1.361   2.833   0.409 -0.2012  0.2507  0.1867
46405W        W89396  33.868  14.789  15.890 -0.1106  0.1547  0.0392
46406W        W89397   6.251  27.931   8.384  0.0441 -0.1443 -0.1225
46407W        W89398   0.922  12.934   3.500  0.2776  0.1030 -0.1351
46408W        W89399   6.759  11.291  25.782  0.2265  0.1250  0.1007
46409W        W89400  13.868  21.792   7.489  0.1157 -0.3258  0.0094
46410W        W89401  21.392  33.466  22.688 -0.3490 -0.2141 -0.0002
46411W        W89402   4.850  10.445   4.664  0.1188 -0.1492  0.0519
46412W        W89403   0.805  11.471  18.751  0.0646 -0.0051  0.0184
46413W        W89404  29.959  18.773  27.173 -0.0348  0.0048 -0.3648
46414W        W89405  24.650  11.455   7.897 -0.0552 -0.1130 -0.1088
46415W        W89406  30.112   4.250   3.179 -0.1519 -0.0318 -0.0787
46416W        W89407  23.499  25.519   2.390 -0.0991 -0.0603  0.2020
46417W        W89408  10.137  24.699  28.767 -0.3652  0.0523  0.0034
46418W        W89409  12.266   8.839   2.770 -0.0055  0.1164  0.1277
46419W        W89410  32.633  26.703  19.508  0.3116  0.0849 -0.0043
46420W        W89411   3.239   3.949   6.939  0.0541 -0.3494  0.3527
46421W        W89412  32.685  16.301   3.612 -0.0462 -0.2119  0.1723
46422W        W89413   7.884  13.921  26.469 -0.1446 -0.0820 -0.2514
46423W        W89414   0.224  22.980  26.391 -0.1890  0.4598  0.1707
46424W        W89415  25.359  10.555   0.126 -0.0166  0.1018  0.1219
46425W        W89416  32.700  20.390   9.517  0.1945 -0.1659  0.1688
46426W        W89417  27.520  15.439   2.205 -0.2737 -0.1223 -0.1143
46427W        W89418  12.298  18.474   6.419 -0.3306 -0.2029  0.0094
46428W        W89419   7.363  10.354  27.755  0.2120  0.0997 -0.0583
46429W        W89420  17.125  25.959   5.642 -0.1389  0.3551  0.2904
46430W        W89421   1.394  22.794   5.207 -0.3368  0.0796  0.0601
46431W        W89422  27.611  27.148   4.485 -0.1523  0.3169  0.3093
46432W        W89423  27.555  16.053   8.926 -0.1706  0.3555  0.1169
46433W        W89424  34.278   9.577  11.812  0.1637  0.0862  0.0059
46434W        W89425   0.539  11.381  11.047  0.0402  0.0697 -0.0961
46435W        W89426  24.643  28.152  18.048 -0.0909 -0.0022 -0.2341
46436W        W89427  18.465  13.998   9.501 -0.0839 -0.0331  0.0866
46437W        W89428  15.118  22.475  25.556  0.3019  0.1375 -0.2883
46438W        W89429   0.841  25.073   6.213 -0.1305  0.2504 -0.2265
46439W        W89430  22.585  12.717  20.012  0.4537  0.0011 -0.0766
46440W        W89431  30.940  18.573   3.679  0.0511 -0.1731 -0.0765
46441W        W89432  33.635  19.965  28.108  0.2901 -0.0272 -0.1347
46442W        W89433  19.011   3.515   6.897  0.0664 -0.1191 -0.0970
46443W        W89434   7.878  17.026   7.089 -0.1566  0.3478 -0.1118
46444W        W89435  23.911  19.521  24.434 -0.2555  0.0548  0.0515
46445W        W89436  33.584  16.290   6.200 -0.3219  0.3109 -0.3157
46446W        W89437   0.561  19.819  28.769 -0.3328  0.1382  0.2828
46447W        W89438  30.024  15.082   4.426 -0.1474  0.2662 -0.0801
46448W        W89439  34.335  21.598  27.183  0.0983 -0.0167 -0.3481
46449W        W89440  11.582   9.447   2.308 -0.2441 -0.1359  0.0029
46450W        W89441  28.135  27.295  24.143  0.2737 -0.2640 -0.2027
46451W        W89442  29.291  17.021  27.604  0.0223 -0.4578  0.3321
46452W        W89443   8.682  22.793  24.148  0.0844 -0.0433 -0.1551
46453W        W89444   3.351  16.525  18.471 -0.3087  0.1818  0.1744
46454W        W89445  25.389   1.307   0.034  0.2753 -0.0488 -0.0373
46455W        W89446  18.338   7.071  27.900 -0.0920  0.0860  0.2251
46456W        W89447   7.124  24.647   9.317 -0.2936 -0.0871  0.1536
46457W        W89448  18.386  19.836  18.294 -0.2536  0.0890 -0.2113
46458W        W89449  24.741   4.160   4.566  0.4422  0.5253  0.1200
46459W        W89450   0.760  28.353   5.265  0.2543  0.1165 -0.4442
46460W        W89451  14.251  14.477   2.769  0.2240  0.0378 -0.1407
46461W        W89452  31.643  11.541   6.141  0.0836 -0.1874  0.1776
46462W        W89453  27.919   9.951   8.902  0.1685 -0.0042 -0.1053
46463W        W89454   7.636   8.510  28.158 -0.0180  0.2049 -0.2117
46464W        W89455  22.553  33.703  28.009 -0.2959 -0.0990  0.2311
46465W        W89456  19.105  23.263  25.713  0.0920  0.0485 -0.5437
46466W        W89457   8.769  27.551   4.797  0.1126 -0.0054  0.0031
46467W        W89458  32.700  30.578  28.654 -0.0195  0.2379  0.0367
46468W        W89459   2.143  12.226  28.186 -0.3610 -0.1715  0.1104
46469W        W89460  23.061   7.193  26.373 -0.1492 -0.0311  0.2630
46470W        W89461  25.729  32.118   7.319 -0.1251  0.1653 -0.2083
46471W        W89462  28.083  22.094  17.385  0.1002 -0.1964  0.1438
46472W        W89463   8.396  21.789   9.930 -0.3649 -0.1221  0.3840
46473W        W89464  19.873  25.165  14.858  0.1426 -0.0861 -0.3820
46474W        W89465  33.411  13.730  20.618 -0.1402  0.5677 -0.1840
46475W        W89466  31.166  10.164   5.817 -0.0432 -0.1103  0.3145
46476W        W89467   7.173  30.393  27.281 -0.0975  0.0054 -0.4179
46477W        W89468   2.630   4.598  10.232 -0.2319 -0.0396 -0.1167
46478W        W89469  16.552  16.961  15.531 -0.0081  0.2008 -0.0144
46479W        W89470  18.694  14.704  20.882 -0.1584  0.1231  0.0485
46480W        W89471  12.499   9.300  26.512 -0.0098 -0.2829 -0.1845
46481W        W89472  20.449  21.258  26.144 -0.0635 -0.1137 -0.0651
46482W        W89473  30.431   8.744   8.670  0.0473 -0.4180 -0.1136
46483W        W89474  32.354  22.903   9.970  0.3461  0.1587 -0.0243
46484W        W89475   2.063   7.160   6.773 -0.3226 -0.2377  0.2300
46485W        W89476  30.151  25.271   7.827 -0.1532 -0.0978  0.0653
46486W        W89477  32.867  31.944  23.053 -0.0362 -0.0363 -0.2268
46487W        W89478   7.262  29.056   9.353 -0.1671 -0.1977 -0.0636
46488W        W89479  24.687  19.919  16.326 -0.0370  0.1572 -0.0671
46489W        W89480  26.198  22.547   9.491 -0.0503 -0.2803 -0.1044
46490W        W89481  32.642  16.132   7.167 -0.0834 -0.0879  0.1529
46491W        W89482   8.648   7.027   8.388 -0.0346 -0.0108  0.0234
46492W        W89483  11.851  16.436   8.721  0.0865 -0.2085 -0.1936
46493W        W89484  32.235   9.950   3.017 -0.0365 -0.1577  0.2385
46494W        W89485  18.378  29.361   9.449 -0.1422  0.1305 -0.0825
46495W        W89486  30.685  10.871   8.939 -0.0008  0.0784  0.1499
46496W        W89487  30.682  24.629   9.422  0.3023 -0.0069 -0.0336
46497W        W89488  25.019   9.206   1.529 -0.4589  0.3366 -0.0258
46498W        W89489  24.582  23.419   6.364  0.0718 -0.1001  0.0639
46499W        W89490   3.015   7.500  12.452  0.0119  0.0264  0.0633
46500W        W89491  27.990   2.236   7.886 -0.0882  0.5060 -0.1824
46501W        W89492  18.780  19.764   4.422  0.1332 -0.2987  0.2256
46502W        W89493   0.453  24.218   7.524 -0.0854  0.0126  0.3610
46503W        W89494  15.059  21.887  23.683 -0.1627 -0.2004  0.3586
46504W        W89495   2.587  26.868  15.593  0.1042  0.1757  0.3829
46505W        W89496  30.741   9.603   8.553 -0.0667 -0.0402 -0.2383
46506W        W89497  26.224  28.664  24.657 -0.0941 -0.2657  0.1353
46507W        W89498   2.786  22.362   1.054 -0.1244 -0.1631  0.0055
46508W        W89499  12.072  23.898  25.582  0.1717  0.1301 -0.0263
46509W        W89500  13.476  15.239   5.458  0.5143  0.0677 -0.1282
46510W        W89501  30.552  22.176  27.229  0.0276 -0.1535  0.4308
46511W        W89502   0.671  15.912   5.235  0.1704 -0.1173  0.1098
46512W        W89503   4.579  10.430   9.756 -0.0325 -0.2255  0.2201
46513W        W89504  23.215  16.954   4.398 -0.1342  0.0911 -0.1134
46514W        W89505   6.053  14.736  10.981  0.1629 -0.2066 -0.1630
46515W        W89506  10.071  28.320   2.103 -0.0336  0.0827  0.1387
46516W        W89507  27.083  10.557   9.522 -0.1653  0.0445 -0.0341
46517W        W89508  27.748  30.582   8.054  0.1957 -0.0220 -0.0092
46518W        W89509   5.529  18.999   8.523 -0.0464 -0.1466  0.1688
46519W        W89510  33.817  15.073   3.234  0.2419 -0.0788  0.2956
46520W        W89511  32.500  15.675  22.247  0.1702 -0.0411 -0.0106
46521W        W89512   5.805  23.046   8.782  0.1061  0.0101 -0.1281
46522W        W89513   0.558   7.980   5.172 -0.0500  0.1542 -0.1653
46523W        W89514  29.718   9.434   9.010 -0.0036 -0.0690  0.1666
46524W        W89515   7.444  25.841  14.571  0.3527  0.0844 -0.0759
46525W        W89516  13.951   8.343   6.572  0.1925  0.1372  0.1340
46526W        W89517  31.361  20.414  14.507  0.0331  0.2465  0.0537
46527W        W89518   4.145  16.693   6.272 -0.3133 -0.0090 -0.3602
46528W        W89519   0.902  30.837   7.082  0.3322  0.2626  0.0372
46529W        W89520  12.544  13.132   8.286  0.1361 -0.0199  0.2139
46530W        W89521   3.304  16.014   6.164  0.1112 -0.1488 -0.0601
46531W        W89522  24.817  20.558   7.116  0.1663  0.1422 -0.3079
46532W        W89523  21.762  12.201  22.751  0.1851  0.1204 -0.1001
46533W        W89524  33.846   3.315   2.279  0.2100 -0.1964 -0.0584
46534W        W89525  12.519   8.762   6.881 -0.1316  0.0034  0.0732
46535W        W89526   1.898   0.607  20.255 -0.1039 -0.1619 -0.4168
46536W        W89527  26.246  31.836  27.981  0.2325  0.5829 -0.0350
46537W        W89528  24.362  15.816  14.529 -0.1172  0.1535 -0.0882
46538W        W89529  28.106   0.952   5.473  0.1371  0.2322 -0.0436
46539W        W89530   8.084  21.003   5.240  0.1005  0.0546 -0.0351
46540W        W89531  21.747   8.079   0.451  0.0320 -0.1104  0.0042
46541W        W89532  27.224  30.274  25.015  0.0179 -0.3379  0.2016
46542W        W89533   2.753  27.488   9.953  0.2697 -0.3173 -0.0139
46543W        W89534  19.847  17.616  29.211  0.4266  0.0596  0.0203
46544W        W89535   9.107  21.184   7.814  0.0394 -0.1313 -0.1305
46545W        W89536  26.988   8.859  27.231 -0.3726 -0.0688 -0.0562
46546W        W89537  10.850  12.252   6.580 -0.0689  0.2505 -0.1203
46547W        W89538  31.355  20.848   6.875  0.1000 -0.0880  0.1443
46548W        W89539   5.986  12.283   8.487  0.2790 -0.0065  0.0224
46549W        W89540  21.312  21.872   2.052 -0.0232 -0.1556 -0.1134
46550W        W89541   0.310  15.384  25.537 -0.0484 -0.0766 -0.0162
46551W        W89542   7.505   4.559   5.785 -0.3463 -0.2824  0.0901
46552W        W89543  31.506  24.935  24.427 -0.0933 -0.1244  0.1761
46553W        W89544   3.839  17.823   1.268 -0.1710  0.0422  0.1088
46554W        W89545  27.767  27.009   6.761 -0.0946  0.4750  0.1064
46555W        W89546  26.047  23.102  26.065  0.1185  0.0143  0.2273
46556W        W89547   7.681  29.426   8.996  0.0720 -0.3045 -0.0541
46557W        W89548   9.646  13.555  25.589 -0.0281 -0.1592 -0.5352
46558W        W89549  19.437  13.671   6.644  0.0093 -0.0229 -0.1666
46559W        W89550  28.177  17.362   7.635 -0.1607  0.2127 -0.1312
46560W        W89551  28.130  23.441   7.329  0.0411  0.0933 -0.3017
46561W        W89552  29.432  25.714  26.353  0.4387  0.1438  0.1632
46562W        W89553   7.711  12.584  10.458 -0.2353 -0.1649 -0.0071
46563W        W89554   0.810   6.196  26.936 -0.0250 -0.1430  0.0221
46564W        W89555  29.804  30.286  23.481  0.0382 -0.0461  0.1075
46565W        W89556   1.793  25.834   9.483 -0.3859 -0.0972 -0.0335
46566W        W89557  29.906  17.678  27.642 -0.0097 -0.2797 -0.0616
46567W        W89558  33.185  22.689  27.500  0.1179  0.0952 -0.3418
46568W        W89559  32.186  15.531  27.646  0.2882  0.2101  0.0101
46569W        W89560  12.343  26.215  25.273 -0.2829 -0.2208 -0.1249
46570W        W89561   7.883  11.187   1.142 -0.2361 -0.1040 -0.0883
46571W        W89562  32.505   6.371  20.850  0.0361 -0.0341 -0.1918
46572W        W89563   7.226  15.242   7.485 -0.0824 -0.0982  0.2509
46573W        W89564  31.687  24.720   3.674 -0.3621  0.3108  0.1804
46574W        W89565   5.593  21.334  23.506 -0.3778  0.1539  0.1282
46575W        W89566  24.213  18.438   3.629 -0.1490  0.2562  0.1569
46576W        W89567  18.022  18.180  23.415  0.3233 -0.0836 -0.3568
46577W        W89568  24.514  17.622  21.223  0.1231 -0.1038 -0.1190
46578W        W89569  27.952  30.512  23.440  0.2323 -0.1449  0.2443
46579W        W89570   8.781   8.440  19.601 -0.2289  0.1250 -0.1174
46580W        W89571  17.732  21.021   0.357 -0.0706  0.1436 -0.1535
46581W        W89572  33.547  14.216   6.277 -0.0429 -0.2428 -0.0649
46582W        W89573  26.861  22.718   3.911 -0.0215 -0.3041 -0.1678
46583W        W89574  32.443   8.385   1.022 -0.4179 -0.1495  0.1082
46584W        W89575   5.079   8.847  10.599  0.2251  0.2154  0.0003
46585W        W89576   1.625   2.160  27.303  0.3485 -0.0368  0.0922
46586W        W89577   7.459  12.224  23.189 -0.2181 -0.0771 -0.0277
46587W        W89578   3.239  30.196   3.262  0.0608  0.1276  0.2258
46588W        W89579  15.841  31.197   9.282  0.0342 -0.0349 -0.3262
46589W        W89580   0.378  25.880  14.967 -0.2135 -0.0112 -0.2736
46590W        W89581   1.565  22.568  25.517  0.1027  0.0412 -0.1341
46591W        W89582   6.641  27.905   0.020 -0.2618  0.0946 -0.0213
46592W        W89583  28.834  19.558  23.467 -0.1593 -0.0686  0.0623
46593W        W89584  30.694  29.270  26.123  0.0782  0.0691  0.1234
46594W        W89585   7.765   9.493   5.384  0.2805 -0.0413  0.0401
46595W        W89586   5.052  22.889  23.117  0.1428 -0.0666  0.1197
46596W        W89587  24.018  19.596   1.456 -0.0704  0.0188  0.0808
46597W        W89588  29.885  18.019  28.602  0.1607 -0.3208 -0.2002
46598W        W89589  34.417   3.091  26.823  0.2169  0.0585 -0.3065
46599W        W89590  18.537  11.011   8.149  0.0190  0.1432 -0.2023
46600W        W89591  32.209  15.424   7.941  0.0673 -0.4061 -0.1086
46601W        W89592  31.558  17.807  28.719  0.0656 -0.2762  0.2510
46602W        W89593   3.356  22.086   7.308 -0.1250  0.2174 -0.1451
46603W        W89594  26.911  24.893   7.101  0.2073 -0.1218  0.1030
46604W        W89595  29.370  21.545   9.477 -0.0096 -0.0252  0.0090
46605W        W89596  34.135   1.319   2.952  0.1182  0.1338  0.4721
46606W        W89597  14.436  27.529   2.115 -0.0430  0.1343  0.3023
46607W        W89598   9.133  28.967   8.101  0.0445  0.1251  0.1733
46608W        W89599  19.177  14.620   5.068  0.0487  0.1577  0.1708
46609W        W89600   6.668  15.008   8.241 -0.1341 -0.0055 -0.1182
46610W        W89601  24.627  17.082   9.180 -0.1185  0.0060 -0.0848
46611W        W89602  27.103  10.275   2.762  0.1694 -0.0390  0.0919
46612W        W89603  28.006  22.606  26.616  0.0675 -0.2177 -0.0810
46613W        W89604  19.546  32.017   2.923  0.1595 -0.1149 -0.1396
46614W        W89605   4.239  26.206   8.214  0.1196  0.1911  0.2211
46615W        W89606  22.484   7.777   8.505  0.0185 -0.5293 -0.3203
46616W        W89607  30.933  30.066  25.913  0.0078 -0.1216 -0.0500
46617W        W89608   3.850  28.901   4.461  0.1319  0.0060  0.2047
46618W        W89609   2.956   8.016   8.292  0.3750 -0.2202 -0.0729
46619W        W89610  20.178   5.711   2.731 -0.1749  0.0803  0.3395
46620W        W89611   5.040  33.187  13.655 -0.0470 -0.0895  0.1235
46621W        W89612  17.792  23.232   3.571 -0.0124  0.2491  0.0457
46622W        W89613   2.554  14.971  28.919 -0.1646  0.4244  0.0040
46623W        W89614   4.717  15.491   1.657  0.3311 -0.1980  0.0525
46624W        W89615   1.585   7.416   5.822 -0.0757 -0.3294  0.1367
46625W        W89616  16.486  19.293  24.320  0.0385  0.0229 -0.0576
46626W        W89617  13.736  25.984   9.333  0.2168  0.0456  0.0276
46627W        W89618   9.174  21.096   1.039 -0.0539  0.3992 -0.0267
46628W        W89619  32.353   8.997   9.594  0.0727 -0.0177 -0.0421
46629W        W89620  28.990  15.810  28.511  0.2476  0.1311  0.1208
46630W        W89621  19.736  19.685   3.418 -0.1686 -0.1855 -0.2377
46631W        W89622  24.740   9.852  29.162  0.3679 -0.4509 -0.0225
46632W        W89623  14.985  27.381   8.721  0.0728 -0.1897  0.2652
46633W        W89624   7.284  26.937   7.850  0.0412 -0.0550 -0.1844
46634W        W89625  32.924  28.036   5.671 -0.2700  0.0437 -0.2855
46635W        W89626  32.558   0.419   6.014  0.0608 -0.0652  0.0347
46636W        W89627  33.051  27.276   9.215  0.0294 -0.1564  0.1769
46637W        W89628  13.099  33.620   2.561  0.1416  0.1423  0.0651
46638W        W89629  34.253  23.391   4.134 -0.0873 -0.0584 -0.2924
46639W        W89630  31.203  14.143   9.988 -0.1064 -0.2614 -0.1050
46640W        W89631  32.460  17.910   2.480 -0.1345  0.4785 -0.1111
46641W        W89632  20.766   9.941   4.265  0.1666 -0.3825 -0.2889
46642W        W89633  23.598  18.135   2.900 -0.1568  0.5334  0.2618
46643W        W89634  33.786  10.360   0.360  0.4357  0.1150 -0.2173
46644W        W89635  34.196  20.239   1.422  0.4284  0.0991  0.3469
46645W        W89636   2.170  19.276  29.073  0.0347 -0.0777  0.0105
46646W        W89637  18.206  10.866  23.642  0.5771  0.4031 -0.0209
46647W        W89638  30.480  22.182   8.773  0.1597 -0.4145 -0.0919
46648W        W89639  11.724  21.989  27.987 -0.0182 -0.1169  0.0186
46649W        W89640   7.879  18.655   4.652  0.1699  0.3785  0.1690
46650W        W89641  32.924  18.489   4.397 -0.1523  0.1560  0.1870
46651W        W89642   5.012  23.694   6.874  0.3445 -0.1908 -0.1932
46652W        W89643  30.191  32.201  27.892 -0.1013 -0.0041 -0.1808
46653W        W89644  34.731  20.928   1.072  0.0419  0.2278  0.0796
46654W        W89645   3.812  28.207   2.006 -0.0865 -0.0652 -0.1973
46655W        W89646  30.527  21.650   6.887 -0.0753  0.2179 -0.0896
46656W        W89647  19.656  17.474  27.558  0.0320  0.0979 -0.2022
46657W        W89648  17.176   5.804   0.859  0.3087  0.0063 -0.0759
46658W        W89649  26.296  10.983  18.081  0.2072 -0.5446  0.0374
46659W        W89650   0.707  10.200  27.221 -0.0605  0.2772  0.2577
46660W        W89651  16.508  20.831  22.712 -0.3283 -0.0796 -0.3198
46661W        W89652  31.205   1.692   8.264 -0.1497  0.1500  0.2752
46662W        W89653  23.422  31.044   1.814  0.1264  0.0833  0.2100
46663W        W89654   2.950  17.104  11.188  0.1754 -0.0344  0.1619
46664W        W89655  32.642  15.138   8.304  0.2384 -0.4735  0.0034
46665W        W89656  29.438  10.418   1.847  0.0533 -0.2006  0.3619
46666W        W89657  16.275  21.362   7.513 -0.1311 -0.2422  0.1991
46667W        W89658   1.519   0.132   8.734  0.2656 -0.3074  0.0484
46668W        W89659  29.959  15.411   8.714  0.5372  0.0759  0.0258
46669W        W89660   7.227  22.403  27.657 -0.1156 -0.1868  0.1185
46670W        W89661   5.847  14.159   4.052  0.0137 -0.1022 -0.0366
46671W        W89662  26.224   3.899  24.859 -0.1214  0.1450  0.1702
46672W        W89663  14.477  24.185  26.804 -0.0206  0.0900 -0.2898
46673W        W89664  33.839  27.785   5.202  0.0680 -0.0193 -0.1317
46674W        W89665  33.178  17.452   9.908 -0.0768  0.0779 -0.0431
46675W        W89666  22.403  19.152   1.652 -0.0092 -0.0432  0.0349
46676W        W89667   0.777  31.473  26.509  0.1868 -0.1619  0.1883
46677W        W89668  24.862  25.107   8.008 -0.2946  0.1736 -0.0456
46678W        W89669   1.980   5.697   9.616 -0.1426  0.0451  0.0826
46679W        W89670  27.194   9.035  17.337 -0.0028  0.0686 -0.3152
46680W        W89671  32.831  22.088   4.389 -0.3111 -0.4156 -0.0046
46681W        W89672  10.414  12.796  22.415  0.4593 -0.0803 -0.0756
46682W        W89673  10.822   8.603  10.529  0.0095  0.2434  0.1512
46683W        W89674   1.073  33.163   0.549 -0.0580  0.2718  0.2101
46684W        W89675  14.000  15.683  23.447  0.1401 -0.2839  0.2304
46685W        W89676  26.024  21.505   1.057  0.0830  0.0718 -0.1617
46686W        W89677  28.253   2.803   0.668  0.1628  0.4389  0.2430
46687W        W89678   6.409  24.188   0.757 -0.3038 -0.1249 -0.1080
46688W        W89679   1.840  12.572   8.079 -0.0335  0.0537 -0.3961
46689W        W89680   4.773  34.186   3.549  0.0352  0.4054 -0.0371
46690W        W89681  31.146  20.074   2.701 -0.1826  0.1952  0.2141
46691W        W89682  19.202  14.009   1.111  0.2006 -0.1302 -0.0161
46692W        W89683  12.930  22.590  26.498 -0.1126 -0.0563 -0.2471
46693W        W89684  19.587  19.634  20.387 -0.2041 -0.1238 -0.4166
46694W        W89685  20.703  16.694   1.160  0.1861 -0.0368  0.0103
46695W        W89686  16.212  13.035  18.567 -0.0045  0.1822  0.0053
46696W        W89687  31.495  13.720  23.066  0.1689 -0.1047  0.2755
46697W        W89688   3.721   4.051   0.146  0.0840  0.1037 -0.1916
46698W        W89689  34.715  25.075   1.461 -0.2149 -0.1114  0.0541
46699W        W89690  16.402  22.238   7.627 -0.0904 -0.2293  0.0500
46700W        W89691  23.010  15.882   3.948  0.1565 -0.0162 -0.3322
46701W        W89692  30.818  17.499  29.244  0.2943 -0.2242 -0.0972
46702W        W89693   0.485  32.453  27.534  0.3988 -0.2404  0.1511
46703W        W89694  27.921  21.978   6.572 -0.3537  0.0937 -0.0454
46704W        W89695   0.361  20.034   6.103 -0.3799 -0.0422 -0.0285
46705W        W89696   1.050  14.898   5.380  0.1579  0.0887  0.0893
46706W        W89697  32.338  33.466   1.312 -0.0494  0.0786 -0.0014
46707W        W89698  31.788  11.592   5.454  0.1277 -0.2599  0.0037
46708W        W89699  30.269  24.333   6.524 -0.0503 -0.1864  0.0331
46709W        W89700  31.390  20.580   5.124 -0.0363  0.1640  0.0975
46710W        W89701  34.000  30.335   0.692 -0.2011 -0.0042  0.1431
46711W        W89702   4.979  17.084   9.103 -0.2563  0.1959  0.0285
46712W        W89703  29.210  18.277  11.055  0.1559  0.0512 -0.0625
46713W        W89704  34.208  13.223   8.819  0.2048 -0.0203 -0.4573
46714W        W89705   7.255  16.204   5.005 -0.1718  0.1605 -0.1207
46715W        W89706  18.589  24.849   3.510  0.1073 -0.2341  0.0564
46716W        W89707  22.461  30.843   2.717 -0.0066 -0.1367 -0.1732
46717W        W89708   1.519  17.931   0.864 -0.0575  0.1550 -0.0440
46718W        W89709   8.549  29.491   4.707 -0.0655 -0.0892  0.3105
46719W        W89710   4.162  17.380  28.599  0.1657  0.1048 -0.2182
46720W        W89711  34.307  20.699   4.387  0.2123  0.2311 -0.2472
46721W        W89712  30.565  26.751  28.497 -0.0514 -0.0699 -0.0802
46722W        W89713   4.001  10.513  27.720 -0.2958 -0.0223  0.1192
46723W        W89714  16.090  21.161   4.078 -0.1174  0.0190 -0.2830
46724W        W89715   3.834  25.311  21.885  0.0655 -0.0475  0.0344
46725W        W89716  26.767   4.894   2.522  0.3053 -0.1456 -0.1579
46726W        W89717  17.269  22.631  23.157 -0.1476  0.0474  0.0339
46727W        W89718  29.627  14.930  28.417  0.1718  0.2225  0.1879
46728W        W89719  34.219  11.317  11.056  0.0189  0.2823  0.2512
46729W        W89720   6.491   8.431   8.342  0.1634  0.1695  0.2659
46730W        W89721  22.068  12.688   1.306 -0.2683 -0.0510  0.2850
46731W        W89722  24.895  31.233  20.215 -0.0560 -0.0847 -0.2118
46732W        W89723  15.781  13.343  13.952 -0.1215 -0.1421 -0.0871
46733W        W89724  32.174  19.871  22.835  0.4628 -0.0208 -0.0805
46734W        W89725  31.927  15.358  29.069 -0.3504  0.2155 -0.1088
46735W        W89726  33.364  20.472   2.497  0.2953 -0.0810  0.2082
46736W        W89727   1.052  10.048  25.791  0.0568  0.1249 -0.5765
46737W        W89728  33.887  23.827   9.541 -0.1503 -0.1362 -0.2469
46738W        W89729   0.743  14.671  12.311 -0.0305 -0.1535 -0.2007
46739W        W89730  25.636  16.342   1.645 -0.1782 -0.1706 -0.0077
46740W        W89731  31.320  19.689   5.661  0.0414 -0.1127  0.0849
46741W        W89732   1.395  12.749  10.934  0.4192  0.3415  0.2528
46742W        W89733  28.885  20.501   3.133 -0.1675  0.0220 -0.1387
46743W        W89734  32.964   9.884   9.397  0.1789 -0.0455  0.0730
46744W        W89735  20.525  29.043   1.863 -0.0147  0.1577  0.1262
46745W        W89736  14.834  14.189  14.146 -0.3035  0.1091 -0.1000
46746W        W89737  31.141  28.761   7.631  0.0328  0.3151  0.0299
46747W        W89738   6.167  16.512  10.816  0.0177 -0.3028 -0.1206
46748W        W89739   7.083  13.897   2.162 -0.2136 -0.2158  0.1679
46749W        W89740  30.799  20.252  22.791  0.1763 -0.0697  0.1038
46750W        W89741  32.303  19.252   7.966 -0.0880 -0.2563 -0.4635
46751W        W89742   8.535  17.937   7.726 -0.0091 -0.0510  0.2505
46752W        W89743  25.348  27.149   3.006 -0.0350 -0.3149  0.0409
46753W        W89744  13.347  22.774   5.784  0.1215 -0.1712 -0.0074
46754W        W89745  10.605  14.082   9.375 -0.1908  0.2156  0.0929
46755W        W89746   5.145  18.708  10.819 -0.0015  0.0376 -0.3117
46756W        W89747  29.221   1.582   4.919 -0.1038  0.0202 -0.1773
46757W        W89748   4.070  21.493   7.395 -0.5315 -0.0316  0.2784
46758W        W89749   1.173  17.170  12.006 -0.2017 -0.0422  0.1415
46759W        W89750  30.002  33.360   7.199 -0.1709  0.0588  0.2686
46760W        W89751   3.187  27.798   1.086 -0.0314 -0.0064 -0.0059
46761W        W89752  27.120  31.786   4.244 -0.0616  0.1424  0.1824
46762W        W89753  19.500   5.053  27.826 -0.0555  0.0864  0.1086
46763W        W89754  30.511  14.402   4.393 -0.2221 -0.1022 -0.0113
46764W        W89755  24.379  18.310   4.919  0.2918 -0.2956  0.1763
46765W        W89756  26.202  15.720   4.123 -0.3636  0.3304  0.1024
46766W        W89757   1.296  18.943   5.919 -0.0316 -0.0747  0.0546
46767W        W89758  32.253  20.747   0.696 -0.0233  0.3146 -0.0569
46768W        W89759  28.770  14.449   9.963 -0.4141 -0.2285 -0.0841
46769W        W89760  12.055   4.472   8.585  0.2282  0.1230 -0.0530
46770W        W89761  28.680   7.747   5.975 -0.1900 -0.2329  0.0769
46771W        W89762  23.335  32.867   4.698 -0.1740 -0.0903 -0.0810
46772W        W89763  23.431  18.629   5.088 -0.2138  0.2719 -0.3867
46773W        W89764  30.518  33.870  22.844 -0.3083  0.0540 -0.0309
46774W        W89765  20.551   9.252   0.701  0.0190  0.0462  0.0228
46775W        W89766   0.355   7.651   5.441 -0.3423 -0.1658 -0.1084
46776W        W89767   8.530  12.126   6.297 -0.0864 -0.1365 -0.2502
46777W        W89768  33.724  19.875   8.691  0.4346 -0.0760 -0.0454
46778W        W89769  32.808  12.153   5.267 -0.0425 -0.1578 -0.0409
46779W        W89770   0.404  29.849   6.107 -0.2063  0.0399 -0.0684
46780W        W89771  34.338  27.038  27.304 -0.0164 -0.2714 -0.0708
46781W        W89772  34.014  21.437   8.108 -0.0279  0.0377 -0.0159
46782W        W89773  21.461  21.427  27.155 -0.0458  0.2327 -0.0088
46783W        W89774  29.354  34.280   5.438  0.1744 -0.1726 -0.1522
46784W        W89775  23.206  13.001   9.312 -0.0387  0.0192  0.0041
46785W        W89776  25.354  32.893   5.706 -0.1083 -0.1823 -0.1797
46786W        W89777  32.568  22.089  29.085  0.1107 -0.0108  0.0599
46787W        W89778  17.773  11.735  28.342  0.0985 -0.3664 -0.0338
46788W        W89779  25.905  30.962   8.006  0.2227  0.3120  0.1048
46789W        W89780   8.151  11.709  24.523  0.0361  0.1462 -0.2071
46790W        W89781  22.859  34.259   5.949 -0.0796 -0.0331 -0.0098
46791W        W89782  12.886  18.334   4.814 -0.0560 -0.2099 -0.3227
46792W        W89783  29.604  16.710   0.529  0.0764 -0.0248  0.0944
46793W        W89784  33.414  21.112   9.539 -0.2046  0.1376 -0.0048
46794W        W89785  13.096   2.065   8.370  0.1257 -0.1189  0.1519
46795W        W89786  23.754  25.441   0.797 -0.1916  0.0578 -0.1963
46796W        W89787   3.263  23.721  10.728  0.0431 -0.0983 -0.0309
46797W        W89788   1.952  16.887   7.728  0.0002  0.2618 -0.0435
46798W        W89789  15.855  23.413   4.919  0.2495  0.1746  0.1689
46799W        W89790   6.106  10.579   6.670 -0.0041  0.0552 -0.0205
46800W        W89791  29.423  17.516  27.375  0.1163 -0.0264 -0.3445
46801W        W89792  28.075   3.578  21.220  0.2380 -0.3656 -0.0119
46802W        W89793   9.324  14.151  17.803 -0.0532  0.1877 -0.1242
46803W        W89794  25.931  16.106  25.988  0.2599  0.0045  0.0545
46804W        W89795   1.000  22.827  24.370  0.1694 -0.1096  0.0831
46805W        W89796  28.927  29.503   7.884 -0.1154  0.3045 -0.2968
46806W        W89797  32.376   7.680   1.604  0.2679 -0.2034  0.0099
46807W        W89798   4.444  26.500   7.235 -0.2699  0.1663 -0.1847
46808W        W89799  21.732  22.808   5.475  0.0573  0.1936  0.0839
46809W        W89800  12.645   7.629   5.427 -0.3529  0.2943  0.0706
46810W        W89801   5.608   6.540   6.778  0.0944  0.0678  0.2142
46811W        W89802  32.616  26.789  24.678  0.0058 -0.2133  0.2482
46812W        W89803  26.312  28.088   0.754  0.0830  0.1624  0.0187
46813W        W89804  29.823  29.972  21.737 -0.0622  0.1213 -0.1834
46814W        W89805   5.948  22.109  27.298 -0.2418 -0.1673 -0.0360
46815W        W89806   6.956  21.321   2.154 -0.0398 -0.0928  0.0750
46816W        W89807  17.475  18.373  19.027  0.0278 -0.0252 -0.1375
46817W        W89808   2.243   8.788  22.407 -0.0690 -0.3473 -0.0923
46818W        W89809  32.887   4.512   3.335 -0.0363  0.2913 -0.1919
46819W        W89810  23.883  23.346  26.532 -0.1872 -0.7343  0.1581
46820W        W89811  22.687  17.614  27.806 -0.2157  0.3225  0.1799
46821W        W89812  31.821  24.946  15.644  0.0153  0.0890  0.0208
46822W        W89813  25.199  14.398   0.133  0.1103  0.4019 -0.1845
46823W        W89814   9.577  25.625   2.914 -0.0615  0.0903  0.2789
46824W        W89815  33.112  25.150   4.381 -0.1805 -0.2323 -0.0996
46825W        W89816  27.417  25.821   0.280 -0.1762 -0.1734 -0.0129
46826W        W89817   7.285  26.297  10.295 -0.0699 -0.3217  0.1954
46827W        W89818  30.337  12.355   8.101  0.0580  0.2757 -0.0270
46828W        W89819  11.638  20.013   5.691  0.0041  0.0390  0.2466
46829W        W89820   1.561  14.223  12.100  0.1029 -0.0191  0.1596
46830W        W89821  29.578  27.818   6.435  0.1130 -0.0433 -0.1609
46831W        W89822  11.394  32.985   1.622 -0.2713  0.0616  0.2209
46832W        W89823   7.539  14.331  26.703 -0.1444  0.1446 -0.0619
46833W        W89824  27.545  26.777   7.452 -0.3363  0.0994  0.1838
46834W        W89825  31.632  33.225   9.088  0.5629  0.1346 -0.3451
46835W        W89826  24.926  12.015   2.823 -0.2464  0.1390  0.3121
46836W        W89827  26.275  18.737   2.236 -0.0037  0.3097 -0.0076
46837W        W89828  25.847  30.015   3.437 -0.2598  0.0621 -0.1680
46838W        W89829  27.431  16.937  28.276  0.0439  0.2960  0.1070
46839W        W89830  29.821  15.960   8.435  0.2056  0.0715  0.0744
46840W        W89831   3.445  33.174   4.270  0.1299  0.2046 -0.0699
46841W        W89832  32.089   2.975  18.672  0.1879  0.1723  0.0130
46842W        W89833   0.655  32.811   6.771 -0.2040  0.0072 -0.0985
46843W        W89834  26.656   7.825   5.728  0.5242 -0.4194  0.1584
46844W        W89835   2.414  33.466   6.045  0.0197 -0.0450 -0.2411
46845W        W89836   8.708  32.067   9.569 -0.2907  0.2851  0.2730
46846W        W89837  31.356  15.896   7.297  0.1553  0.1403 -0.3094
46847W        W89838  17.216  13.109   1.020 -0.1681 -0.1371 -0.0030
46848W        W89839  21.970   9.990   6.876 -0.0014  0.0368 -0.1712
46849W        W89840  23.517  26.949   6.309  0.1446  0.1226 -0.0060
46850W        W89841   8.293  16.828   1.293  0.0523  0.0466 -0.0022
46851W        W89842  31.120  17.089   9.403 -0.1790 -0.2339 -0.2952
46852W        W89843  16.420  21.507   9.013  0.2018  0.2785  0.1425
46853W        W89844   6.250   4.783   0.151 -0.0463  0.0152  0.2301
46854W        W89845   6.296  15.529   7.349 -0.1145  0.1686  0.0404
46855W        W89846  32.222   8.347   5.022 -0.6225 -0.2417  0.0669
46856W        W89847  25.028  34.559   5.294  0.1994 -0.1372  0.4540
46857W        W89848  31.411   8.109   9.127  0.3308  0.3016  0.1528
46858W        W89849   8.703  18.309   1.717 -0.0970  0.0733  0.0462
46859W        W89850   3.377  21.282   8.466 -0.2107  0.2451  0.3086
46860W        W89851   5.616  20.493   5.251 -0.0440  0.1777 -0.2100
46861W        W89852  31.279   2.357  26.146  0.2652 -0.0262 -0.0483
46862W        W89853  18.068  27.038   5.718  0.0355  0.1075  0.0438
46863W        W89854  31.520  12.749   8.888  0.2423 -0.0412  0.0361
46864W        W89855  28.018   7.246   3.209  0.0174  0.2674  0.2032
46865W        W89856   5.166  19.778   9.423 -0.3868 -0.0828 -0.0085
46866W        W89857  24.617  20.078   9.541 -0.0167 -0.1059  0.1765
46867W        W89858  12.362  11.875  25.477 -0.0968  0.2871  0.1550
46868W        W89859   3.007  14.578   1.549 -0.1602  0.1592  0.2216
46869W        W89860  32.959  26.680  19.101  0.1532 -0.0680 -0.0089
46870W        W89861  27.297  29.766   4.982  0.0714  0.0439  0.1672
46871W        W89862   1.642  18.548   9.748  0.1863 -0.0967  0.0759
46872W        W89863  30.482   1.885   9.505  0.3809  0.0358 -0.1577
46873W        W89864  17.367  27.186   4.884 -0.1384  0.3925 -0.1896
46874W        W89865  13.489  26.173   0.285 -0.0025  0.0493  0.1403
46875W        W89866   0.346  18.888   9.813  0.0812 -0.4732  0.1510
46876W        W89867   4.436  27.862   9.615  0.3463 -0.4414  0.1870
46877W        W89868  33.557  14.950   6.086 -0.0107 -0.2177 -0.2234
46878W        W89869   3.350  32.895  27.553 -0.1418  0.0171  0.0308
46879W        W89870   8.511   8.162   1.658  0.0511 -0.1976 -0.1389
46880W        W89871  10.363   5.993   8.280  0.0037  0.0846  0.0561
46881W        W89872  20.871   1.007   4.794  0.1345  0.0010 -0.1308
46882W        W89873  20.887  16.899   3.535 -0.2157  0.0906  0.2294
46883W        W89874  23.311  20.063   9.164  0.0573 -0.1354 -0.0861
46884W        W89875   7.396  16.339  20.985  0.0226  0.2202 -0.0498
46885W        W89876  30.525  23.205  28.812  0.5033 -0.2825 -0.3630
46886W        W89877  21.069  11.975   5.364  0.1046  0.3951 -0.1404
46887W        W89878   5.744  27.589   7.675  0.3257  0.0974 -0.1574
46888W        W89879  27.648   0.161   0.415 -0.0150  0.0518 -0.2266
46889W        W89880  28.817  21.036   8.910  0.1354  0.0454  0.2262
46890W        W89881  24.354  21.893   6.388  0.0326 -0.0972  0.0451
46891W        W89882  13.395   9.962  25.295 -0.2702 -0.0376  0.1745
46892W        W89883  18.906   9.178   7.335  0.0856 -0.3364  0.1613
46893W        W89884  21.276  12.868   2.696  0.0808 -0.0700 -0.0448
46894W        W89885  31.876  24.897  25.533 -0.0983  0.1036 -0.1281
46895W        W89886  21.907  15.749   8.976  0.1963  0.0514  0.3350
46896W        W89887  30.822   7.784   5.543 -0.0722 -0.1894  0.0842
46897W        W89888  23.459  12.634   1.813  0.2652 -0.1242 -0.2029
46898W        W89889  10.727  23.954   5.034 -0.0052 -0.2736  0.0741
46899W        W89890  32.160  15.363   9.858 -0.0403 -0.2622  0.1433
46900W        W89891  11.702  23.330  10.394  0.3526 -0.0339  0.1333
46901W        W89892   7.864  19.883   0.600  0.1226 -0.0104 -0.0630
46902W        W89893  16.903  25.429   9.896  0.1679  0.1032 -0.1878
46903W        W89894  25.578  13.194   2.612 -0.0202  0.0133  0.0606
46904W        W89895   7.521  25.334  22.561 -0.0952 -0.4990  0.0555
46905W        W89896  29.322  26.798   3.847  0.0869 -0.2091  0.2727
46906W        W89897  29.008  32.037   5.500 -0.0062 -0.2486  0.5113
46907W        W89898  29.928  19.849   1.895  0.2332  0.1638  0.3139
46908W        W89899  17.358  24.597   9.096 -0.2599  0.2622  0.0003
46909W        W89900  32.875  15.519   2.056  0.3063  0.1472  0.0222
46910W        W89901  27.641  20.741   1.665  0.2942  0.2771 -0.3443
46911W        W89902   4.163  32.689   8.368  0.0449  0.1092 -0.2893
46912W        W89903  18.568   5.271   3.393 -0.0307  0.2166 -0.0333
46913W        W89904   6.657  10.175   5.294 -0.0722 -0.0009  0.2827
46914W        W89905   9.851  18.092  27.134  0.3193 -0.1427 -0.1388
46915W        W89906  29.245  21.725   6.810 -0.0669  0.0969  0.0427
46916W        W89907   4.353  19.790   7.370  0.1694  0.0094  0.0770
46917W        W89908  12.359  27.068   2.849 -0.1881  0.0126  0.0277
46918W        W89909  32.471  27.552  27.114  0.0471 -0.0868  0.1130
46919W        W89910  19.197  22.695  20.522 -0.0987 -0.0024 -0.2074
46920W        W89911   9.466  27.982  10.169 -0.5034  0.0607  0.1569
46921W        W89912  23.976  15.325  22.169  0.2401  0.2053  0.0536
46922W        W89913  33.115  31.804   6.326 -0.1657  0.0613 -0.0266
46923W        W89914  31.758  13.421  24.023 -0.3438 -0.0925  0.0466
46924W        W89915  26.169  14.289  29.124 -0.0769 -0.0544 -0.2958
46925W        W89916   0.873  33.855   6.689  0.3090  0.3662  0.0360
46926W        W89917  23.776  19.206  15.023 -0.0649  0.2375  0.0233
46927W        W89918  25.686  10.794   8.865  0.0425 -0.1794 -0.1451
46928W        W89919   7.274  24.820   3.069  0.0547 -0.0741  0.0818
46929W        W89920  25.259  29.611   1.139 -0.1996  0.0301 -0.0373
46930W        W89921  29.761  23.661   0.988  0.2742  0.1689  0.2763
46931W        W89922  14.799  15.321   8.584  0.1759  0.0922  0.1673
46932W        W89923  20.872   5.522   8.739 -0.2342 -0.0517  0.1384
46933W        W89924   5.575  12.232  11.343 -0.2433  0.2862 -0.2758
46934W        W89925  29.110  23.722   3.230  0.1153 -0.2461  0.1929
46935W        W89926  28.140  17.294   3.046 -0.1493 -0.1086  0.4293
46936W        W89927   5.166  22.353  19.218  0.1589  0.0202 -0.2985
46937W        W89928  30.756  19.928  20.840 -0.0834  0.2769  0.1713
46938W        W89929  24.436  23.217  25.288 -0.3647  0.0983  0.1280
46939W        W89930  32.259  20.742  22.756  0.2955 -0.1486 -0.0684
46940W        W89931  23.748  20.799   4.204  0.1369  0.0657 -0.1068
46941W        W89932  22.556  22.307   8.511 -0.1665  0.2538  0.1290
46942W        W89933  28.798  24.530  20.994 -0.0470 -0.4345  0.5200
46943W        W89934  27.222  26.717   4.342  0.2180 -0.0739 -0.1238
46944W        W89935  31.807   8.464   4.710 -0.0431 -0.0756 -0.2351
46945W        W89936   0.558  13.611  17.852 -0.3335  0.3735  0.2860
46946W        W89937   5.786  23.591  18.843  0.1340 -0.5004  0.1065
46947W        W89938   7.541  26.111   9.914  0.0400  0.1035 -0.0736
46948W        W89939   0.618  16.268  21.036 -0.0556 -0.2671 -0.2223
46949W        W89940  29.084  24.477   5.680  0.1820 -0.0463 -0.2340
46950W        W89941   0.544  21.352   4.761 -0.0996 -0.3266  0.0161
46951W        W89942  25.579  31.752   5.683  0.2859 -0.1521 -0.0819
46952W        W89943  11.072  12.578   6.120  0.0260 -0.0198  0.1389
46953W        W89944  26.530  19.933   8.232 -0.0163 -0.0692  0.0505
46954W        W89945   4.661  27.689   7.629  0.3094 -0.4805 -0.1319
46955W        W89946  17.377  15.427  12.376 -0.2341 -0.0254  0.2821
46956W        W89947   7.768  18.088  22.902  0.3118 -0.2625  0.0133
46957W        W89948   1.443   0.203   3.919  0.0917  0.2600  0.1088
46958W        W89949  30.001  23.973  26.438  0.2450  0.0300 -0.1922
46959W        W89950   7.046  14.755   3.077 -0.1848 -0.2808  0.1040
46960W        W89951  17.361  30.128   1.370 -0.3226 -0.1246 -0.3667
46961W        W89952   3.078  26.629  29.241 -0.0063  0.3165  0.0104
46962W        W89953  23.814  13.533   8.622 -0.2088 -0.1462 -0.0846
46963W        W89954  17.820  28.852   6.921 -0.1752  0.0450  0.0515
46964W        W89955   6.439  23.594   7.167  0.1515  0.2941  0.2954
46965W        W89956   7.246  20.611   6.965  0.1183  0.0246  0.1618
46966W        W89957  29.529  27.049  25.824 -0.2939 -0.2783  0.3893
46967W        W89958  21.788  30.393   7.978  0.1389 -0.1677  0.1900
46968W        W89959  31.911   2.491  19.617 -0.0044  0.1738 -0.0784
46969W        W89960  10.040  21.129   6.506 -0.3971  0.0559 -0.1700
46970W        W89961  31.212  19.386   4.739  0.1909 -0.0745  0.0127
46971W        W89962   5.354  14.204   5.090 -0.2265 -0.1988 -0.2261
46972W        W89963  26.098  10.284   8.920  0.0295  0.1438  0.1202
46973W        W89964  23.255  17.842   9.544 -0.0091 -0.0024 -0.1896
46974W        W89965  32.061  20.922  10.590 -0.0254  0.2428 -0.1356
46975W        W89966  10.549  18.162  16.980 -0.3357  0.0211  0.2847
46976W        W89967  30.869  15.286  10.552  0.3701  0.0463 -0.2831
46977W        W89968  27.629  15.097  28.089  0.3071 -0.2804 -0.2563
46978W        W89969   5.641  10.865  16.304  0.2815  0.0730  0.1705
46979W        W89970  30.080  20.473  28.952 -0.1718 -0.0368 -0.0446
46980W        W89971   9.212   1.294  21.271  0.0281 -0.0398  0.1982
46981W        W89972   8.093  13.601   9.455  0.0166  0.2795 -0.0171
46982W        W89973  32.628  30.807  19.919  0.1419  0.3325  0.1662
46983W        W89974  10.736  13.480   6.193  0.1482  0.1986 -0.0214
46984W        W89975  29.723  12.689   1.844  0.1434  0.0957 -0.2728
46985W        W89976   3.550  14.546  23.203 -0.1382  0.1189 -0.1954
46986W        W89977  32.095  21.823   7.370  0.2294  0.1320  0.3738
46987W        W89978   7.134  30.783  28.404  0.1248  0.0260 -0.3184
46988W        W89979  24.049  17.975  27.883 -0.2752 -0.0085  0.1124
46989W        W89980  18.862  28.230   6.386  0.1578  0.0178 -0.1756
46990W        W89981   1.009  30.984  26.761  0.1167  0.0281 -0.1278
46991W        W89982  10.977  25.410  15.189 -0.0811 -0.1567  0.3389
46992W        W89983   8.475  14.688   9.341  0.0664  0.3277  0.1831
46993W        W89984   0.140  28.125  27.873  0.1159  0.2073  0.1550
46994W        W89985  10.705  19.851  14.553 -0.2358  0.1159  0.1357
46995W        W89986   5.685  28.826  16.250 -0.0563 -0.3932  0.0728
46996W        W89987  26.439  24.184  14.337  0.3276  0.2198  0.1071
46997W        W89988  11.329  21.403   4.914  0.0406  0.0415  0.0723
46998W        W89989  31.002  30.076   4.594  0.0355 -0.2945 -0.0674
46999W        W89990  25.757  21.773   6.471  0.3011  0.0920  0.0197
47000W        W89991  11.513  22.237  28.553 -0.1326  0.0603  0.0506
47001W        W89992  11.093   0.496  19.197 -0.2808  0.0486 -0.1858
47002W        W89993  23.646  16.323   5.610 -0.3575  0.2368 -0.0743
47003W        W89994   9.760   2.238  25.525  0.0936  0.2629  0.0385
47004W        W89995  34.182  22.897   9.982  0.0958 -0.1717 -0.5152
47005W        W89996  27.311   8.109  14.757 -0.1971 -0.1198  0.1081
47006W        W89997   8.851   9.416   5.303 -0.0985 -0.0925  0.0781
47007W        W89998  24.138  23.364   5.604  0.3067 -0.0003 -0.0775
47008W        W89999  13.185  26.923  24.231 -0.1157  0.0102 -0.1869
47009W        W90000   2.385  24.353   8.650 -0.0011  0.0737  0.1059
47010W        W90001  21.581  30.697  14.002 -0.0618  0.1434 -0.3817
47011W        W90002   7.072  20.847   5.724 -0.1581 -0.0979 -0.1330
47012W        W90003  15.471   2.958   4.567 -0.1907 -0.2354 -0.2240
47013W        W90004   8.629  19.869  15.501  0.1199 -0.2630  0.1427
47014W        W90005   9.202  15.318   2.904  0.4014  0.2902 -0.2812
47015W        W90006  31.646  19.227  11.077 -0.0925 -0.3329 -0.0386
47016W        W90007  18.795  34.670   4.190  0.2218  0.0144  0.0084
47017W        W90008  27.684   8.633   3.338 -0.0069  0.0805 -0.3589
47018W        W90009  31.802   8.210   8.684  0.2029 -0.2040  0.0439
47019W        W90010  33.661  23.196   8.689  0.0438  0.1835  0.1036
47020W        W90011  32.599  31.446   8.529 -0.1177 -0.0334 -0.1282
47021W        W90012  11.920  24.530   0.696 -0.1747 -0.1391  0.1169
47022W        W90013   2.110  21.641   8.467 -0.4433  0.1749  0.0142
47023W        W90014  25.950  27.544  23.388  0.0018 -0.0192  0.0811
47024W        W90015   2.388  33.404   7.615 -0.0004  0.0650  0.0872
47025W        W90016  30.691   8.031   9.429  0.0305  0.2297  0.0828
47026W        W90017   1.052  22.912   8.389  0.0094  0.2171 -0.1183
47027W        W90018   4.085  12.939  27.259 -0.0155 -0.0148  0.1070
47028W        W90019  10.355  11.082   5.718 -0.0748  0.2429 -0.0894
47029W        W90020  33.703  29.924  17.982  0.0915 -0.0523 -0.0938
47030W        W90021  24.179  22.748   0.652  0.0924 -0.0679  0.0899
47031W        W90022  32.932   2.590  26.693 -0.1436  0.2518 -0.2083
47032W        W90023  27.994  19.869  27.258  0.3709  0.0639  0.0744
47033W        W90024  22.623  16.638   0.599 -0.1730  0.4143  0.1736
47034W        W90025  11.118  29.785   0.954 -0.2659 -0.2769 -0.2113
47035W        W90026  28.227  21.252  24.501  0.1962  0.2677  0.1152
47036W        W90027  16.722  16.187  29.251  0.0445 -0.0126  0.0953
47037W        W90028  27.187  34.495  14.002 -0.3691 -0.1913 -0.2946
47038W        W90029  33.385  11.300   3.607  0.0109 -0.1644 -0.1175
47039W        W90030   0.198   3.297  27.847 -0.0376  0.0473  0.0691
47040W        W90031  27.598  21.607   0.245 -0.2002 -0.0709  0.3328
47041W        W90032  21.017  30.237  25.956  0.1264 -0.1386  0.2334
47042W        W90033   0.801   3.012   7.201 -0.1893  0.3132  0.0211
47043W        W90034  34.118  24.815   7.688  0.0166  0.0197 -0.0465
47044W        W90035  20.103  21.464   4.121 -0.0086 -0.0100 -0.0395
47045W        W90036  32.225  20.097   1.241  0.1423  0.0021 -0.0441
47046W        W90037  32.287  27.288   7.309  0.1208 -0.0590  0.2138
47047W        W90038   8.587  32.927   8.248  0.4840 -0.0545 -0.1581
47048W        W90039   3.356   2.740   3.085 -0.1824 -0.3620  0.0724
47049W        W90040  11.199   3.346   8.353  0.1830  0.0098  0.2095
47050W        W90041   3.616   7.699  18.970 -0.1347 -0.0867 -0.1691
47051W        W90042   2.808  29.133   6.683  0.4690 -0.3909  0.0607
47052W        W90043   0.167  19.322   9.690 -0.1675  0.2925 -0.0817
47053W        W90044  34.183   3.745   5.537  0.2323 -0.1636  0.2132
47054W        W90045  12.423  13.654   8.291 -0.0973 -0.3980 -0.0915
47055W        W90046  16.648  10.463  19.208 -0.0558 -0.1495 -0.5410
47056W        W90047  32.262  17.372  26.307 -0.0316 -0.1852 -0.0146
47057W        W90048  10.230   7.031   3.438  0.1454 -0.2930  0.1415
47058W        W90049   9.620  26.540  26.968  0.0252 -0.0139 -0.0125
47059W        W90050  28.474  23.470  18.463  0.1908 -0.1558  0.0833
47060W        W90051   0.500  31.207  27.842 -0.1747  0.1038  0.2305
47061W        W90052  21.950   9.527   4.376  0.0220 -0.0363 -0.1849
47062W        W90053   7.368  19.313   2.642 -0.0285  0.2606  0.3141
47063W        W90054   7.266  27.545   7.778 -0.1442 -0.1542 -0.1397
47064W        W90055  30.927  30.042   6.848  0.0465 -0.3000  0.1183
47065W        W90056  33.751  25.625   3.328 -0.0456  0.2644 -0.0252
47066W        W90057  29.531  25.021  16.114  0.1701 -0.1067  0.0421
47067W        W90058  28.020  19.774  22.495 -0.4026 -0.1214  0.2299
47068W        W90059   9.418  12.821  10.129  0.0498  0.0278  0.0893
47069W        W90060  25.085  10.914   9.818  0.0922  0.0132 -0.1634
47070W        W90061  13.660  10.371  20.313  0.1152 -0.1597  0.3690
47071W        W90062  10.107  23.471  28.310  0.0763  0.0496 -0.1783
47072W        W90063  27.471  32.788  14.155 -0.2930  0.0686  0.4722
47073W        W90064   0.179   1.524  27.860 -0.1327  0.1830  0.0975
47074W        W90065  17.250  11.374   3.934  0.0622  0.3383  0.1841
47075W        W90066  33.528  12.440  27.261 -0.3283  0.1081  0.1736
47076W        W90067  24.940  10.050  27.527 -0.0861 -0.0047  0.3084
47077W        W90068   3.493  34.297  10.546  0.5172 -0.1864 -0.1281
47078W        W90069  31.205  31.125  14.474 -0.0423 -0.0228 -0.2649
47079W        W90070  32.882   9.468   8.392 -0.1512  0.6194 -0.1863
47080W        W90071  32.080  22.374   7.358 -0.0335  0.0313 -0.1990
47081W        W90072  25.189  34.133  15.172  0.1224  0.0383 -0.1436
47082W        W90073  23.887   3.546   4.088  0.0243 -0.1915  0.0136
47083W        W90074  23.033  26.687   1.121 -0.2416 -0.1738 -0.0365
47084W        W90075   7.486  24.674   8.021  0.0491 -0.2170 -0.1421
47085W        W90076  17.518  22.887  21.202  0.1306 -0.0460 -0.0144
47086W        W90077  18.772   7.354   5.899  0.0408 -0.1154  0.1381
47087W        W90078  32.574  23.611   6.905  0.0182 -0.0925 -0.0854
47088W        W90079   0.009   2.267   5.664 -0.2377 -0.0690  0.0419
47089W        W90080  18.234   7.884  29.191  0.2922 -0.4131 -0.1397
47090W        W90081  31.051  22.449  29.066  0.0006 -0.2308  0.1842
47091W        W90082  20.004  13.185  18.433  0.2724  0.2340 -0.2675
47092W        W90083  10.170  15.260  14.632 -0.3047  0.1672 -0.1264
47093W        W90084   8.508   6.689  25.975 -0.0855  0.0182 -0.2587
47094W        W90085  31.459  20.275   0.288  0.0870  0.0557  0.2057
47095W        W90086  28.917   7.084   4.349  0.0075 -0.2391  0.0648
47096W        W90087  18.013  34.750  28.944 -0.3775  0.0092  0.2135
47097W        W90088   1.324  27.361  26.370  0.3021  0.0764 -0.2352
47098W        W90089  33.266   5.852  17.127  0.4823  0.1054  0.2678
47099W        W90090  15.298  28.351   9.838  0.1241  0.0134  0.0487
47100W        W90091  34.750   3.655   8.064  0.0288 -0.0683 -0.1852
47101W        W90092   5.487  19.332   8.887  0.1616  0.0888  0.1022
47102W        W90093   1.527  21.290   2.367 -0.0179  0.0211 -0.0819
47103W        W90094  28.395  34.200  28.743  0.2707  0.0179 -0.0225
47104W        W90095  11.286  21.884  24.713  0.1446 -0.1843 -0.1083
47105W        W90096  28.831  21.435   6.141  0.1856 -0.2857 -0.2860
47106W        W90097   2.913  10.617   3.198 -0.2985  0.0173 -0.4222
47107W        W90098  30.430  10.730   2.044 -0.0359  0.0323  0.1080
47108W        W90099  33.188  26.084   7.163  0.0718 -0.1085  0.2383
47109W        W90100  18.239  11.872   1.627  0.0021 -0.0836 -0.1171
47110W        W90101   7.335  11.989   0.921 -0.0189 -0.1442 -0.0290
47111W        W90102  22.381  16.924   4.877 -0.0688  0.0686  0.1816
47112W        W90103   2.020  22.120  27.846 -0.0204 -0.1268 -0.0651
47113W        W90104  34.161  26.780  26.916 -0.1238  0.0756  0.2527
47114W        W90105   3.476  13.376   4.263  0.1041  0.1993  0.3526
47115W        W90106   5.038  10.703  16.787 -0.0361 -0.2558  0.2872
47116W        W90107  15.612  23.587   3.056 -0.1798 -0.1917 -0.0700
47117W        W90108  10.280  15.741  19.793 -0.0107  0.1675  0.1028
47118W        W90109  25.415  31.841  27.541 -0.0530 -0.0600  0.2191
47119W        W90110  32.581  19.769   6.339  0.0951 -0.1074 -0.0441
47120W        W90111   8.955  30.081   6.058 -0.0743  0.2772  0.0493
47121W        W90112  18.689  17.116   2.304  0.0742 -0.5044 -0.1295
47122W        W90113  31.864  14.011   0.162 -0.2088  0.1106  0.3245
47123W        W90114  31.987  28.055   7.878  0.3934 -0.0667 -0.1444
47124W        W90115  31.898   0.605  27.879  0.3143  0.2280 -0.2026
47125W        W90116  22.631  13.038  20.858 -0.0891  0.1560 -0.0337
47126W        W90117  25.266  31.638   1.779  0.3142  0.0018 -0.0343
47127W        W90118  20.586  12.457  26.552 -0.0822  0.1222 -0.3834
47128W        W90119   4.340  29.249  26.192  0.2762  0.1144  0.1137
47129W        W90120  27.890  32.219  23.754 -0.3313  0.0259 -0.0753
47130W        W90121  30.548  22.136  10.347 -0.2158  0.2091  0.1903
47131W        W90122  33.375  18.019   9.200 -0.3682 -0.0507 -0.3312
47132W        W90123  11.391  25.825  25.190  0.0082 -0.1417  0.0678
47133W        W90124   7.838  12.220   9.831 -0.2686 -0.0386  0.3573
47134W        W90125  22.549  23.824   4.803  0.1243  0.3191 -0.1000
47135W        W90126  28.058   9.511   1.912  0.0528 -0.2314 -0.2205
47136W        W90127  23.388  12.814   1.232 -0.0134 -0.0406  0.0888
47137W        W90128  11.792  15.174   4.522  0.1858  0.0033 -0.2212
47138W        W90129  13.082   0.249  24.419 -0.0297  0.1450 -0.0257
47139W        W90130  19.778  22.685   1.205 -0.0019  0.2404 -0.1340
47140W        W90131   8.958  21.335   0.267 -0.0357 -0.1456 -0.4351
47141W        W90132  19.729  25.011   3.653  0.1625 -0.1713 -0.0135
47142W        W90133   9.262  20.628  25.707  0.0629 -0.3585 -0.2216
47143W        W90134   7.983  24.959  29.201  0.0308  0.2017 -0.0216
47144W        W90135  12.437  30.109   1.340  0.0118  0.1359 -0.0219
47145W        W90136   0.683  20.007   2.191 -0.4431  0.3369  0.2328
47146W        W90137   7.432  18.500   0.742  0.1853 -0.1256 -0.0833
47147W        W90138  34.027  30.147   7.356  0.0715  0.0605  0.1749
47148W        W90139  18.437   3.274  21.220  0.1922  0.2471  0.2094
47149W        W90140   5.262  17.678  23.224  0.3719 -0.2719 -0.3889
47150W        W90141   9.027  13.990   9.706 -0.2356 -0.1909 -0.0221
47151W        W90142   9.437  21.109  21.152 -0.1480  0.1310  0.1072
47152W        W90143  30.497  22.325   5.513 -0.3504 -0.3735 -0.0288
47153W        W90144  30.121  22.587   1.951  0.3095 -0.0048 -0.0322
47154W        W90145   2.728  24.165   7.415 -0.1511  0.1390  0.3305
47155W        W90146  31.110  18.429   4.374  0.0945  0.2120  0.3612
47156W        W90147   1.000  28.691  23.488  0.0335  0.0300 -0.3347
47157W        W90148  19.048  31.166  25.800 -0.2078  0.1944 -0.2110
47158W        W90149  34.727  23.529   8.847  0.3430 -0.0760  0.0806
47159W        W90150   3.173   1.295   4.887  0.0614 -0.4330 -0.0237
47160W        W90151   7.725  32.141  28.192 -0.1751 -0.0664 -0.2685
47161W        W90152  30.986  22.370   8.085 -0.0144  0.0670  0.0528
47162W        W90153  23.563  26.759   4.247  0.1175 -0.2833  0.1308
47163W        W90154  11.625  31.464   4.227  0.0844  0.2017 -0.0484
47164W        W90155  22.256  21.574   0.941  0.6571  0.2097  0.1406
47165W        W90156   4.328   4.373  11.155 -0.0202  0.2563  0.2107
47166W        W90157   3.282  25.892   4.273  0.1997 -0.0256 -0.2155
47167W        W90158   5.142  10.685  19.562 -0.0503  0.1853  0.1285
47168W        W90159   0.500  29.430  27.660  0.0682  0.2262 -0.2252
47169W        W90160  34.467  10.956  28.484  0.0596 -0.0579 -0.1199
47170W        W90161  23.789   6.373   8.911 -0.0664  0.1472  0.0083
47171W        W90162  30.399  17.330  19.041 -0.1284  0.5076  0.1275
47172W        W90163   9.415  33.724  24.974  0.0868  0.0511  0.0712
47173W        W90164   3.850  13.116   3.189 -0.0661  0.1722 -0.1988
47174W        W90165  15.910  13.523  26.176  0.0344 -0.0921  0.2790
47175W        W90166  29.603  16.465   5.761  0.0408  0.1968 -0.1799
47176W        W90167  22.015  33.039  17.692 -0.0369 -0.0302  0.2425
47177W        W90168  29.052  27.460   0.793  0.4623 -0.0116  0.0953
47178W        W90169  21.599  33.785   4.169  0.0069 -0.0545  0.0015
47179W        W90170  26.035  20.070  14.037  0.1814 -0.3470  0.0269
47180W        W90171  24.567  32.549  23.382 -0.2600 -0.1495  0.2150
47181W        W90172  25.690  13.194   4.907  0.0855  0.2731 -0.1968
47182W        W90173   8.747  32.717  18.344  0.1856 -0.6105  0.2759
47183W        W90174   3.025  10.020   7.372  0.0898 -0.0327  0.0544
47184W        W90175  29.093  22.147  27.191  0.1844  0.3390 -0.0945
47185W        W90176  23.085  32.246  17.738 -0.0679  0.0362  0.1533
47186W        W90177  31.770  12.167   0.672  0.0897  0.1928  0.4483
47187W        W90178  31.469  17.389   2.716 -0.1756 -0.2741  0.0442
47188W        W90179   4.611  17.119  28.643 -0.0908  0.1267 -0.0192
47189W        W90180  12.936  30.670  16.377  0.0635  0.1994  0.1946
47190W        W90181  30.723  31.901   9.122 -0.1019  0.1250  0.2617
47191W        W90182  32.062  15.347   5.937  0.0299  0.1351 -0.2230
47192W        W90183   9.529  20.362   4.745 -0.2155 -0.1791  0.3176
47193W        W90184  27.379  14.669  28.459  0.0972  0.2102  0.2968
47194W        W90185  28.721   0.211   4.165  0.0588  0.1213 -0.0355
47195W        W90186   2.804   4.390  25.889 -0.3588  0.1375 -0.1552
47196W        W90187  29.345  16.498  25.802 -0.3416  0.1573 -0.3325
47197W        W90188  22.254  29.650  14.058  0.0936 -0.2094  0.0773
47198W        W90189  22.954  30.115   5.654 -0.1103  0.1233  0.1342
47199W        W90190  27.384  25.667  24.083 -0.0162 -0.0954  0.1957
47200W        W90191   7.990  17.636   5.371 -0.3250 -0.0938  0.2612
47201W        W90192  24.128  19.406   9.037 -0.1660 -0.0074 -0.2274
47202W        W90193  29.793  31.691   5.109  0.1090  0.1118  0.2056
47203W        W90194  12.627  23.175   9.435  0.1716 -0.0367 -0.0247
47204W        W90195  26.082  22.024   0.091 -0.1330 -0.0584 -0.0143
47205W        W90196  25.284  16.050   9.812 -0.0611  0.0766  0.4199
47206W        W90197  19.646  29.703  19.869 -0.0694  0.0952 -0.0495
47207W        W90198  27.272  13.000  23.363  0.0813  0.0284 -0.2406
47208W        W90199  28.050  16.971   2.129 -0.0050  0.2074  0.0927
47209W        W90200   4.983  25.606  26.169  0.1182  0.0327 -0.1480
47210W        W90201  20.689  18.186  17.061 -0.1822  0.0742  0.0949
47211W        W90202  21.973  20.115   3.536 -0.0030 -0.0581 -0.0924
47212W        W90203   0.980  22.340   6.136 -0.3769  0.0413 -0.1665
47213W        W90204   1.850   6.304   1.010  0.0664  0.3191 -0.1680
47214W        W90205  28.166   5.274   8.012 -0.1570  0.1625 -0.2659
47215W        W90206  30.952  28.412  26.669 -0.0983 -0.0729 -0.2212
47216W        W90207   6.553  31.963  19.801 -0.0023  0.0305 -0.0378
47217W        W90208  25.570  15.552  27.690 -0.0289 -0.2103 -0.1108
47218W        W90209   8.308   3.598   4.233  0.3656  0.1086 -0.0248
47219W        W90210  25.380  20.121   6.923 -0.0700 -0.4229  0.1903
47220W        W90211  10.268   9.435   0.660  0.0312  0.1975 -0.2600
47221W        W90212  14.937   6.128  20.241  0.1963 -0.1913  0.0409
47222W        W90213  30.246  22.154  25.504  0.1423  0.0643 -0.1895
47223W        W90214   1.068  16.687  27.694 -0.1921 -0.0405 -0.2211
47224W        W90215   3.267   1.850   7.553 -0.1348 -0.0807 -0.2443
47225W        W90216  24.164  18.031  18.194  0.0146 -0.1429  0.0472
47226W        W90217   1.919  25.463   9.228 -0.0229 -0.0893  0.0477
47227W        W90218  19.762  24.780   3.215 -0.0280 -0.0253 -0.0685
47228W        W90219   1.705  26.266  10.254  0.1471 -0.0992 -0.0015
47229W        W90220  12.773  16.520  10.040 -0.1143  0.3452 -0.1306
47230W        W90221  11.245  25.895   7.967  0.1615 -0.1627  0.2515
47231W        W90222  24.192  10.402   1.599 -0.1503 -0.3250 -0.0832
47232W        W90223  33.117   6.385  27.435  0.0399  0.1667 -0.2695
47233W        W90224   4.723  26.866   8.178  0.2714  0.0063 -0.0318
47234W        W90225  26.647  28.796  14.980 -0.1327 -0.0581  0.1955
47235W        W90226  21.567   9.662  18.756  0.1561  0.0607 -0.0645
47236W        W90227  19.878  32.253  15.401  0.2030  0.0354 -0.2342
47237W        W90228   7.278  26.940  15.461 -0.0385 -0.2113 -0.7034
47238W        W90229  31.177  24.775   5.908  0.0437 -0.1279  0.1093
47239W        W90230  22.176  33.270   0.557  0.1729 -0.0064  0.3106
47240W        W90231  20.489  18.952   1.135  0.0738 -0.1217 -0.1352
47241W        W90232  23.708  11.051   4.274 -0.0192  0.1951  0.0523
47242W        W90233  15.899   5.919   0.743 -0.0609 -0.2765  0.2376
47243W        W90234  14.153  23.310  15.965  0.1352  0.1539  0.4324
47244W        W90235   4.990  24.691  27.256  0.1145  0.0486 -0.3618
47245W        W90236  17.631  17.337   2.460  0.1447  0.0260  0.0363
47246W        W90237  29.713   6.749  25.525 -0.3067  0.1235 -0.0326
47247W        W90238   0.250  18.927  23.668 -0.2511 -0.2294 -0.1327
47248W        W90239   4.632  24.505  23.615  0.1145 -0.2533 -0.2914
47249W        W90240  33.650  10.085  17.935 -0.1496  0.2678  0.4339
47250W        W90241  14.040  19.924   2.976 -0.2651  0.2389 -0.1197
47251W        W90242  10.762  21.855  23.097 -0.3673 -0.0365  0.2339
47252W        W90243   6.665   6.364   2.900  0.1794 -0.0084 -0.2277
47253W        W90244   2.892  33.102   8.270 -0.0549 -0.2168  0.2083
47254W        W90245  22.849  24.755  24.347  0.1038  0.0710  0.0695
47255W        W90246  23.723   5.574   8.641  0.2276 -0.3517  0.0334
47256W        W90247  21.294   0.780   2.665 -0.1324  0.0691  0.1012
47257W        W90248   5.378  20.480   3.824 -0.2769  0.0685  0.0764
47258W        W90249  21.416  24.094   0.929  0.0308  0.0725  0.0070
47259W        W90250  32.541  25.607  29.172 -0.0990  0.0916  0.1813
47260W        W90251  23.505  26.984   6.772  0.3454  0.1680 -0.1836
47261W        W90252  25.018   3.669   8.999 -0.0349 -0.0983  0.1596
47262W        W90253  25.735  13.320  27.823 -0.1166  0.1003 -0.0586
47263W        W90254  29.648  24.330  10.446  0.0749 -0.0736  0.0844
47264W        W90255  30.212  27.226  25.263 -0.1798  0.1879 -0.0974
47265W        W90256  20.940  22.681  24.651 -0.1179 -0.0580 -0.1792
47266W        W90257  33.416  23.682  23.393  0.0162  0.0902 -0.1220
47267W        W90258  19.376  23.262   0.136 -0.0064 -0.0024  0.1364
47268W        W90259  14.379   7.169  19.392  0.0590  0.3202 -0.2125
47269W        W90260  27.281  20.097  19.239 -0.1081  0.2690  0.2076
47270W        W90261  17.356  18.316   5.789 -0.1450  0.0243  0.0305
47271W        W90262  29.399  30.942   6.829  0.2440 -0.0634  0.0230
47272W        W90263  16.176  29.123  27.431 -0.2667  0.1208  0.3128
47273W        W90264   3.521  22.046  24.919  0.2246  0.2898 -0.0946
47274W        W90265  34.439  21.009   8.919 -0.4165  0.5715  0.1617
47275W        W90266  17.183  23.764   1.147 -0.1579  0.0273  0.2156
47276W        W90267   6.786  13.149  27.730  0.1019  0.2286 -0.1370
47277W        W90268  10.951  14.150  10.022 -0.0764  0.1353 -0.0193
47278W        W90269  19.424  32.239  22.954  0.0662 -0.0957  0.1219
47279W        W90270  33.825  24.678   1.164 -0.1310 -0.1310  0.0469
47280W        W90271  31.439   1.429  16.543 -0.2370 -0.2867  0.0012
47281W        W90272   2.201  30.789  19.391  0.3562 -0.2165 -0.1612
47282W        W90273  34.342  16.872   6.111  0.3810  0.2233 -0.2004
47283W        W90274  27.460  26.375  23.608 -0.3623 -0.1506 -0.5349
47284W        W90275   4.562  18.524   1.692  0.2068  0.1027 -0.2097
47285W        W90276   6.421   3.062  24.127 -0.0952  0.1389 -0.2843
47286W        W90277   6.850  11.929  28.029  0.2670 -0.0897 -0.0874
47287W        W90278  25.890  28.734   4.436 -0.2445  0.0395  0.0763
47288W        W90279   7.272  17.274  19.937 -0.3847  0.1599 -0.3427
47289W        W90280   5.774  11.391  28.099  0.0182  0.0156  0.1679
47290W        W90281   1.204  25.967  10.405  0.1941 -0.0440  0.0918
47291W        W90282   4.416   4.998   0.702 -0.0862  0.1353 -0.0228
47292W        W90283   4.457  13.405  28.782  0.0866  0.1561 -0.3149
47293W        W90284  33.859   9.763   1.477  0.1666  0.0560 -0.0757
47294W        W90285   0.524  20.019  25.834  0.2553 -0.2423  0.1882
47295W        W90286   2.829  20.401   5.949  0.1404  0.1234  0.0404
47296W        W90287  30.034  32.507   8.414  0.2270  0.1209  0.1641
47297W        W90288  18.781  23.581  22.099 -0.0842 -0.1133 -0.1422
47298W        W90289   5.323  31.557   0.725  0.0922 -0.0373 -0.1853
47299W        W90290  12.802  18.821  19.517  0.2718 -0.2521 -0.1160
47300W        W90291  27.806  28.257  15.098 -0.1223  0.1748 -0.0961
47301W        W90292  26.117  15.046  22.959 -0.0932 -0.3203  0.1307
47302W        W90293   2.607   1.645   6.537 -0.1838 -0.0116  0.1309
47303W        W90294   6.476  17.233  20.728  0.1147 -0.1337 -0.1513
47304W        W90295  19.075  33.087  20.422  0.1199 -0.1863 -0.1473
47305W        W90296  16.673  32.595   2.458 -0.0163  0.0825  0.2500
47306W        W90297  23.714  25.791  24.427  0.1054  0.0110 -0.0053
47307W        W90298  19.493  23.219   1.828  0.3732 -0.2273  0.1865
47308W        W90299  10.266  11.273   0.812  0.0153  0.3514  0.1487
47309W        W90300   0.350  30.298  28.256  0.2038 -0.0830 -0.0414
47310W        W90301  18.834  25.778  18.048  0.0249  0.1529  0.1323
47311W        W90302   0.399  23.396  18.103 -0.0998 -0.0361  0.0340
47312W        W90303  12.036  13.794  25.459 -0.0985 -0.2328 -0.3401
47313W        W90304  21.740  28.310   5.171  0.0392  0.0856 -0.0029
47314W        W90305  29.053   9.234  15.310 -0.1283  0.2451 -0.0836
47315W        W90306  34.644  25.845   5.138 -0.0046  0.3670  0.0120
47316W        W90307   5.811  23.223  23.544 -0.0347  0.1588 -0.0551
47317W        W90308  32.739  34.111   3.025  0.1659 -0.2240  0.1144
47318W        W90309   8.282   0.221   9.446  0.1335 -0.4128 -0.1334
47319W        W90310  34.173  23.060  19.102  0.0645 -0.2417  0.3942
47320W        W90311   0.153  31.318  26.992 -0.0018  0.4847  0.0665
47321W        W90312   8.109  27.248  20.119  0.0519  0.4057  0.2810
47322W        W90313  33.049  30.600  28.977  0.1076 -0.0827  0.0679
47323W        W90314  33.482   2.497  10.286  0.0428  0.0829 -0.1252
47324W        W90315   1.817  19.220  26.507 -0.0737 -0.0969 -0.4292
47325W        W90316   0.134  30.202   8.449 -0.0342 -0.1973 -0.0355
47326W        W90317  31.738  14.913   3.013 -0.0770  0.0659  0.1756
47327W        W90318  27.536  28.517   3.073 -0.0255  0.0373  0.3295
47328W        W90319   9.145  10.089  22.782  0.1281  0.2928  0.1499
47329W        W90320   3.916  15.054  11.002 -0.1065  0.1411 -0.0632
47330W        W90321  20.653  25.609   3.710  0.0794 -0.2952 -0.0174
47331W        W90322   0.693  15.065   2.392  0.0126 -0.1678  0.2456
47332W        W90323   1.709  30.564   2.454  0.0528  0.2646  0.0487
47333W        W90324  15.207   1.688   5.930 -0.0379  0.0895 -0.0832
47334W        W90325  18.781  17.189   6.409 -0.2059 -0.0438 -0.0730
47335W        W90326  27.888  28.355   5.522 -0.0870  0.2224  0.0026
47336W        W90327   0.924  28.691   6.452 -0.2041  0.1500  0.2237
47337W        W90328  22.086  10.328   4.432  0.2740  0.0086  0.1316
47338W        W90329   0.904  25.190   1.222  0.1878  0.1156  0.0401
47339W        W90330  30.325   4.193   8.560  0.0051 -0.3134  0.2608
47340W        W90331  17.504  24.865  28.046  0.1004 -0.0672 -0.2337
47341W        W90332   3.496  21.686   8.209 -0.0087  0.0628  0.0042
47342W        W90333  26.979  19.216   5.003  0.2183  0.4809  0.7287
47343W        W90334  19.948  20.135  15.279  0.2233  0.1017 -0.0116
47344W        W90335  22.806  24.599   5.564 -0.2385  0.3260  0.2146
47345W        W90336  14.785   3.253   3.733 -0.3465  0.3317 -0.2710
47346W        W90337  12.148  18.721  27.809  0.1380 -0.0688 -0.2893
47347W        W90338   6.950  14.921  10.525  0.0052  0.2058 -0.3913
47348W        W90339   7.939   3.639  28.574  0.0369 -0.0996  0.0007
47349W        W90340  10.188  13.022   6.267  0.1854  0.0418  0.3477
47350W        W90341  18.195   4.511   8.632 -0.2169 -0.0960 -0.0663
47351W        W90342   5.831   1.876  23.889 -0.1148 -0.2773 -0.1814
47352W        W90343   4.039  29.702   3.150  0.1089 -0.1697 -0.0359
47353W        W90344  33.352  24.889   9.820  0.0482  0.1618 -0.0505
47354W        W90345   3.938  23.399   7.119  0.0685  0.1587  0.1814
47355W        W90346  32.816  16.858   3.002  0.0586 -0.2601  0.2037
47356W        W90347  32.135   5.926  24.446 -0.0214  0.1432  0.1156
47357W        W90348  25.038  20.347  21.517 -0.4348 -0.2926  0.1817
47358W        W90349  30.910  14.943  26.267 -0.0553 -0.2285 -0.0151
47359W        W90350  33.580  27.575   7.185  0.0107  0.0812  0.0865
47360W        W90351   0.545  21.129  25.637 -0.1519 -0.0205 -0.1891
47361W        W90352   3.947  17.639  29.005  0.3512  0.0239  0.1247
47362W        W90353   3.395  17.609  21.220 -0.3742  0.2175  0.2728
47363W        W90354   0.556  28.357   6.084 -0.1080  0.1126 -0.3492
47364W        W90355  10.504  28.658   5.930  0.2740 -0.0032 -0.0403
47365W        W90356  26.124  19.579   4.663  0.0949 -0.1292  0.0841
47366W        W90357  29.875  21.905   0.171  0.1834 -0.1790  0.1226
47367W        W90358  12.363  12.069   7.005  0.2659  0.4125 -0.1134
47368W        W90359  26.646  15.256   4.422  0.1139  0.1519  0.3643
47369W        W90360   6.253  12.722  22.773  0.1362 -0.2569 -0.2177
47370W        W90361  14.595  22.322  26.070  0.0399 -0.0169  0.0653
47371W        W90362   6.542  32.999   2.139 -0.2272  0.0298 -0.0312
47372W        W90363   5.117  30.465  26.437 -0.0474 -0.2442  0.1235
47373W        W90364  21.664  17.966  25.961  0.2920 -0.0902 -0.1673
47374W        W90365  27.758  15.073   9.104 -0.2076  0.4600 -0.2818
47375W        W90366  23.770   3.023  25.982  0.0742 -0.1585  0.0620
47376W        W90367  20.698  27.294   1.564  0.1919 -0.6040  0.1964
47377W        W90368  25.753  19.910   4.081 -0.1125  0.0150 -0.1127
47378W        W90369  34.177  18.220   6.843  0.5318 -0.0955  0.1692
47379W        W90370  30.160  19.405  23.040  0.1211 -0.2226  0.0811
47380W        W90371   1.344  29.207   1.506 -0.2034  0.1077 -0.2682
47381W        W90372  26.991  31.773  17.740  0.2867 -0.0909  0.0465
47382W        W90373  26.119  29.420  24.212 -0.1008 -0.0729 -0.0533
47383W        W90374  21.778  15.302   7.102  0.3270  0.0920 -0.1738
47384W        W90375  22.115  12.734   5.741  0.1018 -0.1103  0.0567
47385W        W90376  27.534  30.046   4.457  0.0196  0.0949 -0.1733
47386W        W90377  26.273  28.290   7.808  0.0683  0.1082  0.2746
47387W        W90378   1.536  17.818  28.524  0.0463 -0.0302  0.0949
47388W        W90379  22.196  22.110   8.781  0.0545 -0.1397 -0.0435
47389W        W90380  23.369   4.548   7.496 -0.1831 -0.2628 -0.4198
47390W        W90381  28.672  32.697   6.044 -0.2761 -0.0315  0.1965
47391W        W90382  10.260  19.478   7.699 -0.3090  0.1105  0.4347
47392W        W90383   6.129  10.128   5.386  0.2332  0.1971 -0.1393
47393W        W90384  27.631  14.787   3.293 -0.0691 -0.1360 -0.1663
47394W        W90385  25.825   9.488   3.448  0.1769 -0.1183 -0.1317
47395W        W90386  24.089  24.998   0.407 -0.1084 -0.0336 -0.1099
47396W        W90387  21.128  26.261   7.501 -0.1418 -0.2938 -0.0340
47397W        W90388  13.285  23.203   0.709  0.1301  0.0785  0.1299
47398W        W90389   2.013  18.811   5.493 -0.2135  0.2543  0.0393
47399W        W90390   2.722   9.427   5.827 -0.0108 -0.0881 -0.0131
47400W        W90391  15.544  30.704  28.064  0.0534 -0.1963  0.0284
47401W        W90392   6.009   9.140  17.497 -0.2996  0.1831 -0.0744
47402W        W90393   3.579  16.483   5.975 -0.0573 -0.1173 -0.1025
47403W        W90394  33.960  10.605  27.587 -0.3365  0.0106 -0.0226
47404W        W90395  27.537  26.464  25.543 -0.2063  0.2642  0.2573
47405W        W90396  31.995  32.355   4.445 -0.1272 -0.3792 -0.1218
47406W        W90397  31.958  20.933   5.739  0.4758 -0.0026  0.1070
47407W        W90398  14.702  31.452  24.500 -0.2754 -0.0618  0.1882
47408W        W90399   3.603   1.883   9.471  0.0097  0.2632  0.1844
47409W        W90400  31.882   0.228   1.277  0.1329  0.0462 -0.1995
47410W        W90401  26.544  20.500   6.167  0.2873 -0.2210  0.1949
47411W        W90402  31.455   7.100   3.741  0.2832  0.0526  0.0017
47412W        W90403  19.818  13.902   3.570  0.0543  0.0364  0.1936
47413W        W90404  31.108  29.456  26.436 -0.1008 -0.0947 -0.0045
47414W        W90405  29.639  16.419  10.230  0.1303 -0.3164 -0.0337
47415W        W90406  10.880  30.354  24.095  0.1197 -0.0664 -0.1105
47416W        W90407  20.249  13.774   5.557 -0.3403  0.2980  0.3956
47417W        W90408   3.740  24.713   5.674  0.0145  0.1764 -0.0126
47418W        W90409   1.765  18.355  10.728  0.1473 -0.0726  0.1148
47419W        W90410  15.041   4.099  20.274  0.2869 -0.0010 -0.1276
47420W        W90411  33.230  14.278   8.872  0.0054 -0.0530 -0.2746
47421W        W90412  32.900  13.117   8.142  0.0168  0.1368  0.0522
47422W        W90413   9.111  26.400  27.839  0.0032 -0.0825  0.1054
47423W        W90414   2.507  30.871   4.788  0.1006  0.0951 -0.1746
47424W        W90415  10.886  13.052   4.724 -0.3594  0.2104  0.3518
47425W        W90416  32.676  13.133   6.279  0.0095 -0.0509 -0.1323
47426W        W90417  25.964  16.119   6.637 -0.2856  0.0334 -0.2800
47427W        W90418  23.649  10.490   9.538 -0.0959  0.3063  0.0396
47428W        W90419   2.897  24.536   2.658 -0.1543 -0.1277  0.3231
47429W        W90420   8.960  28.312   5.008  0.2836 -0.2477 -0.2356
47430W        W90421   8.275  29.325   0.285 -0.3250  0.0787  0.1175
47431W        W90422   6.173   3.346   5.119  0.0119 -0.0791 -0.0403
47432W        W90423  20.319   5.028   8.937 -0.3121  0.0232 -0.0354
47433W        W90424  23.224   9.651  13.390  0.0628 -0.4076 -0.0500
47434W        W90425  30.541  20.463  26.248  0.1388  0.0605  0.1660
47435W        W90426  29.803  21.308   5.488  0.0422 -0.2714 -0.0577
47436W        W90427  31.546  25.057   9.635 -0.2421  0.1062  0.2949
47437W        W90428   2.459  20.825  27.044  0.3152  0.1588  0.2080
47438W        W90429  21.431  25.212   2.815 -0.1039 -0.0948  0.1588
47439W        W90430   3.777   8.548   0.461  0.4739 -0.2676 -0.1528
47440W        W90431  25.709  18.451  15.663  0.0108 -0.0151  0.2833
47441W        W90432   3.670  21.236   4.313  0.0572 -0.0715 -0.0093
47442W        W90433  30.858  24.158  28.943 -0.1449  0.1621 -0.1072
47443W        W90434   0.579  15.527   2.602  0.0883 -0.1570 -0.1189
47444W        W90435  33.246  19.465   9.412  0.1766  0.1900 -0.1924
47445W        W90436  23.266  20.128   0.686  0.1876 -0.3801  0.1662
47446W        W90437  20.166  30.562   0.270  0.0444 -0.0865  0.0859
47447W        W90438  26.094  23.971   1.061 -0.0096 -0.0809 -0.0466
47448W        W90439  34.628  18.805   4.368  0.1044 -0.0590 -0.0038
47449W        W90440  30.722  21.525   1.453  0.1607  0.0135 -0.0068
47450W        W90441   1.693  30.421  25.806 -0.0457  0.2440  0.2023
47451W        W90442  22.103  32.483  23.543  0.0965 -0.2821 -0.1871
47452W        W90443  26.529  10.450   3.630 -0.0965  0.0009 -0.0331
47453W        W90444  27.001  16.294  28.745  0.0080  0.1920 -0.2023
47454W        W90445  29.813  17.770   7.565  0.3586  0.0286 -0.3283
47455W        W90446  31.720  21.359  27.728  0.5308  0.2124 -0.0070
47456W        W90447  20.036  20.701   1.846 -0.1804 -0.0518 -0.0192
47457W        W90448   3.023  16.780   8.822 -0.2003 -0.2763 -0.0308
47458W        W90449  12.643  14.846  26.721 -0.1037  0.4195  0.1290
47459W        W90450  33.481  13.153   6.863 -0.2414 -0.2884  0.2664
47460W        W90451  25.460  10.768  23.582 -0.0883  0.0188  0.2012
47461W        W90452  27.289  26.461   9.267  0.1498 -0.0089 -0.0370
47462W        W90453  33.258  32.319  27.239  0.1364 -0.2622  0.0091
47463W        W90454  30.165  27.378   4.385  0.2717  0.0732  0.2626
47464W        W90455  33.628  10.283  24.267 -0.1271  0.2415  0.3624
47465W        W90456  24.230  13.187  20.040 -0.0008 -0.0307  0.1084
47466W        W90457  30.981   7.583   6.360  0.1686 -0.0056 -0.0570
47467W        W90458   0.367  31.230   0.407  0.1232 -0.3067 -0.0343
47468W        W90459  10.630  29.715   6.375  0.0946  0.1459 -0.0805
47469W        W90460   5.314  30.310   5.700  0.3022 -0.0712  0.3318
47470W        W90461  29.012  18.421   2.815 -0.0164  0.4097 -0.0865
47471W        W90462   1.184  26.156   5.458 -0.0229 -0.0169 -0.2316
47472W        W90463   8.566  25.431   6.239  0.0244 -0.0680  0.4552
47473W        W90464  25.803   6.190   2.039  0.1373 -0.0827  0.2729
47474W        W90465  25.938  27.083  23.599  0.0686 -0.0069  0.0714
47475W        W90466   3.818  12.797   5.642  0.1862 -0.1286 -0.3613
47476W        W90467   8.007  22.664   6.300  0.1366  0.1822 -0.0717
47477W        W90468   2.655  26.805  20.842 -0.0486  0.1749  0.1128
47478W        W90469  27.488  21.621   9.422  0.1948  0.1482 -0.1148
47479W        W90470  33.371  16.579  10.420 -0.1707 -0.2480 -0.1986
47480W        W90471  18.501   4.039  26.100  0.1485 -0.1672  0.0765
47481W        W90472   5.293  10.025   7.393 -0.1453 -0.3219  0.1383
47482W        W90473  29.465   0.481   7.794 -0.1976  0.0824  0.2256
47483W        W90474   4.416  27.386   6.042 -0.2942 -0.0162  0.4073
47484W        W90475   4.355  22.078  22.329 -0.0844  0.6132  0.2096
47485W        W90476  28.186  20.139  28.781  0.2538 -0.2183  0.0705
47486W        W90477  27.716   2.942   7.457  0.0580 -0.1142 -0.2124
47487W        W90478  11.690  13.068   4.459  0.0382  0.0320 -0.0881
47488W        W90479  33.401  29.234  27.807  0.0851 -0.3955  0.1196
47489W        W90480  21.724  27.490   0.103 -0.1915  0.1090  0.0161
47490W        W90481  21.350  19.382   8.003  0.0198 -0.1426  0.1296
47491W        W90482  29.716  17.748   4.773 -0.1879  0.0062  0.1001
47492W        W90483  11.882  27.797   6.289 -0.1156  0.1645  0.2661
47493W        W90484  31.759  15.673   1.159 -0.0719  0.0041  0.0826
47494W        W90485  19.553  20.462  20.942 -0.1610 -0.1744  0.1719
47495W        W90486  27.237  18.897   4.356  0.0115  0.5227 -0.0988
47496W        W90487  31.677  25.234   2.329 -0.3374  0.0706 -0.0312
47497W        W90488   0.295  15.202   3.025 -0.1062  0.0853 -0.1977
47498W        W90489  24.853  31.040  27.003 -0.0322  0.1647 -0.0468
47499W        W90490  16.258   7.482  10.292 -0.1246 -0.1398  0.4158
47500W        W90491  19.518  22.556  17.212 -0.0615  0.0533 -0.2605
47501W        W90492   0.863  17.051  25.232 -0.2170 -0.1446 -0.2487
47502W        W90493   7.482  12.543   0.080 -0.3308 -0.0467 -0.3065
47503W        W90494  33.335  14.051  10.790 -0.0819  0.4572  0.1837
47504W        W90495  29.984  28.019  20.176 -0.0847 -0.3756 -0.4051
47505W        W90496  10.920  28.060   1.724  0.1211  0.1206 -0.2568
47506W        W90497  33.781  19.404  20.271 -0.1382 -0.2144  0.1120
47507W        W90498  24.166  23.227   6.579  0.0610 -0.0864  0.1740
47508W        W90499   3.076  30.563   3.616  0.1228 -0.0009  0.0030
47509W        W90500   1.269  30.764  21.500 -0.0118  0.1947 -0.3041
47510W        W90501  31.194   9.922  10.764 -0.1771  0.1724  0.0320
47511W        W90502  23.737   5.738   6.806 -0.0281  0.0210  0.0634
47512W        W90503   3.292  13.521  28.403 -0.2281  0.2075  0.0347
47513W        W90504   3.889   0.673   8.130  0.0192  0.1119  0.1870
47514W        W90505  34.597  22.238  23.583 -0.1672  0.1939  0.0381
47515W        W90506  18.962  19.205   5.118  0.0647 -0.1953 -0.2543
47516W        W90507   7.429  11.809   6.017 -0.0710  0.4291 -0.0757
47517W        W90508   3.681  28.194   3.932  0.0079 -0.1723 -0.1043
47518W        W90509  21.609  32.245   3.195 -0.2758 -0.0041 -0.2429
47519W        W90510  19.587   8.654  29.149 -0.1801  0.0576 -0.0549
47520W        W90511  27.858  25.232   8.827 -0.0614 -0.0996 -0.2230
47521W        W90512  30.330  19.600   6.644 -0.1731 -0.0535  0.0023
47522W        W90513  20.384  21.527   1.962  0.0663  0.0735 -0.0730
47523W        W90514   4.432  22.449   4.762 -0.1581  0.0991 -0.3300
47524W        W90515  11.213  20.930   7.780 -0.1352  0.1044  0.0019
47525W        W90516   4.274  27.133  19.122 -0.0049  0.0762  0.1189
47526W        W90517  27.996   7.637  26.539  0.2428  0.0989 -0.1239
47527W        W90518  14.847  27.428   3.252 -0.1058 -0.1694  0.0855
47528W        W90519   4.293  30.816  26.392 -0.2489 -0.1394 -0.0884
47529W        W90520  31.202  30.301   2.088  0.0024  0.1531  0.0894
47530W        W90521   4.379   9.275   5.187 -0.1992  0.0471 -0.2586
47531W        W90522  24.349  23.636   2.061  0.0913  0.1484  0.3836
47532W        W90523  16.228  30.697   4.501 -0.0387  0.1980  0.0149
47533W        W90524   9.393  22.422  17.300 -0.3080  0.4366  0.1123
47534W        W90525  28.841  21.183  26.189 -0.2905  0.0498  0.0624
47535W        W90526  18.065  24.092   7.949 -0.1009 -0.0102 -0.1015
47536W        W90527  13.877  33.354  27.473 -0.0821  0.0700 -0.0518
47537W        W90528  30.780  12.355  24.146 -0.3361  0.0003  0.1466
47538W        W90529   7.768  21.426   3.239  0.1423  0.0858 -0.2461
47539W        W90530  26.190   2.758   8.049 -0.0571  0.0785  0.3043
47540W        W90531  20.468  22.051   8.663  0.0756 -0.0706 -0.1743
47541W        W90532   7.655  28.439   4.968 -0.1278  0.0388  0.1652
47542W        W90533  25.109  24.194  29.145 -0.4727 -0.1103  0.3094
47543W        W90534   3.415  22.952  14.077 -0.2699 -0.3096 -0.1859
47544W        W90535   5.081   6.126  26.453 -0.0113  0.0477 -0.1056
47545W        W90536  19.210  18.008  22.891 -0.2395 -0.1401  0.4404
47546W        W90537  21.793  24.495   9.116  0.1687 -0.0478 -0.0738
47547W        W90538  23.114  26.974   4.179 -0.1706  0.0617 -0.0292
47548W        W90539  31.412  33.250   1.361  0.1969  0.1052  0.0307
47549W        W90540  33.394  11.452   6.221  0.1884 -0.1450  0.1507
47550W        W90541  21.894  23.037   4.616 -0.1933 -0.2131  0.1019
47551W        W90542  15.593  23.330  24.605 -0.3300 -0.1176  0.0165
47552W        W90543   7.738  10.867   9.047  0.0125  0.2399 -0.1247
47553W        W90544  34.667  34.093   3.099  0.2065 -0.0325 -0.0081
47554W        W90545   2.158  26.832   6.719  0.0316  0.3173 -0.1430
47555W        W90546  20.889  24.596  25.824 -0.0515  0.1488  0.2545
47556W        W90547   2.398  29.648   4.083 -0.0217  0.1132  0.2215
47557W        W90548  24.108   9.213   0.773  0.0308  0.0009 -0.0019
47558W        W90549   1.327  34.501   3.956  0.1813 -0.2304  0.0344
47559W        W90550   0.180   1.933   4.369  0.0305 -0.0459  0.1148
47560W        W90551  27.964  21.727   3.697 -0.0938 -0.0228 -0.0306
47561W        W90552   3.309  15.793   1.976 -0.2773  0.1019  0.0637
47562W        W90553  10.529   0.750  25.670 -0.1888 -0.1149  0.1595
47563W        W90554   6.456  22.876  16.839 -0.0631 -0.0668 -0.0791
47564W        W90555  20.306  18.256   6.157  0.0698  0.0288  0.0112
47565W        W90556   1.942  18.414  25.589  0.2380 -0.4709 -0.0846
47566W        W90557  33.369   0.646  27.302  0.2950  0.1671 -0.2815
47567W        W90558   9.465  13.241   2.110  0.2055  0.3754 -0.0188
47568W        W90559  30.042  21.761  17.407 -0.1937  0.1014 -0.1823
47569W        W90560  31.466  26.299   5.809 -0.1203  0.2558  0.2382
47570W        W90561   9.341  30.501   4.343 -0.0497  0.0866 -0.2648
47571W        W90562   5.709  16.794   5.817 -0.1837  0.2054  0.0796
47572W        W90563  21.085  18.571  28.015 -0.0352 -0.0682 -0.0857
47573W        W90564  26.414  22.271   7.695  0.2075 -0.1386  0.2656
47574W        W90565  24.156  17.314   7.793 -0.1562 -0.1018  0.2442
47575W        W90566  14.786  19.108  29.033  0.1448  0.0978  0.3171
47576W        W90567   2.832  10.929  22.956  0.1208 -0.0206  0.0100
47577W        W90568  26.995  20.628   6.675 -0.0639 -0.4117 -0.0598
47578W        W90569   4.435  17.989   6.863 -0.3011  0.0096  0.2038
47579W        W90570  26.357  25.119  14.431  0.0131  0.0772 -0.1981
47580W        W90571  26.580   8.849   7.689 -0.2824  0.1575  0.0353
47581W        W90572   6.139  21.131   2.197 -0.0396 -0.1498  0.0844
47582W        W90573  22.903  23.785   2.667  0.3649  0.0574 -0.0709
47583W        W90574  34.514  13.454   4.693  0.1204  0.0236 -0.0397
47584W        W90575   0.369  22.970   7.127 -0.0261 -0.1026 -0.0893
47585W        W90576   4.868  32.087   9.643 -0.3330 -0.0301 -0.0793
47586W        W90577  29.867  21.235   6.431  0.2046 -0.0301 -0.0249
47587W        W90578  31.939  27.908  23.794 -0.0049  0.1968  0.1105
47588W        W90579  14.577  13.439   4.066  0.0721  0.1904  0.0062
47589W        W90580  21.620  25.195  28.626 -0.0689 -0.0022  0.4791
47590W        W90581  20.101  15.373   8.505 -0.0968  0.0055 -0.3392
47591W        W90582  27.426  28.204   2.597 -0.0019  0.0990  0.0638
47592W        W90583   0.842  18.607   8.069 -0.0816 -0.0415  0.0361
47593W        W90584  28.681  27.985  27.126  0.0128 -0.0435 -0.0153
47594W        W90585  16.521  30.013   1.871 -0.2130  0.0101 -0.1318
47595W        W90586  18.399   6.602   4.918 -0.0348 -0.1403 -0.1437
47596W        W90587   0.356  13.758   0.456  0.0804 -0.3054  0.3026
47597W        W90588   2.446  31.367   7.539 -0.1441  0.2292  0.2274
47598W        W90589  25.808  19.698   7.711  0.0940 -0.0361  0.1996
47599W        W90590   3.827  15.370   8.136  0.1257 -0.2369 -0.3380
47600W        W90591  16.927   5.350  27.435  0.2144 -0.0951 -0.2549
47601W        W90592  23.021  28.836   6.613  0.3575  0.3835  0.2086
47602W        W90593   1.664  14.278   0.331 -0.1054  0.0338  0.2442
47603W        W90594  11.093  10.613   4.199 -0.0489 -0.1117 -0.2998
47604W        W90595  33.096  22.230  21.986 -0.5285  0.1017 -0.1259
47605W        W90596  14.411  23.885   1.047 -0.1008  0.0623  0.0442
47606W        W90597  32.648  26.330   3.228  0.4742 -0.0504  0.3232
47607W        W90598   4.774  27.880  26.570  0.0766  0.2333  0.0659
47608W        W90599  29.693  30.040  29.038  0.1861 -0.0905  0.0618
47609W        W90600  25.949  17.848   2.620  0.1394  0.1811  0.0038
47610W        W90601   7.282  14.987   5.576 -0.2876 -0.1892  0.0006
47611W        W90602  30.002  27.358   7.800 -0.0365 -0.1791  0.2480
47612W        W90603   5.863  25.176   3.787  0.0697 -0.4717 -0.0028
47613W        W90604  25.477  31.998   6.903  0.2595  0.0520 -0.2462
47614W        W90605  22.861  28.469  27.238  0.2117 -0.2346  0.3486
47615W        W90606  31.656   0.115  26.000  0.2855 -0.1934  0.0375
47616W        W90607  28.726  23.537  18.906  0.1184 -0.0013 -0.0131
47617W        W90608   3.405  31.893   9.680 -0.0369  0.1015  0.2355
47618W        W90609  21.355   1.346   4.161  0.0277 -0.0147  0.0495
47619W        W90610  18.226  20.216   7.837 -0.3554  0.2954  0.3144
47620W        W90611  16.241  23.459   6.988 -0.1960  0.0390 -0.0634
47621W        W90612   7.504  28.939   7.211  0.1283  0.1873  0.2346
47622W        W90613  32.769  22.976   4.687  0.0786 -0.0423 -0.1266
47623W        W90614   0.572  14.209   0.271  0.0878  0.1844 -0.0595
47624W        W90615  23.417  13.285  28.295 -0.1890  0.2561  0.0526
47625W        W90616  28.600  22.546   6.487 -0.0196 -0.0285 -0.1810
47626W        W90617   7.602  18.393   8.744  0.0039 -0.1006  0.1720
47627W        W90618  31.502  11.656   9.866  0.2474 -0.1089 -0.0855
47628W        W90619   6.514  33.351   5.455 -0.0871  0.1385  0.2446
47629W        W90620  12.472  30.964   7.612  0.0478 -0.0125 -0.1700
47630W        W90621  33.926  10.495   7.410 -0.1448  0.0787  0.1372
47631W        W90622  32.082   1.638  27.202 -0.1487 -0.1399  0.1440
47632W        W90623   2.800  12.204  29.168 -0.0763 -0.2700  0.0599
47633W        W90624  19.451  21.954   8.976 -0.1075  0.1077  0.3014
47634W        W90625   6.251  18.908  25.121 -0.0513  0.0210  0.0402
47635W        W90626   7.510  30.346  19.830 -0.4204  0.3492 -0.1017
47636W        W90627  22.582  14.408   3.353  0.2610 -0.1742 -0.0218
47637W        W90628  33.629   2.996   9.346  0.0318 -0.2768  0.0126
47638W        W90629  32.673  16.403   6.247 -0.1780 -0.1288  0.1628
47639W        W90630  24.641  22.132   9.221  0.2813  0.1929 -0.1510
47640W        W90631  22.580  10.214   6.809 -0.0220 -0.3289  0.1337
47641W        W90632  22.434  33.819  17.914  0.1581 -0.2697 -0.0345
47642W        W90633   3.439  19.171  11.388  0.0296  0.2354  0.1228
47643W        W90634  25.917   6.055  26.284  0.1435  0.0190  0.2106
47644W        W90635  25.450  31.385   4.330 -0.1121  0.2739 -0.0386
47645W        W90636  22.695  14.616   8.559  0.2225 -0.3773 -0.1879
47646W        W90637  20.934  10.306  20.937 -0.0021  0.0012  0.2140
47647W        W90638   0.281   9.979  28.652 -0.0266 -0.0839  0.0162
47648W        W90639   2.993   9.135   2.664 -0.2239  0.6190  0.0050
47649W        W90640   9.510  34.049  15.947  0.0049  0.0558  0.0060
47650W        W90641  16.204  26.928   9.335 -0.1440 -0.1832  0.0385
47651W        W90642   8.978  30.277   9.770 -0.1755 -0.0214 -0.2530
47652W        W90643  32.062  24.475   9.492  0.0260 -0.0256  0.2902
47653W        W90644  27.232  32.838  24.469 -0.2006  0.1204  0.0815
47654W        W90645  27.136  32.386  13.136 -0.1364 -0.0413 -0.2384
47655W        W90646  31.501  28.883   5.620 -0.0453 -0.1066  0.1048
47656W        W90647  10.320   9.473   3.590  0.0131  0.4869  0.1297
47657W        W90648  14.945  31.770  17.574  0.1488 -0.1804  0.4696
47658W        W90649   7.004  21.802  14.216 -0.0715 -0.0571  0.0477
47659W        W90650   1.453  19.522  10.581  0.2364  0.0278  0.3045
47660W        W90651  32.642  25.989  24.176 -0.1674  0.1053  0.2038
47661W        W90652   1.993  33.957   6.138 -0.1195  0.1584  0.1471
47662W        W90653  24.100  32.015  25.445 -0.0249 -0.2437 -0.1509
47663W        W90654  25.837  21.600  28.024 -0.1108 -0.2922  0.2036
47664W        W90655   4.473  23.540  25.419  0.0410  0.0549 -0.3274
47665W        W90656  10.154  22.867   8.715  0.1691  0.1280  0.1797
47666W        W90657  21.273  29.376  27.182  0.3921  0.4352  0.0066
47667W        W90658  27.119  25.480  24.638  0.0271  0.1514  0.1349
47668W        W90659  25.934  17.769   4.820  0.1168 -0.2376  0.1272
47669W        W90660   3.323   1.355   8.510  0.1985 -0.0712  0.2797
47670W        W90661   1.117   7.495   4.781  0.0646 -0.1006  0.0569
47671W        W90662  32.569  28.318   6.093 -0.3577  0.3777  0.3701
47672W        W90663  20.094  31.801   8.966  0.0769 -0.0602 -0.0399
47673W        W90664  34.147   5.169   9.774 -0.1471  0.1851 -0.0238
47674W        W90665  30.057   7.139   9.251  0.1924 -0.2958  0.1429
47675W        W90666  32.919   1.787   1.260  0.2471 -0.2624  0.1720
47676W        W90667   1.299  16.304  28.380 -0.0042  0.1188  0.2378
47677W        W90668  34.472  13.069   8.006  0.2195 -0.1254  0.2191
47678W        W90669  28.046  24.210   6.320 -0.1446  0.2439  0.2673
47679W        W90670  16.511  19.683   9.325 -0.0489 -0.0773 -0.2241
47680W        W90671  30.889   0.044  28.383 -0.0053 -0.0664 -0.0312
47681W        W90672  34.769   0.215   1.677 -0.1488  0.0243  0.2585
47682W        W90673  16.075  12.769   6.431  0.1782  0.1319  0.1077
47683W        W90674  26.030  28.701   8.210  0.2342  0.1415 -0.0148
47684W        W90675  24.455  24.383   7.321 -0.2261  0.2598  0.3341
47685W        W90676  25.921  23.932   7.469  0.2941 -0.2876 -0.1026
47686W        W90677  20.935  21.642   0.830  0.1544 -0.0087  0.2075
47687W        W90678   0.718  33.721   6.237  0.0416  0.0590  0.0635
47688W        W90679  33.804  24.465  27.624  0.1815 -0.1306 -0.0520
47689W        W90680   1.409  24.372   0.180  0.0107 -0.0705  0.1826
47690W        W90681  34.152  14.082   7.592  0.1459  0.2737 -0.0701
47691W        W90682   5.711  20.629   2.793  0.2487  0.0558  0.1643
47692W        W90683  24.711  30.345   8.259  0.0771  0.0589  0.1971
47693W        W90684  30.965  20.034   0.053  0.3213  0.0188 -0.1724
47694W        W90685  28.068  28.953  26.869 -0.0158 -0.0138 -0.0567
47695W        W90686  22.919  34.523   2.949  0.0311  0.1489 -0.0118
47696W        W90687  32.877   1.083   1.901  0.3103 -0.3244 -0.0716
47697W        W90688  20.952  19.673  18.578  0.3625 -0.0886 -0.1611
47698W        W90689   1.670  26.199   5.568  0.1052 -0.1050  0.0771
47699W        W90690   0.643  13.974  23.322 -0.0729  0.0253  0.2338
47700W        W90691  31.602  19.822   9.340  0.0198  0.0750 -0.2585
47701W        W90692   9.091  29.669   1.252 -0.1260 -0.1333  0.0208
47702W        W90693  21.216  12.416  28.436 -0.2383  0.2314 -0.0915
47703W        W90694  29.605  10.667   3.167 -0.2396  0.1819  0.1953
47704W        W90695   2.151   9.056   3.356 -0.1434  0.0959 -0.1533
47705W        W90696  11.237  17.040  29.063 -0.0029  0.1942  0.0436
47706W        W90697  23.766  10.736   2.842  0.0888 -0.1649  0.0503
47707W        W90698  23.875  27.051   4.532 -0.4526 -0.2578 -0.3086
47708W        W90699  34.148   1.458   7.875 -0.1204 -0.1022  0.1579
47709W        W90700  26.765  30.512  28.031 -0.2851  0.1016  0.0202
47710W        W90701   8.217  15.375   9.581 -0.0481 -0.0771 -0.1107
47711W        W90702   5.850  29.660   8.036 -0.0178  0.0770 -0.0791
47712W        W90703  28.944   4.727   2.704 -0.0107 -0.0937 -0.1266
47713W        W90704  31.145  19.306   3.799  0.1775  0.1344 -0.0635
47714W        W90705  23.903  29.577   6.852 -0.1254 -0.3424  0.1524
47715W        W90706  26.166  26.794  26.441 -0.0227  0.0332  0.0331
47716W        W90707   5.342  34.625   6.884 -0.0887  0.1418  0.1717
47717W        W90708   6.870  23.335   0.315  0.2439 -0.2254  0.0226
47718W        W90709  32.109  24.936   9.666  0.0922 -0.3633  0.3012
47719W        W90710  31.378  19.822   8.560  0.1044 -0.0636  0.4097
47720W        W90711  34.525  33.490   6.980  0.4200  0.0754  0.0070
47721W        W90712   4.276   7.874  11.445 -0.1212  0.0531 -0.3786
47722W        W90713  15.464  29.672  28.911 -0.0942  0.2840  0.0661
47723W        W90714  10.468  21.746  27.834  0.2000 -0.1621  0.1404
47724W        W90715  31.588   0.335   0.797  0.2030  0.1129 -0.0555
47725W        W90716  20.897  25.528   0.988  0.1172 -0.1785 -0.0636
47726W        W90717  26.504  21.296   9.446 -0.2424  0.1191  0.1081
47727W        W90718   7.240  26.101  19.144  0.1202  0.0075  0.0387
47728W        W90719  31.373   3.029   6.618 -0.2355 -0.0547  0.0512
47729W        W90720  23.389  12.373  24.005 -0.1579 -0.0068  0.1462
47730W        W90721  12.175  23.018  25.920 -0.2556 -0.0955  0.1569
47731W        W90722  24.720   8.045  21.325 -0.0442  0.1146 -0.0208
47732W        W90723  21.233  16.200   5.381 -0.0847  0.0472  0.0193
47733W        W90724  29.529  13.549   3.475 -0.0679 -0.0368 -0.0055
47734W        W90725   3.423  22.233   2.819 -0.1107  0.1325 -0.0495
47735W        W90726   5.498  16.619   3.081 -0.1582 -0.4923 -0.0201
47736W        W90727   5.592   7.611   9.475  0.0210 -0.1871  0.0275
47737W        W90728   3.190  13.727  25.216 -0.1093 -0.0858 -0.0750
47738W        W90729  12.391  25.234  29.176 -0.3659  0.2634  0.0202
47739W        W90730  30.516   5.058   9.482  0.2718 -0.0697 -0.1061
47740W        W90731   4.614   1.047   9.397 -0.1681 -0.2152  0.0923
47741W        W90732   3.136  18.307  26.986 -0.0313  0.0259  0.4893
47742W        W90733  32.164  28.847   2.515  0.1335  0.0566 -0.0808
47743W        W90734  24.942   4.772   0.524  0.3885 -0.0094 -0.0791
47744W        W90735  23.550  20.239   6.188 -0.3600  0.0673  0.0241
47745W        W90736  34.640  21.556   8.793 -0.2708  0.1744 -0.2772
47746W        W90737  21.882  31.318   7.278 -0.1104  0.3359  0.1568
47747W        W90738   2.959  16.445  10.846 -0.1412 -0.1124  0.5917
47748W        W90739  23.507  24.457  10.077  0.1997  0.0983 -0.0219
47749W        W90740   3.827   0.551   2.502  0.0953  0.1541  0.1251
47750W        W90741   1.415  20.576   7.775 -0.0535  0.0073  0.2963
47751W        W90742  31.339  19.113   1.984 -0.2601 -0.1636  0.0502
47752W        W90743  30.184  22.651   7.483 -0.1059  0.0247  0.1030
47753W        W90744  29.064  10.908   6.782  0.1453  0.1526  0.2695
47754W        W90745  33.815  17.185  26.457 -0.0814  0.0469  0.2156
47755W        W90746   1.480  21.880  10.302  0.0805  0.1117  0.0057
47756W        W90747   4.295  18.883   7.443 -0.2051 -0.0050  0.1817
47757W        W90748  15.932  19.978  24.529 -0.2647 -0.2285  0.1382
47758W        W90749  21.397  19.515   4.036  0.1958  0.0105  0.0874
47759W        W90750   7.183  23.730   5.375 -0.0059  0.0363 -0.0647
47760W        W90751  33.564  20.349   9.012 -0.1166 -0.0032 -0.4720
47761W        W90752   6.754  18.448  26.849  0.0181  0.0953 -0.0822
47762W        W90753  25.582  25.659   6.255  0.0886  0.0911  0.0709
47763W        W90754   1.285  11.818   3.794  0.1322 -0.1571 -0.2071
47764W        W90755   7.271  20.150   8.861 -0.2253 -0.3835 -0.0394
47765W        W90756  32.219   3.578  17.856 -0.5308  0.0830 -0.1257
47766W        W90757   3.587  19.935  25.234 -0.1581  0.1299  0.1728
47767W        W90758  26.380  25.100   4.607 -0.2122 -0.3137  0.1858
47768W        W90759  31.351  27.827  29.195 -0.2447 -0.0222  0.0963
47769W        W90760   4.337  32.374  29.220  0.1440  0.0268 -0.2106
47770W        W90761  24.371  28.098   6.013  0.0336  0.2852 -0.2513
47771W        W90762  31.762   6.872   1.777 -0.0601 -0.1002 -0.0487
47772W        W90763   7.569  14.995  28.098  0.0789 -0.0597  0.0823
47773W        W90764   9.675  29.027  21.699 -0.1518 -0.1350 -0.1284
47774W        W90765  10.368  27.057   5.365 -0.0504 -0.2766 -0.1111
47775W        W90766  22.733  22.237   7.504 -0.1034  0.2495  0.0723
47776W        W90767   0.864  29.517  26.840  0.3706 -0.3927 -0.2072
47777W        W90768   3.088  26.290  26.922 -0.4410 -0.0729  0.1582
47778W        W90769  31.902  31.609  22.281  0.2006 -0.0584  0.0576
47779W        W90770   2.633   2.796   4.727  0.2358  0.3174 -0.0815
47780W        W90771   7.282  28.399   2.227 -0.0060  0.0407  0.1820
47781W        W90772   5.025   3.801  28.607 -0.1282 -0.0789  0.1924
47782W        W90773   2.868  18.855   1.810 -0.2544 -0.0975  0.0915
47783W        W90774  31.533  34.580   1.993  0.0630  0.2139 -0.4347
47784W        W90775  26.204  25.277   7.702 -0.0646 -0.2178  0.0079
47785W        W90776   4.460  19.785   8.782 -0.1124  0.2610 -0.1337
47786W        W90777   8.381  25.221   0.069 -0.1281  0.2020  0.1645
47787W        W90778  26.059   0.886   5.794  0.1302 -0.1841  0.0343
47788W        W90779  29.553  14.366   6.761 -0.0780 -0.0095 -0.0771
47789W        W90780  33.803  16.545   2.711  0.1280 -0.1924 -0.3302
47790W        W90781   2.875  29.898  28.012  0.2937 -0.0045 -0.0176
47791W        W90782   0.971  25.713   9.124 -0.1718  0.0164  0.1568
47792W        W90783  24.956  17.938   9.521  0.1862 -0.0312 -0.2416
47793W        W90784   3.160  26.086   9.070  0.1018 -0.0013 -0.2567
47794W        W90785  23.751  30.843  24.420 -0.2589  0.2427 -0.3380
47795W        W90786   4.827  24.806   3.615  0.0626 -0.0511  0.3694
47796W        W90787  24.892   7.808   6.111  0.0002  0.2419  0.0811
47797W        W90788  10.679  24.277  25.895  0.0823 -0.0316 -0.1922
47798W        W90789   6.190  25.704   5.932 -0.1466 -0.2655 -0.2773
47799W        W90790  18.256  20.926   0.709 -0.1486  0.1049  0.2195
47800W        W90791  28.782  16.418   9.207 -0.2495 -0.1875  0.0405
47801W        W90792   3.543  33.146   5.394  0.1109 -0.2673 -0.3646
47802W        W90793   7.602  19.659  27.129  0.0527 -0.0975  0.1790
47803W        W90794  23.135  11.173   6.857 -0.1745 -0.0301 -0.1173
47804W        W90795   3.398  22.656   2.562  0.1495  0.2294  0.1411
47805W        W90796  33.667  24.311   1.993 -0.2149  0.1172 -0.2125
47806W        W90797   6.857   2.730  20.348  0.3520 -0.1287 -0.0467
47807W        W90798  21.665  21.029  25.023 -0.0183 -0.1778 -0.1326
47808W        W90799  28.929  31.327   7.410 -0.0608 -0.0200  0.1944
47809W        W90800  27.890  12.967   2.085  0.1408 -0.2501 -0.1141
47810W        W90801  25.362   3.365   4.419 -0.2241 -0.0172  0.2560
47811W        W90802   2.207  19.645   8.908  0.0003 -0.2406 -0.0505
47812W        W90803   2.512  28.164  28.198  0.0256 -0.2453  0.1380
47813W        W90804  23.220  25.637  14.402  0.2288  0.4204 -0.0519
47814W        W90805   6.602  28.700   5.936 -0.0399  0.2127  0.3298
47815W        W90806  31.676  16.974  27.080  0.1415 -0.0437 -0.3278
47816W        W90807  33.045  20.217   9.050 -0.0663  0.0722  0.0015
47817W        W90808  29.600  17.707   8.010 -0.2870 -0.0033 -0.1866
47818W        W90809  28.166  23.722  23.730  0.2023 -0.2545 -0.1229
47819W        W90810  25.563  12.633   5.149  0.0145 -0.3091  0.1026
47820W        W90811  30.433  30.997   8.607  0.1052  0.0009 -0.1534
47821W        W90812  25.071  22.067   5.287  0.3926 -0.1243 -0.2423
47822W        W90813  29.721  27.604   6.971  0.1330  0.1546 -0.0330
47823W        W90814  28.786  33.697   4.809  0.3752 -0.1021 -0.1397
47824W        W90815   2.532  16.007   8.198 -0.1274  0.0078 -0.0808
47825W        W90816  29.266  28.485  16.321  0.1220 -0.1421 -0.2162
47826W        W90817  19.372  20.326  28.335 -0.1645  0.0491 -0.1858
47827W        W90818   6.932   5.391   5.657 -0.0844 -0.0094  0.0188
47828W        W90819  32.576  22.124   8.972  0.1995  0.0974 -0.3214
47829W        W90820  31.266  20.367  25.214 -0.1432 -0.3058 -0.2779
47830W        W90821  31.798  26.261   8.171 -0.0888  0.0612 -0.2348
47831W        W90822  23.717   5.264   3.699  0.1372 -0.2861 -0.0416
47832W        W90823  33.157  13.391   9.482 -0.1451 -0.0970 -0.0496
47833W        W90824   0.119   1.441  23.405 -0.0054  0.0707 -0.0081
47834W        W90825  28.855   7.630   0.175 -0.1276 -0.1474  0.2093
47835W        W90826  29.523  15.434   3.506  0.0659 -0.3181  0.2540
47836W        W90827  13.728  27.376   3.851  0.0903  0.1723  0.2170
47837W        W90828  27.620  21.256   6.004 -0.1080  0.2812  0.0753
47838W        W90829  26.769  17.631   4.956  0.0104 -0.0162 -0.1674
47839W        W90830   0.938  33.846   8.032 -0.0352 -0.1857  0.0440
47840W        W90831   3.529  18.599  23.161  0.2649  0.2978 -0.2625
47841W        W90832  29.433  30.583   4.563  0.0420 -0.0215  0.1647
47842W        W90833  24.138   8.348   9.325  0.0270 -0.0038  0.0663
47843W        W90834   8.963  14.903  27.111  0.0054  0.0006 -0.0586
47844W        W90835  26.993  26.076   3.792 -0.0272  0.1216  0.1894
47845W        W90836  28.066  24.080  20.622  0.0983 -0.0638  0.0126
47846W        W90837   6.058  20.257  24.689  0.2814 -0.0706 -0.1391
47847W        W90838  28.117  16.321  23.968 -0.0491 -0.1807  0.1490
47848W        W90839  30.939  21.576   6.257 -0.2080 -0.3303 -0.2737
47849W        W90840  26.878  33.426   9.249 -0.1263  0.1263  0.3582
47850W        W90841  29.757  27.399   8.690 -0.0603  0.1101 -0.3035
47851W        W90842  20.485  28.237   4.207 -0.1538  0.0724 -0.0385
47852W        W90843  29.418  32.920   0.294  0.1121 -0.1458  0.1537
47853W        W90844   8.370  22.211  22.639 -0.1661 -0.0067 -0.2726
47854W        W90845  14.817  23.260  27.917 -0.4104 -0.1953  0.0061
47855W        W90846  11.592  29.632  22.816  0.2114  0.1923  0.0326
47856W        W90847   2.269  21.177   8.601  0.3085 -0.0776  0.0245
47857W        W90848  17.535  32.784   9.150 -0.0679  0.0684 -0.2053
47858W        W90849  22.317  33.510   8.915 -0.1494  0.0475 -0.4121
47859W        W90850  24.018  18.609   8.459 -0.0335  0.0989 -0.1297
47860W        W90851   1.474   1.576   9.985  0.0832  0.0061 -0.2598
47861W        W90852  31.380  31.729  28.953 -0.1207  0.1666 -0.1188
47862W        W90853  31.024   3.364   6.827  0.0983  0.0320  0.0435
47863W        W90854  17.507  19.813   7.112 -0.1215  0.0603 -0.3748
47864W        W90855   4.948  14.591  27.250  0.2365  0.3310  0.0847
47865W        W90856   0.602  31.755  27.972  0.0849 -0.1796 -0.1738
47866W        W90857   5.264  28.547   6.413  0.1534 -0.0934 -0.1074
47867W        W90858  22.702  25.958   7.855  0.2029 -0.0167 -0.1588
47868W        W90859  25.003   7.698  28.693 -0.1067 -0.1846  0.0683
47869W        W90860   2.437  26.246   4.314 -0.0126  0.2350 -0.0316
47870W        W90861  27.231  12.063   4.610  0.0517 -0.1683  0.2603
47871W        W90862  21.382  26.177   4.757 -0.0985  0.1144  0.0585
47872W        W90863  31.239  16.392  27.152 -0.0517 -0.0947 -0.1274
47873W        W90864  27.675  18.285   7.398 -0.2254 -0.1979  0.5125
47874W        W90865  32.667  24.497  28.186  0.1175  0.0543 -0.0862
47875W        W90866   3.322  27.474  26.715  0.0590  0.3847  0.0570
47876W        W90867  33.991  26.913  26.489 -0.0151 -0.4785  0.0946
47877W        W90868  28.888  18.147   0.861 -0.1026  0.0479  0.2106
47878W        W90869   0.757  18.773  10.138 -0.0630 -0.0822 -0.2188
47879W        W90870   8.679  21.952   7.350 -0.1147 -0.1240 -0.0691
47880W        W90871  30.351  32.489  26.942  0.0499  0.2606  0.2051
47881W        W90872  31.811  23.564  26.925  0.0924  0.1903 -0.0019
47882W        W90873  34.750  10.007   7.311  0.0467 -0.2083 -0.0566
47883W        W90874   1.699   0.096   9.226 -0.0944  0.0296  0.0538
47884W        W90875  25.880   1.525   8.638  0.0614 -0.5572  0.1203
47885W        W90876   5.809  22.431  26.083  0.4021 -0.1242  0.2708
47886W        W90877  16.267  18.865   5.356 -0.1659  0.0345 -0.1023
47887W        W90878  17.453  20.988   6.300  0.3830 -0.0193  0.1132
47888W        W90879  25.320  26.559   3.386 -0.3245 -0.1569 -0.1071
47889W        W90880  27.229   0.013  27.162 -0.2922  0.6654  0.0128
47890W        W90881  24.641  13.639  24.874  0.0302  0.1214 -0.0832
47891W        W90882  20.289  20.387   8.144  0.0853 -0.1158 -0.0047
47892W        W90883  31.887  25.629   6.511 -0.2058 -0.1113  0.1731
47893W        W90884  18.394   4.697   4.338 -0.1928  0.3417  0.0171
47894W        W90885   7.698  27.790  25.956  0.2127 -0.0961 -0.2248
47895W        W90886  34.650  22.616   2.764 -0.1153  0.0928  0.2734
47896W        W90887   4.885  11.027  21.243  0.0280 -0.2089  0.1477
47897W        W90888  32.997  30.576   9.090 -0.1719 -0.0864  0.1530
47898W        W90889   0.096  13.554  11.120 -0.0361 -0.3287 -0.0944
47899W        W90890  29.665   2.655   5.827 -0.2158  0.2499  0.3501
47900W        W90891  32.807   9.608  28.994  0.1713 -0.2977  0.2737
47901W        W90892  26.986  34.657   5.836  0.1188 -0.0580  0.0783
47902W        W90893   7.728  14.739  10.139 -0.1459  0.0809  0.1530
47903W        W90894  23.175  20.871   3.942 -0.0073  0.0623 -0.1094
47904W        W90895  31.556  29.897   2.826  0.4710  0.1843  0.2011
47905W        W90896   6.785  23.446   7.918  0.1103  0.0805  0.1986
47906W        W90897  33.963  18.365  11.154  0.1782  0.3480 -0.2180
47907W        W90898  14.505  24.646   7.964  0.0080  0.3415  0.0090
47908W        W90899  22.088  13.706   8.409 -0.2832  0.0558  0.3059
47909W        W90900  30.284  26.687   9.925 -0.0046 -0.0966  0.0049
47910W        W90901  31.735  31.616   8.439  0.1976 -0.0060  0.4336
47911W        W90902   2.827  24.447   6.580  0.0206 -0.2675 -0.5283
47912W        W90903  24.623  12.179  13.007 -0.0215  0.0580  0.0283
47913W        W90904  19.387  23.885  19.787 -0.1262 -0.0824  0.2339
47914W        W90905  31.377   9.748   2.087 -0.1576 -0.1339 -0.1496
47915W        W90906  25.238  21.488   9.036  0.0292 -0.0613 -0.1466
47916W        W90907   0.410  23.385  27.760 -0.2534 -0.4512 -0.0810
47917W        W90908  34.315  21.392  23.614  0.2973  0.2623 -0.0820
47918W        W90909  30.037  25.609  28.182  0.1857  0.1995  0.0120
47919W        W90910  13.004  14.008  27.281  0.0536 -0.0176  0.3017
47920W        W90911  34.062  23.865   4.867 -0.0568  0.3646 -0.0672
47921W        W90912   2.852  31.151   4.608  0.0780  0.0076 -0.3832
47922W        W90913  28.285   1.428   0.763 -0.1553  0.0609 -0.0306
47923W        W90914   4.451  24.747  17.142 -0.3785 -0.0740 -0.1719
47924W        W90915  23.246   2.923  28.652 -0.0959  0.2986  0.0622
47925W        W90916   8.321   3.897   7.662 -0.0510 -0.1224 -0.2568
47926W        W90917  34.486   4.942   2.664 -0.0914 -0.2239  0.0014
47927W        W90918   2.740  24.492  10.674 -0.0055  0.3898  0.2529
47928W        W90919   5.254  17.113   5.223 -0.1582 -0.1345 -0.2082
47929W        W90920  27.549  14.669   6.011  0.3474 -0.1627  0.2257
47930W        W90921  10.721  20.021   8.700 -0.2555  0.0865 -0.1620
47931W        W90922  20.975   3.758  19.674 -0.0153  0.1311 -0.2159
47932W        W90923  28.744  20.425   5.384 -0.2294 -0.0280  0.3482
47933W        W90924   1.742  19.513  25.594 -0.1015  0.0242  0.0750
47934W        W90925  32.262  25.552   8.905  0.2945 -0.1667 -0.0492
47935W        W90926  16.196  26.575   0.399 -0.0542  0.0352 -0.1125
47936W        W90927  11.392  26.802   5.946  0.1888  0.0075 -0.2527
47937W        W90928  10.798  25.662   5.871 -0.0053  0.1038  0.4093
47938W        W90929   3.393  14.056  26.670  0.3888 -0.1458  0.2490
47939W        W90930  27.337  32.211   8.757  0.0368 -0.1808  0.1213
47940W        W90931   2.428  21.923   6.556  0.2031  0.0655 -0.1398
47941W        W90932   7.505  15.006   9.182 -0.4082  0.2458 -0.3577
47942W        W90933  24.877  29.305   5.610  0.0431 -0.2525 -0.0955
47943W        W90934   1.578  11.048   6.228  0.0836  0.0605 -0.1375
47944W        W90935  28.024  24.423   2.385  0.1186  0.0553 -0.0556
47945W        W90936   1.535  16.503   7.682 -0.2884 -0.1681 -0.2530
47946W        W90937  18.491  21.171   0.278  0.0240 -0.1118 -0.0559
47947W        W90938  33.073  11.934  18.989 -0.0667  0.2056 -0.0335
47948W        W90939  13.430  15.677  28.961 -0.1734  0.4579 -0.1457
47949W        W90940   2.978  23.013  26.318 -0.2731  0.0096 -0.1543
47950W        W90941  25.352  22.108   0.616  0.3550  0.2952 -0.3122
47951W        W90942  27.853   7.350   7.551 -0.1113 -0.0117  0.0475
47952W        W90943  33.912   7.099   9.816 -0.0685  0.0648 -0.0813
47953W        W90944   8.530  20.472   4.480  0.2879 -0.1772  0.1604
47954W        W90945   5.145   8.029   5.922 -0.1081 -0.6777 -0.0599
47955W        W90946   3.762  32.823  27.130  0.2532 -0.1679 -0.2608
47956W        W90947  31.623   1.874   3.492  0.1024  0.3317  0.0112
47957W        W90948   6.667  20.232  25.259 -0.0957  0.1290  0.0207
47958W        W90949   8.050   2.060  20.782  0.1007 -0.0167 -0.0349
47959W        W90950  22.791  10.359  24.228  0.0052 -0.5065  0.2269
47960W        W90951  27.272  17.612   7.953  0.0868 -0.0528 -0.0329
47961W        W90952  31.123  13.187  16.177 -0.0358 -0.1533  0.3172
47962W        W90953  30.827  25.806   4.349  0.2894  0.0925  0.0152
47963W        W90954  34.598  12.890   6.914  0.2641  0.0586 -0.2672
47964W        W90955   2.605  28.733   2.297  0.3019  0.0878 -0.1184
47965W        W90956  30.375  16.068   1.421 -0.4069  0.0361  0.0666
47966W        W90957  15.700  21.653   6.171 -0.0442  0.0523  0.3967
47967W        W90958  32.799  19.119   7.964  0.0525 -0.3844 -0.2494
47968W        W90959  11.038  30.789   4.128 -0.0776  0.2870 -0.0798
47969W        W90960  13.908  33.470  24.884 -0.1940  0.0538 -0.0466
47970W        W90961  32.560  21.879  27.813  0.0286  0.0588 -0.4803
47971W        W90962  22.284  22.297  26.643  0.1311  0.1752  0.0409
47972W        W90963  27.913  33.078   1.539  0.0928  0.3083 -0.0360
47973W        W90964  31.899   9.882   0.353 -0.1126 -0.2501  0.1733
47974W        W90965  27.507  22.102   3.590 -0.1712 -0.0501  0.1053
47975W        W90966  31.072  32.671  27.290 -0.0866 -0.3205  0.0947
47976W        W90967  29.332  28.579   8.006  0.1724 -0.1433 -0.0726
47977W        W90968   4.861  12.483  19.366  0.0434 -0.1106 -0.3409
47978W        W90969   6.663  17.817   5.810 -0.2426 -0.2141 -0.1831
47979W        W90970  18.915  12.544   0.862 -0.2518  0.2789 -0.1249
47980W        W90971  31.726  23.298  27.357 -0.0154 -0.2498  0.0551
47981W        W90972  33.619  24.520  21.468 -0.0289  0.2644 -0.0538
47982W        W90973  29.005   8.665   9.124  0.2169 -0.0635  0.3800
47983W        W90974  26.561  21.842   4.724 -0.2047 -0.0040 -0.2336
47984W        W90975  25.321  17.269   0.472  0.0101  0.0761  0.0387
47985W        W90976   2.361   3.190  29.254  0.0068  0.0168 -0.0909
47986W        W90977  18.067  18.952  27.693  0.0855  0.0156  0.1172
47987W        W90978  24.228   5.325   6.547 -0.3133  0.0679 -0.0081
47988W        W90979   2.202   9.868   7.737 -0.0115 -0.2526  0.2373
47989W        W90980   3.854  12.521  10.002 -0.0835 -0.2499 -0.0781
47990W        W90981  25.687  23.370   8.384 -0.1454  0.1029  0.1052
47991W        W90982  10.279  12.656   7.944 -0.1615  0.2722 -0.1984
47992W        W90983  32.513  15.656   9.806  0.2176 -0.0608 -0.2834
47993W        W90984  14.707  12.520   2.316  0.3621  0.1216 -0.0318
47994W        W90985   5.600  18.250   9.317  0.3475  0.0124  0.0663
47995W        W90986   6.284  29.410   7.812  0.1926  0.2809 -0.1111
47996W        W90987  29.289  31.568   0.721 -0.0252 -0.1640  0.0437
47997W        W90988   8.031   1.165   2.919  0.1246 -0.1462 -0.0235
47998W        W90989  27.630  16.606   5.135 -0.0620 -0.0189  0.1698
47999W        W90990  29.008  29.481   2.066  0.2698 -0.0624  0.2373
48000W        W90991  28.325  25.018   0.797  0.0586 -0.1868  0.0657
48001W        W90992  25.260  31.411   0.289 -0.0747 -0.2862  0.0303
48002W        W90993  31.949  17.600   9.039  0.2753  0.2282  0.0316
48003W        W90994  22.852  30.669  27.514 -0.4025  0.2346  0.0332
48004W        W90995  28.826  21.934   7.595  0.1676  0.0046 -0.1869
48005W        W90996  23.058  19.365   5.636 -0.2156  0.0176  0.3621
48006W        W90997  17.832   1.708   3.170  0.0204 -0.0283 -0.0963
48007W        W90998  29.218  25.035  24.105  0.0337 -0.2352  0.4273
48008W        W90999   8.152  23.670   0.623  0.0472  0.1298  0.1007
48009W        W91000   2.265  18.078  25.826 -0.2117  0.1983 -0.0538
48010W        W91001   1.666  11.026   9.932 -0.2420  0.0598  0.1432
48011W        W91002  31.388  21.468   6.654 -0.1005  0.1499  0.1940
48012W        W91003   9.021  23.987  18.738 -0.0235 -0.0311  0.2733
48013W        W91004  19.013  30.521   1.931  0.1166 -0.3225  0.0693
48014W        W91005  18.242  24.194   4.191  0.2660  0.1118 -0.0591
48015W        W91006   1.671  17.564   5.050 -0.0401  0.0020  0.4590
48016W        W91007  21.323  21.381   5.919  0.1585  0.0219 -0.1444
48017W        W91008  19.974  11.225   1.244 -0.2299 -0.0740  0.0484
48018W        W91009   6.540  19.809  25.530  0.1447 -0.1530  0.1515
48019W        W91010  34.485  19.636   9.890 -0.1250  0.0485  0.3012
48020W        W91011  16.862   5.954   2.133 -0.1026  0.2159  0.1028
48021W        W91012  22.515  11.452  27.736 -0.3593 -0.4616 -0.2891
48022W        W91013   1.106  15.259   7.508 -0.1460 -0.0029  0.2282
48023W        W91014  22.228  13.919  28.276  0.2273  0.2141 -0.2584
48024W        W91015   6.380  21.813   1.224  0.0497  0.3141  0.4076
48025W        W91016   4.790  17.706   8.238  0.0418 -0.0394  0.0227
48026W        W91017   2.402  23.843   7.221  0.0066  0.2781 -0.0760
48027W        W91018   8.465  14.985   8.907 -0.2739  0.1328  0.1949
48028W        W91019  33.120  27.752   9.465 -0.2324 -0.0564  0.0993
48029W        W91020  30.511  10.742  27.634  0.1412  0.1719  0.4412
48030W        W91021   0.535  26.854  23.900 -0.1800 -0.1849 -0.0855
48031W        W91022  26.852  19.161   1.710 -0.4365 -0.0172 -0.3443
48032W        W91023  21.298  25.747   6.188  0.1541 -0.0044  0.0867
48033W        W91024  29.724  10.369   4.401  0.0814  0.3807 -0.0144
48034W        W91025  28.476  28.146   4.973 -0.0535 -0.1138 -0.2892
48035W        W91026   2.719  29.616   6.857  0.0812 -0.1699 -0.0490
48036W        W91027  12.768  33.944   2.642  0.1527 -0.0408 -0.1219
48037W        W91028  11.789   0.474   9.821  0.2936 -0.4893 -0.0575
48038W        W91029  28.921  14.312   3.994 -0.0180 -0.1628  0.3550
48039W        W91030  29.600  17.664   4.232  0.0594 -0.2130 -0.0348
48040W        W91031   1.303  16.330   1.291  0.2403 -0.3308  0.2210
48041W        W91032  29.262  19.908   7.365  0.0335  0.2056 -0.2673
48042W        W91033   6.179  16.562  20.884  0.1147  0.0980  0.1169
48043W        W91034  32.330  25.861  27.702  0.2526  0.0072 -0.0881
48044W        W91035   5.664   0.283   7.993 -0.0300 -0.0009 -0.0444
48045W        W91036  31.298  26.437   9.092 -0.2872  0.0552  0.2105
48046W        W91037  34.030  26.738   0.604  0.2245  0.3737  0.0845
48047W        W91038  32.215  27.430  15.320 -0.1926  0.2038 -0.2748
48048W        W91039  27.923   8.803   2.967 -0.0132 -0.0559  0.0287
48049W        W91040  27.858   2.315  28.214  0.2074  0.0276  0.0511
48050W        W91041  23.275  22.377   4.558 -0.1293  0.1612 -0.2922
48051W        W91042  34.069  26.107   2.840 -0.2805 -0.2626  0.0147
48052W        W91043   2.174   2.230   1.853 -0.3378  0.0432  0.0897
48053W        W91044   0.401   0.183  21.537 -0.0150 -0.0449 -0.0180
48054W        W91045  33.045   5.858   4.565 -0.2551 -0.0005 -0.1368
48055W        W91046   9.955  31.166   2.620 -0.1880 -0.0770  0.0027
48056W        W91047  25.387  31.970  26.974  0.1151 -0.2336  0.1556
48057W        W91048  32.458  27.696  25.772 -0.0384 -0.2683  0.0685
48058W        W91049  25.971  20.862  23.026 -0.1201  0.0582  0.0816
48059W        W91050  28.149   3.760   7.607 -0.2325 -0.4065  0.0355
48060W        W91051  22.595  16.209  24.088  0.0199  0.2288 -0.2024
48061W        W91052  29.555  14.747   3.685  0.2043 -0.0294 -0.1283
48062W        W91053  26.640  29.941  13.662  0.0095 -0.1229  0.1589
48063W        W91054   7.553  10.128   2.481  0.2537  0.0026  0.3717
48064W        W91055   1.623   0.789   8.534 -0.2522 -0.2524 -0.0527
48065W        W91056   0.121   2.749   4.962 -0.1715  0.0137  0.4958
48066W        W91057   7.660  22.663   2.057  0.1215  0.1127  0.0283
48067W        W91058   1.950  23.446   2.394  0.0463 -0.2373  0.2293
48068W        W91059  16.090   7.548   3.643  0.4256  0.0494  0.0778
48069W        W91060  20.902  24.076   2.313 -0.1153  0.2824 -0.0694
48070W        W91061  33.353   0.237  22.937 -0.3546  0.0275  0.0687
48071W        W91062   2.079  33.951   1.547  0.1316  0.1543 -0.1567
48072W        W91063  28.252  29.643   8.632  0.0426  0.0458 -0.0646
48073W        W91064  21.194   2.740   5.676  0.1911  0.1705  0.2411
48074W        W91065  33.908  25.544   5.768 -0.1239  0.0535 -0.2379
48075W        W91066  25.963  30.755   6.683 -0.2733 -0.1568  0.6139
48076W        W91067  11.403  20.705  28.173 -0.1136  0.1878 -0.2652
48077W        W91068   7.465  25.863  27.297  0.4548 -0.2070 -0.3646
48078W        W91069  30.183   4.391  13.430  0.3162  0.2073 -0.2679
48079W        W91070  27.735  22.757   7.182  0.4075  0.0062  0.0440
48080W        W91071  29.523  14.295   5.266  0.0239 -0.0082 -0.1274
48081W        W91072  25.118  27.953  27.372  0.1044  0.1925 -0.2642
48082W        W91073  20.157   3.540   0.676  0.3085 -0.3540 -0.1094
48083W        W91074  29.706  27.981   1.981  0.2481 -0.2471 -0.0603
48084W        W91075   6.400  21.639  27.899 -0.2105 -0.2164 -0.1864
48085W        W91076  15.238  19.879   3.501  0.2137  0.2873  0.1140
48086W        W91077  17.418  23.855  23.721 -0.3248  0.1199 -0.5068
48087W        W91078  29.465  30.071   8.538  0.1544 -0.0971 -0.0201
48088W        W91079   7.251  24.115  26.010  0.1502 -0.3727  0.0673
48089W        W91080   0.759   7.777  21.781  0.1314 -0.3143  0.2085
48090W        W91081  24.548   4.863   2.187  0.1462  0.1155  0.0876
48091W        W91082   1.936  25.635   0.040 -0.2987 -0.1553 -0.0376
48092W        W91083  13.316  27.278   3.269 -0.1822 -0.0318  0.2552
48093W        W91084   0.366  10.771  21.515 -0.1091  0.0049 -0.2675
48094W        W91085   8.805  19.704  23.504  0.2904  0.0968  0.0263
48095W        W91086   8.206  27.896  25.430 -0.0620  0.1013 -0.0464
48096W        W91087   1.720  29.352  22.822  0.0363 -0.0975  0.1986
48097W        W91088   1.244  12.669   9.709 -0.2073  0.0802  0.0587
48098W        W91089   5.629  28.275  22.108  0.0232 -0.2207  0.0995
48099W        W91090  20.367  34.555   8.175  0.4345  0.1165  0.1118
48100W        W91091   5.027  22.168   3.067  0.0097  0.1583  0.0721
48101W        W91092  29.048  23.481  26.683 -0.2589  0.1103 -0.0984
48102W        W91093  34.079  29.712  28.599 -0.3936  0.1450  0.1062
48103W        W91094  33.986  10.839   1.561 -0.1385 -0.3219  0.0173
48104W        W91095  22.508   3.117  18.275 -0.0785 -0.1668  0.1392
48105W        W91096  22.410  11.902  17.468  0.0840 -0.1892  0.2575
48106W        W91097  23.375  18.828   6.002  0.0266 -0.0974  0.0221
48107W        W91098  33.700  21.453   9.325  0.0801  0.5445  0.0588
48108W        W91099  32.537  16.357  25.768  0.0126 -0.0088  0.0493
48109W        W91100  31.211  14.676  28.804 -0.0815 -0.1084 -0.0530
48110W        W91101  27.732  25.804  26.079 -0.0361  0.1809 -0.0438
48111W        W91102  30.969  13.506  23.090  0.0782 -0.2324 -0.1164
48112W        W91103   5.499  16.371  22.594  0.1736  0.3775  0.0313
48113W        W91104  26.487  15.788  26.946  0.1137  0.1392  0.1306
48114W        W91105  31.218  32.454  14.368 -0.0400  0.2081 -0.2826
48115W        W91106  31.966  31.765  23.321 -0.0684 -0.0495  0.0125
48116W        W91107  27.996  31.106  28.658 -0.1010  0.0010  0.0446
48117W        W91108  13.244  19.049  26.996 -0.0342  0.0312  0.0137
48118W        W91109  29.657  22.930   5.773  0.0272 -0.1300 -0.1653
48119W        W91110  10.496  14.254  28.179 -0.4673  0.2566 -0.0040
48120W        W91111  29.493   0.060  28.544 -0.1574  0.5187 -0.1603
48121W        W91112  34.148   0.625  25.764  0.5187  0.1129 -0.0209
48122W        W91113   0.041  23.847  28.623  0.3669 -0.0242 -0.1058
48123W        W91114  25.547  21.249   2.227  0.2448  0.0477 -0.0829
48124W        W91115  30.208   4.493   5.682 -0.0825  0.2091  0.1921
48125W        W91116  19.430   7.826   5.246  0.2288 -0.1358  0.2653
48126W        W91117  26.707  25.646   2.307 -0.0137  0.1072 -0.0621
48127W        W91118   0.309  26.982   1.934 -0.1785 -0.1694  0.0808
48128W        W91119   5.279   7.601   8.624 -0.4541 -0.2138 -0.0758
48129W        W91120   0.847   1.852   2.945 -0.0273 -0.1633  0.2374
48130W        W91121  29.855  16.752  27.059 -0.2795 -0.0441 -0.0854
48131W        W91122  21.122  21.027  23.635  0.2399 -0.1502  0.0666
48132W        W91123   1.621  21.166  25.809 -0.4387 -0.0174  0.0233
48133W        W91124  32.423  23.254  24.283  0.1310  0.2814  0.1794
48134W        W91125  33.084  24.284  19.557  0.0035 -0.0877  0.0178
48135W        W91126  27.383  13.973  18.758  0.1380 -0.1663  0.3003
48136W        W91127   0.224  27.923   6.876  0.0812 -0.1168 -0.0683
48137W        W91128   2.175  34.021   2.949 -0.0293  0.1299  0.0202
48138W        W91129  30.393  24.728  26.608 -0.0675  0.1438 -0.1394
48139W        W91130  23.034   5.148   5.375  0.0049  0.2054 -0.2129
48140W        W91131  11.085  14.755  28.368 -0.1287 -0.1058  0.0973
48141W        W91132  16.983  24.533   1.442  0.1054  0.3130 -0.2910
48142W        W91133   7.868  25.736  26.284  0.1502 -0.1038  0.2984
48143W        W91134  22.301   4.349   6.565  0.2696  0.2022 -0.0731
48144W        W91135  21.440   3.415   5.149  0.0522 -0.0900  0.0471
48145W        W91136  20.296  24.223   2.644  0.1947  0.1082  0.1272
48146W        W91137  15.596   8.540   1.121 -0.0331  0.1396  0.5196
48147W        W91138  31.866  33.317   0.394  0.2339 -0.3329  0.2331
48148W        W91139  27.720  23.852  19.553  0.1038 -0.1228 -0.0222
48149W        W91140  20.939   5.967  25.110  0.0026 -0.2094  0.1313
48150W        W91141  33.441  34.130   1.952 -0.0767 -0.1444 -0.0555
48151W        W91142  11.707   5.388  28.740 -0.0601 -0.1386 -0.0840
48152W        W91143  33.886   6.119  28.036 -0.4007  0.0198 -0.1451
48153W        W91144  29.309   7.669   9.685 -0.2637  0.1476  0.1845
48154W        W91145   8.514  13.085   8.575  0.0522  0.1044 -0.3400
48155W        W91146   0.207  21.768  21.056  0.3297  0.1950 -0.0346
48156W        W91147  14.866  18.719  13.723  0.3025 -0.0747 -0.0239
48157W        W91148  12.165  34.336   6.333  0.1716  0.0931 -0.0111
48158W        W91149  18.434  27.713  22.127  0.0219 -0.1087 -0.0357
48159W        W91150  18.250   0.440  17.266  0.1389  0.0481 -0.0315
48160W        W91151  33.325  12.509  26.233  0.0577  0.1857  0.0128
48161W        W91152   9.129  30.478   8.113  0.2249 -0.2318  0.0003
48162W        W91153   2.053  31.997   6.421  0.1131  0.0965 -0.0116
48163W        W91154  33.091  22.345  21.461  0.0600  0.2612 -0.0692
48164W        W91155  34.350  23.414  27.450 -0.2006 -0.0013 -0.0015
48165W        W91156   3.549  27.904   5.621 -0.1765  0.1380 -0.2941
48166W        W91157   0.657  26.053  27.914 -0.0924 -0.4882  0.1918
48167W        W91158  24.189  22.332  26.570  0.2975  0.4352 -0.1362
48168W        W91159  33.860  30.059   9.449 -0.1631 -0.1273  0.0797
48169W        W91160  25.166  28.615   3.884 -0.0957 -0.0796 -0.1124
48170W        W91161   3.898   5.995  21.748 -0.0553 -0.2090 -0.0378
48171W        W91162  11.672  21.708  21.775 -0.0948 -0.1795  0.1866
48172W        W91163  11.799  24.349  25.554 -0.1435  0.0828  0.1327
48173W        W91164   8.390  25.839   3.978  0.1197  0.2287 -0.1217
48174W        W91165  20.751  34.327   5.322  0.1181 -0.0725  0.0226
48175W        W91166   2.264  16.522  26.428 -0.0321 -0.1285  0.3142
48176W        W91167  31.199   5.251   4.246  0.0806  0.1935 -0.3300
48177W        W91168  30.119   4.092  24.746 -0.0849 -0.1233 -0.1050
48178W        W91169   0.599  21.174  19.589 -0.1694 -0.1605 -0.1107
48179W        W91170  21.614   0.672  19.063 -0.1766  0.2254  0.0013
48180W        W91171   4.207  14.979   3.850  0.2002  0.3019 -0.1652
48181W        W91172   1.116   4.891  27.067  0.0306 -0.0890 -0.1245
48182W        W91173  18.369  20.741   7.888 -0.0949  0.2259 -0.2796
48183W        W91174   4.484  33.239  14.921 -0.1022  0.1504 -0.0481
48184W        W91175   2.072  31.090  21.647 -0.1889  0.1079  0.1693
48185W        W91176   1.838   6.871  16.638 -0.2802 -0.3161  0.0298
48186W        W91177  18.180  21.965  23.677 -0.0798 -0.0400  0.0240
48187W        W91178   2.640  18.624   5.655 -0.4030 -0.0135  0.1315
48188W        W91179  28.210   7.507   1.929  0.0737 -0.0231 -0.0017
48189W        W91180   1.685   2.418  26.387  0.2513 -0.1467 -0.3378
48190W        W91181  30.060   4.418  22.738  0.0374  0.0319 -0.1463
48191W        W91182  33.648  25.326   4.397 -0.1328  0.2637 -0.1402
48192W        W91183  32.562  25.847   7.665  0.0176 -0.3574  0.0710
48193W        W91184  27.693  31.799  25.740 -0.0695 -0.0721  0.0615
48194W        W91185  32.912  13.280   9.028 -0.4669  0.2440  0.1221
48195W        W91186  30.095   2.517  27.968  0.1516  0.0807 -0.2271
48196W        W91187  30.188  21.782  23.555  0.4486 -0.0742  0.1514
48197W        W91188  23.237  28.680  25.454 -0.2331 -0.0480 -0.0512
48198W        W91189  24.663  32.395   5.699  0.0247  0.0385  0.0714
48199W        W91190   8.770  26.925  24.006  0.1710  0.1346  0.0760
48200W        W91191  11.860  31.902  27.560  0.0762 -0.3276  0.0784
48201W        W91192   0.281  16.372  21.376  0.3018 -0.2000 -0.2256
48202W        W91193  25.615  11.593  18.862 -0.1514 -0.1596 -0.0939
48203W        W91194  30.658   2.805  24.053  0.1099 -0.3667 -0.0672
48204W        W91195   4.291   8.143  20.559 -0.0579  0.4221 -0.0942
48205W        W91196  25.974  28.254   6.352 -0.2486 -0.0239 -0.2423
48206W        W91197   6.981   9.629   6.068 -0.1212  0.1379 -0.0359
48207W        W91198   2.612  22.784   1.908 -0.0602  0.0466 -0.1237
48208W        W91199  18.741  24.959  26.037  0.0996 -0.2459  0.2475
48209W        W91200  10.310  19.989  22.818 -0.1878  0.1598 -0.0873
48210W        W91201   8.047  20.975   3.086  0.0018  0.0095  0.2453
48211W        W91202   6.323  22.359  20.795 -0.0857  0.2419 -0.1820
48212W        W91203   5.364   0.619   2.834  0.1101  0.0440  0.0152
48213W        W91204   3.678  28.366  22.970  0.0826 -0.0670 -0.1427
48214W        W91205  21.275  18.629  26.624  0.0398  0.0282 -0.0157
48215W        W91206  26.138  15.094  23.979 -0.2768  0.1031 -0.4535
48216W        W91207  32.669  34.051   8.272  0.0852 -0.3141  0.0137
48217W        W91208  32.973  16.800   3.931  0.1781 -0.0525  0.0168
48218W        W91209  14.761  22.522   6.923 -0.0135  0.0608 -0.2164
48219W        W91210  24.905   3.431  25.618  0.1562  0.0031  0.0011
48220W        W91211   5.621  19.858   4.447  0.0660  0.4172 -0.3132
48221W        W91212  20.332  25.902   1.368  0.2343  0.2992  0.2636
48222W        W91213   0.428  31.661  22.855 -0.0017 -0.0622  0.2092
48223W        W91214  33.550   7.818   3.167  0.1794  0.0466  0.1253
48224W        W91215  25.447  30.265  27.057  0.0060 -0.1551 -0.0259
48225W        W91216   6.372  31.699   5.109 -0.0088  0.1420  0.0490
48226W        W91217  33.304  21.257  21.953 -0.0708 -0.0675 -0.1262
48227W        W91218  33.014   2.837   0.303 -0.5535  0.3239 -0.1088
48228W        W91219   2.171  22.064   0.311 -0.0073  0.0183 -0.1399
48229W        W91220   6.600  33.261  24.088 -0.5495 -0.0782  0.0187
48230W        W91221   4.909  14.122   2.528 -0.0593 -0.2044 -0.3381
48231W        W91222  31.545  21.009  19.617 -0.0222 -0.2721  0.2660
48232W        W91223  18.738  13.042  23.947  0.0249  0.0786  0.1404
48233W        W91224  33.808  19.141  27.623 -0.0226 -0.0056  0.2636
48234W        W91225  32.415  24.328  24.375  0.0528 -0.3911 -0.2826
48235W        W91226  28.160   6.810  14.610  0.1852 -0.2369  0.1094
48236W        W91227  14.425  27.945   5.542  0.0930  0.0975 -0.0399
48237W        W91228  33.222   1.033   3.090 -0.1380  0.1523 -0.1559
48238W        W91229  20.199  30.058  19.917 -0.1531 -0.0144 -0.2068
48239W        W91230  15.703  17.231  26.124  0.0476  0.0158  0.1990
48240W        W91231   3.425  22.413   9.537 -0.1443 -0.2014  0.2183
48241W        W91232  14.945  27.933  26.191 -0.3326 -0.0152  0.1025
48242W        W91233   3.251  19.560  10.158  0.0988 -0.1127 -0.1198
48243W        W91234   0.037  25.379   5.898 -0.0751  0.2675 -0.1558
48244W        W91235  26.127   5.973  22.060  0.0081  0.1174 -0.1808
48245W        W91236  15.326  24.231   0.057 -0.1111 -0.2005 -0.1764
48246W        W91237  24.508  33.786   7.035  0.0366  0.0648 -0.2989
48247W        W91238  27.907   2.737  25.731  0.1021 -0.1757 -0.2543
48248W        W91239   4.035   8.120  22.052 -0.1383 -0.2180  0.1503
48249W        W91240  28.778  30.986  28.573 -0.2464 -0.2451 -0.0170
48250W        W91241   8.835  31.083   3.085 -0.0950 -0.1545  0.3045
48251W        W91242  34.088  32.038   1.065 -0.1990  0.0953 -0.0785
48252W        W91243  28.996   3.884   7.713  0.0788 -0.3045  0.1064
48253W        W91244  22.597  29.652   6.633  0.1078 -0.2058 -0.0939
48254W        W91245  23.621  17.567   6.787 -0.0965  0.1312  0.1176
48255W        W91246  32.602  26.952   6.070  0.0064 -0.2479  0.1734
48256W        W91247   7.198  23.820   1.814 -0.0052 -0.0475  0.0593
48257W        W91248   6.908   0.275  21.255  0.1509 -0.0645  0.1337
48258W        W91249  23.262  22.108  21.059 -0.2514 -0.0484 -0.1005
48259W        W91250  24.811  33.202   3.047  0.0760  0.0563  0.0127
48260W        W91251  17.573  27.754   9.045 -0.0212 -0.1567  0.3712
48261W        W91252  26.717   6.410  28.555 -0.0702  0.1410  0.0800
48262W        W91253   1.052  16.229   2.320 -0.2083 -0.0085  0.0035
48263W        W91254  10.515   2.404   4.063 -0.0020 -0.2430  0.2420
48264W        W91255  10.536  26.878  19.549  0.3053 -0.3351 -0.2251
48265W        W91256  24.432  27.992   1.884  0.2356 -0.1594 -0.0298
48266W        W91257   0.746  28.760   2.562  0.1533 -0.1449 -0.2693
48267W        W91258  21.453  32.332   4.142 -0.0122 -0.1207  0.3019
48268W        W91259   3.680  20.704  26.740 -0.1823 -0.1895 -0.0106
48269W        W91260  18.699  31.358   3.850 -0.0250 -0.0306 -0.1761
48270W        W91261  31.756   2.532   4.787  0.0789  0.2802  0.0422
48271W        W91262  31.662   5.482   3.721 -0.0224  0.0956 -0.2315
48272W        W91263  33.231  16.692  26.996  0.4266  0.0223  0.0885
48273W        W91264   1.705  33.701  26.867  0.1246 -0.0495 -0.0523
48274W        W91265  26.784  14.264   7.532 -0.0451  0.0470  0.0681
48275W        W91266  12.691  14.559   7.720 -0.0018 -0.2400 -0.2271
48276W        W91267   2.851   0.796   3.779 -0.0186 -0.1822 -0.1913
48277W        W91268  10.453  25.665   6.704  0.3036 -0.1917  0.1706
48278W        W91269   7.531  10.601   4.509 -0.2460  0.0462 -0.0097
48279W        W91270   0.800   3.960  24.768  0.0493 -0.0218 -0.0958
48280W        W91271  30.495  22.854  26.596 -0.0250  0.1421  0.0406
48281W        W91272  30.298  19.005   2.423  0.1980 -0.4028  0.1536
48282W        W91273   7.098  32.238  21.386 -0.1896 -0.1705 -0.0865
48283W        W91274  24.839  11.200   8.339 -0.1117  0.0260  0.0865
48284W        W91275  28.579  22.469  21.560 -0.1953  0.5475 -0.3638
48285W        W91276  27.019  10.422  25.900 -0.3124  0.3220 -0.0535
48286W        W91277  23.131  25.278   1.078 -0.1093 -0.4454 -0.2670
48287W        W91278   0.468  22.018   6.334 -0.0548 -0.1830 -0.3290
48288W        W91279  13.095  26.913  26.935 -0.4065  0.0029 -0.3300
48289W        W91280  26.525   2.782  24.422 -0.2288 -0.1572 -0.0817
48290W        W91281  21.759  20.557   5.042  0.1180 -0.1820 -0.1140
48291W        W91282  12.207   4.069  25.436 -0.0631  0.0688  0.1771
48292W        W91283   8.943  28.558   3.603  0.3443 -0.0375  0.2158
48293W        W91284   6.791  17.439  28.401 -0.2572 -0.2367  0.0945
48294W        W91285   0.690  31.466  15.962 -0.0356 -0.0553  0.0477
48295W        W91286  34.600  11.803   4.907  0.1177 -0.0679  0.0984
48296W        W91287  23.996  24.268   6.302  0.2281 -0.0020  0.0011
48297W        W91288  24.266  18.876  18.783 -0.1582  0.1099 -0.2889
48298W        W91289   4.556  28.616  16.959  0.0661 -0.0657 -0.2253
48299W        W91290  19.975  20.246   7.182 -0.2981 -0.0341  0.0315
48300W        W91291   5.674   8.449  23.758 -0.1270 -0.0251 -0.2111
48301W        W91292   1.135   3.518   8.797  0.1817 -0.1714  0.0068
48302W        W91293  24.399  34.225  19.160 -0.0198 -0.1728  0.0879
48303W        W91294  20.192  26.316   5.747  0.0218  0.0665  0.0278
48304W        W91295   9.657   2.459  29.257  0.0771  0.1453 -0.1512
48305W        W91296  18.915  23.586   2.030 -0.2529  0.0574  0.1126
48306W        W91297  28.147  33.443   1.744  0.2335 -0.0900 -0.0428
48307W        W91298  24.263  29.255   8.218 -0.0587 -0.2532 -0.1697
48308W        W91299  10.183  24.512   3.435 -0.1612 -0.0138  0.0474
48309W        W91300  24.948  19.409  26.454 -0.1203 -0.0399 -0.0295
48310W        W91301  23.240  20.439  25.523 -0.1666 -0.0278  0.0623
48311W        W91302   7.346  22.035   5.878  0.1602 -0.0091 -0.2576
48312W        W91303   8.612  32.868   3.341 -0.1547 -0.1415 -0.4240
48313W        W91304   3.816   2.696  28.012  0.0876 -0.1063 -0.1511
48314W        W91305   5.859  28.590  27.294  0.0296 -0.2321 -0.1803
48315W        W91306   5.713  22.882   2.560 -0.1179 -0.0778  0.2653
48316W        W91307  25.735  22.045   7.891 -0.0050  0.2027  0.3094
48317W        W91308  30.240   5.187  28.630  0.1587  0.4996  0.0760
48318W        W91309  20.566  27.786   8.518  0.1348 -0.1241  0.0416
48319W        W91310  12.150   9.030  10.697 -0.0879  0.3626 -0.1345
48320W        W91311  28.187  20.990   6.614  0.0134  0.1224  0.1083
48321W        W91312  13.355  19.944  27.632 -0.0941  0.2430 -0.0208
48322W        W91313  13.639  28.613   2.155 -0.1428 -0.0393  0.0191
48323W        W91314  30.167  29.933   7.281 -0.0966 -0.0399 -0.1923
48324W        W91315  33.557  22.748  18.912 -0.0712  0.2738 -0.0078
48325W        W91316  31.308  29.922   0.186  0.1366 -0.0065  0.1761
48326W        W91317  27.843  26.698   3.421  0.1392  0.2385  0.0253
48327W        W91318  20.161  15.871   3.924  0.1073 -0.0669 -0.0108
48328W        W91319  31.085  34.026   7.548 -0.3831  0.0124 -0.0739
48329W        W91320   0.467  25.536  21.897  0.1726  0.2355  0.3961
48330W        W91321  22.588   4.140  23.345 -0.1949 -0.2396 -0.2073
48331W        W91322  21.508   1.330   3.656  0.0119  0.0540 -0.0728
48332W        W91323  17.375  26.069   1.271  0.1897  0.0043 -0.0949
48333W        W91324   2.106  23.354  23.752  0.0033  0.1565 -0.2521
48334W        W91325   1.805  28.365  25.690 -0.0227  0.1469 -0.3263
48335W        W91326  34.784  20.702  10.033  0.2549  0.1244  0.1845
48336W        W91327  14.993   0.929   9.637  0.1196  0.0851 -0.0385
48337W        W91328   1.262  11.006  29.217  0.1109  0.0283  0.1729
48338W        W91329  24.355  26.848  23.916  0.2966  0.0951 -0.0680
48339W        W91330  10.947  24.023   3.499 -0.2933  0.1083  0.3174
48340W        W91331   1.816  21.317  26.540  0.1964  0.2524 -0.5726
48341W        W91332  34.626  20.564   2.984  0.0434 -0.5580 -0.3044
48342W        W91333  30.556  31.235  21.763 -0.3187  0.1785  0.1597
48343W        W91334   5.091   9.883   0.626  0.3031 -0.0452  0.1112
48344W        W91335  25.781  31.623  28.833 -0.0263 -0.1316  0.0628
48345W        W91336  19.949  33.459  16.758 -0.1731 -0.1802 -0.0784
48346W        W91337   2.514  25.329   4.422  0.2132 -0.0369 -0.1335
48347W        W91338  33.909  31.564   6.591 -0.1815  0.1527  0.0470
48348W        W91339  31.144  25.246   3.976 -0.0771  0.1461  0.0708
48349W        W91340  30.806  20.060   7.166 -0.1786  0.3528 -0.2017
48350W        W91341  24.678  21.462  23.819  0.0245 -0.1976 -0.0490
48351W        W91342  14.979  10.480   4.213  0.0344 -0.0440 -0.0278
48352W        W91343  16.617  21.823   7.302 -0.2719 -0.0405 -0.1680
48353W        W91344   3.367  31.531  20.459 -0.1931  0.2560  0.2623
48354W        W91345  32.810  18.198   0.974  0.0979 -0.4008 -0.1299
48355W        W91346  30.150  19.834  27.128  0.2653 -0.1069  0.0314
48356W        W91347  15.812  13.928  15.689  0.3549  0.1567 -0.0057
48357W        W91348   8.777   0.042  26.403 -0.1248  0.1510 -0.1464
48358W        W91349  32.229  13.435  10.562 -0.3624  0.3241 -0.0444
48359W        W91350  19.802  32.429  25.223 -0.1182  0.2244 -0.0769
48360W        W91351   0.825  29.985  24.080 -0.0866 -0.1990 -0.1282
48361W        W91352  28.057   5.800  24.208  0.1485  0.1523  0.0129
48362W        W91353  19.494  28.438   2.832 -0.1086 -0.1962 -0.0851
48363W        W91354   1.359   6.885   4.208  0.2586  0.0577 -0.4125
48364W        W91355   4.480  30.936  21.580  0.2157 -0.0309  0.2016
48365W        W91356   9.166  27.535  10.120  0.5004 -0.2959 -0.3747
48366W        W91357  30.980  23.366  25.115 -0.7070 -0.1180 -0.3231
48367W        W91358  24.116  22.736  25.233  0.0902 -0.4203  0.1699
48368W        W91359   3.481  33.253  27.250 -0.1074  0.0805  0.3168
48369W        W91360  33.858   4.032  24.746 -0.0458 -0.1412  0.0630
48370W        W91361  14.030  21.457   5.962  0.0456  0.2254  0.1914
48371W        W91362   4.642   2.780   3.650  0.2229 -0.1690  0.2048
48372W        W91363   2.308  25.464   8.829 -0.1713 -0.1644  0.0081
48373W        W91364  28.118  21.821  26.677 -0.4281  0.0763  0.0513
48374W        W91365   6.934  26.083   0.776 -0.0692 -0.0077 -0.0231
48375W        W91366   4.320   6.703  10.529  0.0679  0.0372 -0.0950
48376W        W91367  31.751  30.581   9.402  0.0314 -0.4418  0.0992
48377W        W91368  19.955  31.399   3.912  0.0967 -0.1146  0.3099
48378W        W91369  16.138  22.232   5.786 -0.1332  0.1024 -0.0750
48379W        W91370  29.392  27.483   0.474  0.0570 -0.2273  0.1560
48380W        W91371  31.603  27.699  15.901  0.2053 -0.2689  0.1477
48381W        W91372  33.493  19.638  21.279 -0.0406  0.2537 -0.0240
48382W        W91373   0.832  22.375   4.725  0.1459  0.0120  0.2011
48383W        W91374  32.582  32.711  28.267 -0.1247 -0.0790 -0.0703
48384W        W91375  20.721  14.613   8.421  0.2616 -0.2603 -0.1759
48385W        W91376  33.940  15.604  16.267  0.0627  0.0120 -0.2137
48386W        W91377   3.540  25.177   5.800  0.2288  0.2816  0.0792
48387W        W91378   1.783  26.591  23.265 -0.0269 -0.0837  0.0406
48388W        W91379  19.449   6.236  22.121  0.2198  0.0625  0.0118
48389W        W91380   2.070  28.530  27.822  0.2716  0.0792 -0.1386
48390W        W91381   1.297  16.808   9.363 -0.0615 -0.1380 -0.0735
48391W        W91382  23.739  27.870  25.264  0.0435  0.2022  0.4571
48392W        W91383   5.889   6.165  28.730 -0.4119 -0.0156 -0.1823
48393W        W91384  34.385  16.971   7.258 -0.0443  0.1753 -0.2050
48394W        W91385  11.567   8.964   1.712 -0.0770  0.2411  0.1377
48395W        W91386  29.819  23.477  17.181 -0.2091  0.1424  0.1028
48396W        W91387  18.917   9.312   3.890 -0.3693 -0.0581 -0.1708
48397W        W91388  26.257   5.235   1.885 -0.3801  0.0877  0.1189
48398W        W91389   6.486  20.861  22.285 -0.0867 -0.2902 -0.2989
48399W        W91390  27.324   5.232   4.955 -0.1142  0.0842 -0.4281
48400W        W91391  31.402  24.086   7.570  0.1095  0.1619 -0.0914
48401W        W91392  17.953  12.797   2.037 -0.3620 -0.4236 -0.3076
48402W        W91393  19.499  16.690   8.819  0.1087  0.1723  0.0141
48403W        W91394  26.870  29.845  26.926 -0.0280  0.1714  0.2178
48404W        W91395  32.332  29.583   2.066  0.3651 -0.2256  0.2429
48405W        W91396   2.285  20.993  17.949  0.2106 -0.1144  0.2943
48406W        W91397   0.843  16.673   9.531 -0.2999 -0.1188  0.1083
48407W        W91398  31.833  26.648   9.977  0.0396  0.0248 -0.2973
48408W        W91399  33.147  24.826  23.577  0.1077 -0.0823  0.0882
48409W        W91400  11.639   9.206  25.491 -0.0215  0.3967 -0.2013
48410W        W91401  33.787  22.741  16.020 -0.0047 -0.2751 -0.1820
48411W        W91402  28.769  24.404   4.392 -0.3259 -0.1507 -0.3963
48412W        W91403   1.203  30.209   7.699  0.2481 -0.5023 -0.1598
48413W        W91404  34.539  24.212   1.909 -0.1301 -0.0228 -0.1139
48414W        W91405   9.047  21.715   4.457  0.0382 -0.0408  0.1419
48415W        W91406  34.213   2.995  26.350  0.1951 -0.0022 -0.0645
48416W        W91407  28.798   8.926  27.307  0.1357 -0.1070  0.4305
48417W        W91408   5.108  10.972  26.093  0.0179 -0.0811  0.0294
48418W        W91409   5.584  21.824   7.914 -0.1211 -0.3361 -0.0341
48419W        W91410  26.001  19.495   2.879  0.1270  0.2228  0.0272
48420W        W91411  16.307  16.008  26.201  0.0421 -0.2367  0.0268
48421W        W91412   0.533   4.930  28.129 -0.1627  0.0778  0.0944
48422W        W91413   1.258  25.715   6.534  0.0834  0.3217  0.0022
48423W        W91414  31.172  31.698   0.189  0.0959  0.3572 -0.0784
48424W        W91415  10.087  23.602   2.966 -0.1023  0.1504 -0.0430
48425W        W91416   3.961  15.102   9.376  0.1646  0.1153  0.0364
48426W        W91417  32.282   7.994   6.244 -0.0577  0.1118 -0.0828
48427W        W91418   0.746  16.333   4.962  0.0291 -0.1258 -0.0179
48428W        W91419  20.237  29.951   2.072 -0.1745 -0.2277  0.1292
48429W        W91420  30.662  29.476  20.160  0.0389  0.0337 -0.1457
48430W        W91421  30.932  22.782   0.914 -0.1235 -0.1916 -0.1914
48431W        W91422  32.980   4.452   1.433 -0.0924  0.1313  0.0626
48432W        W91423   8.557   2.535   2.355 -0.1192 -0.1782 -0.1643
48433W        W91424   0.870  33.153  21.888  0.0588  0.1080 -0.3640
48434W        W91425   2.331  34.719  29.033 -0.0203  0.1982 -0.1276
48435W        W91426   4.213   5.513   4.106 -0.0958 -0.3326  0.0781
48436W        W91427  34.515   7.025  17.555  0.1309  0.2507 -0.0032
48437W        W91428  29.969  20.744  17.778  0.1539 -0.0452  0.1313
48438W        W91429  24.098  20.397  23.397 -0.1520 -0.0045 -0.0235
48439W        W91430  17.678  16.869   7.293 -0.1741 -0.1330  0.0536
48440W        W91431  14.965  24.297   6.932 -0.1967 -0.2788 -0.1204
48441W        W91432  19.929  28.872   6.344  0.1672 -0.1699 -0.3905
48442W        W91433  20.294   1.618   8.874  0.1535 -0.1544 -0.0741
48443W        W91434  21.441  13.349  22.059 -0.1698  0.1980  0.0219
48444W        W91435   6.823  31.468  29.144 -0.2618 -0.1163 -0.1246
48445W        W91436  18.504   6.380  26.693 -0.1988 -0.2339 -0.1783
48446W        W91437  20.168  18.816  24.020  0.0695  0.1189 -0.0698
48447W        W91438  12.831  14.222   2.639  0.1223  0.1855  0.0537
48448W        W91439  21.032  34.796  23.268 -0.0715  0.2890  0.1075
48449W        W91440  33.305  29.583   8.619  0.0893 -0.0067 -0.1169
48450W        W91441   3.871  30.747   3.623 -0.0817  0.0327  0.2636
48451W        W91442  21.659  23.330   6.544 -0.1004  0.0104  0.2263
48452W        W91443   1.795  34.563   3.832  0.3419  0.2237 -0.1307
48453W        W91444  27.941  16.915  20.766  0.1382 -0.2914 -0.0341
48454W        W91445  24.740  24.947  24.975  0.3840  0.0472 -0.0144
48455W        W91446  18.300  20.558   4.141 -0.3855 -0.2195 -0.0792
48456W        W91447  29.233   7.424  17.730 -0.0195 -0.2449  0.0707
48457W        W91448  30.862  29.359   1.148 -0.2566  0.2692  0.3114
48458W        W91449  18.767   2.378   5.420  0.0561 -0.0550 -0.2483
48459W        W91450  27.288   1.769  23.138 -0.0703  0.2765  0.1708
48460W        W91451  22.612  26.696   0.868  0.2060 -0.1160  0.1409
48461W        W91452  18.065  26.638   2.238 -0.2147  0.1901 -0.3235
48462W        W91453  34.126  21.377  27.863 -0.0539 -0.0622 -0.1283
48463W        W91454  31.730  12.231   5.408  0.0843  0.1018 -0.0177
48464W        W91455   2.265  29.589   5.756  0.1420  0.0748 -0.2868
48465W        W91456  12.799  11.800   2.881  0.0750 -0.0072  0.0754
48466W        W91457  31.768  32.579   6.921 -0.0713 -0.0717 -0.1236
48467W        W91458  25.730   4.170   2.412 -0.0310  0.0760  0.0447
48468W        W91459  25.374  27.067  23.944  0.0047 -0.0456 -0.0612
48469W        W91460  27.515   0.014   3.385  0.0598  0.0358 -0.2589
48470W        W91461   2.385  32.064   8.566  0.0120 -0.0356 -0.1328
48471W        W91462  14.966  25.463   0.678  0.1709  0.5622  0.3923
48472W        W91463   9.597  30.586   7.218  0.2760 -0.1276  0.2647
48473W        W91464   4.083  31.856   4.947  0.2353 -0.0402 -0.1646
48474W        W91465  19.957   5.595   8.416 -0.3021  0.0470 -0.2854
48475W        W91466  19.325  24.881   6.290 -0.0531 -0.0857 -0.1766
48476W        W91467  16.698  31.347   6.645 -0.1436  0.3414  0.0139
48477W        W91468  23.927  18.235   3.207 -0.1254  0.2574 -0.0285
48478W        W91469  19.959  19.436  26.760 -0.2364 -0.0837  0.0581
48479W        W91470  30.566  33.793   2.356  0.1035 -0.2062  0.0018
48480W        W91471   3.163  34.725   4.947 -0.1828 -0.0725  0.1372
48481W        W91472  32.334  17.840   7.945  0.1033 -0.0706  0.1023
48482W        W91473  27.662  29.391  13.497  0.4054  0.1020 -0.0307
48483W        W91474  25.488   0.154   7.526  0.2436 -0.0823 -0.1567
48484W        W91475   1.436  14.248   7.652  0.2517 -0.0410  0.0692
48485W        W91476   4.224  14.059  22.074  0.0685 -0.2441 -0.0508
48486W        W91477   4.282  30.022   2.327  0.1016 -0.1027  0.2801
48487W        W91478  13.823  28.003   4.178 -0.0715  0.3509 -0.2697
48488W        W91479   7.677  24.748   6.998 -0.0503 -0.0848  0.4499
48489W        W91480  27.662  26.409  20.531  0.0015 -0.2495  0.0871
48490W        W91481  20.028  26.780   9.847  0.0828 -0.0874 -0.3847
48491W        W91482   2.143  27.778   8.164 -0.5916  0.1423  0.0096
48492W        W91483   3.400   5.350   1.566 -0.1049  0.1411  0.0873
48493W        W91484  30.182   9.634   1.856  0.0049  0.0470  0.0142
48494W        W91485   3.443  10.072   5.724  0.3608 -0.0257 -0.2541
48495W        W91486   6.253   1.953   0.619  0.3487  0.2514 -0.2252
48496W        W91487   0.075   8.583   6.666 -0.4206 -0.0979  0.0282
48497W        W91488   6.754  22.816   1.705  0.1556 -0.1460  0.2118
48498W        W91489  10.351  20.213   1.717 -0.2621  0.0394 -0.0328
48499W        W91490  33.786  31.822  24.680 -0.2577 -0.1971 -0.0210
48500W        W91491   1.932  29.087   5.648 -0.0381 -0.2293 -0.2701
48501W        W91492  31.708  26.643   9.433  0.0977  0.2959  0.3791
48502W        W91493  29.349  14.294   9.740 -0.0954  0.3025 -0.1215
48503W        W91494  21.747  27.912  26.756  0.0175  0.1415  0.3221
48504W        W91495  27.513  17.069   3.752 -0.0988  0.0704  0.1146
48505W        W91496  24.337   2.731  29.225  0.0993 -0.1427  0.2936
48506W        W91497  31.567   4.730  16.364  0.0593 -0.1227 -0.1017
48507W        W91498   7.507  25.584   7.690  0.3034 -0.0539 -0.1214
48508W        W91499   7.892   4.692   7.314 -0.3596 -0.0891 -0.2428
48509W        W91500   3.455  23.476  28.447 -0.3013  0.2861 -0.1373
48510W        W91501   7.084   0.649   6.190  0.0223 -0.0152  0.0292
48511W        W91502  17.373  30.155  28.561  0.1988  0.1870 -0.1571
48512W        W91503   0.763   9.153   5.594  0.1491  0.2406 -0.0497
48513W        W91504   9.661   2.375  23.710  0.1928  0.1368 -0.2579
48514W        W91505   4.276  34.438   8.888  0.1754 -0.1656  0.1167
48515W        W91506  31.619  18.067   2.094 -0.1698  0.0433 -0.3611
48516W        W91507  28.212  27.531   2.242  0.2444  0.0182  0.1431
48517W        W91508  31.129   8.072  27.546  0.0961 -0.1672 -0.1767
48518W        W91509  28.823  20.510   6.942 -0.0636 -0.2181  0.0326
48519W        W91510  22.920   3.409   0.131  0.2551  0.1525 -0.3819
48520W        W91511   0.346  32.353   4.658  0.0108  0.2031  0.3793
48521W        W91512   3.363  16.314   4.928 -0.3276  0.2221  0.2005
48522W        W91513  19.906  18.155   0.566 -0.0081 -0.1174  0.2438
48523W        W91514   7.863  24.843   9.360  0.0429 -0.0323  0.0207
48524W        W91515  28.006  24.282  18.767  0.1790 -0.0836 -0.1127
48525W        W91516  17.110  27.874  17.832  0.0694  0.4402  0.1305
48526W        W91517  33.899  20.994  26.918  0.0010  0.0209  0.3248
48527W        W91518  26.131  10.864   6.310  0.1154  0.1580 -0.0434
48528W        W91519   6.264  23.198   1.054  0.0898  0.1357 -0.0161
48529W        W91520  13.479  25.733   7.771 -0.0805  0.2549 -0.1050
48530W        W91521   0.501  15.905   7.042 -0.3104  0.0357  0.2110
48531W        W91522  31.641  19.300   5.045 -0.2125  0.2560 -0.3134
48532W        W91523   0.899  30.495  27.437 -0.1349  0.0518  0.1268
48533W        W91524  32.311  32.743  22.986 -0.1205 -0.2512  0.1005
48534W        W91525   1.477   5.247  23.583  0.0596  0.0059 -0.1212
48535W        W91526  33.462  30.343  28.785  0.0991  0.3593 -0.4288
48536W        W91527   5.251   9.502   9.847  0.2645 -0.2036  0.0392
48537W        W91528   0.964  29.181   6.528  0.3218 -0.0692 -0.2395
48538W        W91529   0.583  26.069   4.433  0.4939  0.0199  0.0428
48539W        W91530   0.404   1.049   6.968 -0.0935 -0.2404 -0.1216
48540W        W91531  25.929   5.417   2.788 -0.1500  0.0337 -0.0956
48541W        W91532  33.755  28.482   4.247  0.2348 -0.2616  0.2013
48542W        W91533   1.153  21.369   4.317  0.1712  0.2099  0.1711
48543W        W91534   7.303  32.048  16.894 -0.1842 -0.0176  0.1761
48544W        W91535  10.178  10.331   3.839  0.1600  0.3413 -0.1116
48545W        W91536  32.619  34.435   3.491  0.2386  0.0856 -0.0599
48546W        W91537  34.530  30.245   8.738 -0.3378 -0.1551 -0.3449
48547W        W91538  33.989  34.451   2.575  0.2041  0.2140 -0.1411
48548W        W91539   7.314  21.837  24.883 -0.0551 -0.0371 -0.1643
48549W        W91540  30.318  27.266   0.554  0.0659  0.0421  0.2746
48550W        W91541   0.601   0.321  28.004  0.1403  0.4412 -0.3443
48551W        W91542  14.287  12.663   3.581 -0.1695  0.0060  0.0508
48552W        W91543   1.935  25.109  29.064 -0.0497 -0.0594 -0.0696
48553W        W91544   5.952  24.185  24.977  0.0688 -0.1419 -0.2265
48554W        W91545  34.392  23.632   0.481 -0.1587 -0.2521  0.0151
48555W        W91546  10.923   0.205   2.031  0.0641  0.1763  0.0095
48556W        W91547  25.887  24.076   9.247  0.0687 -0.1801  0.0631
48557W        W91548   6.818  31.664   6.755  0.1183 -0.0398  0.1141
48558W        W91549  33.575   1.452   2.476  0.0045 -0.0847  0.2323
48559W        W91550  26.498  25.558  15.648  0.0516 -0.2356 -0.1122
48560W        W91551  23.492  15.423   9.861  0.1806 -0.3957 -0.0900
48561W        W91552  30.658   2.578   6.932  0.0170 -0.0152  0.0320
48562W        W91553  24.178  32.478   6.577 -0.0089 -0.0057  0.1961
48563W        W91554   8.674  32.881   9.759  0.2268  0.0139 -0.0190
48564W        W91555  26.273  10.567   1.570 -0.0063 -0.2199  0.3821
48565W        W91556   5.618  11.927  20.886  0.1826 -0.2091 -0.2923
48566W        W91557  13.319  30.851  24.571 -0.0949  0.0846  0.2975
48567W        W91558  15.227   1.315   1.062  0.1125  0.1331  0.1668
48568W        W91559   4.523  29.172   6.764 -0.0566 -0.4176 -0.0536
48569W        W91560  23.016  14.988  27.156  0.1886  0.1407  0.0638
48570W        W91561   0.235  33.098   4.346  0.0932  0.2147  0.1637
48571W        W91562  30.743   5.413   7.327  0.0616 -0.1896 -0.0251
48572W        W91563  31.735  30.658  22.270  0.0400 -0.0875  0.2097
48573W        W91564  22.882   4.862   6.372  0.1985 -0.2047  0.0406
48574W        W91565  26.357  23.138  17.319  0.1317 -0.0480 -0.2835
48575W        W91566   0.071  17.828   8.711  0.0731 -0.1326  0.1616
48576W        W91567  21.280  23.229  25.263  0.0456  0.0853 -0.3191
48577W        W91568  28.684  29.025  15.274  0.0596 -0.2264  0.2190
48578W        W91569  27.290  32.824  23.875 -0.0155 -0.2168 -0.1848
48579W        W91570  28.765  34.260  26.266 -0.3167 -0.1977 -0.0175
48580W        W91571  19.555  14.789   8.790  0.0348  0.2695 -0.1513
48581W        W91572  15.858  31.932   4.327 -0.0822 -0.0207  0.0050
48582W        W91573  26.654   8.053   7.336  0.1338  0.1650 -0.1282
48583W        W91574  26.328   3.070   5.443  0.0905  0.0438  0.1419
48584W        W91575  24.749  22.511  28.341 -0.2579 -0.0420  0.2038
48585W        W91576  19.912  15.974  24.415 -0.0022 -0.3319  0.0792
48586W        W91577  24.796  22.493   7.889 -0.3444  0.0572 -0.3333
48587W        W91578  29.014  15.985   3.437  0.0998  0.1479 -0.0246
48588W        W91579  26.149  20.278  28.835 -0.1929 -0.0977  0.0611
48589W        W91580  28.661  10.736   7.694  0.1169 -0.1692 -0.1812
48590W        W91581  33.142  13.153  11.966  0.2593 -0.1268 -0.0493
48591W        W91582  16.811  26.312   0.549  0.3388 -0.1938 -0.3804
48592W        W91583  23.860  31.637  28.369  0.2840  0.0757  0.0334
48593W        W91584  26.354  17.531  21.446 -0.2014 -0.0133  0.2120
48594W        W91585  27.438   4.674   1.700 -0.0379  0.1433 -0.1168
48595W        W91586  27.339  18.095   9.742  0.0064 -0.0476  0.0869
48596W        W91587  32.659  21.735   7.134 -0.1425  0.0645 -0.0694
48597W        W91588  23.803  21.045  21.968 -0.0165  0.2279 -0.1886
48598W        W91589   3.902   0.486   9.300  0.0685  0.1555  0.4378
48599W        W91590  16.364  26.687   2.546  0.1796  0.0114 -0.1797
48600W        W91591  19.916  24.324  26.864 -0.1862  0.3655 -0.0867
48601W        W91592  33.084  29.896  22.182  0.0615  0.1545  0.1200
48602W        W91593   9.342  24.669   6.051 -0.1520 -0.1811  0.0911
48603W        W91594   0.593   3.742   8.073  0.3122  0.2898 -0.0299
48604W        W91595  23.235  31.496   1.735 -0.0069  0.2291  0.1471
48605W        W91596  33.609  29.002  28.252  0.1800 -0.1051 -0.1893
48606W        W91597  19.358   4.260   4.436  0.0531 -0.1211  0.1243
48607W        W91598  22.668  32.599   7.884 -0.1088  0.1489  0.0298
48608W        W91599  24.142  30.976   3.041 -0.1748  0.1113 -0.0703
48609W        W91600   3.553   9.373   4.994  0.1160 -0.0055  0.2646
48610W        W91601  27.783  19.097   5.647  0.2438 -0.0652  0.0980
48611W        W91602   7.122  26.125  28.297  0.0180 -0.2965  0.0803
48612W        W91603   9.634  23.355  25.751 -0.0452 -0.2875  0.2201
48613W        W91604  34.076  33.342   9.179  0.0982 -0.0206 -0.1149
48614W        W91605   8.809  30.853   6.419  0.0118  0.1360  0.0621
48615W        W91606   6.082  27.308   9.827 -0.2805 -0.0059  0.0004
48616W        W91607  33.701  17.440  24.658  0.0125  0.0127 -0.1631
48617W        W91608   1.969  24.265  28.519  0.0589 -0.0453  0.0403
48618W        W91609  13.269   4.786   6.098  0.0437  0.1690 -0.2893
48619W        W91610  23.724  26.657  27.088 -0.1273 -0.1246 -0.3868
48620W        W91611  20.980  18.757   8.774 -0.0854 -0.4027 -0.1017
48621W        W91612  24.101  29.450  28.083 -0.0148 -0.0044  0.1842
48622W        W91613  23.719  31.644  18.523 -0.2598 -0.2981 -0.2083
48623W        W91614   8.252  29.915   0.697 -0.1642  0.0471  0.0470
48624W        W91615  28.699  27.877   0.604  0.3117 -0.1026  0.0032
48625W        W91616  18.364  18.293   7.890  0.4775 -0.0311  0.2397
48626W        W91617  25.437  17.810   1.314 -0.2322 -0.0911  0.2873
48627W        W91618   3.922   2.205   2.405  0.0024 -0.0252  0.0594
48628W        W91619  25.085  31.804   5.556  0.2482 -0.0383 -0.0859
48629W        W91620   0.380   5.566  23.727 -0.3043 -0.1874 -0.0018
48630W        W91621   0.923   9.610  11.165  0.1390 -0.0405  0.2086
48631W        W91622  31.962  26.041   8.816  0.5109 -0.1161  0.5316
48632W        W91623   0.667  13.083  28.321 -0.1215 -0.0637 -0.2081
48633W        W91624  25.557  15.985   2.557  0.0857  0.1688 -0.0721
48634W        W91625   0.326  20.279  19.015 -0.1695 -0.1638  0.1239
48635W        W91626   2.192   2.475  28.605 -0.1211 -0.0851 -0.0080
48636W        W91627  24.683  14.559  26.863  0.3498 -0.1117  0.1729
48637W        W91628   0.200  14.514   5.474 -0.2085  0.0072  0.1178
48638W        W91629  33.539  19.418   4.393  0.0756 -0.1825 -0.1760
48639W        W91630  26.478   8.986   6.463 -0.3546  0.0975 -0.0784
48640W        W91631   3.269  28.797   3.046  0.2245  0.4366  0.1659
48641W        W91632   1.035   8.273  14.900  0.2468 -0.4151 -0.2362
48642W        W91633   2.361  23.089   4.071 -0.0255 -0.2638  0.1544
48643W        W91634  22.688  14.278   6.004 -0.0879  0.0226 -0.0966
48644W        W91635  19.727  11.785   1.731 -0.3363  0.1420  0.1107
48645W        W91636  26.381   3.917   6.534  0.0268  0.1315 -0.1776
48646W        W91637   2.428  13.625   6.769  0.0695  0.0258  0.2057
48647W        W91638  32.989  25.834   3.730  0.0902 -0.1384  0.1214
48648W        W91639   0.494  14.847  24.667  0.1168  0.1474 -0.1101
48649W        W91640  32.938   4.406   8.132  0.1928 -0.1084 -0.1694
48650W        W91641   8.481  13.164   3.437  0.1186  0.0863 -0.0795
48651W        W91642  22.225  20.558  27.139 -0.0094  0.0284 -0.1757
48652W        W91643   2.066  33.224  22.785 -0.0360  0.1126 -0.1392
48653W        W91644   0.554  33.139   3.887  0.3305 -0.3809 -0.0777
48654W        W91645  32.910  22.870   8.529  0.0987  0.2605  0.0552
48655W        W91646  23.980  33.879   4.378 -0.0522  0.1132 -0.2578
48656W        W91647  33.689  33.549   5.047  0.0747 -0.0513  0.1699
48657W        W91648  19.595  19.411   6.304  0.0094  0.0030 -0.1408
48658W        W91649  14.515   4.421   3.827  0.1004 -0.3358  0.3926
48659W        W91650   9.300  31.491   7.871 -0.0887 -0.1845  0.0855
48660W        W91651  31.376  23.316  22.399 -0.0192  0.1679 -0.1765
48661W        W91652   1.810   3.446   9.855 -0.2203 -0.2755  0.0146
48662W        W91653  34.062   4.161  29.033  0.0625  0.2428 -0.2160
48663W        W91654  34.249  28.113  24.362 -0.0200 -0.1626 -0.3343
48664W        W91655  26.656  21.391   5.644  0.1431 -0.0657  0.1472
48665W        W91656  28.586  14.901  21.621 -0.2465  0.1361 -0.0310
48666W        W91657  20.084  30.798   1.678 -0.0943 -0.1491  0.2457
48667W        W91658   4.518  29.114   8.188  0.5811 -0.0078  0.1213
48668W        W91659   6.200  16.745   5.022  0.1786 -0.0014 -0.3229
48669W        W91660  30.882  30.362   8.039 -0.0562  0.1357 -0.1621
48670W        W91661  11.225  34.006   6.041 -0.2199 -0.2359  0.0711
48671W        W91662  20.975  20.814   3.438 -0.2682 -0.0074  0.1185
48672W        W91663  30.869   4.085   2.525 -0.1285  0.1448 -0.0359
48673W        W91664  31.561  32.204   4.535  0.0562 -0.1211  0.3980
48674W        W91665  32.581  24.488   4.790  0.0087 -0.1250 -0.0531
48675W        W91666  24.189  31.130  16.920  0.0164  0.1188  0.0875
48676W        W91667  27.144   9.897   3.502 -0.0248  0.0707 -0.3677
48677W        W91668   0.779  27.245  23.626 -0.1349 -0.1532 -0.0413
48678W        W91669   6.600   3.723   0.626 -0.0660  0.7289 -0.3567
48679W        W91670  29.251  15.052  28.056  0.0171 -0.1726 -0.0251
48680W        W91671  33.935  15.583   4.119 -0.2488  0.0458  0.0849
48681W        W91672  29.438  25.235  26.109  0.2201  0.0406 -0.2204
48682W        W91673   6.888  13.470  28.564  0.1331  0.3702 -0.1717
48683W        W91674  26.804  20.253   7.016 -0.1656  0.1396 -0.2538
48684W        W91675  28.984  30.808   4.650 -0.0463  0.0721 -0.2126
48685W        W91676  31.547   5.693   8.869  0.1357 -0.1423 -0.4731
48686W        W91677  33.748   7.444   2.303  0.1884  0.1178 -0.3130
48687W        W91678  33.455  29.208   2.474  0.2138 -0.1695 -0.2485
48688W        W91679  12.404  12.590   8.303 -0.0549 -0.1638  0.3591
48689W        W91680   6.083  25.946  27.840  0.0823 -0.1391  0.2202
48690W        W91681   6.157  17.986   2.986  0.1095 -0.2786  0.1247
48691W        W91682   1.791  24.454  21.847  0.0802 -0.1475  0.1131
48692W        W91683   6.923  33.595   7.098 -0.2847  0.5401  0.2530
48693W        W91684   7.162  33.244   4.705  0.2188 -0.2027 -0.0772
48694W        W91685   2.008  25.229  18.404  0.0109  0.0989 -0.2101
48695W        W91686  16.293  14.448   1.484  0.0408 -0.2760  0.0363
48696W        W91687  20.746  20.619   4.930  0.1123  0.0351 -0.0855
48697W        W91688  28.146  20.188   6.772  0.2708 -0.0663  0.1082
48698W        W91689  32.895  26.535   8.765  0.1202 -0.1784  0.0219
48699W        W91690  32.269  29.869  16.555 -0.0774  0.2279  0.1875
48700W        W91691  13.001  23.591   0.522 -0.1785 -0.1638 -0.1054
48701W        W91692   3.868  29.891   2.160  0.0248 -0.1787 -0.1076
48702W        W91693  33.701  29.438   2.899 -0.0559  0.2090 -0.1963
48703W        W91694  24.456  22.064   4.409  0.0847 -0.3284  0.2380
48704W        W91695  25.236  28.187   2.220 -0.1486  0.3787  0.0247
48705W        W91696  25.459  30.035  28.860 -0.0122 -0.1122 -0.1315
48706W        W91697  21.375  30.409   4.202 -0.2962  0.1294 -0.0789
48707W        W91698  31.091  23.686   1.810  0.1324 -0.0542 -0.3129
48708W        W91699   2.290   1.074   0.801  0.2503 -0.1061 -0.0789
48709W        W91700  29.639  28.889   1.722 -0.1010 -0.3377  0.0349
48710W        W91701   1.733   5.999   8.613 -0.1130  0.4351 -0.0359
48711W        W91702  21.589   4.379   1.821 -0.0845 -0.2187  0.1668
48712W        W91703  30.584  16.844   3.945 -0.0932  0.0591  0.4097
48713W        W91704  30.600   5.389   7.845  0.3577 -0.0798 -0.0431
48714W        W91705  27.038  10.680  19.525  0.1218  0.1340  0.4535
48715W        W91706   0.562   5.856   9.203 -0.1236  0.2539  0.3162
48716W        W91707   1.376  12.789   5.416 -0.0489 -0.0347 -0.1308
48717W        W91708  10.708  16.467   9.328  0.0771 -0.2838  0.1378
48718W        W91709  34.005  21.610  28.821 -0.1689  0.1602 -0.0750
48719W        W91710  17.478  12.107  24.344  0.2933  0.1227  0.1880
48720W        W91711  33.959   2.634  18.856  0.1356 -0.3472  0.0874
48721W        W91712  18.546  17.412   0.116 -0.0725 -0.1619 -0.0292
48722W        W91713  33.203  14.679  11.872  0.0007  0.2096  0.0510
48723W        W91714  23.092  23.602   4.035 -0.1766  0.0075  0.4156
48724W        W91715  33.932  28.148  23.958  0.4589  0.1630  0.0445
48725W        W91716  33.531   9.823  21.115 -0.1871  0.0655  0.1765
48726W        W91717   4.880   4.467   9.830 -0.3478  0.1785 -0.1531
48727W        W91718  19.341   6.851   1.581 -0.2605  0.0434 -0.3737
48728W        W91719  14.384  18.982   6.181  0.0456 -0.0135 -0.1406
48729W        W91720  17.022  12.909  14.619  0.1130 -0.0419 -0.0568
48730W        W91721   4.441  33.442   7.261 -0.0498  0.1301 -0.0196
48731W        W91722  11.959  19.177   7.073  0.0918 -0.0268  0.1077
48732W        W91723  18.684  21.691   5.428  0.1292 -0.1602 -0.0807
48733W        W91724  12.901  17.548   8.820 -0.0027  0.0120 -0.4638
48734W        W91725   0.997  33.999   3.058  0.0142 -0.0084  0.1995
48735W        W91726   3.530  18.158   5.291 -0.0541  0.0081  0.0833
48736W        W91727  25.447  27.347   8.373 -0.1310  0.1113 -0.2185
48737W        W91728  25.008   6.585   0.954 -0.3224 -0.1388  0.0904
48738W        W91729  26.287  26.684   4.671  0.0705  0.1644 -0.2334
48739W        W91730  10.077   1.578   1.089  0.0525 -0.2471  0.0904
48740W        W91731  29.871  18.549  24.522 -0.1753  0.0178  0.0762
48741W        W91732   4.864   2.922  10.242 -0.1404 -0.2042 -0.1304
48742W        W91733  34.002  25.037   5.861  0.0601 -0.2138 -0.1265
48743W        W91734  34.471   2.156  23.883 -0.0835 -0.0640 -0.3193
48744W        W91735   3.535  34.737   5.543  0.0839  0.0192  0.1690
48745W        W91736  15.903   5.350  20.600  0.1402 -0.0427 -0.0765
48746W        W91737   5.317  18.170   4.181  0.1984 -0.3091 -0.0217
48747W        W91738   4.449   9.201   1.481  0.1888 -0.0441  0.0395
48748W        W91739   8.877  29.813   2.415 -0.0343  0.0106  0.0223
48749W        W91740  26.569   1.299  22.733  0.1361  0.0001 -0.0640
48750W        W91741  33.134  23.877   6.514  0.2397  0.4541 -0.0469
48751W        W91742   1.621  27.035   1.601  0.2022 -0.0692  0.1918
48752W        W91743  24.404  32.901  25.264 -0.0420  0.0767  0.2102
48753W        W91744   3.490  33.047  20.134  0.0565  0.1971  0.4334
48754W        W91745  10.269  10.386  28.705 -0.0434  0.0843  0.3323
48755W        W91746  21.664  14.500  24.551  0.1219  0.1116 -0.0189
48756W        W91747  33.455  12.495   8.690  0.1377  0.1896  0.0269
48757W        W91748  34.577  24.433  28.281 -0.0937  0.2655  0.0152
48758W        W91749   4.640  17.288   1.071  0.0198 -0.0715  0.1145
48759W        W91750  34.016   7.094  25.243  0.0612  0.1404 -0.3923
48760W        W91751  31.080  24.382  10.370 -0.2324  0.0207  0.1304
48761W        W91752  20.675  31.731   8.541 -0.0038 -0.1595  0.2675
48762W        W91753   3.808  27.999   2.834  0.4567 -0.0757 -0.2193
48763W        W91754  33.827  24.866  28.939 -0.0374 -0.1662  0.1107
48764W        W91755  31.960  19.648   7.931 -0.0147 -0.1567  0.0790
48765W        W91756  31.873  24.010   9.486  0.3585 -0.4073  0.3848
48766W        W91757  14.838  16.467  13.034 -0.1731  0.0222 -0.1034
48767W        W91758   3.923   6.136   6.904  0.0197 -0.0672 -0.2417
48768W        W91759   3.295   1.593   0.412 -0.1181 -0.0660  0.0944
48769W        W91760  25.896  18.301   3.447 -0.0283  0.3079 -0.0103
48770W        W91761  23.912  10.071   8.258 -0.1690 -0.0495 -0.0494
48771W        W91762  19.547  19.389  26.325  0.1284  0.4487 -0.0914
48772W        W91763  30.115  22.872   6.048  0.0499 -0.0649 -0.0121
48773W        W91764  11.929  14.275  24.082 -0.0098 -0.0838 -0.2278
48774W        W91765   3.987  12.688  26.096  0.0921  0.0257  0.2556
48775W        W91766  33.971  34.360   0.673  0.1810 -0.0100 -0.0069
48776W        W91767  27.006   7.259   3.460 -0.0520 -0.0415  0.0167
48777W        W91768  31.724  15.994   3.575 -0.0355  0.0293 -0.0041
48778W        W91769   3.518  23.311  19.867  0.0069  0.1288 -0.2083
48779W        W91770  29.151   9.804   7.191 -0.0417 -0.0408 -0.2524
48780W        W91771   7.950  27.688   0.935 -0.2215 -0.2852  0.1950
48781W        W91772  14.540  16.386   8.894 -0.0608 -0.0115 -0.0090
48782W        W91773   5.204  27.454   7.032  0.5388  0.2349 -0.2761
48783W        W91774  32.420  11.992  10.933  0.2461  0.0509 -0.2052
48784W        W91775  10.313  29.849  24.993 -0.1402  0.0589 -0.1249
48785W        W91776  19.117  24.492   9.407 -0.0892 -0.0656  0.1962
48786W        W91777   8.912  29.495  17.833  0.0515  0.2763 -0.2472
48787W        W91778   8.852  17.471   7.028  0.1444 -0.5345 -0.2069
48788W        W91779  26.255  31.280   8.217  0.3104  0.3277 -0.1445
48789W        W91780  24.137  24.236   2.719 -0.0885 -0.0479  0.0277
48790W        W91781  25.321  26.676  15.764 -0.1651 -0.0364 -0.1980
48791W        W91782  10.703  15.085  17.170  0.3065  0.2011 -0.1536
48792W        W91783   1.036  33.531   3.153  0.0085 -0.0095  0.1646
48793W        W91784  34.401   4.404  28.183 -0.1059  0.1262  0.0065
48794W        W91785  31.906  21.586   9.460 -0.0257  0.0041 -0.2788
48795W        W91786   5.041  25.609   5.759 -0.0535 -0.1173 -0.0483
48796W        W91787  32.291   6.044   6.081  0.0297  0.0773 -0.0776
48797W        W91788   5.365  27.155   7.436 -0.3364  0.0596  0.0311
48798W        W91789  27.997   6.819  16.735  0.1047 -0.3125  0.0763
48799W        W91790   3.328   3.599   2.988 -0.3926  0.1136  0.0800
48800W        W91791   2.908   0.483   8.783 -0.3110 -0.2726 -0.2462
48801W        W91792  34.661  24.067   9.039  0.2601  0.3252 -0.0741
48802W        W91793   9.750   1.114  14.929 -0.0654  0.1228  0.1725
48803W        W91794  29.258  28.669  28.819  0.3577  0.2472 -0.0774
48804W        W91795  22.857  18.274  23.776 -0.1496  0.0554  0.0595
48805W        W91796   1.202  26.376  29.141  0.0067 -0.1280  0.1611
48806W        W91797   3.206  34.560   7.647 -0.0959  0.0589  0.2997
48807W        W91798  19.064  28.697   1.488 -0.0773 -0.2115  0.0172
48808W        W91799  17.509  12.911   2.274  0.0770  0.2825  0.2945
48809W        W91800  10.105  14.268   6.050  0.1000  0.3302 -0.0229
48810W        W91801  22.517  25.076  28.133  0.0356 -0.1158  0.0393
48811W        W91802  30.071  19.843  25.675 -0.3852  0.1674 -0.0245
48812W        W91803  18.374  19.770   8.228  0.0248  0.4122  0.3009
48813W        W91804  28.260   9.464   3.975  0.1194 -0.1560  0.0238
48814W        W91805  20.932   6.036   4.494  0.1710 -0.0089 -0.0198
48815W        W91806  24.513  30.232   5.194  0.4706 -0.2850 -0.2648
48816W        W91807  32.936   1.613   6.743  0.0676 -0.0725  0.1216
48817W        W91808  22.473  22.498  25.846  0.1313 -0.0421  0.1360
48818W        W91809  14.606  13.586   9.588  0.1567 -0.0316 -0.0732
48819W        W91810  20.296  27.784  14.901 -0.2113  0.0385 -0.1418
48820W        W91811  18.202  25.825  26.308 -0.2626  0.0189 -0.2465
48821W        W91812  30.954  29.437   6.055  0.0103  0.1448 -0.0870
48822W        W91813  30.472  12.971   4.165  0.2546  0.0132 -0.1232
48823W        W91814  16.271  21.159   5.783  0.0096  0.0357 -0.2456
48824W        W91815   6.837  26.483   0.441 -0.1767  0.1365  0.2727
48825W        W91816   3.655  19.656  11.484 -0.2733 -0.0355  0.1509
48826W        W91817   6.132  22.264   4.547 -0.0043  0.1883 -0.0918
48827W        W91818  18.739   3.436   2.940 -0.3478 -0.2340 -0.0261
48828W        W91819  17.195  21.763  20.004  0.0269 -0.3158 -0.0335
48829W        W91820   4.272   8.440   9.087 -0.1363 -0.1018  0.0003
48830W        W91821   2.965  27.231  24.513 -0.0817 -0.1874  0.0433
48831W        W91822   5.055  30.057   7.840  0.0345 -0.0501 -0.0284
48832W        W91823  21.131  28.166   7.495 -0.0116  0.1589 -0.0837
48833W        W91824  16.769  32.241   6.272 -0.1419 -0.0709  0.3065
48834W        W91825  18.087  14.900   5.200  0.0727 -0.2744  0.1492
48835W        W91826  12.449  11.892  11.004 -0.0291  0.0744 -0.2563
48836W        W91827   0.042  31.407   5.737  0.0199  0.0613  0.0724
48837W        W91828   1.362  24.934  27.625  0.1766  0.0508 -0.2422
48838W        W91829  33.600  30.968   4.661  0.0505 -0.3460  0.0089
48839W        W91830  29.684  21.923   8.211 -0.0342  0.0307  0.1311
48840W        W91831  14.655   8.837  10.834 -0.3768 -0.3675 -0.2219
48841W        W91832   4.418   4.561   4.655  0.0318  0.1067  0.0175
48842W        W91833   2.277  31.359   1.053 -0.3570 -0.0205 -0.0644
48843W        W91834  29.146  24.105   6.042  0.2831 -0.1679 -0.5437
48844W        W91835  12.839  28.983   2.654 -0.0557 -0.3363  0.0815
48845W        W91836  10.709  13.659  10.071 -0.0776 -0.1813 -0.0573
48846W        W91837   9.435  17.912   6.722 -0.1655  0.0833 -0.0047
48847W        W91838  31.129  27.519   7.560  0.0668 -0.3515  0.0438
48848W        W91839   1.117  32.294   7.961  0.2604  0.0601  0.2048
48849W        W91840   8.229  28.572   1.936  0.3201 -0.0857 -0.0918
48850W        W91841  26.874   2.088   7.638  0.1104 -0.0484  0.0796
48851W        W91842  11.047  29.210  22.128  0.1507  0.0823  0.0875
48852W        W91843   6.766  20.723  28.096  0.6240  0.2711 -0.0984
48853W        W91844  21.529  22.161   6.831 -0.1403  0.3310  0.1937
48854W        W91845  32.864  28.322  28.000 -0.2987  0.2625  0.2608
48855W        W91846   3.065  29.973   6.961 -0.1102 -0.0706 -0.3484
48856W        W91847  15.522  19.843   1.619  0.1524  0.1513  0.1144
48857W        W91848  32.768   3.360  23.128 -0.0426  0.0283 -0.0308
48858W        W91849   7.879  22.921   9.536  0.0167  0.0952  0.2117
48859W        W91850   1.323  34.570   2.047 -0.2625 -0.3892 -0.0908
48860W        W91851  18.175  16.738   3.522  0.0511 -0.1189 -0.1232
48861W        W91852   0.964  24.162   5.965 -0.0109  0.0669  0.4083
48862W        W91853   7.356   6.848   9.766 -0.1493 -0.3121  0.1258
48863W        W91854  23.591   9.803   5.107 -0.0503 -0.0667  0.2005
48864W        W91855  27.765  29.864   4.883 -0.1040 -0.1032  0.1181
48865W        W91856  22.019  29.990   9.211  0.1385  0.1737 -0.0220
48866W        W91857  27.277   0.677   8.822 -0.2216  0.0953  0.0729
48867W        W91858   1.677   1.797   0.913 -0.1586  0.4786  0.0368
48868W        W91859  30.180  31.577   3.523 -0.0163 -0.0221  0.0640
48869W        W91860   2.050   1.399   7.945 -0.3294  0.0006 -0.2194
48870W        W91861  31.459   1.285  20.889  0.1327 -0.2817  0.0681
48871W        W91862   4.497  27.634   8.157  0.3591 -0.0867  0.3462
48872W        W91863   0.530  14.710   0.438  0.0546 -0.1410  0.2245
48873W        W91864  34.046   6.537   7.151  0.0583  0.1254 -0.3878
48874W        W91865  22.411  25.427  17.963 -0.0129  0.1493 -0.2626
48875W        W91866  19.053  28.418   7.395 -0.0800 -0.2606 -0.1324
48876W        W91867   0.248   0.156   4.133 -0.1137  0.0121 -0.0252
48877W        W91868   4.965  21.253   2.319  0.0218  0.4001  0.1360
48878W        W91869   1.857   0.774  17.279 -0.1958  0.0652  0.0294
48879W        W91870   3.720  34.568  23.083  0.0370 -0.1502  0.2093
48880W        W91871   5.476  23.169   2.965  0.1474  0.0100 -0.0383
48881W        W91872  31.329  21.266   7.133  0.0177 -0.0421 -0.1830
48882W        W91873  11.432  27.699   4.810 -0.2697 -0.2741  0.1261
48883W        W91874  30.758  13.121   6.684  0.0647 -0.0163  0.6243
48884W        W91875  27.763  25.030  29.091  0.0347  0.1488  0.1593
48885W        W91876   0.931   4.723   2.566  0.0808 -0.3315  0.0786
48886W        W91877  20.521  24.559   0.789  0.3026  0.2931 -0.2136
48887W        W91878  26.540  23.808  27.494 -0.2994  0.1762 -0.2214
48888W        W91879  31.345  26.570   8.234  0.2524  0.0262 -0.1331
48889W        W91880   5.115  33.036   9.773  0.0673  0.0342 -0.0177
48890W        W91881  33.597  15.252  23.591 -0.2088 -0.1062  0.2127
48891W        W91882   0.729  29.695   3.099  0.2814  0.0613 -0.1462
48892W        W91883   4.726  22.625   5.265 -0.1376  0.0585  0.2777
48893W        W91884  27.545  29.130   2.280  0.1048 -0.0519 -0.2284
48894W        W91885  32.516  12.363  27.364  0.4851 -0.0005  0.0932
48895W        W91886   4.688  22.624   9.186  0.0911 -0.0560 -0.1133
48896W        W91887  27.754  31.884  26.991 -0.1444  0.1562 -0.2626
48897W        W91888  26.911  30.307   2.680 -0.2996 -0.3984  0.0854
48898W        W91889  27.524  32.915  27.708 -0.0908  0.2545  0.0380
48899W        W91890  12.377  20.134  26.859  0.0717 -0.0806 -0.0665
48900W        W91891  32.622  33.945   2.389 -0.2143 -0.0865  0.0259
48901W        W91892   3.894  15.837  10.017  0.0512 -0.4705 -0.0847
48902W        W91893  33.561   8.766   3.287 -0.1680 -0.1510 -0.1737
48903W        W91894   2.258  27.450   3.007 -0.0823  0.1219  0.1451
48904W        W91895   3.290  19.533   5.218  0.0406 -0.2698  0.1154
48905W        W91896   8.077   4.248   4.786 -0.3140 -0.0088  0.2857
48906W        W91897   4.674  22.235   1.447  0.0364  0.1249 -0.5175
48907W        W91898   1.308  24.407  25.142 -0.3212  0.2034 -0.1660
48908W        W91899  13.423  32.344   6.987  0.0562  0.1612  0.1601
48909W        W91900   0.616   0.479   4.520 -0.0361 -0.1357  0.0119
48910W        W91901  20.411  13.002  22.766 -0.1254 -0.1694  0.0173
48911W        W91902  27.784  34.281   6.440  0.3442 -0.3713  0.0302
48912W        W91903  15.274  12.130   4.470 -0.0246  0.0996  0.1655
48913W        W91904   6.452   0.985   4.289  0.1206 -0.0057 -0.0833
48914W        W91905   2.247  30.429   4.910  0.2056 -0.0717 -0.0737
48915W        W91906  34.267  18.334  28.091 -0.2309 -0.0209  0.1076
48916W        W91907  31.621  18.518   8.283  0.1270 -0.2310  0.3055
48917W        W91908   0.914  23.292   4.586 -0.1962 -0.1840 -0.1590
48918W        W91909  18.581   2.879   5.546  0.0387  0.2965  0.0681
48919W        W91910  21.463  24.375   5.621 -0.0430  0.0342  0.2452
48920W        W91911  13.248  29.139  28.569  0.2378  0.3307 -0.1165
48921W        W91912   6.508  13.374   5.144  0.1014  0.1420 -0.0560
48922W        W91913  22.573   3.644   5.160 -0.4697 -0.0032  0.0246
48923W        W91914  33.533   6.625   8.313 -0.1377  0.1170  0.2608
48924W        W91915   1.291   6.788  28.036 -0.0052 -0.2320 -0.1297
48925W        W91916  29.354  28.218   6.116  0.1416  0.0928 -0.1261
48926W        W91917  13.346  11.450   8.259 -0.2344 -0.0329  0.1128
48927W        W91918  15.134   6.576   7.846 -0.4256 -0.1342  0.0421
48928W        W91919   0.440  33.031   5.597  0.2865 -0.2870 -0.2771
48929W        W91920  31.304  20.032  27.119  0.1659 -0.0012 -0.1081
48930W        W91921  18.558  24.495   6.466  0.0431 -0.0154 -0.0164
48931W        W91922  31.855   8.311   1.055 -0.0218 -0.2263 -0.1200
48932W        W91923   1.442  27.527   7.522  0.1062  0.1286 -0.0326
48933W        W91924   5.760  33.858   6.371 -0.2407  0.4467  0.5878
48934W        W91925  29.535   3.768   0.119  0.0038  0.1072 -0.1744
48935W        W91926  28.537   0.242  17.547  0.2538  0.0537  0.0485
48936W        W91927   0.435  24.223  28.515  0.1248  0.0197 -0.0665
48937W        W91928  24.835   4.680  24.926 -0.0358  0.0219  0.0763
48938W        W91929   9.671  18.004   7.350  0.1799 -0.0469  0.3436
48939W        W91930  19.588  29.932   0.695 -0.0065  0.1743 -0.0860
48940W        W91931  14.620   8.571   5.302  0.0999 -0.0953  0.0385
48941W        W91932   0.140  29.555   2.289 -0.1599 -0.3152 -0.0040
48942W        W91933   2.337   8.932  11.219 -0.1588 -0.0159 -0.0232
48943W        W91934  25.008  14.435   1.216 -0.1049 -0.4364 -0.1687
48944W        W91935  25.060   6.021   8.791  0.3560 -0.0628 -0.1924
48945W        W91936   4.795  18.490   4.773  0.0121  0.0809 -0.1257
48946W        W91937  10.054  33.709   8.410 -0.0974  0.1904 -0.0426
48947W        W91938  28.651  15.998  25.665  0.1549 -0.1653  0.0109
48948W        W91939   3.661  28.050  28.715 -0.2624 -0.4526  0.2137
48949W        W91940  23.615  28.557   6.172 -0.2332  0.0203  0.2879
48950W        W91941   6.628  30.269  20.202 -0.0464 -0.0752 -0.1622
48951W        W91942   1.242  22.618   6.770 -0.1953  0.2761  0.2892
48952W        W91943  31.009  28.949  25.790  0.1033  0.0974 -0.2527
48953W        W91944   3.977   9.119   4.728  0.1173 -0.1511  0.1623
48954W        W91945  20.858  27.870   6.809 -0.0630  0.2628 -0.2102
48955W        W91946   3.410  33.688   9.582 -0.0069  0.1074  0.1673
48956W        W91947   8.461  16.327   0.007  0.1749 -0.3201  0.0237
48957W        W91948  34.076   0.353   0.099  0.1773 -0.2133  0.0985
48958W        W91949  26.958  22.958  18.569 -0.2117  0.0585  0.2594
48959W        W91950  16.371  26.067   1.221  0.0764 -0.0987  0.0456
48960W        W91951  25.066  29.278   3.106  0.0237 -0.0955  0.3344
48961W        W91952   2.519  12.793   6.192 -0.0169 -0.0383  0.1360
48962W        W91953  22.755  24.241  29.131  0.0583  0.0442 -0.2064
48963W        W91954  28.994  22.591  18.325  0.2127 -0.3985 -0.2998
48964W        W91955  13.427  21.721  20.679 -0.2432 -0.1343  0.1084
48965W        W91956  10.988  32.102   6.095  0.0238  0.0449 -0.2554
48966W        W91957   4.865  29.604   5.192  0.1372  0.0637 -0.0468
48967W        W91958  24.453   5.491   2.962 -0.2217  0.0856 -0.2944
48968W        W91959  29.354  17.079   2.986  0.4280 -0.1670  0.1298
48969W        W91960  34.225   4.599   8.940 -0.2202  0.3945  0.2032
48970W        W91961   5.222  28.353   9.849  0.1079  0.2795  0.1513
48971W        W91962  24.675  27.456   0.748  0.0003  0.0136  0.0019
48972W        W91963   1.388  27.720   0.837 -0.1049  0.1834 -0.1976
48973W        W91964   6.555   0.217  27.533  0.3071 -0.1906 -0.0082
48974W        W91965  30.822  20.402   0.434  0.1583 -0.2401 -0.2232
48975W        W91966   4.236  23.125   2.089  0.0496  0.0585 -0.0092
48976W        W91967  29.353  10.824  26.947  0.1173 -0.1747 -0.0407
48977W        W91968  18.889  14.382  27.940  0.0594 -0.0818 -0.2001
48978W        W91969  22.241  29.396  18.308 -0.0130  0.1833  0.1941
48979W        W91970  20.539   8.528  26.463  0.0543 -0.1164 -0.1226
48980W        W91971  23.590   0.667   6.453 -0.1268 -0.1067 -0.3656
48981W        W91972  10.014  28.254  26.745  0.2118 -0.1161 -0.1559
48982W        W91973  31.410  27.283   3.297  0.0282  0.0232  0.2487
48983W        W91974  32.429   1.682  28.209  0.0850  0.1213 -0.1497
48984W        W91975   1.057   0.987   8.654  0.3168 -0.0156 -0.0743
48985W        W91976  12.845  32.040  10.160 -0.2338 -0.2368  0.3117
48986W        W91977  31.363  27.012  15.301  0.1197 -0.2985 -0.4578
48987W        W91978  32.091  32.268  14.733  0.0129  0.0189 -0.0872
48988W        W91979  30.576  18.688   7.623 -0.0788 -0.3074  0.1141
48989W        W91980  32.406  26.665   5.657  0.0210 -0.1495 -0.1433
48990W        W91981   6.186  29.183   7.316  0.2203  0.0428  0.2372
48991W        W91982  15.795  27.402   5.125  0.2780 -0.1659 -0.0092
48992W        W91983  13.976   2.864   3.683  0.2117  0.0162 -0.0415
48993W        W91984  30.791  21.994   2.384  0.2922 -0.0609 -0.1445
48994W        W91985  15.033  34.311   8.690 -0.0205  0.2162  0.1530
48995W        W91986  27.728  19.726   9.311 -0.0516  0.1850 -0.0426
48996W        W91987  26.999  21.076   8.636 -0.2386  0.1759 -0.0906
48997W        W91988  21.746  18.026   8.610 -0.0214  0.1440 -0.1031
48998W        W91989  21.933  23.763   5.839 -0.0183  0.2707  0.2322
48999W        W91990  29.510  29.444   4.040 -0.2505  0.0319 -0.0673
49000W        W91991   7.686  32.534   4.433  0.4588 -0.2237 -0.1148
49001W        W91992  25.644   8.944   8.960 -0.0697  0.1752 -0.0057
49002W        W91993  12.412  27.624   0.945  0.1449  0.2760 -0.1739
49003W        W91994  10.054   6.317   5.863 -0.2468 -0.0231  0.0906
49004W        W91995   4.760   7.253   5.412 -0.1416  0.0619  0.2465
49005W        W91996  28.816   0.438   3.084  0.1771  0.1596 -0.1667
49006W        W91997  19.775  12.213  27.716 -0.1297  0.2900  0.2728
49007W        W91998   0.687  10.635  25.944  0.4751 -0.2428  0.0766
49008W        W91999  30.755   1.817  27.626  0.2131  0.0916  0.3412
49009W        W92000  13.830  23.642   3.883  0.1760 -0.0903  0.1279
49010W        W92001  34.700  21.026   3.732  0.1644  0.3428 -0.3475
49011W        W92002   1.520   6.651  27.111 -0.1643 -0.0515 -0.0444
49012W        W92003  33.557  30.831   8.018 -0.1597  0.1965  0.1594
49013W        W92004  25.361  16.068  20.020 -0.3751  0.1346  0.0965
49014W        W92005  33.094  23.442   4.854  0.0507 -0.1416  0.1498
49015W        W92006  10.938  27.592   4.646  0.0255  0.1449 -0.3886
49016W        W92007   2.370  26.972   3.591  0.0254 -0.2663  0.0329
49017W        W92008  30.570  30.873   9.124  0.4813 -0.1453 -0.0199
49018W        W92009  19.790  30.293  27.572 -0.0211  0.0661 -0.1572
49019W        W92010   2.379  31.143   7.970 -0.3290 -0.0372 -0.0368
49020W        W92011  33.610  28.557   3.008  0.1545  0.1292  0.1082
49021W        W92012   4.185  31.543   6.702 -0.0131 -0.0312 -0.2866
49022W        W92013  25.301  24.982  25.216  0.1727 -0.1195 -0.0870
49023W        W92014   7.265  14.437   8.619  0.1141  0.0786  0.1182
49024W        W92015   1.714  22.114   9.164 -0.1066 -0.2850  0.2352
49025W        W92016  12.976  29.061  18.070  0.0724 -0.1694  0.0615
49026W        W92017  32.715   8.588   4.160 -0.2645 -0.1175  0.1809
49027W        W92018  32.122  21.173   3.938 -0.1571  0.0864  0.2640
49028W        W92019  25.670  23.552  24.117 -0.0463 -0.0511  0.1492
49029W        W92020  14.791  28.260  10.349  0.0126 -0.0576 -0.1637
49030W        W92021  27.970  29.390   5.917  0.3360 -0.0427 -0.0548
49031W        W92022  28.906   7.361   7.484 -0.0651  0.0649  0.2157
49032W        W92023  22.975  34.526  27.622 -0.0761 -0.0189 -0.1148
49033W        W92024  26.422  23.475   0.464  0.3526 -0.1102 -0.1388
49034W        W92025   6.688  24.526   6.912 -0.0329 -0.2101  0.0159
49035W        W92026  31.294  23.536   7.598 -0.2166 -0.1332  0.1302
49036W        W92027  20.859   4.233   9.403 -0.0306  0.1501 -0.2692
49037W        W92028   3.626  23.296   4.469 -0.0803 -0.2112  0.0247
49038W        W92029   4.431  17.584  27.541 -0.0248 -0.6240  0.1671
49039W        W92030   4.687  19.238  27.901 -0.0160 -0.1074 -0.0980
49040W        W92031   8.143   4.974  25.464 -0.0060  0.1143  0.0520
49041W        W92032   5.807  10.560  16.715 -0.1002 -0.0324  0.0845
49042W        W92033  34.397  18.167   9.776  0.0122 -0.1509 -0.1267
49043W        W92034  15.762  14.281  22.825 -0.2287  0.0414  0.0338
49044W        W92035  31.451  25.498   9.835 -0.3520 -0.1001  0.0285
49045W        W92036   0.233  32.455  27.070  0.2841  0.1399  0.0778
49046W        W92037   8.065   3.751  28.112 -0.2523 -0.0388 -0.0033
49047W        W92038  11.065   7.179   1.216 -0.0526  0.2309 -0.1720
49048W        W92039   4.445  26.381   4.073  0.3154 -0.0298 -0.2862
49049W        W92040   2.725  23.445   9.533  0.2477  0.1480  0.0305
49050W        W92041  33.012  23.853  23.681  0.2134 -0.1638  0.1076
49051W        W92042   1.548  30.374   7.261  0.3134  0.0911 -0.2169
49052W        W92043  34.673   4.220   8.789  0.3372  0.0303  0.0240
49053W        W92044   4.856  32.055   4.429 -0.1308  0.0947  0.2362
49054W        W92045  29.505  28.766  24.263  0.0739  0.3511  0.0491
49055W        W92046  20.149  25.150   7.338 -0.0296  0.1824  0.0381
49056W        W92047   1.558   9.432   7.101  0.2579 -0.2451  0.0164
49057W        W92048   4.490  27.734  25.807  0.3931 -0.0903 -0.1864
49058W        W92049  29.243  16.058   1.872 -0.2327  0.1793  0.1230
49059W        W92050  15.390  10.729   0.892 -0.2691  0.0858  0.0701
49060W        W92051  34.763  25.860   6.779  0.2408 -0.1825  0.0055
49061W        W92052   2.198  31.185   3.579  0.0937 -0.0599  0.3299
49062W        W92053   4.692  25.336   7.411  0.0530 -0.1289  0.1062
49063W        W92054  30.446  21.682   3.778  0.0576  0.1429 -0.0755
49064W        W92055   3.042   4.255   4.234  0.1419  0.1833 -0.0961
49065W        W92056  25.309  19.754   5.611 -0.2916 -0.2897  0.1645
49066W        W92057  21.163  28.061   1.867 -0.2069 -0.0808 -0.0152
49067W        W92058  28.821  14.374   2.636  0.0497  0.0978 -0.0968
49068W        W92059  15.165   2.161   1.830  0.2666 -0.0628 -0.0551
49069W        W92060  34.443  18.556  28.946  0.2321  0.3522 -0.3433
49070W        W92061  27.140  19.850   8.093 -0.3716  0.2653 -0.2349
49071W        W92062  31.487   1.323   8.342  0.2012 -0.1705  0.1661
49072W        W92063  21.963  24.865   1.552 -0.1963 -0.0020 -0.2521
49073W        W92064  20.442  28.664   4.569  0.0652 -0.0112  0.4099
49074W        W92065  17.931  30.501  10.089  0.1625  0.0487  0.1743
49075W        W92066  32.552   1.696   6.392 -0.0073  0.1224  0.0833
49076W        W92067  34.186  26.858   2.294 -0.1197  0.4290 -0.0309
49077W        W92068  29.975  24.185   4.561 -0.0332 -0.2054 -0.0453
49078W        W92069  25.999  26.873  27.267 -0.1624  0.0499  0.1519
49079W        W92070   0.202  15.976   6.145  0.0680 -0.0493 -0.1383
49080W        W92071  31.099  17.426   5.320 -0.2025 -0.0814 -0.1361
49081W        W92072   7.299  23.665  20.114  0.0741  0.2454 -0.0917
49082W        W92073   8.155  27.945  27.491  0.0582  0.2324 -0.1049
49083W        W92074   5.602  32.367  19.503  0.0007 -0.0672 -0.0777
49084W        W92075  25.995  30.702  23.106 -0.0400  0.0313  0.0875
49085W        W92076   6.710  22.583   3.970 -0.0846 -0.0371 -0.1285
49086W        W92077   4.727  17.099   8.370 -0.0345  0.1062 -0.3041
49087W        W92078  33.171  21.079   9.120 -0.0554  0.2501  0.0020
49088W        W92079   3.309  26.547   3.202 -0.1182 -0.0460 -0.1324
49089W        W92080  31.084  23.872   7.903  0.3238  0.0362 -0.1065
49090W        W92081  22.414  18.518   8.031  0.0844  0.0351 -0.1325
49091W        W92082  19.745  12.671   0.141 -0.3576  0.2159 -0.1172
49092W        W92083  33.531  30.091   7.416  0.0947  0.0563  0.0604
49093W        W92084  24.925   5.180  17.427 -0.0995 -0.1643 -0.1337
49094W        W92085  20.827  27.584  29.223 -0.0877  0.3781  0.2381
49095W        W92086  28.651  32.810   7.288 -0.2184 -0.0672  0.2449
49096W        W92087  27.895  16.205   5.389  0.0912  0.0804 -0.2438
49097W        W92088  25.460  12.031   1.997 -0.0059  0.0597  0.1691
49098W        W92089  30.800  17.396   5.688 -0.1439  0.2549  0.3936
49099W        W92090   1.561   8.655   5.447  0.0402 -0.3044 -0.1082
49100W        W92091   4.940  27.023   6.175  0.2536  0.2626  0.1020
49101W        W92092   5.293  13.756  24.574  0.0241 -0.0693  0.0504
49102W        W92093  25.993   0.882   8.745 -0.4652 -0.1039 -0.0236
49103W        W92094  16.726  30.825  28.988  0.1916  0.1414  0.1806
49104W        W92095  29.914  28.100  21.940  0.0718 -0.1546 -0.2007
49105W        W92096  25.343   2.418   3.432  0.2009  0.3448 -0.0647
49106W        W92097  21.977  33.675   7.251 -0.2150  0.3942 -0.0183
49107W        W92098  28.389   5.592  22.608 -0.1872 -0.1650  0.3935
49108W        W92099  27.480  20.443   9.134 -0.0441 -0.0716 -0.1412
49109W        W92100  33.273   9.910   7.020  0.0790  0.2268 -0.0180
49110W        W92101  19.488  30.251   8.218 -0.1083  0.1311 -0.2704
49111W        W92102  25.074   3.946  26.920  0.1519  0.0972  0.0828
49112W        W92103  25.182   3.039  20.264  0.0512  0.4569 -0.0437
49113W        W92104  31.684  15.191   5.072 -0.0143  0.1444 -0.0582
49114W        W92105  33.173  20.100   6.963 -0.1279 -0.1033  0.2121
49115W        W92106  28.849  32.239   7.286  0.0865  0.1646 -0.2767
49116W        W92107  33.826  14.551  27.218  0.1023 -0.0193  0.0422
49117W        W92108  12.670  28.465  20.621  0.0104 -0.1594  0.2006
49118W        W92109  25.379  10.996   7.496  0.3081 -0.2290  0.0586
49119W        W92110  20.405  19.527  23.987  0.0929  0.0572  0.4321
49120W        W92111   2.136  20.754   8.873 -0.1224 -0.3238 -0.1344
49121W        W92112   1.066   1.381   8.201 -0.0767 -0.1134  0.1564
49122W        W92113  25.964   5.480  27.413 -0.1276 -0.0101  0.1357
49123W        W92114  27.695  21.643   6.997 -0.0260  0.1383 -0.2262
49124W        W92115   6.320  20.702   1.711  0.1249  0.1277 -0.2321
49125W        W92116  27.348  30.645   6.797  0.2055  0.2667 -0.0158
49126W        W92117  32.925   3.696   6.147  0.2297 -0.1099  0.1595
49127W        W92118  29.416   0.115   8.134 -0.0105 -0.2601  0.0813
49128W        W92119  18.732  25.710  28.481  0.2157 -0.1142  0.0791
49129W        W92120  26.538  10.264   1.163 -0.0847 -0.2809 -0.2569
49130W        W92121  28.674   7.546   6.942 -0.0648 -0.0000 -0.1533
49131W        W92122   7.055   6.012  22.969 -0.3605  0.2490  0.0806
49132W        W92123   1.838  29.593  25.762  0.0417  0.0219  0.2473
49133W        W92124  16.212  25.719  24.716  0.0792 -0.1639 -0.2956
49134W        W92125   0.138   9.125  11.058  0.3476 -0.1389 -0.0728
49135W        W92126  26.606  27.621  21.425 -0.1152  0.1710 -0.0071
49136W        W92127   9.045   6.825   3.237  0.0562 -0.3021 -0.3014
49137W        W92128  33.685   7.465   1.809 -0.2659  0.1385  0.2392
49138W        W92129   3.361  25.284   9.320 -0.0540 -0.2466 -0.0610
49139W        W92130  26.529  16.600  22.957  0.2956 -0.1432 -0.2431
49140W        W92131   3.977  14.935   0.350  0.0194 -0.0174 -0.0186
49141W        W92132  25.248  11.333  28.111  0.2534  0.0602  0.0700
49142W        W92133   0.245  33.616  23.682  0.1819  0.1115  0.2122
49143W        W92134  26.340  15.209   4.871 -0.2225  0.0159 -0.0147
49144W        W92135  32.199  22.742   2.923 -0.2379  0.2825 -0.3959
49145W        W92136  33.068   5.998   7.239 -0.1592  0.0491  0.2007
49146W        W92137   9.719  28.762   7.536  0.1299 -0.0224 -0.0647
49147W        W92138  21.649  23.925   5.276  0.0182  0.2656 -0.3790
49148W        W92139   7.949  23.077   8.156 -0.1356  0.0209 -0.1291
49149W        W92140   3.867   5.780   4.899 -0.1081 -0.0866 -0.0436
49150W        W92141  23.219  24.333  29.090  0.0773 -0.1285  0.1065
49151W        W92142  26.420  16.180  24.655  0.0791  0.0819  0.0029
49152W        W92143  15.484  25.018   9.241 -0.2911  0.1905  0.1339
49153W        W92144  22.400  29.083   0.874  0.2140  0.1054  0.1901
49154W        W92145  11.267   0.496  24.875 -0.2870 -0.1939 -0.0577
49155W        W92146   1.296  21.249   6.207  0.2898 -0.1548  0.0652
49156W        W92147  15.571  31.996  26.605 -0.0928 -0.1316 -0.0561
49157W        W92148  28.716   8.463   8.791 -0.3562  0.0988  0.1230
49158W        W92149  22.254   7.875  28.574  0.2265  0.0781  0.1680
49159W        W92150  23.331   8.138   1.089  0.5432 -0.5060 -0.1464
49160W        W92151  16.916  15.838  28.116  0.4476  0.1229  0.0656
49161W        W92152  28.331   0.147   8.198 -0.2247 -0.1811  0.2517
49162W        W92153  32.554  29.022  28.147 -0.1843  0.0267  0.2528
49163W        W92154  31.473  24.336   9.139  0.0699 -0.2943 -0.1642
49164W        W92155  22.256  27.383   6.573  0.0146  0.3430 -0.1317
49165W        W92156  21.481  26.251   5.546 -0.0770 -0.0001 -0.1676
49166W        W92157   2.016  31.121  27.875  0.2216  0.2093 -0.3054
49167W        W92158   0.483   0.600  21.246 -0.2819  0.0708 -0.1211
49168W        W92159  27.239  23.078   6.680  0.1281  0.0409  0.0916
49169W        W92160  22.065  20.889  24.207 -0.0023  0.1860 -0.2158
49170W        W92161  28.179  27.029   4.412  0.1552 -0.0617  0.0629
49171W        W92162  30.984  26.646  27.125  0.0506  0.1470 -0.0614
49172W        W92163  21.535  29.716  28.988 -0.1769 -0.0930  0.0902
49173W        W92164  34.710   4.014   6.253 -0.2998 -0.2981 -0.1252
49174W        W92165  29.635  27.796  13.908  0.2408  0.4034 -0.0512
49175W        W92166  34.544  33.526  17.052  0.1050 -0.0488  0.0343
49176W        W92167   3.989  18.880   7.920  0.0341  0.2075 -0.1828
49177W        W92168  29.958   5.216  25.014  0.1127  0.1410 -0.1091
49178W        W92169  18.741  17.305   3.992 -0.2539  0.4716 -0.2017
49179W        W92170  34.578  34.718  23.619  0.5680  0.1362 -0.2889
49180W        W92171  29.549  20.743   7.846  0.2746  0.1976  0.0216
49181W        W92172  17.598  28.879   9.237  0.2773  0.1670  0.0433
49182W        W92173   9.503  32.193   7.093 -0.1833 -0.2070  0.1848
49183W        W92174  26.844  31.916   1.786  0.0163  0.0763  0.2691
49184W        W92175  29.309   1.954   2.176 -0.1239 -0.3320  0.2402
49185W        W92176  30.212  34.371   5.935  0.4297 -0.3009 -0.3283
49186W        W92177  10.823  10.410   6.177  0.0983 -0.3220  0.0091
49187W        W92178  31.910  17.715   5.792 -0.2895 -0.3029  0.1653
49188W        W92179   2.599   5.645   6.739 -0.0598  0.1655  0.1269
49189W        W92180  27.800   5.565  21.335  0.0907 -0.0441  0.1355
49190W        W92181   3.009  31.544  26.895  0.4497 -0.2014  0.1415
49191W        W92182  33.153  33.787   8.252  0.2300 -0.1332 -0.1390
49192W        W92183  22.660   2.884   5.295 -0.1317 -0.0476 -0.2214
49193W        W92184  23.661  12.197   5.980  0.1672  0.0815  0.1455
49194W        W92185  22.826   5.263   1.250 -0.3303 -0.0483 -0.0368
49195W        W92186   5.781   9.032   0.555  0.0448  0.0243 -0.0805
49196W        W92187   8.346   8.166  28.026 -0.0430 -0.0086  0.0283
49197W        W92188  25.382  24.062  14.148  0.1309 -0.0150 -0.1691
49198W        W92189  23.885   3.713  20.032  0.0922 -0.0652  0.0087
49199W        W92190   0.922  21.695   4.040  0.1371 -0.2908  0.4578
49200W        W92191  25.828  30.274  23.514  0.3388  0.0983 -0.3685
49201W        W92192  29.796   2.974   1.288  0.1938  0.2113  0.1129
49202W        W92193  28.411  10.457  26.597 -0.0363 -0.0224  0.0501
49203W        W92194  32.939  22.306  16.571  0.2323  0.2336 -0.0833
49204W        W92195  12.442  27.119  28.885 -0.0768  0.1731 -0.2099
49205W        W92196  15.455  31.560  27.070  0.1598  0.0043 -0.1685
49206W        W92197  13.116   1.567   3.948  0.2263 -0.4568 -0.2338
49207W        W92198  29.310  27.906   0.826 -0.0067  0.3723  0.3874
49208W        W92199   3.402  29.186   2.684 -0.0736 -0.3659  0.1569
49209W        W92200   6.141  34.094  27.340  0.2312  0.1977 -0.0056
49210W        W92201  32.207  34.659   9.424  0.0602 -0.2907  0.2136
49211W        W92202  15.893  27.640   2.714 -0.0882  0.0208  0.0699
49212W        W92203  33.114   6.748   1.677  0.1095 -0.0700  0.0341
49213W        W92204  11.516  27.801   5.377  0.2436 -0.2211 -0.1131
49214W        W92205  34.111  16.411  26.608 -0.0569  0.1858 -0.0936
49215W        W92206  20.461   1.546   4.136 -0.2421 -0.1006 -0.0201
49216W        W92207   5.916  14.041   2.788  0.2106  0.2404  0.0950
49217W        W92208  30.348  19.905  26.185  0.0899  0.1726  0.0920
49218W        W92209   3.493   3.142   4.317  0.2959 -0.0778  0.1531
49219W        W92210  21.870  27.741   6.358  0.0131  0.1379  0.1640
49220W        W92211  23.456  20.131  20.015 -0.1820  0.1986 -0.2008
49221W        W92212  23.371  24.596  17.497  0.0670  0.1010  0.0370
49222W        W92213  26.931  30.343   5.309 -0.1929  0.0904  0.1720
49223W        W92214   8.094   3.917   0.891 -0.1206 -0.2875 -0.1136
49224W        W92215  33.180   4.189  23.764  0.0696 -0.2507  0.1632
49225W        W92216   0.594  32.671   5.836 -0.2492  0.0953  0.2130
49226W        W92217  34.274  13.002   4.764 -0.1932 -0.1909  0.2568
49227W        W92218  33.572  32.936   0.085 -0.0955  0.0392 -0.1278
49228W        W92219   2.829  26.193   9.455  0.2577  0.0503 -0.4168
49229W        W92220  30.185  25.987   7.587 -0.0743 -0.3381 -0.1972
49230W        W92221  32.939   0.990   1.329  0.2590  0.1249  0.0702
49231W        W92222  26.741  26.960   9.787  0.2547  0.0579 -0.1165
49232W        W92223  22.589   5.301   5.713 -0.3315 -0.1165 -0.0020
49233W        W92224  30.553   1.548  22.128 -0.3418  0.1335 -0.0990
49234W        W92225  16.340  30.329  20.861  0.1925 -0.0949 -0.0863
49235W        W92226  27.311  23.785   5.242 -0.2802 -0.1564 -0.0218
49236W        W92227  15.822  28.046  27.843 -0.0570  0.4508 -0.0803
49237W        W92228  29.034  22.474   7.401  0.1990 -0.0376  0.1030
49238W        W92229   3.197   5.792  19.752 -0.2391 -0.0471 -0.0167
49239W        W92230  27.971  32.831   2.458  0.4414  0.1291  0.1585
49240W        W92231  25.110  11.024  28.803 -0.0023  0.2162 -0.0953
49241W        W92232  23.370  10.131   3.027 -0.2494 -0.1766  0.1769
49242W        W92233  33.094  34.020  22.151 -0.1126  0.0262  0.1801
49243W        W92234   9.273  32.170   8.714 -0.0884  0.0004 -0.3473
49244W        W92235  22.620   1.001  19.316  0.1474  0.1731  0.0721
49245W        W92236  33.399  12.106   5.129 -0.3842  0.0601 -0.1068
49246W        W92237  29.772  34.132   2.030  0.1231 -0.1270  0.0113
49247W        W92238   8.225  10.301  15.928 -0.1553 -0.1262  0.2628
49248W        W92239  26.405  30.071   3.375  0.1644 -0.1228 -0.0038
49249W        W92240   3.109   8.314  27.286  0.0290 -0.0440  0.0097
49250W        W92241  32.943  10.881   0.579 -0.2055 -0.1700 -0.2371
49251W        W92242  34.570   9.519  28.294 -0.1616 -0.2149  0.0418
49252W        W92243  26.617   0.163   6.759 -0.2586  0.0789  0.0866
49253W        W92244  21.483  15.324   1.397 -0.0172 -0.0251  0.0975
49254W        W92245  29.974  12.440  27.938 -0.2196 -0.3157  0.2391
49255W        W92246  33.281  27.704   6.424  0.2941  0.0822 -0.2453
49256W        W92247  28.511  27.798  20.340  0.0131  0.3436 -0.1368
49257W        W92248   7.876  12.992  22.332 -0.0529 -0.1214  0.0824
49258W        W92249   1.689  18.187  27.747 -0.3326  0.0462  0.2038
49259W        W92250  18.542  25.565  21.614 -0.0786  0.2707 -0.0207
49260W        W92251  30.196  34.185  27.591  0.1658 -0.1139 -0.1293
49261W        W92252  15.819  24.354  28.714 -0.2114 -0.2689 -0.0149
49262W        W92253  14.399   2.208   6.231 -0.0130 -0.3792 -0.1056
49263W        W92254  34.640   6.716  28.429  0.3743  0.1200  0.2425
49264W        W92255  24.860  29.273  26.368  0.1516  0.4873  0.0629
49265W        W92256  25.352  33.199  25.424  0.0112  0.0046 -0.3601
49266W        W92257  13.207  24.675  19.592 -0.3551  0.1411  0.2918
49267W        W92258  31.867  22.898   1.069 -0.1109 -0.2262  0.2223
49268W        W92259  30.167  25.875  20.174  0.0221  0.0038  0.0815
49269W        W92260  16.852  12.141   1.251  0.1955 -0.0327  0.2020
49270W        W92261  25.982  16.366  21.752  0.0109 -0.1376  0.2974
49271W        W92262   7.553  30.193   7.569  0.1341 -0.1089  0.0761
49272W        W92263  16.560  27.836   9.955  0.1716 -0.1533 -0.0134
49273W        W92264   9.065   2.811  26.622  0.2935  0.0960 -0.0287
49274W        W92265  24.544   7.102   4.603  0.1735  0.1437  0.1359
49275W        W92266   0.948  30.325  17.038  0.1094 -0.0377  0.1005
49276W        W92267  11.955   4.333   3.759  0.0839 -0.2317  0.2877
49277W        W92268  27.375   1.373  24.888  0.0741 -0.1356 -0.1809
49278W        W92269   3.608  24.801   4.144 -0.0305 -0.2026 -0.0670
49279W        W92270   0.810   7.653  20.377 -0.1302 -0.1275 -0.0075
49280W        W92271   5.508  27.100   8.902 -0.1680 -0.2316  0.1456
49281W        W92272  13.912  32.332  27.527 -0.0656  0.0330  0.3566
49282W        W92273   6.520   7.427  21.442  0.0141  0.4169  0.4922
49283W        W92274  31.588  18.320  15.947 -0.3796 -0.0465  0.0648
49284W        W92275  27.996   0.991   3.971 -0.1056  0.0492  0.1250
49285W        W92276  21.235  29.854  22.519  0.2296  0.1223  0.0493
49286W        W92277  26.327   0.108  19.625 -0.2092  0.0471  0.1063
49287W        W92278   1.542   7.584   7.348 -0.3130 -0.1087 -0.0440
49288W        W92279  25.089  11.715  27.764 -0.0545 -0.3199  0.1057
49289W        W92280   4.165   2.720   8.300  0.0565 -0.1374 -0.0599
49290W        W92281  30.196  25.097  13.870 -0.1121 -0.0684 -0.1550
49291W        W92282  28.719  20.463   9.717  0.2819 -0.1345 -0.0135
49292W        W92283  22.058  14.466   3.284  0.1364 -0.1280 -0.3089
49293W        W92284  23.499  12.506  27.752 -0.2234 -0.0049  0.1273
49294W        W92285  22.889  12.330  24.325 -0.1890 -0.1259 -0.0773
49295W        W92286  28.265   1.853   0.531  0.0297  0.0581  0.1163
49296W        W92287   3.086   9.396  11.037 -0.0857 -0.0739  0.2248
49297W        W92288   9.053  24.930  28.336  0.0258 -0.1046 -0.0628
49298W        W92289  28.444  15.483  21.220 -0.1230  0.2028 -0.0537
49299W        W92290   5.480  22.536   9.893  0.1163  0.0917  0.0491
49300W        W92291  34.771  26.604  26.189  0.0691 -0.0320 -0.1275
49301W        W92292  25.679  22.703   5.808  0.1045 -0.0732 -0.4528
49302W        W92293  23.624  12.710   5.787  0.0376 -0.0617  0.1560
49303W        W92294  18.682  27.166   6.468  0.2277  0.0762 -0.4424
49304W        W92295  34.732  23.357   5.455 -0.2247 -0.1285 -0.0833
49305W        W92296   2.096   5.514  20.747 -0.0823  0.3389  0.3177
49306W        W92297  24.227  32.401  15.606  0.0506  0.0109 -0.3021
49307W        W92298   8.390  30.346  26.430 -0.0908  0.3115 -0.1466
49308W        W92299  22.464  28.491  23.892 -0.1856  0.0537  0.0594
49309W        W92300  26.611  14.265   7.056  0.2258 -0.3787 -0.1936
49310W        W92301   1.769  16.390   8.549 -0.1813  0.3224  0.2072
49311W        W92302   3.670   7.474  26.681 -0.2716  0.2051 -0.0980
49312W        W92303  24.925   1.818  22.837 -0.1977  0.2666 -0.2455
49313W        W92304  20.461   2.376  29.122 -0.3263 -0.0179  0.0065
49314W        W92305  33.201   3.962  18.841  0.2153  0.0046 -0.0124
49315W        W92306  24.511   1.852   1.021 -0.2129  0.2991  0.3718
49316W        W92307  22.567  23.783  21.469  0.2321 -0.2781 -0.3050
49317W        W92308   6.862   4.688  24.244  0.2644  0.0832  0.0723
49318W        W92309  23.068  24.092   4.379 -0.2027  0.1787 -0.0430
49319W        W92310   2.126  33.918  24.746  0.0600 -0.2342  0.2226
49320W        W92311  29.636  26.066  23.847  0.0082 -0.0769 -0.2029
49321W        W92312  27.032  24.509  22.415  0.0934  0.2324  0.0326
49322W        W92313  28.032  26.452  23.608  0.1085  0.0628  0.3061
49323W        W92314   3.291  24.831   7.536  0.0145  0.2875  0.0498
49324W        W92315  31.538  10.295   4.678 -0.0691 -0.1755  0.0739
49325W        W92316  33.434  30.592   7.593 -0.1302  0.2495  0.2759
49326W        W92317   1.784  23.871  23.988  0.1811  0.1021 -0.1430
49327W        W92318  28.380  27.478   7.054  0.3736 -0.0199 -0.1152
49328W        W92319  21.888  28.910   2.280  0.0130  0.1224 -0.0136
49329W        W92320  30.084  21.160  28.716  0.1565  0.2215  0.2325
49330W        W92321  24.225   5.253  19.114 -0.4605  0.4199 -0.1422
49331W        W92322  20.025   6.854  23.368 -0.0221  0.0492 -0.0627
49332W        W92323  29.028   4.319  25.971  0.1926  0.0714  0.0642
49333W        W92324   9.734   6.683   9.033  0.1907  0.1658 -0.1935
49334W        W92325  22.152  31.129   9.050 -0.4187 -0.2728  0.1056
49335W        W92326  26.885  20.913   2.621  0.3382  0.1329 -0.0804
49336W        W92327  11.691   1.429   8.774 -0.0682  0.5057 -0.1581
49337W        W92328  16.871  27.457   7.717 -0.0178  0.0382  0.3319
49338W        W92329  18.901   0.989  21.273 -0.1563 -0.0339  0.0432
49339W        W92330  29.015   8.465   4.056  0.0162 -0.0276 -0.1556
49340W        W92331  27.491   4.837   5.265  0.2630  0.1854 -0.0338
49341W        W92332  27.762  31.467  28.896  0.1935  0.0228 -0.0814
49342W        W92333  30.890   1.499  26.695 -0.5527  0.1381  0.0785
49343W        W92334  24.043  17.471   3.231 -0.0266  0.1339  0.2345
49344W        W92335   9.264  26.436  26.394  0.3318 -0.1744  0.2743
49345W        W92336  25.655  33.124   8.455 -0.2818 -0.0714 -0.2603
49346W        W92337   7.577  15.335   0.603 -0.0762  0.1489 -0.0410
49347W        W92338  18.890  27.827   0.252 -0.1269  0.1374 -0.0185
49348W        W92339  23.300   6.973   5.845  0.2454 -0.2999 -0.0219
49349W        W92340   2.656   9.651   7.675  0.0526 -0.3233 -0.6412
49350W        W92341  26.298  29.838  27.433  0.2521  0.1797  0.0712
49351W        W92342  20.951   6.814  22.120 -0.0309  0.0963 -0.0758
49352W        W92343  16.037   0.095   4.905 -0.2863 -0.0229  0.1273
49353W        W92344  31.584  32.279  26.647  0.0705  0.2617 -0.0001
49354W        W92345  27.226  28.991  26.622 -0.1033 -0.0188 -0.1165
49355W        W92346  23.752  21.555   4.913  0.0760  0.2861 -0.2637
49356W        W92347  29.119  32.588  28.476  0.2317  0.0604  0.2451
49357W        W92348  33.406   6.253   7.663 -0.0953  0.2643 -0.0806
49358W        W92349  16.162  27.090  16.872 -0.0102 -0.0098 -0.1957
49359W        W92350  28.382   9.344  25.747  0.3038 -0.0527 -0.1964
49360W        W92351  20.373  30.718  25.591 -0.0885  0.1551  0.1014
49361W        W92352  33.920  28.038  28.690 -0.1293 -0.2030  0.0212
49362W        W92353  23.831  28.537   5.623 -0.0999 -0.0852  0.5224
49363W        W92354   7.754  30.669   1.711  0.1786 -0.2055  0.2003
49364W        W92355  31.574  13.880   7.363  0.0845 -0.1248  0.1821
49365W        W92356   5.511  28.454  28.107  0.0538  0.0695  0.3182
49366W        W92357  30.198   3.784  23.793  0.1081  0.1038 -0.2149
49367W        W92358  23.773  33.868  28.612 -0.2340 -0.0163  0.3426
49368W        W92359   9.361   7.999   3.108  0.1780 -0.2294  0.0252
49369W        W92360  34.445   4.070   3.693  0.0106 -0.3655  0.1851
49370W        W92361  18.986   4.791   6.035  0.1331 -0.0031  0.5082
49371W        W92362   3.175  12.053   1.589  0.0490 -0.1510  0.1549
49372W        W92363  27.732  33.552  26.348  0.0469  0.0565  0.0884
49373W        W92364   6.537  30.822   9.648  0.0081 -0.2243  0.2215
49374W        W92365  31.989  14.241   8.423  0.0415 -0.3220  0.0159
49375W        W92366   5.504   6.690  29.204 -0.1706  0.4533 -0.3632
49376W        W92367  34.204  33.450   6.377  0.0780  0.2008  0.2519
49377W        W92368   1.039   5.912   8.049 -0.2805  0.2331  0.0587
49378W        W92369  32.700   5.849   0.574  0.0234  0.0522  0.1511
49379W        W92370  18.730  27.772   3.691 -0.1388  0.1559 -0.2306
49380W        W92371  31.428   9.460  10.615  0.1096 -0.2720  0.2877
49381W        W92372  19.527  31.567  28.189  0.2110  0.0023 -0.0955
49382W        W92373  27.594  30.043  24.453  0.2113  0.1171  0.1741
49383W        W92374  25.978  19.898   2.306  0.2400 -0.1309 -0.3108
49384W        W92375  31.580  33.831   8.245 -0.0665 -0.1452  0.0747
49385W        W92376   9.002  25.504   1.504  0.0162 -0.0127  0.0756
49386W        W92377  18.728   8.498   3.330  0.1106 -0.1494  0.0971
49387W        W92378  18.902   1.385   6.178  0.0683 -0.2175  0.2020
49388W        W92379  19.123  16.744  26.025  0.4636  0.1612 -0.2912
49389W        W92380  27.163  32.934  18.503  0.0626 -0.0398  0.2402
49390W        W92381   2.636   6.704   9.448  0.0499 -0.4699 -0.0810
49391W        W92382  16.697  32.027  24.851  0.0563  0.2642  0.2584
49392W        W92383  34.545  10.795   7.614 -0.1326 -0.1730  0.4126
49393W        W92384  31.213  12.390  24.464  0.2297 -0.3519 -0.1895
49394W        W92385  15.672  34.469   9.461  0.1964 -0.0772  0.2440
49395W        W92386  17.660   0.218   0.882  0.1404 -0.0677 -0.0442
49396W        W92387  24.942  18.212  17.012  0.1347 -0.0691  0.1789
49397W        W92388   0.730  11.801   9.713 -0.3473  0.5458  0.1661
49398W        W92389  32.021   8.159   6.677 -0.0297 -0.1685 -0.4711
49399W        W92390  14.358  22.685  21.299 -0.1375 -0.3123  0.1553
49400W        W92391   3.814  13.682  10.994 -0.2991 -0.1176 -0.2712
49401W        W92392  26.187   0.881   4.618  0.1145  0.1530  0.1145
49402W        W92393   7.935  14.797  19.553 -0.0100 -0.3201  0.2438
49403W        W92394   2.227  20.606   0.807 -0.3291 -0.0471 -0.0127
49404W        W92395   9.737  17.339   1.848  0.0918 -0.2546 -0.0042
49405W        W92396  28.845  22.348   2.425 -0.0377  0.2244  0.1895
49406W        W92397   3.329  29.668  19.623 -0.2440 -0.0301 -0.0181
49407W        W92398   4.935  12.953   6.863  0.0089  0.0206 -0.4837
49408W        W92399  14.440  33.285  23.905 -0.2142  0.0361  0.1030
49409W        W92400  12.439   2.580   7.302  0.0733 -0.1027 -0.1774
49410W        W92401  34.702  20.394   2.394  0.1815  0.3693 -0.2242
49411W        W92402  32.064  15.093   8.453 -0.1754  0.5423 -0.1544
49412W        W92403  26.240  25.849   0.727  0.0970  0.1734  0.3954
49413W        W92404  29.539   3.282  23.389  0.1458 -0.2689 -0.3032
49414W        W92405   3.561   6.131  27.033 -0.1309 -0.1416 -0.0025
49415W        W92406  19.398  32.670   5.526  0.1564 -0.1569 -0.3438
49416W        W92407   4.430  27.116  16.657  0.1722 -0.0835  0.0379
49417W        W92408  33.630  12.900   6.130  0.1922  0.1709  0.2023
49418W        W92409  19.407  28.185  26.072  0.0887  0.1606  0.2758
49419W        W92410   7.269  28.156  23.197 -0.3693  0.0594 -0.3839
49420W        W92411  33.241  26.301  13.593  0.0309 -0.0934 -0.1020
49421W        W92412  30.951  33.229  25.849  0.0447  0.0527 -0.0249
49422W        W92413  17.819   7.721  14.723 -0.1163  0.1420  0.0666
49423W        W92414  33.945  26.471   7.633  0.0200  0.0806  0.2883
49424W        W92415  31.702   1.402  19.514 -0.1559  0.2373 -0.0828
49425W        W92416  11.117  21.468   3.409  0.1165 -0.0872 -0.2101
49426W        W92417   0.556   0.744   1.063 -0.1542  0.0567  0.0301
49427W        W92418   1.936  25.075   8.323 -0.0806  0.2730  0.0810
49428W        W92419  23.218  20.632   4.818  0.1590  0.4000  0.1439
49429W        W92420  34.334   3.047   1.401  0.1636  0.0840  0.1029
49430W        W92421   5.383   5.448   7.124 -0.2241 -0.0791 -0.1039
49431W        W92422   1.356  31.244  22.971 -0.1685  0.1058  0.1659
49432W        W92423  28.016   1.813  13.619 -0.2460 -0.0545 -0.2843
49433W        W92424  24.950  30.675   2.975  0.1240  0.0085  0.0919
49434W        W92425  25.225   5.454  20.727  0.0004  0.0962 -0.0344
49435W        W92426  33.722  19.675   1.896 -0.0533  0.1379 -0.2155
49436W        W92427  16.301  30.938   9.354 -0.1555 -0.1658  0.0841
49437W        W92428  23.095  31.715   5.510 -0.0974  0.0752 -0.3179
49438W        W92429  10.471  12.423   6.019 -0.0196  0.2814 -0.1142
49439W        W92430   0.750  33.363   7.914  0.0712  0.1093  0.0017
49440W        W92431  24.163  33.913  26.815  0.2082 -0.0679 -0.4697
49441W        W92432  17.309  17.317  15.174  0.2186 -0.2835  0.0335
49442W        W92433  32.810   6.012  16.692  0.2507 -0.0963 -0.3341
49443W        W92434  22.679  29.916   4.230 -0.0985  0.0489  0.0640
49444W        W92435   2.571   4.759   2.611 -0.2404 -0.2480 -0.1816
49445W        W92436  19.294   4.724   7.052  0.0748 -0.1149 -0.4346
49446W        W92437  30.828  29.439   3.996  0.0324 -0.0749  0.0126
49447W        W92438   3.590   7.047   4.943  0.2593  0.2492  0.2438
49448W        W92439  21.786  29.119   3.330  0.0169  0.0369  0.4410
49449W        W92440  31.272   5.656  21.838 -0.0777 -0.0703  0.0380
49450W        W92441  27.102  14.470  22.115 -0.3261 -0.0757 -0.0090
49451W        W92442   5.513   7.220  25.343  0.1289 -0.2624  0.2122
49452W        W92443  10.336   6.297   5.082  0.2729 -0.0189  0.0685
49453W        W92444  32.094   5.145   2.908  0.3397  0.0293 -0.0768
49454W        W92445   4.002  13.174  29.013 -0.2080  0.1034  0.0981
49455W        W92446  22.023  27.458   5.492  0.1318 -0.1487 -0.0625
49456W        W92447  16.531   5.566   6.518  0.0396 -0.2509 -0.0827
49457W        W92448  32.900   2.853  16.879  0.1753  0.1669 -0.2018
49458W        W92449  25.708   5.961   4.553 -0.2840  0.0259 -0.1127
49459W        W92450  13.313   2.330   6.987  0.0052  0.0374 -0.0685
49460W        W92451  12.408  24.535  23.775 -0.0099  0.0126 -0.0324
49461W        W92452  20.789  27.519   6.363  0.1811 -0.0371 -0.3510
49462W        W92453   2.875  30.577   1.742 -0.0212  0.0183 -0.1539
49463W        W92454  34.428  22.712   7.297 -0.0724  0.2229  0.3805
49464W        W92455  19.317  27.387  19.590  0.1887  0.2172  0.2365
49465W        W92456   7.691   5.907  18.037 -0.2372 -0.0488 -0.0503
49466W        W92457   8.573  19.690  26.740  0.1754 -0.3454 -0.1790
49467W        W92458  30.834  23.600  22.745  0.0860  0.0631  0.2727
49468W        W92459  27.694   9.166  25.949 -0.0965  0.1667 -0.1036
49469W        W92460  33.129  30.822   1.333  0.1239  0.2256 -0.2011
49470W        W92461  30.353   5.765  20.848  0.0206 -0.1241 -0.3837
49471W        W92462  26.087  23.411  19.635 -0.3883  0.1819 -0.4322
49472W        W92463  34.302  34.492   3.052  0.1899 -0.0779 -0.1406
49473W        W92464   5.432  31.326   6.627 -0.0573 -0.0217 -0.2340
49474W        W92465  23.907  20.654   3.066  0.0556  0.0221 -0.1047
49475W        W92466   9.546   4.199  26.723 -0.1718  0.3579  0.0909
49476W        W92467   0.804  15.525  16.080  0.2425 -0.1676 -0.1774
49477W        W92468  33.335   6.637  25.344  0.1777  0.0924  0.0926
49478W        W92469  34.784  28.324  26.644  0.1643 -0.5076 -0.0100
49479W        W92470  23.227  21.007  28.656 -0.0560  0.0014  0.1026
49480W        W92471  27.972  11.971  24.484 -0.0115 -0.0025 -0.0201
49481W        W92472  24.752  21.990   1.774 -0.4197  0.1503  0.0700
49482W        W92473  26.336  29.906  26.942  0.0902 -0.2837 -0.2479
49483W        W92474  21.877  24.939  26.188 -0.0131 -0.0498 -0.1460
49484W        W92475  25.545  24.420  28.838 -0.4300 -0.0307  0.0604
49485W        W92476  15.990  34.397   6.938  0.0057  0.0012 -0.1040
49486W        W92477   2.817  22.621  25.445 -0.0742 -0.0346  0.1853
49487W        W92478  24.742  26.288  21.013  0.1197 -0.2760 -0.3011
49488W        W92479   1.075  31.619  28.015  0.0003 -0.2428  0.0575
49489W        W92480  23.799  29.545   8.979  0.1019  0.1648  0.4070
49490W        W92481  30.679   9.743  24.586  0.3638 -0.0841 -0.0687
49491W        W92482  23.721  33.653   0.205  0.1080 -0.0499  0.2378
49492W        W92483  15.708   1.399  21.920 -0.3553 -0.2798  0.0063
49493W        W92484  27.875  30.888  27.569 -0.0688 -0.2567  0.1162
49494W        W92485   4.628  22.120   6.956  0.1004  0.0926 -0.2845
49495W        W92486  32.426  26.865   8.486 -0.1271 -0.3165  0.1790
49496W        W92487  12.573   4.445  11.406 -0.1923 -0.0474  0.0745
49497W        W92488  25.087  16.410   3.234 -0.1170  0.0289 -0.1817
49498W        W92489   0.928  25.673  27.803  0.2046  0.1122  0.3447
49499W        W92490  14.904  26.666  28.829  0.3868  0.3119 -0.0949
49500W        W92491  17.866   6.999  23.310  0.0402 -0.0397  0.2379
49501W        W92492  32.689  27.095  27.074  0.0858  0.2477 -0.2416
49502W        W92493  26.423  26.010  15.167 -0.1552 -0.1752  0.0780
49503W        W92494  22.209   8.543   5.501  0.0956 -0.0983 -0.0519
49504W        W92495  31.119  34.624   4.816  0.1386 -0.0000 -0.2639
49505W        W92496  23.980  10.916   7.848  0.0814 -0.2841  0.1451
49506W        W92497  31.122   1.629   3.350  0.1665 -0.3884 -0.3888
49507W        W92498  30.194  31.789  26.393  0.2844  0.0498 -0.2845
49508W        W92499  25.100   9.457   7.760  0.0430  0.2228 -0.1095
49509W        W92500  20.956  26.238   0.737 -0.1352  0.1048 -0.2905
49510W        W92501  26.458  27.304  23.642 -0.0864 -0.0203 -0.1044
49511W        W92502   2.581   2.227   9.751  0.1785  0.0196 -0.1909
49512W        W92503   8.479  19.792   2.637 -0.1186  0.2128  0.0297
49513W        W92504  17.282   6.185   2.056 -0.0129  0.1772 -0.0373
49514W        W92505  23.657  26.872  22.898 -0.0748  0.2097  0.0724
49515W        W92506  20.991  32.570  20.912 -0.0113  0.0847 -0.3116
49516W        W92507  11.141   2.968   8.696  0.1404 -0.1845  0.3787
49517W        W92508  24.773   9.307  25.525  0.1087  0.1337  0.2638
49518W        W92509  21.797  21.628   1.044  0.0402  0.3740  0.0289
49519W        W92510  23.763  30.796   3.464 -0.1909  0.4515  0.2711
49520W        W92511  15.701  21.119  18.942  0.1819  0.1636 -0.4705
49521W        W92512  32.567   2.362  18.662  0.0490 -0.0339 -0.1059
49522W        W92513  16.435   3.426  26.847  0.1744  0.1426 -0.0548
49523W        W92514  10.611   5.164  20.274 -0.1890  0.1226 -0.1434
49524W        W92515  14.089   5.287  18.020 -0.1161 -0.2247 -0.0921
49525W        W92516   1.934  26.994  27.346 -0.0456 -0.0542 -0.1077
49526W        W92517   8.845   3.029   6.927  0.0245  0.1148 -0.0397
49527W        W92518  19.850  29.519   6.433 -0.1314 -0.0396  0.2138
49528W        W92519  12.145   2.344   3.284 -0.1891 -0.0073  0.0706
49529W        W92520  32.617   8.118   4.262 -0.0448  0.1347  0.1388
49530W        W92521  31.885  19.750  25.324 -0.1805  0.2929 -0.1558
49531W        W92522  10.077  23.475   4.271  0.2137  0.1868  0.1576
49532W        W92523  28.011  26.709  17.190  0.2044 -0.1052  0.3385
49533W        W92524  18.289   9.932   7.774 -0.0823  0.1389  0.1249
49534W        W92525  14.309  18.923   2.933  0.2348  0.0986 -0.0696
49535W        W92526  19.411   3.113  22.100  0.1395  0.2313  0.0007
49536W        W92527  29.320  29.618   5.347 -0.1596  0.0003 -0.1961
49537W        W92528   0.484  13.576  26.342  0.0460 -0.3325 -0.0433
49538W        W92529  24.516  17.152   2.435 -0.1164  0.0127  0.2691
49539W        W92530  17.177  13.788   3.826  0.0862  0.1358 -0.1840
49540W        W92531   9.980  26.834   5.574  0.1615  0.1151 -0.1096
49541W        W92532  32.144   2.887  10.196  0.2986 -0.0367  0.1738
49542W        W92533  13.435  33.013  10.739  0.0867  0.1320  0.1955
49543W        W92534   5.199   6.381  10.815  0.0112 -0.2484 -0.0718
49544W        W92535  25.664  25.911  25.271 -0.0700 -0.1280  0.3086
49545W        W92536  32.653  13.647   5.546  0.1775 -0.0255 -0.1199
49546W        W92537  26.281  34.219   4.152 -0.3155  0.2269  0.0393
49547W        W92538  27.432  14.796  24.731 -0.1777  0.0346  0.0260
49548W        W92539  30.848   0.001   1.512  0.1054  0.0295 -0.2149
49549W        W92540   2.687  21.937   7.251  0.0333 -0.1249 -0.1010
49550W        W92541  10.230  34.161  26.061  0.0761  0.2637 -0.1500
49551W        W92542   1.331  32.199  27.049 -0.1900 -0.0918 -0.0214
49552W        W92543  15.567  26.245   4.525  0.2109  0.1363  0.0036
49553W        W92544   0.285  29.854   7.610  0.1817 -0.3333  0.1288
49554W        W92545  20.459  14.346  20.803 -0.0154 -0.1007  0.0387
49555W        W92546  15.175  24.455  18.995  0.1206  0.0932 -0.0597
49556W        W92547   7.729  10.974   3.470 -0.1239  0.0481  0.0823
49557W        W92548   5.768  28.336  24.563 -0.2708  0.1251 -0.2464
49558W        W92549  29.077  27.173  28.828  0.0968  0.1654  0.3159
49559W        W92550  26.306  16.323  15.989  0.2443  0.0317  0.2492
49560W        W92551  28.992   8.503   7.939 -0.2880  0.5840 -0.1718
49561W        W92552  16.631  24.409   5.416 -0.0323  0.0173 -0.0667
49562W        W92553  31.254  26.710   2.233 -0.2174  0.1508 -0.2100
49563W        W92554  16.749  29.577  18.743 -0.1727  0.2554  0.1033
49564W        W92555  34.221  14.745  27.062 -0.0835  0.2271  0.0922
49565W        W92556  31.958  22.168  23.345  0.0675  0.1616  0.1672
49566W        W92557  29.683  33.106   2.100 -0.0374  0.2446 -0.2109
49567W        W92558  30.312   7.919  23.034 -0.0060 -0.0159 -0.0741
49568W        W92559  31.659  23.762   8.523  0.1820 -0.0719  0.1279
49569W        W92560  32.883  23.342   2.587 -0.2692 -0.3294  0.2580
49570W        W92561  33.831  32.824   2.262  0.0539 -0.2312 -0.1204
49571W        W92562   5.198  13.812   5.725 -0.0577  0.6314 -0.1619
49572W        W92563  28.427  27.447   4.382  0.0859  0.1077 -0.1084
49573W        W92564   4.076  29.590   7.953  0.0526  0.0840 -0.0126
49574W        W92565  33.383  31.895  27.332 -0.1497 -0.0176  0.2338
49575W        W92566  21.129  19.435  21.324 -0.0518  0.3557  0.0086
49576W        W92567  10.568  27.444   7.700  0.0192 -0.3567 -0.0167
49577W        W92568   8.767   4.948  23.358  0.3405 -0.0950 -0.1371
49578W        W92569  28.442  25.333   6.188  0.0138  0.0365  0.4030
49579W        W92570   3.679  31.501   0.693  0.0011 -0.2380 -0.0084
49580W        W92571   5.048   6.847   9.265 -0.0367  0.1838 -0.2631
49581W        W92572  26.606   2.894  27.529  0.3656 -0.1609  0.0604
49582W        W92573  11.347  25.217  20.560  0.1907  0.0785  0.0005
49583W        W92574  33.032   0.487   5.070 -0.1737  0.0375  0.1971
49584W        W92575   1.973  28.043  23.790 -0.2274 -0.1143 -0.0189
49585W        W92576  33.786  24.170   0.175  0.0575  0.1400  0.1143
49586W        W92577  34.580   9.691  23.361 -0.3264  0.3680 -0.0532
49587W        W92578  29.435  24.060   9.027  0.2205  0.0161  0.3384
49588W        W92579   1.519  14.494  10.679  0.0115 -0.0386 -0.1793
49589W        W92580  23.971   1.234   9.160 -0.0798 -0.2874  0.0292
49590W        W92581   2.397  14.509  24.084 -0.1337  0.0377 -0.0106
49591W        W92582   3.265   1.982  20.243 -0.1161 -0.4245 -0.0244
49592W        W92583  32.459   0.534   3.665  0.1308 -0.3276 -0.3391
49593W        W92584  13.767  10.722  27.676  0.1160 -0.0794  0.1869
49594W        W92585  32.475   8.877   6.192  0.0452 -0.1102 -0.3770
49595W        W92586  27.065   7.779   8.776  0.1958  0.1697  0.5549
49596W        W92587  12.262  27.299  28.036  0.1010 -0.0831  0.0738
49597W        W92588  13.527  21.910   3.307  0.0072 -0.2492  0.0624
49598W        W92589  21.605  21.275   1.325  0.0242 -0.0612 -0.0998
49599W        W92590  28.076  22.527  19.524 -0.1843  0.0951  0.0398
49600W        W92591   5.237  24.839   4.235 -0.1758 -0.1199 -0.2766
49601W        W92592   4.613  15.607   5.515  0.2845 -0.0467 -0.3477
49602W        W92593   3.253  28.495   6.076  0.1120 -0.2033 -0.1398
49603W        W92594  10.771  25.531   1.963  0.0533  0.2753  0.0388
49604W        W92595  31.916   4.800  22.484 -0.0955 -0.0660  0.3009
49605W        W92596   5.122  33.891   4.976 -0.1572  0.2204 -0.1272
49606W        W92597  20.867  27.051   2.747  0.1778 -0.0754 -0.2583
49607W        W92598   0.263   7.854  21.634  0.0637 -0.1782  0.1592
49608W        W92599  26.086  20.476  27.476  0.0214 -0.0015 -0.1039
49609W        W92600  29.863  33.657   8.222  0.0380 -0.0604 -0.0312
49610W        W92601  18.836  19.033   6.807  0.3168  0.1073 -0.0047
49611W        W92602  30.680  25.856  25.560  0.0137  0.0189 -0.1520
49612W        W92603   1.339  29.870   7.222 -0.0692 -0.0415  0.3787
49613W        W92604   0.924  32.319  25.968  0.0170  0.3747 -0.3718
49614W        W92605  34.097  22.835  22.054  0.1435  0.1711  0.1217
49615W        W92606   4.875  22.746   4.792 -0.2556  0.0586 -0.0578
49616W        W92607   2.393  20.289  22.247 -0.1595 -0.0059  0.1511
49617W        W92608   0.054   0.873  25.003  0.1719 -0.2037 -0.1242
49618W        W92609  14.906   7.812   7.679 -0.1350  0.0608 -0.1887
49619W        W92610  33.380   1.314   6.414  0.2300  0.0233 -0.0976
49620W        W92611  16.119  28.117   1.208 -0.0577 -0.1430  0.0662
49621W        W92612  14.949  20.254   5.816 -0.1647 -0.0902  0.0927
49622W        W92613  34.287   4.723   8.005  0.0340  0.0059 -0.0256
49623W        W92614  20.648  22.074  25.919 -0.0413  0.0071  0.2168
49624W        W92615   1.875   6.609  25.854 -0.4928  0.0570 -0.2138
49625W        W92616   2.278  12.762  28.850 -0.2035  0.0525  0.2395
49626W        W92617  21.814  17.206   8.933 -0.0135 -0.2263 -0.0748
49627W        W92618  29.551  24.584   5.400  0.1372 -0.2213 -0.0006
49628W        W92619  30.134  18.134   3.544 -0.1699 -0.1084 -0.0712
49629W        W92620   3.799   2.708   0.615 -0.0513 -0.0626  0.2960
49630W        W92621   7.456  28.564   7.507 -0.0905  0.0279 -0.0358
49631W        W92622  27.117  32.061   3.758  0.2259  0.2539 -0.1880
49632W        W92623  33.971  28.938   6.448  0.0986 -0.1643 -0.2529
49633W        W92624  29.086   5.094   6.672 -0.3504  0.0596  0.1412
49634W        W92625   1.521  33.028   2.381  0.1727  0.1868  0.0486
49635W        W92626   1.008  15.012   0.406 -0.1702  0.3381  0.3321
49636W        W92627   9.320  27.814  24.823 -0.1212  0.1905  0.4387
49637W        W92628  30.425  31.139   4.681  0.1593 -0.0287  0.2314
49638W        W92629   0.417  34.002   9.373  0.2162  0.0898 -0.0037
49639W        W92630  15.639  26.089   3.523  0.2467  0.0418  0.2588
49640W        W92631   6.541   4.672  22.477  0.1352  0.1136  0.2558
49641W        W92632  33.871  29.572   1.206  0.5555 -0.3006  0.1584
49642W        W92633   9.546  28.146  26.992  0.0071  0.2084  0.2647
49643W        W92634  19.842  24.668   4.360 -0.1469 -0.1291  0.1228
49644W        W92635   7.733  15.494  28.983 -0.0078 -0.1174  0.1092
49645W        W92636  27.051  33.567   6.750  0.1018 -0.2432  0.1851
49646W        W92637  31.878   0.124   5.840  0.1836  0.2180  0.1262
49647W        W92638  14.395  26.810  15.742 -0.1635  0.1967  0.0832
49648W        W92639  23.331  23.660  28.096 -0.0468  0.1954  0.1207
49649W        W92640   3.097  15.472   4.282  0.0296 -0.0174  0.2028
49650W        W92641  14.595  21.182  28.515 -0.0459 -0.5446 -0.0322
49651W        W92642  26.379  31.080   6.683 -0.0549  0.0456  0.0872
49652W        W92643  32.184  29.055  27.455  0.1542  0.1615 -0.0029
49653W        W92644  14.940  12.210  25.791 -0.2265  0.2232  0.1309
49654W        W92645   1.465  33.710   7.488  0.0846  0.1452 -0.0881
49655W        W92646  33.869  27.207   7.370 -0.0111  0.1038  0.0870
49656W        W92647  11.440  31.552   1.112  0.1464 -0.1237  0.0059
49657W        W92648  23.661  34.466  27.223 -0.0031 -0.4246 -0.0773
49658W        W92649   6.802  17.234   4.600 -0.1524 -0.1291 -0.2213
49659W        W92650  32.416  23.608   3.371  0.1166  0.1792 -0.0874
49660W        W92651  22.885  14.706  19.937 -0.1027  0.1333 -0.3025
49661W        W92652   0.720  29.839  24.540 -0.1421  0.2832  0.0144
49662W        W92653   4.576   0.723   6.482 -0.2316  0.2046  0.0777
49663W        W92654   1.487  17.526  26.694  0.0926 -0.1846  0.2257
49664W        W92655  30.153   6.174   1.368  0.0744 -0.3488 -0.0776
49665W        W92656  32.114  25.761   4.751  0.3999 -0.0275 -0.5510
49666W        W92657   2.077   4.504  19.771 -0.0962  0.3268 -0.3960
49667W        W92658  30.410   4.498  27.121 -0.0070 -0.0721  0.1999
49668W        W92659  24.086  28.703   7.099 -0.1160 -0.0228 -0.0943
49669W        W92660  12.103   9.331   4.890 -0.0731  0.0809 -0.1897
49670W        W92661  24.715  20.832   3.149  0.0331  0.0512 -0.1434
49671W        W92662  22.302  17.569   6.861 -0.0572 -0.1248  0.1188
49672W        W92663  29.325   9.781   3.298 -0.1796 -0.3236  0.1057
49673W        W92664  28.938  31.652   6.708 -0.0019  0.1475  0.0735
49674W        W92665  29.681  15.628   3.998 -0.0553  0.3208  0.0078
49675W        W92666  19.373  34.208   3.866 -0.2453  0.2397 -0.1334
49676W        W92667   9.184   5.501  20.693 -0.0054 -0.0256 -0.0930
49677W        W92668  30.596  33.361  25.053 -0.1594  0.2817  0.0734
49678W        W92669  27.581  18.727  27.433 -0.3787  0.5138 -0.2205
49679W        W92670  25.669  26.141  24.464 -0.2680  0.4351 -0.0558
49680W        W92671  27.788  19.031   8.655  0.0630 -0.3123 -0.2401
49681W        W92672   7.507  33.418  28.601  0.0011  0.0962  0.1924
49682W        W92673  33.065  26.601   6.415  0.2872  0.0712  0.2155
49683W        W92674   0.560   2.567  16.472 -0.1059 -0.0084  0.0621
49684W        W92675   3.487  20.825  25.638 -0.1521 -0.0885  0.0640
49685W        W92676  31.340  19.580   6.809 -0.2950 -0.2183  0.0725
49686W        W92677  25.488  26.465   8.380 -0.1342  0.1375 -0.0464
49687W        W92678  33.624   7.820   1.294  0.0695  0.0636 -0.4886
49688W        W92679  26.949   5.955   4.463  0.0255  0.1458 -0.3652
49689W        W92680   5.640  22.940   4.243 -0.1710  0.0982  0.0537
49690W        W92681  28.450   6.157   7.088 -0.0207 -0.2827 -0.2112
49691W        W92682   3.103  27.533   9.520 -0.2001  0.0031  0.0039
49692W        W92683   1.083   4.635  27.486  0.2749  0.0966  0.0031
49693W        W92684   5.950  18.567  11.508  0.0646  0.0100 -0.1881
49694W        W92685   2.110  21.791   8.978  0.2444  0.0445 -0.1157
49695W        W92686   4.461  28.775   9.350  0.0220 -0.0143  0.4396
49696W        W92687  31.490  23.385   3.151 -0.1398 -0.1990  0.2437
49697W        W92688  10.646  21.475   5.466  0.3419 -0.0014 -0.2806
49698W        W92689   5.109   1.926   6.603 -0.1602 -0.0929 -0.1448
49699W        W92690  28.353   4.361  28.519 -0.3603 -0.0019 -0.0158
49700W        W92691  26.513  22.822   7.905 -0.0662 -0.3310  0.1095
49701W        W92692  32.423   1.221   7.375  0.1564 -0.0359 -0.2158
49702W        W92693  30.322   2.933  21.476  0.1572  0.1478 -0.0225
49703W        W92694  33.745   6.718   4.783 -0.0854 -0.2306 -0.1250
49704W        W92695   9.059  34.560  10.088  0.0707 -0.1450 -0.2561
49705W        W92696  23.671  31.342   8.173 -0.1050 -0.0685 -0.2491
49706W        W92697  23.317  10.769  26.997  0.0176 -0.0598  0.1498
49707W        W92698  25.180   9.553   5.651 -0.2617 -0.1004  0.2889
49708W        W92699  29.821   4.187  27.606 -0.1547  0.1318  0.2021
49709W        W92700  32.297   1.438   4.202  0.0814 -0.2627 -0.0333
49710W        W92701  10.157  15.842   4.358 -0.2093 -0.2124  0.0568
49711W        W92702   5.399  11.594   2.490 -0.0832 -0.1549  0.0895
49712W        W92703  26.016  21.788   6.912  0.1544 -0.1856 -0.3657
49713W        W92704  31.148   1.174  18.934 -0.0756  0.0145 -0.1468
49714W        W92705  13.831  26.530  29.246 -0.1102  0.1778 -0.2380
49715W        W92706  34.710  13.732   4.371 -0.4376 -0.0109 -0.1063
49716W        W92707   3.222  23.026   8.741  0.0677 -0.0663  0.1907
49717W        W92708  15.657  24.586  27.275  0.2648  0.1487  0.0027
49718W        W92709   0.047  25.447  22.222  0.1381 -0.0033 -0.2775
49719W        W92710  28.544  32.125   5.173 -0.2976  0.0583 -0.2706
49720W        W92711  34.756  31.002   9.203  0.0261 -0.2107 -0.2360
49721W        W92712   3.064   2.433   4.419 -0.1169 -0.0859 -0.1240
49722W        W92713  24.816   2.630   7.258  0.1161 -0.2806  0.0116
49723W        W92714  27.307  30.463   6.305  0.0310 -0.1387  0.2207
49724W        W92715   1.258  31.002   1.920 -0.1089 -0.0346 -0.0823
49725W        W92716  13.432  11.568  28.707 -0.1927 -0.0911 -0.2107
49726W        W92717   4.733  32.156   6.431  0.0421  0.1507  0.0146
49727W        W92718  28.754  16.487   8.309  0.1476  0.2965  0.0137
49728W        W92719   7.330  19.154  25.964  0.0563  0.2940  0.2493
49729W        W92720   6.358  31.418   6.669  0.0089 -0.1976 -0.1712
49730W        W92721   8.993   6.570   4.546  0.1487 -0.4323  0.2091
49731W        W92722  16.233   1.370   8.701 -0.2395  0.0384  0.1247
49732W        W92723  12.608  34.611   8.795  0.0377 -0.0989 -0.1907
49733W        W92724   3.505  14.418   9.956 -0.2526 -0.0755 -0.4754
49734W        W92725   1.340  18.742  28.155  0.4520  0.3375  0.0115
49735W        W92726  25.830  22.748  29.211  0.1838 -0.1808  0.1313
49736W        W92727  31.324  32.281   1.482  0.1908  0.0284 -0.0189
49737W        W92728  24.754   5.967   1.511  0.0268  0.0920 -0.0591
49738W        W92729  34.278  28.475  27.064 -0.2468  0.2219 -0.1779
49739W        W92730  24.161  19.431   3.185  0.1525 -0.0495 -0.0896
49740W        W92731   4.694  31.431   3.116 -0.2010  0.1435  0.1963
49741W        W92732  25.050  21.754   5.710  0.2877 -0.1381  0.1053
49742W        W92733  19.640  21.887   5.712  0.1282 -0.2768  0.0566
49743W        W92734  22.184  10.959   8.122  0.5575  0.1824 -0.1095
49744W        W92735   4.693  33.477  26.018 -0.1668 -0.2101  0.1341
49745W        W92736  29.683  25.605  24.406 -0.1764  0.0410 -0.2313
49746W        W92737   0.312  31.107   2.027  0.0102 -0.0563 -0.0579
49747W        W92738   7.974   8.023   1.550 -0.1265 -0.2093 -0.1900
49748W        W92739  32.192   1.008   9.612  0.2797  0.2127 -0.2921
49749W        W92740  28.009  18.248   0.731 -0.4204 -0.1066  0.1684
49750W        W92741   6.502   9.986  15.585  0.0445  0.1444  0.0831
49751W        W92742  23.388   8.003  25.299  0.1584  0.2855 -0.0734
49752W        W92743  32.270   4.485  27.747 -0.1750  0.1392 -0.1659
49753W        W92744   4.140  24.784   4.231 -0.3808  0.2148  0.0468
49754W        W92745  16.997  17.576  26.021  0.0280 -0.0949  0.0426
49755W        W92746  29.977  25.411   7.383 -0.0929 -0.1238  0.1661
49756W        W92747  26.917  23.728   9.788 -0.1365 -0.0172 -0.0038
49757W        W92748  33.111   8.439   8.495  0.1361  0.3407 -0.1115
49758W        W92749   2.660   4.838   1.305  0.1087 -0.1991  0.3592
49759W        W92750  24.168  30.230  26.811  0.2558  0.0212 -0.2905
49760W        W92751  26.279  33.107   1.280  0.2566 -0.3974 -0.1067
49761W        W92752  28.653  17.287   7.786  0.2826  0.1096  0.2617
49762W        W92753  12.786  18.749  17.345  0.1056 -0.4374 -0.2426
49763W        W92754  15.485  19.589  25.343 -0.3388  0.0480  0.0313
49764W        W92755   2.605   4.741   9.777 -0.0200  0.1292 -0.1138
49765W        W92756  17.065  20.435   8.934 -0.2466  0.1098 -0.3568
49766W        W92757  26.553   0.888  24.372 -0.0547 -0.1770 -0.1003
49767W        W92758  29.354  32.227  15.601 -0.0169 -0.2925  0.1570
49768W        W92759  25.309  23.738  23.309 -0.0622  0.1429  0.0096
49769W        W92760  33.926  22.490  15.521 -0.1394 -0.2325  0.0966
49770W        W92761  25.756  24.562   4.350 -0.2984  0.0417  0.0163
49771W        W92762  23.903   0.978   8.751 -0.0996  0.0291 -0.0829
49772W        W92763   7.936   6.790  28.340 -0.1758  0.2606 -0.0905
49773W        W92764   1.712  32.857   3.000 -0.1954 -0.0727 -0.1938
49774W        W92765   0.796  16.349  10.738 -0.2799 -0.1653  0.1833
49775W        W92766  25.295  32.750   8.145 -0.0326 -0.1759  0.1735
49776W        W92767  28.622  31.742   5.725 -0.0081  0.0103 -0.5380
49777W        W92768  31.027   3.139  19.265 -0.0236  0.0957  0.1175
49778W        W92769   6.564   7.498  26.597  0.0003  0.4105 -0.0978
49779W        W92770  32.066   4.708   4.748 -0.1447  0.1280  0.1405
49780W        W92771  32.546   7.232   9.954  0.1668 -0.2590 -0.0272
49781W        W92772  32.522   0.569   2.552 -0.3563 -0.0962 -0.0462
49782W        W92773  25.115   4.212   5.743  0.3616 -0.0914 -0.0848
49783W        W92774  33.553  20.610  23.727 -0.0350 -0.2840  0.0790
49784W        W92775  30.226  26.215  26.214 -0.2263  0.0093  0.2492
49785W        W92776  10.384   5.415   3.243 -0.0651  0.0519  0.0262
49786W        W92777   6.754  27.288   8.659  0.1869 -0.2252 -0.1345
49787W        W92778   1.262   3.758   6.109  0.0520  0.2767 -0.2130
49788W        W92779  27.994  33.737  27.234 -0.2774  0.1345 -0.1241
49789W        W92780   9.919  31.529  28.448 -0.0846 -0.0541 -0.2128
49790W        W92781   3.484  29.514   6.940 -0.0271 -0.2526  0.0706
49791W        W92782  18.593  20.364  25.951 -0.2623  0.4499  0.0965
49792W        W92783  29.149   3.759   0.585 -0.0729  0.1965 -0.1097
49793W        W92784  26.619  32.138  27.116 -0.0823  0.0900 -0.1631
49794W        W92785  29.985  24.938   1.357  0.1127  0.3177  0.0618
49795W        W92786  25.558   7.152   2.173 -0.0722  0.1524 -0.7047
49796W        W92787   3.531  21.355   0.407  0.1517 -0.3952  0.1208
49797W        W92788  29.719   4.340  25.280 -0.0463 -0.1513 -0.0397
49798W        W92789  29.905  21.815   4.913 -0.0048 -0.0040  0.2459
49799W        W92790  22.812  30.437   1.045  0.0627 -0.0008 -0.4020
49800W        W92791   7.879  27.157  20.739 -0.3179 -0.0627  0.1513
49801W        W92792   3.640  11.254   4.167 -0.0258 -0.0366 -0.1763
49802W        W92793  22.799  29.743   7.082 -0.0826  0.1082 -0.2866
49803W        W92794   0.129  25.230   8.860 -0.4673  0.3129 -0.1961
49804W        W92795  25.117  27.572  19.678 -0.0200  0.1550 -0.4104
49805W        W92796  14.879  27.119   5.354 -0.0699  0.0781  0.0710
49806W        W92797   4.463   6.589  24.719  0.3484 -0.2412 -0.2310
49807W        W92798   6.849  26.239   3.773  0.1962  0.1215 -0.0438
49808W        W92799  23.814  32.705  15.809  0.0472 -0.1440  0.2816
49809W        W92800   2.020   3.128   4.489 -0.0985 -0.1720  0.0131
49810W        W92801  16.348   6.269  24.282  0.0296 -0.1010 -0.0120
49811W        W92802   1.363   5.001  26.594  0.1760 -0.1022  0.2434
49812W        W92803   8.750  22.119   4.403  0.0255 -0.0679  0.0290
49813W        W92804  15.938   7.211   6.322  0.3804  0.1319  0.1613
49814W        W92805  23.524   4.338   3.898  0.0066  0.2662 -0.0989
49815W        W92806   2.306  33.897   9.652  0.2333  0.1016 -0.1599
49816W        W92807  22.908   6.162   2.444  0.1474  0.1998 -0.2971
49817W        W92808   1.417  11.250   0.952 -0.0845  0.3372  0.0153
49818W        W92809   3.897  34.361   4.702 -0.0392  0.0942 -0.3534
49819W        W92810  18.612  21.284   4.027  0.2346 -0.1630  0.0930
49820W        W92811   1.070  27.857  27.623 -0.0286 -0.0775 -0.2877
49821W        W92812  28.906  16.961   4.592  0.1413  0.2176  0.0714
49822W        W92813  30.400   0.450   7.391 -0.0817 -0.0726  0.0883
49823W        W92814  32.827  17.320   7.178 -0.4199  0.1167 -0.1002
49824W        W92815   5.472  13.173   3.423  0.0355  0.2564 -0.0633
49825W        W92816  25.831  18.552   5.911  0.2781 -0.1128  0.0475
49826W        W92817  31.938  21.535   6.474  0.2150 -0.0430 -0.1148
49827W        W92818  11.676  23.256  24.782  0.1275 -0.0198 -0.0556
49828W        W92819   6.716  29.467  23.733 -0.2010  0.1272  0.3274
49829W        W92820   1.466   6.687  10.662 -0.0545 -0.1525 -0.0024
49830W        W92821   0.932   1.462   1.155 -0.2263  0.0435  0.1821
49831W        W92822  18.988  30.305   4.406  0.1260  0.1964  0.0201
49832W        W92823   4.317  32.432   0.612  0.0199  0.1324  0.0847
49833W        W92824  27.081  30.910  13.675  0.0742  0.0662 -0.0762
49834W        W92825  26.569  16.171  25.993 -0.1034 -0.1819 -0.1455
49835W        W92826  30.838  25.541   5.982  0.2836  0.1009 -0.0186
49836W        W92827  19.030  10.137  15.736 -0.0580  0.0970 -0.3752
49837W        W92828  19.748  28.805  25.362  0.2121  0.3220  0.0823
49838W        W92829  31.834  21.527   1.223 -0.0208  0.3696 -0.2153
49839W        W92830   7.984  33.446   6.794 -0.2299  0.1951  0.0191
49840W        W92831   2.107   3.154   6.342  0.1961 -0.2727 -0.1443
49841W        W92832  34.672  26.215  22.861  0.1719 -0.0876 -0.1309
49842W        W92833  33.093  33.339   7.621  0.2014 -0.0423  0.0251
49843W        W92834  30.550  26.560   4.405  0.1949 -0.3272 -0.0183
49844W        W92835  34.119  31.681   2.769  0.1452  0.2788 -0.3614
49845W        W92836  11.518   9.912  27.509  0.3554  0.0112 -0.1452
49846W        W92837  32.579   7.187   4.766 -0.0882  0.1016 -0.1150
49847W        W92838  21.439  14.718  28.727  0.1160 -0.2516  0.3697
49848W        W92839   4.998   0.899   9.666  0.3255 -0.0687  0.2914
49849W        W92840   1.880  19.201   8.806 -0.0383 -0.1289  0.1292
49850W        W92841  23.592   3.918  27.294  0.1221 -0.2183 -0.5467
49851W        W92842  10.256  32.370  24.496  0.1957 -0.1337 -0.3060
49852W        W92843  19.384   4.985  25.231  0.3324  0.0246 -0.1622
49853W        W92844  26.026   6.367  29.120  0.1516  0.2177  0.2867
49854W        W92845   0.597  32.825  26.881  0.1790  0.1034 -0.1200
49855W        W92846  15.242  19.310   0.900  0.2087  0.1669  0.0737
49856W        W92847  23.323  32.580   0.890 -0.4138  0.0959  0.1649
49857W        W92848  14.472   1.558   9.293  0.3732 -0.0040 -0.1609
49858W        W92849  29.130  33.403   0.878  0.1474  0.1316  0.2520
49859W        W92850  31.053  33.192   2.644  0.1061  0.1234  0.2477
49860W        W92851  17.725  24.988   0.271 -0.0715  0.0847 -0.2409
49861W        W92852   6.468   0.566   4.918  0.2160  0.0520 -0.1200
49862W        W92853  23.116   3.528  21.177 -0.1912 -0.1206  0.1776
49863W        W92854  27.958  22.853   0.738  0.1372  0.2189  0.2459
49864W        W92855   7.303  18.566  23.470 -0.1495 -0.3202  0.1741
49865W        W92856  29.620  28.192   8.236  0.1870  0.0254  0.2293
49866W        W92857  25.274  25.039   4.479 -0.0389  0.1813  0.0869
49867W        W92858   7.143   7.078  24.998 -0.1866  0.1471  0.0368
49868W        W92859   2.195  11.761   5.933  0.3132  0.1522  0.3916
49869W        W92860  27.144  10.002   6.093  0.0774  0.0480  0.0622
49870W        W92861  31.260  24.287   8.029  0.3240  0.3689  0.2172
49871W        W92862   3.057   4.903  27.906 -0.1727 -0.3420  0.0949
49872W        W92863  29.279  34.614   3.317  0.1913 -0.3858 -0.1419
49873W        W92864   2.665  26.894   6.353  0.1875  0.0988  0.1222
49874W        W92865  33.905  24.480  10.326 -0.0070 -0.4169 -0.2255
49875W        W92866   4.367   7.500   0.162  0.1635  0.1128  0.1975
49876W        W92867   3.240  33.361   8.606 -0.2985  0.1003 -0.1056
49877W        W92868   3.563  23.910  24.331 -0.1171 -0.1588 -0.0375
49878W        W92869  15.054  27.467  20.028  0.0489 -0.0317  0.1074
49879W        W92870   9.639   5.323   9.195 -0.1478  0.0384 -0.2123
49880W        W92871  27.602   7.078  27.219  0.1309  0.2661 -0.0553
49881W        W92872  15.724  15.887   3.340  0.0041  0.0596  0.1174
49882W        W92873  31.064  11.186   2.419 -0.0788  0.2322  0.1375
49883W        W92874   0.745   2.901  17.707  0.1121 -0.2514 -0.2582
49884W        W92875  32.714  26.660  28.027 -0.1625 -0.0183 -0.1710
49885W        W92876   5.420  26.329  29.116 -0.4047  0.0956 -0.1929
49886W        W92877   2.296  21.028  23.185  0.0085 -0.3262  0.1141
49887W        W92878  28.392  10.552   9.191  0.1135  0.0346 -0.1583
49888W        W92879  31.389   5.815   0.619  0.1194  0.4789  0.0691
49889W        W92880   0.398  15.441  10.606  0.1469 -0.0869  0.0765
49890W        W92881  34.407  33.880   8.123  0.0012 -0.0904  0.1211
49891W        W92882  28.268  32.047  22.401 -0.0648  0.1389 -0.1705
49892W        W92883  21.011  16.037   7.049  0.4064 -0.1347 -0.2333
49893W        W92884   8.559   7.039   5.525  0.1412 -0.0977  0.1209
49894W        W92885   7.500  17.696  10.792  0.2896  0.1184  0.1198
49895W        W92886   1.399  11.792   9.695  0.1526 -0.3665 -0.3479
49896W        W92887  25.663  26.021   6.546  0.0407 -0.2442 -0.0082
49897W        W92888  26.610  30.614  15.949  0.0478 -0.2161 -0.1724
49898W        W92889  34.335  32.169   6.691 -0.0876  0.0666  0.1348
49899W        W92890  26.111  15.587  21.165  0.0612  0.2591  0.0954
49900W        W92891   5.409  33.481   4.979 -0.0396 -0.1099 -0.0920
49901W        W92892  29.703   5.047  26.894  0.0356  0.0685  0.1342
49902W        W92893  29.802   8.920   9.236 -0.3497  0.0690 -0.1788
49903W        W92894  29.731   1.163  27.201  0.1453 -0.1841 -0.1150
49904W        W92895  16.616  25.939  28.943  0.2061 -0.2003  0.0053
49905W        W92896  15.865  30.899  22.044  0.1357  0.0940  0.3218
49906W        W92897   8.867  30.064   1.778  0.2844 -0.0948 -0.3876
49907W        W92898  31.396  13.660  24.848 -0.3169  0.0553  0.2171
49908W        W92899  27.074  10.060   5.023 -0.1264 -0.1720 -0.0623
49909W        W92900   9.646  33.051   1.698 -0.1982 -0.3972 -0.1300
49910W        W92901  32.014  31.547  29.036 -0.2007  0.0708 -0.1738
49911W        W92902  31.008  19.486  20.975  0.0811 -0.0739 -0.2190
49912W        W92903   3.560   4.767  10.041  0.0303  0.0168  0.4137
49913W        W92904   7.478   8.526  28.635  0.0304 -0.1510 -0.1619
49914W        W92905  28.394   9.933   9.151 -0.0224 -0.2816 -0.0901
49915W        W92906  25.453   3.649   2.455  0.0489  0.2244  0.2803
49916W        W92907  31.255   0.145  28.048 -0.0037 -0.0771 -0.2556
49917W        W92908  34.434  32.700  25.746  0.4124 -0.2461 -0.2634
49918W        W92909  24.243   3.878   8.015 -0.2300 -0.2855 -0.1595
49919W        W92910   1.680  28.950   7.062 -0.2933  0.1724  0.1491
49920W        W92911   2.857  26.648   5.824 -0.3210 -0.1278 -0.0242
49921W        W92912   6.896   7.707   3.960  0.0747  0.0208 -0.0821
49922W        W92913   4.170  33.058   2.885 -0.1578 -0.1769  0.0261
49923W        W92914   1.352  15.120   4.414 -0.3571  0.0462 -0.0598
49924W        W92915   5.754  34.223   7.937 -0.0858  0.0524 -0.0606
49925W        W92916   1.709  15.794  21.684  0.2059 -0.2457 -0.0432
49926W        W92917  12.921  29.746  25.802 -0.1344 -0.0468 -0.2021
49927W        W92918  16.871   6.575   7.278 -0.3768  0.0735 -0.0707
49928W        W92919  23.665   8.491   9.221  0.1504 -0.3693  0.1934
49929W        W92920  11.842  30.152  22.370 -0.1128 -0.0096  0.2685
49930W        W92921  34.225  29.518   2.823 -0.0254 -0.1370 -0.0226
49931W        W92922  15.191  32.178  22.372  0.0843 -0.0590 -0.0517
49932W        W92923  21.916  21.370   2.723  0.0417  0.1237  0.0261
49933W        W92924  23.169  31.930   8.829  0.1774  0.1073 -0.0247
49934W        W92925  29.427  12.402   5.628  0.1157  0.1563 -0.0429
49935W        W92926  10.218  26.596  24.609  0.1966 -0.1181  0.1017
49936W        W92927  23.617  28.665   1.788 -0.2784  0.0425 -0.2493
49937W        W92928  26.482   5.684   5.238 -0.2610  0.2316  0.4175
49938W        W92929  31.332   4.158   1.307 -0.2403 -0.3119  0.0766
49939W        W92930  27.218   2.321  13.833  0.2546  0.0188  0.2685
49940W        W92931  20.717  19.568  28.446 -0.1770 -0.0525  0.2778
49941W        W92932  33.697   3.608   4.597  0.1031 -0.1785 -0.1271
49942W        W92933  27.434   4.767   7.041  0.0768  0.0132 -0.1728
49943W        W92934  19.780  27.593   9.293  0.1714  0.2568  0.0199
49944W        W92935  33.092  22.654  26.628  0.1548  0.0429 -0.1122
49945W        W92936  25.195   1.566   4.247  0.0460 -0.0020  0.1300
49946W        W92937  32.156   6.496   8.753  0.0990  0.0904 -0.3435
49947W        W92938   0.490  10.004   7.847 -0.0102 -0.3002 -0.0689
49948W        W92939   4.166  33.696   4.023 -0.3829  0.0334 -0.0062
49949W        W92940  26.512  11.788  26.889  0.1786  0.2257 -0.3224
49950W        W92941  16.789  31.089   5.759  0.1536  0.1181 -0.1916
49951W        W92942   8.939  18.113  27.758 -0.0835  0.2154 -0.1846
49952W        W92943   7.201  30.047   2.097  0.3635  0.0130 -0.3564
49953W        W92944  18.342  12.740   6.621 -0.2381  0.1099  0.5220
49954W        W92945  27.100   7.069   5.969  0.0827 -0.2952  0.1877
49955W        W92946   8.418  27.876   9.233  0.0436  0.5100 -0.4123
49956W        W92947  34.536   5.251  28.917  0.1622 -0.2334  0.2422
49957W        W92948   5.461   7.872   8.200  0.1807 -0.0736  0.0539
49958W        W92949  24.414  30.683  21.337 -0.2589  0.1370 -0.0541
49959W        W92950  28.334   1.133  26.054 -0.3179 -0.3508  0.1095
49960W        W92951  24.160  27.101  23.485 -0.4118  0.0310  0.2222
49961W        W92952  24.244  31.023  25.998  0.0517 -0.1717  0.3495
49962W        W92953  27.144  25.708  26.007  0.0222 -0.0506  0.0968
49963W        W92954   2.514  32.844   8.141 -0.0234  0.1999 -0.4691
49964W        W92955   7.723  23.658   7.018  0.2528  0.4393  0.0635
49965W        W92956  30.939  30.120  22.555 -0.2351 -0.3951  0.0389
49966W        W92957   5.740   0.898  21.246  0.2810  0.0262 -0.1097
49967W        W92958  34.680  19.135  25.073 -0.2311  0.1069  0.0851
49968W        W92959  19.483  31.420   9.024 -0.0837  0.0158  0.0889
49969W        W92960  31.719  33.586   5.373 -0.0516 -0.3582  0.0156
49970W        W92961   1.891  33.762   2.037 -0.2794 -0.0546 -0.1239
49971W        W92962   0.600  27.580   8.728 -0.3462  0.1711  0.2064
49972W        W92963  20.130   5.371   2.359  0.0632 -0.1150 -0.0164
49973W        W92964  33.523   5.313   8.648  0.0371 -0.1347 -0.3523
49974W        W92965  29.871  24.473   2.032  0.3639  0.3942  0.1175
49975W        W92966  29.445  29.152   6.388  0.0169 -0.0098 -0.5796
49976W        W92967  21.010   0.774  21.076 -0.1087  0.3643 -0.3404
49977W        W92968  31.178  23.520   8.754  0.0707 -0.0859 -0.1446
49978W        W92969  12.657  20.544  22.192 -0.0849  0.2259 -0.0179
49979W        W92970  20.515  33.305   4.100 -0.0619 -0.2660  0.0719
49980W        W92971  29.604  23.837   8.506 -0.1535  0.1705 -0.0656
49981W        W92972   0.919  26.938   4.099  0.0868  0.4631 -0.0722
49982W        W92973  27.583   2.365   2.348 -0.2918  0.1435 -0.1724
49983W        W92974  23.519  17.549  22.482  0.0845 -0.4028  0.0233
49984W        W92975   8.080  13.397   4.526  0.0286 -0.2279  0.0442
49985W        W92976  29.257  24.136   9.463 -0.2385 -0.1187  0.1163
49986W        W92977  29.717  13.310   3.903  0.2492  0.1770  0.1067
49987W        W92978  10.773  17.754  21.318 -0.0403  0.2260 -0.0371
49988W        W92979  34.660  30.185   9.489  0.0784  0.1462  0.1166
49989W        W92980  25.571  34.703  28.843  0.0203  0.2942  0.1954
49990W        W92981  25.184  27.287   2.021  0.2125  0.4336 -0.0927
49991W        W92982  32.152  26.809   2.211 -0.0741 -0.2729  0.0350
49992W        W92983  15.903   0.903  25.854  0.1279  0.2885 -0.2351
49993W        W92984   3.968  33.620   9.292  0.0986 -0.1688 -0.0963
49994W        W92985   5.885   4.467   4.055 -0.0320 -0.2968 -0.4897
49995W        W92986  13.127   3.568   4.399  0.0798 -0.1812 -0.1501
49996W        W92987   3.784  27.647   7.377 -0.2496 -0.0569  0.1110
49997W        W92988  12.680  29.168  20.168 -0.2481 -0.0474 -0.0629
49998W        W92989  18.432  20.756  27.215  0.0306 -0.3310 -0.2494
49999W        W92990  31.428   1.566   3.831  0.1294  0.3456 -0.3193
50000W        W92991  30.408  27.234   2.647 -0.1081  0.2955 -0.1955
50001W        W92992  27.637  11.232   3.197 -0.0407 -0.1126  0.1635
50002W        W92993  16.895  26.262   6.008  0.0488 -0.2035  0.1756
50003W        W92994  20.421  31.032  27.739  0.0718  0.2131 -0.0923
50004W        W92995  18.310  16.162   2.794  0.0056  0.2237 -0.2436
50005W        W92996  33.946   0.156   7.857 -0.1321  0.2531 -0.0425
50006W        W92997  14.432  29.626   7.515  0.1437 -0.1163 -0.2915
50007W        W92998  27.384  24.494   4.539 -0.0461  0.1569  0.0469
50008W        W92999  17.253   4.485   0.624 -0.1675 -0.1389 -0.2921
50009W        W93000  28.889   9.816   8.163  0.3778 -0.1202  0.0269
50010W        W93001  26.605   7.637   8.161  0.0737  0.0096  0.1701
50011W        W93002  12.737  23.295   8.037 -0.0944 -0.3356  0.1918
50012W        W93003  30.555  22.393   4.492  0.0231  0.1348  0.0365
50013W        W93004  29.549   2.470   5.399  0.2989 -0.0441  0.0672
50014W        W93005   9.341  12.433  25.657  0.1093 -0.3813  0.0482
50015W        W93006  12.211  31.878  29.157  0.1065  0.0162  0.4024
50016W        W93007  19.736  16.618   4.279  0.2648  0.2150 -0.1677
50017W        W93008  30.114  11.618   7.340  0.3601  0.1651 -0.0551
50018W        W93009   2.149  21.398  27.323  0.3221  0.0402  0.2002
50019W        W93010  25.658  22.746  24.770  0.4501  0.2070 -0.0515
50020W        W93011  17.935  34.663   4.004  0.0923  0.0615  0.0637
50021W        W93012   2.654  33.150   0.757 -0.0170  0.3626  0.0431
50022W        W93013   5.988  24.744   2.088  0.0506 -0.2845 -0.0800
50023W        W93014  15.561  34.142  24.480  0.2173  0.2641 -0.3366
50024W        W93015   3.502   7.312   2.908 -0.6669  0.0665  0.1544
50025W        W93016  10.791   8.104  10.582  0.0129 -0.2927  0.0748
50026W        W93017   0.802  27.105   7.063 -0.1818 -0.1025  0.0250
50027W        W93018  27.652  19.466  25.044 -0.0056 -0.0677 -0.0422
50028W        W93019  18.959   7.234  25.045  0.0592  0.0628  0.0592
50029W        W93020  13.760  20.045  28.632 -0.2821 -0.0485 -0.2729
50030W        W93021  30.382   1.798  29.241 -0.0327 -0.4621  0.2621
50031W        W93022   3.226  29.920   4.298 -0.1277  0.0321  0.0334
50032W        W93023  22.834  22.385  26.451  0.0920  0.1115 -0.0602
50033W        W93024  34.176  11.240  25.140  0.1119 -0.1146 -0.1976
50034W        W93025   6.133   1.202   8.276  0.1042  0.1708  0.1309
50035W        W93026  25.344  31.228  28.502 -0.1042  0.3039  0.2758
50036W        W93027   7.233  19.609   7.428 -0.0274  0.2144  0.1801
50037W        W93028  15.089  26.082   7.107 -0.0026  0.0252 -0.1563
50038W        W93029   0.261  27.675   6.422 -0.2935 -0.1105  0.0526
50039W        W93030  23.225   6.127  26.725  0.3127  0.1393  0.0138
50040W        W93031   3.930   0.625  28.392 -0.4328  0.0809  0.1102
50041W        W93032  15.446  28.395   0.519 -0.1073 -0.1176 -0.2315
50042W        W93033  34.602   2.230  14.940 -0.1186  0.0354 -0.2155
50043W        W93034  33.321   1.028   0.150 -0.1489  0.0556 -0.0894
50044W        W93035   0.243   2.653   6.468 -0.0692 -0.1210 -0.5270
50045W        W93036  28.961  23.339   5.962  0.2284  0.2759  0.3716
50046W        W93037   4.706   4.723  25.270  0.1043 -0.1328 -0.1146
50047W        W93038  31.337  30.289  22.332 -0.2048 -0.0521  0.0702
50048W        W93039  14.678  32.679  21.250 -0.0400  0.2103 -0.0408
50049W        W93040  27.784   1.519   6.713  0.0602  0.2465  0.4364
50050W        W93041  25.189  25.403   6.044 -0.2733 -0.1380 -0.2916
50051W        W93042  31.998  23.806  10.395 -0.0274  0.0362 -0.2188
50052W        W93043  32.765  23.006  28.600  0.0843  0.1048  0.2196
50053W        W93044  24.344  23.895   4.182 -0.0515  0.3207 -0.1734
50054W        W93045  10.314  30.364   6.568  0.1671  0.4583  0.0524
50055W        W93046  30.594  34.443   6.220  0.1266 -0.3263  0.0582
50056W        W93047  32.350  31.021   8.437 -0.2838  0.0529 -0.3255
50057W        W93048  28.340  31.883  26.481 -0.3817 -0.1356  0.0754
50058W        W93049  11.044  33.558  24.384  0.0218  0.0864 -0.0211
50059W        W93050  32.123  30.678  29.230 -0.2050  0.1907 -0.0576
50060W        W93051   9.286  28.771   1.183 -0.0558  0.4975  0.1628
50061W        W93052   5.739  25.243  19.722 -0.0673 -0.1644 -0.1273
50062W        W93053  15.510  28.100   8.866  0.2082 -0.0456 -0.0878
50063W        W93054  12.865  22.703  28.740  0.0184  0.2916  0.3648
50064W        W93055  31.414   1.040  25.768  0.0219 -0.1240 -0.0070
50065W        W93056  25.559   8.506   9.232 -0.2004  0.2171  0.1510
50066W        W93057  28.417  17.673   0.569  0.0524  0.0100  0.0118
50067W        W93058  24.725  31.673   7.262  0.1646  0.2580  0.2346
50068W        W93059  34.431  22.791   3.425 -0.1088  0.0981 -0.1132
50069W        W93060  23.301  29.123  27.776 -0.2218 -0.1902 -0.1087
50070W        W93061  10.526  25.610  26.027 -0.1440 -0.1765  0.3667
50071W        W93062  25.799  11.185   4.728 -0.1126 -0.3384 -0.0588
50072W        W93063  30.410  28.399   5.611 -0.0561 -0.3123  0.2121
50073W        W93064  13.299  10.079  20.900  0.1477 -0.0060 -0.0605
50074W        W93065   5.525   3.700   8.564  0.2349 -0.2397  0.0006
50075W        W93066   4.947   4.823  10.494  0.0661 -0.1216  0.2439
50076W        W93067   4.377   5.098  18.100 -0.1631 -0.0453  0.2470
50077W        W93068  11.511  10.590  19.435 -0.2183 -0.2522 -0.0520
50078W        W93069  29.762  12.007  23.637  0.0892 -0.0231 -0.1240
50079W        W93070  33.118  10.881  10.370 -0.0409  0.2515 -0.0146
50080W        W93071   8.990   3.346  19.165  0.1119  0.0173  0.1564
50081W        W93072  33.456  11.762   1.702 -0.1876 -0.2618  0.2916
50082W        W93073   2.844   6.361   1.793  0.0041  0.0995  0.1479
50083W        W93074  21.908  31.955  27.629 -0.2898  0.1556  0.0536
50084W        W93075  33.336  27.179   3.527 -0.2895 -0.1120 -0.3220
50085W        W93076  31.783   2.071   4.672  0.0004  0.1714 -0.0051
50086W        W93077  21.940   3.911   8.276 -0.3189 -0.0596 -0.0164
50087W        W93078  28.342  14.109  28.799  0.0512  0.1354 -0.1209
50088W        W93079   0.045  24.002  23.527  0.2206  0.0322  0.0702
50089W        W93080   2.904  10.266   2.611 -0.0314 -0.0113  0.0518
50090W        W93081  28.585  30.842   8.299  0.0779 -0.1027  0.2003
50091W        W93082  24.212  30.615  29.206  0.0525  0.2202  0.1062
50092W        W93083  33.423  23.969  25.959  0.1139 -0.0624  0.0821
50093W        W93084  30.537   2.700  23.536  0.0395  0.1767  0.1793
50094W        W93085  21.323  23.765  18.545  0.1047  0.2433 -0.1854
50095W        W93086   5.875   2.152   8.239 -0.3372  0.0569  0.0695
50096W        W93087  16.530   1.640   6.242 -0.0730  0.2673 -0.1276
50097W        W93088  11.112  30.874  10.921 -0.0269  0.2447 -0.0705
50098W        W93089   1.200   7.411  28.668  0.0486 -0.0503 -0.0686
50099W        W93090  34.484  22.509  19.439 -0.0969 -0.1362  0.0401
50100W        W93091  10.538  27.374   9.276  0.0098  0.2310 -0.1255
50101W        W93092   2.367   3.868  21.941 -0.1186 -0.0223 -0.2512
50102W        W93093  18.956   3.473   6.088  0.2673  0.1930 -0.1598
50103W        W93094   3.420  10.719   3.218  0.0371  0.2193 -0.0878
50104W        W93095   8.257   0.691  26.369 -0.0276  0.1081  0.3101
50105W        W93096  29.258   4.618  24.102 -0.1371  0.0065  0.0160
50106W        W93097   6.207  31.101   4.721  0.0987  0.1677 -0.1013
50107W        W93098   5.052  33.462   3.748 -0.1385  0.0205  0.2661
50108W        W93099  17.183  28.139   8.692 -0.0531  0.0084  0.0145
50109W        W93100  27.313   8.878  26.256  0.0224  0.0547 -0.1614
50110W        W93101  12.766  34.302   4.950 -0.1955 -0.1176  0.1838
50111W        W93102  31.572  22.155   7.560 -0.0209  0.1900 -0.0826
50112W        W93103  13.769  12.851   5.271  0.0878 -0.0058 -0.1365
50113W        W93104   0.524  25.654   8.078  0.0072  0.2601  0.1838
50114W        W93105   3.665  32.304  24.396  0.2332  0.0424 -0.1405
50115W        W93106  33.096   9.469   1.612 -0.1586 -0.0449  0.2809
50116W        W93107   9.678  33.283   8.474  0.0663 -0.2225 -0.0217
50117W        W93108  34.633  28.660   9.229 -0.3361 -0.1063 -0.0391
50118W        W93109  25.701  16.721  25.244  0.1795  0.2433 -0.0759
50119W        W93110  33.105  10.633   1.032  0.1507 -0.1665 -0.2932
50120W        W93111   7.429   1.133  11.517 -0.1422 -0.2518  0.0165
50121W        W93112  24.364   0.855   3.415  0.0733 -0.0134  0.1840
50122W        W93113   8.348   9.933   0.920 -0.0654  0.1752 -0.0537
50123W        W93114  11.209  15.476   7.750  0.0377  0.1904 -0.2898
50124W        W93115   8.524   2.652   3.057 -0.2138 -0.2857  0.0470
50125W        W93116  27.721  28.941  23.593 -0.0631  0.1993 -0.0849
50126W        W93117  14.668  25.670   9.315 -0.1228  0.2442 -0.0375
50127W        W93118  15.678  22.000  25.457 -0.1398  0.2569  0.0956
50128W        W93119   5.739   7.781  24.242 -0.0722  0.0789 -0.1115
50129W        W93120  27.806  11.177  26.802  0.1332 -0.0165 -0.0710
50130W        W93121  28.265  19.532   0.749  0.0110  0.1702  0.1293
50131W        W93122   0.964  29.083   5.595 -0.0937 -0.0470  0.2467
50132W        W93123  21.311   2.142   7.207 -0.1002 -0.2670  0.1571
50133W        W93124  29.422  21.605   3.503  0.0536  0.0470 -0.2465
50134W        W93125  12.094  30.413  27.910  0.0574 -0.0099  0.1298
50135W        W93126   5.405  29.266   1.349  0.0822  0.1499 -0.2621
50136W        W93127   2.842  20.015  22.175  0.1626 -0.2047  0.3745
50137W        W93128  23.522  30.373   8.102 -0.2241  0.2243  0.0460
50138W        W93129  12.399  17.613   8.099 -0.1647 -0.1654 -0.3265
50139W        W93130  23.951   1.110   3.741  0.0356  0.3805  0.1861
50140W        W93131   1.618  34.781  22.172  0.3991 -0.0741  0.0996
50141W        W93132  27.774  20.966   2.350 -0.2607  0.2188  0.2949
50142W        W93133  26.636  21.813   0.241 -0.0523  0.1525 -0.1483
50143W        W93134  33.428  33.924   9.153  0.0761 -0.0180 -0.1706
50144W        W93135  21.040  12.090   1.104 -0.1237  0.1667  0.1157
50145W        W93136   8.054   0.745   0.645 -0.1043 -0.1995 -0.0472
50146W        W93137   1.041  21.320   9.230 -0.4679 -0.0510  0.0370
50147W        W93138  28.999  26.321   1.201  0.0934  0.1119 -0.0091
50148W        W93139   0.954  34.437  28.784  0.0081  0.2363  0.2385
50149W        W93140  22.430  21.282   1.381 -0.3605 -0.0558 -0.1787
50150W        W93141  32.942  32.755  21.020  0.0740  0.3074 -0.2351
50151W        W93142  33.070  32.280   3.329  0.1258  0.1854 -0.0015
50152W        W93143  30.899  23.317  21.407  0.0899 -0.0243 -0.0454
50153W        W93144  29.155  28.404  27.209  0.1138  0.2154  0.2013
50154W        W93145  30.909  23.579   9.191  0.0227  0.1924 -0.0302
50155W        W93146   6.324  34.081   6.295  0.1262  0.2602 -0.1745
50156W        W93147   6.079   5.106   9.554 -0.1574  0.2249  0.1868
50157W        W93148  12.681  26.811   1.652  0.2574 -0.2741 -0.1445
50158W        W93149  26.430  24.343  27.262  0.0957 -0.0565  0.4824
50159W        W93150   9.712  31.553   8.373 -0.1009 -0.0883  0.2124
50160W        W93151   1.783  28.706  25.043 -0.1341 -0.0320  0.0172
50161W        W93152  31.755  30.416  20.670  0.0077  0.0220 -0.2597
50162W        W93153  30.827  17.708   6.842 -0.1443  0.0034 -0.0388
50163W        W93154  33.002  13.475  10.058 -0.1674 -0.0369  0.1581
50164W        W93155   0.565   9.296   9.882  0.1455  0.1135 -0.0425
50165W        W93156  34.030  30.964  17.193 -0.0779  0.0727  0.1149
50166W        W93157   3.458  29.045  29.118 -0.0299 -0.0143 -0.2305
50167W        W93158   0.533   0.273   4.997 -0.0253 -0.1325  0.0425
50168W        W93159  26.783  24.470   9.184 -0.1178  0.1049  0.0616
50169W        W93160  33.538   2.427   6.389 -0.0157 -0.0901 -0.2344
50170W        W93161   1.920   0.906   3.308 -0.2216  0.1812  0.0257
50171W        W93162  25.700  28.069  29.147 -0.0994  0.1247 -0.1073
50172W        W93163  22.898  34.395   3.479  0.2129  0.2655 -0.0636
50173W        W93164   2.937  31.044   8.628  0.0207  0.2230  0.2835
50174W        W93165   8.515   0.921   5.629 -0.0517  0.2298  0.0476
50175W        W93166   0.213  27.629  27.956  0.1878 -0.2224 -0.3375
50176W        W93167  20.929  30.631  28.949 -0.0182  0.2210  0.0644
50177W        W93168  33.592  10.396   0.855 -0.0543  0.4003 -0.0855
50178W        W93169  21.078   6.249  29.085 -0.1889  0.2232 -0.2499
50179W        W93170  29.327  18.013   4.890 -0.2088  0.0626 -0.1365
50180W        W93171   3.904  31.032  24.971  0.0990  0.4676 -0.2332
50181W        W93172  31.107   0.134   6.998 -0.0504  0.0822 -0.1092
50182W        W93173   0.396  33.393  27.583 -0.2368  0.1704  0.0323
50183W        W93174   6.950  27.513   9.742  0.1160 -0.1162 -0.0751
50184W        W93175  34.013  29.084   1.719 -0.0709 -0.1354 -0.0318
50185W        W93176  25.102  34.352  26.112  0.1406  0.0180 -0.0394
50186W        W93177  23.447  25.128   9.280  0.0421 -0.1218 -0.1539
50187W        W93178  32.430  27.151  23.327  0.1660 -0.1173  0.1077
50188W        W93179  13.764   3.346   9.008 -0.0454 -0.1047  0.2284
50189W        W93180  34.754   0.231   9.485  0.1165 -0.3217  0.2922
50190W        W93181  24.261  25.574   9.216 -0.3954  0.1267 -0.1342
50191W        W93182  32.105  29.593   4.521 -0.0958 -0.0149  0.2578
50192W        W93183  29.301   0.095   6.269 -0.0254 -0.0158  0.0673
50193W        W93184  28.884  28.926   3.577  0.1268  0.1312 -0.0255
50194W        W93185  21.896   6.166   4.956 -0.0650  0.0290  0.0268
50195W        W93186  30.320  11.424   1.516  0.0947  0.0270 -0.1475
50196W        W93187  23.085  31.517  27.190 -0.1801 -0.2813  0.3667
50197W        W93188   1.684  22.910  28.574  0.1240 -0.0698 -0.1458
50198W        W93189   6.108  34.742  10.438  0.1734  0.2613  0.0160
50199W        W93190  31.797  28.919   2.796 -0.1548 -0.0505 -0.1953
50200W        W93191  10.059  30.521   5.362 -0.2985 -0.2593 -0.2155
50201W        W93192  30.138  10.387   4.674  0.1665 -0.0506  0.1824
50202W        W93193  24.233  20.285   2.949 -0.3869  0.2616  0.1357
50203W        W93194  30.520  32.181  22.164  0.2528 -0.3617 -0.0003
50204W        W93195   6.450  29.260   8.491  0.4008 -0.0523  0.0203
50205W        W93196   3.581  14.388   2.939  0.3565  0.0605  0.2085
50206W        W93197   5.605  32.817  24.471  0.0421  0.1411  0.3456
50207W        W93198   7.395  28.434   2.777  0.1199 -0.0875  0.2639
50208W        W93199  32.820  34.542   7.974  0.0037  0.1839 -0.0933
50209W        W93200   6.756  14.800  11.512 -0.0377 -0.1125  0.0571
50210W        W93201   3.927  27.270  26.665 -0.3861  0.1467 -0.2523
50211W        W93202  33.512  30.111  23.434 -0.0663 -0.3061 -0.0814
50212W        W93203  29.891  21.471   3.658 -0.1904  0.1629  0.0499
50213W        W93204  27.857   1.412   8.946 -0.0801 -0.0824 -0.1008
50214W        W93205  23.258   0.083  27.875 -0.2016 -0.2427  0.0165
50215W        W93206  17.885   9.974   5.233  0.1451 -0.1302  0.1070
50216W        W93207  20.675  27.674   1.869  0.0535 -0.0425 -0.3713
50217W        W93208  28.229   2.525   4.643  0.1034 -0.0284  0.1105
50218W        W93209  33.539  28.481  28.514  0.1743  0.0360 -0.1947
50219W        W93210  29.743  16.245  10.699 -0.0938  0.0177  0.1381
50220W        W93211  29.490  30.848   4.950 -0.1579 -0.2539  0.1336
50221W        W93212  11.666   6.270   6.010  0.0205  0.3013  0.3218
50222W        W93213   9.565  31.329   9.248  0.1453 -0.2254  0.0756
50223W        W93214  29.146  32.030  26.230 -0.1056 -0.3425 -0.0246
50224W        W93215   3.199   9.495   5.880 -0.0696 -0.1230  0.2292
50225W        W93216  17.260  10.372  25.649  0.0647 -0.0477  0.1522
50226W        W93217  25.895   1.917  15.440 -0.3875  0.2254 -0.1431
50227W        W93218   0.938  28.234   6.668 -0.4905  0.2172 -0.0485
50228W        W93219  33.834  25.961   8.968  0.2117 -0.0109  0.1586
50229W        W93220   4.559  33.819   3.272 -0.1297  0.0168 -0.1526
50230W        W93221  27.204   3.776   8.538 -0.1157 -0.1458 -0.0358
50231W        W93222   5.292  16.105   0.682  0.0420 -0.0960 -0.2722
50232W        W93223  30.748  23.965   8.697 -0.1434  0.0908  0.1649
50233W        W93224  25.050   2.281  17.010 -0.0468 -0.1882  0.1471
50234W        W93225  10.134  33.362   8.819 -0.1231  0.2955  0.1048
50235W        W93226  17.965  33.789   9.037  0.0186 -0.0367  0.2557
50236W        W93227   0.058   4.959   6.484 -0.0214 -0.1374 -0.2639
50237W        W93228  24.257  14.136   0.726  0.1213  0.0975 -0.1454
50238W        W93229  23.425  21.699   2.221  0.2915 -0.0061  0.2370
50239W        W93230   2.938  13.701   2.162 -0.2618  0.0322 -0.1264
50240W        W93231  30.761   3.378  25.965 -0.2211 -0.0492 -0.0844
50241W        W93232  26.818  10.931  28.879  0.1476 -0.1907  0.1882
50242W        W93233   2.030  32.796   8.928  0.0823 -0.0480 -0.0470
50243W        W93234  26.421  21.179  18.864  0.0391  0.0982  0.1519
50244W        W93235  33.920  23.488   8.133  0.0405  0.3876 -0.2536
50245W        W93236  14.722  34.159  28.524  0.0765  0.3093  0.1314
50246W        W93237   3.075   1.263   7.326 -0.2715 -0.1266  0.3356
50247W        W93238  27.283  33.370   0.719  0.3503  0.4128 -0.2816
50248W        W93239  33.090   4.959  22.413  0.2012 -0.1619 -0.0280
50249W        W93240   5.023  29.683   9.447 -0.1576  0.1054 -0.2275
50250W        W93241  13.810  13.951  28.039  0.1230 -0.2465 -0.0225
50251W        W93242  24.541   4.507  16.554 -0.1520 -0.2824 -0.1406
50252W        W93243   1.274  27.201   7.044 -0.2056  0.1409 -0.0662
50253W        W93244  31.225  28.584   8.174  0.1952  0.1079  0.1049
50254W        W93245  19.965  24.399   3.430  0.2151 -0.1761 -0.0958
50255W        W93246  21.818  23.156  19.570  0.0053 -0.3214 -0.2877
50256W        W93247  30.080   3.854  26.247  0.1653 -0.2674  0.1645
50257W        W93248  27.836  28.833   3.806  0.1662  0.1446  0.3428
50258W        W93249  22.100  31.528  27.832 -0.0736 -0.2142  0.1429
50259W        W93250  32.241  32.246   0.596  0.0189  0.0225 -0.4629
50260W        W93251  23.132  25.352   6.121 -0.0972  0.1888 -0.2266
50261W        W93252  16.968   6.412   4.125 -0.1107  0.0786  0.1829
50262W        W93253  28.322  31.549   6.101  0.3311  0.1236  0.0932
50263W        W93254   4.145   0.492   1.581 -0.0817  0.0527  0.1139
50264W        W93255   6.692  30.183   7.965  0.1627 -0.1164 -0.1109
50265W        W93256  34.711   9.891   7.881 -0.0595 -0.0644 -0.0291
50266W        W93257   0.100  34.315   8.992 -0.0460 -0.3512  0.0747
50267W        W93258  10.824  32.735  29.006 -0.1430  0.1669  0.2211
50268W        W93259  23.190   1.174   2.693 -0.5928  0.0863 -0.1860
50269W        W93260  29.331  13.261   7.664 -0.0130 -0.3386  0.0298
50270W        W93261  21.501  20.161   3.302  0.2407  0.1068  0.2085
50271W        W93262  30.489   8.661  29.254 -0.0517 -0.2755  0.1205
50272W        W93263  18.471  30.948  25.793  0.1011 -0.0886  0.2687
50273W        W93264  27.397  12.295   5.954  0.0355 -0.1084  0.2593
50274W        W93265   6.606  26.028   8.253  0.0205 -0.1923 -0.1292
50275W        W93266  32.737  12.954   2.523 -0.4052 -0.2271 -0.2659
50276W        W93267   0.758  31.886   5.958 -0.0734  0.0904  0.0446
50277W        W93268  15.104  21.987  18.252  0.0667 -0.0309 -0.0966
50278W        W93269   0.781  29.244   2.709 -0.1551 -0.0953 -0.2316
50279W        W93270  11.009  16.671   6.259 -0.1073 -0.0659 -0.2630
50280W        W93271  28.037   5.294  18.956 -0.0020  0.1463 -0.0750
50281W        W93272  32.632  29.772   4.643  0.1197  0.1246  0.1286
50282W        W93273  24.420  13.838   2.792  0.1435  0.1026  0.0456
50283W        W93274  28.321   5.879  16.332 -0.3448 -0.0033 -0.1108
50284W        W93275  34.445   1.627  28.122 -0.2678  0.2401  0.1744
50285W        W93276  17.207  16.902   7.562 -0.1238 -0.0587 -0.3621
50286W        W93277  23.564   2.920   2.928  0.1196 -0.1424  0.0221
50287W        W93278  22.654  23.984   0.584  0.2085  0.0454  0.2720
50288W        W93279  15.357  12.436   3.132  0.1486 -0.0332 -0.6245
50289W        W93280  24.353  18.992   0.677  0.0649  0.2186 -0.0543
50290W        W93281  24.944   2.189  26.191  0.2092  0.1342  0.0600
50291W        W93282  25.964  33.590   6.658 -0.1122  0.1667  0.0250
50292W        W93283   4.050  28.160   5.603 -0.0082  0.0149  0.1145
50293W        W93284  32.208  30.684   1.695  0.3019  0.1052  0.0608
50294W        W93285  19.660  14.006  21.339  0.0758 -0.0141  0.0039
50295W        W93286  28.065   0.481  22.683  0.1550  0.0673  0.1531
50296W        W93287  32.621  29.985   2.051 -0.3810  0.1518 -0.1145
50297W        W93288   7.478   4.364   7.399  0.1328  0.0156 -0.1368
50298W        W93289  31.921  27.006  28.340  0.0065  0.0139 -0.1351
50299W        W93290  25.836  11.281   7.777 -0.0608  0.0406 -0.3245
50300W        W93291  29.426  10.084  23.611  0.1105  0.1483 -0.1218
50301W        W93292   3.132  30.681   4.729  0.0142  0.0873 -0.4285
50302W        W93293  23.758   9.237   2.045  0.0943  0.1311 -0.1693
50303W        W93294  19.958   7.761  15.057  0.1704 -0.2107 -0.0887
50304W        W93295  29.783   2.125  27.900  0.2422  0.2269 -0.0467
50305W        W93296   6.931   0.438  19.011 -0.0051  0.1599 -0.2014
50306W        W93297  29.217  34.455   0.680 -0.1767  0.1589  0.2060
50307W        W93298   1.050  16.748   5.344  0.0466  0.0262 -0.0841
50308W        W93299   4.216   4.252   1.086  0.1000  0.0919 -0.1370
50309W        W93300   3.897  30.366   5.228  0.3637  0.1122  0.0196
50310W        W93301  33.404  32.609  25.037  0.0454 -0.0369 -0.0603
50311W        W93302  28.696  13.074  25.442 -0.0044 -0.0863 -0.0871
50312W        W93303   0.060   5.674   3.285 -0.1914  0.0803 -0.1660
50313W        W93304   2.940  34.318  14.682  0.1585  0.0162  0.0809
50314W        W93305  10.899   4.811  22.238  0.0698 -0.1215 -0.1313
50315W        W93306  22.737  32.117  27.101  0.2054 -0.2975  0.1191
50316W        W93307   0.498   2.869   4.549  0.3332  0.0648  0.0811
50317W        W93308  18.200   3.483   1.325  0.1967 -0.2037  0.2240
50318W        W93309  22.183  30.208  28.770  0.0659  0.1521  0.0168
50319W        W93310   1.190   7.478  26.876  0.2442 -0.1615 -0.1091
50320W        W93311   0.502  16.228  11.304 -0.1817  0.3098 -0.2074
50321W        W93312  29.946  29.948   2.196  0.0992  0.0546 -0.0406
50322W        W93313  32.522  31.013  22.046 -0.0849 -0.0004  0.0392
50323W        W93314  34.086   2.854  27.668 -0.0444  0.2107 -0.0715
50324W        W93315   2.414   7.132  17.064 -0.0755  0.4420  0.0528
50325W        W93316   0.461   2.672   5.296  0.1451  0.0244  0.1280
50326W        W93317  14.045  14.093  24.475  0.0117 -0.5202 -0.0208
50327W        W93318  19.968  34.647  23.849  0.0226 -0.1899  0.0729
50328W        W93319   1.032  26.596   1.988  0.0427 -0.0564 -0.1101
50329W        W93320  12.470  28.611   2.251  0.0241 -0.0604 -0.2314
50330W        W93321  28.986  33.465   5.413 -0.1198 -0.2142  0.0892
50331W        W93322  34.350   0.482   8.027 -0.0422 -0.2715  0.0182
50332W        W93323  13.032  16.869   6.985  0.1322 -0.0399 -0.0450
50333W        W93324  33.365  33.353  19.313 -0.0496 -0.2385  0.1154
50334W        W93325  27.942  33.478  28.713 -0.1129 -0.4095 -0.0454
50335W        W93326  24.513   7.742  24.884  0.0860 -0.1368 -0.1582
50336W        W93327   0.728   9.506  26.591 -0.3269  0.0079 -0.0494
50337W        W93328  28.769   2.780  25.502 -0.3350 -0.1404 -0.1885
50338W        W93329  29.633  17.454  14.361 -0.0889  0.1958  0.1605
50339W        W93330  18.951   5.085   3.086  0.2385 -0.0037 -0.5268
50340W        W93331  26.374   0.295  28.226  0.1213  0.0527 -0.2041
50341W        W93332  23.385  19.314  13.221  0.4225  0.0365  0.0127
50342W        W93333  12.591  21.909   6.935  0.1173 -0.3004 -0.0486
50343W        W93334  26.166   3.294   9.810  0.2823 -0.0347 -0.0920
50344W        W93335  21.355  26.365  29.183  0.2204  0.0169  0.3357
50345W        W93336  20.094  29.278   2.682 -0.0427 -0.2475  0.2714
50346W        W93337  24.840  11.505  21.681 -0.2073 -0.0935 -0.0045
50347W        W93338   4.442   3.674   7.277  0.2262 -0.4462  0.1388
50348W        W93339  32.148  25.231  21.469  0.1301 -0.5317 -0.0394
50349W        W93340  26.685  23.031  28.573  0.0579 -0.0828 -0.0101
50350W        W93341   6.003  21.360  24.403  0.3218  0.0748 -0.0638
50351W        W93342   8.564  27.711  10.426  0.1578  0.1159  0.0889
50352W        W93343  30.566  26.065  14.956 -0.2822  0.1758 -0.4175
50353W        W93344  25.410   3.004  15.863 -0.1716 -0.1800 -0.0742
50354W        W93345   7.798   4.751  10.431  0.1495  0.0651  0.1474
50355W        W93346  14.613   0.154  21.482  0.0702 -0.3646 -0.0263
50356W        W93347  34.353  12.480  21.379 -0.3161 -0.0131  0.1373
50357W        W93348  25.291  34.719   2.621 -0.2342  0.0233 -0.0301
50358W        W93349  14.106  27.127   0.707  0.0292  0.0653 -0.0514
50359W        W93350  26.077  16.734   1.582 -0.3977 -0.1490 -0.5019
50360W        W93351  21.055   0.227   3.802 -0.1301  0.0398  0.0041
50361W        W93352  28.110  14.406   5.039 -0.0725  0.1597 -0.0421
50362W        W93353  28.814  29.041   4.142 -0.2009 -0.2713  0.0967
50363W        W93354  32.560   8.477   8.318 -0.0605  0.1709  0.2584
50364W        W93355  26.577  16.605  27.129 -0.0574 -0.1541 -0.0462
50365W        W93356  20.710  31.641  20.125 -0.0922  0.2871  0.0505
50366W        W93357  17.933  13.090  27.584 -0.1531 -0.1362  0.3111
50367W        W93358  16.663  20.119  24.002  0.1591 -0.1533  0.0960
50368W        W93359  28.072   0.098   0.128 -0.0188 -0.0679 -0.1348
50369W        W93360   0.444  29.992   8.113  0.3151  0.1655  0.0235
50370W        W93361  24.233   3.656  29.106 -0.0165  0.0695 -0.2465
50371W        W93362  34.357   0.414  16.818 -0.0513 -0.0220 -0.1505
50372W        W93363   3.664  29.469  25.335  0.0706  0.2203  0.1875
50373W        W93364   2.506  32.901   9.801 -0.0849 -0.1975 -0.0791
50374W        W93365   4.251  33.741  27.697 -0.1885 -0.1989  0.5916
50375W        W93366  12.290  32.222   8.859  0.1131 -0.2257 -0.2812
50376W        W93367  26.941  13.155   6.113  0.4094  0.0018 -0.0111
50377W        W93368  17.825  20.772  22.400  0.3140  0.1813  0.1286
50378W        W93369  32.153   1.739   2.714 -0.0816  0.0347 -0.1408
50379W        W93370  14.107   1.242   9.919  0.0560 -0.1161 -0.1296
50380W        W93371  14.685  29.044  28.141  0.0186  0.1756  0.1707
50381W        W93372  27.989  31.004   3.181  0.0504 -0.1791 -0.4518
50382W        W93373  21.720  26.914   1.480  0.1358 -0.2800 -0.0318
50383W        W93374  27.183  26.248  27.765  0.2973 -0.3048 -0.1051
50384W        W93375   3.252   3.900   1.651 -0.2386  0.1213  0.0015
50385W        W93376  28.422  13.987   5.275 -0.1164 -0.1128 -0.1170
50386W        W93377  25.785   7.001   1.579  0.2170 -0.1480  0.1703
50387W        W93378  33.992   2.351   7.140 -0.2438  0.0994 -0.2586
50388W        W93379  29.123  33.938   7.884 -0.1180 -0.1862  0.0388
50389W        W93380   3.526  14.732  18.845  0.0533  0.0897  0.0142
50390W        W93381  24.419   3.249  14.367 -0.0585  0.1358  0.0794
50391W        W93382  18.203  26.985  25.071 -0.3146  0.2815 -0.3362
50392W        W93383  21.822   5.779   6.000  0.2809  0.0249 -0.1887
50393W        W93384   1.276   1.013   9.293 -0.1777  0.0597  0.0243
50394W        W93385   5.021   2.780  15.886 -0.2240  0.0863 -0.2561
50395W        W93386  31.231  10.192   9.129 -0.1152  0.0220 -0.1462
50396W        W93387  22.718   2.475   4.956 -0.1739 -0.2260  0.2218
50397W        W93388  29.401  15.583  15.328  0.0026  0.0583 -0.0418
50398W        W93389  26.435  32.862  20.161 -0.3570 -0.2154  0.0224
50399W        W93390   6.958   4.785   8.078 -0.2760 -0.0886  0.3117
50400W        W93391  17.721   7.902   4.011 -0.1067 -0.2094  0.2406
50401W        W93392   6.505   4.866   8.304  0.0186 -0.0524  0.0051
50402W        W93393  23.455  33.540  23.427 -0.2561 -0.0700  0.4033
50403W        W93394  19.772   1.245   2.074 -0.3114 -0.0740  0.2828
50404W        W93395  30.795   2.655   4.638 -0.3325 -0.0619 -0.0361
50405W        W93396  26.032  32.746  25.070 -0.0480 -0.2377  0.3139
50406W        W93397  27.577  10.689  10.303 -0.0825  0.3451 -0.2113
50407W        W93398   1.706   7.523  22.376  0.0488  0.2663 -0.1795
50408W        W93399  18.340  12.964  20.533 -0.1126  0.2135  0.0423
50409W        W93400  28.233  28.779   3.148 -0.2997  0.1357  0.0709
50410W        W93401  25.817   4.704  27.652 -0.3901 -0.4947  0.1521
50411W        W93402  15.139   4.188  27.193 -0.1986 -0.0170 -0.1034
50412W        W93403  23.493  13.833   4.412  0.2870  0.1116 -0.0758
50413W        W93404  13.665  12.595   7.104 -0.0362  0.2492  0.1291
50414W        W93405   1.364   2.010  25.685  0.1733  0.0706  0.2067
50415W        W93406  19.707   2.757   8.521 -0.2345  0.1483 -0.0552
50416W        W93407   4.357   3.947  28.639 -0.1186 -0.2451 -0.0533
50417W        W93408  27.377   2.455   6.053 -0.0911 -0.0768 -0.1637
50418W        W93409  28.849   2.446  21.515 -0.2251 -0.4724  0.1448
50419W        W93410  21.196   8.141  22.712  0.1601  0.1960  0.3705
50420W        W93411  29.946   9.294   3.545 -0.3216 -0.2171  0.0800
50421W        W93412  21.646   4.872  18.134 -0.0782 -0.2112  0.0224
50422W        W93413  12.435   4.927   2.121 -0.0959  0.1570 -0.0128
50423W        W93414  10.020  22.720  25.503  0.0187  0.0808 -0.3639
50424W        W93415  11.926  15.376  18.240  0.3091 -0.0410  0.1190
50425W        W93416   0.023   3.461   4.172 -0.1180 -0.1072 -0.0806
50426W        W93417   9.045  30.233   2.257 -0.1779  0.0209  0.2123
50427W        W93418  26.869  19.896  20.807 -0.0329  0.1287 -0.0061
50428W        W93419   5.519  28.966  22.612 -0.0503  0.3191 -0.1454
50429W        W93420   1.118  25.502  22.329 -0.2492  0.0714 -0.0958
50430W        W93421  33.812  25.162   0.273 -0.2556 -0.3166 -0.2729
50431W        W93422  33.970  18.074  28.593  0.1087 -0.0352 -0.0537
50432W        W93423  16.855   9.019   4.837  0.0858  0.0548 -0.0028
50433W        W93424  34.586   7.684  27.865 -0.2466 -0.2253  0.0084
50434W        W93425  33.994   3.916   5.992 -0.1129 -0.0563 -0.0814
50435W        W93426  28.749  33.803   0.772  0.1011 -0.0546  0.0206
50436W        W93427  24.679   7.119  23.433 -0.1775  0.0138  0.2445
50437W        W93428   8.367  18.856  15.724 -0.0247 -0.1038  0.2263
50438W        W93429  17.831  26.176  28.351 -0.0996  0.3493 -0.4066
50439W        W93430   0.794  22.111   7.703  0.3798  0.0719  0.2072
50440W        W93431   2.355   1.328   8.862 -0.1605  0.0780  0.0524
50441W        W93432  25.438   3.378   1.056 -0.1635  0.0441  0.3564
50442W        W93433   6.181  31.357  25.385  0.1012  0.0219 -0.1992
50443W        W93434  10.014  32.260   7.235 -0.1118  0.2432 -0.0199
50444W        W93435  13.339  11.695  22.777  0.0979  0.1002  0.2846
50445W        W93436   1.346  34.350   7.294  0.1447 -0.1731 -0.1115
50446W        W93437  10.591  32.644   6.304  0.0602 -0.1468 -0.2247
50447W        W93438  31.852  16.551  14.773 -0.0041  0.0399  0.0341
50448W        W93439  28.486  11.663   6.561 -0.2038 -0.0314  0.0564
50449W        W93440  25.380   0.197  24.187  0.0726  0.1165  0.1332
50450W        W93441   8.060  30.387   6.892  0.0976 -0.3525 -0.2706
50451W        W93442  32.990   1.098  26.466  0.1118 -0.1994  0.0979
50452W        W93443  22.049  18.471   5.972 -0.3017 -0.2980 -0.0556
50453W        W93444  16.529  34.734  18.318  0.4406  0.3118 -0.2719
50454W        W93445  28.745  26.289   3.071  0.1603 -0.1483  0.2137
50455W        W93446  30.028  25.816  25.063 -0.0752 -0.0547  0.1955
50456W        W93447  27.509  32.505  28.876  0.2557 -0.0253 -0.0989
50457W        W93448  16.665   6.076   2.538  0.0364  0.1898 -0.1237
50458W        W93449  24.034   8.049  27.502 -0.0020  0.0906  0.1039
50459W        W93450  25.321  18.709  22.300 -0.0859  0.2556  0.0835
50460W        W93451  18.932  31.561   3.448  0.1454 -0.0041 -0.1228
50461W        W93452  10.115  30.946  18.676  0.4093 -0.2789  0.0372
50462W        W93453  11.075   0.034   8.398 -0.1760  0.1080  0.2509
50463W        W93454   2.683  18.076   9.959  0.0657  0.0092  0.0242
50464W        W93455  33.486  18.022   3.353  0.3638  0.1494 -0.0440
50465W        W93456   5.823  30.234  29.227  0.1281  0.0428  0.1580
50466W        W93457  15.929   8.942   0.819 -0.2182  0.3108 -0.3088
50467W        W93458   9.220   1.313  19.985 -0.3175  0.1196  0.0643
50468W        W93459  31.159   4.684   7.373  0.1513 -0.5243  0.0067
50469W        W93460  13.332  33.507  21.296  0.0061 -0.3056  0.2820
50470W        W93461  21.934  12.357  18.246  0.0987  0.2149  0.1364
50471W        W93462  26.048   8.363   2.796  0.0702  0.2005  0.1206
50472W        W93463  29.283  29.937  17.689  0.0301 -0.0415 -0.1686
50473W        W93464  25.814  18.193   1.283 -0.0158 -0.0443 -0.0694
50474W        W93465  29.968  27.143   9.145  0.0104  0.1298  0.0354
50475W        W93466  27.521   1.966  16.355 -0.0512 -0.1754  0.0243
50476W        W93467  20.834  28.434   2.593 -0.1756 -0.0614  0.0194
50477W        W93468  14.879  16.648   2.772 -0.0707 -0.0967  0.1112
50478W        W93469   2.688  26.231   5.594 -0.1497  0.1799 -0.1393
50479W        W93470   5.824  27.718   5.026 -0.2902 -0.2163 -0.3455
50480W        W93471   0.566  33.823   4.966 -0.2747 -0.0560 -0.0582
50481W        W93472  21.828   6.916   3.998 -0.0246  0.0477  0.1843
50482W        W93473  34.713   2.582   0.068  0.0017  0.2150 -0.0983
50483W        W93474  22.883   6.764   3.145  0.0018 -0.2203  0.0560
50484W        W93475  32.189  34.196   1.896 -0.4188 -0.0588 -0.0415
50485W        W93476   1.767   5.608  24.528  0.1714  0.1353  0.1868
50486W        W93477   0.225   3.393  21.532  0.1437  0.0747 -0.1978
50487W        W93478  16.199  33.707   5.029  0.0976 -0.0860 -0.2222
50488W        W93479  29.043   4.316   3.436  0.0901 -0.0165  0.5331
50489W        W93480  27.985   2.237  24.380  0.2337  0.1495 -0.4289
50490W        W93481  23.936   4.189   0.574 -0.1107  0.0525 -0.1190
50491W        W93482  20.360   1.919   8.041  0.1635 -0.1827  0.0855
50492W        W93483   5.181  15.624   5.495  0.2330  0.1484  0.0451
50493W        W93484  32.491   6.271   5.680  0.3078 -0.0702  0.0249
50494W        W93485  21.862  23.313   2.249 -0.2874  0.0703  0.0704
50495W        W93486  13.533  26.497  24.312  0.1021 -0.7144 -0.2831
50496W        W93487  15.762  30.829   0.485 -0.2601  0.0256 -0.1736
50497W        W93488  21.311  13.604  24.154  0.1545 -0.0233 -0.1921
50498W        W93489  11.453  31.715   6.411 -0.3546 -0.0330 -0.2688
50499W        W93490  28.503  20.023  28.338 -0.1228  0.1125 -0.4658
50500W        W93491   0.605  33.718   8.403 -0.0419 -0.0558 -0.0586
50501W        W93492  29.676  14.858   7.134 -0.0342 -0.3173  0.1139
50502W        W93493  29.943  31.354  20.332 -0.3443 -0.0186 -0.4712
50503W        W93494   7.842  26.741   1.366  0.1288  0.1947  0.2709
50504W        W93495  21.563   0.466  16.921 -0.2178  0.2371  0.0560
50505W        W93496   4.166  21.396  10.225  0.1785  0.0694 -0.2626
50506W        W93497   1.839   3.792   7.757  0.1842 -0.0929 -0.0998
50507W        W93498  25.913   6.717  22.630 -0.1528 -0.3440 -0.3931
50508W        W93499  24.444  23.960  28.019 -0.2194 -0.2164 -0.2462
50509W        W93500  28.924  24.520   3.643 -0.1200 -0.4358  0.0929
50510W        W93501  27.857  27.879   2.049  0.0426  0.2294  0.1128
50511W        W93502  18.215   4.487  23.571  0.0151 -0.0958  0.0965
50512W        W93503  21.368  15.519   3.268  0.2591  0.0063 -0.2780
50513W        W93504  30.930   9.937   2.351  0.2462 -0.0225 -0.1475
50514W        W93505   4.379  23.587  24.966 -0.0997  0.1223  0.3336
50515W        W93506  31.166  17.134   1.477 -0.2594 -0.0813  0.0948
50516W        W93507  25.801   6.927   7.831  0.1930 -0.2971  0.0849
50517W        W93508  33.998   0.187   7.265 -0.1012 -0.1511 -0.1495
50518W        W93509  18.100  16.485   5.499 -0.1496 -0.1392  0.0158
50519W        W93510  16.371   8.894   8.146  0.0726  0.0712  0.2454
50520W        W93511   6.178   0.025   3.966 -0.0547  0.1646  0.1878
50521W        W93512   2.622   4.973   6.057  0.3046  0.0356 -0.1626
50522W        W93513  32.166   3.305   0.914  0.1713 -0.0337 -0.2564
50523W        W93514   4.462  20.376   1.770  0.4639 -0.0636 -0.0027
50524W        W93515  23.302  11.724  25.672  0.0694 -0.2631  0.3351
50525W        W93516   8.658  34.640  24.981 -0.0659 -0.0094  0.2550
50526W        W93517  16.991  20.008   1.849  0.0249  0.1714  0.2467
50527W        W93518   8.708   1.015  24.881 -0.0289  0.1227 -0.1824
50528W        W93519   6.021   1.755   2.584  0.1445  0.2551 -0.0975
50529W        W93520   1.262  33.581  25.914  0.1803  0.0070 -0.2199
50530W        W93521  33.955  12.252   7.373 -0.2074  0.0670  0.2054
50531W        W93522  26.395   7.706   2.804 -0.1453 -0.0432 -0.1862
50532W        W93523   1.376   3.867  22.348 -0.0779 -0.2312 -0.0671
50533W        W93524   8.398  25.418   9.890 -0.0814 -0.2987  0.0442
50534W        W93525  19.062  26.553  27.176  0.0472 -0.0473 -0.2046
50535W        W93526  25.253  12.982   0.028 -0.0316  0.0990  0.0866
50536W        W93527   3.232  14.243  28.938  0.1702  0.0699  0.1485
50537W        W93528  27.927  11.947   8.581 -0.2430  0.1399  0.4575
50538W        W93529  10.128  29.583   4.735 -0.0473 -0.1268  0.0817
50539W        W93530  26.300   0.450  14.554  0.1529  0.0882 -0.2812
50540W        W93531  32.571   0.771   5.147  0.1153  0.1566 -0.1017
50541W        W93532  24.136  26.932   4.075  0.1361 -0.1520 -0.2003
50542W        W93533  28.925   2.431   4.693 -0.5056 -0.0267 -0.2349
50543W        W93534  28.087  24.760   5.568 -0.3222  0.0885  0.2164
50544W        W93535  22.839  33.752   2.235 -0.2030 -0.0362  0.3566
50545W        W93536  16.740   9.483  26.724 -0.1094 -0.1497 -0.1896
50546W        W93537  23.861   1.564   4.730 -0.0357  0.1857  0.3053
50547W        W93538   4.639  31.068   4.987  0.0331  0.1242  0.0423
50548W        W93539  12.288   4.852   5.603 -0.0064 -0.2249  0.1330
50549W        W93540  28.475  16.180   9.730  0.0755 -0.0971  0.1334
50550W        W93541  24.850   3.464   8.413 -0.2826  0.1790  0.0654
50551W        W93542   4.478   8.950   8.554  0.1428 -0.1075  0.2151
50552W        W93543  22.238   5.396  24.130 -0.1805 -0.3098 -0.4121
50553W        W93544   0.073  29.391  22.614  0.2700  0.1527  0.1969
50554W        W93545  11.390  30.191  25.388  0.0142 -0.1818  0.0144
50555W        W93546  30.431  10.304  17.160 -0.0565  0.0791 -0.1003
50556W        W93547  31.841   0.108   8.188  0.0813  0.1249  0.1451
50557W        W93548   0.049  18.007   9.605 -0.0921 -0.2058 -0.0204
50558W        W93549   4.049   4.829   4.689  0.1089  0.1236  0.1542
50559W        W93550   3.740   1.256   5.087 -0.1019  0.2620 -0.0012
50560W        W93551  32.338   7.069  28.388 -0.2228 -0.1777  0.0455
50561W        W93552  27.129  24.343   2.103  0.0356  0.0139  0.0758
50562W        W93553  29.425   1.851   9.686  0.0897 -0.0099 -0.0034
50563W        W93554  26.327  10.675   0.965  0.0666  0.1424 -0.0235
50564W        W93555  28.666  29.617   4.795  0.0641 -0.1089 -0.1591
50565W        W93556   9.814   1.154   3.826  0.1326  0.1979  0.0130
50566W        W93557  16.826  12.613  22.140 -0.0046  0.0058  0.3065
50567W        W93558  33.323   2.195   1.347 -0.4871  0.2511 -0.3147
50568W        W93559  13.543  29.485  26.379 -0.0415 -0.0372 -0.0998
50569W        W93560  30.025  31.659   3.967 -0.1082  0.0997 -0.1325
50570W        W93561  32.708  12.788  24.350 -0.0278 -0.0049  0.0148
50571W        W93562  25.372   9.068   5.522 -0.1916 -0.0247 -0.2321
50572W        W93563  26.355  12.596   4.513  0.0268 -0.2236  0.0568
50573W        W93564  18.040  20.848  21.349  0.2894  0.0988 -0.1944
50574W        W93565  22.943  33.327   3.784  0.0469 -0.0470  0.0591
50575W        W93566   2.914  18.660  19.290  0.1799 -0.3834 -0.0827
50576W        W93567  30.989   8.936   1.201  0.1320 -0.0175  0.0060
50577W        W93568  29.906  11.310   5.143 -0.2160 -0.2384 -0.1356
50578W        W93569   8.016   9.945   3.180 -0.0366 -0.0654 -0.1844
50579W        W93570  11.744  30.927  21.009 -0.1641  0.3125  0.0742
50580W        W93571   4.742  34.184   8.684 -0.0148 -0.1350 -0.0746
50581W        W93572   0.159  23.018   2.629  0.0956  0.2794 -0.0987
50582W        W93573  31.250   5.006   6.177 -0.3165  0.2965  0.0689
50583W        W93574   4.621  26.700   2.035 -0.0318  0.2182 -0.0181
50584W        W93575  23.604  28.053  12.816 -0.1891  0.1874  0.0185
50585W        W93576   7.392  10.423   9.887 -0.2198  0.1935 -0.2084
50586W        W93577  31.825   4.211   7.630  0.2278 -0.2239  0.3669
50587W        W93578  22.552   3.307   4.473 -0.0357 -0.3175 -0.1715
50588W        W93579  33.077  15.010   3.201  0.4445 -0.1366  0.1685
50589W        W93580  27.518   1.034   4.466  0.0926  0.0356 -0.3114
50590W        W93581   2.288  28.516   8.969 -0.1162  0.0716 -0.0967
50591W        W93582  33.790  26.870  28.135  0.0919 -0.5355  0.0488
50592W        W93583  19.373  22.977  28.426  0.0004 -0.0405 -0.1700
50593W        W93584   0.411   7.352  27.402 -0.0357  0.2993  0.0414
50594W        W93585  10.609  29.621   0.927  0.1559  0.0260  0.0690
50595W        W93586  21.481  25.358  21.524  0.1907 -0.0963 -0.2754
50596W        W93587   9.181   3.847   9.867  0.1291 -0.3242  0.0468
50597W        W93588  21.576  15.645   1.905 -0.0385  0.0767  0.3472
50598W        W93589  33.855  23.153   3.965  0.2399 -0.1106  0.0584
50599W        W93590  33.635   0.735   8.446 -0.0875 -0.0092  0.0461
50600W        W93591  11.589  26.923   8.471 -0.0888 -0.2254  0.0885
50601W        W93592  24.280   6.366   2.100  0.1236 -0.1335  0.1143
50602W        W93593  34.683  28.375   8.797 -0.0893  0.2548 -0.3440
50603W        W93594   4.020   6.672  11.091  0.1478  0.3339 -0.2425
50604W        W93595   5.436   9.240   2.234 -0.1088  0.1158  0.0603
50605W        W93596  12.172   9.132   7.739 -0.1484 -0.1854  0.0893
50606W        W93597   8.955  15.546  16.477 -0.1655 -0.0155  0.0584
50607W        W93598  34.592   6.866   0.569  0.3013  0.1644 -0.4826
50608W        W93599   7.132  30.286   9.847  0.1428 -0.0155 -0.0930
50609W        W93600  23.171   9.936   7.486  0.0165 -0.0194  0.0465
50610W        W93601  25.165  30.483   8.775  0.3280 -0.0488 -0.0893
50611W        W93602   8.772   5.857  29.106 -0.2316  0.0464 -0.0233
50612W        W93603  24.533  20.945   3.758 -0.0773  0.1777 -0.3824
50613W        W93604  19.863  26.949  25.488  0.0856  0.1176 -0.0489
50614W        W93605  28.206  13.314   2.257 -0.1713 -0.1439  0.0424
50615W        W93606   0.996   2.464   5.771  0.1228 -0.0480  0.1304
50616W        W93607  27.776   6.351  28.924 -0.1109 -0.0502  0.0261
50617W        W93608  27.965   1.958   0.108 -0.2048 -0.2708 -0.3524
50618W        W93609  32.696  33.401   6.231 -0.0911  0.3625 -0.0432
50619W        W93610  22.116   8.103   8.721 -0.1802  0.1693 -0.1313
50620W        W93611  27.182   2.763   8.195 -0.0537  0.1279  0.0313
50621W        W93612  25.239   3.435   7.666  0.1302  0.0315  0.0095
50622W        W93613  29.060   6.870  27.128  0.1209 -0.2246 -0.1906
50623W        W93614   1.365   5.984  24.401  0.1606 -0.2508 -0.1313
50624W        W93615  28.427  26.267   2.658  0.1074  0.1279  0.0038
50625W        W93616  10.741   2.324   9.701 -0.3066  0.1251 -0.0141
50626W        W93617  12.871  27.221   2.727 -0.4212 -0.2171 -0.0607
50627W        W93618  27.320  27.939   6.901  0.0291 -0.0407  0.2268
50628W        W93619  20.248  21.382   8.128  0.0772  0.0816  0.0687
50629W        W93620  27.353  12.602   4.711 -0.0645 -0.1299 -0.2064
50630W        W93621  33.422  27.183  28.456 -0.1386 -0.4376 -0.1105
50631W        W93622  32.228  23.122  18.161 -0.0946 -0.1284  0.0772
50632W        W93623  16.202   4.845  26.371 -0.2724  0.1211  0.0158
50633W        W93624  23.881  25.319   6.962  0.0263 -0.1187  0.2109
50634W        W93625  33.833   2.175   1.544 -0.1392  0.0044  0.0147
50635W        W93626  34.567  12.205  12.064 -0.1869 -0.0596 -0.0595
50636W        W93627  34.427  21.003   7.589 -0.0129  0.0594  0.0890
50637W        W93628  18.097  11.337   8.288  0.4113 -0.0217 -0.3177
50638W        W93629  22.159  31.029  28.152 -0.2369  0.0694  0.0424
50639W        W93630  31.980  24.204   0.857  0.0593  0.0010 -0.0521
50640W        W93631  13.114  26.329   5.770 -0.0696  0.2592  0.0627
50641W        W93632  10.577  28.540  20.609  0.0179  0.1319  0.1442
50642W        W93633  30.104   6.235  20.555 -0.1070  0.1962  0.0287
50643W        W93634  13.229  25.967  17.482  0.1964  0.1433 -0.1104
50644W        W93635   2.600   6.925   4.653  0.0042 -0.1284  0.1141
50645W        W93636   3.503   5.652   7.846 -0.1266  0.1680  0.0400
50646W        W93637  23.965   4.265   6.537  0.1333  0.2197  0.0106
50647W        W93638  28.814  34.783  28.003  0.4211  0.3294  0.1505
50648W        W93639  33.297  34.407  26.590  0.0661  0.0420  0.0681
50649W        W93640   1.704  30.530   8.349  0.2004  0.2432  0.0044
50650W        W93641  22.814   3.212  15.705  0.2807  0.2063  0.0916
50651W        W93642   6.830  12.296   8.851  0.4327 -0.0968 -0.0086
50652W        W93643  26.180   2.715   5.786  0.0500  0.0925 -0.0468
50653W        W93644  30.120  26.850   3.687 -0.4051 -0.1273 -0.2405
50654W        W93645   2.879  18.278  12.103 -0.1879 -0.0145 -0.0907
50655W        W93646  30.474  27.110  24.839  0.1384 -0.2859  0.1020
50656W        W93647  10.601  13.357  21.771 -0.2474 -0.0489  0.0908
50657W        W93648  24.797  21.527  25.198  0.1663  0.0739  0.3386
50658W        W93649   4.398  30.754   2.742  0.1802 -0.2919  0.0903
50659W        W93650   3.033  34.340  23.616 -0.0503  0.0159 -0.0440
50660W        W93651  18.444  29.269   0.912  0.0831  0.4006  0.1533
50661W        W93652   1.701  14.386  11.243 -0.3326  0.0631 -0.0283
50662W        W93653  26.958  24.002   2.451 -0.2944  0.0805 -0.0367
50663W        W93654  14.279   8.887  16.645 -0.1314 -0.1015 -0.0877
50664W        W93655   2.619   6.327  19.971  0.4926  0.0362 -0.1172
50665W        W93656  33.512  31.147   3.705 -0.2625 -0.3774  0.1215
50666W        W93657  28.235  13.241  21.187  0.1804  0.3632 -0.2373
50667W        W93658  17.835   7.379  28.517  0.2574  0.1306 -0.0539
50668W        W93659  29.294   6.317   2.046 -0.1143 -0.2258 -0.3863
50669W        W93660  32.640  11.297   5.627  0.0654  0.0039  0.2865
50670W        W93661  24.678  29.080  28.747  0.2347 -0.1363 -0.1568
50671W        W93662  11.845  18.909  18.244  0.1242  0.2039 -0.1779
50672W        W93663  26.630  12.477  15.506 -0.0886 -0.4456 -0.0725
50673W        W93664  10.476   3.800  28.909  0.0130 -0.4447  0.2680
50674W        W93665   1.983  27.124  29.002 -0.1737 -0.0126  0.0450
50675W        W93666  21.912   4.564  16.858 -0.0365  0.1876 -0.1270
50676W        W93667  23.950  26.287   7.109  0.1907  0.3891  0.4485
50677W        W93668  29.762  24.613  23.985  0.2502 -0.4534 -0.0318
50678W        W93669   1.780  11.450   6.057 -0.1216  0.0410  0.2693
50679W        W93670  25.793  32.082  28.818 -0.1728  0.0811 -0.1904
50680W        W93671  10.690  20.968  24.260 -0.2908  0.0575 -0.3861
50681W        W93672  23.483   1.152   6.611 -0.1717 -0.0618  0.0986
50682W        W93673  23.005  20.793  25.782  0.1404 -0.0815 -0.1195
50683W        W93674  25.844  22.671   5.328 -0.1205  0.0128  0.1603
50684W        W93675  20.256  32.383   7.947 -0.3255 -0.1446  0.0300
50685W        W93676   3.049  34.051  25.858 -0.1952 -0.1620  0.0041
50686W        W93677   0.781  16.068  24.979 -0.0203 -0.0587  0.2008
50687W        W93678   8.331  28.496   1.456  0.0400 -0.2378  0.0119
50688W        W93679  29.708  33.946  24.648 -0.1234  0.3013 -0.0718
50689W        W93680  30.861  19.783   0.553 -0.0451 -0.2139 -0.0742
50690W        W93681  25.710   3.190   5.768 -0.0374 -0.0547 -0.2421
50691W        W93682  13.050   2.790  10.166  0.2331  0.1714  0.3199
50692W        W93683  21.883  32.965   5.208 -0.0116  0.2394  0.1608
50693W        W93684  16.821   8.894  28.455 -0.2135  0.0277  0.0981
50694W        W93685  27.486  13.196   5.588  0.1183 -0.4347 -0.1337
50695W        W93686  29.350  34.292   6.965  0.2602 -0.1118 -0.2909
50696W        W93687  15.209  25.263  29.036  0.1656 -0.0931 -0.1021
50697W        W93688  33.642  10.368  26.093  0.2099 -0.0320  0.1133
50698W        W93689   6.127  34.442  15.965  0.1932  0.0544 -0.0385
50699W        W93690   2.618  18.369  24.466  0.2426  0.2441  0.1180
50700W        W93691   7.505  28.848   4.055 -0.0920 -0.2628  0.0860
50701W        W93692  30.666  25.724  26.483  0.2305  0.0064  0.3090
50702W        W93693  22.657   8.271   8.511  0.0777 -0.1021  0.2388
50703W        W93694  26.873   0.342   5.635 -0.1462  0.2488 -0.0464
50704W        W93695   0.922   3.816   8.442 -0.0995 -0.1291  0.0020
50705W        W93696  31.975  33.184  16.345 -0.0467  0.0036 -0.0047
50706W        W93697   8.471   4.471   2.657 -0.1509  0.2167 -0.1496
50707W        W93698  26.613  23.205   8.398 -0.1795  0.1053  0.1024
50708W        W93699  29.689  28.934   5.849 -0.5005 -0.1519 -0.0385
50709W        W93700   4.260  24.747   5.992  0.2259  0.1493 -0.0163
50710W        W93701  21.757  25.712   6.395  0.1226 -0.0592 -0.0165
50711W        W93702  28.048  31.055   7.075 -0.0183 -0.1603  0.2726
50712W        W93703  21.857   0.091   6.630  0.0070  0.1413  0.0028
50713W        W93704  22.747  24.130   8.749 -0.1006  0.2455  0.2388
50714W        W93705  31.698   6.129   7.379 -0.0332  0.0984 -0.3372
50715W        W93706   2.157  28.825  29.258  0.2417  0.0413 -0.2923
50716W        W93707  15.423  20.569   4.173  0.0254 -0.0584  0.3787
50717W        W93708  27.189   4.195   3.728  0.1987  0.2450 -0.0454
50718W        W93709  25.282  33.920   7.268 -0.1012  0.2417 -0.0085
50719W        W93710   1.380  14.132  10.387  0.0781 -0.0903 -0.0202
50720W        W93711   4.736  11.505   8.998  0.0627  0.0761  0.0802
50721W        W93712  12.121  29.015   3.229 -0.5415 -0.1854  0.1648
50722W        W93713   1.892   7.785  17.555  0.5966 -0.0077  0.0354
50723W        W93714  30.896  17.581   1.308 -0.0967 -0.0264 -0.0726
50724W        W93715  21.248   2.913  27.980  0.0895 -0.0448 -0.1230
50725W        W93716  18.353   4.893   7.663  0.1431  0.0620  0.1095
50726W        W93717  28.009  29.850   8.177 -0.6939  0.2387  0.1900
50727W        W93718   3.758   4.918   2.325 -0.2158 -0.1061 -0.1024
50728W        W93719  32.290  33.776   0.323 -0.1680  0.0651 -0.0777
50729W        W93720   7.718  20.839   6.845 -0.0660 -0.1232 -0.2238
50730W        W93721   8.897  34.266   4.376  0.0801  0.2164  0.0333
50731W        W93722  19.942   1.846   4.991  0.2067 -0.0028 -0.2381
50732W        W93723  30.176  13.441   8.374 -0.3436 -0.1904 -0.1173
50733W        W93724   9.274  21.569  19.349 -0.0915  0.3346  0.2157
50734W        W93725  30.896  17.254   3.918 -0.0833  0.1698 -0.1056
50735W        W93726   7.952  17.446  22.605  0.2280  0.1844 -0.1896
50736W        W93727  19.212  27.338   7.903 -0.3210  0.2283 -0.2010
50737W        W93728  32.696  29.012   7.517 -0.2217  0.0584  0.0241
50738W        W93729  32.196  16.878  10.313  0.0998 -0.1877 -0.0504
50739W        W93730  23.098  32.426   1.720 -0.0376 -0.0182 -0.2934
50740W        W93731  31.734  24.740   9.182 -0.0638  0.2051 -0.3624
50741W        W93732  34.703  31.330   6.965 -0.2720 -0.3787 -0.0078
50742W        W93733  32.705  34.122   8.767  0.2596 -0.0053 -0.1022
50743W        W93734  13.908  19.748   7.388  0.1322  0.0392 -0.3280
50744W        W93735   1.305  23.784   4.701 -0.0809 -0.0243  0.3575
50745W        W93736   8.025  33.808  15.076 -0.1801  0.2889  0.0829
50746W        W93737  34.058  17.117  25.517  0.4190  0.0217 -0.1320
50747W        W93738  28.776   4.370  28.187  0.0283 -0.1252  0.2498
50748W        W93739  28.979   8.891   5.688 -0.1197 -0.0639  0.0461
50749W        W93740  17.649   1.885  24.684 -0.4771  0.2196  0.0887
50750W        W93741  20.199  25.642   6.519  0.1411 -0.1200 -0.1259
50751W        W93742  22.137  27.287   3.566 -0.1661  0.1733  0.5553
50752W        W93743  28.492  18.296   3.925 -0.1090 -0.2377 -0.3425
50753W        W93744  11.538  15.418  26.036 -0.0213 -0.2147 -0.1343
50754W        W93745   2.756  32.006  28.006  0.0282 -0.2734  0.0856
50755W        W93746  29.878  20.150   2.861 -0.0160  0.0461 -0.0214
50756W        W93747  28.539   8.992   1.764  0.0466 -0.1178  0.0661
50757W        W93748  33.684  22.090  25.150  0.0472 -0.1174  0.1404
50758W        W93749  30.731   1.771   8.110 -0.1138  0.0164 -0.2532
50759W        W93750  22.739  27.617   5.709 -0.2702 -0.1306 -0.1715
50760W        W93751  30.206  27.408  21.544  0.2510 -0.2036  0.2336
50761W        W93752   8.558   1.181   8.830  0.0974 -0.2374  0.1504
50762W        W93753   3.591   3.491   7.099  0.1178 -0.0036  0.1290
50763W        W93754  34.513  14.018   3.446  0.2170 -0.0182 -0.0676
50764W        W93755  17.117  30.244   8.403  0.0376 -0.3004 -0.1667
50765W        W93756  19.783   0.516   5.114  0.0709 -0.0618 -0.2083
50766W        W93757  21.244  16.586  26.243  0.3810  0.0296  0.0627
50767W        W93758  14.447  32.618   7.906  0.3407 -0.1867  0.1517
50768W        W93759  31.769  32.235  28.376 -0.3806  0.3986 -0.1369
50769W        W93760   5.438  31.499   0.249 -0.0859  0.1120  0.0292
50770W        W93761  30.441  29.440   7.532 -0.1763 -0.2503  0.0214
50771W        W93762  30.052   7.634  28.676  0.1188  0.1274 -0.1131
50772W        W93763  22.495  17.356   9.647  0.1662 -0.3361 -0.1593
50773W        W93764  31.313  33.121   9.446  0.2519  0.1679 -0.3353
50774W        W93765  30.182  19.979   4.974  0.3651 -0.0387 -0.0755
50775W        W93766  23.165   8.145  26.442 -0.0266  0.0553  0.1622
50776W        W93767  26.374  28.317   8.913 -0.3721 -0.0557  0.0303
50777W        W93768  19.230   1.692   5.799 -0.1719  0.1403 -0.1880
50778W        W93769  32.104  12.630   6.232  0.3119 -0.1652 -0.0650
50779W        W93770  23.443   7.356   7.848  0.3641  0.0723 -0.0357
50780W        W93771  33.671  28.837  24.383 -0.0952 -0.1515  0.1318
50781W        W93772  27.854  15.261   9.572  0.1188 -0.3226  0.0834
50782W        W93773  21.278  15.224  28.905 -0.3386 -0.0847 -0.0913
50783W        W93774  10.023  12.395   7.090  0.2053  0.0652 -0.0965
50784W        W93775  27.730   7.801   3.197 -0.0311  0.1520  0.2476
50785W        W93776   2.548  15.897  25.728 -0.1027 -0.1214 -0.0449
50786W        W93777  23.118   4.769  27.772 -0.2710  0.1213 -0.0158
50787W        W93778  18.679  23.555   9.115 -0.0786  0.2605 -0.2903
50788W        W93779  22.627   5.919   2.763  0.0627  0.0407 -0.1110
50789W        W93780   1.724   6.938  27.737  0.1189  0.0808 -0.1045
50790W        W93781  11.433  31.112   0.536  0.2276 -0.0639 -0.3023
50791W        W93782   0.107  25.823  20.374 -0.0185 -0.5124 -0.0045
50792W        W93783  30.554  30.455   8.641  0.0301 -0.2656  0.1981
50793W        W93784   3.898   6.633   8.857 -0.1339  0.1341 -0.1195
50794W        W93785   7.135  17.318   3.634  0.0202 -0.1466 -0.4257
50795W        W93786  32.318   7.603   3.605  0.0541 -0.0712 -0.1379
50796W        W93787   0.659  14.143  28.173 -0.0316  0.0592  0.0484
50797W        W93788  31.477  26.558   0.829  0.0333  0.0831 -0.0782
50798W        W93789   1.134  33.836  25.416 -0.2630  0.4744 -0.0485
50799W        W93790  27.547   6.981   5.592  0.1337 -0.0853 -0.0778
50800W        W93791  30.500  28.924   5.633  0.0473 -0.0902 -0.2291
50801W        W93792  17.176  15.196   8.158  0.0019 -0.0095  0.1450
50802W        W93793  13.854  10.786   2.045  0.1274 -0.0104 -0.0344
50803W        W93794  11.865   3.328  28.954  0.0033  0.2770  0.0938
50804W        W93795   4.889   4.465   5.785  0.0352 -0.0225 -0.0758
50805W        W93796  26.584  32.927   2.123  0.2226 -0.3319  0.1934
50806W        W93797  30.233  17.570  10.834 -0.2917 -0.2246 -0.3914
50807W        W93798  10.912  32.021   7.909  0.2012 -0.2047  0.0713
50808W        W93799  32.813   1.100  22.672  0.0694  0.4799  0.3890
50809W        W93800  33.552  30.765  19.513  0.6190  0.0066 -0.1936
50810W        W93801  17.683   3.935   8.322  0.3300  0.3063 -0.2398
50811W        W93802   7.870   9.089  26.791 -0.0839 -0.3417  0.1206
50812W        W93803  26.283   8.978  28.031  0.1086 -0.1455 -0.0293
50813W        W93804   9.614  15.946  10.177 -0.1560 -0.0007  0.1888
50814W        W93805  12.872  24.842  27.442 -0.0483 -0.3100 -0.2833
50815W        W93806  30.534  29.012   8.832 -0.4650 -0.0248  0.0234
50816W        W93807  18.082   9.422  24.026  0.1315  0.0035  0.0532
50817W        W93808   1.334  28.374  13.241  0.3582  0.3304 -0.1279
50818W        W93809  32.472  32.908   6.423  0.2034  0.0853 -0.1704
50819W        W93810   4.491  18.965  10.088  0.0159  0.0339 -0.0700
50820W        W93811  13.861  20.938  25.481 -0.0699  0.1492 -0.2153
50821W        W93812   0.286  15.318  28.834  0.0495  0.1263 -0.2686
50822W        W93813  24.389  33.594   7.546  0.1312  0.1507 -0.0157
50823W        W93814  26.665   6.514   8.999 -0.5457 -0.1070  0.1279
50824W        W93815  23.892  33.740   7.934 -0.0099 -0.0196  0.2999
50825W        W93816   5.220  10.419   5.133 -0.0461 -0.2188  0.5141
50826W        W93817  23.379  20.991   4.498  0.2526  0.1359  0.2812
50827W        W93818   2.350  25.009  20.733 -0.3532  0.0864  0.1064
50828W        W93819  12.100  33.059   5.476  0.0707 -0.0853 -0.0803
50829W        W93820  20.266   2.379   8.275  0.1907  0.2198 -0.0855
50830W        W93821  15.195  24.478   4.754  0.3174 -0.0280  0.0137
50831W        W93822   0.157   0.324  26.691  0.0047  0.4764  0.0410
50832W        W93823  29.787  22.474  26.410 -0.0898  0.0431 -0.0157
50833W        W93824  28.860  31.740   6.153  0.0213  0.1061 -0.0085
50834W        W93825   0.174  15.212  27.717 -0.2077  0.3228 -0.0323
50835W        W93826   1.123  27.913   1.812 -0.0020 -0.1753 -0.1824
50836W        W93827  21.201  11.426   0.126 -0.2760 -0.0304  0.1491
50837W        W93828  22.413   0.024  19.115 -0.1113  0.1107  0.0470
50838W        W93829   5.678   0.744  22.913 -0.0570  0.0293  0.0669
50839W        W93830  33.371   0.668   5.981 -0.3726  0.0281 -0.1867
50840W        W93831  16.574  33.619   9.741 -0.1778 -0.0354 -0.0955
50841W        W93832   1.998  10.437   2.078  0.0000 -0.0956 -0.1748
50842W        W93833  27.957  28.329   8.540  0.0919 -0.0179  0.2000
50843W        W93834  29.351  33.352   2.493 -0.0949 -0.4886  0.5361
50844W        W93835  25.717   2.960   7.884  0.1952  0.1005  0.0355
50845W        W93836  16.924  27.634  25.278 -0.1223  0.1351  0.1449
50846W        W93837   2.529  32.686  25.890 -0.1669  0.0759  0.5025
50847W        W93838  33.472  24.828   7.452 -0.3667  0.1453  0.0502
50848W        W93839  29.615  12.745  28.377  0.2307 -0.0209 -0.3996
50849W        W93840  25.438  27.699   1.804  0.0835 -0.0401  0.4664
50850W        W93841   5.043  20.536   8.406  0.2122  0.1648  0.1723
50851W        W93842  26.874  25.546   6.150 -0.1077 -0.2910 -0.2166
50852W        W93843   4.020   1.289  25.066  0.0424  0.0789  0.0321
50853W        W93844  33.444  13.929   3.770  0.0471 -0.0491 -0.0325
50854W        W93845  20.868  28.672  29.226  0.2470 -0.1332 -0.2650
50855W        W93846  32.794   9.215  25.226  0.4413  0.3735  0.0985
50856W        W93847  25.814  26.076   9.643  0.1785 -0.1492 -0.2322
50857W        W93848  11.039  31.440   7.954 -0.1399 -0.0048 -0.0650
50858W        W93849  21.649   4.110   4.540 -0.0709  0.2446  0.1584
50859W        W93850   3.132  33.337   7.516 -0.4305 -0.0928  0.2878
50860W        W93851  29.886  25.627   4.689 -0.0467  0.0093  0.0796
50861W        W93852   2.145  33.592  22.325  0.2375 -0.0524  0.3013
50862W        W93853   7.778   1.910   3.814 -0.1156 -0.2895 -0.0060
50863W        W93854  30.288  31.647   6.247  0.0683  0.0465 -0.3293
50864W        W93855  25.009   5.166   1.350  0.0794  0.2793  0.4972
50865W        W93856  24.252   1.171   5.321 -0.0862  0.0992  0.0104
50866W        W93857  23.504   5.034   7.521 -0.0586 -0.0417 -0.0149
50867W        W93858  29.345  24.845   1.241 -0.3714 -0.3628 -0.1368
50868W        W93859  15.104  18.594  25.296  0.1217  0.0622 -0.1613
50869W        W93860  14.226   6.459   1.978 -0.0907  0.1486 -0.0739
50870W        W93861   8.620   8.289   0.064 -0.1298 -0.0539 -0.0896
50871W        W93862  30.582  10.192   5.117  0.1279  0.0597 -0.3720
50872W        W93863  32.721   2.301  28.970 -0.1385  0.1793 -0.0097
50873W        W93864   7.472  34.026   1.544 -0.0542 -0.1968  0.0035
50874W        W93865  27.464  31.947   4.563  0.2472 -0.2694 -0.0325
50875W        W93866  29.347   2.157  28.243 -0.2950 -0.0940  0.2057
50876W        W93867  24.585  27.323  13.733 -0.3663 -0.5135 -0.2965
50877W        W93868  31.229  32.937   8.394 -0.0623  0.2067  0.0020
50878W        W93869   7.530  24.191  26.427 -0.3774  0.0405 -0.2822
50879W        W93870   0.219  25.043  15.266 -0.0132 -0.1444  0.3635
50880W        W93871  13.905   8.200   0.908  0.0703 -0.1592  0.0791
50881W        W93872   3.680  31.443   8.084 -0.1491 -0.3222 -0.0558
50882W        W93873   1.869  15.258  26.913  0.0870  0.0015 -0.4426
50883W        W93874   4.825  27.494   9.442  0.1800 -0.2685  0.2799
50884W        W93875  28.594  30.630   4.030  0.0192 -0.0723 -0.1832
50885W        W93876  29.880  12.997   0.433 -0.0636 -0.3763 -0.0437
50886W        W93877  11.260   2.640   1.789  0.0068  0.1226  0.2850
50887W        W93878  11.532  32.864  24.143 -0.1083 -0.0428  0.2976
50888W        W93879  28.003   7.346  27.864 -0.0248  0.1862 -0.1320
50889W        W93880  25.586  15.218  28.089  0.0755  0.0594 -0.4274
50890W        W93881  28.503  28.750   7.250  0.2065  0.1693 -0.1852
50891W        W93882  30.688  31.763   0.686 -0.0183  0.2396  0.0149
50892W        W93883  12.187  23.455   7.998 -0.1388  0.1064  0.2354
50893W        W93884  18.936  10.643   1.901 -0.2006 -0.0760  0.1046
50894W        W93885  29.228  11.077  19.096 -0.2254 -0.0269 -0.1047
50895W        W93886  13.901  28.069   7.341 -0.1308  0.3740  0.0730
50896W        W93887  34.347  23.754  20.355  0.1941 -0.0425  0.1112
50897W        W93888  24.581   0.448  26.855 -0.2121  0.0746  0.0728
50898W        W93889  17.323   5.880  24.833 -0.0090 -0.2702 -0.0189
50899W        W93890  18.664  30.575   6.087  0.1037  0.0172 -0.0621
50900W        W93891  26.721  12.269  17.877 -0.0682  0.5752  0.1148
50901W        W93892  24.354   3.759  27.827 -0.0688  0.8269 -0.0434
50902W        W93893  16.341  30.231  27.414 -0.1440 -0.0913  0.2561
50903W        W93894  11.140   7.526  29.006 -0.1791  0.2679  0.4606
50904W        W93895  34.153  28.966   8.155  0.2498  0.2313 -0.0394
50905W        W93896  14.249   1.091   3.159 -0.0711  0.0630 -0.1344
50906W        W93897   5.484  14.769   0.111  0.2263 -0.0862 -0.0118
50907W        W93898   2.671  13.069   2.116  0.1320  0.0262  0.0936
50908W        W93899  32.225  32.930  18.769  0.0105  0.1053 -0.3960
50909W        W93900   5.356   4.520   0.500 -0.0321  0.1861 -0.3542
50910W        W93901  28.833   1.484   4.174  0.1863 -0.3419  0.1572
50911W        W93902  26.134  31.725   5.730 -0.2586 -0.0030 -0.1319
50912W        W93903  27.048  17.183   3.989 -0.0761 -0.1777  0.0944
50913W        W93904  34.632  10.024  21.846 -0.1460 -0.0140 -0.3315
50914W        W93905   8.004   3.888  15.195 -0.0165  0.0473  0.2188
50915W        W93906   5.313   1.013  20.924 -0.1427  0.0946 -0.1482
50916W        W93907  16.562  19.892   2.042  0.0776 -0.1408  0.0684
50917W        W93908  21.174  33.125   5.982  0.1308  0.1648  0.1916
50918W        W93909   5.034  30.547  28.851 -0.0387 -0.2434  0.1228
50919W        W93910   1.804  30.171   3.531 -0.2489 -0.0389 -0.1202
50920W        W93911   5.142   1.900   1.954  0.2203  0.4474  0.0063
50921W        W93912   1.564   9.198   4.243  0.1591  0.0598  0.1384
50922W        W93913  30.611  31.574   0.215 -0.1271  0.4637 -0.1356
50923W        W93914   2.407   9.695  26.515  0.2595 -0.3288 -0.4218
50924W        W93915   3.798  33.060   8.444  0.0167 -0.3069  0.0387
50925W        W93916   0.947  13.005  25.740  0.1128 -0.1570  0.1024
50926W        W93917   3.400  10.887   1.449 -0.0517 -0.2341 -0.2800
50927W        W93918   8.926   6.650   0.755  0.1542  0.2237  0.3558
50928W        W93919  29.659  25.873   6.530  0.1205 -0.1993 -0.2827
50929W        W93920  21.286   1.182  26.480 -0.4916 -0.1070  0.0945
50930W        W93921  19.894  15.777   5.591 -0.0522  0.2557 -0.3843
50931W        W93922  10.890   1.098  25.479  0.1803 -0.5124 -0.1642
50932W        W93923   4.090  29.074   5.252 -0.0498  0.2702 -0.1228
50933W        W93924   1.305   8.396   4.047  0.0709  0.1141  0.0102
50934W        W93925  11.289   6.918   6.347  0.0274  0.0456  0.2632
50935W        W93926   8.035  10.566   4.582  0.1950 -0.0050  0.0547
50936W        W93927  12.754  25.677  27.189  0.0847 -0.0003 -0.0316
50937W        W93928  30.741   3.138   4.449  0.2855  0.0037  0.1858
50938W        W93929  29.372   5.959   8.163  0.1621  0.0663 -0.0361
50939W        W93930  32.416   8.078  14.287 -0.1529  0.2845 -0.1448
50940W        W93931  26.398  11.048   1.658 -0.2085 -0.1125  0.2316
50941W        W93932  27.896   2.951   0.936  0.2141  0.0550  0.0059
50942W        W93933  15.402  18.865   6.307 -0.2311  0.0453 -0.5217
50943W        W93934  12.524   5.294   7.134  0.0111  0.0196  0.2446
50944W        W93935  27.368   5.118   6.212 -0.3813 -0.1586 -0.1314
50945W        W93936   1.530   3.518  23.272  0.3178 -0.0872 -0.2951
50946W        W93937   5.247  32.846   9.133  0.1713 -0.0543 -0.0744
50947W        W93938  10.661  32.536  27.620  0.5133  0.0505 -0.0040
50948W        W93939  33.474  33.268   5.886  0.1062  0.1624  0.1335
50949W        W93940  10.431   6.861   1.438 -0.0880  0.2373 -0.2507
50950W        W93941  28.924  31.724   4.229  0.0664 -0.0012 -0.1168
50951W        W93942   4.750  26.943  23.985 -0.1709  0.1782 -0.0114
50952W        W93943   6.506  21.556   2.210  0.0196  0.0441 -0.3633
50953W        W93944  28.637  31.709  16.965  0.0041 -0.1532  0.4879
50954W        W93945  21.491  32.470  16.495 -0.0381 -0.3703 -0.3525
50955W        W93946  25.547  32.484  22.355  0.0726 -0.1756 -0.2902
50956W        W93947  33.992  12.914  21.636  0.0717  0.1445 -0.2392
50957W        W93948  30.047  32.074  23.706 -0.0507 -0.1737  0.0760
50958W        W93949  30.740   1.627  19.221  0.1456 -0.2859  0.2460
50959W        W93950  11.284  34.345   8.399  0.0768 -0.0613 -0.0458
50960W        W93951  13.016  30.777   3.628 -0.1345  0.1639 -0.0933
50961W        W93952  31.231   5.564   7.296 -0.0404 -0.0375 -0.0193
50962W        W93953  32.961  19.336  22.395 -0.1115 -0.3532 -0.0466
50963W        W93954  33.532   4.418  15.413  0.3202  0.3807  0.2561
50964W        W93955   8.004  18.367  26.306  0.1418 -0.2852  0.1578
50965W        W93956  25.126   8.974  27.271  0.0207  0.1786  0.1280
50966W        W93957  25.850  11.852  14.434  0.4429 -0.2222 -0.0803
50967W        W93958   8.592  11.248  25.500 -0.1696 -0.0946 -0.2976
50968W        W93959   3.607  30.794  18.508  0.0450  0.0675  0.0137
50969W        W93960   3.284   4.094   2.089 -0.0974  0.0271  0.1029
50970W        W93961  28.457  30.887   5.797  0.2220 -0.1513  0.1356
50971W        W93962   6.070  31.408  14.738 -0.2876 -0.0138  0.0056
50972W        W93963  29.919   1.655   3.555  0.2526  0.0137 -0.2778
50973W        W93964  33.494   0.974   4.574 -0.0349  0.2082 -0.1341
50974W        W93965  21.009  21.273  19.996  0.2998 -0.0307 -0.0226
50975W        W93966  17.109  14.642   4.969 -0.1521 -0.0042 -0.0631
50976W        W93967  28.946  20.148   8.662  0.1623  0.3876  0.0068
50977W        W93968  19.187   8.459  23.664  0.0227 -0.0938  0.0442
50978W        W93969   1.549  26.580   8.731  0.3274 -0.0866  0.0228
50979W        W93970  10.166   9.891  28.494 -0.1014  0.2036 -0.0376
50980W        W93971  10.608  32.750   4.467 -0.2765  0.3447 -0.4861
50981W        W93972  21.334  12.680  18.005 -0.1719  0.0230  0.1849
50982W        W93973  25.615   4.531   3.138 -0.2922 -0.2777 -0.3218
50983W        W93974   0.235  32.436  29.100  0.0025 -0.3873 -0.0941
50984W        W93975  24.373  32.723  16.510  0.3989 -0.2840 -0.1016
50985W        W93976   6.791  28.000   1.399 -0.2024  0.0729  0.0820
50986W        W93977   6.307  16.175   2.016 -0.3741  0.3392  0.0616
50987W        W93978  27.020   7.283  22.575 -0.2045  0.0532  0.1385
50988W        W93979  31.049  34.569   5.999  0.1060  0.1845  0.2899
50989W        W93980  31.611  33.976  28.873  0.1789 -0.2454  0.3144
50990W        W93981   4.831  32.507   0.772 -0.1822 -0.0858  0.3699
50991W        W93982  14.175  19.413   6.197 -0.1451 -0.1163  0.3426
50992W        W93983  12.546   0.121   4.098  0.1537 -0.3683 -0.0031
50993W        W93984   5.402  26.227   2.685 -0.2133 -0.2366  0.4474
50994W        W93985   3.658   8.254  21.130 -0.2441 -0.2992 -0.2291
50995W        W93986  15.530  32.872  23.411  0.0747 -0.1003  0.2486
50996W        W93987   4.310  25.983  24.688 -0.1449  0.0883 -0.0278
50997W        W93988  30.391  17.765  23.449 -0.1917  0.2086 -0.0295
50998W        W93989   2.486   2.875  19.711  0.1750  0.0744 -0.1832
50999W        W93990  23.176   6.774  26.019  0.3193  0.4143  0.2515
51000W        W93991   3.927   2.713   1.942  0.2015 -0.1312  0.1655
51001W        W93992   2.963  10.105  16.025  0.2179 -0.1369  0.0510
51002W        W93993  33.848   4.164  23.094 -0.0349 -0.1776  0.0707
51003W        W93994  27.350   1.525  23.606 -0.0979  0.0488 -0.7389
51004W        W93995  34.688  20.355  18.370  0.3389 -0.2509  0.0176
51005W        W93996  30.952  25.782  18.899  0.1911  0.1676 -0.3820
51006W        W93997  29.999  33.358   1.104 -0.1099 -0.1059  0.3358
51007W        W93998   6.245  16.333  22.487 -0.1033 -0.1788 -0.1818
51008W        W93999  24.975  32.614  26.581  0.2717  0.1750  0.1181
51009W        W94000  26.959   7.738   5.341  0.2301 -0.2815  0.0330
51010W        W94001  17.039   1.197  10.526 -0.1120  0.0231  0.1674
51011W        W94002  20.968  26.597   4.934  0.2111  0.3280 -0.0397
51012W        W94003  26.268   4.841  25.992 -0.1316  0.3041  0.0842
51013W        W94004  32.427  12.282   6.216 -0.0825 -0.1728  0.2779
51014W        W94005   2.511   7.767   7.453  0.1082 -0.2269 -0.0855
51015W        W94006  34.228  12.321   9.268 -0.0300  0.0028  0.1999
51016W        W94007  29.417  15.300  21.259  0.0722 -0.2679  0.3883
51017W        W94008  17.572   9.432  24.096  0.1902  0.4952  0.1281
51018W        W94009  18.227  31.214   5.365 -0.0104  0.2520 -0.1349
51019W        W94010  32.959   8.227   8.118 -0.2085  0.1170  0.3218
51020W        W94011  30.368  32.960  22.697  0.0494 -0.1525 -0.0044
51021W        W94012  31.691  24.504   3.259  0.1038  0.1800 -0.0417
51022W        W94013  31.366  26.065  28.454  0.1193 -0.2056  0.1442
51023W        W94014  30.105   7.302  22.504  0.1758  0.0223  0.0519
51024W        W94015  12.252   5.326   3.695 -0.1126 -0.2279  0.0893
51025W        W94016  30.951   1.398   6.598 -0.0672  0.2496  0.1851
51026W        W94017  34.677  11.160   7.300 -0.1190  0.0423 -0.3818
51027W        W94018  25.163   5.129  18.886 -0.1498 -0.1155 -0.0174
51028W        W94019  33.592  30.324  22.388 -0.2146  0.2241 -0.2248
51029W        W94020  30.704  14.523  28.922  0.2574 -0.2047 -0.3610
51030W        W94021  26.497  26.272  26.671 -0.1986  0.0744 -0.1162
51031W        W94022  24.354  18.686   6.439  0.5617  0.2154 -0.3549
51032W        W94023  27.570   8.706   1.540 -0.0205 -0.2836  0.0798
51033W        W94024  28.997  19.608   6.646  0.0334 -0.1619 -0.0239
51034W        W94025  28.281  31.677  26.946 -0.0023  0.1811  0.1384
51035W        W94026  23.043  13.418   5.655 -0.3408 -0.0313 -0.0951
51036W        W94027   6.467   2.646   2.007  0.3194  0.3538 -0.1006
51037W        W94028   1.833   5.169   9.043 -0.0368  0.3939  0.0577
51038W        W94029  11.242  29.401  22.532 -0.1686 -0.2878 -0.0807
51039W        W94030  25.035   5.570   6.103 -0.1275 -0.0519  0.2977
51040W        W94031   2.535  29.256   2.170 -0.3135 -0.0067  0.3855
51041W        W94032   6.870   7.788  15.534  0.0734  0.0425  0.1703
51042W        W94033  28.308  14.406   9.185 -0.2817 -0.1730 -0.2028
51043W        W94034  20.687  26.369  17.656  0.3543  0.3537 -0.1167
51044W        W94035   8.754  26.258   6.665  0.0268 -0.0200 -0.0797
51045W        W94036  33.984  28.957   5.434 -0.0619 -0.0215 -0.0609
51046W        W94037   7.292   4.353  22.097 -0.1134  0.2251 -0.2399
51047W        W94038  29.874   1.885   9.248 -0.0383  0.1635  0.0191
51048W        W94039   2.009   3.949   6.435  0.0395  0.1017 -0.3356
51049W        W94040  24.097   9.313   8.548 -0.1019 -0.0616  0.2129
51050W        W94041   6.196  33.855  23.637  0.3933  0.1203 -0.0013
51051W        W94042   0.395  15.569  28.097  0.3677  0.0676  0.0804
51052W        W94043  32.697   0.449   0.286  0.2255 -0.0242 -0.0192
51053W        W94044  22.221  10.132   9.283 -0.3236 -0.0830 -0.2057
51054W        W94045   2.620  31.298  27.236 -0.0829 -0.3568 -0.0443
51055W        W94046   9.185  32.857  28.510  0.1269  0.1075  0.1163
51056W        W94047  11.242   0.199   4.500  0.0321  0.1731  0.0307
51057W        W94048  30.064   6.965  27.017  0.2408 -0.1437  0.1975
51058W        W94049  21.676  10.533   6.528  0.1075  0.3393 -0.3093
51059W        W94050   4.608   7.056  27.776 -0.3391  0.0215 -0.1444
51060W        W94051  33.291  33.885  25.426  0.0329  0.2406 -0.2070
51061W        W94052  29.330   4.284   6.096  0.0044  0.1201 -0.0410
51062W        W94053  12.431  32.147   3.906 -0.1133 -0.0442  0.2056
51063W        W94054  23.862  17.065  21.353 -0.0717 -0.2439  0.2281
51064W        W94055  27.925   3.766  26.052  0.2067  0.1999  0.2318
51065W        W94056   4.977  29.381   8.407  0.0129  0.1659  0.1181
51066W        W94057   4.465  26.145   6.475 -0.0700  0.0411 -0.4917
51067W        W94058  20.637   0.524  27.330 -0.1922  0.0603  0.0077
51068W        W94059  29.151  26.302  21.327 -0.1275  0.1897  0.0279
51069W        W94060   2.245  28.392   6.473 -0.1245 -0.0049 -0.0412
51070W        W94061  32.462   2.347   7.666  0.1920  0.3649 -0.1118
51071W        W94062   3.080  10.205  10.360 -0.0269  0.0672 -0.0371
51072W        W94063  20.382  13.384   4.821 -0.5121  0.0716 -0.0266
51073W        W94064  23.868  10.292   3.250 -0.1985  0.3205  0.0872
51074W        W94065   6.766   4.427  22.968 -0.0273  0.3906  0.2613
51075W        W94066  29.216  11.674  20.169 -0.1182 -0.0727  0.0722
51076W        W94067  32.639  11.017   9.649  0.0143  0.1039  0.0492
51077W        W94068  33.671  29.899  26.827  0.0555  0.0572  0.2110
51078W        W94069  32.638   1.827   4.056  0.0844 -0.0280  0.2283
51079W        W94070  20.355   9.116  19.190 -0.1084 -0.2787  0.1369
51080W        W94071  10.370  32.722   8.204 -0.2216 -0.0890  0.2275
51081W        W94072  33.731   4.894  15.083  0.2014 -0.0161  0.0671
51082W        W94073   2.818   8.106   8.772 -0.2017  0.0088  0.0091
51083W        W94074  30.968  23.518  28.136  0.2762  0.0770  0.1010
51084W        W94075   1.228  11.959   5.610  0.0051  0.0128  0.0109
51085W        W94076  11.159  25.617   5.469  0.0558  0.0564  0.0343
51086W        W94077  32.879   0.875   2.375  0.1629  0.2219  0.2323
51087W        W94078   4.842   6.713   2.859 -0.1261 -0.3098 -0.1279
51088W        W94079   6.949  34.549   3.515 -0.0331 -0.1566 -0.0066
51089W        W94080  11.702   5.968   2.957  0.0560 -0.0613 -0.1922
51090W        W94081  34.713  20.342   0.361  0.2385  0.0001  0.0444
51091W        W94082   2.789  10.064  28.151 -0.4237  0.2411  0.1021
51092W        W94083  31.737   7.495  19.111  0.2571 -0.2750  0.1243
51093W        W94084  22.663  23.093  25.104  0.1072 -0.0932 -0.1616
51094W        W94085  28.221   7.414   3.927  0.4125  0.1028  0.0424
51095W        W94086   2.508   6.690   5.262  0.1166 -0.1803  0.3133
51096W        W94087  12.900   3.225   9.753 -0.0958  0.1148  0.1229
51097W        W94088  15.033   8.707   4.801  0.1064  0.1965 -0.0144
51098W        W94089   0.756   2.582  20.446  0.1659  0.1368  0.3843
51099W        W94090  25.030  21.870   3.020 -0.2784  0.0351 -0.2081
51100W        W94091  23.329  24.973   5.394 -0.0210  0.0068 -0.2152
51101W        W94092  31.831  13.832   8.291 -0.2630  0.1822  0.0982
51102W        W94093  34.140   6.548  17.677  0.0026  0.0013  0.0132
51103W        W94094  33.459  17.876  26.346  0.1084 -0.0632 -0.2888
51104W        W94095  18.463   8.293  18.489  0.0192 -0.0051  0.0193
51105W        W94096  12.832  28.872   6.098  0.0287 -0.0287  0.2512
51106W        W94097  10.860  12.343   5.756  0.0260  0.0403  0.1256
51107W        W94098   0.056  33.216   1.791 -0.1496  0.0875 -0.0625
51108W        W94099   6.567  16.533  25.284 -0.2142  0.0298  0.0139
51109W        W94100  32.308   9.752   1.974 -0.1961  0.2906  0.4007
51110W        W94101  31.520   5.703  24.045  0.1820  0.1017 -0.0861
51111W        W94102  24.072  33.512   4.860  0.0359  0.1330 -0.0122
51112W        W94103   4.218   5.104  28.166 -0.0497 -0.1222 -0.2062
51113W        W94104   5.778  34.180  28.715 -0.3490  0.1692  0.0288
51114W        W94105   5.988  24.972  25.470  0.1365 -0.0375  0.0191
51115W        W94106  32.787   0.971  27.384 -0.0103 -0.1774  0.1068
51116W        W94107  15.534  18.925  25.229 -0.2072  0.0219  0.1633
51117W        W94108   6.394  22.233   6.220  0.0507  0.1169 -0.2795
51118W        W94109  34.289  29.243   4.596  0.2223  0.3859 -0.2632
51119W        W94110  23.477  32.452   1.367  0.3400  0.0264  0.0564
51120W        W94111  23.779  23.630  23.112  0.1612 -0.1768 -0.0068
51121W        W94112  32.792  27.825   8.464  0.3569  0.0507  0.1077
51122W        W94113  31.376  10.141   1.780 -0.0750  0.2009 -0.2318
51123W        W94114  26.354   5.389  23.895  0.3090 -0.1348  0.0943
51124W        W94115  29.391  10.145  23.097  0.0804  0.1505  0.0344
51125W        W94116  21.103   9.928  23.837  0.0690 -0.0964 -0.0908
51126W        W94117  15.593   1.994  27.613 -0.4988  0.0552  0.1322
51127W        W94118   0.477  33.771  18.786 -0.2230 -0.1153  0.4971
51128W        W94119  30.077   7.052   6.521 -0.0828 -0.0029  0.0212
51129W        W94120  29.178  27.009   5.481 -0.1818  0.0575  0.3185
51130W        W94121  15.757  24.607   9.501  0.0170 -0.0541  0.1959
51131W        W94122   0.748  18.482   4.410 -0.3637  0.3144  0.1828
51132W        W94123  24.156  29.254   8.707  0.0609  0.0778 -0.1967
51133W        W94124   9.240  34.475   2.162 -0.0498  0.2442 -0.3894
51134W        W94125  11.031  33.967   9.655 -0.2374 -0.0791  0.4915
51135W        W94126  33.335   4.502   7.231  0.5260  0.2235 -0.0466
51136W        W94127   2.868  30.643   8.863 -0.1909  0.0795  0.0665
51137W        W94128  23.196  30.046  24.319 -0.2357  0.1147 -0.1420
51138W        W94129   6.710  13.785   9.547  0.0559  0.0115 -0.0802
51139W        W94130  19.916  14.395   4.013  0.3630  0.2448  0.0378
51140W        W94131  31.806  28.850   3.328 -0.2100  0.0407 -0.1101
51141W        W94132  29.236   5.095  27.680  0.2073  0.0028 -0.2091
51142W        W94133  31.995   0.418   9.528  0.3763  0.2495 -0.3561
51143W        W94134   2.305   0.681   5.450 -0.0202 -0.1828 -0.0231
51144W        W94135  31.641   0.857   3.475  0.3577  0.1169 -0.1965
51145W        W94136  28.815   1.545   0.526  0.0922 -0.0957 -0.1249
51146W        W94137  31.374   9.165   4.495  0.1739  0.0070  0.0185
51147W        W94138  29.756  34.202   0.571 -0.2404  0.1143 -0.2982
51148W        W94139   8.419  32.373   8.102  0.0244  0.0674  0.2427
51149W        W94140  23.429  30.150   0.320 -0.0561  0.0725  0.2346
51150W        W94141  20.405  29.257   3.164 -0.1127  0.0563  0.1329
51151W        W94142  29.966  22.856  10.409 -0.1466  0.0413 -0.2872
51152W        W94143  20.833  32.482  19.853  0.1982 -0.0041  0.0532
51153W        W94144  25.658  25.248  28.164 -0.0959 -0.3588  0.4480
51154W        W94145  21.525   0.465   6.640  0.2569  0.0611  0.1024
51155W        W94146  25.980  15.334   3.966  0.4402  0.2924 -0.1211
51156W        W94147  20.826  32.488  28.698  0.1505  0.2601  0.1976
51157W        W94148  13.998  27.283   8.924  0.0949  0.1050  0.2451
51158W        W94149   6.100  33.426  28.690  0.0657  0.1286  0.1790
51159W        W94150   1.847  18.608   1.313  0.0483 -0.2773  0.2222
51160W        W94151   8.070   3.831  10.264 -0.2710 -0.2007 -0.0335
51161W        W94152   2.497  27.877   0.225  0.2002 -0.0829 -0.2217
51162W        W94153  10.549  23.676  25.891 -0.4411 -0.0692  0.3580
51163W        W94154  27.161  23.183  15.766  0.3651 -0.2803 -0.1437
51164W        W94155  27.301   9.583   4.253 -0.2037  0.0736  0.1283
51165W        W94156  26.969   9.316  24.581  0.0809  0.3035 -0.2532
51166W        W94157   6.927  13.326  23.175  0.1306  0.1327  0.0420
51167W        W94158  25.943  23.298   4.550  0.1111 -0.1270  0.1782
51168W        W94159  12.370  28.421  21.022  0.0442  0.2989  0.2090
51169W        W94160   0.682   5.011  21.134  0.1137 -0.1364  0.1494
51170W        W94161   8.528  34.649   2.419  0.2706 -0.2103  0.0981
51171W        W94162  22.347  28.040  21.683 -0.0387 -0.0958 -0.0217
51172W        W94163  26.549  28.229  23.167 -0.0255  0.3999 -0.2767
51173W        W94164  29.372   6.849   1.164 -0.1638 -0.0290 -0.0587
51174W        W94165  27.161  16.096   3.605 -0.0959 -0.3157  0.0607
51175W        W94166  28.251   9.906   4.216 -0.0328 -0.2067 -0.0902
51176W        W94167  17.760  24.605   4.592  0.1147  0.0311  0.0227
51177W        W94168  33.319   4.374   6.379  0.0494  0.0337 -0.2098
51178W        W94169  26.733   6.068   7.120 -0.1876 -0.0964  0.3283
51179W        W94170  32.864   3.181  25.947  0.0626 -0.1893  0.0685
51180W        W94171  31.204  11.771   6.199 -0.1601 -0.2060  0.2440
51181W        W94172  23.685   6.759  28.689  0.1286  0.1687 -0.1464
51182W        W94173   2.689  10.855   3.872  0.0183  0.2319 -0.0546
51183W        W94174  34.184  16.691  23.769  0.0765 -0.0068  0.0166
51184W        W94175  34.034  29.776   3.817 -0.2397  0.0358  0.2490
51185W        W94176  30.823  32.792   7.042 -0.2884 -0.0395  0.2053
51186W        W94177  32.390   2.126   9.645  0.0523 -0.0231  0.2070
51187W        W94178  31.997  22.278   9.630 -0.0654  0.3045 -0.3274
51188W        W94179  24.005   6.191   7.071  0.0800  0.0476 -0.1529
51189W        W94180  34.080   5.762  24.331 -0.2174 -0.2471  0.0887
51190W        W94181   1.572   5.872   1.980  0.3180  0.1984  0.0740
51191W        W94182  15.197  31.413  18.347 -0.1746  0.1854 -0.0823
51192W        W94183  21.388   1.898   1.787  0.0994  0.2287 -0.1715
51193W        W94184  29.644   4.844   9.727 -0.3030 -0.0123 -0.1480
51194W        W94185   1.122  23.544   4.208  0.0360  0.0476 -0.1898
51195W        W94186  21.639  27.465  21.446  0.0183  0.1398  0.2555
51196W        W94187  24.472   7.571   0.011  0.2581  0.2254 -0.2923
51197W        W94188   6.329  26.660  18.491 -0.0675 -0.0849  0.1510
51198W        W94189   6.394  20.994   5.553  0.0177 -0.0187 -0.0211
51199W        W94190   5.934  26.991   9.480  0.1399  0.0727  0.0591
51200W        W94191  10.647  32.419   4.918 -0.0295  0.0557 -0.0061
51201W        W94192  32.283   4.218   7.935  0.1113 -0.1841  0.0323
51202W        W94193  14.057  19.675  21.811 -0.1002 -0.0950  0.0354
51203W        W94194   2.776   8.541  15.606  0.0719  0.1326  0.3835
51204W        W94195  11.377  11.463  16.868  0.1838  0.5224 -0.0272
51205W        W94196  20.984  11.820  25.264  0.1652  0.0074 -0.0011
51206W        W94197   4.183   7.686   9.693  0.1380  0.2838  0.0154
51207W        W94198   3.704  33.961   5.193  0.0252 -0.1382  0.2270
51208W        W94199  32.678   5.639   5.581 -0.1202 -0.0059  0.1946
51209W        W94200  22.553   3.189   0.430 -0.1156  0.2099  0.1570
51210W        W94201  33.294  10.714   6.377 -0.0971 -0.1016  0.3658
51211W        W94202  30.631  34.071   7.283 -0.0232  0.0599  0.0635
51212W        W94203  27.567  32.083  21.594  0.0024 -0.0627  0.0586
51213W        W94204  20.726   4.134   4.899 -0.0677 -0.0988 -0.1498
51214W        W94205  16.463   6.072  10.147 -0.2917  0.2187  0.0940
51215W        W94206   2.371  22.786   1.024 -0.1017  0.1929 -0.0414
51216W        W94207  13.295  20.661   0.911 -0.2056 -0.1286 -0.0041
51217W        W94208   9.320  31.699   2.320 -0.0775  0.0480  0.0338
51218W        W94209   8.689  14.774  22.430  0.2125  0.1450  0.3541
51219W        W94210  28.231   6.333   4.246 -0.1438 -0.1199 -0.0977
51220W        W94211   5.699  31.825   8.289 -0.0534  0.0442  0.0082
51221W        W94212  23.681  18.388  24.972 -0.1532 -0.0301  0.0441
51222W        W94213  14.279   1.735  26.788  0.1739  0.0682 -0.1807
51223W        W94214  25.209  25.867   2.710  0.0734 -0.0165  0.1200
51224W        W94215  33.574  31.238   1.159  0.5657 -0.4811  0.2870
51225W        W94216  18.250  33.518   5.554  0.2059 -0.1229  0.2413
51226W        W94217  13.895  31.441  27.153  0.0753 -0.2646  0.0412
51227W        W94218  14.554  13.244  27.709 -0.1058  0.1128 -0.1646
51228W        W94219  32.738   5.021  24.770  0.0470  0.1379  0.1021
51229W        W94220  33.230   2.520   5.384 -0.1136 -0.1019 -0.0157
51230W        W94221  24.567   7.560   1.772  0.1227  0.1335  0.1582
51231W        W94222   9.371  12.517   1.120  0.2560  0.0910  0.1230
51232W        W94223  10.519   1.866   5.901 -0.1912 -0.1772  0.1612
51233W        W94224  26.416  12.199   9.251 -0.0930  0.0149 -0.0071
51234W        W94225  26.476  33.006  22.725 -0.2479 -0.1436  0.3067
51235W        W94226  20.980   4.655   6.859 -0.0638 -0.0767 -0.1906
51236W        W94227  24.858   2.833   5.126 -0.2730 -0.1440 -0.3780
51237W        W94228  30.236   7.409  25.192  0.3169  0.0322  0.0395
51238W        W94229  24.180  31.038   8.007 -0.1397 -0.1976 -0.3322
51239W        W94230   5.060  31.999   2.728  0.0558 -0.1923 -0.2266
51240W        W94231   2.129   3.951  27.940 -0.0519  0.0391 -0.0217
51241W        W94232   4.493   8.826   4.300 -0.1175 -0.2416 -0.0319
51242W        W94233  10.898  15.766  26.690  0.2386 -0.0441 -0.0055
51243W        W94234  29.305  11.409   1.475  0.0040 -0.3478  0.0780
51244W        W94235  29.811   8.475   6.278 -0.1125 -0.1881 -0.2034
51245W        W94236  27.120   6.578   2.116  0.3523 -0.1036 -0.0613
51246W        W94237  15.627   3.527   6.293 -0.0980 -0.1079  0.2605
51247W        W94238  15.476  22.653   1.271 -0.0460  0.2486  0.0200
51248W        W94239   8.428  28.859   7.614 -0.0684  0.1313  0.3669
51249W        W94240   3.406   6.065   9.515 -0.0713  0.1674  0.3136
51250W        W94241   1.980   4.409   0.841  0.2959  0.1711 -0.1189
51251W        W94242  19.912   8.136   8.562  0.1860 -0.4318  0.0616
51252W        W94243   2.474  15.721   1.866  0.1824 -0.1357  0.1368
51253W        W94244  31.762  14.342   6.402  0.3834  0.1472 -0.1605
51254W        W94245  28.491  13.951  23.775 -0.0809  0.3323  0.2921
51255W        W94246  22.939   7.057   8.094  0.0570 -0.1041  0.3620
51256W        W94247  21.116   8.891   6.232  0.0542  0.4238  0.1395
51257W        W94248   0.968   3.716  25.758  0.0060 -0.0496  0.1719
51258W        W94249  18.994   7.222  18.708 -0.1175  0.2601 -0.2125
51259W        W94250   4.132  28.260  28.737 -0.2887  0.4042  0.0222
51260W        W94251  31.583   9.569  22.374  0.0318 -0.1098  0.2760
51261W        W94252   6.728  30.189   3.063 -0.0214 -0.0625  0.1634
51262W        W94253   1.622   9.571   8.827 -0.2769  0.0246 -0.3472
51263W        W94254   8.672  10.708   1.702 -0.3580  0.5095  0.2748
51264W        W94255   7.240  25.417   3.952  0.0068 -0.0062 -0.0113
51265W        W94256  27.041  32.875  13.032 -0.1667 -0.2643 -0.1021
51266W        W94257   3.478   6.586  25.618  0.1509  0.0943 -0.2201
51267W        W94258  24.755   4.253   8.544 -0.3293  0.2759 -0.1708
51268W        W94259   9.005   8.006  26.147  0.1212  0.0583 -0.0031
51269W        W94260  14.871  33.168   5.405  0.2661  0.3358 -0.1624
51270W        W94261  15.032  12.911  25.288 -0.0207  0.1806 -0.0958
51271W        W94262   6.409   4.900   9.262 -0.3806  0.0049  0.0587
51272W        W94263  24.026  31.576   2.157 -0.2792 -0.0067  0.1633
51273W        W94264  25.863  30.510  28.069 -0.1233 -0.0758 -0.0475
51274W        W94265  14.690  13.139   5.544  0.0694  0.1314  0.1022
51275W        W94266  14.885   9.695   1.533  0.0958 -0.2448  0.0547
51276W        W94267   5.934   5.610   7.582  0.2758  0.0149  0.1482
51277W        W94268  30.499  20.260   2.038 -0.1818  0.0877  0.0822
51278W        W94269  17.356   8.820  26.727  0.0319  0.3476 -0.1823
51279W        W94270  34.439  10.389  11.308  0.2277  0.1048  0.0855
51280W        W94271  29.804  26.463   5.677  0.0375 -0.0010 -0.0718
51281W        W94272  10.867  28.243  22.446  0.2788 -0.1482 -0.2011
51282W        W94273   2.606  27.399   1.065  0.1488 -0.4000 -0.0618
51283W        W94274   2.377  12.308   3.568  0.0126  0.2049  0.0214
51284W        W94275  33.815  15.881   3.151 -0.2780 -0.0451 -0.2993
51285W        W94276  22.364  34.481   5.829 -0.1388  0.1566  0.4727
51286W        W94277  31.670  12.459   3.672  0.0351  0.2333  0.3912
51287W        W94278   0.117  32.237   6.618  0.3273  0.0155  0.2286
51288W        W94279  14.982  32.695   3.389  0.0401 -0.1256 -0.0764
51289W        W94280   6.927  20.526   8.870 -0.0005 -0.0591  0.0914
51290W        W94281   2.108   5.701   6.092 -0.1800  0.1949  0.2490
51291W        W94282  28.525   0.840  21.412 -0.1013 -0.0415 -0.0658
51292W        W94283  34.406  14.980   9.329 -0.0423  0.0781 -0.1090
51293W        W94284   6.053  22.604   4.177 -0.0809  0.0033 -0.0516
51294W        W94285  34.424  33.886  27.505 -0.1280 -0.1313  0.1448
51295W        W94286  30.630  16.970  19.949  0.1339  0.3693 -0.0571
51296W        W94287  30.418  33.128   7.148 -0.1474 -0.0155 -0.1974
51297W        W94288  30.079   2.635   3.133  0.0146 -0.1991  0.0580
51298W        W94289  10.481   2.247  28.819  0.4472 -0.0253 -0.0944
51299W        W94290  14.297  27.049   7.232 -0.0466  0.0199  0.0591
51300W        W94291  25.058   5.519   3.990  0.2596 -0.0384 -0.2594
51301W        W94292   4.679   0.161  23.726  0.1756  0.5015  0.2091
51302W        W94293  29.353   5.199  15.017  0.2786  0.0736 -0.3592
51303W        W94294  28.330   7.554   5.284  0.2493 -0.1413  0.0331
51304W        W94295  22.500  13.478   5.472  0.2432  0.0346  0.0993
51305W        W94296   2.642   3.262  11.046 -0.1334  0.0027  0.1300
51306W        W94297  22.959  24.053  21.748 -0.0212  0.2927  0.2570
51307W        W94298  25.858  34.584   8.191 -0.1813  0.0040  0.1406
51308W        W94299   4.600   8.785   1.099  0.1739  0.2576  0.3910
51309W        W94300  21.281  14.658  28.243  0.1382 -0.0562  0.1196
51310W        W94301   5.324  12.743   9.768 -0.0822 -0.0140  0.0203
51311W        W94302   1.724   8.183   9.986  0.1113  0.1236  0.1256
51312W        W94303  27.025   1.392   5.537 -0.0566  0.0643 -0.0012
51313W        W94304  27.781  31.278   2.833  0.0958  0.0379 -0.2371
51314W        W94305  21.406  33.313   4.455 -0.0880 -0.2641 -0.2433
51315W        W94306  28.208  15.702   2.883  0.1269  0.2595  0.0392
51316W        W94307  31.793  12.388   2.453  0.1472 -0.1212 -0.1317
51317W        W94308   0.974  16.158   3.395 -0.3979  0.0648 -0.0282
51318W        W94309  23.196   2.005   1.534 -0.0222  0.2517 -0.2794
51319W        W94310  30.378  14.220   1.507  0.0183 -0.1404 -0.3469
51320W        W94311  28.188  19.889   3.417  0.0417 -0.3588  0.1237
51321W        W94312  32.511   3.662   3.722  0.4153  0.0797  0.0808
51322W        W94313  32.314   1.895   7.216  0.1998  0.1704  0.1817
51323W        W94314   4.706  34.266   6.110  0.2917  0.0047 -0.4326
51324W        W94315  19.385   8.787   8.965  0.3701  0.0975  0.1795
51325W        W94316  24.868   4.000  24.848 -0.1580 -0.1081  0.1188
51326W        W94317   3.608  14.481  28.455  0.3505 -0.1130 -0.0963
51327W        W94318   4.416  29.599  19.076 -0.0453  0.0005 -0.0063
51328W        W94319  32.016   3.842   6.918  0.0356 -0.0896 -0.0340
51329W        W94320  17.386  12.664   0.181 -0.1028  0.0762  0.0429
51330W        W94321   3.979  34.650   5.748  0.0247 -0.1406  0.3796
51331W        W94322   9.366   6.884   8.660 -0.0566  0.1135  0.2182
51332W        W94323   1.274  25.590   7.626 -0.1429  0.0680 -0.0613
51333W        W94324  10.966  25.836  10.337  0.2406 -0.3664 -0.0068
51334W        W94325  31.420   3.763   4.279  0.0599 -0.5222 -0.2994
51335W        W94326   5.772  13.640  10.044  0.2920  0.0072  0.0350
51336W        W94327   6.619  11.437   2.547  0.0866 -0.0572  0.1676
51337W        W94328   9.568   8.803   0.958 -0.0238  0.0497 -0.0230
51338W        W94329  22.357  29.056   4.955 -0.0426 -0.0745  0.1537
51339W        W94330   6.823  31.225   6.461  0.0730  0.0753 -0.2220
51340W        W94331   2.150   7.269   8.911  0.0087 -0.0278  0.0633
51341W        W94332   5.867   1.869   7.500  0.2496  0.1847 -0.3655
51342W        W94333  30.227  30.554  28.354  0.1817 -0.2769  0.1256
51343W        W94334  12.618  17.867  23.049  0.0052  0.2171 -0.1822
51344W        W94335  25.414  24.466  25.543  0.1163  0.1204 -0.0040
51345W        W94336  33.266  14.189   1.127 -0.1241  0.1668  0.0134
51346W        W94337  23.552   3.930   8.738  0.3391 -0.0206  0.5191
51347W        W94338  13.216   6.014  10.334  0.4736 -0.1413 -0.1258
51348W        W94339  27.626  27.423  23.669 -0.0233  0.1378 -0.0621
51349W        W94340  25.116   5.936  27.327  0.0130  0.0672 -0.2459
51350W        W94341  30.366  15.608   7.026 -0.1153 -0.0737  0.0243
51351W        W94342  33.808  33.142   7.637 -0.0457  0.1997 -0.0582
51352W        W94343   2.925   7.475   7.582  0.3500  0.1033  0.0285
51353W        W94344  28.183  25.501   3.745 -0.2586  0.0544 -0.0637
51354W        W94345  26.155   6.674  24.358  0.1033  0.0426 -0.0752
51355W        W94346  27.138   8.947   4.627  0.0348 -0.1802  0.0170
51356W        W94347  30.434  28.500   0.078 -0.0895 -0.2661 -0.1952
51357W        W94348   3.376  21.944  17.123  0.0923 -0.1885  0.2435
51358W        W94349  30.558   9.504   6.578 -0.1277 -0.0248 -0.0726
51359W        W94350  24.041  32.416   8.321 -0.0905 -0.2739 -0.2366
51360W        W94351  14.906  13.372  25.254  0.1161  0.2772  0.0172
51361W        W94352   5.555   9.560  27.770 -0.1832 -0.0819  0.3479
51362W        W94353  11.091   9.556   5.666  0.1029 -0.2519  0.1541
51363W        W94354   4.465  28.302  24.022 -0.0857  0.0392 -0.1341
51364W        W94355   1.975   3.442   8.525  0.1845  0.3148  0.0187
51365W        W94356  32.111   9.618   1.503  0.0293  0.1982 -0.0799
51366W        W94357  19.109  28.369   5.908 -0.1749  0.2610 -0.0791
51367W        W94358   4.103  11.919   0.361 -0.0964  0.1121 -0.0902
51368W        W94359   2.793  10.549   9.858  0.1588 -0.1984 -0.1252
51369W        W94360  17.726   7.388   6.468  0.0329 -0.3673  0.3707
51370W        W94361  21.304  30.323   8.091 -0.3644 -0.0095  0.1065
51371W        W94362  24.577  29.514  26.032  0.0407  0.0137  0.1029
51372W        W94363  32.055  26.414  23.054 -0.1704 -0.1923 -0.1632
51373W        W94364  33.532  20.067   3.628  0.2355 -0.1986  0.0638
51374W        W94365  32.761  12.470  28.769  0.2611  0.1001 -0.4393
51375W        W94366   0.980  23.731  25.990 -0.0855  0.2457  0.0658
51376W        W94367  26.708  15.179   2.592 -0.0697  0.2987  0.0699
51377W        W94368   0.338  32.368   9.251 -0.5076 -0.0942 -0.3716
51378W        W94369  20.716  12.014   6.955 -0.0803 -0.0524  0.3535
51379W        W94370  19.739   4.731  28.155  0.2215 -0.1661  0.1524
51380W        W94371   1.428   9.034  10.232 -0.0674  0.1255  0.1383
51381W        W94372  34.292   9.578   8.569  0.1994 -0.0663  0.0802
51382W        W94373  30.811   2.894  20.039 -0.0438  0.1517 -0.0046
51383W        W94374  30.477   0.124   6.284 -0.0859  0.3405  0.3732
51384W        W94375  26.700   8.218  24.076  0.2575  0.0856 -0.4703
51385W        W94376  28.299  33.474   8.776 -0.3166 -0.4540  0.0609
51386W        W94377  19.453  29.172   6.404 -0.0839 -0.1261 -0.2098
51387W        W94378  27.032   8.649  18.295  0.2055 -0.4225 -0.1169
51388W        W94379  26.751  17.516  10.422  0.0261  0.1027 -0.4620
51389W        W94380  33.153  34.696  27.539 -0.0915 -0.0629 -0.3530
51390W        W94381  29.767  31.736   8.030  0.1447  0.0187  0.0132
51391W        W94382  21.291  31.237   2.241  0.1060  0.2871  0.1799
51392W        W94383  22.898   3.582   2.832  0.3337  0.1915 -0.0001
51393W        W94384  18.764  28.729   0.238 -0.1953  0.0002  0.1484
51394W        W94385  23.752   0.673   3.840 -0.1163 -0.3238  0.3685
51395W        W94386   1.275   8.044   7.247 -0.0388 -0.1344  0.1985
51396W        W94387   1.963   9.060   8.367 -0.1518 -0.0432  0.2175
51397W        W94388   0.247  30.680   9.513  0.0340 -0.1848 -0.1744
51398W        W94389  11.325  28.697   9.038 -0.1209  0.0059 -0.0560
51399W        W94390  21.773   4.338   2.712  0.0013  0.1571 -0.0283
51400W        W94391  20.968  23.331  28.711 -0.1584  0.5245  0.2533
51401W        W94392  18.286  33.335   2.489  0.4844  0.3905 -0.0317
51402W        W94393  25.003  33.861  26.043 -0.0020  0.1415  0.0112
51403W        W94394  31.649  32.427   5.467 -0.2649 -0.1167  0.1050
51404W        W94395  33.751  28.872  27.751  0.1130  0.0738 -0.0622
51405W        W94396  13.426  11.946   0.256  0.1120 -0.4106 -0.3227
51406W        W94397  15.764  31.094  26.806 -0.2611 -0.5770 -0.1405
51407W        W94398  15.394   1.681  29.129 -0.7164 -0.2658 -0.1879
51408W        W94399   0.712  19.220   8.868  0.3169 -0.1268 -0.1220
51409W        W94400  27.754  33.519  26.902  0.1654 -0.1678 -0.3047
51410W        W94401  32.480   7.041   5.551 -0.0629  0.0812 -0.0214
51411W        W94402   3.433  31.922   0.817 -0.1977 -0.1042 -0.2099
51412W        W94403   2.030  13.894   6.788  0.0187 -0.1586  0.1412
51413W        W94404  34.679  33.356  28.025 -0.1250  0.2137  0.1421
51414W        W94405   2.949   1.858  16.139 -0.1335 -0.2328 -0.1266
51415W        W94406  17.123  21.504  18.595 -0.0287 -0.2630  0.1039
51416W        W94407   4.846   8.771  28.459  0.0800 -0.2568  0.1709
51417W        W94408  32.368   0.600   9.225  0.1399  0.1992  0.3463
51418W        W94409   4.824   7.087  10.240  0.0661 -0.1699 -0.1321
51419W        W94410   7.167   4.260   2.535  0.1356  0.0726  0.2723
51420W        W94411   4.563  27.067   9.243 -0.1935 -0.0838 -0.0713
51421W        W94412  20.344   7.392   6.632 -0.2957  0.1346 -0.1443
51422W        W94413  26.767   6.118   5.440  0.1361  0.1123  0.1079
51423W        W94414  30.628  30.830   7.269 -0.3792 -0.4913  0.0597
51424W        W94415  28.919  32.527  27.525  0.1454 -0.0249 -0.2658
51425W        W94416  22.177  31.871   2.006  0.2369  0.0117 -0.2261
51426W        W94417  28.278  31.212   2.651 -0.2713 -0.1968  0.2804
51427W        W94418   7.452  34.538   5.714 -0.0138 -0.3284 -0.1770
51428W        W94419  26.687  27.212  27.114  0.4858 -0.2130  0.1476
51429W        W94420  34.096   7.910  28.452 -0.2557 -0.1103  0.0976
51430W        W94421  31.375  12.681   3.332  0.1836  0.1553 -0.1514
51431W        W94422   3.950  30.353  26.589  0.3214  0.1901  0.1331
51432W        W94423  19.886   8.219   3.502 -0.4720  0.1132  0.0530
51433W        W94424   4.832  17.223  24.748 -0.1464 -0.2028 -0.6934
51434W        W94425  33.328   1.167   6.886  0.0315  0.0228 -0.0876
51435W        W94426   6.300  22.853   1.901  0.1493  0.2342  0.1691
51436W        W94427  16.780  31.466  27.972 -0.0639  0.0937 -0.0724
51437W        W94428  29.747   5.890  28.482  0.0278  0.1417  0.2225
51438W        W94429   4.630  23.519  26.739  0.3694  0.1067 -0.0339
51439W        W94430  32.870  32.535   8.096 -0.1511  0.3505 -0.3894
51440W        W94431  31.903  26.419   4.048  0.0221  0.1650  0.0982
51441W        W94432  27.706  13.595   3.680  0.1890  0.3745  0.3740
51442W        W94433  11.682  30.621   9.218  0.3415 -0.2519  0.1463
51443W        W94434  31.010   0.773   3.350 -0.4546 -0.1886 -0.0677
51444W        W94435  30.030  11.480   3.100 -0.0757 -0.1756 -0.1443
51445W        W94436  21.166   7.679  29.249  0.1158  0.2609  0.0334
51446W        W94437  19.775   6.418   8.079  0.0537 -0.0728  0.0707
51447W        W94438  11.595  30.987  27.167 -0.1782  0.2928  0.1164
51448W        W94439  27.083   2.708  27.381  0.1039  0.3950 -0.0820
51449W        W94440  12.239  15.790   1.281 -0.0575 -0.0435 -0.1727
51450W        W94441   2.742   1.753   9.795 -0.0295  0.2676  0.1174
51451W        W94442  19.209  26.826   1.481 -0.0566  0.1079  0.0615
51452W        W94443   1.942   8.263  10.409 -0.0192 -0.0754 -0.0003
51453W        W94444  10.895   8.417  27.770 -0.2205  0.1870  0.1208
51454W        W94445  27.221   8.044   3.852  0.0234  0.2553 -0.0165
51455W        W94446   7.871  24.321   7.788 -0.2037 -0.2386  0.1365
51456W        W94447   9.997  26.702   4.539 -0.0402 -0.3323  0.0448
51457W        W94448  33.616  12.728   6.625 -0.0761  0.1695 -0.1120
51458W        W94449  30.984  17.985  17.309  0.3395  0.0423  0.0221
51459W        W94450   4.051  29.312  28.345  0.1970  0.2253  0.0182
51460W        W94451   9.176   3.603   6.646  0.2982  0.2094  0.3327
51461W        W94452   1.609   4.713   8.829  0.0561  0.1962 -0.0284
51462W        W94453   2.162  11.180   9.525  0.2188 -0.3685 -0.0335
51463W        W94454   6.417   1.070   2.190  0.0401 -0.1401  0.4752
51464W        W94455  25.925  17.101  14.636 -0.1591  0.0949 -0.0133
51465W        W94456  20.105  11.949   4.048  0.0642 -0.0221  0.0605
51466W        W94457  31.181  10.590   6.150 -0.1177  0.3977  0.3438
51467W        W94458  16.325  29.707   5.538  0.0019 -0.0878  0.1875
51468W        W94459   8.382   7.026   8.776  0.1730 -0.1533 -0.1878
51469W        W94460  11.580  30.583   1.442 -0.3386  0.1358  0.0937
51470W        W94461  17.320  12.843   4.412  0.0868  0.0333 -0.2916
51471W        W94462  29.087  32.282  22.021  0.0357  0.1170  0.0371
51472W        W94463  11.579  27.267   6.188  0.0247  0.1705  0.1014
51473W        W94464   3.694  34.104   8.179 -0.2394  0.0173  0.2392
51474W        W94465  33.899  17.872   3.785  0.2802  0.0289  0.2208
51475W        W94466  27.961  29.992   6.048 -0.0286  0.0332  0.0338
51476W        W94467   4.252  13.342   9.030 -0.0143  0.0298 -0.2119
51477W        W94468   6.240  26.525   8.001 -0.0633  0.2094 -0.0034
51478W        W94469   0.333  18.807   3.701 -0.0481  0.0148  0.0620
51479W        W94470   1.951   8.474   4.825  0.0107 -0.0005 -0.0640
51480W        W94471  12.048   5.679   6.184  0.1057 -0.2193 -0.1510
51481W        W94472  17.352  34.116  26.609 -0.0257  0.2573  0.0875
51482W        W94473   2.831  10.271  21.749 -0.2823 -0.0920  0.0796
51483W        W94474  33.879   0.853  17.303 -0.1603  0.0751 -0.1285
51484W        W94475   9.613  12.994   8.936 -0.0766 -0.0297  0.0236
51485W        W94476   1.333   3.869   4.299 -0.4095  0.0154 -0.3861
51486W        W94477  11.324  12.071  29.221 -0.0567 -0.3158 -0.0647
51487W        W94478   8.515   5.642  26.919  0.1287  0.0542  0.2747
51488W        W94479  20.270   4.842  14.515  0.2498  0.0585  0.1556
51489W        W94480   5.906   9.433  19.650 -0.0686  0.1094 -0.2768
51490W        W94481   8.642  18.748   6.180  0.1003 -0.2341  0.0927
51491W        W94482  10.472  26.174  20.043 -0.0656 -0.0112  0.0198
51492W        W94483   7.348  30.521  15.829 -0.0378  0.0693  0.2824
51493W        W94484  24.570  33.326  23.882 -0.1230  0.1185  0.1111
51494W        W94485   2.873  11.058  20.997  0.0929 -0.0972  0.1515
51495W        W94486  13.709  18.343   7.180 -0.0313  0.0883  0.2079
51496W        W94487   6.347   1.633  23.701 -0.0078  0.1421 -0.2099
51497W        W94488  27.331  29.804  24.140  0.0441 -0.2750  0.0000
51498W        W94489  34.507  27.067   3.892  0.5328 -0.1601  0.0074
51499W        W94490  31.890  11.192   4.590 -0.2456  0.0088 -0.1126
51500W        W94491  25.256  12.241   6.019  0.1972 -0.0801 -0.1245
51501W        W94492  14.130  33.266   3.210 -0.2957  0.1129 -0.0083
51502W        W94493  22.904   2.026   5.191  0.3037 -0.2108 -0.2342
51503W        W94494  29.756   2.012   5.547  0.3762 -0.3490 -0.1075
51504W        W94495  31.471  24.929   1.065  0.1641 -0.0878  0.0328
51505W        W94496  22.942  16.955   2.076 -0.1036 -0.0307 -0.0040
51506W        W94497   2.584   3.516   0.791  0.1058  0.1407 -0.0281
51507W        W94498   1.012   9.189  25.616  0.0304 -0.3805 -0.1008
51508W        W94499   4.396   8.230  11.121 -0.1691  0.1321 -0.2583
51509W        W94500  16.489   5.778   8.828 -0.2420  0.2440  0.1542
51510W        W94501  23.788  11.382   5.272 -0.1364 -0.0634  0.1522
51511W        W94502   8.159   4.891   3.124  0.1743 -0.2765  0.4356
51512W        W94503  14.024   4.455  28.628 -0.1832  0.0559  0.0461
51513W        W94504  28.889   8.901  19.424 -0.3923 -0.1917  0.0780
51514W        W94505   2.714  10.200  20.121 -0.1004  0.4243 -0.0099
51515W        W94506  31.479  34.508  28.148 -0.3574 -0.1836 -0.1612
51516W        W94507  13.790  13.840  21.778 -0.2734 -0.0318 -0.1444
51517W        W94508  14.783  13.053   9.227 -0.2337  0.1385 -0.0418
51518W        W94509  28.683  23.553  25.533 -0.3101  0.1830 -0.1465
51519W        W94510   2.453  25.683   9.258 -0.1382  0.0203  0.2729
51520W        W94511  28.317  12.792  15.057  0.2126  0.0607 -0.0140
51521W        W94512  34.043  18.945  29.114  0.0652 -0.0281  0.4310
51522W        W94513   8.586   2.970   7.716 -0.0076  0.1528  0.2660
51523W        W94514   0.722   4.386  27.227  0.1519  0.0983 -0.0137
51524W        W94515  28.474  33.910   3.065  0.2169 -0.0409 -0.0770
51525W        W94516  34.398  15.768  25.755  0.0500 -0.0218 -0.1902
51526W        W94517  14.103  17.318  27.734  0.1433  0.1915  0.2153
51527W        W94518   3.894  32.844   5.759 -0.1821 -0.0175  0.0161
51528W        W94519  14.357  28.081  27.873  0.1040  0.0217 -0.0026
51529W        W94520   9.598  20.958  15.303 -0.3573 -0.1032  0.0654
51530W        W94521  25.961  11.386  28.512  0.2213 -0.1944  0.3206
51531W        W94522   5.058  15.358   9.604 -0.1035 -0.3535 -0.0380
51532W        W94523  11.145  33.237   5.709  0.0152 -0.0727  0.4643
51533W        W94524  23.034  34.001  23.166  0.1499 -0.1557 -0.0915
51534W        W94525   3.537  11.739  27.142  0.0868  0.1147  0.0167
51535W        W94526  26.552  21.802   1.248  0.0084  0.0025 -0.1817
51536W        W94527  34.416  10.571   8.491  0.2069 -0.2533 -0.0515
51537W        W94528  24.052  31.965   9.124 -0.0290  0.0383 -0.3309
51538W        W94529   2.244  21.090   0.421 -0.1149 -0.1308  0.0858
51539W        W94530   1.262  33.055   0.016  0.1697 -0.2830 -0.0674
51540W        W94531  28.803  23.502  20.323  0.0939 -0.2166 -0.0852
51541W        W94532  32.995   8.289   4.936 -0.0957  0.4333 -0.3309
51542W        W94533  34.666  31.647  27.313 -0.2568 -0.1717  0.1453
51543W        W94534  24.258  10.219   0.167  0.1126  0.1187  0.0201
51544W        W94535   7.679   6.024  26.781  0.2350  0.2983 -0.2218
51545W        W94536  29.082   1.424   1.970 -0.0698 -0.2564 -0.0344
51546W        W94537   5.851   5.097   0.808 -0.1097 -0.0743  0.1409
51547W        W94538  31.595   1.934   5.953 -0.0702 -0.2505 -0.0120
51548W        W94539  32.905  11.775   8.994  0.3051 -0.0380  0.1655
51549W        W94540  26.890   5.246   3.901  0.3002 -0.3522 -0.0172
51550W        W94541   3.581   8.870  26.388 -0.1258 -0.0894 -0.3538
51551W        W94542  27.230  28.404  22.986  0.1651 -0.1965 -0.0306
51552W        W94543   4.729  10.039   0.908 -0.0908 -0.2600  0.0488
51553W        W94544  25.108   1.873   4.661 -0.1543  0.0210  0.1401
51554W        W94545  16.230   7.144   3.372 -0.2835  0.2147 -0.0313
51555W        W94546   1.314  18.965   3.265  0.4252 -0.3052 -0.2341
51556W        W94547  26.102  24.747  18.720  0.1060  0.1247  0.0966
51557W        W94548  27.473  14.874   0.921 -0.2461 -0.0602 -0.0648
51558W        W94549  21.969   5.497  26.886 -0.2052 -0.1657 -0.1656
51559W        W94550   2.902  31.765   2.663  0.1455  0.0061  0.0157
51560W        W94551  23.420  10.649   7.781  0.2520 -0.5194  0.1197
51561W        W94552  14.750   4.017  16.360  0.1730 -0.3025 -0.1875
51562W        W94553  24.406  29.884  27.092  0.3216 -0.1337  0.0157
51563W        W94554  18.471  24.663   1.733 -0.1071 -0.1258  0.0863
51564W        W94555   6.719  11.691  10.183  0.0416 -0.4044 -0.2387
51565W        W94556   5.017   6.739   0.116 -0.0182 -0.0787  0.3760
51566W        W94557  14.843   9.614  26.291 -0.0210  0.0900  0.2200
51567W        W94558  26.935   7.879   0.616  0.1276  0.0263 -0.0975
51568W        W94559  29.824  21.281  23.618  0.0921  0.0248 -0.2898
51569W        W94560   9.680   5.170  10.320 -0.1051 -0.1173  0.1953
51570W        W94561  25.731   3.599  28.760 -0.0437 -0.1422  0.1432
51571W        W94562  33.409   6.544  22.664 -0.1623 -0.1701 -0.1190
51572W        W94563  34.576   4.909   9.951 -0.2967 -0.2321  0.4020
51573W        W94564   9.451  10.623  28.377 -0.0101 -0.3081  0.0947
51574W        W94565   6.610  12.044  15.329 -0.1371  0.0258  0.2909
51575W        W94566  10.680  14.593   9.670  0.1735 -0.0515 -0.2705
51576W        W94567   1.507  28.421  16.101 -0.2094 -0.0788 -0.3258
51577W        W94568  28.483  10.294  20.357 -0.0401  0.0422  0.2563
51578W        W94569   6.912  34.106   7.293 -0.0336  0.0918  0.0065
51579W        W94570   3.713   8.472   3.245  0.0428 -0.1619  0.1782
51580W        W94571  10.324  28.675   4.336 -0.0842 -0.1376  0.0400
51581W        W94572  25.438  29.406   4.197 -0.2300 -0.1107  0.0905
51582W        W94573   9.839  23.865  26.669  0.1791 -0.2084  0.0585
51583W        W94574   8.131   5.248  28.538  0.1965 -0.2325  0.2165
51584W        W94575   8.676   4.733   3.694  0.4018 -0.0063 -0.3363
51585W        W94576  31.249  30.753  23.867  0.0334 -0.0029  0.1240
51586W        W94577  28.138  33.721   7.930 -0.2025  0.2258  0.1683
51587W        W94578  25.038  25.070   9.402 -0.3365  0.1101 -0.0837
51588W        W94579  21.533  29.442   2.802 -0.0513  0.1015 -0.0705
51589W        W94580  13.902  15.441  28.897  0.1179  0.0299 -0.4459
51590W        W94581  31.301  14.838  23.683  0.0505 -0.2218 -0.0954
51591W        W94582  20.234  31.852   4.947 -0.1899 -0.2512  0.0694
51592W        W94583  25.492  18.148  19.219 -0.0061 -0.1148 -0.0309
51593W        W94584  20.582   3.421   5.622  0.2385 -0.0554  0.0112
51594W        W94585   6.041   9.473  20.167 -0.0280  0.1292  0.1365
51595W        W94586   3.754  32.943   1.629 -0.2493  0.0574 -0.0385
51596W        W94587  23.569  33.757  26.755  0.1496  0.0386  0.0015
51597W        W94588  32.449  10.633   2.357 -0.0808 -0.3135  0.1561
51598W        W94589   6.087  24.254  15.086  0.1360 -0.1673 -0.2934
51599W        W94590   0.223   5.237  23.354 -0.3158 -0.1015  0.0309
51600W        W94591  31.761  10.807   2.965  0.0699 -0.2964  0.1178
51601W        W94592  10.849   3.875  27.232  0.2869  0.0221  0.4347
51602W        W94593   2.073   8.085  26.195 -0.1496 -0.1157 -0.0593
51603W        W94594  31.906  13.689  22.270  0.0652 -0.0033  0.3330
51604W        W94595  22.363  33.990   8.758 -0.2948 -0.1021 -0.3921
51605W        W94596   3.570  34.240   5.547 -0.1299 -0.1220  0.0307
51606W        W94597  24.520  27.144  27.492 -0.1014 -0.1292  0.2424
51607W        W94598  29.469   3.772   0.981 -0.0061  0.2571 -0.3113
51608W        W94599  21.721   1.996   1.379  0.0807 -0.0114 -0.1133
51609W        W94600  22.544   5.026   1.574 -0.0745  0.0955 -0.0433
51610W        W94601  29.326  14.601  24.568 -0.1014  0.1200  0.0007
51611W        W94602  16.642  32.237   1.839  0.0307  0.1807  0.0534
51612W        W94603   2.249  32.171   3.198 -0.0634  0.3704  0.1231
51613W        W94604  25.980   6.033  28.707 -0.0276 -0.0706  0.2407
51614W        W94605  34.442  14.294  15.438  0.1986  0.0025 -0.2655
51615W        W94606  23.790  14.897   7.259  0.0246 -0.0334 -0.0353
51616W        W94607  24.562   1.175  16.092 -0.1769 -0.0620 -0.0412
51617W        W94608  29.941   8.442   9.423  0.5689  0.1627  0.0482
51618W        W94609   0.395   8.774   4.897 -0.2390  0.3038  0.0218
51619W        W94610  15.450   6.298  29.015  0.1487 -0.0147  0.1266
51620W        W94611  31.494   9.315   3.594  0.3495 -0.1108  0.0895
51621W        W94612  24.194  34.044   0.985 -0.2533  0.1074  0.1231
51622W        W94613  12.840   2.381  27.399 -0.0153  0.2038  0.1350
51623W        W94614   0.431  17.158   6.974  0.1072 -0.1369 -0.0163
51624W        W94615   8.255  11.445   7.089 -0.1271  0.2486 -0.0227
51625W        W94616   4.241   4.269   5.561 -0.2802 -0.0601 -0.1099
51626W        W94617  29.107  33.942   5.740  0.3116 -0.0510  0.0002
51627W        W94618  29.493   4.403   9.032 -0.1603 -0.0642  0.3007
51628W        W94619  26.707  15.985   4.080  0.0985 -0.0752  0.0322
51629W        W94620  11.108   4.690  24.886  0.0421  0.2700  0.2593
51630W        W94621  21.192  22.572   6.762  0.0424 -0.0049 -0.0404
51631W        W94622  27.957   1.092  23.477  0.1632 -0.0178  0.1566
51632W        W94623  26.240  28.911  14.622  0.2444  0.0349 -0.0012
51633W        W94624   2.214   0.037   5.519  0.1300  0.2635 -0.2268
51634W        W94625   4.242   0.128  20.844 -0.0021 -0.1903  0.3203
51635W        W94626   3.502   4.164   2.857 -0.0501 -0.0707  0.1618
51636W        W94627   1.705  26.304  15.756  0.0321 -0.0031 -0.2135
51637W        W94628  31.408  31.602  25.780  0.0541  0.1183  0.3479
51638W        W94629  16.386   1.855  24.248  0.1918  0.1937 -0.0895
51639W        W94630   6.135   4.151   6.565  0.0019 -0.1092 -0.3503
51640W        W94631  30.450   2.248   4.229  0.1061  0.2033 -0.1350
51641W        W94632  33.877  12.695  27.031  0.1291 -0.3207  0.1897
51642W        W94633  15.255  31.745   7.096 -0.0199  0.1758 -0.1079
51643W        W94634  23.089  34.010   3.121  0.0321 -0.2727  0.0507
51644W        W94635   0.175  15.333  23.291 -0.2186  0.1221 -0.1264
51645W        W94636   1.433  23.750   9.707  0.0751  0.1779  0.0508
51646W        W94637  29.832   4.189   6.050  0.2600  0.0650 -0.0606
51647W        W94638   5.640  30.452  26.321 -0.0305  0.1752  0.2214
51648W        W94639  20.644   9.106   1.191 -0.1429 -0.1211 -0.1468
51649W        W94640   5.722   6.829   3.381 -0.1211  0.2461 -0.1204
51650W        W94641  16.091  26.612  28.314  0.1116  0.2878  0.0363
51651W        W94642  10.532  11.676  28.614  0.1755 -0.0768 -0.1986
51652W        W94643  19.748  15.271  22.441  0.0636  0.1275 -0.0387
51653W        W94644  13.430   8.978  17.515  0.2722  0.0797  0.0624
51654W        W94645  33.704   3.555  23.743 -0.2842 -0.1544 -0.1226
51655W        W94646   5.349   2.781  16.870 -0.0711  0.1104 -0.4017
51656W        W94647  23.951  29.826  28.949  0.2441  0.0077 -0.0636
51657W        W94648  30.673  21.066  28.838  0.2307 -0.0734 -0.2680
51658W        W94649  19.256   2.169   3.718  0.2630 -0.2251 -0.0314
51659W        W94650   4.753  18.293  21.853  0.0362  0.5411  0.0747
51660W        W94651   4.954   0.490  27.869 -0.1224  0.1950  0.1683
51661W        W94652  32.396   4.733  22.640 -0.2953 -0.1688 -0.2010
51662W        W94653  33.078  11.716   0.807  0.1228  0.0998  0.0086
51663W        W94654   4.911   8.335   7.012  0.1964 -0.0954  0.1116
51664W        W94655  29.421  33.994  22.224 -0.0275  0.2695  0.2993
51665W        W94656   8.295  24.093   1.018 -0.3337 -0.0542 -0.1353
51666W        W94657  31.301   9.393  26.832  0.1496 -0.3233 -0.0289
51667W        W94658  33.671  15.389   7.827 -0.0402 -0.0105 -0.0999
51668W        W94659   3.671   4.692  10.653 -0.1527  0.2546  0.1957
51669W        W94660  33.215  33.945  13.802 -0.3340  0.1167  0.2752
51670W        W94661  16.632  32.860  26.429 -0.0347 -0.2197  0.0245
51671W        W94662  27.882   6.692  25.546  0.0058  0.3334 -0.3951
51672W        W94663  30.558  10.192  19.833 -0.0204 -0.1407 -0.2396
51673W        W94664   0.029  11.461  10.218 -0.2611 -0.1325  0.1143
51674W        W94665  34.419   8.537  14.847 -0.2991 -0.2903  0.0365
51675W        W94666  26.800   7.155   1.259 -0.1355 -0.1486 -0.0317
51676W        W94667   7.502   0.719   7.084  0.0573  0.1301  0.2269
51677W        W94668   0.882   9.757  20.934  0.0077  0.0222  0.3026
51678W        W94669  30.679  12.550   9.981  0.0654  0.2301 -0.4201
51679W        W94670  33.862   1.371   6.605 -0.0524  0.2832 -0.1940
51680W        W94671  27.593  10.902  28.343 -0.1038  0.1517  0.0190
51681W        W94672   3.600  12.514   7.431  0.0789 -0.0581 -0.0988
51682W        W94673  13.114  33.144  24.538  0.0780 -0.2087 -0.2086
51683W        W94674   2.013  32.593  24.882  0.0408  0.0976 -0.1171
51684W        W94675  32.297  15.634   1.234  0.3186 -0.1104 -0.1447
51685W        W94676  31.938  28.994   8.301  0.2447 -0.4224 -0.2030
51686W        W94677  22.112  23.049   0.235 -0.3133 -0.0726 -0.0838
51687W        W94678  30.321  14.150  20.949 -0.0180 -0.2940  0.1240
51688W        W94679  13.043  13.258   9.806 -0.1866  0.0496 -0.0794
51689W        W94680  19.171  26.265  27.619 -0.0030  0.1477  0.1140
51690W        W94681  24.314   8.823   8.549  0.1920 -0.1213  0.2083
51691W        W94682  32.270   8.848   4.796  0.0234 -0.0420  0.0892
51692W        W94683  17.897  25.166   3.633 -0.0877 -0.0497  0.0903
51693W        W94684   8.443  19.705  17.456  0.2574 -0.4424  0.1447
51694W        W94685  13.971   6.245  27.952 -0.2441 -0.1347  0.0797
51695W        W94686   0.445  26.519  17.582  0.2657  0.0981 -0.0261
51696W        W94687  30.497   5.845   2.180 -0.0998  0.2217  0.2274
51697W        W94688  18.398   7.249  10.013  0.1149  0.0768  0.0142
51698W        W94689   7.689  10.911   1.600  0.1779  0.0075 -0.1755
51699W        W94690  33.209  31.263   2.547  0.3741 -0.1473  0.2649
51700W        W94691  23.704  32.994   2.216 -0.3804  0.2113  0.0861
51701W        W94692   8.365  12.390   4.330  0.2932 -0.1075 -0.4937
51702W        W94693  25.827   5.917   6.370 -0.0486 -0.0133  0.0040
51703W        W94694  22.752   0.611   3.938 -0.0448 -0.1846  0.1088
51704W        W94695  32.771   5.068  26.245  0.0900 -0.2300  0.3485
51705W        W94696  34.373  32.046   8.947 -0.2203  0.0340  0.0490
51706W        W94697  20.057  11.259   4.725  0.1072 -0.3603 -0.1022
51707W        W94698  26.588   9.046  20.730  0.0499 -0.2645 -0.2852
51708W        W94699   9.696  19.641   8.722  0.0340 -0.0746  0.0757
51709W        W94700   0.573  17.956   8.873  0.0017  0.2549 -0.3226
51710W        W94701   5.870   1.290   7.665 -0.0442 -0.0368  0.0467
51711W        W94702  29.663  32.772   5.360 -0.0751 -0.0525  0.0291
51712W        W94703  34.110   3.291   5.386 -0.1718 -0.2525 -0.1166
51713W        W94704  27.491   4.793  26.455 -0.0275 -0.2431  0.1656
51714W        W94705  26.348  33.222   0.606 -0.0829  0.0629  0.2187
51715W        W94706   7.957   2.392   4.499  0.1744  0.1546 -0.1083
51716W        W94707  19.332   2.225  22.424 -0.1199 -0.1816 -0.3711
51717W        W94708  27.669  14.066  25.792 -0.6703  0.1866  0.0542
51718W        W94709   5.091   7.382   7.178 -0.1114  0.3184  0.1979
51719W        W94710  16.371   8.231  18.112 -0.0729 -0.2799  0.3144
51720W        W94711  26.193  24.230   1.649  0.1401  0.1815  0.1709
51721W        W94712  22.531  20.498  21.324  0.0432 -0.1514 -0.1631
51722W        W94713   0.135   3.050  10.518 -0.1165 -0.0659  0.1543
51723W        W94714  27.227   3.276   5.475  0.2172 -0.0095 -0.0122
51724W        W94715  25.069  10.254   4.825 -0.0941 -0.1741 -0.0128
51725W        W94716  31.913  12.844   8.041 -0.2362 -0.0480 -0.1758
51726W        W94717  24.688  11.567   6.922  0.0347 -0.0219 -0.0470
51727W        W94718  10.238  33.067  24.518  0.2339  0.1772  0.3020
51728W        W94719   0.009   6.609   1.834 -0.0466  0.0113 -0.1226
51729W        W94720  28.206   9.801   7.639  0.2416 -0.1242  0.2888
51730W        W94721   9.630   5.392  17.668 -0.0264  0.3807  0.0048
51731W        W94722   6.726  10.144  10.327 -0.2194  0.0372 -0.2201
51732W        W94723  33.164   4.917   5.599 -0.0802  0.4412  0.0643
51733W        W94724   4.556  31.956   2.137 -0.0633 -0.1662 -0.1745
51734W        W94725   0.481  12.346   7.497  0.0436 -0.2955 -0.0412
51735W        W94726   4.420   6.596   6.966  0.2427 -0.2428 -0.1641
51736W        W94727  26.816  26.901   8.140 -0.2541 -0.1987  0.0898
51737W        W94728  27.613   1.045   0.265 -0.3384 -0.0939 -0.0139
51738W        W94729  17.323  11.380  28.389 -0.5213 -0.1060 -0.0230
51739W        W94730  15.611  14.937   5.918  0.3527  0.2188 -0.2056
51740W        W94731  33.962  16.672  25.254  0.1742 -0.2033  0.0650
51741W        W94732  16.699   7.831  16.812  0.1640 -0.0768  0.1206
51742W        W94733  30.706  12.208   7.679  0.3856  0.1138 -0.2254
51743W        W94734   1.012  33.056   6.275  0.3648 -0.0108 -0.1335
51744W        W94735  33.111  29.352   0.705  0.1279 -0.0126  0.2394
51745W        W94736   2.289  29.623   9.521 -0.0630 -0.1140 -0.2169
51746W        W94737  32.129   8.603   0.656  0.2301  0.1043 -0.1599
51747W        W94738   1.503  16.120   7.308  0.3284  0.1715  0.2493
51748W        W94739  20.550  23.064  28.662  0.1847  0.2436  0.4332
51749W        W94740   3.395  28.784  15.344 -0.0383 -0.1413  0.1982
51750W        W94741  21.737  20.217   5.460  0.1108 -0.1053 -0.1822
51751W        W94742   0.673  12.859  10.413 -0.1328 -0.0522 -0.2124
51752W        W94743  24.371   5.576  26.966 -0.2196 -0.0459  0.1452
51753W        W94744  24.214   7.608   7.931  0.3576  0.0535 -0.1414
51754W        W94745  26.108   2.529  14.447  0.2455  0.0918  0.1551
51755W        W94746  16.389  13.452   2.687  0.3894 -0.0348 -0.1950
51756W        W94747  15.806   4.157   1.228  0.2293 -0.0145  0.0195
51757W        W94748  29.369  18.383  27.181  0.1775  0.2531  0.1033
51758W        W94749  31.234   5.877  25.667 -0.0024 -0.2001 -0.1516
51759W        W94750   2.791  30.139  16.260  0.3748  0.2062 -0.1488
51760W        W94751  14.767   2.563   3.062 -0.0245  0.1076 -0.1303
51761W        W94752  27.165   3.286   4.617  0.1120  0.1735  0.1146
51762W        W94753  14.970  14.360   0.108  0.1902  0.0924  0.0708
51763W        W94754   0.962  33.760   7.527 -0.1575 -0.0687 -0.0539
51764W        W94755  34.657  10.973  27.992 -0.0833 -0.1137 -0.1376
51765W        W94756  30.042   2.263   5.938  0.0030  0.3290 -0.0063
51766W        W94757  26.894   4.840   1.528 -0.1530 -0.1909  0.1250
51767W        W94758  19.081  16.052   7.074 -0.3138 -0.0799  0.2417
51768W        W94759  34.369  23.422   0.937 -0.0136 -0.1766  0.0131
51769W        W94760  26.565  32.901   4.529  0.0662  0.1043 -0.0130
51770W        W94761  27.025  21.876   8.194 -0.0919 -0.0155  0.0602
51771W        W94762  27.104   0.518   6.090  0.0047 -0.0264  0.2991
51772W        W94763   0.327   4.469   6.259  0.1786  0.2128  0.0716
51773W        W94764   4.582   5.326  23.087  0.0037  0.1235  0.0865
51774W        W94765   3.872  21.453   8.519 -0.2799 -0.0685  0.0357
51775W        W94766  14.042   8.555   0.258  0.0918  0.0018 -0.2104
51776W        W94767  31.231  15.243  25.948  0.1873  0.0859  0.0421
51777W        W94768   7.761   5.681  21.522 -0.1884  0.0657 -0.0846
51778W        W94769  33.467  32.898   7.255  0.1122  0.0760 -0.0643
51779W        W94770  30.100   8.811   8.247 -0.0246 -0.2224 -0.0325
51780W        W94771  34.258  12.341  28.519 -0.0632  0.4058 -0.0722
51781W        W94772   4.673  19.165   8.075  0.0538  0.0221  0.3058
51782W        W94773   2.777   5.945   7.730  0.0389  0.3107  0.0921
51783W        W94774   5.477  10.527  23.609  0.3640 -0.2880  0.1683
51784W        W94775  29.998   0.789  26.553 -0.1441 -0.4186 -0.3011
51785W        W94776   2.320  10.910   9.091  0.1743 -0.2649  0.3429
51786W        W94777   4.774  12.783   7.443 -0.1148  0.0784 -0.0053
51787W        W94778   2.615   6.550   8.172 -0.0690 -0.0359  0.2239
51788W        W94779   4.104   9.523  20.440  0.2036  0.0313  0.0702
51789W        W94780  27.149  23.542   3.724 -0.1223 -0.2060 -0.0413
51790W        W94781  20.437  13.057   0.721  0.0527  0.0716 -0.0770
51791W        W94782  28.906   7.814   9.445  0.0645  0.1122  0.3824
51792W        W94783  33.089  20.947   1.463 -0.1398 -0.1802 -0.1240
51793W        W94784   2.825   0.915   5.278  0.0026 -0.1943 -0.0635
51794W        W94785   1.317  10.905  20.461  0.3061  0.1851 -0.0440
51795W        W94786   0.421  32.267   4.033  0.1080  0.0604 -0.1255
51796W        W94787  14.947   8.511   3.376 -0.5039  0.2112 -0.5688
51797W        W94788   6.596  24.940   7.169  0.2482  0.0362 -0.0782
51798W        W94789  14.588   2.980  26.758 -0.0090 -0.0633  0.1686
51799W        W94790   4.826   8.743  23.610 -0.0045  0.0183 -0.0020
51800W        W94791  12.398   2.571   2.877 -0.1546 -0.0631 -0.1442
51801W        W94792  33.958  27.299   6.157 -0.0782 -0.2281 -0.0682
51802W        W94793  27.650  24.898  25.105  0.2044 -0.0434  0.1145
51803W        W94794   8.311  20.562  25.784  0.1241  0.2638  0.1411
51804W        W94795  33.774   4.148  21.910 -0.1736  0.0177  0.3956
51805W        W94796   2.373   6.184   7.886  0.1781 -0.0851 -0.0806
51806W        W94797  29.088   0.902   1.959  0.2649  0.1576 -0.1666
51807W        W94798  32.414  21.476   9.212 -0.0252 -0.2123  0.0846
51808W        W94799  32.964   4.350   9.542  0.3833  0.1942 -0.1895
51809W        W94800  31.544  32.879   7.206 -0.2276 -0.1064  0.2523
51810W        W94801   8.952  10.956   5.434 -0.3154  0.0034  0.2446
51811W        W94802  12.326  16.913   6.912  0.0118 -0.2259  0.1729
51812W        W94803  16.389  31.925   8.608  0.1459 -0.3242 -0.3041
51813W        W94804  14.097   2.220  24.686 -0.1383  0.0775  0.1735
51814W        W94805  29.114  16.270   4.864  0.1013 -0.2847 -0.5511
51815W        W94806   8.604  16.689  28.362  0.0716 -0.0293 -0.1897
51816W        W94807  28.377  16.109  10.430 -0.1088 -0.2187  0.2071
51817W        W94808  30.555  22.116   7.824 -0.0576 -0.1629 -0.0210
51818W        W94809   4.826   1.964   4.818  0.0002 -0.0401 -0.2007
51819W        W94810  31.385  17.738  22.376 -0.2788 -0.1573 -0.0588
51820W        W94811  32.226  20.089   7.889  0.0316  0.0154  0.1750
51821W        W94812  23.020   7.512  24.287  0.0934  0.0098 -0.1138
51822W        W94813   5.590  13.075  26.484  0.4050 -0.1712  0.2297
51823W        W94814  29.426  13.436  10.283  0.2894 -0.1186  0.0741
51824W        W94815   2.567  32.398   2.005  0.0663 -0.0746  0.2007
51825W        W94816  28.312  14.624  28.649 -0.0649 -0.2866  0.1349
51826W        W94817  24.965  26.763   3.076 -0.3317  0.0216  0.0697
51827W        W94818   0.364   7.753   8.561 -0.3075 -0.3795  0.0265
51828W        W94819   5.207   4.516   8.527  0.1577 -0.0626  0.1704
51829W        W94820   2.766  26.374  15.654 -0.0645  0.2125  0.2943
51830W        W94821   0.425  30.619   6.809 -0.1886  0.1112  0.0935
51831W        W94822  18.512   2.101   9.955  0.0559  0.1944  0.0989
51832W        W94823  33.492  29.166   5.564  0.0493 -0.0089  0.3935
51833W        W94824  34.116   5.371   7.907  0.0974 -0.0884  0.2039
51834W        W94825  28.933  13.031   7.825 -0.0948  0.1519  0.1266
51835W        W94826   0.436  31.889   8.698  0.2094 -0.3017  0.2257
51836W        W94827   1.245  11.664   7.322  0.0481  0.0392 -0.0022
51837W        W94828  29.152   6.680  28.359 -0.0998  0.0729  0.2722
51838W        W94829  29.674   2.518  22.555  0.0899 -0.3012 -0.0887
51839W        W94830   4.803  26.079  24.802 -0.3097 -0.1510 -0.0269
51840W        W94831  23.870   4.269  17.117  0.0269 -0.0459 -0.0436
51841W        W94832  34.082   3.318  28.904  0.1251  0.2147 -0.1611
51842W        W94833  12.427  20.976  18.668 -0.2603 -0.2165 -0.0501
51843W        W94834  27.105  23.207   5.518  0.2898  0.3394  0.0363
51844W        W94835   2.001  18.710   6.780  0.3117  0.1585 -0.2407
51845W        W94836  11.801  22.040   1.851 -0.1690 -0.2227  0.0460
51846W        W94837   1.969   3.279   5.128 -0.3696 -0.1066  0.3024
51847W        W94838  20.013  31.722   2.111 -0.1450  0.0944 -0.2101
51848W        W94839   1.922   2.696  15.008  0.1670  0.0612 -0.1647
51849W        W94840   6.339  34.490   1.021 -0.0662 -0.0852  0.2137
51850W        W94841  33.812  30.418  18.143 -0.1354  0.2665  0.3814
51851W        W94842   9.611  24.567   7.313 -0.2134  0.2462 -0.0012
51852W        W94843  28.060  19.120  21.633 -0.0972  0.3045 -0.1519
51853W        W94844  29.735   2.126  22.253 -0.1928  0.4864 -0.0740
51854W        W94845  17.584  29.265  25.959 -0.1990 -0.0554  0.1235
51855W        W94846  28.839  32.355   2.848  0.0425 -0.0193 -0.0277
51856W        W94847   7.143   0.515   0.635  0.0481 -0.1962 -0.2236
51857W        W94848   0.928   6.414   7.185  0.1287  0.0495  0.4181
51858W        W94849  24.528  24.756   8.324 -0.0357  0.0011  0.0691
51859W        W94850   4.280   0.722   9.662 -0.1401 -0.1547  0.1455
51860W        W94851   8.348  10.142   5.336 -0.1045  0.0205 -0.0884
51861W        W94852  10.797   3.383   8.723 -0.2810  0.2512  0.2505
51862W        W94853  14.788  16.500  25.062 -0.2075 -0.3354  0.1182
51863W        W94854   5.802   2.591  24.690  0.3136  0.0148  0.2634
51864W        W94855   3.304  12.625  28.459  0.0228  0.0421  0.1677
51865W        W94856  21.582  34.418  28.356 -0.1359  0.0664  0.2467
51866W        W94857   4.691  14.700   5.808  0.0247 -0.1333  0.2669
51867W        W94858  27.745  14.298   3.091  0.0262  0.3252  0.2917
51868W        W94859  24.176  15.607   0.680 -0.2760 -0.0604 -0.2266
51869W        W94860  27.002  12.703  28.034 -0.0153 -0.0801 -0.1720
51870W        W94861  34.427   8.023  10.049  0.2449 -0.0331  0.1320
51871W        W94862  12.652   1.815   6.454  0.2417 -0.3500  0.0103
51872W        W94863  33.037   7.030  15.614 -0.3190  0.0521 -0.2232
51873W        W94864   1.758  23.737   7.857 -0.0059 -0.0449  0.1090
51874W        W94865   4.321   4.310   3.213 -0.1567 -0.2480  0.3094
51875W        W94866  34.217  33.356   5.131  0.0376  0.0931 -0.2286
51876W        W94867  26.294  11.955   3.407 -0.1628 -0.1733 -0.0039
51877W        W94868  31.047  32.856   5.030  0.0116 -0.6339  0.0171
51878W        W94869   7.891   4.516   8.222 -0.0451  0.0283 -0.4034
51879W        W94870   8.171   3.252  10.376 -0.1631  0.1571  0.3954
51880W        W94871   3.782  10.299   4.767  0.1925  0.5133 -0.3332
51881W        W94872  22.452  34.562   6.305 -0.0111 -0.0756  0.0686
51882W        W94873  32.136  34.507   5.095  0.2610  0.0411  0.0430
51883W        W94874   4.873   8.463  17.872  0.2386 -0.0145  0.2502
51884W        W94875  25.509   0.366  16.152 -0.1568 -0.1801 -0.3119
51885W        W94876  33.179  16.176   7.444 -0.2198 -0.2377  0.3443
51886W        W94877   6.515  31.713   2.944  0.5360 -0.0782 -0.1461
51887W        W94878   5.678  29.935   8.769 -0.1763  0.0424  0.0515
51888W        W94879  27.199   3.234  21.097  0.0817 -0.3620  0.0867
51889W        W94880  16.342   9.856   0.544 -0.0253 -0.0873 -0.0127
51890W        W94881   7.577  12.907   3.479 -0.2428  0.0832 -0.2515
51891W        W94882   5.037  21.150   4.543 -0.0674  0.0018  0.1261
51892W        W94883   5.754  11.886   3.477  0.0210 -0.0673 -0.2179
51893W        W94884  25.378  34.406  14.050  0.0454 -0.1276 -0.3031
51894W        W94885   3.471  33.847  27.313  0.2120 -0.0888  0.1159
51895W        W94886   4.605  15.315  28.988 -0.0992 -0.0879  0.3464
51896W        W94887  26.945  15.513  28.099 -0.1721  0.0278 -0.2428
51897W        W94888   0.116  11.860  25.571  0.0210  0.1037 -0.3354
51898W        W94889   4.252  21.857  25.421 -0.0765 -0.3116 -0.0758
51899W        W94890   2.670   9.410   9.820 -0.0404  0.0190  0.0972
51900W        W94891  20.507  10.399   5.209 -0.0486  0.1438 -0.1052
51901W        W94892   7.888   6.774  23.139 -0.1316  0.0287 -0.2266
51902W        W94893  18.075   9.029   0.655 -0.1063 -0.0208  0.0171
51903W        W94894  24.468   6.272  22.354  0.0112 -0.0410  0.0367
51904W        W94895  21.956   5.505   0.136 -0.4885  0.0201 -0.1828
51905W        W94896  14.116  25.739  27.339  0.0451 -0.2565  0.2349
51906W        W94897   5.673  12.470   4.122 -0.0236  0.0718  0.0273
51907W        W94898  27.677  18.337   9.398  0.0725 -0.1482  0.0642
51908W        W94899   7.851  33.329   3.524 -0.0846  0.1063 -0.0122
51909W        W94900   1.380   6.028  16.388  0.3169  0.5203 -0.0062
51910W        W94901  14.579  28.883   1.381  0.2159  0.3284 -0.1421
51911W        W94902  25.911   5.602   9.727 -0.0482  0.0623 -0.1037
51912W        W94903  13.700  10.371   2.360 -0.1308  0.0329 -0.0347
51913W        W94904   9.603  33.678  16.994  0.5764 -0.1090 -0.0035
51914W        W94905   0.772  10.879   9.276  0.0938  0.1932 -0.1323
51915W        W94906  25.767  10.225  24.805 -0.2047  0.2193  0.2038
51916W        W94907   6.234   3.366   8.740  0.1762 -0.2879  0.1684
51917W        W94908  22.507   8.456  16.853 -0.1235  0.2095 -0.2672
51918W        W94909   0.478   8.341   4.629 -0.2582  0.1846 -0.0299
51919W        W94910  21.496   3.648   5.598  0.3294  0.0327 -0.0935
51920W        W94911  31.485  21.639   4.459  0.1947  0.1558 -0.2297
51921W        W94912  33.968  32.669   7.693  0.1209 -0.1450  0.0516
51922W        W94913  34.564   9.759  24.087  0.1909  0.0850  0.3215
51923W        W94914  25.130   3.236   1.597  0.1974 -0.0630  0.1443
51924W        W94915  29.887  14.286   9.866 -0.0303  0.4485  0.0450
51925W        W94916   5.479  32.396   5.755  0.4297  0.1903  0.0856
51926W        W94917  28.245   7.263  27.263  0.1153  0.0758  0.0840
51927W        W94918  30.795  33.396   6.956  0.3416  0.0404  0.0448
51928W        W94919   8.394  32.241   9.157 -0.0608  0.0541 -0.0586
51929W        W94920   3.030  19.292  24.931 -0.0851 -0.1549  0.1354
51930W        W94921   1.644  31.543  17.771  0.2626  0.0250 -0.0808
51931W        W94922  32.161   6.170   9.204  0.0603 -0.5394 -0.0237
51932W        W94923  18.079   6.057   6.786 -0.0437  0.0748 -0.5200
51933W        W94924  29.159  14.051   7.783  0.0254 -0.3881 -0.0616
51934W        W94925   5.612   3.023   3.176 -0.1629 -0.1431 -0.0141
51935W        W94926  31.198  16.077   3.932 -0.2412  0.0458  0.0678
51936W        W94927  33.224  17.997  17.447  0.0655  0.2949  0.1519
51937W        W94928   4.483  11.585   5.205 -0.2428  0.4313  0.0910
51938W        W94929  30.639   2.628   1.111  0.0492  0.0743  0.2646
51939W        W94930  16.406   3.079   4.331  0.3801  0.0003 -0.2458
51940W        W94931  33.627   2.033  19.962 -0.0914 -0.0508 -0.2916
51941W        W94932  20.729   9.499   2.371  0.0732  0.3067 -0.0826
51942W        W94933  33.167  29.862  26.690 -0.0381  0.0874  0.2143
51943W        W94934   5.287  34.029   8.352 -0.1739 -0.0002 -0.0472
51944W        W94935  28.185   9.224   2.800  0.0713  0.1099  0.1448
51945W        W94936   2.683  24.502  10.168 -0.1197  0.3732 -0.0499
51946W        W94937  31.006   1.142   7.336  0.2206  0.3811 -0.1944
51947W        W94938  22.382  12.831   7.567  0.0585  0.1306 -0.0236
51948W        W94939   3.206  13.714   6.756 -0.1998  0.1885  0.2603
51949W        W94940  32.822   5.705  10.101 -0.0303  0.1698 -0.0063
51950W        W94941  20.604   5.378   0.921 -0.1185  0.0871  0.2251
51951W        W94942  26.490  13.610   3.760  0.0676  0.1429  0.0298
51952W        W94943  32.920   6.079   5.546  0.0847 -0.0953 -0.0070
51953W        W94944  15.658  10.434   2.349 -0.2882  0.0281  0.2192
51954W        W94945  29.723  14.706   9.692  0.1026 -0.0747  0.0625
51955W        W94946  10.031   9.514   1.126  0.2003 -0.1876 -0.0822
51956W        W94947   1.021   0.113   6.817 -0.3078  0.0005  0.1586
51957W        W94948  26.325   9.368   8.383  0.3102  0.0727 -0.3305
51958W        W94949  20.061   7.559   2.138  0.1125  0.0930 -0.1178
51959W        W94950  10.112  29.913   5.603  0.1396 -0.0066  0.2464
51960W        W94951   2.497   2.433   5.217  0.0458 -0.3079 -0.1095
51961W        W94952   4.658   4.768   3.424 -0.2370  0.1352  0.0383
51962W        W94953  30.463  32.555   6.415  0.1680  0.0889 -0.1139
51963W        W94954   7.789   0.137   5.791  0.3171 -0.0429  0.0807
51964W        W94955  10.506  34.226   8.993 -0.1623 -0.0775 -0.0217
51965W        W94956  22.984   8.978   7.224  0.0691  0.0651 -0.2373
51966W        W94957   2.404  34.472   3.048  0.3371  0.1422  0.1517
51967W        W94958   6.840  17.376  20.272  0.1446  0.0823 -0.1939
51968W        W94959  18.884  30.745   3.182 -0.1448  0.1109  0.0608
51969W        W94960  13.050  18.980  15.301 -0.2558 -0.1151  0.3974
51970W        W94961   5.530   0.652  10.062 -0.1634  0.1662 -0.0430
51971W        W94962  30.644   2.387   8.609  0.2240  0.0446  0.0537
51972W        W94963  20.721  34.182   8.221  0.1462 -0.0419 -0.1278
51973W        W94964  29.245   5.623   9.824  0.3352 -0.0135 -0.0207
51974W        W94965   3.426  15.314   1.016 -0.0608 -0.0522 -0.0393
51975W        W94966  34.719  33.089   6.106  0.2101  0.0736 -0.0970
51976W        W94967  23.753  33.877  15.350  0.1320  0.0498  0.4371
51977W        W94968  28.837   1.718   7.858 -0.2470 -0.0510 -0.1633
51978W        W94969  33.251   3.918  27.331 -0.3120  0.0092  0.0657
51979W        W94970   3.669   6.821  10.291  0.1633 -0.3745  0.0540
51980W        W94971  15.722   7.486   0.105  0.0176 -0.6929  0.0666
51981W        W94972   2.432  22.154  20.095 -0.0932 -0.2617  0.5467
51982W        W94973  27.677  12.552   1.439 -0.1733 -0.0009 -0.1389
51983W        W94974  29.766  33.439   6.750 -0.3383 -0.1304  0.0302
51984W        W94975   9.168  29.368   2.230 -0.3482  0.0941  0.0858
51985W        W94976  24.406   3.461   8.204 -0.0267  0.4337  0.1196
51986W        W94977  31.431   2.125   6.558 -0.1838 -0.0618 -0.1919
51987W        W94978  11.337  13.030   6.893 -0.1211  0.2171 -0.1929
51988W        W94979  26.578  33.418   7.685  0.1030  0.0048 -0.3083
51989W        W94980  34.472  23.597   8.205 -0.0174  0.0358 -0.1914
51990W        W94981  17.536  11.434   2.919 -0.0879 -0.0655 -0.0374
51991W        W94982   2.926   2.288   1.033 -0.0005 -0.1834  0.2967
51992W        W94983   4.369  13.327  22.468  0.2463  0.1816  0.0932
51993W        W94984   8.327   9.611   2.648  0.1415 -0.1755 -0.0708
51994W        W94985  34.109   8.823  11.322  0.0710 -0.1002  0.0231
51995W        W94986   9.156  21.813   7.206 -0.2199  0.1222  0.0185
51996W        W94987   9.735  20.588  24.025  0.1679 -0.0672 -0.1143
51997W        W94988  17.150  10.628  21.477  0.1245  0.2758 -0.0025
51998W        W94989   5.269   5.445   9.507  0.4202  0.2074  0.0942
51999W        W94990  14.849  31.363   1.733 -0.2536 -0.0876  0.1929
52000W        W94991  10.202  18.561   1.299 -0.0887 -0.0747  0.3324
52001W        W94992   4.363  11.031   6.965  0.2941  0.0597  0.3418
52002W        W94993   8.454  12.610   5.677 -0.0342  0.1045 -0.1805
52003W        W94994   3.832   7.045   3.598 -0.0432  0.2943  0.1989
52004W        W94995  32.326  14.324  25.134  0.2082 -0.3963 -0.1287
52005W        W94996  28.230  22.370   3.099  0.4781  0.3714 -0.1336
52006W        W94997  20.251  31.801   1.671 -0.0799  0.1935 -0.0779
52007W        W94998  20.166   9.150   1.059  0.1750 -0.1604 -0.0960
52008W        W94999   6.003  34.284   2.199  0.1405  0.1936  0.1804
52009W        W95000  30.179  27.922   4.395 -0.2761 -0.1345 -0.2729
52010W        W95001  30.670  14.365   9.304  0.0048 -0.0922 -0.0174
52011W        W95002   6.037   0.566   6.406  0.1971 -0.1491 -0.0559
52012W        W95003   2.406   2.221   7.189  0.0123 -0.0831 -0.1862
52013W        W95004  34.135   4.936  10.255 -0.0344 -0.2280 -0.1213
52014W        W95005   2.726  27.474   6.184 -0.3598  0.1469 -0.0603
52015W        W95006  18.087  18.917  25.439  0.2206 -0.0995  0.1929
52016W        W95007  34.761  10.256   5.377 -0.0650  0.3060 -0.1734
52017W        W95008  16.463  13.085  22.971 -0.2333 -0.1156  0.1350
52018W        W95009  17.191  14.040  25.442  0.0969 -0.1133 -0.1183
52019W        W95010  10.479  21.035   4.452 -0.0089  0.2462  0.3531
52020W        W95011   0.621  16.271   0.672 -0.0039  0.1310  0.0733
52021W        W95012   6.370  14.249   6.132  0.1084  0.1344 -0.0191
52022W        W95013   4.377   7.595  19.616  0.2222 -0.0571 -0.2888
52023W        W95014  23.697  15.685  28.689  0.0402  0.3160 -0.2468
52024W        W95015  11.578  27.450  23.824  0.0835 -0.0358 -0.0053
52025W        W95016   1.370  31.733   4.227  0.1497  0.1066  0.0769
52026W        W95017   5.468  13.655   1.757 -0.0407 -0.3958  0.0301
52027W        W95018   9.575  14.723   6.538 -0.0912 -0.1313 -0.1946
52028W        W95019  30.526   6.250   9.849  0.2635 -0.1324  0.2659
52029W        W95020   7.115   0.397   2.262  0.1738  0.0889 -0.1922
52030W        W95021  23.883  16.026  28.429 -0.2087 -0.1614 -0.0961
52031W        W95022  28.702  24.841  23.701 -0.2126  0.0144  0.1572
52032W        W95023   2.897  22.993  25.122 -0.0633 -0.1524  0.0515
52033W        W95024  31.029  27.039  28.854 -0.3977  0.1097  0.0471
52034W        W95025  33.013  14.900   9.717  0.2901 -0.0769 -0.0202
52035W        W95026   2.813   2.601   3.054  0.0854  0.0234  0.1706
52036W        W95027  22.252  14.142  28.823 -0.2737 -0.1304 -0.4839
52037W        W95028  22.206  27.029   3.987 -0.1471  0.1545  0.2337
52038W        W95029  31.644  21.906   8.703 -0.2310 -0.2299 -0.0875
52039W        W95030  32.731  15.316  27.836  0.3480  0.0832 -0.2756
52040W        W95031   6.993  16.137   9.974 -0.3997  0.0724  0.0750
52041W        W95032   5.387   8.469   2.950  0.0039 -0.2069  0.1264
52042W        W95033   0.018   7.725  11.317 -0.1625 -0.0136  0.2306
52043W        W95034  10.807   1.637   8.867  0.2514 -0.2327 -0.0902
52044W        W95035  30.195  15.855   7.986 -0.3030  0.1557  0.1593
52045W        W95036  33.136   2.404  28.487 -0.1270 -0.1638  0.0519
52046W        W95037   0.339   2.451   8.719 -0.0191  0.3473  0.0646
52047W        W95038  31.301  13.646   3.330 -0.1541 -0.2611 -0.0726
52048W        W95039  13.638  14.474   7.577  0.0217  0.0758 -0.2965
52049W        W95040   5.793  29.229  22.160 -0.0249  0.0794  0.1039
52050W        W95041  33.437   2.414   7.884 -0.1461 -0.1597 -0.1697
52051W        W95042  10.473  11.318   9.521 -0.3853  0.0135 -0.3124
52052W        W95043  33.788  18.726  10.243 -0.2692  0.2668 -0.0302
52053W        W95044   3.291  33.694   4.204 -0.3246 -0.5705 -0.1993
52054W        W95045   6.593  14.382  25.647  0.1175  0.0739  0.0883
52055W        W95046  29.457   6.481   8.370  0.0578  0.0088  0.0209
52056W        W95047  17.156  11.273  24.692 -0.0164 -0.0756  0.0509
52057W        W95048   4.383  34.265  15.947 -0.5535  0.2207  0.0166
52058W        W95049   2.011  18.983   4.068 -0.0402  0.2781  0.3434
52059W        W95050   2.477  15.991   8.810 -0.2094 -0.1700  0.3738
52060W        W95051  27.267   3.502   6.855 -0.0365  0.0572 -0.1248
52061W        W95052  16.913  16.524   8.315  0.1523 -0.0226 -0.2162
52062W        W95053  20.600   4.957   7.058  0.1953  0.1093 -0.1840
52063W        W95054  21.728  34.089   7.909 -0.2674  0.1738  0.0310
52064W        W95055  23.854  30.385   3.730 -0.2205 -0.0389  0.0151
52065W        W95056   1.112  28.700   5.324  0.0030 -0.0716  0.1503
52066W        W95057  18.135  23.969   0.913 -0.0773  0.0546  0.0609
52067W        W95058   0.408  17.458   8.828 -0.4275  0.1306  0.0079
52068W        W95059  17.651  20.698  25.156 -0.2880  0.0418 -0.3537
52069W        W95060  29.457  22.005  16.543 -0.1554  0.0714 -0.0693
52070W        W95061  32.778   8.132  26.527 -0.2433  0.0300 -0.0058
52071W        W95062   6.692   1.000  25.496 -0.1706 -0.0372  0.1450
52072W        W95063  13.345  25.204   9.081  0.0200 -0.0733 -0.2604
52073W        W95064   8.904  10.079   9.758  0.0363 -0.2711  0.1183
52074W        W95065   2.626   3.954   9.406  0.0560 -0.0819  0.0777
52075W        W95066   0.893   6.376   8.390  0.0074 -0.1695  0.0415
52076W        W95067  30.027   5.313   3.432 -0.0063 -0.3870 -0.0329
52077W        W95068  19.352  28.234   0.092  0.1031  0.0531  0.1546
52078W        W95069  27.793  28.925   3.231  0.5350  0.1965  0.2566
52079W        W95070  32.438  33.555   5.832  0.1168 -0.0697  0.1686
52080W        W95071   5.078   0.900  10.169  0.3232 -0.1219  0.0087
52081W        W95072  31.154  15.893   8.271  0.0932  0.1040 -0.4003
52082W        W95073  34.053  34.635   4.356  0.2202  0.1489 -0.1366
52083W        W95074  18.041  33.211   7.012 -0.1871  0.0329  0.1776
52084W        W95075  27.369  31.520   2.301  0.0713  0.3232  0.2574
52085W        W95076  18.479  14.836   3.843  0.0254 -0.4199 -0.0449
52086W        W95077  32.150  21.106   6.724 -0.1823  0.2613 -0.1788
52087W        W95078   9.882  10.022  26.717 -0.1262 -0.1773  0.0819
52088W        W95079  13.209   0.348   1.747 -0.3211  0.0127 -0.1188
52089W        W95080  24.363   3.207   5.486 -0.0299 -0.1008  0.1649
52090W        W95081   1.437  16.665   2.572 -0.0347 -0.2925 -0.0629
52091W        W95082   1.965   8.153  28.067  0.0940  0.3011 -0.4625
52092W        W95083   0.591  22.368  28.058  0.2206  0.0252 -0.2766
52093W        W95084  32.707  13.642   8.607  0.0226 -0.4280  0.1563
52094W        W95085   1.558  30.759   9.247  0.0092  0.3058  0.1933
52095W        W95086  11.377  19.251   4.351 -0.1035  0.0828 -0.0840
52096W        W95087  18.397  12.269  23.963  0.0868 -0.3442 -0.1377
52097W        W95088   5.791  15.441   9.134 -0.2194  0.0288  0.1011
52098W        W95089   5.423   1.087   9.834  0.0611 -0.1601  0.0459
52099W        W95090  25.865  20.677   4.516  0.1830 -0.3828  0.0635
52100W        W95091  10.630  33.828   3.497 -0.0983  0.1014  0.0067
52101W        W95092  33.335  10.317   5.947  0.1698 -0.1594  0.1977
52102W        W95093  28.771   9.382   8.467 -0.0231  0.2717 -0.2388
52103W        W95094  24.336  14.894   7.464 -0.1822  0.1339  0.1391
52104W        W95095  32.149   8.701   5.820 -0.1771 -0.2233  0.2413
52105W        W95096  28.605   1.923   0.151 -0.0414  0.1869 -0.0316
52106W        W95097  14.630   2.678   8.782  0.0052  0.0657  0.2376
52107W        W95098   6.407   7.820   3.266 -0.0940 -0.1620  0.1005
52108W        W95099  15.596  24.098   2.321 -0.1950 -0.1168  0.3341
52109W        W95100  24.194  30.511  23.778  0.0721 -0.1149  0.3716
52110W        W95101  24.148  33.334  20.142  0.0606 -0.0757  0.2519
52111W        W95102   2.977  10.987  10.189 -0.2591 -0.2134 -0.2058
52112W        W95103  22.660   6.137  27.262 -0.0743  0.1830  0.2055
52113W        W95104  28.842   5.930   9.479 -0.0531  0.1216  0.0708
52114W        W95105  33.795  11.968  21.951 -0.3509  0.4555 -0.0234
52115W        W95106  32.849  18.767   3.578  0.2633  0.0351 -0.1654
52116W        W95107  24.872  23.646  20.988  0.1058 -0.1056  0.2774
52117W        W95108   8.249   1.495   6.522 -0.1074 -0.0471  0.2076
52118W        W95109  25.598  22.843  18.807  0.1084  0.1601 -0.0514
52119W        W95110   2.411  25.724  26.657  0.1067 -0.3753  0.1004
52120W        W95111   0.427  10.131  29.071 -0.1900  0.1229  0.0615
52121W        W95112  34.329  15.867   2.011  0.0155  0.1181  0.2234
52122W        W95113   1.227   6.140   4.386 -0.0492 -0.0277  0.4773
52123W        W95114   8.133   7.946   0.134 -0.1990 -0.0341  0.0293
52124W        W95115   1.925   5.546   0.590 -0.0576  0.1687  0.0655
52125W        W95116  11.909   8.391  27.568 -0.0620 -0.1383  0.0077
52126W        W95117  18.326  11.158   3.092  0.0827  0.0249  0.1249
52127W        W95118  33.617  14.516   4.433 -0.1147  0.4046 -0.2881
52128W        W95119  34.005  14.438   6.153 -0.2012 -0.0447 -0.2243
52129W        W95120   9.314  12.557  24.181  0.1772 -0.1432  0.0773
52130W        W95121   6.144   3.762  16.654  0.1293  0.0007 -0.0578
52131W        W95122   5.735  11.641  27.660 -0.1003  0.2535 -0.3616
52132W        W95123  27.445   7.365   7.861  0.0335  0.0055  0.0276
52133W        W95124  30.398  29.767  13.306 -0.0726 -0.1050  0.0211
52134W        W95125  26.479   6.987  28.496  0.2184  0.1964 -0.1891
52135W        W95126  10.408   0.760   3.209 -0.0552  0.1031 -0.0184
52136W        W95127  32.872  33.756   6.625 -0.0943  0.0051 -0.1523
52137W        W95128   1.698   2.998   0.703  0.2282  0.1972  0.1182
52138W        W95129  30.919  32.653   2.724 -0.0953  0.2104  0.0240
52139W        W95130  18.566   6.367   3.406 -0.0332  0.1025 -0.0495
52140W        W95131  18.077  31.339   7.540 -0.2258  0.0468 -0.2109
52141W        W95132  33.806   7.019   1.162  0.0293 -0.0313  0.1382
52142W        W95133  24.133  20.294  20.549  0.2511  0.2967  0.1309
52143W        W95134  24.276  21.710  27.066 -0.2815 -0.0130 -0.0373
52144W        W95135  26.767  18.225  15.207  0.1725  0.1453  0.1312
52145W        W95136   6.199  17.175  28.196 -0.1471  0.0464 -0.1168
52146W        W95137  29.481  27.286  24.205  0.0227  0.1127 -0.0375
52147W        W95138  23.126  12.076   5.184 -0.2013 -0.3276  0.0102
52148W        W95139   8.877   8.274   2.353 -0.0377 -0.0401  0.0612
52149W        W95140   3.609   5.716  16.943  0.0899 -0.0434  0.0885
52150W        W95141  21.798  32.315   4.556 -0.0553 -0.1450 -0.3084
52151W        W95142  28.860   4.027  23.284  0.0579  0.1144  0.3092
52152W        W95143   2.669  10.491   0.384  0.3221  0.2650  0.0648
52153W        W95144  33.152  13.347   7.206 -0.0581  0.2972  0.0116
52154W        W95145   7.624  18.550  15.204 -0.0899 -0.3136  0.0128
52155W        W95146  26.247   7.837   8.950 -0.0104 -0.1020 -0.2509
52156W        W95147   2.926   7.027  19.531 -0.0241 -0.1489  0.0474
52157W        W95148  25.761  31.517   6.130 -0.0213  0.0173  0.2341
52158W        W95149  17.472  25.139  25.099 -0.3448  0.2955  0.1164
52159W        W95150  30.372   0.419   4.023  0.1081 -0.0870  0.2398
52160W        W95151  18.000   1.582   0.558  0.0636 -0.3254  0.0168
52161W        W95152  10.461  11.912  25.396  0.0500 -0.3318  0.2843
52162W        W95153  12.027  34.314   7.640  0.3422 -0.2362 -0.0769
52163W        W95154  22.763  13.343   4.071 -0.0554  0.3625 -0.0613
52164W        W95155  26.866  14.867  23.226 -0.0036 -0.1558 -0.0280
52165W        W95156  20.204  19.089  16.532  0.0144 -0.0833  0.1491
52166W        W95157   1.791  32.481   5.330  0.2944  0.0175 -0.3347
52167W        W95158   2.851  17.762   8.184  0.1594 -0.0922 -0.2599
52168W        W95159  28.152  33.860  20.232  0.2718  0.0572  0.2396
52169W        W95160  29.910  12.253   9.031  0.2035 -0.2721 -0.0209
52170W        W95161  24.590   3.796  20.594  0.0563 -0.1072  0.1666
52171W        W95162  29.667  10.631  10.699 -0.0249  0.1103 -0.1133
52172W        W95163   8.708  20.898  24.475  0.0450  0.1942 -0.0603
52173W        W95164  33.027   5.350  19.121 -0.1338  0.2022  0.0195
52174W        W95165  31.412  21.809  23.771  0.3447 -0.3814 -0.0530
52175W        W95166  22.784  15.994   8.612  0.5734 -0.1161  0.2909
52176W        W95167   0.913  16.487   5.983  0.0231  0.0896  0.1350
52177W        W95168  30.310  15.140  10.548 -0.1698  0.2426 -0.1197
52178W        W95169  30.609   8.738   1.532  0.1165  0.1343 -0.0175
52179W        W95170   8.366   0.088  22.147  0.1919  0.1729 -0.2279
52180W        W95171   2.206  16.138  26.040  0.1481  0.2380  0.2246
52181W        W95172   1.829  14.589   7.853  0.2139  0.0695  0.2863
52182W        W95173   2.440  34.586  27.642  0.2485 -0.0915 -0.1402
52183W        W95174  27.776  22.263   6.955  0.0927  0.0640 -0.1362
52184W        W95175  27.406  32.425  25.219  0.0170 -0.0594 -0.1471
52185W        W95176   7.709  29.269  15.844  0.0120  0.1158 -0.1398
52186W        W95177  13.194  10.808  27.433 -0.0677 -0.0223 -0.2169
52187W        W95178  33.910   5.371   0.305  0.1652  0.0356 -0.2066
52188W        W95179   5.963  11.241  22.246  0.3331  0.1022  0.0172
52189W        W95180  24.574  32.171   6.514 -0.1619  0.2997 -0.0663
52190W        W95181  27.204  12.304  17.990 -0.3766  0.1504 -0.0410
52191W        W95182  31.216  24.190   6.748 -0.2091 -0.1824  0.1692
52192W        W95183  32.367   6.627   5.263 -0.2536 -0.3102 -0.0269
52193W        W95184   1.712   7.519  10.832 -0.1348  0.0930 -0.1086
52194W        W95185   7.010   7.130   2.616 -0.3707 -0.0134 -0.0002
52195W        W95186   6.784  10.590   2.442 -0.0824 -0.1425  0.2128
52196W        W95187   6.688   9.838   3.985 -0.2971  0.0425  0.0954
52197W        W95188  12.691  32.658  28.413 -0.2223 -0.1363 -0.0179
52198W        W95189   6.632   2.244  20.343  0.0260  0.0900  0.1923
52199W        W95190   7.648  10.449   5.487  0.0561 -0.1938  0.0183
52200W        W95191  20.946  11.845   1.540  0.0424 -0.2061 -0.1494
52201W        W95192   1.920   4.171  20.192 -0.3081  0.1772  0.0645
52202W        W95193   2.029  15.633   6.443 -0.0781 -0.0028 -0.2735
52203W        W95194  30.804   9.198  15.401  0.0974  0.3264 -0.1480
52204W        W95195  32.545   5.015   2.139 -0.1493  0.1248  0.1565
52205W        W95196  29.845  28.120  15.027 -0.2711  0.1037  0.1448
52206W        W95197  24.328  16.593  27.740 -0.0454  0.1492 -0.2700
52207W        W95198  31.060  13.427   2.488  0.1791 -0.0032  0.1240
52208W        W95199  18.642   9.855   2.173 -0.3251  0.0839 -0.1041
52209W        W95200   3.952  27.537   5.916  0.2572 -0.0905 -0.1732
52210W        W95201  10.225   1.098  27.314 -0.1009  0.3174  0.1541
52211W        W95202   5.085  14.785   5.441 -0.2790 -0.0621  0.2575
52212W        W95203  31.088   1.382   9.814 -0.1311 -0.1283  0.0525
52213W        W95204   2.207  18.516   4.087 -0.1073 -0.1649 -0.0048
52214W        W95205  32.496  33.838  24.055 -0.0944 -0.0660 -0.0614
52215W        W95206  26.208  17.199   6.742 -0.3865  0.0781 -0.0643
52216W        W95207  22.459  15.230  21.073 -0.1869  0.0496  0.1725
52217W        W95208  33.753   7.201   4.520 -0.1064 -0.0303 -0.2392
52218W        W95209   1.706  28.746   3.255 -0.0581  0.2121  0.0804
52219W        W95210   6.308  30.583  21.492  0.1766  0.0921 -0.2237
52220W        W95211  32.031   9.418   4.837 -0.2793 -0.3094  0.0099
52221W        W95212   6.375  12.313  18.075 -0.2716  0.0261  0.2689
52222W        W95213  16.304   5.340   8.643 -0.1807 -0.2746  0.0160
52223W        W95214   5.017  17.430   2.492  0.0272  0.2922 -0.0297
52224W        W95215   1.513  17.617   5.689  0.0458  0.0538  0.1382
52225W        W95216   8.640   9.388  18.664  0.1389 -0.1284 -0.0449
52226W        W95217  33.465   8.077  26.000 -0.1792  0.0360 -0.1041
52227W        W95218  11.350  17.371   0.488  0.0073 -0.0900 -0.1891
52228W        W95219  19.989  31.507   4.417 -0.2635 -0.2119  0.1824
52229W        W95220  10.920   4.650   8.259 -0.0285  0.2927  0.0503
52230W        W95221   8.967  11.798  28.030  0.1933  0.0107 -0.3027
52231W        W95222   5.078   9.481  29.127  0.0487  0.0649 -0.0584
52232W        W95223  20.305  11.055   6.482 -0.1492  0.0253  0.1789
52233W        W95224  19.513  16.255  26.255  0.3628  0.0369 -0.0461
52234W        W95225  10.352   7.618   8.816 -0.1554 -0.0504  0.1403
52235W        W95226  32.417   1.424   6.808  0.0288  0.0890  0.1787
52236W        W95227   5.240  10.653  24.056  0.2117 -0.0222 -0.0113
52237W        W95228   1.245   2.609  18.481 -0.1254 -0.0173  0.0114
52238W        W95229  17.964   3.753  29.183  0.1472  0.0213 -0.0418
52239W        W95230  30.670  33.830  26.699  0.0274 -0.0051  0.1561
52240W        W95231  34.376  27.871   7.933 -0.0830 -0.1491 -0.1074
52241W        W95232   4.532   4.050  25.872  0.1735 -0.1480 -0.1982
52242W        W95233  34.581  31.359  16.408  0.2526 -0.2688  0.0436
52243W        W95234  21.164  14.512  20.807 -0.1864  0.0585  0.2557
52244W        W95235   6.223  18.665   7.884  0.0976  0.0566  0.0337
52245W        W95236  26.837  11.175   7.750 -0.1809  0.1117 -0.3593
52246W        W95237   5.368  16.734  27.432 -0.4073 -0.0374 -0.1489
52247W        W95238  29.312  14.910   4.694  0.1568  0.2767  0.2468
52248W        W95239  15.716  34.240   5.125  0.4901  0.0382  0.2068
52249W        W95240  27.558  17.385   4.612 -0.1112 -0.1619 -0.2860
52250W        W95241  29.478   8.606   7.477  0.0099  0.0558 -0.0558
52251W        W95242   0.317  23.726  23.827  0.0102  0.1463  0.2236
52252W        W95243   3.443   6.868   9.735  0.0797 -0.0676 -0.3658
52253W        W95244  13.281  10.416  22.441  0.1708 -0.5475  0.1691
52254W        W95245  31.433  27.207  28.021 -0.1734  0.1553 -0.0083
52255W        W95246   2.575  12.417  23.699 -0.1206 -0.2006 -0.0447
52256W        W95247  22.097  20.332   8.496 -0.1484 -0.0928 -0.4985
52257W        W95248   4.958   6.787  22.906 -0.0269  0.0526 -0.0884
52258W        W95249  26.825   9.279  24.082 -0.2657  0.1123 -0.2781
52259W        W95250  23.657  17.096   2.670 -0.1920 -0.0888 -0.2678
52260W        W95251   0.946  18.760   8.627  0.1809  0.1912  0.0095
52261W        W95252   5.467   6.915  27.328 -0.2773 -0.1363 -0.1080
52262W        W95253  29.336  12.734  28.763  0.2652  0.0255 -0.1066
52263W        W95254  32.977  17.197   9.379 -0.4745 -0.0497 -0.0698
52264W        W95255   4.540  16.029   9.205  0.2151  0.3655 -0.2072
52265W        W95256   8.782  34.551  28.019 -0.0449 -0.0832 -0.1818
52266W        W95257   8.945  10.595   9.220 -0.0810  0.1078  0.2796
52267W        W95258  12.221  21.293   2.504  0.6231 -0.0319  0.2287
52268W        W95259  18.095  19.627   3.032  0.0581 -0.0476 -0.1965
52269W        W95260  31.722   3.113  25.224 -0.0008  0.0769 -0.0552
52270W        W95261   3.804  12.354  22.034 -0.0872 -0.2376 -0.0693
52271W        W95262  27.972  11.850  14.037  0.1375  0.0686 -0.0761
52272W        W95263   1.306  10.595  28.887 -0.0761  0.1624 -0.0010
52273W        W95264  28.168  16.378  14.976  0.1130  0.0675  0.0925
52274W        W95265   0.765   5.503  17.728 -0.4247  0.0742  0.0245
52275W        W95266  16.133  26.189   7.959  0.4417 -0.2693  0.1268
52276W        W95267  22.463  18.836   7.618 -0.0421 -0.0486  0.0245
52277W        W95268  11.914  13.558   1.110 -0.2550  0.1177 -0.2778
52278W        W95269  29.692  34.697  23.673  0.1408  0.2499  0.0871
52279W        W95270   4.821   1.242   3.358 -0.0955  0.1569  0.0586
52280W        W95271  27.573  14.605  27.902  0.0219 -0.4031  0.0521
52281W        W95272  22.193  13.182  28.999 -0.1911  0.2004  0.0223
52282W        W95273  29.949  14.041   2.496 -0.2251  0.0200  0.1288
52283W        W95274  19.112  11.556  24.105  0.2194  0.1187 -0.0107
52284W        W95275   4.641   1.422  25.116 -0.0663  0.1218 -0.1650
52285W        W95276  29.175  14.084   0.299  0.1066 -0.0289 -0.1123
52286W        W95277  26.762  32.093  13.433  0.1425  0.0996 -0.0420
52287W        W95278  18.805  14.620  21.826 -0.0920 -0.2164  0.1401
52288W        W95279  19.693  23.967  21.572  0.1495 -0.0280  0.0550
52289W        W95280  26.609   5.515  25.225  0.0775  0.1486  0.0671
52290W        W95281   2.217  16.760   4.260  0.2024  0.0739 -0.4172
52291W        W95282  28.034  11.927   6.496 -0.0073 -0.0995  0.0023
52292W        W95283  30.215  12.600  22.335 -0.4012  0.0997 -0.1917
52293W        W95284  28.352  13.573  26.929  0.4468  0.0443 -0.2614
52294W        W95285   3.838  13.360   2.013 -0.0705 -0.6587  0.0802
52295W        W95286  34.495   7.012  11.053  0.0705 -0.1731 -0.0806
52296W        W95287  29.749   7.372   7.938  0.3680 -0.0970  0.1786
52297W        W95288  28.239   7.520  25.996 -0.1348 -0.2456 -0.0382
52298W        W95289   1.342  30.216  15.805  0.2993 -0.0996  0.2499
52299W        W95290  21.638  12.429  14.013  0.1988  0.2926  0.1813
52300W        W95291   7.937   6.089  22.987  0.2528  0.0039 -0.0119
52301W        W95292  34.577   1.430   7.575  0.1873 -0.0510  0.5051
52302W        W95293   6.866  14.918  28.890 -0.1319 -0.3393 -0.1365
52303W        W95294  16.450  31.087   0.992 -0.2685  0.4947 -0.1451
52304W        W95295  29.439  16.240  21.632 -0.1978  0.0664 -0.0261
52305W        W95296   4.429  32.651   2.811 -0.3099 -0.1040  0.1449
52306W        W95297   2.808   7.625  22.027 -0.0332 -0.0182 -0.1495
52307W        W95298  18.206  30.486   6.266 -0.1832  0.1132 -0.2923
52308W        W95299   7.981  19.607  24.748 -0.4327  0.2422 -0.0111
52309W        W95300  26.937   9.625   5.266  0.2247  0.0233  0.3792
52310W        W95301  25.125  28.772   9.889 -0.0177  0.4061  0.0904
52311W        W95302   3.569  16.954   1.284 -0.0886  0.1536 -0.0840
52312W        W95303  16.714   9.904  24.770  0.0147  0.0719  0.2757
52313W        W95304   1.770   9.367   3.104 -0.4093 -0.2236  0.0489
52314W        W95305   1.717   8.213   4.401  0.2067 -0.2252  0.2578
52315W        W95306  30.764   9.545   9.593 -0.1929 -0.4341  0.2093
52316W        W95307  26.587  18.423   2.855 -0.0318 -0.2379 -0.1412
52317W        W95308  22.894  28.653   6.056 -0.2307 -0.1213 -0.1411
52318W        W95309  25.686  20.204  20.152  0.0437  0.1456  0.3267
52319W        W95310  22.815   6.883   5.654  0.1901 -0.0720 -0.1051
52320W        W95311  15.014  15.347  29.018 -0.2634  0.0296 -0.2518
52321W        W95312   8.168   3.901  21.215  0.0069 -0.1605  0.2412
52322W        W95313   4.880   7.503  23.554  0.1079  0.1379 -0.2811
52323W        W95314  11.310  18.143  25.184 -0.1765 -0.2159  0.2246
52324W        W95315   5.888  16.448   2.039 -0.2168  0.1645 -0.0041
52325W        W95316   2.047  31.513   7.288  0.0521 -0.4963 -0.1099
52326W        W95317  31.641  13.071  16.198 -0.2262 -0.2423 -0.2284
52327W        W95318  10.081  20.720   5.857 -0.0464 -0.1267  0.1319
52328W        W95319  26.785   1.900   2.404  0.0357 -0.2500  0.0149
52329W        W95320  21.617  16.227   0.880 -0.0942 -0.2596  0.0568
52330W        W95321  33.624   6.385  10.965 -0.0085  0.0206 -0.2443
52331W        W95322   3.675  34.531   4.299  0.0691  0.1654  0.2629
52332W        W95323  28.359  13.203   5.694 -0.2020 -0.0683 -0.0409
52333W        W95324  13.952   5.110   7.631  0.1856 -0.1972 -0.0430
52334W        W95325  28.976  24.062   6.468  0.0544  0.2692 -0.2530
52335W        W95326  21.648  30.937  25.371 -0.1279 -0.0882 -0.0611
52336W        W95327  30.813  19.170   5.137 -0.1947 -0.2828  0.0992
52337W        W95328  15.076  34.637   7.180 -0.1225 -0.0459 -0.1638
52338W        W95329  31.458  15.928  10.638  0.2835 -0.0500 -0.0030
52339W        W95330  31.575  20.271  26.702 -0.0256  0.2499  0.2765
52340W        W95331   5.575  18.916   6.830  0.2494 -0.2926  0.0312
52341W        W95332  26.144   7.530  23.179 -0.1225 -0.1151 -0.1382
52342W        W95333   5.741   8.511   1.881 -0.3026 -0.0799 -0.0693
52343W        W95334  10.588  25.021   0.782  0.0995  0.0253 -0.0173
52344W        W95335   1.238   9.317  10.932  0.1142  0.2303 -0.0372
52345W        W95336  30.933   4.294  29.244  0.4611 -0.0568  0.0732
52346W        W95337   7.041  14.143  10.141 -0.0296 -0.0943  0.1902
52347W        W95338  15.202   8.110   5.494 -0.1107  0.0400 -0.3294
52348W        W95339  24.165  15.708  25.478 -0.0037 -0.0818  0.1432
52349W        W95340  31.989  13.103  16.577 -0.0505  0.1525 -0.0367
52350W        W95341   0.830  29.228  27.349  0.2024 -0.0910  0.3984
52351W        W95342  30.029   9.985   2.894 -0.0428 -0.3646  0.1190
52352W        W95343  16.638  15.717  25.980  0.0430  0.3537 -0.0992
52353W        W95344  28.155  19.355   7.399  0.2703  0.0241 -0.0071
52354W        W95345  21.736  32.998   0.676  0.1973 -0.1154  0.1545
52355W        W95346  19.657   4.808   6.723 -0.4532  0.0466 -0.2458
52356W        W95347   7.304  19.233  10.377  0.2779  0.4467 -0.0774
52357W        W95348   2.748  22.357   5.704  0.0972  0.2347 -0.0242
52358W        W95349  22.409   0.401   1.874 -0.4974 -0.0134  0.2299
52359W        W95350  14.477   3.152   6.461  0.0076 -0.0455 -0.0101
52360W        W95351   4.872  26.016  10.063  0.0093  0.1140 -0.0047
52361W        W95352  31.628   8.926  23.848 -0.0998  0.0398 -0.1976
52362W        W95353  27.762  17.631   1.270  0.1517  0.1165 -0.5170
52363W        W95354   0.924   2.738  28.380  0.3064 -0.0920 -0.2810
52364W        W95355  31.763  12.821   6.545 -0.2929  0.2124 -0.1383
52365W        W95356   3.904  11.557  17.173 -0.3727  0.2823  0.0120
52366W        W95357   1.803   1.132   2.840 -0.0344 -0.1544 -0.1410
52367W        W95358  24.780  13.394  27.987  0.1926 -0.2012 -0.1949
52368W        W95359  31.050   7.648   1.944 -0.3851 -0.1079 -0.3395
52369W        W95360  16.611  27.866   8.471  0.0004  0.0260 -0.0844
52370W        W95361  30.019  23.501   3.198 -0.3042  0.0301  0.1585
52371W        W95362  32.649  12.252  10.588  0.0378 -0.1680  0.1320
52372W        W95363   2.312   6.771   6.132  0.1117  0.2772 -0.1208
52373W        W95364  22.610   7.011   4.044 -0.3426 -0.0314 -0.0725
52374W        W95365  33.112  23.236   1.958  0.1431 -0.0098 -0.1202
52375W        W95366  32.765   8.863   4.887 -0.1508 -0.4344 -0.1979
52376W        W95367   8.270  11.907   7.264 -0.1363  0.1088  0.1285
52377W        W95368   1.639  32.892   8.578  0.0913  0.4062  0.2888
52378W        W95369  34.077   5.604   6.710 -0.1960 -0.2688  0.1221
52379W        W95370  27.605   2.767   0.597  0.1085  0.0042  0.1697
52380W        W95371   8.726   8.893   1.508 -0.0461 -0.1924  0.1145
52381W        W95372  10.982  24.187  23.194 -0.1744  0.3074  0.2366
52382W        W95373  18.412  32.113   8.105 -0.1841  0.0599 -0.0903
52383W        W95374   0.782   3.927  16.578 -0.0996 -0.0903 -0.3444
52384W        W95375   3.567   5.098  11.786 -0.2190  0.2711 -0.2754
52385W        W95376   1.366  18.227   3.175 -0.0248 -0.0588 -0.0132
52386W        W95377  11.958  15.426   4.976 -0.3127 -0.1912  0.2487
52387W        W95378   0.940  13.687  28.990  0.0585 -0.2000  0.1971
52388W        W95379   6.800  15.325  28.559 -0.3400  0.1823 -0.2032
52389W        W95380  33.401   0.762   5.248 -0.0513 -0.1143 -0.1430
52390W        W95381   8.055   6.230   1.930  0.0693 -0.0273 -0.0210
52391W        W95382  29.662   3.760   7.559  0.1628  0.1779 -0.1498
52392W        W95383   8.134   9.566  24.932 -0.0787 -0.0261 -0.0761
52393W        W95384   1.054  28.256   9.475 -0.2535  0.2448 -0.4629
52394W        W95385  14.296   9.015  25.636  0.1520  0.2152 -0.0042
52395W        W95386  20.031   3.231   4.688  0.1204  0.1412 -0.4756
52396W        W95387   0.298  14.932   1.487  0.1035  0.1498  0.1044
52397W        W95388  34.196  20.892  26.439 -0.2249 -0.1149  0.3713
52398W        W95389   9.963   3.100   1.889  0.0685 -0.0279  0.0180
52399W        W95390  23.851  34.349   5.748 -0.1455  0.2190 -0.0625
52400W        W95391   2.268   1.313   6.760 -0.3350 -0.4130  0.2142
52401W        W95392  25.220   1.308  16.479 -0.3734  0.0910 -0.2070
52402W        W95393  10.433  25.957  28.928 -0.2644 -0.0211  0.2814
52403W        W95394  17.946   3.069   8.606 -0.5364 -0.1294 -0.2143
52404W        W95395   4.798  16.429  18.946 -0.0135  0.2206 -0.1705
52405W        W95396  18.165  28.356   1.362  0.1638  0.1497 -0.1285
52406W        W95397  10.130  10.133   2.692  0.1305 -0.2450 -0.1205
52407W        W95398   6.700  18.381   7.020 -0.1757  0.2500  0.1280
52408W        W95399  28.054  10.122  21.592  0.2711  0.0744  0.3523
52409W        W95400  23.161  16.395   4.171 -0.2145 -0.1108  0.0461
52410W        W95401   2.744  32.698  26.385 -0.0538 -0.0465 -0.2091
52411W        W95402   8.996   2.634   3.097  0.0376  0.2029  0.2189
52412W        W95403  32.652   1.887   8.111  0.1417 -0.1333  0.1907
52413W        W95404   0.145  15.635   2.893 -0.1001  0.0185  0.0723
52414W        W95405   9.458  28.054   6.262  0.0457 -0.1174 -0.1157
52415W        W95406  14.404  34.175  14.910 -0.1584 -0.1203  0.1133
52416W        W95407   0.876  12.747   8.992 -0.0899  0.3651  0.2903
52417W        W95408   6.685   6.179   7.735 -0.0559 -0.1828 -0.0177
52418W        W95409   6.249  10.558  18.505 -0.3549 -0.2616 -0.1027
52419W        W95410  27.414  34.196   2.689  0.0524  0.1791  0.4127
52420W        W95411  31.475  11.084   9.573 -0.1042 -0.2420 -0.1513
52421W        W95412  33.547   8.937  27.931  0.0789  0.3076  0.0123
52422W        W95413  29.221  10.768   6.140  0.0490 -0.1868  0.2848
52423W        W95414  28.770  14.716   4.332  0.2632  0.1310  0.1649
52424W        W95415   8.938   0.330   5.225  0.2611  0.1011 -0.0488
52425W        W95416   6.535  33.847   8.289 -0.2182  0.2684  0.0250
52426W        W95417  23.294  19.182  15.985  0.0431 -0.0602  0.2453
52427W        W95418   5.487   0.040  18.521 -0.0546 -0.2544  0.1671
52428W        W95419  23.081   4.909   7.293 -0.1907  0.1772 -0.1751
52429W        W95420  26.422  19.044   7.366 -0.1733  0.2020  0.0266
52430W        W95421  15.523  10.710  27.026  0.3291  0.1035  0.0052
52431W        W95422  15.247   3.461  26.415  0.4644 -0.0558 -0.1266
52432W        W95423   3.398  11.475  26.145 -0.0425  0.1204 -0.3028
52433W        W95424  16.660  12.200   6.891 -0.0644  0.0637  0.0340
52434W        W95425  31.169   3.812   3.760 -0.0449  0.2730 -0.0275
52435W        W95426  13.220  13.902  14.574 -0.2298 -0.0512  0.0620
52436W        W95427  31.201   9.132   0.163  0.2738  0.1280 -0.1642
52437W        W95428  29.335   9.501   4.286 -0.1099  0.0961  0.1627
52438W        W95429  31.221   9.609  24.415  0.1180  0.2564 -0.3172
52439W        W95430   2.240  17.969  28.810  0.2927 -0.2088  0.1582
52440W        W95431  32.290   5.693   0.888  0.0952  0.2882  0.1161
52441W        W95432  25.011  30.083  23.995  0.1059 -0.2464  0.1183
52442W        W95433  12.855  29.988   0.013 -0.0599  0.0302  0.0105
52443W        W95434  24.470  27.382   0.242 -0.0259  0.2901 -0.1420
52444W        W95435  32.471  18.127  26.839  0.0827  0.1135 -0.2031
52445W        W95436   2.645  24.999   7.989  0.0780  0.0113 -0.1074
52446W        W95437  30.071   6.117  24.056  0.1524 -0.1801  0.2880
52447W        W95438  13.032   8.854   1.030 -0.1679 -0.0334  0.4200
52448W        W95439   9.141   1.944   1.330  0.1284 -0.2100 -0.0484
52449W        W95440   5.764   9.382   9.988 -0.5520  0.1477  0.1311
52450W        W95441  12.187  29.409   0.172 -0.3418  0.0095 -0.0642
52451W        W95442   2.174  12.503  23.240 -0.4174  0.1048  0.0509
52452W        W95443   6.515  11.252  28.649 -0.0942 -0.0546  0.3454
52453W        W95444  26.051  23.148   9.195  0.2765  0.0386 -0.2130
52454W        W95445  32.505  20.625   8.381  0.0646 -0.0699  0.1366
52455W        W95446  22.271  18.988  23.651 -0.1408 -0.1071  0.3814
52456W        W95447  16.196  11.884   5.869 -0.0274  0.0060  0.0101
52457W        W95448  32.179  24.184   9.865 -0.0173  0.1253 -0.0658
52458W        W95449  30.733   0.727   7.168  0.0761  0.2571 -0.2274
52459W        W95450   3.780  13.683   1.357  0.0004  0.2564  0.0673
52460W        W95451  25.953  11.700   5.877  0.3338  0.0908 -0.2074
52461W        W95452  33.466   8.235   7.309  0.2798 -0.2867 -0.0104
52462W        W95453  30.463  11.590   3.584  0.1012 -0.2988  0.2055
52463W        W95454   6.263  15.242   3.376  0.1896  0.2864  0.2055
52464W        W95455   1.522   6.624   7.765 -0.0307 -0.1754  0.1685
52465W        W95456  10.164   0.883  28.341 -0.0865  0.2579  0.1454
52466W        W95457  34.295   0.017   3.913  0.1722 -0.2041 -0.1325
52467W        W95458  11.227  24.438   8.029  0.1125 -0.0257  0.0753
52468W        W95459   5.640  33.409  24.524 -0.0628  0.1126  0.0122
52469W        W95460  11.487   8.671   8.422  0.0974  0.1868  0.3687
52470W        W95461   2.551  11.403   6.626 -0.0211 -0.1909  0.0596
52471W        W95462   3.601  22.542  24.310  0.0345 -0.0691  0.1095
52472W        W95463  34.481   5.482  27.767  0.0503 -0.1365 -0.0161
52473W        W95464  14.426  21.830   8.080  0.2299  0.2069  0.1871
52474W        W95465   3.432  18.971   5.317 -0.1429  0.0469 -0.0554
52475W        W95466   0.516   8.415   0.217  0.1777 -0.1393  0.0162
52476W        W95467  12.098   3.495   4.362  0.1163 -0.0619  0.4524
52477W        W95468  34.431   5.349   4.520  0.4354  0.0321 -0.1416
52478W        W95469   4.877   9.911  29.033 -0.0302  0.1353  0.0817
52479W        W95470  29.879   8.516   5.341  0.1697 -0.0480  0.1384
52480W        W95471   7.217   1.821  28.737 -0.0392 -0.0930  0.2453
52481W        W95472   9.533   7.497  23.167  0.0659 -0.1927 -0.2950
52482W        W95473   7.953  20.043   8.863  0.1536 -0.1203 -0.1027
52483W        W95474   0.932  10.572   8.936  0.0811 -0.3077  0.3843
52484W        W95475  30.498  25.656  18.708 -0.2398  0.1971  0.1031
52485W        W95476   8.570  33.512  24.204  0.0399  0.2455  0.1268
52486W        W95477  32.184   5.017   7.206 -0.2464  0.0058  0.0610
52487W        W95478  14.095   7.234  22.355  0.0859  0.1186 -0.2813
52488W        W95479  33.438  13.431   9.062  0.2736  0.1241  0.0557
52489W        W95480   3.888   0.186  27.445 -0.2943  0.0548  0.0868
52490W        W95481   1.803  31.325   5.408  0.2161 -0.2267  0.0501
52491W        W95482  11.995   5.299   2.310 -0.0017  0.2836  0.2207
52492W        W95483  24.880  23.837   2.699 -0.0841 -0.2126 -0.0193
52493W        W95484   4.056  15.303   2.686 -0.0336 -0.0569  0.1218
52494W        W95485   1.883  13.309  25.024  0.1859 -0.1876 -0.1248
52495W        W95486  10.200  16.991  28.674  0.1429  0.1606  0.1502
52496W        W95487  20.363   6.402   5.652 -0.2954 -0.0394 -0.0722
52497W        W95488  19.992  11.748   9.199 -0.1891  0.3328  0.1568
52498W        W95489  24.979   5.499   2.220  0.2654 -0.1609  0.1061
52499W        W95490  15.785   6.608   4.684 -0.0944  0.0731 -0.2195
52500W        W95491   0.739  10.853  23.475  0.3223 -0.0898  0.0755
52501W        W95492   4.720   3.444  28.564 -0.0179 -0.2813  0.0621
52502W        W95493  33.509  26.424  24.880 -0.1882  0.1564 -0.3705
52503W        W95494   2.284  17.034   0.047  0.1647  0.1907 -0.3000
52504W        W95495   0.497  14.376   8.622  0.0939  0.1893  0.2526
52505W        W95496  30.896  12.114   7.146 -0.0006 -0.0080 -0.1881
52506W        W95497  31.198   3.079   8.138  0.0749 -0.3198 -0.1643
52507W        W95498  28.846  19.446   3.280 -0.0798  0.0667  0.1265
52508W        W95499   9.934  10.579  28.303 -0.3146  0.1559 -0.1370
52509W        W95500  34.118  15.655   7.121 -0.1903  0.1911 -0.0469
52510W        W95501   6.113   4.638  24.221  0.3383  0.0487  0.0680
52511W        W95502   0.977  27.329   7.480  0.0737 -0.0232  0.2214
52512W        W95503  23.324  13.118  25.372 -0.2847  0.2325  0.0997
52513W        W95504   0.612  12.771  19.749  0.1048 -0.3435 -0.0439
52514W        W95505   8.357  32.737   5.104  0.0265 -0.2447  0.0257
52515W        W95506  31.435   7.966  17.426 -0.0093 -0.0446  0.1370
52516W        W95507  34.118  13.777  23.124  0.1967  0.2046 -0.2862
52517W        W95508  32.535  22.324   9.874 -0.2526 -0.0565 -0.2379
52518W        W95509   2.889  16.274   3.676 -0.1122  0.1392  0.2333
52519W        W95510  14.686   8.534  19.546  0.1644 -0.3269 -0.0561
52520W        W95511   5.152  10.900   4.767  0.1723  0.2586  0.3038
52521W        W95512   5.042  30.666   4.310 -0.2612  0.1611  0.0490
52522W        W95513   1.429  10.712  22.876 -0.1138 -0.1051  0.1963
52523W        W95514  12.430   5.810   3.549  0.2762  0.1570  0.0221
52524W        W95515  17.673  18.601  14.041 -0.0857  0.0756 -0.1211
52525W        W95516  18.692   8.750   0.164  0.0862  0.2685 -0.1493
52526W        W95517  14.369  16.763   1.252  0.0933 -0.0726 -0.1962
52527W        W95518  29.444  14.722   8.339 -0.0737 -0.2122 -0.3708
52528W        W95519  31.217  24.467  26.303 -0.2081 -0.0004 -0.1714
52529W        W95520  26.868   9.285  27.073 -0.0508  0.1242  0.2025
52530W        W95521  30.411  34.395   7.616 -0.1941  0.2834 -0.0404
52531W        W95522   4.622  12.407   8.741 -0.1745  0.1516 -0.1142
52532W        W95523  34.686   9.479   9.492 -0.1434 -0.2086 -0.0847
52533W        W95524   6.354  10.944   2.985  0.1292 -0.3267 -0.1724
52534W        W95525   4.726  11.038   8.771 -0.2452  0.1824 -0.0845
52535W        W95526   2.973   7.986  26.353  0.1384 -0.0986 -0.0985
52536W        W95527  31.065  10.053  24.715 -0.1228  0.2100  0.2025
52537W        W95528  24.603  17.867   7.356 -0.0032  0.0857  0.2669
52538W        W95529  16.365  30.480   1.637  0.1615 -0.0784  0.1935
52539W        W95530  22.957  15.727  27.988 -0.2715 -0.0642 -0.2055
52540W        W95531  32.198   5.053  23.884  0.0810  0.2471 -0.1488
52541W        W95532  24.523  17.783  23.468 -0.2354 -0.2128  0.0805
52542W        W95533  34.023   3.530   3.710  0.2988 -0.1320 -0.0257
52543W        W95534  16.096   0.985   1.933  0.2606 -0.0237  0.1472
52544W        W95535   3.530  11.592   6.187  0.2738  0.1242  0.1126
52545W        W95536  28.959   8.292   1.798 -0.3193  0.4985  0.0045
52546W        W95537  24.903  11.103   9.387 -0.0845  0.1819 -0.0148
52547W        W95538   5.295  18.639  10.191 -0.1234 -0.1346  0.0815
52548W        W95539  32.937  19.125  26.590  0.3165  0.1827 -0.2046
52549W        W95540   4.539   1.770   9.013 -0.2919  0.0376 -0.1456
52550W        W95541   7.955  29.048   0.834 -0.1117 -0.1068 -0.2354
52551W        W95542  33.621  12.014  10.925  0.0879 -0.0104  0.2146
52552W        W95543   4.650  15.860   8.301 -0.2812 -0.0468 -0.1336
52553W        W95544  31.746   8.806   2.422 -0.0972  0.3087 -0.2457
52554W        W95545   1.881  10.435  11.506  0.0092 -0.0356  0.2036
52555W        W95546  12.884  32.894   0.733 -0.1436 -0.2028  0.2327
52556W        W95547  32.535   9.059   8.311 -0.0210 -0.0735  0.0473
52557W        W95548  24.770   2.753   2.087  0.4302  0.1607  0.1893
52558W        W95549   4.309  34.688   9.711  0.2814  0.0513 -0.0441
52559W        W95550  12.148  30.508  10.313  0.0949  0.0042 -0.1762
52560W        W95551  11.578  13.463   5.630  0.3205  0.0584  0.2330
52561W        W95552   3.562  17.809   7.051 -0.1934  0.2224 -0.1661
52562W        W95553  18.413   2.293   8.699  0.2036  0.1227  0.3331
52563W        W95554  19.967  11.517   3.852 -0.6070 -0.1284  0.0541
52564W        W95555  25.451   9.361   8.701  0.2100 -0.0099 -0.1837
52565W        W95556  22.650  10.980   6.833 -0.1415  0.1753  0.1352
52566W        W95557   6.862  26.850  20.671  0.1818  0.1245  0.1942
52567W        W95558  34.383   8.357   7.856  0.0498  0.0508 -0.2570
52568W        W95559  20.564  32.642  29.116  0.1582  0.3052  0.0885
52569W        W95560  24.392  18.431   5.504  0.3615 -0.0225  0.0369
52570W        W95561  25.226  14.377  25.086  0.2666 -0.3887  0.1624
52571W        W95562   8.095   3.410  24.517 -0.2482  0.0288  0.1053
52572W        W95563  24.650  19.872  25.036 -0.0499 -0.2270 -0.1313
52573W        W95564  27.070  19.372   7.871  0.0689  0.2035 -0.1704
52574W        W95565  32.049  34.172   8.006  0.3046 -0.1289  0.1548
52575W        W95566   3.933   1.860   5.146 -0.1847 -0.0976 -0.1058
52576W        W95567  32.982   6.081   3.647  0.1109  0.2081  0.3117
52577W        W95568   4.554   6.290  26.664  0.2560  0.2640  0.2882
52578W        W95569  10.068   7.462  23.257  0.0206 -0.1098 -0.1431
52579W        W95570   8.089  13.621  27.084  0.0194  0.2366  0.0616
52580W        W95571   6.154   5.198  11.390 -0.1095 -0.2902  0.1547
52581W        W95572  31.888  23.415   6.487  0.2282 -0.1050 -0.3545
52582W        W95573  25.484   7.701   3.185 -0.0203  0.0656 -0.3136
52583W        W95574  23.531  20.851  29.240  0.0008  0.1285 -0.1427
52584W        W95575   1.509  29.394   5.792 -0.0263  0.3107  0.0129
52585W        W95576   8.278  14.976   0.887  0.2881 -0.2559 -0.1678
52586W        W95577   4.538   4.721  10.767 -0.1092  0.1617 -0.1565
52587W        W95578   7.771  10.135  20.222 -0.1823 -0.1147  0.2020
52588W        W95579   6.363   0.863  26.326 -0.0705  0.0211  0.0330
52589W        W95580  16.216  19.485   8.214 -0.2433  0.0922  0.0550
52590W        W95581   8.693  28.691   1.990 -0.2096  0.0373 -0.2392
52591W        W95582  32.066  13.308  11.010 -0.3268 -0.0250 -0.0718
52592W        W95583   5.152  20.670   5.286  0.3138 -0.1976 -0.1548
52593W        W95584  25.602   8.968  22.482  0.0714  0.1536 -0.3346
52594W        W95585  20.664   7.856   6.721  0.0717  0.4886  0.0905
52595W        W95586  27.215   9.869   1.086 -0.1332 -0.1838  0.0999
52596W        W95587   0.787  16.484  28.231  0.0839  0.4470 -0.6242
52597W        W95588   2.066  13.274  27.338 -0.0178 -0.2488  0.1041
52598W        W95589  17.034  34.315   7.029  0.2474  0.0163  0.3860
52599W        W95590   5.228  11.798  11.172 -0.0800  0.1335  0.1136
52600W        W95591   4.878  16.425   3.243 -0.0713  0.1699 -0.0651
52601W        W95592   3.905  11.831   6.330 -0.2288 -0.0295 -0.2915
52602W        W95593  29.941  29.029   6.757  0.0038  0.1486 -0.0883
52603W        W95594  23.744  30.200  14.253  0.3272 -0.1668  0.2770
52604W        W95595  33.197  10.015   0.913 -0.1112 -0.1969 -0.2266
52605W        W95596  34.404   9.759   9.892 -0.2387 -0.3464  0.0751
52606W        W95597  32.933  34.232   4.551  0.0331 -0.0887 -0.2922
52607W        W95598  14.055   4.726   0.993  0.1663 -0.0554 -0.1308
52608W        W95599  20.437   3.842   7.139 -0.4391 -0.4609 -0.1479
52609W        W95600  32.426   9.945  20.921 -0.0141 -0.4507 -0.2255
52610W        W95601  22.379   7.001  25.184 -0.1753  0.0889  0.0596
52611W        W95602  31.724  28.607   9.472 -0.0853 -0.2594  0.0557
52612W        W95603   0.341  15.449   5.788 -0.0922 -0.1031 -0.2709
52613W        W95604  21.281  17.912  25.245  0.0502  0.1362  0.1084
52614W        W95605  13.819   4.216   4.399 -0.1144 -0.1984  0.0728
52615W        W95606   0.063   7.991   3.308  0.0554 -0.2612  0.0671
52616W        W95607   6.937   3.865   5.345  0.2013 -0.1686 -0.2692
52617W        W95608   6.373   7.004   9.834 -0.0530 -0.3379  0.2867
52618W        W95609  33.913  21.089   8.931 -0.0498 -0.3671  0.0583
52619W        W95610  23.934  12.196   0.467 -0.0291  0.0256  0.2931
52620W        W95611   6.869  20.718   2.710  0.1517  0.1410 -0.3718
52621W        W95612   6.859   6.619  11.499  0.2425 -0.0862  0.0125
52622W        W95613  34.784  13.953  10.851 -0.2303  0.1401 -0.0672
52623W        W95614  19.751  13.658  23.412  0.2719  0.2558 -0.0833
52624W        W95615  21.228  10.964  28.062  0.0886  0.0512 -0.1570
52625W        W95616   8.079  12.863   8.064 -0.0397 -0.0243 -0.3184
52626W        W95617  19.424  21.519   0.948 -0.4294 -0.0565  0.1748
52627W        W95618  13.393  12.076  10.568  0.1126 -0.3649  0.0666
52628W        W95619  14.544  15.889   9.163  0.1173  0.2111 -0.1269
52629W        W95620  34.515   9.361   0.398  0.0466 -0.0394  0.2476
52630W        W95621  15.354   5.617   9.780 -0.0874  0.0713  0.5206
52631W        W95622   9.160   4.839  24.449  0.2437 -0.4404  0.2609
52632W        W95623  26.007   2.806  24.805 -0.0573 -0.1813  0.1391
52633W        W95624  10.418  16.206   8.899 -0.0912 -0.4234  0.2936
52634W        W95625  17.116   2.608   6.286  0.2393  0.2804 -0.0315
52635W        W95626  15.037   0.494   0.983  0.0359 -0.0041 -0.1240
52636W        W95627   9.755  32.100   8.442 -0.0766 -0.2025  0.0283
52637W        W95628  18.499  10.724   5.441  0.1016 -0.2392 -0.0807
52638W        W95629   8.886  32.740   6.118  0.1611  0.2089 -0.0014
52639W        W95630  11.454  21.779   5.207  0.0072 -0.1214 -0.0029
52640W        W95631   3.921  13.579   3.354 -0.1102  0.1691 -0.1014
52641W        W95632   3.041  34.185  16.418  0.1313 -0.1940  0.0895
52642W        W95633  21.721   5.517   3.977  0.2295 -0.0335  0.1761
52643W        W95634  32.771   6.749   3.016  0.1492 -0.2100  0.1262
52644W        W95635  24.298   4.120  25.848 -0.3269 -0.0577  0.1032
52645W        W95636  34.120   4.431   6.811 -0.1712 -0.1296  0.1614
52646W        W95637   7.511  14.343  10.858 -0.2507  0.2180 -0.0759
52647W        W95638   9.976  16.521   9.062  0.2808  0.2057 -0.0145
52648W        W95639   0.662  18.782  11.197  0.0126  0.2290  0.0536
52649W        W95640  24.955   6.020   3.642 -0.0299  0.2522  0.1095
52650W        W95641  13.971  28.974   7.606 -0.0046  0.1424  0.0462
52651W        W95642  22.368  14.662   2.931 -0.2119 -0.1251  0.2609
52652W        W95643  15.024   2.707  10.507 -0.1580  0.2966 -0.0770
52653W        W95644   7.090   0.065   0.443 -0.2841 -0.1482  0.0994
52654W        W95645  21.755  28.232   4.433  0.0056  0.1680  0.0981
52655W        W95646  29.478  15.945   9.252  0.2977  0.1710 -0.2188
52656W        W95647   5.912   6.807   1.907  0.1519 -0.2883 -0.0499
52657W        W95648   5.963  14.585  29.102 -0.0188  0.0081 -0.2867
52658W        W95649  25.934  28.239   5.804 -0.0861  0.1164  0.1131
52659W        W95650  28.179   9.275   7.422 -0.1821  0.1839 -0.1406
52660W        W95651  11.289  33.206   8.922  0.3026  0.2259 -0.2647
52661W        W95652  29.309  19.634  28.307  0.3520 -0.0202  0.1262
52662W        W95653  22.575  10.619   7.877 -0.3552  0.2098 -0.1930
52663W        W95654  13.309  10.213  10.476  0.1814  0.1103 -0.4245
52664W        W95655   1.941   3.530  17.919  0.0868 -0.3278 -0.2602
52665W        W95656   3.928   3.912  11.202  0.2890  0.3254  0.0966
52666W        W95657  19.304  15.260  24.752  0.4710  0.1543 -0.0936
52667W        W95658  33.079   7.510  24.778 -0.1369 -0.1342  0.1150
52668W        W95659   1.191   2.037   1.713 -0.0081 -0.0416  0.0919
52669W        W95660   8.228   4.992  10.394 -0.0813  0.2224  0.0423
52670W        W95661  25.509  19.308  10.251  0.0162 -0.1553 -0.0174
52671W        W95662   6.049  34.291   7.455  0.0283 -0.0348  0.2037
52672W        W95663  32.189  26.315   3.437  0.0436 -0.0022  0.3033
52673W        W95664  22.521   5.551  26.861  0.1344  0.1077 -0.0510
52674W        W95665   1.360  12.631  25.727 -0.2407 -0.0856  0.0489
52675W        W95666  13.233  16.443  22.722 -0.1101 -0.0663 -0.0439
52676W        W95667  30.985  18.072  22.412  0.2066 -0.0513 -0.2219
52677W        W95668  23.648  18.066   8.968 -0.0700  0.1075 -0.1940
52678W        W95669  31.507  10.454   5.149 -0.2378  0.0221 -0.1356
52679W        W95670  23.990   1.954  25.831 -0.0281  0.1306 -0.0304
52680W        W95671  32.083   9.782   7.751  0.4754  0.4818  0.2637
52681W        W95672  32.881   3.849   4.101  0.1109  0.2909 -0.0691
52682W        W95673  20.051   2.580   3.778 -0.2406  0.0468  0.5753
52683W        W95674   7.903   2.684  27.826 -0.2136 -0.0899 -0.1431
52684W        W95675  16.454   0.613   8.822 -0.1320 -0.3138 -0.2794
52685W        W95676  18.277   5.551   5.845 -0.2782 -0.0301 -0.0757
52686W        W95677   4.429   0.294  11.013 -0.0975 -0.3183  0.1122
52687W        W95678  33.638   3.251   7.561  0.0284 -0.1050 -0.1822
52688W        W95679   4.749  17.304   4.150  0.2002  0.1028  0.0033
52689W        W95680  33.346  31.898   9.231  0.1126 -0.0232  0.1520
52690W        W95681   1.405   4.914   0.169 -0.1336 -0.1459 -0.1148
52691W        W95682   5.930  14.639   5.164  0.0670 -0.1715 -0.2958
52692W        W95683  25.666   9.373  23.397  0.4640  0.0435 -0.2207
52693W        W95684   5.593  25.226   8.839  0.0439  0.3150  0.0403
52694W        W95685   0.192   3.838   5.358  0.2938 -0.3229  0.0569
52695W        W95686  19.033   6.147  26.018  0.1735 -0.2976  0.0972
52696W        W95687  30.103  23.577   8.501  0.2730 -0.1959  0.1232
52697W        W95688   3.780  33.805   7.764  0.1528 -0.1118 -0.0969
52698W        W95689  28.825  14.214  28.635  0.1862  0.2742 -0.2013
52699W        W95690  34.109  29.942   0.038  0.0327  0.1058  0.1141
52700W        W95691  28.228  17.633  29.257  0.0642 -0.1355  0.0738
52701W        W95692  30.499   7.994   4.102  0.1784 -0.0978 -0.1635
52702W        W95693  14.579   5.956  10.724 -0.1195 -0.0298 -0.2404
52703W        W95694   8.847  28.158   7.578  0.0594 -0.3260 -0.0225
52704W        W95695  11.827  15.230  26.459 -0.1609  0.1500  0.0462
52705W        W95696  19.194  21.971   4.871 -0.0180 -0.1389 -0.5190
52706W        W95697  11.777  12.647   3.531 -0.0340 -0.2508  0.1490
52707W        W95698  32.522  17.977  16.443  0.3899  0.0018 -0.4925
52708W        W95699  28.323   6.160   1.485 -0.1027  0.0685 -0.1913
52709W        W95700   5.097   9.284   2.994 -0.0376  0.0751  0.2307
52710W        W95701   4.581   1.832  27.525 -0.1968 -0.2531 -0.1268
52711W        W95702  21.215   7.114   0.175 -0.0452 -0.1422 -0.1934
52712W        W95703   5.536  22.473   6.770 -0.1041 -0.1789 -0.0949
52713W        W95704  33.893  13.828  19.197  0.0543 -0.1136  0.1139
52714W        W95705  17.048  16.340   5.768 -0.4053 -0.1985 -0.1658
52715W        W95706   3.298  28.355   0.316 -0.1281  0.0508 -0.1533
52716W        W95707  10.496  19.623  10.115  0.0642 -0.0568 -0.0759
52717W        W95708  22.026  26.885  28.874  0.0267  0.0073  0.0862
52718W        W95709  32.475  16.988  26.569  0.1447  0.0236  0.0611
52719W        W95710   7.977   9.298   0.445 -0.1678  0.0155  0.0216
52720W        W95711  18.683   6.351   4.547  0.0032  0.2523  0.3666
52721W        W95712  20.267  30.897   3.888 -0.4329 -0.2488  0.0051
52722W        W95713  10.171   8.830   7.814  0.0229 -0.3394 -0.1859
52723W        W95714  33.233  17.391  21.518 -0.1140  0.2389 -0.2340
52724W        W95715  28.730  19.290  23.101 -0.1765 -0.1151 -0.2369
52725W        W95716  23.115  23.384  26.752  0.2701 -0.0747  0.0640
52726W        W95717  33.145  10.228  21.458  0.0801 -0.1529 -0.1043
52727W        W95718  16.262  17.482   4.339  0.0182  0.0511  0.2614
52728W        W95719   8.691  21.132  16.734  0.3027 -0.0883  0.1983
52729W        W95720   5.919  22.160  28.239 -0.0701  0.1208 -0.1540
52730W        W95721   3.278   2.509   3.904  0.1218 -0.0575  0.2257
52731W        W95722   2.905  16.904  20.058  0.0593 -0.3164 -0.0996
52732W        W95723   0.830   1.137   4.074 -0.1507 -0.0482 -0.1471
52733W        W95724   8.661  17.315  21.514 -0.1957 -0.1390 -0.0608
52734W        W95725  12.576  12.014  10.317  0.3335  0.0931 -0.2350
52735W        W95726   5.848  12.667   1.465  0.1725 -0.0579  0.0762
52736W        W95727  23.614  18.859  15.816  0.2280 -0.1982  0.3273
52737W        W95728  21.822  23.752   3.603  0.0742  0.1028  0.0231
52738W        W95729   1.202  28.655   8.330  0.3820  0.1900 -0.2977
52739W        W95730  28.388  14.804   6.309  0.4548 -0.0963 -0.6660
52740W        W95731  21.657  27.930   7.517  0.0588 -0.2755  0.2432
52741W        W95732  34.767   9.507  11.828 -0.3953  0.0923  0.3118
52742W        W95733   4.733  15.127   4.268  0.1682 -0.0267  0.2205
52743W        W95734   0.224  14.917  10.896  0.1132 -0.2349  0.0745
52744W        W95735  28.715  15.582   5.090  0.4274 -0.2223 -0.3388
52745W        W95736  27.355  28.251   8.465  0.2439  0.0596 -0.1182
52746W        W95737  27.954  11.845  21.312  0.0360  0.4948  0.4691
52747W        W95738  29.902  26.213  25.367  0.2009 -0.0802 -0.1755
52748W        W95739  10.672   6.897   8.306 -0.1151  0.0810 -0.4319
52749W        W95740  10.008  22.394   5.106  0.0456  0.0504  0.2367
52750W        W95741  16.521   7.096   8.249 -0.2086 -0.2720 -0.0188
52751W        W95742  27.876  15.131  15.115  0.0104 -0.0238  0.3537
52752W        W95743   1.739  18.488   3.890  0.3364 -0.2299 -0.0204
52753W        W95744  23.858  10.713  23.591 -0.1442 -0.1075 -0.0683
52754W        W95745  33.012  17.484  17.291 -0.1355  0.3724 -0.0699
52755W        W95746   4.631  32.628  18.414 -0.1439 -0.2335  0.1230
52756W        W95747   6.371  16.702   1.867  0.0251  0.1644  0.3152
52757W        W95748  19.371   4.744   2.280  0.0583 -0.1722 -0.0096
52758W        W95749  30.568  14.358   3.873 -0.1888  0.0249  0.2382
52759W        W95750  29.454   8.254   5.501 -0.1217 -0.2379 -0.0866
52760W        W95751   5.818   1.127   4.604  0.0078  0.2142 -0.1941
52761W        W95752  11.176  28.132   5.238 -0.0409 -0.1673 -0.1740
52762W        W95753  20.935  11.017   2.275 -0.0914 -0.3824 -0.0358
52763W        W95754  13.752  18.554  21.923 -0.2194  0.2701 -0.3729
52764W        W95755  19.205   4.461  17.818 -0.0648 -0.3244 -0.1760
52765W        W95756  24.690  16.488  19.500 -0.0520 -0.3895 -0.0904
52766W        W95757   6.275   0.057  28.709 -0.1025  0.0530  0.0440
52767W        W95758   4.219  12.549   4.574 -0.0254 -0.2973 -0.1199
52768W        W95759  32.796  22.259  24.314 -0.1606  0.3574 -0.1432
52769W        W95760  14.290  24.925   1.041 -0.0527  0.0797 -0.0361
52770W        W95761  24.887  14.009   5.385 -0.0099  0.0297 -0.0141
52771W        W95762  28.950   2.478   3.099  0.1346 -0.2042  0.2865
52772W        W95763  25.456  22.591   4.085  0.0354  0.0445  0.4078
52773W        W95764  16.286  23.229   7.498 -0.0303 -0.1373  0.1135
52774W        W95765   8.826   9.938   8.455 -0.0358  0.0685  0.2924
52775W        W95766  24.100  21.701   0.487  0.1143  0.2860 -0.1018
52776W        W95767  22.799  16.543   6.355 -0.3895 -0.3777 -0.1407
52777W        W95768  26.173   7.022   5.989 -0.2653  0.0203 -0.1536
52778W        W95769  29.150  13.105   7.212 -0.2056 -0.1332 -0.0457
52779W        W95770   9.198   9.828  11.100 -0.0639 -0.1470 -0.0318
52780W        W95771   1.413  34.597   3.452  0.3214  0.0580 -0.0685
52781W        W95772   4.240  34.776  25.381  0.0248 -0.0059 -0.1519
52782W        W95773  24.265   5.363   7.429  0.0337  0.2065 -0.0980
52783W        W95774   9.294   4.394   3.196  0.4795  0.1734  0.0547
52784W        W95775   2.399  16.380   0.512 -0.0823  0.1781 -0.1666
52785W        W95776   3.890  20.639   9.423 -0.1253 -0.0345  0.3885
52786W        W95777  30.683   8.707   8.038  0.0533  0.0637  0.1113
52787W        W95778  33.336  11.765   7.076  0.2741  0.0551 -0.0318
52788W        W95779  18.230   1.407  17.868 -0.1478  0.1440  0.1223
52789W        W95780  15.499  30.969  15.823 -0.3796  0.0839  0.0610
52790W        W95781  29.445  28.773   6.820 -0.7864 -0.0758  0.0951
52791W        W95782  27.208  22.021  28.034 -0.2775 -0.0755 -0.1439
52792W        W95783   2.710  10.093   7.974 -0.1681 -0.0632  0.4334
52793W        W95784   0.790  14.646   2.754 -0.2815 -0.1190  0.0258
52794W        W95785   3.110  17.553   5.778  0.0994 -0.0792 -0.0682
52795W        W95786  27.008  19.515  19.901 -0.4009  0.2200 -0.1431
52796W        W95787   2.003  27.388   7.462  0.2049  0.2112 -0.1191
52797W        W95788   1.990  24.547   1.105 -0.0131 -0.1461  0.1542
52798W        W95789  34.364  24.093  22.766  0.1623 -0.1635 -0.1957
52799W        W95790   1.744  15.397  20.256 -0.4069 -0.2292  0.2583
52800W        W95791   8.406   1.448   1.008  0.0982  0.1077 -0.2189
52801W        W95792   0.685  17.498  27.241 -0.0856  0.0477  0.0498
52802W        W95793   3.983  12.903   0.240 -0.1124  0.2449 -0.1598
52803W        W95794   1.546  13.318   0.243  0.0742  0.1248 -0.3779
52804W        W95795  20.275  13.482  26.392 -0.1087 -0.1237 -0.2226
52805W        W95796   7.070   9.108   1.672 -0.0090 -0.0879 -0.1889
52806W        W95797  25.657  18.941   1.735  0.0771  0.1203 -0.1003
52807W        W95798   8.140   4.413  26.674  0.1868 -0.0827 -0.2223
52808W        W95799  30.747  15.127  25.808  0.0163  0.3826 -0.3380
52809W        W95800  16.593   0.968  28.837 -0.0554  0.1277 -0.1845
52810W        W95801  13.519  15.888   7.200 -0.0413 -0.1909 -0.0603
52811W        W95802   1.877   0.610  20.786 -0.1162 -0.0303  0.0571
52812W        W95803  22.282  11.724   6.910  0.1926 -0.0613  0.1340
52813W        W95804  30.054   8.692   0.211  0.0447  0.0672  0.0184
52814W        W95805   4.687   9.347  25.503 -0.2738  0.2304  0.1770
52815W        W95806   4.467   5.331  16.517  0.2825  0.3668 -0.2621
52816W        W95807   4.550  13.093  17.537  0.2739 -0.2442  0.1751
52817W        W95808  29.873  14.352  26.330 -0.0569 -0.0311  0.4085
52818W        W95809   0.049  27.940  18.460  0.3454  0.1056 -0.2450
52819W        W95810   8.437  10.468   9.032  0.3515  0.0953  0.0316
52820W        W95811  14.059   6.559   9.772  0.0406  0.0124 -0.2813
52821W        W95812   4.903  27.912   5.546 -0.0625 -0.4799  0.5172
52822W        W95813  26.060  14.778  17.125  0.1073  0.3907  0.1323
52823W        W95814  17.259  28.039   6.495  0.1522  0.0419  0.0047
52824W        W95815   4.090  19.226  10.286  0.1379  0.1507  0.1275
52825W        W95816  18.757   6.032   8.292 -0.3392 -0.2417 -0.0508
52826W        W95817   3.470  16.971   3.137 -0.3012  0.0940 -0.1798
52827W        W95818   5.898   8.721  26.691 -0.2847 -0.0175  0.2065
52828W        W95819   3.567   2.233  16.600 -0.3522 -0.0464  0.4013
52829W        W95820  32.842  14.848   3.845  0.0019  0.0853 -0.0795
52830W        W95821  26.376  13.754   2.384 -0.0996  0.1525  0.2008
52831W        W95822   8.733  10.010   7.983  0.1276  0.1782  0.2385
52832W        W95823  29.085   3.387   6.148 -0.0155 -0.1824  0.0708
52833W        W95824  26.822  20.280   8.108 -0.0660 -0.2659 -0.0488
52834W        W95825  27.749   8.328  25.148 -0.1083  0.0203 -0.1289
52835W        W95826   4.259  21.726   2.204  0.0554 -0.1178  0.1309
52836W        W95827   0.774   9.440  25.256 -0.2420  0.1693 -0.2863
52837W        W95828  15.290   4.263  28.579  0.0254 -0.0034  0.2010
52838W        W95829  32.621  11.716   4.899 -0.0704  0.1481  0.1000
52839W        W95830  31.719  22.399  22.599 -0.0357  0.1247  0.0449
52840W        W95831  25.374   5.709   6.506 -0.0154 -0.2103  0.1269
52841W        W95832  15.982  12.997  24.340 -0.0274 -0.1545  0.0516
52842W        W95833  34.014  10.771   8.312 -0.0310 -0.1527 -0.2182
52843W        W95834   0.435   6.381  23.106  0.1027 -0.2137  0.0987
52844W        W95835  20.634  12.849   6.254  0.2529 -0.0814 -0.2638
52845W        W95836   1.550  15.077   9.940 -0.2845  0.1307  0.1176
52846W        W95837  13.940  10.409  16.667 -0.2133  0.1837 -0.2793
52847W        W95838  26.549   9.595   2.671 -0.1744  0.2421 -0.0056
52848W        W95839  32.835   7.247  19.814 -0.0964 -0.0405  0.0701
52849W        W95840  26.038  18.481  27.565 -0.0055 -0.0814 -0.2149
52850W        W95841  33.655   9.123   7.652 -0.1453  0.0126 -0.0781
52851W        W95842  31.900  16.896   5.363  0.1755  0.1050 -0.1378
52852W        W95843  32.776  27.471  28.009 -0.1050  0.0466  0.0940
52853W        W95844   7.537  27.150  27.657 -0.0817  0.1037  0.2106
52854W        W95845  30.457   7.221  17.188  0.3020 -0.3367 -0.0468
52855W        W95846   4.470   8.508  22.320 -0.0957  0.0584 -0.1551
52856W        W95847  20.441   8.404   9.262  0.1074 -0.0150 -0.1377
52857W        W95848   0.584  17.787   5.407 -0.1526  0.0676 -0.1557
52858W        W95849   8.990  28.240  27.913  0.1633 -0.1212  0.0460
52859W        W95850   0.724   8.665   3.904  0.1068 -0.1432 -0.0368
52860W        W95851  10.434  14.873  14.805  0.0391  0.1867  0.2866
52861W        W95852   3.871   5.048  25.043  0.1114  0.1166  0.4861
52862W        W95853  25.771  13.472   8.794  0.0549  0.3471 -0.3248
52863W        W95854  19.146  10.891   3.360  0.2153 -0.2257  0.2099
52864W        W95855   1.281  10.732  26.549  0.2082  0.3406 -0.0435
52865W        W95856  11.949  12.096  28.331 -0.3831  0.3802 -0.0083
52866W        W95857   1.845   6.730   4.041  0.2076  0.1117  0.0492
52867W        W95858   2.024  15.834   9.941 -0.1072 -0.1994 -0.1184
52868W        W95859  34.385  12.340   1.058 -0.1979  0.3912  0.2018
52869W        W95860  23.618  11.285   6.872 -0.1430  0.0255 -0.3804
52870W        W95861  27.763  15.372   1.300 -0.0794  0.0285  0.0137
52871W        W95862   1.281  24.647   9.274 -0.1652  0.3304  0.1142
52872W        W95863  20.027  16.117   7.510 -0.0966 -0.0409 -0.0685
52873W        W95864   6.400  15.088   1.870 -0.2103  0.0191  0.4391
52874W        W95865   8.740  13.780   4.919  0.3270  0.2229 -0.3504
52875W        W95866  10.018  10.736   3.580 -0.0171 -0.0847  0.2676
52876W        W95867  22.501  17.435   0.128 -0.0594  0.0646  0.3028
52877W        W95868   7.676   0.486  16.015  0.0897 -0.0108  0.1288
52878W        W95869   0.728   7.301   3.376 -0.2895  0.0439 -0.1164
52879W        W95870  34.525  16.820   0.751  0.0614 -0.2826 -0.3339
52880W        W95871  27.714   2.002   6.742 -0.1433  0.1676  0.1227
52881W        W95872  33.626  19.390   9.130  0.4409 -0.1688 -0.0437
52882W        W95873   0.815  13.436   1.698  0.0231  0.0841  0.1757
52883W        W95874  14.379   6.119  22.040  0.1425  0.1085 -0.3123
52884W        W95875  26.520  15.212  10.547  0.1057 -0.1481 -0.1079
52885W        W95876  12.074  11.261  25.750  0.0619  0.1498 -0.3691
52886W        W95877   4.943  15.115  26.283  0.2186  0.1669  0.2188
52887W        W95878  31.948  12.200   6.439 -0.0602  0.3197 -0.3134
52888W        W95879  16.615   5.595   2.882  0.2796 -0.0238 -0.2086
52889W        W95880   3.699  23.272  27.523  0.3517 -0.0516 -0.0513
52890W        W95881   7.453   9.482  27.556 -0.2002 -0.1319 -0.3189
52891W        W95882  29.825  18.735   7.572 -0.1724 -0.1126 -0.0923
52892W        W95883  32.219  10.640   1.803  0.3607  0.0951 -0.0471
52893W        W95884   5.234   6.983   7.436 -0.0400  0.2850 -0.1116
52894W        W95885  12.538  15.046   5.630 -0.1358 -0.1180  0.1238
52895W        W95886  15.764  16.824  25.340  0.0212  0.0105 -0.0289
52896W        W95887  28.133  11.618  26.449  0.0838  0.0045 -0.1923
52897W        W95888   8.228   2.558  11.037 -0.5080  0.2335 -0.0370
52898W        W95889   6.076   9.058  22.332 -0.4944  0.0112 -0.1676
52899W        W95890  23.587  19.572  26.381 -0.4223  0.2244  0.2124
52900W        W95891  29.618  13.168  18.530  0.1086 -0.0076  0.2981
52901W        W95892   0.975  12.279  26.865 -0.0130 -0.0377 -0.0497
52902W        W95893   3.515  26.175  18.409  0.1611 -0.3827  0.0919
52903W        W95894  23.660   8.721  27.009  0.2162  0.1672  0.1452
52904W        W95895   8.777   0.923  21.360 -0.1585  0.0341  0.2508
52905W        W95896  29.376  11.815   2.353  0.1636 -0.1035 -0.1514
52906W        W95897  34.302  32.937  23.843  0.1318  0.1148 -0.0260
52907W        W95898  15.153   3.693  28.484 -0.2179 -0.0256  0.1383
52908W        W95899  16.059  18.352  28.852 -0.0333  0.1449 -0.3979
52909W        W95900  11.386  13.939  10.149 -0.2262 -0.0838  0.1159
52910W        W95901   2.969  20.127   7.936 -0.2490  0.0192  0.0591
52911W        W95902   6.804   9.574  29.034  0.1104  0.0418  0.1753
52912W        W95903  20.449  15.022   8.224 -0.1079  0.2025 -0.0303
52913W        W95904  27.951   1.983   8.497 -0.0883  0.2888 -0.1168
52914W        W95905  14.591   6.354   2.316  0.0442  0.2475  0.0915
52915W        W95906  27.102  15.967   4.575  0.3212 -0.2661 -0.2864
52916W        W95907  22.282   9.591  26.736  0.2988  0.2181 -0.2366
52917W        W95908   2.982  32.208   1.766  0.0561  0.0611  0.1175
52918W        W95909   6.040   9.218   7.455  0.0328  0.2646  0.2241
52919W        W95910   4.633  20.568   3.958  0.0454 -0.2058  0.3419
52920W        W95911  33.259  26.097  24.007  0.0620 -0.1195 -0.2684
52921W        W95912  13.731  20.425  25.437  0.1974  0.1316 -0.0967
52922W        W95913  25.600  16.330  23.486 -0.1576  0.0669 -0.0805
52923W        W95914   2.545  13.866  28.809  0.1697  0.0653 -0.3354
52924W        W95915  33.053   7.218  18.833  0.2578 -0.1190  0.2353
52925W        W95916   2.468   1.177  18.827 -0.2568  0.0304  0.0571
52926W        W95917  27.471  27.915  23.326 -0.3576 -0.1985  0.2094
52927W        W95918  31.417   8.404  20.569  0.2707 -0.0653 -0.4106
52928W        W95919  21.476  13.197   9.578  0.3258  0.3267  0.1889
52929W        W95920   9.236  12.005   4.264  0.2565  0.0366 -0.2199
52930W        W95921  34.730  32.227   1.646  0.5518  0.2272  0.0947
52931W        W95922  24.190  20.381   8.726 -0.1568 -0.1284  0.2086
52932W        W95923  19.739   3.282  24.848 -0.3059  0.1290 -0.1084
52933W        W95924   1.741   1.544   5.951  0.1036  0.2893 -0.0725
52934W        W95925  24.298   1.605  16.842  0.1991  0.1044 -0.0405
52935W        W95926   7.750   6.460  10.218 -0.0842  0.2770  0.1318
52936W        W95927   3.606  12.541   4.627 -0.0050  0.1419 -0.0157
52937W        W95928  11.688  11.195   2.432  0.0598 -0.0090 -0.0616
52938W        W95929   5.347  25.364  20.058 -0.0722  0.1237 -0.1835
52939W        W95930   4.633   7.449  26.930 -0.3580  0.2230 -0.3420
52940W        W95931  27.308   5.772  28.985 -0.1941  0.0795  0.0849
52941W        W95932   4.739   0.653   7.508  0.1239  0.0625  0.0622
52942W        W95933  27.757   4.280   4.667  0.0456  0.2637  0.0886
52943W        W95934  25.324  20.651  18.026 -0.0747  0.0560 -0.1138
52944W        W95935   0.104  26.229   6.255  0.1457 -0.2537  0.2005
52945W        W95936  27.193   3.671  19.862 -0.1357  0.1062  0.2621
52946W        W95937   6.057  15.669  26.765 -0.1096 -0.1809  0.1331
52947W        W95938  20.247   5.921  14.785  0.2786 -0.0545  0.0330
52948W        W95939  30.730  10.818   8.355 -0.0976  0.3585 -0.3070
52949W        W95940  33.757  14.203   7.339  0.0517  0.1936  0.0549
52950W        W95941  26.817   8.045   3.482 -0.0819 -0.2335 -0.4755
52951W        W95942  11.520  31.991  23.775 -0.0195 -0.0701  0.0112
52952W        W95943  26.766  29.310   6.127  0.1999  0.1454  0.5539
52953W        W95944  16.783  14.795  25.752  0.0071  0.1838 -0.0560
52954W        W95945   0.635   3.396   8.961 -0.1472  0.1450  0.1575
52955W        W95946  12.929  16.411   6.215  0.1230 -0.1624  0.0074
52956W        W95947  21.473  16.553  23.232  0.0950 -0.1456  0.0623
52957W        W95948  24.804  16.990  24.583 -0.1875 -0.1880  0.1134
52958W        W95949   7.945  21.278   7.117 -0.2277  0.0432 -0.0525
52959W        W95950  24.681   6.237   0.188 -0.2013  0.0097 -0.0154
52960W        W95951  27.724  18.227   2.783 -0.0339  0.0027 -0.3445
52961W        W95952  26.406  11.022  27.787 -0.0725 -0.0656  0.1946
52962W        W95953  30.340  20.488   8.019 -0.1231  0.0953 -0.0264
52963W        W95954  13.833  23.922   6.437  0.0155 -0.3792  0.0548
52964W        W95955  14.958  11.268  28.735 -0.1660 -0.2120 -0.0538
52965W        W95956   5.749  12.412  10.493 -0.0153 -0.1899 -0.1281
52966W        W95957  20.353   2.413   6.174  0.0616  0.0189 -0.2959
52967W        W95958   6.334  13.815  23.257 -0.0736  0.0898  0.2683
52968W        W95959   6.734   4.042   9.558  0.1810 -0.3157 -0.0222
52969W        W95960   6.932  21.049  22.131 -0.1936  0.0343 -0.1546
52970W        W95961  26.375  22.982  22.411  0.1300 -0.1022 -0.2130
52971W        W95962  27.166  16.334   1.269 -0.2452  0.2332 -0.3570
52972W        W95963  33.887  12.721  29.200 -0.1194 -0.0074  0.2356
52973W        W95964  17.142   4.386   5.163 -0.4702 -0.2737 -0.0303
52974W        W95965  30.798   3.508   3.912  0.3319 -0.1809  0.0615
52975W        W95966  21.259  10.956   1.433 -0.0644  0.1334 -0.1552
52976W        W95967   2.030   9.643   9.218  0.3345  0.0236  0.1544
52977W        W95968   1.049  34.708  27.463  0.1878 -0.0091 -0.3497
52978W        W95969  27.516   0.758   8.406  0.1919  0.1009 -0.0965
52979W        W95970  32.831   7.498  18.282 -0.1131 -0.1407 -0.1252
52980W        W95971  12.835  12.814   7.903  0.1552 -0.1216 -0.0178
52981W        W95972  18.263   7.594  26.698 -0.0223  0.3459  0.4895
52982W        W95973  25.563  14.504   7.684 -0.1740 -0.0279  0.1392
52983W        W95974  23.699  19.047   7.525 -0.1955 -0.0868  0.0813
52984W        W95975  14.336  17.143   1.628  0.0396 -0.1372  0.0638
52985W        W95976  14.193   2.527   9.001 -0.1849 -0.0799  0.1228
52986W        W95977  21.474  14.602  21.310  0.0068 -0.1230 -0.1026
52987W        W95978  23.971  11.022  24.434  0.0536  0.0702  0.0309
52988W        W95979  16.006   8.059  26.757  0.1557  0.2022 -0.0367
52989W        W95980   6.368  17.995   4.527 -0.1521  0.0441  0.2130
52990W        W95981   9.454   8.189  10.451  0.0494  0.1250 -0.0614
52991W        W95982   9.016  15.271   9.643  0.0320 -0.5056  0.0019
52992W        W95983   7.980  12.991  21.778 -0.0758  0.2325 -0.0508
52993W        W95984   6.136   7.445   3.439  0.1702  0.3347 -0.1255
52994W        W95985  18.389  10.123   7.313  0.0070  0.1239  0.2854
52995W        W95986  16.657   8.566  26.144 -0.0392  0.2981 -0.1857
52996W        W95987   3.243  16.559  26.576  0.0534 -0.3032  0.0745
52997W        W95988  30.555   5.763   5.226  0.1850  0.0253  0.0367
52998W        W95989  26.858  21.443   8.212  0.1611  0.0666  0.1475
52999W        W95990   3.968  18.718  23.333  0.1208 -0.0456 -0.1675
53000W        W95991   5.774  26.911  25.994 -0.1318  0.2237 -0.4344
53001W        W95992   0.257  18.541  16.917  0.0724 -0.0870  0.0453
53002W        W95993   2.995   7.741  28.747 -0.1649  0.1459 -0.1326
53003W        W95994   7.610  30.767   6.045  0.1341  0.2736 -0.1205
53004W        W95995  32.670   6.411  10.070 -0.2254 -0.3152 -0.1485
53005W        W95996  20.913  12.175  27.465 -0.3127  0.0269 -0.1564
53006W        W95997  24.206  21.453   0.922 -0.2789  0.1606  0.0023
53007W        W95998  20.982   6.709  29.182 -0.0590 -0.1288  0.3151
53008W        W95999  16.880   4.144  10.671  0.1214 -0.2175 -0.0310
53009W        W96000  28.439   8.109   2.223 -0.1760 -0.0087 -0.2644
53010W        W96001  33.414  12.085   0.942  0.1475  0.1327  0.2633
53011W        W96002  12.112  12.887  23.832 -0.1102 -0.2521  0.1276
53012W        W96003  22.029  20.848  28.576  0.0087 -0.0119 -0.0611
53013W        W96004   4.706  16.166  24.321  0.1354 -0.1546 -0.1515
53014W        W96005  30.518  17.509  25.909  0.2072  0.1050 -0.2359
53015W        W96006  33.839  22.728   1.433  0.1924 -0.0062 -0.3773
53016W        W96007   8.011  17.667  26.844 -0.0132 -0.0614 -0.0136
53017W        W96008  27.371  13.419   1.964 -0.3216 -0.0337  0.0440
53018W        W96009  14.609  11.945  24.198  0.0365 -0.2161  0.0383
53019W        W96010  25.174  15.171   7.121  0.2589  0.1596 -0.1499
53020W        W96011  31.686  30.853   1.294  0.0446 -0.3356 -0.2438
53021W        W96012  28.412  10.436   5.033  0.1506 -0.0275  0.4922
53022W        W96013  29.538  19.792   6.932  0.2312 -0.2280  0.0375
53023W        W96014  26.371   7.388   1.466  0.0596  0.1039  0.0040
53024W        W96015   1.918  19.713  10.191  0.0311  0.0484  0.1152
53025W        W96016   0.448  13.064   5.243 -0.1974 -0.0858  0.2402
53026W        W96017  31.161  18.277   5.705  0.2449  0.0483 -0.1194
53027W        W96018  30.491  15.828   2.332 -0.0737 -0.1231  0.0359
53028W        W96019  27.504  17.572   7.182  0.2746 -0.2095 -0.0245
53029W        W96020  33.572  23.929   2.282 -0.0146  0.0801 -0.0908
53030W        W96021   8.363  18.207   1.165 -0.1651 -0.0067  0.0620
53031W        W96022  26.143   8.655   5.571 -0.1670  0.1478 -0.2660
53032W        W96023  11.933  14.124   8.957 -0.0315  0.1551  0.0908
53033W        W96024   4.094  12.007   9.842 -0.0014  0.1805  0.2496
53034W        W96025   0.560  18.976   5.294  0.0846 -0.3355  0.3195
53035W        W96026  18.072  18.453  28.070  0.1555 -0.2722 -0.0013
53036W        W96027  21.190  12.689   8.012 -0.1011  0.0702  0.1568
53037W        W96028  27.768  24.780   2.132 -0.1565  0.1514 -0.0090
53038W        W96029  13.197   9.875   0.183 -0.1052 -0.1247 -0.1520
53039W        W96030   0.075  24.502   9.492 -0.2087  0.1802  0.0214
53040W        W96031  23.925  24.418   1.794  0.0244  0.2171 -0.0209
53041W        W96032  34.440  30.316  27.079  0.0327  0.1028  0.0044
53042W        W96033  26.471   2.446  16.888 -0.2386 -0.0789  0.0124
53043W        W96034  24.797  23.816  19.833 -0.3138 -0.2406 -0.2656
53044W        W96035   6.850  13.960  23.326  0.1008  0.1169  0.0360
53045W        W96036  21.697  18.217   6.820  0.0360 -0.1037  0.1277
53046W        W96037   3.521   0.400   1.074  0.3252  0.0499  0.0341
53047W        W96038  16.081   2.813  10.425  0.0491 -0.0195 -0.1631
53048W        W96039  13.810  25.267  26.255  0.0177  0.1867 -0.0067
53049W        W96040  34.586   4.300   3.272 -0.0806  0.1375  0.2054
53050W        W96041  34.675   7.343  23.151 -0.1457 -0.2956  0.0903
53051W        W96042   1.344  32.022   3.646 -0.0083 -0.0167  0.0332
53052W        W96043  30.221   7.966   2.448  0.1586 -0.1548 -0.0605
53053W        W96044  29.771  12.034   5.940 -0.2002 -0.2005 -0.0766
53054W        W96045   5.020  17.608   5.073  0.3085  0.0972  0.0898
53055W        W96046  31.057  14.290  26.957 -0.1678 -0.0043  0.1287
53056W        W96047  11.711   7.857  20.230  0.0953 -0.0353 -0.1712
53057W        W96048   5.408  18.025   7.109  0.0995 -0.0108 -0.0881
53058W        W96049  11.633   5.553  10.519  0.0883 -0.0393 -0.1235
53059W        W96050   9.025  31.348   7.430  0.0627  0.0846 -0.3854
53060W        W96051  32.301   6.641   2.973  0.3854  0.0539  0.1693
53061W        W96052   9.554  27.003   4.825  0.0626  0.0035 -0.0538
53062W        W96053  34.797  10.611   1.463  0.2757 -0.0226  0.0603
53063W        W96054   8.700   9.360   3.129 -0.1363  0.0688 -0.1461
53064W        W96055  20.076  14.470   6.731  0.2797  0.4012  0.4516
53065W        W96056   8.147  23.622  28.268  0.3151  0.0501 -0.0665
53066W        W96057  12.019  25.635   9.450 -0.1255 -0.1571  0.0732
53067W        W96058  22.977  25.779   7.365  0.2061  0.0952 -0.0019
53068W        W96059  11.818  15.602  21.565  0.0751 -0.2584 -0.2721
53069W        W96060  11.855  10.558   6.859 -0.2277 -0.1792  0.0989
53070W        W96061  10.791  23.755   6.906  0.0360  0.0493 -0.3260
53071W        W96062   1.473   9.403  29.131  0.1427  0.1383  0.1921
53072W        W96063  32.806  21.075   2.314 -0.1071 -0.3684 -0.0813
53073W        W96064  13.210  11.905  28.058  0.0082  0.2673  0.0559
53074W        W96065  10.673  34.447  24.861  0.0393 -0.1956  0.3742
53075W        W96066  31.442   7.364   6.122 -0.0710 -0.0487  0.1592
53076W        W96067   8.281   9.673  19.456  0.3388 -0.0310  0.0732
53077W        W96068  30.733  16.700   1.724 -0.0356 -0.0333  0.0502
53078W        W96069  23.279   9.567   2.836  0.0943 -0.2051  0.1765
53079W        W96070  24.785  29.376   6.926 -0.3288 -0.0247 -0.1143
53080W        W96071  28.307  12.878  26.486  0.2279  0.1274 -0.2160
53081W        W96072   4.531  12.813  28.603  0.1970 -0.1187  0.0746
53082W        W96073   9.015   9.457   0.230 -0.1560 -0.2076 -0.0089
53083W        W96074   1.675   9.349  24.285  0.3234  0.2209 -0.0723
53084W        W96075  32.549   6.758   7.259 -0.2014 -0.1416 -0.0255
53085W        W96076  27.861  20.099   2.415  0.2052 -0.1284 -0.2147
53086W        W96077   2.509  20.665   3.250  0.1824  0.0438 -0.2760
53087W        W96078   8.007  29.749  25.840  0.2971 -0.1955  0.3034
53088W        W96079  21.701   7.347  23.728 -0.2259  0.5931  0.0452
53089W        W96080  19.433  11.526   7.874 -0.0751 -0.2953  0.1418
53090W        W96081  27.786  17.996  24.326 -0.0868 -0.3100 -0.0561
53091W        W96082  21.373  28.046   0.987  0.2132 -0.3651  0.1129
53092W        W96083  30.463  22.757   7.071  0.0004  0.2398  0.1474
53093W        W96084  22.964   1.894  27.844  0.0446  0.0054  0.2014
53094W        W96085  29.465   7.991  20.077 -0.1361 -0.0987  0.1201
53095W        W96086  10.066  20.888   5.362 -0.0207  0.1384  0.0483
53096W        W96087   8.043  15.940   0.062 -0.2209  0.3456  0.2084
53097W        W96088  25.277   6.884  26.685  0.0964  0.0040  0.0418
53098W        W96089  11.453   1.398  24.508 -0.0763 -0.3350  0.0242
53099W        W96090   7.816  11.586   4.087 -0.1582 -0.0336  0.0700
53100W        W96091  26.154  10.128   7.478 -0.2776 -0.0740  0.1915
53101W        W96092  21.853   9.766  10.006  0.2063 -0.0572 -0.0273
53102W        W96093   6.620   6.629   2.461  0.2318 -0.0091  0.0649
53103W        W96094  31.905   4.301   7.084  0.1275 -0.0449  0.1331
53104W        W96095   6.622  17.940  25.254 -0.0041 -0.0077 -0.1407
53105W        W96096   3.591  10.628  25.972 -0.1668 -0.1068 -0.0312
53106W        W96097   4.771  18.028  11.276  0.1431 -0.3485  0.2075
53107W        W96098  30.995   8.341   7.650 -0.0788  0.1916 -0.0569
53108W        W96099   5.354  30.041  24.312 -0.3286 -0.2322  0.2161
53109W        W96100   5.603   4.557   6.336 -0.2046  0.5013  0.1507
53110W        W96101  10.739  13.269   4.289  0.1380 -0.0259  0.0512
53111W        W96102  31.499  28.266   9.172 -0.2702 -0.3067  0.2661
53112W        W96103   3.250  22.404  10.818 -0.1293 -0.0653 -0.1316
53113W        W96104   5.372   0.679  27.088 -0.3313  0.4610  0.2082
53114W        W96105  19.899  28.634   5.516 -0.0599  0.0479  0.0530
53115W        W96106   2.216  29.915   9.003  0.1073 -0.2123  0.1661
53116W        W96107  30.537  11.478   8.363 -0.0261 -0.1286 -0.1402
53117W        W96108   5.634  15.614   1.971 -0.3276  0.1047  0.1682
53118W        W96109  21.542  12.713  22.254  0.0020 -0.1659  0.0414
53119W        W96110   0.643   2.420  18.956  0.0512 -0.1263  0.0853
53120W        W96111   1.429  10.546   1.989 -0.2595 -0.0774  0.1463
53121W        W96112   5.455   8.546   3.730  0.1143 -0.0245  0.1190
53122W        W96113   5.544  18.965  19.794  0.0629  0.0143  0.1757
53123W        W96114  33.256   6.081  18.467 -0.1075  0.0044 -0.0287
53124W        W96115   3.521  22.773   6.599  0.0542  0.0254  0.0184
53125W        W96116   3.445   8.992   7.858  0.2451 -0.1962 -0.3509
53126W        W96117  20.284  15.239   3.173 -0.1713  0.2176  0.0927
53127W        W96118  10.780  28.241   5.533 -0.2478 -0.0593  0.0262
53128W        W96119   7.317  15.456   2.592 -0.2887  0.0888 -0.0173
53129W        W96120  27.704   4.141   2.959 -0.2876  0.1634  0.0319
53130W        W96121   4.793  11.958   6.704 -0.3385  0.0498  0.0751
53131W        W96122   9.152   9.609   5.715  0.0112 -0.0270  0.1461
53132W        W96123  19.623  13.131   4.165 -0.0809 -0.2607 -0.1480
53133W        W96124   6.497  23.525   5.998 -0.2551  0.0200  0.1014
53134W        W96125   4.375  21.297   1.316 -0.0871  0.1856 -0.2269
53135W        W96126  14.433  11.995   6.986 -0.0450  0.4768  0.0365
53136W        W96127  33.121  13.567  23.342 -0.3155  0.1341 -0.1289
53137W        W96128  29.078  13.714   7.302 -0.0372  0.0173  0.1720
53138W        W96129  10.954   8.207   6.414  0.0757  0.2118  0.3149
53139W        W96130  22.312  14.704  25.718  0.0133  0.1548  0.1267
53140W        W96131  34.090   9.756  28.263  0.1553 -0.1789  0.0494
53141W        W96132  22.881  34.236  25.031 -0.0024  0.0727 -0.1969
53142W        W96133  18.187  11.219   7.825  0.1286 -0.0351 -0.1155
53143W        W96134  30.763   4.379   1.227 -0.3046 -0.1910  0.1205
53144W        W96135   0.118  14.560  11.596  0.3124  0.1705  0.1465
53145W        W96136  21.396   2.026  23.406  0.1386  0.0498 -0.1849
53146W        W96137   5.119  14.022  10.630  0.1261  0.1222 -0.1230
53147W        W96138   8.911   2.827  24.654 -0.0326 -0.1839  0.1552
53148W        W96139   3.879  23.463   8.030  0.1880  0.0479  0.3634
53149W        W96140  32.778  18.204  29.053 -0.3081 -0.2968  0.1637
53150W        W96141   1.630  15.854  10.529  0.1382  0.1085 -0.0417
53151W        W96142  11.354  28.656   5.187  0.1020 -0.1286  0.0607
53152W        W96143  24.515  14.804   4.318 -0.0732 -0.1953 -0.1402
53153W        W96144  31.068  16.304   6.811  0.0437  0.1408 -0.0460
53154W        W96145  10.608  17.142   5.034 -0.0165  0.0760 -0.2625
53155W        W96146   1.014  16.910  26.571 -0.1616  0.2783  0.0343
53156W        W96147  26.227   7.182   0.250  0.2860  0.0447  0.1452
53157W        W96148  29.817   4.425   9.451  0.1569  0.2462  0.0990
53158W        W96149  11.756  11.376   3.852  0.0908  0.3343  0.3795
53159W        W96150  29.336   2.637  29.061 -0.1908  0.1155 -0.2004
53160W        W96151  10.614  12.730   9.020 -0.0413 -0.0082  0.1042
53161W        W96152  31.473   9.631   7.027  0.1594  0.0146 -0.0810
53162W        W96153  11.427   5.944  17.058  0.1559 -0.0660  0.0054
53163W        W96154  10.658  24.405   4.742  0.0740  0.1890  0.5109
53164W        W96155  34.178  21.859   4.159 -0.0871  0.2905 -0.1442
53165W        W96156  22.268  16.449  23.119  0.0515  0.0447 -0.0356
53166W        W96157   0.021   8.057   0.243  0.1393  0.1273  0.1807
53167W        W96158   6.856  13.779  26.414 -0.2483 -0.3474  0.0960
53168W        W96159   1.138  29.670   2.789 -0.0433  0.2524 -0.1090
53169W        W96160  13.081   7.736   7.735  0.0764 -0.0344  0.0090
53170W        W96161   1.652   0.251  26.048 -0.0627  0.2373 -0.2273
53171W        W96162   8.466  12.508   8.595 -0.2592  0.2402  0.0191
53172W        W96163  10.095  34.297   9.287  0.0259  0.0167  0.1411
53173W        W96164   1.083   7.789   2.038 -0.0640  0.1194 -0.3608
53174W        W96165  26.672  13.311   5.077 -0.2116  0.2476 -0.0930
53175W        W96166   2.034  20.413   2.198  0.1929  0.1202 -0.1878
53176W        W96167   2.119   6.698   3.186 -0.1278 -0.0377  0.1284
53177W        W96168  26.408  22.599  28.820 -0.0051 -0.0836 -0.0328
53178W        W96169  32.978  27.630   4.040  0.1619 -0.1314  0.2914
53179W        W96170  32.982  15.628   5.676  0.2486 -0.0590  0.0741
53180W        W96171  18.420  15.744  24.370 -0.3224  0.1314 -0.1117
53181W        W96172  29.044  14.520   4.874 -0.0697  0.2298 -0.2687
53182W        W96173  14.715  10.622   6.575 -0.0786  0.2185  0.5427
53183W        W96174  32.539  10.663  21.798  0.0440 -0.1125 -0.2035
53184W        W96175  10.545  14.156   4.633 -0.1603 -0.2306 -0.1743
53185W        W96176   0.383   1.816   1.592 -0.3447  0.3010  0.1144
53186W        W96177  26.300  16.035   7.432 -0.0360 -0.0365  0.1183
53187W        W96178  34.099   8.768   8.432  0.2226 -0.0333 -0.2147
53188W        W96179  32.668   5.351   0.638  0.2161 -0.2997  0.0250
53189W        W96180  33.637  19.225   3.380 -0.1174 -0.0203 -0.0249
53190W        W96181  20.416   3.171   5.110  0.3622 -0.0825 -0.0186
53191W        W96182   7.132  14.380   9.114 -0.0909  0.0746  0.0567
53192W        W96183  19.683  19.466   7.293 -0.4878 -0.1214 -0.1919
53193W        W96184  34.096   8.046  10.666  0.3150 -0.1468 -0.0796
53194W        W96185  23.244  12.037  27.861  0.4152 -0.0200 -0.0973
53195W        W96186   3.870  29.841   2.636 -0.1142 -0.2072  0.1825
53196W        W96187   3.239   6.398   9.874 -0.2997 -0.3055 -0.0421
53197W        W96188  27.691  15.886   7.303 -0.2707  0.1879 -0.1101
53198W        W96189  23.590   5.376  19.238  0.0493  0.2951  0.1289
53199W        W96190  29.008  16.073   7.050 -0.1294  0.0107 -0.0218
53200W        W96191  32.668  20.164   6.011  0.3178 -0.1246  0.0751
53201W        W96192  11.312  34.767   4.027 -0.0125  0.1100 -0.0290
53202W        W96193  29.397  18.006  10.537  0.1774  0.1356  0.2274
53203W        W96194   8.068   7.832  10.300 -0.3330 -0.2419  0.2478
53204W        W96195  32.327  19.633   5.296  0.0136 -0.0457 -0.0365
53205W        W96196   3.788  13.252   9.300  0.1420  0.5188 -0.0110
53206W        W96197  33.467  11.046   9.994  0.3066 -0.0152  0.2080
53207W        W96198  33.344   3.596   9.657 -0.2192 -0.0635 -0.1067
53208W        W96199  25.694  27.054  24.649 -0.0050 -0.1025  0.2560
53209W        W96200  12.328   0.502   5.239 -0.2164 -0.0519 -0.3965
53210W        W96201  22.205  23.097  13.506 -0.1342 -0.1244  0.0177
53211W        W96202  28.154  13.365   7.323 -0.1729 -0.0530  0.1946
53212W        W96203  26.278   7.496   4.927 -0.1156 -0.0861 -0.2481
53213W        W96204  29.146  15.849  17.039  0.1337 -0.0373 -0.1248
53214W        W96205  29.513   2.721   0.247  0.3311 -0.1231  0.1582
53215W        W96206   9.677   0.540   1.765 -0.1066 -0.3326 -0.2370
53216W        W96207  31.412   7.205  27.929  0.0791  0.1416 -0.2875
53217W        W96208  31.716   9.533   7.991 -0.0888  0.0429  0.2335
53218W        W96209  29.355   6.511   6.878 -0.1677  0.1936 -0.2209
53219W        W96210   9.681   0.323   4.147  0.2207 -0.0809  0.1247
53220W        W96211   8.181  19.062  24.050  0.0823  0.0148  0.0104
53221W        W96212   0.084   4.354   8.190 -0.2222 -0.1341  0.5119
53222W        W96213  26.540   3.105   2.877 -0.0057  0.2424 -0.0469
53223W        W96214  33.108  21.492   7.834  0.0721 -0.1189 -0.2008
53224W        W96215  12.354   8.802  29.025  0.2082 -0.0302  0.0403
53225W        W96216  14.312  12.646  28.788  0.0002 -0.1857 -0.2459
53226W        W96217  32.353   5.841  29.110  0.2656  0.1070  0.1449
53227W        W96218  18.634  21.233   5.142 -0.0669 -0.0372  0.0070
53228W        W96219  19.583   7.128  28.110 -0.0247  0.1414 -0.0919
53229W        W96220  16.838  13.006  23.917  0.2037  0.0588 -0.0695
53230W        W96221   5.986   9.791  27.618  0.0668 -0.0542 -0.3126
53231W        W96222   3.788  19.724   5.095 -0.1489 -0.2602 -0.1656
53232W        W96223   3.255   9.099   9.636 -0.0975 -0.0823 -0.1237
53233W        W96224  32.130  22.636   8.242 -0.0151  0.0324  0.1306
53234W        W96225  21.403  24.999  24.458  0.0453 -0.1906  0.0800
53235W        W96226  30.949  33.602  21.430  0.1117 -0.0636  0.2194
53236W        W96227   8.957  16.519   4.034 -0.1376 -0.3914 -0.1025
53237W        W96228   2.273  17.134   8.794  0.0650 -0.1212  0.0783
53238W        W96229   7.066   5.136   9.485 -0.1842  0.1636  0.0546
53239W        W96230  24.560  10.098  19.304 -0.0942 -0.2595  0.2411
53240W        W96231  33.256  11.268   2.186  0.0105 -0.2576  0.0796
53241W        W96232   7.359  20.079  10.615  0.0508 -0.0163  0.2125
53242W        W96233  33.924   9.753  27.811 -0.2587  0.1518  0.1240
53243W        W96234   8.781   7.814   9.671  0.1727  0.0487  0.1070
53244W        W96235  20.062  10.323  14.561  0.1057  0.0562  0.1071
53245W        W96236  18.660   9.574   7.679 -0.0870  0.1148  0.0870
53246W        W96237  16.461   7.379   7.700  0.0447 -0.0233 -0.0433
53247W        W96238  33.873  10.776   9.314 -0.4271 -0.4246 -0.1524
53248W        W96239  31.356   9.451   3.128  0.1160 -0.0273 -0.2341
53249W        W96240  28.013  11.982   5.133  0.2406 -0.3088 -0.2191
53250W        W96241  24.893   1.892  15.533  0.2800 -0.2745 -0.3543
53251W        W96242   0.829  31.338   3.145  0.2811  0.1773 -0.0328
53252W        W96243  15.566   8.359   7.674 -0.1996 -0.2442 -0.3615
53253W        W96244  33.482   4.654  27.823 -0.2287 -0.1397  0.1238
53254W        W96245   3.148  31.943   4.346 -0.2638 -0.0301 -0.2463
53255W        W96246  29.960   1.421   8.986  0.1190  0.0315  0.3071
53256W        W96247   6.188   3.304   9.277 -0.0973  0.1666  0.0648
53257W        W96248  32.021  13.187  22.301 -0.0590  0.2407 -0.0321
53258W        W96249   7.466  21.839   6.342  0.0384  0.2166  0.1569
53259W        W96250   2.169   0.797   2.742  0.3065 -0.0533  0.0219
53260W        W96251  18.911   9.290   6.145  0.1014 -0.0742  0.2409
53261W        W96252  11.571  13.298   9.622 -0.2204 -0.1570  0.1354
53262W        W96253  21.298  19.917   5.580  0.0817 -0.1674  0.0771
53263W        W96254  25.473   2.569  28.428 -0.0164 -0.1526 -0.0315
53264W        W96255  31.093  17.782  10.145 -0.0664  0.3016  0.0791
53265W        W96256  24.955  16.360   4.790 -0.1845 -0.0162  0.2004
53266W        W96257   3.275  10.338   9.951 -0.1560 -0.0523 -0.0118
53267W        W96258   5.861   9.455  28.748 -0.2223  0.2928 -0.2283
53268W        W96259   3.863  30.556   2.878 -0.1900 -0.1039 -0.0919
53269W        W96260   4.125  20.375  10.779  0.0039  0.1694 -0.0460
53270W        W96261   0.738  15.873  27.269 -0.0809 -0.3446  0.1321
53271W        W96262   7.516   5.038  27.924 -0.3173 -0.1087  0.1184
53272W        W96263  34.792  19.873   0.092  0.2064  0.2685  0.0180
53273W        W96264  22.891   9.863   4.706 -0.1215  0.2538 -0.2390
53274W        W96265  31.690  29.033   7.643 -0.0227  0.5100  0.4579
53275W        W96266   5.898  18.754   3.204  0.2233 -0.0469 -0.2395
53276W        W96267   5.987   5.191  28.705 -0.0783  0.1680 -0.1867
53277W        W96268  34.705  15.336   6.054 -0.3566  0.3546  0.0816
53278W        W96269   2.866  21.788  10.396 -0.0485 -0.0566  0.2715
53279W        W96270   4.511  11.863   8.275 -0.3897 -0.4092 -0.0799
53280W        W96271  25.999  24.013   0.480  0.0789 -0.1970 -0.0475
53281W        W96272   2.340  11.095   7.577  0.2187  0.1856 -0.3878
53282W        W96273  19.677  16.570   8.347 -0.2049  0.0819  0.0536
53283W        W96274  10.376   9.703   2.811 -0.0150  0.0684 -0.0821
53284W        W96275  33.674  17.747  11.236 -0.0238  0.1604 -0.2121
53285W        W96276  14.259  21.804   3.016 -0.0010 -0.2977  0.1540
53286W        W96277  26.316  24.164  19.958 -0.1072 -0.2438 -0.3231
53287W        W96278   1.369   0.539   6.840 -0.0662  0.1916 -0.0355
53288W        W96279  10.654  14.298   7.459  0.0562  0.1342  0.1072
53289W        W96280   8.358   3.927   6.032 -0.0728 -0.2834 -0.0498
53290W        W96281  32.144  14.468   6.773 -0.1426  0.1006  0.0724
53291W        W96282  30.082  20.514  22.197  0.0939  0.0371  0.2263
53292W        W96283  32.651  32.306  24.274 -0.0617  0.0906  0.3190
53293W        W96284   8.410   2.639   1.835 -0.0107  0.1610  0.4113
53294W        W96285   2.194   0.828   8.509  0.0955  0.0032 -0.0520
53295W        W96286   4.638   2.311   3.476 -0.3211 -0.2104 -0.2053
53296W        W96287  33.376  20.063  24.860  0.0893 -0.1063  0.3234
53297W        W96288  14.577   6.814   1.799 -0.1270  0.1705 -0.0593
53298W        W96289   6.786   5.061  28.168  0.0885  0.0191 -0.0362
53299W        W96290   6.606  32.040  26.991 -0.4135 -0.1483  0.1105
53300W        W96291   1.559   3.725  19.596 -0.3297  0.1305 -0.0201
53301W        W96292  13.305   9.861   5.955  0.0224  0.1300 -0.2244
53302W        W96293  21.734   3.299  27.973  0.1249  0.1684 -0.3775
53303W        W96294  27.758  14.840   5.022 -0.3091  0.1176 -0.2176
53304W        W96295  17.570   5.295  23.288  0.0040  0.0047 -0.0808
53305W        W96296   4.605  12.120   2.206  0.1365 -0.0443 -0.2236
53306W        W96297   9.776  27.973  23.728  0.2103 -0.1775 -0.3004
53307W        W96298  29.928  24.434  20.050 -0.0395 -0.0038  0.0652
53308W        W96299  29.540  24.354   8.622 -0.0848  0.0004 -0.2914
53309W        W96300   0.175  25.659   3.607  0.0177  0.2439 -0.2514
53310W        W96301   2.331   6.786   7.796 -0.2493 -0.0674 -0.0560
53311W        W96302   8.429  18.930  10.227 -0.1500  0.0488  0.3285
53312W        W96303  24.919  10.228   8.619  0.0649  0.0879  0.1682
53313W        W96304  22.356  30.285   4.503  0.0259  0.0328  0.1505
53314W        W96305  33.606  16.535   5.619 -0.2076 -0.0368 -0.1256
53315W        W96306   1.194  12.325   5.336  0.4524 -0.0423  0.0302
53316W        W96307   1.860  10.756   9.566  0.1988  0.0792 -0.0946
53317W        W96308   5.504   5.671  25.561 -0.0622 -0.2034  0.2264
53318W        W96309  27.322   3.698   6.308  0.0596  0.3069 -0.2734
53319W        W96310  13.062   3.750  26.499 -0.1636 -0.4209 -0.1224
53320W        W96311  30.270  10.915   1.614  0.0505 -0.1600 -0.2125
53321W        W96312  13.145   9.620   3.981  0.1751 -0.0547 -0.1729
53322W        W96313  29.238  21.235   7.075 -0.0165 -0.0293 -0.0130
53323W        W96314   3.467   8.773   7.420 -0.2813  0.1567 -0.0282
53324W        W96315  17.507  13.930   0.626 -0.0078  0.0191  0.0083
53325W        W96316   1.240   7.687  10.264  0.1512  0.0860 -0.0635
53326W        W96317  11.210   3.977  25.403 -0.0725 -0.2218 -0.0537
53327W        W96318   7.573  13.081  25.280 -0.1150 -0.0951  0.2754
53328W        W96319  14.043  28.783   4.324 -0.0088 -0.1879  0.0312
53329W        W96320   5.644  21.596   9.505  0.1609  0.1229 -0.1699
53330W        W96321   4.985  31.098   6.918  0.1603  0.0437  0.1494
53331W        W96322  22.877   4.369  27.503 -0.0470  0.2148 -0.1029
53332W        W96323   9.688   0.739   3.064  0.1932 -0.4015  0.2204
53333W        W96324  32.049   6.008   2.263  0.4560  0.3266  0.1778
53334W        W96325   6.823  10.283   7.370  0.2887  0.0136  0.0362
53335W        W96326  16.564  10.140   5.757  0.0503  0.1982  0.2552
53336W        W96327   0.490   7.583  11.442 -0.1436  0.0227 -0.1674
53337W        W96328   2.499  23.265  10.754 -0.2113  0.1345 -0.3234
53338W        W96329   5.297  15.348  27.471  0.0607 -0.3054 -0.1537
53339W        W96330   6.583   4.793   6.066 -0.0298  0.1922 -0.2370
53340W        W96331  28.898  20.113   4.167 -0.0817  0.4100 -0.2134
53341W        W96332   2.744   5.971   4.895 -0.0839  0.3662 -0.2694
53342W        W96333  21.324  17.093  26.629  0.3244 -0.4822 -0.0650
53343W        W96334   7.746  28.743   8.317 -0.3903 -0.2864 -0.2999
53344W        W96335  29.726  20.030   7.358  0.1026 -0.1687  0.0378
53345W        W96336  10.919  13.620  25.577 -0.0133 -0.1813 -0.0551
53346W        W96337  33.818  24.018  18.347 -0.6153  0.1337 -0.0290
53347W        W96338  28.327  15.375   6.420 -0.2972  0.0417 -0.1732
53348W        W96339  25.978  27.174  25.901 -0.0559  0.3760  0.0790
53349W        W96340   3.501   7.225  10.561  0.0772  0.4495  0.1281
53350W        W96341   2.412  11.430  26.803 -0.0821 -0.1125  0.2183
53351W        W96342   7.786  18.946   3.600 -0.3096  0.2050  0.2052
53352W        W96343  32.311  22.265  27.536  0.2857 -0.0581 -0.2546
53353W        W96344   9.095  32.366  20.396  0.2429  0.1381 -0.1202
53354W        W96345   0.120  23.213  22.245  0.1120  0.1441 -0.0889
53355W        W96346   3.746  26.612   4.123  0.2677  0.0403  0.0006
53356W        W96347  26.309   8.099   2.475  0.3110  0.4694  0.0744
53357W        W96348  34.283  25.351   0.325 -0.2856 -0.1337 -0.1181
53358W        W96349   0.799  20.554   3.819  0.0299 -0.1269 -0.3307
53359W        W96350  31.158   1.446   2.831  0.0740  0.0965  0.0637
53360W        W96351  20.037   4.955   6.463 -0.1179 -0.1955 -0.0618
53361W        W96352  29.843   6.943   6.064 -0.0773  0.0342  0.1884
53362W        W96353  16.350  33.735  20.744 -0.2787 -0.0192  0.1488
53363W        W96354  24.290  20.608   9.199 -0.1957 -0.0533  0.1182
53364W        W96355  17.307  18.176   3.583 -0.1184 -0.0431  0.1652
53365W        W96356  13.890  22.917  24.899 -0.1446  0.2267 -0.0220
53366W        W96357  19.430  16.760   1.477  0.0577  0.0411 -0.0640
53367W        W96358  26.152   1.495   1.087  0.0955  0.1799  0.1137
53368W        W96359   1.712  18.378   8.151 -0.0578  0.2115  0.1870
53369W        W96360   0.278   9.728   7.537 -0.0656 -0.3561  0.1251
53370W        W96361   1.279  23.684   7.858 -0.0304  0.1719 -0.0472
53371W        W96362  10.451  16.862  23.562  0.1179 -0.2794 -0.2994
53372W        W96363  14.437   8.621   4.364  0.1047  0.0009 -0.2098
53373W        W96364  28.607  11.517   5.624  0.0162 -0.1079  0.2695
53374W        W96365   0.789  13.551   2.638  0.3418  0.0312  0.0011
53375W        W96366   5.662   8.450   9.669  0.0699 -0.0171  0.1620
53376W        W96367  28.163   8.609   3.489 -0.4514  0.0966  0.1647
53377W        W96368  11.941   4.564   5.305  0.0316  0.1457  0.0148
53378W        W96369  31.971   1.493  23.731 -0.1160 -0.1622 -0.0731
53379W        W96370   4.499  11.661   1.442  0.2995  0.1372 -0.0730
53380W        W96371   0.278  16.696  26.067 -0.2160  0.2829 -0.1666
53381W        W96372  30.157  15.687  18.213  0.2529  0.2314  0.0308
53382W        W96373  17.540  32.173  26.606 -0.2977 -0.2931  0.2230
53383W        W96374  34.307  32.114  23.517 -0.2475  0.1199 -0.3251
53384W        W96375  32.715  23.613   1.274  0.2022 -0.1422 -0.0392
53385W        W96376  11.526   6.613  27.740 -0.2143  0.5590 -0.1245
53386W        W96377   5.082   0.872   3.990  0.1065 -0.1541  0.0989
53387W        W96378   2.418  23.625   2.486  0.0842  0.2562 -0.2193
53388W        W96379  31.506  16.417   3.206 -0.0299  0.0772 -0.3779
53389W        W96380  28.738   8.446  28.310  0.0175  0.0041  0.0143
53390W        W96381  24.745  25.619   2.628  0.4526  0.1125 -0.0243
53391W        W96382  30.138  31.482  18.718  0.0086 -0.1190  0.1351
53392W        W96383   1.231  16.762  27.176 -0.1292  0.1457  0.2795
53393W        W96384  26.436  27.312  21.781  0.1023  0.0190  0.2755
53394W        W96385   4.326  19.013   0.940 -0.2286 -0.1247 -0.0133
53395W        W96386  28.082  10.119  25.231 -0.0900 -0.0055 -0.1854
53396W        W96387  31.967   9.146  23.220  0.2810  0.1273  0.0370
53397W        W96388   0.253  14.287   9.105 -0.0346  0.0678  0.0749
53398W        W96389  32.306  17.473   3.112  0.0271  0.1948 -0.1284
53399W        W96390  23.746   8.268   8.309  0.1497  0.1556 -0.2385
53400W        W96391  27.057  19.246   2.198  0.0457  0.2665 -0.1648
53401W        W96392  28.487  19.545   9.681  0.1710  0.1251 -0.0178
53402W        W96393  27.167  14.349   9.159 -0.2268  0.1190  0.0096
53403W        W96394  32.164  30.595  28.508  0.2793 -0.1365  0.0185
53404W        W96395   4.268  21.083   7.712 -0.2478 -0.5578 -0.1056
53405W        W96396  32.890  12.145  11.067  0.0673  0.1019 -0.1896
53406W        W96397  11.201  12.720  15.115 -0.0783 -0.0315  0.0208
53407W        W96398   8.912  27.163   4.535 -0.1916  0.2139 -0.1667
53408W        W96399  31.334  19.740   7.958  0.0637 -0.1874  0.0592
53409W        W96400  11.492  22.708   6.379  0.3131  0.1202 -0.3832
53410W        W96401   3.187  14.832   3.738 -0.2125  0.0083  0.1018
53411W        W96402  23.597  29.169  26.008 -0.0742 -0.1173 -0.0734
53412W        W96403  26.409  17.019   7.744  0.1294 -0.3433  0.1218
53413W        W96404  34.627  12.598  10.996 -0.1915  0.1390  0.0513
53414W        W96405   6.455   5.783  28.773  0.0110  0.2476 -0.2270
53415W        W96406  30.790   9.201   9.899 -0.1894  0.2241 -0.2135
53416W        W96407  29.842   7.380   7.014 -0.1274 -0.0559 -0.2072
53417W        W96408   4.171  11.417   8.161  0.0274  0.1489  0.2057
53418W        W96409   0.044  25.565  24.548 -0.3233 -0.0517 -0.2431
53419W        W96410  21.434  15.744   7.361 -0.0466 -0.0842 -0.2052
53420W        W96411  14.847  14.810  18.779 -0.2890 -0.0241  0.1507
53421W        W96412  23.008  19.914  23.054 -0.1329  0.1727  0.0575
53422W        W96413  28.240   3.575   1.977 -0.0485  0.1577  0.0912
53423W        W96414  22.988  16.893   4.870  0.1554 -0.2179  0.0104
53424W        W96415  33.956  27.571  23.199  0.1386 -0.0482  0.3560
53425W        W96416  32.386  21.050  20.914  0.0409 -0.0979  0.1763
53426W        W96417   2.981  22.366  16.966 -0.0855  0.3347 -0.0537
53427W        W96418  18.754   5.862   0.573 -0.0756 -0.1643 -0.0175
53428W        W96419   4.438   1.731   9.472  0.2104  0.1438  0.0731
53429W        W96420  11.248  22.590   5.936  0.1377  0.1639 -0.1847
53430W        W96421   1.714  12.281   1.943  0.2068 -0.0709 -0.1050
53431W        W96422  26.572  22.044   7.225 -0.0076 -0.2470  0.2110
53432W        W96423   1.543  20.940   4.060 -0.0404  0.3733  0.1681
53433W        W96424  32.830  18.523  11.210  0.0852 -0.0770 -0.1098
53434W        W96425  11.055  21.048  27.879 -0.4857 -0.1326 -0.3092
53435W        W96426  12.431  19.046   7.241 -0.1049  0.1070  0.1919
53436W        W96427   3.730  10.654  18.156 -0.3391 -0.1508  0.1648
53437W        W96428  14.767  30.504   1.059 -0.1046  0.0586  0.0119
53438W        W96429  30.391  18.787  17.218  0.2838  0.2136  0.1531
53439W        W96430  28.399   7.216   5.652  0.3750 -0.2763 -0.2127
53440W        W96431  18.495   7.229  19.983  0.0498 -0.1378  0.0088
53441W        W96432  23.026  32.683  25.779  0.0792  0.3157 -0.3454
53442W        W96433   0.290  13.072  22.949  0.1161 -0.0225  0.3516
53443W        W96434  25.698  16.627  23.895 -0.2216 -0.1617  0.3116
53444W        W96435  31.315  15.294   5.456  0.1381  0.1912  0.1978
53445W        W96436  20.313  28.755   1.512 -0.1749 -0.0225  0.0013
53446W        W96437   4.707  10.658   6.891  0.1618  0.0386  0.0998
53447W        W96438  28.785  19.296   2.304  0.3506  0.1275  0.0486
53448W        W96439  14.201  24.998   6.075 -0.0329 -0.1915  0.0328
53449W        W96440  26.764  23.583   0.092  0.1552 -0.1428 -0.1324
53450W        W96441  34.210  16.173   7.422 -0.0468  0.0997  0.0813
53451W        W96442  24.854  23.893  28.581  0.1783  0.0448  0.1904
53452W        W96443   2.021  16.848   2.732 -0.1151  0.0438 -0.0898
53453W        W96444   9.182  27.350   7.204 -0.2351 -0.3023 -0.0711
53454W        W96445   1.743  23.100   5.331  0.2446 -0.1669 -0.0333
53455W        W96446  34.280  19.592  22.853  0.0262 -0.0590 -0.2725
53456W        W96447   8.136  10.544  24.828  0.1336 -0.0288 -0.1853
53457W        W96448   1.670   9.970   9.122  0.2895  0.1639 -0.0663
53458W        W96449  15.302  16.152   6.195  0.0132  0.0274 -0.3251
53459W        W96450  18.235  19.775   1.552 -0.1605  0.1321  0.2002
53460W        W96451  31.161  26.777   5.902 -0.0880 -0.2648 -0.2610
53461W        W96452  19.502  17.842  25.399  0.0765  0.1247  0.1809
53462W        W96453  26.354  10.358  28.598 -0.0421 -0.2206 -0.1487
53463W        W96454  24.372  23.174  23.514 -0.2125  0.3412  0.0542
53464W        W96455  20.148   8.402  23.332  0.0958 -0.1829 -0.1906
53465W        W96456  26.196   0.065  23.353 -0.0326 -0.1693  0.0675
53466W        W96457  30.778  22.638  19.529  0.1782  0.0045 -0.2201
53467W        W96458   1.494  23.556   2.474 -0.0400  0.1196  0.1066
53468W        W96459   6.978  19.663  10.525 -0.2349 -0.0350  0.3730
53469W        W96460   3.177   5.450  11.857  0.0288  0.1665  0.1684
53470W        W96461   3.841  20.858   0.494  0.1171  0.3192 -0.4105
53471W        W96462  31.120  10.376   0.658  0.1178 -0.4539 -0.0422
53472W        W96463  19.023  20.119   5.730 -0.0751  0.3853  0.0285
53473W        W96464   2.326   6.180   6.090  0.1129 -0.2884  0.0004
53474W        W96465  24.615  21.018  24.762  0.0072  0.1215  0.0885
53475W        W96466  30.580  14.922  18.957  0.0852  0.0722 -0.0216
53476W        W96467  31.487  28.263  28.354  0.0394 -0.2287 -0.0848
53477W        W96468  34.326  25.294  26.860  0.0783  0.0819 -0.3603
53478W        W96469   0.308  16.458  19.796  0.0014 -0.1990  0.0379
53479W        W96470   8.369  13.968  18.048 -0.1320 -0.0884  0.2636
53480W        W96471  30.060  13.320  28.946  0.0289 -0.3657  0.2408
53481W        W96472   9.368  13.056   0.808 -0.0969 -0.1251  0.0983
53482W        W96473  29.648  28.506   7.691 -0.1114  0.0064  0.0553
53483W        W96474   5.354  24.848   7.955  0.1567  0.1955  0.1051
53484W        W96475  16.724   5.063   6.425 -0.1540 -0.0552  0.0280
53485W        W96476  19.704  19.678  22.384  0.3121  0.0726 -0.0896
53486W        W96477   4.487  11.955   0.002  0.1599  0.0774 -0.2002
53487W        W96478   1.986  18.045  24.703 -0.3540  0.2062 -0.1616
53488W        W96479  28.762   8.228   7.614 -0.0675 -0.1194 -0.1868
53489W        W96480  30.796  14.197   8.119  0.3841 -0.0646 -0.1215
53490W        W96481  24.574  15.363  14.442 -0.0604 -0.1777 -0.1652
53491W        W96482   0.341  29.875  19.634  0.1005 -0.1949 -0.2007
53492W        W96483  16.557   7.902   7.644 -0.1675  0.2223  0.2413
53493W        W96484   8.264  27.528   4.018 -0.2531 -0.2668 -0.1676
53494W        W96485  32.053  14.747  17.355  0.0823 -0.0805 -0.0401
53495W        W96486  17.866  20.500  18.138 -0.1196 -0.0231 -0.0179
53496W        W96487  25.025  32.164  28.913  0.0962  0.0386 -0.2475
53497W        W96488   0.207  27.884  17.686  0.3041 -0.3395  0.4563
53498W        W96489  34.314  28.674   2.239 -0.0635 -0.0995  0.2272
53499W        W96490   9.191  16.821   1.237 -0.1698  0.1975  0.0524
53500W        W96491  16.875  13.265   4.763  0.3519 -0.3736  0.0327
53501W        W96492   1.498  26.805  26.974 -0.1091 -0.0777  0.0008
53502W        W96493   4.412   1.373  23.942  0.1027  0.1039  0.0631
53503W        W96494  15.542  20.508  18.241 -0.1028 -0.1400 -0.0466
53504W        W96495  16.132  27.231   8.127 -0.3044  0.2098 -0.1766
53505W        W96496  32.982  29.426   7.494 -0.1388  0.0198 -0.0823
53506W        W96497   1.009  19.634   6.536 -0.0541  0.2131 -0.1290
53507W        W96498  31.849  20.667   9.154  0.0961  0.1241 -0.2338
53508W        W96499  29.820  33.121  29.055  0.0554  0.0651 -0.0626
53509W        W96500  16.208  15.229   0.065 -0.4157  0.0217 -0.1951
53510W        W96501  32.770  17.964   5.829  0.0332 -0.2714  0.0853
53511W        W96502   4.600   6.249   3.360 -0.2393  0.2076  0.0223
53512W        W96503  30.674  15.787   0.180 -0.0911 -0.2147  0.0548
53513W        W96504  28.037  13.070  24.684  0.2089 -0.1900  0.1168
53514W        W96505   2.008   4.670  27.131 -0.1182  0.1875 -0.2762
53515W        W96506  33.883  10.848   4.363 -0.0320 -0.0991  0.2465
53516W        W96507   9.605  17.652  22.369  0.1409 -0.2089  0.0325
53517W        W96508   5.440  16.010  11.193 -0.0810 -0.0320  0.0453
53518W        W96509  30.344  13.268   7.924  0.0067  0.1229  0.1317
53519W        W96510  22.292   8.955  28.965  0.0710 -0.1264  0.0217
53520W        W96511  29.315  18.690   4.560  0.0074  0.1443 -0.0968
53521W        W96512   5.945  11.387   7.467  0.0104 -0.1540 -0.1683
53522W        W96513  19.479   6.221  26.968 -0.1838  0.1600 -0.0997
53523W        W96514   5.580  10.874   3.628 -0.3473  0.0743  0.2488
53524W        W96515  24.351  12.946   7.156  0.2129  0.0206 -0.2028
53525W        W96516  33.735  31.571   8.472  0.0402  0.1905 -0.1033
53526W        W96517  32.644  31.588  21.423  0.1425 -0.3473  0.0719
53527W        W96518  27.240  29.085   4.714 -0.1884  0.0081 -0.3192
53528W        W96519   7.586  17.060  25.828 -0.1624 -0.1340 -0.4231
53529W        W96520   9.187   9.570   8.383  0.3747  0.0201  0.1840
53530W        W96521  32.894  34.660  24.070 -0.1903 -0.2507  0.1546
53531W        W96522  29.240  30.950  20.474 -0.2198  0.1005  0.1412
53532W        W96523  11.107   3.669   4.569 -0.0323  0.0332  0.1328
53533W        W96524  23.896   1.603   8.808 -0.1822  0.0668 -0.0597
53534W        W96525   3.669  13.284  27.455  0.3270 -0.0641  0.1078
53535W        W96526  32.426  16.517   3.238 -0.1441 -0.0156  0.0628
53536W        W96527   1.405  18.849  17.355 -0.3606  0.3299 -0.0461
53537W        W96528   8.650  12.128   0.681  0.0559 -0.2969 -0.2167
53538W        W96529  27.835  13.382   2.712  0.0496 -0.1476  0.1692
53539W        W96530  16.550   8.374   6.441  0.0020 -0.3080 -0.1191
53540W        W96531   8.627  23.915  27.991 -0.1665  0.0476 -0.1077
53541W        W96532  10.933  21.639   5.098 -0.0661  0.1158 -0.0483
53542W        W96533   9.590  13.078  28.656  0.3227  0.3517 -0.0022
53543W        W96534  22.653   6.719   9.344  0.1837  0.0081 -0.1195
53544W        W96535   7.505   5.317   6.235  0.0032 -0.4227  0.0073
53545W        W96536   9.697  13.986   6.433  0.0438 -0.2516 -0.3032
53546W        W96537   7.936  15.421  25.948  0.1028 -0.1728 -0.1726
53547W        W96538  10.552  18.968   3.215  0.1680 -0.1843  0.2035
53548W        W96539   2.825   9.732  21.459 -0.3523 -0.1938  0.2918
53549W        W96540  32.129  18.822   6.705 -0.0029  0.1925  0.0389
53550W        W96541  25.069   6.864   7.973  0.0391 -0.1159 -0.3566
53551W        W96542  13.346   8.287  21.055  0.0832  0.4006  0.3143
53552W        W96543   5.230  26.216  26.335  0.2084  0.0247 -0.0017
53553W        W96544  29.793  14.286   2.070  0.0806 -0.3727  0.1852
53554W        W96545   0.032  23.930   5.237  0.1560  0.1858  0.0600
53555W        W96546  31.402  17.904   0.585  0.0349 -0.2117 -0.0209
53556W        W96547  22.892  18.738   7.237  0.0392  0.0670 -0.1919
53557W        W96548   7.732   7.999   6.549 -0.2311 -0.0020  0.1167
53558W        W96549   9.883  11.959   3.841 -0.0197 -0.1715 -0.0456
53559W        W96550  18.035   4.003   3.169 -0.1200 -0.1008 -0.2785
53560W        W96551   4.100  15.958   7.291 -0.2947  0.0185 -0.2991
53561W        W96552  32.843  20.190  21.750 -0.0289  0.1597 -0.0255
53562W        W96553  13.963  19.570   2.009  0.0720  0.2391 -0.1636
53563W        W96554   0.230  21.738   9.187 -0.1270  0.3140 -0.1916
53564W        W96555   1.825  27.920   5.175  0.0600 -0.0742  0.2820
53565W        W96556  31.436  14.940   8.267  0.1180 -0.1982 -0.1784
53566W        W96557   1.910  22.894   1.522  0.0691 -0.0053 -0.2037
53567W        W96558  17.347  15.188   3.576 -0.1936  0.1740  0.1324
53568W        W96559  22.981  12.831   2.695  0.2769 -0.0091 -0.1021
53569W        W96560  33.909  18.199   9.818  0.1893  0.0201  0.0520
53570W        W96561  13.105   7.449   9.005 -0.3487 -0.3042 -0.1447
53571W        W96562   0.432  17.047   1.342  0.3282  0.0033  0.0649
53572W        W96563   2.098  20.897  27.506 -0.1430 -0.0322 -0.1239
53573W        W96564  31.933  23.900  16.637  0.1295  0.1344 -0.0048
53574W        W96565  17.662   5.266  10.324  0.3967  0.1692 -0.0197
53575W        W96566  27.631  11.086   4.166 -0.3521  0.0395  0.4135
53576W        W96567   1.823   7.842  23.801 -0.0729 -0.2667  0.1160
53577W        W96568  33.335  12.517  21.098 -0.0064  0.2324 -0.0164
53578W        W96569  29.129  31.378   0.027 -0.4230 -0.2239  0.0990
53579W        W96570  30.875  10.707   2.532  0.4302  0.0723  0.0179
53580W        W96571   5.301  31.113   4.330  0.0985 -0.0868  0.1071
53581W        W96572   8.365   4.152   5.595  0.2793 -0.1701  0.0221
53582W        W96573  31.549  20.452   7.644  0.0139  0.1637 -0.2367
53583W        W96574  27.338  16.940   5.396 -0.1591  0.3064  0.1544
53584W        W96575  10.012  20.854  22.661  0.2948 -0.0870 -0.2866
53585W        W96576  29.505  15.714   5.561  0.0563 -0.1783 -0.0323
53586W        W96577  28.481  16.612   2.369  0.1261  0.0840 -0.2535
53587W        W96578   5.885   4.223   2.696 -0.0698  0.2949 -0.1956
53588W        W96579  33.667  22.947  28.908  0.0051  0.0054  0.1323
53589W        W96580  29.010   2.071  10.066 -0.0897  0.0845  0.3221
53590W        W96581  11.335  11.219   2.926 -0.0476 -0.0104 -0.0335
53591W        W96582   5.270  30.627  23.254 -0.1632  0.3653 -0.2131
53592W        W96583  29.275  25.352   2.972 -0.1577  0.3440 -0.1813
53593W        W96584   7.732  20.129  24.465  0.1380  0.0191  0.3177
53594W        W96585   9.238  22.169   4.689 -0.0590  0.0309  0.0505
53595W        W96586  32.271  13.998   7.101 -0.1924  0.0039  0.0660
53596W        W96587  12.924  22.993  28.333 -0.0114  0.0251  0.0194
53597W        W96588  18.520  30.903   6.517  0.2791 -0.0186  0.0133
53598W        W96589  18.203   0.996  27.225 -0.1460  0.3604  0.1268
53599W        W96590   2.272  14.797   7.999 -0.1056  0.2530 -0.0708
53600W        W96591  29.670  21.930  28.487 -0.1118 -0.1316  0.1380
53601W        W96592  29.569  17.241   6.586  0.1212  0.3619 -0.2094
53602W        W96593   4.298   9.888   7.480 -0.0692 -0.2448  0.0061
53603W        W96594  30.985  16.774   7.079  0.3879  0.2809 -0.0951
53604W        W96595  26.342  14.032   7.511 -0.0054 -0.0579 -0.0296
53605W        W96596   1.615   3.883  14.625 -0.3952  0.0998 -0.0581
53606W        W96597  10.753  16.703  29.234 -0.1127 -0.1911  0.1892
53607W        W96598  10.209   6.016  10.707  0.2682 -0.0581 -0.1527
53608W        W96599   5.669  19.485  10.268  0.1516 -0.1287  0.0029
53609W        W96600   6.095  14.366   7.806  0.1510 -0.0991  0.1255
53610W        W96601   4.984   7.655   5.700 -0.1900  0.1290 -0.0840
53611W        W96602   8.650  20.977  21.914  0.1076 -0.0963 -0.4238
53612W        W96603  10.606  14.900   4.488  0.1809 -0.1655 -0.2506
53613W        W96604  26.477  16.156  28.833  0.2210  0.3149  0.0943
53614W        W96605  33.006  12.504  21.908 -0.3280 -0.0468  0.0099
53615W        W96606  24.290  28.139   4.332  0.0116 -0.1534  0.2138
53616W        W96607   2.792  17.972  26.476  0.0989 -0.0079  0.0405
53617W        W96608   8.183   0.468   3.934  0.0763 -0.2493  0.2728
53618W        W96609  25.226  14.223  26.841 -0.1343  0.0982  0.1701
53619W        W96610  31.523  14.019   3.614 -0.1452 -0.3769  0.2266
53620W        W96611  32.653  16.803   3.556  0.4285 -0.6445  0.0379
53621W        W96612  10.194  22.948  26.496  0.1890 -0.2342  0.0106
53622W        W96613  33.240  22.696  26.170  0.4356 -0.0134 -0.2255
53623W        W96614   0.392  18.747  10.508  0.0741  0.1477 -0.5688
53624W        W96615  23.425  21.222   7.589  0.1756 -0.0079 -0.1391
53625W        W96616   1.648   9.117  27.303 -0.0500 -0.2164 -0.2927
53626W        W96617   5.332  20.148  26.600  0.0846  0.2330 -0.1245
53627W        W96618   1.915   4.542   3.745 -0.2198  0.0771 -0.3208
53628W        W96619  27.751  13.845   6.459  0.1188 -0.1400  0.3660
53629W        W96620   7.012  16.562   6.850  0.1644  0.0985  0.0447
53630W        W96621  28.005  10.197   7.784  0.0465 -0.0231 -0.2452
53631W        W96622   8.336  23.612   6.462  0.1456 -0.0532 -0.0424
53632W        W96623  32.888  13.207  11.216  0.0712 -0.0405  0.2579
53633W        W96624   4.536  11.725  27.165  0.0183  0.0829 -0.2207
53634W        W96625  15.758  12.551   9.834 -0.1282 -0.0666 -0.1387
53635W        W96626  27.598   9.695   9.164 -0.1110  0.0328 -0.2713
53636W        W96627  24.224   2.807  20.942 -0.0982 -0.0296 -0.0224
53637W        W96628  31.225   9.049   8.787 -0.2668 -0.1996 -0.0154
53638W        W96629   4.629   0.757  25.813 -0.0656 -0.2134 -0.2885
53639W        W96630  23.718  15.058  19.702  0.0197 -0.4319  0.1508
53640W        W96631  31.619  19.302   7.172  0.0271  0.2056  0.0256
53641W        W96632   7.910   1.820   6.862 -0.1216  0.1783 -0.0498
53642W        W96633  30.940  34.761   2.718 -0.1050  0.0442 -0.1601
53643W        W96634   1.617  20.102   0.613  0.0889 -0.1227 -0.0261
53644W        W96635   3.974  19.671   8.628  0.0922 -0.2565 -0.2096
53645W        W96636  15.160  14.384   8.565 -0.0673  0.2216 -0.0062
53646W        W96637  33.123   7.224   2.816  0.1229  0.0016  0.2499
53647W        W96638  14.168  11.356   1.069  0.0397  0.0102  0.1004
53648W        W96639   6.281  19.961   9.729 -0.1023  0.0305 -0.0441
53649W        W96640  29.601  25.034   5.559  0.1993 -0.0942  0.2184
53650W        W96641   1.184  10.754   8.414  0.0319 -0.2048 -0.4860
53651W        W96642   1.626  13.370   9.140  0.1431 -0.2180 -0.1903
53652W        W96643  23.755  12.493   3.244 -0.0802 -0.1092  0.0090
53653W        W96644  30.588   4.271  25.705  0.1055 -0.0805  0.0476
53654W        W96645   3.147  28.602  26.641 -0.0277  0.4008 -0.1100
53655W        W96646   9.544  25.461   9.400  0.0521 -0.1435  0.0689
53656W        W96647  25.005  28.441   7.332 -0.1651  0.0560 -0.1364
53657W        W96648  32.597  14.529  26.889  0.1480 -0.1374  0.0635
53658W        W96649  22.885  23.673   5.623  0.0817 -0.2970 -0.2697
53659W        W96650  10.984  13.047  26.903  0.1823  0.1312 -0.2560
53660W        W96651  14.387   8.903   9.836 -0.2870  0.4274 -0.2324
53661W        W96652  18.950  20.004  22.118 -0.0255  0.1186  0.1378
53662W        W96653   3.154  19.951   9.704 -0.2555  0.0435 -0.3517
53663W        W96654  26.335  19.101  21.960 -0.3240  0.2096  0.1762
53664W        W96655   0.393  13.347   7.781  0.0892  0.0400 -0.3719
53665W        W96656  17.993   4.912   3.322  0.1108  0.2618 -0.0543
53666W        W96657  32.017  33.909   5.784 -0.0116  0.1695  0.2771
53667W        W96658  33.692   7.636  28.897 -0.0757 -0.0052  0.2153
53668W        W96659  30.625  11.926  10.203 -0.3151  0.1357  0.0674
53669W        W96660  34.505  10.733  10.042 -0.0862 -0.1787  0.1545
53670W        W96661   4.383   7.046  11.036  0.0174  0.0600 -0.0732
53671W        W96662  27.171  21.386  26.821 -0.0368  0.1389 -0.2649
53672W        W96663   7.305   6.299  26.543 -0.1385 -0.1450 -0.0577
53673W        W96664   5.867  10.347   3.480 -0.5416 -0.1946 -0.0093
53674W        W96665  26.339  25.711  23.836 -0.0836 -0.5122  0.1016
53675W        W96666  16.797  13.959  28.726 -0.2099 -0.0211  0.1540
53676W        W96667   3.167  12.049   3.539  0.2772 -0.0039 -0.0145
53677W        W96668  33.843  25.022   7.152  0.0117  0.0283  0.0585
53678W        W96669  29.861  21.670  27.517  0.0829  0.3224  0.1579
53679W        W96670   2.461   9.507  10.280  0.1280 -0.2984  0.1963
53680W        W96671  28.289  21.395   7.830 -0.2332 -0.1263  0.1131
53681W        W96672  34.284  16.547   9.342  0.2710 -0.0352 -0.0641
53682W        W96673  16.662  13.334  17.497 -0.0556  0.3327  0.2864
53683W        W96674  13.234   1.576   5.845 -0.1195 -0.2296 -0.2566
53684W        W96675  31.759  22.623   3.201  0.0997  0.2022  0.0821
53685W        W96676   5.103  11.713   7.669 -0.1886  0.0349  0.1910
53686W        W96677   2.505  28.633   8.373  0.1623 -0.0532 -0.2945
53687W        W96678  18.523   8.183   5.902 -0.2771  0.0817 -0.2420
53688W        W96679  17.790  31.622   0.477 -0.1809 -0.1242 -0.0564
53689W        W96680   4.046  22.672   6.582 -0.3438 -0.0404 -0.1876
53690W        W96681   2.444  16.934  11.266 -0.0310  0.1842 -0.0685
53691W        W96682  31.809  18.973  18.239 -0.0179  0.2355 -0.0301
53692W        W96683  31.259   9.775   3.593 -0.2011 -0.1737 -0.1451
53693W        W96684  19.735  16.295   4.749 -0.1958  0.1801  0.3578
53694W        W96685  17.806   8.877   8.149  0.3086 -0.5065  0.1011
53695W        W96686  31.263  28.911   3.086  0.0984 -0.0386  0.1335
53696W        W96687  31.738  28.081   5.301 -0.1945  0.2073  0.2343
53697W        W96688   1.731   4.804   4.273 -0.0910 -0.0149  0.0773
53698W        W96689  20.787  12.785  28.582 -0.0469  0.2175  0.3516
53699W        W96690  20.304  13.010  22.244 -0.1424  0.0491  0.2432
53700W        W96691  21.379   3.651  15.574 -0.2613 -0.0633  0.0974
53701W        W96692  31.785  29.762   0.331  0.0471  0.1831 -0.0649
53702W        W96693   5.423  20.857   8.109  0.0936 -0.1310 -0.0098
53703W        W96694  11.843  28.554   2.959  0.1009 -0.2053 -0.0078
53704W        W96695  28.801   8.180   7.137  0.3357  0.1247 -0.1277
53705W        W96696  25.863  15.277   1.902 -0.1861 -0.3624 -0.0109
53706W        W96697   2.890  18.771  28.932  0.1482  0.0111 -0.0081
53707W        W96698  22.047  10.263  28.934 -0.2185  0.0238 -0.3191
53708W        W96699  20.639   5.943   0.741  0.0804 -0.1468 -0.2286
53709W        W96700  15.337  13.083  26.628 -0.0380 -0.1927 -0.1334
53710W        W96701  34.201  24.794   9.952 -0.0963  0.2319  0.2530
53711W        W96702  28.677  15.515   1.288  0.1083 -0.0327 -0.1181
53712W        W96703  10.826  11.026  19.539  0.3916 -0.2283  0.0349
53713W        W96704  27.468  26.210   6.339  0.0847  0.0288  0.0020
53714W        W96705   2.201   3.160  26.060  0.1527  0.2088 -0.0523
53715W        W96706   4.061  16.773   0.059  0.1087  0.0281 -0.0572
53716W        W96707   6.904   4.717   9.145 -0.0706  0.2440 -0.0930
53717W        W96708  31.547  24.955   3.269  0.0131 -0.1478 -0.0084
53718W        W96709  33.415  23.355   5.303  0.0943  0.1001 -0.1420
53719W        W96710  21.463   7.388   7.545  0.0305 -0.0872 -0.0563
53720W        W96711  22.281  24.108   1.981  0.0637  0.2275 -0.2688
53721W        W96712   9.279  15.975   1.762  0.0518 -0.0103 -0.0162
53722W        W96713  23.021  20.073  27.968  0.2051  0.0972  0.0186
53723W        W96714   3.564   8.678  25.664  0.0702 -0.1956  0.0460
53724W        W96715  10.948  19.138   2.984  0.1989 -0.0966 -0.2077
53725W        W96716  28.754  23.895  18.378 -0.1419  0.2073 -0.2171
53726W        W96717  11.034  24.018   7.246  0.0547 -0.2874 -0.3405
53727W        W96718  23.595  24.690   1.485 -0.0728  0.0725  0.2730
53728W        W96719  20.622  11.842   2.429 -0.2711 -0.3528  0.3296
53729W        W96720  19.400  23.353   8.448  0.1536 -0.0594 -0.2261
53730W        W96721   2.921  30.895   3.966 -0.0154 -0.0014  0.0440
53731W        W96722  30.519  20.360   4.315  0.1021  0.0043  0.0852
53732W        W96723  28.384   7.579   9.218  0.3712 -0.1063  0.0686
53733W        W96724   8.383   3.454   8.806  0.0513  0.3163 -0.0183
53734W        W96725   1.185  18.948   1.325  0.0847 -0.1191  0.0344
53735W        W96726   2.519  24.505   7.056 -0.1028 -0.2282  0.1938
53736W        W96727  28.624  20.768   3.539  0.0210  0.0586  0.0454
53737W        W96728  19.318  32.920   6.228 -0.1382  0.2739  0.0614
53738W        W96729  12.647   8.256  29.122  0.1216  0.0539  0.1836
53739W        W96730   8.471   5.448   2.063 -0.2178  0.1115  0.0714
53740W        W96731  33.629  30.007   8.430  0.0662  0.0972  0.2640
53741W        W96732   1.430  29.933  25.862 -0.1644  0.2698 -0.0876
53742W        W96733   1.978  31.398   5.954 -0.0009  0.0814  0.3666
53743W        W96734  13.403  20.377  20.527 -0.1566 -0.0622  0.2488
53744W        W96735  21.117   8.587   5.435  0.3022  0.0040 -0.0437
53745W        W96736   2.267  16.357   8.550  0.3074 -0.1764 -0.0035
53746W        W96737   4.775  30.394   3.048 -0.1139  0.0358 -0.1495
53747W        W96738   0.187  14.705   3.857 -0.0411 -0.1613 -0.0463
53748W        W96739  31.976  21.950  22.327 -0.2016  0.0876  0.0691
53749W        W96740  30.288  18.787  28.281 -0.0829 -0.1568  0.0848
53750W        W96741  28.543  25.541   7.800 -0.2454 -0.4070  0.3473
53751W        W96742   3.102  12.419  10.478 -0.0571 -0.1223 -0.1748
53752W        W96743   2.441  11.591   7.713  0.2945  0.4329 -0.1097
53753W        W96744   6.244   9.445   9.493  0.2964  0.0622  0.1670
53754W        W96745   4.832   2.244   5.281 -0.0487 -0.4506 -0.1446
53755W        W96746   2.169  30.727  24.823 -0.1055 -0.4597 -0.0896
53756W        W96747  24.077  20.252   0.342 -0.4517  0.4312  0.0642
53757W        W96748  11.524   5.044   1.452 -0.0251  0.0096  0.0364
53758W        W96749   5.372  13.015   6.326  0.1133  0.1343 -0.1923
53759W        W96750  32.518  18.801   1.781  0.1615  0.0843 -0.1089
53760W        W96751  27.576   1.253   1.317  0.1823 -0.2005 -0.2297
53761W        W96752  32.473  13.608   3.995 -0.2318 -0.1068 -0.2668
53762W        W96753   0.080  14.058  10.315 -0.1199  0.0816  0.0564
53763W        W96754  31.599   9.614   7.522  0.0566 -0.0039  0.2146
53764W        W96755  34.585  14.431  23.429  0.2628  0.1027  0.0006
53765W        W96756  30.462  28.147   7.598 -0.0907  0.1022  0.0164
53766W        W96757   0.010   9.223   8.742  0.2404 -0.0481 -0.0725
53767W        W96758  34.691   8.696  11.248 -0.0446  0.3098  0.1491
53768W        W96759   7.080  26.504  26.154 -0.1211 -0.0330 -0.1558
53769W        W96760  33.399  17.661   5.401 -0.1174 -0.3238 -0.2814
53770W        W96761  31.925  20.773   4.830  0.0283  0.0742 -0.0934
53771W        W96762  27.660   1.251   2.329 -0.1329  0.0551  0.2476
53772W        W96763  34.402  12.440   9.737  0.2553 -0.2131  0.0094
53773W        W96764   2.325  21.383  24.990  0.1708  0.0999  0.0255
53774W        W96765  32.865  23.639   0.722  0.1440  0.0598  0.3437
53775W        W96766  23.487   3.859   5.575 -0.2221 -0.0925  0.1561
53776W        W96767   0.752  19.924   7.387 -0.0976 -0.0609  0.0569
53777W        W96768  32.513   7.365   5.922  0.2273 -0.1534  0.0532
53778W        W96769  22.442  21.079   7.438  0.2144  0.1126  0.0790
53779W        W96770  27.929   9.397   8.930  0.0276 -0.1568 -0.0273
53780W        W96771   7.305  24.635  20.141 -0.4625  0.1815 -0.0341
53781W        W96772  21.805   5.230   2.324 -0.0805  0.1361 -0.2355
53782W        W96773  14.868  16.509   5.300  0.0511  0.4211  0.0597
53783W        W96774  25.812   6.367   5.427 -0.1308  0.0275 -0.0425
53784W        W96775  31.194  10.160   8.554 -0.0184 -0.0105  0.0281
53785W        W96776   2.308   0.043   9.973  0.1193  0.2417 -0.1324
53786W        W96777   1.201   9.911  17.337  0.2392  0.0864 -0.0635
53787W        W96778   6.708  14.048  21.078 -0.2123  0.1802  0.2616
53788W        W96779  32.495  34.249   0.504  0.2760  0.1790 -0.0995
53789W        W96780  15.056  33.094   5.875 -0.1044  0.1923  0.0240
53790W        W96781  25.535   1.092   4.397  0.2386 -0.2516  0.1644
53791W        W96782   7.207  12.385   8.033 -0.0023 -0.0936 -0.2125
53792W        W96783   4.696  32.309   2.521 -0.1320  0.0832 -0.0302
53793W        W96784   0.115  20.428   7.776  0.2818  0.1081  0.1320
53794W        W96785   9.347  17.424   2.905 -0.0556  0.0811 -0.1964
53795W        W96786  32.306  32.183  19.882  0.0308 -0.0703 -0.1113
53796W        W96787  13.381  11.865   0.788 -0.0188  0.1464  0.1383
53797W        W96788   9.417  29.120   0.221 -0.2410  0.0158  0.0913
53798W        W96789   8.495  20.464   5.012  0.3740  0.3619  0.2319
53799W        W96790  10.644  13.767  24.490  0.1616  0.1542 -0.1283
53800W        W96791   6.063   8.670   2.194  0.1630 -0.0194  0.3040
53801W        W96792  29.659  29.408   5.920  0.1529  0.0622  0.0421
53802W        W96793  10.950  25.594   0.840  0.1166  0.0295 -0.1859
53803W        W96794  34.416  16.399  11.124 -0.2626  0.3770 -0.2685
53804W        W96795  28.900  16.846  29.161  0.1754 -0.2042 -0.1183
53805W        W96796  28.948   7.819   7.423  0.1652 -0.1165  0.1877
53806W        W96797   0.826  12.599   4.493  0.0123 -0.0926  0.2247
53807W        W96798   5.407   3.318   5.622 -0.0260  0.1624 -0.1626
53808W        W96799   2.859  23.709   4.485  0.2340 -0.1131 -0.1897
53809W        W96800   5.449  30.841   1.226  0.3187  0.1590 -0.0271
53810W        W96801  15.194  32.639   0.423  0.0005 -0.0287 -0.0119
53811W        W96802   5.232  16.739   7.618 -0.2529 -0.2417  0.2087
53812W        W96803   7.453  18.979   8.764  0.0522  0.1023  0.1409
53813W        W96804  31.392  17.903   2.659  0.0335  0.0960 -0.0221
53814W        W96805   4.526  19.348   2.195 -0.2835 -0.1156 -0.7041
53815W        W96806  31.263  26.051  19.811  0.0173  0.1801  0.1626
53816W        W96807   4.990  25.934   2.779  0.0979 -0.0629 -0.1667
53817W        W96808   3.274  26.710  25.407 -0.0687 -0.1399 -0.0426
53818W        W96809  27.074  34.267  28.006 -0.2353 -0.1136 -0.0979
53819W        W96810  30.578  17.241   4.264  0.0703 -0.0371 -0.1113
53820W        W96811  26.942  19.686  28.983  0.0197 -0.0685 -0.0741
53821W        W96812   3.860  14.420  21.956  0.1574 -0.1357  0.1884
53822W        W96813   3.695  34.769   9.061 -0.0360 -0.0762 -0.1143
53823W        W96814  33.871  15.405   5.784  0.0366 -0.3312  0.0807
53824W        W96815   5.206  16.122   6.990 -0.0051 -0.2441 -0.0666
53825W        W96816  29.531   4.939  26.421  0.0079 -0.0805 -0.2580
53826W        W96817  25.919  26.983   8.462  0.1324  0.0663 -0.1460
53827W        W96818  10.278  24.154   5.861  0.3091 -0.0021 -0.0718
53828W        W96819  17.739   6.963   2.531  0.1653  0.0909 -0.0566
53829W        W96820  25.388   9.050   3.561  0.1428  0.2185  0.2710
53830W        W96821   1.748  18.588  27.006  0.2276 -0.0090 -0.1876
53831W        W96822  21.010  23.051  29.106 -0.1394  0.3021 -0.2718
53832W        W96823   4.223  10.737   4.697 -0.1770 -0.1174  0.0618
53833W        W96824  24.337   5.897   8.288 -0.2297 -0.1910  0.1409
53834W        W96825   0.624  20.078   9.773 -0.1922  0.2335  0.3312
53835W        W96826   2.970  26.574   3.645 -0.2085  0.0326  0.2151
53836W        W96827   1.678  26.619  16.173 -0.2558  0.0456  0.1459
53837W        W96828   5.461  18.449   4.554 -0.2039 -0.0243  0.0331
53838W        W96829  25.184  16.393   0.763  0.1341  0.0172  0.3363
53839W        W96830   3.148   4.874   6.087 -0.0533 -0.1201 -0.2911
53840W        W96831  33.358  17.598   8.908  0.1333  0.1969  0.1828
53841W        W96832  12.709   5.916  10.208 -0.1992 -0.2064  0.1453
53842W        W96833  26.625  12.176   6.320  0.0214  0.0319 -0.0985
53843W        W96834   8.434  21.512   1.087 -0.0008  0.0457  0.3135
53844W        W96835  21.069  19.706  23.149 -0.0992 -0.2550 -0.0058
53845W        W96836  34.137  18.315  16.604 -0.0322 -0.3278 -0.1457
53846W        W96837  13.097  13.747   6.645  0.1543  0.2590 -0.0524
53847W        W96838   6.018  10.247   9.817  0.0764  0.1665  0.0622
53848W        W96839   0.890   2.776   1.844 -0.0514 -0.5826  0.0531
53849W        W96840  15.307  31.405   9.865 -0.0182  0.1430  0.2047
53850W        W96841  14.335  13.748   4.407 -0.0309  0.1569  0.0353
53851W        W96842  26.774  20.183   1.008  0.0691  0.0439 -0.0638
53852W        W96843  21.535  14.855   9.449  0.0498 -0.0109  0.0694
53853W        W96844   1.921   9.845   5.787  0.1563  0.2864  0.0914
53854W        W96845  22.888  16.918  13.830  0.0125 -0.0940 -0.1302
53855W        W96846  16.733  17.953   0.174  0.0795  0.1583  0.0297
53856W        W96847   7.302   3.170   7.424  0.1271  0.0956 -0.2407
53857W        W96848  24.596   9.656   7.721  0.2510 -0.0813  0.3004
53858W        W96849  29.836   6.781   0.381  0.1135  0.1295 -0.1280
53859W        W96850   1.606   8.747   1.853 -0.1344  0.0625  0.2866
53860W        W96851  33.209  10.925   1.857 -0.2962 -0.1319  0.0666
53861W        W96852   6.552  15.065  10.166  0.3933  0.0552  0.2328
53862W        W96853   8.218   5.782   4.302  0.1334 -0.0102 -0.1045
53863W        W96854   7.547  20.512  22.058  0.4431  0.0649  0.0994
53864W        W96855  27.220  10.709   1.438  0.2491  0.1236 -0.1721
53865W        W96856  11.773  16.623   9.995 -0.0797 -0.0387  0.2609
53866W        W96857   4.277  18.757   9.332 -0.3331 -0.0777 -0.2270
53867W        W96858   6.827  16.108   5.556  0.0360  0.3086  0.0204
53868W        W96859   7.850  10.980   7.116  0.0108  0.1604 -0.1096
53869W        W96860  14.892   1.347   4.067 -0.1508  0.1989  0.4979
53870W        W96861  31.181  18.917   3.059 -0.1059  0.0770 -0.0210
53871W        W96862  12.261  31.220   6.663  0.0062 -0.2109 -0.1238
53872W        W96863  29.527  20.019   0.963  0.1224  0.3501  0.0999
53873W        W96864   2.478   4.962  10.556  0.1623 -0.0780  0.0681
53874W        W96865  24.893  16.824  26.763 -0.1298  0.1827  0.1043
53875W        W96866  19.676  12.607  18.749  0.2676  0.0628  0.0676
53876W        W96867  31.832  19.911   3.790  0.3366  0.0108  0.0861
53877W        W96868  30.993   9.023   3.606  0.1351  0.1351  0.2011
53878W        W96869  30.453  26.187   2.546 -0.0503 -0.0797 -0.0342
53879W        W96870  11.707  14.406  27.589 -0.1158  0.0030  0.1019
53880W        W96871   3.002   5.189   9.071 -0.2020 -0.2737  0.1851
53881W        W96872  16.159  21.607   6.356 -0.3788  0.1130 -0.2232
53882W        W96873   3.427   8.867   8.433 -0.0383 -0.2074 -0.0716
53883W        W96874  28.120  10.957   4.219 -0.1453  0.1656 -0.3520
53884W        W96875  33.361  17.548   3.950 -0.0115  0.1793 -0.1154
53885W        W96876   4.884  18.005   5.380 -0.1273 -0.3125  0.0464
53886W        W96877  31.111   2.227   9.042 -0.0406 -0.3969 -0.2224
53887W        W96878  13.230  14.685   6.775  0.0885 -0.0355  0.2699
53888W        W96879  18.172   1.152   0.509  0.2047 -0.4974  0.0259
53889W        W96880  22.118  34.428  20.903  0.0604 -0.0005  0.0338
53890W        W96881  15.787  28.000   8.333  0.0121  0.1549  0.3675
53891W        W96882  19.450  17.603   2.539 -0.1654  0.1337  0.0198
53892W        W96883  31.479   7.148   7.516  0.0856  0.0166  0.1031
53893W        W96884  25.708  15.963   7.507 -0.2692 -0.1916 -0.0047
53894W        W96885  31.601  16.009   5.823  0.0430 -0.0510 -0.1186
53895W        W96886  12.916  30.312   0.888 -0.1725  0.2818  0.1576
53896W        W96887   2.033  14.872   7.004  0.0917 -0.1133 -0.2717
53897W        W96888  22.387  28.074   0.285 -0.1099  0.1327 -0.1275
53898W        W96889   7.717  27.172   5.665  0.2280  0.1758 -0.2894
53899W        W96890  30.025  14.773   6.729 -0.0282 -0.0558 -0.0753
53900W        W96891  10.916  20.585   6.904  0.0973  0.3825 -0.1258
53901W        W96892  26.370  20.839  28.993  0.2833  0.0876 -0.0100
53902W        W96893   3.391  12.104   9.255 -0.1536 -0.0053  0.0250
53903W        W96894   3.235  20.434  20.871 -0.3093 -0.0080  0.0633
53904W        W96895  33.067  28.734  23.512  0.1140 -0.0781 -0.0223
53905W        W96896  25.494  25.520  23.748 -0.1875  0.0931  0.0480
53906W        W96897  34.388  18.193  10.987  0.1693  0.0865  0.0296
53907W        W96898  33.306  18.868  23.130 -0.1472  0.0136  0.0018
53908W        W96899   0.877  12.078  12.229  0.2383 -0.2974  0.1391
53909W        W96900  25.904  23.598   5.872 -0.0887  0.3325 -0.1180
53910W        W96901   7.569  18.712  10.312 -0.1188  0.0019  0.0463
53911W        W96902   0.456  24.097   9.708  0.1068 -0.1880 -0.1908
53912W        W96903  26.994   6.917  27.838  0.3694  0.0625  0.2742
53913W        W96904  32.593  22.180   6.920  0.0379 -0.0020 -0.0210
53914W        W96905  28.829   7.299   9.150  0.1593  0.0900 -0.1193
53915W        W96906   2.612  24.401   3.792  0.1073  0.0182  0.1270
53916W        W96907  30.022  19.181   9.489  0.0507  0.0548 -0.2158
53917W        W96908   4.406  27.734   0.867 -0.0033  0.2584 -0.2791
53918W        W96909  33.891  13.988  11.138 -0.2411 -0.1030  0.2545
53919W        W96910  20.975  11.539   5.662 -0.0435  0.0695 -0.0311
53920W        W96911  26.314  17.373  24.062 -0.2166  0.1598 -0.2390
53921W        W96912   3.599  28.013   7.697  0.1087  0.1965  0.0916
53922W        W96913  31.034  34.404  27.964  0.2887 -0.2470  0.2499
53923W        W96914  28.329  18.039   3.545 -0.5411  0.1152  0.0019
53924W        W96915  34.260  13.772  10.791  0.3312  0.1878  0.0276
53925W        W96916  17.183   6.302   5.842  0.1146 -0.0482 -0.2848
53926W        W96917   0.103  14.999   4.554 -0.1811 -0.0551 -0.1881
53927W        W96918   0.085  14.968  10.452 -0.0197  0.1102  0.2722
53928W        W96919  33.685  28.029   1.989  0.0461 -0.5872  0.1413
53929W        W96920  30.311  10.511   8.752 -0.0786 -0.2982  0.1631
53930W        W96921   0.203   8.341  27.655  0.2052 -0.0462 -0.0279
53931W        W96922  25.142  15.562   4.983 -0.1864 -0.0265 -0.0342
53932W        W96923  33.550  30.758   0.450 -0.1291  0.2556 -0.0818
53933W        W96924  29.688   9.704   4.972 -0.0120  0.3952 -0.2097
53934W        W96925  32.258  15.796   7.607 -0.1175  0.0835  0.0593
53935W        W96926   7.096  16.032   0.131 -0.0278 -0.0136  0.0236
53936W        W96927  27.366  31.557   6.377 -0.0597 -0.0246  0.0828
53937W        W96928  12.244  25.721  29.145  0.1899  0.0659  0.1939
53938W        W96929   2.920  13.960  26.489 -0.0438  0.0875  0.1621
53939W        W96930  15.570  13.074  24.102 -0.0717 -0.0977  0.1540
53940W        W96931  16.169   6.165  21.648  0.1269  0.0538  0.0869
53941W        W96932  23.709  16.647  27.549  0.3737 -0.0217 -0.0651
53942W        W96933  26.609  12.684   9.989 -0.1796 -0.2046 -0.0409
53943W        W96934   2.672  24.668  22.745  0.1825 -0.1452  0.3203
53944W        W96935   1.719  19.717   5.967  0.4162 -0.0202 -0.0791
53945W        W96936  33.977  30.637   4.855  0.1303 -0.2838  0.0120
53946W        W96937  30.704   6.759   2.672  0.1320  0.1382  0.0210
53947W        W96938   4.000  30.277   3.890 -0.2390  0.3929 -0.2566
53948W        W96939  25.986   9.191   8.688  0.0266 -0.1787  0.0626
53949W        W96940   3.034  18.366   3.725  0.1842 -0.0763  0.2460
53950W        W96941  30.390   6.301   5.334 -0.2676  0.1434 -0.0139
53951W        W96942  11.096  18.065   2.274  0.1370 -0.2382  0.0785
53952W        W96943  22.719  11.810   2.075  0.1431  0.2064  0.3024
53953W        W96944  29.773  17.131   9.910  0.0135  0.0352 -0.0079
53954W        W96945  34.205   9.627  23.796 -0.0708 -0.1820  0.3722
53955W        W96946  13.405   7.861  28.082 -0.0008 -0.3493  0.3240
53956W        W96947   5.181  18.240  10.522  0.1514 -0.0384 -0.2349
53957W        W96948  25.383  12.455   6.540 -0.2355  0.0074  0.0575
53958W        W96949   6.003  23.976   9.724  0.1916  0.4368  0.1246
53959W        W96950   1.796  28.156  28.877  0.3578  0.1029  0.0624
53960W        W96951  25.790  28.453  27.317 -0.1937 -0.2008  0.0357
53961W        W96952  29.446  11.623   8.576  0.0613  0.0058  0.0118
53962W        W96953  28.352  11.583   2.971 -0.0293 -0.1865 -0.0242
53963W        W96954  18.203   5.186  26.184  0.1318  0.0223 -0.2076
53964W        W96955  32.787  16.883  24.060 -0.4535  0.1062  0.0037
53965W        W96956   2.237  34.739   2.329  0.3301 -0.1557  0.3317
53966W        W96957   0.015  27.745   3.074  0.0829 -0.1123 -0.1849
53967W        W96958  32.370  24.446   0.652 -0.0475 -0.1847 -0.0371
53968W        W96959   0.371  20.119  28.389 -0.1632 -0.2185  0.0356
53969W        W96960  16.113   4.095   8.922 -0.1127  0.3243  0.0541
53970W        W96961   9.320  17.682  20.210  0.0598  0.3429  0.2056
53971W        W96962   2.140  25.150   4.199 -0.0199  0.1013  0.1111
53972W        W96963  13.594  12.865   0.732  0.1134  0.0226 -0.0616
53973W        W96964  14.817  25.770  28.417  0.1255 -0.0769  0.0235
53974W        W96965  18.439  30.850   5.175  0.3324  0.0042  0.1768
53975W        W96966  28.308  10.319   8.764 -0.0969  0.0146 -0.2530
53976W        W96967  20.000   6.298  28.382  0.1473  0.3407  0.0148
53977W        W96968  28.949  14.728  20.633  0.3605 -0.1652 -0.0483
53978W        W96969   0.547  15.504   0.219  0.3575 -0.0248  0.0877
53979W        W96970  33.732  26.721   1.400 -0.0533 -0.3494 -0.1236
53980W        W96971  12.712  20.397  13.558 -0.0153 -0.2207 -0.0122
53981W        W96972   4.457   6.892  19.345 -0.1086 -0.2996 -0.0143
53982W        W96973  19.085  28.162   8.525 -0.0345 -0.1275  0.0566
53983W        W96974  15.936   6.879  23.962  0.3860  0.1270 -0.0393
53984W        W96975  29.169  25.270   1.466 -0.0511  0.1821 -0.1799
53985W        W96976   1.049  32.289   9.263 -0.3085 -0.2314 -0.0562
53986W        W96977   4.581  19.355   5.279 -0.2399  0.0393 -0.0454
53987W        W96978   7.845  33.125   2.698 -0.1449  0.1061  0.0964
53988W        W96979   9.600  11.676   4.129  0.1299  0.1831  0.1929
53989W        W96980   8.996  12.133   1.061  0.1352  0.0221  0.2019
53990W        W96981  26.517  13.257   2.352 -0.0649  0.1342 -0.0659
53991W        W96982   9.670  25.531  18.530  0.0838  0.2619  0.0356
53992W        W96983  33.987  18.235  22.321 -0.1353  0.4006  0.2106
53993W        W96984  29.764  13.217   2.045 -0.0681  0.1694  0.1698
53994W        W96985   1.822   5.293   4.178 -0.1484 -0.2528  0.0120
53995W        W96986   3.558  21.312   6.631 -0.2330 -0.2922 -0.1961
53996W        W96987   4.440   8.947   0.108 -0.1148  0.2026  0.0860
53997W        W96988   0.556  22.140   5.068 -0.1566  0.2964  0.2050
53998W        W96989   1.568  33.951  15.249 -0.0656  0.0367 -0.0990
53999W        W96990   5.156  14.895   1.937  0.2657  0.0692 -0.1963
54000W        W96991   2.184  25.161   3.234  0.0452 -0.0859  0.0784
54001W        W96992   1.802  19.861   8.004  0.2148  0.0701  0.1998
54002W        W96993  28.661  17.686   8.640 -0.0205 -0.3861 -0.3483
54003W        W96994  24.763   5.481   5.277 -0.0964  0.0790 -0.3593
54004W        W96995   0.488  15.364  18.251  0.0327 -0.0175  0.0124
54005W        W96996  27.519  33.776  23.887 -0.1504  0.1728 -0.7191
54006W        W96997   5.472  10.680  10.395  0.0475 -0.1254  0.0202
54007W        W96998   5.942  25.688   2.530 -0.0104  0.3328  0.0854
54008W        W96999   1.480  21.974   8.162 -0.0974  0.0023 -0.3019
54009W        W97000   7.276  11.909  24.019  0.1811 -0.0488 -0.1316
54010W        W97001   8.096  23.158  21.932 -0.2755 -0.0421 -0.0585
54011W        W97002   9.482  16.475   7.259 -0.1774 -0.2494 -0.0225
54012W        W97003  23.148  12.883  16.646 -0.0335  0.1393 -0.3031
54013W        W97004  34.661  12.121   7.532 -0.0701 -0.0146 -0.0788
54014W        W97005  26.926  13.947  18.483  0.0026  0.0333  0.0679
54015W        W97006   5.324  24.896  29.057  0.0445  0.3016 -0.0150
54016W        W97007  11.399  20.851  14.421  0.2306  0.2497 -0.0835
54017W        W97008  26.384  16.194  21.966  0.1507 -0.2222 -0.0867
54018W        W97009  20.703  30.966  25.813 -0.1379 -0.1589 -0.0204
54019W        W97010   0.167  18.207  28.072 -0.2439  0.1270 -0.1239
54020W        W97011   1.463   5.970  29.253 -0.0721 -0.1049 -0.0985
54021W        W97012   2.066  16.883  11.606  0.1527 -0.1580  0.1379
54022W        W97013  22.476  29.723  22.236 -0.0186  0.4224 -0.0048
54023W        W97014  33.107  29.404   3.206  0.0926  0.0073 -0.0201
54024W        W97015  30.858  28.894  26.482  0.1923 -0.1122 -0.2259
54025W        W97016   8.135  15.674  27.160 -0.0159  0.0157 -0.2915
54026W        W97017  31.591   4.875   4.468 -0.0024 -0.0029 -0.0271
54027W        W97018  25.517  13.393  10.331  0.1083  0.1874 -0.0564
54028W        W97019   0.166  14.465   0.639 -0.0581 -0.1204  0.0045
54029W        W97020   6.510  15.689  27.295  0.0789  0.0351  0.0962
54030W        W97021  22.990  19.721   0.307 -0.1601  0.1142 -0.1662
54031W        W97022   5.598  24.829  10.206 -0.0655 -0.1272 -0.0815
54032W        W97023  12.745  22.923   6.672 -0.1500  0.0879  0.0593
54033W        W97024   3.902  22.156   6.569 -0.1506  0.1005  0.2392
54034W        W97025   9.429  29.043  27.083  0.1065  0.3226 -0.1444
54035W        W97026  34.150  18.699  25.974 -0.1207  0.1875  0.2441
54036W        W97027  30.498  26.808   2.947  0.0493  0.2210  0.1813
54037W        W97028  32.073  18.543   1.534  0.3298 -0.1536  0.3725
54038W        W97029   3.393  32.442   1.571 -0.0626 -0.0771  0.0775
54039W        W97030  18.528  10.769   0.207  0.0311  0.1223  0.0713
54040W        W97031   6.012  24.260  26.820 -0.2574  0.3071 -0.1346
54041W        W97032   3.715  31.723   9.221 -0.1387 -0.1123  0.2297
54042W        W97033   2.169  10.313  10.578  0.2550 -0.2343 -0.2130
54043W        W97034  21.387  19.962  12.741  0.1405 -0.0168  0.2465
54044W        W97035  22.887  14.734   8.991  0.1099 -0.1291  0.1114
54045W        W97036  21.295  25.092   9.383  0.1436 -0.0982  0.0024
54046W        W97037  21.126   9.841   6.268  0.1914  0.2202 -0.0543
54047W        W97038   0.899  21.542   8.791  0.1183  0.0153 -0.1803
54048W        W97039   7.135  10.425  10.358  0.0289  0.1047 -0.0055
54049W        W97040  11.536  20.090   1.133  0.0880 -0.1973  0.1833
54050W        W97041  21.541  18.673   5.039  0.1286 -0.1720 -0.0775
54051W        W97042   7.293  11.958  20.701  0.0129 -0.0746 -0.1859
54052W        W97043  34.601  19.505   8.446  0.0465  0.1077  0.1445
54053W        W97044  29.752  11.588  20.478 -0.0775  0.2994  0.3948
54054W        W97045  28.866  16.344  16.853  0.1843  0.0036  0.0043
54055W        W97046  34.725   4.860   7.401  0.0574 -0.0503  0.3701
54056W        W97047  18.544  30.590   3.563 -0.2035  0.3722  0.3630
54057W        W97048   5.273  26.075   7.324  0.2127  0.3021  0.0255
54058W        W97049  25.884  21.234   8.272 -0.0432  0.0245  0.1638
54059W        W97050   7.365   6.489   6.283  0.0315 -0.1242 -0.2883
54060W        W97051  11.660  20.060   6.595  0.3255 -0.1568 -0.1621
54061W        W97052   5.818  10.260   1.169  0.0987  0.0954  0.0155
54062W        W97053   0.585   9.882  10.938  0.1701 -0.0227  0.0030
54063W        W97054  29.318  29.390   7.519  0.1435  0.1320 -0.0881
54064W        W97055  30.484  30.587   0.823 -0.1953 -0.0487  0.2380
54065W        W97056   1.948  28.420  10.030  0.3473 -0.0651  0.2065
54066W        W97057   9.876  24.206  10.296  0.0337 -0.1401 -0.2328
54067W        W97058  16.509  16.189  15.116  0.0365  0.3467  0.1418
54068W        W97059  13.046   2.596   8.191  0.1396 -0.1168 -0.0805
54069W        W97060   0.985  20.334   5.595  0.0824  0.2344 -0.0306
54070W        W97061   8.238  19.089  16.610  0.0278  0.2835 -0.1281
54071W        W97062  34.220  16.016  26.309  0.0997  0.1111 -0.1138
54072W        W97063  31.227  22.023  28.799  0.1997  0.4383  0.1081
54073W        W97064  21.439  26.536   7.088 -0.1945  0.0405 -0.2586
54074W        W97065   3.972  33.885  27.215 -0.2260 -0.1609 -0.1818
54075W        W97066  25.999  11.618  19.182  0.2199  0.0327 -0.3982
54076W        W97067  27.889  17.524   5.429  0.0481  0.0945 -0.0441
54077W        W97068  24.006  17.507  24.358  0.1282 -0.3606  0.0836
54078W        W97069  29.847  30.772   4.270 -0.0007  0.1755  0.0955
54079W        W97070  27.608  17.703  10.117  0.2194 -0.2673  0.2521
54080W        W97071  20.065  19.934   4.857  0.1606  0.1303  0.5151
54081W        W97072  12.703  28.303  18.896 -0.3194  0.3726 -0.0797
54082W        W97073   2.497  20.300   5.178  0.3459 -0.0164 -0.0030
54083W        W97074  30.871   0.208   5.919  0.3761  0.1639 -0.1217
54084W        W97075   5.990  15.750  21.365  0.0036 -0.4009  0.0096
54085W        W97076  33.681  12.336   0.572  0.3156  0.0937 -0.1694
54086W        W97077  29.053  12.682   3.363 -0.0815 -0.0143  0.1815
54087W        W97078  19.264  31.619   0.409 -0.0032 -0.3545 -0.1084
54088W        W97079  32.836  21.345  28.551  0.2828 -0.1041 -0.0896
54089W        W97080  31.043   4.119  20.553  0.0102  0.1666  0.0669
54090W        W97081  14.053  14.171   8.063 -0.3916 -0.1496  0.1756
54091W        W97082   3.694  19.026  24.750 -0.2695 -0.1605  0.0688
54092W        W97083   2.581  17.267  26.695  0.1900  0.2234 -0.1152
54093W        W97084   2.186  27.478   3.550  0.1533 -0.4599  0.0751
54094W        W97085   3.674  13.386  25.204  0.5237  0.1198 -0.1434
54095W        W97086  29.056  24.061  15.970 -0.6643 -0.2512 -0.0837
54096W        W97087  31.248  21.253   9.388  0.2860 -0.4188 -0.1753
54097W        W97088  34.364  18.391   3.097 -0.1897 -0.1477  0.5529
54098W        W97089   3.320  16.819  11.527 -0.2132  0.1186  0.1212
54099W        W97090  16.965  25.013  24.654  0.3086  0.2329 -0.0511
54100W        W97091  10.025  15.888  28.071  0.3403 -0.1654  0.1152
54101W        W97092  30.492  13.308  18.710  0.1710  0.1512 -0.0734
54102W        W97093  13.065  20.988   4.905  0.0768  0.3671 -0.2163
54103W        W97094   0.357  21.778   4.176 -0.0254 -0.0537  0.1306
54104W        W97095   4.757  17.623  11.526  0.0676 -0.1147 -0.1130
54105W        W97096  10.415  16.681   4.655  0.2135  0.0324  0.2119
54106W        W97097   1.331   8.775  25.498  0.1542  0.2070  0.2316
54107W        W97098  11.361  32.462  17.008 -0.1312  0.1920 -0.0743
54108W        W97099  23.586  23.913   9.268  0.0785 -0.1063  0.0047
54109W        W97100  28.051  14.705  17.695 -0.1408 -0.1484 -0.0205
54110W        W97101  31.012  10.271  19.688  0.4379  0.4282 -0.1375
54111W        W97102  28.928  27.255  17.177 -0.1809  0.1355 -0.3427
54112W        W97103   7.444  20.034   0.959  0.0846  0.2538 -0.2282
54113W        W97104   3.093  17.186   3.342 -0.1682 -0.1275 -0.1489
54114W        W97105  33.055  15.672  27.656  0.0989  0.3863  0.0982
54115W        W97106  14.141   0.630   5.157  0.0158  0.1825 -0.1174
54116W        W97107  24.952  33.329   2.570 -0.3368 -0.0102  0.1160
54117W        W97108  34.343   7.370  27.065  0.4012 -0.2976 -0.1092
54118W        W97109  18.502  12.351  22.740  0.0794 -0.0949  0.2328
54119W        W97110  33.849  30.301   8.820  0.3537 -0.2182  0.1920
54120W        W97111  14.053  20.204  26.701 -0.0489 -0.1995  0.3286
54121W        W97112  11.743  13.988   6.973  0.0499 -0.0596 -0.3474
54122W        W97113  19.871  14.194  24.365  0.1928  0.0243  0.0269
54123W        W97114   3.190  16.959   7.856  0.1832  0.0236  0.1395
54124W        W97115  23.330   8.509  18.714 -0.1435 -0.3536  0.0320
54125W        W97116  23.712  18.406   2.013 -0.0136  0.3042 -0.2848
54126W        W97117   7.861  29.817   3.720  0.0683 -0.1716  0.2282
54127W        W97118   2.165  15.171  29.140 -0.0863  0.2220 -0.3051
54128W        W97119  29.212  28.178  23.488  0.1221 -0.2463  0.1689
54129W        W97120   9.735  25.127   0.400 -0.0391  0.1058 -0.1232
54130W        W97121   1.140   0.431  15.307 -0.0520  0.0138 -0.0495
54131W        W97122   2.184  33.714  26.890 -0.2249  0.1482  0.1033
54132W        W97123  13.923  26.787   1.969  0.0163 -0.0969  0.0239
54133W        W97124  34.795  23.141   4.251 -0.1445 -0.3354  0.0022
54134W        W97125  30.094  11.698   1.879  0.0190  0.1218  0.0322
54135W        W97126   2.636  17.200   9.488  0.0817  0.0761 -0.4605
54136W        W97127  12.288   9.910  21.156  0.0539  0.3748  0.0617
54137W        W97128  13.954   6.197   8.645  0.0963 -0.4537 -0.0237
54138W        W97129  32.108  33.690   4.278  0.0407  0.2619  0.0451
54139W        W97130  26.933  16.624   5.779  0.0117  0.0715 -0.0384
54140W        W97131   0.842  20.137   2.640  0.4041  0.2762 -0.0887
54141W        W97132  20.085  25.101  27.062 -0.3007 -0.1640  0.1428
54142W        W97133  13.574  15.414  19.446 -0.2344 -0.1919  0.3406
54143W        W97134  31.528  14.965  25.622  0.1632 -0.0715  0.0191
54144W        W97135  24.039   4.897  24.832  0.3360  0.1353  0.3409
54145W        W97136  18.598  26.637  17.669 -0.1327  0.3911 -0.0250
54146W        W97137  25.841  25.921  23.998  0.1068  0.1067  0.5687
54147W        W97138  33.858  15.678  10.167  0.3026  0.1339  0.0505
54148W        W97139   0.054  16.863   6.918  0.1972 -0.0435  0.0949
54149W        W97140   5.825   4.752  22.377 -0.2255 -0.0289  0.1186
54150W        W97141  32.744  10.320   1.231  0.0120 -0.1218  0.0949
54151W        W97142  32.920  18.424   8.656  0.2945 -0.0520  0.0631
54152W        W97143  26.199  22.840  20.787  0.0723  0.0263  0.1317
54153W        W97144  30.933   7.255   0.978 -0.4359 -0.2195 -0.2510
54154W        W97145   7.877  20.460  27.754 -0.2232  0.0834 -0.1507
54155W        W97146  25.228  23.945  27.660  0.0522  0.1757 -0.2144
54156W        W97147  22.872   3.078  15.218 -0.2065 -0.2263  0.0014
54157W        W97148   1.914   5.478   2.467  0.4625 -0.0306 -0.3233
54158W        W97149  19.450  10.416   8.161 -0.0101 -0.0872  0.4346
54159W        W97150  20.807  31.872  18.426 -0.1576 -0.0304  0.2702
54160W        W97151  28.889   8.560  26.914 -0.2107  0.2305  0.1339
54161W        W97152  30.527  32.323  24.101  0.1657  0.1791  0.2980
54162W        W97153   6.427  18.931   5.395 -0.1241  0.1309  0.3959
54163W        W97154  19.604   0.310  16.227  0.0573 -0.1281 -0.0093
54164W        W97155   2.845  31.632   4.667  0.1425  0.1245 -0.1588
54165W        W97156  34.283  26.953  24.743  0.2030 -0.0941  0.0192
54166W        W97157   5.894  27.515   1.817 -0.1600 -0.0241 -0.1437
54167W        W97158  30.940  16.706   9.148  0.0376  0.1606 -0.0966
54168W        W97159  10.586  16.406   9.841 -0.2635  0.1401  0.0462
54169W        W97160   2.507  27.704   9.395 -0.0767  0.0293  0.1387
54170W        W97161  31.112  25.807   3.820 -0.0307  0.1761 -0.1121
54171W        W97162  20.105  21.119  21.421  0.0840  0.1429 -0.1473
54172W        W97163  18.763   0.176  21.186  0.1234 -0.3903 -0.3321
54173W        W97164  14.536  33.760  23.635  0.1018  0.1935 -0.0275
54174W        W97165  10.031  18.250  26.636 -0.1195 -0.2727 -0.1400
54175W        W97166  22.412  10.364   2.910 -0.0288  0.1282 -0.0301
54176W        W97167   5.028  14.209  26.134  0.1476  0.0677  0.1475
54177W        W97168   9.653  21.631   5.336  0.1813 -0.2438  0.1488
54178W        W97169  30.768  18.516   4.696  0.3243  0.0270 -0.0579
54179W        W97170   1.253   8.293   4.617  0.4699 -0.1126 -0.1612
54180W        W97171   1.815   2.061   7.202 -0.2637 -0.2120  0.1761
54181W        W97172   5.064  23.862  26.058  0.1051  0.0997  0.0283
54182W        W97173   3.784   5.173   8.240 -0.3433  0.1001 -0.3454
54183W        W97174  32.470   3.401   8.469  0.0519  0.1864 -0.1470
54184W        W97175  26.633  13.015   3.801  0.1985  0.2334 -0.2018
54185W        W97176   4.767   6.374   6.658  0.1641  0.0086 -0.0607
54186W        W97177  33.745   3.017   1.329  0.2505  0.0499  0.1615
54187W        W97178   2.967  15.737   8.718 -0.0297 -0.0300  0.0168
54188W        W97179  29.677  18.511   0.348  0.0964 -0.0005  0.0275
54189W        W97180  31.497  16.979   1.153  0.3423 -0.1530  0.1426
54190W        W97181  22.600   0.438  16.092  0.0914 -0.3228 -0.0137
54191W        W97182  34.420   9.879  20.445 -0.1327  0.1880  0.1223
54192W        W97183   6.444  17.179   8.237 -0.1930  0.1706  0.0841
54193W        W97184  23.764  22.062   8.529  0.0751 -0.1695 -0.2476
54194W        W97185   2.378  24.859  28.755  0.1389 -0.3325  0.4571
54195W        W97186   3.439   0.548   7.935 -0.0815 -0.1793 -0.2029
54196W        W97187  29.803  14.869   2.304  0.0496  0.2315  0.0419
54197W        W97188  13.781  23.469   5.643 -0.2504  0.0145  0.2391
54198W        W97189  19.866  18.657  25.799 -0.0099 -0.0733 -0.1197
54199W        W97190  27.521  16.647   5.785  0.1319  0.2047  0.2151
54200W        W97191  30.560  14.896   7.523 -0.1013 -0.1274 -0.0552
54201W        W97192   0.322  20.394   3.281  0.2191  0.4511 -0.0463
54202W        W97193  30.871  21.281   6.764  0.4538 -0.0242  0.3958
54203W        W97194   3.754   8.048   8.957 -0.1445  0.2019 -0.0401
54204W        W97195  26.654  28.105   1.105  0.0317  0.3385 -0.3629
54205W        W97196  24.760  22.644   6.027  0.1492 -0.0392 -0.3195
54206W        W97197  33.551  32.387   6.106 -0.1713  0.1203  0.1519
54207W        W97198   4.737  19.284   8.599  0.1204  0.2456  0.2638
54208W        W97199  26.110   5.771   8.851 -0.0967  0.2220 -0.1771
54209W        W97200   0.616  27.327  13.346  0.1883  0.0176 -0.1736
54210W        W97201   9.096  27.305  24.946  0.1421 -0.1845  0.1214
54211W        W97202   1.133  24.209   8.991 -0.0615  0.1814  0.0505
54212W        W97203   2.231   3.319   9.016 -0.1175 -0.1818  0.0109
54213W        W97204   7.995  30.213  22.295  0.4325 -0.2030  0.2965
54214W        W97205  12.257  15.788   7.749 -0.3697 -0.1149  0.0674
54215W        W97206   8.653   1.035   7.103  0.0863  0.1588  0.0200
54216W        W97207  34.543  21.678   0.261  0.2031  0.0543  0.1127
54217W        W97208  29.038  15.672  10.429 -0.1888  0.1700  0.3458
54218W        W97209  31.746  20.115   3.323 -0.0873  0.0811  0.0901
54219W        W97210  28.933  13.914   1.800  0.0242 -0.0383  0.2194
54220W        W97211  22.405  22.445  27.869 -0.0190 -0.0209 -0.2668
54221W        W97212   1.511  24.631   0.580 -0.1153 -0.0721 -0.4967
54222W        W97213  22.388  23.115   7.866 -0.1122 -0.1237 -0.1707
54223W        W97214  10.498  14.293  14.883  0.3549  0.2563 -0.1544
54224W        W97215  11.797  24.202  26.156  0.4398  0.1395  0.0804
54225W        W97216  28.751  12.680   5.269 -0.0398 -0.0168  0.2139
54226W        W97217   4.484  18.820   2.104  0.2153  0.0064 -0.1078
54227W        W97218   4.055  13.262   1.585  0.0450 -0.0807 -0.0596
54228W        W97219  29.689   7.892   7.885 -0.1304  0.1479 -0.2734
54229W        W97220   3.016  12.454   9.383  0.1446 -0.0628 -0.3437
54230W        W97221  14.162  18.110   4.578  0.1329  0.0227  0.2408
54231W        W97222   3.001  29.818   9.477  0.1134 -0.0636  0.2304
54232W        W97223  31.793  16.865  24.741 -0.4315  0.2395 -0.0066
54233W        W97224  31.241  23.153  27.511  0.3341 -0.3868 -0.1720
54234W        W97225   4.423  19.049  11.411  0.3288 -0.0016  0.0632
54235W        W97226   9.230  20.682  27.696 -0.2181  0.0249 -0.0231
54236W        W97227  14.132  22.338  18.896  0.0918  0.0096  0.2519
54237W        W97228  23.778  28.152   5.905 -0.4125 -0.1164  0.2286
54238W        W97229   5.603   9.788   5.993  0.3080 -0.0922  0.0720
54239W        W97230  17.129  12.418  20.844 -0.0985 -0.0973 -0.0390
54240W        W97231  18.188  29.552  24.893 -0.1120  0.2957  0.2890
54241W        W97232   6.736  17.886   3.292  0.3280 -0.1862  0.1017
54242W        W97233  31.880  20.254  24.522  0.3518  0.1004  0.2152
54243W        W97234   1.054  13.604   8.839  0.0029 -0.2400  0.0068
54244W        W97235   0.439  14.780   4.259 -0.2845  0.1295  0.0042
54245W        W97236  15.831  10.092  21.804  0.1187  0.3642  0.1181
54246W        W97237  31.639  17.993   5.065 -0.1529  0.2194  0.1709
54247W        W97238  31.388  32.721   2.625  0.1920  0.0889  0.0490
54248W        W97239  33.317  20.583  24.149  0.0622  0.1487 -0.0727
54249W        W97240   7.721  12.981   7.460 -0.1863  0.0449  0.0094
54250W        W97241   0.628   5.165  10.425  0.0616  0.1406  0.1367
54251W        W97242   0.295  21.455   6.515  0.1742 -0.0451 -0.1089
54252W        W97243  22.221  12.035   5.148  0.0015  0.1636  0.0629
54253W        W97244  21.100  24.456  13.804 -0.1389 -0.1852 -0.1863
54254W        W97245   2.301   6.889   4.213  0.2081 -0.0078  0.0848
54255W        W97246  33.983  31.910   3.192 -0.0741 -0.1342  0.0522
54256W        W97247  13.949  23.344   7.234  0.4954  0.1397  0.3459
54257W        W97248  25.737  19.426   1.727 -0.2043 -0.2817 -0.0402
54258W        W97249  24.185  22.367   4.141  0.0825 -0.1010 -0.1873
54259W        W97250  11.103  25.958   1.817  0.3922 -0.0160 -0.0048
54260W        W97251   1.278  25.534  25.752 -0.0955 -0.0839 -0.0357
54261W        W97252  27.808   9.743   6.360 -0.1308  0.1930  0.0532
54262W        W97253  27.072  25.510  18.223 -0.0789 -0.1190  0.2565
54263W        W97254  29.792  10.715   9.481 -0.0538 -0.0574  0.0855
54264W        W97255  27.651  25.533  22.887  0.1919 -0.1215  0.0430
54265W        W97256   1.693  18.908   7.160  0.0492  0.0428 -0.1181
54266W        W97257   2.814  25.122  25.010 -0.1445  0.1861 -0.3081
54267W        W97258  16.545   7.775  22.841 -0.3343 -0.1595 -0.2550
54268W        W97259  33.737  20.492  28.932 -0.1507 -0.0537  0.0630
54269W        W97260  19.344  20.409   8.545 -0.1079 -0.2587 -0.1667
54270W        W97261  10.936  26.033   9.696 -0.2102 -0.2911  0.0791
54271W        W97262  15.589  13.617   8.793 -0.1009  0.0913  0.1097
54272W        W97263  31.253  14.859   8.724  0.0896 -0.1987 -0.0456
54273W        W97264   6.354  19.613   3.563  0.0045 -0.1749  0.3775
54274W        W97265  12.372  25.840   6.887 -0.1461 -0.2030  0.1500
54275W        W97266   0.880   4.434   7.096 -0.1902  0.1708 -0.2739
54276W        W97267  33.947  31.449   5.533 -0.0757  0.1871  0.2416
54277W        W97268   1.004   9.654  27.051 -0.0055 -0.2401 -0.0069
54278W        W97269  27.479  30.524  24.622 -0.4856 -0.3506  0.1531
54279W        W97270  32.308  10.131  10.398 -0.1295 -0.0668  0.0599
54280W        W97271  24.540   6.127   7.855  0.1316  0.1815  0.0810
54281W        W97272  30.099  13.695  22.666 -0.0861  0.0733  0.0323
54282W        W97273  33.027  20.062  25.854 -0.3092  0.1048  0.2397
54283W        W97274   8.387  15.764   6.773  0.1855  0.2390  0.0099
54284W        W97275  30.743  15.065   8.162  0.0109  0.2075  0.0120
54285W        W97276  22.140   4.946  28.315  0.1295 -0.5587 -0.0107
54286W        W97277   2.560  21.791   5.546 -0.0712 -0.2018 -0.2295
54287W        W97278  31.792  18.206   2.496  0.0138 -0.1554  0.3032
54288W        W97279   1.643  24.712  24.547  0.1650  0.3592  0.0569
54289W        W97280   3.893  20.552   8.539 -0.3593 -0.0742 -0.0312
54290W        W97281   5.440  28.434   3.570  0.0983  0.2664 -0.1272
54291W        W97282   9.924  19.934   4.958 -0.2309 -0.2501  0.0356
54292W        W97283  25.319  26.397   4.332 -0.0693  0.2106  0.3392
54293W        W97284  18.932  13.497   6.656  0.0489  0.0647  0.2075
54294W        W97285  26.062  12.705   6.962  0.0544 -0.0106  0.0382
54295W        W97286  32.617   7.804   7.248  0.0045 -0.0692  0.0142
54296W        W97287  26.303  23.528   6.647 -0.0324 -0.0014  0.2895
54297W        W97288  23.593  15.271  16.304 -0.1412  0.2520  0.0359
54298W        W97289  28.674  19.378   8.828  0.0209 -0.1585  0.1310
54299W        W97290  13.632  13.218   5.578 -0.1350 -0.0068  0.0331
54300W        W97291   2.560   4.434   1.756  0.4042 -0.0323  0.2671
54301W        W97292   7.554  32.208  24.776  0.0915 -0.0921 -0.1985
54302W        W97293   1.294  11.572  22.014  0.0282 -0.2692  0.0164
54303W        W97294  12.210  25.169  28.295 -0.1293  0.0083 -0.3200
54304W        W97295   0.009  19.797  28.275  0.0869  0.2851 -0.0188
54305W        W97296  19.960   7.152   0.507  0.0770  0.1078 -0.2902
54306W        W97297  30.613  17.247   3.256 -0.3133 -0.1767 -0.0868
54307W        W97298   2.710  32.860  17.602 -0.1322  0.4047  0.0788
54308W        W97299  26.130   3.925   1.825 -0.1123  0.0376 -0.2623
54309W        W97300   1.443  12.427  10.150 -0.1870 -0.0665 -0.0806
54310W        W97301   7.880  12.558   5.709  0.1546  0.0928  0.1128
54311W        W97302  27.259  22.564   5.441  0.1493 -0.1717  0.0794
54312W        W97303   6.099  11.407  11.475 -0.0984  0.3783 -0.1506
54313W        W97304  26.100  26.467   8.413 -0.1671 -0.1911 -0.3741
54314W        W97305  26.586   5.585   9.126  0.0284 -0.2214 -0.2389
54315W        W97306  14.509  18.709   3.437 -0.0149 -0.3118 -0.0491
54316W        W97307  24.085  11.097  16.427  0.0431 -0.2315  0.0110
54317W        W97308  21.676  22.295   8.931  0.0229  0.1641 -0.1109
54318W        W97309   6.467  25.769   1.513  0.1869 -0.1197 -0.1723
54319W        W97310  28.318  26.126  26.745 -0.2862 -0.1632 -0.3541
54320W        W97311   8.336  13.586   8.003  0.1336 -0.0647 -0.2194
54321W        W97312  32.366  11.203   1.759  0.3077 -0.1725 -0.0602
54322W        W97313  11.907  20.497  28.826  0.2508  0.0875  0.3634
54323W        W97314   8.005  27.647   1.926 -0.0655 -0.0604  0.2070
54324W        W97315   6.515  20.498  27.680  0.1352  0.2249 -0.0672
54325W        W97316   7.088  10.565   6.127 -0.2307 -0.2413 -0.0026
54326W        W97317  29.450  34.713   3.822  0.0406 -0.1112 -0.1282
54327W        W97318  19.704  25.941  28.599 -0.0843 -0.1791 -0.2841
54328W        W97319  16.451  23.655  27.547 -0.3133  0.0835  0.2873
54329W        W97320  15.943  24.851  23.412 -0.1010  0.1806  0.0473
54330W        W97321  27.791  18.583  27.028  0.0397 -0.2055 -0.1081
54331W        W97322  26.757  19.378  20.697 -0.2737  0.2084  0.1472
54332W        W97323  17.782  16.435  24.086 -0.0479 -0.0049 -0.0067
54333W        W97324   3.266  21.093   5.038  0.0317  0.0204  0.3763
54334W        W97325  33.054  23.690  28.998  0.1571 -0.0721  0.1338
54335W        W97326  29.406  12.375   2.296 -0.1491  0.1251  0.2251
54336W        W97327  15.857  11.310  10.319  0.0674 -0.1655 -0.0638
54337W        W97328  25.050  23.387   2.793 -0.2720  0.0887  0.3731
54338W        W97329   6.320  24.171   7.086  0.0795 -0.0072 -0.0394
54339W        W97330  15.043  22.415   9.207  0.0478  0.2718 -0.0152
54340W        W97331   2.584  19.653  29.072 -0.0995 -0.2580 -0.2387
54341W        W97332   5.497  19.321   5.404 -0.1875  0.0628  0.0104
54342W        W97333  16.643  12.004   4.783 -0.3442  0.3197 -0.2120
54343W        W97334  24.296  33.311   5.781  0.0648 -0.3386  0.1571
54344W        W97335  19.322  23.487   5.925 -0.0222 -0.0421  0.0603
54345W        W97336  28.112   9.918  24.533  0.1599  0.0016  0.1892
54346W        W97337  23.953  10.852   3.790  0.0565 -0.1225  0.0510
54347W        W97338   0.815  18.517  20.358  0.4119 -0.5368  0.1266
54348W        W97339   7.260  21.597   1.018  0.1036  0.2145  0.3260
54349W        W97340  30.501  27.021  26.313  0.4553  0.1407  0.1321
54350W        W97341  33.606   2.129   6.884  0.0958  0.3325  0.0490
54351W        W97342  17.266  23.249  28.885  0.0433  0.1933  0.0509
54352W        W97343   2.906  24.868   8.430  0.1595 -0.3480  0.1006
54353W        W97344  28.901  13.444  24.058 -0.1581 -0.1195 -0.0901
54354W        W97345  22.525  19.397  16.681  0.2252  0.1777 -0.2265
54355W        W97346   0.487  15.137   7.850 -0.2636 -0.2009 -0.0632
54356W        W97347   8.384   8.263   7.134  0.1926 -0.1157 -0.0265
54357W        W97348  32.199  21.411  15.223 -0.4645  0.1307 -0.2149
54358W        W97349  28.731   0.747  28.437 -0.1214 -0.3695  0.1565
54359W        W97350  28.473   6.364   9.290  0.1213 -0.1774  0.3098
54360W        W97351  28.456  22.462  14.396  0.0614 -0.2256  0.2164
54361W        W97352  21.460   3.620   1.304  0.0237  0.2102 -0.0003
54362W        W97353   9.059  12.913   9.552  0.0587  0.1737 -0.0719
54363W        W97354  21.659  28.377   6.108 -0.0694 -0.0115 -0.2195
54364W        W97355   1.952  10.367  24.882 -0.1387 -0.0880 -0.3359
54365W        W97356  32.737  13.321  26.011  0.1328 -0.0810 -0.0718
54366W        W97357   1.461  24.337  26.599 -0.0747 -0.1766  0.4476
54367W        W97358  29.958   3.447   0.128 -0.5400 -0.1341 -0.2631
54368W        W97359  32.621  29.833   5.248  0.0321  0.0006  0.0797
54369W        W97360   1.396  21.726   9.504 -0.0232 -0.0676 -0.1517
54370W        W97361  33.251  31.405   9.455 -0.2082  0.1793  0.1109
54371W        W97362  20.681   4.912  17.217  0.2207  0.0866  0.2387
54372W        W97363  32.943   9.738   5.571 -0.5674 -0.1549  0.2222
54373W        W97364   3.979  19.139   1.970 -0.2924 -0.3071  0.2067
54374W        W97365  31.080   6.195   3.172  0.1372 -0.3368 -0.1351
54375W        W97366   2.701  31.552   2.069 -0.0821  0.0235 -0.1533
54376W        W97367   1.380   2.464  28.159 -0.1733 -0.3003  0.0728
54377W        W97368  27.329  30.822   4.841 -0.1959 -0.3371 -0.1123
54378W        W97369  15.746   4.811  25.135  0.2591  0.0254 -0.0177
54379W        W97370  31.162   7.318   4.842 -0.1798 -0.0839 -0.2600
54380W        W97371   4.665  19.190  28.631 -0.1142 -0.0691  0.2095
54381W        W97372  25.132  18.035  27.736  0.4378 -0.0476 -0.1061
54382W        W97373   3.724   3.253   1.124 -0.1142  0.0604 -0.0571
54383W        W97374  20.096   7.906   6.664 -0.0120 -0.0546 -0.0855
54384W        W97375   2.178   1.503   9.254 -0.0532  0.0543 -0.2439
54385W        W97376  27.148  26.967   6.767  0.0561 -0.4589 -0.0842
54386W        W97377   0.718  11.892  11.348 -0.0308 -0.2274  0.1553
54387W        W97378  20.321  14.579   2.933 -0.3432  0.1064 -0.3714
54388W        W97379  29.535  22.969   8.054  0.2229  0.2148 -0.2078
54389W        W97380  26.281  31.748   8.051  0.1773  0.0110 -0.2115
54390W        W97381   7.405   7.906   4.370  0.2114 -0.1614  0.0923
54391W        W97382  19.880  16.477  16.524 -0.0373  0.0888  0.2296
54392W        W97383   3.390  22.983   7.126  0.2010  0.1273  0.4066
54393W        W97384  33.183  31.039   5.058  0.0562  0.3099 -0.1802
54394W        W97385  29.409  16.085   2.788 -0.2170  0.1926  0.0639
54395W        W97386   2.593  27.041   0.549  0.1273 -0.0627 -0.0625
54396W        W97387  31.987  18.043   7.340  0.0745  0.1944  0.1243
54397W        W97388   5.927  13.759  28.122  0.0068 -0.0450 -0.1698
54398W        W97389  18.585  31.836   8.893 -0.2035 -0.2067  0.0405
54399W        W97390  30.611   9.582   9.114  0.1799  0.0453  0.0185
54400W        W97391  30.720  13.011   9.348  0.0029 -0.0447  0.2735
54401W        W97392  26.597  11.487   0.544  0.4935  0.1321  0.1008
54402W        W97393  30.652  11.418   1.930 -0.2711 -0.2665 -0.1294
54403W        W97394  33.514  20.182   0.059  0.2720 -0.2291  0.2420
54404W        W97395  33.732  16.338   1.602  0.0737  0.0646 -0.1747
54405W        W97396   1.983  10.608  24.409  0.2409 -0.0339  0.3109
54406W        W97397  18.240  26.192   3.361 -0.0007  0.0253 -0.4044
54407W        W97398  33.309  16.709   2.596  0.2079 -0.2679  0.3408
54408W        W97399  22.225  25.481  27.714  0.1441  0.0267  0.0624
54409W        W97400   1.313  17.164   5.545  0.2183 -0.1029 -0.0295
54410W        W97401   2.546  21.159   1.462  0.0402  0.0753  0.0307
54411W        W97402   0.478  10.481   5.358 -0.0526 -0.0570 -0.2235
54412W        W97403  34.576  11.662   9.873  0.1262 -0.0318  0.1540
54413W        W97404  11.819  13.933   4.115 -0.1676  0.1256  0.0616
54414W        W97405  27.952  27.252   7.245  0.2984 -0.2336  0.1074
54415W        W97406  33.352  24.243  25.602  0.0854  0.2803  0.1727
54416W        W97407   3.578  18.342  10.845  0.0359  0.0704 -0.2258
54417W        W97408  22.187  19.385   0.410 -0.2830 -0.0649  0.1359
54418W        W97409   8.772  24.230   0.186  0.4214  0.0164 -0.0752
54419W        W97410   5.048  28.798   3.653  0.5259 -0.0538 -0.0915
54420W        W97411   4.542  18.065   7.404 -0.1905 -0.2534  0.0527
54421W        W97412  16.769  22.471  28.703 -0.1208  0.0213 -0.2056
54422W        W97413   7.438  15.310   8.076 -0.3017 -0.0054  0.1208
54423W        W97414  26.491  21.460   2.546  0.1869 -0.0072 -0.0514
54424W        W97415  27.962  19.105   9.827  0.1541  0.6507 -0.3393
54425W        W97416  22.345   6.229   7.248  0.1629  0.4058 -0.0023
54426W        W97417  18.099  24.520  16.476  0.2718  0.0005 -0.1450
54427W        W97418   6.125  22.993   5.246  0.2453 -0.1446 -0.3804
54428W        W97419  34.562  17.025   8.235  0.3518 -0.1970 -0.3304
54429W        W97420   3.858  17.001  10.954 -0.3897 -0.1675  0.4609
54430W        W97421  26.546   9.086   2.381  0.4415 -0.0711  0.0661
54431W        W97422   5.195  14.088   9.397  0.2680 -0.2043  0.2275
54432W        W97423  34.397  29.237   6.298  0.0584 -0.5302 -0.1628
54433W        W97424   8.847  33.704   8.094 -0.0541 -0.3387  0.1691
54434W        W97425  16.064  21.121   2.697 -0.0204  0.1445  0.0379
54435W        W97426   3.527  23.983  23.876  0.0247  0.0834 -0.0743
54436W        W97427  20.182  17.603  28.264  0.0262 -0.1861  0.4063
54437W        W97428  26.089  27.397   7.366 -0.0181  0.1080 -0.2256
54438W        W97429  23.182  13.639   0.899 -0.2309  0.0937 -0.2332
54439W        W97430   4.760  19.103   9.635  0.0366 -0.1033 -0.0075
54440W        W97431  25.814  18.840   7.351 -0.4493  0.0724  0.1227
54441W        W97432  22.768  24.663   4.264 -0.0581  0.1338 -0.0228
54442W        W97433   3.317  22.564  10.104 -0.0716 -0.0035  0.0643
54443W        W97434   0.628  26.929   9.367  0.0578  0.0626  0.0261
54444W        W97435  12.587  12.666  22.623  0.1755 -0.0582  0.2706
54445W        W97436   1.717  10.090   2.347 -0.0168  0.2060 -0.3091
54446W        W97437  28.086  22.847   7.616 -0.3898  0.2252 -0.2379
54447W        W97438  34.289  21.868   6.097  0.1629 -0.0472  0.1972
54448W        W97439   7.114  18.582   8.851  0.0157 -0.1067 -0.1596
54449W        W97440  26.786   3.754   8.164 -0.2908 -0.3219 -0.3746
54450W        W97441   3.615   5.169   7.341 -0.0668 -0.2978  0.1052
54451W        W97442   2.705  13.992  10.470  0.0637 -0.3512 -0.0036
54452W        W97443  25.234  31.218   1.572  0.0791 -0.1928 -0.0297
54453W        W97444   3.521  21.210  10.204 -0.1950 -0.0568 -0.0462
54454W        W97445  18.928  30.146   2.380  0.3266 -0.1403  0.2905
54455W        W97446   4.212  16.330  11.194 -0.0337  0.0487  0.0054
54456W        W97447   3.972   3.163  27.530 -0.1506 -0.0422 -0.1423
54457W        W97448   8.134  19.738  27.142 -0.1510 -0.1024  0.0838
54458W        W97449  24.454  29.752   3.728 -0.0667  0.0119 -0.1664
54459W        W97450  28.861  11.918  29.082 -0.0808  0.2602 -0.0381
54460W        W97451  33.595   1.613  27.483  0.0621  0.2828 -0.1144
54461W        W97452   1.938   2.376   5.352 -0.1581  0.0208  0.2672
54462W        W97453  31.663  28.300   4.271  0.1154  0.1261  0.0299
54463W        W97454  29.018  16.159  19.648 -0.2594  0.0803 -0.0175
54464W        W97455  32.606  16.797   5.806  0.1971 -0.2242 -0.4127
54465W        W97456  19.093  14.068   1.980 -0.0035  0.1920  0.0322
54466W        W97457  31.498  21.668   8.291 -0.1540 -0.4971  0.4007
54467W        W97458   5.277  22.510  25.987 -0.2091  0.1673  0.1588
54468W        W97459   7.801  11.032  26.023  0.2528 -0.0240  0.0397
54469W        W97460  32.265  21.197   0.145  0.0602  0.3232  0.0095
54470W        W97461  27.079  20.369   1.398  0.0034  0.3796 -0.1907
54471W        W97462   0.247  18.161  28.829 -0.0807 -0.3099 -0.0242
54472W        W97463  30.205  16.006  10.819 -0.3684  0.2862  0.0742
54473W        W97464  28.886   5.342  23.526 -0.2883  0.0147  0.1914
54474W        W97465   7.436  27.603   5.543  0.0306  0.1120  0.0200
54475W        W97466   9.340  17.727   2.457  0.2764 -0.1116  0.0987
54476W        W97467   2.522  19.823   3.394  0.0349 -0.0226  0.1199
54477W        W97468   0.331  14.521   6.382 -0.1445  0.3702  0.1036
54478W        W97469  31.323  19.008  10.684 -0.0422  0.3033  0.0479
54479W        W97470  29.426  12.353   4.324  0.0075  0.2861 -0.0853
54480W        W97471  10.804  13.317   5.174 -0.0568 -0.0300  0.1451
54481W        W97472   4.166  12.285  11.167  0.1455  0.2710 -0.2384
54482W        W97473  23.855   6.738   6.444 -0.2034  0.1142  0.0106
54483W        W97474   9.300  28.096   2.460 -0.2470  0.2314  0.3490
54484W        W97475   6.373  17.535   1.839 -0.0731  0.2358  0.0718
54485W        W97476   1.978  26.097   4.206 -0.2071  0.1762 -0.2972
54486W        W97477  12.909  23.588   9.448  0.0345  0.4320 -0.0179
54487W        W97478   1.982  24.993  10.392  0.1212 -0.0893 -0.2381
54488W        W97479  28.559  17.285   3.376  0.0202  0.1306 -0.1021
54489W        W97480   7.841  30.686  26.726 -0.1270  0.0533 -0.0170
54490W        W97481  20.686  12.518   8.172 -0.0017 -0.1904  0.3245
54491W        W97482  31.797  18.600   6.376 -0.0119 -0.4240  0.0453
54492W        W97483  34.766  20.778   4.143 -0.1285 -0.1343  0.2786
54493W        W97484   2.042  29.513  27.391 -0.0856 -0.0333 -0.0035
54494W        W97485   6.095  34.294   0.644  0.2057  0.2572  0.0291
54495W        W97486   3.196   2.199  15.363  0.0974 -0.0932  0.4332
54496W        W97487  19.050  21.708   8.132  0.0395 -0.1969 -0.5042
54497W        W97488  26.474   3.820   4.361 -0.1698 -0.1645  0.0426
54498W        W97489  32.845  23.212   8.095 -0.1514 -0.1972  0.1300
54499W        W97490  16.796  22.067  25.149 -0.1328 -0.1309 -0.1751
54500W        W97491   2.568  16.599   8.924 -0.0562  0.1176 -0.0841
54501W        W97492  34.258  10.009  22.308  0.1622 -0.3032  0.4035
54502W        W97493  29.231  24.289   3.144  0.0662 -0.2008  0.2879
54503W        W97494  33.980  25.002  25.794  0.1525 -0.0011 -0.1148
54504W        W97495  29.406  25.073   7.029 -0.1794  0.0668 -0.0523
54505W        W97496  32.298  20.802   3.518 -0.2232  0.2007  0.0258
54506W        W97497  22.547   3.942   9.171  0.1168  0.3628  0.0357
54507W        W97498   1.073   1.761   6.198  0.2178  0.0832 -0.0022
54508W        W97499  30.064  19.440   4.058 -0.0499 -0.1933 -0.4695
54509W        W97500  11.097  26.007   7.090  0.2171 -0.0952 -0.1553
54510W        W97501  19.365  19.249  22.386 -0.0931 -0.0206  0.1017
54511W        W97502   7.978  15.324   4.773  0.2439  0.1267 -0.2785
54512W        W97503  31.683  27.236   1.785 -0.0525  0.1345  0.2766
54513W        W97504  11.290   9.929   8.158  0.0676 -0.4105  0.1131
54514W        W97505   8.894  17.489   1.275 -0.0310 -0.4355 -0.0431
54515W        W97506  26.146  21.346   4.409 -0.1386 -0.2910  0.1837
54516W        W97507  31.701  16.381   8.884  0.0009 -0.3073 -0.2810
54517W        W97508  27.976  20.006   2.894 -0.0428 -0.0606 -0.1802
54518W        W97509  17.670  24.354   5.356  0.0852 -0.1838 -0.0573
54519W        W97510   5.268  13.587   9.870  0.0775 -0.0238 -0.2138
54520W        W97511  13.044  17.004   1.137 -0.3046 -0.0287 -0.2574
54521W        W97512  20.799  23.959  27.023 -0.1752 -0.1911 -0.1218
54522W        W97513   7.494  14.840  25.244 -0.1974  0.1974 -0.3334
54523W        W97514   5.187  20.074   6.162 -0.1317 -0.0571  0.1052
54524W        W97515  30.468  19.478   7.169  0.0024 -0.1029  0.0593
54525W        W97516   6.735  10.379   3.611  0.0555  0.1075 -0.1706
54526W        W97517  21.836   7.899   8.125  0.3439  0.0528  0.0482
54527W        W97518   3.498  13.841  10.626  0.0975 -0.5142  0.3750
54528W        W97519  11.458  24.036   7.746  0.0591 -0.1548 -0.1408
54529W        W97520  10.430  15.148   8.660  0.1822 -0.1472 -0.0741
54530W        W97521   4.101  23.383  29.028 -0.0650  0.0496 -0.2127
54531W        W97522  31.309  16.128   4.797 -0.0004 -0.1400 -0.2554
54532W        W97523  30.830  23.069   6.770  0.0659 -0.1411  0.1778
54533W        W97524   2.269  15.095   3.395  0.0512 -0.3702  0.0138
54534W        W97525  21.380   1.844   8.237 -0.1832 -0.1754 -0.0581
54535W        W97526  22.223   2.254   4.483 -0.1929 -0.2540  0.1044
54536W        W97527  22.426  21.521  22.249 -0.0841  0.1597 -0.0069
54537W        W97528   4.327  24.538   6.828 -0.0546 -0.1852 -0.0163
54538W        W97529   5.289  14.519  20.266 -0.2542  0.1855 -0.4640
54539W        W97530   8.722  21.229   1.399  0.0811 -0.1807  0.0796
54540W        W97531   5.615   9.967   5.211 -0.2398  0.1888 -0.0174
54541W        W97532  25.426   1.518   7.225  0.1565 -0.1981 -0.2227
54542W        W97533   3.858  13.599  10.370 -0.3065  0.3852 -0.3583
54543W        W97534  13.661  17.832   7.328  0.1695  0.0506  0.0529
54544W        W97535   3.986  28.457   8.303 -0.2243  0.2883 -0.1886
54545W        W97536  26.390  15.950  25.136 -0.1009  0.0662  0.0343
54546W        W97537   4.902  17.087   6.663 -0.1468  0.1067  0.0709
54547W        W97538  24.569  21.441   3.450 -0.2226  0.0914  0.2129
54548W        W97539   4.346  32.653   9.260 -0.2593  0.0515 -0.0334
54549W        W97540   7.346  25.163   7.477  0.1432  0.0084  0.0340
54550W        W97541  18.674  27.075   5.437  0.1258  0.2931 -0.0369
54551W        W97542   1.722  19.844  26.511 -0.1913  0.1848 -0.2646
54552W        W97543  30.721  22.551   6.689 -0.1173  0.3709 -0.0570
54553W        W97544  12.197  26.284  27.829  0.0950 -0.4361  0.0632
54554W        W97545  25.089  23.353  17.028  0.2156 -0.0303  0.0022
54555W        W97546  22.660   0.830   7.429  0.0985 -0.1670  0.1370
54556W        W97547  34.029  20.619  23.574 -0.4448  0.0813  0.1782
54557W        W97548   5.961  11.324   8.327  0.3419  0.0502  0.2771
54558W        W97549  22.079  14.742  24.804  0.0707  0.0846  0.0557
54559W        W97550  33.349  30.227   8.776 -0.0133 -0.2447  0.1126
54560W        W97551   8.988  20.808   2.367  0.0417 -0.1649  0.1589
54561W        W97552   0.172  20.251  23.750 -0.0727 -0.1367  0.0869
54562W        W97553  15.405  20.498   2.869  0.1860 -0.0189  0.0245
54563W        W97554   6.724  11.556  10.804  0.1805 -0.1092 -0.1226
54564W        W97555  28.959  12.908   6.778 -0.3350 -0.1260  0.2256
54565W        W97556  26.294  22.608   8.971  0.0874  0.0127 -0.2424
54566W        W97557   6.545  11.118   2.113 -0.0546  0.3287 -0.0230
54567W        W97558  11.011  21.497   0.838 -0.2465  0.0075 -0.0462
54568W        W97559  24.257  13.877  25.880 -0.0379 -0.1295 -0.1688
54569W        W97560  10.848  13.351   2.607  0.1860 -0.0744  0.0631
54570W        W97561  26.909  31.603   0.953 -0.2481 -0.2350  0.3459
54571W        W97562   1.589  16.689  28.619 -0.1410  0.0816 -0.2036
54572W        W97563  29.845  26.486  29.008  0.0391 -0.3509 -0.2544
54573W        W97564   4.148  24.928  25.282 -0.0936 -0.1569 -0.1294
54574W        W97565  15.582  20.305  28.185  0.2434 -0.0978  0.2319
54575W        W97566   8.517  13.157   6.922  0.2647 -0.2398  0.1778
54576W        W97567   1.726  12.658  11.849  0.0333 -0.1519  0.0147
54577W        W97568   3.083  29.753   8.303 -0.0001 -0.1957  0.5212
54578W        W97569   1.979  28.798   7.412 -0.1550 -0.1570  0.3002
54579W        W97570  24.549  26.990   8.041  0.1009  0.1318  0.2791
54580W        W97571   4.381  16.957   1.613  0.0962 -0.0365  0.3268
54581W        W97572  23.420  10.650  29.108 -0.0676  0.3699 -0.0773
54582W        W97573  21.482  21.422   8.930  0.4738  0.1965 -0.1495
54583W        W97574   6.537  10.746   9.152 -0.3949  0.1069 -0.2166
54584W        W97575  21.563  33.562   9.514 -0.1668  0.0708 -0.0186
54585W        W97576  33.390  29.367   1.125  0.0325 -0.1071  0.0013
54586W        W97577  26.241  17.605   4.336  0.0566  0.4524  0.0624
54587W        W97578  24.378  15.604  15.321  0.5512 -0.2813  0.2869
54588W        W97579  27.003  33.236   5.848  0.0457  0.0244  0.1579
54589W        W97580  24.215  23.133   7.098  0.2628  0.2987 -0.2021
54590W        W97581  19.518   2.327   8.708  0.1811  0.1777 -0.0800
54591W        W97582  28.759   1.103   6.984  0.0823 -0.0131 -0.1942
54592W        W97583   8.417   2.522   6.762  0.0372 -0.3049 -0.1502
54593W        W97584  15.890  20.772  28.300  0.0985 -0.0244  0.1489
54594W        W97585   1.694   1.694  28.728  0.0585 -0.1795 -0.0924
54595W        W97586  14.127  19.918  28.215 -0.1172  0.0169 -0.1795
54596W        W97587  11.078   9.390  24.942 -0.1877  0.1680  0.0500
54597W        W97588  31.624  21.930  16.499  0.0081  0.0542 -0.1896
54598W        W97589   0.836  28.646   1.382  0.3479  0.4018 -0.0863
54599W        W97590   1.616  25.504   9.769  0.3230 -0.1675  0.0375
54600W        W97591   8.689  16.741  10.239 -0.2859 -0.1727  0.0790
54601W        W97592   9.279  23.496   8.235  0.0627 -0.0502  0.1886
54602W        W97593  30.159   1.944  19.253  0.2884 -0.1077 -0.1712
54603W        W97594   1.647  24.002  25.453 -0.0375  0.2038 -0.0789
54604W        W97595  30.620  19.379   3.719 -0.0878 -0.2627 -0.0950
54605W        W97596  17.124  21.860  28.650 -0.0927 -0.2168  0.1622
54606W        W97597  29.323  17.984   7.622  0.0363 -0.1268 -0.0165
54607W        W97598  11.007   9.108   9.252  0.0656  0.0916 -0.0146
54608W        W97599   7.542  30.614  27.684 -0.0209 -0.1811 -0.0575
54609W        W97600   4.951   2.269   8.065 -0.0598 -0.0907 -0.0005
54610W        W97601  11.333  21.744  20.227 -0.3147  0.1055  0.0145
54611W        W97602  26.474  32.985   5.194 -0.0055 -0.0418  0.3490
54612W        W97603  10.510  25.143   8.132  0.0923  0.0843  0.2123
54613W        W97604  28.309   6.204  20.203  0.1760  0.4804 -0.0443
54614W        W97605   7.576  17.329  27.279  0.1177  0.0090 -0.1382
54615W        W97606   2.767  26.775   7.436 -0.2064  0.3008 -0.2426
54616W        W97607  32.621  16.020   3.189  0.0963 -0.3160  0.0877
54617W        W97608  31.202  26.732  14.906  0.0550 -0.0983 -0.0540
54618W        W97609  31.782  33.844  17.186  0.2644  0.0448  0.3842
54619W        W97610  24.720  24.099  13.298 -0.0938  0.0914 -0.1257
54620W        W97611   8.859  21.529   0.884 -0.1520 -0.0689 -0.0755
54621W        W97612   7.733  30.781  18.576 -0.2111 -0.0185 -0.0372
54622W        W97613   7.256  26.095   6.628  0.2588 -0.0867 -0.2087
54623W        W97614  18.962  15.747   0.149 -0.2077  0.1833 -0.0988
54624W        W97615  16.813  28.095  22.420  0.0253  0.2429 -0.0934
54625W        W97616   5.139  33.244  20.513 -0.0032 -0.1150  0.0386
54626W        W97617   1.702   6.085   9.344 -0.2954  0.2130 -0.1797
54627W        W97618  25.564  27.255  17.938 -0.1596  0.0183 -0.0156
54628W        W97619   2.956  17.581  26.755  0.0649  0.2523 -0.2309
54629W        W97620   8.619  15.837   8.348  0.1988 -0.1161  0.3472
54630W        W97621   1.855  27.423  26.500 -0.0095 -0.0825 -0.1702
54631W        W97622   3.559  23.725  14.309  0.1713  0.2812  0.0451
54632W        W97623   1.602   8.887   7.983 -0.0341 -0.1466 -0.3217
54633W        W97624   8.400  32.434   9.705  0.0020  0.0972  0.0483
54634W        W97625  26.162  17.005  28.919 -0.1364 -0.0544  0.1024
54635W        W97626  22.202  26.063  29.100  0.2867 -0.0021 -0.0873
54636W        W97627   9.187  27.299   9.114 -0.3352  0.0227 -0.3894
54637W        W97628  27.977  10.522   0.175 -0.2204 -0.2672 -0.0222
54638W        W97629   1.308  21.259   8.784 -0.1113 -0.0180 -0.1688
54639W        W97630  30.900  17.700   2.584  0.1459  0.1336  0.1353
54640W        W97631  20.908  21.049  26.652 -0.1737  0.2292  0.0928
54641W        W97632  13.932  17.752  24.371  0.1427  0.0509  0.4048
54642W        W97633  25.540  18.464  23.455  0.2413  0.1516  0.1240
54643W        W97634   2.582   6.900  20.693 -0.0123  0.0405  0.1310
54644W        W97635  33.371  33.745   5.816 -0.0031  0.2039  0.1028
54645W        W97636   9.142   1.379   0.774 -0.0680 -0.1165 -0.1715
54646W        W97637   4.380   4.879  24.785 -0.0871  0.1646 -0.0376
54647W        W97638   2.153  24.956   8.781  0.1974 -0.1529 -0.2687
54648W        W97639  32.308  34.283   3.132  0.2350  0.2072  0.1874
54649W        W97640  30.065  26.638   4.614  0.3560 -0.0296  0.3782
54650W        W97641   8.127  26.692   0.952 -0.1915  0.2587  0.4298
54651W        W97642   4.203  13.201  26.780 -0.0122 -0.1605  0.3715
54652W        W97643  32.777  12.913  20.505  0.1517  0.4551  0.2367
54653W        W97644   8.853  15.256  15.493 -0.1534  0.1344  0.1258
54654W        W97645  28.122  24.744  19.537 -0.0892  0.1589  0.0756
54655W        W97646  20.695  21.549   3.950  0.2296  0.1311 -0.1845
54656W        W97647  31.438  24.589  10.105 -0.0951 -0.0869  0.1594
54657W        W97648  16.738  15.371   1.114  0.1122  0.0738 -0.1209
54658W        W97649  15.772  27.275  25.967  0.3865  0.2086  0.2430
54659W        W97650   1.290  14.986  29.147 -0.0065 -0.0462  0.0686
54660W        W97651  18.263  21.497  26.862  0.0455  0.0122  0.3593
54661W        W97652  22.775  17.471  22.978 -0.0717  0.0314 -0.0004
54662W        W97653  28.878  25.032  24.559 -0.0389 -0.0442 -0.2409
54663W        W97654   0.604  24.737  22.998  0.1808 -0.2513 -0.1596
54664W        W97655   2.949  22.486  19.125 -0.1650  0.1833  0.2523
54665W        W97656  13.960  30.724   8.650 -0.2000 -0.1739  0.0887
54666W        W97657   3.166   7.857   7.316  0.0935 -0.2643  0.1758
54667W        W97658  25.700  19.750   6.773 -0.3686 -0.2146  0.1664
54668W        W97659   1.439  20.268   5.879 -0.1797 -0.1753  0.0536
54669W        W97660  28.484  19.129  27.662 -0.4462  0.2977 -0.0181
54670W        W97661   5.658  24.757   7.502  0.1339  0.2742 -0.0427
54671W        W97662  20.767  22.237   8.047 -0.1215  0.2355  0.1344
54672W        W97663  30.145  16.604   0.908 -0.0036 -0.0596  0.0705
54673W        W97664   9.526  25.516   2.302 -0.2602 -0.1316 -0.3134
54674W        W97665  27.742  10.175  18.336  0.1128 -0.0693 -0.1210
54675W        W97666  34.277  13.836   5.533  0.3569  0.2108 -0.1673
54676W        W97667  28.723  23.601   6.507 -0.1697  0.1837 -0.1277
54677W        W97668  12.857  28.672   0.611 -0.2364 -0.1563  0.0581
54678W        W97669  30.617  13.975  22.753 -0.0440  0.1545 -0.2212
54679W        W97670   1.893  25.533   7.989  0.0820 -0.0957  0.1889
54680W        W97671   5.289  27.026  24.751  0.1585 -0.1587 -0.2483
54681W        W97672  18.359   4.783  10.041  0.2709 -0.3121  0.1684
54682W        W97673   1.563  26.693   7.808 -0.1078  0.2106  0.3130
54683W        W97674  34.639   7.937  29.087 -0.0773 -0.0054  0.1030
54684W        W97675   7.196  19.545  17.546  0.2537  0.0226  0.1706
54685W        W97676  28.447  10.506  28.197 -0.2339 -0.1267 -0.1773
54686W        W97677  27.290  25.250   3.547  0.0845 -0.3078 -0.0844
54687W        W97678  28.615  14.052  16.133  0.0057 -0.1104  0.0334
54688W        W97679  30.354  25.913  21.864  0.1221  0.3937  0.3140
54689W        W97680  24.632  23.817   4.815  0.3742 -0.3263  0.1873
54690W        W97681   1.594  32.435   7.285  0.2511 -0.0128 -0.2367
54691W        W97682   5.409  31.038   0.671  0.4203 -0.5322 -0.0177
54692W        W97683   2.374   7.845   4.570 -0.0720 -0.2352 -0.0523
54693W        W97684  25.172  25.666  24.532  0.5333 -0.2423  0.1711
54694W        W97685  32.912  15.868   2.817  0.2113 -0.1492 -0.0550
54695W        W97686  20.211  21.765   1.221  0.3881  0.2020 -0.0570
54696W        W97687  22.801  18.673  24.068 -0.0351 -0.0562 -0.1735
54697W        W97688   5.707  24.837   9.661 -0.3123  0.0209 -0.1981
54698W        W97689  26.951  26.959   9.098 -0.0242  0.2100 -0.1275
54699W        W97690  27.368  25.302   9.093  0.0324  0.1505 -0.2605
54700W        W97691   4.771  25.151  25.699 -0.2575 -0.0207 -0.0332
54701W        W97692  25.657  28.441   2.295 -0.3214 -0.1284 -0.0604
54702W        W97693  34.763   4.272  26.422 -0.1037  0.0061 -0.0296
54703W        W97694   5.604  17.362   2.497 -0.0353  0.1702 -0.0310
54704W        W97695  33.513  23.788   6.918  0.1194  0.0626  0.0493
54705W        W97696   3.572  14.528   1.317  0.1358 -0.0695 -0.1618
54706W        W97697   7.028   5.907   8.581 -0.1303 -0.0721  0.0032
54707W        W97698   3.024  29.156   7.187  0.0195  0.0700  0.1793
54708W        W97699   2.445  34.476   1.920  0.0473  0.0077  0.1549
54709W        W97700   0.250   1.821   2.823  0.1169  0.3632  0.0282
54710W        W97701  12.264  20.919   7.318  0.1015  0.1444  0.0011
54711W        W97702   2.245  23.696   0.108 -0.1109  0.2173  0.0257
54712W        W97703  32.362  33.496  25.733  0.4265  0.2380 -0.0083
54713W        W97704  23.918  12.001  14.594  0.3557  0.4777  0.1393
54714W        W97705   3.306  11.509  21.822  0.1947 -0.0391  0.1216
54715W        W97706   8.836  23.014  23.372  0.3783 -0.0020 -0.1232
54716W        W97707   6.867  23.334   9.229  0.0330  0.0774  0.2130
54717W        W97708   0.337  27.796   0.912  0.2603  0.2187  0.1038
54718W        W97709  15.542  14.739   7.262 -0.2280  0.1717  0.1343
54719W        W97710  32.831  25.732  25.018 -0.0070  0.0983  0.4044
54720W        W97711  26.692  21.780   2.068 -0.1476  0.1939  0.0250
54721W        W97712   6.822  11.119   9.424  0.0907  0.1301 -0.0605
54722W        W97713   4.991   2.773   1.369 -0.0821 -0.4223  0.0138
54723W        W97714  11.854   6.809  28.235 -0.3321 -0.2596  0.1833
54724W        W97715  25.185  29.784   2.965  0.2103  0.0782 -0.1645
54725W        W97716  22.914   6.223   3.009 -0.1405  0.0439 -0.1131
54726W        W97717   4.718  33.299  23.330 -0.0851 -0.5759 -0.1698
54727W        W97718   3.033  32.049  14.566 -0.0262 -0.1945 -0.1769
54728W        W97719   6.020   4.567  20.309  0.2752 -0.3343 -0.0956
54729W        W97720   0.674   0.466  18.429 -0.0220 -0.1156 -0.0599
54730W        W97721  17.126  22.798   2.906 -0.1308  0.0805  0.1328
54731W        W97722   5.105  34.091   5.763 -0.2137  0.1822  0.0738
54732W        W97723   3.824  15.684   2.087 -0.0684 -0.1623  0.0384
54733W        W97724  31.418  29.043  19.826  0.1549 -0.0941  0.4078
54734W        W97725  26.392  25.624   8.717  0.1074  0.0908  0.0877
54735W        W97726  16.635  14.067  21.695  0.1308  0.0114 -0.1202
54736W        W97727  28.697  15.570   2.347  0.0441 -0.0199 -0.0457
54737W        W97728   5.608  15.467  26.953 -0.0458 -0.2355 -0.2398
54738W        W97729  28.670  25.249  22.325  0.1289 -0.2787  0.4113
54739W        W97730   4.718  18.167   3.193 -0.2211  0.0036 -0.0707
54740W        W97731  14.791  20.341  16.562  0.2027  0.0369 -0.0740
54741W        W97732   9.244  25.015   9.385  0.2344  0.1501 -0.0145
54742W        W97733  20.321  21.382   4.575 -0.2048 -0.0829 -0.0895
54743W        W97734  32.576  16.283  24.813 -0.0699 -0.0831  0.1922
54744W        W97735   6.331  22.240  24.047 -0.2301  0.0298  0.0797
54745W        W97736   9.880  10.057  16.867  0.0385  0.5735 -0.1920
54746W        W97737  12.890  19.334  27.151  0.1278  0.4090  0.2755
54747W        W97738  31.003  12.795   6.277 -0.2087 -0.5342 -0.2596
54748W        W97739  22.984  25.893   8.661 -0.2351 -0.1076  0.0795
54749W        W97740  28.396  28.166  25.636 -0.2261 -0.1324 -0.1000
54750W        W97741   3.708   8.144  25.448 -0.1158  0.2525  0.2768
54751W        W97742   6.028  20.690  27.947 -0.1470  0.1514  0.5023
54752W        W97743   7.363  11.477  10.579  0.0421 -0.0380  0.2253
54753W        W97744   5.398  25.676  20.443 -0.3885  0.0505 -0.1849
54754W        W97745  23.314  18.588  19.619  0.3304  0.0959 -0.2398
54755W        W97746  32.025  33.827  27.925  0.1249  0.1823  0.0101
54756W        W97747   1.278  29.789   6.090  0.2126  0.0663  0.0504
54757W        W97748  28.410  22.921   7.211 -0.1864 -0.2662  0.0643
54758W        W97749   4.744  29.092  14.286  0.3520  0.0537 -0.0725
54759W        W97750  32.810  28.644  19.548  0.0654 -0.0776 -0.1206
54760W        W97751  28.641   2.517   4.241 -0.0735 -0.1374  0.1016
54761W        W97752  28.554  23.460  14.423  0.2224  0.1414 -0.1384
54762W        W97753   1.499  25.221  28.046 -0.0833  0.3383 -0.0662
54763W        W97754  16.371  23.400   6.428  0.1763  0.0952 -0.0164
54764W        W97755   0.559  26.821   5.788  0.4841  0.2885 -0.1164
54765W        W97756   2.945  31.494   4.196 -0.1239 -0.0929  0.1785
54766W        W97757  29.312  26.849  27.266  0.1200 -0.1981 -0.0182
54767W        W97758  32.370  25.717  11.958 -0.0306 -0.1092  0.3140
54768W        W97759   9.246  20.177   3.098 -0.2716  0.1334 -0.0351
54769W        W97760   6.485  19.909  20.664  0.0337 -0.1701  0.3265
54770W        W97761  12.242  18.537   9.275 -0.1799 -0.2357  0.3409
54771W        W97762  33.572  15.660   6.735 -0.1444 -0.1058  0.0101
54772W        W97763   1.658  18.525  25.983 -0.0265 -0.0103  0.1530
54773W        W97764  14.686  22.485  20.389  0.1592  0.3188  0.3758
54774W        W97765  18.161  15.750   1.492  0.4766 -0.1360  0.0887
54775W        W97766  16.374  29.090   3.400  0.0835  0.0244 -0.2702
54776W        W97767  23.162   7.933  28.953 -0.2726 -0.0195  0.2489
54777W        W97768   3.307   7.808  26.855 -0.0493  0.0359  0.3329
54778W        W97769  12.270  23.052   8.231  0.1423 -0.1718 -0.2228
54779W        W97770   0.698   0.257   9.887 -0.1813 -0.0244 -0.1542
54780W        W97771   3.607  22.642  19.734 -0.1537 -0.0359 -0.0746
54781W        W97772  18.399  17.978   3.492 -0.4312  0.2564 -0.1263
54782W        W97773  10.729  19.437   3.389 -0.3423  0.1451 -0.2838
54783W        W97774  29.702  13.413   0.158  0.0652  0.1408  0.0921
54784W        W97775  32.459   4.751   3.171  0.0909  0.0798  0.2498
54785W        W97776  30.488  17.953  10.558  0.2301  0.0506  0.0959
54786W        W97777   0.252  25.018  28.196 -0.2952  0.0323  0.0615
54787W        W97778  32.674  20.291  24.130 -0.0647 -0.3019 -0.3955
54788W        W97779  27.830  31.468   5.326 -0.1124 -0.3077  0.4808
54789W        W97780  28.910  11.595   1.784  0.0148 -0.0054  0.0071
54790W        W97781   9.463  34.524   1.215 -0.0359  0.1812  0.0465
54791W        W97782   7.543  11.800  18.494  0.1200 -0.1674  0.2410
54792W        W97783  17.305   6.170   5.184  0.1938 -0.0040 -0.0673
54793W        W97784   3.594  34.390  19.056  0.0964 -0.3340  0.2147
54794W        W97785  12.055   1.784   3.850  0.2558 -0.1669 -0.0079
54795W        W97786   2.266  28.640   4.413 -0.2000 -0.0174  0.0538
54796W        W97787  31.290  28.001   6.642  0.2041  0.1672 -0.2293
54797W        W97788  28.740  10.299   3.340  0.1272 -0.2750 -0.1715
54798W        W97789   3.353  34.668  10.257  0.1014 -0.0477 -0.0785
54799W        W97790   1.032  26.847  10.327 -0.1236  0.1599 -0.0133
54800W        W97791  32.221  17.703   0.914  0.0354 -0.1166  0.0036
54801W        W97792   9.072  17.883   2.981  0.2397 -0.1875  0.0342
54802W        W97793   2.188  16.779  26.032 -0.2006  0.0511  0.2323
54803W        W97794   8.713  25.205   7.876 -0.2517 -0.1971  0.1812
54804W        W97795  23.308  28.097   7.179 -0.2411  0.0632 -0.0207
54805W        W97796  25.494  21.147   0.823 -0.0719 -0.2305  0.0444
54806W        W97797   8.894  10.026   6.001  0.2019  0.2786  0.0055
54807W        W97798  11.722  32.363  25.717 -0.0328 -0.1385  0.0550
54808W        W97799  11.249  28.368   7.389 -0.2188  0.0407 -0.0520
54809W        W97800   8.267  27.500   4.931  0.2010  0.0988  0.0569
54810W        W97801  32.713  26.348   4.362 -0.2207  0.1811 -0.0162
54811W        W97802   9.622  19.956  14.515 -0.1702  0.0307 -0.0608
54812W        W97803  33.260  10.752  26.162  0.1878 -0.2927 -0.0483
54813W        W97804  15.705  26.011   8.861 -0.2125 -0.0310  0.1590
54814W        W97805  31.754  11.056  23.707 -0.2371 -0.1692  0.4102
54815W        W97806  34.775   5.929  25.241  0.3058  0.0795 -0.1239
54816W        W97807  33.963  24.716   4.215  0.2355 -0.3201  0.1741
54817W        W97808  16.153  26.279   8.573  0.2821 -0.1776  0.0711
54818W        W97809  24.364  13.727  10.035 -0.3805  0.3285  0.3098
54819W        W97810  16.980   9.998   2.682 -0.1860 -0.3056 -0.0388
54820W        W97811   8.396  22.958   1.116  0.1683 -0.2007  0.2714
54821W        W97812  29.450  12.190   7.609  0.0843 -0.2023  0.0836
54822W        W97813   8.668  29.206  26.525 -0.0893  0.3041  0.0392
54823W        W97814  33.018   7.150   5.880 -0.2565 -0.1495 -0.0042
54824W        W97815   8.007  16.064   6.529  0.1980  0.1139 -0.1833
54825W        W97816  12.968  12.806  28.513 -0.2632 -0.0247 -0.1027
54826W        W97817   0.672  25.342   9.226  0.3359 -0.0068 -0.0859
54827W        W97818   8.741  32.368  10.042  0.1185 -0.3774  0.1134
54828W        W97819  12.092  18.223   4.730 -0.0666 -0.0679  0.0239
54829W        W97820  23.737  18.149   9.928  0.1985 -0.0823 -0.0541
54830W        W97821  33.066  19.890   3.344 -0.1637 -0.1356  0.2720
54831W        W97822  11.383  34.203  22.126 -0.1360 -0.0199  0.1686
54832W        W97823   1.261  32.679   5.903 -0.0456 -0.0537  0.0677
54833W        W97824  27.983  13.367   1.826 -0.2568  0.0722 -0.1280
54834W        W97825  10.701   2.319   5.756  0.0390  0.0294 -0.1133
54835W        W97826   5.105   4.333   1.423 -0.1437  0.1192  0.1822
54836W        W97827   1.478   0.273   4.525 -0.1423  0.1979  0.0042
54837W        W97828   4.645  15.801  25.031 -0.0708 -0.1995 -0.1062
54838W        W97829   3.441  25.179  26.228  0.1266 -0.3356  0.0194
54839W        W97830  26.490  27.623   1.798  0.0005  0.1504 -0.0280
54840W        W97831  32.211  25.838   1.771  0.0493  0.0116 -0.0736
54841W        W97832  30.250   0.065  27.762 -0.0780 -0.1393 -0.2411
54842W        W97833  18.010   2.614   8.843 -0.0968  0.1092 -0.0371
54843W        W97834  28.102   1.762   6.067  0.0486 -0.3236 -0.1810
54844W        W97835   3.269  29.001   3.579  0.0088  0.0316  0.0645
54845W        W97836  11.612   1.430  28.814 -0.3314 -0.1341 -0.1238
54846W        W97837   0.211   3.483  26.226  0.0854  0.1468 -0.1244
54847W        W97838  34.417  27.947   8.926 -0.0364 -0.0507  0.0201
54848W        W97839  25.919  23.010   3.870 -0.2270 -0.1941 -0.1898
54849W        W97840  29.103  17.573   8.866 -0.3028  0.0318 -0.0395
54850W        W97841   0.005  16.585   1.143 -0.2713 -0.0799  0.1979
54851W        W97842  22.124  20.967  18.912 -0.1072 -0.1241  0.2205
54852W        W97843   8.228   4.694   0.860 -0.0557  0.1316 -0.0773
54853W        W97844  13.184  22.994  26.402 -0.0247 -0.0232 -0.1373
54854W        W97845  12.176   1.924  10.115  0.1600  0.2514  0.1576
54855W        W97846   2.835  13.491  26.348  0.0965 -0.0783 -0.0608
54856W        W97847  11.691  16.872  21.129  0.0785  0.0489 -0.1720
54857W        W97848   0.146  31.254   3.681 -0.2077 -0.0664 -0.1164
54858W        W97849   4.257  20.742   6.808 -0.1078 -0.1675 -0.3729
54859W        W97850  17.404  19.643   3.601  0.2035  0.1854  0.2036
54860W        W97851   0.249  11.418  25.454 -0.2073  0.1733 -0.2463
54861W        W97852   5.659  27.948   6.011 -0.2296 -0.0498 -0.2273
54862W        W97853   3.460   8.980   2.466 -0.0366  0.1644 -0.2257
54863W        W97854  16.531   8.209  26.954 -0.0887 -0.0115 -0.2990
54864W        W97855  12.088  11.030   6.201 -0.0313 -0.1556 -0.0547
54865W        W97856  32.333  17.327  28.964 -0.0101  0.2965 -0.2282
54866W        W97857  34.178  25.776   4.206 -0.2816 -0.1042  0.0004
54867W        W97858  22.930  24.861  16.330 -0.1724 -0.2124  0.4585
54868W        W97859   5.855  16.193   5.639 -0.1383  0.1997  0.1166
54869W        W97860  33.786  31.196  21.824 -0.0157 -0.3149 -0.1048
54870W        W97861   9.011   6.360   5.602 -0.1336  0.0152 -0.2075
54871W        W97862   1.429  33.872   9.635 -0.1129  0.1837 -0.4257
54872W        W97863  26.003  26.200   2.312 -0.3397 -0.0619 -0.0956
54873W        W97864  10.134  15.937  20.245  0.0868 -0.0225  0.0382
54874W        W97865   9.202  29.382   4.684  0.0634  0.2175  0.0863
54875W        W97866   3.155  12.651   5.278  0.0339  0.1107  0.0731
54876W        W97867  13.814  17.823   1.232  0.1737 -0.2625  0.1410
54877W        W97868  25.553  12.216  21.640  0.0613 -0.0154  0.0896
54878W        W97869  30.307  19.029   7.883  0.3472 -0.1726 -0.0632
54879W        W97870   4.470  21.681   6.659 -0.3350 -0.3575 -0.1455
54880W        W97871   3.079  19.905   8.448  0.2384  0.2299 -0.0278
54881W        W97872   5.000   0.328   1.866 -0.1160  0.5159 -0.1314
54882W        W97873  28.505  18.092   0.275  0.2222 -0.1163  0.0180
54883W        W97874  33.971  22.756   3.611  0.0581 -0.0256  0.0463
54884W        W97875  26.447  17.567  26.392  0.1443  0.0230 -0.1508
54885W        W97876  21.577  25.392   5.965  0.2447 -0.1091 -0.2192
54886W        W97877  23.694  25.447  17.222  0.1497  0.1099  0.1340
54887W        W97878  29.565   6.567   7.469 -0.2977 -0.0813  0.1452
54888W        W97879  17.862  31.421  29.036  0.1574  0.2435  0.0608
54889W        W97880  27.670  15.507   6.006 -0.0111 -0.1044  0.2178
54890W        W97881  31.008  33.595   6.528 -0.1130 -0.1905 -0.3500
54891W        W97882  27.516  29.171   7.445 -0.0205 -0.0650  0.1334
54892W        W97883   2.340  23.726   9.647 -0.1981 -0.2228  0.0512
54893W        W97884  27.986  25.500   4.714 -0.2124  0.1930 -0.3590
54894W        W97885  31.619   4.381   4.650  0.0968 -0.2769  0.4296
54895W        W97886  10.254  11.711  27.157  0.0318  0.1604  0.3039
54896W        W97887  34.660  31.367  19.578  0.0856  0.1270  0.0956
54897W        W97888  32.034  29.137   8.732  0.2148  0.4261  0.1285
54898W        W97889  24.452   9.277  25.958 -0.1102 -0.2178  0.2690
54899W        W97890   9.293  15.785  20.039 -0.2454 -0.0486 -0.3379
54900W        W97891  19.646  25.164  23.347 -0.2366 -0.2168  0.1292
54901W        W97892  32.270   6.656  17.704  0.0142  0.1027 -0.1886
54902W        W97893   3.803  10.074  11.715 -0.0061  0.2775 -0.2105
54903W        W97894  27.279  34.287  27.144 -0.0672  0.2075  0.1822
54904W        W97895   9.750   3.478  10.868  0.2489  0.2590  0.0576
54905W        W97896   7.734  14.147   8.002  0.0482 -0.2005  0.0279
54906W        W97897  21.027  27.094  23.146 -0.2152  0.1503 -0.0932
54907W        W97898   0.656   8.711   7.429 -0.1300  0.1738  0.1808
54908W        W97899  29.784   9.660  19.115 -0.0564  0.1372 -0.1801
54909W        W97900  28.180   6.915  27.591 -0.1343 -0.3131 -0.0310
54910W        W97901  30.406  23.303  27.028  0.0798  0.0389 -0.0485
54911W        W97902  13.549  29.671  15.988  0.6278 -0.0987 -0.1562
54912W        W97903  23.829  19.532   8.629 -0.1904  0.2244  0.0973
54913W        W97904   7.788  21.393   4.090 -0.1758 -0.1250 -0.1027
54914W        W97905  33.942  28.077   7.843 -0.1765 -0.0499  0.0051
54915W        W97906  24.738   0.241   4.393  0.0535 -0.1237  0.2218
54916W        W97907  32.604   4.514  19.941  0.1376 -0.2566 -0.2761
54917W        W97908  28.641  20.396   1.272 -0.0027 -0.1525 -0.0713
54918W        W97909  15.329  17.271   7.638  0.3463 -0.0385  0.0406
54919W        W97910  31.285  14.944   9.617 -0.2629  0.3296  0.0311
54920W        W97911  28.256  16.754   3.152  0.2776  0.0714  0.0662
54921W        W97912  24.903   4.997   2.513  0.2603  0.0616 -0.0327
54922W        W97913  29.451  34.431  23.128  0.0171 -0.2329  0.0420
54923W        W97914  22.009  26.041   7.776 -0.0152 -0.0783 -0.0794
54924W        W97915  20.222  12.761   2.338 -0.0409  0.3431 -0.0432
54925W        W97916  26.898  19.117   5.934  0.1669 -0.3138 -0.0534
54926W        W97917  28.515  32.592   6.503 -0.1128  0.4204 -0.4136
54927W        W97918  19.757  25.186   8.340 -0.1280  0.3769 -0.0084
54928W        W97919   2.520  26.157  23.889 -0.0824  0.2244  0.2170
54929W        W97920   0.265  15.652   0.783  0.0127  0.2782 -0.0589
54930W        W97921  12.218  12.047  15.788  0.0861 -0.1732 -0.4472
54931W        W97922  22.307  22.092  19.958 -0.2032  0.1061  0.1955
54932W        W97923  32.184   6.938   4.538 -0.0142  0.2064  0.2189
54933W        W97924  21.885  31.123  27.584  0.1237 -0.2407  0.0540
54934W        W97925  26.124  20.354   4.136  0.1351 -0.1089  0.2266
54935W        W97926  33.171  13.345  10.814 -0.0834 -0.0270 -0.1213
54936W        W97927  15.510  31.108  27.306  0.2679 -0.0321  0.1296
54937W        W97928  30.466  28.948  25.761  0.1173  0.1668 -0.2445
54938W        W97929   8.188  28.108   9.723  0.0410  0.1222 -0.0422
54939W        W97930  31.875  19.808  28.904  0.0553 -0.0949 -0.2555
54940W        W97931   2.553   3.517   1.883  0.2605 -0.1534 -0.0501
54941W        W97932  31.814  11.746  25.024 -0.0139  0.3313  0.0519
54942W        W97933   5.062  12.519  18.873 -0.1280  0.0447 -0.0817
54943W        W97934   7.535  22.868   0.736 -0.1762  0.3544  0.0839
54944W        W97935  16.172  21.427  24.998 -0.3285 -0.0776 -0.0439
54945W        W97936  24.480  32.372  26.656  0.2127  0.1915 -0.0597
54946W        W97937   7.163  20.741   3.972 -0.2891 -0.0170  0.0897
54947W        W97938  17.023  23.811   7.402  0.2470  0.1873 -0.2164
54948W        W97939  32.260  13.167   0.064 -0.1478 -0.0936  0.0274
54949W        W97940  31.872  29.834   8.014 -0.3065  0.1458  0.1686
54950W        W97941   4.869  33.304   5.113  0.0330 -0.0582 -0.0261
54951W        W97942  34.416  24.996   3.495  0.0689 -0.3462 -0.1148
54952W        W97943   6.424   0.115   9.252 -0.0898 -0.2638  0.1775
54953W        W97944   0.057  18.449   7.142  0.1639 -0.0886  0.3220
54954W        W97945  11.500  30.841   4.376 -0.1683 -0.3932  0.0916
54955W        W97946  32.264  27.389   4.807  0.2199  0.1414 -0.2099
54956W        W97947  21.961  17.649  23.970 -0.0320  0.0087 -0.0127
54957W        W97948  24.412  29.392   7.586 -0.0829 -0.3613  0.0757
54958W        W97949  27.939  28.899  27.410  0.2967  0.0819  0.0295
54959W        W97950  24.373  26.003   1.826 -0.0273 -0.0190 -0.2877
54960W        W97951   3.216  14.905  17.013 -0.1393 -0.4267 -0.1327
54961W        W97952  33.268  30.130   6.883  0.0170  0.2674 -0.2377
54962W        W97953   2.114   6.822   1.022 -0.1675 -0.1898 -0.1615
54963W        W97954  14.581  20.653  25.955  0.0445 -0.0903 -0.0295
54964W        W97955   4.430  26.149   9.656  0.3220 -0.3392 -0.0545
54965W        W97956  13.499  23.141   5.462  0.2018 -0.3408 -0.3641
54966W        W97957  19.293  14.540   2.090  0.0331 -0.0305  0.1946
54967W        W97958  27.608  18.173   1.012  0.1411 -0.0376  0.0249
54968W        W97959   0.690  22.512  25.273 -0.3238 -0.1545  0.1624
54969W        W97960  33.857   3.092   0.332  0.2234  0.1045  0.0290
54970W        W97961  34.724  25.499   4.799 -0.2344 -0.5189  0.2938
54971W        W97962  33.557  18.365   2.313  0.0533  0.0902 -0.0965
54972W        W97963   2.861  23.652  21.531 -0.1675 -0.0385 -0.2118
54973W        W97964  31.573  25.148   8.404 -0.0309  0.1942  0.0538
54974W        W97965   6.267  29.107   5.993 -0.2206  0.0134 -0.0930
54975W        W97966  32.395   6.017  28.565 -0.0526  0.0711  0.1608
54976W        W97967  29.557   9.099   8.375  0.0420 -0.1824  0.2458
54977W        W97968  25.465  23.941   1.415 -0.4873  0.0824 -0.0698
54978W        W97969   6.682  31.214  28.282  0.1650 -0.3202  0.2038
54979W        W97970  22.414  29.274  26.288  0.1094 -0.3022  0.3214
54980W        W97971  11.725  22.661   5.831  0.0138  0.0968 -0.3067
54981W        W97972  20.891  21.496  25.259 -0.0471  0.2431  0.0018
54982W        W97973  29.698  13.676  25.384 -0.1449  0.0411 -0.1280
54983W        W97974  33.844  25.788  28.519  0.0787  0.1326  0.0103
54984W        W97975  23.274  31.317   0.413 -0.0900  0.1410 -0.1107
54985W        W97976   5.973  17.012  23.578 -0.0275 -0.1254 -0.0160
54986W        W97977   3.208  21.560   0.062 -0.2175  0.2049 -0.0374
54987W        W97978  18.133  15.679   6.895 -0.2000  0.1299  0.4636
54988W        W97979  28.099   5.855   8.405 -0.0581 -0.2399  0.2638
54989W        W97980  24.338   2.207   2.670  0.1306 -0.0219  0.1135
54990W        W97981  22.129  23.180   0.708  0.1494  0.3919  0.3952
54991W        W97982   0.840  31.758   0.708 -0.0268  0.1952 -0.0243
54992W        W97983  33.631  15.786   9.274  0.0263  0.0318  0.4818
54993W        W97984   4.022  29.432   6.367 -0.1812  0.1347 -0.1114
54994W        W97985  23.718   1.703   0.251 -0.0969  0.2127 -0.0299
54995W        W97986  27.332  21.759  23.534  0.0380 -0.2218  0.0049
54996W        W97987   2.232  23.928   2.103 -0.2011 -0.1373 -0.1881
54997W        W97988  22.186  33.638   3.005  0.0071  0.0152  0.0991
54998W        W97989  30.785  29.010   1.866  0.0359  0.3084 -0.2385
54999W        W97990   1.345   1.147   4.304  0.2002  0.0175 -0.2232
55000W        W97991  32.339  21.896   9.795  0.2208 -0.2353  0.0858
55001W        W97992   4.015  17.820   9.056 -0.1896 -0.0560 -0.0422
55002W        W97993  27.003  13.548  26.407  0.0628  0.0229  0.0347
55003W        W97994   4.104  23.825   5.376  0.0119  0.1803  0.3677
55004W        W97995  19.491  14.234   5.662  0.3019  0.2718 -0.1926
55005W        W97996   0.121  11.987   5.299  0.0320 -0.2545 -0.0695
55006W        W97997  28.992  23.099  19.094  0.3980  0.1012  0.0795
55007W        W97998  33.319  19.154  19.164 -0.2666  0.0621  0.0096
55008W        W97999  25.769  24.620   6.867 -0.0359  0.0320  0.2777
55009W        W98000   3.510  32.619  18.464 -0.0244  0.1571  0.1812
55010W        W98001  17.281  32.476  16.936 -0.1680  0.0785 -0.3953
55011W        W98002  33.267  22.400   5.137  0.3073 -0.0966 -0.2561
55012W        W98003   6.976  22.491  20.104  0.2188  0.0428 -0.1142
55013W        W98004   3.603  16.601   7.722  0.0478  0.0154  0.1319
55014W        W98005   0.870  29.098   1.671 -0.2555  0.4162 -0.0329
55015W        W98006   9.202  11.636  10.447 -0.2690 -0.0911  0.2325
55016W        W98007  33.687  28.868   8.230 -0.2546 -0.1163 -0.1093
55017W        W98008  23.394  14.238  28.033  0.2216  0.0077  0.0460
55018W        W98009   5.257  25.986   6.774 -0.4774  0.1757  0.1546
55019W        W98010   3.356  12.840   7.790 -0.2629  0.1888 -0.1237
55020W        W98011   0.452   6.592  20.414  0.1382 -0.3168 -0.0892
55021W        W98012  27.671  31.753   7.902  0.0893  0.0737  0.0959
55022W        W98013  26.198  15.139   2.721  0.0407 -0.0852 -0.2907
55023W        W98014   5.705  16.487   3.921  0.1315 -0.1659 -0.0458
55024W        W98015   3.803  16.480   4.635 -0.1953  0.2646  0.2948
55025W        W98016   0.390  30.132   9.336 -0.2460  0.1925 -0.0872
55026W        W98017   3.023   7.806  25.861 -0.0491 -0.4316  0.0074
55027W        W98018   4.363  30.742  28.073 -0.3649 -0.2711  0.1673
55028W        W98019  26.975  28.575   1.102 -0.2318 -0.0832  0.0409
55029W        W98020   9.623   7.547   7.466 -0.3083  0.1244 -0.1573
55030W        W98021  30.621  22.369   7.383 -0.0137  0.3180  0.3263
55031W        W98022  22.480  31.148  28.559 -0.1509 -0.0651  0.0206
55032W        W98023   6.592  22.634  23.934 -0.0550 -0.2195 -0.0632
55033W        W98024   9.467  16.240  22.376  0.0494  0.1064  0.1683
55034W        W98025  25.102   0.354   7.224  0.1113  0.1308 -0.0733
55035W        W98026   0.839  13.160   9.331 -0.1109 -0.1612  0.1077
55036W        W98027  31.185   6.414   9.101 -0.1309  0.2800  0.0912
55037W        W98028  27.973  23.413   5.971 -0.0213 -0.0683 -0.0039
55038W        W98029  28.461  18.758   8.058  0.1735  0.2024 -0.0327
55039W        W98030  33.918  33.437   8.466  0.0564  0.0978  0.2472
55040W        W98031  33.452  22.446   5.976  0.1552  0.1321 -0.4046
55041W        W98032  32.837  24.468  27.671 -0.1703 -0.0802  0.5242
55042W        W98033  29.087  13.038   0.738  0.0447 -0.3130 -0.1810
55043W        W98034  31.821  19.811   0.146 -0.1283 -0.0493 -0.1758
55044W        W98035  12.174  23.607   7.483  0.1093  0.0958  0.1557
55045W        W98036   1.934  31.089   4.488  0.1431  0.1015 -0.0987
55046W        W98037   3.000  16.238   5.248 -0.2220  0.0851 -0.3429
55047W        W98038  30.061  16.481   0.336 -0.1258  0.3948 -0.5211
55048W        W98039   4.319   1.319   2.296  0.1615  0.1934  0.0176
55049W        W98040  24.697  22.870   9.017  0.1549  0.0053  0.0402
55050W        W98041  30.249   1.181  25.497 -0.0480  0.0085 -0.0685
55051W        W98042   0.893  27.141   4.824 -0.0152  0.2344  0.0427
55052W        W98043  13.435  27.760   7.879  0.2970  0.3617  0.0853
55053W        W98044  30.179  27.689  28.134  0.1098  0.1904 -0.2042
55054W        W98045  14.651   3.187   5.154  0.0598  0.2891 -0.0222
55055W        W98046  31.506  30.815  24.495 -0.2122  0.2536 -0.3492
55056W        W98047  31.655  26.881   7.359  0.2860 -0.3628 -0.0460
55057W        W98048  12.827  29.373  28.305 -0.2885 -0.2703  0.0700
55058W        W98049  26.933  21.510  13.753  0.0565 -0.0101 -0.0164
55059W        W98050   9.164  30.913   7.892  0.2245 -0.0156  0.0513
55060W        W98051   4.647  16.469  11.157  0.1549 -0.1455 -0.1020
55061W        W98052  21.817  30.842  25.909 -0.3642 -0.2318  0.2757
55062W        W98053   5.870  17.545   2.987  0.4299  0.1398 -0.1541
55063W        W98054  17.159   9.738   7.642  0.3114 -0.0659 -0.0340
55064W        W98055  32.331  19.202  17.494  0.0472 -0.1501 -0.1230
55065W        W98056   8.744  23.417  19.378  0.3309 -0.3841  0.4152
55066W        W98057  27.586  28.049   5.183  0.0258 -0.1990 -0.1256
55067W        W98058  21.625  32.311   7.177  0.2072 -0.1150  0.0204
55068W        W98059  19.686  22.028  28.333  0.0998  0.1335 -0.2464
55069W        W98060  32.361  26.257   1.436  0.0254 -0.0987  0.0560
55070W        W98061   2.563  21.197   4.991  0.5811  0.0247 -0.0057
55071W        W98062   1.985  19.255   1.052  0.0841  0.1228 -0.2096
55072W        W98063   7.878  19.525  10.194  0.2221  0.4768  0.0825
55073W        W98064   3.931  32.836   9.628  0.0350 -0.1792 -0.0632
55074W        W98065  27.196  23.594   2.508 -0.1011  0.1733 -0.0341
55075W        W98066  34.156   1.877   4.537 -0.2254 -0.1968  0.0999
55076W        W98067  10.721  33.462   2.293  0.1644  0.2180 -0.1115
55077W        W98068  20.250  14.780   3.823 -0.0263  0.2397 -0.0028
55078W        W98069  10.750  13.243  28.624 -0.1049 -0.4226  0.0509
55079W        W98070   3.580  14.992   4.015  0.0795 -0.1327 -0.0393
55080W        W98071   6.307  25.036   4.170  0.0799  0.1232 -0.1295
55081W        W98072  32.740  18.152   7.713 -0.2527 -0.0683 -0.3464
55082W        W98073  31.387  29.289   3.942  0.0424 -0.0607 -0.0423
55083W        W98074  17.939  18.456   7.615  0.1196  0.0105 -0.0983
55084W        W98075  30.793  22.484   3.163 -0.2757  0.1282  0.1635
55085W        W98076   3.968  28.707   2.101 -0.0275 -0.0235 -0.0602
55086W        W98077   7.673  26.310   9.070  0.2445  0.0243 -0.3789
55087W        W98078   8.561   4.126   2.967  0.2149  0.1583 -0.0991
55088W        W98079  22.685  11.406   1.720  0.1736  0.0873  0.2060
55089W        W98080  30.734  19.792   9.358 -0.0054  0.0553  0.3703
55090W        W98081  27.107  17.656   0.026 -0.0691  0.1033  0.0283
55091W        W98082  23.313  22.600   8.394 -0.4487  0.2786 -0.3105
55092W        W98083   5.431  34.654   5.303  0.1690  0.4415  0.0770
55093W        W98084   7.388  26.836   8.629  0.2883 -0.0551 -0.0248
55094W        W98085  32.641  12.153  27.819  0.1083  0.2508  0.0494
55095W        W98086  26.799  30.545   8.334 -0.1722  0.1060  0.2815
55096W        W98087  21.011  29.961   7.891 -0.0208 -0.0961 -0.2223
55097W        W98088  28.690  26.250  26.287  0.1968  0.0999 -0.0908
55098W        W98089  33.170  27.100   5.155 -0.1642  0.0086  0.0939
55099W        W98090  33.875  20.329   2.684  0.2205  0.1263  0.0570
55100W        W98091  31.956  31.148   2.672 -0.0795 -0.0361 -0.0446
55101W        W98092  13.038   8.217  28.043  0.2026 -0.0384  0.0240
55102W        W98093   0.468  22.270  20.262 -0.1745 -0.1111  0.1482
55103W        W98094  33.146  28.035   2.061  0.0336  0.1278 -0.1344
55104W        W98095   0.577  26.671   2.230  0.0360  0.3553 -0.1074
55105W        W98096  29.188   9.089   0.944 -0.0520 -0.0383 -0.1136
55106W        W98097  30.244  15.160   2.603 -0.1652 -0.0132 -0.0079
55107W        W98098  28.567  23.942   5.123 -0.1748  0.1840  0.0656
55108W        W98099  28.781  19.872   7.204  0.3103 -0.0847  0.0481
55109W        W98100  14.343  10.335   3.829 -0.0333 -0.0027  0.3317
55110W        W98101  11.496  26.034  26.263  0.0603 -0.2069 -0.2332
55111W        W98102   9.399  13.439  24.477  0.0890 -0.2768 -0.0753
55112W        W98103  29.907  30.591  26.042  0.1283  0.0686  0.0944
55113W        W98104  27.838  17.667  15.754  0.1157 -0.2718 -0.1231
55114W        W98105   6.504   5.431  26.738 -0.0694 -0.1270  0.1198
55115W        W98106   1.335  34.108   8.284  0.2095 -0.0325  0.3263
55116W        W98107   8.854  25.945   5.667 -0.3561  0.0727 -0.0016
55117W        W98108  29.947   5.352  10.204 -0.0372  0.1029 -0.0977
55118W        W98109   5.695  27.413  24.726  0.2703  0.0714  0.2853
55119W        W98110   5.273  27.574   7.679 -0.0555 -0.0430 -0.1155
55120W        W98111  26.615  33.917   3.539  0.2477 -0.2565 -0.0138
55121W        W98112  28.670  13.840   2.198 -0.1264  0.1639 -0.0308
55122W        W98113  34.541  10.457   4.596  0.3380 -0.0593  0.0632
55123W        W98114   8.782  29.733   6.449  0.5878 -0.0793  0.1232
55124W        W98115  11.529  13.900   6.502  0.1190 -0.1678  0.3123
55125W        W98116   4.219  27.092  10.121 -0.0402  0.1794 -0.1117
55126W        W98117   1.992   8.269   2.671  0.1081  0.0663 -0.1770
55127W        W98118   5.519  19.393   4.655 -0.3679 -0.2290 -0.1249
55128W        W98119   0.898  25.883  14.853 -0.1376  0.0883 -0.2044
55129W        W98120   4.371   6.626   8.787 -0.3289  0.2467  0.1811
55130W        W98121   0.074  22.946   4.754  0.1108  0.0162  0.0810
55131W        W98122   1.642  23.299   8.047  0.0548 -0.0618  0.1519
55132W        W98123  28.679  20.366   8.268 -0.0905 -0.0029  0.2055
55133W        W98124   0.569  22.655  26.527  0.1175 -0.2176  0.1434
55134W        W98125  17.336  32.836   0.643 -0.2420  0.1211 -0.0401
55135W        W98126  23.246   0.656   5.961 -0.0305 -0.0831  0.0352
55136W        W98127   4.307   6.118   5.605  0.3578  0.1121 -0.0280
55137W        W98128   0.818  28.151  26.123 -0.0446 -0.1397  0.0200
55138W        W98129  30.478  22.169   8.274  0.1401  0.1438 -0.2491
55139W        W98130  32.150  17.740  10.005 -0.0800 -0.2856 -0.1352
55140W        W98131  10.482  17.772   4.948  0.2195  0.3730 -0.0013
55141W        W98132  23.494  18.927   2.585  0.1152  0.1345 -0.1779
55142W        W98133  27.736   6.416  19.400  0.0130 -0.0583 -0.3038
55143W        W98134  30.241   3.501  25.859 -0.2032  0.1015 -0.1221
55144W        W98135  31.490  31.505   4.755  0.1109 -0.0114 -0.1400
55145W        W98136  26.740   1.158   3.827 -0.0596  0.2574 -0.1233
55146W        W98137   8.769  15.602   4.574 -0.1066 -0.0665  0.1490
55147W        W98138  34.263  27.677  25.383 -0.1188  0.1262 -0.2424
55148W        W98139  30.124   1.443   7.529 -0.0554 -0.0902 -0.1422
55149W        W98140   3.880  33.099  10.214 -0.3535  0.0772  0.0109
55150W        W98141   1.754  14.981   3.609 -0.1589 -0.2793  0.3488
55151W        W98142  28.345  14.210   6.052  0.1271 -0.1815 -0.2808
55152W        W98143  14.573  32.726   3.681 -0.0129 -0.5078  0.2001
55153W        W98144   3.113  18.227  28.928  0.3735 -0.2468  0.0687
55154W        W98145  14.265  20.788   6.346 -0.1286  0.3010  0.3737
55155W        W98146   1.103  25.848  24.819 -0.0295 -0.1261  0.1480
55156W        W98147  28.492  25.222   7.004 -0.3216 -0.1124  0.0336
55157W        W98148   3.831   7.834  27.978  0.0180 -0.1751 -0.1722
55158W        W98149   4.257  23.746   7.810 -0.0899  0.5337  0.1678
55159W        W98150  33.376  25.718  23.091 -0.0783 -0.1150 -0.1538
55160W        W98151   9.558  28.367  26.472 -0.0644 -0.3477  0.1005
55161W        W98152  10.716   6.684  10.946 -0.2366  0.1205 -0.0994
55162W        W98153  12.677  33.038  21.740 -0.0916  0.0238 -0.0152
55163W        W98154   5.505   4.736   1.123 -0.0683  0.3624 -0.3569
55164W        W98155  22.718  26.257   1.147 -0.2560  0.0746 -0.1497
55165W        W98156   9.080  26.918   7.448 -0.0430  0.0703  0.1061
55166W        W98157   1.336  28.506   0.528  0.0889 -0.1171 -0.1902
55167W        W98158  19.156  16.825   2.336  0.2532  0.2502  0.0457
55168W        W98159  29.474  18.953  21.178 -0.1269 -0.2213  0.0684
55169W        W98160  27.318  22.900   2.414 -0.1485  0.1472  0.0160
55170W        W98161   6.174   0.382   7.740 -0.2863 -0.0524  0.2962
55171W        W98162   7.133  28.267   7.228  0.0705 -0.0342  0.1386
55172W        W98163   4.678  30.127   3.542 -0.1898 -0.1385 -0.1171
55173W        W98164  26.809  21.248   2.179 -0.3461  0.1514  0.5215
55174W        W98165  21.773  29.186   1.408 -0.2246 -0.0619 -0.2993
55175W        W98166   9.728  14.744   0.779  0.0638 -0.1282 -0.0496
55176W        W98167   6.819  15.383   1.881 -0.2974  0.0474 -0.1700
55177W        W98168   4.789  29.656  23.131  0.1291  0.2567  0.2691
55178W        W98169   7.337   2.481  22.571  0.0745 -0.0497  0.0123
55179W        W98170   5.004  16.040  11.785  0.0111 -0.2378 -0.0575
55180W        W98171  33.967  16.894   5.713  0.2938  0.2077 -0.0288
55181W        W98172  32.155  21.688   2.566 -0.0117 -0.1678  0.0049
55182W        W98173  29.714  30.728   7.169 -0.2060  0.4167 -0.3275
55183W        W98174  27.189  21.056   7.523  0.0552 -0.0466  0.2520
55184W        W98175   5.604  17.215   5.539  0.0632 -0.0895  0.0736
55185W        W98176  11.771  34.538   9.762 -0.3392 -0.0354  0.0759
55186W        W98177   2.231   3.723   8.152 -0.2636  0.0210 -0.0370
55187W        W98178  34.712  18.486  28.322  0.0914  0.1841 -0.2387
55188W        W98179   6.584  16.728   0.814 -0.0687 -0.1108  0.0622
55189W        W98180  33.465  34.448  27.266  0.0493 -0.0402  0.1298
55190W        W98181  26.729  27.345   1.293 -0.0303  0.3221  0.1375
55191W        W98182   8.753   0.448   4.762 -0.0608  0.1946  0.3047
55192W        W98183  32.750  30.140  19.422  0.1556  0.0857  0.2269
55193W        W98184   2.376  33.706  22.975 -0.0312  0.0342  0.0631
55194W        W98185  33.030  23.771   0.207 -0.1273  0.1105 -0.1579
55195W        W98186  19.667  19.091  24.568 -0.0935 -0.1597  0.0691
55196W        W98187  32.070  21.340  17.866 -0.1590 -0.1101 -0.0266
55197W        W98188  33.180  16.166   3.693  0.0201  0.0066 -0.2638
55198W        W98189   5.691  26.197   7.092 -0.0415  0.1675  0.2238
55199W        W98190   6.961  17.006  25.980 -0.1453  0.3450 -0.5125
55200W        W98191   7.640  32.609   3.821  0.2538 -0.4286  0.0178
55201W        W98192  11.730  18.633   2.133  0.1564 -0.1657  0.1695
55202W        W98193   5.998  24.875   1.400 -0.0276 -0.1548  0.3340
55203W        W98194  31.350  27.683   0.564 -0.0305  0.0401 -0.3912
55204W        W98195   0.955   4.850  22.952  0.0376 -0.0906 -0.0855
55205W        W98196   0.312  23.944  25.172 -0.4344  0.2771 -0.4311
55206W        W98197  10.176  17.192   3.690  0.1901 -0.1236  0.1317
55207W        W98198  30.978  33.466  24.776  0.1648 -0.0529 -0.1762
55208W        W98199   4.991   0.187   4.637 -0.1369  0.1647  0.2062
55209W        W98200  31.010  27.015  21.323  0.1152  0.0316  0.4396
55210W        W98201  11.763  29.479   1.001  0.4026  0.0005 -0.1918
55211W        W98202  33.508  18.623   1.338  0.2698  0.0500 -0.0313
55212W        W98203  34.610  26.063  15.585  0.1433 -0.1062  0.0895
55213W        W98204   1.273  10.976  11.105  0.0474 -0.0693  0.1292
55214W        W98205  27.520   8.723  26.751 -0.2297  0.2521  0.0987
55215W        W98206   4.644  28.229  26.971  0.2572  0.1818 -0.1444
55216W        W98207   2.489  14.809  22.088 -0.1510 -0.4772 -0.0915
55217W        W98208  34.639   5.367  16.833 -0.0969  0.1729  0.2982
55218W        W98209  31.962  10.620   4.058 -0.3570 -0.5074  0.0599
55219W        W98210   2.822  28.403  23.309  0.4074 -0.1317  0.2262
55220W        W98211  28.246  29.514  19.552  0.0183  0.0442 -0.0328
55221W        W98212  18.911  27.796   7.747  0.0906 -0.1080  0.1008
55222W        W98213   6.685  25.159   8.067  0.0950  0.0257  0.2112
55223W        W98214  29.201   7.969   0.851  0.0203  0.1739  0.0995
55224W        W98215   7.629  32.240   2.679  0.0765  0.2075 -0.2515
55225W        W98216  30.966   9.266   2.217 -0.0628 -0.0904 -0.1470
55226W        W98217  25.668  18.569  27.116 -0.0702 -0.3355 -0.3214
55227W        W98218  12.197  27.355   6.362  0.0037  0.0600 -0.0218
55228W        W98219   3.234  29.112  18.875  0.0223  0.1402 -0.0951
55229W        W98220  20.351  22.349   7.688  0.0037  0.0877  0.0605
55230W        W98221  27.134  18.557  22.281  0.0069  0.0461 -0.3523
55231W        W98222  32.465  32.342   7.769 -0.0918  0.0815 -0.0363
55232W        W98223  13.264  13.496   3.658  0.0775  0.2230 -0.0023
55233W        W98224  32.138  10.065  27.813 -0.3309  0.0718 -0.1521
55234W        W98225  28.232  30.156   0.977  0.2407 -0.2651  0.2839
55235W        W98226  27.092   9.068   9.290  0.0344  0.2204 -0.0231
55236W        W98227  28.048   0.482   7.715 -0.1460 -0.0812 -0.1140
55237W        W98228  26.659  21.763   8.648 -0.1157 -0.1235 -0.2079
55238W        W98229  34.025  32.310   7.252 -0.0625  0.0184 -0.0178
55239W        W98230  33.341  29.561   7.100  0.0534 -0.3034 -0.1982
55240W        W98231   3.262  30.756  15.261  0.1882 -0.0272 -0.2851
55241W        W98232  28.854   0.565   6.833 -0.1481 -0.2576  0.2709
55242W        W98233  28.976  21.795   3.285  0.2834  0.1288  0.1733
55243W        W98234  32.844   5.341   7.941  0.1906  0.2109  0.1961
55244W        W98235   0.760   3.634  26.212  0.2294 -0.0058  0.1236
55245W        W98236  24.907  15.173  29.187 -0.2647 -0.1176 -0.5120
55246W        W98237  20.357  27.578  28.940 -0.3200 -0.2265 -0.3551
55247W        W98238   5.872  30.061   8.325  0.3016 -0.1229 -0.0357
55248W        W98239   2.096   0.495   9.573 -0.1720 -0.3125  0.0320
55249W        W98240   4.746  25.222   0.818 -0.2779  0.0165  0.3176
55250W        W98241  11.598   2.720  28.074  0.1042 -0.1504  0.1197
55251W        W98242  21.002  19.737   7.773  0.0777  0.0346 -0.3765
55252W        W98243   1.820  24.784   3.933  0.0549 -0.0246  0.1983
55253W        W98244   4.493  26.336  16.390 -0.1746 -0.1704  0.3597
55254W        W98245  22.284  31.161   5.248  0.2005  0.2103 -0.2400
55255W        W98246   4.457  26.569  27.712  0.2652 -0.1188  0.1485
55256W        W98247  30.994   5.281  25.579  0.3365 -0.0975 -0.1412
55257W        W98248  16.791  10.931  24.932  0.0607 -0.1646 -0.0906
55258W        W98249  34.479   5.028   8.382 -0.0957 -0.1158 -0.1340
55259W        W98250  25.902   8.027  18.822 -0.2126 -0.2938 -0.0340
55260W        W98251  14.561  14.242  23.804 -0.1911 -0.1132 -0.2945
55261W        W98252   0.869  33.822   3.509 -0.1331  0.1277  0.0423
55262W        W98253  20.754   0.309  20.281  0.0387 -0.1958 -0.0123
55263W        W98254  17.421  24.765  16.019  0.2435  0.0293  0.3593
55264W        W98255  13.192  11.919   4.044 -0.3472  0.2285 -0.1343
55265W        W98256   2.940  20.940  23.764  0.1151  0.1772 -0.3470
55266W        W98257  29.657  16.830  25.598  0.1414 -0.1125  0.2197
55267W        W98258  28.571  13.747   3.434  0.1078 -0.1382  0.0010
55268W        W98259  34.183  16.895  20.190  0.0754 -0.1629 -0.2145
55269W        W98260   4.574   3.059   6.147  0.3912  0.2829  0.3480
55270W        W98261  20.714   2.775   3.506 -0.0655  0.0565  0.1770
55271W        W98262  18.802  33.193   9.260  0.2560 -0.0824  0.2691
55272W        W98263  28.546   4.553   4.974 -0.3047 -0.3629 -0.2190
55273W        W98264  18.538  28.982  28.170 -0.0656  0.0202 -0.1216
55274W        W98265  10.240  26.833   6.026  0.4386  0.1490  0.1823
55275W        W98266  24.483  16.273  21.358 -0.1533  0.1653  0.2538
55276W        W98267  33.934  12.055   4.821  0.0623  0.0830 -0.1044
55277W        W98268  24.295  10.580   7.467  0.2052 -0.1115 -0.1649
55278W        W98269   5.978  16.140   4.188  0.0065 -0.1422 -0.1446
55279W        W98270  28.293  31.582  13.104 -0.1509  0.2016  0.2541
55280W        W98271  34.184   0.171  28.895 -0.1607 -0.0878 -0.2530
55281W        W98272  17.390  17.661   5.780  0.0065  0.2661  0.0825
55282W        W98273   1.425  14.443  29.055 -0.0197  0.1797  0.0959
55283W        W98274  31.002   8.733  26.187  0.1950 -0.0121 -0.0513
55284W        W98275  10.289   2.204  18.383 -0.0110 -0.0390  0.0880
55285W        W98276  27.896  23.918  28.565  0.2611 -0.1336  0.1430
55286W        W98277  18.431  29.529   1.977  0.1266  0.0874  0.2618
55287W        W98278  21.793  19.793   2.089  0.3158 -0.0315  0.1625
55288W        W98279  16.960  16.160  26.259  0.2151 -0.3352  0.0432
55289W        W98280   8.667  31.379   6.482  0.0523  0.0889 -0.0264
55290W        W98281  22.507  34.394  25.303  0.0600  0.1769 -0.1021
55291W        W98282   9.843   0.231  28.961 -0.1907  0.0434 -0.0418
55292W        W98283  21.815  28.526  21.008 -0.0060 -0.3781 -0.1171
55293W        W98284  33.092  20.378  14.232  0.0258  0.0982  0.0572
55294W        W98285  22.402  16.289  24.612 -0.2957  0.0244  0.2267
55295W        W98286  30.703   1.459  22.652  0.1064  0.0938  0.0382
55296W        W98287  33.564  17.825   9.724  0.0349 -0.0272 -0.0047
55297W        W98288  30.972  27.352   3.949 -0.3780 -0.3871  0.0657
55298W        W98289  27.992  15.673   9.303 -0.1100 -0.0764  0.0112
55299W        W98290  32.596  16.787  15.128  0.1410  0.2996 -0.1778
55300W        W98291   7.124  19.103   4.929 -0.3852 -0.2676  0.0816
55301W        W98292  16.974   4.680  20.734 -0.0886 -0.2805  0.0485
55302W        W98293  18.302  28.480   9.069 -0.2863  0.0222  0.1001
55303W        W98294   7.007  13.063   6.097  0.1135 -0.0952  0.1006
55304W        W98295  34.290  25.159  27.863 -0.1244 -0.2619 -0.0467
55305W        W98296   8.163  13.365   0.206  0.0641 -0.2820 -0.1512
55306W        W98297   6.963  34.609  24.380  0.0616  0.0473 -0.2363
55307W        W98298   8.610  31.417  24.632  0.0550  0.0704 -0.0165
55308W        W98299  26.082   5.114   2.326  0.0383 -0.1053 -0.0614
55309W        W98300  25.177  31.850   7.258 -0.1524  0.0331 -0.0604
55310W        W98301   3.746  24.762   8.792 -0.1271  0.2108 -0.0770
55311W        W98302  25.868  11.643   1.808  0.1187  0.0249  0.3118
55312W        W98303  33.036  34.242  28.980  0.4092 -0.0312 -0.0685
55313W        W98304  30.060   9.479   4.686  0.0894 -0.0099  0.0964
55314W        W98305  13.716  28.890  16.002  0.2627  0.3111  0.1794
55315W        W98306   2.733  30.213   3.407  0.1688  0.0895 -0.0059
55316W        W98307   4.777  22.237  24.684 -0.1605  0.0858  0.1974
55317W        W98308  31.689  25.292  25.269 -0.1611 -0.3219 -0.0897
55318W        W98309  28.677  18.629   4.262 -0.0870  0.3111 -0.1344
55319W        W98310  30.294   2.574  28.635 -0.5900 -0.2773  0.0223
55320W        W98311  33.858  24.525  24.460  0.2426  0.0141  0.5378
55321W        W98312  33.154  10.894   0.087 -0.2091 -0.1426  0.0209
55322W        W98313  15.759   3.776   4.773 -0.1804 -0.0271 -0.1774
55323W        W98314  14.459  28.092   6.749  0.1863  0.0883 -0.0828
55324W        W98315  26.663  20.452  28.271 -0.0331 -0.2029 -0.1437
55325W        W98316  31.355  32.793  21.368 -0.1253 -0.2052  0.1498
55326W        W98317   0.113  31.522   6.232 -0.1415  0.1023 -0.0651
55327W        W98318  26.832   6.612  28.998 -0.6080  0.2027 -0.0252
55328W        W98319  24.829  13.399   6.364  0.0864 -0.1611  0.1900
55329W        W98320  20.389  25.889   4.779 -0.0661  0.1344 -0.1487
55330W        W98321  27.978  12.971  27.573 -0.3895  0.0525 -0.2543
55331W        W98322  23.885   5.220  15.557 -0.3493  0.0894  0.2875
55332W        W98323  17.842   4.526   2.575 -0.0557 -0.0049  0.1112
55333W        W98324   2.687  19.266  24.499 -0.3030  0.2550 -0.0371
55334W        W98325   3.901  29.232   2.770 -0.1510 -0.0853 -0.0892
55335W        W98326  33.149   6.261  17.936 -0.2845 -0.2606 -0.1718
55336W        W98327  28.403   1.991  14.419 -0.5130  0.5678 -0.3109
55337W        W98328   9.677  19.797  23.956 -0.1231  0.2081 -0.1702
55338W        W98329  32.428   2.263  22.706 -0.1339  0.2939  0.0836
55339W        W98330   5.907   8.673   0.226  0.0366  0.0944  0.2814
55340W        W98331  29.291  17.844  28.521 -0.2927  0.4352 -0.1325
55341W        W98332   3.275   7.529   2.275 -0.1268  0.0717  0.2506
55342W        W98333   3.492  30.329   1.335 -0.2557 -0.0600  0.0246
55343W        W98334  28.945  18.373   4.628 -0.0300 -0.7274 -0.1397
55344W        W98335  34.506  27.338   3.245 -0.2354  0.1368 -0.2410
55345W        W98336   2.813  28.182  14.863  0.0684  0.0252 -0.3059
55346W        W98337   0.905  29.263  25.455 -0.3346 -0.1373  0.2102
55347W        W98338   7.982   0.804   5.255 -0.0664 -0.0898 -0.4995
55348W        W98339  33.604  28.419  25.204  0.1055  0.1701 -0.1194
55349W        W98340   2.013  29.471   2.437  0.0709  0.1080  0.1026
55350W        W98341  34.626   6.487  15.554 -0.2610 -0.0569  0.0503
55351W        W98342  16.856  27.405  25.990  0.2298  0.0245  0.1815
55352W        W98343   3.532  34.499   3.764 -0.1565 -0.2138  0.0035
55353W        W98344  25.012  17.333   4.143 -0.1372  0.2435 -0.0591
55354W        W98345  27.630   0.838   7.888 -0.0986 -0.0368  0.0267
55355W        W98346  33.164   7.919   9.126 -0.0576 -0.1958 -0.3138
55356W        W98347   8.503  27.624   8.750  0.0285 -0.0486  0.2638
55357W        W98348   5.534  25.598  13.910 -0.0586  0.0406  0.1230
55358W        W98349   3.657   1.621  18.374  0.1625 -0.1848  0.0990
55359W        W98350  16.743  25.279  25.663 -0.3881 -0.0278  0.2539
55360W        W98351   9.142  27.713  16.346  0.2529  0.1358  0.6957
55361W        W98352  30.529  19.504  23.834 -0.0988  0.2022  0.3677
55362W        W98353  20.045  17.060   2.406 -0.0104  0.1334  0.3720
55363W        W98354  12.941  25.570  16.771  0.1252  0.1748 -0.1503
55364W        W98355  21.755  14.080   2.512 -0.0859  0.4720  0.0072
55365W        W98356  22.437  18.269  25.719 -0.0648  0.1597  0.2614
55366W        W98357  29.720   2.868   6.291  0.1322  0.2459 -0.0111
55367W        W98358  17.833   5.757   8.469  0.2379  0.3536  0.2505
55368W        W98359  21.599  22.460  14.543 -0.1749  0.1115 -0.1670
55369W        W98360   6.745   1.682  27.939 -0.3733 -0.2107 -0.1007
55370W        W98361   5.498  21.296  10.718  0.0989  0.3479 -0.2511
55371W        W98362  25.395  24.504  14.441  0.1557 -0.0483 -0.1407
55372W        W98363  20.582  24.416   3.006 -0.1852  0.2477 -0.0238
55373W        W98364  25.249  29.134  28.761  0.1867  0.4078  0.0407
55374W        W98365  23.051  31.512   3.591  0.0627  0.1788  0.0167
55375W        W98366  28.598  23.835   4.602 -0.0027  0.2151 -0.4355
55376W        W98367  28.388  10.076  14.244  0.2317 -0.0287  0.0055
55377W        W98368   4.304   4.798  19.906  0.0516  0.1036 -0.0678
55378W        W98369  30.506  19.880   0.959 -0.1363  0.0608  0.0581
55379W        W98370  17.395   4.326  23.137 -0.1776  0.1108  0.3845
55380W        W98371   3.438  32.883  28.062 -0.1233  0.2293 -0.6504
55381W        W98372   1.117  27.199  26.859 -0.0176  0.1772  0.0353
55382W        W98373  32.642  21.465  17.453  0.1328  0.0488  0.1861
55383W        W98374   6.366  21.538   5.608 -0.0068  0.2162  0.0922
55384W        W98375  27.065  24.244   7.599  0.0977 -0.0470  0.0641
55385W        W98376  12.935  32.735   7.560  0.3728 -0.2575  0.2197
55386W        W98377   9.391   2.884   9.548  0.1420  0.2327  0.1139
55387W        W98378  11.498  25.220   4.718 -0.0216 -0.1033  0.1229
55388W        W98379   6.206  18.181   4.038 -0.2121  0.0183 -0.0105
55389W        W98380  26.721  18.657  26.709  0.1149  0.2360 -0.0391
55390W        W98381  26.591  25.992   5.044  0.1902 -0.0093 -0.3123
55391W        W98382  11.225  14.537   3.492 -0.0887 -0.0469 -0.1801
55392W        W98383  13.445  25.895  21.294  0.3727  0.0633  0.1449
55393W        W98384   0.222  13.206  18.037 -0.0649  0.0700 -0.0970
55394W        W98385  34.057  13.776  25.506 -0.0438 -0.0250 -0.1134
55395W        W98386   8.856   2.188   7.716 -0.2381  0.3783 -0.2978
55396W        W98387  26.934   8.141   5.953  0.1011  0.3239  0.0748
55397W        W98388   4.164  20.938   2.698 -0.0048 -0.2057 -0.1341
55398W        W98389  27.152  32.899  22.445 -0.4156 -0.2100  0.1800
55399W        W98390   5.804  33.893  10.661 -0.3223 -0.0863  0.0165
55400W        W98391  22.041  16.424   6.287 -0.2230  0.0157  0.1843
55401W        W98392  32.159  33.094   9.086 -0.0049  0.0124 -0.1506
55402W        W98393  24.306  24.886   2.426  0.0979  0.2313 -0.0667
55403W        W98394   1.539  25.048   4.637  0.0381 -0.2693  0.1706
55404W        W98395  22.966  18.564   8.781  0.1990  0.2100  0.1278
55405W        W98396   2.919  30.133   2.506 -0.0580 -0.0327 -0.1930
55406W        W98397  31.805  33.083  27.782 -0.1851  0.1252  0.0641
55407W        W98398   5.807   1.136  20.460  0.2658 -0.0744  0.0156
55408W        W98399  33.988   1.383   1.023  0.2303  0.2321 -0.0349
55409W        W98400   0.609  34.342   3.048  0.4527  0.0712 -0.1172
55410W        W98401  14.890  23.595   1.660 -0.1285 -0.0103 -0.0389
55411W        W98402  23.925  12.046   7.318  0.1700 -0.5258  0.0111
55412W        W98403  32.039  15.603  24.272 -0.0453 -0.0777  0.3106
55413W        W98404   5.161  27.815   3.787 -0.0224 -0.0510 -0.2072
55414W        W98405   6.262   1.061   1.044  0.0862 -0.4070 -0.1161
55415W        W98406   8.714  26.487  17.303  0.0843 -0.2749 -0.1825
55416W        W98407  29.942  28.438   6.742  0.2714  0.3966 -0.1292
55417W        W98408  25.151  15.454  21.454 -0.0621 -0.4255  0.2836
55418W        W98409  30.869  31.076  27.006 -0.0952 -0.0268  0.1069
55419W        W98410   7.875  24.565   5.350 -0.2295  0.2214  0.2437
55420W        W98411  32.766  22.690   0.159  0.2552  0.1216  0.2025
55421W        W98412  33.564  20.803   7.455  0.0524  0.0203 -0.4147
55422W        W98413  22.099  23.638  21.508 -0.0555 -0.0131  0.2449
55423W        W98414   6.830  34.094   3.672  0.2721  0.1378 -0.0312
55424W        W98415  31.403  17.938  26.459  0.0473  0.0421  0.3896
55425W        W98416   4.280  17.054  27.619 -0.1518 -0.1965 -0.4039
55426W        W98417  28.136  26.961  22.850  0.1020 -0.1165  0.1356
55427W        W98418  30.699  29.553  29.109 -0.2353  0.0968 -0.3453
55428W        W98419  21.678  33.335  25.009 -0.0618 -0.0385  0.1272
55429W        W98420  27.644   9.176   2.771 -0.1472 -0.0737  0.0981
55430W        W98421  30.810  19.975  27.902 -0.1090 -0.1531  0.0378
55431W        W98422  25.959  31.950  23.861 -0.1969 -0.0529 -0.2495
55432W        W98423   2.417  25.983  22.216  0.2137  0.0508  0.0105
55433W        W98424   2.652  33.845   4.503 -0.3343 -0.0711  0.0071
55434W        W98425  16.817  15.319  24.846 -0.2073 -0.4972  0.3043
55435W        W98426  34.134  14.079  27.874  0.2474  0.1492 -0.0333
55436W        W98427  28.396  32.735  24.452 -0.0261  0.2591  0.1355
55437W        W98428   8.353  28.811   1.059 -0.0898  0.3245 -0.0523
55438W        W98429  18.083   5.223   0.935  0.0321  0.2946 -0.0170
55439W        W98430  23.501  30.490   6.365 -0.0921 -0.0695  0.0324
55440W        W98431   6.925  18.720   9.329  0.1815 -0.0045 -0.3195
55441W        W98432   7.187  19.378   1.636  0.0074  0.1137  0.4362
55442W        W98433  14.549  19.574  25.351 -0.2799 -0.0831  0.1266
55443W        W98434  22.224  28.832   8.521 -0.3706 -0.2062 -0.1067
55444W        W98435  22.731   5.400   3.429  0.0655 -0.1096  0.1406
55445W        W98436  15.032  18.421   5.553  0.0089  0.0489  0.0713
55446W        W98437  34.472  32.318  27.894  0.0878 -0.4389  0.2993
55447W        W98438   1.736  15.828  22.752 -0.2771 -0.2192 -0.0486
55448W        W98439   0.876  32.447   6.191  0.1453 -0.2826  0.4681
55449W        W98440  25.410   6.022   6.944 -0.1659  0.1734 -0.0944
55450W        W98441  11.555  21.005   4.135 -0.2680  0.0437  0.2921
55451W        W98442  10.000  18.951  24.890 -0.2865  0.3131 -0.2515
55452W        W98443   6.468  31.004  23.936 -0.1257 -0.0769  0.3023
55453W        W98444  22.081  18.887   1.137 -0.0044 -0.3849  0.0479
55454W        W98445  24.856  19.777  27.243  0.1976  0.0452  0.0159
55455W        W98446   0.351  22.975   8.029  0.2293  0.3297  0.1603
55456W        W98447   5.730  18.957  15.262 -0.2139  0.2294 -0.4303
55457W        W98448  22.342  21.103   4.418  0.0503  0.1015 -0.0818
55458W        W98449  22.425  32.774   5.736 -0.3534  0.0734 -0.0138
55459W        W98450   7.434  20.271   4.980  0.2633  0.0142  0.0533
55460W        W98451   7.631  12.582  22.056 -0.0991  0.3014 -0.0503
55461W        W98452   4.408  17.636   7.231  0.1288 -0.0577 -0.0318
55462W        W98453   2.750  28.798   9.107  0.2954  0.0216 -0.0928
55463W        W98454  19.971   2.904  27.218  0.0036 -0.0498 -0.0187
55464W        W98455  32.586  24.295   8.895  0.5613 -0.1080  0.1827
55465W        W98456  20.008  24.679   3.864 -0.0778 -0.2534  0.0555
55466W        W98457   7.039  14.594   1.422  0.0237  0.0978 -0.0430
55467W        W98458  20.891  23.880   1.442 -0.1990 -0.0358  0.0249
55468W        W98459  13.643  16.429   0.728  0.0947  0.2162  0.0279
55469W        W98460  33.890   3.438   7.941 -0.0780  0.1508  0.2624
55470W        W98461  26.032  28.041  19.281 -0.0957 -0.2536  0.0347
55471W        W98462  28.060  13.108   6.864 -0.2190  0.1113  0.1146
55472W        W98463  29.417  30.878   0.178  0.2360  0.0565  0.0643
55473W        W98464  31.482   1.412  28.239 -0.0179 -0.0951  0.0264
55474W        W98465  27.308  18.600  28.703 -0.0225  0.0792 -0.0539
55475W        W98466   1.434   6.553   1.305 -0.1770  0.0409 -0.0929
55476W        W98467  19.248  25.044   8.409 -0.2303  0.3047  0.1072
55477W        W98468  31.956   4.291   5.024 -0.0290  0.2471 -0.0330
55478W        W98469  14.447  16.609  22.713  0.0855  0.0467  0.2884
55479W        W98470   6.056  21.850  14.390 -0.1694 -0.3271 -0.2986
55480W        W98471   5.028  32.375  27.224  0.0071  0.1528  0.2246
55481W        W98472   0.120  27.307  20.736  0.1124  0.2029 -0.1534
55482W        W98473   7.842  23.521   2.490  0.0600 -0.0788  0.0868
55483W        W98474   1.890  23.094   4.834  0.1176 -0.1114  0.1763
55484W        W98475  11.774   9.994   4.503  0.0806 -0.1607  0.2115
55485W        W98476  32.470  13.744  10.147 -0.0911  0.0195 -0.2890
55486W        W98477  28.022  15.343  19.771  0.1820 -0.0478 -0.4599
55487W        W98478   1.073  19.052   5.471  0.0673 -0.0207  0.5069
55488W        W98479   2.841  22.933  21.126 -0.1080  0.3280  0.1248
55489W        W98480  31.991  22.532   6.115  0.2790  0.1091  0.2839
55490W        W98481  32.515  21.649   4.359  0.1377 -0.0611  0.1647
55491W        W98482  28.345  19.016  22.016  0.1474  0.2320 -0.1997
55492W        W98483  27.274  10.126  29.254  0.1997 -0.1165  0.1526
55493W        W98484   2.352   7.273  10.400 -0.0348  0.0285  0.0890
55494W        W98485  25.935  22.329   8.652 -0.2676  0.2944  0.0247
55495W        W98486  12.548  16.231  15.079  0.2295 -0.1003  0.2918
55496W        W98487  12.293  29.543   5.843  0.2110 -0.1749  0.3272
55497W        W98488  28.842   1.835   2.203 -0.1154 -0.2003  0.0684
55498W        W98489   2.157  15.620   8.878 -0.2352 -0.0733  0.0970
55499W        W98490  34.590  17.210   3.058  0.0020 -0.2657  0.3819
55500W        W98491   2.012  25.286  19.781 -0.0093  0.2060  0.1528
55501W        W98492   7.268   8.574   5.222 -0.1893  0.1321 -0.0717
55502W        W98493  12.536  30.225   0.475  0.2173 -0.1055  0.0237
55503W        W98494   6.131  27.911  16.433 -0.0508 -0.0313  0.0340
55504W        W98495   2.674  20.242  10.561  0.0272  0.1290  0.1481
55505W        W98496   7.198  33.653   3.811  0.1639 -0.1453 -0.0685
55506W        W98497  14.737  16.602   4.040 -0.0056  0.0053 -0.1299
55507W        W98498  34.152  22.681   8.882 -0.2686 -0.1628  0.4750
55508W        W98499  10.439  24.909   5.782 -0.1844  0.1490  0.0619
55509W        W98500   7.407  32.107   6.157 -0.0029  0.5126  0.2037
55510W        W98501   4.490  25.779  28.329  0.0729 -0.1225  0.3154
55511W        W98502  24.185  17.686   0.106 -0.2035 -0.0544 -0.1571
55512W        W98503  19.527  17.171  23.296 -0.3659 -0.0905  0.0182
55513W        W98504   1.493  29.338   6.906 -0.2916  0.0273 -0.1395
55514W        W98505  18.201  31.465  23.960  0.5188 -0.0282  0.3693
55515W        W98506  22.319  21.263  23.232 -0.0695 -0.4605 -0.0858
55516W        W98507  28.278  31.659  25.197 -0.1968 -0.2500 -0.1226
55517W        W98508  21.412  26.796   1.132  0.0640 -0.0062 -0.0024
55518W        W98509  19.732  12.585   5.524  0.0132  0.2424 -0.0730
55519W        W98510  15.015  23.828   3.628  0.1565  0.1661 -0.0775
55520W        W98511   4.344  29.544   2.709  0.0462 -0.0868 -0.1363
55521W        W98512   8.953  32.479  25.057 -0.3879 -0.2727 -0.0565
55522W        W98513  16.643  26.280   9.978 -0.1701  0.0554 -0.0158
55523W        W98514   7.378  18.142  25.687 -0.3613 -0.0283 -0.5246
55524W        W98515  28.083  34.577   2.638 -0.0879 -0.2772  0.4071
55525W        W98516  25.529  18.021   7.047 -0.0682  0.1140 -0.3604
55526W        W98517  25.235  18.706  26.807 -0.1167  0.0337 -0.1560
55527W        W98518   6.764  10.668  25.433 -0.0135  0.0030  0.2318
55528W        W98519  33.773  25.293  27.236  0.1341 -0.0189 -0.0823
55529W        W98520  13.348  16.493  17.040  0.0187  0.0057  0.1628
55530W        W98521  20.133  15.460   1.467 -0.1126  0.0815 -0.0697
55531W        W98522  28.728  13.282   1.029 -0.1396 -0.0615  0.2634
55532W        W98523  32.617  26.395   8.416  0.2670  0.0437  0.1602
55533W        W98524   1.998  17.511   5.846 -0.0204 -0.2176  0.1828
55534W        W98525  24.621   1.799  14.102  0.2994 -0.0623 -0.1555
55535W        W98526  34.123   2.257   6.535  0.3133  0.2161 -0.0030
55536W        W98527   7.625  24.349   2.482  0.5387 -0.3014  0.3281
55537W        W98528  28.959  21.131   3.414 -0.0203  0.0737 -0.1384
55538W        W98529  19.338  32.429   2.641 -0.3083  0.3823  0.0327
55539W        W98530  24.707  20.774  19.132 -0.2637  0.1016 -0.0906
55540W        W98531  26.917  18.553  28.302 -0.1116  0.1538 -0.0511
55541W        W98532   5.615  21.582  14.197 -0.1177  0.1549  0.1171
55542W        W98533   7.149  20.136  28.345  0.0057 -0.2420 -0.0314
55543W        W98534  24.396  26.268  24.020 -0.0362 -0.0166 -0.0217
55544W        W98535  33.395  29.993  26.232  0.0182  0.3165  0.0206
55545W        W98536   4.859  29.221   9.748 -0.0959  0.1663  0.0224
55546W        W98537  31.651  27.127  22.615  0.1474  0.0102 -0.2024
55547W        W98538  27.700  10.443  27.813  0.0570  0.0201 -0.0430
55548W        W98539   5.668   1.470   7.206 -0.0100 -0.1195 -0.3166
55549W        W98540   5.086  31.952   0.117 -0.0316 -0.3822  0.1089
55550W        W98541   0.906  34.618  19.703  0.2319  0.1848  0.0563
55551W        W98542   7.994   2.253  18.180  0.1552 -0.0715 -0.0395
55552W        W98543  32.704   2.445  22.072 -0.2092 -0.0667 -0.2737
55553W        W98544   1.158  32.505  22.335  0.3800  0.2671 -0.0310
55554W        W98545  10.179  29.661   8.186  0.3489 -0.1658  0.0606
55555W        W98546  34.044  23.204   5.029  0.3082  0.1420 -0.2031
55556W        W98547  24.055  25.883   3.283 -0.1516 -0.1528 -0.1578
55557W        W98548  26.384  16.645   4.033  0.1239 -0.2051  0.1936
55558W        W98549  16.926  21.470   4.161  0.3362  0.1920  0.2457
55559W        W98550  28.173  22.751   9.385  0.0146 -0.1003 -0.0068
55560W        W98551   7.445  15.796   3.554 -0.3651 -0.3105  0.3812
55561W        W98552   1.172  17.712   0.221  0.3286  0.2795 -0.1362
55562W        W98553  11.371  30.957  28.094 -0.2538  0.1798  0.0394
55563W        W98554  32.418   3.034   7.290 -0.2166 -0.2981 -0.0993
55564W        W98555  16.179  21.780   0.278  0.1226  0.0414  0.0441
55565W        W98556  32.215  21.961   9.314  0.2655  0.0601  0.0235
55566W        W98557  33.142   6.900  21.565 -0.1859  0.0613  0.2908
55567W        W98558   1.081  33.785   5.183 -0.0768 -0.1370 -0.4095
55568W        W98559   2.464  13.181   9.495 -0.3240  0.0047  0.2575
55569W        W98560  29.586  22.969   3.099 -0.2034 -0.2436  0.1084
55570W        W98561   2.989  11.363   4.697  0.2726  0.1856  0.2174
55571W        W98562  18.954  28.897   5.082  0.3462 -0.3148  0.5387
55572W        W98563   9.067  11.468   7.602 -0.3817  0.0021  0.2383
55573W        W98564   1.860  27.794   3.815  0.3082 -0.0850  0.2408
55574W        W98565  30.203  20.854   6.290 -0.0180 -0.2008  0.0136
55575W        W98566   5.148   7.913   7.212 -0.0614 -0.3069 -0.0371
55576W        W98567  31.808  15.191   6.389  0.2883  0.2475 -0.3655
55577W        W98568  25.071  24.393   7.435 -0.0324  0.2099 -0.2167
55578W        W98569   5.351  25.792   8.375  0.0065 -0.0227  0.2493
55579W        W98570   2.769  25.113   4.813  0.0037  0.0041 -0.1256
55580W        W98571  26.731  12.614   4.160  0.0824  0.1006 -0.2493
55581W        W98572   8.773  25.697   9.894  0.1132  0.1541  0.3434
55582W        W98573  29.169  27.845  18.413  0.1321 -0.1448  0.0366
55583W        W98574  29.475  24.145   5.634 -0.0345 -0.1482 -0.2199
55584W        W98575   4.936  28.057  24.640 -0.4118 -0.1452  0.0482
55585W        W98576  32.742  19.732   3.937 -0.1599 -0.0245  0.1473
55586W        W98577  21.045  30.935  24.326  0.4604  0.4173 -0.0685
55587W        W98578  20.927  22.394  26.872  0.1251 -0.1510  0.0039
55588W        W98579  33.679  33.323   6.480 -0.0558  0.0917  0.3109
55589W        W98580  29.385  30.900   3.897  0.1820  0.0805 -0.1446
55590W        W98581  23.968  18.716   5.426 -0.0451 -0.5043 -0.0705
55591W        W98582  26.341   3.674   7.262 -0.0367  0.0050 -0.1516
55592W        W98583  24.958  11.848  14.449  0.1921 -0.2498 -0.0147
55593W        W98584   8.401  11.286   2.860  0.0598  0.4619  0.1760
55594W        W98585  32.288  24.235  10.359  0.4277  0.0826  0.0269
55595W        W98586  22.506  28.321   3.753 -0.2818  0.0816 -0.0365
55596W        W98587   3.657  11.971  26.680 -0.2669 -0.2497 -0.3099
55597W        W98588   4.173  31.919  23.291 -0.0927  0.2062  0.0695
55598W        W98589  33.985  19.533   9.552  0.1134 -0.3618 -0.1241
55599W        W98590   4.823   8.756   1.621  0.0083 -0.0119  0.2373
55600W        W98591  33.211  17.118  23.844 -0.1634  0.2679  0.0367
55601W        W98592   0.845  24.594   5.014  0.3483  0.1054 -0.2370
55602W        W98593  30.943   9.511   4.762 -0.1232 -0.1130  0.1133
55603W        W98594   4.894   2.122  26.248 -0.2623  0.0189  0.0992
55604W        W98595  24.445  34.457  13.767 -0.3390 -0.2243 -0.1211
55605W        W98596  11.716  14.954   8.797  0.2405  0.0943 -0.2242
55606W        W98597   1.537  34.658   0.112  0.3726 -0.7456 -0.0010
55607W        W98598  26.529  34.363   5.659 -0.1450 -0.2697 -0.0302
55608W        W98599  22.211   7.039  17.713 -0.2138  0.0912 -0.0444
55609W        W98600   8.751  27.586   4.195 -0.0453 -0.2688  0.0620
55610W        W98601  31.375   4.278  19.310  0.3369 -0.1173  0.6148
55611W        W98602  10.831   1.987   1.300 -0.3580 -0.4641 -0.1186
55612W        W98603  34.697  26.221   9.418 -0.3992 -0.2783  0.0308
55613W        W98604  31.817  17.020   6.370 -0.1018 -0.0151  0.1432
55614W        W98605   5.376  17.464  27.123  0.0252 -0.1511  0.1621
55615W        W98606  13.579  30.662   4.485  0.3742  0.4281  0.0745
55616W        W98607  11.619  15.796   5.099 -0.1685 -0.1134  0.1305
55617W        W98608   6.038  20.885  27.454 -0.1316  0.3115  0.0342
55618W        W98609  15.108  23.213   1.321 -0.2086 -0.1700  0.1521
55619W        W98610   4.629  32.965   9.571  0.1123 -0.2532 -0.1562
55620W        W98611  21.270  10.887   0.181 -0.3415  0.1766 -0.1035
55621W        W98612  26.242  20.633   3.180  0.0191 -0.1455  0.0988
55622W        W98613  11.389  20.338   7.154  0.3492  0.0337  0.1169
55623W        W98614  24.056   6.984   9.406  0.2119 -0.0117  0.3951
55624W        W98615  15.801  23.998   1.341 -0.0396  0.0992  0.0737
55625W        W98616  22.094   9.080   6.254 -0.0794  0.1744  0.5631
55626W        W98617  30.260  21.867   1.679 -0.3013  0.0531 -0.2298
55627W        W98618  30.228  18.543  20.757 -0.0980  0.0627  0.0255
55628W        W98619   6.928  26.639   1.137  0.1584 -0.0509  0.0234
55629W        W98620   2.062  19.685   3.146 -0.1578  0.2787  0.2369
55630W        W98621  27.682  23.702  23.868 -0.0341  0.1109 -0.1158
55631W        W98622   3.680  21.309   6.044 -0.1482 -0.3206  0.0791
55632W        W98623  16.350  27.452  21.294 -0.1464 -0.0323  0.0613
55633W        W98624  33.771  29.045   1.145 -0.0151  0.2730  0.0207
55634W        W98625  33.300  33.814  28.005 -0.0246 -0.1628  0.3813
55635W        W98626  12.598  32.436  25.430 -0.2488  0.0287 -0.2906
55636W        W98627   2.059   5.391   1.082  0.1772  0.1486 -0.0425
55637W        W98628  24.888  27.731   1.991 -0.5640 -0.0529 -0.0917
55638W        W98629   8.206  33.434   1.280  0.0289 -0.1322  0.0823
55639W        W98630  30.783   2.005  28.991  0.2255 -0.0002 -0.3713
55640W        W98631  19.093   3.918   8.117  0.1355  0.3125  0.1169
55641W        W98632   1.524  27.711  10.202 -0.1740 -0.1679 -0.1757
55642W        W98633   0.537  19.062   9.337 -0.3007  0.0926 -0.0089
55643W        W98634  10.324   9.448  11.188  0.0762 -0.0412 -0.0063
55644W        W98635  19.614   3.489   1.300 -0.0080  0.0208  0.1019
55645W        W98636   4.542  32.756   4.225 -0.0696 -0.2199 -0.0361
55646W        W98637  12.274   7.189   1.811 -0.0643 -0.1158 -0.0506
55647W        W98638  30.139   7.643   6.593  0.0477  0.0723  0.2780
55648W        W98639   0.524   6.687  19.657  0.1639  0.3020 -0.1132
55649W        W98640  22.293  15.086  23.871  0.0021 -0.1401  0.0388
55650W        W98641   6.290   2.281  28.777 -0.1180  0.4745  0.1034
55651W        W98642   1.389   1.708   7.166 -0.0182  0.0953  0.1100
55652W        W98643   0.755  17.321   6.189  0.3181 -0.1545  0.0527
55653W        W98644  29.127  34.159  21.206 -0.3306 -0.0553  0.1057
55654W        W98645   0.581  22.867   4.569 -0.2496  0.1208 -0.0621
55655W        W98646  13.470  24.494   0.803 -0.1454  0.3006 -0.1360
55656W        W98647   1.485  14.290   8.093  0.1262 -0.0384  0.0211
55657W        W98648  30.262  23.435   1.662  0.1508 -0.1002  0.0658
55658W        W98649  13.260  26.318   1.196  0.2704  0.0397 -0.2739
55659W        W98650  25.308   7.784   7.121 -0.1821  0.2675  0.0543
55660W        W98651   2.148  29.289   3.123 -0.2607 -0.0496 -0.1733
55661W        W98652  29.748  16.621   2.083 -0.2015 -0.0804  0.0411
55662W        W98653   0.183  28.099   7.329  0.3046 -0.1088 -0.1007
55663W        W98654  34.164  18.621   5.637 -0.3135  0.0931 -0.0906
55664W        W98655  14.148  29.044  22.652 -0.0376 -0.0802 -0.1343
55665W        W98656  20.480  16.634   2.944 -0.0971 -0.1509 -0.2095
55666W        W98657  26.594  23.772   6.312 -0.0377  0.1121 -0.3138
55667W        W98658  29.139  32.545  27.988  0.1602 -0.0348  0.2574
55668W        W98659  19.945  30.344   5.116  0.1809 -0.1048  0.0983
55669W        W98660   4.052  29.043   9.572  0.1971  0.2118  0.1371
55670W        W98661  26.372  20.003  23.594  0.4150  0.0831  0.0529
55671W        W98662  25.650  32.108   6.087  0.0941 -0.0832 -0.1044
55672W        W98663  13.461   3.413   8.605  0.0775  0.0906  0.3063
55673W        W98664   1.997  26.117   1.274  0.1591  0.0871 -0.1431
55674W        W98665   2.924  13.723   5.963  0.1190 -0.1536 -0.1396
55675W        W98666   0.554   5.661  26.476  0.1083  0.0101 -0.1143
55676W        W98667   3.426  16.592  24.815 -0.1369  0.3279  0.0429
55677W        W98668  14.355  24.186  26.092 -0.2119 -0.2156 -0.1618
55678W        W98669  23.573  16.590   4.359 -0.0952 -0.4346 -0.3245
55679W        W98670  30.399  12.681   5.418 -0.0044 -0.0721  0.0184
55680W        W98671  24.832  21.179   9.265 -0.3336 -0.2925  0.0232
55681W        W98672   5.764  30.772   5.854  0.2681 -0.1432  0.3383
55682W        W98673   0.287  14.781   7.507  0.0988 -0.0441 -0.4383
55683W        W98674  32.148  28.416   3.468  0.0355  0.0308 -0.0978
55684W        W98675   6.174   1.503   1.350  0.0483  0.1557  0.3083
55685W        W98676   2.581  17.797  10.717  0.2001  0.1801  0.1741
55686W        W98677   2.656   8.986   5.573  0.0710 -0.3156 -0.0217
55687W        W98678  31.906  19.048  10.696 -0.0534 -0.0796 -0.0380
55688W        W98679   3.261   1.808   3.378  0.2261  0.0458  0.0747
55689W        W98680  26.746  27.639   4.487  0.1491  0.0379  0.0415
55690W        W98681  29.627  29.768   2.690  0.2175  0.0692 -0.1554
55691W        W98682   6.558  21.486  17.919  0.0776  0.0068  0.0458
55692W        W98683  33.868  18.041  10.801 -0.0913  0.2183 -0.1203
55693W        W98684   7.983   2.915   5.205  0.2075 -0.0631 -0.0245
55694W        W98685  21.624  20.635  18.179 -0.1731  0.1013  0.3374
55695W        W98686  34.531   7.712   4.501 -0.1679  0.2819  0.2375
55696W        W98687   0.623  11.069   3.690 -0.0173 -0.1177  0.1336
55697W        W98688   2.079  22.596  15.199 -0.3136 -0.0417 -0.0836
55698W        W98689  14.605  27.840   9.346  0.3250  0.2391 -0.4691
55699W        W98690   2.394  10.415   8.937  0.4269  0.1264 -0.2198
55700W        W98691  31.778  28.603  25.166 -0.2633  0.1239 -0.0912
55701W        W98692   1.640  25.571   6.833 -0.0254  0.1690 -0.1491
55702W        W98693   1.927  21.607   0.916  0.1634  0.0741 -0.2213
55703W        W98694  32.567  22.521   5.445 -0.0124  0.1441  0.2029
55704W        W98695   6.492  19.522   0.278 -0.0404  0.0439 -0.0749
55705W        W98696   5.269  24.331   9.191 -0.1550  0.1187  0.1794
55706W        W98697  21.674  33.025   7.901 -0.1181  0.4397  0.0042
55707W        W98698  30.235   1.594   8.007 -0.0995 -0.0412 -0.0247
55708W        W98699  11.781  28.145   8.154  0.2324 -0.1751 -0.1395
55709W        W98700   5.928  32.168   8.781 -0.1766  0.3515  0.0742
55710W        W98701  27.601  12.959   6.588  0.0574  0.1851 -0.4231
55711W        W98702  33.615  21.091  10.018  0.0275 -0.3242 -0.1254
55712W        W98703   3.799  32.596  10.124  0.2010 -0.1948  0.2850
55713W        W98704  26.207  24.062   4.012 -0.2410 -0.1044  0.2540
55714W        W98705  32.802  32.421   4.344  0.2564  0.1960  0.0907
55715W        W98706  11.668  34.715  23.572 -0.1458  0.0404  0.1254
55716W        W98707  13.477  25.605   3.567 -0.2303 -0.1268 -0.1797
55717W        W98708   7.184   0.354   7.897 -0.3849  0.0226  0.1259
55718W        W98709  15.928  12.228   8.991  0.0377  0.4023 -0.2090
55719W        W98710  26.910   9.870  24.787  0.0123 -0.0919 -0.2861
55720W        W98711  30.406  24.103   4.359 -0.3419  0.1923 -0.5130
55721W        W98712  32.960  32.650  27.916 -0.0070 -0.0282 -0.0128
55722W        W98713  11.420  13.825   2.859  0.4323 -0.0092  0.0729
55723W        W98714   2.150  28.485   6.992  0.0416 -0.0039  0.2533
55724W        W98715  10.914  30.921  10.262 -0.0912  0.3267 -0.1756
55725W        W98716   0.380  13.600   1.124 -0.2120  0.1011  0.1055
55726W        W98717  19.368  11.033   6.001 -0.0606 -0.0006 -0.0437
55727W        W98718  32.646  24.673   6.145  0.1250  0.0766 -0.0878
55728W        W98719   4.375  24.220  26.104  0.0618  0.2263  0.0578
55729W        W98720  12.624  22.163   9.761  0.1146  0.1631 -0.1843
55730W        W98721   9.452  30.724  17.171  0.0558 -0.2161  0.2010
55731W        W98722  28.683  11.718   7.352  0.2457  0.1874 -0.1808
55732W        W98723   0.710  23.252   6.318 -0.0830 -0.0713 -0.0629
55733W        W98724   7.915  16.769  27.224 -0.1158 -0.2998  0.3462
55734W        W98725   1.923  14.808   5.943  0.1261 -0.1267 -0.0901
55735W        W98726   8.066  28.474  10.121  0.1519 -0.0502  0.4334
55736W        W98727  31.156  17.182  11.124  0.0176  0.1711 -0.0509
55737W        W98728   6.864  19.704   5.941  0.0324 -0.0464 -0.0554
55738W        W98729   4.476  22.585   1.106  0.1333 -0.1667 -0.1246
55739W        W98730  30.168  19.878  28.508  0.0330 -0.1148  0.0452
55740W        W98731   3.054  10.750  28.622  0.0996 -0.0330 -0.0982
55741W        W98732   2.700  23.277   6.169  0.1181 -0.0744 -0.0083
55742W        W98733  30.161  13.494   6.185  0.0752 -0.0500 -0.2670
55743W        W98734  27.037  17.043   6.022 -0.1830 -0.0226 -0.2627
55744W        W98735  29.474  22.181   3.908 -0.1164  0.0022 -0.1105
55745W        W98736  28.025  27.410  21.835  0.0554 -0.1836 -0.2142
55746W        W98737   5.987  25.614  19.532 -0.2859 -0.1181  0.0979
55747W        W98738  23.525   0.304   8.140  0.0092 -0.0903 -0.0959
55748W        W98739  25.033  19.431   3.895 -0.0599  0.2505  0.0472
55749W        W98740  12.712  29.060   2.180  0.1967  0.3035 -0.0139
55750W        W98741   0.151  24.570  27.993 -0.1011  0.0001  0.1278
55751W        W98742  30.612  11.089  26.312 -0.3404 -0.0823  0.2482
55752W        W98743  30.579  28.105  18.515  0.0793  0.1313  0.1474
55753W        W98744  19.251   4.707  17.350  0.1804  0.2934  0.2497
55754W        W98745   5.502  26.084  13.967 -0.3138 -0.2504  0.0053
55755W        W98746  32.365  25.598  28.316  0.2799 -0.2361  0.0303
55756W        W98747  16.936   0.564   9.606 -0.0826 -0.0377 -0.1616
55757W        W98748   6.328  30.808   1.985 -0.0955  0.3125 -0.2190
55758W        W98749   0.313  32.650   7.584  0.2121 -0.1636 -0.0545
55759W        W98750   3.543  27.906  23.286  0.1232  0.1813  0.0630
55760W        W98751   1.998  19.710   7.538 -0.0669  0.0937  0.0375
55761W        W98752   2.840   6.130  23.593  0.0266 -0.0256 -0.0573
55762W        W98753   2.289  27.587   9.791 -0.1804  0.0139  0.2170
55763W        W98754  34.142  33.726   3.790 -0.2472 -0.1007 -0.0521
55764W        W98755   0.679  20.809   9.229 -0.1231  0.2533  0.0563
55765W        W98756  19.417  25.739  24.953 -0.1222  0.0191 -0.0089
55766W        W98757   9.322  20.248   5.504  0.1340 -0.1907 -0.0155
55767W        W98758   0.236  25.408   0.849  0.0844  0.0292  0.0837
55768W        W98759  30.430  26.102   8.484 -0.1892 -0.4160  0.0471
55769W        W98760   4.699   9.755  27.929 -0.3469 -0.3951  0.3953
55770W        W98761  20.838  23.611   8.176  0.0398 -0.4706 -0.2764
55771W        W98762   0.058  34.518   9.490  0.2858  0.0402 -0.0258
55772W        W98763   9.546  22.561   8.425 -0.2421 -0.1677  0.2622
55773W        W98764  11.953  26.494  23.706  0.0694  0.0916 -0.2618
55774W        W98765  32.868  32.417   8.569 -0.0945  0.0099 -0.3839
55775W        W98766  23.961  24.597   0.079 -0.3397 -0.1633 -0.1619
55776W        W98767  27.419  33.963   6.806 -0.3076  0.4939  0.1093
55777W        W98768  24.751   5.031   0.978 -0.1065 -0.0574 -0.3216
55778W        W98769  18.303  24.721  24.760  0.1119 -0.1871  0.0092
55779W        W98770  32.459  24.122   3.609  0.3348  0.0117  0.1977
55780W        W98771  31.586  31.305   8.890  0.0293  0.3981  0.1666
55781W        W98772   3.176  26.689  20.822 -0.0642 -0.2799  0.0723
55782W        W98773  33.363  17.913  10.862  0.1079  0.3646 -0.1179
55783W        W98774   8.842  24.411   3.821  0.1499 -0.0830  0.3433
55784W        W98775   1.963  22.008  10.392  0.1628 -0.0914  0.0448
55785W        W98776  30.424  15.495   5.252 -0.1179 -0.2088  0.1136
55786W        W98777  15.797  20.395   6.518  0.3501 -0.0042  0.0611
55787W        W98778  33.385   9.996   9.733  0.3084  0.0307  0.3282
55788W        W98779  31.201  14.427  25.439 -0.1987  0.1889  0.0792
55789W        W98780  10.537  11.174   2.618  0.0004 -0.0562 -0.1891
55790W        W98781  16.594   7.808   9.221  0.0551  0.1077  0.0629
55791W        W98782   8.614  19.368  28.954 -0.1736  0.0690  0.5310
55792W        W98783   2.921  11.096  22.419  0.1590  0.0750  0.0438
55793W        W98784  17.508   8.144  10.137  0.0754 -0.1132  0.0889
55794W        W98785   4.313  32.847   9.943 -0.1039 -0.3283 -0.0788
55795W        W98786  26.997   1.698   9.360  0.2723  0.0992 -0.2248
55796W        W98787  13.180   8.628  23.815 -0.3841  0.1793  0.1434
55797W        W98788  33.284  27.879  26.694  0.0356 -0.2198 -0.3237
55798W        W98789  32.160   4.684   8.028 -0.0425 -0.1342  0.1778
55799W        W98790  24.527  30.907   9.123  0.0050  0.2126 -0.1226
55800W        W98791  32.680   2.089   2.289  0.1004 -0.0100 -0.1276
55801W        W98792  10.459  22.465  21.406  0.0494  0.2853  0.1457
55802W        W98793   7.058  17.084  11.240  0.0847  0.0737  0.1215
55803W        W98794  30.988   0.202   8.019  0.1910  0.2392 -0.2240
55804W        W98795  18.695  27.944   8.793  0.1593  0.2137  0.3493
55805W        W98796  15.517  29.838   6.696 -0.0196  0.3122 -0.1597
55806W        W98797  21.120  33.610   4.071 -0.1029  0.0006 -0.0297
55807W        W98798  17.194   2.592   0.513  0.2441 -0.1671  0.0090
55808W        W98799   1.539  17.987   6.700  0.0581  0.1259 -0.2405
55809W        W98800  34.349  31.358   7.308  0.2936  0.2779  0.2218
55810W        W98801  32.014  16.491   3.589  0.1346 -0.0222  0.0107
55811W        W98802  10.752  31.566   9.443  0.2732  0.1051 -0.0873
55812W        W98803  16.183  34.635   3.458  0.0551 -0.5136 -0.1067
55813W        W98804  21.576  16.668  16.294  0.0225  0.1142  0.0536
55814W        W98805   8.814  32.084   4.267  0.3325  0.2680  0.3272
55815W        W98806  29.089  22.163   2.939 -0.1471 -0.0866 -0.3079
55816W        W98807  25.406  27.994   9.634  0.0042  0.2054 -0.1771
55817W        W98808  25.918  12.830  18.040  0.1167 -0.1265 -0.0066
55818W        W98809  34.534   1.981   9.505  0.1005  0.1334 -0.0137
55819W        W98810  22.474  30.008   5.889  0.0523 -0.0570  0.2708
55820W        W98811   9.623   5.231   5.082 -0.2037 -0.2859 -0.2565
55821W        W98812   6.815  16.728   4.333 -0.1448  0.2767 -0.0104
55822W        W98813   4.637   9.445  22.620  0.0195  0.1494  0.4780
55823W        W98814   1.053   1.060   5.407  0.0442 -0.2145  0.0517
55824W        W98815  29.931   3.335  21.426  0.2178 -0.2257 -0.1582
55825W        W98816  32.191  31.459  18.216  0.4692  0.2386 -0.1092
55826W        W98817   5.956  33.523  21.945  0.0879  0.1209  0.0515
55827W        W98818  13.368  32.452   8.644 -0.2015 -0.0692  0.0384
55828W        W98819  24.813   2.470  27.883  0.1213  0.0930  0.1310
55829W        W98820  11.760   9.023  29.062 -0.0100  0.0571 -0.0473
55830W        W98821  27.665   2.054  18.604 -0.1401 -0.1438  0.0009
55831W        W98822   9.824   2.158   9.470 -0.0704  0.0575  0.2544
55832W        W98823  16.074  28.528   2.062  0.2154  0.1597  0.1464
55833W        W98824  25.195  33.075  22.278  0.4789  0.2125  0.3798
55834W        W98825  31.255  27.602   2.940  0.1149  0.1657 -0.0802
55835W        W98826  29.846  24.902   9.053 -0.1740  0.0019  0.1212
55836W        W98827  28.842  19.544  26.355  0.1817 -0.0472 -0.0899
55837W        W98828  28.576  27.517   7.898 -0.0968  0.0417 -0.0596
55838W        W98829   6.027  10.943   2.107  0.0617 -0.0349  0.1206
55839W        W98830   2.193  20.632  21.934 -0.1664  0.1737  0.1925
55840W        W98831   7.672  29.265   0.038  0.2072  0.2634 -0.1343
55841W        W98832   5.651  32.963   6.507  0.0557  0.2025 -0.1086
55842W        W98833   6.884  16.511  25.681  0.2486 -0.0392  0.0355
55843W        W98834   0.050  26.940  27.345  0.0159  0.0596 -0.2347
55844W        W98835   1.514   8.749  26.818  0.1984 -0.0202  0.0672
55845W        W98836  29.102  23.244   4.925  0.1294  0.0993  0.1158
55846W        W98837  23.237   6.567   5.506  0.0566  0.2230  0.4153
55847W        W98838  25.370  24.866   1.232  0.2794 -0.0043  0.0207
55848W        W98839  30.529  33.273  16.845  0.2355 -0.0510  0.0961
55849W        W98840   0.043   2.470  21.843  0.0936 -0.0041  0.1901
55850W        W98841  32.751  13.002  16.034  0.3435  0.0917 -0.1442
55851W        W98842  27.485   5.744   0.581 -0.2153  0.0566  0.0930
55852W        W98843  32.760   0.502   0.778 -0.1630 -0.1842 -0.0416
55853W        W98844   3.624   6.646  11.485 -0.1068 -0.1787  0.1061
55854W        W98845  32.692  10.409   8.537  0.1447  0.1379  0.0381
55855W        W98846  18.853  19.956  16.070 -0.0948 -0.1671 -0.0123
55856W        W98847  17.870  34.189  14.476 -0.0840 -0.0549 -0.3871
55857W        W98848  33.077   0.545  26.340 -0.0911  0.1646 -0.2675
55858W        W98849   6.169  31.754   4.117  0.1295 -0.0869  0.1592
55859W        W98850  21.672  19.066   8.380 -0.0261  0.0705 -0.3353
55860W        W98851  34.296  23.163  28.595  0.0946 -0.0726  0.0396
55861W        W98852  30.559   3.102   0.726  0.4786 -0.0386  0.2333
55862W        W98853   0.815  23.856   9.360 -0.2857  0.0012 -0.0152
55863W        W98854   1.769   0.636   3.719 -0.1920  0.0361 -0.2661
55864W        W98855  34.590   6.404  23.958  0.3185 -0.0265 -0.1946
55865W        W98856   9.994   7.694   5.738 -0.1896  0.0499  0.0992
55866W        W98857  29.488  32.178   8.303  0.1609  0.0987 -0.1841
55867W        W98858   3.963  27.326  16.627 -0.1957  0.2032 -0.2289
55868W        W98859  22.815  25.748  23.996 -0.2634  0.1463  0.0542
55869W        W98860   4.710  33.197   0.115  0.0663 -0.2080  0.1189
55870W        W98861  14.779  29.607   9.041  0.4520 -0.1554 -0.2616
55871W        W98862  21.102   2.547  19.865  0.0247  0.1132 -0.1731
55872W        W98863   5.611   8.654  16.582  0.1132 -0.0934 -0.0174
55873W        W98864  34.210  26.815  17.489  0.2737 -0.1672 -0.3056
55874W        W98865  31.069   3.445   7.392  0.0669  0.0630 -0.1318
55875W        W98866   6.292  11.977   1.857  0.0292  0.0236 -0.2128
55876W        W98867  33.826  33.231   5.448  0.3213 -0.2649 -0.0894
55877W        W98868  32.362  27.145  26.694 -0.1667 -0.1435 -0.1392
55878W        W98869  34.009  28.978  28.883  0.1401  0.1894  0.0921
55879W        W98870  26.947  31.492  16.304 -0.3179 -0.0256 -0.2020
55880W        W98871  22.267  31.852   7.248 -0.2987 -0.0430 -0.1164
55881W        W98872  11.754  26.693  28.491 -0.1039 -0.2233 -0.1235
55882W        W98873   0.286   6.206   9.488 -0.0094 -0.0968 -0.0232
55883W        W98874  26.226  24.767   8.957 -0.0614  0.0279 -0.3217
55884W        W98875  30.768  33.309   3.426  0.4093 -0.1495 -0.2778
55885W        W98876  33.411   3.533   0.041 -0.0703 -0.0638 -0.0071
55886W        W98877  12.999  22.183   7.307  0.0586  0.1852 -0.1867
55887W        W98878   0.180  11.431  16.190 -0.1726 -0.3817 -0.2019
55888W        W98879  34.795  24.377  15.670 -0.2525  0.0602  0.1754
55889W        W98880  34.764   4.502  22.148  0.0001  0.1763  0.0344
55890W        W98881   0.730  19.637   4.119 -0.1130  0.0657  0.2441
55891W        W98882  24.872  26.260  20.531  0.0191  0.1621 -0.0259
55892W        W98883  25.507  12.475  27.271 -0.1598  0.0450 -0.2140
55893W        W98884   5.230   4.721  25.438 -0.0789 -0.0463 -0.1575
55894W        W98885  25.131  32.388   3.358 -0.0352  0.0779  0.0987
55895W        W98886   8.349  26.020  27.589 -0.0549 -0.3286 -0.0393
55896W        W98887  10.167   0.299  25.889 -0.2439  0.4031  0.1826
55897W        W98888  23.393   0.954  19.522  0.0903 -0.1014 -0.2922
55898W        W98889  22.637   0.365  24.437 -0.0981  0.3045 -0.0814
55899W        W98890  32.770  26.832  25.636  0.0737 -0.3725  0.1687
55900W        W98891  16.363  28.687  22.842  0.2046 -0.2351 -0.1674
55901W        W98892  30.805  25.969   7.743  0.1285 -0.2546 -0.2637
55902W        W98893  17.571   3.390   7.429  0.0850  0.1913  0.0258
55903W        W98894  23.848  31.863   2.542  0.0684  0.1350 -0.1185
55904W        W98895  30.030   1.116  23.635  0.0391 -0.1084 -0.1904
55905W        W98896  14.275  16.815   8.637  0.1925  0.0703 -0.1809
55906W        W98897   1.659  20.241  21.696  0.0431  0.1875 -0.2074
55907W        W98898   2.345  15.642   2.977 -0.1128  0.1210 -0.1463
55908W        W98899   0.791  18.709  28.570  0.1813  0.3350 -0.0914
55909W        W98900  15.853  16.638  14.436  0.2003  0.0083  0.0765
55910W        W98901  33.608  20.334  24.480 -0.1314 -0.1092 -0.2939
55911W        W98902  19.931   1.270  29.192 -0.1961 -0.0560 -0.0501
55912W        W98903   3.562  12.169   7.098 -0.1017 -0.0926 -0.2987
55913W        W98904   2.793  28.252  16.901  0.0700  0.0433  0.3683
55914W        W98905   1.810  24.021   9.550 -0.0190  0.2479  0.0729
55915W        W98906   1.933  10.030  21.315  0.2411 -0.1801 -0.0845
55916W        W98907  21.540  33.792  14.139 -0.0930 -0.1119  0.0951
55917W        W98908  20.496  12.403  26.027 -0.0050 -0.2917  0.0665
55918W        W98909   9.958  27.594   5.296 -0.2734  0.0113 -0.0130
55919W        W98910  11.474  28.395  28.480  0.0360  0.1508 -0.2133
55920W        W98911  32.455  12.099  23.182  0.3106  0.0788  0.2095
55921W        W98912  23.482  21.896  27.167 -0.2953 -0.0045  0.0647
55922W        W98913  11.633   3.756  19.828 -0.0555 -0.3166 -0.2461
55923W        W98914  23.292  22.486  28.559 -0.0310 -0.1088  0.0310
55924W        W98915  17.275   9.673   8.330 -0.1347  0.1185 -0.0834
55925W        W98916   5.361  15.129   4.290 -0.4283  0.2140  0.3352
55926W        W98917  19.289   8.362  26.891  0.1095  0.1943 -0.3342
55927W        W98918   4.140  33.778   2.077  0.1387  0.0073 -0.2666
55928W        W98919  28.776  33.458  28.250 -0.3788  0.1423 -0.1256
55929W        W98920  33.754  19.899  19.069 -0.1688 -0.1275 -0.3274
55930W        W98921  32.532   1.909   3.064 -0.1465 -0.1074 -0.4002
55931W        W98922   9.728   9.424  23.113 -0.2516 -0.2888  0.0598
55932W        W98923  26.311   1.773   8.059 -0.1568 -0.4265 -0.1531
55933W        W98924   3.034   1.519  19.052 -0.1820  0.2104  0.3066
55934W        W98925   7.670   7.424   9.558 -0.3048  0.1608  0.0606
55935W        W98926  28.316  11.366  23.183 -0.1167 -0.0190 -0.3109
55936W        W98927   7.860  23.064   4.425 -0.1974  0.2269 -0.2849
55937W        W98928  32.807  34.635   1.719 -0.2445 -0.0402 -0.0671
55938W        W98929  27.114   6.223   3.784  0.0572 -0.0918  0.2054
55939W        W98930   4.366  24.390   3.735  0.1472 -0.3647 -0.1224
55940W        W98931  14.723  31.109  27.724 -0.0249 -0.3240 -0.0295
55941W        W98932  16.517  16.954   4.874  0.1928 -0.1051  0.0821
55942W        W98933  21.383  14.920   8.995  0.3699 -0.2531  0.2835
55943W        W98934   8.052  23.724  25.550 -0.1324 -0.1737 -0.0532
55944W        W98935  13.758  11.846   5.348  0.0131  0.0422  0.2457
55945W        W98936  11.706  19.236  19.942  0.1020 -0.2070 -0.0409
55946W        W98937  14.131  24.941   3.397  0.1588  0.0051  0.0196
55947W        W98938   3.361   1.265  10.618 -0.2575 -0.0415 -0.1042
55948W        W98939   4.051   9.638   7.910 -0.0080  0.0637 -0.1770
55949W        W98940   1.569  30.272   0.589 -0.2331  0.0756 -0.0416
55950W        W98941  30.476   8.618  27.902 -0.0847  0.1234 -0.2538
55951W        W98942  23.713   6.819  26.150  0.0115 -0.0879  0.0105
55952W        W98943   3.868  30.808  27.903 -0.0403  0.1686  0.1104
55953W        W98944  34.260  13.535  24.864  0.1334 -0.0776  0.1016
55954W        W98945   6.150   3.975   0.468 -0.1294 -0.0535  0.2423
55955W        W98946  31.639   1.336   6.436  0.1336  0.1257 -0.1526
55956W        W98947   4.524  34.519  28.290 -0.2044  0.0623 -0.0507
55957W        W98948   2.973  15.285  17.675  0.2143  0.1099  0.4242
55958W        W98949   1.167  15.653  21.978 -0.2385 -0.1967 -0.0745
55959W        W98950   7.442   5.298   6.906 -0.0779 -0.3718  0.0443
55960W        W98951  30.318   6.500   7.870 -0.2051  0.1498 -0.1127
55961W        W98952   1.103  28.155  18.638  0.0164  0.0573  0.0546
55962W        W98953  29.214  24.342  14.582 -0.3520  0.0232 -0.3286
55963W        W98954  16.335  22.609   7.246 -0.2045 -0.1224 -0.1738
55964W        W98955  22.894   2.238   1.077 -0.2098  0.0243 -0.3186
55965W        W98956   7.263  30.427   6.400  0.0356 -0.3301  0.1940
55966W        W98957  22.924  28.837   3.357 -0.1231  0.0279 -0.1307
55967W        W98958  19.700   7.237  26.464 -0.0869  0.1081  0.1059
55968W        W98959  20.381   2.295   9.514 -0.1087 -0.2071 -0.2223
55969W        W98960  32.339  27.403  24.484 -0.0842 -0.3847  0.0686
55970W        W98961  19.504   7.936  14.103 -0.0639 -0.0157 -0.0425
55971W        W98962  27.284  19.363   1.426 -0.1653 -0.0568 -0.2030
55972W        W98963   2.542   1.336  29.145  0.1126 -0.0100 -0.0393
55973W        W98964  25.141  16.018   2.835  0.2713  0.0266  0.0580
55974W        W98965   3.364  32.571   7.160 -0.1433 -0.0000 -0.2489
55975W        W98966   3.817   8.180  19.183  0.0822  0.0929  0.1483
55976W        W98967  11.797  18.823   2.577  0.1159  0.0842  0.0583
55977W        W98968   3.682  23.893   3.516  0.1321  0.2600 -0.2201
55978W        W98969  29.101  17.915   4.454  0.0312 -0.1146  0.0075
55979W        W98970  34.489  34.634   8.675  0.2789  0.0515 -0.1599
55980W        W98971   8.780  17.976  26.366 -0.3573  0.1537 -0.0579
55981W        W98972   7.623   6.162   3.380 -0.2698  0.1199  0.0349
55982W        W98973   0.666  26.989  26.669 -0.2443  0.3133 -0.0845
55983W        W98974   3.105   1.323  18.505  0.0268  0.0585  0.0467
55984W        W98975   0.817   7.695   8.800  0.2984 -0.1637 -0.2863
55985W        W98976  28.541  18.745   6.695 -0.0222 -0.0417 -0.0918
55986W        W98977  25.482   1.145  27.755  0.0041 -0.1530 -0.0070
55987W        W98978  31.196  23.482   0.777  0.1435 -0.1116 -0.2369
55988W        W98979  26.763  25.463  14.341  0.0466 -0.1789 -0.1610
55989W        W98980   6.603  30.763  16.158 -0.1432 -0.0078  0.1436
55990W        W98981   8.011   9.658  20.362 -0.0274 -0.1631 -0.3968
55991W        W98982  29.441   0.326  12.277  0.1409  0.3734  0.0869
55992W        W98983  18.044   3.466  15.957  0.0553  0.0433  0.1773
55993W        W98984  23.494   8.691   6.108  0.0993  0.1475  0.2061
55994W        W98985  13.953  14.606  20.751 -0.1546  0.0904 -0.0299
55995W        W98986  24.398  15.553   4.455 -0.3780 -0.0920  0.2550
55996W        W98987  31.374   0.640  24.956  0.1884 -0.0235  0.1237
55997W        W98988   2.129  19.358   6.155 -0.4406  0.3345 -0.1652
55998W        W98989  21.983   7.873  20.117 -0.2097  0.1138  0.0608
55999W        W98990   3.902  10.258   4.308 -0.1302 -0.0880  0.3710
56000W        W98991   6.736   6.317   1.515 -0.1843  0.1533 -0.1009
56001W        W98992  27.605  24.467   2.834  0.1092  0.2600 -0.1525
56002W        W98993   5.053   1.512   4.413 -0.0270 -0.0492 -0.1476
56003W        W98994  32.118  24.433  22.058  0.0250  0.2174  0.0308
56004W        W98995   3.738  13.347  26.813 -0.3337  0.2273  0.0499
56005W        W98996  25.808  29.516   2.021  0.1002  0.1084  0.1708
56006W        W98997   8.309  10.295  28.234  0.2800 -0.0883  0.2764
56007W        W98998   8.422  15.915   4.899 -0.0274 -0.1502  0.0383
56008W        W98999   4.814   5.529  27.414 -0.3305  0.1457  0.2966
56009W        W99000  14.375  18.016  24.149  0.1464 -0.0355 -0.0758
56010W        W99001  32.168  19.498  10.402 -0.2717 -0.2022 -0.1762
56011W        W99002  21.281  31.423   0.375 -0.0200 -0.0005 -0.0620
56012W        W99003   9.002  29.270  24.005  0.1897 -0.1327 -0.0669
56013W        W99004  32.401  11.754  25.255  0.0444  0.2530  0.3018
56014W        W99005  24.686  31.788  25.481 -0.2919  0.0200  0.1244
56015W        W99006   1.866   6.244   0.011  0.0507 -0.0839  0.1207
56016W        W99007  14.592  21.979  26.432  0.3864  0.1754 -0.2090
56017W        W99008  25.638   4.475   5.750  0.2442  0.3535 -0.0435
56018W        W99009  23.547  19.055   0.737 -0.0030  0.1976 -0.1138
56019W        W99010  24.236  31.532   9.559 -0.1469  0.0845  0.0327
56020W        W99011   2.170  13.604  26.944  0.1787 -0.0130 -0.1194
56021W        W99012   2.563  32.342  19.007  0.4168  0.2698  0.0748
56022W        W99013   8.752  29.283   0.476  0.0677 -0.1481  0.0699
56023W        W99014  19.294  21.253   4.002  0.0974  0.1003 -0.0737
56024W        W99015  31.518  25.940   8.980 -0.0206 -0.4125  0.2059
56025W        W99016   6.824  32.420   0.058 -0.1818 -0.1734  0.2834
56026W        W99017   9.676  24.352   7.821  0.0787  0.0408  0.0150
56027W        W99018  22.934   6.398   4.203 -0.0072  0.1353  0.0522
56028W        W99019  24.570  24.550  26.764  0.0051 -0.0698  0.0506
56029W        W99020   7.974  26.213   8.263  0.2291 -0.0570  0.2027
56030W        W99021  32.166  32.868   6.888  0.0145  0.3501 -0.1333
56031W        W99022   0.017  31.742   6.726  0.1695  0.0572 -0.1888
56032W        W99023   3.872  24.355  23.711  0.2977  0.1094 -0.1003
56033W        W99024  30.436  20.834   6.745  0.2777  0.2204  0.1570
56034W        W99025   4.624  32.524  16.421 -0.2011  0.0199 -0.3374
56035W        W99026   1.499   7.211  21.346  0.0478  0.0750 -0.1889
56036W        W99027  11.961   0.585   6.621  0.2846 -0.0082 -0.1742
56037W        W99028   9.192  12.969   7.984  0.0808 -0.1458  0.0665
56038W        W99029  28.753   2.470   5.977 -0.3738 -0.0947 -0.1324
56039W        W99030  16.504  29.953  18.524 -0.0807 -0.1614 -0.2285
56040W        W99031   5.953   1.956   6.128 -0.0006 -0.0500  0.0880
56041W        W99032   3.544   0.447  15.916 -0.0643  0.1042  0.0820
56042W        W99033  27.645  22.696  22.804 -0.2913 -0.1580 -0.1410
56043W        W99034  34.357  18.587   4.798  0.1573  0.2131 -0.3813
56044W        W99035  34.553   9.159  28.716  0.1516 -0.0009 -0.1263
56045W        W99036   0.841   1.033  23.593 -0.1060 -0.0429 -0.1213
56046W        W99037  34.394  33.913   9.867  0.3110 -0.1283  0.1387
56047W        W99038  33.211  12.134   5.593 -0.0965 -0.3332  0.2098
56048W        W99039   4.008  28.753   7.498  0.1783  0.1223  0.0388
56049W        W99040  32.579   9.618   0.247  0.0621 -0.0247  0.0181
56050W        W99041  12.780   0.894  26.366 -0.1130  0.0283 -0.2005
56051W        W99042  30.440  15.863   2.915  0.0346 -0.1112  0.2225
56052W        W99043  29.779  31.990   6.021 -0.2957  0.0552  0.1490
56053W        W99044  13.394   0.964  28.128  0.1022 -0.3819  0.0215
56054W        W99045  13.513   1.723   8.835 -0.0633 -0.1472  0.0441
56055W        W99046   6.210  25.168  28.561 -0.1743 -0.1555 -0.3193
56056W        W99047  15.381  18.043  20.827 -0.2670 -0.0648  0.2205
56057W        W99048  30.367  24.957   7.384 -0.1360  0.2026 -0.3826
56058W        W99049  22.094  27.201   9.034 -0.2457  0.1184 -0.0695
56059W        W99050   9.757   0.375   2.737  0.1175  0.2074 -0.0480
56060W        W99051  15.488   3.984   6.051 -0.0276 -0.1005  0.0932
56061W        W99052   8.379  22.369  24.965  0.0094  0.1475 -0.0366
56062W        W99053   2.779  20.233   8.751  0.1003  0.0081 -0.0815
56063W        W99054  27.914  29.938   3.770 -0.0481 -0.0286 -0.5237
56064W        W99055  32.948  28.234   8.776 -0.0675 -0.0058  0.1042
56065W        W99056   5.071   4.225  23.575 -0.3041  0.0363  0.3292
56066W        W99057   0.151  24.178   3.288  0.2862  0.0364 -0.3598
56067W        W99058  24.799  23.690  27.783 -0.1436  0.1703 -0.1142
56068W        W99059   3.168  25.736   8.666 -0.0412 -0.1201 -0.0874
56069W        W99060  30.658  17.584   4.678 -0.3018 -0.0730 -0.4573
56070W        W99061  29.401  34.437   2.199  0.0358 -0.0127  0.0331
56071W        W99062   5.601  29.011   4.725 -0.0994  0.0804 -0.2433
56072W        W99063  24.977  24.211  17.481 -0.1945 -0.0158  0.1611
56073W        W99064  32.122   9.101   7.160 -0.1196 -0.0490 -0.0428
56074W        W99065   0.513  13.034   3.245 -0.3555 -0.1934  0.0482
56075W        W99066   1.844  12.442   9.208 -0.3330 -0.2323  0.0400
56076W        W99067  32.835  23.816   9.708 -0.0506  0.2184 -0.3856
56077W        W99068  19.706  14.203  25.227  0.0720  0.1852 -0.1286
56078W        W99069   8.094  21.677   5.489 -0.1611  0.2668 -0.0881
56079W        W99070   2.515   1.056   4.903 -0.3821  0.1749 -0.1641
56080W        W99071  10.824  17.867   4.427  0.0669 -0.1190  0.0089
56081W        W99072   7.973   5.296   8.553  0.3266 -0.1135 -0.0000
56082W        W99073  31.540  29.929  21.925 -0.5273  0.4045 -0.0758
56083W        W99074  16.349  33.732   3.512  0.3926  0.0038  0.1474
56084W        W99075   3.812   9.943   9.890 -0.1708 -0.3520 -0.0482
56085W        W99076   0.827   3.481   2.150 -0.1558  0.0893 -0.2991
56086W        W99077  14.526  25.270   8.096  0.1101 -0.0588 -0.3868
56087W        W99078   1.293   0.263  19.607  0.0792 -0.0360 -0.1963
56088W        W99079   3.873  11.118  19.716 -0.1085 -0.0947 -0.1930
56089W        W99080  15.602  26.481   9.024 -0.2577  0.0460 -0.0276
56090W        W99081   5.101   3.168  18.470 -0.0522 -0.3558 -0.0333
56091W        W99082  29.043  15.265   1.055  0.0309  0.0913  0.1715
56092W        W99083  21.489   0.335   8.571 -0.0733 -0.4983 -0.0166
56093W        W99084  32.579  34.314  25.828 -0.0151 -0.0462 -0.0307
56094W        W99085   7.536  33.947   8.596 -0.0565  0.1306  0.0412
56095W        W99086  14.683   5.090  23.997  0.3904 -0.2034 -0.4380
56096W        W99087  16.773  23.385  23.946 -0.0587  0.2169  0.2700
56097W        W99088   4.157  29.254   3.177  0.0836 -0.0892 -0.2084
56098W        W99089  30.351  26.503   1.977 -0.1801  0.1962  0.0187
56099W        W99090   5.479  29.123   6.937  0.0803  0.1258  0.1042
56100W        W99091  13.229  33.283   2.145  0.0552  0.0541 -0.1701
56101W        W99092  27.130   4.610   4.997  0.3531 -0.1002  0.0822
56102W        W99093  28.475  23.974   1.480 -0.0393  0.3148 -0.2760
56103W        W99094  25.645  32.466  20.719  0.1737 -0.2930 -0.2228
56104W        W99095  29.462  13.876  10.493 -0.2271  0.1698 -0.0443
56105W        W99096  28.588  27.356  21.697  0.0564  0.2397  0.1230
56106W        W99097  30.755   6.720   7.019  0.0235  0.0575 -0.0290
56107W        W99098  12.286  24.325  21.816  0.0622 -0.1621  0.0892
56108W        W99099  29.855  19.559   9.909 -0.1531 -0.2879  0.0912
56109W        W99100   3.308  27.811  22.335  0.2701  0.1851 -0.0506
56110W        W99101  20.170  15.928   5.970  0.1914 -0.1484  0.0106
56111W        W99102   7.296  24.679   1.402 -0.1251 -0.1376  0.0386
56112W        W99103  26.968   6.066  16.896 -0.4081  0.0400  0.0568
56113W        W99104  26.711  30.609   7.062  0.1954 -0.1691  0.0590
56114W        W99105   0.554  30.405  24.285  0.0289  0.0444 -0.0506
56115W        W99106  26.895  23.312   6.992  0.1313  0.0474 -0.1452
56116W        W99107  15.492   8.071  21.740  0.0069  0.2110  0.1488
56117W        W99108  21.543  23.055   0.132  0.0040 -0.2163 -0.2435
56118W        W99109  34.241   3.536  15.467  0.0140 -0.1897 -0.0145
56119W        W99110  32.084  31.342   8.136 -0.0775  0.1485  0.0763
56120W        W99111   0.232   8.245   9.431  0.1905 -0.3138  0.0219
56121W        W99112   3.548   0.977  18.583  0.3664 -0.0409  0.2042
56122W        W99113  26.764  19.213  20.198 -0.0313  0.0697 -0.0985
56123W        W99114  32.241   1.113  22.669  0.0575  0.0811  0.2893
56124W        W99115  16.838   9.781  24.303  0.2612 -0.0073  0.2418
56125W        W99116   8.491  23.068  27.640 -0.1097 -0.0044  0.1464
56126W        W99117  27.366  29.782  13.296  0.0573 -0.0910  0.2330
56127W        W99118   4.135   4.422  10.633 -0.0361 -0.1569 -0.1651
56128W        W99119  29.915   0.028  20.007  0.1272 -0.0275  0.3581
56129W        W99120  22.734  24.810   6.505  0.0652 -0.1585  0.2034
56130W        W99121  24.131   0.245  19.130  0.2004 -0.0010  0.0101
56131W        W99122   1.313  31.254  24.651  0.4719 -0.3218 -0.1982
56132W        W99123  17.051   4.813   8.172  0.0212 -0.0651  0.0096
56133W        W99124  21.452   5.623  21.780 -0.0816 -0.0934  0.3404
56134W        W99125   4.918   8.164   0.310  0.3751 -0.0401 -0.0558
56135W        W99126  16.014  16.740  15.768 -0.2815 -0.0626 -0.2792
56136W        W99127   3.195  29.673  21.873  0.1180  0.0766  0.1897
56137W        W99128  23.155  12.510  28.101 -0.1921  0.0069  0.0265
56138W        W99129   1.059  18.083  26.074 -0.0211  0.1435 -0.2488
56139W        W99130   6.579   7.032   9.140 -0.0102 -0.0023  0.1814
56140W        W99131  33.662  26.451   5.401 -0.0184 -0.1705  0.6293
56141W        W99132   4.287  30.934  18.542 -0.1556  0.6226 -0.0473
56142W        W99133  15.323   5.871  26.903 -0.0141 -0.1689 -0.3877
56143W        W99134  24.426  22.403   0.904  0.2071 -0.0043  0.1552
56144W        W99135   2.462  30.515   9.219 -0.1074 -0.0763 -0.2203
56145W        W99136  26.372  34.149   8.278  0.0862  0.1784  0.1327
56146W        W99137  30.938  32.605  27.877  0.1600 -0.0188  0.1215
56147W        W99138  24.496  23.861   9.478  0.1519 -0.2301 -0.0099
56148W        W99139  30.765  12.372   1.695  0.1997  0.3087 -0.1056
56149W        W99140  24.460  20.271  29.179  0.4705  0.2783  0.1066
56150W        W99141  30.042  11.426   8.571  0.1419 -0.1471  0.2683
56151W        W99142  18.570   3.420   7.068  0.0057 -0.1491 -0.2487
56152W        W99143  31.915   3.118   5.323  0.0661 -0.0873 -0.2646
56153W        W99144  22.628  12.171   5.416 -0.0073  0.2566 -0.0226
56154W        W99145  13.533   6.483   0.156 -0.3026 -0.1449 -0.2338
56155W        W99146   4.622  15.794   6.285  0.0904 -0.2001  0.0759
56156W        W99147   8.814   0.322  24.095 -0.0286 -0.0570  0.4901
56157W        W99148   0.407  15.840  24.717  0.3938 -0.1405 -0.1628
56158W        W99149   3.169  19.102   4.847  0.0227 -0.1770 -0.3766
56159W        W99150  15.252  26.819   8.769  0.0976 -0.1553  0.2667
56160W        W99151   8.019  26.472  25.993 -0.0721 -0.2141  0.0508
56161W        W99152   6.748  28.476   1.283  0.2562  0.1896 -0.0201
56162W        W99153   0.164  28.975  27.534 -0.0978  0.1922 -0.4966
56163W        W99154  26.836  32.986  26.346  0.0968 -0.1170 -0.0737
56164W        W99155  30.959  32.736  21.026 -0.1889 -0.2529  0.3418
56165W        W99156   0.968  16.434  11.239  0.0537  0.1084  0.4560
56166W        W99157  23.972  28.667   2.167  0.0305 -0.1774 -0.1530
56167W        W99158   9.769  19.340   4.280  0.1680  0.2326 -0.1124
56168W        W99159  30.821  23.447   8.288  0.0380  0.0349  0.1335
56169W        W99160   2.906   1.608  20.068 -0.0242 -0.1271 -0.0703
56170W        W99161  20.418  15.525  29.149 -0.1188 -0.1150  0.1285
56171W        W99162   8.902   8.378   5.417  0.1794  0.2210 -0.0194
56172W        W99163  17.951  25.707  21.518 -0.0109  0.0665 -0.2461
56173W        W99164   1.144  25.051  24.071  0.0819  0.1417 -0.4451
56174W        W99165  29.193  24.884  26.764 -0.0581  0.1628 -0.4140
56175W        W99166   1.537  11.427   8.794  0.0116  0.1898 -0.2285
56176W        W99167  34.706   2.332   0.691 -0.0565 -0.1361 -0.1744
56177W        W99168  29.137  31.951   3.056 -0.1927  0.0821 -0.0781
56178W        W99169   6.996  28.637   3.306 -0.2808 -0.1540 -0.1089
56179W        W99170   1.944  12.258   2.354  0.0580 -0.2536  0.2406
56180W        W99171   2.236   8.825   1.843 -0.2334 -0.0308  0.1347
56181W        W99172   9.948  20.472  29.146  0.1523 -0.0289 -0.0635
56182W        W99173  28.958  22.640   8.884 -0.1499 -0.2052  0.0712
56183W        W99174  27.833  21.067   0.934 -0.0056 -0.1166 -0.1697
56184W        W99175   8.597  34.647   9.873  0.0630 -0.0580 -0.2543
56185W        W99176  23.300  32.102   1.071 -0.2150  0.1573  0.2708
56186W        W99177  23.115  31.655   1.279 -0.2276 -0.0083  0.2350
56187W        W99178  34.589  22.538   9.826 -0.0284  0.3860 -0.0627
56188W        W99179  34.262   2.533  28.578 -0.0191 -0.0385  0.1079
56189W        W99180  28.728  25.397  28.883 -0.1930 -0.3167 -0.0888
56190W        W99181  15.944   4.153   9.392  0.3049 -0.2194  0.2309
56191W        W99182   9.534  22.616   0.897  0.0633 -0.0080  0.1827
56192W        W99183   5.103   5.527   3.762 -0.0031 -0.4010  0.1090
56193W        W99184   3.948  32.580   3.048 -0.0053 -0.2356 -0.1814
56194W        W99185  12.188   5.876   1.641  0.0689  0.2400 -0.0672
56195W        W99186  10.558  21.166   8.605  0.1703 -0.0771  0.4057
56196W        W99187   5.290  26.115   7.944 -0.0491 -0.0317 -0.1681
56197W        W99188  32.687   0.174   7.355  0.1694 -0.2508 -0.3000
56198W        W99189   3.131  14.269  10.688  0.3351 -0.1094  0.1485
56199W        W99190  31.414   5.332   0.722 -0.3310 -0.3857 -0.3140
56200W        W99191   0.007  26.083  29.235  0.0569  0.0454  0.1952
56201W        W99192  11.364  32.028   4.581  0.0183 -0.0701  0.6151
56202W        W99193  30.453  10.791   2.802  0.1548 -0.2812 -0.2743
56203W        W99194  10.317  23.645   6.826  0.1367  0.0417 -0.1304
56204W        W99195  17.895  32.257  24.123  0.0209 -0.0871  0.1234
56205W        W99196   6.617  28.378   3.553 -0.1353  0.1991  0.0674
56206W        W99197  12.832  25.970   7.029 -0.2188  0.4599 -0.1081
56207W        W99198  26.592  31.151   0.960  0.0382  0.0964 -0.4485
56208W        W99199  24.462  26.926  26.828 -0.2023  0.0868 -0.1047
56209W        W99200   8.020   7.708  20.535 -0.4713  0.0846  0.0704
56210W        W99201  28.382  29.383  24.912 -0.1745  0.1424  0.0702
56211W        W99202   5.755  31.406   9.876 -0.2568 -0.0659 -0.0553
56212W        W99203  30.073  33.257   9.087 -0.0190 -0.2304 -0.0072
56213W        W99204   7.186   3.328  25.075 -0.3682 -0.0453 -0.1332
56214W        W99205   9.934  30.402   1.788  0.0094 -0.0539 -0.0568
56215W        W99206  31.508  27.580  27.612 -0.0426  0.2760 -0.1262
56216W        W99207  28.113  28.246   7.388 -0.2876  0.0691 -0.2338
56217W        W99208  29.517  15.971   1.456 -0.1120  0.0106  0.0693
56218W        W99209  26.608  31.658  28.355  0.2618 -0.0204  0.0058
56219W        W99210   1.849  30.329  10.097 -0.0385 -0.4407  0.0826
56220W        W99211  30.089  28.855  15.726  0.1063 -0.0650 -0.0310
56221W        W99212  33.603  12.843  25.850 -0.1891  0.0699  0.1395
56222W        W99213   0.795  24.327  25.157  0.1949 -0.4045 -0.1214
56223W        W99214  17.160  21.560  18.056 -0.1050 -0.0691 -0.0876
56224W        W99215  29.532  31.687   1.697  0.2115 -0.1002  0.1082
56225W        W99216  12.306  23.557   0.900  0.4295 -0.2196  0.0940
56226W        W99217  32.333  29.463   1.602  0.2659  0.0354 -0.0696
56227W        W99218   8.116  32.190   6.925  0.1524  0.1843  0.1640
56228W        W99219  24.134  29.505   3.355 -0.2476  0.0890  0.0484
56229W        W99220  27.927  29.827   1.173 -0.1924  0.0306 -0.2214
56230W        W99221   2.351  28.783   1.128 -0.1981  0.0172 -0.0329
56231W        W99222  13.232  28.897   3.577 -0.1131 -0.1772  0.2208
56232W        W99223   3.367  27.624   6.064 -0.2404  0.1757  0.1185
56233W        W99224  22.443  31.983   6.752  0.0823 -0.2685  0.0048
56234W        W99225  10.258  15.236  25.265 -0.2175 -0.0139 -0.2069
56235W        W99226  31.736  22.083   9.182  0.0347 -0.4049 -0.0781
56236W        W99227   5.613   0.307   5.452 -0.0287  0.0825  0.2026
56237W        W99228  30.129   2.813   6.048 -0.2562  0.1964  0.0595
56238W        W99229  33.945  14.936   4.716 -0.0279 -0.0243 -0.0657
56239W        W99230  25.126  31.436   5.929 -0.4496  0.0547 -0.1180
56240W        W99231   6.014   8.556   8.446 -0.1761 -0.0498  0.0543
56241W        W99232   1.042   2.575  25.486  0.4617  0.1215 -0.0580
56242W        W99233  24.324  13.138   0.974  0.0141 -0.1222 -0.0705
56243W        W99234   3.665   2.740   8.436 -0.0095  0.4516 -0.2539
56244W        W99235  18.817  31.342  22.370 -0.0608  0.5733 -0.1061
56245W        W99236  25.643   5.201   9.187  0.0056 -0.3971 -0.3008
56246W        W99237  15.601   5.123   8.370  0.1921  0.3305 -0.1868
56247W        W99238  12.221  14.177  22.656  0.1255  0.1743 -0.0074
56248W        W99239   6.318   7.958   7.475 -0.0747  0.0549  0.2180
56249W        W99240  20.379  26.395   8.509  0.0106  0.1078 -0.1863
56250W        W99241   3.997  12.753   1.559  0.5093  0.0573  0.0838
56251W        W99242   1.503  28.504   7.982  0.1995  0.1182 -0.2875
56252W        W99243   8.246  10.844  10.075  0.1455  0.0433 -0.1231
56253W        W99244   3.539  33.157   7.172 -0.0402  0.2606  0.0491
56254W        W99245   9.625  11.421  28.682  0.0051 -0.2176  0.3284
56255W        W99246  23.091   5.126   7.812 -0.1119 -0.1724  0.3490
56256W        W99247  32.359   2.443   1.890 -0.2298  0.0389  0.1938
56257W        W99248  33.242  30.353   1.651  0.2175  0.2125 -0.6379
56258W        W99249  23.168   4.519   6.115  0.1278  0.0655  0.2335
56259W        W99250   3.960  26.073  22.895  0.0894 -0.1885  0.2863
56260W        W99251   7.320  30.377   5.889 -0.1675 -0.1569  0.1388
56261W        W99252   9.213  29.991  15.689  0.0523 -0.0082 -0.0745
56262W        W99253  25.234   7.573   4.752 -0.0517  0.1064 -0.1171
56263W        W99254  14.467  34.071  26.780 -0.2401  0.1945  0.2140
56264W        W99255   8.686  29.503   8.621  0.2286 -0.0924 -0.5490
56265W        W99256   9.555  26.227  28.912 -0.0440  0.2332  0.1989
56266W        W99257   8.715   1.182   0.546  0.0144  0.0594 -0.1567
56267W        W99258   5.141  32.262  26.308 -0.1972 -0.2659  0.1856
56268W        W99259  25.234   3.459  16.067  0.0904 -0.0786  0.0246
56269W        W99260  21.748   0.800   2.847  0.1578 -0.2421 -0.0135
56270W        W99261  21.852   1.063   7.318 -0.0675  0.1243 -0.3853
56271W        W99262   7.860  26.698   8.812  0.1352  0.0612 -0.2680
56272W        W99263  33.193   9.261  25.502 -0.1043 -0.0185  0.2329
56273W        W99264   6.012  33.003   7.278 -0.1225  0.1996  0.2500
56274W        W99265  10.416  21.728   5.034  0.4955 -0.2117  0.1786
56275W        W99266  26.862   4.669   4.292  0.2215  0.4630 -0.0180
56276W        W99267   4.261  22.207   9.087  0.2328 -0.1052 -0.0211
56277W        W99268  27.880   1.397   5.262  0.0545 -0.0757  0.1883
56278W        W99269  28.277  34.317   0.235 -0.1342 -0.0011 -0.4259
56279W        W99270   3.072   9.252  23.333 -0.1235 -0.0161 -0.1063
56280W        W99271   4.975   0.527   9.347  0.0698  0.2128  0.3008
56281W        W99272  28.171  11.155   6.734 -0.2302 -0.4327  0.3801
56282W        W99273  32.881  31.617   6.722 -0.1546 -0.0286 -0.0411
56283W        W99274  15.436   3.829  27.300  0.0761 -0.0546  0.0529
56284W        W99275   1.395  28.844   4.856  0.0613  0.2057 -0.2517
56285W        W99276  29.969  11.138  10.613 -0.1479  0.1271 -0.1475
56286W        W99277  27.295   2.981  28.353  0.0657  0.0958 -0.0476
56287W        W99278  34.128   3.333   4.885  0.2350  0.1901  0.1297
56288W        W99279   6.744   4.220   4.274 -0.1012 -0.0633  0.0833
56289W        W99280  22.289  27.355   7.439 -0.2087  0.1306  0.5195
56290W        W99281   6.722  26.899  25.930  0.0805 -0.1053  0.0866
56291W        W99282  31.812   6.352   8.361 -0.2515 -0.2838 -0.2837
56292W        W99283   8.502   9.769   3.303  0.3586 -0.1411 -0.1901
56293W        W99284   5.622  13.605   3.734 -0.0617 -0.2166  0.1631
56294W        W99285   5.480   0.713   9.403 -0.2583  0.0429 -0.1028
56295W        W99286   7.940  17.109   9.965 -0.0831 -0.1021  0.1104
56296W        W99287  11.013  19.603  28.639 -0.4177  0.1979 -0.1103
56297W        W99288  34.783  13.567   8.759  0.3898  0.0561 -0.1669
56298W        W99289  22.941  20.240  22.672 -0.1479 -0.1160  0.0552
56299W        W99290  11.003  32.656   3.728 -0.0630 -0.1022  0.0789
56300W        W99291   2.349  13.858  11.478 -0.2208 -0.1223 -0.0684
56301W        W99292   1.688  17.228  10.144  0.1139 -0.1783  0.1188
56302W        W99293   7.071  33.184  22.847  0.2638 -0.0371  0.1120
56303W        W99294  12.302  25.846   4.726  0.0343  0.2746 -0.2165
56304W        W99295  29.600  29.429  28.313  0.2717 -0.0380  0.1992
56305W        W99296   2.024  25.381  28.656  0.2269 -0.3973 -0.1911
56306W        W99297  11.995  15.008  27.042  0.1025  0.0436 -0.0445
56307W        W99298   6.105  18.445   0.760  0.0028  0.1573  0.2254
56308W        W99299  32.984   3.738   2.196  0.1808 -0.0088  0.4370
56309W        W99300  22.544  27.856   6.583  0.0966 -0.2336 -0.0144
56310W        W99301   1.296  25.923   7.016 -0.0681  0.1427 -0.1425
56311W        W99302  16.129  15.782  13.767  0.2161  0.2697 -0.1636
56312W        W99303  30.042  21.456   9.568 -0.2013  0.0082  0.0752
56313W        W99304   1.864   4.246   8.785 -0.0534  0.3255  0.1811
56314W        W99305   0.023  11.566  23.602 -0.0638 -0.1131 -0.1615
56315W        W99306  29.128  20.620   8.759  0.0466 -0.1328 -0.0234
56316W        W99307  33.163   3.286  26.483 -0.2746 -0.1150 -0.0560
56317W        W99308  31.081  31.383   5.270  0.0195 -0.3010 -0.3364
56318W        W99309  18.756  29.683   7.405  0.1635 -0.0075 -0.0528
56319W        W99310   4.719   4.817  27.074  0.1305 -0.3660 -0.2171
56320W        W99311   3.020   0.101  25.976 -0.0756  0.0850  0.1331
56321W        W99312  31.258   2.068   0.080  0.0397 -0.0377  0.2258
56322W        W99313  31.143  23.806   3.638 -0.1906  0.1910  0.0674
56323W        W99314   6.249  19.405   7.677 -0.2943 -0.3282  0.0211
56324W        W99315  30.341  21.974  14.695  0.3004  0.1025  0.3214
56325W        W99316  21.799   3.655  25.409 -0.2266 -0.0091 -0.1236
56326W        W99317   0.494  16.436   9.754  0.3045  0.1032 -0.1958
56327W        W99318   2.343  28.670   9.436  0.3280 -0.0533  0.0092
56328W        W99319  13.930  26.618  26.822 -0.0597  0.0043  0.0250
56329W        W99320  26.657   2.407   1.065 -0.0263 -0.0868 -0.2736
56330W        W99321  25.088   8.881  24.678  0.1036 -0.2225  0.0384
56331W        W99322  32.986   2.842   0.818  0.1145 -0.0921 -0.1381
56332W        W99323  24.171  22.557  21.105  0.0051 -0.0699 -0.0489
56333W        W99324   0.608  30.916   3.393  0.2120 -0.1547 -0.0772
56334W        W99325   1.058  20.051  20.562  0.2950  0.0687 -0.0532
56335W        W99326  23.855  18.019   2.432  0.0634 -0.0128 -0.0489
56336W        W99327  34.279  26.940   7.616 -0.0849 -0.3006 -0.1079
56337W        W99328  29.502  26.825   4.964  0.1001  0.2778 -0.1403
56338W        W99329   0.870   0.469   1.486 -0.2085 -0.0427  0.0260
56339W        W99330  15.899  28.275   3.400 -0.1548 -0.1237 -0.1643
56340W        W99331  23.182  33.199  26.080 -0.1681  0.2616  0.0786
56341W        W99332  21.509   1.722   9.112  0.0424  0.0006 -0.0361
56342W        W99333  32.021  30.863   4.037  0.0148  0.5001  0.2310
56343W        W99334  31.959   3.829   3.682  0.0458  0.1367  0.1699
56344W        W99335   0.913  15.037  25.058 -0.0029  0.1270 -0.1433
56345W        W99336   9.871  23.594   7.138  0.1403  0.1328 -0.1957
56346W        W99337  10.012  28.657  23.871 -0.2482  0.3433 -0.0105
56347W        W99338  14.783  29.469   8.012  0.1365 -0.1694 -0.0565
56348W        W99339  28.145  31.588   7.100  0.1255  0.0038  0.0774
56349W        W99340  22.063  25.713   5.998  0.1540 -0.0130 -0.0025
56350W        W99341   4.379   7.565   7.578  0.3053  0.1883  0.0289
56351W        W99342   6.603  22.521   0.479  0.1210 -0.2250  0.0540
56352W        W99343  25.376  21.189   5.058  0.0197  0.0004  0.0382
56353W        W99344  10.056  24.734  18.326 -0.2613 -0.4430 -0.0360
56354W        W99345  29.466  25.846  13.976 -0.0462  0.1055 -0.0480
56355W        W99346  33.847   5.396   7.127 -0.0226  0.1656  0.2740
56356W        W99347   7.153  32.388   3.073 -0.0803  0.0166 -0.4189
56357W        W99348   5.752  28.919   2.763  0.0302  0.1305  0.0439
56358W        W99349  25.963  13.800   7.795  0.0779  0.3292 -0.2054
56359W        W99350   7.524   9.489   3.766  0.0334 -0.0963  0.0821
56360W        W99351   2.500  30.984  25.174 -0.0398 -0.2923  0.2288
56361W        W99352  13.198  19.185  25.763  0.0820  0.2338  0.0569
56362W        W99353  32.020  19.101   4.791  0.0287 -0.1061 -0.0001
56363W        W99354   2.880   7.197  25.210  0.1530 -0.4314  0.0574
56364W        W99355   1.151   5.768  10.312  0.2906  0.1199 -0.2263
56365W        W99356   9.174  34.662  25.102 -0.2276 -0.0976  0.1662
56366W        W99357  25.300  24.516  28.113  0.0081  0.0030 -0.1665
56367W        W99358  31.159  27.310   4.468  0.0702  0.1929  0.1978
56368W        W99359  26.544  33.387   5.617  0.0524 -0.1382  0.2892
56369W        W99360   9.836  11.932  27.890  0.0838  0.2686 -0.0989
56370W        W99361  32.842  28.333  25.520  0.4013  0.1901  0.0394
56371W        W99362  33.934   0.179   6.644 -0.1769  0.0615 -0.0201
56372W        W99363   5.341  23.760  10.020  0.1864 -0.2132 -0.2340
56373W        W99364  18.611  17.175   7.223  0.1548 -0.1515 -0.0516
56374W        W99365  28.174   6.035   9.032 -0.0758  0.2566  0.0709
56375W        W99366  29.291   6.718  26.484 -0.3587 -0.0323  0.2089
56376W        W99367   9.286   1.246  28.348  0.0204 -0.1608 -0.2985
56377W        W99368   5.388  32.545   1.328  0.1920 -0.0296 -0.1095
56378W        W99369  26.810  27.862   9.531  0.5105  0.0131  0.1230
56379W        W99370  23.565  27.986  28.755  0.0427  0.3044  0.0298
56380W        W99371   2.878   3.649   0.082 -0.0859 -0.1914 -0.4657
56381W        W99372   9.902  25.339   4.605 -0.0750  0.1004  0.0206
56382W        W99373  14.665  30.147   8.715 -0.4101  0.0729 -0.0665
56383W        W99374  17.736   9.805   6.696  0.0078 -0.2133 -0.0591
56384W        W99375  29.026  28.556  24.304 -0.1519  0.1349  0.2063
56385W        W99376   4.542   3.234   5.211  0.0254  0.0993 -0.1935
56386W        W99377  14.907  30.627   8.328 -0.0067  0.2572 -0.0786
56387W        W99378   5.876   4.353  21.893  0.0504  0.0572 -0.0482
56388W        W99379   7.725  30.795   4.471 -0.1083  0.1195  0.0151
56389W        W99380   2.881   1.475   2.549  0.0895 -0.0280  0.1303
56390W        W99381   0.138  22.648  23.638  0.2910  0.1492 -0.1932
56391W        W99382  34.422  26.854   6.668 -0.0875  0.0716  0.2365
56392W        W99383  25.302  34.072  28.317 -0.1128 -0.1909 -0.3215
56393W        W99384  30.931  31.293   1.488  0.0836 -0.0374  0.2956
56394W        W99385  34.437  31.760   4.439  0.0275  0.2703  0.0474
56395W        W99386   5.017  28.388   5.973  0.0845  0.1079 -0.1310
56396W        W99387  20.645   2.651   4.234  0.2226  0.1237  0.2084
56397W        W99388   0.950   8.117   3.930  0.0565 -0.1600 -0.2456
56398W        W99389  34.319  34.676   7.020  0.2307  0.1413 -0.0377
56399W        W99390  33.296   8.997  10.424  0.0247  0.1854  0.0715
56400W        W99391   3.298  29.418  28.795  0.0443  0.1220 -0.3111
56401W        W99392  30.428  26.129  25.211 -0.0091  0.2849 -0.1328
56402W        W99393  33.156  18.940   7.666  0.3039 -0.0214  0.0492
56403W        W99394  32.013  10.273  15.853 -0.2229  0.4362 -0.1161
56404W        W99395   0.386  16.894   9.490  0.0129  0.1258 -0.3566
56405W        W99396   2.665  16.851   5.302  0.1725  0.1797  0.0477
56406W        W99397  21.631   4.565  20.551 -0.0529 -0.0444 -0.0620
56407W        W99398   1.313  27.054   8.824 -0.2513 -0.0380 -0.0355
56408W        W99399  20.798  15.249  24.408  0.0723  0.2149 -0.0353
56409W        W99400  26.817  29.812  25.898  0.1683 -0.0085 -0.3300
56410W        W99401   0.647   0.620   2.976  0.0950 -0.0120  0.2395
56411W        W99402   3.092  27.415   0.624 -0.1562 -0.0510 -0.0391
56412W        W99403   1.960  23.088   9.122  0.0522  0.1302  0.1233
56413W        W99404   6.139  21.408   1.004  0.2725 -0.3570  0.0564
56414W        W99405  28.591   4.621  28.979  0.1214  0.0219  0.1648
56415W        W99406   7.259  29.350   8.064  0.1419 -0.1585  0.1796
56416W        W99407  32.860  26.662   1.366 -0.3802 -0.1514 -0.0187
56417W        W99408   8.612  31.276   4.512  0.0656 -0.2743  0.2412
56418W        W99409   4.805   1.601   3.973 -0.2294  0.0272  0.0319
56419W        W99410  33.074  16.486  28.389 -0.0088 -0.2240  0.3243
56420W        W99411   7.718   2.664   2.109  0.2067 -0.1019 -0.0536
56421W        W99412   9.201  25.917  28.653 -0.3232  0.1494 -0.2117
56422W        W99413  33.680   0.182   6.092  0.3061  0.0292  0.2834
56423W        W99414  32.766   1.996  19.426  0.0889 -0.0251  0.0189
56424W        W99415  17.212   5.076   9.093 -0.1674  0.0223  0.1048
56425W        W99416  15.720  31.498   2.613 -0.3031  0.0063 -0.0405
56426W        W99417   1.784  20.414   3.347  0.5363 -0.3123  0.2322
56427W        W99418   7.187  29.627   7.673 -0.1197  0.3624 -0.3666
56428W        W99419  13.507  32.207  27.289  0.3823 -0.0762 -0.2276
56429W        W99420   7.670   6.120  25.782  0.3102  0.1441  0.0919
56430W        W99421   6.207  10.377   8.939 -0.2002  0.0515  0.0254
56431W        W99422   0.331  34.765  14.799  0.0596 -0.1703 -0.0283
56432W        W99423   5.843  10.081  23.736 -0.0391  0.1248  0.0143
56433W        W99424  16.335   0.451   1.036  0.0696  0.0804  0.3614
56434W        W99425  24.012  29.933   1.039  0.3031 -0.1481  0.1313
56435W        W99426   3.238  29.541   1.910 -0.0552 -0.1374 -0.1408
56436W        W99427  13.227   4.443   4.727  0.0887  0.0466 -0.0349
56437W        W99428  20.707  18.339  27.034 -0.1203  0.2389 -0.1526
56438W        W99429   0.713  28.666   5.667  0.2876 -0.0407  0.1698
56439W        W99430  33.240   2.540  14.698 -0.0410 -0.1551 -0.0375
56440W        W99431  26.966  24.155   5.355  0.1367 -0.3847 -0.0973
56441W        W99432  27.675  10.329  29.057 -0.1936 -0.4661 -0.0170
56442W        W99433  24.002   6.711   6.913 -0.0828 -0.5061 -0.0269
56443W        W99434  13.307  28.502   3.229 -0.0310 -0.1780  0.1838
56444W        W99435   6.361  29.915   4.182  0.1508 -0.1482  0.1896
56445W        W99436  15.157   7.505  24.022 -0.0537  0.0631  0.1282
56446W        W99437   0.831  19.258   1.484  0.0569  0.1095 -0.2163
56447W        W99438  11.481   1.404   7.800  0.0086  0.0819  0.0800
56448W        W99439  30.190   3.425   9.607 -0.0535 -0.1599  0.0053
56449W        W99440   5.582  31.201  20.050  0.0769  0.1511  0.2348
56450W        W99441  20.186  30.204   3.767 -0.0525  0.1010 -0.1143
56451W        W99442   6.866  32.568   9.434  0.1207 -0.3302 -0.3101
56452W        W99443   0.932   0.358   5.911 -0.0557  0.2091  0.0275
56453W        W99444  26.493  12.561  16.063 -0.2451  0.1565 -0.0656
56454W        W99445  25.798   4.004  20.820 -0.1339 -0.0267 -0.0278
56455W        W99446  14.802  20.946  20.992  0.3689 -0.0645  0.0775
56456W        W99447  31.448   6.040   1.767 -0.0444  0.0489 -0.1859
56457W        W99448   1.301  17.806  28.033  0.1034 -0.1397 -0.2188
56458W        W99449   5.637   9.393   7.171  0.1047  0.2261  0.1371
56459W        W99450  26.824   1.862   6.330 -0.3737  0.1829 -0.1725
56460W        W99451  14.485  31.630  15.865  0.2131 -0.0653 -0.1479
56461W        W99452   4.060  14.062   0.044 -0.1323  0.4403 -0.0264
56462W        W99453  18.339  31.615   8.287  0.2958  0.2861 -0.0682
56463W        W99454  34.774   2.126   1.353  0.0062 -0.0449 -0.2872
56464W        W99455  27.699   8.958   1.093  0.3486  0.0405 -0.3611
56465W        W99456  33.141  29.476   0.109 -0.0076  0.0990 -0.1318
56466W        W99457  11.436  30.824   8.781 -0.2272  0.0090 -0.3265
56467W        W99458   0.962  21.677   3.416 -0.2855 -0.2137 -0.0044
56468W        W99459   6.314  24.303   2.124 -0.0488 -0.1264  0.3426
56469W        W99460   3.144  30.143   1.029 -0.1316  0.0497  0.0997
56470W        W99461  23.535   3.575   1.522 -0.0209  0.0172  0.0264
56471W        W99462  31.502   4.060  25.233 -0.2580  0.0399  0.3321
56472W        W99463  29.068   9.960  28.060  0.0943 -0.1594  0.1752
56473W        W99464   2.549   5.856   0.089  0.0892 -0.6094 -0.4978
56474W        W99465   4.431  31.859   3.238 -0.0132  0.2428 -0.0655
56475W        W99466  11.193  10.991  24.858 -0.1032  0.0340  0.1458
56476W        W99467   4.377  23.018   4.041  0.1191  0.1715  0.2042
56477W        W99468  12.917   8.149  21.268  0.1134 -0.2937 -0.0470
56478W        W99469  34.142   2.549  17.599 -0.1994 -0.3444 -0.0652
56479W        W99470  12.009  32.145   5.608 -0.5260 -0.3321  0.1244
56480W        W99471   5.037  13.663  26.923 -0.1468  0.0124  0.0368
56481W        W99472   0.207  29.687   4.979  0.1468 -0.1808 -0.1252
56482W        W99473  18.897  13.170   7.108 -0.0888  0.3215 -0.0830
56483W        W99474  31.596  20.699  22.304 -0.0708 -0.0706  0.0736
56484W        W99475  11.343  11.192   4.606 -0.0466  0.1110  0.1575
56485W        W99476   3.801  15.138   3.624 -0.0590 -0.0802  0.2547
56486W        W99477   2.512  10.644   2.392  0.2868 -0.1959  0.0607
56487W        W99478  31.259  13.848  19.027 -0.0700 -0.2124 -0.1074
56488W        W99479  17.035  22.953  19.227  0.0348  0.1126  0.1900
56489W        W99480   1.962  11.514  28.861  0.2076  0.2858 -0.0746
56490W        W99481  10.182  19.807   8.882  0.1723  0.2485 -0.1216
56491W        W99482  24.650  31.699  20.746 -0.0830 -0.1414  0.1309
56492W        W99483  10.635  31.747  27.456 -0.1084 -0.0208  0.0708
56493W        W99484  25.576  23.824   0.198 -0.0695 -0.0181 -0.0412
56494W        W99485   0.882   1.049   1.893  0.0875 -0.1045 -0.3768
56495W        W99486   8.559  10.516   8.403 -0.3929 -0.1250 -0.0108
56496W        W99487  31.670  27.261   6.056  0.0096  0.3295 -0.0295
56497W        W99488   8.840  18.746   1.431  0.0316  0.1175 -0.2414
56498W        W99489  10.621  25.462  24.745  0.1645  0.2135 -0.1009
56499W        W99490   2.709  30.039   4.112 -0.2859  0.1713  0.0869
56500W        W99491   3.749   6.105  25.018 -0.2223  0.3484  0.1589
56501W        W99492   9.680  25.679  24.559 -0.0117  0.2405 -0.1517
56502W        W99493  18.125  10.806  23.082 -0.0984 -0.4160 -0.1107
56503W        W99494  34.406   4.568   5.548 -0.0251 -0.1052  0.0852
56504W        W99495  26.224  12.982  15.938  0.2559  0.1327 -0.0347
56505W        W99496   3.999  10.845  18.586 -0.2222  0.3727  0.3146
56506W        W99497  13.981  21.669   2.532 -0.2510  0.2179  0.1665
56507W        W99498  25.081  10.910  27.208  0.1925  0.1667  0.2485
56508W        W99499  23.300  34.764   7.196 -0.0478  0.0168 -0.1676
56509W        W99500   4.029  33.341   7.961  0.0533  0.0449  0.0233
56510W        W99501  31.439  16.883   0.686 -0.4318  0.2633 -0.0974
56511W        W99502   9.190  17.127   7.284  0.0587  0.0403  0.2629
56512W        W99503   5.583   7.924  24.892  0.0625  0.1834 -0.1247
56513W        W99504  12.703  30.985  26.539  0.1148 -0.1449 -0.1461
56514W        W99505  14.841   7.661   9.512 -0.0913 -0.2452  0.1731
56515W        W99506   6.148  32.739   6.444 -0.0522  0.0647 -0.1163
56516W        W99507   7.053  22.535  28.938 -0.0396 -0.0170  0.1211
56517W        W99508   6.944   9.019  23.458  0.1295 -0.1306  0.1599
56518W        W99509  23.712   1.903   1.376 -0.2384  0.2789 -0.0538
56519W        W99510  14.905  13.350   0.948 -0.1491  0.2689 -0.1993
56520W        W99511  28.073  24.794  16.825  0.0211  0.1740  0.1231
56521W        W99512  34.571  16.301   6.048 -0.1672  0.0015 -0.0424
56522W        W99513  26.689   9.022  23.233 -0.4315 -0.0890 -0.1366
56523W        W99514  31.234  21.857  21.173  0.1382 -0.2727 -0.0673
56524W        W99515  31.571  15.225   4.228  0.0226 -0.1568 -0.0238
56525W        W99516   9.947   4.744  25.220 -0.0284 -0.0486 -0.0356
56526W        W99517   6.471  27.021   4.552 -0.3104 -0.0256 -0.2094
56527W        W99518   7.120  25.829  24.423 -0.0347 -0.0585 -0.3065
56528W        W99519   1.367  33.365   9.608  0.1518  0.1444  0.0785
56529W        W99520   7.736   8.507   8.940 -0.0302 -0.2189 -0.1022
56530W        W99521   9.419  13.332   7.029 -0.2143  0.2792 -0.2849
56531W        W99522   7.197  12.651  28.531  0.2814  0.2050 -0.1958
56532W        W99523   2.554   5.407   5.015 -0.1673 -0.0575 -0.2536
56533W        W99524   5.557  32.066   5.356  0.0731 -0.1917  0.3146
56534W        W99525  29.289   1.256  28.861  0.0888  0.2034 -0.1763
56535W        W99526  33.643  31.440  19.429  0.4561  0.0846 -0.2086
56536W        W99527   9.044  25.077   1.198 -0.2522 -0.2042  0.1863
56537W        W99528   4.985  22.585   3.441  0.1719 -0.1523  0.1554
56538W        W99529  24.069  25.813  19.457 -0.4387  0.3575 -0.0977
56539W        W99530  12.553  25.384   4.982 -0.1191 -0.0423  0.1291
56540W        W99531  28.416   6.417   7.555 -0.0708 -0.1607  0.0902
56541W        W99532   3.456  17.091  18.339 -0.0350 -0.0098 -0.0067
56542W        W99533  15.822   4.995   4.693 -0.0617 -0.0577  0.2068
56543W        W99534   5.199  21.035  20.698  0.1145  0.0239 -0.2250
56544W        W99535   6.141   7.211  26.566  0.2344 -0.1866  0.1557
56545W        W99536  27.784  31.017  24.449 -0.0196  0.2594  0.0586
56546W        W99537  24.053   3.031  15.259  0.1510  0.1453 -0.0498
56547W        W99538   7.511   3.184  27.704 -0.0443  0.0328 -0.2865
56548W        W99539   7.588  31.531  27.156 -0.0164 -0.2299 -0.0529
56549W        W99540   2.228  30.411  25.819 -0.1679 -0.1355 -0.1002
56550W        W99541   5.331  19.747   5.729 -0.1109  0.0028  0.0599
56551W        W99542  22.644  27.982   5.121 -0.1566 -0.0340 -0.2880
56552W        W99543  13.246   3.213   4.024  0.1960 -0.2148 -0.0950
56553W        W99544   1.688  12.495  20.435 -0.0658 -0.4208  0.1621
56554W        W99545  28.402   4.157   3.323 -0.0483 -0.0312 -0.0239
56555W        W99546  23.903  24.733   7.915  0.2234  0.0573  0.0701
56556W        W99547  28.969  12.114   2.605  0.4737  0.3989  0.1215
56557W        W99548  33.655   8.581   7.637 -0.1098  0.0521  0.0473
56558W        W99549   0.509  26.622   7.032  0.0124 -0.0560  0.1203
56559W        W99550  24.045  20.872  27.427 -0.2861 -0.0540  0.4156
56560W        W99551  10.890   6.942  18.833 -0.1330  0.0728 -0.1279
56561W        W99552  22.623  12.304   9.215 -0.1889  0.1954 -0.0343
56562W        W99553  30.884  12.446   0.834  0.1963  0.0227 -0.0232
56563W        W99554  25.239  33.732   0.955 -0.0574  0.1654 -0.0967
56564W        W99555  20.005   3.420  28.443  0.1761  0.3080  0.0633
56565W        W99556  32.243  33.982  17.918  0.0418 -0.1216 -0.0143
56566W        W99557  32.960  30.234  19.870  0.2450  0.2687  0.1856
56567W        W99558  15.476  24.291   5.798  0.0368  0.1055 -0.0748
56568W        W99559  29.428  21.864   7.760 -0.1423  0.2832  0.3085
56569W        W99560  19.189  13.704   5.950 -0.3017 -0.1235  0.1467
56570W        W99561  30.210  31.361   8.118 -0.0085 -0.1178 -0.3452
56571W        W99562  31.524  30.864   6.592 -0.0910  0.2581 -0.1564
56572W        W99563  10.713  30.827   7.923 -0.0234  0.1042  0.2098
56573W        W99564  31.430   5.296   5.243  0.0675  0.0440 -0.1551
56574W        W99565   2.846  22.375  29.012  0.1722 -0.2966 -0.1704
56575W        W99566  33.067   9.105   2.444  0.4641  0.3315 -0.0275
56576W        W99567  32.039   3.400   6.409  0.2168  0.3204  0.1771
56577W        W99568   3.768  31.740  28.815 -0.0689 -0.1240  0.2271
56578W        W99569  33.547  22.862  25.575  0.2019  0.3372 -0.0790
56579W        W99570   6.179   7.454   9.881 -0.4263  0.5663  0.1267
56580W        W99571   5.652  20.092   0.742 -0.1719 -0.3967  0.1235
56581W        W99572  30.823  28.664   4.740  0.1912  0.2544  0.1192
56582W        W99573  22.403   7.986   9.566  0.3402 -0.2342 -0.1199
56583W        W99574  32.089   0.139   7.770 -0.0595 -0.2327  0.1914
56584W        W99575   7.547  34.770  28.737 -0.1530  0.1895  0.1674
56585W        W99576  33.838  27.631  24.215  0.0028 -0.0220  0.0464
56586W        W99577  11.465  11.913  10.015  0.2975 -0.2640 -0.1826
56587W        W99578   2.751   8.256   7.438 -0.2112  0.0470  0.0137
56588W        W99579  33.595  25.653   2.874  0.0916 -0.1969 -0.0907
56589W        W99580   2.080   0.108  28.485  0.0071 -0.0569  0.0696
56590W        W99581   8.528  30.350   8.847 -0.1578  0.0790  0.1671
56591W        W99582  28.203  29.590   4.618 -0.0539 -0.2433  0.1389
56592W        W99583   1.279  28.501  26.989 -0.1129 -0.0587 -0.0617
56593W        W99584   3.932   5.256  28.763 -0.0605  0.1030 -0.2024
56594W        W99585   5.942  30.033  27.081  0.2578 -0.2219 -0.1466
56595W        W99586   4.815   1.629  20.593 -0.1529 -0.0886 -0.0311
56596W        W99587  32.365  29.760   6.932 -0.2025  0.0896  0.2186
56597W        W99588  31.286  28.189  14.732  0.0971 -0.2072 -0.0203
56598W        W99589   5.696  13.869  10.664  0.2362 -0.4610 -0.4904
56599W        W99590  26.318  31.035  15.110 -0.2281 -0.2709  0.0162
56600W        W99591   4.925  19.515   7.087 -0.2713 -0.2663 -0.1017
56601W        W99592  32.238  17.901  25.502 -0.3017 -0.0601 -0.1064
56602W        W99593  21.150  25.008  17.109 -0.1553 -0.2278  0.2782
56603W        W99594  32.108   9.336   4.191 -0.1431 -0.0535  0.1072
56604W        W99595  32.388   2.268   5.016 -0.0693 -0.0317 -0.0153
56605W        W99596  30.155   1.931   6.266  0.2134  0.0203  0.1743
56606W        W99597  28.042  17.671  14.590  0.0780  0.2203 -0.2604
56607W        W99598  32.674   5.946  23.349 -0.2595  0.0312  0.1595
56608W        W99599  23.124  25.618   4.804 -0.0725  0.0201  0.0384
56609W        W99600   2.182   3.857   8.769 -0.1064  0.0670  0.1280
56610W        W99601  27.285  28.559  17.848 -0.0267  0.0413 -0.1891
56611W        W99602   3.651   3.007   8.817  0.0709  0.0128  0.2407
56612W        W99603  23.289   6.557   3.891 -0.0725 -0.1499  0.0872
56613W        W99604   3.400   7.367   7.713  0.1183 -0.1110 -0.0048
56614W        W99605   2.250   9.575   3.790  0.0337 -0.2993 -0.0698
56615W        W99606  26.720  17.314   2.232  0.2513 -0.0831  0.2541
56616W        W99607   1.577  15.980  27.533 -0.0024  0.0046  0.2504
56617W        W99608  28.861  10.644   5.739 -0.0327  0.0626  0.6628
56618W        W99609   0.187  13.522   5.343 -0.1010  0.1177 -0.3240
56619W        W99610  10.734  31.437   0.052 -0.0787 -0.0069 -0.0497
56620W        W99611  29.301  31.756   7.972  0.1973  0.1440 -0.1785
56621W        W99612   6.615  11.077  27.499  0.0081  0.0719  0.1527
56622W        W99613  28.843  29.901  25.960  0.0231  0.2248 -0.4837
56623W        W99614  26.378  30.660  22.184 -0.1698 -0.0116  0.0052
56624W        W99615  28.556  20.697   7.925 -0.1516 -0.0081 -0.0027
56625W        W99616  33.568   7.361   7.985 -0.0113 -0.0697 -0.4443
56626W        W99617  33.172  25.241   3.003  0.1515  0.0563  0.1607
56627W        W99618  26.154  22.567   0.659 -0.0997 -0.1089 -0.0043
56628W        W99619  33.363  32.052   2.841  0.1870  0.0312  0.0355
56629W        W99620  30.035  34.085  25.490 -0.0662 -0.2218 -0.1413
56630W        W99621   1.064  25.599  28.280  0.1382 -0.1837 -0.0598
56631W        W99622  21.885  32.732   1.121  0.0093  0.0291  0.0926
56632W        W99623  29.997  20.200   5.573 -0.1217  0.0914  0.0556
56633W        W99624   7.542  34.733   8.609  0.0575  0.2453 -0.0865
56634W        W99625   8.084   4.817   2.587  0.0375 -0.0274  0.0841
56635W        W99626  24.399   6.040   6.828  0.3366 -0.1129  0.4581
56636W        W99627  30.187   8.791  16.164 -0.0226 -0.2664  0.0098
56637W        W99628   1.610   2.825  26.044 -0.0371  0.0118 -0.1019
56638W        W99629   1.948   7.044  21.958  0.1872 -0.0252  0.1155
56639W        W99630  20.900  13.416  19.130 -0.0454 -0.2301  0.2486
56640W        W99631  28.033  24.904  28.262  0.1385  0.2308  0.0184
56641W        W99632   5.641  22.223   8.201  0.0594  0.0380 -0.0121
56642W        W99633  24.383  29.221  26.498 -0.3055 -0.1144  0.3523
56643W        W99634   0.320  30.085   3.888  0.2199  0.2201  0.0468
56644W        W99635  21.380   4.129   5.555  0.2142 -0.1505  0.2860
56645W        W99636   3.520  33.535   8.201 -0.2722  0.0249 -0.4393
56646W        W99637  34.040  33.932   5.008  0.0974  0.1183  0.0170
56647W        W99638   1.572   9.608   9.925  0.2701  0.0011 -0.1642
56648W        W99639   2.607   2.208   6.484  0.0859 -0.0053 -0.0715
56649W        W99640   9.587  34.742  25.927 -0.3621 -0.0056  0.0259
56650W        W99641  33.350  15.051  22.398 -0.1585  0.2795  0.0227
56651W        W99642  12.774   2.300   3.223 -0.0321  0.1296 -0.1430
56652W        W99643  28.341  14.580  24.528 -0.1651  0.1456 -0.0891
56653W        W99644  22.843   3.166  20.995  0.0252  0.0546 -0.1798
56654W        W99645  10.610   7.278   0.602  0.2134  0.1362  0.1745
56655W        W99646  10.442  30.743   5.777  0.4639 -0.1745 -0.0570
56656W        W99647  26.834  15.901   9.995  0.1125  0.0200 -0.3905
56657W        W99648  16.287  32.725   8.275  0.1474  0.1751 -0.0840
56658W        W99649  19.952   2.401   6.502 -0.1912  0.1717 -0.0568
56659W        W99650  28.897   9.808  26.599  0.3826  0.1037 -0.0434
56660W        W99651  31.752   1.857   7.457 -0.0042  0.1614 -0.0735
56661W        W99652   4.928   0.510   6.102 -0.0912 -0.4076 -0.2540
56662W        W99653  23.094   0.367  22.897 -0.0750  0.2642  0.1306
56663W        W99654  22.036  25.102  22.693  0.3047  0.1321  0.0475
56664W        W99655  29.048   0.651  21.004  0.1438 -0.1124  0.2498
56665W        W99656  29.567  11.025  10.271 -0.1050 -0.2423  0.0193
56666W        W99657  23.038  16.137  28.576 -0.1602 -0.1029 -0.2641
56667W        W99658  11.538  25.599   6.411  0.4287 -0.4732  0.0330
56668W        W99659  30.609   1.080   8.601 -0.2504  0.2892 -0.1789
56669W        W99660  26.654   0.704   1.779 -0.2169 -0.0574  0.2615
56670W        W99661   6.766  32.094  24.122  0.0956 -0.0145 -0.4000
56671W        W99662   7.598  32.518   5.752 -0.3847  0.1501  0.1046
56672W        W99663  25.485  28.132  27.021 -0.2983 -0.0490 -0.4715
56673W        W99664  10.106  23.148   4.782  0.0096  0.0458 -0.2497
56674W        W99665  14.717  23.865  27.694 -0.1413 -0.0942 -0.3670
56675W        W99666  33.213   9.816  29.211 -0.0255  0.2657  0.1380
56676W        W99667   4.524  28.493   8.899  0.1455  0.0344  0.0391
56677W        W99668  31.569   4.663   6.399  0.0281 -0.2097  0.1650
56678W        W99669  16.118  25.891  29.164  0.1160 -0.1332  0.0071
56679W        W99670   2.618  32.975   4.538  0.1896  0.1630  0.0662
56680W        W99671  32.029   1.173   0.730  0.1584 -0.2592  0.0580
56681W        W99672  34.588   6.277   2.390 -0.2153  0.0374 -0.0448
56682W        W99673   6.288  29.851   9.805 -0.0229  0.2779 -0.2246
56683W        W99674   5.699  23.884  22.403 -0.0409  0.1927 -0.2734
56684W        W99675  27.522  20.902   3.711 -0.0531 -0.2745 -0.1427
56685W        W99676  28.542   9.077   8.177 -0.1267 -0.3219  0.0985
56686W        W99677   4.463  33.770   6.314  0.2836  0.0585  0.2331
56687W        W99678  31.809   3.626   5.163  0.0676 -0.1240  0.0636
56688W        W99679   2.575   9.955   2.494 -0.1436 -0.3040  0.0100
56689W        W99680  23.969   1.873   6.534  0.1263  0.2573  0.3574
56690W        W99681  34.637  14.903   8.893 -0.0021  0.1360 -0.1971
56691W        W99682  22.391   7.766   2.038  0.3484 -0.0192  0.2215
56692W        W99683   1.552  34.417  20.818 -0.2099 -0.1788 -0.0880
56693W        W99684   5.280   4.359  10.917  0.0547 -0.1492 -0.0744
56694W        W99685  34.406  15.107   0.398 -0.0999 -0.1302 -0.2336
56695W        W99686   0.773   1.871   7.479  0.2108  0.0149  0.2118
56696W        W99687  22.240  33.438   6.153 -0.1021 -0.1728  0.2086
56697W        W99688  24.307   9.123  22.537 -0.0298  0.1947  0.1374
56698W        W99689  34.499  13.747  11.365  0.0137 -0.1474 -0.1621
56699W        W99690   9.708  32.048   6.458  0.3470 -0.0445 -0.0207
56700W        W99691  32.526  20.625   6.536 -0.2113  0.0079 -0.1891
56701W        W99692  11.542   1.229  24.025 -0.2107 -0.2533 -0.2648
56702W        W99693  29.636   4.735  23.236  0.0216 -0.1225  0.0136
56703W        W99694  17.558   4.455   5.491  0.1978  0.1738 -0.0292
56704W        W99695  23.727  30.831   4.000  0.0544 -0.0568 -0.0633
56705W        W99696  22.355  15.451   2.611 -0.3667 -0.4072 -0.3320
56706W        W99697  26.591  20.254   3.169  0.1443 -0.1914  0.2019
56707W        W99698  21.475   3.018   7.362  0.1540  0.2622 -0.0417
56708W        W99699   2.868  16.618  12.229  0.1621  0.2159  0.2425
56709W        W99700  13.894  11.117  27.096 -0.1009  0.0777  0.3240
56710W        W99701  27.560   2.982   6.835 -0.0503 -0.0934 -0.2757
56711W        W99702  10.095  27.361   2.373 -0.2018 -0.2286  0.2166
56712W        W99703  29.638  32.413   3.916 -0.2136  0.0108  0.1418
56713W        W99704  25.901   3.678   5.949  0.0658 -0.0784  0.1039
56714W        W99705   0.386  15.024  11.572  0.1448  0.2369  0.2064
56715W        W99706   3.207   2.813   1.120  0.1234  0.3610  0.3280
56716W        W99707   1.622   2.764   9.343  0.0658 -0.0947  0.2023
56717W        W99708  15.593  20.068  25.191 -0.2151  0.1675  0.1332
56718W        W99709  10.423   3.510  10.599 -0.1542  0.1297 -0.3500
56719W        W99710   3.872   8.128  10.409  0.0579 -0.1553  0.0174
56720W        W99711  24.328  15.308   0.306 -0.5196  0.3753  0.0034
56721W        W99712   3.384   1.059   4.543  0.2376  0.1686  0.2388
56722W        W99713  28.465  31.468   7.472 -0.3381  0.0498  0.3306
56723W        W99714  29.599   5.327   9.497  0.0165  0.1606  0.0969
56724W        W99715  11.405   3.452  18.491 -0.0844  0.1160 -0.2575
56725W        W99716  33.825  24.053   7.157  0.2724  0.1776 -0.1325
56726W        W99717   2.986  34.311   0.313  0.0049  0.0266  0.0774
56727W        W99718  11.066  32.537  20.511 -0.1514 -0.0702  0.1016
56728W        W99719  29.433  20.497  28.141 -0.0861  0.1738  0.1567
56729W        W99720   1.206  28.372   4.516  0.0667  0.1561 -0.0129
56730W        W99721   2.260   9.967   6.670 -0.5628  0.0428  0.0369
56731W        W99722  26.118  27.805  29.028  0.0452  0.1821 -0.1082
56732W        W99723  11.724   0.351  16.786 -0.0092  0.2443  0.0474
56733W        W99724   5.255  29.142   7.524 -0.0299 -0.1273 -0.1028
56734W        W99725  31.100  29.390   8.422 -0.0001  0.1080  0.0833
56735W        W99726  27.470  33.252   4.884 -0.0911 -0.0942 -0.0320
56736W        W99727  32.693  12.440   7.436  0.4131  0.1568  0.1865
56737W        W99728   7.226  31.946   3.363 -0.1913  0.1631  0.1712
56738W        W99729   8.988  14.043   3.690 -0.0760 -0.0739  0.1529
56739W        W99730   1.254   2.919   9.651  0.2154  0.1786  0.0090
56740W        W99731  33.604   7.506  23.897  0.2236 -0.3435  0.1993
56741W        W99732  31.033  11.604  10.094 -0.0056  0.2994 -0.0871
56742W        W99733  18.976  12.463   4.127  0.1753  0.4568 -0.0290
56743W        W99734  11.225  29.324   7.814 -0.2144  0.2440 -0.0478
56744W        W99735  10.206  21.778   7.357  0.0187  0.0683  0.1530
56745W        W99736  20.783  20.964   8.754 -0.0750  0.0398  0.3444
56746W        W99737  27.897  13.571   6.919 -0.3833  0.4268  0.2489
56747W        W99738  23.422  10.922   2.507 -0.2405 -0.1430  0.0465
56748W        W99739   0.875  34.675   9.323 -0.1128  0.2663 -0.2752
56749W        W99740  23.929   2.159   9.066  0.0607 -0.1123 -0.0646
56750W        W99741  24.674  24.031  23.836  0.0063 -0.1464  0.0570
56751W        W99742  33.402  29.580   5.927  0.2685  0.0784 -0.0552
56752W        W99743   3.277  13.335  12.210  0.0682  0.3303  0.1445
56753W        W99744   5.317  33.657   6.537  0.2818  0.2975  0.1138
56754W        W99745  28.900  29.108   2.843 -0.0549 -0.3587  0.0900
56755W        W99746   8.966  10.891   8.312 -0.1003  0.0841  0.3502
56756W        W99747  30.610  26.945   6.705  0.2065  0.0429  0.1462
56757W        W99748  27.840   6.119   2.077 -0.2838 -0.1646  0.0874
56758W        W99749  28.585  29.114   3.186  0.0338  0.0815  0.3543
56759W        W99750  22.044  24.156  25.763 -0.0889  0.1329  0.0292
56760W        W99751  29.166  19.876   3.841  0.1163 -0.4537  0.2120
56761W        W99752  33.785  28.175   0.400 -0.0005  0.0273  0.0334
56762W        W99753   2.646  34.790   9.008  0.0061 -0.3073 -0.1035
56763W        W99754  25.954  22.462  27.558  0.1679  0.1572  0.1247
56764W        W99755   6.588   8.084  23.487 -0.0584  0.1304 -0.1483
56765W        W99756  15.686   1.417   1.228 -0.0554  0.1570 -0.0176
56766W        W99757  10.655  30.798   9.889 -0.1663  0.1132 -0.0677
56767W        W99758  32.927   5.054   3.532 -0.2294 -0.0526  0.2661
56768W        W99759  31.823   7.126   4.191  0.3174  0.1832  0.2079
56769W        W99760  31.152  23.671   4.802  0.3036 -0.0916  0.0792
56770W        W99761  22.711  23.878   1.271  0.0380 -0.1738 -0.3800
56771W        W99762  27.640  17.021   8.534  0.0434 -0.1449  0.1299
  34.80138  34.80138  29.26351
